BDT dimerization
205661
    1BDT   BNZ1    1   5.331  26.088  25.534  0.1600 -0.0177 -0.2459
    1BDT   BNZ2    2   5.339  26.113  25.353 -0.1857 -0.3639 -0.3160
    1BDT   BNZ3    3   5.482  25.919  25.425  0.0368 -0.1591 -0.1989
    1BDT    BS1    4   5.462  25.906  25.620  0.4038  0.2110 -0.1419
    1BDT    BS2    5   5.479  25.961  25.231 -0.3390 -0.5340 -0.2791
    2BDT   BNZ1    6  26.294   5.973   0.230  0.3794 -0.0381 -0.0842
    2BDT   BNZ2    7  26.327   6.097   0.360 -0.0670 -0.2320  0.2257
    2BDT   BNZ3    8  26.493   5.908   0.370  0.1321 -0.0564  0.2660
    2BDT    BS1    9  26.444   5.785   0.225  0.6136  0.1535 -0.0731
    2BDT    BS2   10  26.513   6.052   0.504 -0.3479 -0.2764  0.5771
    3BDT   BNZ1   11  19.766  15.883   4.269 -0.2417  0.2208  0.2607
    3BDT   BNZ2   12  19.629  15.764   4.241 -0.2467  0.1977  0.3833
    3BDT   BNZ3   13  19.584  15.984   4.126 -0.0518 -0.0502 -0.1852
    3BDT    BS1   14  19.739  16.099   4.166 -0.0605 -0.0128 -0.2739
    3BDT    BS2   15  19.446  15.843   4.108 -0.0715 -0.0605 -0.0086
    4BDT   BNZ1   16  23.771   8.693  15.654 -0.0489 -0.0940  0.1690
    4BDT   BNZ2   17  23.788   8.872  15.687 -0.1959 -0.0429 -0.0279
    4BDT   BNZ3   18  24.003   8.751  15.735 -0.0381  0.2149 -0.0761
    4BDT    BS1   19  23.969   8.561  15.694  0.1112  0.1396  0.1458
    4BDT    BS2   20  24.002   8.946  15.765 -0.2050  0.2450 -0.2767
    5BDT   BNZ1   21  26.291  10.415  23.134 -0.0937 -0.0857  0.0908
    5BDT   BNZ2   22  26.469  10.424  23.178 -0.0722 -0.2957  0.0521
    5BDT   BNZ3   23  26.424  10.238  23.015 -0.2907 -0.0858 -0.1319
    5BDT    BS1   24  26.231  10.242  22.979 -0.2956  0.1326 -0.0731
    5BDT    BS2   25  26.611  10.262  23.073 -0.2510 -0.3187 -0.1559
    6BDT   BNZ1   26   1.133   3.762   3.233 -0.0988  0.2517  0.0174
    6BDT   BNZ2   27   1.153   3.861   3.386  0.4015  0.0272  0.1084
    6BDT   BNZ3   28   1.235   3.987   3.184  0.2907  0.1002  0.1088
    6BDT    BS1   29   1.206   3.868   3.030 -0.2551  0.3484  0.0156
    6BDT    BS2   30   1.248   4.079   3.358  0.8160 -0.1432  0.1956
    7BDT   BNZ1   31   8.358   3.074  18.576 -0.1443 -0.0696  0.1945
    7BDT   BNZ2   32   8.475   2.934  18.592  0.1237  0.1085 -0.1275
    7BDT   BNZ3   33   8.274   2.871  18.454  0.2490  0.0433 -0.2811
    7BDT    BS1   34   8.160   3.031  18.446 -0.0559 -0.1475  0.0900
    7BDT    BS2   35   8.411   2.731  18.482  0.5103  0.2439 -0.6008
    8BDT   BNZ1   36   1.558  11.825   4.947  0.0764  0.1307 -0.1894
    8BDT   BNZ2   37   1.527  11.999   4.994  0.1899  0.0366  0.2545
    8BDT   BNZ3   38   1.749  11.918   5.082  0.0944 -0.3628  0.1394
    8BDT    BS1   39   1.766  11.731   5.022 -0.0287 -0.2227 -0.3450
    8BDT    BS2   40   1.699  12.105   5.123  0.2172 -0.4351  0.6040
    9BDT   BNZ1   41   6.173  20.063   6.408 -0.1159 -0.2008  0.1073
    9BDT   BNZ2   42   6.040  20.115   6.294 -0.0815  0.0303  0.1703
    9BDT   BNZ3   43   6.253  20.063   6.169 -0.0876  0.1384  0.1138
    9BDT    BS1   44   6.384  20.009   6.306 -0.1259 -0.1263  0.0491
    9BDT    BS2   45   6.098  20.121   6.061 -0.0496  0.3678  0.1864
   10BDT   BNZ1   46  18.775  17.798   3.191  0.1739 -0.1135 -0.1226
   10BDT   BNZ2   47  18.698  17.956   3.242 -0.0604 -0.2851  0.0641
   10BDT   BNZ3   48  18.640  17.899   3.004  0.1235 -0.0340 -0.0436
   10BDT    BS1   49  18.730  17.728   2.965  0.3664  0.1433 -0.2399
   10BDT    BS2   50  18.564  18.067   3.076 -0.1339 -0.2312  0.1590
   11BDT   BNZ1   51   7.457  19.106   1.185  0.1764  0.0440  0.2509
   11BDT   BNZ2   52   7.479  19.287   1.197  0.0834  0.0501  0.3332
   11BDT   BNZ3   53   7.248  19.229   1.114  0.0989 -0.0314  0.3467
   11BDT    BS1   54   7.241  19.032   1.106  0.2011 -0.0317  0.2544
   11BDT    BS2   55   7.290  19.421   1.133  0.0016 -0.0186  0.4308
   12BDT   BNZ1   56  19.425  26.224  22.116  0.1380  0.0520  0.0073
   12BDT   BNZ2   57  19.315  26.370  22.118  0.0186 -0.0289 -0.2941
   12BDT   BNZ3   58  19.541  26.424  22.216 -0.2419  0.1734  0.2137
   12BDT    BS1   59  19.646  26.257  22.206 -0.0984  0.2522  0.5069
   12BDT    BS2   60  19.409  26.571  22.211 -0.3492  0.0725 -0.1414
   13BDT   BNZ1   61  12.428  19.714  14.569  0.0412 -0.0487 -0.0177
   13BDT   BNZ2   62  12.489  19.579  14.677 -0.2646 -0.1005  0.0943
   13BDT   BNZ3   63  12.239  19.570  14.650 -0.2388  0.1638 -0.2825
   13BDT    BS1   64  12.191  19.720  14.532  0.1034  0.1980 -0.3748
   13BDT    BS2   65  12.322  19.431  14.764 -0.5545  0.0907 -0.1371
   14BDT   BNZ1   66   4.356   1.618  21.497  0.0843  0.0100  0.0758
   14BDT   BNZ2   67   4.326   1.546  21.332  0.2436 -0.0359  0.0661
   14BDT   BNZ3   68   4.210   1.414  21.513 -0.0054  0.0669 -0.0170
   14BDT    BS1   69   4.252   1.505  21.682 -0.1628  0.1095 -0.0023
   14BDT    BS2   70   4.188   1.349  21.327  0.1799  0.0112 -0.0217
   15BDT   BNZ1   71  13.065   2.365  16.288  0.2253  0.2540  0.1852
   15BDT   BNZ2   72  13.067   2.518  16.188  0.2626  0.1395  0.0083
   15BDT   BNZ3   73  12.839   2.476  16.287  0.2300  0.2623 -0.0150
   15BDT    BS1   74  12.854   2.309  16.390  0.1914  0.3808  0.1823
   15BDT    BS2   75  12.860   2.638  16.175  0.2715  0.1326 -0.1952
   16BDT   BNZ1   76  22.821  24.562   7.241 -0.1204 -0.2166 -0.0798
   16BDT   BNZ2   77  22.813  24.674   7.096  0.0519  0.0422  0.1060
   16BDT   BNZ3   78  22.722  24.786   7.302 -0.1416 -0.3044  0.2132
   16BDT    BS1   79  22.737  24.653   7.447 -0.3175 -0.5614 -0.0084
   16BDT    BS2   80  22.722  24.892   7.136  0.0530 -0.0099  0.3956
   17BDT   BNZ1   81   9.424  28.693  23.591 -0.0152 -0.2310  0.0308
   17BDT   BNZ2   82   9.569  28.611  23.515  0.1179 -0.1723  0.2167
   17BDT   BNZ3   83   9.606  28.651  23.761 -0.1728 -0.0616  0.2437
   17BDT    BS1   84   9.442  28.740  23.826 -0.2971 -0.1363  0.0330
   17BDT    BS2   85   9.752  28.563  23.662 -0.0131 -0.0094  0.4327
   18BDT   BNZ1   86  16.539  25.603  14.175  0.0443  0.1178  0.0518
   18BDT   BNZ2   87  16.648  25.690  14.293  0.2667 -0.2233  0.1044
   18BDT   BNZ3   88  16.782  25.574  14.114 -0.0318 -0.3161 -0.0619
   18BDT    BS1   89  16.650  25.486  13.996 -0.2542  0.0729 -0.1028
   18BDT    BS2   90  16.884  25.673  14.251  0.2182 -0.6625  0.0047
   19BDT   BNZ1   91  19.378  18.708  16.108 -0.0075 -0.1478 -0.0038
   19BDT   BNZ2   92  19.502  18.618  16.007 -0.0875  0.0378 -0.2737
   19BDT   BNZ3   93  19.613  18.763  16.181  0.0558 -0.1908 -0.1728
   19BDT    BS1   94  19.467  18.852  16.279  0.1370 -0.3821  0.1156
   19BDT    BS2   95  19.732  18.658  16.063 -0.0392  0.0198 -0.4602
   20BDT   BNZ1   96  21.173  18.876  13.807 -0.0933  0.0150 -0.0923
   20BDT   BNZ2   97  21.119  18.989  13.673 -0.0025  0.1374 -0.0265
   20BDT   BNZ3   98  20.990  19.030  13.886 -0.0863  0.0013 -0.0502
   20BDT    BS1   99  21.060  18.902  14.018 -0.1812 -0.1228 -0.1226
   20BDT    BS2  100  20.945  19.144  13.731  0.0143  0.1392  0.0196
   21BDT   BNZ1  101   5.361  21.201  20.466  0.2129 -0.0985 -0.2041
   21BDT   BNZ2  102   5.239  21.303  20.376  0.0197  0.0060  0.1685
   21BDT   BNZ3  103   5.382  21.171  20.217 -0.4929 -0.0221 -0.2819
   21BDT    BS1  104   5.507  21.067  20.328 -0.2463 -0.1291 -0.6563
   21BDT    BS2  105   5.243  21.287  20.137 -0.6512  0.0887  0.1498
   22BDT   BNZ1  106  10.303   2.192  23.370  0.0345 -0.2377 -0.0982
   22BDT   BNZ2  107  10.179   2.251  23.491 -0.0583 -0.0317 -0.2908
   22BDT   BNZ3  108  10.408   2.240  23.594 -0.1577  0.0233 -0.0615
   22BDT    BS1  109  10.529   2.176  23.453 -0.0501 -0.2088  0.1353
   22BDT    BS2  110  10.260   2.301  23.710 -0.2449  0.2310 -0.2822
   23BDT   BNZ1  111   1.270   9.255   3.085 -0.4290  0.1326 -0.0409
   23BDT   BNZ2  112   1.293   9.087   3.154 -0.0165  0.1164 -0.2062
   23BDT   BNZ3  113   1.276   9.260   3.337 -0.0471 -0.0567 -0.0442
   23BDT    BS1  114   1.252   9.433   3.247 -0.5018 -0.0309  0.1275
   23BDT    BS2  115   1.302   9.072   3.393  0.3813 -0.0543 -0.2319
   24BDT   BNZ1  116  18.729   0.263  21.270 -0.0352  0.2536 -0.1523
   24BDT   BNZ2  117  18.558   0.281  21.208 -0.1955  0.0087  0.2054
   24BDT   BNZ3  118  18.625   0.479  21.347 -0.2087  0.0768  0.1157
   24BDT    BS1  119  18.810   0.444  21.405 -0.0361  0.3436 -0.2768
   24BDT    BS2  120  18.443   0.481  21.272 -0.3674 -0.1830  0.4949
   25BDT   BNZ1  121   5.525  26.242  15.428 -0.1351 -0.2741  0.0048
   25BDT   BNZ2  122   5.462  26.398  15.500 -0.1469 -0.1757 -0.2137
   25BDT   BNZ3  123   5.313  26.204  15.558  0.0127 -0.1574  0.2848
   25BDT    BS1  124   5.394  26.046  15.473  0.0140 -0.2611  0.4897
   25BDT    BS2  125   5.260  26.381  15.628 -0.0108 -0.0529  0.0180
   26BDT   BNZ1  126   7.707   8.498  17.505 -0.1286 -0.0805 -0.0199
   26BDT   BNZ2  127   7.631   8.484  17.339 -0.1500 -0.0783 -0.0103
   26BDT   BNZ3  128   7.522   8.666  17.475  0.1895  0.2507 -0.1696
   26BDT    BS1  129   7.615   8.668  17.648  0.1899  0.2193 -0.1692
   26BDT    BS2  130   7.452   8.636  17.292  0.1425  0.2228 -0.1479
   27BDT   BNZ1  131  29.046   8.013   8.737 -0.0950  0.0267 -0.2159
   27BDT   BNZ2  132  29.219   7.955   8.724 -0.0988  0.0106 -0.1950
   27BDT   BNZ3  133  29.194   8.188   8.633 -0.0490  0.0456 -0.1192
   27BDT    BS1  134  29.004   8.235   8.654 -0.0487  0.0606 -0.1482
   27BDT    BS2  135  29.375   8.109   8.627 -0.0573  0.0259 -0.1036
   28BDT   BNZ1  136  24.304   4.080   5.525 -0.0116  0.1972  0.0036
   28BDT   BNZ2  137  24.326   3.917   5.606 -0.1679  0.2330  0.1207
   28BDT   BNZ3  138  24.282   3.892   5.359 -0.1341  0.1008  0.1277
   28BDT    BS1  139  24.261   4.075   5.288  0.0369  0.0705 -0.0018
   28BDT    BS2  140  24.308   3.726   5.462 -0.2985  0.1497  0.2481
   29BDT   BNZ1  141  17.179  23.739  21.312  0.0426 -0.2969  0.2095
   29BDT   BNZ2  142  17.254  23.648  21.172 -0.0947 -0.2028  0.0725
   29BDT   BNZ3  143  17.029  23.741  21.110  0.0080  0.1619  0.2355
   29BDT    BS1  144  16.963  23.835  21.269  0.1551  0.0284  0.3763
   29BDT    BS2  145  17.125  23.639  20.970 -0.1406  0.2300  0.0837
   30BDT   BNZ1  146   3.521   5.941  19.105 -0.1006  0.0685 -0.1910
   30BDT   BNZ2  147   3.570   5.946  19.281 -0.2436  0.0047 -0.1487
   30BDT   BNZ3  148   3.637   5.728  19.173  0.0788  0.1478 -0.2444
   30BDT    BS1  149   3.578   5.739  18.986  0.2128  0.2091 -0.2805
   30BDT    BS2  150   3.682   5.751  19.364 -0.0955  0.0716 -0.1910
   31BDT   BNZ1  151   7.689   1.963  28.076 -0.1209 -0.1174  0.0561
   31BDT   BNZ2  152   7.633   1.849  28.207  0.0767 -0.1251  0.1338
   31BDT   BNZ3  153   7.514   2.070  28.222 -0.0708 -0.2073  0.1821
   31BDT    BS1  154   7.584   2.180  28.075 -0.2791 -0.1939  0.0936
   31BDT    BS2  155   7.466   1.934  28.357  0.1458 -0.2087  0.2582
   32BDT   BNZ1  156  13.633  15.941  25.416 -0.0264  0.1867 -0.0553
   32BDT   BNZ2  157  13.678  15.769  25.375 -0.2384  0.0990  0.0713
   32BDT   BNZ3  158  13.874  15.924  25.344 -0.0468 -0.1619 -0.0513
   32BDT    BS1  159  13.808  16.104  25.392  0.1723 -0.0480 -0.1825
   32BDT    BS2  160  13.905  15.733  25.304 -0.2840 -0.2308  0.0904
   33BDT   BNZ1  161  19.881  24.868  18.499 -0.1640 -0.0169  0.3591
   33BDT   BNZ2  162  19.724  24.961  18.490 -0.1195  0.0530  0.3000
   33BDT   BNZ3  163  19.719  24.791  18.676 -0.2564  0.0702  0.3130
   33BDT    BS1  164  19.894  24.701  18.671 -0.2955 -0.0083  0.3772
   33BDT    BS2  165  19.557  24.901  18.652 -0.1992  0.1414  0.2506
   34BDT   BNZ1  166   3.953  19.056  26.720 -0.0971  0.0762 -0.1256
   34BDT   BNZ2  167   4.025  18.973  26.866 -0.0054 -0.2363 -0.3447
   34BDT   BNZ3  168   4.131  19.198  26.829 -0.0423 -0.1452  0.0765
   34BDT    BS1  169   4.044  19.274  26.669 -0.1390  0.1886  0.2941
   34BDT    BS2  170   4.196  19.093  26.983  0.0543 -0.4776 -0.1845
   35BDT   BNZ1  171  25.790  26.156  28.260  0.4637 -0.0992 -0.1650
   35BDT   BNZ2  172  25.702  26.050  28.139  0.4825 -0.0639 -0.2092
   35BDT   BNZ3  173  25.675  26.295  28.084  0.1413 -0.0284  0.0946
   35BDT    BS1  174  25.775  26.393  28.223  0.1477 -0.0741  0.1217
   35BDT    BS2  175  25.587  26.166  27.963  0.1892  0.0015  0.0256
   36BDT   BNZ1  176  23.198  17.242  24.072  0.1040 -0.3002 -0.0229
   36BDT   BNZ2  177  23.203  17.164  23.906 -0.0267 -0.0615 -0.1416
   36BDT   BNZ3  178  23.060  17.371  23.905  0.2096  0.1073  0.2011
   36BDT    BS1  179  23.066  17.442  24.089  0.3387 -0.1746  0.3048
   36BDT    BS2  180  23.077  17.274  23.734  0.0574  0.3385  0.0535
   37BDT   BNZ1  181  15.860  13.194  10.815  0.1490 -0.0066 -0.0783
   37BDT   BNZ2  182  15.965  13.329  10.878 -0.1190  0.0307  0.3088
   37BDT   BNZ3  183  15.796  13.414  10.712  0.1818  0.0417  0.0041
   37BDT    BS1  184  15.692  13.257  10.655  0.4643  0.0093 -0.3968
   37BDT    BS2  185  15.919  13.548  10.790 -0.1192  0.0793  0.4297
   38BDT   BNZ1  186   4.984  16.248  28.816  0.0175  0.1513  0.2141
   38BDT   BNZ2  187   5.041  16.241  28.990 -0.0924 -0.0986  0.2407
   38BDT   BNZ3  188   4.793  16.195  28.972 -0.1401  0.2212  0.0473
   38BDT    BS1  189   4.750  16.207  28.781 -0.0115  0.4739  0.0368
   38BDT    BS2  190   4.872  16.191  29.154 -0.2480 -0.0630  0.0910
   39BDT   BNZ1  191   8.979  23.537   4.657 -0.0435  0.0877  0.1267
   39BDT   BNZ2  192   9.145  23.502   4.728 -0.0153 -0.2006 -0.0731
   39BDT   BNZ3  193   8.976  23.328   4.799 -0.0814 -0.2655 -0.3805
   39BDT    BS1  194   8.806  23.380   4.715 -0.1074  0.0631 -0.1375
   39BDT    BS2  195   9.161  23.306   4.866 -0.0534 -0.5534 -0.5675
   40BDT   BNZ1  196   0.939  25.486   5.435 -0.1364  0.0004 -0.0304
   40BDT   BNZ2  197   1.011  25.481   5.267 -0.1578 -0.0839 -0.0373
   40BDT   BNZ3  198   0.779  25.382   5.271 -0.2309  0.0854  0.0064
   40BDT    BS1  199   0.717  25.395   5.457 -0.2007  0.1661  0.0100
   40BDT    BS2  200   0.872  25.384   5.096 -0.2465 -0.0153 -0.0043
   41BDT   BNZ1  201  18.831  15.006  27.096 -0.0448 -0.0251 -0.1487
   41BDT   BNZ2  202  18.992  14.924  27.128 -0.0246  0.0560 -0.0393
   41BDT   BNZ3  203  18.890  15.013  27.341 -0.1205  0.1776 -0.1355
   41BDT    BS1  204  18.720  15.097  27.289 -0.1350  0.0779 -0.2499
   41BDT    BS2  205  19.064  14.921  27.357 -0.0927  0.2519 -0.0151
   42BDT   BNZ1  206  23.901  27.586  14.639 -0.0838  0.0281  0.1861
   42BDT   BNZ2  207  24.084  27.577  14.643 -0.0912 -0.2130  0.0931
   42BDT   BNZ3  208  23.981  27.348  14.659 -0.3806 -0.1036 -0.1494
   42BDT    BS1  209  23.786  27.375  14.653 -0.3480  0.1586 -0.0277
   42BDT    BS2  210  24.179  27.357  14.661 -0.3672 -0.3586 -0.2262
   43BDT   BNZ1  211  16.681   0.711  11.119  0.0623 -0.0546  0.2103
   43BDT   BNZ2  212  16.527   0.794  11.172  0.0626 -0.0424  0.1934
   43BDT   BNZ3  213  16.480   0.608  11.008  0.0532 -0.1353  0.3009
   43BDT    BS1  214  16.654   0.530  10.962  0.0533 -0.1411  0.3117
   43BDT    BS2  215  16.324   0.709  11.076  0.0546 -0.1151  0.2748
   44BDT   BNZ1  216   6.083  10.436   7.951  0.2075  0.0189  0.0366
   44BDT   BNZ2  217   6.227  10.546   7.976 -0.0488  0.3337  0.1710
   44BDT   BNZ3  218   6.170  10.421   8.187  0.2329 -0.0554  0.0225
   44BDT    BS1  219   6.015  10.309   8.144  0.5063 -0.3658 -0.1149
   44BDT    BS2  220   6.324  10.545   8.195 -0.0525  0.3043  0.1726
   45BDT   BNZ1  221   0.974  19.357  18.819  0.1013  0.0084  0.0362
   45BDT   BNZ2  222   0.993  19.230  18.949  0.0606  0.0101  0.0434
   45BDT   BNZ3  223   1.108  19.444  19.013  0.0683  0.0001  0.0628
   45BDT    BS1  224   1.078  19.569  18.864  0.1129 -0.0007  0.0529
   45BDT    BS2  225   1.118  19.295  19.142  0.0255  0.0025  0.0686
   46BDT   BNZ1  226  22.689   2.869  17.488 -0.3356  0.1745  0.0567
   46BDT   BNZ2  227  22.736   2.721  17.584 -0.1807  0.2984  0.1755
   46BDT   BNZ3  228  22.576   2.663  17.398  0.0902 -0.0598  0.0499
   46BDT    BS1  229  22.537   2.832  17.306 -0.0997 -0.1688 -0.0688
   46BDT    BS2  230  22.638   2.514  17.512  0.2305  0.1009  0.1848
   47BDT   BNZ1  231  26.385  12.691   1.924  0.4997 -0.1912 -0.3398
   47BDT   BNZ2  232  26.457  12.812   2.040  0.1009 -0.2259 -0.0428
   47BDT   BNZ3  233  26.330  12.927   1.855  0.2908 -0.1816 -0.1470
   47BDT    BS1  234  26.259  12.784   1.741  0.7227 -0.1400 -0.4622
   47BDT    BS2  235  26.416  13.043   1.990 -0.1389 -0.2241  0.1657
   48BDT   BNZ1  236  24.309   7.832   4.448  0.1153  0.3273  0.0111
   48BDT   BNZ2  237  24.356   7.700   4.566  0.1593  0.0228 -0.3405
   48BDT   BNZ3  238  24.123   7.784   4.611  0.0908 -0.2481 -0.1759
   48BDT    BS1  239  24.089   7.925   4.477  0.0512  0.1083  0.2018
   48BDT    BS2  240  24.190   7.641   4.729  0.1427 -0.5341 -0.5608
   49BDT   BNZ1  241   6.476   1.362  19.856 -0.4021  0.3170  0.0857
   49BDT   BNZ2  242   6.627   1.433  19.931 -0.1093 -0.0788 -0.1078
   49BDT   BNZ3  243   6.448   1.394  20.104  0.1808 -0.0338  0.2059
   49BDT    BS1  244   6.294   1.318  20.008 -0.1606  0.4038  0.3938
   49BDT    BS2  245   6.619   1.471  20.168  0.4525 -0.4514 -0.0290
   50BDT   BNZ1  246  18.353  18.194   2.257  0.3310 -0.0548 -0.1029
   50BDT   BNZ2  247  18.369  18.292   2.104 -0.0959  0.2737  0.0538
   50BDT   BNZ3  248  18.436  18.426   2.307 -0.1504  0.0548  0.2185
   50BDT    BS1  249  18.413  18.306   2.461  0.3273 -0.2914  0.0248
   50BDT    BS2  250  18.447  18.518   2.132 -0.5894  0.4036  0.3759
   51BDT   BNZ1  251  29.108  25.802  13.508  0.1675 -0.1860 -0.0994
   51BDT   BNZ2  252  29.180  25.944  13.418  0.1988 -0.1264  0.0175
   51BDT   BNZ3  253  28.928  25.949  13.411  0.1976  0.0089  0.1344
   51BDT    BS1  254  28.868  25.791  13.512  0.1639 -0.0685 -0.0038
   51BDT    BS2  255  29.022  26.095  13.318  0.2305  0.0578  0.2469
   52BDT   BNZ1  256  13.009  28.668  14.782  0.3421  0.0667 -0.1578
   52BDT   BNZ2  257  13.090  28.531  14.691 -0.0735  0.0358 -0.4978
   52BDT   BNZ3  258  12.839  28.506  14.690 -0.1182  0.3062  0.2430
   52BDT    BS1  259  12.769  28.659  14.791  0.3620  0.3107  0.5565
   52BDT    BS2  260  12.944  28.367  14.596 -0.5361  0.2553 -0.1673
   53BDT   BNZ1  261  28.395  20.290   1.867 -0.0251  0.0145 -0.3263
   53BDT   BNZ2  262  28.221  20.345   1.857 -0.0426 -0.0042 -0.1408
   53BDT   BNZ3  263  28.255  20.126   1.737 -0.2286 -0.1938  0.1474
   53BDT    BS1  264  28.445  20.082   1.758 -0.1920 -0.1552 -0.0783
   53BDT    BS2  265  28.072  20.200   1.737 -0.2268 -0.1952  0.3185
   54BDT   BNZ1  266   0.489  11.592  22.552 -0.0180  0.3660  0.1436
   54BDT   BNZ2  267   0.365  11.532  22.431  0.2659  0.0830 -0.0138
   54BDT   BNZ3  268   0.256  11.667  22.615 -0.2363  0.0757 -0.2975
   54BDT    BS1  269   0.402  11.723  22.735 -0.5138  0.3851 -0.1092
   54BDT    BS2  270   0.137  11.594  22.474  0.1041 -0.2182 -0.4386
   55BDT   BNZ1  271   8.628   9.845  26.739 -0.2097  0.0278  0.1314
   55BDT   BNZ2  272   8.572   9.927  26.585 -0.0853  0.3250  0.2395
   55BDT   BNZ3  273   8.383   9.905  26.752 -0.1947  0.0988  0.0894
   55BDT    BS1  274   8.460   9.817  26.909 -0.3260 -0.2104 -0.0252
   55BDT    BS2  275   8.341   9.991  26.579 -0.0567  0.4247  0.2131
   56BDT   BNZ1  276  15.715   0.441   1.288 -0.0787 -0.1022 -0.0090
   56BDT   BNZ2  277  15.587   0.356   1.190 -0.0113  0.0847 -0.2658
   56BDT   BNZ3  278  15.817   0.303   1.104  0.0821 -0.1615  0.1231
   56BDT    BS1  279  15.942   0.401   1.219 -0.0073 -0.3530  0.3746
   56BDT    BS2  280  15.665   0.219   1.010  0.1409  0.0515 -0.1744
   57BDT   BNZ1  281  11.255   7.767  10.094  0.2057 -0.1004  0.1057
   57BDT   BNZ2  282  11.413   7.734  10.007  0.1293 -0.2233  0.0136
   57BDT   BNZ3  283  11.280   7.523  10.040 -0.0104 -0.1223  0.1035
   57BDT    BS1  284  11.115   7.576  10.134  0.0861  0.0069  0.1983
   57BDT    BS2  285  11.453   7.505   9.947 -0.0784 -0.2567  0.0013
   58BDT   BNZ1  286  16.898  18.887  28.502 -0.0750  0.1258  0.0719
   58BDT   BNZ2  287  16.940  18.856  28.327 -0.1014 -0.0868  0.1014
   58BDT   BNZ3  288  17.125  18.979  28.444 -0.0618  0.0123 -0.0629
   58BDT    BS1  289  17.065  19.004  28.630 -0.0359  0.2398 -0.0851
   58BDT    BS2  290  17.153  18.938  28.253 -0.0933 -0.2160 -0.0184
   59BDT   BNZ1  291  11.336   6.633  20.787 -0.0103  0.1615 -0.0691
   59BDT   BNZ2  292  11.254   6.713  20.644 -0.1001  0.1766 -0.0094
   59BDT   BNZ3  293  11.214   6.842  20.856  0.1325  0.2191  0.0093
   59BDT    BS1  294  11.308   6.744  20.998  0.2140  0.1990 -0.0596
   59BDT    BS2  295  11.132   6.914  20.691  0.0208  0.2309  0.0688
   60BDT   BNZ1  296  18.179  26.912   6.460  0.1015 -0.1092 -0.2698
   60BDT   BNZ2  297  18.158  26.827   6.300  0.0233 -0.0244 -0.3050
   60BDT   BNZ3  298  18.095  27.070   6.283 -0.1421 -0.0524 -0.1057
   60BDT    BS1  299  18.123  27.146   6.463 -0.0420 -0.1458 -0.0816
   60BDT    BS2  300  18.078  26.962   6.118 -0.2090  0.0365 -0.1571
   61BDT   BNZ1  301   2.318  10.674  13.395 -0.1967 -0.0676  0.0709
   61BDT   BNZ2  302   2.230  10.772  13.268 -0.1801 -0.1754 -0.0248
   61BDT   BNZ3  303   2.254  10.901  13.483 -0.4488 -0.0935 -0.0423
   61BDT    BS1  304   2.350  10.783  13.607 -0.4468  0.0194  0.0637
   61BDT    BS2  305   2.161  10.992  13.334 -0.4095 -0.2128 -0.1404
   62BDT   BNZ1  306   0.282   4.708   6.423  0.0515  0.0842 -0.3004
   62BDT   BNZ2  307   0.427   4.818   6.446  0.0234  0.0861 -0.1178
   62BDT   BNZ3  308   0.211   4.942   6.486 -0.0079 -0.0370  0.0993
   62BDT    BS1  309   0.067   4.810   6.458  0.0259 -0.0320 -0.1209
   62BDT    BS2  310   0.378   5.046   6.506 -0.0359 -0.0289  0.2696
   63BDT   BNZ1  311  17.911  24.387   8.074  0.1422 -0.1849  0.0472
   63BDT   BNZ2  312  17.743  24.455   8.047  0.1427 -0.1561  0.1138
   63BDT   BNZ3  313  17.823  24.500   8.281  0.2228 -0.2161  0.0983
   63BDT    BS1  314  18.004  24.421   8.293  0.2153 -0.2431  0.0255
   63BDT    BS2  315  17.643  24.566   8.234  0.2166 -0.1814  0.1683
   64BDT   BNZ1  316  16.111  19.378  17.981  0.0335 -0.0098 -0.1956
   64BDT   BNZ2  317  16.088  19.443  17.812  0.2888  0.1126 -0.1855
   64BDT   BNZ3  318  15.910  19.275  17.870  0.1406  0.1427 -0.5377
   64BDT    BS1  319  15.949  19.216  18.054 -0.1296  0.0073 -0.5246
   64BDT    BS2  320  15.901  19.355  17.690  0.4189  0.2679 -0.4974
   65BDT   BNZ1  321  23.534  28.577   7.025 -0.0520  0.2798  0.1637
   65BDT   BNZ2  322  23.510  28.396   7.043  0.1858  0.2428  0.1189
   65BDT   BNZ3  323  23.335  28.525   7.172 -0.2119 -0.0167 -0.1495
   65BDT    BS1  324  23.375  28.716   7.141 -0.4418  0.0398 -0.0814
   65BDT    BS2  325  23.325  28.328   7.180  0.0699 -0.0363 -0.1766
   66BDT   BNZ1  326  14.615  20.485  28.467  0.0157  0.0968 -0.0259
   66BDT   BNZ2  327  14.707  20.613  28.373 -0.1048  0.1424 -0.0834
   66BDT   BNZ3  328  14.596  20.711  28.577  0.0636  0.0649  0.0475
   66BDT    BS1  329  14.502  20.561  28.665  0.1858  0.0215  0.0994
   66BDT    BS2  330  14.700  20.835  28.464 -0.0737  0.1190 -0.0240
   67BDT   BNZ1  331   4.772  10.740   0.112  0.0593 -0.1474 -0.0238
   67BDT   BNZ2  332   4.667  10.848   0.217 -0.0185 -0.0717 -0.1767
   67BDT   BNZ3  333   4.734  10.638   0.339 -0.2302 -0.0537 -0.0280
   67BDT    BS1  334   4.844  10.534   0.213 -0.1285 -0.1374  0.1299
   67BDT    BS2  335   4.621  10.766   0.437 -0.2929  0.0235 -0.1999
   68BDT   BNZ1  336  18.534  18.521   8.194  0.1948  0.0406  0.0652
   68BDT   BNZ2  337  18.530  18.703   8.183  0.3539  0.0293 -0.2764
   68BDT   BNZ3  338  18.767  18.617   8.184  0.2773 -0.1840 -0.2995
   68BDT    BS1  339  18.753  18.421   8.195  0.1048 -0.1519  0.0813
   68BDT    BS2  340  18.743  18.813   8.174  0.4465 -0.1843 -0.6506
   69BDT   BNZ1  341  23.632   1.702   8.465 -0.1132  0.1160  0.2194
   69BDT   BNZ2  342  23.550   1.749   8.309 -0.0002 -0.0593  0.1049
   69BDT   BNZ3  343  23.389   1.639   8.468  0.0515 -0.5881 -0.1991
   69BDT    BS1  344  23.493   1.595   8.629 -0.0664 -0.3503 -0.0472
   69BDT    BS2  345  23.316   1.696   8.293  0.1771 -0.7250 -0.2885
   70BDT   BNZ1  346  19.859   3.064  18.240  0.1723  0.1737 -0.0736
   70BDT   BNZ2  347  19.752   3.089  18.094  0.1695  0.1286 -0.0791
   70BDT   BNZ3  348  19.993   3.058  18.026  0.1115 -0.2956 -0.1045
   70BDT    BS1  349  20.093   3.032  18.194  0.1170 -0.2127 -0.0925
   70BDT    BS2  350  19.862   3.086  17.881  0.1111 -0.3076 -0.1045
   71BDT   BNZ1  351  13.050   6.242  15.605  0.2438 -0.0326  0.0088
   71BDT   BNZ2  352  13.119   6.075  15.572  0.0790 -0.0814 -0.0921
   71BDT   BNZ3  353  12.927   6.127  15.418 -0.0570  0.0870  0.1310
   71BDT    BS1  354  12.866   6.308  15.466  0.1379  0.1276  0.2270
   71BDT    BS2  355  13.013   5.951  15.396 -0.2156  0.0243  0.0101
   72BDT   BNZ1  356   0.175  10.537  17.631 -0.2492  0.0290 -0.2481
   72BDT   BNZ2  357   0.169  10.357  17.595  0.1145 -0.0326 -0.0253
   72BDT   BNZ3  358   0.348  10.472  17.460  0.1179  0.1003  0.0902
   72BDT    BS1  359   0.341  10.662  17.510 -0.2876  0.1556 -0.1652
   72BDT    BS2  360   0.328  10.277  17.434  0.4925  0.0337  0.3142
   73BDT   BNZ1  361   0.665   8.930   1.245 -0.0778  0.2948 -0.2325
   73BDT   BNZ2  362   0.745   9.084   1.303  0.1895  0.1566 -0.2261
   73BDT   BNZ3  363   0.775   9.053   1.055  0.3574 -0.0094 -0.1867
   73BDT    BS1  364   0.684   8.885   1.010  0.0461  0.1547 -0.1948
   73BDT    BS2  365   0.855   9.215   1.135  0.6163 -0.1454 -0.1828
   74BDT   BNZ1  366   7.757   4.500   3.112  0.0151  0.1814  0.2568
   74BDT   BNZ2  367   7.574   4.496   3.103  0.0321 -0.1723 -0.0875
   74BDT   BNZ3  368   7.675   4.558   2.881  0.3353  0.0849  0.1171
   74BDT    BS1  369   7.870   4.557   2.908  0.2809  0.4568  0.4848
   74BDT    BS2  370   7.478   4.549   2.889  0.3303 -0.3024 -0.2536
   75BDT   BNZ1  371  15.633  23.430  23.974 -0.0783  0.2515  0.0298
   75BDT   BNZ2  372  15.710  23.577  23.899 -0.0355  0.4503  0.4473
   75BDT   BNZ3  373  15.883  23.425  24.001 -0.0800  0.1066  0.0250
   75BDT    BS1  374  15.784  23.273  24.077 -0.1189 -0.0732 -0.4132
   75BDT    BS2  375  15.949  23.590  23.915 -0.0325  0.3435  0.4892
   76BDT   BNZ1  376   5.141  27.545   8.750  0.1247 -0.0246  0.1201
   76BDT   BNZ2  377   5.204  27.578   8.581 -0.1904  0.0642  0.0162
   76BDT   BNZ3  378   5.121  27.789   8.691 -0.1113 -0.0147  0.2313
   76BDT    BS1  379   5.058  27.737   8.869  0.2341 -0.1070  0.3256
   76BDT    BS2  380   5.193  27.806   8.507 -0.4442  0.0825  0.1081
   77BDT   BNZ1  381  23.665  14.026   3.745  0.3150 -0.2169 -0.0197
   77BDT   BNZ2  382  23.702  13.989   3.921  0.0459 -0.0582  0.0739
   77BDT   BNZ3  383  23.527  13.832   3.829 -0.0859  0.0959  0.0601
   77BDT    BS1  384  23.500  13.886   3.642  0.2244 -0.0899 -0.0440
   77BDT    BS2  385  23.580  13.807   4.018 -0.3533  0.2511  0.1509
   78BDT   BNZ1  386   0.869   8.022  28.560 -0.0968  0.0408  0.0211
   78BDT   BNZ2  387   0.864   7.858  28.480  0.0277 -0.0174  0.1301
   78BDT   BNZ3  388   0.745   8.031  28.341  0.1493 -0.1368 -0.1289
   78BDT    BS1  389   0.759   8.200  28.442  0.0028 -0.0647 -0.2287
   78BDT    BS2  390   0.750   7.847  28.269  0.2693 -0.1873  0.0068
   79BDT   BNZ1  391  19.180  17.394  26.054  0.0472 -0.1362  0.2282
   79BDT   BNZ2  392  19.086  17.302  25.926 -0.0845  0.1643  0.1039
   79BDT   BNZ3  393  18.974  17.286  26.152 -0.1525  0.0909  0.0650
   79BDT    BS1  394  19.087  17.389  26.276 -0.0019 -0.2379  0.2040
   79BDT    BS2  395  18.886  17.192  26.001 -0.2805  0.4101 -0.0578
   80BDT   BNZ1  396  28.134   5.524  25.695  0.0924  0.0215 -0.1202
   80BDT   BNZ2  397  27.986   5.419  25.672  0.0597  0.0352  0.0231
   80BDT   BNZ3  398  28.133   5.417  25.468 -0.0742 -0.0801 -0.0719
   80BDT    BS1  399  28.286   5.533  25.509 -0.0283 -0.0867 -0.2231
   80BDT    BS2  400  27.968   5.308  25.460 -0.0967 -0.0561  0.0845
   81BDT   BNZ1  401  20.468  17.664  24.209 -0.3300 -0.0017 -0.0857
   81BDT   BNZ2  402  20.630  17.582  24.190 -0.3034  0.0759 -0.1992
   81BDT   BNZ3  403  20.519  17.514  24.406 -0.2756 -0.2443 -0.2813
   81BDT    BS1  404  20.348  17.611  24.411 -0.3056 -0.3053 -0.1512
   81BDT    BS2  405  20.696  17.435  24.368 -0.2502 -0.1369 -0.3939
   82BDT   BNZ1  406   4.637  10.780  21.240 -0.1022 -0.0899 -0.0685
   82BDT   BNZ2  407   4.646  10.704  21.406  0.2658  0.3160  0.1069
   82BDT   BNZ3  408   4.501  10.910  21.408 -0.0040  0.1328 -0.1607
   82BDT    BS1  409   4.503  10.978  21.223 -0.3903 -0.3109 -0.3197
   82BDT    BS2  410   4.522  10.815  21.580  0.3989  0.5678  0.0407
   83BDT   BNZ1  411   4.275  13.804   8.434  0.2397  0.1696  0.1665
   83BDT   BNZ2  412   4.380  13.659   8.396  0.0002  0.0115  0.0992
   83BDT   BNZ3  413   4.388  13.830   8.211  0.2712  0.0789  0.1717
   83BDT    BS1  414   4.271  13.978   8.268  0.5189  0.2449  0.2400
   83BDT    BS2  415   4.496  13.666   8.186  0.0017 -0.0906  0.0964
   84BDT   BNZ1  416  10.108   3.326  18.479  0.0797  0.0476 -0.2001
   84BDT   BNZ2  417  10.206   3.289  18.328  0.4182  0.2558 -0.0373
   84BDT   BNZ3  418  10.170   3.537  18.356 -0.1196  0.1868 -0.0620
   84BDT    BS1  419  10.064   3.558  18.521 -0.4467 -0.0443 -0.2512
   84BDT    BS2  420  10.273   3.480  18.198  0.2756  0.4047  0.1064
   85BDT   BNZ1  421   1.289   8.989  17.423  0.0242  0.2057  0.0757
   85BDT   BNZ2  422   1.131   9.051  17.355 -0.0927  0.1438  0.2870
   85BDT   BNZ3  423   1.112   8.810  17.428  0.2619 -0.0436 -0.2097
   85BDT    BS1  424   1.289   8.760  17.498  0.3596  0.0473 -0.4098
   85BDT    BS2  425   0.949   8.894  17.351  0.1108 -0.0858  0.0466
   86BDT   BNZ1  426  29.052  23.617  19.236  0.0891  0.1030 -0.1824
   86BDT   BNZ2  427  29.018  23.518  19.085 -0.0089 -0.0074 -0.0889
   86BDT   BNZ3  428  28.896  23.739  19.080 -0.3643 -0.1977  0.0240
   86BDT    BS1  429  28.943  23.831  19.247 -0.2245 -0.0620 -0.0838
   86BDT    BS2  430  28.871  23.619  18.924 -0.4330 -0.2975  0.1170
   87BDT   BNZ1  431   4.625  10.732  18.471 -0.0966 -0.1405 -0.0710
   87BDT   BNZ2  432   4.767  10.845  18.448 -0.2774  0.1223  0.0852
   87BDT   BNZ3  433   4.575  10.906  18.296 -0.3182 -0.0757  0.0558
   87BDT    BS1  434   4.433  10.775  18.334 -0.1102 -0.3492 -0.1157
   87BDT    BS2  435   4.737  11.019  18.285 -0.5035  0.2105  0.2204
   88BDT   BNZ1  436   9.416  14.806   6.636  0.0535 -0.0543  0.0595
   88BDT   BNZ2  437   9.426  14.911   6.785 -0.1086  0.0088  0.0269
   88BDT   BNZ3  438   9.357  14.676   6.843 -0.2487  0.0535  0.0439
   88BDT    BS1  439   9.351  14.577   6.673 -0.0577 -0.0196  0.0775
   88BDT    BS2  440   9.373  14.804   6.993 -0.4048  0.1145  0.0061
   89BDT   BNZ1  441  26.199  11.506  11.264  0.0697  0.0392  0.0685
   89BDT   BNZ2  442  26.222  11.327  11.235 -0.1131  0.0344 -0.0590
   89BDT   BNZ3  443  26.076  11.370  11.436 -0.3059  0.0328 -0.1975
   89BDT    BS1  444  26.061  11.566  11.452 -0.0870  0.0409 -0.0469
   89BDT    BS2  445  26.112  11.181  11.391 -0.4783  0.0331 -0.3194
   90BDT   BNZ1  446  26.155  16.994  12.695  0.1916  0.2186 -0.1783
   90BDT   BNZ2  447  26.278  17.045  12.569  0.1601 -0.1176 -0.3490
   90BDT   BNZ3  448  26.145  16.845  12.493 -0.2675  0.0351 -0.0254
   90BDT    BS1  449  26.020  16.804  12.639 -0.1931  0.4022  0.1370
   90BDT    BS2  450  26.282  16.913  12.368 -0.2645 -0.3216 -0.2245
   91BDT   BNZ1  451   9.662  29.066  21.878 -0.0386  0.0324 -0.0347
   91BDT   BNZ2  452   9.827  29.110  21.813 -0.0703  0.2686  0.0417
   91BDT   BNZ3  453   9.759  28.880  21.738  0.2117  0.2428 -0.1467
   91BDT    BS1  454   9.580  28.848  21.816  0.2274 -0.0148 -0.2169
   91BDT    BS2  455   9.935  28.944  21.678  0.1553  0.4910 -0.0513
   92BDT   BNZ1  456   5.433  25.270   3.683  0.0094  0.1079  0.0591
   92BDT   BNZ2  457   5.499  25.408   3.583  0.0953 -0.0303 -0.0761
   92BDT   BNZ3  458   5.571  25.426   3.824 -0.1436  0.3243 -0.0279
   92BDT    BS1  459   5.491  25.272   3.916 -0.2199  0.4528  0.1141
   92BDT    BS2  460   5.634  25.568   3.701 -0.0355  0.1535 -0.1748
   93BDT   BNZ1  461  18.264  24.278  20.105  0.1432  0.0032 -0.0200
   93BDT   BNZ2  462  18.270  24.275  20.288  0.0588 -0.2706 -0.0190
   93BDT   BNZ3  463  18.082  24.421  20.205  0.1725 -0.0486  0.1087
   93BDT    BS1  464  18.090  24.412  20.008  0.2577  0.2378  0.1022
   93BDT    BS2  465  18.103  24.406  20.401  0.0762 -0.3499  0.0991
   94BDT   BNZ1  466  27.343  19.919   8.094  0.0667 -0.1671  0.0058
   94BDT   BNZ2  467  27.176  19.899   8.022  0.0781  0.1995 -0.1354
   94BDT   BNZ3  468  27.343  19.745   7.912 -0.1321 -0.0595 -0.0980
   94BDT    BS1  469  27.515  19.780   8.000 -0.1365 -0.4464  0.0532
   94BDT    BS2  470  27.157  19.737   7.846 -0.1027  0.3414 -0.2461
   95BDT   BNZ1  471  21.752  18.981  11.199 -0.0073 -0.0137 -0.0156
   95BDT   BNZ2  472  21.734  18.816  11.121 -0.2410  0.0621 -0.1280
   95BDT   BNZ3  473  21.584  18.986  11.011 -0.0590  0.3340  0.0374
   95BDT    BS1  474  21.615  19.155  11.106  0.1874  0.2242  0.1489
   95BDT    BS2  475  21.578  18.802  10.939 -0.3138  0.3904 -0.0905
   96BDT   BNZ1  476  27.344  19.963   7.659 -0.0599 -0.2175  0.0874
   96BDT   BNZ2  477  27.203  20.026   7.561 -0.0725 -0.1980  0.1180
   96BDT   BNZ3  478  27.390  19.945   7.412 -0.1338 -0.2640  0.0769
   96BDT    BS1  479  27.532  19.882   7.533 -0.1146 -0.2808  0.0464
   96BDT    BS2  480  27.229  20.016   7.322 -0.1415 -0.2386  0.1120
   97BDT   BNZ1  481   8.153   1.035   6.251 -0.1746 -0.3049 -0.0641
   97BDT   BNZ2  482   8.301   1.050   6.357 -0.2567  0.0219  0.0109
   97BDT   BNZ3  483   8.158   0.856   6.428 -0.0044 -0.1306  0.1111
   97BDT    BS1  484   8.004   0.854   6.305  0.0717 -0.4800  0.0223
   97BDT    BS2  485   8.323   0.887   6.532 -0.1108  0.2206  0.1789
   98BDT   BNZ1  486  10.989   2.599  11.966  0.0219 -0.0592  0.1632
   98BDT   BNZ2  487  10.887   2.671  11.832 -0.0888 -0.1782  0.1832
   98BDT   BNZ3  488  10.995   2.851  11.970  0.0251 -0.0541 -0.0640
   98BDT    BS1  489  11.100   2.758  12.108  0.1377  0.0681 -0.0690
   98BDT    BS2  490  10.880   2.911  11.820 -0.0993 -0.1882 -0.0241
   99BDT   BNZ1  491   7.774   8.643  15.632  0.1205 -0.0031  0.4570
   99BDT   BNZ2  492   7.947   8.626  15.577 -0.0145 -0.0755  0.0423
   99BDT   BNZ3  493   7.858   8.857  15.529 -0.1149 -0.1214  0.0048
   99BDT    BS1  494   7.673   8.858  15.595  0.0444 -0.0396  0.4681
   99BDT    BS2  495   8.045   8.820  15.475 -0.2556 -0.1934 -0.4174
  100BDT   BNZ1  496  13.812  10.683  21.983 -0.0924  0.0622  0.0420
  100BDT   BNZ2  497  13.842  10.537  22.088 -0.0883 -0.0831 -0.1585
  100BDT   BNZ3  498  13.598  10.557  22.027 -0.1637  0.2461  0.2310
  100BDT    BS1  499  13.583  10.718  21.915 -0.1582  0.3762  0.4282
  100BDT    BS2  500  13.650  10.403  22.141 -0.1497  0.0665 -0.0056
  101BDT   BNZ1  501  19.362   8.261  23.502 -0.1023 -0.2394 -0.0105
  101BDT   BNZ2  502  19.184   8.293  23.531 -0.1638 -0.2851 -0.3189
  101BDT   BNZ3  503  19.251   8.355  23.296  0.2623 -0.1336 -0.1621
  101BDT    BS1  504  19.444   8.314  23.282  0.2920 -0.0947  0.1722
  101BDT    BS2  505  19.062   8.383  23.345  0.1643 -0.1943 -0.4906
  102BDT   BNZ1  506  15.188   6.788   0.912 -0.1155 -0.2285  0.0749
  102BDT   BNZ2  507  15.015   6.740   0.881 -0.0772 -0.2033 -0.1955
  102BDT   BNZ3  508  15.114   6.856   0.681  0.2300 -0.1521 -0.0171
  102BDT    BS1  509  15.299   6.901   0.730  0.1605 -0.1859  0.2708
  102BDT    BS2  510  14.926   6.796   0.665  0.2458 -0.1307 -0.3091
  103BDT   BNZ1  511   1.435  19.946   5.869  0.2018 -0.0380 -0.0439
  103BDT   BNZ2  512   1.436  19.945   6.052 -0.0029  0.0528 -0.0408
  103BDT   BNZ3  513   1.645  20.053   5.960  0.2052 -0.1941  0.1343
  103BDT    BS1  514   1.627  20.045   5.764  0.4149 -0.2765  0.1216
  103BDT    BS2  515   1.629  20.043   6.157 -0.0248 -0.0808  0.1246
  104BDT   BNZ1  516   7.074  13.080  12.471  0.0067 -0.0046 -0.1841
  104BDT   BNZ2  517   6.897  13.072  12.425 -0.1800  0.0012  0.4873
  104BDT   BNZ3  518   6.963  12.875  12.568  0.4134 -0.0988  0.0923
  104BDT    BS1  519   7.154  12.899  12.608  0.5484 -0.0943 -0.6317
  104BDT    BS2  520   6.775  12.883  12.509  0.1733 -0.0802  0.8163
  105BDT   BNZ1  521  24.444  12.646   7.501 -0.0994 -0.0082  0.0138
  105BDT   BNZ2  522  24.477  12.825   7.484  0.0390 -0.0299  0.0488
  105BDT   BNZ3  523  24.464  12.758   7.726 -0.2771 -0.0202  0.0362
  105BDT    BS1  524  24.428  12.564   7.726 -0.4059  0.0052 -0.0030
  105BDT    BS2  525  24.499  12.948   7.688 -0.1080 -0.0423  0.0721
  106BDT   BNZ1  526  18.346  19.712   5.021  0.2483 -0.1544 -0.0427
  106BDT   BNZ2  527  18.469  19.848   5.026  0.1120 -0.0342  0.1274
  106BDT   BNZ3  528  18.409  19.771   5.258 -0.1771 -0.0508  0.0495
  106BDT    BS1  529  18.278  19.627   5.235 -0.0039 -0.1832 -0.1358
  106BDT    BS2  530  18.541  19.917   5.244 -0.2972  0.0721  0.2292
  107BDT   BNZ1  531  15.776  18.931  19.527  0.0100 -0.0968  0.2120
  107BDT   BNZ2  532  15.745  19.024  19.372  0.0281 -0.2622  0.1069
  107BDT   BNZ3  533  15.530  18.976  19.496  0.0378  0.0974  0.2689
  107BDT    BS1  534  15.582  18.876  19.658  0.0177  0.2559  0.3683
  107BDT    BS2  535  15.515  19.076  19.326  0.0569 -0.1019  0.1450
  108BDT   BNZ1  536  18.412  25.764  20.507 -0.0303  0.1257  0.3449
  108BDT   BNZ2  537  18.568  25.746  20.602  0.1200  0.0758  0.0926
  108BDT   BNZ3  538  18.580  25.939  20.439 -0.0569  0.0298  0.0236
  108BDT    BS1  539  18.406  25.943  20.347 -0.2088  0.0877  0.3106
  108BDT    BS2  540  18.740  25.905  20.550  0.1094 -0.0187 -0.2331
  109BDT   BNZ1  541  19.915  27.478  23.835  0.0038  0.1305  0.0236
  109BDT   BNZ2  542  19.820  27.635  23.825 -0.3182 -0.0624 -0.0366
  109BDT   BNZ3  543  19.897  27.559  23.597 -0.3015 -0.0749 -0.0269
  109BDT    BS1  544  19.996  27.392  23.625  0.0529  0.1427  0.0398
  109BDT    BS2  545  19.793  27.727  23.605 -0.6327 -0.2787 -0.0890
  110BDT   BNZ1  546  27.505   5.548   0.364  0.1880 -0.1692 -0.0858
  110BDT   BNZ2  547  27.376   5.437   0.296  0.0918 -0.2055  0.1517
  110BDT   BNZ3  548  27.321   5.679   0.253 -0.0539 -0.2212  0.2478
  110BDT    BS1  549  27.468   5.784   0.331  0.0652 -0.1807 -0.0226
  110BDT    BS2  550  27.192   5.545   0.186 -0.1376 -0.2560  0.4878
  111BDT   BNZ1  551   5.378  15.678  23.174 -0.2956 -0.1608 -0.1523
  111BDT   BNZ2  552   5.228  15.782  23.169 -0.2243 -0.0458  0.0343
  111BDT   BNZ3  553   5.436  15.923  23.188 -0.1126 -0.2153  0.0755
  111BDT    BS1  554   5.587  15.797  23.192 -0.2018 -0.3298 -0.1348
  111BDT    BS2  555   5.264  16.019  23.181 -0.0469 -0.0844  0.2651
  112BDT   BNZ1  556  17.769  11.147  17.210  0.0490 -0.2032  0.0637
  112BDT   BNZ2  557  17.657  11.038  17.116 -0.0480 -0.0535  0.0030
  112BDT   BNZ3  558  17.531  11.172  17.289  0.0480  0.0627 -0.0173
  112BDT    BS1  559  17.666  11.283  17.379  0.1488 -0.1128  0.0513
  112BDT    BS2  560  17.425  11.048  17.178 -0.0579  0.2093 -0.0777
  113BDT   BNZ1  561  25.042   5.266   5.993 -0.3192 -0.1483  0.2973
  113BDT   BNZ2  562  25.125   5.106   6.024 -0.1899 -0.1431 -0.0047
  113BDT   BNZ3  563  24.919   5.076   5.881 -0.1449 -0.0368 -0.0920
  113BDT    BS1  564  24.843   5.257   5.858 -0.2908 -0.0501  0.2506
  113BDT    BS2  565  25.022   4.913   5.925 -0.0165 -0.0342 -0.3973
  114BDT   BNZ1  566  14.172   4.334  16.586 -0.0740 -0.1427 -0.2652
  114BDT   BNZ2  567  14.247   4.202  16.484  0.0479 -0.2700 -0.0160
  114BDT   BNZ3  568  14.036   4.123  16.596 -0.0107 -0.1743 -0.0576
  114BDT    BS1  569  13.970   4.276  16.701 -0.1400 -0.0427 -0.3328
  114BDT    BS2  570  14.131   3.992  16.481  0.1192 -0.3120  0.2048
  115BDT   BNZ1  571  11.592  14.513  12.410  0.0348 -0.0180 -0.0132
  115BDT   BNZ2  572  11.653  14.685  12.405  0.0880 -0.0376 -0.0392
  115BDT   BNZ3  573  11.415  14.669  12.322  0.0774  0.0256 -0.0209
  115BDT    BS1  574  11.366  14.479  12.335  0.0190  0.0425  0.0066
  115BDT    BS2  575  11.497  14.849  12.323  0.1332  0.0004 -0.0493
  116BDT   BNZ1  576  16.402  19.753  19.859  0.0641 -0.0679 -0.0988
  116BDT   BNZ2  577  16.381  19.886  19.736  0.2253  0.0640  0.0132
  116BDT   BNZ3  578  16.540  19.709  19.653  0.2023  0.0660 -0.0357
  116BDT    BS1  579  16.551  19.575  19.797  0.0248 -0.0790 -0.1575
  116BDT    BS2  580  16.505  19.861  19.532  0.3710  0.2010  0.0854
  117BDT   BNZ1  581  10.805   7.568   8.112 -0.1208  0.1857 -0.3277
  117BDT   BNZ2  582  10.760   7.731   8.182  0.0136  0.0550  0.0823
  117BDT   BNZ3  583  10.646   7.545   8.307  0.0708 -0.1795 -0.2100
  117BDT    BS1  584  10.704   7.378   8.220 -0.0833 -0.0085 -0.6412
  117BDT    BS2  585  10.609   7.729   8.368  0.2075 -0.2982  0.2348
  118BDT   BNZ1  586   5.218   3.033  15.616 -0.0644  0.1409 -0.1271
  118BDT   BNZ2  587   5.100   2.911  15.683 -0.1192  0.2689  0.0127
  118BDT   BNZ3  588   5.218   2.822  15.479  0.0817 -0.1418  0.2994
  118BDT    BS1  589   5.339   2.965  15.420  0.1247 -0.2495  0.1265
  118BDT    BS2  590   5.087   2.702  15.565  0.0077  0.0278  0.4244
  119BDT   BNZ1  591  25.711   5.469   7.454  0.2030  0.0555 -0.0620
  119BDT   BNZ2  592  25.883   5.452   7.394  0.2137 -0.3098  0.0640
  119BDT   BNZ3  593  25.802   5.239   7.502 -0.2134 -0.0438  0.2794
  119BDT    BS1  594  25.617   5.275   7.560 -0.1865  0.3452  0.1191
  119BDT    BS2  595  25.986   5.238   7.430 -0.1697 -0.4382  0.3913
  120BDT   BNZ1  596  23.661   5.114  24.240 -0.0200  0.0723 -0.1816
  120BDT   BNZ2  597  23.734   5.276  24.200  0.0884  0.0625 -0.0243
  120BDT   BNZ3  598  23.910   5.096  24.207 -0.0296 -0.0607 -0.1889
  120BDT    BS1  599  23.815   4.929  24.250 -0.1408 -0.0377 -0.3512
  120BDT    BS2  600  23.972   5.279  24.166  0.0914 -0.0601 -0.0129
  121BDT   BNZ1  601   1.965   3.879  15.007 -0.0862 -0.2929  0.0286
  121BDT   BNZ2  602   2.050   3.817  14.857 -0.2065 -0.0317 -0.1506
  121BDT   BNZ3  603   1.911   3.636  14.964 -0.0150 -0.2564 -0.2778
  121BDT    BS1  604   1.827   3.718  15.122  0.1068 -0.5293 -0.0735
  121BDT    BS2  605   2.011   3.587  14.800 -0.1552  0.0338 -0.4516
  122BDT   BNZ1  606   2.968  18.322   6.610 -0.0535 -0.1618  0.1912
  122BDT   BNZ2  607   2.926  18.202   6.478 -0.3924  0.0242  0.1227
  122BDT   BNZ3  608   3.063  18.394   6.388 -0.0848 -0.1654  0.1765
  122BDT    BS1  609   3.098  18.512   6.541  0.2650 -0.3639  0.2418
  122BDT    BS2  610   3.009  18.254   6.259 -0.4609  0.0414  0.1011
  123BDT   BNZ1  611  20.391  17.888  17.746 -0.1813 -0.0443 -0.0782
  123BDT   BNZ2  612  20.475  18.041  17.692  0.2524 -0.1417  0.2889
  123BDT   BNZ3  613  20.274  18.092  17.835  0.0555  0.0852 -0.0609
  123BDT    BS1  614  20.197  17.918  17.884 -0.4018  0.1900 -0.4469
  123BDT    BS2  615  20.377  18.247  17.768  0.5202 -0.0356  0.3471
  124BDT   BNZ1  616  13.724  25.163   4.271 -0.2833 -0.0535 -0.1944
  124BDT   BNZ2  617  13.818  25.074   4.142  0.3055  0.0252  0.1631
  124BDT   BNZ3  618  13.882  25.318   4.151 -0.1245  0.1395  0.2548
  124BDT    BS1  619  13.773  25.397   4.294 -0.7358  0.0323 -0.1619
  124BDT    BS2  620  13.975  25.206   4.017  0.5136  0.2143  0.6239
  125BDT   BNZ1  621  20.918   0.872  26.871  0.0317  0.1671 -0.1418
  125BDT   BNZ2  622  20.894   1.005  26.749 -0.2540  0.3580  0.1137
  125BDT   BNZ3  623  20.725   1.021  26.934 -0.0706 -0.1559  0.3326
  125BDT    BS1  624  20.764   0.871  27.056  0.2356 -0.3236  0.0233
  125BDT    BS2  625  20.714   1.157  26.792 -0.3763  0.0796  0.5775
  126BDT   BNZ1  626   1.658  17.001  26.198 -0.0033 -0.0887  0.1521
  126BDT   BNZ2  627   1.611  17.086  26.352 -0.5873  0.1758 -0.1563
  126BDT   BNZ3  628   1.662  17.252  26.169  0.0397 -0.1331 -0.2712
  126BDT    BS1  629   1.711  17.145  26.012  0.6313 -0.3930  0.1066
  126BDT    BS2  630   1.609  17.326  26.345 -0.6157  0.1617 -0.5791
  127BDT   BNZ1  631  25.285  22.030   3.031 -0.1443 -0.0129  0.2202
  127BDT   BNZ2  632  25.304  21.878   3.131 -0.0787  0.0035  0.2328
  127BDT   BNZ3  633  25.378  22.081   3.260  0.1969  0.0024  0.0792
  127BDT    BS1  634  25.351  22.234   3.139  0.1020 -0.0164  0.0752
  127BDT    BS2  635  25.393  21.907   3.352  0.2415  0.0193  0.1025
  128BDT   BNZ1  636   8.789   6.442   3.520 -0.0067  0.2911 -0.0160
  128BDT   BNZ2  637   8.769   6.413   3.340  0.0535 -0.2250  0.0542
  128BDT   BNZ3  638   9.010   6.460   3.399  0.0591 -0.2105  0.0197
  128BDT    BS1  639   9.013   6.489   3.594 -0.0099  0.3601 -0.0607
  128BDT    BS2  640   8.970   6.426   3.209  0.1210 -0.7438  0.1059
  129BDT   BNZ1  641  17.142  27.285   3.656 -0.0452 -0.0858 -0.3838
  129BDT   BNZ2  642  17.265  27.415   3.619 -0.0287 -0.0686 -0.2712
  129BDT   BNZ3  643  17.107  27.381   3.426 -0.1002  0.1944 -0.2609
  129BDT    BS1  644  16.982  27.240   3.482 -0.1119  0.1552 -0.3852
  129BDT    BS2  645  17.248  27.518   3.404 -0.0772  0.1899 -0.1435
  130BDT   BNZ1  646   6.101  19.377  19.800 -0.0814 -0.0655 -0.0091
  130BDT   BNZ2  647   6.085  19.199  19.761  0.2899 -0.1053  0.0013
  130BDT   BNZ3  648   5.968  19.256  19.976  0.0434 -0.3066 -0.0775
  130BDT    BS1  649   5.994  19.449  20.003 -0.3496 -0.2530 -0.0852
  130BDT    BS2  650   5.961  19.067  19.918  0.4483 -0.3293 -0.0609
  131BDT   BNZ1  651  11.991  24.702   2.473 -0.1093 -0.2085  0.0024
  131BDT   BNZ2  652  11.893  24.548   2.475 -0.1841 -0.1625 -0.0955
  131BDT   BNZ3  653  11.929  24.631   2.240 -0.1426 -0.0317 -0.0436
  131BDT    BS1  654  12.035  24.796   2.256 -0.0630 -0.0931  0.0615
  131BDT    BS2  655  11.825  24.464   2.260 -0.2231  0.0055 -0.1486
  132BDT   BNZ1  656  15.259  23.307  26.762 -0.0607 -0.0680  0.0677
  132BDT   BNZ2  657  15.425  23.328  26.838 -0.0015 -0.0570 -0.0635
  132BDT   BNZ3  658  15.324  23.550  26.773 -0.0092 -0.0734 -0.1082
  132BDT    BS1  659  15.148  23.509  26.694 -0.0737 -0.0845  0.0412
  132BDT    BS2  660  15.503  23.555  26.856  0.0515 -0.0610 -0.2408
  133BDT   BNZ1  661  21.625  22.481   2.672 -0.0820 -0.0567  0.0445
  133BDT   BNZ2  662  21.512  22.349   2.728  0.1301 -0.1714  0.2093
  133BDT   BNZ3  663  21.670  22.265   2.550  0.0592 -0.0529  0.0892
  133BDT    BS1  664  21.784  22.418   2.502 -0.1735  0.0622 -0.0830
  133BDT    BS2  665  21.540  22.135   2.623  0.2848 -0.1806  0.2693
  134BDT   BNZ1  666  13.448   6.636  27.198  0.0054  0.0984 -0.2000
  134BDT   BNZ2  667  13.389   6.542  27.052  0.0593  0.0037 -0.1615
  134BDT   BNZ3  668  13.640   6.540  27.066  0.0529 -0.0282 -0.0407
  134BDT    BS1  669  13.687   6.645  27.226 -0.0069  0.0795 -0.0926
  134BDT    BS2  670  13.559   6.443  26.914  0.1091 -0.1229 -0.0097
  135BDT   BNZ1  671  13.401  19.694  11.577  0.0190 -0.0970 -0.0253
  135BDT   BNZ2  672  13.533  19.813  11.625 -0.1924  0.0556  0.1890
  135BDT   BNZ3  673  13.630  19.603  11.525  0.1959  0.3238 -0.0065
  135BDT    BS1  674  13.477  19.488  11.480  0.4023  0.1405 -0.2262
  135BDT    BS2  675  13.758  19.742  11.583 -0.0576  0.4622  0.2323
  136BDT   BNZ1  676   0.501   2.767   2.952  0.0302 -0.1892 -0.0466
  136BDT   BNZ2  677   0.623   2.776   3.089 -0.0541  0.0326  0.0176
  136BDT   BNZ3  678   0.737   2.750   2.866  0.0836 -0.3567  0.1282
  136BDT    BS1  679   0.593   2.743   2.731  0.1686 -0.5723  0.0540
  136BDT    BS2  680   0.853   2.761   3.025 -0.0150 -0.0953  0.1886
  137BDT   BNZ1  681  17.728  15.243  17.210  0.0422 -0.0581  0.1131
  137BDT   BNZ2  682  17.800  15.264  17.377 -0.2096 -0.1143  0.2312
  137BDT   BNZ3  683  17.635  15.074  17.372 -0.2684 -0.0573 -0.0614
  137BDT    BS1  684  17.567  15.066  17.187  0.0174  0.0022 -0.1682
  137BDT    BS2  685  17.723  15.111  17.545 -0.5240 -0.1191  0.0822
  138BDT   BNZ1  686  18.662  20.611  17.450  0.4183  0.0555  0.0965
  138BDT   BNZ2  687  18.681  20.776  17.526  0.2297  0.0351  0.1911
  138BDT   BNZ3  688  18.627  20.602  17.699 -0.0475 -0.0410  0.0320
  138BDT    BS1  689  18.610  20.432  17.602  0.1837 -0.0121 -0.0639
  138BDT    BS2  690  18.651  20.787  17.763 -0.2198 -0.0583  0.1384
  139BDT   BNZ1  691  11.957   5.882  22.802  0.3427  0.1600  0.1715
  139BDT   BNZ2  692  11.866   5.756  22.706  0.0167  0.2879  0.3067
  139BDT   BNZ3  693  12.114   5.714  22.699 -0.0250  0.0916 -0.2934
  139BDT    BS1  694  12.197   5.857  22.807  0.3307 -0.0368 -0.3992
  139BDT    BS2  695  11.999   5.587  22.600 -0.3640  0.2439 -0.1025
  140BDT   BNZ1  696  28.391  15.525   0.696 -0.2913 -0.2169 -0.1420
  140BDT   BNZ2  697  28.506  15.666   0.671 -0.2724 -0.2387 -0.1783
  140BDT   BNZ3  698  28.590  15.457   0.557 -0.2214 -0.3213  0.0076
  140BDT    BS1  699  28.455  15.318   0.593 -0.2468 -0.2898  0.0340
  140BDT    BS2  700  28.702  15.619   0.540 -0.2065 -0.3365 -0.0445
  141BDT   BNZ1  701  10.245  19.639  12.150 -0.0479 -0.1848  0.0042
  141BDT   BNZ2  702  10.350  19.497  12.197 -0.1607 -0.2055  0.1952
  141BDT   BNZ3  703  10.122  19.422  12.119 -0.1299 -0.1446  0.0444
  141BDT    BS1  704  10.024  19.586  12.073 -0.0055 -0.1281 -0.1551
  141BDT    BS2  705  10.249  19.280  12.175 -0.2492 -0.1703  0.2541
  142BDT   BNZ1  706   1.873  10.572  19.208 -0.2277  0.1581 -0.1736
  142BDT   BNZ2  707   1.811  10.676  19.071 -0.0771  0.3285 -0.1142
  142BDT   BNZ3  708   2.026  10.561  19.008 -0.0878  0.2874 -0.0751
  142BDT    BS1  709   2.078  10.454  19.165 -0.2546  0.1022 -0.1449
  142BDT    BS2  710   1.944  10.678  18.872  0.0692  0.4661 -0.0154
  143BDT   BNZ1  711   8.624   1.171   9.737  0.1316 -0.1490 -0.2229
  143BDT   BNZ2  712   8.536   1.306   9.650  0.0397 -0.0824 -0.0294
  143BDT   BNZ3  713   8.768   1.376   9.720 -0.0110 -0.0200  0.0783
  143BDT    BS1  714   8.847   1.221   9.811  0.0943 -0.0999 -0.1446
  143BDT    BS2  715   8.659   1.511   9.624 -0.1013  0.0405  0.2712
  144BDT   BNZ1  716  20.039   7.321  10.066  0.0845  0.0624 -0.0392
  144BDT   BNZ2  717  20.144   7.466  10.103  0.0946  0.0415  0.0132
  144BDT   BNZ3  718  20.090   7.336  10.312  0.2855 -0.1675 -0.0658
  144BDT    BS1  719  19.977   7.185  10.254  0.2593 -0.1281 -0.1196
  144BDT    BS2  720  20.204   7.496  10.333  0.2803 -0.1719 -0.0070
  145BDT   BNZ1  721  23.824  26.453  21.432 -0.0245 -0.0508 -0.0306
  145BDT   BNZ2  722  23.965  26.377  21.521 -0.0295  0.0800  0.0901
  145BDT   BNZ3  723  24.038  26.482  21.303  0.0226 -0.0433  0.0479
  145BDT    BS1  724  23.875  26.557  21.222  0.0244 -0.1793 -0.0821
  145BDT    BS2  725  24.178  26.395  21.412  0.0125  0.1021  0.1762
  146BDT   BNZ1  726   7.005  27.775   0.551 -0.0274  0.2191 -0.1748
  146BDT   BNZ2  727   7.058  27.933   0.475  0.2090  0.1246 -0.2128
  146BDT   BNZ3  728   7.212  27.866   0.662 -0.1575  0.1699  0.1122
  146BDT    BS1  729   7.142  27.696   0.732 -0.3922  0.2763  0.1249
  146BDT    BS2  730   7.254  28.035   0.568  0.1150  0.0703  0.0436
  147BDT   BNZ1  731  21.026   2.576   2.662 -0.0386  0.1544 -0.0871
  147BDT   BNZ2  732  21.096   2.742   2.690 -0.0018  0.1143  0.0598
  147BDT   BNZ3  733  21.263   2.562   2.745 -0.1770  0.0212  0.2969
  147BDT    BS1  734  21.172   2.391   2.709 -0.2070  0.0728  0.1146
  147BDT    BS2  735  21.322   2.749   2.770 -0.1279 -0.0141  0.4283
  148BDT   BNZ1  736  20.356   0.444   4.465 -0.3084  0.1610 -0.1164
  148BDT   BNZ2  737  20.473   0.583   4.486 -0.3290  0.1776 -0.1131
  148BDT   BNZ3  738  20.443   0.455   4.701  0.0615 -0.1269 -0.2340
  148BDT    BS1  739  20.315   0.310   4.661  0.0538 -0.1204 -0.2330
  148BDT    BS2  740  20.566   0.609   4.705  0.0082 -0.0832 -0.2253
  149BDT   BNZ1  741  16.075   1.258  25.028 -0.2445  0.0382 -0.1678
  149BDT   BNZ2  742  16.016   1.331  25.186  0.1848  0.0131  0.0128
  149BDT   BNZ3  743  16.130   1.504  25.043  0.2819 -0.0811 -0.0246
  149BDT    BS1  744  16.187   1.411  24.879 -0.2034 -0.0472 -0.2200
  149BDT    BS2  745  16.059   1.565  25.217  0.7207 -0.1056  0.1566
  150BDT   BNZ1  746  19.108  18.009   8.334  0.1584  0.0055  0.1912
  150BDT   BNZ2  747  19.259  17.964   8.427 -0.0120 -0.1744  0.3881
  150BDT   BNZ3  748  19.052  17.885   8.547 -0.2539 -0.1100  0.0210
  150BDT    BS1  749  18.900  17.941   8.435 -0.0415  0.0854 -0.1700
  150BDT    BS2  750  19.226  17.845   8.632 -0.4101 -0.2994  0.2510
  151BDT   BNZ1  751  28.591  15.866  18.932 -0.3463  0.1294 -0.1170
  151BDT   BNZ2  752  28.524  15.883  19.101 -0.2442  0.4412 -0.1037
  151BDT   BNZ3  753  28.385  16.012  18.935 -0.3669  0.1040 -0.2671
  151BDT    BS1  754  28.470  15.983  18.760 -0.4730 -0.2158 -0.2614
  151BDT    BS2  755  28.327  16.018  19.124 -0.2513  0.4534 -0.2382
  152BDT   BNZ1  756   0.533  25.766  14.321  0.2164 -0.0982 -0.0689
  152BDT   BNZ2  757   0.488  25.858  14.473  0.1624 -0.0540 -0.1112
  152BDT   BNZ3  758   0.364  25.947  14.272 -0.1067 -0.4052 -0.1056
  152BDT    BS1  759   0.424  25.838  14.119 -0.0237 -0.4291 -0.0566
  152BDT    BS2  760   0.327  26.034  14.445 -0.1381 -0.3334 -0.1483
  153BDT   BNZ1  761  22.239  22.797   1.541  0.0664  0.1002 -0.0116
  153BDT   BNZ2  762  22.238  22.634   1.456 -0.1105  0.0390  0.1055
  153BDT   BNZ3  763  22.466  22.687   1.549  0.0034 -0.0402 -0.1253
  153BDT    BS1  764  22.450  22.863   1.636  0.1900  0.0311 -0.2392
  153BDT    BS2  765  22.446  22.515   1.454 -0.1897 -0.0972  0.0142
  154BDT   BNZ1  766   5.349  27.198   6.142  0.0007  0.1602  0.0390
  154BDT   BNZ2  767   5.208  27.154   6.250 -0.0235  0.0726 -0.0281
  154BDT   BNZ3  768   5.428  27.096   6.358 -0.0581 -0.3158 -0.1583
  154BDT    BS1  769   5.568  27.149   6.230 -0.0296 -0.1866 -0.0780
  154BDT    BS2  770   5.265  27.055   6.461 -0.0811 -0.3727 -0.2216
  155BDT   BNZ1  771  25.712   1.086  15.450  0.1770  0.1787 -0.2891
  155BDT   BNZ2  772  25.770   0.918  15.406 -0.0963 -0.0121  0.0565
  155BDT   BNZ3  773  25.919   1.025  15.580 -0.1991 -0.0924  0.1943
  155BDT    BS1  774  25.842   1.203  15.615  0.1092  0.1256 -0.2022
  155BDT    BS2  775  25.967   0.842  15.522 -0.4805 -0.2709  0.5415
  156BDT   BNZ1  776   4.954   2.598  12.650  0.1968  0.0009  0.0309
  156BDT   BNZ2  777   4.930   2.753  12.556  0.1033  0.0833  0.1881
  156BDT   BNZ3  778   4.917   2.551  12.405  0.1912  0.2256 -0.0122
  156BDT    BS1  779   4.945   2.395  12.522  0.2880  0.1254 -0.1713
  156BDT    BS2  780   4.894   2.728  12.320  0.0876  0.2997  0.1678
  157BDT   BNZ1  781   4.197  15.789  21.350 -0.1519 -0.0441  0.0284
  157BDT   BNZ2  782   4.224  15.769  21.170  0.1105 -0.1774  0.0792
  157BDT   BNZ3  783   4.408  15.905  21.275 -0.1482  0.0735  0.2176
  157BDT    BS1  784   4.365  15.916  21.467 -0.4197  0.2006  0.1443
  157BDT    BS2  785   4.421  15.873  21.080  0.1432 -0.0856  0.2577
  158BDT   BNZ1  786  20.362  26.077  20.789 -0.3328 -0.2320 -0.0769
  158BDT   BNZ2  787  20.407  26.172  20.639 -0.0636  0.0508  0.1768
  158BDT   BNZ3  788  20.160  26.191  20.688 -0.1437  0.0021 -0.1951
  158BDT    BS1  789  20.129  26.084  20.850 -0.4325 -0.3031 -0.4559
  158BDT    BS2  790  20.227  26.287  20.529  0.1418  0.2973  0.0992
  159BDT   BNZ1  791   0.914  13.747  15.584  0.2388  0.1092 -0.0784
  159BDT   BNZ2  792   0.756  13.715  15.498  0.1127  0.1085  0.1490
  159BDT   BNZ3  793   0.951  13.703  15.339 -0.1376  0.3688 -0.1863
  159BDT    BS1  794   1.111  13.739  15.447  0.0167  0.3494 -0.4105
  159BDT    BS2  795   0.771  13.671  15.263 -0.2491  0.3477  0.0801
  160BDT   BNZ1  796  22.851   1.543   4.142  0.1149 -0.2447 -0.1214
  160BDT   BNZ2  797  22.811   1.686   4.249  0.4824 -0.2841  0.0782
  160BDT   BNZ3  798  22.856   1.758   4.012  0.0291 -0.1521  0.0266
  160BDT    BS1  799  22.897   1.594   3.912 -0.3466 -0.1100 -0.1824
  160BDT    BS2  800  22.811   1.900   4.141  0.4454 -0.2031  0.2396
  161BDT   BNZ1  801  11.904  21.214  27.781 -0.0248 -0.4887  0.2544
  161BDT   BNZ2  802  11.793  21.101  27.691 -0.1070 -0.2363  0.0331
  161BDT   BNZ3  803  12.034  21.039  27.655 -0.1463 -0.2560 -0.2041
  161BDT    BS1  804  12.140  21.170  27.758 -0.0535 -0.5327  0.0613
  161BDT    BS2  805  11.899  20.927  27.565 -0.2258  0.0125 -0.4091
  162BDT   BNZ1  806   9.604  22.416   6.669 -0.0890  0.0663 -0.0410
  162BDT   BNZ2  807   9.635  22.597   6.671 -0.2113  0.0897 -0.1573
  162BDT   BNZ3  808   9.671  22.500   6.441  0.1030 -0.0820 -0.0401
  162BDT    BS1  809   9.633  22.308   6.457  0.2146 -0.0917  0.0817
  162BDT    BS2  810   9.701  22.694   6.462 -0.0491 -0.0418 -0.1681
  163BDT   BNZ1  811  20.857  15.496   9.404  0.1440  0.1794 -0.1530
  163BDT   BNZ2  812  20.782  15.378   9.523  0.1891  0.2032 -0.1012
  163BDT   BNZ3  813  20.682  15.352   9.293  0.1145  0.1450 -0.0623
  163BDT    BS1  814  20.772  15.484   9.179  0.0704  0.1230 -0.1224
  163BDT    BS2  815  20.613  15.233   9.435  0.1673  0.1745 -0.0116
  164BDT   BNZ1  816  17.122  24.710  21.314  0.1104 -0.0518  0.2243
  164BDT   BNZ2  817  17.214  24.862  21.354  0.2042 -0.0430 -0.0209
  164BDT   BNZ3  818  17.253  24.684  21.528  0.3611  0.0985  0.0909
  164BDT    BS1  819  17.147  24.529  21.471  0.2454  0.0800  0.3536
  164BDT    BS2  820  17.346  24.857  21.555  0.4435  0.0946 -0.1734
  165BDT   BNZ1  821  12.489  13.674  27.769 -0.1098 -0.1231 -0.1935
  165BDT   BNZ2  822  12.370  13.790  27.846  0.0259 -0.1234  0.0228
  165BDT   BNZ3  823  12.558  13.913  27.731  0.0532 -0.1270  0.0634
  165BDT    BS1  824  12.675  13.775  27.655 -0.1006 -0.1260 -0.1791
  165BDT    BS2  825  12.420  14.023  27.819  0.1931 -0.1293  0.2826
  166BDT   BNZ1  826   6.408  10.607  21.870 -0.1001  0.0809 -0.2211
  166BDT   BNZ2  827   6.520  10.483  21.795  0.1369 -0.0687  0.3581
  166BDT   BNZ3  828   6.314  10.374  21.893 -0.1020  0.1078  0.0600
  166BDT    BS1  829   6.206  10.520  21.968 -0.3337  0.2468 -0.5681
  166BDT    BS2  830   6.446  10.254  21.808  0.1604 -0.0581  0.6847
  167BDT   BNZ1  831  13.743  11.570  28.931 -0.0511 -0.1618  0.1403
  167BDT   BNZ2  832  13.871  11.468  28.849 -0.0878  0.0446 -0.1807
  167BDT   BNZ3  833  13.973  11.626  29.017  0.0128 -0.2122  0.0017
  167BDT    BS1  834  13.824  11.727  29.095  0.0517 -0.4265  0.3397
  167BDT    BS2  835  14.097  11.508  28.918 -0.0337  0.0220 -0.3453
  168BDT   BNZ1  836  17.347   3.295  17.325  0.1244 -0.0715 -0.1595
  168BDT   BNZ2  837  17.355   3.412  17.184 -0.0439  0.0300 -0.0863
  168BDT   BNZ3  838  17.279   3.183  17.110  0.0197  0.0410 -0.1857
  168BDT    BS1  839  17.277   3.071  17.273  0.2016 -0.0715 -0.2603
  168BDT    BS2  840  17.293   3.322  16.970 -0.1596  0.1446 -0.1014
  169BDT   BNZ1  841   5.444  10.878   2.901 -0.1455 -0.1413 -0.0066
  169BDT   BNZ2  842   5.316  10.796   3.002 -0.1564 -0.2180 -0.0825
  169BDT   BNZ3  843   5.546  10.763   3.101 -0.2167  0.1101  0.1775
  169BDT    BS1  844   5.670  10.857   2.981 -0.2035  0.1695  0.2413
  169BDT    BS2  845   5.394  10.680   3.197 -0.2263  0.0041  0.0773
  170BDT   BNZ1  846   2.472  18.459  18.232 -0.1242 -0.0300 -0.0208
  170BDT   BNZ2  847   2.349  18.564  18.146  0.0160  0.0357 -0.1427
  170BDT   BNZ3  848   2.499  18.702  18.295 -0.2925 -0.0898  0.2942
  170BDT    BS1  849   2.624  18.575  18.379 -0.4295 -0.1531  0.3911
  170BDT    BS2  850   2.360  18.799  18.193 -0.1264 -0.0130  0.1290
  171BDT   BNZ1  851   6.158  25.684  26.166  0.2645  0.0535  0.0941
  171BDT   BNZ2  852   6.329  25.748  26.163  0.2015  0.2202 -0.2043
  171BDT   BNZ3  853   6.173  25.898  26.033 -0.1732  0.0736  0.0671
  171BDT    BS1  854   5.995  25.815  26.046 -0.0676 -0.1009  0.3792
  171BDT    BS2  855   6.363  25.952  26.041 -0.2081  0.2546 -0.2615
  172BDT   BNZ1  856  14.122  13.734  20.087 -0.0440  0.1173 -0.0767
  172BDT   BNZ2  857  14.046  13.668  20.239 -0.0817 -0.0043 -0.1476
  172BDT   BNZ3  858  14.297  13.655  20.250 -0.0800  0.1069 -0.0428
  172BDT    BS1  859  14.363  13.729  20.080 -0.0391  0.2329  0.0288
  172BDT    BS2  860  14.198  13.587  20.407 -0.1193 -0.0279 -0.1247
  173BDT   BNZ1  861   6.148   0.516  17.432 -0.0968  0.0832 -0.0667
  173BDT   BNZ2  862   6.197   0.353  17.498  0.1021  0.2590  0.2319
  173BDT   BNZ3  863   5.971   0.422  17.584 -0.0250  0.1010  0.0288
  173BDT    BS1  864   5.934   0.598  17.504 -0.2334 -0.0895 -0.2839
  173BDT    BS2  865   6.040   0.247  17.646  0.1911  0.2966  0.3537
  174BDT   BNZ1  866   5.347   3.184  26.327  0.2557  0.0398 -0.0089
  174BDT   BNZ2  867   5.185   3.130  26.394  0.2197  0.1966  0.0326
  174BDT   BNZ3  868   5.364   3.126  26.572  0.2982 -0.1206 -0.0489
  174BDT    BS1  869   5.529   3.187  26.483  0.3287 -0.2710 -0.0885
  174BDT    BS2  870   5.183   3.071  26.627  0.2524  0.0670  0.0002
  175BDT   BNZ1  871   5.832  17.936   3.628 -0.1409 -0.0778  0.1187
  175BDT   BNZ2  872   5.697  17.819   3.668 -0.0584 -0.0873  0.3802
  175BDT   BNZ3  873   5.897  17.780   3.815  0.2597 -0.1210 -0.0523
  175BDT    BS1  874   6.032  17.912   3.759  0.1368 -0.1098 -0.3109
  175BDT    BS2  875   5.741  17.662   3.844  0.3156 -0.1271  0.2505
  176BDT   BNZ1  876  23.058  17.647   9.538  0.0368  0.0678 -0.3086
  176BDT   BNZ2  877  22.879  17.624   9.571  0.0629  0.0826 -0.1488
  176BDT   BNZ3  878  22.980  17.419   9.463  0.0300 -0.0731  0.1121
  176BDT    BS1  879  23.170  17.461   9.435  0.0046 -0.0750 -0.0846
  176BDT    BS2  880  22.787  17.412   9.506  0.0629 -0.0424  0.2566
  177BDT   BNZ1  881   2.643  16.447   6.887  0.0650  0.3282  0.4465
  177BDT   BNZ2  882   2.533  16.307   6.845  0.3845  0.1064  0.3302
  177BDT   BNZ3  883   2.471  16.514   6.716  0.1040 -0.0132  0.2681
  177BDT    BS1  884   2.598  16.653   6.773 -0.2313  0.2370  0.4018
  177BDT    BS2  885   2.362  16.353   6.682  0.4605 -0.2311  0.1550
  178BDT   BNZ1  886  13.558  17.586  11.223 -0.0331 -0.0664  0.0868
  178BDT   BNZ2  887  13.639  17.725  11.136 -0.2866  0.1434  0.1790
  178BDT   BNZ3  888  13.568  17.545  10.975 -0.3273  0.3107  0.0080
  178BDT    BS1  889  13.484  17.404  11.084 -0.0417  0.0674 -0.0801
  178BDT    BS2  890  13.658  17.703  10.898 -0.5885  0.5106  0.1221
  179BDT   BNZ1  891  14.687  23.730  10.891  0.0062  0.0356 -0.2062
  179BDT   BNZ2  892  14.584  23.677  11.032  0.1421  0.0479 -0.1015
  179BDT   BNZ3  893  14.747  23.497  10.965  0.2328  0.1272 -0.0954
  179BDT    BS1  894  14.848  23.570  10.813  0.0746  0.1079 -0.2120
  179BDT    BS2  895  14.627  23.456  11.116  0.3667  0.1344  0.0112
  180BDT   BNZ1  896  27.323  21.579  11.969 -0.1128 -0.3124 -0.0882
  180BDT   BNZ2  897  27.149  21.523  11.978 -0.1777 -0.1104 -0.0493
  180BDT   BNZ3  898  27.195  21.704  12.147  0.1776 -0.4340  0.2104
  180BDT    BS1  899  27.385  21.753  12.123  0.2189 -0.6372  0.1442
  180BDT    BS2  900  27.012  21.631  12.143  0.0804 -0.2023  0.2265
  181BDT   BNZ1  901  25.346  16.825  12.406  0.0218 -0.3357 -0.3693
  181BDT   BNZ2  902  25.334  16.822  12.588 -0.1715  0.3622 -0.3588
  181BDT   BNZ3  903  25.568  16.770  12.512 -0.0320  0.2974  0.0964
  181BDT    BS1  904  25.564  16.777  12.315  0.1650 -0.4710  0.0620
  181BDT    BS2  905  25.537  16.772  12.707 -0.2477  1.0261  0.0523
  182BDT   BNZ1  906  21.891   0.455  16.765 -0.0611 -0.0571  0.0050
  182BDT   BNZ2  907  21.760   0.569  16.708 -0.0323  0.0309  0.1128
  182BDT   BNZ3  908  21.664   0.344  16.769 -0.1199  0.0655  0.1045
  182BDT    BS1  909  21.817   0.234  16.828 -0.1452 -0.0344 -0.0146
  182BDT    BS2  910  21.537   0.480  16.705 -0.0824  0.1536  0.2168
  183BDT   BNZ1  911   9.204   9.275  21.468 -0.0338  0.2615  0.1445
  183BDT   BNZ2  912   9.065   9.297  21.352  0.0406 -0.0046  0.0013
  183BDT   BNZ3  913   9.282   9.376  21.251  0.0761 -0.0667  0.0284
  183BDT    BS1  914   9.420   9.346  21.388 -0.0105  0.2331  0.1854
  183BDT    BS2  915   9.120   9.392  21.139  0.1533 -0.3379 -0.1179
  184BDT   BNZ1  916  17.623   8.384   6.360  0.0294  0.0596 -0.0577
  184BDT   BNZ2  917  17.727   8.527   6.309  0.0131  0.0982  0.0170
  184BDT   BNZ3  918  17.514   8.515   6.174  0.0837  0.0565 -0.0919
  184BDT    BS1  919  17.415   8.358   6.241  0.0965  0.0171 -0.1664
  184BDT    BS2  920  17.638   8.663   6.132  0.0614  0.1001 -0.0058
  185BDT   BNZ1  921  29.118   1.805  19.745  0.0033 -0.2132 -0.1357
  185BDT   BNZ2  922  29.167   1.981  19.728  0.2086 -0.2671 -0.1182
  185BDT   BNZ3  923  29.259   1.881  19.940  0.0429 -0.3803 -0.0987
  185BDT    BS1  924  29.198   1.694  19.943 -0.1718 -0.3099 -0.1201
  185BDT    BS2  925  29.302   2.071  19.904  0.2683 -0.4275 -0.0824
  186BDT   BNZ1  926  21.315  14.387  23.834 -0.0129  0.0335 -0.0273
  186BDT   BNZ2  927  21.150  14.324  23.788 -0.0165  0.0822 -0.0799
  186BDT   BNZ3  928  21.251  14.188  23.975 -0.0290 -0.0748 -0.1864
  186BDT    BS1  929  21.427  14.269  24.012 -0.0235 -0.1162 -0.1202
  186BDT    BS2  930  21.071  14.134  23.912 -0.0318 -0.0112 -0.2325
  187BDT   BNZ1  931  22.472  21.577  17.203  0.2001 -0.2731  0.0917
  187BDT   BNZ2  932  22.551  21.727  17.272 -0.0639 -0.0314 -0.1179
  187BDT   BNZ3  933  22.587  21.712  17.023 -0.4377 -0.0623 -0.1726
  187BDT    BS1  934  22.497  21.547  16.965 -0.1187 -0.3315  0.0683
  187BDT    BS2  935  22.666  21.868  17.115 -0.6876  0.1784 -0.3846
  188BDT   BNZ1  936  17.155  10.219  13.740 -0.0149  0.3318 -0.0062
  188BDT   BNZ2  937  17.228  10.219  13.908  0.1751 -0.2406 -0.0780
  188BDT   BNZ3  938  17.395  10.295  13.735  0.1787 -0.2570 -0.0816
  188BDT    BS1  939  17.300  10.289  13.562 -0.0316  0.3788  0.0047
  188BDT    BS2  940  17.457  10.289  13.923  0.3670 -0.8483 -0.1691
  189BDT   BNZ1  941   9.187  28.037  24.230 -0.1305 -0.0401  0.1192
  189BDT   BNZ2  942   9.119  28.173  24.129  0.0379 -0.0946 -0.0711
  189BDT   BNZ3  943   9.099  27.952  24.009  0.0178 -0.1955  0.1185
  189BDT    BS1  944   9.176  27.818  24.131 -0.1684 -0.1254  0.3139
  189BDT    BS2  945   9.030  28.111  23.915  0.1941 -0.2444 -0.0929
  190BDT   BNZ1  946  28.937  15.875   4.162 -0.3973  0.0972  0.2376
  190BDT   BNZ2  947  28.843  15.983   4.048 -0.1646  0.0680  0.0151
  190BDT   BNZ3  948  29.082  16.060   4.072 -0.0429 -0.2925 -0.0105
  190BDT    BS1  949  29.167  15.934   4.197 -0.3139 -0.2347  0.2391
  190BDT    BS2  950  28.966  16.166   3.952  0.1875 -0.2996 -0.2340
  191BDT   BNZ1  951  22.209   4.233  28.010  0.2081 -0.0355 -0.0218
  191BDT   BNZ2  952  22.052   4.167  27.942  0.1349 -0.0227  0.1325
  191BDT   BNZ3  953  22.248   4.105  27.797 -0.0027 -0.1125 -0.0158
  191BDT    BS1  954  22.407   4.183  27.883  0.0880 -0.1199 -0.1755
  191BDT    BS2  955  22.071   4.041  27.739 -0.0668 -0.0914  0.1567
  192BDT   BNZ1  956  10.631  27.314  10.556  0.2251  0.0227 -0.1136
  192BDT   BNZ2  957  10.807  27.268  10.568  0.1914 -0.0417  0.1575
  192BDT   BNZ3  958  10.713  27.332  10.793 -0.1450 -0.0578  0.0243
  192BDT    BS1  959  10.524  27.378  10.762 -0.0787  0.0138 -0.2687
  192BDT    BS2  960  10.904  27.279  10.788 -0.1542 -0.1231  0.3128
  193BDT   BNZ1  961   3.819   0.696   7.002 -0.1942  0.2552  0.0738
  193BDT   BNZ2  962   3.865   0.626   7.165  0.1356  0.2857 -0.0033
  193BDT   BNZ3  963   4.066   0.651   7.015 -0.1867  0.1029 -0.4794
  193BDT    BS1  964   3.999   0.727   6.846 -0.5322  0.0812 -0.3501
  193BDT    BS2  965   4.098   0.576   7.195  0.1744  0.1499 -0.5195
  194BDT   BNZ1  966   7.053  27.255  24.537 -0.0292  0.1932  0.0939
  194BDT   BNZ2  967   7.018  27.206  24.710  0.0178 -0.0496  0.0348
  194BDT   BNZ3  968   6.837  27.356  24.619 -0.0747 -0.0292  0.2516
  194BDT    BS1  969   6.890  27.400  24.435 -0.1192  0.2377  0.3019
  194BDT    BS2  970   6.816  27.292  24.805 -0.0175 -0.2822  0.1715
  195BDT   BNZ1  971   1.507  15.862   9.018 -0.0440 -0.0296  0.0488
  195BDT   BNZ2  972   1.515  15.938   9.184  0.1207 -0.0546  0.0525
  195BDT   BNZ3  973   1.668  16.055   9.022 -0.1206  0.0386 -0.1105
  195BDT    BS1  974   1.647  15.962   8.850 -0.2855  0.0593 -0.0995
  195BDT    BS2  975   1.665  16.124   9.207  0.0687  0.0047 -0.0922
  196BDT   BNZ1  976  17.060   8.850  20.086  0.0933  0.1092  0.0002
  196BDT   BNZ2  977  16.998   8.976  19.969  0.0831  0.0179 -0.0926
  196BDT   BNZ3  978  16.954   9.044  20.208  0.0811  0.1918 -0.1422
  196BDT    BS1  979  17.027   8.900  20.319  0.0924  0.2801 -0.0361
  196BDT    BS2  980  16.894   9.169  20.067  0.0707  0.0832 -0.2346
  197BDT   BNZ1  981  26.074  20.030   3.159 -0.0697 -0.0055 -0.0595
  197BDT   BNZ2  982  25.967  19.909   3.072 -0.0509 -0.0644 -0.0017
  197BDT   BNZ3  983  26.210  19.874   3.015 -0.0413 -0.0832  0.0514
  197BDT    BS1  984  26.310  20.010   3.116 -0.0631 -0.0164 -0.0169
  197BDT    BS2  985  26.079  19.752   2.930 -0.0222 -0.1420  0.1073
  198BDT   BNZ1  986  27.689  10.692  14.841  0.0635 -0.0782  0.0974
  198BDT   BNZ2  987  27.567  10.826  14.814 -0.0645 -0.1851  0.1451
  198BDT   BNZ3  988  27.733  10.888  14.994 -0.0767 -0.0585  0.1125
  198BDT    BS1  989  27.856  10.735  15.010  0.0657  0.0510  0.0619
  198BDT    BS2  990  27.593  11.021  14.952 -0.2078 -0.1799  0.1646
  199BDT   BNZ1  991   6.894  14.613  24.838 -0.1522 -0.0018 -0.1730
  199BDT   BNZ2  992   6.838  14.693  24.993 -0.1622 -0.2297 -0.0571
  199BDT   BNZ3  993   6.661  14.707  24.815 -0.0494  0.2663 -0.1378
  199BDT    BS1  994   6.736  14.617  24.657 -0.0465  0.4833 -0.2530
  199BDT    BS2  995   6.618  14.789  24.990 -0.0673 -0.0089 -0.0071
  200BDT   BNZ1  996  22.642   3.620  11.906  0.1185 -0.3307  0.0185
  200BDT   BNZ2  997  22.563   3.760  11.995  0.2654 -0.1854 -0.0762
  200BDT   BNZ3  998  22.496   3.756  11.752  0.1119 -0.3954 -0.0318
  200BDT    BS1  999  22.589   3.601  11.672 -0.0406 -0.5377  0.0719
  200BDT    BS2 1000  22.419   3.900  11.863  0.2760 -0.2273 -0.1325
  201BDT   BNZ1 1001   8.134  19.372  22.778 -0.2199 -0.1386  0.2399
  201BDT   BNZ2 1002   8.126  19.190  22.761 -0.1322 -0.1198 -0.0326
  201BDT   BNZ3 1003   8.249  19.294  22.567 -0.0437  0.2187  0.2008
  201BDT    BS1 1004   8.247  19.488  22.600 -0.1495  0.1674  0.4873
  201BDT    BS2 1005   8.231  19.098  22.566  0.0384  0.2109 -0.0975
  202BDT   BNZ1 1006  11.958  29.011   5.715 -0.1505 -0.1825  0.0783
  202BDT   BNZ2 1007  11.923  29.105   5.561 -0.3443  0.0218  0.2435
  202BDT   BNZ3 1008  11.812  28.879   5.559 -0.1482 -0.0747 -0.0165
  202BDT    BS1 1009  11.860  28.793   5.729  0.0508 -0.2894 -0.1855
  202BDT    BS2 1010  11.784  28.993   5.400 -0.3641  0.1456  0.1752
  203BDT   BNZ1 1011  23.042  28.098  13.431 -0.3895  0.1168  0.1756
  203BDT   BNZ2 1012  23.024  27.988  13.286 -0.3126  0.1398  0.1482
  203BDT   BNZ3 1013  22.953  27.872  13.498 -0.2052  0.0282  0.1236
  203BDT    BS1 1014  22.979  28.004  13.643 -0.2986  0.0117  0.1557
  203BDT    BS2 1015  22.941  27.767  13.331 -0.1341  0.0618  0.0975
  204BDT   BNZ1 1016  13.383   9.654  27.013 -0.0137 -0.0888  0.1053
  204BDT   BNZ2 1017  13.369   9.723  27.182  0.1538  0.1501  0.0258
  204BDT   BNZ3 1018  13.164   9.776  27.045  0.0430  0.0067  0.1338
  204BDT    BS1 1019  13.196   9.696  26.868 -0.1345 -0.2456  0.2183
  204BDT    BS2 1020  13.166   9.842  27.231  0.2254  0.2651  0.0421
  205BDT   BNZ1 1021  16.087  14.615  20.720 -0.1028  0.0987  0.0567
  205BDT   BNZ2 1022  16.245  14.705  20.702 -0.1871  0.3065  0.3107
  205BDT   BNZ3 1023  16.080  14.773  20.524  0.0776 -0.0795 -0.0964
  205BDT    BS1 1024  15.917  14.668  20.559  0.1629 -0.2763 -0.3448
  205BDT    BS2 1025  16.257  14.861  20.519 -0.0248  0.1675  0.2022
  206BDT   BNZ1 1026  21.202   0.493   8.730 -0.1290 -0.3102  0.2226
  206BDT   BNZ2 1027  21.097   0.403   8.610 -0.1771  0.0789 -0.0327
  206BDT   BNZ3 1028  21.335   0.424   8.527 -0.1318  0.0585  0.0925
  206BDT    BS1 1029  21.432   0.522   8.668 -0.0855 -0.3745  0.3626
  206BDT    BS2 1030  21.207   0.330   8.409 -0.1816  0.4662 -0.1767
  207BDT   BNZ1 1031   5.022  19.814  20.456  0.2510  0.3184  0.0692
  207BDT   BNZ2 1032   4.920  19.938  20.370 -0.2791 -0.1570 -0.0207
  207BDT   BNZ3 1033   5.016  19.772  20.208  0.3744  0.0845  0.1040
  207BDT    BS1 1034   5.122  19.646  20.316  0.8934  0.6171  0.1816
  207BDT    BS2 1035   4.902  19.914  20.132 -0.2289 -0.4239  0.0027
  208BDT   BNZ1 1036  22.813  24.822  24.733  0.0298 -0.1644  0.2361
  208BDT   BNZ2 1037  22.744  24.690  24.627 -0.0526 -0.0006  0.0815
  208BDT   BNZ3 1038  22.574  24.870  24.668  0.2105  0.2990 -0.1159
  208BDT    BS1 1039  22.663  25.003  24.783  0.2870  0.0925  0.0722
  208BDT    BS2 1040  22.517  24.718  24.555  0.1106  0.4451 -0.2565
  209BDT   BNZ1 1041  10.802  14.008  23.295  0.0362 -0.0837  0.0770
  209BDT   BNZ2 1042  10.944  14.116  23.339  0.0377 -0.1449  0.2269
  209BDT   BNZ3 1043  10.729  14.248  23.328  0.1321 -0.0174 -0.1825
  209BDT    BS1 1044  10.588  14.118  23.281  0.1279  0.0411 -0.3165
  209BDT    BS2 1045  10.893  14.348  23.374  0.1293 -0.0917  0.0063
  210BDT   BNZ1 1046  27.051  12.894  19.842  0.1155 -0.0063 -0.0047
  210BDT   BNZ2 1047  26.873  12.859  19.816  0.0631  0.1808  0.0849
  210BDT   BNZ3 1048  26.987  12.671  19.940 -0.0927  0.1029  0.1115
  210BDT    BS1 1049  27.175  12.726  19.960 -0.0240 -0.0983  0.0095
  210BDT    BS2 1050  26.794  12.650  19.903 -0.1328  0.3038  0.2019
  211BDT   BNZ1 1051  19.258   7.833  12.453  0.2145  0.0189  0.0490
  211BDT   BNZ2 1052  19.102   7.815  12.548  0.1279  0.1238 -0.0714
  211BDT   BNZ3 1053  19.246   8.000  12.642  0.2888 -0.1287  0.1848
  211BDT    BS1 1054  19.408   8.005  12.530  0.3678 -0.2273  0.3002
  211BDT    BS2 1055  19.073   7.966  12.732  0.1838 -0.0012  0.0396
  212BDT   BNZ1 1056  16.079  24.507   9.374 -0.3294 -0.0178 -0.0415
  212BDT   BNZ2 1057  15.985  24.622   9.481 -0.2425  0.0466 -0.0337
  212BDT   BNZ3 1058  16.025  24.722   9.253 -0.1266  0.0513 -0.0120
  212BDT    BS1 1059  16.126  24.587   9.152 -0.2320 -0.0206 -0.0221
  212BDT    BS2 1060  15.924  24.832   9.383 -0.0459  0.1171 -0.0058
  213BDT   BNZ1 1061  10.228   8.186  18.982 -0.1051  0.1668  0.0393
  213BDT   BNZ2 1062  10.131   8.082  19.098  0.0909  0.0298  0.0824
  213BDT   BNZ3 1063  10.104   8.327  19.150 -0.1417 -0.0126  0.1634
  213BDT    BS1 1064  10.213   8.423  19.018 -0.3429  0.1403  0.1112
  213BDT    BS2 1065  10.006   8.199  19.266  0.0803 -0.1510  0.2009
  214BDT   BNZ1 1066  20.742  23.384  12.012  0.0091 -0.1622 -0.1926
  214BDT   BNZ2 1067  20.809  23.533  11.930 -0.0015  0.0169  0.1155
  214BDT   BNZ3 1068  20.641  23.595  12.107 -0.1242 -0.3711  0.1388
  214BDT    BS1 1069  20.579  23.425  12.184 -0.0996 -0.5375 -0.2086
  214BDT    BS2 1070  20.725  23.744  12.007 -0.1245 -0.1577  0.4551
  215BDT   BNZ1 1071   3.309  22.015   3.684 -0.2735  0.1303  0.2082
  215BDT   BNZ2 1072   3.232  21.881   3.781  0.1029 -0.3258 -0.1023
  215BDT   BNZ3 1073   3.211  21.839   3.533  0.0596  0.2965 -0.2126
  215BDT    BS1 1074   3.299  21.991   3.445 -0.3624  0.7413  0.1558
  215BDT    BS2 1075   3.133  21.703   3.654  0.4556 -0.2202 -0.5231
  216BDT   BNZ1 1076   2.856  21.296  21.208 -0.0387  0.0324 -0.2376
  216BDT   BNZ2 1077   2.845  21.469  21.266 -0.0337  0.0363 -0.2466
  216BDT   BNZ3 1078   2.684  21.320  21.391  0.2410 -0.0276  0.0364
  216BDT    BS1 1079   2.709  21.140  21.317  0.2163 -0.0251  0.0229
  216BDT    BS2 1080   2.686  21.511  21.441  0.2260 -0.0176  0.0021
  217W        W 1081  28.446   9.079  12.523 -0.1489 -0.0594 -0.3912
  218W        W 1082   0.758   1.136  19.956  0.3317 -0.0284  0.3639
  219W        W 1083   9.730   7.148   3.907 -0.1767  0.1510  0.1295
  220W        W 1084  23.002   9.580  26.477 -0.3098  0.2972 -0.1289
  221W        W 1085   1.120   3.688  21.166 -0.1785 -0.2177 -0.0261
  222W        W 1086   0.375  26.622  27.630  0.1391  0.2792  0.0130
  223W        W 1087  10.976  21.472  12.458 -0.0456  0.0548  0.1028
  224W        W 1088   5.533   7.678   9.480  0.0826  0.0079  0.0318
  225W        W 1089  28.246   5.144  21.308  0.0079  0.1654 -0.0700
  226W        W 1090   9.469   4.345   9.116 -0.0114  0.0860 -0.0116
  227W        W 1091   0.584   2.547  12.404  0.1302  0.1007 -0.1377
  228W        W 1092   4.742   7.891  28.827 -0.0033 -0.0217 -0.0839
  229W        W 1093  26.846   1.526   4.666 -0.0599 -0.2844 -0.0672
  230W        W 1094   5.780   2.264  18.532 -0.1994 -0.2123 -0.0000
  231W        W 1095   5.015  15.076   1.812  0.0950  0.3031 -0.3516
  232W        W 1096  18.693   3.881   9.817  0.0192  0.1931  0.0870
  233W        W 1097   9.782  25.025  24.123 -0.1558  0.1014  0.0234
  234W        W 1098  18.155  12.515  26.370  0.1947  0.0611  0.0436
  235W        W 1099  28.534  18.495  20.446  0.2292  0.0105 -0.1138
  236W        W 1100   8.304  20.335  15.134 -0.0595 -0.1653 -0.4920
  237W        W 1101  23.057   1.604   9.494 -0.1132 -0.3614  0.1565
  238W        W 1102  18.121  16.656  11.935  0.2114  0.1559  0.1390
  239W        W 1103   1.970   8.718   3.164  0.1593 -0.0217 -0.1472
  240W        W 1104  10.063  14.260   6.760 -0.0928 -0.0263 -0.0236
  241W        W 1105  25.255  23.458   2.978  0.1637  0.0072  0.1563
  242W        W 1106   0.927  21.397  10.917 -0.0140  0.1699  0.0082
  243W        W 1107   3.581  21.186  19.220  0.1088 -0.1192 -0.2106
  244W        W 1108   5.020  15.819   0.350  0.2476  0.1110 -0.0528
  245W        W 1109  12.259   3.116  20.400 -0.2833 -0.3436 -0.1748
  246W        W 1110   1.830  20.825   9.020  0.1101  0.1827  0.0185
  247W        W 1111   9.462  27.479   2.568  0.1204  0.2695  0.1181
  248W        W 1112  23.944  18.911   5.892  0.2779 -0.1666  0.3342
  249W        W 1113   8.000  27.206   3.572  0.1864 -0.0500  0.1260
  250W        W 1114  22.973   3.841  25.504  0.0131  0.1046  0.1363
  251W        W 1115  11.671  16.036  21.717  0.1021  0.0780  0.0530
  252W        W 1116   7.526  21.033   2.979 -0.1003 -0.5280  0.0248
  253W        W 1117  12.513   1.039   8.137 -0.1510 -0.1012 -0.0703
  254W        W 1118  20.010  24.346   4.961  0.1042  0.1934 -0.0848
  255W        W 1119   4.909  17.647   0.301  0.1743  0.2636 -0.0262
  256W        W 1120   3.049   4.318  27.044  0.1621 -0.1642  0.1256
  257W        W 1121  23.990  20.591  27.053  0.0036 -0.0786 -0.1909
  258W        W 1122  20.725  16.508  27.901  0.0043  0.1505 -0.3269
  259W        W 1123  13.752   0.393  22.816  0.0270 -0.2169  0.2298
  260W        W 1124   4.737   5.398  14.915  0.1267  0.1925 -0.0800
  261W        W 1125  14.291  17.868  21.657 -0.2729 -0.0839 -0.0672
  262W        W 1126  12.217   4.564   7.453 -0.0914 -0.1369 -0.0656
  263W        W 1127  13.245  23.436  20.073 -0.2517  0.2259  0.0695
  264W        W 1128  17.573  23.088  21.290 -0.4849  0.3450 -0.0727
  265W        W 1129  23.901  24.577  17.587 -0.1971 -0.1880 -0.2963
  266W        W 1130  26.470   1.719  10.344 -0.2000  0.0012 -0.1778
  267W        W 1131   6.377   2.257  26.162 -0.0830  0.0138 -0.2456
  268W        W 1132  28.087  13.869  26.022  0.2791  0.1983 -0.1855
  269W        W 1133  11.185   3.446   2.240 -0.5807 -0.0934 -0.1301
  270W        W 1134  25.047  28.047   1.054  0.0872 -0.0548 -0.1566
  271W        W 1135   4.829   8.017   2.841 -0.0800  0.0182  0.2962
  272W        W 1136   0.554  17.558   3.777 -0.1288 -0.2830  0.0143
  273W        W 1137  25.562  13.396  14.350  0.4361  0.1125  0.0079
  274W        W 1138   1.242   0.401   7.717  0.5574 -0.1328  0.0436
  275W        W 1139  18.237   4.431   4.527 -0.0611  0.0596 -0.0714
  276W        W 1140  28.237  17.284   7.091 -0.0506 -0.1309  0.1215
  277W        W 1141   5.258   0.637   9.533  0.3079  0.0200  0.3333
  278W        W 1142   8.049  18.798   7.525 -0.2120  0.2126  0.0554
  279W        W 1143  12.306  14.794  22.582 -0.0940  0.0485 -0.0783
  280W        W 1144  18.833  12.421  19.956  0.0849 -0.0028 -0.0700
  281W        W 1145   5.237  25.069  24.205  0.0528 -0.2011  0.1987
  282W        W 1146   9.664   0.210  19.618 -0.2200 -0.1063  0.1420
  283W        W 1147  27.869  28.952  27.131 -0.2717 -0.0218  0.2901
  284W        W 1148  27.186  25.209  15.299  0.0096 -0.3561  0.1308
  285W        W 1149  27.415  26.121  16.690  0.4044  0.0788  0.0543
  286W        W 1150  25.807   1.375  28.366 -0.2040  0.0682 -0.1097
  287W        W 1151  28.587   9.528   0.781  0.2514  0.0424  0.2474
  288W        W 1152   6.813  13.566   2.447 -0.1206 -0.1940 -0.2815
  289W        W 1153   1.403   0.825  11.698 -0.0318  0.0885  0.1443
  290W        W 1154   7.111  22.821  18.191 -0.1582 -0.0339  0.3973
  291W        W 1155   3.929  15.643  22.743  0.2008  0.0545  0.1247
  292W        W 1156  11.980  20.383   6.199  0.0752 -0.0975  0.1235
  293W        W 1157  18.959  24.682  16.773  0.0288 -0.1725  0.2063
  294W        W 1158   6.332   7.413  22.310  0.2658 -0.2227  0.5026
  295W        W 1159  12.349   1.191   4.840  0.2951  0.0552  0.0057
  296W        W 1160  17.231   5.977   5.375  0.0732 -0.1150 -0.0244
  297W        W 1161   5.892   7.528   2.312  0.2127  0.0193  0.0882
  298W        W 1162  20.181  12.821  14.867  0.2122  0.3075  0.1753
  299W        W 1163  22.377   1.115   9.230  0.0327  0.0042 -0.2075
  300W        W 1164  13.808  18.272   6.211  0.0815  0.2646  0.1562
  301W        W 1165  27.988  27.968  21.795 -0.1893  0.0752 -0.1092
  302W        W 1166   3.852   7.010  16.920 -0.2898  0.0445  0.0798
  303W        W 1167  15.958  10.700  12.455 -0.2074  0.2971 -0.0159
  304W        W 1168  20.079   0.065   8.723 -0.1394  0.2857  0.0074
  305W        W 1169   4.820  14.120  26.176  0.0234 -0.1547  0.0835
  306W        W 1170  22.704  21.055  15.727 -0.1125  0.1005  0.1075
  307W        W 1171  20.449  19.003   6.247 -0.2202 -0.0330  0.0438
  308W        W 1172  22.332  12.170  10.772 -0.4119 -0.1541 -0.2333
  309W        W 1173   2.760  14.935   1.870  0.0816 -0.0709  0.4393
  310W        W 1174  11.812  24.071   7.353 -0.0923  0.0832  0.3846
  311W        W 1175  10.306  11.568   4.454 -0.0301  0.4030  0.1186
  312W        W 1176   9.647   3.862  16.615 -0.0004  0.0899 -0.1025
  313W        W 1177  25.980   5.329  27.964 -0.2068  0.0323 -0.0585
  314W        W 1178  16.026  20.795   8.665 -0.1240  0.4099  0.3163
  315W        W 1179   5.620  21.247  23.177  0.1527 -0.0047 -0.0135
  316W        W 1180   4.020   8.295   5.992 -0.1642  0.1798 -0.1833
  317W        W 1181  14.253  27.471   6.152 -0.1338  0.0548  0.1528
  318W        W 1182  15.942  21.686   2.127 -0.2723 -0.1854 -0.0955
  319W        W 1183  26.530  25.129   7.780 -0.3542 -0.0204  0.1908
  320W        W 1184  13.183  11.291   4.191 -0.0493 -0.0540 -0.1518
  321W        W 1185   3.618  18.489  18.454  0.4224 -0.0180  0.0851
  322W        W 1186  21.123  21.095   7.216 -0.1503 -0.3376  0.4773
  323W        W 1187   2.620  27.108  18.602 -0.1196 -0.1810  0.1201
  324W        W 1188  12.664  24.396   1.147  0.1219  0.0196  0.0248
  325W        W 1189  13.145  14.973  26.904 -0.2098  0.2917 -0.0107
  326W        W 1190  23.325   5.020   2.036 -0.0003 -0.0069 -0.0451
  327W        W 1191   1.965   1.908  13.206  0.0168  0.1077 -0.1289
  328W        W 1192  22.951   7.953  24.404  0.3151 -0.0666  0.0625
  329W        W 1193  27.309   4.980  12.729 -0.0821 -0.3629 -0.1340
  330W        W 1194   9.836  26.644  15.609  0.1436  0.0771 -0.0726
  331W        W 1195   3.814   1.239  16.601 -0.3278  0.1866  0.1096
  332W        W 1196  15.507  21.223  28.461 -0.1505 -0.3017 -0.1496
  333W        W 1197   7.464  28.298  11.202 -0.1110 -0.3639  0.0075
  334W        W 1198   3.022  12.358   2.494  0.1447  0.0697  0.0993
  335W        W 1199   3.845  18.980  14.433  0.2147  0.0113 -0.0222
  336W        W 1200   7.008  23.893   0.547  0.0799  0.2127  0.0446
  337W        W 1201   6.319  16.946  27.866  0.1831 -0.2845  0.2731
  338W        W 1202  16.117  26.758  21.439  0.2309  0.0022 -0.0351
  339W        W 1203  18.377   0.900  23.905 -0.0673 -0.0074  0.1910
  340W        W 1204  16.160   7.935  26.342  0.0768  0.2974  0.0950
  341W        W 1205   5.478  19.573   4.734  0.1696  0.0830  0.1565
  342W        W 1206  16.210  23.528  26.729 -0.4432  0.0185  0.2382
  343W        W 1207  25.779  27.869  18.303  0.0378  0.1671  0.1753
  344W        W 1208  12.766   9.215   6.469  0.0705 -0.1490 -0.2274
  345W        W 1209   7.498  19.123   9.071 -0.0446 -0.3123  0.2062
  346W        W 1210  24.483  22.608  24.353 -0.2271 -0.0566  0.2028
  347W        W 1211  21.194  27.882  22.057  0.1451 -0.0291 -0.1870
  348W        W 1212   5.433  23.503   6.963  0.1271 -0.0115 -0.1384
  349W        W 1213   8.249  14.075  14.269 -0.3796 -0.0155 -0.1334
  350W        W 1214   3.591  19.182  22.877  0.4535  0.1488 -0.0919
  351W        W 1215  13.116   0.078  25.761  0.0254  0.1718  0.1565
  352W        W 1216  13.042  10.961  24.766  0.0648 -0.1276  0.0387
  353W        W 1217  10.399  15.120  21.200  0.3123 -0.2172 -0.1011
  354W        W 1218   4.038   8.137  26.273  0.1798  0.0572  0.0310
  355W        W 1219   8.289  13.185   2.743  0.1196  0.2190  0.1910
  356W        W 1220  15.083   6.553   1.905  0.0536 -0.0051 -0.0635
  357W        W 1221   6.818   7.980  14.253  0.2851  0.2626 -0.4946
  358W        W 1222  26.047  22.893   0.883 -0.1428  0.0115 -0.0609
  359W        W 1223  21.374  27.844   1.976 -0.3203  0.0327 -0.0200
  360W        W 1224  22.350  19.340  13.448 -0.2557 -0.1227  0.0396
  361W        W 1225  23.897  11.309  25.287  0.0465  0.1131 -0.0703
  362W        W 1226  13.346  20.772   9.225 -0.0630 -0.0735  0.0729
  363W        W 1227  24.825  25.422  28.338 -0.1559  0.1260 -0.2817
  364W        W 1228   4.976  18.101  15.567  0.0622  0.1983  0.2023
  365W        W 1229   7.998  14.898  23.388 -0.3834 -0.1951 -0.0489
  366W        W 1230   6.477  25.233   1.150 -0.0552  0.2888 -0.0548
  367W        W 1231  27.317   2.849  28.364  0.3108 -0.0528 -0.0746
  368W        W 1232   0.799  24.367   2.468  0.0582 -0.6760  0.3212
  369W        W 1233  14.279  18.541   1.741  0.3044 -0.0901  0.1104
  370W        W 1234   7.932   2.514  22.025  0.2172  0.2287 -0.1721
  371W        W 1235  15.986  23.151  13.575 -0.0012 -0.1101 -0.1698
  372W        W 1236  23.686  22.122   7.000 -0.2019 -0.3332 -0.0290
  373W        W 1237   2.647  28.136  16.181  0.0764  0.4345 -0.2556
  374W        W 1238  28.973  18.785   9.559  0.1163 -0.0895  0.2527
  375W        W 1239   3.980  18.140  11.261  0.2618  0.1771 -0.1185
  376W        W 1240  23.097  12.694   2.074  0.3760  0.1796  0.2157
  377W        W 1241  13.159  11.484  28.671 -0.1452  0.0804  0.0344
  378W        W 1242  15.465  27.592  18.114  0.2374 -0.0782  0.0649
  379W        W 1243  20.380  11.290   0.741  0.3008 -0.0256 -0.0049
  380W        W 1244  27.046  27.095   1.877 -0.1105  0.1703  0.3796
  381W        W 1245  10.388  23.457   9.379 -0.1120  0.1730  0.0256
  382W        W 1246  16.643  11.561  21.423  0.1140  0.1298 -0.1504
  383W        W 1247  16.400   2.213  15.225 -0.0308  0.0890  0.1388
  384W        W 1248  17.090  19.459   7.869  0.0902  0.3181 -0.0408
  385W        W 1249   5.322   1.821   0.913 -0.0814 -0.5680 -0.3368
  386W        W 1250  18.176  13.633   8.318 -0.0387 -0.2330 -0.1314
  387W        W 1251   7.779  12.545   9.697  0.1215 -0.2016  0.0320
  388W        W 1252   4.044   1.280  25.624  0.0789 -0.0552 -0.1566
  389W        W 1253  12.844  28.392   0.931  0.1632  0.0333  0.0457
  390W        W 1254  12.048   7.333  24.269  0.0626 -0.1203  0.0099
  391W        W 1255  25.197  18.267   9.061 -0.1303  0.0596  0.0778
  392W        W 1256  12.789  26.044   2.943  0.2487  0.0959 -0.3557
  393W        W 1257   2.187   8.627   0.896 -0.1418 -0.0447 -0.1197
  394W        W 1258   5.866   9.812   3.568 -0.2118  0.0178 -0.0668
  395W        W 1259  24.775  22.443  12.364 -0.2885  0.0549  0.1131
  396W        W 1260   0.626  14.504  10.182 -0.0490 -0.3471 -0.0432
  397W        W 1261  27.386  27.084  21.365  0.1131  0.0678  0.2630
  398W        W 1262  25.515   2.950   7.377  0.2115 -0.1532 -0.2351
  399W        W 1263  27.822   2.280  13.068  0.1429 -0.0051  0.1493
  400W        W 1264  13.590  24.300  19.665  0.2891 -0.0212 -0.0442
  401W        W 1265   9.169  18.908   1.463  0.0569  0.0554  0.2940
  402W        W 1266   2.593  27.304   0.430  0.2259 -0.1507 -0.3740
  403W        W 1267  16.286   3.712  28.881 -0.0097 -0.1212 -0.3139
  404W        W 1268  27.248   5.076   5.206  0.2389 -0.3613 -0.1015
  405W        W 1269   1.081   3.062   2.437 -0.1338 -0.0146  0.1852
  406W        W 1270  27.335  11.925  15.871 -0.0041 -0.2000 -0.0837
  407W        W 1271  22.171  26.185  12.596 -0.1381 -0.2426  0.1431
  408W        W 1272  18.039  26.104  24.294  0.1256 -0.2556  0.2358
  409W        W 1273  19.231  20.326   3.441 -0.2731  0.0132  0.1997
  410W        W 1274   9.666  26.561  26.906  0.0818 -0.2125  0.1877
  411W        W 1275  24.667  24.230   5.518  0.0221  0.2805  0.0484
  412W        W 1276  17.171  23.177  20.318  0.1092  0.0733 -0.1448
  413W        W 1277  22.186  14.456  23.172 -0.0711  0.0372  0.0333
  414W        W 1278   1.686   6.626   9.320 -0.0463 -0.0092  0.0664
  415W        W 1279  17.315   0.553  29.011 -0.2598 -0.2383 -0.0059
  416W        W 1280  28.682   5.553  17.386  0.0162 -0.4425 -0.0629
  417W        W 1281   3.709   1.290  19.881  0.2505  0.1165  0.1752
  418W        W 1282  27.926  19.138  20.326 -0.0904  0.1849  0.0041
  419W        W 1283   0.210  14.927  26.786 -0.3721 -0.2210  0.5558
  420W        W 1284  15.081   8.648   2.403  0.4728  0.1568 -0.1616
  421W        W 1285   2.441  21.206  26.785 -0.0964  0.3420  0.3417
  422W        W 1286   6.339  19.189   9.246  0.0599 -0.2141 -0.1795
  423W        W 1287  22.724   4.243   8.452 -0.1111 -0.0707  0.3280
  424W        W 1288  22.465   4.693   6.710  0.3453 -0.2641 -0.2382
  425W        W 1289   2.125   3.253  16.939 -0.0886 -0.0882 -0.0581
  426W        W 1290   5.141  14.345  27.126  0.1432 -0.1956 -0.1093
  427W        W 1291   0.206   5.532  10.011 -0.0050  0.2660 -0.2148
  428W        W 1292  27.127  13.158  11.487 -0.0998  0.0474  0.2480
  429W        W 1293  14.482  24.012   0.583  0.0147 -0.0562  0.0279
  430W        W 1294   2.760   1.399   4.936  0.0574  0.0417  0.1394
  431W        W 1295   0.753  23.540   2.753  0.0594  0.2481 -0.1178
  432W        W 1296   3.450   1.381   5.859 -0.3922  0.3519 -0.1649
  433W        W 1297  29.046   1.567   2.349  0.0939 -0.0947 -0.0428
  434W        W 1298  13.821  21.824   8.385 -0.1641  0.0815 -0.2800
  435W        W 1299  26.611   2.189  10.576 -0.5555  0.3218  0.0821
  436W        W 1300   6.617   9.885  12.946  0.1017  0.1782 -0.3444
  437W        W 1301  18.972   1.447   2.607 -0.2342 -0.1132  0.0803
  438W        W 1302   4.274   7.280  21.691  0.0234 -0.1893 -0.2277
  439W        W 1303   3.875  13.291  25.200  0.1718 -0.1372  0.1636
  440W        W 1304  21.582   2.851   8.056 -0.0721 -0.0673 -0.1999
  441W        W 1305   9.195  13.360   6.981 -0.0011  0.0694  0.4947
  442W        W 1306  27.344  24.095   7.128 -0.0601  0.0634 -0.0913
  443W        W 1307  25.985  11.899  13.307  0.1507  0.2233 -0.0359
  444W        W 1308   2.420   4.538  18.944 -0.1969  0.3194 -0.0725
  445W        W 1309  14.478  21.495   1.684  0.3635 -0.0720  0.1532
  446W        W 1310   1.506  28.966  27.003  0.0301 -0.1991 -0.1296
  447W        W 1311  25.844  19.460   3.157 -0.3791  0.0815  0.1766
  448W        W 1312   8.593  23.650  27.609 -0.0449 -0.0398  0.0045
  449W        W 1313   4.629  18.125   4.605 -0.3136 -0.0448 -0.1133
  450W        W 1314  20.170   7.322   2.989  0.0131  0.1880 -0.2256
  451W        W 1315  24.101   4.511  11.312  0.2689  0.1188 -0.1992
  452W        W 1316  22.704  10.594  28.010 -0.0092 -0.3244  0.0008
  453W        W 1317  15.333   0.610  13.909  0.0180  0.0006 -0.2419
  454W        W 1318   4.634  14.050  11.195  0.1582  0.0949  0.2349
  455W        W 1319   7.005   2.801  15.394  0.4644 -0.0809  0.0791
  456W        W 1320  21.361   9.761   2.026  0.0056 -0.2334  0.1780
  457W        W 1321  25.329  28.508   9.950 -0.0830 -0.1536  0.2285
  458W        W 1322  25.042  12.006  26.119 -0.0552 -0.0983  0.1037
  459W        W 1323  26.620   0.474   0.295 -0.0055  0.1428  0.1171
  460W        W 1324   4.252  23.326  24.100 -0.2483  0.0102 -0.0244
  461W        W 1325   2.614  16.363  21.293 -0.3572 -0.1444 -0.1105
  462W        W 1326   6.393   0.556  21.823  0.1222  0.0475 -0.2080
  463W        W 1327  20.705   2.866   3.310  0.2012 -0.1966 -0.0789
  464W        W 1328  16.358  11.533  26.001  0.1275  0.2030 -0.2388
  465W        W 1329  28.153  25.229  12.379 -0.1513 -0.3064  0.1280
  466W        W 1330   5.388  22.592   5.791 -0.1784  0.0513 -0.2353
  467W        W 1331  25.856  21.142  26.318  0.2225 -0.0660  0.2213
  468W        W 1332  19.090   6.762   4.991 -0.2086 -0.0167 -0.0791
  469W        W 1333  27.594  17.398  28.348 -0.1354  0.1914 -0.4032
  470W        W 1334  25.549  13.586   7.076 -0.2947  0.0103 -0.0763
  471W        W 1335  28.816  14.889  14.570  0.1161 -0.0935  0.1674
  472W        W 1336  17.004  25.723  20.770 -0.0199 -0.0095 -0.0910
  473W        W 1337   0.583  20.973  15.501  0.2344  0.0342 -0.0625
  474W        W 1338  27.729   6.328  10.517  0.1985 -0.1965 -0.0328
  475W        W 1339  18.866  12.173   2.212  0.0577 -0.0902  0.1604
  476W        W 1340   9.741  15.569  20.322 -0.2040  0.3708  0.1680
  477W        W 1341  12.415   7.030  22.872 -0.2001  0.0656  0.0227
  478W        W 1342  16.774   0.927  12.453  0.1587 -0.3177 -0.0912
  479W        W 1343  27.181  26.111   3.681 -0.2963  0.2188 -0.3150
  480W        W 1344  12.467   6.375  28.354 -0.0937 -0.0694 -0.0754
  481W        W 1345  24.852   8.671  11.297  0.2778  0.3116  0.0463
  482W        W 1346  18.183  10.954  21.456 -0.1071  0.0924 -0.2761
  483W        W 1347   5.963   0.717  28.921 -0.4130  0.1824 -0.2935
  484W        W 1348   1.572   2.553  20.508 -0.1592  0.3177 -0.1021
  485W        W 1349   3.759  21.031   0.501 -0.0366  0.0137  0.0174
  486W        W 1350   4.882  27.884  19.265 -0.0051  0.1348 -0.3034
  487W        W 1351  11.672   1.073  22.827  0.2556 -0.1754  0.0277
  488W        W 1352  21.243   0.132   2.643  0.1597 -0.2987  0.0112
  489W        W 1353   1.140   3.325   6.237 -0.0181 -0.0354 -0.1705
  490W        W 1354  10.113   4.380  15.645 -0.0426  0.1145 -0.2135
  491W        W 1355   3.093  15.896  24.811  0.0604  0.2606 -0.0574
  492W        W 1356   7.522   1.435  17.434 -0.0062 -0.0039  0.0853
  493W        W 1357  13.805   5.871  17.241  0.1526 -0.0006 -0.0642
  494W        W 1358  14.849  15.250   4.700 -0.1242  0.0456  0.2276
  495W        W 1359   7.244  13.033  23.202 -0.2928 -0.2707 -0.1416
  496W        W 1360   7.164   3.231   4.298  0.2691  0.1040  0.3044
  497W        W 1361  22.658  10.494  11.987 -0.3370 -0.0866  0.0545
  498W        W 1362   9.679  27.942   4.613 -0.1797 -0.2044  0.1993
  499W        W 1363  21.226   9.309   9.532  0.1824 -0.0109 -0.0628
  500W        W 1364   0.210   1.241  16.870 -0.1177 -0.3132  0.3103
  501W        W 1365   7.251  19.704   4.352  0.0164  0.0520  0.0253
  502W        W 1366   3.616   8.209   7.658  0.2968  0.0104  0.0868
  503W        W 1367  13.417  19.907  19.972  0.0009  0.1465  0.0998
  504W        W 1368  11.630   3.671   1.965 -0.1636  0.0956 -0.0586
  505W        W 1369  24.532   2.153   8.428 -0.2549 -0.1504 -0.0144
  506W        W 1370  27.780   7.351   4.847 -0.3023 -0.0066  0.3148
  507W        W 1371  15.232  21.889   3.803 -0.1825 -0.0629  0.0348
  508W        W 1372  18.502   3.597   1.215 -0.0049  0.0351 -0.1337
  509W        W 1373  21.126  17.163  28.112 -0.1558 -0.2268  0.4634
  510W        W 1374   1.333  25.960  12.655 -0.1692 -0.0182  0.0109
  511W        W 1375   1.742  11.689  22.347 -0.5103 -0.0569  0.1569
  512W        W 1376  19.830   2.197  11.077  0.1426  0.2725  0.0648
  513W        W 1377   4.748   8.323  11.185 -0.0360  0.0723 -0.2649
  514W        W 1378   4.954  25.961  27.549 -0.3455 -0.2114  0.1569
  515W        W 1379  25.762  20.082   4.893 -0.0368 -0.3244  0.1626
  516W        W 1380   9.499   7.783  17.798  0.1091  0.1231  0.1311
  517W        W 1381   6.442  13.905  22.208 -0.0768 -0.0525 -0.1285
  518W        W 1382  12.597  22.538  27.425  0.4588  0.0043  0.1236
  519W        W 1383   6.139  17.362  11.587  0.0801  0.0250  0.1290
  520W        W 1384   9.367  12.322   7.591  0.2413 -0.0994 -0.0568
  521W        W 1385  15.538   4.803  10.065  0.0536  0.3446 -0.1804
  522W        W 1386  20.713  14.624  19.081 -0.1218 -0.2869 -0.0722
  523W        W 1387  23.135  28.328  15.591 -0.0411 -0.2052  0.0596
  524W        W 1388  21.170   3.621  10.008 -0.3708 -0.3262  0.2364
  525W        W 1389  18.586  23.307  27.399  0.2678 -0.1426 -0.1990
  526W        W 1390  28.442  23.912  12.529  0.1601 -0.1110 -0.1451
  527W        W 1391   0.780  19.803   8.233  0.1617 -0.2826 -0.1387
  528W        W 1392   6.897  25.900   3.224  0.0549  0.0350 -0.2162
  529W        W 1393   3.821  19.690   0.998  0.3213 -0.1743 -0.1832
  530W        W 1394   1.891   6.667  27.914  0.0076  0.3532  0.3604
  531W        W 1395  19.019  28.019  20.989  0.4177  0.0645  0.1332
  532W        W 1396   9.279  24.926  19.954 -0.5046 -0.2206  0.1028
  533W        W 1397   7.112  25.384  20.528  0.1528 -0.1189 -0.1099
  534W        W 1398   5.802  27.115  28.693 -0.1197 -0.2979 -0.2334
  535W        W 1399   2.058  10.140  16.029  0.1019 -0.0673  0.0011
  536W        W 1400  13.580  24.626   2.828 -0.1866  0.0090  0.2826
  537W        W 1401   7.764  24.937   2.911  0.3797 -0.1934  0.0152
  538W        W 1402  12.199  11.419   1.390 -0.2250 -0.3727 -0.1665
  539W        W 1403   5.841  23.283  15.437  0.0234 -0.2412  0.3170
  540W        W 1404  25.843   4.965  10.444 -0.1449  0.0061  0.0133
  541W        W 1405  13.230  28.042  19.925  0.1703  0.0891  0.0537
  542W        W 1406  23.753  15.703   8.811 -0.0538 -0.3723  0.2389
  543W        W 1407  20.535  17.620  27.497  0.2439 -0.1377 -0.1645
  544W        W 1408  15.329   9.753  26.798 -0.1971  0.2113 -0.4907
  545W        W 1409   9.501  28.269   2.171 -0.0049 -0.1219  0.1122
  546W        W 1410   2.974   6.982   8.892 -0.0290  0.0210  0.1405
  547W        W 1411  23.601   9.482   2.340 -0.0136 -0.0778 -0.2249
  548W        W 1412  10.286  11.766  23.925 -0.1153  0.1131 -0.0408
  549W        W 1413   7.149  24.632  23.023 -0.4455 -0.1128  0.2399
  550W        W 1414  26.400  16.947  10.207  0.1258 -0.1401  0.2986
  551W        W 1415   7.142  10.620   4.764 -0.0144  0.1530 -0.0020
  552W        W 1416  29.027   0.338  16.647 -0.3011 -0.0565 -0.1172
  553W        W 1417  12.298  20.027  25.134  0.0414  0.1205  0.1138
  554W        W 1418  24.488  12.008  10.907 -0.0613 -0.0957 -0.0670
  555W        W 1419   1.163   6.492  27.868 -0.0093 -0.0478  0.0484
  556W        W 1420  10.663  24.195   9.899  0.3508  0.0642  0.1013
  557W        W 1421  10.164  20.400   6.607 -0.2987  0.0645  0.1937
  558W        W 1422  10.018  24.999   9.084 -0.0271 -0.1401  0.2195
  559W        W 1423   5.193  13.608   8.342 -0.0490  0.0209 -0.0774
  560W        W 1424   9.053  24.896   1.483 -0.1141  0.3626  0.0112
  561W        W 1425  15.608   1.042  19.243  0.2101  0.0828  0.1144
  562W        W 1426   3.093  10.703  19.336  0.0568 -0.2718 -0.1207
  563W        W 1427   0.777   9.035   9.266 -0.2256 -0.0983 -0.4616
  564W        W 1428  18.808  25.993  15.650 -0.2943 -0.1915  0.0514
  565W        W 1429   1.791  24.646  18.235  0.3364  0.1771  0.1391
  566W        W 1430  13.559  11.290   8.410  0.2488  0.2251 -0.1697
  567W        W 1431   7.726  13.681  28.231  0.0149 -0.2564  0.0501
  568W        W 1432  26.246   1.935  28.977  0.0994 -0.1026 -0.4056
  569W        W 1433  26.462   4.059   2.940 -0.1270 -0.1708 -0.0684
  570W        W 1434   3.752  11.379   8.905 -0.1206  0.3373 -0.1751
  571W        W 1435  22.301  10.845  12.905  0.3314  0.2046  0.0996
  572W        W 1436   0.726   9.462  18.853  0.1430  0.1167 -0.3736
  573W        W 1437  20.648  10.427  23.781 -0.1388 -0.2438  0.1649
  574W        W 1438  17.988  19.563  26.170  0.2605 -0.1145  0.0466
  575W        W 1439   8.546  19.992  26.505  0.0673  0.1203 -0.3375
  576W        W 1440  22.289  17.006   7.991 -0.5522  0.1403 -0.0680
  577W        W 1441  17.517  12.756   7.744  0.2017 -0.0949 -0.1858
  578W        W 1442  16.112  14.634  15.176  0.2892 -0.0569 -0.2401
  579W        W 1443  12.148  29.050  24.902 -0.0446  0.2144 -0.0774
  580W        W 1444  14.515  19.288  23.023  0.0053  0.1037  0.0321
  581W        W 1445  10.747   3.260   5.626  0.2220 -0.3200  0.2397
  582W        W 1446   3.696   9.952   5.184 -0.2823  0.3478 -0.0478
  583W        W 1447  20.766   2.794   9.772 -0.0195  0.0192 -0.1233
  584W        W 1448  28.411  12.284   1.323 -0.1249 -0.1442 -0.2472
  585W        W 1449  14.033   0.848   2.847 -0.3698 -0.1889  0.0072
  586W        W 1450   3.964  28.138  24.818  0.0143  0.1530 -0.0470
  587W        W 1451  17.359   2.969  23.334  0.0751  0.1128 -0.2929
  588W        W 1452  11.647  25.678  16.311  0.3836 -0.1512 -0.1982
  589W        W 1453   4.292  26.139  18.891  0.2427 -0.1499  0.3046
  590W        W 1454   8.549  19.631   9.771  0.2373 -0.1452 -0.0851
  591W        W 1455  24.234  29.050  28.620  0.1299 -0.0916  0.2733
  592W        W 1456  13.110  18.635  15.687 -0.1118  0.2474  0.2140
  593W        W 1457  17.767  15.736  15.860 -0.0419 -0.1304  0.2155
  594W        W 1458   9.138   2.860  28.013 -0.3339 -0.2596 -0.0547
  595W        W 1459  21.489  26.066   4.027 -0.0821  0.2437 -0.1251
  596W        W 1460  20.252  12.417  28.321 -0.2784 -0.1215 -0.0371
  597W        W 1461  25.392   5.215  16.574 -0.0605 -0.1754  0.0057
  598W        W 1462   7.620  22.634   2.971 -0.0689  0.2635  0.1030
  599W        W 1463  11.028   9.045   7.658 -0.0370 -0.2303  0.0298
  600W        W 1464   9.845   3.191   9.589 -0.0896 -0.4755  0.3455
  601W        W 1465   5.225   5.856   9.548 -0.3650  0.1040 -0.3103
  602W        W 1466  25.775   0.610  10.254 -0.0502 -0.3574  0.3260
  603W        W 1467   6.645  28.370  12.673 -0.1434 -0.0376  0.0409
  604W        W 1468  20.832   4.733   5.216 -0.2509  0.1915 -0.1031
  605W        W 1469  20.563   9.917  11.044 -0.2083 -0.4210 -0.1692
  606W        W 1470   4.603   8.776  10.041 -0.0604  0.2220  0.1143
  607W        W 1471  25.552  12.976  23.538 -0.0222  0.1522  0.0049
  608W        W 1472   9.760  26.724  12.903 -0.1355 -0.3376 -0.0671
  609W        W 1473   9.966  28.064   0.919 -0.0375  0.1919  0.0118
  610W        W 1474  22.675  11.554  18.367 -0.1555  0.1315  0.4418
  611W        W 1475   4.493   0.508   4.331  0.3575  0.1136 -0.1855
  612W        W 1476  17.958   9.002   4.227  0.1167  0.1146  0.1187
  613W        W 1477  14.998  23.378  29.092 -0.0957  0.1545 -0.2011
  614W        W 1478  18.037  15.188   0.118 -0.0845  0.2274  0.0490
  615W        W 1479   5.509   1.241  22.312  0.1108 -0.0271 -0.0005
  616W        W 1480   0.901  13.213   2.458 -0.1630  0.1242  0.2302
  617W        W 1481   1.980  17.677  18.162  0.0548  0.1494  0.1248
  618W        W 1482  18.707  26.808   8.406 -0.2385 -0.2297 -0.3658
  619W        W 1483  24.614  21.169  23.210  0.0981 -0.0144 -0.0960
  620W        W 1484  11.082  11.947   7.422 -0.1267 -0.0711  0.0613
  621W        W 1485  26.678   6.123  23.480  0.0328  0.2016  0.1893
  622W        W 1486  26.845   5.549  19.402  0.0196 -0.0857  0.0678
  623W        W 1487   5.305  24.316   4.197  0.0524  0.0227  0.0159
  624W        W 1488  19.973  19.279  14.592 -0.0253 -0.1029 -0.2470
  625W        W 1489  16.362  25.229  22.483  0.2165 -0.0043 -0.1342
  626W        W 1490   6.654  24.681   5.866 -0.1900  0.2381 -0.0030
  627W        W 1491   1.989  19.569  11.225  0.0051 -0.1503 -0.1032
  628W        W 1492  20.698  28.057  18.248 -0.3271 -0.0513 -0.2583
  629W        W 1493   0.287  14.980  19.412  0.1634 -0.1747  0.1222
  630W        W 1494  13.465  21.999  26.796  0.2112  0.3229  0.0203
  631W        W 1495   4.062   5.852  15.321  0.1917 -0.1989  0.2999
  632W        W 1496   1.310  14.351  10.641  0.0288 -0.0457 -0.0247
  633W        W 1497  15.140  11.100   2.884 -0.2516  0.1184  0.0959
  634W        W 1498  15.703   0.543  15.518 -0.1312  0.1039 -0.2786
  635W        W 1499  17.076  23.852  26.602  0.2714 -0.0652 -0.0545
  636W        W 1500  25.340   8.691  11.114  0.1952 -0.0373  0.0705
  637W        W 1501   2.926  16.912   9.210  0.0060 -0.2203 -0.1403
  638W        W 1502  13.915  27.906  13.948 -0.0153  0.1106 -0.1772
  639W        W 1503   8.185  28.096  11.185  0.0543 -0.0895  0.0211
  640W        W 1504  16.476   4.783  27.857 -0.1151  0.2875 -0.0644
  641W        W 1505   9.136  19.000  27.503  0.0637  0.1544  0.0479
  642W        W 1506   9.695  16.568  28.335 -0.1328 -0.1288 -0.0512
  643W        W 1507   4.041  28.679   2.201  0.0323  0.1541 -0.0307
  644W        W 1508   8.093  28.563  12.983 -0.0195  0.0783 -0.1396
  645W        W 1509   9.421   8.320   6.635  0.1958 -0.1048  0.2261
  646W        W 1510  19.519  26.748  20.381  0.1273  0.0911 -0.0967
  647W        W 1511  27.327   5.854   6.482  0.0842 -0.0826  0.1701
  648W        W 1512   8.288   9.253  13.524  0.2367  0.1513 -0.0819
  649W        W 1513  24.925  22.026   2.819  0.0339  0.1902  0.3151
  650W        W 1514   0.649  19.437   3.238 -0.1272 -0.1336 -0.1044
  651W        W 1515  20.932  23.903  19.275 -0.0824  0.2728 -0.1086
  652W        W 1516  19.792   8.809   8.888  0.1534 -0.1985 -0.1881
  653W        W 1517   7.343   7.380  19.698  0.1298  0.1791  0.1261
  654W        W 1518   7.466   8.571  19.522  0.3045 -0.0299 -0.1582
  655W        W 1519  12.117   4.390  26.620 -0.1174  0.0027 -0.0427
  656W        W 1520  28.563  18.733  17.571 -0.2576 -0.1852 -0.2928
  657W        W 1521  23.642  17.144  23.843  0.0888 -0.0442 -0.0430
  658W        W 1522  12.538  16.660  27.992  0.3047 -0.0360 -0.1350
  659W        W 1523   2.711   6.949  26.808  0.4368 -0.0270 -0.0254
  660W        W 1524  14.579  15.405  11.194  0.0318 -0.1285  0.0108
  661W        W 1525  23.954  23.382   2.311  0.1107 -0.1156 -0.0543
  662W        W 1526  10.104  14.517   2.097 -0.4090  0.0571  0.1181
  663W        W 1527   6.169  16.677   5.065 -0.2988 -0.2469 -0.0708
  664W        W 1528  17.137  21.699   0.855 -0.0554 -0.3639 -0.1822
  665W        W 1529   7.188  10.149   4.952 -0.0973  0.1541 -0.1088
  666W        W 1530   2.591   9.872   5.485  0.1087  0.1076  0.1961
  667W        W 1531   1.395  15.311  28.095 -0.0032 -0.0150  0.0698
  668W        W 1532  28.352  16.815   5.383  0.1144 -0.3371  0.2849
  669W        W 1533  23.862  20.874  23.802 -0.0151 -0.2187 -0.2062
  670W        W 1534  27.203  25.650  22.345 -0.1248 -0.1038 -0.1635
  671W        W 1535   4.300   2.502  20.203  0.2093  0.1017 -0.0470
  672W        W 1536  20.392  25.965   3.698  0.4492  0.0539 -0.2606
  673W        W 1537  18.819  17.820   7.870  0.2565  0.0436  0.0192
  674W        W 1538   1.736  11.637   0.411  0.0496 -0.2205 -0.1193
  675W        W 1539  20.333  11.494  19.350 -0.3845 -0.0299 -0.4430
  676W        W 1540  27.080  11.339  18.168 -0.0085 -0.1469 -0.1577
  677W        W 1541   9.430  21.330   9.710 -0.0494  0.2001  0.4904
  678W        W 1542  14.373  24.950  14.938  0.0508 -0.1686 -0.1458
  679W        W 1543   5.294   8.020  20.984  0.0363  0.0429 -0.0692
  680W        W 1544   1.964  26.272   6.036  0.0231 -0.1941  0.2124
  681W        W 1545   3.778  21.782   5.881  0.0417 -0.0341 -0.1664
  682W        W 1546  13.798   2.799   3.220  0.0792  0.4445 -0.0145
  683W        W 1547  16.599  16.927   0.255 -0.1614  0.0234 -0.2452
  684W        W 1548  23.917  21.132  10.866  0.2636 -0.0444  0.2740
  685W        W 1549   5.080   9.241   9.228  0.2236  0.0988 -0.1765
  686W        W 1550   6.304   8.731  26.997  0.0487 -0.0962 -0.2672
  687W        W 1551   3.795   8.521   8.438  0.0169  0.2006  0.1314
  688W        W 1552   8.006  11.018  22.458 -0.2735  0.0986  0.0402
  689W        W 1553  19.507  10.197  10.509  0.0722  0.1498 -0.2458
  690W        W 1554  15.325  12.916   3.192  0.2403  0.0135  0.2859
  691W        W 1555   9.514   1.029  26.339 -0.3302 -0.0377  0.0624
  692W        W 1556  11.967  24.311   4.443 -0.0941  0.3095 -0.0794
  693W        W 1557  15.530   6.844   3.289 -0.1757  0.1643  0.3489
  694W        W 1558   0.512  24.332  23.941 -0.3433  0.1316  0.1440
  695W        W 1559   4.560  22.134   8.817  0.0719  0.0679 -0.4050
  696W        W 1560   8.298   8.412  15.722  0.3218 -0.0205  0.0939
  697W        W 1561   0.814  10.293   3.114 -0.1356 -0.3062 -0.1066
  698W        W 1562  21.603   6.736  23.015 -0.0788  0.1881  0.0050
  699W        W 1563  15.459   0.200   3.086  0.0217 -0.3480  0.1399
  700W        W 1564  25.844   3.166  26.760  0.1611 -0.0406  0.0083
  701W        W 1565  23.801  17.374  27.809 -0.3376  0.1807  0.0233
  702W        W 1566   5.355  25.294   2.383  0.1070  0.2717  0.1181
  703W        W 1567  25.434  14.260  17.822 -0.1538 -0.3988 -0.0571
  704W        W 1568   2.958   3.328  25.652  0.2813 -0.0823 -0.1173
  705W        W 1569  16.949   9.351  11.263  0.0140 -0.1506  0.0561
  706W        W 1570   3.156  15.291  22.230  0.0345 -0.4099  0.0476
  707W        W 1571  26.937  12.658   1.124  0.0607  0.1864  0.1060
  708W        W 1572  16.407   3.844   5.115 -0.1385  0.3242  0.1375
  709W        W 1573  12.362  18.421  18.600 -0.1793 -0.2005 -0.0387
  710W        W 1574  24.795  13.921   4.292 -0.1995  0.1032 -0.2940
  711W        W 1575   2.115  13.034  27.732 -0.0389  0.0927  0.3304
  712W        W 1576  11.286  10.210  16.172  0.0497  0.0841  0.0131
  713W        W 1577  22.849  28.544  24.850 -0.1608 -0.0017 -0.1607
  714W        W 1578  13.860  28.305  10.144 -0.3475 -0.6480  0.3607
  715W        W 1579  18.730  23.424   9.788 -0.1426 -0.2870 -0.1125
  716W        W 1580   1.336   1.901  26.579  0.0127  0.1219 -0.0319
  717W        W 1581  28.877  13.755  17.114  0.2739 -0.2403  0.1937
  718W        W 1582  23.659  10.617   3.685 -0.2883  0.0638 -0.1232
  719W        W 1583   7.618   5.735  12.639 -0.1213  0.0972  0.0608
  720W        W 1584  18.796   3.670  25.219  0.0797 -0.1414  0.0698
  721W        W 1585  21.107  24.327   6.948 -0.0467 -0.0025  0.2421
  722W        W 1586   3.505   2.071  26.226 -0.1804 -0.4151  0.1489
  723W        W 1587   7.084  24.727  11.437  0.5887 -0.2142  0.0253
  724W        W 1588   7.144   4.359   9.113  0.0062 -0.0209  0.2293
  725W        W 1589   6.397  24.832  13.427  0.0824 -0.1379 -0.1550
  726W        W 1590   1.276  11.881   4.479  0.0644 -0.2719  0.0570
  727W        W 1591  21.220  29.143  15.733  0.4022  0.0246 -0.1868
  728W        W 1592  20.343  11.770  27.648  0.2919 -0.1320  0.4193
  729W        W 1593  14.564  19.165   7.352  0.0343 -0.2168  0.3481
  730W        W 1594  12.788  25.380  12.066 -0.0254  0.1855  0.2272
  731W        W 1595   4.681  25.903   4.643  0.0633  0.0597  0.0658
  732W        W 1596  10.192   2.943   7.714  0.1366  0.0629  0.0887
  733W        W 1597   2.823  22.321  10.894  0.0115  0.2097  0.1297
  734W        W 1598  13.433  10.733  24.592 -0.0746 -0.1924 -0.1913
  735W        W 1599  10.626  12.168  12.010  0.1209  0.0842 -0.0339
  736W        W 1600   2.455   2.842   6.279  0.1252  0.2383 -0.2836
  737W        W 1601  26.072  21.062   7.547  0.1828 -0.0945  0.1972
  738W        W 1602  21.769  12.526  12.253  0.1368  0.2151  0.1861
  739W        W 1603   6.306  22.950  24.518 -0.2767 -0.0814 -0.0182
  740W        W 1604   1.276  20.170   0.534  0.0174  0.1841 -0.0030
  741W        W 1605  27.587  24.031  27.484 -0.0579 -0.0421 -0.1118
  742W        W 1606  10.478  23.833   5.849 -0.1228  0.0199 -0.0639
  743W        W 1607   8.930  26.045  20.120 -0.2199 -0.2956 -0.1351
  744W        W 1608  14.685   3.664  23.236  0.0012 -0.0062 -0.1922
  745W        W 1609   8.954  10.106  22.251 -0.3187  0.0503 -0.0995
  746W        W 1610  24.540   0.764   4.742 -0.3991 -0.0387 -0.0140
  747W        W 1611  23.973   8.038  25.780 -0.2087 -0.0160 -0.0796
  748W        W 1612  10.701  23.954  17.642  0.2973 -0.1299 -0.0994
  749W        W 1613  28.115  23.497   3.193  0.0604  0.0175 -0.1268
  750W        W 1614   4.853   5.762   5.888  0.1180 -0.0898 -0.0986
  751W        W 1615  21.782  28.861  17.883  0.0219 -0.0517  0.2278
  752W        W 1616   5.677  24.707   5.044  0.0305  0.1195  0.1109
  753W        W 1617   3.294  11.480  15.815  0.0561 -0.0295 -0.1508
  754W        W 1618  26.571  22.865  19.764  0.0470  0.0697  0.1737
  755W        W 1619  18.864   7.596   7.517 -0.1790  0.1843 -0.2146
  756W        W 1620  17.134  10.920   2.037  0.2559 -0.0124  0.4249
  757W        W 1621  24.800  25.088   4.891 -0.0262  0.0739 -0.2718
  758W        W 1622  11.205  16.804  11.377 -0.0631 -0.1926 -0.2220
  759W        W 1623  22.075  21.067   1.995 -0.0027 -0.2259  0.0344
  760W        W 1624  22.399  25.378   2.557  0.1204 -0.1583  0.0976
  761W        W 1625  21.647  20.887   9.780  0.0982  0.2851  0.1039
  762W        W 1626   5.272  28.632  13.331  0.0565  0.0907  0.1152
  763W        W 1627   6.386  15.254  11.012 -0.0400 -0.1116  0.2533
  764W        W 1628  14.570  22.453   2.729  0.3406 -0.0466 -0.1158
  765W        W 1629  22.097  27.731   0.808 -0.2480  0.4024 -0.0299
  766W        W 1630  22.025  28.119   9.161 -0.0106 -0.2770 -0.2887
  767W        W 1631  15.727  10.892  13.455  0.0795  0.0645  0.0010
  768W        W 1632  21.325  27.752   3.654 -0.1913  0.0628 -0.4231
  769W        W 1633  25.422   4.461   2.704  0.1186 -0.0398 -0.2368
  770W        W 1634   0.088  27.744  26.875  0.2468 -0.1974  0.0116
  771W        W 1635   6.152  13.337   9.719  0.0485  0.4308 -0.2575
  772W        W 1636  14.778  15.714  24.618 -0.3456 -0.2442 -0.1410
  773W        W 1637   6.459   7.061  15.386 -0.2565 -0.2181  0.1024
  774W        W 1638  23.774   0.919  17.364  0.1932  0.2196  0.2845
  775W        W 1639  14.106  19.040   8.847 -0.0245  0.3189  0.0510
  776W        W 1640  25.404  21.534  11.728 -0.0933  0.0423  0.4976
  777W        W 1641  21.969  13.725  29.023  0.0095  0.3482  0.2166
  778W        W 1642   8.920   4.339  13.598  0.2057 -0.3305  0.3028
  779W        W 1643   8.080  17.360  23.086  0.0591  0.1547 -0.0353
  780W        W 1644  28.024  16.050  11.979 -0.0608 -0.1025 -0.0650
  781W        W 1645   9.833  24.137  22.643 -0.2494 -0.1031 -0.0057
  782W        W 1646  27.109   2.677  24.916  0.0834  0.0595  0.5116
  783W        W 1647   3.178   0.232  23.651 -0.1819 -0.1973 -0.2360
  784W        W 1648  26.340  12.602  20.499  0.0897  0.0535 -0.0015
  785W        W 1649  16.145  24.373  14.357  0.2935 -0.2244 -0.0097
  786W        W 1650  13.248   8.287  20.793  0.0072 -0.3644  0.0323
  787W        W 1651  16.637   6.879   0.998  0.0283  0.2880 -0.0170
  788W        W 1652   7.566   9.320   7.020 -0.1710 -0.1937  0.0536
  789W        W 1653   5.185  17.336  15.842  0.3408 -0.1949 -0.0709
  790W        W 1654  25.437   4.257  22.690  0.0132  0.1237 -0.0472
  791W        W 1655  23.204  27.680   9.374 -0.1035  0.0659  0.1296
  792W        W 1656   3.596  11.246   5.606 -0.1357 -0.0038  0.2034
  793W        W 1657  17.212  10.049  21.890 -0.1174 -0.1959 -0.0224
  794W        W 1658  11.100   0.545  11.022  0.2999  0.0964  0.1153
  795W        W 1659   8.931  19.846  28.291 -0.0738 -0.2619 -0.2707
  796W        W 1660   2.495  16.587  20.235  0.1990 -0.0306 -0.2492
  797W        W 1661   1.363   6.294   5.477 -0.1956 -0.2193  0.2144
  798W        W 1662   5.634   3.526   2.039  0.0682  0.0354  0.4329
  799W        W 1663  28.918  16.948   6.340  0.0819 -0.1206  0.0387
  800W        W 1664  24.759   3.709   9.331  0.2714 -0.0189 -0.3991
  801W        W 1665  27.276  14.268  12.170 -0.1961 -0.2456  0.1620
  802W        W 1666  12.998   4.280  24.329  0.2224 -0.0268 -0.0889
  803W        W 1667   0.617  17.896   6.435  0.2359 -0.1053  0.0778
  804W        W 1668   6.957  19.865   2.915 -0.1317  0.1138  0.0586
  805W        W 1669  24.379   8.758  26.118  0.1543 -0.0380  0.0349
  806W        W 1670   2.286   6.786   7.956  0.1004 -0.0411 -0.1127
  807W        W 1671  17.957   0.805  22.036  0.2132 -0.0482 -0.0293
  808W        W 1672  16.867  23.504   1.264  0.1794 -0.1456  0.1383
  809W        W 1673   4.244  14.791  13.029 -0.0292 -0.2530 -0.0081
  810W        W 1674  10.356  16.466  10.311 -0.1697 -0.2850  0.1380
  811W        W 1675   1.897  16.452   6.692  0.1864  0.1055  0.1754
  812W        W 1676  14.519   8.872  11.845 -0.0081 -0.1331  0.2479
  813W        W 1677   3.071  13.058  24.913 -0.0334  0.2489  0.0291
  814W        W 1678   7.110   1.164  17.532  0.0703  0.0301 -0.0374
  815W        W 1679   6.608   2.430  16.108 -0.0469 -0.3808 -0.2021
  816W        W 1680  20.074  18.629   1.819 -0.1226 -0.0952  0.1916
  817W        W 1681  10.974   4.851   1.843  0.2638 -0.0960  0.2150
  818W        W 1682  24.026  15.732  18.767 -0.2461 -0.0561  0.2703
  819W        W 1683  10.000  26.058  15.469  0.0285  0.2234  0.0316
  820W        W 1684  17.465   6.232  15.527  0.0056 -0.1405 -0.3639
  821W        W 1685   0.620   2.816  26.070  0.0328  0.2379  0.1320
  822W        W 1686  21.988  26.696  21.511  0.1266 -0.2114  0.1228
  823W        W 1687   1.609  16.818   7.860  0.1924  0.1758  0.2412
  824W        W 1688  15.440   8.624   3.842  0.0862 -0.0842  0.0183
  825W        W 1689   4.429  25.190  20.384  0.2374 -0.1434 -0.0388
  826W        W 1690  10.003  21.572  23.201 -0.0611  0.0579 -0.4618
  827W        W 1691   2.629  13.933  14.716 -0.4305 -0.1851  0.1493
  828W        W 1692   1.307  18.184   6.609  0.1609 -0.1647  0.1391
  829W        W 1693   9.915   2.494  28.012  0.1830  0.3708  0.0380
  830W        W 1694   7.876  17.729  16.161  0.2568 -0.0203  0.0583
  831W        W 1695   1.397  19.692  22.281  0.4376 -0.1819  0.0011
  832W        W 1696   7.700  20.853  17.838  0.0563  0.1772  0.1779
  833W        W 1697   2.190   4.344  10.967 -0.0426  0.0152 -0.1364
  834W        W 1698  19.853  16.926  12.469 -0.1903 -0.2614 -0.4171
  835W        W 1699  12.460  21.410  11.449 -0.4406  0.0346 -0.4991
  836W        W 1700  15.181  14.856  24.846  0.3668 -0.3762  0.1124
  837W        W 1701   6.812  24.742  27.714 -0.0513  0.1858  0.1225
  838W        W 1702   4.367  21.225   0.495  0.0397  0.2718 -0.2216
  839W        W 1703  10.716  11.957  24.180 -0.0917  0.1603 -0.5576
  840W        W 1704   2.491  19.858   7.229 -0.0698 -0.0719 -0.2412
  841W        W 1705  18.778   1.374   8.150  0.0104 -0.2439  0.0251
  842W        W 1706  18.351   1.254  28.417  0.2028  0.1014 -0.4297
  843W        W 1707  24.402   5.762  25.411  0.0669  0.2562  0.4110
  844W        W 1708   8.103   9.625   4.003 -0.0667  0.3080  0.0041
  845W        W 1709  25.102   1.631   7.709  0.0236 -0.0798 -0.2869
  846W        W 1710  26.099   9.078   8.898 -0.3692  0.2772 -0.2411
  847W        W 1711  26.723  21.722  26.548  0.2387 -0.0967 -0.1574
  848W        W 1712   2.038  18.270   8.015  0.0221 -0.1025  0.1382
  849W        W 1713  16.514   4.608  19.062 -0.2744  0.1609 -0.1421
  850W        W 1714  11.958   1.922   6.753 -0.0996  0.0493  0.1893
  851W        W 1715  15.254  26.149   0.327  0.2384 -0.1167 -0.4203
  852W        W 1716   5.363  19.718  11.058  0.3798  0.4226  0.2274
  853W        W 1717   8.028   2.013  25.685 -0.0836 -0.1375  0.0372
  854W        W 1718  25.203  18.193   3.869 -0.2962 -0.1148  0.0663
  855W        W 1719   1.510   5.055  27.232 -0.2023 -0.2277  0.3296
  856W        W 1720  27.535   8.044   0.871 -0.1687 -0.1116  0.3461
  857W        W 1721  24.947  15.483  21.152  0.0280 -0.1312  0.2052
  858W        W 1722  14.069   7.172   8.962  0.1123 -0.0450 -0.0120
  859W        W 1723   1.949  19.999   6.522 -0.1913  0.1316  0.2350
  860W        W 1724  28.132   6.097  12.167  0.0163  0.1061  0.0109
  861W        W 1725  23.360  12.854   2.974  0.3045  0.1089  0.2383
  862W        W 1726  22.555  11.131  15.252  0.1237 -0.1689  0.3628
  863W        W 1727  28.967  16.046   0.005  0.2234 -0.0572  0.4069
  864W        W 1728  27.953  25.640   5.340 -0.0277 -0.1200  0.2107
  865W        W 1729  25.884   3.729   5.629 -0.3712  0.0611  0.0538
  866W        W 1730   6.676   0.299   2.270 -0.1454 -0.3103  0.1810
  867W        W 1731   8.482  10.874  19.635  0.0747 -0.0751 -0.2067
  868W        W 1732  10.196  13.240  26.761 -0.1383  0.1147 -0.2918
  869W        W 1733  28.180  23.918  10.327  0.1933 -0.2286 -0.0366
  870W        W 1734  26.557   0.007  23.487 -0.0938  0.1922 -0.2157
  871W        W 1735  25.686   8.579  20.493 -0.0060 -0.0831  0.2048
  872W        W 1736  11.726   3.545  21.582  0.2956 -0.1264  0.0057
  873W        W 1737   0.194  26.002   2.873  0.0463  0.1201 -0.0588
  874W        W 1738   1.867   6.091   8.520 -0.0694  0.1508  0.2458
  875W        W 1739   0.029   1.926  27.338  0.0796 -0.0031 -0.1607
  876W        W 1740   2.194   5.950  10.503  0.0749 -0.0289  0.1326
  877W        W 1741   7.368  11.027  12.650  0.0555  0.0564  0.0753
  878W        W 1742  24.314  19.420   0.416  0.0831  0.1088  0.0333
  879W        W 1743   8.136  18.372  22.363  0.1638  0.1071 -0.0312
  880W        W 1744  22.257  27.841  27.074  0.1879 -0.1013  0.4088
  881W        W 1745  10.379   3.701  21.961 -0.0598 -0.0128 -0.1614
  882W        W 1746  15.258   0.134  27.785 -0.1569 -0.1144  0.2105
  883W        W 1747  23.270  23.995  27.221 -0.2201  0.2137  0.3518
  884W        W 1748   2.011   1.219  16.061 -0.0337  0.1193  0.1211
  885W        W 1749  15.206   6.944   3.787  0.1506  0.0226  0.1770
  886W        W 1750   2.617  17.142   4.770 -0.4125  0.0559 -0.0428
  887W        W 1751  27.542   9.506  24.363 -0.0675 -0.1715  0.0549
  888W        W 1752   4.158   3.901  11.087  0.0600 -0.0751 -0.1181
  889W        W 1753  20.587   0.790  13.161 -0.0047  0.2996 -0.0651
  890W        W 1754  28.881  21.385   5.159 -0.4729 -0.2008  0.0096
  891W        W 1755  10.407  10.415  13.552 -0.0569  0.0472 -0.1245
  892W        W 1756  20.740  26.446  19.287 -0.3739 -0.1753 -0.1608
  893W        W 1757   7.660   7.957  22.154  0.1767  0.0038  0.2219
  894W        W 1758   2.813  12.620  25.139 -0.2365 -0.3121 -0.0648
  895W        W 1759  20.731   4.700  24.612 -0.2897 -0.0685 -0.2350
  896W        W 1760  13.812  16.831  18.631 -0.0027  0.0289  0.2080
  897W        W 1761  21.029  13.963  28.971  0.1080  0.4409  0.1035
  898W        W 1762   7.642  24.107  16.518  0.0501  0.2840  0.1569
  899W        W 1763  22.348  21.863   5.410 -0.1544 -0.0227  0.0423
  900W        W 1764  27.953  27.021  22.873  0.1966 -0.0739  0.0144
  901W        W 1765   3.928  20.920   7.459 -0.0158 -0.0783 -0.2034
  902W        W 1766  14.687  17.763   3.828  0.1100 -0.0939 -0.0817
  903W        W 1767  10.571   6.310   2.484 -0.0826 -0.0927 -0.3500
  904W        W 1768   9.563   9.858  10.332 -0.3798  0.2372  0.0096
  905W        W 1769   1.532   4.850   6.322 -0.1025 -0.1673 -0.2809
  906W        W 1770  18.218   2.264  29.044 -0.0928  0.2489 -0.1474
  907W        W 1771  25.430   2.401   1.500 -0.1987 -0.1003  0.0643
  908W        W 1772   6.812  18.823  14.814  0.2703 -0.1746 -0.0744
  909W        W 1773   9.621  21.744   6.064 -0.0574 -0.1075 -0.0339
  910W        W 1774   6.170  28.805  24.850 -0.2392  0.1936  0.2725
  911W        W 1775  27.148   3.032  17.317  0.0257  0.1432  0.1256
  912W        W 1776   4.853  23.446  13.449 -0.1916  0.0479 -0.0781
  913W        W 1777  20.336   8.102   6.646  0.1607  0.0725  0.3623
  914W        W 1778   9.188  27.080  11.968 -0.2826  0.0477  0.0805
  915W        W 1779   7.734  21.261   5.660 -0.0131  0.3266  0.0569
  916W        W 1780   7.713  25.581  19.842  0.1160  0.1372 -0.0252
  917W        W 1781  28.891  27.923   5.785 -0.1302  0.2444 -0.3688
  918W        W 1782  28.443  10.969  10.150 -0.2209  0.1541  0.1138
  919W        W 1783   4.821  26.649  25.336 -0.0751  0.1122 -0.3682
  920W        W 1784   5.667   5.536   7.258 -0.0812  0.1521 -0.1989
  921W        W 1785  24.655   2.329  14.971  0.0999  0.0698  0.4209
  922W        W 1786   4.794  18.109   4.088 -0.1060 -0.0195  0.1940
  923W        W 1787  25.204   0.852  24.562 -0.0673  0.0468  0.0157
  924W        W 1788  28.901   5.028   1.804 -0.2295 -0.2182 -0.1295
  925W        W 1789   5.642  13.000   8.976  0.0583 -0.1534 -0.0185
  926W        W 1790  14.473   1.560  17.834 -0.0853 -0.0198  0.1020
  927W        W 1791   5.006   0.425   4.569 -0.3161 -0.2207 -0.2053
  928W        W 1792   5.412  11.364   3.639 -0.2788 -0.0732  0.1493
  929W        W 1793   4.796   8.367  14.376  0.1930  0.0978 -0.0386
  930W        W 1794  26.417   7.460  16.036 -0.2981 -0.0502  0.0392
  931W        W 1795  23.230  16.743  23.495  0.0291  0.0670  0.2902
  932W        W 1796   6.228  20.297  14.720 -0.4149 -0.0094  0.0777
  933W        W 1797  28.310  20.267   7.766 -0.0609 -0.0933  0.2144
  934W        W 1798  28.812  27.765   7.071  0.2248 -0.1235  0.1385
  935W        W 1799  10.656  12.145  12.787 -0.0649  0.3009 -0.1218
  936W        W 1800  11.944  15.216   2.663  0.1351  0.3911 -0.1874
  937W        W 1801   9.208   2.105   4.838  0.0534 -0.0119  0.0380
  938W        W 1802  19.579   3.602   6.906 -0.1339 -0.2039  0.1632
  939W        W 1803  15.276  27.383  23.704 -0.0977  0.3615 -0.0074
  940W        W 1804  28.253   0.273   2.821 -0.0075  0.3833 -0.3538
  941W        W 1805  21.319  13.592   7.796 -0.1938  0.3683  0.0039
  942W        W 1806  24.214  27.814   3.239  0.2226 -0.2808  0.0008
  943W        W 1807  22.770  11.614  16.615  0.0009 -0.0888  0.0860
  944W        W 1808  28.207   6.425  17.704  0.0184 -0.2693  0.4375
  945W        W 1809   3.277  24.255  24.072 -0.3683  0.3700 -0.3211
  946W        W 1810  28.673  10.567  24.949 -0.0629 -0.2662  0.0669
  947W        W 1811  12.213   3.083  24.449  0.0660  0.4439 -0.1095
  948W        W 1812  28.988  25.158  24.023 -0.0659  0.1240  0.1464
  949W        W 1813   2.226   2.069  27.205  0.0657  0.2772 -0.0991
  950W        W 1814  10.548   4.045   4.497  0.0635  0.0982  0.1326
  951W        W 1815   1.504   0.960   1.696  0.2149 -0.0942  0.0833
  952W        W 1816  25.993  28.590  14.506 -0.0827  0.2268  0.2922
  953W        W 1817  18.563  16.783   8.910 -0.1483 -0.3052 -0.2291
  954W        W 1818   3.433  15.234   8.483  0.4332  0.0237 -0.5377
  955W        W 1819  21.179  23.466   0.215 -0.1125 -0.2256  0.2811
  956W        W 1820  20.757  21.613  20.484  0.1796  0.0576  0.4560
  957W        W 1821  22.481   5.015  26.058  0.2015  0.1803 -0.3481
  958W        W 1822  25.724  27.179  12.762 -0.0632  0.0250  0.1723
  959W        W 1823   4.299   5.522  25.788  0.0313  0.0458 -0.2654
  960W        W 1824  22.520  26.682  14.622 -0.1174  0.2239 -0.0660
  961W        W 1825  20.754   8.086  23.761  0.3098  0.0819 -0.0105
  962W        W 1826   7.277  26.895  13.796  0.0767 -0.3335  0.3383
  963W        W 1827  16.316   1.921  15.959 -0.1171 -0.3151 -0.1287
  964W        W 1828   4.146  13.559   6.314 -0.2290  0.1616 -0.0299
  965W        W 1829   0.028   7.791  19.724 -0.3132  0.1859  0.2072
  966W        W 1830  22.973  10.244   2.041 -0.1061  0.1404 -0.2454
  967W        W 1831   0.932  16.035   2.678  0.1044  0.0759 -0.2743
  968W        W 1832  25.396   4.935  22.548  0.1023 -0.2294  0.1137
  969W        W 1833   7.191  28.404  15.505 -0.0931  0.0279  0.2332
  970W        W 1834   8.404  23.359  13.788  0.0908  0.1823  0.0302
  971W        W 1835   7.090   1.089   2.756 -0.0041  0.0298 -0.2782
  972W        W 1836   0.881  26.306   7.396  0.0898 -0.2392  0.0370
  973W        W 1837   1.699   5.722  23.616 -0.2449 -0.0512  0.0700
  974W        W 1838  23.231   1.412  19.027  0.2019  0.2411  0.1818
  975W        W 1839  17.555  16.788  28.470 -0.0783  0.0644 -0.1292
  976W        W 1840   1.731  23.182  25.197 -0.0601  0.1603  0.1154
  977W        W 1841   4.875   7.339  11.503 -0.0734  0.1328  0.2416
  978W        W 1842   0.317   3.312   7.587  0.2746 -0.1289 -0.0200
  979W        W 1843   1.327  25.547  23.862  0.2871  0.3009  0.1624
  980W        W 1844  23.055  10.093  25.352  0.0431 -0.0685  0.3289
  981W        W 1845   4.429   0.418   3.570  0.4223 -0.2296 -0.1433
  982W        W 1846   6.497   6.802   6.186 -0.2360 -0.0103 -0.3535
  983W        W 1847  19.625   1.626  29.001  0.0046  0.0506 -0.0210
  984W        W 1848  20.061  28.987   1.253  0.1524  0.0984  0.0586
  985W        W 1849  26.061  26.332   0.814 -0.1506  0.1929  0.2177
  986W        W 1850   0.411   0.151  24.744 -0.0745  0.1783  0.0472
  987W        W 1851  17.069   9.537  22.877  0.1547 -0.0812  0.0789
  988W        W 1852   2.134  12.791  18.519  0.0660  0.1929  0.2429
  989W        W 1853  11.584  20.165  11.832 -0.3331 -0.1459  0.3159
  990W        W 1854  18.660  15.081  22.404  0.1263  0.1633 -0.1295
  991W        W 1855  26.368   6.660  12.310 -0.2127  0.4304  0.1338
  992W        W 1856   2.221  19.907  19.172  0.2429 -0.0164  0.1675
  993W        W 1857  12.846  15.622   8.847 -0.0439  0.1392  0.1207
  994W        W 1858   4.417  14.545  11.351  0.1574  0.0703  0.1143
  995W        W 1859  15.840  25.562  12.254 -0.2791  0.2605  0.0304
  996W        W 1860  15.523   4.372   9.264  0.0699  0.1742 -0.0221
  997W        W 1861  21.055   3.573   2.859 -0.1037 -0.0069  0.1868
  998W        W 1862   4.291  21.833  21.701  0.0134 -0.0305 -0.1604
  999W        W 1863   2.095   7.137  10.933 -0.0609  0.1790 -0.1281
 1000W        W 1864  27.793  22.422  23.064  0.3321  0.0463  0.0332
 1001W        W 1865  20.792  22.288   6.070  0.1711 -0.0250 -0.2152
 1002W        W 1866  28.214  10.218   7.725  0.1071  0.3294 -0.0135
 1003W        W 1867  27.631  10.684   4.083 -0.0429 -0.1441  0.1433
 1004W        W 1868   8.137  23.105  10.994 -0.1032 -0.0948  0.4982
 1005W        W 1869  11.971  10.247  28.014 -0.0081 -0.3784  0.0719
 1006W        W 1870  26.570  11.282  24.340 -0.2227 -0.0178 -0.0674
 1007W        W 1871  12.163   8.943   4.078  0.0258 -0.2016 -0.2204
 1008W        W 1872  20.638  12.601  26.934  0.1816 -0.0288  0.0857
 1009W        W 1873  12.488  26.691   4.458  0.0372 -0.0846  0.3175
 1010W        W 1874   7.989   0.384  23.956 -0.2065 -0.0914 -0.1581
 1011W        W 1875  22.719  26.560  28.126 -0.1493 -0.1098 -0.2987
 1012W        W 1876  22.338  10.848   9.695 -0.1670  0.0117  0.1541
 1013W        W 1877   7.599  21.609  17.303 -0.0381 -0.1176  0.1067
 1014W        W 1878  28.716  21.164  20.224  0.0627  0.2230 -0.1608
 1015W        W 1879   0.383  14.734  24.403  0.1671  0.0983 -0.2012
 1016W        W 1880  16.864  21.669  17.229  0.1213 -0.0691  0.0796
 1017W        W 1881  25.644   2.203   4.729  0.0804 -0.0479  0.0782
 1018W        W 1882  28.335   3.032   3.005  0.0013  0.0781  0.0176
 1019W        W 1883  13.705  17.943  14.268  0.1533  0.2851  0.2130
 1020W        W 1884  10.435   9.344   8.352 -0.0047  0.1905 -0.2520
 1021W        W 1885   3.540   4.949  23.360  0.1352 -0.0769  0.2915
 1022W        W 1886  14.734  14.084   6.497 -0.2490  0.2434  0.0242
 1023W        W 1887   1.868  20.767  12.750  0.1957  0.2051 -0.0647
 1024W        W 1888  25.668  23.254  13.538 -0.1086 -0.1150 -0.1850
 1025W        W 1889  18.487  28.603  18.046  0.1554 -0.1235  0.0178
 1026W        W 1890   8.692  14.072  14.538 -0.1512 -0.2413 -0.2236
 1027W        W 1891   5.227   0.613  21.427 -0.2154  0.2294  0.2226
 1028W        W 1892  21.347   5.517  21.577  0.0630  0.1859  0.1415
 1029W        W 1893   6.131   5.369  16.388  0.0707  0.2518 -0.2405
 1030W        W 1894   9.572  14.552  25.740  0.2691 -0.0079 -0.3709
 1031W        W 1895  22.439   4.220   9.322  0.3165 -0.0007 -0.1086
 1032W        W 1896  12.617   5.112  12.468 -0.2368 -0.0593  0.0038
 1033W        W 1897  15.875  16.103  11.779  0.0326 -0.3180  0.0170
 1034W        W 1898   3.487  25.756   7.659  0.1377  0.2550 -0.1308
 1035W        W 1899   1.028   3.606   2.555  0.3603  0.0557  0.1648
 1036W        W 1900   2.807  24.453  12.431 -0.2449  0.0213  0.0865
 1037W        W 1901   2.750  20.109   5.196 -0.1811 -0.3524  0.1990
 1038W        W 1902  19.029   3.228  28.573  0.0639 -0.0078  0.2018
 1039W        W 1903   2.939  27.612  13.144 -0.0275  0.0098 -0.0046
 1040W        W 1904  10.944  24.620  15.537  0.0594 -0.1738  0.1551
 1041W        W 1905  25.297  11.240   5.591  0.0230 -0.0416 -0.1788
 1042W        W 1906   4.897  21.073  22.518  0.2486 -0.0543 -0.2595
 1043W        W 1907  12.521   3.512   9.249  0.3177  0.0676  0.1538
 1044W        W 1908   5.742  11.440   8.734 -0.1635  0.1295 -0.0286
 1045W        W 1909  23.209  17.361   8.460  0.0145  0.3329 -0.1803
 1046W        W 1910   3.713   4.724  26.462 -0.3987  0.0895  0.1191
 1047W        W 1911  13.111   6.426   5.385 -0.2712  0.0672 -0.0166
 1048W        W 1912   3.962   6.960  20.058  0.0639  0.0406 -0.2619
 1049W        W 1913   4.237   6.490   8.929  0.0010 -0.2472  0.2524
 1050W        W 1914  21.560  18.352   7.624  0.0485  0.0607 -0.0910
 1051W        W 1915  26.756  15.478   2.846 -0.0199  0.3771  0.0132
 1052W        W 1916  16.483  19.174   0.463 -0.0922  0.3013  0.1036
 1053W        W 1917   2.749   8.816  19.293 -0.1323  0.3325 -0.2236
 1054W        W 1918  23.814  21.254   9.652  0.4093  0.0426  0.2614
 1055W        W 1919   6.146  15.910   8.437 -0.1149  0.1914  0.2641
 1056W        W 1920   0.782   7.904   7.365  0.3401 -0.0437  0.0774
 1057W        W 1921  22.715  19.149  26.654  0.0413 -0.5682 -0.0262
 1058W        W 1922   5.560  24.895  26.247 -0.1668  0.1415 -0.1462
 1059W        W 1923  28.748  22.780   2.216  0.1774  0.0030  0.0904
 1060W        W 1924   2.351  21.286   2.726 -0.1191  0.3395 -0.3126
 1061W        W 1925   1.927  11.584  21.837  0.1750 -0.0470 -0.0579
 1062W        W 1926  13.286   7.939  16.938 -0.1367  0.0638  0.2859
 1063W        W 1927  27.397  20.776  16.657  0.3323 -0.1280  0.1563
 1064W        W 1928   8.156  13.178  26.492 -0.0329 -0.2816  0.0080
 1065W        W 1929   0.628   7.727  14.124 -0.1115 -0.1055  0.1870
 1066W        W 1930  20.647  28.341  12.492 -0.1505 -0.0005  0.1184
 1067W        W 1931  22.735  16.332  28.671 -0.2066  0.1250 -0.0944
 1068W        W 1932  28.938  23.185  18.468  0.1067  0.0686 -0.2332
 1069W        W 1933  26.189   2.456   5.479 -0.2411 -0.0180 -0.2180
 1070W        W 1934  13.805  12.000  21.735  0.1177 -0.0161  0.1664
 1071W        W 1935  24.613  25.651   6.177 -0.1661  0.1778 -0.0777
 1072W        W 1936   0.512  21.897  11.569  0.0897  0.0223 -0.0492
 1073W        W 1937  12.417  13.287  18.212  0.0692  0.1359  0.0982
 1074W        W 1938  27.659  14.666  12.781  0.0675 -0.1042 -0.0510
 1075W        W 1939  10.436  23.397   8.223 -0.0878 -0.1631 -0.1955
 1076W        W 1940   8.491  26.529   0.003  0.1750  0.0390  0.0016
 1077W        W 1941  13.425  16.416   4.649 -0.3037  0.3124 -0.0813
 1078W        W 1942  25.612  23.043   1.550 -0.0902 -0.1487  0.3055
 1079W        W 1943   8.542   8.718  14.263  0.2015  0.2546  0.2097
 1080W        W 1944   0.354  18.132  27.166 -0.2363 -0.1453 -0.2053
 1081W        W 1945  22.012   7.718  10.015 -0.0916 -0.2165 -0.0942
 1082W        W 1946   7.723  13.220   4.133  0.1658  0.0290  0.5975
 1083W        W 1947  28.910   9.597   4.844 -0.1255 -0.0768 -0.0713
 1084W        W 1948  25.347  22.797  23.745  0.1457  0.1363 -0.0624
 1085W        W 1949   7.825  25.843   9.610  0.0122 -0.2331  0.0585
 1086W        W 1950   9.962  25.210  21.942 -0.1936 -0.0589 -0.1606
 1087W        W 1951   5.575  27.216  12.508  0.3392  0.0144  0.0921
 1088W        W 1952  20.284   2.176  25.608 -0.0979  0.0712 -0.0210
 1089W        W 1953  21.554  27.677  10.393  0.0685  0.0031  0.2197
 1090W        W 1954  22.109  25.749   2.436 -0.4009 -0.1633 -0.2003
 1091W        W 1955   5.326  23.161  29.010 -0.1103  0.1371  0.0940
 1092W        W 1956  13.261   6.167  16.686  0.0596 -0.0390 -0.2967
 1093W        W 1957   0.828  11.833  15.393 -0.1558  0.0166 -0.0959
 1094W        W 1958  10.439   5.957  23.051 -0.1269  0.2324 -0.0827
 1095W        W 1959   4.910   3.651  23.469  0.0941 -0.0326 -0.0299
 1096W        W 1960  12.669   0.297  13.912  0.0765 -0.1069 -0.0841
 1097W        W 1961   7.700  17.097  26.997  0.0268 -0.1875  0.1031
 1098W        W 1962   7.915  12.871  13.995 -0.0133 -0.0712 -0.0883
 1099W        W 1963  18.196  27.145  18.039  0.0541 -0.0090  0.1445
 1100W        W 1964   1.394  23.976  10.272 -0.1043 -0.0533 -0.0612
 1101W        W 1965  27.974   2.910  24.891  0.0493 -0.0188  0.0267
 1102W        W 1966  11.440  10.149  24.866  0.1867  0.3060  0.2390
 1103W        W 1967  16.673  13.586  19.651 -0.4015 -0.0619 -0.0691
 1104W        W 1968  27.151   4.771   7.367 -0.0170  0.1582  0.0745
 1105W        W 1969  21.856   5.559  28.377 -0.0419  0.2701 -0.0148
 1106W        W 1970   7.714  27.538  15.575  0.0928  0.3964  0.3598
 1107W        W 1971   2.972  21.778  13.324  0.1343 -0.2063 -0.1738
 1108W        W 1972  12.009  26.145   4.878 -0.1728  0.3053 -0.1166
 1109W        W 1973   9.460  26.328  27.385 -0.2996 -0.0089  0.0225
 1110W        W 1974  11.917  14.535  13.116  0.1652  0.0122 -0.0414
 1111W        W 1975  22.920  21.705   2.385 -0.1891 -0.4235 -0.0052
 1112W        W 1976   2.624  25.267  27.833 -0.1493 -0.0016  0.2326
 1113W        W 1977  24.923  14.200   1.203 -0.2949 -0.0383 -0.1779
 1114W        W 1978  15.699   2.152  12.041 -0.1042  0.0382 -0.0598
 1115W        W 1979   0.777  25.578  18.118  0.0063 -0.3582  0.1996
 1116W        W 1980   7.709  21.601  27.603  0.1144  0.0800  0.1269
 1117W        W 1981   0.044  25.354   9.034  0.0047 -0.1195 -0.1749
 1118W        W 1982   8.323  27.331  23.272  0.1265 -0.0523 -0.1894
 1119W        W 1983  25.435  13.992  26.466  0.1981  0.0038 -0.2637
 1120W        W 1984   7.388  25.980  18.578  0.1328 -0.0680  0.1839
 1121W        W 1985  21.370   2.994  18.939 -0.2336  0.2276  0.1093
 1122W        W 1986   4.384  26.104   1.298 -0.1240 -0.3911  0.2979
 1123W        W 1987  25.375   7.661  19.536 -0.0409 -0.0146  0.1435
 1124W        W 1988   5.875   1.497  28.111 -0.1623 -0.2026  0.2777
 1125W        W 1989  20.018  11.033  27.494  0.0764  0.0634 -0.1413
 1126W        W 1990   4.257   2.269  21.012  0.0613 -0.1822  0.0996
 1127W        W 1991   7.715  28.567  11.723 -0.1028  0.3582 -0.1329
 1128W        W 1992  25.862   1.016   6.801  0.0207 -0.1067  0.2755
 1129W        W 1993  26.585   4.372   7.021 -0.1275 -0.1006  0.3258
 1130W        W 1994  20.523  16.843   1.191 -0.1313 -0.3653  0.0855
 1131W        W 1995  14.452  11.458   9.676  0.0567  0.0695 -0.1034
 1132W        W 1996  20.651  12.128  26.728  0.0163 -0.0512  0.1147
 1133W        W 1997  23.278   5.457   1.799 -0.2490  0.0868 -0.0517
 1134W        W 1998  20.867  15.504  11.615 -0.2955  0.1668 -0.0120
 1135W        W 1999  27.153  17.094   8.085 -0.1189  0.0202 -0.2504
 1136W        W 2000  28.873  14.438   1.393  0.2793  0.1006 -0.2382
 1137W        W 2001   1.054  18.465   4.792  0.0239 -0.2254 -0.1853
 1138W        W 2002  16.558  13.156  26.681 -0.2185 -0.0181  0.0604
 1139W        W 2003   0.431  20.215  26.024 -0.1920  0.1142  0.1392
 1140W        W 2004  19.101   9.698   4.205  0.2374 -0.0548  0.0470
 1141W        W 2005  20.762  21.151  11.801 -0.0337 -0.2787 -0.0039
 1142W        W 2006  26.116  13.788  10.160 -0.0399 -0.1069 -0.0869
 1143W        W 2007   7.429  17.725   3.663  0.2971 -0.2277 -0.0852
 1144W        W 2008  25.910   1.548  25.610  0.4780 -0.1206  0.0262
 1145W        W 2009   9.366   1.386  15.553  0.0010  0.0728  0.1502
 1146W        W 2010   7.772   6.303  24.589 -0.0777 -0.2125  0.0457
 1147W        W 2011  19.392   0.725   0.084  0.0011  0.1824 -0.0121
 1148W        W 2012  12.072   8.897  22.054  0.3667 -0.3759  0.1471
 1149W        W 2013  11.907  27.037   3.647 -0.2345 -0.1555 -0.1549
 1150W        W 2014  11.172  17.715  17.803  0.0667 -0.3336 -0.2387
 1151W        W 2015   2.362  15.107  11.547  0.0577  0.1780 -0.1265
 1152W        W 2016  14.223   7.071  12.529  0.3448  0.1673  0.1097
 1153W        W 2017  24.571  25.698  15.166 -0.3503 -0.2314 -0.2885
 1154W        W 2018   2.782  17.809   6.196 -0.2400  0.0212 -0.1641
 1155W        W 2019   7.902  15.621   4.384 -0.0069 -0.1672 -0.2544
 1156W        W 2020  11.957  10.761  19.282 -0.0911 -0.0602 -0.0312
 1157W        W 2021  28.867  27.732  19.537 -0.1609  0.0467 -0.1019
 1158W        W 2022  17.884   7.881  15.067 -0.2257 -0.0548  0.0048
 1159W        W 2023  21.851  10.997  28.791  0.2729 -0.0389  0.1297
 1160W        W 2024  26.349  11.765  24.156  0.1001 -0.0140 -0.0871
 1161W        W 2025   1.478   0.665  28.896 -0.5773  0.0655  0.1017
 1162W        W 2026  15.001  15.327  12.513 -0.0613  0.0765 -0.0766
 1163W        W 2027   3.413   2.119  24.502 -0.2639  0.3458 -0.0056
 1164W        W 2028  26.205  12.343   4.152  0.1137 -0.3328  0.0507
 1165W        W 2029  12.806  19.781  25.247  0.3975 -0.2321 -0.1185
 1166W        W 2030  28.554  23.813   9.086  0.0202 -0.0936  0.0320
 1167W        W 2031   8.033  16.873  26.636 -0.0067  0.0936  0.2804
 1168W        W 2032   9.046  28.680  13.051  0.0089  0.0502 -0.1023
 1169W        W 2033  13.948   4.405  28.525 -0.0218  0.0399  0.0158
 1170W        W 2034  20.289   6.369  26.145  0.2692 -0.0189 -0.0419
 1171W        W 2035  27.086   9.528   9.253 -0.2136  0.3324 -0.1751
 1172W        W 2036   1.038   1.447  26.538 -0.1125  0.0455 -0.2734
 1173W        W 2037  26.501  15.877  25.725  0.0354  0.0040 -0.0577
 1174W        W 2038  11.074  28.713  10.375  0.2444 -0.2949 -0.0701
 1175W        W 2039  26.459   1.587   3.241  0.0056  0.0317 -0.0845
 1176W        W 2040  28.078  27.192   6.385  0.0912 -0.0173 -0.1995
 1177W        W 2041   2.768   4.630  12.541 -0.2562  0.0523 -0.0461
 1178W        W 2042   2.318  26.168  19.634 -0.0676  0.0056 -0.2614
 1179W        W 2043   5.300  19.819   0.136  0.0421  0.1084 -0.1458
 1180W        W 2044  21.031   7.704  22.298 -0.4019  0.0617 -0.0436
 1181W        W 2045   4.818  14.055  16.310 -0.1446 -0.0280 -0.1502
 1182W        W 2046   2.855  19.300  10.848  0.1033  0.0716  0.1002
 1183W        W 2047   1.942  17.572  25.234 -0.2602  0.1281 -0.1706
 1184W        W 2048  28.473   8.060  20.098 -0.0341 -0.1883 -0.1613
 1185W        W 2049  18.395   2.195  14.320 -0.0154  0.0897  0.1820
 1186W        W 2050  28.989  12.640   9.580  0.0981  0.3410 -0.0887
 1187W        W 2051   1.361  26.436  19.516  0.0720  0.1159 -0.0736
 1188W        W 2052   6.723   2.299  17.661  0.1126  0.0099 -0.0076
 1189W        W 2053   7.473  25.870  10.137  0.0277 -0.1293  0.0207
 1190W        W 2054  15.047  16.295  17.468  0.1712 -0.1220  0.0012
 1191W        W 2055   9.074   7.587   8.821 -0.0341 -0.2402 -0.1050
 1192W        W 2056   6.423   3.411   2.692  0.3366  0.1274 -0.3301
 1193W        W 2057   0.949  16.740  19.503  0.2013 -0.0407 -0.0330
 1194W        W 2058  11.589  22.536   6.727 -0.2365 -0.0869  0.2857
 1195W        W 2059   2.552  28.124   7.447  0.0829 -0.2750 -0.1717
 1196W        W 2060  25.613  12.850   8.882 -0.4390  0.3472  0.2584
 1197W        W 2061  22.896  15.912  23.586 -0.2869 -0.3171 -0.2527
 1198W        W 2062  17.880  28.632  15.265 -0.0918 -0.0609 -0.0522
 1199W        W 2063  13.041  11.378  20.454  0.0220  0.1442 -0.1146
 1200W        W 2064  19.423  23.452  14.613 -0.0686  0.1329  0.2448
 1201W        W 2065  21.565  26.498  15.455 -0.2401  0.1721  0.0199
 1202W        W 2066   9.580   0.256  19.086  0.0676 -0.0208  0.1502
 1203W        W 2067  16.744   4.254  13.754  0.0030 -0.1252 -0.0469
 1204W        W 2068  10.094   1.788   0.422  0.1043  0.0975 -0.0152
 1205W        W 2069  17.833  12.412   6.349 -0.1764 -0.1955  0.1156
 1206W        W 2070  25.229   9.629  19.266  0.0102 -0.0107 -0.2365
 1207W        W 2071   2.084  26.155  17.566 -0.3872  0.0448  0.1113
 1208W        W 2072   0.271   1.289  16.335 -0.0419  0.0306 -0.1121
 1209W        W 2073  27.116  21.975  20.653 -0.2910 -0.0448 -0.0651
 1210W        W 2074   9.228  26.903   5.830  0.1159  0.0428  0.0792
 1211W        W 2075   2.255   7.857  23.197  0.0268  0.2334 -0.0516
 1212W        W 2076   3.960  17.140   5.508  0.1156  0.1296 -0.1489
 1213W        W 2077   9.047   7.704   8.285  0.0892 -0.3533  0.2267
 1214W        W 2078  15.631   1.399   4.447 -0.1986  0.0768 -0.1422
 1215W        W 2079   9.439  15.193  15.182 -0.1408 -0.0966 -0.1162
 1216W        W 2080   5.544   2.673   1.359 -0.0035  0.2874 -0.0369
 1217W        W 2081   4.975  14.541   5.699  0.3405  0.1546 -0.0785
 1218W        W 2082  22.411  24.328   8.578 -0.1988 -0.1686 -0.0244
 1219W        W 2083  24.644  21.927  26.738  0.0178  0.0007 -0.1268
 1220W        W 2084   0.107  11.907  10.438 -0.2391 -0.1636 -0.3521
 1221W        W 2085  19.232   0.086   4.252  0.1196  0.3397  0.0746
 1222W        W 2086   0.298   2.195  10.884 -0.0860  0.0725  0.1651
 1223W        W 2087  16.996   2.659   8.505  0.1514  0.0715 -0.0052
 1224W        W 2088   3.473  19.489  12.437  0.2410 -0.1183  0.0259
 1225W        W 2089  23.924  12.432  28.699  0.2300 -0.1437 -0.4421
 1226W        W 2090  12.480   1.098  28.057 -0.1375 -0.1326 -0.1796
 1227W        W 2091   3.393  20.128   8.844 -0.1231  0.0757  0.0948
 1228W        W 2092  21.674  10.426  16.343 -0.2427  0.0009 -0.1647
 1229W        W 2093  10.321   1.652  13.485  0.2137  0.4102 -0.1263
 1230W        W 2094   8.524   2.272   2.547  0.0223  0.0145 -0.1493
 1231W        W 2095  20.718  22.446   6.499  0.0436  0.1164  0.0408
 1232W        W 2096  15.508  18.329   7.726 -0.2287  0.0134  0.2964
 1233W        W 2097   9.073  28.251  21.784  0.1877 -0.0666  0.1753
 1234W        W 2098   4.764   0.869  16.706 -0.2014  0.0893 -0.0250
 1235W        W 2099   3.940  13.146  17.012 -0.2046 -0.1812 -0.1087
 1236W        W 2100  25.731  27.280  18.208 -0.1155  0.1088 -0.0461
 1237W        W 2101   4.243   4.937  10.784 -0.1378 -0.1107  0.3285
 1238W        W 2102  11.442  28.948  27.442  0.2106  0.0190 -0.1413
 1239W        W 2103  18.995   8.165  18.660 -0.0941 -0.3193 -0.4265
 1240W        W 2104  15.125  13.010   6.530 -0.0236  0.0561 -0.0458
 1241W        W 2105   7.053   7.966  10.718 -0.0042 -0.0474  0.4300
 1242W        W 2106   1.314   9.933  27.473  0.1103  0.0950 -0.1170
 1243W        W 2107  11.503  26.960   7.442  0.1002  0.0410  0.0257
 1244W        W 2108  13.352   6.653  16.303 -0.1886 -0.2199 -0.0343
 1245W        W 2109   5.102   4.665  18.780 -0.0568 -0.0484  0.3023
 1246W        W 2110  25.990   2.953  19.760  0.1680  0.1139  0.1178
 1247W        W 2111  15.893   1.345  11.345 -0.0273 -0.0039  0.0426
 1248W        W 2112   0.145   9.623   1.755 -0.0904  0.0590 -0.0480
 1249W        W 2113   6.406   4.702   3.783  0.1341 -0.1012 -0.0213
 1250W        W 2114   3.837  22.401  15.416  0.0855  0.0698  0.0715
 1251W        W 2115  20.996  29.110  15.144  0.0702  0.3671  0.2592
 1252W        W 2116  11.410  14.066   7.350  0.2541 -0.0039  0.0558
 1253W        W 2117  26.125   4.270  24.598  0.0321  0.0629 -0.2306
 1254W        W 2118   2.506  28.467  20.280 -0.1142 -0.1580 -0.2018
 1255W        W 2119   4.139   9.659  17.907 -0.0473  0.0525 -0.2302
 1256W        W 2120  23.326  13.651  14.756 -0.0247  0.1427  0.0645
 1257W        W 2121  15.487   4.297  18.248 -0.2318  0.2435 -0.0850
 1258W        W 2122   8.841  17.736  14.280  0.1149 -0.2398  0.0038
 1259W        W 2123   5.034  24.940  27.913 -0.2300 -0.2226 -0.0364
 1260W        W 2124  26.025  16.986  14.561  0.1065  0.1053 -0.1559
 1261W        W 2125  27.249   6.835  12.156 -0.2645 -0.1452 -0.0541
 1262W        W 2126  13.986  21.342  17.218 -0.2272  0.1166  0.1861
 1263W        W 2127   7.844  23.144   8.977  0.0123  0.1999  0.0444
 1264W        W 2128  18.336  14.865  24.452  0.0448  0.2000  0.0185
 1265W        W 2129  13.101   6.613   4.136  0.1744 -0.0205 -0.0222
 1266W        W 2130   1.782  28.854  25.794 -0.0922 -0.2762  0.0205
 1267W        W 2131  25.096  16.858  11.568 -0.2370  0.1338 -0.3328
 1268W        W 2132   3.571   3.697   0.388 -0.3480 -0.1439 -0.3458
 1269W        W 2133  23.196  26.305  15.199 -0.1609 -0.0463 -0.1584
 1270W        W 2134   0.731   3.357   9.480  0.1781  0.0957 -0.4951
 1271W        W 2135  28.652   3.764  22.022  0.1876  0.0892 -0.1311
 1272W        W 2136  10.447  16.883   2.626 -0.0624 -0.2361 -0.0165
 1273W        W 2137  23.712   7.359   6.995  0.0070  0.0290  0.1579
 1274W        W 2138   1.504   3.516   6.580  0.0623  0.0957 -0.0199
 1275W        W 2139   6.585  22.449   7.257  0.1030  0.0502 -0.1729
 1276W        W 2140  12.811   3.887  25.921 -0.1706  0.2155  0.0219
 1277W        W 2141  25.126  22.791   5.820 -0.0394 -0.5075  0.1902
 1278W        W 2142  10.973   7.649  28.402  0.0973  0.0473 -0.1606
 1279W        W 2143   6.906   4.761   8.430 -0.0006 -0.1296 -0.1341
 1280W        W 2144  13.399   0.362   0.785 -0.2099 -0.0674 -0.0080
 1281W        W 2145  10.646   8.567   9.815  0.0736  0.0353 -0.1306
 1282W        W 2146   3.651   9.629   2.805  0.2661 -0.0213 -0.2648
 1283W        W 2147   4.581  23.744  18.888 -0.4943 -0.0266 -0.0752
 1284W        W 2148  23.576  12.144   9.633 -0.2973 -0.1565 -0.2490
 1285W        W 2149   5.075   8.628  13.090  0.1282  0.0494 -0.1856
 1286W        W 2150  20.081  22.187  13.634  0.0311  0.0953  0.3562
 1287W        W 2151  26.975  10.631   6.890 -0.1389  0.0693  0.2918
 1288W        W 2152   4.588  16.935  27.714  0.1258 -0.0820 -0.3288
 1289W        W 2153   6.196  27.153  11.569  0.0261  0.0511 -0.2643
 1290W        W 2154  25.127  24.482  12.072  0.1760  0.1103 -0.0827
 1291W        W 2155  11.130  10.215  10.852  0.0133 -0.0802 -0.1413
 1292W        W 2156   6.018   5.403  12.751  0.1632 -0.1766  0.0163
 1293W        W 2157  24.718  23.140   5.924  0.0827 -0.0866 -0.0110
 1294W        W 2158   4.554  14.967  17.103 -0.0329 -0.0875 -0.0885
 1295W        W 2159  19.985   7.279  12.960  0.1049 -0.1946 -0.4040
 1296W        W 2160  15.730   5.741  10.466  0.2286  0.2189  0.2496
 1297W        W 2161   9.014  29.064  16.000  0.0216  0.1709  0.0674
 1298W        W 2162  12.327  23.087   2.473  0.0452 -0.1030  0.0188
 1299W        W 2163  14.528   8.618  15.204  0.2132  0.3806  0.0122
 1300W        W 2164   8.957   3.556  23.200 -0.1997  0.0228  0.6390
 1301W        W 2165   1.507  26.163  19.989 -0.0973 -0.0606  0.0715
 1302W        W 2166  28.032  19.622  24.256 -0.1666  0.1729  0.2141
 1303W        W 2167  27.685   9.962  20.689 -0.3081 -0.1392  0.1640
 1304W        W 2168  29.028  21.541  20.134 -0.1066 -0.1314  0.0346
 1305W        W 2169  17.857  27.752  10.537 -0.3747  0.2990 -0.0497
 1306W        W 2170  25.074  19.934   3.981  0.0336 -0.1191 -0.1097
 1307W        W 2171  28.927  19.148   3.369  0.0233  0.0768 -0.0338
 1308W        W 2172   1.106  10.089  14.952  0.2338  0.0979 -0.5937
 1309W        W 2173  24.252   1.472  12.230 -0.1137 -0.6090  0.0159
 1310W        W 2174  26.938   6.534  27.655 -0.0178  0.0246 -0.2731
 1311W        W 2175  15.150  22.177  24.854  0.2188  0.1254 -0.1340
 1312W        W 2176  16.039  22.295   6.173 -0.1865 -0.1489  0.0322
 1313W        W 2177  11.551  16.571  25.435  0.0983 -0.0241 -0.1591
 1314W        W 2178  24.370  13.287   1.878  0.2460 -0.2997  0.1899
 1315W        W 2179   4.644   6.890  27.263  0.0212  0.1998  0.4060
 1316W        W 2180  27.805   0.031   8.971  0.1567  0.1300 -0.0418
 1317W        W 2181   2.686  11.200   1.867 -0.4876  0.0810  0.2131
 1318W        W 2182  10.871  28.959   7.680 -0.1145 -0.1281  0.0703
 1319W        W 2183   0.410  12.100   5.302 -0.0542 -0.0193  0.3729
 1320W        W 2184  25.811   2.264  23.119 -0.1168  0.0075  0.0925
 1321W        W 2185  28.193   6.579  27.373  0.0260  0.0191 -0.2834
 1322W        W 2186  17.509  10.486  25.049 -0.0735 -0.0738 -0.1935
 1323W        W 2187  14.823  10.779  28.260  0.0074  0.1354 -0.0351
 1324W        W 2188  21.693   2.143  14.129  0.5652 -0.2136  0.3228
 1325W        W 2189   0.333  26.691   8.766  0.0125 -0.0645 -0.0492
 1326W        W 2190  20.514   7.177  26.117  0.0577 -0.1630 -0.4172
 1327W        W 2191  11.415   9.658  26.484  0.1211 -0.0646 -0.2116
 1328W        W 2192  23.123  25.318   7.381 -0.0953  0.1254 -0.0477
 1329W        W 2193   6.620  11.491  19.264 -0.0942 -0.0777  0.2741
 1330W        W 2194  16.662  28.176  27.204  0.1700  0.2464  0.3082
 1331W        W 2195  21.525  28.182  16.005  0.2448  0.2074  0.0983
 1332W        W 2196  18.261   4.870   7.645  0.1771 -0.0346 -0.1401
 1333W        W 2197   4.163  12.896  12.642 -0.2362 -0.3139 -0.0981
 1334W        W 2198  10.673  22.897  23.077 -0.1142  0.3546 -0.2213
 1335W        W 2199  13.821   9.693  17.872  0.1225 -0.2246  0.0054
 1336W        W 2200  28.047  21.560   3.300  0.0713  0.2321 -0.1525
 1337W        W 2201  27.406   4.678  15.766 -0.0281 -0.1178 -0.1854
 1338W        W 2202   6.306  27.839  26.183  0.0488 -0.0326 -0.1088
 1339W        W 2203  25.730  16.438  25.454 -0.0682 -0.1356 -0.0992
 1340W        W 2204   8.600   3.636  21.843 -0.0045  0.0945  0.0280
 1341W        W 2205   9.718  14.741   7.884  0.2302 -0.0761  0.0277
 1342W        W 2206  29.132   8.826   8.579 -0.0704 -0.0968 -0.3049
 1343W        W 2207   0.860   2.864  18.650  0.1387  0.1295 -0.1676
 1344W        W 2208   7.830  27.813   4.082 -0.0833 -0.2435  0.0197
 1345W        W 2209  15.354  26.384  14.561 -0.1700  0.0805  0.0292
 1346W        W 2210  23.405   4.363  23.262 -0.0235  0.0998 -0.1949
 1347W        W 2211   7.475  12.026  14.096  0.0820 -0.0233 -0.0505
 1348W        W 2212   2.817   7.122  27.860  0.1943 -0.0856  0.1674
 1349W        W 2213  24.442   4.962   7.483  0.0635 -0.2556  0.0739
 1350W        W 2214   1.581   5.856  18.601 -0.0447  0.2529  0.1308
 1351W        W 2215  24.808   4.032  23.293 -0.0496 -0.1006 -0.2931
 1352W        W 2216  26.005  24.932  23.511 -0.1829 -0.0571 -0.0341
 1353W        W 2217   4.619  25.603   7.226  0.2656 -0.2487 -0.0296
 1354W        W 2218  24.844   1.897   4.713 -0.2146 -0.2938 -0.0930
 1355W        W 2219  19.712   2.054  21.711 -0.0668  0.1007  0.0423
 1356W        W 2220  27.035  18.608  15.484  0.0491  0.0330 -0.2239
 1357W        W 2221  28.542  28.959  16.314 -0.0416 -0.0463 -0.3354
 1358W        W 2222  12.685   8.049  24.329 -0.1349 -0.1567 -0.0605
 1359W        W 2223   4.630   0.274   7.184 -0.5745 -0.2241 -0.3013
 1360W        W 2224  23.788  15.112  27.897 -0.0418  0.1565  0.1439
 1361W        W 2225  13.884  17.292  17.540 -0.3322  0.4769 -0.1049
 1362W        W 2226  28.533  20.491  20.224  0.0999 -0.0862  0.4005
 1363W        W 2227   4.026  16.494   8.549 -0.0743 -0.0368  0.0474
 1364W        W 2228  12.043   6.598  11.661  0.0407 -0.0487  0.3461
 1365W        W 2229   8.113   9.099  20.567 -0.2185 -0.2261 -0.0575
 1366W        W 2230  12.751  18.426  14.064 -0.2358 -0.0271  0.3302
 1367W        W 2231  16.287   0.054   5.878  0.4049 -0.0808 -0.1300
 1368W        W 2232  18.968  22.277  21.054  0.0423  0.0592 -0.2239
 1369W        W 2233   8.840  28.905  11.087 -0.1941  0.1433  0.2166
 1370W        W 2234   5.802  22.201  13.158  0.0363 -0.0267  0.0261
 1371W        W 2235   5.851  26.454  13.620 -0.0115  0.0772  0.2617
 1372W        W 2236   2.059  26.376  11.458  0.0579  0.0481  0.0195
 1373W        W 2237  13.626  26.553  14.498 -0.0707  0.0216  0.0516
 1374W        W 2238  28.508   6.672   2.161 -0.1420  0.0779  0.0255
 1375W        W 2239  19.268  25.311  14.210 -0.1300 -0.0233 -0.1480
 1376W        W 2240  26.655  22.889  20.854  0.2598  0.1106  0.3578
 1377W        W 2241   4.036   8.229   2.116  0.0845  0.1998 -0.1615
 1378W        W 2242  12.948   8.759   4.877  0.0435  0.1533  0.0090
 1379W        W 2243  23.553  23.155   0.826  0.0946  0.0705  0.1464
 1380W        W 2244  12.514   9.062   5.769 -0.3783  0.0562 -0.1391
 1381W        W 2245   2.893  26.065   2.065 -0.0779 -0.4130 -0.0294
 1382W        W 2246  23.471   7.111  20.593 -0.1680  0.0149  0.1294
 1383W        W 2247  26.381  16.217   9.598 -0.2386  0.0655  0.0662
 1384W        W 2248  27.777  28.072   8.522  0.0792  0.0201 -0.1629
 1385W        W 2249  27.828  21.726  15.073 -0.1235  0.0660 -0.0913
 1386W        W 2250   2.998   0.576  25.513 -0.0796 -0.1231 -0.1636
 1387W        W 2251  13.043  24.847  18.145 -0.1787  0.4219 -0.0708
 1388W        W 2252  25.418   1.176  21.787 -0.2939  0.0075  0.1073
 1389W        W 2253   3.956  16.493   7.236 -0.0317  0.0030  0.5023
 1390W        W 2254   8.729  11.377   4.118  0.2588  0.1151 -0.0936
 1391W        W 2255  12.803  20.161  11.183  0.0879  0.2020  0.3264
 1392W        W 2256  20.428   8.865  12.461  0.0468  0.0384 -0.2371
 1393W        W 2257   5.310  19.266  22.225  0.1797  0.3132  0.3263
 1394W        W 2258  21.755  13.225  20.677  0.0140  0.0492 -0.1314
 1395W        W 2259  25.638  28.544  12.413  0.1132 -0.0983 -0.1465
 1396W        W 2260  24.570  27.869  20.517  0.5118 -0.0193 -0.1689
 1397W        W 2261  22.946   2.352  16.084 -0.0344  0.3580 -0.0906
 1398W        W 2262   2.528  20.382  20.438 -0.0769 -0.1073 -0.0172
 1399W        W 2263  28.407  18.236  28.031  0.1335 -0.1931  0.1668
 1400W        W 2264   0.096  11.400   0.873 -0.2383  0.0799  0.1514
 1401W        W 2265   6.938  17.314  15.776 -0.0615  0.5529 -0.3665
 1402W        W 2266  14.109  11.112  14.262  0.0173  0.1795 -0.0738
 1403W        W 2267  26.552   1.080   8.768  0.0023 -0.1569  0.0400
 1404W        W 2268  26.181   3.775  24.587 -0.0419 -0.1969  0.3767
 1405W        W 2269  23.827  24.226  23.572 -0.0490  0.2630  0.2935
 1406W        W 2270  13.083   3.278  16.828 -0.3281  0.1266  0.1055
 1407W        W 2271  26.741   7.071  26.904  0.0266 -0.0378  0.3034
 1408W        W 2272  10.674   1.231  13.480 -0.1093  0.0527 -0.1447
 1409W        W 2273  21.375  24.310   8.703  0.2795 -0.2273 -0.0823
 1410W        W 2274   1.162   4.483   6.408 -0.0804  0.0721 -0.1288
 1411W        W 2275  27.583  21.175  13.299 -0.0823 -0.0456  0.0984
 1412W        W 2276  10.787  11.283  25.255  0.0436  0.2383  0.0548
 1413W        W 2277  27.089   5.449  25.621 -0.2467  0.0643  0.0505
 1414W        W 2278  27.372   7.183  20.873 -0.1660  0.2420 -0.3624
 1415W        W 2279   0.527   3.395   3.915  0.1675  0.0914 -0.1530
 1416W        W 2280   8.704   8.740   9.483 -0.1826 -0.1701  0.0066
 1417W        W 2281   9.193  10.918   5.872 -0.2842 -0.0367 -0.0251
 1418W        W 2282  26.704  11.608  26.366 -0.3491  0.1787 -0.0811
 1419W        W 2283   1.869   7.529  21.188  0.2336  0.0222 -0.1649
 1420W        W 2284  18.991  19.318   8.207 -0.0801 -0.0733  0.0304
 1421W        W 2285   9.699   4.681   8.811  0.1535 -0.1423  0.1818
 1422W        W 2286  11.052  27.553  15.239  0.0962 -0.2303  0.1387
 1423W        W 2287  27.638   3.622  18.192  0.0803  0.1360  0.1884
 1424W        W 2288   2.954  21.163   9.591  0.2327 -0.0694  0.2027
 1425W        W 2289   1.111   2.107   1.619  0.0507 -0.0522  0.1574
 1426W        W 2290  24.267  20.684  24.759 -0.2998 -0.0546 -0.0907
 1427W        W 2291   7.071  21.919  28.767 -0.1079  0.3823 -0.0405
 1428W        W 2292  23.166   8.207  22.654 -0.1145  0.1638  0.1192
 1429W        W 2293  11.655   5.806   0.743  0.0645  0.1598 -0.2299
 1430W        W 2294   2.206  18.285  24.054  0.0683 -0.0109 -0.0548
 1431W        W 2295  19.044  24.577   6.474 -0.0515  0.0733  0.0615
 1432W        W 2296   4.253  26.208   4.505 -0.0654  0.0322 -0.1276
 1433W        W 2297   0.290  25.236  15.310 -0.1488  0.2322  0.0261
 1434W        W 2298   5.650  10.077   1.163  0.0494  0.1136 -0.0557
 1435W        W 2299  28.955   1.333  12.655  0.0724  0.1544 -0.1594
 1436W        W 2300  28.763  26.275  25.169 -0.1200  0.2879  0.1285
 1437W        W 2301  11.904  10.604   3.117 -0.0449 -0.2875 -0.3306
 1438W        W 2302   1.560  22.512   0.370 -0.0311 -0.0687  0.1299
 1439W        W 2303  10.243  25.585  20.791  0.1272 -0.4795 -0.2650
 1440W        W 2304   6.742  21.761  12.263  0.1952 -0.0709 -0.4367
 1441W        W 2305  24.390   1.271  25.359  0.1060  0.0394  0.0415
 1442W        W 2306   6.235  26.701  23.030  0.3869 -0.1679  0.0330
 1443W        W 2307  16.148  23.281  18.128 -0.1364  0.3528 -0.0069
 1444W        W 2308   1.069   5.747   7.895 -0.2994 -0.1522  0.1835
 1445W        W 2309  24.171   7.770   8.404  0.0312  0.1508 -0.4636
 1446W        W 2310  27.358  28.016  15.463  0.0687  0.0792  0.3759
 1447W        W 2311   7.186  28.809  25.057 -0.2041 -0.2527  0.0184
 1448W        W 2312  25.169  28.117   9.723 -0.1741  0.0544 -0.0731
 1449W        W 2313   5.338  15.454   7.134 -0.0395  0.1556 -0.3033
 1450W        W 2314  10.431  20.587   3.366  0.4072  0.2711 -0.0082
 1451W        W 2315  21.585   1.848  26.297  0.3999  0.0031  0.1057
 1452W        W 2316   1.782  13.248   7.395 -0.0922 -0.3283  0.1464
 1453W        W 2317   6.086   1.423   6.458  0.1515  0.0814  0.0697
 1454W        W 2318  22.167   6.275  10.531  0.2345  0.1308 -0.0281
 1455W        W 2319  12.754   6.574  22.397  0.1536  0.1141 -0.4375
 1456W        W 2320  14.464  18.835   1.403  0.1440 -0.2529 -0.3628
 1457W        W 2321  24.904  22.252   5.940  0.1170  0.0349 -0.3706
 1458W        W 2322  10.894  18.816  28.492  0.3766  0.0398 -0.1070
 1459W        W 2323   2.302   9.327  28.164  0.0742  0.1490  0.0495
 1460W        W 2324  19.204  11.582  16.645  0.1931  0.1783  0.0106
 1461W        W 2325  22.546   9.972  26.764 -0.1896  0.0231  0.1620
 1462W        W 2326  12.288  10.034   8.573  0.0177  0.3220 -0.1136
 1463W        W 2327  27.001  23.140   0.669 -0.1913 -0.0529  0.1486
 1464W        W 2328  11.546   4.170  21.009 -0.0807 -0.3984 -0.1341
 1465W        W 2329  12.524  26.959  21.206  0.1682 -0.0326  0.2797
 1466W        W 2330  19.478   7.442   4.279 -0.0641 -0.2205 -0.1335
 1467W        W 2331  13.317   6.208  13.534 -0.1288 -0.2010 -0.0537
 1468W        W 2332  16.014  25.441   1.829 -0.0925  0.1110  0.2919
 1469W        W 2333   6.431   5.157  20.755 -0.1115  0.0270  0.1006
 1470W        W 2334  11.899  19.042  17.349  0.0506  0.0015  0.2078
 1471W        W 2335  12.768  21.906   8.730 -0.0342  0.1314 -0.0006
 1472W        W 2336  29.023   9.453  17.517  0.2311  0.2963 -0.0298
 1473W        W 2337   0.930  14.409   9.775  0.1509 -0.0398 -0.0143
 1474W        W 2338  13.404   3.466   5.260  0.1012 -0.0632 -0.0656
 1475W        W 2339   8.359  13.887  23.268  0.1719 -0.2087 -0.2675
 1476W        W 2340  18.704   2.091  17.840 -0.0491  0.1964 -0.0855
 1477W        W 2341  13.357   7.864  14.506  0.1568  0.1221 -0.0892
 1478W        W 2342  26.305  13.376  11.418 -0.2337  0.2579 -0.0721
 1479W        W 2343  27.508  10.580  19.503  0.2324 -0.0793 -0.1496
 1480W        W 2344   4.217   2.477   3.934  0.0622 -0.0138 -0.2146
 1481W        W 2345   9.362  28.084  10.110  0.0182  0.1526  0.0532
 1482W        W 2346  24.160   7.013   4.872 -0.1099 -0.0831 -0.2174
 1483W        W 2347   3.195  19.958   3.478  0.1912 -0.2776 -0.0049
 1484W        W 2348  10.306   8.780  24.280  0.1729 -0.1245 -0.0659
 1485W        W 2349   4.071   7.604  13.021 -0.0397 -0.0004  0.1410
 1486W        W 2350  19.699  11.992  20.103  0.3119  0.0127  0.3226
 1487W        W 2351  20.312  25.129   3.008  0.1731 -0.0769 -0.0078
 1488W        W 2352  27.347   4.309   6.127  0.1778  0.1772  0.0047
 1489W        W 2353  14.102   3.720  13.609  0.3202 -0.0969  0.0102
 1490W        W 2354  19.818   1.732  23.396  0.1396 -0.0212  0.0476
 1491W        W 2355  24.226  27.158  16.722  0.4764 -0.1266  0.2409
 1492W        W 2356   7.609  11.706   5.262 -0.2192 -0.2059  0.1285
 1493W        W 2357   3.701   8.144   9.911  0.0199  0.2959 -0.0419
 1494W        W 2358  27.356   8.978   6.082  0.3641 -0.1326  0.1071
 1495W        W 2359  10.999  28.436  13.856  0.0352  0.1128 -0.0676
 1496W        W 2360   1.227  23.285  13.974  0.0560 -0.1149 -0.0131
 1497W        W 2361   6.624   7.271  25.621  0.1386  0.3175 -0.2191
 1498W        W 2362  28.926   1.831  17.861  0.0072 -0.1176 -0.1659
 1499W        W 2363   4.232  22.482   1.174 -0.1523  0.0552  0.0731
 1500W        W 2364  28.019  25.192   9.684 -0.3301 -0.3464  0.0803
 1501W        W 2365  21.508  14.888   9.742  0.0193  0.1684 -0.1102
 1502W        W 2366   6.355   6.371  22.373  0.1230  0.0347  0.0142
 1503W        W 2367  22.095  28.282  22.432 -0.1586 -0.0899  0.0887
 1504W        W 2368  13.931   4.676  28.033  0.1202  0.0611  0.3686
 1505W        W 2369  25.260  10.146   9.855  0.0646 -0.1395  0.1527
 1506W        W 2370  11.842  12.713   9.675 -0.1707  0.1091 -0.2255
 1507W        W 2371  24.492  10.054  26.953  0.0557 -0.1353  0.5330
 1508W        W 2372   9.747  19.881   4.908 -0.1048  0.1231  0.0173
 1509W        W 2373  22.548   5.345  17.389 -0.1484 -0.2676 -0.1167
 1510W        W 2374  14.628  22.024  21.571 -0.2430  0.1502  0.1246
 1511W        W 2375   9.436  20.154   6.782 -0.0687 -0.4442  0.2322
 1512W        W 2376  22.228  15.674   7.839  0.1869  0.2432 -0.1217
 1513W        W 2377  28.697  27.360  21.458  0.1596 -0.1453 -0.1500
 1514W        W 2378   8.306  24.387  24.876 -0.1945 -0.3239 -0.0054
 1515W        W 2379   1.948  26.958  13.571 -0.2694 -0.2306 -0.4807
 1516W        W 2380   4.681  26.971   6.680  0.1460  0.1807  0.4840
 1517W        W 2381   4.580  29.032  15.357 -0.0341  0.1382 -0.1559
 1518W        W 2382   2.680  16.317  17.201 -0.1208  0.1209 -0.1009
 1519W        W 2383  10.234   1.204   1.056  0.0268 -0.0421 -0.0178
 1520W        W 2384  19.184   5.308  19.686  0.0643  0.0337 -0.1489
 1521W        W 2385   7.043  13.152  22.263 -0.1307  0.0697  0.1660
 1522W        W 2386  17.724  24.476  19.696  0.0462  0.1028  0.1049
 1523W        W 2387  25.645  23.310  26.371 -0.0025  0.0272 -0.0450
 1524W        W 2388  22.178   5.630  14.710 -0.2512 -0.1069 -0.0178
 1525W        W 2389  16.337   3.065  19.165 -0.1002  0.2360 -0.0184
 1526W        W 2390   6.620   3.712  15.786 -0.4579 -0.1187 -0.1887
 1527W        W 2391   3.419   0.153  15.180  0.0544 -0.1702 -0.0711
 1528W        W 2392  12.760  28.343  12.656  0.0964  0.3505  0.1658
 1529W        W 2393  27.940  24.583  11.310 -0.0802 -0.1906  0.0294
 1530W        W 2394   9.076  23.920  21.210 -0.2189 -0.1891  0.0743
 1531W        W 2395   7.353  27.912   6.289  0.1292 -0.1635  0.2606
 1532W        W 2396  11.593  12.226  17.019  0.0364 -0.1141 -0.1514
 1533W        W 2397  28.972  29.105   6.325  0.2164  0.1007 -0.1786
 1534W        W 2398  11.563  12.300   9.986 -0.0072 -0.4959  0.0389
 1535W        W 2399   9.185  18.527  27.288  0.0353  0.0969 -0.3594
 1536W        W 2400   3.663  28.221  27.268  0.0586 -0.0766 -0.0505
 1537W        W 2401  28.611  12.124  16.084  0.1023  0.1182  0.0794
 1538W        W 2402  12.182   8.364  16.279  0.1175 -0.1164 -0.1412
 1539W        W 2403   3.976   7.566   2.724 -0.0093 -0.2631 -0.1075
 1540W        W 2404  20.852   6.681  13.351 -0.0430  0.2640  0.3426
 1541W        W 2405   5.499  20.781  18.304  0.1158 -0.0117  0.0486
 1542W        W 2406   8.563   2.441   5.408 -0.1841  0.0931  0.1527
 1543W        W 2407   9.074   6.823  14.840 -0.0709 -0.1919  0.3425
 1544W        W 2408  24.372  19.501  23.942  0.1243  0.2173  0.1528
 1545W        W 2409   9.695  27.712  10.249  0.1695 -0.1543 -0.0458
 1546W        W 2410  26.605   4.665  12.924 -0.0511 -0.4505 -0.1123
 1547W        W 2411  29.066   4.632   1.457  0.1299  0.3089 -0.2437
 1548W        W 2412  20.068   5.198  26.544 -0.1275 -0.0515  0.5296
 1549W        W 2413  12.746  19.400  13.998 -0.0959 -0.2284  0.0388
 1550W        W 2414  25.503   8.633  24.254 -0.2822  0.2774  0.0503
 1551W        W 2415  28.826   5.909  13.181 -0.0364  0.0976 -0.0269
 1552W        W 2416  26.027  14.694   8.486  0.1925  0.3228 -0.1752
 1553W        W 2417  23.104   2.021   5.904  0.1271  0.0809  0.0115
 1554W        W 2418  28.911  20.810   4.242 -0.2220  0.2071  0.1358
 1555W        W 2419   1.111   5.277  28.412 -0.0435 -0.1095 -0.2542
 1556W        W 2420  21.617  27.426  20.908 -0.0837 -0.1020  0.0576
 1557W        W 2421   6.615  26.179  22.127 -0.2005 -0.0573 -0.1125
 1558W        W 2422  28.963  14.871  13.357  0.2889  0.1573 -0.1419
 1559W        W 2423  18.009   7.154  28.547  0.3505 -0.0623  0.2495
 1560W        W 2424  28.150  29.056  11.673  0.0944  0.1133  0.1529
 1561W        W 2425  20.911  24.986  19.507  0.0223  0.3069 -0.1083
 1562W        W 2426  19.801   6.433  16.834  0.1667  0.0463 -0.0827
 1563W        W 2427   4.867   7.945  19.208 -0.0515  0.1254  0.3101
 1564W        W 2428  20.949   9.791   9.945  0.0818  0.0792  0.0510
 1565W        W 2429   9.720  27.278  16.729  0.0630 -0.1902  0.0052
 1566W        W 2430  19.272  25.498   2.796  0.2070 -0.2132  0.3585
 1567W        W 2431   9.678  28.023  27.195 -0.1996 -0.0212  0.0497
 1568W        W 2432  17.585  23.632   8.538 -0.2191 -0.0637  0.1680
 1569W        W 2433   6.208  10.830  17.586  0.2834 -0.0104  0.0654
 1570W        W 2434  21.864   1.348  12.967  0.3174  0.0389 -0.1065
 1571W        W 2435  17.285  23.659  11.028 -0.1564  0.3722 -0.0695
 1572W        W 2436   1.778  19.126  12.392  0.3857 -0.0178  0.1418
 1573W        W 2437   3.624  19.451   6.208  0.1346  0.2016  0.0908
 1574W        W 2438   0.016  28.246  21.525  0.2561  0.2043 -0.0529
 1575W        W 2439  20.273  16.990  10.634 -0.0453 -0.1149 -0.0232
 1576W        W 2440  12.419   8.608  16.762 -0.4403 -0.0199 -0.0919
 1577W        W 2441   6.404  20.516  20.432  0.0087  0.2663 -0.0313
 1578W        W 2442   0.242   0.143  11.860  0.0970 -0.4721  0.2769
 1579W        W 2443  19.552  14.658   6.689 -0.1257  0.2140  0.3278
 1580W        W 2444   3.127  28.281   4.518 -0.1705 -0.0041 -0.0902
 1581W        W 2445   2.876  13.687  13.239 -0.4568 -0.0841 -0.4470
 1582W        W 2446  13.213  22.309   8.951  0.0342  0.1612  0.0521
 1583W        W 2447  19.111   0.382   8.591  0.1127  0.1396 -0.0369
 1584W        W 2448   3.179  17.800   0.387  0.2352 -0.3419  0.3070
 1585W        W 2449  27.986   6.082   9.680  0.2224 -0.1462 -0.1154
 1586W        W 2450  21.183  21.670  13.176 -0.1434  0.1019  0.2103
 1587W        W 2451  28.477  27.088  11.322  0.1905  0.0473  0.0848
 1588W        W 2452   3.946  13.468   5.604 -0.0052 -0.1214  0.0347
 1589W        W 2453   2.073  22.309  20.825  0.0135 -0.3609  0.1257
 1590W        W 2454   2.129  22.758   4.784 -0.1230  0.0320 -0.2296
 1591W        W 2455  22.775  22.221   5.524 -0.1846  0.4166  0.2122
 1592W        W 2456   0.031  17.660  18.726 -0.0678  0.1386 -0.1626
 1593W        W 2457  25.921  28.542  11.010 -0.0505 -0.0497  0.2373
 1594W        W 2458   4.928  23.340  18.318 -0.2580 -0.0883  0.1886
 1595W        W 2459  14.281  27.045  19.161  0.0481  0.0819  0.0711
 1596W        W 2460  11.504  12.834   6.254  0.1578 -0.0258  0.0857
 1597W        W 2461  21.612   7.227   2.011  0.2058  0.1081  0.0797
 1598W        W 2462  10.206  12.227  10.631  0.1856  0.3214  0.0280
 1599W        W 2463   4.868   0.168  21.489  0.3374  0.3533  0.0317
 1600W        W 2464   7.002  19.524   7.536  0.0160 -0.0013 -0.1412
 1601W        W 2465  11.021  16.419  12.451  0.2466  0.1921 -0.2323
 1602W        W 2466   4.122   9.023  15.367  0.0925 -0.1447  0.2115
 1603W        W 2467   6.113  15.321  20.626  0.0186  0.0705  0.0498
 1604W        W 2468   2.442  11.839  17.401 -0.1951 -0.0980  0.1665
 1605W        W 2469  11.407  13.879  21.593  0.0956 -0.2830  0.1270
 1606W        W 2470   5.800  27.802  26.432 -0.3015 -0.4236 -0.0617
 1607W        W 2471  23.200   3.240   7.035 -0.0622  0.0348  0.0545
 1608W        W 2472  28.541  10.016  15.693 -0.2659 -0.0151 -0.2429
 1609W        W 2473  18.176  20.383  22.291  0.3340 -0.2360 -0.1493
 1610W        W 2474  19.701  18.264   0.975  0.2535 -0.1023 -0.0806
 1611W        W 2475   4.159   1.108  28.805  0.0844  0.0694  0.2497
 1612W        W 2476   1.092  25.231  14.634  0.1527 -0.2148 -0.3465
 1613W        W 2477   8.498   5.226  13.099 -0.1396 -0.0338 -0.2196
 1614W        W 2478   7.860   8.947  10.741 -0.1135 -0.0015  0.1720
 1615W        W 2479  13.243  14.131  13.265  0.1204  0.1210 -0.1134
 1616W        W 2480   9.067  15.812  25.773  0.1481  0.1087 -0.0487
 1617W        W 2481  27.058  13.372   7.583 -0.4233 -0.2851 -0.1084
 1618W        W 2482  22.166   2.870  12.839 -0.1173 -0.2912 -0.0576
 1619W        W 2483  22.358   1.746  11.058  0.0908  0.1742 -0.1057
 1620W        W 2484  19.137  21.274  27.540  0.1566  0.0075 -0.1710
 1621W        W 2485  25.326  22.357   6.713 -0.3275 -0.0826 -0.0036
 1622W        W 2486  26.139  10.411   5.113  0.0359  0.5166  0.0783
 1623W        W 2487   7.882  18.045   4.399 -0.0395 -0.1404 -0.1189
 1624W        W 2488  23.464  24.819   4.244 -0.0475  0.2159  0.1280
 1625W        W 2489   8.278  13.873  16.609 -0.0481  0.3248  0.0074
 1626W        W 2490  21.101  25.524  17.007 -0.1447  0.0418  0.0502
 1627W        W 2491  21.532  24.183  24.811  0.0012  0.1892  0.2911
 1628W        W 2492  24.561  27.444   3.243  0.1485  0.4232 -0.1931
 1629W        W 2493  25.283  14.309  10.985  0.1393 -0.1439 -0.1123
 1630W        W 2494  14.286  11.876  23.472 -0.2538 -0.1137 -0.1763
 1631W        W 2495  15.440  14.957  21.767  0.1201  0.2524 -0.0308
 1632W        W 2496   3.034   5.590  21.633  0.2399 -0.0218  0.0426
 1633W        W 2497   3.405  23.256  26.766  0.3541  0.0915  0.1328
 1634W        W 2498  14.073   5.098   7.514  0.1477  0.2923  0.2253
 1635W        W 2499  27.957   9.259  10.384 -0.1230  0.1781  0.0239
 1636W        W 2500   0.029   3.536  18.502  0.2265 -0.4027 -0.2671
 1637W        W 2501  29.113  25.859  28.438 -0.2323  0.0996 -0.1294
 1638W        W 2502   8.536  28.029  16.095 -0.0600 -0.1011 -0.1600
 1639W        W 2503  26.937  24.848   5.358  0.1813  0.1111 -0.0816
 1640W        W 2504   2.667  28.200  28.231 -0.2071  0.1393 -0.0310
 1641W        W 2505  19.182  13.651  22.496  0.1574 -0.0109  0.0024
 1642W        W 2506   9.819  26.869   3.285  0.1527  0.0767  0.0274
 1643W        W 2507  28.128   1.084  15.879  0.1105 -0.3039 -0.0709
 1644W        W 2508  13.164  10.437  12.765  0.1199  0.1140 -0.1453
 1645W        W 2509   3.314  13.228  16.414  0.0323 -0.2157 -0.0184
 1646W        W 2510   6.613  13.497  15.607  0.1038 -0.0739  0.0615
 1647W        W 2511  12.492  17.922   8.370 -0.1046  0.2296  0.4338
 1648W        W 2512   4.733   0.670   9.750 -0.0349  0.0801  0.2735
 1649W        W 2513   8.712  12.962   5.677 -0.2460 -0.1052  0.0308
 1650W        W 2514  24.174   3.390   3.634 -0.0030 -0.1100  0.1729
 1651W        W 2515   5.474  20.662  22.002  0.0076  0.1865  0.4382
 1652W        W 2516  12.687  26.601   9.819  0.2102  0.0119  0.1720
 1653W        W 2517  15.368  25.645  10.079 -0.1010  0.1556 -0.1180
 1654W        W 2518  21.794  16.223   6.838 -0.3976  0.1544  0.0550
 1655W        W 2519  28.290   4.860  19.177  0.1179  0.0902  0.0494
 1656W        W 2520  24.877   2.914  10.068  0.1726  0.0346  0.2684
 1657W        W 2521  26.452   4.374   9.433 -0.0509  0.1255  0.0645
 1658W        W 2522   1.637   7.803  14.833 -0.2340 -0.1203  0.0213
 1659W        W 2523  18.625  20.437  12.455  0.1731  0.0793 -0.2193
 1660W        W 2524   4.096  22.693   4.027  0.3578 -0.1728  0.0019
 1661W        W 2525  21.781   5.951  10.724 -0.2651  0.1313 -0.2730
 1662W        W 2526   3.791  27.546  12.710 -0.0839 -0.6447  0.1589
 1663W        W 2527  11.809  22.134  18.189 -0.3759 -0.1809  0.0702
 1664W        W 2528   3.928  25.172  28.662  0.0113  0.0363  0.3700
 1665W        W 2529  10.419   4.264  22.478 -0.0143  0.2471 -0.2112
 1666W        W 2530  11.804  22.697   2.059  0.2275  0.0447  0.3898
 1667W        W 2531  10.451  22.413  18.269  0.0888  0.0331  0.0053
 1668W        W 2532  27.335   2.962  23.343  0.1999  0.0394  0.1695
 1669W        W 2533  17.944   0.032   5.840 -0.1422 -0.1487  0.0148
 1670W        W 2534   8.295   5.532   7.877 -0.1294  0.2717  0.1525
 1671W        W 2535  18.890   9.285  11.961 -0.0231  0.0692 -0.1964
 1672W        W 2536   7.495  17.208  14.398  0.1392  0.0635 -0.2623
 1673W        W 2537   1.485  22.017  21.956 -0.0701 -0.0688  0.0077
 1674W        W 2538  27.943  13.028  17.225  0.1650 -0.0776  0.1583
 1675W        W 2539  21.942  18.214  22.370  0.3191  0.1556  0.3144
 1676W        W 2540  24.685  21.905   6.949  0.3032  0.1066 -0.0819
 1677W        W 2541  23.667  23.777  13.151 -0.1359 -0.1947 -0.3677
 1678W        W 2542  18.876  17.140   8.637 -0.0229  0.0372  0.0660
 1679W        W 2543   7.917  28.071  13.852 -0.2793  0.2592 -0.1189
 1680W        W 2544   7.266  20.721  15.810 -0.0342  0.0434  0.1326
 1681W        W 2545  15.661  16.076  23.104 -0.0198 -0.1285  0.1590
 1682W        W 2546  21.671  26.523  28.161  0.1730  0.0311 -0.0906
 1683W        W 2547  19.337   9.247  21.173 -0.0078 -0.2581  0.0537
 1684W        W 2548   4.972  18.772  16.895 -0.3158 -0.1904 -0.0525
 1685W        W 2549   9.104  11.282  25.912  0.2932  0.0610 -0.1451
 1686W        W 2550  24.705  23.555   2.771 -0.0103 -0.1311  0.2347
 1687W        W 2551   1.230  24.279  10.669  0.0290 -0.0260 -0.1469
 1688W        W 2552   2.207  19.887  25.040  0.1115 -0.1706 -0.0593
 1689W        W 2553  21.795  21.875   6.727 -0.1426 -0.3444 -0.3162
 1690W        W 2554  15.963  25.173   7.676 -0.0209  0.0329  0.3067
 1691W        W 2555   9.077  22.802  18.909 -0.0274 -0.1325  0.0352
 1692W        W 2556  27.600  13.268   9.230  0.0565 -0.3818 -0.1359
 1693W        W 2557   9.709  11.939  21.088 -0.0214 -0.0252  0.0279
 1694W        W 2558   3.199  10.401  26.129 -0.1491  0.1455 -0.0343
 1695W        W 2559  10.652  21.709   5.953  0.0297 -0.0265  0.0972
 1696W        W 2560  22.838   3.194  19.581  0.3443  0.0090 -0.0386
 1697W        W 2561  19.822  17.607  24.608  0.1046 -0.2456 -0.1757
 1698W        W 2562   3.663  28.348   8.311 -0.2626  0.0728  0.1487
 1699W        W 2563  28.588   1.562   3.232 -0.1045 -0.1364 -0.1193
 1700W        W 2564  15.903  19.119   3.124 -0.0569 -0.2843  0.2013
 1701W        W 2565  26.814   5.037  22.827 -0.0096 -0.0596 -0.0874
 1702W        W 2566  14.161  28.978  13.883  0.2231 -0.2276  0.2842
 1703W        W 2567  12.518   0.391  11.357  0.1882 -0.1509  0.1884
 1704W        W 2568  25.201  11.773   8.217  0.1348  0.3207  0.0997
 1705W        W 2569  19.201   9.926  10.905 -0.0879 -0.0669  0.0324
 1706W        W 2570  26.095  16.208  10.026  0.0600  0.0054 -0.3896
 1707W        W 2571   1.971  23.785  12.100  0.0640  0.0507  0.0610
 1708W        W 2572  28.192  23.026   9.643  0.0055  0.2650 -0.2391
 1709W        W 2573   0.258   1.091  24.798 -0.1633 -0.2467 -0.1201
 1710W        W 2574  12.266  19.534  13.058 -0.2324  0.1838 -0.1420
 1711W        W 2575  12.926  15.871  11.825  0.1506 -0.0902  0.2793
 1712W        W 2576  14.672  25.221  14.079  0.0100 -0.1556  0.0353
 1713W        W 2577  10.289  25.879   8.863 -0.1466 -0.1987 -0.2183
 1714W        W 2578  19.291  21.465   5.305 -0.0467  0.0362 -0.1178
 1715W        W 2579  25.160  23.419  28.841 -0.3362  0.0475 -0.0119
 1716W        W 2580  10.507   6.466   7.777 -0.1213  0.0586  0.3428
 1717W        W 2581   1.218  24.748  24.199  0.4446 -0.0411 -0.2295
 1718W        W 2582  13.412   7.188   3.313  0.1495 -0.3150  0.1111
 1719W        W 2583  24.486   4.938   9.148 -0.2759 -0.1755  0.2666
 1720W        W 2584  10.175   6.617  18.122 -0.1396 -0.0974 -0.0547
 1721W        W 2585  10.849   6.486  15.587  0.2130 -0.2004  0.0009
 1722W        W 2586  24.886  13.399   3.928  0.1474  0.0250 -0.0365
 1723W        W 2587  28.607   4.215  15.158 -0.0846 -0.0677  0.1741
 1724W        W 2588  28.218  18.239  12.047  0.2425  0.0636 -0.0373
 1725W        W 2589   5.882  17.607   2.199 -0.0134 -0.0691  0.0035
 1726W        W 2590  11.826  18.881  16.832  0.2609 -0.0786 -0.1873
 1727W        W 2591  27.791  28.598   6.137  0.1670 -0.0042 -0.0294
 1728W        W 2592   5.598   9.716  24.335  0.0473  0.0035 -0.0016
 1729W        W 2593  21.292   7.664   5.678  0.0990  0.2350 -0.0055
 1730W        W 2594   4.661   6.832   2.914 -0.2199  0.0792  0.1607
 1731W        W 2595  24.006   2.517   4.694 -0.3072 -0.0046  0.2494
 1732W        W 2596   0.155   2.620  11.108  0.3068 -0.0843  0.0551
 1733W        W 2597   9.836  10.438   9.096  0.2469  0.0431 -0.1940
 1734W        W 2598   5.854  28.768  10.690 -0.1701 -0.0695  0.1421
 1735W        W 2599  28.672  12.782  16.797 -0.0384  0.0702  0.1042
 1736W        W 2600   6.769  22.737   9.184  0.0141 -0.0209 -0.0835
 1737W        W 2601  23.985  20.112   3.115  0.0620  0.0133 -0.0496
 1738W        W 2602   7.979  10.449  28.931 -0.3016  0.0921  0.2200
 1739W        W 2603   6.133  26.085  15.265  0.2015  0.0173  0.1482
 1740W        W 2604   0.781   4.969   9.105 -0.0760  0.2717 -0.1489
 1741W        W 2605  15.113  26.399  21.112  0.2727 -0.0271  0.1863
 1742W        W 2606   1.100   1.010  22.427  0.2611  0.3818  0.1407
 1743W        W 2607  12.938   6.307   9.853 -0.0910 -0.1751 -0.0127
 1744W        W 2608   2.743  16.661  11.676 -0.3483 -0.0343  0.0115
 1745W        W 2609   0.540  12.025   0.696 -0.1879 -0.1192  0.1021
 1746W        W 2610  25.223   8.616  23.842 -0.5313  0.2416  0.2316
 1747W        W 2611   9.703  14.705  10.735  0.1488 -0.2509 -0.0912
 1748W        W 2612  18.801   3.878  28.923  0.0045 -0.1098  0.4346
 1749W        W 2613  24.240  26.755  17.656  0.3206  0.1224  0.1477
 1750W        W 2614  19.467   7.798  15.558 -0.1977 -0.1179  0.0693
 1751W        W 2615  28.648  23.827  16.351 -0.2391  0.1593 -0.0234
 1752W        W 2616   3.937   4.800   5.060 -0.1239  0.2990  0.1134
 1753W        W 2617  15.315   9.610  13.406 -0.2775  0.1409  0.2097
 1754W        W 2618  13.354  23.815  20.346  0.1360  0.0626 -0.0416
 1755W        W 2619  25.624   1.772  10.543 -0.2302 -0.0748 -0.0365
 1756W        W 2620   2.687  10.594  22.597 -0.1375  0.1344  0.0591
 1757W        W 2621   7.824  20.588  28.946 -0.3468  0.0100  0.0179
 1758W        W 2622   7.990  16.462   5.036 -0.3072 -0.1296  0.2232
 1759W        W 2623  19.951  27.629  20.806 -0.0046  0.0888  0.3216
 1760W        W 2624  24.833   5.608  11.730  0.0710 -0.3112 -0.0836
 1761W        W 2625  21.710   8.986  11.820  0.0290  0.1440 -0.1854
 1762W        W 2626  27.284   6.574   8.701 -0.1774  0.0730 -0.0357
 1763W        W 2627  10.881   3.175  26.479 -0.0331  0.0917  0.2815
 1764W        W 2628  21.482  22.333  17.513 -0.0991 -0.0035 -0.3598
 1765W        W 2629  26.202  28.123  16.986 -0.0804  0.0048 -0.1294
 1766W        W 2630  17.124  10.578  16.317  0.0357 -0.0213 -0.1485
 1767W        W 2631   3.943   6.850   6.024  0.0042 -0.3259 -0.0704
 1768W        W 2632   1.767  24.523  16.041  0.1860  0.2603 -0.1573
 1769W        W 2633   5.805   0.978  18.493 -0.2700 -0.2882 -0.1834
 1770W        W 2634  16.224  22.634   2.299 -0.2285  0.0119 -0.0191
 1771W        W 2635  19.477  26.397  26.137  0.4552 -0.0475  0.1976
 1772W        W 2636  15.484  26.875  14.395  0.2065  0.0948  0.5345
 1773W        W 2637  17.419  28.831  13.645  0.2901 -0.1410 -0.0383
 1774W        W 2638   1.387   7.860  12.657 -0.2556 -0.0385  0.2334
 1775W        W 2639   0.635   6.933  17.463  0.1976  0.3063  0.0212
 1776W        W 2640  18.261  23.923  11.921  0.1594  0.1030 -0.2559
 1777W        W 2641  28.758   0.810  11.918 -0.2336  0.2595 -0.2546
 1778W        W 2642  21.216   5.383  18.158  0.1263 -0.1136  0.1076
 1779W        W 2643  28.320  25.931  22.654  0.0362 -0.0906  0.1576
 1780W        W 2644  25.161  15.881  11.727  0.0867 -0.0058  0.1700
 1781W        W 2645  20.716  14.654  12.473  0.0965  0.0587 -0.3362
 1782W        W 2646   1.897   0.942  27.910  0.2425 -0.0039  0.1980
 1783W        W 2647  25.175  12.020  12.650  0.1712  0.2535 -0.0578
 1784W        W 2648  25.058   0.043   2.353  0.2424 -0.1610  0.1666
 1785W        W 2649  23.882  28.586   5.221  0.2370  0.5186  0.0166
 1786W        W 2650  21.916   5.518  18.174  0.0341  0.0403  0.0436
 1787W        W 2651  25.395  17.002   0.506 -0.0468 -0.0344 -0.0471
 1788W        W 2652   5.813  24.662  19.797  0.3472 -0.4561  0.0966
 1789W        W 2653  26.461  10.936  11.240 -0.1973 -0.2605 -0.0244
 1790W        W 2654   6.665   5.370  25.466 -0.0302  0.1635  0.1563
 1791W        W 2655  20.677  24.276  28.713  0.0899  0.2663  0.3203
 1792W        W 2656   3.363  10.594   7.043 -0.2802 -0.1977 -0.0586
 1793W        W 2657  27.724  13.019   3.138 -0.1012  0.2093  0.1006
 1794W        W 2658  22.872  24.046  12.955  0.0253 -0.3009  0.0251
 1795W        W 2659  19.319   1.841   6.779 -0.0027 -0.2393 -0.1070
 1796W        W 2660   0.807  23.955   4.691  0.0606 -0.1332 -0.1186
 1797W        W 2661  25.089  23.877  11.527 -0.1274  0.0355  0.1582
 1798W        W 2662   7.336  27.835   3.148  0.1097  0.2617 -0.1793
 1799W        W 2663  28.338  13.820  19.542  0.1486  0.3074 -0.1957
 1800W        W 2664   8.620  12.064  15.576  0.4189  0.1431 -0.0128
 1801W        W 2665  23.893  14.863  28.801 -0.2787 -0.2558  0.0235
 1802W        W 2666   6.093   0.966  12.417  0.3173 -0.0956  0.1393
 1803W        W 2667   3.797   5.522  11.330 -0.0674  0.0576  0.0622
 1804W        W 2668  27.647   9.688  16.303 -0.1761  0.0046 -0.0017
 1805W        W 2669  13.099   0.995  24.604 -0.1383  0.1461 -0.3405
 1806W        W 2670  28.778   7.934  16.049 -0.3162 -0.0050 -0.0405
 1807W        W 2671   8.470  12.187  11.223  0.3272  0.1315 -0.0190
 1808W        W 2672  19.327   0.934  19.167  0.0926 -0.1124  0.0848
 1809W        W 2673   8.395  27.616  22.795  0.2138 -0.0327  0.2241
 1810W        W 2674  10.872   1.611  13.235  0.1189 -0.3766  0.0542
 1811W        W 2675  20.138  23.238  21.482 -0.0151 -0.1583  0.4102
 1812W        W 2676   5.172  28.375  12.457  0.0450 -0.1244  0.1101
 1813W        W 2677   8.422   5.407  27.409 -0.4057 -0.1966 -0.1361
 1814W        W 2678  18.972  16.428  14.305 -0.2833  0.3644  0.2185
 1815W        W 2679   3.961   4.264  28.576  0.0495  0.2105  0.1126
 1816W        W 2680   1.507  27.350   1.842 -0.1831 -0.3261  0.1736
 1817W        W 2681  19.247   0.185  24.982  0.1133 -0.0408 -0.2319
 1818W        W 2682   1.094  12.018  24.109 -0.1986 -0.1861 -0.3175
 1819W        W 2683   3.343  16.482  16.635 -0.1808 -0.0693 -0.0858
 1820W        W 2684   0.822  12.652   2.900 -0.0815  0.1316 -0.0558
 1821W        W 2685  19.497  21.645  15.013 -0.1690 -0.1524  0.1630
 1822W        W 2686  13.693  17.324  22.264  0.2374 -0.0603 -0.1776
 1823W        W 2687  25.123   0.844  25.087 -0.0695  0.1302 -0.1987
 1824W        W 2688   9.688  17.533  13.186  0.1120 -0.2294  0.0540
 1825W        W 2689  12.395  24.356  17.616  0.2863  0.1699 -0.0382
 1826W        W 2690   6.055   4.080  25.038 -0.1931 -0.1007  0.0533
 1827W        W 2691  14.138  26.655   4.393  0.1045 -0.1532 -0.2522
 1828W        W 2692  18.026   7.802  12.476 -0.2411 -0.0874 -0.0989
 1829W        W 2693  25.466  14.131  27.564  0.2136 -0.2601  0.0048
 1830W        W 2694  28.784  28.889  24.364 -0.0641  0.0378 -0.1316
 1831W        W 2695   2.919  20.568  25.540 -0.0511  0.1287 -0.0319
 1832W        W 2696  27.019  14.362  21.366  0.5434 -0.2087 -0.2848
 1833W        W 2697   4.420   4.571  19.655  0.1511  0.2293  0.3625
 1834W        W 2698   6.349   7.566   5.471 -0.0726  0.2720  0.0878
 1835W        W 2699  28.909  22.620   1.726 -0.0119 -0.2320  0.0530
 1836W        W 2700   9.572  26.180   0.032  0.1107  0.2066  0.1172
 1837W        W 2701   4.147   2.037  16.604  0.0343  0.0905  0.0200
 1838W        W 2702   2.559  14.249  11.210  0.0981 -0.3217  0.0361
 1839W        W 2703   1.528   3.282  13.451  0.1047 -0.0681 -0.3779
 1840W        W 2704  25.293  28.394  25.025 -0.1718 -0.0367 -0.0953
 1841W        W 2705   7.597   4.266   2.029 -0.0727  0.1671  0.1135
 1842W        W 2706  27.344  14.892  10.416  0.0489  0.2155 -0.0085
 1843W        W 2707  28.545  10.058   7.422 -0.1995 -0.0512  0.0766
 1844W        W 2708  26.093  13.084  17.441  0.0708 -0.2352  0.1380
 1845W        W 2709  28.063  18.788   2.568 -0.3272  0.0387 -0.0091
 1846W        W 2710  25.753  11.501   6.656 -0.2351 -0.0463  0.0678
 1847W        W 2711   3.638   8.285  15.617  0.1847  0.1238 -0.0547
 1848W        W 2712  20.361  11.411   0.175  0.1426  0.0029 -0.2886
 1849W        W 2713  17.978  23.434  19.089  0.1997  0.1171  0.2023
 1850W        W 2714  14.012  20.975  24.776 -0.0594  0.0389 -0.0059
 1851W        W 2715  12.406   9.412   5.352 -0.2335  0.0993 -0.0486
 1852W        W 2716  12.667  14.238  19.144 -0.2992  0.1793 -0.3492
 1853W        W 2717  25.750   8.351  28.197  0.2740 -0.3545  0.2408
 1854W        W 2718  19.298  13.869  21.081 -0.3024  0.0042 -0.0327
 1855W        W 2719  26.312  23.387  14.878  0.0597  0.3106 -0.2542
 1856W        W 2720   0.788  18.580  26.588  0.0613  0.1976 -0.0163
 1857W        W 2721  25.016  17.679  16.811 -0.1975  0.0764 -0.0867
 1858W        W 2722   6.182   8.761  22.268  0.2183  0.0952 -0.0118
 1859W        W 2723   3.303  16.592  28.967  0.1785  0.1933 -0.1412
 1860W        W 2724   6.001   2.390  10.150 -0.1814 -0.0675 -0.1036
 1861W        W 2725  25.387  12.552  14.931 -0.3935 -0.0537 -0.1011
 1862W        W 2726   8.206   4.330  26.631 -0.4690 -0.1290 -0.3205
 1863W        W 2727   4.537  17.207  12.049 -0.1066  0.0052 -0.1215
 1864W        W 2728  25.355  22.208   2.470  0.2890 -0.0816  0.0760
 1865W        W 2729  12.127   2.697   5.158  0.0377 -0.0073 -0.2375
 1866W        W 2730   3.934  20.820  20.555 -0.0841  0.0065  0.0820
 1867W        W 2731  19.001  10.201  20.703  0.2595 -0.4524 -0.3123
 1868W        W 2732   6.530   2.966  16.029  0.1215 -0.3571 -0.0821
 1869W        W 2733  16.549  28.628   4.969  0.2167  0.2440  0.1105
 1870W        W 2734   3.604   7.933   1.767 -0.0506 -0.0261 -0.3002
 1871W        W 2735   6.723  18.618  16.534  0.4369  0.4410 -0.0483
 1872W        W 2736   0.881  22.798   6.134  0.1263 -0.0059 -0.0236
 1873W        W 2737  16.382  14.686   6.677 -0.1630  0.3549  0.0602
 1874W        W 2738  10.064   4.373  15.124 -0.1131  0.1413 -0.1054
 1875W        W 2739  26.703  22.292  19.391 -0.3638 -0.3303 -0.0579
 1876W        W 2740  13.056   4.597   4.396  0.2350  0.1950 -0.2330
 1877W        W 2741   6.420  23.690   3.698 -0.1441 -0.0203  0.1865
 1878W        W 2742   0.796  20.952   9.899  0.2114 -0.0149 -0.1760
 1879W        W 2743  25.750  17.841  16.001  0.0788  0.2284  0.3839
 1880W        W 2744  18.693  26.019  27.780  0.0818 -0.0111 -0.1489
 1881W        W 2745  16.769   4.653  18.636 -0.1120 -0.0202  0.2350
 1882W        W 2746   6.720  27.130  22.223  0.1882 -0.1659  0.0362
 1883W        W 2747  25.694  21.100  27.507 -0.0658 -0.1808 -0.1407
 1884W        W 2748   2.776   5.778  20.223  0.0173  0.3027  0.1476
 1885W        W 2749   8.508  11.127  14.069 -0.1192  0.3057 -0.2379
 1886W        W 2750   2.548  23.373  16.334  0.0291  0.0094 -0.5255
 1887W        W 2751  15.164  26.955  19.642  0.0909  0.0724 -0.2100
 1888W        W 2752  24.672   5.841  16.478  0.1661 -0.1688 -0.0906
 1889W        W 2753  13.139   5.981  22.118  0.1928  0.4073 -0.1424
 1890W        W 2754  18.717  26.034   0.519 -0.0532  0.2988  0.0818
 1891W        W 2755  14.639  13.369   9.775  0.1130 -0.1362  0.0247
 1892W        W 2756   3.843   7.565  22.106  0.1122 -0.0067  0.0948
 1893W        W 2757  18.462   4.706  14.448 -0.2171 -0.0231 -0.0410
 1894W        W 2758   8.191  10.232   0.212  0.1034 -0.4485  0.0451
 1895W        W 2759   0.072  24.934  12.948  0.0818  0.1230 -0.3843
 1896W        W 2760  17.769  13.810  14.252 -0.0502  0.1653 -0.1113
 1897W        W 2761  19.547   9.083   8.589  0.2530 -0.1788  0.0299
 1898W        W 2762   3.722   2.084  10.858  0.4460 -0.0690 -0.1302
 1899W        W 2763  12.313  14.623  12.069 -0.0395 -0.0767  0.0566
 1900W        W 2764  25.859  28.401  17.292  0.0292 -0.0995  0.3517
 1901W        W 2765  24.059   4.530   7.421  0.1767 -0.1540  0.1471
 1902W        W 2766  15.006   5.482  24.924  0.2117 -0.0431 -0.0040
 1903W        W 2767   7.560   1.546  12.297 -0.1064  0.1220 -0.0375
 1904W        W 2768   3.718  24.587  24.366  0.0415  0.0351 -0.3555
 1905W        W 2769  12.030  13.012   6.503 -0.2288 -0.2125 -0.1594
 1906W        W 2770   5.785   0.662   3.476  0.1366  0.1273  0.0182
 1907W        W 2771  25.894   3.121  20.718 -0.0070  0.1164  0.0321
 1908W        W 2772   3.760  12.858  27.336 -0.0642  0.1984 -0.0160
 1909W        W 2773  10.604  16.023  22.893  0.3045 -0.0365 -0.1851
 1910W        W 2774   8.021   3.491  26.126  0.0053 -0.2525  0.0385
 1911W        W 2775  14.853   4.634  12.485  0.1725  0.0997 -0.6476
 1912W        W 2776  28.530   5.528  11.119 -0.0439 -0.0687  0.1613
 1913W        W 2777   3.062   4.808  10.912  0.0626  0.0698 -0.1191
 1914W        W 2778  27.836   0.878  19.305  0.0327 -0.1952 -0.0308
 1915W        W 2779   8.248  13.635   3.615  0.1206 -0.1081 -0.2157
 1916W        W 2780  18.759  18.743  22.837  0.0870 -0.1708 -0.0346
 1917W        W 2781   3.094  18.463  25.354 -0.1395  0.3064 -0.3671
 1918W        W 2782   0.712  18.842  23.690 -0.1795  0.0437  0.2029
 1919W        W 2783  22.420   7.093  14.759 -0.1576 -0.1313 -0.1253
 1920W        W 2784  19.448  22.223   9.222 -0.1080 -0.0111 -0.2781
 1921W        W 2785  17.846  16.749  11.544 -0.1357 -0.1685 -0.0899
 1922W        W 2786   4.199  21.579  15.741 -0.0586  0.1867  0.2423
 1923W        W 2787  27.892  19.418  17.830  0.2103  0.0365 -0.3222
 1924W        W 2788  11.991  15.899  14.703 -0.1823  0.1126 -0.0687
 1925W        W 2789   1.952  15.477  19.826  0.1924  0.1596  0.1126
 1926W        W 2790  23.415   4.408  19.200  0.3175  0.0538 -0.0267
 1927W        W 2791  23.612   0.198   6.472 -0.0904 -0.0474  0.0141
 1928W        W 2792  20.794  19.480  14.500  0.3138  0.2844  0.0505
 1929W        W 2793   4.245  25.447   6.932 -0.0300  0.1943  0.1787
 1930W        W 2794   0.633  10.183  20.266 -0.0994  0.1177  0.0746
 1931W        W 2795   2.193  15.061  21.153  0.2417  0.0005  0.0236
 1932W        W 2796  14.577  16.229  22.292 -0.0958  0.0002 -0.1922
 1933W        W 2797   3.944   2.515  27.419  0.0455 -0.0159 -0.0582
 1934W        W 2798   2.789  26.388  14.970  0.1559  0.2444  0.3484
 1935W        W 2799  14.923  22.218  16.606  0.1719 -0.0192  0.1008
 1936W        W 2800   1.054  25.419  21.299  0.2896  0.0228 -0.3334
 1937W        W 2801  16.432   2.866  29.030  0.1199  0.1529 -0.1380
 1938W        W 2802  24.991  14.435   4.295 -0.1132  0.0137 -0.0890
 1939W        W 2803  12.260  25.261   2.962  0.0903 -0.2866 -0.0299
 1940W        W 2804  28.597  10.174   9.247  0.0023 -0.2402  0.0454
 1941W        W 2805  26.790   8.259  18.258 -0.0839  0.1469 -0.3199
 1942W        W 2806   7.580  13.903  23.389  0.2119  0.0818 -0.1544
 1943W        W 2807   8.773  16.493  11.882 -0.0031  0.2892  0.2778
 1944W        W 2808   2.810   7.533   7.071  0.0048  0.1072 -0.0607
 1945W        W 2809  28.290  13.662   4.830 -0.1827 -0.1045 -0.0381
 1946W        W 2810  19.360   5.530  25.704  0.3095  0.3002 -0.0103
 1947W        W 2811  19.132   9.822   6.621 -0.0186  0.0864  0.1546
 1948W        W 2812  26.585  19.156  19.329 -0.2746 -0.1513  0.0998
 1949W        W 2813  13.880   5.980  23.906  0.2663 -0.2517  0.0494
 1950W        W 2814  17.341   9.879  13.876  0.0607 -0.1111 -0.0463
 1951W        W 2815  25.707  24.214  21.146 -0.2126  0.2822  0.1652
 1952W        W 2816  21.469   4.367  11.643  0.2841  0.0529 -0.1727
 1953W        W 2817  25.333  25.546  19.092  0.3063 -0.0456 -0.1578
 1954W        W 2818   6.914   6.858  25.445 -0.3650 -0.2165 -0.1387
 1955W        W 2819  14.540   7.566  10.076 -0.0907  0.2324  0.1378
 1956W        W 2820   3.876  27.908   8.227 -0.0796 -0.2603 -0.0100
 1957W        W 2821  27.668  24.545  27.938 -0.1383 -0.0465  0.2841
 1958W        W 2822  22.218   7.286   2.702 -0.3243 -0.0282 -0.1509
 1959W        W 2823  21.745  26.562  10.275 -0.0349 -0.1013  0.2533
 1960W        W 2824  23.669   1.825   0.261  0.3888 -0.3098 -0.1522
 1961W        W 2825   1.468  13.625  12.047  0.0615  0.1716  0.0379
 1962W        W 2826   3.762  20.488  14.450  0.0903  0.0591  0.0460
 1963W        W 2827  22.247  27.624  24.223 -0.0511  0.0765  0.5741
 1964W        W 2828   5.914  14.089  21.050  0.1372 -0.1393  0.0727
 1965W        W 2829  13.554  15.385   5.813 -0.1885  0.0030  0.0651
 1966W        W 2830  11.637  16.687   6.243  0.2171 -0.2515  0.2358
 1967W        W 2831   0.764  21.510  19.604 -0.0004 -0.0155  0.0770
 1968W        W 2832  17.262  20.817   9.027  0.1399 -0.1299  0.0454
 1969W        W 2833   5.750  21.334  20.599  0.1683 -0.1094  0.1288
 1970W        W 2834  18.481   1.927   2.051  0.0237 -0.2517  0.1236
 1971W        W 2835  24.024   5.296  10.234  0.2059  0.1320 -0.1914
 1972W        W 2836   4.577  27.132   7.490 -0.1471 -0.2243  0.5042
 1973W        W 2837  24.871   6.552   9.667  0.2499  0.0707  0.0469
 1974W        W 2838  19.290  11.631  27.678  0.3609 -0.0360  0.2191
 1975W        W 2839   1.903  13.885  17.664 -0.0189 -0.2261  0.1422
 1976W        W 2840  19.818  22.184  22.202 -0.0393  0.2649  0.0226
 1977W        W 2841  15.787   9.922   3.630  0.2656  0.1499 -0.0967
 1978W        W 2842   2.498   9.047  11.396  0.0274  0.2935  0.0904
 1979W        W 2843  11.045  18.317  10.728  0.0159 -0.0206 -0.3099
 1980W        W 2844   3.787  18.612  10.769 -0.0958 -0.0689 -0.0615
 1981W        W 2845  26.404  26.264   8.763 -0.1939  0.1488  0.0189
 1982W        W 2846  21.412  26.447   0.232 -0.2058 -0.0220 -0.2386
 1983W        W 2847  13.682   1.681   2.989 -0.0388  0.0205  0.1681
 1984W        W 2848  25.065  19.435  21.992 -0.0598  0.5149 -0.1570
 1985W        W 2849  17.514  27.293  11.939 -0.2797 -0.2383 -0.0565
 1986W        W 2850   5.417   5.161   0.337  0.0157 -0.1316  0.1288
 1987W        W 2851  22.155  19.247  12.921  0.0211  0.1685  0.1602
 1988W        W 2852  18.899   2.418  17.471  0.2190  0.0790  0.1524
 1989W        W 2853   8.570   5.011  10.971  0.2337  0.1342  0.1540
 1990W        W 2854   1.136   0.579   4.147  0.2699  0.1507  0.2763
 1991W        W 2855  27.944   9.748   8.732  0.0005  0.1328 -0.2184
 1992W        W 2856   5.523  23.646   0.973 -0.0370  0.2294  0.2734
 1993W        W 2857  21.818   6.591  18.533 -0.0195  0.2945  0.0689
 1994W        W 2858   2.984  26.702  10.510  0.3319  0.2130 -0.3928
 1995W        W 2859  14.085  28.440  10.587  0.3852 -0.0134  0.4403
 1996W        W 2860   7.823  15.700   5.841 -0.2148  0.0528 -0.1806
 1997W        W 2861   5.772  10.521  14.738  0.3104  0.0540  0.0662
 1998W        W 2862  14.672  10.305  27.545 -0.3502 -0.4461  0.2149
 1999W        W 2863  15.013  13.063  11.627 -0.2618 -0.0089  0.0333
 2000W        W 2864   4.303  24.424   3.905  0.0833 -0.1815 -0.1449
 2001W        W 2865  25.591  18.823  11.257 -0.1840 -0.5622 -0.1376
 2002W        W 2866   2.259  16.374  10.414 -0.1342  0.0120 -0.0338
 2003W        W 2867  23.292   2.536  26.411  0.0125 -0.0646  0.2220
 2004W        W 2868   6.022  19.544  26.162  0.2784 -0.1795  0.0459
 2005W        W 2869   3.117  18.675   8.192  0.0716 -0.1722 -0.0461
 2006W        W 2870   0.209   3.952  19.862  0.0454  0.0610  0.0315
 2007W        W 2871  16.312  12.264   2.785  0.1295  0.0648  0.2032
 2008W        W 2872  27.229   0.506  24.408  0.0604  0.3663 -0.0106
 2009W        W 2873   5.057  19.260  18.992  0.0672  0.0732 -0.0853
 2010W        W 2874  27.260  24.396  28.262 -0.0605 -0.0722  0.1464
 2011W        W 2875  20.866   6.742   9.276  0.1645  0.7006 -0.1690
 2012W        W 2876  25.790   4.637  27.392  0.0464  0.0704  0.2232
 2013W        W 2877  28.856  26.556  19.268 -0.2559 -0.4346 -0.0585
 2014W        W 2878   9.484  14.938   8.880  0.2105  0.0220  0.0610
 2015W        W 2879  14.902   0.967  11.607 -0.2791 -0.0436  0.0786
 2016W        W 2880  14.326   3.178   6.433 -0.1616  0.0757  0.0477
 2017W        W 2881   8.977   1.836  25.436  0.1529  0.0045  0.3340
 2018W        W 2882  23.468   3.942  26.286  0.2109 -0.2435  0.2019
 2019W        W 2883   6.484  26.422  18.137 -0.0879  0.1408  0.1176
 2020W        W 2884  11.157   2.000   3.952  0.0117 -0.2873 -0.0619
 2021W        W 2885   7.845   7.602  17.491 -0.0185  0.0852  0.1523
 2022W        W 2886   3.710  22.672   0.486 -0.1709  0.0699  0.0194
 2023W        W 2887   5.615   5.484  19.046  0.0294  0.3624 -0.0738
 2024W        W 2888   5.161   8.081   3.232 -0.1907 -0.1101  0.2072
 2025W        W 2889   8.835  25.111  17.136  0.1054 -0.0575 -0.2050
 2026W        W 2890   6.025  21.411  10.401  0.1017  0.4214 -0.0836
 2027W        W 2891  22.771   8.144  16.151  0.2175  0.0082 -0.2295
 2028W        W 2892  24.546  27.838   6.079 -0.0543 -0.2308 -0.2466
 2029W        W 2893  19.174  13.254  25.276  0.3116 -0.0249  0.0490
 2030W        W 2894   0.192  11.308  26.539 -0.1145  0.1152 -0.1069
 2031W        W 2895  18.043  18.965  17.288 -0.1369 -0.1530  0.0126
 2032W        W 2896  14.481  13.335  19.204 -0.0113 -0.2921 -0.2989
 2033W        W 2897   3.865   6.757  22.478  0.0674  0.0052  0.0802
 2034W        W 2898   6.862  26.632   5.483 -0.3675 -0.1966  0.1542
 2035W        W 2899  23.129   9.338   7.965  0.1677  0.2771 -0.1662
 2036W        W 2900  12.717   4.906  27.787 -0.0629 -0.0828  0.0602
 2037W        W 2901  28.169   3.018  17.412  0.0631  0.0953 -0.2330
 2038W        W 2902  24.145  28.203  24.566  0.0172 -0.0723  0.1432
 2039W        W 2903   2.611  24.810  15.329 -0.3219 -0.2338 -0.2059
 2040W        W 2904   7.570  16.670  24.161  0.2206  0.0664  0.0769
 2041W        W 2905  24.347   4.656  19.494 -0.3133  0.1444  0.0041
 2042W        W 2906  12.588   1.387  13.896 -0.0218 -0.1142 -0.1314
 2043W        W 2907  27.735  23.825  21.170  0.1276  0.0442  0.2966
 2044W        W 2908   4.372  12.256  16.386  0.1300  0.1324 -0.0071
 2045W        W 2909  22.874  23.510   0.508  0.2897  0.3443 -0.2706
 2046W        W 2910   7.600   3.079  11.949 -0.1597  0.0107  0.0093
 2047W        W 2911   1.223  18.171  12.934  0.1825 -0.0918  0.0118
 2048W        W 2912   2.493   9.761  26.997 -0.1576  0.0346  0.2053
 2049W        W 2913  12.604   4.774   9.922 -0.0875 -0.0754  0.2044
 2050W        W 2914  19.562  10.516   6.651 -0.4100  0.0489  0.0118
 2051W        W 2915  19.080   2.602  13.187 -0.2374 -0.3174  0.2705
 2052W        W 2916   0.355   8.991   5.509  0.2217 -0.0893  0.4781
 2053W        W 2917  23.068   4.735   2.449  0.1796  0.0457  0.1661
 2054W        W 2918  27.720  23.041  14.748 -0.0054 -0.1034  0.0192
 2055W        W 2919  27.403  24.374  19.673 -0.1429 -0.1368 -0.0000
 2056W        W 2920   8.128  13.183  15.267  0.0360 -0.1270 -0.2185
 2057W        W 2921   2.850  26.347  18.311  0.0201 -0.2063  0.0217
 2058W        W 2922  16.723   7.756  16.127 -0.1419  0.0269  0.0208
 2059W        W 2923  17.318   2.165  27.553  0.1349 -0.1115 -0.1312
 2060W        W 2924   3.088  26.112  16.882  0.4217 -0.2293  0.1096
 2061W        W 2925  10.599   4.393  19.553 -0.0455  0.0716  0.2168
 2062W        W 2926  28.101  18.546  17.509  0.1896 -0.3441  0.2987
 2063W        W 2927  18.131  26.036  11.855  0.1185 -0.1810  0.1823
 2064W        W 2928   4.682  20.401  19.495 -0.1543 -0.2720  0.3221
 2065W        W 2929  27.674   2.415   7.092 -0.0732  0.2040 -0.0118
 2066W        W 2930  19.572  24.067  18.222 -0.0032 -0.1512  0.1161
 2067W        W 2931   2.703   2.176  19.767  0.2032 -0.1388  0.0740
 2068W        W 2932  14.636  12.643   3.729  0.1394  0.2023 -0.1813
 2069W        W 2933   2.253  13.877  13.197 -0.0986 -0.0093 -0.1371
 2070W        W 2934  28.278  27.076  22.029 -0.0230 -0.1754  0.0550
 2071W        W 2935  19.649   1.034  24.804 -0.0742  0.0978  0.2223
 2072W        W 2936  19.711  10.671  11.921 -0.2293  0.0388 -0.2167
 2073W        W 2937   8.780  11.135  18.819 -0.1351 -0.0530 -0.1877
 2074W        W 2938  26.767  23.735  20.725 -0.0142 -0.0219 -0.1838
 2075W        W 2939   7.864  26.234   3.110  0.1461  0.2696 -0.0149
 2076W        W 2940   1.599  10.936  14.724 -0.2076 -0.1836 -0.1370
 2077W        W 2941  26.528  15.260   9.207 -0.0931  0.0845 -0.0372
 2078W        W 2942   6.683   2.559  23.886  0.2337  0.2564 -0.1976
 2079W        W 2943  21.371  19.671   0.535 -0.3653 -0.0224  0.1377
 2080W        W 2944   3.682  22.414  27.820  0.2351  0.1600  0.2347
 2081W        W 2945   0.030   3.726  15.993  0.0054 -0.0992 -0.1027
 2082W        W 2946   9.692  14.775  19.695  0.0932  0.1256  0.0264
 2083W        W 2947  15.289   0.621  25.343  0.1893  0.1858  0.1580
 2084W        W 2948  25.997  21.329   8.584 -0.2121 -0.0541  0.3098
 2085W        W 2949   2.615  15.276  26.424 -0.1210  0.0029  0.0406
 2086W        W 2950   5.806  25.854   4.189 -0.1651  0.1483 -0.3842
 2087W        W 2951  18.181   0.332   1.338 -0.1125  0.1171  0.0823
 2088W        W 2952  14.224  10.394   6.525  0.2092  0.2108  0.0979
 2089W        W 2953  16.315  19.555  25.395 -0.0944 -0.1327  0.0333
 2090W        W 2954  17.105  18.516  21.920  0.0826  0.0681  0.2247
 2091W        W 2955  22.101   7.708   9.302 -0.1773 -0.2571  0.3466
 2092W        W 2956  23.895  16.414  25.437  0.1460  0.0251 -0.3051
 2093W        W 2957  23.636   5.305  13.679 -0.0079  0.0552 -0.2216
 2094W        W 2958  25.472  16.923   2.538 -0.2275 -0.3557 -0.0546
 2095W        W 2959   1.312  18.203  24.969  0.1496  0.1723  0.0545
 2096W        W 2960   7.622   1.008   2.708 -0.0052 -0.0464 -0.1707
 2097W        W 2961  26.085   8.494  16.892  0.1062 -0.0126  0.1640
 2098W        W 2962  11.285   0.623  20.434 -0.0999 -0.0451  0.0561
 2099W        W 2963  22.966  16.883  13.258  0.2053 -0.3317  0.3192
 2100W        W 2964  11.863  22.144   1.914  0.1765  0.0342 -0.1087
 2101W        W 2965  20.388   9.242  21.549 -0.2460  0.1914 -0.1048
 2102W        W 2966   2.913  23.206  25.814  0.0143 -0.1042 -0.0881
 2103W        W 2967   7.276  25.371  22.505 -0.2333  0.1849 -0.0025
 2104W        W 2968  15.926  25.661  13.813 -0.0787  0.1849  0.0533
 2105W        W 2969  22.568   5.757  16.664 -0.0183  0.0983 -0.1047
 2106W        W 2970  19.645  15.215   3.300  0.0737 -0.0747 -0.5017
 2107W        W 2971  27.144  28.706  23.215  0.1837  0.0586  0.2737
 2108W        W 2972  18.963  18.869  11.743 -0.0559  0.2898 -0.1089
 2109W        W 2973  12.514  14.964  14.932 -0.3113 -0.0038 -0.1983
 2110W        W 2974  26.160  17.183   8.870 -0.1381 -0.0110 -0.3138
 2111W        W 2975   3.464  11.797   8.004 -0.1096 -0.0037  0.2087
 2112W        W 2976  11.668   1.816   3.998 -0.2656  0.0934 -0.3165
 2113W        W 2977   5.098   4.863   2.917  0.4050  0.1571  0.1694
 2114W        W 2978  17.847   1.266  24.085 -0.1712 -0.0235 -0.1080
 2115W        W 2979  23.850  15.794  20.711 -0.4513 -0.1611  0.1771
 2116W        W 2980  21.375   6.585  11.839  0.0485  0.1183  0.3557
 2117W        W 2981  10.318   3.517  27.306  0.0804  0.1139 -0.0808
 2118W        W 2982   2.245  23.992   2.865  0.1304  0.2210 -0.1368
 2119W        W 2983   4.213  29.006  27.992  0.2675  0.1531  0.0370
 2120W        W 2984   0.617  23.005   0.786  0.0975 -0.3308  0.0024
 2121W        W 2985  27.898  10.771  19.186 -0.3293 -0.1374  0.0973
 2122W        W 2986   6.329  27.937   7.305 -0.1061  0.1218  0.1683
 2123W        W 2987   0.031   4.825  14.166  0.0105 -0.2914 -0.0215
 2124W        W 2988   3.323   9.322   0.631  0.1005 -0.0089  0.0418
 2125W        W 2989  24.531   6.337  23.778  0.1543  0.2821  0.3284
 2126W        W 2990   1.391   7.084  23.978  0.3276 -0.0212  0.1838
 2127W        W 2991  24.763  14.468  16.607 -0.0554 -0.3006 -0.0945
 2128W        W 2992   0.424  26.545  28.882  0.1879 -0.1216  0.2978
 2129W        W 2993  26.110  17.684  22.817 -0.0013 -0.2626  0.1805
 2130W        W 2994  10.494  25.211   4.570 -0.0929  0.0540  0.0083
 2131W        W 2995   2.570   5.214  27.187 -0.2252 -0.1003 -0.2720
 2132W        W 2996  24.823  21.541   3.706  0.1751  0.0684  0.0832
 2133W        W 2997   7.494  24.400  20.835 -0.1419 -0.1481 -0.2328
 2134W        W 2998   1.798  20.267  19.384 -0.3666  0.0030 -0.1234
 2135W        W 2999   2.976  18.652  25.838 -0.2484 -0.4093 -0.0024
 2136W        W 3000   2.775   8.561  11.796  0.0235  0.1077  0.2141
 2137W        W 3001   6.700   8.117  28.757  0.0565  0.2020 -0.3327
 2138W        W 3002   7.565  21.292  18.022  0.0212 -0.2123 -0.1697
 2139W        W 3003  15.460   6.860  24.721 -0.4288  0.1197 -0.0476
 2140W        W 3004   9.893   0.841  10.991 -0.3009 -0.0390  0.2220
 2141W        W 3005   1.102  10.263  27.824  0.0625  0.0867 -0.1452
 2142W        W 3006  18.765   2.057  28.795  0.1722 -0.2056 -0.0020
 2143W        W 3007  13.357  25.245  15.549 -0.0743 -0.2849  0.1534
 2144W        W 3008  22.518  27.692  17.032  0.0513  0.1161 -0.0582
 2145W        W 3009  24.464  16.532   0.089 -0.2098  0.0703 -0.0409
 2146W        W 3010  25.227  16.190   5.900 -0.1354  0.0436  0.5848
 2147W        W 3011  12.727  12.236  13.649  0.0903  0.2688  0.0782
 2148W        W 3012  25.825   0.469  16.966 -0.5192  0.1680 -0.2837
 2149W        W 3013  16.683   5.130   1.993  0.0100 -0.0785  0.1361
 2150W        W 3014  15.729   1.716  19.508 -0.6878 -0.0091 -0.0178
 2151W        W 3015   6.192  17.531  15.336 -0.1898  0.1796  0.0617
 2152W        W 3016  21.388   8.365   4.905 -0.2243 -0.2153  0.0726
 2153W        W 3017  21.679  19.953  10.828 -0.2991  0.2281 -0.0555
 2154W        W 3018  16.763  15.335   5.392  0.3062 -0.0139  0.0658
 2155W        W 3019   5.496   3.360  23.003 -0.0326  0.0188  0.0111
 2156W        W 3020  26.644  22.806   4.444 -0.0850 -0.1577  0.0335
 2157W        W 3021  13.659   0.056  18.524 -0.1203  0.2813 -0.4770
 2158W        W 3022  21.081   4.218  24.971  0.2060  0.0870  0.0051
 2159W        W 3023  10.333  13.226  10.466 -0.1486 -0.0692  0.0120
 2160W        W 3024  17.913   5.245   5.610 -0.4093 -0.1850  0.3182
 2161W        W 3025   4.646  12.786   6.860 -0.0198  0.1417 -0.0943
 2162W        W 3026  11.084  24.562  20.215  0.0008 -0.0362 -0.0303
 2163W        W 3027  14.181   8.840  13.432  0.1778 -0.0656 -0.0151
 2164W        W 3028  24.564  20.044   4.228 -0.0574  0.1025 -0.0801
 2165W        W 3029  15.223  21.670  14.194 -0.0642  0.1740  0.1163
 2166W        W 3030  12.054   0.181  15.580 -0.0852  0.1814 -0.0021
 2167W        W 3031  13.693  26.005  21.180 -0.0470  0.0943  0.0059
 2168W        W 3032  27.800   5.125  22.840 -0.0942  0.1500 -0.0698
 2169W        W 3033   3.626  13.884   5.521 -0.0471  0.0087 -0.0069
 2170W        W 3034  11.582  14.304  17.612  0.0081 -0.1052  0.0294
 2171W        W 3035   3.099   2.465   0.789  0.0935 -0.0160 -0.0751
 2172W        W 3036   1.840  28.787  23.639  0.0658 -0.1989 -0.0804
 2173W        W 3037  10.954   1.455  26.807 -0.2355  0.0896 -0.0372
 2174W        W 3038   8.381  23.828   6.733  0.3640  0.0082  0.1824
 2175W        W 3039  16.623   0.432  26.520  0.0387  0.1469 -0.0252
 2176W        W 3040  11.379  14.078  12.310 -0.1122 -0.1798 -0.0296
 2177W        W 3041  14.668  18.022   7.383  0.3517 -0.4212  0.1848
 2178W        W 3042   6.990   3.485  11.244  0.1354 -0.0106 -0.2024
 2179W        W 3043  19.308  24.996   6.681  0.3288  0.2284 -0.1146
 2180W        W 3044   8.243   8.476  17.242  0.0845  0.0965  0.0993
 2181W        W 3045   7.852  20.402  11.280 -0.0133  0.3649 -0.0053
 2182W        W 3046   8.576  11.033  25.172 -0.0392 -0.0903  0.1805
 2183W        W 3047  19.554  25.093  19.916  0.0463  0.2135 -0.0272
 2184W        W 3048   8.619   3.590  17.799 -0.0564  0.2729 -0.3380
 2185W        W 3049  16.920  27.964  16.484  0.0820  0.0756 -0.0752
 2186W        W 3050  20.881  24.208  15.799  0.3924 -0.3138 -0.1661
 2187W        W 3051  25.424  12.720  14.101  0.3467  0.1802 -0.0166
 2188W        W 3052  20.236  22.761   4.884  0.3134  0.0321  0.1768
 2189W        W 3053  21.855  22.355   7.624 -0.1529 -0.3320  0.0525
 2190W        W 3054   6.789  28.038  17.826 -0.2113  0.0503  0.2163
 2191W        W 3055  15.255  29.012   7.585  0.2473  0.3416 -0.2500
 2192W        W 3056  28.080  20.212  20.074 -0.2392  0.0464 -0.1031
 2193W        W 3057  26.352   0.574  18.654  0.2434  0.1766 -0.1779
 2194W        W 3058  18.487   8.747  12.723 -0.1754  0.0238 -0.0594
 2195W        W 3059  20.074   6.024   8.067  0.2938 -0.0285  0.0001
 2196W        W 3060   5.041   6.585  14.956 -0.0863 -0.0723  0.1819
 2197W        W 3061   7.131  13.429  14.026 -0.2595  0.0246  0.0507
 2198W        W 3062  19.110  16.797  18.414 -0.5624 -0.1635  0.0568
 2199W        W 3063  28.064  24.987   8.487 -0.1904  0.0840  0.1301
 2200W        W 3064   0.979  25.413  10.354  0.1050  0.1804  0.0515
 2201W        W 3065   6.520  10.262  11.922  0.0404 -0.2104 -0.2121
 2202W        W 3066   3.593   1.721   6.675 -0.1854  0.0518 -0.0328
 2203W        W 3067  24.578  22.651  13.917 -0.0855 -0.2090 -0.3284
 2204W        W 3068  15.360  19.944   5.315  0.0865 -0.0398  0.3330
 2205W        W 3069   9.962  18.987   6.408 -0.2910 -0.3355 -0.2376
 2206W        W 3070   8.036  19.585  14.888 -0.1679  0.0459 -0.0728
 2207W        W 3071  26.551  27.036  16.236  0.1865 -0.0185  0.0552
 2208W        W 3072  28.724   4.597  21.948 -0.2035 -0.2407  0.3292
 2209W        W 3073  24.999   5.867   0.468  0.0572  0.3849 -0.0152
 2210W        W 3074  10.291   0.522  20.711  0.0112 -0.1527 -0.0677
 2211W        W 3075   7.354  19.517  14.384 -0.0542 -0.0024 -0.0476
 2212W        W 3076  27.681   3.407  26.258 -0.1473 -0.1854 -0.1822
 2213W        W 3077  16.499   5.389   9.864 -0.2357 -0.0689 -0.0786
 2214W        W 3078   6.764   6.135  17.489 -0.0423 -0.4043 -0.1015
 2215W        W 3079  21.828   4.054  11.449 -0.0650 -0.0738 -0.1133
 2216W        W 3080  12.018   0.146  23.958 -0.0424  0.2384  0.0975
 2217W        W 3081   5.373  11.626  12.422 -0.1097 -0.0669 -0.0536
 2218W        W 3082   3.506   7.695  24.473  0.0328  0.0883 -0.1164
 2219W        W 3083  16.140  28.050  23.025 -0.1614  0.0980  0.0592
 2220W        W 3084  27.912   8.928  19.001 -0.0406  0.2142  0.2180
 2221W        W 3085  13.930  16.871  26.931  0.0038 -0.1427  0.1282
 2222W        W 3086   4.434  28.660  16.553 -0.0172  0.1173  0.1582
 2223W        W 3087   3.051  25.137  15.392  0.1446 -0.2143 -0.3427
 2224W        W 3088  20.363  18.496  20.481 -0.0759 -0.0308  0.1946
 2225W        W 3089   4.182  27.017   0.966  0.0858 -0.0097 -0.0122
 2226W        W 3090   5.384  26.913   7.917 -0.2955  0.2050 -0.0639
 2227W        W 3091  10.325  16.583   8.234  0.0826  0.1302 -0.0473
 2228W        W 3092  12.213  16.932  18.330 -0.0205 -0.2834  0.0582
 2229W        W 3093  21.866  14.370  21.436  0.0963 -0.0250  0.1092
 2230W        W 3094  27.609  27.585  18.905 -0.0303  0.1915 -0.1595
 2231W        W 3095  24.250   1.350  14.975  0.1936  0.0168 -0.3097
 2232W        W 3096   6.571  25.975  27.774 -0.0138 -0.0833 -0.4086
 2233W        W 3097  17.446  26.534   5.591 -0.2027  0.0019  0.1283
 2234W        W 3098  11.179   7.041  13.709  0.0033 -0.0171  0.0498
 2235W        W 3099  12.116   5.235  12.814  0.2079  0.1273  0.1261
 2236W        W 3100   7.309  15.878   5.812 -0.2144 -0.0289  0.0718
 2237W        W 3101   4.390   1.335  26.571 -0.1668 -0.0162 -0.0763
 2238W        W 3102  18.710  13.046  10.285  0.2741 -0.0397  0.1589
 2239W        W 3103   0.733   9.315   8.142  0.0967  0.1159  0.2459
 2240W        W 3104   1.762   8.207   4.251  0.1831  0.0411 -0.3183
 2241W        W 3105   3.648  15.903  24.548 -0.0702  0.1072  0.1509
 2242W        W 3106  22.495  22.209  20.280 -0.0087  0.0672  0.1653
 2243W        W 3107  16.969  23.491  18.938  0.0029  0.2913 -0.2819
 2244W        W 3108   6.217  16.995   1.365  0.0272  0.3331 -0.1881
 2245W        W 3109  23.950  20.834  15.011  0.2161 -0.1834 -0.2949
 2246W        W 3110  28.929  15.354   2.375  0.2344 -0.4316  0.0104
 2247W        W 3111   4.191   8.170   4.358 -0.0246  0.0387  0.0241
 2248W        W 3112   0.675   1.682   4.955  0.1190 -0.0045  0.1379
 2249W        W 3113   3.085  26.945  22.632  0.1202 -0.1224 -0.1353
 2250W        W 3114  15.796   9.103  22.515 -0.2125  0.0269 -0.2504
 2251W        W 3115  10.965  27.279   3.955  0.1637 -0.0459  0.0817
 2252W        W 3116  13.300  11.883  16.878 -0.0824 -0.1059 -0.0988
 2253W        W 3117  18.725   0.050  22.815  0.1021 -0.1864 -0.1738
 2254W        W 3118  23.106   4.170   1.285 -0.1290  0.1748  0.1674
 2255W        W 3119  16.536  22.483  14.932 -0.2568  0.2076  0.1729
 2256W        W 3120   1.318  24.103  19.726 -0.0187 -0.0453 -0.1513
 2257W        W 3121   7.308  11.651  24.011 -0.1366  0.0340 -0.1706
 2258W        W 3122  25.641   7.842  16.264  0.1696  0.2460 -0.0861
 2259W        W 3123  23.587  11.256  24.890 -0.0090  0.0810 -0.2961
 2260W        W 3124  17.349  24.554   4.855  0.1254  0.1350 -0.0108
 2261W        W 3125  25.751  22.601   4.525  0.0674  0.0039  0.0085
 2262W        W 3126  23.957   5.672  15.779 -0.0206 -0.1105 -0.2619
 2263W        W 3127  18.755  24.213   6.218  0.1291  0.0956 -0.2607
 2264W        W 3128  18.123  27.382  14.186  0.1315 -0.0979 -0.3548
 2265W        W 3129  23.824  13.253   4.843  0.0613  0.0870 -0.3759
 2266W        W 3130  28.966  16.350   1.289 -0.2214 -0.0927 -0.2622
 2267W        W 3131   0.670  18.034  17.519 -0.2103 -0.0360 -0.2800
 2268W        W 3132   2.450  11.132  28.645 -0.1148 -0.0697  0.1384
 2269W        W 3133  19.350  22.157  21.487  0.1255  0.1469 -0.2360
 2270W        W 3134  11.940  25.640  28.286  0.3333  0.2256  0.0786
 2271W        W 3135   5.089   7.091   0.186  0.1820 -0.1280 -0.0880
 2272W        W 3136  23.835  11.947   6.278  0.1184 -0.1777 -0.0577
 2273W        W 3137   8.421   5.664   3.196 -0.0311  0.0817  0.0417
 2274W        W 3138  22.998   4.962  10.392  0.1668  0.0505  0.5146
 2275W        W 3139   8.316   4.968  20.841 -0.2444  0.0917 -0.0489
 2276W        W 3140  12.394   0.736  20.842 -0.1167  0.0331  0.1345
 2277W        W 3141  27.175  20.565   9.093  0.0320  0.0769  0.2442
 2278W        W 3142  28.466  18.089  24.771 -0.2483  0.4124 -0.1670
 2279W        W 3143  28.433  28.198  24.272 -0.0187 -0.1705 -0.3372
 2280W        W 3144  27.930   0.523  18.048  0.1378  0.1924  0.0692
 2281W        W 3145  10.213  13.189  28.918  0.0076  0.0751  0.0091
 2282W        W 3146  21.718   9.058  15.543  0.1397 -0.0986  0.3170
 2283W        W 3147   3.975  26.996   1.759 -0.0336  0.0390 -0.3180
 2284W        W 3148  27.480  12.876   5.707 -0.2441  0.0988 -0.0958
 2285W        W 3149  27.481  11.999  10.253  0.1808 -0.2114  0.1098
 2286W        W 3150  21.246   9.626   8.714 -0.0324 -0.1030  0.2315
 2287W        W 3151   7.462  22.023   6.209 -0.0868 -0.1802 -0.0909
 2288W        W 3152   4.419  16.546  19.697  0.2468  0.3839 -0.2568
 2289W        W 3153  27.027   5.946  17.073 -0.0540  0.0949  0.0756
 2290W        W 3154  26.938   3.005  21.517 -0.0720 -0.1850  0.2354
 2291W        W 3155  27.265   0.104   1.206  0.2687  0.3097  0.1421
 2292W        W 3156  24.642   9.276  10.579  0.0991  0.1197 -0.1297
 2293W        W 3157  14.337  18.209  12.899  0.0135 -0.0099 -0.0289
 2294W        W 3158  14.506  17.744   9.464 -0.2311 -0.0730 -0.2694
 2295W        W 3159   5.160  15.638  11.627  0.2729 -0.4013  0.2553
 2296W        W 3160  22.102  26.791  25.705 -0.2152 -0.0110 -0.0287
 2297W        W 3161  17.712  23.429  29.003  0.0373 -0.0870  0.2724
 2298W        W 3162   6.475  23.450  25.338  0.4541  0.1388  0.0746
 2299W        W 3163  28.076  25.643  17.820 -0.1687  0.0187 -0.1945
 2300W        W 3164   3.693  28.642  15.511 -0.0417 -0.1723 -0.2762
 2301W        W 3165  22.591   6.513  15.585 -0.3976 -0.1727 -0.1909
 2302W        W 3166  28.446   9.151  21.299 -0.0205 -0.1981  0.2434
 2303W        W 3167  25.955  11.721  19.483 -0.0590  0.1455 -0.0726
 2304W        W 3168   9.492   7.364  18.185 -0.1515  0.0697 -0.2212
 2305W        W 3169  17.794  23.698  26.335 -0.0504  0.0762  0.0015
 2306W        W 3170   3.056   1.856  19.867  0.0980  0.3146 -0.0715
 2307W        W 3171   7.552   1.318   6.367  0.1745  0.1316 -0.2758
 2308W        W 3172  26.512   1.699  21.904  0.0375 -0.0345  0.1264
 2309W        W 3173  28.582  22.086  13.360 -0.2177  0.1402 -0.0863
 2310W        W 3174   9.629   5.186  25.604 -0.1320  0.1195 -0.2570
 2311W        W 3175   1.600  26.882   7.843 -0.0498 -0.1546 -0.4174
 2312W        W 3176   9.726  13.309  27.047 -0.0273  0.0282 -0.1040
 2313W        W 3177  17.400   9.442  20.614 -0.0409  0.0256 -0.2391
 2314W        W 3178  26.686  18.385  12.109  0.1774 -0.0782  0.0486
 2315W        W 3179  12.464   5.362  18.010 -0.0655  0.1132 -0.0394
 2316W        W 3180  16.794  25.252  17.141  0.0351  0.0633 -0.0793
 2317W        W 3181   3.037   3.666   9.366  0.1816  0.2330  0.2923
 2318W        W 3182  10.734  25.278  26.335  0.3647 -0.1322  0.0738
 2319W        W 3183   3.228  11.154  27.629  0.0046  0.0588 -0.1569
 2320W        W 3184   3.158  24.087   9.364  0.2045  0.1589  0.0411
 2321W        W 3185   4.842   3.387   7.706  0.2951  0.0068  0.4390
 2322W        W 3186  18.583  11.863  12.803  0.2035  0.0702 -0.2162
 2323W        W 3187   9.711  13.161  28.006 -0.3348  0.1636  0.2418
 2324W        W 3188   3.686  25.129  22.109  0.2873  0.0548  0.3081
 2325W        W 3189  13.326  28.797   3.875  0.1578 -0.2110  0.1637
 2326W        W 3190  10.235  19.148  16.346 -0.2043 -0.1590  0.1228
 2327W        W 3191  21.002  19.452   2.494 -0.3138  0.0245 -0.0228
 2328W        W 3192   5.464  22.452  25.846 -0.0348  0.4000  0.2649
 2329W        W 3193  16.430  25.675   5.783 -0.2496  0.0420  0.1781
 2330W        W 3194   6.955  22.455  12.443  0.0251 -0.0383  0.2622
 2331W        W 3195  13.034  20.950  24.759  0.0122  0.3181  0.1574
 2332W        W 3196   6.370   5.853   5.757 -0.0758  0.1186  0.1600
 2333W        W 3197  21.019  12.804   1.194 -0.1558 -0.1571  0.2148
 2334W        W 3198  15.050  23.998  13.643 -0.1518  0.3639  0.0014
 2335W        W 3199   4.475  22.439  21.233 -0.1635  0.1863 -0.0328
 2336W        W 3200  10.614  11.509  14.592 -0.1603  0.2089 -0.1051
 2337W        W 3201  21.239   3.038  18.157  0.0034  0.0414 -0.0108
 2338W        W 3202  16.719  18.034   4.661  0.0129 -0.1542 -0.1421
 2339W        W 3203  22.702  16.795  15.416 -0.0865  0.0344  0.1491
 2340W        W 3204  27.811  21.738  23.575 -0.0706  0.2789  0.1403
 2341W        W 3205  12.572  14.876  21.767  0.1086  0.1803  0.0777
 2342W        W 3206   0.475  11.455   0.556  0.0096 -0.1501  0.1295
 2343W        W 3207  14.709  22.697  13.750 -0.0181 -0.3913  0.3639
 2344W        W 3208  16.526  19.461  14.853  0.0344 -0.1387  0.1646
 2345W        W 3209   7.349  18.804   4.498  0.0226 -0.1692  0.0589
 2346W        W 3210   2.410  26.021  22.517  0.2661 -0.1378 -0.1344
 2347W        W 3211   3.085  28.941  18.097  0.0001 -0.1552  0.5445
 2348W        W 3212   4.921  23.795  20.862 -0.1199  0.2443 -0.0693
 2349W        W 3213  22.494  28.867   6.752  0.0146 -0.0738  0.1269
 2350W        W 3214  11.840  23.794  28.551  0.4390  0.1150  0.2606
 2351W        W 3215   1.004  13.931  19.593 -0.2530 -0.2105 -0.1031
 2352W        W 3216   2.058  23.440   8.072  0.0530  0.0711 -0.1501
 2353W        W 3217   2.706   3.187   7.564 -0.1644 -0.4413 -0.1248
 2354W        W 3218   4.934  10.253  13.866 -0.1648  0.4901  0.0694
 2355W        W 3219  22.223  22.284   1.238  0.0408 -0.1218 -0.0500
 2356W        W 3220  24.535   8.910  28.640  0.1849 -0.1477  0.0753
 2357W        W 3221   0.046   2.133  14.194 -0.2496  0.2642  0.2868
 2358W        W 3222  16.025  10.096  20.200 -0.0419 -0.3403  0.0856
 2359W        W 3223   0.285  13.178  21.049 -0.2263  0.0205 -0.1048
 2360W        W 3224  22.794  20.809  24.639 -0.1080 -0.0785 -0.0456
 2361W        W 3225   9.605   5.132  22.400  0.0039  0.0001  0.2606
 2362W        W 3226  10.798  26.882  28.967  0.3170  0.0594 -0.0919
 2363W        W 3227   3.073  19.153  11.805  0.2731  0.1824  0.0383
 2364W        W 3228  28.153  23.363  19.287  0.2801 -0.0886 -0.4778
 2365W        W 3229  18.420   5.212  15.645 -0.0226 -0.0200 -0.2247
 2366W        W 3230  28.673   0.422  14.223 -0.0855  0.1386  0.0638
 2367W        W 3231  14.207  24.905  11.318  0.0399  0.1648  0.0888
 2368W        W 3232   8.084  21.360   4.673 -0.2267 -0.2068  0.0492
 2369W        W 3233  10.306  18.363   5.787  0.1225  0.4870  0.0811
 2370W        W 3234  22.003  12.454   6.932 -0.2279  0.0598  0.1367
 2371W        W 3235  27.413   5.205   3.282 -0.1704 -0.0766  0.0821
 2372W        W 3236   3.745  22.698  20.061 -0.0357  0.3113 -0.0048
 2373W        W 3237  21.349   6.449  26.036  0.2709 -0.1760 -0.1316
 2374W        W 3238   7.704   3.388   9.529 -0.0163  0.1480  0.0072
 2375W        W 3239  10.669   3.005  16.976  0.0127  0.3346 -0.1867
 2376W        W 3240   3.212  10.299  20.497 -0.0938 -0.1904 -0.1362
 2377W        W 3241  28.126   0.623   6.880 -0.3507 -0.1252 -0.0520
 2378W        W 3242   2.358  23.524  12.306  0.0608  0.1683  0.0657
 2379W        W 3243  26.828  23.989  23.107  0.1182  0.2126 -0.2451
 2380W        W 3244   9.904  23.675  16.209 -0.0372  0.0343 -0.2729
 2381W        W 3245   7.118   4.503   1.008 -0.0885  0.1825  0.1134
 2382W        W 3246   9.678  24.943  28.642  0.1866  0.1611 -0.1202
 2383W        W 3247  27.853   4.173   9.696 -0.1476  0.0640 -0.3634
 2384W        W 3248   3.606  24.325   2.625 -0.1170  0.2454 -0.1614
 2385W        W 3249  23.176   2.861  20.958  0.1146 -0.2381  0.1599
 2386W        W 3250  24.687   0.438   6.389 -0.1550  0.2492  0.0162
 2387W        W 3251   8.042  16.839  21.707 -0.1045 -0.0306  0.1182
 2388W        W 3252   4.317   3.297  10.088 -0.1946  0.1093  0.0933
 2389W        W 3253  28.236  28.676  27.811 -0.1404 -0.1156 -0.1401
 2390W        W 3254  12.133  21.140  16.666 -0.0489 -0.1401 -0.0375
 2391W        W 3255   4.457  22.541  18.610  0.1209 -0.3073  0.1860
 2392W        W 3256  19.548   5.564  21.174 -0.1906 -0.5256  0.0434
 2393W        W 3257   1.186   1.102   8.990  0.3137 -0.1383 -0.1453
 2394W        W 3258  16.432   7.966  20.737  0.4267 -0.1491 -0.1829
 2395W        W 3259   6.776  26.082  17.355 -0.1705  0.0513  0.1766
 2396W        W 3260   9.995  29.102  25.370  0.2033 -0.2645  0.0721
 2397W        W 3261  20.328   4.163  20.438  0.1725  0.2568  0.0600
 2398W        W 3262  28.230   5.216   2.362 -0.1498 -0.1489 -0.0402
 2399W        W 3263   9.420  28.896  20.983 -0.0308 -0.0173  0.5309
 2400W        W 3264  23.843  22.809  24.665 -0.3019  0.1250 -0.2659
 2401W        W 3265   9.166   3.686  15.848 -0.0614  0.3824  0.0349
 2402W        W 3266  18.025   5.335  27.206  0.0968 -0.1458 -0.1540
 2403W        W 3267   1.557  26.853   1.643  0.2683 -0.1753 -0.2258
 2404W        W 3268   4.595   8.815  13.243 -0.1378 -0.0386 -0.1458
 2405W        W 3269  13.434  10.518  26.656  0.0470 -0.0342 -0.1581
 2406W        W 3270   9.162  18.216  13.528 -0.1047 -0.0582 -0.1825
 2407W        W 3271  23.306  26.455  13.276 -0.2340  0.3539  0.2570
 2408W        W 3272  24.095  21.011  12.537  0.0199  0.3249 -0.1072
 2409W        W 3273  24.662   1.667  12.045  0.0221  0.0605 -0.2388
 2410W        W 3274  20.277   6.889   2.299 -0.1827 -0.1151 -0.2212
 2411W        W 3275   7.470   2.903  16.636 -0.1102 -0.0497 -0.5219
 2412W        W 3276  26.590   8.928  14.668  0.0143 -0.0427 -0.1608
 2413W        W 3277  16.684  23.524  26.962 -0.2899  0.2035 -0.0819
 2414W        W 3278  28.096  18.497  27.752 -0.2811 -0.0422 -0.0793
 2415W        W 3279  26.315  24.917  14.416 -0.1805 -0.1339 -0.5109
 2416W        W 3280  27.521  23.246  16.845  0.1988 -0.1629  0.1993
 2417W        W 3281   3.091  26.312  25.012 -0.0487  0.1417  0.1593
 2418W        W 3282  18.475   3.881   7.197 -0.4282 -0.2581 -0.1995
 2419W        W 3283  25.453  26.800   5.270 -0.4247  0.0878 -0.0583
 2420W        W 3284   1.494   8.405   8.110  0.1638  0.0173 -0.2128
 2421W        W 3285   1.636  21.930  20.628 -0.1854  0.3333 -0.3026
 2422W        W 3286  27.509   4.926  13.703 -0.0219  0.1163  0.0767
 2423W        W 3287  27.941   4.677  18.797 -0.1458 -0.1184  0.2354
 2424W        W 3288  13.329  20.019  26.532 -0.0974  0.3122  0.3913
 2425W        W 3289   5.704   4.410  25.206 -0.1492 -0.2910 -0.1692
 2426W        W 3290  19.746  27.152  20.688  0.1582 -0.0163  0.4076
 2427W        W 3291   3.824  24.354  24.853  0.3223  0.0923 -0.2671
 2428W        W 3292  26.805  27.882   0.631  0.0739 -0.1546  0.0537
 2429W        W 3293  18.326   5.479  12.616  0.2873  0.0457  0.2202
 2430W        W 3294  17.186  12.292  25.293  0.2799  0.0600 -0.0611
 2431W        W 3295  24.599   9.106  26.828 -0.1401  0.3077  0.1729
 2432W        W 3296  23.494  28.095  25.482 -0.0384 -0.0602  0.4577
 2433W        W 3297   1.305  21.838  12.468 -0.0610 -0.0825 -0.0224
 2434W        W 3298  16.811   3.389  18.823  0.1199  0.0419  0.1209
 2435W        W 3299  23.806   6.869  25.095  0.2549 -0.0545 -0.0206
 2436W        W 3300  25.718   9.845  26.218  0.0765  0.2244 -0.1275
 2437W        W 3301  24.226   8.653  29.046 -0.0847 -0.0588  0.0839
 2438W        W 3302   1.343  11.758  23.688  0.3588 -0.0810  0.0830
 2439W        W 3303  28.640   0.431  15.684  0.1940 -0.1169  0.1576
 2440W        W 3304   0.806  14.937   9.745 -0.2385  0.0546 -0.1263
 2441W        W 3305  10.284  25.479  14.774  0.2340  0.0443 -0.3498
 2442W        W 3306  23.421   2.728   8.899  0.1412  0.0783 -0.1162
 2443W        W 3307   4.864  23.416  17.287  0.3202 -0.2994 -0.0413
 2444W        W 3308   1.228  17.892  18.038  0.0839  0.0494 -0.1424
 2445W        W 3309   8.929  18.555   7.718  0.1075  0.1015 -0.1973
 2446W        W 3310  10.872   9.407   1.246 -0.3195  0.2349 -0.0073
 2447W        W 3311  18.330  19.142  12.334 -0.1051  0.1670  0.2165
 2448W        W 3312   9.628   5.523   0.299  0.3353 -0.3830 -0.1798
 2449W        W 3313  25.190   6.519   7.193 -0.2343 -0.4409 -0.0601
 2450W        W 3314  18.584  18.078   8.272 -0.0806 -0.1326 -0.0848
 2451W        W 3315   3.905  17.234  11.502 -0.2091  0.2765 -0.1604
 2452W        W 3316  21.606  28.922   4.279 -0.0464  0.1123 -0.0431
 2453W        W 3317  22.053  24.085  17.279  0.1708  0.0199 -0.0665
 2454W        W 3318   0.172   7.235   3.932  0.2904  0.1676  0.2462
 2455W        W 3319   4.973  26.584   8.971  0.1614 -0.1541 -0.1206
 2456W        W 3320  16.621  26.897  17.726 -0.1704 -0.0059  0.0406
 2457W        W 3321   2.259  19.584   8.094 -0.1129  0.1313 -0.0333
 2458W        W 3322   4.624   7.776  11.373  0.5118  0.2585  0.1119
 2459W        W 3323   5.860  14.240  26.090  0.0500 -0.2077  0.4596
 2460W        W 3324  15.370  11.360  19.433  0.2040 -0.0353 -0.1503
 2461W        W 3325   1.814   3.148  16.539  0.2341 -0.1773 -0.1330
 2462W        W 3326   4.607   6.087  11.571 -0.2113  0.2295  0.0968
 2463W        W 3327   0.567  29.056  21.288 -0.1725 -0.0986  0.2139
 2464W        W 3328  25.496  13.685  25.086  0.2313  0.3710 -0.1687
 2465W        W 3329  25.975  13.260  22.677  0.0875 -0.1332 -0.0904
 2466W        W 3330   1.207   5.398  12.965  0.0851 -0.0928  0.0434
 2467W        W 3331   9.908   9.740  14.241  0.2003  0.1256 -0.2092
 2468W        W 3332   5.010  10.142  21.817 -0.2020  0.2970 -0.0083
 2469W        W 3333  18.240  13.638  28.411 -0.1203  0.0567  0.0540
 2470W        W 3334   4.099  25.316  12.145  0.1921 -0.2263 -0.2659
 2471W        W 3335   8.036   6.654  14.818  0.0404  0.3696 -0.0970
 2472W        W 3336  23.131  28.776  19.011  0.1906  0.4014 -0.0127
 2473W        W 3337  26.775  25.296  24.703  0.1069 -0.3967  0.4033
 2474W        W 3338   1.262  26.060   9.284  0.0971 -0.2729 -0.1469
 2475W        W 3339  18.153  20.710  17.066 -0.1382  0.1692 -0.1538
 2476W        W 3340  16.881   8.859  16.913 -0.0762  0.0302  0.0991
 2477W        W 3341   3.749   5.775  23.418  0.2704 -0.1631  0.2963
 2478W        W 3342   6.641   7.268  26.173 -0.3421 -0.3210 -0.1162
 2479W        W 3343   0.148   3.196  20.389  0.0384 -0.2120 -0.2251
 2480W        W 3344  16.902   8.327  15.235 -0.0286 -0.1831  0.2731
 2481W        W 3345   3.274  19.591   0.304  0.0395  0.0202 -0.0045
 2482W        W 3346  21.774  11.604   0.470 -0.1764 -0.3350  0.0124
 2483W        W 3347   9.901  14.465  28.950  0.1389 -0.0864 -0.0846
 2484W        W 3348   0.951   4.015  22.847 -0.0723  0.2740  0.1514
 2485W        W 3349  21.289  25.115   2.297 -0.2326  0.0139 -0.3515
 2486W        W 3350   5.948   7.770   9.893 -0.0143  0.2970  0.1994
 2487W        W 3351  16.624   9.703  22.971 -0.0002  0.2879 -0.0104
 2488W        W 3352  27.765  15.468   0.569  0.3951 -0.2870 -0.0935
 2489W        W 3353  11.743  23.330  19.735 -0.0012 -0.0835 -0.0890
 2490W        W 3354  23.712  23.534  21.852 -0.0392 -0.0106 -0.1360
 2491W        W 3355   5.639  24.308  25.452 -0.0256 -0.4628 -0.0339
 2492W        W 3356  28.813   4.317  13.058  0.2237  0.3102 -0.3486
 2493W        W 3357   3.903  18.592  27.538  0.0621 -0.1637  0.2127
 2494W        W 3358  28.947  14.276   3.749 -0.1271 -0.1642 -0.2905
 2495W        W 3359  24.953  27.334   4.089  0.1421 -0.0210 -0.1280
 2496W        W 3360  23.856   5.539   0.825  0.2221 -0.1300 -0.2533
 2497W        W 3361  28.573  22.865  23.785 -0.0168  0.1988 -0.0429
 2498W        W 3362  15.326  28.783  14.376  0.2092 -0.0419 -0.1943
 2499W        W 3363   0.470  25.334  21.425  0.4772 -0.1440 -0.0875
 2500W        W 3364   9.503  29.043  24.048  0.1309 -0.1462 -0.5121
 2501W        W 3365   7.041  13.947  10.935 -0.0467 -0.1815  0.0344
 2502W        W 3366   4.940   3.765  17.080  0.1378 -0.3112 -0.4189
 2503W        W 3367  23.622   2.740  17.431  0.2879 -0.0541 -0.4254
 2504W        W 3368  20.364  16.494  20.524  0.0368 -0.3593  0.2887
 2505W        W 3369   8.163   2.313   0.052  0.2534 -0.0127  0.0492
 2506W        W 3370  21.650   1.476  24.994 -0.0257  0.1591 -0.2286
 2507W        W 3371  17.705  23.588  23.553 -0.1400  0.0467  0.0293
 2508W        W 3372  24.555   6.513  13.957 -0.3323 -0.1851 -0.0183
 2509W        W 3373  10.273   5.041   9.033  0.1264 -0.0684  0.1938
 2510W        W 3374  19.903  26.622  19.573  0.2324 -0.0873  0.1127
 2511W        W 3375  27.794   6.781  21.544 -0.0048 -0.0194  0.1912
 2512W        W 3376  28.959  12.448   2.706  0.2176 -0.0245 -0.1652
 2513W        W 3377  26.455  19.453  22.183 -0.2675 -0.3418 -0.1450
 2514W        W 3378   5.744  27.199  11.371 -0.2521  0.0401  0.0399
 2515W        W 3379   2.343  28.854  26.618 -0.2013  0.4505  0.3378
 2516W        W 3380  26.056   0.593  19.081  0.0316 -0.2594 -0.2365
 2517W        W 3381   5.580  13.476  17.247  0.0171 -0.1461 -0.1954
 2518W        W 3382   3.258  16.023  12.149  0.1266  0.1424  0.1136
 2519W        W 3383  15.304  27.585  23.217 -0.2592 -0.0507  0.1851
 2520W        W 3384  12.271   5.794   6.034 -0.3659  0.1348  0.0842
 2521W        W 3385   0.635  28.552  27.859  0.0064 -0.2890 -0.0653
 2522W        W 3386   6.513   8.578  23.227  0.4192 -0.2412 -0.1361
 2523W        W 3387  23.546   6.525  15.895 -0.0701 -0.0780 -0.0948
 2524W        W 3388  28.307   8.092  26.663  0.1550 -0.0396  0.0790
 2525W        W 3389  25.384  28.237  17.275  0.0215 -0.2159  0.0050
 2526W        W 3390   5.739   2.129  28.899  0.1918 -0.2763 -0.1582
 2527W        W 3391  27.877  18.588  23.151 -0.0351 -0.3792  0.0726
 2528W        W 3392   4.578   1.971  24.690  0.1171  0.0958 -0.0412
 2529W        W 3393  23.121   9.410   0.173  0.3138  0.0264 -0.0083
 2530W        W 3394  11.595  16.151  11.728  0.0783  0.2814 -0.0333
 2531W        W 3395  24.079  18.479  20.448 -0.0738 -0.1806  0.1185
 2532W        W 3396  26.038   1.774  16.450  0.1542  0.0136  0.2511
 2533W        W 3397   9.523  24.703  22.709 -0.0846  0.1113 -0.0271
 2534W        W 3398  17.410  13.113  14.868 -0.1211  0.1942 -0.2295
 2535W        W 3399  22.898  25.961  12.207 -0.2031 -0.1949 -0.1841
 2536W        W 3400  21.748   3.307  16.328  0.0762 -0.2528  0.1144
 2537W        W 3401  20.659  27.544  18.295  0.2114  0.0944  0.0923
 2538W        W 3402   6.296   9.371   6.749 -0.0809 -0.0077 -0.2327
 2539W        W 3403   4.888   9.524  23.005 -0.2921  0.2146 -0.0975
 2540W        W 3404  28.067   9.629   7.690 -0.0137  0.4075  0.1272
 2541W        W 3405   0.536   2.321  20.247 -0.1913 -0.0368  0.2590
 2542W        W 3406  11.751  20.993   8.277 -0.0263 -0.0550 -0.1279
 2543W        W 3407   4.264   4.229   1.139  0.0181  0.2034  0.1057
 2544W        W 3408  21.966   4.216  24.690 -0.1155  0.1728  0.2756
 2545W        W 3409   4.745   3.515  24.007  0.3505  0.0338 -0.1513
 2546W        W 3410  12.671   4.187   1.980 -0.0374 -0.2146  0.0179
 2547W        W 3411   9.639   3.185  11.850 -0.0581 -0.2545 -0.0241
 2548W        W 3412   4.410  19.667  14.736 -0.1567  0.2236 -0.0752
 2549W        W 3413   6.729  18.902   3.644  0.3234 -0.0426  0.1195
 2550W        W 3414  23.493   6.941   1.170 -0.0695 -0.1500 -0.0071
 2551W        W 3415  11.381   3.287  17.894 -0.2032  0.2671 -0.0158
 2552W        W 3416  25.799  25.743   6.549 -0.1526 -0.3614  0.1965
 2553W        W 3417   9.681   5.682  11.405 -0.2664  0.1287  0.2633
 2554W        W 3418  24.433  10.384  27.302 -0.0046 -0.1266 -0.1799
 2555W        W 3419  26.202  27.983   3.819  0.0813 -0.2779 -0.0844
 2556W        W 3420  23.511   9.391  12.520  0.1000  0.0111 -0.1774
 2557W        W 3421  20.896   7.498  19.893 -0.2507  0.4624 -0.1521
 2558W        W 3422  22.138   5.567  17.757 -0.1378 -0.0119 -0.1017
 2559W        W 3423   1.615   6.609   1.144 -0.0654 -0.3034  0.2448
 2560W        W 3424   1.174  25.039  20.897  0.0739  0.0591 -0.0932
 2561W        W 3425  10.875  26.947  21.815  0.1473  0.2074  0.2010
 2562W        W 3426  11.961   4.200  12.111 -0.1717 -0.1792  0.2575
 2563W        W 3427  11.338  27.407   6.056 -0.0520 -0.2575 -0.0670
 2564W        W 3428  11.540   3.614  17.482 -0.0207 -0.1550  0.1158
 2565W        W 3429   2.580  26.512  27.248 -0.0996 -0.4609 -0.1071
 2566W        W 3430  12.237  14.180  11.095  0.3661 -0.2525 -0.0086
 2567W        W 3431  28.728   7.870  24.761  0.1368  0.1323  0.0701
 2568W        W 3432   2.298   0.399  21.914  0.2474 -0.0503  0.0682
 2569W        W 3433  10.295  14.210   2.523 -0.0421  0.1511 -0.1106
 2570W        W 3434   0.395   1.089  10.338  0.1113  0.0149  0.0418
 2571W        W 3435  26.161  11.085  27.489 -0.1376 -0.1315 -0.2712
 2572W        W 3436   8.945   2.132  17.272  0.1783  0.2972 -0.0011
 2573W        W 3437  23.229   8.818  12.762 -0.0314  0.0650  0.0142
 2574W        W 3438   7.360  25.304   6.158  0.0139 -0.2475  0.0843
 2575W        W 3439   8.500  10.442  24.644  0.1966 -0.0231  0.2659
 2576W        W 3440  21.334  28.581   6.783 -0.2201  0.1845 -0.0936
 2577W        W 3441   5.484  24.316  24.947  0.1558 -0.1490 -0.0728
 2578W        W 3442  17.574   9.557  10.110 -0.0289 -0.3704  0.1745
 2579W        W 3443  11.686  12.069   3.578 -0.1806  0.2732  0.2112
 2580W        W 3444   7.425   8.112  16.842  0.0865  0.2173  0.0838
 2581W        W 3445  25.190   0.318  23.001  0.0890 -0.0632  0.1353
 2582W        W 3446   5.873   7.489   3.093  0.1742 -0.0408 -0.2592
 2583W        W 3447  14.621  27.306  25.161  0.1473 -0.0342 -0.0597
 2584W        W 3448  21.105  22.445  28.600  0.1856 -0.4168 -0.2625
 2585W        W 3449  25.848  24.900   4.422 -0.1386 -0.0169 -0.2653
 2586W        W 3450  22.072  14.252   4.111 -0.0128 -0.1567 -0.1638
 2587W        W 3451   2.703   5.393  27.768 -0.3366 -0.1666  0.0274
 2588W        W 3452   2.692  19.349  21.576  0.1529 -0.0413 -0.0281
 2589W        W 3453  20.612  18.838  24.505  0.0359 -0.0157  0.1304
 2590W        W 3454   5.534   5.928  27.926 -0.0488  0.0701 -0.0183
 2591W        W 3455  12.466  29.027   6.993 -0.2791  0.0497  0.2093
 2592W        W 3456  21.978  13.110  15.953  0.1732  0.1818 -0.0420
 2593W        W 3457   5.746  26.937  19.781  0.0187 -0.2586  0.1548
 2594W        W 3458   0.800   0.635  25.371 -0.0681  0.0283 -0.1408
 2595W        W 3459   2.986   5.369  17.464 -0.0826  0.1378  0.0350
 2596W        W 3460   6.431   5.435   2.983 -0.0069  0.1515  0.0768
 2597W        W 3461   6.699  11.059   6.472  0.2827 -0.0868  0.1020
 2598W        W 3462   1.583  20.335  11.882 -0.1194 -0.2335  0.1344
 2599W        W 3463   6.023  10.189  29.031 -0.1248  0.1862  0.0417
 2600W        W 3464  28.716  25.860   9.981 -0.0205 -0.0837 -0.1455
 2601W        W 3465  15.184   4.851  14.939  0.1543 -0.2097  0.1716
 2602W        W 3466  13.198  20.081  28.565 -0.0164  0.2716 -0.0439
 2603W        W 3467  27.822  12.630  24.844 -0.1208  0.0934 -0.0498
 2604W        W 3468   2.472  24.420   5.094  0.0474  0.0576 -0.2547
 2605W        W 3469   7.348  24.261  17.269  0.0929 -0.2053 -0.1015
 2606W        W 3470   3.018  27.676  23.310  0.0683 -0.0149  0.0524
 2607W        W 3471   2.612  22.791  13.122  0.0814  0.3412 -0.1049
 2608W        W 3472  18.665   7.048  24.172 -0.2068 -0.2248 -0.2723
 2609W        W 3473   5.503   9.783   2.836 -0.1158 -0.1363 -0.0321
 2610W        W 3474   1.301  23.200   5.497 -0.3006  0.0538 -0.1565
 2611W        W 3475   3.964   6.721  10.029  0.0320  0.1522  0.0477
 2612W        W 3476  24.979  28.673   7.899  0.2000  0.2408  0.0270
 2613W        W 3477   6.478   1.702  24.246  0.0424  0.1325  0.2982
 2614W        W 3478  20.187   9.874   0.197  0.2903  0.0832 -0.0232
 2615W        W 3479  14.920   6.596  26.513  0.5997  0.0145  0.0115
 2616W        W 3480  23.864   6.323  16.700 -0.0075 -0.1852  0.0292
 2617W        W 3481  27.371  23.249   1.455  0.4985  0.1011 -0.0917
 2618W        W 3482  25.087  28.699  14.579 -0.0465  0.1776 -0.0688
 2619W        W 3483   2.453  26.078  26.436  0.3560  0.0842 -0.0558
 2620W        W 3484  10.853   0.026   3.522 -0.0319  0.1937 -0.0091
 2621W        W 3485  19.699   4.432  27.279  0.1440  0.2446  0.2356
 2622W        W 3486  10.284  12.225   0.683  0.0842  0.5428 -0.1224
 2623W        W 3487  20.132   3.806  16.604 -0.2253 -0.0142  0.0580
 2624W        W 3488   8.296  14.651  28.596  0.3373 -0.2224 -0.1152
 2625W        W 3489  21.926  25.924  20.416 -0.4934  0.0541 -0.5433
 2626W        W 3490  13.354   1.320   4.509  0.1138 -0.0167  0.0054
 2627W        W 3491   0.976  14.895   7.864  0.0248  0.0998  0.0878
 2628W        W 3492   6.513  22.553  15.230 -0.0612  0.0736 -0.2035
 2629W        W 3493  24.680  18.166   8.241  0.4155 -0.0058  0.2870
 2630W        W 3494  25.152  10.369  10.777  0.0254 -0.1279 -0.0858
 2631W        W 3495  19.112  19.727   2.929  0.0125 -0.1486 -0.0074
 2632W        W 3496  18.299  21.849  29.111 -0.0043 -0.1333  0.0693
 2633W        W 3497  28.467   6.591  21.063  0.0753 -0.3711  0.2734
 2634W        W 3498   0.441  14.706  13.984 -0.0781  0.1805 -0.1586
 2635W        W 3499  20.296   9.038  19.072 -0.0651 -0.1955  0.0722
 2636W        W 3500  19.784   0.249  12.090  0.3939 -0.0906  0.2046
 2637W        W 3501   0.011  29.097  18.989 -0.0390  0.1947 -0.1955
 2638W        W 3502   5.748  11.101  26.942  0.0027  0.1330  0.0731
 2639W        W 3503   4.023  21.377  21.582  0.0225  0.0326 -0.0893
 2640W        W 3504  19.526  26.769   6.392 -0.0734 -0.2191  0.2127
 2641W        W 3505   6.495   3.167  22.053 -0.1234 -0.2378 -0.1569
 2642W        W 3506   8.199   1.362  28.616  0.2806 -0.0433 -0.2392
 2643W        W 3507  18.801  28.534   6.415  0.0667  0.0482 -0.0999
 2644W        W 3508   7.017   5.680  28.420  0.0799  0.3100 -0.3382
 2645W        W 3509  16.408  10.327  10.544  0.2681  0.1941 -0.1890
 2646W        W 3510  19.686  25.030   7.724  0.1509  0.0531  0.0925
 2647W        W 3511  14.425  24.265  17.676 -0.0583 -0.0174 -0.0444
 2648W        W 3512  24.132  23.814   0.693  0.4566  0.2972 -0.0672
 2649W        W 3513  23.766  22.508  26.755  0.0104 -0.0404  0.1129
 2650W        W 3514   2.529  27.758   6.537 -0.2707  0.1691 -0.3359
 2651W        W 3515  20.327  22.066  26.106 -0.0783 -0.1310  0.1743
 2652W        W 3516   0.026   4.069   7.652  0.0093 -0.0774 -0.0170
 2653W        W 3517   9.784  21.954   9.308 -0.3386 -0.0669 -0.0092
 2654W        W 3518   2.575   3.642  20.030  0.3034 -0.0231  0.0575
 2655W        W 3519   9.397   1.689  28.181  0.1038  0.3912  0.0778
 2656W        W 3520   9.887  20.521  21.732 -0.1262  0.0970 -0.1932
 2657W        W 3521  26.599   9.649  19.232  0.0697 -0.3315  0.0337
 2658W        W 3522   5.340  19.065  21.287  0.0960  0.1577  0.0416
 2659W        W 3523   6.074  28.572  25.812  0.1100  0.0612  0.1133
 2660W        W 3524   4.596   2.959  19.336  0.0364  0.1578  0.0112
 2661W        W 3525  10.318  26.888   0.312  0.3801  0.0520 -0.1067
 2662W        W 3526   2.872   6.966  13.614 -0.1596  0.1768 -0.1745
 2663W        W 3527  25.804  20.251  15.991  0.2927 -0.2819  0.0839
 2664W        W 3528  12.570  22.073   0.570  0.0231  0.2255  0.0969
 2665W        W 3529   4.714   6.336  24.197 -0.1527  0.1123  0.1464
 2666W        W 3530  16.334  25.109  26.155 -0.1129  0.4280 -0.2990
 2667W        W 3531   8.301  14.097  20.898  0.3825 -0.1834  0.0522
 2668W        W 3532  23.004   2.453  24.864 -0.4691 -0.1599  0.0272
 2669W        W 3533  26.984  29.121   1.649 -0.0857  0.2316 -0.0420
 2670W        W 3534  16.667  13.529   0.767 -0.0854  0.1112 -0.0135
 2671W        W 3535   8.021  19.239   5.867  0.2050 -0.1295  0.0126
 2672W        W 3536  22.913  10.734  19.032 -0.0866 -0.1654  0.1105
 2673W        W 3537  17.742   2.131  23.962  0.1841 -0.0730  0.2948
 2674W        W 3538   7.761  14.639   1.641 -0.0691  0.0577  0.3250
 2675W        W 3539   2.556   6.927  25.859 -0.0328  0.2245 -0.0424
 2676W        W 3540  23.485   7.154   6.318 -0.4219 -0.0278  0.2779
 2677W        W 3541  17.704  20.942  24.378 -0.1326 -0.1691 -0.3449
 2678W        W 3542  15.853  24.903  24.675 -0.0341  0.1715 -0.0783
 2679W        W 3543  21.917  16.906  22.026  0.1072 -0.1893 -0.1664
 2680W        W 3544  21.614  24.740  10.950 -0.0737 -0.0172  0.2746
 2681W        W 3545  22.632  24.526   3.736  0.3435 -0.1710 -0.1819
 2682W        W 3546  17.809   5.999  10.593 -0.1457 -0.0008 -0.1275
 2683W        W 3547  28.036  11.287  28.837  0.3050  0.3911  0.0374
 2684W        W 3548  22.309  13.589  25.996  0.1167 -0.3758  0.2050
 2685W        W 3549  15.241  26.835   3.392  0.5265  0.0375 -0.1185
 2686W        W 3550  22.223  28.379  12.345 -0.1188  0.0009 -0.2070
 2687W        W 3551   4.963   7.204   7.026  0.0135 -0.0062 -0.0315
 2688W        W 3552   7.242  18.161  27.175  0.0907  0.0145 -0.0486
 2689W        W 3553   8.936  28.010  18.429 -0.0642  0.2459  0.0551
 2690W        W 3554  22.445   0.407  20.476  0.4888  0.2118  0.1137
 2691W        W 3555   9.519   1.762   6.805  0.0017  0.0859  0.1399
 2692W        W 3556  28.470  15.727  27.659 -0.0196 -0.2128 -0.2176
 2693W        W 3557  18.824   0.519  12.453 -0.0963  0.2081  0.1481
 2694W        W 3558   0.253  17.863  23.817 -0.0204  0.0656 -0.3773
 2695W        W 3559  26.961  28.509  14.914 -0.0904  0.0498 -0.1025
 2696W        W 3560   7.271   0.964  24.088  0.1750  0.2089 -0.0212
 2697W        W 3561  22.297   3.925  15.788 -0.0394  0.0142 -0.0800
 2698W        W 3562   0.266  23.212   8.908 -0.0050 -0.0149  0.0067
 2699W        W 3563  23.642   5.279   9.556  0.0060 -0.4049  0.1750
 2700W        W 3564   9.767  25.495  26.194  0.1035  0.0340  0.0226
 2701W        W 3565  27.464  16.833  15.949  0.3135  0.3129 -0.0537
 2702W        W 3566  28.377  15.618  24.026  0.2522  0.0866 -0.2910
 2703W        W 3567  13.244  28.187  27.247  0.2481  0.0275 -0.2461
 2704W        W 3568   3.484   2.073  27.425 -0.0937  0.2292  0.2121
 2705W        W 3569  11.052  13.277  22.022  0.0213  0.2990  0.0181
 2706W        W 3570  25.571   1.451  19.828 -0.0578  0.0638  0.2543
 2707W        W 3571  11.581  21.570   5.102 -0.1205  0.1654  0.1293
 2708W        W 3572  10.000  14.319  15.265 -0.2155  0.0854 -0.2699
 2709W        W 3573  17.609   8.747  28.051 -0.1148  0.3102  0.2064
 2710W        W 3574  27.813   5.647  20.629 -0.0698 -0.0534  0.2654
 2711W        W 3575  28.531   6.452  22.027 -0.2325  0.3683  0.0142
 2712W        W 3576  10.074   7.277  23.031 -0.0724 -0.1838  0.0504
 2713W        W 3577  14.079   5.837  17.680 -0.0571 -0.1758  0.0735
 2714W        W 3578   2.966  21.137   1.045 -0.3036 -0.2811 -0.0119
 2715W        W 3579  23.506  14.394   1.191  0.1153 -0.0679  0.2086
 2716W        W 3580   5.669  15.352   6.400 -0.1268  0.1564 -0.0731
 2717W        W 3581  24.063  20.785  25.688  0.2278  0.1777 -0.3978
 2718W        W 3582  27.321  12.333   1.994 -0.1823 -0.1324  0.0464
 2719W        W 3583  25.276   1.751  10.908 -0.0997 -0.0539 -0.1743
 2720W        W 3584   7.054  11.363   3.223 -0.2127  0.0465 -0.1209
 2721W        W 3585   5.202  28.823  15.409  0.3519  0.1746  0.3071
 2722W        W 3586   5.190  26.040   4.407 -0.0259 -0.2921 -0.1234
 2723W        W 3587  22.411   5.238   2.452  0.2586  0.0445  0.0417
 2724W        W 3588  26.317  19.116  29.102  0.2944  0.1663 -0.2268
 2725W        W 3589   3.291  22.674   6.237 -0.1276  0.1574  0.1071
 2726W        W 3590  21.861  23.269  21.535 -0.0226 -0.1847 -0.1941
 2727W        W 3591  21.544   6.410  14.661  0.0445 -0.0086  0.1604
 2728W        W 3592  20.087  20.050  11.500 -0.0901  0.1889 -0.1672
 2729W        W 3593   6.836   9.451   2.530 -0.0480  0.2887  0.2291
 2730W        W 3594   5.047   2.351  17.026 -0.2072 -0.0797 -0.0191
 2731W        W 3595   1.932   1.711  20.417  0.2750 -0.1986  0.1430
 2732W        W 3596  20.262   1.377  13.631 -0.0630 -0.1483  0.3246
 2733W        W 3597  13.882  10.160  25.195  0.1972  0.1391  0.1512
 2734W        W 3598   8.623  20.611   1.988 -0.0094 -0.1036 -0.0416
 2735W        W 3599   2.387  10.831  11.792  0.0635 -0.2768 -0.1031
 2736W        W 3600   9.871   2.852  14.817 -0.3615  0.2679  0.1707
 2737W        W 3601  12.137   3.614  17.386 -0.0939  0.1222 -0.0578
 2738W        W 3602   2.757   2.305  16.045 -0.3747  0.0503  0.0303
 2739W        W 3603   4.832   2.424  24.751 -0.1731  0.0418  0.4592
 2740W        W 3604  27.493   8.610  27.296  0.2343  0.3238 -0.1219
 2741W        W 3605   1.122  15.179  22.860  0.3054 -0.0846  0.0640
 2742W        W 3606  16.759   5.885  19.090 -0.2771 -0.2902 -0.2179
 2743W        W 3607  27.115  10.904  18.324 -0.0186 -0.0148  0.0554
 2744W        W 3608  12.732   8.592  27.062 -0.1625 -0.0164 -0.2760
 2745W        W 3609   1.362  22.520  13.490  0.1048  0.2254 -0.0186
 2746W        W 3610   1.743   5.149  11.961  0.3950 -0.2611  0.0327
 2747W        W 3611   7.201  19.431  18.858 -0.3135  0.2067 -0.1111
 2748W        W 3612   1.444  24.830  10.533 -0.4302 -0.0015  0.1374
 2749W        W 3613  17.230  15.707   2.873  0.0590  0.1576 -0.0764
 2750W        W 3614   9.406  27.038  28.116  0.0550  0.0657  0.2076
 2751W        W 3615  16.418  12.904  23.357  0.0802 -0.0561 -0.0951
 2752W        W 3616   9.235  12.397   4.780  0.1013  0.0872  0.3068
 2753W        W 3617   0.704  28.193  16.010 -0.0085 -0.0005 -0.0471
 2754W        W 3618  22.343   4.390  20.832  0.1365 -0.1732  0.3693
 2755W        W 3619  15.130   1.973   8.363  0.1988 -0.0294  0.1007
 2756W        W 3620   8.997  21.403  19.071 -0.4317 -0.0071  0.1582
 2757W        W 3621  15.488  22.975  26.658 -0.1854 -0.0679 -0.2517
 2758W        W 3622   3.844  24.636  16.262  0.0196 -0.0456 -0.1326
 2759W        W 3623  27.499  21.731   9.179  0.1760 -0.0802  0.0009
 2760W        W 3624  25.054   6.480  16.091 -0.4366 -0.1432 -0.0667
 2761W        W 3625  28.955  27.023   9.417  0.1602 -0.0261  0.1896
 2762W        W 3626  24.605  17.459  22.774 -0.0532  0.1429  0.0061
 2763W        W 3627  11.507   2.312   3.609 -0.0216 -0.0272  0.1416
 2764W        W 3628  23.546  18.079  19.846  0.3830  0.0202 -0.1864
 2765W        W 3629   8.698   0.410  22.907 -0.2778 -0.2863 -0.0976
 2766W        W 3630  11.052  15.511  25.806  0.3162  0.1080  0.0277
 2767W        W 3631  10.917   0.580  19.730  0.0833  0.2289 -0.1662
 2768W        W 3632   9.623  25.219  28.206 -0.1487 -0.0352 -0.0013
 2769W        W 3633  13.306   2.333   6.757 -0.1334 -0.0113 -0.1240
 2770W        W 3634   4.097   7.257  20.427  0.1255 -0.0611  0.0099
 2771W        W 3635  24.852   5.429  10.611 -0.0758  0.1481 -0.1492
 2772W        W 3636   7.703  11.444  20.803  0.0973  0.1045 -0.0111
 2773W        W 3637  27.054   8.888  15.467  0.0651  0.0940  0.0561
 2774W        W 3638  10.401  12.444   9.525 -0.0050 -0.1230  0.0950
 2775W        W 3639  24.379   4.694   1.157  0.0222  0.1914 -0.0181
 2776W        W 3640  25.236   3.847  11.734 -0.3623  0.0398 -0.2424
 2777W        W 3641  10.692  20.270  26.889 -0.1295  0.0509  0.1154
 2778W        W 3642  13.558   2.199  22.938  0.0762 -0.1120 -0.0600
 2779W        W 3643   9.524  25.576   8.925  0.1547  0.6183  0.0289
 2780W        W 3644  19.101   9.792   3.468  0.2194  0.0139  0.0091
 2781W        W 3645   4.910  27.978  13.783 -0.2180  0.0278  0.0983
 2782W        W 3646   9.737  24.386  12.136 -0.1235 -0.1184  0.1643
 2783W        W 3647   1.747  28.939  16.722 -0.3285  0.0737 -0.1687
 2784W        W 3648   6.964   5.739   3.132 -0.0364 -0.0897 -0.1239
 2785W        W 3649   0.277  11.914  20.420  0.0027  0.0177  0.0053
 2786W        W 3650   9.673  12.686   0.054 -0.0618  0.2005  0.1523
 2787W        W 3651  26.092  14.504   9.018  0.0666  0.2133 -0.2158
 2788W        W 3652  10.025  15.219   4.321 -0.0763 -0.0685 -0.0346
 2789W        W 3653   7.170   0.958  16.044 -0.1958 -0.1647  0.2970
 2790W        W 3654  28.201   2.191  22.249  0.1042  0.2471  0.0873
 2791W        W 3655  23.016  17.149  21.415  0.2907  0.4770 -0.0138
 2792W        W 3656  22.349  26.967  20.637  0.2223 -0.1649  0.0813
 2793W        W 3657  21.426  18.189  21.222 -0.2067 -0.1287  0.2862
 2794W        W 3658  27.461  28.359  17.070  0.1079 -0.1821  0.1320
 2795W        W 3659  27.555   6.811   4.180  0.1039  0.1016  0.0143
 2796W        W 3660  22.309  11.350  20.750 -0.3857 -0.1234  0.1154
 2797W        W 3661  24.236   1.990  10.033  0.1206  0.2226 -0.1002
 2798W        W 3662  10.437  18.971   6.255 -0.1375 -0.1699  0.2941
 2799W        W 3663  27.135  13.977  26.408  0.2799  0.2699  0.0018
 2800W        W 3664   5.066  23.043  24.458  0.0921 -0.0939  0.0408
 2801W        W 3665  19.114  24.945  15.088 -0.0509  0.0346 -0.0506
 2802W        W 3666   0.997  19.303  23.026 -0.1524 -0.2526 -0.2486
 2803W        W 3667  24.798  11.486  23.577  0.0059 -0.0449  0.0435
 2804W        W 3668   7.543  20.557  18.675 -0.1749 -0.0089  0.0361
 2805W        W 3669  21.965   1.374  29.071  0.2080 -0.0202  0.0644
 2806W        W 3670  18.769  28.580  24.893 -0.0539 -0.1538 -0.0335
 2807W        W 3671  25.850  13.752  26.435 -0.1224  0.1304 -0.2047
 2808W        W 3672  17.498  26.381   9.089 -0.2712 -0.0537 -0.1358
 2809W        W 3673   5.083  26.917   8.585  0.0611  0.0573 -0.0804
 2810W        W 3674   6.744  17.599  23.700 -0.1251 -0.1762 -0.0662
 2811W        W 3675  25.755  19.050   7.205  0.0916  0.1595 -0.0651
 2812W        W 3676  21.059   8.684  24.855  0.0516 -0.0588 -0.0568
 2813W        W 3677  24.296  26.112  22.811  0.1081  0.4924  0.0914
 2814W        W 3678  22.341  16.487   6.079 -0.2447 -0.1837 -0.0819
 2815W        W 3679   2.808   9.741  26.470  0.0295 -0.1697  0.1831
 2816W        W 3680  18.467   6.898  12.922 -0.0444 -0.0431  0.0509
 2817W        W 3681   8.991  24.015  20.420 -0.0213  0.0074 -0.1476
 2818W        W 3682  28.086  27.484  18.640 -0.2608 -0.1139 -0.0633
 2819W        W 3683  10.870   7.702  23.389  0.1030  0.3791 -0.2388
 2820W        W 3684   2.083  13.460  25.059 -0.1535  0.3770  0.4081
 2821W        W 3685   6.566  20.071  15.595 -0.0371  0.1650 -0.1789
 2822W        W 3686  24.900   5.024  10.912 -0.3313 -0.1615  0.0023
 2823W        W 3687  23.658   4.025   2.122  0.0412  0.1080  0.0751
 2824W        W 3688  20.063  14.344   8.443  0.1026  0.0862 -0.0689
 2825W        W 3689   7.142  27.464  21.518  0.3451 -0.1593 -0.0527
 2826W        W 3690   1.510  11.334  16.874  0.1248  0.2192 -0.1658
 2827W        W 3691   0.773  19.476  24.248 -0.0689 -0.1374 -0.1435
 2828W        W 3692  14.074  25.293  24.100 -0.0940 -0.0503 -0.0687
 2829W        W 3693  11.846  13.276  13.714 -0.2394 -0.1449  0.0958
 2830W        W 3694   7.199   3.612  15.346 -0.2503  0.3283  0.2183
 2831W        W 3695   7.249  23.597  10.039 -0.2535  0.2064 -0.2522
 2832W        W 3696  10.491  12.550  27.208 -0.0555 -0.0744 -0.1599
 2833W        W 3697  25.507  12.982  20.573  0.5360  0.4964 -0.1592
 2834W        W 3698  25.800   2.260  25.388 -0.0575 -0.3803 -0.0222
 2835W        W 3699  11.841   0.625  22.740  0.5613  0.2161 -0.0529
 2836W        W 3700   0.046   1.415  19.613  0.3697 -0.4897  0.2308
 2837W        W 3701   3.598  25.086  27.774  0.0265  0.1020  0.2184
 2838W        W 3702   7.959  25.932  26.967  0.1735  0.1124  0.2374
 2839W        W 3703   9.082   8.921  11.552 -0.0391  0.0690 -0.0953
 2840W        W 3704   3.515  15.868   3.030 -0.0164 -0.0807  0.1350
 2841W        W 3705  18.671  27.931  15.310  0.1999 -0.0404  0.3301
 2842W        W 3706   3.546  21.013  17.214  0.0571  0.1653  0.0699
 2843W        W 3707  10.015   6.481  23.832 -0.1693  0.0027  0.1118
 2844W        W 3708   4.769  14.148  25.589  0.4634  0.2295  0.2511
 2845W        W 3709   9.013  14.975   7.801  0.0311  0.0038 -0.1224
 2846W        W 3710  28.867  20.732  22.122 -0.3117  0.0362 -0.1122
 2847W        W 3711  26.724  14.813  17.574 -0.0169 -0.3057 -0.1533
 2848W        W 3712   1.010   5.134   4.283 -0.0766 -0.1292 -0.1852
 2849W        W 3713   2.015   6.198  11.800 -0.2193  0.0270 -0.2715
 2850W        W 3714  17.777  23.216  18.622  0.4126  0.0906  0.4100
 2851W        W 3715  12.163  24.113  27.972  0.2432 -0.0578  0.1760
 2852W        W 3716  15.922  11.934  28.213 -0.0019 -0.0359 -0.0237
 2853W        W 3717  10.023  16.334  15.506  0.0027  0.1215  0.0932
 2854W        W 3718   2.443  26.229   9.912 -0.2296  0.3105 -0.1905
 2855W        W 3719  23.552  22.474  28.818 -0.2576  0.0818  0.1130
 2856W        W 3720  11.798  27.939  11.475 -0.3417 -0.1663  0.1504
 2857W        W 3721   9.790   7.556   9.472 -0.0096 -0.1623  0.0930
 2858W        W 3722   5.286   3.370  21.411 -0.1336  0.0193  0.1609
 2859W        W 3723   9.410  18.704  27.947 -0.1613  0.2816  0.1537
 2860W        W 3724   2.180  28.205  12.722  0.0473 -0.1083 -0.2026
 2861W        W 3725   1.693   7.234   7.380 -0.2491  0.2764 -0.3410
 2862W        W 3726   5.621   4.717  20.252  0.2971 -0.0181  0.2908
 2863W        W 3727  14.873  21.021  19.276  0.2980 -0.1705 -0.0163
 2864W        W 3728  29.114   4.742  12.121 -0.0393  0.1155 -0.0656
 2865W        W 3729   9.870  24.056   9.425  0.0901  0.0948  0.0402
 2866W        W 3730  17.015  19.051  16.048 -0.0502 -0.0603 -0.2310
 2867W        W 3731  13.453   2.997  13.127  0.0840  0.0695  0.1673
 2868W        W 3732  20.626   7.545  17.287 -0.1283  0.2513 -0.1887
 2869W        W 3733  10.341  18.172  21.870 -0.2000  0.2875 -0.0466
 2870W        W 3734  14.889  21.610   0.036 -0.0357 -0.1393 -0.0089
 2871W        W 3735   3.845  26.102   8.409 -0.1985 -0.1398  0.1855
 2872W        W 3736  17.033  15.802  27.541  0.3935  0.2659  0.2844
 2873W        W 3737  27.252   0.304  12.165 -0.0714 -0.0917 -0.0468
 2874W        W 3738  12.029  16.450  11.522  0.0210 -0.1023 -0.2503
 2875W        W 3739   2.053  26.460  23.703 -0.0130  0.0872  0.0458
 2876W        W 3740   4.595  16.803  18.820 -0.0783 -0.0314 -0.0362
 2877W        W 3741  16.936   5.704  25.293  0.0195  0.1109 -0.0656
 2878W        W 3742  12.815  27.963  19.621 -0.1044 -0.1321 -0.1538
 2879W        W 3743  27.083   8.747  19.631  0.1143 -0.4257  0.0904
 2880W        W 3744  28.036   6.570  20.430  0.3584  0.2323  0.2475
 2881W        W 3745  28.229  28.617  28.892 -0.0507 -0.1686  0.2467
 2882W        W 3746  25.176  14.724  16.345  0.1175  0.4675  0.2766
 2883W        W 3747  26.767   1.124  25.605  0.2595 -0.1875  0.2518
 2884W        W 3748  17.605  23.923  19.786  0.0137 -0.0615 -0.3832
 2885W        W 3749  20.194  20.947   1.490 -0.4151 -0.1026 -0.1216
 2886W        W 3750   1.971  23.551  17.612  0.0142  0.0735 -0.3876
 2887W        W 3751   5.715  22.120  20.007 -0.2549  0.0217  0.1315
 2888W        W 3752   7.213  11.155  24.045  0.0454 -0.2194 -0.2561
 2889W        W 3753   4.191   4.683  14.450  0.0115  0.1879 -0.0553
 2890W        W 3754   9.966  25.003   1.452 -0.1593 -0.1771 -0.0982
 2891W        W 3755  14.106  18.277  24.955  0.0989  0.4419 -0.1548
 2892W        W 3756   1.692   5.150  22.169 -0.1552 -0.0048  0.0058
 2893W        W 3757  14.885   7.886  17.695  0.2520 -0.1055 -0.0553
 2894W        W 3758   4.124   9.718   3.119 -0.1346  0.0966  0.1433
 2895W        W 3759  25.917   1.808  27.951 -0.3016 -0.2814 -0.2874
 2896W        W 3760  21.080  19.818  22.317  0.1524  0.1487  0.0751
 2897W        W 3761   1.075  10.277  20.575 -0.3269 -0.1371  0.1284
 2898W        W 3762  10.832  16.892  23.196 -0.1012 -0.0167 -0.1755
 2899W        W 3763  15.480  10.009  15.535  0.1975  0.2740  0.1699
 2900W        W 3764   6.272   5.766  18.517  0.2173  0.0357  0.0344
 2901W        W 3765   5.642  14.191   7.504  0.0996 -0.0195 -0.1622
 2902W        W 3766  12.711   2.260  20.467 -0.2347  0.1134 -0.1039
 2903W        W 3767   4.495   6.972   0.820 -0.0425  0.0982 -0.0013
 2904W        W 3768  15.773   6.812   1.380 -0.1320  0.2211 -0.0129
 2905W        W 3769   4.101  29.113  25.018  0.0463 -0.0352 -0.0291
 2906W        W 3770  18.180   8.855  28.675  0.1372  0.0216  0.0326
 2907W        W 3771  10.235   4.330   2.145 -0.0372  0.3698 -0.0804
 2908W        W 3772   4.634  19.232   7.867  0.1436 -0.2023 -0.0637
 2909W        W 3773  17.250  21.640  19.074 -0.0043  0.0290  0.0395
 2910W        W 3774   1.719  10.157  21.493 -0.0224 -0.0207 -0.1494
 2911W        W 3775  10.255   0.493  18.939 -0.0195 -0.2483  0.0587
 2912W        W 3776  23.290  21.439  23.260  0.2948 -0.3735  0.2905
 2913W        W 3777   4.476  23.413   8.681  0.1287 -0.0295  0.1350
 2914W        W 3778   4.312  20.558  24.564 -0.0666 -0.1265 -0.0803
 2915W        W 3779  21.711  23.796   2.526  0.1194  0.0921  0.0294
 2916W        W 3780  18.670  25.444   2.774 -0.0236  0.2224 -0.0439
 2917W        W 3781  24.238  11.386  23.723 -0.1294 -0.1693  0.2862
 2918W        W 3782  20.520  28.489  18.006 -0.0431  0.1463 -0.1653
 2919W        W 3783  12.400   3.380  10.601  0.1360 -0.3103  0.1913
 2920W        W 3784  26.256  21.595   1.087  0.0771  0.0259 -0.0750
 2921W        W 3785  20.196   8.023   9.001 -0.2473  0.3905  0.0606
 2922W        W 3786   5.976  10.321  14.288  0.1930  0.0775  0.0797
 2923W        W 3787  21.350  27.338   2.333  0.0366 -0.0177  0.0127
 2924W        W 3788   7.094   2.611  19.011  0.2100  0.0827 -0.1087
 2925W        W 3789  16.014   5.021  26.978  0.1822 -0.1010 -0.1681
 2926W        W 3790   1.231  16.679   1.629  0.3195 -0.1888  0.0914
 2927W        W 3791   3.566   9.724   0.949  0.1280  0.0192  0.3038
 2928W        W 3792  18.731   4.301  20.766 -0.1765 -0.1072  0.3786
 2929W        W 3793   7.205   5.883   8.208  0.0303 -0.0576  0.4601
 2930W        W 3794   7.330  26.072   6.306 -0.1428 -0.1188 -0.0517
 2931W        W 3795   4.087  28.627  15.955 -0.0116 -0.3363  0.4237
 2932W        W 3796   4.707  15.166   3.757 -0.1988  0.0453 -0.0714
 2933W        W 3797  22.627  11.195  24.804 -0.2084  0.1235 -0.1911
 2934W        W 3798  22.406  13.634  14.872  0.1216 -0.1989  0.0562
 2935W        W 3799   5.871  17.497   5.301 -0.1324  0.1559 -0.0702
 2936W        W 3800  12.935  24.344  12.016 -0.0784  0.0136 -0.1902
 2937W        W 3801   8.944   3.965  20.195  0.0499  0.2044  0.5325
 2938W        W 3802   1.980  25.488  12.034 -0.0545 -0.0708 -0.1029
 2939W        W 3803  25.931  12.354  28.542  0.1098 -0.0793  0.2035
 2940W        W 3804   2.804   8.474  14.397  0.5968  0.3003  0.2868
 2941W        W 3805   5.305   8.304   1.955  0.3258  0.3169  0.3716
 2942W        W 3806   3.758   8.259  16.188  0.0233 -0.2366 -0.2806
 2943W        W 3807  13.453  22.543  18.217  0.2912 -0.1247  0.1121
 2944W        W 3808  18.847   5.982  13.019  0.0773  0.1719 -0.0598
 2945W        W 3809   3.097   7.190   4.857  0.0971  0.3075  0.0017
 2946W        W 3810  15.948  21.494   5.726  0.1762  0.2870 -0.2386
 2947W        W 3811   1.581   5.514  27.020  0.0598  0.1318 -0.1198
 2948W        W 3812  14.680  12.081  22.273 -0.1965 -0.0091  0.1095
 2949W        W 3813   4.058  10.499  22.947  0.2714 -0.0248  0.0701
 2950W        W 3814  18.812   9.462   3.789 -0.0880  0.1322  0.2719
 2951W        W 3815  22.398  26.993  23.702 -0.4313 -0.1354 -0.0523
 2952W        W 3816  19.452   3.213  20.290  0.0552 -0.0908  0.0067
 2953W        W 3817  16.176   6.864   9.093  0.2648  0.0714 -0.0720
 2954W        W 3818   0.954   5.720  10.676  0.1031  0.1175  0.0854
 2955W        W 3819  26.131   0.806  24.973 -0.1190 -0.3781 -0.1009
 2956W        W 3820  16.953   7.853  11.954 -0.0869 -0.5396  0.2329
 2957W        W 3821   2.458  19.028  16.909 -0.1070 -0.0190 -0.4565
 2958W        W 3822   2.813   7.007  18.667 -0.0652 -0.2192 -0.0122
 2959W        W 3823  10.540   8.897   2.558  0.3485  0.0156  0.1046
 2960W        W 3824  11.848  25.356  14.076  0.0889 -0.0281  0.2811
 2961W        W 3825  11.719   6.522   3.098 -0.0619 -0.3433 -0.2406
 2962W        W 3826  28.320  26.512   5.766 -0.0612  0.1096  0.0323
 2963W        W 3827  27.778  27.447   9.795 -0.0054  0.2788  0.0645
 2964W        W 3828  17.936  26.331  27.614 -0.1920  0.0612  0.0713
 2965W        W 3829   5.020   2.346  19.822 -0.3410  0.0409 -0.0799
 2966W        W 3830  17.980  20.192  27.556  0.2813  0.1309 -0.1381
 2967W        W 3831   5.906  22.007   7.689 -0.0140 -0.3495  0.0077
 2968W        W 3832  16.968   2.646  10.722  0.0795  0.0873 -0.0958
 2969W        W 3833  19.572  16.133  19.947 -0.0917 -0.1954  0.0192
 2970W        W 3834   5.874   4.840  25.138  0.1813 -0.1840  0.0767
 2971W        W 3835   7.755  14.907  17.179 -0.2717 -0.0583  0.2405
 2972W        W 3836  10.742  25.857  10.529  0.0454  0.2959 -0.0354
 2973W        W 3837   2.862  12.335   6.721 -0.1866 -0.0913  0.3235
 2974W        W 3838   2.125   1.044  12.883  0.1250 -0.5756  0.2593
 2975W        W 3839  18.704  21.712  13.015 -0.1201 -0.1446 -0.0676
 2976W        W 3840   4.061  28.583   4.542 -0.3503  0.2122  0.2024
 2977W        W 3841   5.074   1.037   6.722 -0.1873 -0.5027  0.2219
 2978W        W 3842   1.678   8.706  16.009  0.1216  0.0198 -0.1896
 2979W        W 3843   2.358  13.044   3.274 -0.1081  0.0212 -0.2961
 2980W        W 3844   9.369  11.273  11.864 -0.0241  0.1349  0.3227
 2981W        W 3845  14.100   0.378  19.942 -0.3729  0.0443 -0.0797
 2982W        W 3846   1.408  12.346  19.937 -0.0879 -0.0787  0.0617
 2983W        W 3847   0.112  21.875  22.344 -0.0013 -0.1923  0.0102
 2984W        W 3848   0.006   3.133  25.334 -0.2803  0.0286  0.2979
 2985W        W 3849   8.566   3.262  18.823  0.2866  0.3671  0.2232
 2986W        W 3850   4.030  27.032  16.223  0.1691  0.2013 -0.1095
 2987W        W 3851  21.484  21.265  27.939  0.2477 -0.2051  0.1379
 2988W        W 3852  24.504  13.166   3.624  0.1388 -0.1543  0.1483
 2989W        W 3853   5.499  16.040  13.299  0.2200 -0.1953 -0.3498
 2990W        W 3854  19.885  19.712  15.515  0.0413 -0.0865 -0.0637
 2991W        W 3855  26.492  27.652   4.082  0.0547 -0.0445  0.1005
 2992W        W 3856  25.349   7.258  25.762 -0.2294  0.3731  0.0123
 2993W        W 3857  23.138  19.537   3.179 -0.2032 -0.1183  0.1463
 2994W        W 3858  13.381  23.059   3.970 -0.1465 -0.1012  0.1480
 2995W        W 3859   4.247  23.166  10.329 -0.0714 -0.1189  0.1529
 2996W        W 3860   3.261   3.225  20.963  0.1560  0.0735  0.2189
 2997W        W 3861   0.081  12.773   1.377  0.0566  0.0443  0.0313
 2998W        W 3862  15.398   4.518  26.139  0.0264  0.1052  0.0643
 2999W        W 3863   6.772   3.568   3.322 -0.2999  0.3865 -0.1017
 3000W        W 3864   6.553  25.286  20.747 -0.0370 -0.1941 -0.0750
 3001W        W 3865  27.742   9.390   6.036  0.3373 -0.0601 -0.1660
 3002W        W 3866   9.130  22.182  22.229  0.0980 -0.0542  0.3019
 3003W        W 3867  19.055  24.150  22.976 -0.1732  0.2585  0.2646
 3004W        W 3868   0.921  16.220   6.378 -0.1469  0.0200  0.2813
 3005W        W 3869  24.017   0.786  13.284 -0.1145  0.2389  0.1131
 3006W        W 3870  20.362  15.849   8.543 -0.3198 -0.0663 -0.2040
 3007W        W 3871   2.124   8.960  27.928  0.0946  0.1166 -0.4765
 3008W        W 3872  29.073   4.212  23.771  0.1482 -0.1072  0.2008
 3009W        W 3873  24.110   1.181   9.577 -0.2430 -0.2250 -0.0878
 3010W        W 3874   7.311  18.425  17.183 -0.0774  0.1174  0.2651
 3011W        W 3875  22.451  17.981  18.708 -0.1322 -0.2081  0.0033
 3012W        W 3876   2.107  18.398   7.338  0.1417 -0.0884  0.1998
 3013W        W 3877   9.121   1.543  21.543 -0.0565  0.4857  0.3053
 3014W        W 3878  27.822  22.986   1.421 -0.1609 -0.0144  0.0974
 3015W        W 3879   4.228   7.813   3.053 -0.0340 -0.0060  0.0320
 3016W        W 3880  12.524   6.286  25.501 -0.0303  0.0593 -0.1166
 3017W        W 3881  14.205  12.777  27.834 -0.0894 -0.2143  0.1484
 3018W        W 3882   0.364  26.515  20.559 -0.1385 -0.0260  0.0593
 3019W        W 3883  17.357  28.042   5.128 -0.0875  0.1145 -0.0203
 3020W        W 3884  12.340  26.198   7.660 -0.1139 -0.0593 -0.1461
 3021W        W 3885   4.372   0.736   8.279  0.0948  0.1922  0.1734
 3022W        W 3886   6.878   9.111  18.333  0.1098 -0.1348  0.0602
 3023W        W 3887   1.231  21.581  17.508 -0.0373 -0.1512  0.0933
 3024W        W 3888   9.353  12.726  23.945  0.0738 -0.4320  0.3390
 3025W        W 3889  10.714   1.998   2.392  0.1245 -0.1797  0.0393
 3026W        W 3890  15.275   7.252  10.812 -0.0455  0.0487 -0.0350
 3027W        W 3891   7.606   9.995  18.903  0.3301 -0.0253  0.0420
 3028W        W 3892  28.809  15.389   7.321 -0.2258 -0.0663 -0.0117
 3029W        W 3893   7.380  16.201  26.241 -0.3870 -0.2867  0.2454
 3030W        W 3894   3.584   6.712  20.283  0.0098 -0.2062 -0.0074
 3031W        W 3895  28.801   6.355  21.508  0.2534 -0.0305 -0.2415
 3032W        W 3896   1.143  17.324  22.298  0.2689  0.1107  0.1823
 3033W        W 3897  19.258   1.791  23.239 -0.0406  0.2587  0.0087
 3034W        W 3898   4.875   7.411   2.796 -0.2320 -0.0002 -0.2107
 3035W        W 3899  11.420   1.341  19.080 -0.0289  0.1383  0.2636
 3036W        W 3900  22.596  26.033  28.749  0.3255 -0.0656  0.0320
 3037W        W 3901   4.139   8.725   4.554  0.0754  0.0628 -0.2101
 3038W        W 3902  22.075  13.290   4.500 -0.1667 -0.2571 -0.3298
 3039W        W 3903   8.249   0.966  23.677  0.0438  0.2281 -0.3753
 3040W        W 3904  22.132  11.242  28.403 -0.0199  0.3379  0.1211
 3041W        W 3905   3.904  19.235   3.624 -0.1287 -0.3259 -0.2022
 3042W        W 3906  25.798  15.726  18.988 -0.1624  0.2261 -0.2099
 3043W        W 3907   9.656  15.565  14.332  0.1806 -0.2071  0.0480
 3044W        W 3908  19.524  26.598  17.268  0.1896  0.1247  0.0675
 3045W        W 3909  23.040  22.672   5.444 -0.1853 -0.4681  0.1604
 3046W        W 3910   8.465  28.985  15.819  0.3786  0.0337 -0.1886
 3047W        W 3911  22.344  14.203  16.721 -0.4798 -0.0167  0.3758
 3048W        W 3912   7.460  28.686  24.012  0.1665 -0.3924 -0.2652
 3049W        W 3913   6.388  25.421  19.001  0.2632 -0.0065  0.0145
 3050W        W 3914   6.423   8.094  14.000 -0.0720  0.2043 -0.3799
 3051W        W 3915   8.603  14.759   5.065 -0.1228 -0.0065  0.0436
 3052W        W 3916  14.994  12.584  27.110 -0.0878 -0.0798  0.1377
 3053W        W 3917   4.080  24.341  14.498  0.1955 -0.0309 -0.2167
 3054W        W 3918   7.377  13.005  13.808  0.0461 -0.1845  0.0377
 3055W        W 3919   6.152  10.388  26.605  0.1307  0.1734  0.2821
 3056W        W 3920   6.158  27.268   5.347 -0.2588  0.1994 -0.3684
 3057W        W 3921  25.304   0.929  22.330  0.1220 -0.1002 -0.0184
 3058W        W 3922  26.186   7.944  16.260  0.0214  0.0209  0.0629
 3059W        W 3923   9.834  11.240   9.373 -0.2238  0.3547  0.2215
 3060W        W 3924   4.763  13.652  20.416  0.0169 -0.1379 -0.0876
 3061W        W 3925  24.527  12.916  14.616 -0.5072 -0.0192 -0.2707
 3062W        W 3926   0.411  18.014   9.377  0.0792 -0.2273 -0.1901
 3063W        W 3927   3.800   8.029  14.398 -0.2178 -0.3964 -0.0905
 3064W        W 3928   4.438  19.732   4.901  0.0277  0.1946 -0.1049
 3065W        W 3929  21.676  25.400  22.654  0.0840 -0.0975  0.0741
 3066W        W 3930  16.988  23.169   8.576 -0.0716  0.2229 -0.1367
 3067W        W 3931   3.466  10.119   1.483 -0.0104 -0.1499 -0.1338
 3068W        W 3932   7.578   3.517   5.311  0.2778 -0.1146 -0.0664
 3069W        W 3933   0.708  10.156   3.564  0.1104  0.1039  0.3946
 3070W        W 3934  25.698   3.617  18.426  0.1109  0.1063  0.3637
 3071W        W 3935   6.266   2.494  15.744 -0.1906 -0.2957 -0.2213
 3072W        W 3936  13.169  23.461  16.914 -0.0233 -0.1217 -0.2410
 3073W        W 3937  12.191  26.320  16.654  0.4255 -0.2983  0.0627
 3074W        W 3938   1.367  22.789   5.875  0.1145 -0.1489  0.2346
 3075W        W 3939   6.296  24.240  15.099 -0.2852 -0.0290 -0.1169
 3076W        W 3940  14.605  23.470  10.424 -0.0439  0.1674  0.1604
 3077W        W 3941   8.031  16.332  21.095 -0.0049  0.0672  0.0862
 3078W        W 3942   6.404   3.396  21.530 -0.2359  0.0888  0.1344
 3079W        W 3943  14.880  10.049  19.652 -0.2354 -0.1476  0.1147
 3080W        W 3944   4.458  23.599   4.955  0.2678 -0.1675  0.0746
 3081W        W 3945  16.176   2.623  25.242 -0.0936 -0.0940 -0.1034
 3082W        W 3946  28.421  23.980  17.695  0.1139  0.0346 -0.2800
 3083W        W 3947   0.339  12.796  27.504  0.0824 -0.0284  0.0277
 3084W        W 3948  25.035  14.575   0.907  0.0633 -0.0619  0.1795
 3085W        W 3949   8.974  20.577  22.721  0.1490 -0.0770  0.3834
 3086W        W 3950   7.070  13.252   7.987  0.0808  0.1535  0.5656
 3087W        W 3951   6.945   4.972  29.120  0.0817 -0.2039  0.0187
 3088W        W 3952   8.458   1.668  16.557  0.0142  0.0343  0.0845
 3089W        W 3953   9.056  24.669  22.455  0.0819 -0.2672 -0.0799
 3090W        W 3954   9.424  13.671  28.764  0.0768  0.1884  0.1317
 3091W        W 3955   9.240  26.672  25.872  0.2112 -0.1425  0.0440
 3092W        W 3956  13.571  25.437   1.382  0.1317  0.0274  0.2357
 3093W        W 3957  12.590   7.298  24.678  0.0922  0.2135 -0.1593
 3094W        W 3958   7.117  28.251  15.989 -0.0680  0.2505  0.1099
 3095W        W 3959  21.508  18.465   2.133  0.0424 -0.3744 -0.1661
 3096W        W 3960  26.112  27.381   4.171  0.1179 -0.0172  0.0536
 3097W        W 3961  22.286   9.800   5.785 -0.1620 -0.2836  0.1589
 3098W        W 3962  24.496  23.038   7.681  0.0423  0.0161 -0.0131
 3099W        W 3963   5.749   1.380  24.836  0.0167  0.2514  0.0660
 3100W        W 3964  12.914  15.778  18.132 -0.0303  0.2555 -0.1250
 3101W        W 3965   9.193   0.188   0.882  0.3687  0.2127  0.0709
 3102W        W 3966   9.714  19.277   3.798  0.2912  0.0668 -0.2440
 3103W        W 3967  27.803   3.375  10.063 -0.0655 -0.0624  0.1832
 3104W        W 3968  26.318   3.901   8.190 -0.2002  0.4864 -0.0821
 3105W        W 3969  29.018  27.028  25.355 -0.2651 -0.0127  0.2404
 3106W        W 3970   6.102  24.229  26.236 -0.1669  0.0603  0.0461
 3107W        W 3971  12.958   9.453  21.623 -0.2368  0.1035 -0.1682
 3108W        W 3972   3.357  28.132  11.728  0.3058  0.1134 -0.3354
 3109W        W 3973  28.093   5.481  15.077  0.2562 -0.0069 -0.0256
 3110W        W 3974   4.395   6.830   9.268 -0.1908 -0.1576 -0.0762
 3111W        W 3975  22.347  14.357  27.670  0.3313 -0.1057  0.0000
 3112W        W 3976  17.664  25.947   2.688 -0.1014 -0.0649 -0.0111
 3113W        W 3977  22.239  15.913  11.016  0.4247  0.0245 -0.0108
 3114W        W 3978  18.357  28.466  26.227 -0.2806  0.0599 -0.1423
 3115W        W 3979  29.108   6.655   6.102 -0.1367  0.0446 -0.0852
 3116W        W 3980   8.158   7.448   5.889  0.0720  0.1751  0.0863
 3117W        W 3981   8.458   6.639  23.997 -0.2300 -0.0355  0.2024
 3118W        W 3982  24.262  25.015  13.589  0.0571  0.1988  0.0629
 3119W        W 3983   1.713  24.742   2.906 -0.0186  0.1184  0.4875
 3120W        W 3984  16.372  23.033   3.561  0.2388 -0.0651 -0.0854
 3121W        W 3985   1.012  10.882   3.201  0.1657  0.1861 -0.0037
 3122W        W 3986   3.636   1.058  18.168  0.2236 -0.1677  0.2338
 3123W        W 3987   1.079  26.090  26.331 -0.1993  0.1184 -0.2467
 3124W        W 3988   5.110  24.022  26.280  0.0428  0.1872 -0.3534
 3125W        W 3989  21.084  18.964  25.153  0.3641  0.0324 -0.1918
 3126W        W 3990  18.853   8.106  14.345 -0.1307  0.0067  0.0778
 3127W        W 3991  13.132  26.327   6.511 -0.0679  0.0592 -0.1060
 3128W        W 3992   1.104   6.563  15.293 -0.2027 -0.0571  0.0593
 3129W        W 3993   4.658  13.131  19.447 -0.0308  0.1460 -0.3220
 3130W        W 3994   5.155  19.701  19.852 -0.0873  0.1348  0.2002
 3131W        W 3995   1.217  27.184  18.586 -0.0099 -0.3486  0.1462
 3132W        W 3996   4.903  14.172  23.927  0.3578 -0.0750 -0.0864
 3133W        W 3997   3.516  27.943  15.460  0.3025  0.0886  0.1680
 3134W        W 3998   5.833  15.371  29.042 -0.0530  0.3180  0.2415
 3135W        W 3999   0.832  19.825  25.625  0.0154 -0.2438  0.1549
 3136W        W 4000  27.171  21.284  22.413  0.0336  0.2847  0.0694
 3137W        W 4001  26.102  21.547  15.638 -0.0656  0.0475  0.1500
 3138W        W 4002  15.272   5.455  28.969 -0.1262 -0.1763  0.3600
 3139W        W 4003  17.482  16.211   3.894 -0.3842  0.2600 -0.0993
 3140W        W 4004  18.124   6.985  24.677 -0.2019  0.0217  0.2986
 3141W        W 4005  19.864  22.296  24.780  0.1669 -0.0351  0.1289
 3142W        W 4006  11.515   7.288  27.958  0.0156 -0.2402  0.3296
 3143W        W 4007  17.373   6.205  18.369  0.1414  0.0455 -0.1814
 3144W        W 4008  11.870   7.564  21.625  0.0670  0.2101 -0.0174
 3145W        W 4009   0.402   2.411  27.847 -0.1791  0.2549  0.0582
 3146W        W 4010   6.486   9.661  27.125 -0.2415 -0.1128 -0.2054
 3147W        W 4011  21.715   7.281  23.685 -0.0146  0.1638  0.0196
 3148W        W 4012   1.955   9.178  18.901  0.2287  0.1921 -0.1404
 3149W        W 4013   1.321  12.962  18.695  0.4156  0.0307 -0.2288
 3150W        W 4014  19.397   6.828   6.327  0.0844  0.1175 -0.4022
 3151W        W 4015  26.383  27.276  21.488  0.0119 -0.1986  0.3571
 3152W        W 4016  28.758   0.277  16.220  0.2556  0.0255  0.0518
 3153W        W 4017   2.108  26.219   3.117 -0.1118  0.2233  0.1182
 3154W        W 4018  26.298   0.628   7.455  0.0016 -0.4937  0.3560
 3155W        W 4019   3.770  23.237   0.561 -0.0334  0.1482 -0.0442
 3156W        W 4020  14.518  10.988   6.141  0.0902 -0.0080  0.1410
 3157W        W 4021   2.606   6.847  23.021 -0.1749  0.1832  0.0906
 3158W        W 4022  22.099  13.889  27.581  0.1963  0.1209  0.0689
 3159W        W 4023  13.520   0.357  26.833  0.3369  0.1595  0.1617
 3160W        W 4024   0.919  25.807  21.635  0.0504 -0.1410 -0.1732
 3161W        W 4025   7.551  15.083  20.734 -0.2002 -0.3580 -0.0083
 3162W        W 4026  13.727  17.576   4.741  0.0490  0.2278  0.3151
 3163W        W 4027   3.948   7.052  22.067  0.2282  0.0607 -0.0951
 3164W        W 4028   3.289   5.680   6.336 -0.2340 -0.2135 -0.0207
 3165W        W 4029  14.453  12.516  18.443 -0.1042  0.1268  0.1415
 3166W        W 4030  18.304   5.492  19.090  0.2633 -0.1340  0.3297
 3167W        W 4031  26.270  25.270  25.277  0.3760 -0.1560 -0.0376
 3168W        W 4032  24.391   6.618   2.003 -0.2564 -0.4863  0.1000
 3169W        W 4033  22.975  11.231  26.984 -0.0393 -0.0196 -0.1799
 3170W        W 4034   1.422   5.733  13.529  0.4907  0.1013 -0.0883
 3171W        W 4035  25.278   6.767  12.998 -0.2921  0.1760 -0.1167
 3172W        W 4036   8.516  19.126   7.089  0.0169  0.1569  0.2822
 3173W        W 4037   8.607  21.328  22.782 -0.2401 -0.3370 -0.0073
 3174W        W 4038  18.388  28.047  25.312 -0.1008 -0.0749 -0.0217
 3175W        W 4039   0.431  13.615  26.513  0.0342  0.2265  0.2125
 3176W        W 4040  13.765   2.429   0.528  0.1847 -0.2209 -0.1622
 3177W        W 4041  27.413   8.968  27.763 -0.0593  0.1088  0.1356
 3178W        W 4042  17.974   8.484  23.223  0.0263  0.1069 -0.0301
 3179W        W 4043  15.462   4.934  17.839  0.0344  0.0477  0.0559
 3180W        W 4044   8.431  13.193   1.346 -0.0303  0.1868 -0.1404
 3181W        W 4045   6.028   3.682   0.282 -0.0739 -0.0558 -0.0827
 3182W        W 4046  11.659   1.490   2.302  0.1489 -0.0958 -0.1698
 3183W        W 4047  27.576  25.786   9.026  0.2581  0.2599  0.0120
 3184W        W 4048  11.754  21.784  15.810 -0.0767 -0.0618  0.0170
 3185W        W 4049  23.703  21.672  16.507 -0.1535 -0.1304  0.2636
 3186W        W 4050   2.308   7.226   4.149 -0.1717 -0.0996  0.3723
 3187W        W 4051  10.187   8.700   3.487  0.1155 -0.0518 -0.2139
 3188W        W 4052  23.486   7.887   3.145  0.2805  0.0223  0.1423
 3189W        W 4053   8.752  10.370   9.170  0.2672 -0.1177 -0.1095
 3190W        W 4054  28.290  18.542   7.577  0.3738 -0.0328 -0.0859
 3191W        W 4055   8.456  12.034  22.935  0.0002 -0.1297 -0.0782
 3192W        W 4056  23.371   2.461   8.400 -0.1689 -0.1102 -0.0203
 3193W        W 4057  25.070   6.847  15.741  0.1962 -0.1308  0.0899
 3194W        W 4058   0.959   3.823  28.871 -0.1448  0.2699  0.0228
 3195W        W 4059  26.806  15.341  28.234 -0.3522 -0.1886  0.1473
 3196W        W 4060   0.728   6.040  14.537 -0.0707 -0.0448 -0.2341
 3197W        W 4061  28.114  18.609   4.950 -0.4056  0.0041 -0.2799
 3198W        W 4062   9.493  17.622   1.654  0.4188  0.2058 -0.0362
 3199W        W 4063   1.806  13.621   4.079 -0.0546 -0.0827  0.1125
 3200W        W 4064  17.372  22.031  16.682 -0.0815  0.3038 -0.0092
 3201W        W 4065  26.539   7.577  26.847  0.1041  0.4447  0.0659
 3202W        W 4066  25.835  23.076  20.381  0.1705  0.0377 -0.1916
 3203W        W 4067  16.145  23.695   6.958  0.0769  0.1463 -0.1597
 3204W        W 4068   7.689   1.228   7.544  0.0802  0.0339 -0.2367
 3205W        W 4069  23.397   9.031  24.322  0.0338 -0.1546  0.3415
 3206W        W 4070   7.689   4.188  20.345 -0.1229  0.4260  0.1719
 3207W        W 4071   0.541   7.073   1.360 -0.2758  0.2743  0.1842
 3208W        W 4072  24.567  24.466   9.491  0.0561 -0.1692 -0.0238
 3209W        W 4073  21.072   1.082  18.367 -0.0763 -0.2232  0.0108
 3210W        W 4074  23.351   2.939   7.524  0.0920  0.0247  0.0166
 3211W        W 4075  18.817  16.098  12.672 -0.0997 -0.0092 -0.3728
 3212W        W 4076  22.058   6.689  15.608  0.0985 -0.1978 -0.0386
 3213W        W 4077   1.538   3.830  20.853  0.0400 -0.0122  0.1387
 3214W        W 4078   8.333   0.471  16.213  0.0498 -0.1817 -0.0000
 3215W        W 4079  10.280   5.150  12.578  0.1818 -0.0747  0.0278
 3216W        W 4080  26.715   2.030  21.393 -0.0979 -0.0201 -0.2457
 3217W        W 4081  28.232  14.060  18.117  0.1123 -0.2408 -0.0347
 3218W        W 4082  24.806   0.382  19.435  0.1430 -0.2506  0.0723
 3219W        W 4083  17.752  28.156  20.383 -0.1528  0.0761  0.1403
 3220W        W 4084   7.409  25.126   1.187  0.0110  0.1831 -0.1101
 3221W        W 4085  10.259  18.142  22.863  0.0959  0.2066  0.1404
 3222W        W 4086  23.248   7.675   8.234 -0.0131  0.0061 -0.3919
 3223W        W 4087  12.430   0.454  25.552  0.2990  0.1246  0.0697
 3224W        W 4088   5.204   1.322  18.014 -0.1623  0.0279  0.1083
 3225W        W 4089   0.120   1.116  25.333 -0.0642 -0.2030  0.1834
 3226W        W 4090   2.728  19.870  13.556 -0.3319  0.0291 -0.3065
 3227W        W 4091  10.926  14.886   6.968  0.0585 -0.0230  0.0934
 3228W        W 4092  22.615  25.556  12.530 -0.4363 -0.5372  0.2565
 3229W        W 4093  18.700   8.042  23.407  0.0851 -0.1447  0.1591
 3230W        W 4094  19.562  13.106  27.907 -0.2188  0.1054 -0.1572
 3231W        W 4095   7.248   1.056  25.844  0.2169  0.1078  0.2095
 3232W        W 4096  26.768   3.987   2.010  0.1705  0.1413  0.2486
 3233W        W 4097   2.367  27.634   3.615 -0.1816 -0.2909  0.0952
 3234W        W 4098   8.018  10.291  26.612  0.0552 -0.3642 -0.2873
 3235W        W 4099  27.722  14.313  23.616  0.1385 -0.2672  0.3305
 3236W        W 4100  26.989   2.946  23.673 -0.1897 -0.1031  0.0433
 3237W        W 4101   7.408   5.677  16.431 -0.0023  0.3090 -0.1588
 3238W        W 4102   0.383   9.493  10.731 -0.2046  0.0401  0.0215
 3239W        W 4103  10.760   6.643  14.622  0.3462 -0.1878  0.1291
 3240W        W 4104   6.124   9.935  26.844 -0.0831  0.0393  0.0152
 3241W        W 4105  13.579   0.957   4.844  0.2711 -0.0452 -0.0102
 3242W        W 4106   8.548  18.196   7.806  0.0704 -0.1904  0.2752
 3243W        W 4107  16.391  25.727  26.000 -0.3497  0.0612 -0.1519
 3244W        W 4108  25.289   4.039  13.730 -0.0033 -0.1193 -0.3250
 3245W        W 4109   3.934  26.812  25.242 -0.0133 -0.0496  0.2157
 3246W        W 4110  24.682  25.976   1.303 -0.1283  0.0148 -0.2816
 3247W        W 4111  25.291  10.518   8.459 -0.1180  0.5583  0.1338
 3248W        W 4112   4.671   1.318  23.695 -0.0546  0.0037 -0.0057
 3249W        W 4113  19.297  13.868   0.680 -0.2030 -0.1285  0.0220
 3250W        W 4114   4.716  11.233   6.068 -0.0357 -0.1132 -0.3419
 3251W        W 4115  13.914  20.915  15.923 -0.0658  0.0532 -0.3329
 3252W        W 4116  17.531  24.157  27.821 -0.1322  0.3214  0.1800
 3253W        W 4117   9.798   5.139   3.415  0.4082 -0.1737  0.2102
 3254W        W 4118  26.312  28.919   1.029 -0.1985  0.1409 -0.1654
 3255W        W 4119  27.189  12.841  27.038 -0.1406 -0.0422  0.0171
 3256W        W 4120  28.178  22.839   6.553 -0.2936  0.1791  0.0386
 3257W        W 4121  23.697  16.894  11.921  0.0151 -0.2730 -0.0176
 3258W        W 4122  20.043  24.958  24.302 -0.1889 -0.4361  0.0256
 3259W        W 4123   0.851   6.289  11.939 -0.2814 -0.1880 -0.2062
 3260W        W 4124  26.898  19.016  16.243  0.5992 -0.2745  0.0200
 3261W        W 4125   0.024  12.791   0.888  0.1447 -0.1641  0.2401
 3262W        W 4126  12.567   1.993  23.818  0.0884 -0.0233 -0.0829
 3263W        W 4127   3.480  26.455  25.931 -0.2141 -0.3394  0.0342
 3264W        W 4128  21.026  16.981   7.168  0.1021 -0.1778 -0.3222
 3265W        W 4129  26.753  19.835  21.474 -0.3313 -0.2524  0.1346
 3266W        W 4130   8.576   4.849  28.102  0.0349  0.1675  0.1739
 3267W        W 4131  20.427   4.381  25.335 -0.0018  0.2783 -0.1602
 3268W        W 4132  18.921   9.219   9.703 -0.1200  0.0453 -0.1076
 3269W        W 4133  25.329  21.019   5.531  0.0350 -0.0475 -0.0391
 3270W        W 4134  14.586  13.150  24.149 -0.0247 -0.3159 -0.0368
 3271W        W 4135   6.688   3.121  14.633  0.1740  0.0758  0.0880
 3272W        W 4136  17.200   3.757  20.511 -0.1384  0.1790 -0.1041
 3273W        W 4137   5.271  11.996   8.285  0.1821 -0.2971  0.1859
 3274W        W 4138  17.610  11.016  19.525  0.1147  0.0175  0.2212
 3275W        W 4139   6.177  25.725  25.367  0.2227 -0.0601  0.0366
 3276W        W 4140  16.093   4.988   2.391 -0.0292 -0.0186  0.2641
 3277W        W 4141   6.068   1.845   0.503 -0.1923 -0.1118 -0.0007
 3278W        W 4142   3.786  23.547  17.855 -0.2527  0.1158 -0.2597
 3279W        W 4143  10.228  10.940  12.271 -0.1699 -0.0050 -0.1370
 3280W        W 4144  27.863  11.990  24.113  0.1135 -0.2610 -0.0608
 3281W        W 4145   6.528   2.617   5.797 -0.0540  0.3809  0.1267
 3282W        W 4146   7.301  24.329  10.248 -0.0819 -0.1784  0.0780
 3283W        W 4147  18.021  18.294   2.658  0.0840 -0.3056 -0.5956
 3284W        W 4148   2.818   1.254   4.253 -0.2819 -0.0653  0.0165
 3285W        W 4149  21.191   5.099   5.082  0.0645 -0.1649  0.3509
 3286W        W 4150   1.914  10.929  19.756  0.0298  0.1539 -0.1799
 3287W        W 4151  12.841  27.334  26.683 -0.0949 -0.0315 -0.0139
 3288W        W 4152  26.499  20.758  16.361  0.2286 -0.1562 -0.2376
 3289W        W 4153   1.693  18.152   3.624 -0.0338  0.1831  0.2875
 3290W        W 4154   4.164   1.355  23.994 -0.0373  0.1449  0.0084
 3291W        W 4155   4.084  25.213  14.373  0.1352 -0.0964 -0.2605
 3292W        W 4156   6.825   0.156  12.673 -0.1670  0.1271  0.0363
 3293W        W 4157  20.875  27.656   2.729  0.1031  0.4045 -0.0425
 3294W        W 4158  20.706  17.348   2.429  0.1606 -0.0845  0.0396
 3295W        W 4159   9.728  18.324  21.349 -0.0132  0.2206  0.0777
 3296W        W 4160  27.989  11.939   1.389  0.3272  0.1899 -0.0117
 3297W        W 4161   5.635   7.310  17.232  0.2678  0.2177  0.1490
 3298W        W 4162   9.977  22.958   7.454  0.0856 -0.0691  0.3173
 3299W        W 4163   1.419   6.613  19.773 -0.3117 -0.1172 -0.0296
 3300W        W 4164  27.635  13.320  11.408 -0.2103  0.0738 -0.0782
 3301W        W 4165   3.553   4.121   3.086 -0.0014 -0.0221  0.2137
 3302W        W 4166   5.712  28.293   1.639 -0.0410  0.0881  0.1002
 3303W        W 4167  20.122  19.724  26.528 -0.0740  0.1700  0.0831
 3304W        W 4168  26.861  24.575  13.637 -0.0380  0.1091 -0.0797
 3305W        W 4169  26.002  15.690  28.665 -0.1044 -0.0376  0.1871
 3306W        W 4170   9.295  16.522   8.125 -0.0579 -0.1017 -0.0055
 3307W        W 4171   9.978   0.941  26.649  0.1408 -0.2576 -0.3115
 3308W        W 4172   5.097   6.698   3.167 -0.2897  0.2259  0.1837
 3309W        W 4173   6.272   9.833  28.694 -0.0792 -0.2290 -0.3375
 3310W        W 4174  25.227   3.629  19.885 -0.0960 -0.0807  0.0750
 3311W        W 4175  24.730  23.666   5.908  0.0148  0.1771 -0.1563
 3312W        W 4176   8.833   2.004  15.491  0.1133  0.0356 -0.1640
 3313W        W 4177   0.016  24.091   5.808  0.1108 -0.1440  0.1982
 3314W        W 4178   1.717  20.142   0.755  0.2052  0.2343 -0.2336
 3315W        W 4179  27.786   1.341   0.096  0.1136 -0.1949 -0.0183
 3316W        W 4180   4.601  12.318  11.272  0.1048 -0.1118 -0.1173
 3317W        W 4181   0.893   1.118  15.533  0.2558  0.0145 -0.1029
 3318W        W 4182   6.165  15.441   6.589 -0.0535  0.0170  0.0133
 3319W        W 4183   7.158   0.580  23.753  0.3184 -0.0154 -0.1069
 3320W        W 4184   2.955  26.958  14.028 -0.0324 -0.0384  0.2798
 3321W        W 4185   7.839  10.202   6.080  0.1203  0.2511  0.1701
 3322W        W 4186   4.984   5.389   9.616  0.2060  0.1774  0.0139
 3323W        W 4187   0.032   8.479  26.496  0.2314  0.0630  0.1406
 3324W        W 4188  20.732  10.632   0.593  0.1793 -0.0963 -0.1052
 3325W        W 4189   7.100   5.833   7.138 -0.1573  0.0958 -0.0764
 3326W        W 4190  14.988   5.816  18.136  0.0048 -0.3860  0.3234
 3327W        W 4191  17.225   1.152  23.289 -0.1451  0.0494  0.0380
 3328W        W 4192   1.779  28.414   9.767 -0.0555 -0.4182  0.1530
 3329W        W 4193  11.819   5.087  27.225 -0.0058 -0.2410 -0.1488
 3330W        W 4194  15.758   2.846  19.409 -0.1298  0.1481  0.1289
 3331W        W 4195   1.619  20.142   1.492  0.0366  0.0881  0.1894
 3332W        W 4196   0.321  22.039  23.660 -0.4247 -0.2299  0.1417
 3333W        W 4197   1.257   2.268  15.778 -0.0027  0.0260 -0.1923
 3334W        W 4198   6.077   5.785  28.491 -0.0945  0.0592  0.3683
 3335W        W 4199  24.165  20.499  21.058 -0.0362  0.1594 -0.1880
 3336W        W 4200  25.343   6.563  21.684 -0.0057 -0.0130 -0.0649
 3337W        W 4201   2.149  28.260  22.455 -0.0288  0.0123  0.0602
 3338W        W 4202   8.519  18.852  18.034 -0.2109  0.4165 -0.1554
 3339W        W 4203  19.545   1.710  26.061  0.1029  0.3790  0.1827
 3340W        W 4204   8.719   1.206   6.383  0.0368 -0.1065  0.3979
 3341W        W 4205   4.062   9.159  12.070 -0.1715 -0.0541  0.1315
 3342W        W 4206  19.130   4.328   4.721 -0.1395 -0.0186 -0.2349
 3343W        W 4207  28.956  20.876  16.730 -0.0197  0.1904 -0.0075
 3344W        W 4208   0.629  12.586   0.110  0.0533  0.0883  0.2267
 3345W        W 4209  20.163  26.525  28.808  0.1508  0.3693 -0.1712
 3346W        W 4210   2.858  19.803  12.786 -0.0310 -0.0860 -0.1553
 3347W        W 4211  27.600   0.821   6.713 -0.0553 -0.1509 -0.1068
 3348W        W 4212  27.830   5.529  11.336  0.0886  0.0268 -0.1634
 3349W        W 4213  15.779  15.032  20.480  0.0515  0.0174  0.1831
 3350W        W 4214   3.428  23.207   9.157 -0.1239  0.1692  0.0635
 3351W        W 4215   5.344  18.837  16.022 -0.1704  0.0444  0.3306
 3352W        W 4216  11.042   5.276  15.382 -0.0522  0.1270  0.3130
 3353W        W 4217  11.040  26.029   1.333  0.0751 -0.0525 -0.1440
 3354W        W 4218   4.745   3.140   8.626 -0.1897  0.0678 -0.2298
 3355W        W 4219   2.620  12.059  17.010 -0.1132  0.0223  0.2711
 3356W        W 4220   0.225  25.377  24.152 -0.2777 -0.0307  0.0648
 3357W        W 4221  24.353  21.453  19.354 -0.0832  0.1864  0.0458
 3358W        W 4222  10.264   9.834  21.464 -0.0577  0.1013 -0.4869
 3359W        W 4223  28.961   1.149  13.149 -0.2442  0.1498 -0.1825
 3360W        W 4224   2.898  18.118   3.272  0.0173 -0.1724 -0.3870
 3361W        W 4225   2.532   1.566  14.955  0.2274 -0.3399  0.1091
 3362W        W 4226  26.017  17.957  24.207 -0.1540  0.0409  0.0283
 3363W        W 4227  28.983   4.047  18.311 -0.2881 -0.2463 -0.0621
 3364W        W 4228  25.790  13.415  18.277 -0.1334 -0.0517  0.1582
 3365W        W 4229  16.917  28.784   6.580 -0.0765  0.0959  0.1300
 3366W        W 4230   9.216   2.448   1.780  0.1172  0.3660  0.2080
 3367W        W 4231  16.040  23.030  26.683  0.1308  0.2014 -0.0554
 3368W        W 4232   5.269   8.275  11.279  0.2040 -0.0958 -0.1560
 3369W        W 4233   7.710  11.973   0.811 -0.0836 -0.0191 -0.2317
 3370W        W 4234  14.623  19.170   2.854 -0.0360 -0.0160 -0.1109
 3371W        W 4235   1.241  23.952  22.692  0.0315  0.0811  0.1654
 3372W        W 4236  26.267  18.335  27.162  0.1076  0.3522  0.4168
 3373W        W 4237  28.183   9.363   0.401  0.0529  0.1891 -0.1727
 3374W        W 4238  26.077   1.870  14.291  0.1729 -0.0521  0.0818
 3375W        W 4239  12.248   1.399  26.751 -0.0641  0.1445 -0.0515
 3376W        W 4240   8.348  28.347  18.445  0.1460 -0.2198 -0.2482
 3377W        W 4241  14.771  28.880   9.442  0.1552 -0.0883 -0.2049
 3378W        W 4242  17.422   7.663   0.570 -0.1285  0.1201  0.2295
 3379W        W 4243   0.537  13.446  21.399 -0.2755  0.4967  0.2131
 3380W        W 4244  17.164   4.105  23.580  0.0386 -0.3157 -0.0753
 3381W        W 4245  20.931  19.919  23.246 -0.0968  0.0295 -0.7155
 3382W        W 4246  19.480  28.178   7.660  0.2586 -0.2741 -0.0570
 3383W        W 4247   7.605  22.358   4.766 -0.0243 -0.0878 -0.3809
 3384W        W 4248  24.240   0.215   6.423  0.0063 -0.0190  0.2458
 3385W        W 4249  16.435  11.791  16.323 -0.0726 -0.0185 -0.2021
 3386W        W 4250  25.539  12.562   9.279 -0.0953 -0.2611 -0.2329
 3387W        W 4251  27.950   2.379  25.495  0.1562 -0.2419 -0.0031
 3388W        W 4252  11.065  26.565   2.878  0.2013  0.1818 -0.2431
 3389W        W 4253   8.437  24.160  13.432 -0.1647 -0.0069 -0.0674
 3390W        W 4254   6.277   8.883  22.746 -0.2008  0.1518  0.0440
 3391W        W 4255   7.355   0.938   9.790  0.1803  0.1086 -0.3099
 3392W        W 4256   3.414   5.526  27.058 -0.3227 -0.2409 -0.2164
 3393W        W 4257   4.390   7.777  17.621 -0.2152  0.0549  0.2775
 3394W        W 4258   8.368   9.827  18.790 -0.1514  0.0278 -0.0906
 3395W        W 4259  10.117  19.247  24.357  0.2836 -0.1108 -0.0692
 3396W        W 4260  14.548   5.811  20.090 -0.2665  0.0255  0.1395
 3397W        W 4261  17.862  25.634  21.616 -0.1006 -0.2811 -0.0240
 3398W        W 4262  28.271   2.669  19.021  0.1157  0.0739 -0.2411
 3399W        W 4263   7.509  16.648   1.336 -0.2791 -0.2882  0.2236
 3400W        W 4264  24.300  14.602  28.816  0.3732 -0.2382  0.0367
 3401W        W 4265   9.875   1.396   2.122 -0.0656  0.4102 -0.0356
 3402W        W 4266   7.692   1.018  20.957  0.0359  0.2348  0.0370
 3403W        W 4267  28.369   5.338  26.451  0.0767  0.1529 -0.0724
 3404W        W 4268   2.538  24.515  21.636  0.0418  0.3469 -0.2955
 3405W        W 4269   7.717  10.850   3.311  0.1639 -0.0621  0.0995
 3406W        W 4270  14.268   9.318   4.618 -0.3462  0.3302  0.1469
 3407W        W 4271  10.807  20.774   2.455  0.1311  0.2764 -0.0420
 3408W        W 4272   0.647  16.111  17.345  0.1641  0.1463 -0.0805
 3409W        W 4273  10.873   4.013   0.243 -0.2207  0.1720 -0.1232
 3410W        W 4274  26.426   1.066   1.704  0.1237 -0.1047 -0.2108
 3411W        W 4275  25.346  12.156  24.723 -0.1208 -0.4063  0.0860
 3412W        W 4276   9.046  24.834  14.138  0.1516 -0.0996  0.0712
 3413W        W 4277   2.269  23.607  14.551  0.1396 -0.3485  0.1219
 3414W        W 4278   8.102  10.860  24.273  0.1326 -0.0090 -0.1918
 3415W        W 4279  11.441  20.239   7.940  0.1933 -0.0366  0.1664
 3416W        W 4280   2.418   4.924   0.834  0.0736 -0.0499  0.0290
 3417W        W 4281   6.019   0.023  25.223  0.1610 -0.0543 -0.4872
 3418W        W 4282   9.933  24.648   2.978  0.1143  0.4292 -0.2109
 3419W        W 4283  27.020  17.180  14.090  0.0156 -0.0888 -0.1259
 3420W        W 4284  17.354  20.060   5.327 -0.0472 -0.1106  0.0829
 3421W        W 4285  25.608  13.067  17.956 -0.2933  0.0529  0.2879
 3422W        W 4286   0.097  15.228   3.299  0.5194  0.0608 -0.2455
 3423W        W 4287  22.657  15.410  11.712 -0.0141 -0.2675  0.1405
 3424W        W 4288   6.550   9.609  21.776  0.2322 -0.1457 -0.1663
 3425W        W 4289  16.197  13.273   0.796  0.0470 -0.2410 -0.5994
 3426W        W 4290  22.038  24.457   0.018 -0.0137  0.2115 -0.0890
 3427W        W 4291  28.201  23.547  25.887  0.1730  0.1207 -0.1526
 3428W        W 4292   8.756  24.192   3.097  0.0855 -0.1718  0.1126
 3429W        W 4293  15.173   4.407   6.271  0.0559  0.0054  0.0697
 3430W        W 4294   4.881  27.639  14.218 -0.2520 -0.2927  0.1594
 3431W        W 4295   6.775  12.030  27.430  0.1392  0.3816 -0.1235
 3432W        W 4296   2.356   5.072   3.812  0.2107 -0.1820  0.0989
 3433W        W 4297   1.769   7.831  20.008  0.0966 -0.0079 -0.2830
 3434W        W 4298   6.457   7.689  25.254 -0.2649 -0.1373 -0.0967
 3435W        W 4299  28.505   5.982  17.282 -0.0920 -0.0744  0.0831
 3436W        W 4300   6.612   8.401  16.857  0.2829  0.2000  0.4343
 3437W        W 4301  21.043   8.756  28.800  0.0089  0.2075  0.0945
 3438W        W 4302  11.736  27.146  26.223  0.1971  0.0279 -0.0697
 3439W        W 4303  13.668   1.704   5.428  0.4511 -0.2502  0.2315
 3440W        W 4304   0.404  21.979  12.399  0.1134  0.0808 -0.0133
 3441W        W 4305  20.672   9.111  28.422 -0.2125 -0.5020 -0.4357
 3442W        W 4306  14.620   5.693  17.798 -0.0812  0.0260  0.0865
 3443W        W 4307  25.603   1.341  27.101 -0.2448 -0.1587  0.4542
 3444W        W 4308  27.870   5.329   2.705  0.0068 -0.0065  0.0691
 3445W        W 4309  23.689  19.805   8.038  0.1718  0.0029 -0.1691
 3446W        W 4310   7.464  21.947  28.390  0.1047 -0.2451  0.0785
 3447W        W 4311  13.697   5.430   9.090  0.0862  0.1254  0.2573
 3448W        W 4312   6.072  28.030   4.718  0.0806 -0.1824  0.0821
 3449W        W 4313  17.180  26.865   0.313 -0.0010  0.3222  0.3456
 3450W        W 4314  16.521   3.262   9.971 -0.1760 -0.0323 -0.0683
 3451W        W 4315   3.555  13.525   3.335  0.1529 -0.1301  0.3601
 3452W        W 4316   9.691   6.745  18.843  0.4528 -0.1147  0.1435
 3453W        W 4317  26.010  24.799   3.944  0.0783 -0.0709 -0.1586
 3454W        W 4318  27.620   4.205  26.873  0.2958  0.2187  0.1412
 3455W        W 4319   6.661  24.361  28.192 -0.3253  0.0483  0.0439
 3456W        W 4320   2.524   2.993  20.844 -0.0528 -0.0704  0.1139
 3457W        W 4321  15.165   1.418  17.285 -0.0608 -0.3944 -0.1735
 3458W        W 4322  26.237   7.997   9.767 -0.1165  0.0473  0.0678
 3459W        W 4323   0.123  19.791  21.934 -0.2355 -0.0473  0.0271
 3460W        W 4324  29.087  19.098   8.034  0.0886  0.0231  0.3490
 3461W        W 4325  16.728   2.908   4.467 -0.1757 -0.1723  0.1261
 3462W        W 4326  23.983   0.525   7.375  0.2004 -0.1028  0.0653
 3463W        W 4327   5.287   3.023   6.881  0.4219 -0.3402 -0.1826
 3464W        W 4328   6.359  21.452  27.251  0.2509  0.4751 -0.0611
 3465W        W 4329  16.949   8.187  20.455 -0.2227  0.1808 -0.2565
 3466W        W 4330  24.549   6.858   8.645  0.1222  0.1285 -0.0479
 3467W        W 4331  24.443  13.602  15.553  0.0176  0.2239  0.1269
 3468W        W 4332  13.593  24.983  26.139  0.3651  0.0431  0.0409
 3469W        W 4333  10.424  26.891  19.609 -0.1291  0.1152 -0.2282
 3470W        W 4334   4.649   9.688   4.552  0.1514 -0.1475  0.0120
 3471W        W 4335  11.266   8.909  23.991  0.0360 -0.0942  0.0010
 3472W        W 4336  15.576  25.085  20.855  0.1422  0.0265 -0.2782
 3473W        W 4337  15.318  14.361   2.838  0.1356 -0.0510 -0.1816
 3474W        W 4338  18.446   6.268   2.623 -0.0453 -0.1213  0.2536
 3475W        W 4339  10.632  10.763  17.963 -0.1976 -0.0021  0.1134
 3476W        W 4340  10.092  17.173  13.132  0.1122 -0.0359  0.0210
 3477W        W 4341  18.347  15.079  18.123 -0.1245 -0.1789  0.0306
 3478W        W 4342   2.480  22.334  24.597  0.1682  0.0825  0.1113
 3479W        W 4343  18.670  26.708   5.407 -0.1387 -0.1338  0.1184
 3480W        W 4344  27.785   7.064  13.533 -0.1579 -0.1030 -0.1303
 3481W        W 4345  12.217   6.284   1.666  0.0366 -0.1558 -0.1972
 3482W        W 4346  23.876  27.829   0.354  0.0894 -0.0547 -0.0137
 3483W        W 4347  25.048   3.252   1.559 -0.0128 -0.0479  0.3201
 3484W        W 4348  26.970   2.620  15.828 -0.0478  0.3504 -0.4077
 3485W        W 4349  10.469   6.118  23.959 -0.2346  0.0507  0.3281
 3486W        W 4350   5.663   5.532   2.714 -0.3728  0.0324  0.0647
 3487W        W 4351   7.346  17.425  13.633 -0.3048 -0.3244  0.0106
 3488W        W 4352  16.195   6.770  10.256 -0.2218 -0.1503 -0.0597
 3489W        W 4353  10.520   2.324  25.444  0.1495  0.6263  0.0401
 3490W        W 4354  24.621   6.692  18.956  0.3044  0.0167  0.0773
 3491W        W 4355   4.290  16.329   8.086  0.2463 -0.2020 -0.0111
 3492W        W 4356  25.277   0.962  13.948  0.0637  0.1408 -0.0267
 3493W        W 4357  16.858  12.401   8.967  0.2766  0.2372 -0.3300
 3494W        W 4358  27.779   6.839  26.038  0.2344 -0.2130  0.2051
 3495W        W 4359   4.769  13.151  22.996  0.0672 -0.1154 -0.1703
 3496W        W 4360  26.589  27.873  17.145  0.3991 -0.1519  0.2404
 3497W        W 4361  25.843  23.007  16.660  0.1864  0.2313 -0.0457
 3498W        W 4362   0.161  19.478  28.978 -0.3060  0.0213 -0.1229
 3499W        W 4363  13.276   5.459   5.684 -0.0570  0.3635  0.1672
 3500W        W 4364  23.091  20.863  18.415  0.2291  0.1229 -0.2414
 3501W        W 4365  26.476   8.778   4.814 -0.2590 -0.3375  0.1152
 3502W        W 4366  15.821   5.132  24.320  0.2315  0.2117 -0.0092
 3503W        W 4367  18.840  28.873  17.798 -0.2093 -0.0095 -0.1540
 3504W        W 4368   0.796  10.437  25.360  0.1066 -0.0335  0.1010
 3505W        W 4369   3.512  25.517   2.676 -0.0837 -0.0540  0.0725
 3506W        W 4370  16.889  20.924   3.920  0.1966 -0.1929 -0.1936
 3507W        W 4371   9.596  18.621  21.710  0.0255  0.1980  0.0086
 3508W        W 4372  16.700  19.952   2.911  0.0622  0.0800  0.0628
 3509W        W 4373  24.621   4.274   2.111 -0.3871  0.5216 -0.1002
 3510W        W 4374   2.205   0.726  26.925 -0.0883 -0.0697  0.2276
 3511W        W 4375   2.826  12.102  26.754  0.0046  0.3013 -0.0786
 3512W        W 4376   0.671   6.353  12.607  0.0721  0.0807 -0.7070
 3513W        W 4377  24.815   9.730  16.470  0.2263  0.2373 -0.0308
 3514W        W 4378  22.460  28.841  11.038 -0.0339 -0.0762  0.1959
 3515W        W 4379   9.320  19.205   7.074 -0.0683  0.2746 -0.3332
 3516W        W 4380   5.004  19.286  12.277 -0.0342  0.0704 -0.3848
 3517W        W 4381   3.534  15.658  15.177 -0.1730 -0.0573 -0.0094
 3518W        W 4382   4.741  19.897  28.790  0.0698 -0.4656 -0.0048
 3519W        W 4383   7.546  13.419  27.838  0.0199  0.1848  0.1073
 3520W        W 4384   2.870   6.230  29.126 -0.2045  0.2649  0.0488
 3521W        W 4385  28.721  11.067   0.051  0.1134 -0.0590 -0.0849
 3522W        W 4386   7.908   8.531  19.796  0.0433  0.2955  0.1863
 3523W        W 4387   4.839   1.243   7.218 -0.2316  0.1314 -0.1893
 3524W        W 4388  10.245   4.345   8.439  0.1061 -0.0042  0.4087
 3525W        W 4389   6.713   1.978  23.113 -0.3009  0.3288  0.1692
 3526W        W 4390  23.932  25.534  10.635  0.0794  0.0836 -0.1273
 3527W        W 4391  11.324   4.024   9.593 -0.2535  0.0356  0.0288
 3528W        W 4392  23.839  18.313  24.266 -0.1600  0.1498 -0.0545
 3529W        W 4393  12.450  10.524   2.765  0.1250  0.3144  0.1498
 3530W        W 4394   1.772  11.649   7.059 -0.0433  0.0913 -0.0085
 3531W        W 4395   8.664  12.455  18.405 -0.0990 -0.0649 -0.0323
 3532W        W 4396   0.183   3.078  16.628 -0.0053 -0.4164  0.1149
 3533W        W 4397   4.528  16.543  17.850  0.1546  0.1281  0.1833
 3534W        W 4398   0.226  24.201   7.207 -0.0468 -0.0581  0.1515
 3535W        W 4399  17.927  10.620   9.659  0.4685  0.2057 -0.0623
 3536W        W 4400   5.670   9.878  25.700  0.1595 -0.2823 -0.0826
 3537W        W 4401   0.912  28.933  20.594 -0.0529  0.0107  0.2526
 3538W        W 4402   7.188  25.816  14.355 -0.2100 -0.0538  0.1125
 3539W        W 4403   4.115  22.442   3.588 -0.4173 -0.2914  0.1153
 3540W        W 4404   3.396   2.753   2.924 -0.2135 -0.1457 -0.1206
 3541W        W 4405   0.347  11.225   4.111  0.2257  0.1572 -0.1517
 3542W        W 4406  17.978   4.297  26.754 -0.1751  0.2293 -0.1063
 3543W        W 4407   3.185  16.471  11.294 -0.0394 -0.0418 -0.3619
 3544W        W 4408   9.894  20.268   7.642  0.1113 -0.0725  0.0199
 3545W        W 4409  16.108  17.003  21.508 -0.1467  0.1906 -0.2755
 3546W        W 4410   3.860  17.591  12.944 -0.0107  0.1960  0.4846
 3547W        W 4411  29.121  10.727   0.142 -0.3315 -0.2645  0.2511
 3548W        W 4412  24.470   6.303  15.195  0.2903 -0.1309 -0.2415
 3549W        W 4413  10.192   3.197  15.661 -0.0493  0.0582  0.0322
 3550W        W 4414  13.842  24.601  16.601  0.1373  0.2253  0.0151
 3551W        W 4415   4.924   8.630   0.717 -0.1888  0.2015  0.0570
 3552W        W 4416   4.082  22.610   8.005 -0.0144  0.0887 -0.2042
 3553W        W 4417   3.928  22.297   0.797 -0.0476 -0.3055  0.2358
 3554W        W 4418  23.055  11.167  28.256 -0.2301 -0.3634  0.1371
 3555W        W 4419   4.009  21.451  28.761 -0.0760 -0.0014 -0.1063
 3556W        W 4420  11.181   4.003  29.007  0.0001  0.0515  0.1708
 3557W        W 4421  26.698  10.565   8.594  0.0217 -0.0517 -0.3092
 3558W        W 4422  14.763  13.554   5.158 -0.3279  0.2156  0.0380
 3559W        W 4423   5.155   3.220   1.979  0.0446  0.2416  0.1037
 3560W        W 4424  25.531   9.450   7.828  0.1610  0.3071 -0.0195
 3561W        W 4425  16.736  15.345  10.988  0.0464  0.0150 -0.0618
 3562W        W 4426   2.769   4.945   4.558  0.1056  0.0778  0.2310
 3563W        W 4427  22.234  14.479  28.641  0.0841 -0.0250  0.0442
 3564W        W 4428   8.914  10.948  17.368 -0.1835 -0.2816 -0.0790
 3565W        W 4429   7.384  16.222  14.675  0.3062  0.1434  0.4022
 3566W        W 4430  26.526  10.749   2.467 -0.3079  0.0036 -0.1458
 3567W        W 4431   1.707  26.895  14.562  0.0018  0.1886  0.1721
 3568W        W 4432   1.063  25.966   9.757 -0.1002  0.0579  0.3889
 3569W        W 4433  13.423  24.432  25.154 -0.2340 -0.1611  0.1410
 3570W        W 4434  14.552  13.746   6.151  0.1509 -0.3219  0.0560
 3571W        W 4435  24.771  22.049  23.646 -0.4298 -0.1008 -0.2140
 3572W        W 4436   4.157  17.970  20.668  0.1995  0.2762  0.3091
 3573W        W 4437  13.251  14.916   1.667 -0.0631 -0.0299 -0.4301
 3574W        W 4438  18.646   0.385  28.698  0.1405  0.1186 -0.0671
 3575W        W 4439   3.613  24.956  25.132 -0.0829  0.1636 -0.1463
 3576W        W 4440  11.746   2.037  25.589  0.0774 -0.0668  0.2637
 3577W        W 4441  27.140  26.642  21.574 -0.1825  0.0118  0.2349
 3578W        W 4442   3.878  10.521  21.703 -0.0772 -0.1771  0.0294
 3579W        W 4443  19.956  15.542  26.593  0.2320  0.1507 -0.1546
 3580W        W 4444   6.241  26.117  10.482 -0.1496 -0.0535  0.2301
 3581W        W 4445  25.514   2.790  20.711 -0.3050 -0.0279  0.1576
 3582W        W 4446   6.925   3.659  12.646 -0.0760 -0.0571 -0.1700
 3583W        W 4447  28.970   3.484  21.668  0.0015 -0.2065 -0.0973
 3584W        W 4448   8.374  25.868   7.149 -0.6504 -0.3004 -0.1324
 3585W        W 4449  10.317   6.926  27.227  0.2713  0.3858 -0.1796
 3586W        W 4450  11.501   1.812  21.208 -0.0630  0.2666 -0.2726
 3587W        W 4451   2.631  15.525   0.716  0.2409 -0.0462 -0.0647
 3588W        W 4452  19.537   0.581  15.933 -0.2214 -0.2170 -0.0613
 3589W        W 4453  17.601  19.420  28.854 -0.0135 -0.1615  0.0089
 3590W        W 4454   2.557  18.925   2.131 -0.0338  0.2119 -0.0125
 3591W        W 4455   2.234  13.518  22.876  0.0231  0.1568  0.0419
 3592W        W 4456  25.817  14.542  17.474  0.0552  0.0340  0.1727
 3593W        W 4457   4.544  24.437   0.165 -0.1671  0.1155 -0.0198
 3594W        W 4458  20.542   7.561  26.907  0.1224  0.3431  0.0718
 3595W        W 4459   7.201   2.659  28.824  0.0822  0.0367  0.1572
 3596W        W 4460  14.274  26.100   0.708 -0.0160  0.0902  0.0609
 3597W        W 4461  10.608  15.603   3.429 -0.0548  0.3066 -0.1429
 3598W        W 4462  28.285   9.768  25.722 -0.0998 -0.0616  0.1679
 3599W        W 4463  10.918  26.118  16.055  0.0527  0.1675 -0.1114
 3600W        W 4464  25.322   0.702   5.689  0.0393  0.2326  0.0105
 3601W        W 4465   6.486  10.482   4.309 -0.1631  0.0119  0.3029
 3602W        W 4466   0.387  20.961  13.231  0.2641  0.0582  0.2295
 3603W        W 4467   7.383  22.826  16.981 -0.1074  0.1905  0.1329
 3604W        W 4468   2.907  27.161  21.335  0.0544  0.0850  0.3347
 3605W        W 4469  20.766  21.343  16.884  0.0306 -0.0686 -0.1992
 3606W        W 4470   2.138  28.888  15.049 -0.2411 -0.1143  0.3252
 3607W        W 4471  14.007   1.936   8.742 -0.2129 -0.0566 -0.0066
 3608W        W 4472   4.584   1.990  25.143 -0.1643  0.0726 -0.1356
 3609W        W 4473  22.296   9.867  24.907  0.1945 -0.2466 -0.1099
 3610W        W 4474   5.735  10.539   0.199  0.0516  0.0204 -0.2289
 3611W        W 4475  28.476  23.209   4.440  0.2519 -0.0207  0.0294
 3612W        W 4476   3.947  28.312  15.228 -0.2020 -0.0452 -0.1645
 3613W        W 4477   2.772  27.686   7.920  0.0077 -0.0235  0.0035
 3614W        W 4478   3.860  20.976   2.891 -0.2021  0.0451  0.2565
 3615W        W 4479   5.221  18.019   8.771  0.1047 -0.3668  0.1248
 3616W        W 4480   3.084   5.312  26.255  0.0043  0.1887 -0.1053
 3617W        W 4481  13.005  17.794  20.247 -0.0601  0.0950 -0.1112
 3618W        W 4482  11.142  13.522   3.592 -0.2582 -0.0555 -0.1241
 3619W        W 4483  28.782  17.136  27.593 -0.0297  0.2395  0.1062
 3620W        W 4484  14.995  17.704  17.510  0.1051  0.0960 -0.0571
 3621W        W 4485  15.531   8.357  23.721  0.2605  0.1479 -0.0620
 3622W        W 4486   4.592  25.015   0.087 -0.1337  0.0264  0.1344
 3623W        W 4487  18.084   9.298   3.296  0.3222  0.2171 -0.1425
 3624W        W 4488  22.065  19.329   8.696 -0.0007 -0.0482  0.2534
 3625W        W 4489  12.208  24.148  21.219  0.1373  0.0756 -0.0256
 3626W        W 4490   5.540  28.067  25.991  0.2324 -0.1272  0.0155
 3627W        W 4491   7.474  17.185  18.818 -0.3471  0.0699  0.0605
 3628W        W 4492  25.658  23.437  16.401 -0.3681  0.0698  0.0781
 3629W        W 4493   3.235   9.852   4.153  0.3224 -0.1030 -0.0380
 3630W        W 4494  24.972  19.132  11.839 -0.5409 -0.1096 -0.0230
 3631W        W 4495  23.012   0.051  27.371  0.0994 -0.1457  0.2046
 3632W        W 4496  13.188   6.356  12.973  0.0679  0.1434 -0.3115
 3633W        W 4497  10.809  22.120   0.164 -0.0515  0.0948 -0.1769
 3634W        W 4498  14.492   9.495  28.034 -0.3757 -0.3199  0.0427
 3635W        W 4499  21.282   6.638  15.768 -0.2130  0.1716  0.1340
 3636W        W 4500  21.809   2.194   4.877  0.1464  0.0828 -0.0442
 3637W        W 4501  13.143  24.278  26.115  0.0744  0.2155 -0.1740
 3638W        W 4502  21.717  13.999   2.548 -0.3828  0.1580  0.1373
 3639W        W 4503  22.602  18.984   6.710 -0.1821 -0.2082 -0.2165
 3640W        W 4504  16.334   0.586  13.273  0.2078 -0.2612  0.3168
 3641W        W 4505  14.135  10.957   1.904  0.0700 -0.0023 -0.0944
 3642W        W 4506  28.502  12.893  10.787 -0.0795  0.0731  0.2428
 3643W        W 4507  24.044   4.170  27.086  0.1571  0.2545  0.3541
 3644W        W 4508  22.769  19.403   9.242  0.0246 -0.4386  0.0320
 3645W        W 4509  25.018   9.365   7.992 -0.1036 -0.0681  0.1448
 3646W        W 4510   6.904   5.372   9.002  0.2032  0.3099 -0.1509
 3647W        W 4511  27.341   1.590   7.596  0.0689  0.0328 -0.4867
 3648W        W 4512   3.605  28.981  10.572 -0.0533 -0.1134  0.0064
 3649W        W 4513  16.428  16.621   9.370 -0.3505  0.1485 -0.1358
 3650W        W 4514   8.418   2.704   8.478  0.0074  0.3379 -0.1999
 3651W        W 4515  14.454  16.994   8.652 -0.0669  0.2128  0.0053
 3652W        W 4516  26.729  19.536  25.323  0.0283 -0.2514 -0.0253
 3653W        W 4517   4.460   6.420   4.267  0.1150 -0.0918 -0.0532
 3654W        W 4518  26.002  20.449   8.109 -0.1760 -0.0060 -0.0567
 3655W        W 4519  22.848  13.426  11.650 -0.4712  0.2054  0.1264
 3656W        W 4520  10.145   4.845  29.077 -0.1801  0.1771  0.0685
 3657W        W 4521  23.687  11.625   6.806  0.2186 -0.2666  0.1477
 3658W        W 4522   8.144  21.419  22.834  0.1786 -0.0665 -0.1787
 3659W        W 4523  11.145  15.563   8.636 -0.1199 -0.0572 -0.2439
 3660W        W 4524  16.808   8.162   9.344  0.0176  0.0911 -0.0509
 3661W        W 4525   7.995  23.472   1.664 -0.0939  0.2288 -0.1939
 3662W        W 4526  24.844  15.111  20.793  0.0164 -0.1585 -0.1367
 3663W        W 4527   0.022  15.108   7.643 -0.1040  0.0248 -0.1820
 3664W        W 4528  26.931  24.148  26.713 -0.0223 -0.1357  0.3535
 3665W        W 4529  17.889   4.222  21.139 -0.0302  0.1865  0.0817
 3666W        W 4530  19.866  15.696   1.394 -0.1070  0.2751  0.4198
 3667W        W 4531  10.621  26.299   6.441 -0.0239  0.0747 -0.3052
 3668W        W 4532   2.134  11.612   2.624 -0.1327 -0.1076 -0.1500
 3669W        W 4533  13.391  28.571  26.377 -0.3081  0.0914 -0.1240
 3670W        W 4534   3.001  24.650  18.487  0.2368 -0.1794 -0.3710
 3671W        W 4535   1.513  10.436  11.157  0.0355 -0.1516  0.0487
 3672W        W 4536  27.824  15.639  12.877  0.0552 -0.0562  0.2120
 3673W        W 4537   3.285   3.475  29.084  0.0282 -0.0297  0.0732
 3674W        W 4538  10.760  23.632  16.820 -0.1735 -0.4025 -0.2426
 3675W        W 4539  22.527   6.920  13.962  0.1084  0.2207 -0.0181
 3676W        W 4540  20.595   3.246   6.994 -0.0482  0.0640 -0.0930
 3677W        W 4541   3.266  13.234   1.941 -0.1577  0.2028 -0.0968
 3678W        W 4542   5.819   1.747  26.216  0.4062 -0.0174 -0.1443
 3679W        W 4543  17.052   8.513  15.683  0.0478 -0.0625 -0.3359
 3680W        W 4544   9.368   1.026  25.558  0.0784 -0.0507 -0.1673
 3681W        W 4545  27.380  14.117   4.985 -0.0335  0.0345  0.0290
 3682W        W 4546  13.744  24.526   0.971  0.2342  0.3685 -0.0815
 3683W        W 4547  25.361   3.689  25.908 -0.2271  0.1438  0.1181
 3684W        W 4548   8.088  23.823  15.608  0.2998 -0.1070 -0.2338
 3685W        W 4549   7.656  18.404  22.164 -0.0213 -0.0674 -0.2580
 3686W        W 4550  17.866  25.793  23.545  0.0979  0.1401 -0.2774
 3687W        W 4551  27.459   7.496  25.790  0.1739  0.4730  0.0698
 3688W        W 4552  10.502   1.756  27.489 -0.0897  0.5356 -0.1131
 3689W        W 4553   2.863   3.469  28.717 -0.1058 -0.0893  0.3084
 3690W        W 4554  11.892  26.063   1.687  0.0339  0.0172  0.0717
 3691W        W 4555  21.424  22.154  11.459 -0.2598  0.0578  0.1231
 3692W        W 4556   7.832  15.125  25.207  0.1364  0.0410 -0.2464
 3693W        W 4557   4.268  16.780  25.930 -0.1652 -0.1081  0.1056
 3694W        W 4558  13.460  10.005   7.753 -0.0478 -0.1703  0.0327
 3695W        W 4559   1.664  27.500  15.462 -0.2021 -0.0541  0.2012
 3696W        W 4560   8.874   0.750   2.270 -0.1640  0.1426 -0.0433
 3697W        W 4561   9.202  16.350  20.819 -0.0088 -0.0429  0.2233
 3698W        W 4562  23.486   1.859   1.305  0.1474 -0.4869  0.1466
 3699W        W 4563   8.845   2.489   2.919  0.0158  0.2351  0.1952
 3700W        W 4564  14.951  19.138   5.432 -0.0217 -0.2672 -0.0066
 3701W        W 4565  27.472  28.405  27.846  0.2752  0.0337 -0.0203
 3702W        W 4566  28.392   6.213  14.358 -0.1155 -0.1099  0.3048
 3703W        W 4567   6.927  16.399  18.878  0.0070 -0.1167  0.0626
 3704W        W 4568   7.178  20.753  25.279  0.0387  0.1767  0.2585
 3705W        W 4569  16.319  14.664  28.657  0.1610  0.0262  0.2010
 3706W        W 4570  24.680  21.842  21.864 -0.0922  0.1954 -0.1288
 3707W        W 4571   8.291  13.212  11.149  0.0383 -0.0049  0.0651
 3708W        W 4572  15.523  13.345   1.304  0.4521 -0.1608  0.0373
 3709W        W 4573   8.192  13.383  28.334 -0.1615 -0.1106  0.1483
 3710W        W 4574  17.238   7.852  19.357  0.0109  0.2289  0.3407
 3711W        W 4575  22.218  13.691  25.474 -0.1469  0.1970  0.3717
 3712W        W 4576  12.229   8.760  15.913  0.5826  0.1621  0.0489
 3713W        W 4577   5.223  19.103   1.297  0.0133  0.0712 -0.1926
 3714W        W 4578  21.054  10.464   1.666 -0.0789  0.5043  0.2216
 3715W        W 4579  24.687   6.128  20.607 -0.0506  0.2287 -0.2651
 3716W        W 4580   3.746  14.740  18.251  0.1552 -0.2547 -0.0451
 3717W        W 4581  27.709   8.958  23.790  0.1120 -0.0901  0.0021
 3718W        W 4582   1.745  12.525   9.080 -0.0098 -0.0141  0.0318
 3719W        W 4583  25.895  25.737  26.489  0.1425 -0.0844  0.0051
 3720W        W 4584   3.407   0.643   5.032  0.1488 -0.1730 -0.5290
 3721W        W 4585  16.160   8.754  16.562 -0.2787  0.2116 -0.1237
 3722W        W 4586  18.732   8.559   7.788 -0.1135 -0.3382  0.0354
 3723W        W 4587  23.875  15.109  13.978  0.0168 -0.2184  0.1639
 3724W        W 4588   7.177  22.192  27.218 -0.0855  0.1646 -0.1961
 3725W        W 4589  28.526   9.876  12.586  0.0296  0.1829 -0.1413
 3726W        W 4590  28.528   1.069  28.344  0.0290  0.1820  0.0276
 3727W        W 4591   2.299   0.312  19.247  0.1240 -0.2115 -0.2529
 3728W        W 4592   0.746  14.833  24.864  0.0519 -0.0484  0.3073
 3729W        W 4593   6.663  16.716  11.308 -0.2723 -0.3683 -0.1456
 3730W        W 4594  25.028   5.011   0.937 -0.1798 -0.1343  0.0377
 3731W        W 4595   9.110  27.132  21.093 -0.1512 -0.0595 -0.1159
 3732W        W 4596  19.948  11.602  23.410 -0.0741 -0.0655 -0.0739
 3733W        W 4597  25.476  22.622  10.763  0.0493 -0.0594  0.1151
 3734W        W 4598  12.600  23.918   1.307 -0.0844  0.1753  0.0520
 3735W        W 4599  23.764  17.587  22.317 -0.1145 -0.0886  0.3261
 3736W        W 4600  18.483   8.720  26.268 -0.3665  0.1041 -0.2632
 3737W        W 4601   2.228  28.490  19.615 -0.1399  0.0022 -0.0754
 3738W        W 4602  11.497  21.604  17.928 -0.0419 -0.3064  0.0883
 3739W        W 4603   5.991  10.687   5.445 -0.0844 -0.0721  0.1038
 3740W        W 4604   0.023  25.329   7.052 -0.1599  0.1583  0.1169
 3741W        W 4605  22.510  25.997  25.495  0.1776 -0.1991 -0.1392
 3742W        W 4606   7.358  28.994  27.882  0.3807  0.2159  0.1046
 3743W        W 4607   5.970   4.184   8.542  0.1142  0.1137 -0.0561
 3744W        W 4608   6.643  23.446  21.498  0.3539 -0.2572 -0.0693
 3745W        W 4609   6.405  23.236  27.603  0.0735 -0.2305 -0.0404
 3746W        W 4610   7.699   9.469  11.525  0.2934 -0.0674  0.1739
 3747W        W 4611  28.484  28.843  26.445 -0.0330 -0.0164 -0.2212
 3748W        W 4612   2.793  16.072   2.485 -0.1326 -0.0596 -0.2880
 3749W        W 4613  27.234  14.492   0.882  0.1858 -0.1371  0.2909
 3750W        W 4614  10.112   8.049  11.296  0.0087 -0.0068 -0.2053
 3751W        W 4615   3.982   4.525   1.645 -0.2345 -0.1636 -0.1423
 3752W        W 4616  19.845  23.551  25.721 -0.1421  0.0203 -0.0014
 3753W        W 4617  14.237  10.018  26.878 -0.0933 -0.3121  0.0557
 3754W        W 4618  22.589   6.746  11.126 -0.2022  0.2045 -0.0742
 3755W        W 4619  27.397  17.544   4.605  0.5293 -0.3347 -0.1261
 3756W        W 4620  20.859  22.469  22.080 -0.0315 -0.0394  0.0064
 3757W        W 4621  26.465  18.880  14.638 -0.2072  0.0968  0.0506
 3758W        W 4622  24.903  28.277  17.946 -0.2051  0.0968 -0.0400
 3759W        W 4623   8.053  27.388   2.689 -0.3613  0.3186  0.4479
 3760W        W 4624   5.100  26.894  15.376 -0.3417 -0.0631  0.2626
 3761W        W 4625  27.547  20.789  14.081 -0.0481  0.1805  0.3861
 3762W        W 4626  18.187   9.897   7.932  0.0555  0.1005  0.1138
 3763W        W 4627  11.376  28.758  17.094  0.0870  0.1665  0.1026
 3764W        W 4628  18.867  14.859  26.682 -0.0870 -0.0981  0.2394
 3765W        W 4629   5.152  26.137   6.014  0.3435 -0.2069 -0.4359
 3766W        W 4630  12.122  22.422   7.380  0.1166  0.0370 -0.4096
 3767W        W 4631  14.685   9.003  14.889 -0.0396  0.0981 -0.2835
 3768W        W 4632  10.397  27.425  14.226 -0.2105  0.0075 -0.2456
 3769W        W 4633   4.472   1.750  27.410 -0.0384  0.0868  0.1609
 3770W        W 4634   5.811  13.456  22.772  0.1682 -0.1780 -0.2457
 3771W        W 4635   8.174  27.194   3.140 -0.1186 -0.0184  0.0116
 3772W        W 4636  20.346   0.720   1.472  0.1867 -0.0673 -0.2364
 3773W        W 4637   1.760   6.678  28.978 -0.1074  0.2420 -0.0914
 3774W        W 4638  28.037   4.290  25.554  0.0509 -0.3164  0.2589
 3775W        W 4639  24.100   2.913  25.830 -0.3003  0.0745 -0.0603
 3776W        W 4640  18.112  25.884  25.163  0.0183  0.0387  0.2114
 3777W        W 4641  15.796   1.024   9.257 -0.4650  0.2461  0.0283
 3778W        W 4642  23.993  14.537  15.911  0.4357 -0.0722 -0.1750
 3779W        W 4643   3.845  11.371  22.616 -0.0399 -0.0840 -0.3389
 3780W        W 4644   5.310   3.720  12.418 -0.1793 -0.0208 -0.1247
 3781W        W 4645  23.916   2.184   1.334  0.2880  0.0338  0.0791
 3782W        W 4646  19.576  26.205  26.616 -0.3198 -0.0466 -0.1418
 3783W        W 4647   4.489  13.926  27.765 -0.2740  0.0037 -0.2360
 3784W        W 4648  23.166  13.296   0.460  0.0966 -0.2074 -0.0221
 3785W        W 4649   6.583  17.241   9.530 -0.1701 -0.2138 -0.0160
 3786W        W 4650   7.944   5.432   1.586  0.1499  0.2952 -0.1192
 3787W        W 4651  26.104  18.088   6.617 -0.0633  0.1178  0.3639
 3788W        W 4652  12.102  25.853  15.292 -0.2706  0.1547  0.3630
 3789W        W 4653   5.780  10.307  25.395  0.0526 -0.0968 -0.1152
 3790W        W 4654  15.567  25.513  23.056 -0.2194  0.2313  0.1126
 3791W        W 4655   9.263   7.947   5.143  0.2042  0.1172 -0.1787
 3792W        W 4656  14.245   9.179  18.767  0.2473 -0.1753 -0.2672
 3793W        W 4657  24.262  18.136  15.813  0.2023  0.0357 -0.1535
 3794W        W 4658   5.974   5.235   1.686 -0.0938 -0.0985  0.1942
 3795W        W 4659   0.573   9.706   8.426 -0.2168  0.3423  0.1164
 3796W        W 4660   7.052  19.134  15.743  0.3663  0.0487 -0.1039
 3797W        W 4661  23.961  22.028   2.497  0.0689  0.1991  0.0019
 3798W        W 4662   5.468  16.352  23.695  0.0835 -0.1668 -0.1266
 3799W        W 4663   8.986   5.126  27.358 -0.1567  0.4897  0.2493
 3800W        W 4664   0.853  19.208  13.580 -0.1259  0.4495 -0.0828
 3801W        W 4665   7.809   4.214   4.352 -0.0038  0.1159 -0.3087
 3802W        W 4666  24.113  25.779   5.926  0.1729 -0.2690 -0.1142
 3803W        W 4667  10.245   1.295   6.719  0.3106  0.2429  0.0137
 3804W        W 4668   3.319  24.679  28.962 -0.2148 -0.0258  0.1028
 3805W        W 4669   6.800   5.697  25.870 -0.0084 -0.2907  0.1123
 3806W        W 4670   2.550   4.600   2.728 -0.0067 -0.2391 -0.1265
 3807W        W 4671  28.248   8.926  17.505  0.0930 -0.0092  0.0451
 3808W        W 4672   4.106  13.878  22.385 -0.3158  0.0439  0.0278
 3809W        W 4673  18.947   4.079  18.537  0.0511 -0.2148  0.2736
 3810W        W 4674   2.313   7.387  26.797 -0.3548  0.0922  0.1048
 3811W        W 4675  22.496   4.230  12.321 -0.4837 -0.0775 -0.0098
 3812W        W 4676  22.850  26.116   1.868 -0.0082  0.0223 -0.2171
 3813W        W 4677   5.428   7.649  28.038  0.1193 -0.3750 -0.2543
 3814W        W 4678   6.163  23.964   7.861  0.0297  0.0908 -0.1848
 3815W        W 4679   6.199  14.189   1.230  0.1200 -0.0934 -0.0066
 3816W        W 4680  27.334  15.134  28.423 -0.1178 -0.1418  0.1369
 3817W        W 4681   6.289   5.031   5.142  0.2799  0.1145  0.3509
 3818W        W 4682  28.068  22.930  18.056 -0.0461  0.1344 -0.0602
 3819W        W 4683  26.656   7.139  27.705  0.1929 -0.1706  0.1970
 3820W        W 4684  22.691   1.547  24.570  0.0466  0.0879  0.1477
 3821W        W 4685   3.695  10.466  17.766 -0.0247 -0.1011 -0.1095
 3822W        W 4686   5.696   9.521  21.447 -0.0176 -0.1963 -0.0181
 3823W        W 4687  20.982  20.200   7.521  0.2991 -0.3516  0.4362
 3824W        W 4688   4.272   5.348   2.186 -0.0251 -0.1077 -0.2334
 3825W        W 4689   8.574  17.765  13.849  0.2392 -0.4499  0.1919
 3826W        W 4690  22.852  28.594   5.529 -0.5033 -0.3189  0.1474
 3827W        W 4691   5.502  26.095   7.380 -0.1840  0.1837 -0.1497
 3828W        W 4692   8.418  22.429   8.790  0.2024  0.3810 -0.0240
 3829W        W 4693   5.389  21.048   4.677 -0.4901 -0.2510  0.0115
 3830W        W 4694  14.835  23.770  26.529  0.0149 -0.0960  0.2800
 3831W        W 4695  25.026  24.786  10.609  0.1451 -0.1968  0.0401
 3832W        W 4696   4.357   1.761  13.203 -0.4060 -0.1053 -0.0475
 3833W        W 4697   5.190  15.768  12.940  0.0531 -0.1827 -0.0853
 3834W        W 4698   5.532   0.385   5.375  0.0201  0.0328 -0.2330
 3835W        W 4699   3.040   1.247   5.616  0.0259  0.2264 -0.1234
 3836W        W 4700  28.318  25.257   7.437  0.2426  0.2224  0.0356
 3837W        W 4701  14.437  15.650  26.890  0.3091  0.3074  0.4243
 3838W        W 4702  22.567  10.169  27.735  0.1080  0.0526  0.1428
 3839W        W 4703  19.160   3.979  15.568  0.0687  0.0487  0.4721
 3840W        W 4704   2.831  20.136  21.939  0.2764  0.0163 -0.0152
 3841W        W 4705  23.232   6.330  14.411  0.4049  0.1176  0.2850
 3842W        W 4706   6.933  28.660  27.590  0.1984 -0.0564 -0.1640
 3843W        W 4707  18.228  15.175  11.356 -0.0516  0.1633 -0.1664
 3844W        W 4708  11.101   3.752   3.932  0.0760  0.0032  0.0102
 3845W        W 4709   0.291   7.610  23.209  0.0350  0.0971  0.0154
 3846W        W 4710   6.857   4.300   8.699  0.1226 -0.2142  0.1459
 3847W        W 4711  13.950  26.318   5.505 -0.2619  0.0090 -0.2801
 3848W        W 4712   2.631  17.752   0.063  0.3700  0.2481  0.0855
 3849W        W 4713  23.553  26.320  11.340  0.0106 -0.0562 -0.1118
 3850W        W 4714  28.594  13.592  27.912  0.1564  0.3594  0.0387
 3851W        W 4715  28.707   1.782  11.692 -0.1642 -0.1236 -0.0175
 3852W        W 4716  28.555   6.655   9.376  0.2535  0.1962  0.0955
 3853W        W 4717   4.364   8.275  26.784 -0.0110  0.1333  0.1889
 3854W        W 4718  18.812  25.950   3.047  0.0085  0.1224 -0.1213
 3855W        W 4719   7.265  26.916  14.299  0.1462 -0.1776 -0.0164
 3856W        W 4720  25.206  16.233  21.968  0.0364  0.2656 -0.1177
 3857W        W 4721   1.968  16.791  21.927 -0.1440 -0.1365 -0.3120
 3858W        W 4722  16.687  25.925   2.730 -0.0115  0.5136  0.3610
 3859W        W 4723   9.048  10.529  18.851  0.1814  0.0321 -0.3858
 3860W        W 4724  25.939  26.871  23.949 -0.0775 -0.3155  0.0780
 3861W        W 4725  11.275  28.439  28.417  0.3987  0.0153  0.1816
 3862W        W 4726   4.075  24.493  23.100  0.2219  0.1688 -0.3737
 3863W        W 4727  11.710   1.601   3.087  0.1728 -0.0567 -0.0147
 3864W        W 4728  26.877  24.916   6.347  0.1287  0.1039 -0.0887
 3865W        W 4729  28.013  12.965  28.108 -0.3193 -0.0803 -0.0026
 3866W        W 4730   9.647  17.682   8.101  0.0148 -0.4038 -0.1260
 3867W        W 4731  19.216  27.231   9.427  0.1467  0.0244  0.0859
 3868W        W 4732  17.043   8.843  13.984  0.0863 -0.0146  0.0201
 3869W        W 4733  25.564   0.481  16.463 -0.3330 -0.0057  0.0777
 3870W        W 4734  23.478  19.720  25.613 -0.1132  0.0239  0.1035
 3871W        W 4735  29.005  20.328  11.025  0.0159  0.2085 -0.0601
 3872W        W 4736   8.253   0.334   4.678  0.2024 -0.2025  0.1663
 3873W        W 4737  11.694   6.770  27.484  0.1154  0.0323  0.1987
 3874W        W 4738  24.648   4.653  15.634  0.1565  0.1869 -0.0037
 3875W        W 4739  10.790  20.038   0.588  0.1807 -0.1291  0.0168
 3876W        W 4740  25.891  19.522   3.665  0.0429  0.5369 -0.2455
 3877W        W 4741  27.743  11.885  13.787 -0.1822  0.0506  0.1660
 3878W        W 4742  19.526  12.744   7.153  0.1758  0.1160 -0.0250
 3879W        W 4743   7.476  13.529   9.913  0.0235  0.0525 -0.2802
 3880W        W 4744   3.824  28.899   6.684 -0.0814  0.1669  0.2702
 3881W        W 4745   5.413  27.724  11.250  0.0092  0.0086 -0.1021
 3882W        W 4746  19.259  28.821  20.139 -0.0953 -0.1461  0.1844
 3883W        W 4747  12.876   3.626  25.419 -0.2795  0.0770 -0.2686
 3884W        W 4748   7.673  13.049   6.571 -0.0338 -0.0860  0.2885
 3885W        W 4749  22.810  28.825  25.712  0.2922  0.1443  0.0834
 3886W        W 4750  28.510  27.234   2.389 -0.0621  0.1003  0.2469
 3887W        W 4751  27.946   7.076   9.671  0.0915 -0.6205 -0.1132
 3888W        W 4752   0.209  28.521  10.777  0.0671  0.1332  0.1087
 3889W        W 4753  27.908   0.391  28.929 -0.0820 -0.2562 -0.3109
 3890W        W 4754   6.089  12.613   8.042 -0.1729  0.2149  0.0499
 3891W        W 4755  10.250   2.737   2.577  0.0628  0.3117 -0.0345
 3892W        W 4756  26.637   5.017  25.539 -0.1005 -0.1580 -0.1703
 3893W        W 4757   9.022   3.620   6.055  0.1411 -0.1452 -0.0210
 3894W        W 4758  10.974  23.434  12.475  0.1210 -0.0301 -0.4509
 3895W        W 4759   3.768  10.574   4.335 -0.4692  0.1236 -0.0744
 3896W        W 4760  20.844  23.407   2.874 -0.2653 -0.0615  0.1257
 3897W        W 4761  23.030  26.778   7.680  0.0898  0.1898  0.0661
 3898W        W 4762   5.499   5.627   6.361 -0.1254  0.2535 -0.1101
 3899W        W 4763  24.133  14.716  19.601 -0.1983  0.0916  0.0616
 3900W        W 4764   3.239  29.120  18.510  0.1269 -0.3934 -0.0501
 3901W        W 4765  11.905   5.537   7.770  0.0160 -0.0160  0.1310
 3902W        W 4766  20.729   8.391  10.937 -0.0150 -0.1333 -0.3444
 3903W        W 4767  25.825   1.059  27.502  0.1161  0.1131  0.0392
 3904W        W 4768   1.758   4.994   8.855  0.1512 -0.1868 -0.3347
 3905W        W 4769  11.077  13.779  10.013 -0.2404  0.1345  0.1165
 3906W        W 4770  14.892  20.196  12.751  0.0135  0.0508 -0.0337
 3907W        W 4771  18.186  15.289  12.383 -0.0195  0.4888  0.0808
 3908W        W 4772   9.757  26.528  12.320  0.0122  0.2339  0.0432
 3909W        W 4773  10.546  19.016  28.157  0.0605  0.1511  0.1048
 3910W        W 4774   8.903  14.850  23.085  0.1971  0.1263 -0.0692
 3911W        W 4775  24.640   1.814  16.027  0.0154 -0.0026 -0.0924
 3912W        W 4776  28.584  24.601   6.846 -0.1173  0.0623 -0.1110
 3913W        W 4777  23.732  25.691  20.057  0.0222 -0.0777 -0.0779
 3914W        W 4778  10.319  11.648  29.135 -0.3303 -0.1307  0.0462
 3915W        W 4779  11.144  25.814  16.688 -0.0063 -0.0290  0.1476
 3916W        W 4780  10.675   0.043   2.675 -0.0409 -0.0082 -0.3123
 3917W        W 4781   8.800  11.456  25.459 -0.1185 -0.0767  0.0091
 3918W        W 4782  27.471  15.511   3.254 -0.1519 -0.1548  0.1023
 3919W        W 4783  20.766  17.972  12.667  0.2511  0.0326  0.0955
 3920W        W 4784   4.938  27.642   2.239  0.0812  0.0331  0.0432
 3921W        W 4785   7.920  11.350  27.537  0.2455 -0.3162  0.1442
 3922W        W 4786  27.575  28.006   4.335  0.1862 -0.3909 -0.0772
 3923W        W 4787   1.316  26.151   5.337 -0.1081 -0.0462 -0.2110
 3924W        W 4788   2.696  10.932  13.585 -0.1139  0.1282  0.0425
 3925W        W 4789  18.150  14.485  11.954  0.0757 -0.3135  0.0528
 3926W        W 4790  27.078  19.699  12.433  0.0504  0.1340 -0.0885
 3927W        W 4791   5.155   5.102  25.341 -0.2010  0.1196  0.1563
 3928W        W 4792   3.459  27.112  14.842 -0.1837 -0.1312 -0.0943
 3929W        W 4793  20.266  17.292  16.657  0.2296  0.2540  0.3698
 3930W        W 4794   8.389  24.251   1.397 -0.0301 -0.0663  0.0837
 3931W        W 4795  11.220  16.836   6.491  0.0844  0.2080  0.0704
 3932W        W 4796  24.008  14.056  20.672 -0.1849 -0.0943 -0.1357
 3933W        W 4797   2.684  19.296   6.480  0.2767 -0.0538 -0.0591
 3934W        W 4798   3.060   1.258  12.048 -0.3200  0.4655 -0.1789
 3935W        W 4799   5.771  18.887   7.079 -0.0113 -0.0888 -0.0462
 3936W        W 4800  25.958  16.681  11.369 -0.2659 -0.0580 -0.0124
 3937W        W 4801  25.289   8.734  18.721  0.1631 -0.0530  0.1601
 3938W        W 4802  21.905   6.990   4.459 -0.0403  0.0972  0.1775
 3939W        W 4803   5.349  24.555   0.464  0.0259  0.3931  0.1310
 3940W        W 4804  24.990   7.047  22.321  0.0214 -0.0106  0.3180
 3941W        W 4805   2.946  23.480  15.884 -0.2207  0.1370 -0.1007
 3942W        W 4806   5.031   1.111  28.298 -0.1445 -0.1786 -0.0541
 3943W        W 4807   6.257   2.676  12.663  0.5195 -0.0685 -0.2518
 3944W        W 4808  12.835  11.564   5.133  0.0070 -0.1452  0.0657
 3945W        W 4809  12.628   9.148   1.506  0.2817  0.1905 -0.0615
 3946W        W 4810  26.819  21.269   6.284 -0.0980  0.2517 -0.1433
 3947W        W 4811   6.932  20.006   4.617  0.0839 -0.0212  0.2779
 3948W        W 4812  22.972  23.703   8.101 -0.0066  0.1704  0.0477
 3949W        W 4813  25.538   4.460   0.374 -0.0454 -0.4235  0.3598
 3950W        W 4814  10.049  24.637  27.085 -0.0131 -0.3659 -0.1078
 3951W        W 4815  24.197  12.334  17.684 -0.1103  0.0363  0.0750
 3952W        W 4816  10.440   6.324  21.434 -0.0178 -0.0665 -0.1071
 3953W        W 4817   2.910  12.323  29.059 -0.0663  0.1518 -0.0158
 3954W        W 4818  25.402  23.168   8.718  0.0929 -0.1549 -0.1561
 3955W        W 4819   4.463  23.876   1.791  0.0880 -0.0679  0.2585
 3956W        W 4820  27.748  20.838   0.747  0.0771 -0.0165 -0.3477
 3957W        W 4821   4.577   5.032   6.807 -0.0412  0.2431 -0.0211
 3958W        W 4822  18.778  15.222   1.817  0.0207  0.2044 -0.0283
 3959W        W 4823  25.883   5.969   2.663  0.0273  0.1846  0.0433
 3960W        W 4824   2.458  28.307   5.806 -0.1863 -0.0531 -0.0585
 3961W        W 4825  11.665  26.141   2.145  0.3213 -0.1649 -0.1425
 3962W        W 4826   3.357  24.728   5.426 -0.1039  0.0564 -0.0338
 3963W        W 4827  21.082   1.484  27.714  0.0898 -0.3019  0.5229
 3964W        W 4828  13.798   3.115  28.772  0.0220 -0.1909 -0.0492
 3965W        W 4829  26.268   3.682   0.822  0.0017 -0.1363 -0.0725
 3966W        W 4830  19.399   3.951   2.249  0.0249 -0.2049 -0.0564
 3967W        W 4831  12.725  26.876  25.147 -0.0433 -0.0294 -0.3099
 3968W        W 4832   3.006  20.205  10.172 -0.1125  0.1858  0.0880
 3969W        W 4833   7.342   0.171  12.591  0.5062  0.2135 -0.1836
 3970W        W 4834   5.060  13.491  11.786  0.2593 -0.0376  0.3455
 3971W        W 4835  21.511  22.891  15.926  0.1400  0.0146 -0.2213
 3972W        W 4836   7.286  14.904   2.343  0.1450 -0.2388 -0.0771
 3973W        W 4837  10.703  16.620  26.053 -0.1608  0.0730 -0.0448
 3974W        W 4838  27.441  23.842   9.059 -0.2131 -0.0173 -0.1056
 3975W        W 4839  14.830  19.864  10.371  0.4162  0.0080  0.1729
 3976W        W 4840  25.071   6.936   7.982 -0.1001  0.1186 -0.0816
 3977W        W 4841  19.270  11.669   2.656  0.1958  0.2722  0.0414
 3978W        W 4842   9.947  27.861  10.745  0.1414 -0.1821  0.1742
 3979W        W 4843   4.292  12.219  28.801  0.4023  0.0429 -0.2270
 3980W        W 4844  26.760   6.734  14.928 -0.1379 -0.0812  0.0160
 3981W        W 4845  25.554  10.662   0.183 -0.2463 -0.0727  0.1100
 3982W        W 4846  28.383  24.043   2.648 -0.0593 -0.7526  0.1411
 3983W        W 4847   5.859   0.223  23.460 -0.3321 -0.0133 -0.2420
 3984W        W 4848   5.897  26.190   3.785  0.0960 -0.0927  0.0190
 3985W        W 4849  24.258  23.823  21.055 -0.2575 -0.2429 -0.0017
 3986W        W 4850  26.308   2.392   4.663 -0.1281  0.1580 -0.0895
 3987W        W 4851   2.373  25.737   2.857  0.3076  0.0773  0.0116
 3988W        W 4852  13.261  16.608  14.037  0.3253  0.1596 -0.4194
 3989W        W 4853  27.444  28.692  14.971  0.0467  0.0743 -0.3222
 3990W        W 4854   1.968   4.009  20.612 -0.3608  0.1475  0.1553
 3991W        W 4855   8.594   2.840   6.386 -0.2048 -0.2629 -0.0433
 3992W        W 4856  28.276   3.300   9.561 -0.1013  0.1941  0.0380
 3993W        W 4857  10.411   6.709   0.184  0.2324  0.0879 -0.0820
 3994W        W 4858  25.179  15.895  14.111  0.0182 -0.1028 -0.0402
 3995W        W 4859   7.111   8.828  13.606 -0.3298  0.1145 -0.0835
 3996W        W 4860  10.665  28.633   5.171 -0.2012 -0.5135 -0.0847
 3997W        W 4861   8.290  16.638  11.692 -0.2799 -0.2639 -0.0856
 3998W        W 4862   8.961  19.691  10.137 -0.0896 -0.1682 -0.0816
 3999W        W 4863  28.923  13.019  21.660 -0.0506  0.0600 -0.1570
 4000W        W 4864  28.542  28.860   8.416 -0.3593  0.1166 -0.0659
 4001W        W 4865   1.308   3.463  21.546 -0.0755  0.5725 -0.1546
 4002W        W 4866  15.949  16.777   8.580  0.3886  0.0940  0.0299
 4003W        W 4867  21.802   3.363   7.165 -0.1346 -0.0683  0.3729
 4004W        W 4868   9.048   5.259  10.775 -0.0665  0.3295  0.0247
 4005W        W 4869  10.408  25.056  28.166 -0.3381  0.1676  0.2018
 4006W        W 4870   3.238   1.774  11.271 -0.1131  0.1352 -0.0400
 4007W        W 4871   2.336   9.223  23.472 -0.0318 -0.2407  0.0764
 4008W        W 4872   2.760  10.406  14.319 -0.0206  0.1362  0.0432
 4009W        W 4873  22.211  19.383  25.207  0.2882  0.3774 -0.0085
 4010W        W 4874  21.087  15.403  15.774  0.2005 -0.3287  0.1312
 4011W        W 4875  10.314  28.250   5.660  0.4059  0.0367 -0.0253
 4012W        W 4876  13.456   9.681   3.295 -0.0691  0.0402 -0.0963
 4013W        W 4877  25.122   0.875  14.987  0.0182 -0.1524 -0.0545
 4014W        W 4878   7.692   3.924  19.128  0.0094 -0.0266 -0.3753
 4015W        W 4879  13.606   8.889   0.738 -0.1549 -0.2792 -0.0091
 4016W        W 4880  28.693  14.609  27.755 -0.1099 -0.0884 -0.1195
 4017W        W 4881  29.062  13.806   3.675  0.2399  0.0096  0.0466
 4018W        W 4882   1.108   5.375   9.431 -0.0609  0.0536 -0.0849
 4019W        W 4883   5.799   5.994   7.053 -0.2595  0.1512 -0.1780
 4020W        W 4884  21.013   9.809   3.421  0.2405 -0.0767 -0.1902
 4021W        W 4885  11.913   5.711  16.852 -0.0519 -0.1126 -0.0788
 4022W        W 4886  29.125  14.940   2.692  0.0300  0.2458  0.1769
 4023W        W 4887  22.917  10.050  11.928 -0.1224 -0.0629 -0.0317
 4024W        W 4888   7.167   2.901   2.913  0.2831 -0.0389 -0.1018
 4025W        W 4889  19.509  25.292  12.374  0.1769 -0.1325  0.0648
 4026W        W 4890  26.934   9.596  14.820 -0.2273 -0.2475 -0.3003
 4027W        W 4891  19.750  18.522  16.966 -0.0132 -0.0971  0.1174
 4028W        W 4892   1.832  25.721  28.214 -0.0295  0.0718 -0.1369
 4029W        W 4893  19.398   8.974   3.413  0.2437 -0.2109 -0.1544
 4030W        W 4894   4.495   7.743   9.185  0.0894 -0.1998 -0.1123
 4031W        W 4895  18.836   6.351  26.138 -0.1955  0.1413  0.0473
 4032W        W 4896   3.869  11.555   4.486 -0.0892  0.0364 -0.3927
 4033W        W 4897  24.837   4.147  11.715 -0.2326 -0.2243  0.0886
 4034W        W 4898  10.040   9.210   8.674  0.1308  0.1326  0.0418
 4035W        W 4899  10.448  17.372  16.681  0.0742  0.3280  0.0913
 4036W        W 4900  24.229   6.203   2.969 -0.2766 -0.3506 -0.2734
 4037W        W 4901  13.896  25.456  28.397  0.1015 -0.0113 -0.1893
 4038W        W 4902   2.961  21.135   7.274  0.1800 -0.0096 -0.1091
 4039W        W 4903  22.515  24.275   6.424 -0.3832  0.1204 -0.0363
 4040W        W 4904  27.104  23.907  11.343 -0.1991  0.0117  0.2244
 4041W        W 4905  11.345  20.157  13.835  0.2859 -0.1584  0.2518
 4042W        W 4906   5.028   9.035   9.946 -0.1787 -0.2648  0.0212
 4043W        W 4907   9.040   8.151   3.820  0.2508  0.0280 -0.3850
 4044W        W 4908  22.587   4.045   6.839  0.2161  0.1443 -0.1083
 4045W        W 4909   2.721  11.188   8.303  0.0118  0.0346  0.1386
 4046W        W 4910   2.392   3.486  22.851 -0.1906 -0.3202 -0.0621
 4047W        W 4911  10.695   8.330  25.835  0.0625  0.2209  0.2411
 4048W        W 4912   2.419  14.398  18.192  0.1462  0.3191 -0.2396
 4049W        W 4913  28.277   0.090   6.715  0.2637 -0.0911 -0.1299
 4050W        W 4914   2.875   8.528  25.792  0.1403  0.1346 -0.0120
 4051W        W 4915  20.096  20.388  20.250 -0.1110 -0.0624  0.0862
 4052W        W 4916  23.442  13.333   6.420 -0.1636 -0.2156 -0.2187
 4053W        W 4917  15.866  23.214  16.760  0.1914  0.2224 -0.2318
 4054W        W 4918   9.029   8.729  27.179 -0.1523  0.0023  0.1352
 4055W        W 4919   7.442  25.717  11.165  0.0851  0.0528  0.0031
 4056W        W 4920   4.128  22.870   4.507  0.1877  0.1882 -0.2459
 4057W        W 4921  11.696   6.057  18.143 -0.1582  0.1162  0.1515
 4058W        W 4922   9.022  13.711   3.257  0.1090 -0.0740  0.0833
 4059W        W 4923  16.674  17.803  17.246 -0.2685 -0.2924 -0.1021
 4060W        W 4924   8.902  27.961  10.032  0.1112 -0.3063  0.0116
 4061W        W 4925  28.111  20.327  13.371 -0.2190  0.0203  0.0210
 4062W        W 4926   7.582  20.763  26.041  0.1557  0.1607  0.1717
 4063W        W 4927  11.159  22.181  28.924 -0.1766  0.0263  0.0878
 4064W        W 4928  24.876   1.949   5.241  0.0161 -0.2827  0.5477
 4065W        W 4929   8.836  11.230  24.500 -0.0948 -0.1654 -0.0649
 4066W        W 4930  18.485  28.370  25.749  0.0931 -0.1417  0.1239
 4067W        W 4931  10.178   3.818  16.573  0.1089 -0.0617  0.1378
 4068W        W 4932  23.628   1.209  11.330 -0.0836 -0.2552  0.1675
 4069W        W 4933  27.438   4.329   5.642  0.0567  0.1841  0.0005
 4070W        W 4934   5.934  26.739  11.776  0.1050  0.1347 -0.0236
 4071W        W 4935  15.043   2.016  25.216 -0.2189  0.0206  0.1222
 4072W        W 4936  24.177   8.132   9.106 -0.2031  0.1793 -0.0902
 4073W        W 4937  10.953   0.093   8.975 -0.1387 -0.0400  0.3573
 4074W        W 4938   5.657   3.011   1.880  0.3283  0.2949  0.1101
 4075W        W 4939  16.960  24.489  10.751  0.2512 -0.1282  0.2646
 4076W        W 4940   8.593  20.324  24.807  0.2642 -0.1379  0.0864
 4077W        W 4941   8.587   6.439   5.647 -0.2138 -0.2070 -0.1591
 4078W        W 4942   3.604   7.389  23.566  0.0567 -0.1192 -0.0284
 4079W        W 4943   1.434  11.391   1.572  0.1241  0.0825  0.1195
 4080W        W 4944   1.572   0.499   0.387 -0.0033  0.0103 -0.0068
 4081W        W 4945  17.210   9.852  25.592 -0.0384 -0.0413 -0.1289
 4082W        W 4946   6.023  22.311   6.782 -0.0753 -0.1745 -0.0702
 4083W        W 4947  13.911  11.898   9.115  0.1185 -0.2422  0.1040
 4084W        W 4948   2.652   7.178   9.212 -0.0495 -0.1804 -0.3629
 4085W        W 4949  28.346  19.012  27.538  0.0762  0.0839 -0.1305
 4086W        W 4950  24.350   2.856   0.157  0.1740 -0.0211 -0.0109
 4087W        W 4951  18.748  27.712  27.041 -0.2394  0.4838 -0.0619
 4088W        W 4952   0.575   1.610   6.481  0.0509  0.1005  0.3291
 4089W        W 4953   4.420   8.407  13.558  0.0790 -0.2519  0.1539
 4090W        W 4954  21.093  13.638   7.300 -0.1443  0.3507  0.4378
 4091W        W 4955  11.158   6.804  11.673 -0.3279 -0.1374 -0.2214
 4092W        W 4956  27.417  23.252   5.431  0.0858  0.1313  0.1096
 4093W        W 4957   4.987  23.731   6.609  0.0856 -0.0115 -0.1450
 4094W        W 4958   1.812  13.570   6.092 -0.0655  0.0254 -0.0190
 4095W        W 4959   3.409  14.227   9.672 -0.2381  0.1165  0.0378
 4096W        W 4960   2.455   4.565  25.912  0.4424  0.1379  0.2458
 4097W        W 4961   6.613  26.403   2.951 -0.1343  0.0181  0.2586
 4098W        W 4962   4.807  23.246   4.098  0.0063  0.0384  0.1043
 4099W        W 4963   8.691  21.767  25.016  0.0227 -0.1416 -0.0872
 4100W        W 4964  14.171   2.905  11.061 -0.2103  0.2848 -0.2682
 4101W        W 4965  25.394   4.281   5.721 -0.0292 -0.0012  0.1118
 4102W        W 4966   2.454   0.090  10.565  0.1980 -0.1772  0.1720
 4103W        W 4967   5.833   3.998   2.063 -0.0731 -0.0180 -0.0851
 4104W        W 4968  19.491  18.229   8.286 -0.0739  0.0275  0.1137
 4105W        W 4969  15.421   2.170  18.581  0.0363 -0.0326 -0.2637
 4106W        W 4970  28.522   1.010   4.053  0.0441 -0.1028 -0.2194
 4107W        W 4971  10.808   9.668  13.385  0.0775 -0.3019 -0.2171
 4108W        W 4972   4.729  19.576  27.382 -0.0968  0.1415  0.0489
 4109W        W 4973   2.559  27.773   5.495 -0.2180  0.3173 -0.2870
 4110W        W 4974   0.201   9.228   5.069 -0.2989 -0.0936  0.3438
 4111W        W 4975  28.260  26.400  28.677  0.2656 -0.1220  0.1184
 4112W        W 4976   0.188  12.334  20.635 -0.0585  0.3202  0.2050
 4113W        W 4977  10.687  28.238  24.025 -0.0883  0.0642  0.0297
 4114W        W 4978  25.858  20.701  20.869 -0.2936  0.0536  0.0038
 4115W        W 4979   3.109   6.349   4.197  0.0011  0.0297  0.0436
 4116W        W 4980   6.003  12.164   2.906 -0.1395  0.1557  0.1015
 4117W        W 4981   7.014   6.992   1.549  0.0433  0.3124  0.1026
 4118W        W 4982   2.355  14.410   0.114 -0.1648  0.0214  0.1559
 4119W        W 4983   9.070  17.784  20.325  0.0038 -0.1750 -0.0812
 4120W        W 4984   7.421  12.588  10.170 -0.1053 -0.4702 -0.1202
 4121W        W 4985   2.593  10.294  27.274 -0.0023 -0.1128  0.0523
 4122W        W 4986   5.779  19.384   8.422  0.0620  0.2478 -0.0465
 4123W        W 4987   6.742  21.009   6.672 -0.0745 -0.0817 -0.1249
 4124W        W 4988   5.169  13.811  13.902  0.0513  0.1888 -0.0358
 4125W        W 4989   3.248   7.783  11.238  0.0581 -0.2853 -0.0777
 4126W        W 4990  25.291   5.056   2.000 -0.3703 -0.1893  0.0039
 4127W        W 4991   5.127  15.757  14.318  0.0358 -0.0092  0.2171
 4128W        W 4992  18.368  19.331  18.520 -0.1615  0.0787  0.0242
 4129W        W 4993   6.551  24.966  26.663 -0.1556 -0.0750  0.0681
 4130W        W 4994   8.587   6.153  22.199 -0.0231 -0.0903  0.1033
 4131W        W 4995  26.505  10.827  17.323 -0.0455  0.3990  0.3074
 4132W        W 4996  23.773  28.973   5.437 -0.1271  0.1178 -0.4210
 4133W        W 4997   8.249   9.854   9.642 -0.2493  0.2058 -0.2212
 4134W        W 4998  12.449  17.575   9.644  0.2346  0.0415 -0.3898
 4135W        W 4999  11.703  12.502  25.137 -0.1912  0.0664 -0.0692
 4136W        W 5000  12.080  28.568  24.661 -0.1080 -0.1847 -0.4140
 4137W        W 5001  21.716  25.132  27.722 -0.0041  0.0262  0.4115
 4138W        W 5002  12.281   9.962  21.553 -0.1427 -0.1384  0.0204
 4139W        W 5003  26.239   3.047   4.604 -0.1405  0.1958  0.4572
 4140W        W 5004  19.784   0.876   8.694 -0.3380  0.0415 -0.0592
 4141W        W 5005  26.257   3.987  21.516 -0.0195 -0.1483  0.1162
 4142W        W 5006  18.804   4.583   6.167 -0.1506  0.0738  0.1365
 4143W        W 5007  23.757  16.123   4.588  0.0775  0.2191 -0.1415
 4144W        W 5008   4.856  17.858  22.899 -0.0025 -0.1295  0.1901
 4145W        W 5009  13.955   8.060  18.316  0.2526 -0.4280 -0.2662
 4146W        W 5010  27.959  27.493  23.018  0.1859 -0.0063  0.1069
 4147W        W 5011  25.577  28.732  15.855  0.2268 -0.0751  0.1288
 4148W        W 5012  12.894  12.081  27.607  0.1316  0.0042 -0.0526
 4149W        W 5013  27.386  23.980  25.135  0.2074  0.2857  0.1850
 4150W        W 5014  15.099  22.232   4.305  0.1964  0.0986  0.1446
 4151W        W 5015   4.836  20.962   2.773  0.0631  0.1578  0.1517
 4152W        W 5016   6.488  16.131   8.715 -0.1456 -0.0849  0.2347
 4153W        W 5017  20.079  25.235   3.541  0.0790  0.0041  0.1761
 4154W        W 5018   5.243  28.963  11.680 -0.0791  0.0470  0.0152
 4155W        W 5019  13.383   8.963  25.628 -0.0881 -0.2962 -0.0540
 4156W        W 5020  24.472  23.674  22.987 -0.1799 -0.1641  0.0537
 4157W        W 5021   9.141  20.520  10.716 -0.0945 -0.1026 -0.0749
 4158W        W 5022   6.924   0.066   5.259 -0.2159 -0.3232  0.3825
 4159W        W 5023  26.561  21.225  15.504 -0.1158  0.1992 -0.0425
 4160W        W 5024  23.266   3.493   3.930 -0.1180 -0.0917 -0.1181
 4161W        W 5025  18.085   2.522  14.469  0.1447 -0.0523 -0.0478
 4162W        W 5026   8.274  17.585  10.389 -0.0322 -0.0048  0.0026
 4163W        W 5027  16.474   6.201  10.820 -0.1179  0.1584 -0.2807
 4164W        W 5028  28.001   2.679  20.514 -0.1325  0.2503 -0.0760
 4165W        W 5029  22.996  28.422   5.979  0.2153 -0.1966  0.0192
 4166W        W 5030   4.797  24.955  15.903 -0.1095  0.0112 -0.2719
 4167W        W 5031  28.851  10.789  23.527  0.0825 -0.1038 -0.3075
 4168W        W 5032   2.203  10.153   5.756 -0.0261 -0.2870 -0.2854
 4169W        W 5033   4.778   4.276   5.997  0.2877  0.2306 -0.2678
 4170W        W 5034  17.169   1.117  12.100 -0.1039  0.2471 -0.2756
 4171W        W 5035  11.644  10.872  28.562  0.1505 -0.1955  0.0163
 4172W        W 5036   7.970  22.686   9.060  0.2026 -0.1265  0.4648
 4173W        W 5037   3.317  19.817   7.800  0.0130  0.0771  0.3041
 4174W        W 5038  19.945   9.476   2.742  0.1032 -0.1975  0.0506
 4175W        W 5039   1.194  26.083  26.941 -0.3547 -0.0345 -0.2716
 4176W        W 5040   9.329  16.139   9.582 -0.0050  0.0802  0.2100
 4177W        W 5041   6.310   0.173   6.386 -0.0815 -0.0453 -0.0034
 4178W        W 5042   9.065   9.096  17.130 -0.0636 -0.0639 -0.3127
 4179W        W 5043  10.514  28.332  16.852  0.0493  0.0813 -0.2831
 4180W        W 5044  25.968  12.293  20.944 -0.2290 -0.3056  0.0262
 4181W        W 5045  11.562   4.126  23.259 -0.2133 -0.3026 -0.0905
 4182W        W 5046  13.964   6.636   5.580  0.1217 -0.1718 -0.2286
 4183W        W 5047  15.175  22.528   3.910 -0.1387  0.0862 -0.0394
 4184W        W 5048  23.710  14.793   6.159 -0.1384  0.0133  0.1804
 4185W        W 5049   9.095  25.649  18.896  0.0302 -0.2545 -0.2576
 4186W        W 5050  15.151  23.698   8.113 -0.1507  0.2173  0.0158
 4187W        W 5051   8.302  25.415  15.786  0.2943  0.0720  0.2093
 4188W        W 5052  25.499   1.047  20.252  0.1084  0.1515  0.2354
 4189W        W 5053  27.759  19.837  22.878  0.0860 -0.0628  0.2189
 4190W        W 5054  21.676  26.999  21.951  0.0848 -0.0467  0.1468
 4191W        W 5055   9.129   8.451   9.301  0.1848 -0.0159 -0.0519
 4192W        W 5056   4.792  12.029   3.036  0.0909 -0.0805 -0.0803
 4193W        W 5057  22.896   5.178  18.274 -0.0243  0.1398 -0.1407
 4194W        W 5058  11.970  11.157  18.966 -0.1168 -0.1601  0.3163
 4195W        W 5059   4.758  26.372  17.113  0.2359 -0.1497  0.1089
 4196W        W 5060  26.315  25.165  20.824 -0.1375 -0.1101  0.2539
 4197W        W 5061  10.576  28.701  23.752 -0.0818 -0.3067 -0.0970
 4198W        W 5062  13.317   7.953   2.301 -0.2316 -0.1111  0.3634
 4199W        W 5063  10.142  13.772  10.429  0.2284 -0.0985 -0.1341
 4200W        W 5064   5.474  18.067   5.672 -0.1374  0.1058 -0.1192
 4201W        W 5065  17.550   5.222   8.062  0.1532  0.0626  0.1608
 4202W        W 5066   9.332   2.952  16.869  0.1394  0.2242 -0.2216
 4203W        W 5067  21.475   6.342   5.623 -0.0346  0.1155 -0.1590
 4204W        W 5068  28.280  28.284   0.199  0.0117  0.0216 -0.1328
 4205W        W 5069  13.440  19.061  24.986  0.3237 -0.1539  0.0504
 4206W        W 5070  28.186   7.685  16.895 -0.0669 -0.0075  0.1633
 4207W        W 5071   5.701  27.917   4.444 -0.0262 -0.1169  0.1546
 4208W        W 5072  22.689  17.365  28.516 -0.2981  0.1731  0.2395
 4209W        W 5073   0.405  19.027  28.996  0.0080  0.0743  0.1093
 4210W        W 5074   1.431   1.858   9.470 -0.1037 -0.1389  0.2439
 4211W        W 5075   8.539  26.604  12.345  0.3116 -0.1466  0.0166
 4212W        W 5076  18.250   3.675   2.191 -0.3545 -0.3937 -0.4704
 4213W        W 5077  21.036  17.374  11.246  0.1893  0.1722  0.1447
 4214W        W 5078   6.969  15.781   1.306  0.1277 -0.0404  0.0201
 4215W        W 5079  19.036  11.734   7.835  0.3195 -0.1021  0.2200
 4216W        W 5080  25.351   2.217  15.364 -0.0494  0.0163  0.2112
 4217W        W 5081  27.206   9.100  14.018  0.0626  0.2850  0.0905
 4218W        W 5082   0.622  28.534   8.501  0.1113  0.4096 -0.0342
 4219W        W 5083  13.577  13.084   9.551  0.2906 -0.2680 -0.1123
 4220W        W 5084  10.911   6.019   7.305 -0.3409  0.0373 -0.1390
 4221W        W 5085  28.709  20.888   2.713 -0.0476 -0.0539 -0.0484
 4222W        W 5086  20.625   2.391  16.559 -0.0980 -0.1499 -0.1460
 4223W        W 5087  24.143  16.678  13.460 -0.0172 -0.4635 -0.2479
 4224W        W 5088   9.886  27.461  24.336 -0.1683 -0.2082  0.2535
 4225W        W 5089   8.091  12.372  21.224 -0.0083 -0.1155  0.1960
 4226W        W 5090  20.434   2.531   0.226  0.0137  0.4405 -0.1961
 4227W        W 5091  11.561  17.963   4.385  0.0726  0.1122 -0.0579
 4228W        W 5092  16.788  19.034  25.065  0.0396 -0.2170 -0.2172
 4229W        W 5093  26.115  13.936  19.679 -0.2018  0.0606  0.3337
 4230W        W 5094  18.298   1.470   5.280 -0.1923 -0.1715  0.0012
 4231W        W 5095  19.671  12.325   7.560  0.1070  0.0306  0.1711
 4232W        W 5096  24.203  25.666  18.449  0.0347  0.4247  0.1523
 4233W        W 5097   0.939  29.120   9.698 -0.0255 -0.3903  0.0637
 4234W        W 5098  10.301  10.512  20.492 -0.0725  0.1422  0.3028
 4235W        W 5099   7.640  15.424   1.915 -0.0026 -0.4091 -0.0489
 4236W        W 5100  11.162   9.828   5.080  0.0680 -0.2861 -0.1474
 4237W        W 5101  28.196  23.968  25.125 -0.1309 -0.1195  0.0278
 4238W        W 5102  13.963  10.716  10.810 -0.0253  0.0961  0.0245
 4239W        W 5103   6.987  19.423  20.737  0.2099 -0.0837  0.4021
 4240W        W 5104  19.343  10.648  10.281  0.2090 -0.0113  0.1555
 4241W        W 5105  26.865   9.238  12.433  0.0793  0.1998 -0.0136
 4242W        W 5106   7.361   5.299   3.032  0.4559 -0.2033  0.0338
 4243W        W 5107  24.185  28.895  18.331  0.0112 -0.3316 -0.4299
 4244W        W 5108  26.949   8.374  21.190  0.0507 -0.0440  0.4611
 4245W        W 5109   8.636   9.174  23.470  0.0238 -0.1470  0.1387
 4246W        W 5110  26.304  16.594  16.177  0.2580  0.2159 -0.2400
 4247W        W 5111  12.583  22.767  18.906  0.2739 -0.0110  0.0111
 4248W        W 5112  17.857  10.293   2.877  0.0401  0.1435  0.1398
 4249W        W 5113  20.707  26.432  16.642  0.2106 -0.0431  0.2078
 4250W        W 5114  23.781   5.185  23.376  0.1000  0.0379  0.0943
 4251W        W 5115  27.618  22.876  21.846 -0.2903 -0.1253  0.0679
 4252W        W 5116  23.529   6.159  22.106 -0.0165  0.0314  0.0919
 4253W        W 5117   0.386  22.589   8.766 -0.0504 -0.0947 -0.3609
 4254W        W 5118  12.049   1.550   8.699  0.1857  0.3028  0.2862
 4255W        W 5119   7.398  27.048  20.471  0.0826  0.0677  0.0848
 4256W        W 5120  23.498   8.103  18.633 -0.0024 -0.2412  0.1854
 4257W        W 5121  12.063   6.652   8.895  0.0740 -0.1404 -0.0217
 4258W        W 5122  22.580  21.886   7.887 -0.0259  0.0140  0.1521
 4259W        W 5123  16.287   8.273   7.573 -0.1392  0.0537  0.0164
 4260W        W 5124  27.428  25.737  21.832 -0.2628 -0.2317  0.4674
 4261W        W 5125  27.206  23.475  19.538  0.1754 -0.5271 -0.2691
 4262W        W 5126   2.607   5.176  17.853 -0.3214  0.3168  0.0173
 4263W        W 5127  21.977   1.710  26.785  0.0957  0.0469 -0.2010
 4264W        W 5128  16.131   8.420  11.870 -0.1440 -0.2687  0.1497
 4265W        W 5129   1.921   6.949  12.377  0.3474 -0.1115 -0.0542
 4266W        W 5130   5.018   6.157  26.922  0.1496 -0.0198  0.0111
 4267W        W 5131   3.560  13.529   8.204  0.1387  0.1565 -0.1370
 4268W        W 5132   7.003   3.834  12.079 -0.1628  0.0844  0.1090
 4269W        W 5133   4.560  25.178  25.577  0.0640  0.1844  0.0349
 4270W        W 5134  21.589  17.305  28.262 -0.2119 -0.2168 -0.1209
 4271W        W 5135   0.662  10.890   8.847 -0.0967 -0.2314  0.1740
 4272W        W 5136  10.582  28.866  11.148  0.3479  0.0778  0.1035
 4273W        W 5137   0.546   7.587   4.720  0.1730 -0.1410 -0.0681
 4274W        W 5138   5.278  24.817   1.444 -0.2286 -0.1195 -0.3267
 4275W        W 5139   2.819  13.035   4.438 -0.4804 -0.0867 -0.2375
 4276W        W 5140   1.617  18.350   1.096  0.2308  0.1892 -0.1773
 4277W        W 5141  12.452  17.646   8.894 -0.0759 -0.5732 -0.0952
 4278W        W 5142  25.726   6.744   0.210 -0.1309  0.1212  0.1416
 4279W        W 5143   6.405  25.970   2.981  0.0580  0.1883 -0.4985
 4280W        W 5144  24.424  26.498   4.326  0.1385 -0.1150 -0.0835
 4281W        W 5145  15.774   1.016   3.105 -0.3145  0.0345 -0.1011
 4282W        W 5146   2.963   4.889   6.193  0.2971  0.1505  0.0007
 4283W        W 5147  18.823   0.960   7.806  0.3659 -0.1968 -0.0018
 4284W        W 5148   5.525  27.337  28.266 -0.0675  0.0390  0.0918
 4285W        W 5149  13.170   1.486  22.404 -0.1546  0.2395 -0.1394
 4286W        W 5150  28.633   7.231  28.955 -0.3079  0.0795  0.1367
 4287W        W 5151   1.546  14.937   6.521 -0.1321 -0.0037  0.1250
 4288W        W 5152  13.078  13.166   9.406  0.3395 -0.0077  0.1496
 4289W        W 5153  21.742   8.805  13.696 -0.0377 -0.1641  0.2191
 4290W        W 5154   4.200  17.886  10.412 -0.3854  0.0350 -0.2090
 4291W        W 5155  13.304  20.140  11.560  0.0356 -0.1174 -0.0418
 4292W        W 5156   9.731  27.575  19.009 -0.0868  0.0325  0.0775
 4293W        W 5157  12.455  16.235   6.134 -0.1622  0.3232 -0.0410
 4294W        W 5158  24.061  28.160  16.726  0.2732  0.1615  0.1821
 4295W        W 5159  19.441  17.644  14.950  0.2153 -0.0069 -0.0396
 4296W        W 5160   1.009  15.563   7.006 -0.0562  0.3234 -0.2493
 4297W        W 5161   0.849  28.542   3.359 -0.2459  0.0124  0.1036
 4298W        W 5162   1.529   2.138   5.995  0.3786  0.0548  0.2145
 4299W        W 5163  23.153  13.219   4.215 -0.1398 -0.3313 -0.0186
 4300W        W 5164  28.125   1.745  20.820 -0.1070  0.1047 -0.4010
 4301W        W 5165  25.604  11.798   3.317 -0.1295  0.1452  0.0301
 4302W        W 5166   0.912   0.033  21.601  0.3084 -0.1864  0.1630
 4303W        W 5167  23.401  23.437  24.123  0.1063  0.0776  0.3398
 4304W        W 5168   8.255  11.855   1.591  0.2047 -0.1296  0.2908
 4305W        W 5169  11.393   6.522  12.891  0.0069  0.2738  0.0102
 4306W        W 5170  21.171  27.378  18.787  0.2192  0.0628  0.2816
 4307W        W 5171  15.467  16.138   2.951 -0.1687  0.0290 -0.1314
 4308W        W 5172   0.319  10.641  26.109 -0.0167  0.1922 -0.2000
 4309W        W 5173  27.879  13.672  15.640 -0.1088  0.0901 -0.1507
 4310W        W 5174   6.699  11.334   9.858 -0.0589 -0.1991 -0.1325
 4311W        W 5175  24.505   5.426   5.404 -0.1232  0.1264  0.1150
 4312W        W 5176  12.127   4.958   9.972 -0.2189  0.0038 -0.4183
 4313W        W 5177  25.681  11.807   1.233 -0.0402  0.1266  0.0272
 4314W        W 5178   2.340  22.886   6.503  0.0097  0.1130  0.1895
 4315W        W 5179  12.773   0.920  14.636 -0.1496  0.0107  0.0993
 4316W        W 5180  27.723  24.693  25.771 -0.0614 -0.1820 -0.0616
 4317W        W 5181   6.007  21.155  12.775  0.1969  0.0478  0.1491
 4318W        W 5182   6.891  22.457  27.904  0.1893 -0.4886  0.2969
 4319W        W 5183  22.407   4.039  12.835 -0.0192 -0.1005  0.0838
 4320W        W 5184  17.689  28.151  12.295 -0.1133  0.0284  0.2521
 4321W        W 5185   9.588  14.048  16.085 -0.1530  0.0816  0.1460
 4322W        W 5186   2.811  13.406   2.923 -0.0731  0.0811 -0.0140
 4323W        W 5187   0.989  15.343  24.276 -0.1475  0.0228  0.3065
 4324W        W 5188   1.194   1.131   0.849  0.2568  0.0950  0.0738
 4325W        W 5189  15.106  15.976   7.400  0.0772  0.0329 -0.0432
 4326W        W 5190  17.420  11.050  10.863  0.0421  0.3373  0.1069
 4327W        W 5191   5.533   8.475  20.973  0.3098  0.1253 -0.1015
 4328W        W 5192  12.004   8.680  18.222  0.4099  0.1652 -0.1894
 4329W        W 5193   7.421   5.624  27.388 -0.2095  0.0614 -0.0586
 4330W        W 5194  19.958  21.197  15.664  0.0324 -0.3230 -0.1256
 4331W        W 5195  19.436   6.676   1.068  0.0294 -0.1537  0.1327
 4332W        W 5196   9.408   6.858  24.153 -0.0439  0.1959  0.1544
 4333W        W 5197  28.617  20.068  10.837 -0.0962  0.4544  0.0631
 4334W        W 5198  21.082  20.754  12.723 -0.0150  0.2393  0.0359
 4335W        W 5199  28.671   3.401  28.960  0.1523 -0.0449  0.0232
 4336W        W 5200   4.739  22.938   7.505  0.2486 -0.0196 -0.1819
 4337W        W 5201   0.836   7.785   9.828  0.1870 -0.1269  0.0347
 4338W        W 5202  23.975  17.038  22.972 -0.2570 -0.2621  0.0171
 4339W        W 5203   4.494   3.292  12.045  0.2976  0.1617 -0.1031
 4340W        W 5204  19.723   8.121  15.317  0.1740 -0.0726  0.4564
 4341W        W 5205  15.402  12.351  20.468  0.3710  0.0207  0.4204
 4342W        W 5206  28.982  11.550   3.618  0.0761 -0.0997 -0.1766
 4343W        W 5207   4.865  16.200  15.372  0.0913 -0.0801 -0.0710
 4344W        W 5208  28.901   6.490   8.146  0.1821 -0.0034  0.0643
 4345W        W 5209  21.727   5.130  16.701 -0.1097  0.1125 -0.1979
 4346W        W 5210  24.098   4.425  15.656 -0.2442  0.1333  0.1212
 4347W        W 5211   0.742   8.071   4.576  0.0441  0.0943  0.4269
 4348W        W 5212  27.706  22.353   9.446 -0.3945  0.0195  0.0682
 4349W        W 5213  18.880  14.962  16.656 -0.0066  0.2932  0.0628
 4350W        W 5214  27.824  24.171   5.930 -0.1906  0.1636  0.1984
 4351W        W 5215  18.075  11.729   7.266  0.0523  0.0102  0.0296
 4352W        W 5216  21.073  13.589  17.096 -0.0223 -0.0455  0.1342
 4353W        W 5217  24.501   5.859  10.894  0.3925 -0.1331  0.2903
 4354W        W 5218  15.300  16.872   0.592  0.0387 -0.0739  0.4702
 4355W        W 5219   1.920   8.926   1.403 -0.3335 -0.1229 -0.0199
 4356W        W 5220  10.456  26.584  11.348  0.1734  0.1624  0.0532
 4357W        W 5221  11.283  18.401   3.575 -0.0347 -0.0772  0.0066
 4358W        W 5222  26.929   9.763   8.200  0.2566 -0.2629 -0.1944
 4359W        W 5223   0.450  21.434  15.427 -0.1012 -0.0683  0.0907
 4360W        W 5224   0.587   5.481  11.151  0.1354  0.0063 -0.0620
 4361W        W 5225  21.434  25.177   5.587  0.1521  0.2181  0.0578
 4362W        W 5226  22.073   7.025  10.584  0.3811 -0.0149  0.0861
 4363W        W 5227   7.634  28.653  10.756  0.1440  0.1987 -0.1747
 4364W        W 5228   6.556   5.011  12.710  0.0413 -0.1892  0.0723
 4365W        W 5229  25.226  26.492  13.358  0.0284 -0.0755  0.0934
 4366W        W 5230  12.729  24.721  17.374 -0.0936 -0.0567 -0.0641
 4367W        W 5231  12.511  10.094  25.532 -0.0485 -0.1197  0.1805
 4368W        W 5232  14.644   5.206  17.602  0.2941  0.0201  0.1389
 4369W        W 5233   6.671  22.842   9.946  0.1450 -0.1203 -0.2052
 4370W        W 5234  19.264  26.960  12.342  0.0575  0.0712  0.1083
 4371W        W 5235   4.772  28.136  29.128 -0.0921  0.0446 -0.2921
 4372W        W 5236   5.443   0.721  26.459 -0.1492  0.0757  0.0581
 4373W        W 5237   6.615   0.561  18.272  0.1258  0.1278  0.0022
 4374W        W 5238   4.173  26.504   8.558  0.1726  0.0944 -0.0178
 4375W        W 5239   1.488   7.045  16.152 -0.0532  0.1096  0.1595
 4376W        W 5240   4.292   6.275   5.398  0.2149 -0.4639  0.0601
 4377W        W 5241  14.912   5.696   7.350  0.2463  0.0691  0.0700
 4378W        W 5242   5.233  17.630  19.995 -0.3529  0.1292 -0.2325
 4379W        W 5243  13.926  22.543   3.923 -0.2548 -0.1175 -0.0490
 4380W        W 5244   1.406  12.715  12.986  0.0503 -0.2651 -0.0245
 4381W        W 5245  25.996  27.849   6.415  0.2272 -0.0615  0.1168
 4382W        W 5246  15.486   0.303   6.667  0.0504 -0.0666  0.1501
 4383W        W 5247  28.387  23.695  14.176 -0.2165 -0.2779 -0.1085
 4384W        W 5248  23.186  24.607   5.534 -0.0664  0.0692 -0.3351
 4385W        W 5249  26.509  23.142   1.660  0.5299  0.2251  0.0174
 4386W        W 5250  12.968  20.682  12.637 -0.1122  0.1457  0.1701
 4387W        W 5251   6.269   6.064  13.763 -0.3340 -0.0566  0.0993
 4388W        W 5252   1.809   7.622  13.524 -0.0293  0.3116 -0.1167
 4389W        W 5253  23.727  13.501  19.215  0.1756 -0.1861  0.0166
 4390W        W 5254  24.068  28.077  11.795  0.0507  0.1198  0.0924
 4391W        W 5255  28.051  16.628  27.180  0.0175 -0.0198  0.1275
 4392W        W 5256  22.400  28.329  27.134  0.3266 -0.2331 -0.2387
 4393W        W 5257   7.441   9.394  12.468 -0.1546 -0.2114  0.2845
 4394W        W 5258   7.483   4.616  17.233  0.0692 -0.0827 -0.0384
 4395W        W 5259   2.113  28.236   0.215 -0.0792 -0.2170  0.0074
 4396W        W 5260   6.092   5.056   8.197 -0.3793  0.1728  0.0143
 4397W        W 5261  11.737  15.069  27.183  0.3421 -0.2347 -0.0484
 4398W        W 5262   7.532   4.700  19.843  0.1073  0.1325  0.1866
 4399W        W 5263  12.125   1.693  23.410 -0.2501 -0.0818  0.0779
 4400W        W 5264  13.787   1.896  19.988 -0.2732 -0.2969  0.0323
 4401W        W 5265  15.821  12.121  11.048  0.2365 -0.1443  0.0206
 4402W        W 5266   7.626  10.396  21.166  0.0805 -0.1455 -0.2442
 4403W        W 5267   6.548  13.449  25.794  0.2715  0.0230  0.1307
 4404W        W 5268   9.587  19.696   6.707 -0.5055 -0.3197  0.2420
 4405W        W 5269   7.137   8.501   8.395  0.3331  0.0831 -0.1694
 4406W        W 5270  26.787   0.940  15.874  0.2286 -0.0964 -0.3322
 4407W        W 5271  24.245  10.920   7.916 -0.1411  0.1436  0.0298
 4408W        W 5272  10.708   0.868  28.970  0.0064  0.1311 -0.0003
 4409W        W 5273  21.397  24.602  22.700  0.0967  0.2286  0.1291
 4410W        W 5274  15.645   5.307  11.439 -0.2475  0.0989  0.1488
 4411W        W 5275   0.011  24.885  23.620 -0.1072  0.0321  0.0623
 4412W        W 5276   1.850  15.317  14.703 -0.2202 -0.1306  0.0527
 4413W        W 5277  16.725  24.669  16.611 -0.3452 -0.0339  0.0182
 4414W        W 5278   9.923  16.080  25.479 -0.1018 -0.0219  0.0363
 4415W        W 5279   4.617  26.264   9.124  0.1627  0.0816 -0.1970
 4416W        W 5280  17.787  22.938   8.398 -0.3475 -0.0094 -0.0175
 4417W        W 5281   1.073  10.323  17.657 -0.1725  0.2582 -0.1480
 4418W        W 5282   9.649   9.568   7.069  0.3243  0.0830  0.0713
 4419W        W 5283  21.327  12.042  18.135 -0.3576 -0.1378  0.1921
 4420W        W 5284  22.959   2.950   9.739 -0.1740 -0.0022 -0.2472
 4421W        W 5285   6.858   7.532  21.635  0.2043 -0.3896 -0.0765
 4422W        W 5286   1.926   7.616  10.958  0.1658  0.0649  0.1025
 4423W        W 5287   3.516   3.172  25.784  0.3002  0.1944  0.1355
 4424W        W 5288  20.477   5.762  12.656 -0.2820  0.2586 -0.0808
 4425W        W 5289  23.251  11.130  21.996  0.1967 -0.5603  0.3376
 4426W        W 5290  17.555  23.716  12.595 -0.1814 -0.1349 -0.0014
 4427W        W 5291   9.258   2.317  24.532  0.0155  0.2261  0.0124
 4428W        W 5292   5.716   9.239   9.269 -0.1000 -0.1966  0.0093
 4429W        W 5293   0.524   6.022   0.283  0.3920  0.2375  0.1011
 4430W        W 5294   0.691  25.006  16.457 -0.0639  0.0894  0.1663
 4431W        W 5295  28.459   1.884   6.049 -0.0218  0.1829  0.0591
 4432W        W 5296   4.747  12.887  15.271 -0.3071 -0.2529 -0.2434
 4433W        W 5297  19.586  13.120  12.832 -0.0839 -0.0352 -0.2006
 4434W        W 5298   3.463  28.594  23.968 -0.1087  0.1376  0.2075
 4435W        W 5299  21.279   4.111   6.005 -0.2457  0.1579 -0.1772
 4436W        W 5300  28.280   6.642  18.230  0.0980  0.1664 -0.1759
 4437W        W 5301  12.859  13.302  23.142 -0.2444  0.0385 -0.0739
 4438W        W 5302   3.316  19.734   9.199 -0.0939  0.0004 -0.1533
 4439W        W 5303   8.236   3.945  13.785 -0.0673  0.0922 -0.0755
 4440W        W 5304  14.523  13.903   7.821 -0.2291 -0.0907  0.0547
 4441W        W 5305  21.047  15.283  27.303  0.0170 -0.0730 -0.2200
 4442W        W 5306  20.873  26.812   8.646 -0.0844 -0.3970 -0.0903
 4443W        W 5307  17.883   6.615  26.978  0.0077 -0.0572 -0.1332
 4444W        W 5308  23.787   6.309   8.829 -0.2795 -0.2638 -0.4708
 4445W        W 5309   4.554  13.020   5.812 -0.2095 -0.1360  0.1790
 4446W        W 5310  10.240  22.942   0.767 -0.2353 -0.2119 -0.0129
 4447W        W 5311  10.146   5.915   4.785  0.0590  0.2314 -0.2068
 4448W        W 5312  24.264  14.524  21.478  0.2101 -0.2140 -0.1602
 4449W        W 5313   2.064   5.280   1.251  0.3238 -0.2024  0.2255
 4450W        W 5314   1.033  27.558   4.898 -0.0928 -0.1084 -0.0764
 4451W        W 5315   1.591   4.165  18.040 -0.1880 -0.3379 -0.3840
 4452W        W 5316  29.112  12.341  21.654  0.1562 -0.2956 -0.2381
 4453W        W 5317  21.207   0.120  26.633 -0.0304 -0.0224 -0.0409
 4454W        W 5318   4.505  28.780  27.605  0.0495  0.0851  0.1102
 4455W        W 5319   1.784   7.199  23.083  0.0917 -0.2784 -0.0458
 4456W        W 5320   1.223  19.204   7.015 -0.1032 -0.2336  0.1481
 4457W        W 5321   4.067   7.068  14.944 -0.4694  0.3132 -0.1483
 4458W        W 5322  18.613   6.835  13.394 -0.0874  0.0506  0.5499
 4459W        W 5323  25.370  23.708  12.685  0.3605 -0.0334 -0.2054
 4460W        W 5324  27.541  26.228  16.189 -0.2618 -0.2251 -0.0546
 4461W        W 5325  24.108  14.431  22.983  0.1634  0.0675 -0.1153
 4462W        W 5326  19.493  12.652   1.263 -0.5294  0.0652  0.1230
 4463W        W 5327  18.081   9.265  15.182 -0.0196 -0.0243 -0.1886
 4464W        W 5328   0.435   3.683   9.342  0.1014 -0.1240  0.0116
 4465W        W 5329  24.014  28.095  16.141 -0.0372  0.2212 -0.0631
 4466W        W 5330  21.921  12.792  17.276  0.0796 -0.0224 -0.4232
 4467W        W 5331   5.504   3.452  16.197  0.0277 -0.0839 -0.0274
 4468W        W 5332   5.966  12.318  10.355 -0.2346 -0.3205  0.2033
 4469W        W 5333   3.064   0.101   8.191 -0.2835 -0.0015  0.0728
 4470W        W 5334  27.917  27.726   4.082  0.2582 -0.2715  0.1115
 4471W        W 5335   2.040   8.182  10.519 -0.1921  0.3155  0.0880
 4472W        W 5336   6.453  15.188  18.320  0.0024  0.0904  0.2011
 4473W        W 5337   0.483  16.185  24.487 -0.4154 -0.1365 -0.0019
 4474W        W 5338  27.763   4.915  13.006  0.0554 -0.0704  0.0641
 4475W        W 5339   1.773   4.342  16.755 -0.3085  0.1320 -0.1478
 4476W        W 5340  17.451  17.638  26.297 -0.0431  0.0840  0.1369
 4477W        W 5341  21.286   8.039  27.058 -0.1657  0.2522 -0.0450
 4478W        W 5342  20.535   9.977  14.423 -0.5351 -0.1224  0.1001
 4479W        W 5343   5.776  24.772  11.213 -0.1957  0.2378 -0.0348
 4480W        W 5344  20.188  24.816   7.853 -0.0610  0.0437 -0.1390
 4481W        W 5345   0.338   7.098   6.085  0.3631  0.1116 -0.2160
 4482W        W 5346  13.271   3.968   5.321 -0.1138  0.0979 -0.2911
 4483W        W 5347  23.514   4.435  18.473 -0.0096  0.0126  0.0584
 4484W        W 5348  13.017  14.115  16.102 -0.0652  0.0049  0.0933
 4485W        W 5349  13.235   5.651   9.268 -0.0284 -0.1201  0.3813
 4486W        W 5350   1.594  20.471   4.289 -0.0700  0.0863 -0.1049
 4487W        W 5351   1.644   4.425  13.117  0.2668  0.0098 -0.1809
 4488W        W 5352  24.416  13.480  21.548  0.4930 -0.0474 -0.0486
 4489W        W 5353  26.335  10.141  26.985  0.2277 -0.0554 -0.0946
 4490W        W 5354   7.836  28.913   0.393 -0.2311 -0.1501 -0.1204
 4491W        W 5355  18.605   4.731   9.189  0.1274  0.2058  0.2999
 4492W        W 5356   4.769  25.568  24.751  0.0637  0.0877  0.1572
 4493W        W 5357   4.911  27.516  14.706  0.0898  0.2694  0.0112
 4494W        W 5358  27.034  25.024  13.892  0.1109 -0.0702  0.2085
 4495W        W 5359  20.264   3.132   3.666 -0.2972  0.2230 -0.1423
 4496W        W 5360   9.992   7.396  27.341  0.1574  0.0058  0.1991
 4497W        W 5361  28.339   1.985  13.023  0.2836 -0.1392  0.4575
 4498W        W 5362   1.715   5.801  14.715  0.2095  0.0241 -0.1782
 4499W        W 5363   5.127  26.043   2.907 -0.2386  0.1040 -0.0497
 4500W        W 5364  20.248  11.260  26.512  0.1220 -0.0118 -0.0228
 4501W        W 5365  15.231   7.570  17.829  0.1382 -0.0206  0.4662
 4502W        W 5366  10.857  22.088  26.125  0.1207  0.1654 -0.2434
 4503W        W 5367   9.725   6.760  13.488  0.2917  0.0105  0.2123
 4504W        W 5368   7.698  13.118  24.768  0.1037  0.3543 -0.2371
 4505W        W 5369   4.643  22.556  26.780  0.1811  0.0040  0.0315
 4506W        W 5370  27.852  13.769  16.166  0.0828 -0.0160 -0.2017
 4507W        W 5371  26.614  18.087  12.560 -0.0250 -0.0242  0.0865
 4508W        W 5372   8.778  18.528  24.020 -0.0052  0.0224 -0.1563
 4509W        W 5373   1.328  16.901   4.112  0.1534 -0.2226  0.3007
 4510W        W 5374   7.476  15.595  13.459  0.2317 -0.0260  0.0240
 4511W        W 5375  15.192   5.123   6.551 -0.0532  0.0839 -0.0900
 4512W        W 5376  12.923   0.441   3.718  0.0909  0.1975  0.1159
 4513W        W 5377  28.705  20.928  18.327 -0.3311  0.0671  0.0743
 4514W        W 5378   4.419  28.036   8.441  0.0159  0.1012  0.0220
 4515W        W 5379  26.490  27.939   8.390  0.3727  0.0437  0.0747
 4516W        W 5380  17.561  21.673  29.054 -0.3542  0.3191  0.0048
 4517W        W 5381  26.842  16.810  21.494  0.0880 -0.0353 -0.5279
 4518W        W 5382  14.738  26.733   9.980 -0.1354 -0.0010 -0.1795
 4519W        W 5383  14.781  26.631  28.694  0.1034 -0.1514  0.2924
 4520W        W 5384   0.091  26.010  15.620 -0.2879  0.1082 -0.0576
 4521W        W 5385   3.131   3.037   6.132  0.1368 -0.3052  0.0110
 4522W        W 5386  19.716   5.410  18.121 -0.1413 -0.2655  0.2302
 4523W        W 5387  17.992  20.356  22.741 -0.0370 -0.0459 -0.2684
 4524W        W 5388  12.710  16.991  18.218 -0.1502 -0.0333 -0.2192
 4525W        W 5389  13.213  16.781  13.544 -0.2262 -0.2755 -0.2382
 4526W        W 5390   1.889   1.036   8.460 -0.0553 -0.1921  0.1808
 4527W        W 5391  22.725  12.647   1.293  0.2450 -0.2030 -0.1157
 4528W        W 5392   0.248  27.874  12.015 -0.1259 -0.1113 -0.0942
 4529W        W 5393   0.134   5.564   0.728 -0.1606 -0.1357  0.1615
 4530W        W 5394   0.974  22.841  15.298 -0.2247 -0.0723  0.0574
 4531W        W 5395   1.306  13.718  28.708  0.1469  0.0805 -0.0927
 4532W        W 5396  23.299   5.942   5.257  0.3050 -0.0986  0.1567
 4533W        W 5397   0.629   1.276   1.170  0.2584  0.1483 -0.0726
 4534W        W 5398  22.363   2.345   5.979 -0.0181 -0.0347  0.2092
 4535W        W 5399  12.554  10.388   3.749 -0.1947  0.3045 -0.1109
 4536W        W 5400   4.733  27.509  16.601  0.0921 -0.2533 -0.1361
 4537W        W 5401  24.043   0.816  11.490 -0.3937  0.2091  0.1444
 4538W        W 5402  20.481  10.705  12.437  0.0947 -0.3156  0.1062
 4539W        W 5403  22.262   2.264   2.434  0.0119 -0.0083 -0.1621
 4540W        W 5404  22.833  16.150   8.282  0.2754 -0.1165 -0.3726
 4541W        W 5405   5.054  28.175  17.118 -0.0667  0.0241 -0.2507
 4542W        W 5406  28.767  24.718  24.961 -0.5010  0.0095 -0.1495
 4543W        W 5407  29.029  26.808   3.560  0.1494  0.1091 -0.0143
 4544W        W 5408   1.333  20.695   5.533 -0.2645 -0.3689 -0.1398
 4545W        W 5409  15.781   8.027  13.059  0.1016 -0.3603 -0.5586
 4546W        W 5410  14.718  13.119   4.059  0.3257  0.1358  0.0180
 4547W        W 5411  21.805  16.749  19.988 -0.2512 -0.1003 -0.1335
 4548W        W 5412  16.625  20.059  17.945  0.0117  0.1621  0.2424
 4549W        W 5413  10.009   7.602   8.393  0.1082  0.0322  0.2676
 4550W        W 5414  20.531  11.114  19.074  0.1895 -0.0850 -0.1432
 4551W        W 5415   5.792   6.036  28.921 -0.0550 -0.2326 -0.3103
 4552W        W 5416   7.587  18.025   6.096 -0.3637  0.1430  0.0737
 4553W        W 5417   0.826  13.023  24.198  0.2578  0.1838  0.1456
 4554W        W 5418  25.748  16.126  14.097 -0.1017  0.0203  0.0259
 4555W        W 5419  17.026  23.183   7.771 -0.0302 -0.2457 -0.0356
 4556W        W 5420  14.859  11.912  28.675  0.1973 -0.1030 -0.5072
 4557W        W 5421  25.556  13.304  28.097  0.2054  0.1476  0.2926
 4558W        W 5422   4.222  23.981  13.725  0.1195  0.1916  0.1528
 4559W        W 5423  19.335   2.600  10.875 -0.2309 -0.2059 -0.0171
 4560W        W 5424   1.154   8.413   1.184  0.0109 -0.1419 -0.1080
 4561W        W 5425  22.757  21.701   0.404 -0.1521  0.1872 -0.3860
 4562W        W 5426   9.523  28.882   0.498 -0.2189  0.0243 -0.5328
 4563W        W 5427   9.411  18.613  13.341 -0.2269 -0.0766 -0.3146
 4564W        W 5428  12.995  25.506  10.936  0.2269 -0.0472  0.1446
 4565W        W 5429  16.604   9.412  10.324 -0.2137 -0.0814 -0.2624
 4566W        W 5430  23.057  14.369  27.665 -0.1237 -0.0798  0.1673
 4567W        W 5431  23.089  17.999  19.629  0.1673 -0.0508 -0.1661
 4568W        W 5432  23.570   4.716   7.552  0.0322 -0.0507 -0.2082
 4569W        W 5433  26.780   3.057  14.939  0.1547 -0.1636 -0.0005
 4570W        W 5434  28.493   4.681  13.229 -0.0945 -0.1232 -0.1881
 4571W        W 5435  27.390  20.425   7.927  0.0514 -0.0653 -0.0398
 4572W        W 5436   2.267  15.964   6.821  0.0816  0.1579  0.2750
 4573W        W 5437   8.963   0.975   4.176  0.1081  0.2296 -0.1542
 4574W        W 5438  28.611  26.685   4.940 -0.2566 -0.0637 -0.2954
 4575W        W 5439  26.935   8.888   3.914 -0.1423  0.2632 -0.2877
 4576W        W 5440  23.936   4.150   7.750  0.3724  0.0866 -0.1788
 4577W        W 5441  11.966  25.122   2.601 -0.1520  0.2334  0.0555
 4578W        W 5442   3.071   9.078  12.503  0.1100  0.1457 -0.2756
 4579W        W 5443  21.850  13.416  10.637 -0.1002  0.1021  0.1391
 4580W        W 5444   2.941   7.163  14.433  0.0602  0.3115 -0.0120
 4581W        W 5445  12.072  22.607   4.144  0.1118  0.0756 -0.0138
 4582W        W 5446  28.985  12.214   1.471  0.2890  0.1646  0.0602
 4583W        W 5447   9.604   4.879  13.217 -0.3287  0.4109  0.0938
 4584W        W 5448  19.786   7.643   2.870 -0.0522 -0.0828  0.1880
 4585W        W 5449   7.664   8.468  29.040  0.1891 -0.3172  0.0536
 4586W        W 5450  22.828   8.020  19.122 -0.2144  0.3558 -0.0123
 4587W        W 5451   3.003   1.853  12.343 -0.0501 -0.0015  0.2522
 4588W        W 5452   1.286   7.092  14.309  0.0556 -0.1877 -0.1174
 4589W        W 5453  11.373  19.467   7.876  0.0178  0.0535 -0.1363
 4590W        W 5454  17.929   2.606  12.681  0.0179 -0.1580  0.0531
 4591W        W 5455  18.924  27.169  13.199 -0.0952 -0.0538  0.2870
 4592W        W 5456  19.922   8.853  14.623  0.0905  0.1541  0.4722
 4593W        W 5457   0.294  16.287  14.427  0.0656 -0.3019 -0.1504
 4594W        W 5458   6.120   2.458   9.079  0.1412 -0.1480 -0.1117
 4595W        W 5459   2.436  13.788   7.375  0.4884  0.0143  0.2902
 4596W        W 5460  11.239  19.859  10.390 -0.2399  0.0642  0.0703
 4597W        W 5461  24.847   5.615  17.239 -0.0093  0.1728  0.2629
 4598W        W 5462  11.574   9.811   2.497  0.0459 -0.0573  0.2600
 4599W        W 5463   3.272  19.677  22.730 -0.4016 -0.3425 -0.0619
 4600W        W 5464   5.642  28.619   6.101  0.1616 -0.1640  0.0608
 4601W        W 5465  27.155  23.267   7.079  0.2285  0.1377  0.1154
 4602W        W 5466  24.482  28.224  19.349  0.4151  0.0054 -0.0961
 4603W        W 5467   2.895  24.068  11.817 -0.2539 -0.0659  0.2027
 4604W        W 5468  27.330  24.364  12.943 -0.2743 -0.0275  0.1976
 4605W        W 5469   5.248   7.622   4.949 -0.0135 -0.1472  0.0681
 4606W        W 5470   2.644  20.645   5.140  0.1359 -0.0289  0.2567
 4607W        W 5471  16.097  20.281  28.574  0.1866  0.0626  0.0454
 4608W        W 5472   3.867  15.615  13.453 -0.2818  0.1367 -0.0805
 4609W        W 5473   7.923   3.575   9.120  0.0693  0.3473  0.0997
 4610W        W 5474  20.476   8.608  25.477 -0.0080  0.1052 -0.2666
 4611W        W 5475  10.694  18.257  11.507  0.0103 -0.2756 -0.1112
 4612W        W 5476   4.346   5.625  21.937  0.1093  0.0200 -0.6276
 4613W        W 5477   0.844  14.652  10.613 -0.1419  0.2452  0.1385
 4614W        W 5478  20.733   8.203  24.640  0.0485  0.1181 -0.0033
 4615W        W 5479   3.474  26.389   9.536 -0.1947  0.0165  0.3352
 4616W        W 5480  13.642   6.701   3.058  0.3008  0.2238 -0.1374
 4617W        W 5481   7.614   5.387   2.536  0.0081 -0.1063 -0.0250
 4618W        W 5482  22.554  17.273   4.971  0.0013  0.1351  0.0377
 4619W        W 5483   7.271  26.342  10.305  0.0934 -0.2663  0.1160
 4620W        W 5484   4.538  12.717  16.211 -0.4083  0.3301 -0.0446
 4621W        W 5485   7.542   3.165   8.475 -0.1748  0.3096  0.0834
 4622W        W 5486  22.770  10.550  20.333  0.0561 -0.1418 -0.0739
 4623W        W 5487  15.945   7.828   3.703 -0.2922  0.4142  0.3524
 4624W        W 5488  18.771   1.881  11.899  0.0579 -0.1958  0.1759
 4625W        W 5489   3.166  13.807  28.876 -0.1062 -0.4087  0.2040
 4626W        W 5490   4.204   0.962  12.783 -0.3313  0.0497  0.2400
 4627W        W 5491  11.150  14.411  24.911 -0.0043  0.2272 -0.4870
 4628W        W 5492   4.001   9.182  22.749 -0.1541 -0.1274 -0.0801
 4629W        W 5493  13.834  28.591   1.444  0.1727  0.1240 -0.2899
 4630W        W 5494  16.559  23.857  27.464  0.0132 -0.0309 -0.0212
 4631W        W 5495   2.738  20.188  15.686 -0.1286  0.0586  0.1180
 4632W        W 5496   4.335  24.265  17.367  0.1278 -0.0299 -0.2648
 4633W        W 5497  13.476  13.130   7.616 -0.0592  0.2894 -0.1289
 4634W        W 5498  26.114  22.268  18.680  0.0484 -0.1389 -0.2368
 4635W        W 5499  19.861  20.590   4.625  0.3511  0.2019 -0.1404
 4636W        W 5500   3.887   9.524  21.566 -0.0785  0.0380  0.0875
 4637W        W 5501   5.132  20.650   4.754 -0.0181  0.0502  0.1814
 4638W        W 5502  13.319  17.605  10.148 -0.0982 -0.1735 -0.0398
 4639W        W 5503   1.416  28.322   5.881  0.1218  0.1486 -0.2159
 4640W        W 5504  21.701   1.762  23.872 -0.3672  0.0425  0.3087
 4641W        W 5505  11.111   2.722  14.061 -0.0238  0.3195  0.2688
 4642W        W 5506   3.031   6.666   8.492 -0.0318 -0.0388 -0.2817
 4643W        W 5507   6.954  12.676  16.149 -0.1665 -0.0447 -0.0019
 4644W        W 5508  16.410  15.170  11.794 -0.2476 -0.0292  0.0846
 4645W        W 5509  14.393  20.809   2.382 -0.1929 -0.1646  0.0817
 4646W        W 5510  17.270  18.051  28.774  0.0212  0.2186 -0.1477
 4647W        W 5511   4.572   2.487  12.016 -0.0315  0.1993 -0.2223
 4648W        W 5512   0.301   4.860   2.321  0.0586  0.0236 -0.1807
 4649W        W 5513  10.264   7.578   5.259  0.3258  0.1983 -0.1870
 4650W        W 5514   6.885  10.529  27.202 -0.3326  0.2195  0.1891
 4651W        W 5515  28.248  23.573   2.572 -0.1960  0.2431  0.0262
 4652W        W 5516  27.274  16.249  16.751  0.0324 -0.0652  0.0606
 4653W        W 5517   9.717   6.869  11.976 -0.2662  0.2538 -0.0143
 4654W        W 5518   9.061   8.269  13.196 -0.2548  0.1603  0.1099
 4655W        W 5519   1.096   5.976   9.256  0.1289  0.1969 -0.1051
 4656W        W 5520  10.889  22.657  23.983  0.2447 -0.0414  0.2621
 4657W        W 5521  18.979  28.284   7.429  0.0191  0.1117  0.3697
 4658W        W 5522   5.795  13.182   3.173  0.0634 -0.1630 -0.0919
 4659W        W 5523  26.783  12.263  19.654 -0.0527 -0.0806 -0.0812
 4660W        W 5524   5.076  10.724   0.933 -0.0955  0.0757  0.2018
 4661W        W 5525  22.992  21.722  18.488  0.1287 -0.2054 -0.0919
 4662W        W 5526  20.983  12.646  16.343  0.0276  0.3161  0.0806
 4663W        W 5527  21.639  20.165  13.209 -0.1947 -0.2979 -0.0515
 4664W        W 5528   4.679  13.784  23.590  0.3429  0.1305 -0.2847
 4665W        W 5529  10.532  27.986   7.066  0.0533 -0.1265 -0.4135
 4666W        W 5530  21.712  18.532   3.980  0.0242  0.2864 -0.1603
 4667W        W 5531  13.746  10.250   4.576  0.3229 -0.1091 -0.0232
 4668W        W 5532  27.791  20.807  22.250  0.0376  0.0394 -0.3181
 4669W        W 5533   2.085  13.382   1.128 -0.0468  0.1833 -0.1794
 4670W        W 5534  14.578  19.802   4.592 -0.3224 -0.2489 -0.1414
 4671W        W 5535   3.462   1.655  12.168  0.1358 -0.1098 -0.0002
 4672W        W 5536  23.296   7.782  23.911  0.2754  0.0681 -0.0252
 4673W        W 5537  12.055  10.774  17.644  0.0104 -0.0314  0.2953
 4674W        W 5538   8.580  25.535  24.583  0.0564  0.1096 -0.0368
 4675W        W 5539   9.178  13.975  14.335 -0.1781 -0.0142  0.1100
 4676W        W 5540  27.840  17.574  11.080 -0.0026  0.1076 -0.2078
 4677W        W 5541  21.728   6.974   9.503  0.1208  0.0742 -0.2039
 4678W        W 5542  16.226  22.828   0.724  0.1089  0.1669 -0.1603
 4679W        W 5543   8.527  24.450  16.704  0.0053 -0.2152  0.1657
 4680W        W 5544   3.976  25.883  12.722  0.1812 -0.0468  0.1281
 4681W        W 5545  15.549   2.327   5.570  0.1881 -0.0444 -0.0614
 4682W        W 5546  23.281   3.328   8.071 -0.1124 -0.2151 -0.0622
 4683W        W 5547  13.751  24.494  19.273 -0.1549 -0.0188 -0.2671
 4684W        W 5548   5.734   3.631  27.267 -0.1308 -0.0626 -0.1034
 4685W        W 5549   1.207  28.721   9.847  0.0296 -0.3747 -0.0288
 4686W        W 5550  27.042  26.280  18.713  0.1991 -0.3548 -0.0088
 4687W        W 5551  13.268  14.718   3.838  0.4067  0.1633  0.0091
 4688W        W 5552  15.534  12.909  17.124 -0.0326 -0.0764  0.1789
 4689W        W 5553  12.508   5.782  23.941 -0.0666 -0.3806  0.0987
 4690W        W 5554   0.795  16.549  28.619 -0.2702  0.1873 -0.2063
 4691W        W 5555   0.327  17.522   3.336  0.2972 -0.0448  0.0882
 4692W        W 5556  13.815  19.494  26.292 -0.3790 -0.2425 -0.0730
 4693W        W 5557   7.966   9.539  14.483  0.2209 -0.1258 -0.0306
 4694W        W 5558  27.496   6.489  22.636  0.1626 -0.0393 -0.0971
 4695W        W 5559  23.400   4.811  15.719 -0.4760 -0.1938 -0.0833
 4696W        W 5560  18.913   0.290  24.588 -0.2360 -0.1064  0.0260
 4697W        W 5561   6.455  22.847  28.311 -0.0840 -0.1357 -0.1118
 4698W        W 5562  16.189   2.991  12.496 -0.0991  0.1948  0.1025
 4699W        W 5563  28.082   2.301  13.967  0.1816 -0.0467  0.2086
 4700W        W 5564  24.688  17.084   7.159  0.2117 -0.0579 -0.0998
 4701W        W 5565  22.089   2.373  28.031 -0.2026  0.0200 -0.1455
 4702W        W 5566  20.032  29.057  26.934 -0.0444 -0.1083  0.1118
 4703W        W 5567  14.523  15.765  13.244 -0.1637  0.1565 -0.1001
 4704W        W 5568  16.796   7.770   8.316  0.0603  0.1582 -0.0435
 4705W        W 5569   9.930  25.760   9.857 -0.1370  0.2887  0.2618
 4706W        W 5570   4.173  10.070  13.080  0.1973 -0.2633  0.1241
 4707W        W 5571   7.759  25.056   8.610  0.0404 -0.0437  0.0045
 4708W        W 5572  11.903  10.150  13.980  0.1894 -0.1470 -0.0209
 4709W        W 5573   1.695  13.113   6.869 -0.2460 -0.1153  0.1736
 4710W        W 5574   7.381   6.205  18.479  0.0094 -0.0543  0.0317
 4711W        W 5575   1.160  16.611  15.448  0.0722  0.2677 -0.1054
 4712W        W 5576   5.787  23.634   6.378 -0.2063  0.0968  0.1778
 4713W        W 5577   9.472  16.734   1.199  0.1644 -0.2938 -0.0622
 4714W        W 5578   9.974  16.705   2.742 -0.1652 -0.1461  0.1830
 4715W        W 5579  14.595  10.207  14.329  0.2484 -0.1802 -0.0186
 4716W        W 5580  28.817   5.905   7.135  0.1003 -0.1258  0.1322
 4717W        W 5581   9.778   3.063  19.890  0.1512 -0.0863 -0.1065
 4718W        W 5582   2.951  20.535  13.267  0.2226 -0.0369  0.3924
 4719W        W 5583  15.689  28.556  18.954 -0.1323  0.3388 -0.1128
 4720W        W 5584   5.320  23.522  16.694 -0.1697  0.0055  0.1344
 4721W        W 5585   8.742  22.323  18.955 -0.1070 -0.1527  0.2274
 4722W        W 5586  19.850  23.840  17.846  0.3249 -0.0180 -0.2051
 4723W        W 5587   8.391  28.152  13.166  0.0639 -0.0181 -0.0424
 4724W        W 5588  17.244  24.983  10.929  0.0093 -0.0780 -0.2643
 4725W        W 5589  27.177  27.016  10.207 -0.0795  0.0275 -0.1773
 4726W        W 5590  18.540  12.571   7.776 -0.1974  0.0317  0.2866
 4727W        W 5591  14.415  19.465  23.472 -0.1571 -0.0754 -0.0042
 4728W        W 5592   4.532  16.461  14.755 -0.1417  0.1384  0.1872
 4729W        W 5593  12.994  27.996   8.465 -0.0871  0.1560  0.0036
 4730W        W 5594   7.037   3.764  23.224 -0.0564  0.3294  0.2215
 4731W        W 5595  25.572  27.315  16.329 -0.1827  0.0732 -0.0281
 4732W        W 5596   1.295  13.450  25.455  0.0147 -0.0143  0.0034
 4733W        W 5597   2.244   5.031  26.004  0.0801 -0.3578  0.3227
 4734W        W 5598  26.759   9.078  10.356  0.2472 -0.0108 -0.0848
 4735W        W 5599  27.648   5.152  27.723  0.0153  0.2338  0.0049
 4736W        W 5600   3.242   1.634  27.422 -0.1942  0.0774 -0.0648
 4737W        W 5601   3.531  19.137   2.161  0.0787  0.0230 -0.0726
 4738W        W 5602  20.477  18.270   5.167  0.0436  0.0179  0.1895
 4739W        W 5603   6.866  29.089  27.872  0.3648 -0.0539  0.1135
 4740W        W 5604   0.617   6.092   6.616 -0.0791  0.2662 -0.0307
 4741W        W 5605  11.667  27.051  16.243 -0.2419  0.1559  0.2101
 4742W        W 5606   9.174  13.676   1.732 -0.2724 -0.0474 -0.0357
 4743W        W 5607   9.396   9.896   3.498  0.1748 -0.0998 -0.0027
 4744W        W 5608  12.793   1.973  20.048  0.0843  0.2844  0.0379
 4745W        W 5609   4.171   9.336  14.492  0.1099  0.1323 -0.0206
 4746W        W 5610  24.371  27.600   2.199  0.2789 -0.3002  0.2675
 4747W        W 5611  14.385   5.671  13.824 -0.1554 -0.1551  0.0784
 4748W        W 5612  10.541   1.546  15.943 -0.0232 -0.0318  0.0708
 4749W        W 5613   6.752   5.690  13.986 -0.5190  0.0539  0.2167
 4750W        W 5614  27.939  25.857   1.083  0.1580 -0.2257 -0.0211
 4751W        W 5615   7.139   3.877  14.878  0.1158 -0.1509  0.1096
 4752W        W 5616   2.538  12.978  14.449 -0.4197 -0.2357 -0.1046
 4753W        W 5617   7.629   8.128   4.087 -0.2201 -0.1778  0.0379
 4754W        W 5618   7.138   5.055   1.264 -0.3454 -0.1001 -0.2275
 4755W        W 5619  27.005   4.037   1.521  0.0194 -0.0729  0.1979
 4756W        W 5620  24.383  22.595  16.062 -0.0101  0.3255 -0.0659
 4757W        W 5621  15.099  21.794  19.376 -0.1284  0.0614  0.1376
 4758W        W 5622   6.371  27.815  19.158 -0.1803 -0.1603 -0.3682
 4759W        W 5623   6.633   1.306  24.709 -0.1259 -0.0889 -0.0914
 4760W        W 5624  15.663   9.529   0.319 -0.2204 -0.2267 -0.1707
 4761W        W 5625  15.866  24.214  25.472  0.3641  0.2643 -0.1042
 4762W        W 5626  20.006   7.130  21.180  0.1906 -0.2585 -0.3045
 4763W        W 5627   3.621   8.981  12.348 -0.0628 -0.0647 -0.1719
 4764W        W 5628  21.648   4.055  25.596 -0.0496  0.0197  0.1063
 4765W        W 5629  16.501   6.143   4.155  0.0105 -0.2194 -0.0602
 4766W        W 5630  10.179  28.773  26.173 -0.1197  0.5550 -0.0904
 4767W        W 5631  16.410   8.646  23.718 -0.1821  0.0020  0.0981
 4768W        W 5632   9.680   8.585  23.632  0.1805  0.3003  0.0569
 4769W        W 5633   0.063   8.524   7.595 -0.1157 -0.2631  0.0034
 4770W        W 5634  10.885   7.108   8.884 -0.0676 -0.2150  0.3948
 4771W        W 5635   2.499   1.836  13.309  0.0711 -0.1075  0.1759
 4772W        W 5636   9.670  24.377  29.116 -0.2967 -0.0802 -0.1067
 4773W        W 5637  20.792   2.695   0.528 -0.3802  0.0340  0.6286
 4774W        W 5638   3.241   6.644   5.690  0.1014 -0.0282  0.0414
 4775W        W 5639   3.763  28.218  20.263  0.0022  0.1145 -0.0897
 4776W        W 5640  15.584  11.167   3.370 -0.1718 -0.0903  0.3903
 4777W        W 5641  16.274  27.422   9.966  0.0573  0.2713 -0.2168
 4778W        W 5642  20.305  13.772  18.056  0.0630  0.1316  0.0996
 4779W        W 5643  19.331  19.786   9.716 -0.1852  0.0575 -0.1478
 4780W        W 5644  28.402   1.134  16.367  0.2436 -0.2389  0.1563
 4781W        W 5645  17.247  20.561  19.166 -0.1039  0.1083 -0.3338
 4782W        W 5646   1.753  12.468   4.372  0.1472 -0.1245  0.0973
 4783W        W 5647  28.392  15.946   2.296  0.1844  0.0028  0.1864
 4784W        W 5648  24.203   7.067   7.859 -0.0332 -0.0871 -0.0191
 4785W        W 5649  20.161  15.071   4.192 -0.1702  0.1903 -0.2912
 4786W        W 5650  27.563  12.962   7.981 -0.0793  0.0715 -0.0330
 4787W        W 5651  14.669  17.565   0.096  0.1942  0.1155 -0.0496
 4788W        W 5652  10.191   3.442  10.366 -0.2755  0.1818 -0.0845
 4789W        W 5653  12.339   2.704  28.159  0.2874  0.1170 -0.2049
 4790W        W 5654  20.217   1.928  23.116  0.1465 -0.1494  0.1903
 4791W        W 5655  23.375   7.186  12.161 -0.0942  0.2414 -0.1095
 4792W        W 5656  26.961   9.983  15.377 -0.0333  0.0390 -0.0871
 4793W        W 5657  16.861  18.600  22.381 -0.0558  0.2026 -0.1107
 4794W        W 5658  12.044  15.007  13.024 -0.2278 -0.1122  0.0214
 4795W        W 5659   3.835  16.785   6.816  0.0165 -0.0002  0.1364
 4796W        W 5660  12.172  28.181   5.537 -0.3353  0.3259 -0.0376
 4797W        W 5661  29.079  17.421   1.524 -0.1484 -0.3196 -0.0681
 4798W        W 5662  22.893  12.539   6.854  0.0398 -0.2028 -0.1065
 4799W        W 5663   3.951   0.500   8.359 -0.0299  0.0704  0.0221
 4800W        W 5664  25.748   6.850   5.928  0.1099 -0.4757 -0.1755
 4801W        W 5665   6.980   2.069  12.948 -0.0728 -0.2857  0.1337
 4802W        W 5666  14.397  15.842   0.293  0.0991 -0.0746  0.1842
 4803W        W 5667   4.296  10.855  11.881  0.2408  0.0286  0.0973
 4804W        W 5668  18.169  26.481   3.967  0.1826  0.3259  0.1649
 4805W        W 5669  14.230   5.705  15.271  0.5141  0.1464 -0.0789
 4806W        W 5670   8.148   7.466   8.012 -0.2702 -0.2263 -0.2674
 4807W        W 5671   1.630  17.405   4.530  0.1512 -0.1546 -0.0350
 4808W        W 5672  24.125   9.947  13.509  0.0720  0.0143 -0.4017
 4809W        W 5673  12.849  22.496  21.344 -0.0240 -0.0625  0.1226
 4810W        W 5674  23.193  20.020   7.369  0.0856 -0.4166 -0.1588
 4811W        W 5675  19.945   5.456  28.810 -0.0056 -0.0035 -0.0912
 4812W        W 5676   9.548   6.409  25.056 -0.2723 -0.1680 -0.0137
 4813W        W 5677  19.024   0.461  10.159 -0.0376  0.0899 -0.2387
 4814W        W 5678   6.773  11.404  28.906  0.0225 -0.0120 -0.0429
 4815W        W 5679   9.662  10.917   9.023  0.1846 -0.2237  0.2147
 4816W        W 5680  25.120  20.956   8.506  0.0061  0.0063 -0.2851
 4817W        W 5681   2.910   3.871  22.013 -0.1394 -0.2474 -0.2146
 4818W        W 5682   5.914  28.732  15.940  0.0316 -0.1068 -0.0965
 4819W        W 5683  26.129  15.763  17.236  0.2971  0.2086 -0.0943
 4820W        W 5684  17.131  18.633   8.756 -0.1879 -0.2243  0.0824
 4821W        W 5685  10.777  17.798   9.416 -0.0295  0.3177  0.1278
 4822W        W 5686  27.839  20.091  26.456  0.4382  0.0600  0.2172
 4823W        W 5687   1.519  28.883  27.941  0.1685  0.0937  0.2895
 4824W        W 5688  26.928   3.593  21.584  0.2908 -0.2850  0.1975
 4825W        W 5689   2.822  24.775  17.031 -0.1276 -0.3427 -0.0587
 4826W        W 5690  18.643  10.570   6.229 -0.0572  0.0573  0.0610
 4827W        W 5691  12.961   7.768   9.048 -0.1347  0.0170 -0.0921
 4828W        W 5692  16.337  27.434  21.758  0.1898 -0.1706 -0.2046
 4829W        W 5693   1.241  24.430  15.801  0.0357  0.2000 -0.1777
 4830W        W 5694  25.439   3.025  12.136 -0.0429 -0.0086  0.0192
 4831W        W 5695   8.937   5.975   4.981 -0.0371  0.0471  0.0487
 4832W        W 5696  29.084   6.851  12.889  0.0410  0.2448  0.0511
 4833W        W 5697  24.785  11.770  12.758  0.4027 -0.1613 -0.2982
 4834W        W 5698  19.443  13.851  27.496 -0.0012  0.3653 -0.1477
 4835W        W 5699  16.442  10.772  26.021 -0.3922  0.1354 -0.0307
 4836W        W 5700  23.580  26.432  16.217 -0.1431  0.0904 -0.2636
 4837W        W 5701  13.445   2.269   2.470  0.1644 -0.0902  0.3469
 4838W        W 5702  26.764   6.255  28.042  0.0566 -0.1333  0.3746
 4839W        W 5703  14.836  20.266  16.179  0.5323 -0.4392 -0.4043
 4840W        W 5704  18.677   9.014   1.375 -0.0106 -0.0480  0.1579
 4841W        W 5705  22.911  25.552   1.842  0.2065 -0.1891 -0.1382
 4842W        W 5706   4.892   7.754  11.868  0.2057  0.2494  0.0477
 4843W        W 5707  20.912   4.595  13.669  0.3622 -0.3070 -0.0214
 4844W        W 5708  28.824   4.837  19.061  0.3411  0.0258 -0.1243
 4845W        W 5709   1.258   3.806   8.055 -0.0003 -0.2641 -0.0368
 4846W        W 5710  25.830   6.284   0.457 -0.1977 -0.1452  0.1625
 4847W        W 5711   8.851  13.038  21.233  0.1671 -0.0237 -0.2237
 4848W        W 5712  18.170  10.353  14.898  0.0438  0.2643  0.2669
 4849W        W 5713  26.904  10.786  12.950 -0.0946 -0.2869 -0.0543
 4850W        W 5714  25.975  19.548  11.760  0.0006 -0.1773  0.3195
 4851W        W 5715   1.948   7.694  19.065  0.1035 -0.3401 -0.2208
 4852W        W 5716  21.079   0.256  12.654  0.0709 -0.0965  0.1794
 4853W        W 5717  13.278  19.552   5.893  0.0082 -0.2476  0.3191
 4854W        W 5718  27.202  10.213  18.681 -0.0464 -0.1167 -0.5905
 4855W        W 5719   2.764  16.400  16.731 -0.3488  0.0236  0.3974
 4856W        W 5720  13.818   8.835  25.423  0.0511  0.0293 -0.0588
 4857W        W 5721  18.837  11.103  10.827 -0.0596  0.3138 -0.1885
 4858W        W 5722  17.452   9.198  10.445  0.2927  0.1440  0.1588
 4859W        W 5723   4.389   8.461  11.998  0.0497  0.2339  0.0248
 4860W        W 5724   2.744  13.348  19.001  0.1264  0.1630 -0.2176
 4861W        W 5725  11.896  27.048  17.277 -0.1413  0.0092  0.1342
 4862W        W 5726   9.221  27.903  25.848 -0.0085  0.0699  0.3804
 4863W        W 5727   3.895  13.934  17.611 -0.0578  0.2734  0.1097
 4864W        W 5728   0.414  16.911  13.808  0.4111  0.0409  0.2010
 4865W        W 5729  21.053  15.204   8.095  0.2837  0.1116  0.3704
 4866W        W 5730   0.913  14.735  11.166 -0.2176 -0.0892  0.3237
 4867W        W 5731  21.403   9.113   5.633 -0.0086  0.1180 -0.0718
 4868W        W 5732  10.633  21.754   2.808 -0.2742  0.3101  0.0229
 4869W        W 5733   0.597   6.183   2.429 -0.2213 -0.0959  0.1784
 4870W        W 5734  27.664  13.252  16.786 -0.0923  0.1586  0.0619
 4871W        W 5735   0.424   3.196  24.608 -0.1820 -0.2117 -0.3076
 4872W        W 5736   7.003   6.721  17.137 -0.0257 -0.1444 -0.1832
 4873W        W 5737  28.329  25.896  18.223 -0.1043 -0.2068  0.0886
 4874W        W 5738   7.621  21.187   0.583  0.0917  0.1315  0.5251
 4875W        W 5739  14.381   0.011   3.895  0.2497  0.0870  0.2528
 4876W        W 5740  13.035  16.565   8.086 -0.1803 -0.2203  0.3136
 4877W        W 5741   3.588  19.555  18.750 -0.0369  0.3435 -0.0853
 4878W        W 5742   6.114  19.348  21.806  0.0480 -0.0538  0.0024
 4879W        W 5743  28.647  25.312  12.392  0.1676  0.1954 -0.3846
 4880W        W 5744  10.225   2.631  22.516 -0.0733 -0.0630  0.0208
 4881W        W 5745   3.557  26.980  26.006  0.0917 -0.0714  0.0764
 4882W        W 5746  10.776   6.766  22.893 -0.1276 -0.2327  0.1715
 4883W        W 5747  25.204   3.031  23.150 -0.2626  0.0118  0.2475
 4884W        W 5748  25.806  27.831  25.659 -0.0002 -0.2877 -0.1619
 4885W        W 5749  11.359   7.463   0.567  0.2474  0.3009  0.0552
 4886W        W 5750   2.676  24.023   1.227 -0.1921  0.0433  0.0653
 4887W        W 5751  26.919   9.502  13.956  0.1967  0.2387  0.1515
 4888W        W 5752   0.321  28.447   3.537  0.0058  0.1568 -0.1006
 4889W        W 5753   7.437  27.180  21.924  0.2534 -0.0225  0.1125
 4890W        W 5754   1.250  14.298  28.540  0.0507 -0.0409  0.1868
 4891W        W 5755  18.079   4.433  11.127 -0.2252  0.0340  0.1158
 4892W        W 5756   7.668  20.041   7.052 -0.1253 -0.5820  0.0108
 4893W        W 5757   2.431   6.857  21.453  0.0125 -0.3335  0.1140
 4894W        W 5758  15.832  15.667  28.383 -0.1235 -0.1600 -0.4842
 4895W        W 5759  24.708   0.481   9.770  0.0042  0.1800  0.0097
 4896W        W 5760   4.606  21.972  17.186 -0.0937 -0.0160  0.0677
 4897W        W 5761   5.209   4.400   4.574 -0.0074  0.4735 -0.0833
 4898W        W 5762  28.398  13.221  28.342  0.1043  0.2794 -0.0285
 4899W        W 5763   2.679  16.071   0.747  0.1399  0.1965  0.1977
 4900W        W 5764   9.813   8.021   8.599 -0.4712 -0.2881  0.0624
 4901W        W 5765  17.700  28.648  26.121  0.0922  0.0330 -0.6262
 4902W        W 5766  10.263  15.755  26.118 -0.0772 -0.0407 -0.1643
 4903W        W 5767  25.835  26.951   8.412  0.1509 -0.0662  0.1004
 4904W        W 5768   3.118   5.525   8.824  0.0869  0.1808  0.2010
 4905W        W 5769  25.504   0.645   2.602 -0.3600 -0.1008  0.0433
 4906W        W 5770  22.958  14.989  16.444 -0.1348 -0.0008  0.0668
 4907W        W 5771  27.629  16.654   0.152 -0.1375 -0.1068  0.0368
 4908W        W 5772  28.701  10.147   2.318 -0.0625  0.3491  0.1076
 4909W        W 5773   5.647  15.550   3.909  0.0231  0.0142  0.1042
 4910W        W 5774   4.005   2.817   3.663 -0.2370 -0.1605  0.0161
 4911W        W 5775   0.029   8.867  10.024  0.1463 -0.0317  0.1263
 4912W        W 5776  14.708   9.065  18.535  0.3530  0.0163  0.0110
 4913W        W 5777  19.619  24.849  28.011  0.1461 -0.2018 -0.0335
 4914W        W 5778  19.639  18.721  13.106  0.4067  0.7445  0.2475
 4915W        W 5779  29.039  24.131  10.630 -0.1865 -0.0782 -0.0105
 4916W        W 5780   2.524  26.811  12.289  0.2076  0.0171 -0.1370
 4917W        W 5781   1.838   7.493  22.130  0.0865  0.0375  0.0338
 4918W        W 5782   0.002  19.415   9.894 -0.1013  0.0480  0.1274
 4919W        W 5783   6.371  27.758  12.624  0.0655  0.0578 -0.1381
 4920W        W 5784  26.290   4.298  23.767 -0.1858 -0.2944 -0.2778
 4921W        W 5785  21.978  19.140   2.140 -0.1288 -0.1026 -0.0550
 4922W        W 5786   2.238  23.844   5.428  0.1107  0.1176  0.0517
 4923W        W 5787  10.578  25.504   3.507  0.0827 -0.0570 -0.3149
 4924W        W 5788   6.050   2.920  15.812  0.0073  0.0510  0.2011
 4925W        W 5789  24.491  10.294  28.895 -0.3034 -0.0976 -0.2006
 4926W        W 5790  11.423  21.448  10.650  0.0363 -0.0886 -0.1792
 4927W        W 5791  28.114   2.280   7.240 -0.0281 -0.1302  0.1880
 4928W        W 5792   4.182   2.299   0.741 -0.2095 -0.2173 -0.1670
 4929W        W 5793  19.956   8.164  16.910 -0.1051 -0.4555  0.2192
 4930W        W 5794  12.812  27.151   9.640  0.3136  0.0048  0.2817
 4931W        W 5795   1.811  11.139  16.484 -0.0418 -0.1293 -0.0707
 4932W        W 5796   5.615  16.775  14.457 -0.0403  0.4313 -0.1663
 4933W        W 5797  25.681   6.470  15.284  0.1549  0.1136  0.2490
 4934W        W 5798  25.523  28.775   5.685  0.0343  0.0419  0.0654
 4935W        W 5799   2.343   3.664   4.919  0.1128  0.1205  0.0887
 4936W        W 5800   6.816  26.646  22.112 -0.1423 -0.4382  0.1566
 4937W        W 5801   3.981  10.956   5.298 -0.0205  0.1486  0.1915
 4938W        W 5802   1.018   5.684  11.293 -0.0643  0.2302 -0.0169
 4939W        W 5803  17.342  25.061   4.723 -0.0806 -0.3169  0.0941
 4940W        W 5804  22.193  25.436   6.568  0.2101 -0.0789 -0.0540
 4941W        W 5805  18.013  13.825  24.087 -0.0989  0.0754  0.3437
 4942W        W 5806  14.329  27.183  15.036  0.0714 -0.1981 -0.1505
 4943W        W 5807  17.793   0.371   6.238  0.1119 -0.0569  0.0130
 4944W        W 5808   2.609  13.083  18.545 -0.1663  0.0573  0.2383
 4945W        W 5809   1.377   8.069  15.237 -0.0144 -0.0443  0.0614
 4946W        W 5810   8.171  14.110  12.385  0.0104  0.2630 -0.1689
 4947W        W 5811  22.332   5.876  10.815 -0.2233 -0.2497 -0.0612
 4948W        W 5812   2.185  13.022  10.612 -0.0393 -0.1150 -0.0098
 4949W        W 5813   2.651  28.322  16.641  0.3110  0.1415 -0.1165
 4950W        W 5814   7.209  12.656  27.268 -0.1433 -0.1455  0.1803
 4951W        W 5815   1.676  26.447   1.911 -0.0486  0.2771  0.0162
 4952W        W 5816  16.358  26.051  19.785  0.0677  0.1074  0.2615
 4953W        W 5817   0.553  24.106  14.446 -0.0634 -0.2551 -0.1375
 4954W        W 5818  16.569  15.872   1.697  0.1199 -0.1401 -0.1925
 4955W        W 5819  29.071  12.038  15.822  0.1516  0.0739  0.1594
 4956W        W 5820  21.859   9.772   6.153 -0.0606 -0.0140  0.0590
 4957W        W 5821  17.149   9.101   0.232 -0.0130  0.1132 -0.0288
 4958W        W 5822  21.222  22.426  20.374 -0.0427  0.1676 -0.0718
 4959W        W 5823  27.831  26.021  22.936 -0.1613  0.2770 -0.0067
 4960W        W 5824  21.446  20.274   3.613 -0.0926 -0.6908  0.0363
 4961W        W 5825  21.022  20.845  17.581 -0.1273 -0.0154  0.0559
 4962W        W 5826   1.300  24.660   2.579 -0.0575  0.0091  0.3127
 4963W        W 5827   6.752  26.906  18.946 -0.2292 -0.0019  0.0132
 4964W        W 5828   4.246   9.108   6.119  0.2729 -0.2015  0.2141
 4965W        W 5829  23.923  24.617   3.354  0.0995  0.1994  0.0256
 4966W        W 5830   1.370  24.148  17.538  0.0704 -0.3672 -0.1889
 4967W        W 5831   4.106   9.689  16.666  0.0005  0.4599  0.0483
 4968W        W 5832  12.207  10.088  20.400  0.0939 -0.0815  0.0036
 4969W        W 5833  14.005  22.562  17.604  0.1423  0.3485  0.1861
 4970W        W 5834   6.996  12.443  24.345  0.0788  0.1055  0.1117
 4971W        W 5835  24.608  28.503  17.032  0.1290 -0.2006 -0.4111
 4972W        W 5836   2.342  14.197   7.110 -0.0594 -0.3332  0.1897
 4973W        W 5837   6.251   9.161  23.258  0.2005 -0.0277 -0.2699
 4974W        W 5838   7.041   8.898   9.910 -0.1901 -0.0830  0.0150
 4975W        W 5839   4.070   7.633  23.613 -0.0131  0.1580  0.0764
 4976W        W 5840  28.984  18.116  29.082 -0.1250  0.1418 -0.4393
 4977W        W 5841  11.109  25.857  12.615  0.2681 -0.3609  0.2440
 4978W        W 5842  12.745  15.911  20.609  0.1495  0.1509 -0.1685
 4979W        W 5843  16.724   8.805   9.035  0.1963 -0.0442 -0.0010
 4980W        W 5844  18.017  20.763  20.424 -0.1082 -0.0891  0.0194
 4981W        W 5845  18.895   3.581  26.170 -0.1545  0.0052 -0.2546
 4982W        W 5846  21.872   0.047  22.847 -0.2615 -0.1140 -0.1066
 4983W        W 5847   6.388  23.484   5.946 -0.3440 -0.0132  0.2485
 4984W        W 5848   7.235   3.650  24.487  0.0157 -0.1686  0.1155
 4985W        W 5849   4.765  27.413  10.317  0.2143 -0.0443  0.0097
 4986W        W 5850  14.753  13.087  12.899  0.0071  0.0201 -0.3932
 4987W        W 5851   4.070   1.048   1.452 -0.2028  0.0100  0.2177
 4988W        W 5852  23.429   7.369  15.769  0.3510  0.1167  0.1107
 4989W        W 5853   6.706   7.940   5.242 -0.2711  0.1181  0.3112
 4990W        W 5854  27.791  21.502  24.301 -0.0814  0.0082 -0.2410
 4991W        W 5855   2.720  16.838  10.450 -0.0110 -0.1181  0.0322
 4992W        W 5856  25.992   9.197   2.344 -0.1054 -0.0924 -0.4562
 4993W        W 5857  28.422  21.690   7.304 -0.1452  0.1869 -0.1678
 4994W        W 5858  20.536  25.260  15.871 -0.2795 -0.1954 -0.3421
 4995W        W 5859   0.620   9.358   1.555 -0.2337 -0.0620  0.5013
 4996W        W 5860  27.797  22.023   3.398  0.0164 -0.2717 -0.0978
 4997W        W 5861  23.990   5.356  11.221 -0.1924 -0.1155 -0.0711
 4998W        W 5862   1.680   9.511   7.715  0.1520 -0.2098 -0.0031
 4999W        W 5863   8.128   8.306   4.136 -0.0395  0.0011  0.2727
 5000W        W 5864  18.977  11.656  24.495 -0.1357 -0.0479  0.0181
 5001W        W 5865   4.269  19.612  19.473 -0.0403 -0.1317 -0.2181
 5002W        W 5866   7.931  13.962  13.824 -0.0400 -0.0128 -0.0698
 5003W        W 5867   0.511  26.710  15.075 -0.1035 -0.0866 -0.1612
 5004W        W 5868  24.423   3.226  11.373  0.4448  0.1954  0.3539
 5005W        W 5869  11.502  13.455  21.069  0.0132  0.1362  0.1053
 5006W        W 5870  23.693  11.024  23.929 -0.0309 -0.2943 -0.2034
 5007W        W 5871   6.023   8.447  25.175  0.0739  0.2477  0.1890
 5008W        W 5872   9.856  12.523   7.437  0.0200 -0.1067 -0.2158
 5009W        W 5873  25.947  27.417   6.785  0.3553 -0.1181 -0.0423
 5010W        W 5874   3.941   1.054   9.848  0.2186 -0.5362  0.1581
 5011W        W 5875   7.861   6.975  22.301 -0.0678  0.0457  0.1159
 5012W        W 5876  16.269   3.437  18.769 -0.0672 -0.0060 -0.0333
 5013W        W 5877   5.151  27.048   6.901  0.0145  0.0696 -0.1507
 5014W        W 5878   1.636  28.423   2.197 -0.0766 -0.0047  0.0504
 5015W        W 5879  26.854  17.841  21.293 -0.1683 -0.0691  0.2629
 5016W        W 5880  29.135  28.968  27.362  0.0221  0.0048 -0.2711
 5017W        W 5881  25.589   9.850  21.483 -0.0530 -0.2354  0.1035
 5018W        W 5882  12.009   1.091   3.707  0.0695 -0.1224 -0.1855
 5019W        W 5883  24.267  24.925  23.789 -0.0111 -0.0084 -0.3010
 5020W        W 5884   9.929  16.201  18.336 -0.0664 -0.1054  0.1417
 5021W        W 5885   2.910  10.653  16.299  0.0289 -0.4521 -0.0333
 5022W        W 5886   1.591   5.584  29.138  0.1491  0.1026 -0.0400
 5023W        W 5887   1.993  21.306   8.220  0.1329  0.0766 -0.2009
 5024W        W 5888   5.704  23.272  26.877  0.1667  0.2551 -0.1969
 5025W        W 5889  17.169   3.664  14.314 -0.0135  0.0612 -0.0813
 5026W        W 5890   5.263   7.704  27.574 -0.1947 -0.0556  0.0781
 5027W        W 5891  28.101   1.853  15.660 -0.3847 -0.0811  0.0839
 5028W        W 5892  27.392  26.310   9.660  0.0404 -0.0989  0.2900
 5029W        W 5893  18.197  16.939  11.183 -0.1262  0.0114  0.1290
 5030W        W 5894  27.447  15.570  12.517 -0.3204 -0.2340  0.1077
 5031W        W 5895  26.933  28.967  25.429 -0.0711  0.2160  0.1921
 5032W        W 5896  12.248   2.429  26.594  0.3051 -0.3044 -0.0344
 5033W        W 5897   1.601   4.429   6.715  0.0499  0.1380 -0.0683
 5034W        W 5898   1.358  26.891  21.942 -0.2009 -0.1874 -0.4220
 5035W        W 5899  11.667  14.213  12.697  0.3919  0.0760 -0.4988
 5036W        W 5900  23.232  25.794  16.479 -0.2917  0.3800 -0.0187
 5037W        W 5901   0.291   4.225   8.022 -0.0896 -0.2823 -0.0614
 5038W        W 5902   0.300   2.565  23.886 -0.1259 -0.1363 -0.0910
 5039W        W 5903  13.946   9.158  27.049  0.1788  0.0940 -0.0261
 5040W        W 5904   5.126  24.723   5.852  0.3222 -0.1406  0.3357
 5041W        W 5905   1.689  19.805  18.738 -0.0190 -0.0067 -0.1758
 5042W        W 5906  26.312   6.590  15.627 -0.1229  0.0600 -0.1462
 5043W        W 5907  20.294  16.143   7.183 -0.0547  0.3046  0.0282
 5044W        W 5908  26.482  15.372  18.135  0.1419  0.4425 -0.1761
 5045W        W 5909  13.332   7.849  20.533  0.3488 -0.1335 -0.1889
 5046W        W 5910   8.617   6.579  22.556 -0.0204  0.1243 -0.1945
 5047W        W 5911   9.226  27.919   2.417  0.0374 -0.0704 -0.0455
 5048W        W 5912  11.653   0.826  23.721  0.2384 -0.0352  0.2670
 5049W        W 5913   3.185  18.227  14.049 -0.0018 -0.0692  0.0341
 5050W        W 5914   0.480   9.021  16.631  0.0717 -0.2041  0.1832
 5051W        W 5915  28.487  29.063  19.823 -0.0518  0.2489  0.0627
 5052W        W 5916   2.841   0.288  22.574 -0.0472 -0.1295 -0.2925
 5053W        W 5917  25.407  25.438   5.620 -0.0868 -0.0635 -0.4529
 5054W        W 5918  15.311   7.533   2.648 -0.2132 -0.2281  0.2018
 5055W        W 5919  29.031   4.297  17.275  0.0291  0.2297 -0.1509
 5056W        W 5920  15.734   7.108   6.635 -0.1662  0.0966 -0.1137
 5057W        W 5921  15.655   4.000  16.090 -0.2175 -0.0430  0.0914
 5058W        W 5922   6.658   0.507   9.982  0.0205 -0.2810  0.1621
 5059W        W 5923  14.269  14.166   6.225 -0.1839 -0.1936 -0.1411
 5060W        W 5924  10.985  21.787  24.004  0.1184 -0.0358  0.2237
 5061W        W 5925   0.430  22.872  24.096 -0.1999 -0.1013  0.0906
 5062W        W 5926  27.457   9.571   0.464 -0.1836  0.1714 -0.0309
 5063W        W 5927  23.666  27.918   9.494  0.1315  0.0096 -0.0755
 5064W        W 5928  12.897  27.711  21.425 -0.0829 -0.4365  0.0789
 5065W        W 5929  13.084  15.315   9.453  0.0915  0.0222  0.1720
 5066W        W 5930  10.683  23.602  24.572  0.0004 -0.3250 -0.1838
 5067W        W 5931   7.616   4.544  14.888  0.1264  0.1266  0.1913
 5068W        W 5932   1.859  10.578   4.007 -0.4396  0.1258  0.2916
 5069W        W 5933   5.559  21.753  13.372 -0.0669  0.0508 -0.1125
 5070W        W 5934  11.645  21.571  20.999  0.0840  0.2417  0.0841
 5071W        W 5935   7.074   3.411  14.697  0.1031 -0.4280 -0.1936
 5072W        W 5936  20.799  27.607  15.934 -0.1994  0.1843 -0.0857
 5073W        W 5937   5.423   4.738   1.133 -0.0763 -0.0462  0.0774
 5074W        W 5938  22.798   3.644  19.265  0.1530 -0.0541 -0.2663
 5075W        W 5939  25.857   1.447  21.853 -0.0793 -0.3024  0.2528
 5076W        W 5940  18.787   7.831  14.797 -0.1914  0.2737 -0.1999
 5077W        W 5941  11.476  28.932  14.868 -0.0790 -0.0555  0.4172
 5078W        W 5942   0.581  17.830   5.501  0.2975 -0.0304  0.0381
 5079W        W 5943   2.027   5.155  13.704  0.2181 -0.2347 -0.1111
 5080W        W 5944   1.593  23.847  23.044  0.1704  0.2488 -0.3074
 5081W        W 5945  24.159  19.288  13.542 -0.3426  0.3303 -0.2059
 5082W        W 5946   3.423  27.761   9.840  0.1463 -0.0407 -0.0918
 5083W        W 5947  15.967  10.294  15.387  0.2347  0.6583  0.0619
 5084W        W 5948  19.864   5.618  22.748  0.0808 -0.2265 -0.0455
 5085W        W 5949   3.376  16.825  24.379  0.2476 -0.1032  0.0560
 5086W        W 5950  26.752   1.667  14.118  0.0915  0.0073 -0.2720
 5087W        W 5951  27.315  28.609  22.159 -0.2147 -0.0570 -0.2731
 5088W        W 5952   9.895  10.581   3.413  0.1475  0.2619 -0.2864
 5089W        W 5953  21.822  23.032  16.953 -0.1120 -0.0230 -0.1170
 5090W        W 5954  17.280  17.555  16.460  0.0244  0.1678  0.2359
 5091W        W 5955   8.068   7.389  23.702 -0.0168  0.2202  0.1223
 5092W        W 5956  11.887  11.000   9.970  0.0696 -0.1512  0.3678
 5093W        W 5957  25.898   1.492  18.095  0.2347 -0.2588 -0.2137
 5094W        W 5958   9.892  10.146   6.983  0.4114  0.1180 -0.2222
 5095W        W 5959  22.395  23.243  15.907 -0.2175 -0.0230  0.0269
 5096W        W 5960   6.148   8.340  19.484  0.0513 -0.1978  0.1845
 5097W        W 5961  11.962   1.818  11.866 -0.0552 -0.2879  0.1039
 5098W        W 5962  18.655   7.768   6.532 -0.0419  0.0605  0.0605
 5099W        W 5963  22.652  16.583   2.082  0.1054 -0.1894  0.3473
 5100W        W 5964  15.119   8.813  24.818 -0.2522  0.1226 -0.2570
 5101W        W 5965   0.569   8.997  13.800 -0.0166  0.0862  0.2993
 5102W        W 5966  28.970  11.393  26.841  0.3873  0.0944 -0.0738
 5103W        W 5967  13.728   5.898  11.604  0.2701  0.0330  0.0891
 5104W        W 5968   0.404  26.544   4.813 -0.0460  0.3689  0.0002
 5105W        W 5969   8.155   9.946   7.949 -0.1047 -0.2050  0.0137
 5106W        W 5970   5.984  28.756  19.276 -0.0483  0.0205 -0.0549
 5107W        W 5971  28.459  14.365  11.031 -0.0760  0.2977 -0.2501
 5108W        W 5972  28.049   8.374  16.355  0.1024 -0.2476 -0.0117
 5109W        W 5973   7.384  10.831  17.611  0.0366  0.2417 -0.2293
 5110W        W 5974  17.689  12.959  23.939  0.2118  0.4406 -0.1619
 5111W        W 5975   7.873  14.038   9.103 -0.2321 -0.1060  0.0108
 5112W        W 5976   6.078  27.466  20.653  0.1483 -0.2135  0.0725
 5113W        W 5977  20.314  14.077   7.895 -0.0882 -0.3798  0.0491
 5114W        W 5978  28.646   1.278  15.207  0.2260 -0.2817 -0.2878
 5115W        W 5979  26.081   8.084  13.941 -0.1714 -0.2522 -0.0000
 5116W        W 5980  24.847  10.400   2.688  0.0287  0.0027 -0.4718
 5117W        W 5981   0.138  25.612  12.293  0.3370 -0.1214  0.0039
 5118W        W 5982  12.158   5.937  19.932 -0.1801  0.0551  0.2204
 5119W        W 5983  14.005  25.085  16.333 -0.0247 -0.3423  0.3066
 5120W        W 5984  20.149   5.912  17.252 -0.2988  0.2898  0.1102
 5121W        W 5985   2.598  17.764   0.562 -0.3998  0.0593  0.3317
 5122W        W 5986  23.888  23.519  24.020 -0.1319 -0.1425 -0.2498
 5123W        W 5987  11.291   4.393  20.116 -0.0815 -0.0963  0.2804
 5124W        W 5988  10.343  11.950   8.802 -0.0950  0.3125 -0.0751
 5125W        W 5989  24.136  20.561  28.047  0.1000 -0.3650  0.3262
 5126W        W 5990   1.246   1.684  20.461  0.1126  0.1298 -0.1657
 5127W        W 5991  25.150  27.254  13.025 -0.1663 -0.1564  0.2835
 5128W        W 5992  12.140  22.712  11.099  0.0858  0.0718  0.0734
 5129W        W 5993  28.994   2.793  16.173  0.0657 -0.2464  0.0634
 5130W        W 5994  23.700  27.554  22.877 -0.0217 -0.3199  0.0701
 5131W        W 5995   2.049  11.841  13.737  0.0238  0.1502 -0.2943
 5132W        W 5996   7.931   2.851   2.230 -0.0541 -0.2157 -0.0219
 5133W        W 5997   8.979  14.084  10.464 -0.0524  0.1317 -0.1586
 5134W        W 5998   0.868  10.945  22.593 -0.1101  0.2852 -0.1728
 5135W        W 5999   8.177  24.572  25.705 -0.0685 -0.1072  0.0904
 5136W        W 6000   1.388   6.214  14.514 -0.2014  0.0543 -0.0496
 5137W        W 6001  16.626   2.273  10.867  0.1191 -0.2061 -0.1612
 5138W        W 6002   7.326   5.059  20.189 -0.0142 -0.0121  0.0639
 5139W        W 6003   3.445   3.332   0.742 -0.1397 -0.1605 -0.0412
 5140W        W 6004  10.812   8.570  18.454  0.1514  0.0727 -0.0818
 5141W        W 6005   3.427   9.269  25.835  0.0372 -0.2547  0.0439
 5142W        W 6006  23.605  18.375  15.345  0.1970 -0.0480 -0.2739
 5143W        W 6007  27.091   8.722  28.696 -0.3187 -0.2130  0.2072
 5144W        W 6008  12.079  16.350  14.269 -0.1550  0.2331 -0.0239
 5145W        W 6009  13.245  21.868  12.013 -0.2408 -0.0512 -0.0942
 5146W        W 6010  25.870  26.228  20.941 -0.1237 -0.0309  0.0137
 5147W        W 6011   2.001   6.281   0.989  0.0383  0.3426 -0.1278
 5148W        W 6012   8.839  19.717   3.892 -0.2642  0.0437 -0.0174
 5149W        W 6013   7.713  28.758  28.769 -0.1840 -0.0577 -0.1127
 5150W        W 6014   1.597  23.786   7.745 -0.0711 -0.2577  0.0801
 5151W        W 6015   3.218   4.525  15.154  0.1884 -0.1711 -0.0877
 5152W        W 6016   6.444  10.358  14.181 -0.1836 -0.2409  0.1442
 5153W        W 6017   3.180  27.890  12.584  0.1204  0.2501 -0.1363
 5154W        W 6018  21.427   8.871  15.170 -0.0693 -0.1499  0.0975
 5155W        W 6019   3.315  26.372  12.360  0.1576  0.3843  0.0073
 5156W        W 6020  20.327  17.721  26.450 -0.0068 -0.0912  0.0573
 5157W        W 6021  13.823  23.431  12.556  0.0976 -0.0965 -0.0491
 5158W        W 6022  26.626   8.790   9.946  0.3755  0.0931 -0.2779
 5159W        W 6023  27.960  13.574  17.136 -0.0042  0.1453  0.2732
 5160W        W 6024   3.641  28.954  15.921  0.0261  0.0844 -0.4812
 5161W        W 6025  19.893  28.305  19.516 -0.3776  0.4185  0.0350
 5162W        W 6026   4.040  11.667   4.963 -0.1235  0.0370  0.0177
 5163W        W 6027  23.414  22.050  21.707  0.1272  0.0312  0.0970
 5164W        W 6028  20.410  16.362  19.029  0.1093  0.0136  0.1168
 5165W        W 6029  27.496  22.681   4.656  0.1666 -0.2062 -0.2713
 5166W        W 6030   6.577   9.112  17.522 -0.1822  0.0452  0.1185
 5167W        W 6031  17.667  13.049   8.462 -0.0412 -0.1098 -0.1321
 5168W        W 6032  12.052  22.064   4.159 -0.1211 -0.0158 -0.1856
 5169W        W 6033  16.413   6.215  12.371 -0.0844 -0.2352 -0.1010
 5170W        W 6034  12.644   3.035  15.902 -0.2192 -0.1976 -0.3319
 5171W        W 6035  19.946   4.483  13.476 -0.2934  0.0339  0.1820
 5172W        W 6036  15.139  24.652  28.673 -0.1024 -0.0068 -0.0505
 5173W        W 6037   0.314   2.299   2.266  0.1726  0.0398  0.0993
 5174W        W 6038   8.178  25.918  20.759  0.1645 -0.0433  0.0032
 5175W        W 6039  23.468  13.189   2.103 -0.1538  0.0325 -0.3864
 5176W        W 6040  28.111  12.280  19.700 -0.0540  0.0507 -0.2000
 5177W        W 6041  14.495   8.442   6.736  0.0906  0.0022 -0.2069
 5178W        W 6042  24.542  21.421  22.360  0.0428 -0.0184 -0.0025
 5179W        W 6043  15.399  26.469  13.993  0.1288 -0.2585 -0.0603
 5180W        W 6044   0.716   2.333  18.074  0.0791 -0.1864  0.1905
 5181W        W 6045   9.637   3.492  25.182  0.1749  0.0189 -0.1110
 5182W        W 6046  28.984  11.615  27.994  0.2160  0.2853  0.1542
 5183W        W 6047   9.373  27.346  16.303  0.2215  0.0792 -0.2239
 5184W        W 6048  20.034  16.457  21.706 -0.1854  0.0423 -0.1332
 5185W        W 6049  11.825  11.794   8.787 -0.0054  0.1416 -0.1468
 5186W        W 6050  19.491   8.867  15.380 -0.3316  0.0103 -0.1037
 5187W        W 6051  10.272   8.583   7.900  0.1214 -0.0001  0.2389
 5188W        W 6052  16.956   6.456  27.677  0.3252  0.0486 -0.2170
 5189W        W 6053  15.310  18.267  15.379  0.1087 -0.3080  0.4410
 5190W        W 6054  12.508  22.854  13.983  0.1932 -0.2202 -0.1300
 5191W        W 6055   5.304  16.398  16.668  0.0875  0.1236  0.2085
 5192W        W 6056  20.716  21.248  23.122  0.4536  0.1610  0.0021
 5193W        W 6057   0.328   0.006   2.360  0.1436  0.0444 -0.1871
 5194W        W 6058   3.529  25.547  10.033 -0.1865 -0.2789 -0.0685
 5195W        W 6059  23.423  27.612   8.836  0.1989 -0.1610 -0.1250
 5196W        W 6060  17.459  25.910   8.149  0.1078 -0.0189  0.2788
 5197W        W 6061  29.074  22.263  14.747  0.2965  0.0842  0.1014
 5198W        W 6062  14.212  13.030  19.536  0.1511 -0.0118 -0.0816
 5199W        W 6063  24.107   3.701  11.523  0.3326  0.0725  0.1035
 5200W        W 6064   1.304   0.280  28.555 -0.0908  0.1501  0.1146
 5201W        W 6065   0.969  19.565  27.524  0.0578  0.1252 -0.3490
 5202W        W 6066   7.469   6.720  25.594  0.0317  0.0868 -0.2282
 5203W        W 6067  22.620   5.331  10.093 -0.5225 -0.0534  0.1384
 5204W        W 6068  12.332   8.896  15.215 -0.0608  0.0060  0.0813
 5205W        W 6069  15.712  23.119  21.888  0.1443 -0.2091 -0.0090
 5206W        W 6070  16.949  16.491  20.298  0.2237  0.0997  0.1635
 5207W        W 6071  16.301  22.781  10.435 -0.0384  0.3671 -0.0678
 5208W        W 6072  28.625   5.246   6.604  0.0215  0.0648  0.0977
 5209W        W 6073   6.049  19.568  27.135 -0.1928 -0.2104  0.0088
 5210W        W 6074  19.532   8.106  10.390 -0.1734 -0.0465 -0.1760
 5211W        W 6075   0.376  25.347  16.213  0.1655  0.0646 -0.0208
 5212W        W 6076   8.795  28.223   3.943  0.1393  0.0234  0.1667
 5213W        W 6077  28.243  13.311  20.890  0.3100  0.3806  0.1933
 5214W        W 6078  11.097   8.827  17.087 -0.1262  0.1522  0.1321
 5215W        W 6079  19.738  15.971  28.606  0.0369  0.2932 -0.1672
 5216W        W 6080   4.000  23.666  14.660 -0.2899  0.2169  0.1151
 5217W        W 6081   2.941   9.004  10.097 -0.1813 -0.2994  0.3272
 5218W        W 6082  10.516   1.912  11.494 -0.2628  0.1109  0.2013
 5219W        W 6083  17.775  23.364  21.968  0.0130  0.0971 -0.4157
 5220W        W 6084   4.846   9.005   8.754 -0.0108 -0.2215 -0.1125
 5221W        W 6085  20.470   7.132  16.737 -0.1238 -0.1318  0.1826
 5222W        W 6086   5.943  10.646  22.322 -0.0973 -0.5547 -0.1618
 5223W        W 6087  15.592   3.225  14.517 -0.0096 -0.0779 -0.1381
 5224W        W 6088  21.222  29.074  10.921  0.0438 -0.0897 -0.2988
 5225W        W 6089  15.034   4.428  16.819 -0.2058 -0.0256 -0.1607
 5226W        W 6090  27.808  18.622  22.653  0.1827 -0.1421  0.0504
 5227W        W 6091  15.754  14.401  27.570  0.0764 -0.2791 -0.2248
 5228W        W 6092   4.509   6.496   2.494  0.0086 -0.2595 -0.0564
 5229W        W 6093  13.523  12.418  16.027  0.0984  0.1674 -0.1831
 5230W        W 6094   9.346  25.137  10.780 -0.1793 -0.2730 -0.1274
 5231W        W 6095  23.938   4.736  26.852 -0.2374 -0.0400  0.2416
 5232W        W 6096   1.443  17.641  18.423 -0.3281  0.0602 -0.0862
 5233W        W 6097  13.286  19.162   5.356 -0.6587  0.0433  0.0528
 5234W        W 6098  27.857  13.573  19.499 -0.0759 -0.3081  0.1110
 5235W        W 6099  25.957  10.321  19.024  0.0949 -0.2706  0.0350
 5236W        W 6100  13.240   0.154  19.437  0.0438  0.0524  0.2780
 5237W        W 6101  26.524  21.085  17.194  0.0140 -0.2949 -0.0345
 5238W        W 6102   9.575   7.209  28.438 -0.1234 -0.1648  0.0613
 5239W        W 6103  21.760  13.590  27.263  0.0059  0.2051  0.2334
 5240W        W 6104  21.232  17.979  17.340 -0.2275 -0.1386 -0.0554
 5241W        W 6105   1.500  16.507  12.022 -0.0801 -0.1334 -0.0272
 5242W        W 6106  27.290  11.457  15.789  0.5273  0.2201 -0.0280
 5243W        W 6107  10.850  21.610  29.050 -0.1616  0.0911 -0.1818
 5244W        W 6108   6.240  16.230  26.686  0.1202  0.0469 -0.2758
 5245W        W 6109  28.579  26.422  19.957  0.1090  0.4679  0.0873
 5246W        W 6110  19.016   3.580   0.436  0.0052  0.4101  0.0264
 5247W        W 6111  25.750  11.316  19.293  0.1574 -0.0946  0.1288
 5248W        W 6112   9.328   7.981  20.924 -0.1166  0.1473  0.0696
 5249W        W 6113  16.316  24.493  24.589 -0.0722 -0.0544  0.0131
 5250W        W 6114   7.475  13.126  24.219 -0.2212 -0.0425  0.4820
 5251W        W 6115   1.106  13.388  13.627  0.2195 -0.0503 -0.0261
 5252W        W 6116  19.899   0.197  13.467  0.1322  0.2807  0.0312
 5253W        W 6117   4.759   4.459  15.117  0.0719  0.3531  0.2601
 5254W        W 6118  27.949  26.650  16.129 -0.0189  0.1475  0.1542
 5255W        W 6119  27.356   1.047  21.728  0.0295  0.1411 -0.0226
 5256W        W 6120   1.876  28.085   4.567  0.3133 -0.0939 -0.1779
 5257W        W 6121  16.435  24.791  16.224  0.0217 -0.0553 -0.1069
 5258W        W 6122  28.872  12.091   0.108  0.2080  0.0276 -0.3404
 5259W        W 6123  11.934  11.002   8.490  0.0392 -0.0168  0.0446
 5260W        W 6124  12.580  17.624  12.177 -0.2197 -0.0817  0.1839
 5261W        W 6125   2.327   7.700   7.017  0.0717  0.2046 -0.3508
 5262W        W 6126  17.213  11.318  22.131 -0.2536  0.0884  0.1340
 5263W        W 6127  28.726  17.762  13.906 -0.2019 -0.4587  0.1657
 5264W        W 6128  24.828  13.844  23.408  0.5713 -0.1236  0.0736
 5265W        W 6129  17.653   4.040  16.146  0.1216 -0.1151  0.0451
 5266W        W 6130  12.106   6.936  20.443 -0.0129 -0.2781  0.1396
 5267W        W 6131  11.257  28.905   9.768  0.2712  0.1345  0.0085
 5268W        W 6132   8.144  18.192  20.262  0.3545 -0.0464 -0.1404
 5269W        W 6133  19.780  25.783   6.253  0.1105 -0.2284  0.0105
 5270W        W 6134  25.746  23.973  13.706  0.5944  0.0407 -0.2592
 5271W        W 6135  19.599   0.820  17.607  0.2144  0.0483  0.1911
 5272W        W 6136  18.839   4.307   8.518 -0.0713 -0.2548  0.1558
 5273W        W 6137  25.331   1.508  28.464  0.2314  0.1973  0.1212
 5274W        W 6138   8.856   4.703  10.583  0.1157  0.1430 -0.0476
 5275W        W 6139   8.012  14.361   1.326  0.0192  0.1498  0.1974
 5276W        W 6140   4.352  14.420  27.971 -0.0389  0.4275 -0.1818
 5277W        W 6141  23.784  26.250  17.231  0.0363 -0.1376  0.0963
 5278W        W 6142   9.292   2.562   4.564 -0.0474 -0.0031 -0.0233
 5279W        W 6143   3.159  12.801  10.354 -0.0287  0.3125  0.0586
 5280W        W 6144   6.097  16.770  14.306  0.1676  0.0314 -0.0434
 5281W        W 6145   1.603  10.182  15.109  0.2199 -0.1774  0.1713
 5282W        W 6146   4.712  19.235  10.901  0.1206 -0.1192 -0.0442
 5283W        W 6147   5.299  22.994  23.537 -0.0014  0.1285 -0.0601
 5284W        W 6148   5.606  17.281   3.830 -0.0000 -0.1241  0.0400
 5285W        W 6149   7.926   2.375  15.816  0.0952 -0.0884  0.0236
 5286W        W 6150  10.132   1.300   9.072  0.0039  0.2882 -0.1419
 5287W        W 6151  27.494   9.111   0.226  0.1434 -0.3638  0.0462
 5288W        W 6152   1.661  22.841  26.493  0.1902  0.0916  0.1920
 5289W        W 6153  23.944  22.138  21.640  0.2426  0.3139 -0.1100
 5290W        W 6154   0.524   4.133   0.397  0.0148 -0.1021 -0.1788
 5291W        W 6155  15.571   0.412   2.571 -0.1815 -0.1005  0.2966
 5292W        W 6156   4.196  28.265  19.663  0.1869 -0.1228  0.1560
 5293W        W 6157   0.083  27.097  16.444 -0.0047 -0.2550 -0.1102
 5294W        W 6158  28.906   7.565  23.218  0.1460  0.0289 -0.2354
 5295W        W 6159  15.126   1.989   5.523  0.4592 -0.0765 -0.1113
 5296W        W 6160   7.666   2.872   7.285  0.1375 -0.1275 -0.1234
 5297W        W 6161   1.185   6.106  13.329  0.0485 -0.0019  0.2143
 5298W        W 6162   4.371  18.223  16.961  0.0067  0.3823  0.0781
 5299W        W 6163  23.208  25.312  15.361  0.0223  0.1919  0.0373
 5300W        W 6164  11.781   0.402   8.550  0.2191 -0.1810 -0.0724
 5301W        W 6165  10.220  23.332  15.999  0.1489  0.0010 -0.0223
 5302W        W 6166   4.123  16.463   0.696  0.1716 -0.2279  0.2592
 5303W        W 6167   6.114  21.669   8.182 -0.1451  0.0186  0.3473
 5304W        W 6168  14.538  13.278  26.629 -0.3343 -0.1601  0.3372
 5305W        W 6169  10.269  25.381   9.634  0.0478  0.3582  0.0012
 5306W        W 6170   2.118  28.763  10.416  0.1229 -0.2726  0.0039
 5307W        W 6171   4.306  27.147  17.203 -0.0652  0.0706  0.1813
 5308W        W 6172  10.673  18.199   6.485 -0.0518  0.0417 -0.1011
 5309W        W 6173   1.502  24.974   5.911 -0.1399  0.3853  0.0256
 5310W        W 6174   1.049   1.171   1.467  0.2496  0.0733 -0.0201
 5311W        W 6175  29.124   5.886   7.893  0.0699  0.2678  0.0074
 5312W        W 6176   0.426   0.386   7.029 -0.0763 -0.1215 -0.0758
 5313W        W 6177  10.826   9.559  18.929  0.1363  0.1968  0.1783
 5314W        W 6178   9.917  28.758  23.316  0.0846  0.1900  0.1889
 5315W        W 6179  20.947  23.383  28.134 -0.1407 -0.0831  0.2171
 5316W        W 6180   4.410  12.447  21.583 -0.1371  0.3472 -0.0988
 5317W        W 6181  11.562  14.975  17.968  0.1191 -0.4360  0.1575
 5318W        W 6182   2.989  28.683  18.496  0.1251 -0.2073 -0.0135
 5319W        W 6183  24.029   8.396   6.759  0.0374 -0.0013 -0.1467
 5320W        W 6184   5.199   0.302   8.383 -0.4174 -0.0316 -0.4487
 5321W        W 6185  26.240   1.713  18.904  0.2545  0.1206 -0.0157
 5322W        W 6186  19.699   0.116  16.806  0.0131 -0.2420 -0.3407
 5323W        W 6187  26.411  25.603  17.701 -0.0058  0.2533  0.1742
 5324W        W 6188  12.773   4.239  21.518 -0.0442 -0.2090 -0.0539
 5325W        W 6189  12.882   8.706  26.262  0.1992 -0.0922 -0.0302
 5326W        W 6190  10.019  28.801  26.727  0.0826  0.2683 -0.0811
 5327W        W 6191   3.133   7.838  18.349 -0.3588  0.1270 -0.0155
 5328W        W 6192  25.453   0.857  13.452 -0.1104  0.1209 -0.1920
 5329W        W 6193  11.728  17.621   9.610  0.1941  0.1623 -0.0638
 5330W        W 6194  25.665  22.682   1.243  0.3160 -0.0348 -0.0683
 5331W        W 6195   7.926  29.076  17.510  0.0061  0.3866 -0.1087
 5332W        W 6196  15.332  25.129  13.456  0.0914 -0.0624 -0.1234
 5333W        W 6197  13.159   0.525  25.006 -0.1317  0.1287 -0.0601
 5334W        W 6198   1.068  11.104  20.888  0.0141 -0.1296  0.1275
 5335W        W 6199  27.032  14.172  27.306 -0.1792  0.3741  0.0295
 5336W        W 6200  28.700   5.115  17.674 -0.1143  0.0242 -0.3348
 5337W        W 6201   3.695  27.647  18.960 -0.0295 -0.0716 -0.0460
 5338W        W 6202   6.325  25.316  19.830  0.2303  0.0354  0.0090
 5339W        W 6203  14.096   5.612   6.800 -0.1595 -0.1299  0.1011
 5340W        W 6204  28.242   8.393  13.586  0.2865  0.0270 -0.2450
 5341W        W 6205   5.033  19.098  11.787 -0.0913  0.1832 -0.2537
 5342W        W 6206  20.901  22.141  13.563 -0.2486  0.1899 -0.1747
 5343W        W 6207  28.764   8.491   0.160  0.1243  0.0869 -0.1153
 5344W        W 6208  28.555  21.309  10.235 -0.3442 -0.0911  0.2185
 5345W        W 6209   4.947  15.071  14.914 -0.2709 -0.0221  0.0155
 5346W        W 6210   4.390  15.164   2.857  0.2421  0.0481 -0.0173
 5347W        W 6211  26.784   7.046  19.145  0.0125 -0.0751  0.0909
 5348W        W 6212  16.167  14.705   3.498  0.3066  0.1044  0.0765
 5349W        W 6213  10.179   6.745  24.616 -0.1228  0.2989 -0.1363
 5350W        W 6214   4.718   5.243  19.231  0.0506  0.1730  0.0385
 5351W        W 6215   2.178  10.079  10.301 -0.0171  0.0611  0.0796
 5352W        W 6216   6.956   1.324  15.007 -0.0329 -0.0421 -0.2573
 5353W        W 6217   8.517  26.851  16.337 -0.2353 -0.0185  0.1311
 5354W        W 6218  14.901  28.881  12.974 -0.2717  0.0335 -0.0291
 5355W        W 6219  18.604  24.738  11.551  0.1479  0.0469 -0.2319
 5356W        W 6220  21.918   8.529   8.545 -0.3225  0.2058  0.2446
 5357W        W 6221   2.368   4.620  27.775 -0.1159 -0.2405  0.0549
 5358W        W 6222   3.152   5.800  23.849  0.1704 -0.1568  0.2196
 5359W        W 6223  25.411   8.156  23.291 -0.2510 -0.3147  0.0726
 5360W        W 6224  20.408   8.088  14.438  0.1839 -0.0797  0.0070
 5361W        W 6225   3.292   1.249  16.754 -0.1485  0.0773 -0.5514
 5362W        W 6226  28.619  11.267   0.503  0.0310  0.0514 -0.2361
 5363W        W 6227  27.570  19.311  12.995 -0.0424  0.0096 -0.0077
 5364W        W 6228  17.020  16.762  11.091 -0.0220 -0.2132 -0.0931
 5365W        W 6229  16.520   1.409   8.743 -0.1708 -0.2238  0.1213
 5366W        W 6230   1.431   5.210   1.480  0.2321 -0.2770 -0.2702
 5367W        W 6231  19.562  20.934  23.432  0.1411 -0.0758 -0.2279
 5368W        W 6232   5.760   3.722   9.655  0.2129 -0.0230 -0.2235
 5369W        W 6233   9.945   7.181  17.427 -0.0522  0.1495 -0.2818
 5370W        W 6234  28.228  14.535  17.780  0.0513  0.0121  0.1861
 5371W        W 6235  22.330  18.886  17.425 -0.0152 -0.2692  0.0131
 5372W        W 6236  22.996  18.463  20.406  0.2746 -0.0436 -0.1476
 5373W        W 6237  10.085  18.539   4.386  0.1717 -0.0950  0.2638
 5374W        W 6238   3.046  13.652  28.444 -0.2591 -0.1682 -0.0348
 5375W        W 6239  24.060   6.187  21.969 -0.0510  0.0766 -0.1119
 5376W        W 6240   2.115   2.769  26.293 -0.6591  0.0503  0.0791
 5377W        W 6241   1.560  17.196   9.240 -0.1244 -0.1145  0.0222
 5378W        W 6242   3.160  29.036  22.050  0.3178 -0.3672 -0.1603
 5379W        W 6243   5.778  28.517   5.259  0.1304 -0.0141  0.3639
 5380W        W 6244  21.066  13.474   4.825  0.2239  0.1961 -0.3163
 5381W        W 6245  12.224   9.867   3.524 -0.2307 -0.1550 -0.2545
 5382W        W 6246  12.136   3.313   6.574  0.3416  0.1050  0.1602
 5383W        W 6247   2.409  13.640  24.670 -0.1231  0.0411 -0.2610
 5384W        W 6248   3.295  23.162  24.287  0.0732  0.2714  0.0948
 5385W        W 6249  21.421  16.864   5.745 -0.1885 -0.1196  0.0620
 5386W        W 6250  11.109  12.003  18.527 -0.1882  0.2078 -0.2269
 5387W        W 6251  22.162   3.507   1.320 -0.1052  0.0881 -0.1862
 5388W        W 6252   9.536   5.368   8.141 -0.0594  0.0484 -0.2266
 5389W        W 6253  24.488  17.514  25.980  0.2284  0.0350  0.2666
 5390W        W 6254   3.880  16.867  13.517 -0.0255  0.0450 -0.0934
 5391W        W 6255  10.969  11.099  18.846  0.0094 -0.1429 -0.0500
 5392W        W 6256  20.952   6.285  26.952 -0.0941  0.0649  0.0300
 5393W        W 6257  19.505  27.556  24.039  0.0181  0.1739 -0.0477
 5394W        W 6258  18.653  28.665  22.806  0.4794  0.0777 -0.0549
 5395W        W 6259  13.717  27.355   1.187 -0.0460  0.0580 -0.1706
 5396W        W 6260   0.180  14.818  14.528 -0.0135 -0.3556  0.0025
 5397W        W 6261  16.594   5.645   0.356  0.0149  0.0522 -0.0406
 5398W        W 6262  18.611  17.790  23.033 -0.1170 -0.5566  0.0139
 5399W        W 6263   0.367   7.930  19.367  0.0598  0.0408  0.0944
 5400W        W 6264  19.443  26.085   4.191 -0.0830 -0.2273  0.2281
 5401W        W 6265   6.257  19.462  22.394  0.0219  0.1433  0.3981
 5402W        W 6266   0.511  18.942  18.844  0.3765 -0.1666 -0.0778
 5403W        W 6267   3.785   6.594   7.436 -0.1139  0.0068 -0.2097
 5404W        W 6268  25.728   2.333  20.837 -0.1585  0.3295  0.3403
 5405W        W 6269  22.597  12.224   1.956 -0.0952  0.1806  0.2319
 5406W        W 6270  10.988  10.425  25.053 -0.1986 -0.0288 -0.0028
 5407W        W 6271  10.706   8.557  22.025  0.3268 -0.0940  0.0214
 5408W        W 6272  14.167  27.290  28.417  0.4025  0.0977  0.3327
 5409W        W 6273   5.334  25.790   7.033  0.4574  0.0860  0.0027
 5410W        W 6274  18.046   7.360  15.362 -0.0733 -0.0929 -0.0080
 5411W        W 6275  24.400  24.729   0.889 -0.0800  0.1780 -0.0904
 5412W        W 6276   1.064  11.270  27.831 -0.1548  0.1714 -0.0057
 5413W        W 6277   2.962  21.148  20.524  0.0462  0.0135 -0.1994
 5414W        W 6278   4.466   3.333   0.173  0.1633 -0.1039 -0.0541
 5415W        W 6279   7.179  23.368   7.025 -0.1828  0.0046  0.0843
 5416W        W 6280  13.475  10.072  22.774 -0.0782  0.0620  0.0472
 5417W        W 6281  22.612   7.323  20.320  0.0746 -0.1214  0.0871
 5418W        W 6282  24.651  19.987  25.386 -0.5570  0.0448 -0.2257
 5419W        W 6283  20.788  25.141  11.009 -0.2339 -0.0955 -0.1566
 5420W        W 6284   9.089   5.569  17.877 -0.2273 -0.0986 -0.3403
 5421W        W 6285   0.246   0.802  26.144 -0.1239 -0.1919 -0.0947
 5422W        W 6286   0.189   0.775  11.261 -0.0778 -0.0762  0.3452
 5423W        W 6287   3.475  13.508  21.765 -0.1784 -0.4218  0.3338
 5424W        W 6288   3.761   0.899  15.952  0.4919  0.1906 -0.0252
 5425W        W 6289  22.205  18.897  13.681 -0.2210 -0.0887  0.2711
 5426W        W 6290   3.201   3.221  24.508  0.0282 -0.3511  0.3017
 5427W        W 6291  11.187  12.788  24.292  0.0299 -0.0026  0.0375
 5428W        W 6292   5.539   2.234  18.969  0.0379 -0.0390 -0.3828
 5429W        W 6293   7.284   7.263   5.863 -0.1645 -0.2106  0.1272
 5430W        W 6294  22.261   7.086   6.599 -0.0010 -0.2430  0.0467
 5431W        W 6295   3.743  11.784  22.285 -0.2236 -0.0073  0.1376
 5432W        W 6296  12.828   2.033  15.438  0.1673 -0.0996 -0.0064
 5433W        W 6297  10.080  16.665   3.655 -0.3809 -0.0758 -0.0192
 5434W        W 6298  11.508   1.450   4.849  0.0027  0.2848 -0.1637
 5435W        W 6299   2.656  21.874  11.088 -0.0281  0.2841  0.1426
 5436W        W 6300  24.676  11.323  11.043  0.4372 -0.1461  0.2003
 5437W        W 6301   1.741  11.889  14.870 -0.2731 -0.0076 -0.0807
 5438W        W 6302   4.170   0.956   0.532 -0.1648 -0.1111  0.0713
 5439W        W 6303   6.100  12.930  25.866  0.1719  0.1941 -0.2422
 5440W        W 6304  10.196  26.522  17.934 -0.0825  0.1913 -0.0684
 5441W        W 6305   3.703  14.777  19.703  0.1920  0.2140  0.2030
 5442W        W 6306   0.015  13.965  26.466  0.0036 -0.1574  0.0152
 5443W        W 6307  26.901  16.704  14.268  0.2184  0.0984  0.1731
 5444W        W 6308  18.237  12.878  10.252  0.1512 -0.0243  0.1018
 5445W        W 6309  22.161  14.804  24.100 -0.3388  0.1834 -0.0695
 5446W        W 6310  13.568  25.785   5.640  0.1365  0.0206 -0.0658
 5447W        W 6311  17.872   4.718  21.060 -0.0707  0.1186  0.0592
 5448W        W 6312   6.585  21.017  13.388 -0.3039 -0.0740  0.3676
 5449W        W 6313   1.489   5.797   7.472 -0.0589 -0.0563 -0.1377
 5450W        W 6314  19.136  12.267  13.812  0.2201 -0.0231  0.1783
 5451W        W 6315  15.493  13.815  16.737 -0.2764 -0.1983  0.1171
 5452W        W 6316   4.396   3.702  17.157 -0.2302 -0.1232 -0.0137
 5453W        W 6317  13.163  13.981  23.948 -0.3309  0.0497  0.3496
 5454W        W 6318  22.730   3.405  14.477  0.2341 -0.0872 -0.2501
 5455W        W 6319  23.406   5.758  12.255  0.1394  0.2639  0.2804
 5456W        W 6320  23.273  14.804   5.667 -0.1720  0.1230 -0.1536
 5457W        W 6321   5.751   7.023  14.543  0.2501  0.1225 -0.1428
 5458W        W 6322  25.766   2.428  18.445  0.1080 -0.0490  0.0799
 5459W        W 6323  13.573   4.593  21.332  0.0270  0.2746 -0.0867
 5460W        W 6324   0.730   6.612  25.042  0.4159  0.0649  0.0231
 5461W        W 6325   2.483  14.970  19.054  0.0989  0.1268  0.0312
 5462W        W 6326   5.165   1.910  26.774 -0.0143  0.2338 -0.0452
 5463W        W 6327  28.567  22.538  12.123 -0.5921 -0.0665 -0.0439
 5464W        W 6328   7.950  13.313  21.512 -0.0897 -0.1668 -0.1158
 5465W        W 6329   7.168  19.835  20.481  0.2690  0.1164 -0.0886
 5466W        W 6330  25.411  25.582   8.258 -0.0225  0.1560  0.4909
 5467W        W 6331  28.325  22.364  27.780  0.2163 -0.1233  0.0563
 5468W        W 6332   5.229   6.520   8.008  0.0518  0.0756 -0.2452
 5469W        W 6333  22.815  27.347   5.138  0.1569 -0.1073  0.1924
 5470W        W 6334  27.460   9.648  20.272 -0.3187 -0.2221 -0.0473
 5471W        W 6335   1.486   9.644  20.065 -0.3207 -0.3068 -0.0139
 5472W        W 6336  23.657  25.119  24.736  0.3595  0.0457 -0.0246
 5473W        W 6337  26.315   2.323  26.137  0.2462  0.0875 -0.4334
 5474W        W 6338  10.950  23.574  12.988 -0.3686 -0.0549 -0.2721
 5475W        W 6339  20.472  26.315   4.101  0.1792  0.2358  0.2272
 5476W        W 6340  24.228   2.987  25.324  0.0129  0.2338  0.1600
 5477W        W 6341   4.629  28.456  17.070 -0.0959  0.2895  0.1436
 5478W        W 6342  27.304   9.552   7.826 -0.2184  0.0115 -0.3660
 5479W        W 6343  15.328  28.871  10.586 -0.0401  0.1300 -0.1944
 5480W        W 6344  18.528  20.598  20.487 -0.0956 -0.1946 -0.1060
 5481W        W 6345   6.634  10.290  26.338  0.1777 -0.2842  0.0173
 5482W        W 6346  11.765  23.967   1.418 -0.2503 -0.2306 -0.0862
 5483W        W 6347  27.110   6.707  12.747 -0.2627 -0.3375  0.0577
 5484W        W 6348   7.830   0.051  11.323  0.0865 -0.3603  0.0873
 5485W        W 6349  10.212  11.266  16.835  0.0669 -0.1455 -0.4206
 5486W        W 6350   0.497  24.197   9.181  0.3319 -0.0740  0.0688
 5487W        W 6351   9.520  19.428  18.611 -0.3459  0.1883  0.2566
 5488W        W 6352  15.322   7.467   8.440 -0.1507 -0.2152  0.0337
 5489W        W 6353  10.336  14.594  11.925  0.0190  0.1487  0.0679
 5490W        W 6354  24.931  26.031   0.676 -0.1229  0.1465  0.2171
 5491W        W 6355   2.990   3.482  20.258  0.3976  0.0023  0.0311
 5492W        W 6356  25.624  20.188  20.740 -0.4259  0.2920 -0.2331
 5493W        W 6357  23.189   4.474  16.008  0.2259  0.0977 -0.0887
 5494W        W 6358  26.452  23.479  10.255 -0.0998 -0.2231  0.1544
 5495W        W 6359   7.971  17.583  10.830  0.3176 -0.1340 -0.0317
 5496W        W 6360  13.826  24.967   0.638 -0.0790  0.1382 -0.2504
 5497W        W 6361  26.483  24.348  24.877  0.2475  0.0621  0.0337
 5498W        W 6362  22.488  29.099  22.050  0.0325  0.1969  0.0034
 5499W        W 6363   0.240  10.065  27.105 -0.1005  0.1422 -0.1963
 5500W        W 6364   9.457  15.922  14.962 -0.0240  0.0399 -0.0143
 5501W        W 6365   5.164  10.021  24.195 -0.2710  0.3675  0.1135
 5502W        W 6366   9.704   2.664  17.902  0.1302  0.2607 -0.2926
 5503W        W 6367   6.451   1.397   5.307 -0.1763 -0.0982  0.4107
 5504W        W 6368   8.012  16.630   2.929 -0.2604 -0.0521  0.1446
 5505W        W 6369   1.186   6.234  21.476 -0.1644 -0.0537  0.1516
 5506W        W 6370  14.940  15.531   0.953  0.0742  0.2441  0.0447
 5507W        W 6371  22.312  10.750  28.706 -0.0902  0.3370  0.0187
 5508W        W 6372   6.359  26.877   8.555 -0.3072  0.0201  0.1312
 5509W        W 6373   4.075   3.034   0.107  0.1126  0.1958  0.2078
 5510W        W 6374  19.973  22.023  18.404 -0.0800  0.1287 -0.1831
 5511W        W 6375  14.017  11.199  16.017  0.3735 -0.0885 -0.4226
 5512W        W 6376   0.172  27.388  14.538 -0.2707 -0.1676  0.1848
 5513W        W 6377  17.429  16.558  24.432  0.1567  0.3377  0.1334
 5514W        W 6378  10.489   0.613  18.479  0.1388 -0.1994 -0.0941
 5515W        W 6379   7.780  28.986  15.090  0.1959  0.0939  0.0468
 5516W        W 6380   4.038  15.955   7.399  0.1732  0.0134  0.0883
 5517W        W 6381  15.380  15.216  19.261  0.0262 -0.1048 -0.2129
 5518W        W 6382   3.355  11.325  10.214 -0.1174  0.1713 -0.2299
 5519W        W 6383  24.211  25.504   8.731 -0.0574 -0.4914  0.0231
 5520W        W 6384  16.088   5.982  24.945 -0.0024  0.2681 -0.0936
 5521W        W 6385   2.917  13.606   1.161  0.1160 -0.1918 -0.2966
 5522W        W 6386   7.457  22.648  19.630  0.1922  0.1326 -0.3125
 5523W        W 6387  27.559   8.254  15.842  0.0552  0.3310 -0.0407
 5524W        W 6388  24.337  28.461  10.290  0.0106  0.1982 -0.0941
 5525W        W 6389   8.478  18.050  10.329 -0.0889  0.2021  0.1333
 5526W        W 6390   4.281  25.527  20.838  0.1654  0.0959  0.1530
 5527W        W 6391  27.839  10.215   3.908  0.0814  0.1699  0.0627
 5528W        W 6392  26.872   5.860   8.488  0.2853  0.1830 -0.1696
 5529W        W 6393   8.446  19.299  12.844  0.0846 -0.3606 -0.0673
 5530W        W 6394  22.165   3.403  28.226 -0.0318  0.0252 -0.0651
 5531W        W 6395  16.851   2.211  18.709 -0.2055 -0.0692  0.1797
 5532W        W 6396  24.608   6.138   6.442 -0.1790 -0.1015 -0.2133
 5533W        W 6397  17.116   9.818  27.755  0.0954  0.1237  0.0539
 5534W        W 6398  27.619  22.170   6.837  0.1999 -0.0773  0.1691
 5535W        W 6399   9.504   9.387  17.075  0.1513 -0.2775 -0.1509
 5536W        W 6400  24.154  17.388  22.562  0.1740 -0.5473  0.1092
 5537W        W 6401  20.161   9.696  27.889 -0.2577 -0.1679 -0.1686
 5538W        W 6402  22.438  13.213  16.212  0.0838 -0.2044 -0.2085
 5539W        W 6403  13.812   6.414   6.998 -0.0490  0.1031  0.0076
 5540W        W 6404   6.383   6.343   9.984 -0.0443  0.0044  0.2317
 5541W        W 6405  19.263  12.805   0.280 -0.2874  0.4071  0.1102
 5542W        W 6406  27.561   1.705  20.307  0.1677  0.0069 -0.1612
 5543W        W 6407  27.551  26.085  24.063  0.0305 -0.2183 -0.3048
 5544W        W 6408   0.078  14.646  19.084 -0.1732 -0.0966  0.1076
 5545W        W 6409  25.939   0.806  27.894 -0.0485  0.2309  0.0501
 5546W        W 6410   3.366  23.143  10.386 -0.0479  0.0000 -0.0695
 5547W        W 6411  20.887  28.673   1.013  0.3218  0.2720  0.3881
 5548W        W 6412   3.337  10.724  28.466  0.0358 -0.0798  0.3759
 5549W        W 6413  23.737  23.977   0.425 -0.1023 -0.4023 -0.2986
 5550W        W 6414  16.282  27.258   1.545 -0.0238 -0.1410 -0.0056
 5551W        W 6415  28.690   5.699  26.109 -0.2803  0.2204  0.2612
 5552W        W 6416  14.830   9.005  26.720 -0.1396 -0.0915  0.2358
 5553W        W 6417  16.775   7.051  22.300  0.0758  0.1407  0.0283
 5554W        W 6418  27.310   5.214  14.048 -0.1910  0.1487  0.0250
 5555W        W 6419  17.760  28.565  13.938  0.3253 -0.1690  0.0114
 5556W        W 6420  23.575   9.410   9.659  0.0014 -0.1772 -0.2144
 5557W        W 6421  18.411  17.019  22.944  0.3789  0.2141 -0.1760
 5558W        W 6422   5.537   1.831  15.010  0.0023  0.1679  0.0410
 5559W        W 6423  22.315   6.592  21.082 -0.0971  0.0171  0.2411
 5560W        W 6424  28.001   3.338   4.200 -0.0404 -0.0968  0.2370
 5561W        W 6425  28.286   2.236  14.446  0.1023  0.0180  0.1346
 5562W        W 6426   9.668  24.272   7.447  0.1009  0.0101 -0.0657
 5563W        W 6427  20.990  14.153  25.229 -0.2304 -0.1562  0.1727
 5564W        W 6428  28.262  20.548  15.664 -0.0555  0.1937  0.1165
 5565W        W 6429   9.703  13.669  14.502  0.3581  0.1463 -0.0312
 5566W        W 6430  28.084  19.623  14.515 -0.1798  0.0303 -0.0036
 5567W        W 6431   0.316   6.319   2.040  0.1119 -0.1621 -0.1675
 5568W        W 6432  17.397  28.068  24.910 -0.2449  0.3051  0.2045
 5569W        W 6433   5.313   6.295  14.224 -0.1270 -0.0846  0.4104
 5570W        W 6434  15.997  16.437  24.272  0.3187 -0.0179 -0.0531
 5571W        W 6435  21.570   7.988  15.681  0.0497 -0.0479  0.1815
 5572W        W 6436  28.352   7.148  16.158  0.0073  0.4063 -0.1209
 5573W        W 6437  19.314  12.768  15.238  0.4242 -0.1027 -0.0471
 5574W        W 6438  28.488  22.337  21.798  0.1329 -0.2006  0.1556
 5575W        W 6439  19.855  23.415   8.926 -0.0203  0.7793  0.1008
 5576W        W 6440  29.026  10.417  26.732 -0.1227 -0.2367 -0.1240
 5577W        W 6441  28.206   0.215  24.187 -0.1136 -0.1595 -0.1482
 5578W        W 6442   7.011  18.146  23.843 -0.1526 -0.1628  0.0099
 5579W        W 6443  28.717  20.915  13.947 -0.2012 -0.2353 -0.1115
 5580W        W 6444  15.743  28.472   1.268  0.1043  0.2912 -0.0852
 5581W        W 6445   2.285   8.237   0.429 -0.0680  0.2305  0.3448
 5582W        W 6446   5.297  10.851  26.792 -0.3959  0.2018 -0.0565
 5583W        W 6447  28.224   3.553  12.114  0.1223 -0.1632 -0.1251
 5584W        W 6448  26.310  18.017  10.388  0.0545  0.1840 -0.0865
 5585W        W 6449  12.544  25.834  16.180  0.1784 -0.0241 -0.2024
 5586W        W 6450  14.105  11.551  11.859  0.1717  0.1720 -0.2218
 5587W        W 6451   3.641  22.982   6.216  0.0061 -0.0643 -0.2799
 5588W        W 6452   1.224  25.776  17.904  0.0454 -0.2430  0.0212
 5589W        W 6453  24.333  25.420  17.433 -0.1798  0.1252 -0.0788
 5590W        W 6454  28.646  19.673   4.648  0.0489 -0.1594 -0.0682
 5591W        W 6455   1.566   5.316  14.897  0.1914 -0.0584  0.1308
 5592W        W 6456  13.931   9.737   1.006 -0.3701  0.0928 -0.0526
 5593W        W 6457  13.795   8.010  12.383  0.0239 -0.0476 -0.0277
 5594W        W 6458  29.109   9.007  16.974 -0.0169 -0.2656 -0.2882
 5595W        W 6459  26.547   8.908  26.578 -0.2157  0.0744 -0.0358
 5596W        W 6460   0.343  16.410  17.684 -0.0721  0.4487 -0.1538
 5597W        W 6461  26.375  27.856  26.737  0.0741  0.0177 -0.0194
 5598W        W 6462   5.482  11.387   1.719  0.0363 -0.1293  0.2326
 5599W        W 6463  23.410   7.557  26.674 -0.1721  0.4487  0.0576
 5600W        W 6464  27.109   2.653  21.995 -0.2681  0.0744 -0.1888
 5601W        W 6465   2.907   5.001  15.281  0.1892  0.3174 -0.1739
 5602W        W 6466  20.614   5.449  27.175 -0.0373  0.2559  0.0087
 5603W        W 6467   6.648  25.318  20.213  0.0062  0.2270 -0.3748
 5604W        W 6468  11.597  12.428  21.160 -0.2888  0.0159 -0.1599
 5605W        W 6469  10.291   2.172  28.657 -0.0463  0.0910 -0.0540
 5606W        W 6470   0.530   1.068  18.820 -0.0822  0.1471 -0.0738
 5607W        W 6471   4.393  15.817  18.482  0.2285 -0.1605 -0.2867
 5608W        W 6472  15.450  22.736  17.945 -0.0241 -0.0512  0.4207
 5609W        W 6473  22.862   6.650  22.935  0.0477  0.0699  0.3003
 5610W        W 6474  11.710   5.280  22.482 -0.1928  0.1932  0.0539
 5611W        W 6475   7.357  10.688  27.260  0.0027 -0.2385  0.0406
 5612W        W 6476  19.297  22.987  24.543  0.0908 -0.2963 -0.1238
 5613W        W 6477   4.686   6.065   0.091 -0.0959  0.1173  0.0370
 5614W        W 6478  10.521  19.572   9.471 -0.0300  0.0495  0.2842
 5615W        W 6479  10.284  12.391  14.265 -0.0655  0.0828  0.2139
 5616W        W 6480  25.323  11.995   1.728 -0.2889  0.0843  0.1929
 5617W        W 6481   7.071   2.354   9.391  0.0525  0.0781 -0.3143
 5618W        W 6482   7.817  25.998  16.427  0.0243  0.2026  0.2549
 5619W        W 6483  24.445  12.288   1.180 -0.1379  0.0835  0.0575
 5620W        W 6484  18.539   8.272  27.973  0.0364 -0.0993 -0.3895
 5621W        W 6485  14.820   8.473  11.272  0.1005  0.0086  0.0034
 5622W        W 6486   6.326  23.643   2.017 -0.2032 -0.1628 -0.0058
 5623W        W 6487  19.916   4.200   7.995 -0.0994 -0.0395 -0.0808
 5624W        W 6488  25.832  16.669  26.410  0.1141 -0.0731 -0.0643
 5625W        W 6489   1.291  18.126  17.587  0.0817 -0.1730  0.0015
 5626W        W 6490  15.005  14.383  22.668  0.0210 -0.0521  0.1826
 5627W        W 6491  22.668  23.997   7.770 -0.4388 -0.1543 -0.0223
 5628W        W 6492  15.932   5.042  23.348 -0.2058 -0.0148 -0.0333
 5629W        W 6493   9.727   1.839  12.679  0.2765  0.1654  0.2002
 5630W        W 6494   1.281  10.984   1.859 -0.1836  0.3385 -0.0422
 5631W        W 6495  10.759  18.724  29.012 -0.0496  0.1075  0.0116
 5632W        W 6496  25.665   5.649  24.900 -0.0542 -0.0370 -0.0388
 5633W        W 6497   3.147  18.237  18.568 -0.0385 -0.2486  0.4293
 5634W        W 6498   6.545  22.612  20.661  0.1119  0.1031  0.1188
 5635W        W 6499  12.753  12.630   8.670  0.1077  0.5092  0.0222
 5636W        W 6500  17.250   1.449  16.161  0.2608 -0.0011 -0.2241
 5637W        W 6501   0.053  11.080   1.889  0.0472 -0.1922 -0.2180
 5638W        W 6502  10.106   9.867   3.749 -0.0599  0.2427  0.1744
 5639W        W 6503   5.139   7.304  17.265 -0.0667 -0.1367  0.2250
 5640W        W 6504  11.797  13.464   9.976 -0.1523 -0.1551 -0.0673
 5641W        W 6505  17.876  20.399  21.773 -0.4051  0.0665  0.1188
 5642W        W 6506   4.565  20.158  12.919  0.0631 -0.0938  0.0508
 5643W        W 6507  20.605  15.482  15.935 -0.0682  0.2301 -0.0705
 5644W        W 6508  13.524  16.204  23.260 -0.1002  0.2413  0.2481
 5645W        W 6509   1.599  19.061  27.612 -0.0257 -0.0494 -0.1661
 5646W        W 6510  20.401  22.426  26.862  0.2230  0.0909  0.1296
 5647W        W 6511   6.385  26.786   0.151  0.2717 -0.0712  0.4295
 5648W        W 6512  17.535   5.253   7.125 -0.0729  0.0586 -0.0178
 5649W        W 6513  23.298   9.616  16.324 -0.2483  0.0275 -0.3953
 5650W        W 6514  11.968  26.759  18.577  0.2426 -0.1256  0.2494
 5651W        W 6515   8.330  19.330  15.260 -0.1531  0.2902 -0.0541
 5652W        W 6516  20.117  22.678  12.759  0.1545  0.0263  0.0237
 5653W        W 6517   2.626  26.452  14.483 -0.1419 -0.2057  0.2839
 5654W        W 6518  27.901   0.582  23.777 -0.0087  0.1602  0.0464
 5655W        W 6519  24.598   5.504  23.246  0.2286  0.0110 -0.1447
 5656W        W 6520  23.678   5.254  28.518 -0.1904  0.4575 -0.0282
 5657W        W 6521  22.756   8.264  26.354  0.3459  0.2328  0.0146
 5658W        W 6522  20.112  28.160  20.682  0.2090 -0.0902 -0.2140
 5659W        W 6523   7.086   7.537  22.552 -0.2987  0.1377  0.0889
 5660W        W 6524   8.308  20.369   4.586  0.1374  0.0337  0.0168
 5661W        W 6525  23.490   2.225  17.535  0.1024 -0.1848  0.1661
 5662W        W 6526   8.195  22.259   4.522 -0.3956 -0.0522  0.0928
 5663W        W 6527  12.975   3.932   0.444 -0.1321 -0.1455 -0.0028
 5664W        W 6528  23.696  13.297  28.646  0.0810  0.0126 -0.0985
 5665W        W 6529  26.922  27.718  27.949  0.1097 -0.1808  0.0739
 5666W        W 6530   4.398  24.903  23.062  0.2000  0.1916  0.0650
 5667W        W 6531  25.219  24.120  24.407  0.2016 -0.0180  0.2081
 5668W        W 6532  12.048  11.077  15.580 -0.0875  0.0699 -0.1850
 5669W        W 6533   6.713  18.424  17.943 -0.1181 -0.1479  0.1310
 5670W        W 6534  20.862   6.285   4.401 -0.0699 -0.1324  0.1105
 5671W        W 6535   0.469   2.657  18.475  0.2390  0.0686 -0.0175
 5672W        W 6536   7.283   0.230   3.638  0.0020  0.3383  0.1391
 5673W        W 6537   6.431   1.604  15.319  0.1259  0.0893 -0.1188
 5674W        W 6538   4.696   7.287  22.001 -0.2945  0.1600 -0.0015
 5675W        W 6539   8.484  25.010  16.814  0.1209  0.1420  0.1948
 5676W        W 6540   5.520   2.467  20.532 -0.0982 -0.3223 -0.2777
 5677W        W 6541  23.565   3.672  11.607 -0.2524  0.3151 -0.0901
 5678W        W 6542   0.006   7.106  21.577 -0.0482  0.0931 -0.1849
 5679W        W 6543  11.907   6.506   8.022  0.0505  0.2412 -0.0829
 5680W        W 6544   9.173  16.526  17.745 -0.1049 -0.0240 -0.0317
 5681W        W 6545  19.625   5.155  26.041 -0.0398 -0.1193 -0.1436
 5682W        W 6546  14.371   2.947  10.576 -0.4073  0.1993  0.1047
 5683W        W 6547  11.428  24.782  10.104 -0.1144  0.2009 -0.1628
 5684W        W 6548  25.577  25.306  10.112 -0.0441 -0.0616  0.1848
 5685W        W 6549  28.438  17.846   4.717  0.2152  0.2194  0.0990
 5686W        W 6550   1.678   0.320  27.077  0.0522  0.2537  0.2634
 5687W        W 6551   7.949  14.754   7.759  0.0698 -0.1503 -0.1878
 5688W        W 6552  13.775  24.443  24.248  0.1077  0.2070 -0.2660
 5689W        W 6553   1.938   4.520  15.414 -0.1543 -0.2332  0.1085
 5690W        W 6554   8.702   4.040  22.900 -0.1701 -0.0451  0.0437
 5691W        W 6555  23.581  24.991  20.593  0.1603 -0.3126 -0.5008
 5692W        W 6556  25.790  15.419   9.508  0.1695  0.1102 -0.0223
 5693W        W 6557  24.937  26.522   6.283  0.0050 -0.0806  0.0299
 5694W        W 6558   5.579  22.864  26.609  0.1722 -0.0610 -0.0717
 5695W        W 6559  12.257   8.381  23.496  0.1516  0.0194  0.1206
 5696W        W 6560  28.353  26.027   4.344 -0.2840 -0.1944  0.0917
 5697W        W 6561   8.492   0.820  10.138  0.0314 -0.3925 -0.1082
 5698W        W 6562  25.388  10.501  15.407  0.1176  0.0866  0.1076
 5699W        W 6563   9.438  21.650   9.196 -0.2881 -0.2217 -0.0050
 5700W        W 6564  26.604  22.421  23.788  0.2941  0.1071 -0.1915
 5701W        W 6565  27.665  26.034  22.175 -0.1364  0.1893 -0.0347
 5702W        W 6566   2.487  24.815  17.864 -0.3003 -0.3109 -0.1258
 5703W        W 6567  19.217  26.255  27.915 -0.0828 -0.1000 -0.0252
 5704W        W 6568  18.912   1.038  10.920  0.0262 -0.3112  0.0830
 5705W        W 6569  16.050   7.449  18.726  0.0690 -0.1216  0.0956
 5706W        W 6570   6.411  12.404   0.149 -0.0315  0.2146 -0.1169
 5707W        W 6571   8.892   3.656  22.679  0.0766  0.2580  0.2673
 5708W        W 6572  21.436   7.251  20.572  0.1369  0.0778 -0.0969
 5709W        W 6573   8.587  28.813  23.383  0.2502 -0.0421  0.0283
 5710W        W 6574   6.878   1.044  25.183  0.2057 -0.1959  0.0577
 5711W        W 6575  25.026  15.462  18.490 -0.1521 -0.0015  0.1218
 5712W        W 6576  18.488   4.003  28.531 -0.2047 -0.1916 -0.2037
 5713W        W 6577   2.157  25.396  26.345 -0.0024 -0.0663  0.1013
 5714W        W 6578  26.015   2.302   5.085 -0.0177  0.0242  0.0343
 5715W        W 6579  11.110  19.157  25.028 -0.2635 -0.0202  0.4111
 5716W        W 6580   3.834  25.177   1.904 -0.1240  0.2839 -0.1313
 5717W        W 6581   3.290  17.704  27.234  0.1964 -0.1228 -0.2037
 5718W        W 6582   2.588  17.875  26.528 -0.2694 -0.2372  0.0456
 5719W        W 6583  15.207   5.499   0.800 -0.0349  0.1565  0.0486
 5720W        W 6584   1.004  14.881  19.736  0.1301 -0.0061 -0.1186
 5721W        W 6585   3.955   6.783  15.947 -0.2893 -0.4392 -0.0091
 5722W        W 6586   1.944   8.356  24.817 -0.1230 -0.2214 -0.0454
 5723W        W 6587   3.595   5.943   7.835  0.0463  0.1177  0.0262
 5724W        W 6588  26.328   9.224   1.945  0.0831  0.1504 -0.0561
 5725W        W 6589   9.230  16.417  28.401 -0.0133  0.0237 -0.1362
 5726W        W 6590  15.265  27.971  11.708 -0.0105  0.2038 -0.2377
 5727W        W 6591   0.509  25.977   4.960 -0.0851 -0.3879 -0.2278
 5728W        W 6592   9.546  24.932  17.675  0.2520 -0.2973  0.2067
 5729W        W 6593   8.916   9.157  20.408  0.0071  0.3513 -0.0155
 5730W        W 6594  22.826  22.812  13.239 -0.2692 -0.1171  0.2082
 5731W        W 6595   6.376   2.197  27.779  0.1812 -0.0948  0.2869
 5732W        W 6596  25.310  25.787   2.140 -0.0613  0.2057 -0.1779
 5733W        W 6597  17.894  25.044   2.349 -0.0888  0.1003 -0.0391
 5734W        W 6598   4.415  26.004   0.797  0.1431 -0.1664 -0.1881
 5735W        W 6599   1.009  18.502  17.825  0.1374 -0.0413 -0.0186
 5736W        W 6600   7.445  12.176  16.482 -0.1462 -0.0329  0.2920
 5737W        W 6601   2.029   7.695  21.670  0.0848  0.0319 -0.0596
 5738W        W 6602  21.915  15.967  18.713  0.1349 -0.3521  0.0023
 5739W        W 6603  22.318  25.693  10.303  0.1149 -0.2046  0.1492
 5740W        W 6604   8.116  13.181  14.308  0.0374 -0.0590  0.1633
 5741W        W 6605   4.661  14.064  12.526  0.0139  0.1455 -0.1729
 5742W        W 6606  21.725  21.855  26.507  0.1997 -0.1111 -0.2842
 5743W        W 6607   4.173  13.621  21.109  0.1634  0.1740  0.0745
 5744W        W 6608  11.679  10.060   0.929  0.0897 -0.1684 -0.0267
 5745W        W 6609   9.193   5.226   3.963  0.0198  0.0793  0.0140
 5746W        W 6610   9.187   6.330   6.837 -0.0349  0.0473 -0.4145
 5747W        W 6611   9.830   5.452   1.986 -0.0678 -0.2494 -0.2379
 5748W        W 6612   3.618   6.767   7.844  0.2504 -0.2151 -0.0690
 5749W        W 6613  26.677   0.387   5.888  0.4654 -0.1833  0.3232
 5750W        W 6614   5.547   9.805  15.646 -0.1203  0.1118  0.0606
 5751W        W 6615  18.347  14.271   6.423  0.0063  0.2883  0.0873
 5752W        W 6616   4.384   5.587  27.413 -0.1371 -0.1353 -0.4263
 5753W        W 6617   9.918  28.979   9.227 -0.0989 -0.0004  0.1214
 5754W        W 6618   7.671  25.890   2.062 -0.3060 -0.1073  0.1530
 5755W        W 6619  16.933   6.277  11.602  0.0499  0.0715  0.1362
 5756W        W 6620  26.588  12.197  28.976  0.0367 -0.0345 -0.1178
 5757W        W 6621  13.354   2.126  16.561  0.0958  0.0681  0.1949
 5758W        W 6622   9.762  26.256  23.574  0.1040 -0.0464 -0.0249
 5759W        W 6623  11.090  13.430  10.817  0.1385  0.2447  0.0474
 5760W        W 6624  24.412  27.884  21.067  0.1000  0.4416  0.1063
 5761W        W 6625  22.954   3.599  26.785 -0.2136 -0.3530  0.2757
 5762W        W 6626   2.615  18.266  25.676  0.0500  0.0935  0.2018
 5763W        W 6627  13.508   7.454  23.733 -0.2036  0.5735 -0.0435
 5764W        W 6628   2.898   4.293  21.378  0.2238 -0.0127  0.2227
 5765W        W 6629   6.109   8.782  15.546 -0.1883  0.1547 -0.0296
 5766W        W 6630  23.218  11.387   3.953 -0.2549  0.1923 -0.1335
 5767W        W 6631   0.693   7.131  19.361  0.0019  0.2133 -0.0146
 5768W        W 6632  23.118   9.940   1.639 -0.3006 -0.3705 -0.1970
 5769W        W 6633  27.604   8.264  16.427 -0.3665 -0.1711 -0.1572
 5770W        W 6634  11.031  27.456  17.074 -0.0875 -0.0788 -0.2408
 5771W        W 6635  10.746  20.718   4.273  0.2629  0.0122  0.1416
 5772W        W 6636   3.779   4.830  16.643 -0.0441  0.0210 -0.1964
 5773W        W 6637  26.509   8.912   2.331 -0.4296 -0.2625  0.1490
 5774W        W 6638  20.563   4.636  27.120  0.2926 -0.2484 -0.2464
 5775W        W 6639  11.107  14.804   9.645  0.0440 -0.0947  0.1973
 5776W        W 6640   7.417   7.114  28.188 -0.2334 -0.0700  0.0616
 5777W        W 6641  16.878  15.007  20.683  0.0428  0.1945  0.1710
 5778W        W 6642  23.409  27.004  22.486 -0.2401  0.0746 -0.0305
 5779W        W 6643  27.307   9.897   4.651 -0.1497  0.2711  0.2104
 5780W        W 6644   2.343   6.927  12.606 -0.4126  0.0761  0.2054
 5781W        W 6645   9.913   7.382   1.236  0.2536  0.1654 -0.0243
 5782W        W 6646  24.391  17.274  12.830  0.2434 -0.2118  0.2193
 5783W        W 6647   9.353  20.581   7.680  0.2086  0.1328  0.0441
 5784W        W 6648  26.907  15.893  16.769 -0.3729  0.0712 -0.1520
 5785W        W 6649  10.430  15.138  23.249 -0.1402  0.0350 -0.2048
 5786W        W 6650   6.127  10.196   6.444  0.1656  0.1179  0.0722
 5787W        W 6651   8.626  26.132  15.627 -0.1239 -0.1104 -0.1350
 5788W        W 6652   3.106   0.910  18.739  0.0009 -0.0119 -0.0040
 5789W        W 6653  27.053  16.758  16.495 -0.0163  0.2690 -0.0084
 5790W        W 6654   1.636   0.277  16.427 -0.1194 -0.1323 -0.3763
 5791W        W 6655   0.727   2.399  20.739 -0.4658  0.0243 -0.1092
 5792W        W 6656  27.672   2.606  22.046 -0.1603 -0.1152 -0.0069
 5793W        W 6657   0.447   7.236  13.817  0.0196  0.0242 -0.0721
 5794W        W 6658  17.422  23.537   0.952 -0.2342 -0.1609 -0.1698
 5795W        W 6659  14.569   6.197  14.600 -0.0925  0.2732 -0.2838
 5796W        W 6660   3.043  11.911  27.160 -0.1849 -0.2339  0.2151
 5797W        W 6661   0.860  19.127  26.473  0.0120  0.0726  0.0555
 5798W        W 6662  21.165  17.626  14.159 -0.4583 -0.2111  0.1078
 5799W        W 6663  11.539  12.507  17.806 -0.3117  0.1567 -0.1654
 5800W        W 6664   4.547  12.952  12.925 -0.0923  0.0718  0.2933
 5801W        W 6665   3.714   5.766  14.070 -0.1407 -0.2383  0.2153
 5802W        W 6666  21.515  16.254   7.587 -0.0724 -0.1496 -0.0019
 5803W        W 6667  24.344  11.172  11.411  0.2260  0.0871 -0.0819
 5804W        W 6668  25.131  11.671  13.057 -0.1050 -0.0551 -0.0809
 5805W        W 6669  15.593   6.861  16.188 -0.0011 -0.2422 -0.0194
 5806W        W 6670  27.776   1.718   5.548  0.0657 -0.0393  0.1005
 5807W        W 6671   4.823  24.058  25.010  0.0398  0.0375  0.2219
 5808W        W 6672   2.657   1.859   7.212 -0.1627  0.1720  0.0668
 5809W        W 6673  10.946  28.383  23.292  0.0244  0.4173 -0.1079
 5810W        W 6674   5.664   5.284   8.352 -0.0010 -0.2718  0.2562
 5811W        W 6675   5.650   7.752  18.819 -0.3088 -0.1693  0.0340
 5812W        W 6676   2.043  20.145  26.667  0.0057  0.0091 -0.1349
 5813W        W 6677  13.744  18.557   4.513  0.1723 -0.0192 -0.0390
 5814W        W 6678  25.421  15.783  19.361  0.2884 -0.1461  0.5114
 5815W        W 6679  13.530  19.624  17.510 -0.0121 -0.1364  0.0548
 5816W        W 6680   3.732  26.057  26.227  0.1351  0.0297  0.1193
 5817W        W 6681  17.262   4.050  14.672 -0.1627  0.1365 -0.3429
 5818W        W 6682   2.589  26.750  16.427 -0.0026 -0.1805  0.1846
 5819W        W 6683  24.342   4.595  24.872 -0.2694 -0.3377 -0.2879
 5820W        W 6684  11.495   7.409  27.077 -0.4036  0.0516 -0.0765
 5821W        W 6685   1.878   7.829  12.936 -0.2182  0.1850  0.0153
 5822W        W 6686  28.511  17.655  18.009 -0.1145 -0.1307  0.0284
 5823W        W 6687  22.004  10.779   5.662 -0.0630  0.1116  0.0972
 5824W        W 6688  18.927  24.469   0.965  0.2080  0.1034 -0.0120
 5825W        W 6689  19.956   2.810   7.578 -0.0229  0.1150  0.1776
 5826W        W 6690  17.508  11.340  28.777  0.0044  0.0079  0.2057
 5827W        W 6691   2.661  20.955  17.771 -0.1005 -0.1473  0.1276
 5828W        W 6692  19.549  25.618  26.857 -0.0573 -0.0780  0.2181
 5829W        W 6693   0.547   1.989  19.884 -0.1328  0.0099  0.0340
 5830W        W 6694   6.707   2.684  17.361 -0.1090 -0.1068  0.0086
 5831W        W 6695  10.457  12.313  19.839 -0.1591 -0.0359  0.0662
 5832W        W 6696   0.037  19.726  19.131  0.0075 -0.3569  0.2234
 5833W        W 6697  15.425   7.165  20.117  0.1125 -0.2443  0.0325
 5834W        W 6698  12.179  26.245  13.853  0.1798  0.0608 -0.2069
 5835W        W 6699   8.894   6.353  21.199  0.2810 -0.0383  0.0443
 5836W        W 6700   9.118   6.809  28.230  0.1566  0.0240 -0.1855
 5837W        W 6701  28.493  27.545  20.528  0.2484 -0.0468  0.3257
 5838W        W 6702   8.340  10.416  15.720 -0.2178  0.0503 -0.1380
 5839W        W 6703  18.019  27.144  22.202 -0.3560  0.1203  0.2261
 5840W        W 6704  16.730  13.698  13.168  0.1041 -0.2273  0.3612
 5841W        W 6705  20.455  26.922  23.026 -0.0321 -0.0988  0.0852
 5842W        W 6706   5.920   3.468  23.293 -0.0388 -0.1697 -0.0630
 5843W        W 6707  27.667  16.853  13.042 -0.1045  0.1267 -0.2741
 5844W        W 6708  14.769  15.465  19.374  0.1331  0.2053 -0.2015
 5845W        W 6709  16.942  13.655  27.639  0.0828 -0.0349  0.1398
 5846W        W 6710  17.495  27.318   7.492  0.2268  0.0552 -0.4611
 5847W        W 6711  16.472   7.188  27.359  0.2395  0.0682  0.2074
 5848W        W 6712   9.903   2.989  23.633  0.2841  0.3976  0.0168
 5849W        W 6713  12.215  14.146  19.235  0.0569  0.2158 -0.0868
 5850W        W 6714   8.722  14.834   1.737 -0.1550  0.1451 -0.1385
 5851W        W 6715  20.434   2.592  21.362 -0.1495  0.2944 -0.3139
 5852W        W 6716   1.537   9.141  25.067 -0.1363 -0.0469 -0.0025
 5853W        W 6717   2.752  13.207  28.517  0.0622 -0.2737  0.0788
 5854W        W 6718  25.368  25.226   5.193  0.2045  0.2114 -0.1976
 5855W        W 6719   5.264   7.512  19.061 -0.3026  0.0401  0.1495
 5856W        W 6720   9.027   3.161  14.501  0.3366 -0.0000 -0.0462
 5857W        W 6721   6.169   7.526   9.493  0.3103  0.1845  0.2808
 5858W        W 6722  26.019  25.837   5.129  0.0942  0.0056 -0.1118
 5859W        W 6723   2.806  26.617  21.289 -0.1179  0.0117  0.2728
 5860W        W 6724  27.248   8.106   5.328 -0.1481  0.0342 -0.0489
 5861W        W 6725  15.630  11.579   9.861 -0.0158 -0.1052  0.1478
 5862W        W 6726  12.437  14.216   5.207  0.1740  0.0840  0.2703
 5863W        W 6727  16.972  10.767  22.243  0.0516  0.0751  0.0499
 5864W        W 6728  16.735   9.941  10.541 -0.0978 -0.1368  0.1699
 5865W        W 6729  12.039  12.741  10.651  0.1962  0.0740 -0.2547
 5866W        W 6730  27.070  26.671   1.676  0.0805  0.1334 -0.1257
 5867W        W 6731  25.960  27.424  18.643  0.0927  0.1087  0.3813
 5868W        W 6732  26.209  25.141  17.207 -0.0127 -0.0357 -0.2119
 5869W        W 6733  21.029   7.500  25.086 -0.0138 -0.1031  0.0481
 5870W        W 6734   8.514  23.144   1.471 -0.2105 -0.1594  0.1086
 5871W        W 6735  15.487  11.847  14.955 -0.0716 -0.0670  0.2848
 5872W        W 6736   6.923   8.044   3.407 -0.1843  0.0480  0.2816
 5873W        W 6737  21.237  10.016  14.797  0.0266  0.0055 -0.2033
 5874W        W 6738  20.353  19.053  15.484 -0.0232  0.0489 -0.1976
 5875W        W 6739  14.189  24.295   1.987 -0.2253  0.1463  0.1487
 5876W        W 6740   7.854  27.619  25.332  0.0716  0.0884  0.2907
 5877W        W 6741   3.834  26.677  26.273 -0.1293 -0.0307  0.1485
 5878W        W 6742  28.421  19.312  14.728  0.1108 -0.0628 -0.0111
 5879W        W 6743  21.159   1.710  23.055 -0.1509 -0.0631 -0.0833
 5880W        W 6744  11.064  20.723  28.197 -0.0516 -0.1888 -0.0327
 5881W        W 6745  28.014  22.013  19.561  0.1419  0.0903 -0.3048
 5882W        W 6746  24.254  10.404  17.767 -0.0769 -0.0588  0.1317
 5883W        W 6747  12.445  14.408   9.362 -0.1682 -0.1112 -0.0635
 5884W        W 6748   3.704   5.876   1.341  0.1350  0.0436  0.1097
 5885W        W 6749  27.599   6.498  23.503  0.0584  0.0937  0.0004
 5886W        W 6750  15.577  21.152  25.942 -0.2807  0.3956 -0.2022
 5887W        W 6751   1.810  17.291   5.597  0.1039  0.5460  0.2711
 5888W        W 6752   6.588   2.979  22.537 -0.2597  0.0886  0.1636
 5889W        W 6753  11.202  10.634   1.728  0.0731  0.1179  0.1437
 5890W        W 6754  25.589   3.090  28.247  0.1228 -0.0835  0.0833
 5891W        W 6755  27.352  22.755  26.557  0.3431 -0.4474  0.0753
 5892W        W 6756   1.381   7.914   4.601  0.2162 -0.2330  0.1009
 5893W        W 6757   6.351  23.466  24.802  0.2352  0.1326  0.2140
 5894W        W 6758   5.605  28.179   5.726  0.2011  0.0242 -0.1996
 5895W        W 6759   1.449  12.865  11.420 -0.0125 -0.0245 -0.1646
 5896W        W 6760  16.014  11.085  25.868 -0.0584 -0.3676  0.2165
 5897W        W 6761   6.724   2.586  21.438  0.2593 -0.0693  0.1208
 5898W        W 6762  21.859   3.581   0.458  0.3327  0.1362  0.0709
 5899W        W 6763  21.336  26.163  21.679  0.3185 -0.0521 -0.1363
 5900W        W 6764   9.180  18.891   5.746 -0.0840  0.1102 -0.0729
 5901W        W 6765  26.619   5.779   1.992  0.2030 -0.2086 -0.2343
 5902W        W 6766  10.350   9.821  16.546  0.0605 -0.2109  0.1675
 5903W        W 6767   8.815  17.964  16.068 -0.0289 -0.2249 -0.0227
 5904W        W 6768   3.478  11.754  23.787 -0.0279  0.1244  0.2727
 5905W        W 6769   1.324   1.332   2.962 -0.3043  0.0375  0.0326
 5906W        W 6770  25.394   5.210  25.264  0.2212  0.0554 -0.1232
 5907W        W 6771  19.614  20.668   2.272  0.2052  0.0080 -0.2564
 5908W        W 6772  14.010  17.425  25.700 -0.2596  0.0787 -0.0647
 5909W        W 6773  22.992   9.435   5.565 -0.0861  0.0697  0.1555
 5910W        W 6774   4.571   5.273  16.859  0.0681  0.3105 -0.1209
 5911W        W 6775  27.552   1.700  21.053 -0.1223  0.2376  0.2068
 5912W        W 6776  28.739   6.598  14.998  0.2358 -0.1944 -0.0932
 5913W        W 6777   2.266  18.648   1.747  0.0049  0.1171  0.0236
 5914W        W 6778  28.052  20.105  12.003  0.2600  0.1605 -0.2247
 5915W        W 6779   8.908  14.593  22.671  0.2349  0.1499 -0.2361
 5916W        W 6780   7.345  21.726   1.526  0.1260  0.2166  0.2250
 5917W        W 6781   6.781   6.964  14.074 -0.1599  0.1891  0.1083
 5918W        W 6782  22.878   9.906  23.434 -0.0118  0.2721  0.0781
 5919W        W 6783  27.411  15.863  27.051 -0.0900 -0.1241  0.0825
 5920W        W 6784  14.792  22.945   7.188  0.0612 -0.1097 -0.0167
 5921W        W 6785  24.044   5.303   6.530  0.3051 -0.1584  0.1858
 5922W        W 6786  16.646   6.443  14.128  0.0380  0.1221 -0.0457
 5923W        W 6787  14.498  15.776   9.692  0.2094 -0.2291 -0.0878
 5924W        W 6788  23.339   7.638  11.960 -0.2090 -0.0069  0.1030
 5925W        W 6789   2.679  18.496  11.460  0.0236 -0.1565 -0.0837
 5926W        W 6790  10.464  16.432  14.074  0.0074 -0.5286  0.0952
 5927W        W 6791  18.395  20.712  22.634 -0.1002  0.1205  0.1755
 5928W        W 6792  27.757   9.880   2.523 -0.1461 -0.0435  0.1374
 5929W        W 6793  11.897  17.663  24.106  0.0663  0.1050 -0.2235
 5930W        W 6794  26.090  15.392  16.138 -0.1120  0.1057 -0.0945
 5931W        W 6795  26.818  19.155   7.792 -0.2600 -0.2920  0.1821
 5932W        W 6796  10.962  24.759  25.589  0.0625 -0.0078  0.1748
 5933W        W 6797   8.563   2.186  24.193 -0.2470 -0.2979  0.0381
 5934W        W 6798   3.335   3.347  25.386  0.1401 -0.1468 -0.0304
 5935W        W 6799  10.240  28.462   1.103 -0.1247  0.1156 -0.1452
 5936W        W 6800  19.871  17.673  23.546  0.0629  0.1836 -0.0703
 5937W        W 6801   4.991  28.921  21.122  0.1192  0.0926 -0.0212
 5938W        W 6802   8.682   2.529  16.316 -0.2632  0.0290 -0.0960
 5939W        W 6803  11.621   2.674  13.915  0.0566 -0.0862  0.2348
 5940W        W 6804  14.833  17.050  25.242 -0.0677 -0.1614 -0.3002
 5941W        W 6805  18.842   5.315  11.831  0.1942  0.1058  0.2356
 5942W        W 6806   4.923   3.134  14.354  0.0903 -0.1343 -0.1748
 5943W        W 6807  28.085   6.704  19.960 -0.1663 -0.2559 -0.1487
 5944W        W 6808   7.251  23.265  26.343  0.0989  0.2244  0.0905
 5945W        W 6809  25.027  14.950  27.430 -0.1890 -0.1932 -0.0959
 5946W        W 6810  27.662  19.079   8.364  0.3127 -0.0224 -0.1223
 5947W        W 6811  22.129   3.763   5.660  0.1260 -0.2882 -0.0405
 5948W        W 6812  21.864  25.448  27.400 -0.1266 -0.2844 -0.0244
 5949W        W 6813   2.581   7.974   4.890 -0.3335  0.0583  0.0504
 5950W        W 6814  27.153  17.420   6.407  0.0640 -0.1549 -0.1298
 5951W        W 6815   2.419   9.192   1.544 -0.2822  0.1380  0.1928
 5952W        W 6816  11.450   9.183   7.836  0.0449 -0.0669 -0.5026
 5953W        W 6817   2.866  27.131   8.710  0.0220 -0.1265 -0.1491
 5954W        W 6818  20.746  22.023  18.580  0.0656  0.0366 -0.2470
 5955W        W 6819   7.217   4.886  14.016  0.0026  0.1848 -0.1850
 5956W        W 6820  10.826  24.220  18.381  0.1470 -0.3062  0.0158
 5957W        W 6821   3.695   2.741  12.674 -0.0983 -0.0747 -0.1468
 5958W        W 6822   3.540  20.049  17.599 -0.1771  0.0638  0.1008
 5959W        W 6823  13.284  28.122  25.273 -0.0348 -0.3642 -0.2574
 5960W        W 6824  25.060   6.989  19.057 -0.0413 -0.0151 -0.1217
 5961W        W 6825   6.955  18.498  25.874  0.1745 -0.2449  0.2880
 5962W        W 6826   0.505  19.654   5.879 -0.5324 -0.1047  0.0650
 5963W        W 6827   9.700  16.368   6.438 -0.3406 -0.1664  0.0014
 5964W        W 6828   2.294  11.579  20.908 -0.2741  0.1959 -0.0302
 5965W        W 6829  24.081  10.103  26.008  0.0228  0.0681 -0.0146
 5966W        W 6830   9.291   1.876   2.521  0.2167 -0.2731  0.1577
 5967W        W 6831   7.472  26.383  25.870 -0.2341  0.1919  0.2183
 5968W        W 6832  24.801  15.640  16.250 -0.1604  0.2831  0.3017
 5969W        W 6833  24.434  14.738   8.147 -0.0110  0.2555  0.1445
 5970W        W 6834  28.470  27.113  16.973  0.3075 -0.1123  0.2812
 5971W        W 6835   1.109   4.689   4.066  0.1597  0.0165  0.0088
 5972W        W 6836   7.199   5.772   9.038  0.0790 -0.2445 -0.2371
 5973W        W 6837   2.152  26.727   4.717 -0.1326  0.0650  0.0828
 5974W        W 6838   1.157   9.448  25.193 -0.3171  0.1870 -0.0756
 5975W        W 6839  26.836  16.124  10.494  0.0067 -0.0434  0.1551
 5976W        W 6840   6.974  17.008  26.026  0.2764 -0.1757  0.2432
 5977W        W 6841  21.627   7.032  15.635 -0.1680  0.0493 -0.0003
 5978W        W 6842  22.935   1.989  27.667  0.0047 -0.0039 -0.3045
 5979W        W 6843   8.881   9.983   0.828  0.1318  0.0483  0.1170
 5980W        W 6844  12.131   0.243   6.041  0.0116 -0.0392 -0.0434
 5981W        W 6845   7.102   6.223   2.719 -0.2381 -0.2020  0.0263
 5982W        W 6846  19.433   8.072   6.483 -0.0459  0.1679 -0.0838
 5983W        W 6847  25.664  23.980   2.230  0.1952 -0.1108 -0.0126
 5984W        W 6848   7.855  10.931   6.745 -0.0647  0.1068 -0.2569
 5985W        W 6849  17.074  17.791   7.543 -0.0181 -0.1459  0.0732
 5986W        W 6850  15.273  23.135   8.589 -0.1221  0.1019  0.2208
 5987W        W 6851  23.275   4.477  15.390 -0.0636 -0.0917  0.2801
 5988W        W 6852  12.169   7.735  19.904 -0.1829  0.1824 -0.1540
 5989W        W 6853   5.613   6.391   4.615 -0.2561  0.1968  0.0484
 5990W        W 6854  27.860   5.361  23.361  0.0228 -0.3396 -0.3030
 5991W        W 6855  10.071  18.983   9.949 -0.0526 -0.0404 -0.1895
 5992W        W 6856  27.905   3.891  29.037  0.1167 -0.0054  0.1122
 5993W        W 6857   6.987  19.436   6.008 -0.1503 -0.0956  0.1092
 5994W        W 6858   0.236  14.537   3.738 -0.0486  0.1674 -0.2048
 5995W        W 6859  13.933  23.213  26.037 -0.1964 -0.1342 -0.0706
 5996W        W 6860  19.264  25.842  23.546  0.1634 -0.1546  0.0159
 5997W        W 6861  15.373  28.927  16.665 -0.0647 -0.0282  0.0548
 5998W        W 6862  17.451   3.199  19.477  0.0167  0.0270 -0.0752
 5999W        W 6863   3.799   7.557   5.623 -0.2065 -0.0908 -0.2177
 6000W        W 6864   0.550  24.941  24.833  0.0805 -0.0342  0.0491
 6001W        W 6865   1.021  20.221  26.953 -0.0340  0.2926  0.0454
 6002W        W 6866  27.507  15.953  21.907 -0.4012  0.3567  0.0656
 6003W        W 6867  17.091  21.657  25.488 -0.0047  0.2154 -0.0208
 6004W        W 6868   2.275  15.338  25.151 -0.0825  0.0726  0.1231
 6005W        W 6869   6.097  25.242  24.167  0.2448 -0.1472  0.5129
 6006W        W 6870   5.780  26.218  28.564 -0.1329 -0.0675 -0.0544
 6007W        W 6871  27.262  20.185  17.589  0.0361 -0.1787 -0.2412
 6008W        W 6872   4.636  26.650  23.866 -0.1173  0.2413 -0.0940
 6009W        W 6873  27.212   3.984   8.898 -0.1731  0.0521  0.0375
 6010W        W 6874   4.904  10.710   5.441 -0.0441 -0.2067  0.2767
 6011W        W 6875   2.246  25.860   0.912  0.0206 -0.0418  0.5784
 6012W        W 6876   2.043  28.898   2.689 -0.0905 -0.1909 -0.1634
 6013W        W 6877   6.552  11.485  28.161 -0.1203 -0.0412 -0.0132
 6014W        W 6878   6.270  23.715   3.173 -0.2464  0.2615  0.0287
 6015W        W 6879   5.008  21.049  14.236  0.1895  0.0544 -0.0278
 6016W        W 6880  19.126  15.875  26.284 -0.1849  0.1724 -0.0746
 6017W        W 6881  23.604  28.540  14.780 -0.1469  0.1484 -0.4017
 6018W        W 6882  12.014  26.543  25.616 -0.1665  0.0153 -0.1959
 6019W        W 6883  15.907  25.358   2.360  0.1520  0.1673  0.2486
 6020W        W 6884  20.308   8.895   3.117 -0.0754 -0.1430 -0.0062
 6021W        W 6885   3.218   2.694  12.434  0.2982  0.0838 -0.2812
 6022W        W 6886  10.897  23.299  22.744 -0.1498  0.0879  0.1097
 6023W        W 6887   7.509  19.566  22.905  0.0041 -0.1485 -0.0383
 6024W        W 6888   7.694  14.954  15.933  0.2561  0.2187  0.0523
 6025W        W 6889  23.922  20.357  14.698 -0.3092  0.0941  0.0173
 6026W        W 6890   0.663  23.264  24.286  0.1771 -0.0979 -0.0568
 6027W        W 6891   6.804  11.094  22.251 -0.2545  0.0728  0.1590
 6028W        W 6892   2.211  16.283  18.591  0.0262  0.0367 -0.1430
 6029W        W 6893   7.738   5.599  17.188  0.1397  0.0599 -0.1954
 6030W        W 6894   3.752  13.717  22.100  0.1993  0.0941  0.0427
 6031W        W 6895  17.464   1.075  21.855 -0.2659 -0.1391 -0.1048
 6032W        W 6896   9.586   0.997  29.083  0.3328  0.0972 -0.1713
 6033W        W 6897  12.464  13.358  17.696  0.0969 -0.0210  0.3227
 6034W        W 6898  17.841  24.817  20.740  0.1360 -0.1726  0.2367
 6035W        W 6899  24.058  18.778  20.944 -0.0253 -0.1762 -0.0368
 6036W        W 6900   4.769  15.709   5.029  0.1798  0.0481  0.2136
 6037W        W 6901   5.219  23.175   0.938  0.0013 -0.3211 -0.1661
 6038W        W 6902   4.302  10.210  12.054  0.1672  0.0371  0.0946
 6039W        W 6903  19.932  27.309  12.128 -0.0070  0.1560 -0.1402
 6040W        W 6904  27.139  11.057   7.796  0.2844  0.0569  0.0138
 6041W        W 6905  10.088  27.984  15.941  0.2080  0.2438 -0.2100
 6042W        W 6906  27.512  14.469   8.074  0.0043 -0.0092  0.1725
 6043W        W 6907   0.779  18.917  14.221  0.0549  0.0271 -0.0474
 6044W        W 6908   5.358  27.784  19.436  0.4400 -0.3175 -0.1266
 6045W        W 6909  23.089  10.529   8.703 -0.2458  0.0067  0.0836
 6046W        W 6910   5.815   8.947   7.368 -0.1412 -0.1094 -0.1229
 6047W        W 6911   9.667   8.766   1.712 -0.2162 -0.1997  0.1111
 6048W        W 6912  15.968  16.970   2.331  0.2117  0.1150 -0.1497
 6049W        W 6913  17.054   0.178  26.572 -0.0382  0.0468  0.0651
 6050W        W 6914  23.220   4.988   7.888 -0.3512  0.3220  0.2965
 6051W        W 6915  26.970  25.095  12.518 -0.0030  0.0167 -0.2723
 6052W        W 6916  24.828  13.116  23.326  0.2338 -0.1166 -0.0165
 6053W        W 6917   2.252   8.571  20.584  0.0633 -0.0193  0.0917
 6054W        W 6918  14.168   3.148  12.765  0.2761  0.1076  0.3523
 6055W        W 6919   1.232   8.758  25.848  0.0615 -0.1385  0.2510
 6056W        W 6920  19.809   9.613  23.560 -0.0032  0.0104 -0.3104
 6057W        W 6921  29.070  29.117  17.490 -0.1077  0.1318 -0.0296
 6058W        W 6922  26.284   7.375  18.061  0.0333  0.2290 -0.2904
 6059W        W 6923   4.755  23.003  24.859 -0.3909 -0.4245 -0.3890
 6060W        W 6924   4.387   8.994  23.681  0.3805  0.1666 -0.0921
 6061W        W 6925  24.305  20.324  21.842  0.1894 -0.2280 -0.0977
 6062W        W 6926  24.861  14.723  26.752  0.0292 -0.1631 -0.0116
 6063W        W 6927  27.553  17.341  21.667  0.1718  0.1366 -0.0248
 6064W        W 6928  25.702  14.656  21.308  0.3296  0.1265 -0.1099
 6065W        W 6929  10.344  20.331   1.801  0.0668  0.0665  0.1190
 6066W        W 6930   4.612   6.792  22.098 -0.3485 -0.0213  0.0392
 6067W        W 6931  27.567   0.456  16.386 -0.0877  0.2229  0.2744
 6068W        W 6932   1.690   7.804  16.193  0.1898  0.1619  0.0254
 6069W        W 6933   9.838  15.212   7.663 -0.2203  0.0422  0.1921
 6070W        W 6934  26.139   7.872  26.764 -0.1223 -0.2328  0.2353
 6071W        W 6935  23.335  16.695   6.834 -0.2622  0.2877  0.1494
 6072W        W 6936  23.086   5.831   2.536  0.0986  0.3678  0.0688
 6073W        W 6937  21.661  16.850   0.184 -0.4440 -0.3134 -0.0951
 6074W        W 6938  28.887  20.576  25.864 -0.0981 -0.1446 -0.4761
 6075W        W 6939   5.629  26.028  22.675 -0.2016  0.1171  0.0769
 6076W        W 6940  29.142  13.552  28.827  0.3025  0.0680  0.0759
 6077W        W 6941   4.766   2.085  27.640 -0.2681  0.1407  0.0189
 6078W        W 6942  10.987  13.822  21.282  0.0429 -0.1491 -0.0557
 6079W        W 6943   7.463   9.132  18.268  0.0402 -0.0551  0.0496
 6080W        W 6944  27.936  19.116  26.081  0.2032 -0.3063 -0.1026
 6081W        W 6945  13.950   6.731  12.187 -0.2969 -0.0138  0.1650
 6082W        W 6946  12.448   7.609   6.859 -0.1504 -0.2957  0.0302
 6083W        W 6947   5.056  10.833  19.115  0.3152 -0.0030  0.2779
 6084W        W 6948  10.970  26.763  19.505 -0.0059  0.0573  0.1222
 6085W        W 6949  12.894  10.748  12.291  0.0573  0.0877  0.3840
 6086W        W 6950   1.774   2.373  23.149 -0.1422  0.3749  0.0466
 6087W        W 6951  25.557  10.036  16.918 -0.0106 -0.1978 -0.0555
 6088W        W 6952   2.307  23.576   4.954  0.1385 -0.1948  0.1571
 6089W        W 6953   2.028  24.221   3.343  0.2016  0.0017 -0.0549
 6090W        W 6954  28.368  15.007  14.797 -0.0454  0.0658  0.1692
 6091W        W 6955  16.359  28.947   3.287  0.0170  0.3437 -0.3869
 6092W        W 6956  16.076  11.687  24.828 -0.2891  0.0401 -0.0791
 6093W        W 6957  23.121  21.787   7.667 -0.1001 -0.0154 -0.0741
 6094W        W 6958  21.457   0.293  22.540 -0.3476  0.2525 -0.1020
 6095W        W 6959  22.997  28.827  25.242  0.0458  0.0261 -0.0771
 6096W        W 6960  24.518  20.114  22.615 -0.3316 -0.0363 -0.1921
 6097W        W 6961  17.364  14.343  10.653 -0.5109  0.2115  0.0175
 6098W        W 6962  14.388  25.878  22.526  0.1100  0.2531  0.1640
 6099W        W 6963  12.759  24.082   5.838 -0.0021 -0.0412 -0.0983
 6100W        W 6964   0.367   6.261  18.110  0.0226  0.0519  0.1708
 6101W        W 6965  10.053   8.036  28.149  0.1772 -0.2237  0.4657
 6102W        W 6966  20.238   3.801  26.916 -0.1433 -0.1927 -0.1526
 6103W        W 6967   5.055   1.525  15.673 -0.0359 -0.1352  0.0731
 6104W        W 6968   1.597  23.678   7.244  0.3763 -0.0473 -0.2385
 6105W        W 6969  20.642  28.247  28.936 -0.0573 -0.0062 -0.0230
 6106W        W 6970  27.129   8.179   2.659  0.0213 -0.0290 -0.2098
 6107W        W 6971  27.977  10.623  23.728 -0.2077 -0.1158 -0.0581
 6108W        W 6972   5.127  23.637  14.836 -0.2445  0.1549 -0.0728
 6109W        W 6973   1.793   1.935  10.647 -0.0688 -0.0271  0.0990
 6110W        W 6974   1.190   1.995  23.664  0.1266  0.0289  0.2679
 6111W        W 6975   8.512   4.980  16.316  0.1059 -0.3351  0.3202
 6112W        W 6976  23.754  23.300  16.078 -0.1391 -0.3482  0.1787
 6113W        W 6977  27.758  20.745  26.279 -0.1210  0.1850  0.3165
 6114W        W 6978  27.907   9.034  29.051 -0.2542  0.1582  0.0262
 6115W        W 6979  22.696  23.155  19.430 -0.1992 -0.1235 -0.2336
 6116W        W 6980  25.072   3.035  12.567 -0.3213 -0.0141 -0.0065
 6117W        W 6981  13.996   7.203   0.197  0.1883  0.0338  0.2814
 6118W        W 6982  24.192   5.914  27.378 -0.0421 -0.3238  0.0664
 6119W        W 6983   5.828  21.301  28.944  0.3773 -0.2374 -0.0376
 6120W        W 6984   9.364   2.678   8.736  0.2047 -0.4385  0.1030
 6121W        W 6985  13.471  25.253  28.430 -0.0632  0.0023 -0.0418
 6122W        W 6986   9.543  15.143  20.687 -0.0805  0.0496  0.0317
 6123W        W 6987   0.648   2.065  13.025 -0.2534 -0.0612  0.0347
 6124W        W 6988  28.031   9.031  15.647  0.0566 -0.0726 -0.1845
 6125W        W 6989  18.225  26.804  11.278 -0.2713 -0.0267  0.0445
 6126W        W 6990   8.428   6.191  15.852 -0.0210 -0.0101  0.0144
 6127W        W 6991  19.317   0.409  28.304  0.3769 -0.1190  0.0395
 6128W        W 6992  25.757   8.491  19.990  0.0133 -0.1096 -0.3266
 6129W        W 6993  14.587   7.338   3.312  0.2016 -0.2622 -0.1342
 6130W        W 6994  17.769  10.928   7.598  0.1433 -0.0024  0.5273
 6131W        W 6995  29.064  27.002  28.415 -0.0695 -0.2131  0.0429
 6132W        W 6996   1.700  23.686  20.492 -0.1600 -0.3234  0.3297
 6133W        W 6997   8.176   9.113   4.037  0.0354  0.1223 -0.3576
 6134W        W 6998  25.126   3.790  10.098 -0.1934 -0.1274  0.1069
 6135W        W 6999   9.270  21.105  11.987  0.0371 -0.4718  0.2723
 6136W        W 7000   3.066  12.820   7.506 -0.1611  0.0597  0.0073
 6137W        W 7001  14.833   7.045  16.354  0.0311 -0.1386 -0.1418
 6138W        W 7002   1.103   3.429  28.557  0.0301 -0.0229 -0.0221
 6139W        W 7003   0.585   4.424   2.960  0.0816 -0.1988  0.0468
 6140W        W 7004   0.467  18.813  15.334  0.1938 -0.0872  0.0862
 6141W        W 7005  17.423  14.080  20.695  0.1245 -0.3001 -0.0657
 6142W        W 7006  17.219  18.636   6.415  0.2175 -0.0557 -0.0707
 6143W        W 7007  17.080   3.121   0.732 -0.0258 -0.2517  0.1336
 6144W        W 7008   7.749   6.403  17.739 -0.0031  0.1634  0.2565
 6145W        W 7009  21.967  18.964  25.181  0.1693 -0.1434  0.2670
 6146W        W 7010  13.056  11.661  11.671  0.1769 -0.0104  0.0616
 6147W        W 7011  28.230  16.006  12.908 -0.0333 -0.1176  0.0072
 6148W        W 7012  15.112   4.564   0.808 -0.0685 -0.2951  0.1119
 6149W        W 7013   8.629  27.624  24.821  0.1191  0.1420  0.0097
 6150W        W 7014  20.363  26.722   4.625  0.3488 -0.3344 -0.1065
 6151W        W 7015  14.910   6.798   5.567  0.0805 -0.2185 -0.1870
 6152W        W 7016  13.920   3.748   8.705 -0.4463 -0.1190  0.2323
 6153W        W 7017  26.413   4.653  26.136  0.0894 -0.2544  0.3056
 6154W        W 7018   4.415  14.875  27.736  0.4340  0.0764  0.1078
 6155W        W 7019   0.629  28.474  11.359 -0.0704 -0.1163  0.0604
 6156W        W 7020   0.441  20.509  17.427 -0.0220  0.1233  0.0116
 6157W        W 7021   3.773   3.716  21.351 -0.2048  0.1121  0.1658
 6158W        W 7022  27.411  25.102   5.527  0.3313 -0.1383 -0.1737
 6159W        W 7023  22.195  24.824   4.525 -0.0481 -0.2871 -0.2916
 6160W        W 7024   0.015  25.351  22.364 -0.2344 -0.0227 -0.0232
 6161W        W 7025   7.307   1.600  16.930 -0.2079 -0.0334 -0.1540
 6162W        W 7026  25.012   8.923   0.022  0.1423  0.1013 -0.0603
 6163W        W 7027   1.908  19.471  26.511  0.3117  0.0960  0.0629
 6164W        W 7028   7.894  25.636  10.112  0.1869  0.2642 -0.0065
 6165W        W 7029  11.204  12.628   5.814 -0.0592 -0.3368 -0.1548
 6166W        W 7030  26.944   7.352  24.835  0.1159  0.0489 -0.2546
 6167W        W 7031   4.840  27.411  22.076  0.0481 -0.2848  0.1313
 6168W        W 7032   3.064  17.977   7.938 -0.1636  0.1331  0.1491
 6169W        W 7033  19.879  26.375  22.910 -0.4181  0.0185 -0.0141
 6170W        W 7034   0.563   4.030  28.980 -0.0784  0.0087 -0.0602
 6171W        W 7035   1.419  15.508   1.308  0.2445 -0.3728  0.2020
 6172W        W 7036   5.580  22.814  15.729  0.0130  0.0193 -0.1840
 6173W        W 7037  21.438   4.337  15.111 -0.2436  0.1229 -0.3346
 6174W        W 7038   2.203  22.978  16.213  0.1357 -0.0664 -0.0929
 6175W        W 7039  15.380  14.538  26.588  0.0277  0.0496  0.0119
 6176W        W 7040   5.405   0.683   4.191  0.3286  0.0407  0.1068
 6177W        W 7041   5.592   0.146  14.239  0.0715 -0.1421 -0.0348
 6178W        W 7042  12.997   4.399  17.354  0.0934  0.1247 -0.1249
 6179W        W 7043  14.421  19.283  20.114  0.1536  0.0001  0.0143
 6180W        W 7044   4.071   1.838  24.868  0.0056 -0.0285  0.2661
 6181W        W 7045  15.673  22.138  24.867  0.0606 -0.1334  0.1543
 6182W        W 7046  11.215  21.593  25.011 -0.0301 -0.0449  0.0918
 6183W        W 7047  28.817  26.542  10.506  0.1342  0.2278  0.0610
 6184W        W 7048   3.646   1.338  28.732 -0.0196  0.1026  0.0197
 6185W        W 7049  15.696   1.732  24.489 -0.1140  0.0857  0.2329
 6186W        W 7050  19.709  27.895   3.846 -0.0890  0.1989  0.1068
 6187W        W 7051   9.012   7.048   3.441 -0.0589 -0.2929  0.0770
 6188W        W 7052   7.202  26.943  27.504 -0.0632 -0.1159  0.0742
 6189W        W 7053  16.551  10.295  18.274 -0.1611  0.2151 -0.0922
 6190W        W 7054  14.620  17.248  27.079  0.2120  0.2208 -0.0156
 6191W        W 7055   1.537  14.357  21.111 -0.0161 -0.0467  0.0718
 6192W        W 7056  14.369  10.942  14.914 -0.1484  0.1562  0.0083
 6193W        W 7057  16.442   1.565  25.229 -0.1428 -0.1717 -0.2747
 6194W        W 7058   8.396  11.687  12.611 -0.0693 -0.3255  0.1041
 6195W        W 7059   3.207  17.129   1.440 -0.0149 -0.1072 -0.0781
 6196W        W 7060   0.574   5.845   7.761  0.1856 -0.0202  0.3795
 6197W        W 7061  21.250   3.768  27.187 -0.0216  0.0227  0.1019
 6198W        W 7062   5.647   8.182  28.786 -0.1125  0.1645 -0.0459
 6199W        W 7063   6.464  23.169   4.954 -0.1469 -0.3544  0.0574
 6200W        W 7064   0.197  26.272   0.555  0.1028  0.2131  0.0863
 6201W        W 7065  25.432  19.565  25.220 -0.0605  0.0710  0.1572
 6202W        W 7066  23.549   5.427  11.004 -0.3157  0.0739  0.0642
 6203W        W 7067   0.642  12.667  13.212 -0.0686  0.0135 -0.1875
 6204W        W 7068  28.851   9.614  18.843  0.1388 -0.4889  0.2425
 6205W        W 7069   6.196   2.390  23.768  0.0950  0.3099  0.0463
 6206W        W 7070   1.838  10.969  10.496 -0.1805  0.1851 -0.0700
 6207W        W 7071  10.957  23.543  21.480 -0.0599  0.3544 -0.0921
 6208W        W 7072  18.996   4.667  17.834  0.3656 -0.0051  0.0918
 6209W        W 7073  17.596   1.503  25.237 -0.1891  0.0599  0.1284
 6210W        W 7074   1.697  13.853  13.332  0.1195  0.0154 -0.0244
 6211W        W 7075   2.855  25.767   5.140  0.1328  0.3183  0.1019
 6212W        W 7076   1.273  27.031   4.160  0.3903 -0.1719  0.2413
 6213W        W 7077   0.129   3.309  26.757 -0.1661  0.2180 -0.0498
 6214W        W 7078  23.643   3.888  11.053 -0.0834 -0.0679  0.0982
 6215W        W 7079  20.637  24.298  24.483 -0.2611  0.1310  0.0010
 6216W        W 7080   7.943  27.886  16.002  0.2118  0.0115  0.1741
 6217W        W 7081   1.689  12.192  23.230 -0.2544 -0.3209 -0.0944
 6218W        W 7082   5.121  29.080  18.801 -0.1422 -0.3970 -0.1545
 6219W        W 7083  15.861  14.563  26.879  0.2369  0.0561  0.0739
 6220W        W 7084   0.421   4.602   9.058 -0.1802 -0.3208 -0.0553
 6221W        W 7085  21.444  11.196  28.556 -0.2083 -0.0650  0.1594
 6222W        W 7086   7.188  18.512   1.704 -0.0471  0.2844 -0.1574
 6223W        W 7087  14.475  15.331   1.086  0.1805 -0.0348 -0.2929
 6224W        W 7088  28.840  12.948  28.323 -0.0336 -0.5937  0.0107
 6225W        W 7089  18.450  10.469   1.444  0.1446 -0.2215  0.1054
 6226W        W 7090  28.942   4.946   4.364 -0.2584  0.0031  0.1582
 6227W        W 7091  13.368   4.364  24.778  0.1783  0.2415  0.1496
 6228W        W 7092  25.433  14.307  22.749  0.0513  0.1017  0.0557
 6229W        W 7093  23.470   6.614  14.058 -0.0265 -0.2941  0.0945
 6230W        W 7094  20.892  25.814  27.245 -0.0962  0.0462  0.1820
 6231W        W 7095  25.090  27.453  16.610  0.1066  0.1781 -0.2404
 6232W        W 7096   8.352   7.618   3.595 -0.0435 -0.1691 -0.0813
 6233W        W 7097  21.673  26.055  10.603 -0.2360  0.1521 -0.3102
 6234W        W 7098   6.915  10.690  16.749  0.2157 -0.0646 -0.0181
 6235W        W 7099  22.468  14.092   0.230 -0.0496 -0.3517  0.0786
 6236W        W 7100  27.208  13.651  25.482  0.1470 -0.1048 -0.0394
 6237W        W 7101   0.964  14.491  21.397  0.0045 -0.0402 -0.0438
 6238W        W 7102  12.082  12.353   4.215 -0.2377 -0.1099  0.0497
 6239W        W 7103  12.317  29.102  15.115 -0.1178  0.1254  0.3802
 6240W        W 7104   3.381   9.322   6.575 -0.1736 -0.1037 -0.0707
 6241W        W 7105  28.522   3.204   1.014  0.1168 -0.0014 -0.5607
 6242W        W 7106  19.469  11.001  12.308 -0.0103 -0.1193  0.0064
 6243W        W 7107  14.735  25.582  25.505 -0.2307  0.0044 -0.0050
 6244W        W 7108  27.850   6.753   9.278  0.0288  0.0406  0.0453
 6245W        W 7109  21.108  18.412  20.899 -0.0581 -0.0820 -0.1728
 6246W        W 7110  25.816  10.537  19.975  0.0826  0.2608  0.0533
 6247W        W 7111   6.976  11.419  19.747  0.2276  0.0800  0.0463
 6248W        W 7112  23.682  11.693  28.523 -0.0663  0.0290  0.0058
 6249W        W 7113  24.144   7.207   6.312  0.1644 -0.4316  0.0174
 6250W        W 7114  23.269  24.137   8.033 -0.1483 -0.2186  0.2482
 6251W        W 7115   6.443   6.975   2.513  0.1038  0.0438  0.1924
 6252W        W 7116  18.803   4.237  23.121  0.0401  0.4665  0.4301
 6253W        W 7117   8.118  25.468  27.280  0.3308  0.0399 -0.0857
 6254W        W 7118  10.552  16.755  22.343 -0.2729  0.1870 -0.0324
 6255W        W 7119  12.136   1.660  13.871 -0.1468  0.0614  0.0375
 6256W        W 7120   6.038  16.324   7.439 -0.4478 -0.2829 -0.1485
 6257W        W 7121  17.551  12.233  19.943 -0.1811 -0.1611  0.0703
 6258W        W 7122  27.521   7.791  26.506  0.2021 -0.3045  0.4905
 6259W        W 7123  28.855   2.919  16.702 -0.0906 -0.0814  0.1995
 6260W        W 7124  11.505   4.372  12.335 -0.2088  0.1511 -0.0120
 6261W        W 7125  11.378  11.488  17.833  0.0081  0.2635 -0.0595
 6262W        W 7126   3.061   5.419   5.333 -0.0429  0.1723  0.2738
 6263W        W 7127  16.144   2.851  25.726  0.1056 -0.1099 -0.2327
 6264W        W 7128   4.619   2.575  17.854 -0.0564 -0.0846 -0.1994
 6265W        W 7129   1.114  28.534  21.835  0.5707 -0.0551  0.0647
 6266W        W 7130  21.815   4.683  16.571 -0.2631 -0.1641 -0.0144
 6267W        W 7131  10.003  19.606  21.833 -0.0523 -0.0372  0.1573
 6268W        W 7132  16.576   9.031   4.533  0.0657  0.0326  0.1540
 6269W        W 7133   3.681  24.348  28.196  0.0123 -0.1165  0.0567
 6270W        W 7134   6.117  23.361   0.455  0.0669 -0.2286  0.0098
 6271W        W 7135   8.092  27.381  17.683  0.0667 -0.0335 -0.1573
 6272W        W 7136   2.700  17.741   2.047  0.0391  0.3765  0.0356
 6273W        W 7137  25.696  28.966  18.727  0.0734  0.0822 -0.0090
 6274W        W 7138   9.845  27.800  17.351  0.1208  0.1484 -0.0243
 6275W        W 7139  19.212  13.677   7.175 -0.0096  0.1284 -0.0157
 6276W        W 7140  16.452   0.274  21.353 -0.2023 -0.0191 -0.3414
 6277W        W 7141   8.707  28.769   0.001 -0.1504  0.0574 -0.0439
 6278W        W 7142  17.805  10.278  11.908  0.1463 -0.0659  0.1705
 6279W        W 7143   5.822  20.648   3.064 -0.1768 -0.2310 -0.1965
 6280W        W 7144  22.063   0.954  15.292 -0.2030 -0.0534 -0.1931
 6281W        W 7145  20.414  14.743  15.271  0.0919  0.0187 -0.1350
 6282W        W 7146  11.644   0.075   5.919  0.0873  0.0822 -0.0388
 6283W        W 7147   1.609  18.721   5.424 -0.4186 -0.1166  0.2260
 6284W        W 7148  17.005  28.948  28.352  0.0158 -0.1185  0.0210
 6285W        W 7149  13.603   0.895  23.380  0.2837  0.1457 -0.2295
 6286W        W 7150  27.458  16.164  24.866 -0.5336  0.0913 -0.0108
 6287W        W 7151  21.396   9.638  10.565  0.2971 -0.1297  0.2498
 6288W        W 7152  13.368  26.902  23.205  0.3617  0.2224  0.2046
 6289W        W 7153   2.094   7.410   9.697  0.2626  0.0828  0.1069
 6290W        W 7154   0.676  26.936  23.199  0.0210  0.2006  0.1705
 6291W        W 7155  15.440  18.007   8.703 -0.0362 -0.0338 -0.1577
 6292W        W 7156  25.166  12.642   8.859 -0.1396 -0.1864  0.1516
 6293W        W 7157   0.835   0.218   4.357  0.2460  0.3352 -0.1458
 6294W        W 7158  25.581   2.664   0.959  0.1501 -0.1110 -0.0361
 6295W        W 7159  11.029   4.929  21.710  0.1052  0.0956 -0.1414
 6296W        W 7160  25.173   4.817  19.254 -0.0389 -0.2105 -0.0806
 6297W        W 7161   5.925   1.095  16.866 -0.1889 -0.0508  0.1378
 6298W        W 7162  24.501  17.576  19.871  0.0781 -0.0033 -0.0075
 6299W        W 7163   2.022  16.519  27.007 -0.0636 -0.2792 -0.1724
 6300W        W 7164  25.353  19.765  22.927 -0.0579 -0.0534  0.1629
 6301W        W 7165  12.867  28.161  17.116  0.0466  0.1515  0.2414
 6302W        W 7166   5.162  27.774   2.806  0.3006  0.1489  0.0521
 6303W        W 7167  15.479   7.801  20.749  0.1301 -0.0155 -0.0207
 6304W        W 7168  24.167  20.632  26.486  0.2039 -0.0995  0.0321
 6305W        W 7169  11.787  22.040  22.521  0.1407 -0.0944  0.2438
 6306W        W 7170   0.016   7.497   6.769 -0.0212  0.1402 -0.0872
 6307W        W 7171  13.164  27.302   9.293 -0.3823  0.2423 -0.1513
 6308W        W 7172   9.039  24.253  15.274  0.1245  0.1178  0.4273
 6309W        W 7173  22.133   8.788   8.099 -0.0592 -0.1511 -0.0275
 6310W        W 7174   0.391  27.883  15.842 -0.1755  0.0785  0.2963
 6311W        W 7175  11.797  14.449   2.561  0.0391 -0.1661 -0.0153
 6312W        W 7176  26.816  12.010   6.630  0.0251 -0.1877 -0.0451
 6313W        W 7177   4.866  23.767  10.630 -0.1019  0.2130 -0.1840
 6314W        W 7178  23.164  15.700   8.031  0.3235  0.1794 -0.0305
 6315W        W 7179  25.961  10.984  10.550 -0.2188  0.1649 -0.0682
 6316W        W 7180   0.118  18.908   1.786  0.0405 -0.1939 -0.0190
 6317W        W 7181  13.006  19.830  22.867  0.4112  0.0450  0.2313
 6318W        W 7182   8.921   0.881  27.029  0.1544 -0.0594 -0.1077
 6319W        W 7183  27.090   4.364  27.882  0.0361 -0.0058  0.0162
 6320W        W 7184  16.061   9.316  14.993 -0.1482 -0.0094  0.1399
 6321W        W 7185   4.236  15.240  25.066 -0.0242  0.0912 -0.0850
 6322W        W 7186   8.385  15.214  23.340 -0.0215 -0.2965  0.1634
 6323W        W 7187  25.886  26.303  16.157  0.0380 -0.3502 -0.0410
 6324W        W 7188   1.219  13.920  11.783  0.1231 -0.2008  0.0825
 6325W        W 7189  20.003  20.266  15.848  0.0218  0.0146  0.0962
 6326W        W 7190  27.920   1.579  25.652 -0.4601 -0.1274  0.1239
 6327W        W 7191  28.088  17.867  16.412 -0.2039  0.0658  0.0643
 6328W        W 7192  20.532  14.415  22.031 -0.1914  0.0820  0.0173
 6329W        W 7193   4.799  29.081  27.383 -0.2017  0.0510 -0.0607
 6330W        W 7194  26.458  19.594  28.986 -0.1158 -0.2178  0.1542
 6331W        W 7195  24.847  20.922  18.621  0.0521  0.2859  0.4259
 6332W        W 7196  28.124  19.642   0.143 -0.3652  0.0343 -0.1625
 6333W        W 7197   3.479   9.229  12.778  0.0475 -0.2670  0.0547
 6334W        W 7198  23.811   9.737   3.311  0.1565 -0.0120 -0.2080
 6335W        W 7199   8.268  26.833  21.983  0.1713 -0.0416  0.0736
 6336W        W 7200   4.195   6.239  28.019  0.3951  0.0687  0.2559
 6337W        W 7201  20.355  20.344  22.700  0.0266 -0.4384  0.2465
 6338W        W 7202   4.762  28.336  10.081 -0.0861  0.1896  0.1222
 6339W        W 7203  28.485   0.444  27.452  0.0040 -0.3921  0.1143
 6340W        W 7204  28.002  13.191  18.285  0.0387 -0.1324 -0.1964
 6341W        W 7205  26.323  25.098   3.207  0.1803  0.1066  0.1486
 6342W        W 7206   6.533   0.651   6.447 -0.1285  0.3865 -0.1287
 6343W        W 7207  21.672  22.183  26.128 -0.1103  0.0458 -0.0234
 6344W        W 7208   1.657  25.289   3.125 -0.1255  0.2262  0.0049
 6345W        W 7209  18.592   1.956  12.642 -0.1281 -0.0774 -0.0802
 6346W        W 7210   4.508   2.335   4.835  0.0170 -0.0605  0.1152
 6347W        W 7211   4.248  26.678  12.858  0.0838  0.2305  0.1484
 6348W        W 7212   1.485  17.122  21.903  0.1004  0.1602  0.1367
 6349W        W 7213   3.916  11.987  20.925  0.2366 -0.1992 -0.1580
 6350W        W 7214  22.185  25.690  12.688  0.1151 -0.3152 -0.1232
 6351W        W 7215  11.552  19.346   3.180  0.0770 -0.0637 -0.2725
 6352W        W 7216  26.127  28.829  23.484  0.0589  0.2576  0.0825
 6353W        W 7217   5.981  23.724   6.842  0.2700 -0.0614  0.0761
 6354W        W 7218  23.770  21.472  27.031 -0.1510  0.2496 -0.1226
 6355W        W 7219  22.933  15.887  25.265  0.0828  0.1507  0.0988
 6356W        W 7220   6.315  11.195  20.291 -0.1216  0.3748 -0.2765
 6357W        W 7221   1.995  14.855   0.048 -0.2831 -0.1542  0.0540
 6358W        W 7222   2.525   6.570  27.138 -0.0597  0.2533 -0.1303
 6359W        W 7223  16.737  12.003   2.663  0.0495  0.1050 -0.1658
 6360W        W 7224  13.965   1.067   7.981 -0.0665  0.1817 -0.1978
 6361W        W 7225   9.486  22.257   7.782 -0.0993 -0.2122  0.0953
 6362W        W 7226  17.014   8.382   6.996 -0.2616 -0.1327  0.0994
 6363W        W 7227  12.412  19.626   6.834  0.0628 -0.1601 -0.0522
 6364W        W 7228   8.485   0.882  13.108  0.2739 -0.3365  0.3973
 6365W        W 7229  12.743  18.587   4.857  0.1396 -0.0163  0.0240
 6366W        W 7230  10.242  10.381  17.311  0.1347  0.0703  0.0725
 6367W        W 7231  12.183  10.109  15.600 -0.2468  0.2084  0.2667
 6368W        W 7232  14.617  24.383   9.652  0.3898  0.1331 -0.1196
 6369W        W 7233  25.723  24.739  12.969  0.0900  0.2290  0.0967
 6370W        W 7234  28.633   3.200   5.952 -0.2712  0.1581  0.1232
 6371W        W 7235   5.760  12.696  13.716  0.0365 -0.0332  0.2156
 6372W        W 7236  26.875  26.596  11.449 -0.0904  0.1364  0.0311
 6373W        W 7237   9.592   9.099  16.007 -0.1532  0.3935  0.2653
 6374W        W 7238  25.036  23.317   4.408  0.2469 -0.0755  0.4217
 6375W        W 7239   1.323  14.889  10.765  0.0553 -0.2382  0.2481
 6376W        W 7240  18.215  20.739   5.633 -0.0375 -0.2207 -0.0318
 6377W        W 7241  12.998  27.781  27.061  0.1361  0.1831 -0.0543
 6378W        W 7242  20.422  13.643  29.030  0.0778 -0.2003  0.1684
 6379W        W 7243  11.415  25.594  25.683 -0.1300  0.2746  0.0719
 6380W        W 7244   0.547   7.199  28.941  0.0948  0.0300  0.2349
 6381W        W 7245  23.153  17.353  22.812  0.0772  0.1508 -0.2184
 6382W        W 7246  15.098  25.758  23.487 -0.0602  0.0371 -0.0491
 6383W        W 7247   3.449   9.833  23.805  0.0001  0.0984  0.3502
 6384W        W 7248  26.218   4.841  27.091  0.1847 -0.0592  0.0330
 6385W        W 7249  29.017  25.197  27.291 -0.2719 -0.0343  0.1092
 6386W        W 7250  20.306   0.232  27.269 -0.4026  0.2594  0.2810
 6387W        W 7251  15.660  26.052  28.204  0.0052  0.2190 -0.0135
 6388W        W 7252  15.237  14.743  19.080  0.1922 -0.1463  0.3612
 6389W        W 7253   8.549  26.043  14.742 -0.1490 -0.2505 -0.1170
 6390W        W 7254   1.573  10.675  16.833  0.1441  0.0254  0.0568
 6391W        W 7255   4.746   8.398  21.295 -0.0963  0.0715  0.0610
 6392W        W 7256  15.713  20.996  26.463 -0.0709  0.0547  0.0709
 6393W        W 7257  26.498  15.026  25.796 -0.7750  0.0706  0.0577
 6394W        W 7258  12.714   2.857   1.535 -0.1407 -0.2219 -0.2251
 6395W        W 7259  20.192  26.939   0.558  0.2035 -0.3488  0.1861
 6396W        W 7260  27.387   3.724  27.202  0.0934 -0.0264 -0.0596
 6397W        W 7261  25.554   8.125  12.790 -0.2099  0.2870 -0.1777
 6398W        W 7262  19.030   1.278   1.524  0.0682  0.2011 -0.1934
 6399W        W 7263   2.874   1.266  24.586  0.0707  0.1779  0.1283
 6400W        W 7264  14.471   8.121   6.321 -0.1038  0.2143  0.0654
 6401W        W 7265  24.938  18.926  22.846  0.1777 -0.0524 -0.1220
 6402W        W 7266   6.531  16.175   7.798 -0.1905  0.0713 -0.3459
 6403W        W 7267  10.685   7.016   6.876  0.0518 -0.0245 -0.0736
 6404W        W 7268   3.124  11.577   5.060 -0.2238 -0.0697  0.0688
 6405W        W 7269   6.051   2.037  22.888 -0.1071 -0.3215  0.2296
 6406W        W 7270   7.754   7.096   9.991 -0.2967 -0.2939  0.2128
 6407W        W 7271  16.816  25.877  27.062  0.1021 -0.1967  0.0384
 6408W        W 7272  15.694  10.668   9.575  0.0259  0.5099 -0.0756
 6409W        W 7273   9.566   6.138  25.493 -0.1312 -0.1600  0.3118
 6410W        W 7274  24.680  16.710  18.486 -0.2275 -0.4491 -0.1937
 6411W        W 7275  10.194   0.004  21.934 -0.0507  0.0971  0.0333
 6412W        W 7276  28.689  27.830   7.982 -0.1226 -0.1174  0.1866
 6413W        W 7277  28.717   5.595  17.911  0.1421 -0.3349  0.0403
 6414W        W 7278  11.445  18.662  28.937  0.0253  0.1664 -0.1529
 6415W        W 7279  11.839  20.926  24.436  0.2351 -0.2501 -0.0966
 6416W        W 7280   9.151   7.731   2.114 -0.0405  0.2808 -0.1475
 6417W        W 7281  20.749   7.383   9.955  0.1209 -0.1942  0.0526
 6418W        W 7282   4.265  20.025  16.161 -0.0473  0.2586 -0.0214
 6419W        W 7283  13.553   9.407   0.800  0.1193 -0.0965  0.0909
 6420W        W 7284  13.369   1.850  27.571 -0.3312 -0.0229 -0.3605
 6421W        W 7285  21.041  18.489   9.002 -0.0590 -0.2241  0.1113
 6422W        W 7286   3.250  20.264   2.521  0.1120  0.1823 -0.0497
 6423W        W 7287   3.930   6.834   1.566 -0.1075 -0.4133 -0.0819
 6424W        W 7288   9.675  13.629  18.643  0.0117  0.2330 -0.0611
 6425W        W 7289  24.700  22.863  20.820  0.3816 -0.1507 -0.2340
 6426W        W 7290  25.378  25.710  11.649  0.0092 -0.2001 -0.1128
 6427W        W 7291  13.772  18.297   3.153 -0.0542 -0.2265 -0.1037
 6428W        W 7292  10.821  11.090   8.505  0.0444  0.1664  0.0909
 6429W        W 7293   5.649  28.467   7.785  0.0777 -0.0352  0.0549
 6430W        W 7294   3.458  18.755  23.627 -0.1000 -0.2292  0.1629
 6431W        W 7295  26.345   8.357   2.112  0.1056 -0.0274  0.1086
 6432W        W 7296  18.390  26.519  24.029  0.4575  0.0068 -0.0324
 6433W        W 7297  29.063  27.527  12.920  0.1367 -0.1671  0.3278
 6434W        W 7298  28.684   6.053  11.286 -0.1360  0.0040 -0.0204
 6435W        W 7299   3.035  10.297   3.729  0.1014  0.1513  0.3189
 6436W        W 7300  12.559  20.749  19.408  0.0050 -0.0135  0.0701
 6437W        W 7301   4.638   1.533   9.281  0.1625 -0.0207 -0.2782
 6438W        W 7302   7.112   3.413  17.863 -0.1121 -0.1974  0.0067
 6439W        W 7303   2.486   6.441  12.783  0.0242 -0.0888  0.0599
 6440W        W 7304   7.774  22.264  22.872 -0.3340 -0.0198 -0.0545
 6441W        W 7305  12.214   3.779  12.394 -0.0789  0.1666 -0.0854
 6442W        W 7306  12.668   3.973  28.862 -0.0310  0.3271 -0.0154
 6443W        W 7307  27.614  28.952  22.429  0.2533  0.1960 -0.1063
 6444W        W 7308  21.359   6.745   2.545  0.0499 -0.0652  0.0901
 6445W        W 7309  28.095  20.252  18.823 -0.3036 -0.0166 -0.1163
 6446W        W 7310   7.341  19.186  21.592  0.0891  0.2677  0.0176
 6447W        W 7311  23.250  25.314   2.903  0.0771  0.0496  0.1205
 6448W        W 7312   0.940  17.137  20.938  0.0578 -0.3402  0.0966
 6449W        W 7313   4.307   3.806  11.568 -0.0625 -0.0076  0.0297
 6450W        W 7314  11.969  26.596  19.511 -0.1882 -0.1062  0.1238
 6451W        W 7315  23.684  12.432   0.869 -0.1224 -0.3626  0.3697
 6452W        W 7316   4.972  14.717  27.967 -0.0166  0.0373  0.4477
 6453W        W 7317  17.984   6.700  26.493  0.1357  0.2880  0.0615
 6454W        W 7318  21.727   1.992   9.871  0.0247 -0.1827 -0.0643
 6455W        W 7319  21.954  21.468  25.462  0.2381  0.1023 -0.2587
 6456W        W 7320  25.329  17.024   2.988  0.0320 -0.0815 -0.3680
 6457W        W 7321  23.685  16.639  23.692 -0.0005  0.0852 -0.1058
 6458W        W 7322  22.375   0.699  10.700  0.1615 -0.4866 -0.0931
 6459W        W 7323  25.621  24.621   5.880  0.0327  0.0522  0.0254
 6460W        W 7324   8.429  28.890   2.395  0.0604 -0.0816 -0.0426
 6461W        W 7325  19.817  21.122  20.861  0.0077 -0.1237 -0.1906
 6462W        W 7326   5.686   0.347  13.316 -0.1839  0.0960  0.0974
 6463W        W 7327   0.403  12.015  19.895 -0.0568  0.1400 -0.4378
 6464W        W 7328  16.366  12.603   3.217 -0.4412  0.0359 -0.0422
 6465W        W 7329   6.175   7.894  21.926  0.0953  0.0704 -0.2248
 6466W        W 7330   5.457  13.081   2.693  0.0489  0.0951 -0.1422
 6467W        W 7331  16.328  14.739  21.276  0.0538  0.2703  0.2214
 6468W        W 7332   6.180  25.755  11.697  0.0169 -0.1465 -0.1871
 6469W        W 7333   4.876  26.370  23.091 -0.0521 -0.3873 -0.1609
 6470W        W 7334   1.253   4.971  11.837  0.1125 -0.0847  0.0267
 6471W        W 7335  27.905  16.773   0.583  0.1437  0.2145 -0.0165
 6472W        W 7336   5.648  10.443  19.703  0.2571  0.1999 -0.0137
 6473W        W 7337   5.923  19.776  21.558 -0.3478  0.1229 -0.3452
 6474W        W 7338  20.347   1.200  19.264  0.1923  0.1208 -0.0171
 6475W        W 7339  22.981  11.409   7.062  0.1446 -0.0804  0.0403
 6476W        W 7340  22.862  27.591  20.929 -0.0599 -0.0187  0.0462
 6477W        W 7341  14.857  19.680  23.253  0.1511  0.3068 -0.2797
 6478W        W 7342   8.959  12.890  25.404 -0.2217  0.2357 -0.0198
 6479W        W 7343  11.704   5.743  21.263  0.3463  0.1734 -0.1908
 6480W        W 7344  25.396   9.231  12.672  0.0489 -0.2363 -0.1828
 6481W        W 7345  21.209   7.046  11.829 -0.0047 -0.0184 -0.0449
 6482W        W 7346  11.887   7.406   6.813  0.0940 -0.0302 -0.0682
 6483W        W 7347   5.016   7.122   4.090 -0.0379  0.2390  0.2935
 6484W        W 7348   5.836  28.873  14.494  0.2807 -0.0349 -0.0576
 6485W        W 7349  21.874  12.735  24.336  0.1786  0.0350  0.1793
 6486W        W 7350  26.495  28.624  14.979  0.1148 -0.4712 -0.0561
 6487W        W 7351  18.551  14.773   1.669  0.0955  0.1888  0.3739
 6488W        W 7352  27.908  16.888  16.203 -0.3067 -0.0559  0.0994
 6489W        W 7353   3.859   2.680  21.626 -0.0417 -0.1462 -0.0046
 6490W        W 7354  11.392  12.099  10.594 -0.0895 -0.2442 -0.0533
 6491W        W 7355  11.174  25.437  22.031 -0.3366  0.1445  0.3796
 6492W        W 7356  16.067  24.306  25.935  0.0627 -0.0132  0.0974
 6493W        W 7357   8.796   7.641   0.591 -0.2731  0.1079  0.0164
 6494W        W 7358  25.359  14.319  16.124 -0.0781 -0.1091 -0.0285
 6495W        W 7359   7.496  23.839  25.085 -0.3401  0.2808 -0.0326
 6496W        W 7360  17.875  23.722  16.869  0.0578  0.0705  0.0577
 6497W        W 7361  20.772  16.003  24.267  0.1309  0.0977 -0.3109
 6498W        W 7362   0.231   3.695  13.679 -0.1301 -0.0574 -0.2243
 6499W        W 7363  15.884  12.393   5.563 -0.2581 -0.1895  0.0508
 6500W        W 7364   1.074  13.521   9.766 -0.0558 -0.3117  0.1852
 6501W        W 7365  26.126   8.319  27.068 -0.1178 -0.0276  0.1044
 6502W        W 7366   6.648  24.317   1.930 -0.0494  0.2106 -0.0115
 6503W        W 7367  24.701  16.707   2.852 -0.1091 -0.0913 -0.1441
 6504W        W 7368  24.141   5.665  12.832  0.0659  0.0977 -0.1821
 6505W        W 7369   8.317   2.105  14.453  0.2462 -0.1401 -0.0723
 6506W        W 7370  17.528   9.413  17.940  0.0702 -0.1050  0.1513
 6507W        W 7371  19.125  20.781   3.146  0.1385  0.0335 -0.3430
 6508W        W 7372  28.956   2.389  23.909 -0.1654 -0.0884 -0.2595
 6509W        W 7373   4.476   7.002  12.278  0.0172  0.3327 -0.2564
 6510W        W 7374  25.686   0.088  26.287 -0.3265 -0.1770  0.0284
 6511W        W 7375  22.769  21.942   5.071 -0.0547 -0.0744 -0.2370
 6512W        W 7376  26.328  19.530  27.595  0.3737  0.1593  0.4055
 6513W        W 7377  25.174  14.090   0.001  0.2650  0.0315 -0.0912
 6514W        W 7378   2.889  16.936   1.108  0.0444 -0.3672  0.1875
 6515W        W 7379  12.893  25.040  28.408 -0.0649  0.1783 -0.0830
 6516W        W 7380  28.358   5.862  23.570 -0.1461  0.0281  0.2142
 6517W        W 7381  25.320  13.818  23.724  0.0507 -0.1205 -0.1512
 6518W        W 7382   0.636   4.645   4.498  0.0425  0.4044  0.0106
 6519W        W 7383  28.850  27.279  20.315 -0.1216 -0.2628 -0.3201
 6520W        W 7384  21.748   0.066  12.203  0.3001 -0.0824  0.1036
 6521W        W 7385   5.202  11.223   2.740  0.0672 -0.0361 -0.1378
 6522W        W 7386  21.036  17.926   3.986 -0.2325 -0.0634  0.0086
 6523W        W 7387  19.513   2.573  25.755 -0.1986  0.2928 -0.3673
 6524W        W 7388  13.774  27.166  26.806 -0.0544 -0.0829  0.2102
 6525W        W 7389  28.076   5.296  28.717  0.2506  0.0124 -0.0614
 6526W        W 7390   3.794  21.119  25.404  0.1624  0.2905  0.2137
 6527W        W 7391  17.622   2.218  12.905  0.2598 -0.0359 -0.3418
 6528W        W 7392   2.749  23.081  27.250 -0.0015  0.0049 -0.0607
 6529W        W 7393   5.950   4.560  11.508 -0.2766  0.2370  0.0993
 6530W        W 7394  21.569  23.629  19.806 -0.2952  0.0465  0.1587
 6531W        W 7395   3.158   3.930  28.829 -0.1858  0.0225 -0.0125
 6532W        W 7396  29.111   5.646  25.207 -0.3218 -0.5144 -0.0614
 6533W        W 7397  12.583  28.742   2.539 -0.3262 -0.2233 -0.2236
 6534W        W 7398   6.528  15.206  16.109 -0.3121  0.0699  0.3463
 6535W        W 7399   4.165   1.405  10.151  0.0193 -0.2338  0.1642
 6536W        W 7400   2.297  11.681   3.696 -0.0509  0.2156 -0.2233
 6537W        W 7401   8.958  18.677  13.714 -0.0182 -0.3521 -0.0195
 6538W        W 7402   1.190  25.464  16.921 -0.1217  0.1591 -0.1686
 6539W        W 7403  12.596   6.469   5.149 -0.2237  0.0724  0.0863
 6540W        W 7404   2.663  13.919  18.195 -0.2841 -0.0677  0.2525
 6541W        W 7405   0.697  20.201   5.926  0.0793 -0.0414 -0.0155
 6542W        W 7406   5.274  21.954  19.154  0.1805  0.0800 -0.3102
 6543W        W 7407  27.779  22.825   5.458 -0.2853  0.2566 -0.1096
 6544W        W 7408  27.736   6.568  17.533 -0.1993  0.3441 -0.0118
 6545W        W 7409  26.707  10.036  28.666  0.0695  0.1371 -0.0007
 6546W        W 7410  18.067  14.960  28.015  0.0828  0.3022  0.1411
 6547W        W 7411  10.330  21.375  17.378  0.2126  0.1130  0.0441
 6548W        W 7412  19.062  16.066  24.903 -0.0801  0.0088 -0.0847
 6549W        W 7413   7.033  12.690   3.592 -0.0092  0.0173  0.0882
 6550W        W 7414   6.726  14.841   8.215  0.0585 -0.0363 -0.3454
 6551W        W 7415  21.157  26.379   8.898  0.4077  0.0737  0.0888
 6552W        W 7416  26.095  10.847  17.009  0.0435  0.1888 -0.0717
 6553W        W 7417   2.121   1.973  11.944 -0.1497  0.0541  0.2481
 6554W        W 7418   0.373  26.239   7.263  0.0304 -0.4420  0.1424
 6555W        W 7419  15.183  10.513  19.476 -0.0481  0.0433  0.2186
 6556W        W 7420   4.093  12.128   0.651  0.0370 -0.0349  0.0854
 6557W        W 7421  27.985  28.437   2.929  0.1265 -0.0031  0.2290
 6558W        W 7422  23.840   6.860  10.345  0.0563 -0.1284 -0.1009
 6559W        W 7423   5.577   7.607  21.214  0.1268 -0.2107  0.2424
 6560W        W 7424  20.336   8.377   9.523  0.2671  0.0916 -0.0916
 6561W        W 7425   4.757   7.964   5.512 -0.2383 -0.2780  0.1882
 6562W        W 7426  24.849   1.408  15.635  0.0666  0.3926 -0.0031
 6563W        W 7427   4.638   9.523  22.118 -0.0287  0.0621 -0.0617
 6564W        W 7428   3.951   1.456   5.771 -0.0736  0.1430  0.2649
 6565W        W 7429  10.248   2.661  15.524 -0.2597  0.0966  0.1050
 6566W        W 7430   4.560  16.202  26.432 -0.0125 -0.0079 -0.2015
 6567W        W 7431  23.562  14.825  10.440  0.2339  0.3277 -0.1117
 6568W        W 7432  11.209  11.732  23.334  0.1503  0.0777 -0.0258
 6569W        W 7433  21.594   8.524   3.020  0.2512  0.2641  0.0742
 6570W        W 7434  26.650   1.976  15.031 -0.0024  0.0278  0.0525
 6571W        W 7435   7.821  13.372  27.329 -0.0132  0.1973 -0.2488
 6572W        W 7436   7.446   5.870  28.616  0.1918 -0.1119 -0.0412
 6573W        W 7437   4.920   3.980  25.454 -0.2998 -0.1611  0.2764
 6574W        W 7438  21.094   7.335  21.952  0.0276 -0.0236  0.0297
 6575W        W 7439  11.099   0.899  10.056 -0.0308 -0.0921  0.1693
 6576W        W 7440   1.726  24.942   0.979 -0.2146 -0.3254 -0.0161
 6577W        W 7441   1.508   9.316   6.318 -0.2325 -0.2208  0.0785
 6578W        W 7442  24.951  10.490  12.659  0.1179 -0.1521  0.2301
 6579W        W 7443  29.020   7.379   6.306  0.1965 -0.0611 -0.1294
 6580W        W 7444  21.761  21.447  16.476  0.2548  0.0810  0.0568
 6581W        W 7445  28.395   9.340  20.187 -0.2355  0.0379 -0.0200
 6582W        W 7446   7.396  19.571   1.474  0.3243 -0.0375  0.2248
 6583W        W 7447  11.483   4.175  22.305 -0.2457  0.0774  0.1915
 6584W        W 7448  14.128  17.855  16.885 -0.3446 -0.3543 -0.0715
 6585W        W 7449  24.873  27.877  11.601 -0.4286  0.0636 -0.0465
 6586W        W 7450  18.645  12.596   2.089 -0.2351  0.0704  0.0417
 6587W        W 7451   0.439  14.508   0.516 -0.2775  0.2614 -0.0737
 6588W        W 7452  22.067  27.800   9.597  0.0513 -0.2378  0.3462
 6589W        W 7453  29.057  27.620  11.056  0.1654 -0.2380  0.2251
 6590W        W 7454   8.988   7.099  17.796  0.0377 -0.2067 -0.0636
 6591W        W 7455  24.021  23.309  13.508 -0.0030 -0.1710  0.1113
 6592W        W 7456  24.829  18.036   2.981 -0.0736 -0.4277 -0.0383
 6593W        W 7457   2.519   2.359   5.910 -0.0431 -0.2346  0.0227
 6594W        W 7458  27.148  17.894  25.562 -0.0790 -0.0825  0.1866
 6595W        W 7459  25.923   2.371  14.358 -0.0946  0.1723  0.1259
 6596W        W 7460   0.627  15.895  11.405  0.2721 -0.1785  0.0606
 6597W        W 7461  10.548  11.588  24.512  0.3963 -0.1937 -0.0166
 6598W        W 7462   4.118  23.123   3.620  0.0036 -0.1070 -0.0428
 6599W        W 7463  28.210   3.089   5.739  0.0440  0.2790  0.0762
 6600W        W 7464  20.077   8.049   3.994  0.0242  0.0738 -0.2832
 6601W        W 7465   3.518  27.906  25.051 -0.1143  0.0737 -0.0570
 6602W        W 7466  15.371   5.711   2.013  0.1897 -0.1697 -0.1376
 6603W        W 7467  26.035   6.548   3.052 -0.1086  0.1217 -0.0139
 6604W        W 7468  12.801   7.230  14.388  0.1860  0.2317 -0.1522
 6605W        W 7469  24.347   8.513  24.207  0.1570  0.0030  0.0075
 6606W        W 7470   7.884   1.075  15.847 -0.1720  0.0926  0.1437
 6607W        W 7471  25.894  23.000  27.926  0.0246 -0.0232  0.0095
 6608W        W 7472   1.602  26.549  28.559 -0.0770  0.1089  0.2176
 6609W        W 7473  15.317  17.164   3.815  0.3434  0.2493 -0.2711
 6610W        W 7474   2.371  25.211   6.995 -0.1948 -0.0543 -0.2346
 6611W        W 7475  27.393  23.060   3.294  0.0746 -0.1082  0.1637
 6612W        W 7476  25.895  15.498  21.839 -0.0674  0.1294 -0.2797
 6613W        W 7477  22.849  28.730  18.326  0.0158 -0.1305  0.3154
 6614W        W 7478  27.185  16.170  13.545  0.1103  0.1141  0.2690
 6615W        W 7479   7.726  20.287  25.272  0.1674  0.0059  0.1691
 6616W        W 7480   2.110  12.638   0.382 -0.1252  0.2147  0.1814
 6617W        W 7481   9.586   3.183  15.014  0.1841  0.0138  0.3180
 6618W        W 7482  28.238   7.138  22.310  0.1627 -0.0692 -0.2964
 6619W        W 7483  14.845  24.921  17.007 -0.2042 -0.0949 -0.0988
 6620W        W 7484   3.735   4.064  25.949 -0.0527  0.0131 -0.2404
 6621W        W 7485   1.630  10.795  25.990  0.1783 -0.2893 -0.0553
 6622W        W 7486  20.213  19.476  26.034 -0.0343 -0.0051  0.1998
 6623W        W 7487  20.783  12.364  16.699 -0.1437  0.2970 -0.0144
 6624W        W 7488   4.721   7.825   1.552 -0.1832 -0.0984  0.1504
 6625W        W 7489   0.348  12.365  12.902  0.0134  0.0398 -0.1172
 6626W        W 7490  18.007  25.444  25.416 -0.0690  0.0014 -0.1520
 6627W        W 7491   8.710  14.598   3.496  0.1187  0.0208  0.0459
 6628W        W 7492  26.459  16.049   4.518  0.0709  0.0923 -0.4606
 6629W        W 7493  25.773  21.833  22.295  0.0515  0.0524  0.0288
 6630W        W 7494  27.691  24.836  17.686  0.0642  0.3212  0.0821
 6631W        W 7495   0.113   7.381  27.658 -0.0102  0.2413  0.0819
 6632W        W 7496  16.270   4.690  15.756 -0.0674  0.0901  0.0579
 6633W        W 7497  17.384  20.945  20.949  0.2447 -0.2652 -0.0139
 6634W        W 7498  24.284  11.606  25.363 -0.1979  0.1521 -0.1364
 6635W        W 7499   4.682   5.551   3.463  0.1130  0.3038 -0.1601
 6636W        W 7500  24.842  16.753  28.922  0.1443  0.3177 -0.0933
 6637W        W 7501  14.975  15.924   9.141  0.0018  0.2240  0.1742
 6638W        W 7502  21.753  17.393  21.817  0.0407 -0.0568  0.0294
 6639W        W 7503  14.981  18.374  28.482  0.3531  0.0686 -0.1894
 6640W        W 7504  14.668   4.018  11.101  0.0816 -0.0363  0.1346
 6641W        W 7505   7.868  23.529  10.720 -0.0147  0.1281  0.1218
 6642W        W 7506  13.826   7.297  20.076  0.2601 -0.1380  0.0747
 6643W        W 7507  26.876  27.351   0.257 -0.0041  0.0760 -0.1195
 6644W        W 7508   1.448  15.518   3.533 -0.1916  0.0727  0.0911
 6645W        W 7509   3.003  27.248  11.264  0.0816  0.0896  0.2841
 6646W        W 7510  11.253  15.091  19.192 -0.0635 -0.1797  0.1485
 6647W        W 7511  13.469  25.530   9.222 -0.0212  0.0566 -0.1218
 6648W        W 7512   0.322  12.304  13.792  0.4165 -0.1042 -0.0021
 6649W        W 7513  23.865   3.951  20.712 -0.3787  0.0124 -0.2510
 6650W        W 7514  28.730   2.910  27.217 -0.0267  0.0293 -0.0160
 6651W        W 7515  21.495  10.797   5.401  0.0321 -0.1372 -0.0515
 6652W        W 7516  28.297  23.204  26.437 -0.1312  0.0911 -0.2602
 6653W        W 7517   2.573   0.732  29.099 -0.2697 -0.3875 -0.1961
 6654W        W 7518   2.414  13.808  22.456 -0.0615  0.0744  0.1629
 6655W        W 7519   3.284   2.326   9.277 -0.0951 -0.1382  0.2974
 6656W        W 7520  13.284  16.711  11.523 -0.1477  0.0454 -0.0361
 6657W        W 7521  10.136   9.520  26.974  0.0460 -0.0795 -0.1456
 6658W        W 7522  17.690   0.642   2.090  0.0545 -0.3016  0.0325
 6659W        W 7523  26.520   0.416   1.757  0.0976 -0.1577  0.1633
 6660W        W 7524   1.432   8.652  28.356 -0.1381  0.5197  0.1836
 6661W        W 7525  23.404   7.628   0.137 -0.1799 -0.0797 -0.1384
 6662W        W 7526   6.006  27.080  23.330  0.2846 -0.2285  0.0510
 6663W        W 7527   3.319   7.559  10.813  0.0031  0.2625 -0.0864
 6664W        W 7528   6.538  21.933   4.817 -0.3511 -0.1703 -0.1340
 6665W        W 7529   7.444  12.152   6.313  0.2898 -0.3684  0.2201
 6666W        W 7530   3.300  17.905  28.575 -0.0946  0.2514 -0.1285
 6667W        W 7531  23.229   6.635  12.445 -0.0600  0.0702  0.3343
 6668W        W 7532  14.158   6.185   7.589  0.0962 -0.0793 -0.2278
 6669W        W 7533   2.152  28.053  28.800  0.2332 -0.1052 -0.1137
 6670W        W 7534   2.268   3.231  18.722 -0.0689 -0.2641  0.0832
 6671W        W 7535   3.833  19.262  17.653 -0.1155  0.0193 -0.0738
 6672W        W 7536  26.046   7.439   1.633 -0.0988  0.1502  0.1024
 6673W        W 7537  22.271  11.924   1.661  0.1035 -0.0670 -0.2186
 6674W        W 7538  16.874  12.099  15.558 -0.0660  0.1664  0.2135
 6675W        W 7539  12.113   8.139  13.556  0.1524 -0.2711 -0.0640
 6676W        W 7540   3.082  27.275   2.867 -0.0258 -0.0639 -0.1192
 6677W        W 7541   4.445   5.270  15.982  0.1527 -0.0863  0.0614
 6678W        W 7542  27.833  15.792  24.134  0.1630 -0.3236 -0.0167
 6679W        W 7543  19.610  11.789   1.687 -0.1155 -0.2371 -0.1976
 6680W        W 7544  22.692  17.549  29.090 -0.1757  0.2311  0.1097
 6681W        W 7545  29.118  26.608  22.884 -0.3580  0.4162  0.2675
 6682W        W 7546  26.805  27.955   3.183 -0.0579 -0.1316  0.1738
 6683W        W 7547   4.402   0.082  28.859  0.0691  0.2296 -0.0209
 6684W        W 7548  22.857   6.232  28.809 -0.0356  0.0375 -0.0531
 6685W        W 7549   2.690  20.658  11.816 -0.1598  0.2638 -0.1181
 6686W        W 7550  20.879  14.647  15.551 -0.1518  0.0876  0.2473
 6687W        W 7551  23.556   7.295   2.054 -0.1661  0.0483  0.1056
 6688W        W 7552  27.606   8.669  22.957  0.3759 -0.0259 -0.2297
 6689W        W 7553   1.108   2.963  25.436  0.0901 -0.1001  0.1433
 6690W        W 7554  20.454  14.844  19.460  0.0999 -0.2603 -0.0198
 6691W        W 7555   1.865  24.494  11.338  0.3239  0.1081  0.2561
 6692W        W 7556  15.523  12.719  24.230  0.2093  0.0629  0.2267
 6693W        W 7557  18.564   6.126  20.455 -0.1289  0.1013  0.0823
 6694W        W 7558   6.466   5.347  14.461 -0.0643  0.1695  0.0769
 6695W        W 7559   3.503   8.359   0.406  0.3029 -0.0272 -0.0360
 6696W        W 7560  13.558  14.273   3.810  0.3955  0.0007  0.3356
 6697W        W 7561  12.336   2.693  17.188  0.1016  0.3764  0.0158
 6698W        W 7562  27.317  23.138  23.148  0.2285  0.3543  0.1097
 6699W        W 7563  11.404  17.918   7.537  0.0315 -0.1954  0.0517
 6700W        W 7564  22.704  19.956   3.191 -0.3021  0.0306  0.2400
 6701W        W 7565  27.409   7.228  16.103  0.1243  0.0944 -0.0215
 6702W        W 7566   3.952  24.899  25.703  0.0734 -0.3227  0.2287
 6703W        W 7567  22.949  16.447  20.143 -0.1999 -0.3140  0.0899
 6704W        W 7568  22.584  12.904   8.662 -0.0257  0.1443  0.1977
 6705W        W 7569  14.633  16.263  15.755 -0.0027 -0.0434 -0.0609
 6706W        W 7570   0.956   7.969  23.949  0.1320 -0.0069 -0.1105
 6707W        W 7571  26.871  27.389   3.316 -0.0139 -0.0061  0.1431
 6708W        W 7572   0.549  12.119   4.068  0.3605 -0.0124 -0.3940
 6709W        W 7573  18.722   7.432  22.060 -0.3411  0.0488  0.1232
 6710W        W 7574  18.064  11.814  14.538  0.1078 -0.1688  0.0989
 6711W        W 7575   8.443  18.313  14.717 -0.2124  0.0486  0.1367
 6712W        W 7576   8.135  11.812  15.667  0.2391 -0.2601 -0.0667
 6713W        W 7577  15.949  12.078   0.190  0.1429  0.0604 -0.1241
 6714W        W 7578   0.711  19.456  28.721  0.1709  0.0991 -0.2041
 6715W        W 7579  25.010  13.336  26.578 -0.0606 -0.0166 -0.0783
 6716W        W 7580   4.276  16.806  15.329  0.0745 -0.2165 -0.2372
 6717W        W 7581  27.025   9.180  20.622 -0.4057  0.0714  0.0746
 6718W        W 7582   1.094   2.767  25.005 -0.2024 -0.1435  0.0615
 6719W        W 7583  16.851   4.924  10.653 -0.0823  0.2878  0.1273
 6720W        W 7584   6.598   8.759  28.310  0.3812 -0.1939 -0.0305
 6721W        W 7585  13.106  26.202  24.459 -0.2188  0.0780  0.0563
 6722W        W 7586  12.425   6.595  27.866 -0.1060  0.1649 -0.1042
 6723W        W 7587  16.967   4.768  10.094  0.2207  0.0902 -0.1677
 6724W        W 7588  14.558   7.882   2.019  0.1706  0.3940 -0.1699
 6725W        W 7589  12.465  28.639   1.174 -0.4231  0.2316  0.0145
 6726W        W 7590  18.525   3.571   5.336  0.1674  0.2480  0.1359
 6727W        W 7591   1.482   7.773  25.392  0.1340  0.1647 -0.0438
 6728W        W 7592  27.811  17.483  19.504 -0.2653 -0.1806 -0.0348
 6729W        W 7593   9.610  21.228   2.928  0.0954 -0.1111  0.0759
 6730W        W 7594  23.838  11.893   0.783  0.0446 -0.2612  0.0437
 6731W        W 7595  18.559  20.595  23.767  0.1713  0.2288 -0.1394
 6732W        W 7596  24.141   6.551  26.319  0.1039 -0.0176  0.1371
 6733W        W 7597  26.447  17.988  23.079  0.2528  0.2148 -0.0218
 6734W        W 7598  10.088   2.056  21.913 -0.0875 -0.4304  0.0890
 6735W        W 7599  17.600  15.660   8.177 -0.1139 -0.0586  0.1787
 6736W        W 7600  13.272  17.952   0.899  0.2493 -0.0460 -0.0743
 6737W        W 7601   9.324   5.951  27.019  0.0344  0.0294 -0.1478
 6738W        W 7602  27.163   5.189  21.544  0.0977  0.0866 -0.1236
 6739W        W 7603  11.486   6.476   9.414  0.6951  0.1882 -0.2540
 6740W        W 7604   9.115  12.096   5.347  0.1296  0.1542  0.2186
 6741W        W 7605  23.267   6.754   2.138 -0.1489 -0.1459  0.0274
 6742W        W 7606  17.095  17.551  25.390 -0.0937  0.1780  0.1725
 6743W        W 7607  11.981  28.891   1.489 -0.1779 -0.1357 -0.0870
 6744W        W 7608   3.518   1.553  25.522 -0.0025 -0.0974  0.2113
 6745W        W 7609   1.373  21.583   9.487  0.1466 -0.1510  0.0115
 6746W        W 7610  21.798  17.591   5.524 -0.1219  0.2030  0.0248
 6747W        W 7611  15.441   3.078  28.442 -0.2164  0.0232 -0.1719
 6748W        W 7612   3.017  23.359  15.177 -0.3409  0.0078  0.2391
 6749W        W 7613   5.903  10.609   6.656  0.0546  0.1700 -0.0293
 6750W        W 7614   2.667   0.673  18.129 -0.0012 -0.0846  0.3133
 6751W        W 7615   4.663   8.003   6.686 -0.0064  0.3490  0.0124
 6752W        W 7616  26.658   8.796  18.135 -0.1495 -0.0483  0.4304
 6753W        W 7617  29.023  13.586   7.972  0.1810 -0.0368 -0.0596
 6754W        W 7618   1.658  27.245  26.626 -0.2342 -0.3927 -0.0482
 6755W        W 7619   3.440   9.625   1.833 -0.2570  0.0983 -0.0448
 6756W        W 7620   5.885  19.951  23.657 -0.0400 -0.1403 -0.1844
 6757W        W 7621   0.740  18.520  27.142  0.1921 -0.2484 -0.1358
 6758W        W 7622  19.852  22.120   9.973 -0.0591  0.2316  0.4521
 6759W        W 7623  17.406   6.507  27.922 -0.1477  0.0790 -0.1022
 6760W        W 7624  22.330   9.029  24.349 -0.0232  0.1575  0.0731
 6761W        W 7625   1.565   5.530  22.436 -0.0488  0.1895  0.1819
 6762W        W 7626  22.457  17.334  27.047 -0.1548 -0.0250  0.2849
 6763W        W 7627  18.138  21.239   1.653  0.2890 -0.1214 -0.2858
 6764W        W 7628  26.215   0.918  29.081 -0.3423 -0.0803  0.1380
 6765W        W 7629  19.555  15.937   9.356 -0.5029 -0.1242 -0.0308
 6766W        W 7630  24.801  10.837  13.038  0.0718 -0.3317  0.0073
 6767W        W 7631  28.798   2.979   3.337 -0.0496  0.0841 -0.1726
 6768W        W 7632   5.453   2.388  27.885 -0.0307  0.0973  0.2793
 6769W        W 7633   3.659  13.452  14.658  0.2758 -0.1217  0.0050
 6770W        W 7634  28.817   4.259  16.722 -0.2382  0.0144  0.2847
 6771W        W 7635  10.101  11.125  27.956 -0.0250 -0.0218 -0.0234
 6772W        W 7636   4.777   4.621   8.475 -0.0194  0.0018 -0.1505
 6773W        W 7637   9.823  12.844   6.133 -0.0288  0.0822 -0.1991
 6774W        W 7638   5.738   4.991  24.633 -0.0239 -0.2351 -0.0967
 6775W        W 7639   8.204   3.914   1.040  0.0059 -0.1303 -0.3303
 6776W        W 7640  23.448   7.304  12.980 -0.1497  0.1456  0.0565
 6777W        W 7641   0.554  16.942  24.830  0.0324  0.2164 -0.1401
 6778W        W 7642  24.099  14.522  26.644 -0.2533 -0.1736 -0.5388
 6779W        W 7643  21.300  17.559   2.557 -0.1835 -0.0201  0.2916
 6780W        W 7644   4.098  24.196  16.305  0.0733  0.2281  0.0709
 6781W        W 7645  27.837   0.957   7.150 -0.1612  0.0847 -0.1710
 6782W        W 7646  12.379  20.847  26.242  0.0567 -0.2179 -0.0242
 6783W        W 7647  18.135  21.546  18.196  0.0247 -0.0457 -0.1253
 6784W        W 7648  27.704   6.230  11.914  0.2748  0.0671 -0.2186
 6785W        W 7649  23.456   2.378  21.188 -0.0237  0.2478  0.0903
 6786W        W 7650  21.503  11.423   3.225  0.2143 -0.0799 -0.2542
 6787W        W 7651  12.553  13.033  26.628  0.0526  0.0075  0.0441
 6788W        W 7652   3.929  18.646   2.764  0.0951 -0.2492 -0.0384
 6789W        W 7653   6.226  22.780   0.048 -0.1619  0.2328  0.1423
 6790W        W 7654  27.859   3.890  10.991 -0.0445  0.1068 -0.2154
 6791W        W 7655   3.913   1.252   4.535 -0.3895  0.2988 -0.2308
 6792W        W 7656  24.776   3.550  19.676  0.1414 -0.2195 -0.0698
 6793W        W 7657   8.291  18.084  28.791  0.2138 -0.1596  0.0690
 6794W        W 7658   4.745  12.851  24.647  0.0697 -0.2920  0.1905
 6795W        W 7659  24.262   2.211   8.025  0.0817  0.1958 -0.0349
 6796W        W 7660  15.281   4.549   0.288 -0.0858 -0.1287  0.2307
 6797W        W 7661  10.040  21.194  25.463 -0.0577 -0.2721  0.1071
 6798W        W 7662   6.499   6.079  27.691  0.1224  0.0462  0.1641
 6799W        W 7663   9.791   0.848   8.321 -0.0842  0.0783 -0.2115
 6800W        W 7664  10.061  27.154  15.307 -0.0228  0.0945 -0.0966
 6801W        W 7665   4.549  15.694   9.408  0.0833 -0.2107  0.0188
 6802W        W 7666  15.398   1.272  20.170  0.1104  0.0100  0.0531
 6803W        W 7667   8.698   9.897   9.010  0.1891  0.1758  0.2188
 6804W        W 7668   3.142   6.349  20.553  0.0890 -0.0504  0.1440
 6805W        W 7669  28.452  11.600  14.273  0.2415  0.0505 -0.0699
 6806W        W 7670  18.854   0.575   4.279 -0.2523  0.3293  0.0789
 6807W        W 7671   3.819  17.406  25.258 -0.3447  0.1337  0.2673
 6808W        W 7672  10.637  14.478  24.745 -0.0809 -0.1495  0.0716
 6809W        W 7673  27.683   3.832  15.760  0.2510 -0.0494  0.0591
 6810W        W 7674  28.774  23.672  25.877 -0.0745 -0.0605  0.1782
 6811W        W 7675  25.066  10.402  28.994  0.1321  0.0443  0.0268
 6812W        W 7676   0.154  23.419   1.857 -0.2458 -0.3291 -0.0794
 6813W        W 7677   3.413  27.957   1.815 -0.0310  0.2250 -0.0393
 6814W        W 7678  17.525  12.034  26.008 -0.0427  0.1227  0.0559
 6815W        W 7679   5.175   5.292   6.490  0.1004  0.1597  0.1721
 6816W        W 7680   7.460  12.818  10.661 -0.0736  0.1024  0.3954
 6817W        W 7681  21.736  14.562  28.837 -0.2829  0.3667 -0.3028
 6818W        W 7682  27.553  20.875  25.411 -0.2720  0.1450  0.0542
 6819W        W 7683   7.601   1.160   3.619  0.0010  0.0912 -0.1311
 6820W        W 7684  25.507   5.727   5.339 -0.3620  0.1966 -0.1384
 6821W        W 7685  12.140   5.885   8.253  0.2163 -0.1898  0.1749
 6822W        W 7686   1.551  19.602   5.122  0.0769  0.4407 -0.0723
 6823W        W 7687  10.691  27.604  22.685 -0.3090 -0.1401  0.2968
 6824W        W 7688  22.014  10.186   6.446 -0.0744  0.1369 -0.1939
 6825W        W 7689  13.737  12.052  23.575  0.0721 -0.1398  0.1250
 6826W        W 7690   7.885   0.058  23.076  0.1058 -0.0648 -0.0055
 6827W        W 7691  22.794  23.077   1.513  0.0889 -0.1832  0.3200
 6828W        W 7692  24.798  13.267  10.863  0.2322  0.1256 -0.2180
 6829W        W 7693  15.795  13.456   7.011 -0.0398  0.1658  0.1492
 6830W        W 7694   3.656   3.252   8.989  0.0289  0.0002 -0.1153
 6831W        W 7695   5.747  21.282   2.661 -0.3046 -0.1066  0.3886
 6832W        W 7696  11.210  12.321   2.036 -0.0828 -0.1907  0.1332
 6833W        W 7697  11.355  19.343  28.011 -0.0356  0.1583 -0.0413
 6834W        W 7698  25.956   2.816   7.271  0.1943  0.2247  0.2734
 6835W        W 7699   3.004  19.669  10.568  0.0816  0.0239  0.1919
 6836W        W 7700  15.446  11.363  24.310 -0.0463 -0.4281  0.2196
 6837W        W 7701  15.479  20.741  28.869  0.1613  0.2725 -0.2802
 6838W        W 7702  17.260  10.326  27.099 -0.1029  0.2882 -0.0520
 6839W        W 7703  15.253   8.649   1.914  0.3705  0.2189 -0.0111
 6840W        W 7704  23.677  24.632  24.467 -0.0330  0.0431  0.0491
 6841W        W 7705  15.058   6.787  13.557  0.0670  0.0553  0.0996
 6842W        W 7706  27.968  27.219   2.369  0.1166  0.0496 -0.3768
 6843W        W 7707   1.043  11.712  29.058 -0.1098 -0.0663  0.1397
 6844W        W 7708   2.922  28.510  27.610 -0.0607  0.2937  0.0348
 6845W        W 7709  21.826   4.273   1.094  0.1862  0.0601 -0.1167
 6846W        W 7710   5.568  23.839   4.304  0.0312  0.0777 -0.1440
 6847W        W 7711  24.834   7.472  27.490  0.0541  0.1220  0.1597
 6848W        W 7712   4.186   2.784  25.314 -0.1330  0.1772 -0.0309
 6849W        W 7713   7.699  12.957  14.521 -0.0473 -0.0181 -0.1245
 6850W        W 7714  23.205  15.480  25.434  0.0691  0.1802  0.1768
 6851W        W 7715   1.979   9.142  16.170  0.1517 -0.1493  0.0367
 6852W        W 7716  11.125  19.857   2.379  0.1050 -0.1631  0.0101
 6853W        W 7717  16.122  26.411  10.816  0.0268  0.2873 -0.1645
 6854W        W 7718  11.237   9.553  12.507  0.0506  0.1214 -0.1131
 6855W        W 7719  15.459   3.952   4.242  0.0788  0.1923  0.2454
 6856W        W 7720  23.364  20.398  24.691  0.1592  0.1597  0.3481
 6857W        W 7721  28.218  25.373   6.145  0.0710  0.0523 -0.0745
 6858W        W 7722   6.353  20.185  10.001  0.3905 -0.1932  0.0816
 6859W        W 7723   7.336   6.638  28.253  0.0031  0.1923 -0.0890
 6860W        W 7724   4.231  22.652  20.274 -0.0710 -0.3178  0.2430
 6861W        W 7725  22.464  18.122   4.805 -0.0587  0.1265 -0.2749
 6862W        W 7726   8.558  26.473  10.479 -0.0275  0.2034  0.1162
 6863W        W 7727   8.020   4.769  15.681 -0.0057  0.1293  0.0964
 6864W        W 7728  28.110  16.051  10.341 -0.1535  0.2305  0.2427
 6865W        W 7729  21.875  13.532  23.012  0.0633  0.0876  0.2176
 6866W        W 7730  27.087  17.840   4.311 -0.1288 -0.1226 -0.1688
 6867W        W 7731   7.412  15.771  23.516 -0.1361 -0.0605  0.0328
 6868W        W 7732   3.969   5.337   5.133  0.2130  0.1359 -0.0089
 6869W        W 7733  12.345   5.665  12.201  0.1346  0.0809  0.1404
 6870W        W 7734  26.745   6.914  19.626  0.1048 -0.0242  0.0540
 6871W        W 7735   9.508  22.717   2.684 -0.1190  0.2961 -0.0067
 6872W        W 7736   2.673   2.199  23.040 -0.1007  0.2110 -0.1639
 6873W        W 7737   4.321   2.120   1.763 -0.1454 -0.1748 -0.2454
 6874W        W 7738  10.087  19.722   6.867  0.1572  0.3231  0.1387
 6875W        W 7739  14.024   3.761   0.874  0.2232  0.1542  0.1503
 6876W        W 7740  13.616   5.940  26.109 -0.0220 -0.0764 -0.1771
 6877W        W 7741  23.703   1.411  19.289  0.3402 -0.2610 -0.1862
 6878W        W 7742   4.324   0.525  28.671  0.0430  0.1298  0.1939
 6879W        W 7743   4.506   2.261   5.620  0.2045 -0.0063  0.0702
 6880W        W 7744  22.699   6.085   8.626 -0.1272 -0.0549  0.2164
 6881W        W 7745   1.234  10.283   6.245  0.1828 -0.0989  0.0129
 6882W        W 7746  27.892  26.767   4.536 -0.1474 -0.2414  0.2533
 6883W        W 7747  16.737   6.769  20.557 -0.1390 -0.2586  0.2518
 6884W        W 7748  19.103  16.096   1.414 -0.1259  0.1010  0.0065
 6885W        W 7749   3.726  20.110   4.272 -0.3014 -0.0526 -0.1475
 6886W        W 7750  15.325  13.044  25.886 -0.1638  0.2098 -0.0052
 6887W        W 7751   0.296  25.394  28.525 -0.2868  0.0075  0.0247
 6888W        W 7752   1.834   6.365  10.310  0.1159 -0.1385  0.0239
 6889W        W 7753  26.766   0.004  10.857 -0.4065 -0.1682  0.2134
 6890W        W 7754  12.988   6.737  27.275 -0.1417 -0.1104  0.1534
 6891W        W 7755   0.810  20.428  18.134 -0.0135  0.0884 -0.0588
 6892W        W 7756  24.102  14.510   0.737 -0.1578 -0.0813  0.0298
 6893W        W 7757  21.089  11.934  26.484 -0.0283 -0.0249 -0.0668
 6894W        W 7758  26.758  28.543  22.100 -0.0353 -0.2247  0.2619
 6895W        W 7759  12.675  13.946  26.767 -0.0357 -0.1502  0.1313
 6896W        W 7760   8.191   5.632  25.601  0.1061 -0.1512 -0.4002
 6897W        W 7761   4.990  18.574  12.032 -0.1061 -0.0375 -0.2681
 6898W        W 7762  16.214  11.217  20.365 -0.2926  0.0461 -0.3450
 6899W        W 7763  27.119  11.453  29.048  0.1316 -0.1042  0.1225
 6900W        W 7764   8.500   4.168   3.614 -0.0396 -0.0278 -0.0383
 6901W        W 7765  18.269   5.932  29.015 -0.3480  0.0012  0.2060
 6902W        W 7766  28.035  28.700  19.014  0.2097 -0.2485 -0.1259
 6903W        W 7767   5.695  16.056   4.587 -0.0398  0.0087 -0.0300
 6904W        W 7768   9.863  17.426   0.165  0.2771 -0.0723 -0.2778
 6905W        W 7769   2.323  26.771   9.581 -0.0106 -0.1092  0.0572
 6906W        W 7770  10.788   5.022   6.867  0.1652 -0.1686 -0.0128
 6907W        W 7771  15.293   2.497  21.539 -0.2919 -0.0730 -0.1548
 6908W        W 7772   7.980   9.727   1.684  0.1285 -0.1722  0.3852
 6909W        W 7773  21.597  28.844  23.290  0.2203  0.2246 -0.0535
 6910W        W 7774   5.721  14.238  27.681  0.1206 -0.1777 -0.2859
 6911W        W 7775   4.749  28.603  18.188 -0.1728  0.0599 -0.0106
 6912W        W 7776  10.943   2.088  13.632  0.2088 -0.2239  0.2163
 6913W        W 7777  25.072  26.429  12.297  0.0559 -0.0415  0.1223
 6914W        W 7778  17.872   3.854  10.753 -0.2893 -0.2498 -0.3368
 6915W        W 7779  28.244   6.618  12.088 -0.0756  0.2380  0.0682
 6916W        W 7780  28.731   2.557   3.029  0.0928  0.0762 -0.2025
 6917W        W 7781  13.088   6.950  14.070 -0.0604 -0.4501  0.2581
 6918W        W 7782  25.095   0.304  25.260 -0.0298 -0.2067  0.3510
 6919W        W 7783  28.704  17.992  21.953 -0.0704 -0.2518 -0.0830
 6920W        W 7784  16.514  15.151   9.455  0.0324 -0.0566 -0.2491
 6921W        W 7785  26.661   0.469  19.909  0.4291 -0.0805  0.1700
 6922W        W 7786   5.686   5.929   7.513 -0.0371 -0.0667  0.2335
 6923W        W 7787  15.363   3.295  25.265  0.3167  0.0632 -0.1088
 6924W        W 7788   0.480  24.637  19.631  0.0494 -0.1224  0.0991
 6925W        W 7789  26.602  17.016  24.084  0.1581 -0.0902  0.0898
 6926W        W 7790  14.842  25.315   3.075 -0.2003  0.0171 -0.0835
 6927W        W 7791  15.053   8.532   7.433 -0.0833  0.2006  0.0098
 6928W        W 7792   7.492  15.577  27.667 -0.0967 -0.0226 -0.0537
 6929W        W 7793  14.562  24.983  20.374 -0.1237 -0.2432  0.1744
 6930W        W 7794  11.550   5.401   7.446 -0.2558 -0.0435 -0.2150
 6931W        W 7795   1.027   3.445   3.523 -0.0348 -0.0010  0.4228
 6932W        W 7796  19.464  11.320   4.662 -0.1441  0.2171 -0.1699
 6933W        W 7797   6.560  20.590   1.281 -0.1569 -0.0126  0.1706
 6934W        W 7798  18.958  20.162   6.394 -0.0998  0.2608 -0.2152
 6935W        W 7799  20.945  13.126  10.247 -0.0769  0.2260 -0.2089
 6936W        W 7800   1.354  10.670   4.168  0.0502 -0.2348  0.1031
 6937W        W 7801  28.093  21.648  10.991  0.0956 -0.0460 -0.0746
 6938W        W 7802   3.370   4.027   0.775 -0.1669  0.1448  0.0101
 6939W        W 7803  17.221   9.938  28.200  0.1856 -0.0157 -0.1265
 6940W        W 7804  21.150  16.640  22.090 -0.1054  0.1246  0.0828
 6941W        W 7805  12.499  27.413   0.401  0.1097  0.2099 -0.0146
 6942W        W 7806  14.892   2.065   9.422  0.1982 -0.3301  0.3311
 6943W        W 7807   1.962   8.423  13.787  0.2686 -0.1011  0.0909
 6944W        W 7808  15.856  24.011  27.659 -0.0869  0.0137  0.2509
 6945W        W 7809  16.511   4.587  15.281 -0.4437 -0.3172 -0.0546
 6946W        W 7810  24.452  20.147   5.883  0.0909  0.3127 -0.1331
 6947W        W 7811  22.393  15.719   1.045 -0.1251 -0.0911 -0.3866
 6948W        W 7812  23.508  22.681   5.671  0.1817 -0.1803 -0.0801
 6949W        W 7813  17.729  23.832  11.762 -0.1314 -0.1681 -0.1971
 6950W        W 7814   6.693   7.528  15.335  0.3427  0.0495 -0.0033
 6951W        W 7815   8.815  27.378  16.998 -0.1671 -0.0848 -0.1249
 6952W        W 7816   1.218   5.828  14.803  0.1852  0.0720  0.0289
 6953W        W 7817  27.611  13.957   7.980  0.0402  0.2762  0.0058
 6954W        W 7818  24.700  11.138  18.144 -0.1152  0.0395 -0.0492
 6955W        W 7819  22.412   3.504  15.535  0.1942 -0.2619 -0.1061
 6956W        W 7820  14.348   5.477   0.380  0.2606  0.0823 -0.3215
 6957W        W 7821   3.040  20.194  27.818 -0.1677 -0.2422 -0.0084
 6958W        W 7822   1.459  12.047   6.899 -0.0548  0.1127 -0.1566
 6959W        W 7823   4.868   6.590  13.544 -0.0077  0.2321 -0.0065
 6960W        W 7824  10.144   9.895   0.205 -0.2262  0.0739  0.0920
 6961W        W 7825  10.444   9.151   1.229  0.0022  0.0335 -0.1164
 6962W        W 7826   3.745  11.222  11.892 -0.0192 -0.2045  0.0323
 6963W        W 7827   3.423  10.769  25.726 -0.1407  0.2783 -0.0080
 6964W        W 7828   4.394   5.521   8.529 -0.2871  0.0593  0.1051
 6965W        W 7829  27.534   1.112  18.874 -0.0453  0.0907  0.0605
 6966W        W 7830  21.047  25.317  27.329 -0.1070 -0.2046 -0.5590
 6967W        W 7831  14.126   7.554  24.076 -0.0273  0.1060  0.2001
 6968W        W 7832  13.274  24.646  25.799 -0.0228 -0.1619  0.0702
 6969W        W 7833  28.710   1.089   7.765 -0.0568  0.0401  0.1984
 6970W        W 7834  14.666  24.009  11.430 -0.3827 -0.0744 -0.3088
 6971W        W 7835   6.966  26.896  17.570  0.2106 -0.0022  0.0700
 6972W        W 7836  26.040   5.026   1.828 -0.2172 -0.2325  0.0417
 6973W        W 7837  14.894   6.895   3.394 -0.1185 -0.0588 -0.0526
 6974W        W 7838  14.002   3.673   5.788  0.2572 -0.1614 -0.1548
 6975W        W 7839  24.433  26.193  24.673 -0.2415  0.1954  0.1131
 6976W        W 7840  24.854   0.437  18.334 -0.1463  0.1097  0.3407
 6977W        W 7841  11.297  27.016   9.181 -0.0395 -0.0839 -0.0416
 6978W        W 7842   2.239   3.857  13.827 -0.2843 -0.3228  0.2502
 6979W        W 7843  27.607  23.587   3.313 -0.1034 -0.0255  0.1418
 6980W        W 7844   5.422  11.511  26.033 -0.1673 -0.2281 -0.0606
 6981W        W 7845   3.625   4.392   9.146  0.1053  0.0826 -0.1407
 6982W        W 7846  20.078  27.549   2.190 -0.3294 -0.0850 -0.0180
 6983W        W 7847  16.145   7.563  12.207 -0.1599  0.0910  0.2117
 6984W        W 7848   5.670   8.105  25.435  0.2430  0.2030  0.0693
 6985W        W 7849  16.891  15.723  18.660  0.1335 -0.1926  0.2025
 6986W        W 7850  16.914   9.702   6.782  0.2369  0.1269  0.0137
 6987W        W 7851   5.908   4.226   5.230 -0.0289 -0.0972 -0.2451
 6988W        W 7852   2.414  28.515  13.080  0.4132  0.0126 -0.0491
 6989W        W 7853  21.832   7.908  12.353 -0.2844  0.2571 -0.2088
 6990W        W 7854  24.155  23.919   2.549 -0.0834 -0.2065 -0.3087
 6991W        W 7855  25.666  22.212   8.217 -0.0893  0.1918  0.4609
 6992W        W 7856   9.376   4.300  23.623 -0.2279  0.1243 -0.0811
 6993W        W 7857   3.834  11.705  15.013  0.0085 -0.0778 -0.1188
 6994W        W 7858   1.687   8.975  25.890  0.2505 -0.0666  0.1703
 6995W        W 7859  25.018   7.972  17.618  0.0564 -0.0626 -0.1033
 6996W        W 7860  20.331  19.423  10.686 -0.0764  0.1594 -0.0452
 6997W        W 7861   2.466   7.849  18.192 -0.1033  0.1545 -0.0265
 6998W        W 7862   9.858  18.915  24.719  0.2552 -0.1064 -0.0712
 6999W        W 7863  15.493  23.481   8.887  0.2037 -0.1554 -0.0418
 7000W        W 7864   7.743  13.982  19.747 -0.0108 -0.1857 -0.0542
 7001W        W 7865   2.539   0.744  11.955  0.2038 -0.1457  0.2605
 7002W        W 7866   4.964  18.782   1.535 -0.1385  0.0445 -0.1639
 7003W        W 7867  12.438  26.923   1.173  0.0902  0.1511 -0.0857
 7004W        W 7868  18.184  14.300  24.138 -0.0756 -0.1444  0.1081
 7005W        W 7869  16.248   0.863  14.406  0.0542  0.1300  0.3049
 7006W        W 7870  22.285  12.907   1.560 -0.0020  0.0869  0.2302
 7007W        W 7871   6.668   6.977  20.354  0.1758  0.1625 -0.0786
 7008W        W 7872  17.043   7.035   1.846  0.1279  0.0296 -0.0381
 7009W        W 7873   3.862  11.237  24.388 -0.3211 -0.1342 -0.4100
 7010W        W 7874   7.439   9.453  26.518  0.0495  0.0801  0.0494
 7011W        W 7875  15.707   2.608  19.828  0.0083  0.0693  0.1794
 7012W        W 7876  25.625  13.799   0.614 -0.1488  0.0383  0.0156
 7013W        W 7877   4.538   1.889   7.347  0.1303 -0.3685  0.1201
 7014W        W 7878  14.535   2.469  10.599 -0.2442  0.0905 -0.2465
 7015W        W 7879  23.395  14.824  11.069 -0.1241  0.1178 -0.0497
 7016W        W 7880   1.428  15.819   3.008  0.1584 -0.2072  0.0906
 7017W        W 7881  23.750   1.428  13.430 -0.2166 -0.1688 -0.0350
 7018W        W 7882  19.450   0.738   8.335  0.0295 -0.1412 -0.1322
 7019W        W 7883  13.407  15.395  20.736  0.1750 -0.0903  0.2813
 7020W        W 7884   0.074   7.232   0.189 -0.0042  0.0913 -0.0013
 7021W        W 7885  27.193   2.326  21.113  0.1666  0.1677 -0.0345
 7022W        W 7886   2.594   8.395  12.336 -0.0456 -0.0946 -0.0373
 7023W        W 7887  27.747   3.728  17.357 -0.0081 -0.1349 -0.0960
 7024W        W 7888   3.012  14.162  16.300 -0.0754 -0.1151  0.0564
 7025W        W 7889  11.045  22.845  19.537 -0.0442 -0.0370  0.1721
 7026W        W 7890  11.213  28.727   1.735  0.1382  0.2416  0.1652
 7027W        W 7891  24.978  21.248   8.864 -0.1583 -0.0704  0.1302
 7028W        W 7892  28.989  20.056   9.837  0.1762 -0.0715  0.1475
 7029W        W 7893  22.923  27.822  13.995  0.0333  0.1363  0.1899
 7030W        W 7894   1.161  11.258   9.257 -0.0663 -0.1024  0.0174
 7031W        W 7895   8.255   2.723  28.368  0.0295 -0.2178 -0.1050
 7032W        W 7896   9.514  18.641  20.553  0.0951 -0.0815  0.1643
 7033W        W 7897  21.267   6.566  18.656 -0.1153  0.1974  0.0655
 7034W        W 7898  25.788   9.008  12.322 -0.0362  0.3880  0.3221
 7035W        W 7899   9.085   3.782  10.911  0.0023 -0.1060 -0.0885
 7036W        W 7900  15.432   1.120   2.435 -0.0199  0.1185 -0.3714
 7037W        W 7901  23.857   8.230  19.804  0.0070 -0.0494  0.1634
 7038W        W 7902   5.407  23.879  23.478  0.1046 -0.0978  0.0137
 7039W        W 7903  13.501  19.482   8.301 -0.0451 -0.1126 -0.1250
 7040W        W 7904  24.917  16.910  24.144  0.1389 -0.1271  0.0224
 7041W        W 7905   5.572  19.866   8.510  0.0804  0.1590 -0.1674
 7042W        W 7906  27.351  22.852   5.130 -0.1016 -0.0792  0.0208
 7043W        W 7907   1.915   8.283  26.464  0.1007  0.1572 -0.1696
 7044W        W 7908   5.031  15.045  24.317  0.2226 -0.0666  0.1484
 7045W        W 7909  17.974  16.150   0.021  0.0224 -0.0497  0.0063
 7046W        W 7910   2.120  18.426  20.458 -0.1471  0.0702 -0.0959
 7047W        W 7911  27.962  27.889   9.566  0.4222  0.0659 -0.1097
 7048W        W 7912  29.100  20.929   5.285 -0.0320 -0.0937  0.1684
 7049W        W 7913   4.099   7.647  16.063  0.3108  0.1553 -0.0729
 7050W        W 7914   5.161  11.519   7.022 -0.0195  0.2171  0.0956
 7051W        W 7915   0.509  21.115  25.251 -0.0168 -0.0662  0.0227
 7052W        W 7916   7.941  25.694  15.976 -0.2116 -0.3830  0.1385
 7053W        W 7917   1.865   1.946   0.309  0.2611  0.2741  0.0362
 7054W        W 7918   7.432  27.808  16.066  0.0599 -0.2809  0.0418
 7055W        W 7919  19.187  25.844  14.643 -0.1319  0.2271  0.0780
 7056W        W 7920  13.645   2.170  14.288  0.0871  0.1085 -0.0131
 7057W        W 7921  28.383  27.559   4.846  0.1566 -0.1054  0.1621
 7058W        W 7922   1.832   9.868   0.997  0.6105  0.0616 -0.0547
 7059W        W 7923  28.669  28.435   8.785  0.1133  0.1295  0.0787
 7060W        W 7924  16.600   9.949  26.387  0.6004 -0.0346 -0.1944
 7061W        W 7925   1.453  20.707  23.268  0.1373 -0.1422  0.0941
 7062W        W 7926   6.363  24.273  14.132 -0.0873 -0.0687  0.0750
 7063W        W 7927   2.914  27.371  21.825 -0.2473 -0.1195  0.0831
 7064W        W 7928  16.343   3.533  13.757  0.0652  0.0399  0.0604
 7065W        W 7929  28.687  15.793  18.235  0.2232 -0.1549  0.0828
 7066W        W 7930  27.570  16.813   7.739 -0.4226  0.2198 -0.2372
 7067W        W 7931  27.408  10.769   2.103 -0.3042  0.0795 -0.0539
 7068W        W 7932   6.443  11.472   6.821 -0.1216  0.3950  0.1106
 7069W        W 7933  27.833  12.739  15.976 -0.1920  0.0312  0.0641
 7070W        W 7934  11.392   2.556   1.175 -0.1939  0.0676  0.0802
 7071W        W 7935  21.206  14.206   1.126 -0.2906  0.1663  0.2537
 7072W        W 7936   9.612   2.178   4.601 -0.1897  0.0726  0.6046
 7073W        W 7937   4.725   0.760   7.220 -0.0325  0.0950  0.1764
 7074W        W 7938  26.669  12.368  24.756  0.1414 -0.0572  0.0383
 7075W        W 7939   0.111   9.776  11.618 -0.2727 -0.1121 -0.1295
 7076W        W 7940  22.984  18.105  12.763  0.5680  0.0926  0.2251
 7077W        W 7941  22.575   1.011  20.159 -0.3462  0.1397 -0.0547
 7078W        W 7942  14.497   0.847   3.226 -0.2277 -0.2620  0.0736
 7079W        W 7943   0.721  24.636   9.231  0.2353  0.1110 -0.3652
 7080W        W 7944  28.022   8.944   8.772  0.2182 -0.0977  0.1295
 7081W        W 7945  28.947   3.939   8.112  0.1282  0.0368 -0.0920
 7082W        W 7946  12.664  14.739  27.322  0.0662 -0.0652 -0.1108
 7083W        W 7947  11.455  22.746  11.909 -0.0464  0.0889  0.0346
 7084W        W 7948  27.722   6.978  25.375  0.0999 -0.2412  0.1749
 7085W        W 7949  15.596  22.443  27.356  0.0199  0.3021 -0.0935
 7086W        W 7950  28.664  20.391   4.486 -0.1086  0.1200 -0.0564
 7087W        W 7951   2.285   8.210  25.183  0.1646 -0.2990  0.1806
 7088W        W 7952  25.080  19.767   7.042 -0.1594  0.1408  0.1676
 7089W        W 7953  25.912  11.061   8.640  0.0876  0.0717  0.2380
 7090W        W 7954  12.243   0.749  11.607 -0.2811  0.1761  0.2442
 7091W        W 7955   3.979  28.373  21.857  0.1104 -0.1714  0.0043
 7092W        W 7956  16.167   5.165  11.842  0.1347 -0.0390  0.0816
 7093W        W 7957  14.285  22.969  25.385 -0.4519  0.6879 -0.1073
 7094W        W 7958  22.012  27.592   7.458  0.2170 -0.1515  0.1253
 7095W        W 7959   0.376  17.608   9.767 -0.1327  0.1457  0.1092
 7096W        W 7960  28.239   5.037  12.985 -0.2254  0.0402 -0.0007
 7097W        W 7961  12.031  16.524  12.770  0.0787 -0.0077  0.2559
 7098W        W 7962  12.035  21.564   4.219  0.0778  0.3036  0.2369
 7099W        W 7963  20.229  14.775   8.148 -0.1887  0.1006 -0.1575
 7100W        W 7964   1.992   3.257   6.682 -0.1687 -0.0064  0.0591
 7101W        W 7965   1.640   4.611  23.820  0.0289 -0.1731 -0.1111
 7102W        W 7966  21.382   9.741   7.356  0.1444 -0.0667  0.1314
 7103W        W 7967   1.442   1.481  27.542 -0.2801 -0.0497 -0.0558
 7104W        W 7968  22.460   7.560   4.249  0.3807 -0.3975  0.0812
 7105W        W 7969   7.584  23.511   3.489  0.0962  0.2831 -0.4833
 7106W        W 7970  20.585  13.675   1.153  0.1901  0.1220  0.1972
 7107W        W 7971  15.138   4.943   7.086  0.2435  0.0820 -0.1595
 7108W        W 7972   9.930  12.445  11.467  0.3799  0.1078 -0.0832
 7109W        W 7973   5.185  26.586   1.085 -0.5086  0.1196  0.0582
 7110W        W 7974   0.817   7.894   5.966 -0.0606 -0.1405  0.0763
 7111W        W 7975   8.672   2.542  25.536  0.0360  0.2129  0.1742
 7112W        W 7976  26.434   4.567   8.862 -0.0436  0.1532  0.0164
 7113W        W 7977  24.422   4.234   4.477  0.2948  0.1003 -0.0739
 7114W        W 7978  21.090  12.055   1.748  0.1544  0.0589 -0.1208
 7115W        W 7979  14.490  21.286  24.896  0.0696  0.0718  0.3486
 7116W        W 7980  25.609  27.214   8.784 -0.1934 -0.1248 -0.1159
 7117W        W 7981  25.137  23.858  14.674 -0.0136  0.4566  0.0859
 7118W        W 7982  17.467   5.345  18.669  0.1284  0.0484 -0.0324
 7119W        W 7983  23.516  15.397  23.235 -0.1011 -0.1391  0.1669
 7120W        W 7984  14.534  16.215  12.048  0.1160 -0.0199 -0.0606
 7121W        W 7985   3.086  13.700  26.634  0.0390 -0.0939  0.0468
 7122W        W 7986   7.738   5.648  18.123 -0.0508 -0.2235  0.0228
 7123W        W 7987   3.956   1.572  17.383 -0.1952 -0.2932 -0.1312
 7124W        W 7988  24.430   1.692   2.878  0.1912 -0.0644  0.1265
 7125W        W 7989   6.499   4.048  10.179  0.0835  0.0435 -0.0655
 7126W        W 7990  16.380  28.672   7.343 -0.0641 -0.1154  0.2835
 7127W        W 7991  11.994   4.386  22.498  0.1375 -0.0352  0.2103
 7128W        W 7992   1.671  10.253   1.773  0.3488  0.2711  0.0779
 7129W        W 7993  25.111   6.465  24.220 -0.0062 -0.1134 -0.0911
 7130W        W 7994  12.432   3.991  15.820  0.1393 -0.1401 -0.2244
 7131W        W 7995   7.904  17.392  14.625 -0.0966  0.0763 -0.0390
 7132W        W 7996  15.951   4.055  27.748  0.0061  0.1781 -0.1511
 7133W        W 7997   2.148  27.432  28.852  0.0934 -0.1266 -0.1093
 7134W        W 7998  12.114  28.655   2.532 -0.1177  0.4404 -0.1748
 7135W        W 7999  20.015  20.874   6.419 -0.3188 -0.1374 -0.2769
 7136W        W 8000  21.182  16.324  21.066 -0.0518 -0.3857 -0.1657
 7137W        W 8001   6.892   0.760   6.078 -0.0856  0.1294  0.1240
 7138W        W 8002   6.652  17.160   2.488 -0.1773 -0.0424 -0.0912
 7139W        W 8003   0.400   7.299  24.399 -0.1120 -0.1689 -0.0176
 7140W        W 8004  19.404  20.574   0.983 -0.0382  0.0332  0.1831
 7141W        W 8005  17.124   8.207  16.105  0.3448 -0.1878 -0.1841
 7142W        W 8006  19.867  17.392   1.860 -0.3590 -0.0264  0.3621
 7143W        W 8007   2.698  12.968  13.949  0.0334  0.1180 -0.2860
 7144W        W 8008  12.605  13.841  14.409  0.0565 -0.4432 -0.3864
 7145W        W 8009   1.126  17.279   8.986  0.0608  0.0168 -0.0305
 7146W        W 8010   7.927  14.697  26.668 -0.0961 -0.1890 -0.0386
 7147W        W 8011  10.781   0.368  21.384  0.1323 -0.0625  0.0928
 7148W        W 8012  26.050   2.703  13.389 -0.0699 -0.1197  0.1606
 7149W        W 8013   9.102  20.137  10.426 -0.2016 -0.4854 -0.2167
 7150W        W 8014   6.012   9.560  16.918  0.0580  0.3445 -0.2913
 7151W        W 8015  23.537   1.576   4.986  0.1287  0.0701 -0.1560
 7152W        W 8016  10.091  18.917  12.155  0.2383  0.1984 -0.0094
 7153W        W 8017   9.083  16.396  20.160  0.2542 -0.1530  0.0051
 7154W        W 8018  23.707  17.566  28.919  0.0147 -0.2370 -0.2973
 7155W        W 8019  13.406  15.773   3.765 -0.3373  0.0233  0.2593
 7156W        W 8020   7.934  18.653  14.063 -0.1722 -0.0515 -0.1791
 7157W        W 8021   1.299  22.650  11.911 -0.0472  0.1077  0.0120
 7158W        W 8022   1.998  16.669  23.284  0.2371  0.1390  0.1530
 7159W        W 8023   5.306  17.629  17.947 -0.2268 -0.3560  0.0859
 7160W        W 8024   7.167  11.284   6.178  0.1104 -0.2291 -0.1512
 7161W        W 8025  27.466   0.606   5.225 -0.0413 -0.3733  0.1496
 7162W        W 8026  23.026  12.380  25.034 -0.0737 -0.0649  0.0728
 7163W        W 8027  20.226   2.951  13.090  0.1107  0.2692  0.0515
 7164W        W 8028  12.213  25.240   0.151 -0.0401 -0.2967 -0.5233
 7165W        W 8029  22.687  11.199   8.279 -0.1612 -0.0615 -0.1976
 7166W        W 8030  17.439   3.233  28.421  0.1650 -0.2539  0.0174
 7167W        W 8031  19.764   4.754  25.837  0.1801 -0.2065 -0.5050
 7168W        W 8032  21.496   6.522   6.390  0.2669 -0.1087  0.2179
 7169W        W 8033  19.339  10.829   5.546  0.0148  0.0804  0.1349
 7170W        W 8034   2.694  15.913  22.220  0.1412 -0.0547  0.1278
 7171W        W 8035   9.521  12.721   1.914 -0.0391  0.1647 -0.1105
 7172W        W 8036  28.733   4.292  17.970 -0.1096  0.2184 -0.0077
 7173W        W 8037   7.226  11.022  13.878  0.0620  0.0303  0.2834
 7174W        W 8038  11.229  25.162  25.392 -0.0218 -0.1813  0.0075
 7175W        W 8039  27.439  15.627   2.111  0.0842 -0.1375  0.0649
 7176W        W 8040  14.061  15.789  18.545 -0.0225 -0.0476  0.3443
 7177W        W 8041   3.454  10.263   3.409  0.0885  0.4466 -0.0023
 7178W        W 8042  11.650  28.987  10.067  0.0820  0.2169  0.0039
 7179W        W 8043  21.638   5.448   4.853  0.1362  0.0843 -0.1004
 7180W        W 8044   8.739  27.266  26.953  0.1518 -0.0851 -0.2514
 7181W        W 8045  20.335   7.535   8.129 -0.0666 -0.0076 -0.2135
 7182W        W 8046  19.879   8.568  12.450 -0.1828  0.0881 -0.0214
 7183W        W 8047  14.228   0.464   6.100 -0.1402 -0.2313 -0.0359
 7184W        W 8048  11.810  12.218   1.696  0.2294 -0.0196  0.1874
 7185W        W 8049  28.707   6.914  22.266 -0.0778  0.1846  0.0872
 7186W        W 8050  19.188   4.356   6.672  0.0415 -0.2348 -0.1967
 7187W        W 8051   3.755  23.474   2.403  0.0001 -0.0641  0.2914
 7188W        W 8052   3.673  11.803   2.284 -0.0884 -0.1864 -0.1516
 7189W        W 8053   2.004   2.582  22.548 -0.0946  0.1955 -0.1989
 7190W        W 8054  26.565   8.534  13.916 -0.0649  0.1164  0.0300
 7191W        W 8055  21.709   3.255   2.214 -0.2490 -0.2627  0.0008
 7192W        W 8056  27.863   3.832  25.290  0.0947 -0.3669 -0.0201
 7193W        W 8057  18.215   3.330   9.222  0.2411 -0.1588  0.2284
 7194W        W 8058  12.704  17.048   5.027  0.0884  0.0024  0.1937
 7195W        W 8059  21.983  10.412  10.757 -0.0475 -0.0484 -0.1629
 7196W        W 8060  23.057  14.728   7.895  0.1323 -0.0433  0.2522
 7197W        W 8061  26.152  25.296   9.125  0.5324  0.0253 -0.0655
 7198W        W 8062   1.803   1.132  10.244  0.2357  0.0835  0.0044
 7199W        W 8063  22.725  27.464  12.731  0.0166  0.1740  0.2581
 7200W        W 8064  21.286   2.440   8.228 -0.2286 -0.4701 -0.1879
 7201W        W 8065  15.426   4.174  10.117 -0.1277 -0.0108  0.3946
 7202W        W 8066   1.285  17.533  11.354 -0.2795  0.0759  0.0140
 7203W        W 8067   2.454   5.342  11.228 -0.1670  0.2158  0.2355
 7204W        W 8068  18.992   3.344  11.217  0.2651 -0.1800  0.0783
 7205W        W 8069  12.494  26.894  28.203  0.2957  0.1472 -0.2661
 7206W        W 8070  15.915  28.046  28.383  0.2679 -0.0757 -0.0079
 7207W        W 8071   5.123  22.339  28.807  0.1465  0.3973 -0.2119
 7208W        W 8072  10.955   0.434   0.595  0.1528  0.0115  0.2930
 7209W        W 8073  26.165  21.374  28.499  0.2681 -0.1073 -0.1914
 7210W        W 8074  24.936   8.718  16.737 -0.0743  0.0369 -0.1300
 7211W        W 8075  21.307   2.377  19.099  0.3234  0.1604  0.0929
 7212W        W 8076   9.210  10.543   6.702  0.2749 -0.0596  0.1411
 7213W        W 8077  27.217  25.629   3.575 -0.0402  0.0463  0.1156
 7214W        W 8078  26.954   6.539  13.938  0.1559 -0.1839  0.1100
 7215W        W 8079   9.276  18.262   1.104  0.3219 -0.1432 -0.0878
 7216W        W 8080  20.675   5.339   0.575  0.1394  0.1693  0.1993
 7217W        W 8081  28.916  17.244  24.567 -0.0728  0.3052 -0.0609
 7218W        W 8082  27.789  19.142   6.841 -0.0276 -0.1358 -0.1926
 7219W        W 8083  17.545  19.420  23.184 -0.1628  0.0819 -0.0892
 7220W        W 8084   6.905   6.168  24.907 -0.1354  0.2417  0.5319
 7221W        W 8085  21.501  22.759  14.662  0.0954  0.1834  0.0217
 7222W        W 8086  10.963   8.939   2.059 -0.1971 -0.0045  0.0965
 7223W        W 8087  28.384   3.823  28.953  0.1620  0.0911 -0.1857
 7224W        W 8088  12.123  20.840  19.589  0.0516 -0.1179 -0.0786
 7225W        W 8089  21.201  22.877   5.128 -0.1796 -0.1091  0.1021
 7226W        W 8090   1.253   4.924  15.050  0.3000  0.1863  0.0419
 7227W        W 8091   2.303   9.543  12.732 -0.1221  0.0072 -0.2204
 7228W        W 8092  10.863  10.908   3.549 -0.0129 -0.0914  0.3037
 7229W        W 8093   0.083   6.408  13.955 -0.1459  0.1423  0.1468
 7230W        W 8094   1.931  23.033  22.976 -0.0125 -0.1550 -0.3698
 7231W        W 8095  12.072  22.055  19.253  0.3664  0.2636 -0.2046
 7232W        W 8096  27.501  25.506   4.007 -0.2310 -0.1412  0.1089
 7233W        W 8097   1.955   5.945   3.879  0.2205  0.1811 -0.2307
 7234W        W 8098  10.649   4.035  26.168 -0.0589  0.0336  0.2923
 7235W        W 8099  12.305   4.394  21.176 -0.0922  0.0500  0.1876
 7236W        W 8100  11.290  23.987  28.491 -0.2474  0.1183 -0.1154
 7237W        W 8101  27.984  16.467  19.150  0.1628  0.1018 -0.2095
 7238W        W 8102  12.780  18.708  12.227  0.1096  0.1149 -0.4527
 7239W        W 8103  23.368  23.907  16.301 -0.1104  0.2166 -0.2193
 7240W        W 8104   9.474  15.459  21.299  0.0818 -0.0103 -0.0667
 7241W        W 8105  29.041   7.446   9.972  0.0079 -0.0171  0.1170
 7242W        W 8106  11.276   1.094  19.487 -0.0620  0.0673  0.0066
 7243W        W 8107  16.379   3.208   2.573  0.3358 -0.0221  0.0195
 7244W        W 8108  23.956  22.276   5.804  0.2403 -0.2285  0.1002
 7245W        W 8109  18.953  25.279  23.766 -0.1395 -0.1473  0.1687
 7246W        W 8110  29.023  24.281   4.175 -0.2168 -0.2287 -0.2635
 7247W        W 8111  11.203  15.630  16.883  0.1196 -0.0936  0.3092
 7248W        W 8112  10.351   3.633   5.745  0.0013 -0.2636  0.1426
 7249W        W 8113  28.165  26.039  27.314 -0.0584 -0.2957  0.0061
 7250W        W 8114  28.508   0.558   8.372 -0.1795  0.0707  0.1939
 7251W        W 8115   1.741  27.934   1.951  0.1087 -0.1576 -0.0560
 7252W        W 8116  13.706  13.283  17.236  0.1524 -0.3041 -0.0610
 7253W        W 8117  19.501   9.536   1.553  0.1621  0.1170  0.1969
 7254W        W 8118  25.728  10.387  12.651  0.1180 -0.3047  0.1477
 7255W        W 8119  22.643  25.777  19.030  0.0981 -0.0515  0.2760
 7256W        W 8120  11.152   4.516   5.972 -0.3187  0.0543  0.0038
 7257W        W 8121  11.259  21.754   4.708  0.1431 -0.0983 -0.0598
 7258W        W 8122  11.235   9.009  25.399  0.0169 -0.0472  0.0454
 7259W        W 8123   9.302   0.940   0.970 -0.0282 -0.1017  0.3497
 7260W        W 8124  26.886   3.810  14.907  0.0413  0.0364  0.1089
 7261W        W 8125   1.265   2.285   6.930  0.0697 -0.0493  0.0686
 7262W        W 8126   6.056  11.682  12.728 -0.1782 -0.1817  0.0090
 7263W        W 8127   9.054   0.644  24.363 -0.0599 -0.0982 -0.3416
 7264W        W 8128   0.430  12.859  12.679 -0.0128 -0.1081  0.2752
 7265W        W 8129  26.597   8.964  21.509 -0.2716 -0.2624 -0.1439
 7266W        W 8130  26.114  25.759   1.296 -0.1414 -0.0616  0.1075
 7267W        W 8131  25.435   9.802  10.637 -0.3760 -0.0207  0.0030
 7268W        W 8132   1.513   5.553  25.193  0.0255  0.0796  0.1409
 7269W        W 8133   7.689  11.311  22.250  0.0697 -0.1438 -0.0040
 7270W        W 8134  24.334  19.595   9.039  0.3264 -0.0170  0.0129
 7271W        W 8135   4.533   1.753  28.039  0.0111 -0.4774 -0.0031
 7272W        W 8136   0.156  17.867   6.168 -0.1400  0.0321  0.0645
 7273W        W 8137  15.261  13.274   7.968 -0.2468 -0.2059 -0.2260
 7274W        W 8138  18.341   2.744   6.356 -0.0239  0.0142  0.0624
 7275W        W 8139   0.234   6.456   6.982  0.0654  0.1000  0.1594
 7276W        W 8140   3.227  10.178   9.242 -0.3036  0.1081  0.1402
 7277W        W 8141  25.307  11.325   8.890 -0.1156  0.1425 -0.0255
 7278W        W 8142   0.486   1.271   5.322 -0.1157 -0.0250 -0.2378
 7279W        W 8143   2.510  10.617  21.509 -0.0550 -0.0455 -0.1526
 7280W        W 8144  12.034   9.188  28.008 -0.2709 -0.0493  0.0983
 7281W        W 8145  20.955  15.259  13.219  0.2030 -0.0110  0.0455
 7282W        W 8146  20.473   3.242  19.629  0.0439 -0.2723  0.1099
 7283W        W 8147  16.217  28.131  27.457 -0.0028  0.1623 -0.0229
 7284W        W 8148  13.139  26.305  26.991 -0.0199  0.0704 -0.0923
 7285W        W 8149  10.093   7.084   0.176 -0.1385 -0.0993 -0.1627
 7286W        W 8150  14.911  15.075  15.337  0.1664  0.2841  0.1709
 7287W        W 8151  19.286  11.405   4.120  0.0746  0.0663  0.1403
 7288W        W 8152  19.002   7.127  14.115  0.0165  0.1107 -0.0371
 7289W        W 8153   1.772  29.010  12.777 -0.2229  0.0733  0.2009
 7290W        W 8154  13.634  15.482   9.325 -0.1822 -0.3908  0.1048
 7291W        W 8155   4.697  26.096   5.301 -0.3065  0.0881 -0.0733
 7292W        W 8156  23.383  25.945  25.739  0.1735 -0.0280  0.2429
 7293W        W 8157  12.021  12.272  28.572 -0.0217  0.2569 -0.2293
 7294W        W 8158   5.368  11.280   0.876 -0.0052 -0.2273 -0.2845
 7295W        W 8159  26.603   6.418   7.075 -0.0417 -0.0651 -0.0984
 7296W        W 8160   1.310  21.291   3.416  0.0619  0.1902  0.0775
 7297W        W 8161  12.428  22.138  16.569  0.0385  0.0893  0.0594
 7298W        W 8162  13.655   1.560   7.996  0.3483 -0.2379  0.2566
 7299W        W 8163   2.338   1.651  16.782 -0.4049 -0.1422 -0.1087
 7300W        W 8164   3.817  19.815   3.609 -0.1105  0.1604 -0.0895
 7301W        W 8165  15.911  24.107  10.175 -0.1157 -0.0216 -0.1543
 7302W        W 8166  20.358   7.599   4.074 -0.0365  0.1576 -0.0217
 7303W        W 8167   0.561  23.992  23.547 -0.2649  0.0137 -0.3524
 7304W        W 8168  28.708   8.017  15.560  0.5317  0.1605 -0.2008
 7305W        W 8169  15.462   3.303  19.754 -0.0070 -0.4980 -0.1015
 7306W        W 8170   6.334  26.659   6.527  0.0027 -0.0850 -0.0448
 7307W        W 8171  14.577   2.844  28.988  0.1157 -0.0421  0.1417
 7308W        W 8172   9.904  18.374   9.263  0.1489  0.2634 -0.2720
 7309W        W 8173   1.535   9.759   8.248  0.2088  0.1977  0.1550
 7310W        W 8174   4.423   9.746  17.481 -0.0924  0.1121  0.1008
 7311W        W 8175  10.546   1.299   2.029  0.1304  0.1893 -0.2687
 7312W        W 8176  12.714  22.508  20.513 -0.2605 -0.0332 -0.0746
 7313W        W 8177   0.717   8.361  12.373  0.1909 -0.0448  0.0491
 7314W        W 8178  19.896   8.519  23.113  0.0612 -0.1788 -0.3352
 7315W        W 8179   9.505  10.173   6.442  0.2066  0.1705 -0.1656
 7316W        W 8180   1.359  14.166  26.702  0.0429  0.0064  0.2012
 7317W        W 8181  20.711  14.134   1.233  0.0522  0.1179 -0.0340
 7318W        W 8182   2.766   9.598  28.169  0.3568 -0.1085 -0.2880
 7319W        W 8183  16.346  15.368   2.678  0.2398 -0.0218  0.1335
 7320W        W 8184  24.602  16.703   5.540 -0.1753 -0.0943 -0.3482
 7321W        W 8185  18.260   7.577   5.450 -0.2204 -0.2547 -0.2306
 7322W        W 8186  13.761  23.953  20.128 -0.3274  0.2546 -0.2923
 7323W        W 8187  11.398  21.474  16.730  0.0154  0.1622 -0.0092
 7324W        W 8188   8.025  16.677  10.096 -0.1576  0.1691 -0.0612
 7325W        W 8189  12.978   8.678  19.081  0.0469  0.0814 -0.2307
 7326W        W 8190  28.775  10.336   0.527 -0.3548  0.1865  0.1326
 7327W        W 8191   8.772  20.964   7.484  0.1109  0.1414 -0.0878
 7328W        W 8192  26.076  22.064  28.996  0.1892 -0.1943 -0.1636
 7329W        W 8193  13.171   7.957   8.459  0.1626  0.2251  0.1209
 7330W        W 8194  23.510  19.495  24.581 -0.0725 -0.2304 -0.0177
 7331W        W 8195   2.365  22.184  12.559  0.4262 -0.4028 -0.1166
 7332W        W 8196  24.567   8.260  23.405  0.1940  0.1231 -0.1231
 7333W        W 8197   7.578   4.110  11.303  0.2612  0.0924 -0.2323
 7334W        W 8198   4.962  24.181   2.474 -0.2421  0.1589  0.0994
 7335W        W 8199  17.047  20.173  25.986  0.1285  0.2225  0.1441
 7336W        W 8200  25.802   8.092  22.586  0.0909 -0.0682 -0.2522
 7337W        W 8201  22.465   3.983   4.762  0.1489  0.2989  0.3089
 7338W        W 8202  23.860  10.711  19.345 -0.1588 -0.2503 -0.0641
 7339W        W 8203   8.793  23.724   4.294 -0.0360  0.0699  0.1541
 7340W        W 8204   2.939  18.849   4.445  0.2606 -0.3390 -0.0140
 7341W        W 8205   2.109   6.868   9.333  0.3323  0.1638 -0.0412
 7342W        W 8206  26.272  16.796  27.691 -0.3670  0.0539  0.4670
 7343W        W 8207   0.121  14.608  11.107  0.0606  0.0504  0.2014
 7344W        W 8208   8.067  10.803   4.260  0.0227 -0.2473 -0.2218
 7345W        W 8209   7.442   6.847  18.481  0.3284  0.1832  0.3602
 7346W        W 8210  18.346  16.684  19.640  0.2280 -0.1592  0.0747
 7347W        W 8211  20.078  14.351  15.723 -0.1281  0.2756 -0.1834
 7348W        W 8212  10.905  15.143  20.131 -0.0796  0.0471  0.2564
 7349W        W 8213  27.969   7.670  16.485  0.0497 -0.1060  0.2005
 7350W        W 8214  28.432  19.148  25.303  0.0374 -0.2617  0.1421
 7351W        W 8215  26.245   8.575   4.162  0.2869 -0.0397 -0.3096
 7352W        W 8216  17.169   5.454   8.343  0.0797  0.2014 -0.2045
 7353W        W 8217  14.288  11.119   4.597 -0.1217  0.0943  0.0208
 7354W        W 8218  21.874   9.895  12.078  0.0226  0.2043 -0.3663
 7355W        W 8219   2.556  26.034  19.213 -0.0284 -0.2565 -0.2077
 7356W        W 8220  27.162   4.407   3.658 -0.0738 -0.1406  0.0443
 7357W        W 8221  10.434  13.277  15.002  0.1147  0.2117 -0.0273
 7358W        W 8222  14.758   3.103   7.947 -0.4504  0.0644  0.2013
 7359W        W 8223   7.489   5.532   7.333  0.1273  0.1829  0.0062
 7360W        W 8224  22.859  25.507   0.796  0.1092  0.3129 -0.1939
 7361W        W 8225  24.244   3.555  19.039  0.2238 -0.1877  0.1366
 7362W        W 8226  15.947   8.764   7.178 -0.2098  0.0116  0.0215
 7363W        W 8227  20.728  13.326  14.059  0.1287 -0.0422 -0.0480
 7364W        W 8228   2.293  10.160   1.155 -0.1843 -0.0572  0.2437
 7365W        W 8229  15.478   7.134  20.697  0.2499 -0.0342 -0.5001
 7366W        W 8230  25.486   8.207  19.658 -0.1838  0.2579  0.1496
 7367W        W 8231  11.114  29.053   0.666  0.4339  0.4867 -0.0399
 7368W        W 8232  11.627   2.264   9.913  0.0628  0.1557 -0.1709
 7369W        W 8233  27.974  16.093  23.371 -0.2268 -0.0335 -0.0664
 7370W        W 8234   4.777  26.261   1.081 -0.0700 -0.0202 -0.1342
 7371W        W 8235  11.078   6.127   9.448  0.1612 -0.3130  0.1706
 7372W        W 8236   3.402  11.086  21.056 -0.1197  0.0168  0.0337
 7373W        W 8237  19.508   4.737   9.566  0.2197 -0.1091  0.0664
 7374W        W 8238  13.293   1.797  15.157 -0.2486  0.3059  0.0067
 7375W        W 8239   1.475   7.324  18.509  0.0807 -0.1114  0.1708
 7376W        W 8240   5.121   6.069  28.183  0.1460  0.1104 -0.1057
 7377W        W 8241   8.878   9.548   2.694  0.2361 -0.1246 -0.0843
 7378W        W 8242   0.030  17.535   9.057  0.0332 -0.1721 -0.3431
 7379W        W 8243  27.922  25.704   4.409  0.0380 -0.1378  0.0884
 7380W        W 8244  24.506   9.328  23.641 -0.1429 -0.0568  0.0707
 7381W        W 8245   7.490   6.321  11.635  0.1274 -0.3685  0.1515
 7382W        W 8246  18.310   9.111  24.819  0.1843  0.2127  0.2206
 7383W        W 8247   3.380  16.307   1.125  0.0783  0.0136 -0.0662
 7384W        W 8248   0.643   6.379  15.436 -0.1406 -0.1713  0.2875
 7385W        W 8249  16.088   6.687   6.757 -0.1974  0.4065  0.0407
 7386W        W 8250   2.531  13.112   0.031 -0.1056 -0.2871 -0.2374
 7387W        W 8251   1.111   9.487   8.580 -0.0688  0.1624  0.1135
 7388W        W 8252   9.160   3.484   1.613 -0.0204  0.1274 -0.0045
 7389W        W 8253  11.609   3.358   4.552 -0.3210  0.0617  0.3062
 7390W        W 8254  23.938  16.082  24.553 -0.1292 -0.4647  0.2418
 7391W        W 8255  11.866   6.261  24.018  0.1792 -0.0281  0.0141
 7392W        W 8256   0.160   9.540  27.359  0.1671 -0.2337  0.1535
 7393W        W 8257   4.950  22.903   9.047  0.3401  0.0560 -0.2173
 7394W        W 8258   0.115   8.685  13.611 -0.1300 -0.1025 -0.1542
 7395W        W 8259   2.386  25.835  13.763 -0.1535 -0.1192 -0.1427
 7396W        W 8260   8.341  20.343  25.318 -0.0731  0.0251 -0.1692
 7397W        W 8261   7.388  20.291   4.942  0.0852  0.0646 -0.0501
 7398W        W 8262  25.512  14.197  24.549  0.0847 -0.0761 -0.1471
 7399W        W 8263  15.892  16.374   4.155  0.4108  0.4498 -0.2983
 7400W        W 8264  28.853  27.992  13.253 -0.1222  0.1588 -0.2259
 7401W        W 8265  13.159  28.115   7.874  0.2310  0.1290 -0.0677
 7402W        W 8266  26.305   0.138  24.551  0.1036  0.0294 -0.2491
 7403W        W 8267   9.252  15.425   6.099  0.2004 -0.0998 -0.5492
 7404W        W 8268  16.666  22.115  14.530 -0.1093  0.1149  0.1127
 7405W        W 8269   7.112   5.707   4.339  0.2321  0.1439  0.2553
 7406W        W 8270  10.571  21.293   9.131  0.0133 -0.1955  0.2081
 7407W        W 8271  11.537  11.196  23.171  0.0198 -0.1350  0.1073
 7408W        W 8272   8.123  21.671   7.990 -0.0682 -0.1416  0.3811
 7409W        W 8273  20.420  14.905  18.110 -0.4326 -0.0260 -0.0927
 7410W        W 8274  20.711  15.816   9.511  0.0477 -0.0953 -0.1583
 7411W        W 8275  12.997  15.767  15.789 -0.1896  0.0022 -0.3617
 7412W        W 8276   0.463   9.821   0.212 -0.0528 -0.0087 -0.0021
 7413W        W 8277  26.488  13.012  20.012  0.0752  0.2560 -0.0504
 7414W        W 8278  22.733  17.063  25.574  0.0944 -0.2331  0.0376
 7415W        W 8279  19.585   8.015   9.548  0.0500  0.0231  0.1846
 7416W        W 8280   5.799  17.837  26.502 -0.1096 -0.1116 -0.0255
 7417W        W 8281  25.545   2.762   2.784  0.2649  0.5848  0.2401
 7418W        W 8282   6.191  29.004  21.588 -0.1284  0.1187 -0.0726
 7419W        W 8283  27.745   5.747  12.246 -0.2733 -0.0407  0.1438
 7420W        W 8284   9.425  14.130  10.126 -0.1375 -0.1485  0.1029
 7421W        W 8285   0.047   0.953  18.910  0.1955 -0.1323  0.2578
 7422W        W 8286  22.858   5.768  10.104 -0.2277 -0.1973 -0.2998
 7423W        W 8287   8.827  17.882  11.696  0.0650  0.0593 -0.1252
 7424W        W 8288  27.827  10.205  10.192  0.1206 -0.3616 -0.0181
 7425W        W 8289   0.303  17.089  12.305  0.2566  0.1138  0.1442
 7426W        W 8290   7.666   5.310  19.756 -0.1617  0.1636  0.1419
 7427W        W 8291  23.426   9.068  28.012  0.1599  0.2601 -0.1429
 7428W        W 8292  16.264  27.309  20.273 -0.2386 -0.1504 -0.1957
 7429W        W 8293   5.599   4.064  11.514 -0.3946 -0.2015  0.1527
 7430W        W 8294  10.857  12.081   1.779 -0.0289 -0.0267  0.0481
 7431W        W 8295   4.763  16.101  14.004  0.2828  0.0365 -0.0785
 7432W        W 8296   0.956  13.913  27.748  0.2697  0.3514 -0.0036
 7433W        W 8297   1.294   3.422  15.234  0.1664 -0.1092  0.1127
 7434W        W 8298   5.877   4.075   7.219  0.2579  0.2902  0.0618
 7435W        W 8299  26.790   2.041   7.804 -0.5396  0.0798 -0.0535
 7436W        W 8300   0.314   3.319  26.079 -0.1506  0.2416  0.3525
 7437W        W 8301  27.302   3.278   5.496 -0.1194 -0.1009 -0.1987
 7438W        W 8302   5.546  12.471   8.949 -0.2356  0.0794  0.1490
 7439W        W 8303  28.028   8.547  23.921 -0.1097 -0.3116 -0.0925
 7440W        W 8304  12.472   6.727  28.708 -0.0774  0.0715 -0.1043
 7441W        W 8305  15.208  13.078   1.603 -0.1800 -0.0004  0.0410
 7442W        W 8306  17.321   6.499   7.778  0.1623  0.1707  0.1473
 7443W        W 8307   8.609   3.691  20.471  0.1049  0.1289  0.2781
 7444W        W 8308   2.828  12.228  15.005  0.0068 -0.1269  0.1038
 7445W        W 8309  14.276  13.596   9.550 -0.0716  0.1312  0.0242
 7446W        W 8310  16.745  18.186  14.263  0.1577  0.0083 -0.0870
 7447W        W 8311   5.539   2.675  10.288 -0.0652 -0.0373 -0.1219
 7448W        W 8312   3.978   3.289  13.043 -0.3480  0.2065  0.2070
 7449W        W 8313  23.425  28.848   7.675  0.0033  0.1058  0.1663
 7450W        W 8314  22.050   7.011  23.272  0.1317  0.1030  0.0079
 7451W        W 8315   8.969   9.790   4.231 -0.1646  0.1981 -0.2517
 7452W        W 8316  16.169   1.387  15.977  0.0169 -0.0480  0.1018
 7453W        W 8317   5.801  18.466  10.972 -0.0678 -0.2214 -0.0123
 7454W        W 8318  15.906  11.934  18.387  0.2351  0.1131  0.1274
 7455W        W 8319  25.282  12.817   6.887  0.0254 -0.1612 -0.0001
 7456W        W 8320   4.551   3.548  23.099  0.0773 -0.1345 -0.3185
 7457W        W 8321   5.815  13.437  21.850  0.2324  0.0441  0.0521
 7458W        W 8322   0.546   0.453  14.448  0.0473  0.1985 -0.1598
 7459W        W 8323   6.689  22.994   8.153  0.0584 -0.2248  0.1004
 7460W        W 8324   2.352   1.457   7.027  0.0050  0.0617  0.0317
 7461W        W 8325  24.254  14.636  27.173  0.1173 -0.4261  0.1178
 7462W        W 8326   7.028   7.868  13.683 -0.1666 -0.1209  0.1693
 7463W        W 8327  10.291  27.072  16.631  0.3205  0.1557  0.1714
 7464W        W 8328  25.735  18.623  13.397  0.2290  0.4948 -0.4890
 7465W        W 8329  22.975   5.716   4.804  0.0625  0.0184  0.0792
 7466W        W 8330   8.647  21.580   9.941  0.2351  0.1911 -0.0014
 7467W        W 8331  17.018  21.665  10.448  0.3197 -0.0217  0.2985
 7468W        W 8332   7.873  23.782  12.577  0.0126  0.3353  0.2446
 7469W        W 8333  10.222   8.724  19.267 -0.0498 -0.1561  0.0392
 7470W        W 8334   1.155  18.979  17.942 -0.2004  0.3391 -0.1216
 7471W        W 8335  18.715   8.255   6.731  0.1589  0.1156 -0.2476
 7472W        W 8336   2.149  12.898   0.992  0.1453  0.2596  0.1032
 7473W        W 8337  26.614   9.101  27.610  0.0314 -0.1836 -0.1781
 7474W        W 8338   1.964  27.058  25.380 -0.3843 -0.2051  0.2270
 7475W        W 8339  20.303  13.750  16.893 -0.1596 -0.0203  0.1470
 7476W        W 8340  18.699   5.487  16.052 -0.1561 -0.1610  0.3161
 7477W        W 8341  24.744   5.072  17.183 -0.0095 -0.2002  0.1606
 7478W        W 8342  15.062  10.927   4.368 -0.0229 -0.0792 -0.0557
 7479W        W 8343   2.447  10.080  25.144 -0.1057  0.1334 -0.0452
 7480W        W 8344  16.119  13.570  15.722  0.2038 -0.3783 -0.2906
 7481W        W 8345   7.271  14.136  14.441 -0.0067 -0.2957  0.0627
 7482W        W 8346   7.418   2.295  22.330 -0.1206  0.1151  0.1876
 7483W        W 8347   6.378  20.820  27.483 -0.1673 -0.0011 -0.0571
 7484W        W 8348  16.742   9.446  29.111 -0.1150 -0.0385 -0.3513
 7485W        W 8349  13.652  10.303   6.580  0.0169 -0.1569  0.2802
 7486W        W 8350   4.378  28.337   0.760 -0.3055  0.1154  0.2782
 7487W        W 8351   8.127   6.637  15.710 -0.0278 -0.1336 -0.0234
 7488W        W 8352   0.311   8.068   9.828 -0.3070 -0.1359 -0.1225
 7489W        W 8353   6.820   0.715  21.074 -0.1113  0.2508 -0.3321
 7490W        W 8354   6.134   8.342  14.451 -0.1885 -0.2049 -0.0101
 7491W        W 8355  10.913   4.964  28.486 -0.2397  0.1932 -0.2155
 7492W        W 8356  24.227  13.619   1.504 -0.0335 -0.1093  0.0117
 7493W        W 8357  21.258  12.816  26.984 -0.1834 -0.0335  0.0862
 7494W        W 8358   9.240  24.364  12.322  0.0374  0.2814  0.3889
 7495W        W 8359  13.513  25.803  13.748 -0.2069 -0.1761  0.1124
 7496W        W 8360  17.919   9.011  25.658 -0.0185 -0.2171 -0.0169
 7497W        W 8361  23.521   5.922  10.778 -0.3207 -0.0575 -0.1889
 7498W        W 8362   8.225  11.599   6.297  0.0998 -0.1341 -0.1439
 7499W        W 8363   5.960   9.390  19.318  0.0239 -0.2748  0.1251
 7500W        W 8364  17.019  11.396  11.926  0.1417 -0.0717  0.2233
 7501W        W 8365   7.339  23.013  21.095  0.0789  0.2680 -0.1372
 7502W        W 8366  28.592  28.671  12.358  0.1627  0.0170 -0.3128
 7503W        W 8367  14.865   6.428   4.712  0.0184 -0.0499  0.3076
 7504W        W 8368  10.200  27.679  19.408 -0.0017 -0.4398 -0.0082
 7505W        W 8369  16.964   0.704  22.146  0.2129 -0.0141  0.1440
 7506W        W 8370  17.556  28.272   1.571  0.1414 -0.1702 -0.1336
 7507W        W 8371   7.764   7.813  16.673  0.0820  0.0005 -0.0171
 7508W        W 8372  24.471  16.535   6.092  0.0858 -0.0187  0.1626
 7509W        W 8373   2.259  16.870   4.136 -0.0762  0.1206 -0.1194
 7510W        W 8374  22.611   3.640  24.159  0.0993 -0.0840 -0.1068
 7511W        W 8375  11.643   1.450  15.729  0.0141 -0.1594 -0.3547
 7512W        W 8376  23.539  12.127   0.396  0.2431  0.3107  0.1496
 7513W        W 8377  13.330   5.235   6.613 -0.2247 -0.0610 -0.0121
 7514W        W 8378  20.396  11.169  15.405 -0.0911 -0.0644 -0.1225
 7515W        W 8379  11.172  13.824   3.987  0.0005  0.1501  0.0938
 7516W        W 8380  23.199  14.227  28.798  0.1732 -0.3182 -0.3271
 7517W        W 8381  15.543  12.965  23.275  0.1496  0.0384  0.0011
 7518W        W 8382  14.476   0.813   1.400  0.0905  0.0440  0.1738
 7519W        W 8383  21.765  16.390  28.276 -0.3277 -0.2247  0.1150
 7520W        W 8384   2.808   5.544  16.125  0.0625  0.0976 -0.2274
 7521W        W 8385  23.021   7.477  19.232  0.2643 -0.1347  0.1410
 7522W        W 8386  15.139   7.655   0.387 -0.0947 -0.1113 -0.0026
 7523W        W 8387   1.996   1.479   0.105  0.0599  0.4294 -0.1883
 7524W        W 8388  19.049  13.887  14.223  0.0936  0.0268  0.0111
 7525W        W 8389  20.396  13.944   2.704 -0.0777 -0.0877  0.2356
 7526W        W 8390  11.898  13.567  16.574  0.0465 -0.1738  0.1177
 7527W        W 8391  11.251   5.689  10.667  0.0137  0.1436 -0.0182
 7528W        W 8392  18.742  23.078   4.350  0.0452 -0.5377  0.0476
 7529W        W 8393  25.687  27.908   9.184 -0.2829  0.0553  0.0607
 7530W        W 8394   0.198   3.759   6.793  0.0049  0.3962 -0.1690
 7531W        W 8395  10.837  28.972   4.404  0.0420  0.4536  0.3107
 7532W        W 8396   8.170  20.652   3.111 -0.0478 -0.1323 -0.0658
 7533W        W 8397   5.792  19.310  12.302 -0.1960  0.0417 -0.1401
 7534W        W 8398  18.958  18.950   5.340  0.1326 -0.0649  0.1320
 7535W        W 8399  10.425  25.498   8.530  0.0190  0.1881 -0.1430
 7536W        W 8400  13.825  15.829  19.370  0.1553 -0.0710  0.1917
 7537W        W 8401  25.319   0.878  16.644 -0.3169  0.1765 -0.3152
 7538W        W 8402   3.187  27.529  24.788 -0.0953  0.1040  0.0959
 7539W        W 8403   3.346  10.552  26.556 -0.1181 -0.1327 -0.0010
 7540W        W 8404   6.264  18.517  10.664 -0.1497  0.0225 -0.1470
 7541W        W 8405  15.292  25.260  27.456  0.2752  0.0059 -0.0048
 7542W        W 8406   5.968  28.727  11.925  0.2423  0.0427  0.0853
 7543W        W 8407   4.841   9.506  27.229 -0.0524 -0.2518  0.3511
 7544W        W 8408  28.902   9.220  10.447 -0.0342  0.1081 -0.0606
 7545W        W 8409   9.935   4.697   9.309 -0.0906 -0.3601 -0.2067
 7546W        W 8410   5.295  17.043   8.914 -0.0746  0.1056 -0.1578
 7547W        W 8411  23.743  25.301  23.967  0.1325  0.3651 -0.0965
 7548W        W 8412   4.729  23.201  18.792 -0.0186  0.0579  0.0307
 7549W        W 8413   0.900  17.484   2.804  0.1299  0.2492 -0.1337
 7550W        W 8414  11.870   1.040  27.107  0.0285  0.1117  0.2023
 7551W        W 8415  20.297   8.388   8.552  0.0256 -0.2412 -0.0527
 7552W        W 8416   2.955  24.492  11.524 -0.1714 -0.2079 -0.0317
 7553W        W 8417   6.127  23.414  18.940  0.2024 -0.1532  0.1967
 7554W        W 8418   8.911  26.066  14.381  0.1273  0.3458 -0.1147
 7555W        W 8419  25.888  16.091  21.866 -0.1689 -0.0620 -0.0024
 7556W        W 8420   1.635   2.847  11.693 -0.1985 -0.0216 -0.0589
 7557W        W 8421   7.534   0.286   0.527 -0.0307  0.2225 -0.0335
 7558W        W 8422   6.082   8.537   7.201  0.0271  0.1767 -0.1727
 7559W        W 8423   0.392   1.170  17.303  0.1490 -0.0107  0.0200
 7560W        W 8424   9.448   7.279   4.529  0.2147 -0.1574  0.1549
 7561W        W 8425  27.849  12.044   6.019  0.0228  0.0895  0.1741
 7562W        W 8426  23.879   6.662   2.726  0.0933 -0.1450  0.2527
 7563W        W 8427   1.899   1.591   4.345  0.1035 -0.0356  0.2873
 7564W        W 8428   7.672  26.090  20.946 -0.3269  0.1290  0.1011
 7565W        W 8429   6.872  11.466  23.724 -0.2563  0.2182 -0.1769
 7566W        W 8430  15.958  26.396   6.266  0.0810 -0.0448  0.1494
 7567W        W 8431  23.397  12.637   6.941 -0.1223 -0.1516 -0.1432
 7568W        W 8432  23.119   9.806   4.203 -0.3846  0.2908  0.1119
 7569W        W 8433  26.860  11.956  11.313 -0.0733 -0.1090 -0.2458
 7570W        W 8434   9.019   2.955  18.487 -0.1788  0.0831  0.2016
 7571W        W 8435  15.008  17.707  14.264  0.2375 -0.0291  0.0812
 7572W        W 8436  29.048  14.175  25.334 -0.1959  0.0620  0.1648
 7573W        W 8437  18.460  16.015   4.736 -0.0930  0.0785 -0.0329
 7574W        W 8438   6.131  21.234   8.968 -0.2797  0.0024  0.3749
 7575W        W 8439  23.092   7.766   9.091  0.2944 -0.0461 -0.2802
 7576W        W 8440  13.269  24.110   4.005 -0.0485  0.0462  0.1860
 7577W        W 8441  25.803   2.012   6.089  0.1006 -0.1388  0.1289
 7578W        W 8442   5.270   3.189  18.945  0.0633 -0.0425 -0.2936
 7579W        W 8443  11.274  10.061  16.650  0.1541  0.2039 -0.0381
 7580W        W 8444  18.840   4.923  15.799  0.1394 -0.1300 -0.2072
 7581W        W 8445   2.862  10.938  27.282  0.0746  0.2656  0.0819
 7582W        W 8446  26.037  11.061   3.601 -0.1680 -0.0680  0.3881
 7583W        W 8447   0.913  20.080  16.578 -0.2501 -0.2431 -0.2700
 7584W        W 8448  21.156  17.638  18.336 -0.0538 -0.1384 -0.0881
 7585W        W 8449  23.543  15.065  14.620 -0.2088 -0.1209 -0.3759
 7586W        W 8450  26.478  20.451   6.136  0.0030  0.1460  0.0677
 7587W        W 8451  21.368   8.152   2.664  0.0519  0.0391 -0.0269
 7588W        W 8452  28.563  24.773  13.805 -0.0166  0.3044  0.0704
 7589W        W 8453  22.881  27.946   6.582 -0.1036  0.1800  0.0157
 7590W        W 8454  12.982  19.465   9.947 -0.4239 -0.2248 -0.2952
 7591W        W 8455  28.654   1.645  17.475 -0.1259 -0.2485 -0.3221
 7592W        W 8456   3.926  10.443   0.268 -0.3231  0.2274  0.1794
 7593W        W 8457   6.681   9.220   3.932 -0.2894  0.0088  0.0377
 7594W        W 8458  28.258  14.621   8.109 -0.0335  0.2121  0.0289
 7595W        W 8459  25.001  12.512   5.426  0.2672 -0.1000  0.0438
 7596W        W 8460  21.009   0.582  26.602 -0.1665 -0.0413  0.3794
 7597W        W 8461  19.490  17.051  20.678 -0.2484 -0.0520  0.0670
 7598W        W 8462   3.573   9.774  10.092 -0.0737  0.2438  0.0471
 7599W        W 8463  10.769   7.220  27.991  0.1327 -0.1933  0.0496
 7600W        W 8464  26.723  26.851  12.363 -0.1939 -0.0083 -0.0272
 7601W        W 8465  10.961  12.963   9.923  0.1101 -0.0620 -0.2153
 7602W        W 8466   5.350  22.737   0.691  0.0642 -0.1448 -0.0508
 7603W        W 8467   1.602  18.380  16.260  0.0968 -0.4067 -0.1986
 7604W        W 8468  18.232  21.892   5.373  0.1355  0.1201  0.0944
 7605W        W 8469   5.375  11.155   8.486 -0.1717 -0.0466 -0.0141
 7606W        W 8470  15.613  18.167  26.753 -0.4415  0.1504  0.1582
 7607W        W 8471  12.970  16.015  19.565 -0.0624  0.0507 -0.0560
 7608W        W 8472  17.516  23.243  12.340 -0.2483 -0.0222  0.1794
 7609W        W 8473   8.090   6.104  12.810  0.0239 -0.2598  0.2867
 7610W        W 8474  28.157  25.025  26.922  0.1018 -0.1670 -0.0911
 7611W        W 8475  22.563   2.986   0.004  0.0672 -0.1046  0.1179
 7612W        W 8476   0.836  12.565  14.554 -0.2447  0.0983  0.2470
 7613W        W 8477   7.551  11.816  22.273 -0.2416 -0.3575 -0.0189
 7614W        W 8478  25.330  22.462   2.032 -0.0755 -0.3995  0.1857
 7615W        W 8479  13.848   8.541  12.101  0.0393  0.1152  0.1615
 7616W        W 8480  15.251   7.203  13.387 -0.3264  0.0659  0.4341
 7617W        W 8481   6.950   7.391  28.119  0.4942  0.3164  0.2897
 7618W        W 8482  20.962   5.054   5.609  0.0461  0.1033  0.1273
 7619W        W 8483   9.294  16.164   2.610  0.2341 -0.0406  0.3698
 7620W        W 8484  19.599   1.465  20.992 -0.0034  0.0972 -0.1612
 7621W        W 8485   9.607   7.760  21.353  0.1406 -0.3169 -0.0853
 7622W        W 8486  25.255  18.492   2.101 -0.1663  0.1421 -0.1625
 7623W        W 8487  12.151   2.874  17.892 -0.2880  0.0361  0.3320
 7624W        W 8488  10.244  12.412   8.050 -0.2726 -0.1219 -0.0567
 7625W        W 8489  21.381  18.102  25.252 -0.1419  0.0046 -0.0593
 7626W        W 8490   4.061   3.959   1.491  0.0523 -0.1636  0.3998
 7627W        W 8491   0.292  16.753   9.447  0.1769  0.0247 -0.2098
 7628W        W 8492  16.180   5.137   8.352  0.0251  0.1311 -0.0285
 7629W        W 8493  26.773  21.256  11.980  0.1976 -0.1294  0.0600
 7630W        W 8494   7.647  28.670   2.906 -0.0288  0.3255  0.0282
 7631W        W 8495  10.364  17.164  11.388  0.1727 -0.1361 -0.3010
 7632W        W 8496  17.734  13.600  10.625  0.0073  0.3953 -0.2290
 7633W        W 8497  19.632  13.951   8.904  0.0375 -0.0191 -0.3345
 7634W        W 8498  25.361  13.524  18.627 -0.1782 -0.2170 -0.2914
 7635W        W 8499   0.828  19.662   2.772  0.1294  0.2102  0.0695
 7636W        W 8500  28.044  21.191   1.677  0.0997 -0.1296  0.0217
 7637W        W 8501  25.191  13.488  17.295 -0.2945  0.0958  0.2662
 7638W        W 8502   0.387  18.999   0.884  0.1025  0.0639 -0.0412
 7639W        W 8503   0.728   5.863  16.172  0.1154  0.3621  0.0050
 7640W        W 8504  19.019   2.127  19.564 -0.1013  0.0164  0.1360
 7641W        W 8505  14.053  28.848   5.624 -0.1314  0.1689  0.1130
 7642W        W 8506   4.064  14.204  13.039  0.1142  0.1064 -0.0530
 7643W        W 8507  27.165   4.681  15.239 -0.1371  0.2371 -0.2744
 7644W        W 8508  16.573  19.621  21.270  0.4693  0.0001 -0.1351
 7645W        W 8509   5.185   9.020   0.488  0.3625 -0.1246  0.4018
 7646W        W 8510   5.915   5.959  16.927  0.0322  0.3854 -0.1964
 7647W        W 8511  23.517   8.330  21.327 -0.0326  0.2302  0.0893
 7648W        W 8512  14.978  25.744   0.185  0.0584 -0.0964  0.1634
 7649W        W 8513  21.895  18.417   6.341  0.0381  0.1739 -0.0323
 7650W        W 8514  25.377  15.724  13.254 -0.0035  0.0311  0.2801
 7651W        W 8515   7.847  12.499  10.722 -0.1046 -0.1672  0.0567
 7652W        W 8516  10.915   0.197  15.636 -0.3809 -0.0368  0.1793
 7653W        W 8517   2.246   7.009  17.584 -0.1763  0.0220 -0.3533
 7654W        W 8518  26.408   6.806   3.711  0.0125 -0.0677 -0.0405
 7655W        W 8519  27.894  12.055   4.550  0.0823 -0.0361  0.0701
 7656W        W 8520  10.070   4.196  17.282 -0.1944  0.1041  0.0864
 7657W        W 8521  22.623  26.492  25.588  0.2958 -0.0995  0.0036
 7658W        W 8522  24.850  22.110   4.734 -0.0154  0.2919  0.2680
 7659W        W 8523  18.902   2.649   1.936 -0.0249  0.2500  0.2602
 7660W        W 8524   3.333   8.813   3.875  0.0609  0.0461  0.0974
 7661W        W 8525   5.444  24.509  21.476  0.0607  0.1098 -0.0614
 7662W        W 8526  27.661  28.480   1.034 -0.1997  0.1287 -0.1082
 7663W        W 8527   6.737   2.916  28.027  0.0536  0.1736 -0.1569
 7664W        W 8528   1.585  27.619  11.230 -0.2516 -0.0562 -0.0579
 7665W        W 8529   5.591  28.890   5.626  0.1592  0.2907 -0.0137
 7666W        W 8530  26.217  12.161  13.665 -0.1449 -0.0777  0.1305
 7667W        W 8531   9.525  23.945   8.164  0.0172 -0.1317 -0.1340
 7668W        W 8532  23.562  17.074   1.036  0.3733 -0.0467  0.0925
 7669W        W 8533  23.499  23.967  15.799  0.0338  0.0526 -0.2649
 7670W        W 8534  27.183  15.188   7.678 -0.0492  0.1319  0.0437
 7671W        W 8535   0.496  19.216   5.608 -0.0598 -0.1405  0.0613
 7672W        W 8536  28.347  28.339  22.677  0.0635  0.4206 -0.1053
 7673W        W 8537  14.332  14.986   0.560 -0.0127  0.0665  0.1373
 7674W        W 8538  27.030  26.559  27.358 -0.1829 -0.0500  0.1490
 7675W        W 8539  13.233  10.908  19.628  0.1106 -0.3131  0.0622
 7676W        W 8540  20.689  13.563   6.970 -0.1115  0.0951 -0.3493
 7677W        W 8541   9.479  21.159  15.768 -0.1687  0.1635 -0.0162
 7678W        W 8542   0.432  17.486  18.213  0.0818 -0.1718 -0.0203
 7679W        W 8543   0.897  13.143  13.148 -0.0217  0.2747  0.1052
 7680W        W 8544  16.277  16.431  13.171  0.4189  0.2248 -0.0467
 7681W        W 8545  10.715  19.282  10.932  0.1175 -0.0486  0.3683
 7682W        W 8546  20.248   5.638   8.844 -0.0351 -0.1953  0.0544
 7683W        W 8547   0.659   0.049  28.978 -0.0595  0.2644 -0.2086
 7684W        W 8548  22.931  16.799  23.068  0.1210  0.1152  0.2021
 7685W        W 8549  23.943   8.294  11.335  0.1649  0.1802 -0.2626
 7686W        W 8550  11.837  25.868  12.623 -0.1103  0.1962 -0.2523
 7687W        W 8551   6.322   4.357  12.976  0.4462  0.0579 -0.0524
 7688W        W 8552   2.556  15.330   8.958 -0.3390 -0.3580  0.1758
 7689W        W 8553  26.319  22.226  20.721  0.2792  0.0718  0.1966
 7690W        W 8554  27.662   9.669   5.541  0.0177 -0.1335  0.0686
 7691W        W 8555  27.286  23.640  24.796  0.1770 -0.0704 -0.0826
 7692W        W 8556  11.425  10.992  22.764 -0.1995  0.0732  0.1175
 7693W        W 8557  11.945   5.178  17.096 -0.0672 -0.0648 -0.1956
 7694W        W 8558  23.095  25.287  16.488  0.0257  0.0947  0.2245
 7695W        W 8559  24.884  19.435  24.220 -0.0413 -0.2287 -0.1857
 7696W        W 8560  20.606   0.831   9.417  0.0324  0.1700 -0.0078
 7697W        W 8561  27.564   2.102  11.967  0.2612 -0.0543  0.1077
 7698W        W 8562  14.806  10.402   8.339  0.1301 -0.1048 -0.2171
 7699W        W 8563  11.727  26.710  11.010 -0.0723  0.1888  0.1891
 7700W        W 8564   2.246   5.535  27.391  0.1744  0.1976  0.3517
 7701W        W 8565  17.115   6.718   4.448 -0.1370 -0.1199  0.1134
 7702W        W 8566  28.507  11.408  10.510 -0.3258 -0.0947 -0.2009
 7703W        W 8567  25.717   8.529  21.328 -0.1792  0.0115 -0.3748
 7704W        W 8568  26.347   7.380   6.343 -0.0619 -0.3799 -0.4735
 7705W        W 8569  18.468  13.865  10.157 -0.3400  0.0449 -0.1874
 7706W        W 8570  27.977  13.134  10.635 -0.0759  0.0494  0.2954
 7707W        W 8571  27.978  11.127  15.073  0.0547 -0.0166  0.0361
 7708W        W 8572   1.053  28.065  13.091 -0.0237  0.0387 -0.3618
 7709W        W 8573  22.567   3.236  10.005  0.2566 -0.3440 -0.3695
 7710W        W 8574  12.195  18.863   2.543  0.1765  0.1198  0.0638
 7711W        W 8575  27.371  28.317   8.226  0.1577 -0.1376 -0.0847
 7712W        W 8576  28.805  13.914  22.027 -0.0307 -0.0020  0.2287
 7713W        W 8577   5.480   9.463  28.860  0.1440 -0.1014 -0.0507
 7714W        W 8578  10.966  19.231  14.029 -0.2384  0.1781  0.3600
 7715W        W 8579   6.774  16.024  11.922 -0.0128 -0.1757 -0.0174
 7716W        W 8580  29.033  17.688  15.732  0.2140 -0.0009  0.1743
 7717W        W 8581  17.036  12.249   4.526 -0.0893  0.3238  0.0876
 7718W        W 8582  17.777  16.422  20.215 -0.2473 -0.1523  0.0094
 7719W        W 8583  28.206   6.356   2.825  0.3307  0.1545  0.0026
 7720W        W 8584  18.790  17.679   6.523  0.1161  0.0507  0.0676
 7721W        W 8585  25.503   2.974  11.600  0.2675  0.5488 -0.2154
 7722W        W 8586  25.433  15.638   5.509  0.0749  0.0370 -0.1548
 7723W        W 8587  23.744  18.739  10.036  0.3248  0.2445 -0.1746
 7724W        W 8588  20.813  23.794  16.192 -0.0712 -0.0687  0.2012
 7725W        W 8589  26.758  29.030   2.150  0.1740 -0.0144 -0.1232
 7726W        W 8590   1.298  11.154  22.788 -0.2790  0.1263 -0.0701
 7727W        W 8591  27.520  27.429  11.311  0.1070 -0.0815 -0.2003
 7728W        W 8592   0.384  23.237   7.420 -0.1025 -0.0279 -0.0291
 7729W        W 8593  25.042  16.439   6.283  0.0049 -0.1526 -0.4557
 7730W        W 8594  28.964  10.131   4.873 -0.1704 -0.0710 -0.2236
 7731W        W 8595   8.025  20.063   8.345 -0.0540  0.0394  0.0630
 7732W        W 8596  27.126   5.622   3.128 -0.3056  0.1214 -0.0299
 7733W        W 8597  27.257   1.220   1.859 -0.5851  0.0857 -0.0412
 7734W        W 8598  16.039  15.525  14.692 -0.1611  0.0697 -0.1685
 7735W        W 8599   3.988  21.264  12.312  0.3070  0.0359 -0.0590
 7736W        W 8600  10.582   9.306  15.103  0.1681 -0.3479  0.2112
 7737W        W 8601  24.841   9.544  13.338  0.1938  0.0985 -0.1202
 7738W        W 8602   4.980  18.849   3.487 -0.1461 -0.0044 -0.2112
 7739W        W 8603   1.083  29.029   1.678  0.0247  0.2070 -0.0137
 7740W        W 8604  22.210  19.346   9.195 -0.0108 -0.3967  0.2251
 7741W        W 8605   1.625  26.841  12.913  0.2255 -0.1379  0.1330
 7742W        W 8606  24.535   4.189   1.501 -0.2806  0.2430  0.1255
 7743W        W 8607  23.246  23.076  15.869 -0.0249 -0.2310 -0.2157
 7744W        W 8608   2.807  16.741  25.823 -0.1261 -0.1783 -0.0242
 7745W        W 8609  25.535  13.214   5.112 -0.0721  0.0710 -0.1003
 7746W        W 8610  15.398  21.875  24.479  0.1723 -0.0564  0.1161
 7747W        W 8611   7.785   3.708   4.936 -0.3214  0.1661 -0.0404
 7748W        W 8612   8.384  18.291  18.764 -0.0074  0.0824  0.0603
 7749W        W 8613  20.806   9.995  20.398  0.2678 -0.0774 -0.0055
 7750W        W 8614  25.466  15.683   9.042 -0.3975  0.2229  0.0944
 7751W        W 8615  25.255  12.214   2.188  0.1323 -0.0160 -0.1805
 7752W        W 8616  28.723   7.513  16.974 -0.0010  0.0625  0.1827
 7753W        W 8617  13.507   9.875   2.498  0.1929  0.1916  0.0914
 7754W        W 8618  21.697  20.310   0.430  0.0569 -0.0441  0.0101
 7755W        W 8619  23.066  27.974   0.577  0.1076 -0.1940  0.1606
 7756W        W 8620   4.513  12.479   0.572 -0.0163  0.0682 -0.1667
 7757W        W 8621  28.224   8.104  19.551  0.0672  0.1631 -0.2302
 7758W        W 8622  12.399   0.008  27.185  0.0369  0.1611 -0.0553
 7759W        W 8623  20.742  27.741  21.194  0.4194  0.0268  0.2840
 7760W        W 8624   5.397  12.731  21.418  0.0326 -0.0616  0.2393
 7761W        W 8625  20.835  17.647  23.082 -0.0148  0.1034 -0.0037
 7762W        W 8626  12.789  15.446   7.386 -0.0663  0.0016  0.0595
 7763W        W 8627  18.027   0.744  15.989  0.1296  0.2456  0.0502
 7764W        W 8628  24.372  27.669  27.385  0.1370 -0.1963 -0.1608
 7765W        W 8629  24.431  28.831   8.438  0.0322 -0.0190 -0.0098
 7766W        W 8630   0.035   8.869  11.253  0.0675 -0.0657 -0.0567
 7767W        W 8631  10.396  18.586   1.845 -0.1093  0.5932 -0.0836
 7768W        W 8632   1.832   7.815   9.403 -0.4064  0.0174  0.0279
 7769W        W 8633  22.371  14.138  14.839 -0.3089 -0.0601  0.0219
 7770W        W 8634   9.983   0.585  10.088  0.1554 -0.1250  0.1073
 7771W        W 8635  23.489  13.150  14.850 -0.0047  0.0305 -0.2914
 7772W        W 8636   5.307  23.203  18.770 -0.2941  0.0953 -0.0445
 7773W        W 8637  10.531   6.767   5.593 -0.1422 -0.0039  0.2750
 7774W        W 8638   4.165  25.285   4.043 -0.1778 -0.1544  0.0563
 7775W        W 8639  13.806  16.600  23.433  0.2748 -0.0864  0.0765
 7776W        W 8640  28.972  17.687   4.230  0.1094 -0.2098  0.0140
 7777W        W 8641  24.789  12.792  21.686  0.1088  0.0714 -0.0568
 7778W        W 8642  21.259   4.261  25.824 -0.0249  0.0504 -0.1319
 7779W        W 8643  26.948  13.940  14.546 -0.1665  0.0605  0.0878
 7780W        W 8644  26.414  16.500  12.893  0.2819 -0.2584  0.1031
 7781W        W 8645  26.971  11.497  11.450 -0.0655  0.2265 -0.0165
 7782W        W 8646   6.565  10.232   9.066 -0.3722 -0.2590 -0.0087
 7783W        W 8647   8.527  14.026   2.024  0.2070 -0.0291  0.3675
 7784W        W 8648   8.229  18.882  24.980 -0.0962  0.1774  0.1254
 7785W        W 8649  11.925  10.185  21.838 -0.1055  0.1393  0.3034
 7786W        W 8650  13.016  21.017   6.068  0.0026  0.0090 -0.1064
 7787W        W 8651   8.082   8.655   1.453 -0.0289  0.0434 -0.0259
 7788W        W 8652  20.030  17.648  13.733  0.2170 -0.2206  0.0838
 7789W        W 8653  19.861   2.937   5.398 -0.2421  0.0437  0.1581
 7790W        W 8654  24.110   7.025   6.752 -0.0864  0.0142  0.3002
 7791W        W 8655  16.248   2.362  11.252 -0.2556  0.1587  0.0682
 7792W        W 8656  14.236  24.400  11.404  0.1375  0.1270  0.0515
 7793W        W 8657  27.032  12.956  12.435  0.0829 -0.1421 -0.1890
 7794W        W 8658  27.856   2.312   5.162 -0.1748  0.1951  0.2632
 7795W        W 8659   5.188  21.790  27.843  0.0651 -0.0275 -0.1238
 7796W        W 8660  28.576   8.211  19.271  0.4683  0.1678  0.3173
 7797W        W 8661   9.994  11.338   8.913 -0.2568  0.1730  0.0210
 7798W        W 8662  19.926  19.239   2.270 -0.2243 -0.1492 -0.0375
 7799W        W 8663  10.021  22.703   0.395 -0.2812  0.2631 -0.0473
 7800W        W 8664  11.145  26.354  20.563  0.3367  0.0665  0.0436
 7801W        W 8665  28.748   5.885   3.246 -0.3155  0.1798  0.0291
 7802W        W 8666   1.423   9.735  15.225 -0.2068  0.0290 -0.0435
 7803W        W 8667  13.051  22.807  12.016 -0.0687  0.1261  0.0697
 7804W        W 8668  16.433  16.467  26.527  0.0809  0.0854 -0.2196
 7805W        W 8669   5.421  23.084  10.821  0.1477  0.1619 -0.1349
 7806W        W 8670  25.445   9.147   8.780 -0.2576 -0.0431 -0.2148
 7807W        W 8671  28.183   5.239  27.660 -0.3067  0.0599  0.2115
 7808W        W 8672  27.709  19.271  22.133  0.0709 -0.1740 -0.1747
 7809W        W 8673  16.403   0.133   2.875 -0.1496  0.2750  0.1161
 7810W        W 8674  26.313   1.633  13.894 -0.0869  0.0433  0.2286
 7811W        W 8675   9.522  11.544  27.226 -0.0630  0.2791  0.1343
 7812W        W 8676   2.270  24.866  16.043  0.2106  0.0312  0.3808
 7813W        W 8677  18.874   4.267  26.759  0.0256  0.3311 -0.2775
 7814W        W 8678  28.634  19.524  26.646 -0.0776 -0.1322  0.0912
 7815W        W 8679   1.194   5.841  27.858 -0.1530  0.2821  0.0155
 7816W        W 8680  21.296   8.615  25.421 -0.2934  0.0354 -0.2369
 7817W        W 8681  24.316   2.560   4.227 -0.1603 -0.1165  0.0105
 7818W        W 8682   5.948  28.051  12.734 -0.3339  0.1643  0.1444
 7819W        W 8683  14.041  16.994  10.611 -0.0358  0.1525 -0.1001
 7820W        W 8684   5.918   2.248  21.937 -0.1400 -0.2297 -0.1707
 7821W        W 8685   7.290  16.738   8.263 -0.2705 -0.0737 -0.0904
 7822W        W 8686  24.458  24.477  15.845  0.1868  0.0190 -0.1307
 7823W        W 8687   0.360  11.372  20.414 -0.0519  0.1779 -0.0662
 7824W        W 8688  22.643   8.159   4.896 -0.1259  0.2732  0.1156
 7825W        W 8689  21.162  12.473   0.807  0.2003  0.1294 -0.2987
 7826W        W 8690  25.860   2.777  22.379 -0.1417 -0.0659 -0.1304
 7827W        W 8691   9.593  10.126  19.886  0.0457  0.0332  0.2673
 7828W        W 8692   1.442  28.792  25.448 -0.3136 -0.2854 -0.2176
 7829W        W 8693  20.684  26.785   3.349 -0.3164 -0.1932 -0.3455
 7830W        W 8694   7.176  10.670   6.066  0.0701  0.2643  0.1065
 7831W        W 8695  19.774   2.053  21.208  0.0054  0.3579 -0.1517
 7832W        W 8696  27.947  10.134  25.874 -0.2885 -0.1817 -0.2310
 7833W        W 8697  27.027   9.328  20.122  0.1924 -0.1656  0.1026
 7834W        W 8698  26.413  22.109  14.492  0.2584 -0.1490  0.1480
 7835W        W 8699  24.320  20.610  20.493  0.0664 -0.2502  0.1414
 7836W        W 8700  14.446  13.745  21.711 -0.0109  0.0206  0.3206
 7837W        W 8701   7.491  19.726  24.418  0.0334 -0.0761 -0.2564
 7838W        W 8702  23.111   6.509   6.929  0.3764  0.0237 -0.3736
 7839W        W 8703  26.688   5.058   3.747 -0.2822 -0.0226  0.0349
 7840W        W 8704   4.627  13.754   3.403 -0.0415  0.0439  0.3323
 7841W        W 8705  28.818   7.457   4.203  0.1823  0.1113 -0.0898
 7842W        W 8706  26.604  10.282  21.600  0.5629  0.0808 -0.0784
 7843W        W 8707   5.352  10.480  22.849 -0.0149  0.0654 -0.1925
 7844W        W 8708   9.237   8.511  15.525  0.1181 -0.0667 -0.0912
 7845W        W 8709   7.001   5.929  16.285  0.0024  0.0437 -0.0266
 7846W        W 8710  19.780  21.000   1.259  0.0079  0.1525 -0.5633
 7847W        W 8711   9.769  28.644  18.618  0.0378  0.0064  0.1374
 7848W        W 8712  28.398  27.488  12.462 -0.0994  0.0683  0.0094
 7849W        W 8713  14.911  26.399  22.976 -0.0969 -0.3649  0.0852
 7850W        W 8714  20.391  16.385   6.724 -0.0306  0.2271 -0.0164
 7851W        W 8715  21.311  11.029   4.191  0.0704 -0.1986 -0.0637
 7852W        W 8716  15.627  18.657  22.474  0.2269  0.1114  0.0708
 7853W        W 8717  12.366   4.037   0.118  0.1488 -0.0326  0.0081
 7854W        W 8718  22.182   8.302  16.778 -0.3518 -0.0684  0.2065
 7855W        W 8719   1.591   8.372  18.497 -0.1282  0.0580  0.1150
 7856W        W 8720  28.597  15.998  19.467  0.0057  0.1128 -0.0708
 7857W        W 8721  27.584  12.426  20.367  0.2370 -0.0636 -0.0679
 7858W        W 8722  25.613   9.961   2.925 -0.1785  0.1456  0.0485
 7859W        W 8723  17.661  18.314  27.890 -0.0378  0.3303  0.1749
 7860W        W 8724  27.740   9.044   9.155 -0.0773 -0.0224 -0.2222
 7861W        W 8725   9.085  18.347   3.934 -0.1122 -0.1788  0.0669
 7862W        W 8726   5.550  12.075  18.641 -0.2979  0.0949 -0.1754
 7863W        W 8727  20.744  12.987   2.198  0.1376 -0.4681 -0.0520
 7864W        W 8728   5.620  10.780  24.233 -0.2691  0.0966 -0.0709
 7865W        W 8729   5.545   4.825   3.167  0.0127  0.2095  0.0895
 7866W        W 8730  28.803  16.478  19.996 -0.1404 -0.1227 -0.2695
 7867W        W 8731  22.825  22.175  20.725 -0.0192 -0.0903 -0.1516
 7868W        W 8732  10.759   3.478  17.100 -0.2291  0.3479 -0.0345
 7869W        W 8733  15.839  27.561  20.126  0.2278  0.0278  0.0406
 7870W        W 8734   3.989  22.368   2.951 -0.0788 -0.1749  0.0734
 7871W        W 8735  23.251  15.686   2.321  0.0619  0.0744 -0.1573
 7872W        W 8736   2.602   4.468   9.132  0.0323 -0.0397 -0.3264
 7873W        W 8737  21.644   1.268  23.611  0.0194  0.0692 -0.0468
 7874W        W 8738  19.504  23.042  20.267 -0.1708  0.0439 -0.2992
 7875W        W 8739   2.788  18.260  13.674  0.0632  0.2757  0.2563
 7876W        W 8740   2.837  12.915  12.742  0.2077 -0.3152  0.0034
 7877W        W 8741   9.388  18.733   7.896  0.0967  0.0076  0.0422
 7878W        W 8742   2.127   1.639  15.849 -0.0473  0.1946  0.1382
 7879W        W 8743  12.074   8.783  28.243 -0.1087  0.1067  0.0140
 7880W        W 8744   1.884   2.487  16.463  0.1966  0.0866 -0.0650
 7881W        W 8745   6.604  21.386   8.191 -0.1442  0.0345  0.0904
 7882W        W 8746  12.094   5.625  11.205 -0.0015  0.0535  0.0412
 7883W        W 8747  24.098   6.289  10.109  0.1217  0.1651  0.2626
 7884W        W 8748  15.235  19.502  17.177 -0.3403  0.0548  0.1259
 7885W        W 8749   2.574   7.121   1.361  0.0150 -0.0719 -0.3446
 7886W        W 8750   9.134  10.534  18.281  0.1455 -0.2479 -0.0709
 7887W        W 8751  14.944  19.156  19.818  0.4633  0.2358 -0.1070
 7888W        W 8752   2.536   0.121  14.599 -0.0539  0.0118 -0.1123
 7889W        W 8753  13.210   4.896   4.779 -0.1930  0.0114  0.5001
 7890W        W 8754   4.977  15.241  15.766  0.1502 -0.0882 -0.1463
 7891W        W 8755  15.543   9.621  26.073  0.1581  0.2211  0.2999
 7892W        W 8756  20.436  12.157  15.954  0.6812  0.4979  0.0727
 7893W        W 8757  29.123   3.771  17.331  0.0615  0.2651  0.0328
 7894W        W 8758  24.208   6.934  19.164  0.1052 -0.0911 -0.0623
 7895W        W 8759  12.044  24.446  13.447  0.1274  0.2629  0.3502
 7896W        W 8760   0.894   4.471  16.102  0.0359 -0.3016 -0.1634
 7897W        W 8761  28.937  19.786   5.495 -0.1296  0.0385 -0.1158
 7898W        W 8762  15.618  28.751  20.421 -0.0405 -0.1376 -0.0066
 7899W        W 8763   2.079  18.673  16.302 -0.1719 -0.1144  0.0051
 7900W        W 8764  17.163  22.943   0.165  0.2343 -0.2023  0.0928
 7901W        W 8765   6.650  19.584  24.119  0.0724  0.0727  0.2422
 7902W        W 8766  16.815   3.679  13.844 -0.0930  0.0309 -0.0426
 7903W        W 8767  22.618   2.978  12.601 -0.1459  0.1076 -0.0974
 7904W        W 8768   1.704  18.037  25.241  0.1418 -0.4075  0.3375
 7905W        W 8769  24.451  15.838  21.112  0.0508 -0.1083  0.1558
 7906W        W 8770   9.993  23.869  19.987  0.1506  0.1886  0.1880
 7907W        W 8771  19.606  20.181  18.918 -0.1188  0.0343  0.2310
 7908W        W 8772   7.219  24.014  16.138 -0.0175 -0.0286 -0.1787
 7909W        W 8773  26.723  21.124  10.353 -0.0949  0.0967 -0.0746
 7910W        W 8774  21.226   6.982  16.146 -0.0022  0.0540 -0.0983
 7911W        W 8775   7.503  14.646   2.781  0.0118  0.0148  0.1422
 7912W        W 8776  15.658   8.299  19.347  0.0363  0.0462  0.1720
 7913W        W 8777   3.375   3.564   3.204 -0.0764  0.3491  0.2068
 7914W        W 8778   9.229  16.505  14.230  0.2317  0.1039  0.3765
 7915W        W 8779  17.323   0.950  18.141  0.3694  0.0133 -0.1974
 7916W        W 8780  13.086   6.622   5.882 -0.2510 -0.2805 -0.1880
 7917W        W 8781  27.220   7.948  17.638  0.0392 -0.1063  0.1892
 7918W        W 8782  11.140  14.425   2.972  0.2357 -0.0485 -0.3839
 7919W        W 8783  28.204  28.632  12.710 -0.2049 -0.0788 -0.2861
 7920W        W 8784  22.365   4.691  15.699 -0.1751  0.2714 -0.0700
 7921W        W 8785   3.043   3.590   4.647  0.0527 -0.0753  0.1718
 7922W        W 8786  12.642   9.499  12.986  0.3245 -0.2538  0.2544
 7923W        W 8787  27.831   3.595   4.554 -0.0384 -0.0036  0.4164
 7924W        W 8788  16.965  26.477   5.849 -0.0178 -0.0170  0.0972
 7925W        W 8789  20.165  15.773  10.067  0.0969 -0.2080 -0.2170
 7926W        W 8790   1.608  18.322  19.704 -0.0664  0.0065  0.2363
 7927W        W 8791  17.733   0.909  19.156  0.1347  0.0129  0.1225
 7928W        W 8792  26.870  23.534   2.747  0.2884 -0.1005 -0.2166
 7929W        W 8793   2.899  12.249   9.342 -0.0870  0.1192 -0.1216
 7930W        W 8794  17.835  22.125   4.434 -0.0681  0.0661 -0.0491
 7931W        W 8795  26.245  19.758  21.394  0.0753  0.0336 -0.0022
 7932W        W 8796  26.675  21.452   5.620 -0.2870 -0.3356  0.1845
 7933W        W 8797  28.335   0.490  25.206 -0.1030  0.0540  0.0771
 7934W        W 8798   9.063  24.369  11.304 -0.3131  0.3128  0.1484
 7935W        W 8799  15.214   3.128  28.917 -0.1881  0.0234 -0.1321
 7936W        W 8800   2.514  23.038  12.173  0.2273  0.0591  0.4559
 7937W        W 8801  11.444  24.450   2.081 -0.0992 -0.0666  0.1631
 7938W        W 8802   6.376  27.217   0.366  0.1407  0.0245 -0.1852
 7939W        W 8803  21.432   7.198  18.838 -0.1140  0.1471 -0.1884
 7940W        W 8804  19.461  21.067   4.692  0.0461  0.0996 -0.1575
 7941W        W 8805  21.350  15.159  16.261  0.1324  0.3057  0.1408
 7942W        W 8806  26.066  24.665  13.883  0.1661 -0.0196  0.4450
 7943W        W 8807  13.042  15.376   5.703  0.3764 -0.0469  0.0362
 7944W        W 8808  22.850  14.141  17.043  0.2267 -0.1502  0.1137
 7945W        W 8809  24.488   0.978  10.910 -0.0838  0.0359 -0.0606
 7946W        W 8810  26.925  24.103  24.921 -0.0094 -0.0214  0.4478
 7947W        W 8811  10.293  25.215  10.576  0.0990  0.0434 -0.0173
 7948W        W 8812  24.334  24.843   4.331  0.1407 -0.0668 -0.0721
 7949W        W 8813  19.236  15.194  15.285  0.2211  0.4259 -0.1026
 7950W        W 8814  14.171  14.589  23.554  0.1890  0.0241  0.1399
 7951W        W 8815  26.778  24.568   5.911  0.0122  0.2680 -0.0358
 7952W        W 8816   1.324  13.969   6.110  0.2947 -0.0187  0.0983
 7953W        W 8817   3.691   3.141  21.752  0.0963  0.0235 -0.1485
 7954W        W 8818   1.701  16.321  22.150 -0.2124 -0.0762  0.1761
 7955W        W 8819  11.098  13.086  14.957 -0.5395  0.1238 -0.0207
 7956W        W 8820   3.980   7.905  18.170  0.1281  0.2977  0.1223
 7957W        W 8821  24.394  10.639   5.242 -0.1618 -0.0588  0.1820
 7958W        W 8822   0.379  11.211  11.130 -0.0988 -0.0110  0.1734
 7959W        W 8823   0.076  20.359  22.138 -0.1551 -0.3120  0.0199
 7960W        W 8824   6.932   8.778   4.460  0.0395  0.2002 -0.4298
 7961W        W 8825  13.860  27.126   6.174  0.5220 -0.0481  0.0409
 7962W        W 8826  21.402   4.761   8.767 -0.1024  0.1433 -0.0586
 7963W        W 8827   8.697   4.890  21.129 -0.1452 -0.0565  0.4556
 7964W        W 8828  24.440   6.516  12.467 -0.2186  0.1867  0.0537
 7965W        W 8829  13.354   7.027  20.976 -0.0852  0.3415  0.0861
 7966W        W 8830   8.348  21.619  16.461 -0.0395  0.1310 -0.2082
 7967W        W 8831   1.109  15.986  17.504  0.3429 -0.0538  0.0947
 7968W        W 8832  13.483   3.068  17.469 -0.2740  0.3597  0.1815
 7969W        W 8833   7.283   3.954  12.502 -0.0828 -0.0847 -0.1119
 7970W        W 8834  29.047   3.141  11.918  0.0405  0.0673  0.1671
 7971W        W 8835  24.151  13.457  11.406  0.1913  0.1552  0.1118
 7972W        W 8836   2.338  17.276   9.933 -0.2192  0.1148 -0.0577
 7973W        W 8837  20.871  10.475  18.457 -0.2636 -0.0354 -0.1499
 7974W        W 8838  24.196  24.718   1.412 -0.0643 -0.0105 -0.1882
 7975W        W 8839  19.021  10.016  14.842 -0.1338 -0.0388 -0.3133
 7976W        W 8840  19.009   3.903  27.748  0.0846 -0.1982 -0.0380
 7977W        W 8841   7.214   6.958   8.104  0.1008 -0.0692 -0.2602
 7978W        W 8842  20.437   0.716   3.208 -0.2365 -0.0311 -0.2723
 7979W        W 8843  16.737  20.242  25.330 -0.1282 -0.0577 -0.2440
 7980W        W 8844  25.417  19.839  22.333 -0.3236  0.3767  0.0375
 7981W        W 8845   6.573  21.552   6.448  0.0314  0.1703  0.0382
 7982W        W 8846   6.382  19.845  26.938  0.3213  0.1870 -0.0058
 7983W        W 8847  12.026   2.591  24.633  0.4086  0.0587 -0.2399
 7984W        W 8848   4.769  28.891  22.720 -0.2733  0.4568  0.3500
 7985W        W 8849  17.120   5.402  15.727 -0.2122 -0.1179  0.0838
 7986W        W 8850  25.450   6.038   6.837 -0.0544 -0.1199  0.1479
 7987W        W 8851  26.528   5.818  27.145 -0.0902  0.2346  0.1898
 7988W        W 8852   5.393   4.891  16.103 -0.0703  0.0061  0.2145
 7989W        W 8853  26.220   2.941  16.335 -0.3517  0.0106  0.1566
 7990W        W 8854   9.156   4.819  19.802 -0.2708  0.3040  0.0232
 7991W        W 8855  19.362  22.809  27.665  0.1085  0.0006  0.0039
 7992W        W 8856   3.376   3.125  18.065  0.1034  0.2902  0.2592
 7993W        W 8857  27.630  13.740   6.980  0.2301  0.1599  0.1796
 7994W        W 8858   2.225  21.015  22.266 -0.0150  0.0054 -0.0030
 7995W        W 8859  14.903  12.494  10.304  0.0040  0.0125 -0.1875
 7996W        W 8860   3.776   1.880   3.804  0.0646 -0.1676  0.0825
 7997W        W 8861  12.531  19.522   0.666 -0.2560  0.2691  0.0360
 7998W        W 8862  10.967   6.677   9.642 -0.1930 -0.1397 -0.0556
 7999W        W 8863  24.574   0.642  19.065  0.0475  0.0965  0.0785
 8000W        W 8864   7.829   2.688   8.650 -0.1253  0.0752 -0.0749
 8001W        W 8865   3.770  20.355   3.762 -0.1435 -0.0493 -0.1113
 8002W        W 8866   4.559   5.466  10.327  0.1330 -0.0899 -0.0487
 8003W        W 8867  16.995  15.167  12.238  0.2949 -0.0476 -0.1785
 8004W        W 8868  23.289  13.140  13.663 -0.1690  0.2615 -0.0104
 8005W        W 8869   2.128   0.620   3.246  0.2173  0.0110 -0.0288
 8006W        W 8870  10.186   1.509  23.696 -0.1235 -0.0186  0.1289
 8007W        W 8871  27.071  16.908  18.279  0.0366 -0.0676  0.2273
 8008W        W 8872   8.521  12.624  13.158  0.0144 -0.0450  0.0395
 8009W        W 8873   2.506  17.454  17.444  0.2064  0.0788  0.0129
 8010W        W 8874  16.960  13.723   7.341 -0.1136 -0.1219 -0.1233
 8011W        W 8875  26.681   1.946  23.210  0.1499 -0.2385 -0.1681
 8012W        W 8876  21.171   7.147  10.216  0.2286  0.0898  0.1244
 8013W        W 8877  21.580  28.672   0.802 -0.0313  0.2038 -0.0757
 8014W        W 8878   8.657   6.488  13.175  0.1473 -0.0345 -0.2022
 8015W        W 8879   5.570  23.481  12.580 -0.2148  0.0047  0.0462
 8016W        W 8880   7.851   8.081  17.109 -0.1153  0.3868 -0.2729
 8017W        W 8881   6.610  14.707   2.820 -0.3210 -0.0272  0.0222
 8018W        W 8882  27.915  13.485  24.786  0.1269 -0.1930  0.0865
 8019W        W 8883  13.029  14.367  13.722 -0.1319 -0.0443 -0.0314
 8020W        W 8884  28.071  15.228   6.839  0.2441  0.2362 -0.2626
 8021W        W 8885  28.789   4.150   2.014 -0.2483  0.4228  0.0675
 8022W        W 8886  23.478   9.254   8.378 -0.1671  0.1008 -0.1375
 8023W        W 8887  16.021  21.077  14.047 -0.1235 -0.1629  0.2747
 8024W        W 8888  24.059  18.777  19.262  0.2683 -0.0070  0.0487
 8025W        W 8889   2.979  14.752  10.417 -0.1413  0.2780 -0.0871
 8026W        W 8890   0.296  20.113  26.498 -0.0064  0.1913 -0.2914
 8027W        W 8891   7.451   2.619   7.746  0.0070 -0.0749  0.1851
 8028W        W 8892  26.971   4.726  17.067  0.1745 -0.0686  0.0954
 8029W        W 8893   2.093   4.455  21.838  0.3601  0.2937 -0.0300
 8030W        W 8894   0.145   1.285   9.431  0.1220 -0.0666 -0.0746
 8031W        W 8895  24.869  10.850  11.330  0.2232 -0.0638  0.1873
 8032W        W 8896  22.790   5.503  18.970  0.2899 -0.1983 -0.0687
 8033W        W 8897   7.659   7.866  20.629  0.1293  0.0287 -0.0785
 8034W        W 8898  19.309   0.540  22.822 -0.1843 -0.0195  0.1829
 8035W        W 8899  28.989  28.279   2.733  0.0338 -0.0714  0.2433
 8036W        W 8900  28.467  12.535  25.825 -0.1259 -0.0057  0.0255
 8037W        W 8901  18.322   8.348   3.215 -0.3514 -0.2013 -0.0572
 8038W        W 8902  18.499   4.530  11.394 -0.0537  0.1293  0.0030
 8039W        W 8903  24.440  15.159  17.239  0.0489 -0.1181 -0.1994
 8040W        W 8904   8.194  11.906   7.380 -0.0835 -0.1027 -0.0360
 8041W        W 8905   3.892   3.201  15.389 -0.1465 -0.1116  0.2729
 8042W        W 8906  26.428  20.271  21.467  0.0602  0.3739 -0.3859
 8043W        W 8907  22.796   5.522  12.833  0.1255 -0.1609  0.1835
 8044W        W 8908  14.147  10.599   4.688 -0.1228 -0.2135 -0.0238
 8045W        W 8909   2.540  23.540  21.631 -0.0122  0.0156 -0.1115
 8046W        W 8910   5.950   7.699   8.085 -0.2222  0.1772  0.1150
 8047W        W 8911  13.530   1.692  24.813 -0.0804 -0.0479 -0.2111
 8048W        W 8912  27.698  18.314   1.558  0.1612  0.1660  0.0975
 8049W        W 8913   0.712   3.335  12.066  0.4237  0.1468 -0.2869
 8050W        W 8914  22.165   2.145  16.861 -0.3000  0.0383 -0.1139
 8051W        W 8915  11.338  23.752  22.489 -0.0720 -0.1180 -0.2733
 8052W        W 8916  22.613  12.202  16.806  0.0678 -0.1810  0.4847
 8053W        W 8917  21.852   1.390   4.687  0.0024 -0.1602  0.0755
 8054W        W 8918   5.238  20.009  12.084 -0.2813 -0.2510 -0.0357
 8055W        W 8919  22.391   7.252  13.601  0.1130 -0.3628  0.2463
 8056W        W 8920   6.608  23.783   5.668  0.0459  0.1694 -0.1621
 8057W        W 8921  15.699  18.509  11.754  0.1368 -0.1463 -0.0159
 8058W        W 8922   1.226  23.074  10.022 -0.2701 -0.2812 -0.0391
 8059W        W 8923   8.249  11.311  10.999 -0.0486 -0.1114 -0.2602
 8060W        W 8924   1.387   7.924   8.065 -0.0166 -0.1472  0.2458
 8061W        W 8925  14.067  17.046  20.563 -0.1382  0.2397  0.0398
 8062W        W 8926  10.819  18.283   8.732 -0.1214  0.0808 -0.0297
 8063W        W 8927   4.166  24.270  12.371  0.0980 -0.0218  0.4049
 8064W        W 8928  20.652   7.766  14.896 -0.2684 -0.1483  0.1431
 8065W        W 8929  23.635  13.100   9.419 -0.0806 -0.0531 -0.1997
 8066W        W 8930  11.088   0.865   7.978  0.0682 -0.1890  0.1378
 8067W        W 8931   8.572  24.612   7.294 -0.1160 -0.0759 -0.1643
 8068W        W 8932  18.246  13.239  27.400  0.0959 -0.0576  0.0319
 8069W        W 8933   1.012   6.109  11.026 -0.2359 -0.1682  0.1064
 8070W        W 8934  17.347   6.454   3.899 -0.1094 -0.0725  0.3897
 8071W        W 8935   7.423   9.650  24.220  0.1882 -0.0867 -0.0727
 8072W        W 8936   5.913  16.177  20.787 -0.1493  0.1926  0.0079
 8073W        W 8937  18.707  25.445  19.830  0.0399 -0.2255 -0.0393
 8074W        W 8938  17.809  23.746  14.065 -0.0977 -0.2802  0.0459
 8075W        W 8939   1.457   8.457  21.081 -0.1197 -0.1469  0.0492
 8076W        W 8940  19.403   3.029  13.140  0.0900 -0.1928 -0.0084
 8077W        W 8941  26.480  23.193  24.235 -0.0684 -0.2565  0.0754
 8078W        W 8942  20.571   7.951   8.615 -0.1362 -0.2087  0.1418
 8079W        W 8943   6.883   0.700  23.344 -0.2092  0.2185 -0.1846
 8080W        W 8944   3.416  26.829  23.038  0.1522 -0.1853 -0.2008
 8081W        W 8945  20.858  28.135  20.593 -0.0191 -0.1172  0.1844
 8082W        W 8946  10.909   4.025  11.669 -0.0807 -0.1534  0.1022
 8083W        W 8947   2.593  24.704   3.188  0.0232  0.0768 -0.0085
 8084W        W 8948  15.776  28.665  26.181  0.2000  0.1892  0.0862
 8085W        W 8949   8.565   4.144   8.446 -0.2966 -0.2304  0.1381
 8086W        W 8950  10.113  24.647   8.217  0.0899  0.0385 -0.2302
 8087W        W 8951   1.092  15.000   6.223  0.1006  0.2081  0.0156
 8088W        W 8952  17.242  22.397  15.227  0.0151  0.1929  0.0508
 8089W        W 8953   4.260  15.264  27.438 -0.0189 -0.0795 -0.0582
 8090W        W 8954  23.608   2.780  13.464 -0.1663 -0.3567 -0.0822
 8091W        W 8955  28.249  16.505  12.064  0.2122  0.0710 -0.3234
 8092W        W 8956  11.047   3.811  15.533 -0.1632 -0.1004  0.1427
 8093W        W 8957  25.576   8.239  14.075  0.0131  0.2147 -0.2841
 8094W        W 8958  20.776   1.862   1.968 -0.0436 -0.3331 -0.3389
 8095W        W 8959  12.284  10.538   2.236 -0.3123  0.0086 -0.1728
 8096W        W 8960  19.064  17.301   9.988  0.3280  0.1637  0.0309
 8097W        W 8961   8.961   2.013   8.008  0.3263  0.0829  0.3614
 8098W        W 8962   6.182  20.724  11.450 -0.1148  0.0854 -0.0328
 8099W        W 8963  24.973  21.484   2.108 -0.0270  0.1434 -0.3037
 8100W        W 8964  17.541  20.344  25.976  0.1015 -0.1347 -0.0124
 8101W        W 8965  10.937  18.406  28.149 -0.1366 -0.2443  0.1315
 8102W        W 8966  13.539   4.892  27.940  0.2411  0.2402 -0.0558
 8103W        W 8967   0.390  26.564  17.590 -0.2733 -0.1276  0.1806
 8104W        W 8968   9.281   8.194  28.181 -0.0171 -0.2418  0.1047
 8105W        W 8969  10.936   8.383   4.703 -0.3652 -0.3319  0.0541
 8106W        W 8970  22.107  15.569  13.172 -0.0229 -0.1701  0.0078
 8107W        W 8971   4.751   2.848  18.646  0.0056 -0.0441  0.0869
 8108W        W 8972  14.054  20.792  10.367 -0.0699 -0.1288 -0.2429
 8109W        W 8973   6.141  15.486   8.896  0.2835 -0.0833  0.1633
 8110W        W 8974  21.592  16.781  17.731 -0.0562  0.0422  0.2247
 8111W        W 8975  26.335  22.107  20.129  0.0831  0.2252  0.0127
 8112W        W 8976   8.786  10.756   6.690  0.3375  0.1520 -0.2656
 8113W        W 8977   9.438  12.360  27.308 -0.1265  0.0383  0.1452
 8114W        W 8978  24.471  10.374   4.287 -0.0291  0.7317  0.1588
 8115W        W 8979   1.597  13.618  14.279 -0.1660  0.2496  0.1069
 8116W        W 8980  18.249  15.199   4.311 -0.0809 -0.0442  0.0132
 8117W        W 8981  11.105   2.627  24.550  0.0126  0.1023 -0.3296
 8118W        W 8982  28.121  11.722  20.317  0.0345 -0.1944  0.1182
 8119W        W 8983  27.856   9.253   8.430 -0.0586 -0.1668 -0.1582
 8120W        W 8984   2.603  16.100  10.659  0.1642  0.0399 -0.2416
 8121W        W 8985   8.539   0.230  28.422 -0.1502 -0.2224  0.1813
 8122W        W 8986  20.995  18.560  19.358 -0.1700  0.2108 -0.0742
 8123W        W 8987   0.412   2.464  15.833 -0.0981  0.0568 -0.0342
 8124W        W 8988  21.802   1.015  16.520 -0.2318  0.4843 -0.2698
 8125W        W 8989  25.460   7.338  11.585 -0.0127  0.0902  0.0419
 8126W        W 8990  11.742  13.715   8.714  0.1992 -0.0706  0.0823
 8127W        W 8991  13.755   0.100   0.461 -0.1621  0.0328  0.0116
 8128W        W 8992  28.401  23.463  27.243  0.1653 -0.2847 -0.4181
 8129W        W 8993  18.473  14.386   2.216 -0.0239  0.1035  0.2039
 8130W        W 8994  14.661   1.290  23.345 -0.1127 -0.1828 -0.2955
 8131W        W 8995  24.465   0.755   2.231  0.0546 -0.0620 -0.0117
 8132W        W 8996  23.987  23.231  24.900 -0.1107 -0.0655  0.0897
 8133W        W 8997  23.031  12.897   7.148  0.0242 -0.0958  0.3160
 8134W        W 8998  15.372   5.968   5.175 -0.0045  0.2011  0.1461
 8135W        W 8999  10.019  16.666  21.902  0.1599 -0.0866  0.0300
 8136W        W 9000  10.436  27.936  21.591 -0.0575 -0.1363 -0.2902
 8137W        W 9001  18.484   8.153  24.380 -0.0021  0.4026 -0.1395
 8138W        W 9002   0.927  26.946  19.604  0.2003 -0.1960 -0.1199
 8139W        W 9003  27.611  25.329  24.064  0.1973  0.5401 -0.0601
 8140W        W 9004  17.607  26.672  28.399 -0.1750  0.2212 -0.0382
 8141W        W 9005   3.592  21.858  18.199 -0.0433  0.0741  0.1839
 8142W        W 9006   6.459  11.204  17.788  0.0807  0.0330  0.1412
 8143W        W 9007  21.886  26.096   2.814 -0.3801  0.1452 -0.4403
 8144W        W 9008  10.730  21.237   6.512 -0.1469  0.2223  0.0487
 8145W        W 9009  14.603  18.933  11.727  0.0152  0.0116 -0.3493
 8146W        W 9010  15.704   4.403  11.898  0.0776  0.1604 -0.2544
 8147W        W 9011  26.327   5.289  13.982 -0.3425 -0.0724 -0.0133
 8148W        W 9012  10.534  24.108  16.739  0.0267 -0.0703 -0.0413
 8149W        W 9013  19.875  17.546  18.988  0.2505 -0.0989 -0.0260
 8150W        W 9014   4.511   5.816   3.924 -0.0127  0.0579  0.1007
 8151W        W 9015  16.105   6.747   3.410  0.0498 -0.1384 -0.0468
 8152W        W 9016   4.611   6.025   6.305  0.0684  0.0694  0.2095
 8153W        W 9017  18.481   7.715  10.764  0.1854 -0.3092  0.1965
 8154W        W 9018  20.845   8.308   0.356 -0.1150 -0.1866 -0.2790
 8155W        W 9019   1.152  18.651   9.003  0.0795 -0.1032  0.0728
 8156W        W 9020  12.993  16.418  26.327 -0.1262 -0.0458 -0.3101
 8157W        W 9021  11.110  10.394   5.166 -0.0214 -0.1982  0.0249
 8158W        W 9022  16.893  20.647  19.841 -0.0620 -0.0262  0.1384
 8159W        W 9023   8.516  17.832  12.554  0.2330  0.1666 -0.0144
 8160W        W 9024  17.700   0.840  10.673  0.3827  0.0546  0.2083
 8161W        W 9025  12.788  21.454  22.952  0.0695 -0.1076 -0.0197
 8162W        W 9026   7.134  13.222  19.946 -0.0730  0.1781  0.0470
 8163W        W 9027  23.130   6.074   9.351 -0.0807  0.2548  0.2003
 8164W        W 9028  18.862   1.431  11.451 -0.0455 -0.2600 -0.2410
 8165W        W 9029  20.173   0.452   8.422  0.1076 -0.2002  0.0352
 8166W        W 9030  26.711  25.331  15.717  0.1418 -0.1559  0.2735
 8167W        W 9031   1.558  27.236  13.401  0.1380  0.1326  0.1128
 8168W        W 9032   1.420  20.805   6.029 -0.1847 -0.1888  0.1855
 8169W        W 9033  14.004  17.493  14.320  0.3585  0.0105  0.2037
 8170W        W 9034   4.006  10.314  27.209 -0.1133 -0.0273 -0.0188
 8171W        W 9035   8.216  27.692  19.001  0.1849  0.0170  0.1820
 8172W        W 9036   9.493   8.610   9.689  0.0784 -0.2534  0.1656
 8173W        W 9037  11.369   5.965  20.893  0.0203 -0.2056 -0.1561
 8174W        W 9038  11.317   8.087   9.319 -0.0293 -0.1990 -0.1035
 8175W        W 9039   1.041  15.640  27.259  0.1009 -0.1884 -0.3128
 8176W        W 9040   1.880   0.220  15.110 -0.0027  0.4310  0.0504
 8177W        W 9041  24.555  13.729   4.781  0.3109  0.0018  0.2351
 8178W        W 9042  13.715  21.649   6.293  0.2793 -0.1182  0.3654
 8179W        W 9043  26.906  10.550  20.810 -0.1879  0.0168 -0.0693
 8180W        W 9044  13.580   4.374  22.540 -0.3742  0.0889 -0.0038
 8181W        W 9045  19.468   6.689  22.757  0.1510 -0.0717  0.1440
 8182W        W 9046  23.502   0.271  16.858  0.3792  0.1228  0.1567
 8183W        W 9047   7.202   4.130   6.578 -0.3911  0.0361  0.3669
 8184W        W 9048  22.887   1.634  10.651 -0.0801 -0.4320 -0.1380
 8185W        W 9049   6.893  17.973  23.374 -0.0768  0.3079 -0.0956
 8186W        W 9050   2.210   3.903   7.161  0.1934 -0.0149  0.2059
 8187W        W 9051  27.273   1.881  14.134  0.2985  0.1456  0.0514
 8188W        W 9052  13.236  15.495   7.189  0.3914 -0.0140  0.2415
 8189W        W 9053   6.510   9.250  14.717  0.0983  0.0807 -0.0357
 8190W        W 9054   7.662  14.101  23.823  0.3615 -0.2063  0.1324
 8191W        W 9055  27.776   1.505  10.222 -0.1207 -0.1001  0.1161
 8192W        W 9056  28.403   6.378   0.497 -0.1609 -0.1982  0.1546
 8193W        W 9057  14.874  10.297  11.514  0.3063 -0.1002  0.0542
 8194W        W 9058  23.190  16.125  14.383  0.1173 -0.1351  0.4505
 8195W        W 9059  11.443  19.133  10.879  0.1568 -0.3760  0.0119
 8196W        W 9060   0.573   4.229   4.146  0.1297 -0.0211 -0.0197
 8197W        W 9061   6.623  12.897   0.303 -0.1215 -0.0003  0.1769
 8198W        W 9062  14.762  26.550  10.740 -0.1485 -0.2162 -0.0706
 8199W        W 9063  17.820  10.649  25.484 -0.0258  0.0971 -0.0599
 8200W        W 9064   1.742   0.249   0.746 -0.2770  0.4602 -0.1458
 8201W        W 9065  25.321  25.124  28.391 -0.0690  0.0231 -0.1587
 8202W        W 9066  23.563   5.038   8.890 -0.0439 -0.1496 -0.0725
 8203W        W 9067   2.833   4.397  24.291 -0.3949  0.0022  0.0114
 8204W        W 9068   2.511   6.406  22.310 -0.0766 -0.1474  0.3001
 8205W        W 9069   1.058   0.378   8.145 -0.1211  0.1933  0.2059
 8206W        W 9070   5.007   7.182   5.141  0.0567  0.4792  0.0911
 8207W        W 9071   1.378  17.549   1.795 -0.0793  0.3991 -0.3430
 8208W        W 9072  12.408  15.758  12.402  0.1760 -0.0009 -0.0417
 8209W        W 9073   3.102   2.651  27.078 -0.0032 -0.3263 -0.1719
 8210W        W 9074  12.908  23.014  13.755 -0.2782  0.0438  0.1177
 8211W        W 9075  27.730  11.845   8.828  0.1745  0.1598 -0.0121
 8212W        W 9076  13.138   2.247   8.633  0.0465 -0.0318 -0.0123
 8213W        W 9077  17.225   9.955  19.486  0.0730  0.2078  0.2547
 8214W        W 9078  27.778   7.234  26.677 -0.1929  0.2261 -0.2378
 8215W        W 9079  13.371  28.258  15.168 -0.0344 -0.0458 -0.1543
 8216W        W 9080  23.667  13.978  15.976 -0.1362 -0.3874  0.0004
 8217W        W 9081   6.504   2.211  22.139 -0.2659 -0.1594  0.2381
 8218W        W 9082   6.056  11.990  18.575  0.0692 -0.0487  0.0517
 8219W        W 9083   6.587   4.554   1.836  0.1149  0.3806 -0.0488
 8220W        W 9084  21.805  16.229  13.795  0.0766  0.1059  0.1226
 8221W        W 9085   8.873   9.746  21.304  0.4484  0.1220 -0.0939
 8222W        W 9086  20.835   3.263  17.422 -0.0395  0.2092  0.0826
 8223W        W 9087   3.019  21.429  16.364 -0.0802  0.3090 -0.0310
 8224W        W 9088   9.679  13.693   1.553  0.0926  0.1251  0.2978
 8225W        W 9089  18.877  11.407  21.475 -0.2010  0.1249  0.0899
 8226W        W 9090   1.920  15.154  22.053  0.0626 -0.1270 -0.1974
 8227W        W 9091   9.829  23.419   5.255  0.4455 -0.1730 -0.0826
 8228W        W 9092  24.588  17.238  14.839  0.0580 -0.0485 -0.0304
 8229W        W 9093  18.423  13.760  15.651 -0.1877  0.1357 -0.0569
 8230W        W 9094  24.890  11.138  28.285  0.0123  0.1781 -0.0232
 8231W        W 9095  25.907  12.247  19.711 -0.0031 -0.1158  0.1602
 8232W        W 9096  10.955   6.653  23.903  0.1474  0.1560  0.2096
 8233W        W 9097  24.784   1.690  10.657 -0.0345 -0.1547  0.2040
 8234W        W 9098  21.110  13.092  14.942  0.0651  0.0914  0.0248
 8235W        W 9099  18.923  11.793  17.183 -0.0495  0.0855  0.1148
 8236W        W 9100  15.062   6.105  19.242 -0.0605  0.0987 -0.0754
 8237W        W 9101  17.296  14.946  11.917 -0.0504  0.0388  0.1125
 8238W        W 9102  25.330  10.316  12.959  0.2358  0.1075 -0.2124
 8239W        W 9103  29.011   3.414   9.974 -0.2949 -0.2368 -0.2579
 8240W        W 9104  16.051  14.341  19.560  0.0675 -0.0619 -0.1078
 8241W        W 9105   9.900  22.350  10.374 -0.3679  0.2020 -0.3043
 8242W        W 9106   1.764  18.578  15.817  0.0780 -0.1482  0.0048
 8243W        W 9107  28.300   1.048  21.451  0.0782 -0.1493  0.1423
 8244W        W 9108  17.560   7.201  26.385  0.2765 -0.1284  0.0709
 8245W        W 9109  16.234  26.924  19.375 -0.1439 -0.1728 -0.0581
 8246W        W 9110  27.121   0.187  19.110 -0.3112  0.1254 -0.1361
 8247W        W 9111   8.166  13.835  28.075  0.2919  0.2668 -0.2636
 8248W        W 9112   6.023   7.519  19.870  0.1300 -0.0511 -0.2962
 8249W        W 9113  16.919   1.338   1.371  0.0346  0.0957 -0.0496
 8250W        W 9114  15.434  27.080  11.732 -0.0446  0.1572 -0.0447
 8251W        W 9115  16.284   5.826  26.898  0.1486 -0.0450  0.0865
 8252W        W 9116  20.725  25.071   7.606  0.2043  0.1223  0.2079
 8253W        W 9117  26.681  16.034  13.405 -0.1033  0.0950 -0.0460
 8254W        W 9118  26.007   4.024  10.754  0.1990 -0.2302 -0.2740
 8255W        W 9119   1.917  27.737  23.115  0.2162  0.0871 -0.2515
 8256W        W 9120  15.827  23.713  20.891 -0.0616  0.0715  0.4696
 8257W        W 9121  27.819  25.764  20.147  0.2212 -0.1186 -0.0425
 8258W        W 9122  17.738  24.994  26.313 -0.2243  0.2088  0.1006
 8259W        W 9123   6.783   1.825  20.474  0.2823 -0.0303  0.2201
 8260W        W 9124  23.728  19.477  10.523 -0.2259 -0.0121  0.0014
 8261W        W 9125  19.072   4.261  12.985  0.1571 -0.1767  0.1835
 8262W        W 9126  13.703  15.501  17.509 -0.2074 -0.0657  0.0652
 8263W        W 9127   2.681   6.396  20.341  0.1577 -0.0373 -0.0416
 8264W        W 9128  17.805  11.286  13.826  0.1544  0.0633 -0.0512
 8265W        W 9129  27.132   1.198  18.537 -0.0741  0.0783  0.1015
 8266W        W 9130  17.615   0.523   7.034  0.3097  0.0389  0.4685
 8267W        W 9131   4.483   5.520   9.560 -0.1242  0.0803  0.3049
 8268W        W 9132  27.560  24.336  15.105  0.1205  0.0669 -0.2197
 8269W        W 9133  24.567  13.573  20.371 -0.3469 -0.0135 -0.2894
 8270W        W 9134   3.025   7.622  28.123 -0.0828  0.0304  0.1195
 8271W        W 9135  16.886   9.153  14.720  0.1596 -0.1778 -0.0180
 8272W        W 9136  23.066   7.121   1.855  0.2510  0.1952  0.2583
 8273W        W 9137  12.769   0.801  16.039 -0.0450  0.0355  0.0502
 8274W        W 9138  17.396  21.396  26.954  0.1319  0.1308  0.2769
 8275W        W 9139  26.515   8.400  17.136 -0.3145  0.0128 -0.2461
 8276W        W 9140  26.263  27.017  24.347  0.0242  0.1802  0.3171
 8277W        W 9141  25.238   2.202   5.394 -0.0439  0.1166  0.0785
 8278W        W 9142   3.764   1.663  21.199 -0.1656 -0.0238  0.0188
 8279W        W 9143  26.127   4.299  25.245  0.0562 -0.1244  0.3006
 8280W        W 9144   3.047   1.575  14.987 -0.0929 -0.0477  0.1908
 8281W        W 9145   2.429   6.787  27.778  0.1497  0.5495  0.0398
 8282W        W 9146  18.677   2.612  10.195 -0.3668 -0.2678 -0.0415
 8283W        W 9147  22.822  19.712   4.023  0.1481 -0.2906  0.1540
 8284W        W 9148   0.617  12.618  19.363 -0.1823  0.0471  0.1108
 8285W        W 9149  23.608   9.548  14.771 -0.1807 -0.3563 -0.0728
 8286W        W 9150  11.571   0.976  15.491 -0.1672 -0.1268  0.3339
 8287W        W 9151  11.446  21.065  20.150  0.0199  0.2357  0.0312
 8288W        W 9152  25.792   5.021  22.259 -0.0494  0.1304 -0.0116
 8289W        W 9153  26.487  12.129  11.606  0.0403 -0.0850 -0.1069
 8290W        W 9154   0.031   1.091  14.026  0.0382  0.1361 -0.2160
 8291W        W 9155   7.226   2.307  23.933 -0.1441 -0.2075 -0.1274
 8292W        W 9156  11.247   6.873   0.019 -0.0987  0.1843  0.2278
 8293W        W 9157  19.245  10.976  11.861  0.1123 -0.2095  0.1236
 8294W        W 9158   0.946  17.595  15.438 -0.0899  0.0485 -0.0748
 8295W        W 9159  27.168  27.931   9.131 -0.2017 -0.2695  0.2638
 8296W        W 9160   3.075   8.362   1.482  0.1998 -0.3055  0.2099
 8297W        W 9161  16.260  28.109  28.021 -0.0019 -0.0755 -0.4146
 8298W        W 9162   1.393   8.997  16.878  0.1928 -0.1541  0.0460
 8299W        W 9163  24.878  29.142   8.083  0.1498 -0.2493 -0.1558
 8300W        W 9164  28.405  13.934  20.894 -0.0754  0.1590 -0.2941
 8301W        W 9165   8.870  10.635   1.914 -0.0960 -0.2286 -0.1223
 8302W        W 9166  19.743  27.211   0.588 -0.0343 -0.0842 -0.0227
 8303W        W 9167  15.651  11.387  16.904  0.1980  0.0395  0.0644
 8304W        W 9168   5.792  27.682  21.927  0.0674  0.0089 -0.3373
 8305W        W 9169   5.592  19.619  18.282 -0.1348 -0.2739  0.1986
 8306W        W 9170  19.848  21.993   8.646 -0.1746 -0.1191  0.2568
 8307W        W 9171   8.325   0.419  20.854  0.0235  0.1428  0.1291
 8308W        W 9172  27.010   0.596  11.167 -0.1402  0.1493 -0.2101
 8309W        W 9173   0.293  16.015  21.261  0.1689  0.1547  0.1947
 8310W        W 9174   4.956  28.077  19.826  0.1031 -0.1897 -0.2826
 8311W        W 9175   4.959  20.328  17.781 -0.1873 -0.3082 -0.2994
 8312W        W 9176   0.753   4.355  18.494 -0.1433 -0.1329  0.1406
 8313W        W 9177   2.356   8.884   6.214 -0.2224 -0.2757  0.0284
 8314W        W 9178  15.832  10.570  14.131 -0.2218  0.0982  0.3344
 8315W        W 9179   7.457   4.919   3.833  0.0653 -0.0089  0.1378
 8316W        W 9180  22.977  24.517  23.392  0.0862 -0.1179 -0.1338
 8317W        W 9181  15.479  13.371  28.834 -0.1297 -0.1349 -0.1356
 8318W        W 9182  27.112  12.522   6.508 -0.2997 -0.2118  0.0357
 8319W        W 9183   1.450  11.907  10.117 -0.0282  0.3347  0.3130
 8320W        W 9184   5.307  15.215  16.823 -0.0286  0.1329  0.0930
 8321W        W 9185  26.623   3.975  21.135  0.0460 -0.2752  0.2816
 8322W        W 9186  22.726  14.626  14.542 -0.1860 -0.0213 -0.0678
 8323W        W 9187  20.890  19.434   7.741 -0.1737  0.2917  0.2681
 8324W        W 9188  26.251  14.154   8.644 -0.0785 -0.1075  0.0363
 8325W        W 9189   4.664  13.634  26.460 -0.1179 -0.1424 -0.0472
 8326W        W 9190  12.803  26.989  24.645 -0.0888 -0.4151  0.1028
 8327W        W 9191  17.580  11.729  13.141  0.0022 -0.0152 -0.0285
 8328W        W 9192  17.335  11.809   3.844  0.1825 -0.1078 -0.1450
 8329W        W 9193  22.678  11.158   9.880 -0.2353 -0.0272 -0.1347
 8330W        W 9194  18.008   8.000  21.739  0.1739  0.1732  0.0384
 8331W        W 9195   5.743  27.294  18.226 -0.0655 -0.0270  0.0169
 8332W        W 9196   9.757   6.459   9.390  0.0855  0.0749  0.3634
 8333W        W 9197  26.283  23.410  27.383  0.1730  0.0474  0.0546
 8334W        W 9198  12.307  20.555  18.333  0.0653 -0.0135 -0.0971
 8335W        W 9199   5.408  23.309  18.286 -0.2248  0.0781 -0.2644
 8336W        W 9200   8.554  25.772  11.798  0.2204 -0.2009 -0.2074
 8337W        W 9201  28.673  22.263   9.524  0.0478 -0.1463  0.0435
 8338W        W 9202  25.421  16.554   8.598  0.0500 -0.1370  0.2759
 8339W        W 9203  18.066  24.763  14.320 -0.1133 -0.3929 -0.1761
 8340W        W 9204  10.574  19.559  29.029  0.1351  0.1046 -0.1779
 8341W        W 9205  14.803   7.599   5.154  0.2614 -0.4670 -0.0493
 8342W        W 9206   9.884   8.028  15.954 -0.0815 -0.0961 -0.2981
 8343W        W 9207  23.647   4.585  11.483  0.0829 -0.1742  0.1406
 8344W        W 9208  23.352   5.439   7.994 -0.1947  0.3716 -0.1334
 8345W        W 9209  10.261   0.108  23.237  0.0105  0.0037  0.1856
 8346W        W 9210  14.653  12.361  21.830  0.1387 -0.2715 -0.0808
 8347W        W 9211  21.915  21.564  11.048  0.0375 -0.2793 -0.2916
 8348W        W 9212   6.337   6.374  13.424  0.0919 -0.0314 -0.0911
 8349W        W 9213  28.223  28.167  19.542  0.0829 -0.1982 -0.0187
 8350W        W 9214  13.253  28.835  10.658  0.1082  0.0206 -0.1736
 8351W        W 9215   1.090  15.346  18.326  0.1476  0.0515 -0.0315
 8352W        W 9216   7.191  14.941   7.264 -0.1054 -0.1892  0.0968
 8353W        W 9217   3.776   9.962  12.137 -0.0383 -0.1183 -0.0863
 8354W        W 9218   1.629   3.831   3.168  0.3734 -0.1927  0.3097
 8355W        W 9219  16.091   8.325  28.975 -0.0858 -0.2138  0.0007
 8356W        W 9220   5.835   4.465   2.858 -0.0370  0.0305  0.4695
 8357W        W 9221  16.517   9.844  28.778 -0.0179 -0.0404 -0.2860
 8358W        W 9222  28.810   4.933  12.430 -0.0664 -0.1094  0.0310
 8359W        W 9223  27.242  15.646   9.987  0.0082  0.1099  0.0957
 8360W        W 9224   9.927   5.061   8.025  0.3611 -0.1505  0.2715
 8361W        W 9225  26.540   7.527   7.451 -0.1101 -0.1742  0.4026
 8362W        W 9226  20.336  16.704   4.090  0.0929 -0.1563 -0.1707
 8363W        W 9227  23.152  24.386   6.821  0.1299  0.0877  0.3280
 8364W        W 9228  17.279  24.372  19.449 -0.5543  0.2135 -0.0794
 8365W        W 9229  14.784  26.902  20.482 -0.1498  0.0375  0.0338
 8366W        W 9230   2.404  13.649   3.169 -0.2745 -0.1296  0.0629
 8367W        W 9231  12.638  12.158  16.011 -0.3196  0.1236 -0.1186
 8368W        W 9232  26.356  13.531  28.604 -0.0187 -0.0099  0.2050
 8369W        W 9233  21.747  18.651  27.989 -0.0610 -0.2350 -0.1995
 8370W        W 9234   5.342  12.197  16.344  0.0922  0.0168 -0.2676
 8371W        W 9235  21.373  17.593  25.482  0.2595 -0.2624 -0.2330
 8372W        W 9236  23.240  18.770   0.529  0.1376 -0.3861 -0.1233
 8373W        W 9237  27.657  16.108  22.804  0.3317  0.4342 -0.1216
 8374W        W 9238   4.426   0.243  13.056 -0.0015  0.1818 -0.0176
 8375W        W 9239   7.701  21.071  28.904  0.0039 -0.0481 -0.0484
 8376W        W 9240   9.585  10.945  27.975  0.2917 -0.1422 -0.0545
 8377W        W 9241  16.318  27.382  25.488  0.0796  0.1537 -0.1147
 8378W        W 9242   2.754  12.584  18.629 -0.0958 -0.0281  0.3102
 8379W        W 9243  11.736  28.956  11.735  0.1818  0.2299 -0.4029
 8380W        W 9244  22.354  25.818  28.102  0.0761 -0.0987 -0.2489
 8381W        W 9245  24.057  12.482  24.350 -0.0288  0.1564 -0.1107
 8382W        W 9246   0.425   3.581   7.200 -0.1849  0.0247 -0.2616
 8383W        W 9247  22.909   4.957   5.903 -0.1812 -0.1068  0.0207
 8384W        W 9248  15.421  26.666  12.630  0.3999 -0.3739  0.1457
 8385W        W 9249   1.655  13.301  15.058  0.0728  0.2135  0.1965
 8386W        W 9250  25.187  14.030  21.684 -0.0523 -0.1235 -0.4243
 8387W        W 9251  10.782  14.177  20.548 -0.0712 -0.3055  0.1144
 8388W        W 9252   4.279   5.921  17.602  0.0797  0.0972 -0.1523
 8389W        W 9253  12.490  17.316  23.113 -0.1838  0.1953  0.3306
 8390W        W 9254  11.297  11.335  27.476  0.5329  0.0863 -0.2302
 8391W        W 9255   3.978  18.301  16.751  0.0184  0.0040 -0.0842
 8392W        W 9256  12.774   7.079  15.559 -0.3057 -0.1429 -0.2067
 8393W        W 9257   9.182   6.939  28.992 -0.0037  0.1861 -0.0850
 8394W        W 9258   3.113   7.711  16.935  0.0556 -0.1786 -0.0818
 8395W        W 9259   0.082  12.770  21.927 -0.0169 -0.2249 -0.3031
 8396W        W 9260  16.252  15.337  11.075 -0.0786 -0.2896  0.1118
 8397W        W 9261  17.318  11.626   9.023  0.0493  0.2288 -0.2001
 8398W        W 9262   8.139   5.887  15.220  0.3794  0.0600  0.0024
 8399W        W 9263  18.084  27.066  26.557 -0.0464 -0.0523 -0.0353
 8400W        W 9264  21.238  21.530  14.951  0.1894  0.1606 -0.1270
 8401W        W 9265  16.859   2.203   6.584  0.1686  0.2685  0.1515
 8402W        W 9266  23.351  25.807  17.860  0.2119 -0.2461  0.0648
 8403W        W 9267  11.878  17.788  15.495 -0.0780 -0.1635 -0.1069
 8404W        W 9268   3.700  11.863  15.480  0.0792  0.4380  0.0475
 8405W        W 9269   4.720   5.014  17.717  0.0091  0.1191 -0.0113
 8406W        W 9270   5.849  19.263   9.275 -0.3085 -0.1892 -0.2518
 8407W        W 9271   6.823   3.244  15.071  0.2631  0.0394 -0.3533
 8408W        W 9272  16.366   3.110  14.066 -0.0126 -0.2814 -0.0964
 8409W        W 9273  12.290   8.517  27.751  0.1948 -0.4394 -0.1485
 8410W        W 9274  11.315  22.961  17.033 -0.1984 -0.2614 -0.0340
 8411W        W 9275   0.959  26.892   8.725  0.1082 -0.2342 -0.3058
 8412W        W 9276  12.532  16.936  24.416 -0.1913  0.0663 -0.1302
 8413W        W 9277  20.148  20.443  11.144  0.1039  0.2603  0.0853
 8414W        W 9278  26.821  16.708   8.947  0.2545  0.1080 -0.3573
 8415W        W 9279   4.894   3.196  29.088  0.1329 -0.1974  0.1606
 8416W        W 9280  24.313  13.387  17.590 -0.0170  0.2668 -0.2901
 8417W        W 9281   5.318   6.060  19.650  0.0793  0.0234  0.1344
 8418W        W 9282  27.388  15.580  20.352  0.0370 -0.0201  0.1442
 8419W        W 9283  10.754  12.652  27.638  0.1593 -0.3626 -0.1515
 8420W        W 9284  23.014   4.983  23.702  0.0277  0.1251 -0.0244
 8421W        W 9285  22.608  10.376   9.388 -0.2150 -0.0757 -0.1706
 8422W        W 9286  24.036   9.877   7.580  0.1927 -0.2568  0.0976
 8423W        W 9287   6.215  11.582  21.592  0.0285 -0.1198  0.1748
 8424W        W 9288  26.590  11.121  11.636  0.0411 -0.3112 -0.0954
 8425W        W 9289  29.127  26.108  20.291 -0.2415  0.0358 -0.1973
 8426W        W 9290  14.076   3.445   3.961 -0.3373  0.0339 -0.2583
 8427W        W 9291   5.320   3.489   6.097  0.1394  0.1198 -0.1381
 8428W        W 9292  17.102  14.722  16.520 -0.1227 -0.0590  0.1954
 8429W        W 9293   0.400   4.590   1.626  0.2794 -0.0020 -0.0548
 8430W        W 9294   3.028  23.330  25.329 -0.0702  0.0034 -0.2037
 8431W        W 9295  21.604  12.858  22.286  0.3197 -0.0298  0.0684
 8432W        W 9296  24.346   8.774  22.470 -0.2020 -0.2712 -0.0396
 8433W        W 9297  28.613  22.016  19.733 -0.3849  0.3802 -0.1772
 8434W        W 9298   3.916  11.757  17.333  0.0573 -0.0254  0.1650
 8435W        W 9299   7.075   8.928  15.747  0.1745  0.2707  0.4852
 8436W        W 9300   2.422   6.440  15.130 -0.0575 -0.1415 -0.0331
 8437W        W 9301   4.626   9.178  20.183 -0.4068 -0.0089 -0.1438
 8438W        W 9302   4.171  10.704  27.760  0.3471  0.1351  0.0964
 8439W        W 9303   3.058  27.540  17.372  0.0253 -0.0944  0.2180
 8440W        W 9304   6.585   0.695  11.360 -0.0727 -0.1020 -0.1786
 8441W        W 9305   1.511  18.516  21.963  0.0179 -0.2602 -0.1756
 8442W        W 9306   7.442  18.728  21.371  0.1709 -0.1130 -0.0547
 8443W        W 9307  25.911  11.642  17.744  0.0182 -0.0191 -0.0622
 8444W        W 9308  18.864  12.590  16.700 -0.0801 -0.0080  0.3552
 8445W        W 9309   1.447   0.578   6.744  0.2144 -0.0778  0.0570
 8446W        W 9310   8.491  14.796   3.076  0.1603 -0.1115  0.0525
 8447W        W 9311   4.569  18.917   4.007  0.1209  0.0105  0.1184
 8448W        W 9312   3.301  22.593  18.703 -0.0137 -0.1216  0.2303
 8449W        W 9313   1.260  11.952  16.113  0.0442 -0.2319  0.0117
 8450W        W 9314   0.187  21.954   2.400 -0.3294  0.2526 -0.3026
 8451W        W 9315  27.853   3.544  11.480 -0.1957 -0.3188  0.1981
 8452W        W 9316  26.899  12.554  12.770  0.1653  0.0665  0.0223
 8453W        W 9317  23.648  18.304  24.770  0.0825  0.0781  0.0663
 8454W        W 9318  28.730  19.060  21.717 -0.2684  0.0966  0.1162
 8455W        W 9319  28.066   5.714  15.729 -0.0597 -0.0359 -0.2110
 8456W        W 9320   5.674   6.032   2.745  0.3531  0.2481  0.0165
 8457W        W 9321  14.440  26.177   9.984 -0.0195 -0.2050 -0.1056
 8458W        W 9322  19.194  14.871  23.598  0.0283  0.0218  0.2137
 8459W        W 9323   8.685  14.209   7.034  0.0686 -0.0293 -0.2579
 8460W        W 9324  13.029  23.307  26.927  0.0998 -0.1121  0.3085
 8461W        W 9325  28.806  22.044  12.856  0.2130  0.1215  0.1350
 8462W        W 9326  19.921   0.392  17.633  0.0418 -0.0639 -0.1085
 8463W        W 9327  21.943  19.785   6.821 -0.0438 -0.0013 -0.0797
 8464W        W 9328  22.947  15.746  18.931  0.0560  0.1825  0.0416
 8465W        W 9329   5.680  20.375  22.837 -0.3213  0.0612 -0.0672
 8466W        W 9330  23.831   7.234  14.316 -0.1252  0.0928  0.0754
 8467W        W 9331   3.129  18.075  24.264 -0.1358  0.0215 -0.0828
 8468W        W 9332   4.862  11.722  12.398  0.1336  0.2164 -0.1854
 8469W        W 9333   9.878   9.578  13.749 -0.4684  0.0069 -0.0458
 8470W        W 9334  26.813  12.091  21.433 -0.4364  0.1012 -0.2499
 8471W        W 9335  22.619   0.979   3.228  0.4108  0.1407 -0.2047
 8472W        W 9336  22.029   5.087   6.702 -0.2535  0.2805 -0.0243
 8473W        W 9337  12.992  18.538   0.206 -0.1825  0.2599  0.3211
 8474W        W 9338   2.720  19.904  15.269  0.0606 -0.0295  0.1524
 8475W        W 9339   5.372   3.045   0.118 -0.0594 -0.2161 -0.1765
 8476W        W 9340  28.687  10.446  13.225  0.0200 -0.0588  0.0144
 8477W        W 9341   7.560   6.926   7.703  0.0240  0.1811 -0.0944
 8478W        W 9342  22.056  18.123  15.363 -0.3706  0.0794 -0.0897
 8479W        W 9343  27.316  27.933  17.446  0.2026  0.0469 -0.2121
 8480W        W 9344  27.011  13.217  27.397 -0.0114 -0.0591  0.0196
 8481W        W 9345  27.549   0.947   1.529  0.2931  0.1340  0.2699
 8482W        W 9346  26.359   1.404  18.371 -0.1693 -0.1795  0.1692
 8483W        W 9347  12.000  25.639  20.369  0.3176 -0.1666 -0.3496
 8484W        W 9348   4.979  28.602  27.395  0.0603  0.0538  0.0585
 8485W        W 9349  12.407  24.682   0.034  0.2281  0.0540 -0.0239
 8486W        W 9350   3.508  21.213   7.354 -0.0673  0.1489 -0.2001
 8487W        W 9351   8.031  11.393  23.300  0.0803 -0.0768 -0.2759
 8488W        W 9352  26.810  20.470  27.150 -0.1249 -0.0428 -0.0458
 8489W        W 9353   2.548   8.348  17.820 -0.4001  0.1594 -0.2720
 8490W        W 9354   4.592  14.887  24.782  0.1045 -0.0905  0.1750
 8491W        W 9355  15.760   3.584   9.302 -0.3634  0.1136 -0.0607
 8492W        W 9356   2.769   4.443  14.791 -0.2043  0.1413  0.1101
 8493W        W 9357  20.257   7.755  12.630 -0.1388  0.1591 -0.0956
 8494W        W 9358   1.218  20.804  12.084  0.2206  0.1827  0.1659
 8495W        W 9359   6.234   3.638  10.007  0.0640 -0.1146 -0.0768
 8496W        W 9360   6.826  18.108   0.236 -0.1123 -0.2551 -0.2691
 8497W        W 9361  26.883  28.683  10.487 -0.1841 -0.0772  0.2612
 8498W        W 9362  19.878  19.398   7.891  0.1896  0.1868 -0.1449
 8499W        W 9363  28.279  17.332   9.014 -0.0118  0.0579  0.1061
 8500W        W 9364  28.286   2.034  17.693  0.5001 -0.3034  0.0027
 8501W        W 9365  10.255  11.269  16.202 -0.1132 -0.1747 -0.2423
 8502W        W 9366  23.140  27.551   6.408  0.0625 -0.3754  0.1292
 8503W        W 9367  28.081  24.577   6.988  0.1394  0.0526  0.0842
 8504W        W 9368   0.975   9.503  25.758  0.3575  0.2805 -0.2228
 8505W        W 9369  23.241  19.378  13.209 -0.0022  0.1938 -0.1995
 8506W        W 9370  16.288  23.651  23.650 -0.1322  0.4574  0.0041
 8507W        W 9371   0.645   4.444  22.855  0.4335  0.1177 -0.2720
 8508W        W 9372  17.385  17.181  22.021 -0.0190 -0.0572  0.0909
 8509W        W 9373  28.723   9.621   2.469  0.3408  0.3630 -0.5051
 8510W        W 9374   4.049   7.078  11.027  0.2075 -0.4654 -0.2509
 8511W        W 9375  17.850  14.493  22.429  0.0684 -0.0810 -0.0212
 8512W        W 9376  28.489  14.971  13.483 -0.1213  0.1962  0.3448
 8513W        W 9377  23.002  10.803   0.728 -0.0398  0.3545 -0.1768
 8514W        W 9378  22.088  28.220  22.976 -0.2923  0.0639 -0.0754
 8515W        W 9379   6.858   3.121   9.373 -0.0088 -0.2106 -0.1728
 8516W        W 9380   7.913  14.846  18.646 -0.0368 -0.0332  0.0093
 8517W        W 9381  17.639  11.150   6.032  0.1945  0.0757  0.1436
 8518W        W 9382  10.204  27.456   5.090 -0.4377 -0.2336  0.2225
 8519W        W 9383  26.724  26.760   2.121 -0.0473 -0.1405  0.3483
 8520W        W 9384  27.710  18.775  26.896  0.1146 -0.0216 -0.0040
 8521W        W 9385  12.441   6.099  26.595  0.2477 -0.1970 -0.1305
 8522W        W 9386  24.873   2.513  17.104 -0.1312 -0.0949  0.1733
 8523W        W 9387  20.298  22.156  16.764  0.0205  0.0225 -0.1320
 8524W        W 9388  24.114   5.478  11.804  0.0135 -0.0467 -0.5560
 8525W        W 9389   3.991  12.438   2.565 -0.2938 -0.1900  0.1420
 8526W        W 9390   3.345   3.542  21.899  0.4927 -0.2021 -0.0035
 8527W        W 9391   5.518  15.126   5.143 -0.2984 -0.0881  0.0138
 8528W        W 9392  21.822  23.142  24.228 -0.1364 -0.0146 -0.1650
 8529W        W 9393  26.416   4.808   6.300  0.1562  0.2128  0.1045
 8530W        W 9394  21.702  14.098  10.846 -0.0160 -0.0230 -0.0634
 8531W        W 9395  19.820   2.586   3.342  0.1264 -0.1761 -0.0795
 8532W        W 9396   8.690  15.533  27.613  0.0716  0.1488  0.4672
 8533W        W 9397  27.012   3.105  24.702  0.0287  0.2087  0.1679
 8534W        W 9398  23.697  18.022   5.843 -0.1081  0.1135 -0.0279
 8535W        W 9399   2.949  21.694  20.766  0.2520  0.1161  0.3567
 8536W        W 9400  13.618  14.386   8.065  0.0494  0.1093 -0.0907
 8537W        W 9401   4.429   7.698  10.827 -0.2284  0.1214 -0.0520
 8538W        W 9402  21.712  17.219  15.965  0.1444 -0.0908 -0.2915
 8539W        W 9403  10.747  20.922  24.380  0.2474  0.0442 -0.0094
 8540W        W 9404   5.202  10.287   7.678  0.0119 -0.1420  0.1624
 8541W        W 9405   3.466  15.113   7.168 -0.1170 -0.1417 -0.6090
 8542W        W 9406  10.498  13.233  19.707 -0.2083  0.1010 -0.0799
 8543W        W 9407   9.735  22.930  16.112 -0.0155  0.0701  0.0561
 8544W        W 9408   4.560   1.200  21.647  0.1630 -0.0730  0.0721
 8545W        W 9409  23.371  25.283  23.064 -0.1047  0.0042 -0.0515
 8546W        W 9410  10.596  26.004  18.290  0.2287  0.0286  0.1694
 8547W        W 9411   3.060  19.782  21.670 -0.0713 -0.1352 -0.0924
 8548W        W 9412   0.072   8.926  27.712 -0.1108  0.0935 -0.1405
 8549W        W 9413   7.271  11.662   3.741  0.0786  0.0061 -0.2845
 8550W        W 9414  13.314   7.351   8.309  0.0274  0.1737 -0.0993
 8551W        W 9415  28.292  26.481   7.297 -0.0481 -0.2589 -0.0294
 8552W        W 9416  13.249  20.674  23.828 -0.0527 -0.0480  0.0838
 8553W        W 9417   0.104   1.927   7.385  0.3075  0.1324 -0.0260
 8554W        W 9418   9.393   9.423  19.001 -0.0018  0.0640  0.2498
 8555W        W 9419   1.080  16.739  28.230 -0.0439  0.1933 -0.3592
 8556W        W 9420  26.431   5.304  16.487  0.0094  0.1809 -0.2709
 8557W        W 9421   6.326  28.615   1.845 -0.0454  0.4659 -0.2627
 8558W        W 9422  11.100   8.165  11.299  0.1392  0.1765  0.0060
 8559W        W 9423  11.298  16.021  19.905  0.0520 -0.1966  0.0641
 8560W        W 9424  18.097   9.497  21.486  0.0644  0.1878 -0.0958
 8561W        W 9425  25.297   4.616  26.011 -0.0433  0.0568  0.1208
 8562W        W 9426  28.716   6.162  10.701  0.2473 -0.0747  0.2129
 8563W        W 9427   3.280  23.260  26.179 -0.0501  0.1085 -0.2751
 8564W        W 9428  24.299  10.834   8.476  0.3583  0.2343  0.0524
 8565W        W 9429   1.209  10.059   2.912 -0.0470  0.2701  0.0844
 8566W        W 9430  20.735  14.524   5.471  0.1458 -0.4403 -0.0341
 8567W        W 9431   0.595  11.792  23.997 -0.3123 -0.0603  0.1007
 8568W        W 9432  19.596  28.787   6.880  0.1237 -0.0121 -0.1649
 8569W        W 9433  15.659  11.108  22.781 -0.1148  0.5393 -0.3124
 8570W        W 9434  19.520  22.510  17.400  0.0121 -0.1897  0.0937
 8571W        W 9435  26.309   1.749  25.897 -0.0997 -0.3521 -0.1905
 8572W        W 9436  11.288  18.261  11.481  0.1750 -0.1194 -0.1294
 8573W        W 9437   6.706  15.690  18.575  0.1481 -0.0659  0.0970
 8574W        W 9438   2.920  10.621  15.315 -0.1308 -0.1155 -0.2135
 8575W        W 9439  20.831  16.771   7.956  0.0067 -0.1664  0.2106
 8576W        W 9440   0.576  13.343  24.701 -0.1204 -0.0915 -0.1976
 8577W        W 9441  25.438   9.440   6.492  0.0726  0.2393 -0.1067
 8578W        W 9442  19.368  15.249   5.063 -0.1136  0.4041  0.1507
 8579W        W 9443   8.280  19.017   2.545 -0.1063  0.0343 -0.0611
 8580W        W 9444  29.013  16.037  15.521 -0.1492 -0.1145  0.1702
 8581W        W 9445   3.317   0.398  20.642 -0.2800 -0.0084 -0.0034
 8582W        W 9446  23.251  27.094  22.908  0.0083 -0.3238 -0.1078
 8583W        W 9447   3.434  10.195  13.643 -0.1640  0.1743  0.2336
 8584W        W 9448   5.374  20.761  25.697  0.1024  0.2375 -0.2110
 8585W        W 9449   3.559   0.412  17.273  0.0485 -0.1956 -0.0175
 8586W        W 9450  19.491   3.517   3.532 -0.0316  0.0078  0.1754
 8587W        W 9451  10.331  20.102   8.323 -0.0535 -0.1632  0.0829
 8588W        W 9452   1.956   7.421   4.576  0.1777 -0.2877 -0.2245
 8589W        W 9453  14.228   7.507  22.549  0.1343  0.2637 -0.0680
 8590W        W 9454  20.608  25.791  11.399 -0.2637 -0.3742  0.1762
 8591W        W 9455  26.533  19.892  18.271  0.0612 -0.0892 -0.1571
 8592W        W 9456   1.583   3.958  13.161  0.0975 -0.2749 -0.2474
 8593W        W 9457   1.582   6.572  22.267  0.1392  0.1065 -0.2107
 8594W        W 9458  13.461  16.502  15.306 -0.1220 -0.0546  0.0160
 8595W        W 9459  21.583  15.603  28.188  0.1959 -0.0493 -0.0715
 8596W        W 9460  28.908   7.894  10.091  0.1739 -0.0384 -0.3176
 8597W        W 9461   5.738  12.395   5.511 -0.1261  0.1977  0.0718
 8598W        W 9462  25.337  28.360  22.095 -0.2244  0.3842  0.0039
 8599W        W 9463  21.987  23.744  22.701 -0.1180  0.1181  0.0121
 8600W        W 9464  11.266  10.669  28.917  0.1504  0.0012  0.2036
 8601W        W 9465   1.007  12.222   3.168  0.0707  0.0800  0.1550
 8602W        W 9466  10.115   6.863  20.309 -0.1678  0.3507  0.2013
 8603W        W 9467   4.675   7.132  17.247 -0.1564  0.1450  0.0216
 8604W        W 9468   4.490  28.501   2.345 -0.0614 -0.0788  0.0526
 8605W        W 9469  13.169  18.161  22.551 -0.0853 -0.0931  0.0670
 8606W        W 9470   4.384  22.402  10.542  0.4102  0.1950 -0.4400
 8607W        W 9471   1.206  23.729  10.690  0.1077  0.2480  0.4922
 8608W        W 9472  14.001  12.753  12.486 -0.0996  0.2450  0.0089
 8609W        W 9473  15.279  14.954  16.960 -0.0366 -0.2512 -0.3109
 8610W        W 9474   9.037  25.920  21.458 -0.0340  0.0789 -0.2243
 8611W        W 9475   0.860   6.446  17.708  0.0291  0.2295 -0.1422
 8612W        W 9476  13.710   4.584   8.407 -0.0405  0.1305  0.0747
 8613W        W 9477  25.892   0.528   2.089  0.1504 -0.4177  0.1734
 8614W        W 9478   1.638  12.255  13.079 -0.2580 -0.0370 -0.0154
 8615W        W 9479  24.375  16.115  24.278 -0.0221 -0.2000  0.2910
 8616W        W 9480   4.879  11.031  16.847  0.2830 -0.2840  0.1220
 8617W        W 9481   8.903  19.938  23.955 -0.1259 -0.1898  0.0254
 8618W        W 9482  11.633   7.099  16.157 -0.1842 -0.0366  0.0211
 8619W        W 9483  20.261  13.911  15.517 -0.1194 -0.0655 -0.2873
 8620W        W 9484  12.757  10.037  23.414 -0.3249 -0.0389  0.0616
 8621W        W 9485  13.892   1.131  15.658  0.1531  0.0718 -0.0678
 8622W        W 9486   5.485  22.643  29.052  0.0414 -0.4342 -0.5015
 8623W        W 9487   4.178   5.785   1.965 -0.0961 -0.0257 -0.0907
 8624W        W 9488   4.352  15.073  11.022  0.1775 -0.4429 -0.3612
 8625W        W 9489  26.883   1.203   6.227 -0.1127  0.0303  0.0988
 8626W        W 9490  22.123  11.216  14.999 -0.3101  0.2200  0.0567
 8627W        W 9491  17.783  15.228  23.073 -0.3328  0.3782 -0.0011
 8628W        W 9492   2.746  17.941  26.033 -0.3428 -0.0011  0.2793
 8629W        W 9493  19.630  15.193  16.437 -0.4181 -0.1535  0.1072
 8630W        W 9494   5.143  11.963  28.728 -0.0225  0.2521  0.0997
 8631W        W 9495  26.079  25.270  21.774  0.4595 -0.3463  0.0962
 8632W        W 9496  28.614   9.663   5.297  0.1872 -0.1069 -0.0648
 8633W        W 9497   5.654  22.073  16.894 -0.0428  0.0882  0.0084
 8634W        W 9498   1.359   3.838  16.663  0.0037 -0.0852  0.1146
 8635W        W 9499   4.255   1.703  19.011 -0.1092 -0.3218  0.0311
 8636W        W 9500  28.582  27.691   9.850 -0.2859 -0.2826  0.4178
 8637W        W 9501  24.532  16.108  23.791  0.0513  0.2037 -0.0145
 8638W        W 9502  26.878  13.395  23.354 -0.0288  0.0066  0.0621
 8639W        W 9503   4.857  13.974   9.213 -0.2408 -0.0371 -0.0260
 8640W        W 9504   6.608  16.780   7.763  0.1344  0.1990  0.1160
 8641W        W 9505  20.976  19.821  10.339  0.2448  0.0544 -0.1559
 8642W        W 9506  14.018  14.892   8.658  0.0034 -0.1411  0.1981
 8643W        W 9507  27.732  24.647  14.747 -0.2222  0.2362 -0.1272
 8644W        W 9508  11.208  11.909  23.833  0.0113  0.0284 -0.2992
 8645W        W 9509  13.686  13.935  21.492 -0.1852 -0.3464 -0.1377
 8646W        W 9510   4.671   8.920   4.589 -0.0605 -0.0997 -0.0674
 8647W        W 9511   2.871   4.623  18.685 -0.1364  0.0333  0.1312
 8648W        W 9512   5.189  12.383  18.721 -0.1126 -0.1336  0.1154
 8649W        W 9513  27.574  22.963  14.069 -0.1384 -0.1040  0.0648
 8650W        W 9514  13.989  20.676  17.452 -0.1052 -0.1308  0.1656
 8651W        W 9515  17.211   6.796  20.661 -0.0218  0.0419 -0.2638
 8652W        W 9516  12.591   4.038  16.418  0.0575  0.2741  0.0281
 8653W        W 9517  27.608   2.734  22.915  0.0515  0.0971  0.2972
 8654W        W 9518  28.391  27.014  21.167  0.1326  0.2967 -0.0184
 8655W        W 9519   8.030  19.647  23.035  0.2504  0.1878 -0.1881
 8656W        W 9520   8.037  21.254  23.308  0.2326  0.1029 -0.0844
 8657W        W 9521  24.332  10.772  18.182  0.3506  0.0307 -0.0517
 8658W        W 9522  13.891  17.487   9.382 -0.1824  0.1461  0.1062
 8659W        W 9523  27.759   3.139  14.999 -0.0663  0.1869  0.0784
 8660W        W 9524  28.485   7.628   7.087  0.0439  0.1468 -0.0066
 8661W        W 9525   1.178  21.878  22.323 -0.0130  0.0170 -0.0730
 8662W        W 9526   0.986   7.103  22.845 -0.2377  0.2033  0.2592
 8663W        W 9527  14.313  20.654  29.036  0.1912  0.2277  0.0986
 8664W        W 9528  15.772  21.626  12.001  0.2865 -0.1759  0.0226
 8665W        W 9529   7.611   4.563   7.846  0.1832 -0.2414 -0.1668
 8666W        W 9530   4.673  17.864  27.419 -0.0725  0.1338 -0.4630
 8667W        W 9531  10.577  23.636   3.829  0.0870 -0.2011 -0.0090
 8668W        W 9532  20.169   3.062  24.834 -0.0834 -0.1235 -0.3027
 8669W        W 9533   5.540  17.048  27.496 -0.1098  0.1216 -0.0660
 8670W        W 9534  18.987   3.699   9.000  0.1759 -0.2213 -0.0361
 8671W        W 9535  11.555  11.170   7.099 -0.2847  0.1604 -0.0795
 8672W        W 9536  28.025  22.629  24.831  0.0662 -0.0028 -0.1728
 8673W        W 9537  17.225   6.118  16.414  0.0542  0.1972  0.3508
 8674W        W 9538   1.575  23.652  23.489  0.0002  0.0271 -0.0066
 8675W        W 9539  27.807  10.392  22.308 -0.1085 -0.3240  0.1076
 8676W        W 9540  23.154  26.645   9.529 -0.2076 -0.1557 -0.0154
 8677W        W 9541  17.664   5.892  25.224  0.1670 -0.0202 -0.0658
 8678W        W 9542   8.546  21.199  15.330  0.2314  0.0702 -0.1090
 8679W        W 9543  16.535   9.904  17.909 -0.0945  0.1365  0.2006
 8680W        W 9544  17.469   3.258  15.096 -0.5103  0.1655  0.2807
 8681W        W 9545   1.492   1.965  21.276 -0.2581  0.2566  0.2958
 8682W        W 9546  19.674  19.426   3.899  0.1471 -0.1788 -0.0505
 8683W        W 9547  13.559  16.596  18.274  0.0203  0.2056 -0.1020
 8684W        W 9548  18.740  27.660   1.850  0.1239  0.1941  0.2550
 8685W        W 9549   0.199   1.794  15.270 -0.1055  0.2137  0.1140
 8686W        W 9550  17.873  19.992  21.523  0.3766  0.0240  0.1140
 8687W        W 9551   8.778   8.311  23.288 -0.2036  0.1948 -0.0760
 8688W        W 9552  26.809  19.683   0.553  0.1710 -0.1534  0.2618
 8689W        W 9553  23.456  13.870   1.905 -0.0015 -0.1119  0.2206
 8690W        W 9554  27.231  27.377  21.774 -0.2092 -0.0058 -0.0424
 8691W        W 9555  12.978   7.641  22.015  0.0367 -0.0696  0.0460
 8692W        W 9556  24.668  12.282  17.756 -0.2540 -0.2008  0.1412
 8693W        W 9557   5.478   9.683  15.030 -0.0505 -0.1737 -0.0595
 8694W        W 9558   5.813  17.921  25.941 -0.0893  0.0106 -0.1213
 8695W        W 9559  19.728   3.902   5.609 -0.2343  0.1225 -0.2474
 8696W        W 9560  25.548  24.954  23.869  0.1155 -0.1809  0.3123
 8697W        W 9561  13.114  11.312  19.374  0.1295 -0.2428  0.0176
 8698W        W 9562  19.295  21.742  28.433  0.0444  0.0062  0.0497
 8699W        W 9563  14.137  24.076  18.077  0.2886  0.0355  0.1330
 8700W        W 9564  10.909  11.416  22.418 -0.1970  0.2273  0.0494
 8701W        W 9565   0.849  23.475  19.308  0.0740 -0.3608 -0.3195
 8702W        W 9566  28.404  22.204   7.111  0.3001  0.0165  0.0494
 8703W        W 9567   5.415   6.559  24.735  0.1860  0.0309  0.1969
 8704W        W 9568  28.362  24.308  17.285 -0.0741  0.0328 -0.1278
 8705W        W 9569   5.079  23.010  13.491 -0.0551  0.1470  0.0177
 8706W        W 9570  18.327  17.547  10.949 -0.0671  0.0953 -0.1792
 8707W        W 9571  15.306   3.931   6.229  0.2622  0.0630  0.5253
 8708W        W 9572  10.007  24.919  10.100 -0.1752 -0.0125  0.2249
 8709W        W 9573  10.617  25.947  20.791 -0.1641  0.0202  0.1967
 8710W        W 9574  26.164  17.437  14.361  0.0234 -0.1801 -0.1748
 8711W        W 9575   8.423  21.410  16.936  0.2306  0.2117 -0.0180
 8712W        W 9576  19.464   7.961  10.903  0.1304 -0.2659 -0.0057
 8713W        W 9577   2.221   9.800  14.029  0.0560  0.0906 -0.1511
 8714W        W 9578  21.300   6.143   6.800  0.2351  0.2554 -0.0810
 8715W        W 9579  24.916   7.926  10.491  0.1194  0.0263 -0.1883
 8716W        W 9580  20.701  17.545  16.778 -0.1659  0.3078 -0.1129
 8717W        W 9581   2.924  23.080   1.720  0.1818 -0.1755 -0.0679
 8718W        W 9582  19.951  10.048  20.868 -0.2977  0.0625  0.0183
 8719W        W 9583  24.232  16.642   0.531 -0.0889 -0.1008  0.0954
 8720W        W 9584  24.219  19.240  11.596  0.2927  0.1978 -0.0398
 8721W        W 9585   4.815  24.326   0.637 -0.1507 -0.0941 -0.3501
 8722W        W 9586  26.221   7.820  25.763 -0.3255 -0.1896  0.2679
 8723W        W 9587   3.933  14.539  24.033 -0.1680 -0.0862  0.1893
 8724W        W 9588  10.911  16.550   1.162  0.2084 -0.0596 -0.0353
 8725W        W 9589  15.766   1.646  21.482 -0.1439  0.1539 -0.0181
 8726W        W 9590  26.841   9.966  10.413  0.2932  0.0152  0.0250
 8727W        W 9591   3.414  26.224   1.146  0.0227 -0.0484 -0.0191
 8728W        W 9592   4.670  13.372  17.458  0.0409 -0.2007  0.0477
 8729W        W 9593  20.651  29.070  21.381  0.1897  0.0088  0.2899
 8730W        W 9594  21.961  20.398   7.227 -0.0134  0.0030 -0.2710
 8731W        W 9595  14.119  12.035  17.990  0.2482  0.1388 -0.3030
 8732W        W 9596   0.783  18.913  11.961 -0.0164 -0.1632  0.5933
 8733W        W 9597  21.805  14.652  13.204  0.3992 -0.1301  0.2048
 8734W        W 9598  16.074   5.109  19.650 -0.1331 -0.0159  0.2519
 8735W        W 9599   9.231  18.118   1.606  0.1232 -0.0683  0.0609
 8736W        W 9600  12.834  10.417   4.492  0.1532 -0.1635  0.1091
 8737W        W 9601  26.444   8.341  16.465 -0.0656  0.0158  0.0313
 8738W        W 9602   9.911   2.286  18.835  0.2633  0.1995 -0.1253
 8739W        W 9603  28.188   8.996   4.501 -0.0767 -0.1520 -0.0234
 8740W        W 9604   6.764  13.696  18.785 -0.1002  0.0608 -0.1370
 8741W        W 9605  21.741  27.972  15.601 -0.0454  0.2347  0.2354
 8742W        W 9606  11.341   4.613   4.974  0.0911 -0.1732 -0.0966
 8743W        W 9607  14.464  13.813  23.316 -0.2298 -0.1373 -0.0880
 8744W        W 9608  13.368  28.634  17.032  0.0385  0.0915 -0.0285
 8745W        W 9609   6.956  22.474  18.541  0.1171 -0.2667  0.1008
 8746W        W 9610  14.053  16.472  20.523  0.0111  0.1996 -0.2047
 8747W        W 9611  13.517  16.221   8.675 -0.0385 -0.0998 -0.1363
 8748W        W 9612  27.347  19.053  19.714 -0.4111  0.0107 -0.4764
 8749W        W 9613  26.179  10.524   9.560  0.0936 -0.0553  0.0941
 8750W        W 9614   9.013   6.937  23.144  0.1462 -0.0066 -0.1055
 8751W        W 9615  16.168   6.659   8.016 -0.3446  0.0871  0.1014
 8752W        W 9616   3.276  11.531   9.049 -0.0843 -0.2838 -0.3523
 8753W        W 9617   7.428  15.267  15.564  0.3098 -0.3314  0.3761
 8754W        W 9618   9.911  21.561  19.360  0.2092 -0.2534  0.2126
 8755W        W 9619  26.759   7.449  10.652  0.0940  0.0600 -0.0740
 8756W        W 9620   3.253   0.234   1.216 -0.1213 -0.1477 -0.3272
 8757W        W 9621   9.306  12.800   3.795  0.1378  0.1522 -0.0240
 8758W        W 9622  16.802   4.000  10.140 -0.3074 -0.3057  0.1724
 8759W        W 9623   8.671  10.418  11.776  0.0798 -0.0718  0.1639
 8760W        W 9624  20.253  28.550  24.482  0.1508 -0.1525 -0.3745
 8761W        W 9625  24.821  22.155  15.821 -0.2362  0.1966  0.2511
 8762W        W 9626  14.086  21.526   5.361 -0.1290  0.0686 -0.2063
 8763W        W 9627  10.617  27.679  26.163 -0.5004  0.4093 -0.2461
 8764W        W 9628   6.909  22.833  21.036 -0.0309 -0.1642 -0.1813
 8765W        W 9629  26.452  26.670  21.617  0.0572 -0.1267 -0.0984
 8766W        W 9630   0.945  10.096  18.151  0.0573 -0.0070  0.2289
 8767W        W 9631  13.579   4.442  13.650  0.2348 -0.0528 -0.3100
 8768W        W 9632   5.936  21.679   9.171  0.2357 -0.2214  0.1443
 8769W        W 9633   3.233  17.761   2.180 -0.1298  0.1853  0.5972
 8770W        W 9634  27.653  15.324  23.754  0.2106 -0.2197  0.1368
 8771W        W 9635  20.698   8.271  14.768 -0.1060 -0.0631  0.0280
 8772W        W 9636   1.416   1.368   9.364  0.1289 -0.1992  0.0733
 8773W        W 9637  18.935  22.320  24.152 -0.3355  0.0822 -0.4027
 8774W        W 9638  11.454  17.549   4.991 -0.5527 -0.0050  0.0470
 8775W        W 9639  17.433  13.310  12.296  0.1571  0.1886  0.1252
 8776W        W 9640   3.658  19.164   9.976 -0.1940  0.0009  0.0192
 8777W        W 9641  13.363   2.640  17.649 -0.1493  0.0386  0.0193
 8778W        W 9642  11.775   3.631  13.717 -0.0290  0.1896  0.0710
 8779W        W 9643  19.681  18.290  23.583 -0.3776 -0.0841  0.0223
 8780W        W 9644   1.139  16.003  25.559 -0.1571 -0.3121 -0.0807
 8781W        W 9645   2.832  17.600  15.941 -0.0588  0.1241  0.0680
 8782W        W 9646   3.268  13.041   4.233  0.0568 -0.1222  0.0150
 8783W        W 9647   6.975  29.026  28.316  0.1853  0.2281  0.1336
 8784W        W 9648  24.741  19.329  23.625 -0.2152  0.2010  0.1373
 8785W        W 9649  10.166   4.887   1.370 -0.0478  0.0299 -0.2012
 8786W        W 9650  26.772  20.113  11.933  0.0076 -0.1755 -0.4467
 8787W        W 9651  27.071  15.326   8.458  0.1349  0.1878 -0.1025
 8788W        W 9652  10.022  17.668  15.658 -0.0946  0.0271 -0.1141
 8789W        W 9653   4.792  28.763  13.588  0.1489  0.3326  0.1360
 8790W        W 9654  28.436  24.584   7.338 -0.0003 -0.1803  0.0563
 8791W        W 9655  27.022   2.435  27.560 -0.0043  0.1869 -0.2068
 8792W        W 9656   4.159  15.788  26.323 -0.4340 -0.2503 -0.0558
 8793W        W 9657   9.223  13.249  24.180 -0.1551  0.0248 -0.1476
 8794W        W 9658  19.176  19.047  13.385  0.1359  0.1205  0.1127
 8795W        W 9659  16.895  26.730  21.469 -0.1078  0.0159  0.0787
 8796W        W 9660   8.263  12.715  10.914 -0.1847 -0.1131  0.3058
 8797W        W 9661   6.673  25.516  23.135  0.2696  0.1599  0.0723
 8798W        W 9662   0.420   7.699  27.273  0.0007  0.2154 -0.4293
 8799W        W 9663   8.393   3.852  28.323 -0.3111  0.0701 -0.4525
 8800W        W 9664  28.812  15.469  21.534 -0.2790  0.2374  0.1124
 8801W        W 9665  11.012   8.916  23.541 -0.0881 -0.0154 -0.0130
 8802W        W 9666  20.968   7.593  25.705 -0.1663  0.1584  0.1946
 8803W        W 9667  21.121   3.555  19.057 -0.0264 -0.1235  0.1278
 8804W        W 9668   9.540  13.543  15.419  0.1401 -0.2615  0.1865
 8805W        W 9669  27.453   4.683  17.745 -0.0382 -0.0031  0.0027
 8806W        W 9670  15.821   4.966  20.535 -0.3295 -0.0370 -0.0122
 8807W        W 9671  12.908  12.017  12.680 -0.3144  0.0554  0.3021
 8808W        W 9672   1.276   2.052  25.204 -0.0503  0.1519 -0.0533
 8809W        W 9673   3.023  13.931   8.330  0.0441  0.4355 -0.0156
 8810W        W 9674   7.809  12.205   7.449 -0.0862  0.1913  0.0411
 8811W        W 9675  28.249  23.389  21.595  0.1444  0.2329  0.2690
 8812W        W 9676   1.550  17.237  19.618 -0.0625 -0.0259 -0.1540
 8813W        W 9677  22.761   6.992  18.032 -0.1741  0.2130 -0.1008
 8814W        W 9678  13.312  22.430   2.854 -0.1678  0.2447  0.0433
 8815W        W 9679  26.243   1.616  22.301 -0.0293 -0.2474  0.1689
 8816W        W 9680   9.619  25.025  29.127  0.0552  0.2599 -0.0284
 8817W        W 9681   2.136  14.477   6.219 -0.0543 -0.0680 -0.3079
 8818W        W 9682  22.592   4.643  11.157  0.0378  0.1332 -0.0123
 8819W        W 9683   6.731   9.575   9.933 -0.0256 -0.1742 -0.0363
 8820W        W 9684  28.022  26.946  21.649  0.0084 -0.1945  0.0447
 8821W        W 9685   5.342  16.288   5.925 -0.1342  0.1296 -0.2539
 8822W        W 9686  26.731  24.195  13.898  0.0560 -0.1698  0.0985
 8823W        W 9687  23.174   1.748  28.316  0.0119 -0.0131  0.0270
 8824W        W 9688  10.404  21.783  13.847  0.1175 -0.3497 -0.0204
 8825W        W 9689  16.741  28.445  12.068 -0.0841  0.0668  0.0085
 8826W        W 9690  16.562  12.937  11.276  0.0674 -0.0885  0.2406
 8827W        W 9691  28.759  11.231  12.668  0.1408 -0.2509  0.2247
 8828W        W 9692  28.031  25.140  11.259 -0.0147  0.1255 -0.3654
 8829W        W 9693   1.468  16.216  26.492  0.2658  0.1863 -0.0646
 8830W        W 9694   5.000  20.137  18.591 -0.0147  0.3307  0.3344
 8831W        W 9695  27.052  21.580   9.246  0.1743  0.0942  0.3479
 8832W        W 9696  28.097   3.892  14.427 -0.0679  0.4552 -0.0339
 8833W        W 9697  25.547   1.339   1.528 -0.2230 -0.1169 -0.0316
 8834W        W 9698   2.153  16.550   5.398  0.0449  0.0346  0.1056
 8835W        W 9699   6.635  25.665  23.992  0.1221  0.2439 -0.1905
 8836W        W 9700   6.213  20.438  15.527 -0.1328  0.0663 -0.3102
 8837W        W 9701   5.272  17.491  25.829 -0.1756  0.0391  0.0189
 8838W        W 9702  10.993  24.804   0.125 -0.3528 -0.2594 -0.0093
 8839W        W 9703  28.677  25.463  20.458  0.1490 -0.1982  0.2114
 8840W        W 9704   0.611  26.472   0.712  0.2371 -0.4397  0.1585
 8841W        W 9705   1.255  18.746  17.462 -0.1655 -0.1657 -0.0152
 8842W        W 9706   5.773  22.287  25.094  0.1278  0.0743 -0.1956
 8843W        W 9707   2.153  29.136  17.613  0.1456  0.1085  0.5911
 8844W        W 9708  27.114  13.846   7.271 -0.3506 -0.2167  0.0333
 8845W        W 9709  13.071   0.748  20.313 -0.3553  0.2008  0.2106
 8846W        W 9710  26.018   9.610  15.025 -0.0401  0.0115 -0.1552
 8847W        W 9711  10.813   3.034  19.676  0.1804  0.1819 -0.2256
 8848W        W 9712   1.882  24.095   9.706  0.2390  0.0034 -0.0299
 8849W        W 9713  16.447  15.476  17.793  0.0717  0.1251 -0.1783
 8850W        W 9714   7.888  10.325   7.827  0.1284 -0.1630 -0.2912
 8851W        W 9715  27.886  22.961  11.408 -0.0404  0.1593  0.1758
 8852W        W 9716  15.194   1.288  14.913  0.0143 -0.0650  0.0413
 8853W        W 9717   1.056  15.849  21.553 -0.0768 -0.0580  0.0194
 8854W        W 9718  25.512   8.957  25.219  0.0832 -0.0821 -0.2100
 8855W        W 9719  24.711  11.462  17.087 -0.0502  0.2655  0.1034
 8856W        W 9720  15.933  12.958  18.677 -0.0557  0.2157  0.3534
 8857W        W 9721  22.740  16.856  21.092 -0.3814  0.3187  0.1125
 8858W        W 9722  27.580  28.317  13.708 -0.2756 -0.0176 -0.0505
 8859W        W 9723   1.590   5.258  19.425  0.1528 -0.1756  0.0322
 8860W        W 9724   5.712  15.207  13.542 -0.0489 -0.2599 -0.1356
 8861W        W 9725  12.727  25.197   8.500 -0.3010  0.0713  0.2594
 8862W        W 9726  12.689  11.555  10.024  0.1497  0.0650  0.0432
 8863W        W 9727   5.216  23.195   8.332 -0.1555 -0.1226 -0.3619
 8864W        W 9728  28.908   4.782   7.221 -0.0536 -0.2142 -0.0470
 8865W        W 9729   1.765   4.795  19.632 -0.0307 -0.2687 -0.2981
 8866W        W 9730  19.167   0.328  12.866 -0.4154 -0.2536 -0.0561
 8867W        W 9731  11.145  11.390   6.197 -0.1951 -0.2869 -0.0993
 8868W        W 9732   2.058  12.319  14.909 -0.0649 -0.3111 -0.2503
 8869W        W 9733  28.048  10.016  18.446  0.2088 -0.0406  0.4359
 8870W        W 9734  19.866  10.595  26.684  0.0530  0.0405  0.1361
 8871W        W 9735   1.123  16.137   1.288  0.0014 -0.0336 -0.1114
 8872W        W 9736  28.958   4.738  27.249  0.1269 -0.0002 -0.2028
 8873W        W 9737   3.622  10.720  13.665 -0.2999 -0.1308 -0.0243
 8874W        W 9738  21.215  27.883  24.329  0.2529  0.1568 -0.1129
 8875W        W 9739   5.037  10.722  22.590 -0.1613  0.0914 -0.0377
 8876W        W 9740   5.549  16.494   7.208 -0.3696 -0.1308 -0.0804
 8877W        W 9741  12.515  12.231  26.941 -0.0471 -0.2082  0.2304
 8878W        W 9742  15.395  24.829  17.236  0.0332 -0.3956 -0.0792
 8879W        W 9743  17.668   3.858  14.202 -0.0293 -0.0820 -0.1297
 8880W        W 9744  26.306  26.912  22.967  0.2157  0.0367  0.0304
 8881W        W 9745   7.345   1.988   1.215  0.2066 -0.0353  0.1893
 8882W        W 9746   6.880  12.963   1.521 -0.1971 -0.0923  0.1554
 8883W        W 9747  26.906   6.120   2.336  0.1102  0.1163  0.0271
 8884W        W 9748   3.956   3.612   1.867  0.3341  0.2889 -0.0515
 8885W        W 9749  17.294   4.699  20.905  0.1750 -0.0162  0.1732
 8886W        W 9750  10.083  11.313  18.556 -0.2754  0.2180  0.1851
 8887W        W 9751   2.286   2.587   5.518  0.4224 -0.0647 -0.1539
 8888W        W 9752  28.314  18.060  27.544 -0.1253 -0.1212 -0.2016
 8889W        W 9753   1.142  19.281  14.306 -0.0445 -0.0249 -0.2631
 8890W        W 9754   4.783  13.430   9.978 -0.2295  0.1319 -0.1251
 8891W        W 9755  14.751  17.554  16.870  0.1757  0.1629  0.2656
 8892W        W 9756  13.485  12.884   4.847  0.2268  0.2699  0.2269
 8893W        W 9757   3.311  19.347  17.355 -0.1593  0.1021 -0.0788
 8894W        W 9758  23.079  18.979   1.147  0.3125 -0.1253  0.0911
 8895W        W 9759   1.917  17.022  27.608 -0.0380 -0.0865  0.1746
 8896W        W 9760   6.440   5.042  23.542  0.1329 -0.0214  0.2405
 8897W        W 9761  28.391   9.883   4.819 -0.0041 -0.0122  0.2515
 8898W        W 9762  27.792   7.686   9.878  0.0329  0.1196  0.0670
 8899W        W 9763   1.430  22.823  24.472  0.0423  0.0777  0.1065
 8900W        W 9764  26.018  25.082  28.131 -0.0190  0.1296 -0.0059
 8901W        W 9765   1.033  27.040  22.296 -0.0594 -0.0403  0.2368
 8902W        W 9766   3.357   0.644   0.936  0.3295  0.1732 -0.0328
 8903W        W 9767  21.735  27.686  13.995 -0.1379 -0.1245  0.0112
 8904W        W 9768  17.749  16.683  10.567 -0.2781 -0.1431  0.2474
 8905W        W 9769  22.387  13.753  25.032  0.3147  0.0611  0.1833
 8906W        W 9770  28.132   0.672  20.581 -0.1846  0.0930 -0.3774
 8907W        W 9771   2.385  24.770  28.437  0.3233  0.1860 -0.0766
 8908W        W 9772  22.399  13.389   1.312  0.1670  0.0761 -0.0264
 8909W        W 9773  22.125  14.777  13.636 -0.1409 -0.0219  0.0694
 8910W        W 9774  24.074   1.718  10.459  0.0337  0.1656  0.2703
 8911W        W 9775  17.428  15.483   1.328 -0.0742  0.0203  0.0424
 8912W        W 9776  22.625  15.696  23.052 -0.0501  0.0652 -0.3109
 8913W        W 9777  26.927   7.535   4.439 -0.3001 -0.1369  0.3071
 8914W        W 9778  10.832  24.164  14.073  0.0088  0.5161  0.1771
 8915W        W 9779  26.764   6.880  14.386 -0.0402  0.1111  0.1111
 8916W        W 9780  25.766  10.016  23.841 -0.0908 -0.2543 -0.0120
 8917W        W 9781   2.678   1.015  22.463  0.2122 -0.5475  0.1353
 8918W        W 9782  19.776   7.047  28.984 -0.0332 -0.1609  0.4097
 8919W        W 9783  15.806   5.783  18.811 -0.1361  0.0161 -0.0999
 8920W        W 9784  16.312   7.208   2.101  0.1122 -0.2512 -0.0941
 8921W        W 9785  22.049  16.138  15.272 -0.1028 -0.0401 -0.1595
 8922W        W 9786  16.957   0.488  24.686 -0.1092  0.0759  0.4649
 8923W        W 9787  28.123  19.439  27.519  0.1216 -0.3191  0.0178
 8924W        W 9788   7.511  27.090  26.574  0.0034  0.0362  0.0067
 8925W        W 9789   6.887   8.689  17.453  0.1672 -0.0174 -0.1717
 8926W        W 9790   0.919  28.971  18.907 -0.1517 -0.5625  0.0771
 8927W        W 9791   2.962  23.899  23.356  0.2029 -0.1279  0.4198
 8928W        W 9792  18.495  23.162  11.500  0.0307  0.1155 -0.0975
 8929W        W 9793  21.840   8.209  27.038 -0.0038 -0.0062  0.0267
 8930W        W 9794   0.903  17.480  27.294  0.0509 -0.0654  0.0810
 8931W        W 9795  27.250   6.231  12.701  0.0379 -0.0935  0.0482
 8932W        W 9796  16.497   4.134   8.995 -0.1009  0.1551 -0.1754
 8933W        W 9797  25.862  16.290   9.559 -0.1204 -0.1459 -0.3451
 8934W        W 9798  23.692  17.968   3.392 -0.3522 -0.0613 -0.0028
 8935W        W 9799  23.879   9.443  18.275  0.6230 -0.2469 -0.1053
 8936W        W 9800  24.308   3.297  28.821  0.1882  0.0712  0.2012
 8937W        W 9801   8.080   8.212   5.112 -0.2487  0.2287  0.2069
 8938W        W 9802  19.811   8.047   6.863  0.0690 -0.1614  0.2869
 8939W        W 9803  27.783   9.617  17.914  0.0028 -0.2057 -0.0160
 8940W        W 9804   0.326  15.667  13.041 -0.1422 -0.3113  0.2641
 8941W        W 9805  18.750   8.025  13.695  0.1997  0.1416  0.1887
 8942W        W 9806   9.579   1.449  17.620 -0.0160  0.1259  0.3519
 8943W        W 9807  17.579  15.758  26.384  0.1967 -0.2412  0.2475
 8944W        W 9808   5.583  21.326  18.314 -0.0286 -0.1509 -0.2558
 8945W        W 9809  21.023   7.478  14.690  0.1113 -0.0492  0.0520
 8946W        W 9810  24.365  23.415   1.419 -0.1570 -0.0060  0.0321
 8947W        W 9811   0.975  14.760  13.941  0.2059 -0.2664 -0.1228
 8948W        W 9812   4.600  19.056  17.169 -0.0594 -0.2098  0.1041
 8949W        W 9813  28.134  10.421  13.086 -0.3548 -0.1352 -0.0946
 8950W        W 9814  25.124   2.735  19.870  0.0451  0.1018 -0.1880
 8951W        W 9815   6.600  11.711  14.318  0.1089 -0.2499  0.0480
 8952W        W 9816   4.022   9.265  25.639 -0.0102  0.1830 -0.3899
 8953W        W 9817   6.366  15.326   9.359  0.1959  0.3833  0.3708
 8954W        W 9818  27.039   9.937  16.665  0.0223  0.0245 -0.2500
 8955W        W 9819   4.280   9.164   7.354 -0.0951  0.0378 -0.1839
 8956W        W 9820  22.903   9.625  12.134  0.0278  0.3133 -0.2396
 8957W        W 9821  14.715  19.791   9.442 -0.1146  0.2591  0.1302
 8958W        W 9822  14.904  26.956  28.032 -0.0236 -0.1384  0.1431
 8959W        W 9823  22.485  10.095  25.318 -0.0097 -0.0227  0.1738
 8960W        W 9824  24.535   2.853  21.429 -0.0693  0.0745  0.0057
 8961W        W 9825   0.482   5.532  24.465 -0.2349 -0.0647  0.4367
 8962W        W 9826  13.826  28.771  18.823  0.2764  0.1896  0.1081
 8963W        W 9827  26.869  13.244  19.727  0.0411  0.2079  0.0427
 8964W        W 9828   2.201  20.733   9.345 -0.1924 -0.0379  0.1864
 8965W        W 9829  13.864  19.706  14.643  0.1533  0.0790 -0.0341
 8966W        W 9830   5.293   4.562  20.810 -0.0643 -0.0702 -0.0274
 8967W        W 9831  25.254  16.626   8.122 -0.0965  0.0537 -0.3540
 8968W        W 9832  26.240  14.511   8.106 -0.1820  0.1314  0.1573
 8969W        W 9833   0.001   3.551  12.657 -0.2195  0.0413  0.3176
 8970W        W 9834  23.994  18.454  19.641  0.2228 -0.0514  0.3315
 8971W        W 9835   0.881  19.165  10.069  0.0654 -0.1136  0.1157
 8972W        W 9836  14.189  21.990  12.315 -0.3185 -0.1254  0.4297
 8973W        W 9837  10.543  11.163  24.793 -0.2901  0.1311 -0.0345
 8974W        W 9838   3.485  11.953  19.263  0.3864  0.3123  0.1956
 8975W        W 9839  10.696  16.507  24.203 -0.1334  0.1633  0.3548
 8976W        W 9840  14.232  14.596  19.782 -0.0783 -0.0864 -0.0784
 8977W        W 9841  20.887   8.794  19.296 -0.2395 -0.2401 -0.0124
 8978W        W 9842   5.110   7.410   0.856 -0.0690 -0.1173 -0.2124
 8979W        W 9843   1.570  11.678   7.512 -0.1414  0.2380 -0.0498
 8980W        W 9844  21.709   9.289  22.852 -0.3073 -0.0199 -0.2005
 8981W        W 9845  20.970  17.601  27.735  0.1041 -0.0767 -0.0057
 8982W        W 9846   4.451  15.725  16.480  0.3049  0.2130 -0.2275
 8983W        W 9847   1.546   8.955  15.530  0.0493  0.2448 -0.1356
 8984W        W 9848  26.147   0.903  19.731 -0.1378  0.0631 -0.0339
 8985W        W 9849  13.057  23.260   1.001  0.0276 -0.2940  0.0587
 8986W        W 9850  23.725   1.462  17.408  0.2820 -0.1746  0.0672
 8987W        W 9851  26.111  19.399  10.553 -0.4342  0.1132 -0.0320
 8988W        W 9852   2.217  13.057  11.913  0.3566  0.0256  0.2694
 8989W        W 9853  22.123   1.341   7.797  0.0562 -0.2146  0.1119
 8990W        W 9854  17.389  17.981  10.615  0.1270  0.4355 -0.1291
 8991W        W 9855  26.464   6.637  19.113 -0.2246 -0.2240 -0.1312
 8992W        W 9856  19.756  19.392   9.232 -0.1928 -0.1227 -0.0968
 8993W        W 9857   9.353   9.240   0.905  0.1512 -0.2826 -0.0982
 8994W        W 9858  27.499  13.284  16.307 -0.2219 -0.1459 -0.0027
 8995W        W 9859  12.362  24.281  18.826 -0.0094  0.0288 -0.0655
 8996W        W 9860  15.562   4.910  16.227  0.0771  0.0659  0.0936
 8997W        W 9861   8.259  10.773  18.055 -0.1641  0.0474 -0.0258
 8998W        W 9862   2.967   4.484  22.796 -0.2171  0.4530  0.0264
 8999W        W 9863   3.675  16.552  28.572 -0.0080 -0.0665 -0.0143
 9000W        W 9864  26.143  17.670   4.057 -0.5188  0.0494 -0.2743
 9001W        W 9865  21.365  19.326  13.828  0.1217 -0.0036 -0.1528
 9002W        W 9866  16.445  21.892  26.191 -0.3573  0.1391  0.0649
 9003W        W 9867  27.555   2.229  12.498 -0.0670  0.0702  0.2938
 9004W        W 9868  19.012  11.103  24.743 -0.0893  0.3478  0.1411
 9005W        W 9869   0.791  21.274  24.019  0.3238 -0.1163  0.0993
 9006W        W 9870  25.403   3.539  16.674  0.0235 -0.3767  0.0563
 9007W        W 9871  14.103   7.514  28.340  0.2318  0.3435 -0.0583
 9008W        W 9872  11.986  12.567  15.327 -0.3444  0.0002  0.3168
 9009W        W 9873  19.526  20.550  19.470 -0.1702  0.2359  0.0574
 9010W        W 9874  15.900   6.550  22.208 -0.1319 -0.0526  0.0151
 9011W        W 9875   5.295   1.439   4.558 -0.0051 -0.1525  0.3243
 9012W        W 9876  21.676  26.665  11.722 -0.1587 -0.1020 -0.0005
 9013W        W 9877  24.592  21.314   6.298  0.2160  0.2228 -0.1717
 9014W        W 9878  25.471  18.169  18.626  0.0262 -0.1108  0.2075
 9015W        W 9879  29.026  13.828  14.633  0.0844 -0.0419 -0.1029
 9016W        W 9880   9.724   2.732  26.255  0.2239 -0.0360 -0.0698
 9017W        W 9881   4.277  15.219   5.787 -0.1899  0.1289  0.1826
 9018W        W 9882   1.157  14.999  24.654 -0.0155 -0.0440  0.0867
 9019W        W 9883  22.697   6.411  19.200  0.1306 -0.0096 -0.4226
 9020W        W 9884   4.429  27.512  21.806 -0.1992  0.1941 -0.0650
 9021W        W 9885  25.221   6.236  28.492  0.0799  0.5962  0.1491
 9022W        W 9886   1.590  24.907  22.418  0.5922  0.0965  0.3929
 9023W        W 9887   2.721  12.350  24.237  0.1286  0.1639 -0.1158
 9024W        W 9888  28.426  16.691  26.187 -0.0082  0.1064  0.3789
 9025W        W 9889  18.083  15.876  16.506  0.1141 -0.0856  0.2164
 9026W        W 9890   3.246  22.315   1.886  0.1995  0.0945  0.0112
 9027W        W 9891  27.435  24.898  28.347 -0.2263  0.1652  0.1564
 9028W        W 9892  28.936  15.194  23.457 -0.0932  0.4554 -0.2434
 9029W        W 9893  24.508  11.363   3.686  0.3642 -0.0324  0.0461
 9030W        W 9894  18.834  22.164  16.507 -0.1255 -0.0067  0.0092
 9031W        W 9895  18.124   1.149  25.007  0.1376 -0.0289  0.0636
 9032W        W 9896  27.663  13.383  20.651 -0.0208  0.0243 -0.0124
 9033W        W 9897   7.109   4.640  23.705 -0.0054  0.0616  0.1145
 9034W        W 9898   4.614  14.807   1.492  0.1866 -0.0760  0.3104
 9035W        W 9899  20.182  17.244  23.578 -0.2939  0.1060 -0.0229
 9036W        W 9900   5.159  13.926  21.151  0.3063  0.1637  0.2393
 9037W        W 9901  26.125  25.976  19.433 -0.1042  0.0417 -0.1578
 9038W        W 9902  13.334  22.125   5.635  0.2315 -0.0162 -0.0660
 9039W        W 9903  17.662   9.907  16.691  0.0169 -0.0533 -0.1197
 9040W        W 9904   0.345   9.097  19.905  0.0771  0.0025  0.1070
 9041W        W 9905   7.787  17.072  13.061  0.0754  0.2306 -0.4502
 9042W        W 9906  28.846  11.579  28.846 -0.2318  0.2212 -0.1321
 9043W        W 9907   3.980  26.663  21.444  0.1907  0.0700  0.0451
 9044W        W 9908  10.944  12.056   6.702  0.0155  0.0313  0.0699
 9045W        W 9909   4.129  28.131  13.191 -0.1470 -0.0480 -0.0628
 9046W        W 9910   9.067  26.688   2.863  0.2671  0.2057  0.2270
 9047W        W 9911  29.054   3.138  11.370  0.1768  0.1918 -0.1738
 9048W        W 9912   1.451  25.186   0.649  0.2286  0.1720 -0.1458
 9049W        W 9913  19.000  10.631   7.996  0.1585 -0.1570 -0.2804
 9050W        W 9914  20.151  17.378  12.163 -0.0139  0.2138  0.2293
 9051W        W 9915  25.061  22.492  16.240  0.1089  0.0477 -0.1298
 9052W        W 9916  24.872  29.099  22.599  0.2233  0.1305  0.2205
 9053W        W 9917   0.395  14.463  19.415 -0.2710  0.0696 -0.1540
 9054W        W 9918  10.045   2.912  25.917 -0.0366  0.0850  0.1874
 9055W        W 9919  19.279  17.179   9.073 -0.0774 -0.0780 -0.0697
 9056W        W 9920   1.677  24.293   0.173 -0.1864 -0.1277 -0.1848
 9057W        W 9921  12.953   1.976   3.736  0.1473  0.0224  0.1565
 9058W        W 9922  17.574  27.147  23.196 -0.2239  0.3346  0.0413
 9059W        W 9923  15.787   4.827  10.609  0.2784  0.2344  0.1926
 9060W        W 9924  22.809  14.662   4.768  0.2625  0.0200 -0.0533
 9061W        W 9925  22.027  16.943  27.151 -0.1431  0.1048  0.2980
 9062W        W 9926  13.162  27.542   1.083 -0.0415  0.0006 -0.0131
 9063W        W 9927   1.362   4.100  23.202  0.1740 -0.1198 -0.4000
 9064W        W 9928  26.746  26.258   0.872  0.0805  0.2799 -0.2911
 9065W        W 9929   5.571  10.800  23.275  0.1604  0.0535 -0.0673
 9066W        W 9930  27.904  11.593  14.270 -0.0687 -0.1200  0.5185
 9067W        W 9931  26.828  25.363   1.855 -0.0360 -0.0122 -0.2382
 9068W        W 9932   5.355   2.127  20.157  0.1929 -0.0620 -0.2368
 9069W        W 9933  10.683  17.505  27.579  0.0290 -0.0122 -0.1080
 9070W        W 9934  18.907  21.801  21.332 -0.2388 -0.1527  0.2829
 9071W        W 9935   3.049  23.075   7.413 -0.0313  0.0718  0.3928
 9072W        W 9936  17.487  25.890  11.157  0.2395  0.2144 -0.1395
 9073W        W 9937  12.893  14.673  16.293 -0.1071 -0.1209 -0.2672
 9074W        W 9938   8.228  17.211  20.126  0.1839  0.1199 -0.1405
 9075W        W 9939  21.160   9.839   6.273  0.0250 -0.1674 -0.0118
 9076W        W 9940  24.867   9.144   1.524  0.2490  0.1354  0.0454
 9077W        W 9941  24.543  13.718  24.156  0.3442  0.1625 -0.1588
 9078W        W 9942  10.770   9.476   2.961  0.0606  0.0674  0.2886
 9079W        W 9943   2.856  20.975  25.855 -0.1347  0.0338 -0.5022
 9080W        W 9944  19.443   9.617  28.482 -0.3204 -0.1277 -0.1526
 9081W        W 9945  10.566  24.791  10.472 -0.1032 -0.2933 -0.1424
 9082W        W 9946  11.904  15.680   8.965  0.4288 -0.1325 -0.0240
 9083W        W 9947   5.750  22.686   5.288 -0.3326 -0.2650 -0.0218
 9084W        W 9948  13.302  11.393  13.566  0.1077 -0.4329  0.0499
 9085W        W 9949   1.557  20.907   3.296  0.2217 -0.1257  0.1233
 9086W        W 9950  25.650  16.661   2.153  0.4913 -0.0777 -0.2047
 9087W        W 9951   7.738  16.634  15.847  0.1618 -0.0738 -0.1000
 9088W        W 9952  10.442  27.896  18.332  0.3369  0.1520  0.0301
 9089W        W 9953  27.017  25.287   6.861  0.0992  0.2305 -0.1647
 9090W        W 9954  15.556  19.867  19.440  0.1067 -0.2024 -0.0297
 9091W        W 9955  16.784   7.698  27.933  0.1736 -0.0452  0.4930
 9092W        W 9956   7.340   3.972  26.531  0.2600 -0.0607  0.2014
 9093W        W 9957  26.309  24.078   3.919  0.0651  0.0074 -0.0574
 9094W        W 9958   2.664   9.968  10.273 -0.0657  0.0541 -0.2555
 9095W        W 9959  12.478   7.476  13.042 -0.1401  0.0294  0.2876
 9096W        W 9960  13.610   6.714  28.589  0.1052 -0.1604  0.1314
 9097W        W 9961   4.765   1.353  12.664  0.0156 -0.0664 -0.1090
 9098W        W 9962  21.635   9.894   4.163  0.2584 -0.1253  0.0660
 9099W        W 9963   7.178  24.433   9.764  0.1949 -0.1323 -0.3867
 9100W        W 9964  18.216  19.684  10.952  0.0772  0.1192 -0.3261
 9101W        W 9965   7.079  11.252  21.827  0.0178 -0.0708  0.1050
 9102W        W 9966  26.039   5.519  20.621  0.2169  0.1995  0.0617
 9103W        W 9967   1.569   1.366  24.178  0.0336  0.3256 -0.0015
 9104W        W 9968   0.747  11.132   8.429  0.3353  0.1945 -0.0824
 9105W        W 9969   4.768  25.937  14.393  0.0306  0.1873 -0.1843
 9106W        W 9970   3.301  25.877  27.390  0.1465  0.0103 -0.0140
 9107W        W 9971   7.296  17.088  24.930  0.0129 -0.1116  0.1868
 9108W        W 9972  12.661  21.344  25.035  0.1798  0.0519 -0.0003
 9109W        W 9973  25.059   4.997  18.314  0.4375  0.0379 -0.0106
 9110W        W 9974  16.128  15.915  21.380  0.1908  0.3718  0.0744
 9111W        W 9975   2.811  27.475  20.998  0.1495 -0.3089  0.1905
 9112W        W 9976  10.187  11.347  24.141 -0.1211  0.0265 -0.1314
 9113W        W 9977  27.219  17.052  21.294  0.0257  0.1160  0.0435
 9114W        W 9978   1.451  20.459   2.346  0.0418 -0.2149 -0.1955
 9115W        W 9979  27.266  15.007   0.998  0.1752 -0.0034 -0.0378
 9116W        W 9980   2.810  18.816  22.996 -0.2965  0.2943 -0.0962
 9117W        W 9981  20.338  21.546  14.493 -0.2468 -0.0328 -0.2647
 9118W        W 9982  24.092  27.615  11.996  0.0731 -0.1844 -0.1051
 9119W        W 9983   9.530  18.617   5.527  0.0338 -0.0341  0.2148
 9120W        W 9984  10.353  12.264  21.144  0.0684  0.0698 -0.3031
 9121W        W 9985  26.801   9.375  28.025 -0.3168 -0.2562 -0.0278
 9122W        W 9986   2.640  10.540  13.834 -0.1792  0.0871  0.0784
 9123W        W 9987   8.321  23.371  21.521 -0.0870 -0.0418  0.0350
 9124W        W 9988  26.832   8.505  22.967 -0.0810  0.0788 -0.1375
 9125W        W 9989  10.427  21.120   3.392 -0.3011  0.4148  0.0264
 9126W        W 9990   3.722   4.835   5.823 -0.0174  0.0936 -0.2011
 9127W        W 9991   7.829  12.623  18.552 -0.1222  0.2432 -0.0624
 9128W        W 9992   2.727  25.063  13.665  0.2738  0.1773  0.1918
 9129W        W 9993  23.115   2.437  21.609  0.2350  0.2605 -0.1880
 9130W        W 9994   3.484   1.985  17.976 -0.0031 -0.1782 -0.1847
 9131W        W 9995   9.609  11.522   5.112  0.0501 -0.0219 -0.0283
 9132W        W 9996  10.761  16.314  14.536 -0.0963  0.1052 -0.0573
 9133W        W 9997  27.043   2.199  18.713  0.0670 -0.2420  0.0813
 9134W        W 9998  23.293  24.165  12.128 -0.0839  0.1302  0.1052
 9135W        W 9999   6.205  17.238   1.775  0.1403 -0.0077  0.0053
 9136W        W10000  25.885   1.061  21.529  0.2187  0.0341  0.1360
 9137W        W10001   2.857   2.311  28.391 -0.0486  0.1057  0.0871
 9138W        W10002  12.867  17.693  18.489 -0.1854 -0.2545 -0.0796
 9139W        W10003   8.696  11.284  28.430 -0.0933 -0.2051  0.0584
 9140W        W10004  13.760   0.608   1.684  0.1193  0.1326 -0.2010
 9141W        W10005  14.609  13.277   0.009  0.0757 -0.1506  0.1136
 9142W        W10006  16.605   6.764   7.061 -0.0175  0.0615 -0.1042
 9143W        W10007  15.510  24.019  21.574 -0.2012 -0.3234 -0.1093
 9144W        W10008  15.913  15.575  25.979 -0.0380 -0.1298  0.1490
 9145W        W10009  22.005   6.137   0.885  0.0079 -0.0355  0.0232
 9146W        W10010   3.269  19.245  28.059 -0.2911  0.1272 -0.0292
 9147W        W10011   1.848  21.265  29.090 -0.1325 -0.1594  0.2365
 9148W        W10012  12.087   0.525  21.307  0.1576 -0.1715  0.3316
 9149W        W10013   7.902   7.938  22.615 -0.0180  0.0655 -0.0334
 9150W        W10014  26.726  26.267  21.453  0.0432  0.0662 -0.1489
 9151W        W10015  21.816  15.755  10.765 -0.0961 -0.1070 -0.0971
 9152W        W10016   2.004  25.851  26.100 -0.2431 -0.2365  0.1632
 9153W        W10017   4.748   1.182  25.168  0.0134  0.3186 -0.0121
 9154W        W10018  25.466  17.037  13.643  0.2393  0.0004  0.1306
 9155W        W10019  20.306   4.946  22.282  0.1137 -0.0052 -0.2112
 9156W        W10020  28.082  19.570  26.551  0.2022  0.1264  0.1185
 9157W        W10021  26.161  24.972  11.909 -0.1746  0.0147  0.0474
 9158W        W10022   3.287  17.961  14.491  0.0191 -0.0612  0.0673
 9159W        W10023  22.615   0.226  22.506 -0.0361 -0.2144 -0.2055
 9160W        W10024  17.221   9.949  21.401  0.0182 -0.0072  0.0970
 9161W        W10025   2.940  28.532  24.644 -0.0932  0.1581  0.2349
 9162W        W10026   0.129   9.064  18.484 -0.1396 -0.2207  0.1943
 9163W        W10027  10.394  12.637   7.374 -0.1676 -0.1069  0.1434
 9164W        W10028  18.806  25.761  23.851 -0.0307 -0.0580 -0.0269
 9165W        W10029  24.307   4.713  18.010 -0.2207 -0.1663  0.0367
 9166W        W10030   0.852  22.749   0.336  0.1158  0.0014 -0.2476
 9167W        W10031   7.797  23.220   7.848 -0.0280 -0.0561 -0.0383
 9168W        W10032  16.484  27.041   0.616  0.2568  0.1639 -0.1541
 9169W        W10033   8.362   2.105  19.602 -0.0853  0.0185  0.0641
 9170W        W10034  21.154   7.753  15.935  0.0579  0.0289  0.1037
 9171W        W10035  18.869  19.979  23.688  0.1474  0.2620 -0.3228
 9172W        W10036   3.954   6.484   4.969 -0.2926 -0.3128 -0.0962
 9173W        W10037  24.016   3.098  23.638  0.1002 -0.0879  0.2758
 9174W        W10038  16.401  11.079  24.105  0.4415 -0.0963 -0.0427
 9175W        W10039  28.003  15.380  24.409 -0.1020  0.1540 -0.3513
 9176W        W10040  14.158  25.865  23.987 -0.0941  0.0586 -0.0653
 9177W        W10041   9.472   2.432  24.999  0.0156  0.2377  0.3176
 9178W        W10042   2.623  11.837   5.128 -0.0906  0.0440  0.2017
 9179W        W10043   1.794  24.295  23.061  0.2446 -0.1720 -0.0419
 9180W        W10044  28.342   0.717  17.505  0.0307  0.1690  0.0680
 9181W        W10045  11.746   2.925  20.502  0.1631  0.1999 -0.3448
 9182W        W10046   4.884  19.221   3.796 -0.3489 -0.0309  0.0933
 9183W        W10047  26.381   6.180   2.223  0.2410  0.3641 -0.0110
 9184W        W10048   1.110  23.399  18.829  0.1555  0.2907 -0.0330
 9185W        W10049   4.867  16.889  17.170 -0.1122 -0.2627 -0.0747
 9186W        W10050  15.685  27.098  21.527 -0.1844  0.0633 -0.1572
 9187W        W10051  10.324  20.821  10.015  0.1734  0.0639 -0.2395
 9188W        W10052  27.033  16.490  25.727 -0.0182  0.1125 -0.0842
 9189W        W10053  18.297  15.581   0.941 -0.2469  0.0602  0.1564
 9190W        W10054  25.957  28.823  21.637  0.1174 -0.1349 -0.0641
 9191W        W10055  11.836  23.057  18.380  0.3243  0.1835 -0.3771
 9192W        W10056  16.134  18.233  14.206 -0.1831  0.1742  0.1537
 9193W        W10057   8.637   5.262  23.791 -0.0825 -0.2108  0.0321
 9194W        W10058  26.304  25.491  24.800  0.2779  0.1546  0.1201
 9195W        W10059   4.232   7.353  25.172 -0.1185  0.0016 -0.0144
 9196W        W10060  12.590   4.849   3.914 -0.1198  0.1665  0.0147
 9197W        W10061  15.926  19.727  24.113  0.0100  0.0265 -0.1832
 9198W        W10062   4.205  17.743  28.320 -0.3547 -0.1804  0.1309
 9199W        W10063   2.407  12.610  27.577 -0.1553  0.2051  0.0726
 9200W        W10064   3.013  20.322   1.248 -0.1819  0.2751  0.0123
 9201W        W10065  12.307  16.608  10.393  0.0292  0.0122  0.0217
 9202W        W10066   6.866   5.488  24.195  0.0310  0.0039  0.3754
 9203W        W10067  22.781  21.396  23.402  0.1406  0.1402  0.2144
 9204W        W10068  13.341   1.653   5.042 -0.0150  0.1449  0.1919
 9205W        W10069  28.069  16.481  14.848 -0.2585 -0.0938 -0.3810
 9206W        W10070  25.628  20.404  25.085  0.1468 -0.2556  0.2507
 9207W        W10071   4.126   1.824  12.159  0.1461 -0.2168 -0.1636
 9208W        W10072  24.853  19.895  15.070 -0.2180  0.2728  0.0597
 9209W        W10073   0.554  14.026  10.029  0.0975 -0.0012 -0.1275
 9210W        W10074  26.349  22.837   9.295  0.3544  0.0517  0.2188
 9211W        W10075  17.722   6.903  20.081  0.3335 -0.0305  0.0162
 9212W        W10076   0.604   7.008  25.519 -0.0048 -0.0221  0.1340
 9213W        W10077  14.552  15.552  26.016 -0.0575  0.1181 -0.2332
 9214W        W10078   1.124  25.700  28.915  0.2076  0.1933  0.0714
 9215W        W10079   0.631  22.178  21.608  0.2060 -0.2354 -0.2682
 9216W        W10080  14.220  22.228   1.730  0.0425  0.0650  0.0380
 9217W        W10081  22.652   1.800  13.051 -0.3413  0.2662  0.0119
 9218W        W10082  25.494   6.366   4.008  0.2401 -0.1114  0.0562
 9219W        W10083  28.542   8.619  21.378 -0.0149  0.3408  0.1596
 9220W        W10084   4.519  22.486  17.271  0.1700  0.0931 -0.0595
 9221W        W10085   8.308  13.411  16.289 -0.0230 -0.1235 -0.2391
 9222W        W10086  22.647  12.981  25.681  0.0919 -0.1276  0.2429
 9223W        W10087  27.396   2.430   4.956 -0.2123 -0.0937 -0.1279
 9224W        W10088  25.930   4.055  15.200  0.0269  0.0525  0.0579
 9225W        W10089  21.526  15.597  18.585 -0.1991  0.0978  0.0610
 9226W        W10090   2.096  13.257  18.221  0.1915 -0.3425  0.4346
 9227W        W10091   5.803  20.025  16.084  0.2352 -0.1362  0.0890
 9228W        W10092  26.513   9.748  15.171 -0.0920 -0.1333 -0.2177
 9229W        W10093   3.530  25.710  15.893  0.1891 -0.0206 -0.1226
 9230W        W10094  20.042  19.951   7.651 -0.0279 -0.1633 -0.0570
 9231W        W10095  28.243  28.015   8.765 -0.3091 -0.0522  0.0825
 9232W        W10096   0.852   6.973   3.227 -0.1504  0.1952  0.2212
 9233W        W10097   4.824  27.960  20.882  0.2512 -0.2176 -0.0292
 9234W        W10098  23.388  11.828  14.319 -0.1270 -0.1577 -0.0431
 9235W        W10099  15.523  24.646  11.284 -0.1077  0.5546  0.0083
 9236W        W10100  20.764  20.782  28.874 -0.1556  0.1381  0.1184
 9237W        W10101  21.011   6.148  23.960 -0.0877  0.0451  0.1659
 9238W        W10102  26.869  10.386  13.335 -0.2851 -0.1668 -0.1633
 9239W        W10103  23.521  15.172   6.520  0.1813 -0.1321 -0.2712
 9240W        W10104   9.791  11.120  22.846  0.0824  0.2843 -0.0669
 9241W        W10105   2.541   2.325   6.424 -0.0046 -0.0212  0.3285
 9242W        W10106   9.331   9.354  22.573 -0.2133  0.2806  0.0108
 9243W        W10107   4.006   1.025   8.543 -0.3492  0.2554 -0.1608
 9244W        W10108   5.564  16.129  15.751 -0.1289  0.2043 -0.0115
 9245W        W10109   2.072  12.608   6.019  0.1068 -0.1039  0.1710
 9246W        W10110  25.070  26.749   3.281 -0.1658  0.1263 -0.2685
 9247W        W10111  24.796  12.730  15.874  0.1302  0.0555  0.1408
 9248W        W10112  25.950   8.807  23.981  0.1091  0.3319 -0.0298
 9249W        W10113   8.526   1.788   7.035  0.2245  0.0385 -0.2673
 9250W        W10114  22.269   9.370  23.426 -0.1570  0.1717 -0.1133
 9251W        W10115   2.406   6.882   0.420  0.4686 -0.0763  0.1214
 9252W        W10116   4.450   6.275  14.268  0.2069  0.0303  0.2468
 9253W        W10117   8.089  23.179  26.548 -0.0728 -0.0663 -0.1093
 9254W        W10118  27.630  26.860  20.056 -0.2108 -0.2473 -0.3406
 9255W        W10119   5.777  28.195   0.679 -0.1031 -0.2731 -0.0622
 9256W        W10120   4.997  19.615   4.141  0.0618 -0.1974  0.2182
 9257W        W10121  28.720  25.240   7.832 -0.2302 -0.2349 -0.2594
 9258W        W10122  14.083  27.665  18.112 -0.0650  0.1544 -0.2280
 9259W        W10123  23.835  20.577  19.649 -0.1380  0.3155 -0.0233
 9260W        W10124  23.895  28.511   2.170  0.2848 -0.2724  0.0543
 9261W        W10125   5.323  15.436  24.260  0.0346 -0.0024  0.1057
 9262W        W10126  24.358  20.826  21.884  0.1073 -0.1335 -0.0239
 9263W        W10127   8.578   8.501   6.230 -0.0759  0.1122 -0.0859
 9264W        W10128  12.614   7.200  16.046  0.3264 -0.0115  0.2062
 9265W        W10129  24.650  12.932  28.205  0.1779 -0.0909 -0.1140
 9266W        W10130  15.414  17.489   5.154 -0.0387  0.1485  0.0077
 9267W        W10131   6.070   7.236   5.166 -0.1673  0.1395  0.0200
 9268W        W10132  12.595  19.627  11.261  0.0552  0.0127 -0.0011
 9269W        W10133   1.618  23.224  16.880 -0.0574 -0.2296 -0.1641
 9270W        W10134  19.625  19.057  26.795  0.1389 -0.1826  0.2327
 9271W        W10135  13.396   7.567   4.811  0.0029  0.1152 -0.2104
 9272W        W10136  26.854   8.601   2.766  0.0539 -0.4272  0.1060
 9273W        W10137  19.449  29.004  23.612 -0.3412 -0.0641 -0.0436
 9274W        W10138   0.019  12.612  13.264  0.2575 -0.0475 -0.1300
 9275W        W10139   6.292  10.833   0.912 -0.0159 -0.1086  0.0179
 9276W        W10140   2.320   6.253  20.760 -0.0903  0.1111 -0.3432
 9277W        W10141   2.332  18.603   3.344 -0.2193  0.2265 -0.0742
 9278W        W10142  28.427  25.685   9.254  0.2223  0.0225  0.2884
 9279W        W10143  23.258   9.565   0.653 -0.0657  0.2158  0.2711
 9280W        W10144   5.587  23.387  27.376  0.0671  0.0035 -0.4247
 9281W        W10145   1.871  28.483  18.293  0.3395 -0.0064  0.2691
 9282W        W10146  10.125   8.293  21.384 -0.1756 -0.3354  0.1871
 9283W        W10147   1.018   1.981  24.159 -0.1656 -0.1438  0.0595
 9284W        W10148  13.803  17.162  13.222  0.1218 -0.1407 -0.0097
 9285W        W10149   1.058   0.876  12.277  0.3379  0.2299 -0.0238
 9286W        W10150   4.400  16.228   5.736  0.1841  0.0628  0.2617
 9287W        W10151  12.574   7.333  10.953 -0.1760 -0.2451  0.0654
 9288W        W10152  16.917  20.015  23.111  0.1765  0.1456 -0.1710
 9289W        W10153  27.781  15.838  26.605  0.1860  0.0936  0.1199
 9290W        W10154   0.652  12.131   3.560  0.0262 -0.2093 -0.6195
 9291W        W10155  20.166   9.734   8.412 -0.3320 -0.0274 -0.0147
 9292W        W10156   4.706  18.737  14.046 -0.1852  0.1723  0.1438
 9293W        W10157   0.475  23.892   1.203 -0.1102  0.1099 -0.0527
 9294W        W10158  10.307  21.907  21.880 -0.2374 -0.0115 -0.1217
 9295W        W10159  23.497   3.752  15.429  0.1286 -0.4031 -0.0981
 9296W        W10160   1.260   3.120  13.921  0.0145  0.0514  0.0242
 9297W        W10161  22.178  10.445  22.590 -0.1532  0.1614  0.0394
 9298W        W10162  24.275  17.655  14.658  0.3057  0.2288  0.2729
 9299W        W10163   5.551  25.882  13.545  0.0774 -0.4085 -0.0912
 9300W        W10164  13.016  13.287  18.302  0.4066 -0.0416  0.0260
 9301W        W10165  15.425   7.380  16.571 -0.0530 -0.1533 -0.0394
 9302W        W10166  10.144   2.201  27.697 -0.0369  0.2801 -0.1617
 9303W        W10167  28.094  22.535  26.090 -0.2122  0.1013 -0.1277
 9304W        W10168  27.233  18.324  24.106 -0.0733  0.2676  0.2134
 9305W        W10169   3.581   7.884  28.741  0.0497  0.1603 -0.0192
 9306W        W10170   9.765   2.508  16.191  0.1844 -0.2359  0.0536
 9307W        W10171  24.879   4.341   5.841  0.2665 -0.1292  0.1535
 9308W        W10172  27.546   0.640  27.302 -0.0197 -0.2177 -0.0176
 9309W        W10173   5.385  13.355  23.010 -0.1081 -0.1903 -0.0946
 9310W        W10174  12.396  18.888  28.159 -0.0733 -0.0883  0.0943
 9311W        W10175   2.566  19.761   9.522 -0.0597 -0.2050 -0.1588
 9312W        W10176  29.135   0.687   7.078 -0.4430  0.2557  0.1614
 9313W        W10177  19.021  20.389  21.157 -0.0924 -0.0402 -0.0313
 9314W        W10178  11.312   5.999   2.100 -0.3022  0.0695 -0.1979
 9315W        W10179   6.252  26.695   2.532 -0.0606  0.1820  0.0598
 9316W        W10180   8.558   7.220  28.412 -0.0226 -0.2796  0.1159
 9317W        W10181  28.561  12.658   2.916  0.1000 -0.1411 -0.0143
 9318W        W10182   7.122  25.184   3.638 -0.0566 -0.2512  0.2755
 9319W        W10183   1.358  14.342   3.732  0.1177  0.1528  0.1707
 9320W        W10184  15.211  18.748  26.067 -0.1637 -0.0905  0.0970
 9321W        W10185  25.464   1.370  11.183 -0.1797 -0.1713 -0.0029
 9322W        W10186  10.987  11.060  17.191 -0.0402  0.1456 -0.4475
 9323W        W10187   4.060  27.442   1.998  0.0064  0.0492  0.0684
 9324W        W10188   3.576  12.850   4.972 -0.0198  0.1777  0.0521
 9325W        W10189   5.627  23.210  12.124  0.1342 -0.0493  0.1818
 9326W        W10190   5.702   1.089   6.605 -0.1818  0.1007  0.0778
 9327W        W10191   1.951  15.329  28.060 -0.1255  0.0303  0.2841
 9328W        W10192  25.829   2.144  11.863  0.0386  0.2512 -0.0594
 9329W        W10193  16.133  23.057  19.927  0.1092  0.0110 -0.3760
 9330W        W10194  25.529  24.812  15.133 -0.1813 -0.0103 -0.0441
 9331W        W10195  27.646  27.583  29.128 -0.0482  0.0366 -0.1470
 9332W        W10196  16.796  28.066  18.290 -0.0242 -0.0022 -0.0803
 9333W        W10197  19.400  11.392  12.055  0.2504 -0.1780  0.1013
 9334W        W10198  10.892  22.201   6.012  0.0665 -0.2866  0.1015
 9335W        W10199  17.763  14.201   3.275  0.2155  0.0810 -0.2807
 9336W        W10200  15.462   8.562   0.928  0.4482  0.1551  0.1211
 9337W        W10201  23.716  20.794  26.687 -0.0859 -0.0877 -0.0142
 9338W        W10202   4.304  12.138   0.181  0.1836  0.0734 -0.0956
 9339W        W10203  20.744   2.754  27.575 -0.3672 -0.0739 -0.1682
 9340W        W10204  27.822  21.194  27.293  0.0635 -0.2630 -0.2185
 9341W        W10205  16.150  12.949   2.881  0.0065 -0.0774  0.3575
 9342W        W10206   4.995   1.440  17.525 -0.0541  0.1181  0.1279
 9343W        W10207  28.607   6.520  12.876  0.1901 -0.1126  0.0277
 9344W        W10208   3.129  18.911   2.911  0.0822 -0.0395  0.0345
 9345W        W10209  28.671   6.714   0.747 -0.1322  0.2377 -0.0628
 9346W        W10210  22.275   1.614   0.710 -0.0188 -0.0156  0.1782
 9347W        W10211   5.480   0.332  12.379 -0.1174 -0.1144 -0.0005
 9348W        W10212  24.107   9.492  20.005 -0.1012 -0.1301 -0.1259
 9349W        W10213  13.426  23.813  24.539  0.3021  0.1836  0.3273
 9350W        W10214  22.798  14.844  15.285  0.1484  0.1600 -0.1240
 9351W        W10215  22.488  22.314  21.518  0.0971 -0.1541 -0.1577
 9352W        W10216  10.312   9.960  26.040  0.0614  0.0126  0.1029
 9353W        W10217   5.727  25.285  23.203 -0.1092 -0.2405  0.0750
 9354W        W10218   8.658   6.880  28.881 -0.3673 -0.0398 -0.3690
 9355W        W10219  19.385   2.743  15.322  0.0591  0.0936  0.1109
 9356W        W10220  28.687  11.075  24.008 -0.0978 -0.0742 -0.0012
 9357W        W10221   6.620  27.012  18.042 -0.0043  0.0966  0.0526
 9358W        W10222  24.578  10.560  20.963 -0.0217  0.0703 -0.2701
 9359W        W10223  17.191  15.558  20.517 -0.1924 -0.3015  0.2140
 9360W        W10224   3.013   1.810  24.541  0.1662 -0.0464 -0.1269
 9361W        W10225  26.764  10.534  25.158  0.1442 -0.1303 -0.0591
 9362W        W10226  25.566  24.122  23.108  0.1335  0.0027 -0.0029
 9363W        W10227   7.526  21.317  22.655 -0.1372 -0.2187 -0.0400
 9364W        W10228  26.216  17.249  28.741 -0.2640 -0.0702 -0.2290
 9365W        W10229   8.543  18.379   3.671 -0.0567 -0.3271 -0.1270
 9366W        W10230   6.027  12.727  10.687  0.1740 -0.0672 -0.0665
 9367W        W10231   2.175   2.530   3.557 -0.3217  0.1758 -0.3782
 9368W        W10232  21.226  23.703   9.963 -0.1610 -0.0455  0.2337
 9369W        W10233  28.316  28.953   1.069  0.3915 -0.3348 -0.4235
 9370W        W10234   9.637   9.937  15.811 -0.0260  0.0758 -0.0122
 9371W        W10235  26.891  26.499   9.216 -0.0565  0.2334  0.0420
 9372W        W10236  12.920   9.408  27.006 -0.0862 -0.1726 -0.0616
 9373W        W10237   2.152  13.006   8.384 -0.1379  0.0256  0.0798
 9374W        W10238   0.859   2.016  17.704  0.0249 -0.2024  0.1015
 9375W        W10239  28.404  27.074   8.555 -0.0906 -0.0209  0.1607
 9376W        W10240   7.670  16.725   3.331  0.1487 -0.0812 -0.1324
 9377W        W10241  15.783  11.370  13.530 -0.2447 -0.1960  0.3263
 9378W        W10242  26.312  11.344  26.156 -0.0628  0.3152  0.2098
 9379W        W10243  17.509   1.105  27.209  0.1190  0.1021 -0.1472
 9380W        W10244  13.623   5.062  21.334  0.2347  0.0859  0.0387
 9381W        W10245  16.095   8.384  12.422 -0.0431  0.1427 -0.0430
 9382W        W10246  16.954   6.372  19.855  0.0169 -0.1657  0.0661
 9383W        W10247   9.129  15.952  22.337 -0.2228  0.0882  0.1068
 9384W        W10248   8.954  13.938  23.413 -0.1039  0.0631 -0.1675
 9385W        W10249  11.504   8.894  13.277  0.1042 -0.0503 -0.3765
 9386W        W10250  26.102  28.691  15.786 -0.0674 -0.1982 -0.2589
 9387W        W10251  11.539  13.719  27.095 -0.1467 -0.0346  0.0811
 9388W        W10252  23.651  13.188  23.236  0.3844  0.2334 -0.1262
 9389W        W10253  19.638   4.230  24.783  0.0077 -0.0684 -0.0676
 9390W        W10254   3.174   6.459  18.428 -0.4405 -0.0423 -0.1738
 9391W        W10255  18.869  17.320  22.791  0.0911 -0.2171  0.1219
 9392W        W10256   4.802  15.409  17.205 -0.1207  0.3703  0.0322
 9393W        W10257   2.754   5.965  12.168  0.0493  0.1807 -0.1591
 9394W        W10258   4.988   1.834   6.206 -0.0792  0.0165  0.1001
 9395W        W10259  28.984  20.702  20.278 -0.0852  0.0162  0.3309
 9396W        W10260   4.027  15.674  28.067  0.0806  0.2297 -0.0945
 9397W        W10261  11.143  14.642  19.355  0.4067  0.2800  0.1166
 9398W        W10262  18.404   4.501  27.701 -0.0394 -0.1575  0.2875
 9399W        W10263  18.968  16.976  25.692 -0.1373  0.2785  0.0124
 9400W        W10264   0.613  12.717  23.886  0.0789 -0.1531 -0.1342
 9401W        W10265  11.771   5.828  10.593  0.1022  0.0511  0.0353
 9402W        W10266  11.855  14.271   3.479  0.1139 -0.0900  0.3002
 9403W        W10267  16.370  22.440  13.868 -0.5387  0.1985 -0.1430
 9404W        W10268   5.692   7.084  15.036 -0.2233  0.0727  0.1257
 9405W        W10269  28.900   2.805  22.473 -0.0709  0.0438  0.0133
 9406W        W10270   1.674  18.761   8.132 -0.0513 -0.2124 -0.0341
 9407W        W10271   2.978   7.391   2.246 -0.2642 -0.2483  0.3961
 9408W        W10272  25.439  22.127  19.461 -0.0716 -0.1522 -0.0295
 9409W        W10273  28.484   4.873  11.042  0.0883 -0.3108  0.3827
 9410W        W10274   3.252  20.347  28.688 -0.2557 -0.1694 -0.4369
 9411W        W10275  17.219  10.191   0.899  0.2227 -0.1586  0.1354
 9412W        W10276   3.308   4.562  24.141 -0.0942 -0.3552 -0.2874
 9413W        W10277  28.359   1.450   7.054  0.0473 -0.0812 -0.3167
 9414W        W10278   9.996  18.044   5.027  0.4886  0.0940 -0.0189
 9415W        W10279   2.169  28.621  27.431  0.1075 -0.2093 -0.3148
 9416W        W10280  25.311   1.191  18.872 -0.1106 -0.2412 -0.4362
 9417W        W10281  27.648  17.692   3.915 -0.0588  0.3359  0.2261
 9418W        W10282  10.896  29.040  14.819  0.0494 -0.0070  0.1040
 9419W        W10283  19.286   3.806  21.451 -0.3297 -0.1671 -0.0392
 9420W        W10284   8.021  21.926  13.732  0.3817  0.2558 -0.0440
 9421W        W10285   8.152  25.732   1.309  0.0999 -0.1435  0.0683
 9422W        W10286  10.807  17.162  28.896 -0.0175  0.0033 -0.1394
 9423W        W10287  25.457   6.233  22.598  0.0392 -0.1097  0.0801
 9424W        W10288   7.215  15.634   6.659 -0.2855  0.0274  0.3218
 9425W        W10289   7.833  12.430   4.084 -0.2029  0.0468 -0.3344
 9426W        W10290   6.700   2.943   0.520  0.0762 -0.1133  0.2539
 9427W        W10291   8.144  19.333  18.681 -0.0788 -0.1028 -0.0978
 9428W        W10292  28.708  11.591   6.648 -0.0474 -0.2061 -0.1463
 9429W        W10293  16.079  19.906  17.759  0.2420 -0.1518 -0.0025
 9430W        W10294  11.524  13.573  24.877  0.0696  0.1808  0.0217
 9431W        W10295  10.824   4.931  13.824  0.2340 -0.0522 -0.0951
 9432W        W10296  28.970  22.013  12.362 -0.2172  0.1251 -0.2141
 9433W        W10297   6.773   8.610  20.538  0.1109 -0.0229  0.2713
 9434W        W10298   3.217  24.566   9.724 -0.2891 -0.1053 -0.0709
 9435W        W10299   7.582  21.746  25.219  0.0559 -0.5763 -0.1043
 9436W        W10300  24.900  12.023   6.579  0.2043  0.1379  0.3618
 9437W        W10301   7.538  22.677   0.942 -0.2559 -0.0678  0.1802
 9438W        W10302  10.421   3.948  17.013  0.1167 -0.0847  0.1542
 9439W        W10303   4.655  15.225  24.018 -0.0458 -0.1896 -0.1005
 9440W        W10304   3.884  10.711   0.850 -0.2339  0.6402 -0.0349
 9441W        W10305   8.302  16.654  16.526  0.1285 -0.0304 -0.3646
 9442W        W10306  14.783  22.286   7.228 -0.0629  0.0212 -0.3568
 9443W        W10307   9.209  15.729  15.824  0.4498 -0.0075  0.2609
 9444W        W10308   5.369   3.258  15.192  0.0923 -0.1722  0.1441
 9445W        W10309  21.644  14.721   3.035  0.1402 -0.2738 -0.2610
 9446W        W10310   1.214  15.573  16.788  0.0150  0.2518  0.1225
 9447W        W10311   2.290   3.293  21.152  0.1740  0.2064 -0.3714
 9448W        W10312   1.564  25.997   6.901 -0.2681 -0.0548 -0.0596
 9449W        W10313  22.199   6.854   8.846 -0.4483  0.1444 -0.1443
 9450W        W10314  26.517  23.627   4.846  0.0643 -0.0720 -0.3316
 9451W        W10315   2.664  17.338   0.803 -0.1705  0.0026  0.0364
 9452W        W10316   3.213   4.992   0.466 -0.0681  0.2103 -0.4012
 9453W        W10317  28.921  25.216  15.514  0.3520  0.0275 -0.0459
 9454W        W10318   6.574   6.088  20.011 -0.0923  0.0891  0.2363
 9455W        W10319  25.432   3.961  16.373 -0.0123  0.2742  0.1100
 9456W        W10320  24.364   6.917   7.249 -0.0020 -0.0482  0.4405
 9457W        W10321   6.612   2.043  13.242  0.0399 -0.1473 -0.0402
 9458W        W10322  25.300  24.846  18.811  0.2119  0.0605 -0.2087
 9459W        W10323  13.116  10.095  21.515 -0.1072 -0.1134 -0.4184
 9460W        W10324   6.577  24.594  14.428 -0.1575  0.0130  0.1261
 9461W        W10325  14.098  13.910  24.027 -0.1990 -0.0710  0.0386
 9462W        W10326  25.373  22.812  26.679  0.5431 -0.4105  0.2054
 9463W        W10327  13.363  10.523   3.030 -0.1061 -0.2263  0.0617
 9464W        W10328   0.460  23.200   5.224  0.0858  0.0254  0.3920
 9465W        W10329  27.816   6.644   3.591 -0.0831  0.1801 -0.1224
 9466W        W10330  26.258   7.661  17.652  0.0933  0.1422  0.0505
 9467W        W10331  25.079  15.840   3.611 -0.0317 -0.1706  0.0987
 9468W        W10332  13.415  17.267  26.406  0.0001  0.0371 -0.0665
 9469W        W10333  19.319   1.651   1.787  0.2368  0.1446 -0.0530
 9470W        W10334  11.917  20.045  10.809 -0.3288  0.1927  0.2833
 9471W        W10335  21.469  10.288   1.921 -0.0566 -0.3731  0.0593
 9472W        W10336  28.952  11.848  22.919 -0.0480 -0.1168  0.3372
 9473W        W10337  26.308   4.359  28.216  0.2725  0.0762  0.2221
 9474W        W10338   0.561  12.042  10.960  0.0292 -0.0659 -0.4044
 9475W        W10339   5.798  10.680  12.804 -0.1215  0.0941 -0.2908
 9476W        W10340  27.686  13.693  25.629 -0.0300  0.1038  0.2547
 9477W        W10341   1.492   3.139  12.498 -0.2022 -0.0409  0.0974
 9478W        W10342   5.332  22.963  17.453  0.0450  0.0568 -0.1891
 9479W        W10343  20.246  25.835   8.047 -0.1997  0.1379  0.1976
 9480W        W10344   0.056  21.692  13.966  0.0945 -0.2097  0.2574
 9481W        W10345  17.956  15.388   1.383  0.2141  0.2904  0.1220
 9482W        W10346  24.108  14.452  20.911  0.0106  0.1785  0.2504
 9483W        W10347   4.835   3.737  14.484 -0.1530 -0.0326 -0.0543
 9484W        W10348  25.605  27.009  17.155 -0.0506 -0.3494  0.2949
 9485W        W10349  25.622   3.718   9.787 -0.1891 -0.2705 -0.1643
 9486W        W10350  19.589  24.560   4.517  0.1393  0.2209  0.0880
 9487W        W10351  14.615  27.684  20.842  0.2018  0.0960 -0.0285
 9488W        W10352  25.948  10.408  24.629 -0.2994 -0.2202 -0.0323
 9489W        W10353  23.276   4.701  14.695  0.0788 -0.2729  0.0663
 9490W        W10354  18.327  27.944  14.239  0.0867  0.1052  0.2857
 9491W        W10355  27.963   2.910   6.166 -0.2876  0.0143  0.0672
 9492W        W10356   5.850   2.249  28.388 -0.0004  0.2448  0.0678
 9493W        W10357   5.444   4.697  21.680  0.2767  0.1237  0.1390
 9494W        W10358  14.556  13.360  16.984  0.0264 -0.0617  0.0338
 9495W        W10359   8.554  11.001   8.378  0.0432  0.2310 -0.0905
 9496W        W10360   6.774   8.158  17.323 -0.2861 -0.1371 -0.1290
 9497W        W10361   1.484  28.769  20.776  0.2011  0.0102  0.3350
 9498W        W10362   2.047  25.783   5.840  0.0385 -0.0030  0.1913
 9499W        W10363  21.096   1.531  18.115  0.1329  0.0421  0.4806
 9500W        W10364   7.893   0.735   4.541 -0.1586 -0.1871 -0.1599
 9501W        W10365  20.003   0.117  24.338  0.1922 -0.0556  0.0221
 9502W        W10366  12.877  21.451   6.471  0.0194  0.2425  0.0819
 9503W        W10367  21.187   7.577  11.694 -0.1637  0.2776 -0.0183
 9504W        W10368   2.536  14.546   0.879 -0.1843 -0.0805 -0.2964
 9505W        W10369   7.003  22.108  11.868  0.1085  0.0568 -0.2055
 9506W        W10370  20.485  27.487  27.868 -0.0260 -0.0829  0.0339
 9507W        W10371  27.423   2.683   3.376  0.0029  0.0204  0.1970
 9508W        W10372  24.397  16.786  26.788 -0.1884  0.0972 -0.2973
 9509W        W10373   1.941   5.033  14.611  0.1293 -0.1700  0.0862
 9510W        W10374  10.032   5.442  25.536  0.0485 -0.5697 -0.0346
 9511W        W10375   8.067  25.723  20.294  0.3097 -0.0369 -0.0266
 9512W        W10376  18.907   6.318   5.137 -0.2871 -0.0436  0.2890
 9513W        W10377  21.641   5.066   4.470  0.3713 -0.0640 -0.1570
 9514W        W10378  27.080  14.906  19.763  0.2177 -0.1179  0.4413
 9515W        W10379   6.688  27.018  11.566  0.0849 -0.0159  0.1338
 9516W        W10380  15.089  14.531   4.113  0.0519  0.1772 -0.0489
 9517W        W10381  29.004   9.507  17.000 -0.0407  0.1890 -0.0640
 9518W        W10382   1.640   3.248   2.435  0.2835  0.3737 -0.0441
 9519W        W10383  22.836   4.409   5.029  0.4134  0.1855  0.0425
 9520W        W10384  26.075  11.110  17.444 -0.0511  0.1878 -0.0854
 9521W        W10385  16.333  10.212  26.020 -0.0742  0.1047  0.0503
 9522W        W10386  24.617   1.235  17.352  0.0489 -0.1811  0.1062
 9523W        W10387   9.781   3.465   3.901 -0.1778  0.0566 -0.0463
 9524W        W10388   7.382  10.331  14.411 -0.7123 -0.0954 -0.2773
 9525W        W10389   2.282  14.281  16.549  0.0019  0.3653  0.1525
 9526W        W10390  10.048  12.795   7.803 -0.1650  0.0945 -0.0456
 9527W        W10391  10.525  17.463  13.132  0.2000 -0.3177  0.2691
 9528W        W10392   3.290   0.282  22.353  0.0260  0.0412 -0.3057
 9529W        W10393  20.926  10.239  13.529 -0.0343  0.0373  0.3189
 9530W        W10394  10.689   3.785   1.094  0.0521  0.1430 -0.2516
 9531W        W10395  27.074   7.993  28.059 -0.2052 -0.0129 -0.0218
 9532W        W10396  20.088   6.838  27.741 -0.0437 -0.2458 -0.0294
 9533W        W10397  29.111   6.677   3.803  0.1221  0.2528  0.3640
 9534W        W10398  26.756  12.585  22.635 -0.2703  0.2667 -0.1255
 9535W        W10399   6.178  16.497  18.248 -0.1865 -0.2187  0.2929
 9536W        W10400  18.136  28.794  23.499 -0.0657  0.0472 -0.3992
 9537W        W10401  15.524  22.027  15.056  0.3938 -0.0591 -0.1774
 9538W        W10402   6.342   6.335  15.306  0.1543  0.0106  0.0974
 9539W        W10403   0.216  11.795  27.100  0.1936  0.0634 -0.1832
 9540W        W10404  13.286  17.729   0.439 -0.1695  0.2993 -0.2214
 9541W        W10405  25.325   3.323  24.807  0.1707 -0.2899 -0.1360
 9542W        W10406   3.764   2.928  27.612  0.1399  0.1300 -0.4316
 9543W        W10407  11.097   0.617  21.673  0.1441  0.1696  0.0965
 9544W        W10408  18.652   9.783  12.006 -0.0557 -0.0565  0.1989
 9545W        W10409  28.617  15.446  15.808 -0.1965 -0.1900 -0.1044
 9546W        W10410   7.220  21.810   0.095 -0.1335 -0.1546 -0.0984
 9547W        W10411   2.362   9.885  26.532 -0.1847  0.0451 -0.2875
 9548W        W10412  25.727  11.982   0.745 -0.2425 -0.0251 -0.1467
 9549W        W10413  16.743  20.269  26.823  0.0050 -0.2224 -0.0501
 9550W        W10414  14.408   7.144  18.572  0.2139  0.0538 -0.0428
 9551W        W10415  14.508   2.430  23.917  0.2858 -0.0659  0.0116
 9552W        W10416  24.907  21.314  15.734 -0.2185  0.1352  0.0742
 9553W        W10417  11.660  19.330   2.677  0.0535  0.0575 -0.1201
 9554W        W10418   8.053  13.396   6.769 -0.1264  0.1491  0.0378
 9555W        W10419  17.329   6.549   1.761 -0.0364 -0.0322 -0.0183
 9556W        W10420   0.970  12.612  20.779  0.0321 -0.0331 -0.1503
 9557W        W10421  21.815   1.333  22.115  0.0886 -0.1568 -0.0176
 9558W        W10422   6.577  14.203  26.699 -0.1217 -0.0446  0.1140
 9559W        W10423  27.243  17.371   4.091  0.0060 -0.0537 -0.3153
 9560W        W10424  24.342  11.020  14.650  0.0335 -0.1678 -0.0629
 9561W        W10425  25.339  17.458  16.334  0.0023  0.1490  0.3021
 9562W        W10426  22.984  15.224   2.119 -0.0387 -0.0301  0.0494
 9563W        W10427   9.476  17.108   0.151  0.1388  0.1969 -0.2169
 9564W        W10428  15.141   9.114  22.226  0.2029  0.1370 -0.0910
 9565W        W10429   6.507   2.959   4.371  0.1048  0.0460 -0.1503
 9566W        W10430  14.629  18.289  25.506  0.1582  0.0334  0.2154
 9567W        W10431  23.639  12.606  21.818  0.0335  0.3384  0.3814
 9568W        W10432   8.254  19.120  17.703  0.1404 -0.2644  0.1301
 9569W        W10433  22.281  27.283  19.460  0.2292 -0.2487  0.0728
 9570W        W10434  11.577  17.532  19.087 -0.2201  0.0150 -0.3284
 9571W        W10435   5.751  11.700   9.699  0.0974 -0.3119 -0.2222
 9572W        W10436  22.054   5.106   0.588 -0.1547 -0.0895  0.4160
 9573W        W10437  20.085  27.166  14.750 -0.1245 -0.2097  0.2131
 9574W        W10438   4.273   6.349  15.960  0.1388  0.0145  0.0019
 9575W        W10439  17.503  14.847   4.554  0.0264 -0.2594 -0.2221
 9576W        W10440   7.061  18.497  12.916  0.1070  0.1204  0.1504
 9577W        W10441  28.427  26.659  10.182 -0.0014 -0.0144 -0.2231
 9578W        W10442  14.308  10.048   1.214  0.2494 -0.0980  0.0587
 9579W        W10443  27.690  28.981   6.454  0.0961 -0.3020  0.0522
 9580W        W10444   8.920  14.459  23.496  0.0568  0.2492  0.2260
 9581W        W10445  18.108   3.819   0.844 -0.0760  0.0814 -0.2320
 9582W        W10446  17.866  28.943  23.907  0.0766  0.1020  0.3704
 9583W        W10447  22.531   4.583   8.152 -0.1810 -0.4263 -0.3261
 9584W        W10448  28.056  10.178  26.693  0.0013 -0.1445 -0.1598
 9585W        W10449  11.920  16.123  10.503 -0.0302 -0.0088 -0.0621
 9586W        W10450  15.070   4.786  27.811 -0.2693 -0.2283  0.2977
 9587W        W10451  26.359   1.904  24.123  0.0738  0.2669 -0.5468
 9588W        W10452  11.507  13.084  22.873 -0.2980 -0.1016 -0.0492
 9589W        W10453  27.702  12.117  19.970  0.1512  0.2483  0.2862
 9590W        W10454  12.820   1.113  17.953 -0.0103 -0.1678  0.1008
 9591W        W10455  23.993  14.062  12.249 -0.0852  0.1650  0.1677
 9592W        W10456  13.039   8.351   0.933 -0.1739 -0.1348 -0.1058
 9593W        W10457   8.254  29.005  26.382  0.1963 -0.0369  0.0578
 9594W        W10458   1.691  14.812  10.461  0.0974 -0.0640  0.2987
 9595W        W10459  13.627  13.664  13.942  0.0502  0.2474  0.0998
 9596W        W10460   5.289   8.757  22.923  0.0102 -0.0971  0.2076
 9597W        W10461   2.268  18.993  26.423 -0.0448 -0.2291  0.0820
 9598W        W10462   6.639  15.752  18.079  0.0283  0.1030 -0.1884
 9599W        W10463  13.783  10.155   1.225  0.1525  0.1282  0.2012
 9600W        W10464   6.483   8.316   1.756  0.2638  0.1721  0.1216
 9601W        W10465  21.346  16.280  28.535 -0.1695  0.2216  0.0379
 9602W        W10466  18.311  21.606  24.056 -0.2721 -0.2215 -0.2538
 9603W        W10467  23.548  18.739  16.831  0.0419 -0.0972  0.2922
 9604W        W10468   7.979   3.873   1.869  0.0643  0.0403  0.1049
 9605W        W10469  19.210   7.912   0.558 -0.3366  0.3398 -0.0731
 9606W        W10470  17.472   4.926  21.341 -0.0779 -0.1756  0.3356
 9607W        W10471   3.329   1.423  12.559  0.1726  0.1946  0.1975
 9608W        W10472  23.999  24.498  13.504 -0.3549 -0.1076 -0.3654
 9609W        W10473   5.951  10.182   4.273  0.1754 -0.2527  0.0472
 9610W        W10474   7.516  22.067  17.568  0.2697  0.0157 -0.0370
 9611W        W10475  18.822  27.243  25.228 -0.1076  0.0353  0.0123
 9612W        W10476   8.961   2.593  24.815  0.2893 -0.2882 -0.0018
 9613W        W10477  21.025  25.512  26.877  0.0421  0.1168 -0.2708
 9614W        W10478  25.262  23.678   9.126 -0.4379  0.1584 -0.3660
 9615W        W10479  18.238   7.025  14.860 -0.2276  0.1813 -0.0642
 9616W        W10480  20.405   9.734  15.232 -0.1631 -0.2909 -0.2840
 9617W        W10481  10.588  10.281  11.610 -0.3759 -0.0233  0.0055
 9618W        W10482   0.345   8.074  28.789  0.0661  0.1234 -0.2116
 9619W        W10483  25.593   9.974  15.794 -0.3395  0.5060  0.0804
 9620W        W10484  12.277  17.050  28.986  0.2304 -0.2168 -0.2704
 9621W        W10485   8.882  19.394  26.342 -0.1108  0.1444  0.0634
 9622W        W10486   1.858  21.849  21.627  0.2573 -0.0237  0.1651
 9623W        W10487  11.544  10.982  28.063 -0.4009 -0.1902  0.2311
 9624W        W10488  16.170   4.128  27.291  0.0388  0.0129 -0.3340
 9625W        W10489  23.209   8.102   4.151 -0.0252 -0.1748 -0.1148
 9626W        W10490  28.154  14.222  27.032  0.0314 -0.4106  0.0721
 9627W        W10491  15.893  23.396  23.536 -0.2137 -0.1324 -0.0140
 9628W        W10492  28.221   6.257   2.347 -0.3421  0.1957  0.0603
 9629W        W10493   5.208   4.401  17.402  0.1307  0.0400  0.1645
 9630W        W10494  26.511  26.226   4.305 -0.2040 -0.0069  0.1280
 9631W        W10495  15.666   7.526  26.021  0.2521  0.0030  0.1814
 9632W        W10496  15.220   2.630  17.707 -0.3468  0.0290  0.1100
 9633W        W10497  21.100   5.188   8.476  0.0363  0.4238  0.2217
 9634W        W10498   6.195  21.901  21.610 -0.0849  0.0523  0.0494
 9635W        W10499  16.530  11.842   1.195 -0.0457  0.1794 -0.1344
 9636W        W10500  26.965   7.974   3.676 -0.2300 -0.0878 -0.2826
 9637W        W10501  14.215  25.777   0.092  0.1115 -0.5141 -0.0735
 9638W        W10502  19.543  14.560   4.606  0.1022  0.1183  0.2000
 9639W        W10503   1.377   4.853  14.012 -0.3971  0.1205  0.2551
 9640W        W10504   0.735  20.930   0.455 -0.3410 -0.3065  0.2021
 9641W        W10505  25.004  21.314  24.775 -0.0820 -0.1941 -0.0562
 9642W        W10506  28.088  18.308  11.022 -0.0336 -0.0605  0.1928
 9643W        W10507  14.705  17.538  26.126 -0.0700  0.0570 -0.1258
 9644W        W10508  14.537  18.296  21.782  0.1612  0.1247  0.2402
 9645W        W10509  12.856   9.600  23.657 -0.0338 -0.0588 -0.0236
 9646W        W10510   8.965   3.606   7.619 -0.2244  0.0797  0.3006
 9647W        W10511   9.813  15.652   3.797  0.0356 -0.1228  0.0984
 9648W        W10512  15.257  28.844  24.728 -0.2883  0.2671 -0.1384
 9649W        W10513   7.158  25.413   2.446 -0.0401  0.1644 -0.0236
 9650W        W10514  27.951   4.967   8.623  0.1032  0.0901  0.1881
 9651W        W10515   9.259  27.498  16.776  0.1570  0.1532  0.3093
 9652W        W10516  24.280   0.766  26.349 -0.0596  0.2441  0.0209
 9653W        W10517   8.934  16.955   0.035 -0.0703  0.0645 -0.1347
 9654W        W10518   3.493   0.533  16.189 -0.1163  0.0034 -0.0766
 9655W        W10519   1.810   2.235  25.279 -0.1818 -0.1418 -0.1321
 9656W        W10520  16.952   3.331  14.752  0.1594  0.1672 -0.2761
 9657W        W10521  26.020   7.403  26.977 -0.0012  0.0920 -0.4512
 9658W        W10522   6.259  29.014  23.236  0.0756 -0.1638 -0.0748
 9659W        W10523   0.049  22.196  20.685  0.0359 -0.2384  0.0117
 9660W        W10524  15.495  25.295  26.152  0.3224  0.4021  0.1193
 9661W        W10525  24.289  10.672  17.330 -0.0805  0.0102  0.0407
 9662W        W10526  22.579   8.227  15.599 -0.0835 -0.1418  0.2228
 9663W        W10527   3.464   8.679   7.448  0.0753 -0.0394 -0.1020
 9664W        W10528   0.615   3.733  23.162 -0.1135  0.2109  0.0159
 9665W        W10529   4.180  16.023  17.673  0.0524 -0.0450 -0.0375
 9666W        W10530  12.361   4.094  24.276 -0.1020 -0.1162  0.0653
 9667W        W10531  27.282   9.940  22.916  0.1906  0.0131 -0.1235
 9668W        W10532   5.362   2.253  15.765  0.2386 -0.0994  0.3834
 9669W        W10533   7.314  18.203  23.462  0.1600  0.2135 -0.1550
 9670W        W10534  12.148  28.680  19.468  0.0090  0.0995  0.1083
 9671W        W10535   3.057  11.397   0.093 -0.0368 -0.2178  0.0919
 9672W        W10536  23.285  28.652   9.304 -0.2571 -0.0523 -0.0808
 9673W        W10537  22.391   8.143  11.670 -0.0648  0.0017 -0.0425
 9674W        W10538   4.425   5.286   1.433  0.0146  0.1820 -0.0339
 9675W        W10539   7.046  11.656  27.236  0.0649  0.2118 -0.1357
 9676W        W10540  27.464  11.267  15.254  0.1824 -0.1336 -0.0093
 9677W        W10541  26.133  28.821  18.979 -0.0780  0.1012 -0.1245
 9678W        W10542   5.530  12.857  13.258 -0.2453  0.1457  0.1536
 9679W        W10543  24.782   1.187  10.527 -0.1996  0.2099 -0.0638
 9680W        W10544  20.936   9.046  16.044 -0.2903  0.0686  0.1597
 9681W        W10545   7.907  10.363  18.180 -0.1730 -0.2622 -0.0724
 9682W        W10546  11.694   3.598  18.089  0.1776 -0.0939  0.0349
 9683W        W10547  19.662  25.104   4.350  0.0824 -0.0141 -0.0491
 9684W        W10548  12.904  10.670   0.926 -0.0726  0.3998  0.0998
 9685W        W10549   1.110   5.789   0.313  0.0915  0.0689 -0.0768
 9686W        W10550  21.193  16.999  12.993  0.0459 -0.2954  0.0967
 9687W        W10551   2.993  26.341   7.995 -0.1433 -0.0786  0.1149
 9688W        W10552   3.536  10.941  22.628  0.1490 -0.0205  0.2788
 9689W        W10553  25.256  28.411  25.976 -0.2094 -0.1511  0.1228
 9690W        W10554  28.166  19.612  25.217 -0.2281  0.0002  0.1561
 9691W        W10555  13.010  16.301  23.262  0.1755  0.0092 -0.0287
 9692W        W10556  14.376   4.236  28.658  0.1053 -0.0316  0.0559
 9693W        W10557   9.575  23.949   3.792 -0.0553 -0.0389 -0.1208
 9694W        W10558   2.614  21.779  26.911 -0.1887  0.2962  0.0944
 9695W        W10559  15.354  12.072   0.352  0.1551 -0.1075  0.2241
 9696W        W10560  13.735   5.897  18.207  0.2212  0.2467 -0.1280
 9697W        W10561  19.241  17.466  28.004 -0.1761  0.2476 -0.1689
 9698W        W10562   4.800   9.867  26.010  0.0813 -0.4318 -0.0486
 9699W        W10563  11.450  13.449  25.388  0.0781  0.0679  0.0404
 9700W        W10564   5.972  13.854  28.537  0.1682  0.3057 -0.0752
 9701W        W10565  25.094   9.228  26.071 -0.0929  0.0341 -0.2591
 9702W        W10566  10.802  14.971  29.135  0.1179 -0.0117 -0.4648
 9703W        W10567  25.675   4.043  28.443 -0.1063 -0.1001 -0.0388
 9704W        W10568  11.585  19.478   3.932 -0.1998 -0.0262 -0.1323
 9705W        W10569  10.066  20.773  20.298  0.2292  0.0532  0.3609
 9706W        W10570  21.209   9.068   2.201  0.5499 -0.2570 -0.3880
 9707W        W10571   1.634  25.108  25.272  0.0722 -0.1140  0.0334
 9708W        W10572   8.291  10.693  27.047  0.1858  0.0929 -0.0713
 9709W        W10573   3.941   5.847   4.603 -0.3963  0.0834 -0.1420
 9710W        W10574  21.114   0.541  14.036  0.0549 -0.0514 -0.1468
 9711W        W10575   8.360   5.565   2.210 -0.0620  0.0934 -0.0190
 9712W        W10576  24.237   0.745  10.525  0.1502  0.0713  0.1169
 9713W        W10577  25.058  16.245  28.622  0.0815  0.2448 -0.1362
 9714W        W10578   2.461  26.105   5.941 -0.2835 -0.1076 -0.3289
 9715W        W10579   9.411   1.540  19.209  0.1503 -0.1302 -0.0866
 9716W        W10580  13.036   3.700   8.417  0.4484 -0.0706 -0.1497
 9717W        W10581  18.348  13.308  10.041  0.2818  0.1489 -0.4071
 9718W        W10582  11.494  16.372  17.376  0.1084 -0.0317 -0.0665
 9719W        W10583   4.582  13.345  24.483  0.2482  0.1080 -0.0699
 9720W        W10584  10.166  28.355  15.557  0.0047 -0.0518 -0.0757
 9721W        W10585   6.538   5.862  22.397  0.1156 -0.0071 -0.0892
 9722W        W10586  17.700  20.563  27.252 -0.0214 -0.3393 -0.0128
 9723W        W10587   9.295  17.707  25.828 -0.0271  0.0333 -0.2373
 9724W        W10588  19.399  12.525  22.202  0.1216 -0.2908  0.3440
 9725W        W10589   7.277  14.330  24.119  0.1565 -0.2190 -0.2283
 9726W        W10590   4.797   2.461  22.942 -0.2516 -0.1821 -0.1198
 9727W        W10591  22.676   4.576   3.939  0.0763 -0.1029 -0.2441
 9728W        W10592  27.367  19.954  14.324  0.1259 -0.1112  0.0428
 9729W        W10593   3.419  21.988   5.612  0.1555  0.0242  0.0867
 9730W        W10594  23.989  11.481   1.114 -0.2146 -0.0305  0.3032
 9731W        W10595  23.882  24.258  17.111  0.0512 -0.0215 -0.0049
 9732W        W10596   1.955  13.620  15.229  0.0193  0.1123  0.0363
 9733W        W10597   4.929   1.376  21.981 -0.0831 -0.1215 -0.0793
 9734W        W10598  17.912   9.237  28.234 -0.0494  0.0654 -0.4351
 9735W        W10599   6.009  11.465  11.053  0.2606 -0.0776 -0.0077
 9736W        W10600  27.470   5.061  16.980 -0.3207  0.1483  0.0718
 9737W        W10601   6.473  24.062  26.541  0.0051  0.0978  0.0968
 9738W        W10602  15.847  20.651   0.189  0.0255 -0.1049  0.1468
 9739W        W10603  22.674  18.754   4.026  0.2273  0.0929 -0.2224
 9740W        W10604   2.885  12.302   0.498  0.4732 -0.5900 -0.0939
 9741W        W10605  16.896  14.952  27.292  0.4341 -0.2034 -0.1150
 9742W        W10606  22.267   6.811   9.836  0.1547 -0.2718  0.1604
 9743W        W10607  21.030   6.661   0.995 -0.2647  0.0125 -0.0803
 9744W        W10608  25.067  12.164  13.212  0.0279 -0.0191 -0.1629
 9745W        W10609   8.518   2.039  25.377  0.0205  0.0857 -0.0789
 9746W        W10610   7.266   4.337  10.625 -0.1293  0.3432  0.0646
 9747W        W10611  13.062  18.545   1.766  0.1426  0.0752 -0.2400
 9748W        W10612  18.150  10.006  21.305 -0.0822  0.2271  0.3172
 9749W        W10613  18.163  14.304  23.372 -0.1616 -0.0305 -0.4040
 9750W        W10614  26.745  23.511   0.435 -0.0782 -0.1272  0.3406
 9751W        W10615   4.387  21.559  12.183  0.2758  0.1491  0.1146
 9752W        W10616  26.997  20.010   4.523  0.1535 -0.2455 -0.0911
 9753W        W10617  14.560   9.870  26.342 -0.0313 -0.0366  0.2084
 9754W        W10618  28.752  14.224  24.818  0.4592 -0.0538  0.0995
 9755W        W10619  22.430  21.447  25.436  0.1039  0.0856  0.1841
 9756W        W10620   1.696   3.382  26.933 -0.0270  0.5849 -0.0919
 9757W        W10621  11.459   4.280   2.658  0.3685  0.0446  0.0435
 9758W        W10622  19.007  21.277   7.573  0.0643  0.0582 -0.1822
 9759W        W10623  12.523   0.805  18.171  0.1309  0.1638  0.1014
 9760W        W10624   5.392  28.119  18.469 -0.3213 -0.1882  0.3559
 9761W        W10625   8.676  21.876  12.258  0.0176  0.2029 -0.1673
 9762W        W10626  19.339   3.014  24.525  0.1338 -0.2186  0.1171
 9763W        W10627  24.656   4.259   1.017 -0.0440  0.0392 -0.1542
 9764W        W10628   6.544  21.600   2.567  0.2529 -0.0170 -0.3840
 9765W        W10629   1.110  17.361  18.154  0.0094  0.0275  0.1018
 9766W        W10630   5.301  27.108  10.671  0.1306  0.0696 -0.1353
 9767W        W10631  20.979  20.035  21.883 -0.4540 -0.0624 -0.1005
 9768W        W10632  25.671  24.709   7.797  0.1510  0.0383  0.1933
 9769W        W10633  19.101  20.438  24.047  0.0357 -0.1147 -0.2608
 9770W        W10634   5.033  19.097   5.826 -0.2888 -0.1472  0.1625
 9771W        W10635   3.558   9.156   1.912  0.4886  0.1423  0.2932
 9772W        W10636  26.849   3.069   2.340 -0.2112 -0.5511  0.2469
 9773W        W10637  14.896  24.888  22.389  0.0857 -0.3189 -0.0306
 9774W        W10638   4.747   4.914  12.223  0.1231  0.1925  0.3952
 9775W        W10639  24.080   6.024   7.821  0.1147  0.0191 -0.0012
 9776W        W10640   4.750  13.522  26.972 -0.0404  0.2483 -0.0841
 9777W        W10641   5.254  21.092   6.443  0.0757  0.1754 -0.1023
 9778W        W10642   4.197  20.982  23.832 -0.2958  0.1701 -0.1330
 9779W        W10643   5.268  12.709   6.156  0.0019  0.0518  0.0305
 9780W        W10644   7.161   8.316  28.505  0.1943  0.1338  0.1287
 9781W        W10645   6.021  15.777   0.195 -0.2015 -0.0909 -0.3275
 9782W        W10646  15.140  20.253   6.164  0.2449 -0.0366 -0.0455
 9783W        W10647  15.976   1.734  11.938  0.0571  0.2984 -0.1015
 9784W        W10648   7.879  13.775  21.260 -0.0350  0.1753  0.1538
 9785W        W10649  13.464  22.141  10.800 -0.1738  0.0038  0.1790
 9786W        W10650  22.002   5.850   0.100  0.0209 -0.0271  0.2284
 9787W        W10651  10.672   9.426   9.428  0.2594 -0.2403  0.0644
 9788W        W10652  29.056  16.257  12.716  0.0567 -0.0323 -0.1086
 9789W        W10653  26.430  15.244  27.955  0.0161 -0.0612  0.0630
 9790W        W10654  26.081   2.807  11.041 -0.0011 -0.0190  0.4867
 9791W        W10655   4.919   1.037   5.732  0.0897 -0.1455 -0.0095
 9792W        W10656  20.490  14.529  22.549  0.1973  0.0480 -0.0402
 9793W        W10657   6.172  23.307  20.544 -0.1257  0.3255 -0.0234
 9794W        W10658   9.525   4.626  20.387  0.1073  0.1686  0.3962
 9795W        W10659   6.737   9.795  12.486 -0.3099 -0.1626 -0.0367
 9796W        W10660  27.883  24.959  18.651 -0.1965 -0.1147 -0.1940
 9797W        W10661  26.383  12.540  21.231 -0.0276 -0.1269 -0.3669
 9798W        W10662   8.127   9.351  27.971  0.0613  0.0451  0.2098
 9799W        W10663  11.411   8.111  23.743 -0.1485 -0.0002  0.0057
 9800W        W10664  11.311   7.616   9.529  0.2126 -0.4300 -0.2471
 9801W        W10665   1.739  14.921  19.247 -0.7279 -0.1407  0.1200
 9802W        W10666  18.372   7.811   8.982  0.1581  0.0734 -0.0175
 9803W        W10667   6.864  21.808  27.314  0.0746  0.0875  0.2534
 9804W        W10668   5.391  13.893  15.785 -0.2141 -0.3318  0.0723
 9805W        W10669   2.368   1.803   0.419 -0.2751  0.0279  0.0446
 9806W        W10670  22.475   6.531  24.056 -0.0395 -0.0817  0.1311
 9807W        W10671   2.814  17.219  14.924  0.1690 -0.0592 -0.1979
 9808W        W10672  25.592  15.115   5.444 -0.1777  0.0343 -0.0748
 9809W        W10673   1.575  18.559  25.200  0.1115 -0.3748  0.0063
 9810W        W10674  18.842   2.148   4.771 -0.4030 -0.1161 -0.1827
 9811W        W10675  26.244  25.026   6.538  0.1849  0.2578 -0.4035
 9812W        W10676  10.931  16.227  20.169  0.2477  0.1653 -0.0988
 9813W        W10677   0.544  10.588  24.895 -0.0163 -0.0697 -0.1061
 9814W        W10678   5.263   8.105  26.683 -0.1711  0.1470 -0.0761
 9815W        W10679  19.908   4.697   4.505  0.0564 -0.1007 -0.3521
 9816W        W10680   2.983  25.419  18.521  0.2594  0.0164  0.1832
 9817W        W10681  20.642  12.025   9.191  0.0473 -0.3312  0.0329
 9818W        W10682  28.887  22.193  18.953  0.1082  0.0610 -0.0749
 9819W        W10683   0.278   3.238   2.022  0.2034  0.2847 -0.0114
 9820W        W10684   8.171  10.435   8.939 -0.2252  0.5600  0.1814
 9821W        W10685  10.960  19.456  21.933  0.1076  0.3008  0.0283
 9822W        W10686   1.112   5.366  29.070 -0.2297 -0.1215 -0.0735
 9823W        W10687   3.342  20.564   2.140 -0.0556  0.3135  0.0779
 9824W        W10688  21.479   7.522  13.441 -0.1507 -0.4222 -0.3382
 9825W        W10689  22.810  19.873   9.176  0.1981  0.1860  0.3358
 9826W        W10690  14.895  20.844   0.595 -0.3706  0.0313  0.0777
 9827W        W10691  28.194   0.556  19.229 -0.1026 -0.2252  0.0957
 9828W        W10692  10.097  24.938   4.699  0.1004  0.0029 -0.0320
 9829W        W10693  28.110   4.647   1.858 -0.1602 -0.2983 -0.0188
 9830W        W10694  28.502  16.383   9.225 -0.1683 -0.1613  0.1190
 9831W        W10695   5.950  14.623  27.032 -0.1890  0.3201  0.1698
 9832W        W10696  19.906  12.551  27.881 -0.0354  0.1197  0.2515
 9833W        W10697  25.055   3.862  10.601  0.2571  0.0826 -0.1510
 9834W        W10698  10.305  20.916  16.545  0.0912  0.2692 -0.2134
 9835W        W10699  28.056  10.608  16.812 -0.1556  0.1703 -0.0166
 9836W        W10700   0.090  21.887  24.127  0.0979  0.1855  0.0694
 9837W        W10701  14.779  20.717  15.705  0.0486  0.0599  0.3009
 9838W        W10702   2.537   0.998   9.971  0.2332 -0.3124 -0.1667
 9839W        W10703  23.542  25.131   7.496  0.2110 -0.1298  0.0443
 9840W        W10704   1.687   2.228  28.966 -0.0336 -0.1342 -0.2602
 9841W        W10705  11.721  13.804   2.333 -0.1169  0.1190 -0.1694
 9842W        W10706  26.026  13.120  11.708 -0.0469 -0.5936  0.0989
 9843W        W10707   7.462  13.508  27.030  0.1970  0.0330 -0.1982
 9844W        W10708   7.636  18.796   0.437  0.2504 -0.2854  0.1545
 9845W        W10709  16.598  16.293   7.431 -0.5396  0.0051 -0.1485
 9846W        W10710  24.160  25.176  28.579  0.0175  0.0448 -0.0605
 9847W        W10711   5.609  17.151   1.867  0.0827  0.2239 -0.0893
 9848W        W10712   3.860  15.372  14.851  0.2063  0.0260  0.0285
 9849W        W10713  19.847  26.644  27.887  0.1181 -0.1201  0.0297
 9850W        W10714   4.439  18.934  28.213  0.3019 -0.1852  0.1149
 9851W        W10715  24.708  13.573   5.239 -0.4474 -0.0128  0.0258
 9852W        W10716   5.008  15.623  22.882  0.0596  0.0170 -0.4844
 9853W        W10717   6.356  17.182  15.039  0.5120  0.0811  0.3035
 9854W        W10718   7.389   2.969  28.498  0.3055 -0.0433 -0.0494
 9855W        W10719   7.402  14.793   6.394 -0.2911  0.1212  0.0146
 9856W        W10720   8.366   0.714   7.404  0.0712 -0.2580 -0.2749
 9857W        W10721  21.602  27.998   9.495 -0.2437  0.1721  0.0919
 9858W        W10722   4.521  13.845   4.528  0.2018  0.0490  0.1251
 9859W        W10723  15.763   7.742  16.951  0.2950 -0.3284  0.0340
 9860W        W10724   4.426  12.116   1.129  0.0260 -0.1261  0.0942
 9861W        W10725   3.463  15.077  10.515 -0.0519 -0.0473 -0.2227
 9862W        W10726  15.789  12.608   3.008 -0.1515  0.2560 -0.0331
 9863W        W10727  22.700  17.522  28.033  0.0591  0.1684  0.2350
 9864W        W10728  20.350   7.842  17.626 -0.0559  0.2306  0.1568
 9865W        W10729  15.494   2.409  22.808 -0.1293  0.1034  0.1305
 9866W        W10730   8.443  15.727   9.236  0.2588 -0.0886 -0.1447
 9867W        W10731  14.375   8.638  10.766  0.0541 -0.2969  0.1249
 9868W        W10732  10.438  17.485   7.791  0.3689  0.1491 -0.1330
 9869W        W10733  25.089  11.290   5.049 -0.0558  0.2173 -0.1047
 9870W        W10734  29.033  11.175   6.066  0.2032  0.0902 -0.0769
 9871W        W10735  23.485   8.021  18.116  0.5745  0.1938  0.0535
 9872W        W10736  22.542  12.901  23.322  0.0766 -0.1593  0.0485
 9873W        W10737   0.366  27.168  11.292 -0.1194 -0.3571 -0.2107
 9874W        W10738   8.453  26.082  23.204  0.0125  0.1913  0.2024
 9875W        W10739   4.047  12.481  13.779  0.0046  0.1165 -0.1565
 9876W        W10740   0.226   9.627  22.390 -0.1167  0.1207 -0.0851
 9877W        W10741   6.318  21.636  16.658  0.0609  0.0977  0.1075
 9878W        W10742   5.298  20.365   0.163  0.0892 -0.1295 -0.0722
 9879W        W10743  26.209  10.057  25.997  0.0463  0.1058  0.0603
 9880W        W10744   3.616  25.297  25.535  0.0820  0.0152  0.0488
 9881W        W10745   9.618  22.051  25.043  0.1915  0.0695 -0.2452
 9882W        W10746   6.694   0.236  11.490  0.1466  0.0056 -0.0617
 9883W        W10747  25.829  17.276   8.422  0.0334  0.1372  0.1450
 9884W        W10748  26.139   4.384   2.545 -0.3687  0.2137 -0.0615
 9885W        W10749  16.100  24.423   3.691  0.4637 -0.2570  0.3201
 9886W        W10750  14.368  28.807  11.013  0.1280  0.0547 -0.2019
 9887W        W10751  24.568  20.658  11.724 -0.0264  0.0787 -0.0003
 9888W        W10752  24.192  13.226   7.779 -0.0287  0.2114 -0.2854
 9889W        W10753  11.207  25.688   0.037  0.0145 -0.3579  0.0326
 9890W        W10754  24.820  25.547  13.529  0.1554 -0.2581 -0.8173
 9891W        W10755   4.146   6.665  16.913  0.3550 -0.1891 -0.1246
 9892W        W10756  22.468   5.497  25.268  0.2688 -0.0582 -0.1047
 9893W        W10757  22.838   9.323  10.768  0.0584 -0.2437  0.0633
 9894W        W10758  22.941  21.661   9.217  0.3972  0.0367  0.1404
 9895W        W10759   2.372  28.502   2.559  0.0404 -0.1011  0.0277
 9896W        W10760  13.656  25.781   4.342  0.1554 -0.1468 -0.1019
 9897W        W10761  27.432  19.616  12.109  0.0185 -0.3598 -0.0939
 9898W        W10762   7.791  26.911   1.866  0.2306  0.0897  0.0033
 9899W        W10763  17.382  24.683  14.868  0.0155 -0.0154 -0.1664
 9900W        W10764  13.754   7.013   6.367 -0.2368  0.0141  0.0494
 9901W        W10765   7.359   3.099   3.800 -0.0929  0.1551  0.1316
 9902W        W10766  16.018  18.772  12.558  0.2089 -0.1444  0.1693
 9903W        W10767  26.276   2.587   1.690 -0.1326 -0.1629 -0.0855
 9904W        W10768  18.126  19.665   1.490 -0.1106 -0.2614  0.0459
 9905W        W10769  10.149   2.758   1.669 -0.0218  0.2089  0.2402
 9906W        W10770   2.934  20.961  23.398 -0.1459 -0.1405  0.0995
 9907W        W10771  23.302   9.796  24.820  0.0771 -0.1745  0.0994
 9908W        W10772  28.604   5.683  16.909  0.2683  0.0589  0.0875
 9909W        W10773   0.393   4.136   8.930  0.1659 -0.1284  0.2528
 9910W        W10774  20.305  29.094  13.261 -0.1972 -0.0321  0.0764
 9911W        W10775  28.997  25.700   8.054 -0.1498 -0.1137  0.0786
 9912W        W10776   1.045  24.847  27.681 -0.1228 -0.0437  0.0159
 9913W        W10777   6.144   7.174   6.393  0.0088 -0.1770  0.2840
 9914W        W10778  12.466  21.314  14.219  0.3276 -0.0152  0.1395
 9915W        W10779   8.863  11.506  14.957  0.1913  0.0754  0.3119
 9916W        W10780  27.105   8.023  27.565 -0.2048 -0.2925 -0.2877
 9917W        W10781  28.369  22.327   5.276  0.0902  0.2305 -0.2653
 9918W        W10782   1.563  13.206   6.408  0.0026  0.2206 -0.0556
 9919W        W10783   7.148   2.147  13.526  0.2516  0.0199  0.3138
 9920W        W10784   4.830  18.194   6.241 -0.0257 -0.2303  0.0185
 9921W        W10785  13.343  27.046  15.252 -0.1854 -0.1489  0.0286
 9922W        W10786  15.367  11.640   0.020  0.0440  0.0869  0.1962
 9923W        W10787  18.022  10.304  15.453 -0.0202 -0.0377 -0.0958
 9924W        W10788  21.688  20.329  24.280 -0.2607  0.3317 -0.2917
 9925W        W10789  21.763  11.311  10.401  0.1078  0.1411  0.0921
 9926W        W10790   5.753  20.952   7.861  0.0188  0.2440 -0.0919
 9927W        W10791  23.039  28.225   4.773 -0.3206  0.2198 -0.1852
 9928W        W10792   7.969   5.665  27.558  0.2890 -0.2516  0.0332
 9929W        W10793  24.916   8.776  11.895  0.3184 -0.2498  0.0473
 9930W        W10794  18.424  10.533   9.375 -0.0187  0.0106  0.2763
 9931W        W10795   7.422   9.853   5.766  0.2386  0.3240  0.2522
 9932W        W10796  21.335   6.591  23.868 -0.0819  0.4435  0.0391
 9933W        W10797  27.992   5.280  18.730 -0.0278  0.1221 -0.2919
 9934W        W10798  24.550   2.149  28.149 -0.0679 -0.2478 -0.2203
 9935W        W10799  15.261  19.457  17.710  0.0640 -0.0382  0.0395
 9936W        W10800   8.701  21.494   9.184 -0.0595  0.2125 -0.0371
 9937W        W10801   3.836  13.724  12.935 -0.4041  0.1494 -0.1428
 9938W        W10802  10.516  22.504   7.977  0.0560  0.3086 -0.2306
 9939W        W10803  16.614  24.005  28.970 -0.0090  0.3362  0.1499
 9940W        W10804   8.337  11.931  14.328  0.1382  0.2843  0.1985
 9941W        W10805   7.116  17.682   4.698 -0.0762  0.3281  0.0954
 9942W        W10806   8.320   4.706  12.857  0.3569 -0.0711  0.1963
 9943W        W10807  17.730  10.043   4.413  0.3101 -0.0826  0.1324
 9944W        W10808  27.135  26.787  22.165  0.1193 -0.3438  0.3500
 9945W        W10809  28.222  24.160  23.040 -0.0631 -0.1333  0.0378
 9946W        W10810   5.491  28.016  23.559 -0.2421  0.1488 -0.1156
 9947W        W10811  14.506  17.754  22.106  0.1601 -0.0744  0.1491
 9948W        W10812  26.696   8.999   6.179 -0.2875 -0.0476  0.0132
 9949W        W10813   8.734  24.473   2.517 -0.0284 -0.1854  0.1703
 9950W        W10814  28.706  23.850   5.045 -0.1033 -0.2671  0.0428
 9951W        W10815   8.595   7.304  19.556  0.0144  0.3491 -0.0362
 9952W        W10816  18.717  17.574  27.653 -0.0891 -0.2041  0.1396
 9953W        W10817  10.851  15.852   7.881 -0.3025  0.1459 -0.0980
 9954W        W10818   3.112   9.106   5.528 -0.2962 -0.2555  0.0907
 9955W        W10819   4.402  16.514  26.855 -0.0004 -0.0585  0.0214
 9956W        W10820   6.152  21.478   4.811 -0.1413  0.0052  0.0478
 9957W        W10821  28.263  10.624  14.221 -0.2308 -0.2077 -0.1250
 9958W        W10822   6.608   5.521  23.802  0.3404  0.0267  0.2722
 9959W        W10823   3.005  24.934  11.266 -0.1516 -0.0258  0.2051
 9960W        W10824  28.689   2.303  17.493 -0.1906  0.2188  0.1931
 9961W        W10825  26.650  17.080   5.495 -0.3105  0.1220 -0.2631
 9962W        W10826   2.741   0.782  15.639  0.0174  0.0062  0.1299
 9963W        W10827  16.599  24.855  18.874  0.0759  0.4704  0.2385
 9964W        W10828   0.405  21.494   5.619 -0.3751 -0.0954  0.4549
 9965W        W10829  19.141  25.544  21.652 -0.1667 -0.1040  0.1151
 9966W        W10830  21.577  12.199   3.540 -0.0753 -0.2734 -0.1536
 9967W        W10831   1.054  28.057   2.065  0.1490  0.0421  0.0598
 9968W        W10832  28.373  11.825  12.449 -0.1996  0.4279  0.2611
 9969W        W10833   8.386   6.027  22.624  0.0056 -0.1784 -0.1355
 9970W        W10834  12.647   1.635  15.223  0.0318  0.2783  0.1208
 9971W        W10835  10.437  16.721   0.238  0.0583 -0.2925 -0.1630
 9972W        W10836  19.179  12.847   3.449 -0.1056 -0.0191 -0.4285
 9973W        W10837  23.780  21.239   0.773 -0.5419 -0.0344  0.0440
 9974W        W10838   0.767  10.442  11.753 -0.0470  0.1235 -0.2534
 9975W        W10839  29.010  12.660  27.485  0.1853  0.0140  0.0456
 9976W        W10840  14.477   2.113   4.301 -0.1628  0.3884 -0.0192
 9977W        W10841  17.611  12.491  27.123 -0.0726  0.3230 -0.1702
 9978W        W10842   8.954   3.065  22.400  0.0631  0.2378 -0.1160
 9979W        W10843  21.059   7.618  12.150 -0.1376 -0.3809  0.2272
 9980W        W10844  11.646  11.388   2.911  0.0195  0.0478  0.0004
 9981W        W10845  10.613  19.660   4.287 -0.0763 -0.0505  0.3269
 9982W        W10846   1.167  28.902  23.101  0.1370  0.0242 -0.0469
 9983W        W10847  19.154  27.654   9.841  0.3472  0.1696  0.0494
 9984W        W10848   0.270  19.632   6.294 -0.3262  0.0760 -0.1699
 9985W        W10849  29.140   3.901  12.305  0.0389  0.1494 -0.1468
 9986W        W10850   3.037  24.157  17.302  0.2656  0.0428  0.2974
 9987W        W10851  27.678  20.894   1.262  0.1611 -0.1237 -0.2322
 9988W        W10852   1.103   5.022   7.214  0.0181 -0.2112 -0.1986
 9989W        W10853  20.877  17.795  13.199 -0.0322  0.0987 -0.0692
 9990W        W10854  12.520  11.893  23.027  0.1588 -0.1444 -0.1234
 9991W        W10855  15.447   5.237   7.824 -0.1109 -0.1129  0.0600
 9992W        W10856  13.458  13.643   5.247  0.2025 -0.1474 -0.2391
 9993W        W10857  19.411   4.751  13.693  0.2563  0.0332  0.3745
 9994W        W10858   5.509   7.947  14.255 -0.0671  0.1017 -0.1317
 9995W        W10859   2.405   8.969  13.764  0.1801 -0.2999  0.1386
 9996W        W10860   3.369  13.403  11.465  0.0428 -0.0803 -0.0305
 9997W        W10861  10.112  12.088  12.463  0.1515  0.0730  0.1815
 9998W        W10862  23.516  11.959  26.419  0.2645 -0.0357 -0.1961
 9999W        W10863  19.185  13.627  10.880  0.0285  0.2220  0.1704
10000W        W10864  15.768  10.200  24.649 -0.1798  0.1055  0.0260
10001W        W10865   2.024   3.727   2.227  0.1230 -0.1588 -0.1933
10002W        W10866  20.210   7.134   0.101  0.1996 -0.1176 -0.0515
10003W        W10867  27.650   5.225  23.872  0.1646 -0.1543 -0.0584
10004W        W10868  21.479   4.530   1.394 -0.0128  0.2116 -0.0890
10005W        W10869  14.489  28.339  13.301 -0.0832  0.1339 -0.3852
10006W        W10870  23.741   1.845  18.481  0.4138  0.2020  0.0138
10007W        W10871  27.395   3.915  24.835  0.1122 -0.0640  0.0230
10008W        W10872   3.694  12.546   3.956  0.2224  0.2437  0.0269
10009W        W10873   6.497  27.591   7.735 -0.0919  0.2357 -0.0133
10010W        W10874  28.654  18.762   4.113  0.0257  0.2718 -0.1353
10011W        W10875  16.039  16.268  17.195  0.0376 -0.0098  0.2011
10012W        W10876  26.482  24.882  15.025 -0.1736 -0.1743  0.1489
10013W        W10877  20.699  11.112   2.806  0.0272  0.2505  0.2588
10014W        W10878   8.250  17.265  27.370  0.0454  0.0502  0.2521
10015W        W10879   2.600  20.980  28.483 -0.1386 -0.1271  0.0900
10016W        W10880  12.978   5.311  19.824 -0.3886  0.0985 -0.0124
10017W        W10881   2.746   4.916   0.351 -0.0611  0.2899  0.1524
10018W        W10882  16.512  13.459  13.626 -0.1135 -0.2405 -0.0763
10019W        W10883   0.808  22.253  15.525  0.1369  0.1490  0.0821
10020W        W10884  17.708  27.762   4.374 -0.2069 -0.1796 -0.2545
10021W        W10885   3.350  17.649   8.301 -0.1755  0.1560 -0.0335
10022W        W10886  25.109  16.726  10.529 -0.2132 -0.0424 -0.0553
10023W        W10887   1.342   0.293   9.552  0.0077  0.0149 -0.2373
10024W        W10888  10.085   6.613   1.427 -0.0116  0.3277  0.2410
10025W        W10889  28.192  13.969  24.800  0.3005 -0.1884  0.4495
10026W        W10890  15.363  19.244  26.276 -0.4642 -0.2248 -0.1243
10027W        W10891   8.503  18.993   0.326  0.0250  0.1512  0.0085
10028W        W10892  12.723  10.348   1.978 -0.0518  0.0506  0.0952
10029W        W10893  27.034   1.315  17.204  0.1668 -0.0372  0.0553
10030W        W10894  15.952  20.992  27.628 -0.0663  0.0583  0.2399
10031W        W10895  25.485   6.377  28.881 -0.0107 -0.0412  0.1087
10032W        W10896  24.028  13.799   3.589  0.1449 -0.0075  0.3583
10033W        W10897  14.877  11.540  12.407  0.0746 -0.1303 -0.2544
10034W        W10898  28.555  10.940  10.665 -0.4058 -0.0589  0.0848
10035W        W10899  27.208   2.499  28.744  0.1464 -0.0305  0.0084
10036W        W10900  25.808  14.046  12.158 -0.4021 -0.2020  0.0679
10037W        W10901   7.139  14.721  18.253 -0.0535  0.0363  0.3163
10038W        W10902  25.456  13.449  26.336  0.0092 -0.0558  0.0661
10039W        W10903   2.120  14.876  26.515 -0.1708 -0.0757 -0.0487
10040W        W10904   0.809  15.119   6.691 -0.2164 -0.0637 -0.0330
10041W        W10905  28.602  19.892  17.761  0.1959 -0.2076 -0.1048
10042W        W10906  28.028  17.625   4.524  0.1736 -0.1548 -0.0421
10043W        W10907  16.336  14.537   8.227 -0.2941 -0.2381 -0.0361
10044W        W10908   8.795  16.035   5.460  0.0278  0.0260 -0.2462
10045W        W10909  12.653  14.734   2.391 -0.0322 -0.0688  0.3121
10046W        W10910   5.706  11.099   4.557 -0.2179 -0.0035 -0.1915
10047W        W10911   3.474  14.272   2.633 -0.1392  0.0613  0.1272
10048W        W10912  13.687  15.621  12.129 -0.0649  0.2310 -0.1937
10049W        W10913   2.270  19.077  14.160  0.2060  0.2904 -0.0974
10050W        W10914  29.138   2.198  13.130 -0.0687  0.1030  0.0705
10051W        W10915   5.765  16.811  13.912 -0.0788  0.3024  0.5154
10052W        W10916   0.340  21.736   9.425 -0.5771  0.0542  0.1998
10053W        W10917  19.846  19.784   9.519  0.0213 -0.1463 -0.0780
10054W        W10918   6.267  14.863  20.876  0.1804 -0.4296 -0.3527
10055W        W10919  28.395  13.239  12.894  0.1044 -0.0100  0.0252
10056W        W10920  14.681  16.410  18.308 -0.0448  0.1352  0.1800
10057W        W10921  12.754   3.905  24.523 -0.1008 -0.0032 -0.0714
10058W        W10922  24.211  12.370   3.185  0.2163 -0.0226  0.1501
10059W        W10923  26.601   6.256  21.076 -0.0493 -0.0393 -0.0660
10060W        W10924  12.712  19.495  25.799 -0.0480 -0.0332  0.2280
10061W        W10925  20.230  13.321   4.705  0.1423  0.0569  0.2935
10062W        W10926  15.244   6.528   1.279 -0.3109 -0.0320 -0.1383
10063W        W10927  24.396  12.406   4.078 -0.1868  0.2630  0.0982
10064W        W10928   2.645  24.390   1.568  0.1405  0.1289 -0.0006
10065W        W10929  23.635   2.958  12.360  0.3952 -0.2115 -0.0408
10066W        W10930   0.089  19.989  27.689 -0.0723  0.3216  0.0119
10067W        W10931  11.181  13.557   0.307  0.1789 -0.1176 -0.0382
10068W        W10932   0.991  28.202   8.743  0.0676  0.0573  0.1009
10069W        W10933   4.949  16.281  21.945 -0.0798  0.1297  0.0362
10070W        W10934  24.183  13.255   9.140  0.1298  0.1830  0.2160
10071W        W10935  26.571   6.502  24.666 -0.1045 -0.1048 -0.1223
10072W        W10936  22.401   1.458  10.661  0.0655  0.0196 -0.0490
10073W        W10937   3.237  15.694  11.725  0.0673  0.0278  0.0287
10074W        W10938  27.674   3.101   7.620 -0.0855 -0.0534 -0.0623
10075W        W10939  19.960  21.520  25.043 -0.0109 -0.0151 -0.0928
10076W        W10940   1.040  26.561  24.907 -0.0884 -0.2822  0.3298
10077W        W10941  18.614   4.950  28.492 -0.0932  0.0680 -0.0695
10078W        W10942   6.054  26.482  14.149  0.1668 -0.0815 -0.0174
10079W        W10943  18.299  22.295  10.924 -0.0040  0.0167  0.2350
10080W        W10944  24.381  11.178   3.186 -0.2108 -0.0875  0.1950
10081W        W10945  10.932  27.688   1.868  0.0099 -0.2230  0.0796
10082W        W10946   4.788  19.624  25.481 -0.0644 -0.0000  0.2859
10083W        W10947  23.048  22.136  27.417  0.0790 -0.1417 -0.0057
10084W        W10948  25.931  12.087  26.690  0.0964 -0.0746 -0.3700
10085W        W10949  27.663   4.991  16.051  0.1945 -0.0337 -0.2759
10086W        W10950   6.357  14.561  13.402 -0.0819  0.1046  0.0839
10087W        W10951  11.449   8.180  10.084 -0.1097 -0.0226  0.2423
10088W        W10952  20.406  11.564  10.423  0.0039 -0.0858 -0.0732
10089W        W10953  26.440   8.013   7.461 -0.2502 -0.3250  0.2677
10090W        W10954  17.236  17.288   2.049 -0.1129  0.1683 -0.1277
10091W        W10955   6.649   7.356   6.324 -0.2025 -0.0805  0.0131
10092W        W10956  12.135  12.791  25.267 -0.2687 -0.0680 -0.3312
10093W        W10957  13.247  17.546  16.138  0.0904 -0.1220 -0.1684
10094W        W10958  24.920  25.313   5.403 -0.0637  0.0099 -0.2084
10095W        W10959   8.710  13.267   6.781 -0.1259  0.0002 -0.0122
10096W        W10960  26.966   3.270  25.595 -0.1426  0.0366  0.0649
10097W        W10961   3.503  25.358   4.768  0.2862  0.0884  0.0893
10098W        W10962  14.754   3.321   9.688  0.0309 -0.2669 -0.0440
10099W        W10963   2.603  25.501  27.257 -0.0922 -0.1927 -0.0238
10100W        W10964  10.700  18.408   3.573 -0.1616 -0.3000 -0.2497
10101W        W10965  10.458  11.682  21.441 -0.0077 -0.2582  0.2780
10102W        W10966  27.000   8.637   6.268  0.1924  0.0350  0.1726
10103W        W10967   5.228   5.180  18.969 -0.0021 -0.1597 -0.1163
10104W        W10968  21.833  18.591  22.689  0.1738  0.4215 -0.0086
10105W        W10969  11.183  18.659   5.440  0.2023 -0.1149 -0.2759
10106W        W10970  28.217  22.567  15.258  0.0430  0.0509 -0.1174
10107W        W10971   8.599   5.798  16.195 -0.0030  0.0402 -0.0702
10108W        W10972   1.440   4.901   3.750 -0.3036  0.0916  0.3901
10109W        W10973  27.050   2.311  14.205 -0.0857  0.0661  0.4027
10110W        W10974   3.979   7.081   0.628 -0.1191  0.1177 -0.0134
10111W        W10975   2.283  27.313  21.903  0.1466 -0.3893  0.1661
10112W        W10976  24.311   3.367   3.160 -0.0642  0.1670  0.2116
10113W        W10977   7.950   3.997  13.382  0.0632  0.0836 -0.0384
10114W        W10978  16.515  11.001   9.916  0.0642  0.0480 -0.0839
10115W        W10979  15.931   5.099   1.385  0.4771  0.2582 -0.1153
10116W        W10980   6.276  17.176   0.042 -0.2608 -0.0450  0.1338
10117W        W10981   6.219   2.890  19.060  0.0715  0.1043  0.1671
10118W        W10982   3.844  21.007   9.910  0.0119 -0.0269  0.0602
10119W        W10983   0.897  11.913   5.429  0.1534  0.1176  0.0800
10120W        W10984   8.310  17.648  23.528  0.2806  0.1020  0.0184
10121W        W10985   3.865  24.567  25.330 -0.0358 -0.0112  0.1269
10122W        W10986  20.228   9.877  17.114  0.0396  0.1404 -0.0114
10123W        W10987   9.943  11.392  14.305 -0.2300  0.1207  0.1768
10124W        W10988   1.253  18.941  25.325  0.2968  0.1149 -0.0314
10125W        W10989  29.075  28.927   4.323 -0.2574 -0.0290 -0.1788
10126W        W10990   8.999   4.632  27.370 -0.1423  0.0954  0.1447
10127W        W10991  13.601  13.018   8.186 -0.1099 -0.1487 -0.0280
10128W        W10992  27.965  23.344  25.389 -0.3834  0.2891 -0.1056
10129W        W10993   9.022  10.588   9.568 -0.0650 -0.3204 -0.0802
10130W        W10994   4.433   5.932   4.456  0.1112 -0.0054  0.2257
10131W        W10995  20.452  26.155  15.388  0.2470  0.0895 -0.0764
10132W        W10996  13.568  11.120   6.239  0.1958  0.1111 -0.5154
10133W        W10997  23.625   5.625   5.434  0.0788  0.2743 -0.0379
10134W        W10998   6.670  10.700   6.103 -0.2984 -0.1012 -0.3711
10135W        W10999  10.341  11.966  20.238  0.0598 -0.0422 -0.1140
10136W        W11000   7.876  18.428  25.769 -0.0202 -0.3284  0.1227
10137W        W11001   1.452   5.788  20.453  0.0856 -0.1364 -0.1200
10138W        W11002  10.091  17.476  12.213 -0.1424 -0.1091 -0.1296
10139W        W11003  14.804  28.456   2.814  0.0469 -0.1717  0.1700
10140W        W11004  14.615   4.827  20.525  0.0524 -0.0312 -0.0529
10141W        W11005   0.608   3.203  27.423  0.3202  0.1466  0.0086
10142W        W11006  28.283   7.403   2.564  0.1774 -0.0406 -0.2261
10143W        W11007   3.847  16.217  25.020  0.0550 -0.0066 -0.0067
10144W        W11008  16.256  17.047  28.662 -0.5249  0.0041  0.1858
10145W        W11009   0.034  19.972  13.398 -0.0354 -0.0946  0.1876
10146W        W11010   2.932   9.785  20.405  0.1484 -0.2442  0.0530
10147W        W11011  10.434  17.591  17.597  0.1593  0.3672 -0.1407
10148W        W11012   3.922  26.789  22.951  0.3090 -0.2052 -0.0609
10149W        W11013  19.648  16.604  27.673 -0.1034 -0.0610 -0.3162
10150W        W11014  29.049   7.227  19.886 -0.1363  0.1151  0.0941
10151W        W11015  20.699  28.877  25.101  0.0716  0.2287  0.1999
10152W        W11016  27.202   1.220  15.905 -0.2147 -0.2951 -0.0587
10153W        W11017  12.843   8.747  14.543  0.3780 -0.1835  0.0467
10154W        W11018   9.392  18.820  16.023  0.2317  0.1408 -0.0309
10155W        W11019  10.221  23.056  26.782 -0.0040 -0.3013 -0.0480
10156W        W11020   5.181  15.895   7.806 -0.4441  0.0594 -0.0201
10157W        W11021  13.119  14.471   2.977 -0.0550 -0.1208  0.0409
10158W        W11022   1.490  24.518   5.394 -0.1030 -0.1196 -0.1138
10159W        W11023  22.213   5.124   1.293  0.1433  0.1223  0.0986
10160W        W11024  24.122  27.327  19.579  0.2694 -0.0433 -0.3607
10161W        W11025  26.025   0.810   1.668 -0.0310 -0.0505  0.0358
10162W        W11026  24.736   6.655   4.417  0.0975 -0.1566 -0.0266
10163W        W11027  11.728   2.701  22.243 -0.1486  0.0086  0.1762
10164W        W11028  21.292  29.042  10.297  0.3326 -0.1104  0.4392
10165W        W11029   9.417   2.678  25.470 -0.1693  0.1675 -0.2191
10166W        W11030   4.785  17.738   2.620  0.0630  0.2210  0.1082
10167W        W11031   7.039  12.197   2.147  0.2951 -0.2944  0.1469
10168W        W11032   7.718  26.579  11.810 -0.0836 -0.1848  0.1259
10169W        W11033   6.150   0.333  28.674 -0.3065  0.0060  0.5200
10170W        W11034  11.915  22.525   8.384  0.0695 -0.1682 -0.3437
10171W        W11035  14.148   1.678  26.116 -0.2557  0.1147  0.1878
10172W        W11036  12.054   3.579   9.797 -0.0946 -0.0861  0.0772
10173W        W11037  22.017  11.520  11.762 -0.1499 -0.1183  0.1111
10174W        W11038  19.323  13.663  20.667  0.2922 -0.0381  0.1240
10175W        W11039   5.274   5.786  23.568 -0.0569 -0.0152 -0.0942
10176W        W11040   9.500  13.296   1.729  0.0305  0.2036 -0.0245
10177W        W11041  24.939  21.834   3.357  0.0616  0.0509 -0.3404
10178W        W11042   0.049   1.175   8.556  0.0153 -0.1579  0.0220
10179W        W11043  13.970  17.730  25.276  0.0581  0.3212  0.1259
10180W        W11044  13.074  14.201  12.712 -0.1322  0.1877  0.1388
10181W        W11045  28.841  28.819  19.622 -0.0410 -0.1440  0.0326
10182W        W11046  19.776   2.931   2.041  0.1678  0.2511  0.2611
10183W        W11047  12.787  10.909   9.255  0.0202  0.0078  0.2059
10184W        W11048   7.516  22.220   3.817  0.0250 -0.1410 -0.0142
10185W        W11049   6.095  17.381  26.998  0.1518 -0.3824  0.0645
10186W        W11050   9.420  19.446  25.089 -0.0216  0.0278 -0.0849
10187W        W11051  16.965  20.564  28.643  0.2375 -0.0822 -0.0486
10188W        W11052  14.534  11.466   2.535  0.2222 -0.1573 -0.0672
10189W        W11053  28.708  26.605   8.668 -0.2538 -0.0674 -0.2440
10190W        W11054   1.796   5.759  18.155 -0.1256  0.2473  0.1512
10191W        W11055   8.728  10.738  27.783  0.3673  0.0773 -0.0563
10192W        W11056   9.778  20.557   9.941 -0.0818 -0.2141  0.1683
10193W        W11057   2.828  22.347  17.381 -0.0976 -0.0508  0.0168
10194W        W11058  20.303  19.710  24.360  0.0981  0.0392  0.0154
10195W        W11059  27.869  28.283   5.055  0.0701  0.2097 -0.0772
10196W        W11060   2.439   8.946  17.007  0.0625 -0.1787 -0.1810
10197W        W11061  19.354  10.901   1.148  0.0765  0.1190 -0.1397
10198W        W11062   8.498  17.568  26.037 -0.0270 -0.0014  0.1588
10199W        W11063   9.175  28.693  17.316 -0.1689  0.0861  0.1478
10200W        W11064   7.646  20.560  23.684 -0.1731 -0.1349 -0.1411
10201W        W11065  12.567   9.226   3.003 -0.1283 -0.1422  0.2333
10202W        W11066   3.244  16.190   6.067  0.3598 -0.2846 -0.1409
10203W        W11067   5.044   5.303   0.660 -0.0248 -0.1773  0.0213
10204W        W11068  11.177  18.281  13.620 -0.0452  0.1463 -0.0302
10205W        W11069   7.849  22.970   2.679 -0.0638  0.0089  0.1479
10206W        W11070   1.990   6.040  26.248  0.0856 -0.0352  0.2961
10207W        W11071   1.711   8.957   4.168  0.2162  0.0126 -0.1568
10208W        W11072  18.390  24.938   5.030 -0.2932  0.0174 -0.1820
10209W        W11073  15.896  28.430  18.415  0.0059 -0.0881 -0.2971
10210W        W11074  17.708  12.222  10.937 -0.0326  0.0530  0.1132
10211W        W11075  26.523  10.470  12.846  0.1075 -0.0662  0.1047
10212W        W11076  21.172  22.197  17.164 -0.0073 -0.2719 -0.0066
10213W        W11077  17.409  20.001   6.568  0.0596 -0.1369  0.0979
10214W        W11078  11.154  19.839  11.867  0.1692 -0.2181 -0.1915
10215W        W11079  13.273   7.839  22.931 -0.0433  0.0325 -0.2264
10216W        W11080  25.168   2.145   7.753  0.1794  0.0078  0.2891
10217W        W11081   0.856  28.312   7.019  0.0359  0.0530  0.1853
10218W        W11082   4.761  12.135   5.706 -0.1006  0.4329  0.2018
10219W        W11083  21.348  27.803   2.918  0.0040 -0.0382 -0.1964
10220W        W11084  10.896  12.803   6.175 -0.0086  0.2916 -0.1925
10221W        W11085  27.989  11.448   7.217  0.1996 -0.0489  0.2811
10222W        W11086   5.883  11.296   7.558  0.2188  0.0098  0.0697
10223W        W11087  10.568   3.993  15.792  0.3798  0.0913  0.0445
10224W        W11088  19.916   4.494   1.593 -0.2417  0.0233 -0.1485
10225W        W11089  17.056  11.620   3.087  0.2770 -0.0147  0.1314
10226W        W11090  22.834  20.558  25.605  0.0881 -0.0547  0.3078
10227W        W11091   2.305   0.076  12.613 -0.2110  0.0008  0.1312
10228W        W11092  24.147   3.814  22.946 -0.2729 -0.2902 -0.2051
10229W        W11093  10.048   1.860   7.367 -0.1631  0.0463  0.1882
10230W        W11094   7.236  14.825  23.963 -0.2287 -0.4131  0.2394
10231W        W11095  10.141  10.478  24.425  0.0739 -0.3464  0.0320
10232W        W11096  24.964  27.939   4.831  0.0293 -0.2395 -0.0007
10233W        W11097  21.499  15.211   5.522 -0.3153  0.4574  0.2875
10234W        W11098  26.653  20.355  16.701 -0.5194  0.6654 -0.0383
10235W        W11099  20.038  16.522   4.706 -0.2483  0.3030  0.3965
10236W        W11100   0.104  10.706  22.071 -0.3810 -0.0669 -0.0642
10237W        W11101  28.836  13.990  13.480 -0.0984  0.3007  0.0811
10238W        W11102  27.473  18.959   5.483  0.2384 -0.1838 -0.4522
10239W        W11103  22.413   3.512   5.038 -0.0699 -0.1776  0.2657
10240W        W11104  18.503  24.886   3.102  0.2689  0.1147 -0.2129
10241W        W11105  21.815   8.168   2.345 -0.1446 -0.0662  0.0019
10242W        W11106  11.086  15.957  23.018 -0.0432 -0.0108 -0.2332
10243W        W11107  25.281  17.647  10.754 -0.0430  0.3047  0.2788
10244W        W11108  24.246   8.777   2.310  0.0675  0.1990 -0.0933
10245W        W11109   2.658   8.741  13.102  0.0004  0.1447 -0.1060
10246W        W11110  15.286   8.092   5.249 -0.0214 -0.1337 -0.0891
10247W        W11111   8.785   6.026  13.319 -0.1830 -0.0358 -0.0437
10248W        W11112   0.385  12.933  25.501  0.0458  0.1431 -0.3126
10249W        W11113  19.970   9.807  18.180 -0.0537  0.0868 -0.0760
10250W        W11114  21.504  15.569  11.165  0.1846  0.2204  0.0864
10251W        W11115  22.160  12.756   8.518  0.4304 -0.2634  0.0559
10252W        W11116   7.739  12.723  20.909 -0.1488 -0.2344 -0.0414
10253W        W11117  20.159  17.007  14.836  0.1255  0.0482 -0.2860
10254W        W11118  20.436  21.311  28.015 -0.2784 -0.2126  0.2169
10255W        W11119  18.875  25.074   5.015 -0.2927  0.1696 -0.0359
10256W        W11120  19.488  27.534   4.302 -0.1853  0.0038  0.1225
10257W        W11121  27.400   6.022   2.981  0.2375 -0.3355  0.1649
10258W        W11122   4.101  21.391   7.476  0.0128 -0.3003  0.1356
10259W        W11123   6.132   6.675   8.667 -0.0004  0.1286  0.3120
10260W        W11124  27.021  16.959   9.387  0.2672  0.1744 -0.2431
10261W        W11125  17.036  29.040  18.238  0.2540  0.1223  0.2872
10262W        W11126  10.009  24.985  24.810  0.1711  0.3693  0.1121
10263W        W11127  23.648  25.328  28.708 -0.0568 -0.1188  0.3110
10264W        W11128   9.568  20.565  23.512 -0.0794  0.0552 -0.0550
10265W        W11129  13.006  19.920  13.977  0.0430 -0.2584  0.1456
10266W        W11130  17.420   8.635  13.624  0.2690  0.1433  0.0935
10267W        W11131   0.667   0.760   5.230  0.0258  0.0432  0.1770
10268W        W11132  27.692  15.984  20.235  0.1967 -0.0513 -0.0459
10269W        W11133  15.403   7.751  17.289 -0.2606  0.0532  0.0387
10270W        W11134  14.058   6.299  26.370 -0.0721 -0.3691  0.2457
10271W        W11135   2.528   7.757  25.020 -0.2075 -0.1152 -0.0254
10272W        W11136   1.386  16.907  20.913 -0.1424 -0.2106  0.0693
10273W        W11137   1.207  11.741  17.117 -0.0691 -0.0497  0.2805
10274W        W11138  15.726   7.877  12.537 -0.1279  0.0610 -0.3055
10275W        W11139   6.086  22.691   2.233  0.0468 -0.2603 -0.1126
10276W        W11140  12.117  28.684  28.166  0.0767 -0.1456  0.0950
10277W        W11141  28.350  19.274   2.404 -0.1147 -0.0057 -0.1960
10278W        W11142   7.760  25.040  26.973 -0.3707 -0.0764  0.0453
10279W        W11143  19.928  14.235   7.492  0.0170  0.1702 -0.1461
10280W        W11144  27.392  18.371  25.502  0.0842  0.0451  0.2157
10281W        W11145   0.709  24.123  27.173 -0.1498  0.2886  0.0284
10282W        W11146  14.167   3.530   2.823 -0.0301 -0.0181  0.1359
10283W        W11147   2.619  12.879   1.277  0.2055  0.3820 -0.0975
10284W        W11148  24.759  15.380   4.360 -0.0057 -0.1982  0.0479
10285W        W11149  11.499  11.748  20.388 -0.1814  0.3241 -0.0794
10286W        W11150   4.648  17.951   5.143 -0.0593 -0.0559 -0.2553
10287W        W11151  23.379  25.893  14.598 -0.0288  0.0663  0.2706
10288W        W11152  14.580  13.280   9.265  0.0381  0.0879  0.0949
10289W        W11153  20.314  17.264   0.089  0.2896 -0.4182 -0.3946
10290W        W11154  17.459   7.200  27.575 -0.0856  0.2615 -0.2974
10291W        W11155   3.280   1.592  15.908  0.0574  0.0702 -0.0198
10292W        W11156  18.011  12.305   3.755 -0.1851  0.0815  0.2673
10293W        W11157   3.841  13.016  12.198  0.1931  0.0940  0.1749
10294W        W11158  28.439  27.910   2.235 -0.2890 -0.0124 -0.1115
10295W        W11159   2.839  17.562   2.479  0.1859  0.0559 -0.3253
10296W        W11160  10.407  27.404   6.113 -0.0552 -0.2061  0.2422
10297W        W11161  14.972  20.651   2.382 -0.1008  0.2100 -0.3163
10298W        W11162  20.707  17.397   7.155 -0.2560  0.1171 -0.1507
10299W        W11163  13.775  12.421  23.189 -0.0113  0.1990  0.0756
10300W        W11164  10.897  23.625   4.305 -0.0943  0.1662  0.2884
10301W        W11165  14.806  26.884   3.537  0.0193  0.0374  0.1395
10302W        W11166   4.839   6.278  16.793 -0.0857 -0.0139  0.1454
10303W        W11167  16.941  19.394   8.332  0.0029  0.0081  0.0300
10304W        W11168  21.989   2.683  10.810  0.2370  0.2006  0.0902
10305W        W11169  18.580  17.240  11.260 -0.0826  0.1210 -0.0001
10306W        W11170  12.615   3.212  22.393  0.2288 -0.0356  0.0814
10307W        W11171   2.586  17.306   9.164 -0.0992 -0.2331  0.3697
10308W        W11172   6.893  28.038   6.298 -0.1655 -0.0998 -0.0090
10309W        W11173   8.809  21.614  24.103 -0.1622  0.1583 -0.0317
10310W        W11174  25.286  26.763  12.622 -0.0490  0.2478  0.0659
10311W        W11175   6.270   1.534   7.340 -0.2002 -0.0187  0.1186
10312W        W11176  18.559   9.989   9.366 -0.5439 -0.2985 -0.2739
10313W        W11177   0.051  20.570  17.906 -0.2192 -0.0145 -0.1387
10314W        W11178  14.839  15.561  17.984  0.3408 -0.1598 -0.1475
10315W        W11179  28.311   7.377   5.053  0.0185  0.1392 -0.1445
10316W        W11180   0.832  17.421  23.712  0.1161  0.1194  0.1736
10317W        W11181  14.411  14.988   9.139 -0.1939  0.0137 -0.0814
10318W        W11182   7.122   7.580  18.045  0.1997  0.1114 -0.2567
10319W        W11183  25.644  21.316   4.303  0.3642 -0.1529 -0.1470
10320W        W11184  12.062  16.032   5.277  0.1629 -0.1254  0.1880
10321W        W11185  25.487  13.361   6.489 -0.1647  0.1245  0.0059
10322W        W11186  23.606  14.553  22.859 -0.1318  0.3623 -0.3322
10323W        W11187  28.216   8.383  22.412 -0.1337  0.0220 -0.0448
10324W        W11188   8.858   5.234  26.048 -0.0235  0.1985  0.1874
10325W        W11189   3.846  28.618   2.740 -0.0681 -0.1229  0.0805
10326W        W11190  26.475   9.497  15.993 -0.0110 -0.0961  0.0384
10327W        W11191  14.647   4.921   7.235  0.1444 -0.1722  0.0514
10328W        W11192   9.803  15.599   8.342 -0.0349  0.0276  0.0576
10329W        W11193   5.881  11.603  27.040  0.1866  0.1679  0.0870
10330W        W11194  19.081  24.737  11.777 -0.3207 -0.0849 -0.0203
10331W        W11195   9.279  14.081   2.393  0.0675  0.0148 -0.0754
10332W        W11196  26.025   9.123  22.195  0.5787 -0.1186 -0.0133
10333W        W11197  18.839  16.053  27.292 -0.1578 -0.0761  0.3893
10334W        W11198   4.157   4.878  12.774  0.1856 -0.4144  0.1199
10335W        W11199  24.746   5.876  10.293  0.0229 -0.1376  0.0379
10336W        W11200   1.794  13.856  13.919  0.1842 -0.3111 -0.2736
10337W        W11201  16.075  16.451   9.050 -0.1903 -0.2207 -0.2625
10338W        W11202  22.745   1.244  26.974 -0.0556 -0.0683 -0.1776
10339W        W11203  17.078  13.950  17.694  0.0516 -0.2503  0.1506
10340W        W11204  21.260  21.890  15.314  0.1284  0.0550 -0.0084
10341W        W11205  26.956  17.387  10.262 -0.1183  0.2653 -0.1036
10342W        W11206  28.995  16.763   3.554  0.0661  0.0781 -0.0483
10343W        W11207   3.731   0.891   6.158  0.4629 -0.1960 -0.2098
10344W        W11208  28.788  13.217  25.143 -0.3848 -0.1092 -0.0005
10345W        W11209  24.339   2.968   4.596  0.2132 -0.3715  0.0591
10346W        W11210   9.743  16.935   6.531 -0.0475 -0.1028  0.0221
10347W        W11211   3.252  18.789   4.017  0.2438  0.2970 -0.2558
10348W        W11212   4.593   4.322  26.756 -0.0201 -0.1704 -0.2049
10349W        W11213  12.752  12.042   6.833  0.3101  0.2655 -0.2512
10350W        W11214  16.791  19.141  10.361 -0.0313 -0.1312 -0.0779
10351W        W11215  25.367  12.050  18.950 -0.0739  0.0528 -0.0332
10352W        W11216  10.074  24.178   0.308 -0.0390  0.1680 -0.4508
10353W        W11217  25.424  27.191   7.450  0.2182 -0.1457 -0.2795
10354W        W11218  26.625  10.178   6.751 -0.2091  0.0725 -0.0513
10355W        W11219  15.899  13.469   3.760  0.3883  0.1901  0.0293
10356W        W11220  24.442   1.577   4.956  0.0879 -0.1694 -0.0840
10357W        W11221  25.170  19.202  10.556  0.0773 -0.2331 -0.1159
10358W        W11222   0.173  24.601   4.523 -0.0759  0.1055  0.2007
10359W        W11223  25.894  20.852   0.778  0.0539  0.0388 -0.0164
10360W        W11224  11.965   0.724  20.544 -0.1156  0.1751  0.1216
10361W        W11225  15.615   2.857  25.943  0.1745  0.5320 -0.2685
10362W        W11226   6.441  10.442   5.526  0.1172 -0.0806 -0.0508
10363W        W11227  13.587  13.659  14.444  0.0709 -0.3111  0.0801
10364W        W11228  10.498  23.461  26.661 -0.0444  0.0896  0.1696
10365W        W11229  19.918  13.437  27.554 -0.0365  0.0545 -0.0903
10366W        W11230  16.658  13.191  12.301  0.0279  0.1117 -0.3315
10367W        W11231  24.339  20.948  20.868  0.2302  0.1465 -0.2503
10368W        W11232   2.255   7.628  13.252  0.1944  0.3324 -0.3159
10369W        W11233   6.722   5.469   6.435 -0.1119 -0.1788  0.1655
10370W        W11234   8.134  16.858  23.869 -0.0493 -0.0795  0.2997
10371W        W11235  21.430  18.461   0.730  0.0349 -0.2037 -0.1180
10372W        W11236   4.545   7.167  25.521  0.0904 -0.1415  0.0449
10373W        W11237  18.129   8.510   8.305 -0.0885 -0.0713  0.0205
10374W        W11238   4.148  17.373  12.376  0.0493  0.2009 -0.0725
10375W        W11239  12.718  13.338   3.644 -0.3582  0.1063 -0.3632
10376W        W11240  21.481   2.323   6.942  0.0103 -0.2178 -0.0788
10377W        W11241   5.846   4.139  14.262 -0.2204 -0.0397 -0.1392
10378W        W11242  14.642  20.848  20.202  0.3633  0.1331 -0.0714
10379W        W11243  24.458  22.713  26.121  0.1203  0.1295 -0.1547
10380W        W11244  28.458  21.402   2.419 -0.3040  0.1388 -0.2381
10381W        W11245  15.664   9.334  12.499  0.0654  0.0481 -0.0069
10382W        W11246  24.292  11.260  22.917  0.1800  0.0693 -0.1013
10383W        W11247   4.384  11.199  24.676 -0.0819  0.2223  0.0281
10384W        W11248   2.936   6.036   3.334  0.1162  0.3970  0.1551
10385W        W11249   0.656   6.681  28.877  0.0037  0.0927 -0.1712
10386W        W11250  25.205  27.622   1.665 -0.1659  0.2852  0.1579
10387W        W11251   6.972  25.858  13.110 -0.0860 -0.1916  0.0109
10388W        W11252   3.587  14.239   3.653  0.0726 -0.1528 -0.0114
10389W        W11253   5.763  10.924   8.747  0.0582 -0.2126  0.1590
10390W        W11254   2.605  11.046   7.811 -0.0083 -0.1307  0.2496
10391W        W11255  25.179  15.848   9.958 -0.4845  0.1550  0.0232
10392W        W11256  10.133  28.964  27.889  0.1371  0.2741 -0.1100
10393W        W11257   0.911  17.227   7.716  0.1532  0.1950 -0.2090
10394W        W11258  20.017  12.175   3.847  0.0518 -0.0780 -0.1528
10395W        W11259   6.473   7.210   0.365 -0.2576 -0.0189 -0.0752
10396W        W11260  20.495  21.490  26.725  0.2634  0.2123 -0.0367
10397W        W11261   3.206   1.893   2.692  0.2279  0.1882 -0.3853
10398W        W11262   6.743   6.670  25.007  0.0947  0.0562 -0.0354
10399W        W11263   7.890   3.365   7.317  0.0265  0.0156  0.1274
10400W        W11264  20.254   3.986  22.108 -0.1245 -0.1265 -0.4755
10401W        W11265   6.100  27.765  27.327  0.1124  0.2930  0.3030
10402W        W11266   2.859  11.427  10.306 -0.3748  0.2882  0.1871
10403W        W11267   4.988  26.030   0.690  0.0613  0.0008 -0.3442
10404W        W11268  11.230   7.412   4.673 -0.3059  0.0829 -0.0925
10405W        W11269   4.880  19.731   4.595  0.0338  0.0751 -0.1787
10406W        W11270  23.527  14.582  13.401  0.1875  0.0142 -0.0882
10407W        W11271  25.481   7.236  13.122 -0.2063 -0.0362  0.3872
10408W        W11272  27.238  25.871  13.044  0.2089 -0.3985 -0.1448
10409W        W11273  15.034   1.640  24.303 -0.1999 -0.1923  0.1054
10410W        W11274   0.875  19.349   7.956  0.0896  0.0460 -0.1154
10411W        W11275  15.131  28.706  28.849 -0.3673  0.1066  0.0657
10412W        W11276   7.625  11.528  13.237  0.1023  0.3427  0.3255
10413W        W11277  24.359   1.428  27.566 -0.1860  0.0153 -0.0751
10414W        W11278  14.956   5.263  23.812 -0.0604 -0.3048 -0.0220
10415W        W11279  15.197   9.678  14.852  0.1466  0.2289  0.0480
10416W        W11280   1.504   5.749   3.644  0.0208  0.2057  0.1448
10417W        W11281  21.422  20.254  22.568  0.0542 -0.2857  0.0390
10418W        W11282  12.379  20.925  16.179  0.2845 -0.2480  0.0405
10419W        W11283  23.167   8.452  20.906  0.1214 -0.0286 -0.0397
10420W        W11284   4.076   6.904   3.174 -0.1369  0.1595  0.0096
10421W        W11285  18.285  15.705   0.322 -0.1128  0.0279 -0.1687
10422W        W11286  22.588   5.844  17.631 -0.1303  0.2792 -0.3535
10423W        W11287  11.280  19.426  10.031  0.0202  0.0963 -0.1929
10424W        W11288  25.302  21.268  26.329 -0.0566 -0.0225 -0.2965
10425W        W11289  24.330  22.442   1.714 -0.0857 -0.1403  0.0831
10426W        W11290   6.284   0.513  12.246  0.0585 -0.2820 -0.1041
10427W        W11291   3.593   2.143   7.657  0.0730  0.0231 -0.0932
10428W        W11292  11.828   1.029   4.838 -0.0727  0.1698 -0.1126
10429W        W11293  23.844   3.721  28.231 -0.2152 -0.0831 -0.1830
10430W        W11294  21.465   3.237  13.379  0.2420  0.0116 -0.0351
10431W        W11295   3.528  14.296  15.854  0.2253  0.1556 -0.1362
10432W        W11296  16.108   6.033  11.441 -0.2983 -0.0448 -0.2289
10433W        W11297   3.918  20.797  11.361 -0.0437 -0.1263 -0.1660
10434W        W11298   0.101  16.710  20.558  0.2189  0.1413 -0.0774
10435W        W11299   4.790  16.875   6.749  0.0605 -0.2404 -0.5509
10436W        W11300   4.855  14.915  12.200 -0.1632  0.1881 -0.1761
10437W        W11301   9.515  21.991  11.189  0.1556  0.0967 -0.1016
10438W        W11302  26.260  17.153  23.373 -0.0396 -0.2217 -0.1249
10439W        W11303  22.529   8.608   5.331 -0.3958  0.0904 -0.2163
10440W        W11304  22.817   9.947  22.457 -0.0199 -0.1266  0.4486
10441W        W11305  25.460  12.914  26.384  0.0587  0.2133  0.0690
10442W        W11306  14.733  11.140  24.067 -0.1797 -0.0215 -0.0237
10443W        W11307  18.001   2.253  12.291  0.0936 -0.1572  0.0016
10444W        W11308  26.078   1.795  26.380  0.0176 -0.0926  0.2203
10445W        W11309   3.759   7.417  10.724 -0.2060 -0.1178  0.1801
10446W        W11310   6.727  18.468  23.575 -0.1002  0.0375 -0.1361
10447W        W11311   0.764  15.635  23.893 -0.2997 -0.0017  0.1169
10448W        W11312   3.010  14.211   3.512  0.0198  0.0816 -0.0376
10449W        W11313   0.627  22.509  12.852 -0.0985  0.1080 -0.1328
10450W        W11314  26.673   5.150  16.047  0.1932 -0.0850 -0.3487
10451W        W11315   3.881  14.154  14.020 -0.0153 -0.4505  0.0345
10452W        W11316  22.309   4.890  11.693  0.2507 -0.0128  0.0477
10453W        W11317  19.280   1.199   9.097  0.0179 -0.0166 -0.1498
10454W        W11318  19.848   9.506   2.253  0.0571 -0.1150  0.2396
10455W        W11319  23.549   5.567  22.112  0.2754  0.1926  0.0419
10456W        W11320   2.160  14.403  19.775  0.0638 -0.0578 -0.4264
10457W        W11321  21.291   6.016  14.891 -0.1972  0.4175  0.0326
10458W        W11322  27.056   5.694  22.304  0.2765 -0.0217  0.2401
10459W        W11323  15.637   6.092   3.005  0.1557  0.3810 -0.2024
10460W        W11324   1.484  23.473  10.363  0.0579  0.1223 -0.2168
10461W        W11325   3.343  20.231   0.186 -0.1139  0.1476  0.0284
10462W        W11326   2.441   1.471  12.848 -0.0186 -0.4901 -0.1373
10463W        W11327  28.201   2.802  23.840  0.2179 -0.0277  0.1228
10464W        W11328   0.230  15.890  11.772  0.1467 -0.0313  0.0749
10465W        W11329  25.644  20.270   7.786  0.2156 -0.0634  0.0754
10466W        W11330   0.710   8.974  10.643 -0.2031 -0.1753 -0.1766
10467W        W11331   7.820   8.075  24.372 -0.0367 -0.2830 -0.2668
10468W        W11332  18.479   1.690   3.371  0.1605  0.2285  0.0966
10469W        W11333   9.496   3.441  17.742  0.2837  0.0499  0.1270
10470W        W11334  10.340   9.348   0.772  0.2370  0.2537  0.0638
10471W        W11335   5.448  20.351  16.987 -0.1068 -0.2808 -0.0398
10472W        W11336  19.788  28.077  27.891  0.0218 -0.2155  0.0862
10473W        W11337  27.312  16.551   8.438 -0.0217 -0.2526  0.0400
10474W        W11338  12.617  12.992  10.340  0.0782  0.1808 -0.2004
10475W        W11339  26.419  17.780  24.504 -0.0771 -0.2043 -0.0911
10476W        W11340  11.946  23.918   5.394  0.3386  0.1624 -0.0240
10477W        W11341  10.901   2.306   2.921 -0.0359 -0.1236 -0.0169
10478W        W11342  28.167   9.979   4.202 -0.1482  0.0776 -0.1556
10479W        W11343  19.234  17.163  20.212 -0.1013  0.0684 -0.1107
10480W        W11344  26.049  20.793  14.774 -0.1421  0.1381  0.1000
10481W        W11345  18.455  19.381   8.525 -0.0848 -0.1994  0.0447
10482W        W11346  14.451  12.022   2.649  0.2574 -0.0560 -0.1342
10483W        W11347  16.589  15.894   8.446  0.0173  0.1269 -0.5010
10484W        W11348  26.260  14.811   7.157  0.0315 -0.0820  0.0139
10485W        W11349  28.335  10.174   8.346  0.0513  0.0015 -0.0924
10486W        W11350  28.411  12.863  19.099 -0.0801 -0.0640 -0.1166
10487W        W11351  26.495   2.308  17.278 -0.1072 -0.2357  0.1691
10488W        W11352   9.351   2.611  13.235 -0.0745  0.0539  0.3512
10489W        W11353  20.123   3.102  11.310  0.1509  0.0334 -0.2358
10490W        W11354  26.555   5.056   1.798 -0.1534  0.2628  0.1717
10491W        W11355   0.758  17.228  14.095  0.1262 -0.1008  0.2715
10492W        W11356  14.750  23.031   0.788 -0.0135  0.0249 -0.1426
10493W        W11357  19.014  27.397   4.328 -0.1476  0.2726 -0.1258
10494W        W11358  23.922   1.472   9.131 -0.0145 -0.4608 -0.0642
10495W        W11359   7.301  23.249   6.074 -0.1052  0.0677  0.0365
10496W        W11360   2.640   7.389  22.758 -0.0702  0.1398  0.1673
10497W        W11361   7.275  17.413  12.260  0.0624 -0.2391  0.1353
10498W        W11362  21.328  27.879  16.942  0.2156  0.0501 -0.0867
10499W        W11363   0.887  13.016  29.073 -0.0890  0.0367 -0.1565
10500W        W11364  23.824  18.310  13.808 -0.1035  0.0995  0.1362
10501W        W11365   0.293   0.729  23.975  0.0759 -0.1983  0.2478
10502W        W11366   3.665   6.616  20.991 -0.1717 -0.0033 -0.3521
10503W        W11367  21.556  17.456   8.145  0.1644 -0.2572  0.1390
10504W        W11368   1.899  28.370  14.751 -0.1441 -0.2270 -0.2894
10505W        W11369   2.003  17.787   2.590  0.1595 -0.0718 -0.1697
10506W        W11370  22.155   2.813  19.358 -0.0500  0.3993 -0.0730
10507W        W11371   7.598  15.673   4.029  0.1460  0.2149  0.0581
10508W        W11372   8.050   4.991   3.802  0.0749  0.0400  0.0493
10509W        W11373  17.065  12.497   7.854 -0.1695 -0.2009  0.1470
10510W        W11374  22.104  22.310   3.175  0.2372 -0.0308  0.3390
10511W        W11375   4.800  10.363  11.563 -0.0523 -0.2340  0.1528
10512W        W11376   9.729  10.029  17.785 -0.1818 -0.1403 -0.2650
10513W        W11377  13.569  18.324   0.761  0.3237  0.2087  0.0061
10514W        W11378  20.460   9.382   8.342  0.3020  0.1689  0.2141
10515W        W11379   4.007  17.015   1.900  0.0722  0.2174 -0.4681
10516W        W11380   7.573  16.674  19.851  0.0526  0.2547 -0.3026
10517W        W11381  19.656  14.196   8.298 -0.2855 -0.2700  0.1605
10518W        W11382   0.710   5.274   4.696  0.3519  0.0522 -0.0724
10519W        W11383  15.588  19.413   8.406 -0.2929 -0.2706  0.2351
10520W        W11384  20.093  18.709  11.821 -0.0220  0.1139 -0.1383
10521W        W11385   6.931  22.552   9.600 -0.1423  0.2405  0.0084
10522W        W11386   2.027   8.161   9.730  0.2305  0.0344  0.4143
10523W        W11387   0.008  23.035   9.718  0.2990  0.0598 -0.0119
10524W        W11388   1.024  22.872  18.191  0.0398 -0.0765  0.2756
10525W        W11389  25.792  14.307  19.649  0.1771  0.0888  0.0225
10526W        W11390  26.459   1.596   1.642  0.2128  0.1421 -0.0383
10527W        W11391  28.850   4.591   9.656  0.1369 -0.1785 -0.1849
10528W        W11392  20.420   6.736   9.081  0.1280 -0.0285  0.0563
10529W        W11393  10.415  20.076  20.583 -0.0871 -0.2677  0.3133
10530W        W11394  15.438  15.098  15.271 -0.0414  0.1533 -0.0111
10531W        W11395   6.123   3.801  10.754  0.3353  0.0254  0.4968
10532W        W11396  14.008   2.272  13.304  0.2011 -0.0255 -0.0529
10533W        W11397  25.891   7.142  18.230 -0.1868 -0.2710 -0.1464
10534W        W11398  18.371   2.097  15.265 -0.0289  0.0617  0.2338
10535W        W11399   0.071   9.981  23.443  0.0233  0.0800  0.0039
10536W        W11400   2.878  17.640   5.709 -0.0308  0.0365 -0.1204
10537W        W11401   3.904  11.031  23.601 -0.0154  0.1410  0.2633
10538W        W11402   0.112   6.267   3.438 -0.0452 -0.5418  0.0576
10539W        W11403  23.032   7.694  15.789 -0.3344 -0.1456 -0.2520
10540W        W11404   4.468   1.827   8.035 -0.1377 -0.1580 -0.1066
10541W        W11405  22.552  10.722   8.437 -0.0187  0.0475 -0.1965
10542W        W11406  20.015   1.533   4.415  0.0599  0.0497  0.1232
10543W        W11407  13.374   9.354   7.128  0.2995 -0.0534 -0.1957
10544W        W11408   8.219  13.697   9.018  0.3144  0.2138 -0.0555
10545W        W11409   6.996  19.105   8.865 -0.2786 -0.0133 -0.0700
10546W        W11410  19.472   5.791   7.144  0.0587  0.4574  0.1711
10547W        W11411   3.228   1.811   7.010  0.2653  0.0716 -0.2511
10548W        W11412   0.601  21.262  11.324 -0.0141  0.1071  0.1657
10549W        W11413  21.385   1.893   4.191  0.0658 -0.2376  0.0859
10550W        W11414  25.974  17.699  17.009  0.2072 -0.0510  0.1209
10551W        W11415  24.004   4.139  17.244  0.1961 -0.0654  0.0155
10552W        W11416  29.026   6.808   8.627 -0.0848  0.2062 -0.0672
10553W        W11417  23.344   6.313   5.565  0.3071 -0.3532 -0.3172
10554W        W11418   5.928  18.059  27.647  0.2498  0.0536 -0.3705
10555W        W11419   0.740  13.576  14.583 -0.1295 -0.1803 -0.0268
10556W        W11420  12.967  24.800   9.392 -0.0819 -0.1658  0.0695
10557W        W11421   8.413   7.046  22.515  0.0734  0.1543  0.0634
10558W        W11422  21.965  16.799  11.201 -0.0051  0.0072 -0.0391
10559W        W11423   3.685  11.487  17.780 -0.0956  0.3417  0.2503
10560W        W11424  26.671  16.780  21.975 -0.0018 -0.3049  0.2793
10561W        W11425  17.004   2.275  26.273  0.0820  0.2357  0.2682
10562W        W11426  18.324   9.076  25.978  0.1328 -0.2462  0.3296
10563W        W11427  25.347  23.187  16.891  0.0254  0.0001  0.2876
10564W        W11428  26.976  12.134  15.437  0.1811  0.0831  0.1390
10565W        W11429   5.770  21.038   1.346  0.0098 -0.2211 -0.3241
10566W        W11430   6.826  17.988  10.578 -0.2072  0.1448 -0.0229
10567W        W11431  26.094  15.412  20.618 -0.1640 -0.0409  0.0075
10568W        W11432  26.027  15.902  11.128  0.0225 -0.0082 -0.0101
10569W        W11433   2.229  12.401  11.336  0.3299 -0.2569  0.1448
10570W        W11434  25.157  21.239  28.361  0.4547  0.0737 -0.1769
10571W        W11435  22.537  11.861   5.639  0.1224 -0.4147  0.2909
10572W        W11436  19.703   9.120   7.661  0.0805 -0.1028 -0.2573
10573W        W11437  27.935  18.967   3.581  0.0857 -0.1279 -0.0757
10574W        W11438  16.698   5.396   6.501  0.0566  0.1820  0.1143
10575W        W11439   9.014  26.675   9.204 -0.1963 -0.1806  0.0462
10576W        W11440  24.741   1.945  16.468 -0.3016 -0.1507  0.2341
10577W        W11441  21.231  25.967  25.466 -0.1531  0.2036  0.0197
10578W        W11442  27.588  26.045  10.114  0.0480 -0.3029  0.0576
10579W        W11443  16.549  25.047   9.898  0.2081  0.1328  0.2448
10580W        W11444   0.542   0.262  17.221 -0.0957  0.0457  0.1034
10581W        W11445  19.263  10.706  28.791 -0.0545  0.0021  0.2055
10582W        W11446   8.226   3.628  22.213 -0.4097 -0.0946  0.2370
10583W        W11447  10.746   8.806   8.996 -0.1400 -0.0576  0.0675
10584W        W11448  19.841  28.747  28.965 -0.1019 -0.1797  0.2953
10585W        W11449   9.292  15.061   3.679 -0.2245  0.1949  0.0392
10586W        W11450   5.558   7.201   4.839 -0.2103 -0.0134 -0.0217
10587W        W11451  11.859  23.190   2.037 -0.1822 -0.2900 -0.1324
10588W        W11452  25.380  17.985   6.146  0.1241 -0.1212 -0.2838
10589W        W11453  12.435  19.037  26.770  0.0839 -0.3242  0.2952
10590W        W11454  13.413  22.732   5.694 -0.1794 -0.1378  0.0739
10591W        W11455  23.636  27.400  21.458 -0.0806 -0.0042  0.1919
10592W        W11456  20.382  18.463   4.650 -0.0407  0.2981  0.2331
10593W        W11457  25.478   1.682  11.988 -0.1484  0.0517 -0.0321
10594W        W11458  26.264  19.245  14.923 -0.0481  0.0323  0.0385
10595W        W11459  23.592  14.822  16.016  0.0358 -0.2603  0.2230
10596W        W11460   4.440  26.400  23.372  0.2582 -0.0984 -0.2507
10597W        W11461   8.777   8.641   2.301  0.1951 -0.1004  0.1990
10598W        W11462   1.154  19.812  20.301  0.3059  0.1369 -0.0185
10599W        W11463  12.894  13.621   2.449  0.1359 -0.2185 -0.0330
10600W        W11464  21.588   6.770  14.281  0.1124  0.0295  0.0857
10601W        W11465  28.349   7.733   3.120 -0.1677  0.1358  0.2322
10602W        W11466  16.968  29.009  13.709  0.1897  0.0430  0.0094
10603W        W11467  23.358  12.576   5.368 -0.0424 -0.4520 -0.0306
10604W        W11468   7.771  15.114  26.166  0.0485  0.1718  0.0622
10605W        W11469  25.075   1.417   0.335 -0.1559 -0.1300  0.1820
10606W        W11470   6.787  13.194   9.449  0.1083  0.0635  0.0066
10607W        W11471  21.702  17.807   6.933  0.2361  0.0879 -0.3279
10608W        W11472  24.295  10.951   9.730 -0.0818  0.0295  0.3157
10609W        W11473   6.631   1.429  15.763 -0.3904 -0.4636 -0.1124
10610W        W11474  27.742   9.871   7.301 -0.0668  0.1531  0.1000
10611W        W11475  13.503   6.822   9.219  0.0570  0.3127  0.0279
10612W        W11476  18.652   3.784   0.744  0.0713 -0.2711 -0.0532
10613W        W11477   1.188   5.932   4.655 -0.0337 -0.0012 -0.0618
10614W        W11478  22.744   4.962   6.448 -0.0404  0.0899 -0.3020
10615W        W11479  21.482  25.988   2.546 -0.0178  0.1963  0.2016
10616W        W11480   3.585   3.833   3.545 -0.2229 -0.1120 -0.0854
10617W        W11481  22.129  25.811  13.509 -0.0798  0.0033 -0.0682
10618W        W11482   0.579   9.259  12.460  0.1833 -0.1586 -0.3089
10619W        W11483  19.595  13.634  26.466  0.1388 -0.1818 -0.2811
10620W        W11484  24.409  10.119  10.341  0.3597  0.0177  0.1376
10621W        W11485  15.343  10.822   4.797  0.2739 -0.3464  0.0920
10622W        W11486   0.033  25.163  10.590  0.2341 -0.2602  0.1928
10623W        W11487  19.331  11.229  26.148  0.3101 -0.1108  0.0313
10624W        W11488  27.852   3.609   3.801 -0.0645 -0.1375  0.0526
10625W        W11489   3.476   4.757   2.281 -0.2134  0.1648 -0.0787
10626W        W11490  16.527   4.349   8.566 -0.0790  0.0903 -0.2325
10627W        W11491   5.184  27.703   7.545 -0.2253  0.1205 -0.0754
10628W        W11492   7.193  11.489  24.609 -0.0284  0.0856 -0.3677
10629W        W11493   5.068   9.736  15.450 -0.1076  0.1201  0.0444
10630W        W11494   5.611   1.707  27.738 -0.0759  0.0152 -0.0557
10631W        W11495  27.123  27.828   3.518 -0.3187 -0.0562  0.0740
10632W        W11496   0.084  26.175   5.001  0.0861  0.1189 -0.0103
10633W        W11497   2.745   4.701  17.887  0.0176  0.2538  0.2278
10634W        W11498  22.838  28.373  14.770 -0.1498 -0.2572  0.1268
10635W        W11499  24.068  15.782   6.141 -0.0862 -0.1164 -0.1811
10636W        W11500  25.235  20.141  15.304  0.4151 -0.3228  0.1133
10637W        W11501   8.969   6.624  25.979 -0.2543  0.1274 -0.0077
10638W        W11502   5.781  20.334  27.864  0.0327 -0.2462 -0.2795
10639W        W11503   0.515  17.011   0.912 -0.0507 -0.1975 -0.0957
10640W        W11504  27.314  15.737   5.103  0.0049  0.1383 -0.2526
10641W        W11505  28.011  20.424  22.006 -0.1362 -0.0157  0.0718
10642W        W11506  27.554   1.945   5.134 -0.1401 -0.0306 -0.3766
10643W        W11507  15.332  10.618  25.302  0.0390 -0.0496  0.0633
10644W        W11508   4.009  13.613   5.095  0.2412  0.0122  0.2401
10645W        W11509   8.579  22.927  10.775  0.1343  0.4476  0.1776
10646W        W11510   7.057   6.352  21.105 -0.1745  0.0982  0.1134
10647W        W11511  24.908   5.296  26.560  0.3707 -0.2340  0.1796
10648W        W11512  24.801  12.711  16.868  0.0312  0.3541 -0.0692
10649W        W11513  28.598  26.207  19.476 -0.2197  0.0151 -0.2093
10650W        W11514  23.097   1.277   4.192 -0.0875 -0.0266 -0.1243
10651W        W11515  15.216  24.988  24.349 -0.0539 -0.0088 -0.0822
10652W        W11516  28.359  10.356   5.992 -0.0351  0.0155 -0.0123
10653W        W11517  23.388  12.967   4.610 -0.2107 -0.2570 -0.0792
10654W        W11518  11.285  15.095   0.899 -0.0139 -0.2491 -0.1438
10655W        W11519   6.402   8.100  22.281  0.3549  0.0098  0.0156
10656W        W11520  14.220  10.607   8.662  0.0944  0.3004 -0.4493
10657W        W11521  18.519  19.645   8.080 -0.0707  0.0216 -0.0756
10658W        W11522   6.045   9.729  24.635  0.1052 -0.0727 -0.0751
10659W        W11523   6.822  24.091  20.554  0.2731 -0.1256 -0.1568
10660W        W11524  25.696  10.299   9.580  0.2631 -0.0382  0.3194
10661W        W11525  24.482  23.385   8.776  0.0104  0.0020 -0.0558
10662W        W11526  19.531  25.752  25.196  0.0607  0.3966  0.2732
10663W        W11527  24.952   5.411   2.819 -0.1644  0.0354 -0.1051
10664W        W11528  27.855   4.890   6.716 -0.0587 -0.2808  0.0027
10665W        W11529  10.215   9.123   6.333  0.1262  0.1658 -0.2121
10666W        W11530  13.245  21.358  14.969 -0.3560 -0.0145  0.2243
10667W        W11531  28.738  26.483  20.402  0.4367 -0.0053  0.0026
10668W        W11532  18.115  22.853  10.892  0.2012  0.1055 -0.1523
10669W        W11533  23.273  17.394  16.088  0.0392 -0.1466  0.2619
10670W        W11534   9.768  13.453  18.121 -0.2414  0.0296  0.1225
10671W        W11535   3.589  21.659  28.453  0.0502  0.1910  0.3289
10672W        W11536  14.208  27.001   7.529  0.0649 -0.0512  0.0251
10673W        W11537  12.156  11.631   2.357 -0.1508 -0.2039  0.0181
10674W        W11538   4.029  13.235   3.310 -0.2490  0.0238  0.1775
10675W        W11539   6.498  21.156  20.847 -0.0345 -0.0030  0.1197
10676W        W11540   9.570  19.225  10.498 -0.1277  0.1346 -0.3438
10677W        W11541  22.669   0.165  28.338 -0.0512  0.3487 -0.3363
10678W        W11542  28.580  14.710   5.446  0.1613 -0.0246  0.1008
10679W        W11543   3.752  25.972   2.550  0.1319  0.2166 -0.1824
10680W        W11544   2.118   3.328  17.892  0.0662 -0.1504 -0.0330
10681W        W11545  24.351  28.189  12.900 -0.1006  0.0802 -0.2248
10682W        W11546   6.545   5.718   1.201 -0.0013 -0.1489 -0.2048
10683W        W11547   1.034  16.998   9.360 -0.1921 -0.3538  0.0479
10684W        W11548  17.777  24.480   2.129  0.0403 -0.2126 -0.2439
10685W        W11549  23.666   8.924   5.554  0.3517 -0.1864 -0.1783
10686W        W11550  17.267  13.051  13.097 -0.0637 -0.4486  0.1394
10687W        W11551  20.107   2.021  14.800  0.2658 -0.2060 -0.2600
10688W        W11552  11.809  18.950   3.957  0.2341 -0.1601 -0.0058
10689W        W11553   0.393  18.715   9.406 -0.0073  0.0434  0.1546
10690W        W11554   6.018  12.454  28.494  0.0094  0.2379  0.0868
10691W        W11555   1.591  28.450  16.086  0.0263 -0.3604 -0.0259
10692W        W11556  28.733  20.130   9.407 -0.2389  0.0589  0.1863
10693W        W11557  17.024  24.560  18.992  0.0055  0.1751  0.1087
10694W        W11558  27.037  10.217  26.437  0.1684 -0.1696 -0.2291
10695W        W11559  25.335   1.460  13.997  0.1369  0.1754 -0.2724
10696W        W11560   8.852   2.888  13.221  0.5210  0.2041 -0.2074
10697W        W11561   4.802  11.697  10.828  0.3431  0.1798  0.3600
10698W        W11562  24.453  16.957  22.793  0.2900 -0.0935 -0.2760
10699W        W11563  14.732   9.809  23.573 -0.1187 -0.1602 -0.0897
10700W        W11564   4.802  26.271   2.531 -0.2318  0.2659  0.0228
10701W        W11565  10.584  19.131   1.553  0.2925 -0.3022 -0.1646
10702W        W11566  21.949   2.630  11.778 -0.0831  0.3741 -0.0301
10703W        W11567   7.131   2.914  22.708 -0.3474 -0.0413 -0.0623
10704W        W11568   2.257  15.586  19.104 -0.0570 -0.1309  0.0578
10705W        W11569   3.077   3.966  27.916  0.2028  0.1775  0.1260
10706W        W11570   3.585   8.825   6.538 -0.1176 -0.0946  0.4107
10707W        W11571   7.966   8.700   5.317 -0.0287  0.0726 -0.0419
10708W        W11572  27.153   3.072   3.282  0.1862 -0.3559 -0.4033
10709W        W11573   9.335   9.604   1.326 -0.0456  0.1167 -0.1073
10710W        W11574   7.104   9.477  24.590 -0.0752 -0.0379 -0.2281
10711W        W11575  23.103   5.719   8.322  0.1423 -0.3491  0.0713
10712W        W11576  23.254  13.069  27.531 -0.0646 -0.3349 -0.0280
10713W        W11577  11.332   7.531  14.533 -0.0202 -0.0184  0.1242
10714W        W11578   1.113   6.183   8.769 -0.0924  0.1317  0.0858
10715W        W11579  19.430   0.372   0.897  0.2426  0.1770  0.0660
10716W        W11580   7.784  20.627   8.891 -0.0253 -0.0782 -0.2176
10717W        W11581  21.431  10.478  14.628  0.0212  0.3187  0.3238
10718W        W11582  25.731  21.866  21.528  0.0121 -0.2152  0.1640
10719W        W11583  10.844  21.442  15.429  0.0389 -0.2569 -0.2723
10720W        W11584   1.376  19.273  16.435 -0.2517  0.0466 -0.3766
10721W        W11585   5.595   6.585   3.594  0.0093  0.0912  0.0657
10722W        W11586   0.415   6.731  13.804  0.3271  0.1008 -0.1613
10723W        W11587   4.704   3.146   1.816  0.2444 -0.0214 -0.0156
10724W        W11588  16.964  10.120  28.787  0.0369  0.0313 -0.1819
10725W        W11589  16.219  27.780   1.444  0.0758 -0.0374 -0.0110
10726W        W11590  12.967  22.159   3.865 -0.1202 -0.1000  0.0787
10727W        W11591  26.191  13.097   2.669 -0.0492  0.1353 -0.2181
10728W        W11592  24.388  11.921  21.712 -0.0933 -0.2190 -0.0278
10729W        W11593   1.169  23.969  12.798 -0.0514 -0.1039  0.0806
10730W        W11594  17.313  16.371  14.483  0.0265  0.1390  0.0444
10731W        W11595  13.645   7.899  20.902 -0.2743 -0.0925 -0.1541
10732W        W11596   2.161   7.066   4.949  0.1131  0.1226  0.0914
10733W        W11597  26.964  16.086  16.340 -0.0682 -0.1058  0.0870
10734W        W11598   9.084   8.319   8.384 -0.0120 -0.0186  0.1552
10735W        W11599  16.591   7.557   7.838  0.0614 -0.0732  0.1625
10736W        W11600  24.315  12.890   4.002 -0.0250  0.0459  0.3113
10737W        W11601  13.059   6.794   1.860 -0.1742 -0.0281  0.0037
10738W        W11602  25.583  13.716  16.301 -0.1382 -0.0362  0.2587
10739W        W11603  14.654  18.909   6.729  0.0337 -0.2306  0.1035
10740W        W11604  23.530  17.492   3.213 -0.0431 -0.3259  0.1234
10741W        W11605  11.016   1.036   9.154  0.0866  0.1983 -0.0684
10742W        W11606  22.067   7.735  28.099 -0.0834  0.1571 -0.3364
10743W        W11607  17.555  29.000  11.840 -0.0167 -0.0632 -0.1004
10744W        W11608   0.303  11.000  16.439 -0.0147  0.2154  0.0736
10745W        W11609  11.198   8.310  24.770 -0.1868  0.2904 -0.2731
10746W        W11610   5.847  26.255  18.032  0.1793  0.1385  0.0061
10747W        W11611  25.779  19.454  13.975 -0.6432  0.1259 -0.0305
10748W        W11612  24.975  20.938   2.165  0.2868 -0.4432 -0.0441
10749W        W11613  18.012  20.788  13.190  0.0331  0.0360  0.5121
10750W        W11614  25.666  19.377  19.277  0.2317  0.0420  0.1226
10751W        W11615   9.402  10.983  14.935  0.1520  0.1783 -0.0747
10752W        W11616   5.397  27.261  19.420  0.2792 -0.2655  0.4503
10753W        W11617   0.371  13.479  20.064 -0.0893  0.0316 -0.3435
10754W        W11618   8.276  16.033  19.259 -0.1122 -0.1858  0.1543
10755W        W11619  20.952   2.887  19.813 -0.0030  0.2361 -0.0422
10756W        W11620  22.684  17.404   8.799  0.0335  0.1079  0.0863
10757W        W11621  11.631  16.175  12.782 -0.2519 -0.0689  0.0855
10758W        W11622  26.969  15.001  10.935  0.0467 -0.1993  0.2060
10759W        W11623  18.259  11.244  22.679  0.0965 -0.3099 -0.0450
10760W        W11624   3.157  10.983  15.032  0.2747 -0.1007 -0.0302
10761W        W11625  11.632  20.293   3.061 -0.1178 -0.0064 -0.0971
10762W        W11626   4.164  22.433  11.659  0.0484  0.1273  0.0552
10763W        W11627  15.679  14.653  28.003  0.0450  0.1125  0.1966
10764W        W11628   5.248   9.317  21.297  0.3216  0.4136 -0.1756
10765W        W11629   5.277  17.983   3.677  0.1026 -0.1441  0.2174
10766W        W11630  21.299  10.040  11.343 -0.1483  0.4070 -0.1848
10767W        W11631  18.880   7.559   2.279 -0.1165 -0.3868  0.0650
10768W        W11632  23.562   6.842   3.099 -0.1214  0.0878 -0.1055
10769W        W11633  22.545  16.138   5.736  0.0047  0.2795  0.3509
10770W        W11634   9.418  19.292   8.072  0.2942 -0.2697  0.1979
10771W        W11635  16.323  10.779  11.337  0.0675 -0.0089 -0.0783
10772W        W11636  20.944   7.534   7.418 -0.0891 -0.0503 -0.1059
10773W        W11637   4.491   0.241   9.612 -0.1379 -0.0713 -0.0505
10774W        W11638  19.202   1.851  14.891  0.2331  0.0272 -0.1179
10775W        W11639  19.853  26.904  28.838  0.1708 -0.0793  0.1210
10776W        W11640  25.910   4.781   6.822 -0.0159  0.1111 -0.1246
10777W        W11641   6.127  16.276   6.480  0.0418  0.0718 -0.0745
10778W        W11642  27.323   9.364   5.815 -0.2624 -0.1207  0.2376
10779W        W11643   1.247  19.512   6.090  0.0071 -0.1591 -0.0458
10780W        W11644  26.121   9.821  13.335 -0.1316  0.3224 -0.0589
10781W        W11645  15.346  11.943   7.425  0.1846 -0.0155 -0.0440
10782W        W11646  28.849  10.473  19.218  0.4734  0.0031 -0.1138
10783W        W11647   1.353   2.074  23.127 -0.0968 -0.0131 -0.0597
10784W        W11648   1.800   6.774  10.596 -0.0236 -0.0398  0.2027
10785W        W11649  24.889  11.409  28.731  0.1249  0.3643 -0.2364
10786W        W11650  21.711   0.472   7.825  0.1986 -0.2885  0.3092
10787W        W11651  21.367  13.347  23.707  0.1095  0.0107 -0.2880
10788W        W11652  22.359   0.455  14.783  0.1359  0.0367 -0.1818
10789W        W11653  14.623  16.448  23.410  0.0393  0.1372 -0.1960
10790W        W11654  20.222   0.775  28.994  0.2154 -0.2094  0.1567
10791W        W11655  24.758   6.094   3.410 -0.4575  0.0615  0.1281
10792W        W11656  27.499   9.925  24.093 -0.0262  0.2099 -0.0037
10793W        W11657   5.854  28.657  21.607  0.3277  0.0058 -0.0459
10794W        W11658  23.730  14.596  23.562  0.0893 -0.0781  0.1917
10795W        W11659  22.681   2.349   0.751  0.3348 -0.2734  0.1224
10796W        W11660  12.629  15.210   0.785 -0.1549 -0.1699 -0.1068
10797W        W11661   0.874   2.809  26.604  0.0294  0.2685 -0.1499
10798W        W11662  12.576  24.636   8.476  0.1108 -0.1821  0.1805
10799W        W11663  25.172  10.687   1.557 -0.0087 -0.1710  0.1592
10800W        W11664   3.150  20.757  20.164  0.0109  0.1760 -0.0219
10801W        W11665  28.363  27.694  25.655  0.0850  0.0837  0.0749
10802W        W11666  17.303  18.170   0.963  0.3449 -0.1655 -0.3398
10803W        W11667   6.391  11.304  12.731  0.0751 -0.4426 -0.1397
10804W        W11668  20.644  15.867   5.643 -0.1083  0.2412 -0.2591
10805W        W11669   7.116   5.107   1.845 -0.0231  0.0267  0.2153
10806W        W11670  28.022  26.339  15.707 -0.1141 -0.0446  0.1050
10807W        W11671   1.970  16.403   4.550  0.0214 -0.3188  0.2729
10808W        W11672   0.505  11.910   4.853 -0.1720  0.2786 -0.2331
10809W        W11673  28.788   4.497   2.459 -0.1621 -0.3859  0.0817
10810W        W11674  26.835   3.031  26.573  0.0606  0.0091 -0.2150
10811W        W11675   2.484   4.592  22.130  0.2065  0.3072 -0.0511
10812W        W11676  12.447  16.961   0.899  0.0429  0.0757  0.1097
10813W        W11677   7.193  19.870   5.158 -0.1750  0.1858  0.2153
10814W        W11678  18.318   1.703   7.959  0.0530  0.0290  0.3451
10815W        W11679  20.872   5.667   0.172  0.1720  0.5121 -0.0644
10816W        W11680  21.695   3.703  13.122 -0.1514 -0.0608 -0.0244
10817W        W11681  27.183   3.824   7.229 -0.2360 -0.1300 -0.0332
10818W        W11682  16.908  18.463  16.106  0.0083  0.0627 -0.0829
10819W        W11683  12.321  24.579  17.054  0.1443 -0.0979 -0.0500
10820W        W11684   6.491  27.566   9.807 -0.1631  0.1493 -0.0493
10821W        W11685  27.865  19.129  28.951 -0.1069  0.1673  0.0703
10822W        W11686   6.843  11.568   8.637  0.1198  0.2151 -0.1328
10823W        W11687   6.799  10.467  28.179  0.0150  0.1119  0.0998
10824W        W11688  16.401   0.339   7.185  0.0735 -0.1827  0.1025
10825W        W11689   4.941  19.637   5.559  0.3475  0.0609  0.0763
10826W        W11690  26.519   8.264   7.895 -0.0883  0.1433  0.1312
10827W        W11691  28.834  10.620   9.208 -0.0921  0.2615 -0.1096
10828W        W11692  19.046  16.075  26.862 -0.2383  0.3862 -0.2846
10829W        W11693  22.020   3.122  18.922 -0.0680 -0.0286 -0.1338
10830W        W11694   1.197  20.782  14.931  0.0641  0.0127 -0.2479
10831W        W11695  18.347  20.635   3.498 -0.2179 -0.3335  0.0520
10832W        W11696   8.980   0.769  15.144 -0.2004 -0.0681  0.2370
10833W        W11697   2.733   7.571  15.658 -0.1761  0.0555 -0.0129
10834W        W11698  24.115  18.730   2.890  0.0990 -0.1079 -0.1378
10835W        W11699   5.644  24.744   8.748  0.2951 -0.0668 -0.1874
10836W        W11700  11.384  24.771   7.853  0.0534 -0.2176  0.1032
10837W        W11701   8.672  21.801  16.101 -0.1356 -0.3223 -0.0722
10838W        W11702  11.660   0.372   4.203 -0.1976  0.0823 -0.0908
10839W        W11703  12.420  19.397   9.961  0.2250  0.1661 -0.1562
10840W        W11704  13.913  25.552  22.788  0.0929  0.1002 -0.0153
10841W        W11705   9.130   8.871  16.695 -0.1381 -0.4398  0.2731
10842W        W11706  21.900  16.758  21.101 -0.0026  0.2242 -0.0678
10843W        W11707   0.680   4.868  23.689 -0.0256 -0.1481  0.0519
10844W        W11708  10.239  28.004   2.716 -0.0569  0.1067 -0.3121
10845W        W11709  24.302  18.387  22.209 -0.0040  0.1433  0.0058
10846W        W11710  24.621  20.923  10.855 -0.0656  0.1170 -0.0723
10847W        W11711  28.737  25.761  25.113 -0.1050  0.1861 -0.1189
10848W        W11712   0.908  23.971  20.000  0.0949 -0.2482 -0.1351
10849W        W11713  23.776   9.077  14.808 -0.3377  0.0984  0.0823
10850W        W11714  24.441   5.343  10.975 -0.4330  0.0155  0.2385
10851W        W11715  13.592   2.275  19.762 -0.1359  0.1477  0.0994
10852W        W11716  10.391   9.508   4.978  0.1461 -0.1258  0.4247
10853W        W11717  27.246  28.178  12.911  0.2106  0.0583  0.0720
10854W        W11718  12.822  26.636  23.017 -0.0587  0.1239 -0.1164
10855W        W11719   8.909   5.776  27.866  0.2625 -0.0070  0.1171
10856W        W11720   3.164   6.548  21.066  0.2639 -0.2614  0.0044
10857W        W11721   3.182   3.805  15.430 -0.1672  0.1170  0.2029
10858W        W11722  22.464   7.611  13.246 -0.3131 -0.0939  0.0737
10859W        W11723  12.813  18.650  16.091  0.2098  0.0442  0.2088
10860W        W11724  10.395   0.141  27.315  0.0679 -0.3574 -0.1963
10861W        W11725  10.534  10.734   0.818  0.0626 -0.1927  0.2535
10862W        W11726   4.002  24.461   6.608  0.1620  0.0928  0.1776
10863W        W11727   3.111  13.766  13.795  0.0695  0.1388 -0.3017
10864W        W11728  17.565  13.097   9.417  0.1096  0.0399  0.0471
10865W        W11729  21.908  15.095  12.354  0.1181  0.0401  0.1517
10866W        W11730   5.269  17.149  14.763  0.0404 -0.2253 -0.4003
10867W        W11731  20.008  11.384   7.688 -0.1253  0.0928  0.1822
10868W        W11732  23.170  19.981  14.209 -0.0276  0.1146 -0.1065
10869W        W11733  17.254  22.669   3.925 -0.0602  0.0104 -0.3114
10870W        W11734  26.507   7.747   8.969  0.1082 -0.0208  0.0132
10871W        W11735   5.033   6.339   6.220  0.0177 -0.0485 -0.1137
10872W        W11736   3.501  15.031  22.615  0.0155 -0.0931  0.2188
10873W        W11737  15.291   0.429   4.999 -0.2874 -0.0105 -0.3255
10874W        W11738   4.695   4.143  10.849 -0.0832 -0.4959 -0.1682
10875W        W11739   1.542   3.453  14.768 -0.1596  0.1589 -0.1247
10876W        W11740   0.821   4.168   8.690  0.0638 -0.1250  0.2500
10877W        W11741  19.745   5.272  11.960 -0.1997 -0.0459 -0.1082
10878W        W11742   7.150  22.796  26.251  0.0039  0.0175  0.1364
10879W        W11743   2.312  10.473  26.569  0.1532 -0.0056 -0.2100
10880W        W11744  28.994  20.381  19.888 -0.2492  0.2353 -0.0052
10881W        W11745  28.608  26.588  14.219 -0.0771 -0.0208  0.2398
10882W        W11746   5.410  18.525  16.434 -0.3724  0.0559 -0.1274
10883W        W11747  20.015  25.331   1.621  0.0424 -0.0230  0.0537
10884W        W11748  17.661  18.259   4.758  0.1683 -0.0091  0.0810
10885W        W11749   4.827  15.648   3.048  0.1585 -0.2204  0.0719
10886W        W11750  11.490  23.723  10.147 -0.1203 -0.1416 -0.1731
10887W        W11751  25.465   4.153  28.874  0.0540 -0.1583  0.1221
10888W        W11752   8.522   0.589  15.037 -0.0046 -0.1215  0.1656
10889W        W11753   5.191  13.198  24.212 -0.0432  0.1593  0.1774
10890W        W11754  27.706  20.205   6.570  0.2553 -0.2528 -0.4254
10891W        W11755  25.986  14.578   1.578 -0.1006  0.1637  0.0732
10892W        W11756   7.806  15.448  15.151  0.0075 -0.1249 -0.1443
10893W        W11757   2.813  25.501   0.174  0.1380 -0.2887 -0.0100
10894W        W11758  14.877   4.451  14.295  0.2510 -0.2058 -0.1418
10895W        W11759  28.295   7.228  27.207  0.0328  0.5463  0.2438
10896W        W11760  14.749  17.272  17.317  0.0857 -0.1552 -0.1145
10897W        W11761   8.671  11.889  17.287 -0.3339 -0.1203 -0.1398
10898W        W11762  24.104  24.372   1.047  0.0430 -0.1563 -0.1050
10899W        W11763  24.677  10.844   4.229  0.2173 -0.3837 -0.0437
10900W        W11764  10.062  28.093  24.326 -0.3067 -0.3294  0.0383
10901W        W11765   1.808   5.932  12.543  0.0527  0.0887 -0.0173
10902W        W11766   1.139  28.086  26.107  0.0537  0.2498 -0.1328
10903W        W11767  18.736  11.375   2.221 -0.1682 -0.1772 -0.1087
10904W        W11768  18.181  12.308  11.927 -0.1553 -0.0513 -0.1292
10905W        W11769  20.573   4.247   5.989 -0.0298 -0.0231  0.0992
10906W        W11770   9.060  24.279   0.680 -0.1668  0.1952 -0.1061
10907W        W11771  10.675  28.915  15.271  0.0849 -0.0785 -0.0602
10908W        W11772  22.821  20.209  15.298 -0.1502 -0.4134  0.0272
10909W        W11773   5.834   6.824  26.583  0.0787  0.0425 -0.0723
10910W        W11774  11.360  21.199   9.646  0.0566  0.0155 -0.0095
10911W        W11775  19.718  12.177  26.858  0.0742 -0.4511  0.0244
10912W        W11776   0.992   5.633  13.321 -0.1137 -0.2526 -0.2815
10913W        W11777  22.593  14.550  17.013 -0.1622  0.1022  0.3034
10914W        W11778  28.408  24.904  21.239  0.1497  0.3193  0.4237
10915W        W11779   8.950  13.129  20.084 -0.0026 -0.0007  0.1352
10916W        W11780   3.062  23.655   2.805 -0.1003  0.2111 -0.0910
10917W        W11781   9.125   9.055   9.497 -0.1922 -0.1195  0.0236
10918W        W11782  20.380   9.048  14.823  0.4029  0.0353  0.0508
10919W        W11783  11.750  17.517   3.185 -0.0907 -0.4146 -0.1519
10920W        W11784  14.434   7.551  26.201  0.1714 -0.0498  0.1997
10921W        W11785  17.470  13.580   7.019 -0.0906  0.2662  0.2189
10922W        W11786  24.440   8.199  18.584  0.0594  0.0501 -0.1295
10923W        W11787   5.413   1.522   7.718 -0.0721  0.0789 -0.1224
10924W        W11788   0.876   7.910  11.497 -0.0808  0.0628 -0.1227
10925W        W11789  10.557  19.447  26.299 -0.2679 -0.0180 -0.0306
10926W        W11790   3.849  12.849  28.784 -0.1693 -0.0245 -0.0239
10927W        W11791  10.772   2.181  28.889  0.1181  0.0739 -0.3161
10928W        W11792  24.485  12.664  17.339  0.3567  0.0228 -0.0936
10929W        W11793   2.151  14.724  12.143 -0.1502  0.0883  0.1931
10930W        W11794  20.646  22.726  12.561  0.1765  0.0896 -0.2747
10931W        W11795   5.645   7.774   7.671  0.4851 -0.1493 -0.0253
10932W        W11796  13.682   7.237  13.821  0.0315 -0.1304 -0.0192
10933W        W11797   3.095   0.999   1.471 -0.3629 -0.2548 -0.1904
10934W        W11798   4.794  14.866  10.712  0.1121  0.1733 -0.2747
10935W        W11799   5.277  20.754   4.233  0.0548  0.0561  0.2417
10936W        W11800   1.931  11.960   6.697  0.1151  0.2217 -0.3260
10937W        W11801  17.854   7.160  25.940  0.1634 -0.0452  0.1561
10938W        W11802  15.762  16.026  24.582  0.2051  0.0008  0.2410
10939W        W11803  13.989  19.656  15.862  0.0209 -0.0671 -0.0005
10940W        W11804  14.995  18.639   2.098 -0.2600 -0.0581  0.2493
10941W        W11805   1.063   0.418   6.333  0.1738 -0.1713  0.1800
10942W        W11806   7.944  27.994   7.649  0.1576 -0.0274  0.2574
10943W        W11807  17.331  10.562  24.286  0.0491 -0.0453  0.1569
10944W        W11808  26.170  11.071  21.296  0.2634  0.1224 -0.1809
10945W        W11809  27.624  22.117  14.600  0.2292  0.3323 -0.1579
10946W        W11810   8.541   8.423  27.962  0.0208  0.0328 -0.1838
10947W        W11811  10.448  25.400  15.705 -0.1696  0.2770  0.1661
10948W        W11812  26.204  15.187  26.193 -0.0612  0.1453 -0.0667
10949W        W11813   0.110   6.771  10.851  0.0192  0.0042 -0.0475
10950W        W11814   9.057  11.376   2.613  0.0216  0.1473 -0.1811
10951W        W11815  13.755  26.604   5.904  0.0943  0.0120  0.1865
10952W        W11816   6.534  20.306  13.431  0.2549  0.0798 -0.2788
10953W        W11817   0.818   7.000   7.566  0.0669  0.0795 -0.1252
10954W        W11818  26.458   1.291  16.283  0.0955 -0.3947 -0.1279
10955W        W11819   7.600  10.913   4.903 -0.2825 -0.2271  0.3096
10956W        W11820  20.562  18.722   3.894  0.1972 -0.3710 -0.0650
10957W        W11821   4.429   3.322  28.303 -0.0041 -0.0839 -0.1145
10958W        W11822  28.287  25.346   4.248 -0.0204  0.0869  0.1435
10959W        W11823  21.970  22.909  14.890 -0.1425 -0.1623 -0.2258
10960W        W11824  26.244   8.828  18.409  0.1413 -0.0328  0.1401
10961W        W11825  18.609   3.482  14.534  0.0132  0.2152 -0.2690
10962W        W11826  13.134   3.225   1.398 -0.1570  0.0316 -0.4278
10963W        W11827  19.767  21.974   9.517 -0.1299  0.0385 -0.1896
10964W        W11828  14.284  12.687   7.336 -0.2054 -0.0592  0.2173
10965W        W11829  24.403   5.136  16.397  0.1740 -0.0022 -0.1149
10966W        W11830  21.877   5.512  10.323  0.2494 -0.0861  0.2614
10967W        W11831  16.084  19.932   1.810  0.0329  0.1480 -0.1470
10968W        W11832  23.790  20.728   5.287 -0.2509 -0.0927  0.0730
10969W        W11833  27.967   5.773   2.942  0.0519  0.5646 -0.3085
10970W        W11834   5.277   3.680   8.675  0.0109  0.0090 -0.1913
10971W        W11835  27.879  12.081  26.877 -0.1296 -0.0030 -0.1338
10972W        W11836   9.101   6.005   9.510 -0.1900 -0.0900 -0.0261
10973W        W11837  22.378  18.282   8.463  0.0563 -0.0307  0.2692
10974W        W11838  20.235  26.302  14.491  0.1669 -0.4928  0.0966
10975W        W11839  21.215  23.049  27.826  0.0254  0.4082 -0.1712
10976W        W11840  19.332  13.183  20.553 -0.0722 -0.2192  0.2356
10977W        W11841   7.351  21.614  16.627  0.0247 -0.0619  0.1220
10978W        W11842  20.721   2.248   7.975 -0.0168 -0.1465  0.0956
10979W        W11843  10.914  10.483  22.211 -0.1850  0.0352  0.1344
10980W        W11844   2.110   2.017  26.514  0.0020  0.2594  0.0366
10981W        W11845   8.663  23.864  15.458 -0.2850 -0.0218  0.0340
10982W        W11846   8.086   3.060   6.370  0.1867 -0.1081 -0.0075
10983W        W11847  20.137  17.264  11.180 -0.1055 -0.0745 -0.0618
10984W        W11848  11.385  18.061  18.244  0.2107 -0.2562  0.1084
10985W        W11849  22.533   4.308  18.410  0.1012 -0.1090  0.1489
10986W        W11850  13.816   1.626   4.475 -0.0773 -0.0586 -0.1813
10987W        W11851  22.979   8.599   5.521  0.1848 -0.1189 -0.0361
10988W        W11852  11.691   8.027   7.430 -0.0331 -0.2361  0.0068
10989W        W11853  26.669  21.913   9.044 -0.2152  0.0053 -0.1613
10990W        W11854  18.976  27.653   0.540  0.1128 -0.0304  0.1057
10991W        W11855  14.874   6.881   5.044  0.0503 -0.1877 -0.1601
10992W        W11856   1.992  15.144  11.954 -0.1472 -0.5442 -0.1965
10993W        W11857  26.876   8.144  14.146 -0.5230  0.2337 -0.0317
10994W        W11858   1.780  16.732  12.625  0.2662  0.3156 -0.1056
10995W        W11859  27.645   7.545   0.736  0.2825  0.1175 -0.1966
10996W        W11860  22.884   5.617   8.803  0.1853 -0.2160  0.0944
10997W        W11861   6.373  18.711  15.562  0.4025  0.1169 -0.4921
10998W        W11862  27.320  12.814   2.210  0.0569  0.2990  0.4003
10999W        W11863  23.106   5.175   8.804  0.1011 -0.2386  0.0918
11000W        W11864  10.116  19.899   7.458  0.0850 -0.0469 -0.2679
11001W        W11865   5.078  10.001  15.869  0.0073  0.3136  0.0209
11002W        W11866   1.727  20.984   6.442 -0.1636  0.0917  0.1632
11003W        W11867  20.164  12.529  25.604  0.3683 -0.1024 -0.1548
11004W        W11868  25.885   9.302  19.377 -0.1129  0.0814 -0.0106
11005W        W11869   2.899  12.467   1.485 -0.0596 -0.0475 -0.0867
11006W        W11870   5.750  13.774   8.301 -0.5697 -0.1235  0.1032
11007W        W11871   9.826   7.058   6.391 -0.0288 -0.0799  0.0172
11008W        W11872  26.103   7.005  29.064 -0.0230 -0.1602 -0.0436
11009W        W11873  11.028  27.530  22.082 -0.0032  0.1994 -0.1852
11010W        W11874  27.338   3.532  10.255 -0.2972 -0.1595 -0.2246
11011W        W11875   2.057  10.776  25.334 -0.0231  0.0363 -0.1971
11012W        W11876  17.793   8.853  23.473 -0.2283 -0.1732 -0.0401
11013W        W11877   0.091  13.414   9.780  0.0605 -0.1306  0.0038
11014W        W11878  21.827   0.601  14.846  0.0826  0.0979  0.1395
11015W        W11879   4.591   1.017   0.242  0.2323 -0.2804 -0.2773
11016W        W11880  12.804   2.077  27.117  0.0752  0.2094  0.1994
11017W        W11881   2.781  20.532  25.049 -0.0051 -0.1283  0.0154
11018W        W11882   0.802   9.820  20.611 -0.0790  0.2205 -0.2220
11019W        W11883  19.906  10.754   8.634 -0.2101 -0.1165  0.0721
11020W        W11884  23.664  13.135   2.607 -0.2559  0.1642  0.2496
11021W        W11885   1.776  19.626   7.692 -0.1269 -0.1086 -0.0531
11022W        W11886   6.229  20.380   3.209  0.1423  0.0293  0.3036
11023W        W11887  12.436  15.988  16.313 -0.0474  0.1510  0.1828
11024W        W11888  24.435  27.158   6.753 -0.2086  0.1913 -0.1786
11025W        W11889  21.239  13.677  10.148  0.0633  0.2621 -0.2013
11026W        W11890  26.016  11.789  25.873 -0.1137 -0.0136 -0.0700
11027W        W11891   7.103  16.825  26.494 -0.2196 -0.0989  0.2580
11028W        W11892  25.789   5.329   9.634  0.0264  0.0101 -0.4026
11029W        W11893  20.737  20.562  16.532 -0.0216  0.3218 -0.0511
11030W        W11894  15.060  20.188   7.911 -0.2819 -0.4150  0.1752
11031W        W11895  18.131  28.577   9.054  0.3684 -0.1780  0.1926
11032W        W11896   0.142  14.121  18.901 -0.0254  0.1413 -0.0858
11033W        W11897  21.974  14.255  12.459  0.0101  0.1633  0.1155
11034W        W11898   9.928  11.109  28.497 -0.0697  0.0478  0.2737
11035W        W11899   6.916   5.474   2.755 -0.3143  0.0594  0.0863
11036W        W11900  28.079  24.221  16.035  0.0694 -0.2913 -0.3000
11037W        W11901  26.612   9.561  10.531 -0.2743  0.3671 -0.0776
11038W        W11902   6.343  29.097  21.126  0.4880 -0.1038 -0.0968
11039W        W11903   5.045   3.840   5.474 -0.4357 -0.2874  0.0445
11040W        W11904   2.484  16.745   9.081  0.4546 -0.1090  0.1051
11041W        W11905  18.272  11.712  20.275  0.4253 -0.3349 -0.0032
11042W        W11906   2.818  14.619  20.491 -0.1657 -0.2138  0.0551
11043W        W11907  19.271  14.641  10.615  0.0349  0.2464 -0.1779
11044W        W11908  11.753  16.463  14.638 -0.1469 -0.0789  0.1074
11045W        W11909  14.268  15.097  11.674 -0.0837  0.0525  0.1279
11046W        W11910   9.170  17.663  19.842  0.0271 -0.0749 -0.1153
11047W        W11911  22.369   8.951   9.623 -0.2572  0.1952 -0.1736
11048W        W11912  22.445  27.131  14.316  0.3501 -0.0079  0.3921
11049W        W11913  24.789   5.084  24.312  0.0592 -0.3140  0.0731
11050W        W11914  14.607  28.402  17.872 -0.4097 -0.1836 -0.1422
11051W        W11915   4.663   0.539  14.483 -0.0257 -0.1150  0.0863
11052W        W11916   7.549   2.835  19.129 -0.0678 -0.0996 -0.0686
11053W        W11917  25.265   2.097  17.224  0.5506 -0.0568  0.1323
11054W        W11918  23.199   1.597   1.056 -0.2137  0.1105 -0.0117
11055W        W11919  27.421  18.683  13.906 -0.0392 -0.2622  0.3019
11056W        W11920  28.431  17.859   0.509 -0.2035  0.2371  0.0821
11057W        W11921  28.831   8.167  21.436 -0.1835  0.0961  0.3762
11058W        W11922  18.978  19.567  20.104 -0.0790  0.1073 -0.0531
11059W        W11923   5.779  16.588  26.141 -0.3916 -0.1978 -0.0113
11060W        W11924   8.353  21.469  14.965  0.0339  0.0012  0.0520
11061W        W11925  20.766  16.847  16.183 -0.4674 -0.1430 -0.0549
11062W        W11926   7.848   5.993   8.640  0.0081 -0.2798 -0.1096
11063W        W11927   5.421  11.715  10.921  0.0528 -0.0870 -0.0157
11064W        W11928  20.905  16.208  12.813 -0.1991  0.1708 -0.0708
11065W        W11929   3.239  27.659   9.381  0.3966 -0.1017 -0.0450
11066W        W11930  22.238  14.544   8.951  0.1264 -0.0838  0.0411
11067W        W11931   0.884  12.223   1.656 -0.0777  0.1854  0.1083
11068W        W11932  12.353   7.179  23.917 -0.1777 -0.1386  0.2624
11069W        W11933  20.666   0.656  27.897  0.4001  0.1254 -0.1240
11070W        W11934   5.920  16.740   7.285 -0.2035 -0.2016  0.0178
11071W        W11935  14.383  18.188  24.420  0.3971 -0.0436  0.0392
11072W        W11936   6.616   7.383  22.715  0.1710 -0.1475 -0.1655
11073W        W11937   3.436   4.111  21.081 -0.1280 -0.1013 -0.2083
11074W        W11938   4.987  24.192  14.211  0.2534  0.1877  0.2782
11075W        W11939  13.915  14.818  21.591  0.1657  0.1063 -0.0908
11076W        W11940   2.337  25.061  12.884 -0.0309  0.2115 -0.3516
11077W        W11941  27.894  13.786   0.639 -0.2412  0.0430 -0.1046
11078W        W11942   7.954  19.936   0.918 -0.1317 -0.1784  0.5539
11079W        W11943  23.390   2.262   7.279 -0.1270  0.0428  0.1056
11080W        W11944  15.142  20.207   2.284  0.0306 -0.0162 -0.2147
11081W        W11945   3.299   6.848  11.756 -0.2778  0.0456 -0.4047
11082W        W11946   7.080   1.199  15.599  0.0922  0.3034 -0.2620
11083W        W11947  19.114   1.999   2.699  0.1408 -0.2029 -0.3299
11084W        W11948  20.000  21.317  10.622  0.0296  0.2318  0.2984
11085W        W11949  24.389   8.016  10.079 -0.1016 -0.0084 -0.2765
11086W        W11950  26.990   8.597  14.614  0.2667  0.4196  0.0914
11087W        W11951  27.553  27.968  23.817  0.1573  0.3261  0.0305
11088W        W11952  24.624   8.347   9.372  0.0654 -0.2253 -0.0633
11089W        W11953  29.124  16.278   9.375 -0.0394 -0.1012  0.1975
11090W        W11954   6.065  27.519  17.349  0.2141 -0.1298 -0.0394
11091W        W11955   7.322  17.385   8.869  0.3174 -0.1271 -0.0186
11092W        W11956  26.551  16.730   7.382 -0.0156  0.3961 -0.0311
11093W        W11957   1.743  18.264   5.480 -0.0229 -0.0375 -0.2766
11094W        W11958  20.074  24.907  25.409  0.1700  0.0680  0.0156
11095W        W11959  11.613  17.266  12.044 -0.0660 -0.0399 -0.1004
11096W        W11960  10.404   8.038   0.428 -0.1795  0.2734  0.3933
11097W        W11961  26.237  10.728   3.274  0.3115  0.0938  0.0099
11098W        W11962  10.810  26.777   5.221 -0.3145 -0.0959  0.0852
11099W        W11963  28.118  25.835   2.536 -0.1216  0.0082  0.1631
11100W        W11964  22.750  16.378  14.599  0.3074 -0.0899  0.2811
11101W        W11965  14.329  16.762  21.751 -0.3790 -0.1703  0.0966
11102W        W11966  25.165   7.845  13.762  0.0590  0.2285  0.2097
11103W        W11967  21.343   8.328  14.383  0.0834  0.0134 -0.1701
11104W        W11968   2.164  10.651  10.337  0.0956 -0.0137  0.0319
11105W        W11969  10.468  22.962  10.008 -0.0439  0.0900 -0.0917
11106W        W11970   0.621   8.724  21.984 -0.1140 -0.1795  0.3962
11107W        W11971  25.710  26.891   2.692  0.3252  0.0677 -0.2327
11108W        W11972   3.416  12.907  25.911 -0.0536  0.4202  0.2045
11109W        W11973   9.861  14.011  28.506  0.0483 -0.2216  0.1153
11110W        W11974  28.067  15.262  28.001 -0.2525  0.0390  0.0079
11111W        W11975  10.381   9.734  18.768 -0.0481  0.2929 -0.2519
11112W        W11976   4.653   7.141  15.049 -0.1678  0.1268 -0.0996
11113W        W11977  20.042  13.996   5.120  0.0026  0.2328 -0.1806
11114W        W11978  20.406  22.361  25.229  0.4338 -0.2110 -0.1036
11115W        W11979  22.710  11.308   2.360 -0.4962  0.0046  0.3520
11116W        W11980  12.539   2.827  26.783  0.1886 -0.1818  0.0323
11117W        W11981   1.047   7.668   4.916  0.2057 -0.1396  0.2607
11118W        W11982   9.998   6.986  14.458 -0.3248 -0.0171 -0.7025
11119W        W11983  22.501  11.423  17.897 -0.1310  0.0246 -0.0259
11120W        W11984  27.654  29.082   7.122 -0.2173  0.1088 -0.0817
11121W        W11985  21.139   4.612   9.158  0.1012  0.0010 -0.0221
11122W        W11986  19.599   3.732  28.908  0.0421  0.0230 -0.0355
11123W        W11987   7.620   8.816  11.178  0.5709 -0.0128  0.1976
11124W        W11988  21.863  22.688   1.168 -0.0299  0.1105 -0.0897
11125W        W11989   2.937  20.234  18.704 -0.3731 -0.0968 -0.1273
11126W        W11990   0.552  13.752  27.540  0.3136  0.4942  0.1088
11127W        W11991  20.582  17.106  11.085  0.2206  0.4541 -0.1306
11128W        W11992   6.285   6.082   2.442 -0.0274 -0.3033 -0.1198
11129W        W11993  13.241  14.474   8.858 -0.0189 -0.1046  0.2266
11130W        W11994  23.138  28.717   4.065  0.2815  0.3002 -0.1709
11131W        W11995  11.252   3.113  16.209  0.0786 -0.0694 -0.1353
11132W        W11996  12.592  17.055  10.576  0.4002  0.1240 -0.0372
11133W        W11997  18.452  27.474   6.423  0.1851 -0.1273  0.0761
11134W        W11998  28.380  14.642  20.219  0.0239 -0.0548  0.0190
11135W        W11999  27.512   3.750   4.903 -0.1542  0.0834  0.1740
11136W        W12000  23.351  18.173  11.959 -0.0466  0.1226 -0.2689
11137W        W12001   4.866   5.290   3.052 -0.3055 -0.1424  0.1196
11138W        W12002  28.167  18.991   0.353  0.2081  0.0454 -0.0231
11139W        W12003   9.804  10.368  10.922 -0.0323  0.1548  0.0156
11140W        W12004  28.381  12.251   2.443  0.0201 -0.3195  0.4384
11141W        W12005   2.504   3.242  15.042  0.1043 -0.0674 -0.0202
11142W        W12006   0.998   9.334  16.074 -0.3191 -0.1715  0.3084
11143W        W12007   0.608   2.546   5.726  0.0152 -0.2237 -0.0956
11144W        W12008   7.696   9.606  14.070 -0.0105  0.0457  0.0278
11145W        W12009  14.389  13.486  23.715  0.0196 -0.2033 -0.0530
11146W        W12010   7.156  24.045  13.785 -0.4555  0.0181  0.0580
11147W        W12011  28.559   5.849  28.951 -0.0868 -0.0802  0.3617
11148W        W12012  17.704  12.155   8.887 -0.0036 -0.0885  0.3117
11149W        W12013   6.764  17.027  20.289 -0.0798  0.0240 -0.0689
11150W        W12014  16.396   1.031  12.932 -0.2062  0.1309 -0.0367
11151W        W12015   8.174  14.305  12.960 -0.2526  0.0483 -0.0450
11152W        W12016   7.577  22.847  28.571  0.0479  0.3188 -0.0072
11153W        W12017   2.532  22.313  13.179  0.2137 -0.1860  0.1108
11154W        W12018   4.569  25.359  15.662  0.1010  0.1390  0.1841
11155W        W12019  18.906  10.522   3.857 -0.3162 -0.3503  0.1092
11156W        W12020   2.266  20.948  16.389 -0.0443  0.2135  0.2260
11157W        W12021   6.126  22.488   2.818  0.0690 -0.0021 -0.2701
11158W        W12022   8.077  18.229  23.431  0.1462 -0.0850 -0.1977
11159W        W12023  14.288   3.834   4.280 -0.0972  0.0012 -0.1643
11160W        W12024   9.158  24.364   9.088 -0.1940  0.0907 -0.2216
11161W        W12025  26.550  26.965  10.439  0.1567  0.0200  0.1287
11162W        W12026  16.117  10.133  18.407 -0.1492  0.0689  0.0826
11163W        W12027  16.242  23.007  17.044  0.0732 -0.1576 -0.0844
11164W        W12028   8.605  14.035  12.762 -0.2275 -0.0418  0.0578
11165W        W12029  21.542   8.817   7.030 -0.1338 -0.1482 -0.0854
11166W        W12030   7.737  10.256  17.716  0.2068  0.2086  0.4763
11167W        W12031  29.053  18.858  11.031 -0.1001  0.2263 -0.0607
11168W        W12032  21.429  13.762  26.764 -0.0817  0.2053 -0.2695
11169W        W12033  17.096   7.430  10.202 -0.2425  0.0478  0.0657
11170W        W12034  25.276   5.115   7.348  0.1746  0.0336 -0.1456
11171W        W12035  18.989  10.124   7.839  0.0775 -0.0897 -0.0873
11172W        W12036   0.929   4.138  13.756  0.1860 -0.4160 -0.2012
11173W        W12037   3.337   6.004  18.205 -0.3025 -0.1689 -0.1430
11174W        W12038  22.017  18.947  20.593 -0.2934 -0.1277  0.1677
11175W        W12039  20.704   8.280   2.647  0.0017 -0.2831 -0.1064
11176W        W12040  13.188  26.134   8.045 -0.2742 -0.0549 -0.2523
11177W        W12041  24.383   0.387  19.826  0.2578 -0.1060 -0.4114
11178W        W12042   0.587  21.357  16.845 -0.1358 -0.0724  0.0579
11179W        W12043  18.586   8.281  13.254 -0.1435 -0.2326  0.0542
11180W        W12044  11.674  15.782   8.498 -0.2601 -0.3665  0.1413
11181W        W12045   0.469  20.869  16.044  0.0189  0.1614 -0.3082
11182W        W12046   4.957  15.845  16.317 -0.2375 -0.1953 -0.1042
11183W        W12047   3.070  14.912   6.093  0.0043 -0.2940  0.2726
11184W        W12048  23.988  14.773  11.804  0.0147  0.1752  0.1788
11185W        W12049   8.679  23.835  11.150  0.2262 -0.0127  0.1840
11186W        W12050  10.340  24.163   3.573 -0.0179 -0.1934  0.0015
11187W        W12051  16.010  12.789  20.025  0.1788  0.3176  0.0542
11188W        W12052  28.571  17.669  21.541 -0.1976 -0.3574  0.0341
11189W        W12053  12.348   7.082   6.645 -0.0633 -0.0158 -0.1637
11190W        W12054  11.299   8.289  16.219  0.0867 -0.1699  0.1779
11191W        W12055   7.405   8.859  11.675  0.1472 -0.1725 -0.0821
11192W        W12056  13.441  17.389  14.339 -0.2560 -0.1930  0.1571
11193W        W12057  28.552   4.934   8.886  0.0413 -0.2038  0.1492
11194W        W12058  10.997  27.990   2.294  0.0904 -0.1946  0.1592
11195W        W12059   4.643  15.458  18.803 -0.0362 -0.2015 -0.2496
11196W        W12060  23.180  28.622   9.883 -0.3030 -0.0592 -0.0574
11197W        W12061   1.299   6.375  23.171 -0.0872 -0.0598 -0.0247
11198W        W12062   8.731  17.426  11.438 -0.3137 -0.0358 -0.2362
11199W        W12063  23.389  28.069  28.304 -0.2426  0.0417 -0.1118
11200W        W12064  13.383  27.636   1.500  0.1403 -0.0716  0.1326
11201W        W12065  27.696  23.406  13.535  0.1527  0.0173  0.0851
11202W        W12066   6.246  21.823  17.650  0.1167 -0.2617 -0.2428
11203W        W12067  11.512   8.897   6.042  0.0055 -0.0820 -0.3899
11204W        W12068   7.153  16.729   6.914 -0.2588  0.4553  0.3246
11205W        W12069  20.026   1.670   1.262 -0.0854 -0.1127 -0.1737
11206W        W12070  17.547   6.962   7.736 -0.1192 -0.2824 -0.0087
11207W        W12071  21.296  14.158   7.439 -0.2427  0.0383 -0.1239
11208W        W12072  13.693   5.938   9.200  0.0367 -0.0488  0.1257
11209W        W12073   1.932  13.732  21.597  0.0141  0.0833 -0.0947
11210W        W12074  13.436  15.478  10.386 -0.1545  0.0046 -0.1512
11211W        W12075   7.288  28.387  21.973  0.0724  0.1418  0.0772
11212W        W12076   1.034  26.479  13.894  0.0596 -0.0559 -0.4075
11213W        W12077   2.077  20.846  24.454 -0.3021 -0.1333 -0.3317
11214W        W12078   2.492   9.158  20.089  0.3167 -0.0976 -0.1443
11215W        W12079   6.635  10.464   3.138 -0.1132 -0.2095  0.2190
11216W        W12080   7.661   3.653   7.709 -0.4648 -0.0666 -0.0279
11217W        W12081   7.497   8.130   0.545  0.1178 -0.2726  0.2225
11218W        W12082   3.053  20.724   4.825 -0.3691 -0.1886 -0.1591
11219W        W12083  19.477  15.581  28.265  0.1227 -0.1314 -0.0751
11220W        W12084   4.145  18.997   9.947  0.0503 -0.0227  0.0758
11221W        W12085  26.656  18.293  13.698  0.2851 -0.3082 -0.1581
11222W        W12086  20.689  17.334  15.701  0.0160 -0.1116 -0.0934
11223W        W12087   5.967  15.617  17.569 -0.2663 -0.0010 -0.1237
11224W        W12088  28.857  22.865  19.783  0.0241  0.1206  0.0376
11225W        W12089  27.696  17.532  17.895 -0.1134  0.0071  0.0766
11226W        W12090   4.975  14.699  15.811  0.1444  0.0576  0.0419
11227W        W12091  24.271   7.306  22.068 -0.0331  0.2245  0.2214
11228W        W12092  14.394  12.630   6.088  0.0126  0.0501 -0.0859
11229W        W12093  11.082  11.253  19.756  0.0901 -0.0760 -0.0298
11230W        W12094  24.314  11.471  18.079  0.0207  0.4350 -0.1410
11231W        W12095  14.991  13.483  24.485 -0.1229 -0.2817 -0.3262
11232W        W12096  20.559  25.236   8.028  0.1100 -0.3692 -0.0772
11233W        W12097   4.896  27.169  27.048 -0.1039 -0.0817  0.1916
11234W        W12098  19.373   7.176   1.245 -0.2812  0.0745  0.1473
11235W        W12099  26.722  10.304  16.682 -0.0231 -0.3444  0.2356
11236W        W12100   4.311   1.538  15.756 -0.1970  0.2233  0.1597
11237W        W12101   2.656  11.783   2.546 -0.0280 -0.1780 -0.0110
11238W        W12102   7.645  20.487  15.337 -0.1691 -0.3439 -0.0221
11239W        W12103  24.656   5.976   1.728  0.2471 -0.1414 -0.1212
11240W        W12104   3.081  17.280  16.234  0.1830 -0.1961  0.2050
11241W        W12105   1.724  25.851  27.717 -0.3913  0.0216 -0.0845
11242W        W12106  18.215  23.261   0.057 -0.1852 -0.1607  0.0080
11243W        W12107   3.833   2.393  15.809  0.0076 -0.1168  0.1007
11244W        W12108   8.973  11.348   8.272  0.0500 -0.0333 -0.0480
11245W        W12109   4.930   3.456  20.215  0.2310 -0.1915  0.1319
11246W        W12110  26.622   1.912   2.005  0.2387  0.1479 -0.0710
11247W        W12111  11.043  22.963   9.868 -0.3546  0.0913  0.2342
11248W        W12112  28.642  15.971  22.862  0.1607 -0.1476  0.1101
11249W        W12113   1.873  16.803  19.397  0.0523 -0.2046  0.1125
11250W        W12114  26.428  27.602  18.861  0.3395  0.1490  0.0650
11251W        W12115   4.953  28.620  17.558  0.0319  0.2559  0.0441
11252W        W12116   7.751  18.177  13.978  0.2699 -0.3188 -0.0455
11253W        W12117  14.664  15.874  23.271  0.2653 -0.1434  0.0366
11254W        W12118   5.193  21.208  15.467  0.2191 -0.0860  0.1741
11255W        W12119   7.962  13.914   6.233 -0.1662  0.4074 -0.1385
11256W        W12120  27.317  17.742   2.120 -0.3705  0.0639  0.1469
11257W        W12121  22.048  11.091  20.257  0.0454  0.1743  0.1250
11258W        W12122   4.823   8.540   7.462 -0.0734 -0.1592  0.2104
11259W        W12123  24.024  12.633  17.173  0.1790  0.1299 -0.0079
11260W        W12124   7.203   5.357  11.593  0.1647 -0.1204 -0.0067
11261W        W12125  12.595   2.040  28.875  0.1874  0.2370 -0.2468
11262W        W12126  28.362  14.438   7.554 -0.0474  0.0949 -0.0567
11263W        W12127  24.576  11.843  26.080  0.0441 -0.0410  0.3330
11264W        W12128   0.006  17.380   6.576 -0.1156  0.1866 -0.2771
11265W        W12129   7.264  12.681   1.591  0.3048 -0.0617 -0.1957
11266W        W12130   8.688  20.449   2.439  0.0924 -0.1739 -0.0789
11267W        W12131  27.780   8.170  28.145  0.1782 -0.2086  0.0697
11268W        W12132  17.157  22.790  20.732 -0.2887  0.2032  0.3328
11269W        W12133   2.128   9.080  22.907 -0.0217  0.2333 -0.0970
11270W        W12134  27.622  14.885  13.802 -0.0101  0.0023 -0.1556
11271W        W12135   2.583  17.289  22.594  0.2602  0.1702  0.0226
11272W        W12136   9.450   3.339  20.236  0.1502  0.4450 -0.0599
11273W        W12137   0.623   1.223  19.437  0.0123 -0.0791 -0.3177
11274W        W12138  13.419  14.096  18.820 -0.3018  0.1867 -0.1571
11275W        W12139  17.799   1.843  12.369 -0.2163  0.1227  0.0839
11276W        W12140  15.849  15.621   8.867  0.1862 -0.0140 -0.0848
11277W        W12141   6.696  21.936  16.863 -0.1788 -0.1111 -0.0478
11278W        W12142  24.003  15.910  15.887  0.1410  0.0320  0.0771
11279W        W12143   8.532  28.909  20.173  0.1623  0.0116 -0.0109
11280W        W12144  24.960  14.348   0.357  0.1693  0.1643 -0.0555
11281W        W12145  27.651  24.962  22.456 -0.0439  0.2142  0.1012
11282W        W12146  15.677   4.070  21.509  0.1863  0.1759  0.1045
11283W        W12147  14.972  15.626  14.541  0.1079  0.3431  0.4003
11284W        W12148   1.662  29.122  20.235  0.2468 -0.1112 -0.0458
11285W        W12149  10.213  17.950   5.485  0.1922 -0.0483  0.1381
11286W        W12150  12.529   2.347   0.518  0.0532  0.4849  0.1944
11287W        W12151   2.386  14.763   5.831 -0.0596 -0.0010 -0.1453
11288W        W12152   0.355  28.011   7.852  0.0280 -0.2433 -0.1971
11289W        W12153  10.054  16.832  20.522  0.1840  0.2529  0.0267
11290W        W12154  20.944  16.742  17.062  0.0513 -0.2540  0.1923
11291W        W12155  22.722   0.172   0.954  0.1333 -0.0553  0.1038
11292W        W12156   6.858   1.930   8.767 -0.1610 -0.1416  0.1244
11293W        W12157  14.495  18.746   8.628 -0.0652 -0.0797  0.1666
11294W        W12158   2.588  27.568   7.157  0.0489  0.2081  0.0408
11295W        W12159   1.771   5.711  17.623 -0.0704  0.0934 -0.1901
11296W        W12160   6.995   6.502   9.820 -0.1599 -0.0667  0.0711
11297W        W12161   9.040  17.334  14.747  0.0822 -0.0896 -0.2894
11298W        W12162   5.792   7.273  27.061 -0.3128 -0.2327  0.0464
11299W        W12163  14.211  24.691  15.355  0.0435 -0.0523 -0.2606
11300W        W12164  25.743  17.284  21.913 -0.1269  0.0938  0.1471
11301W        W12165  25.014  19.109  25.377 -0.1045  0.3415 -0.0651
11302W        W12166  13.888   2.752   9.229  0.1593  0.0182  0.1324
11303W        W12167   6.384  24.773   2.156  0.1452 -0.1527  0.1512
11304W        W12168   7.284  15.733  20.200 -0.2224 -0.0619  0.0486
11305W        W12169   9.779  13.984   0.538 -0.0973  0.0167 -0.2271
11306W        W12170   5.744  10.045  16.142  0.2640 -0.0783 -0.1613
11307W        W12171  21.685  20.787   1.959  0.2199  0.0454  0.5160
11308W        W12172   0.299   4.677   7.812  0.0274  0.1023 -0.1488
11309W        W12173  23.167  14.604  17.232  0.3558  0.1252 -0.2759
11310W        W12174  27.177   6.304   9.717  0.0274  0.2234 -0.0472
11311W        W12175  15.872   5.688  11.776 -0.1041 -0.1126  0.1153
11312W        W12176   5.122   5.034  12.010 -0.1371  0.0331  0.1715
11313W        W12177   5.418   5.993  27.401 -0.2705  0.0213 -0.2351
11314W        W12178  24.671   3.923  12.591 -0.0993 -0.1368 -0.2168
11315W        W12179   1.569  27.694  13.632 -0.1768  0.0168  0.2007
11316W        W12180  25.809  28.168   4.133  0.0751  0.0082  0.2001
11317W        W12181   7.458  17.595  10.762  0.0197  0.1949  0.1790
11318W        W12182   4.887  12.867  18.326 -0.0403 -0.0900 -0.2765
11319W        W12183   6.784  13.283  10.274 -0.1387  0.0445 -0.1370
11320W        W12184  18.124  15.622   5.991  0.0517 -0.0154 -0.0134
11321W        W12185   2.783  19.456  18.521 -0.2308  0.4204  0.0660
11322W        W12186  21.091  26.678  23.286  0.1877 -0.2565  0.0268
11323W        W12187  11.588  22.224  12.158 -0.3177 -0.2096 -0.0533
11324W        W12188  24.216  15.808  23.276  0.1981 -0.0415 -0.0006
11325W        W12189   9.486  28.539  19.051 -0.0740  0.0484 -0.1244
11326W        W12190   8.116  21.324   7.118 -0.0007 -0.0026 -0.1315
11327W        W12191   1.323  29.004   6.515  0.1913  0.0607 -0.0128
11328W        W12192   3.547   8.484  15.159  0.0696 -0.2553  0.0502
11329W        W12193  18.053  21.803   3.671 -0.2715 -0.0067 -0.2225
11330W        W12194  27.695   6.060  21.023 -0.2168 -0.0186 -0.0273
11331W        W12195  23.421   6.563  15.351 -0.0199  0.0213  0.1082
11332W        W12196   6.430   9.405  13.871  0.2430  0.1857 -0.0257
11333W        W12197   2.577  14.366  20.123  0.0773 -0.1428 -0.1750
11334W        W12198  23.940  12.302   5.706 -0.4089  0.2683  0.0589
11335W        W12199  17.007  12.701   5.207  0.0888  0.0082 -0.0596
11336W        W12200   6.207  12.042  20.320 -0.2195  0.2990  0.0467
11337W        W12201  24.257  17.599  17.032  0.3169 -0.0303 -0.0125
11338W        W12202   2.910  22.984  26.272  0.1150  0.1877  0.0544
11339W        W12203  15.588  15.082   7.285 -0.0212 -0.3306  0.1671
11340W        W12204  25.945  15.235  11.853 -0.1814  0.1999 -0.0001
11341W        W12205   7.750   8.568  16.882  0.1059 -0.0615 -0.1861
11342W        W12206  26.369  24.039  27.176  0.2391 -0.2119  0.2013
11343W        W12207   2.430  19.562  10.581  0.0370  0.0014  0.0304
11344W        W12208   7.703   5.483  10.645 -0.1656 -0.0508  0.0817
11345W        W12209  18.114  19.063  11.448  0.0068 -0.2345  0.0573
11346W        W12210   4.764  18.288  23.981 -0.0650  0.2011  0.0728
11347W        W12211   4.015  20.963  28.652  0.2115 -0.1623  0.3366
11348W        W12212   9.311   6.094   3.522 -0.1792  0.1443  0.0247
11349W        W12213  15.546  14.806  19.579  0.0226 -0.1429  0.1161
11350W        W12214  23.770   2.141  15.572 -0.1067  0.0044  0.5046
11351W        W12215   6.939  13.412  14.737  0.0686 -0.1347  0.1323
11352W        W12216   0.169  17.312  17.236 -0.0353 -0.3631 -0.3269
11353W        W12217   7.405   4.824  24.191  0.3015 -0.0952  0.4124
11354W        W12218  22.851  27.820  20.247 -0.1018 -0.1740  0.0591
11355W        W12219  25.366   5.941  23.444  0.2057  0.0519 -0.1024
11356W        W12220  18.468   3.086  16.884 -0.4290  0.3570 -0.1643
11357W        W12221  15.168  17.267   9.785 -0.1253  0.1531 -0.1567
11358W        W12222  27.284  13.543  16.721  0.2032 -0.1411 -0.0303
11359W        W12223  15.826  21.230   7.647  0.2104 -0.1630  0.1604
11360W        W12224  16.159   0.292  10.005 -0.2378  0.2025  0.1036
11361W        W12225  12.690  21.109  13.246 -0.2688  0.0783  0.0550
11362W        W12226   5.782  18.607   9.888 -0.0536  0.1776  0.0253
11363W        W12227  19.113  10.376   6.503 -0.0011  0.2274 -0.1539
11364W        W12228   2.482  28.505  27.880 -0.2947 -0.0333  0.0825
11365W        W12229  13.197   3.153   6.138  0.3395 -0.0589 -0.0503
11366W        W12230  21.118  28.476  11.644 -0.0681 -0.2401  0.0370
11367W        W12231  26.136   6.752  26.409 -0.1554 -0.0199  0.0586
11368W        W12232  15.478  18.147  28.900  0.2056  0.1431  0.3052
11369W        W12233  15.680   2.906  28.890 -0.0374  0.1210 -0.0150
11370W        W12234  22.670   0.123  11.268 -0.1109  0.4225  0.0886
11371W        W12235   0.788  26.237  10.942  0.4094  0.2831 -0.0263
11372W        W12236  26.815  26.683  14.375 -0.0257 -0.1840  0.0150
11373W        W12237  17.932  24.271  15.047 -0.0410  0.0691 -0.2445
11374W        W12238  20.700  21.793   0.275  0.1982 -0.1446  0.0656
11375W        W12239  22.186  12.729  16.873  0.2079  0.2428 -0.0493
11376W        W12240  19.342   2.913  26.634  0.0854  0.0889 -0.0637
11377W        W12241   0.051   0.145   1.212 -0.2864  0.0897 -0.1095
11378W        W12242  18.293   4.804  21.679 -0.0164 -0.0163  0.0580
11379W        W12243   2.227   5.307   5.750 -0.5165 -0.0886  0.2413
11380W        W12244  22.384  14.061   7.993 -0.0940 -0.3226 -0.2039
11381W        W12245   1.720  20.485  26.333 -0.2867  0.1717 -0.1285
11382W        W12246  24.450  12.691   1.908 -0.1351 -0.0307  0.0785
11383W        W12247  12.320  16.983  19.249  0.0607 -0.2560 -0.2898
11384W        W12248  27.250  19.903   8.590  0.0182  0.2421 -0.1250
11385W        W12249  10.613   7.306   7.687  0.0716 -0.2776  0.0037
11386W        W12250  11.122   5.790   4.919 -0.1418  0.1237 -0.3788
11387W        W12251   4.442  28.455  15.053 -0.3187 -0.1525 -0.0126
11388W        W12252  22.261  23.339  27.179 -0.0023  0.1895 -0.0343
11389W        W12253  16.503  23.456  20.285 -0.0516  0.0134  0.1567
11390W        W12254   0.446  13.200  28.215  0.3194 -0.0406  0.0335
11391W        W12255   0.981  19.236  29.120  0.0394 -0.1712  0.0692
11392W        W12256  23.835  14.039  11.190  0.3261  0.0369  0.1408
11393W        W12257   5.629   5.594   0.701 -0.1808 -0.0521  0.1582
11394W        W12258  25.590  12.006   5.695 -0.1206 -0.1854  0.0080
11395W        W12259  28.805   0.997  28.749 -0.0784 -0.3038  0.1096
11396W        W12260   0.133  15.609   9.955  0.1354  0.1171  0.1044
11397W        W12261   0.210  16.289  18.613 -0.0371 -0.0252  0.2093
11398W        W12262  19.252  12.395  16.434  0.3162 -0.0882 -0.1157
11399W        W12263   3.060  20.759  24.236 -0.1049  0.1796 -0.1067
11400W        W12264   3.776   9.800   6.035  0.4468 -0.0104 -0.1346
11401W        W12265  21.656   7.625  18.344 -0.0651  0.0477 -0.1014
11402W        W12266   8.948   6.748  10.412  0.1563 -0.1186 -0.1188
11403W        W12267  11.479  11.622   5.054  0.6351  0.1769 -0.0822
11404W        W12268   5.417  14.266   0.048  0.0339  0.0110 -0.1736
11405W        W12269  19.712  16.606   6.457  0.0129  0.1574  0.0457
11406W        W12270  29.032   4.528   6.266 -0.2162 -0.1364  0.0460
11407W        W12271   0.495   3.485  15.758 -0.0543  0.0264 -0.2358
11408W        W12272  27.644   7.142  14.357  0.3430 -0.0898  0.0867
11409W        W12273   8.494  14.504  16.958 -0.0353 -0.1787  0.0112
11410W        W12274   5.115  24.536  21.919 -0.0287  0.0678  0.0558
11411W        W12275  28.372  19.689  12.160  0.3174  0.0684  0.0848
11412W        W12276   3.077   0.478  24.118 -0.2700 -0.0799 -0.0988
11413W        W12277   3.937  10.347   3.880 -0.1998  0.0595 -0.3347
11414W        W12278   6.578  15.661   4.175 -0.2883 -0.1043  0.1789
11415W        W12279   3.797   8.260   6.483  0.1675  0.1262 -0.0320
11416W        W12280   6.932   9.406  15.941 -0.1800 -0.1682  0.1648
11417W        W12281  11.905  12.195  27.230  0.0172 -0.4232  0.0016
11418W        W12282   1.557  13.874  19.692  0.1322  0.1258  0.3121
11419W        W12283   9.808   6.481  27.802 -0.2431  0.0371 -0.0766
11420W        W12284   9.335  10.742  16.520 -0.1640  0.3119  0.0107
11421W        W12285  11.078  11.040  23.946 -0.0103  0.0253 -0.2660
11422W        W12286  28.848   7.310  12.237  0.0651  0.1992 -0.1897
11423W        W12287  11.217   0.367   9.945 -0.0332  0.1064 -0.2004
11424W        W12288  11.516  12.518  28.873  0.0410  0.1946 -0.1034
11425W        W12289   9.361  25.869  11.206  0.0285 -0.1830  0.1414
11426W        W12290  21.431   8.129   4.348 -0.4290  0.0757  0.1211
11427W        W12291   6.210  20.295  13.059  0.2544 -0.0163  0.1734
11428W        W12292  17.140  15.498  19.086  0.0784 -0.0108 -0.1998
11429W        W12293  25.054   7.175  11.287 -0.0901  0.1932  0.0216
11430W        W12294  10.010  17.851   1.797  0.0985  0.3462  0.1970
11431W        W12295  25.538  16.677   9.397 -0.0510  0.0893  0.0462
11432W        W12296  26.318   5.595   7.222  0.0873 -0.0845  0.1013
11433W        W12297  27.137  12.871   8.243  0.1998  0.1342 -0.2104
11434W        W12298  23.475   3.489   2.663 -0.0710 -0.0716 -0.0348
11435W        W12299  19.788  25.420  10.929  0.1089  0.0905  0.0543
11436W        W12300   3.836   2.092  12.530  0.0340  0.0482 -0.1397
11437W        W12301   1.823  16.174   1.957 -0.1577  0.1731  0.2553
11438W        W12302   5.960  18.066  17.520 -0.3638 -0.2873  0.1660
11439W        W12303   5.248  13.601  22.587  0.0537 -0.3753  0.0536
11440W        W12304   7.911  19.480  21.640  0.2320  0.2174 -0.1995
11441W        W12305  23.224  18.931  15.420  0.2032 -0.1190 -0.0912
11442W        W12306   2.212   2.475  14.581 -0.1681 -0.1233  0.1212
11443W        W12307   0.351  21.773   4.397 -0.3551  0.3345 -0.1032
11444W        W12308   2.919   2.753  16.207 -0.1086  0.0946  0.0156
11445W        W12309   2.079   8.768  25.692 -0.0299  0.1412 -0.1659
11446W        W12310  17.202  13.402  13.934  0.2922 -0.0374  0.0217
11447W        W12311   5.639  26.797  18.053 -0.1895 -0.1613 -0.1579
11448W        W12312   3.126  25.947  18.417 -0.3448  0.0144  0.0161
11449W        W12313  10.638   5.270  28.133  0.1391  0.3190 -0.0805
11450W        W12314   9.922  13.167   3.182 -0.0290 -0.1817 -0.0004
11451W        W12315   4.721   9.660  25.372  0.1608  0.1827 -0.1191
11452W        W12316  25.300   5.438  26.934  0.1383  0.0461  0.0549
11453W        W12317  10.099   2.908  16.413 -0.1179 -0.2228  0.0187
11454W        W12318  22.688  12.513  10.923 -0.1697 -0.0972  0.0308
11455W        W12319  26.172  10.678   4.185  0.0132  0.0836 -0.0473
11456W        W12320   4.738  16.647  15.337 -0.2939  0.1326  0.1298
11457W        W12321  21.593  17.162   2.804  0.0391 -0.2811 -0.0351
11458W        W12322  22.020  10.701  16.132  0.2306 -0.0595 -0.0954
11459W        W12323  14.320  10.944   0.860  0.5362  0.0748 -0.3850
11460W        W12324  24.700   1.406  14.592 -0.0792 -0.1990  0.0020
11461W        W12325   2.248  22.712  28.965  0.2753  0.0741  0.1296
11462W        W12326  26.272  28.829  24.298 -0.0288 -0.2826 -0.0544
11463W        W12327  10.836  11.886   6.178 -0.1342 -0.1623  0.1501
11464W        W12328  28.226  23.807   3.600 -0.0052 -0.0355 -0.1430
11465W        W12329  26.266  13.716  21.065 -0.2723 -0.2658  0.2365
11466W        W12330   8.744  11.938  24.780  0.1178  0.2728 -0.0563
11467W        W12331  11.393  13.735   9.509  0.3913 -0.1225 -0.2317
11468W        W12332  26.347   2.319  21.739  0.0776  0.0626  0.0244
11469W        W12333   8.250  27.164  13.911  0.0494 -0.2069  0.0394
11470W        W12334   7.215  13.261  11.553  0.0760  0.0833 -0.0575
11471W        W12335  13.949  20.145  18.777  0.0361 -0.0906  0.0254
11472W        W12336  11.167   1.064  15.135  0.1090  0.0499  0.0303
11473W        W12337  28.197  10.206  16.026 -0.1304 -0.3860  0.0830
11474W        W12338   8.338  15.110  27.284 -0.0943 -0.1902  0.2180
11475W        W12339  24.842  10.248   7.419 -0.3269 -0.1232  0.0238
11476W        W12340   0.196   8.852   8.072 -0.2267  0.3279  0.2483
11477W        W12341  20.321   8.261   7.153  0.1179 -0.3148 -0.2244
11478W        W12342   4.102  14.889  17.369  0.1491 -0.0171  0.0398
11479W        W12343   7.158  16.333  14.153 -0.0240 -0.0332 -0.2061
11480W        W12344  18.569  18.238  22.829  0.2604  0.0647 -0.0152
11481W        W12345   2.692  14.056  11.849 -0.0045  0.0882  0.2627
11482W        W12346   0.270  15.034  26.312 -0.2827  0.0021 -0.0366
11483W        W12347  18.605  22.984  25.449 -0.1961 -0.0717 -0.1072
11484W        W12348  21.440   3.308  11.907  0.2026 -0.2455  0.1057
11485W        W12349   7.959   7.740  20.210  0.1390  0.1766  0.2203
11486W        W12350  27.872  17.714  19.025  0.1383 -0.0609  0.1366
11487W        W12351  15.134  21.314  15.074 -0.0030  0.0020  0.1974
11488W        W12352  23.548   7.961   5.943  0.0703  0.2560 -0.0494
11489W        W12353   8.657   7.251   6.681  0.3056 -0.0784  0.1032
11490W        W12354   6.062   3.889   5.571 -0.2037 -0.1213 -0.0112
11491W        W12355  14.469   8.042  21.143 -0.1552 -0.0039 -0.0683
11492W        W12356   0.379  11.426   7.906 -0.2824  0.2549 -0.2089
11493W        W12357  18.565  24.839  16.050 -0.0639  0.0830 -0.1720
11494W        W12358   6.095   4.065  28.493 -0.0269 -0.2443  0.3549
11495W        W12359   1.769   2.691  12.673  0.0669 -0.0109 -0.2016
11496W        W12360  19.747  26.609  22.015 -0.2464 -0.0622 -0.1523
11497W        W12361  18.923  19.064  10.526 -0.3414  0.3807 -0.1200
11498W        W12362  13.658   7.091  15.356 -0.1349  0.0767 -0.1861
11499W        W12363   2.352  14.402  20.619 -0.1534 -0.2448  0.2711
11500W        W12364  21.945  18.341  21.062 -0.0563  0.0490  0.0703
11501W        W12365   8.210  16.470  18.173 -0.3994 -0.0108 -0.1325
11502W        W12366  10.238   8.894   9.794 -0.1962  0.0662 -0.3303
11503W        W12367  13.247   2.425  28.839 -0.0815 -0.0352  0.0546
11504W        W12368  27.568   9.520   4.448  0.0609 -0.1165 -0.0056
11505W        W12369   8.994   9.411  25.692 -0.0181 -0.1792  0.0311
11506W        W12370   2.925  17.257  17.219 -0.2916  0.1658  0.1298
11507W        W12371  10.781  22.419   5.544 -0.0292 -0.0358  0.2829
11508W        W12372   5.366  13.949  18.853  0.2402  0.1112  0.0552
11509W        W12373   1.387   7.684  25.914  0.1492  0.1211  0.0171
11510W        W12374  28.075   0.296   1.048  0.0996 -0.0245  0.0372
11511W        W12375   0.007  13.755  18.100 -0.0848  0.2098 -0.0024
11512W        W12376   5.155  22.692   5.316 -0.0875  0.1457 -0.0527
11513W        W12377  11.999  23.015   7.688  0.3220  0.1813 -0.1473
11514W        W12378  25.603   9.093   2.850 -0.0104 -0.1322 -0.3269
11515W        W12379  13.764  17.611  19.674  0.2823 -0.0626  0.2078
11516W        W12380   0.080  18.491  21.566  0.1473  0.1053  0.0273
11517W        W12381  22.067  21.257  26.376 -0.0264 -0.0195  0.2086
11518W        W12382  16.126  17.696  27.941  0.0983  0.0698 -0.2504
11519W        W12383  10.067  25.515  18.317  0.1061 -0.1620 -0.0262
11520W        W12384  19.794  27.333  11.136  0.0818 -0.0093 -0.1072
11521W        W12385   8.097   7.414  14.263 -0.3274 -0.1277 -0.0456
11522W        W12386   7.219  26.570  12.116  0.0517  0.2089  0.0150
11523W        W12387   8.323  14.608   6.587 -0.0745 -0.0096  0.0041
11524W        W12388   6.933  28.863   0.724  0.3931 -0.1498 -0.0032
11525W        W12389  25.063   3.385  15.105  0.2060  0.0440 -0.3012
11526W        W12390  26.495   7.592  20.638  0.1143 -0.1916 -0.0589
11527W        W12391  12.700  14.655   3.951 -0.2821  0.1563 -0.1643
11528W        W12392  15.153   4.155  21.755 -0.0964 -0.2172  0.0800
11529W        W12393  13.917  19.530  22.203  0.2842  0.0784 -0.0861
11530W        W12394  19.107  13.511  13.674 -0.1457 -0.1294 -0.0437
11531W        W12395  10.006  12.624  11.003  0.1869  0.0687 -0.1049
11532W        W12396   6.853  17.587   8.733 -0.2061 -0.0207 -0.0329
11533W        W12397   2.340  21.021   8.520 -0.1018 -0.1466  0.2197
11534W        W12398   5.564  20.980  21.530  0.0842  0.0836  0.2318
11535W        W12399   0.487   0.292  12.757 -0.0546 -0.0980 -0.1953
11536W        W12400  27.902   3.267   8.685 -0.1303 -0.0987 -0.3319
11537W        W12401   7.213   7.425  25.055 -0.1620  0.2208 -0.2547
11538W        W12402  27.481  13.214  19.267 -0.0569  0.4152 -0.2555
11539W        W12403  12.288   7.125  25.678 -0.0287  0.0101 -0.2078
11540W        W12404  12.506   8.410  13.498 -0.2123  0.1179 -0.3318
11541W        W12405   4.372   4.224   6.318 -0.1785  0.3331 -0.0799
11542W        W12406   5.034  28.044  26.035 -0.2154  0.4463  0.0759
11543W        W12407  22.081  13.758   3.340  0.2523 -0.2291 -0.0668
11544W        W12408   9.571  22.886  12.700  0.1416 -0.2734  0.2002
11545W        W12409  25.526   7.557  12.784 -0.0783  0.2242 -0.1261
11546W        W12410   0.333  15.225  14.058  0.0904  0.2709  0.0764
11547W        W12411   1.276  16.267  28.941 -0.3849 -0.1977 -0.0738
11548W        W12412   8.943  28.461  23.343  0.0881 -0.2158 -0.0367
11549W        W12413   8.929  11.103   1.091  0.1632 -0.1204 -0.2017
11550W        W12414   3.865  24.365   1.397  0.0269 -0.1351  0.0693
11551W        W12415  27.691  22.156   0.505 -0.2026 -0.0691 -0.0160
11552W        W12416  19.392  15.635   9.021 -0.0292 -0.0037 -0.0208
11553W        W12417   9.016   0.072  22.711 -0.2188  0.2090  0.1166
11554W        W12418  28.155   0.651  24.690 -0.0375  0.2276  0.1536
11555W        W12419  10.194  16.192   7.144 -0.4527 -0.0917 -0.1332
11556W        W12420   5.177  12.542   1.637  0.2135 -0.0097 -0.2201
11557W        W12421   9.859  21.393  17.129 -0.4376  0.0728  0.0210
11558W        W12422   8.717  12.176  12.611 -0.2039 -0.1725  0.1624
11559W        W12423  19.724   6.400   8.409 -0.1919 -0.1051  0.0030
11560W        W12424   4.741  19.428  21.227  0.2045  0.0679 -0.2096
11561W        W12425   2.644   3.152  13.330 -0.0315  0.0882  0.1277
11562W        W12426  14.150  10.646  14.546 -0.2656 -0.0245  0.0191
11563W        W12427   0.115   7.067  13.470  0.0027 -0.1459 -0.1989
11564W        W12428  27.530  26.729  27.273  0.0651 -0.1170 -0.0039
11565W        W12429   4.841  20.679  10.257  0.0894  0.1079  0.1433
11566W        W12430  22.302   5.409   9.197  0.1302  0.0109  0.1040
11567W        W12431   8.587  22.609  21.838  0.0233  0.2461 -0.0155
11568W        W12432  22.390  24.971   7.454  0.1611  0.1695  0.1308
11569W        W12433   0.496   8.447  13.812 -0.2921 -0.3702 -0.1961
11570W        W12434   6.528   4.789  28.771 -0.1018  0.1676 -0.1335
11571W        W12435  24.261  15.548   5.653  0.3633  0.1395 -0.0598
11572W        W12436   1.405   8.600   0.371  0.0593 -0.1112 -0.1441
11573W        W12437   5.878  28.911  20.213  0.0529  0.1221  0.0216
11574W        W12438  10.043  20.498   4.624 -0.3106  0.0039 -0.0853
11575W        W12439   6.614   2.288  19.713  0.0337 -0.2382  0.2253
11576W        W12440   3.169   5.389  27.831 -0.2910  0.1603 -0.1558
11577W        W12441   2.998   1.937  22.750 -0.2222 -0.0311 -0.1323
11578W        W12442   7.645  15.447  21.090 -0.1387  0.0496 -0.3448
11579W        W12443  24.008  22.567  12.883  0.0042 -0.0206 -0.0567
11580W        W12444   4.072  27.975  27.072  0.0696  0.1178 -0.0311
11581W        W12445  28.965  15.495  16.529 -0.4249  0.2608  0.2539
11582W        W12446  13.223   8.396  19.456  0.1407  0.0147 -0.0034
11583W        W12447   5.052  28.391  26.908 -0.2382  0.0865 -0.1187
11584W        W12448  11.399  28.785  12.085 -0.3942  0.3478 -0.2183
11585W        W12449   6.155  22.099   9.353 -0.2907  0.1703 -0.0638
11586W        W12450  18.444  11.982   3.923  0.0614  0.1883 -0.2216
11587W        W12451  13.640  19.634  19.564 -0.2397 -0.2066 -0.0238
11588W        W12452   2.210  19.942  25.840 -0.3091  0.1354 -0.0670
11589W        W12453  28.275  10.768  15.923  0.2166 -0.0379  0.0380
11590W        W12454   3.957  22.594   9.633  0.0160 -0.1600  0.2657
11591W        W12455  15.197   5.772  16.458  0.1620  0.0915  0.0462
11592W        W12456   6.080   2.610  12.189  0.2708  0.0886 -0.1271
11593W        W12457  10.719  27.404  21.266  0.1693  0.0863  0.2871
11594W        W12458   1.888   0.259  24.525 -0.3635 -0.3203  0.1070
11595W        W12459  24.102  17.792  20.971  0.0564  0.2302 -0.0961
11596W        W12460  10.416   2.878  15.946  0.0998 -0.2598  0.0264
11597W        W12461   2.813  21.229   1.512  0.0085 -0.0639  0.1589
11598W        W12462  10.817  28.626  19.720 -0.1893  0.2611  0.1685
11599W        W12463   1.429   8.194   1.618 -0.2186  0.1119 -0.1592
11600W        W12464   3.223  19.120  13.604  0.2289  0.3032 -0.2118
11601W        W12465  20.862  12.005  17.567 -0.1336 -0.0220  0.2282
11602W        W12466   4.516  10.068  13.478 -0.0276 -0.3574  0.1658
11603W        W12467  25.825  10.656  17.863  0.0560 -0.2500 -0.0164
11604W        W12468   3.727  12.351  10.981  0.1500  0.0774  0.1721
11605W        W12469  12.540  11.033  12.045  0.1378 -0.2434 -0.3365
11606W        W12470  10.247  17.609  14.546 -0.4515  0.1204  0.1042
11607W        W12471  21.197   4.132  16.002 -0.0803  0.0167  0.0676
11608W        W12472   9.296  10.429  21.491 -0.2555 -0.2900  0.0337
11609W        W12473  22.641   5.314  10.598  0.2457  0.2200  0.2611
11610W        W12474  22.328  18.610  19.883  0.1530  0.1975 -0.0310
11611W        W12475  23.960   0.078  19.131  0.1677 -0.0118  0.1824
11612W        W12476   5.822  15.079  20.149  0.2337  0.1306 -0.0358
11613W        W12477   6.677   9.954   0.517  0.1224  0.0769  0.0146
11614W        W12478  19.968  28.901  21.795  0.1974  0.0276 -0.0373
11615W        W12479  11.278   1.957  10.182 -0.0552 -0.3546  0.2059
11616W        W12480   4.894  18.307  17.788  0.1088 -0.4088  0.1919
11617W        W12481  12.289  27.241  12.208  0.0639  0.1308  0.0145
11618W        W12482   3.312  18.974  14.394 -0.0981  0.0808  0.3563
11619W        W12483  28.902  16.903   2.710 -0.0569 -0.0842  0.2488
11620W        W12484   9.672   2.412  10.569  0.1368 -0.0530 -0.1703
11621W        W12485   4.969  19.904   6.700  0.2052  0.0854 -0.0608
11622W        W12486  13.134  20.861  17.022 -0.1786  0.1466  0.1389
11623W        W12487  19.051  17.464  26.905  0.0914 -0.2835 -0.2456
11624W        W12488  14.315  17.852  18.353 -0.0604 -0.1937 -0.0653
11625W        W12489  18.661  13.830   3.074  0.0522  0.3349 -0.5266
11626W        W12490   6.974  26.648  12.853  0.1258  0.1481 -0.2471
11627W        W12491   7.169  16.439   3.091 -0.1023 -0.0816 -0.0510
11628W        W12492  16.462  17.969  11.610 -0.0514  0.0154  0.1217
11629W        W12493   9.639  14.595  22.801  0.3422 -0.3078  0.1025
11630W        W12494   8.110  18.069  17.506 -0.0406 -0.2104  0.0340
11631W        W12495  24.269  11.916   4.030  0.0443 -0.0791 -0.0873
11632W        W12496   1.047  22.289  10.139  0.0429 -0.1371  0.4689
11633W        W12497   8.659  10.189   9.794 -0.0236 -0.0079  0.2065
11634W        W12498  10.885  22.976   7.239  0.0096  0.0064  0.0120
11635W        W12499   6.058  20.901  24.809  0.0486  0.0756 -0.1662
11636W        W12500   6.596  10.951  11.617 -0.0874  0.0890  0.0774
11637W        W12501  14.553   6.297   2.736 -0.0911 -0.1642 -0.1184
11638W        W12502   7.675   0.199  21.983  0.0397 -0.0743 -0.1126
11639W        W12503  20.620   3.549  18.711 -0.2926 -0.1443  0.2279
11640W        W12504  26.975  20.202  16.353  0.0320 -0.1467  0.4047
11641W        W12505  20.434   9.273   4.204  0.0799 -0.1713 -0.1560
11642W        W12506  22.285  12.486  19.731  0.3629  0.2145  0.1170
11643W        W12507   2.713  15.823   3.382  0.1659  0.1071 -0.0025
11644W        W12508   0.822  22.416   8.791 -0.0840  0.0399 -0.0118
11645W        W12509   2.368   7.271   7.309  0.1855  0.0963  0.1940
11646W        W12510   3.907  27.917   6.755 -0.0415  0.0785  0.1783
11647W        W12511  19.490   9.849  22.855  0.0255 -0.0920  0.0872
11648W        W12512   4.794  29.136   3.677 -0.0278 -0.0190  0.1754
11649W        W12513  25.336  27.570  27.262 -0.2796 -0.3951  0.0130
11650W        W12514   2.447  20.399  18.819 -0.0485 -0.1494 -0.3001
11651W        W12515   3.286  12.421  25.874 -0.0842  0.3423 -0.0404
11652W        W12516  18.491   3.422  24.939  0.0389  0.0529 -0.0607
11653W        W12517  17.288   8.624   7.387 -0.0957  0.0933 -0.1380
11654W        W12518  18.012  27.438   6.712 -0.0547  0.3109 -0.2565
11655W        W12519   6.306   4.982  10.150 -0.1195  0.3262  0.0839
11656W        W12520  28.570  15.064  20.033  0.4039  0.3437  0.2752
11657W        W12521  24.086  24.639  24.762 -0.1495 -0.1854 -0.0626
11658W        W12522  22.698  24.709  21.345 -0.2645  0.0355  0.1058
11659W        W12523  17.925  22.996   3.878 -0.1189  0.1295 -0.0720
11660W        W12524  23.119   0.351  11.408 -0.1200  0.0276  0.2601
11661W        W12525  26.308   3.826  14.154 -0.0738 -0.2252  0.0066
11662W        W12526   2.578  10.222   8.370  0.1558 -0.1358 -0.2189
11663W        W12527   8.401  20.812  19.845 -0.0285 -0.1719  0.2314
11664W        W12528   9.683   9.289   4.173  0.0354 -0.2068 -0.2085
11665W        W12529  24.486  27.502  22.048 -0.1626  0.1236 -0.2716
11666W        W12530  23.611  18.225   6.783 -0.1949 -0.0825  0.0513
11667W        W12531  16.618   3.671  19.882  0.2831 -0.1597 -0.0304
11668W        W12532   8.974   4.108   8.235 -0.1277  0.0429 -0.0110
11669W        W12533  14.481  23.145   6.892  0.0632 -0.1913  0.0557
11670W        W12534  19.952  19.824  17.388 -0.1211  0.2225 -0.1071
11671W        W12535  11.249  22.797   0.757 -0.2839 -0.2196 -0.2135
11672W        W12536  26.555  18.612  27.818  0.2200 -0.0160  0.2383
11673W        W12537  21.977  24.940  10.484 -0.3491 -0.0603 -0.2435
11674W        W12538   5.653   7.013  10.375 -0.0762 -0.1053 -0.0956
11675W        W12539  22.947  22.106  28.531  0.0206  0.0647 -0.1290
11676W        W12540  10.676   1.511  28.383  0.1250  0.0005  0.2324
11677W        W12541  14.132   4.056   7.968  0.2061  0.2101 -0.1416
11678W        W12542   0.115  24.723  25.001 -0.0138  0.0896  0.0282
11679W        W12543   4.025   4.690   6.391 -0.0025  0.1238 -0.0329
11680W        W12544  13.473  16.019  17.745 -0.0742 -0.1386  0.0871
11681W        W12545   2.734  13.335   7.142  0.0459 -0.1024  0.3767
11682W        W12546  10.974  23.802   1.844 -0.0405 -0.0726 -0.0488
11683W        W12547  21.147  24.565  25.802  0.2968 -0.0463  0.0837
11684W        W12548   7.326   0.159  16.846  0.1415 -0.0538 -0.0517
11685W        W12549  15.964  20.114  14.260 -0.0556 -0.2468 -0.1926
11686W        W12550  26.602  28.259  18.015  0.1103 -0.1943 -0.1523
11687W        W12551  15.901  18.754   5.204  0.1783 -0.1421  0.1522
11688W        W12552   8.654  18.053  11.265 -0.3421 -0.2206 -0.0573
11689W        W12553   4.598  13.521  14.508 -0.0924 -0.5743  0.1702
11690W        W12554   9.174  17.445  11.727 -0.0652 -0.0205  0.0604
11691W        W12555   5.614  17.193  16.041 -0.0744 -0.1108  0.2967
11692W        W12556  25.447  26.713   9.199 -0.0648  0.2887 -0.1224
11693W        W12557  12.754  26.038  12.601 -0.2921  0.0823  0.1932
11694W        W12558   3.075  24.938  17.542 -0.1154  0.2910  0.0363
11695W        W12559  26.173   6.730  19.850 -0.2918 -0.1453 -0.0031
11696W        W12560   1.861  17.457  16.203  0.0001 -0.1196 -0.2255
11697W        W12561  27.321  16.367   7.526  0.2153 -0.1241 -0.2283
11698W        W12562  26.783  12.975   9.666 -0.0193  0.0681  0.1413
11699W        W12563   2.384  16.553  13.871  0.0529  0.0259 -0.3981
11700W        W12564  11.632   6.283  16.684 -0.0140  0.0427 -0.0590
11701W        W12565  18.758  18.402   7.767  0.0944  0.1167 -0.2896
11702W        W12566  19.106   6.791  20.020 -0.0169 -0.1341  0.0068
11703W        W12567  19.860   4.947  10.570 -0.1449  0.1042 -0.0274
11704W        W12568   3.217  14.502  22.642  0.2778  0.3840 -0.0223
11705W        W12569   6.957  23.178   3.711 -0.2849 -0.0967 -0.1298
11706W        W12570  16.259   3.009   7.995  0.1276  0.0924  0.0837
11707W        W12571  24.687  26.293  11.966  0.3404 -0.2088  0.1390
11708W        W12572  23.797  26.083  19.589  0.2916  0.3268 -0.0580
11709W        W12573   8.673  23.250  14.332  0.0162  0.2882 -0.1092
11710W        W12574  28.449  18.939   8.850 -0.1929  0.0565 -0.2155
11711W        W12575  14.659   3.723  18.985 -0.1566 -0.3291  0.3069
11712W        W12576  15.815  22.567   4.367  0.1304 -0.0061  0.0682
11713W        W12577   7.607   4.012   3.906 -0.0621 -0.1805 -0.0429
11714W        W12578  17.758  27.728   7.699  0.2623  0.0914 -0.1771
11715W        W12579   4.681  27.307  20.472  0.1889  0.1670 -0.2078
11716W        W12580   5.137   5.374  24.076 -0.2982 -0.0571  0.1959
11717W        W12581   8.692   4.272   4.116 -0.1212 -0.3944  0.3564
11718W        W12582   3.891  10.047  13.912 -0.0587  0.0201  0.3329
11719W        W12583  19.513  19.306  18.521 -0.1237  0.3028  0.0058
11720W        W12584   4.197  10.961   2.597 -0.0746  0.3759  0.2466
11721W        W12585   4.158   2.569  12.492  0.3726 -0.0901 -0.1637
11722W        W12586  27.850   9.074  22.139  0.2306 -0.1152 -0.3793
11723W        W12587  19.612  16.467  20.401 -0.2716 -0.0468  0.0768
11724W        W12588  15.420  23.695  18.586 -0.0236  0.0720 -0.0821
11725W        W12589  13.068  25.194  22.302 -0.0978  0.2850  0.0652
11726W        W12590   2.139  20.343  22.934 -0.1129  0.1846  0.0368
11727W        W12591   3.035  26.875   2.566  0.2795  0.1731 -0.2670
11728W        W12592   4.342   9.863  21.211 -0.0072 -0.2466 -0.0256
11729W        W12593  28.168  18.413  10.160 -0.1317  0.1466  0.0742
11730W        W12594  10.469   8.498  11.312 -0.2612  0.2924 -0.1428
11731W        W12595  24.798  11.365   4.585 -0.0888  0.0245 -0.2340
11732W        W12596  15.359   8.834  12.220 -0.3426  0.0928 -0.0377
11733W        W12597  26.003   7.482  19.773 -0.2028  0.1036  0.2274
11734W        W12598   2.998  27.082  28.271 -0.2605 -0.0777 -0.2163
11735W        W12599  27.334  19.181   5.950  0.2218  0.0835  0.1883
11736W        W12600  11.952   3.518  26.515 -0.0961  0.1207 -0.0224
11737W        W12601   3.511  25.569  19.314  0.0607  0.0182  0.0481
11738W        W12602  12.888  21.637  14.369 -0.1075  0.1793 -0.1406
11739W        W12603  14.116  25.666   9.858 -0.0254  0.1447  0.2320
11740W        W12604  24.489  13.543  27.407  0.1068 -0.2210  0.3618
11741W        W12605   8.094  17.006   9.443  0.1905 -0.0921 -0.1906
11742W        W12606   3.813  10.968  17.752  0.2140 -0.2153  0.1298
11743W        W12607   8.701  15.392   4.115 -0.0057 -0.0415 -0.0897
11744W        W12608   7.270   8.520   4.176 -0.1576  0.2043  0.0814
11745W        W12609  10.793  18.897  21.243 -0.0122 -0.1746  0.0809
11746W        W12610  28.813  19.141   9.208 -0.2565  0.0403 -0.0115
11747W        W12611   2.975  19.151  27.660  0.2870  0.0036  0.3773
11748W        W12612  27.837  13.091  14.191 -0.0002 -0.0484  0.0125
11749W        W12613   3.353   6.735   1.173 -0.1408 -0.2281 -0.4314
11750W        W12614   5.435  23.267  24.887 -0.0538 -0.3666 -0.1734
11751W        W12615  28.408   2.411  23.665  0.0489 -0.2669  0.1144
11752W        W12616   3.640   9.853  25.285 -0.0089  0.2385  0.1446
11753W        W12617  14.289  19.598   5.641  0.0025  0.1581  0.0886
11754W        W12618  15.251   5.542   5.560  0.0511  0.0561  0.1598
11755W        W12619  21.086   3.851  19.690 -0.1895  0.0889  0.1168
11756W        W12620  20.251   8.375  27.924 -0.0663 -0.0360  0.2649
11757W        W12621  26.229   1.113  18.755 -0.0019  0.3112  0.2536
11758W        W12622   5.278   6.748  24.145  0.0621 -0.2503  0.4340
11759W        W12623  24.794   8.762   0.632  0.2845  0.0129  0.0291
11760W        W12624  22.951  16.729   3.827 -0.0251  0.4804 -0.0266
11761W        W12625  16.663  18.815   8.933  0.0607  0.0909  0.0597
11762W        W12626  24.774  13.157  17.379 -0.1204  0.2964  0.0922
11763W        W12627  17.516  26.733  14.288 -0.0743 -0.2875  0.1428
11764W        W12628   9.067  14.569   3.823  0.0468  0.1156 -0.0066
11765W        W12629  26.720   7.655   1.770  0.3213  0.1387  0.1742
11766W        W12630  16.612  13.216  18.177  0.0683 -0.0957  0.0531
11767W        W12631  27.191   2.697   2.914  0.3657  0.0018 -0.2360
11768W        W12632   2.747   6.693   0.072 -0.1368 -0.2269  0.0976
11769W        W12633   8.347  23.896  10.567 -0.3691  0.0135  0.3378
11770W        W12634  24.986  26.807  23.916 -0.0921  0.1287  0.0423
11771W        W12635  10.845  16.289  23.278 -0.1269 -0.1536  0.1372
11772W        W12636   9.409  21.157  17.897 -0.0390  0.1697  0.1611
11773W        W12637   1.301  22.177  13.828  0.2520 -0.0087 -0.0304
11774W        W12638  21.257  15.638  16.372  0.3483 -0.0762 -0.0014
11775W        W12639   8.244   3.277  24.134  0.0039 -0.0185  0.0715
11776W        W12640  26.774   2.530   0.108  0.1390 -0.0622  0.1668
11777W        W12641   1.880  21.620   7.818  0.0252 -0.0433  0.1536
11778W        W12642  20.613   9.900  25.509 -0.0864 -0.2212 -0.0454
11779W        W12643  22.257  27.847  17.459  0.3528  0.1316  0.2341
11780W        W12644   1.732  25.877  11.523 -0.1697  0.1251  0.3014
11781W        W12645  25.297   5.516  13.692 -0.0040 -0.1677  0.0499
11782W        W12646   5.654   9.942   9.668  0.1068 -0.2706  0.0859
11783W        W12647   1.891  10.559  26.870  0.0994 -0.0067 -0.3020
11784W        W12648  12.105   9.682  18.260 -0.1411 -0.1417  0.0751
11785W        W12649   9.675  22.403  10.968  0.1933  0.1363 -0.2668
11786W        W12650  28.622   9.495  21.687 -0.3433 -0.3480  0.1340
11787W        W12651   5.761   7.774  27.388  0.2344 -0.0366 -0.0707
11788W        W12652  26.965   2.782  13.669  0.3106 -0.0187 -0.0148
11789W        W12653  16.836  19.279  19.665 -0.0253 -0.1762 -0.2070
11790W        W12654   9.331  26.473  12.609 -0.1598  0.3012 -0.0483
11791W        W12655  11.686  12.582  28.276 -0.1956  0.1930  0.0353
11792W        W12656  12.349  11.415  17.131 -0.0394  0.0042 -0.2045
11793W        W12657  21.385   7.587  10.066  0.2056  0.1736  0.1232
11794W        W12658  17.872   7.220  17.199 -0.1174 -0.1002  0.6011
11795W        W12659   4.113  20.403  23.089  0.1573 -0.0885 -0.1985
11796W        W12660  15.123  11.754  19.839 -0.1152 -0.2188 -0.0724
11797W        W12661  16.224  13.229  13.946  0.2268  0.3926  0.2004
11798W        W12662   6.731   8.159  25.465 -0.2038 -0.1075 -0.0757
11799W        W12663   4.473  14.813   4.631  0.1279  0.0091 -0.0698
11800W        W12664  25.891  22.103  20.514 -0.0922 -0.2941 -0.3690
11801W        W12665   7.741  16.145  25.052 -0.1034  0.2617  0.1901
11802W        W12666   8.541   7.532   8.465  0.1113 -0.0784 -0.1286
11803W        W12667   5.666   6.612  21.381  0.2579 -0.1434  0.0959
11804W        W12668  24.317  16.224  22.436 -0.0162  0.1704  0.2496
11805W        W12669   8.571  21.729   6.305 -0.0792 -0.1313  0.1547
11806W        W12670   6.255  18.596  28.288  0.0004 -0.3398 -0.0606
11807W        W12671  24.811   2.167  12.018 -0.1509 -0.1283 -0.1838
11808W        W12672   7.746  16.582  27.504 -0.0026  0.2636 -0.3352
11809W        W12673  22.278   9.461   9.454 -0.0653  0.2093 -0.2048
11810W        W12674  26.311  16.159  28.647 -0.0994  0.0515  0.0245
11811W        W12675  26.538   3.093  24.629 -0.1236 -0.1959  0.0996
11812W        W12676  28.817   4.957  24.067  0.0411 -0.2324  0.1949
11813W        W12677   2.021  17.148  12.808 -0.1897  0.1676  0.0835
11814W        W12678  16.856  27.718  27.059 -0.0714  0.0415 -0.1781
11815W        W12679  23.673  19.047  19.180 -0.1868 -0.1206  0.1795
11816W        W12680   1.738  16.455  15.717 -0.0740 -0.0767  0.0965
11817W        W12681  22.139  13.782  18.020  0.0917 -0.2447 -0.0578
11818W        W12682   3.171  23.480  20.847 -0.0307 -0.1174  0.3324
11819W        W12683   1.632  17.737  23.480  0.0550 -0.0771  0.1692
11820W        W12684  16.898   4.397   9.773  0.0347  0.2530  0.1337
11821W        W12685   8.322  16.277   1.815 -0.2090  0.1541  0.0873
11822W        W12686  24.905  16.068  13.744  0.1126  0.2099  0.2075
11823W        W12687  22.510  27.582  22.590 -0.3516 -0.0151 -0.0086
11824W        W12688  12.835   8.007  17.357  0.1743 -0.0933  0.2234
11825W        W12689  29.088  22.739  18.277  0.1437  0.1777 -0.0799
11826W        W12690  29.041  15.907  22.474  0.1392 -0.1205  0.1224
11827W        W12691  10.114   9.487   4.040  0.2401 -0.1593 -0.3728
11828W        W12692  19.436   0.467   1.477  0.1129 -0.2658  0.2072
11829W        W12693  19.619  16.038   1.685 -0.2388  0.3121  0.1976
11830W        W12694  25.705   9.164  28.604 -0.1097  0.0926  0.3436
11831W        W12695  11.410   0.612  19.662 -0.0649 -0.0140 -0.0516
11832W        W12696  16.853  12.423  17.445  0.1803  0.0305  0.0332
11833W        W12697  15.175   7.987   8.626  0.2525  0.0509 -0.0077
11834W        W12698  11.257  16.131  18.700  0.2228 -0.0707  0.0101
11835W        W12699   5.476   9.947   7.463 -0.2491  0.1411  0.1101
11836W        W12700  18.071  16.731  25.073 -0.0664 -0.3014 -0.0272
11837W        W12701  11.892   3.925  29.107  0.1121 -0.2285 -0.2315
11838W        W12702   7.500   7.652   0.784 -0.0401  0.0821 -0.0259
11839W        W12703  27.426   3.372  28.421 -0.1235  0.1288  0.0675
11840W        W12704   8.177  21.335  21.904 -0.0033 -0.0264 -0.1870
11841W        W12705   2.294  27.572   3.081  0.1009 -0.2171  0.0231
11842W        W12706   8.991   1.401  28.006  0.0474 -0.0201 -0.0523
11843W        W12707  16.175  10.361  11.569  0.1137  0.2714 -0.1177
11844W        W12708   4.637  24.110  10.334  0.0050 -0.0380  0.4335
11845W        W12709  22.225  26.517  11.728  0.2680  0.0367 -0.5248
11846W        W12710   9.371  20.503   4.270  0.3066  0.1170  0.2382
11847W        W12711  25.684   1.097  14.894 -0.4450  0.0812  0.2441
11848W        W12712  13.932   9.833  21.808 -0.2094 -0.1581 -0.1490
11849W        W12713  21.836  18.014  25.078  0.4189  0.3186 -0.0436
11850W        W12714  26.589  21.583  28.582 -0.2480 -0.1681 -0.3293
11851W        W12715  15.941   0.069  19.066  0.2463  0.2088  0.1918
11852W        W12716   7.368  13.911  24.318 -0.2730 -0.3129 -0.2088
11853W        W12717   5.577  21.511  19.868  0.0961  0.0841  0.0571
11854W        W12718  18.030  25.838  15.055  0.0657  0.0561  0.3026
11855W        W12719   1.424  22.387   1.711 -0.3459  0.0485  0.3236
11856W        W12720   2.936  25.597  19.771 -0.0649  0.1515  0.2421
11857W        W12721  18.292   8.706  22.866  0.1709  0.0042  0.0384
11858W        W12722  24.216  21.627  16.871  0.0046 -0.0221  0.2408
11859W        W12723   7.022  25.305  12.969 -0.0706 -0.0237  0.0315
11860W        W12724   7.775  23.569  27.902  0.0820 -0.1849 -0.0176
11861W        W12725   2.132   8.721  19.173 -0.2822  0.1953  0.0879
11862W        W12726  18.559  16.124  17.421 -0.0014 -0.0896 -0.0092
11863W        W12727  25.574  28.704  19.294 -0.0218  0.3626  0.0660
11864W        W12728   1.687  19.885  24.407 -0.0618 -0.0170 -0.1883
11865W        W12729  18.497  16.987  14.975  0.3231 -0.1057  0.1083
11866W        W12730  18.253   8.217  22.103 -0.0825  0.2696  0.0968
11867W        W12731  26.543   7.689  19.329  0.0993  0.0499 -0.0329
11868W        W12732   7.097  16.366   0.496  0.0770 -0.3277 -0.0320
11869W        W12733   5.445   7.814  10.989  0.0384  0.1099 -0.0694
11870W        W12734   7.613   1.298   8.078  0.3373 -0.2776 -0.3927
11871W        W12735   0.075   9.147  12.260  0.2087  0.1112 -0.0816
11872W        W12736  22.143  10.346  16.718  0.3787 -0.4798  0.1697
11873W        W12737  19.541  16.477  26.252  0.2894  0.1909  0.1656
11874W        W12738  24.676   9.407  25.484  0.1425 -0.2142 -0.2340
11875W        W12739  21.921  16.377  19.707 -0.1461  0.2711  0.0594
11876W        W12740   2.413  12.194   1.392 -0.1657  0.0632  0.0438
11877W        W12741  28.174  11.141   8.149  0.4145 -0.2381  0.1179
11878W        W12742  13.337   4.770  26.242 -0.1320 -0.1036 -0.2213
11879W        W12743   6.867   3.397   8.105  0.1826  0.0811 -0.1920
11880W        W12744  12.868   9.227  17.254 -0.1106 -0.0781 -0.0693
11881W        W12745   7.391   2.643   2.472 -0.0574  0.3643 -0.1791
11882W        W12746   9.350  10.907  23.775 -0.1597  0.2252 -0.0320
11883W        W12747  23.517  19.148  27.106  0.0082  0.1505  0.3722
11884W        W12748  27.893   6.556   0.531 -0.0524  0.2576 -0.2163
11885W        W12749  27.143   9.876  21.480  0.2527  0.0641 -0.0253
11886W        W12750  14.690  14.370  12.319 -0.0555  0.2340 -0.2093
11887W        W12751   4.839   8.034   0.188 -0.0390  0.1891 -0.1550
11888W        W12752   9.790  11.364   0.510 -0.0826 -0.2874  0.2740
11889W        W12753  17.737   1.260  23.236 -0.1123  0.1607  0.0315
11890W        W12754   4.645  14.103   0.833  0.0515 -0.2855  0.0243
11891W        W12755   8.443  13.266  21.363 -0.0576  0.0496 -0.1776
11892W        W12756   0.034   8.240  21.083  0.1549  0.0342 -0.1609
11893W        W12757  12.108  24.409  22.151  0.2064  0.3208  0.3272
11894W        W12758  14.720  10.402   1.484  0.1213  0.0826  0.2057
11895W        W12759   6.915   8.426  15.073 -0.1122 -0.0879 -0.0672
11896W        W12760   7.727  15.566  18.325 -0.0966  0.1692  0.1409
11897W        W12761   2.129  10.929  16.056  0.3146 -0.4468  0.1352
11898W        W12762  25.094   6.432  16.819 -0.0365  0.0935 -0.2360
11899W        W12763   6.850   0.544   9.088 -0.0012 -0.0099 -0.3000
11900W        W12764   4.189  22.706   1.650  0.3534  0.1257  0.0191
11901W        W12765   4.837  25.356  24.334  0.0345 -0.2291 -0.1373
11902W        W12766  13.031  21.852  20.052  0.1215  0.0057 -0.2537
11903W        W12767  12.961  10.599  14.508 -0.3244 -0.1893  0.0674
11904W        W12768   8.411  10.826   6.402 -0.0193 -0.0385  0.0753
11905W        W12769   1.156   9.717  18.517 -0.0025 -0.1544 -0.1568
11906W        W12770  17.300  13.865  10.489 -0.1610  0.0265  0.0351
11907W        W12771  26.020  21.381   0.650 -0.1403  0.2178 -0.0624
11908W        W12772   4.380   1.156   4.905  0.0268 -0.1684 -0.2652
11909W        W12773   0.401  19.687  19.520 -0.1187  0.1803  0.1480
11910W        W12774  12.044  23.814  26.209 -0.1548  0.2426 -0.1431
11911W        W12775  28.600  15.816   4.866 -0.0484 -0.1847 -0.0426
11912W        W12776  28.793  26.556  17.715  0.2320 -0.3214  0.0677
11913W        W12777  25.038  14.278  20.676 -0.2818  0.2954  0.0718
11914W        W12778   8.733  12.203  12.072 -0.0657  0.1374 -0.1209
11915W        W12779   5.060   9.087   6.328  0.0392  0.0539 -0.0741
11916W        W12780  28.287   5.720  24.224  0.1898 -0.2313  0.0934
11917W        W12781   4.380   8.384  12.512  0.2304  0.0356 -0.0121
11918W        W12782   7.886  17.863   5.693  0.2245 -0.1947  0.0815
11919W        W12783  28.938  20.019  18.652  0.3581  0.1219 -0.0265
11920W        W12784  23.473  16.652  21.999 -0.0167 -0.2856  0.0442
11921W        W12785   0.302  22.474  23.108 -0.1936 -0.0009 -0.1811
11922W        W12786  19.788  20.326   5.715 -0.1488  0.1214 -0.0014
11923W        W12787  20.410  10.812  18.702  0.0622 -0.0309 -0.1117
11924W        W12788  28.135   2.544  28.703 -0.0962 -0.3713  0.0948
11925W        W12789  18.434  15.979  23.824 -0.0406 -0.0961  0.1649
11926W        W12790   2.741  21.319  12.119  0.2042 -0.2523  0.5046
11927W        W12791  26.763  28.286   8.877  0.2638  0.0642 -0.3118
11928W        W12792  12.480  10.637  10.430 -0.1404 -0.3718  0.0751
11929W        W12793  11.701  11.969   3.058  0.1183 -0.0141  0.1210
11930W        W12794  16.024  18.545  10.757 -0.0284 -0.0220 -0.0104
11931W        W12795  21.788  16.821  19.348  0.1762 -0.2015 -0.2105
11932W        W12796  28.380  23.168  18.435 -0.2338 -0.0302 -0.1043
11933W        W12797  24.930  12.257   3.687  0.1678  0.1112 -0.0449
11934W        W12798  23.488   8.886  10.424 -0.0255  0.0305 -0.1058
11935W        W12799  21.304  25.030  18.747  0.0196  0.0404 -0.2661
11936W        W12800   2.684  17.402  18.869 -0.2783 -0.0295  0.1855
11937W        W12801  21.854  24.154   5.148  0.0917  0.2249  0.1772
11938W        W12802   8.949   5.206  11.271  0.3836 -0.0578  0.0546
11939W        W12803   6.244  11.120  19.216 -0.0403  0.0477  0.2775
11940W        W12804  16.895  23.362  16.644  0.2613  0.1498 -0.1903
11941W        W12805   0.345   3.702  18.016 -0.3472  0.0243 -0.0728
11942W        W12806  23.605   2.689  13.983  0.0231 -0.0537 -0.3661
11943W        W12807   9.774  22.808  23.973  0.1875 -0.3091  0.1217
11944W        W12808  16.992   9.822  12.555  0.1941 -0.0616 -0.0970
11945W        W12809   3.011  11.681  11.113  0.1839 -0.1170 -0.0529
11946W        W12810  25.290   7.579  25.323 -0.1157 -0.1029  0.2174
11947W        W12811   4.938  19.026  13.166 -0.1407 -0.0703  0.2877
11948W        W12812   1.382  20.287  21.551  0.3917  0.1660  0.1161
11949W        W12813   4.574   8.888  21.297  0.1447  0.0199  0.0711
11950W        W12814   9.192  18.637  20.885  0.0788  0.1290 -0.2045
11951W        W12815  24.384  12.912   8.595  0.1123  0.0639 -0.2157
11952W        W12816  26.752   8.444  13.434  0.1218  0.0421  0.1360
11953W        W12817  21.696  11.356   1.369  0.1145 -0.0199  0.0453
11954W        W12818  27.296  16.396   1.528  0.2221  0.1124 -0.3062
11955W        W12819   5.472  26.618  27.617  0.2723 -0.0591  0.1338
11956W        W12820   0.909   4.577  15.620  0.1399 -0.1088  0.0686
11957W        W12821  15.645  27.131  21.010 -0.1481 -0.1922  0.1066
11958W        W12822   2.232  16.644  14.411 -0.1097  0.0654 -0.0853
11959W        W12823   8.107  10.118  19.584 -0.0563  0.0325 -0.2789
11960W        W12824  24.593  28.019  17.671 -0.1331  0.0530 -0.0327
11961W        W12825   7.835  12.000   7.024 -0.1215 -0.0832 -0.3015
11962W        W12826  10.825  19.047  21.718 -0.3442  0.2840 -0.0892
11963W        W12827   4.445  23.167  23.695  0.1196  0.2105  0.1639
11964W        W12828  24.634  15.602   3.535 -0.0208 -0.3573 -0.0682
11965W        W12829   2.402   0.252  15.663  0.3581  0.0219 -0.1743
11966W        W12830  26.100  23.336  18.362 -0.2061 -0.0427  0.2656
11967W        W12831   6.500  11.108  26.560 -0.2549 -0.1640 -0.0427
11968W        W12832  27.807   4.393  15.696  0.0258  0.0611 -0.1531
11969W        W12833   6.260  21.301   0.523 -0.0919  0.0782  0.1727
11970W        W12834   9.028  18.624  25.188  0.2539  0.0354  0.0134
11971W        W12835  14.476  26.909  16.541  0.1434  0.1590 -0.2241
11972W        W12836  25.836  27.946  13.981  0.1758 -0.1601 -0.0370
11973W        W12837  23.810  13.545  13.659  0.1778  0.4796  0.0640
11974W        W12838  29.115  17.008   3.149  0.1447 -0.2105 -0.0482
11975W        W12839  24.668  17.595  23.657 -0.2754 -0.1929  0.2979
11976W        W12840   4.997  12.324  15.386 -0.0321  0.0298  0.0292
11977W        W12841  11.937  10.384  24.847  0.0273  0.1954 -0.1836
11978W        W12842   3.401  18.274   8.274  0.4303 -0.0001 -0.0300
11979W        W12843  11.704   2.824   9.324 -0.2172 -0.0427 -0.0805
11980W        W12844   3.685   1.331  20.842  0.0857 -0.0785  0.1013
11981W        W12845   3.382   2.215  12.260 -0.0291  0.0723 -0.1001
11982W        W12846   2.359  15.071  21.733 -0.0677  0.0569  0.2045
11983W        W12847   2.883   4.683  13.700  0.0167 -0.1739 -0.4332
11984W        W12848   2.892  23.026   9.270 -0.1101  0.0087 -0.1553
11985W        W12849  27.021   9.679  24.180 -0.0335  0.0471 -0.1110
11986W        W12850   4.824  18.725  27.267  0.0892  0.1773 -0.2307
11987W        W12851   8.132  26.303   5.951  0.0172 -0.0145  0.2842
11988W        W12852  17.107  23.956   0.887 -0.1417  0.2576 -0.0179
11989W        W12853   5.257  27.021  12.186 -0.1864  0.1459 -0.0876
11990W        W12854  16.697  19.415  25.939 -0.1833  0.2085  0.0875
11991W        W12855  25.633   9.856   6.343  0.0542 -0.3208  0.0816
11992W        W12856  16.995  15.046  26.801  0.2324  0.1469  0.2505
11993W        W12857   4.388   6.831  26.148  0.1948 -0.0008  0.1582
11994W        W12858   6.135  28.842   0.344  0.0885  0.0979  0.0703
11995W        W12859  21.741  11.686   8.337  0.0142 -0.2221 -0.1494
11996W        W12860   7.848  18.106  24.790  0.1149  0.1426  0.0784
11997W        W12861   0.493   3.970  22.743  0.0389  0.2389 -0.1710
11998W        W12862   5.805  27.880  25.446  0.3776  0.1063 -0.0624
11999W        W12863  20.316  10.404   0.120 -0.2257  0.1578 -0.0548
12000W        W12864   1.045  16.011  18.337 -0.0095  0.0842  0.0736
12001W        W12865  17.936  18.184   1.573 -0.2941 -0.1017 -0.0055
12002W        W12866  28.913  12.087   9.453  0.2915  0.0245 -0.2556
12003W        W12867  28.068  23.389  20.970  0.1605  0.2336 -0.1411
12004W        W12868  13.412  19.080  14.046 -0.1457 -0.1306  0.2202
12005W        W12869  28.976  10.282   7.460 -0.1500  0.2377 -0.4766
12006W        W12870   5.596  16.114  18.049  0.2948 -0.1420  0.0089
12007W        W12871  15.827  11.127   7.279 -0.0530 -0.0391 -0.1614
12008W        W12872   1.175   2.199  20.899  0.1462 -0.0591 -0.5734
12009W        W12873  26.675  20.823  24.764  0.0448  0.0261  0.5109
12010W        W12874  16.646   1.698  27.546  0.0401  0.1622 -0.1988
12011W        W12875   6.839  15.028  19.175 -0.2542  0.1956  0.1521
12012W        W12876  20.345  15.378   0.707  0.3847 -0.0220  0.1246
12013W        W12877  24.744  21.838  19.568 -0.0363 -0.1667  0.2272
12014W        W12878   6.183  12.144  16.869 -0.2165  0.0714 -0.1737
12015W        W12879  10.733  21.444  20.569 -0.0799 -0.1147 -0.1572
12016W        W12880  17.688  29.055  26.735  0.0677  0.1168 -0.0924
12017W        W12881  23.743   6.435  21.266  0.2562  0.1167  0.0803
12018W        W12882   9.727  28.045   2.657  0.1907 -0.1195 -0.0054
12019W        W12883  21.052   3.686  24.830  0.0644 -0.0627  0.1484
12020W        W12884   9.711  29.016  12.676  0.1227 -0.2461 -0.1173
12021W        W12885  28.235   3.141   7.197  0.3372  0.0643 -0.0418
12022W        W12886   0.880   7.246  25.842 -0.2821 -0.1504  0.0633
12023W        W12887  27.491  14.354  13.869  0.1303  0.1389 -0.1507
12024W        W12888  22.662  13.500   3.430 -0.1564  0.0027 -0.1327
12025W        W12889   5.218  16.174  24.969  0.4184 -0.0743  0.0633
12026W        W12890   9.927   8.525  28.966  0.0539 -0.0124 -0.0638
12027W        W12891  24.350  15.348   1.833 -0.1232 -0.2044  0.0758
12028W        W12892  22.688   8.075   0.436  0.0053  0.3290 -0.0391
12029W        W12893   9.304  24.065  14.858  0.3168  0.1679  0.0154
12030W        W12894  10.929  16.192   2.733  0.0530  0.0530 -0.1389
12031W        W12895  22.673  12.510  25.398  0.0971  0.0371 -0.4179
12032W        W12896  25.504  26.919  28.693 -0.3098 -0.0267 -0.1011
12033W        W12897  24.203  24.580  10.513 -0.0133 -0.0313  0.0797
12034W        W12898  11.228  24.253  13.509 -0.0497 -0.0038 -0.0597
12035W        W12899  19.450  12.026  21.219  0.2162  0.0102 -0.0303
12036W        W12900  22.866  19.879  27.281  0.0018 -0.0694 -0.0404
12037W        W12901   8.863  18.962  15.136 -0.2797 -0.2932  0.1958
12038W        W12902   2.658   1.112  17.115  0.0417 -0.3187  0.2976
12039W        W12903  26.414  21.457   6.101 -0.0152 -0.3051 -0.0533
12040W        W12904   8.798  15.875  26.237 -0.3257  0.2612  0.3066
12041W        W12905   6.742  22.198  28.607  0.2162 -0.3417  0.2337
12042W        W12906  24.754   5.724  17.789 -0.0001  0.2347  0.0799
12043W        W12907  12.684  12.662  17.360 -0.0784 -0.2233 -0.0886
12044W        W12908  23.349   2.019  18.065 -0.0784  0.0384 -0.0814
12045W        W12909  10.559   0.941  12.651  0.1394  0.1100  0.0636
12046W        W12910  16.188  15.364   5.582 -0.1268  0.0210 -0.2075
12047W        W12911  18.792  11.749  13.526 -0.0796 -0.2797 -0.1728
12048W        W12912  22.528  13.163  10.221 -0.0244 -0.0327 -0.0834
12049W        W12913   5.490  23.453  11.152 -0.1331 -0.3688  0.0552
12050W        W12914  27.998  21.877  25.762 -0.1600  0.2291  0.3043
12051W        W12915  28.891   7.598   2.160 -0.2946 -0.1708  0.0048
12052W        W12916   5.942  17.386  18.940 -0.0926  0.1427 -0.0857
12053W        W12917  17.236   4.343  15.159  0.0848  0.2121 -0.0710
12054W        W12918   8.078  15.727  10.110 -0.0662  0.0267  0.3453
12055W        W12919   6.243  20.569  27.911 -0.0797 -0.0088 -0.1805
12056W        W12920  23.649  20.680   7.684 -0.4351  0.0050  0.1837
12057W        W12921  21.245  12.412  15.586  0.0381  0.0605 -0.0444
12058W        W12922  12.732  11.973  24.165  0.2540  0.2059 -0.0044
12059W        W12923   2.298  17.313   5.776 -0.0800 -0.1610  0.0602
12060W        W12924  27.163  26.664  24.548 -0.1691 -0.0852  0.3342
12061W        W12925   9.839  18.452   8.655  0.2351 -0.0468  0.0681
12062W        W12926   4.419   8.714  25.037 -0.2817  0.0757 -0.1866
12063W        W12927   1.316  12.053  13.417  0.0997  0.0280 -0.1158
12064W        W12928   9.052  19.896  17.425 -0.0978 -0.0790  0.4048
12065W        W12929  22.871  21.701  24.411 -0.0273 -0.0133  0.3901
12066W        W12930   3.326  26.064   5.821 -0.1905 -0.0838 -0.0723
12067W        W12931  28.728  10.165  22.906  0.0438 -0.2055  0.3619
12068W        W12932  26.387  18.931  28.578 -0.0759 -0.0629  0.4449
12069W        W12933   0.665   9.595  21.057  0.4327  0.0136 -0.1323
12070W        W12934  12.251  18.960  20.597  0.1997  0.0797 -0.3150
12071W        W12935  10.315  12.795   6.113 -0.1013 -0.0354 -0.1082
12072W        W12936  20.577   6.800  17.468  0.3549  0.2838 -0.0048
12073W        W12937   2.286  10.370   1.644  0.1704 -0.0786  0.2797
12074W        W12938   8.685   7.876   2.474 -0.2910  0.2295  0.0088
12075W        W12939  13.168   8.267  17.737 -0.0783 -0.2087  0.1644
12076W        W12940  13.598   7.720  22.497 -0.1499  0.1144 -0.2266
12077W        W12941  13.901  27.898  23.700 -0.0850 -0.0997 -0.2914
12078W        W12942  19.091   6.631  23.169  0.4232  0.0801 -0.0431
12079W        W12943  10.720   5.096   8.673  0.4176 -0.0319  0.5408
12080W        W12944  22.961  26.067  18.670  0.0973 -0.1567  0.0365
12081W        W12945   4.941  17.929  24.689  0.1633 -0.1519 -0.1072
12082W        W12946  17.727  13.074  13.280  0.0884  0.1788  0.2009
12083W        W12947  10.659  19.570   0.378  0.0693 -0.0742 -0.1229
12084W        W12948  16.250  15.562   2.256 -0.1000  0.1872 -0.2227
12085W        W12949  27.402  26.421   2.738  0.0595  0.2748  0.0979
12086W        W12950  23.759   5.215  17.201  0.1521  0.0944  0.1324
12087W        W12951  15.298   0.872  27.479 -0.0866  0.1771  0.1365
12088W        W12952   0.224  10.145  21.829  0.0674 -0.2356  0.1415
12089W        W12953   6.370  23.103  19.242 -0.0316 -0.1927  0.2225
12090W        W12954  26.554  19.476  19.716  0.4474 -0.2968  0.3088
12091W        W12955  23.217  18.586  17.210 -0.1096 -0.0660 -0.4150
12092W        W12956  24.840  18.170  16.547 -0.1046  0.1132 -0.2700
12093W        W12957  20.871  15.997   0.756  0.1646  0.2301 -0.0666
12094W        W12958  24.060   2.813   2.745  0.2415 -0.3575 -0.0038
12095W        W12959  27.596  11.153   1.561  0.1367  0.0434 -0.1953
12096W        W12960  14.311  26.322  13.874  0.1632  0.0103 -0.1846
12097W        W12961   1.187   5.655  23.785 -0.1779 -0.0721 -0.1468
12098W        W12962  15.914  28.300   3.693  0.2962 -0.0243  0.0395
12099W        W12963   1.277  21.356  11.861  0.1054  0.5539 -0.3313
12100W        W12964  27.781  19.703  19.129 -0.2963 -0.0405 -0.2931
12101W        W12965  29.020  27.777  15.796  0.0026 -0.1210 -0.0611
12102W        W12966  12.802   7.783   7.191  0.1520  0.2671 -0.0190
12103W        W12967   9.562   7.259  21.487  0.1045 -0.1427  0.0524
12104W        W12968  11.164  11.520  16.400  0.1262  0.0411 -0.1472
12105W        W12969  13.258  19.736  19.208 -0.0628 -0.1783  0.1479
12106W        W12970  27.866  12.574  28.411  0.1463  0.4686  0.1022
12107W        W12971   7.104   2.759  26.424  0.2342  0.0933  0.3096
12108W        W12972  20.228   7.329  24.672  0.4007  0.0472  0.3017
12109W        W12973   4.415   9.696  21.711 -0.1262 -0.0615 -0.1967
12110W        W12974   4.373   8.891  25.916  0.1994  0.3421 -0.1746
12111W        W12975  26.224   0.233   1.152  0.1068  0.0733 -0.1930
12112W        W12976   1.252  26.149  13.577 -0.0454  0.0948 -0.3132
12113W        W12977   3.240   4.297  13.578 -0.0907  0.2497 -0.3248
12114W        W12978   3.583  13.636  18.383  0.0714  0.0865  0.1179
12115W        W12979  12.544  14.635  23.813 -0.0659 -0.0016 -0.0498
12116W        W12980  13.497  19.141  17.513  0.0092  0.0253  0.1929
12117W        W12981  14.812  18.192  22.791  0.1716  0.1351  0.0246
12118W        W12982  27.019  12.964  28.329 -0.3483 -0.2276  0.0739
12119W        W12983  23.645   4.260  22.817  0.1541 -0.0870  0.2327
12120W        W12984  23.873   7.593  15.688 -0.0380  0.2970  0.2406
12121W        W12985  29.099   5.039  21.976  0.1941 -0.1021  0.0534
12122W        W12986  11.337  25.255  14.428 -0.0860  0.1016 -0.0945
12123W        W12987   1.203  27.427  21.945  0.0722  0.1433 -0.0115
12124W        W12988   5.931  17.295  12.452  0.0824  0.0174 -0.0592
12125W        W12989   0.836   8.116   5.059 -0.0272  0.0506  0.2894
12126W        W12990  16.759  14.840  24.670 -0.1047 -0.1551  0.2037
12127W        W12991  24.698   8.386  29.005 -0.4184 -0.0200  0.0588
12128W        W12992   4.933  13.754  25.880  0.1569  0.4388 -0.1148
12129W        W12993  15.257  13.676  15.451  0.1549  0.0348  0.3072
12130W        W12994   2.539  21.921  17.791 -0.1859  0.1193 -0.0597
12131W        W12995   9.538   9.227   5.516 -0.0857  0.0638  0.1067
12132W        W12996  10.168  28.766  17.413  0.0302  0.0231  0.0676
12133W        W12997   8.051  18.945  10.299  0.1028 -0.0159  0.2234
12134W        W12998  15.728  11.233   6.744 -0.0717 -0.0026 -0.0067
12135W        W12999  19.049  13.942  17.617 -0.1773  0.0128 -0.1641
12136W        W13000   6.818  13.938   1.435  0.1698 -0.1717 -0.0405
12137W        W13001   0.520  22.469  26.745  0.2173 -0.0336 -0.0545
12138W        W13002  21.163  15.910  20.001  0.0044  0.5329  0.0532
12139W        W13003   0.459  23.486  12.373  0.2413 -0.3293 -0.0473
12140W        W13004   7.825   2.508  22.562  0.1684  0.0382  0.0734
12141W        W13005  15.783  14.702  22.063 -0.1009 -0.2042  0.1688
12142W        W13006  22.193  16.157  24.683  0.2204 -0.0973  0.1611
12143W        W13007   7.304   5.141   0.799 -0.1393 -0.1478 -0.0112
12144W        W13008   9.719  12.290  25.785  0.4064  0.0583  0.0765
12145W        W13009   4.913  20.215  11.714  0.2263 -0.4439  0.0554
12146W        W13010   1.432   9.976  23.990  0.0278  0.0463 -0.1360
12147W        W13011  19.956   8.283  15.880  0.3812 -0.0829  0.3865
12148W        W13012  10.884   8.311  24.347 -0.0873 -0.1603 -0.0857
12149W        W13013  19.031   1.644  24.279 -0.0044 -0.0777  0.1508
12150W        W13014  23.010   3.952   9.981  0.0409 -0.1787  0.5790
12151W        W13015   0.210  21.382   2.905  0.1397 -0.1102 -0.3217
12152W        W13016  20.282   2.514  11.180 -0.2430 -0.0215  0.0850
12153W        W13017   5.817  14.516   5.230  0.1800  0.2417 -0.0881
12154W        W13018  18.550  12.861  12.684  0.2184  0.0672 -0.2332
12155W        W13019   2.794  19.799  22.897 -0.0928 -0.0510  0.1249
12156W        W13020  17.700  23.708   5.956 -0.1352  0.1319 -0.0902
12157W        W13021   6.035  13.178  24.018 -0.2176 -0.3571 -0.0250
12158W        W13022  27.195   0.331  14.402 -0.2513  0.1089  0.0430
12159W        W13023   1.091   1.473  24.333 -0.1389  0.0254 -0.1741
12160W        W13024   8.640  13.836  21.218  0.0895 -0.0403 -0.0846
12161W        W13025  16.941  26.896   5.377  0.0007 -0.2164 -0.0799
12162W        W13026  12.796  25.195   1.331 -0.4164 -0.0789  0.1856
12163W        W13027  13.606  12.521   5.986 -0.0524  0.2892 -0.1054
12164W        W13028  12.566  11.629   5.730  0.0893 -0.2203  0.0734
12165W        W13029  15.142  17.316  22.411  0.1434 -0.2104  0.0590
12166W        W13030   1.321   5.188  26.010  0.0002  0.0456 -0.2979
12167W        W13031   2.729  26.812  27.909  0.0542 -0.3087 -0.1624
12168W        W13032  14.354  16.015  12.755 -0.0189  0.0736  0.1265
12169W        W13033  17.269  17.066  26.285 -0.2536 -0.0704  0.2020
12170W        W13034   8.278  13.689  21.594  0.1931 -0.1546  0.1125
12171W        W13035  22.912  20.480  26.731 -0.0472  0.2722  0.0090
12172W        W13036   7.161  14.156   0.879  0.3123 -0.0137  0.3280
12173W        W13037  25.102  17.359   8.853 -0.0855 -0.6293  0.5035
12174W        W13038  25.543  18.126  15.456 -0.0793 -0.0835  0.0724
12175W        W13039   9.625  15.566  28.823  0.0633 -0.0106  0.1005
12176W        W13040  24.950  14.636   3.670  0.3516  0.1245 -0.0508
12177W        W13041   2.508   2.066  24.693 -0.1546  0.1358 -0.0067
12178W        W13042   0.354  14.493  10.624  0.1622  0.2877  0.4642
12179W        W13043   5.224   6.650   2.028 -0.0713  0.0532  0.2055
12180W        W13044  29.026   7.715  28.215  0.2035  0.0413  0.0177
12181W        W13045  27.914   9.072  19.893 -0.0006  0.0374  0.1783
12182W        W13046   9.778  23.902  23.315 -0.0985 -0.0975 -0.0004
12183W        W13047   5.554   2.581  21.451 -0.0116 -0.0208 -0.1694
12184W        W13048  20.451  17.114   2.052 -0.1554  0.2191 -0.1235
12185W        W13049  21.742  25.373  19.492 -0.1873 -0.0346 -0.1252
12186W        W13050  13.774  13.247  26.068  0.2101  0.0929 -0.1626
12187W        W13051  15.393   6.743  29.076  0.0401 -0.0436  0.0534
12188W        W13052  20.369  23.231  26.868  0.2180 -0.1941 -0.0295
12189W        W13053  27.222  18.354  21.997  0.0797  0.2769 -0.0840
12190W        W13054  20.512  24.630  22.186 -0.0169 -0.1715  0.3169
12191W        W13055   4.184  11.968  13.568  0.1111 -0.1955  0.1017
12192W        W13056   6.766  24.857   3.225  0.0775 -0.1018  0.2148
12193W        W13057  20.408  18.374  18.137 -0.0230 -0.0852 -0.2537
12194W        W13058   5.735   7.800   8.599 -0.0919 -0.5357 -0.0762
12195W        W13059  21.142  19.249  28.088  0.0249  0.0137 -0.3294
12196W        W13060   3.694  11.155  10.583  0.1566  0.1597  0.3779
12197W        W13061  28.231  16.539  25.731  0.3074 -0.1540  0.1655
12198W        W13062   1.839  19.081  23.849 -0.1269  0.4698 -0.1239
12199W        W13063  27.496  18.716  16.611  0.1270  0.1499 -0.2322
12200W        W13064   6.169  25.260  11.478  0.0334 -0.1983 -0.0861
12201W        W13065  10.421  14.293  18.241 -0.0913  0.2900 -0.2892
12202W        W13066  16.412  20.355  16.148  0.1647  0.1707 -0.4256
12203W        W13067  24.792  16.191   1.034 -0.2074  0.1077 -0.1277
12204W        W13068  26.070  12.012  18.002  0.1421  0.0888  0.2178
12205W        W13069  26.406  15.772   9.256 -0.1206  0.0950 -0.3419
12206W        W13070   0.798   7.391  24.134 -0.0991  0.1035 -0.1808
12207W        W13071  28.006   4.756  10.730 -0.0690 -0.1179  0.0284
12208W        W13072  21.401   9.474  27.202 -0.2220 -0.2407  0.2159
12209W        W13073  26.473  26.156  18.699 -0.0042 -0.0213  0.1856
12210W        W13074  19.817   3.470  17.168 -0.2501  0.0019  0.1458
12211W        W13075  16.608  11.164  25.665  0.0905 -0.0252  0.1121
12212W        W13076   2.663  23.994  13.401  0.1736 -0.0415  0.2280
12213W        W13077   9.545   6.725  16.356 -0.1222 -0.0325 -0.1332
12214W        W13078   2.103  13.624  21.031 -0.0949 -0.0431  0.1883
12215W        W13079   3.453  11.620  24.474 -0.1193 -0.0505 -0.0926
12216W        W13080  24.884  10.770  22.394 -0.2891 -0.1915 -0.0732
12217W        W13081   1.861  11.013  24.871 -0.3079 -0.0768  0.1158
12218W        W13082  21.955  21.187  12.353  0.1028 -0.5332  0.0995
12219W        W13083  28.839  16.224  23.431 -0.0692 -0.1274 -0.3106
12220W        W13084   9.915  11.568  23.653 -0.0243 -0.3441  0.1019
12221W        W13085  12.077  20.689  12.599  0.0295 -0.2734 -0.0434
12222W        W13086   3.544  10.490  19.219 -0.1827 -0.0675  0.3928
12223W        W13087   2.593  26.815  28.438  0.1956 -0.2163 -0.2837
12224W        W13088  10.660  13.499  28.033  0.0903  0.1801  0.1628
12225W        W13089  20.893  25.553   4.207  0.2876  0.0289 -0.1286
12226W        W13090  12.307  20.241  16.957  0.0072 -0.4016 -0.0969
12227W        W13091  24.659  22.188   3.791  0.3944  0.2607  0.2941
12228W        W13092   5.938  25.238   7.785  0.2392 -0.0098  0.0726
12229W        W13093   7.258   2.387   2.868 -0.1697 -0.3387 -0.1078
12230W        W13094   7.701  23.466  25.441  0.1691  0.0045 -0.2271
12231W        W13095   2.550  11.527  29.022  0.4174 -0.0373 -0.0504
12232W        W13096  15.797  27.830   0.236  0.0940 -0.1738 -0.0689
12233W        W13097  14.373   2.274   1.726  0.1865 -0.0976  0.1836
12234W        W13098   4.026  21.801  12.479 -0.3468 -0.2908  0.1136
12235W        W13099  28.641   3.026  10.095  0.2280  0.1622 -0.1138
12236W        W13100  12.074  11.145  24.740  0.2218  0.3757  0.2848
12237W        W13101  20.586   7.535   3.069  0.2175 -0.1978  0.1171
12238W        W13102  12.814  24.126  21.042  0.1881  0.0867 -0.0832
12239W        W13103  24.819   7.117   3.418  0.2549  0.0987 -0.2084
12240W        W13104  11.157  15.690  24.745 -0.0146  0.0026  0.1245
12241W        W13105   6.970   9.654  21.050 -0.0667 -0.1580 -0.1464
12242W        W13106  12.448   9.695   9.695 -0.1515  0.0867 -0.0014
12243W        W13107  27.670   2.267   5.634  0.3645 -0.1581 -0.2809
12244W        W13108   2.809   8.647  19.779  0.3435 -0.1012  0.0824
12245W        W13109  23.962  26.671  22.042 -0.0927 -0.0663  0.2033
12246W        W13110  20.716  11.162  25.637 -0.3118  0.1197  0.2561
12247W        W13111   3.125  21.583  23.568 -0.4110 -0.2776  0.1654
12248W        W13112   5.718   4.386   6.819  0.2536  0.1975  0.0816
12249W        W13113   5.175  28.469   5.670 -0.2369  0.0963  0.2342
12250W        W13114  11.206   1.429   3.799  0.0485  0.1964  0.0353
12251W        W13115  25.247   6.152   8.208 -0.1363  0.0942 -0.3125
12252W        W13116  21.447   8.746  17.678  0.3086  0.3953 -0.0242
12253W        W13117   5.394  12.677  10.933 -0.2234  0.3103  0.0546
12254W        W13118  22.151  16.918  23.847 -0.3711  0.2611 -0.0517
12255W        W13119  27.922  12.062  17.224 -0.1418  0.1069  0.2260
12256W        W13120   0.032  27.961  14.448 -0.0096 -0.1851  0.3092
12257W        W13121  20.907  19.687   5.161 -0.3701  0.2912 -0.2371
12258W        W13122  29.094  25.950  14.450  0.0348 -0.1421  0.0393
12259W        W13123  23.623  28.724  23.645  0.0108 -0.1845  0.0601
12260W        W13124  10.803   3.908  10.491 -0.1106 -0.0763  0.1270
12261W        W13125  19.974  25.717  13.725 -0.1641  0.1332 -0.1445
12262W        W13126  16.614   5.310  23.559  0.2416 -0.0284 -0.0241
12263W        W13127  15.514   5.603  14.094 -0.4901  0.1397  0.2892
12264W        W13128  25.152   7.873  19.931 -0.3594 -0.3001 -0.1713
12265W        W13129   0.735  24.599  16.058  0.1781 -0.0312 -0.2194
12266W        W13130   7.155   1.565  19.426 -0.3633  0.0393  0.1504
12267W        W13131  22.266  24.223  28.628 -0.2618 -0.0046  0.3144
12268W        W13132  19.880  17.380   2.535  0.3579  0.2406 -0.0946
12269W        W13133  23.847   1.988  10.780 -0.0668  0.2241  0.1821
12270W        W13134   4.785  11.291  22.883 -0.0033  0.0627  0.0536
12271W        W13135   5.335  20.040  20.268  0.0295  0.5077  0.1279
12272W        W13136   4.941   5.400  15.430  0.0462 -0.0380  0.1925
12273W        W13137   1.328  15.447   8.362 -0.1172  0.1223 -0.1543
12274W        W13138  17.543  17.666  12.375  0.1945 -0.1279  0.0489
12275W        W13139   9.503  24.615  25.770 -0.0701 -0.1320 -0.1720
12276W        W13140  14.266  18.031  27.568  0.0530  0.1665 -0.2134
12277W        W13141  16.927  22.381   2.023 -0.0577 -0.1642 -0.3538
12278W        W13142  15.353  17.169   8.321  0.0754  0.0906  0.1761
12279W        W13143   1.939  25.852  19.845 -0.0377  0.1949  0.0729
12280W        W13144  26.419  14.421  17.376 -0.2228 -0.0400 -0.0912
12281W        W13145  22.496  17.557   9.235 -0.1169 -0.2809  0.1039
12282W        W13146   3.721  15.015   1.702  0.1626  0.2128  0.3049
12283W        W13147  27.747  23.901   0.331  0.0131  0.2619  0.1229
12284W        W13148  28.923   6.000  26.397  0.0367  0.0781  0.3146
12285W        W13149   4.663  28.859  24.500 -0.1254 -0.1124  0.0154
12286W        W13150  27.687   1.608  13.445 -0.2813 -0.2453 -0.0042
12287W        W13151  26.545   4.930  26.541 -0.0480  0.2285  0.1132
12288W        W13152  24.521  13.630  12.247  0.3064  0.2728 -0.0641
12289W        W13153   0.461  19.216  20.549  0.1510 -0.0071 -0.2253
12290W        W13154   5.010   7.194   5.636 -0.0153 -0.0877 -0.2249
12291W        W13155   3.662   9.228  10.800  0.0394 -0.1010 -0.1311
12292W        W13156   4.253  10.225  19.597  0.0023 -0.1539  0.2428
12293W        W13157  19.477  26.923   8.415 -0.2681 -0.1485 -0.1417
12294W        W13158  19.287  28.950  18.645  0.1212  0.1622 -0.0003
12295W        W13159  18.721  10.198  13.741  0.3880 -0.0008  0.0703
12296W        W13160  22.832   0.818  13.205  0.0282  0.2748  0.3033
12297W        W13161  16.806  16.526  21.963 -0.0287  0.0066 -0.0139
12298W        W13162  27.670  27.354  28.062  0.1002  0.3880 -0.1102
12299W        W13163  10.005   6.324  22.942  0.0062  0.1602  0.3015
12300W        W13164   2.089   8.451  10.998  0.1080 -0.0544 -0.0533
12301W        W13165  24.101  26.404   2.628  0.4961 -0.4471  0.0515
12302W        W13166   5.308  13.512  21.879  0.0931  0.1143  0.0498
12303W        W13167  21.161   7.016  26.159 -0.0502 -0.2210  0.3545
12304W        W13168   1.002   8.161  23.515 -0.4970  0.0494  0.0742
12305W        W13169   4.444   3.779  25.588  0.2757 -0.2238 -0.1575
12306W        W13170   0.825  26.925  14.169 -0.2515  0.0030 -0.0074
12307W        W13171  18.404   9.722   0.187 -0.1917  0.1775  0.0363
12308W        W13172  20.473  17.588  12.736  0.2854 -0.0565  0.0371
12309W        W13173  10.798   4.721  22.194  0.1419  0.1748 -0.0150
12310W        W13174  27.336  18.006   0.195  0.1754  0.0727  0.0213
12311W        W13175   8.782  10.366  13.475 -0.1219  0.2280  0.2614
12312W        W13176  28.581  12.777  12.862 -0.1883  0.1071  0.1260
12313W        W13177  20.029  14.249  23.899  0.0987 -0.1035  0.2476
12314W        W13178   7.716   3.568  11.812 -0.2685 -0.0859  0.1666
12315W        W13179   8.187  19.593  13.907 -0.1072  0.1396  0.2111
12316W        W13180  12.769  10.693   8.273 -0.3549  0.1760  0.1642
12317W        W13181  11.918  20.768  21.822  0.0424  0.1864 -0.0467
12318W        W13182  26.091   4.999  16.714  0.2811  0.3128  0.1238
12319W        W13183   3.313  15.304   8.025  0.0136  0.0327  0.1441
12320W        W13184  19.337  25.579  24.038 -0.1681  0.0096  0.1208
12321W        W13185   5.923   3.062  26.401  0.0742 -0.1935  0.1442
12322W        W13186   3.507  17.040   4.515 -0.0887  0.4590  0.2034
12323W        W13187   5.884   8.579  12.472 -0.0040 -0.0215 -0.1997
12324W        W13188   6.303   4.369  26.449  0.2415  0.1082 -0.1913
12325W        W13189  17.731  13.143  21.542 -0.1098 -0.0594 -0.1400
12326W        W13190  25.612   2.773  28.669  0.0138 -0.0168  0.1120
12327W        W13191   5.087   5.962  17.252 -0.0209 -0.2115 -0.0820
12328W        W13192  23.223  18.285  22.526 -0.1351  0.1398  0.2149
12329W        W13193  25.237  20.051  23.795  0.2006  0.3390  0.0153
12330W        W13194  27.218   1.400  20.746 -0.1726 -0.2851 -0.2402
12331W        W13195  27.000   7.541   3.364 -0.1029  0.1165 -0.2241
12332W        W13196  24.075  23.751  10.186 -0.2580  0.0225 -0.0671
12333W        W13197  13.830   0.155  26.457 -0.2928 -0.0667 -0.0230
12334W        W13198  10.536  11.231   6.138 -0.2008  0.0206  0.2324
12335W        W13199  22.182  13.321   0.418  0.1206  0.1365 -0.0498
12336W        W13200   0.486   3.725  27.540 -0.0319 -0.2277 -0.3625
12337W        W13201   1.715   1.747  25.221 -0.1180  0.2211  0.0772
12338W        W13202   5.589  29.020  12.088 -0.3679  0.1094 -0.3500
12339W        W13203   3.997   9.953  10.311  0.1391 -0.0848  0.1760
12340W        W13204   6.965  23.390   0.481  0.1317  0.3083  0.0772
12341W        W13205   2.741  12.677   2.234 -0.0603  0.0516  0.2492
12342W        W13206  10.126  12.356  24.906 -0.0864  0.5694 -0.0867
12343W        W13207  11.620   4.363  26.621 -0.4409  0.1662 -0.1500
12344W        W13208   1.086  28.474  20.886 -0.1377 -0.0060  0.1208
12345W        W13209   7.251  12.058   4.399  0.2397  0.1550  0.4995
12346W        W13210  24.193   1.297  11.187  0.4757 -0.0601  0.1144
12347W        W13211  13.606  11.138   0.435 -0.1868 -0.1278 -0.0222
12348W        W13212  20.736  28.130   4.744 -0.1810 -0.1326 -0.0745
12349W        W13213   6.641  10.916  24.844  0.1791  0.0711 -0.3491
12350W        W13214  18.746  15.961   9.878  0.0290 -0.1526 -0.3486
12351W        W13215  27.043  16.726  24.403  0.5415  0.1305  0.2637
12352W        W13216   4.993   1.152   3.437  0.0251  0.0694  0.0191
12353W        W13217  16.663  18.731  21.719 -0.0625  0.2701  0.2321
12354W        W13218  22.681   8.727  21.027  0.1603  0.1364  0.1214
12355W        W13219   2.674  20.501  17.945  0.1301  0.0305  0.0802
12356W        W13220  12.302  22.892  27.251 -0.0371  0.0459  0.0559
12357W        W13221  28.819  12.714  19.469 -0.1347 -0.0828 -0.1314
12358W        W13222   2.614   7.382  19.593  0.0366  0.2996 -0.1954
12359W        W13223   2.504  27.744  14.747 -0.0362 -0.1789 -0.0777
12360W        W13224  28.673   0.103  25.133  0.0740  0.2763  0.0281
12361W        W13225  27.319  12.458  15.723  0.0480  0.0847 -0.0591
12362W        W13226   3.851  16.970  25.549 -0.0142  0.2077  0.0396
12363W        W13227   8.984   5.753  26.652  0.2688 -0.3022 -0.3583
12364W        W13228  23.928  24.324  26.998 -0.1159 -0.0649 -0.3104
12365W        W13229  28.487   4.727  16.779  0.1976  0.0607  0.1523
12366W        W13230  19.674   7.408  16.399 -0.1101  0.1540 -0.3052
12367W        W13231   8.481   7.745   4.433 -0.1613 -0.0683  0.2364
12368W        W13232  13.532  21.534  12.223  0.1463 -0.1617  0.0635
12369W        W13233  24.872  18.806  23.432 -0.3007 -0.0074  0.4134
12370W        W13234  20.101   1.001   2.929  0.2036 -0.2849  0.1520
12371W        W13235  12.321  23.479  18.439  0.1110 -0.0384  0.3558
12372W        W13236  24.926  16.873  23.086  0.0456  0.4882  0.2332
12373W        W13237  11.896  24.110   6.737  0.1467  0.1596  0.2660
12374W        W13238   4.314  18.400  13.713  0.0212  0.1991 -0.3617
12375W        W13239   7.812  25.831   2.846  0.0036  0.0264 -0.0566
12376W        W13240  28.764   5.383  12.426 -0.1057  0.2239 -0.0507
12377W        W13241   0.001  19.209  23.222 -0.0928  0.1173 -0.1635
12378W        W13242  15.747  27.861  22.741  0.1057  0.0878  0.0739
12379W        W13243  26.627  23.950   6.167 -0.1491 -0.2101 -0.0411
12380W        W13244  17.789  21.892  22.597  0.0554 -0.0374  0.1252
12381W        W13245   0.586  24.542   3.344  0.1542  0.0082  0.1227
12382W        W13246  25.203  26.559  28.974 -0.0095  0.3223 -0.2462
12383W        W13247  12.033   7.455  23.503  0.2871 -0.2130  0.1554
12384W        W13248  25.097  15.787  27.161  0.5786 -0.0859  0.0042
12385W        W13249   0.325   4.540  23.223 -0.1773  0.0787 -0.3470
12386W        W13250  10.899  17.784  24.826  0.0057  0.0989 -0.0918
12387W        W13251   5.390   5.267   3.077  0.1599  0.0827  0.0994
12388W        W13252  14.110  19.129   5.679  0.4264  0.1318 -0.0380
12389W        W13253  18.219  24.056  13.611 -0.4011  0.0535 -0.3951
12390W        W13254   9.601  25.852  25.081  0.3377 -0.2577  0.2622
12391W        W13255  21.591   8.427  24.561  0.2633 -0.2075  0.1525
12392W        W13256   6.006  20.116  27.054  0.2330  0.1217 -0.1132
12393W        W13257  26.291  18.860   6.738 -0.3648 -0.2427  0.2171
12394W        W13258  19.837  15.774  21.423  0.0301  0.1109  0.1360
12395W        W13259  29.055   6.247  23.481  0.1426 -0.0743 -0.0842
12396W        W13260  19.975  27.780  24.823 -0.0214  0.1059  0.0132
12397W        W13261  26.739  16.647  23.319 -0.0880  0.3312  0.4204
12398W        W13262  13.389  26.274  19.018 -0.1431  0.0749 -0.2373
12399W        W13263   7.331   9.175  26.114 -0.2329  0.0828  0.1482
12400W        W13264   8.837   5.476   0.056 -0.2022  0.0304 -0.0469
12401W        W13265  24.352  11.371  21.710  0.0402  0.1808  0.0037
12402W        W13266  22.047  15.127  28.490  0.0118  0.0080 -0.0883
12403W        W13267   8.166  27.945  16.474 -0.0491  0.0863  0.1245
12404W        W13268   4.745  23.794   9.884 -0.0518  0.1681 -0.0479
12405W        W13269  26.588  22.830   6.243  0.1058  0.0594  0.0976
12406W        W13270   8.225  28.155   6.847  0.1538 -0.3838 -0.0020
12407W        W13271  15.929  11.170  24.166  0.0593 -0.0715  0.1602
12408W        W13272   3.480  13.905   1.502 -0.0425 -0.0212 -0.1741
12409W        W13273  25.053  21.343  15.232 -0.1350  0.0964 -0.1865
12410W        W13274  22.409   0.326   9.828 -0.1289 -0.0289  0.0627
12411W        W13275  24.329  17.602   3.888  0.3472  0.3439 -0.0443
12412W        W13276  26.602  16.953  22.902 -0.0057 -0.0721 -0.2213
12413W        W13277   9.846   7.733   5.967 -0.3126 -0.0746 -0.0442
12414W        W13278   0.741  20.399  28.497 -0.3085 -0.3535  0.0804
12415W        W13279   5.356  14.640  16.668  0.2678 -0.0821  0.0272
12416W        W13280  13.216  21.436  28.056  0.4141 -0.0160  0.1795
12417W        W13281   0.739  11.521  20.847 -0.1931  0.1689 -0.1041
12418W        W13282   5.101  22.852  15.839 -0.0989 -0.0823 -0.0151
12419W        W13283  14.366  16.223  26.350  0.1655  0.3023 -0.1624
12420W        W13284  12.534   8.971  21.871  0.0396  0.1907  0.1518
12421W        W13285  21.887  26.538  28.589  0.1370 -0.0302  0.2878
12422W        W13286   9.458  12.027   6.188  0.1360 -0.1749 -0.1953
12423W        W13287  21.992  12.831  17.749  0.0650 -0.2279 -0.2079
12424W        W13288   8.825  18.700  18.839  0.0075 -0.0997  0.1994
12425W        W13289   5.710  18.196   6.532 -0.0468  0.0674 -0.0370
12426W        W13290   4.552  11.612  14.283 -0.2178 -0.3795  0.2349
12427W        W13291  25.007   6.468  20.631  0.0211 -0.3183 -0.2112
12428W        W13292   5.171  15.945  23.957  0.0739  0.3255  0.1388
12429W        W13293   6.370  13.521   5.624  0.0066  0.0521  0.3977
12430W        W13294   3.326   3.945  21.586 -0.2373 -0.1020  0.1583
12431W        W13295  20.161  15.567  20.442 -0.1134  0.0357 -0.0788
12432W        W13296  28.134  13.613   2.664 -0.0632 -0.0814 -0.1632
12433W        W13297  23.279  10.639   3.315 -0.2811 -0.0098  0.1008
12434W        W13298  27.643   7.419  28.519  0.3043  0.1979  0.0791
12435W        W13299  23.547  22.819  21.494 -0.0511  0.1502  0.1733
12436W        W13300  27.875  26.499  23.233  0.0257 -0.1677  0.2383
12437W        W13301   1.993   4.910   7.299 -0.0414 -0.0502  0.0977
12438W        W13302   6.023   2.554  18.152 -0.0162 -0.1482  0.1091
12439W        W13303   0.752   4.735  18.985 -0.1136  0.0945 -0.0014
12440W        W13304  25.839  10.572  10.933  0.2620  0.2477  0.1772
12441W        W13305  14.849  12.925  10.524 -0.1968  0.1716 -0.4112
12442W        W13306  21.380   3.065  16.108 -0.0894  0.3890  0.2868
12443W        W13307  24.339  18.851  24.488 -0.2184  0.0984  0.0383
12444W        W13308  25.319  17.158  23.223 -0.0939  0.1517  0.0991
12445W        W13309   1.650  21.039   1.068 -0.0747  0.3130 -0.2946
12446W        W13310   4.351  14.950   1.070 -0.0106  0.1733  0.3034
12447W        W13311   4.907  16.470  19.025  0.0012 -0.0871  0.1269
12448W        W13312  10.682  12.694   3.098  0.0336 -0.0626  0.0576
12449W        W13313   0.189   9.595  19.801  0.1302  0.2819 -0.2127
12450W        W13314  12.185  10.593  15.731  0.3031  0.2082 -0.1765
12451W        W13315   2.054   7.451  14.935 -0.0828 -0.3635 -0.1282
12452W        W13316  23.611  24.593  12.192 -0.1774 -0.3651  0.0138
12453W        W13317   7.410  11.363  21.308 -0.1760  0.1544 -0.1795
12454W        W13318  11.327  24.414  11.374 -0.4103  0.1117 -0.1890
12455W        W13319   5.931   6.876   3.355  0.3505 -0.0212  0.0626
12456W        W13320  16.433  12.013  14.150  0.1627  0.0911 -0.0635
12457W        W13321  25.934  18.905  27.202  0.1454  0.1615  0.0088
12458W        W13322  15.768  10.104   7.568  0.1162 -0.0202 -0.1586
12459W        W13323  28.728   6.876   5.591 -0.1983 -0.0012 -0.0349
12460W        W13324   4.533  19.828  28.217  0.3072 -0.0483 -0.0326
12461W        W13325  25.373  21.970   6.343 -0.2242 -0.4906 -0.0411
12462W        W13326   6.520  16.936  14.514  0.2254  0.2107 -0.1462
12463W        W13327  22.743  28.102  18.804 -0.0357  0.1662 -0.1045
12464W        W13328  18.735  11.782   0.535  0.2521  0.0762  0.1989
12465W        W13329  18.371   7.644  23.567  0.0262 -0.5618 -0.3394
12466W        W13330  28.838  19.254  16.554 -0.1204 -0.1093  0.2417
12467W        W13331  14.068  14.751   6.765  0.2409 -0.0207  0.2986
12468W        W13332   4.433  15.637  17.507  0.1239  0.1478 -0.0505
12469W        W13333   5.384  17.665  14.787 -0.2640  0.2659 -0.0920
12470W        W13334  10.786  20.728   5.923  0.0493  0.1584  0.2005
12471W        W13335  28.425  12.571  19.913 -0.2170  0.2418  0.0511
12472W        W13336   6.186  21.006  26.304 -0.1099 -0.2865 -0.0310
12473W        W13337  24.608  11.076   8.174  0.0156  0.0323  0.1233
12474W        W13338  28.769  20.131   0.938 -0.1078  0.0399  0.0799
12475W        W13339  13.537   1.301  16.002 -0.1729 -0.0395  0.1051
12476W        W13340  26.769  13.382  16.829  0.0335  0.0991 -0.0249
12477W        W13341  28.730  10.747  21.147  0.2518  0.0416 -0.4022
12478W        W13342  15.613   8.775  27.744  0.0382  0.3148  0.1036
12479W        W13343  17.326  27.490  19.600  0.4166  0.0335 -0.1136
12480W        W13344  19.701  17.670  22.176 -0.1253  0.0196 -0.2504
12481W        W13345  27.667   4.815   5.249  0.0786 -0.0604  0.1519
12482W        W13346  18.348  11.545  25.710 -0.0918 -0.0427  0.3185
12483W        W13347  15.557  26.438  27.905  0.1338  0.0656 -0.2289
12484W        W13348  23.438   9.318  13.508  0.0027  0.2140  0.1986
12485W        W13349   0.727   0.759   6.263 -0.0951 -0.0428  0.1231
12486W        W13350   3.334  17.610  14.013  0.0378 -0.1327 -0.1552
12487W        W13351  27.690  18.590   9.594 -0.2425 -0.3690  0.1209
12488W        W13352  10.965  12.674  23.481 -0.1299 -0.2145 -0.0556
12489W        W13353  24.839  15.582   1.019  0.4775  0.3464 -0.0813
12490W        W13354  13.209  21.823  28.483 -0.1192 -0.1735 -0.0069
12491W        W13355   9.876  18.001  23.221 -0.2626  0.0584  0.1717
12492W        W13356  22.732  13.835  21.223  0.1528  0.0560 -0.1069
12493W        W13357  22.581  20.620  17.599  0.0554  0.0880 -0.1463
12494W        W13358  27.165  28.849  18.863  0.0456 -0.2141 -0.1247
12495W        W13359  14.851   8.016  24.471 -0.0095 -0.2943  0.0953
12496W        W13360  27.329   9.780  21.924  0.2219 -0.1286 -0.0601
12497W        W13361  15.500   7.095   2.786  0.0049  0.1689  0.1258
12498W        W13362   2.160  28.131   1.359 -0.3191  0.1943 -0.1841
12499W        W13363  22.419  11.801  23.683 -0.0500 -0.0035  0.1250
12500W        W13364   8.653  19.082  26.612 -0.1212 -0.2686 -0.1632
12501W        W13365   2.034  19.039  14.991 -0.1108 -0.0916 -0.2344
12502W        W13366   3.313  17.285  15.055  0.1509 -0.1272 -0.1297
12503W        W13367   6.962  20.870  20.835 -0.0413  0.0311 -0.3781
12504W        W13368  28.552  21.603  14.688  0.0268 -0.1553 -0.0887
12505W        W13369  20.747  10.375  16.012 -0.1057 -0.2333  0.1525
12506W        W13370   5.454   9.717  23.736 -0.3569 -0.3133  0.2345
12507W        W13371   7.551  14.499   0.082 -0.0234 -0.2776  0.1029
12508W        W13372   2.564   5.925   4.586 -0.0110 -0.2263  0.0028
12509W        W13373  25.932  23.590  24.929 -0.1392 -0.0468 -0.0369
12510W        W13374  28.792  21.231  15.584 -0.0097  0.0927 -0.0518
12511W        W13375  24.208  28.505   7.532  0.2687  0.2520  0.1897
12512W        W13376   1.429  12.891  22.730  0.0910 -0.0331  0.1188
12513W        W13377  15.572   9.113   7.569  0.0198 -0.1364 -0.2006
12514W        W13378   3.901  26.354  10.324  0.3129  0.1338  0.1658
12515W        W13379  19.609   6.837  14.591  0.1845  0.1068  0.3534
12516W        W13380  26.556  12.122  23.416  0.1331 -0.0752  0.2696
12517W        W13381   0.583  22.723  24.539 -0.2319  0.1556  0.0576
12518W        W13382  28.716  24.347  27.219  0.2355 -0.0559  0.1264
12519W        W13383  16.621  24.230   0.689 -0.1576 -0.0202  0.0961
12520W        W13384  10.660  10.076  12.103  0.1867 -0.1408  0.3028
12521W        W13385   1.972  13.613   1.600  0.0313 -0.0024  0.0032
12522W        W13386  12.617   7.550  24.196 -0.0098 -0.1747  0.1940
12523W        W13387  20.714  21.330   5.194  0.3385  0.2661  0.2097
12524W        W13388   3.335  18.909  25.597  0.2172  0.0000 -0.1161
12525W        W13389  13.188   5.504   2.716 -0.3465  0.0981  0.2250
12526W        W13390  24.994  25.770  27.609  0.0163 -0.2350 -0.2024
12527W        W13391  28.509  24.977  21.712  0.1519  0.3638 -0.2180
12528W        W13392   6.470  24.678   7.254 -0.0560 -0.0405 -0.0643
12529W        W13393  10.388  20.623  18.068 -0.0146 -0.0639  0.2015
12530W        W13394  21.000   1.424   2.005 -0.2125  0.1215 -0.2824
12531W        W13395  22.015  15.243  24.485 -0.1848  0.2089  0.1136
12532W        W13396  19.847  11.269   2.357 -0.2198  0.1940 -0.0911
12533W        W13397  18.543  23.056   7.408  0.1053 -0.0931 -0.1676
12534W        W13398   9.897  22.105   8.116 -0.0970 -0.3241  0.1435
12535W        W13399  28.073  17.100  26.866 -0.1355 -0.0259  0.2676
12536W        W13400   0.822  19.449   4.479  0.1265  0.1451  0.0380
12537W        W13401   7.494  16.199  23.803 -0.0213 -0.2002 -0.0228
12538W        W13402   5.098  16.142  10.662  0.1208 -0.0049 -0.3295
12539W        W13403  18.457   9.137   2.900  0.3970 -0.0203  0.3144
12540W        W13404  26.935   2.289  12.667  0.1254  0.3111 -0.1795
12541W        W13405   3.757  12.331   1.067  0.2551 -0.1265 -0.1812
12542W        W13406   2.279   1.546  26.858 -0.2055 -0.0043  0.0700
12543W        W13407  25.773  27.377  21.990 -0.0818 -0.1725  0.1073
12544W        W13408   1.028  15.738  16.043  0.1698 -0.2504 -0.1271
12545W        W13409  28.006  12.231   9.513  0.1217  0.1540 -0.0553
12546W        W13410  13.653  13.190  19.399  0.1723  0.3693  0.1085
12547W        W13411  10.719   4.164   8.641  0.0770 -0.4039 -0.1138
12548W        W13412   9.533  23.398  18.698 -0.0526  0.1338  0.0698
12549W        W13413  26.634  29.085   6.245 -0.0112 -0.3223  0.0243
12550W        W13414  20.577  28.035  16.386 -0.1530  0.1227 -0.0153
12551W        W13415  28.003   7.971  11.311  0.0585 -0.0601 -0.0743
12552W        W13416  16.034  27.343  27.949 -0.2145 -0.2077  0.0864
12553W        W13417  15.478  16.581  20.644 -0.2203 -0.2351  0.2245
12554W        W13418  10.623   1.671  28.843 -0.0707  0.0854  0.0045
12555W        W13419   4.730  17.322  23.938  0.1746 -0.0153 -0.1284
12556W        W13420   8.000  13.396  23.912 -0.1823 -0.2559 -0.1614
12557W        W13421  27.258  21.176  22.899  0.1855 -0.1079  0.2538
12558W        W13422   7.494  19.718  11.846  0.4010 -0.1518  0.1331
12559W        W13423   0.759   5.694  15.298 -0.0436 -0.2490 -0.0133
12560W        W13424   6.492   8.947   4.700  0.1987  0.0610  0.2033
12561W        W13425   3.122  15.635   9.789  0.0912  0.0530 -0.0474
12562W        W13426   1.575  13.101  15.628 -0.1002  0.0488 -0.1138
12563W        W13427   3.310   9.868  16.620  0.2083  0.1400 -0.1864
12564W        W13428  12.323  12.865  11.300 -0.1792 -0.0785  0.3673
12565W        W13429   0.213  21.366   0.436  0.2066 -0.1247  0.1216
12566W        W13430   1.001  14.236   6.863  0.0962 -0.0502  0.0021
12567W        W13431  14.999  24.398  11.189 -0.1940  0.0041  0.3848
12568W        W13432   9.769  17.166   4.610 -0.1044 -0.1092 -0.1119
12569W        W13433  17.299  23.532   4.921 -0.0645  0.0505 -0.0784
12570W        W13434   9.487  24.717   1.362  0.0446  0.3424  0.1840
12571W        W13435  23.391   5.132   3.134 -0.4808  0.0688 -0.1200
12572W        W13436   4.812   8.973  27.952  0.2545  0.3056 -0.1342
12573W        W13437   4.953   1.916  27.221  0.2672 -0.1004  0.1504
12574W        W13438   1.832   5.899  27.987  0.1300 -0.3632  0.3849
12575W        W13439   3.652  14.678  15.438  0.1914 -0.1584 -0.0664
12576W        W13440   0.900  17.209  24.553  0.0389 -0.1021  0.1481
12577W        W13441  10.384   5.590  14.177 -0.1154  0.1856  0.0420
12578W        W13442  18.705  11.579  26.214  0.1425 -0.0654 -0.0538
12579W        W13443  25.734  18.041   3.883 -0.4585  0.3758  0.1621
12580W        W13444  28.762  11.694  11.466  0.3767 -0.0521  0.0419
12581W        W13445   2.271  14.126  19.308  0.2672 -0.0947 -0.2272
12582W        W13446   9.756   7.093  10.787 -0.1992 -0.1347  0.1509
12583W        W13447   4.503  17.198   4.782 -0.0211 -0.1949  0.0399
12584W        W13448  12.910   6.752  15.116 -0.0544  0.1257 -0.0015
12585W        W13449  27.952  13.970  23.212 -0.1826 -0.0721 -0.2968
12586W        W13450   0.540  19.738  26.129  0.0325 -0.0572  0.1046
12587W        W13451   4.602  19.308   4.260 -0.2995 -0.1640  0.2488
12588W        W13452  17.157   8.068  16.920 -0.3067  0.1346  0.0450
12589W        W13453  14.205  10.545   0.554 -0.2062 -0.0671  0.1618
12590W        W13454  25.636   0.390  23.236  0.1695  0.0578 -0.1731
12591W        W13455   3.833  19.349  20.687 -0.3421 -0.2336 -0.2819
12592W        W13456   2.259  22.287   1.092  0.3338  0.1064  0.0543
12593W        W13457  26.372  13.170   9.450 -0.2446  0.1023 -0.2337
12594W        W13458   3.262   8.126  24.411  0.1620  0.2496  0.1349
12595W        W13459  28.953   9.767  12.837 -0.0889  0.1792  0.0692
12596W        W13460   5.739   0.070  21.744  0.0351 -0.1138  0.1305
12597W        W13461   1.427  16.937  18.316 -0.0362  0.4281 -0.0281
12598W        W13462  28.871   3.802  16.468  0.1606 -0.0516 -0.6156
12599W        W13463  15.439  23.752  28.199  0.0961  0.0229 -0.1514
12600W        W13464   0.365  26.727   1.577  0.0418  0.0543 -0.1973
12601W        W13465   9.004   2.048  12.398 -0.0051 -0.2385  0.1756
12602W        W13466  26.275  25.126  15.433 -0.3370 -0.4281 -0.0059
12603W        W13467   8.927  16.583  21.617 -0.0129 -0.1156 -0.3454
12604W        W13468  12.940  12.986   8.314  0.1032  0.6726 -0.1236
12605W        W13469  24.406   4.647  26.634 -0.2099  0.3017  0.2622
12606W        W13470  10.485  14.860   1.826 -0.0676  0.0710  0.2144
12607W        W13471   7.498  17.734  28.304 -0.0899  0.1750 -0.1606
12608W        W13472  10.156   8.469  27.941 -0.3156 -0.0873 -0.0105
12609W        W13473  12.626  27.294  15.650  0.0667 -0.0151  0.0373
12610W        W13474   2.644  28.281   6.336  0.0743  0.1184  0.0972
12611W        W13475   0.223  23.337   3.867 -0.1989  0.1153 -0.3299
12612W        W13476  22.002  27.471  18.288  0.0883  0.0081 -0.1228
12613W        W13477  21.085  17.757  10.838 -0.3628 -0.1220  0.1628
12614W        W13478  27.254  18.092  28.701 -0.2763  0.1583  0.0703
12615W        W13479   1.869   2.988  24.576 -0.2588  0.1125 -0.0224
12616W        W13480  16.705  27.096  15.448  0.0689  0.1191  0.3917
12617W        W13481  20.359  26.586  20.874  0.1219 -0.0123  0.2741
12618W        W13482  17.835  20.839   8.398  0.3087 -0.0471  0.0422
12619W        W13483  16.297  16.143  24.517  0.0042 -0.1548 -0.0666
12620W        W13484  25.969  20.791   3.437 -0.2621  0.0774  0.1049
12621W        W13485   0.808  14.245   2.807 -0.0009 -0.1326  0.3119
12622W        W13486   9.468  16.917   8.451 -0.0289 -0.1499 -0.0273
12623W        W13487  26.796   1.057   4.492  0.3191  0.3163  0.0181
12624W        W13488   4.290  19.970   7.598 -0.1593  0.0233 -0.1527
12625W        W13489  21.970  14.794  11.863  0.2056  0.0583  0.2135
12626W        W13490   5.378  16.214  12.851 -0.0930 -0.0704 -0.0003
12627W        W13491  10.645  14.624  26.147  0.1417 -0.2606  0.2499
12628W        W13492  13.133  19.647   0.828  0.1124  0.0883 -0.1486
12629W        W13493  25.608  11.493  20.968 -0.1170  0.1725  0.3502
12630W        W13494  15.855  25.362   8.699  0.0817  0.3512  0.5777
12631W        W13495  26.861  14.837   1.250 -0.0283  0.2105 -0.0283
12632W        W13496  12.058   5.810   4.707 -0.0753 -0.0887  0.3316
12633W        W13497   4.403   6.829  19.916 -0.0212 -0.2233  0.4933
12634W        W13498  23.987  12.771   7.587  0.1641 -0.0943  0.0749
12635W        W13499  24.943  22.122  10.145 -0.1299  0.2738 -0.1423
12636W        W13500  12.550  10.890  15.597  0.1402 -0.1909 -0.0176
12637W        W13501   4.150   4.079  28.988 -0.0341 -0.1199 -0.1796
12638W        W13502  11.152  11.532  20.755  0.0623  0.3376 -0.0554
12639W        W13503  26.515  11.655   2.691  0.2188  0.0978  0.0714
12640W        W13504  20.630  25.442  26.007  0.0029  0.1227  0.2388
12641W        W13505  21.019  12.248  27.058 -0.1873 -0.3014 -0.1658
12642W        W13506  27.883   9.961  20.191  0.0369  0.0905  0.1710
12643W        W13507   5.936  10.922  13.577  0.0961 -0.3263  0.0021
12644W        W13508   3.294  20.273   9.321  0.3030  0.1085 -0.1976
12645W        W13509  28.170  27.172  13.289 -0.1601 -0.0814  0.2783
12646W        W13510  22.087  12.320   3.438  0.0849  0.0104 -0.1809
12647W        W13511  19.997   2.934  21.092  0.4204 -0.0578 -0.1878
12648W        W13512   9.887  10.683  28.265  0.0418 -0.1154 -0.0909
12649W        W13513   1.378  24.612  25.484 -0.0571  0.1724  0.0956
12650W        W13514   0.744   0.891  22.084  0.0993 -0.2519  0.0208
12651W        W13515   8.036  19.258  26.224  0.1634  0.0568 -0.0805
12652W        W13516  17.824  24.330  22.009  0.0635  0.1286 -0.2245
12653W        W13517  26.196  13.749   4.148  0.0376  0.0473 -0.0629
12654W        W13518   3.058  21.171  23.886  0.0632  0.2657 -0.1011
12655W        W13519  28.926  15.796  12.021 -0.3310 -0.0791 -0.3032
12656W        W13520   0.672  10.179   4.465 -0.0449 -0.1013 -0.3455
12657W        W13521   9.492   3.722  14.796  0.0393 -0.1206  0.0446
12658W        W13522  28.415  23.438  10.382 -0.0588 -0.3933 -0.0390
12659W        W13523   1.164   9.111  26.822  0.0098  0.0772 -0.0794
12660W        W13524   9.927  20.136  16.567 -0.1872  0.2920  0.1625
12661W        W13525  27.453  15.757  24.531 -0.1334 -0.1074  0.0286
12662W        W13526  17.204  23.128  23.310 -0.1782 -0.0388 -0.1817
12663W        W13527  27.930  26.457  24.189  0.0318 -0.1937  0.2120
12664W        W13528  11.590  11.560  22.859  0.1879 -0.0341  0.2376
12665W        W13529  18.520   0.788  26.913 -0.0220 -0.2408 -0.1391
12666W        W13530   2.577  26.211  17.527 -0.0777  0.3692  0.1669
12667W        W13531  24.405  28.710  25.559 -0.2627 -0.0114  0.5242
12668W        W13532  27.073   4.491   8.030  0.1660  0.0489  0.0548
12669W        W13533  17.209  25.487  14.062  0.0179 -0.2615  0.3599
12670W        W13534  22.748   8.602  25.612 -0.1844  0.2844  0.0853
12671W        W13535   5.656  16.931  24.791  0.1905 -0.2751  0.0783
12672W        W13536   3.834  10.324  27.930 -0.1153  0.0196 -0.2010
12673W        W13537   4.117  15.730  29.137 -0.1546 -0.0927  0.1436
12674W        W13538  14.625   3.257  23.518  0.0352 -0.0615  0.0898
12675W        W13539  17.310  26.461   8.252  0.0408 -0.2321  0.0129
12676W        W13540   2.060   5.880  15.925  0.2845 -0.0430  0.0375
12677W        W13541  10.335  18.106  27.356  0.2050  0.0619  0.1977
12678W        W13542  16.937  13.222  13.451  0.0042 -0.1152  0.0888
12679W        W13543  19.626  21.907  23.616  0.2005  0.0625 -0.0641
12680W        W13544  10.516  22.837  25.424 -0.2387  0.1642  0.1253
12681W        W13545   5.151  20.448  10.672  0.1764 -0.0593 -0.0597
12682W        W13546   2.250   4.073  15.610  0.1346 -0.0566  0.0256
12683W        W13547   0.717   7.069   2.704 -0.0563 -0.0082  0.2342
12684W        W13548  18.565  24.905   2.604 -0.1235  0.0470  0.2016
12685W        W13549  28.380  13.890  17.026  0.2808  0.0118  0.2402
12686W        W13550   8.132  16.448  16.095 -0.1612  0.1374 -0.2242
12687W        W13551  15.011   8.814  20.860  0.1499  0.1421  0.1706
12688W        W13552  27.391  14.866  24.759 -0.0367 -0.2033  0.1449
12689W        W13553  15.487  14.887  13.961  0.0887 -0.1988 -0.1127
12690W        W13554   5.090  13.216  15.628 -0.0162  0.0254 -0.3203
12691W        W13555  26.607  11.336  25.678  0.4534 -0.0743 -0.3240
12692W        W13556   8.081  28.028   0.071 -0.2889  0.1624  0.1941
12693W        W13557  16.232   5.854  25.936 -0.1660 -0.2589  0.0011
12694W        W13558   8.595  15.343   7.747  0.1084 -0.2123  0.0560
12695W        W13559  16.639  28.333  27.694 -0.3469 -0.1103  0.3377
12696W        W13560  26.567   3.223  27.966 -0.1853 -0.1390 -0.2032
12697W        W13561  26.706  28.012  21.479  0.0720  0.1167  0.2522
12698W        W13562  16.878  24.957  28.898  0.0195 -0.1843  0.0474
12699W        W13563   6.159  27.792   4.168 -0.2217 -0.0218 -0.3052
12700W        W13564  29.111  17.073  11.067  0.1398 -0.2332  0.0218
12701W        W13565  26.190   3.507  23.314  0.2197 -0.0466  0.1071
12702W        W13566   6.259  10.454   1.757  0.4421 -0.0112 -0.3367
12703W        W13567  21.803   0.696  18.726 -0.0363 -0.0256  0.1664
12704W        W13568  24.830  19.438   2.209 -0.0002 -0.0587 -0.0494
12705W        W13569  12.510   3.704   1.968 -0.0842 -0.0155 -0.0932
12706W        W13570  18.051  26.010   1.914  0.0944 -0.3600 -0.1366
12707W        W13571   3.489  26.881  29.023 -0.1841  0.0807 -0.1052
12708W        W13572  12.620  15.578   0.126 -0.2135  0.0310  0.1068
12709W        W13573  22.807  14.290  23.252 -0.0406 -0.0930  0.0635
12710W        W13574  10.620  28.467  22.910 -0.0286  0.1196  0.0537
12711W        W13575   5.854  13.940  11.812 -0.4508  0.0229  0.3495
12712W        W13576  12.681   2.267  12.946  0.0835 -0.0106  0.1794
12713W        W13577   0.246  11.275  28.059  0.1685 -0.1100 -0.0547
12714W        W13578   6.844  10.977   7.726 -0.2280 -0.1226  0.0994
12715W        W13579  27.194  26.807  20.445  0.0771 -0.0444 -0.0137
12716W        W13580   3.188   9.966  22.450 -0.1121  0.2133 -0.1273
12717W        W13581   6.864  16.113  24.299  0.2267  0.0501 -0.0843
12718W        W13582  25.742  28.801  22.653 -0.1890 -0.0780  0.4868
12719W        W13583  27.587  26.783   0.020 -0.0904 -0.0732 -0.0568
12720W        W13584  15.841  21.062   0.853  0.2047  0.0374  0.0080
12721W        W13585  20.670   7.829   6.245 -0.3048 -0.1380 -0.1051
12722W        W13586  12.957  27.949  28.609 -0.0671  0.2821 -0.2727
12723W        W13587   7.776   4.765  27.596 -0.0162 -0.1773  0.0580
12724W        W13588   0.200  16.250  11.384 -0.2371  0.0949  0.2172
12725W        W13589   5.489  25.582   1.216  0.0870  0.3395 -0.0005
12726W        W13590  22.499  19.187   4.906  0.1199 -0.0955 -0.1462
12727W        W13591  15.860  25.704   1.419  0.0835  0.0893 -0.0506
12728W        W13592   0.678  13.157  20.403 -0.1321  0.1433 -0.1212
12729W        W13593   5.842  15.885  25.513 -0.3196  0.1762  0.1969
12730W        W13594  17.859   7.886  24.135 -0.1609 -0.2132 -0.3348
12731W        W13595   5.520  25.159  20.831  0.3866  0.1728 -0.3436
12732W        W13596  15.683  15.454  15.058 -0.0496 -0.1340 -0.1427
12733W        W13597  20.173  18.302  25.750 -0.0839  0.0639 -0.2595
12734W        W13598   2.475  12.223  18.930 -0.4878 -0.2280 -0.3732
12735W        W13599  20.971  10.098   2.040  0.1552 -0.0582  0.1333
12736W        W13600   9.331  24.204   8.555  0.2563  0.1091  0.0818
12737W        W13601   1.068  10.240  24.989 -0.0978  0.0593 -0.2310
12738W        W13602  11.114  21.147  12.975 -0.0153  0.1149  0.0686
12739W        W13603  26.165  13.209  22.237  0.0509 -0.3281 -0.3784
12740W        W13604   1.647   6.168  12.109  0.1639  0.0628 -0.1014
12741W        W13605  10.663   1.872  25.952 -0.2319 -0.4826  0.1404
12742W        W13606  20.782   5.775   7.730  0.0297  0.2322  0.0161
12743W        W13607  17.660   1.443  27.875 -0.1475  0.3039 -0.0642
12744W        W13608   9.426  10.826  17.030  0.3376  0.1014 -0.0221
12745W        W13609  16.892  28.383  24.990  0.0078 -0.1838 -0.0351
12746W        W13610  17.563  21.219   0.207  0.0748 -0.0091 -0.1095
12747W        W13611   3.295  15.246  15.901  0.1146 -0.0404 -0.3188
12748W        W13612   8.311   8.528  15.143 -0.0291  0.3699 -0.1343
12749W        W13613   1.597   2.050  20.343 -0.3294 -0.4265 -0.1129
12750W        W13614  13.931  17.019  26.429  0.0607  0.0302  0.0723
12751W        W13615   5.804  19.145  21.399 -0.0061  0.3479  0.1593
12752W        W13616   6.392  28.426  26.190 -0.0023 -0.3098  0.0043
12753W        W13617  24.188  23.687  27.733  0.2942  0.0041  0.0776
12754W        W13618   4.782  18.760   7.527  0.3366  0.3193  0.2754
12755W        W13619  27.175   8.710  12.269  0.2433 -0.0546 -0.3473
12756W        W13620  19.789  11.666   9.481 -0.2068 -0.4174  0.0227
12757W        W13621  27.786  12.925   2.040  0.0653  0.0464 -0.0455
12758W        W13622   3.817   0.786  20.861 -0.1700  0.0866 -0.0116
12759W        W13623  23.660   4.763  12.341  0.0276  0.4139 -0.0467
12760W        W13624   3.997  14.799  28.108  0.1805 -0.2023 -0.2277
12761W        W13625   2.327  21.756   2.721  0.3809  0.0532 -0.0060
12762W        W13626  10.847  26.482  11.639  0.0429  0.4577  0.0917
12763W        W13627  29.051   8.120  23.175 -0.0692 -0.1399 -0.1343
12764W        W13628  16.595  18.839  11.940 -0.0116  0.0237 -0.0975
12765W        W13629   4.750  18.863   4.570 -0.0274 -0.0439 -0.0431
12766W        W13630   7.530  18.661   9.179 -0.0335  0.0636 -0.1938
12767W        W13631  12.215  26.687   3.437 -0.3490 -0.2054  0.1078
12768W        W13632  24.302  15.993   2.282  0.1116  0.2927 -0.1129
12769W        W13633  28.106  27.518  27.049 -0.1535 -0.2148  0.0173
12770W        W13634  17.507  18.707  28.178 -0.0661  0.1974  0.0378
12771W        W13635  13.747   6.598  25.472 -0.0759  0.0089  0.2044
12772W        W13636   8.115  29.004  22.582  0.0116  0.0757  0.1400
12773W        W13637  25.007  19.523   0.650  0.1159  0.1209 -0.0329
12774W        W13638  23.830  10.993  28.833 -0.2419 -0.6748 -0.1029
12775W        W13639   4.331  14.649   2.925  0.0115 -0.2194 -0.0923
12776W        W13640   0.085  28.501  27.284 -0.1997 -0.0736 -0.1879
12777W        W13641  18.234  28.965   4.082 -0.0334 -0.1148  0.0560
12778W        W13642  24.897  14.899  14.640  0.2467  0.0910 -0.1249
12779W        W13643  28.903   5.371   1.009 -0.0345  0.2467  0.0276
12780W        W13644   1.218  11.538  20.573 -0.0065  0.2265  0.1882
12781W        W13645   4.264  21.806   4.844  0.1685 -0.1162 -0.0459
12782W        W13646  12.787  21.008  17.355 -0.2080  0.1756 -0.1600
12783W        W13647  10.539   7.733  10.644  0.1575 -0.1051 -0.2402
12784W        W13648  19.149   0.304  18.851  0.2117 -0.0350 -0.0114
12785W        W13649  26.717   4.712   9.302 -0.1334  0.0549 -0.0780
12786W        W13650   3.661  19.348   4.836 -0.1567  0.1705  0.1328
12787W        W13651   2.185   6.723   4.559  0.0716 -0.0862  0.0357
12788W        W13652   6.415   7.851  22.720 -0.0454  0.1813  0.0831
12789W        W13653   8.885  14.741  22.167 -0.1246 -0.1459 -0.3229
12790W        W13654   7.792  20.008  17.877 -0.2300  0.0889  0.0866
12791W        W13655  15.468  14.284  15.266  0.0364 -0.3966 -0.1527
12792W        W13656  17.274  10.457  19.429 -0.0360  0.0728  0.0416
12793W        W13657  12.290   6.632  20.040  0.2713  0.0898  0.3054
12794W        W13658  27.163   9.592  11.265  0.1234  0.0836  0.2178
12795W        W13659  13.627  23.044  18.284  0.3667  0.3929 -0.1925
12796W        W13660   3.012  17.427  16.681  0.1104  0.0894  0.0926
12797W        W13661   1.890  10.406   0.732  0.3853  0.1043 -0.1198
12798W        W13662  26.271  10.124  27.555 -0.1096 -0.1041  0.1679
12799W        W13663   3.301  11.724   9.856 -0.0077  0.0936  0.5108
12800W        W13664   0.009  14.454   8.297 -0.0707  0.1534 -0.3907
12801W        W13665   8.746  20.921   2.359 -0.2494  0.2702 -0.0956
12802W        W13666  13.269   8.582  23.603  0.0204  0.2219  0.0494
12803W        W13667  23.026  15.581   4.731  0.1546 -0.1326  0.0628
12804W        W13668   5.370  10.346   0.696  0.1414  0.4829  0.2688
12805W        W13669   0.525  28.027   6.489 -0.1742 -0.0850 -0.2504
12806W        W13670   5.791   0.435  26.779  0.1217  0.0770  0.3610
12807W        W13671  11.268  25.782  26.726  0.1576  0.1496 -0.0746
12808W        W13672  26.122   8.649  11.077 -0.0530  0.1257 -0.0481
12809W        W13673   2.084  21.383  23.384  0.0764 -0.2544  0.0527
12810W        W13674   3.124  15.883   1.951 -0.2854 -0.1758  0.0145
12811W        W13675   4.118   1.863   6.209  0.0808  0.1555 -0.3739
12812W        W13676  13.308  23.171   1.476 -0.3972  0.1006  0.1178
12813W        W13677  25.507  12.089  28.722  0.1897  0.2758 -0.0723
12814W        W13678  27.734   4.896  22.356  0.0087  0.1839  0.2761
12815W        W13679  15.665  24.507   4.498 -0.2808  0.2487 -0.0562
12816W        W13680  16.482   4.265   3.555  0.1199 -0.0707 -0.0779
12817W        W13681   8.323  13.448   9.870  0.1000  0.2947  0.1381
12818W        W13682   8.840  15.230  28.066 -0.0509 -0.2561 -0.2961
12819W        W13683   3.575  22.818  22.692 -0.3996  0.0760  0.0757
12820W        W13684  17.497  11.972   5.426  0.0794 -0.2827  0.3620
12821W        W13685  21.393   3.812   1.065  0.0006 -0.0570  0.1427
12822W        W13686   8.065  26.082   1.722  0.0835  0.1175  0.0081
12823W        W13687  11.960  23.064   9.533 -0.1735  0.0769 -0.3227
12824W        W13688  26.685   8.191   5.046 -0.2698  0.2039  0.0039
12825W        W13689   4.365  28.754  11.256  0.0660  0.0864  0.2347
12826W        W13690   3.794  10.665   7.485  0.1386  0.2229 -0.1501
12827W        W13691  28.990  12.081  18.733 -0.0475 -0.2495 -0.1148
12828W        W13692   6.567  20.921   2.171 -0.0457 -0.0406  0.0132
12829W        W13693   3.780  13.332   9.989 -0.0529  0.0579  0.1318
12830W        W13694  28.975   0.676  13.273 -0.0020 -0.2956  0.0489
12831W        W13695  11.775  16.906  21.588  0.0256 -0.3725  0.0561
12832W        W13696  12.397   5.845   4.279  0.0397 -0.0862  0.0144
12833W        W13697  23.151   8.412  27.600  0.0126 -0.0213 -0.1036
12834W        W13698   8.571  22.133  20.885 -0.0278  0.0104 -0.0127
12835W        W13699   8.276  17.917  24.677  0.0493  0.0764  0.2757
12836W        W13700  13.848  17.423  23.793  0.3440 -0.0396 -0.0588
12837W        W13701  27.297  13.659   8.536  0.1340  0.4766 -0.1999
12838W        W13702   1.118   4.532   2.046 -0.0543  0.1299  0.1355
12839W        W13703   7.518  13.552   7.143  0.2966 -0.0353 -0.0985
12840W        W13704  11.036  15.606   4.172  0.1531  0.0368 -0.4487
12841W        W13705  23.934  16.327   6.053 -0.4033 -0.2965 -0.0955
12842W        W13706  14.516   9.870  18.403 -0.0721 -0.2586  0.0132
12843W        W13707   6.251   4.384   8.961 -0.1381  0.1996 -0.0924
12844W        W13708  28.674  24.972  10.570  0.3129  0.0866 -0.1326
12845W        W13709  21.526  17.955  19.082  0.0038 -0.0583  0.2700
12846W        W13710  28.144   7.606  26.401 -0.1256 -0.1594  0.0564
12847W        W13711  28.828  16.599  22.916 -0.1237  0.2832  0.0669
12848W        W13712   7.409   5.279  26.324 -0.4752 -0.0042 -0.2799
12849W        W13713   7.507   7.663   4.007  0.3303  0.0137 -0.4353
12850W        W13714   2.123  25.788  17.921  0.3743 -0.2438 -0.1201
12851W        W13715  28.813  16.654  28.533 -0.4287 -0.0799  0.2108
12852W        W13716   7.474   2.822  23.126 -0.2133  0.0241 -0.1010
12853W        W13717  16.657  23.838  25.536  0.3613 -0.1225 -0.1826
12854W        W13718   1.299  15.011  24.145  0.1478 -0.0201 -0.2480
12855W        W13719  11.014   0.431  13.279 -0.0484  0.0202 -0.0220
12856W        W13720   4.473  12.476  13.068 -0.0374  0.1252  0.1337
12857W        W13721   6.519   1.266  17.735 -0.3544  0.0118  0.3639
12858W        W13722  18.000  14.004  25.080  0.2573  0.1873  0.0758
12859W        W13723  11.785  20.189   5.218 -0.3045  0.0228  0.0132
12860W        W13724   3.708  12.889  21.571  0.1189  0.0671 -0.3711
12861W        W13725  10.909   4.291   2.712 -0.0996 -0.0697 -0.0262
12862W        W13726  15.113  27.609  10.137  0.0510  0.2981  0.1128
12863W        W13727  28.407  18.854  18.416  0.1980 -0.2913 -0.2392
12864W        W13728   6.957  27.427  23.958  0.2459  0.3303 -0.4104
12865W        W13729   9.043   3.316  17.977  0.3424 -0.1801  0.1912
12866W        W13730  11.048  14.209  28.722  0.1354 -0.1825 -0.1384
12867W        W13731   2.938   5.073  15.871 -0.1262 -0.0876  0.1330
12868W        W13732  10.653  17.171  19.960  0.0412  0.4777 -0.2194
12869W        W13733  28.642  20.013   2.787  0.0256 -0.0119  0.0521
12870W        W13734   7.154  24.199   5.247  0.2888 -0.0139  0.0129
12871W        W13735  11.637  21.299  16.353 -0.2090 -0.1118  0.1136
12872W        W13736   5.935  12.935  16.058  0.1541 -0.1000  0.1062
12873W        W13737  24.713  12.136   3.165 -0.0497  0.2884 -0.2224
12874W        W13738   4.123  28.312  23.490 -0.1078 -0.4047 -0.2930
12875W        W13739  25.556   1.977   8.629  0.2076  0.2608  0.0908
12876W        W13740  18.674  25.736  17.802 -0.0449 -0.1963  0.0109
12877W        W13741  23.733   3.547  18.248 -0.0743 -0.0524 -0.0412
12878W        W13742  18.243  18.856   1.988  0.1065  0.1047  0.1543
12879W        W13743   3.715   8.604  19.578 -0.0535  0.2359  0.2925
12880W        W13744  22.979  28.571   2.177 -0.0767 -0.0185 -0.0155
12881W        W13745   9.714  12.963  26.529 -0.0468 -0.1469  0.2099
12882W        W13746  10.577   0.837   3.473  0.1264  0.1793  0.0395
12883W        W13747   8.884  13.621   2.167  0.1546 -0.1614  0.0651
12884W        W13748  24.542   5.024  24.732  0.1192  0.2378  0.2721
12885W        W13749   3.216  18.852  20.037  0.2183 -0.1530  0.1981
12886W        W13750  10.675  13.795   4.832  0.0759 -0.1648 -0.0776
12887W        W13751  10.013  10.075  13.499 -0.0865 -0.0153  0.2647
12888W        W13752  25.536   8.883   0.022  0.1811  0.0391 -0.1347
12889W        W13753  23.127  24.436  16.184  0.0956 -0.0232  0.4264
12890W        W13754  23.916  19.940   7.364  0.1149 -0.0240  0.1948
12891W        W13755  20.753   6.088  19.761  0.1227 -0.0220  0.1001
12892W        W13756   4.859   3.642   9.502  0.1102  0.1666 -0.0000
12893W        W13757  20.418  24.684  11.936  0.3170  0.0520  0.2006
12894W        W13758  14.256  16.038  20.684  0.2509 -0.2874 -0.1927
12895W        W13759   3.396  14.942   2.770 -0.0825  0.2845  0.1558
12896W        W13760  10.883  18.229   4.522 -0.3014 -0.1548 -0.3421
12897W        W13761  24.331  15.136  28.833  0.2168 -0.0169 -0.0905
12898W        W13762  22.501   9.722  11.095 -0.2997  0.0245 -0.1264
12899W        W13763  12.107  12.085  29.047 -0.0283 -0.2501  0.2150
12900W        W13764   7.370  20.630  28.633 -0.0438  0.1119 -0.0982
12901W        W13765   0.386  17.196  20.953 -0.1124 -0.2519 -0.2951
12902W        W13766   3.968  13.466   6.756  0.1925  0.1780 -0.0539
12903W        W13767  27.202  15.602  17.618  0.1292 -0.1398  0.1711
12904W        W13768  17.605  19.311   5.396  0.1413 -0.2134  0.1518
12905W        W13769  21.164   3.390  27.909  0.2230  0.1473  0.0864
12906W        W13770  26.632  17.948  26.697 -0.0454 -0.0963  0.1439
12907W        W13771  14.885   9.177  11.926 -0.0517 -0.0627 -0.1691
12908W        W13772  23.330  15.655  18.523  0.2934  0.0637 -0.1329
12909W        W13773  11.318  11.576  29.096 -0.2609 -0.0822 -0.0555
12910W        W13774  22.993   2.868  17.100  0.0325 -0.0370  0.2189
12911W        W13775  15.152  24.876  28.229 -0.3412  0.0206  0.1681
12912W        W13776   6.107   5.067   9.708 -0.1261  0.6235  0.3236
12913W        W13777  27.292  11.046   0.354  0.1797 -0.2452  0.0136
12914W        W13778  16.794  22.780  22.735 -0.2704 -0.1341  0.0307
12915W        W13779  25.720  17.022   1.568 -0.1664  0.1374  0.0949
12916W        W13780   8.167   2.942  28.865  0.2054 -0.2358 -0.0549
12917W        W13781  20.279   5.390  12.799 -0.1389  0.1543  0.0735
12918W        W13782  22.669   8.005  28.839 -0.2012  0.2371 -0.1486
12919W        W13783  12.292   9.736  24.944  0.0300  0.0189  0.0953
12920W        W13784  12.534   0.300  22.678  0.1162  0.0090 -0.0509
12921W        W13785  13.581  23.736  18.836  0.0959  0.0081  0.2248
12922W        W13786  28.666   8.354  26.462 -0.1951  0.2211 -0.0236
12923W        W13787   9.350  17.526  11.109 -0.0401 -0.0086 -0.3057
12924W        W13788  26.661  15.231  13.314  0.0793  0.1164  0.1671
12925W        W13789  27.999  16.681  13.456  0.1657  0.1580 -0.3114
12926W        W13790   0.598   4.090  13.115  0.2025  0.2350 -0.0831
12927W        W13791  16.914  26.460   2.740  0.1176 -0.1776 -0.0441
12928W        W13792  26.194  18.697  25.214 -0.0291 -0.1661 -0.1837
12929W        W13793  22.172  12.105   7.252  0.1950 -0.0271  0.1483
12930W        W13794  14.004  15.298  28.202  0.0995 -0.0080 -0.0750
12931W        W13795   6.067  13.875  21.628 -0.3306 -0.0216  0.1620
12932W        W13796   4.803   5.951  10.397 -0.0421 -0.2011  0.1306
12933W        W13797  25.638   2.534  27.270 -0.0523 -0.0626 -0.2499
12934W        W13798  16.842   8.270   0.629 -0.1947  0.1209 -0.2084
12935W        W13799   8.081  21.887   0.663 -0.0390  0.0528 -0.1780
12936W        W13800  27.251   7.216   2.217  0.0853  0.2847 -0.2987
12937W        W13801  26.754  17.379  16.817  0.1316  0.0495  0.1023
12938W        W13802  24.733  19.760  12.676  0.0091 -0.0902  0.0473
12939W        W13803  24.760  13.491  17.761 -0.0857  0.2884  0.0210
12940W        W13804  13.228  10.120   3.311 -0.0985 -0.2550  0.1632
12941W        W13805   5.263   9.312  23.574  0.1445  0.1501  0.3365
12942W        W13806  29.028   5.860   1.894  0.0760 -0.0483 -0.2267
12943W        W13807  19.552   5.013   8.246 -0.0993 -0.1475 -0.0720
12944W        W13808  27.771  19.716   6.692 -0.1182 -0.0466  0.0310
12945W        W13809  12.765   3.653   7.941 -0.1125 -0.4669  0.1804
12946W        W13810  18.738  24.513  27.971 -0.1994 -0.3501  0.1339
12947W        W13811   9.941   7.278  12.608  0.0889  0.1459  0.1491
12948W        W13812  16.224   0.349   0.658  0.1017 -0.3294 -0.0835
12949W        W13813  25.673   5.490  26.670  0.1506 -0.0033 -0.3995
12950W        W13814  18.106  20.977  12.166  0.0091 -0.2466 -0.1757
12951W        W13815   2.195  19.344  21.846 -0.0588  0.3486  0.3421
12952W        W13816  27.882  10.710   4.801  0.1807 -0.3444  0.1865
12953W        W13817  28.113  23.123   2.696 -0.1878 -0.3836 -0.1521
12954W        W13818   3.200   7.320  17.178 -0.0624 -0.1823  0.1449
12955W        W13819   9.514   9.313  12.681 -0.1275  0.0287  0.1784
12956W        W13820   8.623   1.447  25.366 -0.2096 -0.5341  0.2811
12957W        W13821   9.350   6.941   8.278 -0.1243 -0.0033  0.1581
12958W        W13822  19.665  16.402  16.971 -0.1558 -0.1830  0.3076
12959W        W13823   2.440  12.525  23.863 -0.1815 -0.2377 -0.1168
12960W        W13824  17.859  17.008   4.782 -0.1234  0.0638 -0.0320
12961W        W13825  28.552  14.271  15.710  0.0742 -0.2758  0.1369
12962W        W13826   8.021  27.514   7.770  0.2640 -0.3052  0.0485
12963W        W13827  28.085  18.243  24.144 -0.0455 -0.2330 -0.1608
12964W        W13828  26.938  19.548  13.625 -0.0552 -0.1707 -0.0159
12965W        W13829  25.901  19.852  26.298  0.1694 -0.4379 -0.0532
12966W        W13830  16.001  19.501   9.332 -0.0987 -0.0095 -0.1301
12967W        W13831  20.115  23.966  15.238 -0.0899  0.0651 -0.0683
12968W        W13832   8.908  22.198   8.689  0.2816  0.2209 -0.0388
12969W        W13833   2.536  22.024   4.310 -0.3583 -0.2603  0.0074
12970W        W13834  24.076  20.038   2.431 -0.0160 -0.3902  0.0320
12971W        W13835  20.053  14.460   6.332  0.3624  0.0204  0.0114
12972W        W13836   3.866  14.172  25.677 -0.0252 -0.1178 -0.0756
12973W        W13837   9.537   6.731  28.657  0.3425  0.1429  0.1149
12974W        W13838   3.080  28.625  21.517  0.2555 -0.2714  0.0921
12975W        W13839   3.883   8.829  12.721  0.2747 -0.1448 -0.1832
12976W        W13840   2.497  24.943   2.278 -0.2027 -0.0025 -0.1039
12977W        W13841  11.131  18.649   6.038 -0.2770 -0.1000 -0.1266
12978W        W13842   4.483  19.183   8.808 -0.0937 -0.1667  0.2866
12979W        W13843   4.757  11.249  12.963 -0.3376 -0.1393 -0.5564
12980W        W13844   0.057  23.955  14.045 -0.0865  0.0202  0.0891
12981W        W13845  24.509  12.756   9.143 -0.0340 -0.1665 -0.2418
12982W        W13846  11.989   5.085  18.065  0.2563  0.1022  0.0556
12983W        W13847   4.580   1.628  15.257 -0.1242 -0.2892 -0.0525
12984W        W13848   3.778  25.112  15.993 -0.0669  0.1970  0.0967
12985W        W13849   5.066  12.502   4.349  0.1096  0.0719 -0.0224
12986W        W13850  21.605   1.128   3.902 -0.0588 -0.0253 -0.0779
12987W        W13851  12.931  22.510  18.313 -0.0256 -0.4165  0.2084
12988W        W13852  28.946  14.845   1.618  0.1436 -0.0981 -0.1780
12989W        W13853   1.600  16.091  17.452 -0.0652  0.1511 -0.1529
12990W        W13854   7.680  23.743  28.876 -0.0455 -0.1580 -0.0067
12991W        W13855  28.702   7.912  21.008  0.0878 -0.0755 -0.0161
12992W        W13856   2.256  25.647  23.788  0.1587  0.1450 -0.1865
12993W        W13857   4.727   7.251  24.362 -0.1158 -0.2055 -0.0439
12994W        W13858  15.832  21.573   4.566  0.1781  0.1512 -0.0567
12995W        W13859  16.798  18.804  11.399  0.0939 -0.1028  0.0149
12996W        W13860   8.947   2.819  11.376  0.4007  0.0311 -0.2681
12997W        W13861  23.681  13.658   7.120  0.0755 -0.2765 -0.0095
12998W        W13862  16.237  20.076   2.903  0.2422 -0.1057  0.0180
12999W        W13863   6.731   6.727  23.470  0.1801  0.1014  0.2778
13000W        W13864  21.755  15.906  21.655  0.2029  0.1409  0.1012
13001W        W13865   3.465  21.658  20.924  0.0990 -0.3366 -0.1457
13002W        W13866  16.934   2.966  19.185  0.2106 -0.5017 -0.0198
13003W        W13867  23.997  20.148   9.679 -0.1765 -0.0661 -0.2181
13004W        W13868   3.753   1.213  10.305  0.0846  0.1108  0.0725
13005W        W13869   0.515  17.907   4.942  0.1993 -0.2191 -0.0649
13006W        W13870   7.097   8.406   5.781  0.3764 -0.1211  0.1520
13007W        W13871  22.065  17.839   1.707 -0.2157  0.1456  0.1290
13008W        W13872   3.727  23.809   4.178  0.0468 -0.2888 -0.1072
13009W        W13873   0.370   0.922   3.048 -0.0320  0.0928  0.1221
13010W        W13874  19.978  24.273  27.084  0.0596 -0.0921  0.0262
13011W        W13875  27.582  22.176  15.677 -0.1455  0.0054  0.0686
13012W        W13876   0.275   7.822   1.939  0.2791  0.0591 -0.0626
13013W        W13877   9.775  26.261   1.010 -0.0384 -0.1019 -0.0125
13014W        W13878   0.817  13.013  12.322 -0.2875  0.2076 -0.0714
13015W        W13879  15.328  22.699  17.475  0.0506 -0.0027 -0.2013
13016W        W13880  15.795  26.448   9.612 -0.0047 -0.1123 -0.0997
13017W        W13881   7.141  14.430  11.076  0.0583  0.3665  0.2052
13018W        W13882   0.175  12.840  21.410 -0.0399 -0.2405 -0.2290
13019W        W13883  17.786   0.437  20.539  0.3150 -0.1324 -0.1170
13020W        W13884   8.992  12.350  15.522 -0.0825 -0.3037 -0.0411
13021W        W13885  21.412  23.688  25.992  0.0967 -0.0645 -0.0652
13022W        W13886   7.104   0.638  25.391  0.1515 -0.0651  0.3057
13023W        W13887   0.032  21.039  25.767 -0.4517 -0.2604  0.0907
13024W        W13888  24.051  12.849   6.157  0.2395 -0.1101  0.2535
13025W        W13889   6.868  15.422  25.770 -0.0267 -0.0258 -0.4586
13026W        W13890  17.136  24.344  14.562  0.3255 -0.3032 -0.1225
13027W        W13891  28.805  10.439  21.896 -0.1135 -0.2121 -0.0831
13028W        W13892   2.901  24.360  28.965  0.1454 -0.2115 -0.1994
13029W        W13893   0.740   2.648  17.657 -0.0795  0.1354  0.3438
13030W        W13894  26.658  14.696  17.053 -0.3648  0.0321 -0.1465
13031W        W13895   0.290  25.461  20.946 -0.2165 -0.0826 -0.0889
13032W        W13896   1.114  22.224  13.000  0.1754  0.0310 -0.1886
13033W        W13897  28.613  22.326  10.213  0.1485  0.0050 -0.2931
13034W        W13898   5.396   1.812   8.351  0.0824  0.2008  0.3946
13035W        W13899  19.549  10.068   5.785  0.2227  0.0603  0.0122
13036W        W13900  18.505   9.018  11.439 -0.2298 -0.0466 -0.3521
13037W        W13901   0.491  15.178   0.954  0.0582  0.0096 -0.0026
13038W        W13902  14.470  18.710   3.677 -0.0978 -0.1837  0.1430
13039W        W13903   6.766  17.156  23.510  0.0663  0.0115 -0.1319
13040W        W13904   3.624   4.069  20.588 -0.1642 -0.4411 -0.1966
13041W        W13905  16.068  15.535   3.906 -0.0129  0.2388 -0.0413
13042W        W13906   1.243   5.536  15.306  0.2737  0.1717 -0.0311
13043W        W13907  23.572  19.713   6.494 -0.1791 -0.1758  0.0119
13044W        W13908   4.239  10.413   6.694 -0.0474 -0.4391 -0.1417
13045W        W13909  24.009  13.254   8.504 -0.0022  0.0634  0.0505
13046W        W13910   5.924   8.615  10.534  0.2421  0.0287  0.2437
13047W        W13911  28.539  15.845  10.559 -0.0614  0.0289  0.2131
13048W        W13912   5.243  10.209  17.590 -0.1188  0.0197 -0.2872
13049W        W13913   3.120  19.611  24.471  0.2038  0.2150 -0.0919
13050W        W13914   1.927  23.341  22.039 -0.1122  0.0551  0.0609
13051W        W13915  27.326  26.238  21.248 -0.0019  0.1610  0.2225
13052W        W13916  21.049  25.528  22.854  0.0260  0.1251 -0.2531
13053W        W13917   4.980  11.142   5.676 -0.1820  0.1158 -0.2186
13054W        W13918  28.936  19.053  11.978 -0.0883  0.2099  0.1939
13055W        W13919  28.021  21.487  11.546  0.1280 -0.3195  0.1761
13056W        W13920  17.912   2.540   5.638 -0.3185 -0.0139 -0.1363
13057W        W13921  11.406  23.157  26.123  0.0837  0.0932 -0.0355
13058W        W13922   0.231  26.999  20.862  0.1807  0.1071 -0.0080
13059W        W13923  27.442  15.734   4.190  0.2498  0.1186  0.1276
13060W        W13924   3.271  14.929  28.720 -0.0300 -0.0982  0.2377
13061W        W13925   1.687  11.490  11.215  0.1903  0.3028 -0.2340
13062W        W13926   9.450  14.912   2.562 -0.2644  0.0635  0.3023
13063W        W13927   3.456   8.701   2.267  0.1935 -0.0622 -0.1347
13064W        W13928  29.096   1.049  15.625 -0.2371  0.0348 -0.0196
13065W        W13929  28.397  26.300   6.215 -0.3149  0.0170  0.1370
13066W        W13930   2.078   4.351   6.926  0.0656 -0.2117  0.0202
13067W        W13931  19.940  15.208   7.348 -0.0315  0.2837  0.0257
13068W        W13932  15.959   2.189  13.591 -0.2961 -0.0055 -0.1654
13069W        W13933   6.520  24.798   2.683  0.1389 -0.2727 -0.0833
13070W        W13934  23.038  20.141  18.796  0.0822  0.2049 -0.1154
13071W        W13935  25.287  26.216  23.239 -0.1612 -0.3299  0.2966
13072W        W13936  11.840  17.242   0.542 -0.1237 -0.0251  0.0606
13073W        W13937  26.337  21.756   8.645  0.0093  0.3732 -0.2419
13074W        W13938  19.584   0.882  23.838  0.3618 -0.0186 -0.0091
13075W        W13939  10.928   5.941  20.592  0.1963 -0.0020 -0.1237
13076W        W13940  16.084   5.567   5.980  0.1178  0.0037 -0.0767
13077W        W13941  11.976  13.393  20.716 -0.4189 -0.1050 -0.0696
13078W        W13942   6.696  13.170   4.813  0.1688  0.4325  0.0211
13079W        W13943   0.123   0.046  16.952 -0.4947  0.1239 -0.1555
13080W        W13944   8.729  13.328   4.541  0.1657  0.1142  0.3111
13081W        W13945  21.492  24.302  12.551  0.1429  0.0187 -0.1049
13082W        W13946   1.178  21.957   1.871  0.2835 -0.0254 -0.0183
13083W        W13947  26.525  10.426   7.153 -0.0680  0.0349  0.1521
13084W        W13948  11.652  22.060  24.971 -0.2405  0.0494 -0.1118
13085W        W13949  14.783  12.668   3.198 -0.3811  0.0056 -0.1333
13086W        W13950  23.160  26.661  26.513  0.0477 -0.0701 -0.3993
13087W        W13951  28.532  21.638  20.106  0.0749 -0.0717  0.1397
13088W        W13952   1.359   3.002  11.304 -0.1136  0.0133 -0.1930
13089W        W13953  11.457  18.305  24.742 -0.1002 -0.0374  0.1049
13090W        W13954  14.285   7.570  25.735 -0.5437  0.0261  0.0335
13091W        W13955  17.080  19.027  17.434 -0.1450  0.1092  0.2135
13092W        W13956  27.829  24.399  23.268  0.3023 -0.2435  0.1048
13093W        W13957  13.411  20.792  23.352  0.0967  0.0244  0.2793
13094W        W13958   4.100  16.219  17.037  0.1807 -0.3858  0.1428
13095W        W13959   0.309  19.223   4.250  0.0522  0.2865 -0.2116
13096W        W13960   3.117  26.492  22.081 -0.1637  0.0379 -0.1734
13097W        W13961   7.963  23.146  20.765 -0.2242  0.0283 -0.2081
13098W        W13962   6.626  23.580  22.337 -0.1407  0.2888  0.1784
13099W        W13963  11.042  16.062  17.698 -0.0358 -0.4155  0.2321
13100W        W13964  27.056   2.419   0.519  0.0061  0.2721 -0.1631
13101W        W13965  20.024   2.725  11.997  0.0810  0.0188  0.1752
13102W        W13966   0.159   4.386  25.811 -0.3309 -0.1561  0.1480
13103W        W13967  25.485   6.091   9.087  0.0368  0.1577 -0.0542
13104W        W13968  19.071   9.124  21.744  0.1456 -0.1831  0.2813
13105W        W13969  16.873  23.213   7.228  0.0142 -0.3620  0.0250
13106W        W13970  25.504  10.616  24.600  0.3527 -0.0008 -0.0041
13107W        W13971  23.486  28.424  20.101  0.2455  0.0468  0.2133
13108W        W13972   8.031  23.589   0.610 -0.0106 -0.0873  0.0424
13109W        W13973  24.811  17.880  22.916 -0.2532  0.2348 -0.3291
13110W        W13974   2.232   0.085   6.031  0.0812 -0.0319 -0.2439
13111W        W13975   6.054  10.634   2.877  0.1303  0.0305  0.1107
13112W        W13976   1.188  17.311  26.521 -0.1102 -0.1717  0.2874
13113W        W13977   1.133  14.613  23.171 -0.3599  0.0566  0.1561
13114W        W13978   7.485  22.137  19.515 -0.1059  0.1563 -0.0515
13115W        W13979  13.021  22.588  22.125 -0.0068 -0.0464 -0.3080
13116W        W13980  28.402  25.098  25.641 -0.0152  0.0109 -0.2256
13117W        W13981  12.145  15.488  13.606  0.0280  0.5469  0.1196
13118W        W13982   1.636   8.610  15.073  0.1368  0.2088 -0.0968
13119W        W13983  26.167  23.500  26.442  0.0768 -0.2205 -0.1914
13120W        W13984  27.162  22.304  26.163  0.3988 -0.1632 -0.0805
13121W        W13985  15.677  19.410   0.655  0.1342 -0.0386  0.2958
13122W        W13986   1.985  15.841   2.946  0.2786  0.1859 -0.0189
13123W        W13987   1.939  16.470   2.322 -0.0871  0.0292 -0.0583
13124W        W13988  26.474  25.558  25.624 -0.0973  0.0338  0.0846
13125W        W13989   4.968  19.049  25.323 -0.3295  0.0183 -0.0972
13126W        W13990  13.358  16.385  10.580 -0.2604 -0.0714 -0.1105
13127W        W13991  25.969   8.346  27.660  0.2402 -0.0782 -0.1567
13128W        W13992  12.637  21.568   4.306  0.2375  0.1255  0.0379
13129W        W13993  16.417  22.091  15.297 -0.0309  0.1598  0.2692
13130W        W13994  12.594  16.636  26.603 -0.1992 -0.0284  0.0528
13131W        W13995  26.666  18.076  15.581 -0.1343 -0.2854 -0.0809
13132W        W13996  10.201   8.211   2.159 -0.3425 -0.1319 -0.0205
13133W        W13997  28.455  16.814  23.125  0.3074 -0.2862 -0.1532
13134W        W13998  17.190  24.514  27.863  0.0798  0.1784 -0.2657
13135W        W13999  26.180   2.265   7.547  0.0098  0.4574 -0.1939
13136W        W14000   2.104  12.171  23.580  0.4460  0.1926  0.0781
13137W        W14001  24.276  17.069   3.917 -0.0056 -0.0782  0.2323
13138W        W14002   7.351  23.449   7.675  0.0968  0.1440 -0.0879
13139W        W14003  23.120   8.017   7.802  0.1378 -0.1656 -0.0883
13140W        W14004  24.921   3.224   1.077 -0.0729 -0.2141  0.2583
13141W        W14005  24.996  12.400  16.482 -0.1284 -0.2063  0.2788
13142W        W14006  10.657   8.237   0.881  0.2707  0.1656 -0.0646
13143W        W14007  27.159   1.817  26.149 -0.0825  0.2049  0.1564
13144W        W14008   4.211   9.883   8.993  0.0507  0.3384 -0.0014
13145W        W14009  11.292  23.177  22.510 -0.5125  0.1680  0.0514
13146W        W14010   4.549  14.542   8.448  0.2444 -0.3534  0.1246
13147W        W14011  18.051  21.876  21.712 -0.0335  0.0240  0.0280
13148W        W14012  24.758  18.257  11.510 -0.4489 -0.0392 -0.1262
13149W        W14013   6.461  10.797   1.463 -0.0532 -0.0213 -0.0684
13150W        W14014   3.768   0.253  27.720 -0.3929 -0.2157  0.1130
13151W        W14015   1.840   3.861  16.917  0.1366 -0.1562 -0.0779
13152W        W14016   0.632   8.655  29.004  0.2262  0.1944 -0.0247
13153W        W14017  11.295  26.373  19.117  0.0067  0.0044 -0.2604
13154W        W14018   2.506  15.192  27.386  0.1742 -0.0287  0.2491
13155W        W14019   8.996  14.977   5.957 -0.0310  0.2506  0.0660
13156W        W14020  11.692  19.471  16.553  0.0885  0.1124  0.1037
13157W        W14021  10.074   4.348  12.077  0.0066 -0.1749 -0.0699
13158W        W14022   4.408   3.071   5.286 -0.0456 -0.0250 -0.1922
13159W        W14023  12.127  28.751   4.317 -0.2904  0.2570  0.2113
13160W        W14024  11.252  12.337   9.483  0.0117 -0.0982  0.2200
13161W        W14025   8.654  22.016  15.699 -0.0182  0.1320 -0.0972
13162W        W14026  13.405  27.743   0.330  0.1076  0.0667 -0.1420
13163W        W14027  27.776  27.944   8.993  0.0643 -0.1326 -0.0438
13164W        W14028  18.015  19.533  23.928  0.0032  0.0402  0.3302
13165W        W14029   7.703  26.308  29.124 -0.1862 -0.1150  0.2023
13166W        W14030   4.968   5.620  10.848 -0.2072 -0.0137  0.2439
13167W        W14031  28.843   6.826  20.279 -0.1282 -0.1887 -0.0728
13168W        W14032  25.147  19.610  26.164 -0.1546 -0.2068  0.4846
13169W        W14033  23.948   6.130  24.506  0.4362  0.0670 -0.0304
13170W        W14034  25.946   5.256  11.684 -0.0870  0.0093  0.3513
13171W        W14035  25.640   1.976  18.193  0.2258 -0.2755  0.1818
13172W        W14036   3.046  11.490  23.808 -0.2886 -0.0751  0.0392
13173W        W14037  20.920  14.159  10.198 -0.0750 -0.0937  0.1881
13174W        W14038  26.077  13.513  25.178  0.0414  0.4377 -0.3089
13175W        W14039   8.226  21.931   9.901  0.1325  0.3917 -0.0086
13176W        W14040  20.637   7.292  25.351  0.0156 -0.0393 -0.0920
13177W        W14041   4.517  28.146   5.076  0.0934  0.2163  0.1397
13178W        W14042   8.026  28.251  20.523  0.2226 -0.1999 -0.1345
13179W        W14043  20.477   0.735  27.412 -0.2273 -0.3441  0.0564
13180W        W14044  14.636  28.859   0.657  0.3121  0.0548 -0.0646
13181W        W14045  11.916   9.955   0.371 -0.0184 -0.0589  0.1617
13182W        W14046   6.795   0.460   3.075 -0.0074 -0.0517 -0.0569
13183W        W14047  11.346  25.312   7.341  0.1935 -0.0158 -0.0207
13184W        W14048   8.221   8.079   3.482 -0.1852 -0.2058 -0.0698
13185W        W14049  28.272  14.526   7.016 -0.1026  0.0639  0.1796
13186W        W14050   2.164   7.626   2.778  0.0691 -0.0488  0.1220
13187W        W14051  19.041  25.244   0.096 -0.0395 -0.0239 -0.1522
13188W        W14052   1.005  18.318  23.595  0.0634 -0.2052 -0.2705
13189W        W14053   5.811   8.200   8.144 -0.1761 -0.1983  0.1306
13190W        W14054   2.395   0.791  11.315 -0.1511  0.0894 -0.1794
13191W        W14055   1.260  11.124  10.431 -0.1339  0.0432 -0.0377
13192W        W14056  27.165   6.239  22.356  0.1808 -0.0360  0.0676
13193W        W14057  27.295  24.208  12.442  0.1048  0.1371 -0.0947
13194W        W14058  25.112  12.707  23.558 -0.4711 -0.2667 -0.3460
13195W        W14059   0.402   7.125  27.234 -0.1402  0.0299  0.0533
13196W        W14060  22.535   8.350  18.322 -0.4777  0.2286 -0.1962
13197W        W14061  20.805  22.468  25.489  0.0314 -0.3017  0.0761
13198W        W14062   5.371  15.659   0.681  0.1526 -0.2440  0.2252
13199W        W14063  10.148   2.710   7.181 -0.1266  0.1484 -0.0930
13200W        W14064  18.224  17.261   7.372 -0.1797 -0.1909  0.1090
13201W        W14065  21.619   4.112   7.440 -0.1686 -0.1918  0.2452
13202W        W14066  26.605  21.855  27.702  0.0279 -0.0933 -0.0697
13203W        W14067  11.494   4.362  28.938  0.0538 -0.0065  0.0991
13204W        W14068   0.398   9.517   5.547  0.1963  0.1058 -0.3532
13205W        W14069   5.728  10.054  23.431 -0.3052  0.0236 -0.0649
13206W        W14070  14.000  15.292  21.751  0.1453  0.1075  0.0096
13207W        W14071  12.022  12.449  11.120 -0.0061 -0.0803  0.0288
13208W        W14072   3.509  18.202   2.247 -0.0469  0.1415  0.0331
13209W        W14073  27.712  11.249   9.049  0.0459  0.1823  0.1428
13210W        W14074  15.259  10.984  10.425 -0.3069 -0.2300 -0.1120
13211W        W14075  19.469  20.314  10.253  0.0234  0.3367 -0.0209
13212W        W14076  19.233  26.150  15.466  0.0543  0.1426  0.5030
13213W        W14077  24.825   6.451  26.852  0.4131  0.0436 -0.0108
13214W        W14078   5.348   3.324  27.311 -0.1960 -0.2349 -0.1627
13215W        W14079   9.816   0.497  25.663  0.1584 -0.0432 -0.0234
13216W        W14080  10.125  22.704   3.583 -0.2163  0.0903 -0.0306
13217W        W14081  10.074  16.842   6.874 -0.3486  0.0406  0.1830
13218W        W14082   3.007  27.809  28.097  0.1187 -0.1924  0.1145
13219W        W14083  25.856  17.261   2.615 -0.2756 -0.4170 -0.0068
13220W        W14084  27.039   2.052   4.182  0.1288  0.0300 -0.0864
13221W        W14085  26.139  14.415  15.666 -0.6834  0.1393  0.0518
13222W        W14086  25.966  29.084  27.272  0.2159  0.3671  0.2261
13223W        W14087   6.298  11.221   4.023  0.4529 -0.1477  0.1263
13224W        W14088   7.513  10.528   6.431  0.0549 -0.0084  0.2167
13225W        W14089   8.977   2.736   0.828 -0.0562  0.0210 -0.0899
13226W        W14090  18.330  24.784  28.136  0.1342 -0.0740 -0.0552
13227W        W14091   8.971  26.883  17.276  0.3102 -0.2146  0.1112
13228W        W14092  25.595  21.893  13.365  0.3855  0.1009  0.0137
13229W        W14093  10.652  17.956  23.644  0.1906 -0.4083  0.2749
13230W        W14094  12.674  15.229  25.589 -0.1101 -0.1217  0.0981
13231W        W14095  25.025   4.683   4.892 -0.1712 -0.1556 -0.2133
13232W        W14096  16.628   5.709   9.338  0.1075  0.1434  0.3008
13233W        W14097  25.061  13.310  19.117  0.1038  0.0075 -0.3120
13234W        W14098  18.253  16.539   1.168 -0.1319 -0.1839 -0.0302
13235W        W14099  18.499   6.114   7.114 -0.3399  0.2683  0.2241
13236W        W14100   1.862  12.109   1.341  0.0085  0.0244  0.0396
13237W        W14101  10.782  29.022   2.040  0.2422 -0.1140 -0.1904
13238W        W14102   4.040  20.040  23.500 -0.0034 -0.3007 -0.1623
13239W        W14103   8.549   7.030  23.650 -0.1255  0.1727  0.2816
13240W        W14104  15.167  13.936  23.689 -0.0010  0.2373  0.2332
13241W        W14105  12.882   0.573   9.697 -0.1780  0.0683 -0.1433
13242W        W14106  27.414   9.033  24.209  0.0391  0.3821 -0.2576
13243W        W14107   7.393  28.807   6.864  0.1742 -0.2613  0.1393
13244W        W14108  16.208   5.355  17.638  0.0121  0.1701  0.0942
13245W        W14109  19.435  20.174  27.734 -0.0289 -0.0819 -0.1380
13246W        W14110  22.752  22.636   2.422 -0.0640 -0.0112 -0.1396
13247W        W14111   9.849   2.148   5.044  0.2273 -0.0842  0.1863
13248W        W14112   0.427   7.871  20.297 -0.0166 -0.0602 -0.2612
13249W        W14113  21.329  28.932   5.072 -0.2187  0.2408 -0.0992
13250W        W14114  27.277  24.259  26.235 -0.1810  0.1361  0.0098
13251W        W14115  18.685  11.475  24.842 -0.2572 -0.0625 -0.0404
13252W        W14116  23.879  15.630  26.073  0.4015 -0.0776  0.1263
13253W        W14117  25.439  14.108  25.470  0.0144 -0.4457  0.1408
13254W        W14118  13.221   5.732   8.753  0.0235  0.0839 -0.2387
13255W        W14119  11.060  19.593   1.944 -0.0688 -0.1346 -0.0314
13256W        W14120   1.314   5.383   3.915  0.0115 -0.2952  0.0786
13257W        W14121   2.550   9.355   5.313 -0.0279 -0.0213 -0.0161
13258W        W14122   0.236  16.733  11.945 -0.5657  0.1278 -0.0118
13259W        W14123  15.734  13.399  23.356 -0.0862  0.2555  0.0879
13260W        W14124   0.411  20.997  17.754  0.0940 -0.2263  0.1601
13261W        W14125  20.050   7.373   7.735 -0.1155 -0.1439 -0.1320
13262W        W14126   1.708   3.495  22.421  0.1274 -0.3024 -0.1175
13263W        W14127   2.997  29.018   1.069 -0.4830  0.0076  0.2451
13264W        W14128   3.104  19.670   5.734 -0.2161  0.0071  0.1855
13265W        W14129  14.390  23.040  13.935  0.4344  0.2371 -0.1042
13266W        W14130  12.594   0.573  20.411  0.0388  0.2871  0.3618
13267W        W14131  26.470   0.476   3.549 -0.0518  0.1451  0.0680
13268W        W14132  15.293  20.949  12.195  0.0957  0.0523  0.0343
13269W        W14133   4.025  28.696   0.983 -0.0446 -0.0848  0.2025
13270W        W14134   9.900  19.850  26.871  0.4437  0.3646  0.1253
13271W        W14135   0.881  11.558   8.057  0.0068 -0.2428  0.1617
13272W        W14136   7.684  12.489   4.919  0.3248  0.0238 -0.0529
13273W        W14137   1.302  14.172   2.732  0.1672 -0.0816 -0.0883
13274W        W14138  17.108  15.147  25.379  0.0500  0.0197 -0.0737
13275W        W14139  27.881  28.655  24.736 -0.1038  0.1515  0.3290
13276W        W14140  22.255   6.616   4.476 -0.3110 -0.0105 -0.3097
13277W        W14141   3.711  22.152   0.189 -0.1825  0.0349 -0.2862
13278W        W14142   2.378   9.746   4.850  0.0686  0.0053 -0.2267
13279W        W14143  18.896  24.482  26.242  0.1019  0.1266 -0.3579
13280W        W14144  12.220  17.073  21.868  0.0374 -0.2407 -0.0582
13281W        W14145  27.059  28.841  26.744  0.0025 -0.0500  0.2923
13282W        W14146  10.887   0.935  16.462  0.3346  0.0009 -0.0866
13283W        W14147  26.622   3.682  27.726  0.0829  0.1677  0.2514
13284W        W14148  26.702   2.574  18.760 -0.2175  0.0393 -0.2621
13285W        W14149  16.540  14.745  20.284 -0.0488  0.1092 -0.0942
13286W        W14150   3.899   8.019   5.285  0.2517 -0.0400  0.0628
13287W        W14151   7.249   3.821  14.345 -0.1907 -0.2844  0.2831
13288W        W14152  14.279  21.751  25.109  0.2250 -0.0836 -0.0926
13289W        W14153  15.543  23.498   3.515  0.1722  0.1584 -0.0207
13290W        W14154  28.997  17.550  17.951 -0.0355  0.2092  0.1015
13291W        W14155   6.548  12.576  18.027 -0.2852 -0.0184  0.4101
13292W        W14156   6.225   1.164   1.055 -0.0370  0.0169 -0.2941
13293W        W14157   1.294  18.300  21.112 -0.2293 -0.1802  0.0321
13294W        W14158  20.264  28.639  21.283 -0.0368 -0.3134 -0.0764
13295W        W14159   2.264  10.130  23.326  0.0167 -0.3154  0.1149
13296W        W14160  14.683  14.418  28.971  0.0437 -0.0290 -0.1568
13297W        W14161  21.359  14.112   9.982 -0.3164 -0.0935 -0.1061
13298W        W14162   0.151  27.974   0.351  0.0911  0.1406  0.1375
13299W        W14163   3.530  26.416   3.370 -0.2061 -0.0428 -0.1733
13300W        W14164  12.217  16.315  29.065  0.2101  0.0714  0.2630
13301W        W14165  18.083  20.728   1.654  0.2307 -0.0581  0.2600
13302W        W14166  28.824  22.994   6.983 -0.1966 -0.0457 -0.2210
13303W        W14167  15.228  14.882  26.267  0.0594  0.0253  0.0995
13304W        W14168   8.155   6.416   9.813  0.1163  0.0219  0.1394
13305W        W14169   2.559  18.344  12.309 -0.0757 -0.1603  0.1085
13306W        W14170   3.856  18.585   5.241  0.0243  0.1217 -0.3146
13307W        W14171   0.745  21.599  28.476 -0.0378 -0.1525  0.2359
13308W        W14172   8.586   6.593   6.284  0.1015 -0.0477 -0.1587
13309W        W14173   1.090  10.555   8.585  0.1802 -0.0359 -0.0179
13310W        W14174  14.880   2.445   1.622  0.1092  0.1549  0.2115
13311W        W14175  13.118  18.093   9.095  0.0617  0.2050  0.0572
13312W        W14176  11.233  23.418   0.179  0.3171 -0.1384 -0.0231
13313W        W14177  27.776  10.661  22.795  0.0003  0.1731 -0.1913
13314W        W14178  16.451  16.400   4.039 -0.0475  0.1699  0.1371
13315W        W14179  22.057  15.262  17.449  0.0351 -0.2019  0.0124
13316W        W14180   1.096   5.865  18.526 -0.0141 -0.2314  0.1745
13317W        W14181  29.120   3.284  18.018 -0.2729 -0.2094 -0.0847
13318W        W14182  13.019  26.666  26.125  0.1159  0.2851 -0.1884
13319W        W14183   5.985  18.865  14.259  0.0184  0.2614 -0.1281
13320W        W14184  16.603   1.673   2.801  0.1286  0.0867  0.1128
13321W        W14185  16.065  16.847  19.306  0.3199 -0.0545  0.1786
13322W        W14186  21.727  11.593   5.482  0.3235  0.5653 -0.1146
13323W        W14187  16.547  26.706  28.164  0.2162  0.4901  0.0502
13324W        W14188  16.263   1.992  28.676  0.3265 -0.0251 -0.0366
13325W        W14189  23.828   7.404   8.195  0.0456 -0.1706 -0.4655
13326W        W14190   5.309   3.317   9.353 -0.0302  0.1327 -0.1681
13327W        W14191  10.253   6.442  20.034  0.0804 -0.1407  0.1092
13328W        W14192  11.037  15.640  18.487 -0.0716  0.0128  0.1771
13329W        W14193   1.141  15.282   2.094 -0.0819  0.2357 -0.1266
13330W        W14194  21.186  16.499  18.477  0.2330 -0.1978  0.0922
13331W        W14195   0.786  18.352  11.236 -0.1917  0.2525  0.0706
13332W        W14196  24.798  22.317  10.635  0.2273  0.3325  0.0432
13333W        W14197  25.348  19.587  24.733 -0.2044 -0.2323  0.0892
13334W        W14198  19.099  11.916   1.654 -0.6811 -0.0604 -0.0384
13335W        W14199   4.435  10.673  14.416 -0.0872  0.1388  0.1218
13336W        W14200   3.133   8.952  26.835 -0.0091  0.1392 -0.0648
13337W        W14201  15.061   1.404  26.542 -0.0630  0.0696 -0.3620
13338W        W14202   2.368  17.815   5.901  0.2149  0.1938 -0.0544
13339W        W14203   4.535  27.853  14.444 -0.1917  0.0043  0.1060
13340W        W14204  15.104  25.902  11.338 -0.2743  0.0006  0.1971
13341W        W14205   1.763  28.436  10.253  0.0284 -0.2821 -0.2456
13342W        W14206  18.530  14.003  12.014  0.3729  0.1594 -0.1418
13343W        W14207  23.527   4.858  28.814  0.0109  0.1876 -0.2505
13344W        W14208   3.496   2.503   3.349  0.1167  0.0325 -0.0771
13345W        W14209  22.747   3.577   7.390 -0.1371  0.1756  0.3833
13346W        W14210   3.043  19.619   3.882  0.0442  0.0946 -0.0080
13347W        W14211  21.205  13.901  14.554  0.0410  0.1540 -0.0166
13348W        W14212   6.996  24.138  21.043  0.0016 -0.1579 -0.0215
13349W        W14213  13.382   4.976  13.562  0.1061  0.0244 -0.1107
13350W        W14214  18.117  24.858   6.080  0.0982  0.1690  0.0586
13351W        W14215   8.964  12.491  19.446 -0.1949  0.0710 -0.0477
13352W        W14216  16.659  10.200   6.532  0.0909  0.0072  0.1109
13353W        W14217  16.847  19.342  27.191  0.0623  0.1676  0.1640
13354W        W14218  22.659   4.696   7.227 -0.0178  0.0719 -0.0861
13355W        W14219  27.071  13.188   5.812 -0.0179 -0.0720 -0.1426
13356W        W14220   9.741  12.741  26.996  0.1539  0.3309  0.3365
13357W        W14221   7.210   9.979   3.702 -0.0119  0.1854  0.0192
13358W        W14222   9.146   1.427   1.347 -0.1060  0.2781  0.0789
13359W        W14223   9.187  15.542  24.097  0.0371  0.0103 -0.3342
13360W        W14224   7.916   7.884  28.304  0.1381  0.3413 -0.4021
13361W        W14225  23.002   5.779  11.875 -0.2140  0.3155  0.1711
13362W        W14226  10.848   6.598  27.362  0.1058 -0.0108  0.2072
13363W        W14227  15.480   3.523   6.513  0.0958  0.0401 -0.4791
13364W        W14228  17.194  16.689  14.855 -0.1192  0.1799  0.1090
13365W        W14229  10.775  20.276  28.820 -0.2801  0.3954  0.2957
13366W        W14230   0.990  20.678   2.003 -0.1891  0.0686  0.1173
13367W        W14231  22.644  18.791   5.277  0.1261  0.0135 -0.1593
13368W        W14232   8.828   5.020   2.672 -0.1581 -0.2969 -0.0153
13369W        W14233  14.184  11.953   7.436  0.0806  0.1718  0.0394
13370W        W14234  26.214   9.720   8.916 -0.0092  0.0938  0.1072
13371W        W14235   9.030  23.222   8.426  0.0053 -0.0577 -0.1958
13372W        W14236  28.766  24.828  27.012 -0.2326 -0.0472 -0.0839
13373W        W14237  28.522  10.169  24.751 -0.2982 -0.0434  0.0415
13374W        W14238   6.586   9.136   9.496 -0.3438 -0.3006  0.1557
13375W        W14239  18.566   1.361  28.870  0.2950  0.0183 -0.0919
13376W        W14240  18.183  16.318  10.442  0.0029  0.4942  0.3384
13377W        W14241   8.214  22.005  12.022  0.2793  0.1634  0.3223
13378W        W14242  20.925  23.883   2.586 -0.0263 -0.1280 -0.0050
13379W        W14243  10.101  20.702   7.482 -0.0895  0.0585 -0.2819
13380W        W14244   6.618  23.612  11.454 -0.2434  0.0744 -0.0238
13381W        W14245  27.298   8.404  28.310 -0.0934 -0.0576 -0.0055
13382W        W14246  10.584  10.748  10.054 -0.2685 -0.2736 -0.0209
13383W        W14247  11.148  26.520   0.813 -0.1634  0.4082 -0.1000
13384W        W14248   1.722   3.066   6.144  0.3435  0.1442 -0.0042
13385W        W14249  22.654   5.273  26.463  0.2051  0.1729 -0.0345
13386W        W14250   9.417  27.909  28.606 -0.3170 -0.2470  0.1658
13387W        W14251   8.106  19.038  18.253 -0.0890  0.5509  0.0596
13388W        W14252  13.393  12.031  27.568 -0.0514 -0.0001 -0.1076
13389W        W14253   3.920  20.005  24.937  0.1763 -0.1827  0.1792
13390W        W14254   9.852  20.234  28.169  0.4207  0.1842 -0.0048
13391W        W14255  13.915   6.418   2.663  0.0220 -0.0181 -0.0990
13392W        W14256  28.024  20.241   3.873  0.4552  0.0246 -0.0811
13393W        W14257  24.824  13.227   8.350  0.1127 -0.0049  0.1990
13394W        W14258  14.237  11.980  26.846 -0.1501  0.1421 -0.0246
13395W        W14259  21.486   5.420   9.482 -0.0391 -0.3436  0.1891
13396W        W14260   8.311  11.806  12.085 -0.0312  0.0857  0.1157
13397W        W14261  21.789  14.437  28.326 -0.0185 -0.2375  0.2920
13398W        W14262  13.908  15.459   3.617  0.1805 -0.1362 -0.0842
13399W        W14263   2.013   1.260  24.454 -0.0886 -0.2757 -0.1732
13400W        W14264  23.732   8.323   0.798  0.0030  0.2835  0.0876
13401W        W14265  22.004  19.220  19.497  0.1197  0.0146 -0.0502
13402W        W14266  12.567  21.153   5.997  0.1920  0.1865  0.1226
13403W        W14267   5.255  21.789   5.191 -0.0460 -0.1184  0.0962
13404W        W14268   0.918   6.765  23.267  0.2591  0.0412  0.0318
13405W        W14269   2.859  15.524  15.864  0.0274  0.1710  0.0262
13406W        W14270  11.905   2.139   5.976  0.3404  0.4565  0.1507
13407W        W14271  13.600   7.227  28.711  0.0817 -0.2652 -0.0207
13408W        W14272  26.775  14.581  25.479 -0.0772 -0.1371 -0.1972
13409W        W14273  28.878  25.808   4.909 -0.4785  0.1522 -0.0249
13410W        W14274  27.913  20.851   8.915  0.2578 -0.3587  0.1163
13411W        W14275  20.403   8.732  28.644  0.4250  0.3564 -0.3084
13412W        W14276   9.144   7.559   2.611 -0.1330  0.0660  0.0156
13413W        W14277  20.845  20.207  26.191 -0.0547 -0.1136  0.0700
13414W        W14278  15.334  15.996   7.875  0.1346  0.0760  0.0568
13415W        W14279   7.505  23.215  16.057  0.0916  0.2723  0.5396
13416W        W14280  23.514  14.805   3.601 -0.1437  0.6009 -0.0188
13417W        W14281  16.848  21.100  24.351  0.0619 -0.3543  0.3271
13418W        W14282   6.999  22.006  15.998 -0.1390  0.0595 -0.2289
13419W        W14283   5.537  13.541   7.451  0.2142 -0.0781  0.1637
13420W        W14284  15.836  13.266   7.477  0.2100 -0.0419 -0.3192
13421W        W14285  15.505   1.851   4.234 -0.0346 -0.0479  0.1055
13422W        W14286  25.864   6.042   4.136 -0.1043 -0.2230  0.0347
13423W        W14287  28.925  23.320  24.658  0.0049  0.5727  0.0379
13424W        W14288  24.987  18.136  26.539 -0.1520  0.1302  0.1907
13425W        W14289  18.714  16.660  11.061  0.0232 -0.3799 -0.2958
13426W        W14290  23.175  14.242   2.957 -0.0379  0.1520 -0.0802
13427W        W14291  27.070  22.612  24.050  0.0244  0.3342 -0.0341
13428W        W14292  19.231  27.657   8.829  0.0380 -0.2719 -0.3394
13429W        W14293   1.019  16.371   2.331  0.0553  0.5828  0.0301
13430W        W14294  16.078  27.166  28.805  0.0889  0.1682 -0.1927
13431W        W14295  20.460  20.113   1.830 -0.0414 -0.0138  0.1086
13432W        W14296   1.090  16.734   9.785 -0.1428 -0.1324 -0.0318
13433W        W14297  23.508  21.745  15.677  0.0808  0.2498 -0.0175
13434W        W14298   7.564  27.395   8.687  0.0761 -0.2073  0.0849
13435W        W14299   4.388  15.596  11.885 -0.3441 -0.2260 -0.1919
13436W        W14300   6.151  10.783  25.824 -0.0092  0.0422 -0.3039
13437W        W14301  24.989  13.945   8.393 -0.1096  0.0865 -0.1104
13438W        W14302  25.968   2.449  12.858 -0.0904  0.1564 -0.4153
13439W        W14303  14.051  28.855   8.025  0.1821 -0.0629 -0.2957
13440W        W14304  12.812  26.417  14.536 -0.0824 -0.3064  0.0352
13441W        W14305  26.824   0.040  16.073  0.1579 -0.0838 -0.1618
13442W        W14306  10.132   4.808   3.740  0.1547 -0.0772  0.0746
13443W        W14307  11.124   7.054   3.095  0.1926  0.2752  0.0571
13444W        W14308   5.765  16.588   8.258  0.0396  0.0487  0.1232
13445W        W14309  25.306  17.981  20.861  0.1194 -0.3668 -0.0461
13446W        W14310  20.527  16.090   3.157 -0.1090 -0.3702  0.1269
13447W        W14311  17.282  19.185  25.023  0.1076 -0.2082 -0.4199
13448W        W14312  11.030  20.914  19.762  0.0546  0.3917 -0.0709
13449W        W14313   2.712  27.974  17.237 -0.2117 -0.0924  0.0933
13450W        W14314   3.767  18.265  20.538  0.2514 -0.0884  0.0591
13451W        W14315   1.539  27.090  26.018 -0.2913 -0.2039  0.0966
13452W        W14316   7.060  17.489  25.916 -0.0481 -0.0225 -0.0020
13453W        W14317  28.711  26.284  13.610 -0.1130 -0.0822  0.1726
13454W        W14318  21.063  15.587  19.011 -0.3946 -0.1732 -0.0714
13455W        W14319  13.527  23.151   9.780  0.0904 -0.3692 -0.0981
13456W        W14320  11.179  20.901   0.159  0.2079 -0.1082 -0.0188
13457W        W14321  25.816  21.182   9.708  0.0627  0.0144  0.0373
13458W        W14322   7.444   3.416   3.007  0.2794  0.1648 -0.1912
13459W        W14323   6.095   8.421   0.947  0.2377 -0.0415  0.2990
13460W        W14324  25.582  12.297  21.398 -0.0888  0.0384  0.0167
13461W        W14325   7.176  13.227   6.620 -0.1383 -0.1861  0.0460
13462W        W14326   2.642  16.017   7.294  0.2356 -0.2573 -0.0070
13463W        W14327   0.412   8.839  22.501  0.1451  0.0636 -0.1054
13464W        W14328  10.895  25.391   1.932  0.0304 -0.2990 -0.1358
13465W        W14329   0.224  22.756  10.456  0.2359  0.0946 -0.0987
13466W        W14330  22.112  16.469  10.199 -0.0892 -0.0596 -0.0770
13467W        W14331  24.099   8.083   4.037  0.1738 -0.2749 -0.0930
13468W        W14332  23.547  17.186  12.955 -0.0057 -0.3147 -0.3101
13469W        W14333  23.942  14.384  12.768 -0.2203 -0.1336 -0.1343
13470W        W14334  17.048   6.207   2.584 -0.2240 -0.0174  0.2455
13471W        W14335  13.181  16.992   7.235 -0.1075 -0.0002 -0.0349
13472W        W14336  26.282  10.514  26.295  0.0496  0.1072 -0.1488
13473W        W14337   4.224   6.586  27.093 -0.2004  0.0433  0.0281
13474W        W14338  22.113  11.523  13.139  0.1551  0.3731 -0.0621
13475W        W14339  10.873  18.924   6.437 -0.2745  0.0700 -0.2002
13476W        W14340  25.109   9.933  11.446 -0.4580  0.0449  0.0681
13477W        W14341   8.948   2.970   9.501  0.1384 -0.2966 -0.1118
13478W        W14342   7.959   7.673  21.069  0.0876  0.1232  0.0943
13479W        W14343   6.221   2.500   4.190 -0.2290  0.0149  0.0455
13480W        W14344  17.018   4.115   5.636  0.0087 -0.2065  0.0113
13481W        W14345  22.466  21.743   1.345 -0.1844 -0.1531 -0.0582
13482W        W14346   5.606  25.335  13.465 -0.0105  0.0565 -0.0309
13483W        W14347  24.951   8.956  10.868 -0.0621  0.1657 -0.0418
13484W        W14348  26.875   6.847  23.200 -0.1069 -0.2504  0.0017
13485W        W14349   0.672  14.774  26.989 -0.0221 -0.1028 -0.1395
13486W        W14350  18.533   6.210  18.563  0.2700 -0.1601 -0.0550
13487W        W14351  22.937  22.946  28.768 -0.0777  0.2479 -0.0012
13488W        W14352   4.328  23.213  27.056  0.0512 -0.0770  0.0561
13489W        W14353  27.765   2.917   1.026 -0.2379  0.1029  0.2077
13490W        W14354   9.091  26.483   6.945  0.1138 -0.3047  0.1590
13491W        W14355  23.567   8.044  21.741  0.0674  0.2420 -0.1731
13492W        W14356  25.286  26.115   8.088 -0.0351  0.0800  0.3193
13493W        W14357  27.337   4.888  24.103 -0.0811 -0.3127  0.1509
13494W        W14358   2.542   7.224   7.960 -0.0017  0.2481 -0.1720
13495W        W14359  18.916  13.684   0.393  0.0014 -0.0223  0.1654
13496W        W14360  16.197  10.137   8.771 -0.0074 -0.1333 -0.2000
13497W        W14361   7.264  23.684  17.437 -0.1068  0.1645 -0.1397
13498W        W14362  14.680   2.341  19.873 -0.0792 -0.0514  0.2206
13499W        W14363   9.682  13.232   5.683 -0.1810  0.2094 -0.1113
13500W        W14364  23.554  16.273  17.580 -0.1027 -0.1031  0.2239
13501W        W14365   7.999  23.868   2.026 -0.0461 -0.3083 -0.0868
13502W        W14366  28.908  15.290  28.569 -0.2223  0.2647 -0.1178
13503W        W14367   2.258  15.131  15.661 -0.1607  0.1519  0.2428
13504W        W14368   4.534  13.430  11.687  0.1818  0.1877  0.1194
13505W        W14369  23.053   6.272   9.979 -0.4671  0.1137  0.0303
13506W        W14370  16.573   6.343  26.759  0.2870  0.0321 -0.0459
13507W        W14371  24.770  10.560  16.199 -0.3242 -0.1413 -0.0261
13508W        W14372  17.982   7.941   3.211  0.1816  0.0638 -0.1368
13509W        W14373   5.160  13.168   9.816 -0.0959  0.0090 -0.1249
13510W        W14374   8.651   1.458   1.163  0.0906  0.3004 -0.0485
13511W        W14375  19.591  16.463  28.539  0.1920 -0.1959  0.1428
13512W        W14376  12.850  22.724   3.008  0.3714  0.1702 -0.2229
13513W        W14377   4.198  18.245   1.375 -0.1217  0.2746  0.1798
13514W        W14378  21.528   1.483  25.693 -0.1402 -0.0293 -0.0981
13515W        W14379  18.656  19.954  10.887 -0.2351 -0.4067 -0.1197
13516W        W14380   8.302  19.314   9.035 -0.1119  0.1351 -0.1192
13517W        W14381  17.776  19.384  13.113  0.0003  0.0562  0.0763
13518W        W14382   6.257  22.162  11.188  0.2808  0.3881  0.1140
13519W        W14383   0.851   6.775  16.319 -0.0890 -0.2236  0.1617
13520W        W14384   0.313  11.791   9.644  0.0164 -0.3013 -0.1872
13521W        W14385  20.039  23.309   4.058  0.3077 -0.1700 -0.3297
13522W        W14386  19.685   1.454  11.794  0.1348  0.1285  0.0425
13523W        W14387  11.582   4.395   3.763  0.1126  0.1022  0.2282
13524W        W14388   1.292  27.935  15.409 -0.1644  0.2209  0.4053
13525W        W14389  25.619   8.551   7.609 -0.0274 -0.0959 -0.1175
13526W        W14390   6.266  13.970   9.055 -0.2452 -0.2394 -0.0766
13527W        W14391  11.438   1.899  12.058 -0.1935  0.1416 -0.0668
13528W        W14392  27.259  16.346   6.890  0.1284  0.1616  0.0964
13529W        W14393   1.745  27.030   6.387  0.0864 -0.2643 -0.1590
13530W        W14394   5.866   2.765  21.799  0.4411  0.1829  0.0500
13531W        W14395   4.387  23.510  28.839 -0.3988 -0.0838  0.1808
13532W        W14396  25.139  18.400  17.914 -0.1184 -0.1435  0.1939
13533W        W14397  29.092  18.362   6.913  0.0555 -0.2084  0.2906
13534W        W14398   4.082  17.382   4.280 -0.0751 -0.1870  0.1840
13535W        W14399   4.263  10.156   5.205 -0.1053  0.1008  0.3466
13536W        W14400  12.574   3.875  18.721 -0.3390  0.0585 -0.0694
13537W        W14401  27.195  15.165   2.072 -0.0269  0.1539  0.4251
13538W        W14402  12.070  21.401  16.079  0.1503  0.1380 -0.0915
13539W        W14403  11.703  24.156  23.915  0.2237 -0.2123  0.2989
13540W        W14404  10.573  27.678   4.904 -0.1637  0.2032 -0.0822
13541W        W14405  14.378   6.456   3.767  0.1993 -0.1264  0.0383
13542W        W14406   3.021   2.143  27.237  0.1808  0.0079 -0.0045
13543W        W14407   1.191   3.923  23.628 -0.5442 -0.2013 -0.1369
13544W        W14408  27.323  13.974   0.690  0.1286 -0.0348 -0.0026
13545W        W14409  13.574  25.364  11.578  0.0345 -0.1058  0.2191
13546W        W14410   3.472   4.665   5.293 -0.0101  0.3145 -0.0092
13547W        W14411  19.640   8.711  26.203  0.0082 -0.2934 -0.2886
13548W        W14412   0.630   7.393  10.569 -0.1107 -0.0108 -0.0632
13549W        W14413  11.717  28.654   3.358 -0.0741  0.2558  0.0509
13550W        W14414  23.692  24.733  27.515 -0.2501 -0.1071 -0.0853
13551W        W14415  19.403  11.964   5.347  0.2002 -0.0385  0.0092
13552W        W14416  22.137  18.974  25.954 -0.0710 -0.2372 -0.0954
13553W        W14417  25.837  12.200   1.561  0.0414  0.1944  0.2369
13554W        W14418   0.848   8.660  10.238 -0.3852 -0.0645 -0.1733
13555W        W14419  16.476   2.114   9.486 -0.0272 -0.4686 -0.0350
13556W        W14420   4.423  13.397  10.347  0.1431 -0.1851 -0.0249
13557W        W14421  28.152  10.196   5.090 -0.0677 -0.2458  0.1914
13558W        W14422  16.657  18.339   3.788  0.4467  0.0615 -0.2192
13559W        W14423   4.110   8.897  22.283  0.2195 -0.2136  0.2694
13560W        W14424   4.032  24.657  11.167  0.0321 -0.3614 -0.1558
13561W        W14425  19.790  16.847   3.255  0.0445 -0.3365 -0.0211
13562W        W14426  17.458   0.247  23.282 -0.1464 -0.3575  0.2923
13563W        W14427  26.816  11.591  13.588 -0.0896  0.2706 -0.1864
13564W        W14428  23.859  15.266  11.826 -0.0098 -0.0383  0.0854
13565W        W14429  28.898   9.778  14.797  0.0924 -0.2361  0.1315
13566W        W14430  26.288   9.349   4.097  0.0606  0.1061  0.1584
13567W        W14431   1.249   4.865  19.253 -0.0764 -0.3533 -0.2283
13568W        W14432  16.424  10.275  14.251 -0.0726  0.1325  0.0060
13569W        W14433   3.808  24.598   0.099  0.1296 -0.1638  0.2530
13570W        W14434   6.063  17.004  26.129  0.3148  0.0687 -0.3436
13571W        W14435   6.006  23.074  11.890 -0.0710  0.0579 -0.0864
13572W        W14436  12.363  13.333  15.763 -0.1252 -0.1704 -0.0114
13573W        W14437  22.871  18.073  23.817  0.0691  0.0157 -0.3135
13574W        W14438   6.390  18.385  13.613 -0.1904  0.1307  0.2224
13575W        W14439  26.126  12.145   8.624  0.0663 -0.0535 -0.0838
13576W        W14440  19.446  22.074   5.874  0.0849 -0.3258  0.1866
13577W        W14441   0.170  25.778   7.244 -0.1067 -0.0730 -0.0401
13578W        W14442   0.991  26.558  26.041 -0.0555 -0.0042  0.0069
13579W        W14443  12.112  27.874  20.983 -0.1640  0.0706 -0.0795
13580W        W14444   4.269   4.386  20.478 -0.0585 -0.3216  0.0227
13581W        W14445  15.968   0.216  19.712  0.0762 -0.0778  0.0144
13582W        W14446   7.019  24.954  26.230  0.3318 -0.1301 -0.4077
13583W        W14447   2.532  19.183   7.981 -0.3669  0.0430  0.1046
13584W        W14448  11.519  15.933  24.187 -0.1538 -0.0422 -0.1731
13585W        W14449  24.672  10.101   8.363 -0.2512 -0.0039  0.0229
13586W        W14450  25.020   9.748  21.320  0.3781  0.0640  0.2934
13587W        W14451   6.044  10.028   4.748 -0.0244  0.0202 -0.1262
13588W        W14452  12.922   1.304  14.318  0.1132 -0.0036  0.0678
13589W        W14453  21.207  19.403   4.748 -0.2574  0.0727  0.0442
13590W        W14454  22.281  17.837  25.004 -0.0268  0.0097 -0.3094
13591W        W14455  23.984  22.514  17.223 -0.1556 -0.0819 -0.2119
13592W        W14456   2.331  28.262  14.058  0.0969  0.1403  0.2265
13593W        W14457  14.808   9.734  29.143  0.0132  0.2436  0.0537
13594W        W14458  27.957  23.915   1.882  0.2699 -0.2399 -0.0459
13595W        W14459   1.333  16.488   7.529  0.0294 -0.0929 -0.0164
13596W        W14460   1.886  27.524   7.692  0.0899  0.2320  0.1130
13597W        W14461  22.901   7.266  28.972  0.0697 -0.4407 -0.1705
13598W        W14462  27.720  13.830   1.099  0.0492  0.3284 -0.1312
13599W        W14463   3.123   7.482  15.311 -0.0288 -0.0018  0.1745
13600W        W14464   6.526  12.670  10.290 -0.0767  0.2642  0.1673
13601W        W14465   1.282   8.425  24.132 -0.1254 -0.0335 -0.2096
13602W        W14466  27.239   9.554  14.354  0.2447  0.1496  0.1017
13603W        W14467  24.149   9.392   3.193  0.0626 -0.0541  0.0133
13604W        W14468   3.124  12.015  24.535  0.2621 -0.1704 -0.1408
13605W        W14469  22.815   6.135   5.037  0.2313 -0.1559  0.1106
13606W        W14470  11.215  27.705  20.582  0.1002  0.1743  0.1635
13607W        W14471  10.989  22.898   1.606 -0.1842 -0.2250  0.0201
13608W        W14472  12.417   6.007   0.020  0.1767 -0.1775 -0.2667
13609W        W14473   4.396  26.723   9.857 -0.0648 -0.0725 -0.1096
13610W        W14474  24.675   7.558  11.518  0.0410  0.1609 -0.1160
13611W        W14475  21.902  10.910  13.965 -0.2986 -0.2890 -0.1654
13612W        W14476  25.302  10.195  24.749 -0.1874  0.1822 -0.0228
13613W        W14477   7.992  15.755  11.974  0.0472 -0.3002  0.1697
13614W        W14478   5.102   9.230  27.571 -0.1331 -0.2555 -0.0995
13615W        W14479  27.684  19.056  21.696 -0.0685  0.3275 -0.0366
13616W        W14480   8.614   1.767  10.350  0.0685 -0.2291 -0.0481
13617W        W14481  12.946  15.107   1.305 -0.3540  0.0676  0.1310
13618W        W14482  27.828  23.011  23.352  0.0555 -0.0555  0.2023
13619W        W14483  26.818  21.997  18.422 -0.0308  0.1530 -0.1805
13620W        W14484  29.143   0.480  26.459 -0.0686 -0.1245  0.1866
13621W        W14485   5.251   1.342   8.162  0.1582  0.2685 -0.3087
13622W        W14486   2.807   8.504   8.712 -0.1031  0.1063 -0.2029
13623W        W14487   1.596  20.980  26.310  0.0251 -0.0046  0.0548
13624W        W14488   8.309  20.369  19.607 -0.2979  0.1652  0.0215
13625W        W14489   2.627   2.855   4.262 -0.3117 -0.0842 -0.5203
13626W        W14490  17.445   8.847   8.230 -0.1837 -0.1477  0.1963
13627W        W14491   8.860   7.223  13.656  0.0665 -0.3629 -0.1929
13628W        W14492   9.936   6.017  10.531 -0.3659 -0.0228  0.3854
13629W        W14493  17.165  13.826  14.910 -0.1014 -0.0842  0.2450
13630W        W14494  26.105  28.831  18.333  0.2457 -0.0430 -0.0134
13631W        W14495  25.685  16.775   5.649 -0.1139 -0.2316  0.0606
13632W        W14496  19.758   9.809  14.652 -0.2248 -0.0016 -0.2346
13633W        W14497  24.447   6.069  17.435  0.3615  0.1510 -0.0200
13634W        W14498   2.979   4.449   6.396 -0.0113 -0.2168  0.2360
13635W        W14499  21.317  16.746  22.945 -0.1013 -0.2940  0.0107
13636W        W14500  16.152  26.844  17.942  0.3293 -0.0996 -0.1021
13637W        W14501  11.600  26.929  20.582  0.0414 -0.3830 -0.2846
13638W        W14502  11.327  16.880   1.067  0.0232  0.1139 -0.0053
13639W        W14503  19.357   3.874  12.841 -0.4369 -0.1424  0.1966
13640W        W14504  12.631  25.067  11.689 -0.0748  0.0342  0.2059
13641W        W14505   6.250  23.159   8.441  0.2185 -0.0441  0.1695
13642W        W14506   9.994   9.413  11.916 -0.1014 -0.1267  0.1652
13643W        W14507  26.341   3.175  13.262 -0.0051  0.0258  0.1326
13644W        W14508   8.797  16.499  26.522  0.0196 -0.1008 -0.0236
13645W        W14509  26.391  21.396  23.621  0.4018  0.1216 -0.2862
13646W        W14510  15.371  29.110   5.347  0.1139 -0.3879 -0.3817
13647W        W14511  23.746  21.359   7.673  0.1995 -0.2096 -0.2361
13648W        W14512   2.278  28.041   7.918 -0.5850 -0.0642  0.0989
13649W        W14513  11.001   6.330   3.664  0.1651 -0.0100 -0.1463
13650W        W14514   1.700  24.225  17.988  0.0989  0.2979  0.1125
13651W        W14515  13.228  26.684  22.524 -0.1221  0.2794  0.0785
13652W        W14516   3.069  12.670   1.029  0.2229 -0.1326 -0.1927
13653W        W14517   8.996   0.601   0.760  0.2187  0.1616  0.0855
13654W        W14518  20.529  25.307  11.411 -0.6238 -0.3329  0.0758
13655W        W14519  14.112  14.672  11.444  0.0621 -0.1450 -0.0041
13656W        W14520   9.109   6.788  19.179  0.0230  0.1303  0.4018
13657W        W14521  19.061  29.106  21.115  0.1629  0.0794 -0.1455
13658W        W14522  27.246  20.542   4.543  0.0484 -0.0125  0.2351
13659W        W14523   7.332   8.800  25.813  0.0194 -0.2964 -0.0530
13660W        W14524  12.764   9.165  20.585 -0.0993 -0.2342  0.3545
13661W        W14525   6.069  10.205  24.812 -0.2509  0.2655  0.1316
13662W        W14526  11.744  19.148   5.829 -0.1138  0.0490  0.1594
13663W        W14527   1.649  12.516  19.460  0.4821  0.0289 -0.2809
13664W        W14528   6.571  12.483  28.017 -0.0509 -0.0793 -0.3864
13665W        W14529  24.270  16.036   7.144 -0.0113  0.1966 -0.2973
13666W        W14530   2.463  21.261  14.800 -0.2549 -0.6219  0.0167
13667W        W14531   8.108  15.987  16.276  0.0609  0.1318  0.5044
13668W        W14532  12.964  18.373   8.630 -0.1245 -0.2068 -0.3377
13669W        W14533   9.564  16.744   6.121  0.2550  0.0782 -0.0456
13670W        W14534   5.031  17.896  27.069  0.4072 -0.0554 -0.1026
13671W        W14535   8.090  20.781  15.318  0.0150 -0.0178  0.1327
13672W        W14536  26.657   5.017   0.424 -0.1276 -0.1728  0.0128
13673W        W14537  16.088   8.135   6.466 -0.0371 -0.0565 -0.0455
13674W        W14538  21.184   3.482   7.415  0.1840 -0.0494 -0.1128
13675W        W14539   8.498  17.977   6.458  0.1072  0.0022  0.0152
13676W        W14540  22.813  26.028  10.828  0.0852 -0.0680  0.0236
13677W        W14541  20.508   7.955  28.224  0.2352  0.0785  0.0066
13678W        W14542   9.646  23.996  24.821 -0.1157 -0.3371 -0.1529
13679W        W14543  27.201   7.077  25.317  0.0407 -0.1366 -0.1101
13680W        W14544  11.139  14.187   4.912  0.0617 -0.2613 -0.1951
13681W        W14545   5.238  10.033  24.722  0.0581  0.1074  0.3851
13682W        W14546  21.575  15.529   3.378  0.2494  0.0335  0.1312
13683W        W14547  23.119  16.314  27.032  0.0073  0.3815 -0.0393
13684W        W14548   5.275  11.531   1.282 -0.0057 -0.1073 -0.0485
13685W        W14549   4.151  21.453  25.656 -0.0440  0.4171 -0.4204
13686W        W14550  25.820  13.252   1.191  0.0080 -0.1766  0.0884
13687W        W14551  14.621  19.696  17.079 -0.0310  0.0665 -0.3343
13688W        W14552   4.832  22.452   7.284  0.1215  0.2515 -0.1536
13689W        W14553  10.681  15.683   8.533 -0.1629 -0.1655 -0.0845
13690W        W14554  27.977  27.740   1.602 -0.1354 -0.0259  0.0063
13691W        W14555   5.267  21.664  15.651 -0.2506  0.1989 -0.1117
13692W        W14556  29.029   3.366  25.789 -0.1246  0.1327  0.0433
13693W        W14557  24.071  11.171   2.741 -0.0444 -0.1301 -0.1859
13694W        W14558  26.271  11.266   3.175  0.1883 -0.1406 -0.1627
13695W        W14559  20.255  16.700  27.937  0.2223 -0.2180  0.0386
13696W        W14560   9.903  25.737   0.245 -0.2928 -0.0904 -0.2129
13697W        W14561  23.915   4.997  23.868  0.0105  0.1566 -0.2164
13698W        W14562  25.365   4.847  23.864  0.1358 -0.0677  0.1000
13699W        W14563  15.837  16.814  26.711 -0.1643  0.0846 -0.3352
13700W        W14564  25.465  20.848  26.517  0.1762  0.0929  0.0012
13701W        W14565  16.526  15.776   5.404  0.4017 -0.0942  0.0278
13702W        W14566  15.388  26.192   2.446 -0.0434  0.2289  0.1951
13703W        W14567   5.587  14.302  10.374 -0.2388 -0.0137  0.0928
13704W        W14568   7.234   0.936  14.752  0.4345  0.1584  0.1425
13705W        W14569   0.940  14.447   8.531  0.1124  0.0856  0.0807
13706W        W14570  21.907  19.956   4.045  0.1483  0.1054 -0.1118
13707W        W14571   0.526  10.226   0.473 -0.0171 -0.0412  0.0634
13708W        W14572  25.562  19.674  11.480 -0.0155 -0.1466  0.0009
13709W        W14573   8.196  21.976  17.616 -0.2629  0.0246  0.0882
13710W        W14574  13.746  19.739   6.964 -0.1528 -0.0306 -0.0344
13711W        W14575   2.873  22.621  15.666 -0.1186  0.1090  0.3328
13712W        W14576   1.044   1.122  25.402  0.0319 -0.1120 -0.0582
13713W        W14577   7.770   0.045  23.694 -0.0638 -0.2103  0.0799
13714W        W14578   5.060   2.119   5.684  0.1447  0.1234 -0.1905
13715W        W14579  13.359   3.019   3.760 -0.2633  0.1352  0.1191
13716W        W14580  26.529  13.535  17.314 -0.0397  0.1218 -0.0599
13717W        W14581   6.332  24.171   7.283 -0.0630 -0.2145 -0.2847
13718W        W14582   2.211  22.910  28.083 -0.2609  0.0128 -0.0874
13719W        W14583   2.784  10.648   8.163 -0.2871  0.1970  0.1996
13720W        W14584   8.285  24.137  10.028  0.0745  0.2384  0.0530
13721W        W14585  12.934  15.993  13.233 -0.1308  0.1382  0.3795
13722W        W14586  28.693  22.401  15.339 -0.0467 -0.2240  0.0158
13723W        W14587   5.141  22.489  19.316  0.1018 -0.1445  0.5084
13724W        W14588  18.968  26.147  21.392  0.0016 -0.0181 -0.1800
13725W        W14589  18.742  14.635  10.859  0.0778 -0.0073 -0.3052
13726W        W14590  26.202  20.225  22.310 -0.0565 -0.0176 -0.0774
13727W        W14591  14.473   9.761   3.546  0.2605  0.2813  0.1334
13728W        W14592  17.740  17.127  10.289 -0.0005  0.0422 -0.1156
13729W        W14593   8.277   1.957  12.716 -0.1680  0.0031  0.2821
13730W        W14594  27.383  12.364  23.337  0.0971 -0.4521  0.0129
13731W        W14595   7.478  25.493   8.428  0.0819  0.0434  0.1232
13732W        W14596   2.306  11.620   0.443 -0.1530 -0.0595 -0.2671
13733W        W14597  22.412   2.863   3.837  0.2617  0.0036 -0.1696
13734W        W14598  13.327   7.257  29.123 -0.1008 -0.1172 -0.3622
13735W        W14599   2.638   3.903  12.776 -0.1249 -0.1775  0.1319
13736W        W14600  22.796  15.069  20.082 -0.0500 -0.1686 -0.2888
13737W        W14601  15.674  18.980  25.954 -0.1816  0.0953 -0.1514
13738W        W14602  12.020   1.100   7.013  0.2143  0.0763  0.1257
13739W        W14603  12.271  13.400  23.100 -0.1783 -0.0256  0.1583
13740W        W14604  19.327  28.001  18.414 -0.2942  0.0684  0.2965
13741W        W14605   6.036  22.528  13.822 -0.3725 -0.2557  0.1394
13742W        W14606  13.757  21.935  10.344 -0.1225 -0.0121 -0.2096
13743W        W14607   3.310   6.900  21.497 -0.1342 -0.1378  0.1089
13744W        W14608   1.774  20.923  12.167 -0.0979 -0.0538 -0.0069
13745W        W14609  17.244  11.583  16.010  0.0345 -0.0526 -0.0307
13746W        W14610   6.200  17.537  12.093 -0.0393  0.0922  0.1252
13747W        W14611  12.419   4.049   5.072  0.0634  0.4481 -0.0064
13748W        W14612   6.725   8.547  23.714  0.2636  0.0571  0.1050
13749W        W14613  10.524  21.612   9.925  0.0513  0.2302 -0.3427
13750W        W14614  26.988  15.999  25.973 -0.0707  0.1347  0.1593
13751W        W14615   3.240   7.322  18.321 -0.2878 -0.2662  0.2033
13752W        W14616   3.153  21.190  16.849  0.0831  0.0559 -0.0911
13753W        W14617  11.853  23.014   9.043  0.0022  0.0686  0.1700
13754W        W14618  24.382  17.173   9.357  0.1802  0.2552 -0.0301
13755W        W14619   4.907   3.500  27.474 -0.2163  0.0605 -0.1087
13756W        W14620   4.769  28.569  15.377 -0.1166  0.3714  0.0088
13757W        W14621  27.918   8.654   2.458 -0.1828  0.0900 -0.0035
13758W        W14622  27.663  23.404  25.795 -0.1041  0.1658 -0.3843
13759W        W14623   9.871   2.606  21.091  0.3881  0.4619 -0.1330
13760W        W14624   7.634   7.104  23.650 -0.3225  0.0426  0.0333
13761W        W14625   0.599  10.237  22.704 -0.5012 -0.0597 -0.3491
13762W        W14626  26.552  18.738  13.200 -0.1824  0.3693  0.3826
13763W        W14627   7.464  17.210   2.675 -0.4409 -0.0466 -0.0254
13764W        W14628   1.016  11.740   1.785 -0.2373  0.1053 -0.3267
13765W        W14629   4.148  19.164  14.801  0.3705 -0.0314  0.0800
13766W        W14630  27.327   0.252   6.631 -0.2807  0.1787  0.0942
13767W        W14631  12.124   5.230  12.307 -0.0042  0.0293  0.0384
13768W        W14632  15.175  16.365   8.880 -0.1009 -0.1766 -0.1602
13769W        W14633   2.651  17.362  25.914  0.0982 -0.3234  0.0745
13770W        W14634   3.922  14.833  27.587  0.3364  0.2870  0.1132
13771W        W14635   1.574  22.093   3.716 -0.1190  0.2142 -0.3441
13772W        W14636   7.478  23.068   3.845 -0.0908 -0.2036  0.0972
13773W        W14637  17.338  15.990  10.947  0.1880 -0.0250  0.1201
13774W        W14638  28.016  28.485  13.861 -0.1938  0.0457  0.0506
13775W        W14639  21.866  17.385  27.884 -0.2871 -0.0049  0.2125
13776W        W14640   4.661  11.982   4.276 -0.1220 -0.0743 -0.1113
13777W        W14641  14.246   0.196   7.881 -0.0544 -0.0967 -0.0208
13778W        W14642  13.732  12.347   8.950 -0.2694  0.0284  0.1441
13779W        W14643  20.833  21.819  16.777  0.1174 -0.0978 -0.0372
13780W        W14644  21.877   4.625  21.521  0.1550 -0.0432  0.0280
13781W        W14645  16.871  19.839   2.467 -0.1152 -0.0055  0.3087
13782W        W14646  12.585  14.489  28.795  0.0928 -0.1485  0.1772
13783W        W14647   8.837  21.314   6.301  0.2332 -0.0232  0.0585
13784W        W14648  27.385  10.799  26.649 -0.1301  0.1048  0.0509
13785W        W14649  12.198  14.635  26.103  0.1834 -0.2344 -0.3832
13786W        W14650  21.547  20.656  12.977  0.1727 -0.2636  0.0672
13787W        W14651   2.693  11.174  26.858 -0.1046 -0.3340  0.1530
13788W        W14652  18.107   0.205   9.678  0.2269 -0.2093  0.1668
13789W        W14653  27.827  14.636   7.732  0.1269  0.0837  0.1141
13790W        W14654   8.634   9.219  13.846 -0.1202  0.0674 -0.2252
13791W        W14655  19.830  21.124  16.959 -0.1675 -0.0181 -0.1379
13792W        W14656   8.834  12.972   3.606  0.0729  0.1716  0.1782
13793W        W14657   0.961  25.184  26.028  0.0140 -0.3632  0.2359
13794W        W14658  10.751  13.352  12.300  0.1806 -0.1253  0.1555
13795W        W14659  13.963  16.430   2.695  0.5007 -0.0371  0.1466
13796W        W14660   0.162  15.561  27.093 -0.2266 -0.1307  0.0591
13797W        W14661   7.601   2.336  11.558  0.0856 -0.1387  0.1489
13798W        W14662   0.040  16.120  10.936 -0.0674  0.1403 -0.2260
13799W        W14663  19.324  23.715   8.363  0.0691 -0.0586  0.1700
13800W        W14664   8.038   9.744  10.879 -0.1760 -0.0397  0.0849
13801W        W14665   5.218  18.501  19.586  0.0105  0.0239 -0.3396
13802W        W14666  24.202  28.544  28.720  0.1154  0.2298  0.0285
13803W        W14667  10.870  20.873   9.872  0.0161 -0.2561  0.1080
13804W        W14668  14.790  11.630  17.161 -0.0080 -0.0677  0.0136
13805W        W14669   7.772   8.477  27.668 -0.1126 -0.2295 -0.1218
13806W        W14670  25.858  14.907   5.044  0.1326  0.0945  0.1802
13807W        W14671  12.263  24.126   9.458  0.1926 -0.1132  0.0353
13808W        W14672   1.785   1.601   7.777  0.3841  0.0210  0.1962
13809W        W14673  21.026  16.165   7.257  0.0160  0.1601 -0.0300
13810W        W14674  27.048   4.328  13.910 -0.0661  0.0778  0.0919
13811W        W14675   1.954  24.067   7.269  0.2108 -0.1417  0.0101
13812W        W14676  24.258   7.941   3.617 -0.0836 -0.0810  0.1694
13813W        W14677   2.482  19.135  27.822 -0.0852  0.3129 -0.0061
13814W        W14678  10.026  17.826  22.128 -0.1313  0.1481 -0.0218
13815W        W14679   1.673   2.439   7.136  0.0543 -0.1491 -0.0300
13816W        W14680   2.108  15.453  27.536 -0.3419  0.3177 -0.0029
13817W        W14681  25.205   9.454  18.140  0.1159 -0.0497  0.3387
13818W        W14682   2.874   0.642  11.182  0.2425  0.1301 -0.2563
13819W        W14683   5.237  21.606  27.329  0.1153  0.4761  0.1347
13820W        W14684  24.975   5.812   4.658 -0.0246  0.1331  0.1677
13821W        W14685   0.457  23.730   9.025  0.1113  0.2346  0.0132
13822W        W14686   2.160   6.729  13.019  0.1847  0.1155  0.4037
13823W        W14687   3.601   8.827   9.204  0.1222 -0.0532 -0.1525
13824W        W14688   0.425  10.443  12.335 -0.2144  0.0265  0.1591
13825W        W14689   2.151  11.885   7.466 -0.0848  0.0136 -0.2370
13826W        W14690  26.733  14.197   5.754  0.2305  0.3673 -0.0571
13827W        W14691  23.462  18.002   4.692 -0.0397 -0.1524 -0.1733
13828W        W14692  26.287  21.203  14.585 -0.0814 -0.0919 -0.1495
13829W        W14693   0.533  11.552   8.400  0.1160 -0.1722  0.5633
13830W        W14694  28.553  16.485   3.422  0.0591  0.0702 -0.2900
13831W        W14695   1.198  19.323   2.619 -0.0596  0.1832 -0.3089
13832W        W14696   9.371  12.326  12.963 -0.1851  0.4241 -0.0044
13833W        W14697  16.092   2.905  23.486  0.0809  0.0351  0.2957
13834W        W14698  16.020   9.193  11.191 -0.3394 -0.0866 -0.2818
13835W        W14699  22.038  12.241   7.739  0.0010  0.0093 -0.1306
13836W        W14700   0.223  27.498   4.933 -0.4774  0.0359  0.1036
13837W        W14701   6.207  18.507  11.299  0.1508  0.1640  0.0740
13838W        W14702   1.618  26.420  14.391 -0.1440 -0.0637  0.0680
13839W        W14703  22.951  25.251  13.683 -0.1976 -0.1332 -0.1256
13840W        W14704  24.634  11.479  13.613 -0.1294 -0.2728 -0.2122
13841W        W14705  10.223  14.401  26.409  0.1493 -0.1366 -0.0150
13842W        W14706  27.040   9.655   1.298  0.1920 -0.0401 -0.0107
13843W        W14707   6.591  22.915  14.510 -0.0792 -0.0905  0.0692
13844W        W14708  23.586  23.379  17.627 -0.2353  0.0862 -0.1456
13845W        W14709  28.470  24.912  17.828 -0.1089 -0.3211  0.1980
13846W        W14710   4.224   6.040  22.725  0.1831 -0.0239  0.1684
13847W        W14711  19.225  22.681  12.794 -0.1354 -0.0494 -0.0141
13848W        W14712   4.218  18.568   9.713 -0.1331  0.0225 -0.0042
13849W        W14713   8.804  13.471  14.677 -0.1293 -0.3461  0.0113
13850W        W14714  13.946   7.445   6.258  0.0116  0.2203  0.1207
13851W        W14715  12.422  13.801   0.718 -0.1019 -0.1392 -0.1592
13852W        W14716  15.603   8.195   5.668 -0.0841 -0.2248 -0.0324
13853W        W14717  15.712  10.141   9.891 -0.3613 -0.2167 -0.0948
13854W        W14718  22.483  18.198   2.182 -0.1491 -0.0363  0.1500
13855W        W14719  28.754  17.525  10.386 -0.0610 -0.2036  0.0555
13856W        W14720   5.183  13.220  19.190  0.0613  0.1174 -0.1861
13857W        W14721  23.780   4.460  21.010 -0.2678 -0.0593 -0.1251
13858W        W14722   8.343  12.412   5.739 -0.0235  0.0194  0.0642
13859W        W14723  24.442  11.075   7.377 -0.1702 -0.1485  0.2226
13860W        W14724  28.681  28.628   9.715  0.0250  0.2435  0.0030
13861W        W14725   9.941  20.893  10.327  0.2078  0.0999  0.0775
13862W        W14726  15.191  10.267   1.244 -0.3936 -0.0373  0.3349
13863W        W14727  17.597   1.284  13.433  0.0309  0.0198 -0.0652
13864W        W14728   8.041  12.568  17.613  0.0260  0.1105 -0.0969
13865W        W14729  28.765  22.405  22.221 -0.0525  0.2416  0.2430
13866W        W14730  12.570  23.772  14.630  0.2326  0.1649 -0.3537
13867W        W14731  28.936  13.483   1.369  0.0347 -0.2333  0.0236
13868W        W14732   9.011   7.636  19.570 -0.0149  0.1470 -0.1575
13869W        W14733  20.095   0.651  12.245 -0.0857  0.2694  0.0486
13870W        W14734  15.520  28.153  16.200  0.1906  0.0931 -0.2924
13871W        W14735  11.454   8.717  26.127 -0.2285  0.1000 -0.2046
13872W        W14736  10.550  14.968  20.743 -0.4383 -0.0874  0.2991
13873W        W14737   3.204  16.007  14.462 -0.2311 -0.0918 -0.1933
13874W        W14738   3.751  15.294   0.294  0.1987 -0.0485 -0.2978
13875W        W14739   8.786   8.608  16.893  0.1083 -0.0242  0.0492
13876W        W14740   2.177  23.654  23.767  0.0220 -0.1077  0.0081
13877W        W14741   5.437  18.615   6.826  0.1650 -0.0860 -0.1047
13878W        W14742  18.403  18.174  12.354 -0.2083 -0.1227 -0.3786
13879W        W14743  25.675  17.859  23.185 -0.2309 -0.0643  0.2901
13880W        W14744   1.908  28.571  14.302  0.2522 -0.1646  0.0465
13881W        W14745  26.602  27.569  14.771 -0.1203 -0.1403  0.1682
13882W        W14746  17.992  27.130   8.982  0.0570 -0.0169 -0.2232
13883W        W14747   6.140   2.234  25.588  0.1260  0.1962  0.0731
13884W        W14748   5.351   2.107  27.490 -0.2065  0.1068 -0.0049
13885W        W14749  11.712   4.633   9.956 -0.2086 -0.0299  0.0744
13886W        W14750  25.621   3.745   6.976  0.2900 -0.1672  0.1291
13887W        W14751  27.837  17.610   6.427 -0.0193  0.3230 -0.1022
13888W        W14752  10.478   3.153  24.567 -0.0048  0.2703 -0.0218
13889W        W14753  18.784  16.531  25.869  0.1485  0.2142 -0.0341
13890W        W14754  12.256  18.814  28.870  0.1316 -0.2856 -0.1299
13891W        W14755  28.939   9.518  20.221  0.2429  0.1611  0.0865
13892W        W14756   4.359  19.237  22.421  0.1398 -0.0266  0.0890
13893W        W14757  26.582  17.010  13.413  0.3861 -0.0013  0.2141
13894W        W14758   5.372   1.458   1.197  0.1573 -0.1883  0.2536
13895W        W14759  17.726  24.252   9.490 -0.0424  0.0546 -0.0326
13896W        W14760   8.163   5.079  10.258  0.1603  0.1017  0.0008
13897W        W14761   4.852  18.889  28.551 -0.0273  0.1554 -0.0291
13898W        W14762   1.581  17.604  26.615 -0.0544  0.2336 -0.1161
13899W        W14763   5.064   9.578   4.274  0.1289 -0.2046  0.0028
13900W        W14764  25.670   1.954   5.193 -0.0837  0.0884  0.1127
13901W        W14765  13.411  13.567  20.536 -0.1515  0.0628  0.2840
13902W        W14766  28.746  23.642  24.028 -0.1534 -0.3806  0.0018
13903W        W14767  28.328   7.262  11.255 -0.0920 -0.1625  0.2040
13904W        W14768  28.354  13.955   7.348 -0.1174  0.2868 -0.3391
13905W        W14769  13.510  28.611   9.475 -0.0719  0.1295 -0.1248
13906W        W14770   1.167  19.571  10.148  0.0887 -0.0159  0.1565
13907W        W14771   2.380  20.014  10.992  0.1387  0.1500 -0.1271
13908W        W14772  10.878  16.201  28.970  0.0334 -0.0306 -0.0989
13909W        W14773   5.486   6.989   9.096  0.1031  0.0415  0.4392
13910W        W14774  17.753  14.659  14.599 -0.0724  0.0925 -0.0901
13911W        W14775  17.362  22.321  27.620 -0.2126  0.0548 -0.2244
13912W        W14776  12.889  20.337  24.006 -0.2451 -0.1728  0.2491
13913W        W14777  25.276   2.170   5.934  0.0511 -0.1708 -0.2307
13914W        W14778   1.359   0.279   7.171  0.2133  0.1777 -0.0209
13915W        W14779  28.913  20.517   9.133  0.1544  0.1904 -0.3496
13916W        W14780  29.078  14.900  22.116  0.0209  0.0513  0.1595
13917W        W14781  24.930  20.707   9.732  0.1006 -0.1438 -0.1509
13918W        W14782  13.492   8.269   7.788  0.3105  0.2650  0.0101
13919W        W14783  12.042  21.701   3.333 -0.1825 -0.1531 -0.1031
13920W        W14784   0.813   0.277   1.942 -0.1176 -0.1536  0.3542
13921W        W14785   8.374   3.264   0.051  0.0634 -0.1526  0.0351
13922W        W14786  27.849   0.542  10.428 -0.2568 -0.2953  0.1673
13923W        W14787   7.170   8.041  18.692 -0.1248  0.0825  0.2937
13924W        W14788  20.901  11.511  19.492  0.4670  0.0573  0.2451
13925W        W14789  16.430  11.899  25.515 -0.1798 -0.1669 -0.1156
13926W        W14790   2.401  26.353  12.583  0.2204  0.2075  0.0657
13927W        W14791  23.595   1.754   6.987  0.1165  0.2755  0.1344
13928W        W14792   0.105   4.058  23.323 -0.1652 -0.1272  0.4060
13929W        W14793  27.456  22.710  11.320  0.1041  0.1510 -0.0853
13930W        W14794  27.136   6.748  20.974 -0.2745  0.2273 -0.2583
13931W        W14795  18.151  14.410  13.572 -0.4581 -0.0790  0.1393
13932W        W14796  26.863   1.395  19.943  0.1132  0.0993  0.4277
13933W        W14797   9.239  13.318  27.365 -0.2030 -0.4791 -0.0165
13934W        W14798   4.307  19.077  25.858 -0.0634 -0.2089  0.0789
13935W        W14799   7.624   4.490  17.750  0.0203 -0.0748  0.0411
13936W        W14800   4.347  20.149   5.116  0.0717 -0.1332 -0.1282
13937W        W14801  26.730  17.872  22.491  0.1126  0.0877 -0.1219
13938W        W14802  25.205  25.551   6.521  0.0289  0.2118 -0.2253
13939W        W14803   1.825   6.054  13.423 -0.1575 -0.0969 -0.0125
13940W        W14804  13.120   1.189   4.976  0.0710 -0.0343 -0.0354
13941W        W14805  13.523  11.742  14.930  0.0516 -0.2893  0.2499
13942W        W14806   3.805   7.677   9.930  0.4698 -0.2873 -0.3968
13943W        W14807  24.124  19.771  17.114  0.0597 -0.0908  0.0751
13944W        W14808  26.451  23.329  25.226  0.0566  0.2428  0.4694
13945W        W14809   9.160  22.096   4.641  0.0152 -0.0531  0.3030
13946W        W14810   0.376   0.015   4.359  0.1943  0.1867 -0.1976
13947W        W14811   8.501   0.570   6.340  0.1168  0.4195 -0.0179
13948W        W14812   2.570  23.365   8.393  0.2445 -0.0621 -0.1459
13949W        W14813  10.316   8.258  23.239  0.0276  0.0072 -0.0221
13950W        W14814  14.394   6.266  20.564  0.2253 -0.3028  0.0117
13951W        W14815  18.322   0.893  10.132  0.0748 -0.0616 -0.0287
13952W        W14816  10.594   6.057   3.698 -0.0098  0.0790 -0.0494
13953W        W14817   4.189   0.821  17.990  0.0873 -0.0911 -0.0121
13954W        W14818  26.682  21.214  16.342  0.0192  0.1432 -0.1156
13955W        W14819   3.648  16.434  12.139  0.1313 -0.0475  0.1157
13956W        W14820  14.586  10.592   4.443  0.2749 -0.0335 -0.0359
13957W        W14821  23.714  25.585   2.848  0.1737  0.0007  0.0325
13958W        W14822   5.280   0.634  13.295 -0.2854  0.1888  0.0387
13959W        W14823  11.324  18.947   9.710 -0.1103 -0.1378 -0.0434
13960W        W14824  26.865  20.819  22.493  0.0090 -0.1514 -0.1549
13961W        W14825   7.923  20.237  11.965 -0.0317 -0.0187  0.0938
13962W        W14826  19.828  17.672  15.396 -0.0734  0.0409  0.0755
13963W        W14827  24.721  10.495   3.371  0.0457 -0.0080  0.0950
13964W        W14828  25.568   5.200  14.160 -0.0912  0.0666  0.2286
13965W        W14829  23.350  24.992  14.493  0.0994  0.1815  0.0233
13966W        W14830  12.865   4.418  16.497 -0.1846 -0.0892 -0.0701
13967W        W14831   6.215  22.908  12.908 -0.0798 -0.0982  0.0045
13968W        W14832  23.971   3.606  13.992 -0.0343  0.0155  0.3183
13969W        W14833  15.580   9.908  15.026 -0.2105  0.2033  0.1111
13970W        W14834  26.468   8.666  19.287  0.0779  0.0628  0.1754
13971W        W14835  11.276   6.177   0.659 -0.3900 -0.2611  0.0290
13972W        W14836   8.385  25.515  22.645 -0.0292 -0.0191 -0.0455
13973W        W14837  25.644  17.560  14.546 -0.0160  0.1457 -0.1003
13974W        W14838  26.629   2.106  17.769 -0.3342  0.0372  0.0540
13975W        W14839  16.965  19.675  10.140 -0.1161 -0.1569  0.3864
13976W        W14840   0.153  17.972  15.424  0.4622  0.1151 -0.4355
13977W        W14841   2.998  28.722   4.182  0.2833  0.1014  0.3326
13978W        W14842   7.322  22.886   6.758  0.2781  0.4042  0.0081
13979W        W14843  28.217  10.508  12.623  0.0584 -0.0534  0.1021
13980W        W14844  25.983  24.619   9.781 -0.0328  0.2065  0.1123
13981W        W14845   4.025  16.918  10.760 -0.0841 -0.0272 -0.0244
13982W        W14846  20.976  24.645  11.021  0.1175 -0.1162 -0.0023
13983W        W14847  14.037  16.696   5.483 -0.2513 -0.2450  0.3704
13984W        W14848  20.560   4.215  26.763  0.2705 -0.1834  0.0554
13985W        W14849  11.152   3.657   0.857  0.2521  0.0728  0.0503
13986W        W14850  25.791  15.559  10.409  0.2074  0.0022  0.0361
13987W        W14851  11.740  15.463   8.090 -0.1617  0.4199 -0.0078
13988W        W14852  22.952   2.762   3.794  0.0445  0.2721 -0.1766
13989W        W14853   2.341   8.387  15.566  0.1831  0.1707  0.1217
13990W        W14854   3.473  17.989  21.615  0.1275  0.0139 -0.1498
13991W        W14855   4.685  15.391  10.995 -0.2943  0.1538  0.1047
13992W        W14856   5.964   3.247   7.631 -0.0677  0.2889  0.2377
13993W        W14857   5.637  20.019  21.067 -0.0817 -0.2407  0.1335
13994W        W14858   2.962  12.515   9.929  0.1969 -0.0409 -0.1625
13995W        W14859   6.316  20.419   6.240  0.0265  0.1577  0.0328
13996W        W14860  28.888  21.131   2.248  0.1199  0.0519  0.0662
13997W        W14861  15.096  14.687   2.512  0.1324  0.3513  0.0813
13998W        W14862   6.623  16.854  12.162  0.1965 -0.2428 -0.2418
13999W        W14863   8.203   6.251  18.576  0.0168  0.0644 -0.3439
14000W        W14864  26.426   1.532   0.107 -0.1456 -0.0179  0.0423
14001W        W14865   9.949   2.834  25.476  0.1102  0.2372 -0.0617
14002W        W14866   4.891  10.258  12.632 -0.2664  0.2546  0.3507
14003W        W14867  16.879   9.531  12.101 -0.1178  0.1377 -0.6269
14004W        W14868  27.235   9.234  24.704  0.0052  0.2081 -0.1816
14005W        W14869   0.141   9.530  16.162 -0.2603 -0.0741  0.1720
14006W        W14870  15.304  21.635  11.830  0.0974  0.2369  0.4593
14007W        W14871  20.454  18.644   5.843 -0.0635 -0.2142  0.0297
14008W        W14872  22.760  25.685   5.498  0.2323  0.1311 -0.0871
14009W        W14873  24.387   9.328  22.574  0.3202  0.1030  0.0933
14010W        W14874  24.991   2.478  12.941  0.3111 -0.1078 -0.3488
14011W        W14875  21.674  14.949  18.093  0.0105  0.1334  0.0156
14012W        W14876  16.541  10.485   5.047  0.2524 -0.0972  0.1719
14013W        W14877  16.235   7.450  16.289 -0.0083  0.1568 -0.1783
14014W        W14878  25.463  15.430   3.873  0.1066 -0.1851 -0.0238
14015W        W14879  26.427  13.061   5.456  0.2084 -0.1067 -0.2397
14016W        W14880  25.907   6.140  20.693 -0.0941  0.1459 -0.2135
14017W        W14881  24.494  24.855  16.519 -0.0727  0.2301  0.1390
14018W        W14882   8.924  24.634  11.690 -0.0895 -0.0870 -0.4758
14019W        W14883   4.217  26.250   9.921 -0.0663  0.3783  0.1150
14020W        W14884   1.965  24.500   2.080 -0.2784 -0.1814  0.0473
14021W        W14885  16.602  23.996  25.029  0.0626  0.0560 -0.0436
14022W        W14886  12.040   2.915  14.629 -0.2036 -0.4355 -0.2631
14023W        W14887   8.857  23.501   5.087 -0.1067  0.0882 -0.0222
14024W        W14888   3.126  28.385  13.226 -0.2113  0.0314  0.0527
14025W        W14889  24.102  26.514  10.887 -0.0488  0.0361 -0.0551
14026W        W14890   3.874   1.006  27.451  0.0193  0.0619  0.0546
14027W        W14891  11.956   6.866   6.838  0.1366  0.1651 -0.0340
14028W        W14892  28.050  28.859  26.685 -0.0762  0.0358 -0.0162
14029W        W14893  19.523   8.613  20.776 -0.3860 -0.0168  0.0067
14030W        W14894   3.255  19.331  16.539 -0.1366  0.2144  0.2009
14031W        W14895   7.150  12.519  19.125 -0.1113 -0.0791 -0.0264
14032W        W14896  24.509  18.981   1.399  0.0646 -0.0537 -0.4151
14033W        W14897   4.568  20.687  12.944  0.2350  0.2076 -0.2631
14034W        W14898  14.118  17.645   2.227  0.0767 -0.2426 -0.2286
14035W        W14899  13.871   2.329   3.231 -0.1633 -0.2238 -0.1418
14036W        W14900  27.111   6.975   7.491  0.4114  0.1410  0.0368
14037W        W14901  19.569   6.965  13.439 -0.1427 -0.1161 -0.0486
14038W        W14902   3.426  18.590  17.580 -0.1039 -0.1701  0.1855
14039W        W14903  27.109  26.127  24.376 -0.3117 -0.1354 -0.1965
14040W        W14904  12.624  10.052   4.794  0.0389  0.1184  0.1461
14041W        W14905   7.610   9.464   7.519 -0.1012  0.2985 -0.3178
14042W        W14906  25.882  11.904   4.609  0.0667  0.1110 -0.2136
14043W        W14907  19.989  18.187  17.746 -0.2651  0.2668  0.1486
14044W        W14908  14.612  10.238  22.379 -0.0529  0.2654  0.0864
14045W        W14909   6.355  23.311  23.350  0.0330 -0.2162 -0.1120
14046W        W14910  13.430   9.895  16.915  0.2204 -0.1743 -0.2707
14047W        W14911   0.660  13.409   8.290  0.0800  0.0508 -0.2523
14048W        W14912  25.739  11.188  15.051  0.1081 -0.0466 -0.0161
14049W        W14913   7.597   1.967   7.067 -0.3056  0.1146 -0.1559
14050W        W14914  14.938  12.263   2.524 -0.0811 -0.1614  0.1866
14051W        W14915  17.836  23.319  17.730  0.0548 -0.1690 -0.0009
14052W        W14916  22.989  25.700  15.581 -0.0832 -0.1438  0.3946
14053W        W14917  17.525  20.834  25.551  0.0133  0.0701  0.1300
14054W        W14918   1.229  13.850   8.998 -0.0944  0.0468  0.2900
14055W        W14919  22.907  25.045   9.044 -0.1908 -0.1868  0.1527
14056W        W14920   5.339  23.084   5.528  0.2291 -0.0529 -0.2349
14057W        W14921  26.218  15.234  19.519  0.3182 -0.1155  0.0897
14058W        W14922  14.652  25.501   3.706  0.0323 -0.1601 -0.1024
14059W        W14923  19.423   6.312  17.518  0.1671  0.0258  0.0154
14060W        W14924  13.718   1.035   4.373  0.3358  0.0611 -0.3082
14061W        W14925  28.161   1.930  23.703 -0.3639  0.2976  0.0964
14062W        W14926  27.527  19.976  15.241  0.0741  0.0420 -0.1597
14063W        W14927   3.542  27.720   5.960  0.0094 -0.0656 -0.0551
14064W        W14928  10.942   4.006   3.120 -0.2934  0.1771 -0.2543
14065W        W14929  11.777  19.991   5.950  0.1057 -0.0421  0.2101
14066W        W14930  12.429   7.882  27.020  0.0911  0.0189 -0.1312
14067W        W14931   2.452  25.102   0.231 -0.1452 -0.2846 -0.0068
14068W        W14932   6.665   8.577  13.182  0.2185  0.2619 -0.0586
14069W        W14933   7.542  12.800   0.529 -0.2167  0.0378 -0.0555
14070W        W14934   3.151  21.747   2.654 -0.2613  0.0054 -0.1858
14071W        W14935   5.842  12.067  28.187 -0.0342 -0.0204 -0.1770
14072W        W14936   7.455   7.850  24.839  0.1975 -0.1201  0.0041
14073W        W14937   3.052  22.617  10.540 -0.3816  0.0259 -0.2119
14074W        W14938  27.070  23.646  22.027 -0.0716  0.0498 -0.3731
14075W        W14939  28.248  13.658  23.920  0.2218 -0.0024  0.0547
14076W        W14940  14.849  20.440  12.130  0.0232  0.3225  0.1444
14077W        W14941  14.267  12.294  26.403 -0.2886  0.2952  0.0569
14078W        W14942   0.801  20.818  16.899  0.2141  0.0868 -0.0030
14079W        W14943  25.908   0.614  13.104 -0.1421  0.2424  0.2747
14080W        W14944   0.403   6.376  12.220  0.0548  0.0218  0.0634
14081W        W14945   6.156  28.751  13.577  0.2197  0.1312  0.0895
14082W        W14946   2.383  16.301  23.341  0.1419  0.3277 -0.0531
14083W        W14947  11.872   6.842  10.524 -0.0276 -0.2820 -0.0316
14084W        W14948  16.168  17.816  13.379  0.0958  0.1764  0.1316
14085W        W14949  23.290  20.894  20.663 -0.1314  0.0200  0.3932
14086W        W14950  25.538  29.092  11.840  0.0437 -0.0887  0.3999
14087W        W14951  25.922   1.694   5.644  0.0695  0.2785 -0.0613
14088W        W14952  23.455  17.587   3.660  0.4158  0.0874  0.0669
14089W        W14953  18.517  21.695  27.571  0.3015  0.1880 -0.1416
14090W        W14954  24.986  10.578  19.460 -0.0396  0.1856  0.2051
14091W        W14955  16.386  11.310  11.157 -0.0582 -0.2359  0.2067
14092W        W14956  21.014  14.894   4.625 -0.1172 -0.0605  0.1719
14093W        W14957   7.167  10.964  21.420  0.1033  0.3099  0.3049
14094W        W14958  28.830   4.889  24.621  0.0246  0.0920 -0.0171
14095W        W14959   4.709   7.870  16.524 -0.0080  0.1040  0.0489
14096W        W14960  21.312  20.985   5.632 -0.1010  0.1314  0.0985
14097W        W14961   0.549  18.555  13.275  0.1255  0.1377 -0.0726
14098W        W14962  13.255  19.140   9.220 -0.2731  0.0331  0.3175
14099W        W14963   5.399   6.277   7.095 -0.0894  0.2361  0.2295
14100W        W14964  24.271  26.522  14.526 -0.1901  0.1804 -0.0059
14101W        W14965   1.398  17.601  27.739  0.3326  0.2636 -0.0952
14102W        W14966   4.916  24.277   9.916  0.2700 -0.0004 -0.2609
14103W        W14967   0.289  15.828  25.318 -0.1299  0.0965 -0.1687
14104W        W14968   4.799  18.395  28.783  0.0047  0.0453  0.0942
14105W        W14969  29.118  25.561  21.565 -0.0101  0.1488  0.0800
14106W        W14970  23.626  18.065  10.108  0.3701 -0.1003  0.1210
14107W        W14971  16.354  17.029  26.516 -0.0964 -0.0008 -0.0397
14108W        W14972  26.555   5.754   2.494  0.4692 -0.0817 -0.0733
14109W        W14973  27.905  17.745  14.175  0.0462 -0.0157 -0.0463
14110W        W14974   1.598  12.787   1.999 -0.1080  0.2502 -0.0604
14111W        W14975   7.068  17.199  20.636 -0.2700 -0.0176  0.0579
14112W        W14976  10.084  18.427   3.886 -0.1950 -0.2031  0.1484
14113W        W14977   4.610   9.759   1.276  0.2662  0.1280  0.1187
14114W        W14978   7.099  12.601  10.917  0.1988 -0.1162 -0.1421
14115W        W14979   2.731   4.027  13.719 -0.1703 -0.5007 -0.0928
14116W        W14980  16.025  12.034   7.578 -0.0468 -0.2274 -0.2643
14117W        W14981   6.011   7.477  14.942  0.1452 -0.0679  0.3353
14118W        W14982   3.671   2.211  21.111 -0.0495  0.2531 -0.1030
14119W        W14983   1.036  16.610   3.526  0.6396 -0.1955  0.0234
14120W        W14984  14.197   3.991  20.172  0.1109 -0.0592 -0.1377
14121W        W14985   4.084  24.507  14.938 -0.0848  0.2083 -0.2896
14122W        W14986  20.751   5.438  22.987 -0.0389 -0.0505 -0.0589
14123W        W14987  15.142  16.801  14.507 -0.0439  0.3969 -0.2676
14124W        W14988  21.640   8.984   3.029  0.1503 -0.4687  0.2161
14125W        W14989  23.686  19.769   9.842  0.0121  0.0280 -0.2773
14126W        W14990  21.868  22.290  14.735  0.1453  0.0389  0.0560
14127W        W14991   8.931  12.726  12.167  0.4708  0.1824 -0.1917
14128W        W14992  17.490   5.309   6.603  0.2921 -0.3004  0.1614
14129W        W14993  23.587  13.642  18.040 -0.1973 -0.5087 -0.0268
14130W        W14994  19.489  22.536  15.140 -0.1349  0.3520  0.0072
14131W        W14995  27.000  25.513  11.921 -0.2022 -0.2759  0.0129
14132W        W14996  14.488  11.314  12.078  0.2695 -0.1202  0.1376
14133W        W14997  19.248   3.727  18.642 -0.0373 -0.0782 -0.1255
14134W        W14998  25.847  12.144  17.535 -0.1403  0.1911 -0.4346
14135W        W14999  21.492  10.619  27.238 -0.4080  0.0072  0.1394
14136W        W15000   6.954  28.071   8.554  0.3420  0.0296  0.0720
14137W        W15001  10.023  28.787   0.779  0.0133 -0.2186 -0.0524
14138W        W15002   3.379  20.026  18.571 -0.2142 -0.1909  0.0496
14139W        W15003  10.600  10.534  16.991  0.1616 -0.0584  0.2480
14140W        W15004   9.826   8.830  24.198 -0.0170  0.0756 -0.2489
14141W        W15005   3.169  13.333  14.653 -0.0583 -0.0211  0.2530
14142W        W15006   7.778  14.495   4.337 -0.2951  0.1224 -0.1486
14143W        W15007  25.046   0.749  11.607 -0.1945 -0.4495 -0.1402
14144W        W15008  24.769  10.065  23.451 -0.1211  0.0703  0.0624
14145W        W15009  14.717   6.459  19.215 -0.0140 -0.3544  0.0648
14146W        W15010  26.697  23.976  21.726 -0.2232 -0.0299  0.0078
14147W        W15011   3.026  15.140  21.060  0.0027  0.1418 -0.0989
14148W        W15012   8.957  11.924   9.235 -0.1542  0.0352  0.2726
14149W        W15013   8.400  18.359  28.409  0.3265 -0.0319  0.0595
14150W        W15014  28.842  20.627  13.599 -0.3671  0.0107  0.0043
14151W        W15015   3.156   7.886   2.393 -0.0469 -0.0094  0.0970
14152W        W15016  12.318   3.978  24.855 -0.3775 -0.0340  0.0375
14153W        W15017  13.010   6.469  11.213 -0.0564 -0.3130  0.0566
14154W        W15018   9.626  21.454   7.470 -0.2076 -0.1949  0.1051
14155W        W15019  16.087  16.000  28.110 -0.1397 -0.0895  0.1646
14156W        W15020  13.251   8.730   9.510  0.1300  0.1180 -0.3142
14157W        W15021  12.095   9.561   9.285 -0.2080  0.1440 -0.2932
14158W        W15022  27.621  10.827  25.041  0.0806  0.0958 -0.0839
14159W        W15023   4.249  16.170  27.295  0.1212  0.1232 -0.2256
14160W        W15024  25.129  19.565  11.965 -0.0354  0.0002 -0.3071
14161W        W15025  11.033  11.379   5.102 -0.1586 -0.0299  0.1107
14162W        W15026  27.845  14.193   6.232 -0.2361 -0.0612  0.2916
14163W        W15027   6.012  13.455  11.906  0.2831 -0.0368  0.1214
14164W        W15028   1.306  20.214  18.511  0.1247  0.1380 -0.1396
14165W        W15029  17.425  19.853  19.882  0.2041 -0.1386 -0.2067
14166W        W15030  23.502   7.588   5.190  0.0505 -0.0115 -0.3561
14167W        W15031  15.754  25.167   9.144  0.0094  0.1341 -0.0553
14168W        W15032  12.253  18.731   3.038 -0.2311  0.0721 -0.0722
14169W        W15033  28.496  24.765   4.849 -0.1497 -0.0711 -0.0955
14170W        W15034  10.666  26.773  20.514  0.0931  0.1901  0.1187
14171W        W15035   4.241  24.356   5.965  0.0103 -0.0417  0.2491
14172W        W15036  21.561   0.461   1.848 -0.1068  0.3505 -0.0290
14173W        W15037  25.114  17.741  27.959  0.4467  0.2819  0.3093
14174W        W15038   7.155  15.355  20.973 -0.1110 -0.0264  0.0218
14175W        W15039   9.096   4.319  10.794  0.1383  0.0174 -0.0044
14176W        W15040  20.570  15.219  19.855  0.1251  0.2508 -0.0649
14177W        W15041   6.285   2.321  10.590 -0.0383 -0.1461 -0.0034
14178W        W15042  21.050  26.641   1.563 -0.2553 -0.2109  0.2468
14179W        W15043   2.996  22.930  18.354  0.2639  0.0670 -0.1173
14180W        W15044  22.823  12.444  16.096  0.1217  0.0941  0.0540
14181W        W15045  21.518  14.483  22.247 -0.1356 -0.0537 -0.2373
14182W        W15046   3.466  16.537  17.863  0.2148 -0.2180  0.1390
14183W        W15047  13.249  27.847   7.377 -0.1804 -0.0035  0.1144
14184W        W15048   9.768  18.641  15.597  0.0664  0.0883  0.1001
14185W        W15049   6.935  14.928   1.327 -0.1382 -0.0113 -0.0522
14186W        W15050  16.109  16.755  12.346  0.3943 -0.1318 -0.1267
14187W        W15051  14.749  18.542   9.947  0.0297 -0.1741 -0.2101
14188W        W15052   4.185  13.435  12.089 -0.2733  0.3302 -0.0225
14189W        W15053  24.930  15.413  17.047  0.0848 -0.0378  0.0248
14190W        W15054   1.275   7.708  24.967  0.0032 -0.0059 -0.0540
14191W        W15055   0.519  12.578   3.888 -0.1197 -0.1225 -0.2652
14192W        W15056   3.404  16.010  14.011 -0.2854  0.2908  0.1303
14193W        W15057   7.991  13.975  11.084  0.1210  0.0364  0.0200
14194W        W15058  24.985  10.837   0.822  0.1590  0.0598 -0.0855
14195W        W15059  28.193  10.007   9.092 -0.1216  0.1048  0.1664
14196W        W15060   9.298  11.364   7.826  0.0712  0.3031  0.1108
14197W        W15061  13.260  14.826  28.721  0.1946  0.0284 -0.0934
14198W        W15062  10.997  23.126   8.518  0.1688 -0.0584 -0.2564
14199W        W15063   8.525  18.402  13.471  0.2596 -0.2113 -0.3199
14200W        W15064  25.476   3.853  23.482 -0.0959  0.3171  0.0111
14201W        W15065   6.278  13.462   2.039 -0.0522  0.1173 -0.1391
14202W        W15066  27.429  14.865  25.277 -0.0851  0.1597 -0.3041
14203W        W15067  14.779  23.043  10.799 -0.1909  0.1932  0.2730
14204W        W15068  17.113  24.048   2.385  0.0080 -0.1512  0.1350
14205W        W15069  26.881   0.560   5.449 -0.0033 -0.1571 -0.3169
14206W        W15070  11.609  21.631  25.954  0.0822  0.0810 -0.1041
14207W        W15071  24.929  24.879  19.533 -0.0913  0.1156 -0.0394
14208W        W15072   9.875   0.802   5.285  0.2109  0.2289  0.0080
14209W        W15073  22.744  17.275  11.650  0.1743 -0.2258  0.4851
14210W        W15074   4.563  10.227   3.278 -0.0704 -0.0647  0.3098
14211W        W15075  27.595  12.130  17.644 -0.0785 -0.0477 -0.3459
14212W        W15076   8.515  10.952   7.768 -0.0334 -0.1959 -0.2131
14213W        W15077  20.384  17.983  20.131 -0.3507 -0.0755  0.3146
14214W        W15078   7.992  23.682  14.736 -0.2069 -0.0607  0.1752
14215W        W15079  25.965   5.904   8.612 -0.2087 -0.2067 -0.0610
14216W        W15080   1.279   9.871  10.625 -0.0064  0.0647  0.0223
14217W        W15081  27.003  25.455   6.350  0.2762 -0.2225 -0.1683
14218W        W15082  26.727   7.161  16.398 -0.0777 -0.0462 -0.2095
14219W        W15083  28.038  23.772  22.225 -0.1726  0.0861  0.0782
14220W        W15084   3.547  18.576  11.204 -0.0716 -0.0396 -0.0124
14221W        W15085  28.021  16.126  21.923 -0.3387  0.1107  0.0106
14222W        W15086  28.368  19.939  22.197  0.0547  0.0701 -0.0961
14223W        W15087  23.353  11.967  23.802 -0.2608  0.1218 -0.0459
14224W        W15088   9.959  18.801   1.697  0.0540 -0.2125  0.0140
14225W        W15089   6.288  13.568  28.981  0.0479  0.2384 -0.0459
14226W        W15090   2.181  10.929  12.801  0.2937  0.0773 -0.2523
14227W        W15091   6.605  19.981  12.526 -0.0954  0.0723  0.2784
14228W        W15092  11.780   9.242  27.560 -0.0893  0.1847 -0.0587
14229W        W15093  21.834  29.088  24.743  0.0633  0.2311 -0.0348
14230W        W15094  20.167  26.655   2.036 -0.0240 -0.2128 -0.0896
14231W        W15095  19.896   0.645  11.190  0.0880 -0.1792 -0.0547
14232W        W15096  28.792  19.769  18.247 -0.2475  0.1602 -0.0525
14233W        W15097   0.388  10.135  25.159 -0.0243 -0.1356  0.1596
14234W        W15098  18.876  16.306   7.637  0.0714 -0.1413 -0.0418
14235W        W15099   5.655  16.098   8.217 -0.0464  0.3157  0.0338
14236W        W15100  20.553   7.063   0.966  0.1147  0.1912 -0.0494
14237W        W15101  13.392  17.972  10.497  0.0115  0.1945 -0.2086
14238W        W15102   4.414   1.589  20.502 -0.0730 -0.1436 -0.0832
14239W        W15103   1.846  13.265  13.325  0.0714  0.1144 -0.0454
14240W        W15104  21.480  13.959  15.116 -0.0360  0.1894  0.0637
14241W        W15105   8.981   8.347  27.644 -0.3245 -0.3084  0.0054
14242W        W15106  26.279  21.539  10.093  0.3309  0.6066  0.1025
14243W        W15107  16.084  22.701   8.637  0.1233 -0.1066  0.0118
14244W        W15108  26.698  21.987  13.310  0.3306 -0.0903  0.0518
14245W        W15109   0.221  23.805  12.685  0.1788 -0.0092  0.1640
14246W        W15110   8.474  19.088  23.570 -0.1967  0.0261  0.0859
14247W        W15111   1.736  13.329  21.251 -0.0436  0.2104 -0.2720
14248W        W15112  26.090   5.505  21.689  0.1462  0.1679  0.0765
14249W        W15113   3.641   7.186   9.131  0.2249 -0.0302  0.1428
14250W        W15114   2.070  15.238  15.182  0.0465  0.0343  0.2516
14251W        W15115   9.181   5.420  15.555  0.1513 -0.0934 -0.0210
14252W        W15116  22.864  21.167  21.074 -0.1768  0.2417  0.0433
14253W        W15117  13.533   6.015  12.444  0.5395  0.2188  0.0388
14254W        W15118   2.915  25.988  15.590  0.0040  0.0974 -0.0336
14255W        W15119  17.984  17.812  21.074 -0.2612  0.0419  0.0740
14256W        W15120  17.309  12.140   6.978  0.1814 -0.0813 -0.2363
14257W        W15121  15.039  20.543  24.714  0.2586  0.1893 -0.1897
14258W        W15122  24.963  24.754  16.191 -0.0160 -0.4017 -0.2616
14259W        W15123  26.896  11.591  16.186  0.0055 -0.0130 -0.0269
14260W        W15124   4.636  11.901  15.199  0.0511  0.1102  0.3939
14261W        W15125  12.897  21.567   5.931 -0.0092 -0.2577  0.1383
14262W        W15126  15.255  21.551  18.976  0.0365  0.0781  0.2577
14263W        W15127  16.777  13.621  10.691  0.1311 -0.1869 -0.2077
14264W        W15128   4.841  26.303  28.085  0.0777 -0.0067 -0.0348
14265W        W15129   5.280  11.214  12.926  0.0581  0.0174 -0.1787
14266W        W15130  28.252   9.163  11.748  0.1319  0.0718  0.4912
14267W        W15131  22.217  10.740  11.144  0.0636  0.0106  0.1487
14268W        W15132  23.554  24.856   6.550  0.0463  0.0992 -0.4097
14269W        W15133  13.491  23.991  23.420 -0.1672 -0.1315  0.1792
14270W        W15134  22.871   3.546   7.871 -0.0226  0.2247  0.0217
14271W        W15135  15.448  13.552  21.441 -0.0343  0.2353  0.1252
14272W        W15136   6.624  28.728  11.329  0.0857 -0.3078  0.1277
14273W        W15137   1.290   8.509   8.979 -0.1440 -0.0447  0.3506
14274W        W15138   2.665  14.632   7.314  0.0332 -0.1801  0.1524
14275W        W15139  22.465   8.104  24.785  0.2156  0.2771  0.0390
14276W        W15140  25.531  19.560  10.610 -0.0967  0.2417  0.0459
14277W        W15141  19.426  15.679  13.899 -0.0852  0.0318 -0.2694
14278W        W15142   0.134  22.380  19.163 -0.0315  0.2591 -0.1630
14279W        W15143   2.440   5.811  20.605  0.1683  0.1535  0.2229
14280W        W15144   1.752  19.140  20.264  0.2289 -0.0753 -0.0129
14281W        W15145   0.930  15.012  12.506 -0.2436 -0.0431  0.0444
14282W        W15146   7.637  17.038   0.468 -0.4519  0.1189  0.2479
14283W        W15147  25.254  13.665   4.232 -0.0564  0.0274 -0.0965
14284W        W15148  28.537  13.335   7.172 -0.0347 -0.0633 -0.0737
14285W        W15149  26.229   1.359   6.628 -0.0256  0.0340 -0.0378
14286W        W15150   3.159   9.269   1.640  0.1574  0.2131  0.0961
14287W        W15151  15.671  14.605  10.915 -0.0970  0.0672  0.2225
14288W        W15152  21.055  17.519  17.533  0.0359  0.1662 -0.2758
14289W        W15153   6.306  16.964  13.296 -0.1736  0.0506 -0.3697
14290W        W15154   1.252  26.203   8.162 -0.0816  0.1395 -0.1206
14291W        W15155  18.443  19.962  12.733  0.1597  0.1052  0.1201
14292W        W15156  19.567  17.215  22.103  0.0882  0.2483 -0.2686
14293W        W15157  25.558  20.125  27.048 -0.0722 -0.2721 -0.0661
14294W        W15158  28.503   1.256  18.210  0.0325  0.1646 -0.2779
14295W        W15159  23.112  15.684  13.908 -0.3932 -0.2735 -0.1270
14296W        W15160  10.704   4.109  13.030 -0.0039  0.4130  0.1826
14297W        W15161   4.864   8.269  12.694 -0.0859  0.2879  0.0608
14298W        W15162   5.872  18.599  23.186 -0.0643  0.0226 -0.1177
14299W        W15163  23.887  21.542   5.823  0.1907 -0.3000  0.1152
14300W        W15164  23.644  27.933  16.788 -0.2234 -0.1751 -0.1619
14301W        W15165  10.058  11.324   6.057  0.0247 -0.0523  0.0547
14302W        W15166  26.783  23.451  25.717  0.1151  0.0059  0.0216
14303W        W15167  28.998  22.810  10.830  0.1456 -0.0598 -0.1668
14304W        W15168   6.573  23.204  11.770 -0.0365 -0.4804  0.1831
14305W        W15169   5.227  10.409  12.153  0.3747  0.1034 -0.0962
14306W        W15170  15.617  11.686  13.839  0.2187 -0.1985 -0.1059
14307W        W15171  21.231   8.793   5.999  0.2479 -0.0627  0.4420
14308W        W15172  16.110  21.105   3.402 -0.2173  0.2503 -0.1764
14309W        W15173  24.780   0.510  20.470  0.2884  0.1052 -0.3043
14310W        W15174   5.475  15.098  15.015  0.0375 -0.2254  0.0113
14311W        W15175   5.609   3.600  18.780  0.0200  0.0220 -0.0985
14312W        W15176  17.891  16.741   6.645 -0.1151 -0.1063  0.1217
14313W        W15177  16.461  21.018  12.398  0.0962 -0.1764  0.1447
14314W        W15178  28.810  10.835   0.662 -0.0721 -0.1455  0.2816
14315W        W15179   6.420  26.539  21.672 -0.0409 -0.3839 -0.0406
14316W        W15180  18.989  16.872  17.131  0.0129 -0.0379 -0.1293
14317W        W15181  23.119  22.361  22.607 -0.0700  0.2526  0.5316
14318W        W15182  24.614   4.587  11.675  0.1651 -0.2059  0.1134
14319W        W15183   4.594  20.516  27.606  0.2120  0.0632 -0.0828
14320W        W15184  11.783  12.104  28.075  0.0438 -0.0592 -0.0511
14321W        W15185   9.338   8.814   3.104  0.1722  0.0197  0.2608
14322W        W15186  13.032  17.681  24.826 -0.0313 -0.1300 -0.1590
14323W        W15187   4.625  20.872   4.784 -0.1407  0.1681  0.2108
14324W        W15188   1.488  22.663  12.800  0.3630  0.0902  0.2382
14325W        W15189  23.960  17.533   6.569  0.0819  0.0559 -0.1532
14326W        W15190  25.689  27.953  17.001  0.0289  0.1502  0.1179
14327W        W15191   6.155  10.888  28.744 -0.2869  0.3099  0.0377
14328W        W15192   9.867   9.093  21.206  0.1766  0.1534 -0.1186
14329W        W15193   5.037  25.495  14.755 -0.0810 -0.0603  0.1846
14330W        W15194   1.006  26.632  16.925  0.0380  0.2391 -0.1070
14331W        W15195   3.435  27.400  17.679  0.2609 -0.1890 -0.1683
14332W        W15196  11.060  21.798   7.746 -0.1681 -0.1846 -0.0231
14333W        W15197  20.810  20.281  21.282 -0.2711  0.0808  0.4111
14334W        W15198  13.536  25.117   5.603 -0.0787 -0.1592  0.0414
14335W        W15199  15.372  12.390  13.277  0.2809 -0.1222  0.2826
14336W        W15200  19.553  24.294  23.153  0.0925  0.3174  0.1080
14337W        W15201  28.058   2.971  21.634 -0.1129 -0.2150 -0.1453
14338W        W15202   2.266  19.110  28.783 -0.0739  0.3461  0.0864
14339W        W15203  15.813  14.075  28.880  0.3886  0.0349 -0.0733
14340W        W15204  18.287  23.627  14.309  0.0378  0.2172  0.0238
14341W        W15205  27.559  20.746  18.168  0.2988 -0.1859  0.2435
14342W        W15206  28.892  17.956  27.762 -0.1123 -0.3946 -0.0827
14343W        W15207   3.936  16.056  18.545  0.2034  0.1384  0.0325
14344W        W15208  18.616  20.352  23.367 -0.1209  0.1675 -0.0800
14345W        W15209   7.052  16.390   4.615  0.0416  0.0581  0.0551
14346W        W15210  11.418  17.795  16.300  0.0814 -0.3150 -0.1946
14347W        W15211  17.510   8.720   9.707 -0.0167  0.1338  0.1227
14348W        W15212  16.320  23.677   2.786  0.0632 -0.1864  0.1304
14349W        W15213   8.011   5.505   3.481 -0.3102 -0.3866  0.2013
14350W        W15214   2.412   9.980   7.531  0.1083  0.2718 -0.0493
14351W        W15215  14.383   2.820  16.362 -0.2300 -0.0531  0.0408
14352W        W15216  28.022  19.988   8.742 -0.0155 -0.0200  0.0161
14353W        W15217   5.269  11.843   7.728  0.1143  0.0968 -0.0919
14354W        W15218  27.286   8.200  13.837 -0.0761 -0.1448 -0.0815
14355W        W15219  12.402  21.322   6.520  0.4111 -0.0335  0.0021
14356W        W15220   4.403  15.920  12.545  0.0189  0.0310  0.0474
14357W        W15221  14.254  22.358  11.337 -0.1442  0.0504 -0.0819
14358W        W15222  13.406   3.035  15.380  0.2182  0.1706 -0.1473
14359W        W15223   2.139  20.682   6.290 -0.1097  0.0693 -0.0104
14360W        W15224  28.025  14.600   5.544  0.1983 -0.0315  0.1405
14361W        W15225   8.786  22.868  14.685 -0.0095 -0.3862 -0.0135
14362W        W15226   0.575  12.244  14.278  0.0080  0.2533 -0.3877
14363W        W15227  11.622  14.609  28.605  0.1429  0.3521  0.0381
14364W        W15228   1.722   0.062  13.229  0.2969 -0.0631  0.2419
14365W        W15229  25.832  17.717  20.993  0.0536 -0.1771 -0.0563
14366W        W15230  27.630   8.637  23.441 -0.2304  0.0352  0.0192
14367W        W15231  20.277  18.107  11.198  0.0541  0.3892 -0.1430
14368W        W15232   2.531  11.197  23.501 -0.1532  0.0627  0.1804
14369W        W15233  17.415  18.824  27.127  0.0356  0.0298  0.2904
14370W        W15234  10.726  15.418  14.835 -0.0387 -0.1529 -0.3296
14371W        W15235  18.924   9.135  27.976  0.0415 -0.0515 -0.1382
14372W        W15236   5.804   7.073  16.849 -0.1342  0.0928  0.0432
14373W        W15237  14.191  14.902  27.958 -0.1932 -0.0809  0.1935
14374W        W15238  24.979  12.826  14.800 -0.1553 -0.1482 -0.0576
14375W        W15239  21.136  23.345   8.060 -0.0183  0.1126 -0.2834
14376W        W15240   1.861   7.048   3.539 -0.1133  0.1126  0.0046
14377W        W15241   0.242  10.516   9.000  0.1937  0.0436  0.0781
14378W        W15242   6.178  26.663  20.159 -0.0950  0.1404 -0.2478
14379W        W15243  25.206  11.755  21.844 -0.0441  0.0395 -0.2367
14380W        W15244  27.001  15.682  18.165  0.1831  0.0773  0.0268
14381W        W15245  15.199  17.584   8.614  0.1087  0.2617 -0.1351
14382W        W15246  21.414  16.172  12.854  0.3361 -0.0921  0.2529
14383W        W15247   9.836  12.413  15.709 -0.0602  0.0164  0.1875
14384W        W15248  15.557  17.867   7.786  0.2406  0.1267  0.0713
14385W        W15249   8.298   0.061  28.023 -0.2509  0.3417 -0.0608
14386W        W15250   8.886  20.877  19.604  0.0358 -0.2516  0.0341
14387W        W15251  11.928  27.105   7.682 -0.0230 -0.0589  0.1064
14388W        W15252  24.407  25.534  13.914  0.0143  0.2528 -0.1093
14389W        W15253  28.199  19.716  20.042 -0.1190  0.2081 -0.2140
14390W        W15254  23.970   1.593   5.293 -0.1973  0.1112 -0.0663
14391W        W15255  28.760  11.047  13.492 -0.3004 -0.2577  0.0785
14392W        W15256  13.025  27.577   8.104  0.1412 -0.0796 -0.1045
14393W        W15257  21.948  18.843  14.121  0.0558 -0.0601  0.3003
14394W        W15258  19.227  20.993  22.767  0.0758 -0.0130  0.2135
14395W        W15259  24.308   7.153   3.116 -0.1591 -0.0087  0.1456
14396W        W15260   7.714   0.527  13.252 -0.1985  0.2662 -0.0767
14397W        W15261  26.143  27.342  16.351  0.0074 -0.2085 -0.0764
14398W        W15262   4.208  19.145  10.879 -0.0117  0.0131  0.0338
14399W        W15263  25.931   9.121  12.784 -0.2550  0.1606  0.0505
14400W        W15264   3.513  16.607  21.342 -0.1775  0.0848  0.0136
14401W        W15265   0.757  25.950   9.178  0.1378  0.0715  0.0310
14402W        W15266   4.357  20.240  18.754 -0.2315 -0.2718  0.2299
14403W        W15267  26.378  24.509  13.522 -0.1998  0.0603  0.2275
14404W        W15268  12.704  21.190  24.492 -0.0844  0.0428 -0.1639
14405W        W15269  24.095  12.562  11.482 -0.2836 -0.4373 -0.1664
14406W        W15270  26.546   1.243   8.208  0.1796  0.2078 -0.1522
14407W        W15271  14.337  12.519   0.381 -0.2007 -0.2599 -0.1510
14408W        W15272   8.842  10.635   3.821 -0.0765 -0.1931 -0.0648
14409W        W15273   4.021  14.543  15.140 -0.1792 -0.0164  0.0584
14410W        W15274  21.357   5.656  24.545 -0.4648 -0.0735 -0.0176
14411W        W15275  18.750   2.311  11.561  0.0580 -0.1147 -0.1352
14412W        W15276  18.036  25.425  15.528 -0.0208  0.0626  0.3193
14413W        W15277   7.710  23.630   8.368  0.3751  0.0581  0.1799
14414W        W15278  20.402  10.711   6.388  0.2319 -0.0732  0.1854
14415W        W15279  25.752  23.847   4.911  0.1423 -0.0318 -0.2781
14416W        W15280   2.152  10.949   2.329 -0.2341  0.0668 -0.1940
14417W        W15281  21.095  18.407  12.891  0.2533  0.2295  0.0581
14418W        W15282   4.760  22.127  27.916  0.1219 -0.0073  0.0598
14419W        W15283   6.736  15.408  27.282 -0.0967 -0.4193  0.0058
14420W        W15284  13.093  23.338  12.545  0.0574  0.0039 -0.0716
14421W        W15285   3.443   6.095  17.131 -0.2356 -0.4236  0.1124
14422W        W15286  26.175  20.284  13.775 -0.0371  0.1505  0.1108
14423W        W15287  29.132  15.564  16.074  0.0728 -0.0866 -0.1302
14424W        W15288  11.602  18.958  21.146 -0.0665 -0.1391  0.2185
14425W        W15289   1.363  20.960  27.482 -0.4013 -0.1373 -0.2116
14426W        W15290  22.284   4.677  24.832  0.0094  0.0452 -0.1022
14427W        W15291   8.232  11.979  24.899 -0.1513  0.2946 -0.0354
14428W        W15292   7.752  15.123  18.085 -0.0732 -0.0950  0.2806
14429W        W15293  14.548   5.121   0.660 -0.1206 -0.0507  0.0147
14430W        W15294  24.211   4.670  19.979  0.3381  0.5642 -0.1158
14431W        W15295  26.515   0.035   0.636  0.2955  0.2110 -0.1512
14432W        W15296  19.883   4.316  25.641  0.2619 -0.1749 -0.0622
14433W        W15297   4.379  21.177  24.878  0.2818  0.0623 -0.2494
14434W        W15298  17.403   9.280   6.489 -0.1344 -0.0870 -0.2784
14435W        W15299  28.018  21.086  10.549 -0.0106  0.0431 -0.0290
14436W        W15300  24.426  15.286   8.138  0.5013  0.1843  0.0580
14437W        W15301   5.110  28.524  22.864 -0.2364  0.0677 -0.2199
14438W        W15302  23.110  13.939  24.077  0.1004 -0.0052  0.0841
14439W        W15303   7.547   1.233  19.693 -0.2063 -0.1859  0.1138
14440W        W15304  18.952  21.765   8.459 -0.2758 -0.2384  0.0495
14441W        W15305  10.920  26.423  25.491  0.2687 -0.2156  0.0368
14442W        W15306  22.971   1.320   8.071 -0.0488 -0.0796  0.3608
14443W        W15307  10.087  17.862  16.261  0.1965 -0.1807 -0.0197
14444W        W15308  14.569  24.171  26.380 -0.1042 -0.1441 -0.0670
14445W        W15309  23.188  17.838   3.307  0.0423  0.1308  0.1621
14446W        W15310  10.544  20.411   0.297 -0.0927  0.0241  0.1391
14447W        W15311   9.439  24.900  15.484  0.0444 -0.0695  0.0074
14448W        W15312  26.750  22.061   0.749 -0.1862  0.1277  0.0331
14449W        W15313  21.681  17.362  27.228 -0.2003  0.2161 -0.3437
14450W        W15314  15.208   4.226  20.962 -0.2880 -0.1950  0.1619
14451W        W15315   7.796  17.346  12.592  0.0077 -0.3110  0.0057
14452W        W15316  14.229  13.227  16.491  0.4567 -0.1889 -0.0277
14453W        W15317   0.018   3.610  20.840 -0.1846  0.1934 -0.2604
14454W        W15318  14.957  20.003   3.933  0.2119  0.1119 -0.0894
14455W        W15319  20.618  11.410   9.334  0.0980 -0.1599  0.0648
14456W        W15320  26.903   7.282  14.705 -0.2834  0.1673  0.0657
14457W        W15321  26.058  23.069   2.318  0.0923 -0.0095 -0.1400
14458W        W15322  11.738  27.367  21.104 -0.0547 -0.0758  0.0901
14459W        W15323  20.742  23.928   7.770  0.0294 -0.4237 -0.3061
14460W        W15324   7.983   3.265   3.092  0.0834 -0.0684 -0.1202
14461W        W15325   1.576  24.982  13.917 -0.0843 -0.0223 -0.0400
14462W        W15326   3.037  26.852  18.230  0.1671 -0.3054  0.0123
14463W        W15327   9.587  17.231   2.532  0.1045  0.2252  0.2337
14464W        W15328  27.845   7.889   7.540  0.2125 -0.0793 -0.1878
14465W        W15329   7.504   9.346  17.256  0.1141 -0.2377  0.0897
14466W        W15330  27.127   7.196  13.378 -0.2675  0.0524 -0.0152
14467W        W15331  25.359   0.854  20.703  0.4084  0.1534 -0.2251
14468W        W15332  15.744  15.559  19.496 -0.2542 -0.2132  0.0585
14469W        W15333  10.472  12.865   9.834  0.0411  0.1401 -0.1838
14470W        W15334  16.926   4.487   8.096 -0.2559 -0.0572 -0.1941
14471W        W15335  28.980  17.162   3.872  0.0695 -0.2742  0.0344
14472W        W15336  28.656  12.308  18.338  0.2039 -0.1559 -0.0518
14473W        W15337  10.949  16.139  10.542  0.1053  0.2190  0.4255
14474W        W15338   1.078  26.672  10.539 -0.0651  0.1405 -0.0126
14475W        W15339   6.863   5.329  12.419  0.1725  0.1992 -0.0184
14476W        W15340  22.958   7.440   5.066  0.0925 -0.1929 -0.0817
14477W        W15341  28.001  27.594   8.703  0.0041 -0.2104  0.2336
14478W        W15342   4.274  13.508   8.751 -0.0348 -0.2533 -0.3611
14479W        W15343  17.785   1.600  26.552 -0.0601 -0.4066  0.1744
14480W        W15344  10.484  14.109  15.004 -0.2194 -0.0563  0.0351
14481W        W15345  13.402  11.766  23.332 -0.0968 -0.0618 -0.1655
14482W        W15346  11.241  21.852   9.296 -0.1435  0.2272 -0.0791
14483W        W15347  20.147   8.798  22.465 -0.1785  0.0324  0.2691
14484W        W15348  26.917   5.219  10.212 -0.1552 -0.2387 -0.0908
14485W        W15349  10.961  10.928  22.794  0.0595 -0.0616  0.2530
14486W        W15350   3.510  10.544  13.210 -0.1775 -0.0188  0.2563
14487W        W15351   8.091  16.528   9.514  0.1648 -0.2124  0.0062
14488W        W15352  18.166  21.837   0.469 -0.2131 -0.1400  0.1866
14489W        W15353  15.267  14.494   3.639 -0.0921  0.3085  0.1800
14490W        W15354   6.019  17.868  28.506  0.0729  0.1168  0.0879
14491W        W15355  17.198  18.021  19.013 -0.2482 -0.0070 -0.1764
14492W        W15356  23.233  23.900   0.559 -0.1399  0.0721 -0.0964
14493W        W15357   3.989  22.590  25.790  0.0658  0.0564  0.1155
14494W        W15358  26.889  17.505   4.685 -0.2054  0.2788 -0.1757
14495W        W15359  28.219   1.078  26.806  0.2846 -0.3082  0.1221
14496W        W15360   1.738   5.860  10.344  0.0831  0.0346  0.1842
14497W        W15361   3.241  28.349  18.771 -0.0053  0.1437 -0.0620
14498W        W15362   0.090   1.455  27.119 -0.1934 -0.0323 -0.1012
14499W        W15363   5.279  10.676   5.889  0.1286  0.4455  0.1320
14500W        W15364  26.856  19.627  11.175 -0.3323 -0.0454  0.0728
14501W        W15365   5.577   8.618  18.884  0.1654 -0.1258 -0.0581
14502W        W15366  13.449  21.523   7.121 -0.0212 -0.0208 -0.1786
14503W        W15367  17.577  19.315  26.016 -0.2135 -0.1289 -0.4258
14504W        W15368  18.588   3.655   8.122 -0.3357  0.0536  0.0469
14505W        W15369  27.389  18.734  12.626  0.0095  0.1084  0.1491
14506W        W15370   1.511  28.943   0.260  0.0978  0.1469 -0.0744
14507W        W15371  13.282  10.936  28.033 -0.0464  0.4089 -0.0468
14508W        W15372   9.417   9.921  21.350 -0.0578 -0.0712  0.0502
14509W        W15373   1.170  24.757  27.225 -0.1310  0.3367 -0.1063
14510W        W15374  13.981   2.610  18.108  0.0245  0.1097  0.0826
14511W        W15375   1.904  12.680  27.457 -0.1696 -0.0995 -0.0503
14512W        W15376  19.463   1.776  27.177  0.2325 -0.0268  0.0240
14513W        W15377  13.472   7.182   5.788 -0.0068 -0.1738 -0.1741
14514W        W15378  20.759  25.497  19.546  0.0347  0.0166 -0.3029
14515W        W15379  27.987   2.333  15.336  0.2478  0.0534  0.4410
14516W        W15380   3.311   6.451  16.118  0.2616  0.1508 -0.2083
14517W        W15381   0.420  10.507   0.082 -0.4280 -0.1734 -0.1825
14518W        W15382  19.504  17.095  11.363 -0.1597 -0.2954  0.0696
14519W        W15383   1.188  19.034  25.913 -0.1252  0.2034 -0.1315
14520W        W15384   9.458   3.034  23.830  0.2003  0.0124  0.2038
14521W        W15385  21.618   1.238  15.308  0.1267 -0.0684  0.0109
14522W        W15386   8.505   0.226   7.352  0.2951 -0.0907 -0.2590
14523W        W15387  12.599  15.985   0.648  0.4378 -0.0999  0.3030
14524W        W15388  24.983   4.443  13.814  0.1655 -0.0092 -0.0150
14525W        W15389  13.880  13.863   6.180  0.2971 -0.2697  0.0174
14526W        W15390   3.672   9.033  13.191  0.1591 -0.3642  0.1398
14527W        W15391   0.735  11.107  10.185 -0.0232  0.1741 -0.1388
14528W        W15392  17.565   1.221   2.718  0.2874 -0.0096  0.0587
14529W        W15393  26.887   4.562  16.562  0.2292  0.0383 -0.1522
14530W        W15394  21.585   8.771  20.027 -0.2863  0.1055 -0.0406
14531W        W15395   9.917  18.963  18.126  0.1325  0.3623 -0.2593
14532W        W15396   2.454   2.231   3.914  0.0384 -0.0418  0.0545
14533W        W15397   2.145   7.258  19.208 -0.1777 -0.2751  0.1149
14534W        W15398  11.643  20.173  25.679  0.0026 -0.1077 -0.0461
14535W        W15399  15.604   9.922  21.995  0.2999  0.0114  0.1613
14536W        W15400   6.630   3.609  14.794  0.0977 -0.1047  0.1074
14537W        W15401  23.114  20.880   6.017  0.1427  0.0882  0.1933
14538W        W15402  25.503   2.159  27.984 -0.2755  0.1079 -0.1043
14539W        W15403   7.407  16.174  25.547  0.1736  0.1339 -0.1342
14540W        W15404   1.487   4.927   9.808  0.1962 -0.1490 -0.1282
14541W        W15405  18.279  11.657  13.730  0.2490 -0.5285  0.0339
14542W        W15406   2.282   4.657  15.732 -0.2671 -0.2149  0.1126
14543W        W15407  15.561  16.950   1.097  0.3923 -0.0098 -0.4142
14544W        W15408  16.389  21.683  19.775  0.0076  0.0873 -0.0134
14545W        W15409  20.560   2.798  21.845 -0.1255  0.1311 -0.1234
14546W        W15410  25.074   1.880  27.611 -0.0837  0.0983  0.2011
14547W        W15411  14.741  21.270  20.490 -0.0996 -0.2787 -0.2084
14548W        W15412   1.022  16.113  13.384  0.2249  0.1447 -0.3110
14549W        W15413  12.417  22.142   6.551 -0.2022 -0.1159 -0.2518
14550W        W15414   4.216   1.510  11.314 -0.1851 -0.0047  0.5336
14551W        W15415  23.589  24.714  25.640 -0.1419 -0.2133  0.0285
14552W        W15416  28.380  19.934  18.544 -0.0403  0.2183  0.1557
14553W        W15417  14.249  20.436  27.495 -0.1637  0.1564  0.0728
14554W        W15418   9.213  20.339  21.871  0.3838  0.2151 -0.0802
14555W        W15419   3.057  17.145   6.963  0.2305  0.1305  0.3039
14556W        W15420  13.454  29.126   6.690 -0.2801  0.1123 -0.0725
14557W        W15421  14.976   6.467  10.654  0.2325  0.0728  0.4515
14558W        W15422   7.150  20.797  26.979 -0.1285  0.0983  0.0761
14559W        W15423  16.176  10.135   5.638 -0.0462  0.0494 -0.0255
14560W        W15424  22.408  11.608   0.104  0.1181  0.1542  0.1020
14561W        W15425  10.051  15.298  18.668 -0.1754 -0.0391 -0.1407
14562W        W15426  14.680  10.689  24.314 -0.2069  0.0246  0.4916
14563W        W15427   4.815  20.090  16.108  0.2305  0.1021 -0.2300
14564W        W15428  14.187  15.507  16.293  0.1469 -0.0777 -0.1498
14565W        W15429  15.340  11.129   7.330  0.3216  0.0038 -0.0746
14566W        W15430   1.485  18.164  22.343  0.0844 -0.2524 -0.2827
14567W        W15431   2.598  13.606  18.589  0.0879  0.2718 -0.0137
14568W        W15432  26.171   6.030  20.219 -0.0138  0.1599 -0.0616
14569W        W15433  11.091   0.432  24.499 -0.1138 -0.1269  0.0314
14570W        W15434  16.695  27.208   7.771  0.2114  0.1060 -0.0302
14571W        W15435   7.659   2.584   1.255  0.0241  0.1696 -0.0706
14572W        W15436  12.665  19.956  13.590  0.1949  0.1150  0.1529
14573W        W15437   8.100  23.386   6.668  0.0577  0.0504 -0.1352
14574W        W15438   6.449   1.205  22.512  0.0053  0.0294 -0.1293
14575W        W15439  24.110  15.373  12.825 -0.0126 -0.0248 -0.2573
14576W        W15440   8.481   2.858  21.302  0.1994 -0.2177 -0.2135
14577W        W15441  24.464  16.241   9.621  0.1061  0.1146 -0.1460
14578W        W15442   6.211   6.669   1.701 -0.4102 -0.0044 -0.2916
14579W        W15443  12.107  23.832  18.084 -0.0077  0.2479  0.0300
14580W        W15444  15.964  19.408   1.807  0.0678 -0.3111 -0.0980
14581W        W15445   5.287  12.772   9.277 -0.1378  0.2131  0.2321
14582W        W15446  10.708  27.971  27.202  0.4275  0.3020 -0.0231
14583W        W15447  15.045  18.467  14.395 -0.2115  0.0955 -0.1100
14584W        W15448  26.457  26.573  12.975  0.0709 -0.0552  0.1750
14585W        W15449   9.479  16.236   7.724  0.0997  0.1134  0.1321
14586W        W15450  21.710   8.681   5.719  0.1464  0.2107 -0.2192
14587W        W15451  13.859   4.872   9.296  0.0047 -0.2193 -0.1262
14588W        W15452  10.342  20.893  23.996  0.1815  0.1238 -0.2125
14589W        W15453   8.758   8.660  15.492 -0.2532 -0.1741  0.1021
14590W        W15454  12.832  11.877  27.005  0.0188 -0.0552 -0.1607
14591W        W15455  16.429  17.274   2.293 -0.0332  0.1471  0.1770
14592W        W15456   7.955   8.765  12.286 -0.1542 -0.0048 -0.0551
14593W        W15457  14.704  14.853   9.521 -0.0525  0.3506  0.2558
14594W        W15458   8.972  10.968  15.729  0.3155 -0.1326 -0.0420
14595W        W15459   5.102  14.097  10.318 -0.0485  0.2077  0.0474
14596W        W15460  24.781   7.259  16.471  0.1413  0.0630  0.1407
14597W        W15461   0.714  14.913  14.414  0.1582 -0.0011  0.3025
14598W        W15462  20.938   5.835  24.432  0.0167 -0.1717 -0.5071
14599W        W15463  21.690  27.033   2.121 -0.1010  0.3184 -0.0393
14600W        W15464  16.312   8.587   1.598  0.0688 -0.0049  0.0181
14601W        W15465  11.872  14.562   4.309 -0.0109  0.1078  0.1499
14602W        W15466   4.591  24.350  14.501  0.1209  0.3498  0.0907
14603W        W15467   9.781  13.280   9.308  0.0906  0.2576  0.0656
14604W        W15468  19.237  22.628  21.311 -0.1556  0.0221 -0.2782
14605W        W15469  13.745  17.446  26.756 -0.0238 -0.1003  0.0181
14606W        W15470  23.236   6.347  19.831  0.0732 -0.0236  0.2165
14607W        W15471   7.402   3.245  13.174 -0.2132  0.1625  0.1698
14608W        W15472   6.324  16.411   8.246 -0.0381 -0.3996  0.0513
14609W        W15473   1.978  26.476  12.875  0.0774  0.1916 -0.2062
14610W        W15474  14.025   8.082  13.859  0.1291 -0.0513 -0.0192
14611W        W15475  14.737  19.545   8.910  0.1154 -0.3354 -0.3825
14612W        W15476   3.457   5.471  20.744 -0.2888 -0.0410 -0.2553
14613W        W15477  28.523   5.269  18.792  0.5378 -0.2379 -0.1198
14614W        W15478   1.130  29.098  12.521 -0.0198  0.1365  0.1462
14615W        W15479   2.403  20.303  15.301  0.0297 -0.0915 -0.1592
14616W        W15480  27.542  16.636  22.964  0.2255  0.1415  0.1780
14617W        W15481  17.798  28.174  18.342 -0.1614 -0.1182 -0.1452
14618W        W15482  19.338  21.317   2.458  0.1687 -0.1815  0.0757
14619W        W15483   4.518  18.332  12.752 -0.2674  0.0621 -0.1222
14620W        W15484  28.752   0.992   8.302  0.1627 -0.1062 -0.1112
14621W        W15485   2.775  15.064   7.695  0.0322  0.2501 -0.0147
14622W        W15486   7.381  21.840  22.115  0.0898  0.2233  0.0249
14623W        W15487   5.227  13.833  20.562 -0.1031 -0.2645 -0.4047
14624W        W15488  24.930  19.405   9.403  0.1641 -0.1096 -0.1648
14625W        W15489  22.892  18.700  14.497  0.2800 -0.0177  0.0719
14626W        W15490  27.651   3.173   6.514 -0.0995 -0.0660  0.3599
14627W        W15491  25.910   6.678  24.021  0.1600 -0.0311  0.1237
14628W        W15492  16.413  12.661  25.147  0.0865 -0.0678  0.0534
14629W        W15493  18.920  22.387  12.437 -0.1629 -0.1240  0.0950
14630W        W15494   4.848   7.390  10.770 -0.4293  0.1702  0.0404
14631W        W15495  24.987   7.052  25.048 -0.1269  0.0398  0.0117
14632W        W15496  22.200  16.278  22.724 -0.0320  0.0365  0.0931
14633W        W15497  20.297  19.049  11.026 -0.0714  0.2244 -0.1125
14634W        W15498   1.126  14.326   0.823  0.1077  0.1170  0.0530
14635W        W15499  12.195  19.319   4.659 -0.1905 -0.0015  0.0194
14636W        W15500  17.600  15.547  22.145  0.2257  0.0464  0.0229
14637W        W15501  11.309  27.504  14.229  0.0551 -0.0416 -0.3590
14638W        W15502   3.664   1.956  25.186  0.0454 -0.1638 -0.0150
14639W        W15503   9.532  22.921   7.049  0.2264 -0.1041 -0.2274
14640W        W15504   1.990  20.282   1.960 -0.2231  0.0337 -0.1029
14641W        W15505  21.311  10.399   4.615 -0.0380  0.1544  0.2730
14642W        W15506   1.294   5.634  18.987 -0.1570 -0.0539 -0.3261
14643W        W15507  28.123  10.839  14.714  0.2671  0.2875 -0.3012
14644W        W15508  24.668   7.813  18.205  0.0056  0.3021  0.1550
14645W        W15509   6.048  19.563  14.974 -0.1241  0.0625 -0.2699
14646W        W15510   3.820  23.222   4.010  0.0909 -0.0834  0.0293
14647W        W15511  17.014   4.082   8.867 -0.1816 -0.3662 -0.3284
14648W        W15512  20.740   6.650  20.368  0.1186 -0.0470 -0.0312
14649W        W15513  24.685   2.063  14.334  0.0298  0.0553 -0.0666
14650W        W15514  21.801  19.024   9.447 -0.0012  0.1231 -0.0374
14651W        W15515   3.542  13.421  15.602  0.1193  0.3161  0.5664
14652W        W15516   5.908  26.652  21.916  0.0967 -0.0454 -0.2103
14653W        W15517  14.956   0.984  17.118 -0.3889 -0.1234  0.0860
14654W        W15518   3.893  22.648  26.290 -0.1703  0.0142  0.0801
14655W        W15519  21.678   9.056  14.132  0.3351  0.1919  0.0615
14656W        W15520   4.616  16.993  21.007 -0.1415  0.0677 -0.2699
14657W        W15521   8.705  11.898  11.714  0.2484  0.0545  0.0302
14658W        W15522  19.078  12.396   5.348  0.1338  0.0044  0.0093
14659W        W15523  26.573  29.022  10.314 -0.0342  0.0641  0.0288
14660W        W15524  12.427  27.830  24.362  0.1577  0.3040 -0.0396
14661W        W15525  14.417  27.636  16.868  0.1002  0.1683  0.2145
14662W        W15526  22.226  26.752  14.998 -0.3031 -0.0344  0.2204
14663W        W15527  15.407  20.300   9.779  0.0340  0.1503 -0.1481
14664W        W15528  10.418   6.010  15.267 -0.1545 -0.0347  0.0534
14665W        W15529   4.150   9.581   2.515 -0.2925 -0.2482  0.0445
14666W        W15530  19.516  13.269   8.753 -0.0251 -0.1865 -0.2886
14667W        W15531  13.690  16.930  24.447 -0.1085  0.0582  0.1925
14668W        W15532  12.409  28.955  24.463 -0.1367 -0.1014  0.0219
14669W        W15533  27.942   0.775   1.219 -0.0200 -0.1009  0.2180
14670W        W15534  19.023  23.407  20.399 -0.1530 -0.2363 -0.0547
14671W        W15535  26.495   1.201  26.694  0.0129 -0.4073 -0.0333
14672W        W15536  10.120  19.498   4.136  0.0185  0.3121 -0.1242
14673W        W15537  25.729  16.620  16.308  0.2240 -0.2849  0.0797
14674W        W15538  16.904   6.884  14.089  0.1957 -0.0373 -0.1498
14675W        W15539  11.543  27.099  21.535 -0.1074  0.0199  0.2670
14676W        W15540  20.394  19.918   3.006  0.1347  0.1340 -0.3551
14677W        W15541  10.236  28.353  23.903 -0.3944  0.3084 -0.3291
14678W        W15542  26.419  20.596  21.038  0.0223  0.0759 -0.2023
14679W        W15543   6.553   2.588  18.838  0.2925 -0.1278  0.1148
14680W        W15544   0.570  20.453  16.527  0.3826 -0.3350  0.0653
14681W        W15545  23.155   4.127  10.916  0.0360 -0.1769  0.1970
14682W        W15546   6.353  14.345  18.711 -0.1672 -0.0731  0.3443
14683W        W15547  28.427  16.888  22.613  0.0418  0.0696 -0.1375
14684W        W15548  15.375   1.057  18.649  0.0160  0.0081 -0.0973
14685W        W15549  26.733  19.351  14.880 -0.4100  0.0288  0.2822
14686W        W15550  21.003  18.530  16.764  0.1479  0.3012 -0.2559
14687W        W15551   7.281   9.326   2.584  0.0791  0.1476  0.1814
14688W        W15552   2.349  20.783  15.543  0.2592 -0.0339  0.0488
14689W        W15553  27.071  19.630  16.475  0.0770  0.0256 -0.2360
14690W        W15554  26.336  16.910  15.386 -0.2769  0.1135  0.1819
14691W        W15555  21.281   8.653   7.534  0.0839  0.1424 -0.1325
14692W        W15556   9.760  19.739  25.436 -0.0394  0.3442  0.2901
14693W        W15557   3.077  19.801  17.456  0.1608 -0.1058  0.0160
14694W        W15558  22.553   3.124  11.648  0.0579  0.0611  0.0047
14695W        W15559  10.537  12.058   9.869  0.2293  0.0867 -0.0589
14696W        W15560  25.207  24.929  21.630  0.2838 -0.0372 -0.1186
14697W        W15561  25.833  16.146  17.332  0.0596 -0.0890 -0.0115
14698W        W15562  24.695  21.607   2.525  0.0977  0.3394 -0.2293
14699W        W15563  10.143   2.438   4.561 -0.2285 -0.1337 -0.0532
14700W        W15564   2.109  28.758  17.007 -0.5415  0.1255  0.1139
14701W        W15565  19.027   7.696  20.374 -0.0897 -0.3810  0.0411
14702W        W15566   5.374  14.556   0.866 -0.1047 -0.1817 -0.1944
14703W        W15567   9.471   7.749   4.687  0.1014 -0.1804  0.2313
14704W        W15568  23.393   3.081   4.293  0.0619 -0.1405 -0.0550
14705W        W15569  10.370  24.499  15.429  0.0017 -0.0234 -0.0675
14706W        W15570   0.075  18.155   8.993 -0.0207 -0.3279 -0.1548
14707W        W15571  28.805  10.226  19.709 -0.0473  0.0008 -0.1375
14708W        W15572  23.395  27.717  21.743 -0.3188  0.1270 -0.1665
14709W        W15573  19.799   3.386  23.506 -0.1608 -0.4172 -0.1598
14710W        W15574  10.690  17.362  22.937 -0.3092 -0.0247  0.2433
14711W        W15575   7.618  18.855  19.438 -0.1628  0.1198 -0.0085
14712W        W15576   4.795  18.372  24.983  0.1830  0.0271  0.0486
14713W        W15577   3.113  18.487   2.691 -0.2303 -0.4593 -0.3226
14714W        W15578  23.216  12.771  28.035 -0.0462 -0.1003  0.0396
14715W        W15579  21.027  22.612  19.238  0.2306 -0.0422 -0.0394
14716W        W15580  23.744  14.249  15.249 -0.0262 -0.2700  0.1117
14717W        W15581  24.517   0.350  14.987 -0.3586 -0.1780 -0.1259
14718W        W15582   2.972  14.778  21.387 -0.0688 -0.3709 -0.0113
14719W        W15583   8.822  17.857   5.976  0.1791  0.2381  0.1924
14720W        W15584  22.061  18.671   5.411 -0.0594  0.1178 -0.3225
14721W        W15585  23.297  26.744  26.042 -0.0259  0.0233  0.1047
14722W        W15586  14.066  15.309  26.935  0.1537  0.0812 -0.2434
14723W        W15587  14.588  11.551  21.800  0.0397  0.0740  0.0604
14724W        W15588  24.055  16.612   3.381 -0.1541 -0.1303  0.2120
14725W        W15589  10.418  13.278  16.649 -0.4586  0.1024  0.1159
14726W        W15590  21.892   0.597   0.454  0.2805 -0.1197 -0.0729
14727W        W15591  13.775  12.141   7.181 -0.3772  0.2441 -0.1710
14728W        W15592  17.696  25.858   4.638 -0.0934 -0.2331  0.4175
14729W        W15593   2.512   6.566   9.318 -0.2326 -0.0129  0.1248
14730W        W15594  28.305  12.233   5.962  0.0146  0.4588  0.0708
14731W        W15595   5.610  18.546  14.554 -0.1832 -0.2186 -0.0321
14732W        W15596  17.022  19.910  15.654 -0.1161  0.0076  0.0920
14733W        W15597  12.565   5.950   2.449  0.1178  0.1327 -0.1183
14734W        W15598   9.580  12.573  10.040  0.2283 -0.0220 -0.1749
14735W        W15599  24.206   3.180   7.302  0.3464  0.1483  0.1257
14736W        W15600   6.168   2.282  11.126 -0.3801  0.1584 -0.1120
14737W        W15601  25.963  21.725  20.206  0.0746 -0.2530 -0.1547
14738W        W15602  24.809  21.332   9.309  0.0579 -0.0890 -0.0966
14739W        W15603   3.421  11.876  14.732 -0.0529  0.1119  0.1392
14740W        W15604   4.110  11.128  21.156 -0.0990  0.0904  0.1181
14741W        W15605   4.950  11.640   0.845  0.1239  0.1261 -0.1861
14742W        W15606  24.573  24.249  28.702 -0.1154 -0.1000  0.1051
14743W        W15607   4.058   8.709  26.883 -0.1797  0.2850 -0.1508
14744W        W15608  11.184   0.446  21.102  0.0942  0.0718 -0.3544
14745W        W15609  27.985   2.828  15.349 -0.1290  0.0365  0.0658
14746W        W15610  25.726  20.726  25.971 -0.0093  0.0514  0.1417
14747W        W15611  26.594  20.267  10.025 -0.2921 -0.3158 -0.0386
14748W        W15612  16.607  28.123  23.033  0.2074  0.0736 -0.1214
14749W        W15613  20.690  11.220  18.593 -0.2323 -0.0800  0.1011
14750W        W15614  16.604  28.558  12.511  0.1663  0.0086 -0.0758
14751W        W15615   7.113   7.034  28.801  0.0233  0.0101  0.0427
14752W        W15616  23.659  19.970  24.748 -0.0292 -0.0044 -0.2329
14753W        W15617  20.042  13.922  13.896  0.0687  0.1941  0.1694
14754W        W15618  23.119  11.828   9.003  0.0454 -0.3477 -0.0409
14755W        W15619  11.497   9.256  20.834  0.2956  0.0543  0.1304
14756W        W15620   6.957  14.442  10.117  0.0341  0.2795 -0.0334
14757W        W15621  15.009  16.673   4.554  0.1973  0.1034  0.0121
14758W        W15622   0.505  23.509  10.670  0.1123 -0.2056  0.0138
14759W        W15623  17.174  29.100   7.464  0.0617 -0.1893  0.1479
14760W        W15624   5.367  11.006  25.935 -0.0689 -0.0982  0.4857
14761W        W15625   4.585  19.125   3.398  0.1591  0.0995 -0.1198
14762W        W15626   9.102  27.974  10.600  0.1078 -0.1342  0.0681
14763W        W15627  21.391  26.988   6.436 -0.0749  0.1976 -0.1561
14764W        W15628  18.085  11.319   4.913 -0.3129 -0.3510 -0.0785
14765W        W15629  17.574   2.997  16.993  0.2891  0.0347  0.0066
14766W        W15630   4.040  18.205  28.395 -0.0549 -0.1765  0.6204
14767W        W15631  23.292   0.652  14.964 -0.2571  0.2855  0.2048
14768W        W15632   5.246   4.670   7.651  0.0984 -0.1189 -0.1377
14769W        W15633   4.155  13.578  19.372 -0.1562  0.0750 -0.0443
14770W        W15634   9.494  18.856  14.407  0.1124  0.2051 -0.0544
14771W        W15635   7.301  21.951  15.153  0.2845  0.2114 -0.1763
14772W        W15636  20.071  12.315   6.373  0.0037 -0.3043  0.1671
14773W        W15637   8.704  21.312   3.786  0.3149 -0.1446 -0.0800
14774W        W15638  23.176  21.437   2.709 -0.0336 -0.1182 -0.0450
14775W        W15639   2.129  21.708  28.082  0.3064  0.0058 -0.1170
14776W        W15640  14.738  21.031  12.981  0.0567  0.1130 -0.2642
14777W        W15641  21.734   9.773  11.489  0.2175 -0.2980 -0.1023
14778W        W15642  16.633   4.328   5.239  0.0067  0.3697 -0.2388
14779W        W15643   6.382  10.049  15.755 -0.3115  0.0706  0.0416
14780W        W15644  21.855  22.420  26.604 -0.2960 -0.0201  0.0073
14781W        W15645  12.656  13.426  21.765  0.3301  0.1937  0.5549
14782W        W15646  23.653  16.628   4.605 -0.0215  0.1051  0.1011
14783W        W15647   2.130   3.857  23.853 -0.2639 -0.1713 -0.0967
14784W        W15648   0.390  17.548   7.792  0.2223 -0.3439 -0.2319
14785W        W15649   9.890   6.664   3.827 -0.4223 -0.1429 -0.1970
14786W        W15650   7.846  24.018   9.817  0.1055  0.3723 -0.0120
14787W        W15651  26.186  21.220  10.528 -0.0788  0.1292  0.0023
14788W        W15652  11.262   0.908  26.811  0.0712  0.1360  0.0315
14789W        W15653  18.842  13.276  28.543 -0.1803 -0.0664 -0.0192
14790W        W15654  22.434  20.725   1.772 -0.1993 -0.0881 -0.0645
14791W        W15655  25.504  22.419  24.513  0.1995 -0.2134  0.1837
14792W        W15656  25.349   7.488   9.957  0.2071 -0.5212 -0.2062
14793W        W15657  25.294  11.706   5.430  0.0821 -0.1876 -0.0881
14794W        W15658   7.492  11.332  14.126  0.0349 -0.0542 -0.0694
14795W        W15659   5.601  18.080  14.447  0.1867  0.0552  0.0073
14796W        W15660  15.348  23.756  26.036  0.0914 -0.3040  0.2219
14797W        W15661  24.952   8.279  15.348 -0.0512 -0.0151  0.1564
14798W        W15662  10.028  22.333  22.756  0.1015  0.1110  0.3145
14799W        W15663  15.574  14.836   9.895 -0.1803 -0.0771 -0.0926
14800W        W15664  24.435  18.004  21.302 -0.0727 -0.0915  0.1514
14801W        W15665  10.397   7.356   8.485 -0.0297  0.0094  0.1612
14802W        W15666  23.298   8.792  19.163 -0.0535 -0.2107  0.2953
14803W        W15667  10.666  24.671  28.923  0.0210 -0.0457 -0.4867
14804W        W15668   3.947  18.121  23.301 -0.2542  0.1842 -0.0964
14805W        W15669  27.339   4.756  20.016  0.1358 -0.0509  0.1101
14806W        W15670   6.720  12.254  14.783 -0.0253  0.1532  0.2072
14807W        W15671   3.958   9.211   2.873  0.0376  0.0048 -0.0947
14808W        W15672  20.105  12.287   7.850 -0.2562 -0.1782 -0.0488
14809W        W15673  13.420  24.917   9.873  0.1361 -0.0381  0.1151
14810W        W15674  25.090   3.147   7.642  0.1503 -0.0109 -0.3895
14811W        W15675  12.478   3.105  24.060 -0.1751 -0.1885  0.1227
14812W        W15676  11.406  28.357   4.398 -0.1729 -0.1039 -0.1977
14813W        W15677  14.131  28.295  16.065  0.3205 -0.0576  0.0777
14814W        W15678  24.779   2.420   3.764  0.4648  0.2194  0.2756
14815W        W15679  28.618  19.510   7.404  0.2819 -0.0789  0.1645
14816W        W15680   6.521  23.459  12.190 -0.0905 -0.2262  0.1153
14817W        W15681  21.547  14.436   3.434  0.1720 -0.0486 -0.2270
14818W        W15682  28.388  26.017  26.465 -0.1133 -0.0171 -0.1464
14819W        W15683   7.881  18.699   7.950 -0.1033 -0.0821 -0.2719
14820W        W15684  14.626   5.871  19.066  0.2059  0.1761  0.0072
14821W        W15685  21.512   6.489   0.926 -0.2279 -0.1406  0.1361
14822W        W15686  29.142  28.433  12.944  0.1413 -0.2565  0.1690
14823W        W15687   3.287   9.541  26.520 -0.2007  0.1125 -0.2781
14824W        W15688  16.623  16.506  24.399  0.4606 -0.0008 -0.1346
14825W        W15689  25.357  27.999   3.173  0.0385  0.1283 -0.0009
14826W        W15690   8.330  26.323   3.314 -0.0910  0.0267  0.2494
14827W        W15691  14.506  18.093   7.866  0.0582 -0.1109 -0.1726
14828W        W15692   9.093  27.725  22.053  0.2334  0.3995  0.0913
14829W        W15693  22.477  26.100  17.331 -0.0002  0.0363  0.3750
14830W        W15694   2.563  18.670  17.816  0.4339  0.0932  0.2600
14831W        W15695  21.743  15.549  23.589 -0.0564 -0.0193  0.2844
14832W        W15696  25.234   9.695  24.915  0.0148 -0.0987  0.0549
14833W        W15697  24.562   0.944   4.128 -0.2688  0.1421 -0.2808
14834W        W15698  21.768  18.127   5.584  0.2899  0.0872  0.2253
14835W        W15699  16.875   9.056   0.874  0.2984 -0.1686 -0.0315
14836W        W15700  25.303  22.687  15.285  0.1261 -0.0634 -0.1080
14837W        W15701  26.976  13.063  20.195 -0.1521 -0.1539 -0.2253
14838W        W15702  27.453  17.867   3.007  0.2743  0.0981 -0.0247
14839W        W15703   0.996  16.218  15.716 -0.0663  0.1137  0.0533
14840W        W15704  20.314  26.013  22.653 -0.0169 -0.0965 -0.3588
14841W        W15705   5.762   2.914  20.280  0.3427 -0.0995 -0.2438
14842W        W15706   0.810   0.986  24.781  0.0024 -0.2163  0.0265
14843W        W15707  27.370  19.349   4.852 -0.1502  0.1486  0.0056
14844W        W15708   1.338  26.401   1.503  0.0910  0.2436 -0.0084
14845W        W15709  24.452   3.043  17.905  0.0735  0.1206 -0.0214
14846W        W15710   6.283  24.906  18.968  0.2480 -0.0268  0.0286
14847W        W15711  29.068   9.059   4.695  0.1388  0.1561 -0.0290
14848W        W15712   1.862  13.254  11.407 -0.1446  0.0771 -0.0500
14849W        W15713  26.940  15.477   3.432  0.1100 -0.2310  0.0196
14850W        W15714  16.367  21.742  20.278  0.3252 -0.1736 -0.0075
14851W        W15715  20.151   1.452  18.396  0.0719 -0.1795  0.4041
14852W        W15716   8.869  13.268  16.837  0.0371  0.0122 -0.1798
14853W        W15717  11.241  17.549   9.641 -0.0084  0.1260  0.0734
14854W        W15718  12.809  10.680  27.384  0.3137 -0.0732  0.2513
14855W        W15719   2.463  23.955  11.069  0.3860  0.2002  0.0711
14856W        W15720  12.200   5.506  23.660 -0.0189 -0.0800  0.4723
14857W        W15721   5.742  26.047  25.924  0.0573  0.1019 -0.0735
14858W        W15722  18.208  19.049  23.897 -0.0565  0.1525  0.4174
14859W        W15723  27.139   1.851  19.472 -0.0951 -0.0596  0.4080
14860W        W15724  23.442  20.179  17.524  0.0410  0.1067 -0.2691
14861W        W15725   2.832  28.200  13.815  0.0058  0.1544  0.2402
14862W        W15726  18.448  24.696  26.569 -0.1188  0.2301  0.0411
14863W        W15727   2.307  15.541  26.079  0.1081 -0.1886  0.0271
14864W        W15728   7.423   9.323  27.727 -0.1087 -0.3939  0.2592
14865W        W15729   3.353  14.028   2.162  0.3061 -0.2333 -0.1309
14866W        W15730  12.262  19.844   4.581  0.0500  0.0016  0.1409
14867W        W15731   2.303  22.238  14.776 -0.0882  0.0060  0.1655
14868W        W15732   3.126  15.164  10.074  0.2285  0.0732  0.1761
14869W        W15733  25.665  20.539  24.507 -0.1154  0.4023 -0.3394
14870W        W15734   1.047   0.430   5.228 -0.1358 -0.2271  0.3347
14871W        W15735  14.143  12.668  25.203 -0.3499 -0.0093 -0.2364
14872W        W15736   2.199  11.500  16.183  0.3380  0.1008 -0.0186
14873W        W15737  18.232  15.675   2.131 -0.3217 -0.2573  0.0524
14874W        W15738  29.045   4.311  26.976  0.1011  0.2414  0.1143
14875W        W15739  13.258  21.009  19.525 -0.0212  0.4154 -0.0122
14876W        W15740  10.736  11.787  20.490  0.0669 -0.0438  0.1647
14877W        W15741  19.854  28.666  17.587  0.1656  0.5316 -0.1665
14878W        W15742  29.040   5.725  22.400 -0.2484 -0.4438 -0.1940
14879W        W15743   2.674  24.415  28.423 -0.1832  0.0662 -0.3609
14880W        W15744  27.538  24.885  19.122 -0.3301  0.3197  0.0281
14881W        W15745  15.583   0.200  26.890  0.0072  0.2372 -0.1470
14882W        W15746  28.316  10.212  23.686  0.1839 -0.1355 -0.0904
14883W        W15747   3.012  10.540   1.906 -0.2555 -0.0826 -0.5860
14884W        W15748  12.078  20.354  20.478  0.0358 -0.0970  0.1724
14885W        W15749  16.086  21.775  28.312 -0.0721  0.2405  0.0434
14886W        W15750  25.464  12.648  20.151  0.3231  0.0415  0.0061
14887W        W15751  25.777  20.057  23.056  0.0753 -0.0689  0.3142
14888W        W15752   9.238   7.608  26.575  0.1605 -0.2781 -0.0344
14889W        W15753   1.931  13.115   6.012 -0.3719 -0.0995  0.0745
14890W        W15754  13.482  19.213   0.702 -0.0676  0.0277 -0.1124
14891W        W15755  12.648  11.348  14.793  0.2509  0.0441  0.0765
14892W        W15756  29.094  26.252  19.819 -0.0471  0.0799  0.0035
14893W        W15757  27.063  20.486  13.629 -0.2325  0.0565 -0.0947
14894W        W15758  14.385  22.900   3.052  0.0203 -0.2541 -0.0775
14895W        W15759  25.122  19.780  19.392  0.3541  0.1624 -0.1106
14896W        W15760  21.208   8.901  14.310  0.0654 -0.3315  0.0535
14897W        W15761   7.447   7.242  12.673 -0.2658  0.0498  0.1296
14898W        W15762  14.171  24.086  13.178 -0.2485  0.0170  0.0134
14899W        W15763  21.445   4.234   9.194  0.2020  0.0640  0.2709
14900W        W15764  29.036   7.666  20.180  0.1630 -0.2065  0.0676
14901W        W15765   9.569   9.823  28.713 -0.3674  0.3201  0.2362
14902W        W15766  15.041   6.285   7.207  0.0053 -0.1480 -0.1777
14903W        W15767   1.772  24.374   2.587 -0.2470  0.4737  0.0198
14904W        W15768  25.234  22.420  19.806 -0.4218  0.1217  0.0393
14905W        W15769  27.919  23.807  20.246  0.0022  0.0688 -0.1064
14906W        W15770  13.649  19.248  27.084 -0.1031 -0.0303 -0.0793
14907W        W15771  26.766  22.992  14.666  0.0749  0.1036  0.1338
14908W        W15772  25.733   8.192  10.102  0.2324 -0.0895  0.2168
14909W        W15773   8.467  13.676   6.297  0.3754 -0.4424  0.0832
14910W        W15774  18.446  25.542  14.586  0.0136  0.3741 -0.0953
14911W        W15775  14.720  22.528  29.107  0.1030  0.1311 -0.0870
14912W        W15776  19.555  15.999   5.439  0.0698  0.3589 -0.2526
14913W        W15777   2.866  13.723  15.663  0.1076  0.1513  0.1256
14914W        W15778   8.688  14.216  23.107 -0.0700 -0.1102  0.5747
14915W        W15779   6.912   6.228  22.236 -0.2420  0.1279  0.0215
14916W        W15780  13.412  10.532  14.687 -0.2816 -0.2605 -0.1735
14917W        W15781  21.482  13.328  16.000  0.2688  0.0010  0.2314
14918W        W15782  28.703  15.861   7.467 -0.0750 -0.1946  0.0093
14919W        W15783  25.529   0.497  22.275 -0.1147 -0.0912  0.0290
14920W        W15784   4.957  19.989  27.437 -0.0342  0.1834  0.0391
14921W        W15785  14.981  22.192  11.045 -0.3776  0.1294 -0.0287
14922W        W15786   6.814  16.893  24.019 -0.2591 -0.2179 -0.2727
14923W        W15787  25.509   1.799  26.208  0.0738  0.2161 -0.1207
14924W        W15788  18.607  21.774   8.128 -0.0320  0.1403  0.0626
14925W        W15789  28.746   4.514  13.987 -0.1023 -0.0151  0.0962
14926W        W15790  23.289  15.981   8.579 -0.0446 -0.1371 -0.2268
14927W        W15791   3.590  17.152  19.036 -0.2995  0.0483 -0.4481
14928W        W15792   6.172  20.984   5.563 -0.1977 -0.3456  0.0360
14929W        W15793  11.335  12.929  26.677  0.0409  0.1568 -0.1809
14930W        W15794  28.456  20.041  25.156 -0.2717 -0.1323  0.1007
14931W        W15795   2.418  23.270   1.835  0.3120  0.0455 -0.1629
14932W        W15796   0.585  14.343  18.826 -0.0217  0.2833  0.0878
14933W        W15797  10.706   6.136  18.186 -0.1317  0.3464 -0.1203
14934W        W15798  26.645  27.976  22.023 -0.0158  0.0544 -0.1184
14935W        W15799  24.868   8.952  22.936 -0.1959 -0.1594 -0.0274
14936W        W15800  12.130   0.205  10.059 -0.1209 -0.2654  0.4947
14937W        W15801   9.988   9.791   3.211  0.1200 -0.4449 -0.0944
14938W        W15802  17.213  11.323   9.572 -0.2297 -0.0300 -0.1191
14939W        W15803   1.587   9.278   9.152  0.1249  0.2266  0.1086
14940W        W15804   7.238  27.881  27.816 -0.0325  0.0598  0.0524
14941W        W15805   7.545  20.764   5.581  0.0358 -0.0013 -0.0960
14942W        W15806   5.885  17.529  22.100 -0.0549 -0.0335 -0.1436
14943W        W15807   5.851  29.055   6.187  0.1245 -0.1924  0.0116
14944W        W15808  15.708   9.502  27.119  0.1186  0.1382  0.0385
14945W        W15809  26.135  13.579   2.879  0.0119  0.0812 -0.0587
14946W        W15810  11.033   7.331   7.484  0.1773  0.0597  0.2801
14947W        W15811  26.547  17.282  22.492  0.1377 -0.0573  0.1263
14948W        W15812  26.571  21.643  14.443 -0.1771  0.0361  0.1956
14949W        W15813  21.220   2.340  14.028 -0.1550 -0.1674 -0.0763
14950W        W15814  21.735  16.255   9.905 -0.0571 -0.3316  0.1683
14951W        W15815  21.626   6.281  22.787  0.2574  0.0901  0.1414
14952W        W15816  27.003  20.718  16.359  0.1422 -0.1550  0.0031
14953W        W15817  26.155  18.622   4.703 -0.0117 -0.0463 -0.0512
14954W        W15818  17.401  27.046   5.544  0.1051  0.1844  0.0814
14955W        W15819  19.055  21.068  19.728  0.2194 -0.2729 -0.0293
14956W        W15820  27.557  13.702   6.372 -0.0526  0.0591 -0.2681
14957W        W15821   1.423   7.942  23.714 -0.1942 -0.0798  0.0020
14958W        W15822   6.495  26.120  18.546  0.1309 -0.1292  0.0644
14959W        W15823  16.822  13.688   8.409  0.1542 -0.0402  0.2920
14960W        W15824  17.419  22.862   9.995 -0.0736 -0.0627 -0.0916
14961W        W15825  25.528   2.517  17.517 -0.0480 -0.2715 -0.1731
14962W        W15826  13.459  29.096   1.694  0.1120 -0.0746  0.3023
14963W        W15827   7.585  12.479  26.947  0.0488 -0.0023  0.0933
14964W        W15828  19.776   1.105  12.197  0.1208  0.0776  0.4442
14965W        W15829  24.309  15.559  25.837  0.0529 -0.1017 -0.1938
14966W        W15830   1.099  18.098  28.434  0.0224  0.1437  0.0655
14967W        W15831  15.398  11.087  25.317  0.0142  0.3515 -0.0235
14968W        W15832  23.908  17.037  16.320 -0.2126  0.0555  0.0982
14969W        W15833   8.270  11.232   6.724  0.2389  0.0859  0.1176
14970W        W15834  19.777   5.174  16.820 -0.0298  0.0521  0.2353
14971W        W15835  27.704  18.052   3.373  0.2683  0.0675 -0.0541
14972W        W15836  16.492   8.572  21.975  0.1684  0.0373  0.1863
14973W        W15837  25.542  22.357  12.025  0.0264  0.0161 -0.2655
14974W        W15838   1.509  22.141  18.923 -0.0612 -0.0671  0.0645
14975W        W15839  28.920   6.033  14.256 -0.0977  0.0752  0.1204
14976W        W15840   7.508   0.664  27.987  0.1197 -0.0090  0.0602
14977W        W15841  20.446  16.430  16.076 -0.2347  0.2362 -0.0137
14978W        W15842  10.633  12.761   5.665 -0.2685 -0.1949 -0.2791
14979W        W15843  22.066  17.756  18.417 -0.0047 -0.0137  0.4097
14980W        W15844  21.704  13.344   3.564 -0.0969  0.0401  0.2131
14981W        W15845  29.019  13.363   9.353  0.1568  0.0366  0.0831
14982W        W15846  20.579  19.163   0.145 -0.1222  0.2278 -0.1589
14983W        W15847   2.435  11.360   8.674 -0.2588  0.3416 -0.1635
14984W        W15848  12.446   6.073  15.615  0.1993 -0.3561  0.1544
14985W        W15849   1.891   7.345  26.052  0.1355 -0.0790 -0.3124
14986W        W15850  22.549  16.842  28.260 -0.0275 -0.0800  0.0476
14987W        W15851  19.132   7.811  21.909  0.1488  0.4608 -0.2206
14988W        W15852   1.773   1.771  18.874  0.1510 -0.2189  0.0486
14989W        W15853  21.099  14.336   8.278 -0.1599 -0.1641 -0.3399
14990W        W15854  23.646  13.448  25.227 -0.0645 -0.1809  0.1513
14991W        W15855  11.235  16.887   5.992 -0.2372  0.0754  0.0732
14992W        W15856  15.292   6.014  24.879  0.4453 -0.1255 -0.0130
14993W        W15857  26.999  28.579  18.000  0.1388 -0.1374  0.0575
14994W        W15858   6.315   2.427  14.929  0.0157 -0.3122  0.1470
14995W        W15859  10.711   0.340  29.008 -0.1346  0.1169  0.1595
14996W        W15860  16.859  28.598  18.289 -0.4427 -0.4013 -0.1742
14997W        W15861   6.662  21.090  19.922  0.1853 -0.2255  0.0280
14998W        W15862  21.757  13.342   3.063  0.0065  0.1011  0.0720
14999W        W15863  25.320  10.891   3.117  0.1736  0.3448 -0.3902
15000W        W15864  19.003   8.741  15.064  0.2652 -0.2898 -0.0157
15001W        W15865   3.247   5.103   9.250 -0.1334  0.1047 -0.0057
15002W        W15866  15.873   7.514  26.549  0.1035  0.0537  0.1146
15003W        W15867   0.217   5.215  14.345  0.0781 -0.1486  0.1696
15004W        W15868   3.410  12.464  21.561  0.4231 -0.0720 -0.3760
15005W        W15869   7.641  29.119   4.574 -0.2696 -0.1373  0.2018
15006W        W15870   6.359  18.887  24.436  0.1805 -0.0289 -0.4051
15007W        W15871   2.594  10.020  19.750 -0.2258 -0.1746 -0.0692
15008W        W15872   3.237  14.138  18.089 -0.2018  0.2286  0.3214
15009W        W15873  23.983  12.112  11.851 -0.2385  0.0963 -0.1448
15010W        W15874   5.055  15.213  10.499 -0.0716 -0.1305  0.0389
15011W        W15875  16.152  20.161   9.895  0.2378  0.0849  0.1612
15012W        W15876  19.091  21.995  21.937  0.0974  0.0225  0.0614
15013W        W15877  10.564   5.860  28.958  0.1449  0.0311  0.0238
15014W        W15878  22.224  17.185  20.984  0.2740  0.2000  0.2807
15015W        W15879  25.616   1.289   9.457  0.1839 -0.0797 -0.1552
15016W        W15880  28.082   5.797  23.108  0.2914 -0.1491  0.1746
15017W        W15881   3.602  17.089   7.095  0.0174 -0.0896  0.0058
15018W        W15882  25.253  18.846   3.337  0.1075 -0.1533  0.0720
15019W        W15883  18.676   6.354   9.257 -0.0146  0.0842 -0.0745
15020W        W15884  27.371   7.222  19.163 -0.0493 -0.4384 -0.2030
15021W        W15885  19.026  15.610  27.018 -0.1236  0.0051  0.2363
15022W        W15886   9.361  11.475  22.045 -0.2215 -0.1954 -0.1097
15023W        W15887   4.134  12.504  11.290 -0.1050 -0.1213 -0.0122
15024W        W15888   6.145  21.219  14.754 -0.4605  0.4245  0.0506
15025W        W15889  11.365  17.375  27.620 -0.0360  0.0033 -0.0414
15026W        W15890  29.059  13.263  25.568 -0.1523  0.0309  0.2069
15027W        W15891  15.713  18.009  10.542  0.0684 -0.1895 -0.2705
15028W        W15892  13.988  24.644  26.043 -0.1521 -0.0463  0.2205
15029W        W15893  14.805  22.907   6.457 -0.0810  0.1397 -0.0608
15030W        W15894   3.151  23.986   4.595  0.2998 -0.3127 -0.0489
15031W        W15895   5.848  27.422   7.903 -0.0310 -0.1217 -0.0486
15032W        W15896  25.225   6.178   9.829 -0.0442 -0.2439  0.3473
15033W        W15897   1.162   2.347  21.387  0.2763  0.1683  0.2707
15034W        W15898   1.307   7.250  17.116 -0.0678  0.0718 -0.2763
15035W        W15899  24.782  27.783  14.223  0.0285  0.0036 -0.3091
15036W        W15900   8.926  24.094  14.454 -0.1009  0.2051  0.2438
15037W        W15901   8.424  11.459  23.700  0.1227 -0.2482  0.1814
15038W        W15902  24.367  28.533  15.860 -0.1011  0.0880 -0.2231
15039W        W15903   8.374  21.984  28.465  0.0873 -0.2539 -0.2252
15040W        W15904  20.248   2.941  17.500  0.1142 -0.2869 -0.1876
15041W        W15905   1.038  13.400  24.842 -0.1777 -0.1837  0.0161
15042W        W15906  16.380  28.286  13.962  0.0116  0.3019  0.2937
15043W        W15907   5.610  16.109   6.624  0.3427  0.2617 -0.0888
15044W        W15908  24.219  24.343  23.853 -0.2092 -0.1397 -0.2115
15045W        W15909   1.832   1.467   7.106  0.3540  0.0093 -0.1482
15046W        W15910  19.898  23.909  22.241  0.0970  0.2021  0.2173
15047W        W15911   1.701   2.040   7.551  0.1403 -0.0513  0.1220
15048W        W15912  10.975   5.834   9.868  0.0118 -0.0776 -0.1099
15049W        W15913  11.444   2.717  19.302  0.3275  0.2091  0.1170
15050W        W15914  28.810  15.928   9.298 -0.0706 -0.1310  0.2492
15051W        W15915  20.920  25.069   5.857  0.1842  0.1279 -0.2942
15052W        W15916   3.510  21.241  22.708 -0.2018 -0.1323  0.0389
15053W        W15917  24.415  23.386  12.027  0.0347  0.2015 -0.2129
15054W        W15918  20.913   2.484  21.200  0.0011 -0.1141  0.0033
15055W        W15919  19.585  21.687   0.236 -0.2454  0.1309 -0.1985
15056W        W15920  19.989  13.669  12.038 -0.1035  0.0298  0.3257
15057W        W15921   6.351   8.993  21.105 -0.0091  0.2856  0.0099
15058W        W15922  10.914  27.824  21.630 -0.2574  0.0481  0.0230
15059W        W15923  19.614   0.561  28.786 -0.3221 -0.0025 -0.2382
15060W        W15924  27.039  22.948  20.397  0.1160 -0.0914 -0.2689
15061W        W15925   7.952   2.691   6.050  0.1073  0.0179  0.1307
15062W        W15926   0.089  25.855  21.165  0.2283 -0.0233 -0.0901
15063W        W15927  19.201  22.836  15.357 -0.1475 -0.0324  0.0755
15064W        W15928  28.939   6.367  20.962 -0.0770  0.2159 -0.0666
15065W        W15929   7.349   8.958  21.777 -0.1186 -0.0778 -0.4095
15066W        W15930  23.049  16.276   2.029 -0.1317  0.1270 -0.0328
15067W        W15931  17.350  12.652  23.350 -0.0600  0.1611  0.3405
15068W        W15932  12.922  11.024  20.851 -0.0201  0.1932  0.0247
15069W        W15933   5.123  14.822  22.214  0.3664  0.5269  0.3392
15070W        W15934   3.166  24.187   7.829  0.0233 -0.1084  0.3948
15071W        W15935  18.964   9.357   6.622 -0.2911 -0.2966 -0.4023
15072W        W15936  11.407  22.217  27.852  0.1796  0.0181  0.2922
15073W        W15937  10.199  26.299   5.774 -0.0475 -0.1276 -0.0961
15074W        W15938  20.266  25.572  18.232 -0.0711  0.1199  0.0324
15075W        W15939   5.966   9.443  28.567 -0.0291 -0.0827  0.2241
15076W        W15940  28.209   2.703  14.848  0.1688 -0.1022 -0.0463
15077W        W15941  28.380  18.284  25.666  0.3575  0.1881 -0.0122
15078W        W15942  14.012  16.086  22.314 -0.0426 -0.1231  0.2246
15079W        W15943   8.697  10.861  11.992  0.0550 -0.0173  0.1716
15080W        W15944   8.585  10.240   1.139  0.0479 -0.0676  0.0216
15081W        W15945  26.944  22.758  16.136 -0.1582  0.2188  0.0564
15082W        W15946  18.378   3.701  21.769  0.1141 -0.3582  0.2760
15083W        W15947  20.018  19.442  22.601  0.2237 -0.0943  0.0672
15084W        W15948  27.660  10.173  23.275 -0.0586  0.1401  0.2126
15085W        W15949  25.059  12.406  10.497  0.1096  0.1785 -0.0917
15086W        W15950  18.192  21.183  22.603  0.0887 -0.3225  0.0821
15087W        W15951  23.341  26.050   7.896  0.0712  0.1362 -0.0136
15088W        W15952   1.032  26.007  12.199 -0.4859  0.1111 -0.1542
15089W        W15953   5.158   2.262  11.247 -0.0081 -0.0230  0.0706
15090W        W15954  29.067   9.865  16.534  0.0021 -0.0466 -0.1245
15091W        W15955  23.883   0.211   4.529  0.0801  0.1095 -0.1994
15092W        W15956   4.309   4.500  16.634  0.4122 -0.2581 -0.1780
15093W        W15957  23.426  16.698   9.529  0.2316  0.0960 -0.1453
15094W        W15958  26.803   7.253  18.182 -0.3141  0.0507  0.0540
15095W        W15959   9.195  25.287  15.113  0.0442 -0.1041  0.1085
15096W        W15960   3.711  19.051  10.950  0.0073  0.0528  0.0059
15097W        W15961   9.574  11.909  21.634  0.0556  0.0762 -0.0094
15098W        W15962  20.901  14.296  11.632  0.1910 -0.2494 -0.0014
15099W        W15963   9.174   8.195  18.668 -0.1391  0.0150 -0.2573
15100W        W15964  10.073   6.558   3.245 -0.1695 -0.0576 -0.1520
15101W        W15965   6.801   5.965  23.491 -0.3539  0.0702  0.0437
15102W        W15966  16.166  21.202  20.071  0.0977 -0.1049  0.1585
15103W        W15967  21.989   6.792  22.083  0.1032 -0.2892  0.0544
15104W        W15968  25.158   9.094   6.102 -0.1769  0.0061  0.1833
15105W        W15969  21.725  10.780  17.970  0.2381 -0.0031 -0.0642
15106W        W15970  22.635  23.528   1.753  0.0300 -0.1871 -0.0584
15107W        W15971   6.734  20.477   5.480  0.0266 -0.0121  0.1181
15108W        W15972  27.312  25.417  14.421 -0.1481  0.0197 -0.1278
15109W        W15973   5.577   7.059   1.969  0.0366 -0.0354 -0.0600
15110W        W15974   4.476  10.267   9.141 -0.0409 -0.0391  0.1935
15111W        W15975  20.618  24.454  16.765 -0.1254 -0.1481 -0.2377
15112W        W15976  11.480  12.152   9.050  0.2723 -0.1020 -0.2306
15113W        W15977   1.030   4.224   0.029  0.2375  0.0804 -0.1134
15114W        W15978  14.478  10.426  13.901  0.1013  0.0238  0.0925
15115W        W15979  13.808  19.415   6.545  0.1547 -0.1128  0.0094
15116W        W15980  22.194  21.947  17.254  0.1221 -0.0714  0.2045
15117W        W15981  24.776  10.551   8.478  0.1528 -0.3674 -0.0435
15118W        W15982   5.685   7.333   9.890  0.1874  0.1217  0.2352
15119W        W15983  15.217  21.975  27.285 -0.1547 -0.2112  0.1744
15120W        W15984   3.255  17.045  21.034 -0.2176  0.1080  0.0437
15121W        W15985  29.084  19.455  19.598  0.1671 -0.3008  0.2856
15122W        W15986  11.474  25.317   8.518 -0.1138  0.0456  0.0965
15123W        W15987   5.784   4.709  20.856 -0.2994 -0.6586 -0.0121
15124W        W15988   0.574   5.193  28.994 -0.1698 -0.1215  0.1193
15125W        W15989   1.302   3.252  23.783 -0.1249 -0.2403  0.0629
15126W        W15990  23.864  18.911  13.476 -0.0694 -0.0477  0.1052
15127W        W15991  16.884   4.732   2.718 -0.1142 -0.2837  0.1026
15128W        W15992   7.116  16.195  20.067 -0.0710  0.0830  0.1616
15129W        W15993  21.907  25.788  16.632 -0.3026  0.1049  0.1084
15130W        W15994  19.187  21.420  28.897 -0.0517  0.1916 -0.3352
15131W        W15995   1.748  19.365  15.257  0.1199  0.0874  0.0531
15132W        W15996   9.949  28.552  19.255 -0.0191 -0.1717  0.0085
15133W        W15997   1.437  13.754  16.430 -0.0760  0.1484  0.3716
15134W        W15998  27.834   7.344  26.035 -0.2405  0.0706  0.0257
15135W        W15999   2.592   5.792   5.565 -0.0141  0.0031  0.1306
15136W        W16000   0.476  15.334   1.800 -0.1216 -0.0904  0.2403
15137W        W16001  20.434  10.807  21.478  0.0943 -0.0960 -0.1332
15138W        W16002   6.177  23.994  21.036  0.1004  0.0954 -0.2796
15139W        W16003  28.346  17.213  27.373  0.2695  0.1178  0.0748
15140W        W16004   8.660  12.486  25.224  0.0288  0.0007  0.1790
15141W        W16005  13.388  12.973  10.686  0.2090 -0.2049 -0.0254
15142W        W16006   5.151   0.422  10.695  0.2175  0.0273 -0.0842
15143W        W16007   3.597  15.700  14.600  0.0647 -0.1493 -0.0189
15144W        W16008   3.310   9.298   1.170  0.2485 -0.0394  0.3227
15145W        W16009   0.188   5.853  24.778  0.0610 -0.1325  0.0872
15146W        W16010   6.722   9.178  22.561 -0.3764  0.0373 -0.1348
15147W        W16011  15.074  14.880  23.921  0.2261  0.1332 -0.0679
15148W        W16012  10.137  20.557  17.592 -0.1257 -0.3260  0.0670
15149W        W16013  24.023   8.960  18.357  0.0626  0.1130 -0.1010
15150W        W16014   9.920  10.780  20.791 -0.1426 -0.0859  0.0333
15151W        W16015  13.890  18.231  28.444 -0.0260 -0.1144  0.0586
15152W        W16016  25.332  14.952   0.459  0.0452 -0.3337 -0.1165
15153W        W16017  22.727  27.983  11.747  0.0409  0.0741 -0.1689
15154W        W16018  27.851  27.741  28.448 -0.2631 -0.3039 -0.3864
15155W        W16019   3.801   2.766  16.718  0.4009  0.0651  0.0955
15156W        W16020  20.536   6.060  21.324  0.3419  0.2964  0.3179
15157W        W16021  16.073  21.464  10.322  0.1861  0.2312  0.0141
15158W        W16022  25.087  12.127  21.065  0.1207  0.1372  0.0537
15159W        W16023  19.936   3.584  22.104 -0.0362 -0.1920 -0.3387
15160W        W16024  16.927  12.092   7.318  0.1611  0.0013  0.2239
15161W        W16025  26.061   4.975  18.819 -0.1263 -0.2111 -0.0786
15162W        W16026   9.653   4.326  26.583  0.1052  0.2973  0.0587
15163W        W16027   7.961  12.901   1.361 -0.1835  0.1615 -0.0775
15164W        W16028   9.825   7.407  14.756  0.1603 -0.2634 -0.1984
15165W        W16029   5.658  15.859  10.638  0.2049 -0.2207  0.0637
15166W        W16030  26.532  14.046  23.769  0.2066 -0.0316  0.1429
15167W        W16031  25.113  22.682  12.095 -0.1478  0.0457  0.1717
15168W        W16032  19.044  11.088  11.332 -0.2334 -0.0996  0.1499
15169W        W16033  29.103  13.514  26.743  0.0149 -0.0711 -0.0534
15170W        W16034   4.919  14.495  16.567  0.1425 -0.0366 -0.0750
15171W        W16035  23.732  18.297  13.158  0.0188 -0.3190  0.1335
15172W        W16036  26.875  18.316  25.690 -0.1971  0.0811 -0.3567
15173W        W16037   7.194  22.429   4.244 -0.0187  0.0102 -0.0935
15174W        W16038   7.590  10.249   3.367  0.1117 -0.0776  0.0799
15175W        W16039  21.843  24.810  18.310  0.1725  0.2556  0.0012
15176W        W16040   8.032   3.731   6.805 -0.1246 -0.1347 -0.2999
15177W        W16041  10.435  21.222  15.639 -0.1410 -0.2520 -0.0122
15178W        W16042  13.416  14.754   8.366  0.0039  0.0218 -0.0890
15179W        W16043  25.312  11.718  28.476  0.0919 -0.0988  0.0466
15180W        W16044  14.963  26.591   6.648 -0.0160 -0.2245  0.0106
15181W        W16045  24.304  29.100  22.048  0.5359 -0.2489 -0.0453
15182W        W16046  24.458  18.056  12.391 -0.2006 -0.1473 -0.1630
15183W        W16047   6.211  20.938   6.489  0.1121 -0.1284  0.2348
15184W        W16048   6.580  10.475   3.740 -0.0801  0.0295 -0.1861
15185W        W16049  23.259  25.515   9.347  0.0146  0.1314 -0.0322
15186W        W16050  24.147  13.594  16.810  0.0130  0.0447 -0.0167
15187W        W16051   3.914  22.641   2.551  0.0510 -0.1110 -0.0047
15188W        W16052  16.570  22.022  21.681 -0.0980 -0.1900  0.0141
15189W        W16053  27.892  11.009   9.979  0.3160  0.0790  0.2360
15190W        W16054  25.957  13.786  20.586  0.2384  0.1410 -0.2510
15191W        W16055   3.329  18.567  16.192 -0.1131  0.3165  0.0704
15192W        W16056  19.363  17.883   9.243  0.2526  0.2629  0.0880
15193W        W16057  16.773   5.738   7.222 -0.0649 -0.0114 -0.0987
15194W        W16058  15.874   2.246  28.299  0.1165 -0.3525  0.0620
15195W        W16059   8.768  18.339  28.740 -0.3234 -0.0186  0.1382
15196W        W16060   9.468  18.227   8.973 -0.1057 -0.0905  0.2845
15197W        W16061   8.848  11.797  27.702  0.1273  0.1997  0.0005
15198W        W16062  22.881   7.368  18.293 -0.0481  0.0038  0.1157
15199W        W16063  13.979   9.938  27.563 -0.1249 -0.1453 -0.1991
15200W        W16064  28.757   9.457  12.437  0.1532 -0.2150  0.0362
15201W        W16065  12.055   9.319  19.259 -0.0901  0.0857 -0.1929
15202W        W16066  18.077  14.523  28.939 -0.0466 -0.2775 -0.2830
15203W        W16067  15.021   9.988  18.581  0.1426 -0.0651 -0.0518
15204W        W16068  10.148  10.943  10.090  0.0434 -0.1239  0.2011
15205W        W16069  17.848   4.399  15.818 -0.2338  0.3422  0.0745
15206W        W16070  26.045  11.304  21.899 -0.1984 -0.1156  0.1021
15207W        W16071  22.084  26.577  16.847 -0.1557  0.3210 -0.0433
15208W        W16072   4.569  15.058  18.081  0.3756  0.0405 -0.3393
15209W        W16073   8.862   1.897  28.238 -0.0795  0.0837 -0.1156
15210W        W16074   9.556  17.410  14.758  0.0833  0.1788 -0.1927
15211W        W16075   9.351   7.140   8.704 -0.1017 -0.1210  0.1317
15212W        W16076  18.586  12.872   4.058  0.0698 -0.2437  0.2948
15213W        W16077   3.949   8.268   4.782  0.1232 -0.0508  0.1463
15214W        W16078  22.316  12.329  26.519  0.2435 -0.0657  0.1554
15215W        W16079  10.888  22.042   1.887  0.4929  0.0945  0.2469
15216W        W16080   6.159   7.636  19.041  0.1090  0.0084  0.2671
15217W        W16081   9.218   7.141  19.628 -0.2425  0.1966  0.0786
15218W        W16082  27.624   9.821  12.519  0.1299 -0.1391  0.0449
15219W        W16083   5.086  11.892  14.901 -0.0386 -0.0097 -0.3212
15220W        W16084   7.504   5.977   4.457  0.0365  0.1651  0.0628
15221W        W16085   9.650  11.055  20.475 -0.5887  0.0649  0.2315
15222W        W16086  15.091  24.530   9.666 -0.1771  0.0307 -0.1505
15223W        W16087  26.050  27.590  11.224  0.2377 -0.2567 -0.1620
15224W        W16088   2.491   8.580  25.398 -0.2329  0.0261  0.2541
15225W        W16089  10.939  22.871  14.621  0.1451 -0.2307 -0.0157
15226W        W16090   3.872   7.987  21.323 -0.1978  0.0165  0.0894
15227W        W16091   0.399  16.029  23.704  0.1185 -0.0551 -0.1527
15228W        W16092  10.137   5.295  23.033  0.0298  0.1542  0.0993
15229W        W16093  26.755  20.325  28.415  0.2266 -0.1784 -0.0178
15230W        W16094  19.013  16.289  18.300  0.0010  0.0045 -0.1607
15231W        W16095   7.890  15.324  23.562 -0.0466  0.1524 -0.1268
15232W        W16096   2.425   4.626  26.434 -0.2842  0.0602 -0.0899
15233W        W16097  20.326  15.750   2.478 -0.1858 -0.0831 -0.2131
15234W        W16098   8.991  16.684  24.675  0.1131  0.2332  0.0993
15235W        W16099   6.201   1.420   9.101 -0.1045  0.5213  0.1104
15236W        W16100  23.618  22.656  19.675  0.2187  0.0343 -0.0418
15237W        W16101  13.085  16.594  29.016 -0.3322 -0.2143 -0.2891
15238W        W16102  26.706   0.722  17.714 -0.0619  0.0959 -0.0498
15239W        W16103  27.072  24.399   0.744  0.1850  0.3848 -0.1680
15240W        W16104  21.621  14.605   8.457 -0.1888  0.0877  0.1124
15241W        W16105  19.073  22.229   7.647 -0.0246  0.0629  0.0795
15242W        W16106  14.526   5.970   1.294 -0.0369  0.0155 -0.0158
15243W        W16107  23.457  19.420  12.706 -0.1426  0.0984 -0.1143
15244W        W16108   2.554  19.696  20.515 -0.1720 -0.0760  0.0853
15245W        W16109  25.814  24.887  24.329 -0.0792 -0.2941 -0.2161
15246W        W16110   7.455  21.831  19.931  0.1128  0.0810  0.2887
15247W        W16111  15.270  19.465   5.664 -0.0909 -0.0860  0.1155
15248W        W16112  12.822   0.476  17.812 -0.1489 -0.0924  0.1033
15249W        W16113   5.028   7.783  19.766  0.1992  0.1668  0.0127
15250W        W16114   0.921  22.843  18.717 -0.0117 -0.1069 -0.0680
15251W        W16115   9.071   3.083   6.277 -0.0851  0.3333  0.0157
15252W        W16116  27.740  25.217  26.773 -0.2001  0.1689  0.0101
15253W        W16117  12.341  19.835  19.266  0.0286  0.1398 -0.1807
15254W        W16118  28.948  11.332  16.525 -0.2432  0.0557  0.0460
15255W        W16119   5.765  22.206   5.731 -0.2363 -0.0500 -0.0186
15256W        W16120  24.308  18.063  16.824  0.3393 -0.0369  0.1029
15257W        W16121  28.516  14.634  19.658  0.0918  0.3309  0.1737
15258W        W16122   3.435  13.425  28.197 -0.0640 -0.3100 -0.1717
15259W        W16123  26.136   3.465   5.218 -0.1299 -0.1748 -0.0902
15260W        W16124   3.758  12.868  23.258  0.1994 -0.0375 -0.2446
15261W        W16125  20.607  17.277  22.789  0.1121 -0.0079 -0.1232
15262W        W16126   3.845   8.023  22.997 -0.1125 -0.3555  0.0329
15263W        W16127  29.094   9.379  28.883 -0.2868  0.2820 -0.1397
15264W        W16128   2.656   0.529  25.034  0.2542 -0.3240 -0.1278
15265W        W16129  27.252   8.470  25.872  0.1112  0.1578  0.0696
15266W        W16130  29.010   0.207   9.876  0.0558 -0.1040  0.0093
15267W        W16131  24.240  27.748  17.895 -0.5183  0.0374 -0.0615
15268W        W16132   9.209  27.302  12.637  0.0051 -0.1596 -0.1715
15269W        W16133  18.065  11.542  27.437  0.0499 -0.1513 -0.0411
15270W        W16134  14.425  22.437  15.618  0.0255  0.0643  0.1226
15271W        W16135  27.573   0.195  27.492  0.0682 -0.1261 -0.1867
15272W        W16136  19.373   2.484  27.587  0.2445 -0.4231 -0.0143
15273W        W16137  10.178  13.466  21.744  0.0785 -0.0853 -0.0969
15274W        W16138   6.984  22.371  16.892 -0.2784 -0.1062  0.2870
15275W        W16139  26.867   6.989   1.187 -0.0268 -0.1088 -0.2106
15276W        W16140   1.676  24.997  21.835 -0.0897  0.0904  0.1400
15277W        W16141  28.029  27.131  12.292 -0.1243  0.0176  0.1330
15278W        W16142  20.792  27.202  10.894  0.2787 -0.2595  0.1192
15279W        W16143  12.021  19.600  18.974  0.2912  0.3945  0.0814
15280W        W16144   4.543  22.053  22.708  0.0349  0.0556  0.0888
15281W        W16145   4.844   1.359   4.788 -0.0906  0.2752  0.0080
15282W        W16146  25.095  23.711  20.557 -0.1167  0.0986  0.0807
15283W        W16147  21.244   7.241   2.382 -0.4076  0.1375 -0.4311
15284W        W16148   2.897  12.472   7.212  0.0189 -0.0298  0.0523
15285W        W16149  14.379  22.962  26.698 -0.0421  0.2355 -0.1167
15286W        W16150   2.884  10.908  17.485 -0.1568 -0.0344  0.1889
15287W        W16151   0.450  20.216  26.995  0.0004 -0.0712  0.0346
15288W        W16152  22.811   4.835  16.061 -0.0109  0.0531  0.1420
15289W        W16153   4.704  22.811  16.607  0.1061  0.3276 -0.0056
15290W        W16154  15.270  26.870  20.129 -0.0753  0.2697  0.1568
15291W        W16155   4.979   0.005  15.749  0.2125 -0.2697  0.0528
15292W        W16156   2.570  18.055   9.547  0.2035 -0.0955 -0.1620
15293W        W16157  21.363  22.267  20.820 -0.1045 -0.0723  0.0887
15294W        W16158  27.381  14.176   7.061  0.0048 -0.1459  0.1606
15295W        W16159  27.280  16.514  15.596 -0.0836  0.1975  0.1113
15296W        W16160   4.137  16.292   9.522 -0.1044 -0.1516  0.1088
15297W        W16161  22.893  22.474   0.769 -0.1195 -0.2584  0.2570
15298W        W16162  12.328  20.572  25.313  0.0041 -0.5059  0.0952
15299W        W16163  21.182   6.746  25.624  0.1132  0.2080 -0.1245
15300W        W16164  13.750  15.837   8.342  0.0579  0.3007 -0.2321
15301W        W16165  22.276  20.944  27.534 -0.4067 -0.1333  0.1298
15302W        W16166  20.993  24.448  10.432 -0.2178  0.0785  0.0535
15303W        W16167  16.583  23.000  27.632 -0.1192  0.1128  0.0762
15304W        W16168  14.686  11.250  24.588  0.0198 -0.0549 -0.2787
15305W        W16169  17.157  14.167  12.477  0.0080  0.0762 -0.1623
15306W        W16170  14.781  13.765   0.882 -0.1175  0.2120  0.1321
15307W        W16171  23.665  26.896  18.864  0.0532  0.1394  0.2122
15308W        W16172  25.834  22.312  25.467  0.2002  0.0299  0.2278
15309W        W16173  26.193  12.959   0.870 -0.0237  0.3229  0.1343
15310W        W16174   3.982  27.773  20.498  0.2170 -0.2418  0.0762
15311W        W16175  21.681  20.531   7.983  0.1423 -0.1314 -0.0478
15312W        W16176   9.745   2.399  21.809  0.0619 -0.0168  0.0686
15313W        W16177  24.971   6.993   1.158  0.1335 -0.0341 -0.0334
15314W        W16178  14.184  17.398  21.830  0.1365 -0.3809  0.1116
15315W        W16179  12.812   2.631  17.520 -0.0861  0.1296 -0.1990
15316W        W16180   5.551  27.495  15.755  0.0627  0.0988 -0.0439
15317W        W16181  25.776  11.504  28.649  0.3460  0.3721  0.0079
15318W        W16182  12.540  17.274   6.099 -0.3127  0.1024  0.2505
15319W        W16183  22.665  14.594  22.301  0.1893 -0.0143  0.1101
15320W        W16184   7.450  23.247  15.585  0.2273 -0.1358  0.1038
15321W        W16185  14.619   9.554  15.536 -0.1630 -0.1853  0.2072
15322W        W16186   3.843   1.283  12.164  0.1922 -0.0436  0.2065
15323W        W16187   6.862  14.500  27.070 -0.0451  0.2141 -0.1346
15324W        W16188   6.635   1.897  28.659  0.4988  0.0400  0.2595
15325W        W16189   9.523  22.105  13.689  0.0562  0.1401 -0.1721
15326W        W16190  16.632  19.597  22.923 -0.1065  0.0195  0.1284
15327W        W16191  22.090   7.210   9.154 -0.0700  0.3078 -0.3328
15328W        W16192   4.697   9.046  17.715  0.3140 -0.1277 -0.0096
15329W        W16193   4.038   5.767   5.297 -0.1351  0.0615 -0.0868
15330W        W16194  26.961  25.422  17.672  0.2040 -0.2968  0.3534
15331W        W16195  21.548  25.408  15.928 -0.1261 -0.0907 -0.0313
15332W        W16196   4.989   3.798  27.891 -0.2110 -0.0594 -0.2018
15333W        W16197   3.376  21.189  20.253  0.0359 -0.2477  0.0052
15334W        W16198  23.635  24.132   3.248  0.2752 -0.0734  0.1249
15335W        W16199  27.976  21.968  10.234 -0.2872  0.1719 -0.2836
15336W        W16200   7.153   1.100  17.056  0.2544 -0.1615  0.1263
15337W        W16201   9.645   2.946  26.775  0.1717  0.1610 -0.0344
15338W        W16202  15.776  22.502  19.945 -0.0110  0.2786  0.1693
15339W        W16203   3.761   6.011  11.048 -0.4593 -0.0662 -0.2934
15340W        W16204   2.391   2.935  27.040  0.0499 -0.0892  0.0951
15341W        W16205  22.162  20.825  28.439 -0.1872 -0.2079 -0.0906
15342W        W16206  23.667   4.413  11.023 -0.1017 -0.3937  0.3007
15343W        W16207  25.196  19.553  23.739 -0.1724  0.3716 -0.0367
15344W        W16208   6.038  10.003   9.941  0.0332 -0.1949 -0.4044
15345W        W16209  26.967  19.810  14.532  0.2615 -0.0312 -0.1378
15346W        W16210   5.680  11.013   7.981 -0.1185 -0.0130  0.0826
15347W        W16211  22.601  20.051  28.587 -0.0915  0.2241 -0.1092
15348W        W16212  10.090  18.934  10.488  0.1963  0.1518  0.0705
15349W        W16213  19.533   2.018   8.086  0.3303 -0.3755  0.0703
15350W        W16214   3.700   1.553  18.280  0.5277  0.2036  0.2076
15351W        W16215  24.407  15.733  14.345 -0.2012 -0.2464  0.1680
15352W        W16216  19.677  13.258  17.601 -0.0346  0.0202 -0.1018
15353W        W16217  17.000   8.954  19.598 -0.0939  0.0995 -0.3771
15354W        W16218  15.824  19.300  20.968 -0.2517  0.1033 -0.1550
15355W        W16219   9.475  10.929  17.582 -0.0324  0.0888 -0.0895
15356W        W16220   0.737  16.520   9.422  0.0539  0.4038  0.1245
15357W        W16221  12.068  27.888  28.928 -0.0296 -0.2458  0.2686
15358W        W16222   5.736  12.712   3.281 -0.1255  0.1903  0.1446
15359W        W16223   2.159  18.216  22.898  0.1503  0.1949 -0.0339
15360W        W16224   3.471   8.484  27.998  0.1974  0.1176  0.3097
15361W        W16225   3.563  19.328  25.091 -0.0696 -0.1004 -0.1580
15362W        W16226  16.458  16.657   6.756  0.3235 -0.1289 -0.0905
15363W        W16227  10.508  20.791  13.043  0.0358 -0.3387  0.1247
15364W        W16228   1.879  16.082  12.804 -0.1782 -0.0308 -0.0584
15365W        W16229   8.493  28.299  25.992  0.4754 -0.0061 -0.1202
15366W        W16230  21.404   7.922   3.214  0.3472 -0.0207  0.2674
15367W        W16231  11.158   5.342  17.641  0.2901  0.2599  0.1005
15368W        W16232  13.716  25.165   8.042 -0.1399 -0.1552  0.0660
15369W        W16233  10.531  25.770   2.595 -0.1302  0.1793  0.1028
15370W        W16234   4.238  10.497  15.846  0.3607  0.0505  0.1872
15371W        W16235  22.617  11.200  20.359  0.3345 -0.0127 -0.0647
15372W        W16236  24.287  17.372   2.006  0.0490  0.3265  0.0354
15373W        W16237   9.984   6.061   5.709 -0.0797  0.0110 -0.0631
15374W        W16238  27.784  10.575  24.620  0.1899  0.2473  0.1666
15375W        W16239   3.803  24.464   4.054 -0.2376 -0.0263  0.3168
15376W        W16240  17.695  10.985  25.164  0.0671 -0.0675  0.3160
15377W        W16241  17.740   3.436  19.125 -0.1971  0.2430  0.1575
15378W        W16242  28.721  24.020  21.279  0.0828 -0.2463  0.0777
15379W        W16243   4.086  13.889   0.313  0.2467 -0.1176 -0.3120
15380W        W16244  15.629   2.775  18.482 -0.1305  0.1568 -0.2011
15381W        W16245   5.842  18.908  18.968 -0.2243  0.0870  0.0896
15382W        W16246  28.383   9.626  13.496 -0.1550 -0.0613 -0.2366
15383W        W16247   4.978   5.705  16.825 -0.0761 -0.1527 -0.0136
15384W        W16248   6.530  20.261  27.590  0.0810 -0.0689 -0.0220
15385W        W16249  21.569  18.393   8.175 -0.1344  0.3036 -0.1948
15386W        W16250  21.196  13.005  12.852  0.2993 -0.0397  0.1267
15387W        W16251  13.146  12.583  17.076 -0.0230 -0.5089 -0.0187
15388W        W16252  26.303  11.196   6.675  0.1291 -0.0643 -0.3745
15389W        W16253  27.136  13.841   7.803  0.0505 -0.1862  0.0564
15390W        W16254   7.370   9.075  20.275  0.0103  0.0023 -0.1413
15391W        W16255  26.304  16.232   3.146  0.0480  0.2184 -0.0863
15392W        W16256  18.038   2.594  19.655  0.1217 -0.1891 -0.1551
15393W        W16257  28.468  21.671  16.375 -0.3584  0.1797 -0.0326
15394W        W16258  17.782  12.239  11.441  0.1814  0.2665 -0.2349
15395W        W16259   7.873  24.294   9.380  0.0117  0.2157 -0.3044
15396W        W16260  22.567  22.141  11.077 -0.1145 -0.1553  0.1794
15397W        W16261  22.381   4.068  16.303  0.0045 -0.1636 -0.2370
15398W        W16262   1.504  19.355  14.794  0.2005  0.0906 -0.0733
15399W        W16263  10.931  19.165  26.114  0.1334 -0.1136 -0.2021
15400W        W16264  25.502   7.801   6.104  0.0138  0.3165  0.0301
15401W        W16265   5.740  11.843  18.072  0.0425  0.2881 -0.1524
15402W        W16266   9.884  13.052  22.134  0.2376  0.1968  0.1387
15403W        W16267  23.769  23.785   8.553  0.1796 -0.1852 -0.2180
15404W        W16268  24.405  16.953   3.118  0.1494 -0.2400 -0.0575
15405W        W16269   7.086  22.990  12.593 -0.1468 -0.2758  0.2088
15406W        W16270   1.773  29.094   5.847  0.2429 -0.0464  0.1462
15407W        W16271   2.002  22.759  16.805 -0.1237 -0.0215  0.0112
15408W        W16272   8.552   5.630  28.780  0.0847  0.3927  0.1725
15409W        W16273  15.166  17.506  13.449  0.1943 -0.2677  0.2181
15410W        W16274   1.619   7.599  14.332 -0.1702 -0.1027 -0.1508
15411W        W16275  24.208   6.318   0.646  0.3003 -0.0752  0.0262
15412W        W16276   4.613   8.968   6.443  0.1629  0.2563 -0.2047
15413W        W16277   7.829  27.374  13.162  0.1101  0.0412  0.1219
15414W        W16278  12.874  20.187  26.427 -0.2461 -0.0632 -0.0367
15415W        W16279   9.359  12.188  15.172  0.0461 -0.1206 -0.1521
15416W        W16280  21.518   3.731  21.303 -0.0342  0.1603  0.1185
15417W        W16281  17.921  21.821  14.041  0.1568  0.0554 -0.0282
15418W        W16282  25.396  14.516  26.603 -0.1477 -0.0140  0.3094
15419W        W16283  20.340  13.498   0.700  0.3324  0.1092  0.1837
15420W        W16284   5.474  23.534  22.268  0.0545 -0.0180 -0.3386
15421W        W16285  24.076   0.926  21.073  0.1100 -0.1968 -0.0854
15422W        W16286  21.761   9.395  25.263 -0.0891 -0.1608  0.2583
15423W        W16287  19.503  17.175  26.737 -0.1619  0.0373 -0.1735
15424W        W16288  13.154   2.009  28.593  0.2203 -0.2339 -0.1180
15425W        W16289  18.398  14.453  18.667 -0.0828  0.2953  0.2043
15426W        W16290   5.547  17.976  20.288 -0.1106  0.1937 -0.0213
15427W        W16291   8.928  10.933  16.883 -0.2492  0.1824 -0.0051
15428W        W16292  26.022  21.840  28.514 -0.0953 -0.0779 -0.0401
15429W        W16293   6.811  18.470  28.403  0.3366 -0.1006 -0.1335
15430W        W16294  25.721  25.747  12.065  0.2585 -0.1265  0.0965
15431W        W16295  22.990  19.493   6.015  0.1581  0.0762 -0.2407
15432W        W16296  19.696  24.929   3.650 -0.0151 -0.0615 -0.0286
15433W        W16297  24.697  20.273  20.997 -0.2023 -0.1531 -0.1239
15434W        W16298   3.627  20.604  27.704 -0.1440  0.0512 -0.3149
15435W        W16299   3.033  22.625  14.735  0.1945  0.0636  0.2345
15436W        W16300  22.355   7.464  15.113  0.1904  0.0185 -0.0527
15437W        W16301  25.265   4.483  14.408 -0.2030  0.4226  0.0388
15438W        W16302   0.209  19.992  11.476 -0.4154  0.3206  0.2963
15439W        W16303  26.883  24.032  27.874  0.2908 -0.0449  0.1013
15440W        W16304  28.420   4.788  18.709  0.1451  0.0385 -0.1724
15441W        W16305  23.057  20.867  22.375 -0.0515 -0.2437 -0.2713
15442W        W16306   3.643  19.388  20.156  0.1314  0.1091  0.0387
15443W        W16307   6.836  13.035  15.735  0.4051 -0.0208  0.0388
15444W        W16308  20.196  20.241   4.024  0.3355 -0.2440  0.0922
15445W        W16309  26.910  23.176   4.744  0.2173  0.1737  0.4006
15446W        W16310   6.708  17.472  22.580  0.1100 -0.0535 -0.2208
15447W        W16311   2.150   6.117  14.023 -0.2634 -0.0411 -0.0383
15448W        W16312  14.801  21.215  16.469  0.0162 -0.0027 -0.0658
15449W        W16313  10.700  23.523  17.883 -0.1861 -0.0875  0.0417
15450W        W16314   6.129  10.448  19.368  0.1127 -0.0420  0.0455
15451W        W16315   0.786   7.476  28.545  0.0969 -0.0184  0.1769
15452W        W16316  28.462  10.654   4.961 -0.1117 -0.0495  0.1222
15453W        W16317   1.989  20.120   9.683  0.3188 -0.3094 -0.1177
15454W        W16318   5.802   2.924  17.217  0.1105  0.2351  0.2647
15455W        W16319   1.598  10.025  11.441  0.0377  0.3968  0.1052
15456W        W16320  28.427   9.700   3.122 -0.2195  0.0324  0.2073
15457W        W16321  12.291  23.325  23.538  0.2276 -0.1195  0.0911
15458W        W16322   5.828  10.009  14.887  0.0100 -0.1387  0.2167
15459W        W16323  15.542  18.720  15.384 -0.0751  0.1777 -0.0373
15460W        W16324   2.360  13.100  17.398  0.0194  0.0805 -0.1244
15461W        W16325  25.314  13.021  27.687  0.1512 -0.1914  0.2056
15462W        W16326   8.323  12.330  22.305 -0.0014  0.1398 -0.2739
15463W        W16327  28.867  23.509  26.394  0.2206 -0.2769  0.0495
15464W        W16328  27.163   2.360   5.916  0.1453  0.1085 -0.1122
15465W        W16329  26.428   7.298  12.311  0.0443  0.3856 -0.0170
15466W        W16330  11.107  14.009  26.958  0.0524 -0.0134 -0.1661
15467W        W16331  10.886  22.829  28.479  0.0463 -0.0048  0.2347
15468W        W16332  20.030   5.350   9.708  0.1009  0.0057 -0.0562
15469W        W16333  19.605   8.269  17.993  0.0281 -0.2981 -0.2265
15470W        W16334  17.189  20.924  21.892  0.0753 -0.2896 -0.5639
15471W        W16335   7.435  26.565  15.409 -0.1600 -0.2492  0.0337
15472W        W16336   9.840  15.632  10.809 -0.3072  0.2346 -0.1945
15473W        W16337   2.535  16.915  15.898  0.1550 -0.1598 -0.1371
15474W        W16338  25.888   3.931  11.246 -0.3239 -0.0245 -0.1497
15475W        W16339  23.309   7.287  18.031  0.1175  0.0340  0.2035
15476W        W16340  21.672  28.077   8.845 -0.1661 -0.1039  0.1669
15477W        W16341  26.184   1.116  14.843 -0.2407  0.2004  0.3050
15478W        W16342  18.184  14.031  21.591 -0.0310  0.4460 -0.1145
15479W        W16343  12.503  25.499  26.245 -0.0957  0.1371 -0.2403
15480W        W16344  25.696  25.112   2.596 -0.0837 -0.2431 -0.0472
15481W        W16345   9.605  14.625  28.093 -0.0922  0.2579 -0.0243
15482W        W16346  17.850   0.495  29.043  0.1113 -0.1541 -0.3859
15483W        W16347   5.456  14.940  21.345 -0.0964  0.0381 -0.0023
15484W        W16348  22.786  27.870  16.318  0.2429  0.1641  0.0709
15485W        W16349  18.462  12.323  21.317  0.1500  0.0331 -0.2461
15486W        W16350  21.195   3.958  21.562  0.1694  0.1838  0.1524
15487W        W16351  18.506   0.440  24.020 -0.1521 -0.0068 -0.3234
15488W        W16352  19.066  16.183  20.162 -0.1171  0.2040 -0.1068
15489W        W16353  27.867   0.165  20.593  0.0296 -0.2316 -0.2149
15490W        W16354   5.775   1.792  13.605 -0.2176 -0.0193  0.3470
15491W        W16355  14.930   2.968  15.797  0.0528 -0.0923 -0.1623
15492W        W16356  21.297  15.935  25.228 -0.0396 -0.3009 -0.1520
15493W        W16357  11.440  12.122  20.771  0.0435  0.0690  0.0996
15494W        W16358  21.921  14.685   6.136 -0.1881  0.2099  0.0252
15495W        W16359   6.717  20.928  17.788  0.0161  0.2118  0.1162
15496W        W16360  11.497  21.049  27.972  0.0557 -0.0423 -0.0995
15497W        W16361   6.131  19.382   1.502 -0.5784  0.1090 -0.0084
15498W        W16362   5.269  26.295   7.754  0.0292  0.2968  0.3051
15499W        W16363  29.043   9.849   4.052  0.2653 -0.0182 -0.2138
15500W        W16364  12.979  25.738  22.581  0.1805 -0.0292  0.1932
15501W        W16365  13.690   3.930  24.821 -0.2606 -0.1349 -0.1195
15502W        W16366  15.544   9.225  14.935 -0.1733  0.0693  0.0581
15503W        W16367  19.911  15.164  14.588 -0.1960  0.0500  0.0673
15504W        W16368   9.421   9.526   9.187 -0.0029 -0.0265 -0.4227
15505W        W16369  13.650   2.922  23.380 -0.4825  0.2182  0.0388
15506W        W16370  22.896  21.238  18.736 -0.0735  0.4210 -0.0185
15507W        W16371  17.355  19.566   6.321 -0.4095 -0.0925  0.0399
15508W        W16372  13.716  20.191   5.234  0.1426  0.0926  0.0767
15509W        W16373  22.920   4.604   1.895  0.0330  0.0434  0.2072
15510W        W16374  10.484  24.146   7.639  0.2460 -0.3156 -0.2102
15511W        W16375  26.084  10.976  26.388 -0.1233 -0.0879 -0.2191
15512W        W16376  10.463  22.078   5.733 -0.0625  0.0531 -0.3335
15513W        W16377   6.849   3.508   0.752  0.0683  0.0474  0.0458
15514W        W16378  21.608  27.072   1.527  0.0445 -0.1133  0.0957
15515W        W16379   7.178  16.882  16.492 -0.1648  0.1404 -0.1021
15516W        W16380  13.891  13.243   7.376  0.2260  0.0994 -0.0413
15517W        W16381  21.274  18.943   6.853  0.2238 -0.1437 -0.0205
15518W        W16382   9.537  26.326   5.451  0.2556 -0.1827  0.0911
15519W        W16383  26.200  13.141   9.995 -0.2205 -0.1560  0.0673
15520W        W16384  16.377  19.358  10.699  0.1679  0.5003  0.5031
15521W        W16385   5.008  21.312  16.045 -0.3273  0.3268 -0.2889
15522W        W16386  15.449  14.007  11.646 -0.2388  0.0978  0.3573
15523W        W16387   6.770  16.242  13.749  0.2589  0.2152  0.2912
15524W        W16388  27.033  24.727  29.081 -0.0602 -0.0510  0.1462
15525W        W16389  15.256  15.900   8.705  0.0716 -0.0957  0.1644
15526W        W16390   1.752  28.185  19.242  0.2379  0.1417 -0.1998
15527W        W16391  14.002  18.292  17.534  0.1920  0.1636 -0.1516
15528W        W16392   3.853  24.728   1.004  0.0175 -0.2278  0.0202
15529W        W16393  15.118  21.083   8.601  0.1037  0.2072  0.3281
15530W        W16394   9.049  15.958   4.638  0.3159  0.2505 -0.0154
15531W        W16395   6.879  18.562   4.539  0.1389 -0.3983 -0.0454
15532W        W16396  26.984  10.402  17.711  0.0967  0.2945 -0.0684
15533W        W16397  22.736  28.231  24.052 -0.0767  0.1268 -0.2022
15534W        W16398   1.847  10.997  14.247 -0.1134 -0.1222  0.1815
15535W        W16399  10.458  11.654  10.712 -0.0375  0.1709  0.0656
15536W        W16400  10.055  20.782  12.782  0.4039 -0.0361 -0.2371
15537W        W16401  21.776   3.369   5.754  0.2036 -0.0607  0.2065
15538W        W16402  24.032  13.336  27.423  0.3307 -0.2017  0.2596
15539W        W16403  29.112  19.573   6.714  0.0431  0.2091  0.0597
15540W        W16404  26.375   4.458  27.378 -0.1207 -0.2034 -0.1069
15541W        W16405  25.252  18.145  21.650  0.0210 -0.0694  0.2547
15542W        W16406  28.947  28.119  22.131  0.0700 -0.1423  0.2977
15543W        W16407   6.478  24.042   6.674 -0.0590  0.3120 -0.3159
15544W        W16408  28.058  20.640  20.353 -0.0466  0.1346 -0.0522
15545W        W16409   6.249  15.364  17.132  0.0507  0.0870  0.2861
15546W        W16410   1.015  24.154  23.995 -0.2209  0.0560  0.0105
15547W        W16411  14.666  27.467   2.047  0.0139 -0.1015 -0.0778
15548W        W16412  22.456  19.369  17.281  0.1425 -0.0658 -0.0179
15549W        W16413  11.263   5.416  23.964  0.0038 -0.0889  0.1860
15550W        W16414  25.191  16.644   5.662  0.0426  0.5669  0.0027
15551W        W16415  18.271  13.857  22.095 -0.3093  0.1181 -0.0299
15552W        W16416   7.696  18.034  27.451 -0.3598  0.0990 -0.0222
15553W        W16417  24.207  16.484  23.607 -0.1485  0.0511 -0.2608
15554W        W16418  25.562  10.123  17.407 -0.0903 -0.1448  0.1362
15555W        W16419  14.508  21.091   3.091  0.0813  0.1929  0.4396
15556W        W16420   7.726  16.008  27.541  0.2332  0.1142 -0.2058
15557W        W16421  16.010  17.097  20.183  0.1209  0.0662  0.0810
15558W        W16422  12.284  18.618  17.050  0.1532 -0.1905 -0.1051
15559W        W16423  27.889  17.225  17.472 -0.1734 -0.1737 -0.0252
15560W        W16424  27.883  21.592   5.565 -0.0688 -0.2522  0.2039
15561W        W16425  28.675   5.124  11.458  0.0013 -0.0023 -0.1671
15562W        W16426   1.375  23.429   9.597  0.1642 -0.4421  0.1199
15563W        W16427  28.658  27.766  29.139 -0.0891  0.1823 -0.3161
15564W        W16428  22.934   2.635   7.574  0.3732 -0.1592 -0.0075
15565W        W16429  18.976   3.007  24.198  0.0348 -0.2764  0.0721
15566W        W16430   4.556  21.990   2.920 -0.0823 -0.0617 -0.1511
15567W        W16431  13.194  19.669  12.784  0.2041  0.1566  0.2760
15568W        W16432  17.577  10.738   2.060 -0.2606 -0.2755  0.1677
15569W        W16433  21.662   4.092  21.581 -0.1736  0.1694  0.1187
15570W        W16434  23.145  16.639  15.265  0.1983  0.3816 -0.2845
15571W        W16435  24.352  16.930   4.421  0.2180  0.1711 -0.0019
15572W        W16436   6.937  23.421  22.870 -0.1603  0.1500 -0.0685
15573W        W16437   0.806  22.488  23.400 -0.1532 -0.3702 -0.0083
15574W        W16438  24.574  23.802   0.435 -0.3561  0.1415  0.1023
15575W        W16439   7.965  27.363  26.665  0.0721  0.0247 -0.1247
15576W        W16440   8.320  23.400  10.642  0.0537  0.0570  0.0346
15577W        W16441  16.404  17.984  19.072 -0.1903  0.1048 -0.0264
15578W        W16442  20.339  10.439  25.361  0.0659 -0.1007  0.0324
15579W        W16443   9.130  20.907   8.689  0.4582  0.0551 -0.2014
15580W        W16444   4.176   3.575  21.103  0.3018 -0.1178  0.1348
15581W        W16445  26.433  26.215   3.835 -0.1603  0.0611  0.2618
15582W        W16446  11.805  17.298   5.414  0.1260 -0.0905  0.1450
15583W        W16447   8.903  19.478  24.137  0.4094  0.0421  0.1588
15584W        W16448   1.016  18.387  22.228  0.1260  0.3697 -0.2221
15585W        W16449  27.617  15.586  10.967 -0.3692  0.2450  0.5133
15586W        W16450  22.558   6.640   0.544 -0.1036  0.1513  0.3001
15587W        W16451  16.167  26.542   7.365 -0.0607  0.0727 -0.1282
15588W        W16452  22.669  23.578  13.206 -0.1504  0.0272  0.0004
15589W        W16453   0.887   1.107   8.195  0.2898 -0.2642 -0.0997
15590W        W16454   2.112  13.770  15.635 -0.1270 -0.1121 -0.1097
15591W        W16455  24.032   1.214  10.712 -0.0031 -0.1256 -0.1749
15592W        W16456   4.077  20.407  15.043 -0.2533  0.0811 -0.0278
15593W        W16457  27.606  22.530   5.850  0.1504  0.2760  0.1981
15594W        W16458  25.285  22.775   2.463  0.1907 -0.3517  0.0310
15595W        W16459  10.790  24.056  13.331  0.0973  0.4656 -0.1085
15596W        W16460  24.088  21.810  19.642 -0.0262 -0.0060 -0.2036
15597W        W16461  11.976  15.749  25.231  0.0068  0.4078  0.0746
15598W        W16462   3.418  15.543  27.122 -0.1725 -0.1795  0.1631
15599W        W16463   0.871  18.666  16.242  0.0066 -0.0445  0.0544
15600W        W16464  23.292  25.825   2.707  0.1804 -0.1539  0.0851
15601W        W16465   3.962   0.150  12.135 -0.1183  0.2885 -0.4773
15602W        W16466  25.237   7.024   6.334  0.1519  0.2135 -0.1585
15603W        W16467   7.489   7.421  11.806 -0.1340 -0.1075  0.0432
15604W        W16468   5.623  11.695  24.180 -0.2633 -0.0363 -0.1662
15605W        W16469   0.323   2.503   8.097 -0.0987 -0.2972 -0.2852
15606W        W16470  15.868  27.079  11.448 -0.3540 -0.0356 -0.1878
15607W        W16471  14.819   7.413  10.939  0.0345  0.1119  0.0734
15608W        W16472   6.028  15.380   2.026 -0.0114  0.0724  0.1476
15609W        W16473  15.510  19.759   3.094 -0.1249 -0.0547 -0.0501
15610W        W16474  20.419   5.793  16.418  0.0572 -0.0758 -0.0218
15611W        W16475  22.332   0.955  14.622  0.3146  0.2070 -0.0108
15612W        W16476  23.566  18.626  22.613 -0.1050 -0.2214  0.5174
15613W        W16477   3.972  12.489   8.739 -0.5273 -0.1461 -0.2680
15614W        W16478   0.861   3.533   7.464 -0.0981  0.1437  0.3088
15615W        W16479  28.182  14.537  14.890  0.2240  0.1231  0.1968
15616W        W16480   2.430  20.413  24.189  0.0740 -0.0122  0.3004
15617W        W16481   6.782  26.093   5.665 -0.1705 -0.2125  0.3295
15618W        W16482  19.473  18.576  24.101  0.0045 -0.0826  0.3195
15619W        W16483   9.115   9.322   8.506 -0.1051 -0.1250  0.0097
15620W        W16484  26.846  25.499  23.743  0.0640  0.2184 -0.1920
15621W        W16485   1.580   8.128  22.589  0.2388  0.2697 -0.1258
15622W        W16486  14.912  17.944   0.390  0.1929 -0.0647 -0.0065
15623W        W16487  23.045  24.023  22.553 -0.2604  0.3174  0.0578
15624W        W16488   3.078   7.730  28.615  0.0918  0.1768  0.1816
15625W        W16489  11.333  26.363  25.782  0.1960 -0.0610  0.3314
15626W        W16490   1.523  20.215  28.051 -0.2693  0.1631  0.0687
15627W        W16491   5.594   7.737   0.533  0.0885 -0.2387 -0.0580
15628W        W16492  28.245  10.754  21.265  0.1508  0.0404 -0.2068
15629W        W16493  27.286  19.821  22.903  0.1795  0.1607  0.1457
15630W        W16494  17.391   3.835  19.498 -0.3340  0.4387  0.0324
15631W        W16495   2.997  22.985  17.833  0.3203  0.2292  0.0930
15632W        W16496   3.196  15.325  23.986 -0.0166  0.2755  0.1265
15633W        W16497   5.399  20.944   2.573  0.1603 -0.1096 -0.0211
15634W        W16498   3.633  22.191  18.698  0.1590  0.0242 -0.1181
15635W        W16499  10.965  27.403  13.902  0.0651 -0.3875  0.2345
15636W        W16500  25.129  11.771  28.946 -0.2550  0.0823  0.2455
15637W        W16501   4.020  28.156  25.815  0.0342  0.1674  0.1489
15638W        W16502  22.358  17.406  14.589 -0.2856 -0.0393 -0.0142
15639W        W16503  16.734  13.887  24.254  0.1198 -0.0369  0.1183
15640W        W16504  19.413  13.054  25.688  0.0253 -0.4205 -0.0384
15641W        W16505   6.937  13.719  19.758  0.0035 -0.0118  0.0497
15642W        W16506   0.729  16.170  28.950 -0.3149  0.2696 -0.1759
15643W        W16507   9.321  27.715  18.642  0.0282 -0.0100  0.1150
15644W        W16508   3.900  18.272  24.702  0.2538 -0.1674 -0.0274
15645W        W16509   2.220  26.150   2.590  0.2609 -0.0578  0.0441
15646W        W16510  20.337   6.154   5.652  0.2192  0.2118 -0.2923
15647W        W16511  20.803  14.308  14.582  0.1344 -0.2322 -0.1814
15648W        W16512  10.184   4.483  23.556 -0.0336 -0.0334  0.1166
15649W        W16513  28.902  28.173  27.609  0.1149  0.0724  0.0860
15650W        W16514  24.720  18.697   0.730 -0.3928  0.3587 -0.2805
15651W        W16515   9.873  17.406  28.805 -0.1899  0.1680  0.0110
15652W        W16516  21.306   4.448   7.729  0.0099  0.5750  0.2032
15653W        W16517  20.369   3.543  25.158  0.1240 -0.0473 -0.0343
15654W        W16518  23.442   5.357  18.134 -0.2452  0.4167  0.1319
15655W        W16519  17.555  18.620  21.642  0.2363 -0.0225  0.1495
15656W        W16520   8.363  15.674  15.814 -0.0759  0.2406  0.2148
15657W        W16521  28.293  11.131  27.449 -0.4198  0.3559  0.0467
15658W        W16522  22.948  23.693   0.021 -0.1723 -0.0921  0.0655
15659W        W16523   1.991  15.302   8.237 -0.0450 -0.0237 -0.1772
15660W        W16524  18.284   1.875   1.601  0.4529 -0.1215  0.1472
15661W        W16525  21.124  20.837  25.943  0.0729 -0.1912 -0.2015
15662W        W16526  26.630  14.127  19.755  0.2824  0.1178  0.1972
15663W        W16527  27.525   3.390  16.041 -0.1173 -0.0002  0.0382
15664W        W16528   0.468   5.469  13.230  0.0144 -0.0639 -0.1965
15665W        W16529  21.432  14.965  27.280  0.0535  0.2562  0.1849
15666W        W16530  12.489  17.863  20.213  0.1652  0.1663  0.2516
15667W        W16531  27.461  23.386  25.216 -0.0176  0.2449 -0.0037
15668W        W16532  14.354  23.398  15.623 -0.2352 -0.0036  0.1574
15669W        W16533   5.502  15.513  25.651 -0.0244 -0.1301  0.2293
15670W        W16534   3.087  26.284  11.818  0.1112 -0.0348  0.5982
15671W        W16535  27.898  11.541  21.422 -0.4704 -0.0711  0.3616
15672W        W16536  25.686  28.407  23.075 -0.1746 -0.0180 -0.1309
15673W        W16537   6.715  10.052  26.912 -0.0958  0.0570 -0.0483
15674W        W16538  11.727  13.613  18.333 -0.0235 -0.1439 -0.0452
15675W        W16539   6.475  10.874  15.419 -0.0778 -0.0664 -0.0729
15676W        W16540  25.732  13.383  25.943 -0.0382  0.3587  0.0442
15677W        W16541   9.187  28.541  13.865 -0.1590 -0.2251 -0.0446
15678W        W16542  22.725  18.262  19.975 -0.0679 -0.1495 -0.1296
15679W        W16543   7.501  20.170   0.072 -0.2310 -0.0964 -0.2550
15680W        W16544  23.082  21.305  20.571  0.1489  0.0636 -0.1884
15681W        W16545  22.598  16.603   8.188  0.1402 -0.0755 -0.0198
15682W        W16546   7.938  13.752   4.898 -0.1889 -0.1574 -0.0712
15683W        W16547  28.005  12.892  22.551  0.1134 -0.0888 -0.0746
15684W        W16548   7.616  20.780  10.825 -0.1479  0.1342 -0.0055
15685W        W16549  25.809   7.036  12.149  0.0458  0.2102  0.1187
15686W        W16550  26.780  28.009   0.061 -0.4214  0.1169  0.2013
15687W        W16551   1.147  18.024   1.591  0.1648 -0.1965  0.3720
15688W        W16552  21.418  25.462  16.485 -0.0636  0.0169 -0.0522
15689W        W16553   5.105  17.786  28.566  0.3156 -0.1626 -0.1166
15690W        W16554  11.499  14.361  21.503 -0.0623  0.0338  0.3787
15691W        W16555   5.007  19.186  23.130 -0.0632  0.1549  0.2706
15692W        W16556  10.669  15.991  11.236 -0.1179 -0.1561  0.0697
15693W        W16557  11.719  13.866  15.802 -0.1379  0.0265 -0.1696
15694W        W16558   4.457   8.267  21.668  0.0170  0.0531 -0.0090
15695W        W16559  10.249   3.075  14.614  0.1668 -0.1131  0.0211
15696W        W16560  16.353  13.197  22.402  0.2031  0.2925 -0.3551
15697W        W16561  19.162  16.063  18.744 -0.1226 -0.0286 -0.0911
15698W        W16562   5.782  24.067  28.012 -0.1336  0.1595  0.2646
15699W        W16563   0.620  12.119   6.337 -0.5462  0.1312  0.1952
15700W        W16564  13.447  11.154  20.122  0.0445  0.0672  0.0968
15701W        W16565  21.323  17.056  14.010 -0.0796 -0.1572 -0.3027
15702W        W16566  15.904  28.497   4.915 -0.1686  0.1581  0.1497
15703W        W16567   9.021  10.950  25.355  0.1356  0.2094  0.1582
15704W        W16568   1.331  11.023  26.618  0.1617  0.2338 -0.0561
15705W        W16569  18.307  26.801  21.345 -0.1322 -0.0118 -0.2511
15706W        W16570  12.931   9.133   5.995 -0.0787  0.0211 -0.0429
15707W        W16571  17.555  25.288   1.513 -0.1612 -0.0057  0.0304
15708W        W16572  27.712  13.343   6.724 -0.0494  0.0045  0.0107
15709W        W16573  28.602  11.932   2.101  0.0626  0.1283  0.0808
15710W        W16574  24.398  26.107  23.285  0.2763  0.2242 -0.1117
15711W        W16575   1.133   6.215  19.754 -0.0272 -0.0198 -0.0898
15712W        W16576  17.541  20.317   3.639 -0.1280 -0.1442 -0.1342
15713W        W16577  16.654  26.646  25.910 -0.2590 -0.1348 -0.2667
15714W        W16578   5.601  28.935  18.423  0.3868  0.0458 -0.1603
15715W        W16579   8.921   1.926  26.154  0.0692 -0.1545  0.1215
15716W        W16580  19.883   9.942  28.426 -0.0343 -0.0194  0.0206
15717W        W16581  28.872  22.422  16.600  0.0384  0.0777  0.0277
15718W        W16582  14.980  28.018   8.002  0.4083  0.0345 -0.1718
15719W        W16583  22.501   7.249   7.860  0.0094 -0.0042  0.0648
15720W        W16584  24.584  21.314   3.329  0.0342  0.1786  0.2064
15721W        W16585   0.722  25.759  23.670 -0.1758  0.1022  0.0746
15722W        W16586  12.975   9.588  24.269 -0.2892 -0.1214 -0.1290
15723W        W16587   9.617  25.373  26.975 -0.0820  0.2525 -0.2979
15724W        W16588   1.841  13.145  17.202  0.0161 -0.2355 -0.0736
15725W        W16589   9.725   7.299  27.860 -0.1010  0.1543 -0.0090
15726W        W16590  23.974  11.712   0.264 -0.1639 -0.3140 -0.2492
15727W        W16591  14.808  13.542   1.765 -0.0317  0.1221 -0.2098
15728W        W16592   7.079   9.433   9.680 -0.2651  0.2172 -0.0559
15729W        W16593  29.081  20.118  13.911 -0.1988 -0.1870  0.3963
15730W        W16594   3.603   8.403  27.016  0.1446  0.0278 -0.0612
15731W        W16595  24.185  19.867  27.647  0.0816  0.0032  0.1124
15732W        W16596   8.250   6.570   2.411  0.1040  0.3132 -0.1813
15733W        W16597  21.018   0.418  22.350  0.1378  0.3063  0.1137
15734W        W16598  17.332   8.344  19.137  0.0440 -0.3105  0.2382
15735W        W16599  17.210  20.858  24.081  0.1665 -0.1202 -0.0197
15736W        W16600  25.273  29.050  18.982  0.1631 -0.0534  0.0277
15737W        W16601  23.574  14.966   4.064 -0.1051  0.1417  0.0138
15738W        W16602   4.704  13.563  28.093 -0.0857 -0.0106  0.1316
15739W        W16603  25.618  24.052   4.191  0.2061  0.1964 -0.2295
15740W        W16604  10.515  19.590  28.122 -0.3242  0.0362  0.1553
15741W        W16605  13.030  25.320  21.376 -0.2927 -0.2748  0.0201
15742W        W16606  28.103  19.856  17.633  0.2141 -0.1616 -0.1382
15743W        W16607  20.237  16.025   1.248  0.1743 -0.1985  0.0440
15744W        W16608  11.368  19.114  23.364 -0.1377 -0.1475  0.2371
15745W        W16609   4.520  15.688   0.262 -0.3258 -0.2042 -0.0104
15746W        W16610  14.815  18.596  12.757  0.0294 -0.1845  0.2681
15747W        W16611   8.108   9.539  21.799  0.1436 -0.0725 -0.2121
15748W        W16612  16.221  17.969  29.098 -0.1982 -0.0248 -0.1134
15749W        W16613   7.332  16.578  25.250 -0.0433  0.6662 -0.0347
15750W        W16614   3.015  18.930  10.358 -0.1371 -0.2175 -0.3332
15751W        W16615  23.985   5.951  25.643 -0.3449 -0.1918 -0.1425
15752W        W16616  27.046   7.860  25.138  0.0768 -0.0952 -0.1827
15753W        W16617   8.068  22.974   3.640  0.1458  0.2566 -0.2720
15754W        W16618  28.237  27.331  17.725  0.2692 -0.0197  0.1090
15755W        W16619  15.734   7.411  21.770  0.0259  0.0020 -0.1222
15756W        W16620   8.593  14.134   1.104 -0.0371 -0.0891  0.0772
15757W        W16621  14.057  21.023  22.225  0.0220 -0.0794 -0.0826
15758W        W16622   4.488   6.883  24.707  0.0032  0.0411  0.1112
15759W        W16623   5.563  19.849  25.086 -0.0551  0.0018  0.3700
15760W        W16624  16.289  25.172  19.182  0.3229  0.2189  0.2033
15761W        W16625  19.105  24.102  20.184  0.0567  0.1104  0.2256
15762W        W16626   6.986  14.319  16.304 -0.2933 -0.0252  0.0699
15763W        W16627  24.148  27.174   9.192 -0.2157  0.0593 -0.3765
15764W        W16628  17.786   6.631  29.120  0.2097  0.1195 -0.3468
15765W        W16629  16.220  16.692   5.835  0.0769 -0.3863  0.2662
15766W        W16630  15.819   9.791   9.003 -0.3402 -0.2292 -0.3463
15767W        W16631  20.972  17.774  18.756 -0.3640 -0.2078 -0.1287
15768W        W16632   1.395  16.322  12.499  0.4253 -0.1082 -0.0090
15769W        W16633  27.113  20.430  16.865  0.0038 -0.1164 -0.2028
15770W        W16634   2.466   4.775  23.477  0.1852 -0.2036 -0.0249
15771W        W16635   0.457  27.707  28.600 -0.1407 -0.0879  0.0185
15772W        W16636   3.859  23.074  19.328  0.3197 -0.1690  0.2897
15773W        W16637   4.972  28.787  26.567 -0.0062  0.2395  0.0028
15774W        W16638   8.245  28.934   7.491  0.0419 -0.2866  0.0269
15775W        W16639   0.273   9.020  21.698 -0.3310 -0.3583  0.1416
15776W        W16640  10.106  25.739  10.661  0.0765  0.2385  0.0624
15777W        W16641  12.955  25.327   9.309 -0.4721 -0.2904 -0.3086
15778W        W16642   1.087  22.878  21.901  0.4451  0.0940 -0.0556
15779W        W16643   4.036  16.852  12.166  0.1448 -0.0105  0.1579
15780W        W16644  24.792  28.038  23.356 -0.1505  0.1575 -0.0788
15781W        W16645  28.341  28.373  24.847 -0.2393 -0.0721 -0.1860
15782W        W16646  22.825  28.526  11.378 -0.0275 -0.3015 -0.1718
15783W        W16647  26.154   5.265  17.306  0.0115  0.0474  0.0151
15784W        W16648   3.725   8.588  24.477 -0.1690 -0.1075 -0.1379
15785W        W16649   6.848  24.786  21.739 -0.0259 -0.2122  0.0133
15786W        W16650  21.242  15.357   2.602  0.0705  0.0135 -0.2006
15787W        W16651  25.804  20.489   6.953  0.2996 -0.0313 -0.3781
15788W        W16652  19.005  28.327  21.895 -0.2597 -0.2365  0.0107
15789W        W16653  23.173   9.236  13.097 -0.2131  0.1223 -0.0110
15790W        W16654   4.674   2.249  23.342 -0.0835 -0.0817  0.1728
15791W        W16655  15.927  15.347   8.207  0.0929  0.0934  0.0079
15792W        W16656   3.846  14.138  12.098  0.1684 -0.1864  0.0882
15793W        W16657  19.021  18.266  26.316 -0.0381 -0.0241  0.0053
15794W        W16658  24.043  22.387  18.966  0.1829  0.1017  0.0425
15795W        W16659  11.974   2.265   4.304 -0.3592 -0.1295  0.2076
15796W        W16660   8.164  21.803  18.723  0.0637  0.1416 -0.1017
15797W        W16661  11.637  24.769  21.544 -0.1134  0.2328 -0.0582
15798W        W16662   6.543   9.044   9.968 -0.1618 -0.3054  0.4983
15799W        W16663  26.627   2.904  22.854 -0.3136 -0.0476  0.0822
15800W        W16664  11.901  23.767  23.651  0.1838  0.1243  0.2340
15801W        W16665  27.877   1.856  14.307  0.1481  0.0028 -0.2450
15802W        W16666  20.729  25.119   7.094 -0.1078  0.1430 -0.1189
15803W        W16667   0.308  18.770   5.641 -0.3008 -0.0060  0.0376
15804W        W16668   0.680  18.384   2.730 -0.0859 -0.1088 -0.0254
15805W        W16669  14.533   9.550  27.530  0.0087  0.0116  0.0659
15806W        W16670  28.664  27.142  24.075  0.3591  0.0350  0.1689
15807W        W16671   4.118  10.801  20.397 -0.1880  0.3359  0.1521
15808W        W16672  22.185   1.232  11.043  0.1619  0.0717 -0.1749
15809W        W16673   6.846   8.717  25.195  0.1271  0.2046 -0.0855
15810W        W16674  18.454   0.477   5.271  0.2199 -0.0383 -0.0285
15811W        W16675   9.611  18.429   7.190  0.0820 -0.1189  0.2448
15812W        W16676   5.964  27.646  28.191 -0.0102  0.6771 -0.0931
15813W        W16677  17.052  22.792  18.202  0.1340  0.2900 -0.0251
15814W        W16678   5.513  13.003  24.924 -0.0988 -0.0906  0.0412
15815W        W16679  12.191  14.641   6.482 -0.1065  0.1700 -0.1067
15816W        W16680  12.538  21.223  23.360 -0.0635  0.0827  0.3814
15817W        W16681   3.582  15.158  15.517 -0.0927 -0.0162 -0.1271
15818W        W16682  14.942   8.892  23.809 -0.3184 -0.0405  0.2403
15819W        W16683  22.406  20.719  25.071 -0.0252 -0.0385  0.1696
15820W        W16684  16.132   9.427  11.662 -0.2162 -0.3364  0.1694
15821W        W16685   6.632   5.597  20.180 -0.0697  0.0928 -0.0725
15822W        W16686  26.891  20.394   3.701 -0.0725 -0.3315 -0.1586
15823W        W16687   4.307  16.433   4.484 -0.3308  0.0953  0.4465
15824W        W16688  12.919   0.447   0.904 -0.1888 -0.0657 -0.3374
15825W        W16689   3.577  23.457  28.325 -0.1260 -0.0113  0.4663
15826W        W16690  23.748  24.387  26.096  0.1028 -0.0254 -0.0537
15827W        W16691  25.201  10.990  18.359 -0.1219  0.2067 -0.2926
15828W        W16692   8.002   6.750   1.649  0.0846 -0.1350  0.3304
15829W        W16693  23.253  18.508  19.815 -0.4783 -0.1021  0.0592
15830W        W16694  20.048  24.241  24.874  0.0723  0.1803 -0.2850
15831W        W16695  21.866   7.372  24.970  0.1615 -0.0952  0.2936
15832W        W16696  11.921  15.000  11.147  0.0248 -0.0926  0.2762
15833W        W16697  10.506  25.691   8.110 -0.1458  0.0931 -0.1953
15834W        W16698   7.613  12.992  21.388  0.3013  0.1044  0.0157
15835W        W16699   0.999  23.537   4.244 -0.0846  0.0178  0.1848
15836W        W16700  26.678  18.725  23.499  0.1653  0.0345 -0.1977
15837W        W16701  15.792  26.136   3.409 -0.0596 -0.2371 -0.2334
15838W        W16702   3.920  14.467   0.790 -0.2921 -0.2332  0.2519
15839W        W16703   0.978   8.669   4.251 -0.0310  0.0157 -0.2171
15840W        W16704   4.853  20.397  24.934 -0.0487  0.1166  0.4639
15841W        W16705  18.277  18.161  21.295 -0.2884  0.1242 -0.0489
15842W        W16706   0.585  11.807   1.932  0.2809 -0.0022 -0.1984
15843W        W16707  25.649  12.590  17.285 -0.2101 -0.0288 -0.1616
15844W        W16708  13.591  25.623  15.149  0.2182  0.1338 -0.1054
15845W        W16709  22.104  15.272  23.718 -0.0706  0.0540 -0.1377
15846W        W16710  20.524  20.036  23.551 -0.2218 -0.0626  0.0578
15847W        W16711  27.336   8.085  11.071 -0.1781 -0.3550 -0.0583
15848W        W16712   6.952   4.708   2.088  0.1806 -0.0167 -0.2728
15849W        W16713   4.680  27.752   7.595  0.1251 -0.0793 -0.2786
15850W        W16714  13.829  16.421  15.010 -0.1500 -0.0707 -0.0341
15851W        W16715  21.477  25.638  23.165 -0.1422  0.1225  0.2244
15852W        W16716  26.256  11.873  26.348 -0.3320 -0.1707  0.2717
15853W        W16717  22.692  14.094  26.344 -0.0425  0.0563  0.0842
15854W        W16718  24.989  24.578   3.629 -0.1242  0.0425  0.4459
15855W        W16719  25.302  14.226  19.941  0.4175  0.1748 -0.0125
15856W        W16720  28.604  12.765  13.478  0.0567  0.0728  0.2289
15857W        W16721   4.028  18.239   2.982 -0.0539  0.3010  0.0417
15858W        W16722   2.983  13.061   5.308  0.0741 -0.3260 -0.0165
15859W        W16723   8.808  17.969  25.967  0.2447  0.0963  0.1511
15860W        W16724   9.060  14.459  25.731 -0.0102 -0.0694  0.0029
15861W        W16725  23.282  23.639   9.551  0.4072  0.0323 -0.1307
15862W        W16726  18.776  17.826   1.618 -0.1188  0.0133  0.0066
15863W        W16727  23.199  16.157  11.595 -0.0770 -0.2420 -0.0125
15864W        W16728  21.168  27.720  18.314 -0.1850  0.4076  0.0390
15865W        W16729  18.622  23.758   8.931  0.1581  0.2250 -0.3925
15866W        W16730  19.151  16.807   2.636 -0.2115  0.1464  0.0826
15867W        W16731  28.781   8.098  27.967  0.1054 -0.4158  0.0392
15868W        W16732  10.786  20.684  10.385  0.2019 -0.2130  0.0877
15869W        W16733   7.577   9.586   2.950  0.4247 -0.0806  0.1760
15870W        W16734  26.136  11.897   5.936  0.1084  0.3035 -0.0000
15871W        W16735   1.728   4.328  10.830  0.3168  0.0686  0.1496
15872W        W16736  17.362  17.619   6.734 -0.3499  0.1316  0.3279
15873W        W16737   2.840  24.969   1.399  0.1594 -0.0333 -0.3363
15874W        W16738   5.500   2.590   6.602  0.1595 -0.3878 -0.2202
15875W        W16739  20.539  12.516  18.560  0.1001 -0.0549 -0.0971
15876W        W16740  26.173   7.532  23.885 -0.3534  0.2624 -0.5378
15877W        W16741   3.615  26.977   9.445  0.0022 -0.0877 -0.0078
15878W        W16742  20.917   6.396   9.759  0.0694 -0.2425  0.0001
15879W        W16743   7.443   0.607  23.208  0.0149  0.0924  0.1105
15880W        W16744  25.048  18.255   4.889  0.1006  0.3366  0.0528
15881W        W16745  26.645  16.566  10.633 -0.1705  0.1037 -0.1072
15882W        W16746   1.708  27.347  17.512  0.1731 -0.1839  0.2060
15883W        W16747   3.166  20.758   9.253 -0.1001  0.1716 -0.2632
15884W        W16748  24.536  21.134  16.008  0.0543 -0.0318 -0.0759
15885W        W16749  10.639  20.334  23.212  0.0935 -0.2235 -0.0733
15886W        W16750  23.018  25.781   8.925 -0.3125  0.1072 -0.4310
15887W        W16751  14.940  14.490   8.803  0.3818  0.0501  0.0707
15888W        W16752  23.652  15.605   9.312 -0.0569  0.1262  0.0305
15889W        W16753  14.379  19.912  27.860 -0.0639  0.0713 -0.2249
15890W        W16754  25.191  16.103   5.343 -0.1347  0.0455 -0.1859
15891W        W16755  27.299  22.086   0.163  0.2262  0.1817 -0.0671
15892W        W16756   2.293   1.144  28.298  0.1560  0.0902 -0.1223
15893W        W16757  29.081   2.230   3.092  0.0461  0.0914  0.0236
15894W        W16758  11.705   9.160   4.687 -0.2106 -0.1467 -0.2063
15895W        W16759  18.970  16.668   9.157  0.3042  0.0801 -0.2056
15896W        W16760   8.373  10.171  11.276  0.0340 -0.5925 -0.1168
15897W        W16761  27.988   9.907   5.934  0.1895 -0.1201 -0.0511
15898W        W16762  13.173  14.483  20.572  0.3332  0.0377 -0.0661
15899W        W16763  26.340  16.568  26.396  0.2540  0.1229 -0.2801
15900W        W16764  26.531  22.377  21.707 -0.1162 -0.0033  0.1757
15901W        W16765  14.791   1.083  26.275  0.1657  0.0758  0.1879
15902W        W16766   8.707  13.807  14.085 -0.0772 -0.2009  0.1384
15903W        W16767   6.922  14.187  11.447 -0.0938 -0.1487 -0.0300
15904W        W16768  10.627   8.039  19.629 -0.0142 -0.1410 -0.2400
15905W        W16769  22.338  25.333  25.889  0.0380 -0.1946  0.5619
15906W        W16770   8.556  23.666   8.917 -0.0226 -0.2258 -0.0214
15907W        W16771  28.591  18.276  10.814  0.0197  0.1548  0.0009
15908W        W16772   1.103  22.374   2.642  0.1402  0.0702  0.3348
15909W        W16773   7.581   0.892  17.281  0.0892 -0.0336  0.0486
15910W        W16774   8.924  24.716   0.506 -0.3321 -0.1836  0.1344
15911W        W16775  28.298   6.671   8.935  0.0477  0.0286 -0.1570
15912W        W16776  15.429  25.406  25.700 -0.0597 -0.1601 -0.3105
15913W        W16777  20.998  28.340   6.468  0.1773 -0.0620 -0.1385
15914W        W16778  20.952  15.094  12.759 -0.1263  0.3939 -0.0549
15915W        W16779  28.111  17.446   1.483  0.1730  0.0120 -0.1134
15916W        W16780   8.586  17.879  15.545  0.0441  0.1434  0.4390
15917W        W16781  28.351  17.928  23.746 -0.3908  0.1096 -0.1444
15918W        W16782  21.039  23.380  20.333  0.1696 -0.1279 -0.0662
15919W        W16783   0.185   5.894  19.444  0.0101  0.0602 -0.2797
15920W        W16784  16.293  26.058  15.552  0.0045 -0.2266 -0.1112
15921W        W16785  14.787  12.743   0.019 -0.0796  0.1832  0.0216
15922W        W16786   1.044  22.512  25.829 -0.3024  0.0643 -0.3656
15923W        W16787  28.941  16.315  12.228 -0.2078 -0.0515 -0.1282
15924W        W16788  27.617  27.631  26.203 -0.1811  0.2568 -0.2180
15925W        W16789   8.461   0.799   2.570  0.0544  0.1411 -0.3962
15926W        W16790  25.177  25.867   1.075  0.1190 -0.1317 -0.0110
15927W        W16791  13.172  21.005  22.018 -0.0030 -0.1542 -0.0072
15928W        W16792  21.569  28.500  13.294 -0.0996  0.0942  0.1310
15929W        W16793  26.618   8.258   3.977  0.0422  0.1755  0.0344
15930W        W16794  22.139   3.601  16.386  0.2270  0.4122  0.2064
15931W        W16795  26.356  27.990   0.293  0.2844  0.0431  0.1135
15932W        W16796   2.790  18.436  22.351  0.3678  0.1690 -0.0637
15933W        W16797  11.297  20.960   6.793  0.2060 -0.3455 -0.0137
15934W        W16798  20.312   3.563  21.792  0.0417 -0.0141  0.2094
15935W        W16799   2.876   7.812  22.506  0.2983  0.0506  0.1642
15936W        W16800  23.016   1.083  14.932 -0.1003 -0.0024  0.0968
15937W        W16801   6.327  22.525  16.325 -0.0965 -0.1949 -0.0016
15938W        W16802   7.316  12.313   1.236 -0.0377 -0.1232  0.0546
15939W        W16803  26.478  21.671  16.484  0.2107  0.0663 -0.1491
15940W        W16804  15.534  13.651  22.044  0.2904  0.0534  0.0603
15941W        W16805  25.786  22.115   3.232 -0.2898 -0.1358  0.5416
15942W        W16806   3.093  24.749  22.598  0.2436 -0.0162 -0.0979
15943W        W16807  25.166  10.089  16.614 -0.1426 -0.0792 -0.0013
15944W        W16808   3.283  12.386   2.974  0.1109  0.2137 -0.2409
15945W        W16809   8.430  11.458  20.940  0.1112 -0.2798  0.2776
15946W        W16810  28.250  10.018   3.691 -0.0864  0.2941  0.0599
15947W        W16811  26.336  17.818  21.199 -0.1111  0.0449 -0.0219
15948W        W16812  25.677   6.766  25.751 -0.1068  0.1409 -0.1285
15949W        W16813  25.316  16.577   7.675  0.0465 -0.0226  0.4035
15950W        W16814  21.525   3.886  23.024  0.1458 -0.1970 -0.2275
15951W        W16815  17.024  16.590   5.542 -0.1866 -0.2781  0.2517
15952W        W16816   3.586   9.941  26.326  0.1512  0.0631  0.0674
15953W        W16817  10.089  20.944  17.262  0.2703  0.1120 -0.2434
15954W        W16818  22.775  24.981  15.219 -0.0646  0.1745 -0.2660
15955W        W16819   3.227  12.976  21.562 -0.1150  0.0597  0.0281
15956W        W16820  22.455   3.705   3.565  0.2245  0.1336 -0.2072
15957W        W16821  22.345  13.148  21.957 -0.1754 -0.2101 -0.2643
15958W        W16822   0.357  11.613  13.314 -0.0725  0.0587  0.2393
15959W        W16823   1.356   1.584  26.143 -0.1019 -0.2170 -0.1890
15960W        W16824  13.317   8.523  13.695  0.1956 -0.0297 -0.2071
15961W        W16825   6.013  23.446   4.605  0.2911 -0.1185  0.0348
15962W        W16826   6.645   4.773  15.272  0.0907  0.0964 -0.1314
15963W        W16827  28.625   2.814   7.706 -0.0605  0.2252 -0.1461
15964W        W16828  17.621  24.782   1.161  0.0231  0.0956 -0.0873
15965W        W16829   2.143  18.683  26.909  0.2490 -0.0924 -0.1640
15966W        W16830   9.944   2.979  13.979 -0.0771  0.0240  0.1933
15967W        W16831  17.118  28.774  12.005  0.0583  0.0325  0.0499
15968W        W16832  21.035  13.214  21.327 -0.2121  0.0843  0.0417
15969W        W16833  17.025   2.000  21.414  0.1279 -0.0019 -0.3023
15970W        W16834  19.639   4.917  20.995  0.1750  0.0610 -0.0258
15971W        W16835   2.196  11.126  23.829  0.0927  0.0479  0.0683
15972W        W16836  10.265  24.302   5.080 -0.0193  0.0847  0.2847
15973W        W16837  15.626  24.258  20.627 -0.1520 -0.1915 -0.0253
15974W        W16838   5.113  15.098  20.676  0.2237  0.0470 -0.1322
15975W        W16839  25.973  22.228  14.677 -0.1201 -0.0714 -0.0203
15976W        W16840  11.626  14.471   3.057  0.0199  0.1709 -0.2510
15977W        W16841   3.524  17.839   0.878 -0.2120  0.2293 -0.0623
15978W        W16842   3.388  16.688   3.312 -0.2623  0.0294 -0.0326
15979W        W16843  28.050  25.177  17.575  0.1383 -0.2722 -0.1784
15980W        W16844   7.900   0.126  24.685 -0.0247 -0.1119 -0.1457
15981W        W16845  17.981  25.431   8.045 -0.0907  0.0904  0.1561
15982W        W16846  23.374  18.085   7.215  0.4268  0.1114  0.1115
15983W        W16847  26.887  13.166  29.072  0.1518  0.0967  0.0658
15984W        W16848   8.318  13.256  19.533 -0.1669 -0.1476 -0.0463
15985W        W16849  20.415  20.545  23.849  0.2989  0.1491 -0.3096
15986W        W16850   1.262  15.881  12.610 -0.3341  0.2805 -0.0933
15987W        W16851  11.413   5.324  18.446 -0.1306  0.1500  0.0953
15988W        W16852   6.906  11.515  24.229  0.1306  0.0025  0.1439
15989W        W16853   8.268  25.247   8.701  0.1389 -0.1112  0.1900
15990W        W16854  22.312   3.464  26.981  0.2505 -0.2393  0.1815
15991W        W16855   1.775  23.372  23.913  0.1569  0.2627 -0.4399
15992W        W16856   7.924   8.115   1.434 -0.0513 -0.0074 -0.0245
15993W        W16857  17.870  21.688   5.685  0.1712 -0.1553  0.1576
15994W        W16858   0.626  28.782   5.312 -0.2463  0.1761  0.3996
15995W        W16859   8.452   7.178  11.337  0.1479 -0.0802  0.0715
15996W        W16860  18.329  24.958  17.167  0.2779 -0.0096  0.0107
15997W        W16861   7.278  17.633  23.632  0.2088  0.1294 -0.0910
15998W        W16862  23.881   3.273  11.434  0.0714  0.2057 -0.0152
15999W        W16863   3.695   9.134  18.545 -0.2627 -0.4253 -0.0310
16000W        W16864   7.753  23.729   9.438  0.4812 -0.0419  0.3543
16001W        W16865  14.190   6.787  24.448  0.0775  0.1291 -0.2830
16002W        W16866  11.564   9.785   6.664  0.2073  0.0718 -0.1256
16003W        W16867   3.480  12.940  26.824  0.0855  0.0286 -0.1052
16004W        W16868  20.626   1.776  26.392  0.0895 -0.0524  0.0378
16005W        W16869  26.937  12.098   5.512  0.0471 -0.0316 -0.1167
16006W        W16870  28.302  25.706  24.896  0.0327 -0.4448  0.0459
16007W        W16871  14.348   5.205  24.828  0.1627  0.0890  0.0290
16008W        W16872   8.805   8.098  25.976  0.1540  0.3528 -0.2866
16009W        W16873  15.171  15.178  16.184  0.1828 -0.1674 -0.1294
16010W        W16874   4.432   9.404  23.989  0.0055  0.2869 -0.2229
16011W        W16875   3.006  13.562   2.362  0.0826 -0.1363  0.1582
16012W        W16876   9.478  25.893   8.517  0.2557  0.3011 -0.1985
16013W        W16877  27.923   9.453  20.360 -0.1646 -0.2764  0.0399
16014W        W16878   7.088   7.137  26.424  0.0520 -0.0087  0.0340
16015W        W16879   7.527  28.221   3.996 -0.2906 -0.0626 -0.1663
16016W        W16880  17.903   9.713   5.446 -0.4320 -0.1967  0.0095
16017W        W16881   4.914  13.703   4.260 -0.3277  0.0236  0.3888
16018W        W16882   2.191  24.120  10.675 -0.0568 -0.1150 -0.1317
16019W        W16883  15.351   7.723  26.390  0.0617 -0.5118 -0.2813
16020W        W16884  22.171   8.029   6.001  0.0864  0.3836 -0.2361
16021W        W16885  28.988   9.770   9.481  0.2282  0.0342  0.2523
16022W        W16886  28.447  13.892  18.972  0.0047  0.1767 -0.1345
16023W        W16887   6.427  28.098  24.540  0.2143  0.0185 -0.2467
16024W        W16888   9.179  13.139  12.543 -0.1106 -0.2138 -0.4314
16025W        W16889   9.899  24.998  20.067 -0.1003 -0.1162  0.0884
16026W        W16890  11.244   2.370  11.761 -0.2504  0.1159 -0.0964
16027W        W16891   2.831   6.792  12.765 -0.2397 -0.2815  0.1490
16028W        W16892   0.115  11.540  21.501 -0.0307  0.0383  0.0885
16029W        W16893  16.674  23.490  16.220 -0.0418 -0.2024 -0.3354
16030W        W16894  12.443  19.208   2.316  0.1695  0.2012  0.0981
16031W        W16895  18.113  24.602  26.145  0.1973 -0.1688  0.0130
16032W        W16896   1.094  25.908  10.662  0.1948  0.0895  0.3606
16033W        W16897   9.233  22.745  17.882 -0.0606 -0.1965  0.1363
16034W        W16898   0.658  13.607   2.668 -0.1744  0.2505  0.0176
16035W        W16899   1.813  19.654  16.456 -0.0069 -0.1228  0.3296
16036W        W16900   4.190   9.208  21.938 -0.0949  0.1166  0.1952
16037W        W16901  21.135   6.045   5.333 -0.2853  0.0191  0.3349
16038W        W16902   2.583  25.742  20.536 -0.1277  0.1672  0.2590
16039W        W16903   2.476  17.973  21.976  0.1586 -0.2775 -0.1117
16040W        W16904  22.547  18.671  14.095  0.1509 -0.2998 -0.0683
16041W        W16905  15.056  19.801  29.084  0.1144  0.0303 -0.1557
16042W        W16906   2.569   5.349   1.104 -0.1172  0.2167 -0.0333
16043W        W16907   7.835  12.835  26.719 -0.0423  0.3382  0.1901
16044W        W16908   6.612  27.685  23.242  0.0277 -0.0463 -0.0277
16045W        W16909   8.996  16.964  23.312 -0.0983 -0.2455 -0.3382
16046W        W16910  28.759  20.150  15.023 -0.0150 -0.0131 -0.0373
16047W        W16911   8.937  21.502  16.391  0.2426  0.0731  0.0872
16048W        W16912  28.929  15.839  26.375  0.1572  0.0207 -0.3210
16049W        W16913   3.452   6.562  22.837 -0.0835 -0.0739 -0.0657
16050W        W16914  10.515  19.117   8.760 -0.2062 -0.1876 -0.2722
16051W        W16915   7.006   0.234  21.235  0.2471  0.4626  0.1042
16052W        W16916   6.419   6.274  11.413 -0.0708 -0.2896  0.4545
16053W        W16917  12.871   7.320  22.947 -0.2870 -0.0396 -0.1278
16054W        W16918   1.329  10.738  11.621 -0.1112 -0.0434  0.1660
16055W        W16919  15.729  20.838  15.573 -0.1619 -0.3168 -0.2103
16056W        W16920  18.058  24.346   2.997 -0.0349 -0.0167  0.0334
16057W        W16921  14.518   0.467  21.413 -0.1318  0.2830  0.3885
16058W        W16922  25.356  18.433  21.203  0.1167  0.2688  0.2062
16059W        W16923   1.465  21.562  26.162  0.1776  0.3377  0.1468
16060W        W16924  14.321   5.321  28.962 -0.3004 -0.3361  0.0409
16061W        W16925   7.356   3.219  15.115  0.3151 -0.1680 -0.2189
16062W        W16926   5.219  12.089  12.682  0.3089 -0.0174  0.3519
16063W        W16927   3.448  10.352  22.111 -0.4146 -0.0383 -0.2873
16064W        W16928   0.511   1.865  25.987 -0.0613 -0.3986 -0.1029
16065W        W16929  11.528  28.689   0.862  0.1676 -0.2239  0.1735
16066W        W16930   5.874   2.496   8.093  0.1270  0.0338 -0.1743
16067W        W16931  14.174  10.700   2.702 -0.1550 -0.1217  0.1762
16068W        W16932   1.921  14.592   4.230 -0.0226 -0.2063 -0.1742
16069W        W16933  15.083  11.699  28.179  0.1611 -0.0369  0.1899
16070W        W16934  21.388   3.426   0.682  0.1814 -0.0745 -0.1244
16071W        W16935  12.892   0.726  18.611  0.0262 -0.0814 -0.3808
16072W        W16936  14.200   1.709   2.503  0.0557  0.2695  0.2356
16073W        W16937   2.967  15.671  13.177  0.0778  0.1367  0.0809
16074W        W16938  23.229  22.517  28.419  0.0972 -0.1335 -0.0226
16075W        W16939  15.365  12.147  28.668 -0.2416  0.1825 -0.0929
16076W        W16940   5.878  27.794  10.522  0.0102 -0.2336  0.4431
16077W        W16941  10.858  10.005   8.001  0.0724  0.0149  0.0377
16078W        W16942   0.489  23.371  27.989 -0.3082 -0.2008 -0.2837
16079W        W16943  24.204  28.843   2.663 -0.0548  0.1597 -0.3739
16080W        W16944  11.834  17.044   0.999 -0.1794 -0.2765 -0.0421
16081W        W16945  21.591  17.279  19.813 -0.0917  0.1470  0.1281
16082W        W16946  22.946  16.480  23.820 -0.0201  0.1130 -0.0758
16083W        W16947   5.737  28.884   3.329  0.2579  0.1011  0.2063
16084W        W16948  22.576  19.019  23.911 -0.1732 -0.0089 -0.1728
16085W        W16949   5.043  26.030  19.725  0.2381 -0.0174 -0.1043
16086W        W16950   8.447  25.345  24.025 -0.3111  0.1242  0.2341
16087W        W16951  11.309  20.212   4.225 -0.1402  0.0988 -0.0736
16088W        W16952  26.495  20.298  25.477  0.1991  0.2070  0.0258
16089W        W16953   1.269  26.621   6.341 -0.1759  0.0865  0.1731
16090W        W16954  12.478  17.834  22.323  0.2543  0.1165 -0.0837
16091W        W16955  21.368   0.149   8.044  0.0987  0.3563 -0.2943
16092W        W16956  10.126   9.861  20.636 -0.0740  0.2288 -0.3492
16093W        W16957  24.342   3.772  13.658 -0.0593  0.3591  0.0842
16094W        W16958   3.714   9.778   3.903  0.2551  0.0788  0.2826
16095W        W16959   5.992  11.134  26.135 -0.0489  0.0977  0.3613
16096W        W16960   0.333   5.735  22.197  0.2437  0.3795 -0.2216
16097W        W16961   2.447  13.766  27.445  0.0252  0.2521  0.1987
16098W        W16962  27.843   4.235  23.358 -0.0873  0.1349 -0.1717
16099W        W16963   3.106  20.531   9.791  0.0205 -0.2535 -0.0366
16100W        W16964   0.622   3.935  24.161 -0.0318  0.0127  0.2859
16101W        W16965  29.063  17.310  27.251 -0.3863  0.0531 -0.4016
16102W        W16966  19.578  12.350   6.214 -0.0120 -0.0830  0.0648
16103W        W16967   4.364  26.834  25.467  0.0158 -0.0797  0.0258
16104W        W16968  11.556  24.966  28.484 -0.2002 -0.3580 -0.0230
16105W        W16969  25.749   7.663  13.225 -0.0047 -0.3025 -0.1226
16106W        W16970   0.502  15.203  12.750 -0.1791 -0.1557  0.1292
16107W        W16971   3.481  19.220   2.899 -0.2608 -0.1652 -0.3303
16108W        W16972  21.191   7.314  18.293  0.1609  0.0011 -0.0034
16109W        W16973  10.978  27.119   3.452 -0.0707  0.1466  0.1590
16110W        W16974  24.634   5.664  12.575  0.2735  0.2532 -0.0855
16111W        W16975   6.920  17.923   3.477 -0.0681 -0.1392  0.1632
16112W        W16976   0.629  10.688  14.419  0.1604  0.0838  0.2631
16113W        W16977   2.912  19.484  16.203 -0.0608 -0.0607  0.1850
16114W        W16978  26.020  15.499  22.474 -0.0272 -0.2799  0.1570
16115W        W16979   0.912  26.690   1.632  0.0524  0.2223 -0.0381
16116W        W16980  23.684  10.361   2.126 -0.1420  0.4929  0.4756
16117W        W16981  24.129  10.328   7.943 -0.0296  0.0593 -0.0786
16118W        W16982  11.077   3.882   4.405  0.1525 -0.3056  0.3136
16119W        W16983  20.049   1.046  20.295 -0.0941  0.0357 -0.2741
16120W        W16984  22.963   1.218  26.496 -0.3445  0.1146 -0.2153
16121W        W16985  15.714  15.403   6.928  0.0248 -0.0973 -0.0860
16122W        W16986   5.683   7.923  16.489 -0.2406 -0.5098  0.0571
16123W        W16987   1.443   8.405  20.069  0.1216 -0.0923 -0.1814
16124W        W16988  17.921   4.608  25.794  0.0125  0.1259 -0.0720
16125W        W16989  15.378  28.036  21.059 -0.0024  0.1848  0.0788
16126W        W16990   5.103  19.556  24.044  0.1936  0.0917 -0.1463
16127W        W16991  24.317   6.012  18.114  0.3018 -0.0258  0.0209
16128W        W16992   4.630  12.872  22.562  0.2749  0.0791 -0.2658
16129W        W16993   8.762   9.080  25.382 -0.0210 -0.0726  0.1320
16130W        W16994   6.356  14.905  10.643 -0.2408 -0.0003  0.0051
16131W        W16995   2.723  14.961   3.979  0.2436  0.1192  0.0314
16132W        W16996   1.884  16.662  24.969  0.2404 -0.2981 -0.2454
16133W        W16997   1.050  15.973   4.366  0.0548  0.0504 -0.3767
16134W        W16998  18.403   9.970  14.637 -0.0386 -0.1906 -0.0557
16135W        W16999  19.320  20.934  11.972 -0.1531 -0.0595 -0.0242
16136W        W17000  25.257  14.408  25.141 -0.0068 -0.1261  0.0297
16137W        W17001  15.814  27.654  21.040  0.0169  0.0169 -0.1665
16138W        W17002  20.637  20.624   1.163  0.1244 -0.0949 -0.3840
16139W        W17003   6.842  24.490  20.149  0.0891  0.1973 -0.0780
16140W        W17004  14.296  16.244  25.124 -0.0077 -0.0567 -0.0531
16141W        W17005   6.710   8.794   8.478  0.0125 -0.0055 -0.1551
16142W        W17006   4.781  21.478  10.696 -0.0701  0.2949  0.1895
16143W        W17007   6.492  11.937  18.987 -0.3030 -0.2354 -0.0050
16144W        W17008   5.720   7.956  21.804  0.0770  0.1343  0.0051
16145W        W17009  13.403  13.791  12.437 -0.1338 -0.3178 -0.1963
16146W        W17010  17.332  17.377  23.944  0.0120 -0.0910  0.2460
16147W        W17011  17.016   5.548  19.952  0.0844 -0.1583  0.2423
16148W        W17012  27.680   8.558   4.125 -0.0558 -0.1501 -0.1848
16149W        W17013   2.313   5.593   3.962 -0.0135 -0.0353 -0.0267
16150W        W17014  27.492  25.680   5.343 -0.0796 -0.3428 -0.0072
16151W        W17015   6.373  11.949   6.353  0.1015 -0.0226  0.1584
16152W        W17016  27.383   5.203   2.327 -0.1397  0.1881 -0.3835
16153W        W17017  27.500  16.921   1.856 -0.0461 -0.0603  0.1524
16154W        W17018   1.864  20.412   1.164  0.1290 -0.0370 -0.0750
16155W        W17019  17.162   5.439  12.552  0.0886 -0.1505 -0.3002
16156W        W17020  11.884   7.219   6.320 -0.1251 -0.1667 -0.2734
16157W        W17021  14.916  10.784  23.784 -0.1525 -0.0492  0.2693
16158W        W17022  21.258  10.991  28.125 -0.0587  0.1838  0.2468
16159W        W17023  23.084  14.566   1.936 -0.0465  0.0088 -0.1235
16160W        W17024  19.724  28.415   5.479  0.0139 -0.2048  0.0467
16161W        W17025   3.674  12.725  10.128 -0.0224 -0.1037  0.0635
16162W        W17026   6.620  11.533  24.621  0.1962 -0.0412  0.0586
16163W        W17027  28.800  24.709  22.356 -0.0713  0.0862 -0.1469
16164W        W17028  19.401  15.001  12.007  0.0412  0.0141 -0.1635
16165W        W17029   3.569  14.813   4.190 -0.0574  0.0464  0.1020
16166W        W17030  23.435  21.523   1.587  0.1204 -0.2563  0.0971
16167W        W17031   0.264   4.166  28.262  0.3384 -0.0253 -0.0541
16168W        W17032  10.070  17.181   3.602 -0.0604 -0.0669  0.2486
16169W        W17033   0.578  21.654   2.413 -0.4173  0.3400  0.0049
16170W        W17034  29.041   6.038  28.937  0.0272  0.1320 -0.3426
16171W        W17035  26.268   8.570  15.895  0.0390  0.4135 -0.3103
16172W        W17036   2.722  15.942  28.053  0.1472  0.1484 -0.0518
16173W        W17037   5.481  10.586  28.385 -0.0311  0.1133 -0.0691
16174W        W17038  29.008  18.105  25.480 -0.0532 -0.2723 -0.0482
16175W        W17039   9.989  16.630  11.626  0.0196  0.2699  0.1970
16176W        W17040  11.736  17.725   1.742 -0.2271  0.1114 -0.3282
16177W        W17041  12.670   1.378  25.801 -0.2243 -0.0324 -0.0006
16178W        W17042  15.548  18.267   4.604  0.4506  0.0281 -0.0534
16179W        W17043   9.721  27.996  19.257  0.2113 -0.2795 -0.1263
16180W        W17044  25.726   5.308   0.538  0.0691 -0.0191  0.1030
16181W        W17045   9.718  21.064  28.498  0.1472 -0.0984  0.1405
16182W        W17046  11.181  20.865  16.681 -0.0242  0.4652 -0.3385
16183W        W17047  11.376  28.438   2.158  0.0631 -0.2054  0.1221
16184W        W17048   3.846  14.935   6.924  0.0966 -0.0161 -0.2114
16185W        W17049  10.128  16.071  28.505 -0.0912 -0.3509  0.1063
16186W        W17050   7.174  19.813   6.336 -0.1404 -0.0181  0.1597
16187W        W17051  24.464   4.292  13.523 -0.2847  0.0651 -0.2536
16188W        W17052  15.625   3.668  28.084  0.3581 -0.5122 -0.2550
16189W        W17053   3.674  10.229  22.632  0.1393  0.1816 -0.3143
16190W        W17054  28.313  12.689   2.215  0.0788 -0.1634  0.0264
16191W        W17055   2.407  11.682  22.852 -0.2660  0.3903  0.1462
16192W        W17056  26.914  18.507  21.547  0.1128 -0.1667 -0.3430
16193W        W17057   4.216  23.209  14.386 -0.0849 -0.1252  0.0520
16194W        W17058  29.125  18.678   4.835  0.2223 -0.1943  0.1322
16195W        W17059  21.437   5.613   7.682  0.2595 -0.0445 -0.0388
16196W        W17060  28.684  24.836   0.650 -0.0124 -0.0445 -0.0323
16197W        W17061   8.072  15.471   6.213 -0.1483 -0.1915 -0.1401
16198W        W17062   2.554   2.842  14.754 -0.2166  0.2020  0.0000
16199W        W17063  25.761   5.614   7.786 -0.0338  0.1202  0.0061
16200W        W17064   5.888   2.227   6.816 -0.3099 -0.2686 -0.0493
16201W        W17065  21.984  21.036  13.582  0.3694  0.3125 -0.1373
16202W        W17066  12.910  24.640   8.930  0.3437 -0.0037 -0.2018
16203W        W17067  12.060  18.815  25.791  0.1854  0.0233 -0.1867
16204W        W17068   0.842   1.159  17.570  0.0947 -0.3839 -0.0151
16205W        W17069   5.212  22.102   9.491 -0.1790 -0.0150  0.2759
16206W        W17070  23.471  17.985   0.194  0.1179 -0.0764  0.2196
16207W        W17071  11.052   2.355  28.543 -0.0629 -0.0674 -0.3490
16208W        W17072  28.698  21.480   9.125  0.0155  0.3347 -0.3135
16209W        W17073  24.685  24.772   2.783 -0.2509  0.1262 -0.0857
16210W        W17074  19.631  12.701  10.481 -0.2131  0.1171 -0.1820
16211W        W17075  24.148  15.437  20.869  0.1632 -0.1604 -0.0593
16212W        W17076   7.685  16.691  20.794  0.1588 -0.0152 -0.0160
16213W        W17077  18.400   2.856   2.537  0.1134 -0.0131  0.0256
16214W        W17078   5.448  21.681   9.700  0.2963 -0.0556  0.2273
16215W        W17079  19.795  23.931  21.770 -0.2691 -0.2418  0.2597
16216W        W17080  19.358  21.013  10.020 -0.1925  0.1532  0.0120
16217W        W17081  13.328   2.648   5.192  0.0587  0.1581 -0.0457
16218W        W17082  25.208  28.837  22.301 -0.0834 -0.0610  0.1814
16219W        W17083  21.744  24.519  27.929 -0.2409  0.1770  0.0297
16220W        W17084   6.159  16.040   4.403 -0.0657 -0.0213 -0.2043
16221W        W17085  15.254  23.781   5.740 -0.2940  0.1315  0.1769
16222W        W17086  16.778   8.173  27.626 -0.0086 -0.2499 -0.1752
16223W        W17087   6.003  26.279   8.044 -0.3812 -0.2834  0.0911
16224W        W17088   4.183  28.194  20.521 -0.1603 -0.0063  0.1029
16225W        W17089  10.354  22.714  24.893 -0.0970  0.0778  0.0706
16226W        W17090  14.338  13.703  11.769  0.0080 -0.1370 -0.3129
16227W        W17091  28.760  26.538  23.329 -0.1620 -0.1180 -0.3038
16228W        W17092   9.763  15.616  28.298 -0.1642  0.1072  0.0423
16229W        W17093   2.380  26.428  24.142 -0.0672 -0.0298  0.0596
16230W        W17094   2.944  18.084  13.192  0.2222 -0.1289  0.1280
16231W        W17095  19.292   5.924  26.578 -0.1790 -0.0513 -0.1767
16232W        W17096  11.361  25.573  24.155 -0.2255 -0.1486 -0.0680
16233W        W17097   1.211  18.327   3.933  0.0110  0.4799  0.1390
16234W        W17098   3.709  12.504  27.847 -0.1216  0.2142 -0.0319
16235W        W17099   9.376  13.701  13.993  0.2250  0.0896  0.0719
16236W        W17100  11.201  26.266   3.544  0.0324 -0.0619 -0.2597
16237W        W17101  18.113  17.691   8.300 -0.0666 -0.1318 -0.2008
16238W        W17102   2.233   9.601   9.574  0.1564 -0.0284 -0.1387
16239W        W17103  21.619   2.516   5.288 -0.0780  0.0216  0.0973
16240W        W17104   2.265  14.514  11.725 -0.0581  0.1220  0.3992
16241W        W17105  14.926  15.626  25.655  0.2182 -0.0569  0.2400
16242W        W17106   6.287  14.523   8.258 -0.0553  0.1116 -0.0331
16243W        W17107   5.125   3.117   1.022 -0.2735 -0.3160 -0.0215
16244W        W17108   6.914  27.877  25.426 -0.1787 -0.2597  0.0585
16245W        W17109  13.233  13.398  25.066  0.1553 -0.0458  0.1984
16246W        W17110   1.504   6.055  26.084 -0.3329  0.0297 -0.0480
16247W        W17111  20.790  28.253   1.279  0.0228 -0.1232 -0.2214
16248W        W17112  13.635  29.045  26.996  0.2867 -0.0288 -0.0036
16249W        W17113  21.868  22.604  21.900  0.1807  0.0288  0.0276
16250W        W17114  24.117   1.045   3.856  0.1971 -0.0500 -0.0679
16251W        W17115  28.152  24.726  27.936 -0.0570 -0.0149  0.0060
16252W        W17116  10.229  12.722  15.860 -0.0819  0.1761  0.0490
16253W        W17117  20.086   8.809  27.322  0.0635 -0.3851  0.1412
16254W        W17118  15.179  20.779   9.548 -0.2077 -0.2376 -0.2528
16255W        W17119  17.729  17.549  22.025  0.0893 -0.2898  0.3203
16256W        W17120  23.839   1.112   3.380 -0.1479 -0.1877 -0.0827
16257W        W17121  19.225  17.721   1.630  0.1237  0.1018 -0.1038
16258W        W17122   9.164   3.108  28.566  0.3206  0.1269  0.0793
16259W        W17123   5.843  15.505   1.585 -0.2129  0.0430 -0.1640
16260W        W17124  27.115  27.050  14.198  0.1466 -0.1952 -0.2332
16261W        W17125  14.726  21.928  13.306 -0.0319  0.1089  0.1777
16262W        W17126   4.423   7.812  25.033 -0.0345 -0.2956 -0.1237
16263W        W17127  14.541   8.440  27.515  0.0038 -0.1527  0.3106
16264W        W17128   7.163   1.298   7.200 -0.3145  0.1456 -0.3652
16265W        W17129   2.220  26.761  23.344 -0.6502 -0.1286 -0.1476
16266W        W17130   3.791   0.415  19.211  0.1437  0.3371  0.0757
16267W        W17131  10.370  22.990  20.215 -0.1311  0.1407 -0.0827
16268W        W17132  10.678  26.674  13.045  0.0249 -0.0758  0.1859
16269W        W17133  21.639  21.372   9.862  0.2044 -0.0610  0.1421
16270W        W17134   7.066  23.776  25.945  0.1638  0.1877  0.4148
16271W        W17135  21.811  26.383   6.909 -0.0549 -0.2885  0.0955
16272W        W17136  25.990  10.882   0.979  0.0642  0.1846 -0.2660
16273W        W17137  20.126   3.178  27.729 -0.0918 -0.1686 -0.0205
16274W        W17138   1.680   8.731   9.804 -0.0763  0.0299 -0.1436
16275W        W17139  16.381   9.236   0.191 -0.0468  0.0660  0.2155
16276W        W17140   9.636  21.377  20.802  0.0736  0.1136  0.2665
16277W        W17141  28.574  14.043   7.853  0.1431 -0.1260  0.3020
16278W        W17142  22.314   6.035   4.461  0.0747  0.1503  0.1875
16279W        W17143  21.719  13.211  28.217 -0.0807 -0.0540  0.2518
16280W        W17144   4.906  16.793   8.607  0.3761  0.3728 -0.0349
16281W        W17145   7.961  28.763   1.713 -0.1652  0.3243  0.1155
16282W        W17146   6.038  22.536  22.266  0.1936 -0.0219  0.1357
16283W        W17147   9.696   3.025  23.208  0.0141  0.1353 -0.2772
16284W        W17148  27.093  10.249  25.316  0.1147  0.0683 -0.0354
16285W        W17149   0.629   3.032  28.782 -0.0137  0.0015 -0.1866
16286W        W17150  19.284  11.687  21.556  0.0824 -0.2625 -0.2341
16287W        W17151  25.104  17.813  24.863  0.4389 -0.1070 -0.0338
16288W        W17152   8.712  15.246   9.160  0.2824 -0.1886 -0.2536
16289W        W17153   2.717  18.972  26.201 -0.3353  0.1073 -0.1085
16290W        W17154  12.112   1.560  17.798 -0.0154 -0.0859  0.1256
16291W        W17155  10.928   8.771  23.005  0.1286 -0.1024 -0.0202
16292W        W17156   0.988  17.792  25.250  0.1353  0.0739 -0.1273
16293W        W17157  27.702   0.169  22.828 -0.0858 -0.3004  0.0954
16294W        W17158  12.988  12.672   9.169 -0.2088 -0.0771  0.1085
16295W        W17159  27.264  14.458  23.426  0.0554  0.1956  0.2382
16296W        W17160   5.388  24.896  16.001  0.0034 -0.2307  0.2491
16297W        W17161  20.386  19.526   9.765  0.2468  0.0819 -0.0553
16298W        W17162  21.313  23.264  10.719  0.2325 -0.1863  0.1718
16299W        W17163   0.809  15.871  12.968 -0.1517  0.0629 -0.0597
16300W        W17164  18.535  19.230  24.931 -0.0909 -0.2130 -0.2524
16301W        W17165   6.017  24.365  18.102  0.3032  0.1084  0.0077
16302W        W17166  13.449  16.222   8.178  0.2824 -0.1441 -0.1030
16303W        W17167  14.726  12.889   9.604  0.5540  0.3185  0.0803
16304W        W17168   4.794  22.599  19.012  0.2045 -0.2008  0.1391
16305W        W17169  12.177  13.403   0.975 -0.0679 -0.2410  0.3483
16306W        W17170   0.520   1.570  28.795  0.3524 -0.1337  0.0780
16307W        W17171   3.056  25.981  25.735 -0.0480  0.3626 -0.4619
16308W        W17172   6.711   4.151  24.065  0.0128  0.1165  0.0800
16309W        W17173  19.784   6.303   2.772  0.0467 -0.1523 -0.0817
16310W        W17174   1.489  12.425   2.893  0.0384  0.2417  0.0276
16311W        W17175  28.917  18.004  23.910  0.2622 -0.0353  0.3180
16312W        W17176  14.042  12.428  27.009 -0.0619  0.0162 -0.0606
16313W        W17177  16.885  11.868  26.772 -0.0326 -0.0723 -0.1262
16314W        W17178   7.444  20.711   4.724  0.1799  0.1337 -0.0012
16315W        W17179  26.951   6.312   8.389  0.1898  0.0230 -0.0384
16316W        W17180  21.478  21.669  27.416 -0.0590 -0.0565  0.0987
16317W        W17181   4.572   7.300   9.465  0.1720  0.2599  0.2152
16318W        W17182  26.229  12.038   0.376 -0.0441  0.0733  0.0832
16319W        W17183   6.917  16.981  17.939 -0.0176 -0.0051 -0.3058
16320W        W17184  22.217   6.260  25.282 -0.0412 -0.2018  0.0348
16321W        W17185  12.057  10.078  28.486  0.2262 -0.1695 -0.0844
16322W        W17186   4.326  18.761  15.000  0.2234  0.1986  0.0918
16323W        W17187   7.791  22.764  21.126 -0.1820  0.2069  0.0582
16324W        W17188   7.202  13.335   6.020 -0.1353  0.0114  0.0775
16325W        W17189  18.173  14.183  28.562 -0.1339 -0.1411 -0.0723
16326W        W17190   3.342   9.166   0.046 -0.0299  0.3191 -0.2511
16327W        W17191  17.748   2.365  27.353 -0.1312  0.0603  0.0090
16328W        W17192   8.983  15.868  11.699 -0.0949 -0.1276  0.2156
16329W        W17193   0.121   9.889   3.581  0.0803  0.0001 -0.1454
16330W        W17194   6.655  12.369   2.792 -0.0046  0.1138  0.0414
16331W        W17195   5.158  22.540  15.332 -0.0905  0.1529 -0.0539
16332W        W17196  25.385  22.454  25.760  0.2917  0.5107  0.0570
16333W        W17197   7.190  15.521  12.530 -0.0202 -0.3025 -0.1903
16334W        W17198   3.148  19.915  28.966 -0.0432 -0.3229  0.0807
16335W        W17199   1.448   1.756  17.959  0.1129 -0.0811  0.2826
16336W        W17200  10.506  23.530   1.982  0.0276  0.2631  0.0135
16337W        W17201  22.918   0.276   3.472  0.2444 -0.1342  0.2670
16338W        W17202   4.395  10.668   4.080  0.0083 -0.0393 -0.0442
16339W        W17203   2.267   7.929  18.671 -0.0965  0.0098  0.2714
16340W        W17204   6.340   6.433  28.122  0.1451 -0.1325  0.1178
16341W        W17205   8.765  24.192   0.306  0.2771 -0.1906 -0.0077
16342W        W17206  23.674  18.622  23.937 -0.1257  0.0020  0.2454
16343W        W17207   3.915   4.052   6.304  0.2307  0.0415 -0.1025
16344W        W17208   7.206  19.799   2.052  0.3353 -0.1201  0.0185
16345W        W17209   6.801  14.605   4.578 -0.0067  0.0306 -0.2285
16346W        W17210  18.763  25.122   7.773 -0.0453 -0.1889 -0.0528
16347W        W17211   7.036  19.931  19.936  0.3932 -0.4119  0.2500
16348W        W17212  21.271   3.092  23.777 -0.1177  0.1011 -0.1389
16349W        W17213  17.226   9.745   8.873  0.2585  0.0448  0.0035
16350W        W17214  17.766   9.175  16.268 -0.0665  0.0086  0.0857
16351W        W17215   1.210  23.786  20.348 -0.1320  0.0988  0.0599
16352W        W17216   8.177  21.114   9.324 -0.1728  0.1230  0.0067
16353W        W17217   6.868   9.082  20.886 -0.4474 -0.0747  0.3488
16354W        W17218   2.720  23.930  22.072 -0.3370  0.3968  0.0523
16355W        W17219  15.853   3.121   5.506 -0.0494 -0.2409  0.0241
16356W        W17220  23.371   8.313  12.648  0.2252  0.1174 -0.2769
16357W        W17221  23.508   0.550  21.587  0.2885  0.0497 -0.1879
16358W        W17222   6.195  28.410  22.384 -0.1049  0.2131 -0.1243
16359W        W17223  18.296  26.004  23.799  0.1248 -0.1562  0.1478
16360W        W17224  13.683   7.164   8.635  0.2254  0.0245 -0.1573
16361W        W17225  27.124  28.556   2.372 -0.2647 -0.3171  0.0797
16362W        W17226   1.199  18.093  22.759  0.2157  0.0137 -0.0920
16363W        W17227   3.690   6.101  22.946 -0.0040  0.2959  0.0213
16364W        W17228  19.467  27.630   1.474 -0.1294 -0.1393 -0.1190
16365W        W17229  14.612   9.914  27.210 -0.0159 -0.0233 -0.3194
16366W        W17230  24.570  19.436  24.642 -0.0161  0.0201  0.0720
16367W        W17231   1.845  15.459   1.006  0.0334  0.1737  0.2749
16368W        W17232  22.585   1.002  19.196 -0.0713  0.4685 -0.1108
16369W        W17233  19.138  20.388  14.608  0.1508  0.1027  0.4564
16370W        W17234  25.345  20.602  25.613  0.0083  0.0020 -0.2548
16371W        W17235  21.650  18.781   7.875 -0.0091  0.0518 -0.1933
16372W        W17236   2.351  17.630   4.075 -0.0777  0.0433  0.1085
16373W        W17237   5.162  20.077   3.347 -0.1827  0.1036  0.0371
16374W        W17238   8.828  28.308  27.284 -0.1447 -0.0440  0.0297
16375W        W17239  20.401  11.182   7.052  0.3652  0.4989 -0.2937
16376W        W17240   1.779  14.338   4.686 -0.2109 -0.0340  0.1421
16377W        W17241   2.353  24.540   1.168 -0.1274 -0.1461 -0.1637
16378W        W17242  10.967  26.822   7.472 -0.3602  0.1793  0.0192
16379W        W17243  27.834  19.301   5.073 -0.0797 -0.0575 -0.0159
16380W        W17244   9.203  15.179   1.574 -0.3542 -0.4785 -0.1674
16381W        W17245   4.841  17.315  20.114  0.0087 -0.1038 -0.1306
16382W        W17246  27.893  11.743   0.831 -0.2566 -0.0485  0.0809
16383W        W17247   0.911   9.795  16.851 -0.2292 -0.2143  0.0145
16384W        W17248  26.455   2.173  15.435  0.1918  0.2914 -0.0788
16385W        W17249   8.052  14.671   2.617  0.3097  0.1615 -0.2246
16386W        W17250   5.940   6.363  26.926 -0.0868 -0.0422  0.2488
16387W        W17251  27.105  18.103  14.794 -0.0583  0.0610 -0.3255
16388W        W17252  24.511  14.472  10.466 -0.4090 -0.2733  0.1206
16389W        W17253  24.075  26.910  24.205 -0.1584 -0.0544  0.3263
16390W        W17254   7.704  26.297   9.977 -0.0662 -0.4311 -0.1661
16391W        W17255   7.999  16.962   8.131 -0.1909 -0.0455  0.1435
16392W        W17256  23.434  14.998  25.360  0.2388 -0.0395  0.0555
16393W        W17257   8.383   6.978   5.165  0.1379 -0.0279 -0.1691
16394W        W17258  11.841   8.204  28.765  0.1319 -0.5009  0.0551
16395W        W17259   3.129   7.559  21.805  0.1617  0.0875 -0.0511
16396W        W17260   8.013   2.091  22.954  0.1062  0.2832  0.2747
16397W        W17261   4.157   5.048  15.282  0.0053  0.2247  0.1709
16398W        W17262  15.169  15.484   5.053 -0.0168  0.1140 -0.3816
16399W        W17263  28.849   1.806   4.062 -0.2609 -0.2245 -0.1308
16400W        W17264   0.142  24.467   9.960  0.3570  0.3015 -0.1513
16401W        W17265   7.102  26.268   0.033 -0.0817 -0.0575 -0.0464
16402W        W17266   6.058   4.267  10.629  0.0989 -0.0959  0.1357
16403W        W17267   8.972  10.993  11.134  0.1346 -0.0234  0.1712
16404W        W17268  26.754  18.867  11.860 -0.1540  0.2053  0.1294
16405W        W17269  27.691  19.294   7.351 -0.2959  0.4515  0.3162
16406W        W17270  20.222  13.091   9.364 -0.1325  0.0348 -0.0056
16407W        W17271  27.930   4.111   3.667 -0.1326 -0.3366  0.1907
16408W        W17272   2.156   1.966  25.694 -0.0918 -0.0378  0.0873
16409W        W17273   8.121   6.087  24.323 -0.0675  0.1268  0.0400
16410W        W17274  22.649   2.182   7.716 -0.1735  0.1380 -0.1720
16411W        W17275  25.270  13.080  10.150 -0.1607 -0.2292  0.1661
16412W        W17276  25.682  20.519  23.201  0.0713 -0.0355 -0.2341
16413W        W17277  28.964  12.121  27.925 -0.0679  0.1838  0.4101
16414W        W17278  28.983  27.981  23.114  0.0947  0.1234  0.1800
16415W        W17279  18.088   3.214  24.602 -0.3943 -0.1590  0.2539
16416W        W17280   2.564  17.450  22.022  0.0823 -0.1733  0.2561
16417W        W17281   8.419  17.279  19.615 -0.2133 -0.2977 -0.0784
16418W        W17282  11.842  15.862   5.671 -0.3248  0.0189  0.1186
16419W        W17283  27.663   9.981  14.814  0.1254  0.0394 -0.2198
16420W        W17284   7.829  16.536   6.028 -0.0421  0.1712 -0.0938
16421W        W17285  13.668   6.962  26.911  0.1522 -0.1010  0.2102
16422W        W17286   5.972   0.035  26.549 -0.2925 -0.1484 -0.1506
16423W        W17287  19.610  23.177  26.590  0.0245  0.0294 -0.0449
16424W        W17288  22.980  16.091   9.489 -0.0591  0.1320  0.1669
16425W        W17289  27.764   2.436   3.903 -0.2117 -0.1096 -0.1972
16426W        W17290   9.062  18.014  15.391  0.2225  0.0978 -0.1222
16427W        W17291  19.837  20.314  17.458 -0.1364 -0.0111 -0.2692
16428W        W17292   4.443   8.953  24.239 -0.2897 -0.0465 -0.0522
16429W        W17293  20.661  13.455   3.343 -0.3884 -0.2623 -0.0828
16430W        W17294   7.630  21.575   2.861 -0.1788  0.0462  0.0169
16431W        W17295  11.844  16.203   3.520  0.3042 -0.1957 -0.1568
16432W        W17296  23.646  24.901   0.403  0.2454 -0.1940  0.1739
16433W        W17297  21.527  21.298   0.917 -0.4379 -0.3545  0.2583
16434W        W17298   5.362  18.983   9.146  0.1650 -0.1417  0.6968
16435W        W17299  27.356  21.127  28.431 -0.0955  0.2640  0.3372
16436W        W17300  27.088  26.508   5.421  0.0129 -0.0095  0.3383
16437W        W17301   3.121   8.997  20.062  0.1170  0.1654  0.3062
16438W        W17302   8.336  20.692   1.016  0.3261 -0.2477  0.2041
16439W        W17303  22.536  21.823  28.654 -0.1171 -0.1153 -0.2392
16440W        W17304  14.077  19.038   7.445  0.2227 -0.1302 -0.1339
16441W        W17305  10.895  17.097  24.252 -0.1045  0.1021 -0.1747
16442W        W17306  24.071  13.842  23.078 -0.0123 -0.0452 -0.0098
16443W        W17307   7.899  27.839  26.505  0.0050 -0.0200 -0.0396
16444W        W17308  15.248   9.362  21.624 -0.2738 -0.0554  0.4420
16445W        W17309  15.493   6.549  24.192 -0.2263  0.3584 -0.1548
16446W        W17310  14.073  10.270  15.956 -0.1161 -0.3087 -0.3760
16447W        W17311   0.397  23.382  11.838  0.0713  0.0321 -0.2173
16448W        W17312  10.851  24.213  27.270 -0.0933  0.0062  0.0675
16449W        W17313  19.850  17.223  24.082 -0.0707 -0.0890  0.2590
16450W        W17314   0.409   3.023  11.615  0.2992  0.1323 -0.0630
16451W        W17315  10.960  18.836  25.360 -0.1781  0.4102 -0.3549
16452W        W17316  14.231  25.437   9.344 -0.1411 -0.0272 -0.0251
16453W        W17317   7.137   1.155  13.984 -0.0927  0.0242  0.1316
16454W        W17318   4.583  11.251   9.257 -0.0354  0.1039 -0.1128
16455W        W17319  20.657  25.776  20.879 -0.1041 -0.0691 -0.2374
16456W        W17320  11.085   4.187   9.007  0.1995 -0.4748  0.0198
16457W        W17321   8.030   8.807  26.719  0.1294  0.2491  0.0931
16458W        W17322  27.519   9.021  22.614 -0.0129  0.0450 -0.1010
16459W        W17323  23.534   0.228  27.688 -0.2640 -0.1718 -0.0418
16460W        W17324   1.675  22.687  25.801 -0.1762  0.0118  0.3857
16461W        W17325  26.195   2.672  23.461 -0.2263 -0.1677 -0.3143
16462W        W17326  23.589   4.226  27.335  0.0542  0.0469 -0.0243
16463W        W17327  26.840   5.601  26.149  0.0020  0.2077 -0.0080
16464W        W17328  25.044   0.888  27.751 -0.2125  0.3037  0.0743
16465W        W17329  15.116  16.026  21.168  0.0398  0.0307  0.1450
16466W        W17330  12.751  13.486   4.496 -0.2370  0.4108 -0.1433
16467W        W17331  14.840  22.235  27.062 -0.5221  0.0784  0.2578
16468W        W17332  26.056  22.497  26.785 -0.1377 -0.0916 -0.1791
16469W        W17333  15.047  22.469  27.447  0.3061 -0.1210  0.3399
16470W        W17334  17.224  27.390  26.935  0.0434  0.0021 -0.2140
16471W        W17335  14.858   3.275   8.477 -0.0357 -0.1748 -0.0306
16472W        W17336   2.411  11.186  20.690 -0.0919 -0.0275 -0.1836
16473W        W17337   7.328  18.835  22.217  0.0809  0.2203 -0.1625
16474W        W17338   6.151   5.536   2.013 -0.0402 -0.3282  0.4678
16475W        W17339  21.896  24.269  19.229  0.1461 -0.0005  0.0394
16476W        W17340   1.070  27.058   4.860  0.3651 -0.1934  0.0628
16477W        W17341  21.530  23.491  21.218 -0.1114  0.0981  0.0081
16478W        W17342   0.310  26.836  21.402 -0.1315 -0.4017 -0.1011
16479W        W17343  16.313  10.473  13.806 -0.1608 -0.0308  0.0397
16480W        W17344   7.047  23.474  12.487 -0.2250  0.0344 -0.3988
16481W        W17345  13.134  15.957  16.730 -0.1432  0.1370 -0.1806
16482W        W17346  20.933  19.031   3.654 -0.0014  0.2667 -0.0086
16483W        W17347   2.243   0.662  27.667  0.0462  0.0497 -0.1956
16484W        W17348   5.993  24.554   3.758  0.0679 -0.0964 -0.0303
16485W        W17349  19.178  14.204  11.702 -0.3014 -0.0404  0.2563
16486W        W17350  17.657  13.729   0.454 -0.1149  0.1748  0.0101
16487W        W17351   3.987   1.420  28.387  0.0356 -0.0106  0.1046
16488W        W17352   3.618  18.338  10.362 -0.1876 -0.0518  0.2247
16489W        W17353   7.547  16.969  13.594  0.0733 -0.1389 -0.3029
16490W        W17354  12.056   7.524  17.579 -0.0122 -0.1190  0.3023
16491W        W17355   8.855  19.294  18.815 -0.0075  0.1068 -0.1486
16492W        W17356  14.877  27.697   2.438  0.2768  0.1369  0.0020
16493W        W17357  20.067   7.088  18.118 -0.1436  0.0090 -0.1146
16494W        W17358  13.746  17.871  25.716  0.0150  0.0364  0.0234
16495W        W17359   3.202   2.144  14.737  0.0420  0.0558 -0.1394
16496W        W17360   0.804   4.051   2.631  0.0040 -0.0201  0.1482
16497W        W17361  28.882  23.316   3.884  0.1875 -0.2256 -0.0695
16498W        W17362   4.177  17.341  25.673  0.4635 -0.1040  0.0661
16499W        W17363  27.033  19.655   2.616  0.1052 -0.1201 -0.2390
16500W        W17364  25.718  22.862   9.012  0.2571  0.2071 -0.0115
16501W        W17365   7.204  27.578  15.713  0.2811 -0.1434 -0.2159
16502W        W17366   9.314  10.261  28.815 -0.1019 -0.2054  0.0117
16503W        W17367   1.675   7.432   5.867 -0.2725  0.0052 -0.0904
16504W        W17368  26.880  28.446   6.715 -0.3398  0.1642 -0.1156
16505W        W17369   3.282   9.658   0.134 -0.0815  0.3539  0.4252
16506W        W17370  27.763  28.072   5.468  0.2879 -0.0418  0.0486
16507W        W17371  27.781   4.624   1.161  0.0057  0.1631  0.0620
16508W        W17372  23.860  25.993  27.052 -0.2431 -0.1216 -0.0795
16509W        W17373  10.444  13.614  28.791  0.0179  0.1116  0.2470
16510W        W17374  22.230  24.500  18.155 -0.0119  0.0075 -0.1472
16511W        W17375   1.139  24.568  17.770  0.0895 -0.0615  0.1156
16512W        W17376  22.262  24.573  25.910 -0.0235 -0.3141  0.0888
16513W        W17377   7.941  21.263   2.515 -0.1336  0.3012 -0.0003
16514W        W17378  18.261  26.365  24.832  0.0076  0.1294  0.3870
16515W        W17379   2.054  13.519  12.881  0.0619  0.3240  0.3157
16516W        W17380   6.162  24.923  27.929 -0.2152 -0.1009  0.3850
16517W        W17381  11.698   6.695   4.789 -0.0696  0.0706 -0.0850
16518W        W17382  25.120  17.555   2.998  0.1293  0.1243  0.1646
16519W        W17383   1.139  25.070  12.136 -0.4112 -0.3970  0.0556
16520W        W17384  28.499   6.668   3.832  0.0135  0.1973 -0.2059
16521W        W17385  25.733  17.349  22.935  0.2831  0.0931  0.2286
16522W        W17386  10.420  15.044  14.685 -0.2646  0.1497 -0.1923
16523W        W17387  24.062  17.463   4.328 -0.1590 -0.1459  0.2416
16524W        W17388   0.918  17.682   8.523 -0.1638  0.2478 -0.0960
16525W        W17389  19.118  22.023   8.874  0.0938  0.1832 -0.0799
16526W        W17390   4.428  27.990  27.950  0.0705 -0.1627 -0.0952
16527W        W17391  27.929   8.229   4.702 -0.3874 -0.0582 -0.1600
16528W        W17392   1.350  11.673  11.882 -0.0905  0.0307 -0.0764
16529W        W17393  20.070   4.510  17.194  0.0002 -0.1120 -0.0939
16530W        W17394   9.147  18.375  12.147  0.1318  0.0404 -0.1244
16531W        W17395  25.429  11.858   8.845 -0.0081 -0.2283 -0.4151
16532W        W17396  26.618  25.518  21.011  0.1279 -0.2108  0.0434
16533W        W17397  16.691  20.368   3.152 -0.0461 -0.1477  0.1610
16534W        W17398  23.636  16.142   8.987  0.1229  0.1339 -0.1856
16535W        W17399  25.067  17.207  22.744  0.1693  0.4156 -0.1583
16536W        W17400  21.963  23.097  13.486  0.1744  0.0011  0.3585
16537W        W17401   9.138  17.346  20.583 -0.0110  0.0028 -0.0486
16538W        W17402   8.964   4.138   8.720 -0.0011 -0.2485 -0.1600
16539W        W17403  24.172  16.596   4.075 -0.1380  0.0520 -0.0055
16540W        W17404   3.216  19.348  10.105  0.0931  0.2729  0.2609
16541W        W17405  22.918  25.544  28.912 -0.2322  0.1127  0.0066
16542W        W17406  15.161  15.201  12.088 -0.0093 -0.3980 -0.2566
16543W        W17407  23.891   5.681  24.331  0.2966  0.1655 -0.0871
16544W        W17408  15.717  11.863   8.203 -0.0454 -0.1685 -0.3266
16545W        W17409  15.377  24.859  12.063 -0.1745 -0.4015 -0.0930
16546W        W17410   0.103  16.973  25.649 -0.0863 -0.0984  0.1102
16547W        W17411   5.459  22.270  12.331 -0.3300  0.0205 -0.1176
16548W        W17412  18.511   1.857  25.754  0.0625  0.2055  0.3065
16549W        W17413   7.438  14.638   7.666  0.2876 -0.1059  0.1545
16550W        W17414  27.379   4.352   1.360 -0.1733 -0.0001 -0.0715
16551W        W17415  23.306  23.335  12.443  0.0148 -0.0711  0.1412
16552W        W17416   8.171  17.176   6.733  0.0412  0.0437  0.0496
16553W        W17417   9.802  16.445   5.081  0.0450 -0.0291  0.0448
16554W        W17418   2.042   9.617   4.500  0.3431 -0.1328  0.0164
16555W        W17419  22.598  25.240  19.903  0.0601  0.1534  0.0198
16556W        W17420  15.515  11.113   9.869  0.0542  0.0585 -0.1890
16557W        W17421  22.944  22.268  27.986 -0.0445 -0.0519 -0.1764
16558W        W17422  26.736   0.875  23.589 -0.3010  0.1473 -0.2643
16559W        W17423  10.534   5.766   4.500 -0.1927 -0.2946  0.0655
16560W        W17424  22.674   2.125  18.828 -0.0655 -0.0906  0.1823
16561W        W17425  19.419  18.273   4.978  0.2182  0.0552 -0.0629
16562W        W17426  24.269  14.364   7.809  0.1477 -0.0089 -0.2765
16563W        W17427  19.065  20.880  23.291  0.5249 -0.1707 -0.1619
16564W        W17428  11.235  23.219   9.000  0.0033  0.1871 -0.0198
16565W        W17429   8.398  18.765  13.755 -0.2348 -0.1243 -0.3266
16566W        W17430  17.900  12.295   7.788  0.2719 -0.0002  0.0521
16567W        W17431  10.917  17.948  28.834 -0.2365 -0.1442  0.1940
16568W        W17432  28.331  12.567  21.044 -0.0326  0.4966 -0.0611
16569W        W17433  14.370  18.181  10.817 -0.0677 -0.2180 -0.0516
16570W        W17434  14.539  14.555   1.793  0.0331 -0.0165 -0.1033
16571W        W17435  26.496  18.459   2.523  0.0538  0.0316 -0.1422
16572W        W17436  10.259   0.005   2.409 -0.1427 -0.0190  0.0453
16573W        W17437   8.874  23.847  14.951 -0.0108  0.1186  0.0362
16574W        W17438  26.444   3.956  24.957  0.0131  0.0804 -0.1263
16575W        W17439   2.577   2.588  14.004 -0.1324 -0.1896 -0.0750
16576W        W17440   7.527  12.500  13.917 -0.1089 -0.0320 -0.0802
16577W        W17441   5.118  24.520   0.013  0.0415 -0.1719  0.2943
16578W        W17442  12.191  12.409   3.608 -0.0166  0.3392 -0.1897
16579W        W17443   3.130  10.462  13.960 -0.1193  0.0550  0.1057
16580W        W17444  20.003  14.104  10.102  0.1347 -0.1507 -0.2350
16581W        W17445   5.641   4.750   0.149 -0.1679  0.2818 -0.0555
16582W        W17446  13.420  24.662   0.660  0.1628  0.0377 -0.0719
16583W        W17447  25.473  16.866  22.834 -0.0232  0.1590 -0.0630
16584W        W17448  16.223  22.973  28.865  0.0611  0.2468  0.0302
16585W        W17449   3.751  17.763  21.225 -0.1272 -0.2941 -0.0644
16586W        W17450  17.181  13.648   0.629  0.0196 -0.1700 -0.2760
16587W        W17451  20.862  26.720  23.928 -0.1016 -0.1865 -0.2153
16588W        W17452   3.384   3.403  21.408 -0.2119  0.1057 -0.1825
16589W        W17453   4.003   8.725  28.206 -0.2576 -0.3114 -0.1258
16590W        W17454   7.654  16.188  20.772 -0.1658 -0.1861  0.0107
16591W        W17455   0.610   8.463   1.038  0.2062  0.0789  0.2668
16592W        W17456  12.705   3.790  11.571 -0.1856  0.0275 -0.0603
16593W        W17457   6.312  21.939  13.018  0.1614 -0.1100 -0.1401
16594W        W17458   2.599   5.738   6.103 -0.3158 -0.1206 -0.2757
16595W        W17459  10.693  21.547  24.801 -0.2036  0.1791 -0.1979
16596W        W17460  28.994   9.506  23.405  0.1883  0.1571 -0.1889
16597W        W17461  11.471  25.661   4.682 -0.1257 -0.1161  0.2245
16598W        W17462  12.522  18.656  23.763 -0.3997 -0.1350  0.0251
16599W        W17463  23.865  24.130  14.880 -0.2272  0.0714 -0.3452
16600W        W17464  22.661   8.481  18.873 -0.3476  0.2245  0.1128
16601W        W17465  20.701   5.402  25.403  0.0733  0.2535  0.1021
16602W        W17466  23.234   9.326  10.463  0.4011  0.2327 -0.1832
16603W        W17467   9.375  15.294   2.844 -0.1125 -0.0578 -0.2920
16604W        W17468  26.056  23.188  24.520  0.1203 -0.0626 -0.0623
16605W        W17469   2.188  12.873  15.648 -0.0194 -0.1713  0.1641
16606W        W17470  15.766  14.201   9.324  0.1594  0.2592  0.0267
16607W        W17471  26.778  10.717  23.203 -0.0712 -0.2034 -0.3154
16608W        W17472   4.887  16.811   2.027  0.1592  0.3941 -0.4262
16609W        W17473  24.024  11.885  17.640  0.1620  0.2425 -0.1250
16610W        W17474   6.062   9.380  27.804 -0.1791 -0.0044  0.3388
16611W        W17475  11.624  15.972   7.980 -0.1249 -0.2458 -0.3248
16612W        W17476   9.227  22.583  28.017 -0.1224 -0.0235 -0.0224
16613W        W17477  10.777  25.067   8.750 -0.2522 -0.2128  0.4006
16614W        W17478  11.081  22.640   6.269 -0.0455  0.1464 -0.2080
16615W        W17479  22.696  14.287   2.113 -0.1288  0.1164 -0.1608
16616W        W17480  13.052  17.044   8.292 -0.2638 -0.1899 -0.2286
16617W        W17481   2.180  19.200   6.785 -0.0037 -0.0356  0.0666
16618W        W17482  24.651  18.985  27.355  0.0671 -0.2612 -0.1022
16619W        W17483  10.637   6.907  19.455  0.0974 -0.1198 -0.1509
16620W        W17484  20.301  21.136  12.986  0.1100  0.1508  0.0945
16621W        W17485  12.058  26.606   2.016 -0.1152 -0.0494 -0.2500
16622W        W17486   6.529  11.144  23.539  0.0136 -0.4049  0.0852
16623W        W17487  28.804  24.107  22.637 -0.1922 -0.5343  0.3414
16624W        W17488  20.443  29.142   3.766  0.2291 -0.0411 -0.2119
16625W        W17489  18.155  16.575   0.150 -0.2988  0.0423  0.2170
16626W        W17490  24.607   9.068  24.076  0.1748  0.2337 -0.1134
16627W        W17491   5.462   4.215   5.524  0.3970  0.0243  0.1393
16628W        W17492  21.909  20.312  12.739 -0.0623  0.0272  0.1777
16629W        W17493  22.761   9.131  13.491  0.4174 -0.2796 -0.0590
16630W        W17494  15.754  25.502   5.153  0.0801 -0.1362  0.1900
16631W        W17495  13.573  10.624  15.819  0.1642 -0.0274 -0.1204
16632W        W17496  22.239   3.190   4.155 -0.1119  0.3125  0.2112
16633W        W17497  26.144  14.136   9.740  0.1912 -0.0908 -0.0051
16634W        W17498   8.034   9.256  11.183 -0.0252 -0.0385 -0.3450
16635W        W17499   0.054   5.190  12.613 -0.0089 -0.1348  0.3752
16636W        W17500   3.558  11.492   9.467 -0.0937 -0.0460  0.0217
16637W        W17501   5.294  28.107  23.130  0.1273  0.0806  0.0919
16638W        W17502   3.211  24.079  26.919 -0.3402 -0.1513 -0.1182
16639W        W17503  23.120   8.480   8.667  0.1041 -0.0796  0.2906
16640W        W17504  15.677  18.369  14.618  0.0517  0.1450 -0.3329
16641W        W17505  11.968  17.674   0.022  0.0205  0.0075  0.3580
16642W        W17506  29.055  11.047  10.832  0.2242  0.0518  0.2060
16643W        W17507  27.778  25.162  17.115 -0.1850 -0.0547  0.0571
16644W        W17508  26.811   6.856  25.517  0.0976  0.0046  0.3063
16645W        W17509   2.292  22.087  11.361 -0.3440  0.0090  0.0600
16646W        W17510  14.029  21.221   2.339 -0.3336 -0.0873 -0.0795
16647W        W17511  28.956  19.745   7.731 -0.0768  0.4309  0.0431
16648W        W17512   6.300   9.423   2.913  0.2065 -0.2309  0.3243
16649W        W17513  21.594  19.149   0.502 -0.1742  0.0249  0.1057
16650W        W17514   4.642  13.638   0.930  0.1034 -0.1847  0.0856
16651W        W17515  16.995   2.994  26.732  0.3306 -0.0597 -0.0107
16652W        W17516  13.490  18.189  15.578  0.1897 -0.2126 -0.0129
16653W        W17517  18.587   0.378  27.412  0.3812 -0.1198 -0.0698
16654W        W17518  13.254   5.994   7.765 -0.0406  0.1641  0.1602
16655W        W17519   2.701  12.337  21.030  0.2793  0.1383 -0.1256
16656W        W17520  15.541  14.563   6.432 -0.0898  0.2877  0.0317
16657W        W17521  26.177  18.573  28.832 -0.2029  0.1385  0.3304
16658W        W17522  13.084   0.577  27.209  0.0728  0.5671  0.2376
16659W        W17523  20.566  14.309  24.087  0.0538  0.0725 -0.2955
16660W        W17524   5.233  10.157  25.856 -0.2702 -0.1059 -0.0346
16661W        W17525   7.793   4.208  26.467 -0.2839 -0.0688  0.2410
16662W        W17526  26.569  25.946  12.254 -0.1763 -0.1727  0.2762
16663W        W17527  23.905  19.705  16.632  0.2300 -0.1475 -0.0945
16664W        W17528  21.767  15.283  19.895 -0.0023 -0.4159 -0.1909
16665W        W17529  23.291  28.941   8.511 -0.1865  0.3222 -0.0793
16666W        W17530  13.491  11.957  15.491  0.0597  0.2112  0.2446
16667W        W17531  17.857  16.519   4.041  0.2212 -0.1400 -0.2335
16668W        W17532   2.322   1.517   5.153 -0.2227  0.2063 -0.1091
16669W        W17533   3.779  16.187   8.297 -0.1341  0.0016 -0.1826
16670W        W17534   5.322  10.267  20.274  0.0726  0.0812  0.2740
16671W        W17535  11.697  22.254  24.041  0.0560 -0.0606 -0.3112
16672W        W17536   4.072  12.567  18.442  0.1402  0.3338 -0.1207
16673W        W17537  14.799   2.470  21.279  0.0472  0.1054 -0.0740
16674W        W17538  18.538   4.042  15.353  0.1522 -0.0191  0.0637
16675W        W17539   1.790  23.155  11.380  0.1253  0.1401 -0.0631
16676W        W17540  28.734  13.724  16.629 -0.1390 -0.1160 -0.3593
16677W        W17541   1.563   5.932  13.015 -0.1463  0.2503  0.2218
16678W        W17542   8.101  16.971   5.133 -0.0811  0.0894 -0.0188
16679W        W17543   4.754   8.169  25.277  0.0852 -0.3871  0.2550
16680W        W17544   0.810   7.241  21.230  0.1323  0.3571  0.1642
16681W        W17545   1.038  25.931  24.061  0.1866 -0.1964 -0.2823
16682W        W17546  21.247   0.988   4.217 -0.0205  0.1604  0.0820
16683W        W17547   8.210  11.237  26.378 -0.1807  0.1620  0.1559
16684W        W17548  24.340  24.726   8.079  0.1602 -0.1807  0.2007
16685W        W17549   5.333  16.089  22.234  0.1072 -0.0293  0.3787
16686W        W17550   0.383   1.171  15.435  0.3840 -0.0516  0.3829
16687W        W17551   4.100  15.211   1.481  0.1937 -0.1286  0.1206
16688W        W17552  23.392   3.406  21.774  0.1818 -0.2720  0.0986
16689W        W17553  19.179  22.007  14.076 -0.1311  0.0073  0.0531
16690W        W17554  12.054  12.862   7.023 -0.1221  0.0984  0.1667
16691W        W17555  27.709  16.783  20.934  0.1741 -0.2116  0.3404
16692W        W17556   6.251  18.017   8.911 -0.0473 -0.1680  0.1397
16693W        W17557  17.607  23.135  14.699  0.0760  0.2835  0.1207
16694W        W17558   6.567   5.000  16.675 -0.0853 -0.0818  0.1612
16695W        W17559  12.555   2.384  19.924  0.1888  0.1089 -0.1040
16696W        W17560   8.453  21.696  19.578 -0.1271 -0.0398 -0.1370
16697W        W17561   9.993   3.986   5.966 -0.0257  0.0213  0.2412
16698W        W17562  28.793  13.325  27.075 -0.0510  0.0600  0.2053
16699W        W17563  23.914  19.640   2.728  0.3696  0.1051 -0.0814
16700W        W17564   7.044  24.318   4.521 -0.0028  0.0141 -0.1462
16701W        W17565  21.158  19.308   1.381  0.0659  0.0538 -0.2037
16702W        W17566  19.053  15.556  14.265 -0.2186  0.0001 -0.0275
16703W        W17567  28.061   4.690   7.683  0.1286  0.6287  0.2227
16704W        W17568   9.218  13.918  11.959 -0.2723 -0.1945 -0.2098
16705W        W17569   6.185  22.143  16.705  0.2198 -0.2107  0.2257
16706W        W17570  22.265  20.239  15.216  0.1346  0.0694 -0.3781
16707W        W17571  11.016   2.569   1.686 -0.1672  0.0419  0.4431
16708W        W17572   8.383  25.353   6.959  0.0119 -0.2813 -0.0040
16709W        W17573   7.048  25.514  23.544  0.2018  0.1616  0.0687
16710W        W17574  25.265  17.419   2.289 -0.0676 -0.1577  0.2340
16711W        W17575   7.318  16.436  10.583 -0.0093  0.3039  0.2729
16712W        W17576  14.263  23.255   4.647  0.2542 -0.0831  0.0377
16713W        W17577  28.540   2.075  12.062 -0.1339  0.3507 -0.3087
16714W        W17578  22.101   0.317  27.625  0.1375  0.2218  0.0017
16715W        W17579  17.343   6.154   3.407 -0.1484  0.1549  0.2863
16716W        W17580   9.773   5.447  28.407 -0.1974  0.0834  0.0308
16717W        W17581   2.255  11.611  28.040  0.0262 -0.3608  0.0388
16718W        W17582  17.309   6.736  28.358 -0.2885  0.1968 -0.1241
16719W        W17583  18.145   9.077  21.733 -0.3310 -0.1312 -0.0137
16720W        W17584   5.134   6.556   8.504 -0.1132 -0.2962  0.1370
16721W        W17585   9.104  25.494  14.094  0.1430 -0.1697 -0.2072
16722W        W17586  18.119  12.588  20.868 -0.4709 -0.1453 -0.2111
16723W        W17587  10.631  26.517  18.234  0.0794 -0.4070 -0.0941
16724W        W17588  19.155  17.845  27.524  0.2559  0.0376 -0.0083
16725W        W17589   4.010  27.689  12.222 -0.0385 -0.0119 -0.1243
16726W        W17590  22.601  26.597   8.993 -0.1262  0.0156  0.1643
16727W        W17591   9.137  19.352  24.606  0.0689  0.0934 -0.2157
16728W        W17592  28.229   5.464  19.143 -0.3213 -0.1265 -0.0973
16729W        W17593   2.657  11.726   8.311 -0.0057 -0.2130  0.1204
16730W        W17594   8.448  14.938  15.456 -0.1430  0.0727 -0.1644
16731W        W17595  15.981  15.178   5.078 -0.2297  0.1095  0.1517
16732W        W17596  15.712  21.219   1.975  0.3341  0.0322  0.0231
16733W        W17597  27.117  26.685  18.525 -0.0923  0.0571  0.0235
16734W        W17598  13.090  27.645  29.088  0.0356  0.2786 -0.0030
16735W        W17599   5.381   2.854  23.436  0.1725 -0.1356 -0.0191
16736W        W17600  12.919   2.884  28.780 -0.1319 -0.2639  0.2086
16737W        W17601   2.001  12.773  26.087 -0.1666  0.0254 -0.0984
16738W        W17602  24.714  13.277  13.149 -0.0163 -0.0944 -0.1796
16739W        W17603   8.173  12.124  23.901 -0.2194  0.0973 -0.1168
16740W        W17604  13.908   2.576   7.514 -0.4230  0.0884  0.0577
16741W        W17605  26.849  11.169  14.587  0.1130 -0.2227 -0.1851
16742W        W17606  18.461   8.885   8.154  0.0449  0.1471 -0.0536
16743W        W17607  26.561   1.025  12.355 -0.3573 -0.1205 -0.4290
16744W        W17608  14.682  16.979  12.685  0.0504  0.0514  0.0993
16745W        W17609   5.144  16.840   7.652  0.0813  0.0440  0.1268
16746W        W17610   5.885   4.777  10.591  0.3673  0.2838 -0.1256
16747W        W17611   2.939  18.189   8.920 -0.0154 -0.4609 -0.1167
16748W        W17612   9.335   4.667  18.991  0.4894 -0.3475 -0.2820
16749W        W17613   9.109  13.917  14.815 -0.0648 -0.1613  0.1570
16750W        W17614  21.550  27.217  11.763 -0.2896 -0.0068 -0.1885
16751W        W17615   8.058  12.397  19.281 -0.1767  0.1738 -0.0656
16752W        W17616   9.249  18.056  28.525  0.1028  0.2219 -0.1544
16753W        W17617  20.648  15.329  28.638 -0.1506  0.2880  0.0987
16754W        W17618   2.496  18.280  11.826  0.4345  0.0508  0.3020
16755W        W17619  26.681  18.515   4.925 -0.1212  0.1348  0.0381
16756W        W17620  23.176  16.889  19.321  0.1287  0.1522  0.1245
16757W        W17621   5.031   3.384   2.461  0.3443  0.0698  0.2060
16758W        W17622  27.628  26.319  24.503  0.0192  0.0065 -0.1482
16759W        W17623   2.618   3.453   9.155  0.0607 -0.3062  0.1402
16760W        W17624  17.908  28.199  13.093  0.3412 -0.3117  0.1803
16761W        W17625   9.953   4.404  14.221  0.2461  0.3790  0.0576
16762W        W17626   9.131  21.421  26.448 -0.1453 -0.2400 -0.0453
16763W        W17627  10.469  11.684  22.472 -0.2939 -0.0258 -0.0336
16764W        W17628   1.053  10.938  23.233 -0.0764 -0.0175  0.0811
16765W        W17629  20.768   4.250  11.582  0.2339  0.2339  0.0698
16766W        W17630   6.071  27.399   9.513  0.3134 -0.2897  0.1068
16767W        W17631  22.255  10.969  21.879 -0.0308  0.0053  0.0089
16768W        W17632  12.444   2.642  14.389 -0.1190 -0.1213  0.3544
16769W        W17633  18.439  15.862   9.532 -0.1257  0.0256  0.0860
16770W        W17634  10.772  14.668   5.938  0.0797  0.0929 -0.1175
16771W        W17635  14.984  27.891  26.880  0.0621  0.0338  0.2425
16772W        W17636  25.058   6.366  13.147 -0.2684  0.0209 -0.0594
16773W        W17637   3.060  14.553   0.835  0.1629  0.1624 -0.0117
16774W        W17638   2.535  16.930   6.001  0.0856 -0.0778  0.0896
16775W        W17639  19.571  20.169  15.423  0.0774  0.2432 -0.4585
16776W        W17640  28.671   5.353   7.780  0.2478  0.1596 -0.2163
16777W        W17641  26.239  24.006   4.879  0.1068 -0.1534 -0.1735
16778W        W17642  15.565  27.929   3.691 -0.2408  0.0439 -0.2576
16779W        W17643  21.694  15.223  24.045  0.1424 -0.0934  0.0724
16780W        W17644  16.030  23.199   6.882 -0.2329 -0.2089 -0.2321
16781W        W17645  10.419   1.801  28.024 -0.4482  0.3169  0.3606
16782W        W17646  14.292  16.216   7.198 -0.2623 -0.0114  0.2052
16783W        W17647  29.075  21.066   4.771  0.0490  0.1469 -0.0149
16784W        W17648  26.743  14.558  16.088 -0.1709 -0.0726 -0.0415
16785W        W17649   8.138  21.718   8.942 -0.1745 -0.0638 -0.3311
16786W        W17650  20.123  13.822   2.003  0.2445 -0.0069 -0.2514
16787W        W17651  28.921  21.505   7.053  0.2880 -0.1612 -0.2112
16788W        W17652   4.176  16.740  16.631 -0.0791 -0.1745 -0.0187
16789W        W17653  13.634   1.191  21.188  0.1197  0.4821  0.2008
16790W        W17654  10.828  19.846  18.083 -0.0089 -0.1567 -0.1310
16791W        W17655  28.314   9.363   8.643  0.1633 -0.1972  0.0486
16792W        W17656  15.472  10.825  23.307 -0.3980  0.0454  0.0848
16793W        W17657  17.716  26.376   4.866  0.0264  0.0043 -0.1502
16794W        W17658   6.976  23.617  14.799  0.1908  0.2309  0.0000
16795W        W17659  28.335  17.369   9.800  0.0277  0.0285 -0.0107
16796W        W17660  23.320  25.734   0.857  0.0871 -0.1879  0.0505
16797W        W17661   9.064   0.022  27.870  0.0736  0.1908  0.2429
16798W        W17662  19.752  25.428  26.387  0.0610  0.1495  0.2242
16799W        W17663   4.538  10.455  27.405 -0.0624  0.0112 -0.1849
16800W        W17664   4.174   4.494   5.856 -0.1951 -0.0240  0.1347
16801W        W17665  27.073   3.933  20.462  0.1072 -0.1004  0.2064
16802W        W17666   7.273  22.770  15.839  0.1305 -0.0709 -0.2788
16803W        W17667   5.338  23.533  17.315 -0.0550  0.3345 -0.0525
16804W        W17668   7.609  28.769  24.691  0.0054 -0.0256 -0.1092
16805W        W17669  16.126  19.611  25.806  0.1897  0.1257  0.2318
16806W        W17670  11.255  10.496   3.897 -0.0695 -0.0644  0.1582
16807W        W17671  11.223   0.258  14.757  0.1853 -0.0973 -0.1904
16808W        W17672  11.560  11.249   8.256  0.1047  0.0719  0.3055
16809W        W17673   0.963   0.657   2.294  0.0493 -0.2683 -0.0819
16810W        W17674  25.337  19.917   6.274  0.1656 -0.1044 -0.0991
16811W        W17675  20.887  19.000  16.950 -0.0754 -0.0138  0.0466
16812W        W17676   7.554  19.883  17.236  0.0336  0.0944 -0.0498
16813W        W17677  18.136   0.517  16.499 -0.2482 -0.1547  0.0784
16814W        W17678  25.049  23.584  15.126 -0.0727 -0.1494  0.0567
16815W        W17679   7.695  17.877  21.613 -0.3495 -0.2232  0.1391
16816W        W17680  28.678   2.595   0.733  0.1079 -0.0062 -0.1420
16817W        W17681   9.165  22.611   8.551  0.1498  0.0129  0.0785
16818W        W17682  10.513  24.328   1.009  0.1864  0.3003  0.2575
16819W        W17683   0.321   8.182  25.208  0.1969  0.2858  0.0023
16820W        W17684   0.128   0.032   2.855  0.0391  0.0756  0.1054
16821W        W17685   8.328  27.360  27.243  0.2105  0.0866  0.1389
16822W        W17686  26.889  20.487   7.263 -0.2235  0.1647 -0.1984
16823W        W17687  17.403  24.873  18.786  0.3454 -0.0037 -0.1083
16824W        W17688   0.427   6.287   7.504  0.2053  0.1550 -0.0023
16825W        W17689  17.128   1.111  18.589 -0.0178  0.0336 -0.0144
16826W        W17690   1.795   5.035  26.207 -0.0391 -0.1634 -0.0953
16827W        W17691  27.211  21.836  15.902 -0.2532  0.2281  0.0038
16828W        W17692  26.218  11.306  12.409  0.2917  0.0001 -0.1416
16829W        W17693  16.842  27.064  12.667  0.0312 -0.0070  0.0981
16830W        W17694  12.938  21.237   4.680  0.2612  0.0615  0.0979
16831W        W17695   5.382   5.059   5.077  0.0203 -0.2748  0.1332
16832W        W17696  11.221  24.786  25.104  0.1417  0.3928  0.0490
16833W        W17697  16.925   7.534  25.614  0.1711 -0.0076  0.1096
16834W        W17698  12.271  13.673   2.222  0.0330  0.1402 -0.2734
16835W        W17699   1.441  18.310  14.778 -0.0437 -0.1819  0.0718
16836W        W17700   6.715  21.488   3.957 -0.0495  0.0178  0.1115
16837W        W17701   4.419   5.978   9.700  0.0481 -0.2169  0.1530
16838W        W17702  29.091  28.946  14.828  0.0587 -0.0944  0.0797
16839W        W17703   5.471  17.700   8.478 -0.1548  0.4308 -0.0759
16840W        W17704  14.725  11.734  25.526 -0.2869  0.0973  0.1097
16841W        W17705  21.270  22.225   5.962  0.0212  0.0297 -0.0663
16842W        W17706  20.623  24.567  13.003  0.1551  0.2223  0.1550
16843W        W17707  16.395   8.980  10.238 -0.0869  0.0730 -0.0255
16844W        W17708  14.683  14.172   1.992  0.2991  0.2517 -0.1883
16845W        W17709  26.372  19.183   2.117 -0.0990 -0.2518 -0.2916
16846W        W17710  26.633  11.961   8.076  0.1077 -0.0518  0.1807
16847W        W17711   2.027  18.671  28.323 -0.1478  0.2020  0.1104
16848W        W17712   7.458  14.789  20.325 -0.1947 -0.0673 -0.1251
16849W        W17713  19.538   3.300  12.232  0.2289 -0.2266 -0.1681
16850W        W17714   9.706   2.248   1.727 -0.2590  0.1408 -0.2523
16851W        W17715  18.818  24.178  16.974  0.2004 -0.0418 -0.1633
16852W        W17716  29.135  17.731   9.479  0.0059  0.1658 -0.0209
16853W        W17717  26.208   1.509  21.518  0.0074  0.2112 -0.1715
16854W        W17718  25.962  17.121  10.143  0.1614 -0.3550 -0.0800
16855W        W17719   8.948  15.882  14.845 -0.3920  0.2952 -0.2020
16856W        W17720  16.415  24.275  25.529  0.2342 -0.1375  0.1539
16857W        W17721   9.183  20.517   6.427 -0.0666  0.3872  0.0818
16858W        W17722  19.210  22.850  15.882 -0.1039  0.0563 -0.1717
16859W        W17723   9.647   6.309  20.847  0.1137  0.1150 -0.0386
16860W        W17724  23.204  26.463  18.526  0.0035  0.0039 -0.1267
16861W        W17725   7.772  23.821  23.296 -0.0473 -0.2137 -0.0766
16862W        W17726  26.959  15.165  28.713  0.3642  0.0259  0.0783
16863W        W17727  16.027  24.563  21.999  0.2936 -0.1452  0.0014
16864W        W17728  26.413   2.148   4.148  0.0074  0.1651 -0.1554
16865W        W17729   3.165  15.828  25.789  0.3441 -0.3108  0.1617
16866W        W17730   2.545  12.680   0.768 -0.2444 -0.0643 -0.1362
16867W        W17731  10.006  12.783   1.343 -0.2299  0.0038 -0.0157
16868W        W17732  16.867  17.519  13.541  0.1713  0.1751  0.3080
16869W        W17733   1.278  26.102   2.499  0.1565 -0.1448  0.0497
16870W        W17734   9.426  25.574   2.920  0.0860 -0.1337  0.0455
16871W        W17735  27.826  15.806   7.474  0.4534 -0.0139 -0.0493
16872W        W17736  14.428  14.230   0.186 -0.3761  0.1844  0.1656
16873W        W17737  23.411   2.536  12.483  0.2958  0.0298 -0.1367
16874W        W17738   6.729  10.280   6.426 -0.0145 -0.1716  0.0789
16875W        W17739  16.543  24.574  22.299 -0.0435  0.2815 -0.1627
16876W        W17740  21.859  21.935   4.388 -0.0813 -0.0249 -0.0256
16877W        W17741  19.420   2.845   5.104  0.0776  0.0243 -0.0859
16878W        W17742   9.664  24.522   6.569 -0.1502 -0.3448 -0.0498
16879W        W17743   2.292  27.173  11.775 -0.2969 -0.0543  0.1850
16880W        W17744  15.593  20.598   4.505 -0.1585 -0.1129  0.1590
16881W        W17745   5.896  15.592   4.361  0.2029  0.2337  0.0941
16882W        W17746   4.515  29.118   6.318 -0.0009  0.2478  0.0720
16883W        W17747  11.063   5.259  28.885 -0.0080  0.0076 -0.0113
16884W        W17748  14.082  26.290  22.399  0.1967 -0.0269 -0.0547
16885W        W17749  21.640  13.192   7.491  0.2334  0.0292 -0.1915
16886W        W17750   5.806  15.388   0.512  0.1151  0.1313  0.0275
16887W        W17751   0.629   8.958  18.652 -0.0376 -0.1327  0.0548
16888W        W17752  15.384  20.545  23.527  0.0988  0.1784  0.1422
16889W        W17753  19.885  22.501   9.399  0.1356 -0.0828  0.2922
16890W        W17754  28.935  18.053   1.770 -0.0264 -0.0984 -0.2319
16891W        W17755   5.884  19.333  23.729 -0.0880  0.0689 -0.2490
16892W        W17756  12.967  24.848  23.436 -0.0496  0.2313  0.3276
16893W        W17757  16.258   3.797   9.383  0.3331  0.1935 -0.3724
16894W        W17758   7.980   0.887  16.973 -0.2751 -0.1764  0.1441
16895W        W17759  28.559   6.276  23.988 -0.2196  0.1642 -0.0336
16896W        W17760   6.979  19.035  20.199 -0.2133  0.0523  0.0430
16897W        W17761  28.226  19.978  21.714 -0.3403 -0.0766  0.0630
16898W        W17762  12.177  13.431   0.447 -0.2121  0.0022 -0.0169
16899W        W17763  28.697  12.678   1.419 -0.1164  0.1647  0.2807
16900W        W17764  22.591  24.258  22.711  0.1266 -0.2339 -0.0145
16901W        W17765  28.942  24.536   7.359 -0.0690  0.0901 -0.2781
16902W        W17766  20.504   8.543  23.717  0.0571 -0.2868 -0.2734
16903W        W17767  15.936  10.682  17.005  0.0540  0.0478  0.1488
16904W        W17768  22.161  24.647  27.688 -0.0113  0.1003 -0.2023
16905W        W17769  10.563   5.350  15.924  0.4722  0.0140 -0.0999
16906W        W17770  15.885  16.484  28.199  0.2071 -0.0434  0.0596
16907W        W17771  23.976   2.933  22.617  0.0912  0.0126 -0.0427
16908W        W17772  28.521   1.391   2.234  0.1151  0.0171 -0.0311
16909W        W17773  27.240   3.254   7.379  0.0126 -0.0092 -0.0114
16910W        W17774   7.465   4.953  24.764 -0.2398  0.0347 -0.1197
16911W        W17775   9.190  27.043  10.531  0.0055 -0.0345  0.2499
16912W        W17776  24.737  22.662  27.347 -0.0205 -0.0087  0.1487
16913W        W17777  11.926  21.579  26.936 -0.4070 -0.0137 -0.1077
16914W        W17778  13.781  11.321  11.520  0.0558 -0.1262 -0.1620
16915W        W17779   0.258   9.880  28.084 -0.1383  0.1164  0.0279
16916W        W17780  26.039  19.514  27.996  0.0290  0.0343 -0.0369
16917W        W17781   3.419  17.558   7.124 -0.1432 -0.3322  0.0775
16918W        W17782   2.627  22.336  14.098 -0.0656 -0.0149 -0.2826
16919W        W17783   2.461  10.721  27.019 -0.2315  0.0058 -0.1007
16920W        W17784  23.609   5.328  12.194 -0.1586  0.1938  0.5048
16921W        W17785   7.143   5.193   6.716 -0.1445  0.0919  0.0268
16922W        W17786  21.008  26.906   8.179  0.1090  0.1811 -0.1651
16923W        W17787  24.563   8.945  25.475  0.4507  0.3863 -0.0456
16924W        W17788  25.127   2.545   8.953  0.0364  0.1392 -0.1112
16925W        W17789   5.984  16.769  22.797 -0.0461  0.1142  0.3039
16926W        W17790   1.486   7.207   1.823 -0.0294 -0.1157 -0.1001
16927W        W17791   2.083  12.841   4.752 -0.3273  0.0685 -0.0880
16928W        W17792  19.171  18.553  28.790  0.0164 -0.4185  0.0224
16929W        W17793  18.737   8.291  12.740 -0.1198  0.0715 -0.0837
16930W        W17794  22.212   6.275  11.952  0.0085  0.3632 -0.0559
16931W        W17795   3.318  19.602   8.227 -0.0769  0.1923  0.1534
16932W        W17796   6.683  20.849  10.717 -0.0883  0.0582 -0.0947
16933W        W17797   3.190  20.919  14.120  0.0464 -0.0850  0.1501
16934W        W17798  10.476  27.631   9.168 -0.0860 -0.1055  0.3846
16935W        W17799   1.991   8.228  28.635  0.2744  0.0971 -0.1947
16936W        W17800  27.038  14.855  21.737 -0.0122  0.1598 -0.1831
16937W        W17801  23.750  22.815  14.285 -0.3067 -0.1441  0.2442
16938W        W17802  27.822  24.517  18.991  0.2162  0.0408 -0.0874
16939W        W17803   6.957   1.068   8.305  0.1183 -0.0326 -0.0938
16940W        W17804  15.557  26.759  18.177  0.1334  0.1487 -0.2368
16941W        W17805   9.223   6.418  17.808  0.1548  0.1369 -0.1509
16942W        W17806  26.426   5.413   5.784 -0.1807  0.2432  0.1426
16943W        W17807  20.495   1.258  22.742  0.1763  0.1276  0.1764
16944W        W17808  21.340  23.935  22.154 -0.1157 -0.0639 -0.1079
16945W        W17809  26.323  17.181   9.794  0.1556  0.3219 -0.0154
16946W        W17810  27.671  16.543  14.248  0.1382  0.1418  0.1100
16947W        W17811   2.576   0.543   2.979  0.1140 -0.1225 -0.0745
16948W        W17812   5.803  17.220  29.122  0.4113 -0.2735 -0.3061
16949W        W17813   2.357  15.023  26.077  0.2305 -0.0674  0.0324
16950W        W17814   4.463  17.802   7.797  0.0689 -0.1528 -0.2312
16951W        W17815   5.930   2.530  23.172 -0.1248  0.1462 -0.0067
16952W        W17816  18.035   7.611  15.811  0.0252  0.0152  0.1253
16953W        W17817   0.889  13.339  23.788 -0.2842 -0.2394 -0.2338
16954W        W17818  27.982   6.117   4.500  0.0858 -0.1183 -0.0191
16955W        W17819  12.973   4.879  23.819 -0.0069 -0.3250  0.0573
16956W        W17820  28.552  13.069   1.890  0.0294  0.4368 -0.2063
16957W        W17821  24.235   2.204  14.629 -0.0750  0.2306 -0.0842
16958W        W17822   5.922  16.321  14.241  0.2025  0.0358 -0.2057
16959W        W17823  22.893  17.076   9.172 -0.0257  0.0702  0.2255
16960W        W17824   7.011  24.355  28.571  0.0189  0.2154  0.0100
16961W        W17825   3.328  14.938   1.008  0.3027 -0.1904  0.1053
16962W        W17826  12.823  18.872  10.753  0.0228  0.1704  0.1716
16963W        W17827   7.392   5.271   5.793 -0.3042 -0.0932  0.0816
16964W        W17828   3.973   6.164   0.407  0.2895 -0.1121  0.2548
16965W        W17829  14.707  22.087  14.858 -0.0884 -0.3085  0.1646
16966W        W17830  23.825   8.276   1.331 -0.1053 -0.1079 -0.0739
16967W        W17831  24.870  19.732  16.809 -0.0568  0.2408  0.1102
16968W        W17832  12.556  23.407  16.240 -0.6622 -0.1374  0.0517
16969W        W17833  17.092  23.048  21.185  0.2308  0.2555  0.1455
16970W        W17834   4.352  22.526  18.118  0.0976  0.4078 -0.3629
16971W        W17835   6.902   9.902  21.418 -0.2068  0.1309 -0.1936
16972W        W17836  28.729  13.551  19.800 -0.1167 -0.2215  0.0288
16973W        W17837  13.727  26.233   1.606  0.0995 -0.0804  0.2978
16974W        W17838   2.784  13.748  12.237  0.0123  0.0330  0.2511
16975W        W17839  19.962  21.270  17.881  0.1504  0.0537 -0.0012
16976W        W17840  20.686  23.860  13.208  0.0404 -0.0310  0.2020
16977W        W17841  19.171   6.485  28.917 -0.1221 -0.3707  0.3105
16978W        W17842   7.276   4.377  12.775  0.1341  0.0992  0.1091
16979W        W17843  18.524  23.019  14.634  0.1966 -0.1613  0.0766
16980W        W17844  15.254   5.181   9.727  0.2996  0.0192  0.1150
16981W        W17845   4.384  28.602  13.231  0.1831 -0.0863  0.2542
16982W        W17846  27.480  22.988  17.325 -0.1121  0.2612 -0.1128
16983W        W17847  27.514  20.629  17.614  0.2773 -0.1646 -0.2404
16984W        W17848  26.952  19.188   6.302 -0.1847 -0.1904 -0.1941
16985W        W17849   7.879  28.088  28.412  0.2314 -0.1506  0.4277
16986W        W17850   6.482  15.635  17.584 -0.0612  0.0829 -0.0804
16987W        W17851  22.575  13.942  27.763  0.2614 -0.0458  0.2419
16988W        W17852   6.674  23.741  20.909 -0.1047 -0.0045 -0.0002
16989W        W17853  11.438   8.538  11.031  0.0181 -0.0608 -0.0280
16990W        W17854  14.081   9.464  15.447  0.1197  0.1801 -0.0336
16991W        W17855   4.251  19.373   0.671  0.2448 -0.0215 -0.0912
16992W        W17856   8.033   1.535  11.397 -0.2852  0.0333 -0.1891
16993W        W17857   1.225  25.351  22.548 -0.2380 -0.1481  0.1210
16994W        W17858  20.688   9.783   6.011 -0.0609  0.0595 -0.0372
16995W        W17859   2.085  28.348   1.865 -0.0724  0.1609 -0.1357
16996W        W17860  12.141  22.074  14.229  0.3483  0.2787 -0.0505
16997W        W17861   7.971   2.706  11.643  0.2291  0.0733 -0.3368
16998W        W17862  19.005  15.823   9.454  0.1221  0.2529 -0.3369
16999W        W17863   4.993  22.397  14.653  0.0250  0.1302  0.0439
17000W        W17864   8.976  17.955  21.382  0.0756 -0.1370  0.1169
17001W        W17865   1.296  11.799  13.014  0.1296 -0.2494 -0.0648
17002W        W17866   8.174   7.699  17.110 -0.0148  0.0997  0.0318
17003W        W17867  26.405  21.982   7.116  0.1608  0.0731 -0.2933
17004W        W17868  25.498  17.598   3.733 -0.3343  0.0269 -0.0789
17005W        W17869  12.149   6.571  25.805 -0.2688 -0.4817  0.0481
17006W        W17870   4.813   7.239  17.779  0.1866 -0.3389 -0.1991
17007W        W17871   8.973   3.165  20.966 -0.0721  0.0077 -0.0488
17008W        W17872   6.101   7.720  17.833 -0.1860  0.1169  0.0654
17009W        W17873   0.704  16.694   4.001 -0.2720  0.3927  0.3571
17010W        W17874   4.140  19.762  10.524 -0.2569  0.0463 -0.2129
17011W        W17875  13.125   6.797   5.113 -0.0336  0.0747 -0.0562
17012W        W17876   8.901  23.695  25.143  0.2057 -0.1480  0.0006
17013W        W17877  13.485  19.603  13.157  0.0352 -0.2983 -0.0553
17014W        W17878   0.361  13.050   6.752  0.1115 -0.1721 -0.0537
17015W        W17879   2.413   1.095   8.526  0.2169  0.3158  0.2933
17016W        W17880  11.173  27.248  28.692  0.3435 -0.0537  0.0476
17017W        W17881   0.971  24.420  28.959 -0.0967 -0.1123  0.0469
17018W        W17882   8.425   0.657  17.899  0.1080  0.0325  0.1034
17019W        W17883  28.237  23.487  28.908 -0.1103 -0.1842 -0.1628
17020W        W17884  22.856   0.227  11.844  0.1306 -0.2505 -0.0811
17021W        W17885   9.428  22.158   5.806 -0.3707  0.0408  0.1387
17022W        W17886  14.677   3.775   2.788  0.2086 -0.2304 -0.2102
17023W        W17887   5.738  16.927   1.456 -0.3483  0.3267  0.0766
17024W        W17888   3.677  14.859   3.711  0.0315  0.1160  0.2752
17025W        W17889  19.218  19.564  21.353 -0.1272 -0.4949  0.1131
17026W        W17890   6.514  25.737  10.185 -0.1508  0.3022  0.0511
17027W        W17891  28.626   9.291  24.968  0.0439  0.0278  0.0985
17028W        W17892  20.831   6.664  23.834 -0.1479 -0.5527 -0.1546
17029W        W17893   5.152  14.333   6.512  0.0160  0.4235 -0.2445
17030W        W17894  25.759  12.135   2.189 -0.0006  0.0976 -0.3589
17031W        W17895  21.467   2.638   1.492 -0.4057 -0.2063 -0.0376
17032W        W17896   0.153  21.000   2.611 -0.3120 -0.1254  0.2365
17033W        W17897  23.754   8.710  28.014  0.0629  0.1902 -0.0899
17034W        W17898   7.001  16.543   7.901  0.1125  0.1028 -0.1533
17035W        W17899   0.050  18.717  13.571 -0.2628  0.1856 -0.0489
17036W        W17900   7.707  20.986   1.056 -0.0186  0.0323 -0.0302
17037W        W17901  12.547  15.195  13.343 -0.4059 -0.3065 -0.0123
17038W        W17902   3.039  22.798   4.046  0.0061  0.1718 -0.0859
17039W        W17903   1.744  22.786  27.108 -0.0002 -0.0681  0.0424
17040W        W17904  18.796  21.708  14.227 -0.1743 -0.2013  0.0619
17041W        W17905   0.018  11.172  24.892  0.0728 -0.2890 -0.0880
17042W        W17906   0.621  16.055   2.211 -0.1429 -0.2160 -0.1730
17043W        W17907   5.582   4.595  27.765  0.0597  0.0304 -0.0108
17044W        W17908  16.113   4.908   6.877 -0.0285 -0.3832  0.0954
17045W        W17909  27.409  20.083  17.125  0.1558 -0.2047  0.2433
17046W        W17910   4.672  21.937   7.496 -0.1441 -0.2417 -0.1053
17047W        W17911  10.726   0.188  26.373  0.1337 -0.0318 -0.0515
17048W        W17912   1.602  15.859  14.701 -0.0054  0.1298 -0.2198
17049W        W17913   1.611  19.235   8.567 -0.1694  0.0544  0.0867
17050W        W17914  15.340  28.147  26.555  0.2740  0.1832 -0.1216
17051W        W17915  25.875  13.520   6.221 -0.0199  0.0891  0.1911
17052W        W17916   3.987  11.484   3.975  0.1327 -0.0784 -0.0217
17053W        W17917   3.589   4.095   7.041 -0.0825 -0.0876 -0.1711
17054W        W17918  26.482   8.666  20.877  0.0917 -0.0528  0.1344
17055W        W17919   9.295  24.922  23.668 -0.1505 -0.0508  0.1478
17056W        W17920  21.948  21.400   7.045  0.1707  0.1002  0.0491
17057W        W17921  27.739   2.131  20.912  0.1410 -0.2255 -0.0010
17058W        W17922  15.247  10.965  15.113 -0.0714 -0.1809  0.0970
17059W        W17923   9.745  21.555  11.324 -0.3115 -0.2441 -0.4822
17060W        W17924  28.608  29.079   0.636  0.0691  0.0396  0.3995
17061W        W17925  12.127   3.940  12.863 -0.0832  0.0078  0.0362
17062W        W17926  19.660  21.990  14.370  0.6124 -0.0099 -0.3128
17063W        W17927   1.058  28.827   8.591 -0.1374  0.0432  0.1652
17064W        W17928  18.534   0.595   1.019 -0.0483 -0.1613  0.3041
17065W        W17929   0.153  17.439  25.808  0.1542 -0.0544 -0.2985
17066W        W17930  17.597  10.744   7.116  0.2010  0.1063 -0.3046
17067W        W17931   6.447  17.769  20.824  0.1868 -0.1074  0.0872
17068W        W17932  15.675  24.503   7.035  0.4098 -0.0997  0.0370
17069W        W17933  12.102   9.040   9.176  0.1145  0.2263  0.1877
17070W        W17934   8.513  16.279  11.427  0.4521  0.0130 -0.1582
17071W        W17935  27.513  19.291  27.000 -0.1168  0.1524  0.3232
17072W        W17936   7.972   8.214  28.650 -0.0935 -0.0130 -0.2017
17073W        W17937  27.529  24.853   9.539  0.0205  0.0178  0.1746
17074W        W17938  19.933   2.139  24.465  0.3813 -0.1095  0.0405
17075W        W17939  29.028   0.783   2.851  0.2795  0.2171  0.2447
17076W        W17940  28.343  17.451  21.914 -0.0228 -0.1524 -0.0991
17077W        W17941   9.707   3.012   5.282  0.1682 -0.0162 -0.2002
17078W        W17942  13.591  25.787  12.176  0.2245  0.0448  0.0405
17079W        W17943  27.666  23.510  11.818 -0.1762  0.1043  0.0928
17080W        W17944  18.591  25.596   4.246  0.0062 -0.0491  0.3879
17081W        W17945   2.211  18.269   9.117 -0.0814  0.1349  0.3425
17082W        W17946   8.444  18.260   3.125 -0.0330  0.0467  0.0068
17083W        W17947  11.604  19.774  20.705  0.3112  0.0412  0.1722
17084W        W17948   1.379  17.005  14.831 -0.0458  0.2116  0.1506
17085W        W17949   4.924   0.735  24.911  0.1397  0.1604  0.0542
17086W        W17950   3.322  25.245   2.212 -0.1836  0.4095 -0.1260
17087W        W17951  26.741  20.089  15.547 -0.1463  0.4361  0.0350
17088W        W17952  17.038  13.417   6.522  0.0701 -0.0769  0.2760
17089W        W17953  27.901   0.237  22.344  0.0310 -0.0168 -0.0228
17090W        W17954   8.551  25.731  15.233 -0.6476  0.0261 -0.2255
17091W        W17955  23.721  17.592  13.406  0.0961 -0.1530  0.0868
17092W        W17956   7.668   9.324  10.513  0.1101  0.0022 -0.1054
17093W        W17957   1.330  12.383  12.663 -0.0987  0.0820 -0.0763
17094W        W17958  15.792   7.584  15.654 -0.0024 -0.1745 -0.0635
17095W        W17959  22.000  16.870  17.520  0.2825  0.1255 -0.1641
17096W        W17960   1.695  24.743  17.205 -0.0055  0.1169  0.2238
17097W        W17961  12.451  15.089  12.033 -0.3528 -0.1031  0.0468
17098W        W17962  13.209  18.436  23.897 -0.0854  0.1244  0.4273
17099W        W17963  17.830  23.307  14.263 -0.0261  0.1806 -0.3101
17100W        W17964  27.591  11.149  10.387  0.0236  0.1726 -0.1167
17101W        W17965   3.974  14.753  25.773 -0.0782  0.0446 -0.2441
17102W        W17966  28.832  18.928  27.356  0.0668 -0.0269 -0.2645
17103W        W17967  20.305  22.789   6.714  0.1872 -0.0901 -0.4814
17104W        W17968   4.421  26.594  22.860 -0.0100  0.1778  0.2686
17105W        W17969   4.803  23.450  19.277 -0.1198 -0.3843 -0.0498
17106W        W17970  28.423  18.138  14.004  0.1078  0.4139 -0.0283
17107W        W17971  26.841   2.465   3.964  0.0339 -0.2819 -0.0546
17108W        W17972  22.056   7.971  23.283 -0.2979  0.1793 -0.1768
17109W        W17973  24.339  13.010  21.413 -0.1035  0.0239  0.2772
17110W        W17974  26.334  25.506  12.718 -0.0962  0.0646  0.2375
17111W        W17975   2.060   0.745   8.070 -0.1327 -0.1557 -0.0968
17112W        W17976  21.057  15.031   9.591  0.3229 -0.0654 -0.2766
17113W        W17977  23.543  22.702  23.480  0.0501 -0.1689 -0.1570
17114W        W17978  10.524  14.198   8.094  0.2186 -0.1740 -0.0871
17115W        W17979  17.435  20.954  16.400  0.0255  0.2973 -0.1628
17116W        W17980   5.320   3.406   5.651 -0.1589 -0.2301 -0.3168
17117W        W17981   4.820  18.609  22.985 -0.0199  0.0798 -0.3791
17118W        W17982  12.261  21.907  18.275 -0.2146  0.0401 -0.0601
17119W        W17983   3.788  19.068  25.870 -0.0387 -0.1641 -0.3204
17120W        W17984  23.962   2.457   9.186 -0.1197 -0.1603  0.2237
17121W        W17985  17.772  17.044   2.733  0.1441  0.0368  0.2671
17122W        W17986   5.635  23.606   7.707 -0.2440  0.1062 -0.0446
17123W        W17987  12.629  23.596  13.193 -0.0616 -0.0446  0.0168
17124W        W17988  21.271  20.946  12.174  0.3188  0.0058 -0.0868
17125W        W17989  26.976  27.074  25.670 -0.2551  0.3517 -0.2422
17126W        W17990  18.622  11.282  11.313 -0.0401 -0.1061  0.0489
17127W        W17991  16.928  22.404  12.142  0.2066  0.1001 -0.2138
17128W        W17992  17.360  25.594  11.562  0.0836 -0.0802 -0.3395
17129W        W17993  27.992  22.479   4.576  0.0240 -0.2356 -0.0003
17130W        W17994  15.262   8.504  16.303 -0.2486  0.2561  0.2536
17131W        W17995   7.658  22.441  15.685 -0.2302  0.1600  0.1700
17132W        W17996   4.577  23.746   4.447  0.3175 -0.2686 -0.2917
17133W        W17997   0.665  21.091  12.281  0.2299 -0.2254  0.2324
17134W        W17998  21.210   0.367  10.425  0.1892 -0.1135 -0.2220
17135W        W17999  19.383  21.119   0.197 -0.0173 -0.2689  0.0523
17136W        W18000   3.749   2.353   9.493  0.0815 -0.0623 -0.2458
17137W        W18001  28.498  20.170  25.970  0.0329 -0.0527  0.1989
17138W        W18002  20.379   9.082   7.847  0.3068  0.1252  0.0815
17139W        W18003  27.727  17.518   3.383 -0.0107 -0.0271 -0.1051
17140W        W18004   5.239  27.650  10.521  0.2194  0.0349 -0.0005
17141W        W18005  28.617  17.568  19.764  0.1420  0.2776  0.0010
17142W        W18006  13.383   5.209  26.688 -0.1272  0.1174 -0.2582
17143W        W18007   2.864  18.400  12.724 -0.4357  0.1166 -0.0180
17144W        W18008  19.027  18.661   3.946 -0.1311 -0.1802  0.3091
17145W        W18009   0.207  26.915  13.710 -0.1760  0.2645  0.0729
17146W        W18010   4.331  17.172  20.229  0.0794  0.2029 -0.1408
17147W        W18011   6.843  22.175  22.529  0.0878 -0.2258 -0.0805
17148W        W18012  16.493  20.061  27.959  0.1177 -0.1989  0.3302
17149W        W18013  12.791  20.514  27.881 -0.1141  0.1359 -0.3628
17150W        W18014   4.360  18.823  11.751 -0.2445 -0.0655  0.0778
17151W        W18015   0.926  27.277   4.409 -0.1930 -0.0381 -0.2080
17152W        W18016   9.505  23.383  27.509 -0.1251  0.1630 -0.0515
17153W        W18017  19.372  27.297  16.812 -0.1483 -0.2660 -0.1324
17154W        W18018   7.973   2.680  18.585 -0.0792 -0.4334 -0.2455
17155W        W18019   4.688  11.457   0.311 -0.0311  0.2034  0.0355
17156W        W18020  15.302   5.616   6.523 -0.0394  0.0747  0.4823
17157W        W18021   0.250   8.846  14.141  0.1092  0.3234  0.1322
17158W        W18022   6.161  22.846  20.910 -0.0656 -0.0748 -0.0709
17159W        W18023  19.727  22.651  24.406  0.0889  0.0418 -0.0483
17160W        W18024  25.449   2.530  14.077 -0.2306  0.1611 -0.0796
17161W        W18025  15.897  19.948   0.455  0.0280  0.0355  0.0041
17162W        W18026  12.728   4.961  11.211 -0.1382 -0.0862 -0.1975
17163W        W18027  13.846  18.753   9.281 -0.1275  0.2729 -0.3990
17164W        W18028  10.384   2.851   1.145  0.2800 -0.0842  0.1098
17165W        W18029   8.152   2.473  27.977  0.0140  0.0198  0.0464
17166W        W18030   1.948  24.034  11.179 -0.0191  0.1439  0.3222
17167W        W18031  17.022  26.575  24.312 -0.1454  0.0707  0.0570
17168W        W18032  15.481  14.946   9.035  0.0667  0.1192  0.1054
17169W        W18033   0.748  15.482   8.496  0.1381 -0.1790  0.0456
17170W        W18034   0.613  10.142  23.288 -0.0844 -0.1585 -0.0118
17171W        W18035   6.880  26.131   3.890 -0.2512  0.0448 -0.0782
17172W        W18036  20.922  12.609  20.479  0.0196 -0.0589  0.0757
17173W        W18037  23.679  20.179  23.446 -0.2828 -0.2819  0.0038
17174W        W18038  12.622  14.035   2.191 -0.2087 -0.0844 -0.2910
17175W        W18039  16.091   4.365  21.543 -0.5126 -0.0431 -0.0148
17176W        W18040   7.761  12.411   1.005  0.2314  0.2576 -0.2066
17177W        W18041   2.021   8.904   5.800  0.0528 -0.4179 -0.1971
17178W        W18042   7.367   2.002   5.708 -0.0780 -0.1172  0.3115
17179W        W18043   5.318  15.326  21.041 -0.1907 -0.3404 -0.0094
17180W        W18044   2.248   9.005  28.580  0.0138 -0.0883 -0.0670
17181W        W18045  19.593   2.108  16.756 -0.1185  0.0670  0.1708
17182W        W18046   5.980   1.349  18.778 -0.1474  0.2626  0.1934
17183W        W18047  19.391   6.710   4.014 -0.2560 -0.1377 -0.0597
17184W        W18048  22.639  20.115   6.638  0.2184  0.1744  0.1863
17185W        W18049   7.481  13.796  10.783  0.0300  0.1424 -0.0134
17186W        W18050   1.023  24.463  18.824 -0.1713  0.0433 -0.1445
17187W        W18051  24.688  23.143   9.476 -0.0611  0.0051  0.0856
17188W        W18052  23.189  26.790  28.211 -0.1896  0.0699  0.1333
17189W        W18053  13.705  19.814  18.297  0.0710 -0.2713  0.2505
17190W        W18054  20.634   0.157  26.836 -0.1831 -0.3024 -0.1554
17191W        W18055  11.636  20.795   0.526  0.3686 -0.2438 -0.2528
17192W        W18056  20.820  17.046  29.083 -0.2368 -0.1686  0.1873
17193W        W18057   4.760  24.355   5.897 -0.1656 -0.2887  0.0564
17194W        W18058   5.847   1.607  10.069  0.0431 -0.3770 -0.3955
17195W        W18059  24.080  25.839  26.147  0.0137  0.0303  0.1745
17196W        W18060   6.880   0.167  24.654  0.4195  0.2474 -0.0448
17197W        W18061   7.050  10.298  10.566 -0.1193 -0.2165  0.1267
17198W        W18062  18.439  23.445   2.656 -0.4018  0.0897  0.0936
17199W        W18063   4.710  13.803  13.526 -0.0771  0.1092  0.4020
17200W        W18064  27.161  12.517  28.099  0.1726  0.1992 -0.2618
17201W        W18065  26.628  15.360  10.911  0.0157 -0.0658 -0.0593
17202W        W18066   4.018  18.044  18.843 -0.1477  0.0509  0.0370
17203W        W18067   5.166  25.929  12.238 -0.0449  0.0187 -0.1273
17204W        W18068   3.080  18.690  26.495  0.0720  0.1644  0.0286
17205W        W18069  24.930  26.826  13.033  0.1227  0.2106 -0.0722
17206W        W18070  27.015  22.363   5.434  0.4091 -0.0364  0.1188
17207W        W18071  16.273   8.404  19.698 -0.0461 -0.3367 -0.2831
17208W        W18072   4.847  11.327   2.427  0.0128 -0.2721 -0.2359
17209W        W18073  21.449  16.845  16.813  0.0168 -0.3250 -0.0565
17210W        W18074  19.522  20.148  24.762 -0.0260  0.2229  0.1020
17211W        W18075  16.281  18.487   9.200 -0.0793 -0.0415  0.1081
17212W        W18076   8.417  24.817   7.783 -0.0421  0.3167  0.0259
17213W        W18077   4.330  28.928  18.018 -0.0847 -0.4523 -0.0518
17214W        W18078  24.355  21.011  13.109  0.6196  0.1213 -0.0881
17215W        W18079  20.174  13.816   0.318 -0.0834  0.0477  0.1051
17216W        W18080  14.177   4.102   1.187  0.2936  0.1983 -0.2939
17217W        W18081   7.767  16.480  15.323  0.0203 -0.0867 -0.0801
17218W        W18082  25.662  10.628  22.542  0.3687  0.1414 -0.3599
17219W        W18083   4.356  29.092  11.664  0.1868  0.1048 -0.2219
17220W        W18084   2.179  23.885  16.980 -0.1386  0.0925 -0.2781
17221W        W18085  27.112  14.003   1.593  0.1298  0.1427 -0.0522
17222W        W18086  14.666  17.093  22.651  0.1896  0.0898  0.0301
17223W        W18087   0.124  26.679  11.415  0.1385 -0.0018 -0.1397
17224W        W18088  27.209  15.620   4.597  0.1688 -0.3853 -0.1684
17225W        W18089   4.241  18.474   4.769  0.1168  0.2604 -0.2623
17226W        W18090   8.452  13.394  11.955  0.0173  0.2338  0.4118
17227W        W18091   5.900  24.296   7.115 -0.3876  0.2023 -0.1099
17228W        W18092  18.058  20.019  25.310  0.2552 -0.0806  0.1602
17229W        W18093  16.620  12.927   7.805 -0.0019 -0.1203  0.0910
17230W        W18094   6.145  13.629  13.769  0.2436  0.2047  0.0884
17231W        W18095  22.993  13.402  29.129  0.0160 -0.0609 -0.0953
17232W        W18096  24.103   2.610  17.629  0.3292 -0.1004 -0.3696
17233W        W18097   4.676   5.123   8.236 -0.1014 -0.1523 -0.1342
17234W        W18098  27.872  23.880   9.938 -0.1335 -0.1621 -0.2242
17235W        W18099  26.626  15.276   1.003  0.2596  0.1379  0.2176
17236W        W18100   6.430  20.491  11.820  0.0626  0.1937  0.1854
17237W        W18101   9.629  18.437   3.996 -0.0373  0.0489  0.2685
17238W        W18102  22.051  23.102  23.495  0.1517  0.1813 -0.0072
17239W        W18103  23.223  12.585   8.362 -0.4926  0.3162  0.0908
17240W        W18104   2.503  27.184  23.240  0.3457  0.2559  0.2962
17241W        W18105  27.926  13.961   9.849 -0.1375 -0.1719 -0.0205
17242W        W18106   9.294  24.930  27.324 -0.2128  0.2907 -0.2169
17243W        W18107  14.635  21.113  11.987  0.2047 -0.0101 -0.2351
17244W        W18108   5.279  17.127  13.583  0.1083  0.0306  0.2415
17245W        W18109  15.922   3.232  26.045  0.1022  0.0970 -0.3876
17246W        W18110  11.459  26.571  10.081  0.1971  0.0336 -0.0341
17247W        W18111  15.139   4.816   9.205  0.1596  0.0990  0.0806
17248W        W18112  28.546  20.112  17.297  0.0932  0.0260  0.1391
17249W        W18113  16.770   7.016  27.027  0.0646 -0.0509 -0.1350
17250W        W18114  12.900  22.224  12.028  0.0648 -0.0696 -0.0827
17251W        W18115  26.962  17.215  25.666 -0.0653 -0.0181  0.1376
17252W        W18116  20.403   9.801  16.247  0.0061  0.0738 -0.0107
17253W        W18117   8.617  22.238   0.514  0.0275  0.0775  0.0980
17254W        W18118  22.804  22.534  17.757 -0.0366 -0.0609 -0.1874
17255W        W18119   1.953  18.957  27.282  0.0760  0.1345  0.1237
17256W        W18120  11.932  28.965  19.112  0.1398 -0.4870  0.1826
17257W        W18121  26.606  20.625  24.260  0.1999  0.1961  0.1837
17258W        W18122  22.030  17.620   2.608  0.0708 -0.1226  0.0534
17259W        W18123  27.207  21.746  25.113  0.2228  0.2526 -0.1224
17260W        W18124  19.090  12.331  19.494  0.0235 -0.0385  0.0116
17261W        W18125  22.046  26.171   0.262 -0.0707  0.3108  0.1318
17262W        W18126   5.446   4.075  24.313  0.2034  0.0565 -0.2469
17263W        W18127  12.823  23.356  18.618 -0.1297 -0.3105 -0.2440
17264W        W18128  15.666  15.726  14.209 -0.1616 -0.0686 -0.0420
17265W        W18129   0.965  12.434  15.507 -0.1307 -0.0465 -0.0896
17266W        W18130   7.608  25.452  27.591 -0.0359 -0.1665 -0.0060
17267W        W18131  15.517  21.339  25.499 -0.1412  0.0403  0.1175
17268W        W18132  25.430   1.548   4.189 -0.3291 -0.1516  0.2898
17269W        W18133  15.794  19.541  22.362 -0.2909  0.1829 -0.2217
17270W        W18134  24.930  15.022  18.171 -0.0556 -0.1163 -0.2177
17271W        W18135  13.242  22.855   8.928 -0.0285 -0.0752 -0.1498
17272W        W18136   6.082  21.078   3.053  0.0460 -0.1848  0.0794
17273W        W18137  23.045   9.935  26.842 -0.0704 -0.2705  0.1200
17274W        W18138   2.066   6.631  20.513 -0.0114  0.1698  0.2121
17275W        W18139   6.165   2.933  11.800 -0.0383  0.1052 -0.2167
17276W        W18140   8.757  27.289   1.009  0.1763 -0.2053  0.2483
17277W        W18141  24.418   8.887   9.316  0.2061 -0.0408 -0.2477
17278W        W18142   3.862  17.114  22.664  0.0215 -0.2493 -0.1028
17279W        W18143  12.412  14.699  18.006  0.1376 -0.1389 -0.3073
17280W        W18144  13.331  12.578  25.705  0.0046  0.0204  0.2793
17281W        W18145   0.623  26.438  10.401  0.1531  0.3524  0.0042
17282W        W18146  14.992   7.526  11.377 -0.2845 -0.4041  0.0085
17283W        W18147  18.325  14.826  23.079 -0.2112  0.0108  0.3347
17284W        W18148   0.962  16.559  18.372  0.3884 -0.0368 -0.1309
17285W        W18149  13.053  25.193   6.816  0.0315  0.1457 -0.3192
17286W        W18150   9.275  11.720  11.418 -0.2465 -0.0919 -0.0690
17287W        W18151  17.288   9.692   5.986  0.2691 -0.0946  0.2982
17288W        W18152  27.557  18.035  10.175  0.1442 -0.1522 -0.1089
17289W        W18153   3.291  28.309   5.124 -0.1120  0.0159  0.1615
17290W        W18154  19.991  28.262   7.831 -0.0704 -0.0046 -0.0343
17291W        W18155   7.630  17.247  16.684  0.1674  0.0039 -0.0929
17292W        W18156  12.838   9.672  13.462  0.0242 -0.0181 -0.3145
17293W        W18157  24.529  13.087   9.540 -0.2708  0.1672  0.0460
17294W        W18158   0.547   8.618   3.340  0.1416  0.2446  0.0453
17295W        W18159  13.358  17.518   6.350 -0.2821 -0.3419  0.1208
17296W        W18160  25.086  11.708  27.496  0.0448  0.1303 -0.2732
17297W        W18161  12.959   0.243   7.962 -0.0736  0.2725 -0.3652
17298W        W18162  17.952  25.373  24.443  0.1334  0.2076  0.0890
17299W        W18163  13.213  13.838  26.763 -0.1906 -0.2250 -0.2430
17300W        W18164   1.850  13.308  14.533  0.3365 -0.2237 -0.1399
17301W        W18165  28.379  13.916   9.687  0.1179 -0.0879 -0.1380
17302W        W18166  24.010   4.745  18.413  0.0056 -0.2824 -0.0770
17303W        W18167  22.507  10.712  19.388 -0.2414  0.3554  0.1475
17304W        W18168   5.885   1.447   5.935 -0.0297 -0.1850 -0.1569
17305W        W18169   6.630  17.715  15.519 -0.1464 -0.1647  0.2968
17306W        W18170  24.386  15.349  16.299  0.1849 -0.2577  0.2098
17307W        W18171  23.822  17.451   2.259  0.3203  0.5585  0.3552
17308W        W18172   7.837  12.002  10.579  0.2832 -0.0246 -0.3472
17309W        W18173  16.421  22.190  25.261  0.1450 -0.2506 -0.1528
17310W        W18174  11.017  28.694   0.261 -0.1609  0.1369 -0.0536
17311W        W18175  16.038  15.054  10.132 -0.0222  0.1602 -0.0947
17312W        W18176  15.193  25.528  25.219 -0.0549  0.4507  0.1239
17313W        W18177   4.297  11.788  26.512  0.0908  0.2403  0.1574
17314W        W18178   0.614  22.471  10.246  0.0061  0.1150  0.0579
17315W        W18179  13.494  15.050   5.093  0.3115  0.0052 -0.1449
17316W        W18180   1.176  17.099   0.823 -0.1352  0.2516  0.0525
17317W        W18181  11.087  11.027   2.492  0.2568 -0.3123 -0.3681
17318W        W18182   9.876  27.362  14.533  0.1265 -0.1981  0.0164
17319W        W18183  24.076  16.723  10.552 -0.0923 -0.0236  0.0368
17320W        W18184   3.266  11.509   3.975  0.0405  0.0395 -0.0252
17321W        W18185  17.324  25.025  15.824 -0.0978 -0.0058 -0.1007
17322W        W18186  22.635  16.967   2.580 -0.0156 -0.0681 -0.0694
17323W        W18187  13.998  28.881  11.391  0.1684  0.0632  0.1104
17324W        W18188  11.052  24.962   3.660  0.0455 -0.0710  0.3191
17325W        W18189  22.427  11.093   5.094  0.0760 -0.0065  0.1159
17326W        W18190  12.688  17.274   2.484  0.4386 -0.1891  0.4687
17327W        W18191   5.667  16.791   2.651  0.3612 -0.0011  0.3219
17328W        W18192  28.398   3.262  28.240 -0.2936  0.2393 -0.1672
17329W        W18193   2.999   9.016   2.959 -0.0001  0.0441  0.3623
17330W        W18194  22.130  18.949  22.874 -0.1848  0.1581  0.0437
17331W        W18195  22.117  19.323   9.711 -0.0094  0.0152 -0.1971
17332W        W18196  13.018   0.502  10.175  0.1476 -0.2939  0.0496
17333W        W18197   5.461  19.722  13.281 -0.2318 -0.0777 -0.0802
17334W        W18198  26.782  22.928   1.289 -0.3642  0.0923 -0.1092
17335W        W18199  19.240   5.998  12.197  0.1193  0.3125 -0.3157
17336W        W18200   5.082  14.932  28.401 -0.1781 -0.0223  0.0390
17337W        W18201  27.677   9.637   6.894  0.2909  0.1677 -0.2129
17338W        W18202  26.204   4.328   0.107  0.0645 -0.0473  0.1761
17339W        W18203  19.778   4.351  26.682 -0.1236 -0.1474 -0.0592
17340W        W18204  11.484  17.729  14.610  0.2319 -0.1817 -0.0079
17341W        W18205   9.692  18.461  18.773  0.0957  0.0278 -0.0067
17342W        W18206   1.628  13.378  18.590 -0.1516  0.1872 -0.0174
17343W        W18207  27.382   2.313  11.178 -0.1135  0.3770 -0.0687
17344W        W18208   8.085  15.697  16.697 -0.2229  0.1642  0.0054
17345W        W18209   8.717   8.025   3.471 -0.1032 -0.0609  0.1549
17346W        W18210   2.580  17.125  19.551  0.1116  0.1906 -0.0162
17347W        W18211  14.110   6.941   4.469 -0.1047  0.2987 -0.0882
17348W        W18212  19.896  23.130   6.263 -0.1574  0.0049 -0.1269
17349W        W18213  20.228  16.228  11.470 -0.2480  0.1388 -0.0870
17350W        W18214  23.608  15.980  19.646 -0.0963 -0.1220  0.3443
17351W        W18215  17.502  24.114   5.790 -0.0849 -0.0818  0.1431
17352W        W18216   8.358   2.979   4.928  0.1992 -0.3670 -0.1711
17353W        W18217  10.541  10.876  13.806  0.1168  0.2438 -0.4194
17354W        W18218   8.979  16.553  25.247 -0.3037  0.0437 -0.0122
17355W        W18219   4.889   8.429  16.407  0.0086  0.1756 -0.2566
17356W        W18220   9.744   8.064   1.040  0.3046  0.2421 -0.2262
17357W        W18221   6.363   7.736  14.392 -0.0220 -0.2487  0.1157
17358W        W18222  13.473  26.995  17.326 -0.3837  0.3996  0.4319
17359W        W18223   0.534   2.937   3.428  0.0127 -0.2249 -0.0619
17360W        W18224   2.813  15.972   6.158 -0.2219 -0.2380 -0.1118
17361W        W18225   9.746  18.599  23.937 -0.2259 -0.2022  0.1998
17362W        W18226  17.015  27.661  18.644  0.1407  0.0025  0.0983
17363W        W18227  13.196   6.486  18.204  0.0522  0.0138 -0.2575
17364W        W18228   1.202  26.948  13.753 -0.1047 -0.0586  0.0472
17365W        W18229  28.048   6.422  10.113 -0.3290  0.1665  0.1423
17366W        W18230  13.490  24.975   1.002 -0.1757 -0.1142 -0.0420
17367W        W18231  28.088  11.731  10.489 -0.2863 -0.1562 -0.0414
17368W        W18232  27.639   0.986   9.420 -0.3446 -0.2035 -0.1555
17369W        W18233  10.510  28.589   7.797  0.2532  0.0861 -0.0353
17370W        W18234   2.296  13.500   0.279 -0.0712  0.3358  0.0037
17371W        W18235  11.952   9.467  13.178 -0.2099 -0.0492  0.2233
17372W        W18236  23.289   4.763  22.813 -0.0777  0.4422  0.0933
17373W        W18237   9.082  25.224   3.483 -0.1642  0.2635 -0.1038
17374W        W18238  10.083  12.912  25.032 -0.1303  0.1098  0.1281
17375W        W18239   0.898   1.972   6.733 -0.2819  0.1991 -0.0792
17376W        W18240  28.936  20.642  12.329  0.2058  0.1020 -0.0170
17377W        W18241   3.989   6.430   8.473  0.1605  0.1285  0.0682
17378W        W18242   3.284   5.353  25.684  0.1269  0.1217 -0.0681
17379W        W18243  19.958   7.819  20.419 -0.1190  0.1806  0.1259
17380W        W18244  22.338  23.118  10.179 -0.0671  0.0651  0.0601
17381W        W18245  17.495  16.808  19.527  0.0936  0.0785  0.1621
17382W        W18246   8.912  18.877   3.215 -0.0227 -0.3298  0.1589
17383W        W18247  22.182   9.882   8.700  0.0091  0.2764 -0.2323
17384W        W18248  22.330  26.832   2.330  0.0607  0.5470 -0.6223
17385W        W18249   6.064  22.480   7.305  0.3565  0.1143 -0.0405
17386W        W18250  18.487  22.738  10.073 -0.3273  0.0576  0.0292
17387W        W18251  26.514  17.376  17.677  0.0688 -0.1868 -0.0684
17388W        W18252  23.628  16.668  14.027  0.1803  0.0267  0.1773
17389W        W18253  21.055   7.320  24.484  0.0884 -0.2015 -0.1819
17390W        W18254  24.040  18.909  14.539  0.0666 -0.2565  0.0649
17391W        W18255  24.618   7.203  27.157 -0.0824 -0.2032 -0.0364
17392W        W18256  23.472  27.302   3.279 -0.2184 -0.1087 -0.1587
17393W        W18257  25.149  22.408  16.802 -0.2230  0.1059  0.3566
17394W        W18258   8.808  14.062   8.065 -0.1691 -0.1370  0.2434
17395W        W18259  25.234   0.056  28.371 -0.2196  0.0330 -0.1357
17396W        W18260  10.690   9.989  19.130  0.2642  0.2008  0.3207
17397W        W18261   1.782  16.004  22.577  0.3700  0.0410 -0.1020
17398W        W18262   9.234  14.614  26.244 -0.0870  0.1812  0.0716
17399W        W18263  24.387   9.123   8.160 -0.1342  0.0252  0.1003
17400W        W18264   5.933  20.690   8.270 -0.1906  0.2763 -0.0031
17401W        W18265  27.952   0.379  11.505  0.0501  0.1232  0.1441
17402W        W18266  11.808   7.752  17.978 -0.0898  0.3028 -0.1363
17403W        W18267   2.931  26.233   5.051 -0.2099 -0.0669 -0.0226
17404W        W18268  11.836   8.961   6.894  0.1733 -0.1918  0.0626
17405W        W18269   3.526   4.954  15.230  0.4256  0.0428 -0.1253
17406W        W18270   4.952  29.115   7.358 -0.1868  0.0099  0.1527
17407W        W18271  13.462   2.019   6.321 -0.3508 -0.1659 -0.2003
17408W        W18272  19.162  25.889  18.032 -0.2920 -0.0785  0.3002
17409W        W18273   0.342  21.078   8.867  0.0435  0.0729 -0.0800
17410W        W18274   6.264  18.148  27.190  0.1693 -0.1956  0.0837
17411W        W18275  16.265  19.441  27.230  0.1534 -0.0832  0.3050
17412W        W18276  17.227  14.915  29.034 -0.1214 -0.1590 -0.1403
17413W        W18277  12.469   6.544  19.248 -0.2899  0.0797  0.4938
17414W        W18278   0.494   8.420   4.183  0.0609  0.1898  0.0121
17415W        W18279  17.640  17.471   3.009  0.0492 -0.2199 -0.0457
17416W        W18280   4.850  15.327   9.634  0.1943  0.1672 -0.0097
17417W        W18281  24.001  23.350  20.866  0.0181  0.2773  0.0915
17418W        W18282  26.496   7.878   3.512  0.0404  0.0207 -0.2555
17419W        W18283  19.106  23.442  11.645 -0.1319 -0.1334 -0.3173
17420W        W18284   0.924   5.355  10.322  0.0906  0.0352 -0.0594
17421W        W18285  18.311  21.058  11.705  0.2290 -0.1653 -0.1239
17422W        W18286  29.050  22.732  25.186  0.0168  0.3260  0.1952
17423W        W18287  26.356  13.181  21.036 -0.1155  0.3852  0.3898
17424W        W18288  25.107  19.017   0.000 -0.2014  0.0057  0.0389
17425W        W18289  10.839  28.846   9.421  0.0136 -0.1012 -0.1841
17426W        W18290  23.190   9.827   1.117 -0.3352  0.0266 -0.0225
17427W        W18291   3.275   6.990   5.327  0.1003  0.0254 -0.0251
17428W        W18292   5.274   4.783  27.121 -0.1791 -0.0561  0.2662
17429W        W18293  12.814  23.020   2.143 -0.0456 -0.1425 -0.0552
17430W        W18294  27.443   8.722  25.496  0.3413 -0.0950  0.0461
17431W        W18295   8.112  20.162  13.992  0.0368  0.3127  0.1663
17432W        W18296   5.529  27.808   8.398  0.0771  0.0894  0.0075
17433W        W18297  25.076  26.975  15.634 -0.0586  0.2870 -0.0666
17434W        W18298  16.716   2.844   7.713 -0.0364 -0.0436  0.1423
17435W        W18299  26.996   0.991   9.673  0.2695 -0.2154 -0.0788
17436W        W18300   2.593  25.979  28.198  0.1674  0.1165 -0.1488
17437W        W18301   3.501  26.895  28.241  0.0063 -0.1099 -0.1399
17438W        W18302   2.919   2.182   1.652 -0.3839 -0.0218 -0.2833
17439W        W18303  19.272  27.495  23.168 -0.0317  0.2225  0.0278
17440W        W18304  20.684  15.889  20.206  0.1148 -0.0609  0.1295
17441W        W18305  22.050  29.007  28.525 -0.1392  0.0476  0.0255
17442W        W18306  15.011   0.505  14.296 -0.2310  0.1023  0.0754
17443W        W18307  23.511  19.215  10.065 -0.1136  0.4270  0.1913
17444W        W18308  14.895  28.585   9.020  0.0780 -0.0464  0.2327
17445W        W18309  20.935  13.203  24.701 -0.2377 -0.1267  0.0098
17446W        W18310  25.359  15.359   2.647 -0.0372 -0.0368  0.0227
17447W        W18311  23.390   3.600  22.328  0.2636 -0.1984 -0.2060
17448W        W18312   8.710  26.580   4.578 -0.2680 -0.2069  0.1848
17449W        W18313  28.828   7.456  10.988  0.0972 -0.0643  0.2651
17450W        W18314   9.506  18.193   9.503  0.3400  0.2701 -0.2320
17451W        W18315   6.409  24.103  23.150  0.0443  0.3743 -0.0564
17452W        W18316   9.718  13.349  29.039 -0.5400  0.1120  0.3001
17453W        W18317  26.483  24.796  21.098 -0.2299 -0.2509 -0.2264
17454W        W18318   4.325  18.862   2.986  0.3686 -0.2540  0.1226
17455W        W18319  28.748   7.446  19.617  0.2067 -0.2196 -0.1809
17456W        W18320  22.691  24.410  26.091 -0.2626 -0.1437 -0.3135
17457W        W18321   5.180   6.235  11.353  0.2724  0.2329  0.2246
17458W        W18322  25.375  27.212  11.891  0.1313  0.2182  0.1230
17459W        W18323  27.865   8.555   9.344  0.1437 -0.1232  0.0951
17460W        W18324  23.276  18.401  29.108 -0.1316  0.1061  0.1195
17461W        W18325  11.929   1.893  15.956  0.2756  0.1710 -0.1898
17462W        W18326  15.960  28.334  17.967 -0.1442 -0.0356 -0.2278
17463W        W18327   5.964  11.713   1.654 -0.0265 -0.1207 -0.0605
17464W        W18328  28.266  11.262   5.640 -0.0874  0.1311  0.0601
17465W        W18329  10.086  17.040  26.435 -0.1078 -0.0261 -0.1368
17466W        W18330   2.050  15.684  17.451 -0.0318 -0.0833  0.0846
17467W        W18331  28.731   7.887  22.753 -0.0618 -0.0755 -0.1452
17468W        W18332  24.892   8.193  16.598 -0.1549  0.1718  0.0623
17469W        W18333  26.941   3.051   0.013 -0.1352  0.1149  0.2756
17470W        W18334   8.065  14.379  18.624  0.0500  0.3699 -0.1859
17471W        W18335  27.670  14.626  22.764 -0.0120 -0.3924 -0.0224
17472W        W18336  25.821  24.065   9.479  0.0955 -0.0757  0.0383
17473W        W18337   6.961  23.316  20.990 -0.1325  0.1607  0.1638
17474W        W18338  20.040  19.260  29.111 -0.2658  0.2281 -0.1321
17475W        W18339  25.465  18.596  18.278  0.3267 -0.4570  0.0111
17476W        W18340   3.003  19.883  11.866 -0.1453 -0.3541  0.0050
17477W        W18341  15.468  21.512  23.823 -0.2470 -0.1835  0.1105
17478W        W18342   7.487  28.617   7.916 -0.0241  0.0668  0.3427
17479W        W18343   7.645  14.548   5.441 -0.1030 -0.1572 -0.2775
17480W        W18344   8.169  24.801   2.731 -0.1519 -0.1255 -0.3143
17481W        W18345  15.840  25.729   4.632  0.3867 -0.1079  0.0983
17482W        W18346  19.463   3.632   9.669 -0.0187 -0.1405 -0.0427
17483W        W18347   0.927   6.656  18.884  0.0150  0.0016  0.1450
17484W        W18348  13.642   6.954   8.155  0.0512  0.0968 -0.0654
17485W        W18349  22.084  14.030  24.629  0.3036  0.2804 -0.2322
17486W        W18350   1.910  13.866   4.792  0.2695  0.0982 -0.2877
17487W        W18351  10.753  26.713  22.515 -0.2145 -0.3293  0.1957
17488W        W18352  16.881   8.771   6.207 -0.2119  0.1639 -0.2088
17489W        W18353   7.188  16.921  19.590 -0.1673 -0.1501  0.0115
17490W        W18354  23.303  13.883  17.126 -0.1720 -0.1341  0.2533
17491W        W18355  13.917  24.969  22.343  0.3148 -0.2680 -0.0380
17492W        W18356  18.018  17.036  16.823  0.0107 -0.0222  0.0924
17493W        W18357  16.085   6.289   4.440 -0.0062  0.1995 -0.3762
17494W        W18358  19.675  20.619   7.172  0.2564 -0.3779 -0.0809
17495W        W18359  25.835  21.785   8.578 -0.1408 -0.2078  0.1779
17496W        W18360  25.559  24.745  10.077  0.0854  0.0650  0.1417
17497W        W18361  21.572  22.377   6.808  0.3762  0.2614  0.0590
17498W        W18362   7.603  28.925  12.426  0.2659 -0.0546  0.1805
17499W        W18363  24.933   5.172   9.423 -0.1297 -0.1215  0.0866
17500W        W18364  22.545  19.175   8.688 -0.2512 -0.1494  0.0684
17501W        W18365   2.277  16.313  11.167  0.0382  0.2146  0.2452
17502W        W18366  25.121   9.983   2.642  0.0307  0.1032  0.1265
17503W        W18367   0.412  20.982   1.827 -0.2525 -0.1808  0.1236
17504W        W18368  23.713  15.228  21.991  0.2828 -0.2355  0.0216
17505W        W18369  26.821  14.122  12.497  0.1200  0.0651  0.1270
17506W        W18370   0.255  17.607  12.215 -0.4978  0.0539  0.1323
17507W        W18371  12.469  18.928   9.792 -0.1244  0.0560  0.0611
17508W        W18372   0.712  13.652   7.300 -0.2068 -0.0216  0.0895
17509W        W18373   9.501  13.451  12.823 -0.2107 -0.0023 -0.3890
17510W        W18374   5.948  12.353  23.011 -0.2965 -0.0760  0.4031
17511W        W18375  14.896  14.627  18.190  0.2884 -0.0636  0.3255
17512W        W18376  20.658  14.701   9.773  0.0781  0.1308 -0.0575
17513W        W18377  25.856  22.814  13.345 -0.0399 -0.1119  0.0743
17514W        W18378   0.879   9.265   5.584 -0.4413 -0.0287  0.1442
17515W        W18379  21.933   6.151  14.984 -0.1259  0.1843 -0.0862
17516W        W18380  14.352  20.179  12.061 -0.2370  0.0299  0.2338
17517W        W18381  25.915   3.022   8.044 -0.0456  0.0223 -0.2282
17518W        W18382  26.539  17.639  12.173  0.3269 -0.3193 -0.1979
17519W        W18383   8.337  13.726   1.184 -0.0763  0.2492 -0.0305
17520W        W18384   3.117  10.601  27.515 -0.2136 -0.2389  0.0853
17521W        W18385   1.707   8.165   7.235  0.1672  0.0465 -0.1507
17522W        W18386   8.272  26.451   5.245 -0.1072 -0.0228  0.1245
17523W        W18387  18.325  18.358   8.643 -0.0475  0.1030 -0.3188
17524W        W18388   1.127  16.461  26.254  0.0206  0.1904 -0.1433
17525W        W18389  27.872  16.101  17.921 -0.0091 -0.0612 -0.1302
17526W        W18390  11.566  10.095  19.451  0.0539 -0.1395  0.2162
17527W        W18391   3.745   1.412   8.220  0.0079 -0.1015  0.0059
17528W        W18392  12.938  26.733   7.178 -0.0804  0.2986 -0.2702
17529W        W18393  24.593  14.543  13.982  0.2215 -0.1214 -0.1690
17530W        W18394  22.605   4.941  13.459  0.1084 -0.2368 -0.0245
17531W        W18395  23.905  15.407  12.366  0.0746  0.2207 -0.0215
17532W        W18396   3.724  23.799  25.637 -0.1333 -0.1205  0.1457
17533W        W18397  10.512  23.169  23.459 -0.1798 -0.0797  0.0652
17534W        W18398  21.191  29.085  23.129 -0.0991 -0.0089  0.4151
17535W        W18399   9.796   3.559  27.114 -0.0748  0.1404  0.0178
17536W        W18400   8.791  17.101   7.769  0.5248 -0.0821  0.5585
17537W        W18401   4.340   5.509   4.800 -0.0394 -0.1539 -0.0641
17538W        W18402   5.877   2.246  25.132  0.0901  0.0681  0.0389
17539W        W18403   5.362  21.081   1.882 -0.2105 -0.2146  0.1145
17540W        W18404  11.845   1.889   5.419 -0.0469  0.1688  0.2312
17541W        W18405  27.727   7.409  12.229 -0.0367 -0.2382  0.1600
17542W        W18406   5.977   3.141  22.350  0.1603 -0.0076 -0.0838
17543W        W18407  28.240   2.917   8.682 -0.1681 -0.0142  0.1970
17544W        W18408  12.813   7.486  19.128 -0.0591 -0.1057  0.1253
17545W        W18409  18.879  20.664  11.746  0.0404 -0.1829 -0.0005
17546W        W18410  29.138  13.688  24.623 -0.2149 -0.0571 -0.4183
17547W        W18411   7.923  21.178  14.122 -0.2187  0.0308  0.0354
17548W        W18412  28.230  12.656  10.401  0.1865  0.1161 -0.0790
17549W        W18413   6.024  26.396  18.928 -0.0365  0.1747 -0.0705
17550W        W18414  23.158  17.843   8.665  0.2696 -0.0842 -0.0352
17551W        W18415  13.249   6.708  17.430  0.3465  0.2845  0.0175
17552W        W18416  10.024  10.668  27.684 -0.0715  0.0621 -0.1633
17553W        W18417  10.426   9.865   8.286  0.0324 -0.3153 -0.0151
17554W        W18418   6.862   9.769  17.914 -0.1847  0.1171 -0.0995
17555W        W18419  25.746  15.589  28.186  0.2067 -0.2695  0.1444
17556W        W18420  26.559  21.016  22.037  0.1770  0.3078 -0.1308
17557W        W18421  11.931  26.070  14.272  0.2101 -0.1220 -0.1085
17558W        W18422  22.894  27.089  14.497  0.2363  0.0802 -0.1503
17559W        W18423  16.392   3.847  24.957  0.0200 -0.0924 -0.1095
17560W        W18424  12.374  11.382  22.538 -0.0288 -0.0867  0.2410
17561W        W18425   6.630   1.531  10.866  0.0137 -0.1299 -0.1212
17562W        W18426   3.017  19.056  13.146 -0.1078  0.1162 -0.1054
17563W        W18427  19.410   3.994   0.583 -0.0256 -0.4822 -0.0068
17564W        W18428  15.079  18.296  21.561 -0.0601 -0.2134 -0.0269
17565W        W18429   9.293  22.105  21.796 -0.2583 -0.2583 -0.2589
17566W        W18430   2.901   5.805  13.208  0.1351 -0.1775  0.0254
17567W        W18431  26.807  24.355  11.064 -0.1887 -0.0525  0.2060
17568W        W18432  18.614  16.375  26.793  0.0152  0.1957 -0.0773
17569W        W18433  21.160   0.852  10.185 -0.1733 -0.1215 -0.0727
17570W        W18434  21.490  11.013   8.973 -0.0587 -0.0926  0.0096
17571W        W18435  26.227  19.359  17.564 -0.1363 -0.2161  0.0934
17572W        W18436  12.203   2.140  10.567 -0.2023 -0.1293 -0.0701
17573W        W18437  16.693  26.475  12.445  0.1808  0.1838  0.0221
17574W        W18438   0.474  24.925   5.573  0.2249  0.0186  0.0437
17575W        W18439   1.556   4.950   5.325  0.1189 -0.1426  0.2800
17576W        W18440   8.122   2.806   5.616  0.0839 -0.0298 -0.2654
17577W        W18441   5.719  23.727  19.474  0.1611  0.1396  0.1244
17578W        W18442  19.567  19.048  13.720  0.0418 -0.1991  0.0355
17579W        W18443   3.742  17.916   9.512  0.3808 -0.0728 -0.0041
17580W        W18444   0.205  16.899  15.206 -0.0985  0.2141 -0.2384
17581W        W18445  23.414  17.066  24.840  0.3763 -0.0758  0.2159
17582W        W18446  27.978  20.611  28.050 -0.3673  0.0257 -0.0548
17583W        W18447  15.088  22.917  13.052 -0.1728 -0.1198 -0.0304
17584W        W18448  22.819  11.471  13.777 -0.2717  0.1688  0.0392
17585W        W18449   5.769  21.728  23.179  0.0912 -0.0266  0.2155
17586W        W18450  12.497   4.169  17.319 -0.3582  0.3413 -0.1709
17587W        W18451   9.023   2.455  19.093  0.2152 -0.0537  0.0436
17588W        W18452   8.553  20.117  17.541  0.0236 -0.0584  0.3468
17589W        W18453   8.484  27.310  22.126  0.0336 -0.4595  0.0486
17590W        W18454  13.881  17.413  22.897  0.3190 -0.5235 -0.0267
17591W        W18455  24.401  23.882  11.742 -0.3551 -0.3718 -0.1468
17592W        W18456  18.244  22.245  23.327 -0.1123  0.2072  0.3215
17593W        W18457   7.115  28.358   4.357  0.2069  0.1645  0.0249
17594W        W18458  20.908  16.388   5.210  0.0378 -0.0506  0.0144
17595W        W18459   3.325  15.518  14.162 -0.0563 -0.0406  0.0795
17596W        W18460  23.741   0.573  15.257  0.1043 -0.2101  0.0384
17597W        W18461   4.236  18.892   9.310 -0.1426  0.1225  0.1131
17598W        W18462  11.747   0.468  27.557 -0.1504 -0.1916 -0.5991
17599W        W18463   4.102   3.697   9.112  0.1708  0.1850  0.1153
17600W        W18464  14.495  17.839  17.235  0.1246  0.1056  0.0546
17601W        W18465  13.495   5.874  17.643 -0.0529  0.1169 -0.0209
17602W        W18466  11.156  16.633  23.486 -0.3386  0.0595 -0.0760
17603W        W18467  14.146  20.740   1.636 -0.1678 -0.1310  0.1996
17604W        W18468  10.487  26.906  15.684  0.0762  0.0531  0.1220
17605W        W18469   1.627  12.602  18.492 -0.2004 -0.0782 -0.1558
17606W        W18470   6.177  15.427  17.973 -0.3400  0.2084 -0.1107
17607W        W18471   4.543   4.309   0.119  0.0336 -0.0765  0.0944
17608W        W18472  14.672  21.182  28.068 -0.2559 -0.0618 -0.5672
17609W        W18473  28.677  17.678  16.503  0.0062 -0.0261  0.0987
17610W        W18474  24.148   7.104  26.144  0.1759  0.2041  0.0508
17611W        W18475  11.840  20.784  16.444  0.0490 -0.1450 -0.1693
17612W        W18476  24.423  21.132  29.041  0.2170  0.1012 -0.1099
17613W        W18477   2.598   2.587   7.766 -0.3306  0.0767  0.1957
17614W        W18478   0.982  25.892  15.275  0.0083  0.3432  0.2395
17615W        W18479   4.192   6.900  25.675  0.1004  0.3699  0.2181
17616W        W18480   1.587  24.925  11.344  0.1595  0.0873 -0.0631
17617W        W18481  15.693   4.700  14.134 -0.1289  0.0404 -0.0894
17618W        W18482  16.790  16.491  14.491  0.1256 -0.0030 -0.1505
17619W        W18483   2.342  18.378  21.720  0.0509  0.0195  0.0724
17620W        W18484  12.230  18.340   5.755 -0.0864 -0.1540 -0.0078
17621W        W18485   7.877  18.820   1.010  0.0408  0.2590  0.2544
17622W        W18486  11.500   3.593   4.138  0.1282  0.3873  0.1330
17623W        W18487  26.698  14.148  26.221  0.1657  0.0217 -0.2424
17624W        W18488  27.379  15.386  13.028 -0.2476 -0.2121 -0.3260
17625W        W18489  24.134  16.222  21.437  0.1144  0.1238 -0.1295
17626W        W18490   8.525   7.125   3.489  0.0911  0.1589  0.0185
17627W        W18491  27.800  16.568  24.042  0.0589 -0.1815 -0.0153
17628W        W18492  28.551  28.559   0.678 -0.1587  0.1327  0.1610
17629W        W18493   0.127  25.185   1.264  0.1725  0.0265 -0.0635
17630W        W18494   2.056  24.700   3.370  0.0681  0.2191 -0.1603
17631W        W18495  18.708  24.278  13.770 -0.1456 -0.0861  0.2876
17632W        W18496   4.700  29.089  16.269  0.0122  0.1570 -0.0017
17633W        W18497  12.235  11.913   6.096 -0.0022  0.0224 -0.0873
17634W        W18498  12.384  27.976   0.330  0.1380  0.2377  0.2047
17635W        W18499  28.991   4.457  14.889  0.3272  0.0981  0.1626
17636W        W18500   1.658  19.162  13.914  0.0200  0.1833 -0.3140
17637W        W18501   6.709  23.251  13.108 -0.0423  0.0982  0.5534
17638W        W18502  20.234  11.812   9.413  0.0507 -0.1847 -0.0743
17639W        W18503  22.339   8.616  17.741  0.1112  0.1243  0.0537
17640W        W18504   2.177   1.558  20.004  0.0741  0.2869  0.1128
17641W        W18505   9.835   5.149  17.306 -0.1751  0.2748 -0.3364
17642W        W18506  19.800  20.482   6.533 -0.0196  0.1327  0.1657
17643W        W18507  27.229  13.159  22.089  0.0756  0.1295  0.4310
17644W        W18508   8.702   8.662  10.292  0.1930 -0.2132  0.1249
17645W        W18509   8.591   3.405   9.211  0.0201 -0.1447 -0.1844
17646W        W18510   0.524   0.146  23.379  0.1117  0.1204  0.3397
17647W        W18511  12.987  19.935  18.190  0.2744 -0.1479 -0.1559
17648W        W18512  27.966  15.897  19.182 -0.4004 -0.1983 -0.0284
17649W        W18513  20.142  15.095  16.063 -0.1291 -0.1003 -0.1065
17650W        W18514  27.451  21.651  20.709 -0.0964 -0.0738 -0.2631
17651W        W18515  26.056   8.538   8.894 -0.1374  0.0866  0.1050
17652W        W18516   4.372  28.828   1.499  0.1419  0.0353 -0.1170
17653W        W18517   5.182  21.247   3.983  0.2926 -0.0595  0.0935
17654W        W18518  14.633  18.644  18.998 -0.0899  0.0626  0.0087
17655W        W18519   0.860  20.866   4.937 -0.2395  0.0770 -0.2967
17656W        W18520   7.763  25.848   0.946 -0.0636  0.3490  0.0842
17657W        W18521  13.008  21.609  24.746  0.1835 -0.0988  0.2681
17658W        W18522  28.780   1.274   7.255 -0.2870 -0.1240 -0.0189
17659W        W18523   9.724   9.559   3.705 -0.0599  0.0493  0.0494
17660W        W18524  26.610   4.065   4.939  0.4249  0.2201 -0.0908
17661W        W18525  26.864  12.619  28.925 -0.1822 -0.0332  0.1655
17662W        W18526  27.139  10.848  26.218  0.1040 -0.0570  0.0107
17663W        W18527  12.805  25.971   6.155  0.4944 -0.3068  0.0836
17664W        W18528   6.942  28.121  14.580 -0.0686 -0.3416 -0.1897
17665W        W18529  23.357  21.465  25.659 -0.0664 -0.1183 -0.1004
17666W        W18530   1.200  13.757  20.081 -0.1550 -0.0499 -0.3498
17667W        W18531  13.182  15.799  18.525 -0.1451 -0.2432  0.0858
17668W        W18532  25.744   5.411   1.503 -0.1878 -0.0603 -0.1615
17669W        W18533  27.940   8.582  28.865  0.2079 -0.2190  0.0990
17670W        W18534  20.136  17.205  17.163  0.1649  0.2238 -0.0635
17671W        W18535  19.077  26.754  10.748  0.0882  0.0170  0.0156
17672W        W18536   8.749  26.926  23.213  0.2446  0.1044  0.2463
17673W        W18537   4.497   2.106  14.657 -0.3235  0.0140  0.0503
17674W        W18538  10.854  17.658  21.348 -0.3895  0.2058 -0.0032
17675W        W18539  19.561  28.420   8.066 -0.1252 -0.3452  0.1749
17676W        W18540   2.697  15.788  16.381 -0.1968  0.1927 -0.0715
17677W        W18541  16.597  17.011  16.235 -0.1876  0.0340  0.1979
17678W        W18542  28.183  28.267  10.016 -0.1939 -0.1706  0.2195
17679W        W18543   0.396  12.300  11.490  0.2218 -0.0268 -0.0857
17680W        W18544   6.603  24.419  12.214 -0.2083 -0.1358  0.0629
17681W        W18545   3.418   8.370  24.815 -0.1999 -0.0396  0.4738
17682W        W18546  15.042  18.923   7.682  0.0719 -0.1274 -0.3342
17683W        W18547  28.312  17.840   8.271 -0.6167 -0.0955 -0.0137
17684W        W18548   0.658  18.766   9.820  0.0964  0.2196  0.0593
17685W        W18549  21.156  25.928  21.202  0.3738  0.1445 -0.1658
17686W        W18550   5.533  10.861   0.542 -0.3286 -0.0963 -0.0694
17687W        W18551   1.232  11.208  17.805  0.0052 -0.2800  0.1432
17688W        W18552  27.686   6.273   4.126  0.0122  0.0464  0.2974
17689W        W18553   5.238   8.419  21.356  0.1645  0.0789 -0.1683
17690W        W18554  19.952  11.295  16.020 -0.1810 -0.0918  0.2213
17691W        W18555   9.992   6.348  24.885 -0.0631 -0.1977 -0.0943
17692W        W18556   5.955  10.063  17.627 -0.1705  0.0860  0.2850
17693W        W18557   7.194  10.928  14.788 -0.1197  0.0788 -0.0723
17694W        W18558   4.340   5.104  21.917  0.0668 -0.0976 -0.3015
17695W        W18559  24.455  19.053  15.291 -0.0770  0.0420  0.0511
17696W        W18560  20.650  15.246  26.377 -0.1063  0.4041 -0.0318
17697W        W18561   5.634   4.870  24.089 -0.0767 -0.0247 -0.1721
17698W        W18562  13.768   5.649  20.156  0.0281 -0.0175  0.0729
17699W        W18563  26.311  13.984  26.550  0.0345 -0.3299 -0.3490
17700W        W18564  20.256   3.025   0.321 -0.0618 -0.4991  0.1927
17701W        W18565  28.814  16.923  15.304 -0.0143 -0.1391 -0.0500
17702W        W18566  26.007  18.121  21.498  0.1009 -0.0027 -0.0570
17703W        W18567  28.713  13.906   1.403  0.2466 -0.2000  0.0864
17704W        W18568  28.557  22.508  21.013 -0.0769  0.0232 -0.0140
17705W        W18569  26.744   6.782  26.458  0.0493  0.1844  0.1640
17706W        W18570   6.176   8.393  28.156  0.2283 -0.0144 -0.2023
17707W        W18571   5.896  27.687  19.110 -0.0119 -0.1051  0.2282
17708W        W18572  18.964  23.154  16.177 -0.2399  0.0506 -0.1164
17709W        W18573  13.979  18.657   7.809  0.0833 -0.2185 -0.0395
17710W        W18574  23.296   6.243   0.742 -0.0247 -0.2908 -0.0431
17711W        W18575   2.830  28.994  26.799  0.3513 -0.0783  0.4568
17712W        W18576  11.325  24.230  25.944  0.2131 -0.0886 -0.0469
17713W        W18577  26.259   0.133  19.260 -0.0901  0.3148  0.0369
17714W        W18578  11.307   6.416   7.148 -0.1832  0.1719 -0.0392
17715W        W18579   8.500  10.347  16.840 -0.2441 -0.1155  0.1435
17716W        W18580   0.524  21.192  28.168 -0.0302  0.1961 -0.1474
17717W        W18581  25.019   6.882   8.498  0.1307 -0.1976 -0.0590
17718W        W18582  24.174  13.636  13.053 -0.0131  0.0078  0.2297
17719W        W18583  19.977   4.885   6.632  0.0842  0.0170  0.0769
17720W        W18584  27.765  22.562  21.074 -0.1643  0.0443 -0.2742
17721W        W18585   2.587  12.467  28.070  0.0505  0.1844  0.0299
17722W        W18586  25.305  24.177   3.303  0.0728 -0.1867 -0.3515
17723W        W18587   6.992  20.864  28.818  0.2648 -0.0558 -0.0563
17724W        W18588   4.926  25.527  17.159 -0.1254  0.0694 -0.2125
17725W        W18589   5.379  25.587  10.396  0.1449  0.1195 -0.2986
17726W        W18590  11.877  12.746   5.129 -0.3508  0.1288 -0.0867
17727W        W18591  19.022  11.750  11.903 -0.0191  0.1790  0.3061
17728W        W18592   9.086   1.542  17.230  0.0011  0.2469  0.1058
17729W        W18593   9.747  21.610   4.510  0.0920 -0.0726  0.3442
17730W        W18594  22.015  28.629  23.271  0.0290 -0.2017  0.0064
17731W        W18595   6.564  17.795  11.190 -0.0070  0.0477  0.3325
17732W        W18596   7.126  23.860  14.265 -0.2283 -0.0250 -0.1043
17733W        W18597  26.293   2.500  24.507 -0.2650 -0.1440 -0.1855
17734W        W18598   1.145  11.657  22.062  0.1623 -0.1493 -0.1456
17735W        W18599  19.995   5.640  20.318  0.1861 -0.0962  0.1415
17736W        W18600  27.700  14.823   4.430  0.0238 -0.0698  0.0258
17737W        W18601   3.864   6.550  11.012  0.0155  0.0213 -0.1081
17738W        W18602   4.366  17.772  11.263 -0.2761  0.0263 -0.0921
17739W        W18603  18.689  13.490  11.594 -0.5185 -0.0004 -0.0202
17740W        W18604  13.760  16.775   1.489  0.2548 -0.1017  0.0391
17741W        W18605  28.814  21.918  20.955 -0.1536  0.2725  0.2664
17742W        W18606  21.118   2.370   2.261  0.1573 -0.0642  0.1450
17743W        W18607  16.417  21.525   8.194 -0.0860 -0.1352  0.2896
17744W        W18608  22.784  19.049   5.757  0.0040 -0.2223 -0.1288
17745W        W18609  24.763  18.133  25.505 -0.1152 -0.0297 -0.0085
17746W        W18610  10.204   0.828   8.095 -0.0971 -0.1675  0.1314
17747W        W18611  14.360   5.552   3.468  0.1167 -0.2260  0.0401
17748W        W18612   7.114  20.165   3.349  0.2707  0.1767 -0.0240
17749W        W18613   1.386  26.465  10.120 -0.0024  0.0472  0.2633
17750W        W18614   7.921  10.421  25.330 -0.1071  0.1345  0.3709
17751W        W18615  16.580   8.577  19.079 -0.0874  0.3130  0.0810
17752W        W18616   2.301  16.290   9.338  0.3206  0.0342  0.3603
17753W        W18617  27.310  22.370   7.244  0.2904  0.1643 -0.0773
17754W        W18618  24.537   5.656  14.037  0.4952 -0.1073  0.2362
17755W        W18619  11.877  28.708  16.105  0.0761  0.1569 -0.3020
17756W        W18620   0.364  20.757   1.371 -0.0306  0.0497  0.1637
17757W        W18621  24.483  21.294  15.468  0.3710  0.1007  0.4646
17758W        W18622  24.310  26.723   1.764  0.0173  0.1874  0.0714
17759W        W18623  20.786  28.741  16.508  0.3440 -0.0717 -0.0264
17760W        W18624  14.396  22.350  10.553  0.2655 -0.1789 -0.0849
17761W        W18625  24.857  21.031  11.930  0.2045  0.0590  0.0039
17762W        W18626  18.379  20.600  21.773  0.2840  0.1462  0.1607
17763W        W18627   1.671  20.042  25.052 -0.1585 -0.0341 -0.0628
17764W        W18628  19.458  20.365   6.193  0.0840  0.3227  0.1079
17765W        W18629  11.167  12.863   3.865 -0.0299 -0.2409 -0.0611
17766W        W18630   2.387  17.220   3.824  0.1884 -0.1784  0.1702
17767W        W18631   7.689  27.322   7.109 -0.1374  0.1246 -0.2924
17768W        W18632  23.199   3.114  17.568  0.1393 -0.0601 -0.2364
17769W        W18633   2.866  10.256  12.484  0.2054  0.2678  0.2183
17770W        W18634  26.639  24.635   0.776  0.0559  0.1774 -0.0466
17771W        W18635   3.945   3.095  24.136 -0.5251  0.1479 -0.0358
17772W        W18636  10.585  26.693  18.749 -0.0706 -0.1055 -0.0247
17773W        W18637  20.893  11.065   0.326  0.1534 -0.1020 -0.0272
17774W        W18638  25.418   9.871  26.677  0.0858 -0.3485 -0.4784
17775W        W18639  21.413  10.885   7.329  0.0690 -0.3171 -0.4217
17776W        W18640   2.269  22.746   3.503 -0.0657 -0.2938  0.1800
17777W        W18641   8.575  17.623  23.035 -0.0289 -0.4276 -0.4441
17778W        W18642  28.840   2.229  24.373  0.1146 -0.0133 -0.2920
17779W        W18643   8.420   5.100   7.569  0.0702 -0.0073  0.1467
17780W        W18644  27.229   9.467  23.127 -0.2386  0.2181 -0.0588
17781W        W18645  25.028  10.702  10.358 -0.1316 -0.2987 -0.3866
17782W        W18646   1.010  23.201  14.903 -0.1615 -0.0835  0.2579
17783W        W18647  24.742  22.484  11.824 -0.1963  0.1072 -0.0410
17784W        W18648  17.016  25.643  18.410  0.2202  0.0168  0.0793
17785W        W18649  18.687  25.001  12.563 -0.0807  0.1775  0.1850
17786W        W18650   8.151  10.656   6.009 -0.3221 -0.3187  0.0739
17787W        W18651  28.363  13.017  15.057  0.1612  0.1156  0.0224
17788W        W18652  23.986  11.252   7.528  0.2630 -0.0514 -0.0047
17789W        W18653   0.534  22.528  21.972  0.0594  0.1093  0.1599
17790W        W18654  18.380  17.619   3.174  0.1693  0.0295  0.2573
17791W        W18655  13.943  22.932  11.481 -0.4313 -0.3505  0.1653
17792W        W18656  23.276  26.815   4.026 -0.1264  0.1400 -0.0588
17793W        W18657   8.110  20.133  20.374 -0.1805  0.0696 -0.1998
17794W        W18658   3.554   9.691   9.605 -0.4533 -0.0243  0.3839
17795W        W18659  25.193  25.683  20.547 -0.1368 -0.0282 -0.1021
17796W        W18660  16.652  28.629   3.619 -0.1857 -0.1523  0.3112
17797W        W18661   4.815  16.062  12.798  0.2084 -0.0078  0.1536
17798W        W18662   5.551  22.627  16.230 -0.3578  0.0282 -0.2230
17799W        W18663  15.834  15.786   7.866  0.1108 -0.0770  0.0997
17800W        W18664   2.343  12.385  25.261 -0.1825 -0.1878 -0.0089
17801W        W18665  11.583  18.706   1.566 -0.1159 -0.0147 -0.0699
17802W        W18666  14.536   4.860  26.399  0.1543  0.2958  0.1023
17803W        W18667   9.946   0.353   9.134  0.2057  0.1035  0.2555
17804W        W18668  18.197  15.378  24.596 -0.0164 -0.2288 -0.4522
17805W        W18669  24.025  17.027  23.501 -0.2611  0.0379 -0.1936
17806W        W18670  17.072  27.225  25.553 -0.3391 -0.1133  0.0222
17807W        W18671   4.488   2.087  18.279  0.3093 -0.3062  0.1740
17808W        W18672   9.352   5.739  12.745  0.0931  0.0611  0.0647
17809W        W18673   2.459  20.901  17.294 -0.1369 -0.1411 -0.0553
17810W        W18674  21.152  17.220  25.679  0.4271  0.3713 -0.1536
17811W        W18675   8.066  18.608   5.306 -0.2237  0.0436 -0.4015
17812W        W18676   6.668  14.348   9.213  0.2763 -0.1784  0.0566
17813W        W18677  14.035  24.062  17.507  0.3945 -0.2635  0.2220
17814W        W18678  11.173  19.437  12.187  0.0012 -0.0197 -0.1000
17815W        W18679  23.726  20.459  25.645  0.1150 -0.1121 -0.2185
17816W        W18680   0.752  15.805  10.619 -0.1033  0.2694  0.0549
17817W        W18681   0.623   6.707  18.384  0.1433  0.1467  0.1292
17818W        W18682   6.530  11.689  13.035  0.1504  0.0659 -0.2136
17819W        W18683  14.259  21.565  20.571  0.0059 -0.0669  0.0184
17820W        W18684  26.613  13.741  13.443  0.1555  0.0893 -0.0920
17821W        W18685  24.161  21.508  25.132 -0.2044 -0.3063  0.0072
17822W        W18686  28.456  15.009  17.933  0.1693 -0.0342  0.0368
17823W        W18687   8.893  21.288  14.932 -0.1332  0.1205 -0.0803
17824W        W18688   5.185  11.563   0.003  0.0925 -0.2223 -0.0513
17825W        W18689   0.792  11.826  28.568  0.0147  0.1180 -0.3146
17826W        W18690   9.352  28.348  22.216  0.0047 -0.1259 -0.2082
17827W        W18691  20.515   0.625  18.859 -0.0076  0.1201  0.2765
17828W        W18692  24.937  17.881  18.133 -0.1600 -0.1383  0.3439
17829W        W18693  26.146  23.813   1.948 -0.2519  0.3074  0.1106
17830W        W18694   6.318  16.448  15.686  0.0608 -0.1114  0.1597
17831W        W18695  14.094   1.271  14.485 -0.0924  0.0593 -0.1726
17832W        W18696  13.596  24.611  13.108  0.5091 -0.1930 -0.1437
17833W        W18697  13.432  15.799  16.200 -0.2375 -0.3017  0.3198
17834W        W18698  17.267  20.720   0.868 -0.1702 -0.1863  0.1410
17835W        W18699  15.216  16.788   9.067  0.0051 -0.0565 -0.1925
17836W        W18700   6.592  15.669  10.632 -0.0917 -0.0154 -0.0416
17837W        W18701   4.455   8.808   2.849 -0.0823  0.1434 -0.1407
17838W        W18702   3.178   1.835   5.742  0.1366  0.1264 -0.0901
17839W        W18703  27.774   2.074  28.597  0.1358  0.1524  0.1479
17840W        W18704  14.865  24.681   0.474 -0.0734  0.1179 -0.0260
17841W        W18705  14.086   1.981  27.128 -0.0820 -0.0868 -0.1305
17842W        W18706  24.495  22.482  29.073 -0.2229 -0.1361  0.0463
17843W        W18707   4.090  19.577  13.264  0.0747 -0.1277  0.2537
17844W        W18708  10.416  10.960  17.175 -0.0003 -0.3810 -0.2343
17845W        W18709  11.572   3.086   8.395  0.0516  0.1443 -0.0905
17846W        W18710  22.775  24.057  12.293  0.3467 -0.3302 -0.3925
17847W        W18711  21.640   8.243  11.100 -0.1482 -0.2047 -0.0800
17848W        W18712  28.662   5.434   2.011 -0.1769 -0.1355 -0.1572
17849W        W18713  14.564  20.555   4.306  0.2073  0.1930 -0.4307
17850W        W18714   1.502   1.245  18.707 -0.0224 -0.0370 -0.1921
17851W        W18715  11.729   1.186   8.577 -0.5671 -0.0529  0.1833
17852W        W18716   9.839   5.374  14.118 -0.0423 -0.0997  0.1033
17853W        W18717  14.641   7.772  19.288 -0.0839  0.4147  0.1857
17854W        W18718   4.222  16.953   3.341 -0.0328  0.0891  0.0199
17855W        W18719   7.744  16.022  23.165  0.0064  0.3088 -0.2491
17856W        W18720  15.262   0.282  16.459  0.3156 -0.0903  0.0912
17857W        W18721  15.340  19.563  23.194  0.1675  0.0501 -0.1201
17858W        W18722  23.673  18.952  22.213 -0.0229 -0.3024  0.4408
17859W        W18723  18.150   7.976  28.240 -0.2801 -0.1667 -0.0661
17860W        W18724   3.064  11.707  23.120 -0.1505 -0.2178  0.2184
17861W        W18725  24.717  10.283  26.004 -0.2116 -0.1423 -0.2976
17862W        W18726   4.068  27.268  11.164  0.2761  0.2255  0.1411
17863W        W18727  22.730   1.102  22.771 -0.0917  0.0945  0.2216
17864W        W18728   6.391   2.664   8.244  0.1184 -0.1249  0.3934
17865W        W18729   1.947   0.211   4.566 -0.1621  0.0021 -0.0798
17866W        W18730  24.588  10.001   3.640  0.0809  0.5370  0.0887
17867W        W18731  20.917  20.467  18.334  0.2498 -0.1856  0.1330
17868W        W18732  10.159  19.248  28.982  0.3730 -0.0533 -0.0112
17869W        W18733  12.442  13.921  17.798 -0.2040  0.0858  0.0127
17870W        W18734   3.354  13.016  14.306 -0.2738 -0.1534  0.1656
17871W        W18735   2.873  26.970   3.569 -0.0430  0.0350 -0.0781
17872W        W18736  12.640   0.618  21.264 -0.1243 -0.2034  0.1205
17873W        W18737  22.632  20.310  28.162 -0.1597 -0.0311  0.0418
17874W        W18738   0.136  19.046  25.802 -0.2201  0.0839 -0.2403
17875W        W18739  13.399  10.816   2.560  0.0173 -0.1960 -0.2322
17876W        W18740   9.319   7.055  25.717  0.0734  0.0978  0.0497
17877W        W18741  25.029   4.700  12.500  0.1749  0.1922 -0.1431
17878W        W18742  28.556  13.717  26.887  0.0152 -0.0966  0.3927
17879W        W18743  26.471   5.719   4.834  0.0574 -0.0964 -0.0454
17880W        W18744  18.033  15.799  20.855  0.2602  0.1382  0.0040
17881W        W18745   0.969   5.436   1.039 -0.0329  0.0470 -0.2965
17882W        W18746  16.980  11.052   8.056 -0.0493 -0.0352  0.1672
17883W        W18747  28.760  14.291  26.211  0.0848  0.0865 -0.3881
17884W        W18748  25.394  28.519   6.075  0.1452 -0.1152 -0.1051
17885W        W18749  19.009   4.541  23.476 -0.0746 -0.2710  0.1842
17886W        W18750  25.677  15.161   0.841  0.2587  0.0988  0.0188
17887W        W18751  14.185  18.697  15.064 -0.1116  0.0815  0.1380
17888W        W18752   2.720  20.692  21.495 -0.1136  0.2995  0.1286
17889W        W18753  27.307  20.077  10.316 -0.3271  0.2420  0.0196
17890W        W18754  27.203  26.712  25.929  0.1565 -0.1877 -0.1076
17891W        W18755  14.303  29.055  15.019 -0.1466  0.2672  0.0395
17892W        W18756   1.877   9.534  10.030 -0.0496  0.1626  0.3334
17893W        W18757   8.657   3.111  25.453  0.2262 -0.0901 -0.4108
17894W        W18758  13.172   6.267   1.060  0.1933 -0.0994 -0.1495
17895W        W18759  19.391  10.437  25.263 -0.0020 -0.1758 -0.0493
17896W        W18760   6.301  15.898   6.794 -0.2357  0.2071 -0.0330
17897W        W18761   0.005  21.630  20.738 -0.1283  0.0714  0.3023
17898W        W18762   7.960  10.393  13.965 -0.1592  0.2047  0.0765
17899W        W18763  20.505   1.796   1.169 -0.0565  0.1134 -0.0440
17900W        W18764  20.203   0.262  11.284  0.0404  0.0045 -0.0006
17901W        W18765  27.450  28.532  16.600 -0.0100  0.0579 -0.2858
17902W        W18766  24.662  12.650  19.556 -0.0200 -0.3863  0.1335
17903W        W18767   1.736  15.740  12.391 -0.1085 -0.4103  0.0906
17904W        W18768  12.794  26.189   8.424 -0.2534 -0.1591  0.2469
17905W        W18769   7.201   8.410  19.024  0.5623 -0.2803 -0.2048
17906W        W18770  21.229  26.451  19.178  0.1625  0.1604 -0.1753
17907W        W18771  16.039  26.345  24.247 -0.1030 -0.0719 -0.0932
17908W        W18772   6.070  19.374  22.829 -0.0822  0.6357  0.2882
17909W        W18773   4.941  14.507  11.029 -0.0750 -0.1390 -0.3439
17910W        W18774  26.157  11.738  21.719 -0.2461  0.3402 -0.0454
17911W        W18775   1.491   3.456   1.638 -0.0314 -0.0032 -0.0922
17912W        W18776  22.243   7.152   3.159 -0.1239 -0.0711  0.1211
17913W        W18777  27.681  10.349  12.710  0.1740  0.0462  0.5055
17914W        W18778  20.059   9.487  16.138 -0.1171  0.2279 -0.1521
17915W        W18779  27.145   8.302  23.782  0.0332 -0.1928  0.2380
17916W        W18780   0.624  18.764  13.718  0.1142  0.0380  0.3884
17917W        W18781  15.544  17.543  26.427 -0.1799  0.0961 -0.1362
17918W        W18782   9.649  22.636  19.573  0.0418  0.1229  0.2148
17919W        W18783   1.252  25.101  23.166 -0.1511 -0.1029 -0.1509
17920W        W18784  16.893  17.006  10.244  0.0341  0.1033  0.0123
17921W        W18785   2.572  14.491   9.408 -0.1067  0.1507 -0.2664
17922W        W18786  24.711  26.688   0.153 -0.0253 -0.0934 -0.1702
17923W        W18787  21.187  26.314  27.969 -0.2308  0.0235 -0.0155
17924W        W18788   2.863  12.052  13.417 -0.0568 -0.0694 -0.3826
17925W        W18789  11.745  17.162   3.698  0.1648  0.0116  0.1092
17926W        W18790   7.240  22.565   7.388  0.3407 -0.2053 -0.0346
17927W        W18791  11.358  22.804   4.670  0.1167 -0.0497  0.0210
17928W        W18792  25.560  10.559  19.160  0.0841  0.3276  0.0622
17929W        W18793  17.940  13.502   8.785  0.0060 -0.1740  0.2124
17930W        W18794  27.160   0.173  26.672 -0.0797  0.0215  0.1296
17931W        W18795  20.662  14.492   3.648 -0.2378  0.0542  0.1455
17932W        W18796  27.887  20.370   6.037  0.0340  0.0005  0.1885
17933W        W18797   1.133  10.157  26.933  0.2403  0.0852 -0.1312
17934W        W18798   3.001  21.528   0.701 -0.3838  0.0293  0.1723
17935W        W18799   9.738  11.379  16.357 -0.0609  0.1097 -0.0795
17936W        W18800  21.836  12.553  26.353  0.1060  0.1009 -0.1989
17937W        W18801  15.151  27.590  13.547  0.1995 -0.3251  0.3675
17938W        W18802   2.452   7.024   9.648 -0.0047  0.0634 -0.0575
17939W        W18803   6.822  22.803  17.258  0.0481 -0.0265 -0.2144
17940W        W18804   9.123  28.026  25.360 -0.2023  0.2869 -0.0543
17941W        W18805  15.054  21.407  13.810  0.0105 -0.0857 -0.2360
17942W        W18806  24.866  13.653  13.511  0.0955 -0.0231 -0.0932
17943W        W18807  17.501  17.496   7.172 -0.1079  0.0550  0.0250
17944W        W18808  27.162  22.069  15.444  0.0552 -0.0210  0.3685
17945W        W18809   7.330  20.246   4.332 -0.3740  0.1373 -0.1206
17946W        W18810   2.282  24.312  11.546 -0.0795  0.0232 -0.0579
17947W        W18811   1.958  23.486  25.600 -0.3658 -0.1512  0.3717
17948W        W18812   2.011  21.397  19.015  0.3018 -0.2297  0.0309
17949W        W18813  17.003  17.018  11.520  0.0774 -0.1393  0.0581
17950W        W18814   9.379  18.024   4.169 -0.0172 -0.0492  0.1030
17951W        W18815   2.060  25.444  11.547 -0.1066  0.1050 -0.0788
17952W        W18816  21.450   5.925  13.518  0.0191  0.0273  0.0749
17953W        W18817  15.106  10.727   0.410 -0.4542  0.2091 -0.0360
17954W        W18818  19.521  11.963  14.770  0.0088 -0.1620 -0.0103
17955W        W18819  20.811   5.312  10.613  0.3395  0.2669 -0.0205
17956W        W18820  11.322  21.180  17.576 -0.0769 -0.1585  0.3173
17957W        W18821   3.997   1.590  14.673 -0.2853  0.1375  0.2289
17958W        W18822  29.137  23.879  22.308 -0.0992  0.2702 -0.0970
17959W        W18823  20.655  17.983  11.600 -0.0652 -0.0426  0.1885
17960W        W18824  19.177  27.813  19.789  0.2522  0.0169  0.2475
17961W        W18825  17.555  18.323  19.274  0.2254  0.0206 -0.2623
17962W        W18826  26.684  20.477   4.736 -0.0617 -0.2232 -0.2858
17963W        W18827  24.475  20.286  12.294  0.3258 -0.1222  0.0043
17964W        W18828  27.815  25.262   2.525  0.2009 -0.1291  0.0236
17965W        W18829   9.165   7.101   9.619 -0.0473  0.1038  0.0727
17966W        W18830   9.198   9.729  26.068 -0.2778 -0.1637 -0.0296
17967W        W18831   2.939  28.304   7.668  0.0366  0.1196 -0.0292
17968W        W18832  16.354  10.594  28.168 -0.3128  0.0343 -0.0175
17969W        W18833  10.228  11.657   2.323  0.2465 -0.2267 -0.0395
17970W        W18834  21.275   6.472  21.703 -0.1684  0.2994 -0.1646
17971W        W18835  17.990  28.979   2.951  0.0543 -0.1250  0.4202
17972W        W18836  22.757  26.032  21.490 -0.0573 -0.1260 -0.0435
17973W        W18837  20.909  14.070  23.603  0.1050  0.0715  0.1051
17974W        W18838   3.849   1.283  24.566 -0.1186  0.0359  0.0361
17975W        W18839  18.505  28.348  24.137 -0.4776 -0.4514  0.0237
17976W        W18840  11.795  17.776  21.094  0.2753  0.0385  0.3250
17977W        W18841  21.683  12.604   8.497 -0.1103 -0.0449  0.3016
17978W        W18842   5.353  21.572   8.697  0.1632  0.0226 -0.0671
17979W        W18843  21.870  24.391  16.477  0.0614  0.0836  0.0767
17980W        W18844   7.753  24.439  19.643 -0.1329 -0.0270 -0.2407
17981W        W18845  22.594  16.360  24.968 -0.0262 -0.1176  0.1284
17982W        W18846  15.689  13.424   2.035 -0.4905 -0.0152  0.0753
17983W        W18847  17.253  28.138  12.806 -0.0883  0.0253 -0.1100
17984W        W18848  15.626  15.913   5.277 -0.1820  0.0604 -0.0038
17985W        W18849   5.594  17.114  22.877  0.1749  0.2124 -0.1767
17986W        W18850  21.944  25.115   5.402  0.2159 -0.1223  0.0366
17987W        W18851  17.305  29.002  12.766 -0.1171  0.0818 -0.3065
17988W        W18852  11.057  15.411  13.960  0.2450 -0.0171  0.1229
17989W        W18853  19.719   2.611  13.439 -0.0467  0.0388  0.0390
17990W        W18854  19.904  16.233   3.818 -0.1749  0.0075 -0.0041
17991W        W18855  25.946  18.262  26.346  0.0197  0.1592 -0.2618
17992W        W18856  13.112  22.537  10.684  0.0798 -0.2163 -0.0077
17993W        W18857   9.274  21.592   3.077 -0.3709  0.0374  0.1396
17994W        W18858  19.042  20.961   5.277  0.0235 -0.0102 -0.3040
17995W        W18859   8.140  20.030  10.083  0.0332  0.1050 -0.0722
17996W        W18860  25.526   4.449  16.073  0.1174  0.0570 -0.0821
17997W        W18861   0.564  16.746   8.229 -0.0502 -0.1897  0.1928
17998W        W18862   2.425  15.240   1.717 -0.0129 -0.0838  0.3642
17999W        W18863   8.394  10.462  20.006 -0.1547  0.0646  0.1658
18000W        W18864  27.892  25.594  21.733 -0.0604 -0.1959  0.0253
18001W        W18865  15.126   3.200   0.290 -0.1135  0.0506 -0.0776
18002W        W18866   2.811   4.102   5.315  0.0341  0.2583 -0.4521
18003W        W18867   4.168  23.974   7.909  0.1598 -0.0260  0.0320
18004W        W18868   7.982   1.208   6.564  0.0102 -0.0601 -0.3164
18005W        W18869  17.058  24.772  19.700 -0.0096  0.1288  0.3128
18006W        W18870   5.820   2.079  14.152  0.0100  0.2115 -0.0322
18007W        W18871   1.667   2.462   7.846 -0.3482  0.1867 -0.1014
18008W        W18872  20.798  22.026  26.797  0.1221  0.3580  0.1571
18009W        W18873  15.972  21.873   2.586  0.0162  0.0391 -0.0717
18010W        W18874   4.470  17.104  16.780  0.1475  0.2591  0.0554
18011W        W18875   7.510  19.813   4.792 -0.2653  0.1758  0.3224
18012W        W18876   2.292  15.049   4.535  0.3260 -0.1442  0.0368
18013W        W18877   0.540  22.806   7.155 -0.0138 -0.2706 -0.1721
18014W        W18878  28.980   7.767   9.062 -0.0945 -0.0628  0.1738
18015W        W18879  12.592  21.788  19.238 -0.4750  0.3675 -0.0746
18016W        W18880   4.213  17.029  20.709  0.1761 -0.4173 -0.0911
18017W        W18881   4.236  21.248  23.067  0.1188  0.1978 -0.2083
18018W        W18882   1.377   7.720  19.360  0.1267  0.0893 -0.0506
18019W        W18883   6.013  27.779  15.901  0.1500 -0.0347  0.1571
18020W        W18884  26.569  19.227  12.999 -0.1993 -0.1815 -0.2850
18021W        W18885  15.150  27.311   1.123  0.1361 -0.0277  0.0428
18022W        W18886  24.256  21.844  14.130 -0.3398  0.5840  0.1451
18023W        W18887  10.030  10.908  10.733  0.0141 -0.1988 -0.1569
18024W        W18888  17.562  13.701   3.187 -0.2036  0.3314  0.1251
18025W        W18889   8.478  19.928  12.727 -0.1390  0.0970 -0.1150
18026W        W18890  11.280  12.145   4.329 -0.1680 -0.1275 -0.0128
18027W        W18891   9.303   1.791   5.752  0.1250  0.0138 -0.4332
18028W        W18892   0.192   7.631   7.293 -0.1591 -0.1718  0.2353
18029W        W18893   3.421  25.611  21.099  0.0201 -0.1349 -0.1743
18030W        W18894   5.470   5.620  19.491  0.1313  0.0535  0.1865
18031W        W18895  27.680  17.837  28.974  0.0312 -0.2209  0.1045
18032W        W18896   4.579  17.943  26.853 -0.0666  0.1827  0.1302
18033W        W18897  13.366  17.700  20.629 -0.2469 -0.1224 -0.0487
18034W        W18898  23.718  23.749  21.373  0.0372  0.0033 -0.0343
18035W        W18899   5.480  11.395  15.916  0.0447  0.2223 -0.0791
18036W        W18900  18.258  22.767  15.501 -0.0441  0.2029 -0.0167
18037W        W18901   3.822  13.958   3.284 -0.2496  0.1011  0.1185
18038W        W18902  26.905  12.078   2.488 -0.3206  0.0637 -0.0487
18039W        W18903  20.688   3.936  25.140 -0.3270  0.1961 -0.1565
18040W        W18904   8.221  16.617   8.485 -0.2147 -0.1453 -0.0455
18041W        W18905  20.495   7.401  18.751  0.2222  0.2726 -0.2383
18042W        W18906  20.295  18.029  15.858  0.1782 -0.0405  0.1653
18043W        W18907  24.049   0.335  11.342 -0.0539  0.1802  0.2552
18044W        W18908   5.285  10.888  25.357  0.2123  0.4899 -0.0621
18045W        W18909   7.910  28.727  25.224  0.0648 -0.3508 -0.1400
18046W        W18910  21.095  14.490  23.353  0.1026  0.4194 -0.3195
18047W        W18911   4.172  19.156  25.004  0.0997 -0.2244  0.0453
18048W        W18912  23.612  27.741  17.299 -0.0130  0.3584 -0.2607
18049W        W18913   9.460  20.004  14.497 -0.0170 -0.3712  0.0400
18050W        W18914  16.622  22.959  10.063 -0.2681 -0.2290 -0.0781
18051W        W18915  13.839   7.136  12.865  0.0075  0.2112 -0.0413
18052W        W18916  13.492  11.913   9.610 -0.0924  0.1393 -0.1462
18053W        W18917  21.760   1.098  14.850 -0.0677 -0.0049 -0.2250
18054W        W18918   5.751  20.943  26.500  0.0591  0.1765  0.0545
18055W        W18919  23.795   8.667  14.508 -0.3674 -0.1217  0.3010
18056W        W18920   0.846  24.035   0.916  0.3484  0.0927  0.0496
18057W        W18921  19.558  23.144  17.334 -0.1795 -0.1157 -0.1615
18058W        W18922   5.128  25.572   3.687 -0.0721 -0.1569  0.2351
18059W        W18923   4.114   7.304   8.227  0.2562 -0.0565 -0.0379
18060W        W18924  22.714  14.720  15.931  0.0339 -0.5515  0.1944
18061W        W18925   7.912  22.285  16.799  0.0574 -0.2234 -0.1418
18062W        W18926   6.986  18.267  19.571  0.0785  0.0268 -0.1031
18063W        W18927  24.485  24.544  13.151  0.1362 -0.0942 -0.0905
18064W        W18928   7.607  23.472  17.860  0.0187 -0.0889  0.0306
18065W        W18929  28.670  26.117   8.451  0.0315  0.0877 -0.3837
18066W        W18930  14.273   7.667  17.359 -0.0181 -0.1529 -0.0016
18067W        W18931  12.951   5.689  29.046 -0.0123  0.1502  0.2406
18068W        W18932  16.239   5.085  25.602 -0.2373 -0.3961 -0.0270
18069W        W18933   1.809  12.811  21.356 -0.0714  0.0951 -0.0485
18070W        W18934   2.153  26.223  18.452  0.2123  0.0143  0.1389
18071W        W18935  12.871  13.412  21.174 -0.1430 -0.0128 -0.3358
18072W        W18936  22.761  13.530   9.377 -0.0863 -0.1027 -0.2476
18073W        W18937  23.716  28.444  17.861  0.2117  0.3608 -0.1911
18074W        W18938   8.651   1.994   6.593 -0.1654 -0.0990 -0.1035
18075W        W18939  17.536  19.403   0.689 -0.0107  0.3584 -0.1050
18076W        W18940   7.247   7.595  16.798 -0.0001 -0.0527 -0.1474
18077W        W18941   8.745   4.619   8.618  0.3162 -0.1986 -0.2850
18078W        W18942   2.536  27.017  22.709 -0.3877 -0.2544 -0.2375
18079W        W18943  18.682  21.828   9.788 -0.0808  0.0146 -0.1295
18080W        W18944   0.235   6.340  26.827 -0.0410  0.0019 -0.0684
18081W        W18945  29.009  16.393  27.139 -0.1684 -0.1320  0.2013
18082W        W18946  20.113   9.150  24.919  0.1979 -0.4817 -0.0223
18083W        W18947  13.544   7.078  12.402  0.2621 -0.5166  0.3348
18084W        W18948  17.788  17.926  27.606 -0.1008 -0.0987  0.0420
18085W        W18949  23.958  26.868  12.151  0.1712 -0.1677 -0.3410
18086W        W18950  14.657   3.882  17.989  0.0240 -0.0923 -0.2020
18087W        W18951  25.543   4.597  12.373 -0.0897 -0.1948 -0.1786
18088W        W18952  22.540  20.170  14.744 -0.3325  0.3690  0.0804
18089W        W18953   1.843   9.358  11.315  0.1556  0.1081 -0.0641
18090W        W18954  22.390  15.960  19.683  0.1858 -0.1636 -0.0460
18091W        W18955  25.024  19.838  23.291  0.0443  0.2300  0.0525
18092W        W18956  28.461  17.025  24.840  0.0643 -0.0241  0.0302
18093W        W18957  16.443  22.571  12.278  0.2922 -0.0359  0.1956
18094W        W18958   7.328  14.072  26.388 -0.0010 -0.3799 -0.0925
18095W        W18959   7.560  13.775   8.190 -0.0269  0.0100 -0.2620
18096W        W18960  25.023  12.257  26.727  0.0051  0.0738  0.3524
18097W        W18961  16.077  21.605  13.930 -0.0519  0.2539 -0.0765
18098W        W18962   0.149  14.528  27.773  0.0729 -0.0637  0.2356
18099W        W18963  22.383  14.749  19.025 -0.3266 -0.1165  0.0800
18100W        W18964  21.747  21.211  24.810  0.2155 -0.0607 -0.0483
18101W        W18965   7.185  25.766  24.287 -0.1914 -0.0784  0.0858
18102W        W18966  26.351  10.845  27.934  0.0721  0.3397  0.1697
18103W        W18967   8.684   8.652  21.415 -0.0148  0.7892  0.0236
18104W        W18968  19.596   5.197   7.775  0.0141 -0.1001 -0.2379
18105W        W18969   3.545  24.323   1.710  0.1478 -0.1432 -0.0463
18106W        W18970  21.441  27.476  27.230  0.2006  0.1917 -0.2580
18107W        W18971  18.551  27.183  18.447  0.1026  0.0132  0.0307
18108W        W18972   0.587  25.809  10.992 -0.2993  0.2367 -0.1680
18109W        W18973   1.851   9.197   9.639  0.0165  0.3561 -0.1710
18110W        W18974  25.375  11.297   7.972  0.2659  0.1477 -0.0558
18111W        W18975   3.258  13.629   2.914 -0.1739  0.3744  0.0466
18112W        W18976  26.160   8.493   9.982 -0.1389  0.1393 -0.2779
18113W        W18977   9.432  20.000  28.263  0.0986 -0.1594  0.1293
18114W        W18978  14.788  14.987  17.115  0.3778  0.3244  0.0102
18115W        W18979  13.492  14.279   2.668 -0.2821  0.0272 -0.1746
18116W        W18980  23.692  28.668  12.948  0.0095  0.1248  0.3221
18117W        W18981  26.164  12.834   2.252  0.1302  0.0686  0.0106
18118W        W18982   4.831  20.736  26.406 -0.2273  0.0123  0.1378
18119W        W18983  11.853  19.335  20.724  0.1646 -0.2029 -0.1519
18120W        W18984  13.968  14.261  12.799  0.2557 -0.1792 -0.0554
18121W        W18985   1.973   5.081  12.428 -0.1496 -0.0439  0.2282
18122W        W18986  20.974   5.393   4.609  0.1062 -0.0414  0.0701
18123W        W18987  23.426  27.783   2.182 -0.0679 -0.3607 -0.0358
18124W        W18988   0.910  26.486   8.412  0.0080 -0.2174  0.1582
18125W        W18989  26.370   0.095  17.063 -0.1518 -0.0662 -0.2482
18126W        W18990  23.499   5.027  13.112  0.2934 -0.1069 -0.0878
18127W        W18991  27.597  19.739  17.469  0.0113  0.0140  0.1024
18128W        W18992  17.241  12.117  21.670  0.0955  0.0456 -0.1470
18129W        W18993  26.758  14.858   7.488  0.0795 -0.0147 -0.0174
18130W        W18994  18.419  10.932   6.640 -0.1594 -0.1121  0.2592
18131W        W18995  11.931   5.031  22.060 -0.1667 -0.3072 -0.1321
18132W        W18996  23.029  16.301   5.469 -0.0347  0.0676 -0.0621
18133W        W18997  25.365  18.069  18.151 -0.3619 -0.1810  0.4091
18134W        W18998   9.566  26.048  14.670  0.0441 -0.0207 -0.1904
18135W        W18999  12.424  19.349  24.448  0.2118 -0.0069 -0.1597
18136W        W19000  21.384  15.755  12.467 -0.0617  0.0387 -0.0554
18137W        W19001  22.721  17.683  14.896 -0.0518  0.1064 -0.0005
18138W        W19002  21.727   8.590  23.568  0.3030 -0.2686 -0.2090
18139W        W19003  14.385   6.372  22.078  0.0062  0.1164  0.2756
18140W        W19004   9.295  23.514   7.078 -0.1277 -0.1762 -0.0698
18141W        W19005  20.154  25.900  20.310 -0.0178  0.3157 -0.2674
18142W        W19006  21.209   7.492  22.882 -0.0421 -0.2689  0.0171
18143W        W19007   3.536   7.449   3.598  0.0662  0.2557 -0.0377
18144W        W19008  26.939  17.205  20.904 -0.0058 -0.0645 -0.1301
18145W        W19009  15.304  11.959  10.816  0.1936 -0.0126 -0.2215
18146W        W19010  20.695   0.263  18.060 -0.0747  0.0553 -0.1874
18147W        W19011  21.782  27.444  29.054 -0.0739  0.1362 -0.3561
18148W        W19012   7.219  27.462   5.938  0.0169 -0.3043  0.0108
18149W        W19013  12.231  21.836   9.363  0.4138  0.1316 -0.0558
18150W        W19014   1.681  20.214  17.304  0.1989  0.0648  0.2376
18151W        W19015  10.310  21.011   7.863 -0.5300  0.0430  0.1296
18152W        W19016   5.557  21.817  10.835 -0.0724  0.2320  0.0086
18153W        W19017   5.881  26.313  16.719  0.0169  0.2867 -0.0658
18154W        W19018  20.211  18.276  19.140 -0.1660  0.2182  0.1510
18155W        W19019   6.417   7.736  17.434 -0.3411  0.1311  0.0455
18156W        W19020  23.731  25.363  10.083  0.2841 -0.3091 -0.0245
18157W        W19021  25.171  13.759  15.412  0.3125  0.1372  0.1425
18158W        W19022  22.977  23.481  19.695  0.0334 -0.0519 -0.1730
18159W        W19023  26.230  27.906  22.777 -0.1411  0.1175  0.0948
18160W        W19024  10.327   3.668  25.917  0.1616  0.0846  0.1330
18161W        W19025   9.419  21.034  19.137  0.4207 -0.0979  0.0665
18162W        W19026   5.065   1.443   1.555 -0.2729  0.0256 -0.2296
18163W        W19027  26.883  10.619  14.595  0.3196  0.1016  0.0029
18164W        W19028   0.848   2.294  10.459 -0.1306  0.0522  0.1644
18165W        W19029  28.902   8.923   7.594  0.2993  0.0229 -0.0067
18166W        W19030  24.718  27.657  18.001  0.2209 -0.4295 -0.4043
18167W        W19031  27.833  23.202  27.476  0.1175  0.1947  0.4688
18168W        W19032   1.566  11.216  20.830  0.3815  0.0628 -0.2022
18169W        W19033   1.617   9.873  12.219 -0.3080 -0.0225 -0.0647
18170W        W19034  21.450   3.960  23.530  0.1035 -0.1850 -0.0858
18171W        W19035  13.413  13.811  27.213  0.0332 -0.2634 -0.0391
18172W        W19036  28.464   7.547  13.906 -0.2602 -0.0703  0.0919
18173W        W19037  19.634   7.927  13.344  0.0562  0.1230  0.2101
18174W        W19038   3.105   0.640   3.656 -0.1050  0.0215 -0.0873
18175W        W19039  14.150   5.010  18.767 -0.0425  0.0745  0.2126
18176W        W19040  15.977   6.658  18.483  0.2404  0.0224 -0.0943
18177W        W19041  14.196  13.425  10.047  0.1353  0.0356  0.1935
18178W        W19042   6.401  17.549   2.352 -0.1366 -0.0673 -0.0303
18179W        W19043  14.623  25.078  10.249 -0.0325  0.0576 -0.0558
18180W        W19044   6.643  11.477  21.855 -0.1691  0.3870  0.0854
18181W        W19045  21.561   0.084  17.499  0.3713  0.1740 -0.0871
18182W        W19046  28.551   4.742   4.677  0.1215 -0.0750  0.0407
18183W        W19047   5.150  18.721  13.512 -0.1796  0.0259 -0.0333
18184W        W19048   0.736  18.458  15.793  0.0093 -0.1026 -0.2280
18185W        W19049  21.283  20.286  12.816 -0.0526  0.0902  0.0101
18186W        W19050   0.328  15.070  15.419 -0.1422 -0.0667 -0.0003
18187W        W19051  21.353  14.147   7.924 -0.0766  0.3789  0.0518
18188W        W19052   0.653  26.952   5.595 -0.3356 -0.0057 -0.0574
18189W        W19053  28.236  22.057  15.274 -0.0493 -0.4427 -0.0019
18190W        W19054  23.694  15.176   8.796  0.1712  0.2798 -0.0147
18191W        W19055  22.979  26.248  14.694  0.0323  0.3278 -0.1002
18192W        W19056  11.765  14.145  16.889  0.1196 -0.1445 -0.0283
18193W        W19057  26.920   2.748  25.866 -0.0696 -0.0369  0.1737
18194W        W19058  18.516  24.365  19.117 -0.0766  0.3104  0.2165
18195W        W19059  22.988  12.159  16.407 -0.1375  0.3837 -0.0211
18196W        W19060  26.546  10.959  22.747  0.0623  0.0486 -0.1424
18197W        W19061   2.788  17.865  17.835 -0.3558 -0.0108 -0.2797
18198W        W19062  14.681  13.424  28.683 -0.0866 -0.0012  0.1645
18199W        W19063   2.321  24.324  24.721 -0.1663  0.2235  0.0495
18200W        W19064  20.445  16.638  16.930 -0.1056 -0.0511  0.5573
18201W        W19065   1.345  18.629  16.702 -0.1403 -0.1089 -0.5250
18202W        W19066  16.881  25.165  18.609  0.1460 -0.1684 -0.0071
18203W        W19067  23.305  24.455  11.734  0.4507 -0.0782  0.1068
18204W        W19068   3.330  26.682   9.934  0.0204  0.3283  0.3897
18205W        W19069  11.111  13.383  26.799  0.0141 -0.2249  0.2169
18206W        W19070  28.559  28.508   2.568  0.2641  0.1907 -0.0520
18207W        W19071   5.362   3.587  18.371 -0.2210 -0.1543  0.1100
18208W        W19072   3.371  16.057   6.923 -0.0303 -0.1846 -0.1886
18209W        W19073  18.186  26.385  16.237 -0.0487 -0.3202 -0.1605
18210W        W19074  20.088  26.262   7.356 -0.1279  0.0010  0.2043
18211W        W19075   5.873  22.595  26.986  0.0520  0.2474  0.0261
18212W        W19076   7.909  17.629  22.153  0.0748 -0.2828 -0.1576
18213W        W19077  26.184  11.984  23.006 -0.1191  0.0365  0.2418
18214W        W19078  29.131  13.873  28.398 -0.0901  0.3254  0.0936
18215W        W19079   1.046  23.135   0.050 -0.0299 -0.1858 -0.0598
18216W        W19080  26.211  13.805   2.200  0.0279 -0.1235 -0.1290
18217W        W19081  21.637   7.217  22.839 -0.1495  0.1162 -0.1601
18218W        W19082   1.346  15.304  14.613 -0.0064  0.0138  0.2176
18219W        W19083  28.197  25.914  25.352  0.1633  0.0516  0.1950
18220W        W19084   1.859   2.144  21.659  0.0063  0.1122  0.0035
18221W        W19085  19.048   0.343  13.935 -0.0651  0.4486 -0.2597
18222W        W19086  14.266  13.709   8.253  0.0651 -0.0607 -0.3306
18223W        W19087  10.504   1.158  24.778 -0.1107 -0.1070 -0.0125
18224W        W19088  11.057  11.459  18.225 -0.1313  0.1694  0.2368
18225W        W19089   1.180  22.621   9.798 -0.0743  0.0355 -0.1568
18226W        W19090   9.608   7.551  26.887 -0.2053  0.5550 -0.0334
18227W        W19091  23.656   3.970  16.922  0.1109 -0.0739 -0.2844
18228W        W19092  14.357  20.535   9.075 -0.1138  0.0968 -0.0996
18229W        W19093   8.360  11.441  26.964 -0.1565  0.0101 -0.2447
18230W        W19094   4.155  15.955  26.831  0.0398  0.0871 -0.1977
18231W        W19095  16.096  20.282   8.907  0.1168  0.1017  0.0315
18232W        W19096  22.330   2.979   6.202 -0.1669  0.1784 -0.0807
18233W        W19097  23.261   2.947  21.408 -0.1885 -0.0783 -0.2034
18234W        W19098   6.987  21.016  17.157 -0.0693  0.1252  0.5078
18235W        W19099   2.875  12.853  19.200  0.2368  0.0345 -0.3579
18236W        W19100   2.888   3.887  17.054 -0.1468  0.0586  0.0721
18237W        W19101  12.375   8.759  12.697  0.1406  0.0627 -0.1005
18238W        W19102  11.695  22.148   9.183  0.0841 -0.2319  0.3413
18239W        W19103  24.342  16.100   6.346  0.1506 -0.2793  0.0941
18240W        W19104  11.460   6.767  13.318  0.0678  0.0685 -0.2756
18241W        W19105  20.089   4.782  13.136  0.1406  0.0731 -0.2849
18242W        W19106  25.358  18.014  14.877  0.0414  0.4014 -0.0266
18243W        W19107  26.437  22.798  25.988  0.1615 -0.0135  0.0563
18244W        W19108  28.110  24.756  17.276  0.3779 -0.4022 -0.1738
18245W        W19109  14.046  24.961  21.757 -0.1271 -0.0558 -0.0842
18246W        W19110   0.967  17.863  11.027 -0.0464 -0.2041  0.0217
18247W        W19111   8.849  20.003   5.243  0.0192 -0.1345  0.4676
18248W        W19112   8.106  28.673  15.405  0.0406 -0.1826  0.0764
18249W        W19113  13.205  11.243  14.088  0.0115 -0.2494 -0.2154
18250W        W19114   0.554   5.211  19.048 -0.3151  0.2801 -0.1187
18251W        W19115  18.990  26.365  24.874  0.0463 -0.4536  0.1520
18252W        W19116  11.188  28.896   2.235 -0.1560  0.0808  0.0389
18253W        W19117  12.723  20.790  23.939  0.3158  0.3743 -0.1316
18254W        W19118   6.590  28.152   4.542 -0.1655  0.2909 -0.2307
18255W        W19119   5.612  10.757  17.494 -0.0098 -0.0606 -0.0187
18256W        W19120  10.781   1.650  22.438 -0.2293 -0.0317  0.0772
18257W        W19121   7.025  10.991   8.621 -0.0821 -0.0712  0.4297
18258W        W19122   0.874  12.277  23.721  0.0964  0.0328  0.1458
18259W        W19123   8.194  21.745   2.708  0.0285 -0.2267  0.0531
18260W        W19124  21.041  12.612  12.206  0.2008  0.0960  0.2871
18261W        W19125   6.962   8.232  16.393 -0.1013  0.1700 -0.1074
18262W        W19126   2.713  16.442   6.435 -0.0777 -0.2024 -0.1859
18263W        W19127   2.522  19.147  19.416  0.2820 -0.0760  0.2357
18264W        W19128  20.153  28.410  16.191 -0.0292  0.1668  0.0666
18265W        W19129  17.557  20.758   1.305  0.0240  0.0078  0.2024
18266W        W19130  11.120   6.886  14.957  0.0752 -0.1852  0.3712
18267W        W19131   0.060   5.178  19.151  0.0543 -0.1826  0.0454
18268W        W19132  12.374  27.281   2.462  0.1824 -0.2294  0.2048
18269W        W19133  14.489  26.537  12.918  0.1729  0.0192 -0.2513
18270W        W19134  15.295   2.822  16.060  0.1128 -0.3104  0.0029
18271W        W19135   2.338  27.381  16.805  0.4393  0.3061  0.2519
18272W        W19136   3.441   2.876   2.008 -0.0170  0.0435  0.0532
18273W        W19137  28.460  14.208  18.533 -0.0517 -0.1403  0.1930
18274W        W19138  26.326  14.842  11.980 -0.1790 -0.2187 -0.0644
18275W        W19139   4.262   7.080  24.284 -0.1319 -0.0860  0.1015
18276W        W19140  18.855   7.080   7.402 -0.2442  0.2695  0.0613
18277W        W19141  27.260   2.755  24.384  0.2686  0.2243  0.1472
18278W        W19142  28.049  18.272  27.113 -0.5130 -0.0143 -0.0800
18279W        W19143  13.692  10.021  22.219  0.1198  0.0229 -0.0451
18280W        W19144  24.275  16.185  18.794 -0.1224 -0.0131  0.4189
18281W        W19145   9.384   2.844  14.110  0.1216  0.0960  0.0048
18282W        W19146   3.259  17.636  17.903 -0.3963 -0.0566 -0.0264
18283W        W19147  17.436  22.286  13.506  0.0722 -0.1445 -0.1687
18284W        W19148  28.158  10.208   5.566  0.0586 -0.4513  0.0421
18285W        W19149  26.844  19.596   7.972  0.1688 -0.2732  0.1421
18286W        W19150  28.161   6.490  25.975  0.1890 -0.1726 -0.1377
18287W        W19151  29.070   5.858  18.599  0.1415 -0.1348  0.0040
18288W        W19152  28.332  15.676  12.168 -0.0039  0.0843 -0.0947
18289W        W19153  13.237   0.900  21.781 -0.2945  0.1538 -0.1342
18290W        W19154   1.481  11.306  17.384  0.1963  0.1101 -0.1299
18291W        W19155   3.077  19.584  11.429 -0.3355 -0.3344 -0.2547
18292W        W19156   7.286  23.879   8.100 -0.2873 -0.1008 -0.0176
18293W        W19157   6.960  19.667  17.305 -0.0441  0.3144 -0.1788
18294W        W19158  27.937  23.338  18.343  0.1926 -0.0587  0.0798
18295W        W19159  22.812  15.068   3.812  0.0893 -0.2079 -0.1138
18296W        W19160  21.338  26.963  21.011  0.0285  0.1387 -0.1361
18297W        W19161  25.227  13.988  28.435 -0.2108  0.2284 -0.2292
18298W        W19162  12.826  15.190   9.009  0.0351 -0.0343 -0.1549
18299W        W19163   3.550  27.834  15.941 -0.2759  0.0731  0.0352
18300W        W19164  12.180  15.245  20.997 -0.0679 -0.1796 -0.0523
18301W        W19165   8.245  15.196   8.090 -0.0171 -0.1813 -0.2202
18302W        W19166  12.526  17.825  22.933 -0.3795 -0.3106  0.0413
18303W        W19167   0.920  11.796   7.283 -0.1722  0.1447  0.2367
18304W        W19168  10.172   1.429  19.541  0.1146 -0.2170 -0.1519
18305W        W19169  25.719  21.709  19.469  0.0893 -0.0435  0.2397
18306W        W19170   4.160  19.084  16.678  0.0823 -0.0257 -0.1360
18307W        W19171  19.338  11.188  25.549 -0.0133  0.3265 -0.1193
18308W        W19172  24.540   2.910   0.897  0.0867 -0.5649 -0.2217
18309W        W19173   9.652  17.572  11.935 -0.2370  0.0550 -0.0404
18310W        W19174   3.303  15.632  15.636 -0.0324 -0.3722  0.3203
18311W        W19175   5.005  23.614   7.398  0.0054 -0.1939  0.1157
18312W        W19176  19.574  27.989  13.469 -0.1571  0.0358 -0.1136
18313W        W19177   1.687  19.941  11.579  0.0395 -0.1487 -0.1535
18314W        W19178   7.010   5.578   1.284 -0.0543 -0.0167  0.1432
18315W        W19179  18.995  21.044   1.564  0.2367 -0.0106  0.2511
18316W        W19180   4.982   3.045   7.252  0.1196  0.1184  0.0473
18317W        W19181   6.713  21.001  24.431  0.0916 -0.2012  0.1298
18318W        W19182   6.747  19.551  19.193 -0.0067 -0.2269 -0.2721
18319W        W19183  28.819  24.520  11.359 -0.1538  0.0110  0.1383
18320W        W19184   8.367  14.752  26.314 -0.2526  0.1428  0.0228
18321W        W19185  23.855  23.981  18.262  0.2045  0.0711  0.0389
18322W        W19186   0.921   6.530  10.874  0.0643 -0.1339  0.0109
18323W        W19187  15.493  11.162   3.893  0.0292 -0.2601  0.3356
18324W        W19188  28.446  27.191  11.987  0.0465  0.0565 -0.0090
18325W        W19189  10.089  15.063  19.370  0.0137 -0.1038  0.1249
18326W        W19190   7.327  18.999  14.745 -0.3982 -0.3189  0.4918
18327W        W19191   2.204   7.556  19.950 -0.0564 -0.0817  0.3895
18328W        W19192  12.122  26.694   4.764 -0.1857  0.2968 -0.2353
18329W        W19193   2.914  18.051  23.100  0.2595 -0.0528  0.2727
18330W        W19194  22.705  23.414  23.946  0.3280 -0.1656 -0.2470
18331W        W19195  20.396   1.453  23.882 -0.3785  0.1713  0.0763
18332W        W19196  24.985  13.569   3.421  0.2933  0.1226  0.1612
18333W        W19197  14.637   0.371  17.072 -0.0052  0.1037  0.1950
18334W        W19198  10.831  23.135  24.481  0.0063  0.0407 -0.0401
18335W        W19199   8.328  10.991  27.512 -0.1098  0.1427 -0.0932
18336W        W19200   6.888  21.173   8.596  0.2124  0.0957 -0.2363
18337W        W19201   1.957  20.331  27.885  0.0006  0.2067  0.5266
18338W        W19202   8.869  10.897  16.318 -0.1105 -0.0733 -0.1103
18339W        W19203  18.717   3.357  17.236  0.0524  0.1435 -0.1727
18340W        W19204  19.173  22.063  28.042 -0.0829 -0.1569  0.0793
18341W        W19205   5.981  15.810  21.856  0.0048 -0.2292 -0.0088
18342W        W19206   6.702  16.063   5.833 -0.3680  0.3184  0.1829
18343W        W19207  24.052  17.538   0.834 -0.1405 -0.1729 -0.2090
18344W        W19208  28.692  24.860  14.787  0.0798 -0.0683  0.0545
18345W        W19209  28.129  16.272  26.393 -0.2583 -0.0490 -0.0108
18346W        W19210  23.709  18.917   1.849  0.1535  0.0165  0.2910
18347W        W19211  23.148  14.636   3.889  0.1539  0.1964 -0.1593
18348W        W19212   2.669  11.559   5.594 -0.2130 -0.0492  0.0591
18349W        W19213  15.974  18.210  19.145 -0.1105  0.1448 -0.1100
18350W        W19214  21.934  26.934  19.736 -0.1503 -0.1714  0.1869
18351W        W19215   9.961   9.152  11.459  0.2201  0.0865 -0.2963
18352W        W19216  20.318  17.504  18.056 -0.2557  0.0777  0.1390
18353W        W19217  23.485   9.941  18.017 -0.1410 -0.0229  0.1459
18354W        W19218  22.302  15.325  19.202 -0.1394 -0.2226 -0.3034
18355W        W19219  19.295  26.538  18.197  0.4099 -0.0007 -0.2145
18356W        W19220   0.691  18.232   1.386  0.1674 -0.3259  0.2356
18357W        W19221  14.902  15.871   4.027 -0.0700 -0.1190 -0.1864
18358W        W19222  16.606  22.777  24.295 -0.2420  0.0839 -0.0604
18359W        W19223  25.397  12.494   5.881  0.1373 -0.1852  0.0970
18360W        W19224  27.909   8.218   2.112 -0.0699 -0.2625 -0.1801
18361W        W19225  13.136  20.997   2.867 -0.0565 -0.1874 -0.2763
18362W        W19226  28.853  15.927  11.545  0.0422 -0.0808 -0.0064
18363W        W19227  13.650  21.713  11.095  0.0391  0.3892  0.0856
18364W        W19228   4.532  14.700   1.976 -0.0473  0.0387 -0.0495
18365W        W19229  17.637  15.399  28.971 -0.3105 -0.3207 -0.0454
18366W        W19230   0.528  25.225   5.095 -0.1183 -0.0756 -0.0501
18367W        W19231   4.684  18.593  14.563 -0.0399 -0.1941 -0.0547
18368W        W19232  27.022   9.112   9.811  0.0106 -0.3610  0.1337
18369W        W19233  15.994   8.172   8.918  0.0039 -0.0457 -0.2746
18370W        W19234  11.427  15.761   2.059 -0.1106  0.4855  0.1948
18371W        W19235  27.082  25.285  18.511  0.1083 -0.1184 -0.0105
18372W        W19236  13.713   0.891   8.473 -0.2838  0.1415  0.0621
18373W        W19237   6.270   6.473  24.972 -0.0850 -0.1935  0.0174
18374W        W19238   2.492  13.993  24.296  0.2543  0.0847 -0.3532
18375W        W19239  28.565  19.297   0.469  0.0724 -0.1425 -0.0661
18376W        W19240  21.434   1.546  20.854 -0.0501 -0.0314  0.0557
18377W        W19241  14.647  24.012   2.136 -0.1731  0.2787  0.0374
18378W        W19242  19.159   3.515  24.211  0.0402  0.3063 -0.1147
18379W        W19243  20.438  14.408   6.062  0.1978 -0.0289 -0.1176
18380W        W19244  23.180  24.986  21.642  0.0973 -0.0378  0.2308
18381W        W19245   0.535  14.926   3.954 -0.2361  0.2520 -0.1242
18382W        W19246  23.742  24.482  28.052 -0.1881 -0.3099 -0.2910
18383W        W19247  25.401  19.984  10.053 -0.2000  0.0516 -0.1424
18384W        W19248  19.381  15.533  26.619 -0.0085 -0.2430  0.2522
18385W        W19249  27.917   2.966  16.442  0.2562  0.0480 -0.2494
18386W        W19250   9.124  25.631  17.974  0.0028 -0.1193  0.1340
18387W        W19251  23.929   9.592  19.418 -0.2010  0.0701 -0.0325
18388W        W19252  16.832  25.366   7.134 -0.2129 -0.1551  0.0767
18389W        W19253  24.292   9.805  23.361 -0.3046 -0.1262  0.3388
18390W        W19254  22.166  22.389  11.253 -0.1853 -0.0763 -0.2474
18391W        W19255  26.138   4.293  19.521  0.0309 -0.1564  0.1026
18392W        W19256  27.892   2.278   2.315  0.1362  0.1926 -0.1410
18393W        W19257  27.766   9.741  19.188 -0.1352 -0.0148  0.2400
18394W        W19258  22.633   1.212   6.171 -0.1367  0.1366  0.0484
18395W        W19259  14.634   7.547  14.927 -0.0633 -0.1467  0.0683
18396W        W19260   4.750  17.833  20.018  0.1198  0.0780 -0.0759
18397W        W19261   4.195  25.332   8.055 -0.0654  0.1642 -0.0230
18398W        W19262  10.339  11.868  19.237  0.1115 -0.0446 -0.2840
18399W        W19263   0.701  27.806   6.939 -0.2455  0.1999  0.1649
18400W        W19264  19.880   9.049  12.312  0.0499 -0.1947  0.0787
18401W        W19265  23.333  15.501   6.190 -0.0175  0.0220 -0.3795
18402W        W19266  10.327   0.052  23.738 -0.0178  0.1084  0.0884
18403W        W19267   5.121  13.231  24.700 -0.1036  0.4285 -0.0408
18404W        W19268  12.175  28.055   9.088 -0.0856 -0.4477 -0.1304
18405W        W19269   6.183  22.030  25.184 -0.2584  0.0481  0.2783
18406W        W19270  13.975  17.034   3.486  0.0990 -0.0776 -0.1593
18407W        W19271   5.159  11.068  22.125 -0.0692  0.2297 -0.0050
18408W        W19272   2.427  13.356  16.482  0.1249 -0.0289 -0.0599
18409W        W19273   9.798  17.902   6.893  0.1648 -0.2429  0.1016
18410W        W19274  28.862   7.093  27.440 -0.0428 -0.1714  0.0088
18411W        W19275   1.056   9.874  13.348 -0.2835 -0.4384  0.0687
18412W        W19276   2.486  15.473   1.180 -0.2716  0.0931 -0.3603
18413W        W19277  17.961  11.705  24.584 -0.1793 -0.2416 -0.0988
18414W        W19278  28.593  19.745   5.856  0.0207  0.3035 -0.1337
18415W        W19279  18.613  24.916  15.256  0.0300  0.1149  0.2083
18416W        W19280  13.206  17.180  25.665 -0.1512  0.3861 -0.1897
18417W        W19281   4.061   9.874  26.256  0.0162 -0.4355 -0.3989
18418W        W19282  22.931  14.260   4.402  0.2567 -0.0692 -0.4552
18419W        W19283   5.514  23.482   2.553 -0.1148 -0.0790 -0.1962
18420W        W19284   4.824  10.566  23.556 -0.0941  0.2160  0.2290
18421W        W19285   6.653  28.133  17.372 -0.1154  0.2316  0.2887
18422W        W19286  12.498  28.867  27.923  0.0504 -0.2166  0.2532
18423W        W19287   9.328   1.594  19.720  0.1179  0.3595  0.0948
18424W        W19288  16.065  18.906  12.022  0.0932 -0.1318 -0.1433
18425W        W19289  15.235   0.783  15.494  0.0713  0.1165  0.2814
18426W        W19290  17.314  10.266  20.269 -0.1038 -0.4866 -0.1875
18427W        W19291   0.960  25.783   4.590 -0.0737 -0.0405  0.3210
18428W        W19292   3.537  11.338  14.321  0.2949  0.1810 -0.0017
18429W        W19293  27.254   8.848  16.061 -0.2627 -0.0199 -0.1777
18430W        W19294  21.129  13.389  14.359  0.0369 -0.0230  0.1022
18431W        W19295  27.375  12.797  12.722 -0.0168 -0.1156 -0.0315
18432W        W19296   6.527  21.129  16.415  0.0010 -0.3413  0.0989
18433W        W19297   1.634  19.767   1.153  0.4299  0.1898  0.1622
18434W        W19298  17.672   8.514  11.870 -0.1550  0.0861 -0.0050
18435W        W19299  15.773  18.219  11.026  0.1695 -0.1645  0.1537
18436W        W19300  27.162  17.008   8.583  0.1533  0.0491  0.0407
18437W        W19301  28.465   0.258  18.817  0.3262  0.2704  0.2779
18438W        W19302  13.931  27.380   9.868  0.1320  0.1559 -0.0615
18439W        W19303  25.450  25.164  14.792  0.0324 -0.0817 -0.0122
18440W        W19304   0.380  22.311  15.807 -0.1619  0.1074 -0.3699
18441W        W19305   5.570  20.469  17.803 -0.2397  0.1753 -0.2568
18442W        W19306   7.375  19.923  16.426 -0.1537 -0.0734  0.0043
18443W        W19307  20.443  14.417  14.873  0.2323 -0.0604 -0.1638
18444W        W19308  27.376  20.886  23.337  0.1425  0.0409 -0.2416
18445W        W19309  14.527   9.162   1.733 -0.0778  0.3456  0.0635
18446W        W19310   0.028  25.368  14.787 -0.0840 -0.1381  0.0213
18447W        W19311  19.472  18.712   1.338  0.2061  0.0531 -0.2737
18448W        W19312   1.999  19.235   8.832  0.0246 -0.0872  0.2895
18449W        W19313   2.969  10.499  18.288  0.1384  0.0620 -0.3138
18450W        W19314  17.443   2.219  17.604 -0.2075 -0.0126  0.3545
18451W        W19315  17.864  23.641  13.491  0.2164 -0.1148  0.2657
18452W        W19316  27.469  26.830   6.178 -0.0665  0.1015  0.4704
18453W        W19317  23.564  15.920  26.239 -0.0778  0.2175 -0.0437
18454W        W19318  11.981  16.932   9.040  0.0056 -0.2128  0.1074
18455W        W19319   5.981  20.501   7.781 -0.2427 -0.0579 -0.3842
18456W        W19320  28.300  21.017  15.521  0.3609  0.3303 -0.0583
18457W        W19321  25.988  15.295   0.473 -0.0009  0.1745  0.4763
18458W        W19322   4.370  11.927   2.790 -0.3557  0.0748  0.1355
18459W        W19323  20.373   0.031  28.353  0.0163  0.0116  0.2504
18460W        W19324  26.803  16.327  13.848 -0.1506  0.1178  0.1136
18461W        W19325  15.355  14.905   1.803 -0.3944  0.1068 -0.2640
18462W        W19326  24.201  12.254  27.828  0.0906 -0.1007  0.1086
18463W        W19327   5.734  20.661  17.322  0.0916  0.0653 -0.1601
18464W        W19328  24.204  18.259   8.859 -0.0001 -0.6589  0.0790
18465W        W19329  26.592  13.882  15.422 -0.0146  0.3029 -0.3830
18466W        W19330   7.143  27.868  17.450  0.1462 -0.2237  0.3154
18467W        W19331  14.205  16.280   2.287 -0.2158  0.0909  0.0100
18468W        W19332   3.492   7.690   4.566 -0.1247 -0.2069  0.0237
18469W        W19333  27.395  14.541  16.629 -0.1089 -0.0313  0.0883
18470W        W19334   5.632   5.161  19.477  0.2514  0.0422 -0.1053
18471W        W19335  17.398   1.801  24.218  0.0576  0.1085  0.0518
18472W        W19336  17.371  21.633  14.037  0.0194 -0.0477 -0.0565
18473W        W19337   8.647  10.496  18.492  0.0148 -0.2556  0.1993
18474W        W19338  13.887   4.579  20.351 -0.0244  0.1229  0.1291
18475W        W19339  20.374  26.115   8.572 -0.3206  0.5793  0.1516
18476W        W19340  27.601  19.004  23.083 -0.0429 -0.1298 -0.2470
18477W        W19341  19.037  18.539  15.948 -0.0106  0.0452  0.0988
18478W        W19342  16.511  23.629  12.425 -0.2343  0.0247  0.1831
18479W        W19343  11.937   0.985  16.934  0.0463 -0.1250 -0.0909
18480W        W19344  17.796  24.463   0.518 -0.0862  0.2017 -0.0537
18481W        W19345  16.872  19.058  13.076  0.1148 -0.0825  0.1071
18482W        W19346  27.876  18.243  10.582 -0.1142 -0.4556 -0.1222
18483W        W19347   2.220   7.289  21.838 -0.1357  0.1353  0.0592
18484W        W19348  19.575  22.790  10.513 -0.1045 -0.0392 -0.2257
18485W        W19349  27.567   1.798  10.996  0.1243 -0.1354 -0.2030
18486W        W19350  26.129  25.067  13.626  0.1350 -0.3535  0.2284
18487W        W19351  27.883  11.945  10.866 -0.1543 -0.0930  0.1402
18488W        W19352  14.410   3.918  14.871 -0.0417 -0.2631  0.0568
18489W        W19353   9.725  21.386   8.050  0.2341  0.4125 -0.1398
18490W        W19354   9.486  14.852  13.515  0.0741  0.3797  0.1261
18491W        W19355   0.033  17.282  23.770 -0.0460 -0.0296 -0.1061
18492W        W19356   9.410  21.076  14.418  0.2905  0.4275  0.1651
18493W        W19357   8.038  25.887  22.908  0.0890  0.1716 -0.2062
18494W        W19358   2.263  23.715   1.055 -0.1786 -0.0995 -0.0747
18495W        W19359  16.254  28.526  16.815 -0.0655 -0.0775  0.2851
18496W        W19360  24.500  16.655  21.720 -0.3134 -0.0113  0.0958
18497W        W19361  13.568  24.523  22.188  0.3780 -0.0783 -0.4674
18498W        W19362  19.139  18.707   4.898 -0.0274 -0.0375 -0.1540
18499W        W19363  19.593   4.633  20.149 -0.2228  0.2991  0.3037
18500W        W19364  13.538  18.172  11.441 -0.1580  0.1072  0.1283
18501W        W19365  22.375  21.156  18.919 -0.0752 -0.0980  0.0013
18502W        W19366   5.560  26.830  15.586 -0.1013  0.0746 -0.1235
18503W        W19367  10.979   5.476  27.100 -0.1828 -0.0281 -0.4344
18504W        W19368  17.176   4.339   1.787  0.2450 -0.0472 -0.1768
18505W        W19369  23.985   4.118  13.771  0.0020  0.0123 -0.2913
18506W        W19370  24.350  14.053  22.352  0.2309  0.1329 -0.0047
18507W        W19371   2.870   5.553  25.086 -0.0766  0.2964  0.1149
18508W        W19372  21.526  28.136  18.175  0.0796  0.1079 -0.3028
18509W        W19373  16.854  12.039  16.619  0.1201  0.1513 -0.0503
18510W        W19374   9.941  16.040  28.965  0.4508  0.0376 -0.2362
18511W        W19375  26.097   6.363  24.867  0.0849  0.2698 -0.4172
18512W        W19376  18.262  13.508  24.381  0.0357  0.0086  0.0487
18513W        W19377  25.267   0.371  19.246 -0.1947  0.2502  0.0110
18514W        W19378   3.955  23.047  25.009 -0.1038  0.2262 -0.3196
18515W        W19379  28.807  17.899  18.386  0.1217 -0.2754  0.0806
18516W        W19380   2.487  12.727  11.595 -0.3629 -0.2329 -0.1500
18517W        W19381   1.100  21.951   8.170  0.1988  0.2117 -0.1778
18518W        W19382  26.155  16.022  12.872 -0.1562  0.4735 -0.2818
18519W        W19383  16.093  13.476   1.436  0.0465 -0.1127  0.0047
18520W        W19384   4.628  17.465  21.632 -0.2141 -0.1856  0.0047
18521W        W19385   7.275  25.880  17.166 -0.0444  0.0391 -0.1591
18522W        W19386  21.912  15.502  18.881  0.0767 -0.1510  0.1106
18523W        W19387  26.285   2.210  23.147 -0.0997 -0.0499 -0.2823
18524W        W19388   9.214  11.847  13.196 -0.0616 -0.3084  0.0427
18525W        W19389  17.391   1.250  14.695 -0.0068 -0.0261  0.2114
18526W        W19390  18.195  15.841   8.278  0.3452 -0.2271  0.0126
18527W        W19391  21.149  24.780  23.170  0.1890  0.0419  0.2180
18528W        W19392   3.727  19.698  18.274  0.1887  0.1385  0.0613
18529W        W19393  26.575  10.339  24.176  0.0093  0.0799 -0.2279
18530W        W19394   2.023  26.373  23.084  0.3722  0.4158 -0.2867
18531W        W19395  17.566  25.039  16.301  0.2817  0.3307 -0.1275
18532W        W19396   8.171  14.830  13.250 -0.1278 -0.1911 -0.4925
18533W        W19397   1.057  13.745   7.673 -0.2475  0.1200  0.0724
18534W        W19398   5.177  25.262   8.164 -0.2341 -0.1104  0.0986
18535W        W19399  15.270  13.810  11.192  0.0396  0.1157  0.2088
18536W        W19400   1.968  21.728   5.485 -0.0372  0.0708  0.1577
18537W        W19401  17.203  25.543  19.378 -0.1846  0.1363  0.0135
18538W        W19402   9.891   2.044  18.392  0.0539  0.0429  0.1198
18539W        W19403  26.947  16.006  27.611  0.0691  0.1816 -0.0045
18540W        W19404   8.937  19.682  16.213  0.4874 -0.0631 -0.0160
18541W        W19405  19.118  20.335  19.235 -0.1481  0.0929  0.2683
18542W        W19406   0.015  28.555  16.426 -0.0392  0.0537 -0.2911
18543W        W19407  18.105  22.799  13.873 -0.2226  0.0034  0.0793
18544W        W19408   5.391  19.114  12.572  0.0608  0.2870 -0.2558
18545W        W19409   9.361  14.721  26.800 -0.1389 -0.1463  0.0900
18546W        W19410   6.459   1.044  12.046  0.0700  0.0112  0.0947
18547W        W19411  28.483  10.254  21.131  0.2941 -0.4052  0.3471
18548W        W19412  29.136  21.259  17.621 -0.3325  0.0283 -0.0102
18549W        W19413  14.001  21.995   3.867  0.1185 -0.2074  0.0503
18550W        W19414  18.236  10.105   0.869  0.1822  0.0290 -0.0273
18551W        W19415  11.987  12.126   8.507 -0.0448 -0.2986 -0.1236
18552W        W19416  24.579   4.617   0.658  0.2235 -0.1958  0.0886
18553W        W19417   3.621  23.832  11.801 -0.1442  0.2230 -0.2303
18554W        W19418  19.304  21.115  14.967 -0.0851  0.0568  0.1987
18555W        W19419   4.624  19.145   0.388 -0.0316  0.0601 -0.0701
18556W        W19420  24.707  25.646   9.643  0.1404 -0.2786  0.2534
18557W        W19421  13.848  27.773  27.445  0.1077 -0.2306 -0.1308
18558W        W19422  21.091  23.146  18.161 -0.1134  0.1464 -0.0598
18559W        W19423   5.157  27.178   1.971 -0.2374 -0.0288 -0.2142
18560W        W19424   2.333  27.100  17.622  0.0308  0.0645 -0.1949
18561W        W19425  23.161  26.615   6.128 -0.1963 -0.0670  0.0282
18562W        W19426   1.818  18.684  12.198 -0.2218 -0.1034  0.1061
18563W        W19427  12.151  19.293  17.791  0.0844  0.0343 -0.1989
18564W        W19428   1.206   4.935   5.910 -0.2226 -0.1579  0.1131
18565W        W19429  28.038  16.414  22.784  0.0594 -0.0815 -0.1194
18566W        W19430  15.674  16.802  21.589 -0.0408  0.1204  0.1346
18567W        W19431   1.908  13.225  21.767  0.1586 -0.0666  0.0895
18568W        W19432  10.423   9.227  15.652  0.0841  0.1051 -0.0223
18569W        W19433  18.689  26.204  11.902 -0.0731 -0.0432  0.0916
18570W        W19434   4.853  18.288   1.076  0.2867 -0.2115 -0.1476
18571W        W19435  10.201  18.015   2.478 -0.0770 -0.1028 -0.1394
18572W        W19436  26.489  23.056  18.771 -0.1021 -0.2226  0.1199
18573W        W19437   6.622   2.807   9.642  0.2890  0.1150 -0.2375
18574W        W19438   6.552  16.675  15.054 -0.2002  0.0733  0.0450
18575W        W19439  28.183  23.306  22.406 -0.0578 -0.0691 -0.0637
18576W        W19440  17.074   1.258  13.570 -0.5800  0.3978 -0.0029
18577W        W19441   4.666  18.278  27.206 -0.2649  0.1001 -0.0034
18578W        W19442  27.931   1.370  23.307 -0.2857 -0.4134 -0.3998
18579W        W19443  12.500  13.793   1.216  0.0238  0.1875 -0.0628
18580W        W19444  24.657  20.248   0.082 -0.1237  0.1483 -0.3338
18581W        W19445  18.542  23.295   6.559 -0.2768 -0.0476  0.1715
18582W        W19446  24.607   8.052  16.199  0.1244  0.2533 -0.1224
18583W        W19447  22.722   0.652  11.034 -0.0407  0.2115 -0.3487
18584W        W19448   9.665  24.283  19.025 -0.1312 -0.0310 -0.0883
18585W        W19449  24.603  17.527  22.268  0.0261 -0.3139 -0.1703
18586W        W19450  28.968  16.536   8.141  0.0482  0.1744  0.0279
18587W        W19451  28.527  16.020   1.352  0.3693 -0.0645  0.0802
18588W        W19452  29.096   0.779   5.797 -0.0910  0.0183  0.1990
18589W        W19453   4.717  26.920  28.849  0.1234  0.0093  0.1851
18590W        W19454   8.361  11.725  16.922 -0.3323  0.0487  0.1782
18591W        W19455  18.723  18.748  14.025  0.0723  0.0271 -0.1288
18592W        W19456  22.475  16.343  20.503 -0.2564  0.1437 -0.0429
18593W        W19457   3.654  26.013  13.094  0.3256  0.0822 -0.3440
18594W        W19458   5.453   0.668   5.799  0.1668 -0.1620 -0.1282
18595W        W19459   0.436  19.539  27.510 -0.3003 -0.0605 -0.1006
18596W        W19460  22.478  13.405   2.937 -0.0767  0.2017 -0.1876
18597W        W19461  13.995  20.664  24.380 -0.0024  0.0638  0.1090
18598W        W19462   6.819  22.032  19.167  0.3354 -0.0528 -0.2056
18599W        W19463   5.480  26.190  24.706 -0.1631 -0.0736 -0.1627
18600W        W19464  27.352   0.088  16.133 -0.1325 -0.0043  0.1404
18601W        W19465  18.313  11.275  18.882  0.0059  0.0586 -0.2651
18602W        W19466  17.109  20.693  26.011 -0.1340  0.2136 -0.3036
18603W        W19467  28.939  15.827  17.022  0.0313 -0.2865  0.1678
18604W        W19468  28.093  22.162  13.493 -0.0874  0.0736  0.0749
18605W        W19469   4.454   7.502  28.739  0.1549  0.1902 -0.1378
18606W        W19470  13.316  21.741  15.260  0.2254  0.0740  0.0852
18607W        W19471  24.517  11.252  14.252 -0.0056  0.0017  0.0070
18608W        W19472  17.400  24.469  12.334 -0.0861 -0.0283 -0.1749
18609W        W19473  26.232  21.108  26.634  0.1316 -0.1032  0.0074
18610W        W19474   3.887  27.086   0.056  0.1167  0.1517  0.0951
18611W        W19475  28.088   4.365  28.709  0.2538 -0.3158 -0.0449
18612W        W19476  10.273   2.425  13.118 -0.1050  0.2158  0.0416
18613W        W19477  25.624  15.464  16.309 -0.3033  0.0092 -0.0347
18614W        W19478  13.082  20.636  22.329 -0.0235 -0.1216  0.0500
18615W        W19479  27.900  14.837  15.695  0.0764  0.0473 -0.1808
18616W        W19480  18.934  23.294  13.607  0.0299  0.0203 -0.0766
18617W        W19481   0.800  11.428  24.309 -0.0135 -0.0109  0.1550
18618W        W19482  14.904   1.497  15.769 -0.0796  0.0063 -0.1845
18619W        W19483  23.309  19.862   6.858 -0.2123  0.0832  0.0769
18620W        W19484   3.118  19.738   2.445  0.3338 -0.0532  0.0985
18621W        W19485  25.254   4.789  24.387  0.2316  0.1668 -0.3871
18622W        W19486  27.269   0.868   6.347  0.1073 -0.4092 -0.0921
18623W        W19487  18.206   4.761   2.999 -0.3058 -0.0122 -0.1507
18624W        W19488   5.715   2.198   7.464 -0.0164  0.0535  0.3880
18625W        W19489  10.869  28.052   1.487 -0.2155 -0.2093 -0.2159
18626W        W19490  25.598  24.621  20.853 -0.0951  0.1822  0.0495
18627W        W19491   9.204   5.286  25.242 -0.2981  0.0286  0.0662
18628W        W19492  18.459  14.846  12.754  0.1260 -0.2735 -0.0520
18629W        W19493  15.392  27.712   5.615  0.3682 -0.0292 -0.0552
18630W        W19494  21.917  20.011  22.454 -0.0917  0.0680 -0.1153
18631W        W19495   5.397  15.257   1.425 -0.2278  0.1179  0.1435
18632W        W19496  25.571   0.391   8.164 -0.2632 -0.2091  0.1791
18633W        W19497   1.090  20.482   5.084 -0.0608 -0.0606 -0.4678
18634W        W19498   0.836  20.861  26.750  0.0944 -0.0174 -0.2344
18635W        W19499  18.817  20.511  28.937  0.0623 -0.3172  0.3876
18636W        W19500   2.860   7.587  18.030  0.1352 -0.4515 -0.0281
18637W        W19501   9.043  18.154  27.765  0.1464 -0.2867  0.1796
18638W        W19502  27.319   3.127  18.169 -0.1467  0.0523  0.0674
18639W        W19503  14.534  12.839  17.790 -0.0563 -0.0546 -0.2263
18640W        W19504  23.587  11.933  21.246  0.2953  0.1580  0.0246
18641W        W19505  26.576  26.366  17.557  0.0376 -0.1845  0.0982
18642W        W19506  11.137  23.894   0.375 -0.0729 -0.0582  0.0357
18643W        W19507  23.682  20.734  18.855  0.2814  0.1167 -0.0951
18644W        W19508   6.402   3.208   1.436  0.1754  0.0906  0.1436
18645W        W19509  22.415  12.984  15.436  0.2634  0.1456 -0.1899
18646W        W19510  15.203  24.667  23.408 -0.0832  0.0163 -0.2224
18647W        W19511  28.887  23.083   3.181 -0.0865  0.0930  0.1014
18648W        W19512  10.222  22.383  11.256  0.0806  0.0146 -0.0861
18649W        W19513  18.123  16.924   5.187  0.0110  0.2907  0.1232
18650W        W19514   3.491  21.923  13.354  0.1442 -0.1747  0.1618
18651W        W19515  23.345  14.167  16.457  0.1631  0.0209 -0.2526
18652W        W19516  28.807   7.777   8.479  0.1818  0.0198 -0.0224
18653W        W19517  11.417   0.738  10.456  0.0636 -0.2892  0.1455
18654W        W19518   8.442   0.288  10.106  0.1311  0.1479 -0.2367
18655W        W19519  22.161  27.786   8.785 -0.1785  0.1582  0.1892
18656W        W19520  20.416   7.557  10.696  0.2238  0.0978 -0.1429
18657W        W19521  17.934   8.126  15.821 -0.0590  0.0917  0.0869
18658W        W19522  13.531   2.971  12.117 -0.0105  0.1876 -0.0865
18659W        W19523  19.884  21.343  19.576 -0.0503  0.0019  0.2694
18660W        W19524   2.447   2.243  10.817  0.1681  0.2270 -0.2550
18661W        W19525  28.704  27.165   2.919 -0.1283  0.2809  0.0549
18662W        W19526  28.017  27.569  14.965 -0.2060 -0.0933 -0.4587
18663W        W19527   4.502   7.443  16.361 -0.0763 -0.4404  0.0404
18664W        W19528  27.844  18.937   7.786  0.0029  0.3041 -0.3083
18665W        W19529  24.448  18.491  27.996 -0.0176  0.1359 -0.0556
18666W        W19530  28.714  25.861   0.655  0.0454  0.1286 -0.1447
18667W        W19531   1.293   1.335  22.135 -0.0829  0.0232 -0.0737
18668W        W19532  18.851   2.419   8.573  0.3096 -0.1499  0.2407
18669W        W19533   6.330  27.355   4.391 -0.0953 -0.0243 -0.1780
18670W        W19534   8.163  21.049  26.672  0.1493 -0.3949 -0.1071
18671W        W19535   3.762  22.137  17.743 -0.1160  0.1105  0.1356
18672W        W19536  17.748   4.406  20.157  0.0941  0.0549  0.1433
18673W        W19537  24.725  26.982   1.012 -0.1240  0.3763 -0.2436
18674W        W19538  13.860   5.424   7.210  0.0437 -0.0131  0.0917
18675W        W19539  28.716  11.999   6.953  0.2138 -0.1040 -0.2637
18676W        W19540  11.265   8.807  18.382  0.3207  0.0428  0.1530
18677W        W19541  26.567  14.910  27.386  0.0465  0.1776 -0.0216
18678W        W19542   3.001  13.480   4.100 -0.0972  0.1584  0.0101
18679W        W19543  25.038  12.613   9.979 -0.1785 -0.1130  0.0409
18680W        W19544   5.778  27.020  10.817 -0.3404  0.1264  0.1085
18681W        W19545   4.044  10.305   3.212  0.0099 -0.2173  0.1072
18682W        W19546   4.123  13.190  27.598  0.0051  0.2043  0.0886
18683W        W19547  15.607   1.431  28.327  0.0030 -0.3222  0.1554
18684W        W19548   3.150  19.809   1.416 -0.2010 -0.3265 -0.2771
18685W        W19549   2.578  21.221  16.202 -0.1869 -0.0504 -0.1046
18686W        W19550  27.591  19.410  15.234 -0.2074  0.0528 -0.1239
18687W        W19551  19.414  17.039   7.557 -0.1639  0.1388  0.4321
18688W        W19552   1.448  14.565  16.634  0.1661  0.2305  0.0339
18689W        W19553   0.631  19.339  14.562  0.1888 -0.0661  0.0964
18690W        W19554   0.835  24.659  19.242  0.1556  0.0312 -0.3230
18691W        W19555   0.531   4.298  22.350  0.2364 -0.1996 -0.3048
18692W        W19556   5.224  14.779  25.004  0.2095  0.0682 -0.3416
18693W        W19557  27.614  15.274  14.260  0.0926 -0.1255  0.0469
18694W        W19558   2.540  26.925  21.654  0.1021  0.0117  0.1784
18695W        W19559   0.357  27.281   9.734 -0.0432  0.0671 -0.1390
18696W        W19560   7.172  20.736   5.206  0.0764 -0.0925  0.0561
18697W        W19561  16.781  23.250  22.704  0.1749 -0.0447  0.1142
18698W        W19562   9.999  21.931   2.493 -0.0560 -0.0222  0.0758
18699W        W19563  14.600  20.847  10.366 -0.0150 -0.1858  0.2077
18700W        W19564  28.689  14.231   5.051  0.0281 -0.0427  0.2003
18701W        W19565   4.516  19.428  26.940 -0.0868 -0.0527  0.0101
18702W        W19566  11.045  25.032   2.736  0.0897 -0.2536 -0.1085
18703W        W19567  27.240  20.707  26.171  0.2943  0.0450  0.2136
18704W        W19568  28.922  17.434   5.453  0.0112  0.1542 -0.0422
18705W        W19569   1.597   6.346  15.543 -0.0543  0.0560  0.1418
18706W        W19570  29.096  16.334   6.987  0.1234 -0.0882  0.2135
18707W        W19571  26.458  17.507  15.262 -0.2446  0.2202 -0.0876
18708W        W19572   2.898  16.853  20.144  0.0206 -0.0754 -0.2066
18709W        W19573   4.411  16.288  11.408 -0.2726  0.0478  0.2564
18710W        W19574  25.385   0.453   0.255 -0.0528  0.1215  0.0609
18711W        W19575   7.069  12.926   4.525  0.0733 -0.1960 -0.1379
18712W        W19576  26.875  23.856  16.278 -0.0390 -0.4444 -0.1055
18713W        W19577   9.684  16.606  11.183 -0.0657 -0.1315  0.1835
18714W        W19578  15.532   1.866   5.258  0.2992 -0.0726 -0.3542
18715W        W19579   7.601  22.405   9.308  0.2241  0.1172 -0.2078
18716W        W19580  26.983  12.617  21.416  0.0005 -0.2712  0.0944
18717W        W19581  22.039  13.985  22.718 -0.0789  0.0617  0.1632
18718W        W19582  24.576  17.469  10.144  0.2288 -0.0240 -0.0584
18719W        W19583   5.064  24.167  22.677  0.0266 -0.2786 -0.0873
18720W        W19584  27.898   3.092  28.526  0.0189  0.0660 -0.0572
18721W        W19585  22.060  22.756  10.912 -0.0996 -0.0453 -0.0633
18722W        W19586   5.136   1.652  16.666 -0.0747  0.0352  0.0741
18723W        W19587  15.913  24.282   1.545  0.2236  0.0339 -0.0321
18724W        W19588  16.181  18.915  21.788  0.3294  0.1515 -0.1680
18725W        W19589   2.664  24.712  26.863  0.1669  0.0135  0.1505
18726W        W19590   5.794  21.751  25.202 -0.0996 -0.0560 -0.0074
18727W        W19591  14.025  19.433   0.100  0.0280 -0.0100 -0.0945
18728W        W19592   7.731  23.137   0.953 -0.2171 -0.3189  0.1361
18729W        W19593  20.666  15.963  25.609 -0.2722 -0.0333 -0.1424
18730W        W19594   3.406  15.917  28.685 -0.2129 -0.1639 -0.1566
18731W        W19595  25.871  18.107   6.158  0.1549 -0.0829 -0.0718
18732W        W19596   0.093  13.641  21.983 -0.1421 -0.0569 -0.0128
18733W        W19597  27.532  23.476  24.443  0.1842  0.1101 -0.1855
18734W        W19598   9.308  18.846  25.658 -0.0941 -0.0613 -0.0656
18735W        W19599   3.359   8.996   4.332 -0.2673 -0.1881  0.0945
18736W        W19600  14.709  16.415  19.488 -0.1198  0.1449  0.0092
18737W        W19601  23.269  10.379   2.443  0.1250  0.2988 -0.0356
18738W        W19602  13.085  11.552  21.715 -0.0156  0.1628  0.1376
18739W        W19603   2.687  26.830   1.810  0.1002 -0.0480 -0.0465
18740W        W19604  27.695  28.898   2.961 -0.0816  0.1713  0.3129
18741W        W19605  27.693  23.422  10.497 -0.1065  0.4641  0.2315
18742W        W19606   2.976   0.378  21.969 -0.2261 -0.1766 -0.1243
18743W        W19607   2.352  24.072  15.514 -0.0280  0.2224 -0.0826
18744W        W19608   5.260  20.299   4.384 -0.0304  0.2760 -0.2358
18745W        W19609  19.452  28.437  23.822 -0.3140 -0.0911  0.3164
18746W        W19610  14.744   1.542  26.150  0.2241 -0.1339  0.1448
18747W        W19611   4.982  24.498  14.795 -0.4056  0.2018 -0.1711
18748W        W19612  24.835   0.610  23.204  0.1805  0.1917  0.1899
18749W        W19613   9.378  27.713  29.069  0.3035 -0.1662  0.1675
18750W        W19614   8.579  28.447   1.227 -0.2128  0.0425  0.0178
18751W        W19615  27.988  12.789   0.953  0.3110  0.0084 -0.0685
18752W        W19616   6.901  10.774   5.682 -0.0544  0.3156  0.1111
18753W        W19617  24.793  19.857  21.312 -0.1408 -0.0497 -0.1109
18754W        W19618   3.850   9.640  17.402 -0.1747 -0.1133 -0.0814
18755W        W19619  13.108  20.199  15.767  0.1347 -0.3910 -0.0789
18756W        W19620   6.922  22.285  22.050 -0.0750  0.1248 -0.0307
18757W        W19621  27.611  19.380  25.174  0.0410 -0.0510  0.2496
18758W        W19622   5.389   2.194   2.168  0.0934 -0.0604  0.1233
18759W        W19623  25.435   6.832  13.444 -0.1877  0.0640 -0.1563
18760W        W19624  24.221  19.351  14.849 -0.2013  0.1796  0.2300
18761W        W19625   5.024   3.906  26.874 -0.0987 -0.2297 -0.0553
18762W        W19626   3.964  11.407   0.310  0.0977  0.1366  0.2465
18763W        W19627  18.386  11.195  13.556  0.1916  0.0665  0.0183
18764W        W19628   3.868  22.156  13.718 -0.4523  0.0840  0.3214
18765W        W19629  27.483  27.538   8.848  0.2866  0.1723  0.1156
18766W        W19630  27.575  26.995  21.924 -0.0945  0.0057 -0.0189
18767W        W19631  11.292  19.982  11.402 -0.2516  0.3292 -0.0134
18768W        W19632   4.488  21.317  29.024  0.2845 -0.0406 -0.1013
18769W        W19633  15.276  23.283  23.553  0.1174 -0.0929  0.1387
18770W        W19634  27.580   4.134   0.534  0.0238 -0.0601 -0.2791
18771W        W19635   3.143   1.104  15.206  0.0119  0.1847 -0.1497
18772W        W19636   4.527   3.598  10.441  0.2134  0.0814 -0.2287
18773W        W19637  22.619  13.015  12.281 -0.0103  0.0620 -0.1340
18774W        W19638   5.378  19.801  24.553 -0.2577  0.2365  0.0555
18775W        W19639   7.167  23.068  22.580 -0.3410 -0.1643  0.1150
18776W        W19640  12.170  26.727  21.596 -0.1023 -0.1396 -0.1246
18777W        W19641   7.671  25.201  20.259 -0.2709 -0.1789 -0.1444
18778W        W19642   6.893  20.670  25.915  0.1201  0.1633 -0.2276
18779W        W19643   2.951  22.677  25.060 -0.1114 -0.1896  0.1625
18780W        W19644  10.586  17.951  17.937 -0.0848  0.1336 -0.1990
18781W        W19645  15.600   8.351  24.589 -0.0622  0.2552  0.3000
18782W        W19646   9.081   5.171   5.769  0.3668  0.2600  0.0078
18783W        W19647   1.300  26.765  26.379 -0.0434 -0.2025  0.0140
18784W        W19648   8.959  20.044  22.492 -0.1789 -0.1418  0.0828
18785W        W19649   6.311  15.086  12.938  0.1853  0.1233 -0.3272
18786W        W19650   0.702  16.015   0.795  0.0895 -0.2616 -0.3063
18787W        W19651  18.450   3.501  15.000 -0.1657 -0.2348 -0.1155
18788W        W19652   7.137   3.169  11.714 -0.0702 -0.0301  0.1021
18789W        W19653  27.121   0.837  24.763 -0.1499  0.0162  0.2692
18790W        W19654  25.964  24.913  24.911  0.3164  0.1204 -0.1592
18791W        W19655   3.385  11.900  28.735  0.1425 -0.0712  0.1295
18792W        W19656  23.677  23.785   7.525  0.2940 -0.0056 -0.2154
18793W        W19657   9.408  28.643  20.055 -0.4480 -0.1374  0.3116
18794W        W19658   7.113   2.535  25.940 -0.1491  0.1476 -0.0817
18795W        W19659  15.796  15.652  22.126  0.1981  0.1275 -0.2119
18796W        W19660   5.661   3.292  13.849  0.0072  0.1293 -0.1218
18797W        W19661  17.622  21.969  21.007  0.0157  0.2242  0.0514
18798W        W19662   7.964  20.506  25.625  0.0078  0.4044  0.0025
18799W        W19663  10.441  20.175  17.257  0.0253  0.2056  0.1120
18800W        W19664  29.125   3.206  22.764 -0.0130 -0.1602  0.0460
18801W        W19665   4.757  26.813   1.091  0.0732  0.1389  0.0781
18802W        W19666   0.146  15.002  24.881  0.2100 -0.2374 -0.0999
18803W        W19667   6.632   4.684  19.453  0.2634 -0.2542  0.0722
18804W        W19668   2.649   8.208  16.497  0.2963  0.0973  0.2449
18805W        W19669  11.869  14.971  14.447  0.0432 -0.2034 -0.1487
18806W        W19670  21.158   6.248   2.832 -0.2449 -0.0233  0.0136
18807W        W19671  17.550  18.900  21.206  0.0587 -0.1046  0.1686
18808W        W19672  27.015   6.833  16.952  0.2731 -0.1976 -0.0537
18809W        W19673  22.123  24.976  13.750 -0.3234 -0.2589  0.0381
18810W        W19674   5.449   8.879  12.206 -0.3309 -0.3851 -0.0678
18811W        W19675  25.716   0.950  25.868 -0.1901 -0.0316 -0.2639
18812W        W19676   5.933  25.751   3.494 -0.1168  0.1114 -0.0938
18813W        W19677  16.778  22.056  27.560  0.0009 -0.0104 -0.1190
18814W        W19678  23.734  25.693  21.174  0.2571  0.2411  0.0592
18815W        W19679   6.902  17.945  20.530 -0.3733  0.1003 -0.1559
18816W        W19680   8.656  12.817   3.156 -0.2124 -0.0849 -0.0752
18817W        W19681   8.251  23.680  23.108 -0.1126 -0.0710  0.3161
18818W        W19682  23.946  16.538  17.236  0.0876  0.0149  0.1142
18819W        W19683  20.024  22.394  23.684  0.2810 -0.3253 -0.2137
18820W        W19684   9.045   8.494  19.666  0.2497  0.1333 -0.0365
18821W        W19685   6.078  15.381   5.616  0.1620 -0.0018  0.0718
18822W        W19686  28.213   3.406  24.712 -0.0645  0.0683 -0.0681
18823W        W19687   5.634  14.322  22.852  0.2112  0.1816  0.0846
18824W        W19688   8.662  22.470   0.058  0.1703  0.2969 -0.1166
18825W        W19689  12.695  15.202  26.948 -0.0304  0.2330  0.2113
18826W        W19690   5.218  21.968  13.110 -0.1869 -0.0982 -0.2031
18827W        W19691   7.964  19.139  27.227  0.0445  0.0676  0.0136
18828W        W19692  15.378  24.159   8.243 -0.2104  0.1230 -0.0603
18829W        W19693  15.103  11.680  23.247  0.4519 -0.1599  0.1413
18830W        W19694  18.259  27.869  22.247 -0.1003 -0.2174 -0.1017
18831W        W19695  25.382  22.222   7.248 -0.3497 -0.0772  0.1699
18832W        W19696   3.143   2.990  26.066 -0.0289 -0.3097 -0.1385
18833W        W19697   6.287  22.059   6.399  0.1679 -0.0168  0.0645
18834W        W19698  28.382  18.809  20.072 -0.2012 -0.1019 -0.2613
18835W        W19699   5.409  28.547  16.262 -0.0905  0.2439  0.1868
18836W        W19700   3.338  25.836  13.486 -0.1747 -0.0172 -0.0962
18837W        W19701  19.557  20.589   3.066 -0.0036 -0.1429  0.2664
18838W        W19702   0.985   3.200  17.746 -0.1420 -0.2279  0.0697
18839W        W19703  15.139  26.737  11.980 -0.2230 -0.1785 -0.0184
18840W        W19704  19.084  23.161   0.951  0.1170 -0.0824  0.0898
18841W        W19705   9.951  21.968  19.681  0.1858  0.1213  0.2773
18842W        W19706  23.716   6.341  17.843  0.1847  0.2366  0.0008
18843W        W19707  10.138   1.468  17.687 -0.2393 -0.0664 -0.1499
18844W        W19708   4.259  19.482  20.412 -0.0900  0.1142 -0.0235
18845W        W19709  11.780  22.438  20.508 -0.1013 -0.0459  0.1172
18846W        W19710  19.643  25.666  24.624  0.2272  0.2720 -0.4192
18847W        W19711  17.505  20.455   2.194 -0.0225 -0.1033  0.0340
18848W        W19712  21.388   8.549  17.205 -0.0786 -0.3344  0.4884
18849W        W19713   4.263  12.876  13.366 -0.1346 -0.2041  0.0830
18850W        W19714  19.825   4.150  20.289 -0.0935 -0.0051  0.4884
18851W        W19715   5.030  11.096   3.229 -0.2255  0.1251  0.0510
18852W        W19716  12.151   8.263  19.183 -0.0151 -0.0332  0.0424
18853W        W19717   4.275   0.466  12.541  0.0452  0.0606  0.2007
18854W        W19718  15.032  21.630   4.222 -0.0424 -0.2681  0.0241
18855W        W19719  11.756  22.095   5.227 -0.1088 -0.1497 -0.2298
18856W        W19720  10.396  11.054  28.447 -0.0143 -0.1038 -0.0956
18857W        W19721   7.374   1.022  10.292  0.0921 -0.0938  0.0551
18858W        W19722   7.784  24.437  11.024 -0.0658 -0.2898 -0.0500
18859W        W19723  26.352  26.176   3.321 -0.0197  0.0761 -0.0886
18860W        W19724   1.537  26.740   5.587 -0.0699 -0.0891 -0.0387
18861W        W19725  27.788   1.417  11.274 -0.0210  0.4756 -0.4565
18862W        W19726  22.900  28.447  21.495 -0.0664  0.2493 -0.1727
18863W        W19727   5.035   6.351   4.664 -0.2100  0.1177  0.0482
18864W        W19728  29.049  18.792   7.294  0.1465 -0.2169 -0.2625
18865W        W19729  28.405   2.642   3.467 -0.0396  0.2750 -0.1417
18866W        W19730   3.920  19.031  26.323 -0.2187  0.1918 -0.0966
18867W        W19731   5.849   0.765   2.005 -0.2604  0.1109  0.0305
18868W        W19732  16.109   2.900   2.044 -0.2129  0.0969  0.0950
18869W        W19733  27.890  17.420  25.843 -0.1082  0.1550 -0.1881
18870W        W19734  26.628  14.729  27.949  0.2273 -0.0635 -0.0818
18871W        W19735  12.984  27.121  25.860 -0.1900  0.0032  0.0335
18872W        W19736  29.044   6.886   1.057  0.1441  0.1295  0.1672
18873W        W19737  14.340   4.735   6.745  0.0206  0.0620 -0.0847
18874W        W19738   1.327  18.917  15.682  0.0170 -0.0283  0.2825
18875W        W19739  17.148  26.945  22.707 -0.0869 -0.0108 -0.5494
18876W        W19740   7.255  14.161   8.285  0.0179  0.1142 -0.0049
18877W        W19741  24.269  27.500  28.333  0.0868  0.0986  0.0999
18878W        W19742  23.550  20.197   7.754  0.1940  0.0674 -0.0402
18879W        W19743   7.367  28.752  19.649 -0.0510 -0.0951  0.2574
18880W        W19744  14.233   8.248   4.269  0.3993  0.2097 -0.0086
18881W        W19745  24.528  21.135  14.361  0.1001  0.0700 -0.1173
18882W        W19746   6.820  16.442  22.441  0.0915  0.1477 -0.0052
18883W        W19747  24.037  12.418  10.947  0.1632  0.1699 -0.1205
18884W        W19748  26.526  15.668   1.758  0.1724  0.1560 -0.1065
18885W        W19749  23.731  16.890  17.002 -0.0854 -0.3691 -0.0483
18886W        W19750  13.352  12.652  20.962  0.1593 -0.1314  0.0338
18887W        W19751  22.531  29.036  25.336 -0.0402 -0.4287 -0.2898
18888W        W19752  14.208  21.029  14.650  0.2342 -0.2014  0.0124
18889W        W19753  27.274  22.447  21.110 -0.1483  0.6268 -0.1065
18890W        W19754  27.900  21.299  15.372  0.3646 -0.4021 -0.0852
18891W        W19755  12.201   0.742  20.095  0.0549  0.4666  0.2065
18892W        W19756   3.236  19.705  25.086  0.4807  0.0015 -0.1031
18893W        W19757   1.877   4.271  27.888  0.2357  0.0071 -0.0194
18894W        W19758   4.479  27.555  11.120 -0.0432 -0.0368 -0.2506
18895W        W19759  24.830   0.858  16.310  0.1381  0.0034  0.1541
18896W        W19760   0.061   5.336  14.871 -0.2648  0.0471  0.0477
18897W        W19761  10.543   2.225  19.366 -0.1747 -0.0890 -0.0833
18898W        W19762   0.999  21.529  18.252  0.2815 -0.2952 -0.1574
18899W        W19763  15.999   7.346  29.006  0.2174 -0.1854 -0.2672
18900W        W19764   0.699  22.676  17.792 -0.0453  0.1172  0.0532
18901W        W19765   2.892  11.589  11.552  0.0958  0.1028  0.0074
18902W        W19766   6.338  20.109   6.788  0.2436  0.1217  0.0444
18903W        W19767   2.249  22.239  18.446 -0.0291 -0.0351 -0.1997
18904W        W19768  26.959  16.160  27.093 -0.4562 -0.1519  0.0772
18905W        W19769  25.929  17.884   7.032 -0.1162  0.0331  0.3026
18906W        W19770   0.536   8.443  19.210  0.1910 -0.1394  0.1564
18907W        W19771   9.655  19.085   1.406 -0.3059 -0.1109  0.3175
18908W        W19772  21.488  23.998  25.611  0.4129 -0.1069  0.0750
18909W        W19773   7.302  17.755  23.144  0.0636  0.0779 -0.1137
18910W        W19774   0.761  18.862   5.885  0.0218  0.0864  0.0315
18911W        W19775   0.888  15.145  23.761 -0.1547 -0.0883  0.2275
18912W        W19776   9.520   7.103  12.863  0.0066 -0.0920  0.2372
18913W        W19777  23.279  12.938  22.860 -0.0610  0.1217  0.0387
18914W        W19778  23.955  22.820   2.561 -0.3608 -0.1332  0.1265
18915W        W19779  15.759  17.216  16.265 -0.0103 -0.3052 -0.0230
18916W        W19780  19.724   8.137  23.485  0.1348  0.0033 -0.1745
18917W        W19781  24.925  21.756  27.130  0.1401 -0.1080 -0.3938
18918W        W19782  11.882  27.527   2.335  0.2002  0.0743 -0.0306
18919W        W19783  19.174  20.808  16.103  0.0028  0.0115  0.1305
18920W        W19784   1.354  18.083   6.116 -0.3403 -0.1145  0.0499
18921W        W19785  28.881  13.679  11.564  0.0477 -0.2006  0.0071
18922W        W19786  17.721  17.955  13.361  0.1324  0.1388 -0.4356
18923W        W19787  27.916  24.333  24.870 -0.1472  0.0082 -0.3680
18924W        W19788  21.474   4.996  17.917  0.1438  0.0671 -0.1261
18925W        W19789  20.285  17.198  18.455 -0.2331  0.0676  0.0052
18926W        W19790  15.833  14.642  17.609  0.0956 -0.2888  0.1416
18927W        W19791  23.845  27.285  17.120  0.2003  0.0844 -0.1888
18928W        W19792   8.006  20.983  28.452 -0.0704 -0.1796  0.1551
18929W        W19793   7.853  12.236  29.084  0.2024  0.0388 -0.2149
18930W        W19794   8.738  25.106  13.679 -0.1296  0.1196 -0.0040
18931W        W19795   0.351  14.492   2.835  0.0396  0.1988  0.2832
18932W        W19796  13.128  11.794  27.948 -0.2579 -0.0300  0.2802
18933W        W19797   4.986  19.533  13.032  0.1627  0.0952  0.0292
18934W        W19798  26.243  20.017   2.056  0.2982  0.1808 -0.0760
18935W        W19799   7.252  10.166   4.381 -0.1818  0.1257 -0.2459
18936W        W19800  25.993  12.388  27.996  0.0902  0.3082  0.0318
18937W        W19801   2.486  19.101  25.023 -0.2006  0.1099  0.0005
18938W        W19802  17.895  23.916   6.346  0.0128 -0.2581 -0.0810
18939W        W19803  26.981  23.499  18.664 -0.2559  0.0542 -0.2814
18940W        W19804   9.245  14.503  14.510  0.3222  0.0889 -0.2024
18941W        W19805   6.062  28.881  24.396  0.1004 -0.1165  0.4081
18942W        W19806  20.602  24.137  25.369 -0.3012 -0.3628  0.0792
18943W        W19807  22.198  19.172  21.890  0.0463  0.1463 -0.2109
18944W        W19808   9.710  17.143  11.532  0.2295 -0.2555 -0.0222
18945W        W19809  14.127  19.395   6.093  0.1655  0.1687 -0.2673
18946W        W19810  10.492  13.360   3.971 -0.0932 -0.1119  0.0754
18947W        W19811   2.981   9.374   8.943 -0.1647  0.1209  0.3765
18948W        W19812  22.865  17.939   3.710  0.3137  0.0278 -0.4425
18949W        W19813  13.038  19.763  12.330  0.2424  0.1113  0.2222
18950W        W19814   4.552  13.238  17.896  0.1387 -0.0363 -0.3706
18951W        W19815   6.068  23.833   6.023  0.1022  0.0489 -0.0899
18952W        W19816  21.129  15.353   8.567  0.1303 -0.0699 -0.2161
18953W        W19817  28.604   9.746  15.244 -0.2072 -0.1071  0.1154
18954W        W19818  11.912  19.102  14.310  0.2525  0.0233 -0.1176
18955W        W19819   2.986  17.569  26.355 -0.5033  0.0809  0.1520
18956W        W19820  25.861  23.343  19.583  0.0477  0.0400 -0.1813
18957W        W19821  10.597  27.496  27.056  0.1772  0.2292  0.0763
18958W        W19822  16.329  22.763   1.207  0.0768  0.2235  0.1343
18959W        W19823  10.292  14.057  25.648 -0.2335 -0.1869 -0.0210
18960W        W19824  18.491   7.182  15.279  0.0584 -0.2165 -0.2158
18961W        W19825  24.893  27.438  27.402 -0.1669 -0.0350 -0.3145
18962W        W19826  20.127  16.083  25.793  0.0423  0.1438 -0.1405
18963W        W19827   7.837  14.319  15.328 -0.0770  0.1686  0.1893
18964W        W19828  14.270  26.568  19.177 -0.0600 -0.0811  0.1937
18965W        W19829  18.118  22.081  26.843  0.1313 -0.1006 -0.0880
18966W        W19830   3.674  16.289  17.456 -0.1109  0.0650  0.2065
18967W        W19831   4.009  23.406  28.007 -0.0536 -0.1198 -0.0281
18968W        W19832  28.616  28.783  11.430 -0.1590  0.2689  0.1151
18969W        W19833  27.909  26.871  22.369 -0.0361 -0.0930  0.2475
18970W        W19834  24.745   8.446  13.215  0.0019 -0.1392  0.1320
18971W        W19835  27.405   4.007  11.653 -0.0520 -0.0658 -0.2216
18972W        W19836   7.619  17.062  12.188 -0.0654  0.4771  0.2233
18973W        W19837   0.118   1.639  25.316  0.3329 -0.1620 -0.1668
18974W        W19838   9.682  16.534   9.243  0.4112 -0.1596  0.2330
18975W        W19839   5.265  12.834  27.146 -0.2280 -0.0855  0.3330
18976W        W19840   9.432  27.209  17.814 -0.1076 -0.0043 -0.1371
18977W        W19841  20.068  20.487   3.151  0.0512 -0.1183  0.1550
18978W        W19842  22.462  28.636  16.762 -0.1184 -0.3014  0.0043
18979W        W19843   3.738  24.864  20.402  0.1253 -0.0669  0.1286
18980W        W19844   1.516  23.855   1.141  0.1464  0.0429  0.0607
18981W        W19845   7.901  10.203  25.748 -0.0279 -0.1767  0.0913
18982W        W19846   3.239   9.106  27.371 -0.2630 -0.3031  0.0171
18983W        W19847  20.883  28.766  11.180 -0.1568  0.1889 -0.4020
18984W        W19848  25.234  26.081   2.530 -0.3648 -0.1751 -0.1293
18985W        W19849   3.411  23.567   9.533  0.2197  0.2267  0.0352
18986W        W19850  10.993  16.104  21.865  0.0798  0.0438 -0.0521
18987W        W19851  18.141   2.500   3.958 -0.2484 -0.2081 -0.2692
18988W        W19852   0.700   5.460  28.562  0.3191 -0.2252 -0.3479
18989W        W19853  17.031   9.323  24.471  0.1562  0.0714 -0.0523
18990W        W19854  15.058  22.521  14.035  0.0402  0.4448  0.0287
18991W        W19855   3.146  24.723  12.738  0.0392  0.3141  0.2267
18992W        W19856  26.526  23.833  21.153 -0.2724 -0.1411  0.2161
18993W        W19857   3.838  27.067  13.449 -0.1382 -0.0903 -0.0633
18994W        W19858  10.316  15.600  28.238  0.0206  0.1329  0.2853
18995W        W19859  25.826  16.914  23.197  0.2820 -0.2984 -0.1552
18996W        W19860   9.349  21.358  21.250  0.1348  0.0657 -0.0581
18997W        W19861  19.762  22.087   0.017  0.0994 -0.0402 -0.1196
18998W        W19862  18.756   1.696  10.220  0.0918  0.0978 -0.0375
18999W        W19863  27.636   2.339   6.181 -0.1512  0.0804  0.4100
19000W        W19864  13.762  10.369  12.651  0.2665 -0.0823  0.2091
19001W        W19865   6.918   5.095  10.832 -0.2461  0.0695 -0.2000
19002W        W19866  23.519  20.042   2.928 -0.0866 -0.2824 -0.3428
19003W        W19867   3.179  14.664  16.062  0.1292 -0.0665 -0.0368
19004W        W19868  18.717  26.268  10.637 -0.2182  0.1902  0.2201
19005W        W19869  22.794  20.124   1.648  0.2706 -0.0212  0.0305
19006W        W19870  28.577  24.067  12.065 -0.0296 -0.1346 -0.2112
19007W        W19871  23.722  13.668  12.260 -0.1090 -0.0328  0.1396
19008W        W19872  28.743  12.959   0.102  0.0184 -0.0206 -0.2505
19009W        W19873  29.127  27.106  22.186  0.0048  0.0401 -0.1876
19010W        W19874  14.418  18.142  28.745  0.2521  0.1323 -0.0589
19011W        W19875   2.674   1.676   5.818 -0.0031  0.3410 -0.0671
19012W        W19876   5.459  20.284  11.594 -0.0071 -0.1610  0.4984
19013W        W19877   1.212  25.895  11.192  0.2985  0.1528  0.1329
19014W        W19878  12.729  21.281  12.216  0.0112 -0.2501 -0.0958
19015W        W19879  23.283   9.537  28.293  0.0740  0.0784  0.0541
19016W        W19880   6.293  20.942  15.541  0.0696 -0.0458 -0.1268
19017W        W19881   4.840  18.639  28.108 -0.0632  0.2899  0.0791
19018W        W19882   5.531  22.873  22.948  0.0635 -0.2466  0.0120
19019W        W19883   6.624   0.543  20.308  0.1065  0.1172  0.1555
19020W        W19884  24.009   2.031   4.365  0.0004 -0.0806  0.2806
19021W        W19885   5.471  28.888  15.796 -0.4663 -0.0339 -0.0483
19022W        W19886  24.333  19.395  29.075  0.0967  0.2587  0.3576
19023W        W19887  18.004  13.039   7.105 -0.1404  0.3814  0.0733
19024W        W19888  28.026  25.382  25.998  0.1370  0.1048  0.2074
19025W        W19889  19.299   9.059  26.388  0.2325  0.1577  0.1343
19026W        W19890   0.314   4.430   5.032  0.3014 -0.0493 -0.2337
19027W        W19891   9.897  20.661  17.994  0.4490  0.1988 -0.1698
19028W        W19892  10.275   2.689  13.619  0.2146  0.0609  0.0015
19029W        W19893  28.226  22.886  23.035 -0.1403 -0.1053 -0.0424
19030W        W19894   4.426  13.242   2.795  0.0116  0.0629 -0.1708
19031W        W19895  10.167   0.372   8.271  0.0586  0.1472 -0.0211
19032W        W19896  24.782  18.448  18.867 -0.0120 -0.2385 -0.0035
19033W        W19897   3.042   3.559  15.964 -0.0328 -0.2124 -0.0682
19034W        W19898  24.924   1.546  13.097  0.0257 -0.1781  0.3914
19035W        W19899   8.118  24.835  17.148 -0.1400 -0.1087  0.1138
19036W        W19900   0.017   8.272   4.091 -0.1654  0.2306 -0.3925
19037W        W19901  15.921  21.327  13.563 -0.0526 -0.0108 -0.0145
19038W        W19902  16.485  26.134  28.261  0.0341 -0.2578  0.0448
19039W        W19903   6.784  10.579  25.315 -0.0449  0.0645 -0.0153
19040W        W19904   2.153   8.750  26.805 -0.1569 -0.0929 -0.1932
19041W        W19905  26.453  17.354  21.038 -0.2360 -0.0102 -0.0212
19042W        W19906   8.865  11.459   3.238 -0.4374  0.0068 -0.1057
19043W        W19907  28.110  15.386  14.087  0.1625 -0.1388 -0.2300
19044W        W19908  19.123  15.116  24.347  0.1349 -0.2024 -0.2182
19045W        W19909  28.719  17.651  23.575 -0.3834 -0.1045 -0.1109
19046W        W19910  16.571  10.259   9.157  0.0737  0.0458 -0.0514
19047W        W19911  18.319  20.114  11.205 -0.0358  0.0931  0.2750
19048W        W19912  20.406  20.695   7.869 -0.0780  0.2990 -0.2334
19049W        W19913   4.856  20.257   9.698 -0.0417 -0.1703  0.1376
19050W        W19914  27.576   0.966  16.052 -0.0732  0.2654 -0.1197
19051W        W19915   1.348   6.478  27.072 -0.0979 -0.2324 -0.1037
19052W        W19916  14.126  18.154  16.385  0.3657 -0.0942 -0.1102
19053W        W19917  28.250  18.436   1.190 -0.0740 -0.1226 -0.0948
19054W        W19918   0.053  24.879   3.805  0.0681 -0.0529  0.2403
19055W        W19919   9.601  23.672  26.080  0.1975 -0.1235  0.2287
19056W        W19920   0.205  11.577  12.774  0.0172 -0.2946 -0.2032
19057W        W19921  29.004   3.834   2.910 -0.1536 -0.0536  0.2494
19058W        W19922   0.195  12.752  28.365 -0.3141  0.1608 -0.0286
19059W        W19923  24.679  17.362  19.271 -0.0452  0.0261  0.1225
19060W        W19924   1.087   1.749   0.642  0.0980 -0.2058  0.0522
19061W        W19925   2.013  21.337   6.117  0.0712 -0.2776 -0.3555
19062W        W19926  25.579  21.324   0.375  0.1348 -0.1986  0.0154
19063W        W19927  24.453  29.091  17.866  0.2117 -0.1182 -0.0197
19064W        W19928  25.967   0.808  14.087 -0.0851 -0.1634  0.1373
19065W        W19929  19.000  14.592   4.459  0.2106 -0.2881  0.1434
19066W        W19930  10.930  24.686   5.827  0.0976  0.1114 -0.2967
19067W        W19931  13.885  26.523   6.772 -0.0458 -0.1075 -0.1166
19068W        W19932   1.416  15.039  12.672 -0.0582 -0.1379  0.1198
19069W        W19933   6.394  17.672   1.864  0.1993 -0.0253 -0.1193
19070W        W19934  14.834  18.263  10.886 -0.1880 -0.0368  0.0160
19071W        W19935  22.762  24.466  17.026 -0.3212  0.1619  0.4698
19072W        W19936   6.481   9.668   4.819  0.4365 -0.2971 -0.1042
19073W        W19937  18.502   8.528  27.493  0.0377 -0.0089  0.1052
19074W        W19938   5.138   5.311   5.962 -0.2123 -0.1609  0.1136
19075W        W19939  24.783  20.665  23.384  0.2242 -0.0521  0.0985
19076W        W19940   1.713  26.646  26.688  0.4590 -0.2134  0.3209
19077W        W19941  15.083  26.693  13.614 -0.0291  0.4859  0.0552
19078W        W19942   0.771   2.321  26.096  0.2968 -0.0074  0.4301
19079W        W19943   9.359  23.955  25.266  0.0410  0.4210 -0.1495
19080W        W19944   2.007  15.234  16.842 -0.0008  0.3577 -0.3166
19081W        W19945  18.715  16.746  21.605  0.1873  0.1757  0.0710
19082W        W19946   9.356  25.759  26.054  0.0383 -0.2373 -0.0583
19083W        W19947   2.319  12.083  10.448  0.0297  0.1271  0.0535
19084W        W19948   7.900  16.233  22.710 -0.1236 -0.0198 -0.1648
19085W        W19949   5.856  10.513  15.214  0.0365  0.2122  0.0978
19086W        W19950   5.094  22.786  11.859 -0.4445 -0.0874  0.1970
19087W        W19951  28.038   2.656   5.550 -0.0199  0.2451  0.1152
19088W        W19952   4.955  10.772  20.344  0.0452  0.2562 -0.0778
19089W        W19953   5.974  17.287   6.157 -0.1725  0.1685  0.0010
19090W        W19954  12.283  28.942  13.322  0.2634 -0.1498 -0.0954
19091W        W19955  22.556  20.086   7.830 -0.2680 -0.1337  0.1111
19092W        W19956  17.953  18.787  27.632 -0.2506  0.0711  0.0564
19093W        W19957   5.497  10.621  27.837 -0.1191 -0.1076 -0.0407
19094W        W19958   6.251  20.299   0.476 -0.3292 -0.3275 -0.2248
19095W        W19959   6.969   3.915  28.386 -0.0163  0.0825 -0.2431
19096W        W19960  13.876  22.068  19.692 -0.0118 -0.2363 -0.1453
19097W        W19961   4.315   2.304  26.515  0.0070 -0.1387  0.2400
19098W        W19962  21.748  16.412  27.466  0.0145  0.3187 -0.1324
19099W        W19963  22.927  17.142  27.645  0.2140  0.0978 -0.0050
19100W        W19964  15.712   8.391  16.517 -0.1593 -0.1400 -0.2554
19101W        W19965   6.576   2.310  20.194 -0.0828  0.1559 -0.3366
19102W        W19966  21.778  15.123  21.991  0.1163 -0.0754 -0.2899
19103W        W19967  12.511   7.870  13.774  0.1894 -0.1076  0.1419
19104W        W19968  21.810  20.414  13.637  0.0530  0.0734 -0.1887
19105W        W19969   2.858  18.003  10.009  0.2072 -0.1619 -0.1430
19106W        W19970  28.694  19.432  17.917 -0.1437  0.1676  0.1384
19107W        W19971  11.623  17.573   4.043 -0.0572  0.0841  0.0199
19108W        W19972  22.616   0.006   0.117  0.0269 -0.2228 -0.1710
19109W        W19973  22.582  21.997   8.797  0.0366 -0.1366  0.1720
19110W        W19974  11.909  16.757  25.707  0.0917 -0.2410 -0.1541
19111W        W19975   7.785  21.183   6.187  0.0337  0.1695  0.1452
19112W        W19976   2.643  26.523   2.727 -0.1615  0.0899  0.0809
19113W        W19977  15.237  28.143  12.586  0.1467  0.1229  0.1563
19114W        W19978   5.699  15.652   5.268  0.3614  0.1162 -0.1728
19115W        W19979   3.387   5.981   5.451  0.2378  0.0073  0.0639
19116W        W19980   4.038  20.809   0.973 -0.1125 -0.1757 -0.0552
19117W        W19981  14.507  22.651   7.574  0.0542  0.0845  0.2195
19118W        W19982  28.147  22.819  20.927  0.0495 -0.1744 -0.3070
19119W        W19983  23.463  13.737  17.556  0.0322  0.0385  0.0250
19120W        W19984   3.085  15.764  29.026  0.3184 -0.1445  0.1642
19121W        W19985   5.676  19.297  28.057 -0.0164 -0.2425  0.0642
19122W        W19986   4.096   8.131  13.874 -0.0957  0.1611 -0.1403
19123W        W19987   0.523  25.254  22.388  0.4232  0.2125 -0.1971
19124W        W19988  28.215  24.225  13.555 -0.2915  0.0988  0.1973
19125W        W19989   0.628  18.947  21.719 -0.2813 -0.0156  0.1663
19126W        W19990   1.653  17.053  28.081 -0.2113  0.0708 -0.1691
19127W        W19991  26.010  11.150  26.980  0.0698  0.1635  0.0373
19128W        W19992  15.686  24.986  21.738  0.0060 -0.3573 -0.1082
19129W        W19993  19.068  14.137   3.821 -0.2993 -0.2534 -0.1875
19130W        W19994   4.864  24.580  22.898  0.2116  0.2525  0.0380
19131W        W19995   4.319  18.246  27.524  0.1181  0.3203  0.0124
19132W        W19996   1.063  12.509  25.847  0.0456  0.0523  0.0742
19133W        W19997  10.763  18.155  19.291  0.1926  0.0882  0.0073
19134W        W19998  22.698  16.710  27.810 -0.2135 -0.2238  0.0668
19135W        W19999   9.456   9.610  10.785 -0.2449  0.1156 -0.3871
19136W        W20000  28.447   8.055   4.573 -0.0034  0.0787  0.1624
19137W        W20001  24.559  11.311  19.647  0.0749 -0.0796 -0.1488
19138W        W20002   6.453  22.433   2.433  0.1275 -0.1692 -0.2108
19139W        W20003   2.037   8.555  10.153  0.1385  0.0169  0.0609
19140W        W20004  23.096  27.706  17.384 -0.2012 -0.0014  0.0472
19141W        W20005  27.852  20.119  19.329 -0.1053 -0.2704 -0.0394
19142W        W20006   5.553  20.353   1.673  0.0291  0.3432  0.0021
19143W        W20007  11.802   8.855  25.071  0.0398  0.2071 -0.0433
19144W        W20008  12.134   2.580  24.162 -0.1292  0.0232  0.1456
19145W        W20009   2.919   5.439   2.609  0.0633 -0.1307  0.1486
19146W        W20010  22.364  24.122   5.218  0.1314  0.0807  0.0547
19147W        W20011  15.468  20.482  21.637 -0.0772 -0.2403 -0.2246
19148W        W20012  12.884   9.325  13.869  0.1402 -0.0906 -0.0863
19149W        W20013   6.813   4.150   5.313  0.2171 -0.4724  0.1142
19150W        W20014   3.849  22.935  28.212 -0.2338 -0.0494 -0.0838
19151W        W20015   9.349   8.610  22.028  0.1966  0.0886 -0.0154
19152W        W20016   0.651  21.664   6.712  0.0347  0.1588  0.2191
19153W        W20017  23.831   4.367  17.651  0.3096  0.2780 -0.1866
19154W        W20018  29.061  20.747  23.594  0.0045 -0.0297 -0.0462
19155W        W20019   7.210  24.891  17.336 -0.1382 -0.0229  0.1792
19156W        W20020   8.405  13.317   7.999  0.1534 -0.0645  0.1657
19157W        W20021  20.545  23.288   3.586 -0.2190 -0.1193  0.1520
19158W        W20022   1.789  26.965   2.095 -0.1630 -0.0181 -0.1363
19159W        W20023  25.121  23.222  21.983 -0.2602  0.0075  0.0039
19160W        W20024   1.737  25.269  26.694  0.0802 -0.0464 -0.0204
19161W        W20025  24.417  10.099   5.664 -0.1296 -0.5316 -0.0021
19162W        W20026  10.246  24.712  24.390  0.1176 -0.0883 -0.0599
19163W        W20027   2.730   0.888   5.762  0.1714 -0.2897  0.0332
19164W        W20028   7.087  13.651  18.349  0.0049 -0.0091 -0.2522
19165W        W20029  21.762  16.908   3.186  0.0018 -0.6264  0.0871
19166W        W20030  16.665  17.445   9.549 -0.1273  0.1531 -0.0291
19167W        W20031   8.283   0.460  14.429  0.1406 -0.1743 -0.1289
19168W        W20032  25.569   8.103  20.663  0.2682 -0.3733 -0.1534
19169W        W20033  15.263  24.722  10.114 -0.0064 -0.3590  0.0399
19170W        W20034  14.769  27.043  11.708 -0.2057 -0.1718  0.0196
19171W        W20035   8.350  17.888  16.147  0.3863 -0.3232  0.2925
19172W        W20036  22.696  26.854  26.406  0.1269 -0.2740 -0.0201
19173W        W20037   1.383  27.783  11.655  0.0399  0.0447 -0.3923
19174W        W20038  13.766  12.176   5.465 -0.2140 -0.0422 -0.2904
19175W        W20039   8.216  28.996  25.502 -0.1013  0.0876 -0.1669
19176W        W20040  29.031  12.822  10.844 -0.2745 -0.0438  0.2483
19177W        W20041   6.818  15.799  21.504 -0.0649  0.1606  0.0718
19178W        W20042  18.017  23.076   0.502  0.0006  0.0458 -0.0181
19179W        W20043  20.322  23.023  28.529 -0.0614  0.1294  0.0524
19180W        W20044   4.900  25.457   4.663 -0.0930  0.0424  0.2437
19181W        W20045   6.110  23.378  24.351 -0.1103 -0.0021  0.2556
19182W        W20046   3.105  13.718   6.932  0.1985 -0.2366 -0.2533
19183W        W20047   1.181   1.080  23.418 -0.2515  0.0227  0.0271
19184W        W20048  18.990  13.392   1.664 -0.3862 -0.2296  0.1373
19185W        W20049   0.582  23.328  22.608  0.2336  0.0779 -0.0860
19186W        W20050  18.898  17.320  10.640 -0.0830 -0.2632  0.1714
19187W        W20051   0.698  24.633  28.067 -0.0709  0.0086 -0.3029
19188W        W20052   3.581  17.781  27.737  0.2951  0.4428  0.3858
19189W        W20053   1.905   3.019   0.353  0.0093  0.0103 -0.0527
19190W        W20054   1.736  11.992  23.929 -0.0919 -0.0724  0.0665
19191W        W20055   5.604  13.458  23.915 -0.4865 -0.0735  0.1559
19192W        W20056   8.774  22.015  27.720  0.1007 -0.1389 -0.2821
19193W        W20057  10.004  25.331  27.941  0.0534 -0.0731  0.0783
19194W        W20058  28.123  10.493  10.802 -0.3550 -0.3241 -0.1595
19195W        W20059  19.434  26.418  22.612 -0.1862  0.0286 -0.1256
19196W        W20060  27.039   9.455   4.777  0.1664  0.1988  0.1116
19197W        W20061   3.424  19.434  14.173 -0.2629 -0.1142  0.0202
19198W        W20062  18.249  20.718  17.635  0.0562 -0.0071  0.0254
19199W        W20063  11.730  11.380  27.756 -0.0439  0.1748 -0.1154
19200W        W20064   5.011  16.927  27.363  0.1206  0.1874  0.2358
19201W        W20065  10.739  13.164  24.219 -0.1081 -0.1317  0.1648
19202W        W20066  12.421  15.128  14.320  0.0717  0.0180 -0.3729
19203W        W20067  15.925   8.042  24.851 -0.0931  0.0596  0.0370
19204W        W20068  13.272   9.402  27.390 -0.1123  0.1475 -0.1128
19205W        W20069  19.196  14.275  19.796  0.5033  0.0784 -0.2725
19206W        W20070   0.063   0.436  24.967  0.0764 -0.2053  0.3656
19207W        W20071  21.921  10.245  26.060 -0.2033 -0.0352  0.1900
19208W        W20072   1.320  18.249   7.128 -0.0796 -0.1129  0.1306
19209W        W20073  22.822  17.657  26.322 -0.0648 -0.0501  0.1388
19210W        W20074   6.940  18.307  22.579  0.0747 -0.0191  0.4350
19211W        W20075  15.452  26.055   3.800  0.1680 -0.1594  0.0806
19212W        W20076  25.585   7.251  28.440  0.0722 -0.0587  0.2703
19213W        W20077  24.711  11.527  20.030  0.0396  0.3174 -0.1624
19214W        W20078  10.465  12.434  11.607 -0.3997 -0.2224 -0.0381
19215W        W20079   3.758  16.925  24.099  0.1442 -0.0729 -0.2607
19216W        W20080  10.945   0.923  24.559 -0.1157  0.1421  0.0271
19217W        W20081  10.924   7.723  11.329  0.1469  0.0598  0.1486
19218W        W20082   5.534  21.736  26.548  0.1811  0.0493 -0.0118
19219W        W20083  24.184  19.518  10.771 -0.0014  0.1327  0.2938
19220W        W20084  12.673  22.945   1.127  0.2048  0.2455  0.2695
19221W        W20085  13.385  29.126  24.467 -0.1813  0.1918 -0.1353
19222W        W20086   1.454  18.734   8.576 -0.0538 -0.0458 -0.0849
19223W        W20087   0.957   6.818  14.680 -0.1330 -0.1585 -0.1825
19224W        W20088  17.534  18.327   8.682 -0.0363 -0.1103  0.1928
19225W        W20089   5.545   7.061   7.026 -0.0261  0.2464  0.1905
19226W        W20090   4.603  23.620   0.583 -0.2112  0.0508 -0.0249
19227W        W20091  22.473  24.765  18.489  0.2112 -0.0642 -0.1062
19228W        W20092   3.973  14.568   3.472  0.0463  0.1730 -0.1683
19229W        W20093   8.340  14.218   9.220  0.1107  0.1490  0.2572
19230W        W20094  27.202  22.383  15.939 -0.2148 -0.0052  0.1541
19231W        W20095   9.820  24.452   5.066 -0.1284 -0.0931 -0.1472
19232W        W20096  25.834  22.786  23.582  0.0405 -0.1165 -0.0922
19233W        W20097   5.091   7.464   8.351 -0.1941 -0.1794 -0.0444
19234W        W20098  12.569  28.092  23.333 -0.0346  0.3676 -0.1670
19235W        W20099  19.384  17.315  16.411  0.2948 -0.0571 -0.1915
19236W        W20100   3.459   0.022   6.982 -0.0309 -0.0090 -0.2500
19237W        W20101  20.055  16.818   0.222 -0.4040 -0.1811 -0.1553
19238W        W20102  17.804   3.594  21.085  0.4141 -0.2189  0.2109
19239W        W20103  26.852  20.104  22.227  0.0578  0.3170  0.2074
19240W        W20104   3.264   5.713   8.264 -0.1965 -0.2281 -0.1958
19241W        W20105  24.062  15.621  19.686  0.0097 -0.0266  0.2537
19242W        W20106   3.594   2.338  14.934  0.1956 -0.2521 -0.1465
19243W        W20107  13.457  25.634  28.155 -0.1732 -0.4465 -0.3010
19244W        W20108  15.967   2.937   0.716  0.1604 -0.1459 -0.0228
19245W        W20109   1.042   0.902   9.469  0.1045  0.0578 -0.0796
19246W        W20110  19.415  18.258  13.016 -0.1075 -0.1950 -0.2106
19247W        W20111   8.737   6.940  25.079  0.0410 -0.2372  0.0472
19248W        W20112   7.502  28.006   8.384 -0.1315 -0.0068 -0.2783
19249W        W20113  18.319  15.181  28.816  0.1517  0.1555 -0.0878
19250W        W20114   4.802   2.555  20.198 -0.1065  0.0276 -0.6088
19251W        W20115   6.834  14.964   2.087 -0.0832  0.0029 -0.2371
19252W        W20116   4.657  15.607  28.387  0.1485 -0.1226 -0.0580
19253W        W20117  15.724  21.478   1.089  0.1694 -0.1274 -0.3482
19254W        W20118   9.055   3.007   3.687  0.1325 -0.0732  0.1712
19255W        W20119  14.979  26.650  25.556 -0.1330  0.0078 -0.0803
19256W        W20120  19.206   1.092   8.107 -0.2449  0.3284 -0.1505
19257W        W20121   9.074  22.496  24.295  0.0772 -0.0565 -0.0888
19258W        W20122  17.273  12.324   8.702 -0.0355 -0.3067  0.2426
19259W        W20123  22.660  19.962  11.050 -0.2532  0.2136 -0.1642
19260W        W20124   4.297  10.164  27.792  0.2230 -0.2692  0.1191
19261W        W20125  25.589   3.482  22.257 -0.0209 -0.0159 -0.2081
19262W        W20126  23.233  25.423  23.959 -0.0316  0.1102  0.2069
19263W        W20127  21.585   5.737   6.267 -0.0329 -0.1465 -0.1550
19264W        W20128  26.678  10.387  22.145 -0.0501 -0.3298 -0.3193
19265W        W20129  22.132   6.867   5.184  0.3218  0.1124  0.0692
19266W        W20130   0.806  24.529   0.700 -0.2345 -0.3077 -0.2630
19267W        W20131   2.463   4.596   6.805 -0.0751 -0.0334  0.2340
19268W        W20132   5.420   4.067  27.193 -0.0122  0.0232  0.0082
19269W        W20133   6.717   5.845   4.597  0.0192  0.3746 -0.3063
19270W        W20134   0.878  16.079  12.389 -0.0771  0.3039 -0.1963
19271W        W20135   8.183  17.222   4.039 -0.0571  0.3099  0.0416
19272W        W20136  13.429  28.704  12.988 -0.0226  0.0318 -0.1735
19273W        W20137   7.794  13.976  18.879 -0.0455 -0.0554 -0.1530
19274W        W20138  24.342  12.082  26.732  0.1261 -0.1295  0.1695
19275W        W20139  28.365  23.882  11.203  0.0439  0.0438  0.3959
19276W        W20140  15.802  25.033  27.341  0.1016  0.2306 -0.0197
19277W        W20141  15.344  27.252   0.313  0.0746  0.0517 -0.0176
19278W        W20142   3.527   8.483  23.297 -0.1034  0.0734 -0.0115
19279W        W20143  23.677   2.913  21.131  0.2739  0.1111  0.0880
19280W        W20144   2.121  11.235  11.344 -0.2153 -0.0570  0.1056
19281W        W20145  15.022   0.145  28.433 -0.0159 -0.0724  0.0015
19282W        W20146  14.021  23.175  12.907  0.2815 -0.1757  0.0203
19283W        W20147   3.031  16.159  20.581  0.0210  0.1241  0.2931
19284W        W20148  23.306   0.709  20.464  0.1400 -0.1982  0.0240
19285W        W20149  25.275  27.942   4.319 -0.0975 -0.3541  0.0389
19286W        W20150  17.583  12.180   3.574 -0.0730  0.1633 -0.1222
19287W        W20151  18.051   3.069  11.241  0.0560 -0.4412  0.1549
19288W        W20152  27.552   8.502   1.184 -0.4228 -0.0935 -0.1579
19289W        W20153   3.501  14.786  25.012 -0.2784 -0.0898  0.1261
19290W        W20154   8.260  29.005   7.006 -0.3125  0.2031  0.1537
19291W        W20155   3.089  28.010  20.819  0.2704  0.0574 -0.3784
19292W        W20156  21.923   7.387  27.729  0.1383  0.0103 -0.1090
19293W        W20157   3.191  19.157  26.410 -0.4839  0.0523  0.1559
19294W        W20158  24.155  23.928  12.153 -0.2517 -0.0345 -0.2568
19295W        W20159   6.809  27.330   8.036  0.0507 -0.0371  0.0479
19296W        W20160  23.279   7.501  23.119 -0.1226  0.1154 -0.1732
19297W        W20161  20.846   5.861  22.229  0.2694 -0.2904  0.0120
19298W        W20162  29.071  25.485  13.250  0.1870 -0.2384 -0.0679
19299W        W20163  20.495   7.365  21.113  0.1574  0.0571 -0.1081
19300W        W20164  24.401  22.948  11.731 -0.0518 -0.1568  0.0911
19301W        W20165  15.384  22.173   0.892  0.1162 -0.0544 -0.2541
19302W        W20166  27.517  19.069   8.867 -0.3672 -0.2396  0.2416
19303W        W20167   4.747  13.337  23.990  0.0571  0.0335 -0.1103
19304W        W20168  27.505   8.358   4.971 -0.1611  0.2435  0.1800
19305W        W20169  17.588   2.114  10.611  0.0078  0.2571 -0.1227
19306W        W20170  11.168  16.335  28.564 -0.2827 -0.0319 -0.1491
19307W        W20171  26.619   0.474  27.829 -0.1675 -0.0766 -0.0234
19308W        W20172   1.949  16.813  25.850  0.1982  0.0302  0.2860
19309W        W20173  12.675   3.627  24.984 -0.2387 -0.1258  0.0812
19310W        W20174  11.335  24.321  29.137 -0.4449 -0.1700  0.0171
19311W        W20175   4.586  21.827   2.044  0.0303  0.0641  0.1516
19312W        W20176  12.723  23.797  22.421 -0.1428 -0.4188  0.2012
19313W        W20177   3.742   9.514  11.982 -0.0402  0.1413  0.0377
19314W        W20178  26.405  18.187   9.869 -0.0596 -0.1138 -0.0445
19315W        W20179   7.620   5.217   6.584  0.3487 -0.1897  0.3896
19316W        W20180   5.694  15.941  12.076 -0.0702 -0.2585  0.0385
19317W        W20181   9.499  18.768  22.986  0.0411 -0.0380  0.0584
19318W        W20182  13.100   8.701  13.232  0.0734  0.1369 -0.2148
19319W        W20183  27.361  28.936   2.544 -0.0154  0.0117 -0.1176
19320W        W20184  20.459  14.205  13.565  0.0918  0.1397 -0.0461
19321W        W20185   6.182   0.759   1.330 -0.0138  0.1641  0.2846
19322W        W20186  16.490  25.455  21.982  0.0190  0.0507  0.0026
19323W        W20187  21.731  13.711   7.423 -0.1754  0.0535 -0.1614
19324W        W20188   2.215  22.164  24.957 -0.0710 -0.0959  0.2225
19325W        W20189   6.401   8.199   0.589  0.1492 -0.0472 -0.1135
19326W        W20190  23.858  25.589  22.963 -0.0049 -0.2123  0.1970
19327W        W20191   0.302  15.949  28.978 -0.0290  0.1277 -0.4114
19328W        W20192   5.531  21.248  25.473  0.2413  0.2903  0.4970
19329W        W20193   5.474  23.846  25.519  0.3431 -0.0391  0.0933
19330W        W20194  11.124  20.029  21.983 -0.1504 -0.1779 -0.2634
19331W        W20195   5.115  24.299  25.394  0.1865 -0.1710 -0.0339
19332W        W20196   6.835  25.035  24.643  0.0192  0.2143 -0.2465
19333W        W20197  21.390  10.997  10.392 -0.0921 -0.0608  0.0478
19334W        W20198  24.774  22.552   1.228  0.0275 -0.0814  0.1933
19335W        W20199   8.723  27.208   3.238  0.0893  0.1796  0.1368
19336W        W20200  27.086  24.654  24.341 -0.0926 -0.0944  0.1061
19337W        W20201  28.211  15.701  23.143 -0.1789 -0.0639 -0.5166
19338W        W20202  28.675  13.679  13.016  0.0290  0.3456  0.0063
19339W        W20203   0.521  14.927  10.916 -0.0555  0.1161  0.0083
19340W        W20204  17.132  28.690   5.948 -0.0094 -0.0939  0.1254
19341W        W20205  21.149  24.286  24.431  0.1955  0.0593 -0.2441
19342W        W20206  23.230   8.154   0.754 -0.1970  0.2553 -0.0811
19343W        W20207   5.374  14.073  14.783 -0.2103 -0.1652  0.1618
19344W        W20208   2.662  17.319  28.941 -0.0610 -0.1368  0.0168
19345W        W20209   6.265   2.755   7.765 -0.1322  0.3729 -0.1946
19346W        W20210  27.229  11.470  19.173  0.2539  0.0935 -0.2713
19347W        W20211   3.873   8.894   3.623 -0.1507  0.0547 -0.1620
19348W        W20212  13.737  18.325  21.982 -0.1259 -0.0924  0.2647
19349W        W20213   9.226  15.769   0.403 -0.3223  0.1314  0.3556
19350W        W20214  18.404  11.520   5.441 -0.2740  0.1809  0.1170
19351W        W20215  28.298  29.105  27.541 -0.0113  0.1654 -0.0318
19352W        W20216   2.503  14.404   9.893 -0.0872 -0.0360  0.0877
19353W        W20217  17.303  10.734  14.698 -0.1570 -0.0137 -0.1275
19354W        W20218   7.826  22.983  24.365  0.1128 -0.0062  0.0148
19355W        W20219  28.312  17.884   9.975 -0.1737 -0.1704 -0.0472
19356W        W20220   1.352  17.789   7.912  0.3340  0.3513 -0.2488
19357W        W20221  15.742  26.636  21.736 -0.2134 -0.2802 -0.0449
19358W        W20222   3.968  13.616   4.575 -0.0544 -0.0877 -0.2619
19359W        W20223  24.847   1.562  22.336 -0.0141 -0.1476 -0.2238
19360W        W20224   0.006  15.305  21.891 -0.2461  0.0493 -0.1761
19361W        W20225  24.949  15.059  25.551  0.1306 -0.0610 -0.0473
19362W        W20226  10.876  21.523  23.495  0.3906  0.0875  0.0373
19363W        W20227  25.498   7.362  15.076  0.0166 -0.0604 -0.0677
19364W        W20228  10.430  23.173   0.325  0.1356 -0.0215 -0.1484
19365W        W20229  17.712  17.438   9.276  0.1465  0.0465 -0.2221
19366W        W20230  22.779  16.100  26.754  0.0683 -0.1812 -0.0578
19367W        W20231  12.736  19.358   6.568  0.0792  0.0383  0.1269
19368W        W20232  26.841  14.238  10.650  0.1250 -0.0567 -0.1266
19369W        W20233  27.691  25.243  28.568  0.3086  0.1544  0.0069
19370W        W20234  17.460   7.436   3.422 -0.2483 -0.1445  0.2364
19371W        W20235  17.751  16.181  13.195 -0.1444 -0.2984  0.2475
19372W        W20236   1.103  18.039  15.045 -0.1683 -0.1977  0.0636
19373W        W20237  18.551  18.787  18.745  0.2281  0.3033 -0.0897
19374W        W20238  28.111  12.834  24.008  0.0634 -0.3116 -0.0646
19375W        W20239  25.215  18.091  22.618 -0.0372  0.0582  0.2718
19376W        W20240   7.262  20.389  27.276 -0.1708  0.0208 -0.1067
19377W        W20241  22.227  18.333  27.307 -0.3795  0.2864 -0.2684
19378W        W20242  28.277  28.038  14.045  0.1144 -0.3059  0.2730
19379W        W20243  27.079   0.303  15.773  0.1699 -0.1122  0.1460
19380W        W20244  17.762  27.621   7.176 -0.2796  0.1493 -0.1744
19381W        W20245  24.172  14.158  27.423 -0.1674 -0.4673 -0.3326
19382W        W20246  20.803   8.321  28.482 -0.1065  0.4528  0.1839
19383W        W20247  14.149  18.771   4.392  0.0265 -0.2110 -0.0105
19384W        W20248   4.434  17.626   9.363 -0.0866 -0.0846 -0.0323
19385W        W20249  17.009   2.071  25.728 -0.1091  0.0667  0.0764
19386W        W20250   4.068  26.182  27.410 -0.0330  0.0620 -0.0302
19387W        W20251   6.121  23.781  26.771 -0.2216 -0.0885 -0.0848
19388W        W20252  25.335  14.836   3.938  0.2880 -0.0930  0.1363
19389W        W20253   8.134   6.792   4.758  0.2957  0.1448 -0.2343
19390W        W20254  28.267  12.525  22.171  0.1022  0.1465 -0.0397
19391W        W20255   8.928  12.469  26.446 -0.2356  0.4369 -0.0365
19392W        W20256   8.140   7.563  27.615 -0.2095  0.1569  0.0491
19393W        W20257  18.250  25.226  11.510  0.0711 -0.2670  0.0058
19394W        W20258   8.806   0.378  21.746 -0.0941  0.0378  0.2600
19395W        W20259  10.654  22.489   1.922  0.1773  0.0428 -0.0216
19396W        W20260  11.698  17.338   4.478  0.0661 -0.0277  0.1862
19397W        W20261  15.826  23.359   9.296  0.1445  0.1866 -0.1699
19398W        W20262  17.971  18.479  18.804  0.1179 -0.1832  0.0474
19399W        W20263  22.110  19.731   1.125  0.0652 -0.2140 -0.1017
19400W        W20264  25.932  20.967  28.697  0.0755 -0.1381  0.1943
19401W        W20265   2.818   0.058  18.862 -0.0891  0.3001 -0.0041
19402W        W20266   6.316   9.198   1.822  0.1494  0.0382 -0.0281
19403W        W20267  20.122  22.115  28.296  0.0613 -0.0135  0.3946
19404W        W20268  18.714  19.535  21.217  0.1460  0.0688  0.0321
19405W        W20269   6.709  24.401  10.242 -0.0915 -0.0645 -0.0167
19406W        W20270  22.861  28.228  19.958 -0.0353 -0.1486 -0.1032
19407W        W20271  28.110  28.298   0.660 -0.1102  0.1843 -0.0951
19408W        W20272  21.470  14.476  11.757  0.2564 -0.3487  0.2592
19409W        W20273   7.071  12.246   3.374  0.0821  0.1671 -0.1010
19410W        W20274   5.497   3.594   2.506 -0.2270 -0.0709 -0.6848
19411W        W20275  20.706   2.255  27.407  0.0396  0.0149 -0.4549
19412W        W20276  17.447  20.375   5.751 -0.2797 -0.2721  0.2395
19413W        W20277  19.905  24.052  11.766 -0.2413  0.2461  0.1672
19414W        W20278  26.794  14.802   6.975  0.2377  0.2027 -0.0602
19415W        W20279   6.800  26.003  19.324  0.1547 -0.1125  0.1143
19416W        W20280  15.144  23.513  25.371  0.0470 -0.1615  0.1938
19417W        W20281   1.128  17.698  28.207  0.0854 -0.0661  0.1723
19418W        W20282  16.781   3.528   4.804 -0.1180  0.0557  0.1113
19419W        W20283  23.378   2.810  27.247  0.0793  0.1259  0.3228
19420W        W20284  19.659  24.812  27.472  0.1479  0.0776 -0.0169
19421W        W20285  29.042  12.398   6.086 -0.2654 -0.1790  0.0931
19422W        W20286   2.075  27.484  11.173  0.0520 -0.3214  0.0964
19423W        W20287  22.550  25.151  27.270 -0.1539  0.1442 -0.0431
19424W        W20288   7.390  22.839  11.230 -0.0983  0.1543  0.0062
19425W        W20289   5.142  23.455  13.902  0.2495  0.0428 -0.1638
19426W        W20290  27.228  18.114   1.763  0.0842  0.3609 -0.1239
19427W        W20291   6.542   0.312   1.353 -0.4200 -0.2393 -0.0140
19428W        W20292  19.063  12.597  11.995 -0.1006  0.2872  0.1211
19429W        W20293   6.497  25.442  22.061  0.1604 -0.1367  0.1336
19430W        W20294  15.025  24.292   1.123  0.2194 -0.0403  0.3467
19431W        W20295   0.197  12.767  19.592 -0.2538 -0.1524  0.1539
19432W        W20296  25.084  10.390  13.654  0.0810 -0.0852  0.2493
19433W        W20297  12.332   4.346   2.919  0.1915  0.0816 -0.2283
19434W        W20298  28.921   0.761  10.227 -0.0122 -0.1992 -0.1255
19435W        W20299   8.329   3.135   5.938  0.0403  0.1877  0.4067
19436W        W20300   1.120  15.258  21.331  0.0075  0.0006 -0.1053
19437W        W20301   6.386  23.999  12.720 -0.0919 -0.2723  0.1234
19438W        W20302   0.261   7.004   3.038 -0.0391  0.2851  0.2768
19439W        W20303   3.479  12.150  22.005  0.0894 -0.0130  0.2683
19440W        W20304   2.253   1.897  18.976 -0.1976  0.1082 -0.1174
19441W        W20305  15.392  28.933  26.046  0.1133 -0.1708 -0.0783
19442W        W20306   1.776   1.773   6.220  0.1174  0.0388  0.0655
19443W        W20307   5.463  16.653  15.914 -0.0083 -0.0700 -0.1499
19444W        W20308  20.969  13.953   0.713  0.0375  0.2062 -0.0539
19445W        W20309  20.135   9.747   4.284  0.1593 -0.1294  0.0212
19446W        W20310  25.599  19.783   7.662  0.0668  0.2625  0.0496
19447W        W20311  14.888  22.585   1.827  0.1444  0.0662  0.4943
19448W        W20312  21.319   3.292  10.479  0.3157 -0.2104  0.0670
19449W        W20313  21.275  15.212  11.545 -0.0826  0.0585  0.3123
19450W        W20314  24.077   6.091  21.336  0.2620  0.2590 -0.5418
19451W        W20315  19.403  19.402  12.907  0.2328  0.1285  0.0070
19452W        W20316   3.152  24.779   8.792 -0.2245 -0.0351  0.0550
19453W        W20317  28.764  20.515   7.841 -0.0660  0.0034 -0.0167
19454W        W20318  26.792   5.564  16.727 -0.0893 -0.1593  0.2193
19455W        W20319   3.166  19.335   4.863  0.2023 -0.0243 -0.0406
19456W        W20320  16.203   0.362  28.870 -0.2004 -0.0486 -0.0905
19457W        W20321   8.405   8.476   1.924  0.0485 -0.2913 -0.2266
19458W        W20322  24.247  16.647   7.981  0.1371 -0.2077 -0.0402
19459W        W20323  12.019  11.528  29.090 -0.0803  0.0774 -0.0623
19460W        W20324  25.701  23.511   6.209  0.0829  0.2864 -0.0160
19461W        W20325  10.699  27.286  28.690 -0.2426  0.2140  0.2033
19462W        W20326  11.235  21.956  10.673  0.1281 -0.1559  0.2834
19463W        W20327   6.673  16.790  17.446  0.0382 -0.0921 -0.0350
19464W        W20328  11.161  15.080  11.346  0.1128 -0.0567 -0.1201
19465W        W20329  18.307  26.602   4.910  0.2151  0.1302 -0.0422
19466W        W20330   1.254   1.116  18.277 -0.2274 -0.0026  0.1200
19467W        W20331  13.088  27.706   6.924 -0.2702 -0.2722  0.1462
19468W        W20332   7.807  12.356  12.608 -0.2168  0.2821 -0.2206
19469W        W20333   7.155  13.503  11.038 -0.4438  0.0536  0.0657
19470W        W20334   1.742   3.101  13.837  0.2590 -0.1073  0.0804
19471W        W20335  25.935  25.198  17.640 -0.1592  0.1381  0.1917
19472W        W20336   5.985   2.524  26.416 -0.2354 -0.1789 -0.0410
19473W        W20337  26.517  24.117  19.837 -0.3787  0.0890  0.0463
19474W        W20338  19.540  15.968  24.744  0.2601  0.1338 -0.0485
19475W        W20339   7.569  19.734  28.924  0.3372 -0.0908 -0.0552
19476W        W20340  13.072   5.858   3.685  0.0846 -0.1162  0.2792
19477W        W20341   4.421  21.536  13.619  0.0168  0.0096 -0.0153
19478W        W20342  23.675  13.256  25.766  0.0786 -0.0580 -0.1437
19479W        W20343   3.452  16.643  20.778 -0.0782 -0.1440  0.1902
19480W        W20344  13.878  24.251   0.575  0.2487  0.1726  0.3747
19481W        W20345  26.040  14.974   2.686  0.1123  0.3135 -0.0614
19482W        W20346  28.832   3.647  11.979  0.0419  0.1381 -0.1682
19483W        W20347  20.980   6.003   3.421 -0.0310 -0.1773 -0.2306
19484W        W20348   6.293  27.350   8.656 -0.0637 -0.1055  0.1608
19485W        W20349  21.268  23.187   6.312 -0.3269  0.3055 -0.0130
19486W        W20350  16.360  28.138   4.896  0.2041 -0.1205  0.0634
19487W        W20351  25.279  14.130   9.262 -0.0374 -0.0831  0.0446
19488W        W20352  17.067  23.608   9.717 -0.2897 -0.1897 -0.0013
19489W        W20353   5.574   0.454  28.952 -0.1415 -0.1220  0.0559
19490W        W20354   8.510  21.990  25.809  0.2675  0.0862  0.0057
19491W        W20355   7.964  10.958   7.642 -0.1702  0.1275  0.2341
19492W        W20356  22.607   8.981  15.591  0.0683 -0.1410  0.1992
19493W        W20357   8.577  25.251  14.144  0.1291 -0.0721 -0.0260
19494W        W20358   3.300   4.594  18.955  0.0980 -0.1016  0.1648
19495W        W20359  28.081  25.481  25.453 -0.1667 -0.1075  0.0268
19496W        W20360   3.291   8.247  21.883  0.1869 -0.1047 -0.1117
19497W        W20361   3.476   6.773  15.054  0.0931 -0.2156  0.1927
19498W        W20362   5.285   5.706  18.713  0.0556 -0.0157  0.2492
19499W        W20363   6.442   1.823   7.905 -0.2401  0.2264  0.1623
19500W        W20364   4.890   2.270   9.775  0.2060  0.0957  0.0163
19501W        W20365  26.656  23.076  28.870  0.2528  0.1911  0.0574
19502W        W20366  20.681  22.678  22.555 -0.0069 -0.1865 -0.0393
19503W        W20367  27.465  26.891   2.616  0.0336 -0.0511 -0.3945
19504W        W20368   4.195  28.313   6.012 -0.0063 -0.0020 -0.0575
19505W        W20369  27.933  26.318   2.857 -0.0363  0.0138 -0.0255
19506W        W20370  25.433  27.376  22.362 -0.2195 -0.2688 -0.3285
19507W        W20371  25.846  12.870  15.842  0.1148  0.0353 -0.0784
19508W        W20372  28.743  11.580  16.038 -0.0919 -0.1232  0.0538
19509W        W20373  25.750  12.732  25.497  0.1537 -0.0674 -0.2024
19510W        W20374  13.360  16.312  26.060 -0.0437  0.1031 -0.1735
19511W        W20375   6.540  28.220  23.838  0.0218 -0.3904 -0.0219
19512W        W20376  24.976  23.076   4.873 -0.3316 -0.0938 -0.2789
19513W        W20377   4.434  20.979  26.491  0.2554 -0.2315  0.0429
19514W        W20378   4.279  25.954   6.229  0.1983 -0.3631  0.1223
19515W        W20379  18.239  24.451  20.813  0.1089 -0.1251  0.0231
19516W        W20380   2.203  22.486  13.466 -0.1502  0.2626 -0.1268
19517W        W20381   0.038  12.832  14.732  0.1626  0.0272 -0.2245
19518W        W20382  25.101  11.407   6.500 -0.0655 -0.0877  0.0345
19519W        W20383  24.661   1.695  27.950 -0.0141 -0.1650  0.0580
19520W        W20384   6.853   4.598  14.355 -0.0730  0.1052 -0.1031
19521W        W20385   4.047  20.620  21.034 -0.0980 -0.1885 -0.0182
19522W        W20386  25.694  10.023  28.359  0.2365 -0.3199  0.1645
19523W        W20387   0.237  28.335  22.347 -0.1956  0.0319  0.0169
19524W        W20388   0.186   7.017  22.454  0.0800  0.2136  0.1179
19525W        W20389  17.299  18.266   3.968  0.0920  0.1232 -0.0182
19526W        W20390   3.398  26.658   8.085 -0.0539  0.1959  0.2421
19527W        W20391   3.246  22.223  10.278  0.1391  0.1675 -0.0191
19528W        W20392  15.055  12.670   2.205 -0.4293  0.1143 -0.4715
19529W        W20393   4.114  17.079   7.356 -0.0854 -0.0017  0.1111
19530W        W20394   0.349  21.096  11.729 -0.1384  0.0797 -0.0320
19531W        W20395  23.948   5.555  14.788 -0.2323  0.2152  0.0109
19532W        W20396  18.331  16.482  23.664  0.1961 -0.0355  0.0453
19533W        W20397  16.329  10.288  24.710 -0.1078 -0.2087 -0.4147
19534W        W20398   6.251   4.817   1.601  0.2392  0.0285  0.1829
19535W        W20399   5.722  24.408   2.855  0.0375  0.2379 -0.0155
19536W        W20400   7.207   8.462  25.448 -0.1842  0.2958  0.1213
19537W        W20401   6.963   3.361   5.897 -0.2049  0.3247  0.1931
19538W        W20402  29.038   9.543   0.981  0.1258 -0.0435 -0.0089
19539W        W20403   1.567  20.677  25.452  0.0654  0.1831  0.1568
19540W        W20404  25.445   3.289  27.371  0.1672 -0.0551 -0.0135
19541W        W20405   9.575   7.376  25.034  0.0625  0.0053  0.1083
19542W        W20406  27.750  17.453  23.543  0.1885 -0.0476  0.2415
19543W        W20407  22.071   2.950   5.773  0.2650  0.0999 -0.1270
19544W        W20408  22.086  13.163  27.379 -0.2185 -0.2841  0.1336
19545W        W20409   0.579  12.644   8.422  0.0833 -0.0576 -0.0339
19546W        W20410  11.038  27.940  28.912 -0.1413 -0.0517 -0.1984
19547W        W20411   0.699  23.325  26.489  0.1711  0.0189  0.0816
19548W        W20412   4.189  13.348  12.984 -0.2252 -0.2292  0.1897
19549W        W20413  22.139  27.037   1.059 -0.0427  0.0071 -0.1101
19550W        W20414   5.192   6.779  14.361  0.1730  0.1207 -0.2284
19551W        W20415   4.444   7.662   7.528 -0.2326  0.1080 -0.0776
19552W        W20416  24.596  24.377  18.743  0.0847 -0.1060 -0.1289
19553W        W20417   7.218   2.416  18.104  0.2185 -0.1439  0.0369
19554W        W20418  24.106  19.230   8.804 -0.2267  0.0383 -0.4481
19555W        W20419   8.742   1.603  21.189  0.3609  0.0154  0.2418
19556W        W20420  18.671  14.538  25.968 -0.1613 -0.1114  0.0846
19557W        W20421  25.956  20.418   9.262  0.0163  0.0931  0.0125
19558W        W20422  21.134  22.083   2.749  0.0658 -0.1910  0.0170
19559W        W20423  10.790  15.928   9.569  0.0013  0.3791  0.2201
19560W        W20424  14.628  20.152   6.413 -0.4015 -0.0334  0.1555
19561W        W20425  23.902  17.013   2.048 -0.4255 -0.1055  0.0768
19562W        W20426   6.102  25.870  21.463  0.2432  0.1954  0.1092
19563W        W20427   9.305  27.016  16.916  0.2628  0.0119 -0.0318
19564W        W20428   8.709   5.298  27.852 -0.1395 -0.0626 -0.0804
19565W        W20429   8.261   2.976  26.354 -0.4597 -0.3687  0.1678
19566W        W20430  24.349  20.980   9.786  0.1458  0.1603  0.0392
19567W        W20431  21.578   0.619   4.103 -0.0373  0.0597 -0.2292
19568W        W20432   5.790   5.206  10.115 -0.1696  0.3636 -0.1955
19569W        W20433  20.741  17.615  21.104  0.1709  0.0222  0.0731
19570W        W20434  21.167  24.473   0.098 -0.2283 -0.1531 -0.0261
19571W        W20435  20.773  22.866   6.873  0.1683  0.3130  0.1495
19572W        W20436  25.165  27.118  25.131  0.1499 -0.1766  0.4862
19573W        W20437   0.901  26.467   2.500 -0.0480  0.2789 -0.3053
19574W        W20438   0.579   8.232  27.195  0.0653 -0.0600  0.1146
19575W        W20439  12.384  15.482   1.723  0.1511 -0.0769  0.3277
19576W        W20440   9.037   7.991   1.493  0.2497 -0.1094 -0.3011
19577W        W20441   4.668  28.778  25.983 -0.0132  0.0320  0.0366
19578W        W20442   0.604   8.966  11.159 -0.1811 -0.1588 -0.0839
19579W        W20443  26.054   1.440  12.025 -0.1146 -0.1137 -0.1069
19580W        W20444   5.342  10.451   7.173 -0.1795 -0.1037 -0.0918
19581W        W20445   3.220  22.435  19.204 -0.0537 -0.0206 -0.2179
19582W        W20446  13.640   6.154   8.719  0.1352 -0.3509  0.0125
19583W        W20447  10.081  22.352  16.477  0.1865 -0.0465 -0.2081
19584W        W20448  15.195   7.309  26.146  0.2330  0.3348 -0.0523
19585W        W20449  22.271  20.176   8.754  0.1311 -0.0929 -0.2143
19586W        W20450  24.032  27.914  11.258 -0.1298  0.0176 -0.0313
19587W        W20451   6.293  23.298   2.402 -0.0773  0.0112 -0.0276
19588W        W20452  16.078   5.163  26.455 -0.1070  0.0235 -0.1351
19589W        W20453  28.687  16.167  24.598 -0.0843  0.0422  0.1316
19590W        W20454  28.292   1.140   3.080 -0.2775  0.1807 -0.2094
19591W        W20455   2.397   8.156  21.836  0.2274  0.1256  0.0052
19592W        W20456  23.745  24.405   6.011 -0.0045 -0.1486 -0.2897
19593W        W20457   2.639  16.450  18.713 -0.0752 -0.5120  0.1590
19594W        W20458  18.358  23.715  25.051 -0.0960  0.1148  0.0515
19595W        W20459  20.362   3.600   7.892 -0.1268  0.0122  0.1007
19596W        W20460  26.598  27.896   9.325  0.3312  0.2127  0.3431
19597W        W20461  28.795  19.481  11.743 -0.0297 -0.1387  0.2045
19598W        W20462  14.967  26.913   8.528 -0.0041  0.0568  0.1148
19599W        W20463   8.271   4.475  17.578 -0.1503  0.1169 -0.0157
19600W        W20464  18.514  14.052   9.025  0.1410 -0.3263 -0.2010
19601W        W20465  21.255   2.911   6.268 -0.3131 -0.0049  0.0955
19602W        W20466  28.765  10.420   8.749  0.0977  0.2123 -0.2158
19603W        W20467   1.962  21.263  26.066 -0.1062 -0.0700 -0.0747
19604W        W20468  26.936  20.219  21.692  0.1346 -0.0278  0.1076
19605W        W20469  18.242  16.786  24.507  0.1695 -0.0806 -0.1608
19606W        W20470   4.282  22.534   8.740  0.2740 -0.2889  0.2022
19607W        W20471   1.320  23.975   0.286  0.1113  0.0051 -0.0749
19608W        W20472  28.360   0.336   5.149 -0.1713  0.0002  0.0629
19609W        W20473   5.337  28.173   7.432  0.2682  0.0514  0.2063
19610W        W20474  11.100   1.938  18.032 -0.1869  0.1656  0.0059
19611W        W20475  15.819  27.207  25.569 -0.1763 -0.3428  0.1311
19612W        W20476   2.268   8.645  12.788 -0.1622 -0.0841 -0.0139
19613W        W20477  27.782  11.405  15.621  0.2594  0.2841 -0.2373
19614W        W20478   6.152  24.580   2.994  0.0667 -0.1850 -0.1126
19615W        W20479   9.296  21.181   0.785 -0.1702 -0.0064 -0.1252
19616W        W20480  10.949   9.530  28.312 -0.1651 -0.0045 -0.0344
19617W        W20481   5.305   7.513   1.955  0.0151 -0.1621  0.1675
19618W        W20482  17.458  28.443  20.089  0.2330 -0.1116 -0.1331
19619W        W20483  20.159  19.803  21.759 -0.0170  0.1734  0.3652
19620W        W20484  16.872   6.472   1.203  0.0336  0.0610 -0.1435
19621W        W20485  21.242  21.199   2.407  0.0669  0.1409 -0.0606
19622W        W20486  15.000  25.747   2.444  0.0437 -0.0470  0.1975
19623W        W20487   4.907  21.616  18.821  0.2113  0.1344  0.2930
19624W        W20488  24.158  19.392  18.430  0.0692  0.3231  0.0551
19625W        W20489   9.382  28.771   1.482 -0.1007  0.2982  0.0314
19626W        W20490   8.911  26.360   1.479 -0.0646  0.1703 -0.0603
19627W        W20491  27.820   4.184  17.094 -0.0775 -0.3247  0.1278
19628W        W20492   3.101   8.118  19.881 -0.0544 -0.0864 -0.4032
19629W        W20493  24.584  15.985  19.676  0.0189  0.0155  0.0214
19630W        W20494  10.943   7.939  16.163  0.5607 -0.0070 -0.3145
19631W        W20495   1.260  25.745   6.476 -0.0459 -0.1085 -0.2935
19632W        W20496  14.003  23.713   3.617  0.0638  0.2787 -0.0349
19633W        W20497  24.612  21.577   8.775 -0.1024  0.2053 -0.3246
19634W        W20498  11.558   0.778   3.843 -0.0417 -0.2630 -0.0159
19635W        W20499  16.475  19.040   7.110 -0.0123 -0.0611  0.0023
19636W        W20500  23.384  28.036  22.187  0.0003  0.0871 -0.1688
19637W        W20501  17.731   0.564  25.837  0.0200  0.0507  0.0551
19638W        W20502  13.530   7.695  11.625  0.0542  0.4053 -0.3206
19639W        W20503  15.143  20.516  27.419  0.2215  0.1860 -0.0944
19640W        W20504  15.789  15.337   0.706  0.0978 -0.1797  0.2783
19641W        W20505  21.415  23.612   7.084 -0.0291  0.1891  0.1927
19642W        W20506  26.863  22.494   9.225 -0.1449 -0.1062 -0.0482
19643W        W20507  25.343  24.142  10.858  0.0624  0.1687  0.2089
19644W        W20508   3.513   4.229  28.423 -0.1382  0.0713 -0.3030
19645W        W20509  23.075  14.027  21.623  0.0530 -0.0591  0.0607
19646W        W20510  13.766  23.446   5.869 -0.0669  0.2786 -0.0284
19647W        W20511   3.988   5.489  24.849 -0.2339  0.0929 -0.1077
19648W        W20512  10.742  14.721  15.043  0.1515  0.3662 -0.2417
19649W        W20513  23.296  24.067  28.746  0.4205  0.1755  0.1061
19650W        W20514   9.330   3.191  24.271 -0.3205  0.3417 -0.3091
19651W        W20515   2.263  20.851   3.914 -0.1107  0.0413  0.1109
19652W        W20516  12.545   6.595   9.819  0.2796  0.2353  0.1298
19653W        W20517  18.795  12.182  21.832  0.2269  0.1391 -0.1111
19654W        W20518   1.269  20.104   4.235 -0.2275  0.0522 -0.3388
19655W        W20519  13.770  10.527  27.104  0.0092 -0.0006  0.0121
19656W        W20520  22.583   0.185   2.660  0.0550  0.1278 -0.0119
19657W        W20521  10.242  13.678   1.691  0.2689  0.1716 -0.0748
19658W        W20522  28.988  21.026  13.008 -0.1871  0.1150 -0.4152
19659W        W20523   4.744  10.097  21.406  0.0047  0.2231 -0.0252
19660W        W20524  26.818  17.861   1.927 -0.0523 -0.0691 -0.0140
19661W        W20525   4.577   8.237  24.764  0.2363  0.1062 -0.0070
19662W        W20526   9.694   4.840   1.041 -0.0588  0.1997  0.0006
19663W        W20527   8.086  15.182  26.552 -0.1380 -0.0222 -0.0944
19664W        W20528   5.439   4.046  19.102 -0.0834  0.3509 -0.0084
19665W        W20529   1.918  22.623   2.415 -0.1655 -0.1102  0.1697
19666W        W20530  20.494  22.140  11.785  0.2579 -0.1272  0.0432
19667W        W20531   5.465  21.404  21.738 -0.2199  0.1619  0.0562
19668W        W20532  20.880  17.615  28.284  0.1739 -0.1274 -0.0478
19669W        W20533  23.831  26.134   3.804 -0.0148 -0.0214  0.0792
19670W        W20534  24.627   7.175   6.912  0.1305  0.0404 -0.0697
19671W        W20535  27.963   2.658   9.749  0.4053 -0.2412 -0.0645
19672W        W20536   7.335  26.234  19.500 -0.2022  0.0191  0.2314
19673W        W20537   1.010  19.488   3.584 -0.0197 -0.0334  0.2132
19674W        W20538  24.862  23.729  17.866 -0.3142 -0.4817 -0.1988
19675W        W20539  24.039   2.474   3.130  0.1137  0.1447 -0.1402
19676W        W20540  28.292  25.423  10.462 -0.0163  0.4392 -0.1429
19677W        W20541  11.360   3.959   3.483  0.0018 -0.0055  0.0631
19678W        W20542  20.515  20.717  14.768 -0.6835 -0.2866  0.3111
19679W        W20543  29.121  26.043  17.641  0.1654  0.0323  0.2090
19680W        W20544   1.399  27.846   3.702  0.2641  0.2330  0.1247
19681W        W20545  22.191  18.033   9.319  0.0388 -0.2136  0.0109
19682W        W20546  12.654   8.902  29.075  0.2347 -0.1785 -0.2702
19683W        W20547   2.598  23.152   4.926 -0.0695 -0.3740  0.0534
19684W        W20548   0.720   2.076  23.764 -0.1487  0.0896  0.0648
19685W        W20549   0.622  12.769  27.989  0.1158 -0.0417 -0.0719
19686W        W20550  18.952   6.802  15.182 -0.3919 -0.0715 -0.2156
19687W        W20551   4.417  27.669   6.263  0.1332 -0.1783  0.0742
19688W        W20552  23.876  25.771   1.759 -0.1455 -0.1356  0.5074
19689W        W20553  26.074  26.691  20.779  0.0521  0.1433 -0.0620
19690W        W20554  27.066  22.152  16.798  0.4261 -0.1232 -0.0790
19691W        W20555  17.930  28.954  28.238 -0.0612  0.1825 -0.0707
19692W        W20556   8.076   9.392   0.402 -0.2016  0.0113 -0.2368
19693W        W20557  24.804  20.547  16.568  0.2053 -0.3771 -0.1513
19694W        W20558   4.533   9.110  24.703 -0.0713 -0.1733 -0.0665
19695W        W20559  12.151  24.944   7.111  0.1972 -0.1920 -0.3009
19696W        W20560   0.383   1.100  21.219 -0.3785 -0.0592 -0.0566
19697W        W20561   8.531  12.499  17.432 -0.1404  0.3161  0.1746
19698W        W20562   0.550  28.544  25.599 -0.0634  0.1470  0.2933
19699W        W20563  19.764  17.003  14.375  0.1392  0.2439 -0.0310
19700W        W20564  17.037  25.401  12.126  0.1084  0.0472  0.2868
19701W        W20565  20.213   6.284   5.134 -0.0297  0.0425 -0.1651
19702W        W20566  19.616   7.688  23.392  0.1229  0.0270  0.1086
19703W        W20567  19.242  23.457   9.763 -0.1498  0.3205 -0.1124
19704W        W20568  21.346  16.748   5.162 -0.0127  0.0302 -0.0207
19705W        W20569  21.672  19.132  15.157 -0.2574 -0.0639  0.0233
19706W        W20570  15.593   9.195   5.473 -0.0902 -0.1919 -0.1313
19707W        W20571   1.979  19.587  11.799  0.0908 -0.1061  0.1814
19708W        W20572   5.290  19.574   3.715 -0.0156 -0.1707  0.2301
19709W        W20573  16.348  22.414  21.150  0.0541 -0.1679  0.3195
19710W        W20574   7.737   2.733  25.207 -0.1241 -0.2143  0.1733
19711W        W20575   7.848   9.054   4.938 -0.0531  0.0973 -0.1267
19712W        W20576   6.789  13.366   0.046  0.1116 -0.1703  0.2078
19713W        W20577  15.558  17.946   1.726 -0.3792 -0.1261 -0.0950
19714W        W20578   6.840  11.999   0.426 -0.1363 -0.1267  0.0213
19715W        W20579   5.304  17.480   0.568 -0.0784  0.1750  0.1045
19716W        W20580   5.967   0.445   8.837  0.3411 -0.2488 -0.2011
19717W        W20581   8.494  28.204  14.185  0.1992  0.1958  0.3187
19718W        W20582   3.891  28.418   7.441 -0.1175 -0.1367 -0.0637
19719W        W20583   0.407   9.573  14.627  0.1211 -0.0187 -0.1028
19720W        W20584  11.432  12.968  25.369 -0.2930 -0.1306 -0.1206
19721W        W20585  12.324  22.234  11.949  0.0534  0.2181  0.1502
19722W        W20586  20.557   6.876   0.399  0.0199 -0.1406 -0.3017
19723W        W20587   0.575   7.597  26.393 -0.1141 -0.0376 -0.0383
19724W        W20588  27.041  21.976   1.206 -0.0409  0.3277 -0.1122
19725W        W20589  21.955  21.991   1.560  0.1072  0.0778  0.3176
19726W        W20590  14.803  13.130   8.179  0.1496 -0.0000 -0.1733
19727W        W20591   3.070  21.656  24.088  0.1915  0.0079 -0.3086
19728W        W20592  25.363   5.092  12.739  0.3533 -0.0503  0.0429
19729W        W20593  15.342  21.360  16.353 -0.1364  0.1745 -0.0297
19730W        W20594   4.462  22.816  25.677 -0.1994 -0.2702 -0.2097
19731W        W20595   3.287  18.030  13.620 -0.0770 -0.2273  0.1313
19732W        W20596  16.764   6.170  13.658 -0.0354 -0.4208  0.0446
19733W        W20597  27.656  26.007   1.523 -0.1237 -0.1885 -0.2603
19734W        W20598  26.387   8.994  25.296  0.0638  0.0710  0.0668
19735W        W20599  16.603  19.802  16.384  0.1485 -0.1893  0.0893
19736W        W20600  14.486  19.797  22.776 -0.0809 -0.2856 -0.2095
19737W        W20601  29.002  21.895  10.380 -0.2890  0.1732 -0.0411
19738W        W20602  24.053  13.755  25.195  0.2009  0.0573  0.1739
19739W        W20603  21.078  13.152  16.245 -0.0802 -0.1775  0.2635
19740W        W20604  19.987   3.145   8.820 -0.2414 -0.0358  0.3668
19741W        W20605  24.805   6.833  18.448 -0.1510  0.0371  0.1757
19742W        W20606  20.517  25.192  18.609  0.2280 -0.0146  0.0830
19743W        W20607  23.599  20.007   8.549  0.2424 -0.0798 -0.0202
19744W        W20608  25.233  22.104  23.269  0.2833 -0.2452 -0.0831
19745W        W20609  23.388  19.674  19.654  0.5299 -0.2108 -0.0315
19746W        W20610  23.622  13.654  26.556 -0.5780 -0.0034  0.3922
19747W        W20611  21.212  25.280  11.774  0.2111 -0.2633  0.2871
19748W        W20612  12.997  17.443  27.970  0.2547  0.0535  0.0429
19749W        W20613  10.410  28.592   0.250  0.1682 -0.1924 -0.1802
19750W        W20614  19.107  15.676  20.804  0.1498 -0.1157  0.2415
19751W        W20615  26.817  19.940   1.056 -0.0693 -0.0061 -0.1396
19752W        W20616  23.224   2.798   1.644 -0.2624  0.0523  0.2078
19753W        W20617  21.703   4.818  12.703 -0.0109 -0.0106 -0.2036
19754W        W20618  13.868  20.798   0.541 -0.1316 -0.2068  0.0115
19755W        W20619  23.028  18.334   4.082  0.0269 -0.2307  0.0866
19756W        W20620  22.950  14.095  23.651 -0.0171  0.1014 -0.1428
19757W        W20621   1.471  28.610   3.340  0.2542 -0.1110 -0.4151
19758W        W20622  25.586   5.160  10.077 -0.3495  0.3461 -0.1618
19759W        W20623  21.266  16.792  12.561 -0.3703 -0.0507  0.1247
19760W        W20624  25.683  12.017   8.444 -0.0119 -0.1389 -0.3574
19761W        W20625  21.110  18.101   7.911  0.1472  0.0678  0.0870
19762W        W20626   1.923  26.988  19.895 -0.2641  0.0154  0.0654
19763W        W20627  28.939  18.210  15.882 -0.3090  0.1923  0.1294
19764W        W20628  15.942  14.627   3.047 -0.4417 -0.1334 -0.1779
19765W        W20629  20.697   5.833   9.067  0.0992  0.1949 -0.0931
19766W        W20630  23.935   1.032  12.287  0.3452 -0.0742  0.5026
19767W        W20631   3.760   2.574  13.969  0.1197  0.0293 -0.1258
19768W        W20632  11.978  22.804  25.207  0.2347 -0.0913 -0.0321
19769W        W20633  22.224  23.853   4.347 -0.2405  0.0015  0.0888
19770W        W20634  16.416  12.513  27.409 -0.0168 -0.1119  0.0433
19771W        W20635   9.425  27.662  17.671 -0.2815 -0.0565 -0.1287
19772W        W20636   7.166  13.488  15.710  0.0419  0.2313  0.0393
19773W        W20637  23.156  27.823  27.009  0.0577  0.2864  0.1457
19774W        W20638  26.601  14.654   5.063  0.0818 -0.0282 -0.3000
19775W        W20639  22.967  28.624   3.082  0.2352 -0.1314  0.0797
19776W        W20640  28.635   7.423   5.753  0.0985  0.1822 -0.1178
19777W        W20641   8.036   6.421  25.936  0.0554  0.1189  0.2150
19778W        W20642  20.844  18.164  17.589 -0.1568 -0.4378  0.0630
19779W        W20643  28.746  25.289  19.344  0.1921 -0.1690  0.1902
19780W        W20644  12.607   3.223   1.901 -0.0856  0.1137  0.1268
19781W        W20645   0.326   9.877  15.570  0.0827 -0.0699 -0.0786
19782W        W20646  18.814  16.699  18.023 -0.1458 -0.1477  0.1354
19783W        W20647  19.849  18.037  23.179 -0.3846 -0.0168 -0.2055
19784W        W20648   1.839  16.246  14.560  0.1600 -0.0566  0.0297
19785W        W20649  24.016  22.266  25.929  0.1663 -0.1405 -0.0130
19786W        W20650  22.315  24.912  19.523  0.1827  0.2002 -0.1883
19787W        W20651   9.212  26.692   5.336 -0.3007 -0.1919  0.0089
19788W        W20652  26.366  22.839   5.285 -0.3058  0.1917 -0.0612
19789W        W20653   5.401  23.291   1.394 -0.3442 -0.1938 -0.2134
19790W        W20654  22.967  25.729  11.777  0.1981 -0.1561 -0.2793
19791W        W20655  26.512  17.437  18.607 -0.0111 -0.1800 -0.0358
19792W        W20656   2.442   1.335  14.513  0.1377 -0.0515  0.0269
19793W        W20657   4.197   6.015  26.740 -0.1331  0.1824 -0.3696
19794W        W20658   1.648   3.589   6.063  0.0477 -0.2584 -0.1491
19795W        W20659   8.005  18.124  13.225 -0.3006  0.1410 -0.0904
19796W        W20660   0.492  19.671  10.695  0.0282  0.1744  0.2249
19797W        W20661   4.439  10.936   9.636 -0.2313 -0.0487  0.0873
19798W        W20662   4.397  20.494  13.773  0.4529 -0.3409  0.5223
19799W        W20663   0.483  24.616   8.091  0.2275  0.0283 -0.1192
19800W        W20664   5.160  13.485   7.828 -0.0709 -0.2778  0.3253
19801W        W20665  16.742  25.714  22.989  0.5221  0.0515 -0.0373
19802W        W20666  17.088   7.832  13.551 -0.1683 -0.2300  0.1642
19803W        W20667  20.354  18.123  24.267 -0.0554 -0.1075  0.2526
19804W        W20668  29.004  25.449   0.444  0.2729  0.2408  0.5587
19805W        W20669  26.770  24.775   8.105 -0.1844  0.1814  0.2345
19806W        W20670  20.778  21.225  14.856  0.1407  0.0023  0.3079
19807W        W20671   1.795  26.156   7.314 -0.2136 -0.0554 -0.2438
19808W        W20672  21.111  17.225  22.988  0.0980 -0.3308  0.1743
19809W        W20673  18.683   1.194  16.950 -0.0317 -0.1820 -0.1578
19810W        W20674  11.234   4.042   1.268 -0.0287 -0.1569 -0.0238
19811W        W20675  13.423  22.294  10.328  0.0546 -0.2743  0.1658
19812W        W20676  25.591  15.357  15.848  0.0567 -0.1995  0.1633
19813W        W20677  25.510  16.095  28.788 -0.0220  0.1764  0.1807
19814W        W20678  21.807  17.443   7.279  0.1370  0.3152 -0.2022
19815W        W20679  23.603   8.520   8.521 -0.0302  0.1746  0.1640
19816W        W20680  14.892  28.818  26.256 -0.2299 -0.0909  0.4832
19817W        W20681  28.718  17.598   8.397 -0.1305 -0.2474 -0.1683
19818W        W20682  26.528   7.938   8.312 -0.0676 -0.1348  0.1559
19819W        W20683  19.741  12.491   0.014  0.4680  0.1244  0.0123
19820W        W20684   5.356  25.805  28.427  0.2125  0.1236  0.3026
19821W        W20685   8.958  22.134  10.070  0.0985  0.1336 -0.2011
19822W        W20686  20.577  23.894  11.642  0.0546 -0.5414 -0.0697
19823W        W20687  24.756  24.017   1.068  0.0603  0.2363  0.1347
19824W        W20688  16.874   1.356  10.036 -0.0483  0.2127  0.1341
19825W        W20689  27.243  18.587  14.921 -0.0728 -0.0668  0.3129
19826W        W20690  26.128  17.227   3.165  0.2473  0.2076  0.0651
19827W        W20691   3.673  15.587  11.245  0.2103 -0.1293 -0.1459
19828W        W20692  27.273  11.439   6.617 -0.1442  0.3439 -0.1528
19829W        W20693  18.432  27.989  16.230 -0.1226 -0.1904 -0.0671
19830W        W20694   0.791  24.463   1.198  0.2086  0.0743 -0.0651
19831W        W20695  22.895  18.736   3.552 -0.0160  0.1142  0.2239
19832W        W20696  23.647   0.884   1.567  0.0346  0.1306  0.0437
19833W        W20697  11.259   9.822  13.453 -0.1004  0.0743  0.0281
19834W        W20698   4.269  20.890  10.218 -0.0347 -0.0207  0.3526
19835W        W20699  26.756  12.748  26.324 -0.0242 -0.0277 -0.2987
19836W        W20700  19.739   2.960  22.791 -0.0510  0.0363 -0.0057
19837W        W20701  19.770  28.358  10.704  0.0568 -0.2296 -0.0412
19838W        W20702   5.588  15.207   1.898 -0.2846  0.2659  0.0891
19839W        W20703  22.962   3.359  28.880  0.0184  0.0193  0.1413
19840W        W20704   4.527  15.188   1.821 -0.0471 -0.0141 -0.0933
19841W        W20705  18.144  20.086   6.842  0.2734  0.1332 -0.0354
19842W        W20706  22.165  25.635   7.956 -0.1094 -0.1114  0.1141
19843W        W20707  11.873   0.709   7.431 -0.1106  0.0229  0.0470
19844W        W20708  26.019  23.352  22.938  0.3712  0.0658 -0.1258
19845W        W20709  10.891  28.005   3.373 -0.1047 -0.1193 -0.0489
19846W        W20710   9.684  16.100   2.210 -0.2241  0.0905 -0.1419
19847W        W20711  18.886  14.506   8.630  0.0093  0.1637 -0.3682
19848W        W20712  15.839  17.873  14.483 -0.1538 -0.1287  0.0508
19849W        W20713   5.185   3.937  17.494  0.0586 -0.0578  0.1151
19850W        W20714   4.630   4.047   8.210 -0.1314 -0.0507 -0.1250
19851W        W20715   8.588  22.799  18.788  0.0252  0.0483 -0.4607
19852W        W20716  24.354   1.651   8.918 -0.0972  0.0672  0.1354
19853W        W20717   6.828  17.147   7.527  0.0725  0.2351 -0.5982
19854W        W20718  21.159  27.807   4.479  0.2270  0.5850 -0.1049
19855W        W20719  24.171  12.887  17.636  0.1252  0.2662  0.1741
19856W        W20720   3.505  18.354   5.540  0.0589 -0.0149 -0.2516
19857W        W20721   1.589  26.803  11.805  0.1047 -0.2209  0.0430
19858W        W20722   1.577  28.145   2.922  0.0972  0.1680  0.0372
19859W        W20723  17.095  15.185   6.709  0.1337  0.0842 -0.1657
19860W        W20724  27.127  26.837   6.501 -0.0053 -0.1085 -0.0984
19861W        W20725  18.727  25.783   6.788 -0.0082  0.0746 -0.0457
19862W        W20726   7.351   2.700   4.147 -0.0476 -0.1463  0.1950
19863W        W20727  17.740  24.582  16.299  0.2306 -0.0005 -0.3410
19864W        W20728   9.350  24.461   3.330  0.0164  0.0502 -0.2793
19865W        W20729   6.004  20.042  14.032  0.0550  0.3948  0.0404
19866W        W20730  26.776   8.789   3.226  0.0640  0.1520  0.0308
19867W        W20731  28.645  19.065   8.327 -0.0204 -0.0382  0.0097
19868W        W20732   4.508  28.461   8.641  0.1029  0.1107  0.0596
19869W        W20733   8.562  10.588  10.596  0.2423 -0.1547 -0.2967
19870W        W20734   4.360  18.672  16.722  0.1063  0.1219  0.0736
19871W        W20735   3.201  13.299   6.697  0.1284  0.4331 -0.3932
19872W        W20736  26.208  14.629   9.890  0.0834  0.0322  0.0633
19873W        W20737  12.621  19.942   3.175  0.0941  0.0961  0.1567
19874W        W20738  17.196   3.037  27.232  0.0391  0.1585 -0.1114
19875W        W20739  22.116   0.714  28.817 -0.1327 -0.0369 -0.1182
19876W        W20740  20.467  23.953  11.140  0.0911  0.1084  0.0510
19877W        W20741  27.438  13.002  17.515 -0.1426 -0.2017 -0.0620
19878W        W20742  17.812   7.874  10.883  0.2955 -0.1713 -0.1326
19879W        W20743   1.819  13.242  24.218  0.0557  0.0326 -0.0144
19880W        W20744  13.533  17.289   8.320  0.0874  0.4523 -0.1868
19881W        W20745  28.127   9.421  26.433 -0.1754 -0.2382  0.0420
19882W        W20746  10.017  11.580   6.842  0.0963  0.0445 -0.1328
19883W        W20747  17.425  21.929  18.166 -0.0255  0.3916 -0.1224
19884W        W20748   5.305   3.305  28.798 -0.1064 -0.2952  0.1582
19885W        W20749  10.362  23.303  10.376  0.2040 -0.0720 -0.1144
19886W        W20750  22.122  15.642  15.249  0.2349 -0.0552 -0.3734
19887W        W20751   0.275  24.697   0.468 -0.0857  0.0955  0.2587
19888W        W20752  28.453  15.827   3.403 -0.0204 -0.2346  0.0357
19889W        W20753  13.050  27.598   8.917  0.0028  0.1474 -0.1147
19890W        W20754  18.646  24.469  11.140  0.0710 -0.2488 -0.0088
19891W        W20755   9.451  26.199  21.291 -0.0322 -0.0460  0.1858
19892W        W20756   9.411  23.816  19.853  0.2104 -0.2202  0.0009
19893W        W20757  25.481  16.987  11.241  0.1858 -0.0595 -0.0378
19894W        W20758  28.900  22.600  28.191 -0.0026 -0.3023 -0.1433
19895W        W20759  13.082   3.102  17.772  0.3592 -0.0701 -0.0131
19896W        W20760  26.533  15.517  23.953  0.1454  0.0571 -0.0617
19897W        W20761  20.645   3.378  13.171 -0.1049  0.2220 -0.2739
19898W        W20762  29.122  18.559  25.980  0.2524  0.0888 -0.0889
19899W        W20763  19.327  26.885   7.238 -0.2119 -0.3856  0.2794
19900W        W20764  28.601  17.468   1.233 -0.2743 -0.3893  0.0438
19901W        W20765  27.164  21.225  16.654 -0.1601  0.1349 -0.5376
19902W        W20766   9.105   6.352  25.261 -0.0390 -0.2181 -0.0432
19903W        W20767   8.098   4.909  11.623 -0.1533  0.5380  0.2473
19904W        W20768   2.624   8.988  22.632 -0.1005  0.0252 -0.3612
19905W        W20769   0.635   5.107  28.142  0.1471 -0.2031  0.0594
19906W        W20770  28.328  18.549  12.534 -0.0484 -0.0931 -0.1266
19907W        W20771   9.047  25.600  13.633  0.0317 -0.0002 -0.2316
19908W        W20772  25.464  16.192  18.207  0.4927 -0.3395 -0.0670
19909W        W20773  11.232   5.701   6.421  0.2108  0.0421  0.2563
19910W        W20774  14.157  11.141   2.429  0.1884 -0.0784 -0.2304
19911W        W20775  14.414  14.762  17.527  0.1672  0.0356  0.5921
19912W        W20776  26.336   0.050  15.864  0.3467 -0.0381  0.1320
19913W        W20777  27.270  28.432   6.367  0.1543 -0.1775 -0.0006
19914W        W20778   3.681   6.975   4.439  0.0667  0.0478 -0.2436
19915W        W20779   9.729  18.237  11.772  0.0818  0.1944  0.1835
19916W        W20780  12.522   2.909  14.846 -0.0645  0.2931 -0.1893
19917W        W20781  28.665  22.335   0.430 -0.3212  0.1338 -0.1217
19918W        W20782  11.591  19.480  21.192 -0.2156  0.1975  0.1024
19919W        W20783   6.230  13.738   1.650 -0.0185  0.1552  0.1663
19920W        W20784  20.271  26.324  13.221  0.0936  0.2111  0.1936
19921W        W20785  18.992  10.694   0.096  0.2977  0.0341  0.2485
19922W        W20786  28.070   8.399  17.375 -0.0079 -0.0262  0.0291
19923W        W20787  11.312   4.523   9.544 -0.1638  0.0199  0.1245
19924W        W20788  16.653  25.536  26.422  0.1628 -0.0453  0.1500
19925W        W20789   2.882   8.640   6.007  0.0387  0.2085  0.1881
19926W        W20790  20.724  25.980  20.371  0.0478 -0.2299 -0.2376
19927W        W20791  11.954  13.968   5.629  0.3872  0.1911  0.0369
19928W        W20792   9.261  20.658   1.203 -0.0172  0.1020  0.5941
19929W        W20793  13.140  25.403   1.025 -0.2144  0.4787 -0.1618
19930W        W20794  25.057   4.438  10.906  0.2411  0.0853 -0.2957
19931W        W20795  16.804   4.639  12.846 -0.1259  0.0839 -0.3151
19932W        W20796  24.191  21.535   2.452  0.2057  0.0531  0.0361
19933W        W20797   1.938  13.024   9.582 -0.2013 -0.2553  0.0869
19934W        W20798  11.888   3.234   2.558  0.3516 -0.0100 -0.3884
19935W        W20799   8.126  14.608  17.507  0.1195  0.1463  0.2189
19936W        W20800  24.802  12.700   3.166  0.0837 -0.1456 -0.1712
19937W        W20801   8.534  27.072   4.465  0.2583 -0.1756 -0.0409
19938W        W20802  20.916  24.094   3.025  0.1352 -0.1123  0.0111
19939W        W20803  20.466  23.812  26.472 -0.0546  0.1976  0.1199
19940W        W20804  25.867  27.020   1.574 -0.3455 -0.2334  0.0972
19941W        W20805   8.027  14.267  24.976 -0.0820  0.0755  0.1386
19942W        W20806  20.356  23.155  11.146  0.0968  0.0995  0.0428
19943W        W20807  21.978  13.291   7.104 -0.0007 -0.0614  0.0181
19944W        W20808  28.966  29.057  18.041  0.3168 -0.0318 -0.0403
19945W        W20809  14.797  13.688  11.409 -0.4001  0.1189  0.2363
19946W        W20810  26.975  23.568  27.880 -0.1055  0.1441  0.0997
19947W        W20811  27.086   8.030   2.162  0.0706 -0.3154 -0.0156
19948W        W20812  19.585   8.008   0.883  0.0131  0.1499 -0.0403
19949W        W20813  28.800   4.242  24.164 -0.0342  0.2002 -0.1147
19950W        W20814  23.672  23.506   6.514 -0.0902  0.0067 -0.1351
19951W        W20815  18.518  23.640   2.206  0.1664  0.1460 -0.0553
19952W        W20816  13.969  19.206   7.939 -0.4919 -0.1356 -0.2988
19953W        W20817   0.609  27.442  20.345  0.0137 -0.1332 -0.0260
19954W        W20818  22.181  16.883  24.904  0.1090  0.1517  0.1387
19955W        W20819  23.822  13.518   1.247  0.1131  0.1587  0.0468
19956W        W20820   1.820  23.181  22.516  0.0774  0.3260  0.1717
19957W        W20821  21.029  19.207   8.742  0.1232 -0.1547 -0.0322
19958W        W20822  20.510  18.971  21.991 -0.1328 -0.0396 -0.0774
19959W        W20823  13.683   9.764   5.114 -0.2656 -0.0329 -0.3292
19960W        W20824  10.485  16.045  21.469  0.0497 -0.1595 -0.0308
19961W        W20825  10.320  28.318  26.991  0.1683 -0.2330 -0.2136
19962W        W20826  15.222  15.168   2.811  0.1601 -0.1377  0.1685
19963W        W20827  13.660   9.306  25.357 -0.3661 -0.1449  0.0290
19964W        W20828  19.425  16.108   3.776  0.0063 -0.0964 -0.1114
19965W        W20829  14.381   6.448  10.820 -0.1374  0.2317  0.2937
19966W        W20830  23.741  26.230  13.595  0.0576  0.1972  0.2154
19967W        W20831   8.155  11.649  17.404 -0.4108 -0.2247  0.0975
19968W        W20832   8.634  28.695  11.745  0.0690 -0.2435 -0.0343
19969W        W20833  23.452  11.069  11.065  0.0197 -0.0505  0.4073
19970W        W20834  15.477  11.367   1.515 -0.1799  0.4428 -0.0097
19971W        W20835  18.680  11.463  13.947 -0.0757  0.2329  0.2533
19972W        W20836  25.037  28.768   5.669  0.1717 -0.0113  0.0056
19973W        W20837  28.630   7.926  19.703 -0.3055  0.0727  0.0525
19974W        W20838  24.869   0.389  24.445  0.1716  0.1579 -0.1513
19975W        W20839   9.879  19.028  21.583 -0.0787 -0.0299  0.3108
19976W        W20840   3.002   0.862   9.854  0.0705 -0.0264  0.3187
19977W        W20841  15.110  28.634   2.510 -0.0351 -0.1898  0.1396
19978W        W20842  11.568   1.245   3.503 -0.2591 -0.0334 -0.2205
19979W        W20843   8.850  11.233  19.579  0.0577 -0.0862 -0.0950
19980W        W20844  15.543  27.306  22.880 -0.0628  0.0710  0.0076
19981W        W20845  21.317   0.688  14.692  0.4635 -0.3989 -0.3120
19982W        W20846   8.926   5.297  18.865 -0.1568 -0.0479 -0.0758
19983W        W20847  27.386  23.154   6.623  0.0679 -0.3265 -0.1220
19984W        W20848  25.527  23.222  23.963 -0.1211  0.1706 -0.0809
19985W        W20849   7.310  11.177  10.636  0.0366 -0.2214 -0.0124
19986W        W20850   6.478  19.925  28.831  0.1998  0.2161 -0.3984
19987W        W20851  12.241  23.288   3.700  0.1772 -0.1963 -0.0754
19988W        W20852   3.199  13.363  10.048  0.1651  0.0784  0.2441
19989W        W20853  17.905   6.496  27.961 -0.1479  0.0690  0.0855
19990W        W20854  16.846  17.667   3.358  0.0670  0.3393  0.0165
19991W        W20855  20.221  11.955  10.140 -0.0996  0.1193  0.3336
19992W        W20856  25.397   1.380  25.254  0.0008  0.1380  0.0491
19993W        W20857  13.240  12.244  11.365  0.0343 -0.3550 -0.0664
19994W        W20858  25.162   1.358   6.293 -0.2669  0.1189  0.0736
19995W        W20859   6.496   6.479  21.872  0.2947 -0.3538 -0.1707
19996W        W20860   9.559  22.208  21.414  0.0363 -0.3530 -0.1048
19997W        W20861   2.016  22.683  22.594  0.0309  0.4161  0.2488
19998W        W20862  17.067   3.344  23.130  0.0197 -0.2780  0.0890
19999W        W20863   2.909   3.168   8.383  0.0870 -0.3252 -0.1437
20000W        W20864  19.430   1.618  17.723  0.1068  0.2982  0.1017
20001W        W20865  21.533  26.071   5.344 -0.0638  0.2673 -0.0753
20002W        W20866   5.918  28.613  12.608  0.2726 -0.1086 -0.0224
20003W        W20867  11.705   1.986  28.809  0.3735  0.0236  0.1800
20004W        W20868   5.432  11.856  27.888 -0.1800 -0.1112  0.0463
20005W        W20869   8.405  24.902  25.358 -0.3297  0.2309  0.1626
20006W        W20870  23.499  25.202  10.507 -0.3557 -0.2340 -0.2331
20007W        W20871  25.307  14.610   9.234 -0.4173  0.1997  0.0283
20008W        W20872  17.480  28.234  26.387 -0.2036  0.0325  0.0913
20009W        W20873  21.540  20.862  24.481  0.3397  0.3550 -0.0276
20010W        W20874  16.006  13.769  26.803  0.1989 -0.2604 -0.1740
20011W        W20875  14.732  12.442   5.211 -0.1208  0.2011  0.0658
20012W        W20876   3.750   7.866   3.273  0.1297  0.1552  0.2512
20013W        W20877  23.017  23.017   2.747  0.2866 -0.2306 -0.2849
20014W        W20878   1.646  26.959   2.678  0.1602 -0.1246  0.2001
20015W        W20879  18.359   0.560  24.505  0.4376 -0.1449 -0.4404
20016W        W20880   2.611  13.685   8.552  0.0443 -0.0543 -0.1873
20017W        W20881  15.056   1.018   5.820 -0.0151 -0.3757 -0.2675
20018W        W20882  26.924   4.965   7.802 -0.2683 -0.0214  0.2171
20019W        W20883  11.382  25.910  15.571 -0.0039  0.0744 -0.0788
20020W        W20884   7.611  18.433  29.009 -0.4494  0.0840 -0.4102
20021W        W20885   1.544   8.717   8.488  0.1404 -0.2781 -0.1721
20022W        W20886   0.637  20.339   1.679  0.0205 -0.5773 -0.2128
20023W        W20887  18.126   8.944   8.588  0.2088  0.0213 -0.0133
20024W        W20888  22.828  23.809  14.572  0.0316  0.0590  0.1123
20025W        W20889  24.898  18.541  21.539  0.3222  0.0452 -0.2246
20026W        W20890   5.309  21.407  22.607  0.0566  0.1956 -0.0924
20027W        W20891  17.087  17.104   5.308 -0.0783 -0.2267  0.1717
20028W        W20892  27.914  24.083  13.186  0.3025 -0.1004 -0.0976
20029W        W20893  27.657   4.533   7.419 -0.1829 -0.0224 -0.0887
20030W        W20894  12.551  17.651  10.147  0.1050 -0.0563 -0.1443
20031W        W20895  15.991   0.370   6.202 -0.2178 -0.3860 -0.1295
20032W        W20896  15.296   1.913  14.063  0.2471  0.0877 -0.3552
20033W        W20897   8.124  10.730  17.083  0.1103  0.0387 -0.0531
20034W        W20898  23.449  27.475  26.036  0.1657 -0.1489  0.1269
20035W        W20899  14.420  28.836  28.182  0.2810 -0.1624 -0.1143
20036W        W20900  10.910   1.644  16.892 -0.1891  0.0732  0.1470
20037W        W20901   6.194  18.608  10.138 -0.2393 -0.1301  0.0154
20038W        W20902   5.129   4.303  10.657 -0.0914 -0.0854 -0.0943
20039W        W20903  20.743  25.473  27.677 -0.0005  0.0124 -0.1491
20040W        W20904  21.379  19.721   8.185  0.2401  0.3414  0.2175
20041W        W20905  26.030  19.091  19.144 -0.1885 -0.2835  0.3568
20042W        W20906  18.818  21.514   1.197 -0.1493 -0.0103  0.0039
20043W        W20907  26.667  28.989  25.023 -0.2796 -0.1804  0.3314
20044W        W20908  16.613  13.635   9.011 -0.1795 -0.0420 -0.1011
20045W        W20909  16.557  26.458  22.355  0.1833 -0.0097  0.0693
20046W        W20910  17.273   1.650  11.027 -0.0643 -0.1406 -0.1834
20047W        W20911  17.745  27.174   9.848  0.4292 -0.2124 -0.2573
20048W        W20912  11.692  19.557  10.686  0.0092 -0.0266  0.0606
20049W        W20913   9.235   7.303  14.802  0.0401 -0.0868  0.3854
20050W        W20914  24.576   0.946   9.520 -0.1288 -0.0038 -0.2520
20051W        W20915  11.633  10.302  11.690 -0.0348  0.0519 -0.0484
20052W        W20916   8.286   7.571  28.104  0.0605  0.1942 -0.3246
20053W        W20917   5.176   7.720   0.166  0.3359  0.0544 -0.4183
20054W        W20918  28.016   9.569  11.675  0.2178 -0.0135  0.0678
20055W        W20919   8.374  19.979   0.490 -0.0754 -0.4043 -0.1525
20056W        W20920  21.494   1.699   9.434  0.0206 -0.1072 -0.2150
20057W        W20921   9.200  13.811  18.069 -0.1015  0.2513  0.3203
20058W        W20922   1.971  19.240  10.669  0.1749  0.3683  0.0860
20059W        W20923   5.253   9.195  26.150  0.2237  0.1203  0.0826
20060W        W20924  18.714  15.647  11.075 -0.1266  0.0064  0.1629
20061W        W20925  28.717   3.444   4.406 -0.1866 -0.1022  0.0871
20062W        W20926   9.199   3.059  21.514 -0.0804 -0.0412  0.1240
20063W        W20927   4.125  28.165  28.333 -0.0553  0.0261  0.0213
20064W        W20928  16.451  18.301  25.270 -0.0319  0.1250 -0.2882
20065W        W20929  11.647  22.834  11.157 -0.1791  0.1625 -0.0797
20066W        W20930  26.515  28.104  20.075 -0.1141 -0.1007 -0.0536
20067W        W20931  23.893   5.071  12.721  0.0355 -0.0613  0.2362
20068W        W20932   0.870  14.405  26.513  0.0217  0.2394 -0.1286
20069W        W20933   1.096  13.078  10.842 -0.1062  0.1572  0.2972
20070W        W20934  19.919  28.819  16.035  0.1976 -0.0209  0.0883
20071W        W20935  27.292   4.878   1.175  0.0456 -0.0826 -0.0638
20072W        W20936  28.720  23.133  24.242  0.3239 -0.0565  0.0125
20073W        W20937   3.690  14.377  27.802  0.3187 -0.1127 -0.0955
20074W        W20938  17.059  20.415   1.783  0.0497  0.1101  0.1224
20075W        W20939   5.862   0.965  26.811  0.2865  0.0199 -0.1798
20076W        W20940   8.451   9.577   7.792  0.1243 -0.1079  0.0199
20077W        W20941   0.192  19.412  10.372  0.3488 -0.4228  0.1628
20078W        W20942   2.036  25.366   9.302  0.3497  0.0209 -0.2357
20079W        W20943  28.263   5.511   1.385  0.1912 -0.2632  0.1709
20080W        W20944  28.304   0.719  28.889  0.0360 -0.0147 -0.0125
20081W        W20945  17.787  18.568   7.675  0.0809 -0.0034 -0.2440
20082W        W20946  11.082  27.784  22.493  0.1940 -0.0686 -0.1916
20083W        W20947  10.519  23.724   6.834 -0.0089  0.0447  0.0248
20084W        W20948  19.795  28.858  13.149 -0.4195 -0.0067 -0.0770
20085W        W20949   9.708  21.940  18.035 -0.0277 -0.0839 -0.1310
20086W        W20950   0.111  23.037  28.207 -0.0874 -0.0423  0.0650
20087W        W20951  25.376   2.525   8.160 -0.2381 -0.1193 -0.0915
20088W        W20952   7.602   8.561  28.558 -0.4966  0.2440  0.1368
20089W        W20953  23.756  21.579   3.820  0.2964  0.0124 -0.2063
20090W        W20954  24.277  28.613   4.925 -0.2343  0.3571 -0.1522
20091W        W20955  14.621   4.742   7.742 -0.0549 -0.2693  0.0640
20092W        W20956  25.506  26.491   9.815 -0.0361  0.1421  0.0789
20093W        W20957  25.985  17.687  13.056 -0.5393 -0.0801 -0.1372
20094W        W20958   0.850  17.613   1.897 -0.0560 -0.0330 -0.0475
20095W        W20959  17.062   7.736   9.186 -0.2374 -0.2202  0.0106
20096W        W20960  14.197  24.729   1.043  0.4733 -0.2794 -0.3504
20097W        W20961  20.461  18.692   0.189 -0.0364 -0.1497 -0.1061
20098W        W20962   0.426   0.923   7.069  0.0224 -0.1698  0.1159
20099W        W20963  28.092  25.027  20.921  0.4496 -0.4116  0.1807
20100W        W20964  16.182   5.973  28.063  0.0807  0.3650  0.2117
20101W        W20965  12.357   6.490  17.131 -0.0325 -0.0629  0.3134
20102W        W20966   6.335   6.366  21.374  0.0281 -0.1309  0.0020
20103W        W20967  18.649  25.989   3.580  0.1306 -0.2957  0.0887
20104W        W20968   8.535  10.933  22.504  0.0525 -0.0535 -0.2259
20105W        W20969  16.202  13.935  23.823  0.0152  0.1252 -0.0442
20106W        W20970  20.832   7.594  17.882 -0.2366  0.0742  0.1425
20107W        W20971  25.529   7.806   2.761 -0.3283 -0.1861 -0.1900
20108W        W20972   9.478   1.924  20.666 -0.0859  0.0004  0.2942
20109W        W20973  27.489  27.918  27.591 -0.0305 -0.0656  0.4040
20110W        W20974   6.239   2.187  28.732  0.1898  0.0985 -0.4556
20111W        W20975   5.025   8.010  15.014  0.2386 -0.0541 -0.2621
20112W        W20976  15.594   5.510  10.902  0.0275 -0.3288 -0.1118
20113W        W20977   3.604   2.600  25.234 -0.0641 -0.1652  0.1785
20114W        W20978  25.729   0.266  27.535 -0.1409 -0.1653 -0.0782
20115W        W20979  17.298  21.460  16.194 -0.0467 -0.0781  0.1278
20116W        W20980  25.744  19.648  24.362 -0.0130  0.1529  0.0454
20117W        W20981   0.568  28.905  27.512 -0.0738  0.2273  0.2492
20118W        W20982  15.015   0.204  18.673 -0.1039 -0.0781  0.1313
20119W        W20983   4.074  15.452   1.910 -0.0552 -0.0599 -0.1027
20120W        W20984   3.770  15.274  14.363 -0.5000 -0.2094 -0.2200
20121W        W20985  29.069  24.735  19.041 -0.0673  0.0671  0.0116
20122W        W20986   7.561   7.315   5.089 -0.1103  0.0686  0.0284
20123W        W20987   2.151   1.293   8.150 -0.0053 -0.1778 -0.1862
20124W        W20988  12.353  25.756   6.268  0.2524  0.0091  0.1141
20125W        W20989  21.571   5.750  19.057  0.0033 -0.1351  0.1107
20126W        W20990   9.898  25.365   7.479  0.0404  0.3210  0.1486
20127W        W20991  27.486  24.052  11.989  0.2390 -0.1396 -0.0504
20128W        W20992  16.183  13.619  24.651 -0.2356  0.0270  0.0213
20129W        W20993  28.799  16.258   4.646 -0.0323  0.0998  0.1454
20130W        W20994  16.151  15.911  17.567 -0.1659 -0.0346 -0.1141
20131W        W20995  13.367  10.786  14.220  0.1785 -0.0711  0.2812
20132W        W20996   8.517  26.733  23.931  0.1571 -0.1391 -0.1541
20133W        W20997  19.698  15.046   6.962 -0.0359  0.2460  0.0146
20134W        W20998   5.735  13.821  14.502 -0.0015  0.0713 -0.0368
20135W        W20999  21.760  19.379   8.238  0.4881  0.4359 -0.1371
20136W        W21000  10.374   1.868  12.328  0.0128 -0.1841 -0.1209
20137W        W21001  10.628   2.603  28.583  0.0923 -0.1372  0.3554
20138W        W21002   5.698   6.428  10.980  0.0719 -0.2597  0.1031
20139W        W21003   7.306  12.072  15.543  0.1916  0.0790  0.1897
20140W        W21004   9.621   4.058   2.349 -0.2213 -0.0667 -0.0192
20141W        W21005  16.863  28.673  23.688 -0.1506 -0.0952 -0.1153
20142W        W21006   2.089  21.379  16.443 -0.0178  0.3703  0.2613
20143W        W21007  14.021  12.928  11.432 -0.1013 -0.3120 -0.1204
20144W        W21008  21.947  23.916  24.011  0.0415  0.2540 -0.4262
20145W        W21009  20.382   4.402  13.839  0.0444 -0.1209  0.0013
20146W        W21010  28.173   4.033  15.711 -0.3235  0.2612  0.2721
20147W        W21011  11.257  19.909   9.477 -0.4472 -0.1386  0.3251
20148W        W21012  18.014  20.611  18.181 -0.1506  0.1400  0.1162
20149W        W21013  16.599  22.933   5.586  0.1575 -0.0184 -0.0407
20150W        W21014  24.493  12.368   6.647  0.2006  0.2087 -0.1322
20151W        W21015   2.085  16.850   4.813 -0.0398 -0.0670  0.0811
20152W        W21016   4.910  26.530   7.545 -0.1085 -0.4836  0.1369
20153W        W21017   2.184   0.623   7.569  0.2215 -0.1679  0.0186
20154W        W21018  17.047   3.719   6.510 -0.0425  0.2936  0.2562
20155W        W21019  21.935  17.052   1.518  0.1374  0.2733 -0.1806
20156W        W21020  15.290   9.205   8.855  0.1406 -0.0106  0.3747
20157W        W21021  16.955  18.033  10.384  0.2749 -0.0918  0.3480
20158W        W21022   0.445  13.726  28.093  0.1008 -0.1708  0.2591
20159W        W21023  20.561   8.772  11.261  0.3751 -0.3297  0.2895
20160W        W21024   0.937   0.239   3.829 -0.2144  0.2234  0.1134
20161W        W21025   0.247  24.092   4.436 -0.1364  0.1437  0.2542
20162W        W21026   6.563  27.634  12.064 -0.0120  0.1302  0.2370
20163W        W21027   6.422   7.208   6.829  0.0508  0.3217 -0.0836
20164W        W21028  19.958   3.064  10.366 -0.0016 -0.0266  0.4001
20165W        W21029   9.404   5.210  13.587 -0.0744  0.2517 -0.0744
20166W        W21030  21.281   8.459  10.304  0.0086 -0.1642 -0.1126
20167W        W21031   5.583  21.927  28.885  0.0673 -0.1715 -0.1867
20168W        W21032   9.504   9.052   3.665 -0.0014 -0.0906  0.2836
20169W        W21033   3.010  20.854   3.228 -0.2680 -0.1361 -0.1697
20170W        W21034   5.106  13.441  20.141  0.0664 -0.0512 -0.2648
20171W        W21035   5.033  27.969  12.798  0.0186 -0.0988 -0.0328
20172W        W21036  17.382  11.860  22.074  0.0177 -0.1632  0.0297
20173W        W21037  21.388  12.500   3.127  0.2626 -0.0379  0.1460
20174W        W21038  17.092  21.509   9.483  0.1506  0.1115  0.0585
20175W        W21039  27.520   8.632   2.777  0.1559 -0.0515 -0.4096
20176W        W21040  18.922  12.039  25.907  0.0940 -0.0684  0.1937
20177W        W21041   5.034  13.582  23.345 -0.1004  0.2658  0.1653
20178W        W21042  23.186  11.364  12.247  0.2654 -0.1609  0.3775
20179W        W21043   2.182  11.466   4.289  0.2788  0.0141  0.0278
20180W        W21044  20.896   9.096   6.841 -0.3202 -0.2655 -0.3155
20181W        W21045   2.592  11.620  26.650 -0.2484 -0.1376  0.0947
20182W        W21046  21.730  27.380   6.523  0.1890 -0.0763 -0.3003
20183W        W21047   8.362  16.315   6.692 -0.2403  0.1476  0.3421
20184W        W21048   2.116  20.626  18.479 -0.0196 -0.2029 -0.1296
20185W        W21049   5.705  27.370  20.260  0.3492  0.3689  0.1269
20186W        W21050  11.315   1.460   0.445 -0.2853 -0.0801 -0.0018
20187W        W21051  13.346   9.004   2.629  0.3360  0.0332 -0.1354
20188W        W21052  23.413  25.757   7.383 -0.1612 -0.2768 -0.2303
20189W        W21053   4.414  19.639  10.136 -0.3484 -0.1085 -0.0421
20190W        W21054  25.860   8.051  17.544  0.2686  0.1244  0.0424
20191W        W21055  13.832   2.139   5.817 -0.1649 -0.2697 -0.1996
20192W        W21056  12.856   2.502   3.596 -0.1404 -0.1519 -0.1078
20193W        W21057  19.961  23.054   2.670  0.1234 -0.1467  0.1053
20194W        W21058  22.691  21.836  18.052  0.1158  0.1137 -0.0487
20195W        W21059  28.906   1.243   6.057  0.1464  0.1375  0.0457
20196W        W21060  22.453   4.823  28.578 -0.1205 -0.2170 -0.1595
20197W        W21061  28.056  23.751  10.808 -0.1766  0.2698 -0.0276
20198W        W21062  18.549   4.886  27.942  0.1252  0.1538 -0.0180
20199W        W21063  26.403  22.108  26.831  0.3193  0.1170  0.0748
20200W        W21064  23.694  28.731   2.909 -0.1604 -0.0790  0.0381
20201W        W21065  17.363   0.921  12.528 -0.2956  0.1024  0.1211
20202W        W21066   3.226  25.796   0.001 -0.0918  0.3391 -0.1689
20203W        W21067  25.207  10.148  27.628 -0.0283 -0.1243  0.0956
20204W        W21068  18.723  17.776   0.951 -0.0896 -0.1368 -0.0418
20205W        W21069   7.331  10.617  11.774  0.2491  0.4731 -0.0817
20206W        W21070   4.907  27.861  11.309 -0.2628 -0.0513 -0.0703
20207W        W21071  25.096  17.832   3.431  0.1630 -0.0641 -0.0253
20208W        W21072   3.235   8.912  27.893  0.0215  0.1773  0.0206
20209W        W21073  17.919   6.622  22.539  0.0882 -0.3250 -0.1263
20210W        W21074  20.828  24.856  17.117 -0.1434  0.2630  0.2103
20211W        W21075  19.621  16.064  21.748  0.2109  0.3788  0.1393
20212W        W21076   4.858  28.384  24.608 -0.2157  0.1644  0.4020
20213W        W21077  16.128   6.749   1.077 -0.3956 -0.3300 -0.2854
20214W        W21078  28.382   9.361  11.292  0.3919  0.0400 -0.0506
20215W        W21079  18.487  11.957   2.991 -0.0211 -0.0870 -0.0031
20216W        W21080  15.530  20.970   8.314  0.0376 -0.3582  0.1875
20217W        W21081  19.937   3.776  14.309 -0.2172 -0.3480 -0.0658
20218W        W21082   2.473  21.116   7.137 -0.4409  0.0001 -0.4020
20219W        W21083  26.184   3.498  15.098 -0.0548  0.0390 -0.0397
20220W        W21084  27.292  11.724  11.798 -0.1589  0.1923  0.0491
20221W        W21085  14.100  22.723  24.928  0.0800 -0.0142 -0.1031
20222W        W21086  16.676  24.165  22.648  0.2368 -0.1230 -0.1040
20223W        W21087  24.968  18.694   8.988  0.0034 -0.2263 -0.1810
20224W        W21088  12.324  19.532   4.207 -0.3690 -0.0845  0.1678
20225W        W21089  13.242   1.835  15.683  0.0516  0.1660 -0.0431
20226W        W21090  25.866  16.700  10.863 -0.0438  0.2362  0.1638
20227W        W21091   3.674  10.975  25.333 -0.1782  0.0169  0.1366
20228W        W21092  27.964  16.321   9.050  0.0068  0.3109 -0.1080
20229W        W21093  27.386   2.965  18.682 -0.0717 -0.0761  0.0091
20230W        W21094  28.228  17.706  12.224  0.0359 -0.2768 -0.0402
20231W        W21095   3.656   9.221  23.509 -0.1675  0.0287  0.0356
20232W        W21096   6.374  18.580  12.256 -0.1039  0.1224  0.0975
20233W        W21097  15.436  16.660  11.306 -0.1602 -0.0026  0.0417
20234W        W21098  13.299  26.543  17.808 -0.1709  0.0019 -0.0078
20235W        W21099   6.375  12.681  13.106  0.1742 -0.0175  0.1615
20236W        W21100  15.620  12.255   1.705 -0.3005 -0.0137 -0.4573
20237W        W21101  23.927  18.057   0.407  0.1182 -0.1014 -0.1847
20238W        W21102  19.505   4.246  11.562  0.0819 -0.1343 -0.1002
20239W        W21103  23.353   4.096  19.825 -0.1962  0.1427  0.1007
20240W        W21104  26.114  20.970   6.257 -0.1311  0.2329  0.1771
20241W        W21105  22.996  20.893   8.755  0.1798 -0.1120  0.1092
20242W        W21106   4.000   8.899   8.084 -0.1567 -0.2056  0.2152
20243W        W21107   0.737  18.457   7.348  0.0862 -0.2074 -0.0162
20244W        W21108   3.799  14.008  15.401  0.3193 -0.2267 -0.2222
20245W        W21109  12.187   5.594  25.177  0.0222  0.0994  0.2513
20246W        W21110  28.637   6.246   0.942  0.1485  0.3319 -0.2429
20247W        W21111   8.583   9.434  15.518  0.0168  0.0319 -0.1797
20248W        W21112  22.988   6.645  24.849  0.0761 -0.0267 -0.1835
20249W        W21113  10.281  20.307   0.760  0.0610 -0.1411 -0.0889
20250W        W21114   6.160  18.582   5.526  0.0583  0.2239 -0.1588
20251W        W21115  20.503  14.300   3.250 -0.0580 -0.3745  0.1521
20252W        W21116   6.906  22.417  23.231  0.3225 -0.3465 -0.0463
20253W        W21117  24.020  21.660  11.023 -0.0358 -0.1250 -0.1528
20254W        W21118   1.354   9.024   5.735 -0.0921 -0.2429 -0.1921
20255W        W21119   7.690   9.855  19.542 -0.0992 -0.0789  0.0448
20256W        W21120  22.831  24.381   0.571  0.0667  0.1163  0.2634
20257W        W21121   1.751  22.401  21.407  0.1049  0.1068  0.0386
20258W        W21122  25.703  20.437   1.543 -0.0392  0.2991 -0.0302
20259W        W21123  14.987   2.579   4.859  0.1089 -0.0832 -0.0807
20260W        W21124  28.083  18.689  25.848 -0.0434 -0.1571  0.3651
20261W        W21125   1.620  10.740   1.095 -0.0220 -0.0963  0.0893
20262W        W21126  16.767  27.704  24.793 -0.2741  0.4256 -0.1473
20263W        W21127   1.375   0.217   5.543 -0.0296 -0.0774 -0.3452
20264W        W21128   0.777   8.747   8.852  0.0444 -0.1147 -0.0452
20265W        W21129   0.345  13.962   1.938 -0.0309 -0.2988 -0.3140
20266W        W21130  17.887  25.901  14.586 -0.2458  0.0018  0.2534
20267W        W21131   3.503  14.079  16.987  0.0977 -0.2536 -0.4152
20268W        W21132   9.256   6.429  18.386 -0.0316 -0.2792  0.0817
20269W        W21133   5.457  11.224   9.634 -0.2197 -0.0095 -0.1344
20270W        W21134  11.522  27.994  26.610  0.0624  0.1155 -0.0481
20271W        W21135  28.489  21.054   5.103  0.1628  0.0309  0.1257
20272W        W21136   4.302  17.961  21.129  0.1314  0.0392 -0.1823
20273W        W21137  11.321   5.341  26.094 -0.0988 -0.2938 -0.0140
20274W        W21138  23.082  19.135  27.417 -0.0963 -0.1432 -0.1729
20275W        W21139  16.695  18.713  20.769  0.2270  0.4052 -0.2366
20276W        W21140   3.964  23.487  11.567  0.1011 -0.0534  0.1171
20277W        W21141   8.276  24.289   6.864  0.2118 -0.0597 -0.1122
20278W        W21142  16.707  19.511  14.298  0.0002  0.0781 -0.2660
20279W        W21143  15.567  28.381   2.683 -0.0336 -0.1384 -0.0008
20280W        W21144   1.002  11.148   6.109 -0.0418 -0.0742  0.1622
20281W        W21145   3.557  22.293  21.449 -0.0462  0.2057 -0.1205
20282W        W21146  13.017   5.310  15.202  0.3677 -0.1085  0.3413
20283W        W21147  21.569  23.468   8.235  0.0581 -0.2450 -0.0243
20284W        W21148  25.961  27.570  13.572 -0.0216  0.0463  0.3204
20285W        W21149  17.221  13.113  21.600 -0.0437 -0.3886 -0.1895
20286W        W21150   2.456   1.220  20.091 -0.1446 -0.0814 -0.4204
20287W        W21151  12.737  19.403  10.758  0.1369 -0.1943 -0.2896
20288W        W21152  22.846   4.454  28.530  0.1220 -0.0860  0.2098
20289W        W21153  14.525  13.801   9.968  0.0267  0.2459  0.0677
20290W        W21154  18.087  11.680  22.717 -0.0136  0.1732  0.0709
20291W        W21155  17.256   1.895  24.666  0.0222  0.0346 -0.1194
20292W        W21156   0.851   0.808  10.608  0.0616  0.2299 -0.0036
20293W        W21157   4.742  17.478  24.883  0.4234  0.1459  0.2296
20294W        W21158   9.170  20.918   2.722  0.2014 -0.1183  0.1516
20295W        W21159  20.446  24.199  21.102 -0.2592  0.0659  0.2760
20296W        W21160   6.175   0.316  16.073  0.0635 -0.0001  0.0240
20297W        W21161  25.169  10.503  14.939 -0.1499  0.1995  0.2843
20298W        W21162  28.152  25.114  13.513  0.0287  0.0607  0.0998
20299W        W21163  16.154  24.879   8.873  0.1498  0.0317  0.1003
20300W        W21164  12.202  28.981  12.677 -0.1705  0.3185  0.1861
20301W        W21165   2.483  15.309  13.203 -0.0557 -0.2273  0.0413
20302W        W21166  26.617   3.660  25.334  0.2106 -0.1623  0.1034
20303W        W21167  29.040  14.369  28.564 -0.0534  0.2019 -0.1423
20304W        W21168  19.100  19.301  16.338 -0.0201 -0.1323  0.1916
20305W        W21169   9.073  24.587  24.444 -0.0131 -0.2524  0.2694
20306W        W21170   6.910  12.859  13.743  0.0489  0.1308 -0.1609
20307W        W21171   0.792   6.536   6.669  0.1178  0.0345 -0.0447
20308W        W21172  19.883  14.342  14.161  0.1431 -0.0643  0.1286
20309W        W21173   2.623  22.837   8.227  0.1394  0.0156  0.1892
20310W        W21174  27.294   0.443   5.741  0.3739 -0.0498 -0.3555
20311W        W21175  26.938  26.421  12.581  0.2969 -0.1586 -0.0197
20312W        W21176   1.978  22.283  25.353  0.2503 -0.2424 -0.1511
20313W        W21177  28.983  22.431  10.514  0.0814  0.0982  0.2880
20314W        W21178  28.139  24.659  21.637 -0.0445  0.1211 -0.0546
20315W        W21179  17.470   7.803  10.071  0.2657  0.2125  0.0687
20316W        W21180   5.889  25.739  17.751  0.1342  0.0948 -0.2014
20317W        W21181  18.836  11.903   9.049  0.4342 -0.2084 -0.0146
20318W        W21182  12.775  28.563  18.943 -0.0647 -0.0288 -0.0406
20319W        W21183  28.630  23.450   8.817 -0.0777 -0.0825 -0.1441
20320W        W21184  19.097   8.753  14.547  0.3280 -0.0151 -0.3546
20321W        W21185  26.506  23.298  12.506 -0.0172  0.2897 -0.0271
20322W        W21186  15.101   5.453  17.456  0.0415 -0.0800  0.0398
20323W        W21187   5.602  22.561  20.272  0.0523 -0.0033  0.1846
20324W        W21188  28.243  28.783  21.966 -0.0081 -0.2854  0.2129
20325W        W21189  28.825  26.657   3.140  0.1060  0.1034  0.0910
20326W        W21190   0.445  25.571   6.785  0.1144 -0.3855  0.1816
20327W        W21191   7.514  25.408  22.014  0.3302 -0.2167  0.0516
20328W        W21192  26.972   5.313   1.820  0.0349 -0.0555 -0.2449
20329W        W21193  26.887  14.855   8.797  0.1785 -0.2157 -0.1596
20330W        W21194  10.952  19.566  13.018 -0.2270 -0.0702  0.1280
20331W        W21195  23.360  20.604  25.379 -0.0970 -0.3010 -0.1653
20332W        W21196  21.570  20.568   9.378  0.0720 -0.5201  0.1665
20333W        W21197  25.010   0.824  26.480  0.1944 -0.0908  0.3012
20334W        W21198  12.437   1.061  26.247 -0.0585  0.1642 -0.1200
20335W        W21199   0.454  24.365  21.315  0.1977 -0.1620 -0.0384
20336W        W21200  13.045  21.416  27.615 -0.1991 -0.1591  0.1068
20337W        W21201   1.931  28.449   8.266  0.2156  0.2785  0.0729
20338W        W21202   3.944  21.519  16.138 -0.1296 -0.1892  0.1524
20339W        W21203  17.916  23.183  15.250  0.1858  0.1191 -0.0057
20340W        W21204  26.171  22.210  11.909  0.0076 -0.0860  0.0907
20341W        W21205   7.717  22.222  16.355 -0.1895 -0.0324  0.3112
20342W        W21206   3.688   8.030   4.238  0.0674  0.1635 -0.2855
20343W        W21207  12.800  23.059  27.310 -0.0379 -0.2426  0.2720
20344W        W21208   2.957  16.552  26.631  0.0902  0.1982 -0.1092
20345W        W21209  10.052  22.155  20.940  0.0313 -0.2335 -0.0570
20346W        W21210  15.969  25.072  22.852  0.0825  0.0920  0.1943
20347W        W21211   0.805  17.117   8.604  0.1986 -0.1069  0.1930
20348W        W21212  20.341  15.234  21.863 -0.3940 -0.1265  0.1478
20349W        W21213  17.021   4.345  25.742  0.1320  0.0133  0.1909
20350W        W21214   9.772   5.960  28.377 -0.0950 -0.0347 -0.2018
20351W        W21215   6.196  17.857   5.104 -0.2567  0.0594 -0.1417
20352W        W21216  12.399   2.983  24.931 -0.0782  0.2483 -0.1316
20353W        W21217  20.739   9.246  19.234  0.0939 -0.2511 -0.0565
20354W        W21218   2.857  26.427   7.528 -0.0633  0.0022  0.1846
20355W        W21219   2.149  13.585   9.787  0.0127  0.0870  0.1289
20356W        W21220   2.603   2.436  27.114 -0.1519 -0.1195  0.1312
20357W        W21221  13.949  24.553  28.451 -0.1440 -0.4148 -0.1220
20358W        W21222   5.609  27.222   9.335 -0.0253 -0.0142  0.0410
20359W        W21223  23.010  23.202  26.519  0.1024 -0.3437 -0.0570
20360W        W21224  11.138  24.330   6.898 -0.0774  0.0007 -0.0516
20361W        W21225   5.300  23.812  21.225 -0.2327  0.3236 -0.1733
20362W        W21226  15.068  17.345   1.848  0.1485  0.0472 -0.0087
20363W        W21227  27.284   4.944  22.618 -0.0141  0.3150 -0.1878
20364W        W21228  15.584  23.375   7.980 -0.1893 -0.2670  0.0916
20365W        W21229  13.875   7.928  14.351  0.0036 -0.3987  0.1789
20366W        W21230  15.069  22.667   6.071 -0.1605 -0.2799  0.0851
20367W        W21231  22.533  17.570  13.946  0.0602  0.1090  0.3711
20368W        W21232   7.788  15.147  11.213  0.1143  0.1177 -0.2821
20369W        W21233  25.574  23.969   3.005 -0.1500  0.3513  0.0598
20370W        W21234  23.074  19.249  16.245 -0.1688 -0.3178 -0.1933
20371W        W21235  13.293   1.570  20.586 -0.1845  0.1904  0.0428
20372W        W21236  10.605   1.938  17.847 -0.0944  0.0686 -0.0321
20373W        W21237   2.677  22.542  15.048 -0.3263  0.0188 -0.2685
20374W        W21238   0.273  15.583  21.531 -0.2122 -0.2581  0.1933
20375W        W21239   5.341  21.655   9.170  0.2133 -0.2062 -0.0454
20376W        W21240  25.057  10.314  21.277  0.1024 -0.0104  0.0313
20377W        W21241  28.436  22.609   4.435  0.3128 -0.0062 -0.4011
20378W        W21242   0.507  24.724   4.937 -0.2625  0.1963  0.0736
20379W        W21243  18.752  13.452  12.097  0.0725  0.3873  0.2241
20380W        W21244   5.732  16.174  13.728 -0.2770  0.0587 -0.0178
20381W        W21245  15.557  18.981  28.394 -0.1962 -0.1614  0.3405
20382W        W21246   7.387  23.235  10.408  0.2589 -0.0251  0.0891
20383W        W21247   1.858  27.867  18.117  0.0665 -0.0475 -0.0800
20384W        W21248  12.047  11.060   5.479  0.0637 -0.1103 -0.2654
20385W        W21249   6.659  17.621  21.298 -0.3719  0.1366  0.3972
20386W        W21250   0.568   1.397  18.358  0.2154  0.0007  0.3686
20387W        W21251  14.928   2.424  11.271 -0.3194 -0.1293 -0.4603
20388W        W21252  26.586   4.112  13.696  0.3488 -0.2031 -0.1709
20389W        W21253  19.096  22.294   2.554  0.1212  0.0444  0.0759
20390W        W21254   7.086   4.234  22.949 -0.4330 -0.2651  0.1128
20391W        W21255   3.762  23.125  24.174  0.1161 -0.2843 -0.0074
20392W        W21256   0.119  15.894  16.433 -0.1794  0.0185 -0.2413
20393W        W21257   1.712   8.352   4.773  0.1427 -0.0121  0.0807
20394W        W21258  25.485  15.613  28.571 -0.2435  0.1118  0.1942
20395W        W21259  23.066  25.622   7.024 -0.0522 -0.0235  0.1873
20396W        W21260  26.377   3.995   3.933 -0.2843 -0.3229 -0.1089
20397W        W21261   0.593  20.675  14.234  0.1795 -0.2345  0.0352
20398W        W21262  18.096   7.620   4.699 -0.0680 -0.0856 -0.1204
20399W        W21263   9.450  15.933  18.462  0.0909 -0.2205 -0.0220
20400W        W21264  21.123  22.927  15.015 -0.0881  0.0703 -0.3002
20401W        W21265   8.064  15.627  10.587  0.1325  0.0299  0.1029
20402W        W21266   2.624   0.012  19.542 -0.1357  0.1388  0.1765
20403W        W21267   0.484  13.750  28.604  0.1062 -0.0138  0.0719
20404W        W21268   3.575   3.678   9.609 -0.1839 -0.3345  0.0296
20405W        W21269   4.163  13.573  25.631 -0.1257  0.1883  0.1253
20406W        W21270  10.472   5.787  10.741 -0.2363  0.2201  0.0730
20407W        W21271  27.552  26.563  15.563  0.2484 -0.0501  0.1126
20408W        W21272  13.785  29.007  24.083  0.0090  0.1173  0.0100
20409W        W21273  25.403  20.134  14.161  0.0498 -0.0376 -0.0897
20410W        W21274   4.838  19.250  26.597  0.1547 -0.0453 -0.1374
20411W        W21275  14.147  11.888  16.564 -0.4993 -0.0375  0.0637
20412W        W21276  19.546  13.878  13.917 -0.3044 -0.1408  0.0375
20413W        W21277   3.279  19.255  23.731 -0.2993 -0.1287 -0.3503
20414W        W21278  15.284   9.851   3.265 -0.2442 -0.1209 -0.2058
20415W        W21279  12.084  18.054  24.926 -0.1161 -0.2634 -0.0127
20416W        W21280   7.801  23.472   2.943 -0.2346 -0.1563 -0.0964
20417W        W21281  15.498   4.272  26.991  0.1002  0.1354  0.0901
20418W        W21282   9.332  24.310  11.839  0.0787  0.0572 -0.0733
20419W        W21283   4.532   1.742   1.282  0.0872  0.2324  0.1980
20420W        W21284   6.917   3.952   8.248  0.1646 -0.2536  0.0150
20421W        W21285  18.465  25.234  13.426 -0.1101  0.2344 -0.3183
20422W        W21286  21.009   0.361   0.886  0.0343  0.0367 -0.1479
20423W        W21287   2.092  15.556  15.802 -0.1466  0.4705 -0.1006
20424W        W21288   5.595  13.013   9.642 -0.1453 -0.1154 -0.1035
20425W        W21289  16.861   7.417  15.744 -0.2111 -0.0012 -0.0056
20426W        W21290   3.030  26.109  14.428 -0.2102  0.0496 -0.2809
20427W        W21291  15.812  23.888  18.840  0.1843  0.0382  0.2171
20428W        W21292   9.554   0.075   8.939  0.4736 -0.0253  0.0187
20429W        W21293  25.205  13.706  21.297  0.0334  0.1282  0.3816
20430W        W21294  22.089   9.295  23.967 -0.1786 -0.0258  0.0733
20431W        W21295  10.467  27.588  15.181 -0.1306 -0.2174  0.0276
20432W        W21296  14.620  22.028   3.112 -0.4903 -0.2475 -0.1121
20433W        W21297  28.143   0.483  11.073  0.0663 -0.3776 -0.3388
20434W        W21298  14.490  19.859  13.066 -0.2002 -0.1480  0.3126
20435W        W21299  25.586  26.969   9.586 -0.0525  0.0691  0.0413
20436W        W21300   0.927   9.364  11.286  0.4326  0.1757 -0.2754
20437W        W21301   0.047  13.394  15.419 -0.1989 -0.0975  0.0304
20438W        W21302  10.509   8.668  15.782  0.0494  0.0965  0.0060
20439W        W21303  13.025   8.792  20.995 -0.0466  0.2593 -0.1558
20440W        W21304   7.166  25.768   5.873  0.0233 -0.2761  0.1238
20441W        W21305   5.304  25.088   9.567 -0.2182  0.2687 -0.2394
20442W        W21306  28.571  21.929  11.134  0.0727  0.0414  0.1913
20443W        W21307   0.661   2.769   1.798 -0.0719 -0.2160 -0.0702
20444W        W21308   5.761  18.831  28.334 -0.2029 -0.1661 -0.0455
20445W        W21309  14.535  11.185  17.069 -0.2224 -0.1104  0.0063
20446W        W21310  18.632   5.026  13.926 -0.1154 -0.0190  0.1258
20447W        W21311   9.739  17.515   5.032  0.1975 -0.0629 -0.0225
20448W        W21312  25.192  14.085  13.399  0.2048 -0.1406 -0.0938
20449W        W21313   6.658  20.234  13.977 -0.4689  0.2036 -0.0200
20450W        W21314  22.716  14.527   6.209  0.0094  0.2437 -0.3671
20451W        W21315  27.393  21.450  12.848 -0.2451  0.1626 -0.1316
20452W        W21316   8.652   9.788   6.262 -0.2086  0.4013  0.0902
20453W        W21317  19.732  23.130  28.857  0.1356 -0.0159  0.1322
20454W        W21318   7.199  14.759  20.909  0.0380  0.2143 -0.2219
20455W        W21319   7.660   0.890  11.217 -0.1464 -0.2560 -0.3912
20456W        W21320  25.409  25.368  24.827  0.1764 -0.2499 -0.0800
20457W        W21321   2.967   2.277  26.771  0.2792 -0.1443 -0.2401
20458W        W21322   2.111  24.638  12.080  0.0868 -0.2432  0.4886
20459W        W21323  24.459   6.743  15.920  0.0083 -0.5645 -0.2165
20460W        W21324  10.458   3.029  22.226 -0.1484  0.1359 -0.1681
20461W        W21325  15.901  21.627  20.019 -0.3191  0.1611  0.0478
20462W        W21326  16.353  27.095  15.060  0.1017 -0.1392 -0.2144
20463W        W21327   8.655   7.028  10.852 -0.1562  0.1371 -0.1729
20464W        W21328  29.064  18.970   5.866  0.0260  0.0965  0.1125
20465W        W21329   4.441  22.994  12.714  0.2754  0.1961  0.0583
20466W        W21330  10.803  24.018   8.987 -0.1348 -0.2215 -0.0091
20467W        W21331  19.841  16.519  23.400  0.1767 -0.1180 -0.1882
20468W        W21332  28.517   7.394  25.491 -0.0082  0.1254 -0.1002
20469W        W21333  23.220  13.249  16.224  0.3702  0.1398 -0.1813
20470W        W21334  14.469   7.386   4.237 -0.3208  0.1250 -0.0726
20471W        W21335  26.036  12.524  26.923 -0.2277  0.2187 -0.3078
20472W        W21336  26.816  24.153  27.351  0.0386 -0.3202 -0.1693
20473W        W21337  22.132  21.782  16.802  0.1449  0.2885 -0.3569
20474W        W21338  24.326   2.697  11.634  0.1539  0.0403  0.1734
20475W        W21339  22.165   2.754  24.639  0.0012  0.1497 -0.0950
20476W        W21340  15.645  28.198  11.271  0.1828  0.2051  0.1790
20477W        W21341  27.608  23.197   7.555  0.2763 -0.0070 -0.2148
20478W        W21342   2.953   7.498   6.182 -0.2534 -0.1380  0.2310
20479W        W21343  10.651  19.383   4.922 -0.2240 -0.2099  0.0694
20480W        W21344   7.245  15.626  18.497  0.2704  0.0686  0.0343
20481W        W21345  10.748  28.973  10.642 -0.0022 -0.1733 -0.0593
20482W        W21346  14.570  26.178  19.346 -0.0251 -0.1692  0.0251
20483W        W21347   6.609  20.324  25.900 -0.2973 -0.0047 -0.0287
20484W        W21348  25.227  28.460  19.826  0.1131  0.2915 -0.1044
20485W        W21349  21.656   4.110   8.043 -0.0317 -0.0516  0.0519
20486W        W21350  20.100  28.104  24.401 -0.2635  0.2630  0.0449
20487W        W21351   0.745   3.294  13.713 -0.1545  0.0437  0.1321
20488W        W21352  14.389  16.484   8.457 -0.0460  0.2314 -0.0175
20489W        W21353   3.610  18.873  15.585  0.0547 -0.0700 -0.1887
20490W        W21354   4.406  17.563  18.106 -0.2090 -0.1026  0.0374
20491W        W21355  18.708  19.650   1.260 -0.4173 -0.2495 -0.2120
20492W        W21356  11.940  22.257  15.679 -0.2392 -0.3206 -0.1478
20493W        W21357   9.755  10.365   4.216 -0.1884  0.0065  0.4318
20494W        W21358  27.497  13.754   4.483 -0.1154 -0.0167 -0.2113
20495W        W21359   1.487   2.177   9.006 -0.0345  0.1977 -0.0917
20496W        W21360  24.040  17.047   6.438 -0.0211  0.0694  0.0701
20497W        W21361  11.200  21.248  20.545  0.1364  0.0403  0.0168
20498W        W21362   9.473  15.088   4.596 -0.2493 -0.0500  0.0282
20499W        W21363   2.840   0.554  21.537  0.2256  0.3381  0.0838
20500W        W21364  17.267  19.528  16.947 -0.0241  0.3745 -0.2145
20501W        W21365  12.961   5.023   7.038 -0.0287 -0.2848  0.1851
20502W        W21366  20.757  23.386  27.194  0.2499 -0.0314 -0.1971
20503W        W21367   9.405   4.946  11.060 -0.1238  0.2413 -0.1671
20504W        W21368   3.892   0.897  15.123  0.0846 -0.0151 -0.0637
20505W        W21369  15.497  14.263  19.778  0.3878  0.2657  0.2731
20506W        W21370  16.076  20.428   2.609 -0.1697  0.0445  0.2420
20507W        W21371   9.926   2.827  19.151 -0.0591  0.3904  0.0774
20508W        W21372   3.433  16.708  19.396  0.3401 -0.1347  0.0782
20509W        W21373  24.540  20.765   0.892 -0.0486 -0.2500  0.3465
20510W        W21374   6.068  21.210   8.189 -0.1716  0.0554  0.1148
20511W        W21375   9.696  19.383  15.275  0.0929  0.0002 -0.0119
20512W        W21376   8.455  18.859  28.056 -0.1472 -0.1374 -0.0664
20513W        W21377  26.826  23.564  14.769 -0.0374 -0.0940 -0.3141
20514W        W21378  15.713  28.803  10.260  0.1781  0.2729 -0.0200
20515W        W21379   0.795   3.159  10.055 -0.1051 -0.0539  0.0634
20516W        W21380  20.449  28.247  28.341  0.2368 -0.0309  0.2399
20517W        W21381   9.519   9.955  26.411  0.1715  0.1225 -0.3665
20518W        W21382  16.275  16.978  13.816  0.1144  0.0755  0.1673
20519W        W21383  27.078   9.801  19.724 -0.1895  0.0153 -0.0729
20520W        W21384  24.343  15.968   0.218 -0.1542  0.1067  0.1260
20521W        W21385   9.497   2.396   2.235  0.0874  0.0008  0.2624
20522W        W21386  26.298   2.988  14.972  0.1944  0.0106 -0.0322
20523W        W21387  15.448  10.232   7.962 -0.1127  0.0444 -0.0181
20524W        W21388  25.420   5.181  11.259 -0.2226  0.1366 -0.0625
20525W        W21389   7.998  21.723  28.198  0.0571  0.1035  0.0479
20526W        W21390  22.562  20.481   4.463 -0.1776 -0.1007 -0.1203
20527W        W21391   5.992   2.990   4.333  0.2426  0.0427 -0.0087
20528W        W21392  23.825  28.456  15.854 -0.0999 -0.0065 -0.0740
20529W        W21393   2.996   3.295   5.643 -0.3954  0.3653 -0.2342
20530W        W21394  15.068   4.414  27.306  0.5234 -0.3474 -0.2453
20531W        W21395  28.545  16.521  22.059 -0.1784  0.2667 -0.1777
20532W        W21396  27.291  18.143   1.258  0.0985 -0.1359  0.0768
20533W        W21397  14.965  10.824  16.874 -0.0545 -0.0635  0.0168
20534W        W21398   4.162  23.985  10.278 -0.0637  0.1600 -0.1533
20535W        W21399   6.801  15.160  10.627 -0.3423 -0.3074  0.1986
20536W        W21400  22.284   8.649  14.284  0.1841  0.1579  0.0118
20537W        W21401   3.366  17.656  16.382 -0.4469  0.2062  0.0595
20538W        W21402   6.682  25.339  15.612  0.1653  0.3345  0.1068
20539W        W21403  26.588   1.683   6.383  0.5291 -0.0722  0.1662
20540W        W21404   6.816  24.092  15.103  0.2935 -0.1086 -0.1696
20541W        W21405  17.315  22.025  25.934  0.1571 -0.1386  0.0415
20542W        W21406  22.500  15.440   5.693  0.1021 -0.0344 -0.0380
20543W        W21407  27.548  10.708  18.401 -0.1941  0.0261 -0.0440
20544W        W21408  26.291  12.437   1.550 -0.1835 -0.0840  0.1183
20545W        W21409  27.631  25.855   4.833  0.0517 -0.1854  0.0422
20546W        W21410   2.541  20.420  12.350  0.0304  0.0082  0.0457
20547W        W21411  21.018  20.692   2.384  0.1787 -0.3136  0.1329
20548W        W21412  24.015  18.453  16.040  0.0954  0.0017  0.2244
20549W        W21413   8.560  21.952   8.076  0.0706 -0.2620  0.0549
20550W        W21414   1.493  16.524   2.170  0.0612 -0.1730 -0.0590
20551W        W21415  25.153  13.909   0.467  0.1518  0.0821 -0.0774
20552W        W21416  16.268  10.308   7.673 -0.2835 -0.0202  0.0752
20553W        W21417   2.298  24.898   9.540 -0.1932 -0.2099  0.3462
20554W        W21418   5.979  16.579  21.161  0.0499 -0.2198  0.1523
20555W        W21419  27.831  24.807   2.275 -0.2531 -0.1717 -0.0069
20556W        W21420  15.536  20.126   0.814 -0.1598  0.0649  0.0124
20557W        W21421  15.480  23.621  10.918 -0.0238  0.1758  0.1748
20558W        W21422  22.357  15.368  26.852 -0.1124 -0.2708 -0.0350
20559W        W21423  26.400   1.474   2.317  0.2149  0.4236 -0.1222
20560W        W21424  14.962  12.008  18.829 -0.0072  0.1484 -0.3967
20561W        W21425  20.687  22.805  17.112 -0.0499 -0.0644  0.0520
20562W        W21426  27.827  15.954   5.225 -0.0322 -0.1346  0.0050
20563W        W21427  15.458   3.423  27.344  0.2151  0.0240  0.1425
20564W        W21428  10.954  13.961  25.586  0.1150  0.0865  0.0835
20565W        W21429  15.468   6.355  10.530  0.0666 -0.1561  0.2597
20566W        W21430   9.398  24.266  17.074 -0.1596  0.2179  0.0536
20567W        W21431  20.848  25.497   1.030 -0.0503 -0.0822 -0.0686
20568W        W21432  17.838  22.887  21.714  0.0099  0.2017 -0.0456
20569W        W21433   1.583  20.892   2.540 -0.0385  0.0478 -0.2421
20570W        W21434  17.882   0.983  24.585  0.3779 -0.0255 -0.1548
20571W        W21435   4.037   6.967   8.823 -0.0494  0.2091 -0.1156
20572W        W21436  25.625   2.654   9.265 -0.3789 -0.0329  0.1611
20573W        W21437   4.993  16.430  16.333 -0.0029  0.0162  0.1921
20574W        W21438  11.769  10.904  11.728  0.1350 -0.1290 -0.1376
20575W        W21439  19.412  21.388  27.154  0.1122  0.0447 -0.0451
20576W        W21440   8.534  24.296   6.337 -0.1281 -0.0360  0.0948
20577W        W21441  24.780   6.917  12.190 -0.2353  0.3470 -0.2666
20578W        W21442  26.523  19.857  22.505 -0.1503  0.0428  0.3610
20579W        W21443  10.527   2.394   8.770  0.3067 -0.1970 -0.2152
20580W        W21444   0.301  28.580  14.711 -0.3328  0.2790 -0.2560
20581W        W21445   3.740  17.582  17.962  0.2241  0.0647  0.3778
20582W        W21446   9.373   8.796  27.626 -0.1308 -0.1270 -0.2665
20583W        W21447  28.080  25.441  18.455  0.0370  0.1863 -0.0291
20584W        W21448  25.518  28.425   1.938  0.2287 -0.0751 -0.0134
20585W        W21449   1.151  24.290   4.471 -0.1894 -0.2641  0.1353
20586W        W21450  21.294  25.380  23.695  0.3970  0.0900 -0.0078
20587W        W21451  12.775  15.323  26.348  0.1395 -0.3150 -0.2657
20588W        W21452  23.939  26.190  24.864 -0.1063 -0.0424 -0.1580
20589W        W21453  16.883  19.685  17.746  0.4159  0.3069  0.2072
20590W        W21454   3.383  25.855  18.898 -0.1668 -0.0318  0.0318
20591W        W21455  26.948  17.941  12.189 -0.1239  0.4542 -0.0185
20592W        W21456   4.532  11.057  12.550  0.2784 -0.1771  0.1816
20593W        W21457  24.856   6.026  15.360  0.0992  0.1671 -0.2779
20594W        W21458  22.713  28.582  22.145 -0.1993 -0.0276  0.0760
20595W        W21459   7.861  19.436  13.134  0.3646  0.1221 -0.2430
20596W        W21460  28.485  27.211  10.003 -0.2040  0.3241 -0.0702
20597W        W21461   4.957  23.434  25.082 -0.1407  0.0522  0.2010
20598W        W21462  13.252  22.568   7.904 -0.0799 -0.1459  0.1170
20599W        W21463  22.359  18.334  21.381 -0.3012 -0.1680  0.0289
20600W        W21464  26.051  20.528  15.183 -0.0636  0.0045 -0.3778
20601W        W21465   9.431  25.365  10.360  0.0312  0.2923  0.2540
20602W        W21466   3.715  27.600   0.981  0.1741  0.2536 -0.0763
20603W        W21467  21.120  11.371  12.252  0.0729 -0.1329  0.0871
20604W        W21468  26.472   1.655  14.564 -0.1058  0.5009 -0.6554
20605W        W21469  14.180  26.650   9.977 -0.0971 -0.1499 -0.0256
20606W        W21470  10.882   7.094  27.317  0.1783 -0.1354  0.0975
20607W        W21471  18.864   5.855  18.205 -0.3654  0.0672 -0.1774
20608W        W21472   0.220  19.038  21.369 -0.0841  0.2829 -0.0868
20609W        W21473   6.099  15.497  18.829  0.0697 -0.1870 -0.1445
20610W        W21474  20.192  21.514  23.652 -0.0757 -0.0399  0.3716
20611W        W21475  11.828   4.839   0.558 -0.0561 -0.0545 -0.2067
20612W        W21476  22.747  16.558   9.274 -0.0323 -0.3168 -0.1570
20613W        W21477   0.528   0.728   2.097  0.0120 -0.1541  0.1886
20614W        W21478  18.712  24.679   4.761 -0.0137  0.0224 -0.0668
20615W        W21479   4.353  23.128   4.070  0.2073  0.1915 -0.1060
20616W        W21480  28.533  26.056   7.132 -0.0291 -0.0094  0.2821
20617W        W21481  16.275  17.124   9.471  0.1802  0.0165 -0.1083
20618W        W21482  19.041  24.093  18.350  0.0875 -0.0431  0.1850
20619W        W21483   2.843   1.014  10.841 -0.0726  0.0480  0.0334
20620W        W21484  27.225  26.413  11.751  0.1010  0.2760  0.1884
20621W        W21485   1.040  27.419  17.626  0.0434  0.1110  0.0911
20622W        W21486   5.661  28.456  14.198 -0.1564  0.0402 -0.0852
20623W        W21487   3.901  24.077   5.678 -0.1225  0.2179 -0.2686
20624W        W21488   4.962  13.889  13.032  0.1568 -0.1147 -0.1611
20625W        W21489   8.873   2.531   6.698  0.0504 -0.3341 -0.3185
20626W        W21490  25.314   2.664   4.533 -0.1548 -0.2357 -0.2207
20627W        W21491   8.448  20.930  24.039  0.0379 -0.1850  0.2629
20628W        W21492   7.511  23.285  13.433  0.0362  0.3395 -0.1766
20629W        W21493  23.731   7.252  12.590 -0.0025 -0.0555 -0.0127
20630W        W21494  13.692  24.948  27.137  0.0658  0.0764  0.0947
20631W        W21495   9.731  20.071  23.565  0.0733  0.3285  0.3419
20632W        W21496  12.532  28.376   9.571 -0.1666  0.2866  0.0838
20633W        W21497   9.976  19.590   5.808  0.2609 -0.1340  0.1147
20634W        W21498  19.700  10.193  23.316 -0.2600  0.0986  0.4584
20635W        W21499  20.849   1.432  21.812 -0.4317  0.1084 -0.0399
20636W        W21500   3.479  27.615  16.412  0.0040 -0.1713 -0.1769
20637W        W21501  27.523  21.317  23.658  0.0445 -0.1289 -0.1627
20638W        W21502  11.647   3.542  11.700 -0.0148 -0.2937 -0.2069
20639W        W21503  21.060  29.127  22.587  0.1536 -0.1617  0.1746
20640W        W21504   4.469  27.223   0.012  0.2931 -0.1769  0.1815
20641W        W21505  16.331  24.010   2.085 -0.0251  0.2228  0.0322
20642W        W21506  14.977  11.454  15.074 -0.2500 -0.0860  0.1968
20643W        W21507  13.949  25.304  18.510 -0.0419 -0.0404 -0.0757
20644W        W21508   8.784  28.620   9.018  0.0672  0.3709 -0.1071
20645W        W21509  21.552  13.617   6.589 -0.1377  0.0619  0.2647
20646W        W21510   3.461  14.337   0.958 -0.0643 -0.0964 -0.2208
20647W        W21511  22.945  13.861  17.591  0.2511 -0.1277  0.1574
20648W        W21512  10.280  12.550   3.429  0.1218  0.0044 -0.0352
20649W        W21513   2.274  13.891   6.397  0.2767  0.0807  0.1737
20650W        W21514  10.513   5.034  19.643 -0.1896  0.0144  0.1723
20651W        W21515  13.014  25.232  17.444 -0.0133 -0.2665 -0.0107
20652W        W21516   3.376  16.884  23.318 -0.3227  0.0206  0.0459
20653W        W21517  26.734   9.914  16.192  0.1355 -0.1543 -0.2740
20654W        W21518  24.294   8.889  20.535  0.0251 -0.0361  0.2038
20655W        W21519  14.879   2.449  18.149 -0.0625 -0.0308 -0.0146
20656W        W21520   0.929  24.036  23.167  0.2899  0.2674  0.2045
20657W        W21521  22.684  24.194  13.593 -0.0630  0.0919 -0.0080
20658W        W21522   8.769   5.396  16.411 -0.2291  0.0271  0.0145
20659W        W21523  17.549   4.186  12.201  0.1235  0.1490 -0.0135
20660W        W21524  22.374  19.953  19.305  0.1211  0.1708  0.1712
20661W        W21525   0.398  25.912  28.697  0.4032  0.0171 -0.1050
20662W        W21526  26.094   7.342  21.274  0.0558  0.0194  0.2132
20663W        W21527  16.809   5.732   4.222  0.1786 -0.1735  0.0096
20664W        W21528  17.740   7.772   3.655 -0.0635 -0.0602  0.0793
20665W        W21529  21.087   1.493   4.944 -0.0068  0.1005 -0.1492
20666W        W21530  28.925   1.515   5.586  0.2307  0.4002 -0.0524
20667W        W21531   4.013  14.513   3.956  0.1798 -0.1082 -0.1116
20668W        W21532  28.949   5.988   5.608 -0.1583  0.0923 -0.1432
20669W        W21533  12.983  16.028  17.631 -0.0666 -0.0418 -0.0873
20670W        W21534   3.418  13.248  22.334 -0.0644  0.2082  0.0445
20671W        W21535   5.529  25.301  11.819 -0.2658 -0.1606 -0.0840
20672W        W21536  25.432   7.773  14.237  0.0539 -0.0730  0.1491
20673W        W21537  14.938  26.423  11.189 -0.1040  0.1218 -0.0379
20674W        W21538  21.007  11.109  22.467 -0.1195  0.0381 -0.1495
20675W        W21539   2.291  12.245   2.980  0.0040 -0.0040 -0.0488
20676W        W21540  12.040   6.249  14.077  0.2976 -0.2312 -0.2326
20677W        W21541  19.516  11.848   7.660  0.4163 -0.0870  0.2586
20678W        W21542  22.361   5.444  12.495  0.0916 -0.1193 -0.1744
20679W        W21543   0.781  25.738  12.941 -0.1745 -0.0130  0.0664
20680W        W21544  21.714  28.758   6.530 -0.1529 -0.0917  0.0105
20681W        W21545  13.481  23.606  13.613 -0.0178 -0.1595  0.0661
20682W        W21546  11.805   1.947  12.930  0.3476 -0.2180  0.2238
20683W        W21547  27.727  15.880  20.759  0.0729  0.1926  0.0345
20684W        W21548   7.204  10.624  18.107  0.1239  0.4625  0.0192
20685W        W21549   5.348  23.960  28.191 -0.1808 -0.2299 -0.1596
20686W        W21550  10.289  24.632  28.507 -0.0197  0.1394 -0.2384
20687W        W21551  24.930   7.046  23.320  0.1540  0.0468  0.5066
20688W        W21552  19.987  19.520  25.366  0.0532 -0.2118  0.1128
20689W        W21553  20.501  12.238   6.948 -0.0083  0.2358 -0.0727
20690W        W21554   2.048  11.293   3.292  0.1242  0.0700 -0.1723
20691W        W21555  19.608  12.600   9.034  0.1718  0.3193  0.1378
20692W        W21556   6.652  10.989   6.986 -0.2198  0.3086 -0.2393
20693W        W21557  16.195  17.273  15.789 -0.0983  0.1167 -0.1860
20694W        W21558  25.731  21.814   1.782  0.0833  0.0761 -0.2003
20695W        W21559  20.393   2.075  16.930 -0.0460  0.1052 -0.0126
20696W        W21560  18.130   0.611  10.999 -0.0560 -0.2797 -0.0838
20697W        W21561  19.728   8.130  14.164  0.0241  0.2993 -0.0263
20698W        W21562   1.854  12.812  13.670 -0.2053 -0.2317  0.1850
20699W        W21563  21.119  20.563  19.935 -0.2100 -0.0127  0.3119
20700W        W21564  14.203  21.215   9.067 -0.1755 -0.0426 -0.2266
20701W        W21565  15.831  20.246  14.807  0.0113 -0.2323 -0.2806
20702W        W21566  25.111   2.708  14.445 -0.0075  0.2150 -0.1013
20703W        W21567   7.377   7.169   4.095 -0.0758 -0.1751 -0.0886
20704W        W21568  10.973   6.476   7.664  0.1473  0.2308  0.2006
20705W        W21569  24.882  16.293  26.146  0.0594 -0.0061 -0.0840
20706W        W21570  18.338  13.719  26.187 -0.1360 -0.1501  0.0965
20707W        W21571  12.401   1.365   7.252 -0.0831  0.2336 -0.0604
20708W        W21572   2.304  25.264   7.828 -0.0746  0.1932  0.0487
20709W        W21573  10.938  15.435   1.204 -0.0375  0.2449 -0.1560
20710W        W21574  18.712  22.636   7.147  0.1174 -0.3451 -0.1146
20711W        W21575   7.205  18.540   4.994 -0.0682 -0.1409 -0.0978
20712W        W21576  19.950  25.393  12.472 -0.1825  0.2972  0.0906
20713W        W21577   6.943  12.307   6.290 -0.0098 -0.0556  0.0275
20714W        W21578  17.185   0.922   2.651  0.2291  0.1380 -0.1978
20715W        W21579   3.742  24.940   3.227  0.1257  0.1432 -0.0898
20716W        W21580   5.849   6.343   9.490  0.1787  0.0342  0.3015
20717W        W21581  15.003   0.811   4.749  0.0648  0.0704 -0.0768
20718W        W21582   3.181  15.697   5.333 -0.1738 -0.2369 -0.2955
20719W        W21583  20.569  16.970  24.503  0.0491  0.1379 -0.1805
20720W        W21584  12.929  19.694   6.991  0.0870 -0.0929  0.1466
20721W        W21585   0.891  22.535  13.861  0.1657 -0.0262 -0.3037
20722W        W21586  28.898  22.716   6.165  0.2329 -0.1666 -0.1838
20723W        W21587   6.214  19.205   6.692  0.2346  0.0738  0.0621
20724W        W21588  12.048  26.907  10.685  0.0663 -0.0380 -0.2284
20725W        W21589   3.637  27.368  12.047  0.1855 -0.1596 -0.0405
20726W        W21590   4.018   6.853  19.577 -0.2862  0.0164 -0.2026
20727W        W21591  24.317   4.169  11.511 -0.2316  0.3017  0.3654
20728W        W21592   4.068   9.507  18.872  0.0701 -0.0913 -0.3750
20729W        W21593  20.437  21.158  15.745 -0.2561 -0.0752 -0.1466
20730W        W21594   8.275  15.135   3.747 -0.0674  0.1970  0.0356
20731W        W21595   3.540  26.808  16.250  0.1759 -0.0860 -0.0114
20732W        W21596  13.504   2.498  14.606 -0.2298  0.0219 -0.1425
20733W        W21597  14.546  22.591  24.107 -0.1946 -0.0434 -0.2707
20734W        W21598  15.619   4.602   1.546 -0.2416  0.2327  0.0264
20735W        W21599  23.265  26.457   8.201 -0.2415  0.0018  0.1964
20736W        W21600   6.329  20.693  16.095  0.0105 -0.0946 -0.1805
20737W        W21601   9.603  13.848  19.838 -0.4288  0.0647 -0.2190
20738W        W21602   0.353  15.876   4.521 -0.1102  0.2075  0.2879
20739W        W21603   7.555  18.489   3.090  0.0152 -0.0107 -0.0721
20740W        W21604  17.183  20.729  11.983  0.0639  0.0451  0.3136
20741W        W21605  17.106  14.776  19.379  0.2564  0.0019  0.1077
20742W        W21606   6.625  14.496  28.157  0.0908  0.1085 -0.4612
20743W        W21607   2.960  23.821  14.203  0.2597 -0.0677 -0.0002
20744W        W21608  24.561   5.182   3.484 -0.0328  0.1321  0.0740
20745W        W21609   0.148   4.819  14.707 -0.0683 -0.1749  0.2325
20746W        W21610  26.986  24.022  18.935  0.1672  0.1517  0.0084
20747W        W21611  25.216  21.284   3.962  0.0542  0.3321 -0.3486
20748W        W21612  17.448  10.544  18.084  0.0166 -0.0620 -0.0913
20749W        W21613   2.815  19.706  10.048 -0.1321  0.1980  0.0797
20750W        W21614  20.060  18.350   8.127  0.0241  0.2862  0.0169
20751W        W21615   8.428  23.059  21.980 -0.0044  0.2714  0.1016
20752W        W21616   7.001  22.945  26.703  0.2266  0.0750 -0.0128
20753W        W21617  22.807  21.187   1.921 -0.2070 -0.4250  0.1761
20754W        W21618  27.263  13.958  21.082 -0.3985  0.1618  0.0037
20755W        W21619  25.001   7.242  23.880  0.2042  0.1860 -0.0028
20756W        W21620   7.258  27.138  18.968 -0.0647 -0.0219  0.1000
20757W        W21621  28.932  10.103  11.856 -0.0153  0.0294  0.0857
20758W        W21622  13.027  19.418  27.703 -0.0308  0.0481  0.0571
20759W        W21623   8.792   0.139  17.162 -0.3386  0.2182  0.1683
20760W        W21624  27.985   0.061  13.989 -0.1537  0.0089 -0.2043
20761W        W21625  18.791  23.224  16.812 -0.1902 -0.3620 -0.0865
20762W        W21626  16.676   4.416  11.602 -0.2435 -0.1277  0.0737
20763W        W21627   4.940  16.567  21.323 -0.1839  0.2470 -0.1907
20764W        W21628  24.381   3.969  15.040  0.3090  0.2746 -0.1924
20765W        W21629  27.394  27.772   8.247  0.3379  0.0821 -0.0682
20766W        W21630   1.438  24.850  14.349 -0.0284  0.2593 -0.1887
20767W        W21631   1.256  14.760  16.081  0.1871  0.2036 -0.2363
20768W        W21632  13.289  19.815   2.260  0.1136  0.0482 -0.1365
20769W        W21633  17.031  24.038  22.286  0.1276  0.0629 -0.0108
20770W        W21634  23.055   8.773   6.125  0.2807  0.2300  0.1462
20771W        W21635   2.394  22.889  18.997 -0.0209 -0.2469 -0.1335
20772W        W21636  13.105  11.610  27.310 -0.1288 -0.5062  0.6475
20773W        W21637  21.555   5.568  19.518  0.0328  0.1131 -0.3742
20774W        W21638   2.236   0.179   8.424 -0.0024 -0.2314  0.0889
20775W        W21639  23.308  14.137   4.011  0.1381  0.2101 -0.5469
20776W        W21640  20.093  24.775  13.941 -0.1462  0.1749  0.1732
20777W        W21641  28.583   2.866  22.910 -0.0291  0.0479  0.0009
20778W        W21642  25.392  24.559  20.358 -0.1948 -0.0698 -0.0047
20779W        W21643   6.065  16.327  25.771 -0.1907  0.1753 -0.1659
20780W        W21644   4.901  27.352   7.785  0.0078 -0.1271  0.0347
20781W        W21645   2.400  27.665  11.812  0.0309 -0.0990 -0.2296
20782W        W21646  21.767  18.638  15.316 -0.0287  0.1996  0.1878
20783W        W21647   1.389  27.925   8.190  0.2496  0.2443 -0.2864
20784W        W21648  13.256  14.785  28.218  0.0941 -0.0195 -0.1538
20785W        W21649  17.601  14.041  26.582 -0.3640 -0.0271  0.1162
20786W        W21650   7.705  23.318  19.469 -0.0560 -0.0823  0.1198
20787W        W21651   2.360   9.826   8.125  0.3202  0.0464 -0.1040
20788W        W21652  27.824  25.882   3.959  0.3088 -0.1208  0.0551
20789W        W21653  24.971  27.838  21.276 -0.0003  0.0671  0.1623
20790W        W21654  26.343  21.355   2.182  0.1193 -0.1922  0.2816
20791W        W21655   5.421  20.207  25.660  0.0652  0.0169 -0.2422
20792W        W21656  28.830  23.948   7.191  0.0217  0.1168  0.0783
20793W        W21657   3.991  15.310  19.454  0.3961 -0.1927  0.1339
20794W        W21658  18.433  14.302  13.057  0.0790 -0.1139  0.1539
20795W        W21659   3.811  13.842  19.685 -0.0493  0.4435 -0.0731
20796W        W21660   1.582   4.296  25.700 -0.0475 -0.1301 -0.0927
20797W        W21661  25.095  10.282  14.149  0.0303  0.0272  0.0994
20798W        W21662   3.284   4.307  15.583  0.2472  0.2490  0.1799
20799W        W21663   4.723  20.752  10.702  0.2596  0.1271 -0.0733
20800W        W21664  25.757  27.489  19.549 -0.0614 -0.1828 -0.2655
20801W        W21665  25.642  15.595  23.145 -0.1577  0.0197  0.1181
20802W        W21666   5.189   5.050   4.625 -0.0263  0.0598  0.0498
20803W        W21667  20.866  16.072  13.369  0.0478 -0.1819  0.0798
20804W        W21668  13.756  10.496   1.592  0.1130 -0.0861 -0.0322
20805W        W21669  22.359  26.410   1.530 -0.3814  0.0590 -0.0601
20806W        W21670   7.182   0.316  17.817 -0.2248  0.1049  0.1099
20807W        W21671   2.261  16.930  17.586 -0.0924  0.0105 -0.2049
20808W        W21672  19.460  25.267  28.914  0.0857 -0.1209  0.2100
20809W        W21673  13.157  23.965  25.019  0.2714  0.1202 -0.0323
20810W        W21674  12.068   6.972   4.955 -0.1300  0.2193  0.0663
20811W        W21675  12.122  20.697   9.656 -0.0228  0.2259 -0.1578
20812W        W21676  17.451   2.278  12.334  0.0328  0.1459 -0.0039
20813W        W21677   1.569  12.999  22.087 -0.1496 -0.2042  0.0120
20814W        W21678   4.040  22.080  22.596  0.2864 -0.1773  0.0126
20815W        W21679  22.096   0.847  20.035 -0.0582 -0.0623 -0.1550
20816W        W21680  17.899  16.130  11.644 -0.0807 -0.0427  0.0984
20817W        W21681  16.285  21.512  27.889 -0.1271 -0.1771  0.1847
20818W        W21682  15.436  17.903  15.690 -0.0883  0.3533 -0.4798
20819W        W21683  21.787  14.194   6.183 -0.2288  0.2524 -0.0844
20820W        W21684   4.279   1.438   2.956  0.2312  0.0740 -0.0214
20821W        W21685   5.753   6.882  20.329 -0.0304 -0.1761  0.1290
20822W        W21686  27.599  23.183  19.624 -0.0477  0.5076  0.0182
20823W        W21687   6.427   2.926  14.245 -0.1542 -0.2355 -0.2109
20824W        W21688   2.196  12.831  14.020 -0.0596 -0.1200  0.1423
20825W        W21689   2.392   0.135  10.067 -0.3734 -0.1308  0.0880
20826W        W21690  22.838  25.921   8.170  0.2820  0.0682 -0.3920
20827W        W21691  25.549  20.625  27.288  0.1365 -0.1056 -0.2932
20828W        W21692  15.937  16.678   4.874 -0.3062  0.0350  0.0165
20829W        W21693   1.295   2.481  16.979 -0.3418  0.2462  0.0562
20830W        W21694  15.399   6.437  12.124 -0.0906  0.2656 -0.1019
20831W        W21695  22.789  25.565  20.267 -0.0004  0.0524 -0.0312
20832W        W21696  28.967   8.232  21.916 -0.0243 -0.1975  0.2002
20833W        W21697  10.689  13.015   4.271 -0.2051  0.2493  0.1084
20834W        W21698   4.374  24.721  23.945 -0.1228  0.0332  0.0352
20835W        W21699   4.633  15.202  14.393 -0.4027  0.2528  0.0918
20836W        W21700  18.599  23.683   8.460  0.1029 -0.0357 -0.0108
20837W        W21701  15.147  10.761   7.546  0.1481 -0.0787  0.0712
20838W        W21702   4.197  27.432   6.660 -0.3268 -0.0937  0.0883
20839W        W21703  15.019  16.246   0.001  0.1014 -0.0435 -0.2731
20840W        W21704   0.659  23.362   7.838 -0.1415 -0.2214  0.2984
20841W        W21705  21.421  20.057  13.723  0.1990 -0.0135 -0.0274
20842W        W21706   8.431  18.769  11.224  0.0426 -0.0762 -0.2359
20843W        W21707  27.840   1.557  27.702 -0.0958 -0.0377  0.0732
20844W        W21708  19.026   4.130  21.112  0.0527 -0.2252  0.0030
20845W        W21709   4.669   6.361  16.354  0.1380  0.0514  0.3902
20846W        W21710   1.594  19.855   0.257  0.2562 -0.2917  0.2690
20847W        W21711  23.696  25.321   4.797  0.0291  0.1636  0.2538
20848W        W21712  15.683  19.247  17.256 -0.0491  0.3745  0.1090
20849W        W21713  23.935  26.981   4.567 -0.1364 -0.0608  0.3994
20850W        W21714  25.980  23.181  10.400  0.3869  0.1046  0.2099
20851W        W21715   2.600  21.377  18.861 -0.0071  0.2608  0.1092
20852W        W21716   2.479  28.533  23.340  0.0156 -0.2240 -0.1391
20853W        W21717  11.910  20.550   8.132  0.3824  0.3551 -0.0581
20854W        W21718  12.902   0.388   2.848 -0.2760  0.1233  0.2066
20855W        W21719  26.858  28.022  11.697 -0.1423  0.0499  0.0308
20856W        W21720  22.558   3.126  19.148 -0.2535 -0.0512  0.2306
20857W        W21721   5.359  20.576  14.824  0.0101  0.1295  0.2261
20858W        W21722   7.894  24.250   3.541  0.0089  0.1594 -0.3117
20859W        W21723   6.369  16.839  21.216 -0.2221 -0.1370 -0.0304
20860W        W21724  24.935  16.353  15.098 -0.3582 -0.1198  0.0363
20861W        W21725  23.385   3.217   3.086 -0.2729 -0.0984 -0.2233
20862W        W21726   6.837   7.419  17.644  0.1554  0.0534 -0.2759
20863W        W21727  14.574  27.792  12.345 -0.1520 -0.0308  0.4437
20864W        W21728   5.654  26.647   0.151 -0.0868  0.2583 -0.0161
20865W        W21729  18.419   3.372   5.992 -0.0339  0.0630  0.0752
20866W        W21730  22.771  23.478   7.694 -0.2093 -0.0189 -0.1346
20867W        W21731  25.490  20.499   9.030  0.2333  0.3742 -0.1496
20868W        W21732  28.050  16.916  12.276  0.1559 -0.0426  0.2277
20869W        W21733  11.948  12.499  18.702 -0.1375  0.1497 -0.0271
20870W        W21734   3.385  10.435  16.399 -0.3496  0.0293 -0.2033
20871W        W21735   0.615  15.165  13.271  0.1807  0.0650 -0.0235
20872W        W21736   7.710  13.921  27.173  0.3193 -0.4570 -0.0036
20873W        W21737  15.675   1.662  13.247  0.0600  0.1092 -0.2085
20874W        W21738  16.146  26.307  21.580  0.2416 -0.1277 -0.1686
20875W        W21739  13.119  12.028   7.242 -0.3096 -0.1240  0.0964
20876W        W21740   5.071  26.870   4.828  0.0317  0.1315 -0.1175
20877W        W21741  26.756   1.500  25.960  0.2777  0.0220 -0.2515
20878W        W21742   0.440  18.397  10.397  0.0026  0.0822 -0.0990
20879W        W21743   0.920  23.955  13.735  0.0124  0.0798 -0.0222
20880W        W21744  19.560  17.151   9.925  0.0667  0.0544 -0.0357
20881W        W21745  10.464   5.775  24.374  0.2519 -0.0191 -0.0350
20882W        W21746  27.208  16.751   3.395 -0.1162 -0.0191  0.3544
20883W        W21747  26.913   5.176  12.453  0.1444 -0.0283  0.1450
20884W        W21748  28.531  17.915   2.052 -0.0191 -0.1497 -0.3239
20885W        W21749  29.079  11.995  20.112  0.4280  0.3242  0.1382
20886W        W21750   8.868  18.236  13.909  0.1376  0.1018 -0.0267
20887W        W21751  26.561   5.094   8.926 -0.1668  0.0131  0.2006
20888W        W21752  24.703  24.182   9.948 -0.3136  0.1517 -0.1186
20889W        W21753  10.477   6.833  17.245  0.2072  0.0532 -0.2154
20890W        W21754  22.573   9.065  28.651  0.0345  0.6346 -0.0684
20891W        W21755  17.840   3.972  20.443  0.0054 -0.2803  0.3412
20892W        W21756  18.396  25.850  10.933 -0.0790 -0.0245 -0.3554
20893W        W21757   6.646  19.831   9.351 -0.0140  0.0135  0.0320
20894W        W21758   8.502  24.992   5.178  0.2913  0.3372  0.1469
20895W        W21759  17.437   3.531   6.748  0.0757 -0.0423  0.0568
20896W        W21760   2.888  22.048  15.718  0.0857 -0.0923 -0.0428
20897W        W21761   8.616  14.390  10.586 -0.2536  0.2267  0.2741
20898W        W21762   0.982  18.941  26.950 -0.1543  0.0875 -0.0182
20899W        W21763  19.918  16.296  11.010  0.0612 -0.2099 -0.0837
20900W        W21764  10.377  19.998  16.722 -0.0984  0.0776  0.2603
20901W        W21765   8.433   2.273   9.311 -0.4038 -0.1843 -0.1815
20902W        W21766  22.369   0.551  15.271 -0.0306 -0.4079 -0.0348
20903W        W21767  14.196   8.380  20.773 -0.0658 -0.0953 -0.2428
20904W        W21768   9.175  19.065  18.501  0.2423  0.2173 -0.2143
20905W        W21769   5.384  25.272  17.035 -0.1639 -0.3552 -0.2609
20906W        W21770   4.108  28.117  14.793  0.3727 -0.1679 -0.1008
20907W        W21771  26.462  17.356  11.029 -0.0188  0.1000  0.2938
20908W        W21772  13.056  21.626  12.435 -0.0373  0.0993  0.0230
20909W        W21773  28.394  17.804  14.978  0.1576  0.0236  0.0276
20910W        W21774  24.783   2.080   2.697 -0.1100  0.1128 -0.3007
20911W        W21775   4.130  25.339  21.778  0.0258 -0.0269  0.1059
20912W        W21776  28.338  14.536   9.749 -0.1452  0.0607 -0.1447
20913W        W21777  10.240   5.637  20.321 -0.0288 -0.2798  0.2910
20914W        W21778  28.031  16.896   9.201  0.3827 -0.2502  0.1965
20915W        W21779   9.875   5.233   1.486 -0.3363  0.0468 -0.0875
20916W        W21780   0.968  15.492  28.412 -0.2000 -0.1385  0.0999
20917W        W21781   9.961  27.673  14.162 -0.0016  0.0944  0.1562
20918W        W21782  14.218   4.859  19.624  0.1797  0.2212  0.0759
20919W        W21783   5.980  14.672  27.601  0.0926 -0.0121 -0.0202
20920W        W21784  17.560  18.509  28.919 -0.2398  0.1520  0.2464
20921W        W21785  26.157  20.950   6.821  0.2126  0.0300  0.0559
20922W        W21786   8.247  22.415  17.215  0.4316 -0.3960 -0.1187
20923W        W21787  23.285   0.496   5.733  0.0049  0.1047  0.1354
20924W        W21788  19.273  21.739   1.348  0.1697 -0.0746 -0.0293
20925W        W21789  16.345  23.031  12.403  0.1718 -0.0095  0.1189
20926W        W21790   3.648  21.653   0.441 -0.3751  0.1074 -0.2691
20927W        W21791  28.782  28.294  19.691  0.2065  0.0081  0.2163
20928W        W21792   5.374  22.366  13.999  0.0811 -0.2555 -0.3832
20929W        W21793   3.748  16.727   8.093 -0.0242  0.2352 -0.2069
20930W        W21794   3.897   1.769   8.539  0.0699  0.2528  0.1808
20931W        W21795   6.021  14.221   6.993  0.0784  0.1361 -0.3919
20932W        W21796  24.042   3.039   9.073  0.1672  0.1811 -0.0993
20933W        W21797  21.964  15.317   7.585  0.0730  0.1793 -0.2139
20934W        W21798   1.211   0.317   1.387  0.1051  0.0607  0.0915
20935W        W21799   6.356  21.712  18.921 -0.0485  0.0821 -0.1966
20936W        W21800   1.126  21.358  12.389 -0.0216  0.0745  0.2989
20937W        W21801   3.101   7.178  12.712 -0.2180 -0.2337  0.3076
20938W        W21802  19.094  20.519  26.325 -0.1502 -0.4036 -0.0546
20939W        W21803  12.088  23.897  20.605 -0.1912  0.1494 -0.2420
20940W        W21804   4.810   9.205  18.365  0.1051 -0.0395  0.0619
20941W        W21805   1.664  14.878   4.601 -0.1344  0.1646 -0.0597
20942W        W21806  20.710  26.183  21.697  0.0551 -0.0465  0.3417
20943W        W21807   4.313   6.742   5.144  0.0239  0.3338  0.0308
20944W        W21808   3.458  10.391  20.928 -0.1165  0.0780 -0.0402
20945W        W21809   7.103   7.341   1.207 -0.1403 -0.1581 -0.1162
20946W        W21810  11.470  14.137   4.418 -0.0229 -0.0758  0.2222
20947W        W21811  21.973  16.728  16.975  0.1538  0.1373  0.1926
20948W        W21812  15.920  17.115  13.507  0.1460  0.1712 -0.0344
20949W        W21813  20.439   8.360  17.617 -0.1738 -0.1072 -0.1402
20950W        W21814  22.776  17.247  26.080  0.2484 -0.0557  0.0346
20951W        W21815  25.872  24.892  27.635 -0.3090 -0.0349 -0.1418
20952W        W21816  26.048  24.315  12.914 -0.3068 -0.0150  0.0556
20953W        W21817  12.764  27.407  10.538 -0.3081  0.1292  0.2026
20954W        W21818  17.996  24.269   7.283 -0.1387 -0.1425 -0.0362
20955W        W21819  14.342   5.487  25.787  0.2514  0.2282 -0.2161
20956W        W21820  24.952   7.952  19.405 -0.0303  0.0355 -0.2409
20957W        W21821  13.747   1.932  28.437 -0.3745 -0.0100  0.3175
20958W        W21822  11.260  26.699  11.886  0.0886 -0.0909  0.2243
20959W        W21823  11.276  25.132  22.941 -0.0084  0.1297  0.0561
20960W        W21824  11.857   4.525  18.882  0.1484  0.0513 -0.3135
20961W        W21825  28.295  19.122  17.972 -0.2580 -0.0709  0.1087
20962W        W21826   7.784  21.969  28.799 -0.0465 -0.2107 -0.1537
20963W        W21827   6.894  25.339  15.036 -0.1650  0.2075  0.4765
20964W        W21828   4.054  25.100  23.804 -0.2691 -0.0237 -0.1945
20965W        W21829   2.246  17.804  17.239 -0.3200  0.0148  0.0257
20966W        W21830  17.073  24.691   6.982  0.1263  0.0228  0.0816
20967W        W21831  14.456  12.762   4.205  0.4306  0.0075  0.0960
20968W        W21832   6.215  26.618   3.765  0.0395  0.1750 -0.1374
20969W        W21833  25.571   1.487   8.480  0.1765  0.1549  0.1119
20970W        W21834   0.179   2.682  28.588  0.0576  0.1898 -0.0737
20971W        W21835  10.574  25.888  14.812 -0.2001 -0.1003  0.2692
20972W        W21836  21.538  16.021   6.019  0.0387 -0.0044  0.3011
20973W        W21837   0.090  11.544  14.696  0.4553 -0.2309  0.3681
20974W        W21838   8.666   0.787   9.535 -0.3976  0.1965 -0.0791
20975W        W21839   0.248   2.727   2.059  0.4131 -0.2634  0.4777
20976W        W21840  19.038  21.804  26.733  0.1761  0.3743 -0.2007
20977W        W21841   6.207   2.803  10.549  0.3918  0.2750 -0.1795
20978W        W21842   3.344  25.484  21.629  0.1611  0.3501 -0.4102
20979W        W21843  22.285  25.839  15.312  0.2187 -0.5016 -0.0234
20980W        W21844   8.436  15.900   5.883  0.1291 -0.0052 -0.1197
20981W        W21845  13.607   5.060  15.198  0.0862  0.1709  0.3662
20982W        W21846   5.816  16.991  20.334  0.1946  0.0532  0.2251
20983W        W21847   5.163  24.985  19.239  0.1705  0.0175  0.2494
20984W        W21848  27.969  17.350  11.994  0.0944 -0.1205  0.2912
20985W        W21849   5.907  14.150   6.172 -0.4133  0.0529  0.1952
20986W        W21850  11.296  10.447   9.572  0.1991 -0.0370 -0.0887
20987W        W21851   9.048  28.269  20.529 -0.1680 -0.1634 -0.1715
20988W        W21852  18.212  15.546  16.107  0.0301 -0.2780  0.2598
20989W        W21853  17.172  23.740   8.759  0.0065 -0.1610  0.0149
20990W        W21854  11.011   1.095   6.167 -0.0918 -0.2866 -0.0562
20991W        W21855  18.316   1.456   5.791  0.1216  0.2876 -0.0475
20992W        W21856  12.560   3.053   9.069 -0.1582  0.0359  0.1353
20993W        W21857  20.345   1.687   4.890 -0.0811 -0.2759  0.3334
20994W        W21858  10.002  28.331   2.388  0.0261  0.0882 -0.0947
20995W        W21859  26.303  10.706   6.817  0.1139  0.3318 -0.0860
20996W        W21860  17.269   7.895  23.223 -0.1378  0.1738  0.0437
20997W        W21861   6.103  20.155  10.883  0.3591  0.0207 -0.0290
20998W        W21862  25.310  12.331   9.648 -0.0989 -0.0703  0.1985
20999W        W21863  28.764   4.580  11.506 -0.1236  0.3546 -0.1817
21000W        W21864   7.788   5.548   6.922  0.1260 -0.0669  0.1259
21001W        W21865  25.519  25.152   4.093  0.1824 -0.1259 -0.2334
21002W        W21866  17.599  28.942   0.348  0.3451 -0.2175  0.1865
21003W        W21867   5.764  24.179   7.615  0.0106 -0.0495 -0.3723
21004W        W21868  26.239  20.746   4.710  0.0563  0.0442  0.1975
21005W        W21869  26.116  24.941  19.866  0.2072  0.0976 -0.1033
21006W        W21870  12.259  10.043  23.914 -0.2979 -0.0336  0.2699
21007W        W21871   6.635  20.619  15.221  0.2167  0.1702 -0.0762
21008W        W21872   8.393  28.519   1.691  0.0134  0.0730 -0.0094
21009W        W21873  13.415   6.242  25.194 -0.1480 -0.1302 -0.1214
21010W        W21874  11.981   4.249  14.881 -0.2064 -0.0850 -0.2793
21011W        W21875   9.501  26.761  24.012 -0.0884 -0.0690 -0.1987
21012W        W21876  17.545  28.283  17.056 -0.1658  0.0016 -0.0528
21013W        W21877   3.270  11.021  21.604  0.1172 -0.1958  0.3546
21014W        W21878   7.359   3.549  19.960  0.0474 -0.1451 -0.3780
21015W        W21879   3.727  16.510  24.570  0.0281 -0.1566 -0.1656
21016W        W21880  12.028  26.151  14.875  0.0445  0.2230 -0.1805
21017W        W21881   3.116   1.519  23.648 -0.1396 -0.1509  0.2819
21018W        W21882   8.328  10.335  28.559  0.0806  0.1930 -0.0812
21019W        W21883  25.870  18.333  11.944  0.0600 -0.1545  0.0996
21020W        W21884   2.838   2.735  28.039 -0.3360  0.3455 -0.0971
21021W        W21885   2.475  23.015  23.505  0.0104 -0.0028 -0.0137
21022W        W21886  18.757  21.733   4.662 -0.0559 -0.1035 -0.0968
21023W        W21887  29.034  28.351  15.467  0.0146 -0.1644 -0.1584
21024W        W21888  15.278  22.565  16.010  0.0276  0.0122  0.0272
21025W        W21889  19.522  18.552  15.604 -0.0230 -0.0919  0.1299
21026W        W21890  19.764  12.507   9.982  0.3487 -0.0151  0.0273
21027W        W21891   1.140   1.350  13.616  0.0241  0.2034  0.1044
21028W        W21892  12.803   9.673  27.425  0.1528 -0.2782  0.2161
21029W        W21893   6.333  23.448  15.661 -0.1262  0.2168  0.2625
21030W        W21894   3.544   1.573  10.799  0.1691  0.0867 -0.0099
21031W        W21895   0.354  26.981  11.796 -0.2143  0.0445 -0.1595
21032W        W21896  24.714   5.913   8.419  0.2072  0.2286 -0.2006
21033W        W21897  17.987  25.206  29.090  0.0970 -0.2293 -0.1796
21034W        W21898  26.183  23.514  27.862 -0.1187 -0.0319 -0.1777
21035W        W21899   3.004  22.801   5.878  0.2475 -0.1116 -0.2641
21036W        W21900  21.065  23.889  13.674  0.0791 -0.1585  0.0608
21037W        W21901  11.567  21.852   7.846 -0.2679  0.3649  0.0499
21038W        W21902  14.302  14.182  15.612  0.1467  0.0597 -0.2496
21039W        W21903   7.501   9.650  28.789 -0.0034 -0.0199 -0.1380
21040W        W21904  24.266  14.944  25.082  0.1229 -0.0102 -0.0491
21041W        W21905  26.380  19.319   0.462  0.2151  0.2736 -0.1363
21042W        W21906  12.632  22.570  12.348 -0.0975 -0.1048  0.2069
21043W        W21907  19.880  25.896  12.688 -0.1781 -0.0350  0.0519
21044W        W21908   9.657  19.462  11.469  0.0095  0.0007  0.1229
21045W        W21909  11.613  23.844  27.694 -0.0429 -0.0705 -0.2276
21046W        W21910  26.671  16.189   5.154  0.0649 -0.0435  0.0520
21047W        W21911  13.881  14.735  25.795 -0.1181  0.0353 -0.1481
21048W        W21912  27.012  14.695  15.485 -0.1528 -0.2646 -0.0133
21049W        W21913   3.142   3.196  13.487 -0.0003 -0.0039 -0.1791
21050W        W21914   7.787  28.577  20.817  0.2697  0.1863  0.0507
21051W        W21915  12.692   6.159  17.646  0.1018  0.3956  0.2325
21052W        W21916   1.919  27.761  28.279 -0.1969 -0.2237 -0.2302
21053W        W21917  22.026   6.580  14.002  0.1305  0.2456 -0.2200
21054W        W21918  26.597  15.233  14.886 -0.2883 -0.0607 -0.4192
21055W        W21919  27.505   6.556   0.186 -0.0619 -0.0013 -0.0493
21056W        W21920  23.602  19.318  18.808  0.2440  0.0104 -0.1254
21057W        W21921  28.204  28.569  19.927 -0.1972 -0.0464  0.2385
21058W        W21922  25.066   5.024   8.370  0.0134  0.0783  0.2477
21059W        W21923  26.275   9.564  27.539  0.0448  0.0152 -0.1207
21060W        W21924   7.030  24.624  21.213 -0.1014  0.2208  0.3478
21061W        W21925  22.509  23.726  16.004 -0.1754  0.2367  0.0698
21062W        W21926  28.383  25.055  26.175 -0.0161 -0.3426  0.1145
21063W        W21927  26.135  12.049   8.065  0.2566 -0.4491 -0.2540
21064W        W21928   6.596   0.162  28.501 -0.2251  0.0666 -0.0163
21065W        W21929   6.466  15.841  26.960 -0.2140 -0.3359 -0.4521
21066W        W21930  10.181  14.779   6.580 -0.0993 -0.1811  0.0715
21067W        W21931  22.659  22.159  26.687  0.2055  0.1961 -0.0495
21068W        W21932  13.441  26.834  26.520 -0.1076 -0.0017  0.1851
21069W        W21933  23.400  21.580   8.067 -0.2427  0.0394  0.0877
21070W        W21934  28.988  15.363  14.760 -0.5600 -0.0195 -0.1378
21071W        W21935   3.295  23.865   2.405 -0.3460 -0.1182  0.0750
21072W        W21936  25.053  21.413  20.006  0.1156  0.1439 -0.2750
21073W        W21937  27.026  26.825  23.722 -0.0323 -0.0686 -0.0454
21074W        W21938  23.526   4.586  19.691  0.0522  0.0037 -0.2300
21075W        W21939  17.613  26.892  18.498 -0.3649 -0.2643  0.1653
21076W        W21940  26.964  22.350  28.364  0.1757 -0.1954 -0.0279
21077W        W21941   7.461   0.392  18.193 -0.0560  0.1463 -0.0839
21078W        W21942   0.861  15.167  19.343 -0.1401  0.2003  0.0259
21079W        W21943  21.016  25.098  14.461  0.3192 -0.4046  0.1124
21080W        W21944  13.103  12.746  12.739 -0.0333  0.2295 -0.1564
21081W        W21945  25.110   8.686  25.289  0.1142  0.2057 -0.0742
21082W        W21946  27.408   1.751   9.838  0.2971  0.0571  0.0117
21083W        W21947  12.851  18.308  20.067  0.0190 -0.0071 -0.0905
21084W        W21948  22.735  18.454  28.091  0.0271  0.2954 -0.0633
21085W        W21949  22.327   5.853  11.739  0.1684 -0.3770  0.0964
21086W        W21950  28.598   0.101   4.471  0.0049 -0.0524  0.3597
21087W        W21951   3.286  17.659  10.275  0.1336 -0.0599  0.1161
21088W        W21952  24.807  24.454   5.052  0.3429  0.1566  0.2264
21089W        W21953   0.241   5.749  25.633  0.1471  0.1522  0.0942
21090W        W21954   1.563  17.438   0.776 -0.0583  0.0452 -0.0367
21091W        W21955  25.165  20.340  11.046 -0.0683 -0.2121 -0.0324
21092W        W21956  14.481  27.957  23.463 -0.1929 -0.2119  0.4448
21093W        W21957  13.796   9.734  20.745 -0.3329 -0.1717 -0.1123
21094W        W21958   9.726  27.059  20.851 -0.3305 -0.0139  0.1625
21095W        W21959  10.230  10.717   0.184 -0.2682 -0.1818  0.0597
21096W        W21960   0.020  23.750   6.338  0.3073  0.2938 -0.1964
21097W        W21961   0.567   2.108  13.521  0.1569 -0.1160  0.0348
21098W        W21962  14.584  25.202  25.805  0.0273 -0.3144 -0.2605
21099W        W21963  25.212   9.156  20.112 -0.1478 -0.1105  0.3178
21100W        W21964  25.678  11.508   2.175  0.1590 -0.1877  0.0483
21101W        W21965  11.356   5.585  16.870 -0.0192 -0.2888 -0.1874
21102W        W21966   5.862  26.720  27.334  0.0058  0.2590  0.1514
21103W        W21967   0.813  10.269   2.604 -0.0222  0.0804 -0.1924
21104W        W21968  19.366  28.237  15.733  0.1906 -0.1714 -0.1341
21105W        W21969   7.905  23.964  11.297  0.0559 -0.0119 -0.1004
21106W        W21970   6.811  20.970   7.844 -0.0322  0.0670  0.1013
21107W        W21971  28.636   7.842   5.064 -0.1850  0.0433 -0.2691
21108W        W21972   4.417  14.655  21.128 -0.4251  0.0345  0.2421
21109W        W21973  10.573   1.604  25.105  0.0125  0.0313  0.0479
21110W        W21974  27.287  24.310  22.636  0.0503  0.0734  0.0287
21111W        W21975  22.091  12.664  19.270  0.2512  0.1814  0.2896
21112W        W21976  25.944  16.462  20.159 -0.1617  0.4026  0.0456
21113W        W21977   5.580   8.396   8.848 -0.2718  0.2566  0.0558
21114W        W21978   2.445   5.008  19.916  0.1458  0.0078 -0.1594
21115W        W21979  11.748  11.888  14.106 -0.3166  0.0791 -0.0695
21116W        W21980  14.477  11.491   7.414  0.0487 -0.1269 -0.3199
21117W        W21981  22.691  21.405  21.494  0.2031  0.1508  0.1035
21118W        W21982   3.157   8.894  15.176 -0.0191  0.1754  0.1321
21119W        W21983   7.826  24.925  14.587  0.1268  0.1797 -0.2655
21120W        W21984   6.315  13.340  19.809 -0.1427  0.1933 -0.0647
21121W        W21985   3.652   7.505  11.184 -0.2846 -0.1363 -0.2386
21122W        W21986  25.010   3.663   8.479  0.0540 -0.2445 -0.1860
21123W        W21987  25.139   7.794  26.738  0.0739 -0.3246  0.1262
21124W        W21988  17.829  24.692  20.137  0.2124 -0.1467 -0.0057
21125W        W21989  24.499  16.643  11.285 -0.1376  0.1472 -0.1870
21126W        W21990  15.884  10.984  18.907 -0.0744  0.1683 -0.0954
21127W        W21991   5.283  23.090  24.003  0.0514  0.3685  0.1845
21128W        W21992  22.220   2.112  25.170  0.3685 -0.1482  0.2502
21129W        W21993  27.826  21.001  14.423 -0.0774  0.2498  0.1579
21130W        W21994  27.136  12.236   9.975  0.0922 -0.1628  0.0378
21131W        W21995   4.686  23.991   8.154 -0.0774 -0.2097 -0.0480
21132W        W21996  12.809  17.352   0.854 -0.0502 -0.4476  0.2388
21133W        W21997  15.265  26.369  23.691  0.1050 -0.1889 -0.0527
21134W        W21998  26.082   2.175  23.652  0.2543 -0.2544 -0.0804
21135W        W21999   8.593  27.222   6.351 -0.0426  0.1231 -0.0318
21136W        W22000  27.394   1.578  10.554  0.0540 -0.1515 -0.0905
21137W        W22001  17.675   2.854  16.095  0.2294 -0.0310 -0.0818
21138W        W22002  14.944  12.321  13.014 -0.0162 -0.0991 -0.2559
21139W        W22003  25.429   6.499   9.509 -0.1019 -0.2084  0.2963
21140W        W22004  10.544  23.550  13.363  0.2208  0.3778  0.0299
21141W        W22005   7.191   7.966   4.285  0.0649  0.1842 -0.1078
21142W        W22006  19.156   4.039  26.238  0.1456 -0.1615  0.1072
21143W        W22007   2.367  24.747  16.532 -0.1196  0.0870 -0.0964
21144W        W22008  18.494  27.788   2.348  0.5504 -0.0396 -0.1011
21145W        W22009  14.358  27.270  18.283 -0.0755 -0.1908  0.0356
21146W        W22010  18.189  27.959  24.758 -0.0412  0.0477  0.0282
21147W        W22011   1.889  16.284  25.949 -0.1957 -0.1940  0.0657
21148W        W22012  26.377   2.839  21.425  0.2060 -0.2239  0.0220
21149W        W22013   8.819  23.154   1.878 -0.0893  0.3439 -0.0878
21150W        W22014  13.004  23.270  14.755 -0.1276  0.0952 -0.1767
21151W        W22015  29.095  19.844   1.149  0.2896  0.2528  0.1564
21152W        W22016   3.188  24.300  16.840 -0.2782  0.1932  0.0752
21153W        W22017  24.853  26.172  14.501 -0.1177 -0.2835 -0.1492
21154W        W22018   7.014   2.394   8.871 -0.0186 -0.0072  0.0751
21155W        W22019  22.888  29.027   1.940 -0.1526  0.0838  0.0103
21156W        W22020  22.574  22.672  11.033  0.1793  0.1755 -0.0418
21157W        W22021  27.960   0.331  21.062  0.0382 -0.1500  0.1382
21158W        W22022  28.241   1.699  23.025  0.0234  0.2561  0.1312
21159W        W22023  18.646  15.572  15.192 -0.0336  0.0662 -0.0726
21160W        W22024   4.245   2.617  24.125 -0.2332  0.1891 -0.0549
21161W        W22025  21.209   1.982  15.769 -0.3760  0.1104 -0.1446
21162W        W22026   3.579  12.597  14.032 -0.1853 -0.1895  0.0910
21163W        W22027  19.828  12.160   9.196  0.0216  0.0301 -0.2446
21164W        W22028  23.501   2.980   2.607  0.2627  0.1301 -0.0788
21165W        W22029  25.869  27.675  16.096 -0.3879  0.0836  0.0982
21166W        W22030  23.734   1.888  11.774 -0.1299  0.1571  0.2890
21167W        W22031  26.098  27.828   1.753  0.3401  0.2243 -0.0173
21168W        W22032  14.929  11.025  27.105 -0.0808  0.0113  0.1303
21169W        W22033  21.075   8.331  24.334 -0.0825  0.1644 -0.1360
21170W        W22034   2.473   2.513  24.395  0.2982  0.1459  0.0422
21171W        W22035  20.529  13.972  12.219  0.1071 -0.2481 -0.1124
21172W        W22036   2.456  25.406  18.293 -0.2159 -0.3189  0.1523
21173W        W22037  17.135  23.585   6.254 -0.0802 -0.0998  0.2908
21174W        W22038  10.904   0.159   9.490  0.0334  0.0946 -0.0124
21175W        W22039  26.869  27.079  21.468  0.0919  0.1453  0.1264
21176W        W22040  24.024  19.662  14.398  0.1876  0.2655  0.1643
21177W        W22041  26.599  25.703  16.730 -0.1267  0.2262  0.2822
21178W        W22042  24.079   4.146  16.690  0.1898  0.2582  0.0905
21179W        W22043  19.964   2.933  27.268 -0.1683 -0.1255  0.0164
21180W        W22044  19.319   0.962   3.728 -0.0654  0.0488  0.0197
21181W        W22045  26.375  24.843   6.096 -0.1924  0.2698  0.2323
21182W        W22046   5.847   7.637   9.080 -0.5259  0.2724  0.2023
21183W        W22047  26.898  14.331   4.893  0.0366 -0.1062  0.1268
21184W        W22048  17.024   6.047  18.022  0.1882 -0.2486 -0.3773
21185W        W22049   9.724  24.421   3.979 -0.1258 -0.2697 -0.0236
21186W        W22050   5.063  15.397  20.286  0.1970  0.1502 -0.1978
21187W        W22051   6.750  27.245  23.432  0.0866 -0.0657 -0.0385
21188W        W22052   7.804   8.918  10.039  0.2284  0.1118 -0.0025
21189W        W22053   1.844   3.899  15.820  0.1445  0.1246 -0.1403
21190W        W22054  25.074  25.121  23.831 -0.1455 -0.0226 -0.1471
21191W        W22055  13.015   4.895  19.395  0.2158  0.0882 -0.2064
21192W        W22056   6.245   7.681   6.625 -0.2645  0.0458  0.2093
21193W        W22057   1.946  24.142  10.206 -0.1378 -0.2905 -0.0855
21194W        W22058   6.979  17.087   8.635  0.2506  0.0923 -0.2347
21195W        W22059  14.928  15.184  19.000  0.1718  0.3469  0.3793
21196W        W22060  24.631  10.080  21.207 -0.0849  0.1354 -0.0171
21197W        W22061  18.136  16.735  22.086 -0.0405 -0.0037 -0.5005
21198W        W22062   8.626  17.687  28.821 -0.0184  0.1082  0.2692
21199W        W22063  19.569  24.455  11.410  0.1091 -0.1394  0.0310
21200W        W22064  26.647  10.880  21.261 -0.4110  0.4308 -0.1920
21201W        W22065  19.327  14.275  16.377  0.0210 -0.2991  0.0213
21202W        W22066  24.976   6.570  15.224 -0.1720  0.1591 -0.0919
21203W        W22067  13.950  25.180  15.027 -0.0783 -0.1181  0.2756
21204W        W22068  23.244  20.829  27.851  0.0173 -0.4578  0.3396
21205W        W22069   3.656  14.842  21.630 -0.0392  0.1376 -0.1451
21206W        W22070   4.385  24.793  15.493  0.1951 -0.4696  0.1006
21207W        W22071  27.502  17.577  27.227 -0.2513  0.1507  0.0164
21208W        W22072   6.129  25.816  12.214 -0.4878  0.0955  0.0559
21209W        W22073  22.135  19.493  15.289 -0.0421  0.0492 -0.1221
21210W        W22074  27.997  25.707  23.998 -0.0127  0.0268 -0.0750
21211W        W22075  20.196   2.070  16.166 -0.2606  0.1939 -0.0165
21212W        W22076  28.364  22.642   3.914 -0.2507 -0.0462  0.1166
21213W        W22077  18.478  12.607   9.410 -0.0005 -0.1569 -0.1272
21214W        W22078   3.512  11.441  17.257 -0.3418 -0.4118 -0.1086
21215W        W22079  22.427   6.437   8.934 -0.1053 -0.0665 -0.2260
21216W        W22080  17.414   2.067  19.401 -0.0874 -0.0507  0.3122
21217W        W22081  26.659  13.751   5.211 -0.0369  0.1869  0.3194
21218W        W22082  25.592   0.298  18.889  0.1575 -0.1783  0.2503
21219W        W22083   3.311  10.270  15.822 -0.1839  0.2136 -0.1211
21220W        W22084   8.260  14.342   8.238 -0.0325 -0.0362 -0.4293
21221W        W22085   2.419  22.748  15.420 -0.1863 -0.0245 -0.0010
21222W        W22086  14.657  19.568  26.343 -0.2817  0.1286 -0.0834
21223W        W22087   4.321   0.230  15.590 -0.0115 -0.0046  0.0306
21224W        W22088  27.976   8.300   5.175 -0.1996 -0.0656  0.0008
21225W        W22089  18.862  14.752  24.508  0.0865 -0.1150 -0.0740
21226W        W22090   1.541  27.340  19.872  0.0078  0.1390  0.1772
21227W        W22091   4.333  25.281   2.085  0.0533  0.0261  0.1532
21228W        W22092  12.339  25.487  13.349 -0.1098  0.0172  0.1036
21229W        W22093   6.849   6.986   5.730  0.0916  0.2205 -0.1060
21230W        W22094  11.156  23.138  26.692 -0.2592 -0.0428 -0.0717
21231W        W22095  25.692  16.048  20.053  0.0714  0.0746  0.0332
21232W        W22096   5.391  21.735   3.930  0.0183 -0.1951 -0.1768
21233W        W22097  16.954  19.007  21.978 -0.0025 -0.1910 -0.2643
21234W        W22098  24.888  16.852   4.321 -0.0417 -0.1429  0.0106
21235W        W22099   0.889  28.329  14.635  0.1168  0.1509 -0.0185
21236W        W22100  20.943   1.070   8.302  0.1188  0.0262 -0.2939
21237W        W22101   4.410  22.710  14.223 -0.0617 -0.0100 -0.0684
21238W        W22102   2.431   7.603   4.522 -0.1071 -0.1403 -0.0795
21239W        W22103  13.690  23.736  11.985 -0.2527  0.0736 -0.1701
21240W        W22104  26.360   2.886   8.858 -0.1451 -0.0365 -0.0854
21241W        W22105  26.271  29.084  11.257  0.1901 -0.1365 -0.0457
21242W        W22106  21.795  18.803  21.205  0.1816 -0.0161 -0.2905
21243W        W22107   0.331  11.913   2.323  0.1906  0.0490 -0.0549
21244W        W22108  26.096  17.764  25.027  0.0598 -0.2264 -0.2987
21245W        W22109  20.975   3.361  16.111  0.0863 -0.0679  0.1978
21246W        W22110  15.163  19.336   9.169 -0.1652  0.1700  0.1244
21247W        W22111  22.598  26.571  16.415 -0.0765 -0.1321 -0.0962
21248W        W22112  28.766  27.905  21.253  0.1892 -0.2854 -0.2526
21249W        W22113  13.200  27.022   8.764 -0.4085 -0.2856 -0.1555
21250W        W22114   4.111   4.065   2.178  0.1255  0.1879 -0.4416
21251W        W22115   9.147   1.936  19.387 -0.1799 -0.4035 -0.0804
21252W        W22116   8.142  24.857  24.853  0.4777 -0.0810  0.1458
21253W        W22117  24.933   3.635  14.606  0.0718  0.1925  0.0258
21254W        W22118   8.815  22.818  17.213  0.3420 -0.2778  0.0407
21255W        W22119  29.143   0.560  21.472 -0.0151 -0.0315 -0.0842
21256W        W22120   2.064  24.968  11.315  0.2739  0.1221 -0.3398
21257W        W22121   1.703  20.435  18.283 -0.0634  0.0402  0.0180
21258W        W22122  27.758  23.939  16.339  0.1040  0.5064  0.1478
21259W        W22123  20.818  17.443  13.576 -0.1657 -0.1151  0.2977
21260W        W22124  23.403  23.808  19.087 -0.2127  0.3817  0.0588
21261W        W22125  22.980  25.567  22.329 -0.2473 -0.1474 -0.1329
21262W        W22126   8.238  25.842  19.143  0.2059  0.1907  0.0035
21263W        W22127   7.784   4.576   8.293 -0.1423 -0.0849  0.0754
21264W        W22128  13.906   6.444   0.332 -0.1103 -0.1345 -0.1710
21265W        W22129  16.529  18.524  19.036  0.0648  0.2012  0.2712
21266W        W22130   0.972  22.662   3.006  0.2612 -0.0008  0.1534
21267W        W22131  21.449  11.281   9.969  0.0729 -0.1221  0.2993
21268W        W22132  12.557  24.157  10.596 -0.1466 -0.1736  0.1091
21269W        W22133  20.554  27.840  26.906  0.0208  0.1910  0.2066
21270W        W22134   6.040  18.600   3.978 -0.1845  0.1143 -0.0037
21271W        W22135  14.285  27.342  27.350  0.0874 -0.4044  0.1093
21272W        W22136   7.882  23.412  19.047  0.1461  0.0065  0.1109
21273W        W22137   9.544   5.207  10.643  0.2396  0.0009  0.1978
21274W        W22138  10.954  20.839   5.054  0.1152 -0.0454  0.0817
21275W        W22139  28.383  19.202  29.032 -0.1927 -0.0848  0.0336
21276W        W22140  19.350   8.673  18.189 -0.0668  0.4068 -0.0802
21277W        W22141  17.898  14.839  22.809  0.0961 -0.2807 -0.1411
21278W        W22142  18.650  21.236  27.685  0.0752 -0.1994 -0.2259
21279W        W22143  18.014   2.060  11.426  0.2667 -0.1214 -0.0822
21280W        W22144  20.727  20.910   1.668 -0.0764  0.3414 -0.3010
21281W        W22145  28.505   6.815   6.647 -0.0571 -0.0098  0.0575
21282W        W22146   5.762  28.397  18.400 -0.1470 -0.1229  0.1054
21283W        W22147  21.889  19.445  10.970  0.1249 -0.1709 -0.1332
21284W        W22148  14.504  29.020   8.291 -0.1033  0.0985 -0.3125
21285W        W22149   2.745  26.002   2.591  0.2169  0.1128  0.1510
21286W        W22150  23.839  22.500   8.175 -0.1631 -0.0997 -0.0421
21287W        W22151  17.599  25.111  14.352  0.0261 -0.0559 -0.0292
21288W        W22152  22.678   3.294   6.004 -0.4390 -0.0609  0.3128
21289W        W22153   7.768   4.315  12.909 -0.3485  0.1529  0.0598
21290W        W22154   3.973  17.985  18.333  0.1727  0.2138 -0.2467
21291W        W22155   2.066  12.725  14.453 -0.0079 -0.0527  0.0754
21292W        W22156   1.208   8.536  16.713 -0.3867  0.0107 -0.0517
21293W        W22157  22.637   2.670  19.515  0.0681  0.2456  0.1215
21294W        W22158  23.241  26.787  19.481  0.0684  0.1294  0.0850
21295W        W22159  29.091   6.744  16.949  0.1455  0.2806 -0.0663
21296W        W22160   7.805  21.650  10.769  0.0223 -0.0966  0.0049
21297W        W22161  21.620  14.299   1.361  0.1837  0.1008 -0.4407
21298W        W22162  10.676   4.759   1.435  0.2240 -0.1727  0.0921
21299W        W22163  18.867  19.363  11.593 -0.1086  0.0788 -0.2506
21300W        W22164  18.586  13.120  24.191 -0.1089  0.2879  0.1714
21301W        W22165  18.367  28.495   4.176  0.2006 -0.0861  0.1188
21302W        W22166  13.437  27.586  13.110 -0.3732 -0.2149  0.0154
21303W        W22167  20.987  28.100  19.367 -0.0141 -0.0813  0.1496
21304W        W22168  22.214   7.799  12.815 -0.0881  0.0044 -0.0330
21305W        W22169  28.576   7.978   6.741  0.1377 -0.1521  0.0419
21306W        W22170  24.239  11.012   1.419 -0.0601  0.0762 -0.0926
21307W        W22171   9.655   5.564  27.925 -0.1265  0.1656  0.2409
21308W        W22172  22.761   7.838  18.215  0.0126 -0.1202  0.0759
21309W        W22173   1.865  28.020  21.161  0.0538 -0.1477 -0.0200
21310W        W22174  10.325  20.223  25.375 -0.0812  0.3437 -0.2133
21311W        W22175  15.021   5.974  10.037  0.0272  0.0369  0.1800
21312W        W22176  20.019  10.454   6.860 -0.0773 -0.0099  0.1716
21313W        W22177  28.761  17.172   7.210  0.0445 -0.0390  0.0391
21314W        W22178  17.142   9.716   2.994 -0.0123  0.1019 -0.0227
21315W        W22179  21.493  16.081   8.095 -0.3194  0.0796  0.2252
21316W        W22180  28.594   8.488   3.573 -0.2074 -0.0315 -0.0654
21317W        W22181  28.275   9.387  14.434  0.1276  0.3731 -0.2090
21318W        W22182  12.184  24.581  23.150  0.1613 -0.1371  0.0467
21319W        W22183  25.478  25.479  19.898 -0.1554 -0.4308 -0.1228
21320W        W22184  18.486   0.958  19.115 -0.0114 -0.0465  0.0300
21321W        W22185  15.817  26.590  14.694 -0.0465 -0.1223 -0.2083
21322W        W22186  22.505   9.969  13.340 -0.0765  0.3538  0.0185
21323W        W22187  20.366  27.381  27.055  0.1129  0.1970 -0.2732
21324W        W22188  17.277   7.996  11.139  0.1081  0.3473  0.1166
21325W        W22189  11.249  25.511  10.962 -0.0950  0.0176  0.2034
21326W        W22190   4.448  10.560  16.361  0.1777  0.2456  0.3236
21327W        W22191  24.953  15.755  10.438  0.0169 -0.2773 -0.1799
21328W        W22192  17.796  15.610  19.855 -0.0008 -0.0130  0.0430
21329W        W22193  17.675  22.973  11.060  0.0389  0.1237 -0.3004
21330W        W22194  28.637   5.001  17.181  0.1683  0.0329  0.3303
21331W        W22195  13.289  27.510  21.148 -0.1837  0.1970  0.1222
21332W        W22196  20.382   8.063   1.590  0.1303 -0.1762  0.0121
21333W        W22197  19.563  17.529   7.604 -0.3131 -0.1489 -0.0089
21334W        W22198  21.470  12.197  19.355 -0.0997 -0.1567  0.1383
21335W        W22199  11.752   6.755   8.472  0.2521 -0.1439 -0.1074
21336W        W22200  14.536  11.638  11.134  0.2339  0.0302  0.1674
21337W        W22201  19.124  13.832  11.398 -0.1535  0.2218  0.0873
21338W        W22202   3.849  28.026  17.760  0.0869 -0.0035  0.0207
21339W        W22203   4.922  18.813  22.015 -0.2655 -0.0367 -0.6655
21340W        W22204  25.352  23.936  22.638  0.0287 -0.3766 -0.0851
21341W        W22205  23.069   2.527  28.507 -0.2488 -0.2208  0.0632
21342W        W22206   3.896  18.607  20.834  0.1200  0.2975 -0.1374
21343W        W22207  26.849   9.147  15.869 -0.0919 -0.0833  0.1093
21344W        W22208  18.924  25.478  18.367  0.1886  0.0517 -0.0576
21345W        W22209   2.713  26.250  12.205 -0.0561 -0.1251  0.1385
21346W        W22210  27.609  27.011  26.404 -0.2814 -0.0246 -0.0728
21347W        W22211   3.150   1.003  22.942  0.1444 -0.0291 -0.0923
21348W        W22212  17.777  25.555  27.241 -0.0895  0.0908 -0.0193
21349W        W22213  29.140   7.258  21.106 -0.0194 -0.1649 -0.3672
21350W        W22214  24.271   3.059  27.774 -0.0277 -0.4129  0.2510
21351W        W22215   8.806   8.069  12.818 -0.1928  0.0408  0.0878
21352W        W22216   4.470   1.764  23.381  0.2919  0.2360 -0.1864
21353W        W22217  21.745  16.001  28.587 -0.0550  0.1667 -0.2505
21354W        W22218  21.117  16.232  25.610 -0.2639  0.1226  0.0538
21355W        W22219   1.784  23.526   5.364  0.2322 -0.1909 -0.0923
21356W        W22220   3.407  22.675  15.587  0.0840  0.1542 -0.1076
21357W        W22221  24.229   3.450  12.784  0.2891  0.0447 -0.0204
21358W        W22222  10.746   0.203  14.485 -0.0175  0.0797 -0.1781
21359W        W22223  28.485   1.785   7.832 -0.1289 -0.0428  0.3694
21360W        W22224  22.227   7.822  23.932 -0.0826 -0.0742  0.2033
21361W        W22225  28.591  27.473  19.214  0.1621 -0.3618 -0.0800
21362W        W22226  26.501  15.905  25.135 -0.1860 -0.0671 -0.1051
21363W        W22227   7.327  12.695  15.789 -0.0334  0.1162 -0.0122
21364W        W22228   1.964  24.174  17.558  0.1168  0.0210  0.3351
21365W        W22229   4.452  17.311  24.391 -0.2848  0.1649 -0.0002
21366W        W22230   8.528  20.959   2.865 -0.1169 -0.1082 -0.1438
21367W        W22231   4.337  19.611   1.126 -0.4127 -0.0603  0.2015
21368W        W22232   8.742  28.289   9.600 -0.1408  0.1154 -0.0259
21369W        W22233   7.700  11.435   6.599 -0.2013 -0.1529 -0.1261
21370W        W22234  16.168  27.646  22.571  0.0504  0.1274 -0.0650
21371W        W22235  25.052  15.892  24.420 -0.4824  0.1137  0.0173
21372W        W22236  16.765  11.165   6.919  0.0169 -0.0692 -0.1840
21373W        W22237   7.597  21.862  20.815  0.0423  0.0494 -0.0658
21374W        W22238  22.048  27.755  13.499  0.0680  0.1518  0.1726
21375W        W22239   1.859   3.152  12.871 -0.0723  0.4421 -0.0501
21376W        W22240  28.385  25.537   5.569 -0.0207 -0.3059 -0.1398
21377W        W22241  24.236  21.602  18.246 -0.0660 -0.0917  0.3491
21378W        W22242  13.072  27.307   2.928 -0.0247 -0.1619  0.0555
21379W        W22243   4.175   0.769  20.424 -0.2356 -0.4076 -0.1964
21380W        W22244  26.765  26.171  22.356 -0.0655 -0.1622 -0.2547
21381W        W22245  19.183  15.690  15.268 -0.0834 -0.3157 -0.0770
21382W        W22246  12.464   2.340  19.257  0.1495  0.0284  0.2372
21383W        W22247  24.971  28.007   0.400 -0.0994 -0.0288  0.1327
21384W        W22248  26.923  26.091  22.922  0.3810  0.1989  0.1365
21385W        W22249   0.557  14.330  12.393  0.2300  0.2198 -0.3785
21386W        W22250  21.685  28.946  14.162 -0.0812  0.1025  0.0611
21387W        W22251  11.513   1.247   0.063  0.1862  0.0479  0.0580
21388W        W22252  19.775   6.908   8.052  0.0448 -0.0349  0.1820
21389W        W22253   0.533  10.182  26.162  0.2156  0.3300 -0.0009
21390W        W22254   8.432  23.337  18.472 -0.1648 -0.1562 -0.0937
21391W        W22255  18.240   0.231  20.295 -0.2940 -0.2293  0.0668
21392W        W22256  20.677   5.534  13.189 -0.3687  0.3614 -0.2985
21393W        W22257  20.348  24.693  18.867 -0.0655  0.0274 -0.0420
21394W        W22258  12.748   1.052   6.444 -0.0651  0.0682  0.1105
21395W        W22259   3.097   5.025  20.772  0.1556 -0.0616  0.0567
21396W        W22260   4.100  13.327  24.153 -0.0844  0.0433 -0.0647
21397W        W22261  22.345  17.142  14.116 -0.1745 -0.1043 -0.3665
21398W        W22262  18.323  22.977   9.690 -0.0965 -0.0626  0.3104
21399W        W22263   3.503  14.113  16.340  0.2805  0.2162  0.0281
21400W        W22264   3.940  16.411  15.509 -0.2618 -0.0612  0.3956
21401W        W22265  15.915   3.473   0.659  0.0882 -0.1791  0.0568
21402W        W22266   4.681  16.901  22.520 -0.0323  0.2340 -0.1488
21403W        W22267   2.259  18.475   5.760  0.2930 -0.1071 -0.1237
21404W        W22268  26.568   7.904   0.568  0.2608 -0.4390 -0.1117
21405W        W22269   3.965  21.545  22.048 -0.1519 -0.1704 -0.2690
21406W        W22270  15.398  16.557   5.883  0.1856  0.3570 -0.4586
21407W        W22271  26.747  28.836  23.007  0.2205 -0.1520 -0.1218
21408W        W22272   9.369  11.415  12.382 -0.0985  0.1748 -0.2796
21409W        W22273   3.832  14.872  26.418 -0.0112 -0.3565  0.1154
21410W        W22274   4.081  23.664  28.408  0.3213  0.2752  0.0349
21411W        W22275  10.594   7.333  28.451 -0.1665  0.2051 -0.2768
21412W        W22276   9.939   0.471   5.774 -0.3339 -0.0343  0.1324
21413W        W22277  22.017  20.925  21.862  0.2099  0.2435  0.0244
21414W        W22278  27.258  19.788  26.013 -0.0909  0.3577  0.2032
21415W        W22279  29.126  24.097  27.064 -0.2068  0.3140  0.1251
21416W        W22280  23.774  22.258  11.672  0.1343 -0.0556  0.3718
21417W        W22281   5.790  24.647  17.795  0.2623 -0.5333 -0.2440
21418W        W22282   6.729  18.898  13.141  0.1834  0.0449  0.3924
21419W        W22283  25.398  15.087  23.014 -0.2485 -0.2838 -0.1434
21420W        W22284   2.044  24.652  24.482  0.1336  0.1913 -0.0226
21421W        W22285   9.340  14.002  19.319  0.2062 -0.0396  0.0195
21422W        W22286  10.967  20.925  15.377  0.1354  0.0994  0.2324
21423W        W22287   1.444   1.445  26.854  0.0216  0.1280  0.2060
21424W        W22288  28.376   2.218  20.114  0.3273  0.1162 -0.0436
21425W        W22289  23.902  25.582  17.739 -0.0616  0.1797  0.2587
21426W        W22290  23.380  21.505  28.258  0.3711 -0.0844 -0.1317
21427W        W22291  15.771  14.929   4.605  0.1236  0.0465 -0.1265
21428W        W22292   0.207  23.003  25.562  0.2262 -0.0743  0.0175
21429W        W22293   8.701  22.169  12.651 -0.0101 -0.0613  0.0156
21430W        W22294  26.390   8.900  17.329 -0.1864 -0.2339 -0.0458
21431W        W22295  19.595  15.227  17.872 -0.3460 -0.0637  0.0609
21432W        W22296  11.137  21.934  24.602 -0.1273  0.1234 -0.1100
21433W        W22297  10.017  11.550   3.728 -0.0883  0.0500  0.0196
21434W        W22298  13.177   1.916  23.856  0.2031  0.1202 -0.1978
21435W        W22299   1.909  21.399  24.339 -0.0513 -0.0005 -0.0299
21436W        W22300   5.362  27.298  22.456 -0.1838 -0.1263  0.0649
21437W        W22301   1.973  24.703  22.114  0.2164 -0.3559  0.0305
21438W        W22302  23.559   8.567   7.976 -0.0118  0.1894  0.1041
21439W        W22303   0.226   5.856  12.480  0.0899  0.1124  0.0515
21440W        W22304  20.103  18.021  22.278  0.2532  0.2670 -0.0909
21441W        W22305   4.550  24.373  19.328 -0.2445  0.1962 -0.0764
21442W        W22306   8.852  20.540   7.715 -0.0920  0.1816  0.0607
21443W        W22307   0.460  18.463  12.109 -0.0356 -0.0787  0.2651
21444W        W22308  18.914  11.507  18.145 -0.0003  0.0103 -0.0252
21445W        W22309   9.894  11.607  18.966 -0.2054  0.1175  0.1508
21446W        W22310   1.434   8.034   0.185  0.3254 -0.1021 -0.0191
21447W        W22311   3.036   6.095   9.964 -0.4022 -0.0748 -0.1500
21448W        W22312  10.455  28.944  25.032  0.0651  0.2050 -0.0398
21449W        W22313   0.542  19.425   5.113  0.0043  0.0477  0.1351
21450W        W22314   0.814  20.511   8.065 -0.0471  0.2652 -0.3014
21451W        W22315   8.946  17.440   3.334  0.1907 -0.1031 -0.0348
21452W        W22316  27.750   8.093  23.892 -0.0679  0.2261 -0.3837
21453W        W22317  25.539  15.490   7.314 -0.2384 -0.1828 -0.2597
21454W        W22318   7.156  24.089  14.685 -0.0000  0.1986 -0.1496
21455W        W22319  17.143  25.998   1.439 -0.0927  0.1408  0.3648
21456W        W22320  25.302  28.333  28.098 -0.1677  0.4223 -0.3745
21457W        W22321   5.684  19.481  12.821 -0.0540 -0.2529  0.0779
21458W        W22322  19.097  19.595  11.968  0.1312 -0.2042  0.2988
21459W        W22323   2.193  15.701  18.343 -0.0187 -0.4074 -0.2580
21460W        W22324   2.330  17.759  16.170 -0.1480 -0.1057 -0.1249
21461W        W22325   9.262  15.678   1.448  0.1892  0.0628 -0.0986
21462W        W22326  17.155  25.022   1.636  0.0558 -0.1136  0.0744
21463W        W22327  11.760  11.650  23.365 -0.0770 -0.1990 -0.1813
21464W        W22328  13.634  27.906  20.844 -0.4573 -0.0961  0.1204
21465W        W22329   8.435  12.186   5.202  0.1902  0.0638 -0.0258
21466W        W22330  27.568  24.848  11.577 -0.1076  0.4053 -0.1395
21467W        W22331  25.272   8.696  19.872  0.1467 -0.0100 -0.1523
21468W        W22332   8.057  14.631  21.688 -0.2487  0.0420 -0.0582
21469W        W22333   5.074   2.418  21.560  0.1239  0.2135 -0.0453
21470W        W22334   9.778  22.514  27.353 -0.0922  0.1025 -0.0895
21471W        W22335   1.221  18.056  27.830  0.1122  0.1354  0.2016
21472W        W22336   5.907   0.987  25.107 -0.0644  0.0046  0.1900
21473W        W22337  13.034  16.730  23.996 -0.0322 -0.2088  0.2027
21474W        W22338   1.032  20.066   3.491 -0.1080 -0.0995 -0.0011
21475W        W22339   0.031   4.001   0.462  0.2291  0.0325 -0.0705
21476W        W22340   9.153  11.818  14.719 -0.1229 -0.0078  0.3078
21477W        W22341   5.389  23.695  21.800  0.1541  0.1464 -0.0623
21478W        W22342  18.589  24.499  17.364  0.0615 -0.2548 -0.1354
21479W        W22343  27.030   6.820  16.069  0.1885  0.0314 -0.1110
21480W        W22344  22.458  12.252   3.794  0.2351 -0.1999  0.0748
21481W        W22345   2.574  21.209  12.531 -0.0666  0.2726 -0.0168
21482W        W22346  23.844  24.689  18.967 -0.0380  0.2534  0.2076
21483W        W22347   3.858   0.579  26.791  0.1165 -0.2691  0.1044
21484W        W22348  16.791  16.569  17.953  0.1773  0.1361 -0.1575
21485W        W22349  21.024   9.454   1.277  0.2419  0.0753  0.0627
21486W        W22350  25.236   6.853   0.029  0.1415  0.0180 -0.0111
21487W        W22351  28.689  16.915   0.132 -0.2142  0.1625  0.0824
21488W        W22352  26.650  13.219  25.004 -0.3857  0.0422 -0.0979
21489W        W22353  12.391  29.015  19.241 -0.0689  0.3592 -0.2989
21490W        W22354  18.796  23.968   7.713  0.0295 -0.0152  0.0389
21491W        W22355   3.655  10.241  11.556 -0.0329 -0.1599  0.0901
21492W        W22356   5.994  13.582  21.250  0.0363 -0.0059 -0.4107
21493W        W22357   2.536  26.688  17.288 -0.0921  0.2015  0.0738
21494W        W22358   4.140  16.763  27.276 -0.2073  0.1476  0.3126
21495W        W22359  24.841  11.922  27.847  0.1109  0.4400 -0.0909
21496W        W22360   0.313   8.843   8.988  0.0363  0.2357 -0.1985
21497W        W22361  18.331   0.086  22.486 -0.1974 -0.0230 -0.0640
21498W        W22362   3.951  10.138   7.066 -0.3147 -0.0292  0.1278
21499W        W22363   4.277  22.012  21.053 -0.1468  0.1756 -0.1160
21500W        W22364  20.407   2.971   4.565  0.0770 -0.2921  0.0163
21501W        W22365   4.719  18.471  26.240 -0.1202 -0.0014 -0.2206
21502W        W22366  15.601   7.670  25.065  0.0902 -0.3272  0.2146
21503W        W22367  20.934  10.079  21.256 -0.2593  0.1124  0.0155
21504W        W22368  21.871   5.242   2.078  0.0244  0.2488 -0.0139
21505W        W22369  12.023  26.979   1.462  0.2971 -0.0878  0.0654
21506W        W22370   1.777  25.572  24.628  0.0407 -0.0375 -0.3492
21507W        W22371  14.098  27.638  17.506  0.3109 -0.1133  0.0740
21508W        W22372   2.681   4.962  22.989 -0.1320  0.0859 -0.1683
21509W        W22373  11.879  24.338  18.861  0.1607  0.0503  0.2049
21510W        W22374   3.693  24.289  12.163  0.1691 -0.1818 -0.4382
21511W        W22375  21.357  27.681  28.135  0.3730  0.2329  0.0841
21512W        W22376   7.215  14.786   8.210 -0.4193 -0.0140  0.1565
21513W        W22377  26.486   0.870  15.515  0.1591  0.0480  0.2859
21514W        W22378  12.825  23.840  10.300  0.0120  0.2377  0.2000
21515W        W22379  18.773   3.067  14.319  0.1841 -0.0114  0.3471
21516W        W22380  26.949  22.813  28.532 -0.1135 -0.1618  0.2904
21517W        W22381  23.442  18.160  23.968  0.3409  0.0957  0.0637
21518W        W22382   7.228  26.612  26.654 -0.1700  0.2197  0.0344
21519W        W22383   7.738   1.819   4.891  0.0600 -0.0817 -0.0740
21520W        W22384  21.138  27.657  21.478  0.0506 -0.2306  0.3244
21521W        W22385  15.874  13.058   9.760 -0.0266 -0.1120  0.2397
21522W        W22386  21.779  17.727   0.529 -0.0968  0.2298 -0.0735
21523W        W22387   6.299  17.673   8.175 -0.3391 -0.1638  0.2764
21524W        W22388   6.032  21.805  19.766  0.0408 -0.1439 -0.1560
21525W        W22389  25.830  12.843  14.959  0.1319  0.2701  0.1566
21526W        W22390  17.853   9.845  24.452 -0.3139 -0.0875  0.0490
21527W        W22391   0.626   5.091  17.965  0.0173  0.0475  0.1246
21528W        W22392   9.740  22.404  16.054 -0.0082 -0.1035 -0.1609
21529W        W22393  11.074  20.093   5.065  0.0420 -0.1369  0.0214
21530W        W22394   2.119  19.244   6.005  0.0912 -0.4249  0.4233
21531W        W22395  20.821  17.206  20.106  0.0220  0.1287  0.2105
21532W        W22396   8.427  11.792  14.825  0.2310 -0.4521  0.0277
21533W        W22397   2.725  10.831   9.698 -0.1860 -0.1595  0.0540
21534W        W22398   6.617   3.941   4.317 -0.1845  0.0634  0.1282
21535W        W22399  21.142  18.399   5.881 -0.1093  0.1259  0.0205
21536W        W22400   4.455  28.239   1.237  0.2921 -0.0799 -0.0169
21537W        W22401  13.845  17.282   4.314  0.0877 -0.2292 -0.0556
21538W        W22402  21.666  19.961   1.388  0.2932 -0.2013  0.0221
21539W        W22403  19.401   3.486   6.490  0.0538  0.0577  0.0298
21540W        W22404  26.942  18.330  11.672  0.0074 -0.2271 -0.0898
21541W        W22405   8.440  24.551  21.140  0.0039 -0.1908  0.1434
21542W        W22406  17.577  18.377  13.180 -0.0964  0.0961  0.3774
21543W        W22407  21.866  27.122  14.928  0.1819 -0.0625  0.0500
21544W        W22408   2.646   6.305  10.242 -0.0317  0.1240  0.2678
21545W        W22409   5.844  20.977  17.895  0.2486 -0.1299 -0.1052
21546W        W22410  17.266  25.914  13.141  0.0266  0.0847 -0.1364
21547W        W22411  15.399  13.850   2.589 -0.1891  0.0988 -0.0044
21548W        W22412   2.170  26.595  21.259  0.2282  0.1471  0.1217
21549W        W22413   4.745  21.796  15.895  0.2151  0.0070 -0.1170
21550W        W22414   3.016  22.865  23.401  0.1214  0.1328  0.0947
21551W        W22415  17.525   6.388   5.082 -0.4097 -0.2564 -0.1737
21552W        W22416  16.186  11.892  26.293  0.2086 -0.0874  0.1964
21553W        W22417  21.645   0.253   4.407  0.0413  0.3262  0.0116
21554W        W22418   5.892  12.359  20.742 -0.0271  0.2253 -0.1176
21555W        W22419   2.912  18.617  11.933 -0.1482 -0.0453  0.0355
21556W        W22420   7.694  15.424  22.289 -0.0348 -0.0384  0.1049
21557W        W22421   1.263  25.184  26.481 -0.2199 -0.1175  0.2861
21558W        W22422   0.552  10.644  23.105  0.2172  0.4163  0.2981
21559W        W22423   5.153  16.909  19.102 -0.2711 -0.0462  0.2416
21560W        W22424  19.853   3.879  12.141 -0.2737  0.0270 -0.4508
21561W        W22425  21.197  22.248   5.068 -0.2626  0.0732  0.2554
21562W        W22426   9.521  26.579   2.636 -0.1786  0.1631  0.3160
21563W        W22427  11.991  19.163  21.241 -0.2173  0.1530 -0.0074
21564W        W22428  11.369  22.996   7.563  0.1123  0.1047 -0.0262
21565W        W22429  10.568  18.398  13.624  0.0488  0.0849  0.1483
21566W        W22430   3.720  13.077   1.671 -0.0082 -0.2501 -0.1121
21567W        W22431  28.489  29.039   2.375 -0.1133  0.1132 -0.3701
21568W        W22432  11.579  20.314  20.434 -0.1189 -0.0410 -0.3018
21569W        W22433   7.194  22.415  15.463 -0.0923 -0.2176  0.0629
21570W        W22434  28.730   3.804  17.015 -0.0749 -0.1658  0.2359
21571W        W22435   5.453  20.963  29.104 -0.2169 -0.2875  0.0980
21572W        W22436   6.825  16.211   3.505 -0.0637  0.2224 -0.2421
21573W        W22437  14.846  12.812  16.369 -0.2986  0.0259 -0.0388
21574W        W22438  15.220  12.486   3.071  0.0849  0.0248 -0.1885
21575W        W22439  19.186  10.480  14.949 -0.1247  0.0871  0.1746
21576W        W22440  25.453  18.252  26.775  0.1251 -0.0027 -0.2498
21577W        W22441  24.469  16.990   8.881 -0.0362  0.1109 -0.0234
21578W        W22442  11.632  21.444   3.346 -0.0761  0.4644 -0.1747
21579W        W22443   2.095  17.368  16.673 -0.1567  0.2087  0.1210
21580W        W22444  18.317  24.050  14.671 -0.0414  0.1240 -0.2311
21581W        W22445  27.987  22.892  19.628 -0.3072 -0.1458 -0.1215
21582W        W22446  23.480  18.168  11.182  0.0423 -0.1188 -0.0227
21583W        W22447   1.318  20.953  11.581 -0.0203  0.2871  0.0532
21584W        W22448  18.300  11.841  21.542 -0.0747  0.1304  0.1015
21585W        W22449  22.988   8.070  24.897 -0.1735  0.0591 -0.1797
21586W        W22450  26.674   1.534  21.390  0.1185 -0.0457  0.0582
21587W        W22451  15.449   9.831   2.380  0.2844 -0.3135 -0.0392
21588W        W22452   3.486  28.671  16.473  0.1453  0.2081  0.3433
21589W        W22453  27.789   8.053  18.753  0.1005  0.0171 -0.2805
21590W        W22454  27.161  21.545   4.883 -0.1385 -0.0832 -0.0418
21591W        W22455  10.616  28.783  22.518  0.0041 -0.3621 -0.0665
21592W        W22456  17.789   3.053  17.476 -0.0063 -0.5321 -0.0336
21593W        W22457  18.320  12.867  25.973 -0.2975  0.0662 -0.0092
21594W        W22458   3.675   5.452   7.857 -0.1213  0.1712 -0.0657
21595W        W22459   9.345  21.745  19.995  0.0708  0.2291 -0.0037
21596W        W22460  23.101  17.816   1.037  0.0323  0.0863 -0.0633
21597W        W22461   7.654  18.156   3.904 -0.3093  0.1304  0.1073
21598W        W22462  27.898  27.348  26.579  0.2819  0.0690 -0.2308
21599W        W22463  13.007  21.053  22.512 -0.3728  0.0186  0.3471
21600W        W22464  15.753  27.233  23.333  0.0070  0.1237  0.0719
21601W        W22465  21.141   5.687   0.642 -0.0663  0.3549  0.1844
21602W        W22466  11.117   1.001   4.104 -0.0446 -0.1324  0.0641
21603W        W22467  13.473   2.758  23.858 -0.2592 -0.1738  0.1170
21604W        W22468   5.651  18.893  19.819 -0.0794 -0.1266  0.0863
21605W        W22469  22.503  13.201  23.766 -0.1154 -0.0800 -0.4053
21606W        W22470  26.919   6.103   3.777 -0.1361 -0.2338  0.0750
21607W        W22471   6.694  19.784  10.909 -0.1692  0.0737 -0.3691
21608W        W22472  20.500  26.952   9.944 -0.0139 -0.1266 -0.1522
21609W        W22473  18.834   7.223   9.545 -0.2796  0.2629 -0.2589
21610W        W22474  13.624  22.941   6.080 -0.0610  0.1045  0.1028
21611W        W22475  22.696  21.976  23.537  0.0517 -0.1453  0.3663
21612W        W22476  12.566  25.936  25.412 -0.0849  0.2798  0.1151
21613W        W22477  11.036  16.550  17.013 -0.0771  0.4043  0.2794
21614W        W22478  17.796   4.275  24.594  0.2342 -0.5948  0.0663
21615W        W22479   3.298  17.971   3.808 -0.0339  0.1795 -0.0753
21616W        W22480   2.344  11.679  27.099 -0.2378  0.0912  0.0260
21617W        W22481  28.678  21.013  13.425 -0.2703  0.0114  0.0038
21618W        W22482   7.075  17.702  16.125 -0.0925  0.0175 -0.2722
21619W        W22483   2.368   7.179  24.268  0.0915  0.4361  0.0540
21620W        W22484  25.455   9.833   5.332  0.1363  0.1528 -0.0106
21621W        W22485  13.586  27.132  14.794  0.2266 -0.1016  0.0263
21622W        W22486  19.406  14.184  11.260  0.0852 -0.3168 -0.0316
21623W        W22487   4.215  14.651  22.870  0.1451  0.0151  0.1854
21624W        W22488  28.945  22.362  17.692 -0.0873 -0.3233  0.0214
21625W        W22489   3.939  26.848  19.489 -0.1088  0.1120  0.2380
21626W        W22490  27.017  16.683  27.323  0.3539 -0.1265 -0.1806
21627W        W22491   9.959   3.926  11.806  0.0707 -0.0582 -0.3097
21628W        W22492  10.324  27.188  27.444  0.0699  0.0786  0.1250
21629W        W22493  20.043  22.269  18.000 -0.1488 -0.0382  0.2070
21630W        W22494  18.231  16.545   3.473 -0.1080  0.2662  0.1283
21631W        W22495  18.019  11.462  19.261 -0.4085  0.1678 -0.0701
21632W        W22496   9.453  23.188  11.328 -0.2086 -0.2964 -0.1786
21633W        W22497  27.823  22.781  20.540  0.0323  0.0838 -0.1094
21634W        W22498   2.865  18.709   6.306  0.2563 -0.0492  0.0507
21635W        W22499   8.962  28.729   9.470  0.2381  0.4819 -0.1283
21636W        W22500   4.817  15.509  18.338  0.0418  0.2845  0.1995
21637W        W22501  11.856  15.441  23.619 -0.1623  0.0368  0.2959
21638W        W22502  26.687   0.984  27.118  0.4087  0.0723 -0.2442
21639W        W22503  14.824   6.555  11.118  0.0625 -0.0069  0.0592
21640W        W22504  27.130   9.848   5.105 -0.0745 -0.0463 -0.0634
21641W        W22505  18.537  15.061  17.408  0.2837 -0.0323 -0.0111
21642W        W22506  13.580  17.610  13.883 -0.1266 -0.2535 -0.3109
21643W        W22507   5.999  26.926  15.370 -0.1575  0.2259  0.1293
21644W        W22508   5.004  23.872   2.875 -0.0747  0.3175 -0.0359
21645W        W22509   3.228  24.294  18.230  0.4916 -0.0338 -0.1025
21646W        W22510  21.200   0.925  12.860 -0.0015 -0.0753 -0.0687
21647W        W22511  22.199  20.982  24.563 -0.2570  0.0739  0.0164
21648W        W22512  22.591  27.879  20.664  0.1280  0.2306 -0.2874
21649W        W22513  27.856  24.889  23.092 -0.1500  0.2103  0.1648
21650W        W22514  15.610   6.346  24.738  0.0533  0.3116  0.1305
21651W        W22515  23.923   7.101  20.831 -0.4361  0.4188  0.0286
21652W        W22516  16.456  23.404   0.045  0.4925 -0.0088 -0.1121
21653W        W22517   7.609   0.864   6.734  0.1443  0.0802 -0.1160
21654W        W22518  22.868  14.431  24.066  0.0807  0.2021  0.1633
21655W        W22519  21.050  16.120   4.207  0.3855 -0.0226  0.2092
21656W        W22520   6.723  19.452  22.317  0.0143 -0.0676  0.2709
21657W        W22521  11.204   8.646  26.554  0.1433 -0.0942 -0.0498
21658W        W22522  26.283  19.932  11.930  0.0583 -0.1200  0.1411
21659W        W22523  27.359  13.207  10.064  0.0728 -0.1722 -0.2664
21660W        W22524   2.343   2.204  13.653 -0.1463  0.0175  0.1169
21661W        W22525  11.228  14.579  17.784 -0.1274  0.1173  0.0397
21662W        W22526  21.591  15.700  22.742  0.1071 -0.1200 -0.1493
21663W        W22527   1.641  15.158   5.470  0.0592  0.0282  0.2093
21664W        W22528   1.621   0.357  19.232  0.2451  0.1472 -0.2572
21665W        W22529  11.928  11.196  22.816  0.2149  0.1944  0.0714
21666W        W22530  21.680   6.154  25.217  0.0034 -0.4095  0.0148
21667W        W22531   5.718  12.378   5.017 -0.1371 -0.1037  0.4040
21668W        W22532  20.100   9.842  28.839  0.0901 -0.1977 -0.2138
21669W        W22533  25.532  16.235  10.070  0.0452 -0.1388 -0.0330
21670W        W22534  28.192  22.740  23.521  0.0979 -0.5821 -0.0394
21671W        W22535  10.427   0.016   9.348 -0.1750 -0.1373 -0.1099
21672W        W22536  25.104   4.332  10.443  0.1552  0.2799  0.0127
21673W        W22537   9.466  26.030  22.340  0.0641 -0.1478  0.0257
21674W        W22538  21.423   8.823  16.363  0.0639  0.4074 -0.0184
21675W        W22539  13.913  12.268  10.639 -0.0202 -0.0841 -0.0747
21676W        W22540  15.953   7.233  11.868 -0.1385 -0.1595  0.0123
21677W        W22541  10.616  24.368  23.378 -0.1178 -0.1590 -0.1085
21678W        W22542  12.913  16.365   1.344  0.1658  0.1061  0.1927
21679W        W22543   7.806  23.943  18.155  0.2547  0.0603 -0.2091
21680W        W22544   3.075  20.805  11.423  0.0134  0.3772 -0.0024
21681W        W22545  16.063  16.752  16.164 -0.1127  0.0413  0.1514
21682W        W22546  26.824  21.589   2.070  0.0286  0.1843 -0.2242
21683W        W22547  23.931  26.667   9.025 -0.0134  0.1193  0.1697
21684W        W22548  12.177  17.907   3.242 -0.0564  0.3122  0.3396
21685W        W22549   3.156  25.565  14.332  0.0191 -0.2317 -0.4627
21686W        W22550  21.516  14.721  14.136  0.0342 -0.0183 -0.0814
21687W        W22551  15.094  16.687  25.605 -0.0862 -0.0296 -0.2630
21688W        W22552   1.862  16.110   1.001 -0.1818 -0.0643 -0.1396
21689W        W22553   4.715  24.747   2.862  0.1891  0.0812  0.0536
21690W        W22554  23.092  25.100  23.462 -0.1944 -0.1491  0.2041
21691W        W22555  23.905   5.916  22.368 -0.0802  0.1499 -0.0617
21692W        W22556   1.402   6.041  16.557 -0.1495  0.0295 -0.1489
21693W        W22557  16.678   2.269  22.161  0.1138  0.2208 -0.0868
21694W        W22558  12.985  16.506   1.823 -0.1799 -0.0159  0.1559
21695W        W22559   6.605  18.565  19.361  0.0880 -0.0132  0.1387
21696W        W22560  26.594  15.711  27.755  0.0558 -0.0859  0.0875
21697W        W22561   8.377   4.872   6.156 -0.2153 -0.0566 -0.1031
21698W        W22562  28.759  13.505   0.031 -0.0982  0.2025 -0.2047
21699W        W22563  18.599   5.334   5.970  0.0867  0.1727  0.0648
21700W        W22564   3.291  22.370  19.752 -0.2289  0.0699 -0.0101
21701W        W22565   3.029  10.732  14.592 -0.1034  0.2126  0.1855
21702W        W22566  14.941  27.242  16.998  0.0001  0.1366 -0.0089
21703W        W22567  15.889  27.645   8.917  0.2268  0.2692 -0.0926
21704W        W22568   8.114   4.354   1.863 -0.0357 -0.4869 -0.0119
21705W        W22569   1.985   8.181  21.340  0.2401  0.0581  0.0846
21706W        W22570  18.125   9.789  14.985  0.1370 -0.3214  0.1928
21707W        W22571  19.788  26.398   5.500 -0.2626 -0.0757  0.0947
21708W        W22572  26.308   4.747   2.186  0.1698  0.0671  0.0457
21709W        W22573   5.530   1.819   7.218  0.0228 -0.0233 -0.1190
21710W        W22574  26.667   0.248   2.761 -0.0316  0.0316 -0.1121
21711W        W22575   5.466   9.349  20.756 -0.0504 -0.0492  0.1112
21712W        W22576   6.109   0.487  20.450  0.1497 -0.0906  0.1664
21713W        W22577   6.530  19.202  24.898 -0.1436 -0.1868  0.1576
21714W        W22578   0.351  20.159   2.111  0.0774  0.2258  0.2574
21715W        W22579  25.823   4.711  22.672 -0.2400  0.2556 -0.1089
21716W        W22580   5.415  18.381  15.503 -0.0477  0.0091 -0.0369
21717W        W22581   8.054  23.362  17.460  0.1081 -0.2625  0.2562
21718W        W22582   8.102  17.802  26.325 -0.1298  0.0406  0.2110
21719W        W22583  16.644   4.490   6.331 -0.2823  0.1521 -0.0077
21720W        W22584  21.784  23.844   9.958 -0.0882 -0.0771  0.0541
21721W        W22585  27.192  17.813  16.199 -0.2757  0.4376  0.1608
21722W        W22586   2.752  11.808   0.885 -0.2751 -0.1778 -0.0165
21723W        W22587   7.838   1.805  17.641 -0.2512  0.1515  0.0756
21724W        W22588  20.511  22.127  20.987 -0.2910  0.0937 -0.2103
21725W        W22589  28.204   7.441  27.646  0.1832 -0.0950  0.0065
21726W        W22590  17.833   8.237   4.941 -0.0849 -0.1023 -0.2990
21727W        W22591  27.802   9.343  17.493 -0.1148 -0.1155 -0.1101
21728W        W22592   0.105  25.870   0.238 -0.1647  0.0829  0.2847
21729W        W22593  24.380  27.160   4.892  0.2024 -0.1608 -0.1980
21730W        W22594  20.888   0.475  14.502  0.0994  0.1392 -0.0747
21731W        W22595  17.871   3.161  15.602  0.0145  0.1331 -0.1895
21732W        W22596   8.661  22.204  22.105  0.0770  0.3093  0.1709
21733W        W22597   0.280   7.463  14.373  0.0818  0.3180 -0.0306
21734W        W22598   9.886  24.948  21.336  0.1464  0.1858  0.2805
21735W        W22599  23.406  17.183   1.881 -0.1672  0.1007  0.0865
21736W        W22600   5.222  20.499   6.045  0.2460 -0.2089 -0.2303
21737W        W22601   8.019  24.972  15.966  0.1394  0.1243 -0.0967
21738W        W22602  20.890  18.834  13.373 -0.2216 -0.0723 -0.2367
21739W        W22603   4.681  21.429   8.466 -0.3831 -0.2980  0.0944
21740W        W22604   1.587  28.698  28.968  0.0965  0.2368  0.0126
21741W        W22605   7.559  27.405   7.564  0.0064 -0.0504 -0.2444
21742W        W22606  10.288  12.169  26.323  0.0323  0.0238 -0.0538
21743W        W22607  21.297  24.147  15.004 -0.3101 -0.0127 -0.1491
21744W        W22608  13.880  25.672  20.777  0.0083 -0.3934 -0.0491
21745W        W22609  23.619  26.413  18.800  0.1643  0.1539  0.1710
21746W        W22610  12.131  20.838  18.717  0.0664  0.2893 -0.0535
21747W        W22611   2.487   1.057   8.983 -0.1179 -0.0977  0.1296
21748W        W22612   2.488  17.250  23.087 -0.1781 -0.0067  0.0017
21749W        W22613  20.766  21.104   5.652 -0.4315 -0.2780  0.0896
21750W        W22614  15.798  29.087  25.708 -0.2031 -0.1147  0.2149
21751W        W22615   1.828   5.200  22.695  0.1445  0.0641  0.2831
21752W        W22616   5.543  11.390  11.301 -0.2328  0.0019  0.1806
21753W        W22617  27.332   1.079  16.533  0.1107 -0.3525  0.1362
21754W        W22618  15.233  19.420   5.155  0.2422  0.3714 -0.0570
21755W        W22619   3.510  20.396  10.141  0.1314 -0.1084 -0.1208
21756W        W22620  10.129  20.470  10.373 -0.0626  0.1748  0.0304
21757W        W22621   6.026   5.353   9.341 -0.1801 -0.1208 -0.0799
21758W        W22622  22.417   4.968  20.927  0.0818 -0.0161  0.0044
21759W        W22623   5.281  11.777  21.682 -0.3489  0.4290  0.0916
21760W        W22624   9.374  12.441  23.334  0.2598 -0.0778 -0.2715
21761W        W22625  25.486  14.517  10.499  0.1696  0.1953  0.0179
21762W        W22626  22.876  27.973  24.808 -0.0545 -0.1646  0.0968
21763W        W22627  26.069  22.690  17.824 -0.0516 -0.1692 -0.0199
21764W        W22628  27.346  23.114  15.323 -0.1425 -0.3280 -0.1818
21765W        W22629   0.756  23.555  23.378 -0.1705  0.3907 -0.2227
21766W        W22630  20.823  28.149  25.700  0.0809  0.2520  0.1323
21767W        W22631   3.313  15.594   8.851 -0.1057 -0.1058 -0.1215
21768W        W22632  26.665  25.715   6.075  0.1626  0.0581 -0.1786
21769W        W22633   4.627  25.171  28.630  0.1280 -0.3653  0.0546
21770W        W22634   8.598   9.204   9.435 -0.0315 -0.2812  0.0056
21771W        W22635   7.901  22.015  21.181 -0.0643  0.1754 -0.1171
21772W        W22636   6.223   0.081  23.915  0.0227  0.0349 -0.0789
21773W        W22637  14.494  26.068   4.704  0.0106  0.1941 -0.1268
21774W        W22638  28.525  16.325  18.073  0.1001 -0.3741 -0.1706
21775W        W22639  16.754  23.578   8.483 -0.3371  0.2941 -0.1081
21776W        W22640  28.028   2.879  11.845 -0.0356  0.0306 -0.1903
21777W        W22641  26.221  24.331   5.923 -0.0463 -0.0378  0.1633
21778W        W22642   0.647  11.077   5.198  0.0614  0.3139  0.0022
21779W        W22643  20.748   4.536  23.219  0.3533  0.0333 -0.1634
21780W        W22644   6.632  28.573  19.493  0.2783  0.0522 -0.0047
21781W        W22645   6.061  20.184  17.707 -0.2308 -0.0619  0.0359
21782W        W22646   5.196  23.927  13.185  0.1485 -0.0187  0.2534
21783W        W22647  18.912  15.600  28.183  0.2474 -0.1062 -0.1269
21784W        W22648  20.178   6.410  27.877 -0.2172  0.0632 -0.0553
21785W        W22649   7.361  10.527  16.783  0.2783  0.2368  0.1293
21786W        W22650   0.454  24.050   6.738  0.0344 -0.1033 -0.1421
21787W        W22651   1.422   7.528   0.108 -0.3767  0.0005 -0.3907
21788W        W22652  23.816   4.607  23.538 -0.0396  0.2017  0.0415
21789W        W22653  27.614  26.508  22.043  0.0914  0.0743  0.1023
21790W        W22654  27.541  23.932  22.503 -0.4741 -0.2968 -0.0055
21791W        W22655  11.814  21.020   8.867  0.1296 -0.0269 -0.3638
21792W        W22656  28.449   9.892  28.043 -0.0898  0.2318  0.4137
21793W        W22657  27.950   9.547  21.994 -0.2496  0.1944  0.1711
21794W        W22658   4.557   4.392  18.162 -0.1597 -0.2528  0.0912
21795W        W22659   2.191  15.777   6.307 -0.2405 -0.0297 -0.0182
21796W        W22660  20.220  10.196   4.108 -0.0483  0.1094  0.1277
21797W        W22661   1.329   4.902   7.690  0.0189  0.0236 -0.1219
21798W        W22662  15.673  20.466  28.458  0.2970 -0.0904  0.1800
21799W        W22663  21.966  27.873  16.084 -0.1861 -0.0263 -0.5063
21800W        W22664  28.106  21.666  18.666  0.1680 -0.0383 -0.0689
21801W        W22665   4.640  23.622  17.963  0.2945  0.0359  0.0508
21802W        W22666   7.012   8.692  20.103 -0.1151 -0.0658  0.1227
21803W        W22667  24.962  23.958  28.835 -0.1485 -0.1802  0.3346
21804W        W22668  26.926  18.273  19.424  0.0449 -0.0872 -0.0546
21805W        W22669   1.497   1.662  21.653  0.0056  0.0993 -0.0647
21806W        W22670   0.379  22.588   0.174 -0.2369 -0.3715 -0.2865
21807W        W22671   3.236  16.314  25.744 -0.0677  0.1797  0.2045
21808W        W22672  14.746  22.008   2.486  0.3108  0.1261  0.0565
21809W        W22673   9.797  21.581  13.173  0.0961 -0.1673  0.0847
21810W        W22674   3.096  17.817  12.808  0.2793 -0.1197  0.0621
21811W        W22675   5.414   0.657  27.117  0.0231 -0.0243 -0.1682
21812W        W22676   7.611  14.174  25.200 -0.1456 -0.0391  0.3202
21813W        W22677   7.287  12.930  14.275 -0.0005 -0.3701 -0.0199
21814W        W22678   9.655  20.693  15.621 -0.3061 -0.0042  0.0054
21815W        W22679   9.848  11.043   2.295  0.1505 -0.1218 -0.0046
21816W        W22680  28.983   5.323  27.892 -0.0144 -0.0125  0.1224
21817W        W22681   6.194  22.927   6.492  0.1580 -0.1819  0.2004
21818W        W22682   9.573  15.669  15.388 -0.2513  0.2060  0.1169
21819W        W22683  27.034  23.197  28.194  0.0671 -0.1106 -0.2068
21820W        W22684  17.048  18.257  24.556  0.1533  0.4790  0.0469
21821W        W22685  22.270  18.012   5.711  0.0446  0.2763  0.2410
21822W        W22686   1.015  28.624   5.008  0.1651 -0.2830 -0.0192
21823W        W22687  25.771  25.371  23.518  0.2532 -0.1216 -0.1139
21824W        W22688   1.164  21.422  11.363 -0.3087 -0.1183  0.3715
21825W        W22689  10.237  27.072   0.808 -0.1605  0.1295  0.2007
21826W        W22690   1.036   4.442  24.788  0.2081 -0.0783 -0.0391
21827W        W22691   2.816   9.989   3.354 -0.0849 -0.0512  0.0640
21828W        W22692   0.169   0.362  23.607 -0.2849  0.3943 -0.1956
21829W        W22693  28.470   0.514  23.852 -0.1454 -0.4344 -0.2621
21830W        W22694  26.195  26.629   1.947 -0.3348 -0.0991 -0.0372
21831W        W22695  21.236  23.319  19.875 -0.2351 -0.0811  0.0339
21832W        W22696  10.135  19.604   3.614  0.1813  0.2037  0.0318
21833W        W22697  16.070   8.608  21.712 -0.2452 -0.0233  0.2116
21834W        W22698  18.856   2.793   2.412  0.0495  0.1536 -0.1899
21835W        W22699  22.583  21.732  26.417 -0.0960 -0.0318 -0.1593
21836W        W22700  15.667  23.578  13.592 -0.3021 -0.0527  0.0144
21837W        W22701  25.581  11.555   2.746  0.1203 -0.2559 -0.1889
21838W        W22702  13.809  14.448  22.915  0.0555  0.1896  0.1055
21839W        W22703  27.653  22.186  10.893  0.1908  0.1751 -0.3764
21840W        W22704  24.784  24.696   4.468 -0.1869  0.0016 -0.0096
21841W        W22705  15.480  22.596  12.949 -0.0424  0.0769  0.1037
21842W        W22706   9.376  17.081  17.028 -0.3428  0.2050  0.0623
21843W        W22707  28.521  26.256  12.306 -0.0679  0.0828 -0.1365
21844W        W22708  27.242  27.281  10.673  0.2104  0.0152 -0.1745
21845W        W22709  26.912  25.084  21.033 -0.1281  0.1598 -0.2151
21846W        W22710  23.886   5.767  28.975  0.0340  0.1946 -0.1861
21847W        W22711   3.643  13.612  17.276 -0.1265  0.0158  0.3208
21848W        W22712   6.617  13.041  26.089 -0.0060  0.1197 -0.0918
21849W        W22713   3.712  19.926   7.455  0.3955 -0.1883  0.1196
21850W        W22714   5.927  11.738   2.500  0.0887  0.2672  0.3897
21851W        W22715   3.192   5.591  19.034 -0.1584  0.3266  0.1776
21852W        W22716  23.671   0.983  11.806 -0.1823 -0.2498 -0.5316
21853W        W22717   5.530  16.686  12.732  0.1078  0.2367 -0.0509
21854W        W22718  18.758  12.766  19.608 -0.0386 -0.1293  0.0508
21855W        W22719  28.020  14.360  20.390  0.2695 -0.1192 -0.0153
21856W        W22720  20.607  13.198   8.357 -0.0870 -0.0328  0.0734
21857W        W22721  13.457  23.872  26.005 -0.4089 -0.3997  0.0447
21858W        W22722  23.065  25.202  12.720  0.0986 -0.0885 -0.0497
21859W        W22723  23.154   4.715  17.245 -0.0338  0.0233 -0.1967
21860W        W22724   3.531  25.083  23.557 -0.3571 -0.1490 -0.0020
21861W        W22725  27.685  16.516  27.777 -0.0182  0.1001 -0.0666
21862W        W22726  23.891  22.640  18.194  0.1292 -0.2736 -0.0651
21863W        W22727  12.845  23.574  19.806  0.0611 -0.3286  0.0962
21864W        W22728   3.705  21.845   0.908 -0.3034  0.1763 -0.0389
21865W        W22729   2.552  20.923  27.436  0.1235 -0.1496  0.2998
21866W        W22730   3.733  19.698  23.014 -0.0890 -0.1377  0.2644
21867W        W22731   5.400  11.223  18.666  0.0328  0.1201  0.5472
21868W        W22732  20.236  24.734   5.227 -0.1353 -0.0782  0.0517
21869W        W22733  23.636  17.502  18.653 -0.0501  0.0730 -0.0495
21870W        W22734  18.881  14.579  22.670  0.2395  0.0052  0.3083
21871W        W22735  19.925  16.776   5.116 -0.1195 -0.0373 -0.2980
21872W        W22736  26.074  25.785  19.982  0.3208 -0.2389  0.0913
21873W        W22737  28.246  23.488   9.771  0.5263 -0.1164 -0.1628
21874W        W22738   7.032  12.778   9.189  0.2391 -0.0436  0.0733
21875W        W22739  28.384  23.196   3.927 -0.1434  0.0622 -0.2575
21876W        W22740  19.129   0.791  28.760  0.1988  0.1206 -0.0508
21877W        W22741  22.028  17.056   4.920  0.0279 -0.3485 -0.0538
21878W        W22742  22.309  12.266  25.613 -0.0175 -0.0521  0.0297
21879W        W22743  20.797  21.182  10.108 -0.2482  0.1255  0.0921
21880W        W22744  21.035  20.825  14.950  0.0329 -0.1314  0.0365
21881W        W22745  21.229  25.069  22.775 -0.1860 -0.2641 -0.0069
21882W        W22746  21.040   0.781  25.994  0.1871 -0.3484  0.0617
21883W        W22747  10.171  28.120  20.694  0.1833  0.1149 -0.0213
21884W        W22748   1.886   9.384  13.034  0.0183  0.0278  0.0436
21885W        W22749   2.041  26.605  10.301  0.1244  0.0564 -0.0437
21886W        W22750  21.151  27.691  22.973 -0.1703  0.2380  0.0611
21887W        W22751   2.457   9.689   1.459  0.0932  0.1014 -0.0682
21888W        W22752  11.751  11.592   3.886 -0.0509 -0.0844 -0.0240
21889W        W22753  18.105   8.039  26.780  0.0123 -0.0231 -0.0048
21890W        W22754  21.146  25.774   5.550  0.0189 -0.2533  0.4554
21891W        W22755  20.644  18.818   0.696  0.0343  0.4048  0.0852
21892W        W22756  11.740  15.631  10.376  0.1904  0.0824 -0.1275
21893W        W22757   0.644   2.234  21.253 -0.1195  0.4767 -0.1122
21894W        W22758  14.412  12.823  16.121 -0.0040 -0.1821 -0.3197
21895W        W22759  27.110  19.258  24.752 -0.3514 -0.1510  0.0306
21896W        W22760  17.351   0.283  25.764 -0.1864  0.0928  0.0894
21897W        W22761   9.537  13.260   4.817  0.1436 -0.1010 -0.0523
21898W        W22762   8.715  19.521  11.374  0.0871  0.1085  0.2214
21899W        W22763   9.950  12.433   3.064  0.3843  0.3087 -0.2494
21900W        W22764  24.842  23.919  18.677  0.0986 -0.0899  0.1230
21901W        W22765  13.240  28.617   0.635 -0.0277 -0.4119 -0.0481
21902W        W22766   0.054   2.049  25.867  0.2679 -0.0900 -0.1630
21903W        W22767   8.607  20.682  27.947  0.2725  0.1258  0.0455
21904W        W22768  22.536  14.978   6.838  0.1808 -0.5255  0.2869
21905W        W22769  23.065   2.087  10.436  0.0406 -0.2122  0.2215
21906W        W22770   5.822   4.888  28.152 -0.1299 -0.0910  0.1486
21907W        W22771   4.967  10.807  23.093 -0.2544  0.1305  0.0205
21908W        W22772  25.311  28.197   3.849  0.0111 -0.1210 -0.0529
21909W        W22773  19.190  20.150  12.427  0.0420 -0.0901  0.0539
21910W        W22774  18.557  27.101  28.722 -0.1001  0.1962  0.1588
21911W        W22775   4.571   0.076  24.169  0.2775 -0.1141  0.0095
21912W        W22776   0.255  16.511  24.986 -0.0966  0.1734  0.0287
21913W        W22777  25.751  28.529  13.450 -0.1786  0.4412  0.5021
21914W        W22778  27.526  25.325  18.826 -0.1292 -0.0744 -0.0389
21915W        W22779  11.654  14.185  24.234  0.0031  0.1464  0.1225
21916W        W22780   0.568   1.290  28.388 -0.0698 -0.0026  0.1884
21917W        W22781  11.594   1.271  13.505  0.0174 -0.0572 -0.3629
21918W        W22782  19.713  28.501  20.431  0.0368 -0.0011 -0.1105
21919W        W22783  25.702  13.251  15.277  0.0364  0.1016  0.0374
21920W        W22784   7.819   9.212  13.664 -0.1426  0.0522 -0.2684
21921W        W22785  10.898  21.669  19.223 -0.3685 -0.3347 -0.0741
21922W        W22786  22.205  10.789  25.440  0.2584 -0.0895 -0.1071
21923W        W22787   2.295  20.493  28.213 -0.2041  0.3040  0.1168
21924W        W22788  26.775  18.984  18.326 -0.0146 -0.2738 -0.0406
21925W        W22789  27.904  16.232  28.201 -0.0232  0.0651  0.0975
21926W        W22790   1.857  25.978  27.226  0.1181 -0.1069 -0.1434
21927W        W22791   9.985  22.439  15.236  0.0314 -0.2293 -0.0610
21928W        W22792  21.171   4.807  14.933 -0.0801 -0.2386 -0.1037
21929W        W22793  10.688   2.563   9.247  0.0869  0.0020 -0.2325
21930W        W22794   2.048  25.180   5.287  0.0650  0.4261 -0.1168
21931W        W22795  18.778  27.700   5.679 -0.0720  0.0323  0.0736
21932W        W22796  22.385   2.767  10.026 -0.2214  0.2579 -0.1200
21933W        W22797  27.972  25.134   3.874  0.1643 -0.3016  0.2022
21934W        W22798  27.715   2.144   1.821  0.1949 -0.0770  0.1540
21935W        W22799   3.053  26.251   9.808 -0.0577  0.2637  0.1855
21936W        W22800  28.202   0.795  25.580 -0.0723  0.0878 -0.1100
21937W        W22801   5.155  27.636  23.849  0.0413 -0.1970 -0.2728
21938W        W22802  26.766  20.238  27.764  0.1752 -0.3759 -0.0886
21939W        W22803   6.093  11.351  17.463  0.1262 -0.0956  0.1139
21940W        W22804   0.242  24.900   3.369 -0.2682 -0.2523 -0.0244
21941W        W22805   3.375  24.962  21.727  0.1342 -0.0798 -0.1084
21942W        W22806  13.317   5.619   3.207  0.1085  0.3643  0.0817
21943W        W22807  16.154  25.630   4.277 -0.3704 -0.1463 -0.0086
21944W        W22808  10.706  11.405   0.152  0.0142  0.0828  0.0072
21945W        W22809  24.995   3.643   0.298  0.4502  0.0941  0.1490
21946W        W22810  13.464   8.554   6.863  0.0939 -0.3986  0.0078
21947W        W22811  10.574  27.315  21.719 -0.2085 -0.0320 -0.0315
21948W        W22812  26.878   5.900  12.630  0.1802  0.2868  0.1175
21949W        W22813   3.785  24.854   1.539 -0.0463  0.3393  0.0092
21950W        W22814  19.661  27.364  21.179 -0.0463 -0.3112 -0.0126
21951W        W22815   6.498   9.515  21.020 -0.3836  0.3104  0.0251
21952W        W22816   6.379  14.530  23.772 -0.0100 -0.0244  0.3391
21953W        W22817  21.029  18.481   8.489 -0.0742  0.2097 -0.1786
21954W        W22818  24.377  24.366   4.487 -0.2563 -0.0273  0.0389
21955W        W22819  12.025  21.306  18.581 -0.0402  0.3837 -0.0818
21956W        W22820  14.519  24.643  11.041 -0.0937 -0.2686 -0.2284
21957W        W22821  11.044  16.737  27.470  0.1017 -0.0576 -0.2240
21958W        W22822  23.240   7.300   9.630  0.0967 -0.0214 -0.0853
21959W        W22823  23.691   0.191  25.714 -0.0887 -0.2995 -0.1520
21960W        W22824   0.144   7.353   4.931  0.0601  0.1753 -0.0994
21961W        W22825  11.469   8.098  25.661 -0.2042  0.1789 -0.0890
21962W        W22826   7.182  19.950  26.878  0.0708 -0.0324 -0.1305
21963W        W22827  13.354  14.934  13.060 -0.0831 -0.0748 -0.0211
21964W        W22828  20.532  13.159  21.096 -0.1838 -0.0249  0.1253
21965W        W22829  24.599  13.295  22.008 -0.1196  0.0460 -0.0874
21966W        W22830   0.206  26.340  19.403  0.0035 -0.2131 -0.0971
21967W        W22831   9.498   4.608  25.686  0.2301  0.0191 -0.0314
21968W        W22832  10.622   1.293   9.346 -0.2843  0.0358  0.2794
21969W        W22833  13.244   3.038  11.084  0.1302  0.2538  0.1183
21970W        W22834  18.572  15.147  24.850 -0.1172 -0.1552 -0.3544
21971W        W22835   5.382   2.106  21.315  0.0640 -0.1533 -0.0946
21972W        W22836  11.709  24.037   2.421  0.0993  0.0273  0.2807
21973W        W22837   2.707  22.504   5.582  0.0568  0.0803 -0.0030
21974W        W22838   8.306  23.493   7.095  0.0810 -0.0711  0.0426
21975W        W22839  13.627  26.363  26.154  0.1440 -0.0946 -0.2513
21976W        W22840  25.840  18.853  21.392  0.0278 -0.0139  0.0314
21977W        W22841   3.574  16.066  21.832 -0.1215 -0.1006  0.0087
21978W        W22842  25.494   4.400  24.183 -0.0226  0.1403  0.2924
21979W        W22843  24.579  28.655  18.092 -0.2419  0.1336 -0.0694
21980W        W22844  26.446  12.926  23.426  0.3952  0.0984 -0.2958
21981W        W22845  24.510  26.773   5.246 -0.1221 -0.2370  0.0823
21982W        W22846   9.196  20.343   9.398 -0.1042 -0.1092  0.1670
21983W        W22847   0.733  18.078  28.026 -0.0689  0.1454  0.1762
21984W        W22848   6.962  19.575  27.562  0.4357  0.1056  0.0353
21985W        W22849   4.842   6.544   1.461 -0.2886 -0.1845 -0.1176
21986W        W22850  24.014  28.936  11.547  0.0858 -0.1683  0.0997
21987W        W22851  25.246   6.165  19.112  0.3699  0.2163  0.1218
21988W        W22852  16.846  17.931   3.991 -0.1145 -0.0962 -0.2864
21989W        W22853   6.838  27.106  28.441 -0.0884  0.1352 -0.4472
21990W        W22854  13.329  15.157  11.195  0.1771  0.1938 -0.1194
21991W        W22855   9.023   1.429  25.733 -0.2939  0.0378  0.1140
21992W        W22856   4.628   9.310  13.551  0.2093 -0.2467  0.0785
21993W        W22857  13.033  19.693  15.954  0.3317  0.1409 -0.1275
21994W        W22858   2.944  17.795   7.143  0.0084  0.1752 -0.0545
21995W        W22859  29.020  13.568   7.059 -0.0212 -0.1413  0.0228
21996W        W22860  24.687  22.709  12.871 -0.0396  0.1929 -0.0341
21997W        W22861  21.576  18.871  13.587  0.0321  0.0071  0.0825
21998W        W22862  22.264   6.060  26.770  0.1398 -0.1444  0.1759
21999W        W22863  15.509   6.790   6.100  0.4005 -0.0464 -0.2503
22000W        W22864  12.107   7.688  21.122  0.0724  0.1713 -0.0121
22001W        W22865   6.637  23.010  20.111  0.2813  0.0729 -0.2141
22002W        W22866  20.972  15.882  10.297 -0.0472  0.2025 -0.0683
22003W        W22867  25.065  24.355  21.692 -0.1337 -0.1938 -0.0900
22004W        W22868  27.280   3.638   0.763  0.1391 -0.3057 -0.0656
22005W        W22869   8.729   0.277   2.252  0.0105  0.0029 -0.0835
22006W        W22870  12.295  20.008  14.308 -0.0461 -0.0323  0.0762
22007W        W22871  26.398   5.987  25.418 -0.2467  0.3185  0.0586
22008W        W22872  15.611  17.597  18.427 -0.2154  0.0859 -0.2649
22009W        W22873  18.490  21.372  14.929  0.0574  0.0433  0.1281
22010W        W22874  26.586  20.079  24.111  0.0260 -0.2715 -0.1793
22011W        W22875  21.515   6.508   9.355 -0.0862  0.0685  0.0048
22012W        W22876   7.418  20.776  16.323  0.1940 -0.1639  0.0976
22013W        W22877  10.017  23.265  11.352 -0.0579  0.1293  0.1855
22014W        W22878  16.779   0.944  23.032  0.0319  0.0636 -0.0436
22015W        W22879   4.146   3.560  17.675  0.2654 -0.1931 -0.2762
22016W        W22880   0.670  17.478  28.242 -0.2791  0.2712 -0.3263
22017W        W22881   5.840  28.564  16.531 -0.1867 -0.0021  0.2267
22018W        W22882   8.817  23.603  20.244 -0.2600 -0.0215  0.0570
22019W        W22883   1.066   9.440  19.826 -0.0934 -0.0618 -0.1168
22020W        W22884  16.708  21.375  28.746 -0.2870 -0.1127  0.1671
22021W        W22885   7.541   2.909  24.724 -0.0362  0.0119 -0.2147
22022W        W22886   4.498   5.320  18.375  0.0958  0.1611 -0.3125
22023W        W22887   1.703  19.634   8.808  0.2848 -0.0917  0.3695
22024W        W22888   8.367  17.836   1.732  0.2413 -0.1098 -0.1517
22025W        W22889   2.618   7.509   3.608 -0.3720  0.2439 -0.1998
22026W        W22890   8.613   1.293  26.806 -0.0520  0.0882  0.1317
22027W        W22891   7.208  21.589  14.683  0.2592 -0.2930 -0.0238
22028W        W22892  28.438  18.691  21.490 -0.3092  0.1430  0.1141
22029W        W22893  24.684  16.781  15.181  0.0102  0.2138 -0.1490
22030W        W22894  17.441  28.418  17.576  0.0424 -0.2082  0.1661
22031W        W22895   3.963   4.553   2.522 -0.0746  0.2537 -0.0526
22032W        W22896  18.246  24.469  22.836 -0.2509  0.0912  0.1118
22033W        W22897  12.880  17.385  15.808  0.0692  0.3224 -0.2079
22034W        W22898  10.586  24.540   7.960 -0.3829 -0.0552  0.3304
22035W        W22899   5.035   8.208  27.534 -0.2109 -0.0483  0.1210
22036W        W22900   0.831  11.725   3.451 -0.1399  0.1652  0.0350
22037W        W22901   7.191  23.494  22.390  0.0817 -0.1958 -0.0982
22038W        W22902  14.060   1.705   6.900 -0.2500  0.0129  0.0984
22039W        W22903   5.739  20.233  20.525 -0.0032 -0.1964  0.0394
22040W        W22904  18.435  18.307  28.950 -0.0384  0.1174 -0.1126
22041W        W22905  13.588  10.926  26.917 -0.0269  0.1560  0.3256
22042W        W22906  10.348  20.935   0.260  0.0630 -0.1946  0.0459
22043W        W22907   2.183  24.132   0.841 -0.1168 -0.0122  0.1535
22044W        W22908   1.480  15.999  20.611  0.3654  0.1715 -0.1980
22045W        W22909   5.049  26.060   1.933 -0.1627  0.0003  0.0706
22046W        W22910   5.475  26.302  13.254 -0.0256  0.1870  0.2205
22047W        W22911  20.636  26.094  19.673  0.2123 -0.0307 -0.2795
22048W        W22912  15.452   2.217  25.974 -0.0018 -0.3937  0.0673
22049W        W22913   8.392  28.826  25.937  0.0606  0.0933  0.1303
22050W        W22914   3.320  11.078   0.902 -0.1363  0.0870  0.1083
22051W        W22915  11.795  18.466   0.800 -0.0508 -0.0519  0.1779
22052W        W22916   6.071  18.667  21.222 -0.0658  0.1997  0.0611
22053W        W22917   1.614  28.847  15.123  0.1573 -0.0997 -0.0275
22054W        W22918  22.805   2.342   5.704 -0.0551  0.0466  0.3489
22055W        W22919  25.561  10.651  17.401 -0.0508  0.0673 -0.0526
22056W        W22920  17.991  21.050  15.236  0.2172 -0.1847 -0.1537
22057W        W22921  22.127  21.589  18.481  0.0598  0.1943  0.1251
22058W        W22922  11.858  11.544  13.741 -0.0657 -0.0430 -0.0028
22059W        W22923   4.168  24.155  29.114  0.2348  0.0824 -0.0684
22060W        W22924   1.384  21.779  25.155  0.0074  0.0485  0.1732
22061W        W22925   6.800  10.698  22.645  0.0456 -0.2089  0.2295
22062W        W22926  12.905  28.317  24.250  0.0665 -0.4785  0.0311
22063W        W22927   5.158  12.859  27.638 -0.1361  0.0323  0.2783
22064W        W22928  18.784  15.491  28.708 -0.1279 -0.1952 -0.0422
22065W        W22929  14.298  28.362  21.757  0.1894 -0.1951 -0.0278
22066W        W22930  11.025  29.130  18.497  0.1209  0.1025 -0.1085
22067W        W22931  11.039   2.113   3.441  0.2350 -0.0428  0.5228
22068W        W22932   0.024  17.359   6.094 -0.2027 -0.2273 -0.0250
22069W        W22933  18.133   6.343  24.367 -0.4777 -0.3357  0.0453
22070W        W22934   2.354  20.665  26.960  0.4064 -0.0578  0.2197
22071W        W22935  27.101  17.015  28.935 -0.0859 -0.0622 -0.2234
22072W        W22936   2.939  10.980  20.808 -0.0027  0.1110  0.0663
22073W        W22937  22.239   6.667  13.526 -0.1017  0.1083 -0.1845
22074W        W22938  10.504  17.674  20.468 -0.1259 -0.0593 -0.2016
22075W        W22939  18.251  21.550  21.992 -0.0188 -0.0083 -0.0333
22076W        W22940   7.448  19.700  21.607 -0.0267  0.0025  0.1159
22077W        W22941  21.322  19.456  14.819 -0.1626  0.0285  0.0406
22078W        W22942  17.886  10.796  16.285  0.0161 -0.1694 -0.0311
22079W        W22943  18.817  16.059  22.404 -0.0390 -0.0472  0.1120
22080W        W22944   2.480  22.955  22.915 -0.0227 -0.0027  0.1141
22081W        W22945   2.311  14.931   9.717 -0.2930  0.1345 -0.0132
22082W        W22946  12.425  28.840  21.210 -0.0284 -0.1362 -0.0961
22083W        W22947  27.461   6.123  25.606 -0.3811  0.2786 -0.1842
22084W        W22948  22.874  16.203   6.887  0.2327 -0.2602  0.2860
22085W        W22949  20.480   5.376  22.020 -0.3596  0.1336 -0.0809
22086W        W22950   2.375  15.558   8.532  0.3701 -0.3152  0.0704
22087W        W22951  26.595  19.897  10.826  0.0752  0.0169  0.1390
22088W        W22952   5.178  24.575   5.029 -0.0085 -0.1583 -0.0846
22089W        W22953  23.823  17.530  19.774  0.0888  0.3351 -0.2709
22090W        W22954  16.988  12.956  20.242 -0.0783 -0.0277  0.1428
22091W        W22955   3.639  28.305  28.354  0.1913  0.3396 -0.1617
22092W        W22956   9.414   3.389  28.939  0.0512  0.0408  0.0589
22093W        W22957  15.801   3.795  23.674  0.1382  0.2709  0.1566
22094W        W22958   5.446  11.194  15.350  0.1364 -0.0628  0.0991
22095W        W22959  12.857   6.843  19.081  0.1981 -0.2123 -0.0278
22096W        W22960  27.377  22.750   1.625  0.0566  0.2644  0.0128
22097W        W22961  25.234  24.605  28.208 -0.4211 -0.0658  0.1259
22098W        W22962   0.995   5.282  18.734  0.0050 -0.0140  0.0423
22099W        W22963   6.556  15.092  22.071 -0.0154 -0.0152 -0.0545
22100W        W22964  21.833  20.482   1.185 -0.2421  0.1126  0.1103
22101W        W22965   3.834  27.827  11.685  0.1505  0.1104  0.0613
22102W        W22966   0.731   3.367  18.716 -0.4400 -0.1589  0.1962
22103W        W22967  27.420   6.615   5.268  0.2011  0.3362  0.3040
22104W        W22968  10.090  25.957   3.430  0.1242  0.1632 -0.1762
22105W        W22969  12.848   4.077  16.893  0.2295 -0.4042  0.0341
22106W        W22970  21.268  25.087   9.727  0.0514  0.0430 -0.0718
22107W        W22971  14.720  20.418  11.453  0.3117  0.1164  0.0702
22108W        W22972  18.114   3.767   8.392  0.3863  0.0113 -0.0808
22109W        W22973   4.030  26.142  25.763 -0.0181 -0.0114  0.1211
22110W        W22974   3.144   2.803   9.113 -0.0295  0.2381  0.1342
22111W        W22975  12.082   1.476  24.448  0.1996  0.0930 -0.0258
22112W        W22976  25.315   1.233   6.795 -0.0083  0.0739  0.2010
22113W        W22977  25.924  24.447  13.401 -0.0518 -0.2007 -0.0711
22114W        W22978   2.942  12.434  23.797  0.0269  0.1164  0.1077
22115W        W22979  11.713  23.960  14.913 -0.1196  0.0726  0.0029
22116W        W22980   9.022   3.080   1.163 -0.4376 -0.1860  0.0148
22117W        W22981  18.078   0.212  12.795 -0.0923 -0.1327  0.3572
22118W        W22982  13.204  20.268  13.514  0.0128  0.0112  0.0727
22119W        W22983  26.909  26.320  20.334  0.0670  0.2522 -0.1036
22120W        W22984   5.597  24.919   3.531 -0.2393 -0.1554  0.2165
22121W        W22985   0.353  17.560  15.889  0.0526 -0.0094  0.0373
22122W        W22986   0.719  19.043   4.745  0.3917  0.1617  0.2321
22123W        W22987  26.923   7.614  19.731  0.1490 -0.1259 -0.2999
22124W        W22988  25.994   3.892  20.035  0.0805 -0.0687  0.0272
22125W        W22989   3.025  20.627  10.434 -0.1944 -0.0233 -0.1712
22126W        W22990  22.099  23.325   8.927 -0.3827 -0.3205 -0.1233
22127W        W22991  13.366  17.579   9.083 -0.0721 -0.5099  0.5546
22128W        W22992   3.021  26.314  27.460  0.1272 -0.1674 -0.1976
22129W        W22993   6.426  22.771  19.745  0.2861  0.0799  0.0380
22130W        W22994   0.418  23.846  22.485  0.0349 -0.0117  0.2543
22131W        W22995   0.151   5.180  10.418 -0.0557  0.1971 -0.0357
22132W        W22996  16.998   8.623  12.535 -0.2682 -0.0966  0.0025
22133W        W22997  10.172  11.733  20.972  0.2202  0.2230 -0.3910
22134W        W22998  24.047  11.787  25.848  0.1439  0.0012 -0.1007
22135W        W22999  26.119   0.482   0.173 -0.4499  0.0232 -0.0437
22136W        W23000  11.301  24.398   5.912 -0.0712  0.2327 -0.0277
22137W        W23001  26.257  22.231  25.874  0.0402  0.0084  0.1872
22138W        W23002  22.373   1.366  27.827  0.2126  0.1356 -0.0564
22139W        W23003  19.738  25.469  19.635  0.0076 -0.0879  0.2588
22140W        W23004   3.797  26.307  20.841 -0.0574 -0.4914 -0.2164
22141W        W23005  25.529  14.796   2.848 -0.3404 -0.1005  0.0580
22142W        W23006  21.961   7.029  17.229 -0.1128 -0.3071 -0.2227
22143W        W23007  13.674   6.697  14.702 -0.1728 -0.1249 -0.2658
22144W        W23008   8.828   4.521   6.877 -0.1546  0.1034  0.1236
22145W        W23009  14.994  17.175   8.842 -0.0543 -0.1660 -0.1223
22146W        W23010   5.317   4.708  25.512  0.2754 -0.2108  0.1368
22147W        W23011  23.476  18.802  20.186  0.2541 -0.1510  0.0046
22148W        W23012   5.047  27.287   9.572 -0.0469 -0.0514 -0.3778
22149W        W23013  26.015  20.917  27.128 -0.2008  0.2118  0.0580
22150W        W23014   8.415   6.745  25.780 -0.1166 -0.4402 -0.0263
22151W        W23015   5.024  22.702  16.288  0.2589 -0.1091 -0.4622
22152W        W23016  13.808  25.294  10.634  0.2031  0.1218 -0.1220
22153W        W23017   0.230  15.255  20.124 -0.0851 -0.0776 -0.1050
22154W        W23018   6.309   9.506  25.558  0.3923  0.3579 -0.0484
22155W        W23019  25.781  23.976  25.813  0.3727 -0.0413 -0.1769
22156W        W23020   2.399  18.356  26.612  0.1330  0.1430  0.0846
22157W        W23021   9.671  15.501   5.669  0.0087  0.0886 -0.0434
22158W        W23022   8.570   4.421   0.722  0.2419 -0.1379  0.1356
22159W        W23023  27.304   2.892  11.533 -0.1936 -0.3242 -0.1284
22160W        W23024   9.547  23.528  23.779 -0.1370 -0.0829 -0.0594
22161W        W23025  11.610  25.703  16.841 -0.2691  0.0115 -0.0010
22162W        W23026  25.090  26.054  25.390 -0.2181  0.2132  0.1789
22163W        W23027  27.263  27.306  16.742  0.2010  0.4197  0.2914
22164W        W23028  25.743   9.983   4.421 -0.1413 -0.1218  0.0566
22165W        W23029   3.269  10.196  21.374  0.0517  0.0416  0.1514
22166W        W23030   9.001  11.709  12.681  0.1316 -0.0167 -0.5331
22167W        W23031  16.587  17.093  18.537 -0.0633 -0.0186  0.4277
22168W        W23032   4.379  12.997   0.591  0.2284  0.0753  0.2391
22169W        W23033   5.341  15.895  21.202 -0.2717 -0.0567 -0.0288
22170W        W23034   8.132  22.262  19.939 -0.0194 -0.2419 -0.3123
22171W        W23035   1.563  11.891  20.514  0.0097 -0.0153 -0.1590
22172W        W23036  14.595  18.715  15.599 -0.1157 -0.1735 -0.0225
22173W        W23037  17.326  25.983   4.369 -0.0626 -0.0436  0.1142
22174W        W23038  18.767   0.949   2.327 -0.0857 -0.0616 -0.2040
22175W        W23039   3.463   3.043  11.446  0.1142 -0.0101  0.0706
22176W        W23040   1.346   1.484  23.652  0.0618  0.1651 -0.1567
22177W        W23041   0.290  17.300  13.059 -0.1705  0.2536  0.2282
22178W        W23042  28.890   5.872  24.303  0.2102 -0.1087  0.2171
22179W        W23043  22.207   7.912  22.335 -0.1175  0.0979 -0.1300
22180W        W23044   1.406   4.427  19.789  0.0422 -0.1069  0.1876
22181W        W23045   0.966  22.326   9.465  0.0680  0.2195  0.1229
22182W        W23046   3.695  25.031  29.088 -0.2107 -0.4100 -0.2246
22183W        W23047  23.155  29.108  23.923  0.0713  0.1226 -0.1384
22184W        W23048   6.821  21.811  10.721 -0.1729  0.4790 -0.1555
22185W        W23049  23.965  14.155  26.946  0.0986 -0.1467  0.2159
22186W        W23050  12.624  20.042   6.793 -0.4140  0.1285 -0.0621
22187W        W23051   5.340  10.596   4.413 -0.0866 -0.0713 -0.0680
22188W        W23052   3.522  25.666  26.644 -0.0450  0.1273 -0.2509
22189W        W23053  27.902   9.906  13.521 -0.0399 -0.2327  0.2519
22190W        W23054   6.651  24.474  23.366  0.0935 -0.3683  0.3448
22191W        W23055  14.256  22.373  19.702  0.0084  0.2936  0.1346
22192W        W23056   8.051  19.861   3.996  0.1850  0.2354 -0.1820
22193W        W23057  26.566   6.327   9.197  0.1723 -0.3527  0.1160
22194W        W23058  13.642  17.381  27.932  0.0341  0.2614 -0.2581
22195W        W23059   2.145   5.413   3.062  0.0622 -0.0111  0.0066
22196W        W23060   2.975   7.464  25.286  0.2129 -0.1105 -0.0076
22197W        W23061   8.830  21.714  20.108  0.0396 -0.1213 -0.0022
22198W        W23062  26.419  20.939  15.082 -0.1185 -0.1178  0.2417
22199W        W23063  22.451  21.888  24.102 -0.0486 -0.3047  0.0425
22200W        W23064  21.521   0.484  12.359  0.1251 -0.0686  0.2593
22201W        W23065   1.592  24.986   5.371  0.2801 -0.2077  0.1188
22202W        W23066   1.777  22.534   3.989 -0.0656 -0.0368  0.0373
22203W        W23067  19.689  23.440  22.934  0.1532 -0.0183  0.0720
22204W        W23068  13.877  12.620   0.296 -0.0099  0.0778 -0.1894
22205W        W23069  11.809  14.504   7.794 -0.1758  0.0155 -0.1535
22206W        W23070   3.910  10.500  23.419 -0.1759 -0.0799 -0.0707
22207W        W23071   2.865   3.691   0.119 -0.2445  0.0837  0.1558
22208W        W23072   2.433   5.084  17.299  0.0375  0.0596 -0.2171
22209W        W23073  24.586  25.213   2.463  0.0192  0.3719 -0.1718
22210W        W23074   9.016  20.304  25.595  0.0179 -0.2422  0.0896
22211W        W23075  21.288   1.212  25.235 -0.0457  0.1552 -0.1306
22212W        W23076   1.420  25.902   0.563 -0.1673 -0.0106 -0.1143
22213W        W23077  27.165   5.112  21.035 -0.1904 -0.0272 -0.1029
22214W        W23078  17.677  27.763  26.292  0.0480  0.0263 -0.1343
22215W        W23079   3.194   6.789  12.405  0.3663 -0.0716 -0.0302
22216W        W23080  14.840  23.690   6.156 -0.1962  0.1462  0.1829
22217W        W23081   1.747  18.950   3.617  0.1139 -0.2281  0.3469
22218W        W23082  20.055  20.610  27.702  0.0099  0.2391 -0.3163
22219W        W23083   7.016  15.140   4.776 -0.1461  0.1622  0.3078
22220W        W23084  11.717  12.729   1.095  0.2067 -0.1459 -0.0202
22221W        W23085   4.796  21.895   1.527  0.1757 -0.0523 -0.1411
22222W        W23086  23.737  28.727  28.773 -0.2735  0.1778 -0.0329
22223W        W23087   3.509  28.242   6.862  0.2148  0.1789  0.0647
22224W        W23088   5.605  16.737  20.717  0.2370  0.0048  0.0048
22225W        W23089   8.766   7.191  15.544  0.1321  0.3418  0.2770
22226W        W23090   3.267  28.314  20.131  0.2069  0.3388  0.1971
22227W        W23091   8.364  16.639   2.171  0.1297  0.2337  0.0758
22228W        W23092  19.421  23.644   0.332 -0.0086  0.2935  0.1808
22229W        W23093  19.701  28.899  18.334 -0.1272 -0.0433  0.0884
22230W        W23094   6.329  23.790  23.506  0.0120  0.0334  0.0130
22231W        W23095  25.394  18.585   2.820 -0.0087  0.2017  0.1293
22232W        W23096  28.574  15.647   1.040 -0.1331 -0.0449  0.1574
22233W        W23097  11.975  23.805   2.793  0.1167 -0.0181  0.1873
22234W        W23098   8.749  21.835  22.969 -0.2164 -0.0202 -0.2277
22235W        W23099  24.319  26.411   0.039  0.1143  0.1155 -0.3545
22236W        W23100  20.085  21.687   0.619  0.0748 -0.0483 -0.1187
22237W        W23101  18.936  23.322  10.658  0.0749 -0.0419  0.2732
22238W        W23102  14.207  27.226   1.131 -0.1310 -0.1500  0.4068
22239W        W23103  26.772  19.907   1.966  0.2872 -0.2054  0.0727
22240W        W23104   3.655  22.026   8.399  0.0547 -0.0160 -0.1122
22241W        W23105   8.601  21.361   7.300  0.0009  0.2537 -0.1422
22242W        W23106  21.507  22.195  23.453 -0.0269  0.4047 -0.1873
22243W        W23107  10.415  26.409  15.557  0.2929  0.1211  0.1512
22244W        W23108  19.169  26.106  23.079  0.0133 -0.2005 -0.0731
22245W        W23109  11.560  25.253  21.521 -0.2397  0.1320  0.1767
22246W        W23110  16.509   3.398   2.021 -0.2927 -0.1436  0.2368
22247W        W23111  26.872  18.327  23.098  0.0400  0.2566 -0.1140
22248W        W23112   0.865   1.593  23.875  0.1774 -0.1369  0.0686
22249W        W23113   1.952  26.030  21.201  0.1242 -0.0310  0.2817
22250W        W23114  13.362  20.931  28.110 -0.1215 -0.0693 -0.2469
22251W        W23115  20.806  21.982   9.578  0.1693 -0.2973  0.1076
22252W        W23116   5.906  23.117   5.615 -0.1401 -0.2627 -0.3019
22253W        W23117  12.688  25.470   4.424  0.1053 -0.1390  0.2059
22254W        W23118   1.518  16.615  21.740  0.0188  0.3747 -0.1302
22255W        W23119  27.579  12.381  25.619 -0.0990 -0.2910  0.1369
22256W        W23120   4.242  19.114  12.205  0.4230  0.1673  0.3677
22257W        W23121  13.334   6.570  21.372 -0.0361  0.0444 -0.0124
22258W        W23122  22.278  17.374  24.779 -0.0184  0.0268  0.0032
22259W        W23123   4.206  10.874  21.881  0.0968 -0.0360  0.1047
22260W        W23124   2.114  23.123   0.801  0.0931  0.0948 -0.3082
22261W        W23125   7.917   0.438  23.395  0.2098  0.0612 -0.3041
22262W        W23126   3.012  22.661  27.589 -0.2156  0.1936 -0.2237
22263W        W23127   4.497  21.078  12.028 -0.0780 -0.0045  0.0030
22264W        W23128   6.917  10.398   0.633  0.0876  0.0931  0.4355
22265W        W23129   0.724  20.664  11.985  0.0223  0.0575  0.0926
22266W        W23130  14.015  16.984  22.085 -0.1708 -0.0905 -0.1490
22267W        W23131   7.536  12.400  25.554  0.2651 -0.0486  0.3695
22268W        W23132  23.895  23.067   6.432  0.0642 -0.2957 -0.0181
22269W        W23133   7.405  17.709   2.675 -0.0183 -0.2166 -0.1649
22270W        W23134  23.538  11.596  26.800  0.0881  0.0949  0.1063
22271W        W23135  14.487  19.646  15.733  0.2411 -0.0063  0.0166
22272W        W23136   5.541  27.744  18.134  0.2059 -0.0435 -0.0046
22273W        W23137   2.588  21.438  23.322 -0.0419  0.1834 -0.0505
22274W        W23138  19.420  28.470   2.726 -0.1974  0.2396 -0.0615
22275W        W23139   8.929  23.136  23.051  0.0700 -0.0335  0.0773
22276W        W23140  22.628  16.176  10.347 -0.0751  0.1717  0.2704
22277W        W23141   8.917  29.124  18.519 -0.0367  0.0399 -0.0124
22278W        W23142   8.774  18.697   6.325  0.2970 -0.2686  0.2054
22279W        W23143   7.898  23.840   6.767  0.0621 -0.4370  0.1649
22280W        W23144   6.493  24.501   3.533 -0.0155 -0.4074 -0.2975
22281W        W23145  27.883   3.900  17.864 -0.2603 -0.0018 -0.4138
22282W        W23146  13.135  25.626  24.244 -0.0181 -0.2016  0.1847
22283W        W23147   7.213  20.654  27.847  0.1366  0.0611  0.6714
22284W        W23148  21.368   6.286   4.061 -0.1127  0.0077 -0.3562
22285W        W23149   0.240  25.378   4.204 -0.0737 -0.0745  0.0167
22286W        W23150   4.082   2.809  16.064  0.1100 -0.1768 -0.0360
22287W        W23151  16.147  20.258   0.088  0.2089 -0.1048 -0.1548
22288W        W23152  20.176  16.414  22.784  0.1269 -0.0952  0.2204
22289W        W23153  27.688  27.636  22.505 -0.0217 -0.2809 -0.2563
22290W        W23154  22.388  23.019   2.476  0.0655 -0.2459 -0.1344
22291W        W23155  13.189  19.078  27.278  0.2181  0.1115 -0.2898
22292W        W23156   2.346  22.572  26.395 -0.0930  0.2113 -0.0341
22293W        W23157  11.461  20.265   5.589 -0.0798  0.2198 -0.5267
22294W        W23158   7.671  20.808   8.127  0.2121  0.2378  0.1979
22295W        W23159  28.026   4.594  26.964  0.0169  0.3208 -0.3847
22296W        W23160   1.695   8.361  25.940  0.1649 -0.0358  0.1893
22297W        W23161  24.894  12.800  20.551  0.1076  0.0222 -0.3123
22298W        W23162  12.295  10.850   9.474 -0.1797 -0.2974 -0.1059
22299W        W23163  16.966   7.980  25.907 -0.3816  0.1145  0.0759
22300W        W23164  17.162  22.404  26.590 -0.1500 -0.2523  0.0416
22301W        W23165  12.834   0.148  26.318  0.1859 -0.1691 -0.0101
22302W        W23166   4.472   6.951   1.444 -0.2320  0.3397  0.0649
22303W        W23167   4.854   2.279  28.662  0.1380 -0.3523  0.1527
22304W        W23168  20.539  18.541  26.067 -0.1415 -0.0654 -0.1495
22305W        W23169  25.320  19.434   5.725  0.0122  0.1185 -0.0439
22306W        W23170  26.725  12.264  15.047  0.0763  0.1535  0.2087
22307W        W23171  13.265  22.964  14.452  0.0790  0.0724 -0.0101
22308W        W23172  11.958   4.932  15.378 -0.3189 -0.1396 -0.1154
22309W        W23173  25.795  21.987  16.176 -0.0259 -0.3376 -0.2131
22310W        W23174  17.069   5.393   2.985 -0.1321 -0.1063 -0.2022
22311W        W23175  22.030   0.424  20.796 -0.3872 -0.0696 -0.0613
22312W        W23176   4.368  17.452   7.447  0.3892 -0.0410 -0.0644
22313W        W23177   9.213  25.055  18.688  0.1468 -0.0636  0.2819
22314W        W23178   0.781  25.190   1.398 -0.0938 -0.0773  0.1105
22315W        W23179   2.022   2.212   5.637 -0.1497 -0.0387 -0.0614
22316W        W23180   5.111  18.136  24.287 -0.0123 -0.0748  0.0938
22317W        W23181   9.875  29.029  19.197 -0.1014  0.2612 -0.1276
22318W        W23182  27.063  14.636  27.089  0.2713  0.1716 -0.2487
22319W        W23183  27.739  14.209  16.539  0.1985  0.1730  0.1022
22320W        W23184  24.003  21.219  15.284  0.3565 -0.0565 -0.0191
22321W        W23185  15.166  11.838  15.873 -0.3407 -0.1015  0.1196
22322W        W23186  15.547  16.367  22.624 -0.2624 -0.1928 -0.0930
22323W        W23187   9.309  27.671  27.711 -0.1612 -0.0887 -0.0250
22324W        W23188  25.773  28.130  26.602 -0.1528  0.0382  0.1405
22325W        W23189   0.445  20.735  21.077 -0.1051  0.3407 -0.2962
22326W        W23190  15.654  25.222   3.335 -0.1022  0.0833 -0.0578
22327W        W23191   6.672  23.128  26.120  0.0358 -0.2653  0.1944
22328W        W23192  15.745   2.754  27.957 -0.2256 -0.1377 -0.0034
22329W        W23193   7.375   5.733  19.602  0.1942 -0.2765 -0.2595
22330W        W23194   7.699  17.086   9.841 -0.0925 -0.1717 -0.0179
22331W        W23195   6.490  26.230  21.298 -0.0564 -0.0891 -0.1565
22332W        W23196   3.943  17.961  13.382  0.0094 -0.2381 -0.5921
22333W        W23197  21.738  24.137  27.425 -0.0350 -0.0285  0.1074
22334W        W23198   7.107  18.678  27.199  0.0426 -0.1890  0.0479
22335W        W23199   3.377  14.823  27.831 -0.4031 -0.0457 -0.0997
22336W        W23200   4.368  15.340  16.782  0.0082 -0.0474  0.1701
22337W        W23201   6.305  21.022   1.133 -0.0836 -0.2352  0.2053
22338W        W23202  20.023  15.320  24.639  0.0489  0.2741  0.0988
22339W        W23203  15.812  27.414   9.658  0.2518 -0.3075  0.0244
22340W        W23204   7.641  20.432   2.487  0.0476  0.4734 -0.1461
22341W        W23205  25.392  28.279   4.858  0.1144 -0.0601  0.0930
22342W        W23206  10.702  23.477  21.898  0.1818 -0.0488 -0.0754
22343W        W23207  26.373  17.559   6.867 -0.0317 -0.3714  0.2819
22344W        W23208  14.316  18.245  12.108  0.1625 -0.2754 -0.0139
22345W        W23209  27.528  27.538  24.032  0.0730 -0.4532 -0.0101
22346W        W23210  14.751  28.604   9.924 -0.0116  0.0301 -0.1051
22347W        W23211   2.253   1.737   5.608  0.4175 -0.2411  0.2092
22348W        W23212  29.045  20.176   3.017  0.3231  0.0452 -0.3341
22349W        W23213  13.816  16.634   6.062 -0.2581 -0.0480  0.1376
22350W        W23214   7.859  13.278  19.193 -0.0059  0.1726 -0.3181
22351W        W23215   0.171  27.986  18.837  0.0092 -0.0561 -0.1569
22352W        W23216  15.247  24.767   5.934 -0.0009  0.3952  0.1355
22353W        W23217  10.546  18.874   3.068 -0.4505  0.2152 -0.0361
22354W        W23218  28.592   8.236  23.089  0.0586  0.1485 -0.1940
22355W        W23219   3.676  22.553   6.497  0.1234 -0.2920 -0.1591
22356W        W23220   8.161  11.063   7.187  0.1957  0.3844  0.2788
22357W        W23221   6.235  12.746  13.591  0.1616  0.0030 -0.1824
22358W        W23222   5.988  26.275  14.751  0.3052 -0.4933  0.0931
22359W        W23223  22.662  25.132   3.746 -0.0919  0.1682 -0.2289
22360W        W23224  21.705  23.055   5.313  0.1582  0.1525  0.1347
22361W        W23225  25.578  16.854  24.115  0.3795 -0.0940 -0.1411
22362W        W23226  24.314  26.120   4.026 -0.3852  0.0525  0.2752
22363W        W23227  27.961  28.222  12.416 -0.2169 -0.3340 -0.1123
22364W        W23228   1.556  27.012  18.268 -0.1020 -0.0262  0.0804
22365W        W23229  11.591  28.352  27.636 -0.2666  0.0931 -0.0290
22366W        W23230  26.808   6.592  17.809  0.3506 -0.1533 -0.1682
22367W        W23231  11.150   4.643   3.941  0.3765  0.0462  0.0651
22368W        W23232   2.011  12.983   6.502  0.1222 -0.0833  0.0474
22369W        W23233  12.714   6.199  21.029  0.3316  0.3557 -0.1955
22370W        W23234   0.784  28.161  28.692 -0.0625 -0.1649 -0.1569
22371W        W23235   6.274  26.493  10.192 -0.2149  0.0965  0.1668
22372W        W23236  12.679  24.593  26.302  0.2752  0.0874 -0.0046
22373W        W23237   1.908  12.627   2.694 -0.2400  0.1741 -0.1665
22374W        W23238   3.846  27.266  19.819  0.1226 -0.0863 -0.1128
22375W        W23239   9.370  19.930   2.209 -0.1965  0.1092  0.2448
22376W        W23240  25.242   5.304  27.432  0.1301  0.1123  0.0293
22377W        W23241  26.574   2.338  27.894 -0.1905 -0.1134 -0.1374
22378W        W23242   2.127  15.807   1.330 -0.0239  0.0397 -0.0788
22379W        W23243  28.726   2.909  12.657  0.1080  0.0491 -0.1264
22380W        W23244  12.661  25.121   0.884 -0.0614  0.1312 -0.0881
22381W        W23245  25.756   0.719  12.660  0.2184  0.0321 -0.1773
22382W        W23246   5.173   5.015  15.642  0.1489  0.0523 -0.0204
22383W        W23247   1.103  25.884  28.300  0.2202  0.2627  0.0664
22384W        W23248  20.582  15.110   1.602  0.2599 -0.1239  0.0007
22385W        W23249  19.348  10.369   0.080 -0.1991 -0.1059  0.0020
22386W        W23250   5.050   2.781  20.569  0.1190  0.1414 -0.0262
22387W        W23251  26.852  23.879  15.772 -0.1009 -0.1889 -0.3341
22388W        W23252   2.361  23.978  24.261  0.1265  0.4320  0.0710
22389W        W23253  25.225  19.656  21.067 -0.1505  0.0029 -0.2223
22390W        W23254   0.603  17.133   5.977 -0.4369  0.2365 -0.1843
22391W        W23255   3.789  27.469   6.337 -0.0394  0.0657  0.3128
22392W        W23256  15.168   0.435  19.097 -0.0806  0.0181  0.2957
22393W        W23257  12.091  22.922  18.848  0.2937  0.1547 -0.1039
22394W        W23258  23.874  24.852  27.038  0.4032  0.0448  0.0285
22395W        W23259  24.975  17.220  19.790  0.0389 -0.1739  0.3100
22396W        W23260  26.397  21.364  24.150  0.0878  0.4900 -0.1084
22397W        W23261  22.958  12.874   0.268  0.1881 -0.1837  0.6541
22398W        W23262   6.595  11.675   5.807 -0.4405 -0.0253  0.2299
22399W        W23263   4.497  17.516   6.113 -0.0180  0.2008 -0.2423
22400W        W23264   7.799  16.728   0.105 -0.0268  0.2200  0.0827
22401W        W23265  19.392  13.905  18.017  0.1946  0.1443  0.0227
22402W        W23266   9.837  24.450  20.564 -0.5659 -0.1814 -0.0110
22403W        W23267   6.782   5.355   2.180 -0.0654 -0.1512  0.1549
22404W        W23268  25.711  21.931  12.169 -0.2377 -0.0270  0.1901
22405W        W23269  12.845  14.790  12.051 -0.1533 -0.1942  0.0659
22406W        W23270   2.656  17.281   5.304  0.1952 -0.2503  0.0468
22407W        W23271  18.308  25.324  20.599 -0.3640 -0.2462  0.2750
22408W        W23272   6.185  15.999   1.500 -0.0324  0.2669 -0.3549
22409W        W23273  15.938  15.830   7.058 -0.1441  0.4076 -0.3656
22410W        W23274  22.743  26.367   8.370  0.2152 -0.2559 -0.1123
22411W        W23275  10.186  28.545  20.459 -0.0957  0.0057 -0.0455
22412W        W23276  17.813   6.255   1.485 -0.0894  0.0362 -0.0806
22413W        W23277  14.222   3.637   9.717  0.2307  0.1528 -0.2725
22414W        W23278  23.618  25.778   5.769 -0.1276 -0.0773  0.3730
22415W        W23279  10.977  23.000  23.597  0.1324 -0.3067  0.0093
22416W        W23280  21.963  11.405   3.375  0.1139  0.2922  0.0809
22417W        W23281  26.144  28.544  20.761 -0.0233  0.0813 -0.0992
22418W        W23282  26.723  19.876   9.715 -0.2841  0.0425  0.0317
22419W        W23283   9.307  27.650  19.219 -0.1319 -0.1839  0.0454
22420W        W23284   2.902  29.100  21.604  0.0221  0.0757  0.1440
22421W        W23285  10.921  26.805  11.184 -0.1150  0.0528  0.0113
22422W        W23286   3.702   4.909  17.734 -0.1787 -0.0334 -0.2220
22423W        W23287   1.515  12.740   0.704  0.4456 -0.0160  0.1570
22424W        W23288   1.489   4.199  26.891  0.0767 -0.0213 -0.0586
22425W        W23289  23.123  14.508  24.906 -0.0740 -0.0213 -0.0600
22426W        W23290  12.972  24.706  27.535 -0.2011  0.0574 -0.1264
22427W        W23291  19.295  24.934  23.592 -0.2286 -0.0874 -0.0253
22428W        W23292  14.002  19.980  10.405 -0.2012 -0.2898  0.0830
22429W        W23293   3.454  27.859  13.022  0.0342  0.1411 -0.0977
22430W        W23294   1.438  24.090  21.655  0.0105  0.2947  0.0296
22431W        W23295  12.380  13.664  19.233 -0.0368  0.1569  0.0027
22432W        W23296   5.665  22.158  16.358 -0.2636  0.3305  0.2164
22433W        W23297   3.857  23.571  19.355  0.0458 -0.0748  0.3143
22434W        W23298   0.445  29.073  23.818  0.1699 -0.1459 -0.1000
22435W        W23299  25.178  21.907  18.496  0.1394  0.0395 -0.1067
22436W        W23300  12.494  13.394  27.468 -0.1531  0.0394  0.0952
22437W        W23301  26.827  23.486   1.645  0.1205 -0.0765  0.0368
22438W        W23302   9.705  16.895  17.502  0.0145  0.0524  0.2062
22439W        W23303  21.739  20.350   6.753 -0.0263  0.0148  0.1673
22440W        W23304  14.888  23.428  17.753 -0.1350  0.2868 -0.0278
22441W        W23305  27.762  10.415   0.452  0.2389 -0.2533  0.0407
22442W        W23306   2.597  23.317  15.450  0.2977  0.2709  0.0588
22443W        W23307  26.770   8.102   9.278  0.0408  0.0200  0.1561
22444W        W23308  15.536  22.564  28.415  0.0191  0.1956  0.0096
22445W        W23309   6.543  19.117  22.905  0.0996 -0.0066  0.1479
22446W        W23310  23.015  18.236   1.900 -0.3409 -0.0125 -0.2371
22447W        W23311  10.302  19.438  28.515  0.0740 -0.1082 -0.2546
22448W        W23312  21.339   4.195  20.443 -0.1305  0.1543  0.1879
22449W        W23313   8.431  12.542  17.937 -0.3119 -0.3737 -0.1623
22450W        W23314   4.792   0.021  20.453 -0.0329 -0.1084  0.0901
22451W        W23315   6.688  22.215   9.255  0.3463 -0.0226 -0.0968
22452W        W23316  11.115  28.616  23.728  0.1120 -0.0520  0.1498
22453W        W23317  14.433  16.893  20.872 -0.0385  0.0061 -0.0980
22454W        W23318  26.620   8.109  18.739 -0.1182  0.0230  0.3246
22455W        W23319   4.276  24.400   8.445 -0.2115  0.0453 -0.2381
22456W        W23320  17.963   8.145   7.285  0.2150  0.1890  0.0560
22457W        W23321  25.494  10.781   0.869 -0.1718 -0.1158  0.0824
22458W        W23322   1.385  18.521   1.526  0.1559  0.1546 -0.0892
22459W        W23323   3.742  18.041  19.270  0.0044 -0.0225 -0.0368
22460W        W23324   2.469  22.695   6.077 -0.0354 -0.3006  0.2749
22461W        W23325  28.895  27.685  24.012  0.1136  0.0760 -0.0388
22462W        W23326  27.161  21.844   1.854 -0.0603  0.1938  0.1959
22463W        W23327  23.781  28.007   8.111  0.0386  0.1851  0.0997
22464W        W23328   9.224   2.994  19.820  0.0669 -0.1754 -0.2329
22465W        W23329   1.115  18.084  18.527  0.0353 -0.0408  0.1684
22466W        W23330  19.284   2.475   8.205 -0.3183 -0.1757  0.0857
22467W        W23331   5.502  22.173  22.250  0.3154 -0.0256  0.1595
22468W        W23332   8.273  25.644   9.780  0.0599 -0.1554 -0.0860
22469W        W23333  24.112   4.268  27.687  0.2869  0.0201  0.1671
22470W        W23334  20.412  19.057  13.260  0.1522 -0.2556  0.2904
22471W        W23335   6.535   4.146   1.043 -0.1927  0.3959  0.0862
22472W        W23336   2.545  24.598  26.141  0.3018  0.2568 -0.2055
22473W        W23337   2.426   0.004   3.682  0.1969  0.1141 -0.0935
22474W        W23338   0.009   9.783  26.752 -0.1862 -0.0009  0.1390
22475W        W23339  20.591  12.640  17.749 -0.1268 -0.0539  0.0112
22476W        W23340  27.930   7.494   2.958  0.0170 -0.2542 -0.2938
22477W        W23341  14.576  27.309  28.917  0.0304 -0.0004  0.0049
22478W        W23342  16.994   3.488  21.471  0.4300  0.0607  0.3037
22479W        W23343   9.542   5.986  22.016  0.0351  0.2728  0.1197
22480W        W23344  18.029  22.233  10.096  0.2571  0.0696  0.0375
22481W        W23345  13.982   0.613  21.273 -0.0601  0.1338 -0.0280
22482W        W23346   8.547  25.293   4.476  0.0639 -0.3900  0.1316
22483W        W23347  22.108  19.665  28.575 -0.0431  0.1470  0.0249
22484W        W23348  11.941  27.497  20.200  0.0950 -0.1013 -0.1325
22485W        W23349   0.391  28.311   1.559 -0.0646 -0.1391  0.0452
22486W        W23350  15.229  23.318   3.129  0.0977  0.2652 -0.3085
22487W        W23351   0.079   0.456   5.158 -0.0674  0.0540 -0.1983
22488W        W23352  13.161   3.845  29.116  0.0394  0.1766 -0.1384
22489W        W23353  18.822   0.757   8.340 -0.0798 -0.2179 -0.0820
22490W        W23354  26.505   3.380  22.814  0.0355 -0.3048 -0.2622
22491W        W23355  16.609  24.613  18.341  0.0150  0.3520 -0.0989
22492W        W23356   3.411  28.239  17.948  0.0066 -0.0647 -0.0693
22493W        W23357   3.002   2.507  28.895 -0.1053 -0.0504  0.0447
22494W        W23358  17.795  22.484  11.169  0.1715  0.1173 -0.1598
22495W        W23359   3.860  21.299  11.139  0.2152  0.2136  0.2947
22496W        W23360  16.314   0.223  27.867  0.4121  0.2201 -0.1972
22497W        W23361   1.323   5.233  25.511 -0.1970  0.1455  0.2798
22498W        W23362   4.073  28.867   3.142  0.1840  0.1060 -0.0224
22499W        W23363  14.998   5.849   2.347 -0.2139  0.0758  0.1939
22500W        W23364  28.282  17.875  11.715 -0.0905  0.1524 -0.1796
22501W        W23365  28.704  25.956  20.199 -0.1270  0.0384 -0.1208
22502W        W23366   6.789   3.677   5.097 -0.0187 -0.1242 -0.2298
22503W        W23367  12.572  26.790  25.686 -0.0849  0.0292 -0.0986
22504W        W23368   3.717  21.774  12.948  0.0100  0.0855 -0.1822
22505W        W23369  13.525   9.292   3.004 -0.2735 -0.2810 -0.2115
22506W        W23370  27.103  16.203  19.098  0.0182 -0.1160  0.0102
22507W        W23371  23.827  26.902  15.670  0.1129 -0.0387  0.0089
22508W        W23372  24.051  27.651  26.638  0.1753  0.0111  0.3563
22509W        W23373   5.929  27.262  27.265 -0.1696 -0.0163 -0.1923
22510W        W23374   9.218   5.504  27.065 -0.0950 -0.0367  0.0707
22511W        W23375  17.886   8.409  23.742  0.0272 -0.1248 -0.3368
22512W        W23376  13.565  28.971  14.412  0.1106 -0.0563 -0.2263
22513W        W23377   9.346  25.381  20.632  0.0365 -0.2754 -0.1050
22514W        W23378  23.917  19.087  26.374 -0.3301  0.1684  0.1791
22515W        W23379  27.382   5.160  23.102  0.2524  0.0556  0.1647
22516W        W23380   2.958  27.782   1.061 -0.2026  0.1336  0.0206
22517W        W23381  22.082  19.252   2.601  0.1117 -0.0934  0.5066
22518W        W23382  19.278  28.590   3.215  0.0058  0.0694 -0.0696
22519W        W23383  21.195  20.853  27.734 -0.2077 -0.1585 -0.0482
22520W        W23384   4.549  19.698  19.974 -0.0943  0.0844 -0.0629
22521W        W23385  23.549  12.857  26.628 -0.1012 -0.2449  0.1087
22522W        W23386   2.418   0.141   4.601 -0.2822  0.3748 -0.0395
22523W        W23387  18.549  23.261   8.733  0.0107 -0.3107 -0.0776
22524W        W23388  12.339   3.584  24.351  0.0648 -0.1228  0.2056
22525W        W23389  25.188  27.980  26.418 -0.2687  0.1665 -0.1167
22526W        W23390  11.451  26.940  18.576 -0.0656 -0.2931  0.1032
22527W        W23391  24.124  17.964  20.087  0.0979 -0.1754 -0.2532
22528W        W23392  28.658  10.150   3.410 -0.1519 -0.2682  0.0103
22529W        W23393  19.610  23.488  21.228  0.1050 -0.2403  0.0563
22530W        W23394  29.051   5.721  17.130 -0.3100  0.1736  0.0688
22531W        W23395  14.561  12.367  27.311 -0.1315  0.1787  0.0404
22532W        W23396  11.225   8.456   5.716 -0.2485 -0.2815 -0.1400
22533W        W23397   4.318  26.325  15.421 -0.0059 -0.0480 -0.0092
22534W        W23398  26.333  19.066   9.616  0.1621  0.0428 -0.2422
22535W        W23399   2.698   0.210   1.948 -0.1428 -0.1246 -0.0030
22536W        W23400  28.520  15.885  15.345  0.4000 -0.0620 -0.0025
22537W        W23401   7.152  11.319   9.668 -0.1747  0.0118  0.1116
22538W        W23402   7.492  21.283  16.959 -0.2958 -0.2648  0.0328
22539W        W23403  25.929  20.971  22.084 -0.1290  0.2569 -0.2323
22540W        W23404  26.131  28.256  27.550 -0.0317  0.2661  0.3573
22541W        W23405  14.566  23.968   8.802 -0.0067  0.4672 -0.0464
22542W        W23406  15.399   8.061  27.856 -0.3662  0.2396 -0.0857
22543W        W23407  27.059  26.195   9.970  0.2166  0.0435 -0.0059
22544W        W23408  25.960   8.065   1.383  0.0130  0.0984 -0.0635
22545W        W23409   0.341  19.401  18.821 -0.0398  0.3662  0.1002
22546W        W23410  27.479   4.275  20.702 -0.0023 -0.2457 -0.1893
22547W        W23411  15.131  25.074  15.630  0.2810  0.2364  0.2349
22548W        W23412  27.460   2.948  13.787  0.0522  0.1237  0.1769
22549W        W23413  25.317  28.944  13.560 -0.0529  0.2280 -0.0642
22550W        W23414  28.542  26.393  27.276  0.1291  0.1988  0.2480
22551W        W23415  11.120  21.677   5.895  0.1746 -0.1934  0.2324
22552W        W23416   6.170  22.391  19.131  0.3152 -0.4851  0.1444
22553W        W23417   7.512  22.050  24.438 -0.1025  0.1111  0.0470
22554W        W23418  27.128  22.060  25.725  0.3868  0.0123 -0.1384
22555W        W23419   4.654  13.651  25.498 -0.0077  0.4652  0.2430
22556W        W23420   9.939  20.810  26.422 -0.3005  0.0863  0.1229
22557W        W23421  27.624  18.759  17.555 -0.1568  0.2806 -0.0900
22558W        W23422  21.434   7.293   1.510 -0.0867  0.1756 -0.0507
22559W        W23423  27.290  10.483   0.823  0.1026 -0.1951 -0.0585
22560W        W23424  28.444  20.752   2.309  0.1054  0.1583 -0.4489
22561W        W23425  25.871  22.364  19.562  0.1208 -0.1877 -0.1785
22562W        W23426   2.230  21.345  25.261  0.1745  0.1926  0.0306
22563W        W23427  27.022  16.751  10.378  0.0299 -0.0215  0.1759
22564W        W23428  28.190  28.514   2.149  0.0606 -0.3086 -0.0483
22565W        W23429   5.224   6.977  15.224 -0.0761  0.1766  0.0538
22566W        W23430  25.236  17.497   6.130 -0.0663  0.2116 -0.0260
22567W        W23431  26.972   2.488  10.797  0.0728 -0.1054  0.0669
22568W        W23432   1.546   2.957  14.835 -0.2068 -0.1206  0.1635
22569W        W23433   9.703  27.176  22.221 -0.2777 -0.1195 -0.0294
22570W        W23434   4.460   7.606   2.617 -0.0113 -0.1836  0.1818
22571W        W23435  16.883  14.050   3.503  0.1088  0.1222  0.0094
22572W        W23436  11.639  22.801   5.672 -0.1990 -0.0173  0.0956
22573W        W23437  27.156   4.728  26.857  0.0987  0.1562  0.0350
22574W        W23438   4.066  18.850  10.433  0.1182 -0.0867 -0.4966
22575W        W23439   6.749  17.051  21.976 -0.2055  0.0895 -0.1132
22576W        W23440  13.761  20.949  15.422 -0.1406 -0.0533 -0.1523
22577W        W23441   5.773  13.667  16.686  0.1483 -0.3566  0.3322
22578W        W23442   0.911  15.672  26.804 -0.0187  0.2879 -0.1697
22579W        W23443  10.927  13.577   7.204  0.0240 -0.0139 -0.1086
22580W        W23444  17.845  28.747  23.091  0.3241  0.2729  0.1750
22581W        W23445  15.463   2.598  28.572 -0.0793  0.0763  0.0390
22582W        W23446   7.521  14.021   6.558 -0.0839  0.0485 -0.1292
22583W        W23447  22.480   3.272  21.258 -0.0295 -0.0267  0.1268
22584W        W23448   0.690   2.482  10.930 -0.0807 -0.1537 -0.1360
22585W        W23449  17.318  15.027  12.599 -0.0460 -0.2107  0.0597
22586W        W23450   5.703  27.167  13.427 -0.1389 -0.1829  0.0075
22587W        W23451   4.796   8.550  22.952  0.1843 -0.0491  0.0142
22588W        W23452  24.253  13.179  18.465 -0.4865  0.2143 -0.0202
22589W        W23453   4.015  24.054  11.336  0.2045  0.0406 -0.0304
22590W        W23454  17.155  14.486  15.574 -0.3485 -0.1270  0.2775
22591W        W23455   4.569   8.778  18.575  0.1994  0.1710  0.3251
22592W        W23456   2.204   2.589   4.184 -0.0906  0.0983 -0.1035
22593W        W23457  10.286  13.651  14.451 -0.1575 -0.2210  0.0848
22594W        W23458  27.644   3.483   1.362  0.2544 -0.5005 -0.0803
22595W        W23459  21.096   3.768  13.357  0.0148  0.1276  0.2051
22596W        W23460  28.714  15.442  28.043  0.1134 -0.0237 -0.0006
22597W        W23461  25.305  10.609  16.520  0.1693  0.4090 -0.3555
22598W        W23462  12.509  15.431  24.340 -0.0128 -0.2043 -0.1419
22599W        W23463   2.740  24.778  25.515 -0.1229 -0.0125  0.0880
22600W        W23464   7.180   0.955  20.079  0.1739 -0.1350 -0.1325
22601W        W23465  24.763  25.977  18.128  0.2089  0.2146  0.3781
22602W        W23466  21.574  18.917  10.258 -0.1036  0.1960  0.2184
22603W        W23467  27.963   6.193  11.013  0.1246 -0.2599 -0.0973
22604W        W23468   8.638  16.730  20.264 -0.1381 -0.0681  0.2570
22605W        W23469   6.989  24.171   6.507 -0.4125 -0.2755 -0.0634
22606W        W23470  20.424   9.978  19.525 -0.2715  0.1690 -0.0303
22607W        W23471  21.307   1.483  28.654 -0.3759 -0.4389 -0.0110
22608W        W23472  11.741  27.175   8.215  0.1236  0.0500  0.1002
22609W        W23473  18.645  27.654  19.180 -0.0023 -0.0184  0.1238
22610W        W23474  26.358   5.398  14.476 -0.1324 -0.1346  0.3164
22611W        W23475  28.584  22.482   9.063 -0.2596 -0.3361  0.1507
22612W        W23476   6.787  14.361  24.005 -0.2912  0.0625 -0.0727
22613W        W23477  24.840  27.076   5.530 -0.1040 -0.3060 -0.0994
22614W        W23478   5.880   0.590   8.344 -0.0447  0.0013  0.4270
22615W        W23479   7.049   7.128   9.675  0.0494 -0.0560  0.0352
22616W        W23480   1.618  21.757  27.984 -0.1028 -0.3069 -0.0865
22617W        W23481  25.676   2.641  17.019  0.2204 -0.2152  0.0872
22618W        W23482  20.836  18.835  11.444 -0.2300  0.1277  0.1397
22619W        W23483  18.128  27.491  28.153 -0.1108  0.0011  0.0748
22620W        W23484  27.852  10.454   4.418  0.1152 -0.3314 -0.0652
22621W        W23485   5.915  12.136   9.072 -0.0614  0.1184 -0.1936
22622W        W23486   1.141   3.682  13.344  0.2985  0.0986 -0.0330
22623W        W23487   6.876  23.104   4.605  0.1630  0.0258 -0.0056
22624W        W23488  18.092  10.019  13.950 -0.1141  0.3201 -0.1980
22625W        W23489  16.323  11.433  12.871  0.1691 -0.2798  0.1412
22626W        W23490  21.589  23.533  21.895 -0.2068  0.0579 -0.0006
22627W        W23491  24.371   8.607   4.887  0.0398  0.1868 -0.0142
22628W        W23492  11.617   0.834  19.164 -0.0590  0.1012 -0.1217
22629W        W23493  26.560  22.327  12.954 -0.3710  0.0119  0.0714
22630W        W23494  25.589  28.210   1.115 -0.1182 -0.2692  0.0304
22631W        W23495  17.115   2.216  24.221  0.0013  0.2623  0.0699
22632W        W23496   7.096   5.967  20.062  0.1591 -0.0395  0.0763
22633W        W23497  19.229  21.469  12.228  0.1746  0.2184 -0.1743
22634W        W23498  11.669  20.104   6.520  0.3079  0.0852  0.0552
22635W        W23499   4.377  18.739  20.935 -0.2961 -0.1438 -0.1133
22636W        W23500  20.924  24.849  11.515  0.2904  0.0555  0.0052
22637W        W23501  21.071   3.236  14.409  0.0716 -0.0074  0.1844
22638W        W23502  13.872   6.547   4.284 -0.2248  0.2915  0.4269
22639W        W23503  27.593   3.278  14.593 -0.1342 -0.0075 -0.0436
22640W        W23504  15.299  10.678  10.026  0.2485  0.4669 -0.2714
22641W        W23505  21.945  17.995   5.061 -0.0310  0.0763  0.1896
22642W        W23506  28.475   4.589  27.710  0.4586  0.0681 -0.0078
22643W        W23507  11.851  18.146  23.895  0.3086  0.3106  0.1833
22644W        W23508   4.256  21.388   5.179 -0.0365  0.1664  0.0057
22645W        W23509  11.840  15.946  13.723  0.2435 -0.0530  0.1114
22646W        W23510   5.307  26.186  27.928 -0.1071  0.0147  0.1131
22647W        W23511  27.292  22.986   1.025  0.4059  0.0172  0.1247
22648W        W23512   6.748  24.994  23.252 -0.1147 -0.0141 -0.3327
22649W        W23513  15.455  20.783  14.351 -0.0212 -0.1761  0.1565
22650W        W23514  17.477  27.616  27.701 -0.1299  0.3036 -0.1653
22651W        W23515  15.150  28.726   4.017 -0.0796 -0.0536  0.2590
22652W        W23516  24.417  25.414  15.997  0.1176  0.0632 -0.0723
22653W        W23517  16.605  23.258   2.750  0.2229  0.0744 -0.1173
22654W        W23518  17.927   5.533  11.309  0.1288  0.0999  0.3669
22655W        W23519  13.002   0.342  26.755  0.0888  0.1287  0.3365
22656W        W23520   6.162  27.263   2.427 -0.2425  0.1097  0.3982
22657W        W23521  27.397   2.850   6.794  0.1886  0.1481 -0.0633
22658W        W23522  27.545   0.313  18.250 -0.2807 -0.1505 -0.0356
22659W        W23523  22.536  24.579  27.118  0.2868  0.0299  0.0929
22660W        W23524   2.379  11.074  26.352 -0.2043  0.0596  0.0634
22661W        W23525  23.068   4.377  21.422 -0.2365 -0.2044 -0.1808
22662W        W23526  16.325   3.394   3.888 -0.2438  0.0045 -0.0426
22663W        W23527   7.090  21.077  22.605  0.1304 -0.1092  0.1056
22664W        W23528  25.221  26.544  26.337 -0.2521  0.0286  0.2275
22665W        W23529  10.603  10.349  23.725  0.0787  0.2118  0.6142
22666W        W23530   5.938   4.452  12.670  0.0629 -0.1802  0.4442
22667W        W23531   2.378  27.935  17.650  0.0806 -0.1058 -0.0074
22668W        W23532   1.842  14.228  11.355  0.0260 -0.0492  0.2247
22669W        W23533  28.630  24.990   3.066 -0.1549  0.1364  0.1216
22670W        W23534   4.432  18.298  27.983 -0.1379 -0.0017  0.2358
22671W        W23535  20.803   0.386   2.974 -0.2630  0.2413  0.2100
22672W        W23536  10.197  13.975   2.050 -0.1263 -0.1666 -0.1003
22673W        W23537   2.587  25.314  18.969  0.1875  0.1803  0.1134
22674W        W23538  24.402  19.789  23.473 -0.0252  0.1110 -0.1568
22675W        W23539  19.655   2.789   1.004  0.3195 -0.0156  0.1693
22676W        W23540   3.454  24.976  25.824  0.0170 -0.0876 -0.0387
22677W        W23541  18.911  24.984   0.653  0.0527 -0.0167 -0.2959
22678W        W23542   2.581   5.641   5.005 -0.1090 -0.0803 -0.4453
22679W        W23543   4.488   5.860  16.173  0.1061  0.1608 -0.1798
22680W        W23544  15.619  10.913   5.493 -0.0493  0.2875 -0.0310
22681W        W23545   4.125   8.450  18.029  0.0614  0.0051 -0.1559
22682W        W23546   2.222   2.875  13.102 -0.0759  0.4276 -0.1258
22683W        W23547  27.143   8.188   9.592  0.0798 -0.0619  0.0261
22684W        W23548   4.681  13.826  10.317  0.0651  0.0590  0.1151
22685W        W23549   4.702  17.493  27.082  0.1021 -0.2286  0.1145
22686W        W23550  20.909  11.196  10.148  0.0171  0.0594  0.0481
22687W        W23551   5.156  20.255  10.231  0.3089 -0.1197 -0.1256
22688W        W23552  23.812  21.157  17.998 -0.2944 -0.2132  0.1722
22689W        W23553  26.898  26.925   4.045 -0.0069  0.0807 -0.3930
22690W        W23554  14.532  22.964  10.308  0.0511 -0.2404 -0.3283
22691W        W23555   0.838  21.407  20.640 -0.0703  0.2251  0.0651
22692W        W23556   7.849  16.042   1.878 -0.0384 -0.0284  0.2100
22693W        W23557   1.025   4.849   4.727  0.1614 -0.2603 -0.0036
22694W        W23558   0.590  11.858   7.807 -0.2311  0.3635  0.0381
22695W        W23559  26.617  28.845   9.254 -0.1236 -0.0250 -0.1474
22696W        W23560  11.718   1.789  27.325  0.1441  0.0831  0.0189
22697W        W23561  21.027  20.340   3.393 -0.0179 -0.0974 -0.0983
22698W        W23562   2.668   2.280   0.106 -0.1497  0.1931  0.2350
22699W        W23563  28.739  20.723   6.419 -0.1241  0.0037  0.1397
22700W        W23564   6.467  17.846  29.089  0.3929 -0.2801  0.1296
22701W        W23565   6.155  22.220  15.498  0.0708 -0.0922  0.3321
22702W        W23566  11.285  14.302  23.230 -0.1330  0.0283  0.2705
22703W        W23567  12.748   3.768  24.084 -0.0488 -0.1519  0.2603
22704W        W23568   6.865  10.412  24.467  0.3105  0.0238 -0.1370
22705W        W23569  24.786  27.056  16.631 -0.1775  0.1794  0.1797
22706W        W23570   4.758  20.723   3.386  0.1872  0.0476 -0.1121
22707W        W23571  24.099  22.553  16.621  0.0929 -0.0476 -0.0227
22708W        W23572  25.166  28.333  26.849  0.0987 -0.3187 -0.1921
22709W        W23573   3.386  23.848  17.502  0.1250  0.2844 -0.1620
22710W        W23574   4.204  20.488  12.693  0.4311 -0.1057  0.1331
22711W        W23575   5.458  16.964   8.037 -0.1187 -0.0006  0.1047
22712W        W23576   1.601   6.309  26.482  0.0353  0.2664  0.0786
22713W        W23577   8.233  24.965  26.075 -0.0728 -0.0073  0.0684
22714W        W23578  14.813  28.366  29.002 -0.0354  0.1554  0.0187
22715W        W23579   4.947  22.462   5.867 -0.0680  0.2522  0.1742
22716W        W23580  21.360  24.179  21.715 -0.0734  0.3322  0.0670
22717W        W23581  28.816  15.389  12.857 -0.3491 -0.3680 -0.3570
22718W        W23582   7.078   3.249  24.765  0.0345  0.0255 -0.0582
22719W        W23583  10.178   6.805  22.886 -0.2629 -0.3347 -0.1404
22720W        W23584  15.027  18.880  13.950  0.3370 -0.1745 -0.2727
22721W        W23585   7.900  19.134  25.720  0.2816  0.0866 -0.0874
22722W        W23586  19.962   5.264   5.334  0.0462  0.1389  0.0311
22723W        W23587   1.175  27.119  21.507  0.0483  0.2507  0.2564
22724W        W23588  26.676  20.647  25.928 -0.2802  0.0105 -0.0624
22725W        W23589   6.184  27.696  11.588 -0.1230  0.1040 -0.0775
22726W        W23590   3.985   4.660   8.937  0.2342  0.1271  0.0084
22727W        W23591   7.637  14.982   8.081 -0.0327 -0.1324  0.1375
22728W        W23592  27.766  18.607  14.797  0.0403 -0.2054  0.0696
22729W        W23593  15.952   8.947  13.444 -0.0939  0.1042 -0.3163
22730W        W23594   5.314   1.378   7.059  0.2807 -0.2080 -0.0161
22731W        W23595   9.180  28.343   5.299 -0.0587 -0.0449  0.2025
22732W        W23596  15.424  10.649   4.066 -0.1998 -0.0862  0.0229
22733W        W23597   1.835  14.346  12.052  0.0499  0.0638  0.1583
22734W        W23598  24.582  26.338  28.743  0.1477  0.2971  0.3087
22735W        W23599   5.767   6.379  19.411 -0.4860 -0.1797 -0.2005
22736W        W23600  14.654  24.680  26.637  0.0067 -0.0455  0.1385
22737W        W23601  25.174   3.737  28.967  0.1627  0.0149  0.0895
22738W        W23602   3.299  20.370   3.046 -0.2252 -0.1516 -0.0879
22739W        W23603  17.220  11.172   4.160 -0.4839 -0.0135  0.2620
22740W        W23604   5.862   1.595  21.736 -0.3532  0.3606  0.0391
22741W        W23605   4.256  22.982  18.654  0.0307  0.2951 -0.0188
22742W        W23606   1.049   2.832   5.508 -0.0874 -0.2616  0.1013
22743W        W23607  23.881  17.665  21.422 -0.0736 -0.0154 -0.0078
22744W        W23608   2.769  26.875  22.216 -0.1366  0.0552 -0.2947
22745W        W23609  28.667   3.881  11.046 -0.2131 -0.1650  0.1554
22746W        W23610  10.985  15.804   5.848 -0.1342  0.2326  0.0426
22747W        W23611   0.431  17.376  26.471  0.0555 -0.0226 -0.1226
22748W        W23612   3.209  19.988  17.969  0.2749  0.0247  0.2081
22749W        W23613  11.638  22.558  27.585  0.3872  0.1418  0.2131
22750W        W23614  20.135  19.463   7.460  0.1625 -0.0554  0.0391
22751W        W23615   3.083   5.833  18.635  0.1352  0.2578 -0.0793
22752W        W23616   8.384  26.522  25.567 -0.2071  0.1251  0.2174
22753W        W23617   7.094  15.833  17.654  0.0174  0.1023 -0.0081
22754W        W23618  17.104   3.162   5.569 -0.0004  0.1103  0.1379
22755W        W23619  25.257  11.541   7.520 -0.0993 -0.4039  0.0923
22756W        W23620  17.355  26.718  15.097 -0.0084  0.1881 -0.1244
22757W        W23621  23.496  19.314   9.545 -0.1085  0.0405  0.0717
22758W        W23622   6.951  15.393   1.630 -0.0422 -0.1629 -0.1867
22759W        W23623   3.075   9.358  15.441 -0.2831 -0.0046 -0.1588
22760W        W23624  26.086   1.892  21.796 -0.1652  0.0245 -0.1933
22761W        W23625  24.964  26.462   1.678  0.0541 -0.2299 -0.2796
22762W        W23626  20.975  24.575   2.975 -0.5257 -0.1917  0.1545
22763W        W23627   8.606  17.259  24.229 -0.0224  0.1174  0.1362
22764W        W23628  27.375   1.590  15.057  0.0093 -0.0426  0.1270
22765W        W23629  18.202  22.601  26.442 -0.0595  0.1671 -0.0019
22766W        W23630  21.814  20.541  22.719  0.0488 -0.0984 -0.2136
22767W        W23631  23.855  27.735  19.545  0.1414  0.1490  0.2283
22768W        W23632   5.276  11.903  15.484  0.0237 -0.3362 -0.1103
22769W        W23633   5.849  22.322  28.869 -0.0910 -0.0833 -0.1322
22770W        W23634   6.316  20.315  25.483 -0.3769  0.0635  0.1406
22771W        W23635  18.095  22.972  16.379  0.0432 -0.2233 -0.2159
22772W        W23636   1.594  10.506  10.277 -0.0840 -0.0110  0.0270
22773W        W23637   0.204   8.387   8.184  0.0068  0.1965 -0.0174
22774W        W23638  23.187  23.462   0.867 -0.1415  0.1409  0.0727
22775W        W23639  18.001  21.293   0.645 -0.0019  0.3821  0.3044
22776W        W23640  10.183  11.365   4.933  0.3007 -0.2886  0.2798
22777W        W23641  24.441  20.286  27.771  0.0357  0.1091 -0.3975
22778W        W23642   9.270  26.175  28.358  0.3786 -0.1450  0.1015
22779W        W23643  10.205   3.070   5.310 -0.2008 -0.1021  0.1056
22780W        W23644  23.865   7.824   4.753  0.0999 -0.2261  0.1479
22781W        W23645   9.098   0.264   5.028  0.1520  0.1027  0.4421
22782W        W23646   0.904  18.424   6.794 -0.2677  0.1436  0.0855
22783W        W23647   1.725  24.075   3.747  0.1498 -0.0097  0.2797
22784W        W23648   3.360  26.715   9.111 -0.0048 -0.3195 -0.1081
22785W        W23649  26.487   5.802  24.725 -0.0329  0.1932 -0.1287
22786W        W23650  27.711  28.714  10.246  0.1027 -0.2267  0.1432
22787W        W23651  23.394  28.784  15.545 -0.0931 -0.2082 -0.1974
22788W        W23652  15.464  21.546   2.281  0.0578  0.3878 -0.1810
22789W        W23653  14.112   5.053  23.801 -0.0368 -0.1588 -0.1185
22790W        W23654   8.111  27.778  24.669  0.0638 -0.1425 -0.0498
22791W        W23655   6.448   2.735   6.345  0.1592 -0.0577 -0.0002
22792W        W23656  15.677  11.355  17.646 -0.1666 -0.3130 -0.1308
22793W        W23657   7.479  22.017   6.729 -0.1259  0.2304  0.0299
22794W        W23658  19.052   9.589  21.387  0.0266 -0.0895  0.0710
22795W        W23659  12.788   2.313   4.094  0.0658 -0.0299 -0.3306
22796W        W23660  14.623  28.235  14.643  0.0407  0.0249 -0.1491
22797W        W23661  27.870  24.580   4.689  0.2503 -0.0120  0.0894
22798W        W23662  25.007  18.736  11.530  0.0589 -0.1710 -0.3844
22799W        W23663  17.940   5.234  18.877 -0.2084 -0.1701  0.0824
22800W        W23664  14.211  13.712  13.965 -0.2367 -0.2203 -0.1640
22801W        W23665  26.174   2.179   0.900 -0.0522 -0.0250  0.4544
22802W        W23666   8.368  22.931   6.817  0.0308  0.0473 -0.1408
22803W        W23667  20.731  14.723  25.962 -0.0447 -0.0169  0.1422
22804W        W23668   8.859   0.373  19.584  0.2770 -0.1733 -0.0395
22805W        W23669  15.784  11.042   4.904 -0.1120  0.0720  0.0107
22806W        W23670   8.817   8.607   3.328 -0.1605 -0.1018  0.0074
22807W        W23671  25.154   8.099  13.348  0.0316 -0.0144  0.3064
22808W        W23672  28.230  11.909  12.895  0.0737 -0.1910 -0.3471
22809W        W23673  27.789  23.373  15.266 -0.0930  0.3699 -0.2016
22810W        W23674  17.340  21.299   6.449 -0.0599  0.3641 -0.0322
22811W        W23675  21.744   0.555   2.827 -0.1139 -0.1187 -0.0641
22812W        W23676  24.626  25.990   7.002 -0.2803 -0.2612  0.0774
22813W        W23677   3.612  17.278  10.333  0.3445  0.1762 -0.2295
22814W        W23678  22.750  26.545   2.434  0.0586  0.3907 -0.0236
22815W        W23679   9.986   3.919  10.347  0.2501 -0.1667 -0.0941
22816W        W23680  12.078  25.498  21.637  0.1518  0.1927  0.0425
22817W        W23681  22.303  19.341   6.814  0.3194 -0.1264 -0.6313
22818W        W23682   4.976  27.914  26.917  0.0476 -0.0056  0.0907
22819W        W23683   6.293  25.345   4.937  0.1273  0.1759  0.0106
22820W        W23684   8.674  27.350  24.146 -0.0744 -0.1946  0.2049
22821W        W23685   2.091  21.862   0.296 -0.0516  0.2423 -0.1885
22822W        W23686  13.810   2.137  10.747 -0.0326 -0.0358 -0.0513
22823W        W23687  13.667  28.654  10.468  0.1776  0.3613 -0.0905
22824W        W23688  28.026  24.407  23.805 -0.1988  0.3089 -0.0820
22825W        W23689   7.525  14.465   8.527 -0.0654  0.0191 -0.1547
22826W        W23690  22.929  15.799  21.076 -0.1286 -0.1119  0.2435
22827W        W23691   1.431   2.443  19.997  0.3901  0.2334 -0.2978
22828W        W23692  22.670  23.321  28.907  0.2320 -0.2255  0.1301
22829W        W23693  15.358  26.676  15.453 -0.0748  0.0408  0.1480
22830W        W23694   6.761  13.796   2.021  0.0730 -0.3299 -0.1186
22831W        W23695  25.731  11.084  18.294 -0.2090 -0.1780  0.2194
22832W        W23696  10.109  10.985  13.009  0.1550 -0.1377  0.1691
22833W        W23697  27.168  25.361   0.999  0.0268  0.2236  0.1656
22834W        W23698   5.146  13.696  18.353  0.2783 -0.3844  0.3150
22835W        W23699  25.358   5.946   3.448  0.0371 -0.1503  0.1393
22836W        W23700  13.083   2.439   5.610 -0.0183  0.0083 -0.0563
22837W        W23701  25.208  23.600   6.159  0.2689  0.0675  0.0996
22838W        W23702  14.080  10.565   1.111  0.1793  0.1785 -0.0713
22839W        W23703  19.362   4.133  20.768  0.2076 -0.0800 -0.1736
22840W        W23704   2.760   9.634   8.513  0.0093 -0.0464 -0.3037
22841W        W23705  27.576   6.066  28.677 -0.1442 -0.2236 -0.0641
22842W        W23706   2.443  26.770   8.590 -0.1272  0.1744 -0.1385
22843W        W23707  26.828   1.673   8.239  0.2960  0.1135  0.0192
22844W        W23708   5.011  10.378   2.271 -0.0452  0.1124 -0.0311
22845W        W23709  24.738  20.709   7.509 -0.0695 -0.3205 -0.0012
22846W        W23710  27.826   0.442  12.261  0.2421 -0.1252 -0.2659
22847W        W23711  14.195   0.426   0.423 -0.1541  0.1185 -0.1152
22848W        W23712   2.754  23.026  19.938 -0.1147 -0.0057 -0.1270
22849W        W23713  29.002  12.880   6.189 -0.1305  0.2431  0.0708
22850W        W23714  26.819  25.397  14.142  0.1370 -0.0340  0.0466
22851W        W23715  26.767  18.224  16.706  0.0569  0.3602  0.0620
22852W        W23716  13.756  17.520   8.749  0.2703 -0.0136  0.1003
22853W        W23717   3.835  28.404  25.334  0.1801 -0.1016 -0.0729
22854W        W23718  20.467   7.357   7.358 -0.1212 -0.1392  0.1919
22855W        W23719  20.592  16.596  12.378  0.2360 -0.1060  0.0972
22856W        W23720  21.992  11.867  21.643 -0.2846  0.2311  0.0234
22857W        W23721  20.754  10.076  14.007  0.0119  0.0759 -0.0500
22858W        W23722   4.594  22.699   3.887 -0.0672 -0.1963  0.2434
22859W        W23723  29.084   6.249  28.508 -0.3454  0.0493 -0.1025
22860W        W23724   1.493  21.128  14.658  0.2603 -0.0505 -0.0038
22861W        W23725  11.176  25.873   5.753  0.1273 -0.0644 -0.2415
22862W        W23726   7.140  27.585   5.153  0.1345  0.0220  0.0271
22863W        W23727   2.773  13.211   2.076  0.0440  0.3970 -0.0709
22864W        W23728  12.654   0.130   4.384  0.0750 -0.0459 -0.0678
22865W        W23729  28.648  14.520  29.086 -0.1059  0.2984  0.1706
22866W        W23730   3.846   7.834   6.173  0.0489  0.0054  0.0694
22867W        W23731   7.157  10.026   8.594  0.1301 -0.4257  0.2298
22868W        W23732   3.762  28.345  11.911  0.1478 -0.1163 -0.2266
22869W        W23733  13.181   9.047  11.397 -0.2458 -0.1537  0.2895
22870W        W23734   6.293  16.525  21.598 -0.0577  0.2337  0.0505
22871W        W23735   2.238  24.533  11.006  0.1916 -0.0525  0.0549
22872W        W23736  25.483  26.768  26.741 -0.0778 -0.1050  0.1148
22873W        W23737   8.519  24.492  19.790  0.0665 -0.1428 -0.2868
22874W        W23738  24.710  20.840  10.125  0.0538  0.1259  0.0728
22875W        W23739   0.895  27.684  11.809 -0.2673  0.1918 -0.1032
22876W        W23740  28.459   9.814  11.952  0.0677 -0.3625 -0.0057
22877W        W23741   4.620  26.836   9.402  0.1698  0.0558 -0.0053
22878W        W23742   9.754   2.548  24.350  0.1775 -0.0453  0.0174
22879W        W23743  13.969   9.149   1.021 -0.0433  0.1463  0.1684
22880W        W23744   3.287   9.595   6.130  0.1890  0.0069 -0.1466
22881W        W23745  20.903  25.815  22.454 -0.0468  0.0499 -0.0388
22882W        W23746   0.644  14.600  26.066  0.4544 -0.1109  0.0806
22883W        W23747  11.148  16.422  12.966  0.2239 -0.0439  0.2110
22884W        W23748  10.873  22.743   8.825 -0.2406 -0.0761  0.1886
22885W        W23749   9.711  26.475  18.936  0.0049 -0.1592  0.1012
22886W        W23750   8.079   1.943   7.155 -0.4514 -0.1985 -0.0743
22887W        W23751   8.192   8.612   4.826  0.3669  0.3127  0.0364
22888W        W23752  28.231  12.845   7.237 -0.3312  0.0875 -0.1722
22889W        W23753   1.939  21.980  18.817  0.0679 -0.2948 -0.0113
22890W        W23754  20.877  24.962   6.320  0.0257 -0.1866 -0.2337
22891W        W23755   9.077  16.286   3.790 -0.1477  0.0138  0.1330
22892W        W23756  23.037   7.988  23.511 -0.1095 -0.2536 -0.1814
22893W        W23757   5.814  17.714   0.805 -0.1400 -0.5474 -0.1886
22894W        W23758  13.772  28.826  26.591  0.1319 -0.1631 -0.1339
22895W        W23759   4.727  10.611   4.478 -0.3135  0.0140 -0.2534
22896W        W23760   5.454  22.936  20.910 -0.1752 -0.4330 -0.0043
22897W        W23761   9.767   3.257   0.950  0.0309 -0.2822 -0.1361
22898W        W23762   0.777   1.691  19.253  0.1779 -0.0278  0.2658
22899W        W23763   5.026  24.484  19.161  0.1971  0.2693  0.1887
22900W        W23764   3.140  11.042   6.906 -0.0317  0.1514  0.1092
22901W        W23765  15.621  22.882   7.636  0.3277 -0.2094  0.0005
22902W        W23766   7.686   5.696  26.362  0.1978 -0.0151  0.1155
22903W        W23767   2.483  13.110  27.386 -0.0667 -0.1973 -0.1480
22904W        W23768  10.114  24.240  27.632  0.0876  0.0314 -0.0136
22905W        W23769  10.917   8.096  21.987 -0.0789  0.3619 -0.0567
22906W        W23770   0.661   4.139   1.631 -0.0887 -0.0214 -0.0878
22907W        W23771  29.121  25.637   6.361 -0.0929  0.0679  0.0473
22908W        W23772   3.086  17.502  14.580  0.1329 -0.0653 -0.0992
22909W        W23773   0.061  24.061  17.112  0.0507 -0.2269 -0.2147
22910W        W23774  11.991  25.671  18.624  0.0321 -0.0242  0.2341
22911W        W23775   3.806  18.599   3.316  0.2616  0.1111  0.2064
22912W        W23776  13.467  18.643  18.381  0.1577  0.1272 -0.1087
22913W        W23777  22.973  11.684   5.733  0.0277 -0.0682 -0.1155
22914W        W23778  27.424   4.736   2.147 -0.4517 -0.1089 -0.0132
22915W        W23779   7.110   3.707   2.011 -0.0266  0.2326  0.1855
22916W        W23780  24.746  21.097   5.784 -0.2512  0.0538 -0.2048
22917W        W23781  24.366  15.344  14.026  0.0580 -0.2204  0.1250
22918W        W23782  17.375   8.313  23.894  0.3954 -0.4214  0.1274
22919W        W23783  26.759  20.423  26.536  0.0792  0.3196 -0.1747
22920W        W23784  13.419  13.361  28.510 -0.0187  0.0237 -0.0452
22921W        W23785  29.085  10.666  16.642 -0.0301  0.0712 -0.0670
22922W        W23786  22.372   6.652  22.473  0.0922  0.1145 -0.1526
22923W        W23787  27.796   5.558   6.373 -0.3282 -0.1370  0.1754
22924W        W23788  17.634  10.628  17.149 -0.2038 -0.3784 -0.2247
22925W        W23789  14.649  23.767  12.530 -0.1124 -0.0661 -0.3551
22926W        W23790  14.994  26.917   9.610 -0.0932 -0.1076  0.1126
22927W        W23791   3.296  10.460  17.452  0.1450 -0.1056 -0.0238
22928W        W23792  12.615  14.586   2.821  0.1688 -0.0552 -0.0778
22929W        W23793  12.523  22.064  24.165  0.0572  0.0371  0.2993
22930W        W23794   2.303  18.240  22.381 -0.0539  0.1809 -0.1609
22931W        W23795  14.452  14.141  11.593  0.1282 -0.0763  0.2129
22932W        W23796   0.576   4.549  28.234 -0.0856  0.2187  0.2288
22933W        W23797   4.084  23.488   4.353 -0.0433 -0.3337  0.2014
22934W        W23798   0.486  28.107  14.822  0.0602 -0.1272  0.2652
22935W        W23799  21.429   3.788  26.719 -0.2504 -0.2684 -0.3051
22936W        W23800  12.307  18.127  24.128 -0.0399  0.1713  0.1815
22937W        W23801  13.440  13.838   6.675 -0.4449 -0.4191 -0.0529
22938W        W23802  26.485   1.364  19.201  0.3770  0.0614 -0.3101
22939W        W23803  16.912  10.046  26.826 -0.2958  0.1866  0.1250
22940W        W23804  14.937   4.275  18.268  0.2058 -0.0340  0.1487
22941W        W23805   1.115   9.547   2.838 -0.2023 -0.0823 -0.2657
22942W        W23806  28.552  15.211  27.586  0.3198 -0.1017 -0.0560
22943W        W23807   0.051  11.105  11.832  0.1542 -0.1283 -0.0886
22944W        W23808   6.261  25.288   9.027 -0.0153 -0.0995  0.0964
22945W        W23809  21.666  25.053  23.798  0.0463  0.0488  0.1067
22946W        W23810   7.255  24.306  20.360 -0.2232  0.0555 -0.0711
22947W        W23811  28.787  25.580  11.080  0.1874 -0.0816  0.1285
22948W        W23812  18.321  24.046   2.597  0.0909 -0.2982  0.0720
22949W        W23813   2.204  17.358  29.134  0.0460  0.0525  0.0535
22950W        W23814  11.471  22.766   8.436 -0.0082  0.1949  0.0417
22951W        W23815  13.478  17.489   5.744  0.1319 -0.1585 -0.2338
22952W        W23816   9.890   4.037  14.668  0.0599  0.2364  0.1275
22953W        W23817  11.941  24.834  18.932  0.4782 -0.1288 -0.0054
22954W        W23818   2.883   9.091  16.163 -0.1491 -0.0782 -0.0523
22955W        W23819   4.426  21.023  16.029  0.1942 -0.1111  0.2721
22956W        W23820  11.521  16.382  16.375 -0.1131 -0.0013 -0.1091
22957W        W23821   3.426   3.892   8.658  0.1711  0.1049  0.0307
22958W        W23822   0.280  19.385  28.502 -0.0140  0.0056  0.1483
22959W        W23823  16.699  13.037   5.003 -0.2047  0.2891 -0.0157
22960W        W23824   2.945   0.029  14.962  0.2099 -0.0373  0.2431
22961W        W23825  18.476  19.830   1.776 -0.2362 -0.0548  0.0677
22962W        W23826  28.307  23.720  11.804  0.0217 -0.2304  0.2120
22963W        W23827   1.063   6.731  22.292 -0.1433 -0.3235 -0.1834
22964W        W23828  15.842   0.922  27.539  0.2191  0.0999 -0.1793
22965W        W23829  10.698  11.647   9.617 -0.1247  0.2125 -0.0940
22966W        W23830   2.201  27.695   0.498  0.2311 -0.0410  0.3308
22967W        W23831   3.787  20.556  13.113 -0.1366  0.1644 -0.3354
22968W        W23832  17.745  15.033  21.410 -0.0908  0.1879 -0.1123
22969W        W23833   8.884  12.789  23.757  0.0532 -0.3036 -0.2117
22970W        W23834  14.089  17.823   4.977 -0.2019  0.1075  0.3108
22971W        W23835  13.553   2.295  20.811 -0.0852  0.0759  0.1458
22972W        W23836  22.506  18.073   7.969 -0.2670 -0.2070 -0.0606
22973W        W23837  27.973  21.578  19.895 -0.0727 -0.0938  0.1623
22974W        W23838   1.659   7.992  24.943  0.1618  0.1097 -0.0245
22975W        W23839  13.221  16.772   3.758  0.0187  0.3322  0.0760
22976W        W23840  13.904   6.951  21.064 -0.1436 -0.0366 -0.0070
22977W        W23841   7.577  25.442  25.032  0.3147 -0.1857 -0.1117
22978W        W23842  11.607  27.466  25.751  0.2339 -0.3833 -0.5499
22979W        W23843  19.284   2.446   8.811  0.0200  0.0412 -0.0897
22980W        W23844  10.900   6.062   0.181 -0.0928 -0.2767 -0.0762
22981W        W23845   0.435  20.428   3.623 -0.1304  0.1500  0.1711
22982W        W23846  20.554  27.141   4.816 -0.1580 -0.0279 -0.1855
22983W        W23847   7.695  17.687  14.293 -0.0669 -0.1640  0.5532
22984W        W23848  24.935   2.289  20.155  0.3696  0.0251 -0.0834
22985W        W23849   1.317  25.248   6.645 -0.1390 -0.0774  0.1510
22986W        W23850  17.697  15.233   7.750 -0.1932 -0.2532 -0.2054
22987W        W23851  12.710   4.760  25.617  0.0993  0.0939  0.1511
22988W        W23852  25.528  24.573  23.495 -0.0581  0.0668  0.1263
22989W        W23853   4.925  16.039   6.015  0.0477 -0.0889 -0.0182
22990W        W23854   3.815   1.936  18.828 -0.0933  0.0470  0.0853
22991W        W23855  13.523   4.990  19.537  0.0989  0.1032 -0.1846
22992W        W23856   9.218  13.306   3.553 -0.2264 -0.2724  0.3232
22993W        W23857   0.502   7.787  16.179  0.4041 -0.0807  0.1422
22994W        W23858  20.509   5.019  16.330 -0.0784 -0.1857  0.3279
22995W        W23859   9.208  26.826  25.292  0.2169  0.0067 -0.0130
22996W        W23860   4.077   3.450   0.478 -0.0634  0.0762  0.0484
22997W        W23861  21.776   7.270  20.208 -0.0413 -0.0623 -0.1718
22998W        W23862  19.281  23.145   3.118  0.2618  0.0069  0.0548
22999W        W23863  11.654   3.527   0.774  0.0330  0.0049 -0.1379
23000W        W23864  23.330  23.312  28.426 -0.0757  0.1589 -0.1534
23001W        W23865  27.887   8.567   6.519 -0.4521  0.0376  0.0175
23002W        W23866  28.960   5.383   9.674 -0.0139  0.2438  0.0001
23003W        W23867  13.611  25.521  23.247  0.0746 -0.1252 -0.0796
23004W        W23868   1.413  16.680  10.813  0.2742 -0.1498 -0.1298
23005W        W23869  12.381  10.821  13.158  0.2776 -0.2372  0.4583
23006W        W23870   8.895  22.718   3.824 -0.1101 -0.2580 -0.1694
23007W        W23871   7.181  26.310  14.476  0.0610  0.2605 -0.0706
23008W        W23872  28.388  22.839   4.917  0.0518 -0.0813  0.2450
23009W        W23873   4.849   2.809  23.378 -0.2975  0.0087  0.1872
23010W        W23874  16.314  27.032  14.275 -0.0656 -0.3584 -0.1158
23011W        W23875  11.560   8.837  27.251  0.0464  0.1765  0.1502
23012W        W23876   3.532  16.115   4.032 -0.0905 -0.1607  0.0489
23013W        W23877  16.400  24.542   1.848  0.1107 -0.1045 -0.1813
23014W        W23878   5.928   8.774   2.534  0.0248  0.2018  0.1461
23015W        W23879   2.703  23.535  20.604 -0.2197  0.1125 -0.1126
23016W        W23880  10.562  23.679   6.361  0.2202  0.6458  0.3023
23017W        W23881  17.340  27.210  24.987 -0.0656 -0.0215  0.2409
23018W        W23882  11.614  10.439  26.788  0.4532  0.2183  0.2241
23019W        W23883  17.265   9.952  20.738  0.1424 -0.1956  0.4048
23020W        W23884   1.037   4.990   0.336 -0.0094  0.2038  0.1179
23021W        W23885  28.205  19.238  19.818 -0.0697  0.1182  0.2350
23022W        W23886  10.991  28.642  13.079 -0.2783 -0.0440 -0.1060
23023W        W23887  26.791  21.964   8.519 -0.1856 -0.0023 -0.0645
23024W        W23888  18.755  14.534   0.337 -0.1231 -0.0445 -0.1316
23025W        W23889   3.809  28.858   3.629 -0.0264 -0.1199  0.1950
23026W        W23890  10.889   4.482  28.485 -0.1390  0.0566 -0.0949
23027W        W23891  18.444  18.565  15.310  0.0309 -0.1224  0.2823
23028W        W23892   6.660  23.885  13.932 -0.3328 -0.1732  0.2792
23029W        W23893  12.068   4.651   1.295  0.2337 -0.2173  0.1897
23030W        W23894   8.031  11.587   5.790 -0.0438  0.0556  0.0216
23031W        W23895  27.204  25.122   4.364  0.0803  0.0034  0.0643
23032W        W23896   3.357  27.030   6.891 -0.2314 -0.0213  0.0213
23033W        W23897  22.870  20.396  14.180  0.1023  0.0790  0.3371
23034W        W23898   5.579  23.898   2.165 -0.2225 -0.1008 -0.1002
23035W        W23899  20.218  24.431   5.755  0.0339 -0.1684  0.1179
23036W        W23900   1.139   9.704  20.969  0.1147  0.0963  0.2216
23037W        W23901  23.794   2.314  17.153  0.3504 -0.0131 -0.1916
23038W        W23902  23.358  17.706  17.115 -0.2967  0.0170 -0.2152
23039W        W23903  27.921   7.370   0.368  0.0119  0.2488 -0.0023
23040W        W23904  16.094  23.817   5.545  0.0599 -0.4606  0.3244
23041W        W23905   9.228  25.979  22.806  0.1197 -0.0803 -0.1324
23042W        W23906   5.716   5.976   4.906  0.2186  0.1044 -0.1899
23043W        W23907  17.322  28.010  18.707 -0.1662  0.3420  0.0702
23044W        W23908   9.550   6.491  22.811  0.1433  0.2270  0.0721
23045W        W23909   3.964  11.954  18.469  0.1819 -0.4574 -0.2022
23046W        W23910  16.922  23.456   4.350 -0.0356  0.1808  0.2559
23047W        W23911   5.344   5.545  27.581 -0.1395 -0.0804 -0.1516
23048W        W23912   2.403   6.081  16.186  0.1418 -0.0920 -0.0829
23049W        W23913  28.652  17.551  20.577  0.1187  0.2698 -0.0667
23050W        W23914  28.301  13.200   2.347 -0.0051 -0.0015 -0.2919
23051W        W23915  26.195   3.321   9.520 -0.2585 -0.2517 -0.0660
23052W        W23916   0.841  16.966   4.958 -0.2929  0.1095 -0.1711
23053W        W23917   2.734  10.443  10.097 -0.3141  0.2498  0.1619
23054W        W23918   4.164   3.348  22.138 -0.1007  0.0060  0.0882
23055W        W23919   0.499  28.587   1.086 -0.2482  0.0022 -0.0146
23056W        W23920  28.792   2.339  26.159 -0.0305  0.2599  0.0341
23057W        W23921  12.679  24.549   3.268  0.1762  0.0928  0.0142
23058W        W23922  14.310  10.121   8.825 -0.4419  0.0196 -0.2609
23059W        W23923  24.423  23.975  23.344 -0.1678 -0.1068  0.1395
23060W        W23924   3.382   1.238  16.204  0.1884  0.2529 -0.2978
23061W        W23925  21.269   9.902  27.397 -0.1326  0.1549 -0.1463
23062W        W23926  29.029  26.285  20.818  0.1114  0.1681  0.2768
23063W        W23927  24.981   0.040  26.978 -0.1027  0.1212  0.0691
23064W        W23928   8.323  17.238  12.715  0.0697  0.0531 -0.5305
23065W        W23929   2.509  27.119   2.903  0.0931 -0.0098 -0.0524
23066W        W23930   6.390  23.947   1.576  0.0186 -0.3598 -0.0330
23067W        W23931  18.385  17.325   1.667  0.2183  0.0788 -0.0168
23068W        W23932  20.192  19.023   0.426  0.1870 -0.1410 -0.0859
23069W        W23933  12.390  10.401  17.341  0.1519 -0.1100 -0.0315
23070W        W23934  20.407   2.382   2.378  0.0295 -0.0124 -0.0039
23071W        W23935  25.483   5.353  15.598 -0.2426 -0.1745 -0.1313
23072W        W23936  22.370   4.720  28.064 -0.2176 -0.1774 -0.2043
23073W        W23937   5.967   9.840  10.665  0.0271 -0.2673  0.2321
23074W        W23938   1.124  18.278   1.144  0.0640 -0.0128  0.1234
23075W        W23939  10.223  24.867   9.600  0.0893 -0.0216 -0.0051
23076W        W23940  11.990   4.752  14.537 -0.2252 -0.2147 -0.1046
23077W        W23941   5.607  21.375  27.582 -0.2799 -0.0523  0.1801
23078W        W23942  12.024  20.718  26.740  0.0521  0.1195 -0.3137
23079W        W23943   6.302   3.923  27.304  0.0824  0.1337  0.1888
23080W        W23944  21.551  25.945   4.850 -0.1938  0.0374  0.2866
23081W        W23945   7.614  27.788   9.029 -0.0684  0.0311  0.1453
23082W        W23946  27.476   6.697  16.312 -0.5104 -0.2996 -0.2070
23083W        W23947   6.148  17.589  16.192 -0.0662 -0.2467 -0.3114
23084W        W23948   3.921  20.302   7.782  0.1165  0.1445 -0.0407
23085W        W23949  19.568  25.457   8.677 -0.4009  0.0257 -0.1226
23086W        W23950  15.111   0.834   6.360  0.2778  0.1196  0.1534
23087W        W23951  15.409  25.797  10.932  0.1028  0.0139 -0.1305
23088W        W23952  20.099  19.745   2.022 -0.0034 -0.1798 -0.0819
23089W        W23953   6.422  27.414  22.613 -0.2455  0.0780  0.0566
23090W        W23954   6.647  21.402   4.758  0.0288  0.2063 -0.1512
23091W        W23955  15.215   8.017  12.913  0.0125 -0.2561 -0.0285
23092W        W23956  21.580  15.306  15.410 -0.2578  0.3835 -0.4910
23093W        W23957  12.955  27.963  12.332  0.0519 -0.1845  0.0413
23094W        W23958  28.323  20.262  14.384  0.1412 -0.0702  0.1060
23095W        W23959  20.441  26.765   3.864 -0.1200  0.0137  0.1063
23096W        W23960  16.585  23.025  26.708 -0.0874  0.1085 -0.1044
23097W        W23961  18.354   6.320   1.470 -0.0037  0.0731  0.0360
23098W        W23962   9.980  23.066   9.756  0.1714  0.0761  0.1035
23099W        W23963  19.470  10.017  15.151 -0.0860  0.1977  0.1362
23100W        W23964   2.674  13.773   6.011  0.2281 -0.1983 -0.3490
23101W        W23965  14.687  21.359  24.452  0.0720  0.1314  0.0584
23102W        W23966  22.205  28.940   8.581  0.0390 -0.2421 -0.0642
23103W        W23967   2.254  11.324   8.186  0.1736  0.2130 -0.1230
23104W        W23968  19.276  28.651   5.622 -0.2403  0.2487 -0.0130
23105W        W23969  14.444  23.740   1.774 -0.1579  0.3864 -0.3103
23106W        W23970  16.636  19.086  13.932  0.1597 -0.1797 -0.0146
23107W        W23971   8.151   0.415   7.020  0.1230 -0.1956  0.1526
23108W        W23972   7.816  24.144  17.180  0.0528  0.0706 -0.2757
23109W        W23973  14.828  19.202   3.808  0.2142 -0.0663  0.1198
23110W        W23974  25.329  28.572   8.784  0.0482 -0.0512  0.1674
23111W        W23975  22.454  23.520   0.157  0.2737  0.1883  0.1975
23112W        W23976   8.529  20.876   0.566  0.3576 -0.0632  0.0327
23113W        W23977  15.045   2.040   5.006 -0.2140 -0.0879 -0.0746
23114W        W23978   9.763  26.854  13.522  0.2938 -0.1069  0.2526
23115W        W23979  24.979   1.017  20.263  0.1007 -0.1064  0.0708
23116W        W23980  28.608  26.154  15.042 -0.0622 -0.1745  0.1036
23117W        W23981  24.858  26.299  24.030  0.1976 -0.3279  0.0729
23118W        W23982  17.651  22.823  15.467 -0.2988 -0.1573  0.2417
23119W        W23983  24.386  21.532   8.344 -0.0995  0.0581 -0.0351
23120W        W23984   9.906  14.607   2.581  0.0875 -0.3060 -0.0506
23121W        W23985   8.047  21.673  23.633 -0.0054  0.1469 -0.1608
23122W        W23986   2.223  24.364   9.375  0.4665  0.0076  0.1675
23123W        W23987  10.768  23.043   6.411  0.0428 -0.0212  0.1179
23124W        W23988  28.753  14.953   8.102 -0.0623 -0.1725 -0.2025
23125W        W23989   2.703  22.336  24.152  0.1635  0.2143 -0.2872
23126W        W23990   7.660  28.985   2.040  0.1268  0.0092 -0.0016
23127W        W23991  11.366  17.221   2.748 -0.2192 -0.0601 -0.0384
23128W        W23992  18.437   7.780   1.709 -0.1468  0.0193 -0.0049
23129W        W23993   5.007   3.257  20.685 -0.2579  0.0355 -0.1445
23130W        W23994  14.626   9.008  24.604 -0.2228 -0.0996  0.3123
23131W        W23995  18.757  23.002  22.737 -0.0259 -0.2603  0.0030
23132W        W23996  12.308   0.173  12.277 -0.0727  0.0403 -0.1672
23133W        W23997  23.327  22.377   1.712  0.0637 -0.1730  0.0086
23134W        W23998   8.926   8.472   7.636  0.0161  0.1190  0.0150
23135W        W23999  25.556  10.388  13.527  0.3104 -0.2647  0.0093
23136W        W24000  10.403  27.229  12.191  0.1176 -0.1280  0.1851
23137W        W24001  24.510  19.080   3.054 -0.2044  0.2593 -0.4103
23138W        W24002  22.825  27.548   1.401  0.0189  0.1496  0.0542
23139W        W24003  13.277   7.524  23.273  0.0079 -0.1310 -0.0041
23140W        W24004  18.665   6.656  10.349 -0.2079  0.0784  0.0994
23141W        W24005   3.774   3.877  21.836  0.0967  0.0446  0.0600
23142W        W24006  20.860   6.073   5.763  0.2445  0.4128  0.1559
23143W        W24007  21.542  19.392  19.516  0.1369 -0.2566  0.2545
23144W        W24008   4.960   7.436  28.734  0.1632  0.1586 -0.1350
23145W        W24009  26.503   5.352   6.817 -0.1550 -0.1776 -0.3421
23146W        W24010  21.089  12.996  28.935 -0.1992  0.0497  0.3497
23147W        W24011   7.259  25.575  14.800  0.0483 -0.1370 -0.0256
23148W        W24012  23.739  18.881   0.344  0.0550 -0.2751  0.2209
23149W        W24013   3.483  23.692   9.082 -0.2187 -0.2000  0.4921
23150W        W24014  25.766   3.551  16.977 -0.1005  0.0932 -0.0756
23151W        W24015   2.964  28.212   5.928  0.2501  0.0581  0.1737
23152W        W24016  14.216  23.960   7.452  0.4202 -0.0334  0.2632
23153W        W24017   6.062   4.827  19.480 -0.1290 -0.0145 -0.1319
23154W        W24018  29.018  16.663   9.837  0.2485 -0.0177 -0.1879
23155W        W24019  21.453  17.646   5.882  0.0130 -0.0612  0.0903
23156W        W24020  27.646   9.648  15.266  0.1873  0.0558 -0.1296
23157W        W24021  22.734  10.708   8.993  0.0942  0.3750 -0.2027
23158W        W24022  10.132   0.948  22.843 -0.1510  0.1621  0.0049
23159W        W24023   2.093  17.997   1.263 -0.0551  0.0451  0.0714
23160W        W24024  11.206   2.116  11.118 -0.5034  0.0926  0.0860
23161W        W24025   6.834  12.904   8.743  0.1598  0.3863 -0.0483
23162W        W24026   8.631  16.493   3.643 -0.2392  0.0560 -0.0244
23163W        W24027  28.012  19.712   9.675 -0.0578  0.1489 -0.1892
23164W        W24028   1.672  22.373  23.511 -0.0273 -0.1516 -0.1360
23165W        W24029   8.660   3.293   4.592  0.1434  0.1082 -0.0153
23166W        W24030   8.472   6.165  25.901 -0.0289  0.0900 -0.4347
23167W        W24031  22.131   5.168  18.477 -0.0130  0.2279 -0.0484
23168W        W24032  25.404  24.852  11.504  0.1843  0.1057  0.1469
23169W        W24033   5.108  25.508  22.555 -0.2222 -0.0667  0.0576
23170W        W24034  19.064  17.284   2.411 -0.0384  0.1763 -0.5463
23171W        W24035  18.158  15.697   2.931  0.3069  0.1193  0.1295
23172W        W24036   2.126  10.650   0.318 -0.1854  0.2756  0.2694
23173W        W24037   9.231  21.242  16.826 -0.3694  0.0405 -0.1621
23174W        W24038   9.866  27.220   8.021 -0.2226  0.3556  0.1056
23175W        W24039  15.347  26.353  26.825  0.0916 -0.1915  0.1352
23176W        W24040  20.006  15.221   8.378 -0.1860 -0.1129  0.0370
23177W        W24041  14.965  20.470  14.267  0.2497 -0.0158  0.0074
23178W        W24042  14.696  24.251   4.025 -0.0882 -0.0522  0.1134
23179W        W24043   4.401   4.035   2.980  0.2275 -0.1741 -0.1042
23180W        W24044   7.721   1.547  21.679  0.0982 -0.1470  0.0005
23181W        W24045  17.317  22.007   0.194  0.0199  0.0932 -0.2035
23182W        W24046  24.770  28.515  11.620 -0.0031 -0.0192 -0.0353
23183W        W24047  25.069  16.143  19.492  0.0542 -0.0866  0.0778
23184W        W24048   4.692   4.473  16.294  0.1214 -0.0382  0.0706
23185W        W24049  15.573  25.065  12.472  0.0894  0.1005  0.0675
23186W        W24050   1.665  28.846   7.839  0.4040 -0.0097  0.3052
23187W        W24051  25.494  22.364  10.238 -0.1687 -0.4250  0.0814
23188W        W24052  27.583  21.398   6.810 -0.1952 -0.0150 -0.0391
23189W        W24053  23.720  28.182   5.380  0.1230  0.0201 -0.0180
23190W        W24054  16.113  13.542   6.620 -0.1905 -0.0187 -0.1854
23191W        W24055  17.037   3.555  17.846 -0.0762  0.2890  0.0545
23192W        W24056   0.817  27.430  10.465 -0.1814  0.1473 -0.1828
23193W        W24057  23.973  20.898   6.318  0.1916 -0.0922  0.3727
23194W        W24058   0.285  14.863  22.545 -0.2137 -0.0648  0.0529
23195W        W24059   8.153  12.116  16.651 -0.1278  0.0451 -0.2012
23196W        W24060   2.699  27.128   7.445 -0.0478  0.0914 -0.0502
23197W        W24061  27.426  25.595  14.941  0.1193 -0.3691 -0.0288
23198W        W24062  25.444   6.388  14.725  0.2284 -0.0700 -0.0502
23199W        W24063   9.136  18.929  10.564  0.1078 -0.1956 -0.1953
23200W        W24064  13.268   6.879  23.048 -0.1153 -0.2535  0.0013
23201W        W24065  24.463  10.318  12.904 -0.2197  0.1484 -0.1117
23202W        W24066  17.922  15.684  28.415  0.0881  0.0235  0.1217
23203W        W24067   2.163  20.415   5.076  0.2240 -0.2085  0.2901
23204W        W24068  12.987  27.803  17.424  0.0014 -0.2135 -0.2385
23205W        W24069  22.935   1.060  13.578  0.0395 -0.2066 -0.2211
23206W        W24070   7.270  15.859  26.551  0.2481  0.2574 -0.0824
23207W        W24071  18.386   2.785  22.517  0.0543  0.2684 -0.0715
23208W        W24072   8.421   9.666  16.977  0.0168 -0.0630 -0.0211
23209W        W24073  14.626  19.349   5.909 -0.1231 -0.1062  0.0021
23210W        W24074  21.335  13.314   6.236 -0.0289  0.1812 -0.1807
23211W        W24075   7.279   4.282   7.086  0.1968  0.2356 -0.1677
23212W        W24076   6.507  22.032   8.337 -0.2303 -0.1046 -0.2022
23213W        W24077  23.538   2.295  11.552  0.1766  0.2078  0.0738
23214W        W24078  23.631  10.474  12.337  0.0484 -0.0925 -0.2170
23215W        W24079  28.381   7.141  12.848  0.1253  0.1989  0.0719
23216W        W24080  23.791   9.465   6.248 -0.0955  0.1349 -0.1433
23217W        W24081  15.726   1.987  16.837  0.1173  0.0527 -0.0839
23218W        W24082  11.216  24.202   8.746  0.0096  0.0632  0.0774
23219W        W24083  28.038  16.239  20.938 -0.0410 -0.2148 -0.2691
23220W        W24084  27.993  15.006   9.686 -0.3032  0.0663 -0.0391
23221W        W24085   5.974  16.619   5.643 -0.0731 -0.1541 -0.2712
23222W        W24086  25.668  22.290  19.030 -0.2629  0.3469  0.0197
23223W        W24087   6.267  25.549  27.816  0.1090  0.1144  0.1081
23224W        W24088  28.476   1.540  15.703  0.1006 -0.3442  0.2606
23225W        W24089   6.834   7.957  26.672 -0.0942 -0.3727  0.0292
23226W        W24090  12.362  20.406  24.054  0.1856  0.0386  0.4233
23227W        W24091  24.105   5.445  22.286 -0.0514  0.0162 -0.0262
23228W        W24092  25.353  27.550  20.264  0.0642  0.1806 -0.0338
23229W        W24093   2.318  15.343  17.210 -0.1813  0.1087  0.4425
23230W        W24094  27.345   8.176   9.081 -0.2875 -0.2756  0.0175
23231W        W24095  10.062   1.870  26.741  0.0947 -0.0413 -0.0050
23232W        W24096  12.193  13.100  27.095 -0.0892  0.1615  0.0340
23233W        W24097  17.675   4.856  15.981  0.0409  0.0503 -0.0974
23234W        W24098  19.033   3.309   2.134 -0.0484  0.3495 -0.0655
23235W        W24099  11.951  19.983  15.862  0.1884  0.1938 -0.1468
23236W        W24100  22.293  21.633  25.958 -0.1879 -0.0395 -0.0935
23237W        W24101  19.069  26.190  26.739  0.0804  0.3051 -0.2999
23238W        W24102   0.450  15.608  10.924 -0.1422  0.0488  0.0522
23239W        W24103   5.756  19.770  22.729 -0.0662 -0.1136 -0.1327
23240W        W24104   6.640   8.288   3.766  0.2339  0.2680  0.0315
23241W        W24105   7.107  17.695  27.064  0.0701  0.1461 -0.1368
23242W        W24106  10.499  10.236   2.516 -0.0862  0.1465 -0.4424
23243W        W24107  23.881  24.749  23.498  0.2369  0.1905 -0.1517
23244W        W24108   2.173  17.202   8.790  0.3230 -0.1875  0.0240
23245W        W24109   3.697   9.820   7.695  0.0097  0.0253  0.1596
23246W        W24110   1.551  10.021  18.712  0.1795 -0.2276  0.1473
23247W        W24111   2.528  27.168  13.426  0.0375 -0.1407 -0.2285
23248W        W24112  27.015   1.648  20.306 -0.1984  0.1896 -0.0824
23249W        W24113   3.218  26.629  27.793  0.2756 -0.1722  0.1626
23250W        W24114  21.677  27.540  17.942 -0.3305  0.0574 -0.0100
23251W        W24115  16.367   4.588  16.979 -0.1864  0.1398  0.1904
23252W        W24116  21.763   9.118  23.480  0.1939 -0.0563  0.0370
23253W        W24117  18.372   3.212  25.408  0.0219  0.1978  0.0852
23254W        W24118   8.012  12.829  25.730  0.0359 -0.1797  0.1321
23255W        W24119  20.275  10.026  11.445  0.1731 -0.1043 -0.1959
23256W        W24120   7.368  16.325  15.576 -0.1976  0.1529 -0.1033
23257W        W24121  16.412  25.636  17.530 -0.1148  0.0341  0.1236
23258W        W24122  13.387  28.645   4.622 -0.0577  0.0911  0.2935
23259W        W24123  25.680  28.036  11.165  0.0396  0.0253  0.1385
23260W        W24124  22.554  13.469  10.609  0.0707 -0.0378 -0.1988
23261W        W24125  14.773  26.632   9.242  0.0231 -0.1421  0.1136
23262W        W24126   7.244   2.110   6.742 -0.0398  0.0090 -0.4490
23263W        W24127  26.463   3.343  25.692  0.1321 -0.2318  0.0406
23264W        W24128  28.148  12.005  16.360 -0.1134  0.2724 -0.1521
23265W        W24129  28.840  28.013  10.191  0.0087 -0.0724 -0.0344
23266W        W24130   6.683  16.513  18.391 -0.1140 -0.1128 -0.1570
23267W        W24131  14.434  12.721  12.730 -0.0773 -0.0600 -0.2225
23268W        W24132  28.851  12.596   7.805 -0.2292 -0.0887 -0.1934
23269W        W24133  21.900  26.116   5.958 -0.0465 -0.2174  0.1835
23270W        W24134   3.769   3.557   7.764  0.1040 -0.0693  0.0038
23271W        W24135  22.372  10.365  24.612  0.1045 -0.2961  0.0111
23272W        W24136  14.745   6.943   2.870  0.1641 -0.3991 -0.2632
23273W        W24137  26.347  18.370  10.789 -0.0195  0.0157  0.0678
23274W        W24138   5.226   9.838   1.220 -0.3077  0.1864 -0.0119
23275W        W24139  15.828   1.975  10.200  0.4411  0.1249 -0.0343
23276W        W24140  10.215  21.226   6.756  0.2830  0.0291 -0.2024
23277W        W24141  23.805  11.991  12.367 -0.1554 -0.1651 -0.1519
23278W        W24142   3.470   5.226   2.027  0.1605 -0.0669 -0.2929
23279W        W24143   2.393  23.058  19.534 -0.1932 -0.0734 -0.1273
23280W        W24144   3.160  28.460  26.179 -0.0751  0.2716 -0.0794
23281W        W24145  26.238   5.649   6.527 -0.3291  0.1114  0.1160
23282W        W24146   3.975  17.201  28.364  0.0064 -0.0718 -0.0286
23283W        W24147  22.113  29.125  23.298 -0.1545  0.0332 -0.1516
23284W        W24148   2.316   0.347  11.118  0.5578  0.0521 -0.0030
23285W        W24149   1.888   0.968   2.057  0.0103  0.2271 -0.2920
23286W        W24150   8.976  13.943  28.582  0.2068  0.1666  0.0842
23287W        W24151   4.590   5.091  15.575  0.0247  0.1081 -0.1711
23288W        W24152   1.390  20.278   4.696  0.0088  0.2953 -0.1543
23289W        W24153   6.344  10.387   4.866  0.0132  0.0663  0.0258
23290W        W24154  17.406  11.665  11.563 -0.1759  0.1773  0.0720
23291W        W24155  24.276  16.767  12.917 -0.0951 -0.4653 -0.1407
23292W        W24156  26.900   8.955   8.595 -0.2423 -0.0063 -0.3437
23293W        W24157  11.619   3.672   1.444 -0.5365 -0.1094  0.0448
23294W        W24158  10.769   6.486   4.572  0.0468 -0.3111 -0.0075
23295W        W24159  14.369   6.012   6.851 -0.0500 -0.2922  0.0178
23296W        W24160  16.275  29.033  14.007 -0.2116  0.0132 -0.0274
23297W        W24161  20.500   4.390  18.292 -0.1674  0.3716  0.2561
23298W        W24162  26.964   6.020  27.401 -0.0727  0.0288 -0.1414
23299W        W24163   9.682  19.683   8.387  0.1454  0.1192  0.1656
23300W        W24164  17.451   7.444  14.499 -0.0161 -0.0227 -0.0366
23301W        W24165   1.244  21.850  22.857 -0.2614 -0.2440 -0.0621
23302W        W24166  22.344   9.397   1.361  0.0560  0.2628 -0.2093
23303W        W24167  21.109  25.336   6.903  0.0861 -0.0863 -0.1489
23304W        W24168  26.676   4.224  11.561  0.0086 -0.1818  0.0428
23305W        W24169   9.114   1.278  18.922  0.0904  0.1838  0.2889
23306W        W24170  28.166   9.197   0.911  0.1096  0.0899 -0.0470
23307W        W24171  23.341  10.454  20.681  0.1708  0.3439 -0.1255
23308W        W24172  16.169  28.768  10.361  0.0441  0.1076 -0.2922
23309W        W24173  21.444  15.526  11.877  0.3322  0.1737  0.5643
23310W        W24174   6.942  15.900   9.634 -0.0211  0.1365 -0.2597
23311W        W24175  16.417   6.320  16.443  0.2307  0.0591  0.1152
23312W        W24176   2.484   2.672  25.353  0.0901  0.1612 -0.1999
23313W        W24177  22.338   0.469  27.159 -0.0781  0.0271  0.0618
23314W        W24178   1.129   4.512   6.983 -0.1834 -0.0047 -0.1826
23315W        W24179   2.454  24.313  14.289 -0.0660 -0.0216 -0.0856
23316W        W24180   2.413   6.899  26.347 -0.1672 -0.1004  0.3520
23317W        W24181  28.374  19.261  18.866  0.3068 -0.1863 -0.2101
23318W        W24182   7.097  21.152   6.985  0.0559  0.1327 -0.0016
23319W        W24183  26.467   6.857   5.082  0.1833  0.1750  0.1714
23320W        W24184   0.027   2.414   0.490  0.2790  0.2072 -0.0113
23321W        W24185  28.549  10.521   9.696  0.1278  0.4035  0.0213
23322W        W24186  26.143  28.362   9.397  0.1003  0.1389 -0.0902
23323W        W24187   0.117  22.718   9.295 -0.1411 -0.0735  0.0332
23324W        W24188  23.885   0.604   6.434 -0.0910  0.1383 -0.0450
23325W        W24189  21.095  10.601   5.054 -0.1743  0.4442  0.1558
23326W        W24190  15.610   0.244  10.870  0.2456 -0.0042  0.1429
23327W        W24191  15.306  15.039  28.067  0.3533 -0.2241 -0.0501
23328W        W24192  20.411  12.625  21.961  0.3441 -0.1681 -0.3304
23329W        W24193   8.070  16.581  10.591  0.0683  0.2181 -0.1366
23330W        W24194  23.330  18.459  27.000  0.0752  0.1954  0.1808
23331W        W24195  26.102  18.516   6.354  0.2374 -0.3095  0.2059
23332W        W24196   8.859  18.399  14.952 -0.2288  0.3847 -0.2001
23333W        W24197  15.925   1.971   2.299 -0.1363 -0.2096 -0.2407
23334W        W24198   6.855  20.134   9.850 -0.0728 -0.0726 -0.0709
23335W        W24199  13.371   0.472   9.800  0.0401  0.1314 -0.2365
23336W        W24200   4.008  28.807  15.016 -0.2765 -0.4219  0.5235
23337W        W24201   4.936  20.673  19.837 -0.0145 -0.1419 -0.0689
23338W        W24202  27.449  16.038   9.675  0.1953 -0.0242  0.0816
23339W        W24203   3.229  18.321  12.341  0.1288  0.0733  0.0342
23340W        W24204  23.711  26.295  27.800  0.3147  0.5265 -0.2718
23341W        W24205   4.220   6.798   2.166 -0.0619 -0.0812 -0.2371
23342W        W24206   7.684  11.184  11.784  0.1099  0.1214  0.2989
23343W        W24207   9.181  21.363   2.513  0.2303  0.2402  0.0424
23344W        W24208  21.278  17.171  20.598  0.0650  0.2612  0.1749
23345W        W24209  17.064   6.357  20.564  0.2133 -0.1757  0.0906
23346W        W24210   5.717  24.486   3.305 -0.0090 -0.1845 -0.1948
23347W        W24211   9.357  20.065   9.764 -0.1866  0.0938 -0.0647
23348W        W24212   7.253  24.571   6.774  0.2720 -0.0566  0.2817
23349W        W24213  25.920   8.201  24.031 -0.0077 -0.2379  0.3906
23350W        W24214  16.024   2.343   6.004 -0.1129 -0.0653  0.0647
23351W        W24215  24.878  21.615   6.616 -0.0841 -0.3861  0.0103
23352W        W24216  26.426   6.741   2.827  0.3272 -0.2304 -0.1524
23353W        W24217  26.952  12.789   3.122  0.3119 -0.0001  0.1396
23354W        W24218   4.628   4.682   5.645 -0.0788 -0.1842  0.1476
23355W        W24219   7.606   4.648   0.352  0.1249 -0.1364  0.1759
23356W        W24220  14.096  25.103   9.728 -0.1088  0.1980  0.1453
23357W        W24221  14.724  25.275  12.873 -0.0343 -0.2877 -0.1977
23358W        W24222   1.954  28.351  13.489 -0.0577  0.1875 -0.0886
23359W        W24223  17.957  15.440  16.740  0.1801  0.0758 -0.3172
23360W        W24224   0.577  28.929   9.360 -0.3268 -0.0912 -0.0286
23361W        W24225   2.195   2.181  29.131  0.1521  0.2079  0.1166
23362W        W24226  19.476   1.858  28.497 -0.1055  0.2163  0.1710
23363W        W24227   3.827   9.450  14.108 -0.1492  0.0527 -0.0214
23364W        W24228  17.716  13.058  22.572  0.0062 -0.2200  0.1313
23365W        W24229  19.248  18.440  11.580  0.2866  0.0878  0.1880
23366W        W24230  11.952   6.714  14.241  0.2576  0.0939 -0.1490
23367W        W24231  13.802  24.089  21.448  0.0463 -0.0144  0.0193
23368W        W24232  10.547   2.163   3.338 -0.0117 -0.2231  0.0995
23369W        W24233  10.846  22.175  14.034  0.0359 -0.4294  0.1803
23370W        W24234   7.228  17.508   9.685  0.0081  0.0184 -0.0637
23371W        W24235   0.358  28.642  16.904 -0.0844 -0.0260  0.1696
23372W        W24236  23.795  24.700  12.701  0.0075 -0.0105 -0.2315
23373W        W24237  21.658  16.161  25.943  0.1918  0.2422 -0.1196
23374W        W24238  24.117   1.315   6.234 -0.1344  0.2616 -0.0811
23375W        W24239   3.133  28.178  15.209  0.1615 -0.1084 -0.1696
23376W        W24240   8.892   2.314  11.337 -0.2743  0.1988  0.1098
23377W        W24241   3.275   4.026   1.976 -0.2104 -0.3198 -0.0998
23378W        W24242   6.831   1.333   9.710 -0.3528  0.0898  0.2581
23379W        W24243  23.054  21.161   4.688 -0.0288 -0.0487 -0.0108
23380W        W24244   8.386   4.714   9.050  0.0408 -0.0092 -0.1737
23381W        W24245   8.621   3.226   8.722 -0.1775  0.2040 -0.0174
23382W        W24246  26.620  20.448  13.958  0.3772 -0.2293 -0.1117
23383W        W24247  28.078  14.197  21.113  0.3740  0.0836  0.0004
23384W        W24248   6.227  27.174   6.148  0.1932 -0.3673 -0.1413
23385W        W24249  25.405  27.557  25.950 -0.0238 -0.4006 -0.2966
23386W        W24250  14.857  22.695   7.862 -0.1236 -0.2494  0.0891
23387W        W24251  22.138   3.312  19.396  0.1443 -0.1373 -0.0196
23388W        W24252   0.882  27.314   5.857 -0.0220  0.2407  0.4842
23389W        W24253  10.020   2.804  27.587  0.0710  0.1641 -0.0009
23390W        W24254  17.663   2.546  15.738  0.0889  0.0374  0.0006
23391W        W24255   0.954  20.259  15.584 -0.0295 -0.1004  0.0552
23392W        W24256  21.895  26.505  13.024  0.1972 -0.0955 -0.0081
23393W        W24257   8.992   7.947   7.011  0.1866  0.0535  0.1951
23394W        W24258  11.406  17.184   8.536 -0.0251 -0.0798 -0.0190
23395W        W24259  20.443  23.218  23.317  0.0098  0.1521 -0.2824
23396W        W24260   8.566   7.688   8.967  0.1641  0.2749  0.0119
23397W        W24261   0.176  26.896  10.905 -0.1118 -0.1088  0.0633
23398W        W24262  18.229  14.129  27.318  0.0535  0.2922 -0.0371
23399W        W24263   6.528   9.074  13.050 -0.1384  0.1511 -0.3604
23400W        W24264  10.769  18.301  22.925  0.0563  0.1478  0.0323
23401W        W24265   5.826   3.485  16.585 -0.1343 -0.1569 -0.0943
23402W        W24266   2.107  13.483   2.379 -0.0010 -0.0790  0.1827
23403W        W24267   4.108   8.890  17.251  0.2132 -0.3518  0.2757
23404W        W24268  12.767  28.734  24.053 -0.0865 -0.1346  0.1024
23405W        W24269  24.225  26.149   0.597 -0.1390 -0.1787  0.3215
23406W        W24270  20.009   1.585   8.062  0.1458  0.1928 -0.2177
23407W        W24271  16.865  20.856   4.895  0.1931  0.2821  0.0438
23408W        W24272   2.869  26.495  12.613  0.2432 -0.0820  0.0912
23409W        W24273   3.546  26.618   2.454 -0.1698  0.0895  0.1913
23410W        W24274  10.910  20.464  24.521  0.1651 -0.0907 -0.0578
23411W        W24275   6.829   3.157   6.428  0.0649 -0.0225 -0.0287
23412W        W24276  13.038   1.945  21.973 -0.0270  0.1707  0.2970
23413W        W24277   1.770   1.694   9.125 -0.2211 -0.3276 -0.0293
23414W        W24278   3.413   8.907  17.686 -0.1250  0.1494  0.0333
23415W        W24279  19.930  13.130  18.135  0.0746  0.1206 -0.0409
23416W        W24280  10.680  11.578  21.023  0.1900  0.1641 -0.1401
23417W        W24281   8.152  24.154  23.235 -0.4291  0.2616 -0.1062
23418W        W24282   5.559   5.419  28.047 -0.3264  0.0905 -0.0872
23419W        W24283  11.865  27.261  11.051 -0.1472  0.2433 -0.1130
23420W        W24284   0.343  10.100  28.961 -0.2403  0.1354 -0.1887
23421W        W24285   9.800  23.204  14.796 -0.4027  0.0207  0.1370
23422W        W24286   4.404   2.515  11.171  0.2204  0.3905  0.1555
23423W        W24287   7.577  24.973  16.413  0.0353 -0.0121 -0.1306
23424W        W24288   2.523  13.681  23.385 -0.4050 -0.0825 -0.1979
23425W        W24289  14.595  27.134   8.903  0.1193  0.0143  0.0519
23426W        W24290  10.326  12.697  21.882  0.0352  0.1933  0.2422
23427W        W24291  24.115  23.888  24.373 -0.0172 -0.2413 -0.0525
23428W        W24292   7.084  20.311  12.499 -0.0354 -0.0660  0.0080
23429W        W24293   3.584   7.685  11.659  0.0151  0.1380 -0.0149
23430W        W24294  13.920  23.284  22.782 -0.1008 -0.0303  0.0998
23431W        W24295  25.202   0.131  18.526 -0.0564  0.1039  0.0123
23432W        W24296  27.921  28.931  14.939  0.1674 -0.1372  0.0374
23433W        W24297   4.131  20.655  20.107 -0.0161 -0.2466 -0.1910
23434W        W24298  24.656   3.935  10.308  0.3210 -0.1004  0.0278
23435W        W24299  25.981   1.465   1.810  0.1684 -0.1562  0.3774
23436W        W24300  24.184  29.132   5.142 -0.0918 -0.1990  0.1219
23437W        W24301  22.921  16.146  13.004  0.0320 -0.1773  0.0432
23438W        W24302   0.748  26.665  21.006  0.0786  0.1929 -0.0388
23439W        W24303  15.766  24.298   8.767 -0.1598 -0.1317 -0.1356
23440W        W24304   8.234   4.878  21.331 -0.2754  0.4454 -0.0987
23441W        W24305  20.364  13.500  19.502  0.2163  0.3085 -0.0291
23442W        W24306  27.073   4.732  12.007  0.1330 -0.0927 -0.2205
23443W        W24307   7.588   6.964  23.138 -0.0888  0.0139  0.5182
23444W        W24308  14.952   6.272   5.889 -0.1666  0.0004  0.0114
23445W        W24309  20.279   1.332  26.602  0.3752  0.0317 -0.2320
23446W        W24310   0.230  24.809  18.200 -0.0906 -0.1297 -0.2024
23447W        W24311  27.966  25.432   0.717  0.3248  0.0098 -0.1925
23448W        W24312  28.001  26.667  10.725 -0.0697 -0.0658 -0.0502
23449W        W24313   9.039  12.535   3.424  0.1408  0.3528 -0.0915
23450W        W24314  21.550  24.581  14.102 -0.0938 -0.0679  0.1025
23451W        W24315   5.058   5.916   5.483 -0.1832  0.1383 -0.0597
23452W        W24316   9.148  26.379   9.803  0.3045  0.2407 -0.0045
23453W        W24317  19.341   8.582   8.635  0.1869 -0.1846  0.1337
23454W        W24318   7.438   1.459  21.164 -0.0456  0.2285  0.1521
23455W        W24319  20.379   3.233  11.889  0.0809 -0.0218  0.3335
23456W        W24320  21.069  27.113  19.196 -0.0051 -0.0598 -0.0618
23457W        W24321   2.839   8.268   0.568 -0.0478 -0.2097 -0.0176
23458W        W24322  14.503  17.187  22.139  0.1372 -0.4496 -0.4473
23459W        W24323  12.435   0.959  17.155  0.1730  0.1395  0.1517
23460W        W24324   6.900  17.878  22.308  0.0302 -0.0807  0.1260
23461W        W24325  29.084  22.930  23.856  0.1129  0.0888  0.2668
23462W        W24326  22.412  10.680  10.154 -0.2067 -0.0030 -0.4605
23463W        W24327   6.187  11.598  18.276 -0.0128  0.5915  0.2423
23464W        W24328   2.371   8.698  18.237 -0.0024 -0.0040  0.2881
23465W        W24329   8.121  24.627  24.335 -0.1837  0.0359  0.0186
23466W        W24330   1.363  21.784  20.238  0.2325 -0.1587  0.2140
23467W        W24331   6.842  13.061  11.771  0.4145  0.0480 -0.0996
23468W        W24332  15.360   3.145  20.962 -0.0189  0.3155 -0.0585
23469W        W24333  26.962  25.842  12.664 -0.1668 -0.0326 -0.1864
23470W        W24334  13.845  27.315   7.059 -0.3406  0.4278  0.1761
23471W        W24335  28.365   9.422   2.158  0.2751  0.1879 -0.0620
23472W        W24336  21.050  17.359   4.757 -0.1286 -0.3196 -0.1472
23473W        W24337   8.090  12.031   5.564 -0.2959  0.1575  0.2511
23474W        W24338  19.191   8.758   9.815 -0.0928 -0.3341 -0.2342
23475W        W24339  14.355   9.165  21.568  0.2570  0.0653 -0.1262
23476W        W24340  25.946   7.442  12.426 -0.2697 -0.0895  0.0827
23477W        W24341  11.473   3.854  18.476  0.1690 -0.0995 -0.0177
23478W        W24342  23.184   9.577  23.179  0.0276 -0.0470  0.0735
23479W        W24343   1.214  27.308  15.915  0.1855 -0.1986  0.0774
23480W        W24344  10.636  20.317  25.780  0.2179 -0.1434 -0.1759
23481W        W24345   3.062   8.056  23.932 -0.3044  0.0567  0.0788
23482W        W24346  10.261  25.019   8.621 -0.2620  0.1536 -0.0013
23483W        W24347  16.062  15.663   5.106 -0.1469  0.0217  0.1956
23484W        W24348  25.394  16.378  12.374 -0.2400  0.2431  0.0066
23485W        W24349  26.343  21.046  21.215 -0.2458 -0.0009  0.0307
23486W        W24350   4.547  17.563  10.203 -0.1056 -0.0504  0.0587
23487W        W24351  25.439  16.775  14.082  0.0855 -0.0719 -0.1116
23488W        W24352  27.684   9.889  13.969 -0.0281 -0.1196  0.5063
23489W        W24353  11.045  28.410  12.260 -0.0768  0.2477  0.2478
23490W        W24354  14.705  28.638  25.306 -0.1186 -0.2092 -0.1062
23491W        W24355  26.220  22.655  16.532  0.0588  0.2274 -0.0977
23492W        W24356  17.674   4.097  27.775  0.1862 -0.2048  0.1438
23493W        W24357  11.274  14.814  27.670 -0.1226 -0.3164 -0.1187
23494W        W24358   1.008  15.861  11.037 -0.0565 -0.3689  0.1423
23495W        W24359   2.609  21.552   6.060 -0.0424 -0.2878 -0.2035
23496W        W24360   5.138  25.935  10.999  0.0326  0.0068 -0.2965
23497W        W24361   5.556  13.853   3.752 -0.0941  0.1466 -0.2120
23498W        W24362  27.759  18.351   5.183 -0.0265 -0.2122 -0.0323
23499W        W24363  14.037   4.681  17.823 -0.2872  0.1773  0.1894
23500W        W24364  14.210  13.523  26.226 -0.0781 -0.2417  0.1462
23501W        W24365   4.817   3.616   9.958  0.0285  0.0119 -0.1345
23502W        W24366  26.425   6.600  17.076 -0.0895 -0.0337  0.3396
23503W        W24367  12.454  15.348   3.500 -0.0500  0.3280 -0.3943
23504W        W24368  28.406  22.130   3.806 -0.0009  0.1496  0.2240
23505W        W24369   1.673  10.270   2.789  0.1546 -0.3180 -0.2979
23506W        W24370   3.190  10.686   3.358 -0.0595  0.1901 -0.1997
23507W        W24371  24.389  25.818   3.561 -0.0665 -0.2065 -0.1766
23508W        W24372  28.504  27.322  28.599  0.1154  0.0944  0.0851
23509W        W24373   5.304   5.490   8.853  0.0697  0.1128  0.0166
23510W        W24374   4.478  22.016  12.436  0.1005  0.0832 -0.1227
23511W        W24375   8.133   3.674   7.806  0.0888 -0.3830  0.2349
23512W        W24376  28.975   4.095  20.649  0.2891 -0.1202 -0.4102
23513W        W24377  28.203   3.393  20.888 -0.0185 -0.2871  0.0878
23514W        W24378  15.517  18.232  20.689  0.0297  0.2020  0.0623
23515W        W24379   9.878  20.240   1.671 -0.1867  0.2287  0.4389
23516W        W24380  16.909   7.916   2.193 -0.0330  0.0839 -0.0725
23517W        W24381  25.659  26.101  17.272  0.1215  0.1071 -0.2321
23518W        W24382   9.407   0.031  16.610 -0.2139  0.0264  0.0526
23519W        W24383   8.707   3.614  14.383  0.0229 -0.4605 -0.0873
23520W        W24384  26.275   9.889  16.328  0.0107 -0.2307  0.0303
23521W        W24385   0.540   5.522   8.261  0.0771 -0.0803 -0.0714
23522W        W24386  25.406  14.326  16.653 -0.1737  0.1424  0.4485
23523W        W24387  22.353   3.017  10.851  0.0678  0.0702 -0.0560
23524W        W24388  16.955  28.977  19.656 -0.0344  0.4748 -0.0569
23525W        W24389  28.113  28.352  15.566 -0.0222 -0.3872  0.0341
23526W        W24390   4.698  26.914  23.192  0.2546  0.1365  0.1505
23527W        W24391   4.128   5.458  10.606  0.0530 -0.2500 -0.0607
23528W        W24392  27.213  28.750  10.142 -0.2973 -0.2024  0.0647
23529W        W24393  18.510  23.467   4.277 -0.1572 -0.3916  0.0643
23530W        W24394   6.944  23.653   9.417 -0.3062  0.0204 -0.0030
23531W        W24395   1.628   2.984  22.473 -0.1325 -0.1974  0.1735
23532W        W24396  24.746  18.346   9.518  0.1082  0.0238  0.0819
23533W        W24397   8.992   7.596  14.450  0.2931 -0.1239  0.0184
23534W        W24398   5.637   2.101   9.083 -0.0067 -0.1528 -0.1466
23535W        W24399   4.478   0.563   2.071 -0.2624  0.0856  0.1453
23536W        W24400   7.368  28.745   9.113  0.3319  0.0868  0.0280
23537W        W24401   4.747   5.498  18.794  0.1134 -0.1523 -0.2259
23538W        W24402   7.594  15.734   9.894 -0.1437 -0.0949  0.1395
23539W        W24403  25.662  17.696   2.065  0.0540  0.2322  0.1535
23540W        W24404  21.382  14.940  19.902 -0.1147 -0.4139 -0.1100
23541W        W24405  24.149  21.853  27.816  0.3008 -0.0140  0.2516
23542W        W24406   1.632   4.833  25.404 -0.0662  0.1742 -0.1630
23543W        W24407   2.669   0.444  11.564  0.0973 -0.1987  0.3332
23544W        W24408  27.215  16.082  26.568 -0.0449  0.0781 -0.0192
23545W        W24409  28.958  24.579   5.636  0.2617  0.0455 -0.1647
23546W        W24410  20.272  23.124   7.690  0.2698  0.0441  0.1925
23547W        W24411  26.402  15.936   5.689  0.0509  0.0579 -0.1972
23548W        W24412  15.911   7.468  28.117  0.0420 -0.1555  0.1967
23549W        W24413  12.629   7.216  16.558 -0.1582  0.0526  0.1273
23550W        W24414  19.436  15.668  22.282  0.0848  0.0460  0.2242
23551W        W24415  23.943   1.372  12.627  0.2500  0.0297 -0.0502
23552W        W24416  19.861  26.800   4.645  0.0191  0.2626 -0.1755
23553W        W24417  25.482  19.941  15.711  0.4110  0.2050 -0.1411
23554W        W24418   8.821   8.207   4.755 -0.1286  0.2136 -0.0403
23555W        W24419   3.219  21.164  17.555  0.2042 -0.1768  0.0872
23556W        W24420  26.159  20.063   5.731  0.0302  0.1603 -0.1363
23557W        W24421   3.972  15.757   9.319  0.2276 -0.0704  0.0463
23558W        W24422   3.335  17.190   7.491 -0.0843  0.1801 -0.1855
23559W        W24423  10.538  23.098   4.593  0.3355 -0.0275  0.2441
23560W        W24424  22.845   1.791  12.647 -0.3318  0.0860 -0.1681
23561W        W24425  26.106   7.269   4.705  0.2242  0.0614  0.0738
23562W        W24426   3.166   3.754   2.375  0.1204  0.2781  0.1325
23563W        W24427  11.006   4.821   6.347  0.2706 -0.2776 -0.0221
23564W        W24428   0.670   9.932  21.572 -0.2119  0.5161  0.2677
23565W        W24429  27.899  28.267   8.032 -0.2366  0.4250  0.1704
23566W        W24430   9.837  13.006  20.223  0.1865 -0.0925  0.0329
23567W        W24431  12.646   0.755  13.593  0.1938  0.0430 -0.1537
23568W        W24432  13.565  21.936  24.313  0.3276  0.3902 -0.0057
23569W        W24433   7.781  10.260   1.634  0.3115  0.2260  0.0004
23570W        W24434  21.621   5.028   8.396 -0.2962 -0.2583  0.0876
23571W        W24435  20.346  22.876   5.408  0.0989 -0.2150  0.1099
23572W        W24436  21.632   2.274  25.554  0.1038  0.0549  0.0741
23573W        W24437  24.327  20.550  23.786 -0.0106 -0.0297 -0.2371
23574W        W24438   7.397   5.314   7.933 -0.1130 -0.1261  0.2819
23575W        W24439  17.122   4.008  26.966  0.2233 -0.0377  0.2075
23576W        W24440  28.263  22.134   4.288  0.1158 -0.1391  0.1139
23577W        W24441  18.619  22.826  13.772  0.2598  0.2344  0.0986
23578W        W24442  19.004   0.240  23.265 -0.1254  0.0325  0.1125
23579W        W24443  26.364  19.190   3.398  0.0459  0.0337  0.1400
23580W        W24444  22.128  22.836   4.170  0.0583  0.0357  0.2197
23581W        W24445  24.754  15.429  28.724 -0.0320  0.1074 -0.1876
23582W        W24446   0.634  21.431   8.488  0.0904  0.2938  0.0103
23583W        W24447  11.195  26.597  23.857  0.1137 -0.4360  0.2113
23584W        W24448  19.747  12.531   4.080  0.2839  0.0302 -0.3836
23585W        W24449   0.229   7.550  13.436 -0.0413  0.3043  0.0172
23586W        W24450   4.465  22.549  14.755 -0.1636 -0.0500 -0.1452
23587W        W24451  13.903  28.548   4.720 -0.2943  0.0262  0.0068
23588W        W24452  16.379  23.265   5.987 -0.0633  0.0765  0.1126
23589W        W24453  28.914  14.397   4.259  0.0756  0.0880  0.0288
23590W        W24454  25.500  16.586  21.820  0.1889  0.1075 -0.0737
23591W        W24455  24.584  23.909  14.263 -0.0247 -0.2588 -0.3400
23592W        W24456  25.485  21.443   5.806  0.1362 -0.2372 -0.0667
23593W        W24457  27.233  27.749   9.837  0.2098  0.0497 -0.0712
23594W        W24458   5.025  12.431  13.221  0.0984 -0.3627  0.2893
23595W        W24459   0.007   6.393   1.156  0.0355 -0.1647  0.1064
23596W        W24460   7.045  22.391  19.395 -0.0483  0.1128 -0.1461
23597W        W24461  18.871  21.247   0.644 -0.1903  0.0615 -0.0191
23598W        W24462  10.887  23.588  19.709 -0.2170  0.0556 -0.0644
23599W        W24463  19.955  10.282  18.163  0.2319 -0.3173  0.3753
23600W        W24464  25.729  28.703   0.902  0.2055 -0.2224  0.0510
23601W        W24465  26.940  27.996   6.355  0.1632 -0.0861  0.2274
23602W        W24466   1.310   5.443  11.679 -0.1594  0.0181 -0.0089
23603W        W24467   1.024  25.015  10.047 -0.0145  0.0343 -0.1558
23604W        W24468   2.137   5.570   6.182 -0.3233  0.0456 -0.2109
23605W        W24469  10.779   8.005  24.761 -0.2315 -0.2170 -0.0874
23606W        W24470  29.054  25.297   2.964  0.1261 -0.3578 -0.0293
23607W        W24471  17.661  27.475  22.430  0.0399 -0.2354 -0.1673
23608W        W24472  27.034   4.504  22.812  0.4799 -0.4180 -0.0851
23609W        W24473  10.482   4.433  24.604 -0.0436  0.0312 -0.2189
23610W        W24474  13.673   1.205  24.816  0.1212  0.2129  0.0888
23611W        W24475  19.921   8.714  15.559 -0.1396  0.1350  0.0413
23612W        W24476  14.167  22.450  12.194 -0.1458 -0.2554 -0.0882
23613W        W24477   5.321  17.806   6.530 -0.3098 -0.1900  0.2189
23614W        W24478  28.876  28.629  20.543  0.0883 -0.0551 -0.0049
23615W        W24479  11.902  21.018  19.188 -0.2355  0.0439 -0.0861
23616W        W24480   7.636   9.226   8.129  0.2369 -0.3391  0.2171
23617W        W24481   2.719  20.350   4.719  0.0765 -0.1329 -0.1908
23618W        W24482  12.279   9.058  26.499 -0.0602 -0.0823  0.1586
23619W        W24483   5.190  25.964  14.724  0.2066 -0.2048 -0.0229
23620W        W24484   4.594   0.059  18.335  0.2068  0.0799  0.2415
23621W        W24485  18.343   0.349  11.330 -0.3242  0.0931 -0.0574
23622W        W24486   8.710  12.980  11.105  0.1568  0.1913 -0.1522
23623W        W24487  14.354  28.477  17.389  0.0435  0.3045  0.0295
23624W        W24488  26.048  26.610   9.447  0.0768 -0.2470  0.1239
23625W        W24489   2.011  21.017  14.608  0.2586  0.2804  0.3739
23626W        W24490   5.664  25.639   2.219  0.1394 -0.1213 -0.3053
23627W        W24491   1.508  15.665  19.657 -0.0435  0.1806  0.2518
23628W        W24492   1.487   3.891  24.380 -0.1922 -0.0915 -0.2136
23629W        W24493   8.883  24.777  16.475  0.2274 -0.0312 -0.0345
23630W        W24494  27.733  22.587   8.986 -0.0924 -0.4248  0.2833
23631W        W24495  28.959  26.097  18.964 -0.4004  0.0828 -0.2253
23632W        W24496   6.983  24.603   2.847 -0.1082 -0.2226  0.0000
23633W        W24497   6.003   0.867   0.348 -0.2793  0.1111  0.1581
23634W        W24498  13.575  20.994  13.577  0.0287  0.1559 -0.0222
23635W        W24499  23.987   2.681  27.910  0.0269  0.1065 -0.1323
23636W        W24500  20.397  29.058   4.819 -0.1170  0.0733  0.0346
23637W        W24501  10.975  17.353   0.325  0.5062  0.1924  0.0879
23638W        W24502  21.806  12.927   8.878  0.1775 -0.0747  0.1768
23639W        W24503  24.751  27.658   7.811  0.1890  0.0891 -0.0287
23640W        W24504   6.170  18.960   3.554  0.0999  0.0646 -0.0711
23641W        W24505  25.559  20.608  19.879 -0.0434  0.1318 -0.0253
23642W        W24506   2.558  16.787  23.333  0.2137  0.0136 -0.2456
23643W        W24507   8.869  13.638  24.416 -0.3265  0.0626  0.0781
23644W        W24508   8.911   6.424  29.026  0.0050 -0.0857 -0.0301
23645W        W24509  26.208  28.871   8.342 -0.1432 -0.0331  0.1486
23646W        W24510  27.883  22.952   3.125  0.2108 -0.1705 -0.0854
23647W        W24511   8.389   8.891  23.953  0.3326  0.1257 -0.1340
23648W        W24512  16.505  28.073  12.430 -0.1936 -0.2130  0.1309
23649W        W24513   0.567  27.551   3.591  0.0524 -0.1184 -0.1202
23650W        W24514   3.234  18.964   9.734  0.0821  0.0599  0.2431
23651W        W24515  14.637  12.467  22.916  0.0261 -0.1382  0.0931
23652W        W24516   0.354   8.248  14.311 -0.2715 -0.1356 -0.1233
23653W        W24517  26.424  24.098  23.467 -0.4688 -0.2662  0.1338
23654W        W24518  20.688  23.179  15.300 -0.1681  0.1456 -0.0338
23655W        W24519  27.332  27.547  13.239 -0.3376 -0.1375 -0.1518
23656W        W24520  19.763  27.062  27.590  0.0202  0.0198  0.1481
23657W        W24521   7.718  24.986  26.219 -0.4496 -0.1323 -0.0390
23658W        W24522  25.460  22.417  26.324 -0.2208  0.0225 -0.0259
23659W        W24523   6.853   6.419  16.618  0.2669 -0.1888 -0.0859
23660W        W24524  22.122  23.843  11.774 -0.0606  0.0061  0.1938
23661W        W24525   4.398   3.253  25.399  0.0193 -0.0143 -0.3204
23662W        W24526   5.941  17.072   3.497 -0.1495  0.1444  0.0697
23663W        W24527  21.505   4.858  17.013  0.2423  0.0583  0.3642
23664W        W24528  22.048  20.903  18.579  0.2255 -0.3495 -0.1957
23665W        W24529  10.079   3.522  10.874 -0.3753  0.2445 -0.0627
23666W        W24530  20.837   9.828  10.530  0.0282  0.0324 -0.2977
23667W        W24531   4.393   2.354  28.691 -0.0295 -0.0446  0.1152
23668W        W24532  22.401   9.339  20.462 -0.0346  0.1443 -0.4750
23669W        W24533  14.534  25.121  12.383 -0.1861  0.0763  0.2067
23670W        W24534  27.895  20.015  29.081 -0.0929 -0.1390  0.0854
23671W        W24535   9.433   4.482  11.280  0.2219  0.1188 -0.0028
23672W        W24536  11.613   4.858  18.572 -0.3697  0.0688 -0.0579
23673W        W24537  13.508   3.143  15.980 -0.1169  0.1824 -0.2857
23674W        W24538  27.873  26.832  19.657  0.0899  0.2465 -0.1656
23675W        W24539   9.807  13.907  29.129 -0.1142 -0.0134  0.1721
23676W        W24540  27.284   1.325  10.065  0.1649 -0.0963  0.2791
23677W        W24541  14.581  13.171   6.513 -0.2503  0.0147 -0.1672
23678W        W24542   3.252  26.567   5.669 -0.1291  0.0316  0.2521
23679W        W24543   9.042  20.837   9.444 -0.1021  0.2130  0.3252
23680W        W24544  21.162   5.764  11.646  0.2075  0.2301 -0.1938
23681W        W24545  15.802  14.495   0.391  0.0408 -0.2196  0.1289
23682W        W24546  17.830   7.739  10.405 -0.0824  0.4162 -0.1425
23683W        W24547   6.183  25.239  15.447 -0.0237  0.1756 -0.0789
23684W        W24548   9.998  21.633  21.543  0.0017  0.1711 -0.0784
23685W        W24549   4.876   5.457   3.943 -0.1729 -0.2105  0.1004
23686W        W24550  10.799  26.208  24.698  0.2311  0.1274  0.0529
23687W        W24551   2.966  16.505  17.582  0.0068 -0.0949  0.2354
23688W        W24552   8.584   3.475   3.768  0.1120 -0.0202  0.1389
23689W        W24553  22.656  25.147  17.529 -0.1103  0.1606 -0.0997
23690W        W24554   3.730  17.941   1.324  0.1859  0.1143 -0.0612
23691W        W24555  19.543   1.228  19.546  0.2021  0.1155  0.3027
23692W        W24556   3.784  24.868  26.607  0.0434 -0.1909 -0.4540
23693W        W24557  17.331   5.943  17.415  0.2837  0.1309  0.2513
23694W        W24558   9.732  24.469  16.696  0.2188  0.2037  0.0341
23695W        W24559  18.315  25.182  26.207  0.0696  0.3317 -0.1495
23696W        W24560  27.554  10.674  21.647  0.0629  0.0050  0.1380
23697W        W24561  19.166  27.186  10.450  0.0855 -0.0411  0.2191
23698W        W24562   0.703   3.858  20.622 -0.2316  0.1043  0.1098
23699W        W24563  14.000  12.423  18.258  0.0181  0.0154 -0.1075
23700W        W24564  15.878  16.392   3.637  0.1248  0.1314 -0.0941
23701W        W24565   7.483   3.845   1.687  0.1158  0.0039  0.4628
23702W        W24566  23.416   1.053   7.739 -0.0542  0.0418  0.0896
23703W        W24567  10.391   1.821   8.315 -0.0506 -0.1731  0.1448
23704W        W24568  18.313  22.582  20.567 -0.0371  0.0770 -0.0849
23705W        W24569   4.876   5.315   8.641  0.0824 -0.0116  0.0365
23706W        W24570  10.495  23.644  12.197 -0.1355  0.1078 -0.3465
23707W        W24571  24.224  21.538  26.800 -0.1219  0.1360  0.3424
23708W        W24572  25.654  20.199  15.046 -0.0753  0.2514  0.0173
23709W        W24573  27.391  23.014  16.217  0.0949 -0.1596  0.1638
23710W        W24574  16.163   7.946   7.973 -0.2887  0.2030 -0.1321
23711W        W24575  12.613  26.463  19.758  0.1388 -0.3720 -0.0302
23712W        W24576  27.447  18.913  27.299  0.1882  0.1306 -0.1712
23713W        W24577  28.121  24.874  24.614  0.1223  0.1403  0.2873
23714W        W24578  15.302   1.244  15.645  0.1939  0.1574  0.2571
23715W        W24579  14.150  22.504  22.402  0.2406 -0.1232  0.1583
23716W        W24580   6.992  17.549  17.048  0.1288 -0.1453  0.1901
23717W        W24581  28.974  26.388   2.521 -0.1859 -0.0140  0.1917
23718W        W24582   3.633  11.793  27.984  0.2149  0.2342  0.2114
23719W        W24583  20.080   0.830  19.815 -0.1644 -0.0024 -0.1259
23720W        W24584  10.314   0.903   3.894  0.0428  0.0101  0.3082
23721W        W24585   5.169  15.354   9.254 -0.1229 -0.0854  0.1248
23722W        W24586  26.706  25.479  14.657  0.0864 -0.0593  0.0991
23723W        W24587   0.718  23.987  20.450 -0.0263  0.0160  0.1319
23724W        W24588   4.235   2.559   0.062  0.0776  0.0997  0.1146
23725W        W24589  18.411  10.937  23.157 -0.1080 -0.1711  0.0621
23726W        W24590  23.094  19.378   6.577 -0.2986  0.0633 -0.2724
23727W        W24591   9.422  28.307   1.656  0.1181 -0.2811  0.0587
23728W        W24592  10.642  17.097  17.674  0.1125 -0.0276 -0.0416
23729W        W24593   4.882   7.073  19.786  0.0830  0.1311  0.1813
23730W        W24594  22.535  24.647  14.781  0.1142  0.1060 -0.0521
23731W        W24595  22.437  14.493  13.294  0.1250 -0.1427 -0.2997
23732W        W24596  19.764   1.869   7.604  0.2088 -0.0094  0.4894
23733W        W24597   5.032  26.041   9.819  0.3610 -0.3344 -0.0650
23734W        W24598   1.717   5.749  22.009 -0.0602 -0.0977 -0.0078
23735W        W24599  24.709   2.547   8.658 -0.0784 -0.1355 -0.0448
23736W        W24600   9.638   7.570   2.587  0.2897  0.2347  0.0341
23737W        W24601  19.744  12.699   5.833 -0.1434 -0.1043  0.0304
23738W        W24602   9.701   2.579  19.673 -0.1668  0.0456  0.2088
23739W        W24603  15.095   8.016   2.250 -0.2025 -0.2025 -0.0285
23740W        W24604   7.552   4.926  20.942 -0.3796 -0.1590 -0.1499
23741W        W24605   5.227  10.084   5.194  0.0586 -0.2289 -0.1786
23742W        W24606   3.448  19.051  19.245 -0.1341 -0.2058  0.4539
23743W        W24607  24.311  25.008  15.618  0.1042 -0.3696  0.1370
23744W        W24608  11.483  15.788  20.391 -0.0323 -0.1489 -0.1712
23745W        W24609   5.268  19.443  14.241  0.2176  0.0314 -0.0258
23746W        W24610   2.109  15.005  23.736 -0.1651  0.0075 -0.0559
23747W        W24611  11.192  10.195   8.312 -0.3068 -0.1607 -0.1868
23748W        W24612   7.139   5.082  12.046 -0.0498 -0.1946  0.1530
23749W        W24613  12.230   1.798   5.767 -0.0702  0.0166  0.1931
23750W        W24614  28.531  28.103  26.365  0.1544 -0.0648  0.1091
23751W        W24615  23.680  20.173  14.101  0.3414  0.2639 -0.0525
23752W        W24616  12.206   3.694  15.237 -0.0586  0.2077  0.0675
23753W        W24617   2.108  21.082   9.736 -0.2603  0.1188 -0.0853
23754W        W24618  21.297   1.696   1.147  0.1258 -0.1529 -0.0372
23755W        W24619  17.562  19.180  19.071 -0.0875 -0.1367  0.1724
23756W        W24620  23.524  28.353   1.396 -0.3550  0.3066 -0.3024
23757W        W24621  23.630   4.375  26.672  0.0543  0.0106 -0.2201
23758W        W24622  28.805   0.960   9.328 -0.0989 -0.0785  0.2293
23759W        W24623  14.720   9.331  12.733 -0.1545  0.0631  0.0670
23760W        W24624  27.688  18.589  16.131 -0.0894 -0.0077 -0.0993
23761W        W24625  17.018  28.997  28.890  0.0487 -0.0154 -0.0933
23762W        W24626   1.126   1.596   1.185 -0.1644 -0.1415  0.1512
23763W        W24627   7.372   4.042   5.874 -0.0807  0.1306 -0.1867
23764W        W24628   3.773  23.773  16.878  0.2383 -0.0453 -0.1894
23765W        W24629  27.561  16.995   9.313  0.2491  0.0939  0.2987
23766W        W24630  26.209  13.456   7.438 -0.1560 -0.1534 -0.1435
23767W        W24631  28.161  15.029   7.784 -0.1563 -0.0861  0.1730
23768W        W24632   4.866  24.456   8.193 -0.1359  0.3419  0.0030
23769W        W24633  18.053   7.093  12.960  0.0767 -0.1656 -0.1892
23770W        W24634   4.209  21.940  20.188  0.0127 -0.0177 -0.1441
23771W        W24635  11.827  14.387   7.286  0.0662  0.2388  0.1528
23772W        W24636  21.904  16.032  12.597  0.0048 -0.1247  0.0446
23773W        W24637  20.241   2.341  19.245 -0.0491  0.3722  0.0747
23774W        W24638  28.961   6.729   2.457  0.1815  0.0669  0.0402
23775W        W24639   0.619  18.403   8.287  0.0590  0.1049  0.0719
23776W        W24640  18.927  28.736  11.177 -0.0569 -0.0884  0.1782
23777W        W24641  12.823  21.973  12.882  0.3280  0.3092  0.1301
23778W        W24642  10.348  20.206  24.617  0.0348 -0.0315  0.2070
23779W        W24643  27.300   4.481  26.466  0.2039  0.1279 -0.2759
23780W        W24644  26.176  14.004  17.248 -0.1570 -0.1285  0.0807
23781W        W24645   6.196   0.095   8.108  0.3026 -0.4314  0.1366
23782W        W24646   2.811   8.965  27.605 -0.3247  0.0776  0.3115
23783W        W24647  23.896   5.571  23.815 -0.1929  0.0783 -0.2475
23784W        W24648   8.408  28.343   2.545  0.1890 -0.1312 -0.0154
23785W        W24649   7.923   7.399  12.123 -0.2347 -0.1114 -0.3008
23786W        W24650  23.663   1.404  10.379  0.1722  0.1833 -0.1819
23787W        W24651   3.189  18.937  11.046 -0.1118  0.1852 -0.0411
23788W        W24652  28.174  14.891  26.859  0.0328  0.3118  0.1442
23789W        W24653  12.930   6.957  11.094  0.1370 -0.2187 -0.3192
23790W        W24654  29.092  24.757   1.969 -0.2568 -0.1984  0.2468
23791W        W24655  14.284  24.656  16.324 -0.1410 -0.1896  0.1700
23792W        W24656  25.922  24.030  14.726 -0.2397 -0.3068  0.3268
23793W        W24657   7.334  25.488  15.721 -0.0097  0.1855 -0.1978
23794W        W24658   4.897   7.232  22.472 -0.3051  0.1569 -0.3258
23795W        W24659  26.052   3.325  16.031  0.0444  0.0671 -0.1188
23796W        W24660  15.650  24.328  18.731  0.0633  0.2074  0.0852
23797W        W24661  13.269   0.808  18.995  0.0330 -0.2917 -0.0153
23798W        W24662  18.705  19.630   7.047 -0.1310 -0.3831 -0.0946
23799W        W24663   5.048  24.415  28.107  0.1688  0.0061 -0.0533
23800W        W24664   9.379   3.654   1.185 -0.1789  0.1577  0.0788
23801W        W24665   2.282   5.524  16.195 -0.0613 -0.2379 -0.1819
23802W        W24666  17.105   3.859  17.306  0.3273  0.2295 -0.2346
23803W        W24667  25.457   9.074  23.898  0.4243 -0.2136 -0.3305
23804W        W24668  20.212  16.075   5.308 -0.0129 -0.2852 -0.1397
23805W        W24669   2.688  24.024  20.213 -0.1166 -0.0506  0.0606
23806W        W24670   0.324  11.250  10.596  0.2399  0.0294  0.0553
23807W        W24671   8.116  14.795  24.238  0.0527 -0.3599 -0.0865
23808W        W24672  28.673  17.126  14.782 -0.0777 -0.2246  0.2421
23809W        W24673   7.861   6.583  12.617  0.1757  0.0900 -0.0725
23810W        W24674   7.647   6.580  27.512 -0.0964  0.3399  0.0983
23811W        W24675  23.700  27.734  18.553  0.0158  0.1833  0.1081
23812W        W24676  13.444   5.670   7.371 -0.0034 -0.0814 -0.0807
23813W        W24677   1.058  21.983   4.507  0.2252  0.1313  0.0264
23814W        W24678  23.468  23.061  27.719 -0.0822 -0.1340 -0.1430
23815W        W24679  15.006  18.247   8.731 -0.0913 -0.1863 -0.1115
23816W        W24680   0.293  12.812  17.909  0.0278 -0.1621  0.0533
23817W        W24681   2.963  26.532   2.206 -0.1269 -0.0774 -0.2340
23818W        W24682  15.131   8.241  23.376 -0.2301 -0.3402 -0.1515
23819W        W24683   2.292  18.016   7.723 -0.0046  0.1814 -0.1834
23820W        W24684   2.898  19.537  26.380  0.0349  0.2645  0.1302
23821W        W24685  26.354  21.640  20.600 -0.2954 -0.2336 -0.1858
23822W        W24686  27.561  15.299  24.576 -0.2702 -0.0881  0.0360
23823W        W24687  15.758  20.014  25.733  0.0569 -0.0456 -0.1240
23824W        W24688  16.286   4.897  12.284  0.3310  0.0687 -0.2935
23825W        W24689  17.483  25.626  10.727 -0.0639  0.1647 -0.1673
23826W        W24690  14.031   1.749  17.926 -0.0790 -0.3715 -0.1509
23827W        W24691  21.905   1.043   2.928 -0.0845 -0.1759 -0.1779
23828W        W24692  28.926  26.010   4.460  0.0668 -0.1028 -0.1648
23829W        W24693  27.414  11.319  19.624  0.1367 -0.0644  0.1293
23830W        W24694  18.570   4.124   2.673 -0.0522  0.2915  0.3634
23831W        W24695   5.170   0.117  28.391 -0.4108 -0.1934 -0.0430
23832W        W24696  20.749  25.905  18.298  0.1514 -0.1799  0.0959
23833W        W24697   2.813   8.017   4.107 -0.0031  0.0161  0.1053
23834W        W24698  28.899   8.009  11.131  0.0534 -0.1687 -0.1302
23835W        W24699   5.303   1.804  17.839  0.2317 -0.0506  0.0314
23836W        W24700   6.088   1.438   3.978  0.0861 -0.0822 -0.1098
23837W        W24701  27.988  24.293  27.713 -0.1578  0.0573  0.0602
23838W        W24702   0.476  16.139  28.480 -0.0730  0.0727 -0.0605
23839W        W24703   1.705  21.103  24.701 -0.1191  0.0919  0.0331
23840W        W24704  16.832   6.640   3.999  0.1954  0.1360 -0.0543
23841W        W24705   7.023  28.769  27.025  0.0937 -0.2053  0.0341
23842W        W24706  21.115  14.535  12.794  0.3335  0.0157 -0.2741
23843W        W24707  25.548  20.690  14.705  0.3003  0.2307 -0.1066
23844W        W24708   7.421  18.456  24.782  0.0715 -0.0646 -0.0873
23845W        W24709  27.369   2.906  14.303  0.0818  0.0060  0.1783
23846W        W24710  25.084   6.724  17.337 -0.0422  0.2352 -0.1290
23847W        W24711   0.945  24.423  19.713 -0.0544 -0.0922  0.2787
23848W        W24712   8.194   2.235  18.802  0.0347  0.0546 -0.3073
23849W        W24713   5.508  17.182   4.402  0.0903  0.0063 -0.0960
23850W        W24714   7.373   5.050   8.680 -0.3527  0.1594  0.1053
23851W        W24715   3.793  27.448   3.259  0.4068 -0.3278 -0.3371
23852W        W24716  27.774  23.055   6.353 -0.2336  0.0773  0.1836
23853W        W24717   6.939  15.138  11.874 -0.2062  0.1280 -0.0083
23854W        W24718   6.634  18.157   7.698 -0.3774  0.0377  0.2997
23855W        W24719  20.984  11.340   3.901  0.1766  0.1279 -0.1266
23856W        W24720   4.323  16.007   1.038  0.0701  0.1224 -0.0913
23857W        W24721   8.297  19.753   1.227 -0.3119 -0.0256 -0.0777
23858W        W24722   1.089  11.944  13.840 -0.2146  0.4785  0.0616
23859W        W24723  25.486  12.899   1.237  0.2294 -0.1969 -0.1091
23860W        W24724  25.307  20.742  14.290  0.1273 -0.0487 -0.1227
23861W        W24725   8.878  19.591  12.673 -0.1015  0.1029  0.1803
23862W        W24726  15.701  23.982   5.716  0.2225  0.0040  0.0457
23863W        W24727   8.695  23.748  18.632 -0.1248  0.6173  0.1036
23864W        W24728   0.150  14.899   6.037 -0.5305 -0.2718 -0.0137
23865W        W24729  27.860  16.300   7.514  0.0036  0.0229 -0.0684
23866W        W24730   6.728  16.156  17.416 -0.0630 -0.0119 -0.2772
23867W        W24731  27.009  28.286   7.142 -0.0111 -0.1874 -0.1841
23868W        W24732   6.629   3.772   0.209 -0.0537  0.1458  0.0531
23869W        W24733   8.621  13.439  11.428 -0.1993  0.1454 -0.0995
23870W        W24734   9.797  28.055   7.834 -0.2728 -0.0367 -0.2151
23871W        W24735  26.364  18.897  16.187  0.1167  0.0449  0.1372
23872W        W24736  28.868  19.182  14.934  0.1619 -0.1022  0.0321
23873W        W24737  21.414  26.905   3.855  0.1762 -0.2472 -0.1254
23874W        W24738  27.400   5.346  20.098 -0.1539 -0.1269  0.0586
23875W        W24739  25.357   4.145  13.165  0.0556 -0.0446 -0.1437
23876W        W24740  20.950  27.606  22.418  0.0832 -0.0621 -0.0420
23877W        W24741   8.846  13.373  17.755  0.1718 -0.0628 -0.3451
23878W        W24742  21.451  26.679  16.416  0.0982 -0.1042 -0.0451
23879W        W24743   2.852  25.984  13.150  0.2148  0.1566 -0.1653
23880W        W24744  22.356   3.890  15.216 -0.4003 -0.0173  0.3431
23881W        W24745   5.758  20.759  14.129  0.1077 -0.1598  0.0724
23882W        W24746   7.556  22.192   2.292  0.1089 -0.0463  0.1533
23883W        W24747   9.844   9.261  14.236  0.0662  0.1402  0.4206
23884W        W24748   3.491   5.061  12.611  0.0969  0.1567 -0.3975
23885W        W24749  19.573  21.086  19.913 -0.2659  0.0619  0.0281
23886W        W24750  12.621  19.923  15.864 -0.2162 -0.1062  0.1948
23887W        W24751   4.699  16.507   6.073  0.1268 -0.0044  0.1627
23888W        W24752   2.698   7.683   6.591 -0.0737 -0.0131 -0.0756
23889W        W24753  22.558   0.593  29.021 -0.0516  0.3452 -0.1043
23890W        W24754  19.414  28.905  16.502  0.0531 -0.0394 -0.3743
23891W        W24755  23.714  27.338  20.362  0.0056  0.0681  0.1148
23892W        W24756  15.319  14.993  15.741 -0.3223  0.1231 -0.1540
23893W        W24757   1.527  15.831  19.050 -0.1337  0.0465 -0.0149
23894W        W24758   1.771   0.655   4.792  0.2827  0.3192 -0.0893
23895W        W24759  22.951   8.944  14.302  0.3683  0.0885 -0.1695
23896W        W24760  21.472  20.065   8.633 -0.1220  0.1676  0.3022
23897W        W24761  15.578   1.417   9.578  0.0193 -0.1916 -0.2478
23898W        W24762  11.173   2.652  16.268 -0.1339  0.1287  0.3594
23899W        W24763   6.321   1.894  21.747  0.2166  0.0342  0.1238
23900W        W24764  17.223  21.474  16.709  0.2035  0.1315 -0.2932
23901W        W24765   2.977  17.582  13.213  0.2322 -0.0530  0.1132
23902W        W24766  16.778  11.398  20.968  0.1461  0.0629 -0.0686
23903W        W24767  11.291  25.936  24.738  0.0517  0.2694  0.0297
23904W        W24768   2.983  18.202  16.013 -0.1758 -0.2434  0.0280
23905W        W24769  10.334  19.861  15.770 -0.0420  0.4264  0.0773
23906W        W24770  14.320   7.853   5.011 -0.1253 -0.0551 -0.0513
23907W        W24771  24.523   2.351  23.425  0.2392 -0.0891 -0.2312
23908W        W24772  28.053  20.857   4.318  0.1663  0.0423 -0.1151
23909W        W24773   0.176   6.574  22.770 -0.0188 -0.2788 -0.0503
23910W        W24774  15.504  23.150   0.942  0.1242 -0.0735  0.0358
23911W        W24775  26.085  21.606   9.589  0.0801 -0.0714 -0.1660
23912W        W24776   0.350  24.042   2.547  0.1076 -0.1240 -0.0390
23913W        W24777  27.611   8.704  20.122  0.0541 -0.0157 -0.0094
23914W        W24778   1.977  23.430  14.916 -0.0606  0.2320 -0.1599
23915W        W24779   5.793   4.286   9.387 -0.0479 -0.2104 -0.1043
23916W        W24780  16.643  17.462  25.592  0.3317  0.0925  0.4048
23917W        W24781  14.775  22.940  16.788  0.0801 -0.2111 -0.0987
23918W        W24782   2.914   7.027  22.581 -0.0712 -0.0908 -0.0052
23919W        W24783   9.993   6.396  20.531  0.2245 -0.1267 -0.3887
23920W        W24784  25.725   5.400  17.636  0.0123 -0.1748 -0.1526
23921W        W24785  19.237  24.355   9.498  0.2657  0.1069  0.1552
23922W        W24786   4.993  12.293   8.507  0.1226 -0.2487 -0.1690
23923W        W24787   4.248  12.337   7.654  0.3374 -0.2190  0.0894
23924W        W24788  11.631  25.796  15.108 -0.0003  0.3121  0.0442
23925W        W24789  24.488  19.041  19.246  0.4304  0.0145  0.0805
23926W        W24790  13.297  26.475  20.849  0.0473  0.0748 -0.2293
23927W        W24791  24.577   9.546  20.908  0.1104  0.1202  0.0975
23928W        W24792  20.520  23.272  17.114  0.1761 -0.0086 -0.1954
23929W        W24793  20.994  16.219   4.750 -0.0125  0.0572 -0.2439
23930W        W24794   3.592  23.640  12.606  0.0359 -0.2071  0.1257
23931W        W24795   3.848   6.328  24.128  0.0838  0.2926  0.1933
23932W        W24796   9.328  14.243  20.547 -0.0118 -0.1781 -0.3235
23933W        W24797   6.135  15.617  10.219 -0.1798 -0.0743 -0.0745
23934W        W24798  23.531  11.695  11.827 -0.3734 -0.2014  0.1976
23935W        W24799  10.231  18.979   7.094 -0.0052 -0.0660  0.2644
23936W        W24800  10.553  21.637  11.769  0.1635  0.1127 -0.0920
23937W        W24801  26.809  18.590  24.185 -0.0389 -0.4220 -0.4168
23938W        W24802   9.924   1.428  27.099 -0.1478 -0.0520  0.1071
23939W        W24803  18.109  28.797  10.585 -0.1373  0.0089  0.0514
23940W        W24804   5.488  10.979  10.093  0.1242  0.0070  0.1701
23941W        W24805   6.434   8.485  14.870 -0.1736 -0.1359 -0.1775
23942W        W24806  12.795   2.355  12.146  0.2176 -0.3330 -0.0533
23943W        W24807  25.815  28.652  15.371 -0.0693 -0.1758 -0.0257
23944W        W24808   4.500  20.849  29.129  0.1543 -0.2085  0.2179
23945W        W24809   7.776  15.181   3.976 -0.1514  0.2034  0.0090
23946W        W24810  18.071   0.373  14.836 -0.1880  0.2313 -0.1918
23947W        W24811   6.364  17.135  23.826  0.0547  0.0351  0.2307
23948W        W24812  20.399  21.664  17.109 -0.1206  0.1485  0.0591
23949W        W24813  27.737   6.091   3.660 -0.0879  0.0325 -0.0470
23950W        W24814  27.002  22.502  11.324 -0.2162  0.0150  0.1373
23951W        W24815   8.355  17.863  25.324  0.0954 -0.1234 -0.1008
23952W        W24816  10.288  15.282  11.897 -0.0717  0.2530  0.2140
23953W        W24817   4.448   6.250  10.194  0.1826  0.5752 -0.0433
23954W        W24818  10.792  17.109  16.429  0.1135 -0.0543  0.1974
23955W        W24819  16.800   1.198   7.801 -0.1384  0.0714 -0.1660
23956W        W24820  25.724  27.527   9.804  0.2736  0.0132  0.0160
23957W        W24821   6.936  25.583  21.512 -0.1416 -0.0799  0.3365
23958W        W24822  25.452  24.987  17.785  0.0094  0.1522  0.0131
23959W        W24823  10.148   1.905   2.972 -0.2166  0.0479 -0.0402
23960W        W24824  25.786  14.028  21.856  0.0195  0.0413  0.3165
23961W        W24825   6.874   9.063   6.543  0.0180  0.0497 -0.1577
23962W        W24826   6.823  13.985   7.098  0.1676  0.0554  0.0537
23963W        W24827   0.546  26.953   3.249  0.3853  0.1342  0.2023
23964W        W24828   0.915   1.658   1.757  0.1278 -0.2704  0.0452
23965W        W24829   2.068  21.409  19.805 -0.0555  0.0108  0.0773
23966W        W24830  21.867  24.348  10.236  0.2312  0.0456  0.0738
23967W        W24831  21.553   2.601   9.230  0.0407  0.0775  0.2385
23968W        W24832  13.571   3.119  20.884  0.0712 -0.1219 -0.0094
23969W        W24833   0.465  23.900  23.057  0.0139 -0.0447  0.3443
23970W        W24834  25.392  28.195  18.100  0.1751 -0.2766 -0.2185
23971W        W24835   7.806  12.379   0.473  0.2236  0.2187  0.2966
23972W        W24836   2.644  13.786  14.136  0.3880  0.1718  0.2247
23973W        W24837   4.141   2.276  21.901 -0.0718  0.4085  0.1570
23974W        W24838  28.166   0.800  27.366  0.0695  0.2878  0.2179
23975W        W24839  20.612   1.008  24.161 -0.1818 -0.1104 -0.3267
23976W        W24840  15.502  21.627  13.762 -0.1750  0.0496  0.0392
23977W        W24841  12.477  27.929  26.909  0.1455 -0.1417  0.2341
23978W        W24842  24.890   9.269  24.521  0.5817 -0.0786 -0.0681
23979W        W24843  23.974  14.642  20.444 -0.1621 -0.1204 -0.0053
23980W        W24844   5.378  18.634   4.811 -0.0255  0.1056  0.0913
23981W        W24845   4.921  25.199   9.942 -0.0094 -0.2426  0.3396
23982W        W24846   4.396   4.098  19.965  0.1765  0.2226 -0.1124
23983W        W24847  11.886  26.009   0.252 -0.1753  0.1673 -0.1183
23984W        W24848  27.134  24.186   6.711  0.0923 -0.2345 -0.0626
23985W        W24849  16.844   2.573  18.336 -0.0609 -0.0153  0.1613
23986W        W24850   7.812  27.957  14.346  0.0423 -0.1257 -0.1341
23987W        W24851   1.391  26.290   8.836 -0.2824  0.1989  0.0104
23988W        W24852   7.774  11.640  28.995 -0.0451  0.3409 -0.1811
23989W        W24853   4.249   4.363  23.279 -0.4100 -0.2482 -0.0837
23990W        W24854   8.332  23.042   9.445 -0.0193 -0.0231  0.1766
23991W        W24855   0.623  16.117   1.314 -0.0697  0.1944 -0.1645
23992W        W24856   0.689  16.966  27.376 -0.3782  0.1313  0.0275
23993W        W24857  26.145  10.153  20.797  0.2459 -0.1329 -0.1957
23994W        W24858   4.340  26.085  15.881 -0.1424  0.0587 -0.0235
23995W        W24859   7.949  19.125   5.221 -0.2895  0.0372 -0.0007
23996W        W24860   7.514  20.686   7.260 -0.2293  0.5249  0.2420
23997W        W24861   8.832  23.458  24.475  0.3618  0.0308 -0.2919
23998W        W24862  26.578   3.926   4.392 -0.2307 -0.0738 -0.0180
23999W        W24863  21.076  15.818  12.048  0.2076 -0.0177  0.0007
24000W        W24864   4.396  10.642  19.329  0.1261  0.3887  0.1000
24001W        W24865  19.930  21.864   5.871  0.2172 -0.1300 -0.0070
24002W        W24866  12.179  13.977   7.318  0.1952  0.0293 -0.1131
24003W        W24867  26.240  21.896   3.832 -0.0566  0.0081  0.1600
24004W        W24868  27.389  13.925   2.833  0.0198 -0.0225 -0.0314
24005W        W24869  17.932   0.189  25.239  0.0744 -0.0464  0.1406
24006W        W24870  23.546   6.191  14.817 -0.0356 -0.0687  0.4740
24007W        W24871   3.237   4.487  28.792 -0.1502 -0.1821 -0.0275
24008W        W24872  27.376  24.728  16.594  0.0258  0.4387  0.2539
24009W        W24873  26.961  26.559   3.052 -0.0547  0.0224 -0.0249
24010W        W24874  23.111   0.646  17.657  0.1321  0.1672 -0.3480
24011W        W24875  13.947  28.283   6.261  0.0484  0.2908  0.1205
24012W        W24876   2.796   7.232  23.897  0.1828 -0.1363  0.0243
24013W        W24877  21.006  28.071  15.923  0.1473 -0.1192  0.3906
24014W        W24878   7.125   4.236   1.819  0.0134 -0.3284 -0.2435
24015W        W24879   9.329   6.444  20.356 -0.3619 -0.0589  0.0552
24016W        W24880   9.958   1.947  16.099  0.1701 -0.1706  0.1498
24017W        W24881  10.393  10.815   4.039  0.0200  0.0938 -0.0980
24018W        W24882  15.094   4.956  17.512 -0.0241  0.0763  0.0432
24019W        W24883  24.166  16.545  16.169  0.0001  0.0323  0.1312
24020W        W24884  26.146  11.629   9.895  0.0500  0.2189 -0.1758
24021W        W24885  26.370  13.265  14.037  0.0189 -0.2394 -0.0840
24022W        W24886   4.242  28.457  27.910 -0.1002  0.1269  0.0692
24023W        W24887  10.556  24.589  14.018 -0.0078 -0.2056 -0.2186
24024W        W24888  27.310  17.629  19.314 -0.0250 -0.1362 -0.0784
24025W        W24889   7.607   6.228   3.618  0.1317  0.0283  0.1309
24026W        W24890   3.121  23.360  20.342  0.0359 -0.0237 -0.0752
24027W        W24891  21.275   9.842  20.652 -0.0204 -0.0349  0.0268
24028W        W24892  28.591   1.025  15.730  0.1951 -0.1490  0.1318
24029W        W24893   8.406   6.151  28.789  0.2088 -0.1358  0.1217
24030W        W24894   8.381  18.851   9.856  0.0280 -0.3301  0.3282
24031W        W24895  26.064  21.722  24.318  0.1328  0.3415 -0.0032
24032W        W24896   7.757  21.156  20.622  0.1157  0.2088  0.0096
24033W        W24897  11.555   6.194  13.841  0.1351 -0.0162  0.2511
24034W        W24898  17.097   9.663  11.631 -0.1357 -0.1283 -0.0261
24035W        W24899  13.213  27.554  19.569  0.1011 -0.0480 -0.0550
24036W        W24900   6.470  21.182  15.942 -0.3010  0.1586  0.1389
24037W        W24901  10.076  11.963  25.278  0.0353 -0.1700  0.0129
24038W        W24902  29.015  18.383   0.354 -0.2498  0.0418 -0.1608
24039W        W24903   9.875  21.528   9.589  0.0263  0.3789  0.1968
24040W        W24904   1.045   1.122  27.798 -0.0296  0.0283  0.0702
24041W        W24905   2.996   5.540   0.927 -0.1460 -0.3700  0.0438
24042W        W24906   9.043  22.911   3.336 -0.0697 -0.1880  0.0065
24043W        W24907  26.073  23.427   4.480  0.0393 -0.1900 -0.3558
24044W        W24908   3.693  22.148  23.222 -0.0982  0.1116  0.1625
24045W        W24909  28.493  18.325   7.980  0.0831 -0.1375 -0.1109
24046W        W24910   2.415   2.891   3.852  0.1252 -0.1816  0.3203
24047W        W24911   2.672   8.805   9.726  0.0375  0.3033  0.1311
24048W        W24912   8.397  12.467  13.710 -0.0681 -0.1793 -0.2068
24049W        W24913  28.349  15.711   5.279 -0.1404 -0.0085 -0.2748
24050W        W24914   5.530   2.691  19.165 -0.0506  0.1523 -0.2607
24051W        W24915  26.350  21.958  11.540  0.0571 -0.0181 -0.2586
24052W        W24916   3.481  11.164  28.158  0.1554 -0.0393 -0.3583
24053W        W24917  18.994   1.816   2.242 -0.0345 -0.1350  0.1294
24054W        W24918  24.022  24.794  15.118 -0.2557 -0.2843 -0.2852
24055W        W24919  21.580   0.778   9.708 -0.1898 -0.1342 -0.1853
24056W        W24920   0.268   0.812   6.615 -0.1381 -0.0248 -0.1953
24057W        W24921   8.756  10.959   9.244  0.1056  0.0065  0.1533
24058W        W24922   5.575  17.693   2.917 -0.0443 -0.1079 -0.1485
24059W        W24923  10.481   1.855  22.892  0.2256  0.1880  0.0925
24060W        W24924   1.396  24.607   3.954  0.1054  0.0224  0.0161
24061W        W24925   4.528  15.099  22.139 -0.1229 -0.3234  0.1836
24062W        W24926   6.961  16.536  23.512 -0.0936  0.1322 -0.1100
24063W        W24927  14.710  28.385  27.539  0.2599  0.1453 -0.1062
24064W        W24928   3.888  26.410   6.424 -0.1025  0.1071 -0.3576
24065W        W24929  25.228   8.578   8.160 -0.0208  0.2679  0.0305
24066W        W24930  15.916   7.804  21.142 -0.2946  0.1781  0.2247
24067W        W24931  13.691   2.621  21.179 -0.3262 -0.3452  0.2184
24068W        W24932  28.860  10.648  15.088 -0.1540 -0.0599  0.1599
24069W        W24933   6.326   4.710  23.223 -0.0328  0.0112 -0.0009
24070W        W24934   9.048   4.502  20.288  0.0076 -0.1948 -0.2261
24071W        W24935  24.015  21.512   7.310  0.1619  0.0031 -0.1546
24072W        W24936   2.653   9.551  29.074  0.1241  0.0836 -0.0197
24073W        W24937   3.825   0.190  18.730 -0.1145  0.2072  0.2305
24074W        W24938  22.148   6.670  10.900  0.2473 -0.3267  0.0943
24075W        W24939   3.734  22.180  24.003 -0.0035  0.2374  0.1168
24076W        W24940  27.409   7.121   5.179 -0.3005 -0.0904  0.0749
24077W        W24941  27.345  27.223  26.009  0.1233  0.0209 -0.2168
24078W        W24942  15.375  28.722  12.888 -0.1555  0.0139 -0.0534
24079W        W24943   2.254  21.768   0.856 -0.0007  0.2066  0.2233
24080W        W24944  10.250  16.695  23.885  0.1698  0.0392  0.1701
24081W        W24945  27.134  24.122   1.222 -0.1260 -0.3188 -0.3352
24082W        W24946  19.081  20.489  16.504  0.0700  0.2696  0.1562
24083W        W24947  24.267  19.820   3.350  0.1934  0.0548  0.0384
24084W        W24948  10.906   5.370  11.971 -0.1490  0.1705  0.3863
24085W        W24949  12.649  18.240   0.433 -0.0550  0.1295  0.0763
24086W        W24950  23.448  16.489   7.754  0.0547  0.0654 -0.1933
24087W        W24951  12.721  17.882  13.907  0.0618 -0.0501 -0.0079
24088W        W24952  26.374  16.497  15.718 -0.0036 -0.0022 -0.1531
24089W        W24953  28.738  13.342   2.606 -0.0692  0.0399  0.0009
24090W        W24954  27.275   1.888   8.598 -0.1651 -0.1548 -0.1114
24091W        W24955  23.338   1.077  21.343  0.2056  0.0079  0.1753
24092W        W24956   4.435  12.183  10.380 -0.2988 -0.1032 -0.1458
24093W        W24957   6.486   1.020   0.630 -0.0054  0.0261  0.1015
24094W        W24958  20.757  26.858   2.001  0.2431  0.0214 -0.2137
24095W        W24959  19.234  13.674   4.405  0.3825  0.1878 -0.3544
24096W        W24960   3.065  11.771   4.347  0.1096  0.2191 -0.0603
24097W        W24961  26.647  16.656   8.357 -0.0443 -0.2041 -0.0357
24098W        W24962   1.409   2.231  14.080 -0.1323  0.3216  0.0405
24099W        W24963  28.660   0.521  11.142  0.1426 -0.0712  0.2172
24100W        W24964   6.973  28.414  14.175  0.2107 -0.1842  0.3631
24101W        W24965  20.066  11.202  22.592  0.3563 -0.1714  0.5063
24102W        W24966  24.377  13.406  14.632 -0.0604  0.0954  0.1586
24103W        W24967   0.927  15.822  17.097 -0.1253  0.4015 -0.1708
24104W        W24968  24.238   3.966  24.112  0.0046 -0.0317  0.2025
24105W        W24969   0.585   2.133  14.920  0.2312  0.1391  0.0458
24106W        W24970  14.269   3.958  27.628 -0.4006 -0.1914 -0.0745
24107W        W24971  24.483  12.146  24.278  0.4558 -0.0552  0.3500
24108W        W24972  21.326  21.829  21.099 -0.0119 -0.2025 -0.1829
24109W        W24973   7.791  15.717  22.783 -0.0067 -0.1759  0.0323
24110W        W24974   9.955  25.267   4.114  0.0807  0.2999  0.0164
24111W        W24975  25.923   6.433  13.870  0.0303  0.1486  0.0788
24112W        W24976   8.149  14.236  24.110 -0.0795  0.0301 -0.2735
24113W        W24977   6.372   4.023   5.155  0.0491 -0.2420 -0.0192
24114W        W24978  18.835  20.559  25.439  0.1160  0.0971  0.0221
24115W        W24979  23.906  27.471  17.635  0.1932  0.1614  0.2487
24116W        W24980  27.878  28.290  28.071  0.0796 -0.1440  0.0208
24117W        W24981   7.824  13.004  13.191  0.0204 -0.1698  0.1510
24118W        W24982   4.922   1.052   9.510 -0.2549 -0.2363  0.2603
24119W        W24983  16.640  27.151   3.304  0.1636  0.1129  0.0394
24120W        W24984  21.386  10.366  26.829 -0.1702 -0.0508  0.0987
24121W        W24985  11.713  25.163  17.788  0.1859  0.3069  0.0709
24122W        W24986   9.121   5.980  21.495 -0.0739 -0.3914 -0.0112
24123W        W24987  18.417   4.838  17.710 -0.2894  0.0551  0.0234
24124W        W24988   9.239  16.258   6.313 -0.1149  0.0213  0.0121
24125W        W24989  19.243  15.008   6.551  0.0167  0.1292 -0.0847
24126W        W24990   3.764  13.350   9.073  0.0387  0.1323 -0.1045
24127W        W24991  27.153   5.323   7.445 -0.1017 -0.0191  0.0835
24128W        W24992  24.796  28.680  28.299 -0.0508  0.2614  0.0016
24129W        W24993   6.728  28.144   4.083  0.0999  0.0086 -0.0390
24130W        W24994   6.223  10.140   9.445 -0.1762  0.1977  0.1402
24131W        W24995   6.351  20.335   8.104 -0.1835  0.3510 -0.2122
24132W        W24996   8.209  10.005  16.531 -0.1658  0.2546  0.5314
24133W        W24997  24.923  16.513   5.191 -0.1296  0.2346  0.1498
24134W        W24998   7.389   1.503   9.084 -0.6329  0.0804 -0.1578
24135W        W24999  28.177   9.933  28.469 -0.0229  0.0989  0.0762
24136W        W25000   3.879  25.087  13.621  0.2698  0.2391  0.1168
24137W        W25001   2.314  27.869  27.928 -0.2364  0.2807  0.1021
24138W        W25002   9.995  19.395  10.201  0.3394 -0.2172 -0.2843
24139W        W25003   3.372  24.365  17.736  0.1584  0.2064 -0.0505
24140W        W25004  22.881  20.320  16.410 -0.1101  0.3263  0.1082
24141W        W25005   4.306  24.741  26.032  0.0477 -0.1052  0.0277
24142W        W25006  28.469  21.142   1.948  0.1596  0.0388 -0.0171
24143W        W25007   9.368   3.506  13.512  0.2051  0.3745 -0.0492
24144W        W25008  26.554  22.120  11.107  0.0553  0.3735  0.3667
24145W        W25009  24.230  27.049  25.457 -0.1617  0.2473  0.0199
24146W        W25010  24.903  23.894  21.654  0.0903  0.0580 -0.1586
24147W        W25011  13.266  14.058   9.118 -0.1613  0.0248  0.0487
24148W        W25012   3.355  15.212  27.480 -0.1248  0.1216  0.3581
24149W        W25013  26.244  16.321  10.948 -0.1708  0.1335  0.0476
24150W        W25014   3.475  11.651  11.749 -0.2410 -0.3852  0.1395
24151W        W25015  22.171   0.988   1.963  0.0218 -0.2267  0.2002
24152W        W25016   0.440  10.740   3.701  0.0724  0.0753 -0.2195
24153W        W25017   3.625  11.714   3.665 -0.0041 -0.1777  0.1325
24154W        W25018   1.227  24.057  18.050 -0.1225 -0.1617  0.2558
24155W        W25019  26.612  16.966  12.928 -0.0218 -0.0913 -0.1174
24156W        W25020   5.902   9.103  21.433  0.0823 -0.0896  0.0814
24157W        W25021  24.661  22.930   8.996 -0.2111  0.4161  0.2027
24158W        W25022  18.960  10.600   8.543  0.4947  0.1014 -0.0315
24159W        W25023   9.767  11.346  24.527  0.2001 -0.3422  0.1961
24160W        W25024   1.261  13.852  13.884  0.0490 -0.1059 -0.0654
24161W        W25025  19.815  21.274   8.291  0.3108 -0.0339 -0.1623
24162W        W25026   5.442   1.986  19.682  0.0843 -0.1622 -0.0123
24163W        W25027   0.585  28.274  10.564  0.3931  0.0082 -0.1313
24164W        W25028   8.761  26.080   3.353 -0.2256 -0.2195 -0.0003
24165W        W25029  23.266  15.477  11.085  0.0830 -0.3582 -0.1083
24166W        W25030  25.138   7.460   1.406  0.0563 -0.0390 -0.1610
24167W        W25031   6.947  21.827  26.773  0.1431  0.0704  0.0851
24168W        W25032  26.326  14.126   7.703  0.1171 -0.3434 -0.1415
24169W        W25033  10.362  13.058   8.132  0.2314  0.1205  0.1640
24170W        W25034  26.952   1.229   9.184 -0.0792  0.1748  0.3461
24171W        W25035  23.165   4.571  27.561  0.2501 -0.2221 -0.2835
24172W        W25036   2.909  25.568  13.327  0.1834  0.2651 -0.1311
24173W        W25037  26.019  27.295  12.352  0.4124 -0.3352  0.2233
24174W        W25038  17.385  28.921  23.075 -0.0855 -0.0122 -0.1558
24175W        W25039   9.714   8.506   7.626  0.0852 -0.3885  0.1042
24176W        W25040   5.598  27.343  20.750  0.1717  0.0895  0.2322
24177W        W25041  28.502  27.810  16.169 -0.0004  0.1559  0.1191
24178W        W25042   2.283   6.578  10.455 -0.0948  0.0326 -0.0326
24179W        W25043  12.148  12.605  24.793  0.0604 -0.1143 -0.0306
24180W        W25044   0.318   3.984  10.960  0.2761 -0.1349 -0.0823
24181W        W25045   8.067   5.299   2.628 -0.1114 -0.0387  0.0908
24182W        W25046  27.168   5.295  16.078 -0.1743 -0.0472 -0.2453
24183W        W25047  24.033  14.060   6.891  0.2394 -0.0412 -0.0319
24184W        W25048  20.373   5.388  22.559 -0.0092 -0.2766 -0.0618
24185W        W25049   8.792   4.100   4.607  0.4330  0.0308  0.0798
24186W        W25050  17.599   2.237  19.799 -0.0377 -0.0938  0.1172
24187W        W25051  28.669  26.868  10.864 -0.3299  0.1938 -0.1241
24188W        W25052  11.267   0.269   7.481 -0.3545  0.1431 -0.2019
24189W        W25053   4.799  25.588   5.205  0.2584 -0.4076  0.1004
24190W        W25054  15.772   3.367   6.134  0.2286  0.0805 -0.1592
24191W        W25055   9.198  19.602   5.286  0.2068 -0.1649  0.1553
24192W        W25056  28.373  24.460   9.908 -0.1307  0.1120 -0.2367
24193W        W25057  17.104   3.781   2.427  0.0790  0.2020  0.3425
24194W        W25058   4.449  27.108  12.739  0.0774  0.0320  0.2632
24195W        W25059   5.405  22.253   2.940  0.0524 -0.1145 -0.0441
24196W        W25060   7.538   6.209   0.946 -0.1455 -0.2621  0.3260
24197W        W25061  14.868   9.180  27.254  0.0995 -0.0133  0.0241
24198W        W25062  28.261  19.844  16.430  0.2209  0.1601 -0.0237
24199W        W25063   0.385  23.661  13.762 -0.0731 -0.1174 -0.0083
24200W        W25064   7.582  21.241  14.671 -0.0454  0.0407  0.0981
24201W        W25065   4.623  17.269   9.765 -0.2913 -0.0222  0.0362
24202W        W25066  20.285  25.677  23.526  0.1784 -0.1330  0.0808
24203W        W25067  22.959  10.284  17.537  0.0033  0.0700  0.0155
24204W        W25068  18.835   3.695  26.713  0.0806  0.1631  0.1562
24205W        W25069   4.918   8.701  13.963  0.3568 -0.0149  0.4173
24206W        W25070  26.349   8.202  19.227  0.1398 -0.0888  0.0043
24207W        W25071  19.517  21.639  17.739  0.2179 -0.0626 -0.0544
24208W        W25072   9.114  14.303  28.107  0.0261  0.4004 -0.2434
24209W        W25073   5.443  11.136  13.732 -0.0601  0.2218 -0.0331
24210W        W25074   2.684  20.294  22.819  0.1032 -0.1985 -0.0192
24211W        W25075  19.804   4.267   8.933 -0.0838 -0.0898  0.0568
24212W        W25076  19.582  23.982  26.462  0.1144 -0.1886  0.1869
24213W        W25077  15.965  26.665  14.147 -0.1879  0.1957  0.1029
24214W        W25078   7.245   5.787  18.272  0.1592 -0.0451  0.1577
24215W        W25079  17.043  23.028  22.332  0.0995  0.1155  0.2308
24216W        W25080  21.293  26.376  10.608  0.1712 -0.2096  0.3574
24217W        W25081  26.806  17.424   7.957  0.1060  0.0666  0.2030
24218W        W25082  20.935  19.337  17.730 -0.2695  0.0642 -0.1924
24219W        W25083   3.045  22.985  28.947  0.1728  0.1512  0.2507
24220W        W25084   1.476  22.779  15.234  0.0251  0.0860  0.1409
24221W        W25085  27.726   3.056  22.282 -0.1704 -0.0354  0.3388
24222W        W25086  28.091  12.628  22.978  0.0655 -0.0802  0.0590
24223W        W25087  11.878   5.531  10.112  0.2916  0.0426 -0.0082
24224W        W25088  25.345  21.375  20.400  0.0486  0.0270 -0.1851
24225W        W25089  29.095  13.421   0.747  0.2685  0.0581 -0.0579
24226W        W25090   4.978   9.624  26.462 -0.3497 -0.0245  0.0866
24227W        W25091   8.627   5.794   8.204  0.1209 -0.0041  0.1858
24228W        W25092  28.831  23.585  10.751  0.0709 -0.0869 -0.0641
24229W        W25093  12.908  10.667  17.120  0.3027 -0.0958 -0.1974
24230W        W25094  12.509  14.910  19.803  0.4467 -0.2510 -0.2821
24231W        W25095   1.278  25.864  15.780  0.5227 -0.0590  0.0774
24232W        W25096  28.226  15.098  24.769  0.1340 -0.0972 -0.1277
24233W        W25097  27.101  24.781  11.230 -0.3088 -0.2264  0.0521
24234W        W25098  25.189   0.872  28.965 -0.1331 -0.1451  0.2016
24235W        W25099  22.555  13.705  19.939  0.1570 -0.1066  0.1505
24236W        W25100  10.008  21.029  15.542  0.2390  0.2280 -0.0389
24237W        W25101   5.059  24.854  21.410 -0.1869 -0.0350 -0.0683
24238W        W25102  27.378  11.515  16.756 -0.0581 -0.4100 -0.4608
24239W        W25103  22.099   8.378  22.599 -0.2417  0.4057  0.2053
24240W        W25104  28.800  19.534  20.133 -0.1303  0.1307 -0.2294
24241W        W25105  25.157   9.603  21.767 -0.0863 -0.0510 -0.0649
24242W        W25106  16.001  10.677  19.687  0.0426 -0.0407  0.3243
24243W        W25107  18.714   4.266  10.941  0.2090  0.1502 -0.1406
24244W        W25108  10.765  11.500   2.197 -0.2490 -0.2415  0.0046
24245W        W25109   7.872   6.853   0.275  0.0505  0.1517 -0.2165
24246W        W25110  10.987   5.606  28.526  0.1842  0.4923 -0.0174
24247W        W25111  13.800  11.991  11.774 -0.2213  0.0189 -0.1703
24248W        W25112   9.887   4.074  23.520 -0.0266 -0.2061 -0.2858
24249W        W25113   0.330  25.403  21.945  0.1283  0.0007 -0.2640
24250W        W25114  25.530  26.233  18.451 -0.0012  0.2230  0.1596
24251W        W25115   1.618   3.988   5.730 -0.1024  0.0225 -0.2488
24252W        W25116  23.800  19.086  18.306 -0.0305  0.0787 -0.1011
24253W        W25117  24.306  14.832   4.175 -0.2032  0.1133  0.1537
24254W        W25118   5.164  20.264   9.252  0.0810  0.2397 -0.1592
24255W        W25119  26.826  12.256  15.915 -0.3060  0.1368 -0.0098
24256W        W25120   9.367  27.975  14.074  0.0285 -0.0347 -0.0330
24257W        W25121  12.560   5.741  25.430  0.1107 -0.0326  0.0139
24258W        W25122   2.556  26.831  12.844  0.0193 -0.0325 -0.2388
24259W        W25123   2.559  18.594  27.991 -0.2209 -0.2685  0.2713
24260W        W25124  21.547   6.585   3.050  0.1675  0.0119 -0.0995
24261W        W25125   6.646  26.726  11.150  0.2262 -0.0264  0.2732
24262W        W25126   8.210   7.008  25.096  0.0369  0.2062 -0.0915
24263W        W25127   3.898  11.349   2.246 -0.0505 -0.0046  0.0507
24264W        W25128   4.977  18.044   5.729 -0.0580  0.3095  0.0569
24265W        W25129   8.910  12.821  20.719  0.3808 -0.0774 -0.1271
24266W        W25130  18.172  10.748  14.539  0.2031  0.0449 -0.1743
24267W        W25131  23.829  19.333  26.777 -0.0289  0.0364 -0.1788
24268W        W25132  10.936   1.884  12.397 -0.1241 -0.2626  0.0721
24269W        W25133   6.542   6.880  18.524  0.0957 -0.1396 -0.1236
24270W        W25134   5.372   1.674  20.592  0.2895  0.1913  0.0987
24271W        W25135  28.566  26.950  13.440  0.1058  0.0152  0.1349
24272W        W25136   0.886  22.463   6.864 -0.1366 -0.0179 -0.0414
24273W        W25137  15.329   9.505   9.287  0.1286 -0.1662  0.1804
24274W        W25138   8.166  27.883   9.090  0.0524 -0.1060  0.2165
24275W        W25139   0.592  16.455   4.526 -0.2940 -0.1029 -0.0590
24276W        W25140   7.770  28.133  25.549 -0.2105 -0.0400 -0.0263
24277W        W25141  23.103  17.810  24.210  0.0707 -0.1804 -0.0668
24278W        W25142  24.029   8.226   8.546 -0.1073 -0.1062  0.1800
24279W        W25143   5.672   4.627  19.656  0.2266  0.0422 -0.1906
24280W        W25144  26.328  18.800  10.991 -0.1453 -0.5216 -0.0636
24281W        W25145  20.989  24.301  28.274  0.0378 -0.0276  0.0859
24282W        W25146   1.064  19.663   4.091 -0.0574  0.0005  0.0129
24283W        W25147  21.439   0.174   7.519 -0.1781  0.0024  0.0282
24284W        W25148   7.788  21.683  24.244 -0.0870  0.0446  0.0608
24285W        W25149   1.610   8.396  19.066  0.1607 -0.0875 -0.0167
24286W        W25150  28.989   2.768   9.768 -0.0271  0.0102 -0.0325
24287W        W25151  16.354  16.150   9.521  0.0130 -0.1096 -0.2370
24288W        W25152   2.579  28.277  23.798 -0.3664 -0.0007  0.0280
24289W        W25153  10.166  28.430  22.656 -0.0845  0.1934 -0.1541
24290W        W25154  24.480  20.486  17.478 -0.1953 -0.1829  0.0125
24291W        W25155  17.099  10.538  26.243 -0.1715  0.2149 -0.0897
24292W        W25156  14.651  20.672  18.104  0.0003  0.2455  0.0502
24293W        W25157   3.969   8.472  14.884 -0.3491 -0.0991 -0.1128
24294W        W25158   2.990   1.743  19.320 -0.2304  0.0348 -0.0390
24295W        W25159  22.239   2.989  17.109  0.2317 -0.1379 -0.1972
24296W        W25160   0.600  21.876  26.430  0.0640 -0.0654 -0.1464
24297W        W25161   3.043  25.719  17.589 -0.0075 -0.1731 -0.0660
24298W        W25162  21.342  17.232  24.053 -0.0880  0.2989  0.0371
24299W        W25163  21.528  21.836  27.903 -0.1236 -0.2107 -0.0547
24300W        W25164   9.922   0.083  22.327  0.0464  0.3613  0.2050
24301W        W25165   6.434   2.440  11.904  0.0691  0.2388  0.2809
24302W        W25166  28.294  14.183  19.860 -0.1567  0.1929 -0.0156
24303W        W25167  17.218  15.977  16.116  0.1411  0.2848 -0.1612
24304W        W25168  25.353  17.959  16.377 -0.0473 -0.0626  0.0924
24305W        W25169  22.279   1.761  24.792  0.1223  0.1064 -0.2807
24306W        W25170   6.976  28.761  18.433  0.0768  0.0462  0.1160
24307W        W25171   5.364  28.362  16.746 -0.0334 -0.2064 -0.2068
24308W        W25172  11.455   9.591  27.709  0.4389  0.1486  0.1622
24309W        W25173   5.846   0.059  26.080  0.0376  0.2675 -0.1098
24310W        W25174   2.158  10.955  15.432  0.2023 -0.1168 -0.0040
24311W        W25175  14.015  15.470   6.157 -0.3096 -0.3270  0.1465
24312W        W25176  28.501  12.052  17.065 -0.0513 -0.1810 -0.2546
24313W        W25177  15.377  24.746  20.613  0.0730  0.0993  0.0497
24314W        W25178  25.937  19.297  19.899  0.0706  0.0315 -0.1895
24315W        W25179   9.084  16.804  20.547 -0.1877 -0.0228  0.0721
24316W        W25180   3.500   0.300   2.538 -0.1903 -0.1279 -0.3236
24317W        W25181  17.407  14.738  13.603 -0.0897  0.1688 -0.0525
24318W        W25182  26.184  11.143  18.652  0.0869  0.0241 -0.1131
24319W        W25183  13.698   0.706  20.059 -0.0223 -0.4028 -0.0449
24320W        W25184  20.859  27.848   6.634  0.2021 -0.0776 -0.1373
24321W        W25185   0.601   7.373   8.646  0.0675 -0.0510 -0.0698
24322W        W25186  22.679   8.255  20.354  0.0077 -0.0965  0.1150
24323W        W25187   0.728   2.731  23.687  0.2015  0.1562 -0.2253
24324W        W25188  10.913  11.622  18.740 -0.0725  0.0959 -0.0718
24325W        W25189  10.380   9.946  10.636 -0.1615  0.0610 -0.2969
24326W        W25190  14.748   7.315   5.606  0.1896  0.1139  0.0714
24327W        W25191   0.191  16.099  27.480 -0.0611  0.1680  0.3944
24328W        W25192   3.601   1.465   3.632 -0.0283 -0.0394  0.0400
24329W        W25193  11.894  11.880  17.915  0.2516 -0.3732  0.0308
24330W        W25194  21.568  27.245   3.188  0.3394  0.0691 -0.0779
24331W        W25195   9.423  21.446  10.926 -0.0235  0.3805 -0.0323
24332W        W25196  12.081   9.208   5.037  0.0045 -0.0338 -0.0473
24333W        W25197   9.784   6.653  14.193 -0.0831  0.0338  0.1578
24334W        W25198  14.021  22.263   0.373  0.0219  0.0354  0.2949
24335W        W25199  16.551  14.614  18.247  0.0590  0.1159 -0.0719
24336W        W25200  13.120   4.125  22.410 -0.0392 -0.0523  0.0398
24337W        W25201  27.085  23.708  17.568  0.3018  0.2256  0.3750
24338W        W25202  25.329  17.862   8.732 -0.2271 -0.1201 -0.1932
24339W        W25203  24.271   3.658  14.682  0.4788  0.1640 -0.1531
24340W        W25204  13.093   3.946  21.964  0.0340 -0.1547 -0.0123
24341W        W25205   4.959  28.478   4.376  0.1356 -0.3740 -0.0921
24342W        W25206  25.900  11.872  12.219  0.0540 -0.1213 -0.1073
24343W        W25207  27.565  19.148  17.265 -0.1507  0.0588  0.1143
24344W        W25208   4.043  20.956  10.836 -0.1969 -0.0217  0.2446
24345W        W25209  11.300  28.426  27.179 -0.3002 -0.0226  0.1362
24346W        W25210  22.610  27.353  18.111 -0.1649 -0.2252 -0.0068
24347W        W25211   9.024  28.677  19.498 -0.2409  0.1225 -0.0329
24348W        W25212   1.547  16.905   6.373  0.2576 -0.2381 -0.0087
24349W        W25213  25.309   9.674   3.889  0.0513  0.1763 -0.3909
24350W        W25214  13.866  24.183  17.050  0.0555  0.1567  0.0107
24351W        W25215  18.676   4.599   4.555  0.0053  0.1576 -0.1351
24352W        W25216  12.573  21.757  20.327 -0.0318  0.0610  0.0812
24353W        W25217  10.498  23.556   2.760 -0.1803 -0.1137 -0.0147
24354W        W25218  25.645   4.933  15.827  0.0928  0.0431  0.2966
24355W        W25219  11.263   5.016  18.871  0.1868 -0.2219  0.1099
24356W        W25220   4.450  11.005  18.896 -0.3743  0.2593  0.3205
24357W        W25221   7.504   2.699   4.697 -0.0375  0.0622 -0.2008
24358W        W25222  20.604  25.966   0.380  0.2263 -0.1579 -0.2827
24359W        W25223   1.944  10.978   4.597  0.0962  0.0250 -0.0660
24360W        W25224  14.568  26.626  26.828 -0.1187 -0.1771  0.3763
24361W        W25225  13.408  25.752  15.713  0.0552  0.0221 -0.0040
24362W        W25226  24.079  17.143  19.985  0.1310 -0.0727  0.1518
24363W        W25227   5.074  24.487  24.738  0.2184 -0.0907 -0.1357
24364W        W25228  20.228  28.768  17.083 -0.1663 -0.0335  0.2040
24365W        W25229   6.389  28.203  22.927  0.5021  0.4145  0.0384
24366W        W25230  10.479  27.500  23.507 -0.2002  0.2845 -0.1048
24367W        W25231  17.277   4.326  19.280  0.1999  0.0667 -0.0317
24368W        W25232   1.810  28.742  22.282  0.0543 -0.0609  0.0428
24369W        W25233   8.150   6.544  13.631  0.1004 -0.1616  0.1300
24370W        W25234  28.448  18.516  27.393 -0.2122 -0.2696  0.0149
24371W        W25235  21.725  10.019  20.558  0.0093 -0.2669  0.0094
24372W        W25236   3.917   6.864  10.544  0.3329 -0.0259  0.0410
24373W        W25237  28.516   2.458  24.716  0.3436 -0.2452 -0.0103
24374W        W25238  28.737  18.893  18.024 -0.1483  0.2438  0.0475
24375W        W25239  28.206   9.447  15.268 -0.1934  0.4147 -0.0663
24376W        W25240  28.379  21.263  13.896 -0.0435 -0.0753  0.0442
24377W        W25241  29.001   4.474  23.368 -0.1223 -0.0069 -0.2339
24378W        W25242  25.937   3.538  15.586  0.0208 -0.1142 -0.2737
24379W        W25243  27.757  26.605  22.734  0.0674  0.2977  0.1822
24380W        W25244   1.269   7.677   1.672  0.0857 -0.5422 -0.3273
24381W        W25245  21.116  27.858   2.402  0.1385 -0.1313  0.0309
24382W        W25246  11.065   7.425   3.605 -0.2931  0.3437  0.0673
24383W        W25247  18.773   0.734   9.707 -0.1589  0.2219 -0.2456
24384W        W25248  21.810  22.380   5.856 -0.0972 -0.1902 -0.2007
24385W        W25249  27.411  29.052  25.465 -0.1272 -0.1893  0.0567
24386W        W25250  14.903  10.043  26.684 -0.1951 -0.2634  0.2507
24387W        W25251  25.530  10.554   3.822 -0.2296 -0.2787 -0.0235
24388W        W25252  10.207   3.273   8.659  0.0025  0.1218 -0.3757
24389W        W25253  25.835  26.826  28.324 -0.2190 -0.2236 -0.1795
24390W        W25254   3.755  10.425  28.465  0.0670 -0.0727  0.0347
24391W        W25255   0.359   3.955  25.530  0.0082 -0.1402 -0.0527
24392W        W25256  16.933   7.986  15.708  0.1327  0.2326  0.1507
24393W        W25257  18.250   0.723   9.656 -0.0491 -0.1058  0.0255
24394W        W25258   6.968  25.786  22.563 -0.1426 -0.1599  0.4212
24395W        W25259   5.834   7.307  10.841 -0.0592 -0.0700 -0.0142
24396W        W25260  21.399  20.098  16.035  0.2750 -0.0750  0.1319
24397W        W25261   2.268  28.799   4.425  0.1137  0.0553  0.0060
24398W        W25262  29.099  28.104  11.161  0.0193 -0.1582 -0.0348
24399W        W25263  21.863   2.897  19.775  0.3174 -0.2765  0.0521
24400W        W25264  25.599  26.461  10.888  0.2893 -0.1509 -0.0685
24401W        W25265  23.852  28.339  22.277  0.1037  0.1915  0.0275
24402W        W25266   8.173  24.762  14.187  0.2045 -0.0942 -0.1820
24403W        W25267  28.597  27.599  17.886 -0.0166 -0.1535  0.1183
24404W        W25268   3.441  27.898  17.486  0.1631 -0.1373  0.1927
24405W        W25269  13.707  12.905   6.671 -0.0621 -0.1121  0.2630
24406W        W25270  27.074  21.405  15.633 -0.1347 -0.0879  0.0980
24407W        W25271  15.013  19.012   7.162  0.1827  0.0630  0.0043
24408W        W25272   8.494   5.705  12.555  0.2315  0.1114 -0.2183
24409W        W25273  27.435  26.367   1.809  0.0801 -0.3330 -0.1866
24410W        W25274   6.418   6.809  25.347  0.0319  0.1863  0.0538
24411W        W25275  26.893  20.288  21.219  0.0873  0.1659 -0.1059
24412W        W25276   3.421  19.294  12.950 -0.1961 -0.2589  0.3039
24413W        W25277  28.257  16.007   7.677 -0.0699  0.0539 -0.0275
24414W        W25278  14.436  16.812  11.349 -0.2203  0.2484  0.1641
24415W        W25279  21.272  28.483  27.713  0.0288  0.1461 -0.7385
24416W        W25280  28.954   3.747  26.336 -0.0868 -0.0084  0.3692
24417W        W25281  24.565   6.609  20.231 -0.0948 -0.0539 -0.0635
24418W        W25282  10.145   3.237   4.249 -0.2454 -0.1407 -0.0221
24419W        W25283  28.852  16.882  22.391  0.0812 -0.2103 -0.0368
24420W        W25284  10.719   2.200  24.951  0.1125 -0.1820  0.3056
24421W        W25285  24.245  19.849  11.741  0.1537 -0.0439  0.0443
24422W        W25286  11.445  15.716  12.933  0.2452 -0.2179 -0.0331
24423W        W25287  19.861  16.674  12.921  0.1116  0.0562  0.0327
24424W        W25288  22.610  22.924   4.491  0.0284 -0.2956 -0.1096
24425W        W25289   6.651  18.016   6.273 -0.0842 -0.0561 -0.0917
24426W        W25290   9.197  12.171  19.893 -0.2028  0.0634 -0.0785
24427W        W25291   1.429   0.726  18.876  0.1635  0.0157  0.0387
24428W        W25292  26.284  19.182   7.843  0.1144 -0.0986 -0.0381
24429W        W25293  14.752  19.274   7.929  0.0064  0.0152 -0.0675
24430W        W25294   8.818  15.402  14.715 -0.1916 -0.1574  0.1946
24431W        W25295  26.772   5.724  11.623 -0.3531  0.2261 -0.0590
24432W        W25296  11.240  24.816   0.819 -0.0784 -0.0866  0.1757
24433W        W25297  23.146  23.474  24.613 -0.0233  0.2135  0.3323
24434W        W25298   1.313   2.421  23.865 -0.0285 -0.0557 -0.1393
24435W        W25299  23.737  26.570  17.764 -0.1091 -0.0894  0.0092
24436W        W25300  25.651  17.262  18.762 -0.2277 -0.0943  0.0043
24437W        W25301  13.505  19.505   0.206  0.2243 -0.1171 -0.0237
24438W        W25302   9.914  27.107  24.720  0.0399 -0.0746  0.0387
24439W        W25303  11.015  25.747  26.266 -0.2000 -0.0908  0.0394
24440W        W25304   2.278  24.684  17.039  0.2069 -0.2280  0.2066
24441W        W25305   7.612  21.539  18.856  0.0958  0.0409  0.2173
24442W        W25306   2.605  10.174  20.536  0.0492 -0.4895 -0.2319
24443W        W25307  19.380  16.421   1.945  0.0547  0.1818  0.1290
24444W        W25308  18.186   6.779  28.800 -0.1489  0.3615  0.0178
24445W        W25309  14.240  11.024  24.208  0.0452  0.1388 -0.2222
24446W        W25310  11.141  13.485  14.560  0.1134 -0.2179  0.1281
24447W        W25311   1.552  10.214   7.925 -0.2898  0.0281 -0.0824
24448W        W25312  28.201  28.904   2.949  0.3652  0.1645  0.3746
24449W        W25313   2.115  17.833  21.611 -0.0785  0.0208  0.2720
24450W        W25314  25.022  11.082  19.762 -0.1812 -0.1522  0.1771
24451W        W25315  11.009  25.481  20.670 -0.2671 -0.0522 -0.2434
24452W        W25316  18.875   7.204  22.914  0.1908 -0.2972  0.2532
24453W        W25317   2.142   2.447  17.665  0.0872  0.0970 -0.0504
24454W        W25318  24.553  27.410  27.758  0.3979  0.0051 -0.0084
24455W        W25319   7.490  20.232  20.293  0.2379 -0.0294 -0.1936
24456W        W25320  15.443  17.568  16.570  0.1584  0.1448  0.1510
24457W        W25321   6.961  25.703   9.939  0.2736 -0.2236 -0.0521
24458W        W25322  28.881  13.430  17.510  0.0414 -0.1377 -0.0933
24459W        W25323   1.123  21.951   3.536 -0.2011 -0.0337 -0.1101
24460W        W25324   3.273   4.022   7.391  0.1845 -0.4683  0.2157
24461W        W25325  18.298  27.411   9.955 -0.2838 -0.1123  0.1389
24462W        W25326  25.284   9.127  14.852  0.2804 -0.0254  0.0719
24463W        W25327  16.343  20.574   7.139  0.0608  0.1997 -0.0857
24464W        W25328   9.720   7.049  24.496 -0.1917 -0.2423 -0.1543
24465W        W25329  27.188  18.705  20.554 -0.0730 -0.0400 -0.0398
24466W        W25330  22.583   5.658   8.359  0.0473 -0.2305  0.0185
24467W        W25331  26.350   6.796  21.950 -0.0181  0.2542 -0.3121
24468W        W25332  13.480   0.892  27.002 -0.2042  0.1959 -0.1020
24469W        W25333   0.604  25.357   7.295  0.0785  0.0924  0.2732
24470W        W25334   2.573  20.310  12.993 -0.0561  0.0097 -0.0421
24471W        W25335  18.870  10.108   9.938  0.0418  0.0468 -0.2284
24472W        W25336  17.106  13.516  24.282  0.1094 -0.2233 -0.1808
24473W        W25337  26.329  23.261  19.215 -0.1762  0.2203  0.1282
24474W        W25338   1.841  21.537   6.667  0.0190  0.0180 -0.0947
24475W        W25339  21.152  24.815   7.701 -0.1709  0.2094 -0.0757
24476W        W25340  24.195  13.651  22.677 -0.1435  0.2686 -0.0229
24477W        W25341  14.107  28.276  27.534  0.1533 -0.0273 -0.2705
24478W        W25342   1.334  22.517   3.680  0.0441 -0.1068  0.2692
24479W        W25343   2.998  15.632  20.716  0.0210  0.0248  0.1235
24480W        W25344  18.570  15.443   9.209  0.4893 -0.5349  0.4913
24481W        W25345  20.646  27.915  22.709 -0.4977 -0.0596  0.1022
24482W        W25346  18.925  13.699  18.101 -0.4360  0.1963  0.1978
24483W        W25347  18.089  12.132  13.767 -0.3509 -0.3098 -0.1789
24484W        W25348  28.957   8.361  22.615 -0.0291  0.0128 -0.0823
24485W        W25349   8.596  12.773  21.592 -0.2221 -0.0219  0.1063
24486W        W25350   7.060  19.861  12.767 -0.2252  0.0572 -0.2855
24487W        W25351  26.229  21.647  16.087 -0.0668 -0.0706  0.2851
24488W        W25352   0.088  10.680  24.637 -0.0843  0.0162 -0.0486
24489W        W25353   2.712  28.082  13.191  0.1020 -0.1295  0.1691
24490W        W25354   9.793  17.534  24.697  0.1326  0.0272 -0.1873
24491W        W25355  24.202  23.450   8.402 -0.3961 -0.1185  0.1459
24492W        W25356   1.832   1.087  14.576  0.2636  0.1045 -0.5601
24493W        W25357   0.243  27.380  12.562  0.1698  0.2465  0.0909
24494W        W25358  11.813  26.120   3.906  0.4430  0.3058  0.1644
24495W        W25359  24.101   1.110   5.399 -0.2184 -0.2780 -0.0476
24496W        W25360   9.361  18.258  13.962 -0.1294  0.2419  0.0691
24497W        W25361   9.672  20.345  17.687 -0.0965 -0.0171  0.0019
24498W        W25362  27.033  24.852  21.953  0.1766  0.1360 -0.0149
24499W        W25363  14.742  17.084   9.871 -0.1196  0.1132 -0.1379
24500W        W25364  28.209   4.519  23.562  0.0001 -0.0395  0.0797
24501W        W25365   0.792  14.961  26.505  0.0230  0.0344  0.1444
24502W        W25366  24.067  27.206  14.316 -0.1633 -0.3940  0.0163
24503W        W25367  10.345  21.837   4.117  0.1250 -0.1677 -0.1516
24504W        W25368   4.494   2.689  26.983  0.0080  0.1135 -0.0088
24505W        W25369   2.726   3.406  21.254 -0.0126  0.2041  0.0382
24506W        W25370  25.567  13.202  21.499  0.2756  0.2525 -0.3389
24507W        W25371  24.630   7.742  21.771  0.2121  0.0093 -0.2458
24508W        W25372  17.882   3.139   0.341 -0.0310  0.2767  0.2284
24509W        W25373  20.224  18.045  15.279 -0.3778  0.1426  0.3036
24510W        W25374  23.601  14.423  20.773 -0.2748 -0.0803  0.0642
24511W        W25375   8.909   5.097  28.493 -0.3368 -0.0331  0.1061
24512W        W25376  27.210  18.844   9.494 -0.1708 -0.2017  0.3121
24513W        W25377   0.962   8.598  10.951 -0.0404 -0.1098 -0.1779
24514W        W25378  15.546   5.101   0.701 -0.1952 -0.1344  0.2086
24515W        W25379  17.111   4.818  26.954  0.1860  0.3350 -0.0866
24516W        W25380   6.277  28.046  21.964  0.2108  0.0571 -0.1149
24517W        W25381  28.579  26.834  21.622 -0.0718 -0.0176 -0.1296
24518W        W25382  14.214   7.164   1.024 -0.0055 -0.0840 -0.0842
24519W        W25383  21.405   5.416   8.140 -0.0444  0.0778 -0.0345
24520W        W25384  20.218  22.930  17.389 -0.2249  0.0548 -0.1343
24521W        W25385  15.551   9.332  10.497  0.2416  0.1033  0.0091
24522W        W25386  27.010  26.263   2.026 -0.2780  0.0627 -0.0658
24523W        W25387  26.305   4.613  18.595  0.2369  0.0389 -0.2470
24524W        W25388  19.691  26.396   1.268  0.2922 -0.1985  0.0881
24525W        W25389   6.023   5.847  16.201 -0.2136 -0.0979  0.1959
24526W        W25390  23.589  17.597   5.562 -0.1330 -0.4769 -0.0718
24527W        W25391  20.877  28.887  11.657 -0.3219  0.1593 -0.1499
24528W        W25392  22.967   5.783  25.311  0.0062  0.0662  0.1099
24529W        W25393   3.361   7.098   3.277 -0.0005  0.2028 -0.2525
24530W        W25394  22.128   1.059   9.786 -0.0260 -0.0961 -0.0078
24531W        W25395  13.478  18.578  25.411 -0.1030 -0.1111 -0.3669
24532W        W25396   5.576  28.995  24.510 -0.1747 -0.4110  0.0835
24533W        W25397  21.510  13.796   8.322  0.1769 -0.2422  0.0982
24534W        W25398  11.674   4.364   6.660 -0.1965  0.1449 -0.1926
24535W        W25399   5.049  16.399  26.725 -0.2896  0.2022 -0.3118
24536W        W25400   1.826  18.034  20.328 -0.1199  0.2269 -0.2627
24537W        W25401   3.102  15.829   6.549 -0.2974  0.0631  0.0990
24538W        W25402  10.291   5.028  23.525  0.0317  0.0997 -0.1871
24539W        W25403  10.171   7.617  28.929  0.2566  0.3695 -0.2908
24540W        W25404  23.509  24.854   3.610  0.0096  0.1650  0.2999
24541W        W25405   9.754  19.133  23.912 -0.1922  0.2246  0.0635
24542W        W25406  27.630  13.657  18.401  0.1892  0.4312 -0.1760
24543W        W25407  11.856  28.823  20.995  0.4598 -0.0537 -0.0844
24544W        W25408   9.439  18.864  15.291  0.4285 -0.0957 -0.1209
24545W        W25409  28.435   0.088  10.840 -0.1983  0.0407 -0.2023
24546W        W25410  20.911   5.828   2.606 -0.1035 -0.2887  0.2681
24547W        W25411  12.450   0.658  16.428 -0.0725 -0.1559  0.1291
24548W        W25412   2.549   3.614  27.863 -0.0850  0.3784 -0.0583
24549W        W25413   1.714   7.270  10.115  0.1049  0.0896  0.2078
24550W        W25414   6.396  24.760  28.407 -0.0437 -0.0247  0.3018
24551W        W25415   0.550  24.198  12.901  0.0672 -0.3073 -0.1708
24552W        W25416   5.458   3.647  17.213 -0.0291 -0.1592  0.0764
24553W        W25417  24.630   3.807   6.900 -0.2229 -0.1565 -0.1823
24554W        W25418  20.975   0.194  24.689  0.1618 -0.1864 -0.0784
24555W        W25419  19.135   1.666   5.539 -0.3883 -0.1443  0.1709
24556W        W25420   7.422  24.582   3.050  0.0196 -0.0119  0.1167
24557W        W25421  26.642  16.102   0.887  0.1220  0.0900  0.0018
24558W        W25422  25.056  16.324  22.989 -0.4756  0.1209  0.2058
24559W        W25423  22.684   3.106  22.499 -0.2105 -0.1876  0.1423
24560W        W25424   0.004  25.599  20.449 -0.1540  0.1123  0.0305
24561W        W25425  24.870   2.548  18.494 -0.2483  0.0421  0.3670
24562W        W25426  16.128   2.141  26.448 -0.1188 -0.0030 -0.1602
24563W        W25427  15.567  10.830  24.209 -0.1709 -0.0782  0.0494
24564W        W25428  14.653   1.364  17.106 -0.0009  0.1483  0.0256
24565W        W25429   2.435  19.280  14.563  0.1872  0.3257 -0.2156
24566W        W25430  28.713  26.055  10.423 -0.2774  0.1115  0.1689
24567W        W25431   6.363  21.075   4.437 -0.1505  0.0124  0.0606
24568W        W25432  24.853  28.301  23.851  0.1362 -0.4993  0.0591
24569W        W25433  22.824  24.437  25.575  0.0075  0.1831 -0.1154
24570W        W25434  16.974  22.243   4.358 -0.0288 -0.1889 -0.1296
24571W        W25435  21.401  21.531  10.218  0.0790 -0.1410  0.1211
24572W        W25436   6.827   5.350  17.573  0.2432 -0.0456  0.2521
24573W        W25437  27.234  14.065   6.599  0.2511 -0.1039  0.2025
24574W        W25438  23.016   2.821  20.443  0.4666  0.1851 -0.0089
24575W        W25439  11.751   2.230   0.109  0.0403  0.2424  0.0631
24576W        W25440  11.584   5.347  10.512 -0.0829  0.3781 -0.2059
24577W        W25441  14.201  17.501  22.416  0.2070  0.0467  0.0094
24578W        W25442   5.603  19.592   3.280  0.0182 -0.0522 -0.1810
24579W        W25443  19.655  25.729  17.601 -0.1403  0.0160  0.1578
24580W        W25444  17.219  23.743  15.081  0.2555  0.1677 -0.1057
24581W        W25445   6.443  24.317  19.763  0.1888 -0.4115  0.1567
24582W        W25446   3.938  25.607  11.174  0.1897 -0.0758  0.0817
24583W        W25447  15.055  16.786   4.022 -0.1110  0.1027  0.0355
24584W        W25448  23.748   6.837  29.018 -0.2456  0.1897 -0.0662
24585W        W25449   9.058   0.320   8.785 -0.0676  0.3389  0.0534
24586W        W25450  27.307   5.129   2.813 -0.4061  0.1960 -0.2615
24587W        W25451   9.800   1.455  14.099 -0.2177  0.2951  0.0108
24588W        W25452  22.729  23.457  10.879 -0.0483 -0.3259  0.0583
24589W        W25453  27.697  23.502   8.792 -0.4035 -0.1262 -0.0697
24590W        W25454  28.764  21.381  14.197 -0.1406  0.0850 -0.1057
24591W        W25455  18.381  25.920   9.249  0.0332  0.1145  0.1602
24592W        W25456   2.890  25.965  13.707 -0.1097  0.0408 -0.1605
24593W        W25457   4.153   6.252  28.541  0.1948  0.0029 -0.1657
24594W        W25458   8.323  10.592  19.238 -0.0058 -0.1650  0.0033
24595W        W25459   0.464  26.814   6.918 -0.1281 -0.1233  0.0286
24596W        W25460  19.305  23.129  20.770 -0.0473  0.1370  0.0820
24597W        W25461  13.945   3.459   1.913 -0.0562  0.0143  0.0952
24598W        W25462  25.033  10.625  28.153 -0.0550  0.0788 -0.0601
24599W        W25463   0.237  27.454  25.378  0.1300  0.0304 -0.1881
24600W        W25464   8.813  26.675   9.668 -0.0673  0.0425  0.0155
24601W        W25465   3.748   8.402  12.972  0.0577  0.4275 -0.0744
24602W        W25466   3.758   4.086   3.914 -0.0963 -0.1267  0.2533
24603W        W25467  28.295  26.779  18.105  0.1776  0.0716 -0.0568
24604W        W25468   1.542   0.210  15.860 -0.3498  0.3130 -0.0048
24605W        W25469   8.332  22.173  24.802 -0.0631 -0.1571  0.1985
24606W        W25470  15.926   7.299  16.716 -0.1420 -0.3261  0.1061
24607W        W25471  19.763  21.124  22.986  0.1554 -0.1419 -0.0243
24608W        W25472  27.994  21.825   9.465 -0.0924 -0.0386 -0.0312
24609W        W25473  22.044  26.493   4.344 -0.2823  0.1672  0.0109
24610W        W25474  23.260  18.322  18.839  0.0182  0.0281  0.0207
24611W        W25475  14.843  25.636  19.737  0.2739  0.1605 -0.0906
24612W        W25476  11.596  16.978  15.352 -0.0926  0.0867  0.4430
24613W        W25477  18.329  21.367  20.701 -0.2565  0.3176 -0.1099
24614W        W25478  26.850  12.246  14.575  0.0407  0.1762  0.0057
24615W        W25479  21.376   1.115   6.459  0.0594  0.0787 -0.3547
24616W        W25480  23.885  23.768  16.107  0.0721 -0.0048 -0.0018
24617W        W25481  25.596   2.988   1.463 -0.2775  0.1018 -0.0685
24618W        W25482   1.436  22.250  25.475  0.2028 -0.2136  0.0522
24619W        W25483   2.319  21.321  15.285  0.0960 -0.1284 -0.2583
24620W        W25484  22.827  21.318  25.810  0.1266 -0.0532  0.1384
24621W        W25485   4.295  13.529  25.177  0.2988 -0.0978  0.0115
24622W        W25486   7.487   9.467  14.604  0.0791 -0.0914 -0.0509
24623W        W25487  15.321  15.788  24.439 -0.4980 -0.1223 -0.0630
24624W        W25488  22.484  27.142  24.424 -0.3604  0.0175 -0.2533
24625W        W25489  20.985   1.977  10.323 -0.1434 -0.3602  0.0840
24626W        W25490  23.923  16.416  15.027  0.2737  0.2388  0.0793
24627W        W25491  28.276  18.978  21.908  0.2530 -0.0149 -0.2730
24628W        W25492   2.223   6.786  26.813 -0.0341  0.0630 -0.0789
24629W        W25493  22.477  24.652  23.093  0.1069 -0.0234 -0.0038
24630W        W25494  26.997  21.229  28.854 -0.0810 -0.1610 -0.2101
24631W        W25495  28.409   4.101   8.520  0.2268  0.0784  0.0948
24632W        W25496   9.697  12.222   4.078  0.0606  0.0437 -0.0760
24633W        W25497   5.375  24.232  25.854 -0.0410 -0.1433  0.0438
24634W        W25498   2.862  16.092  11.171  0.1741  0.0199 -0.3043
24635W        W25499  16.013  11.734  16.901  0.2949  0.1180  0.0929
24636W        W25500  14.731   6.348  27.043 -0.0656  0.1680  0.2679
24637W        W25501   4.101  11.153  12.310 -0.1673  0.0148  0.2561
24638W        W25502  29.143   1.790  11.917 -0.1879 -0.1236 -0.3151
24639W        W25503   1.496  27.505  27.402 -0.1010 -0.2146  0.1412
24640W        W25504   4.922   3.720  12.792  0.2645  0.0048 -0.0433
24641W        W25505   9.552  18.090  19.127  0.0458 -0.2587  0.0102
24642W        W25506   5.454  18.957  12.003  0.1724  0.0745  0.1531
24643W        W25507  15.079  24.315  19.370 -0.1545 -0.0594  0.3463
24644W        W25508  16.731  14.994   5.773  0.3018  0.0134 -0.1111
24645W        W25509  21.560   2.938   0.984  0.2093  0.1686  0.0944
24646W        W25510  18.874  27.893  17.442 -0.2002  0.2737 -0.0281
24647W        W25511   0.528  22.794   3.299 -0.1292  0.1572 -0.1742
24648W        W25512   3.872  28.903  18.364 -0.0209 -0.1715 -0.1720
24649W        W25513  21.799   1.212  27.245  0.0582 -0.1572 -0.3490
24650W        W25514  28.689  21.768  24.480  0.3998  0.2996  0.0349
24651W        W25515   1.851  18.299  21.577 -0.3119  0.1344  0.4500
24652W        W25516  20.634  24.526   3.345  0.0431  0.1932 -0.0243
24653W        W25517  29.088  10.890  14.296 -0.0395 -0.0793 -0.2998
24654W        W25518  28.905  14.163  12.900 -0.2474  0.2379 -0.0357
24655W        W25519  17.522  14.466  26.844  0.1280  0.0501 -0.3137
24656W        W25520  11.240  23.603  24.581 -0.1172 -0.1324 -0.1460
24657W        W25521   1.241  25.328  19.367  0.1837 -0.0792 -0.1489
24658W        W25522   0.827  17.573   3.269  0.1959  0.0247  0.0446
24659W        W25523  26.720   2.553  23.482 -0.1672 -0.2138  0.0646
24660W        W25524   8.569  19.598  23.672  0.2047 -0.1996  0.0784
24661W        W25525  18.667  26.040   4.479 -0.0418  0.3546 -0.0960
24662W        W25526   4.877   1.613  25.437  0.4188  0.3202 -0.0768
24663W        W25527  21.245  15.195  27.836  0.2259 -0.1787  0.0054
24664W        W25528   0.529   3.166  26.501  0.0973 -0.0736 -0.2705
24665W        W25529  10.171   3.337  16.126 -0.2724  0.2122  0.0596
24666W        W25530  15.137  24.875   3.178 -0.0296 -0.2003  0.0780
24667W        W25531   1.145  16.717   1.103  0.0071  0.0312  0.1133
24668W        W25532  25.513  26.003  11.162  0.0277 -0.0852  0.1301
24669W        W25533  17.910   2.017   6.448 -0.0715  0.0585 -0.2594
24670W        W25534   8.619  14.649  27.248  0.3545 -0.2651  0.3176
24671W        W25535  15.517  28.885   2.196  0.2527 -0.0014  0.0784
24672W        W25536  14.815   2.744   7.203 -0.1945 -0.2306 -0.2806
24673W        W25537   6.430  24.192  24.280  0.1527  0.0784  0.1618
24674W        W25538  19.117   3.668  19.424 -0.2521  0.0312  0.2713
24675W        W25539   6.134   1.937   0.054 -0.2056  0.3606  0.0507
24676W        W25540   0.030   2.990  24.840 -0.1779 -0.0831  0.1492
24677W        W25541  15.676  19.954  16.191  0.1845  0.0148 -0.0231
24678W        W25542  29.042  15.768   4.623  0.0246  0.1021  0.0592
24679W        W25543  22.115  15.685  16.064 -0.2051  0.1293  0.0677
24680W        W25544  26.112   6.925   9.009  0.0775 -0.3486 -0.2191
24681W        W25545  22.209   0.144  14.235 -0.1483 -0.0770 -0.2497
24682W        W25546   2.579   7.381  17.695  0.1240 -0.1151 -0.1179
24683W        W25547  11.461  23.646   1.801  0.0588 -0.3881 -0.1383
24684W        W25548   3.735  17.197  20.770 -0.0439 -0.0015 -0.1846
24685W        W25549  10.918  17.002  22.645 -0.1274 -0.0453  0.2365
24686W        W25550  28.958  13.174  16.845  0.2325 -0.1283  0.0222
24687W        W25551   4.067   0.825  23.387  0.0440  0.0843  0.2824
24688W        W25552   2.122  23.916  18.054  0.2330 -0.0316 -0.0268
24689W        W25553  28.567   9.213  23.464 -0.2345  0.1994  0.2262
24690W        W25554   2.626  24.188   3.348  0.3090 -0.0384 -0.1243
24691W        W25555  28.189   1.217  14.907  0.3016  0.0229 -0.2889
24692W        W25556   5.703  22.593  19.048 -0.1368  0.0231  0.0169
24693W        W25557  24.802   3.438  13.304 -0.1402  0.2443  0.1509
24694W        W25558   3.783   7.772   2.309 -0.0383 -0.0753  0.1237
24695W        W25559   0.538   4.189  25.955  0.1842  0.2570  0.0725
24696W        W25560   3.918  23.245   8.949  0.1268  0.0311  0.0313
24697W        W25561  10.157  16.577  24.401  0.1490 -0.0373  0.2439
24698W        W25562  28.616  13.421   6.653 -0.0886  0.1276 -0.1473
24699W        W25563  17.618  18.975  25.464  0.0531  0.1671  0.0151
24700W        W25564   5.052  19.364  13.577  0.0960 -0.0387  0.1915
24701W        W25565  11.015  28.461  22.517 -0.2583  0.4114  0.1254
24702W        W25566  20.700  12.097  21.438 -0.0261  0.0487 -0.3662
24703W        W25567   2.837   1.031  20.363 -0.3029 -0.1322  0.0371
24704W        W25568   7.872  26.274  24.343 -0.2791 -0.1213  0.0565
24705W        W25569   6.751  24.498  15.453  0.3234  0.1593 -0.0892
24706W        W25570   8.215   2.421  25.394 -0.0466  0.0930 -0.0839
24707W        W25571   7.111   4.428  11.325  0.0328 -0.0140 -0.0468
24708W        W25572  20.616   7.936  13.997 -0.1874  0.2453 -0.1097
24709W        W25573  10.810  28.385  19.022 -0.0385 -0.1445 -0.2382
24710W        W25574  25.040  23.409  21.475 -0.2856 -0.0750  0.0098
24711W        W25575  17.160  27.381   9.233 -0.4827 -0.1092 -0.2092
24712W        W25576  26.952  24.376   3.272 -0.1725 -0.0125 -0.0504
24713W        W25577  12.049   7.959  29.135  0.0323 -0.0301 -0.3412
24714W        W25578   4.672  12.966  27.684  0.0474  0.0183  0.1228
24715W        W25579  25.164  15.829  15.032 -0.1588  0.2037 -0.0790
24716W        W25580   5.698  24.840   7.860  0.1856 -0.0432  0.1435
24717W        W25581  28.306  15.314  27.198 -0.2675 -0.1961  0.3745
24718W        W25582  12.783   3.751  22.429  0.0977 -0.0887 -0.1887
24719W        W25583  27.140  25.444  23.284 -0.0789  0.0932 -0.3417
24720W        W25584  15.344  26.629  19.302 -0.0076  0.2518 -0.0242
24721W        W25585  10.476   4.721  17.763  0.1775  0.0760  0.0980
24722W        W25586   7.960   2.038  20.981  0.0647 -0.0671  0.3094
24723W        W25587  27.454  28.669  24.438 -0.1501 -0.5807  0.0029
24724W        W25588   9.126  20.529  19.318  0.0578 -0.0063 -0.0786
24725W        W25589  12.274  11.371  13.477 -0.1150 -0.1834  0.1991
24726W        W25590   2.423  25.515  17.160  0.2806 -0.0029 -0.2405
24727W        W25591   3.807  26.400  23.627  0.1468  0.1375 -0.0031
24728W        W25592   4.131  10.634  12.329  0.3892  0.1785  0.0891
24729W        W25593  13.076  20.239  16.748 -0.0822  0.1218 -0.0685
24730W        W25594  28.268  16.413  15.850 -0.2999  0.3684  0.0914
24731W        W25595  23.245  27.373  18.203 -0.1860 -0.1007  0.0068
24732W        W25596   7.484  19.319  13.475 -0.0367 -0.0182  0.2260
24733W        W25597  17.963  24.450  10.968  0.1217 -0.1012 -0.0352
24734W        W25598  26.180   4.072  25.785  0.1338  0.1635  0.0594
24735W        W25599  24.819   4.363  16.839 -0.3550  0.2042  0.0441
24736W        W25600  20.492  18.039   0.934 -0.1928  0.0596  0.2843
24737W        W25601   1.146  27.048   5.499 -0.1027 -0.2560  0.1190
24738W        W25602  21.535  28.745  11.728  0.0132 -0.1430 -0.1200
24739W        W25603  25.624   0.482   6.875  0.1294  0.0286 -0.1528
24740W        W25604  28.578   1.525  20.981  0.1403 -0.1554  0.0652
24741W        W25605   6.986  25.482  17.191  0.1327 -0.0964  0.2044
24742W        W25606  10.608   5.016  15.366 -0.0787  0.0370 -0.1311
24743W        W25607  21.664   5.370  17.141  0.4530  0.1290 -0.0894
24744W        W25608   3.469  25.465   3.697 -0.0013 -0.1813  0.1021
24745W        W25609  27.829   1.533  21.453  0.3323 -0.1982 -0.1235
24746W        W25610   4.406   0.287  21.231  0.0774  0.0489 -0.1092
24747W        W25611  14.414  25.966   6.058 -0.1134 -0.0738 -0.2073
24748W        W25612   1.972  27.045  10.500 -0.0131  0.3083 -0.1537
24749W        W25613  17.593  25.643  20.487 -0.1507  0.0488  0.2781
24750W        W25614   8.412  19.913  25.589 -0.2694 -0.4475 -0.0015
24751W        W25615  17.638  26.319   1.071 -0.4311  0.2893 -0.2957
24752W        W25616  17.726  17.519   8.069 -0.0632  0.0222 -0.1154
24753W        W25617   5.756  26.705   2.446 -0.0776 -0.0784  0.1039
24754W        W25618  12.449  22.012  27.745 -0.0720  0.0433  0.1795
24755W        W25619   2.022  19.490   1.345  0.0145 -0.1494  0.1484
24756W        W25620  26.747  25.155  21.547  0.1335  0.1097  0.0442
24757W        W25621  18.079   1.552  25.251 -0.0475 -0.0536 -0.0389
24758W        W25622   2.964  21.345   3.462 -0.0752 -0.1834  0.0734
24759W        W25623   2.064   5.912   2.818  0.0471 -0.0554 -0.2055
24760W        W25624  17.461  22.497   0.064 -0.1291 -0.0037  0.2027
24761W        W25625   0.863   1.365  26.091  0.1538 -0.1732  0.2924
24762W        W25626   0.793  18.073  28.941 -0.4398  0.0531 -0.0795
24763W        W25627  23.019  25.275  26.516  0.0902 -0.0388  0.1640
24764W        W25628  10.899   6.776  21.976 -0.0244 -0.1544  0.1073
24765W        W25629   7.653  22.276  22.007  0.1972  0.0183 -0.0945
24766W        W25630   3.388   2.521  25.909  0.0661 -0.2610  0.0438
24767W        W25631  12.071   0.351  22.424  0.1622  0.0981  0.1177
24768W        W25632   3.864  18.525  19.237 -0.2299  0.1302  0.1070
24769W        W25633  16.162   4.183   5.408 -0.0221  0.0381  0.0171
24770W        W25634  26.862  23.501  11.485 -0.2822 -0.0363  0.2214
24771W        W25635  22.922   5.035  12.994  0.2411 -0.0155 -0.3016
24772W        W25636  13.563  20.379   0.556  0.0716  0.0330  0.0727
24773W        W25637   0.227  23.369  27.487 -0.0761 -0.0943 -0.2616
24774W        W25638  10.930  23.101  12.830  0.0929 -0.4191 -0.0490
24775W        W25639  18.229  26.495  23.070  0.0248  0.3024 -0.0989
24776W        W25640  24.085   8.039  24.422  0.4813  0.0609  0.2216
24777W        W25641   4.880  15.767  15.621  0.0871 -0.0917  0.2295
24778W        W25642  19.028  15.920  15.648  0.4135 -0.3925 -0.2508
24779W        W25643  23.443  10.310   1.725  0.5161 -0.0163  0.3579
24780W        W25644  19.732  24.259  27.559 -0.0028  0.2514 -0.1400
24781W        W25645  25.885  20.129  15.445  0.2630 -0.0962  0.0695
24782W        W25646  18.557  24.031  20.186 -0.1791 -0.1749 -0.0036
24783W        W25647   1.798   9.102  13.454 -0.0483 -0.1313  0.2408
24784W        W25648   2.666   7.592  20.884  0.1656 -0.1799 -0.1333
24785W        W25649  15.865   3.797  24.147  0.0451  0.1791  0.2889
24786W        W25650  11.876   5.811  13.875  0.0257  0.1619 -0.3863
24787W        W25651  15.058  24.526  25.649  0.1282 -0.1191 -0.0947
24788W        W25652  10.119  25.837  12.131 -0.3373  0.1835 -0.1565
24789W        W25653  24.195  23.636  14.994 -0.3069  0.1725 -0.3597
24790W        W25654   5.434  18.144  17.771  0.3063 -0.0093 -0.4223
24791W        W25655  10.030   6.472   2.282  0.4222  0.0857 -0.0644
24792W        W25656  25.117   1.606  21.889 -0.1589  0.0161  0.1134
24793W        W25657   3.330  15.990   8.421  0.0483 -0.1864  0.0065
24794W        W25658  13.973   4.212   4.953  0.0447  0.1150 -0.1576
24795W        W25659   6.359  25.738  14.024  0.6833  0.1812  0.1890
24796W        W25660   5.545  25.969   1.474  0.0449 -0.0666  0.1612
24797W        W25661   2.133  14.640  20.218 -0.0321  0.0450  0.2631
24798W        W25662  17.186  20.016  13.678  0.1854  0.1574  0.2428
24799W        W25663   6.967   3.315  13.584  0.0702  0.1617 -0.0317
24800W        W25664  20.048  19.167  14.070 -0.3174 -0.3406 -0.0448
24801W        W25665   2.450  20.721  22.691 -0.1625 -0.1599 -0.2418
24802W        W25666  22.256  10.719   4.158 -0.1627 -0.0898 -0.1899
24803W        W25667  13.926  14.027  16.547  0.4282 -0.1569 -0.1731
24804W        W25668   9.660  13.441  13.627  0.0703  0.2184  0.0976
24805W        W25669  26.181  24.352  26.673 -0.2283  0.3024  0.1215
24806W        W25670   1.243   7.271  28.314  0.2386  0.1358 -0.0175
24807W        W25671  28.477  19.682  28.379  0.1113 -0.0763 -0.1725
24808W        W25672  20.976   3.145  18.576 -0.0243 -0.1392  0.0020
24809W        W25673  22.651  27.536   6.784  0.1490 -0.2655 -0.1307
24810W        W25674  28.381  22.124  26.480  0.1079  0.0142 -0.1954
24811W        W25675   2.674  13.475  14.487  0.0747 -0.2710  0.0275
24812W        W25676  22.191   0.517  23.840  0.2703  0.0632  0.1322
24813W        W25677  16.360   8.106  17.786 -0.0167 -0.4365  0.1817
24814W        W25678  18.729   8.329   5.868  0.1484  0.1119  0.1234
24815W        W25679   1.735  12.445  11.269 -0.1789 -0.0329 -0.1446
24816W        W25680   2.637   7.800  12.274  0.1033  0.0018  0.0068
24817W        W25681   2.100  14.501   1.458  0.0347  0.0529  0.1743
24818W        W25682  25.218  12.875  12.028  0.0851 -0.2067 -0.2554
24819W        W25683   7.960   2.520  14.325  0.2177  0.3895 -0.1257
24820W        W25684   0.967   8.437  28.212 -0.1908  0.2531  0.1442
24821W        W25685   0.205  18.281  27.751 -0.1624 -0.1857 -0.1577
24822W        W25686  19.906   1.979  12.837 -0.5598 -0.2882 -0.0526
24823W        W25687  27.719   4.593  11.536 -0.0192  0.2336  0.1342
24824W        W25688  21.258  18.768  17.173 -0.2538  0.1061  0.0495
24825W        W25689   7.275  25.889  25.856 -0.2460 -0.0382  0.2614
24826W        W25690   8.425   2.988   2.175 -0.3614 -0.0276 -0.1285
24827W        W25691   3.878  22.506   8.430  0.2171 -0.0023 -0.1715
24828W        W25692  10.080  23.510   3.010 -0.1915  0.2507 -0.2862
24829W        W25693   1.686  14.986  26.223  0.0216 -0.0990 -0.2198
24830W        W25694   6.030  23.210  20.064  0.0205  0.3626  0.0347
24831W        W25695   1.382  11.060  21.338 -0.0155  0.1668  0.1252
24832W        W25696  20.089  29.134  21.051 -0.0669  0.2280  0.2467
24833W        W25697   3.299   0.257  21.545  0.1379  0.2683  0.5599
24834W        W25698  19.633  10.864  20.439  0.0112 -0.1156  0.0786
24835W        W25699  15.552  15.701  23.522 -0.0359 -0.0353  0.0418
24836W        W25700  28.176  19.160   1.077  0.0777  0.1958  0.1801
24837W        W25701  22.163  21.066  11.891 -0.1423 -0.0171 -0.3024
24838W        W25702   2.437  26.164   0.221  0.1443  0.0316  0.0968
24839W        W25703  18.304  18.109  19.887  0.0742 -0.3140  0.0026
24840W        W25704  15.871  23.582   2.996 -0.1706  0.2437  0.0464
24841W        W25705  10.876  20.944  17.898  0.1459 -0.2721 -0.0799
24842W        W25706   1.335   3.550  17.711  0.2871 -0.0976 -0.0021
24843W        W25707  25.816   1.360  25.001 -0.1788 -0.0538  0.1335
24844W        W25708  20.159  10.960  17.593 -0.1844  0.0802  0.2460
24845W        W25709  28.817  12.314  23.166 -0.2091  0.1024  0.1633
24846W        W25710   1.055  20.795  13.983 -0.0750  0.1890  0.0817
24847W        W25711  18.466  28.855   9.346 -0.0576 -0.1746 -0.0443
24848W        W25712  20.471   5.867  18.719 -0.1666 -0.0026 -0.0457
24849W        W25713   0.327  11.671  23.542  0.0793  0.1238 -0.1159
24850W        W25714  22.566  12.119  11.252  0.1578 -0.3170  0.0152
24851W        W25715   7.574  18.955   3.505  0.1094  0.0607 -0.6555
24852W        W25716  23.777   2.330   2.670 -0.1080 -0.0261  0.0287
24853W        W25717   8.338   8.878  23.139 -0.0203  0.2730 -0.0312
24854W        W25718  18.451  25.294   8.124 -0.0872 -0.2065 -0.2214
24855W        W25719  26.193   2.550  22.794 -0.0233 -0.0070  0.0323
24856W        W25720  19.139  29.102  14.697  0.1317  0.1641  0.0438
24857W        W25721  24.667  28.713  14.315  0.2410 -0.1238 -0.0184
24858W        W25722   2.135  16.931  16.145  0.3266  0.0984  0.1971
24859W        W25723  27.517   4.215   5.180 -0.0738 -0.0509  0.1220
24860W        W25724  19.864   7.215   5.418  0.2971  0.2224  0.1645
24861W        W25725  10.687  18.546  21.627  0.0036 -0.0424  0.1235
24862W        W25726   6.578   1.507   2.192  0.1868 -0.3416 -0.0444
24863W        W25727   5.398   3.453  27.776  0.1170  0.2107  0.1564
24864W        W25728  20.293  18.533  22.267 -0.0415  0.2552  0.1739
24865W        W25729  12.368  20.557  28.939 -0.2481  0.0604  0.0187
24866W        W25730  24.306  20.218  15.427 -0.0041  0.3669  0.2122
24867W        W25731  17.709   1.349  20.813  0.3251  0.1256 -0.0993
24868W        W25732   3.662  27.445  22.278 -0.1082 -0.2017  0.1305
24869W        W25733   0.699  27.199  23.688  0.3104  0.1744  0.3048
24870W        W25734  12.815  22.488  16.370  0.1219  0.0479  0.1522
24871W        W25735  23.637  27.357  28.680 -0.3274 -0.1672  0.1645
24872W        W25736  12.428  28.367  10.143  0.4400  0.0878 -0.2354
24873W        W25737   4.215  23.413  12.014 -0.1567 -0.2122 -0.1256
24874W        W25738  12.782   6.567  20.124 -0.0413 -0.2157 -0.1922
24875W        W25739   3.522   1.973  14.375 -0.1363  0.0806  0.0951
24876W        W25740  22.285  10.440  13.907 -0.1964 -0.1648  0.0334
24877W        W25741  26.795  27.300  10.036  0.0642  0.1827  0.1465
24878W        W25742  27.250  23.632  23.472  0.1439  0.0473 -0.0504
24879W        W25743   8.495  28.870  28.672 -0.2432 -0.1958 -0.0828
24880W        W25744   0.012  12.159   2.044 -0.1792 -0.2348  0.0660
24881W        W25745  24.580  10.499  11.557  0.0017 -0.0738 -0.0850
24882W        W25746  21.698  19.252  26.249  0.0957 -0.0873 -0.3044
24883W        W25747  12.384  15.232  16.877 -0.0263 -0.0403  0.3032
24884W        W25748   0.948  22.264  11.016 -0.1105  0.1496 -0.1139
24885W        W25749  23.287   9.069  28.906 -0.3763  0.2980  0.0372
24886W        W25750  26.241   0.269   7.963  0.0245  0.0309  0.2554
24887W        W25751  17.616  24.808  21.865 -0.0006 -0.4262 -0.0840
24888W        W25752  24.914   1.301  11.208 -0.1295 -0.0365 -0.0114
24889W        W25753  23.767  27.065  27.238  0.1040 -0.0714  0.0424
24890W        W25754  17.936  22.578  28.466 -0.0722  0.1346 -0.1099
24891W        W25755  19.701  13.163   1.524  0.1088 -0.1103  0.0998
24892W        W25756  28.013   7.597  25.550 -0.5482  0.1737 -0.2156
24893W        W25757  12.242  23.287  12.381 -0.5211  0.1668 -0.0094
24894W        W25758  27.923   3.904  24.794  0.3347  0.0352 -0.0292
24895W        W25759   3.007  21.732  18.116 -0.0317 -0.0358 -0.1876
24896W        W25760  17.779  14.614  10.586  0.1127 -0.1270  0.0780
24897W        W25761  20.194   4.120  25.922 -0.2139  0.3387 -0.4179
24898W        W25762  26.282  24.368  14.872  0.1060  0.0968 -0.0184
24899W        W25763   5.048   3.550  22.917  0.0657  0.1455  0.0890
24900W        W25764  12.106  17.518  28.243  0.0484  0.2763  0.1083
24901W        W25765  16.309   4.126  25.304  0.2125 -0.0748 -0.3941
24902W        W25766   2.059  24.167  16.592 -0.1979  0.0069  0.2859
24903W        W25767   3.363   8.251  29.049 -0.2810 -0.0718 -0.0378
24904W        W25768  10.087  24.545  19.135 -0.0486 -0.2775 -0.0565
24905W        W25769  12.058  23.106  14.073  0.1317  0.1876  0.2213
24906W        W25770   6.414  20.546   5.100  0.2127  0.1139 -0.2864
24907W        W25771   3.180  10.907  26.171  0.1828 -0.1234  0.0725
24908W        W25772   4.810   8.566   2.623  0.0597  0.1262  0.0085
24909W        W25773   7.541  14.981  23.194 -0.1042  0.0715 -0.0119
24910W        W25774  25.322   5.228  21.426 -0.1741  0.1761  0.3652
24911W        W25775   1.966  20.874  25.101 -0.2340 -0.2277 -0.2113
24912W        W25776  10.433   8.793   6.574  0.0535 -0.1701 -0.2285
24913W        W25777   6.463   1.424  21.910 -0.1462  0.6612  0.1095
24914W        W25778  22.860  24.593  18.782  0.1396  0.2373  0.1021
24915W        W25779  27.699   8.298  19.663  0.1662  0.0389 -0.1526
24916W        W25780  17.512  21.042   3.167  0.0394  0.4100 -0.0228
24917W        W25781  12.667   2.732   0.159 -0.0611  0.0020 -0.1300
24918W        W25782  27.334  19.159  20.264 -0.1928  0.2534  0.0527
24919W        W25783  19.887  17.654  22.682  0.0099  0.0186 -0.0169
24920W        W25784  22.030  10.255   6.993 -0.0217  0.3634  0.1716
24921W        W25785   2.241  27.525  19.772 -0.1545 -0.1697 -0.3351
24922W        W25786   7.445  26.866  16.313 -0.1084  0.0893  0.2286
24923W        W25787  27.080   3.422  16.277  0.0462  0.0493  0.3410
24924W        W25788   9.873   4.128  27.815  0.1705  0.1790  0.0322
24925W        W25789  25.220  17.399  18.002 -0.1564  0.1049  0.0252
24926W        W25790  23.916  16.993  24.668  0.1903 -0.1487 -0.2844
24927W        W25791  15.849   9.599  16.843  0.2030  0.0479 -0.0866
24928W        W25792   8.742   8.060   9.280 -0.1895  0.0846 -0.1287
24929W        W25793  17.112  27.393  22.435  0.1400 -0.3194 -0.1004
24930W        W25794   9.524   1.425  18.308 -0.1182 -0.3536  0.0843
24931W        W25795  10.755  28.021   8.594  0.1399  0.1224 -0.2726
24932W        W25796  16.176  25.004  19.679  0.2843  0.5558 -0.0403
24933W        W25797   6.408  24.476   8.263 -0.0107  0.1024  0.0950
24934W        W25798  12.480  28.653  18.535 -0.1822 -0.0202 -0.1046
24935W        W25799   2.775   3.446  17.263  0.2112  0.0349 -0.0685
24936W        W25800  10.928  26.309  14.758  0.1019 -0.0633  0.0840
24937W        W25801  23.492  22.083  17.201 -0.0119 -0.3012  0.3388
24938W        W25802   2.001  14.254  17.974  0.2083 -0.0452 -0.1513
24939W        W25803  17.064   6.090  22.263  0.0935  0.1580 -0.1164
24940W        W25804   2.942  23.348  22.083 -0.0004 -0.1956 -0.0568
24941W        W25805  25.762   8.038   5.338  0.1573 -0.0856 -0.0374
24942W        W25806  21.747  19.373   1.800  0.1114  0.3509 -0.4761
24943W        W25807  16.376  12.169  22.189  0.2516 -0.0766  0.1239
24944W        W25808  19.269  25.663  15.796 -0.0041 -0.0698 -0.4187
24945W        W25809   6.573   0.916   5.120 -0.1883 -0.4534 -0.0257
24946W        W25810  17.184  22.493  21.123  0.1268 -0.0624 -0.1268
24947W        W25811  26.736  11.013  23.662  0.4140  0.0225  0.0971
24948W        W25812  27.732   2.046  24.624  0.1032 -0.0106  0.1941
24949W        W25813   8.938   7.279  19.207  0.0890 -0.2450 -0.2845
24950W        W25814   7.145  28.228   0.921  0.1747  0.1444  0.1629
24951W        W25815   7.695   5.008   4.231  0.1476 -0.2268  0.1659
24952W        W25816  28.868  25.221  24.890  0.2654 -0.0019  0.1222
24953W        W25817  13.316  27.832   4.715  0.2635  0.0830 -0.1069
24954W        W25818  22.605  12.138   0.797 -0.1121 -0.0255  0.1623
24955W        W25819   5.270   4.400   9.514  0.0579  0.1961 -0.2173
24956W        W25820  19.456  25.224  25.185  0.1151  0.1408 -0.2937
24957W        W25821   1.324  19.819  16.209 -0.1200  0.0393 -0.0735
24958W        W25822  21.053  22.578  16.673 -0.1338  0.0506 -0.1174
24959W        W25823  12.117   3.043  10.915  0.0500 -0.0550 -0.0094
24960W        W25824  27.002  26.125  28.102 -0.1416 -0.1821  0.2113
24961W        W25825  10.166   8.308  21.905 -0.3530 -0.2844  0.0131
24962W        W25826   0.328  11.106   2.722  0.1006  0.2831  0.4957
24963W        W25827  21.800   3.833  23.845  0.1164  0.1330 -0.0900
24964W        W25828  24.670  18.665  17.972 -0.0316 -0.2588 -0.0664
24965W        W25829  28.989  25.181  13.796 -0.0951  0.1126  0.3182
24966W        W25830  27.705  15.423   7.863 -0.0231  0.1772 -0.4376
24967W        W25831  14.386   0.751  27.380 -0.3022 -0.1041 -0.1576
24968W        W25832   2.138  17.830  28.004 -0.2109 -0.1624 -0.1618
24969W        W25833  13.990  17.932  11.111 -0.0207 -0.2820 -0.3873
24970W        W25834   4.018  26.855   7.937 -0.0892 -0.0371  0.3716
24971W        W25835  24.068  19.065   7.069  0.4595  0.1978 -0.1044
24972W        W25836   6.081  23.102  10.927 -0.4617  0.0861 -0.0671
24973W        W25837  22.150  15.424  20.738  0.0613  0.0883 -0.0989
24974W        W25838  28.540   8.747  23.259  0.2180  0.2634  0.3253
24975W        W25839   3.804  11.840   9.691 -0.3696  0.0285  0.1050
24976W        W25840   6.505  22.425   8.795 -0.1169  0.0732 -0.4179
24977W        W25841   8.975  12.443  16.139 -0.3162 -0.1765 -0.1341
24978W        W25842   9.205  23.113  17.551  0.0540  0.0966 -0.1996
24979W        W25843   2.052  24.568  10.527 -0.3036  0.1166 -0.1189
24980W        W25844  27.536  19.627   5.327 -0.1388  0.1091  0.2223
24981W        W25845   8.679  21.096  16.660 -0.1768 -0.0480  0.1094
24982W        W25846  18.880   4.134   0.489  0.0208 -0.1343  0.1475
24983W        W25847  25.348  18.258  25.601  0.0565 -0.3268 -0.1518
24984W        W25848  14.726   3.270  29.100  0.0478  0.0881 -0.3411
24985W        W25849  23.933  10.725  10.632  0.6591 -0.2863  0.0162
24986W        W25850  26.561   2.352   9.008  0.1631  0.0332 -0.2751
24987W        W25851  13.081  18.734  28.859  0.1206 -0.3538  0.0856
24988W        W25852  25.574  21.831  11.180  0.0888 -0.0026 -0.0195
24989W        W25853   5.733  19.897  11.779  0.1864 -0.0392  0.1234
24990W        W25854   7.908  21.502  16.899  0.0071  0.2173 -0.0993
24991W        W25855  25.129  21.058  23.320 -0.3126  0.3224 -0.2370
24992W        W25856  24.047  20.349   7.689 -0.2154  0.0160 -0.0889
24993W        W25857   8.668  12.470  11.643 -0.0158 -0.0226  0.0293
24994W        W25858  28.763   0.235  13.389 -0.0390  0.1334 -0.0453
24995W        W25859   0.200  16.206   6.061 -0.0950  0.1129 -0.1387
24996W        W25860   5.737  19.819  15.260  0.2294  0.1601 -0.0496
24997W        W25861   4.190  17.638  21.493  0.1178  0.1954  0.0535
24998W        W25862  11.942  13.481  22.676 -0.1696  0.0347 -0.4009
24999W        W25863  22.976  22.684  19.558 -0.3980  0.2290 -0.3514
25000W        W25864  10.181   5.502  13.664 -0.2186 -0.1116 -0.1504
25001W        W25865  19.958  20.086  29.055 -0.1513  0.2392  0.2122
25002W        W25866  19.902  11.106  18.963 -0.0667 -0.1033  0.4444
25003W        W25867   7.951   1.988  12.293  0.1408  0.2114 -0.1601
25004W        W25868   9.518  27.467  26.078  0.2023 -0.1759  0.0461
25005W        W25869   7.741   5.835  27.087  0.1279  0.1680 -0.1352
25006W        W25870  21.723   4.017  28.551 -0.0975  0.1785 -0.2842
25007W        W25871  17.724  17.450  27.273 -0.1263 -0.0216 -0.1365
25008W        W25872  12.900  18.278  25.566  0.0023 -0.0987 -0.0646
25009W        W25873   3.073  17.687   1.674 -0.1390  0.1371 -0.2398
25010W        W25874   3.781   1.457  18.804 -0.2483  0.0119  0.0873
25011W        W25875  17.448  26.498  18.691  0.0713 -0.2399  0.1304
25012W        W25876   2.422  28.191  27.360  0.1537  0.1402  0.0800
25013W        W25877  25.027  19.204  20.020 -0.0210 -0.1182  0.0123
25014W        W25878   1.170   7.517  23.861  0.1716 -0.3647 -0.0212
25015W        W25879   4.471  18.774  19.233  0.0094 -0.1644  0.4122
25016W        W25880  20.287   5.202  14.924  0.2520  0.2149  0.0680
25017W        W25881  27.865  20.666   7.445  0.2556 -0.1732 -0.1155
25018W        W25882  13.433  10.047  12.531 -0.0391  0.1667  0.2184
25019W        W25883  24.560   0.749   9.016  0.0693 -0.0103 -0.0124
25020W        W25884   0.938  27.915  14.384  0.0866  0.0847 -0.1803
25021W        W25885  14.181  19.961   7.155  0.1787  0.0490 -0.0014
25022W        W25886  16.180  28.126   5.708  0.2129  0.0718 -0.0311
25023W        W25887  11.169  23.120  23.128 -0.0597  0.4366 -0.2907
25024W        W25888  22.707  23.865  27.135 -0.2758 -0.4021  0.0001
25025W        W25889   6.038  15.996  15.497  0.1252  0.1543 -0.0830
25026W        W25890  27.546  25.857  26.824  0.2120  0.0246 -0.0177
25027W        W25891   5.926  11.646   6.190  0.3379 -0.2364  0.2191
25028W        W25892   6.351  25.495   0.208  0.2382 -0.0347  0.5106
25029W        W25893   8.599   6.406   6.981 -0.0288  0.3162  0.0800
25030W        W25894  10.568  24.032  11.209  0.0792 -0.0387  0.0019
25031W        W25895  10.581  23.420  17.256  0.3749 -0.0496 -0.1160
25032W        W25896   5.088  26.371  12.961 -0.1229 -0.0826 -0.0741
25033W        W25897  23.692  14.718  26.528  0.1461 -0.0302  0.1848
25034W        W25898   6.123   6.999   8.254 -0.0699 -0.1188  0.0028
25035W        W25899  18.417  25.444  22.636  0.0550  0.2351  0.3305
25036W        W25900  26.475  19.901   8.071 -0.2369  0.0259 -0.0908
25037W        W25901   5.105   9.732  27.742 -0.1427  0.1852  0.1748
25038W        W25902  19.063  26.501  23.529  0.2232 -0.1277  0.1663
25039W        W25903  16.197   0.797  21.329 -0.2403 -0.1514  0.1304
25040W        W25904   2.847  23.236  24.454  0.0214  0.2383  0.0500
25041W        W25905  15.947  22.680   1.856  0.0799  0.3985 -0.0333
25042W        W25906   7.848  21.926   0.181  0.1378  0.2942 -0.2333
25043W        W25907   2.582  21.990  23.363 -0.5202 -0.2946  0.1337
25044W        W25908  17.719   2.182  21.128  0.1374 -0.1239 -0.1914
25045W        W25909  15.348   1.879  15.926  0.1146 -0.1823  0.3409
25046W        W25910  13.537   4.220  24.313  0.1744  0.1353  0.0428
25047W        W25911  15.284  28.377  27.915 -0.1336 -0.0948 -0.0675
25048W        W25912  25.343  20.331  13.620  0.2126 -0.3062 -0.0533
25049W        W25913   5.670  22.570   3.829  0.3310 -0.0187 -0.0225
25050W        W25914  17.000  26.648  17.267 -0.2071  0.1755 -0.1879
25051W        W25915  22.128   8.331  26.181 -0.1337 -0.1285  0.1778
25052W        W25916  10.489  11.267   8.935 -0.0572 -0.3669  0.3883
25053W        W25917  22.458  24.069  10.966  0.3157  0.1250 -0.2393
25054W        W25918  27.404   0.194  23.642  0.0371  0.1526  0.1601
25055W        W25919   2.745  25.716  27.704  0.3862 -0.0956  0.0989
25056W        W25920  22.350  16.350  26.608  0.2264 -0.0714 -0.0738
25057W        W25921   4.021  22.649  12.891  0.0273  0.2831  0.1201
25058W        W25922  14.992   2.839  26.630  0.1785 -0.1451  0.1171
25059W        W25923   3.970  27.804  14.026  0.1027 -0.0338  0.0618
25060W        W25924  25.021   6.945  27.252 -0.1145  0.2736 -0.0228
25061W        W25925  27.631  29.027  19.238  0.2556  0.0102  0.0996
25062W        W25926  16.980  14.676  24.278  0.2316 -0.1388  0.0493
25063W        W25927  16.353   0.517  14.851  0.0211 -0.2673  0.0388
25064W        W25928  29.105  10.613  27.898 -0.0452 -0.0744  0.1319
25065W        W25929  18.759   1.722  23.036 -0.1497 -0.2158  0.1400
25066W        W25930  13.732   4.289  18.967 -0.2208 -0.3029  0.0360
25067W        W25931   3.350  18.259   0.686  0.2368 -0.0105  0.0854
25068W        W25932  23.707  28.248  18.809 -0.0362  0.1656  0.0112
25069W        W25933   6.108  18.646  20.689 -0.1348  0.1154  0.1779
25070W        W25934  17.463  17.724   0.426  0.0980 -0.3129 -0.0862
25071W        W25935  27.089  20.825   4.915  0.1348 -0.2652 -0.2752
25072W        W25936  14.166  20.090  25.256  0.1786 -0.1731 -0.1251
25073W        W25937  25.169   9.094   1.917  0.2309  0.0099  0.0850
25074W        W25938   7.087  20.619  22.558  0.0709 -0.0429 -0.1263
25075W        W25939   7.938  15.209  24.671 -0.0047  0.1736 -0.1577
25076W        W25940  10.927  26.481  27.097  0.0880 -0.1082  0.0380
25077W        W25941  23.304   6.239  27.779  0.0923 -0.1975  0.4116
25078W        W25942   6.922   0.061  14.569  0.1787  0.2346  0.0417
25079W        W25943  28.832  18.578   7.733  0.5331  0.2331  0.0197
25080W        W25944  24.898  25.452  24.509  0.2307  0.0349  0.0393
25081W        W25945   8.507   1.375  14.123  0.4004 -0.3018 -0.2642
25082W        W25946  21.873  17.268  25.772 -0.0604  0.1562 -0.1564
25083W        W25947  25.053  24.554  24.881 -0.0264 -0.0610 -0.0546
25084W        W25948  10.681   5.532  20.512 -0.2389  0.0477 -0.0246
25085W        W25949  16.675  25.003   2.592  0.0023  0.1554  0.0633
25086W        W25950  12.621  26.874  18.831 -0.2312  0.4259  0.0102
25087W        W25951  13.282  26.662  28.612 -0.2993 -0.2658  0.0763
25088W        W25952   3.179   2.062  15.785  0.1226 -0.0834 -0.0142
25089W        W25953   2.456  27.255  15.959 -0.1932  0.0010  0.2429
25090W        W25954  23.231  23.480  27.945  0.1133  0.0787 -0.0867
25091W        W25955  28.184  21.570   8.949  0.3502 -0.3456  0.1014
25092W        W25956   2.190  27.187   4.436  0.0340  0.3249  0.3609
25093W        W25957  16.708  28.288   2.777 -0.1322  0.0828  0.0926
25094W        W25958   0.130   1.908   6.382 -0.0151 -0.2645  0.1652
25095W        W25959  14.325   3.558  21.575 -0.1641 -0.0290 -0.2508
25096W        W25960   4.640  26.214  11.141  0.1277 -0.3086 -0.4353
25097W        W25961  23.785  26.469  28.830  0.0749 -0.2358 -0.1198
25098W        W25962  13.571  18.929  12.607 -0.0922 -0.0092  0.0374
25099W        W25963  15.898  24.254  29.100  0.1983 -0.0789  0.0955
25100W        W25964   1.099  25.093  15.084  0.1173  0.1697  0.1131
25101W        W25965  16.199  20.090  21.106 -0.2521  0.0048 -0.0023
25102W        W25966  26.615  20.248  13.464  0.1143 -0.1222  0.3746
25103W        W25967  11.264  13.161   4.913 -0.0507 -0.0415 -0.2077
25104W        W25968  23.786  13.142   4.244 -0.0480 -0.0552  0.1699
25105W        W25969  17.844  21.123  16.713  0.1072  0.0049  0.2195
25106W        W25970   7.212  21.094  20.102  0.2219 -0.2307  0.3038
25107W        W25971  17.684  10.382   6.679  0.1192  0.4336 -0.1092
25108W        W25972   0.807   6.145  10.539  0.1438 -0.0658 -0.0245
25109W        W25973   5.047  26.129   3.445  0.2146  0.1061 -0.0194
25110W        W25974  28.104   1.658  17.447 -0.2765  0.0613  0.0010
25111W        W25975  25.634  26.801   0.031  0.0087  0.0423  0.2721
25112W        W25976  27.825  21.411  17.450 -0.0429  0.0648  0.1390
25113W        W25977  23.722  23.289   8.346  0.1978 -0.0587 -0.0580
25114W        W25978  14.566  23.062  24.134 -0.0387  0.3340 -0.0334
25115W        W25979  26.650  11.019  25.283  0.1673 -0.0454 -0.1450
25116W        W25980   4.778  22.921  20.369 -0.0067  0.0154 -0.0446
25117W        W25981   1.318   3.992  26.486 -0.2624  0.0948 -0.0741
25118W        W25982  18.969  24.843  15.656  0.1103  0.0222  0.0192
25119W        W25983   8.972  18.781   3.719  0.1711 -0.3850 -0.1610
25120W        W25984   5.647  21.675  16.548  0.1892 -0.1403 -0.1520
25121W        W25985   5.921   0.169  24.675 -0.1674 -0.0281  0.0432
25122W        W25986   9.749  22.705  16.543  0.0302  0.0793 -0.1808
25123W        W25987  27.126   4.787  10.061  0.4363 -0.1155 -0.3320
25124W        W25988  27.588  11.396  13.957 -0.0546  0.0865 -0.2780
25125W        W25989  24.157  23.686  20.507 -0.1858 -0.0630 -0.1037
25126W        W25990  15.159  27.167  15.324  0.2293 -0.1154 -0.1357
25127W        W25991  23.553   3.205  22.650 -0.1559  0.0068  0.4156
25128W        W25992   7.291  20.802  16.823  0.1845 -0.1603 -0.0632
25129W        W25993  28.810   8.404   1.112 -0.0975 -0.1475  0.0166
25130W        W25994   4.374  13.145   6.592 -0.0163 -0.0082  0.1754
25131W        W25995  18.502  29.144   3.562  0.0355 -0.1069 -0.0298
25132W        W25996  27.798   0.338   0.270  0.1037 -0.0050  0.0487
25133W        W25997  21.225  21.941  17.669 -0.0909  0.2150  0.2339
25134W        W25998   4.570   3.147  27.276 -0.1779  0.1016 -0.3364
25135W        W25999  26.887   8.273  16.745 -0.0030 -0.1119 -0.1503
25136W        W26000   8.356  21.212   1.064  0.2134 -0.0782 -0.1711
25137W        W26001  28.241   2.184   1.628 -0.0502  0.0525  0.1874
25138W        W26002  18.212   3.859  14.523 -0.0615  0.1426  0.1769
25139W        W26003  21.147  25.780   1.917 -0.2659 -0.0286  0.0122
25140W        W26004  26.668   6.040   0.868  0.1281  0.3262 -0.2392
25141W        W26005  25.432   0.939  23.798  0.2478  0.2718 -0.4686
25142W        W26006   1.905  13.969  22.945 -0.3883  0.1942  0.2239
25143W        W26007  26.077   7.761  21.602 -0.2877  0.0553  0.0038
25144W        W26008   1.105   4.007  18.439  0.0372  0.1585  0.1016
25145W        W26009   1.903  14.767  20.824 -0.1988  0.0094  0.1863
25146W        W26010   4.981  24.478  27.587  0.3304  0.1350 -0.0490
25147W        W26011  17.561  21.324  23.335 -0.0733 -0.0727 -0.2892
25148W        W26012  23.184  26.405  10.482  0.1249  0.0608 -0.0732
25149W        W26013  13.153   7.161  22.009 -0.0338 -0.1891 -0.5436
25150W        W26014  20.517   6.039  14.680 -0.1979  0.2251 -0.2563
25151W        W26015  28.546  25.454  12.912  0.3000  0.1387  0.0210
25152W        W26016  17.865  19.088  15.931  0.3273  0.0814  0.0173
25153W        W26017   1.582  14.429  15.837  0.0180 -0.1918 -0.1966
25154W        W26018  21.953  22.799  25.385 -0.2167  0.0309 -0.0922
25155W        W26019  10.517   6.983   3.961  0.2144  0.1135  0.1380
25156W        W26020  22.140   8.935   5.749  0.2600 -0.0435  0.0981
25157W        W26021   8.895   1.869   1.078 -0.0890  0.0501 -0.2440
25158W        W26022   3.576   8.565   9.742 -0.0129 -0.2531 -0.1067
25159W        W26023  24.299   2.678  24.528  0.1529  0.0911 -0.1058
25160W        W26024  14.093   7.582   7.674  0.1323  0.0933  0.0132
25161W        W26025  10.191   4.190   7.201 -0.0062  0.4847 -0.0445
25162W        W26026  26.239  25.896  10.119  0.2342  0.0860 -0.1611
25163W        W26027  20.619  12.683   7.759 -0.0863  0.0963 -0.0262
25164W        W26028   4.457  27.724  18.473 -0.0454 -0.1467  0.2317
25165W        W26029  24.173  26.484  18.710  0.5557 -0.0554 -0.2130
25166W        W26030  25.364   1.865  25.162  0.1346  0.1081 -0.2489
25167W        W26031  28.109   8.392  14.147  0.0879  0.0845  0.1054
25168W        W26032   0.324  23.285  12.848  0.3586  0.2507 -0.1601
25169W        W26033   0.497   1.691   1.479 -0.0552  0.0946 -0.0833
25170W        W26034  26.013  16.925  19.906 -0.1702  0.0455 -0.2184
25171W        W26035   1.037  18.972  19.646  0.1434 -0.2109 -0.1333
25172W        W26036   2.465  20.262   1.908  0.0366 -0.2594  0.0505
25173W        W26037   5.190   2.920  21.644  0.1435 -0.2365 -0.1255
25174W        W26038   7.394  18.161   3.443 -0.0351 -0.0882 -0.0924
25175W        W26039   9.712  23.625   2.236 -0.0093 -0.0337  0.0076
25176W        W26040  13.766  19.432   3.530  0.1329  0.0777  0.0977
25177W        W26041  15.780  21.593  24.251 -0.0405  0.0610  0.0607
25178W        W26042   0.654   5.302  20.558  0.1818 -0.0524 -0.0299
25179W        W26043   9.682   7.672  26.381 -0.1509 -0.0920  0.0365
25180W        W26044  24.691  25.776  25.477  0.1846  0.0065 -0.2533
25181W        W26045  21.041   1.445  25.597  0.0329  0.1376 -0.0570
25182W        W26046  11.830  24.148   1.885 -0.0063 -0.1128  0.2306
25183W        W26047  21.673   1.455  16.571 -0.1984  0.1831  0.0588
25184W        W26048   4.369  21.486  26.290 -0.1398 -0.1478 -0.0523
25185W        W26049   9.156  16.737  15.646 -0.1320  0.0224  0.0607
25186W        W26050   3.119  13.742  19.032 -0.1112 -0.0035  0.2789
25187W        W26051  23.986  26.052  24.307 -0.1022 -0.0794  0.0208
25188W        W26052  10.351  26.153  10.370  0.1329  0.0489 -0.1511
25189W        W26053   2.645   7.049   6.982 -0.1150 -0.2240 -0.0445
25190W        W26054  27.635   2.616  28.595 -0.0198 -0.2319 -0.3216
25191W        W26055  26.482   5.131  15.569  0.0455  0.0735  0.0208
25192W        W26056  27.503   6.755   1.822 -0.3800  0.0790  0.0036
25193W        W26057  21.810  13.819  12.645 -0.0760  0.1450  0.0014
25194W        W26058  26.942  12.204  13.114 -0.3469  0.0201 -0.1998
25195W        W26059  28.061  18.632  22.208 -0.2427 -0.1901  0.0634
25196W        W26060   2.286  22.921  17.241 -0.0391 -0.0267  0.0884
25197W        W26061  10.969  20.711  15.947 -0.0631  0.1968 -0.6897
25198W        W26062  23.158   7.159  11.713  0.0075  0.0418 -0.1642
25199W        W26063  25.435  24.373  18.571  0.0043  0.2654 -0.0990
25200W        W26064   2.294   1.658  13.817 -0.1659  0.3354 -0.0759
25201W        W26065  23.183  21.448  19.163  0.0236 -0.1097 -0.0197
25202W        W26066   3.059  24.072  11.269 -0.1487 -0.0884 -0.1187
25203W        W26067   0.478  26.398  22.567  0.4366  0.2958 -0.2662
25204W        W26068  14.146   8.773   5.385 -0.0721  0.1279  0.2066
25205W        W26069  19.128  27.724  11.263  0.0232  0.1932  0.1238
25206W        W26070   3.137   6.779   4.563  0.1818 -0.1873  0.1228
25207W        W26071   2.553  26.089   7.830  0.1163  0.0902 -0.1159
25208W        W26072   1.991  21.967  15.485 -0.0434 -0.3154 -0.0000
25209W        W26073  26.654   6.438   1.896 -0.1058  0.0713  0.2913
25210W        W26074  16.729   7.531  21.646 -0.0567 -0.0287  0.0479
25211W        W26075   1.693  22.134   5.486  0.0017  0.0296 -0.1530
25212W        W26076   8.227  27.831  20.818  0.3237 -0.1044 -0.0100
25213W        W26077  26.366  21.767   4.368  0.0416  0.2218 -0.0311
25214W        W26078   7.279  27.915  10.916  0.2061  0.0713  0.1643
25215W        W26079  25.617   0.774  19.299  0.1367  0.0207 -0.0656
25216W        W26080  20.920  22.921  20.753 -0.0317  0.2542  0.1161
25217W        W26081   2.877   5.311  10.830 -0.4456  0.3008 -0.0394
25218W        W26082  13.262   0.821   0.701 -0.0801 -0.1333  0.2189
25219W        W26083   5.409   2.512  21.982  0.4036  0.2284 -0.2701
25220W        W26084   8.471  16.962  18.127  0.0485  0.1168 -0.0257
25221W        W26085  20.666  17.525  23.672  0.0067 -0.1096  0.0817
25222W        W26086   3.822   4.446  21.265  0.3637  0.2080  0.3162
25223W        W26087   5.381  24.681  15.519  0.0885 -0.0651 -0.0094
25224W        W26088  18.688  25.721  10.077 -0.0946  0.1081 -0.1754
25225W        W26089   7.011  27.026  26.807  0.1452 -0.0838  0.2618
25226W        W26090  11.146   5.585  18.967 -0.2526  0.0535  0.2346
25227W        W26091   3.366  20.471  28.140 -0.0423 -0.1872 -0.1754
25228W        W26092  14.666   2.285  25.452 -0.0915 -0.0817 -0.0388
25229W        W26093   8.119   4.686  25.049 -0.1680 -0.0001 -0.2802
25230W        W26094  27.885  24.350   4.175  0.0791 -0.1385  0.2059
25231W        W26095  23.327  14.790   9.449 -0.0609  0.0821  0.1593
25232W        W26096   9.156   0.558  22.545 -0.1786 -0.0770 -0.3275
25233W        W26097  10.387   9.463  17.542  0.1769 -0.0625 -0.0196
25234W        W26098   9.646   9.834   9.511  0.1250 -0.2069  0.1178
25235W        W26099  10.660  19.913  25.055  0.1359 -0.0290 -0.1730
25236W        W26100   7.671  10.615   5.904  0.0293 -0.0703  0.2860
25237W        W26101   7.830   9.185   3.225 -0.1861  0.3037  0.0005
25238W        W26102  16.032   4.864  20.054  0.2586  0.0054 -0.1836
25239W        W26103   3.082   6.311   2.401 -0.1401 -0.1040 -0.1861
25240W        W26104  25.997  12.169  11.894  0.2506  0.1955  0.0170
25241W        W26105   8.547  13.563  26.014 -0.2408 -0.0328  0.0530
25242W        W26106  21.176  26.263  14.058 -0.1407  0.1193  0.1182
25243W        W26107   9.068  19.509  27.675  0.0268  0.2761 -0.2735
25244W        W26108  20.485   4.839  18.609 -0.1309  0.1062  0.1091
25245W        W26109  20.139  17.303  27.392  0.1382 -0.1016  0.0590
25246W        W26110   1.150   8.781   6.138 -0.0330  0.3724 -0.2018
25247W        W26111  25.950   8.602  24.542 -0.0623 -0.0906 -0.4286
25248W        W26112  21.166  26.450  22.811  0.0433  0.1361 -0.0560
25249W        W26113   4.082   9.262   4.488 -0.0006  0.1414  0.2189
25250W        W26114  14.520   2.111  16.166 -0.0192  0.1963 -0.2149
25251W        W26115  27.156  13.172  20.682  0.0125 -0.1107 -0.3075
25252W        W26116   2.848  24.934  20.382  0.0896  0.2867 -0.1421
25253W        W26117  25.148  13.496  22.277  0.0884  0.0734  0.1829
25254W        W26118  22.857  15.145   4.836  0.2703 -0.0262 -0.3228
25255W        W26119  10.050   4.412  17.745 -0.2039  0.1631 -0.1538
25256W        W26120   7.341  12.415  18.682  0.1460 -0.0426  0.0975
25257W        W26121   5.647  15.300   8.881 -0.2235  0.0741  0.1967
25258W        W26122  14.231   0.573  19.468 -0.0592  0.0864 -0.0227
25259W        W26123   6.161   6.355  18.658  0.0895 -0.0302 -0.2646
25260W        W26124  23.299  26.766  17.688  0.2743 -0.1020  0.0593
25261W        W26125   0.437   1.327  23.996 -0.2858 -0.0332 -0.1398
25262W        W26126   9.632  18.599  19.201 -0.0199  0.4422  0.3493
25263W        W26127  20.524   4.872  23.859  0.0817  0.3170 -0.0707
25264W        W26128  15.227   7.481  12.452 -0.1162 -0.0871 -0.0260
25265W        W26129  21.166  25.948   3.450 -0.0626 -0.0250  0.2347
25266W        W26130   9.003  21.018  18.588 -0.1835  0.4258 -0.0432
25267W        W26131  22.920  22.545   2.954  0.1237 -0.1628  0.2082
25268W        W26132   9.359  19.038   0.023 -0.0067  0.1909 -0.0211
25269W        W26133  17.848   1.206   5.188  0.2174 -0.1078 -0.0110
25270W        W26134   1.649  29.035   3.522  0.1491 -0.0089 -0.1163
25271W        W26135  14.093   8.060  19.117 -0.1558  0.1678  0.0274
25272W        W26136   4.732  28.120  16.684 -0.1046 -0.1885  0.2103
25273W        W26137  15.199  16.339   1.869 -0.0555  0.1779 -0.0562
25274W        W26138  11.615  16.248  22.639 -0.0352 -0.2756 -0.0576
25275W        W26139  22.080  12.600   6.081  0.0698  0.0913  0.1796
25276W        W26140  26.293  25.771  14.866  0.1565  0.0288 -0.0838
25277W        W26141  16.366   5.687  16.717  0.1675  0.3295  0.4090
25278W        W26142   0.383  15.679  24.195  0.1273 -0.2388  0.3310
25279W        W26143  10.592   7.111  16.725  0.1538  0.4610 -0.0472
25280W        W26144   9.500  23.201  26.229 -0.2731  0.0091 -0.1123
25281W        W26145   7.099   4.388  19.670 -0.1421  0.0366  0.1683
25282W        W26146  20.144  22.068   7.551  0.0724  0.0227 -0.2919
25283W        W26147  17.511  20.947  17.047  0.1064 -0.0371  0.2981
25284W        W26148  21.007  15.685  22.303 -0.1184  0.1464 -0.2519
25285W        W26149  21.392  25.153  10.229  0.1500 -0.0568  0.2029
25286W        W26150   0.420  11.447  18.964 -0.1322  0.1113  0.2038
25287W        W26151   0.599  22.096  16.260  0.1855 -0.0980  0.0591
25288W        W26152  24.627   1.476   1.577  0.1560  0.0099 -0.1138
25289W        W26153   2.584  14.938  10.742 -0.0215 -0.0347  0.0487
25290W        W26154  19.934  28.415  22.256  0.2185  0.0374 -0.1525
25291W        W26155  26.994  27.455  17.150 -0.2376  0.2333  0.4473
25292W        W26156  12.449   1.240  22.960 -0.4307 -0.1047 -0.0027
25293W        W26157   1.349  12.356  22.895 -0.3739  0.0285 -0.0336
25294W        W26158  16.491  25.183  20.048 -0.3247 -0.3912 -0.1392
25295W        W26159  24.718   7.775  27.075 -0.1382  0.2339 -0.2749
25296W        W26160  13.939   1.731  14.429 -0.5528 -0.2108  0.0983
25297W        W26161  10.522   9.810  29.021  0.2663 -0.2307 -0.0619
25298W        W26162   0.981  10.707  10.140  0.1471 -0.2049 -0.0966
25299W        W26163   5.608  10.490  23.666  0.0901 -0.0084  0.0107
25300W        W26164   9.864   0.947  17.206  0.2022  0.3204 -0.1473
25301W        W26165   8.156   2.034  15.000  0.1128  0.0404 -0.0410
25302W        W26166  17.041  17.850   0.063  0.0455  0.3065 -0.1090
25303W        W26167   3.681  19.965  11.056 -0.0356  0.2023  0.1288
25304W        W26168  19.530  27.914  27.065  0.0309 -0.0100 -0.0528
25305W        W26169  25.233   3.623  13.392 -0.0752 -0.2177  0.3161
25306W        W26170  14.810  28.326   2.244  0.0489  0.1969 -0.3145
25307W        W26171   5.337   5.054  27.578 -0.1176 -0.0726 -0.1466
25308W        W26172  29.003  27.212  10.689 -0.1598 -0.2220 -0.1192
25309W        W26173  19.363  27.258  18.444  0.0110 -0.1583 -0.0566
25310W        W26174   9.254  28.047  20.938  0.2778 -0.0244 -0.3727
25311W        W26175  10.233  23.598  21.865 -0.0699 -0.1366 -0.0782
25312W        W26176  18.387  20.694  18.532 -0.0200  0.0098  0.0292
25313W        W26177  26.827  13.616  26.065  0.3244 -0.0322  0.4831
25314W        W26178   3.318  21.846   8.102 -0.1722  0.0884 -0.0654
25315W        W26179  10.119  19.442   1.144  0.0153 -0.1264  0.0157
25316W        W26180  16.467   2.643   2.545 -0.1363 -0.0372  0.1934
25317W        W26181  25.008  11.365  26.818 -0.1452 -0.2049  0.1491
25318W        W26182  27.167   0.813  26.097  0.0841 -0.0077 -0.3046
25319W        W26183  13.328  19.112   1.396 -0.4928 -0.2191 -0.0985
25320W        W26184   7.552  21.518   6.495 -0.2667 -0.0573  0.0996
25321W        W26185  28.436  23.164  17.909  0.0064 -0.2184  0.2208
25322W        W26186   8.865  23.656  17.987  0.1177 -0.0011 -0.3400
25323W        W26187   2.888  25.624  18.045  0.4817  0.2161  0.1573
25324W        W26188  25.323   5.476  17.925  0.1387  0.2994  0.0763
25325W        W26189   5.944   8.039  25.949 -0.2164 -0.2615  0.1683
25326W        W26190  24.177   7.776   5.473 -0.0199 -0.0413 -0.0814
25327W        W26191  21.006  16.754  25.393  0.2166 -0.3793 -0.0150
25328W        W26192  23.502   4.809   2.697  0.1071  0.3453  0.4504
25329W        W26193  25.662  17.549   9.743  0.3413  0.1362 -0.1118
25330W        W26194   8.156   1.210   3.937  0.1225  0.0484 -0.3637
25331W        W26195  26.489   6.654  28.367  0.1134  0.0837 -0.1614
25332W        W26196  21.097  11.561   8.375  0.0572  0.1166  0.1158
25333W        W26197  25.261  22.260  20.303 -0.0121 -0.1993  0.2496
25334W        W26198  26.514  19.493  28.195  0.1995 -0.0575 -0.2919
25335W        W26199  12.950   2.821   4.003  0.1009 -0.2604  0.5394
25336W        W26200  25.352   8.232   1.742 -0.0445  0.3046 -0.1016
25337W        W26201  24.471   5.206  14.265 -0.0315 -0.0051  0.1694
25338W        W26202   8.701  13.852   4.531  0.2781  0.2729  0.4796
25339W        W26203   9.683  15.045  11.248  0.2334  0.2597 -0.0094
25340W        W26204  14.492  12.938   6.930  0.2063 -0.0369 -0.0480
25341W        W26205   0.161  21.565   3.854 -0.0249  0.1110 -0.0694
25342W        W26206   2.222  22.762  14.905 -0.0114 -0.2257 -0.1586
25343W        W26207  21.111  15.175  15.285  0.2689 -0.1143  0.0861
25344W        W26208   7.995  17.522   6.287 -0.1131 -0.1933 -0.1232
25345W        W26209   1.482  27.052   3.258 -0.0745 -0.2887 -0.1665
25346W        W26210  22.244   6.075  20.204 -0.0605  0.1906  0.0315
25347W        W26211  26.602   4.889  12.077  0.2851 -0.0407  0.1517
25348W        W26212  25.917  19.255   5.719 -0.2391  0.1222  0.0596
25349W        W26213  12.081  26.662  17.042 -0.1357 -0.1951  0.2470
25350W        W26214  21.276   5.680  22.550  0.4122 -0.0712 -0.2998
25351W        W26215  24.923  22.331  26.988  0.3284 -0.0837 -0.2638
25352W        W26216  22.454   1.248  20.865  0.0020 -0.2384 -0.2146
25353W        W26217  26.832  24.377  23.483  0.0182  0.1267  0.1300
25354W        W26218  27.097  23.683  16.668 -0.0117 -0.4124 -0.0204
25355W        W26219  24.679  24.139  11.345  0.2367  0.0606  0.4988
25356W        W26220  10.726  28.353   3.784  0.2158 -0.0532 -0.2613
25357W        W26221  13.397  13.935  25.116  0.2743  0.0421 -0.0534
25358W        W26222  17.611  19.207  13.824  0.1564  0.2205 -0.2071
25359W        W26223  15.627  20.004  21.595 -0.2508 -0.1411 -0.0030
25360W        W26224  11.179  11.127   1.727 -0.0099  0.2305 -0.0716
25361W        W26225   9.482  17.837   3.134  0.0310 -0.2471 -0.3602
25362W        W26226  20.645   9.307  21.100 -0.1708  0.0656  0.3168
25363W        W26227   7.351  13.110  23.643 -0.1141  0.1118 -0.3198
25364W        W26228  23.863  20.243  16.653 -0.0261 -0.1428  0.0160
25365W        W26229   2.873  14.509  17.335  0.0531 -0.2854  0.0805
25366W        W26230   1.744   7.872  28.335 -0.0569 -0.0777  0.2260
25367W        W26231  21.469  26.622  19.938 -0.0777 -0.1989  0.1358
25368W        W26232  11.579   1.036   9.223  0.4151  0.0262 -0.1739
25369W        W26233   6.173  11.299  15.700  0.1235 -0.2558  0.0341
25370W        W26234  21.692   5.658  25.008 -0.0127 -0.1281 -0.0075
25371W        W26235   6.375   1.676  19.041  0.0950  0.1536 -0.1615
25372W        W26236  21.643   5.136  18.362  0.1153 -0.0295  0.0750
25373W        W26237  18.148  25.204  11.998  0.0172 -0.1239 -0.0435
25374W        W26238   9.673  26.895  11.935  0.3237  0.0196  0.1108
25375W        W26239   4.388   5.246   0.454 -0.0487 -0.1350 -0.1199
25376W        W26240   0.592  21.050   5.790  0.1193  0.1521  0.3717
25377W        W26241  27.028  15.881   6.407 -0.1780  0.0087 -0.0332
25378W        W26242   4.664  13.320  16.924  0.2420  0.0085  0.0572
25379W        W26243  29.094  20.326   3.573 -0.0902  0.1756 -0.1147
25380W        W26244   6.792  11.694  20.628 -0.2142 -0.2111 -0.3125
25381W        W26245   1.506   0.225  16.916 -0.2295  0.1147  0.4220
25382W        W26246  24.301  16.794  14.878 -0.1173 -0.0798 -0.0931
25383W        W26247   0.344  12.618  28.879 -0.1891  0.1031  0.2969
25384W        W26248  11.037   3.285  28.281 -0.3336  0.0141  0.0220
25385W        W26249   3.473   2.842   0.541 -0.1600  0.0107  0.0709
25386W        W26250  19.647  18.334  24.788  0.0383 -0.2465  0.1729
25387W        W26251  27.290  27.417  25.524 -0.2232 -0.1601 -0.1691
25388W        W26252   0.365  16.026   3.029 -0.1419 -0.0943  0.0031
25389W        W26253   7.257  17.229  27.448 -0.0257 -0.0516 -0.0769
25390W        W26254  22.839   3.544   4.762 -0.0944  0.2172  0.1117
25391W        W26255  25.081  11.440  22.163 -0.1531 -0.2541 -0.0428
25392W        W26256   6.646   6.276   4.836  0.1446  0.3368  0.0325
25393W        W26257  11.983   8.147  17.502 -0.1033  0.1335 -0.1950
25394W        W26258   7.124  27.999  23.202  0.1233  0.1392 -0.2674
25395W        W26259   2.285  24.963  25.883 -0.0379  0.0618 -0.0698
25396W        W26260  17.062   4.231   2.634 -0.0415  0.0678 -0.0561
25397W        W26261  20.176  22.695  12.260  0.2447  0.0519 -0.2096
25398W        W26262  22.363   6.515  25.686  0.0843 -0.0648  0.0308
25399W        W26263  17.823  16.623  26.451  0.1009  0.0282 -0.0745
25400W        W26264  20.913   2.930  28.090  0.1692  0.3626 -0.0006
25401W        W26265  28.502  27.896  18.324 -0.4675 -0.0899  0.0361
25402W        W26266  21.840  24.679   0.474  0.0420  0.0843 -0.3473
25403W        W26267   1.199  25.274  21.759  0.0718  0.2785 -0.1381
25404W        W26268  21.838   8.606   5.126  0.3916  0.2039  0.0549
25405W        W26269  13.215   8.325  25.820 -0.0410  0.0919  0.0331
25406W        W26270  17.431  13.316   4.824 -0.2097 -0.1730 -0.1502
25407W        W26271  11.982   6.933  17.321  0.2276  0.2354 -0.2421
25408W        W26272  23.285  18.279   5.097  0.0660 -0.0826 -0.3116
25409W        W26273  10.425  22.398  16.899  0.0063  0.1492  0.0291
25410W        W26274   6.212  23.479  10.542  0.1991 -0.0467 -0.1487
25411W        W26275   9.334  22.721  16.025  0.0149 -0.0684  0.0386
25412W        W26276  17.179   5.645  14.433  0.1003 -0.0466  0.2234
25413W        W26277  27.852  28.978   0.074 -0.2086 -0.0710 -0.1757
25414W        W26278   8.301   5.149  16.769 -0.0269 -0.2673 -0.1558
25415W        W26279   0.210  15.966   8.910 -0.0596 -0.0266 -0.0216
25416W        W26280  20.092   7.938   5.915 -0.1865 -0.3704 -0.3700
25417W        W26281  11.000  12.619  11.157  0.2593 -0.2712 -0.4591
25418W        W26282  22.953  12.114   8.581 -0.0184 -0.1562  0.2261
25419W        W26283  10.242  29.114  17.937 -0.0996 -0.1448 -0.0276
25420W        W26284  23.289  15.792  25.823 -0.2122  0.1071  0.0707
25421W        W26285  24.300   5.602  21.454  0.2239  0.0350  0.2484
25422W        W26286  25.982  18.613  27.679  0.1417  0.1454 -0.0158
25423W        W26287  19.196  14.607   2.829 -0.1376 -0.0064 -0.0596
25424W        W26288   5.968  20.571   5.260 -0.1671 -0.0341  0.1683
25425W        W26289  27.636   3.896  25.759 -0.3882 -0.1166  0.0728
25426W        W26290  24.586  11.466  25.782 -0.0040 -0.0122 -0.0065
25427W        W26291   1.097   7.515  19.837  0.0420  0.0248  0.2517
25428W        W26292  15.212  21.754  19.887  0.1448 -0.0808  0.2871
25429W        W26293  16.107   0.002  16.192 -0.1020  0.0676  0.1667
25430W        W26294  23.428   5.509  15.476  0.1804  0.5416 -0.0655
25431W        W26295  10.120  17.494  18.326 -0.1273  0.0520 -0.0119
25432W        W26296   3.159   1.428   7.910 -0.0463  0.1162  0.0054
25433W        W26297   0.727  19.338  19.231 -0.0466  0.2172  0.1100
25434W        W26298  22.279   9.953  19.768 -0.1080  0.3775  0.2051
25435W        W26299   7.267   6.759  15.904 -0.0322  0.1349  0.0372
25436W        W26300   9.213   8.565  10.738  0.2008  0.2261 -0.2729
25437W        W26301  17.320  11.830   4.419 -0.1233 -0.1692  0.0116
25438W        W26302  10.810   2.257  20.666 -0.3787 -0.0661 -0.0731
25439W        W26303  17.935   1.618   4.896  0.0288 -0.0302 -0.0759
25440W        W26304   9.175   4.853   1.137  0.0974  0.3590  0.1514
25441W        W26305  15.936   8.939  26.326 -0.1490 -0.1822  0.0952
25442W        W26306  13.489  18.881  15.261 -0.0623 -0.1173  0.0355
25443W        W26307  18.919  19.999  13.393  0.3245 -0.3544 -0.2947
25444W        W26308  15.787  28.326   0.206  0.4936  0.2900 -0.1298
25445W        W26309   4.871   0.069  26.788  0.0632 -0.2596 -0.0141
25446W        W26310   9.775   1.532  26.419  0.0441 -0.0919 -0.0566
25447W        W26311  12.786   6.530  26.459 -0.0101 -0.0681  0.1864
25448W        W26312   2.179   6.783   3.191 -0.0890 -0.0596 -0.0430
25449W        W26313  11.312  12.799  27.565 -0.2315 -0.1781  0.0126
25450W        W26314   9.600  25.342   0.429  0.1424  0.2126  0.0109
25451W        W26315   6.183  15.674   0.707 -0.0836  0.3103 -0.2552
25452W        W26316   5.007  20.987  14.766 -0.3547  0.1692  0.0147
25453W        W26317   0.446  24.548   2.818 -0.1642 -0.1417  0.2227
25454W        W26318   0.857  22.811   2.493  0.1507  0.0900  0.0991
25455W        W26319   0.388  19.180  18.375 -0.2292  0.2019  0.1178
25456W        W26320  28.347  22.561   8.344  0.2129 -0.1728  0.1816
25457W        W26321   7.179  11.513  17.560 -0.1466  0.0052  0.0149
25458W        W26322   5.056   2.885   2.777  0.1053  0.1748  0.1599
25459W        W26323   7.229  26.770  21.060  0.0533 -0.3250 -0.2243
25460W        W26324  28.225   5.731  28.490 -0.1624  0.2450 -0.0614
25461W        W26325  23.428   0.514  10.099  0.2481  0.1608  0.0290
25462W        W26326  20.758   1.395  27.278  0.2000 -0.3454  0.1770
25463W        W26327  17.645   4.476   5.203  0.1035 -0.0501 -0.0084
25464W        W26328   7.820  16.566  11.979 -0.2578  0.1530  0.1542
25465W        W26329   7.909  20.516  14.915  0.1499  0.0568 -0.3312
25466W        W26330  11.342  19.842  17.326 -0.0513 -0.3098  0.0443
25467W        W26331   8.731  27.567   1.484 -0.0317  0.1192 -0.0922
25468W        W26332   1.780   4.244  25.227 -0.1405  0.2664  0.1676
25469W        W26333   8.287  16.813  25.394 -0.2344 -0.0018  0.0912
25470W        W26334  24.109  14.033  18.107  0.0008 -0.3573 -0.0492
25471W        W26335  25.740  17.756   0.631 -0.0263 -0.5110 -0.1158
25472W        W26336   4.857  21.307   2.375  0.2042 -0.1702  0.1971
25473W        W26337  23.804  10.933  13.510 -0.1800  0.1545  0.0910
25474W        W26338   1.192  10.496   1.724  0.1724  0.0689 -0.0039
25475W        W26339   9.608   3.102   6.784 -0.4311 -0.1382  0.1344
25476W        W26340  27.550   4.905  12.001  0.1255  0.2763  0.1750
25477W        W26341  28.422  18.941   2.054  0.0512  0.1981 -0.1213
25478W        W26342  13.026  14.641  12.917  0.6342  0.1733  0.0902
25479W        W26343  16.069   8.223  22.819  0.0316  0.1239 -0.0656
25480W        W26344  26.814  14.741   0.786 -0.3207 -0.3365 -0.0453
25481W        W26345  12.383   4.361   9.335 -0.0997 -0.0874 -0.2633
25482W        W26346   2.381  13.907  20.725 -0.2933 -0.1599  0.1408
25483W        W26347  28.485  23.711   6.871  0.0119 -0.0518  0.0883
25484W        W26348   7.017  23.170  11.001  0.0078  0.0062 -0.1715
25485W        W26349  26.011  24.578   6.307 -0.1610 -0.1783 -0.3692
25486W        W26350   6.105  26.948   4.355  0.0824 -0.0203  0.1425
25487W        W26351  12.498   9.430  25.793 -0.0620 -0.0860  0.1939
25488W        W26352  20.826   0.696  28.902  0.1602 -0.1655  0.0482
25489W        W26353  10.163  24.696  15.001 -0.2638 -0.2223  0.0140
25490W        W26354   6.963  17.878   4.005  0.1373  0.1394 -0.1191
25491W        W26355  12.759   1.778   4.279 -0.0113  0.0486 -0.0588
25492W        W26356   7.442  11.202  25.203 -0.1341  0.2706  0.1036
25493W        W26357  27.538  20.064   1.818  0.1458 -0.2133 -0.2404
25494W        W26358   3.045  17.580  25.631 -0.1200 -0.0598  0.0932
25495W        W26359   9.762  26.970  20.159 -0.1108 -0.0300 -0.0903
25496W        W26360  17.065  14.507  23.462 -0.0257 -0.3377  0.3186
25497W        W26361   1.427   8.712   6.603 -0.0856  0.1124 -0.0901
25498W        W26362  22.366  22.537  26.466 -0.0908 -0.1545  0.2100
25499W        W26363  13.198  24.513  15.166  0.0408 -0.3175  0.1165
25500W        W26364  11.035  13.704  22.372 -0.0885  0.2873 -0.0048
25501W        W26365  26.572  24.957   2.155 -0.4074 -0.1197 -0.2281
25502W        W26366  11.675   1.957   2.709 -0.1761 -0.0266  0.1985
25503W        W26367  14.056  24.866  18.824 -0.0898  0.1133 -0.2103
25504W        W26368   8.713   8.441  10.832  0.2739  0.0477 -0.4336
25505W        W26369  14.337   1.989  12.527 -0.0061  0.1897 -0.1308
25506W        W26370   7.761   4.338  27.914  0.0815 -0.4346  0.2315
25507W        W26371  25.734   7.428   7.078  0.2927  0.1955 -0.1563
25508W        W26372  23.908  18.428   1.529 -0.0599 -0.1132 -0.1443
25509W        W26373   6.207  22.761  20.329  0.1090  0.2440  0.1473
25510W        W26374   4.532  25.868  28.836  0.0063 -0.1587 -0.0354
25511W        W26375   1.307  17.051  19.151 -0.0704 -0.0510  0.0988
25512W        W26376  18.931  25.081  28.763  0.2065 -0.1640 -0.0320
25513W        W26377  14.248  10.294   3.566  0.1401  0.0415  0.1751
25514W        W26378  25.918  21.011   0.195  0.1502  0.2218  0.0398
25515W        W26379  17.447  26.962   0.802 -0.2858 -0.0088 -0.1215
25516W        W26380  10.690  22.545  27.324  0.5186 -0.0670 -0.1759
25517W        W26381   5.926   0.367   0.209  0.2737  0.0662  0.0613
25518W        W26382   1.280   3.222  22.125  0.2953 -0.3111 -0.0007
25519W        W26383  26.716  24.272  22.580  0.0396 -0.1854 -0.1524
25520W        W26384   3.042  14.804  24.593 -0.1709  0.2033 -0.0919
25521W        W26385  11.683  28.832  25.972  0.2349 -0.1206 -0.1694
25522W        W26386  28.484  28.431  26.727 -0.0224 -0.0429  0.1317
25523W        W26387   7.599  25.504  27.098 -0.0965  0.3434 -0.2354
25524W        W26388   1.400  16.627  19.672 -0.0781  0.1137 -0.1345
25525W        W26389  11.280  28.247   0.078 -0.1298 -0.1068  0.3946
25526W        W26390   5.288   0.108   4.865 -0.4516 -0.2880  0.1946
25527W        W26391  11.101  24.689   4.949 -0.3966  0.0915 -0.3412
25528W        W26392  17.925  18.560  15.659 -0.1270  0.0448  0.2148
25529W        W26393  11.438  21.047  14.465  0.1664  0.0866 -0.0760
25530W        W26394   4.596  29.056  20.887 -0.0423  0.3513  0.1134
25531W        W26395  25.688   7.046  20.343  0.3932  0.0351  0.1333
25532W        W26396  20.325  12.442  13.726  0.2588  0.2954  0.0826
25533W        W26397  13.829  18.059   2.196  0.4819 -0.1416 -0.2337
25534W        W26398   8.029  22.136   6.944 -0.1022  0.3343 -0.2007
25535W        W26399  26.326  19.150  17.093  0.2686  0.1998  0.2670
25536W        W26400  19.653   2.038  16.270 -0.0195  0.0761 -0.0288
25537W        W26401  28.985  21.332   8.686  0.0447  0.1924  0.2959
25538W        W26402  12.420   4.059   7.918  0.0001  0.1223 -0.0404
25539W        W26403  15.151  21.897  18.530  0.1095  0.1081  0.0711
25540W        W26404  10.721  28.999  20.499 -0.1909 -0.0462  0.1070
25541W        W26405   1.081  28.962  24.410 -0.2308 -0.1653  0.1993
25542W        W26406  11.824  19.632  28.871  0.0289  0.1071 -0.1222
25543W        W26407  16.954  17.629   6.982  0.0468  0.0111  0.3590
25544W        W26408   6.864   6.854   6.590  0.1026 -0.0279 -0.0176
25545W        W26409   1.289  13.042   2.787  0.1268  0.2481 -0.2838
25546W        W26410   1.850   3.272   5.665 -0.2171  0.0217  0.2001
25547W        W26411   8.876  24.411  26.561  0.0653  0.0840 -0.0995
25548W        W26412   8.338  17.180   0.258  0.0084 -0.1558 -0.0677
25549W        W26413   7.283  28.828  12.019 -0.1105 -0.2257 -0.0190
25550W        W26414  20.020   0.837   1.934  0.2089 -0.2212 -0.1477
25551W        W26415   5.311   0.896  18.772 -0.3105  0.2170 -0.0020
25552W        W26416   1.575  27.790  19.614 -0.0344 -0.1433 -0.0528
25553W        W26417   5.802   7.142  26.204 -0.2214  0.1597  0.2282
25554W        W26418  28.547   4.182  19.732 -0.3014 -0.1420 -0.1939
25555W        W26419  23.726  20.735   6.834  0.1125 -0.1005 -0.0852
25556W        W26420  16.314  29.021   0.668 -0.0440 -0.0148  0.0348
25557W        W26421  25.294   0.766  23.319 -0.1341  0.1540 -0.0199
25558W        W26422  24.269   1.093  14.259 -0.0528 -0.1283  0.1357
25559W        W26423   4.326  15.377   6.320 -0.2844  0.0850 -0.1747
25560W        W26424  21.498   2.082  18.623 -0.5678  0.1195 -0.3989
25561W        W26425  20.199  13.594  11.534  0.2424 -0.1267 -0.1986
25562W        W26426  23.394  27.509  16.895 -0.1286  0.1159  0.0140
25563W        W26427   5.753   6.603   1.941 -0.0914 -0.1162  0.1703
25564W        W26428  26.204  28.401  13.120 -0.0319 -0.2553  0.0909
25565W        W26429  21.385   6.733   8.480 -0.1862  0.0262  0.1653
25566W        W26430  24.246   7.671  27.265 -0.0350 -0.1071  0.1066
25567W        W26431  10.797   6.577  29.023  0.2107 -0.0836  0.2635
25568W        W26432  14.201  11.891   5.492 -0.1006  0.1183 -0.0153
25569W        W26433  14.518  22.644   0.462  0.0571  0.1601  0.0765
25570W        W26434  19.624   4.760   6.265 -0.1934  0.2084 -0.0245
25571W        W26435  10.175  21.102   2.211 -0.1989 -0.1172  0.1531
25572W        W26436  26.973   6.437  19.886  0.0999  0.1734 -0.0848
25573W        W26437   5.521  18.159  26.784  0.4825 -0.1408 -0.2277
25574W        W26438   3.136  20.572   6.825 -0.1654 -0.0017  0.1180
25575W        W26439   5.081  10.101  23.714 -0.2567  0.2774  0.0203
25576W        W26440   8.953  13.693  23.885 -0.0177 -0.3900 -0.0946
25577W        W26441  13.477  14.681  26.387  0.1211 -0.3914  0.1860
25578W        W26442  22.535  11.142   8.763 -0.0264 -0.0444  0.1038
25579W        W26443   5.850  11.363  22.852  0.0696  0.0111  0.0819
25580W        W26444   7.770   6.422  27.958  0.0089  0.0003 -0.0459
25581W        W26445   9.475  21.665   0.812  0.1654  0.0103  0.0715
25582W        W26446  24.512  14.847  14.927  0.1174 -0.1909 -0.0303
25583W        W26447  27.250   5.244  19.435  0.0783 -0.3224 -0.1769
25584W        W26448   4.775  28.397  22.535 -0.1273 -0.1750 -0.0913
25585W        W26449  12.180   7.569   3.844 -0.0566 -0.0145 -0.2683
25586W        W26450  20.499   0.098  23.530 -0.0985  0.3240  0.0968
25587W        W26451  18.374  19.188   9.343 -0.0491 -0.2360 -0.0766
25588W        W26452  28.360  26.915  18.661  0.0127 -0.0516  0.0832
25589W        W26453  26.681   5.302   2.295  0.1383  0.1366 -0.2095
25590W        W26454   3.086   6.896  13.131 -0.3011  0.1195  0.1130
25591W        W26455   8.042   2.974  25.511 -0.0706  0.0014 -0.0751
25592W        W26456  21.496   3.658  15.735  0.2497  0.2598  0.0216
25593W        W26457   0.582  12.294  18.361  0.1389 -0.1409  0.1956
25594W        W26458  25.052  23.767   3.558 -0.1907  0.1365  0.1741
25595W        W26459   3.404   2.671  24.671 -0.1285 -0.3812  0.3308
25596W        W26460   6.733  17.654  17.691 -0.0935  0.0121 -0.3197
25597W        W26461  28.309  27.798  24.630 -0.0463 -0.1780  0.0821
25598W        W26462  25.450  20.699  16.111 -0.3953 -0.3027  0.1177
25599W        W26463   6.527  13.654   7.395  0.0338  0.0788  0.2486
25600W        W26464  28.791   1.195  24.540 -0.2524  0.0209  0.0494
25601W        W26465  12.676   4.699  18.403 -0.2210  0.0495  0.1273
25602W        W26466  10.220  26.163  15.029  0.1714  0.0376 -0.0217
25603W        W26467  14.601   2.693  15.455  0.1103 -0.0281  0.4719
25604W        W26468  10.190   2.887  12.004 -0.1058  0.1736  0.1541
25605W        W26469  17.898  19.834  23.540  0.1975 -0.3160 -0.2649
25606W        W26470  25.946  23.005   4.769 -0.0372  0.2505  0.1587
25607W        W26471   2.003  13.142  20.799 -0.1559  0.1087 -0.0548
25608W        W26472   1.240  24.818   1.398  0.2658 -0.4817 -0.2610
25609W        W26473  14.244  21.852  12.804 -0.2149 -0.0579  0.1072
25610W        W26474  19.367  27.123  15.755  0.0723  0.2456 -0.0674
25611W        W26475  24.056  14.150  25.957 -0.0346  0.1376 -0.0151
25612W        W26476  27.676  24.207  20.705 -0.0445  0.0711 -0.0104
25613W        W26477  26.072   2.926   6.005 -0.0525  0.1930  0.0613
25614W        W26478   1.088   4.768  25.155 -0.1081 -0.0032 -0.1589
25615W        W26479  17.856   9.042   6.876  0.2264 -0.0567 -0.2554
25616W        W26480  13.757  21.565  23.981 -0.0427 -0.2954  0.2738
25617W        W26481   4.465  26.159  27.826 -0.1498 -0.0250 -0.0669
25618W        W26482   7.375   0.065  24.679 -0.2070 -0.0538 -0.0092
25619W        W26483  15.229   1.943  24.706  0.0836 -0.5738  0.2491
25620W        W26484   7.578  23.564  26.111  0.0471 -0.0804 -0.0020
25621W        W26485   6.550   0.650   1.009 -0.1361  0.3470 -0.1293
25622W        W26486  15.540  25.759  21.001 -0.0353  0.1635  0.1345
25623W        W26487   2.005  25.061  12.309 -0.2721 -0.1324 -0.0100
25624W        W26488   3.216  24.749  24.224  0.0528  0.1008 -0.1167
25625W        W26489  28.091  15.932   0.028  0.1807 -0.2064  0.2615
25626W        W26490  29.012  14.628   2.247 -0.5220  0.3232  0.0776
25627W        W26491  16.536  23.816  18.849 -0.0371 -0.1934 -0.1311
25628W        W26492  25.057  26.928   9.561  0.0723 -0.0310 -0.0127
25629W        W26493  23.574  20.909   9.246 -0.3570 -0.1736 -0.3340
25630W        W26494   8.411  28.386  16.555  0.0765 -0.1563 -0.0716
25631W        W26495   6.323   2.362   5.036  0.2696 -0.1083  0.0990
25632W        W26496  28.741  20.116  21.887 -0.1279  0.1554  0.4136
25633W        W26497   0.484  16.491   7.745 -0.1015 -0.0504  0.2933
25634W        W26498   9.197  10.121   1.265 -0.1494 -0.0277  0.0016
25635W        W26499   1.080  22.325   7.837 -0.1385 -0.3411  0.1277
25636W        W26500  10.177  18.347  13.285  0.0793  0.2777 -0.2477
25637W        W26501  21.622   9.147   7.492 -0.0776  0.1649  0.1239
25638W        W26502  14.616  25.503   5.641 -0.0502 -0.1995  0.0941
25639W        W26503   4.247   1.349   0.166 -0.0218 -0.4350 -0.1009
25640W        W26504   7.250  28.898  18.019  0.1519  0.2260  0.2658
25641W        W26505   7.427  20.348  24.703 -0.2886  0.2080  0.1120
25642W        W26506  28.591  22.832   0.303  0.2543  0.1071 -0.0225
25643W        W26507  20.776  28.042   1.985  0.1888 -0.2465 -0.1751
25644W        W26508  16.016  26.894  26.685 -0.1122 -0.1086  0.2653
25645W        W26509   4.243  22.068  28.028 -0.4105  0.1717  0.0184
25646W        W26510  23.547   4.316   1.155 -0.1505  0.0521 -0.3664
25647W        W26511   6.112   2.739   9.610  0.1396  0.0363 -0.1551
25648W        W26512   3.397  22.860  19.459  0.0443 -0.0398 -0.0486
25649W        W26513  27.916   0.297  25.003 -0.0865 -0.3209  0.0680
25650W        W26514  17.158  23.215   2.792 -0.1558  0.1590  0.2031
25651W        W26515  18.638  21.022   3.954  0.1929 -0.1798  0.4088
25652W        W26516   5.939   0.619   5.599  0.2091  0.0988 -0.4113
25653W        W26517  15.952  18.064  19.695  0.2298 -0.0920  0.1551
25654W        W26518   4.748  13.196   2.134 -0.0014  0.5122 -0.0613
25655W        W26519  27.129  15.520  25.933  0.1439 -0.0359  0.0300
25656W        W26520  22.981  20.420   6.125  0.1875  0.0072  0.0494
25657W        W26521   4.531  18.495   3.707 -0.2300  0.1296 -0.2231
25658W        W26522   9.524  16.148   1.746 -0.1228 -0.0507  0.1424
25659W        W26523   7.339   4.874   6.173  0.0412 -0.3319 -0.2182
25660W        W26524  22.202  26.323  16.306  0.2040  0.0567 -0.2741
25661W        W26525  20.875  28.590   7.337  0.3099  0.1322 -0.0236
25662W        W26526   2.379  10.527  15.490  0.0623 -0.0793  0.1323
25663W        W26527  22.496  18.805   8.181 -0.4450  0.0410  0.1774
25664W        W26528   4.946   4.302  28.920  0.0053 -0.1315 -0.2508
25665W        W26529  20.884  22.868   1.185  0.0381  0.0239  0.1598
25666W        W26530   8.376  16.442  21.979 -0.1354  0.1214  0.0719
25667W        W26531  14.178   6.567  28.526  0.3540  0.3786 -0.0189
25668W        W26532  20.788  15.092  11.276 -0.0462  0.3309  0.0613
25669W        W26533   6.498  12.623  14.004 -0.2151 -0.0861  0.2820
25670W        W26534   5.166   1.140  20.483 -0.1011  0.2703 -0.2500
25671W        W26535  11.147  15.522  12.480  0.0902  0.1286  0.2141
25672W        W26536  27.071  20.720  26.743 -0.1384 -0.2376 -0.1696
25673W        W26537   4.442   0.335  22.629 -0.0186  0.1948 -0.1010
25674W        W26538   5.622  28.360  15.598  0.2269 -0.0209 -0.4223
25675W        W26539  18.132  28.716  28.925 -0.1946 -0.0003  0.3268
25676W        W26540  16.849  10.714   0.256 -0.3090  0.0776  0.3224
25677W        W26541  24.292   8.193  20.022  0.2522 -0.3576 -0.3554
25678W        W26542   1.850  21.797   8.756  0.0932 -0.2197  0.0627
25679W        W26543  21.798  23.715  27.671  0.1180  0.0461 -0.0333
25680W        W26544  21.951  24.513  22.149 -0.2093 -0.0225  0.1593
25681W        W26545   1.972   1.324  14.179 -0.0303  0.0199  0.2953
25682W        W26546   5.324  23.718   6.219  0.2263  0.0509 -0.3044
25683W        W26547   8.360  22.358  26.706  0.0685  0.2429 -0.0172
25684W        W26548   5.566   1.754   2.303 -0.0644 -0.1619  0.0562
25685W        W26549   7.157   8.239   3.817 -0.1220 -0.2417 -0.4712
25686W        W26550   1.174  11.055   8.181  0.2878 -0.2437 -0.1322
25687W        W26551  12.381  27.862   2.422 -0.0810  0.0769 -0.3739
25688W        W26552   5.156  13.496  26.636 -0.1408 -0.2355 -0.1256
25689W        W26553   8.967  25.533  19.364 -0.0253  0.1711  0.0791
25690W        W26554  29.069  21.752   1.366 -0.2558  0.0709 -0.5628
25691W        W26555   1.387  28.377   5.351 -0.0024  0.3247  0.1845
25692W        W26556   7.958  18.655   6.584 -0.3981 -0.1602 -0.0883
25693W        W26557  27.300   0.157   8.001 -0.1278 -0.1909  0.0579
25694W        W26558  16.088   4.954  19.162  0.2639  0.1348 -0.2887
25695W        W26559  22.424  26.330   7.623  0.4574  0.1047 -0.0191
25696W        W26560  20.815  25.661  28.668  0.1114  0.1127  0.0505
25697W        W26561   1.479   3.525   8.948 -0.3411 -0.0630  0.1764
25698W        W26562   3.010  11.188   9.417 -0.0674 -0.0662  0.1491
25699W        W26563  14.880  10.825   3.195 -0.2690  0.0233 -0.0447
25700W        W26564   7.900  18.159   6.462 -0.0341  0.0522 -0.1180
25701W        W26565   8.082  17.394   0.946 -0.1758 -0.0011 -0.0158
25702W        W26566   7.213   8.706  18.015  0.0497  0.0231  0.0421
25703W        W26567   6.437  24.916   6.231 -0.0040 -0.0889 -0.0947
25704W        W26568   1.165  25.242   3.212 -0.1486  0.0133 -0.0065
25705W        W26569  12.033  10.282   5.438  0.0562  0.1484  0.4379
25706W        W26570   7.085   3.833   7.271  0.0463 -0.0381  0.2040
25707W        W26571  25.370  13.824  17.016  0.0131  0.2768 -0.1837
25708W        W26572  27.685  19.735  14.813  0.3183  0.0556 -0.3123
25709W        W26573  12.377   5.046   3.447 -0.3672  0.1676 -0.3892
25710W        W26574  26.969  15.399  11.699 -0.1952 -0.0061 -0.1796
25711W        W26575   2.120   0.316  23.127 -0.2814  0.3551 -0.0910
25712W        W26576  10.361  14.547  27.083 -0.2646 -0.1423  0.1633
25713W        W26577   5.249  20.536  17.425  0.1241 -0.0100  0.2461
25714W        W26578  27.190  21.553  21.491  0.1089 -0.2661 -0.1006
25715W        W26579   2.606  22.250  21.052 -0.1668  0.1318  0.0058
25716W        W26580  23.037  18.582  11.084 -0.2885  0.0823  0.0715
25717W        W26581   5.011  12.091   8.964  0.3076 -0.1687 -0.3503
25718W        W26582  20.144  17.351  23.039  0.0461 -0.0870  0.5226
25719W        W26583   1.034   7.886  25.553  0.0331  0.3021 -0.0716
25720W        W26584   6.977   0.059   1.451  0.0688 -0.2087 -0.1171
25721W        W26585   0.653  22.991  10.587 -0.0596 -0.1245 -0.3125
25722W        W26586  20.186  17.659  24.022  0.0831 -0.0056  0.2407
25723W        W26587  17.001   8.990  27.475 -0.1696 -0.0900 -0.0048
25724W        W26588   2.587   7.852   1.553 -0.1831 -0.4484  0.0422
25725W        W26589   3.462  15.007  14.002 -0.2089  0.0950  0.0539
25726W        W26590  28.052  15.043  17.655  0.2460  0.1260  0.2696
25727W        W26591   9.904  26.360   7.539 -0.5115  0.2419  0.2297
25728W        W26592  24.086   9.860  21.620  0.0393  0.0036 -0.4413
25729W        W26593  11.944  26.594   4.075 -0.0754 -0.2268  0.1448
25730W        W26594  20.008  27.713  19.421  0.0022  0.0633 -0.2298
25731W        W26595  10.964  26.267  24.193  0.1203  0.2009  0.1202
25732W        W26596  16.340  22.581  25.615  0.1200  0.0654 -0.3337
25733W        W26597   4.035  26.413  27.887 -0.2251  0.2220  0.0806
25734W        W26598  11.377   0.260  27.324  0.4272  0.1107  0.0678
25735W        W26599   9.929   0.368  12.956  0.1400  0.0402 -0.0699
25736W        W26600  11.487  16.440   1.376 -0.1390  0.2369 -0.0828
25737W        W26601   5.264   3.770  25.785  0.2520 -0.0376  0.2212
25738W        W26602   9.448  21.089  23.663  0.1848  0.0516 -0.0454
25739W        W26603  17.566   0.658  11.319 -0.0217 -0.3432 -0.1202
25740W        W26604   0.928  16.076  20.986 -0.0827 -0.0873  0.0896
25741W        W26605   2.488  17.525   8.713 -0.0698 -0.0198  0.1140
25742W        W26606  10.003   3.296  19.363  0.1103  0.4755 -0.0067
25743W        W26607  13.860   4.755  19.251 -0.2155  0.1736  0.0673
25744W        W26608  10.907   4.420  29.058 -0.0952 -0.0769  0.1340
25745W        W26609  12.500  12.092   9.324 -0.1356 -0.1623 -0.5563
25746W        W26610  25.390   3.753  21.804  0.0777 -0.2377 -0.4726
25747W        W26611  28.943  23.421  23.123  0.3321 -0.1449 -0.0027
25748W        W26612   1.889   8.370   1.327  0.0854  0.1515  0.0237
25749W        W26613   6.596  20.424  17.721  0.0184  0.2596 -0.0258
25750W        W26614   5.334   2.317  12.545  0.0942  0.1434 -0.3295
25751W        W26615   1.715  26.766   7.231  0.0034 -0.2250  0.2235
25752W        W26616  15.695  23.618  21.938  0.1711  0.1651 -0.0333
25753W        W26617  13.260   0.517  12.917 -0.1952 -0.1178  0.1717
25754W        W26618   3.700   4.172  26.569 -0.2128 -0.2151 -0.0793
25755W        W26619  28.835  26.986   5.370 -0.2986  0.1225  0.3212
25756W        W26620   1.401   7.180  24.810  0.0151 -0.2798 -0.0010
25757W        W26621   1.416  15.966  23.656  0.2948 -0.0180 -0.2049
25758W        W26622   0.738  28.850   2.131 -0.0888  0.1173  0.0387
25759W        W26623  26.779  10.963   8.261  0.3346 -0.2361 -0.0999
25760W        W26624  26.332  17.112   6.404  0.0301 -0.1783  0.0729
25761W        W26625   5.106   7.711   6.884 -0.0243 -0.0334  0.1437
25762W        W26626  24.167   2.145  25.209 -0.0602  0.0155 -0.0146
25763W        W26627  24.322   0.719  12.430 -0.1867 -0.1097  0.0421
25764W        W26628  23.740  27.744  13.209  0.1238 -0.0760  0.2483
25765W        W26629  15.882  18.909  23.674  0.3909 -0.0640 -0.0651
25766W        W26630   1.546  15.661  27.273 -0.2031  0.2830  0.2498
25767W        W26631   1.495  19.037  13.365 -0.0470 -0.2788  0.0196
25768W        W26632  27.959   7.573  18.531 -0.4274  0.0196  0.3145
25769W        W26633   3.475   1.933   4.893  0.2560  0.0282 -0.2977
25770W        W26634   2.998  15.167  13.824 -0.1770 -0.3957 -0.1617
25771W        W26635  25.289   3.482  23.797  0.3933  0.0492 -0.1304
25772W        W26636   7.247  18.790  17.573 -0.1921 -0.0915 -0.0299
25773W        W26637   6.099   6.147  19.663  0.1391  0.1537 -0.0923
25774W        W26638  10.182  24.166   3.063 -0.2007  0.4448  0.2711
25775W        W26639  24.104   3.998  19.466  0.2839  0.0751  0.1901
25776W        W26640   4.606  25.979  22.162 -0.2510 -0.1991 -0.0876
25777W        W26641  28.527   1.874   9.551 -0.0722 -0.0785  0.0566
25778W        W26642  20.083  19.743   0.784  0.1832  0.0759 -0.0482
25779W        W26643  15.914  15.262  24.792  0.1523 -0.0290 -0.0079
25780W        W26644   7.516  10.912  21.070  0.0047 -0.0603  0.0991
25781W        W26645  11.262  24.471   3.640 -0.2754 -0.1030 -0.2442
25782W        W26646   5.057   5.676  19.775  0.4262  0.0303  0.3771
25783W        W26647  27.989   0.764  11.838 -0.1296  0.0390 -0.0173
25784W        W26648   0.261   1.414  12.367  0.1845 -0.3253  0.1405
25785W        W26649   8.309   7.532   2.028 -0.0540  0.2148  0.0397
25786W        W26650  26.143   9.965  24.669 -0.1152 -0.1010  0.1144
25787W        W26651  17.074   9.379  18.723  0.3879  0.0880  0.1584
25788W        W26652  16.118   4.182  15.840  0.1102  0.0543  0.0020
25789W        W26653  12.011  18.783  19.566 -0.1692  0.0916 -0.0450
25790W        W26654   5.749   7.252  28.782  0.2895  0.1020  0.0089
25791W        W26655   3.612   8.058   8.683 -0.0235 -0.1688 -0.0378
25792W        W26656  24.106  24.731   8.986  0.0006 -0.0070  0.2070
25793W        W26657  16.313  11.814  14.801  0.2111 -0.2789 -0.0557
25794W        W26658   4.013  23.598   3.149 -0.1814 -0.3321 -0.0287
25795W        W26659   6.374  19.352   4.684 -0.0967 -0.1147  0.2144
25796W        W26660   9.527  25.790  27.264 -0.0198  0.6096 -0.1728
25797W        W26661  20.427  16.181   4.887  0.0199 -0.0863  0.0115
25798W        W26662   5.111  14.967  11.669  0.3675 -0.2567  0.0460
25799W        W26663   0.355   5.470  28.100 -0.0245 -0.0278  0.1056
25800W        W26664   3.487   0.911  28.390 -0.1882 -0.2217  0.0141
25801W        W26665   8.802  11.461  10.482  0.0596 -0.0042  0.1076
25802W        W26666  18.431   0.146  11.770 -0.0862  0.1619  0.1812
25803W        W26667   4.213  24.066  19.061  0.1993 -0.0583  0.1101
25804W        W26668  10.770  27.779   2.708 -0.0380 -0.0044 -0.1198
25805W        W26669   6.791   3.752   9.824 -0.1653 -0.0324  0.0724
25806W        W26670  21.486   3.932   4.999  0.1802 -0.0897  0.1103
25807W        W26671   3.385   5.331  14.814 -0.1522  0.2608 -0.0481
25808W        W26672  25.153  14.921  10.398 -0.3310 -0.2313 -0.0208
25809W        W26673   0.139  12.446  24.967 -0.0569  0.0473  0.0598
25810W        W26674  22.038  26.382  23.325 -0.3487 -0.0176 -0.0886
25811W        W26675   3.664   6.876  23.620  0.0924 -0.1596  0.2625
25812W        W26676  28.752   9.994  20.266  0.1656 -0.2048  0.0117
25813W        W26677  10.576  22.539  26.852  0.1102 -0.1685 -0.2612
25814W        W26678  27.712  18.211  21.542 -0.0302  0.2742 -0.2583
25815W        W26679  27.256   8.081  18.117  0.0851  0.0785 -0.1706
25816W        W26680  15.723   6.336   7.774 -0.3963 -0.1606 -0.2534
25817W        W26681   0.750  17.805  17.989  0.1197  0.3173 -0.0052
25818W        W26682  10.698   3.867  21.509  0.2319  0.2598 -0.1902
25819W        W26683  16.338  23.035   5.128  0.0017  0.1096  0.0186
25820W        W26684  17.059  14.901  18.902  0.3240 -0.0708 -0.0063
25821W        W26685  24.534  25.290   3.546 -0.1051 -0.1161  0.0789
25822W        W26686  24.321  20.491   0.521 -0.1728  0.0000 -0.0119
25823W        W26687  15.839   3.939  12.036 -0.0694 -0.0206 -0.2180
25824W        W26688   5.643  15.645   8.483  0.1163 -0.1308 -0.0271
25825W        W26689  11.498  18.501  28.427  0.2151 -0.0886 -0.0810
25826W        W26690  17.361   4.455  12.752 -0.0716  0.0823  0.6481
25827W        W26691  21.955   5.039  27.081 -0.2053  0.0988  0.2303
25828W        W26692  20.301   4.567  19.536 -0.1818 -0.0751 -0.1080
25829W        W26693   8.537   7.786  19.660 -0.2993  0.0813  0.1151
25830W        W26694  24.550  20.745  12.656 -0.0719 -0.1805  0.0979
25831W        W26695  12.665  16.239   9.612  0.2162 -0.2655  0.2545
25832W        W26696  14.080  20.497   3.042  0.0668  0.0977 -0.1122
25833W        W26697   1.817   0.861  20.612  0.3377  0.1893 -0.1388
25834W        W26698   3.479   7.519   6.381 -0.0993  0.0121  0.0274
25835W        W26699  21.864   3.290   7.918  0.0861  0.2343  0.1916
25836W        W26700   6.997  12.680   5.515 -0.2803 -0.3412  0.1733
25837W        W26701  12.096  17.145  15.295  0.2443  0.2126  0.0707
25838W        W26702  16.725   2.166  23.494 -0.2034  0.2515 -0.2894
25839W        W26703  22.389   6.406   4.881 -0.0572  0.0568  0.2448
25840W        W26704   1.539   9.220   1.644  0.2061 -0.1082  0.1242
25841W        W26705  17.199   7.270   4.414 -0.0386 -0.0548 -0.1360
25842W        W26706  19.504  24.827   1.618  0.0652 -0.0917  0.4017
25843W        W26707   8.106   4.009  27.967  0.2245  0.2876 -0.0619
25844W        W26708  19.278   5.863  28.568  0.0623  0.0029 -0.2297
25845W        W26709  16.726   1.076   2.411  0.0762  0.0241  0.0953
25846W        W26710  17.554   2.443   3.197  0.1899  0.1117 -0.0198
25847W        W26711  26.005  26.225   4.159  0.1240  0.1259 -0.0339
25848W        W26712  15.785   9.391   2.554  0.0885 -0.0980  0.1652
25849W        W26713  27.501  20.601  24.933 -0.0271 -0.0842 -0.2804
25850W        W26714   6.267  12.434   1.151 -0.1363  0.3106 -0.1019
25851W        W26715  14.346   5.344  26.705 -0.3054 -0.3003 -0.1706
25852W        W26716   9.899   9.634   0.916  0.1458 -0.0419 -0.1601
25853W        W26717  27.694   4.114  23.867  0.3165  0.0699 -0.1735
25854W        W26718   2.657  22.977   1.299 -0.2191  0.1009 -0.0970
25855W        W26719  11.756   0.515  17.363  0.1476 -0.3252 -0.1596
25856W        W26720  14.641  28.947   4.602 -0.0519  0.0809  0.0556
25857W        W26721  28.500   1.329  22.766 -0.0044  0.1582 -0.0154
25858W        W26722   6.115  29.046   1.675 -0.0491  0.3866 -0.1647
25859W        W26723  23.131   0.853  22.912 -0.2624 -0.2946  0.0423
25860W        W26724  20.713   1.542  17.661  0.1209 -0.1041  0.1816
25861W        W26725  19.424   5.011  24.442 -0.0169  0.0794  0.1445
25862W        W26726  12.320  22.024   2.051  0.1504  0.0984 -0.1413
25863W        W26727   3.843  18.042  10.794  0.1812  0.1473  0.0917
25864W        W26728  10.231  22.381   6.712  0.3098  0.3274 -0.6910
25865W        W26729   3.492  17.731  14.876  0.0011 -0.0892 -0.0062
25866W        W26730   3.943  28.548  12.889  0.1180  0.0518  0.0388
25867W        W26731   8.643   7.297  14.092  0.3788 -0.0749 -0.3482
25868W        W26732  14.299  21.952  21.080 -0.1455 -0.2988 -0.0083
25869W        W26733   4.540   3.763  27.252 -0.1367 -0.0208 -0.0076
25870W        W26734   1.848  25.935   9.195 -0.2783  0.1048  0.1398
25871W        W26735   3.851   5.370  25.823 -0.0153  0.1022 -0.0976
25872W        W26736   6.085  14.100  10.230  0.3043 -0.2338 -0.0540
25873W        W26737   4.268  25.422  28.871 -0.0476  0.1586 -0.1263
25874W        W26738   3.311  27.215  28.739  0.1138  0.2259  0.0898
25875W        W26739  22.667  19.389   0.263 -0.0754 -0.0830  0.5275
25876W        W26740   5.851  26.892   1.002 -0.0062 -0.2218  0.1094
25877W        W26741   8.590  12.283  19.218 -0.2067  0.2245 -0.0799
25878W        W26742  18.690  22.915  20.281 -0.0187  0.0021 -0.3024
25879W        W26743  25.464   2.918   8.913  0.0699  0.3121  0.0455
25880W        W26744  13.401  29.071  14.931 -0.1558 -0.2973  0.1833
25881W        W26745   6.265  28.911  22.456  0.0975  0.3007 -0.1041
25882W        W26746   4.328  20.483   7.493  0.1278 -0.1067 -0.1512
25883W        W26747  13.088  15.597   3.393 -0.0704  0.1005  0.0643
25884W        W26748  13.070  26.976  20.934  0.0110  0.2757 -0.0585
25885W        W26749   2.519  28.708   4.899 -0.0891 -0.0916  0.1728
25886W        W26750  14.147   0.409   1.323  0.3844  0.0195 -0.3329
25887W        W26751  19.307  23.589  26.585  0.0243 -0.0027  0.0025
25888W        W26752  15.963  11.607   8.749 -0.2069 -0.1494 -0.2483
25889W        W26753  18.739  27.461  14.340  0.0678 -0.1504  0.1823
25890W        W26754   2.280  21.822   9.011 -0.0178  0.1105 -0.1306
25891W        W26755  23.285  19.556  27.397 -0.0956  0.4002  0.0314
25892W        W26756  21.344  14.403   4.682 -0.2765  0.2063  0.1011
25893W        W26757  24.767  20.731  24.016  0.0595  0.1964 -0.0874
25894W        W26758  25.733  27.948   5.567  0.0029  0.3309  0.1371
25895W        W26759   8.031   9.978   3.051 -0.1184 -0.0448  0.0921
25896W        W26760  21.318  24.386  16.420 -0.0791  0.1593 -0.1121
25897W        W26761   2.920   9.327  11.424  0.3152 -0.0532  0.0937
25898W        W26762   5.385  17.540   9.744  0.0895  0.1042  0.2952
25899W        W26763  26.257  20.591  19.670 -0.2812 -0.1662 -0.0732
25900W        W26764   4.750  28.967   9.472  0.2462  0.2526  0.3935
25901W        W26765  28.858  21.552  12.988  0.3513  0.1394  0.2584
25902W        W26766  22.705   9.891   5.471 -0.1184 -0.1502  0.0573
25903W        W26767   7.948   4.063  29.121  0.0375  0.3549 -0.0515
25904W        W26768  19.374  29.120   3.382  0.1530 -0.1899  0.3349
25905W        W26769  15.109  25.590   0.675 -0.1849 -0.1720 -0.4450
25906W        W26770  18.548   8.396   4.959  0.3435 -0.2218  0.2153
25907W        W26771   5.927   5.691  14.545  0.4111 -0.0719 -0.0052
25908W        W26772   4.210   8.036  24.473  0.0104 -0.0737  0.2029
25909W        W26773   3.351  22.151   6.539  0.0497 -0.3443 -0.0262
25910W        W26774   3.098   1.250   9.002 -0.3243  0.2408 -0.1909
25911W        W26775   5.722   1.389   8.634 -0.0939 -0.2352 -0.0866
25912W        W26776   4.847  19.202   1.894  0.4927  0.1373  0.3190
25913W        W26777   1.345   7.862  13.439  0.0042  0.0684  0.0768
25914W        W26778  23.883  16.565  18.528 -0.0127  0.1775 -0.1038
25915W        W26779  23.632   2.581  17.919  0.1007  0.2977 -0.0799
25916W        W26780  19.276  12.523   6.632  0.1979 -0.0844  0.2493
25917W        W26781   5.708  22.789   6.509 -0.1469 -0.1354  0.0547
25918W        W26782  28.823   6.226  16.082  0.0784 -0.3254  0.0380
25919W        W26783  23.143   4.415   0.770  0.0012 -0.2792 -0.1871
25920W        W26784  23.347  16.232   4.883  0.0131  0.0100  0.1141
25921W        W26785  11.935  26.799   8.595 -0.2760  0.0243 -0.0683
25922W        W26786   2.511  24.981   4.968  0.2824 -0.0888  0.3170
25923W        W26787   5.184  23.019   1.803 -0.0255  0.1528 -0.1425
25924W        W26788  13.161   6.868   0.331  0.2239 -0.2958  0.2648
25925W        W26789   1.447   0.669  21.453  0.0712  0.0838  0.0711
25926W        W26790  21.776   6.061  28.327  0.0668  0.1038  0.1559
25927W        W26791   5.096  14.096   4.769  0.1496  0.0943 -0.2722
25928W        W26792   3.071  28.614  20.995 -0.0054  0.2493 -0.1058
25929W        W26793   4.321   2.472  13.793  0.2519  0.1144  0.1044
25930W        W26794  14.545  20.443   0.763 -0.0158 -0.0998 -0.0328
25931W        W26795   7.786  15.001  23.924 -0.2180 -0.3708 -0.0462
25932W        W26796  19.884  28.295   5.054 -0.0561  0.2300 -0.0280
25933W        W26797  13.737   5.380  22.761 -0.0291  0.1822 -0.0973
25934W        W26798   1.926  25.038  10.392 -0.4992  0.0978 -0.0409
25935W        W26799  10.965   4.755  22.994 -0.0977  0.0765 -0.1207
25936W        W26800  25.582   5.468   8.231 -0.2314  0.0534 -0.2847
25937W        W26801  15.149  15.099   0.843 -0.4610 -0.3248  0.1509
25938W        W26802   8.722  13.650   7.786 -0.0228 -0.2068  0.1330
25939W        W26803  22.241   5.955  18.065 -0.0031 -0.2796  0.0333
25940W        W26804  11.459  20.213  18.700 -0.3718  0.2231  0.1638
25941W        W26805  18.083   2.930  13.119 -0.4551 -0.2317  0.1578
25942W        W26806  21.947   1.495  21.115  0.2246 -0.1261 -0.0073
25943W        W26807   2.421  10.617  28.953 -0.0356  0.1310  0.2046
25944W        W26808  17.973  25.717   2.361  0.0715 -0.3060  0.0243
25945W        W26809  15.968   6.618  24.444  0.0151 -0.1221 -0.0974
25946W        W26810   7.963  23.065  28.181  0.0831  0.1200 -0.1360
25947W        W26811  20.278   3.103   5.038 -0.0001 -0.0489  0.0560
25948W        W26812  22.615   6.026  15.776 -0.0550 -0.1738 -0.1628
25949W        W26813   7.538   5.763   3.308  0.0537 -0.1838 -0.2726
25950W        W26814   4.095  20.062  28.435 -0.1172 -0.1623  0.0836
25951W        W26815   2.368  15.869  11.066  0.0702  0.2803  0.0500
25952W        W26816  26.424  12.113   4.571  0.1677  0.0572  0.1286
25953W        W26817   5.322  23.868   5.118  0.0970  0.0139  0.2165
25954W        W26818  23.617   6.942   9.510  0.1076  0.1315 -0.1997
25955W        W26819  14.154   2.542   0.823  0.1384 -0.2468 -0.3832
25956W        W26820   7.226   4.152  23.543  0.0253 -0.3239 -0.2165
25957W        W26821  27.881   3.211  14.189 -0.3403  0.0699 -0.0405
25958W        W26822  16.721  23.489  20.975 -0.1610 -0.2624 -0.2687
25959W        W26823  20.818  10.435  14.379  0.1042  0.0624  0.0110
25960W        W26824  14.582   4.983  23.632  0.1581  0.1316  0.0145
25961W        W26825  18.795   8.285   5.366  0.1932  0.0282 -0.1579
25962W        W26826   6.043   8.180   8.711  0.0001 -0.0972 -0.0016
25963W        W26827   0.622   1.390  27.892 -0.0442  0.1055 -0.2517
25964W        W26828   2.748  16.633   4.024 -0.1041 -0.2094  0.1095
25965W        W26829  12.952   2.189   4.736  0.1473  0.1563 -0.3266
25966W        W26830  16.253   2.223  18.658 -0.0910 -0.2714  0.1757
25967W        W26831   4.833  18.286  27.693 -0.0674  0.2956 -0.0903
25968W        W26832   5.977   6.404  23.798 -0.3781  0.0499 -0.0245
25969W        W26833  12.118  18.797  27.673 -0.3575 -0.0727  0.1993
25970W        W26834  16.143  10.236  24.261 -0.2567  0.1210  0.0426
25971W        W26835   6.314  22.529  24.847  0.1107  0.0305 -0.2722
25972W        W26836  14.065   5.722   2.041 -0.1089  0.1750 -0.2116
25973W        W26837  27.022  28.737  28.202 -0.3940 -0.1976 -0.2335
25974W        W26838  18.993  29.036  26.769 -0.4580 -0.1000 -0.0430
25975W        W26839  16.133  17.226   7.519  0.1795  0.0066 -0.0056
25976W        W26840   5.044  14.430  13.063 -0.3516  0.0177  0.2011
25977W        W26841   7.360  12.160  28.450  0.0893 -0.1298  0.1258
25978W        W26842  18.157  24.663   7.566  0.0484 -0.2089 -0.2577
25979W        W26843  27.914   7.176   3.398 -0.0118 -0.0747 -0.3767
25980W        W26844   7.418  11.585  10.393  0.1713 -0.0709  0.1683
25981W        W26845  28.140  19.537  22.919  0.1037  0.0095  0.0428
25982W        W26846  27.172   1.967   2.654 -0.1318 -0.1233  0.0069
25983W        W26847  16.924  26.555  18.066 -0.0737  0.0365 -0.2834
25984W        W26848   7.052   6.189  22.745  0.0502  0.2580  0.0031
25985W        W26849   8.377  11.974   0.464  0.1595  0.2425 -0.2177
25986W        W26850   9.429  13.133  19.837  0.1615  0.0667  0.2030
25987W        W26851  10.826   4.365  18.673  0.2531 -0.3584 -0.0630
25988W        W26852  18.540  18.642  10.261  0.0654  0.1887 -0.3783
25989W        W26853   5.462  18.593   6.259 -0.3389  0.0444 -0.2036
25990W        W26854  11.553  10.732  25.103  0.5829  0.0920 -0.2562
25991W        W26855  21.510   5.965   0.915  0.0697  0.0876  0.1985
25992W        W26856   8.113   5.968   7.001  0.0691  0.0051  0.0211
25993W        W26857   0.429  16.801  18.605  0.0001 -0.1976  0.0039
25994W        W26858   3.787  26.611  11.025 -0.0987  0.2577  0.2439
25995W        W26859  25.795  20.385  26.361  0.3264  0.2028  0.2597
25996W        W26860  28.303  15.835  17.725 -0.1087 -0.1091 -0.1611
25997W        W26861   6.884  25.480  19.199  0.1280  0.1858 -0.0589
25998W        W26862   8.867  25.843  28.193  0.1289 -0.0026  0.3217
25999W        W26863  23.737  12.467  16.036  0.0547 -0.0483  0.2837
26000W        W26864  16.559  23.647  11.604 -0.0883  0.2551 -0.0951
26001W        W26865  26.777   8.833  17.650  0.0048 -0.0783  0.2289
26002W        W26866  17.806  26.559   7.059 -0.0893 -0.1593 -0.2471
26003W        W26867  16.175  28.727  25.821  0.0195 -0.0876 -0.1779
26004W        W26868   7.682  17.069   4.195  0.2063 -0.0964  0.1895
26005W        W26869  13.500  12.793  11.110  0.0956 -0.2710  0.1143
26006W        W26870  15.823  24.094  21.194  0.1126  0.0041  0.1075
26007W        W26871  13.744  26.470  27.968 -0.0208  0.0623  0.0975
26008W        W26872  24.710   3.347   9.760  0.3308 -0.1493 -0.2601
26009W        W26873  19.443  14.016  14.512  0.1757  0.2945  0.0818
26010W        W26874   2.043  23.259  16.661 -0.1686  0.0585  0.1287
26011W        W26875   3.890   8.704   1.948 -0.0457  0.0103  0.1337
26012W        W26876  15.661   2.277  27.766  0.0031 -0.1624  0.2327
26013W        W26877  11.176   7.519   8.983  0.2240 -0.1619 -0.1109
26014W        W26878  16.826   7.691  20.866 -0.2394  0.1485 -0.0524
26015W        W26879  27.718  18.788   0.230 -0.0300  0.1482 -0.0785
26016W        W26880   6.307   0.241  12.807  0.1904  0.0343 -0.2277
26017W        W26881  13.477   4.566  28.916  0.0617 -0.0582  0.0453
26018W        W26882   0.365  23.082  17.560 -0.1459  0.1266  0.3882
26019W        W26883  28.114  25.497   8.349 -0.0265 -0.5878 -0.2199
26020W        W26884  21.219  26.526  26.712 -0.1805  0.1804 -0.1253
26021W        W26885  16.558  25.171  27.670  0.3192  0.0654  0.4301
26022W        W26886  24.424  13.667  18.415 -0.2432  0.1477 -0.1041
26023W        W26887   8.934  27.860  16.818  0.2376  0.0098 -0.0608
26024W        W26888  16.641  12.082  27.211  0.1716 -0.1102  0.2318
26025W        W26889   5.663   8.069  24.404  0.1777 -0.0474 -0.4647
26026W        W26890  13.846  10.247  25.747  0.0901  0.1022  0.0061
26027W        W26891  19.709   6.091  17.181  0.1118  0.0114  0.1597
26028W        W26892  28.482   5.647  10.615  0.1788  0.2264  0.0434
26029W        W26893  25.119   3.244  26.046  0.0306 -0.0263 -0.4763
26030W        W26894   8.314  28.211   7.907  0.2150 -0.1975 -0.1365
26031W        W26895   4.375   6.701  21.650  0.1101  0.0923 -0.1420
26032W        W26896   8.111  28.803  23.414  0.2454 -0.1300 -0.2221
26033W        W26897  11.293   2.986   1.433  0.2489  0.2128 -0.0933
26034W        W26898   3.272  12.505  28.071  0.0192 -0.1400 -0.0378
26035W        W26899   7.794  26.196  18.159 -0.0304 -0.3893 -0.0891
26036W        W26900   4.776   2.934   2.307 -0.1714  0.2712  0.0241
26037W        W26901  28.640  10.123  14.086  0.0301 -0.2186  0.0166
26038W        W26902   7.504   5.768   3.827  0.0133 -0.0939  0.0413
26039W        W26903   7.268   6.065  28.175  0.3121 -0.1388  0.0532
26040W        W26904  17.276  26.545  26.680  0.1407  0.0789  0.0092
26041W        W26905   3.916  10.528  19.981 -0.1219 -0.0441 -0.2071
26042W        W26906   8.685  15.655  24.945 -0.0437 -0.1726  0.1701
26043W        W26907   7.030  15.051  12.365  0.1439  0.1429  0.0599
26044W        W26908  15.530  24.787   0.810 -0.0241  0.0458 -0.2187
26045W        W26909   2.257   1.742   4.029 -0.2585  0.1387  0.0079
26046W        W26910  26.062  21.325  15.015 -0.1937 -0.1869 -0.1296
26047W        W26911  22.590   8.518  16.479  0.0571 -0.1681 -0.1906
26048W        W26912  11.609  10.709   7.144 -0.2136  0.0557 -0.2857
26049W        W26913  13.636  25.351   4.752  0.0029 -0.1357  0.3235
26050W        W26914  16.963  19.309  11.842 -0.1842  0.4985 -0.1785
26051W        W26915  21.470   3.211   6.608  0.2816 -0.0202  0.1661
26052W        W26916   2.662   0.576  13.347  0.1341 -0.2695 -0.2119
26053W        W26917   8.619  25.537   5.249 -0.0095  0.0621  0.0127
26054W        W26918  22.147  26.792  10.458  0.4104  0.0147 -0.0829
26055W        W26919   9.050  19.628  22.295  0.0206  0.2681 -0.1819
26056W        W26920   9.929  12.271   9.485 -0.1545 -0.2938  0.0258
26057W        W26921   2.759   5.190  16.933  0.2616  0.2508 -0.1210
26058W        W26922  25.493   2.895   7.887 -0.0207  0.1603  0.0539
26059W        W26923   2.424   5.072   8.251 -0.1077  0.2190  0.1315
26060W        W26924  14.563   8.606  19.821 -0.0213  0.1118 -0.1242
26061W        W26925   7.098   5.395  16.035 -0.0746  0.1248 -0.0266
26062W        W26926  17.984  28.088   7.194 -0.2731 -0.2334 -0.0441
26063W        W26927  12.655  21.933  14.118 -0.1463  0.0780 -0.2927
26064W        W26928   1.570   0.613  15.105 -0.0544  0.1853  0.1072
26065W        W26929   7.249  27.013  12.326 -0.2717 -0.1023  0.0843
26066W        W26930   1.648  22.406   2.817 -0.0661  0.0736  0.1190
26067W        W26931   3.762   9.207   1.455  0.0341 -0.0701  0.0338
26068W        W26932  10.012  20.875   3.228  0.3191  0.1403  0.1274
26069W        W26933  25.679   8.852   9.104 -0.0855  0.1699  0.2638
26070W        W26934  27.440   6.093  14.435  0.4192 -0.3509 -0.0838
26071W        W26935   3.441   4.473   0.481 -0.2899  0.2208  0.1377
26072W        W26936  28.473  17.917   1.029 -0.0433  0.1896 -0.1378
26073W        W26937  14.416  25.588  12.577 -0.0157 -0.0824  0.0397
26074W        W26938   1.291  14.389  14.810 -0.3201 -0.0490  0.1667
26075W        W26939  21.721   9.162  11.115 -0.1006  0.0192  0.0915
26076W        W26940   6.333  18.878   0.007  0.0830  0.0287  0.2263
26077W        W26941  24.618   7.674  28.371  0.0054  0.0646 -0.0344
26078W        W26942  13.058  20.041   3.410 -0.0029 -0.2221  0.0080
26079W        W26943   2.962  21.684  23.042  0.1342  0.1350  0.2363
26080W        W26944   4.477   2.023  19.315 -0.0521  0.0718 -0.3242
26081W        W26945   3.829  19.452  28.742  0.1150  0.1307 -0.0190
26082W        W26946  12.188   1.634   2.741  0.1853 -0.0689  0.0693
26083W        W26947  26.151   4.699   5.378  0.2249  0.0359 -0.0305
26084W        W26948   0.981  26.892   0.823  0.2916 -0.1080 -0.0988
26085W        W26949   5.510  11.659  28.313  0.2116 -0.1803  0.0424
26086W        W26950   6.033   0.362   5.192  0.2017 -0.2027 -0.3503
26087W        W26951  19.869  19.598  18.262  0.0666 -0.0260  0.0625
26088W        W26952  28.765   0.871  14.944  0.0474  0.0918 -0.2330
26089W        W26953   6.218  15.859   7.538  0.0396  0.0342 -0.1204
26090W        W26954  24.775  11.077  29.095  0.1885  0.2323  0.0961
26091W        W26955   2.003  27.108   3.091 -0.0524 -0.0403 -0.0853
26092W        W26956  18.869   1.569   6.898  0.0659 -0.0198 -0.1564
26093W        W26957  18.454   0.453  18.408  0.2491  0.1432 -0.0505
26094W        W26958  25.115  24.587   5.961  0.3904  0.1637  0.2667
26095W        W26959   7.817   2.104   1.330 -0.2445  0.0478 -0.1787
26096W        W26960   0.505  13.475  24.229 -0.0195 -0.0072  0.1300
26097W        W26961   0.909  25.664  23.032  0.0824  0.0682  0.1721
26098W        W26962   0.330  29.119  10.062 -0.1445 -0.0074 -0.2112
26099W        W26963   4.202  16.391  24.699  0.0298  0.1111 -0.0043
26100W        W26964   6.889  22.790   1.582  0.0707  0.1417  0.0096
26101W        W26965  21.306  23.425  24.987 -0.3532  0.0487  0.0994
26102W        W26966   3.316  25.769   8.569  0.2591  0.1603  0.0258
26103W        W26967  24.399  21.711  11.757 -0.2172  0.0910 -0.0639
26104W        W26968  21.508  12.492   0.066 -0.3020 -0.2226  0.1764
26105W        W26969  21.339  21.823  11.920 -0.2039 -0.3651 -0.0114
26106W        W26970   9.576   3.006  10.154 -0.0148 -0.0402 -0.0390
26107W        W26971   7.470   0.131  27.349 -0.2748  0.0146  0.2292
26108W        W26972   9.885   9.458  27.927 -0.0225  0.0001 -0.0296
26109W        W26973   4.600  26.891  22.133 -0.0558 -0.0964  0.3060
26110W        W26974   2.967  10.479  28.875  0.0044  0.0285  0.0621
26111W        W26975   2.536  24.732   7.194  0.0194  0.2486  0.2812
26112W        W26976  11.324   1.268  16.158 -0.2056  0.2128  0.0027
26113W        W26977  10.716  15.763  26.614 -0.0334  0.1477  0.0713
26114W        W26978   2.967  21.936   4.765 -0.1335  0.1197  0.2064
26115W        W26979  22.232   8.827   1.812 -0.1093  0.0005  0.2080
26116W        W26980   6.631  28.928   1.206 -0.1972  0.2382  0.0294
26117W        W26981   6.018  23.587   4.016 -0.3164  0.0550  0.1506
26118W        W26982   6.920  22.303  26.807  0.0046 -0.0393  0.0536
26119W        W26983  27.660   7.134  18.733 -0.1365  0.0230 -0.0447
26120W        W26984  14.763   6.054   4.365 -0.0338 -0.0934  0.0757
26121W        W26985  17.686  26.368   2.076 -0.0744 -0.1372  0.1631
26122W        W26986  20.744  28.118  12.063 -0.0709 -0.0645  0.0469
26123W        W26987   6.913   2.787  25.525  0.1366  0.2088  0.0135
26124W        W26988   6.660  13.838   8.310  0.1878 -0.1648  0.1111
26125W        W26989  19.435  15.983  24.214  0.1355  0.0629 -0.2718
26126W        W26990   5.275  15.220   0.931  0.0853  0.1014  0.2104
26127W        W26991   2.823  26.803   4.661  0.1184  0.2441 -0.0681
26128W        W26992  11.055   5.003   5.863  0.0585 -0.2117  0.0598
26129W        W26993   1.727   5.336   9.595  0.0706  0.1581 -0.2691
26130W        W26994  23.432   1.408  23.634  0.1940 -0.0969 -0.1601
26131W        W26995  25.163  24.643  13.842  0.0299 -0.2190  0.1868
26132W        W26996  18.012  28.037   1.535  0.5954 -0.1749  0.1013
26133W        W26997  14.430  15.100   8.267  0.1372 -0.3971 -0.3972
26134W        W26998  11.044  10.377  11.856  0.0492 -0.1851 -0.0098
26135W        W26999   0.032  11.666   8.238  0.1985 -0.1646 -0.3887
26136W        W27000  19.978  26.861  23.035 -0.2041 -0.1049 -0.4101
26137W        W27001   5.276  11.737  17.252  0.4180  0.2678  0.2435
26138W        W27002   0.513   1.826  14.176  0.1635  0.2843 -0.5411
26139W        W27003   8.129  21.313   4.040 -0.0405 -0.0771  0.1338
26140W        W27004   7.702  25.165  21.442 -0.1623  0.1700  0.2944
26141W        W27005   8.981   1.416   0.156  0.2907  0.1440  0.2229
26142W        W27006  23.671  18.996   5.461 -0.0653 -0.0323 -0.0369
26143W        W27007  23.663   2.170  26.246 -0.0293 -0.0606  0.0459
26144W        W27008  10.860  23.337   6.867  0.2989 -0.2402 -0.0355
26145W        W27009   8.888   1.943  28.816 -0.2158 -0.0649 -0.1793
26146W        W27010  27.968  12.520   4.175 -0.2366  0.0811  0.1924
26147W        W27011   7.042   5.084  12.886 -0.0856 -0.2569  0.1858
26148W        W27012   5.590  26.661   6.826 -0.2543 -0.2608 -0.0245
26149W        W27013  10.769  29.065  24.586 -0.0793 -0.0748 -0.0543
26150W        W27014   9.031   7.102  11.181 -0.1684  0.0200  0.0224
26151W        W27015  10.690  26.713   8.404  0.1911 -0.1142 -0.1125
26152W        W27016  21.630   4.397   5.778 -0.1209 -0.0952  0.1095
26153W        W27017  29.084   0.307   4.312  0.0467  0.2751 -0.0753
26154W        W27018   0.061   6.656  11.860 -0.0243  0.0059  0.0089
26155W        W27019  28.751   0.042  22.663 -0.0545 -0.0145 -0.3363
26156W        W27020  24.160   7.536  14.782  0.3134  0.0403 -0.1144
26157W        W27021  16.779   0.351   6.756 -0.1136  0.0571 -0.1061
26158W        W27022  26.781   3.781  12.054 -0.0868 -0.3594  0.3576
26159W        W27023   3.578  11.812  23.261  0.2884 -0.0193 -0.0141
26160W        W27024   3.719   4.422   4.751 -0.1505 -0.0485 -0.0944
26161W        W27025  12.823   9.702  18.997 -0.2220 -0.0351 -0.0854
26162W        W27026   8.724   4.035  15.879  0.1251  0.1171 -0.3302
26163W        W27027  18.619   2.641  28.190 -0.2154  0.2067  0.0143
26164W        W27028   0.882   7.636   1.262  0.1597  0.2910 -0.2209
26165W        W27029   5.658   3.439  11.573  0.3123  0.1544 -0.0797
26166W        W27030  17.822  14.680  17.725  0.1926  0.2690  0.0897
26167W        W27031  18.360   7.746  26.370 -0.2936 -0.1247 -0.2155
26168W        W27032  24.408   5.961  23.210 -0.0378  0.0746 -0.1915
26169W        W27033  29.085   3.581  15.116  0.2057 -0.1268  0.1078
26170W        W27034  26.305  18.489  26.032 -0.1605 -0.1537 -0.0571
26171W        W27035  19.715   7.855  22.961 -0.1323 -0.1825 -0.1498
26172W        W27036   5.028  14.481  18.878 -0.1931 -0.2785  0.1541
26173W        W27037  13.393  15.021  16.745 -0.1146  0.3069  0.0237
26174W        W27038   7.785  10.065  27.927 -0.0846  0.0029 -0.0480
26175W        W27039   7.944   1.103   0.388  0.1299  0.2128  0.2834
26176W        W27040  26.104   0.181  18.740 -0.4031  0.3904 -0.2959
26177W        W27041  18.598  24.388  11.894 -0.0817 -0.0305 -0.0816
26178W        W27042  22.708   7.824   7.435  0.1941  0.1486  0.0525
26179W        W27043  20.619  19.885   4.112  0.1831 -0.0007 -0.0990
26180W        W27044   8.099  19.817   7.304 -0.2235  0.1631  0.0412
26181W        W27045   4.736  28.600   3.789 -0.0627  0.1074 -0.0354
26182W        W27046   0.192   4.834  17.246  0.1825  0.0386  0.0582
26183W        W27047   1.472  20.021  13.610 -0.0147 -0.0418  0.0059
26184W        W27048   2.368  24.930  26.484  0.0222  0.1699 -0.2831
26185W        W27049  24.460   6.873  24.959 -0.0268  0.0634 -0.1032
26186W        W27050   5.855  27.325   1.989 -0.1715  0.3691 -0.4179
26187W        W27051  22.396   4.497   9.751  0.0789 -0.1337  0.0019
26188W        W27052  17.321  18.514  19.684  0.2399  0.0706 -0.2757
26189W        W27053  15.986  11.065  12.998 -0.1537  0.0330 -0.2567
26190W        W27054   9.449   4.232   0.425 -0.2102 -0.1376 -0.1778
26191W        W27055   0.877  27.917   3.891  0.2396 -0.1082 -0.0718
26192W        W27056  22.990  26.732   4.925 -0.4020  0.1977  0.2661
26193W        W27057   2.256  22.924  11.170 -0.0825 -0.1501  0.0331
26194W        W27058   0.281  20.496  14.589  0.2266  0.2835  0.2036
26195W        W27059  14.686  16.278  20.957 -0.2656  0.1023 -0.1623
26196W        W27060   4.250  27.022  26.389 -0.1293  0.3044  0.4376
26197W        W27061  15.386   3.498   4.781  0.1733 -0.1205  0.3101
26198W        W27062  17.021   6.282  28.193 -0.2003  0.3457  0.0436
26199W        W27063   3.593  11.694   8.508 -0.0287  0.1762  0.2443
26200W        W27064  16.599  26.346  25.437  0.0291  0.1226 -0.3288
26201W        W27065  21.170   6.853   2.066 -0.1495  0.4300 -0.0806
26202W        W27066  29.036   1.371  26.593  0.1255  0.5322 -0.3018
26203W        W27067  16.532  16.403   1.024  0.0583  0.3265 -0.2820
26204W        W27068  22.905  17.666   6.249  0.3191  0.0431 -0.1556
26205W        W27069   1.967   2.167  21.147  0.0488 -0.1410  0.1303
26206W        W27070  12.997   8.032  15.927  0.2853  0.2380 -0.1758
26207W        W27071   0.411  25.034  19.254  0.0033 -0.0591 -0.0395
26208W        W27072   7.590  15.895   6.753 -0.1273 -0.4611 -0.0288
26209W        W27073  14.188   1.043   0.572  0.0992  0.0357 -0.2183
26210W        W27074   1.296  23.924   8.133 -0.1158  0.2406 -0.1290
26211W        W27075   5.957  23.257   1.392  0.0479  0.0398 -0.1675
26212W        W27076  17.542  26.760  12.211  0.0515 -0.0018  0.1564
26213W        W27077   3.735  26.406  19.512 -0.0097 -0.4752  0.1758
26214W        W27078  19.303  16.859   4.262 -0.0714 -0.0567  0.2849
26215W        W27079  23.196  12.303   9.305 -0.0851 -0.0339 -0.1524
26216W        W27080   6.996   1.306  14.465 -0.0451  0.0766 -0.2123
26217W        W27081  13.912  10.666  25.382 -0.2028  0.0764 -0.3172
26218W        W27082  15.482   1.965   6.837  0.0035  0.1567 -0.0488
26219W        W27083   4.790   4.400   9.358 -0.0327  0.3186 -0.0783
26220W        W27084   3.574  18.905  10.385  0.1393 -0.0222 -0.1882
26221W        W27085  26.644   3.717  23.155  0.2478  0.2239  0.0656
26222W        W27086   7.533  19.746   8.412 -0.1226 -0.1392 -0.4152
26223W        W27087   8.191  10.941   3.131  0.1353 -0.3056 -0.2335
26224W        W27088  25.334  26.827   6.236 -0.0766 -0.2421  0.1787
26225W        W27089   8.953   1.103  14.198 -0.0576 -0.2779 -0.0429
26226W        W27090  24.027   5.633   9.573 -0.2085 -0.3072 -0.0315
26227W        W27091   0.780   1.884  17.229  0.0490 -0.0582  0.2409
26228W        W27092  23.908   2.265   7.641  0.2526 -0.1181 -0.1482
26229W        W27093   6.697  12.758   2.057  0.1715 -0.1571 -0.1155
26230W        W27094   4.905  22.898   6.137 -0.3227 -0.0084 -0.2419
26231W        W27095   5.848   2.752  23.632 -0.2936  0.0086 -0.1001
26232W        W27096  21.056   6.780  26.961 -0.0092  0.1547  0.6450
26233W        W27097  20.571  19.538  19.851  0.1353  0.0093 -0.1813
26234W        W27098  10.503   0.154  17.427  0.1421 -0.0048  0.0199
26235W        W27099  17.991  29.125   9.225 -0.1770 -0.1828  0.2266
26236W        W27100   9.797   7.813   5.498  0.1758 -0.1028 -0.0830
26237W        W27101  16.233   0.717   2.917 -0.0017 -0.3811  0.0702
26238W        W27102   5.512  14.743  13.732 -0.1665 -0.0199  0.2009
26239W        W27103   2.545   8.559   9.252  0.2111 -0.3174  0.1619
26240W        W27104  21.940  10.783  12.511  0.1798 -0.1473 -0.6116
26241W        W27105   1.850   8.554  27.707  0.1651  0.0190  0.1567
26242W        W27106  22.834  10.608   9.879  0.2932  0.1981  0.0119
26243W        W27107  13.743  13.575   8.383 -0.2697 -0.0542 -0.0909
26244W        W27108  13.816  10.227  17.311  0.3311  0.0202 -0.2532
26245W        W27109   8.570  28.028   0.447 -0.0688 -0.0962 -0.0361
26246W        W27110   5.868   9.495  19.849 -0.2818  0.2451  0.2149
26247W        W27111  21.478   1.813  19.319 -0.1583  0.1594  0.0062
26248W        W27112   8.615  13.502   1.691 -0.3570 -0.1829 -0.0777
26249W        W27113   9.602  12.418  22.385 -0.2156  0.0263 -0.0169
26250W        W27114   0.066  16.051   7.437  0.2062  0.2811  0.0957
26251W        W27115   7.348   0.026  26.891  0.2487 -0.2578 -0.1246
26252W        W27116  19.210   1.801  21.691  0.6483 -0.1351 -0.0359
26253W        W27117   7.788   2.430  13.901 -0.0330  0.0421  0.0311
26254W        W27118   6.655  17.016  26.401  0.0728  0.1381 -0.0758
26255W        W27119   7.910  12.567  15.962  0.0020 -0.1444 -0.1277
26256W        W27120   5.874  13.376   4.929  0.1530 -0.1273  0.1747
26257W        W27121  22.322  26.833  27.069 -0.0426  0.2305  0.3321
26258W        W27122   4.744  16.984  23.327  0.2061  0.0188  0.1000
26259W        W27123   9.212   8.323  25.841 -0.0778  0.2048 -0.0953
26260W        W27124   9.147   1.321  16.727 -0.3293 -0.1807  0.0083
26261W        W27125   5.601   3.225   8.857  0.0253  0.1480 -0.1738
26262W        W27126  23.504  13.718  19.785 -0.0275 -0.0532  0.0560
26263W        W27127  23.395   2.455   6.744  0.0478 -0.1207 -0.3852
26264W        W27128   9.747   0.038  10.647 -0.2446 -0.1686 -0.2598
26265W        W27129  10.685   5.323   0.042  0.3774 -0.2059 -0.3280
26266W        W27130  15.164   3.486  12.760  0.0550  0.0515  0.1270
26267W        W27131  27.470   2.168  17.302 -0.1774 -0.0613 -0.0685
26268W        W27132  22.473   2.370  24.833  0.0516  0.2028  0.3198
26269W        W27133  26.182  26.889  26.249 -0.1087 -0.0843 -0.0363
26270W        W27134  26.905  28.137   5.801  0.0628 -0.1864 -0.0231
26271W        W27135  16.013  26.027  24.926  0.2962 -0.0019  0.1543
26272W        W27136  27.958  23.354   5.504 -0.0277  0.0657  0.0014
26273W        W27137   1.109  12.278   7.135  0.1074  0.1371  0.5603
26274W        W27138   8.265  19.680  21.325  0.1943  0.1092  0.0471
26275W        W27139  10.129   8.425  15.650  0.1870  0.0038  0.0854
26276W        W27140   5.364  11.504   3.173 -0.0856  0.1655  0.1433
26277W        W27141  19.990  29.130   4.055  0.1203  0.0059 -0.2568
26278W        W27142   7.885   1.519   9.131 -0.3100 -0.0310  0.0298
26279W        W27143   4.744   1.879   1.720 -0.1098 -0.2198 -0.1393
26280W        W27144   9.838  25.753  28.420 -0.0989  0.0760  0.2987
26281W        W27145  27.667  28.885  13.764 -0.2879 -0.1429 -0.2915
26282W        W27146  19.608  28.449  15.209 -0.1725  0.2577 -0.1644
26283W        W27147   7.725   5.492   8.813  0.0822 -0.0191  0.1588
26284W        W27148  15.230  25.100   6.441  0.0270 -0.1800 -0.0846
26285W        W27149  12.547   6.620  15.474 -0.2232  0.1781 -0.1902
26286W        W27150  24.464  15.730  17.192 -0.4017 -0.0179  0.1130
26287W        W27151  23.714  11.202  21.299 -0.1320  0.1823  0.2160
26288W        W27152  14.642   7.570  24.226  0.1749  0.1297  0.1699
26289W        W27153  11.846  25.085  22.978  0.0497 -0.1003 -0.1530
26290W        W27154   2.075   9.636  23.421  0.0393  0.2786 -0.5407
26291W        W27155   4.316   3.919  26.756 -0.1172 -0.1044  0.1585
26292W        W27156  20.136  12.273   2.664 -0.0436 -0.1526  0.1652
26293W        W27157  14.567  11.834  28.190  0.0498  0.0030  0.1796
26294W        W27158   6.672  14.293   1.061  0.0488  0.0723  0.3787
26295W        W27159  24.923  12.203   2.624 -0.0205 -0.1715  0.1527
26296W        W27160  17.567  17.429  14.985  0.1408 -0.3550 -0.1708
26297W        W27161  28.640   7.127  24.067  0.1555 -0.2033  0.0910
26298W        W27162  17.726   9.211   8.781  0.0883  0.0556 -0.0309
26299W        W27163  22.688  17.978  28.135  0.1995  0.0677 -0.1719
26300W        W27164  11.909  22.979   3.905  0.0380 -0.1959  0.2197
26301W        W27165   2.169   5.411   1.703 -0.0043 -0.0039 -0.1546
26302W        W27166  14.196  26.114   1.781  0.0573  0.0349  0.2782
26303W        W27167  22.272   9.941   9.496 -0.0363 -0.2047 -0.2046
26304W        W27168   5.027  11.534   9.185  0.2073  0.0228 -0.0319
26305W        W27169  28.796  23.967   4.522 -0.1983 -0.1302  0.3356
26306W        W27170  10.824  14.333  11.397  0.2243 -0.2689  0.2112
26307W        W27171   2.696  24.464  13.511  0.0621 -0.0384 -0.1427
26308W        W27172  12.131   8.185  17.025  0.0507  0.1229  0.0187
26309W        W27173  19.272  16.714   6.484 -0.1946  0.1894 -0.0978
26310W        W27174  21.389  13.903  27.331 -0.3554 -0.1730  0.0906
26311W        W27175  10.462  26.601  16.595 -0.1427 -0.3086  0.1105
26312W        W27176   8.839  16.259   5.009 -0.0659  0.0125 -0.4799
26313W        W27177   4.706   1.421  12.176 -0.1635 -0.1527  0.0574
26314W        W27178  16.271  15.128  15.140 -0.0054 -0.2062  0.0887
26315W        W27179  11.465   5.793  14.216 -0.1117 -0.1074  0.3636
26316W        W27180  27.967  23.099  12.617  0.0149  0.1469  0.4250
26317W        W27181  25.832  14.800   6.024 -0.2008 -0.1009  0.1871
26318W        W27182   0.297  17.855   1.604 -0.1155  0.0527  0.3136
26319W        W27183  15.833   4.926   7.988 -0.2124  0.0300 -0.3327
26320W        W27184  13.776   4.500  16.977 -0.1274 -0.2356 -0.0091
26321W        W27185  28.291   1.882   4.608  0.1541 -0.0483  0.1539
26322W        W27186  22.160  27.554  23.739 -0.2629  0.0723  0.0306
26323W        W27187   9.849   1.329  13.652  0.2279  0.0908  0.2282
26324W        W27188  26.953   8.872  13.200 -0.1478 -0.2086  0.4292
26325W        W27189   5.045  28.884   2.079 -0.0326  0.0138  0.0711
26326W        W27190  23.394  23.532  13.804  0.1131 -0.1514  0.0485
26327W        W27191  26.629  19.841  16.492  0.1344  0.0376  0.3449
26328W        W27192  11.290   2.758  27.026  0.0952 -0.0256  0.2534
26329W        W27193  16.940  19.038  12.264  0.0675 -0.0593  0.0966
26330W        W27194  16.138  12.086  11.981  0.1657  0.4009 -0.0956
26331W        W27195  10.225  19.137  22.603  0.1631 -0.1409  0.0415
26332W        W27196   2.362   4.775  16.853 -0.2091  0.2100 -0.1599
26333W        W27197  16.980  25.116  26.656 -0.0120  0.0874 -0.0176
26334W        W27198  12.756   0.900  14.105 -0.1652 -0.0474  0.0133
26335W        W27199   9.031  20.587   1.739  0.0408 -0.0906  0.0422
26336W        W27200   7.165  25.655   7.982  0.0698  0.2255 -0.1035
26337W        W27201   6.536  14.314   6.877  0.1147  0.1681  0.2101
26338W        W27202  26.493  15.209   3.229  0.0490  0.0830  0.0034
26339W        W27203  22.893  13.765  22.135  0.3260 -0.1238  0.3096
26340W        W27204   2.652  24.934   7.638  0.2100  0.2955  0.1159
26341W        W27205  21.966   0.729  27.328 -0.0184 -0.1829  0.0438
26342W        W27206   3.151  22.772  28.138  0.1432  0.0647 -0.1367
26343W        W27207  15.199  24.066  18.410  0.0840 -0.1951 -0.1823
26344W        W27208  21.583  26.002  19.517 -0.1594 -0.2120  0.2351
26345W        W27209   1.952  24.911  16.780 -0.0434 -0.1369  0.0344
26346W        W27210   0.472   5.759   3.935  0.2555  0.2510  0.0204
26347W        W27211  28.470  11.850  10.145 -0.0993  0.0717 -0.0152
26348W        W27212   3.853   1.505  21.681  0.1163  0.2028  0.1383
26349W        W27213   8.345  15.008   9.758  0.1577  0.0628 -0.2488
26350W        W27214  24.733   3.484  12.816  0.3105 -0.0453 -0.1074
26351W        W27215  20.856  10.475   9.729  0.0705 -0.1889  0.2817
26352W        W27216  27.215   2.807  21.137 -0.1545  0.1126  0.3141
26353W        W27217  28.225  17.743  18.505  0.4675 -0.0058 -0.0633
26354W        W27218   0.993   0.831   7.769  0.3167  0.2154 -0.0869
26355W        W27219  17.366  13.504   7.574  0.2011 -0.1272  0.4299
26356W        W27220  27.114  25.752  19.555 -0.1494  0.1626  0.3372
26357W        W27221  13.330   4.833  24.929  0.0765 -0.1033  0.1960
26358W        W27222   9.373   6.089  11.305  0.0404  0.1662  0.1907
26359W        W27223  17.172  24.818   8.946 -0.0548  0.2196  0.2601
26360W        W27224   4.189  11.906   2.289 -0.0782 -0.2785  0.0714
26361W        W27225  20.816   9.838   3.889  0.2213  0.4170 -0.0431
26362W        W27226  18.232  28.533  25.288 -0.2581  0.1250 -0.0458
26363W        W27227   8.980  22.758  14.239 -0.1993  0.0622  0.0750
26364W        W27228  17.046   6.523  18.041 -0.1174  0.1401  0.1218
26365W        W27229   3.606  22.408  11.782  0.0796  0.0492 -0.3040
26366W        W27230  11.861  13.322  11.598 -0.1168  0.1818  0.0938
26367W        W27231  10.127   2.394  13.987 -0.0883 -0.1190  0.0945
26368W        W27232  13.332   8.357   4.054 -0.1259  0.0521 -0.0280
26369W        W27233  11.527  22.971   3.528 -0.2243 -0.1644 -0.0207
26370W        W27234   5.839   5.542  25.782 -0.1849 -0.3112  0.0342
26371W        W27235   0.220   6.659   8.251  0.0206  0.1432 -0.0661
26372W        W27236  12.659  16.691   7.737  0.0933 -0.1237  0.0229
26373W        W27237   4.398   8.724  10.931  0.0578  0.0228 -0.1687
26374W        W27238  11.353  20.356  27.472 -0.0501 -0.1333 -0.1556
26375W        W27239  12.060   4.994   8.701  0.4281 -0.1881  0.2578
26376W        W27240  26.690  21.876  21.980 -0.0301 -0.1467 -0.1289
26377W        W27241   2.939   4.115   5.839 -0.1259  0.3867  0.3620
26378W        W27242  15.451  24.877  13.841  0.1346  0.1086 -0.3621
26379W        W27243  11.108  28.482   3.516  0.1748  0.0505  0.2547
26380W        W27244   7.895  19.348  22.463 -0.0055 -0.1276 -0.0376
26381W        W27245  14.908   1.960  22.173  0.0400 -0.2467 -0.3404
26382W        W27246   9.233   3.863  13.893  0.1242 -0.0318 -0.1010
26383W        W27247   9.021  19.811   4.835  0.0293 -0.1229 -0.0930
26384W        W27248  13.920  14.392  11.788  0.1342  0.0438 -0.1051
26385W        W27249  24.977  10.886   4.655 -0.1018  0.0010 -0.0051
26386W        W27250  23.104  10.324   7.575 -0.0736 -0.0019 -0.2012
26387W        W27251  14.853   0.989   6.753  0.1289 -0.0120  0.0246
26388W        W27252   6.251   3.741   8.421 -0.1076  0.0985 -0.1634
26389W        W27253  17.632   0.789   8.476 -0.1690  0.0415  0.0200
26390W        W27254  26.802  21.252  22.740  0.2860  0.4794 -0.0997
26391W        W27255  21.256  10.876  13.121 -0.2639  0.2506 -0.1456
26392W        W27256   2.918  26.543  22.972 -0.2319  0.1913 -0.0834
26393W        W27257   7.650   6.328  10.560  0.2368 -0.0218 -0.5080
26394W        W27258   1.877  17.929  22.453  0.0295 -0.2314  0.2706
26395W        W27259  17.055  13.302   1.047 -0.1356 -0.2973  0.1912
26396W        W27260  22.578  27.530   1.864  0.0419  0.2678  0.2356
26397W        W27261  27.287  27.008  13.071 -0.0978 -0.2224  0.0393
26398W        W27262  23.266  24.841  13.522 -0.2156 -0.1883 -0.0998
26399W        W27263   7.524  17.589   5.873  0.1104 -0.0940  0.0932
26400W        W27264  27.699   2.553   4.565 -0.0245  0.0477 -0.2423
26401W        W27265  23.008  23.474  20.163  0.0529  0.0058  0.4010
26402W        W27266   5.585  26.481   9.390 -0.0051  0.1371  0.0130
26403W        W27267   8.203  11.678  27.777 -0.0030  0.1128 -0.0546
26404W        W27268  11.372  23.270  14.519 -0.0665  0.4021  0.0289
26405W        W27269  26.075   1.332   3.665 -0.0924  0.1318 -0.0865
26406W        W27270  29.028   0.852  10.748 -0.1128 -0.3832  0.0649
26407W        W27271  12.181   7.598  13.454  0.1421  0.1609 -0.3144
26408W        W27272  25.570  10.406  27.947  0.1912 -0.1420  0.0993
26409W        W27273  24.607  24.236   2.908 -0.0345  0.2111  0.2633
26410W        W27274   1.911   3.960  24.788  0.0357  0.0705  0.0151
26411W        W27275  11.874   1.193  23.495  0.3055  0.3415  0.0802
26412W        W27276   6.283  24.295  21.786  0.2996  0.2706  0.0399
26413W        W27277  29.033  23.418  22.005 -0.0245  0.0702  0.1977
26414W        W27278  15.909  26.027  26.210 -0.0155  0.2144 -0.0778
26415W        W27279  18.857   6.150  28.619  0.0924  0.0759  0.2715
26416W        W27280   7.640   2.307   6.081 -0.0193  0.0234  0.0285
26417W        W27281  12.329  28.397   4.788 -0.1913 -0.0760  0.0086
26418W        W27282  24.435   5.472  14.691 -0.2310  0.1630  0.0135
26419W        W27283   9.868  22.193  20.387  0.0335  0.0433 -0.3163
26420W        W27284  12.121   4.535   4.677 -0.3204  0.3623  0.1198
26421W        W27285  12.477  28.325   6.054  0.2668 -0.0059 -0.0572
26422W        W27286   8.510  18.361   9.635 -0.1361 -0.0251 -0.0505
26423W        W27287  23.455   2.566  19.025 -0.0565 -0.0491 -0.0802
26424W        W27288  16.226  25.295  14.099 -0.0036  0.0429 -0.4207
26425W        W27289  16.438   7.428   3.350  0.0853  0.1464 -0.2564
26426W        W27290  12.323  12.666   9.945 -0.0344  0.0158  0.0496
26427W        W27291  25.903   0.100   3.146  0.1201  0.0058  0.0957
26428W        W27292  17.116  14.718  14.071 -0.2262  0.0654 -0.0594
26429W        W27293   0.149   1.430   7.213  0.0553  0.0108  0.1519
26430W        W27294   1.525  16.704  14.273 -0.1664  0.1190  0.0588
26431W        W27295   9.464  10.433  28.360  0.0668  0.0976 -0.0564
26432W        W27296   2.579   3.506  21.826  0.1905  0.2620  0.2507
26433W        W27297  20.817  27.099  25.662 -0.1450 -0.1237  0.1619
26434W        W27298  12.979   0.935  26.153  0.1299 -0.0613  0.1659
26435W        W27299   6.606  15.616  11.654 -0.1830 -0.1080  0.0139
26436W        W27300   9.404   3.253  22.419  0.1328  0.1271  0.1868
26437W        W27301   1.237  16.845  26.553  0.0283 -0.1205  0.1100
26438W        W27302  14.616   1.967   6.474  0.0502 -0.1071 -0.1325
26439W        W27303   3.681  12.278  12.472  0.3463  0.0951  0.1259
26440W        W27304   7.097   4.450   6.160 -0.2495  0.2007  0.0457
26441W        W27305  16.590   3.176  27.022 -0.1211  0.3284  0.0358
26442W        W27306  12.992  18.249  21.697 -0.1089  0.1697  0.0185
26443W        W27307  26.127  20.087   9.992  0.1391 -0.0278 -0.0956
26444W        W27308  27.049   9.491   8.635 -0.0801  0.0069 -0.1752
26445W        W27309   2.418   5.547   8.447  0.0918  0.3149  0.0639
26446W        W27310   9.340  25.368  27.812 -0.2803  0.2485  0.0301
26447W        W27311  21.947   7.732   4.150 -0.1539  0.4215 -0.0360
26448W        W27312  13.014  27.425  16.051  0.0301  0.1268 -0.0964
26449W        W27313   1.774   0.546   2.268  0.0861 -0.0252 -0.3428
26450W        W27314   6.780  11.778  10.126  0.1283  0.2344 -0.2796
26451W        W27315   2.109  28.900  24.368 -0.1010  0.0856  0.0676
26452W        W27316  15.111   1.079  25.114 -0.2790 -0.0290  0.0118
26453W        W27317  26.869  11.205   4.439  0.1475  0.2607  0.2408
26454W        W27318  11.198  20.757  14.042 -0.1373 -0.3644  0.0835
26455W        W27319  26.287  28.372  13.637  0.1126 -0.4774  0.1969
26456W        W27320   5.315  15.280  17.311  0.0723  0.1342  0.1417
26457W        W27321   0.005  25.931   9.730  0.4803 -0.0870  0.0935
26458W        W27322  15.754   0.073  11.360 -0.2786  0.2150 -0.1271
26459W        W27323  19.885   9.779   8.959 -0.0413  0.1516  0.0036
26460W        W27324   2.350  14.184   9.106 -0.2423 -0.2332 -0.0074
26461W        W27325   5.612   2.073   7.970  0.1374 -0.0426  0.1707
26462W        W27326   4.771  25.412  29.019 -0.0131 -0.0857 -0.2925
26463W        W27327  26.505  27.319  27.127 -0.1178 -0.0427 -0.0863
26464W        W27328   0.023   8.194  24.688 -0.0442  0.2738  0.1899
26465W        W27329   2.837  14.820  27.386 -0.0892  0.3909  0.0437
26466W        W27330   3.114  21.233   9.095 -0.1999  0.0140 -0.0611
26467W        W27331   4.968  20.478  25.397  0.1259 -0.0481  0.1170
26468W        W27332   2.013   0.917  22.606  0.0814  0.5001  0.2946
26469W        W27333  13.574  24.565   5.586  0.0652  0.1101 -0.0561
26470W        W27334  11.400   3.935   5.328  0.3227 -0.1266  0.0910
26471W        W27335   2.171   5.475   7.316 -0.0797 -0.0217 -0.0186
26472W        W27336   1.924  25.950   4.826 -0.0741 -0.1804  0.0533
26473W        W27337  12.705  29.016   5.350  0.0563  0.0715  0.0353
26474W        W27338   8.818   8.013   8.708  0.0304  0.0641  0.2018
26475W        W27339   5.410   3.932  12.959  0.2967 -0.3356 -0.1183
26476W        W27340  10.711   6.622   8.815  0.0372  0.0822  0.2431
26477W        W27341   6.931  27.346  13.364  0.1134  0.2303 -0.2486
26478W        W27342   1.253  27.802   2.684 -0.1109  0.2409  0.2468
26479W        W27343  25.922   2.297  28.590  0.0657 -0.1822 -0.0367
26480W        W27344  28.085  16.307  20.142  0.4424 -0.0951  0.2030
26481W        W27345   4.416  26.771   1.933  0.0790  0.1088  0.1132
26482W        W27346   6.969  15.041   7.750 -0.0139  0.0849 -0.1272
26483W        W27347  14.206   1.637  28.430  0.2734  0.1057  0.0628
26484W        W27348  10.650   6.875  13.674 -0.1349 -0.1639 -0.2649
26485W        W27349  11.375  23.672  16.240  0.0423  0.2221  0.1671
26486W        W27350  12.808  15.027  10.081 -0.1809  0.0582  0.1771
26487W        W27351   0.830  10.783  26.172 -0.1617 -0.1826  0.0395
26488W        W27352  27.762  22.933  24.401  0.0522 -0.1943 -0.1132
26489W        W27353   0.337  15.306  25.215 -0.0959  0.3225  0.1493
26490W        W27354  20.258  22.878   6.020 -0.4302  0.3095 -0.0451
26491W        W27355  18.717  28.749   4.844  0.1343 -0.3754  0.2217
26492W        W27356  18.395  21.592   4.934  0.1304  0.2930  0.0868
26493W        W27357  22.812  21.045  17.829 -0.3897 -0.3260  0.1366
26494W        W27358   3.871   3.426   3.556 -0.0553  0.1252 -0.0853
26495W        W27359   3.316   2.640   7.555  0.0940  0.1676 -0.2718
26496W        W27360  26.436  23.983   8.023 -0.0179 -0.0560  0.1017
26497W        W27361  16.133  10.484  20.541 -0.2035 -0.1305  0.2430
26498W        W27362  19.026  23.407   0.548  0.0203  0.0309 -0.0552
26499W        W27363  24.315   1.545   2.154 -0.3219  0.0433 -0.2313
26500W        W27364  16.920  26.944  11.617  0.0315 -0.1462  0.0726
26501W        W27365  11.885   3.578  25.928 -0.0931  0.0436  0.0206
26502W        W27366  12.985  15.520  25.914  0.4614  0.0438 -0.0964
26503W        W27367   0.216   5.339  23.076  0.0719  0.1470 -0.1192
26504W        W27368  18.684  18.661  19.584  0.1541  0.3135  0.1759
26505W        W27369   4.034   6.939   6.975 -0.1413  0.1755 -0.2238
26506W        W27370  27.085   2.918   9.529  0.0894  0.1887 -0.0342
26507W        W27371   7.929   9.603  27.115 -0.3410 -0.2710  0.2595
26508W        W27372  26.609  22.339  10.237  0.2900  0.0310  0.4558
26509W        W27373  11.324  20.097  19.700  0.2401 -0.3195  0.4013
26510W        W27374  10.872   8.729  11.557 -0.0399  0.1479 -0.1300
26511W        W27375  27.909   4.151  12.380 -0.0787  0.1901 -0.1366
26512W        W27376   6.620   2.075   1.431  0.0844 -0.4218  0.1511
26513W        W27377   5.486   4.382  21.264 -0.0951  0.2066 -0.1348
26514W        W27378  17.425   9.586  23.489  0.0679  0.0271 -0.0771
26515W        W27379  19.686  16.787  29.051  0.0509 -0.3607 -0.3760
26516W        W27380  27.362  26.305  27.020  0.3683 -0.2276 -0.1142
26517W        W27381  25.839  16.146  19.356  0.1788 -0.4357 -0.2329
26518W        W27382  14.112   9.210  25.553 -0.2221  0.1096  0.2031
26519W        W27383  24.511   2.210  24.758 -0.2567 -0.0360  0.1197
26520W        W27384   6.719   2.366  15.481 -0.0190  0.1327  0.2222
26521W        W27385  10.593  12.482  26.641  0.3323 -0.2861 -0.1442
26522W        W27386   7.739  27.034  16.668  0.0672  0.0261  0.3751
26523W        W27387   0.052  14.794  15.748 -0.0831  0.0208 -0.2211
26524W        W27388  11.669   7.223  17.865 -0.0303  0.0622  0.3420
26525W        W27389  28.509   2.735   5.975  0.2406 -0.0673 -0.0508
26526W        W27390   6.738   2.108   5.066  0.0941 -0.1081 -0.1930
26527W        W27391   2.786  15.341  28.839 -0.2563  0.1345  0.1494
26528W        W27392   9.611  25.663   4.168  0.0318  0.4489 -0.1707
26529W        W27393   8.415   2.521  22.614  0.1202 -0.1339 -0.0529
26530W        W27394   5.790  19.478  10.250 -0.0928  0.1313 -0.2177
26531W        W27395  12.219  20.752   8.445 -0.1668 -0.0311 -0.1979
26532W        W27396  15.925   2.779  10.929  0.0852 -0.4030  0.0146
26533W        W27397   5.350   2.550  26.125 -0.1832  0.1384  0.0282
26534W        W27398  21.036   5.260   7.634 -0.2185  0.1469 -0.3514
26535W        W27399   0.111  25.809   0.708 -0.2278 -0.3026 -0.2290
26536W        W27400  22.370   1.051   5.660  0.1149  0.0846  0.0977
26537W        W27401   8.900   2.168  16.006  0.1600  0.2275  0.1734
26538W        W27402  19.468  21.262   1.505 -0.0027 -0.0531  0.3421
26539W        W27403  19.732  21.778   7.614  0.1113  0.1262 -0.2736
26540W        W27404   3.706  17.735  20.674  0.2891 -0.0667  0.1039
26541W        W27405   1.130   4.759   8.180 -0.0964 -0.1098 -0.0681
26542W        W27406   8.513  24.733  26.758 -0.1057  0.0818  0.3820
26543W        W27407  22.680  15.375   7.844 -0.3133  0.1955  0.5192
26544W        W27408  19.096  25.491  22.566 -0.0282 -0.2018 -0.0567
26545W        W27409  11.550  20.558  22.681 -0.0571  0.0113 -0.0311
26546W        W27410  22.297  23.727   3.836 -0.1751 -0.3266 -0.1076
26547W        W27411  27.303  21.583   4.183  0.0954 -0.1182  0.2740
26548W        W27412  28.720  11.472   5.712  0.2846  0.1118  0.2012
26549W        W27413   8.120   1.102  19.164 -0.0283  0.0833  0.4410
26550W        W27414  12.962  12.216   8.930  0.0856 -0.1031  0.0317
26551W        W27415  15.000  18.348   5.068 -0.0041 -0.1468  0.0215
26552W        W27416  13.162   6.044   1.900  0.1545  0.2016  0.2559
26553W        W27417  15.365  25.171   0.530 -0.0749  0.1529  0.1298
26554W        W27418   1.328   2.650  12.435  0.3354 -0.0458  0.2894
26555W        W27419  12.346   5.474  17.108  0.2855  0.0514 -0.0521
26556W        W27420  25.076  23.057   7.901 -0.1553 -0.2308 -0.2012
26557W        W27421  22.665  22.155  13.131 -0.1262 -0.1155 -0.2662
26558W        W27422  28.672   0.016  27.253  0.2072 -0.0816  0.0650
26559W        W27423   6.467   2.404  14.152  0.0277  0.0441  0.1995
26560W        W27424  26.288  27.879  23.381 -0.2181 -0.3357 -0.0206
26561W        W27425   1.646  13.534  23.011 -0.0354  0.1582  0.2198
26562W        W27426  16.493  18.423  25.754  0.2785  0.2659  0.1178
26563W        W27427  24.349  16.458   5.099 -0.0763  0.0062 -0.1102
26564W        W27428  16.137  27.284  25.959 -0.1064  0.2519 -0.2870
26565W        W27429   5.645   7.182  25.706 -0.1577  0.0497  0.0790
26566W        W27430   6.806  12.119  29.082 -0.5005 -0.2252  0.0232
26567W        W27431  10.629  11.671   7.028 -0.3059 -0.0205 -0.1676
26568W        W27432   3.467   3.840  16.635 -0.6370 -0.0430 -0.1928
26569W        W27433   3.975  16.934  17.053 -0.0440 -0.4213  0.2958
26570W        W27434   3.102  21.353  11.719  0.0827  0.2538  0.2029
26571W        W27435   8.451   6.760  15.333 -0.1692 -0.1439  0.1591
26572W        W27436  26.948   1.275   0.151 -0.2157 -0.0780 -0.0431
26573W        W27437  13.671  21.696   7.838 -0.0032  0.5117  0.2808
26574W        W27438  16.340   6.699  11.085  0.0257 -0.2075 -0.0190
26575W        W27439  28.137  17.003  21.089  0.0050 -0.1734  0.0931
26576W        W27440  10.800  25.618  24.305  0.0707  0.0677  0.1243
26577W        W27441  10.640   3.498   4.158 -0.0865  0.2146 -0.1362
26578W        W27442  12.495  15.933  15.732 -0.3946 -0.0264  0.3496
26579W        W27443  25.229  16.347  19.892 -0.0888 -0.1773 -0.1780
26580W        W27444  14.254   6.010   3.586  0.2765  0.0951  0.0623
26581W        W27445  25.091   6.186   2.439  0.0037 -0.1945  0.3544
26582W        W27446  11.266  10.225  18.350 -0.2795  0.1495  0.1241
26583W        W27447  23.484   3.780   1.093  0.0401  0.1287  0.0609
26584W        W27448  13.491  28.790   2.517  0.3047  0.2917 -0.1543
26585W        W27449   7.749   2.734   3.761  0.1372  0.1547  0.2195
26586W        W27450   0.064   4.444  10.766  0.1400  0.0169 -0.1242
26587W        W27451  13.605  22.004  23.793  0.2324 -0.2906 -0.1586
26588W        W27452   0.320   3.435   6.389 -0.0278 -0.1096 -0.0698
26589W        W27453   2.980   2.458  20.453 -0.0091  0.3692  0.0475
26590W        W27454   0.177  17.616  14.981 -0.0711 -0.3581  0.3801
26591W        W27455  24.602  13.394  11.296 -0.1045 -0.2176 -0.2663
26592W        W27456  23.622  23.272  10.101  0.0277 -0.1630  0.0975
26593W        W27457  22.721   2.499   9.235  0.2053 -0.0791 -0.2558
26594W        W27458  20.108   7.789  12.113  0.2208 -0.0110 -0.0818
26595W        W27459  13.613  16.008  28.421  0.3295  0.0220  0.0921
26596W        W27460   1.717  15.614  21.162  0.1518  0.3360 -0.0776
26597W        W27461  25.142  10.870  11.805  0.0413  0.0587  0.1781
26598W        W27462  26.952  18.658  13.484 -0.0040  0.0568  0.0677
26599W        W27463   2.954   3.307  15.417  0.0076  0.1268  0.0443
26600W        W27464  23.166  26.460  25.634 -0.0102  0.0674  0.4541
26601W        W27465  21.961  23.419   1.036  0.0942 -0.4363  0.0378
26602W        W27466   1.457  11.437  14.880 -0.1556  0.0299 -0.0033
26603W        W27467  11.425  16.019   6.518 -0.0735 -0.0281 -0.0036
26604W        W27468  26.653  28.268  10.787  0.3341  0.1394  0.1745
26605W        W27469  15.456  27.541  19.151 -0.3145 -0.4032  0.0261
26606W        W27470  12.328   7.814   2.783 -0.1241 -0.1744 -0.2182
26607W        W27471   5.079   1.410   0.573  0.3953 -0.1965  0.1090
26608W        W27472  12.088  21.853  13.373 -0.2764  0.0803 -0.0460
26609W        W27473   1.889   8.195  15.455  0.0251  0.2008 -0.0773
26610W        W27474  10.509   2.809  20.099 -0.0392 -0.1382  0.0598
26611W        W27475   2.437  23.402  17.470  0.0072 -0.2147 -0.2382
26612W        W27476  13.385  15.311  15.273 -0.1814  0.0538  0.0219
26613W        W27477   8.919  23.299  27.400  0.1217 -0.1367 -0.1020
26614W        W27478  21.736  26.889   6.004  0.0160 -0.0969 -0.2116
26615W        W27479   0.926   5.035  13.999 -0.0729 -0.0322  0.0595
26616W        W27480  20.130  11.863   1.615  0.0717  0.0172 -0.0724
26617W        W27481  25.233  27.024  17.520  0.0673  0.2454  0.1002
26618W        W27482   4.219   0.107  16.707 -0.2181  0.2023  0.1135
26619W        W27483   0.665   4.751  27.215 -0.2234 -0.0235 -0.1469
26620W        W27484   7.535  12.237   5.366  0.0877 -0.0608 -0.1347
26621W        W27485   4.660  21.245  16.475 -0.0809 -0.2313 -0.0848
26622W        W27486   1.329  21.040  20.845  0.0236 -0.0226 -0.1361
26623W        W27487  12.491  26.333   4.832  0.0076  0.3819  0.5190
26624W        W27488  20.123   2.094   8.141 -0.0728 -0.0175  0.1337
26625W        W27489  12.394   7.163  19.959 -0.2291  0.0868 -0.2242
26626W        W27490  19.022  18.050  11.301  0.1258  0.0244  0.1971
26627W        W27491   2.040   6.672   6.458  0.2039  0.1670  0.1835
26628W        W27492  25.414  10.688  20.344 -0.2057  0.0502 -0.2213
26629W        W27493  14.372   0.490  18.676  0.1699 -0.0134  0.0052
26630W        W27494  10.660  23.210  27.127  0.0365  0.2577  0.0403
26631W        W27495   8.505  20.944   5.634 -0.2209  0.2642 -0.0824
26632W        W27496   0.358   4.829  22.719  0.0619 -0.1466  0.3659
26633W        W27497  16.370   5.779  21.525 -0.1467  0.0517  0.4182
26634W        W27498   8.334  13.855  13.131 -0.2539  0.2884  0.0035
26635W        W27499  20.481   4.618  13.353  0.0341  0.3214  0.0312
26636W        W27500  11.429  13.343   8.524  0.0855 -0.0930 -0.0600
26637W        W27501   5.359  17.057  22.443  0.1722  0.3564  0.3063
26638W        W27502   1.706  23.177   8.660  0.0030 -0.0039  0.1370
26639W        W27503  18.366  10.264   7.159 -0.1883  0.1879  0.1455
26640W        W27504  21.968   9.463  24.789  0.0098 -0.0048  0.2323
26641W        W27505  12.276  29.118   2.638 -0.0644 -0.1493 -0.1131
26642W        W27506   5.901   3.834   3.606 -0.1508 -0.3299  0.1636
26643W        W27507  12.083   9.543  14.024  0.0853  0.1399 -0.0537
26644W        W27508  16.922  11.149  26.886  0.2183  0.0327  0.1275
26645W        W27509  17.020  17.837  11.926  0.1474  0.2607 -0.1030
26646W        W27510   4.084   2.261   8.114  0.1463  0.2901  0.2887
26647W        W27511  17.477  14.168  14.787 -0.0012  0.1406  0.0795
26648W        W27512  28.687   1.243  10.752  0.2356  0.0170  0.0507
26649W        W27513   4.379   9.544  22.977 -0.0174 -0.0935 -0.0552
26650W        W27514  20.142   7.430  13.433  0.3287  0.2498 -0.4770
26651W        W27515   7.224  27.676  21.973  0.0681  0.1393 -0.0462
26652W        W27516  28.141  25.548   7.091  0.2585 -0.0807 -0.1047
26653W        W27517  28.493   1.512  12.847  0.2501 -0.1519  0.1772
26654W        W27518  16.105  14.962  20.116 -0.3671 -0.2223 -0.0848
26655W        W27519  14.295  21.494  24.167  0.0407 -0.1389  0.2556
26656W        W27520  14.152   6.112   0.929  0.0728 -0.1794 -0.1216
26657W        W27521   6.625   2.951   6.831 -0.0837  0.0750  0.1179
26658W        W27522  10.045  24.701   6.869 -0.1105  0.0344 -0.0541
26659W        W27523   3.898   2.426  16.333 -0.1481 -0.4011 -0.1618
26660W        W27524   7.083  11.311  16.034  0.0023 -0.0342 -0.0240
26661W        W27525   7.384   2.378   1.605 -0.0474  0.0801 -0.0772
26662W        W27526  11.205  25.799   8.566  0.0457  0.4665 -0.2244
26663W        W27527  22.219   0.104  13.411  0.1016  0.1236  0.2139
26664W        W27528  11.322  12.745  12.451  0.0955  0.1804  0.3044
26665W        W27529  24.726  28.174  14.676 -0.0472  0.1674  0.0714
26666W        W27530  16.965   2.324   7.943  0.1739 -0.0723  0.0854
26667W        W27531   7.604   1.619  27.435 -0.2015 -0.2627  0.1028
26668W        W27532   7.180  11.114   9.092 -0.0676  0.0486 -0.1249
26669W        W27533  18.582  14.594  10.118  0.2707 -0.3300  0.3771
26670W        W27534  14.073  17.850  17.508 -0.2570 -0.0120  0.3126
26671W        W27535  27.430  15.473   2.600 -0.1639 -0.0501  0.0906
26672W        W27536   1.302  24.716   4.966  0.0313 -0.0246 -0.0514
26673W        W27537   2.997  11.982   8.057 -0.1546  0.2719  0.3586
26674W        W27538  18.722   0.562  22.828 -0.0779  0.1711  0.0520
26675W        W27539  22.514  15.118   9.622 -0.2177 -0.2770 -0.3536
26676W        W27540  24.305  28.299   3.951 -0.2030 -0.0745 -0.2283
26677W        W27541  18.215   2.447   5.259  0.0462 -0.2249  0.1896
26678W        W27542  24.446  28.030   9.987 -0.0022  0.1409 -0.0064
26679W        W27543  21.995  12.280   0.112 -0.0433 -0.0010 -0.0525
26680W        W27544   6.672   6.943   2.054  0.3602  0.1524  0.4938
26681W        W27545  16.892  27.075   7.256 -0.0580  0.1702 -0.0312
26682W        W27546  24.705  21.480  28.653 -0.2292 -0.1249 -0.1698
26683W        W27547  11.884   7.771  17.166  0.3433 -0.1613 -0.1051
26684W        W27548  16.878  27.790  12.865  0.1264 -0.1533 -0.0545
26685W        W27549  13.005  28.209  20.393 -0.0432 -0.0715  0.0898
26686W        W27550  23.844   3.407  29.009 -0.2521 -0.2089 -0.1728
26687W        W27551  15.782  28.324  27.974  0.1586 -0.1546 -0.1440
26688W        W27552   1.498  21.642  10.986  0.1595  0.1787  0.2410
26689W        W27553  13.418  27.670  11.511 -0.0978  0.0023  0.0813
26690W        W27554  25.747  27.282  15.868 -0.2279 -0.0344  0.2750
26691W        W27555  17.928   5.807  23.152 -0.1904  0.4135  0.1107
26692W        W27556   8.224   8.463  14.660 -0.2742 -0.0837 -0.2547
26693W        W27557  18.206   5.952  13.014  0.0939  0.2721 -0.2689
26694W        W27558  15.945   2.169   5.113  0.0156 -0.2289 -0.2646
26695W        W27559  26.532  22.511  18.657 -0.0470  0.1110  0.1872
26696W        W27560  24.579   1.345  28.327 -0.2898  0.1384  0.1177
26697W        W27561  10.832   6.691   5.045  0.1654  0.2868  0.3463
26698W        W27562  14.942  28.636  13.944  0.2490  0.1943  0.3365
26699W        W27563   5.457   0.885   8.413 -0.1724  0.1340 -0.1959
26700W        W27564  28.320   8.422   9.377  0.0642 -0.2289 -0.0277
26701W        W27565  12.808   5.129   4.424 -0.0352  0.0254 -0.1130
26702W        W27566  27.096   3.962   5.127 -0.1370  0.2537 -0.2619
26703W        W27567   4.314   4.834  18.479 -0.1183  0.0628  0.1471
26704W        W27568   0.787  11.499  22.908  0.2522 -0.0410  0.0741
26705W        W27569  24.585  27.675   9.103 -0.0457 -0.3203  0.1490
26706W        W27570  25.492  28.770  18.291  0.1051 -0.1748  0.2265
26707W        W27571   8.721   7.993  18.807 -0.3177  0.0334  0.1403
26708W        W27572  16.061   8.228  16.958 -0.0306  0.2057 -0.1594
26709W        W27573  17.303  21.596  11.504 -0.1338  0.1164 -0.2750
26710W        W27574   0.123  16.845  16.856  0.0014 -0.0634  0.0836
26711W        W27575   5.069   5.024  21.553  0.1153 -0.0989 -0.1924
26712W        W27576  12.018   6.326   0.972 -0.2137  0.4351 -0.3087
26713W        W27577  26.474  11.656  11.489  0.1812  0.1313  0.0818
26714W        W27578   4.021   7.128  12.777  0.2552 -0.0994  0.2027
26715W        W27579  15.581  18.649  12.597  0.0775  0.2940  0.0256
26716W        W27580  10.035   7.260  12.105 -0.2054  0.0266 -0.1204
26717W        W27581   2.716   6.013  10.626 -0.2054  0.2331 -0.1037
26718W        W27582  28.770  11.708  26.181  0.1483 -0.0283 -0.0456
26719W        W27583  10.043   2.625   5.435 -0.2828  0.0915 -0.4302
26720W        W27584   1.534   2.637  25.847  0.1420  0.0323 -0.0148
26721W        W27585  19.723  14.763  10.844 -0.1051  0.1924 -0.0935
26722W        W27586   2.752  20.691   7.133  0.2071  0.3078 -0.1748
26723W        W27587  15.680  26.590   1.743  0.2153 -0.0702  0.1128
26724W        W27588  20.961  16.455  15.991 -0.1310 -0.1763  0.0097
26725W        W27589  25.744   2.183  22.594  0.0400  0.2098 -0.0181
26726W        W27590   4.538  10.688  11.316 -0.1289 -0.4426  0.2107
26727W        W27591   3.546  13.848  20.059  0.0069  0.2803  0.0794
26728W        W27592  16.049   9.028   4.340  0.3227  0.0766  0.1917
26729W        W27593   5.083  20.494  12.113 -0.1002  0.4885 -0.2183
26730W        W27594  13.803  27.312   3.704 -0.0006  0.0498  0.1939
26731W        W27595   9.777  26.867   5.775 -0.1718 -0.1962  0.2610
26732W        W27596   9.209   7.695  24.587  0.0891 -0.1666 -0.1537
26733W        W27597  25.750  25.229   0.179 -0.0533  0.0680  0.1013
26734W        W27598  21.297  26.224  16.580  0.1341 -0.2093 -0.0276
26735W        W27599   4.408  13.107  27.179  0.1240  0.4634  0.0025
26736W        W27600   2.615   8.999  12.651 -0.0371  0.2619  0.0163
26737W        W27601   8.657   8.784  13.629  0.2250 -0.1120  0.3933
26738W        W27602   0.388  12.582  25.857  0.3855 -0.1799  0.2453
26739W        W27603  10.042   5.561   7.318  0.0294  0.2454  0.2971
26740W        W27604  12.487  14.579   8.405 -0.2391  0.0123 -0.0029
26741W        W27605  27.034  25.811   5.204 -0.2428  0.2077  0.1216
26742W        W27606   0.290   6.744  15.545 -0.2070  0.1729  0.2244
26743W        W27607   4.849   0.336  24.487  0.0744  0.3230  0.3380
26744W        W27608  20.712  21.079  25.711  0.0713 -0.2445  0.0151
26745W        W27609  14.292   0.385   4.970  0.2435 -0.1382  0.0491
26746W        W27610  22.894  10.548   5.697 -0.1017  0.1241  0.0325
26747W        W27611   5.740  20.949   3.452 -0.1448  0.3198  0.2316
26748W        W27612  10.504   3.976  12.142 -0.2318  0.2488  0.0275
26749W        W27613  20.886   1.124  17.290 -0.1210 -0.0539  0.1767
26750W        W27614   1.005  24.429  11.618  0.3640 -0.0511 -0.0953
26751W        W27615   8.509   8.392   3.760 -0.2615 -0.3264  0.1028
26752W        W27616  28.417   8.970  15.326 -0.4548  0.1237  0.0010
26753W        W27617  17.086   0.842  11.181  0.2967 -0.2757  0.0867
26754W        W27618  15.368  17.376  19.435 -0.1786  0.0854  0.3624
26755W        W27619   2.491   5.723  25.333  0.0167  0.2178 -0.1053
26756W        W27620   6.750  25.720   1.748 -0.0197  0.2196 -0.1255
26757W        W27621   7.791  21.753  22.569  0.2453  0.3774 -0.2268
26758W        W27622  14.684  23.386  14.309  0.1022  0.1531  0.1230
26759W        W27623  13.000   2.586  15.423 -0.2288  0.0794 -0.1467
26760W        W27624  21.895  18.529  18.369 -0.0051  0.2261 -0.0566
26761W        W27625  10.136  24.461  17.179  0.1958 -0.2889 -0.0057
26762W        W27626   4.456  28.375  28.759 -0.0018 -0.1083 -0.3901
26763W        W27627  23.239  27.660   3.604 -0.1985  0.1113  0.1458
26764W        W27628  16.725  26.667   2.054  0.1297  0.0955 -0.1616
26765W        W27629   1.254   7.960  17.433  0.1667 -0.0122  0.2310
26766W        W27630  20.854  19.048   4.154 -0.1599 -0.1822  0.0748
26767W        W27631  13.011  24.786   8.139 -0.2284  0.3318  0.1453
26768W        W27632  17.378  19.901  12.121  0.1184  0.2469 -0.1228
26769W        W27633  13.053   7.317  24.438 -0.0297  0.2128 -0.0282
26770W        W27634  28.032  20.972  25.624 -0.1090 -0.4063 -0.0566
26771W        W27635  11.145  27.131   7.067 -0.2039 -0.1771  0.0596
26772W        W27636   5.699  12.856  15.523  0.0742 -0.0443 -0.0632
26773W        W27637  28.648  27.471  27.788  0.1158 -0.1014  0.1488
26774W        W27638   2.546  18.810  21.588  0.1147  0.2067  0.5754
26775W        W27639   0.054  12.849   7.608 -0.0022 -0.2662  0.0467
26776W        W27640  21.072  18.134  24.838 -0.0205  0.1622 -0.1342
26777W        W27641   6.378  21.877   7.727  0.1857  0.1285 -0.3275
26778W        W27642   7.149   8.130   6.246 -0.0118 -0.2861  0.0670
26779W        W27643  24.801  29.077  15.275  0.1358 -0.1341  0.1683
26780W        W27644   7.733  10.051  26.201  0.2078 -0.0173 -0.1170
26781W        W27645   7.516  23.702  10.421 -0.0241 -0.0163 -0.2305
26782W        W27646   0.273  14.055  10.840 -0.2473 -0.0958  0.0859
26783W        W27647  16.244   7.205  22.408 -0.0538 -0.2958 -0.4610
26784W        W27648   8.708   9.917  11.577 -0.0657  0.2520  0.2575
26785W        W27649   9.436  11.962  12.652 -0.0712 -0.1449 -0.0923
26786W        W27650  23.432  26.012   6.740  0.0863 -0.3586  0.0700
26787W        W27651   5.823   3.716   8.710 -0.1499  0.2195 -0.1119
26788W        W27652   6.932  21.909  11.405 -0.1912  0.3887  0.1843
26789W        W27653  15.857  28.534  27.336  0.1578 -0.2286  0.1056
26790W        W27654   0.040  20.689  27.940  0.0639 -0.0122  0.0307
26791W        W27655  18.382  24.049  16.637  0.1507  0.0959  0.3862
26792W        W27656  11.740  24.661  16.993  0.1008  0.0995 -0.2193
26793W        W27657  11.431  14.679  13.197  0.0346 -0.1031 -0.0640
26794W        W27658   8.544  22.831  18.279 -0.0473  0.1731  0.0591
26795W        W27659   3.400   8.699  21.638 -0.1954 -0.2586  0.0442
26796W        W27660   3.535   6.254  27.900 -0.1845  0.1118  0.1594
26797W        W27661  11.454  10.856  16.994  0.0624 -0.0158 -0.0783
26798W        W27662  11.123  27.181   5.458 -0.1222  0.1289  0.2451
26799W        W27663   8.380   7.699   9.628  0.1094 -0.0430  0.0688
26800W        W27664  28.098   4.903  23.181  0.1943 -0.3778  0.0100
26801W        W27665  11.188   5.079  22.288  0.0873  0.1825  0.1332
26802W        W27666  24.543  25.150   7.990  0.2609 -0.0035 -0.1792
26803W        W27667  10.920   1.673  11.170  0.0581  0.0493 -0.0240
26804W        W27668   6.590  10.795  11.069  0.1155 -0.2960  0.3930
26805W        W27669   1.816  12.872  18.934 -0.2156  0.0204 -0.1144
26806W        W27670  14.161  10.063  19.034 -0.0060  0.0874  0.1099
26807W        W27671  26.718   3.554   1.693 -0.1022 -0.0439  0.2015
26808W        W27672   8.046  10.453  16.653  0.1707 -0.1134  0.3490
26809W        W27673  28.190   6.128   5.514  0.0527  0.0446  0.2370
26810W        W27674  27.606  16.077  19.499 -0.0793 -0.0570  0.0986
26811W        W27675   8.163  24.837  21.401  0.1535  0.3430  0.1114
26812W        W27676  10.079  21.898  11.113 -0.0951 -0.0943  0.3707
26813W        W27677   2.139  24.756  18.749  0.2014  0.1216  0.1918
26814W        W27678  14.006   4.968   1.409  0.4189 -0.0001 -0.0541
26815W        W27679   6.696  15.614  21.031  0.0275  0.0030 -0.0156
26816W        W27680   8.650   9.484   2.254 -0.0212 -0.2449  0.1223
26817W        W27681   5.997   3.625  22.381 -0.4381 -0.1757  0.0744
26818W        W27682   2.987  24.463  27.136  0.0309 -0.0708  0.0368
26819W        W27683   5.186  28.731   5.215  0.0526 -0.4174  0.0201
26820W        W27684   0.999   9.074  14.177  0.1306  0.1536 -0.1681
26821W        W27685   1.863   0.256  18.269  0.0614  0.2098 -0.0320
26822W        W27686  14.075  19.742  20.803 -0.1452  0.2029  0.0797
26823W        W27687  12.499  12.140  25.094  0.0183  0.1295 -0.0202
26824W        W27688  11.470  13.472  18.734  0.0883 -0.0529  0.0136
26825W        W27689  15.663   0.709  21.520  0.3539  0.1019 -0.0429
26826W        W27690  18.722  21.467   3.685 -0.1227 -0.1331  0.1630
26827W        W27691  20.930  26.992  20.459  0.0479 -0.0549  0.2856
26828W        W27692   6.262  25.340   8.270  0.3709 -0.3330  0.2572
26829W        W27693   7.934   8.420  28.131 -0.2132  0.1106  0.0391
26830W        W27694  18.703  24.262   6.750 -0.1441  0.0764 -0.2638
26831W        W27695  24.958  23.236  14.692 -0.2052  0.0950  0.0618
26832W        W27696  23.083   1.880  20.868 -0.1931  0.1423 -0.0127
26833W        W27697  22.143   6.594   1.897 -0.0936 -0.4655 -0.1081
26834W        W27698  18.170   1.164  23.493  0.1460  0.1308 -0.0875
26835W        W27699   3.869   2.824  14.584  0.1460 -0.2402  0.0385
26836W        W27700   1.966   7.140  26.498 -0.2612 -0.0531 -0.4954
26837W        W27701   4.827  15.295  13.362  0.0394  0.5718  0.1323
26838W        W27702  13.387   2.990  25.015  0.0463 -0.1336 -0.1235
26839W        W27703  19.051  17.692  15.240  0.2779 -0.1162  0.0094
26840W        W27704   0.840   0.315  24.417  0.0712 -0.0607  0.2326
26841W        W27705  11.252  16.644   2.872 -0.1900  0.0499  0.2834
26842W        W27706   9.315   8.717   0.001  0.0109  0.0282  0.1292
26843W        W27707   7.478   0.448   8.991 -0.0975  0.0722  0.0564
26844W        W27708  27.446  21.793  16.816 -0.2506 -0.0547 -0.0989
26845W        W27709   9.660   2.957   2.390 -0.0742 -0.0844  0.0720
26846W        W27710  25.839  14.062  15.900  0.2774 -0.1771 -0.1037
26847W        W27711  12.642   3.019  10.883 -0.0688 -0.1614  0.2493
26848W        W27712  18.027  14.920  17.323  0.0410  0.2976 -0.2079
26849W        W27713   8.065  19.593   9.885 -0.1029  0.3762 -0.3810
26850W        W27714   8.222  26.056  10.516  0.3258  0.0473  0.0342
26851W        W27715   9.907   2.467  20.616  0.0969  0.0797 -0.1903
26852W        W27716  12.114  20.262  26.944 -0.1118  0.1204  0.1471
26853W        W27717   5.523   8.973  25.710 -0.1204  0.0226  0.0474
26854W        W27718   3.587   3.792   9.114 -0.2553 -0.1987  0.0879
26855W        W27719  25.068  16.282   7.053  0.1245  0.0765  0.0285
26856W        W27720  13.314  23.569  11.486 -0.4022 -0.3708 -0.1929
26857W        W27721   7.064   0.915  16.593  0.0166  0.2325 -0.4873
26858W        W27722   1.954  28.598  26.342  0.1256  0.1335 -0.3285
26859W        W27723  29.084  24.556  24.611 -0.1510 -0.1968 -0.0600
26860W        W27724   1.128  26.425  14.424 -0.1775 -0.0292  0.3393
26861W        W27725  15.145   1.445   6.758  0.0408  0.2605  0.1617
26862W        W27726  21.608  27.019   5.484 -0.1364 -0.0239 -0.0062
26863W        W27727  18.531  11.801  17.903 -0.0056 -0.0640 -0.1823
26864W        W27728   4.724  26.588  12.607  0.1359 -0.1997 -0.1634
26865W        W27729   2.294  16.375   4.116 -0.4414 -0.0716 -0.0355
26866W        W27730   4.980  14.635  19.933 -0.0616 -0.1356 -0.0909
26867W        W27731  23.794   2.502   1.793  0.2596  0.0326  0.2721
26868W        W27732  10.448   8.810  10.255  0.2680  0.1405  0.0163
26869W        W27733  14.107  16.436  17.178 -0.1467  0.1078 -0.0269
26870W        W27734  11.964  26.422   8.884  0.0276 -0.5422 -0.2115
26871W        W27735  13.599  10.212  10.217 -0.0903 -0.2279  0.2518
26872W        W27736  10.696   1.298  15.164 -0.1611  0.2047  0.0307
26873W        W27737   5.371  26.234  16.885  0.2130 -0.0492  0.0176
26874W        W27738  27.139  24.968  11.734  0.0868 -0.3169  0.1503
26875W        W27739  13.014  20.530  19.459 -0.1043 -0.1142 -0.2145
26876W        W27740   8.461  26.169  12.129 -0.0723 -0.1304 -0.2165
26877W        W27741   9.501   8.185  13.466  0.0622  0.1411  0.1572
26878W        W27742  24.410   0.916  15.839 -0.1797 -0.0489  0.0890
26879W        W27743  17.320  24.511   9.571 -0.0874 -0.4792 -0.1732
26880W        W27744  26.976  16.175   1.247  0.2357 -0.1716 -0.0935
26881W        W27745  14.310   3.455   4.578  0.0852  0.1060 -0.0006
26882W        W27746   8.606   5.901   5.744  0.0665  0.2378  0.0366
26883W        W27747  13.560  16.895  10.606 -0.1745  0.1024 -0.2395
26884W        W27748   9.145  18.469  23.171  0.3835 -0.0540  0.5198
26885W        W27749  22.523  15.323  28.360 -0.1415  0.0469  0.0360
26886W        W27750   3.793   8.159  19.371 -0.2727 -0.1472 -0.1743
26887W        W27751   7.373   3.463   0.995  0.1126 -0.0892  0.1151
26888W        W27752  23.728  26.879  25.718 -0.0414 -0.2518 -0.1508
26889W        W27753  11.704   3.659  16.156  0.2970  0.1730 -0.2656
26890W        W27754  29.059  18.383  10.195  0.1857  0.3707 -0.1156
26891W        W27755   6.955  28.607  20.613 -0.0213  0.1484  0.0978
26892W        W27756  14.601   3.664   2.290  0.3771 -0.0997 -0.0123
26893W        W27757  29.058  21.583  12.090 -0.0513 -0.2520  0.0172
26894W        W27758   6.865   0.208  10.403  0.0330  0.0544 -0.1793
26895W        W27759  27.447  23.885  12.784  0.3106  0.1367  0.0115
26896W        W27760  10.319   5.865  10.209  0.3823  0.0770  0.4577
26897W        W27761   6.679  11.193   5.962  0.1191  0.0945  0.0578
26898W        W27762   2.338   8.670  24.925 -0.0556  0.1893 -0.0750
26899W        W27763  16.038   0.734  23.505 -0.3144  0.0785 -0.0945
26900W        W27764   4.877  25.507  25.827 -0.1675 -0.2272 -0.0239
26901W        W27765   6.647  19.844  20.616  0.1552 -0.0253 -0.0936
26902W        W27766   7.280   6.407  21.870  0.0152 -0.1278  0.1661
26903W        W27767   5.551   1.270  20.789 -0.0660  0.1079  0.0257
26904W        W27768   7.704  24.570  27.821 -0.3636 -0.0683  0.3774
26905W        W27769  21.226  27.214   9.421 -0.1797  0.0244 -0.2149
26906W        W27770   4.020  22.122  10.830 -0.3737 -0.3308 -0.1983
26907W        W27771  11.307  17.734  12.749  0.0930  0.5465 -0.1355
26908W        W27772  18.127  13.811   0.340  0.1246 -0.0470 -0.1159
26909W        W27773  14.703  14.152  16.510 -0.1781 -0.3812  0.0591
26910W        W27774  13.938  20.970   4.966 -0.0925 -0.0798 -0.1780
26911W        W27775  28.842   5.296   8.727  0.0983 -0.4126 -0.1987
26912W        W27776   0.852   5.171  13.170  0.0075 -0.0040 -0.2516
26913W        W27777  16.240  15.223  13.761  0.0920 -0.1548  0.0654
26914W        W27778  12.020  28.083  24.567  0.0889 -0.2029 -0.1357
26915W        W27779  24.244  27.685  24.732 -0.2712 -0.4793  0.2039
26916W        W27780  20.312   5.265   2.004 -0.0869 -0.2433  0.1694
26917W        W27781   4.297  13.963  22.867 -0.1395 -0.1194  0.1283
26918W        W27782   2.651   7.802   5.769  0.1173 -0.3477 -0.2616
26919W        W27783  19.444  27.322  22.667  0.2217  0.0252  0.0938
26920W        W27784  18.958   1.665   4.607 -0.0065  0.2562  0.1381
26921W        W27785   6.590   2.521  10.933 -0.0685  0.2370 -0.1804
26922W        W27786  16.039   3.427  14.354  0.0158  0.0330  0.1965
26923W        W27787   7.988   8.385  26.362  0.1283  0.1788  0.1192
26924W        W27788   8.916  26.144  12.452  0.0865  0.0747  0.2646
26925W        W27789  24.425   3.557  24.465 -0.1380 -0.2332  0.0746
26926W        W27790   5.855   2.871   8.490  0.1345 -0.0108 -0.1466
26927W        W27791  17.805  15.091  21.869  0.2280 -0.1397  0.1641
26928W        W27792  16.895   5.535   5.487  0.0343  0.0838  0.1486
26929W        W27793  25.691  18.198   2.377 -0.0724 -0.2898 -0.0323
26930W        W27794   7.394  25.275  25.467 -0.1081 -0.1082  0.0986
26931W        W27795  20.682  16.648  10.680 -0.1707  0.1350 -0.2791
26932W        W27796  12.348   7.859  17.295 -0.0249  0.0164 -0.1290
26933W        W27797  23.653   7.676  28.125  0.2333  0.1518  0.0459
26934W        W27798   3.131  15.538   3.298  0.0923 -0.3436  0.0429
26935W        W27799   6.083  14.206  21.957 -0.1043  0.0031  0.0018
26936W        W27800  13.151  26.961  15.733 -0.0965  0.0267 -0.0569
26937W        W27801  10.107  14.576   8.140 -0.1130 -0.0988  0.1832
26938W        W27802  26.976  24.618  22.964 -0.2548  0.0023  0.1655
26939W        W27803  18.937   6.730   0.142 -0.0858  0.0859 -0.1067
26940W        W27804  22.345   5.018  10.951  0.0213 -0.1079 -0.0002
26941W        W27805  11.566  27.702   9.745 -0.2123 -0.1173  0.0150
26942W        W27806   4.810  17.087  10.870  0.1787 -0.1341  0.0663
26943W        W27807   8.741   4.081  18.466 -0.2236 -0.3184 -0.1389
26944W        W27808  19.339   4.754  11.461 -0.1664 -0.1913 -0.0463
26945W        W27809   6.339  16.403   5.917 -0.2915  0.3050 -0.1065
26946W        W27810   3.114  16.712  17.066 -0.2891 -0.0729  0.2133
26947W        W27811  10.500  17.935  13.304 -0.1432 -0.2355  0.0681
26948W        W27812  19.609  22.064  19.887 -0.2898  0.1797  0.4448
26949W        W27813   7.909  12.987   5.050 -0.0029 -0.2358  0.1357
26950W        W27814  17.137   1.469   7.513 -0.0095 -0.1958  0.1057
26951W        W27815  28.117   7.254  14.500 -0.0624  0.1116  0.0466
26952W        W27816  11.095   4.428  25.044  0.0410  0.0680 -0.0334
26953W        W27817  28.937   1.214  23.299  0.0153 -0.0475 -0.2320
26954W        W27818  25.678  10.766   1.353 -0.0458 -0.2961 -0.2588
26955W        W27819   3.054  11.249  17.107  0.2031  0.1102 -0.0072
26956W        W27820  19.361   2.220  15.878  0.0675  0.0557 -0.3051
26957W        W27821  22.013  12.056   5.419  0.1913  0.1349 -0.1831
26958W        W27822  12.747  16.614  22.386  0.0104 -0.0849 -0.2903
26959W        W27823  20.842   2.792   2.269  0.0305 -0.3046 -0.3910
26960W        W27824  10.764   3.689  24.555  0.1430  0.0318 -0.2204
26961W        W27825  28.134   2.133   6.456  0.0019  0.1556 -0.0312
26962W        W27826   4.725   2.689  14.322 -0.1290  0.0546  0.1354
26963W        W27827   5.354  26.362  13.847 -0.1312  0.2116 -0.2255
26964W        W27828  10.404  25.812  24.525  0.0179 -0.3908  0.2160
26965W        W27829   3.880  25.906   3.462  0.2742 -0.1535  0.0253
26966W        W27830  14.827   4.936  23.192  0.2257  0.0149 -0.0954
26967W        W27831  12.002  27.899   2.001  0.4024 -0.0767 -0.0494
26968W        W27832  27.032  28.588  10.964  0.2016  0.2265  0.0233
26969W        W27833  12.591   0.196  27.617 -0.3228  0.1374  0.0037
26970W        W27834  20.250   9.031  13.371 -0.0983 -0.0998  0.1608
26971W        W27835  22.863   6.221  24.544  0.2704 -0.0160  0.1124
26972W        W27836  24.586  25.951  29.077 -0.1142  0.3814  0.1836
26973W        W27837   5.542  14.760  28.402  0.0396  0.1896  0.3359
26974W        W27838   4.516   8.360  24.254 -0.0661 -0.2585 -0.1385
26975W        W27839   1.633   0.956  14.054 -0.1538  0.1708  0.0011
26976W        W27840   0.777   5.424  14.369 -0.1094 -0.2807 -0.0070
26977W        W27841  13.695  27.846  25.149 -0.0094  0.0014  0.0563
26978W        W27842  18.647   5.058   1.195 -0.1945  0.2533  0.2478
26979W        W27843  28.693  11.278  20.339 -0.0041 -0.0987  0.2439
26980W        W27844   0.461   3.661   1.894  0.1296  0.0814 -0.1545
26981W        W27845   5.153   4.113   5.062  0.1488 -0.2779 -0.2228
26982W        W27846  15.924  25.501  26.882  0.2317 -0.0783 -0.3457
26983W        W27847   5.239   4.804   0.646 -0.0859  0.0699  0.3346
26984W        W27848  26.695  14.648  18.710  0.3117  0.0402 -0.1538
26985W        W27849  16.782   5.735  14.764 -0.1538 -0.2697  0.0400
26986W        W27850   5.168  14.316   2.709 -0.2397 -0.0926 -0.1114
26987W        W27851  22.632  23.932   6.824  0.0885 -0.1779 -0.0885
26988W        W27852   7.130  11.632   2.784 -0.2714  0.1086  0.0199
26989W        W27853  15.834   7.522   0.591  0.3892 -0.0087  0.1250
26990W        W27854   8.053  19.111   0.523  0.2363 -0.1480  0.2310
26991W        W27855   2.435   4.482   0.388 -0.2813  0.0939  0.1998
26992W        W27856  11.164  17.219   3.631  0.0826 -0.2973 -0.1808
26993W        W27857   0.530  21.602  13.116  0.1781  0.1455  0.0677
26994W        W27858  23.373  16.612  20.456  0.0250 -0.1667  0.2054
26995W        W27859  10.406   7.717   7.893  0.1904 -0.0738  0.3836
26996W        W27860  26.965   3.892   6.158 -0.0089 -0.1442  0.1707
26997W        W27861   7.776   3.354  16.366  0.1092 -0.0348  0.1400
26998W        W27862  23.071   8.449  18.232 -0.1160  0.0691  0.1635
26999W        W27863  29.083   0.970  22.330  0.4944  0.0931 -0.2313
27000W        W27864   1.847  20.283  21.592 -0.0077 -0.1930 -0.0241
27001W        W27865  27.946   0.700  16.253 -0.1778 -0.0672 -0.0387
27002W        W27866  20.345  23.286   6.656 -0.2259  0.2158  0.0205
27003W        W27867  25.086  16.121  16.462  0.2991  0.1440  0.3037
27004W        W27868  26.461   7.389   5.225 -0.0337 -0.2817 -0.2748
27005W        W27869  17.598  22.287  23.917  0.1811  0.0931 -0.1766
27006W        W27870   9.169   7.573  13.045 -0.1950  0.2252 -0.2212
27007W        W27871  11.206   5.397  24.836 -0.3017 -0.1327 -0.1217
27008W        W27872   3.815  20.447  23.651 -0.1553  0.0589 -0.0740
27009W        W27873  21.111   0.938  12.364 -0.0640 -0.1566  0.0891
27010W        W27874  18.396   1.678  11.695 -0.0073 -0.0278 -0.0481
27011W        W27875  26.284  17.057  22.065  0.1131  0.3581  0.1193
27012W        W27876   6.335  14.035  24.052 -0.2158 -0.0450 -0.1145
27013W        W27877   8.862   5.589   9.740  0.1158 -0.3483 -0.0152
27014W        W27878   1.134   6.484  17.325 -0.2297 -0.1162 -0.0997
27015W        W27879  27.922  28.140  19.955  0.2928  0.2381 -0.1865
27016W        W27880   8.230   7.250   7.007  0.0811  0.3753  0.0956
27017W        W27881   6.533   1.129   9.378 -0.0559  0.1093  0.2413
27018W        W27882  13.278  28.705  27.162 -0.1699 -0.1251 -0.1699
27019W        W27883   2.638   9.779  13.416 -0.0095 -0.0675  0.0344
27020W        W27884  11.123  26.826  20.306  0.0161 -0.1821  0.1215
27021W        W27885   0.977  28.988  19.936  0.0281 -0.2162 -0.0186
27022W        W27886  20.054   8.001   9.714 -0.1788  0.1795 -0.2105
27023W        W27887  23.639   9.917  23.925  0.1290  0.0153 -0.0895
27024W        W27888  28.568   5.837   3.734 -0.3066  0.2726  0.0710
27025W        W27889   8.598  27.189   9.772  0.1834  0.1331 -0.3402
27026W        W27890  29.144  25.195  12.484  0.2050 -0.1280  0.2524
27027W        W27891   8.734  11.064   0.532 -0.0365  0.2155  0.2524
27028W        W27892   3.348   4.505  13.113 -0.2241  0.0894 -0.1881
27029W        W27893  16.968   6.356  10.179 -0.0148 -0.2032 -0.0913
27030W        W27894   9.388  22.370   9.834  0.3661  0.1235  0.1132
27031W        W27895  11.931  23.163  19.284 -0.1075 -0.0123  0.0997
27032W        W27896  11.613   5.882  14.723  0.2342 -0.2126  0.2697
27033W        W27897  12.813   5.816   9.573  0.0515  0.1232 -0.3594
27034W        W27898  27.293   7.081   5.693 -0.2222 -0.0514 -0.3304
27035W        W27899   3.142  11.509  28.123  0.0328 -0.0202 -0.0273
27036W        W27900  18.418   3.939  21.330  0.1933 -0.1024  0.0486
27037W        W27901  27.389  23.679  17.926 -0.1709  0.2693 -0.1291
27038W        W27902   3.486  22.207   7.499  0.1263 -0.1819  0.2110
27039W        W27903   8.056  16.043   8.936 -0.2556  0.1122 -0.3106
27040W        W27904  25.966  20.253  24.754  0.2817 -0.1132 -0.0846
27041W        W27905  19.441  26.319  20.648  0.1850 -0.0557  0.0325
27042W        W27906  26.784  24.699  17.772 -0.1927  0.0350  0.0734
27043W        W27907  20.817  10.999  12.224 -0.0442  0.1885  0.0196
27044W        W27908   5.081  22.985  19.177 -0.1532  0.0731  0.1156
27045W        W27909  14.949  11.030  14.266 -0.0249 -0.4211  0.3498
27046W        W27910  14.481  12.659  14.868  0.1949 -0.0558  0.0902
27047W        W27911   5.996   7.085  15.537 -0.0395  0.1858 -0.0061
27048W        W27912  19.952   1.616  16.147 -0.0204 -0.0877  0.2742
27049W        W27913  13.587  11.278  12.437  0.1801  0.0658 -0.2381
27050W        W27914  17.509   3.848  17.024 -0.2667  0.2184 -0.0003
27051W        W27915  22.971   2.925   2.941  0.3685 -0.1334  0.1141
27052W        W27916  18.128   2.728  15.944 -0.1605 -0.2079  0.1589
27053W        W27917   1.747   9.124  10.853 -0.0802  0.1892  0.1228
27054W        W27918  26.151  24.591  24.620 -0.1167  0.3758  0.0434
27055W        W27919   3.123   8.059   8.616  0.0373 -0.0979  0.1465
27056W        W27920   1.531   6.045  11.304 -0.3231  0.1824  0.0448
27057W        W27921   9.369  13.639   6.394  0.1788 -0.2449 -0.2708
27058W        W27922  16.423  20.245  22.839 -0.0142  0.2227 -0.1177
27059W        W27923  14.997  23.169   6.813 -0.1986  0.1768  0.1189
27060W        W27924  20.213  15.023   0.270 -0.3419 -0.1057  0.0793
27061W        W27925   3.772   6.302  25.296  0.1426  0.3223  0.2871
27062W        W27926   7.320   4.648  23.211 -0.3736  0.0160 -0.0444
27063W        W27927  25.536   3.677  17.948  0.1702 -0.1672 -0.0652
27064W        W27928  14.085  24.426  10.913 -0.0971 -0.2055 -0.2153
27065W        W27929   7.505   9.198  15.658 -0.1879 -0.5141  0.1521
27066W        W27930   1.267   5.950   4.142 -0.2019 -0.2460  0.0756
27067W        W27931   7.864   3.511  22.617  0.2077  0.1370 -0.1536
27068W        W27932   7.492   0.939  17.799  0.1286  0.0803  0.1154
27069W        W27933   2.955  10.368  20.945  0.0314  0.0067 -0.1115
27070W        W27934  24.387  27.325  24.394  0.1233 -0.0708 -0.2332
27071W        W27935   5.176  17.928   0.929 -0.2046 -0.2003  0.0711
27072W        W27936   1.547   1.342  16.936  0.3700 -0.1242 -0.0587
27073W        W27937  10.785   8.276   6.068  0.1186 -0.1299 -0.1704
27074W        W27938   0.866  13.268   7.047  0.1066  0.0054 -0.1965
27075W        W27939   4.561   5.770  20.094 -0.1565 -0.1574 -0.1671
27076W        W27940   8.958   7.010  27.420  0.2603  0.2860  0.1487
27077W        W27941  12.128   6.233  16.737  0.1486 -0.0993 -0.0350
27078W        W27942   9.168  12.901   6.658  0.0356 -0.0761 -0.4479
27079W        W27943  11.033  22.842   2.417 -0.1425 -0.3128  0.1390
27080W        W27944  26.093  26.897  16.136  0.0220  0.0495  0.1135
27081W        W27945  25.933   9.559  11.761  0.1563  0.3448  0.1230
27082W        W27946  27.427  17.494   0.066  0.0361 -0.2122  0.3578
27083W        W27947  14.257  10.776  22.160 -0.0488  0.3230  0.4718
27084W        W27948  24.848   5.541  26.085 -0.1471 -0.4220 -0.1011
27085W        W27949  13.731   4.503  25.044  0.2255 -0.1499 -0.0781
27086W        W27950  28.697   4.556  23.793  0.0852  0.0583  0.1940
27087W        W27951  24.430  13.254   4.927 -0.1395 -0.0420 -0.3146
27088W        W27952  22.627  10.105  11.438  0.1236 -0.1922 -0.1570
27089W        W27953   3.710  26.805  20.981  0.0413  0.0649 -0.1870
27090W        W27954   3.718   0.387   9.723 -0.0242 -0.1429 -0.0347
27091W        W27955  13.713  28.467  21.621 -0.1909 -0.0507  0.0744
27092W        W27956  23.046  11.798  13.366 -0.2418  0.0171  0.1446
27093W        W27957   8.035   2.517  14.856  0.0872  0.1745  0.1563
27094W        W27958  12.758   1.730  17.768 -0.1825 -0.0352 -0.0534
27095W        W27959   6.484  20.766  28.639  0.1505  0.1536 -0.1253
27096W        W27960  24.507  12.122  22.424  0.1731 -0.2276 -0.4184
27097W        W27961  18.241  15.528  10.968 -0.1363 -0.1271 -0.0684
27098W        W27962  21.377   4.334  17.317  0.2229 -0.0315 -0.2520
27099W        W27963   7.256   3.098  10.987 -0.1822 -0.2383  0.0181
27100W        W27964  14.177   2.914  14.071  0.0986  0.2033  0.0120
27101W        W27965   0.434  17.445   6.446  0.1247 -0.1199  0.2329
27102W        W27966   8.516  23.529  17.104 -0.0661 -0.2062 -0.0522
27103W        W27967  18.555   9.355  10.135  0.2004  0.0033 -0.0103
27104W        W27968   7.648  22.805   5.997 -0.0762 -0.0826 -0.0184
27105W        W27969   9.118   1.827   5.236  0.2248  0.1543  0.1339
27106W        W27970  20.071   2.886  19.061 -0.3134  0.3006 -0.0958
27107W        W27971   6.981  25.274  21.928 -0.0972  0.1605 -0.0531
27108W        W27972  23.252   5.024  17.821  0.0240 -0.0451  0.0829
27109W        W27973   4.178  25.851  21.791 -0.0595 -0.1739  0.0091
27110W        W27974  16.960   1.791  22.069  0.2318 -0.1933  0.1943
27111W        W27975   6.672  11.050  24.030 -0.0391 -0.2472  0.1687
27112W        W27976   5.983  12.798  20.541  0.0471  0.1550 -0.0783
27113W        W27977  20.072  15.244  20.024 -0.0573 -0.1058 -0.0309
27114W        W27978  18.892  13.993  23.936  0.0727  0.4571  0.2093
27115W        W27979   6.896   8.369  17.912  0.2553  0.2620 -0.1875
27116W        W27980  11.052   5.249  20.447 -0.1514  0.1520  0.0625
27117W        W27981  26.582   2.198   7.282  0.0259 -0.0191  0.1187
27118W        W27982   1.097   5.866  14.267  0.0728  0.0230 -0.2381
27119W        W27983  21.124  28.367  24.137 -0.0176  0.0248 -0.1603
27120W        W27984  19.104  29.073   0.982 -0.1052 -0.1586 -0.1018
27121W        W27985  16.875  24.809  28.248 -0.1928 -0.3167  0.1560
27122W        W27986   8.034   8.607  20.812 -0.1003  0.0386 -0.4512
27123W        W27987  23.806  15.811  12.867  0.2290 -0.0242  0.0646
27124W        W27988  12.346   7.453  23.110 -0.0487  0.2603 -0.1010
27125W        W27989  20.455  24.650  21.701  0.2165 -0.2262  0.1552
27126W        W27990   4.787   1.974   3.674  0.1686 -0.0777 -0.1011
27127W        W27991  12.630  11.604  23.612 -0.0763  0.2024  0.0282
27128W        W27992  22.909   2.063  20.265 -0.0056 -0.1805  0.2455
27129W        W27993  27.735  26.495  11.161 -0.0376  0.1947  0.3049
27130W        W27994  26.147  16.513  21.975  0.3078  0.0853 -0.1390
27131W        W27995   4.515  19.967  20.433  0.0482 -0.0729  0.2471
27132W        W27996  13.812   2.648  27.727 -0.2200  0.0382  0.2160
27133W        W27997   1.353   0.403   2.050  0.0677 -0.0389  0.3321
27134W        W27998   3.132  22.182  11.934  0.0922  0.1667  0.0607
27135W        W27999  28.218  28.305   7.491  0.0578  0.3695  0.3699
27136W        W28000  20.259   6.717  28.969 -0.1336 -0.1560  0.1636
27137W        W28001   8.851   9.462   8.110 -0.0521 -0.0740 -0.1200
27138W        W28002   9.643  11.141   9.959 -0.0534 -0.4717  0.0352
27139W        W28003  25.346  24.844  25.694 -0.2077 -0.2099 -0.1260
27140W        W28004  17.976  24.356  18.226  0.1080 -0.0741 -0.0683
27141W        W28005  25.033  23.466   5.247  0.0009 -0.1151 -0.0956
27142W        W28006  16.404   0.628  17.456 -0.2638 -0.0260  0.0210
27143W        W28007   3.860   0.076  15.426  0.1002  0.0940  0.0443
27144W        W28008   8.901  13.275   2.907 -0.1460  0.0082  0.1318
27145W        W28009   8.675   8.758  16.370  0.3140 -0.0053  0.1028
27146W        W28010  22.884  16.852  14.925  0.0295  0.0668 -0.0912
27147W        W28011  16.026   2.740   6.507 -0.3251  0.2182  0.0884
27148W        W28012  14.362  21.252   4.934  0.0951  0.3086 -0.2379
27149W        W28013  16.374  13.345  21.938  0.1856  0.3022  0.0814
27150W        W28014   5.235  23.348  22.667 -0.0192 -0.0222  0.1533
27151W        W28015  24.268  13.800   3.054  0.0877  0.3274 -0.0172
27152W        W28016  22.859   1.454  21.126 -0.1984 -0.0528  0.2135
27153W        W28017  26.627   0.356   7.047 -0.0081 -0.1265 -0.1977
27154W        W28018  14.937  23.391  12.499 -0.0080  0.0819 -0.0407
27155W        W28019  14.277   7.482  20.576  0.0691 -0.3709  0.2431
27156W        W28020   1.925   6.276  10.797 -0.1652  0.2315 -0.0348
27157W        W28021   4.782  18.249   8.549 -0.2567 -0.0047  0.2502
27158W        W28022   9.461  27.067   1.279 -0.2360  0.1879  0.2153
27159W        W28023   1.546   0.973  27.587  0.1930 -0.0558 -0.1115
27160W        W28024  13.072   3.035   0.207 -0.0741 -0.2241 -0.0116
27161W        W28025   0.382   5.001  13.408  0.1680 -0.0027  0.1389
27162W        W28026  25.212  25.919  27.108  0.1040 -0.0359  0.0486
27163W        W28027  19.374  24.997  22.531 -0.1053  0.3686 -0.1052
27164W        W28028   7.852   1.616  16.430 -0.0509 -0.0259 -0.2252
27165W        W28029  13.015  11.497   4.623  0.1596 -0.2425  0.2085
27166W        W28030   3.895   3.818  11.988 -0.0252 -0.2555  0.2483
27167W        W28031  10.065  28.444   7.522 -0.5714  0.3194  0.1881
27168W        W28032   9.450   8.061   4.282 -0.2534  0.0244  0.1082
27169W        W28033  19.290  28.874  24.503 -0.0260  0.2009  0.0745
27170W        W28034   3.758  24.828  14.089  0.0536 -0.1992 -0.1716
27171W        W28035  23.373   4.995   8.407  0.0339 -0.2456  0.0082
27172W        W28036   5.180   8.238  28.967 -0.0238  0.0949  0.1738
27173W        W28037  23.333   1.892   0.616 -0.0672 -0.1271 -0.2295
27174W        W28038   3.236  22.092  24.990 -0.0507  0.3387  0.0617
27175W        W28039  19.797  11.254  17.846 -0.3902  0.2244 -0.0034
27176W        W28040  26.949  24.245   8.359  0.2214 -0.1446  0.3005
27177W        W28041  19.798  26.122   7.875 -0.1794 -0.1483  0.0535
27178W        W28042  24.658  22.584   7.605  0.1453  0.0630 -0.2047
27179W        W28043  12.174   0.898   7.821  0.3158 -0.2852 -0.4548
27180W        W28044   5.082   7.064  18.750 -0.0201 -0.0557 -0.0429
27181W        W28045  11.120  24.224  20.960 -0.0591 -0.1064 -0.1228
27182W        W28046   1.024  27.250  12.310  0.1597  0.2872 -0.1266
27183W        W28047  11.813  19.586  16.093 -0.1180  0.0482 -0.0600
27184W        W28048   1.856   8.742  27.206 -0.1218  0.2709  0.1004
27185W        W28049   6.465  24.514   9.467 -0.4285 -0.1008  0.0827
27186W        W28050  28.087  15.076   6.250  0.2962 -0.0047 -0.2131
27187W        W28051   0.222   5.496  20.858 -0.1034  0.3403  0.3358
27188W        W28052  10.747   7.214  22.338 -0.3396  0.0277  0.1966
27189W        W28053  11.115  21.494   5.335  0.3688 -0.3654  0.1815
27190W        W28054  22.925  25.590  12.973  0.1358 -0.2053 -0.2414
27191W        W28055   8.918  23.120  28.747 -0.2488  0.4969  0.0646
27192W        W28056   6.643   5.302  27.069  0.2003  0.0503 -0.0342
27193W        W28057  19.597  27.899   8.647 -0.4376  0.1586  0.0986
27194W        W28058  13.230  20.832  18.283  0.4157  0.0501  0.0017
27195W        W28059   8.067  28.996  12.244  0.0063 -0.2357  0.0320
27196W        W28060   2.753  19.625   8.160 -0.0843  0.0563 -0.1844
27197W        W28061   8.356  21.903  26.271  0.1397  0.3416 -0.0308
27198W        W28062  24.975  27.318  10.908 -0.3608 -0.0283 -0.1716
27199W        W28063  18.660  26.939  11.115  0.3638  0.0692  0.2245
27200W        W28064   9.036   0.340  13.337 -0.4560  0.4458  0.1800
27201W        W28065  29.026  11.575  11.899  0.3752  0.2888  0.1474
27202W        W28066   0.995  27.296   7.419 -0.0231  0.0854  0.0457
27203W        W28067   6.332  19.983  23.257 -0.1283  0.1794 -0.1464
27204W        W28068   0.964  13.750   6.830 -0.2429  0.1368  0.0453
27205W        W28069   5.513   6.597  23.017 -0.1727  0.1018 -0.0487
27206W        W28070  16.240  19.453   7.518  0.0758 -0.0666  0.1144
27207W        W28071  27.536   0.854   9.931  0.1517 -0.1797  0.2124
27208W        W28072   2.303  19.643  22.320  0.1315 -0.0927  0.0312
27209W        W28073  11.669   7.426  18.373 -0.3271 -0.0516  0.1982
27210W        W28074  19.925  28.079  15.877  0.2998 -0.1134 -0.0685
27211W        W28075  17.134   9.542  14.909 -0.0596 -0.3255  0.5634
27212W        W28076   4.180   9.698  12.135  0.1224 -0.0939  0.1883
27213W        W28077  11.359   6.648  21.645  0.0202  0.1424  0.0788
27214W        W28078  27.376  20.821  22.525  0.1917 -0.0503  0.1084
27215W        W28079  24.260  20.077   9.100 -0.3788  0.0300  0.0354
27216W        W28080  16.538  25.530  20.849 -0.4911 -0.1635  0.2350
27217W        W28081  17.532   9.408  22.745 -0.0978  0.1963 -0.2648
27218W        W28082  11.561   7.253  12.411 -0.2959 -0.1085  0.2098
27219W        W28083   9.010  27.043   4.470  0.2663 -0.3753  0.0481
27220W        W28084  24.670   5.367  28.307  0.1186 -0.0320  0.1545
27221W        W28085  18.976  14.951  18.673 -0.2151 -0.1183 -0.0092
27222W        W28086   9.864  27.497  18.018  0.4069 -0.2246 -0.0714
27223W        W28087  25.718  27.625  19.099 -0.1172  0.1059 -0.1086
27224W        W28088  28.347   2.925  16.800 -0.0228 -0.1784  0.0531
27225W        W28089  13.413   9.727   6.789  0.2216  0.3553  0.3680
27226W        W28090  10.610   4.964   6.132  0.2631  0.3816  0.0726
27227W        W28091  15.888  13.290  19.596 -0.0758 -0.0568 -0.2365
27228W        W28092  24.238   2.963  15.754  0.1325  0.3211 -0.0869
27229W        W28093   1.926   5.667  20.571  0.1575  0.0557 -0.0743
27230W        W28094   0.448  15.919  20.418 -0.0887 -0.2955 -0.1693
27231W        W28095  28.824   4.115   1.454  0.1397  0.2756  0.3752
27232W        W28096   2.482   3.078  23.127  0.2946 -0.0213 -0.0001
27233W        W28097  24.866   3.201  20.093 -0.2200  0.1593 -0.0500
27234W        W28098  28.739   2.284  13.987 -0.0287  0.0332 -0.0358
27235W        W28099  18.636  13.209  22.877  0.2163 -0.2098 -0.6131
27236W        W28100   6.527   3.642  19.683 -0.3804  0.0869 -0.1601
27237W        W28101   6.865  27.144  12.895 -0.1473 -0.1758  0.0457
27238W        W28102  28.772  26.383   7.479 -0.1289  0.2446  0.0545
27239W        W28103  20.464   6.247   2.231 -0.2344 -0.0699 -0.0867
27240W        W28104   2.324   8.356   3.335  0.1786  0.2556  0.0527
27241W        W28105  16.803   4.045   3.269 -0.0898 -0.1940  0.1509
27242W        W28106  27.881   6.861  14.697  0.0053  0.1072 -0.1372
27243W        W28107  18.975  29.036  11.575 -0.3654  0.0670  0.2284
27244W        W28108  14.561  13.547   0.415  0.0335 -0.0074  0.1510
27245W        W28109  28.516   6.726   7.218  0.1669  0.1622  0.1364
27246W        W28110  11.833  10.743  21.883 -0.2691 -0.2373 -0.0569
27247W        W28111  10.618  22.511  28.031  0.1961 -0.1356 -0.2052
27248W        W28112  19.759   2.494  21.384  0.2109 -0.2907 -0.1383
27249W        W28113   6.334  11.129   2.379 -0.2314 -0.0203 -0.1268
27250W        W28114   1.261   2.358  10.188 -0.2417  0.4708  0.1024
27251W        W28115  24.764  15.712   0.216  0.0636 -0.0911  0.1036
27252W        W28116   1.594  26.030  24.538  0.2985  0.0402 -0.0735
27253W        W28117  23.839   8.380  12.259  0.0599 -0.1101 -0.1240
27254W        W28118   6.206  13.589   6.371 -0.1951 -0.2137 -0.0346
27255W        W28119   4.004   9.534  23.677 -0.0868  0.0468  0.1124
27256W        W28120  27.925  23.368   3.677  0.0148 -0.0309 -0.2401
27257W        W28121  13.889  18.077  26.499  0.0037 -0.1260  0.0050
27258W        W28122  22.657   8.308  23.568  0.0802  0.1604 -0.2020
27259W        W28123   1.066  27.741  23.174  0.1041 -0.3310 -0.0728
27260W        W28124  26.606  13.940  25.704 -0.0893  0.2158  0.0611
27261W        W28125   6.148  28.271   8.987 -0.1439  0.2012  0.2372
27262W        W28126   4.972  14.262  11.512  0.2855 -0.0040  0.3461
27263W        W28127   6.300   1.445  28.348  0.1231  0.3110 -0.1732
27264W        W28128  10.274   8.392   5.866  0.1423 -0.1453  0.0328
27265W        W28129  16.305   8.492  14.245  0.0240  0.2626  0.0113
27266W        W28130  23.904  15.552  28.063 -0.0190 -0.1332 -0.1214
27267W        W28131   5.129  18.366  14.191 -0.0226  0.0589 -0.0700
27268W        W28132   5.568  10.755  20.126  0.2044 -0.0025 -0.1294
27269W        W28133   5.763   3.239  14.796 -0.0384  0.2957  0.0543
27270W        W28134  16.386   9.985  16.096  0.3067 -0.2324  0.1052
27271W        W28135   2.510   5.950  17.027  0.0343  0.1362  0.1172
27272W        W28136   0.937   4.160  26.875 -0.1755  0.1223 -0.1354
27273W        W28137   8.104  25.451  14.300  0.0078  0.0186  0.4144
27274W        W28138   6.825  16.329  15.788 -0.2090 -0.0608 -0.0775
27275W        W28139  26.078   6.561   5.333  0.1186  0.1602  0.2706
27276W        W28140  15.834   5.327  12.861 -0.0376  0.1382 -0.3721
27277W        W28141   2.378  22.180  16.355 -0.0278  0.1788  0.0589
27278W        W28142  10.958  27.135  11.969 -0.3165  0.2569 -0.2253
27279W        W28143  23.888   1.446  16.652 -0.2514  0.2671 -0.0345
27280W        W28144  10.784  12.577  19.481  0.0785  0.1665 -0.5554
27281W        W28145  19.838  26.224   8.424  0.3337 -0.0399  0.2058
27282W        W28146   1.641  25.780  16.799 -0.2990  0.0045 -0.0770
27283W        W28147  17.886   8.156  25.834  0.1490 -0.1654  0.1641
27284W        W28148   7.107   8.810  28.527  0.0572 -0.2738 -0.0373
27285W        W28149  22.161  28.732  22.323  0.2137  0.0381 -0.0225
27286W        W28150   1.465   1.233   1.252  0.2722  0.3639 -0.0752
27287W        W28151  12.245   4.761  27.108 -0.1755  0.2017  0.0310
27288W        W28152   5.614  25.027  17.470  0.0650  0.0410 -0.0612
27289W        W28153  28.115  15.823  27.136  0.1441  0.0128  0.2503
27290W        W28154  25.122  28.008   7.688  0.2758 -0.0934 -0.4232
27291W        W28155  25.923  12.853   9.583 -0.2414  0.1575  0.1128
27292W        W28156  12.403   2.623  18.824  0.2102 -0.4450 -0.2898
27293W        W28157   1.477   4.536  27.431  0.1282 -0.1837  0.1821
27294W        W28158  20.901  13.886   3.128 -0.1366  0.0774  0.0309
27295W        W28159   0.010   3.966   1.018 -0.0707  0.3750  0.0533
27296W        W28160  28.919  18.006   8.144  0.1975  0.0552  0.2005
27297W        W28161  18.035  18.973   5.332 -0.1004  0.1263 -0.1651
27298W        W28162  17.369   5.251   5.634  0.0790  0.1267 -0.0036
27299W        W28163   1.611   6.740  15.182  0.0301 -0.1200  0.1229
27300W        W28164  27.921  23.676   6.990 -0.1542 -0.2266 -0.0676
27301W        W28165  27.528  13.513   9.684  0.0451 -0.0154  0.1098
27302W        W28166  19.660   0.592  21.114 -0.2585 -0.0679  0.1482
27303W        W28167   2.512  21.316  26.096 -0.0340  0.0725 -0.0797
27304W        W28168  24.442  21.769  25.461 -0.1252 -0.2804 -0.1386
27305W        W28169  14.826   1.651  13.941 -0.0128  0.0320 -0.3059
27306W        W28170  17.336   3.713  26.545 -0.1746 -0.3085 -0.2829
27307W        W28171   0.133  14.034  19.391  0.0240 -0.3816 -0.0625
27308W        W28172  24.744   7.790   8.273  0.0180 -0.1168  0.0307
27309W        W28173   2.983  16.087  18.946  0.0533 -0.1737  0.0511
27310W        W28174  22.821  19.148  14.308  0.0894  0.1016 -0.3051
27311W        W28175  12.397  28.902  21.815  0.2608 -0.2505  0.1485
27312W        W28176  21.780   1.046  25.310  0.0448  0.0635  0.1912
27313W        W28177   7.308   6.510  16.808 -0.2881 -0.3120  0.1686
27314W        W28178   1.818  20.262  25.859  0.0907  0.2592 -0.1249
27315W        W28179  24.938   3.425  28.380  0.4509 -0.1123  0.1386
27316W        W28180  28.516   4.388   7.537 -0.1943 -0.2518  0.0226
27317W        W28181   9.764  15.463   4.742  0.2284  0.0306 -0.0648
27318W        W28182   5.501   2.369   8.434 -0.1619 -0.1533  0.1029
27319W        W28183   2.493  15.695  14.460 -0.0496  0.2452  0.1058
27320W        W28184   2.900   0.553   4.931 -0.3452  0.2219  0.0213
27321W        W28185  27.153   9.599  22.513  0.0702 -0.2191 -0.1274
27322W        W28186  26.663   6.770  21.000  0.0462 -0.0897 -0.1661
27323W        W28187   4.148   8.034  10.085  0.1530 -0.2184  0.1033
27324W        W28188  24.078  23.158  23.743  0.1769 -0.0985 -0.1752
27325W        W28189  16.963  25.253  27.912  0.2077  0.3238 -0.0480
27326W        W28190  19.684  18.771   8.349 -0.1213 -0.1792 -0.2912
27327W        W28191  16.150   2.766  14.414 -0.3023 -0.1145  0.3994
27328W        W28192  27.870  23.553  14.430  0.1127  0.0386 -0.4719
27329W        W28193  26.437   7.541   2.547 -0.0091 -0.0340 -0.3179
27330W        W28194  10.744  23.532   0.427 -0.1055 -0.0093 -0.1730
27331W        W28195  27.105  12.895  19.433  0.1373  0.2190  0.0081
27332W        W28196  19.757  22.135   2.619 -0.0790  0.1999 -0.1226
27333W        W28197  26.617  23.291   4.327 -0.3186  0.0264  0.2043
27334W        W28198   7.095  14.965   4.309 -0.0578  0.0224 -0.2182
27335W        W28199  21.704  11.047  17.020 -0.2087  0.0574  0.2430
27336W        W28200   4.220  19.957   8.920 -0.2584 -0.1395 -0.1063
27337W        W28201  17.870   4.030  19.506 -0.2042 -0.0557 -0.0907
27338W        W28202   7.107  12.474  12.715  0.2386  0.1323  0.1433
27339W        W28203  26.664   7.404   0.971 -0.0801 -0.2084 -0.2290
27340W        W28204  20.292   5.462   8.270 -0.1620  0.0741  0.4105
27341W        W28205  23.222  22.838  10.079  0.0105  0.1828 -0.0759
27342W        W28206   9.975  20.954  14.307  0.0052  0.0783  0.2503
27343W        W28207   7.446  21.791  26.504  0.0980 -0.2821  0.1548
27344W        W28208   4.950  19.248  15.329 -0.0889  0.2661  0.1748
27345W        W28209   1.799  25.835  12.986 -0.1733  0.1178 -0.2972
27346W        W28210  24.701  23.688   8.425  0.0239 -0.1523 -0.1216
27347W        W28211  12.002  28.140  19.310  0.1936  0.1803  0.1027
27348W        W28212   5.727   9.271  15.302  0.1338 -0.2576  0.0217
27349W        W28213   3.961  14.104  19.140 -0.0395 -0.1609 -0.0646
27350W        W28214  12.003  20.551  10.830 -0.0256 -0.1871 -0.2550
27351W        W28215  26.423  11.970  25.019  0.1802  0.2653 -0.1425
27352W        W28216   5.383   6.636  13.921 -0.1367  0.1763  0.0633
27353W        W28217  22.350  22.339   5.708  0.0527  0.0394  0.1318
27354W        W28218   8.368  18.820   8.431  0.1003 -0.3017  0.0887
27355W        W28219  28.184  13.755  25.540 -0.1451 -0.1196  0.1049
27356W        W28220  25.452  21.897  17.577  0.4167 -0.2944  0.0489
27357W        W28221  20.630  28.659   5.716 -0.0878  0.1507  0.0423
27358W        W28222  22.654   2.815  17.949 -0.0114  0.1583 -0.0950
27359W        W28223   7.684  21.932  21.621 -0.3260  0.0266 -0.0337
27360W        W28224   2.939   9.350   7.004 -0.0004  0.1117  0.2193
27361W        W28225   4.378  10.432  10.467 -0.0039 -0.0901  0.3385
27362W        W28226  17.589  25.562   0.170 -0.0844 -0.2760 -0.0282
27363W        W28227   1.830   6.332   7.273 -0.0389  0.1993 -0.1580
27364W        W28228  28.818  26.087   5.895  0.0503 -0.0928 -0.0245
27365W        W28229   9.332  24.179  28.231 -0.0285  0.0019  0.1174
27366W        W28230  22.270  18.033  17.151 -0.1254  0.1939 -0.0130
27367W        W28231  22.079  18.565   0.752 -0.0511  0.0657  0.0743
27368W        W28232  10.515   4.113   0.581  0.0812 -0.3388 -0.0640
27369W        W28233  20.531   9.325  16.357  0.1155  0.1391  0.0747
27370W        W28234  22.732  16.015   7.294 -0.0614  0.0171 -0.0494
27371W        W28235  21.376  16.514   9.053  0.1527  0.0927 -0.0306
27372W        W28236   7.583   5.844  10.245 -0.1206  0.1416  0.2659
27373W        W28237   9.113  27.986  15.537 -0.0203 -0.0063  0.0346
27374W        W28238  26.552  27.207  12.029  0.0166  0.2076  0.0714
27375W        W28239  15.373  22.420   3.394  0.0663  0.0764  0.0203
27376W        W28240  12.597   9.193   8.213  0.3931  0.0835 -0.2685
27377W        W28241  19.983  24.836  10.627  0.1719 -0.1725  0.1979
27378W        W28242  25.269  13.008  18.742 -0.0748 -0.3744  0.1819
27379W        W28243   9.240  15.020  24.606  0.2361 -0.0508  0.0236
27380W        W28244  22.910  20.694  15.432 -0.0900 -0.1749  0.1048
27381W        W28245   1.399  25.779   8.920  0.2257  0.0498  0.0275
27382W        W28246   6.951   7.780  24.007  0.3034  0.0825  0.0078
27383W        W28247   5.603  10.309   9.386 -0.2274 -0.0655  0.0758
27384W        W28248   2.736  16.297  25.640 -0.1675 -0.0757  0.2674
27385W        W28249   4.189  24.381  26.338  0.0104  0.0170 -0.0844
27386W        W28250   7.133   3.165  19.100  0.0455  0.2023  0.3610
27387W        W28251   4.863  12.508  10.806  0.1692  0.2908  0.1784
27388W        W28252  27.645  24.047   1.420  0.1173  0.0482 -0.1750
27389W        W28253   0.616  27.241  16.461  0.1156  0.4605 -0.0313
27390W        W28254   3.704   1.439  17.796  0.2169  0.1616 -0.1417
27391W        W28255   2.406  13.786   0.961  0.1699 -0.0499 -0.3231
27392W        W28256  21.809  22.179   5.448 -0.0440  0.1355  0.2107
27393W        W28257  12.805   8.832  19.571 -0.0869 -0.0201  0.1612
27394W        W28258   8.534  17.433  26.990 -0.1609  0.1217 -0.1025
27395W        W28259  19.014  23.229  27.112  0.0306 -0.1281 -0.0133
27396W        W28260  15.748  13.500   2.878 -0.0144 -0.2419 -0.1881
27397W        W28261  23.606  24.372   9.283 -0.1141 -0.0075 -0.4172
27398W        W28262  11.356  27.046   7.908 -0.1130  0.0239 -0.0673
27399W        W28263  25.679  27.437  14.864 -0.1697  0.0399 -0.1143
27400W        W28264  21.570   3.902  14.646 -0.2603  0.2337 -0.1482
27401W        W28265  23.691   4.528  27.710 -0.0103 -0.0865 -0.1479
27402W        W28266   9.757   0.999   0.718  0.1679  0.1749 -0.1558
27403W        W28267   3.814   0.124  24.583 -0.2211  0.2175  0.0083
27404W        W28268  28.903   6.316  20.209  0.2684  0.0059  0.1237
27405W        W28269  10.743   2.928  23.101  0.0480  0.2156  0.0404
27406W        W28270   5.650   2.215  13.018 -0.0401  0.1423  0.1762
27407W        W28271  24.541  22.720  18.087 -0.0658 -0.0598 -0.2392
27408W        W28272   2.111   0.006  22.263 -0.1611 -0.1146  0.1862
27409W        W28273  27.601   6.037  13.017 -0.2077  0.2544  0.0514
27410W        W28274   6.173   6.888  13.230  0.0109  0.0173  0.0843
27411W        W28275  17.473  27.859   3.687  0.0050  0.0413  0.0101
27412W        W28276  28.140  27.352  16.607  0.0625  0.2774  0.2889
27413W        W28277   6.616  28.045  13.880  0.4466 -0.0263 -0.0025
27414W        W28278   5.280   7.975  18.232 -0.0207  0.2729  0.1977
27415W        W28279  22.811   5.020  27.965 -0.3124 -0.2544 -0.3723
27416W        W28280  24.521   9.437   2.844  0.0482  0.2044  0.1681
27417W        W28281   5.477  22.991  16.614  0.0418 -0.1472  0.0677
27418W        W28282  12.312   2.208   9.298  0.1067 -0.1077 -0.1459
27419W        W28283  11.207   2.919  20.512 -0.2497 -0.1051 -0.0125
27420W        W28284   5.478  14.118  12.145 -0.0492 -0.1428 -0.3098
27421W        W28285   8.523   8.034  10.547  0.2005  0.4611 -0.2002
27422W        W28286   9.162  13.491  17.227 -0.0097 -0.1783 -0.0857
27423W        W28287  28.088  15.370  20.577 -0.1745  0.0621  0.0543
27424W        W28288   4.561   9.145   9.143 -0.1241 -0.1631  0.3188
27425W        W28289  11.313  19.015   4.169  0.0944  0.1711  0.0318
27426W        W28290  12.112  17.625  26.461 -0.0926  0.0931 -0.2530
27427W        W28291  15.822  19.440  10.266 -0.3312  0.3140  0.1518
27428W        W28292  24.831   4.064   4.060  0.1117 -0.1603  0.1065
27429W        W28293   9.440   5.221  27.480  0.0046 -0.1847 -0.0632
27430W        W28294   1.440  21.790  16.104  0.1661 -0.1527 -0.2759
27431W        W28295  14.528  15.790  12.222 -0.1883 -0.2920  0.1241
27432W        W28296   0.336   5.895  23.293 -0.3490 -0.3189 -0.1304
27433W        W28297   3.755  10.912   0.467  0.0174 -0.1963 -0.1753
27434W        W28298  12.172   5.129  22.566 -0.2769  0.3006  0.3172
27435W        W28299  19.994   2.206  29.046  0.0636 -0.1905  0.2241
27436W        W28300   4.769   0.400  12.470  0.2739 -0.3650 -0.2139
27437W        W28301  22.237   0.906  16.017 -0.1541  0.0862 -0.2401
27438W        W28302  16.183  17.931  17.899 -0.2040  0.1323  0.0482
27439W        W28303   8.076   6.248  10.237  0.0536  0.2790  0.2161
27440W        W28304   5.604   3.790   5.292 -0.0316 -0.2127 -0.0392
27441W        W28305  27.550   1.913   6.482  0.1372  0.0746 -0.0238
27442W        W28306   4.483   5.324  24.692 -0.1027  0.1811  0.1619
27443W        W28307  18.013   4.836   5.304 -0.0313 -0.0171 -0.1334
27444W        W28308   2.013  27.583  16.424  0.0816  0.1508 -0.1168
27445W        W28309   2.436  27.915  20.180  0.3717  0.3179  0.0178
27446W        W28310  11.943   3.967   8.587 -0.2614 -0.1888  0.2919
27447W        W28311   7.418  26.761   9.864 -0.3007  0.2116 -0.0356
27448W        W28312   9.160   8.652   3.752  0.1335  0.3690 -0.0381
27449W        W28313   3.675   6.423  18.331 -0.0999  0.0969 -0.4060
27450W        W28314   9.706  21.275  12.264  0.0613 -0.1449  0.2452
27451W        W28315  17.896  23.044  24.591 -0.1657  0.0639  0.2883
27452W        W28316  12.207  27.546  18.924 -0.0884  0.0346  0.0310
27453W        W28317  21.847  20.832  20.005  0.0567  0.1989 -0.1328
27454W        W28318  24.502  29.102   9.847  0.0062 -0.2486 -0.1940
27455W        W28319   4.147   4.926   4.064 -0.3323  0.1890  0.0986
27456W        W28320   0.031   1.911  24.029  0.2141 -0.4776 -0.1461
27457W        W28321  28.729  27.861   5.277 -0.2142 -0.2542  0.0523
27458W        W28322   1.817   8.031  27.645  0.2004  0.2851 -0.1431
27459W        W28323   8.954  28.646  19.990  0.2106 -0.1608 -0.1685
27460W        W28324  24.643  26.450  19.255  0.1248 -0.1553  0.1691
27461W        W28325   3.242  14.672   7.016  0.0403 -0.0971 -0.1189
27462W        W28326   6.220  10.808  12.970 -0.0283 -0.0810  0.1212
27463W        W28327  16.985  28.068  13.294 -0.1186 -0.3343  0.2980
27464W        W28328   6.712  18.970  16.100 -0.1703 -0.2686  0.1390
27465W        W28329  18.023   1.840   6.900  0.1668 -0.0650 -0.1350
27466W        W28330  17.563  10.869  17.626  0.5428 -0.0030 -0.0036
27467W        W28331   3.197   7.714  13.139  0.0955 -0.0782  0.0847
27468W        W28332  13.062   4.965   9.757  0.2565  0.0582  0.0789
27469W        W28333   1.374  11.598   9.616  0.0236  0.1432 -0.2202
27470W        W28334   3.621  19.790  23.469  0.1538 -0.2012  0.1304
27471W        W28335  26.977   4.693  14.739 -0.0168  0.2620 -0.2381
27472W        W28336  15.314  26.716  17.661  0.0271  0.0882  0.1653
27473W        W28337   6.073   5.190  23.969  0.1972 -0.0518  0.3321
27474W        W28338   1.005  15.049   2.790  0.1711 -0.0800  0.2035
27475W        W28339  25.647  25.545  16.556  0.0165 -0.0715 -0.0252
27476W        W28340  23.502  16.102   9.591  0.2631 -0.1359  0.1347
27477W        W28341  27.604  24.534   7.257  0.1148 -0.0882 -0.1397
27478W        W28342  13.882  15.205   5.400 -0.3290 -0.1616 -0.0761
27479W        W28343  10.747  21.210  23.938 -0.2475  0.2077  0.0932
27480W        W28344  22.583  25.232  23.106 -0.0328 -0.0574  0.2040
27481W        W28345   0.534   6.862  11.029  0.1999  0.2319 -0.0576
27482W        W28346  12.301   0.419  23.090  0.0672 -0.1576 -0.0709
27483W        W28347  14.703   0.970  14.923  0.1470 -0.3175 -0.0829
27484W        W28348   2.962  24.095  17.760 -0.0097  0.0419 -0.1173
27485W        W28349  21.162   0.388  25.611  0.0540  0.4567 -0.0156
27486W        W28350  16.015  28.322  17.450  0.0554  0.0727 -0.0832
27487W        W28351  28.779   4.614  28.718 -0.1661  0.2883 -0.1588
27488W        W28352  12.762  10.045   6.103 -0.0134  0.0256  0.1130
27489W        W28353  28.039  15.597   6.078  0.1520 -0.0493 -0.0424
27490W        W28354  10.750  15.207   5.995 -0.2678 -0.1801 -0.0501
27491W        W28355  11.244   2.586  13.543 -0.0158 -0.1397 -0.2045
27492W        W28356  13.320  12.879  24.809  0.0348  0.1388  0.0207
27493W        W28357   1.547   0.546  11.178  0.0287 -0.1082 -0.1551
27494W        W28358  17.578   8.351   8.263  0.1758 -0.3905  0.1574
27495W        W28359   8.070  16.028   7.505 -0.0305 -0.0733  0.1714
27496W        W28360   9.474  16.658   5.408  0.0319  0.0261  0.0211
27497W        W28361  14.598   6.883  10.056 -0.0299 -0.1073  0.1065
27498W        W28362  23.516  28.954  17.043  0.2413  0.4084 -0.2044
27499W        W28363   7.011  20.531  10.879 -0.3372  0.0492  0.0858
27500W        W28364   4.384   7.309   3.037 -0.1726  0.0378  0.1028
27501W        W28365  12.028   4.115   6.395  0.0435  0.0278 -0.0367
27502W        W28366  11.281  24.201  19.874 -0.2553 -0.1342  0.0560
27503W        W28367   1.377   2.547  22.358 -0.1549 -0.2410 -0.0552
27504W        W28368  28.584   1.980  20.732  0.2627  0.1379 -0.0187
27505W        W28369  11.620   7.176  20.565  0.0068 -0.2329  0.0569
27506W        W28370  19.094  18.403   1.599  0.1210 -0.2062  0.0611
27507W        W28371   8.782  25.039   7.547 -0.1548 -0.1070 -0.1094
27508W        W28372  18.543  18.887  17.467 -0.1789  0.3621  0.2995
27509W        W28373  17.932  23.466   8.094  0.0061 -0.2401  0.0474
27510W        W28374   9.390  10.814   1.063 -0.0119 -0.2815 -0.1041
27511W        W28375  29.125  15.650  21.148  0.1735  0.1049 -0.0342
27512W        W28376  10.158  23.002   8.321  0.3286  0.1783  0.2573
27513W        W28377  12.534  10.274  15.916 -0.4213 -0.2636  0.1784
27514W        W28378   8.295  28.629   4.797  0.0303  0.0939 -0.0680
27515W        W28379  10.166  13.380   8.930  0.1613 -0.2204  0.0763
27516W        W28380   8.917   2.343  13.278  0.0539  0.1649  0.0280
27517W        W28381  19.319   2.252  21.971 -0.0121  0.1462  0.0886
27518W        W28382   9.984  21.476  26.717 -0.0197 -0.0520  0.3369
27519W        W28383   7.024  26.870  23.676  0.0684  0.0767 -0.2014
27520W        W28384   3.049   7.772  19.306 -0.4156  0.1662 -0.3423
27521W        W28385   1.433  14.697   7.776 -0.1777 -0.0877  0.2109
27522W        W28386  14.006   3.442  18.225  0.1852 -0.0997 -0.1050
27523W        W28387  27.695   0.126  25.920  0.2188  0.2264 -0.0405
27524W        W28388   5.745   4.642   5.749  0.3990 -0.0688  0.1481
27525W        W28389   7.800  16.395   2.544 -0.1048  0.0261  0.3065
27526W        W28390  11.414   0.456   7.959  0.3482  0.0393  0.1867
27527W        W28391  17.305   0.025  10.576  0.1308  0.3055  0.0903
27528W        W28392   2.692  23.523   5.220 -0.2025  0.1262  0.3622
27529W        W28393  25.961  22.134  24.718 -0.0425  0.1943  0.1189
27530W        W28394   7.439   0.237  28.213 -0.0986 -0.2025  0.0867
27531W        W28395   9.128  24.151  17.485 -0.1667 -0.0307 -0.3796
27532W        W28396   3.596  21.927  17.294  0.1597  0.0664  0.1485
27533W        W28397  20.875  12.143  24.725  0.1782 -0.3415  0.1615
27534W        W28398   6.462   6.877   0.760 -0.2437  0.0082  0.1930
27535W        W28399  28.723   3.248  20.136 -0.0423  0.1036  0.1125
27536W        W28400   9.356  17.030   3.103  0.0933  0.1331 -0.2406
27537W        W28401   2.231   3.787   1.532 -0.0762 -0.1088 -0.0771
27538W        W28402  28.242   5.336  22.966  0.2501 -0.1387 -0.0798
27539W        W28403  22.041   3.768  19.509 -0.1583  0.1867 -0.0543
27540W        W28404   4.698  10.025  24.949 -0.0838 -0.0420  0.3585
27541W        W28405   3.920  23.492  25.290 -0.3895  0.1011 -0.1800
27542W        W28406   7.589   8.277  26.112 -0.1550  0.0262 -0.0364
27543W        W28407  25.960   6.838  21.612 -0.0986 -0.2268  0.0442
27544W        W28408   7.477   5.866  10.946  0.0562  0.1034  0.0150
27545W        W28409  28.081  10.477  26.288  0.0940 -0.1118  0.0449
27546W        W28410  10.459   3.293  14.228 -0.1481 -0.1311  0.1350
27547W        W28411   1.204  11.330  13.793 -0.0499 -0.2074 -0.0983
27548W        W28412  28.509   5.440  14.276  0.1759 -0.2815  0.1782
27549W        W28413   6.114   1.724  10.995 -0.0952 -0.1473 -0.1593
27550W        W28414  28.166   5.975  14.824  0.1340 -0.3529  0.0211
27551W        W28415   6.442  27.935  21.497  0.1143 -0.2535 -0.1014
27552W        W28416  28.331   1.119  26.312  0.1665 -0.0930 -0.2506
27553W        W28417  16.759   6.272  24.794 -0.0605  0.0736  0.0747
27554W        W28418  11.748   2.521  19.632  0.0245  0.1511 -0.0429
27555W        W28419  19.114   2.138  24.367 -0.1435 -0.2424 -0.3501
27556W        W28420   4.625   0.116   1.299  0.1333 -0.3061 -0.0828
27557W        W28421   7.304  10.149   6.188 -0.3344 -0.0851  0.0828
27558W        W28422   9.258   2.223  12.869 -0.3252  0.0164  0.2615
27559W        W28423  24.980   1.478   5.037  0.2382  0.0295 -0.0700
27560W        W28424   0.102  28.388   4.157  0.1311  0.1387 -0.0170
27561W        W28425  15.440  27.679  16.468 -0.1163 -0.1874  0.0657
27562W        W28426   2.413  28.314  14.583 -0.2614  0.2180  0.0734
27563W        W28427  12.951  27.125  20.145 -0.0752  0.0771  0.1335
27564W        W28428  28.796  22.299   4.642  0.1380 -0.1450  0.0405
27565W        W28429  10.415  28.918  15.762  0.0573 -0.0672  0.1274
27566W        W28430  13.944  24.340  12.797  0.1330 -0.1777 -0.1027
27567W        W28431   6.846  14.978   9.697 -0.1232  0.2381 -0.1802
27568W        W28432   9.727  17.258  20.677  0.0146  0.1077  0.0168
27569W        W28433  14.639   5.505  14.330  0.1614 -0.1570  0.0648
27570W        W28434   3.246  24.300  15.576  0.0078  0.2826  0.2563
27571W        W28435   5.731  26.432  17.559 -0.0180  0.2773  0.0503
27572W        W28436   0.506   5.462   6.632 -0.1262  0.1184 -0.2308
27573W        W28437  20.182   5.047  11.076 -0.2225  0.4326 -0.0149
27574W        W28438   4.199   6.086  20.431  0.3907 -0.1198  0.4195
27575W        W28439  18.906  23.984   9.701 -0.1007 -0.0768  0.2011
27576W        W28440   1.285   7.024  16.596  0.3318  0.0133 -0.3155
27577W        W28441   8.984   0.427   3.996 -0.0059  0.2015  0.0323
27578W        W28442  26.905  28.859  18.427 -0.0362 -0.2545  0.2634
27579W        W28443  11.763   8.087   6.336 -0.0773  0.0010 -0.0365
27580W        W28444   2.944   2.680  20.907  0.0343  0.0159  0.0291
27581W        W28445   3.419  10.125  15.350 -0.0917 -0.0304 -0.1858
27582W        W28446   9.155  28.420  10.412  0.0893  0.1587 -0.1192
27583W        W28447  28.730  28.512  10.200  0.0971  0.3221 -0.0712
27584W        W28448   5.077  13.507  10.921  0.1003  0.0252 -0.0315
27585W        W28449  28.482   6.398  13.375 -0.1065  0.0107  0.2080
27586W        W28450  27.341   5.038   6.514 -0.2335 -0.2059  0.4170
27587W        W28451   1.375   9.337   0.129 -0.1333  0.2646  0.0502
27588W        W28452   7.474   2.361  14.813 -0.1550 -0.1174 -0.0864
27589W        W28453   0.480  16.117  15.633  0.0311 -0.0427 -0.0084
27590W        W28454  15.314  10.875   1.621 -0.2446 -0.3039  0.4615
27591W        W28455   2.484   4.196  19.889 -0.0952 -0.1660 -0.1460
27592W        W28456  13.963   1.395  19.867 -0.1155 -0.2392  0.0818
27593W        W28457  25.480   0.287  23.737  0.0681 -0.0907 -0.1636
27594W        W28458   0.725   5.821  21.855  0.4376  0.0597  0.1427
27595W        W28459  22.628  20.558   8.587  0.1110  0.0450 -0.4411
27596W        W28460  22.729  25.228   2.929 -0.2402  0.2298 -0.3123
27597W        W28461  27.906  26.107  16.569  0.1516  0.0153  0.1632
27598W        W28462   9.744  16.249  21.758  0.6007  0.0848  0.2454
27599W        W28463  14.499  29.056  16.591 -0.2382  0.0423 -0.0891
27600W        W28464   6.934  22.414   8.488  0.2151 -0.1704 -0.0462
27601W        W28465  25.844  13.616  18.764 -0.2122  0.1294 -0.0060
27602W        W28466  27.934   4.822  15.471  0.1566 -0.0239 -0.1341
27603W        W28467  14.528  15.650  11.726  0.3273  0.2277  0.2556
27604W        W28468   1.062  22.579  25.252  0.1114 -0.1776  0.2524
27605W        W28469  26.141   7.293   1.130  0.0638  0.0321 -0.2242
27606W        W28470  22.784  28.417  23.544  0.0549 -0.1350 -0.4915
27607W        W28471  16.493   3.875  13.466 -0.1778  0.1660 -0.2320
27608W        W28472   5.413   8.318  17.496 -0.1214 -0.1136 -0.1607
27609W        W28473  26.046   3.608   6.725  0.2408  0.0450  0.1057
27610W        W28474   1.238  10.669  10.733 -0.2281 -0.1946  0.0085
27611W        W28475  23.104  26.373   8.711 -0.2334 -0.0705 -0.0157
27612W        W28476   0.824   4.519   0.397 -0.2846 -0.2141 -0.0523
27613W        W28477  25.712  18.184   1.381 -0.1600 -0.3892  0.1004
27614W        W28478  28.088  26.224  14.875 -0.1215  0.1424 -0.0692
27615W        W28479  23.620  29.061  20.060  0.2198  0.1007  0.0250
27616W        W28480  16.077   3.920  28.231  0.1809 -0.3293 -0.1524
27617W        W28481   8.202  26.545  14.569  0.0818  0.2189  0.2913
27618W        W28482  16.974   0.408  21.628  0.0282  0.2761  0.2199
27619W        W28483  28.673   5.521  20.312 -0.2080 -0.1934  0.4690
27620W        W28484  20.159   6.841  16.990 -0.1263 -0.0913 -0.3195
27621W        W28485  12.569   6.515  11.972 -0.2370 -0.0263 -0.0577
27622W        W28486  20.937  26.516  14.503  0.1726  0.3069  0.1597
27623W        W28487   8.724  27.155  23.674 -0.1631  0.0196  0.2754
27624W        W28488   4.659  10.781   6.985  0.0797 -0.0736  0.1205
27625W        W28489  28.199  19.036  23.075  0.0504 -0.0616  0.2394
27626W        W28490  19.925  28.645  26.763 -0.1922 -0.2569  0.0832
27627W        W28491   6.303  27.307  16.969  0.1185  0.0028 -0.2783
27628W        W28492   4.060  15.004   0.595  0.0400  0.0023 -0.0012
27629W        W28493  14.143  19.242   2.707 -0.2293  0.1973  0.2881
27630W        W28494  16.683   0.822  10.679  0.1387  0.0884  0.0025
27631W        W28495  12.786  27.927   7.659  0.1107  0.2457  0.3369
27632W        W28496  23.818  10.639   8.307  0.0656  0.2941  0.1886
27633W        W28497   0.711   6.328  21.559  0.1722 -0.0389 -0.0704
27634W        W28498  13.025   3.892  10.989 -0.2361 -0.0809  0.1909
27635W        W28499   7.669  15.341  10.797 -0.1410  0.1730 -0.1142
27636W        W28500  15.009  10.143  20.803  0.1488 -0.1248  0.1432
27637W        W28501   4.072  18.936  20.528  0.3316 -0.1034 -0.3340
27638W        W28502  18.237   4.924   6.887 -0.2332 -0.1517 -0.0292
27639W        W28503   8.249   4.498  26.083 -0.1790  0.3958 -0.0176
27640W        W28504  14.492  27.191  21.637 -0.0667 -0.0726 -0.2428
27641W        W28505   4.194  10.568  28.798 -0.0311  0.0928 -0.1822
27642W        W28506   8.785  25.863  11.197 -0.1181  0.0579  0.0506
27643W        W28507  10.107   0.344   6.730 -0.0233  0.1359 -0.2158
27644W        W28508  22.571   1.580  20.221 -0.0562  0.1674  0.0758
27645W        W28509   5.552  24.721   7.008 -0.0874  0.0005  0.1093
27646W        W28510   8.531   4.739   5.197  0.0010 -0.3714 -0.1943
27647W        W28511  16.290   2.096   2.626  0.2530 -0.2282 -0.1045
27648W        W28512  19.256   1.957   7.618  0.2011 -0.2871 -0.0815
27649W        W28513  27.455  24.917   7.538 -0.0266 -0.4478 -0.1774
27650W        W28514   7.697   1.384  12.947 -0.4114  0.0965  0.0831
27651W        W28515  16.189   9.977  10.773 -0.2281  0.1389 -0.0501
27652W        W28516  11.402  12.818  23.257 -0.3582  0.0657 -0.0839
27653W        W28517   1.836  17.642   3.090 -0.2792 -0.1104  0.0360
27654W        W28518   8.246  25.313  12.454  0.1557  0.1605  0.1991
27655W        W28519  15.670  12.817  13.198 -0.0929 -0.1884  0.2710
27656W        W28520   0.906   7.824  15.246  0.2119 -0.0348  0.1034
27657W        W28521  24.091  25.923  27.938 -0.0357 -0.2271 -0.2168
27658W        W28522   4.217  17.269   2.357  0.2821 -0.0567  0.1282
27659W        W28523  13.389  11.440   5.063  0.1566  0.0555 -0.3507
27660W        W28524   1.365  26.089  14.714 -0.0516 -0.2009  0.2235
27661W        W28525   4.024  22.034  15.955 -0.0680  0.1183  0.0151
27662W        W28526  18.506   1.930  11.225 -0.1403 -0.1849  0.2953
27663W        W28527   0.292  23.356  13.334 -0.1495  0.1032 -0.0827
27664W        W28528   2.918  12.921  21.005  0.2317 -0.0325  0.0373
27665W        W28529  15.736   1.281  24.800 -0.0767  0.2626 -0.1085
27666W        W28530  28.261  27.139  19.549  0.1910  0.1611 -0.2641
27667W        W28531   9.822  20.232  19.018 -0.2519 -0.1619 -0.2929
27668W        W28532   6.577  19.847  27.826 -0.0662  0.2856  0.1503
27669W        W28533   6.381   9.919   4.384  0.0618  0.0071 -0.2765
27670W        W28534  19.603  23.456   4.911  0.2476  0.0784  0.1933
27671W        W28535   5.260   0.145  19.274  0.0770 -0.0450 -0.0023
27672W        W28536  28.848  28.548   7.014 -0.2891 -0.2188  0.1821
27673W        W28537  19.303  16.940  19.307  0.1504 -0.2522  0.0454
27674W        W28538  10.993   7.485  10.469 -0.1272 -0.0155 -0.2472
27675W        W28539   7.268   6.344  24.249 -0.2087  0.0667 -0.0156
27676W        W28540   0.437   3.045  23.989  0.0508 -0.1598 -0.2881
27677W        W28541   4.416  26.864  20.456  0.0155 -0.3370 -0.2567
27678W        W28542   3.012  27.052  14.526  0.1959  0.1243  0.2677
27679W        W28543  14.762   0.066   3.224 -0.0353 -0.1333  0.0125
27680W        W28544  16.058   5.527  24.151 -0.1441  0.3934 -0.0323
27681W        W28545  14.048   9.069   1.562 -0.0894  0.0348 -0.1012
27682W        W28546  28.528  22.937   1.792  0.1759  0.3041  0.2576
27683W        W28547   5.074  28.254  15.715 -0.1444  0.1895  0.4456
27684W        W28548  12.010  28.667  22.074  0.1063 -0.0383  0.1151
27685W        W28549  18.157  15.553  15.274  0.0770 -0.1982 -0.2468
27686W        W28550  18.105  10.483   1.998  0.1915 -0.2112  0.0523
27687W        W28551  14.908  22.740  22.850  0.1429  0.3636 -0.2662
27688W        W28552  16.952  20.750   8.398  0.3086  0.0518 -0.1345
27689W        W28553  28.385   5.130  24.510  0.1599 -0.3942 -0.1833
27690W        W28554  22.996  12.886  11.179  0.1523  0.0489 -0.2518
27691W        W28555  21.555  13.062  17.911 -0.2561  0.1456  0.1885
27692W        W28556  26.332  15.370  19.022 -0.4356 -0.1252 -0.1442
27693W        W28557  28.383  19.251  15.903  0.1500  0.3622  0.0943
27694W        W28558  20.339   4.573  22.819  0.2260  0.0465  0.1571
27695W        W28559  14.289   5.701  27.951  0.0864  0.1702 -0.0015
27696W        W28560  19.375  19.626  18.066  0.1421 -0.2780 -0.0861
27697W        W28561  14.370   0.451  16.149  0.1413 -0.1342  0.1882
27698W        W28562   6.811  23.410   4.150  0.1025 -0.1382  0.0298
27699W        W28563  15.102   5.072  26.324 -0.0850  0.0925  0.1184
27700W        W28564  22.651   6.731  22.056  0.1293 -0.1245 -0.1110
27701W        W28565  15.450  12.727   1.783 -0.3687 -0.0866  0.0578
27702W        W28566  25.914   6.045   4.668  0.1051  0.0092 -0.0056
27703W        W28567  14.296   1.764   1.758  0.4203  0.2741  0.1465
27704W        W28568  10.494   8.827  28.108 -0.0882  0.0601  0.3346
27705W        W28569  20.136  10.360  28.702 -0.1474 -0.1306  0.0402
27706W        W28570  19.580  27.412   9.070 -0.1319 -0.1406  0.2244
27707W        W28571  24.013  26.733  16.250  0.1628 -0.2516  0.1674
27708W        W28572   7.762  26.100  20.458  0.0862  0.2526  0.2157
27709W        W28573  27.761   0.655  15.126  0.0313  0.1524  0.0858
27710W        W28574  19.351   2.950  19.119 -0.1319 -0.0899 -0.1896
27711W        W28575  17.255  14.121   1.386  0.0433  0.2722 -0.0178
27712W        W28576  28.221   5.851  10.079 -0.1005  0.0835 -0.0396
27713W        W28577  12.046  10.534   6.812 -0.2805  0.3002  0.0250
27714W        W28578   0.083   7.744   3.904  0.1877 -0.4035 -0.1623
27715W        W28579  11.141  23.605  17.635  0.2374 -0.0668  0.1526
27716W        W28580  15.269   0.773  21.835 -0.0575 -0.2255 -0.0427
27717W        W28581  18.016   0.507   6.666 -0.0868  0.0467 -0.0278
27718W        W28582   5.077   4.142  21.060  0.2829  0.2780 -0.0314
27719W        W28583   5.803   4.700   9.788  0.0120 -0.0842  0.1182
27720W        W28584   8.206  21.081  15.817  0.2864 -0.0982  0.0419
27721W        W28585  13.842  15.805   3.998 -0.1822 -0.0824 -0.1068
27722W        W28586  11.708  21.366  20.490 -0.2095 -0.3139 -0.2845
27723W        W28587  13.908   3.707  11.237  0.1302  0.2248  0.0805
27724W        W28588  11.750   8.564  16.060  0.1126 -0.0845  0.3197
27725W        W28589   1.449   6.943  12.369 -0.0898 -0.1559 -0.0137
27726W        W28590  27.204  27.895  26.688  0.5942  0.1147 -0.0579
27727W        W28591   1.000  20.951  27.980  0.3016 -0.1377  0.1356
27728W        W28592  23.901  28.600  19.353  0.0093  0.1109  0.1452
27729W        W28593  27.516  27.205  14.814 -0.0127 -0.0367  0.1014
27730W        W28594  13.367  17.253  17.541  0.1228  0.0303 -0.2301
27731W        W28595   7.481  24.318  18.147 -0.0804  0.2790  0.0559
27732W        W28596   7.608  21.357   9.877 -0.1786  0.0268  0.0026
27733W        W28597  14.483  12.938   7.816 -0.2307  0.0796 -0.3069
27734W        W28598   6.097  18.550   6.553  0.0997 -0.0089  0.2960
27735W        W28599  26.321  20.657  28.939  0.2443 -0.2736 -0.0502
27736W        W28600  24.895  28.611  19.320  0.2356  0.2342 -0.0576
27737W        W28601   4.428  21.382  21.951 -0.0666  0.1088 -0.2769
27738W        W28602   7.316  24.020   0.112  0.2001 -0.2500  0.2263
27739W        W28603  21.341   3.507  12.836 -0.1303 -0.1112 -0.1608
27740W        W28604  24.903  27.428  12.332 -0.3023 -0.5051  0.0448
27741W        W28605  16.692  28.373   4.511  0.5648  0.0968 -0.0416
27742W        W28606  17.243   7.992   8.462 -0.1662  0.2515 -0.0371
27743W        W28607   7.255   1.069  11.442  0.2578 -0.0683  0.0259
27744W        W28608  13.723  27.474  20.357 -0.1464 -0.0368 -0.0879
27745W        W28609  11.412   9.800  21.007  0.2141  0.2178 -0.1937
27746W        W28610   5.998  26.351  19.830  0.0926 -0.0094  0.0509
27747W        W28611  15.097  27.967   7.474 -0.0532 -0.0072  0.1397
27748W        W28612  19.039  18.038   7.342  0.1221  0.2208  0.0149
27749W        W28613  16.936   6.121  14.442 -0.3442 -0.1769 -0.3204
27750W        W28614  28.334  10.380  19.499 -0.0708  0.0512  0.3484
27751W        W28615  14.903  14.487  27.552  0.0410  0.3462  0.1498
27752W        W28616  19.522  26.135  18.331 -0.0811  0.1380  0.3292
27753W        W28617  11.095  10.557  26.366  0.2494  0.0380 -0.2521
27754W        W28618  10.552  12.785  23.175  0.2857 -0.0824  0.3790
27755W        W28619  12.395  23.195  15.318 -0.2400  0.0171  0.1603
27756W        W28620  28.857   6.777  21.759 -0.1102  0.0998 -0.3332
27757W        W28621  10.218   3.494  24.246  0.1003  0.1307  0.1252
27758W        W28622  17.862  19.994  14.840  0.0562 -0.2039  0.0085
27759W        W28623   4.671   4.430  20.877  0.1206  0.2064  0.1426
27760W        W28624   9.699   9.243  25.452  0.0586  0.3121 -0.1202
27761W        W28625  18.546  16.291   2.607  0.0443 -0.1573  0.0610
27762W        W28626   6.725   0.836   3.642 -0.2298 -0.3516  0.2020
27763W        W28627   8.026   5.014  12.469 -0.1570 -0.0847 -0.0929
27764W        W28628   5.479  21.595   6.446  0.1623 -0.0507 -0.0678
27765W        W28629   2.210  17.828  11.702  0.1067 -0.1029  0.2031
27766W        W28630   8.540   1.797  15.963 -0.0125 -0.0888  0.0517
27767W        W28631   5.958   7.874   3.777  0.2199  0.1571 -0.1222
27768W        W28632  14.202  16.953  18.998  0.1255  0.1981 -0.2627
27769W        W28633  25.144   4.157   0.444 -0.0789  0.1330  0.0734
27770W        W28634   6.653  26.973   6.844  0.2056  0.1815 -0.0359
27771W        W28635  15.643   5.725  12.596  0.0379 -0.1362  0.1609
27772W        W28636  17.570  15.736  10.578  0.0162 -0.2032  0.2032
27773W        W28637  13.484   8.699  20.593 -0.0755 -0.2422  0.0176
27774W        W28638  24.308   4.099  25.530  0.1260 -0.0208  0.1094
27775W        W28639  28.447   4.571  16.290  0.0487  0.0934  0.2446
27776W        W28640   0.399   8.946   1.598  0.2010  0.3816  0.1552
27777W        W28641  12.445   5.744   1.574 -0.1703 -0.1313 -0.0180
27778W        W28642   6.569  12.004   9.643  0.0287 -0.1795  0.0047
27779W        W28643  28.127  25.870   9.605  0.0344  0.1403  0.1530
27780W        W28644  28.229   0.021   3.812 -0.4039 -0.3680 -0.0139
27781W        W28645   1.001  17.703  24.726  0.0708  0.0283  0.1187
27782W        W28646   5.189   6.559  20.727 -0.0091  0.0271 -0.3276
27783W        W28647  10.210   6.920   6.002  0.1963 -0.2973 -0.0019
27784W        W28648  11.587  11.354   6.465  0.2925 -0.1098 -0.3135
27785W        W28649   0.489  14.384  20.359  0.4230 -0.1731 -0.6053
27786W        W28650  25.301  19.408  10.108  0.0671 -0.0186  0.2263
27787W        W28651  27.062  14.417  19.833  0.0325  0.0476 -0.0991
27788W        W28652   8.262  12.155  15.118 -0.3790 -0.3332  0.4694
27789W        W28653  14.652  27.195   7.752  0.0332  0.0520  0.1331
27790W        W28654   1.246  14.101  15.547 -0.1877 -0.2772 -0.0983
27791W        W28655  19.388   4.233  25.311  0.1683  0.1079  0.3145
27792W        W28656   8.106   7.880  14.472 -0.0422  0.0979  0.0670
27793W        W28657  10.588  12.278   8.488  0.0655  0.2823  0.0965
27794W        W28658  12.544  11.681  15.821  0.1027  0.1883  0.1078
27795W        W28659  18.069  23.888   0.796  0.0660  0.0665 -0.0312
27796W        W28660  23.246  28.242  26.623  0.0803 -0.2246 -0.0087
27797W        W28661   1.810   2.910   0.970  0.0943  0.0169 -0.0790
27798W        W28662   3.626  14.346   8.725 -0.2214 -0.0283 -0.0898
27799W        W28663   3.492  14.821  18.922 -0.1200 -0.1446  0.0904
27800W        W28664   6.872   6.383  11.611 -0.0716 -0.3529  0.0742
27801W        W28665  10.189  21.859   4.815 -0.2116 -0.0307  0.1514
27802W        W28666  15.529  10.492   2.557  0.4869  0.0947  0.0604
27803W        W28667  13.674  23.261   2.880 -0.0572 -0.3541  0.0418
27804W        W28668  28.896  12.908  18.606 -0.0765  0.2071 -0.2282
27805W        W28669   9.365   2.227  15.359  0.3004 -0.1032 -0.0984
27806W        W28670  21.677   9.160  28.305  0.0875  0.4900  0.0677
27807W        W28671  15.407  21.569  11.070 -0.1911  0.0187 -0.0227
27808W        W28672  11.652   2.294   6.436 -0.1064 -0.0172 -0.0289
27809W        W28673  14.418  10.836  12.429  0.0225 -0.1207  0.0832
27810W        W28674   8.452  17.913  26.853  0.1099  0.5141  0.3074
27811W        W28675  25.679  10.884  27.355 -0.0232 -0.0424 -0.0158
27812W        W28676   5.331  10.272  14.844 -0.0669  0.3043  0.1995
27813W        W28677   8.262  27.749  10.172 -0.2829 -0.1763  0.0605
27814W        W28678  26.262  20.402   3.168 -0.1211  0.2538 -0.4434
27815W        W28679   3.536  15.949  13.454  0.0716 -0.3336 -0.0577
27816W        W28680   6.055  24.149   6.444 -0.5292  0.0362 -0.3416
27817W        W28681   6.854  23.412  13.934  0.1888 -0.0147  0.2153
27818W        W28682   7.847  19.286  14.507 -0.2876 -0.1264 -0.0089
27819W        W28683   4.981   9.928   3.571  0.2418 -0.0753  0.1174
27820W        W28684   5.762  23.857  18.087 -0.1260  0.0323  0.2149
27821W        W28685   7.807  22.508   0.057  0.2771  0.2325 -0.0137
27822W        W28686  11.778  24.037   9.331 -0.0414 -0.2586  0.1356
27823W        W28687  25.542   6.213  16.111 -0.0212 -0.1506 -0.0008
27824W        W28688   1.257   7.775  23.243  0.0486  0.1757  0.0790
27825W        W28689   4.482  10.605  25.801  0.4608  0.0297 -0.1007
27826W        W28690   4.694   7.333   3.749 -0.3512 -0.2052 -0.2119
27827W        W28691   4.257  27.024  20.000  0.0901  0.0592 -0.1481
27828W        W28692  21.409   9.317   6.886 -0.2396 -0.1862 -0.2508
27829W        W28693   0.670   1.165  22.562  0.1737  0.0814  0.0398
27830W        W28694   9.272   7.095  24.764 -0.1903 -0.1360 -0.1805
27831W        W28695  14.622   6.136  16.525  0.0015 -0.2635  0.0619
27832W        W28696   9.592   6.727  21.552  0.2589  0.1093  0.1971
27833W        W28697  21.769  24.781  21.074 -0.0740 -0.0070 -0.1020
27834W        W28698   2.540  17.452  28.353  0.0424  0.0424 -0.2846
27835W        W28699  26.845   8.661  10.778 -0.0292 -0.1745 -0.1673
27836W        W28700  12.739  29.081   0.126  0.0131 -0.2979 -0.0659
27837W        W28701  13.820   7.986  15.750 -0.0492  0.2468 -0.1980
27838W        W28702  17.742  21.713  26.099  0.0456  0.1392 -0.0207
27839W        W28703  10.260  26.683  28.328 -0.1303 -0.4105  0.0873
27840W        W28704   6.405   9.364  19.043 -0.1157 -0.2166  0.0171
27841W        W28705   7.516  25.380  12.694 -0.0666  0.1593  0.1680
27842W        W28706  13.673  13.081   1.141  0.2951 -0.1732  0.1359
27843W        W28707  12.374  24.445  22.609  0.1392  0.0146  0.1217
27844W        W28708  26.344  28.786  16.298 -0.1990 -0.1135 -0.0754
27845W        W28709   5.781  16.867  24.364 -0.3391  0.3452  0.0826
27846W        W28710   4.410   1.003  27.296  0.0064 -0.0968 -0.1455
27847W        W28711   4.015   9.318  11.590 -0.0219  0.3029  0.0417
27848W        W28712  15.774   9.788  25.646  0.2408 -0.1024  0.0963
27849W        W28713  12.812   8.270  16.832 -0.1765 -0.0446 -0.0214
27850W        W28714  28.638   0.910  14.056  0.1167 -0.0592 -0.1889
27851W        W28715   1.961  15.748  14.336  0.1359 -0.0910  0.0179
27852W        W28716  16.029   0.453   1.651 -0.1549  0.2307 -0.4096
27853W        W28717  26.685  27.664   1.209 -0.1401  0.0245 -0.0735
27854W        W28718  18.236   0.650  12.908  0.1613 -0.0895 -0.0366
27855W        W28719  23.610  23.089  27.247 -0.2877 -0.1390 -0.1080
27856W        W28720  19.640   0.747  24.402  0.0358  0.1128  0.1146
27857W        W28721  10.548   0.167  18.610 -0.0205  0.1599 -0.0107
27858W        W28722  25.906  19.894  17.532 -0.0671 -0.3656  0.1035
27859W        W28723   7.669   2.214   8.650  0.0258  0.1804  0.1196
27860W        W28724  10.820   3.192   0.954  0.2458  0.2193 -0.0887
27861W        W28725  20.550   3.506  20.433  0.0388 -0.0409  0.0646
27862W        W28726   8.659  28.335  28.786 -0.0357 -0.3331 -0.0649
27863W        W28727  23.241  24.623   9.450 -0.0034  0.0684  0.2186
27864W        W28728   9.297  17.670  15.139  0.1438 -0.0903 -0.4029
27865W        W28729  10.089  27.156  23.522 -0.1845 -0.1571 -0.0601
27866W        W28730   9.203   8.009  26.267 -0.1661 -0.2896 -0.0264
27867W        W28731   0.386  27.464  13.704 -0.1388  0.3335  0.2560
27868W        W28732   6.332   8.258   4.131 -0.1020 -0.0280 -0.0863
27869W        W28733   3.258  26.224  12.885  0.3150 -0.0023  0.4694
27870W        W28734   8.164   3.694   3.552 -0.0046 -0.0901 -0.2844
27871W        W28735  22.767  19.328  22.690 -0.3317 -0.0041  0.1940
27872W        W28736  25.455  22.751  20.079  0.1506 -0.2127  0.0505
27873W        W28737   4.721   2.260  18.903  0.0278  0.1391  0.0612
27874W        W28738  12.221   5.925  14.862  0.3999  0.2614 -0.2048
27875W        W28739  10.617  19.635   3.782 -0.1099 -0.3116  0.3387
27876W        W28740  16.620   9.235  11.743 -0.2873  0.0694  0.0347
27877W        W28741  12.240  21.365  19.560  0.1825  0.0519 -0.0356
27878W        W28742  26.865  12.261   6.137 -0.1108  0.1353  0.1153
27879W        W28743  12.109   7.639  18.395 -0.3800  0.3429  0.0069
27880W        W28744  21.292   3.964   3.169  0.2958  0.1923  0.1339
27881W        W28745   5.993  13.459  14.764  0.0445  0.0925 -0.0289
27882W        W28746   8.308   3.491  19.794  0.1818  0.0966  0.1950
27883W        W28747  11.062  13.656  27.311 -0.0521  0.0497 -0.0834
27884W        W28748  27.310   1.011   8.291 -0.1981  0.1309  0.0089
27885W        W28749  20.923  27.722   8.863  0.1335  0.1197 -0.0689
27886W        W28750  16.689  26.281  15.844 -0.0202  0.0653 -0.1267
27887W        W28751   5.472   2.510  19.596  0.0147  0.0683  0.0618
27888W        W28752  10.707   4.471   3.125 -0.0203 -0.2201  0.0951
27889W        W28753   5.879  13.592  18.933 -0.1749  0.0963 -0.0402
27890W        W28754  23.642   2.262  12.828 -0.0811  0.2064  0.1143
27891W        W28755  22.554  17.799  19.763  0.0648  0.2698 -0.2098
27892W        W28756   2.037  19.410  17.272 -0.3603 -0.1503 -0.3033
27893W        W28757  18.394   3.049  20.438 -0.0625 -0.1938 -0.0177
27894W        W28758  14.998   5.589  26.526 -0.0202  0.0810 -0.2870
27895W        W28759   0.977   7.998   8.306  0.4000  0.3137  0.0466
27896W        W28760   1.168  19.089   9.328  0.0848 -0.0439 -0.0443
27897W        W28761  10.255   8.942  28.828  0.0614  0.0947  0.0069
27898W        W28762  27.014  13.624  23.847  0.0168 -0.5262 -0.0283
27899W        W28763   0.717  16.262  19.134  0.2376 -0.0844  0.1313
27900W        W28764  24.365   4.212  17.753  0.1828  0.2119  0.3128
27901W        W28765   8.540   2.587  26.251 -0.0274  0.1639  0.1283
27902W        W28766   7.389   2.621  18.596  0.2085 -0.0745 -0.2066
27903W        W28767  12.003  14.226   9.471  0.4040 -0.0587  0.1569
27904W        W28768  20.147  15.743  15.149 -0.0028  0.2537  0.0774
27905W        W28769  23.408   7.966  25.395  0.0741 -0.1217  0.0359
27906W        W28770   5.908   1.109  22.639  0.2273  0.0513  0.0966
27907W        W28771   9.970  27.312  17.479 -0.3806 -0.0015 -0.0433
27908W        W28772   2.252  14.233  26.707 -0.0331 -0.0081  0.0455
27909W        W28773  12.326   3.617  22.417 -0.2793 -0.2500  0.0844
27910W        W28774  19.171  16.325  24.494 -0.0504 -0.1484  0.1567
27911W        W28775  16.288   6.383  15.188  0.1913 -0.1244  0.3559
27912W        W28776   4.368  23.875  23.972 -0.2771  0.1710 -0.1740
27913W        W28777   3.268  21.753  15.414  0.1080 -0.1951 -0.3526
27914W        W28778  11.316   0.923   0.479  0.0668 -0.0146  0.1993
27915W        W28779  10.093  10.576   7.302  0.1967 -0.3262 -0.3265
27916W        W28780   7.545   4.038  28.281 -0.0451  0.0630 -0.2230
27917W        W28781  22.998   0.376   9.839  0.2749 -0.0165 -0.0895
27918W        W28782   4.990  11.515   4.049  0.0875  0.0143 -0.1806
27919W        W28783  12.185  10.294   4.938  0.0441 -0.1856 -0.0204
27920W        W28784   5.553   4.010  20.857 -0.0669  0.0830 -0.2086
27921W        W28785   5.865  23.137  18.632 -0.3742 -0.0412 -0.0632
27922W        W28786   8.228   6.175  16.634  0.0312  0.0260  0.2855
27923W        W28787  10.045  10.267  21.479  0.2787 -0.0162  0.1919
27924W        W28788  15.289   0.999  25.609 -0.3275 -0.0218  0.3247
27925W        W28789   1.085   2.109   1.114 -0.0979  0.2062  0.1802
27926W        W28790   3.257  20.677  24.784 -0.2540  0.0489  0.0373
27927W        W28791   8.945  20.820  16.343 -0.2232  0.1497  0.1557
27928W        W28792  12.926   5.805  19.655  0.1918  0.1126 -0.4538
27929W        W28793  14.197   5.889  18.566 -0.2917  0.2291  0.0704
27930W        W28794   7.233   1.639  14.119  0.1611 -0.0493 -0.1348
27931W        W28795  26.391  12.381  24.284  0.1326  0.1221  0.0246
27932W        W28796   5.896   5.354   5.292 -0.1991  0.0312 -0.0208
27933W        W28797  15.675  27.995  24.358  0.2067 -0.0029  0.0250
27934W        W28798  25.183   5.587  12.038 -0.0932  0.1988  0.2774
27935W        W28799  26.919   6.406  16.420 -0.0041  0.2032 -0.2437
27936W        W28800   1.172  24.480  18.314  0.1491 -0.1433 -0.2676
27937W        W28801  19.563  12.467  14.447 -0.0560  0.1794  0.3192
27938W        W28802  20.852   8.802   7.671  0.0059 -0.1210  0.1473
27939W        W28803   0.055  17.796  22.262 -0.5316 -0.2042  0.0082
27940W        W28804  15.841  25.276  19.407  0.2720 -0.0839  0.1841
27941W        W28805  25.637   3.672  21.328  0.0049  0.2372  0.1593
27942W        W28806  10.773  24.780  10.937 -0.1649 -0.2331 -0.2342
27943W        W28807  11.699   2.950  16.094 -0.1743  0.2923  0.3668
27944W        W28808   6.066   8.290  21.629  0.2359  0.4125 -0.1307
27945W        W28809   9.601  21.174   3.721  0.0055  0.1937  0.3240
27946W        W28810   8.081  24.740   4.219  0.1971  0.0114  0.2565
27947W        W28811   0.793  18.744  10.291 -0.1079 -0.2812 -0.0968
27948W        W28812   7.119  15.850   7.187 -0.2627 -0.1313  0.0604
27949W        W28813   8.217   8.755  27.783 -0.0542  0.0406 -0.1563
27950W        W28814  13.894  17.833  15.427  0.0122  0.0703 -0.0307
27951W        W28815  15.799  13.960  19.351 -0.0155 -0.3028 -0.0692
27952W        W28816   4.671  21.452  26.780  0.3596  0.1214  0.3108
27953W        W28817   3.153  25.108  10.264 -0.0043 -0.0690 -0.1429
27954W        W28818  14.348  23.061  27.259 -0.2205 -0.3681 -0.1674
27955W        W28819   2.621   3.589  18.497 -0.1417  0.3627  0.4174
27956W        W28820  13.156  21.312  11.941 -0.0984 -0.0997 -0.0804
27957W        W28821   1.289   1.707  11.525 -0.1630 -0.1061  0.0953
27958W        W28822  13.000  15.768  21.431  0.1906  0.1073 -0.1359
27959W        W28823  12.137   2.811  13.356  0.2038  0.1473 -0.0800
27960W        W28824  24.599  19.832  12.168  0.2444 -0.1315  0.3212
27961W        W28825  15.148  29.030  23.604  0.3071  0.2990  0.2031
27962W        W28826  15.615  27.542  11.753 -0.2086 -0.0179  0.1054
27963W        W28827  26.223  18.133  12.938  0.0576  0.1326  0.1728
27964W        W28828   8.795   4.562  28.596 -0.0562 -0.0504 -0.1030
27965W        W28829  28.354  24.618   5.574  0.1207 -0.1300  0.1401
27966W        W28830  10.775  16.769  14.346 -0.0433 -0.2777 -0.0444
27967W        W28831  23.220  19.294  10.474 -0.0927 -0.1417  0.0099
27968W        W28832   8.141   8.865   2.916 -0.1871 -0.2647 -0.0592
27969W        W28833  22.593  25.499  10.709 -0.2458 -0.0127 -0.1201
27970W        W28834   7.319   3.604  27.578  0.1679 -0.0913 -0.1886
27971W        W28835   5.754  15.937  12.582 -0.1836 -0.1321 -0.1166
27972W        W28836  24.347  18.226  16.364  0.0379  0.1007  0.0836
27973W        W28837  14.577   3.120  26.311 -0.2666 -0.1311  0.0258
27974W        W28838  15.364   8.338  26.932  0.0021  0.1184 -0.1824
27975W        W28839  16.672   5.626   1.893  0.0654  0.1696  0.2239
27976W        W28840  22.210  29.102  28.055  0.0044  0.1418 -0.0204
27977W        W28841  11.767   3.621   5.505  0.1133  0.4410 -0.2214
27978W        W28842  13.358  13.326  14.168  0.0074  0.0141 -0.1611
27979W        W28843   1.053  24.636  13.333  0.0213  0.0874  0.0538
27980W        W28844  12.441   6.433  23.341 -0.0804  0.1159 -0.2963
27981W        W28845  22.857  26.912  23.930 -0.1793  0.0385  0.0651
27982W        W28846   5.286   4.413   2.996 -0.0501 -0.1529 -0.0088
27983W        W28847  26.701   6.866   6.854 -0.0984 -0.0324 -0.0368
27984W        W28848   7.472  12.011  12.732  0.1647 -0.1987 -0.1057
27985W        W28849   3.695  12.842   1.219  0.1964 -0.0353 -0.2382
27986W        W28850  26.136  17.104  20.801 -0.1346  0.1443  0.3143
27987W        W28851   2.127  17.991  16.686  0.3659  0.1007 -0.3635
27988W        W28852  20.025   1.693  26.300 -0.1323  0.2544  0.1074
27989W        W28853  21.466   0.830  27.333 -0.0882 -0.3218 -0.1638
27990W        W28854  11.674  20.501  17.758  0.1029 -0.1765  0.0557
27991W        W28855   0.628   4.153   4.686  0.1055  0.1121  0.3252
27992W        W28856  13.623  20.892  17.822  0.2571  0.0376  0.0391
27993W        W28857  14.362   8.238  13.245 -0.0652  0.1163 -0.1686
27994W        W28858  21.715  22.579   5.042  0.0670 -0.1321 -0.2270
27995W        W28859  15.108  27.478  19.628  0.1897 -0.4256 -0.0176
27996W        W28860   4.512  25.637   5.809 -0.3939  0.2644  0.4695
27997W        W28861  19.383  15.457  21.832  0.0081  0.0655  0.1108
27998W        W28862  17.372   3.529  12.924 -0.0058 -0.0085 -0.1028
27999W        W28863   1.727   4.000   7.894 -0.0271 -0.1288 -0.1044
28000W        W28864  14.600  17.741  15.060  0.0668  0.0244  0.0293
28001W        W28865  11.257   6.205  17.410 -0.3389  0.2174  0.0324
28002W        W28866   0.882   7.691  19.241 -0.0086 -0.1227 -0.1975
28003W        W28867   0.254   0.180  27.697  0.0979 -0.1089  0.3697
28004W        W28868   9.978   4.945  25.437 -0.0228  0.0971 -0.0692
28005W        W28869   4.468  27.446   5.831  0.0751  0.1590 -0.0316
28006W        W28870  12.747   9.386  15.165  0.0086  0.2018  0.0017
28007W        W28871   7.565  17.220   8.098  0.1365 -0.3514  0.2945
28008W        W28872  25.373   8.213   6.604 -0.1123 -0.0104 -0.3651
28009W        W28873  27.411  20.331  22.922  0.1339 -0.2309  0.0402
28010W        W28874   3.970  10.217  19.118  0.0618 -0.2281  0.0662
28011W        W28875  25.917   2.710  11.464  0.1279  0.2524 -0.2313
28012W        W28876   5.199  27.186  21.713 -0.0597 -0.1014 -0.0073
28013W        W28877   0.416  27.764   2.913 -0.1742 -0.2293  0.1153
28014W        W28878  10.645   2.766  17.804 -0.2108  0.0058  0.0163
28015W        W28879  14.081   8.422  14.530 -0.1711  0.0174 -0.0303
28016W        W28880   9.182  27.925  27.223  0.0218 -0.2721  0.0107
28017W        W28881   5.776  16.169  26.998  0.0995  0.0151  0.0503
28018W        W28882   4.023  17.295   9.683  0.0505 -0.3547  0.1365
28019W        W28883  11.873  25.590  27.801 -0.0053 -0.1801 -0.0720
28020W        W28884  23.439   5.220   2.457  0.0970 -0.2536 -0.0918
28021W        W28885   9.159  20.200  20.188 -0.1382  0.0806 -0.1607
28022W        W28886  26.332   7.102   8.165  0.1770 -0.0921 -0.3412
28023W        W28887  11.602  20.734  24.888 -0.1320  0.0962 -0.3017
28024W        W28888   0.386  27.341  26.718 -0.0440  0.0539  0.1848
28025W        W28889  24.228  25.233  16.432  0.1042  0.1254  0.0633
28026W        W28890   5.065  16.255   0.898 -0.1453  0.2539 -0.1808
28027W        W28891  13.549  25.126   2.812 -0.0545  0.2980 -0.1544
28028W        W28892  11.812   0.616  17.899 -0.1694 -0.0288 -0.0244
28029W        W28893   6.123  18.485  19.190  0.0088  0.0201 -0.1466
28030W        W28894  26.133  21.928   6.702  0.1883 -0.1983 -0.0745
28031W        W28895  11.592  19.787   8.248  0.2000  0.1458  0.0031
28032W        W28896   6.465  11.462  26.902 -0.1762 -0.0193 -0.1418
28033W        W28897  14.186  20.176  13.871  0.3632  0.3938 -0.0063
28034W        W28898   6.448  10.210  17.710  0.3048 -0.0232 -0.2848
28035W        W28899  13.909  17.801  20.159 -0.0001  0.0295 -0.2834
28036W        W28900   4.316  28.735  18.487 -0.1373 -0.0387 -0.0461
28037W        W28901  17.156  11.229  17.003 -0.0588 -0.2309 -0.3977
28038W        W28902   5.448  16.080  10.172  0.1713 -0.0974  0.3563
28039W        W28903   2.720  26.433  19.994  0.1142 -0.1612  0.1375
28040W        W28904   7.631   3.686  21.406  0.0385  0.0151 -0.0860
28041W        W28905  24.113   9.663  14.883 -0.0669  0.0100 -0.2501
28042W        W28906   9.876   3.633  21.715 -0.3748  0.6082 -0.0462
28043W        W28907   7.048  27.663  26.175 -0.1355 -0.0372  0.1673
28044W        W28908   4.592  26.634  19.972 -0.1370 -0.1344 -0.0316
28045W        W28909   7.076  15.920  18.913 -0.1340 -0.1953  0.0680
28046W        W28910  12.510   9.511  19.411  0.0748  0.1213 -0.1111
28047W        W28911  11.295  16.512   3.369 -0.1977 -0.2527 -0.1865
28048W        W28912  26.596   8.071  20.853 -0.1819  0.2979  0.0194
28049W        W28913   9.291   8.792   5.079 -0.2117 -0.0236 -0.0406
28050W        W28914  11.204   5.760  13.286 -0.1166 -0.0279  0.0179
28051W        W28915  15.560  20.394  24.879  0.0623 -0.2094 -0.0448
28052W        W28916   7.640  29.048  11.740 -0.0217  0.2781  0.3090
28053W        W28917   9.291  26.433  19.765 -0.1920 -0.0207 -0.1966
28054W        W28918  22.977  22.830  18.269  0.0141 -0.1633 -0.0034
28055W        W28919  16.659  14.328  23.099 -0.1110  0.0670 -0.2115
28056W        W28920   1.737   5.580  21.291 -0.0775  0.1132  0.3457
28057W        W28921   7.278  24.004  24.160 -0.4605  0.2357 -0.1012
28058W        W28922   2.146  24.168   4.599 -0.3629 -0.1190  0.0185
28059W        W28923  24.204   6.153   1.963 -0.4105  0.0819 -0.1473
28060W        W28924  22.053   7.138  15.934  0.2612 -0.0375 -0.0138
28061W        W28925   9.164  11.152  20.581 -0.1509  0.3986 -0.0500
28062W        W28926   7.165  27.615   8.479  0.0138  0.1573  0.0673
28063W        W28927  27.782   1.272   4.376  0.2269 -0.0123 -0.0693
28064W        W28928   5.083  15.454  15.235 -0.1570  0.0811 -0.1317
28065W        W28929   5.990  16.206  15.956  0.0858 -0.1036 -0.1030
28066W        W28930   4.911  21.503  20.395 -0.1515  0.0801  0.1186
28067W        W28931  15.871  29.004   5.545  0.0395  0.3125 -0.1081
28068W        W28932  28.118  15.065  16.499 -0.0927  0.5352 -0.2581
28069W        W28933   9.243   3.981   9.676  0.0208 -0.1466  0.3156
28070W        W28934  28.627  26.111  11.341 -0.1778  0.0313 -0.2946
28071W        W28935   0.947  28.501   6.508 -0.4917  0.1181  0.0957
28072W        W28936   5.357  27.154  13.901 -0.2025 -0.0931  0.0129
28073W        W28937  11.255  19.685   7.406  0.0411  0.2017  0.1258
28074W        W28938  14.603   2.117  11.054 -0.5332 -0.0287  0.4092
28075W        W28939   7.733   9.378  24.492  0.0158  0.0594 -0.0530
28076W        W28940   8.088  18.296  22.845  0.0602 -0.0379 -0.4402
28077W        W28941   3.150  27.380  27.352 -0.0086  0.0683  0.1702
28078W        W28942  13.029   6.253   8.545  0.0612  0.2290  0.0782
28079W        W28943   4.805  18.724   3.034  0.1387 -0.0657  0.1255
28080W        W28944  27.750   0.922  15.600  0.0081 -0.0904  0.3659
28081W        W28945  11.957  24.048  15.489  0.3349  0.1027  0.0548
28082W        W28946   5.768  29.094  24.021 -0.0110  0.0974  0.0326
28083W        W28947   0.223   5.982  16.700 -0.2363  0.1258 -0.2034
28084W        W28948  10.465   0.803   2.989  0.0313 -0.0288  0.0367
28085W        W28949  22.646   7.880  25.241 -0.0130 -0.0450  0.1300
28086W        W28950   4.556  13.061   1.057 -0.2769 -0.0358 -0.3815
28087W        W28951   9.905   5.671  17.514  0.0446 -0.1910  0.2511
28088W        W28952  11.150   6.405   6.463 -0.1438  0.3186 -0.0174
28089W        W28953  23.960  25.201  18.819  0.2856 -0.1860 -0.2745
28090W        W28954  24.972  19.377   8.187  0.0559  0.2021  0.0792
28091W        W28955  27.700  19.152  16.761  0.0625  0.0603  0.1097
28092W        W28956  23.060  28.993  11.480 -0.0867 -0.2086  0.1288
28093W        W28957   6.269   3.903  19.386 -0.3049 -0.0967  0.1033
28094W        W28958  28.167   5.412  13.311 -0.0268  0.3876  0.2675
28095W        W28959  12.165  11.838  26.975 -0.1500  0.1522 -0.1133
28096W        W28960  10.288  15.961   9.419 -0.0405  0.1061  0.1728
28097W        W28961   3.908  26.889  20.487  0.0379  0.2380 -0.0839
28098W        W28962  10.498  10.839  20.790  0.0755  0.0720  0.0170
28099W        W28963   7.215   9.128  14.348  0.2697  0.0712  0.2922
28100W        W28964  12.771  28.620  24.604 -0.1867  0.1536 -0.2029
28101W        W28965   7.506  16.438  20.314  0.1302 -0.2032  0.1357
28102W        W28966   2.752  28.435  15.815 -0.2101  0.0036 -0.0289
28103W        W28967  13.766   4.977  10.561  0.0017  0.2560 -0.0460
28104W        W28968   1.474  28.865  22.655  0.1139 -0.2659 -0.0897
28105W        W28969  27.497   9.373  10.643  0.0725  0.1632 -0.2751
28106W        W28970  28.433  13.391   7.687 -0.0212  0.2532  0.1745
28107W        W28971  10.961  25.835  13.541 -0.1808 -0.2023  0.0792
28108W        W28972   2.934  16.951   7.611  0.1213  0.2695  0.2395
28109W        W28973  25.986  25.430  19.619  0.1276  0.0833 -0.0813
28110W        W28974  28.787  12.442   2.237  0.0437  0.0802 -0.0113
28111W        W28975   2.738  25.477  23.742 -0.0953  0.2443  0.0738
28112W        W28976   9.520  20.714  13.126  0.2596  0.0005 -0.0349
28113W        W28977   2.239  13.807   3.891 -0.1824 -0.4095  0.0635
28114W        W28978  16.837  17.219   1.430  0.0782 -0.2695  0.1473
28115W        W28979   4.801   3.171   4.377 -0.1605 -0.0573 -0.1705
28116W        W28980   5.044  28.314  15.060  0.3855 -0.1298 -0.1238
28117W        W28981  12.610   0.277   6.471 -0.0316 -0.1344 -0.2414
28118W        W28982   5.558  18.286  15.009 -0.0149 -0.2305  0.0325
28119W        W28983   8.230  13.474  12.572 -0.0745  0.0088  0.4425
28120W        W28984  19.281  21.336  12.774 -0.2296 -0.0858 -0.0901
28121W        W28985   4.725  13.041  16.542 -0.0775 -0.2768  0.1689
28122W        W28986  10.023   7.532  10.396  0.0728  0.1985 -0.1931
28123W        W28987   4.977  19.155  21.652  0.0197  0.5157  0.2623
28124W        W28988  13.650   2.695  22.215  0.0698 -0.1625 -0.0887
28125W        W28989  12.159  17.503   5.801  0.1334  0.0381 -0.2166
28126W        W28990  11.819   6.028  11.843 -0.1644 -0.2756  0.1387
28127W        W28991   8.630  13.136  15.222  0.1334 -0.0652 -0.1145
28128W        W28992  26.880  28.890   2.739 -0.1414  0.2695 -0.1637
28129W        W28993  16.644  24.671   5.997  0.4071 -0.1006 -0.1874
28130W        W28994   4.930   0.451  27.121  0.2571 -0.3241 -0.0557
28131W        W28995  16.351  26.892  20.009 -0.1027 -0.1079  0.0643
28132W        W28996  18.428  19.406  22.404  0.1959  0.0353  0.3315
28133W        W28997   5.200   2.307  18.037  0.1807 -0.4308  0.0031
28134W        W28998   2.655   4.026   3.690  0.1932 -0.0150  0.2451
28135W        W28999   5.040   6.368  23.360 -0.1605  0.1465  0.0554
28136W        W29000  25.729   8.239  29.102 -0.0094 -0.0938 -0.0220
28137W        W29001   5.923  27.787  12.147  0.0197  0.4173  0.1084
28138W        W29002  25.522  24.290  12.324  0.2729 -0.2472  0.1941
28139W        W29003   0.400  21.919  14.778 -0.1256  0.1104 -0.2808
28140W        W29004   3.073  12.925   8.546  0.3662  0.2168  0.0266
28141W        W29005   5.954   8.212  22.559  0.1125 -0.0713 -0.2173
28142W        W29006  18.821  13.867  20.843  0.0991  0.1103 -0.4225
28143W        W29007   0.142  12.816  15.238 -0.0493 -0.0706  0.1655
28144W        W29008  28.634  25.502  23.159 -0.2515  0.0401 -0.0095
28145W        W29009  22.916   3.415   1.023 -0.0499  0.0496 -0.1320
28146W        W29010   2.665  28.839  13.311 -0.2703 -0.1620 -0.5673
28147W        W29011  27.937  20.483  14.143 -0.1539 -0.0280 -0.0761
28148W        W29012  28.676  17.797  12.008  0.2239 -0.1219 -0.0613
28149W        W29013  13.344  17.238   0.272  0.1078  0.0390  0.2109
28150W        W29014  19.318   5.761  11.051  0.1266 -0.1468  0.0124
28151W        W29015   7.541   3.001  20.992 -0.0628 -0.0376  0.0257
28152W        W29016  21.218  21.099  24.963 -0.0419 -0.0400  0.1753
28153W        W29017   4.829  27.022  25.812 -0.0937  0.2802 -0.2019
28154W        W29018   1.000  22.692   4.018 -0.1857  0.0609  0.2079
28155W        W29019   8.973   4.689  10.086 -0.3086 -0.2574 -0.0859
28156W        W29020   3.941  15.556  15.486 -0.1914  0.0353  0.0621
28157W        W29021   4.814  14.539  15.315 -0.2688 -0.0110  0.1201
28158W        W29022  22.152   0.453   1.985  0.1806  0.0248  0.0658
28159W        W29023  28.453   1.417   8.113  0.1080 -0.1812  0.1700
28160W        W29024  10.133  14.880  26.824 -0.0302  0.1684 -0.2554
28161W        W29025   0.381   2.082  19.003 -0.1427 -0.0185  0.3654
28162W        W29026   8.112  22.643  16.396 -0.0141 -0.2742  0.1929
28163W        W29027   0.195  17.067   1.433  0.3019  0.0016 -0.0769
28164W        W29028  25.291  16.710  26.733  0.0337 -0.0986 -0.0240
28165W        W29029  24.238   5.044  18.727 -0.0708 -0.1472 -0.4282
28166W        W29030  22.444  12.186  14.190  0.0682 -0.2987  0.1636
28167W        W29031   8.799   1.453   7.501 -0.0975 -0.1381 -0.0318
28168W        W29032  14.704  11.887  22.836 -0.1199  0.0870 -0.0635
28169W        W29033   4.786  14.077  25.039  0.2579  0.0230  0.1271
28170W        W29034  24.568   8.540  23.019 -0.1797  0.0402  0.1387
28171W        W29035  23.809   9.870  24.949  0.1174  0.2642 -0.3269
28172W        W29036  21.951  15.568  20.243 -0.1535 -0.2852  0.1778
28173W        W29037  19.784   7.512   7.196 -0.1500  0.3562 -0.1168
28174W        W29038   9.798  10.322  25.056  0.2401  0.0826  0.4841
28175W        W29039  12.104   4.977  11.343  0.1822  0.0514 -0.1163
28176W        W29040  20.081   4.894  21.870  0.0126 -0.3298  0.0338
28177W        W29041  20.760   8.679  24.442 -0.2938  0.0485 -0.0936
28178W        W29042   4.835  27.187  19.424  0.4055 -0.0088 -0.1230
28179W        W29043   0.314   7.844  25.552  0.1726  0.2436  0.1151
28180W        W29044   6.197  11.700  19.400  0.2484  0.2135 -0.1468
28181W        W29045  23.678  15.864  17.051 -0.0635 -0.0607  0.0310
28182W        W29046   1.663   0.024  17.800  0.2048 -0.0654  0.3973
28183W        W29047   5.835  21.748  23.707 -0.3020  0.0319 -0.0169
28184W        W29048  23.214  22.935  17.741  0.0066  0.2163  0.0340
28185W        W29049  21.137   8.437   4.034  0.2172  0.0340  0.0404
28186W        W29050   6.284  27.689  18.650  0.0053 -0.2729 -0.2144
28187W        W29051  18.988   7.988  19.161 -0.3707 -0.1993  0.1007
28188W        W29052  28.758   0.415   8.946 -0.1594 -0.1042 -0.1592
28189W        W29053   5.083   9.628  10.593 -0.1961 -0.1745  0.0312
28190W        W29054  25.339  18.410  17.421  0.1326 -0.0946 -0.1630
28191W        W29055   5.015  27.497  15.648  0.0990 -0.0998 -0.1078
28192W        W29056   8.864  11.181   6.870  0.0102  0.2987  0.0287
28193W        W29057   9.122  13.622  25.488 -0.0748  0.0051  0.0199
28194W        W29058  11.795  10.071  13.282  0.0323 -0.1858  0.1982
28195W        W29059  18.521   9.970  28.796  0.0574 -0.2503  0.2819
28196W        W29060  14.144   4.082  25.056  0.0401 -0.2855  0.0044
28197W        W29061  15.176   4.129  11.111  0.0400 -0.0340  0.1746
28198W        W29062  17.679  26.850   1.791  0.1193  0.1254 -0.2563
28199W        W29063   4.155   5.853  12.461 -0.0808  0.1131  0.0759
28200W        W29064  26.453  10.423  29.003  0.2331  0.2577  0.0337
28201W        W29065   6.842   5.188  19.411 -0.2257 -0.0471 -0.5486
28202W        W29066   6.429   9.723  13.421 -0.0721 -0.0300 -0.1132
28203W        W29067  13.469   6.270   5.744  0.1773  0.1502 -0.2566
28204W        W29068  28.629   3.650  28.481  0.5027  0.4659 -0.0372
28205W        W29069  15.223   4.216   5.228 -0.1458 -0.0478  0.1887
28206W        W29070  13.139  16.437  16.216 -0.2491  0.4908  0.0309
28207W        W29071  16.775   1.648  21.100  0.2674 -0.0795  0.0224
28208W        W29072   7.622  15.292  20.209 -0.1473 -0.3572 -0.0068
28209W        W29073  20.312   3.274  21.262  0.0072 -0.0042 -0.1029
28210W        W29074  15.078   7.880  26.777  0.1425  0.0598 -0.1634
28211W        W29075  28.592   3.858   2.383  0.0303 -0.3428  0.1330
28212W        W29076   3.214  23.119   9.776 -0.4855 -0.1357 -0.0575
28213W        W29077  12.982   9.261  19.288 -0.1488 -0.2332 -0.0820
28214W        W29078   7.264  25.887  20.687  0.0636 -0.0235 -0.1511
28215W        W29079   6.114   4.360  20.945 -0.1626 -0.1462  0.0337
28216W        W29080  24.567  24.500  21.270  0.2155  0.0306 -0.0713
28217W        W29081   9.291  10.595  23.328  0.2321 -0.2653 -0.1661
28218W        W29082  21.583   1.097   1.693  0.2189  0.0416 -0.0672
28219W        W29083  11.436  26.890  24.811  0.0808  0.0091  0.3465
28220W        W29084   4.386   8.210   9.346  0.0998 -0.2022 -0.1589
28221W        W29085  13.857   3.966  19.748 -0.1229 -0.0685 -0.0006
28222W        W29086  28.674  28.589  22.314  0.3465 -0.2520  0.2521
28223W        W29087   8.991   3.174  29.076  0.0272 -0.0735  0.0167
28224W        W29088  17.884   0.938  25.385 -0.0130  0.2756  0.0603
28225W        W29089  14.670  23.242  22.717 -0.0492  0.1737  0.1120
28226W        W29090   9.998  24.043  17.568 -0.1412 -0.1866  0.1845
28227W        W29091   7.907  26.707  19.342  0.1342 -0.0810  0.0789
28228W        W29092  17.407   2.738  17.422 -0.1754 -0.0852  0.0792
28229W        W29093  21.845  22.080   4.926  0.1845  0.1200 -0.4862
28230W        W29094  24.680  22.662  24.911 -0.4164  0.0571 -0.2512
28231W        W29095   0.707  27.317  24.946 -0.1039 -0.0013 -0.2203
28232W        W29096   7.195   2.009  25.000 -0.1144 -0.0416  0.6330
28233W        W29097  26.215  21.889   1.958 -0.0334  0.1198 -0.1780
28234W        W29098   4.362   7.508  18.113 -0.1290 -0.0322  0.0127
28235W        W29099  21.229  23.872   7.957 -0.2779 -0.1687 -0.1436
28236W        W29100  14.878  28.954  16.914  0.2087  0.1627  0.0362
28237W        W29101   2.566   4.731   8.662  0.0519 -0.2179 -0.1152
28238W        W29102  22.162   1.495  27.352  0.1575  0.0190 -0.0569
28239W        W29103  16.188  16.142  27.481 -0.0725 -0.0121 -0.0715
28240W        W29104  21.199  27.275   2.825 -0.0848 -0.0804  0.1803
28241W        W29105  12.454  12.409  11.422  0.1349 -0.2242  0.0883
28242W        W29106  24.632  26.606  10.835  0.1237  0.0417  0.1457
28243W        W29107  28.979  28.904   8.629  0.0754 -0.2859  0.1999
28244W        W29108  12.727   5.786  20.481  0.0190  0.0758 -0.0114
28245W        W29109  24.879   4.436  12.103 -0.0127 -0.1709 -0.2099
28246W        W29110   9.231   2.656   3.239  0.0366  0.2423 -0.0927
28247W        W29111  21.418  13.053   6.643  0.0684 -0.2842  0.0269
28248W        W29112  11.702  10.452  15.996 -0.1475 -0.1522  0.0667
28249W        W29113   1.591  11.596  16.380 -0.1074 -0.0529  0.0853
28250W        W29114  23.189  26.097  13.551 -0.1939  0.0304 -0.1784
28251W        W29115   8.677  14.900  23.666 -0.0281  0.0003  0.1109
28252W        W29116  15.861  26.929  22.887 -0.3141 -0.0448 -0.0642
28253W        W29117  25.354  15.032  21.226 -0.1993 -0.1473 -0.0434
28254W        W29118  13.171   6.169  24.487  0.0987 -0.3047  0.0647
28255W        W29119   2.672   9.552  19.165  0.2315  0.0399  0.1458
28256W        W29120  21.183  17.927  15.571 -0.1894  0.0466 -0.0598
28257W        W29121  24.241  24.569   0.169  0.1044  0.0432 -0.0380
28258W        W29122  15.578  16.977  19.172  0.1296 -0.2578  0.2066
28259W        W29123  10.793  18.717  25.821 -0.4015 -0.0704 -0.1098
28260W        W29124  14.673   0.075  18.303 -0.1111 -0.1159 -0.2254
28261W        W29125  11.571  23.064  25.390 -0.0602  0.0542  0.1695
28262W        W29126  10.772  11.245  27.449 -0.1671  0.0155  0.2408
28263W        W29127   8.667  25.567  13.288 -0.2380 -0.3219  0.0147
28264W        W29128   1.744  10.992  12.468  0.0506  0.0665 -0.4236
28265W        W29129   7.137  26.887  13.263  0.1787  0.0361 -0.0516
28266W        W29130  27.835  23.857  25.609  0.2010  0.3100  0.0221
28267W        W29131   9.084  26.720  26.406  0.0277 -0.1089  0.1312
28268W        W29132   2.492  26.970  21.103 -0.0776  0.0420 -0.1302
28269W        W29133   2.503  24.618  22.593 -0.0861 -0.0671  0.0857
28270W        W29134   2.838  20.661  28.998 -0.1889 -0.0444 -0.0270
28271W        W29135   0.547  18.867  24.533 -0.1912  0.0254  0.1675
28272W        W29136   8.231   4.809   8.018 -0.3628  0.2107 -0.0030
28273W        W29137  13.627  21.036   3.062 -0.0546 -0.0009  0.1477
28274W        W29138   7.725  24.746  19.077  0.1217  0.1495 -0.1654
28275W        W29139  28.729   7.482  18.451  0.0247  0.0217  0.0469
28276W        W29140   4.632   6.783  25.188  0.0063 -0.1275 -0.1991
28277W        W29141  16.516   6.526   0.159 -0.1385  0.0667 -0.1032
28278W        W29142  10.414  28.928   7.380  0.1716 -0.0595 -0.0337
28279W        W29143  28.961   3.652   0.694 -0.0044  0.2130 -0.3399
28280W        W29144   6.935   7.587   7.397  0.0152  0.1641  0.3327
28281W        W29145   5.338   7.832   1.127  0.3186 -0.2241 -0.0552
28282W        W29146   4.016  24.493   7.091  0.1525  0.1221 -0.1229
28283W        W29147  19.338   1.020  20.991 -0.1077 -0.1730  0.1062
28284W        W29148  15.833  22.228  19.552 -0.1435 -0.4422 -0.1029
28285W        W29149   5.995   5.200  16.846 -0.1289 -0.1782  0.3180
28286W        W29150  25.725  10.648   3.369 -0.2848  0.1531 -0.1854
28287W        W29151  17.762  26.328  26.564  0.0956 -0.3396  0.1878
28288W        W29152   9.276   1.572  14.699  0.0285 -0.0805 -0.0135
28289W        W29153   6.091   5.455  17.673 -0.0575 -0.2230 -0.0951
28290W        W29154   2.899   6.437   5.241 -0.0845 -0.0779 -0.2669
28291W        W29155  28.368  22.790  22.185 -0.0823  0.1703  0.0954
28292W        W29156  27.705  28.460   4.568 -0.2424 -0.0068 -0.1331
28293W        W29157  27.211  25.963  25.622 -0.0115 -0.2326  0.0070
28294W        W29158  25.292  14.981  25.115 -0.0584  0.2513 -0.0984
28295W        W29159  25.283  18.391  14.369  0.0322 -0.2721 -0.0549
28296W        W29160  20.183  22.670  11.261  0.1536  0.0176  0.2934
28297W        W29161  27.919   8.272  27.066  0.0190  0.2040 -0.1963
28298W        W29162   7.390  10.101  24.569  0.1412 -0.2518  0.2658
28299W        W29163  18.328  16.397  13.461 -0.0236 -0.0906 -0.0865
28300W        W29164   2.100  10.808  22.565  0.1058 -0.2068 -0.1220
28301W        W29165  23.934   5.012  19.642  0.3949  0.0625 -0.2257
28302W        W29166  16.376   7.895   1.953 -0.1928  0.1173  0.2248
28303W        W29167   6.197   5.908  26.755 -0.0055  0.0313  0.1064
28304W        W29168  22.322  28.204  17.109  0.0307 -0.1759 -0.0590
28305W        W29169   4.175  21.928   1.015 -0.3710  0.1410  0.0578
28306W        W29170  19.837  25.811  18.046  0.2957  0.3185 -0.0670
28307W        W29171  23.144   0.088   2.356  0.1898 -0.1151  0.2506
28308W        W29172   3.529   8.431   1.753  0.2971  0.1607  0.1843
28309W        W29173   7.782  25.717  19.371  0.2246  0.2753 -0.0327
28310W        W29174   7.461   2.522  24.366 -0.0999 -0.2805  0.0749
28311W        W29175  19.665  26.817  17.715 -0.0798  0.0347 -0.0860
28312W        W29176  24.784  27.020  12.617  0.2003  0.1806 -0.1276
28313W        W29177   1.024   5.040  20.276  0.2601  0.0011 -0.1589
28314W        W29178  12.616  23.550  16.765 -0.2911 -0.2270 -0.1112
28315W        W29179  14.299  20.425  21.546  0.1850 -0.1742  0.1814
28316W        W29180  16.943  27.388  20.606 -0.0434  0.2834  0.2488
28317W        W29181  26.915  25.020  20.206  0.2542 -0.3402  0.1931
28318W        W29182   2.685   3.869  23.844  0.2492  0.0299 -0.0725
28319W        W29183   0.468  10.174  18.389  0.0535  0.1889 -0.2507
28320W        W29184   1.803   3.638   7.538 -0.1962 -0.0584  0.1675
28321W        W29185   9.920   6.162  16.036  0.0664 -0.1581 -0.0657
28322W        W29186   1.109   4.932  27.496  0.5085  0.0966  0.1491
28323W        W29187   8.380   1.920   5.486  0.1481 -0.0547  0.0037
28324W        W29188  26.866  18.420   2.910  0.2073 -0.3220  0.0627
28325W        W29189  17.824  21.551  15.801  0.3986  0.0249 -0.0216
28326W        W29190   7.386  20.144  23.459  0.1589 -0.0782 -0.1652
28327W        W29191   1.847  20.727   3.649  0.3119 -0.1036 -0.2924
28328W        W29192  28.970  11.118  15.379  0.0449 -0.0120  0.1750
28329W        W29193  21.604  28.150  14.149  0.0802  0.0218 -0.2678
28330W        W29194   2.697  23.277  24.947  0.1541 -0.0571  0.1601
28331W        W29195   1.542  23.011   0.349  0.4001 -0.0614 -0.0393
28332W        W29196  10.166  27.737  28.354 -0.1264 -0.5086  0.3701
28333W        W29197   8.136  23.268  19.929 -0.0967 -0.0156  0.1352
28334W        W29198  16.998  16.987  19.597  0.2387 -0.0631 -0.1610
28335W        W29199   1.886   4.777   0.870  0.0895  0.0843  0.2202
28336W        W29200  16.273  11.469  19.255 -0.1476 -0.3785 -0.1473
28337W        W29201  19.950   9.761  27.391 -0.1383  0.2275  0.1096
28338W        W29202  12.891   0.820   7.253 -0.2532  0.2416  0.0884
28339W        W29203  13.666   4.881   5.117 -0.2200 -0.1706 -0.0029
28340W        W29204  14.439  22.655   1.069 -0.0097 -0.0200 -0.1028
28341W        W29205   5.155   5.664   1.920  0.1179  0.2922  0.1158
28342W        W29206   5.173   5.656  27.158 -0.1773 -0.0047  0.0748
28343W        W29207  16.753   8.040  13.216 -0.0192 -0.1647  0.1184
28344W        W29208   4.083   1.211  19.539 -0.1744  0.2522  0.0783
28345W        W29209  12.709   2.347  26.693 -0.1116 -0.1721 -0.1636
28346W        W29210   7.371   0.048  10.037  0.0692 -0.0586 -0.2897
28347W        W29211   6.309   6.553  27.386 -0.1690 -0.0634  0.0167
28348W        W29212  18.347  14.646  24.932 -0.2510  0.0228 -0.1312
28349W        W29213   0.657  10.083  26.890 -0.1047  0.1501  0.1979
28350W        W29214  23.779  18.409  18.852 -0.0187 -0.2911  0.1002
28351W        W29215  28.040  24.528   8.639 -0.2369 -0.0121 -0.1808
28352W        W29216   7.496  13.588   9.056 -0.0047 -0.0206  0.1383
28353W        W29217  13.745   4.910   7.974  0.1377 -0.1537 -0.1090
28354W        W29218  14.040   8.754  27.339 -0.0539  0.0546 -0.1631
28355W        W29219  10.217  23.335   3.470 -0.0103 -0.0071 -0.3406
28356W        W29220  28.867   4.998  18.605  0.1748  0.3469  0.3874
28357W        W29221  28.993  11.301  23.389  0.0094 -0.1377 -0.3858
28358W        W29222   1.011  27.866  20.604  0.1380 -0.0500  0.0965
28359W        W29223  26.994  27.592  21.385  0.2368 -0.0342 -0.0309
28360W        W29224  15.110   3.333  16.082  0.2729  0.2071 -0.0467
28361W        W29225  12.972  24.756  13.815 -0.0588  0.0692  0.1956
28362W        W29226   5.120  12.609  14.936  0.0648 -0.0692 -0.0118
28363W        W29227  15.193  23.628  21.808  0.2067 -0.0546  0.2642
28364W        W29228  15.723   0.902   1.221  0.0369  0.0910  0.2114
28365W        W29229  27.997   5.583   3.794 -0.2261 -0.0553 -0.1592
28366W        W29230  16.461   1.282  16.953  0.2979  0.1391 -0.0758
28367W        W29231  23.576  12.916  20.864 -0.1850 -0.0921 -0.0171
28368W        W29232   7.114   1.229  13.419 -0.0542  0.1716 -0.1732
28369W        W29233   3.878  25.815  28.603  0.2570 -0.2624 -0.2421
28370W        W29234   0.897   4.961  21.739  0.1729 -0.1846  0.3058
28371W        W29235  21.401   8.493   2.186  0.0033  0.1802 -0.0873
28372W        W29236   8.708  18.776   1.682 -0.2202 -0.1944  0.1316
28373W        W29237  24.132  20.294  11.918 -0.0666  0.1693 -0.2286
28374W        W29238  26.532  17.483  16.098 -0.1134 -0.0008 -0.0399
28375W        W29239   7.035  17.427  22.126  0.0543 -0.0845  0.2461
28376W        W29240  12.042   9.489  14.542 -0.0473 -0.2388 -0.2176
28377W        W29241   2.408  27.367   6.002  0.1299 -0.2887 -0.2600
28378W        W29242  21.726  25.139  20.105  0.1264 -0.2225  0.1871
28379W        W29243   4.264   6.222   2.118  0.3470  0.2027  0.0256
28380W        W29244   1.804  16.159  16.964  0.1621  0.0859 -0.1051
28381W        W29245   4.566  12.904  17.133  0.2171  0.1181 -0.1415
28382W        W29246   8.266   5.261   0.766 -0.3877  0.1816 -0.0426
28383W        W29247  22.393   1.092  26.111 -0.1735 -0.1439  0.1119
28384W        W29248  15.682  28.021  18.295 -0.1877 -0.0320  0.2674
28385W        W29249  19.894   8.347  25.543  0.1057 -0.1109  0.1172
28386W        W29250  15.538  12.022  16.673  0.4905  0.0110 -0.2934
28387W        W29251  13.558  27.403  16.892 -0.0270  0.1663 -0.2139
28388W        W29252  16.953   7.622  28.422 -0.2947 -0.2339 -0.2718
28389W        W29253   2.774   5.889   2.384 -0.4998  0.0111 -0.0015
28390W        W29254   6.328   7.290   3.247  0.0341  0.1221  0.0083
28391W        W29255   9.831   6.155   6.250  0.2626 -0.0722  0.3071
28392W        W29256   4.641   7.629  15.095 -0.0797 -0.0895 -0.2133
28393W        W29257   0.994   1.965  22.845 -0.1827  0.0322  0.2661
28394W        W29258   6.894  28.943  25.504  0.2491 -0.5107  0.0910
28395W        W29259  11.109   2.063  27.506  0.1652 -0.1627 -0.3796
28396W        W29260  15.370   8.124  17.020  0.1293 -0.1182  0.1212
28397W        W29261  27.290  27.303  17.518  0.1213  0.3159  0.0515
28398W        W29262  28.973   8.470  24.105  0.0094  0.1868  0.1091
28399W        W29263  16.809  11.370  19.402 -0.1451  0.1619 -0.1057
28400W        W29264   2.987   3.469  19.248 -0.0613 -0.3139 -0.0987
28401W        W29265  28.063   9.479  28.662  0.0229 -0.2519 -0.1748
28402W        W29266  27.819  20.153  14.530  0.1897  0.1205  0.0154
28403W        W29267  22.808   8.120   8.768 -0.1686 -0.0758 -0.1695
28404W        W29268   3.066  27.818   3.649 -0.1258  0.0858 -0.0957
28405W        W29269  28.355   3.157  14.122  0.1240 -0.1343  0.1273
28406W        W29270   5.384  15.187  28.072 -0.0400 -0.0529  0.3236
28407W        W29271  23.446  24.394  14.996 -0.2263 -0.1631 -0.2179
28408W        W29272  27.854   1.516   0.641  0.0811  0.0632  0.1464
28409W        W29273  23.244  27.495  23.188  0.0749 -0.1755 -0.0643
28410W        W29274   5.569   1.848  25.258  0.2818 -0.2595 -0.0587
28411W        W29275  22.042  20.895   6.990  0.0150 -0.0255  0.0398
28412W        W29276  11.976   9.161   7.887 -0.1643  0.0555  0.1070
28413W        W29277  12.799  22.052  18.111  0.0795  0.1604 -0.1538
28414W        W29278   4.526   3.559  27.882 -0.0658  0.1551 -0.2302
28415W        W29279  27.307  26.360  20.670  0.1143 -0.0031  0.0733
28416W        W29280  26.979   1.985  28.375 -0.1961 -0.1310 -0.0439
28417W        W29281   6.413  19.898  26.285  0.0580 -0.0922 -0.3064
28418W        W29282  24.629  14.220   5.649 -0.3588 -0.1844 -0.3132
28419W        W29283   5.431   3.911  10.244  0.2186  0.1409 -0.2945
28420W        W29284   9.250   5.010  14.687  0.0010  0.1721  0.1267
28421W        W29285   9.952  13.407  10.815 -0.2810 -0.1695  0.0117
28422W        W29286  26.287  21.564   7.513  0.0567  0.3923  0.0049
28423W        W29287  26.447  20.767  14.417 -0.0637 -0.0725 -0.2516
28424W        W29288   4.173   6.625  14.047  0.1184 -0.0396  0.1646
28425W        W29289  25.847  18.878   4.993 -0.0100 -0.2021  0.2185
28426W        W29290  17.329  12.603  28.349 -0.1890  0.1698  0.2053
28427W        W29291  27.070  10.292  21.792  0.1119  0.2831  0.1324
28428W        W29292  20.539   7.375  12.497 -0.1650  0.0980  0.2152
28429W        W29293   5.128  15.219  14.262  0.4706  0.0176  0.1945
28430W        W29294   9.050  18.758  21.870  0.0059  0.0260  0.1551
28431W        W29295  25.431   4.306   4.794 -0.1439  0.1622 -0.0637
28432W        W29296  24.067   1.979  22.466 -0.1327  0.0423  0.0640
28433W        W29297  27.826   5.385   1.606 -0.2577 -0.0115  0.1616
28434W        W29298  10.847   4.149   3.573 -0.2731  0.1490 -0.1433
28435W        W29299   7.715  10.371   4.611 -0.1394 -0.1694  0.0339
28436W        W29300   1.235  17.943   0.710  0.1747  0.0986  0.0096
28437W        W29301   6.574   7.008  26.616 -0.0793  0.2611 -0.0141
28438W        W29302  26.183  25.974  17.405  0.0327 -0.1286 -0.0821
28439W        W29303   3.517   2.472  19.268 -0.1627 -0.2850  0.1817
28440W        W29304  17.258  14.236  22.321 -0.1337  0.1892  0.1228
28441W        W29305  15.944  14.488  21.473 -0.2164 -0.0273 -0.0424
28442W        W29306  15.181  15.989  14.187  0.1286  0.2072 -0.1362
28443W        W29307   2.698  28.182  23.013  0.1926  0.1253 -0.0655
28444W        W29308   7.223  23.065   0.189  0.0433  0.1747  0.0195
28445W        W29309  13.672   2.727   5.556 -0.0276 -0.2973  0.0662
28446W        W29310  14.179   9.979  19.618 -0.1058  0.0509  0.1277
28447W        W29311  15.532  12.663   5.876  0.2159 -0.0673  0.3534
28448W        W29312  11.160  26.729   1.647 -0.1989  0.0361  0.1510
28449W        W29313  23.782  14.813   4.654  0.0358  0.4728  0.0091
28450W        W29314  12.173  13.641  14.362  0.1151  0.1033  0.0128
28451W        W29315  21.873  19.675  25.469 -0.0131  0.1915  0.1815
28452W        W29316  13.506  12.309  18.501  0.0293 -0.2963 -0.1227
28453W        W29317  25.330  15.499  26.222 -0.0687 -0.1267  0.1750
28454W        W29318  18.515   6.548   5.405 -0.0676  0.0208 -0.1157
28455W        W29319  20.820   5.164   2.465 -0.3472  0.1488  0.1757
28456W        W29320   7.775  27.284   5.867 -0.1028 -0.1802  0.0022
28457W        W29321  15.120  16.425  26.002  0.0509  0.1446 -0.1067
28458W        W29322  27.471   0.561  24.954  0.1505  0.1052 -0.0955
28459W        W29323   1.985  26.889  20.941  0.0279  0.0337  0.0191
28460W        W29324  22.350  12.557  14.614 -0.3393  0.0203  0.0423
28461W        W29325   4.237   3.131  23.133 -0.4764  0.1343  0.0540
28462W        W29326   6.635   2.839  24.356 -0.3309 -0.3111 -0.2027
28463W        W29327  20.207  14.760   3.774 -0.1298 -0.2530 -0.0157
28464W        W29328   9.476  14.608  12.990  0.0818  0.5112 -0.0930
28465W        W29329   1.572   7.241  10.702 -0.1458  0.1086 -0.0790
28466W        W29330   9.740   2.810  22.177  0.0078  0.2572 -0.1980
28467W        W29331   1.269  12.750  21.233  0.1363 -0.0076 -0.2715
28468W        W29332   9.602  19.830  16.807  0.0332  0.0206  0.2845
28469W        W29333  29.140  26.146  11.487 -0.3391  0.1627 -0.0528
28470W        W29334  19.384  28.941  19.648  0.1919  0.2483 -0.0857
28471W        W29335   6.751   6.397  16.129  0.0059 -0.6250  0.0929
28472W        W29336   4.423  26.149  17.430 -0.2625  0.0711 -0.0276
28473W        W29337  20.425  22.304  19.665 -0.1262  0.1139  0.2428
28474W        W29338  27.747   6.359  14.862 -0.0778 -0.3552  0.0146
28475W        W29339   7.919  27.894  23.813 -0.1354  0.0673  0.0422
28476W        W29340  23.660   2.954   1.417 -0.2846 -0.2439 -0.1048
28477W        W29341  10.694  24.207   7.130  0.2407  0.1414  0.3391
28478W        W29342   2.667  22.369   5.001 -0.0408 -0.0019  0.1988
28479W        W29343  25.601  15.910   6.413 -0.0387  0.1603 -0.4109
28480W        W29344   6.032   3.580  15.154  0.0950  0.1454 -0.2391
28481W        W29345   2.101  18.832   2.301 -0.2790  0.0173 -0.1999
28482W        W29346   3.139   3.264  16.478 -0.2019 -0.0359  0.2101
28483W        W29347  22.085   1.198  24.748 -0.0498 -0.2286  0.0495
28484W        W29348  25.307  10.660  23.520  0.0903  0.0770  0.0355
28485W        W29349   1.347   8.783  24.575 -0.1837  0.1409  0.1783
28486W        W29350  28.304   3.184  11.197 -0.4453  0.2704 -0.4397
28487W        W29351  12.949   3.127   3.481  0.1734 -0.2680  0.2839
28488W        W29352  28.651   5.940  20.593 -0.0578  0.0376 -0.0673
28489W        W29353  17.941   9.049  18.741  0.1119 -0.2477 -0.0178
28490W        W29354   5.983   8.950  24.927  0.0934  0.0289 -0.1566
28491W        W29355  13.235  10.190  23.335 -0.0773  0.1830  0.0167
28492W        W29356  10.934   8.281  16.578  0.0956  0.1514  0.1581
28493W        W29357  14.968   7.703   3.895  0.1823 -0.0285 -0.3706
28494W        W29358  13.777   2.076   9.287  0.1215  0.1029 -0.0846
28495W        W29359  23.108  28.489   3.547 -0.1618 -0.0360 -0.1474
28496W        W29360   2.081   3.100  23.507  0.1565 -0.0558  0.0699
28497W        W29361  27.195  19.696  14.981  0.0052  0.3794  0.2931
28498W        W29362  21.215  22.468  24.801  0.3032 -0.1845  0.2679
28499W        W29363  16.029  20.202   1.114  0.2048  0.2633 -0.3723
28500W        W29364  23.688   8.103  14.283  0.1380  0.0211  0.0416
28501W        W29365   1.850  19.227   2.275 -0.1460 -0.0974 -0.0347
28502W        W29366   6.722   4.167  28.043 -0.2244 -0.1390  0.2302
28503W        W29367   6.023  26.956  24.626  0.1445  0.3227 -0.0246
28504W        W29368  28.018  19.033  10.153  0.2463  0.0183  0.0140
28505W        W29369   5.588   9.457  16.693  0.0795  0.0284 -0.3441
28506W        W29370   4.810  14.971  16.627  0.1733  0.1681  0.0098
28507W        W29371   8.285   7.792   1.166 -0.0085  0.1679 -0.0805
28508W        W29372  14.225   0.905  12.686  0.0602 -0.0992 -0.1191
28509W        W29373  12.344  28.390  13.346 -0.0664  0.4982  0.1563
28510W        W29374  20.344  12.566   5.461 -0.2483  0.1284  0.0561
28511W        W29375   6.980  23.078  21.467 -0.0433  0.0355  0.3055
28512W        W29376   4.069   1.105  17.126 -0.0729 -0.2708 -0.0069
28513W        W29377   8.750   5.312  15.320 -0.0685 -0.0860  0.0180
28514W        W29378   0.004  17.548  26.300  0.3388  0.1535 -0.2351
28515W        W29379   3.206  13.106   1.008  0.0163 -0.1403 -0.0813
28516W        W29380  11.882  25.151  20.194  0.0679 -0.1861  0.0871
28517W        W29381  17.190   4.676  26.454  0.3269  0.1599 -0.1428
28518W        W29382  18.753   9.563  20.307  0.0896 -0.2382  0.1666
28519W        W29383   1.868  19.177  16.195 -0.2859  0.1983  0.1651
28520W        W29384  20.516   0.553   2.003 -0.2584  0.2257 -0.1301
28521W        W29385  11.109  12.928   7.940  0.0740  0.0850  0.2181
28522W        W29386  17.064  24.821   0.268 -0.0950 -0.0335 -0.0632
28523W        W29387  11.602  20.807  17.277  0.2107  0.0370 -0.1163
28524W        W29388  19.910  19.595  23.045  0.0830 -0.2246 -0.0511
28525W        W29389   2.261   9.552   6.870  0.0545  0.2006 -0.1261
28526W        W29390  24.149   8.706  13.004  0.1119  0.1300 -0.1745
28527W        W29391   0.457  24.789  26.003 -0.3624 -0.1241 -0.2433
28528W        W29392   8.026  26.000   6.692  0.1077 -0.3761  0.2115
28529W        W29393   5.295   9.053   7.258 -0.2434 -0.0836  0.2548
28530W        W29394   1.183   7.105   4.939  0.0202 -0.1882 -0.1812
28531W        W29395  22.820   1.444  28.506 -0.0796 -0.1258 -0.0792
28532W        W29396  10.164   3.766   4.156 -0.0697  0.1226 -0.2216
28533W        W29397  18.480   2.471  16.310  0.3091 -0.1865 -0.4843
28534W        W29398  26.236  12.591  17.268  0.1088 -0.0146 -0.0310
28535W        W29399  25.978   3.005  12.193  0.2555 -0.0493  0.1565
28536W        W29400  13.411   6.613   0.730 -0.1157 -0.1813  0.1357
28537W        W29401  28.702  19.196  24.782 -0.3030  0.1425 -0.1193
28538W        W29402   5.570  28.379  25.624  0.1197  0.0259 -0.0164
28539W        W29403  24.903  23.858  23.482  0.0570 -0.1912  0.0327
28540W        W29404   5.154  18.591  21.582  0.0675 -0.0635  0.2804
28541W        W29405  12.330   0.698   6.191  0.0270 -0.1670 -0.1259
28542W        W29406   8.384  25.861  28.438  0.0275  0.0007  0.3227
28543W        W29407   2.220   3.225   9.421 -0.1494  0.1152 -0.3987
28544W        W29408  15.768   6.743   4.375 -0.3886 -0.1749  0.0579
28545W        W29409   3.443  24.683  21.190  0.1793 -0.0927  0.0746
28546W        W29410  13.576  13.401   4.818  0.3066 -0.2633  0.0544
28547W        W29411  13.581  28.467  26.833 -0.2307 -0.3346 -0.0671
28548W        W29412   7.206   7.851  10.225  0.2229 -0.1968 -0.1154
28549W        W29413   4.292  23.529  15.133 -0.0029 -0.0251  0.0678
28550W        W29414  13.513  10.659  20.188  0.0907 -0.1714 -0.1065
28551W        W29415   1.604  22.677  19.328  0.1501  0.1701 -0.1664
28552W        W29416  27.752   3.428  18.715 -0.1453 -0.4178 -0.0624
28553W        W29417  10.393  14.509   2.879  0.2707 -0.0324 -0.0616
28554W        W29418   5.312  26.624   7.251  0.0787 -0.1627  0.1116
28555W        W29419  25.827  26.576  18.598  0.1131 -0.0076 -0.1265
28556W        W29420  25.817   2.587  24.502  0.0914  0.0783 -0.0057
28557W        W29421   6.385  11.497  23.845  0.1059  0.0515  0.0871
28558W        W29422  29.093   5.235  17.306 -0.0587 -0.3256  0.2220
28559W        W29423   1.434   4.141  17.057  0.0972 -0.0060  0.0441
28560W        W29424   8.982  23.404   3.410  0.1093  0.0992  0.1072
28561W        W29425  12.043  26.050  25.457 -0.1973 -0.0564  0.2280
28562W        W29426   2.217  27.509   5.225 -0.0390 -0.0733  0.2355
28563W        W29427  14.447  20.329   1.656  0.1206 -0.1255 -0.0409
28564W        W29428  17.041  26.796  25.072  0.1888 -0.0695  0.0592
28565W        W29429  25.534   6.640  28.358  0.0365  0.0152  0.2814
28566W        W29430   5.528   6.448  20.383  0.1114 -0.0187 -0.0768
28567W        W29431   4.604   9.830  22.578 -0.1762  0.0067 -0.3326
28568W        W29432  10.614  17.693  22.114  0.1475 -0.0072 -0.1435
28569W        W29433  24.159   2.184  23.867  0.1083  0.2575  0.0226
28570W        W29434  22.349  21.748  11.274  0.0017 -0.2757 -0.0809
28571W        W29435  28.005   3.619  26.018 -0.1737  0.0186 -0.0753
28572W        W29436   1.804   9.978  27.295 -0.2112  0.2532 -0.0709
28573W        W29437  25.911  14.647  14.032 -0.0076 -0.0198 -0.0926
28574W        W29438  20.439   6.811   1.361 -0.3510  0.0869  0.2345
28575W        W29439   3.007  17.711  11.132  0.0882  0.2080  0.1879
28576W        W29440   1.175  21.274  26.520  0.1616 -0.1851 -0.3079
28577W        W29441  12.645   9.455   7.384  0.0739  0.0183  0.0399
28578W        W29442   0.217   5.099   8.173  0.0499 -0.1765 -0.1072
28579W        W29443  22.563  19.429  24.232  0.2812  0.1224 -0.1144
28580W        W29444  14.890  28.253  26.282  0.0516  0.0305  0.1292
28581W        W29445  18.023   0.862  22.520  0.0868 -0.0665 -0.2144
28582W        W29446  20.354   2.761   2.026 -0.0698 -0.1214  0.0096
28583W        W29447  16.714  13.759  17.248 -0.0451  0.0107 -0.4266
28584W        W29448  28.362  24.375  14.013  0.0582 -0.0267 -0.0184
28585W        W29449  12.288  24.477  25.919 -0.2210 -0.4330 -0.0324
28586W        W29450  11.299  21.910  26.815  0.3658  0.1107 -0.0898
28587W        W29451   4.520  16.333   2.126 -0.1132 -0.2004  0.0588
28588W        W29452  26.071  24.527  12.137 -0.1527  0.0354 -0.3788
28589W        W29453  16.368   0.741  20.764  0.0757 -0.3121 -0.1329
28590W        W29454   1.695  26.009  23.208  0.1258 -0.0028  0.0257
28591W        W29455   8.624  11.708  23.260 -0.0663  0.0003 -0.1841
28592W        W29456   9.235   7.164  15.289  0.0769  0.0005  0.3161
28593W        W29457  28.664   7.180  10.138  0.0070  0.2754 -0.2033
28594W        W29458  17.963  14.998  19.423  0.1384  0.0302  0.1482
28595W        W29459  12.610  16.531   5.314  0.3255 -0.1411  0.0622
28596W        W29460   5.435  25.298   7.654  0.0143 -0.1496 -0.0996
28597W        W29461  15.860   1.128  15.529  0.0657 -0.1855 -0.0878
28598W        W29462   3.377   5.083  10.068 -0.0993  0.0108  0.0234
28599W        W29463   1.690  26.841  23.191  0.1746  0.0491 -0.1622
28600W        W29464  13.073  24.791   7.194  0.1585  0.3038 -0.0283
28601W        W29465  15.572   7.944   7.070 -0.1668  0.0979 -0.0071
28602W        W29466  11.914  10.629   2.588  0.3210  0.1491  0.1525
28603W        W29467  16.727  13.321  27.283 -0.0951  0.2051  0.0480
28604W        W29468  14.976  22.151  22.903 -0.2655 -0.2179 -0.1604
28605W        W29469   6.890  11.555  27.748  0.1974  0.1221 -0.0106
28606W        W29470  21.337  20.379  10.190 -0.1720  0.2466  0.1909
28607W        W29471  13.907   0.425  28.195  0.2387 -0.2853  0.1847
28608W        W29472   6.099  15.748   4.816  0.0340 -0.0993 -0.3889
28609W        W29473  27.347  16.050   0.863 -0.0848 -0.1470  0.1303
28610W        W29474   0.164   7.870   4.453 -0.1800 -0.3869  0.1136
28611W        W29475   2.775  10.192  27.722  0.0774  0.1421  0.1481
28612W        W29476  21.493  18.882  25.986  0.1259  0.1256  0.0494
28613W        W29477  25.091  15.625  10.972 -0.1138  0.0531  0.2536
28614W        W29478   8.834   2.468   4.495  0.4409 -0.0720  0.1785
28615W        W29479   8.463   1.882  14.026  0.3046 -0.1628 -0.1953
28616W        W29480  10.972   5.290  21.403 -0.1451  0.0536  0.3756
28617W        W29481  24.874  24.477  17.124  0.1544  0.1004  0.0033
28618W        W29482   9.416  20.155   2.633 -0.1523 -0.1374 -0.2135
28619W        W29483  26.944  14.843  28.401  0.0758  0.1589 -0.0535
28620W        W29484   4.230  19.889  27.178 -0.0578  0.2095 -0.1764
28621W        W29485  16.068  21.530   1.666 -0.2446  0.2061 -0.0254
28622W        W29486  27.334   2.547  14.588  0.0186  0.3484  0.0173
28623W        W29487  13.344   4.439  15.723 -0.1093  0.1929 -0.0688
28624W        W29488   5.700   5.745   8.707  0.0611 -0.1147 -0.0275
28625W        W29489   2.858  18.871   4.991  0.2027  0.2052  0.2855
28626W        W29490  14.383  27.579  15.354  0.2421 -0.1272 -0.3447
28627W        W29491  27.672  17.427   1.954 -0.0161  0.2222  0.1233
28628W        W29492  20.383   4.607   7.604  0.2632 -0.2353 -0.0498
28629W        W29493   4.089   1.703  19.580  0.1037 -0.1097  0.0724
28630W        W29494  24.371  13.650   5.776  0.1951  0.1671 -0.0616
28631W        W29495  11.337   3.542  16.481  0.3633  0.2692  0.5243
28632W        W29496  25.889  18.909  14.696  0.1462  0.3072 -0.2175
28633W        W29497   2.406   1.520   4.537  0.1308 -0.0105  0.0294
28634W        W29498  22.772  13.477  12.112 -0.0309  0.2218  0.0392
28635W        W29499  27.849   8.609   0.243  0.0282  0.2129  0.4280
28636W        W29500  26.752  11.492  19.090 -0.0068  0.1784  0.2082
28637W        W29501  12.931   6.378  23.167  0.0106  0.2086 -0.2198
28638W        W29502  16.687  23.094   2.083 -0.0738 -0.1295 -0.0068
28639W        W29503  17.831   8.651   7.217 -0.4166 -0.2010  0.1887
28640W        W29504  16.942  18.165   9.024 -0.0371  0.2771  0.2571
28641W        W29505  22.977  10.146   9.619 -0.1336  0.1694 -0.0346
28642W        W29506  12.683   3.658   4.478  0.0418  0.1415 -0.0293
28643W        W29507   4.102  24.033   3.484  0.1050 -0.2123  0.2057
28644W        W29508   5.342  25.059  11.230 -0.1276  0.2352 -0.2457
28645W        W29509   7.500  12.767  16.251  0.1712  0.0892  0.0109
28646W        W29510   4.358   2.039   4.474  0.2551 -0.1208 -0.0979
28647W        W29511   1.435   6.522   1.686 -0.1176 -0.1952 -0.2082
28648W        W29512   9.799  19.915  24.954  0.0074 -0.2062 -0.1090
28649W        W29513  29.080  24.591  28.702  0.3073  0.0016  0.0665
28650W        W29514  14.850  15.315   4.158  0.1275 -0.0306 -0.2194
28651W        W29515   4.253  10.096   2.683  0.0947  0.0367 -0.1004
28652W        W29516   0.297   1.772  28.371 -0.0776 -0.4554 -0.5269
28653W        W29517   6.743   9.135  23.049  0.2606  0.0628 -0.2267
28654W        W29518   6.791  28.299   2.803  0.1493 -0.1163  0.1888
28655W        W29519   0.091  18.925  19.757  0.1616 -0.3756  0.2707
28656W        W29520  14.564  20.162   7.521 -0.1272  0.0727  0.1041
28657W        W29521   4.157  28.486  21.379 -0.1325 -0.1483 -0.0533
28658W        W29522  27.255  22.489   9.581  0.1585 -0.0010  0.0485
28659W        W29523   0.145  16.699  14.717  0.0451 -0.1551  0.3540
28660W        W29524   4.019   5.015   1.401  0.0397  0.0570  0.0526
28661W        W29525  13.208  22.661  15.237 -0.0521 -0.0924  0.1417
28662W        W29526  19.231   8.255  20.549 -0.0993 -0.1884  0.0541
28663W        W29527  14.003   4.409   1.546  0.2071 -0.0768  0.1364
28664W        W29528  19.799  13.006   4.354 -0.1212 -0.2465  0.0567
28665W        W29529   3.417  25.240  15.730  0.3958 -0.0798 -0.1845
28666W        W29530   5.509  13.251   7.027 -0.2364 -0.1754  0.1894
28667W        W29531   0.331  20.681  27.067  0.1984  0.1300 -0.1688
28668W        W29532  24.731   2.211  28.672  0.1596 -0.0845 -0.1354
28669W        W29533   6.679   9.252   7.674  0.0160  0.2086 -0.2328
28670W        W29534  10.137   3.551  28.266 -0.3414  0.4047  0.0184
28671W        W29535  10.027   8.638   6.254  0.1162  0.0203 -0.2765
28672W        W29536  18.465  20.744  13.749 -0.0207 -0.1193 -0.2452
28673W        W29537   9.186  25.126  28.733  0.0375 -0.0544  0.0314
28674W        W29538   8.892   1.201  20.703 -0.0252  0.0284  0.1059
28675W        W29539  19.951   1.851  27.146  0.0458  0.2445  0.0312
28676W        W29540   4.347   0.149   8.274  0.0974 -0.1847  0.1784
28677W        W29541   3.086  24.565   1.654  0.0655  0.1555  0.0898
28678W        W29542  27.345  29.015  12.338  0.1210  0.1295  0.0125
28679W        W29543   9.888  28.783   0.159  0.1541  0.0896 -0.0144
28680W        W29544   7.181   9.254   7.862  0.1117 -0.0706  0.0412
28681W        W29545  27.409  12.444  11.805 -0.2474  0.0242  0.3981
28682W        W29546  14.747   3.788  27.837  0.0829 -0.1482  0.0791
28683W        W29547  28.894  25.670  11.571 -0.1679 -0.0168  0.0728
28684W        W29548   5.297   2.896   8.583 -0.0512 -0.0189  0.2895
28685W        W29549   4.192  11.481   9.504  0.1912  0.1405  0.4153
28686W        W29550   4.843  15.648  27.099  0.1196 -0.0556 -0.0043
28687W        W29551   6.449   6.548  19.019 -0.2334 -0.1093 -0.0841
28688W        W29552  22.019   5.704  19.459 -0.1377 -0.0006  0.1509
28689W        W29553   5.488   1.166  13.115 -0.2516  0.0152 -0.2778
28690W        W29554   3.824   0.596  28.696 -0.0404 -0.1545 -0.1075
28691W        W29555   6.373  23.413  21.928  0.0450  0.2647 -0.4219
28692W        W29556   6.953  22.772  21.964  0.2668  0.5349 -0.2029
28693W        W29557  25.080   0.649  22.000  0.1872  0.4191  0.0801
28694W        W29558  13.829   7.416  21.621  0.0538 -0.1093  0.1177
28695W        W29559   1.089   0.997   5.045 -0.1899  0.1377 -0.1333
28696W        W29560   3.233   0.583  16.923  0.0456 -0.1858  0.2978
28697W        W29561  24.995   3.643  27.852  0.3217 -0.2358  0.0041
28698W        W29562   0.181  23.860  23.966  0.1207 -0.1267 -0.1836
28699W        W29563   0.125   3.792  14.226 -0.2442 -0.0086 -0.2509
28700W        W29564  16.595  26.428  21.824  0.2232 -0.1463 -0.2217
28701W        W29565  12.612   0.554  26.556 -0.0033  0.2424  0.1632
28702W        W29566   6.904   1.862   5.984  0.2593  0.0630  0.2803
28703W        W29567  23.798  20.047  27.088 -0.0788 -0.1336  0.0202
28704W        W29568   4.719  28.382   9.461  0.4011 -0.0788  0.0603
28705W        W29569  22.547   0.064  20.849 -0.2202  0.1222 -0.1107
28706W        W29570  11.648   9.986   4.172  0.0231  0.3840  0.3068
28707W        W29571  20.321   9.710  28.347 -0.5473 -0.1467 -0.0110
28708W        W29572   8.055  27.941   9.694 -0.3024  0.1013  0.0723
28709W        W29573  21.092   9.714  24.160  0.1102  0.0776  0.0529
28710W        W29574  10.572  25.096  27.256 -0.0565 -0.4014  0.4044
28711W        W29575   8.199  22.153  28.069 -0.1448 -0.0921  0.1175
28712W        W29576   2.727   7.819  16.168  0.0527  0.0193 -0.1213
28713W        W29577   7.278  21.421  18.465  0.0098 -0.1293 -0.0291
28714W        W29578  26.112   5.713   3.354  0.1555 -0.0234  0.0655
28715W        W29579  23.791   5.313   2.823  0.2415 -0.0309  0.0109
28716W        W29580  13.854  10.804  26.423  0.0182  0.0147 -0.0972
28717W        W29581  10.658  17.653  19.179 -0.1127 -0.0967  0.2295
28718W        W29582   1.821  29.013  16.176  0.1008  0.1707  0.1143
28719W        W29583   8.066  13.474   1.532 -0.4041  0.0008 -0.1014
28720W        W29584  26.132  12.843   0.415 -0.2458 -0.1755 -0.1287
28721W        W29585  19.474  25.309  23.389  0.2178  0.2021  0.0104
28722W        W29586   8.070   7.771  13.962  0.2577 -0.0511  0.1324
28723W        W29587   0.976   1.426  24.965 -0.1859 -0.0401  0.2087
28724W        W29588  22.899  14.053  20.219  0.0057  0.2117  0.1132
28725W        W29589  11.823  14.239  15.051 -0.0826  0.0977  0.0071
28726W        W29590  16.380   6.335   1.190 -0.0881 -0.1487  0.0493
28727W        W29591  25.875  23.683  19.203 -0.2692  0.1412 -0.0352
28728W        W29592   8.224  27.946  12.097 -0.1564 -0.0863  0.0431
28729W        W29593  26.160   8.102   9.288 -0.5411 -0.2153  0.0041
28730W        W29594  19.987  20.167   0.428 -0.0720  0.1081  0.2625
28731W        W29595  21.949  23.618  14.269 -0.0244 -0.3383 -0.0639
28732W        W29596  14.204   2.257   6.780 -0.0113 -0.5722 -0.0127
28733W        W29597   8.468   5.631  24.180 -0.0643 -0.0161  0.1985
28734W        W29598  18.755  20.608  15.890 -0.1829  0.3584 -0.3076
28735W        W29599  21.601  21.298   3.207 -0.1690  0.1762 -0.1052
28736W        W29600  27.079   4.485  25.236  0.2046 -0.0356  0.1003
28737W        W29601   0.037  12.125   7.013  0.1985  0.0223  0.2300
28738W        W29602  27.538   1.503  25.368 -0.0435  0.0972  0.0164
28739W        W29603   6.983  18.592  21.093 -0.1762  0.0381  0.3401
28740W        W29604   3.967  12.005  10.613  0.0788 -0.2314  0.3089
28741W        W29605  15.078  26.402  22.062 -0.1658  0.0934 -0.2082
28742W        W29606  24.792   5.557  28.744  0.1104 -0.0397 -0.0918
28743W        W29607  27.482  13.643  19.818 -0.0359 -0.1479 -0.1612
28744W        W29608   3.556  18.869   7.520 -0.2147 -0.0478  0.4916
28745W        W29609   6.171   6.628   0.363 -0.0005  0.0348 -0.1787
28746W        W29610   5.212  14.300  28.667 -0.0766 -0.0674  0.1875
28747W        W29611  20.638   2.600  28.430  0.2736 -0.0205  0.0389
28748W        W29612  28.481  21.316  26.449  0.0122  0.1589  0.1421
28749W        W29613   1.821  22.001  14.663 -0.2416 -0.2223  0.2378
28750W        W29614   6.460  10.473  28.722  0.0950  0.2246 -0.1312
28751W        W29615   0.919   8.733  18.166  0.1711  0.1543  0.0749
28752W        W29616   6.876  20.537   2.418  0.2769  0.3686 -0.2110
28753W        W29617   3.805  18.584   2.129 -0.2400  0.1226 -0.1687
28754W        W29618  29.016  25.228  16.851  0.1165  0.3270 -0.1700
28755W        W29619  12.437   0.404  15.225 -0.3027  0.6088 -0.1788
28756W        W29620  18.939   6.013   8.490  0.0748 -0.0350  0.1763
28757W        W29621   8.307   6.615  11.881  0.1121 -0.1328  0.1343
28758W        W29622   8.897  22.959  15.847  0.0171 -0.1477 -0.2784
28759W        W29623   2.052   1.358  21.983 -0.0728  0.3580  0.0980
28760W        W29624  13.376  28.729  25.440 -0.1190 -0.3170 -0.2986
28761W        W29625  26.214  19.413  24.504  0.2821 -0.4134 -0.1756
28762W        W29626  19.838   3.167   6.741  0.0603 -0.0919 -0.1156
28763W        W29627  21.910   6.714   3.392 -0.2793 -0.2667  0.1208
28764W        W29628  14.403   3.871  20.688 -0.0975  0.1021 -0.0955
28765W        W29629  13.819  19.384  25.787 -0.0474  0.0766 -0.2635
28766W        W29630  26.020  17.454   7.682  0.2809 -0.3174  0.3152
28767W        W29631  14.151  19.922   7.738 -0.0689  0.0963 -0.1627
28768W        W29632  23.142   5.540   7.497 -0.0862  0.1469 -0.0079
28769W        W29633  17.935  28.926  24.512 -0.1477  0.0247  0.2709
28770W        W29634  16.578  17.177  19.959  0.0768 -0.1088 -0.0202
28771W        W29635   9.553  11.195  28.825  0.0250  0.1768 -0.2545
28772W        W29636   1.604  28.996  28.561  0.2828  0.1016  0.1604
28773W        W29637  11.207  23.978  27.938 -0.0540 -0.1287  0.0234
28774W        W29638  13.305  22.355  20.284 -0.1075 -0.0025 -0.1133
28775W        W29639  17.646  11.737   6.989 -0.0223 -0.0968  0.0970
28776W        W29640  23.660  27.883   2.582 -0.2454  0.3244  0.0888
28777W        W29641  17.366  17.550  20.747  0.0444  0.0635 -0.1022
28778W        W29642   2.308  24.753   6.644 -0.2399  0.0142 -0.2630
28779W        W29643   0.050   6.758   4.696 -0.1740 -0.1375  0.0035
28780W        W29644  13.855  28.300  14.929 -0.0661 -0.3448 -0.4003
28781W        W29645  13.444  15.431  22.867  0.1345 -0.2177 -0.0317
28782W        W29646  15.247  24.436  22.429 -0.0751 -0.0879  0.0534
28783W        W29647  20.588   7.814  25.189  0.0336 -0.3808  0.4210
28784W        W29648   0.615  26.051  18.096  0.1187  0.2123  0.0111
28785W        W29649   4.980  10.313  28.491  0.4277  0.2368  0.0364
28786W        W29650  19.383  27.428   2.010  0.1507 -0.0555 -0.0039
28787W        W29651   4.677   6.492   3.348  0.2569 -0.4276  0.2539
28788W        W29652   0.455  19.604  23.412  0.1930 -0.0161  0.1065
28789W        W29653   9.157  18.462  21.357 -0.0045  0.0217  0.3342
28790W        W29654  16.987   8.814  25.029 -0.1447  0.0364  0.2295
28791W        W29655   7.714   2.900   0.842 -0.2201  0.2305 -0.4029
28792W        W29656  10.728  23.378   3.423 -0.0289  0.0590  0.0639
28793W        W29657  14.275  16.794  15.709  0.1143  0.0357  0.0671
28794W        W29658  22.490   6.070  14.829 -0.1214  0.0524 -0.3161
28795W        W29659  14.500  17.369  25.655  0.2663 -0.0778  0.2914
28796W        W29660  25.828  14.322   3.172 -0.0384 -0.0631  0.0339
28797W        W29661   3.115  25.344   9.542  0.4529  0.1417  0.2991
28798W        W29662   5.877   2.933  24.795  0.0876 -0.0742  0.0620
28799W        W29663  12.517  27.571   2.038 -0.1217 -0.1192 -0.0790
28800W        W29664   2.345  27.417   9.840  0.1664 -0.2469 -0.1664
28801W        W29665  12.400  20.834  23.592  0.0105 -0.3907 -0.0566
28802W        W29666   0.642  26.770  15.638 -0.3834 -0.0353  0.0544
28803W        W29667  23.301   7.232  13.513 -0.3069  0.0351 -0.3430
28804W        W29668  14.436   4.466  25.130  0.4319  0.0985 -0.1472
28805W        W29669   9.840  19.014   0.258  0.1412  0.0245  0.2483
28806W        W29670   1.058  24.902   6.504 -0.1389  0.0187  0.0036
28807W        W29671  13.589   5.658  25.057  0.0119  0.0213  0.1896
28808W        W29672   1.562  10.622   2.083  0.1035  0.1704 -0.1451
28809W        W29673  21.252  14.782  18.605  0.2852  0.3409  0.0965
28810W        W29674  13.430   9.002  18.365  0.0953  0.1640 -0.1797
28811W        W29675   2.672  17.161   2.812 -0.2155 -0.2557  0.3756
28812W        W29676  13.914  27.429  23.900  0.0281 -0.1871 -0.0225
28813W        W29677  12.517  11.992   2.492 -0.4405  0.2449 -0.0221
28814W        W29678   2.085   1.797  24.851  0.1408 -0.0094  0.1845
28815W        W29679   2.138  26.434  13.701  0.0296  0.0771 -0.0050
28816W        W29680  11.095   1.056  14.518 -0.0964  0.5056 -0.1719
28817W        W29681   2.917   9.511  22.658 -0.1187 -0.2562 -0.4210
28818W        W29682   8.865   3.552  25.450 -0.0768  0.1442  0.2334
28819W        W29683  28.844   9.017  20.352  0.0648  0.0063  0.1920
28820W        W29684  19.772  26.607   8.026 -0.0986  0.0779  0.0483
28821W        W29685   1.387   5.830  20.959  0.0827 -0.0793 -0.0809
28822W        W29686   8.228  26.855  20.512  0.0302 -0.0077  0.0306
28823W        W29687  11.701   6.448  25.613  0.3559 -0.2450 -0.3867
28824W        W29688   7.577   9.678  22.829 -0.1286  0.1306  0.1186
28825W        W29689  10.307  28.155   3.900 -0.0221  0.1334  0.1863
28826W        W29690   3.006   6.358  11.443 -0.1541 -0.1971 -0.0856
28827W        W29691  17.568   4.916  18.916  0.1796 -0.2774  0.1888
28828W        W29692  17.207   2.970  24.167 -0.1180  0.1608 -0.0856
28829W        W29693  19.773  11.872   4.186 -0.0873 -0.1556  0.2659
28830W        W29694  15.393  24.349  17.378  0.1963  0.2842  0.0821
28831W        W29695  10.371   1.524  16.613 -0.1049 -0.0787 -0.1836
28832W        W29696  29.074  25.548   1.582 -0.1448  0.2359 -0.3583
28833W        W29697  16.340   4.881  12.787  0.0963 -0.1443  0.2012
28834W        W29698   1.962   8.741  16.564 -0.2087 -0.1184  0.1085
28835W        W29699  28.320  13.057  23.070  0.2346 -0.1672  0.0637
28836W        W29700   8.113  17.718  21.292 -0.1002 -0.1611  0.2858
28837W        W29701  20.609   3.288   3.088  0.0089 -0.1280 -0.1556
28838W        W29702  20.964   1.255   9.442  0.0820  0.1117  0.2505
28839W        W29703  19.396   9.359  15.512 -0.0454  0.0915 -0.1264
28840W        W29704   6.545   0.721  12.588 -0.1468  0.1053  0.5397
28841W        W29705   8.821   5.536  13.374  0.0426  0.0001 -0.2832
28842W        W29706   5.177   8.895   4.553 -0.1468 -0.2452 -0.1703
28843W        W29707  10.676  20.381  22.254 -0.2541 -0.1786  0.0579
28844W        W29708  10.057  19.217   9.393  0.3664  0.0784  0.0848
28845W        W29709  24.693   6.080  13.246  0.1642 -0.0890 -0.0107
28846W        W29710  24.266   5.293  15.937  0.0362  0.0617 -0.0432
28847W        W29711   7.364   6.951  21.067 -0.0744  0.4418  0.0012
28848W        W29712  19.077   3.462  13.039  0.2589  0.0024 -0.4387
28849W        W29713   4.410  20.757  19.029 -0.1824  0.0750 -0.0894
28850W        W29714   1.139  20.323  20.331 -0.2560  0.2798 -0.0601
28851W        W29715   7.491  20.849  21.694  0.1204 -0.0469  0.3011
28852W        W29716  24.738   2.931  18.837  0.0784 -0.1590  0.1172
28853W        W29717   8.852   0.224   1.762  0.2153  0.0275 -0.2663
28854W        W29718  29.098  19.589   4.944 -0.0502  0.0720  0.2262
28855W        W29719  12.562   3.595   9.769  0.0063  0.2018  0.2707
28856W        W29720   9.715   0.148  23.099 -0.3057 -0.0499 -0.2835
28857W        W29721  19.077  28.416   4.690 -0.0684 -0.4267  0.1775
28858W        W29722  14.658   2.054  10.309 -0.1005 -0.0194  0.1311
28859W        W29723  27.232   5.131   5.688 -0.0676 -0.1141 -0.1525
28860W        W29724   7.418  12.603  28.176 -0.2707  0.3269 -0.0857
28861W        W29725  17.171   4.271  22.566 -0.3152 -0.0320  0.0327
28862W        W29726  26.388   5.145  26.023  0.0527  0.0005 -0.1770
28863W        W29727  10.049  17.374  23.894  0.0572 -0.0313  0.1077
28864W        W29728  28.083  20.627  22.594 -0.1755 -0.1329  0.1023
28865W        W29729   9.064   3.590  12.197 -0.1215  0.1065 -0.2485
28866W        W29730  22.118  11.904  19.845 -0.0587  0.1901 -0.2007
28867W        W29731  18.043  10.811  23.471  0.2107  0.0187 -0.2120
28868W        W29732  22.319  26.087  22.227  0.0840 -0.0228  0.0675
28869W        W29733   8.658  22.837  23.415 -0.3030  0.1172 -0.1075
28870W        W29734   2.394   5.082   5.298  0.0826  0.0817  0.2169
28871W        W29735   9.814  15.412  19.091  0.1359 -0.0540 -0.0213
28872W        W29736  26.306  22.451  19.706 -0.3587 -0.1559 -0.2562
28873W        W29737  21.719   5.144  20.877 -0.3136 -0.4199 -0.0404
28874W        W29738  12.988  18.151  26.048  0.0967  0.0172  0.0020
28875W        W29739  21.381   2.758  20.082  0.0376  0.1967 -0.2492
28876W        W29740   6.241   3.837   4.024  0.0996 -0.0954  0.2441
28877W        W29741  13.819  10.881   0.823  0.0705  0.2809 -0.2493
28878W        W29742  17.235  20.548   4.038  0.1515  0.1760  0.0476
28879W        W29743  27.423  13.328  23.359  0.1022  0.1240 -0.0427
28880W        W29744  26.413  28.141  18.951  0.1710 -0.2177 -0.0414
28881W        W29745  10.475  13.527   8.466 -0.0556  0.0481  0.0202
28882W        W29746   7.275  28.356  17.657  0.3448  0.0649 -0.1300
28883W        W29747  22.814  27.278  26.624 -0.1242  0.1742  0.0243
28884W        W29748  17.042  25.016  19.198  0.0951 -0.0818 -0.1046
28885W        W29749  12.404  23.842  12.510  0.0613  0.1184  0.1017
28886W        W29750  12.993   8.903  10.851  0.2113  0.0357  0.3364
28887W        W29751  21.377   5.085  17.435 -0.0814 -0.0230 -0.4012
28888W        W29752  12.296   2.081  14.192 -0.2716 -0.2239 -0.1085
28889W        W29753  18.526  21.829  23.661 -0.1833 -0.1083  0.2335
28890W        W29754  18.268   3.180  27.531 -0.0266 -0.0428 -0.2092
28891W        W29755  11.089   5.564   7.350  0.0073  0.0814  0.0498
28892W        W29756  17.763  28.174  15.453  0.0550 -0.0479 -0.1559
28893W        W29757   2.597  17.790  13.443  0.1041  0.2730  0.0684
28894W        W29758   5.995   7.702   7.257 -0.0131  0.1102  0.1215
28895W        W29759   7.178  10.792  22.220 -0.1212 -0.1500  0.0296
28896W        W29760   2.452  10.831  28.239 -0.0318 -0.1483  0.3166
28897W        W29761   5.215  22.698  10.392  0.4739 -0.1435  0.4083
28898W        W29762   7.678   1.875  22.165 -0.0608 -0.1216  0.0306
28899W        W29763  16.368  27.681  25.078  0.3341 -0.2432 -0.1638
28900W        W29764  28.361  22.463  19.654  0.0734  0.0261 -0.1410
28901W        W29765  12.979  14.654  16.845 -0.2157 -0.2838  0.0138
28902W        W29766  17.715   1.975  25.074  0.4766  0.2143  0.2205
28903W        W29767   3.092  23.638  26.659 -0.0253  0.1627 -0.1494
28904W        W29768  27.838  16.190   0.804 -0.1104  0.0363 -0.0697
28905W        W29769  23.569   4.037  10.028 -0.0749  0.2855 -0.0822
28906W        W29770   1.824  15.357  29.080 -0.2908  0.0394  0.1884
28907W        W29771  27.647  12.518   5.344  0.1848  0.0297 -0.0309
28908W        W29772   8.611  14.037   5.796 -0.0713  0.3758 -0.1353
28909W        W29773  12.283  12.303  13.050  0.2461  0.2540  0.1566
28910W        W29774  14.785  18.604  18.536  0.0320  0.2690  0.0678
28911W        W29775   2.680   8.802   2.024  0.1744  0.0769 -0.3753
28912W        W29776  24.875   4.603  17.357  0.0198  0.1615  0.0474
28913W        W29777   9.282   3.263  17.250  0.0391 -0.1260  0.1739
28914W        W29778  28.970  12.757  20.012  0.0554  0.2750 -0.1426
28915W        W29779  27.075  11.453   7.381 -0.3746  0.2914  0.0099
28916W        W29780  19.767  23.962   1.773 -0.0058  0.0545  0.2548
28917W        W29781  19.497  23.430   0.782 -0.1258 -0.0297 -0.0652
28918W        W29782  15.388   4.432  16.145 -0.0240 -0.3491 -0.0236
28919W        W29783  15.040  18.725   8.502  0.2868 -0.3959  0.0977
28920W        W29784   9.031   6.034  20.152  0.0793  0.1332  0.1695
28921W        W29785  12.057   0.056   4.060 -0.0182 -0.1465 -0.1378
28922W        W29786  11.673   3.912  28.680  0.0848  0.1784  0.0328
28923W        W29787  16.112  12.086  17.284 -0.0811  0.0687 -0.0107
28924W        W29788  16.379  11.638  28.405 -0.1415  0.1691  0.0780
28925W        W29789   3.510  26.688  21.760 -0.1025 -0.1082 -0.1420
28926W        W29790  27.180  25.175  26.544  0.2570 -0.0321  0.0272
28927W        W29791  24.887   0.898  28.253  0.2122 -0.4957  0.0435
28928W        W29792   9.033  16.684   3.369 -0.0762 -0.0661  0.0481
28929W        W29793  24.007   1.195  24.983  0.0241  0.1328 -0.0814
28930W        W29794  16.424   9.088  27.513 -0.2038  0.0695 -0.0980
28931W        W29795  13.459  15.535  15.751 -0.0702 -0.0488  0.4779
28932W        W29796   4.299   9.284  18.439 -0.2332 -0.1486 -0.0627
28933W        W29797  27.733   5.832   5.426 -0.0850 -0.0596  0.0153
28934W        W29798  27.225  19.358  23.953 -0.0850  0.3426  0.0400
28935W        W29799  15.853  15.400   4.327  0.1053 -0.2060  0.0758
28936W        W29800  16.801  12.229  24.443 -0.0351  0.2438 -0.0236
28937W        W29801   8.012   5.153  25.371  0.3105 -0.2581  0.0156
28938W        W29802   0.170   6.790   2.073 -0.1716  0.0186  0.0590
28939W        W29803  16.903  15.822   0.252 -0.1940 -0.2053 -0.2128
28940W        W29804  11.790   2.461  20.740 -0.0915  0.4273 -0.0977
28941W        W29805  27.843   4.547  20.392  0.3058 -0.1305 -0.1712
28942W        W29806  21.413   3.600   3.585 -0.0131 -0.2181 -0.0181
28943W        W29807  20.877  11.022   7.171  0.0551 -0.0569  0.0044
28944W        W29808  28.569  26.704   2.569 -0.1067  0.0445 -0.0415
28945W        W29809   7.521  24.727  21.208 -0.0263 -0.0211 -0.2092
28946W        W29810  26.865   0.688  14.181  0.2255  0.0450  0.0651
28947W        W29811   6.673  15.940  28.683  0.3515  0.0614  0.2265
28948W        W29812  23.292  21.056  19.978 -0.0144 -0.4308  0.1005
28949W        W29813  26.254   4.724  15.169  0.1290  0.0400  0.0329
28950W        W29814   8.044   6.407  15.290  0.0867  0.1130 -0.0981
28951W        W29815   2.429  25.961  15.766  0.0949 -0.0406  0.0899
28952W        W29816  15.222  10.852  21.992 -0.1522  0.0933  0.0470
28953W        W29817   5.051  26.431  20.056 -0.3094 -0.0922 -0.0603
28954W        W29818   3.551  20.679  28.928 -0.1112  0.0885  0.0911
28955W        W29819   7.011  10.216  25.772 -0.1919 -0.2152 -0.1526
28956W        W29820   5.406  13.182  12.393  0.0470  0.0270  0.0433
28957W        W29821   1.371  28.143  21.988  0.0268 -0.2717 -0.3985
28958W        W29822  10.578  25.313  10.967  0.3804  0.0244  0.0063
28959W        W29823   8.493   7.657  21.097  0.1641 -0.1110 -0.3842
28960W        W29824  11.809   9.782  23.512 -0.1688  0.2147  0.2956
28961W        W29825  25.383  16.489  11.430 -0.1532  0.4292  0.0116
28962W        W29826   9.269  21.530  27.803  0.0155 -0.2092  0.0937
28963W        W29827  23.970   6.640   8.054  0.2401 -0.0625 -0.2475
28964W        W29828  26.684  19.083  24.493 -0.2138 -0.2206 -0.3145
28965W        W29829  20.284  25.176  23.822  0.2418 -0.0100  0.2272
28966W        W29830   8.035   2.868  24.388  0.2157 -0.3522  0.2089
28967W        W29831  14.488  24.458  15.011 -0.2503  0.2775 -0.2181
28968W        W29832  19.776   1.825   0.373 -0.0342 -0.1049 -0.1626
28969W        W29833  26.877  12.325  27.136 -0.2338  0.0414 -0.1779
28970W        W29834   4.081  20.021  17.241  0.0849  0.0958 -0.2277
28971W        W29835   4.660  27.748  25.066 -0.0184 -0.1934 -0.0655
28972W        W29836  13.874  15.442   4.987  0.2102 -0.2209  0.0486
28973W        W29837  17.098  11.000  13.309  0.3949  0.4309 -0.1603
28974W        W29838   0.480   1.595   9.215 -0.1048  0.3150  0.1196
28975W        W29839  10.816  12.149  26.932  0.1569  0.0437 -0.0623
28976W        W29840   6.767   2.394  23.378  0.1688  0.4415  0.3523
28977W        W29841  26.841   0.324   6.584 -0.1097  0.0637 -0.1351
28978W        W29842  25.710  26.511  27.161 -0.2749  0.3040  0.1625
28979W        W29843   6.097  20.847  20.877 -0.2619  0.2445 -0.0318
28980W        W29844  27.707  13.474  10.383  0.1339  0.2350 -0.2537
28981W        W29845  24.422   0.637  12.950 -0.0449 -0.0501 -0.1245
28982W        W29846  10.549  26.733  17.128 -0.0266 -0.0860  0.3260
28983W        W29847  14.757   5.196   0.131  0.0105  0.0577 -0.0784
28984W        W29848  10.443   8.651  27.533 -0.0450  0.2574 -0.3639
28985W        W29849  28.530  24.893  28.383 -0.0799 -0.0109 -0.0331
28986W        W29850   3.728  18.445   1.633  0.0033 -0.0802  0.3026
28987W        W29851  11.139  23.212  19.907 -0.2240 -0.4043 -0.1173
28988W        W29852   3.205  22.422  25.443 -0.1416 -0.0346  0.4638
28989W        W29853   1.691  15.107   3.650  0.0408 -0.4829 -0.3568
28990W        W29854   5.278   3.096  20.244 -0.2986 -0.3757 -0.1276
28991W        W29855   2.872  20.896   1.967  0.5899 -0.2654 -0.1446
28992W        W29856  19.775  14.929  27.711 -0.2718  0.1708 -0.1562
28993W        W29857  27.985   1.435   7.944  0.0009 -0.5768  0.1378
28994W        W29858  11.226   9.601  22.395 -0.1327  0.1280 -0.2963
28995W        W29859  28.457   8.043   8.878  0.2292  0.1373 -0.0054
28996W        W29860  15.961   7.290  20.855  0.2309  0.2026 -0.0097
28997W        W29861  13.355  25.462  26.118 -0.1364 -0.3206 -0.1146
28998W        W29862   8.319  10.273  15.261  0.0667  0.0441  0.0075
28999W        W29863  22.230  28.276  23.547 -0.0817 -0.0009  0.3048
29000W        W29864  28.569  11.171  20.979  0.1761  0.0977 -0.0022
29001W        W29865   4.116   8.442  18.926  0.1380 -0.3230  0.1231
29002W        W29866   2.120   7.709   4.174 -0.1586  0.0568  0.0701
29003W        W29867   8.025  12.858   6.276  0.1431 -0.0617  0.0821
29004W        W29868   8.676   9.426   3.667 -0.3258 -0.2265 -0.3685
29005W        W29869  14.555  26.176  27.850 -0.1670  0.3162  0.1670
29006W        W29870  22.026  10.280  28.097  0.2828 -0.0145  0.1782
29007W        W29871   8.328   0.566  26.261  0.0824  0.0318 -0.1035
29008W        W29872   2.432   4.316  20.361  0.3873  0.2260 -0.1431
29009W        W29873   0.125  22.461  12.177 -0.2560  0.0636  0.1097
29010W        W29874   7.752  19.836  21.263 -0.1531  0.4559  0.1261
29011W        W29875  27.084  22.923   6.238  0.1484 -0.0689  0.2488
29012W        W29876   0.383  25.019   2.096  0.0282 -0.2700  0.5052
29013W        W29877   3.002  12.865   6.844 -0.2245 -0.2200  0.0740
29014W        W29878  28.876  25.001   6.722 -0.2009  0.0640 -0.3074
29015W        W29879  17.944  25.352  27.732 -0.2301  0.2639 -0.1361
29016W        W29880  27.984  16.606  23.297  0.2269 -0.0887 -0.0889
29017W        W29881   5.096  25.575  12.576 -0.1065 -0.0116  0.1245
29018W        W29882  24.115  26.677  15.306  0.2159  0.0059  0.0763
29019W        W29883   8.635   7.159   0.597  0.1017 -0.0195 -0.0620
29020W        W29884   9.661  10.847   7.807  0.0849 -0.3712 -0.1488
29021W        W29885   7.945   2.026  21.640  0.0828 -0.0884  0.0703
29022W        W29886  10.657  26.320  19.735 -0.3716  0.2685  0.1353
29023W        W29887  13.542  27.738  24.607 -0.0540  0.0751  0.0427
29024W        W29888  28.687   2.251  25.111 -0.0195  0.0023  0.0224
29025W        W29889   3.961   8.571   2.530  0.1409  0.1215 -0.3042
29026W        W29890  10.517  19.662  15.272 -0.2154 -0.0419 -0.1833
29027W        W29891   1.260  19.874  19.089 -0.0413 -0.1583  0.2135
29028W        W29892   5.860  26.913   7.951 -0.1966  0.1225 -0.1356
29029W        W29893  17.614   6.838  12.892 -0.1956  0.0758  0.0374
29030W        W29894   0.467  15.849  16.068  0.0577  0.1962 -0.2190
29031W        W29895  22.221  21.394  18.032  0.1845 -0.1752  0.1367
29032W        W29896  14.763  11.059  15.350 -0.0285 -0.0110  0.2243
29033W        W29897  22.458   9.501  25.325 -0.0185  0.1445  0.2834
29034W        W29898   3.273  25.674   4.154  0.0214 -0.1821  0.2234
29035W        W29899   2.538  14.153   4.309  0.1465 -0.0866  0.2395
29036W        W29900  12.453   0.781  21.700 -0.1520 -0.0489 -0.2777
29037W        W29901  10.016   0.727  16.759 -0.3319 -0.0204  0.0854
29038W        W29902   5.487  13.943   7.905 -0.2288  0.0194 -0.0297
29039W        W29903  17.209   6.771  16.271  0.0819 -0.3683 -0.1215
29040W        W29904  12.947  24.653  26.681 -0.2504  0.1736 -0.0088
29041W        W29905  15.486  20.809  27.551 -0.1841 -0.1562 -0.3421
29042W        W29906   7.405   7.270  13.234  0.1243 -0.0601 -0.0282
29043W        W29907   6.490   2.079   0.927 -0.2430  0.0066 -0.0602
29044W        W29908  21.914   0.092  21.480 -0.1501 -0.0513 -0.3915
29045W        W29909  21.789  24.196  21.005 -0.0901  0.0438 -0.1701
29046W        W29910   9.578   8.305  16.277  0.1443  0.2816  0.3648
29047W        W29911  25.449   7.317  10.781  0.4178 -0.2421 -0.0591
29048W        W29912  25.954  19.537   0.539  0.2431  0.2897  0.0589
29049W        W29913  11.666  26.258   0.651 -0.0178  0.0288  0.0604
29050W        W29914   5.470  23.753  26.102  0.0491 -0.0182  0.2071
29051W        W29915   3.421  10.046  24.347 -0.1890 -0.2246 -0.0383
29052W        W29916   0.094   6.803  18.355  0.1553  0.0463 -0.0694
29053W        W29917   5.084  10.360  15.377  0.1326 -0.3084  0.2813
29054W        W29918  10.651   8.962  26.456  0.0835  0.0136  0.0494
29055W        W29919   5.368   9.368  10.328 -0.0705 -0.0466  0.1094
29056W        W29920   9.414  16.456  13.793  0.0958  0.1823  0.2833
29057W        W29921   4.182   8.993   1.679 -0.1534 -0.1339  0.2756
29058W        W29922  12.190   3.329   0.754  0.1663 -0.0323 -0.2003
29059W        W29923   3.057   6.551  17.432 -0.0115  0.1309  0.4414
29060W        W29924   1.352   7.048  21.475 -0.0457 -0.0752  0.2483
29061W        W29925   3.283  26.799  12.731  0.0470 -0.0313 -0.0113
29062W        W29926  20.893  21.512  22.535  0.1306 -0.1877  0.2015
29063W        W29927   7.851   1.308  17.737 -0.3264 -0.3522  0.1071
29064W        W29928   8.186   0.260  10.976  0.2838 -0.0978  0.0826
29065W        W29929  29.019   9.433   4.378 -0.1124  0.0969  0.2729
29066W        W29930  22.042  26.406  25.002 -0.2103 -0.0100 -0.2865
29067W        W29931  22.578   3.436  12.797 -0.1155  0.0255  0.1186
29068W        W29932  16.213  12.342  27.002 -0.1993  0.1404 -0.0966
29069W        W29933   7.884  25.510  13.036  0.2125  0.1238  0.0049
29070W        W29934  15.998  24.494  23.913 -0.2679  0.0856  0.0832
29071W        W29935  11.716   2.311   5.184  0.3093 -0.1071 -0.0029
29072W        W29936   2.207   5.028  22.120 -0.1612  0.0482  0.1919
29073W        W29937  12.987  23.823   7.253  0.0823 -0.2848 -0.0868
29074W        W29938  26.120   6.037   7.759  0.1583  0.1014 -0.1136
29075W        W29939   0.991   5.347  19.404 -0.1739 -0.2184 -0.1077
29076W        W29940   9.286   0.838  23.406 -0.0272  0.3421  0.4606
29077W        W29941  28.380   0.312  13.805 -0.1066  0.0137  0.1238
29078W        W29942   8.225  21.673  15.971 -0.2860  0.1216 -0.0824
29079W        W29943  13.305  10.235  16.496 -0.1680  0.2011  0.3360
29080W        W29944  11.288   8.685   2.573 -0.1390 -0.3313 -0.1797
29081W        W29945  25.451  10.240   3.397 -0.4324  0.1493  0.1268
29082W        W29946   5.344   6.037   7.939 -0.0484 -0.1520 -0.3126
29083W        W29947  20.081  27.079  16.373  0.1109 -0.0137  0.3304
29084W        W29948  26.224   2.108  19.832  0.2144  0.1052  0.2089
29085W        W29949  20.096  11.586  20.338  0.2263 -0.3672 -0.2089
29086W        W29950  21.719  10.575   8.833  0.0396 -0.1953 -0.1383
29087W        W29951   3.250  17.976  24.880  0.3411 -0.2411  0.4149
29088W        W29952  23.896  20.417  20.612  0.2198 -0.1466 -0.0025
29089W        W29953  13.392   2.224  15.417 -0.0941 -0.2927  0.1617
29090W        W29954  16.190   6.203   5.523  0.1568 -0.1556 -0.2882
29091W        W29955   7.373  13.109  21.823 -0.2023  0.2132 -0.2892
29092W        W29956   0.461  15.860  18.833  0.1373  0.0519  0.1153
29093W        W29957  28.941  27.434   8.953  0.2672  0.1792 -0.1958
29094W        W29958  17.858  21.249  11.741  0.1496  0.1358 -0.0993
29095W        W29959  17.117  18.817   4.159 -0.1708 -0.2528 -0.0728
29096W        W29960   7.027  24.240  18.030 -0.0405  0.0949 -0.1108
29097W        W29961  28.201  11.400  10.082 -0.0067  0.1900  0.2211
29098W        W29962   5.406  19.332   4.149  0.2143  0.2145  0.1935
29099W        W29963  23.424   8.454   9.646 -0.2950 -0.1783 -0.1667
29100W        W29964  10.914   7.245   0.761 -0.2615 -0.1534  0.1242
29101W        W29965  22.918   9.906  28.075  0.0493  0.2738 -0.1023
29102W        W29966   3.247  13.172   3.176 -0.0194 -0.0433  0.0038
29103W        W29967  27.661   4.764   1.631 -0.0217  0.3285 -0.1297
29104W        W29968  27.068   0.248  28.068  0.1059  0.0184 -0.0859
29105W        W29969  15.786   3.902  12.960  0.4335  0.1992  0.2504
29106W        W29970   4.165  23.341  20.959 -0.0415  0.0742 -0.1414
29107W        W29971  10.851  12.365  23.139 -0.1363  0.3093  0.0741
29108W        W29972   8.821  13.609   1.278  0.2170 -0.0788  0.1379
29109W        W29973  14.699   0.760   0.571  0.0423 -0.2848  0.0738
29110W        W29974  13.686  13.322  12.246 -0.0046  0.0831 -0.3475
29111W        W29975  15.038   5.965  28.862 -0.3139 -0.2922 -0.0154
29112W        W29976   6.552  12.609  11.523  0.0619 -0.1567 -0.0591
29113W        W29977  20.202   1.264  26.052 -0.0676 -0.1887  0.1356
29114W        W29978  17.458  19.292  11.031  0.1645  0.2321 -0.0572
29115W        W29979   6.584  27.044  24.462 -0.2648 -0.1489  0.2011
29116W        W29980   9.934   6.012   7.543  0.2591  0.0700  0.1083
29117W        W29981   2.987   8.520  12.633 -0.2013  0.1483  0.1693
29118W        W29982   7.084  19.937  18.829 -0.1904 -0.0248  0.1786
29119W        W29983   9.927   5.829  25.152  0.0082  0.0164 -0.1710
29120W        W29984  19.918  12.684   1.558 -0.2692  0.2712 -0.0960
29121W        W29985  19.779  14.976   3.783  0.0799 -0.2003 -0.1137
29122W        W29986  12.435   4.723  12.117  0.3289  0.1956 -0.1076
29123W        W29987  26.132   9.252   8.202 -0.2178 -0.1512  0.0588
29124W        W29988  14.696   6.939  15.293 -0.0561  0.1632 -0.0964
29125W        W29989   4.971   5.315   9.159  0.1230 -0.0066 -0.3127
29126W        W29990  13.820  21.534   4.902 -0.0962  0.0911 -0.0456
29127W        W29991  10.281   7.818  23.975 -0.0038 -0.0487 -0.0227
29128W        W29992  11.806  24.905   0.778 -0.0084  0.1512  0.1272
29129W        W29993   2.961  18.358  16.508  0.0871 -0.0269 -0.2752
29130W        W29994   2.412  26.258  20.435 -0.0299 -0.3467  0.1762
29131W        W29995   4.419  17.367  11.545  0.1330  0.0500  0.0306
29132W        W29996   5.055  20.941  26.045  0.0924  0.1295  0.0655
29133W        W29997   2.360  23.303  10.558  0.0112 -0.0864  0.0423
29134W        W29998  20.578  10.420  27.334 -0.1452  0.0572 -0.3001
29135W        W29999  21.874   4.356   9.476  0.1508  0.0736 -0.0789
29136W        W30000   7.284   9.638  10.619  0.1712 -0.0804 -0.1211
29137W        W30001   4.461  13.120  28.209  0.2279 -0.0193 -0.0199
29138W        W30002   1.327   2.219   0.258 -0.1059 -0.0125  0.0496
29139W        W30003  20.149  12.758  21.156  0.2531  0.0044 -0.0961
29140W        W30004  27.351   7.358   2.760 -0.1200  0.0879 -0.0857
29141W        W30005  14.960   7.477   1.691 -0.0407 -0.1785  0.1321
29142W        W30006  16.957  17.605  28.825  0.1797 -0.1424  0.0127
29143W        W30007  17.836   4.760   4.847  0.0793  0.0301 -0.1562
29144W        W30008  27.546   2.973   9.997 -0.1570 -0.1949  0.1592
29145W        W30009   4.647  18.489  15.733  0.1517 -0.2221  0.4050
29146W        W30010   1.190  25.622  26.605  0.1594  0.0293  0.4199
29147W        W30011   9.161  27.756  17.254 -0.2936  0.2788 -0.0034
29148W        W30012   5.882   7.283   4.127  0.4712  0.2080  0.1117
29149W        W30013   0.953   9.639  29.037  0.0910  0.0843  0.4119
29150W        W30014  13.440  23.885   1.619 -0.2529  0.1975 -0.1159
29151W        W30015   4.374   2.669   8.419 -0.2298 -0.0500  0.1594
29152W        W30016  27.224  14.940   9.190 -0.0440  0.2715  0.0639
29153W        W30017   5.087  25.628   2.659  0.3274  0.2589  0.2199
29154W        W30018   5.763   6.046   0.362 -0.1632  0.1600  0.1624
29155W        W30019  11.732   4.985  19.092  0.1519 -0.2082  0.3050
29156W        W30020   4.279  12.008  13.004 -0.0833  0.0383 -0.0303
29157W        W30021  22.729   1.854   0.944  0.1610 -0.2208  0.1447
29158W        W30022   5.595   4.322  16.108 -0.0417  0.0146  0.0474
29159W        W30023  25.406   3.631  28.086 -0.1413 -0.0199 -0.1269
29160W        W30024   1.859   2.445   0.440 -0.0766 -0.1296 -0.1001
29161W        W30025   6.083  12.417  26.764  0.2453  0.1955 -0.3131
29162W        W30026  25.690   8.383   8.153  0.1448 -0.0029  0.2692
29163W        W30027   9.573  19.202  15.686 -0.0766 -0.1326 -0.2031
29164W        W30028  13.709  28.169  19.695 -0.1193 -0.0897  0.2272
29165W        W30029   9.295   8.896  19.169 -0.0041  0.2640  0.0269
29166W        W30030  26.503  22.178  13.825  0.4092  0.0159 -0.3038
29167W        W30031  16.104   8.817  25.848  0.1252  0.0692  0.0792
29168W        W30032  10.345   6.497  15.169 -0.0187 -0.2447  0.1192
29169W        W30033   5.554  22.919   6.989  0.1861 -0.1012  0.1542
29170W        W30034  28.867   2.332   3.597 -0.1403  0.0997 -0.1539
29171W        W30035   4.980   8.604   0.173  0.1381  0.0029 -0.4318
29172W        W30036  23.952  14.202  25.508 -0.3264 -0.1780  0.2027
29173W        W30037  15.048  12.024  16.909  0.1232  0.2685  0.2612
29174W        W30038  11.917   1.362   5.856 -0.1132 -0.1730 -0.0678
29175W        W30039  18.315  27.041   6.789 -0.3455  0.2125 -0.0100
29176W        W30040   9.424  13.120   6.276 -0.3318  0.0396  0.1899
29177W        W30041   4.035  28.044   4.405 -0.0272  0.1802 -0.1277
29178W        W30042  14.887  22.698   3.457  0.1729 -0.0846  0.0516
29179W        W30043   8.375  10.397  22.964 -0.1107  0.2740 -0.2806
29180W        W30044   6.518  28.810   2.653  0.0254  0.0055  0.1095
29181W        W30045   0.052   9.244  11.731 -0.2547  0.0876 -0.1459
29182W        W30046  16.724  27.835  16.084 -0.0186  0.0666 -0.1588
29183W        W30047  28.833   9.165  27.975 -0.2118  0.0884  0.1893
29184W        W30048   0.032  26.875  14.165  0.3001 -0.2196 -0.1777
29185W        W30049   7.473   0.828  28.984  0.1842  0.0208 -0.1745
29186W        W30050   5.267   3.629   1.718  0.0846  0.1088  0.2532
29187W        W30051  24.491   5.132  22.695  0.2772  0.1470  0.1090
29188W        W30052  19.446   4.863  27.384  0.4188 -0.0025 -0.2691
29189W        W30053   5.472  16.564  22.849 -0.0697  0.0606  0.0701
29190W        W30054   8.000   5.984  14.325  0.0551 -0.0820 -0.1787
29191W        W30055  24.893  19.596  17.341  0.1707  0.0725 -0.0818
29192W        W30056   9.278  27.212  20.132  0.2303 -0.1930 -0.0999
29193W        W30057   3.918   3.157  23.648 -0.1088  0.2228 -0.3338
29194W        W30058   8.958  18.066  26.865  0.1304  0.2010 -0.2722
29195W        W30059   5.637   3.956   7.776 -0.2048  0.0416 -0.2928
29196W        W30060   5.786  14.014   0.337 -0.1602  0.0052 -0.0518
29197W        W30061  10.051  23.703   6.598 -0.0616 -0.2266  0.1700
29198W        W30062  23.445  13.939  19.315 -0.0586  0.0071  0.1003
29199W        W30063   9.701  28.743   8.744 -0.1455 -0.3798 -0.2178
29200W        W30064  13.778   5.814  20.614 -0.0515  0.1711  0.0225
29201W        W30065  20.633  19.506  26.306 -0.3641  0.0731  0.1274
29202W        W30066  28.223   1.715   9.205 -0.1232  0.3159 -0.0696
29203W        W30067  17.510   0.853   4.961 -0.2783  0.0784  0.0517
29204W        W30068  18.460  27.182  22.404  0.0401  0.2085  0.0889
29205W        W30069  14.369  11.736  29.143 -0.1862  0.0857  0.2270
29206W        W30070  22.476  18.825   6.148  0.4392  0.1884 -0.1828
29207W        W30071  11.226   4.935   1.400 -0.0489  0.0713  0.0787
29208W        W30072   6.285   5.859  27.311 -0.1728  0.1465  0.0085
29209W        W30073  25.893   0.849  24.070  0.2228 -0.0040 -0.3523
29210W        W30074   4.929   1.868  25.951 -0.2593 -0.0142  0.1336
29211W        W30075  27.397  22.527  20.579 -0.0837 -0.1474  0.0177
29212W        W30076  22.903  25.032   5.371  0.0140  0.0462  0.3893
29213W        W30077  24.419  26.129  18.397  0.2863  0.0203  0.0512
29214W        W30078   3.725  11.573  11.238 -0.0717 -0.3022 -0.3466
29215W        W30079   5.271  11.926  26.839  0.0193 -0.0758 -0.0244
29216W        W30080   9.286  28.226  27.692  0.1052 -0.0076 -0.1421
29217W        W30081   3.063   8.139  20.399 -0.0017 -0.2924 -0.1266
29218W        W30082  26.579  27.300   8.285  0.0625  0.0692 -0.3415
29219W        W30083  26.869  28.485   0.318 -0.1025  0.0664  0.1515
29220W        W30084  24.633   3.473   3.825  0.1731  0.1849  0.1187
29221W        W30085   9.014  11.445  27.377 -0.2314 -0.2312 -0.0319
29222W        W30086  23.323   4.859   0.685 -0.0030 -0.0678  0.1744
29223W        W30087  27.800  22.414   7.247 -0.3221 -0.2244  0.0811
29224W        W30088  12.027  12.094  24.982 -0.0482 -0.0593 -0.2076
29225W        W30089   4.333  22.141   3.947  0.3502 -0.1956 -0.1445
29226W        W30090  27.082   7.588   6.836 -0.1077 -0.0215  0.0068
29227W        W30091  15.298  11.333  16.037  0.3348 -0.0861  0.1996
29228W        W30092   0.225  17.888  28.100  0.1697  0.1121  0.0731
29229W        W30093  11.201  13.096  12.879  0.2150  0.0045 -0.3633
29230W        W30094  28.545  29.095  23.886  0.0971  0.0090  0.3259
29231W        W30095  13.222  22.380  17.312 -0.0281  0.3159  0.2187
29232W        W30096  29.100   1.294  18.045 -0.0498  0.0273  0.1057
29233W        W30097   5.653  21.363  26.924  0.0349  0.0186 -0.0532
29234W        W30098  27.944  25.965   5.735  0.0970  0.1056  0.0519
29235W        W30099  17.090   9.711   0.485 -0.2726  0.1597 -0.1032
29236W        W30100   4.292  28.291  19.030  0.0671  0.0940 -0.3168
29237W        W30101  28.153   7.365  10.080 -0.0194  0.3947  0.0889
29238W        W30102  17.844  12.494  23.725  0.2140 -0.3560  0.0582
29239W        W30103   7.825   0.317   5.590  0.1889 -0.0558  0.1814
29240W        W30104  12.811  27.442  24.870  0.3387  0.1149  0.1904
29241W        W30105  22.749  24.151   7.265  0.2128  0.2717 -0.1415
29242W        W30106   2.634   0.976  27.950  0.2501 -0.0951 -0.0217
29243W        W30107   6.195   0.019  18.486  0.1210 -0.1287  0.2487
29244W        W30108  14.399  10.135  17.158 -0.0338 -0.2625 -0.3341
29245W        W30109  14.068   3.666   1.429  0.1817 -0.0550  0.1770
29246W        W30110  27.200  21.687  12.473  0.1317  0.0107  0.0874
29247W        W30111   2.945   7.208  16.036 -0.0740 -0.0690  0.3376
29248W        W30112  18.218  12.318   0.967  0.3253 -0.2150 -0.1358
29249W        W30113  25.839  25.520   9.719  0.1459  0.0045 -0.2051
29250W        W30114  25.551   4.321   0.840 -0.0811  0.1970  0.2111
29251W        W30115   5.439  13.258  26.957 -0.1323  0.4279 -0.3614
29252W        W30116  11.569   6.493   8.850 -0.1665 -0.0294 -0.1316
29253W        W30117   4.506  23.599  10.337 -0.1303  0.2288 -0.5429
29254W        W30118  24.686  24.443  16.609  0.0499  0.0009 -0.0982
29255W        W30119  17.724   1.275   4.124  0.0109  0.1162  0.0883
29256W        W30120  10.687  15.999  24.008  0.1086 -0.0386 -0.0100
29257W        W30121  29.075  20.841   1.541 -0.4354 -0.0911  0.1940
29258W        W30122   3.066  25.115  16.601 -0.1677 -0.0389 -0.0924
29259W        W30123   7.544   8.085  15.695 -0.1155  0.1656 -0.0400
29260W        W30124   5.934  13.646   9.255  0.1212 -0.2550 -0.0571
29261W        W30125  25.235  14.679  21.509 -0.1054  0.4694  0.1728
29262W        W30126  10.566  18.749   5.613 -0.2609 -0.2022  0.0284
29263W        W30127  15.126  21.657  16.765  0.1719  0.0132  0.2641
29264W        W30128   5.402  19.045   1.825  0.0165 -0.1866 -0.1705
29265W        W30129  25.202  26.963  27.336 -0.0016  0.0618  0.1050
29266W        W30130  16.424  11.006  27.179  0.0826 -0.3172 -0.0527
29267W        W30131   1.892  27.699  22.601  0.1054  0.0252 -0.1461
29268W        W30132  17.228   0.232  19.213 -0.2816 -0.1082  0.0453
29269W        W30133   7.547   8.494   2.746 -0.2285 -0.1965 -0.2304
29270W        W30134  19.887   1.794  18.662  0.2752  0.1541  0.4729
29271W        W30135  18.461   5.469  26.399  0.3893  0.1027 -0.1616
29272W        W30136  28.188   0.099   7.183  0.1048 -0.0853  0.0627
29273W        W30137  16.129   0.191  24.368  0.1683 -0.2157  0.1935
29274W        W30138   3.130  19.695  28.087  0.1960 -0.2727  0.0806
29275W        W30139   5.959  11.910  15.334  0.2378 -0.0815  0.1271
29276W        W30140  15.796  25.423   0.926 -0.1703  0.2409  0.0424
29277W        W30141   0.225  11.470  14.211 -0.3036 -0.0558  0.0781
29278W        W30142  19.030   8.348  18.048  0.2008 -0.3148  0.0307
29279W        W30143  16.119   9.655  29.061 -0.2756  0.1009 -0.3316
29280W        W30144   9.850  17.899   5.878  0.1605  0.3045 -0.4062
29281W        W30145  16.328   7.048  17.519  0.1492  0.2688  0.0330
29282W        W30146  23.002   6.583  24.193  0.0254  0.3231 -0.2460
29283W        W30147  17.371  12.817  27.573 -0.0365  0.0810  0.2097
29284W        W30148  11.855  18.345   4.516 -0.1106 -0.1538 -0.2836
29285W        W30149   7.473   1.129  27.093  0.0664  0.1071 -0.1707
29286W        W30150  16.649  27.973  21.703  0.3160 -0.0311  0.0387
29287W        W30151  16.111   3.708   4.208 -0.1388 -0.2314 -0.1459
29288W        W30152   9.589  25.542  16.961  0.0253 -0.1058 -0.0037
29289W        W30153  12.254  16.635  26.070  0.0641  0.1821 -0.4270
29290W        W30154   8.964  18.849  28.753  0.1126 -0.2245 -0.0167
29291W        W30155  10.839  15.272  16.659  0.1235 -0.1251 -0.2890
29292W        W30156  23.256   3.851   8.063  0.2377 -0.1500  0.1529
29293W        W30157  19.588  14.373   9.806 -0.2241 -0.0066 -0.0470
29294W        W30158  24.318   6.572   9.013  0.2805 -0.0171 -0.2199
29295W        W30159  13.264   6.074  18.933 -0.0118 -0.0445  0.1374
29296W        W30160  13.515   5.461  26.216  0.1039 -0.0541  0.2999
29297W        W30161   4.367  24.199  23.591 -0.0395  0.0406 -0.2330
29298W        W30162   4.247  18.547  21.411 -0.0106  0.0503 -0.1836
29299W        W30163   5.921  12.245  24.381 -0.0445  0.0289 -0.0646
29300W        W30164   9.565  11.950  27.520 -0.0565  0.0057 -0.0601
29301W        W30165  24.790  10.739  26.235 -0.0069 -0.2667  0.0035
29302W        W30166  15.341  17.005   5.537 -0.1221 -0.0555 -0.0184
29303W        W30167   1.280  20.208  23.137 -0.1626 -0.0269 -0.0077
29304W        W30168   1.283   1.973  27.613  0.1715  0.2421 -0.2723
29305W        W30169  17.063  13.147  12.582  0.0505  0.2089  0.0908
29306W        W30170   0.240  14.524  25.146  0.0350  0.1792  0.0942
29307W        W30171  20.456  17.221   3.998  0.1109  0.0462 -0.0212
29308W        W30172   0.378  26.494   2.481  0.1183  0.1734  0.1224
29309W        W30173   8.089  21.374  13.475 -0.0747  0.0675 -0.0148
29310W        W30174  25.022   8.003  23.596 -0.0546  0.3290  0.2941
29311W        W30175  17.794  11.073  23.782  0.0348 -0.2119  0.0974
29312W        W30176  28.748   1.482   9.321  0.1940  0.0906 -0.0235
29313W        W30177  23.166  25.016   8.495  0.1225 -0.1330 -0.0790
29314W        W30178   7.396  20.874   8.612 -0.2962 -0.1432 -0.2069
29315W        W30179  21.558  10.680   2.467 -0.1864  0.2535  0.1135
29316W        W30180   9.963   3.271  12.435 -0.1048 -0.0435 -0.0769
29317W        W30181  26.902  18.718  10.722  0.1489  0.2208 -0.1445
29318W        W30182   3.555   0.846  20.070  0.0212 -0.1198 -0.1411
29319W        W30183   8.326  11.586   3.818 -0.1560  0.1208  0.2982
29320W        W30184   5.343  10.319   1.861  0.2521  0.1261 -0.0262
29321W        W30185   6.207   3.145  26.777 -0.0701  0.0256 -0.0303
29322W        W30186   2.630  18.814  28.474  0.1417 -0.3279 -0.1909
29323W        W30187   2.478   5.221  20.680  0.0732  0.3299  0.0870
29324W        W30188  20.556   4.676  11.148 -0.3085 -0.1479  0.2222
29325W        W30189  13.998   4.310  26.761 -0.0374 -0.0611 -0.0447
29326W        W30190   5.506   3.231  12.578 -0.0629  0.3250  0.1552
29327W        W30191   5.391   4.497  23.063 -0.0259  0.1699  0.0887
29328W        W30192  25.984   3.555  10.436 -0.0342  0.2462 -0.1532
29329W        W30193   6.868  11.756   2.016 -0.0001  0.1519  0.0985
29330W        W30194  24.525  23.549   7.625 -0.0654  0.0670  0.2678
29331W        W30195   5.710   1.806  22.604  0.3993  0.2293 -0.1899
29332W        W30196  17.143   0.151  12.292 -0.1832  0.1141 -0.0807
29333W        W30197   2.943  23.286  23.090  0.0078 -0.3056 -0.2574
29334W        W30198  16.454  28.083  15.617  0.1136 -0.1278 -0.0807
29335W        W30199  25.056   1.196  21.124  0.4592  0.1459 -0.1644
29336W        W30200   5.552   7.823  19.923 -0.0326  0.0674  0.0858
29337W        W30201  17.818  13.213   7.528  0.1617 -0.1188  0.1619
29338W        W30202  27.595  25.451  15.376 -0.1213  0.1259 -0.1406
29339W        W30203  23.393  25.979  18.456  0.3308  0.0199 -0.2898
29340W        W30204  18.113   8.268  16.361 -0.0559  0.1249  0.0431
29341W        W30205   9.916  23.441   8.143 -0.0223  0.0706  0.3622
29342W        W30206  19.582  26.348  23.371 -0.0364 -0.0244  0.0751
29343W        W30207   5.825   1.956   8.642  0.0562  0.0295  0.1973
29344W        W30208  21.661   9.899   8.791 -0.0742  0.0853  0.0646
29345W        W30209   1.739  16.959   9.596  0.2143  0.2016 -0.1155
29346W        W30210   8.838  25.346  29.081  0.2506 -0.0382  0.0226
29347W        W30211  23.091   3.685   1.434  0.1802  0.3879  0.0249
29348W        W30212   5.344   8.458  25.505 -0.1098  0.0878 -0.0462
29349W        W30213   6.801   3.484  21.833  0.1837 -0.0597  0.4513
29350W        W30214   4.152  14.004  24.903  0.0463 -0.2227  0.1303
29351W        W30215  24.416  16.403   1.492 -0.0627  0.1489 -0.0705
29352W        W30216   9.652   7.352   3.055 -0.1933  0.1785  0.1466
29353W        W30217   8.654  26.952  26.179 -0.1148  0.0432 -0.3289
29354W        W30218  10.477  27.827  20.417  0.1321  0.0978 -0.0299
29355W        W30219  25.824   4.864   0.283 -0.2109 -0.0168  0.0727
29356W        W30220  16.630   2.562  28.676 -0.2471  0.2139  0.1268
29357W        W30221  10.211  28.016   0.477  0.4228 -0.0950 -0.1768
29358W        W30222  24.396   8.105   8.104  0.1562 -0.0256 -0.0629
29359W        W30223   7.255  23.803  26.423  0.4352  0.0729 -0.0950
29360W        W30224   6.976  10.990  26.432 -0.0303 -0.0081  0.2275
29361W        W30225  25.453   2.286  28.508  0.0593  0.0849  0.0289
29362W        W30226   9.321  17.113  17.712  0.1948 -0.0803  0.2184
29363W        W30227   8.990  17.713  17.013 -0.1224 -0.0273  0.0711
29364W        W30228  14.114  26.064  13.364 -0.1497  0.1223  0.1040
29365W        W30229  19.907  28.666   0.825 -0.0308 -0.1941 -0.0614
29366W        W30230   1.153  24.987  22.193 -0.2962 -0.3736  0.3427
29367W        W30231  10.536   5.113   1.098  0.0776  0.0721 -0.2087
29368W        W30232   8.712   2.141  22.793  0.1658 -0.0072 -0.3125
29369W        W30233  19.996  13.431  23.644  0.1401 -0.0595 -0.0282
29370W        W30234  18.396   0.037  23.688 -0.1293 -0.4951  0.0551
29371W        W30235   5.794  26.428   9.913  0.2290  0.0393 -0.0348
29372W        W30236   5.851  21.966  12.214  0.0774  0.1481  0.0911
29373W        W30237  18.953   8.023  24.548  0.3639 -0.3102  0.3738
29374W        W30238   4.996  22.061  22.397  0.0765  0.1013  0.3481
29375W        W30239  12.134  27.529   9.108  0.1868 -0.2564 -0.0251
29376W        W30240   2.472  27.382   8.438 -0.0466  0.1373 -0.4189
29377W        W30241   1.369  12.052   1.542  0.2195 -0.4446  0.2989
29378W        W30242  11.564   8.104  20.675 -0.0723  0.0919 -0.2754
29379W        W30243  21.105   9.899  13.173  0.0981 -0.1505  0.3904
29380W        W30244  18.088   6.798   5.617  0.1208 -0.0936  0.3826
29381W        W30245  20.324   4.591   3.149 -0.0171  0.1015  0.0019
29382W        W30246  23.735  12.895  27.658 -0.1859  0.0327 -0.1160
29383W        W30247   1.863  15.456   3.218  0.2295  0.0792 -0.1315
29384W        W30248   2.216   4.244  14.634  0.3274  0.2588  0.0155
29385W        W30249  16.029   4.473  17.366  0.2269  0.0380 -0.1232
29386W        W30250  17.943  26.927   1.195  0.1371 -0.2222 -0.0159
29387W        W30251  13.811   8.043   2.783  0.2145  0.2004  0.2053
29388W        W30252  16.734   9.187  23.032 -0.1595  0.3219  0.1260
29389W        W30253  28.034  17.988   7.877 -0.1121  0.0048  0.0897
29390W        W30254  13.863   1.665  21.196  0.0655 -0.0272 -0.3719
29391W        W30255  25.378  13.641  26.813 -0.0894  0.2306  0.1234
29392W        W30256  27.087  11.765  18.834  0.1602  0.1186  0.4485
29393W        W30257  15.834   9.513   9.420 -0.1178  0.0016 -0.0533
29394W        W30258   1.256  17.762  23.866 -0.2260 -0.2054  0.1580
29395W        W30259   7.454  13.093  12.831 -0.1404 -0.0182  0.1902
29396W        W30260   6.129   2.117   3.422  0.1994 -0.0753 -0.0209
29397W        W30261  19.302   2.646  22.890  0.0331  0.0362 -0.2611
29398W        W30262  16.941  25.201  10.121  0.0044 -0.0851  0.0052
29399W        W30263  17.990  14.889  12.174  0.0693  0.0095 -0.1286
29400W        W30264   6.416   3.123  10.153  0.2603 -0.0358  0.3517
29401W        W30265  26.808   1.121  20.490 -0.0024 -0.0341 -0.0326
29402W        W30266  20.023   0.268   5.608 -0.2392  0.1707  0.0519
29403W        W30267  22.538  20.442  13.220 -0.0799 -0.0720 -0.1470
29404W        W30268   1.481   1.716  12.722 -0.3897  0.0511  0.2830
29405W        W30269  18.874   9.806   0.364  0.1409  0.1276  0.2248
29406W        W30270   3.217   1.184   9.534  0.0207  0.2151 -0.2609
29407W        W30271  15.141  13.789   4.818 -0.0848 -0.4601  0.0192
29408W        W30272   8.331  17.287  13.776  0.1870 -0.0653  0.1313
29409W        W30273  12.448  11.206   8.335  0.1999  0.1383  0.2453
29410W        W30274  16.516   2.110  19.111  0.0283 -0.0654 -0.2476
29411W        W30275   9.315  27.483  11.223  0.1107 -0.3361 -0.0110
29412W        W30276   9.268  27.186  27.542 -0.0424 -0.1606  0.0144
29413W        W30277   9.187  24.797  12.551  0.1852 -0.0856 -0.1706
29414W        W30278  24.348  20.079  21.376 -0.3754 -0.0036  0.0949
29415W        W30279  22.725  20.058   8.620 -0.1709  0.2639  0.2549
29416W        W30280  14.419   2.748   4.957 -0.1639  0.3557  0.0030
29417W        W30281  10.965  25.406  20.097  0.1899  0.1073  0.1477
29418W        W30282   1.849   6.620  14.137  0.0357 -0.0974  0.0486
29419W        W30283   7.344  11.210  11.377 -0.0346 -0.1157 -0.2836
29420W        W30284   7.694  11.866  11.892  0.3657 -0.0034 -0.2432
29421W        W30285   4.018   4.347  27.599  0.3095 -0.1065 -0.3073
29422W        W30286  13.555   5.629  11.143  0.2263  0.2632 -0.0522
29423W        W30287   7.356  24.943  24.795 -0.0662 -0.0740  0.1164
29424W        W30288   1.498   4.615  24.977 -0.0763  0.1449  0.4869
29425W        W30289  15.715   6.009   1.824 -0.0270 -0.2261  0.4378
29426W        W30290  21.985   4.884  28.404 -0.1747  0.5486  0.0516
29427W        W30291  18.551  17.921   4.502 -0.1024 -0.1162  0.2020
29428W        W30292   9.548  15.899   6.025 -0.4457 -0.3794 -0.1428
29429W        W30293   5.898   7.310  11.939 -0.0342  0.1059 -0.0007
29430W        W30294  10.161  27.054   2.820 -0.2088  0.2627 -0.1767
29431W        W30295  26.596   0.580  20.380 -0.1655  0.0536 -0.0476
29432W        W30296  14.012   6.529  23.845 -0.3504 -0.0721 -0.0431
29433W        W30297   0.739   3.627   6.143 -0.0636 -0.1069 -0.2944
29434W        W30298  10.089   8.717  13.095 -0.2493 -0.4047  0.0536
29435W        W30299  12.872  28.928   8.192 -0.0821 -0.2423  0.3328
29436W        W30300  18.898  24.651  18.363  0.0772 -0.0445  0.0614
29437W        W30301  29.056   7.303   8.808  0.3449  0.0092 -0.2807
29438W        W30302  15.464  15.392  12.874 -0.0166 -0.1277 -0.1266
29439W        W30303   6.715   1.210   7.278 -0.0497  0.2755  0.2197
29440W        W30304   4.375   2.811  20.564  0.1213 -0.5240  0.0495
29441W        W30305   6.200  12.056  24.071  0.4741 -0.0480  0.1209
29442W        W30306  24.321   0.497   3.829  0.0658 -0.1490 -0.0034
29443W        W30307  10.817   9.794   2.531  0.5071 -0.3356  0.1723
29444W        W30308  14.321  27.590  10.642 -0.3740  0.0048  0.2590
29445W        W30309  28.126  10.592  17.307  0.0988 -0.2585  0.1201
29446W        W30310  12.481  10.671  14.429 -0.0657  0.1376  0.0379
29447W        W30311   7.154   7.747   1.878  0.0087 -0.0068  0.0339
29448W        W30312  24.100  10.658  28.615 -0.4328  0.1877 -0.0521
29449W        W30313   9.286  14.183   3.980 -0.2660 -0.3803 -0.0014
29450W        W30314   5.506   7.317   0.057 -0.0132  0.3103 -0.1192
29451W        W30315   5.498   8.819  22.062  0.0782  0.1401  0.1500
29452W        W30316   3.414  23.269   4.291  0.4079  0.1731 -0.2228
29453W        W30317  18.220  12.268  27.931  0.2785  0.3052 -0.2532
29454W        W30318   5.491   1.641  23.409  0.2794 -0.1034 -0.3647
29455W        W30319   6.039  13.555  16.053  0.1625 -0.1196 -0.2889
29456W        W30320  16.031  27.339  10.403  0.0590 -0.1750 -0.1800
29457W        W30321   6.391  10.277   2.722  0.1029 -0.1088  0.1221
29458W        W30322  21.199  28.148   9.222  0.1608  0.2362 -0.0547
29459W        W30323   5.183   0.809  20.854  0.4720  0.0348 -0.1005
29460W        W30324   9.434  26.582   1.380 -0.0456 -0.2065 -0.0534
29461W        W30325  10.808  13.249   8.222 -0.0966 -0.0485 -0.2034
29462W        W30326  20.169  13.138  15.283  0.0781 -0.0024 -0.1140
29463W        W30327   3.636  22.879  16.343 -0.0233 -0.2583 -0.0633
29464W        W30328   7.440  15.153  13.571 -0.0211  0.0819  0.0090
29465W        W30329  17.632  17.067   0.241 -0.0515  0.4754  0.0245
29466W        W30330  25.562  22.975  22.364 -0.0612 -0.1010  0.3201
29467W        W30331  11.408   2.920  10.573  0.0119  0.0112 -0.1442
29468W        W30332   5.637   1.492   4.156  0.0127 -0.0011  0.2282
29469W        W30333  13.592   8.086   9.685 -0.0772 -0.0074  0.0501
29470W        W30334  24.525   0.349  28.699 -0.1176  0.2844 -0.1159
29471W        W30335  21.086  17.656   8.225 -0.0047  0.2860 -0.2516
29472W        W30336   7.261   7.860  27.431 -0.0503 -0.1614 -0.4072
29473W        W30337  26.487   0.913  22.906 -0.0520 -0.3216 -0.0311
29474W        W30338   6.139  17.708  25.281 -0.2394 -0.0849 -0.0643
29475W        W30339   4.317   4.845  26.362  0.0081 -0.1868  0.1333
29476W        W30340  12.762  25.745   0.130 -0.0242  0.3024  0.2256
29477W        W30341  27.603   7.741   9.416 -0.2991  0.2675  0.3021
29478W        W30342  23.714  13.008  22.225 -0.0570 -0.0742  0.0938
29479W        W30343  23.599   7.183  23.526  0.0523  0.0061  0.2989
29480W        W30344  16.420   1.674  24.630  0.1652 -0.3345  0.0954
29481W        W30345   3.293  23.015  21.084 -0.0885 -0.0495  0.2014
29482W        W30346   1.193   9.857  22.293  0.0984 -0.4327 -0.3804
29483W        W30347   9.438  27.416   4.530  0.2367  0.1045  0.1907
29484W        W30348  12.429  27.996  27.899 -0.4055  0.3715 -0.0956
29485W        W30349  12.039  16.442  21.470 -0.2531  0.0093  0.3781
29486W        W30350   3.046   4.703  28.373 -0.0531 -0.2362  0.3028
29487W        W30351   0.333  14.725  17.962  0.0572 -0.0423  0.1763
29488W        W30352  21.244   4.774  24.873 -0.1943 -0.1140 -0.1360
29489W        W30353   9.736   0.181  20.917  0.0965 -0.1156  0.2556
29490W        W30354   9.852  14.500   3.272 -0.0373 -0.2570  0.0394
29491W        W30355  27.355   9.150  23.433  0.0297  0.1212 -0.0260
29492W        W30356  10.417   1.682  15.420 -0.3108 -0.0136  0.1123
29493W        W30357   3.078   4.189  12.776  0.2740  0.3426 -0.1164
29494W        W30358   6.143  15.102   0.911  0.1343 -0.0135  0.3127
29495W        W30359  14.077  15.961   9.969  0.1732 -0.0351  0.0135
29496W        W30360  18.963  21.507  27.999  0.0450  0.2029 -0.0188
29497W        W30361  23.567  26.866  27.719  0.0687  0.0900 -0.2747
29498W        W30362   7.164   9.799  16.425 -0.1615 -0.2203 -0.0468
29499W        W30363   3.359  27.424  10.474  0.1697 -0.2010  0.0436
29500W        W30364  13.696  24.024  24.921  0.2892 -0.1880  0.2140
29501W        W30365   0.397  20.986  17.190  0.0139 -0.2706  0.1855
29502W        W30366   1.003  23.691  27.311 -0.0567 -0.2220  0.0500
29503W        W30367  26.781   2.829   0.929  0.1321  0.1807 -0.0936
29504W        W30368   3.811   2.856  17.269 -0.1051 -0.2150  0.0344
29505W        W30369   7.711  25.188  10.348  0.2250  0.0430 -0.0072
29506W        W30370  14.140   7.808   1.584  0.1365 -0.3083 -0.1640
29507W        W30371  25.009   9.350   8.621 -0.5279  0.0392  0.1295
29508W        W30372  12.317  26.816  26.782 -0.1269 -0.1356 -0.1384
29509W        W30373  29.040   0.823  16.997  0.0070  0.3757 -0.2573
29510W        W30374  21.201  23.675  17.453 -0.2444 -0.0943  0.0817
29511W        W30375  19.413   8.635   3.785 -0.0458  0.2315  0.0331
29512W        W30376  26.708  13.100   1.180  0.0687  0.2439  0.5062
29513W        W30377  15.372  21.131   0.850  0.5346 -0.0838  0.2958
29514W        W30378   2.125  24.957   3.761 -0.4096 -0.3896  0.0273
29515W        W30379   5.649  24.604   9.199 -0.2114 -0.1920  0.0199
29516W        W30380  28.411  16.157  27.918  0.1728  0.2592  0.1819
29517W        W30381   5.616  10.327   9.968  0.0181 -0.0369 -0.0643
29518W        W30382   0.666  19.584   0.052  0.0589  0.2909 -0.1024
29519W        W30383  12.507  14.145  22.645 -0.0925 -0.2394 -0.1740
29520W        W30384   3.631   1.869  28.722 -0.0890 -0.1706 -0.1294
29521W        W30385  25.735   9.164   6.162 -0.1865 -0.1400 -0.0297
29522W        W30386   1.479   8.227   3.040 -0.1308 -0.1824 -0.2597
29523W        W30387  12.794  11.978  21.834  0.0387 -0.1418 -0.1295
29524W        W30388   1.040   1.541  16.401  0.0667 -0.2378  0.1667
29525W        W30389  28.807  22.192  27.917 -0.0872 -0.0515 -0.0756
29526W        W30390  11.217  12.600  12.864 -0.3175  0.2772  0.0869
29527W        W30391  19.717   0.643  28.186  0.1184  0.0950  0.0939
29528W        W30392  15.175  24.974  18.047  0.2094 -0.1093  0.2248
29529W        W30393  20.710  16.908   9.265 -0.0922 -0.0594 -0.3014
29530W        W30394   5.078  17.327   6.771  0.1524  0.1978 -0.3656
29531W        W30395   5.553   1.588   9.623  0.0891  0.0815  0.4350
29532W        W30396  20.666  20.502   4.724 -0.0947  0.2255  0.1963
29533W        W30397  13.415   4.472   0.682  0.1198  0.3243 -0.2540
29534W        W30398  15.437  12.498   0.817  0.0827 -0.2212 -0.1099
29535W        W30399  18.627  26.211  19.501 -0.0627 -0.0032 -0.3118
29536W        W30400  13.588  11.986   3.810  0.1869 -0.1264  0.2703
29537W        W30401   6.498   2.695  27.656  0.1830  0.1243  0.1779
29538W        W30402  28.177  18.151  18.157 -0.0604  0.0041  0.1733
29539W        W30403  25.276   9.612  10.160  0.2623  0.0456  0.1718
29540W        W30404  27.427   3.890   3.940  0.0154 -0.0773 -0.1723
29541W        W30405  24.123   4.438  10.745 -0.0328  0.2616 -0.0507
29542W        W30406   2.169  14.843   1.939  0.1194  0.1027 -0.0836
29543W        W30407  28.461  27.504   8.781 -0.0394 -0.0035  0.1581
29544W        W30408  25.196  16.456   4.412  0.1010  0.1782  0.1534
29545W        W30409  17.300   2.355   1.880 -0.1819  0.0233  0.1549
29546W        W30410  10.078   7.805   1.378  0.0752 -0.0323 -0.0757
29547W        W30411  12.351  10.733  11.712 -0.1726 -0.1871 -0.0905
29548W        W30412   1.215   9.348   7.540 -0.0368 -0.0524  0.2581
29549W        W30413  12.708   1.260   1.798  0.0915  0.0160 -0.1350
29550W        W30414  17.865  27.496   8.576  0.1279  0.0508 -0.2776
29551W        W30415  24.488   1.549   9.721  0.1618  0.0701 -0.3617
29552W        W30416  25.154  21.920   9.281 -0.0460  0.0253  0.0099
29553W        W30417   8.920  18.721   4.234  0.4238  0.1664  0.2077
29554W        W30418  23.438  28.619   4.555 -0.0618  0.0763 -0.0854
29555W        W30419   7.322  21.305  22.072  0.0111  0.0967 -0.2510
29556W        W30420   6.660   6.228   3.663  0.1384 -0.3643  0.1716
29557W        W30421  11.373  17.525   6.655  0.0438  0.2819  0.1063
29558W        W30422  17.212   8.833  25.521 -0.1966  0.0786 -0.2594
29559W        W30423  26.993   7.097   9.347 -0.0848 -0.1260  0.2306
29560W        W30424   7.056   9.005   0.587 -0.1855 -0.0336 -0.0438
29561W        W30425   9.713  17.950  15.296 -0.0392  0.1463  0.0745
29562W        W30426  13.637  28.661  15.380 -0.2568  0.0100 -0.0937
29563W        W30427   5.752  17.809   6.216  0.2051 -0.0830  0.1539
29564W        W30428  11.912  15.202  28.387 -0.1088 -0.0384 -0.1342
29565W        W30429   5.330  26.836  24.838  0.0507  0.0256  0.1174
29566W        W30430  21.894   6.298   4.332 -0.0756 -0.0424 -0.2206
29567W        W30431   1.099  25.112  28.116  0.0902 -0.2344  0.0622
29568W        W30432  26.243  27.097   6.522 -0.0961  0.1009  0.1968
29569W        W30433  24.738  13.546  19.488 -0.2254  0.2499  0.1134
29570W        W30434  18.637  20.787   4.401 -0.0785 -0.0673  0.1113
29571W        W30435   2.760  11.500  14.306  0.2940 -0.3613  0.2392
29572W        W30436  26.149   1.943  10.730 -0.0187  0.0181 -0.1758
29573W        W30437  23.206  19.119  22.973 -0.0717 -0.1433  0.1724
29574W        W30438   3.188   2.715  18.837  0.1616 -0.0578  0.0711
29575W        W30439  14.625   5.759  26.932  0.1499  0.3318  0.3230
29576W        W30440   6.241   6.945  26.246 -0.1056 -0.0736 -0.1173
29577W        W30441   0.250  24.939  21.084 -0.0262 -0.0054 -0.0786
29578W        W30442   7.033  27.410  20.280  0.1317 -0.2891  0.0420
29579W        W30443  13.889  24.937  24.571  0.0405  0.0975 -0.0547
29580W        W30444   7.306   2.724  10.275 -0.1871  0.2244 -0.1517
29581W        W30445   0.559   6.216  20.511  0.0107 -0.1498 -0.3397
29582W        W30446  28.358  14.826  21.858  0.0557  0.0337  0.0488
29583W        W30447  23.185  22.975  11.903  0.1597  0.1651 -0.0870
29584W        W30448   8.884   4.418  21.089  0.0658  0.0099 -0.3019
29585W        W30449   5.454  12.757  17.158  0.3311  0.0447 -0.1137
29586W        W30450  13.950   5.707   3.200  0.2370 -0.1447  0.1580
29587W        W30451   2.649   8.107   6.941  0.2067 -0.0891  0.1665
29588W        W30452   6.281  22.530   6.258 -0.1558  0.1550 -0.0819
29589W        W30453  13.993   9.789   3.365 -0.1800  0.0044  0.0302
29590W        W30454  19.777  25.617  20.118  0.0036 -0.1974  0.1640
29591W        W30455   8.823  18.517  17.744 -0.1017  0.3271 -0.0747
29592W        W30456  17.052  24.534   0.743 -0.0096  0.3478  0.1198
29593W        W30457  14.666   5.165   3.781 -0.2735 -0.2460 -0.3297
29594W        W30458   4.437  27.751   4.778  0.0267 -0.0325 -0.3209
29595W        W30459  10.330  21.195   0.693  0.1151 -0.1009 -0.3628
29596W        W30460  10.331   7.138  24.374 -0.0641  0.3410  0.2485
29597W        W30461   0.409  19.521  26.605 -0.3089  0.3057  0.1566
29598W        W30462  16.989   7.784   7.455  0.2682 -0.0052  0.1540
29599W        W30463  18.341  11.084  12.960  0.4969 -0.0701 -0.1852
29600W        W30464   3.694   7.782  15.431 -0.0718 -0.3443 -0.3059
29601W        W30465  20.704  11.701  28.517  0.0839  0.0919  0.2417
29602W        W30466  11.864  20.156  13.889 -0.0979 -0.0948 -0.2447
29603W        W30467  22.362  22.221   4.105  0.1656 -0.1205 -0.1136
29604W        W30468   3.529  17.451   8.815 -0.1500  0.2546  0.0534
29605W        W30469   9.936  13.778  24.061  0.2008 -0.1012 -0.1420
29606W        W30470   4.172  25.275  25.982 -0.1715  0.0758  0.0708
29607W        W30471  28.419   1.630  25.719 -0.3682  0.0962  0.2149
29608W        W30472  18.040  22.647  19.421  0.3096 -0.0830  0.1545
29609W        W30473  21.842  11.534  20.141  0.2107  0.0630  0.2248
29610W        W30474   1.482  13.086  18.181  0.0185 -0.0583  0.0075
29611W        W30475  23.894  17.105  25.664  0.0666  0.1529 -0.0448
29612W        W30476  12.866   5.965  28.088  0.0339 -0.1935  0.0778
29613W        W30477   9.196  24.484  23.424 -0.1073  0.0872  0.1142
29614W        W30478   8.129  17.362   5.867  0.1211  0.2546 -0.3125
29615W        W30479   6.143   6.883  26.975  0.0057  0.0920 -0.1253
29616W        W30480  11.281   7.574   1.529 -0.1829  0.0851 -0.0895
29617W        W30481   0.653  25.828  21.089 -0.1389  0.0501 -0.0257
29618W        W30482  23.830   5.350  13.204  0.2360 -0.0342 -0.3434
29619W        W30483   3.274  28.589   2.962  0.0405 -0.3296  0.0805
29620W        W30484   3.804  16.575   2.635  0.4487 -0.4311  0.0115
29621W        W30485  20.213  11.879  28.967  0.1629 -0.0144  0.0068
29622W        W30486   8.002   4.107   4.811 -0.1157 -0.1563 -0.2155
29623W        W30487   0.399  27.166  14.103  0.0164  0.0146 -0.2346
29624W        W30488  17.507  11.523   2.747  0.0349  0.2323 -0.1120
29625W        W30489   2.881  13.845  10.923  0.0180 -0.1766 -0.2519
29626W        W30490   2.684  25.854   1.658  0.1155  0.0858 -0.1720
29627W        W30491   7.980  24.417  21.967  0.1692 -0.0992  0.1958
29628W        W30492   0.405   6.813   8.714 -0.0943  0.0026  0.3520
29629W        W30493  10.745   4.327  22.782  0.4258 -0.2119  0.0796
29630W        W30494   7.620   8.188   9.276 -0.1975  0.0157  0.2583
29631W        W30495  16.644   9.217  27.059 -0.1691 -0.1553 -0.1355
29632W        W30496  24.744  11.563   3.266  0.1458 -0.2328  0.3188
29633W        W30497  16.664  14.221  26.644 -0.2492 -0.1233 -0.3657
29634W        W30498   3.915  22.766   0.037 -0.1220  0.0405 -0.0508
29635W        W30499  18.341  20.327  10.717  0.1468  0.1275  0.2619
29636W        W30500   7.216  26.428  23.888 -0.0808 -0.0224 -0.1423
29637W        W30501  16.007   5.360   7.824 -0.0077  0.0503 -0.0292
29638W        W30502   3.355   8.321  20.784  0.1452  0.0315 -0.1309
29639W        W30503  11.988  13.016  22.604  0.3476  0.0025 -0.2232
29640W        W30504  13.971   4.626   5.393  0.0763 -0.0607 -0.0842
29641W        W30505  16.151  11.643  11.678 -0.0390  0.0238  0.3780
29642W        W30506  27.216  24.289   5.117 -0.1537  0.4309 -0.0683
29643W        W30507   1.573  19.589  21.100 -0.0631 -0.0081  0.0703
29644W        W30508   5.988  25.254  25.134 -0.1155  0.2963 -0.0883
29645W        W30509  27.287  28.688   3.003 -0.1107 -0.0748  0.0494
29646W        W30510   8.734   4.965   0.925  0.0644  0.3000  0.2016
29647W        W30511   9.379   3.445  11.336  0.1168  0.0396 -0.4056
29648W        W30512   5.990  13.466  25.864 -0.1148 -0.2378 -0.0135
29649W        W30513  28.833  17.361  28.567  0.0180 -0.0873 -0.1570
29650W        W30514  20.091  20.780  15.934  0.0997  0.0037  0.2085
29651W        W30515  12.150  19.511  23.511 -0.1797  0.0556 -0.1021
29652W        W30516  25.680  16.544  24.922  0.6050 -0.0430 -0.0398
29653W        W30517   8.206  17.283  27.901  0.0863 -0.0434 -0.0529
29654W        W30518  22.847  15.596   3.837  0.0716 -0.1561  0.1662
29655W        W30519   5.779   1.825  15.513  0.0200 -0.0353  0.2398
29656W        W30520  10.686  20.592   1.473  0.1568 -0.1601 -0.0121
29657W        W30521  19.384   7.166   6.708  0.1113  0.2435  0.2661
29658W        W30522  14.676  12.575  27.784 -0.0523  0.2770  0.3337
29659W        W30523  11.815   7.205  13.775  0.2909 -0.1822 -0.0252
29660W        W30524  23.537   1.628   9.644  0.2677  0.2561 -0.1579
29661W        W30525   1.871   6.795  18.555 -0.1807 -0.3543 -0.1232
29662W        W30526   4.645   4.296  12.285  0.0566  0.0457 -0.2676
29663W        W30527   7.825   7.267  21.932  0.0366  0.0557 -0.1411
29664W        W30528  12.498   1.132  28.774  0.0123  0.1406  0.2291
29665W        W30529  23.983   4.960   9.837  0.5038  0.1841 -0.2567
29666W        W30530   3.248   9.120  26.280 -0.0850  0.1517  0.0441
29667W        W30531   1.604  23.728   9.906  0.0041  0.1326  0.2985
29668W        W30532  12.443  24.484   0.551 -0.0738  0.1587 -0.3062
29669W        W30533   3.585  24.233  11.223  0.0083  0.2047 -0.1903
29670W        W30534  22.236  13.136  14.723 -0.2326  0.0737 -0.0066
29671W        W30535   1.765  11.372   5.557 -0.1572 -0.2169 -0.3919
29672W        W30536  15.295   7.742   5.948  0.1328  0.4394 -0.2144
29673W        W30537  21.988  20.826  15.773 -0.1217 -0.2959  0.1449
29674W        W30538  25.688   6.831   4.010 -0.1146 -0.2472 -0.1258
29675W        W30539   7.579  23.981  17.645 -0.1872 -0.0889  0.3160
29676W        W30540  21.014  21.555   6.979 -0.2322 -0.1190  0.2943
29677W        W30541  16.478  25.765  27.422  0.0456  0.1966 -0.1358
29678W        W30542   5.369  12.616   4.745 -0.0554  0.0115 -0.0633
29679W        W30543   5.981  14.200   8.042 -0.1679  0.2015 -0.2051
29680W        W30544   2.948   4.822   8.350 -0.3250  0.1713  0.0123
29681W        W30545   0.904  11.776   2.910  0.3906  0.2355  0.3299
29682W        W30546  17.254  20.655  29.068  0.0380  0.1518 -0.0121
29683W        W30547  15.641   6.636   9.598  0.2497  0.0754  0.0475
29684W        W30548   9.453   0.421  26.342  0.2290  0.1405 -0.2421
29685W        W30549   6.669  13.536   7.861 -0.0956  0.1152  0.1761
29686W        W30550  27.961  13.553  11.071  0.1092  0.2995  0.0455
29687W        W30551   5.804   1.278   7.511  0.2952 -0.0429  0.0371
29688W        W30552  22.563   8.137  12.996  0.1874  0.0021  0.2416
29689W        W30553  29.017   0.588  13.766  0.2302 -0.1169 -0.3648
29690W        W30554  12.611   2.191  18.739 -0.1896 -0.0052 -0.1777
29691W        W30555  16.924  12.891  16.345 -0.0559  0.1511 -0.2857
29692W        W30556  24.698  12.079   0.028  0.0165  0.0069 -0.1573
29693W        W30557   0.975  10.023  24.255  0.0176 -0.1115  0.4244
29694W        W30558  21.655  12.374  17.086 -0.0765  0.0876 -0.0412
29695W        W30559   7.619  28.826   9.636  0.0619  0.3328  0.0464
29696W        W30560   2.096   3.338  19.157  0.0833 -0.0028 -0.0585
29697W        W30561  21.425   6.328  28.564  0.1550 -0.0418 -0.2513
29698W        W30562   3.586   6.571  17.073 -0.4640 -0.1591  0.1878
29699W        W30563   8.793   0.974   8.897  0.1458 -0.0384  0.0401
29700W        W30564   1.597  14.292  27.148 -0.0377  0.1954  0.1716
29701W        W30565   0.631  20.221  15.025  0.0390 -0.0442  0.0539
29702W        W30566   5.333   3.112  10.234 -0.0838  0.0597  0.2080
29703W        W30567  15.099  15.159  13.852 -0.0204 -0.1570 -0.1382
29704W        W30568   7.780  27.481   1.154  0.0836 -0.0680 -0.1056
29705W        W30569   3.139  10.803  15.855 -0.0242 -0.2227 -0.1552
29706W        W30570  24.634  24.797   3.292  0.1845  0.1970 -0.2785
29707W        W30571  20.122   5.429   3.706 -0.1410  0.1310 -0.2666
29708W        W30572  15.346  21.417   3.720 -0.0373  0.2985  0.2650
29709W        W30573  11.279  22.151   7.513 -0.3011  0.2283 -0.1113
29710W        W30574   2.309  23.312  28.404  0.2159  0.2372  0.0728
29711W        W30575  18.896   7.591  13.949  0.0082 -0.6930  0.2879
29712W        W30576  19.954  14.109   9.351  0.1034 -0.1002 -0.1020
29713W        W30577  18.670  27.446  11.299  0.0405  0.2002 -0.3751
29714W        W30578   6.776  14.336   3.819 -0.3760 -0.0559  0.1604
29715W        W30579  24.172   0.666   9.458 -0.4683 -0.0112 -0.0625
29716W        W30580  12.126  18.388   7.495 -0.1640 -0.0827  0.1770
29717W        W30581   5.352   6.989  17.688  0.0130  0.1740  0.0634
29718W        W30582   3.193   1.115   0.918  0.0608 -0.2702  0.1933
29719W        W30583  21.888   8.781  15.121 -0.0081 -0.1396 -0.3283
29720W        W30584   6.646  28.619  13.182  0.1935  0.0968 -0.1828
29721W        W30585  19.292  18.461   8.640 -0.0094  0.2405  0.2216
29722W        W30586  28.283  28.604   4.839 -0.0685  0.0828  0.1211
29723W        W30587   3.412  10.192  25.622 -0.1770 -0.2474 -0.0102
29724W        W30588  27.448  28.496   0.588 -0.0322 -0.0828  0.1730
29725W        W30589  20.553  19.125   8.433 -0.2899  0.1693 -0.0421
29726W        W30590  27.906  18.348  28.294  0.1360 -0.0920 -0.1715
29727W        W30591  17.418   6.920   6.310  0.3044 -0.1051  0.0974
29728W        W30592  16.160  27.114   3.379  0.0794  0.2137  0.1329
29729W        W30593  18.295  26.063  26.550 -0.0035 -0.2595  0.2826
29730W        W30594  15.271   9.195  23.094 -0.0046 -0.1417 -0.2480
29731W        W30595   2.846  25.993  27.057  0.0408 -0.1836  0.0841
29732W        W30596  18.845   1.829   7.320  0.0259  0.1683 -0.1706
29733W        W30597   5.644  23.491   5.903 -0.1181 -0.0287 -0.1081
29734W        W30598  25.326  11.142  23.764 -0.2331  0.0011 -0.0608
29735W        W30599  11.908   4.008  13.364 -0.0667  0.0691  0.0253
29736W        W30600  16.536  23.452  14.609 -0.3487  0.2412 -0.2293
29737W        W30601  26.927   7.045  11.449  0.2039  0.0809  0.0710
29738W        W30602  28.990  10.182  21.104 -0.2374 -0.0429  0.5577
29739W        W30603  25.828  26.835  25.813  0.2340 -0.1911 -0.0119
29740W        W30604   2.209   8.191  25.684 -0.0307  0.1352 -0.0487
29741W        W30605   6.981  23.969  15.677  0.3876  0.2061 -0.1474
29742W        W30606   7.836   1.638   3.990  0.1559 -0.0481 -0.1514
29743W        W30607  12.009  10.783   7.396 -0.1239  0.0712 -0.2216
29744W        W30608  27.146  11.674   3.993  0.0334 -0.2419 -0.0883
29745W        W30609  14.165   7.929  16.512  0.4440  0.0946 -0.1068
29746W        W30610  22.836   1.036   5.329  0.2164 -0.2206 -0.0540
29747W        W30611  27.613  23.088   1.922  0.0024  0.2132  0.1000
29748W        W30612   9.855  15.131   9.968 -0.0911  0.2291 -0.2744
29749W        W30613   0.976   8.950   2.261 -0.2074  0.0587  0.1318
29750W        W30614   5.944  19.201   0.083  0.0054 -0.2929 -0.0932
29751W        W30615  10.807   7.893  23.877  0.0423  0.0204  0.0846
29752W        W30616  22.294  26.857  12.098 -0.3046 -0.0520  0.1185
29753W        W30617  21.773  12.455  26.903 -0.3076 -0.1557  0.1677
29754W        W30618  12.525  16.010   8.868 -0.1493 -0.2464 -0.1843
29755W        W30619  29.075   4.293  14.340 -0.1908  0.2207  0.1885
29756W        W30620  10.479   6.503   1.118  0.2212  0.1434  0.1925
29757W        W30621  24.498   1.515  11.548  0.4157 -0.2046  0.0615
29758W        W30622   1.864  21.801  12.613 -0.0175 -0.1963  0.1935
29759W        W30623   0.458  18.390  26.223 -0.0780 -0.2034 -0.1766
29760W        W30624  11.262  27.049  23.034 -0.1256 -0.0376  0.2233
29761W        W30625  27.513   5.296  10.981 -0.0892 -0.2178 -0.2490
29762W        W30626  13.036  25.160  19.107  0.4371 -0.0194  0.0091
29763W        W30627  22.932   7.231  17.151  0.0627 -0.1937 -0.0276
29764W        W30628  24.412   7.338  28.960  0.0080 -0.0676  0.0621
29765W        W30629   5.713   1.042  15.109 -0.0043  0.1911  0.1456
29766W        W30630  27.548  14.998  18.821  0.1274  0.0091  0.0532
29767W        W30631  18.818   7.364   0.454  0.0593 -0.2560 -0.1512
29768W        W30632  27.708  13.850  21.476 -0.2213  0.2818 -0.1286
29769W        W30633  15.288  27.177   4.834 -0.1846 -0.5217 -0.1926
29770W        W30634  10.227   2.741   0.299 -0.0987 -0.0230  0.1105
29771W        W30635   1.472  18.872  27.069 -0.2396 -0.0959 -0.2373
29772W        W30636  12.167   3.572  27.590 -0.2202 -0.1235  0.1575
29773W        W30637  26.879  14.856   1.791 -0.0079 -0.3739 -0.2804
29774W        W30638  18.259  21.737  10.084 -0.0973 -0.0686 -0.2660
29775W        W30639  13.725   1.908   4.923  0.2609  0.0559 -0.0794
29776W        W30640  20.407  26.623  22.199 -0.1694  0.1463 -0.4337
29777W        W30641  18.080  26.096   9.700 -0.2033 -0.2074 -0.0034
29778W        W30642  17.813  19.085  28.442 -0.0566 -0.1572 -0.3967
29779W        W30643  11.631   3.780  10.021 -0.0410 -0.1188  0.1110
29780W        W30644  12.812   4.764   2.110  0.0610  0.1043  0.2976
29781W        W30645   1.031  10.580  14.793 -0.0421  0.0389  0.1294
29782W        W30646   8.471  11.086  10.238  0.3321  0.2147  0.1520
29783W        W30647  27.076  16.072   7.928 -0.2503 -0.0771  0.2656
29784W        W30648  18.052  24.184  28.865  0.3770  0.1088 -0.2935
29785W        W30649  10.907  17.888  22.577 -0.0480 -0.2425  0.2309
29786W        W30650   4.713  22.935  11.060 -0.2015  0.2364  0.0827
29787W        W30651  17.482  10.890  20.795  0.1166  0.0654 -0.1673
29788W        W30652   0.353  24.225  26.193 -0.3400 -0.1471 -0.3110
29789W        W30653  19.023  11.420  19.889 -0.0257 -0.0517  0.0942
29790W        W30654   9.418   1.882   8.138 -0.1754 -0.0036  0.1485
29791W        W30655  12.324  20.751   4.803 -0.0965 -0.0462 -0.1488
29792W        W30656  27.556  13.892  20.416  0.2148 -0.1840 -0.1248
29793W        W30657   8.614  15.048   4.463  0.0072  0.1261 -0.0921
29794W        W30658   2.342  27.389  20.782 -0.0457 -0.1494  0.2463
29795W        W30659  15.579  12.938   3.646  0.0622 -0.3805 -0.0786
29796W        W30660   3.006  25.891   7.740 -0.0627  0.0966  0.0346
29797W        W30661  20.740  13.160   5.063 -0.0361 -0.1630 -0.3426
29798W        W30662   5.783  28.492   6.600 -0.0688  0.0243  0.1695
29799W        W30663  21.310  17.316  28.706 -0.0370 -0.0801 -0.4671
29800W        W30664   6.544  22.973  21.704 -0.3309  0.0197 -0.1656
29801W        W30665   6.091   5.825   9.165  0.0303  0.2603 -0.2303
29802W        W30666   9.602  14.640   3.908 -0.5546 -0.3115  0.1313
29803W        W30667   7.436  18.119  13.069  0.1129 -0.0612 -0.2836
29804W        W30668  10.251  13.835  17.453  0.0880 -0.0168  0.1091
29805W        W30669  21.646  10.919   3.225  0.2561 -0.1693  0.0691
29806W        W30670   2.779   9.872   0.289 -0.2575  0.6710 -0.0101
29807W        W30671  12.810  15.467  23.110 -0.1614  0.0933 -0.0203
29808W        W30672  11.414  24.852  11.121 -0.0739 -0.0484 -0.3260
29809W        W30673  16.924   6.693   8.068 -0.1216 -0.2811  0.1397
29810W        W30674   2.660   9.531  25.034  0.0499 -0.0844 -0.0888
29811W        W30675   7.211  10.535   8.581 -0.3144  0.0325 -0.1874
29812W        W30676  20.666  18.205   5.754 -0.0905  0.0181 -0.0323
29813W        W30677   7.586  21.401   4.783 -0.2359  0.1471 -0.0200
29814W        W30678   1.321   3.336   8.258 -0.0905 -0.0924 -0.0528
29815W        W30679   3.039   0.640  14.916  0.1217 -0.0034 -0.2254
29816W        W30680   8.560  20.455  23.331 -0.0024 -0.2419 -0.1824
29817W        W30681   6.802   0.389  16.043  0.2790 -0.1041 -0.2955
29818W        W30682  19.153  10.595  28.324 -0.1616 -0.1900 -0.0021
29819W        W30683  26.339  23.901  17.095  0.0223 -0.4040 -0.0168
29820W        W30684   5.058   5.837   3.778  0.2821 -0.1227 -0.0486
29821W        W30685   9.853   9.196  19.764 -0.0023  0.1293 -0.1144
29822W        W30686   3.608  22.856   8.736  0.0188  0.0634  0.0276
29823W        W30687   3.660   1.402   9.567 -0.1511  0.2641 -0.2848
29824W        W30688   8.853  23.870  19.069 -0.1435 -0.0600 -0.1406
29825W        W30689  22.860   6.397  21.087  0.1998  0.4097  0.0846
29826W        W30690  21.979  24.227   6.309 -0.0548  0.1695  0.0207
29827W        W30691  13.346  28.036  24.253  0.0424  0.0828  0.0365
29828W        W30692  16.344  26.285  27.038  0.1343 -0.2094  0.0651
29829W        W30693  17.909  14.592   0.953 -0.0813 -0.0059 -0.0359
29830W        W30694  11.167   0.808  22.156 -0.2084  0.0973  0.1067
29831W        W30695   3.548   9.127  19.798  0.3358 -0.0011  0.0026
29832W        W30696  23.748   1.832  23.776  0.1736 -0.0729  0.0840
29833W        W30697  11.786   3.022   0.669 -0.2475  0.0301  0.2105
29834W        W30698   3.221   8.026  25.142 -0.3122 -0.2168  0.1267
29835W        W30699   8.755   6.078   9.933  0.0478 -0.1467  0.2944
29836W        W30700   0.161  10.267  16.861 -0.5018  0.0224 -0.0650
29837W        W30701   1.666   6.934   4.378  0.1428  0.0957  0.0627
29838W        W30702   8.277   6.184  13.313 -0.0107  0.2483 -0.4019
29839W        W30703  11.824   5.179  20.593  0.2272  0.1148  0.0763
29840W        W30704   6.626   4.723   5.823  0.0904  0.2291  0.1064
29841W        W30705  20.789   6.719   8.050  0.2069  0.2913  0.1299
29842W        W30706   9.991   1.634  27.804 -0.3463 -0.0912 -0.3115
29843W        W30707  14.177  15.777  10.422 -0.3535  0.2634 -0.3973
29844W        W30708   2.942  20.894  16.451  0.0457  0.1576  0.2211
29845W        W30709   4.195  16.114   5.258 -0.1085 -0.0078  0.0042
29846W        W30710  18.224   3.458  18.771 -0.2027  0.1649  0.2797
29847W        W30711   5.357  21.270  26.389 -0.4295 -0.2068 -0.1525
29848W        W30712  28.983   8.739  25.669 -0.2264 -0.0069  0.2071
29849W        W30713   7.821  13.320   4.589 -0.1018  0.1727 -0.2793
29850W        W30714  10.387  19.033  12.722 -0.1483 -0.0226 -0.0841
29851W        W30715  11.861  11.452  14.378  0.0126  0.1305 -0.1749
29852W        W30716   8.401  27.164   7.508  0.1170 -0.0684 -0.0186
29853W        W30717  21.957  19.209   7.806 -0.3316 -0.0434  0.2485
29854W        W30718   4.625  25.313   1.076 -0.2007  0.0390  0.0239
29855W        W30719  22.051  10.333  25.524 -0.0224  0.0587 -0.0685
29856W        W30720  28.763   3.839  10.174  0.1929 -0.0542 -0.2324
29857W        W30721  28.815  18.904  13.229 -0.1599  0.4022  0.0165
29858W        W30722   6.513  16.754   2.772  0.0060 -0.2660  0.0924
29859W        W30723  21.438   4.555   6.224  0.0458 -0.2026  0.1775
29860W        W30724   7.825   6.541   7.309 -0.0704 -0.1966 -0.0285
29861W        W30725  20.434  19.384   5.169  0.1425 -0.1854 -0.1891
29862W        W30726   6.966  21.477   3.314 -0.1774 -0.0393  0.1430
29863W        W30727   5.519   3.437  10.678 -0.0722 -0.2259 -0.1540
29864W        W30728  13.556  10.712   7.057 -0.3585 -0.2375 -0.2309
29865W        W30729   6.065  22.320   3.972  0.0238  0.0969  0.0414
29866W        W30730  16.165   2.152  22.281  0.1508  0.0039 -0.0754
29867W        W30731  13.999   4.805  17.354 -0.0543 -0.0007  0.1845
29868W        W30732   3.646   0.874  17.064  0.2846  0.0764 -0.2848
29869W        W30733  27.355  27.085  22.827 -0.3087  0.0309  0.2024
29870W        W30734  20.193   6.760   7.651  0.0058  0.1995 -0.1902
29871W        W30735  26.017  27.494  23.075  0.1311 -0.2733 -0.4201
29872W        W30736   2.794  14.784  25.541 -0.3292 -0.2368 -0.0882
29873W        W30737  25.246  28.296  12.699  0.0086  0.1558  0.0087
29874W        W30738   2.931  17.292  17.739 -0.0544 -0.2191 -0.3223
29875W        W30739   2.675   5.491   1.684  0.1736 -0.0538 -0.0345
29876W        W30740  20.903   2.475  11.834  0.0127 -0.0220  0.0907
29877W        W30741  12.355   5.489  23.214 -0.0200 -0.1510  0.1172
29878W        W30742  18.425  22.592  21.664  0.1662 -0.2026 -0.1032
29879W        W30743  13.695  22.278  17.387 -0.0199  0.2455  0.1736
29880W        W30744   3.001  28.457  18.041  0.0026 -0.1516 -0.0585
29881W        W30745  17.282  16.123   8.000  0.1437  0.0763  0.2622
29882W        W30746   7.950  11.189  13.613  0.0142 -0.2386  0.4168
29883W        W30747  13.305  26.939  24.234 -0.2082  0.1404  0.0704
29884W        W30748   4.108   7.575  15.089  0.2344  0.0267  0.4875
29885W        W30749   6.885  24.759  22.332 -0.1449 -0.0226  0.1183
29886W        W30750   2.844   0.879   3.277 -0.0500 -0.3671  0.0234
29887W        W30751  27.427  24.558  10.303 -0.1139 -0.1530  0.2902
29888W        W30752  24.655   4.596   5.233  0.3236  0.0247 -0.0404
29889W        W30753   8.327   8.016  11.596 -0.0881 -0.2312  0.1507
29890W        W30754  24.902   3.042  24.869  0.2741  0.1832  0.0190
29891W        W30755  27.208   9.837  27.354 -0.1209  0.1750 -0.2392
29892W        W30756   7.127   3.687  13.195 -0.0095  0.4445  0.1684
29893W        W30757   0.515   8.511  14.762  0.1474  0.0008 -0.2187
29894W        W30758   3.595   6.572  12.234 -0.0458 -0.1396  0.3054
29895W        W30759  24.148  12.945  24.571  0.1812 -0.4133  0.4771
29896W        W30760  17.421   4.786  19.427 -0.1952 -0.0830  0.0515
29897W        W30761  19.951  13.476   8.856  0.2025 -0.2997 -0.1969
29898W        W30762   0.601   7.210   0.441  0.0096  0.0243  0.2207
29899W        W30763  11.823  25.191   3.183  0.0570 -0.0408 -0.2203
29900W        W30764  13.440   9.078   6.567 -0.1907 -0.1570  0.3836
29901W        W30765  17.583   3.235   9.122  0.0609 -0.3438 -0.1605
29902W        W30766   0.055   1.618  14.208  0.0189 -0.1846  0.0288
29903W        W30767  11.799  22.890   4.435 -0.0833 -0.1241  0.2375
29904W        W30768  28.190  24.438   8.023  0.0798  0.1522 -0.2706
29905W        W30769   3.813  15.919  13.011  0.1930  0.1957  0.2107
29906W        W30770  12.880  28.450   3.958  0.0030 -0.2361 -0.1210
29907W        W30771   7.238  19.212  19.340 -0.2049 -0.2521 -0.2390
29908W        W30772  26.957  11.246  22.931 -0.2055 -0.1027  0.0151
29909W        W30773  13.550  13.972  25.637 -0.1905 -0.0724  0.1216
29910W        W30774   1.515  28.245   8.589 -0.0749  0.2777  0.0008
29911W        W30775  20.268   5.505  11.744 -0.1201  0.1494 -0.0751
29912W        W30776  17.291  21.598   6.850  0.1957 -0.1967  0.1049
29913W        W30777  25.765  27.468   7.747  0.2810 -0.1031 -0.0420
29914W        W30778   1.061   7.392  11.557 -0.1876 -0.0192  0.1633
29915W        W30779  22.392   5.158  15.877 -0.1605  0.0493  0.2143
29916W        W30780  13.810  24.068  18.512 -0.0260  0.1333 -0.1559
29917W        W30781  24.925  26.392  10.479  0.0820 -0.2554  0.0061
29918W        W30782   9.301  14.565  11.598  0.0829 -0.0496 -0.1133
29919W        W30783  17.387   5.111   7.597  0.0506  0.1760  0.2582
29920W        W30784  28.387   4.637  21.165  0.0055  0.0796  0.0832
29921W        W30785  12.228  29.012   2.153 -0.2220 -0.1473 -0.0830
29922W        W30786   2.886  20.324   8.869 -0.0934 -0.0094  0.2435
29923W        W30787   3.344  16.990   8.015 -0.1280 -0.0817  0.0621
29924W        W30788  11.064  13.854  10.563  0.1537  0.0909  0.4028
29925W        W30789  26.254  15.829   4.145 -0.1974 -0.2132  0.0113
29926W        W30790  21.583   9.694  11.016 -0.4377 -0.0751 -0.0339
29927W        W30791   4.743   1.835  12.892  0.2099 -0.1146 -0.1167
29928W        W30792   7.461  26.121  20.052  0.0499  0.3667 -0.2085
29929W        W30793  28.897  13.437   3.972 -0.0886 -0.2141  0.2255
29930W        W30794   3.395  27.774  14.021  0.1436  0.0251  0.0378
29931W        W30795   5.810  24.763  19.158 -0.1877 -0.1150 -0.0207
29932W        W30796   6.002   6.945   2.290 -0.1197 -0.1038 -0.2126
29933W        W30797  24.355  23.682   4.832 -0.0215  0.2172 -0.1809
29934W        W30798  26.436   7.567  16.521 -0.2143 -0.0857 -0.1262
29935W        W30799  25.846   9.493   8.547  0.1666 -0.0906  0.1966
29936W        W30800   2.241  27.415  22.900 -0.0084  0.0070 -0.0241
29937W        W30801   9.820  12.177  11.010 -0.2438 -0.1323  0.1601
29938W        W30802  10.184  19.599   2.322 -0.1133 -0.0781 -0.2439
29939W        W30803  12.919  23.838  18.363  0.0180 -0.1083 -0.0905
29940W        W30804   1.776  27.238   8.208 -0.2778  0.1841  0.1061
29941W        W30805   2.670   5.398  15.536  0.0235 -0.0516  0.0434
29942W        W30806  17.706  28.143  27.570 -0.0107 -0.1358  0.3159
29943W        W30807   6.448   8.262   0.020  0.1846 -0.0525  0.4155
29944W        W30808  11.709  26.169  16.715  0.0575  0.0059  0.1025
29945W        W30809  22.473  23.057  10.709  0.0911  0.1747 -0.1410
29946W        W30810   4.336  28.271  22.292  0.0338 -0.1381  0.2575
29947W        W30811  11.253  14.787  10.638 -0.0350 -0.2315 -0.0015
29948W        W30812  22.873  15.415   5.233 -0.1866 -0.0208 -0.2863
29949W        W30813  10.023  14.932   0.025  0.1448  0.0938  0.2254
29950W        W30814  17.368  22.636  10.797  0.0020  0.0597  0.0627
29951W        W30815   8.596   2.116   1.977  0.0024  0.2416 -0.1965
29952W        W30816   0.093   8.013   0.298 -0.0306  0.2286 -0.2658
29953W        W30817  13.999   7.297  12.135 -0.1474  0.0720 -0.0292
29954W        W30818   1.565  18.983   9.012  0.0013 -0.0471  0.2837
29955W        W30819  24.103   4.852   1.911 -0.1707 -0.0719  0.0863
29956W        W30820  17.964  11.620  21.345 -0.0357  0.2068 -0.0116
29957W        W30821   4.822  10.509  14.835 -0.0907  0.0897  0.1342
29958W        W30822   4.398   0.326  25.372 -0.3965  0.2069  0.2852
29959W        W30823   8.286   4.137  16.090  0.0773 -0.2060 -0.2019
29960W        W30824  27.501  22.627   4.067 -0.1112  0.0901  0.1452
29961W        W30825  26.917   1.817   5.896 -0.1966 -0.0578  0.1836
29962W        W30826   2.078  10.951  16.984 -0.1542 -0.1160 -0.0698
29963W        W30827   0.257  27.454  16.132  0.1332 -0.0146 -0.5378
29964W        W30828   9.156  14.911   0.729 -0.1189  0.1640 -0.0407
29965W        W30829   2.314  15.714  13.925  0.0752 -0.1169 -0.1366
29966W        W30830   2.460   9.937   9.288  0.1140  0.0411  0.2267
29967W        W30831   3.207   8.043   9.950 -0.1377  0.2647  0.3264
29968W        W30832  25.995   2.018  15.130 -0.0652  0.0728 -0.0699
29969W        W30833   6.442  18.752  25.808 -0.2210 -0.0848  0.1437
29970W        W30834   6.748  20.998  11.652 -0.0080  0.0768 -0.3438
29971W        W30835   3.359  25.342  17.443  0.3300 -0.1669 -0.5424
29972W        W30836  15.076  15.398   0.207 -0.2370 -0.2692  0.1490
29973W        W30837  11.203   2.858  23.717  0.1179  0.3946  0.0099
29974W        W30838   9.755   1.527  15.272 -0.0077  0.1596  0.1055
29975W        W30839   4.948  21.119  13.777  0.0987  0.0181  0.3935
29976W        W30840  14.419  21.878  25.564 -0.0794  0.3767  0.2199
29977W        W30841  27.476  21.672  14.151  0.2150  0.2694  0.1680
29978W        W30842  15.374   2.281  21.999  0.0549 -0.1613  0.3619
29979W        W30843  11.230   5.759  29.016  0.0269  0.0659  0.1820
29980W        W30844   5.409  25.366  25.103 -0.1631 -0.2784 -0.2951
29981W        W30845   3.798   2.140  15.334  0.1334  0.4606 -0.2004
29982W        W30846  29.143  12.549  11.380 -0.0228 -0.0084 -0.0802
29983W        W30847  10.450   6.258  18.987 -0.0920 -0.0859  0.3140
29984W        W30848   6.029  22.166   8.172 -0.0810  0.1559  0.4518
29985W        W30849  18.884  19.236  24.467 -0.1465  0.0817  0.1258
29986W        W30850  14.590  10.577   8.957  0.2682 -0.2534  0.3502
29987W        W30851  18.813  12.202  20.910  0.0594 -0.0645  0.0729
29988W        W30852  13.885  26.292   7.234  0.1913 -0.0942  0.0761
29989W        W30853  25.525   3.073   8.361  0.2655 -0.2713 -0.1639
29990W        W30854  13.828   2.929   4.074  0.2477 -0.5776 -0.2331
29991W        W30855  28.293   5.610   4.177 -0.0695  0.3488  0.0546
29992W        W30856  11.038   3.735  16.042  0.1465  0.0939  0.1695
29993W        W30857   6.290  28.428   3.860 -0.1333 -0.4508  0.1635
29994W        W30858   4.103  12.093  12.028  0.1177 -0.1217  0.1838
29995W        W30859  23.557  24.973  21.182 -0.2361  0.1942 -0.0846
29996W        W30860  11.715   4.963   1.475  0.3510  0.1899 -0.1303
29997W        W30861  26.176  22.827   5.770  0.0189 -0.0045 -0.2493
29998W        W30862  23.904  26.894   3.378 -0.2293  0.0053  0.2317
29999W        W30863   4.020  24.515   0.554 -0.0150  0.0373  0.3534
30000W        W30864   8.995  10.851   3.295  0.1036 -0.0023  0.1866
30001W        W30865  27.974  14.020  19.159  0.0433 -0.0315 -0.0786
30002W        W30866   0.004  24.004  10.077 -0.3041  0.0961  0.3653
30003W        W30867  28.100  27.940  22.405 -0.2389 -0.0285 -0.1431
30004W        W30868  22.907   0.426  12.947  0.0527  0.0335 -0.0098
30005W        W30869  16.052   1.390  12.882  0.0484  0.0331  0.1529
30006W        W30870  10.959  27.680  19.712 -0.1863  0.0009  0.1231
30007W        W30871  11.735  24.173  16.158 -0.2828  0.0641  0.0302
30008W        W30872  12.900  28.992  14.537 -0.0399 -0.0257 -0.0040
30009W        W30873  24.780  11.239  26.319  0.0234  0.1256  0.1046
30010W        W30874  10.080  11.760  24.404  0.1984 -0.1247  0.0999
30011W        W30875   5.792  14.502   0.495  0.1612  0.0145 -0.3940
30012W        W30876   7.326  17.945  11.262 -0.0896  0.1938  0.0113
30013W        W30877   6.664   7.211  13.119 -0.1481  0.4428 -0.2758
30014W        W30878  28.454  21.969   2.262 -0.2171  0.1022  0.2155
30015W        W30879  16.226  28.023   0.392 -0.0999  0.0890  0.1516
30016W        W30880   6.746   4.010  27.021 -0.0348  0.1301 -0.1984
30017W        W30881   2.124   0.720  24.260  0.0231  0.0768 -0.2109
30018W        W30882   2.203  25.725   8.022 -0.0619  0.0653 -0.0741
30019W        W30883  13.895   5.263  13.613 -0.3360 -0.2945 -0.4929
30020W        W30884  13.234   0.949  10.400  0.0340  0.2653 -0.1634
30021W        W30885   2.287  10.536   9.821  0.2042 -0.3528  0.3210
30022W        W30886   7.660   2.188  20.232 -0.1280  0.1770  0.2387
30023W        W30887  11.593   1.197   9.790  0.0194  0.1550 -0.2821
30024W        W30888   1.967  13.461   3.212 -0.2462  0.1864 -0.0693
30025W        W30889   0.066   2.261  23.087 -0.0543 -0.0316 -0.1349
30026W        W30890  21.753  10.797  10.073 -0.2308 -0.2098 -0.2731
30027W        W30891   4.602  10.589  15.305  0.0578 -0.1463  0.2126
30028W        W30892  22.444  24.704  17.369  0.0231 -0.0436 -0.0078
30029W        W30893   2.615  22.108   5.849 -0.1544  0.1560 -0.2235
30030W        W30894   2.092  12.209   3.557 -0.1062  0.3794  0.2149
30031W        W30895  28.710  22.634  21.465 -0.1036 -0.0403  0.0238
30032W        W30896   8.804  27.727   6.542  0.0017  0.2331  0.1691
30033W        W30897   4.845  11.888   1.253 -0.1297  0.0916  0.0387
30034W        W30898  22.081   1.720   8.108 -0.1159 -0.0029  0.0311
30035W        W30899   5.759  17.668  17.749  0.1368  0.0410  0.2689
30036W        W30900   9.273   7.855  23.215  0.1026 -0.0328 -0.0145
30037W        W30901  10.503   5.125  17.325 -0.0341 -0.1100  0.0357
30038W        W30902  21.614   8.874   2.444  0.2188 -0.3031  0.3161
30039W        W30903  22.496   3.725  12.394  0.1428  0.0743  0.0758
30040W        W30904  14.891   0.653  20.053 -0.1043  0.3654  0.0474
30041W        W30905  18.606  18.785  15.701 -0.2398 -0.0117 -0.2207
30042W        W30906  15.653  10.130  23.737 -0.2418 -0.2075 -0.2991
30043W        W30907  12.169  13.843   4.980  0.1614 -0.0606 -0.0886
30044W        W30908  25.762   4.113  26.635 -0.0093 -0.1844  0.0172
30045W        W30909  16.289  10.754   9.048  0.0087 -0.3462  0.2420
30046W        W30910   8.605  20.683  18.537 -0.0455  0.0194  0.0964
30047W        W30911   0.822  15.425   6.137 -0.1799  0.2006 -0.1160
30048W        W30912  13.652  13.194   5.745  0.1532 -0.2115 -0.4416
30049W        W30913  10.351  21.263   1.795  0.0857 -0.0874  0.2011
30050W        W30914  20.634  20.197  10.422  0.1782 -0.1026 -0.1311
30051W        W30915   6.172   1.994   9.189 -0.1391  0.3343  0.2078
30052W        W30916  15.120   3.458   9.424 -0.1317 -0.1778 -0.0442
30053W        W30917   8.896  28.136  26.316 -0.1196 -0.1796  0.2304
30054W        W30918  13.963  15.003   9.888 -0.0566  0.1536 -0.1219
30055W        W30919   7.828  21.314  25.142  0.1202  0.1125 -0.3725
30056W        W30920  11.646  27.063  23.367  0.2069  0.1980 -0.0930
30057W        W30921  19.729   5.557  14.287  0.3210  0.2082  0.4334
30058W        W30922  18.211  24.849   4.549  0.5795 -0.2042  0.0151
30059W        W30923  27.700  13.885  11.371  0.0986 -0.0837  0.3322
30060W        W30924  10.290   5.279   1.818  0.0705  0.1762 -0.0526
30061W        W30925   2.827  25.270  14.573 -0.0973 -0.0624  0.1755
30062W        W30926  11.415  12.972   3.493 -0.1480 -0.3168 -0.0254
30063W        W30927  26.419  17.163  12.022 -0.3272  0.0024 -0.0832
30064W        W30928   6.275  15.805   1.976 -0.1239  0.0365 -0.2790
30065W        W30929   3.534  26.273  22.171  0.0021 -0.3645  0.0942
30066W        W30930  12.462  25.142  17.271 -0.2972  0.0228 -0.2212
30067W        W30931   9.140  20.999   2.112  0.2660  0.3020 -0.0091
30068W        W30932  25.823   6.365  17.655  0.0619  0.1036  0.2381
30069W        W30933   8.173   1.102   9.175  0.1166 -0.1670 -0.2058
30070W        W30934   1.025  15.727   1.060 -0.0059 -0.3879  0.0142
30071W        W30935   4.485  28.067   9.715  0.1832  0.0627 -0.1198
30072W        W30936  21.055   2.800  25.496  0.2958 -0.0231 -0.3950
30073W        W30937   2.298   2.640   0.177  0.2235  0.2639  0.1691
30074W        W30938  26.955  10.801   0.644 -0.4090  0.3019  0.0832
30075W        W30939  28.038  20.652  12.215  0.0789  0.0303  0.2198
30076W        W30940  12.911   8.134  27.109 -0.0127 -0.1357 -0.0640
30077W        W30941   3.158  28.059  25.428  0.1404 -0.0304  0.0153
30078W        W30942  27.007  13.394  16.141 -0.2795  0.1076 -0.1463
30079W        W30943   1.012  14.316   7.854 -0.0555 -0.1553 -0.0109
30080W        W30944   9.662  13.116  14.526 -0.0204 -0.0407  0.0896
30081W        W30945   2.196   6.583   6.010  0.1961  0.0530 -0.1737
30082W        W30946   7.691  16.959  28.768  0.3044  0.1395 -0.0897
30083W        W30947  25.611  25.982   6.131  0.0933  0.2918  0.0813
30084W        W30948   5.495   1.854   5.941  0.1215  0.0122 -0.1037
30085W        W30949   6.779   5.295  28.008 -0.0178  0.2391  0.4297
30086W        W30950  19.209  28.377  16.527  0.1369  0.2243  0.2287
30087W        W30951  22.302   8.945   1.028 -0.0966  0.1597  0.2332
30088W        W30952  17.428  12.102  11.869  0.1286 -0.0797 -0.2130
30089W        W30953  28.410  23.904  21.771  0.0107  0.3342  0.1565
30090W        W30954  16.028   4.204  28.708  0.0556 -0.2839 -0.2260
30091W        W30955  14.519   9.826  11.919  0.0081  0.1848 -0.1759
30092W        W30956  13.483   5.584  12.200  0.0208 -0.1007  0.1345
30093W        W30957  10.099   5.456   4.338 -0.1135  0.0830  0.0801
30094W        W30958   4.307   8.580   6.295 -0.2036  0.1593  0.4108
30095W        W30959   5.105  25.697   7.432 -0.0796 -0.0742 -0.2411
30096W        W30960  24.809  18.079  13.764 -0.3510  0.0992 -0.1119
30097W        W30961  19.336  16.941  25.129 -0.1831 -0.0515 -0.2725
30098W        W30962  21.573   4.411  14.657  0.1270  0.1755  0.0127
30099W        W30963  15.841   9.263  14.543  0.0774 -0.0211  0.0717
30100W        W30964  21.214   9.313   6.439  0.0670 -0.0084 -0.1643
30101W        W30965  16.376  10.656  25.519 -0.1949 -0.0100 -0.0970
30102W        W30966  25.958  28.189   0.697 -0.3265 -0.2040  0.0398
30103W        W30967   8.438  15.821  18.679  0.2104  0.1489  0.2521
30104W        W30968  21.545   4.488   2.564 -0.2227 -0.2784 -0.0957
30105W        W30969   9.483  28.623   9.153  0.0527  0.0919 -0.3651
30106W        W30970   5.199   1.278   8.701  0.0554 -0.0061  0.1557
30107W        W30971  26.089  20.844   5.207  0.1062  0.0667 -0.2055
30108W        W30972  23.730  20.037  16.214 -0.0714  0.1864 -0.0179
30109W        W30973  11.651  28.242  20.053 -0.1405  0.3669  0.0906
30110W        W30974   1.360  12.325   4.763  0.0139  0.1162  0.4145
30111W        W30975  27.687  15.916  17.015 -0.1080 -0.0566  0.0606
30112W        W30976   7.700  26.432  11.257  0.4042  0.0248  0.0819
30113W        W30977   2.855  10.370  11.002  0.0656  0.2119 -0.1874
30114W        W30978  21.059   7.990  20.280 -0.3166 -0.0423  0.0429
30115W        W30979  25.659  26.734   3.188 -0.1284 -0.1709 -0.0061
30116W        W30980  12.487   5.655  15.971 -0.2088 -0.3492 -0.0391
30117W        W30981  25.088  24.993   8.657  0.0480 -0.0085 -0.0692
30118W        W30982  22.961   9.862   6.764 -0.4925  0.0440 -0.1131
30119W        W30983  25.379   4.057   4.172 -0.4254 -0.0463 -0.0822
30120W        W30984  26.826  17.999   4.823  0.5084  0.2978 -0.0620
30121W        W30985  21.341   9.220  18.517 -0.2445 -0.1960  0.3438
30122W        W30986  20.374  28.978  27.771 -0.1109  0.1349  0.0515
30123W        W30987  10.198  25.762   4.360  0.0837  0.0863  0.2357
30124W        W30988  11.893  26.502  14.557 -0.3656  0.0464 -0.1020
30125W        W30989   5.808  11.861  17.249 -0.2212  0.0430 -0.2617
30126W        W30990  24.338  25.482  25.837 -0.1960 -0.1166  0.2358
30127W        W30991   2.171  28.516  28.790  0.0328 -0.0162  0.0029
30128W        W30992   5.666  29.033   2.369 -0.2254 -0.1761  0.3590
30129W        W30993  21.273   0.648   2.903  0.2421 -0.0681 -0.0823
30130W        W30994  14.287   2.511   0.098 -0.1038  0.1717  0.0776
30131W        W30995  21.081   8.803  19.800 -0.0110  0.0766 -0.2239
30132W        W30996  18.889  21.224  11.888 -0.2777  0.0329 -0.0844
30133W        W30997  13.889   3.631  27.531  0.0275  0.1556  0.1220
30134W        W30998  27.438  21.338   7.533 -0.2995 -0.0955 -0.1251
30135W        W30999  27.591  26.524  28.746 -0.1671  0.2364  0.3451
30136W        W31000   0.088  14.555   6.904 -0.0659  0.0427 -0.0302
30137W        W31001   3.148   8.485  15.487 -0.0456  0.1214  0.2892
30138W        W31002   6.627  28.383   8.813  0.2558 -0.0473 -0.3688
30139W        W31003  12.865  16.956  24.793 -0.0807 -0.2694 -0.0194
30140W        W31004   7.316  26.921   6.696  0.0175 -0.0533  0.0089
30141W        W31005   7.272  23.592   1.385 -0.1142 -0.2023 -0.0031
30142W        W31006  11.644  27.907  12.707  0.1495  0.0826  0.0145
30143W        W31007  14.399   8.045  24.078 -0.4500  0.2042 -0.0565
30144W        W31008   6.489  10.318  12.682  0.1202  0.2539 -0.1721
30145W        W31009  14.224  22.045  15.017  0.0253  0.1516 -0.1355
30146W        W31010  16.287  25.904  17.967  0.1010 -0.1219 -0.4086
30147W        W31011  26.974  13.400   0.420 -0.2164  0.0795  0.4427
30148W        W31012   7.885  10.520  23.763 -0.2462 -0.0315  0.1017
30149W        W31013   3.984   0.160   3.597 -0.1462  0.2074  0.2480
30150W        W31014  18.055  23.664  12.670  0.1329 -0.1960  0.0177
30151W        W31015  18.915  22.542  10.250 -0.0695 -0.0567 -0.4013
30152W        W31016  11.512  21.302   8.585 -0.0330 -0.4284  0.0162
30153W        W31017  16.221  11.896  18.957 -0.2851  0.1332  0.1251
30154W        W31018   2.058  15.282   2.164  0.1215 -0.3490 -0.0580
30155W        W31019   1.931   8.393   5.996 -0.1786  0.1036  0.0235
30156W        W31020  14.378  11.851   0.947 -0.0419  0.0554  0.0694
30157W        W31021  15.222   9.706  24.330 -0.1853 -0.1816 -0.5711
30158W        W31022  22.165  11.682  26.311  0.0193 -0.1010  0.0700
30159W        W31023   7.988  22.095   1.992 -0.0077 -0.0568  0.2801
30160W        W31024  26.229  16.591  28.807 -0.4455  0.1602  0.0763
30161W        W31025  15.631  15.162  12.030  0.0601  0.0996 -0.0812
30162W        W31026  11.073  10.353  23.543  0.2143 -0.0940  0.0952
30163W        W31027  11.829  12.090  15.237 -0.0482 -0.0345  0.2867
30164W        W31028   7.050  15.801   0.736  0.0576 -0.1860  0.1517
30165W        W31029  18.131   6.860  20.731  0.1284  0.1039  0.3051
30166W        W31030   3.720  28.344  10.934 -0.1584 -0.0076  0.1045
30167W        W31031   8.553   1.646  22.528  0.0523 -0.1697 -0.3429
30168W        W31032  25.721   0.324  14.312 -0.2546 -0.2834 -0.1456
30169W        W31033  15.941   9.820   2.642 -0.1405  0.3224 -0.2351
30170W        W31034   0.676   0.639   3.920 -0.0394  0.2343 -0.0047
30171W        W31035  12.581  12.119  23.663  0.0969 -0.0305  0.3838
30172W        W31036   8.149  12.907   7.620 -0.0995 -0.2514 -0.2624
30173W        W31037  11.215  21.474   2.208  0.0703  0.0854  0.0109
30174W        W31038   9.876  19.005  11.211 -0.0866 -0.0375 -0.0754
30175W        W31039  16.417  21.843   7.174 -0.1444  0.2001 -0.1435
30176W        W31040  24.687  19.095  11.402  0.3360 -0.1627 -0.0642
30177W        W31041  11.544   4.485  26.091 -0.0654 -0.0514 -0.1063
30178W        W31042  11.687  24.760  24.101 -0.1066  0.2719 -0.0362
30179W        W31043  28.011  12.682   6.798 -0.1170 -0.0555  0.1844
30180W        W31044   3.295   7.130  25.211  0.0416 -0.0897  0.0211
30181W        W31045  20.019   3.475  25.572 -0.0673  0.0419 -0.1241
30182W        W31046   2.932   0.826  12.276  0.2676 -0.2740 -0.1163
30183W        W31047  11.533  27.099   8.731 -0.1480 -0.0619  0.3379
30184W        W31048  24.260  13.133   4.459  0.2272  0.1652 -0.0911
30185W        W31049  11.310   7.263  18.666 -0.1419  0.1029  0.2527
30186W        W31050   9.857   6.399   4.341 -0.0240  0.1747  0.0876
30187W        W31051  16.027   5.097   9.070 -0.0975  0.1975  0.1754
30188W        W31052  16.260  21.740  13.462  0.2114  0.0978  0.0756
30189W        W31053   8.329  26.421  19.263 -0.0776  0.4568 -0.0132
30190W        W31054  13.396  10.530   3.820 -0.2729  0.1305 -0.1367
30191W        W31055  16.335   1.180   7.608  0.1125  0.2775  0.1379
30192W        W31056  15.677  17.205   0.441  0.0810 -0.1233 -0.0408
30193W        W31057   7.346  17.165   1.514  0.1179  0.2156 -0.1117
30194W        W31058  15.312   8.233  21.686 -0.2758  0.0747 -0.0187
30195W        W31059  14.257  23.861  11.214 -0.0746 -0.0498  0.0623
30196W        W31060  28.976   9.522  10.069 -0.1689 -0.0302  0.0135
30197W        W31061   2.254  27.346   1.223 -0.0256  0.1653  0.1934
30198W        W31062  21.332  16.175  20.430  0.0376  0.1748 -0.2418
30199W        W31063   9.668   7.548   7.556 -0.3559  0.4434  0.0382
30200W        W31064  10.387   8.152  20.945 -0.1602 -0.0272 -0.0686
30201W        W31065   2.468   1.956  14.645  0.2221 -0.0987 -0.4113
30202W        W31066  13.315  29.079  17.183  0.4151  0.1912  0.0650
30203W        W31067  10.191   8.652  23.807 -0.1174 -0.0586 -0.1365
30204W        W31068  18.985  21.047  25.231  0.0980 -0.1692  0.1662
30205W        W31069  10.394  23.580   8.867  0.0274 -0.0602 -0.1591
30206W        W31070  25.551  27.806  15.623  0.3183  0.0312 -0.1766
30207W        W31071   1.739   0.432  20.998  0.1882 -0.0236 -0.1188
30208W        W31072  14.576   5.144   3.248 -0.0403 -0.0658  0.0492
30209W        W31073   5.470  18.132  13.875 -0.0922 -0.0955 -0.2172
30210W        W31074   4.065   9.988  17.059 -0.0283  0.0060  0.3270
30211W        W31075  25.473  27.507   5.576  0.0301 -0.2554  0.4268
30212W        W31076   4.210   6.969  18.548  0.1947  0.5264 -0.0085
30213W        W31077  27.314  24.800  18.643  0.1919  0.1674  0.0053
30214W        W31078  23.422   2.081  21.908  0.1555  0.2375 -0.0180
30215W        W31079  21.393  10.891  13.971  0.1971  0.1393 -0.0208
30216W        W31080  14.869   5.893  24.629  0.1613 -0.0476  0.1470
30217W        W31081  21.091  13.320  24.169 -0.2194 -0.2411 -0.1256
30218W        W31082  13.182  26.895  11.100  0.1133  0.1027 -0.2278
30219W        W31083  12.211  14.864  23.376 -0.0360 -0.1104  0.1018
30220W        W31084  21.935  16.235  16.008 -0.1341 -0.0994 -0.2520
30221W        W31085  25.940   4.572  13.327 -0.1084  0.0387 -0.0011
30222W        W31086  13.388  11.638  19.838 -0.0661  0.1376  0.1051
30223W        W31087  26.792  27.892  19.181  0.1266 -0.0596 -0.3027
30224W        W31088  19.858  10.009  23.859  0.3029  0.1712 -0.0276
30225W        W31089   8.085   3.463  20.401 -0.0621  0.3162 -0.0223
30226W        W31090   5.464  17.032  11.614 -0.3816 -0.0191  0.0030
30227W        W31091  27.085  13.398  10.390 -0.1978  0.1051  0.0796
30228W        W31092  25.385  24.244   9.109 -0.0233  0.0449 -0.3889
30229W        W31093  23.297  23.280  22.167  0.3480 -0.1206  0.0688
30230W        W31094   5.396   8.331   9.390 -0.5600 -0.1812 -0.1468
30231W        W31095  20.319  12.853  12.853 -0.0273  0.0726  0.4249
30232W        W31096  21.781  11.249  26.333  0.1809 -0.0701  0.1099
30233W        W31097   7.179   6.664  14.226  0.1919 -0.0740 -0.0777
30234W        W31098  13.101   9.844  13.911  0.2145  0.1719  0.0095
30235W        W31099   3.984   8.492  28.909 -0.0407 -0.1564 -0.1559
30236W        W31100  20.304  10.929   8.328  0.0147  0.1247  0.0210
30237W        W31101   3.487  11.404   2.514  0.2263  0.2688  0.0964
30238W        W31102  13.509  15.097  12.645  0.4215  0.1449  0.0363
30239W        W31103   5.883   8.157  16.096 -0.0523 -0.1835 -0.0858
30240W        W31104  10.807  16.076  24.976 -0.2051 -0.4993 -0.1359
30241W        W31105   3.185  16.831  18.157  0.0608 -0.2734 -0.2781
30242W        W31106  12.463  11.444  21.237  0.0522  0.1045 -0.0504
30243W        W31107   7.515  29.088  15.950 -0.0592 -0.2827  0.0136
30244W        W31108  22.085  25.495  28.508 -0.2280 -0.0335  0.1406
30245W        W31109   8.738   7.409   2.301 -0.1292  0.0163  0.1633
30246W        W31110  12.327  27.780  19.622  0.1016  0.1965  0.0546
30247W        W31111  13.451  12.782   3.208  0.1066  0.1112 -0.1436
30248W        W31112  25.354   1.390   7.246 -0.1049  0.0513  0.0497
30249W        W31113  11.163   2.700  11.345 -0.1564 -0.1900  0.1299
30250W        W31114   4.204  16.822   2.773  0.2714  0.2082 -0.2122
30251W        W31115   7.334  15.876   7.846  0.1950 -0.0033  0.2327
30252W        W31116  17.026  20.710   7.853  0.1498 -0.2189  0.0914
30253W        W31117  13.553  27.904   1.049 -0.2128 -0.0896 -0.1486
30254W        W31118  15.910  18.654  11.260  0.1257  0.1301 -0.1804
30255W        W31119  13.580   2.910   9.641 -0.0176  0.2668 -0.1299
30256W        W31120  26.117  16.328   5.901 -0.0081  0.2804 -0.2255
30257W        W31121  13.122  27.337  10.208  0.2225 -0.2356  0.0784
30258W        W31122   4.884  26.703  28.441 -0.1626  0.1253 -0.0927
30259W        W31123  11.906  14.023  16.398 -0.1791  0.1529  0.1382
30260W        W31124  14.963   5.109   4.735  0.1473 -0.0458 -0.1443
30261W        W31125  10.097  21.377  11.854 -0.5721  0.1172  0.1729
30262W        W31126   2.056  11.004   7.750 -0.0560 -0.0707 -0.1072
30263W        W31127   0.023   2.239  10.340 -0.1081 -0.0142  0.0167
30264W        W31128  18.835   9.400  19.770 -0.1181 -0.1486  0.0547
30265W        W31129   6.840  13.844  25.666 -0.1253 -0.1312 -0.1212
30266W        W31130   1.239   1.189  20.222 -0.1176 -0.1043 -0.0422
30267W        W31131   4.381  11.688  22.216  0.2903 -0.1171 -0.1958
30268W        W31132  13.655   8.015   8.772 -0.2889  0.0505  0.3048
30269W        W31133   1.167   1.616  27.973  0.3068 -0.0315  0.2083
30270W        W31134  28.052  11.745  18.234  0.1139 -0.1501  0.2932
30271W        W31135   5.666  19.429  24.337  0.0674 -0.0574  0.0766
30272W        W31136  27.489   3.297  27.842 -0.1670  0.2710  0.1565
30273W        W31137  20.232  26.622  19.212  0.0381  0.0059  0.0949
30274W        W31138   6.315   3.735  23.676 -0.0349  0.3499 -0.2216
30275W        W31139  11.308  14.882  14.434 -0.2307 -0.0948  0.0311
30276W        W31140  27.889  10.247  19.221  0.3594 -0.2771 -0.0958
30277W        W31141   0.772   9.259  17.589 -0.0535  0.0990 -0.2197
30278W        W31142  11.464   0.505   9.291 -0.1640  0.1816  0.1019
30279W        W31143   7.007  19.360  24.797  0.1438  0.0965  0.2799
30280W        W31144   6.194  15.937  16.375 -0.0925 -0.1408  0.1942
30281W        W31145  28.666   9.255   7.156 -0.2749 -0.0116  0.0889
30282W        W31146  26.226  15.338  11.211 -0.2237 -0.2168 -0.0512
30283W        W31147  25.228  27.062  20.451  0.0548 -0.0842 -0.1820
30284W        W31148   5.585   5.576  11.613 -0.1222  0.0892  0.0591
30285W        W31149   2.390  28.149  15.580  0.3222 -0.0012  0.0071
30286W        W31150  16.900  10.573  19.027  0.0228 -0.0274  0.2804
30287W        W31151   6.630  28.502   8.290 -0.0116 -0.4393  0.0460
30288W        W31152   8.862  12.483   5.730  0.1572  0.0086  0.1049
30289W        W31153  26.726  15.943   3.960 -0.1283 -0.1364 -0.3047
30290W        W31154   3.091  12.045   3.445  0.1733 -0.0980 -0.5165
30291W        W31155  22.219  27.088  27.475  0.0659  0.0427  0.0781
30292W        W31156  20.633   1.286   7.664  0.2103  0.1586 -0.2864
30293W        W31157  28.060   9.275  25.062  0.1160 -0.2046 -0.1173
30294W        W31158  20.959   6.957  25.184  0.1665  0.0011  0.0803
30295W        W31159  19.366  10.747  17.952 -0.2329 -0.0692 -0.3055
30296W        W31160   4.319   8.108  19.242  0.2959 -0.1148  0.0018
30297W        W31161   6.563   7.093   5.332 -0.0082  0.0504 -0.3988
30298W        W31162   2.571  23.539  24.037  0.2032  0.1154  0.0087
30299W        W31163  17.956   5.900  20.792  0.1245  0.1693 -0.4325
30300W        W31164   0.917   8.953  21.619 -0.0329  0.1072  0.2206
30301W        W31165  20.053  25.781   7.061 -0.1825  0.2207  0.1588
30302W        W31166  15.588  23.500   5.996  0.1062 -0.0585  0.2601
30303W        W31167  10.345  11.813  10.235 -0.4050 -0.1506  0.3450
30304W        W31168  26.334   9.417   0.203  0.2695 -0.0538 -0.2146
30305W        W31169   3.276  19.951  12.387  0.0616  0.0274 -0.3961
30306W        W31170  16.440  20.656   3.644 -0.0476  0.0487 -0.0741
30307W        W31171  26.578   4.521  25.064  0.2178 -0.1096 -0.0900
30308W        W31172  21.987  23.073  14.049  0.3739 -0.1756  0.2958
30309W        W31173   7.320  22.320  13.354  0.3342 -0.1891 -0.0758
30310W        W31174   8.471   5.830   6.725  0.1471  0.2199  0.0848
30311W        W31175  17.934   9.360   0.858  0.0271 -0.1670  0.0117
30312W        W31176   6.664   4.423   7.835  0.3282  0.3899  0.1721
30313W        W31177  10.478   5.326   6.567  0.0008 -0.0846  0.1028
30314W        W31178   6.116   5.348   0.883  0.0280  0.0275  0.0849
30315W        W31179  25.294   6.632   9.046  0.2995 -0.1213  0.1075
30316W        W31180  10.357   0.494  26.670 -0.4168  0.0151 -0.1070
30317W        W31181   6.710  17.439  28.905  0.1148 -0.2626  0.1519
30318W        W31182   9.007  11.455   2.090 -0.1329  0.0969  0.3366
30319W        W31183   2.210   6.518  20.007  0.0464  0.1915  0.0968
30320W        W31184  15.866   7.446  18.171 -0.1517 -0.0893  0.0221
30321W        W31185  21.019   2.551  26.263  0.3374  0.3081 -0.0167
30322W        W31186  18.705   2.013  20.159 -0.1785 -0.1000  0.1616
30323W        W31187  23.179  12.303  10.803  0.2490  0.3215 -0.1682
30324W        W31188  25.416   8.329  16.291  0.1253  0.0475 -0.0211
30325W        W31189   2.734  16.638  11.165 -0.0420 -0.0254 -0.2286
30326W        W31190  18.676  18.328  14.341 -0.3402 -0.1158 -0.0308
30327W        W31191   4.847   3.868  15.099  0.1836 -0.0851 -0.0539
30328W        W31192   2.274   7.811   3.285 -0.1673 -0.1622  0.2580
30329W        W31193  28.413  16.879  10.804  0.0297 -0.1174 -0.0590
30330W        W31194  27.292  12.886  29.032 -0.2410 -0.1872  0.2401
30331W        W31195  21.742   3.704  21.884 -0.0014 -0.1599 -0.0443
30332W        W31196  12.088   8.088  18.221 -0.2406 -0.0315  0.2820
30333W        W31197  11.015  11.290   8.932 -0.1307  0.1911  0.0096
30334W        W31198   7.257  14.390  17.748  0.0238 -0.1080 -0.2010
30335W        W31199  12.369  19.035  13.343  0.0182  0.1390 -0.0557
30336W        W31200   7.030  28.814   6.375 -0.0616 -0.0098  0.4110
30337W        W31201  18.584  10.052  26.597 -0.0322  0.1546 -0.0719
30338W        W31202  16.370  21.191  13.702 -0.0366 -0.0785 -0.1568
30339W        W31203  15.727   6.271   5.439  0.1413 -0.0721 -0.0474
30340W        W31204  15.812  21.197   3.008  0.0721 -0.1147 -0.1115
30341W        W31205   5.695  19.829  28.086  0.2469  0.0270  0.0496
30342W        W31206  16.194   3.334  21.393  0.1078  0.0618  0.4134
30343W        W31207   1.716  23.074  28.411 -0.1054 -0.3021 -0.3326
30344W        W31208   7.859   8.774   5.809 -0.0368  0.0087  0.1588
30345W        W31209   7.710  11.671  15.567  0.0889  0.1192  0.1668
30346W        W31210  19.035   0.035  26.187  0.1859  0.0268  0.1862
30347W        W31211   9.126   5.622  11.950 -0.0193  0.4758 -0.2389
30348W        W31212   8.231   8.475  10.055  0.2692  0.1969  0.1773
30349W        W31213  19.477  28.644  22.829 -0.3193  0.2931  0.0576
30350W        W31214  27.716  27.547  19.452 -0.0172 -0.1783  0.0050
30351W        W31215   7.487  23.756  19.044 -0.0732  0.0048 -0.2705
30352W        W31216  15.496  22.025   8.280 -0.0409 -0.1593  0.0606
30353W        W31217   3.630   9.895  11.170 -0.1554  0.1659  0.3785
30354W        W31218   4.556   4.469  18.699  0.2610  0.2700 -0.0135
30355W        W31219   0.136  26.082  28.042  0.0253  0.0637 -0.0100
30356W        W31220   6.497  21.716  11.119  0.0625 -0.1393 -0.5219
30357W        W31221   4.669  13.904   4.986 -0.2748 -0.0330  0.1195
30358W        W31222   9.233  10.094   7.924  0.0557 -0.0338 -0.1708
30359W        W31223  25.281  17.463  13.358 -0.1204  0.1842  0.3617
30360W        W31224  21.327   9.732  11.895 -0.1074  0.2440 -0.0357
30361W        W31225  15.290   2.976  18.103 -0.0237  0.1684 -0.2186
30362W        W31226  12.463  10.641  19.319  0.1889  0.2310 -0.3745
30363W        W31227  23.548   3.352  28.071 -0.0057  0.3754 -0.2821
30364W        W31228   8.553  21.296  19.934  0.0658  0.0063 -0.2936
30365W        W31229   3.554   5.762  24.792  0.2079  0.0189 -0.3592
30366W        W31230   9.556  24.331  10.783 -0.3260  0.2403  0.0867
30367W        W31231  27.860  13.986  25.233 -0.2058  0.0206  0.0297
30368W        W31232  29.130  12.145  28.758 -0.0058  0.0208  0.1350
30369W        W31233  28.615   7.067  13.794 -0.0206  0.0404  0.0723
30370W        W31234  14.617  12.032  15.566  0.1785 -0.0973 -0.0282
30371W        W31235  21.340  27.383   6.863  0.1699 -0.0032 -0.0396
30372W        W31236   6.296  15.076  25.145 -0.2196 -0.0265 -0.0022
30373W        W31237   7.111  19.483  16.210 -0.0858  0.1712 -0.2327
30374W        W31238  20.645  29.098   7.078  0.2067  0.3096  0.0157
30375W        W31239  14.803   7.003  19.091 -0.0243 -0.0761  0.1054
30376W        W31240   7.914  28.373  13.431 -0.0240  0.1997 -0.1080
30377W        W31241  19.071   5.703  14.044 -0.3164 -0.2638  0.1638
30378W        W31242   6.785   4.992  10.374  0.2002 -0.1279  0.0440
30379W        W31243   2.037   2.263  10.343  0.1454  0.1209  0.0638
30380W        W31244  15.510  15.850  21.731 -0.0843 -0.4150 -0.1172
30381W        W31245   6.915  14.335   1.963 -0.0738  0.0341  0.2379
30382W        W31246  24.263  17.946  18.006  0.1599  0.2951 -0.0721
30383W        W31247  11.377  24.132  14.043  0.0961  0.1124  0.1235
30384W        W31248   8.301   5.173  24.235 -0.1642 -0.3737 -0.2705
30385W        W31249   4.744   3.314   4.965  0.0540 -0.1114 -0.2078
30386W        W31250  11.629  22.687  12.388 -0.0757 -0.1714 -0.0822
30387W        W31251  23.639  19.419  12.177  0.1956  0.1256 -0.4779
30388W        W31252  29.137  11.768  26.607 -0.2165  0.2181 -0.1574
30389W        W31253   8.920  22.642  26.940 -0.2834 -0.2092  0.1612
30390W        W31254   7.940   7.663  28.957  0.4199  0.0404 -0.0799
30391W        W31255   1.758  19.719   4.197  0.1696  0.0591  0.1154
30392W        W31256   2.711  26.073   4.549 -0.3334 -0.1371 -0.0248
30393W        W31257  23.632  21.036   1.216  0.1168  0.0121 -0.0910
30394W        W31258   9.803   3.964  21.339 -0.2060 -0.2246 -0.3909
30395W        W31259  28.404  20.006   4.225  0.0184  0.0235 -0.0740
30396W        W31260  14.825  16.474   9.278  0.1419  0.0486  0.3190
30397W        W31261  28.158   5.732  16.559 -0.1847  0.1415  0.0025
30398W        W31262  12.284  16.397   3.873  0.0796 -0.1801 -0.0869
30399W        W31263  10.952   4.328  19.157  0.0348  0.1130 -0.1987
30400W        W31264  25.494  27.446  16.898  0.1224 -0.0004 -0.0085
30401W        W31265  17.136   0.081  10.130 -0.3160 -0.0810 -0.0516
30402W        W31266  18.957  20.468   9.202  0.1321 -0.3026  0.2395
30403W        W31267  26.013  12.791  24.400 -0.0179 -0.0766 -0.0715
30404W        W31268  28.095   4.702  22.724 -0.0646  0.0070  0.1098
30405W        W31269   5.380   2.239  10.797  0.2127  0.1834 -0.0253
30406W        W31270   7.175  22.045   5.451  0.3010  0.0136 -0.2271
30407W        W31271  27.090   0.109   7.055 -0.1727 -0.2611 -0.0607
30408W        W31272   7.059  13.442  27.853 -0.0840  0.2386  0.0602
30409W        W31273   5.472   2.242  24.399  0.2083 -0.0220 -0.0681
30410W        W31274  18.182  25.362  21.276 -0.0994  0.2738  0.0762
30411W        W31275  18.739   6.167   6.181  0.2193 -0.0788 -0.2103
30412W        W31276   2.924   3.153  13.926  0.0062  0.0385  0.1575
30413W        W31277  27.814   6.929   0.171 -0.0026 -0.1316 -0.0713
30414W        W31278   8.303   4.522   1.349  0.2802  0.1362 -0.1446
30415W        W31279   4.360  28.690  21.834 -0.0397 -0.1095 -0.0281
30416W        W31280  14.738   8.788   5.409  0.0996  0.2050 -0.0005
30417W        W31281   1.985   1.164   1.044 -0.0954  0.0908  0.2194
30418W        W31282   5.225   2.631   7.393  0.0061 -0.3089  0.2496
30419W        W31283  18.074  15.319  20.692  0.1648  0.2051 -0.0142
30420W        W31284  19.792  11.651  23.903  0.3565 -0.0170  0.1485
30421W        W31285   1.484  11.855   6.199  0.1676  0.0119 -0.0696
30422W        W31286   0.581  22.016  22.193  0.1421 -0.3513  0.0393
30423W        W31287   0.141  25.710  11.222  0.0142 -0.1994 -0.2868
30424W        W31288   4.976  13.464  10.407  0.0300  0.1374  0.0758
30425W        W31289  21.766  14.924  25.373  0.0500  0.0101  0.0807
30426W        W31290  27.340  17.317  15.949  0.0508 -0.2213  0.3100
30427W        W31291   3.493   3.636   6.394  0.2229 -0.0591  0.0887
30428W        W31292  12.134  22.296   0.637 -0.0204 -0.2298 -0.2574
30429W        W31293  24.258  19.937   8.559  0.1678  0.1324 -0.0439
30430W        W31294   4.665  20.140  16.580  0.0168  0.1929  0.2310
30431W        W31295  15.525  22.633   8.489 -0.2427 -0.1360 -0.6299
30432W        W31296   1.587  25.365  21.374 -0.1976 -0.1899 -0.1017
30433W        W31297   8.811  10.713  21.390 -0.1422  0.0253 -0.5893
30434W        W31298  14.536  18.845  18.008 -0.0882 -0.1709  0.0934
30435W        W31299  27.393  19.464   8.189 -0.1118  0.2686  0.1564
30436W        W31300  26.107  27.226  14.766  0.0210 -0.1039  0.3550
30437W        W31301   1.859  17.761  29.060  0.1734  0.0360 -0.0311
30438W        W31302  19.048  10.682  18.790 -0.0075  0.1459 -0.1931
30439W        W31303   5.554   7.880  24.850 -0.0503  0.1617  0.0664
30440W        W31304   5.044  11.765  14.340  0.0128  0.1249  0.2694
30441W        W31305   9.248  15.358  12.163 -0.0855  0.1085 -0.2254
30442W        W31306  27.883  16.507  12.420 -0.1856 -0.0165  0.1869
30443W        W31307   6.614  15.342   1.170 -0.1483  0.4336  0.3163
30444W        W31308   3.568  21.398  14.052 -0.1940 -0.3064 -0.2529
30445W        W31309   9.734   0.556   7.418 -0.2365 -0.0549 -0.1612
30446W        W31310  24.153  16.764  19.684  0.1614 -0.0260 -0.1145
30447W        W31311   0.612   2.206   5.320  0.0930 -0.0967  0.3680
30448W        W31312  15.410  28.425  13.979 -0.0738 -0.1016 -0.0979
30449W        W31313  27.815   3.963  15.314 -0.1171 -0.2985  0.0470
30450W        W31314  20.209  16.361  23.693 -0.1237 -0.0176 -0.0571
30451W        W31315  26.229   8.181  15.600  0.0748  0.0434 -0.3614
30452W        W31316   9.347   3.431   9.275 -0.1048  0.0337 -0.3139
30453W        W31317  13.793  10.845   4.848  0.2953 -0.2383  0.1089
30454W        W31318   8.808  18.278  12.481  0.3468 -0.0709 -0.0682
30455W        W31319  13.983  24.709  13.890 -0.0401  0.5158 -0.0153
30456W        W31320  28.264   3.124  25.238  0.2339  0.2444 -0.0303
30457W        W31321  12.259  26.833  11.103  0.2860  0.0429 -0.1732
30458W        W31322   3.528  17.610  13.537 -0.0851  0.0055 -0.2629
30459W        W31323  10.395   7.121  16.095 -0.1690 -0.2173  0.2339
30460W        W31324   7.297  15.934  15.989  0.0827  0.1838 -0.0821
30461W        W31325   9.854   9.239  17.461  0.1395 -0.2231  0.1124
30462W        W31326   6.176   0.145  27.018  0.1471  0.0479 -0.1663
30463W        W31327  23.227  11.272  11.740 -0.0346 -0.0130  0.0717
30464W        W31328  11.414  11.293  17.349 -0.2354  0.1107 -0.0497
30465W        W31329  13.129   9.618   5.878  0.0174 -0.0518 -0.0755
30466W        W31330   0.095  21.550  23.725  0.1098 -0.2834 -0.0431
30467W        W31331  19.903   9.246  21.341  0.1497 -0.2515 -0.3045
30468W        W31332   0.902   6.034  18.082 -0.2341 -0.0830 -0.4368
30469W        W31333  25.979  24.106  18.804  0.3109 -0.2830  0.0953
30470W        W31334   4.201  25.637   9.207 -0.1317  0.2642  0.2594
30471W        W31335   9.204  23.626  27.103  0.1214  0.1327  0.3446
30472W        W31336  28.184  23.379   1.263 -0.2465  0.1072 -0.1134
30473W        W31337   5.355   8.127  13.057 -0.1454 -0.0179 -0.1677
30474W        W31338  23.751  28.241  17.322 -0.1045 -0.0886 -0.1655
30475W        W31339  26.283  15.619  21.578 -0.3070 -0.0743  0.4608
30476W        W31340  28.318  28.308   5.304  0.0602  0.0233 -0.1687
30477W        W31341  11.829   1.863  14.334  0.3645  0.0145 -0.2907
30478W        W31342  13.698  18.337   4.976  0.2905  0.1415 -0.0164
30479W        W31343  13.281   9.961  20.592 -0.0534  0.0439 -0.3585
30480W        W31344   8.745   9.446  26.293  0.1472 -0.2437  0.1807
30481W        W31345  11.319   3.648  24.551 -0.2994 -0.0301  0.0726
30482W        W31346   7.048  24.235  25.693  0.3021  0.2009 -0.1376
30483W        W31347  28.376  25.463   9.969 -0.3170  0.1208  0.2466
30484W        W31348   9.469  18.198  23.960  0.1350 -0.1300 -0.0600
30485W        W31349   3.972   4.270  14.753  0.0150  0.0007 -0.0490
30486W        W31350  18.222   0.020  26.738  0.0623  0.0030  0.1950
30487W        W31351  27.489  21.922   5.330  0.2138 -0.0536 -0.0664
30488W        W31352   6.624  18.704  17.028  0.0806  0.2323 -0.1992
30489W        W31353   3.342   3.620  19.940  0.0090  0.0645 -0.0807
30490W        W31354   7.403  14.887  27.574 -0.0546 -0.0462 -0.0794
30491W        W31355   5.080  17.293   4.689 -0.0485  0.1860 -0.0050
30492W        W31356   7.622   3.777  16.681  0.0208  0.0298 -0.2707
30493W        W31357   6.194  27.465  28.793 -0.1969 -0.1510 -0.4228
30494W        W31358  19.533  17.652  13.584 -0.1721 -0.2162 -0.1964
30495W        W31359  20.071  21.657  27.994 -0.5505  0.0077  0.1384
30496W        W31360  24.962  16.237   7.534  0.0652 -0.2043 -0.0944
30497W        W31361  16.515  21.203  23.272  0.2303 -0.1548 -0.0638
30498W        W31362   3.723  23.150  12.701  0.0742  0.0797  0.3942
30499W        W31363  27.632   8.899  12.868 -0.0543  0.1710  0.0985
30500W        W31364  28.524  25.635   8.729  0.3652 -0.0857  0.0419
30501W        W31365   7.493  22.353   5.797 -0.0641 -0.0625  0.2671
30502W        W31366  28.061  13.761  11.788 -0.3710  0.3365  0.2236
30503W        W31367  11.430   1.634  11.142  0.4960 -0.2088  0.0292
30504W        W31368   1.360  18.107  16.676 -0.0466  0.0495 -0.0722
30505W        W31369  10.167  12.720  26.736 -0.1494  0.2320  0.5204
30506W        W31370  16.292   3.156   6.236  0.1532 -0.1076  0.0135
30507W        W31371   5.923   4.388  19.988 -0.1333 -0.1841 -0.0823
30508W        W31372  21.352  20.469   8.940 -0.1859 -0.2217  0.0260
30509W        W31373  15.988   2.541   7.380 -0.2572 -0.0974 -0.0187
30510W        W31374  12.442   5.521   8.283  0.0841  0.1569  0.1961
30511W        W31375  10.898  18.832  17.880 -0.0882  0.0535  0.1691
30512W        W31376   7.169  26.554   3.700 -0.2275  0.1264 -0.1236
30513W        W31377  13.629  20.565  18.605  0.0413  0.1825 -0.0543
30514W        W31378  26.413  18.517  23.030 -0.0639  0.1079  0.1006
30515W        W31379   3.027   2.474  22.657 -0.0453 -0.0417 -0.1934
30516W        W31380  22.222   1.464  28.321 -0.1373  0.3925 -0.0763
30517W        W31381   0.601   2.232   1.458  0.0764  0.0881  0.1539
30518W        W31382  26.777   3.237   8.679  0.0954  0.0141  0.0786
30519W        W31383   9.813   4.432  10.171  0.0874 -0.1364 -0.0919
30520W        W31384  23.113  11.063  12.624  0.0724  0.3140  0.0064
30521W        W31385   1.073  18.009   2.752  0.0089 -0.1548 -0.1496
30522W        W31386  10.051   6.170   3.730 -0.1588 -0.0775  0.4963
30523W        W31387  26.261  19.311   2.947 -0.0235  0.2070 -0.1128
30524W        W31388   6.316  17.047   4.110  0.3195  0.1294 -0.1223
30525W        W31389   7.822   4.391   9.808 -0.3511  0.1198  0.1275
30526W        W31390  24.419   0.598  13.503 -0.1564 -0.0026 -0.3198
30527W        W31391  15.902   8.023  15.121 -0.2795  0.1480  0.0294
30528W        W31392   9.839  10.608   8.211  0.0840 -0.2043  0.0438
30529W        W31393   6.681  10.851  14.081  0.1428 -0.0003  0.2099
30530W        W31394  11.941  27.672  24.772  0.4420 -0.2373 -0.0855
30531W        W31395   9.353  14.169  27.681 -0.1196 -0.0504 -0.0227
30532W        W31396  26.126   4.024  13.506  0.1102  0.3121 -0.1958
30533W        W31397   7.392   4.757  13.073  0.0880  0.1077 -0.0338
30534W        W31398  18.523   3.975  11.557  0.0092 -0.0329  0.0013
30535W        W31399  26.329  16.649  28.307 -0.2624  0.4930 -0.1319
30536W        W31400   1.871  18.717   7.686  0.0954 -0.1176 -0.1030
30537W        W31401  23.607   0.883   0.668  0.1955  0.1253 -0.2296
30538W        W31402  24.614  24.006   3.808  0.0321  0.1051 -0.2495
30539W        W31403  23.372   4.515  17.635 -0.0893 -0.0962  0.2916
30540W        W31404  10.003   3.385  14.351 -0.1482  0.1432  0.0881
30541W        W31405  24.818  13.239  12.408 -0.3288 -0.2377 -0.0841
30542W        W31406   7.276   8.358  20.381  0.0748  0.0665 -0.0433
30543W        W31407   8.908  12.859  16.543 -0.0573  0.1062  0.0868
30544W        W31408  15.708  26.948   3.608 -0.0021 -0.3385  0.0256
30545W        W31409  23.438  24.144  12.880  0.2607 -0.0171 -0.3243
30546W        W31410  12.642  28.803   9.326  0.1665  0.4263 -0.1692
30547W        W31411  18.116  11.271   6.325  0.0551 -0.0208  0.0474
30548W        W31412  14.560   9.303  14.340 -0.0977  0.1626 -0.0790
30549W        W31413  15.177  21.017  20.699  0.0601 -0.1113  0.1710
30550W        W31414   1.000   6.438  11.460 -0.0432  0.0989  0.2373
30551W        W31415  13.600   7.175  23.304  0.0538 -0.0631 -0.1413
30552W        W31416   4.443  19.440   3.781  0.0970  0.1228 -0.0531
30553W        W31417   0.944  22.335  21.040  0.1893 -0.2034  0.0039
30554W        W31418  28.582   2.344   6.406  0.0065  0.1136 -0.1089
30555W        W31419  12.389  11.922  13.370  0.0440  0.0435  0.1857
30556W        W31420  12.207   6.531  15.844  0.2273 -0.0218 -0.0968
30557W        W31421  22.670   7.216  18.906  0.1000 -0.0869 -0.0956
30558W        W31422   4.136   1.612   7.360  0.2322  0.1719  0.1418
30559W        W31423   0.469  25.100  19.910  0.1588 -0.2163 -0.0175
30560W        W31424  20.094   4.021   6.759  0.0503 -0.2806 -0.0685
30561W        W31425   4.613   3.127   8.144 -0.1698  0.2149 -0.2546
30562W        W31426   5.220  22.003  11.230  0.4289 -0.0154  0.2169
30563W        W31427  22.440   7.490  17.952  0.1731  0.1668 -0.0561
30564W        W31428   5.705   2.905   2.870 -0.1434  0.3090  0.3670
30565W        W31429  26.935   6.542  19.345  0.0388  0.0788 -0.0343
30566W        W31430  15.507   4.140  13.425  0.1702  0.0054 -0.0903
30567W        W31431  22.761  13.346  12.860 -0.1953  0.2153 -0.0675
30568W        W31432   0.076  25.689  10.141 -0.2420  0.0823  0.5378
30569W        W31433  15.394  17.467  11.364 -0.2207  0.0966 -0.1902
30570W        W31434  14.285  26.399  24.391  0.0843  0.0206  0.1927
30571W        W31435   0.190   3.977  22.324 -0.0923 -0.0913 -0.1409
30572W        W31436  17.129  20.778   5.655  0.2714  0.1120  0.2168
30573W        W31437  16.420   2.956   1.551  0.2209 -0.1795  0.0331
30574W        W31438  28.534   9.661  22.543  0.2681 -0.0432 -0.0262
30575W        W31439  27.518  24.643   0.626  0.0580  0.4070 -0.2679
30576W        W31440   5.101   2.578  26.679 -0.0239  0.2857 -0.2681
30577W        W31441  16.408  25.207   2.191  0.1254  0.5200  0.0310
30578W        W31442  11.723  27.847   2.985  0.0517  0.1040  0.1825
30579W        W31443   4.793  14.650  18.422  0.2094 -0.0877  0.0593
30580W        W31444   0.880  19.118  20.107  0.1149  0.1052 -0.0347
30581W        W31445   4.572   8.576  28.155 -0.1997 -0.3859 -0.1811
30582W        W31446  14.472  12.599   1.596 -0.3455  0.0483 -0.0958
30583W        W31447  21.879  10.373  17.322 -0.2388  0.0275 -0.0819
30584W        W31448   0.759   0.959  20.743  0.1921 -0.0643  0.1053
30585W        W31449   8.526  27.569  13.797 -0.0025 -0.1247 -0.3870
30586W        W31450   0.142  19.155  12.854  0.0519 -0.0663  0.3303
30587W        W31451  11.346  25.043  20.496 -0.1362 -0.0525 -0.2186
30588W        W31452  20.958  10.989  17.646 -0.0263  0.1227 -0.2983
30589W        W31453   9.800   3.739   7.286 -0.1384 -0.0155 -0.2019
30590W        W31454  24.542  23.485   0.929  0.0825 -0.0023  0.0290
30591W        W31455  28.409  24.637  22.941 -0.1851  0.1720 -0.1547
30592W        W31456  14.205   1.229  12.242  0.0892 -0.1175 -0.0366
30593W        W31457   4.061   0.190   8.780 -0.0702  0.1177 -0.2929
30594W        W31458  16.196  27.912  19.308  0.0595  0.1935 -0.1753
30595W        W31459   6.882  24.993  11.838  0.1866  0.2422  0.1515
30596W        W31460   2.414  12.259  15.507  0.0690  0.0841 -0.1419
30597W        W31461  22.035  28.814   1.633  0.3995  0.2917  0.0375
30598W        W31462   2.597   6.470   9.801  0.2258 -0.1144  0.0849
30599W        W31463  12.746  27.161   3.802 -0.3201  0.1672 -0.1233
30600W        W31464  11.006   7.329   5.948  0.1547  0.0123 -0.0970
30601W        W31465   1.546  24.130  20.591  0.1238 -0.3058  0.1292
30602W        W31466  26.270   2.874  12.900  0.0238  0.0197  0.0103
30603W        W31467  14.272   7.458   2.368 -0.1790  0.3715  0.0833
30604W        W31468  20.663   0.648   5.898 -0.1479 -0.1568  0.3385
30605W        W31469  12.762  19.164  20.584  0.2361 -0.1392 -0.0079
30606W        W31470  26.276  22.468   9.777 -0.1652 -0.0077 -0.0132
30607W        W31471  25.073  18.554  26.755  0.0903 -0.0396 -0.2109
30608W        W31472   4.984  17.458   9.458  0.0013  0.1109  0.0915
30609W        W31473  19.594  12.345  23.495 -0.1710 -0.1890 -0.2448
30610W        W31474   2.786   4.692  20.070  0.1950  0.0150  0.3896
30611W        W31475   5.677  19.699   8.065 -0.3062  0.2183  0.0299
30612W        W31476  11.358  25.830  19.832 -0.1484 -0.1666 -0.1453
30613W        W31477   6.533   3.990  25.679 -0.1747 -0.3821 -0.0915
30614W        W31478  28.490  25.145   8.711  0.2835 -0.1277 -0.4233
30615W        W31479  22.935   9.624  21.047  0.2405  0.3976 -0.1983
30616W        W31480  19.676  13.273  15.501 -0.4050  0.0107 -0.1102
30617W        W31481  27.177   9.219   8.189  0.0821 -0.1006  0.0244
30618W        W31482  16.414   2.423  24.747  0.1321  0.2167 -0.1574
30619W        W31483  21.247   7.173  23.735 -0.0520  0.2896 -0.0330
30620W        W31484   1.125  12.510  13.985  0.0232 -0.0658  0.1529
30621W        W31485   3.445  24.287  10.105 -0.3310 -0.2314 -0.2325
30622W        W31486   9.401  18.415  22.102  0.4502 -0.1106  0.1552
30623W        W31487  22.624  12.554  15.533 -0.1106 -0.1326 -0.0506
30624W        W31488  16.667   5.523  14.343  0.0918 -0.2885 -0.0047
30625W        W31489   2.614  11.162  22.337 -0.2189  0.1525 -0.1890
30626W        W31490   2.623  17.963  20.133  0.0352 -0.0404 -0.2541
30627W        W31491  18.079   0.317   3.927 -0.3437 -0.0250 -0.0204
30628W        W31492  20.180  27.170  10.282 -0.0543 -0.3237 -0.2158
30629W        W31493  16.377  13.520   8.560 -0.2307  0.1992 -0.0499
30630W        W31494   2.786  12.759  15.144  0.0499  0.0886  0.0386
30631W        W31495   9.962   5.389  27.603  0.1510 -0.1159  0.3809
30632W        W31496  21.665   8.805  10.772 -0.4155  0.0590 -0.0863
30633W        W31497  19.755   7.147  19.060 -0.1811 -0.3154 -0.0516
30634W        W31498  16.121   3.824  21.325  0.0555  0.1315 -0.1243
30635W        W31499  24.095  11.399  13.651 -0.0611 -0.2700  0.0269
30636W        W31500  27.469  11.201  17.305  0.1198  0.0754 -0.1472
30637W        W31501   5.098  17.274   4.158  0.1673 -0.2148  0.2636
30638W        W31502  19.473  13.251  20.024 -0.3766  0.2675  0.0426
30639W        W31503  18.566  27.417   6.951  0.0269  0.0555 -0.0528
30640W        W31504  16.835  21.599  12.540  0.0291  0.2161  0.1181
30641W        W31505   5.958   1.210  11.868 -0.2085 -0.0118 -0.1134
30642W        W31506   8.162   5.142   5.793  0.0600  0.0145  0.2057
30643W        W31507   8.220  27.387  21.063  0.1095  0.0684 -0.0788
30644W        W31508   4.016   9.899  11.540  0.2152  0.0010  0.3171
30645W        W31509  12.311  22.776  15.633  0.2175 -0.1433 -0.4430
30646W        W31510  20.533  21.237   7.732  0.0365 -0.3767  0.3554
30647W        W31511  15.570  12.118  19.311 -0.1563  0.0022  0.0623
30648W        W31512   4.051   1.955   9.398  0.0927 -0.0808  0.0217
30649W        W31513  11.724   5.901  13.434 -0.0925  0.0031  0.2853
30650W        W31514  13.384  20.341  16.258  0.1945  0.1700  0.0334
30651W        W31515   4.428   8.968  26.405  0.2798 -0.1177  0.2086
30652W        W31516  14.275  16.739  25.104  0.0932 -0.0565  0.4183
30653W        W31517  25.504   0.268  15.869 -0.6205  0.0746 -0.3911
30654W        W31518   1.894   3.191  18.321 -0.0153  0.1838 -0.0150
30655W        W31519  17.203  26.399  15.977 -0.0104  0.1608 -0.1397
30656W        W31520  20.350  10.547  11.602 -0.0209  0.4328 -0.1422
30657W        W31521  17.243  18.736  19.190 -0.0310  0.1319  0.2153
30658W        W31522  25.050  25.133  18.071  0.0689  0.3720  0.0151
30659W        W31523   6.655  25.660   8.182 -0.0911 -0.2687  0.0644
30660W        W31524   3.827  13.949  26.120 -0.0381 -0.0480 -0.2594
30661W        W31525  17.587  15.203  25.151 -0.0606  0.0742  0.0764
30662W        W31526   6.381  20.671   7.475  0.0851 -0.4397 -0.0625
30663W        W31527   9.958  28.441   9.145 -0.1867  0.1150 -0.1502
30664W        W31528   8.802  17.211  18.360 -0.0484  0.0482  0.0398
30665W        W31529   5.007   2.879  17.759 -0.1774 -0.1953  0.1986
30666W        W31530   2.407   9.388  18.722  0.3496  0.1623  0.3231
30667W        W31531  25.081  28.740  18.029  0.3075 -0.0958 -0.1074
30668W        W31532   8.331   1.446   8.838  0.1606  0.0575  0.1882
30669W        W31533   9.464  20.897   6.242  0.3947 -0.4097 -0.0974
30670W        W31534  21.473  18.190   2.809  0.1208  0.0964  0.2474
30671W        W31535  19.354  16.214  28.902  0.0955 -0.2222 -0.1333
30672W        W31536   0.032  21.003  13.565 -0.1104 -0.3332  0.1981
30673W        W31537  18.079  14.026  11.833  0.1416 -0.0216 -0.2122
30674W        W31538   1.822   6.535  20.917  0.2745 -0.2460  0.3477
30675W        W31539   7.235  10.397  13.597 -0.0172  0.1134  0.2716
30676W        W31540   7.885   3.493  13.219 -0.2214  0.1666 -0.0828
30677W        W31541   8.335  22.457  14.679 -0.3773 -0.0860 -0.0817
30678W        W31542  23.151  21.448   0.655  0.2268 -0.1064  0.2628
30679W        W31543   9.959  20.873   5.898  0.1249  0.2469  0.0028
30680W        W31544   6.292  13.440   3.617 -0.2374  0.0605  0.0282
30681W        W31545  23.230   3.798  27.192  0.0584  0.2926  0.0705
30682W        W31546   6.408   8.141  24.814 -0.1089 -0.0610  0.2008
30683W        W31547   4.289  16.472   0.177  0.1753 -0.1304 -0.2125
30684W        W31548  22.613   0.878  23.348  0.0678  0.2033 -0.2977
30685W        W31549  19.894  15.454  19.008  0.0623 -0.1473  0.2708
30686W        W31550  25.393   2.992  10.260 -0.2249  0.2708  0.0506
30687W        W31551  28.166   1.662   0.183 -0.0337 -0.2823 -0.2770
30688W        W31552   1.027  11.032  28.283  0.0533 -0.0955 -0.3889
30689W        W31553   3.208  29.061   8.710  0.0321 -0.5698  0.0299
30690W        W31554   2.124   0.864  13.353  0.0341  0.0997  0.1793
30691W        W31555   2.556   5.895   9.751  0.0262  0.0812 -0.0768
30692W        W31556   0.020  26.845   1.198  0.0721 -0.2591 -0.0841
30693W        W31557  15.661   8.613  21.437  0.2652 -0.0780  0.1035
30694W        W31558  11.740   2.550  18.801  0.0613  0.2296  0.0854
30695W        W31559   9.848   6.389  25.957  0.0441 -0.0570  0.0191
30696W        W31560   8.005   1.562   6.173 -0.0478 -0.2591  0.1007
30697W        W31561   6.627  27.365   5.174  0.0328 -0.3721 -0.2019
30698W        W31562   1.877   9.331  25.457  0.1793  0.3053  0.2620
30699W        W31563  25.713   2.574  25.008 -0.1007  0.0300 -0.3912
30700W        W31564  13.047  27.929   2.687  0.0871 -0.0044 -0.1632
30701W        W31565  13.180   2.435  15.007 -0.0210  0.1198  0.1598
30702W        W31566   5.744  14.149   5.651  0.3750 -0.0085  0.0454
30703W        W31567   1.493  10.335  11.949 -0.1674  0.2489 -0.1329
30704W        W31568   6.351  15.334  11.982  0.1883  0.2899  0.1654
30705W        W31569   3.279  24.311  18.896 -0.1045 -0.0266 -0.1817
30706W        W31570   2.190  18.332  14.284  0.0049 -0.2503  0.0492
30707W        W31571   9.614  17.536   4.015  0.0768 -0.2029  0.2888
30708W        W31572  11.686   1.784   0.507  0.1550 -0.1574  0.1347
30709W        W31573  14.452  10.690  17.166 -0.3100  0.3853 -0.0058
30710W        W31574   0.607  21.748   4.807  0.0755  0.0957 -0.2252
30711W        W31575  13.938   0.320  16.525  0.0386  0.0408 -0.0260
30712W        W31576  22.059   4.061  14.414 -0.1535  0.0337  0.1197
30713W        W31577  28.773  14.199  16.739 -0.1472  0.0870  0.1590
30714W        W31578  13.392   5.266  16.741 -0.1297 -0.2240  0.0955
30715W        W31579  27.734   8.066  21.152 -0.0117 -0.0288 -0.2792
30716W        W31580   5.329   3.078  19.414 -0.1553  0.1411  0.0637
30717W        W31581   7.456  24.349  25.029 -0.1086 -0.1419 -0.1116
30718W        W31582   7.556   3.910  25.572  0.0160 -0.0383 -0.3021
30719W        W31583  10.558   6.192  14.346 -0.1444 -0.0011  0.1241
30720W        W31584   1.564   3.669  21.941 -0.1340  0.1140 -0.1316
30721W        W31585  21.819  11.126   4.287  0.0005  0.0970  0.5172
30722W        W31586  10.824   2.947  13.719 -0.0223  0.0854 -0.0729
30723W        W31587  11.386  15.373  17.291 -0.0377 -0.0949  0.0029
30724W        W31588   8.893   2.620  21.552 -0.1938  0.1232  0.1790
30725W        W31589   7.918  12.570  13.507 -0.3201 -0.0492  0.0712
30726W        W31590  11.231  21.322   7.186 -0.0616  0.0656 -0.0152
30727W        W31591   5.756   5.921  25.438 -0.1207  0.3105  0.2239
30728W        W31592  10.811  22.358  19.560 -0.2333 -0.0495 -0.1281
30729W        W31593  23.351   1.998  25.536  0.0873 -0.0340 -0.1771
30730W        W31594   2.423   7.852  21.300  0.0860  0.0727  0.1039
30731W        W31595  15.026   6.563  23.987 -0.0917 -0.2607 -0.0521
30732W        W31596  19.350   3.177  13.955  0.0782  0.1473  0.1769
30733W        W31597  12.514   5.931  23.122  0.1686 -0.2722  0.0761
30734W        W31598  14.328   0.061   9.518  0.1478 -0.0489  0.1614
30735W        W31599  22.207  11.446   7.861  0.0293 -0.3556 -0.0037
30736W        W31600  11.423  12.504  11.375 -0.3751  0.2574  0.0518
30737W        W31601  13.902   0.451   3.782  0.2731 -0.3517  0.1307
30738W        W31602   4.320  14.978   8.258  0.1051  0.0016 -0.0861
30739W        W31603  15.846   0.295  12.359 -0.1877  0.0104 -0.1058
30740W        W31604  27.180  25.995  27.484  0.0277  0.0545  0.4367
30741W        W31605  22.970   3.831   8.817  0.0633 -0.1405 -0.1327
30742W        W31606  21.267   3.078  17.606  0.0885 -0.1434 -0.6078
30743W        W31607   9.447   4.039  20.400  0.0210 -0.1226  0.2157
30744W        W31608  23.571  26.727   5.594 -0.0654  0.0985 -0.0484
30745W        W31609   4.860  26.251  15.607 -0.1237 -0.0082  0.1659
30746W        W31610   5.637  10.236  18.695 -0.3494  0.1046  0.1090
30747W        W31611   2.522   6.072  28.214 -0.1171 -0.2879 -0.0074
30748W        W31612  14.570   9.871  20.694 -0.0144 -0.1261 -0.0774
30749W        W31613   0.595  11.957  19.029  0.1364 -0.3279 -0.1568
30750W        W31614   7.600  24.683   8.973  0.2704 -0.0141  0.3534
30751W        W31615  13.489  29.020   9.226 -0.1864 -0.0560 -0.2141
30752W        W31616   5.747   6.472   5.830  0.2108 -0.4471  0.1149
30753W        W31617   6.708  27.611  11.480 -0.3200  0.3791  0.0710
30754W        W31618  25.206   4.262   6.290  0.1580 -0.2303 -0.1668
30755W        W31619  24.821  21.180   7.675  0.0057 -0.0974  0.0943
30756W        W31620   0.250  17.394   4.149  0.2128 -0.0327 -0.0545
30757W        W31621   2.875  27.522  14.146  0.2712  0.3653  0.0373
30758W        W31622  13.218  27.305  27.021 -0.0627  0.1261 -0.0829
30759W        W31623  25.323  21.446  11.249 -0.0343  0.2916 -0.1008
30760W        W31624   1.754   0.718  20.133  0.2546 -0.1050  0.0077
30761W        W31625  18.361   8.581  19.478 -0.0203 -0.0010 -0.0817
30762W        W31626  20.146   5.416  10.602 -0.1007  0.1067 -0.3586
30763W        W31627  13.804   0.517   8.055 -0.0944 -0.1149  0.1953
30764W        W31628   8.508   5.440  18.650  0.0204 -0.0949  0.2382
30765W        W31629  12.525  12.879  21.566 -0.1716  0.3360 -0.0015
30766W        W31630  26.894  14.555  26.497  0.0019  0.1810 -0.2845
30767W        W31631  23.289  20.148  20.806  0.2182 -0.2275  0.1064
30768W        W31632  19.575  12.265   2.690 -0.2249  0.2291 -0.0266
30769W        W31633   9.483   0.585   0.648  0.0930  0.1337  0.2346
30770W        W31634  22.927   0.570  22.494 -0.0634  0.0958 -0.2770
30771W        W31635  19.312  27.185  19.014  0.0529  0.1937  0.3109
30772W        W31636   4.406  20.304  11.507  0.3249  0.1231 -0.1406
30773W        W31637   3.109  11.895  16.213  0.0203  0.4032 -0.0270
30774W        W31638  11.814  25.267  16.473 -0.0593  0.1314 -0.0749
30775W        W31639  15.935   2.743  18.079  0.1059  0.1817 -0.0179
30776W        W31640  25.352   0.040  17.962  0.1391 -0.0212 -0.2579
30777W        W31641  13.527  18.227   6.935 -0.1913 -0.3148  0.3851
30778W        W31642  19.171  26.148  19.762  0.0389 -0.2758 -0.1008
30779W        W31643  26.791  20.232  10.478  0.0385  0.1094 -0.1498
30780W        W31644  11.004  28.640  22.080  0.4847 -0.3258 -0.2533
30781W        W31645   9.668  19.915  18.519 -0.1068 -0.0045 -0.0693
30782W        W31646   6.951  12.403  15.595 -0.2295 -0.1976  0.1679
30783W        W31647  12.567  21.588  12.657 -0.0228  0.1747  0.0495
30784W        W31648   3.451  26.407  23.310 -0.0742  0.0803  0.2896
30785W        W31649  12.611  23.814  10.969 -0.2591 -0.0514 -0.1684
30786W        W31650  19.247  27.846  14.537 -0.2742  0.1033 -0.0476
30787W        W31651  10.681   3.794  27.556 -0.0635 -0.1918 -0.1463
30788W        W31652  13.652  16.914  14.250  0.1935 -0.2534 -0.0381
30789W        W31653  12.354  21.610  15.086 -0.0651  0.1284 -0.0922
30790W        W31654  18.118  26.386  15.310  0.5095 -0.2936 -0.2130
30791W        W31655   6.542  20.758  18.835  0.0414  0.3047 -0.1463
30792W        W31656  18.010   0.688  14.328 -0.0022 -0.0579  0.0881
30793W        W31657  28.398  18.824  15.619 -0.0226  0.1237  0.0719
30794W        W31658   3.179  16.501   9.397 -0.0451 -0.3405 -0.0378
30795W        W31659   4.530  24.273   2.744 -0.0442 -0.1349 -0.2123
30796W        W31660   9.302   7.661  12.061 -0.0338 -0.1012 -0.0673
30797W        W31661  18.295  11.002   1.336  0.5500 -0.3370  0.0341
30798W        W31662   8.827  24.477  23.034 -0.2321  0.2123 -0.0553
30799W        W31663  21.057  12.086  11.024 -0.1019  0.0536 -0.0724
30800W        W31664  22.337  20.219  22.546  0.2631  0.0270 -0.0626
30801W        W31665   6.713  16.640  28.118  0.0553 -0.0985  0.1494
30802W        W31666  14.983   5.883  21.399  0.1886 -0.0706  0.0310
30803W        W31667  25.331  23.011  28.673  0.1137  0.1572  0.2567
30804W        W31668  15.090  17.625  26.512 -0.0825 -0.2088 -0.2212
30805W        W31669   1.516   0.603  10.326 -0.3160 -0.1583  0.2983
30806W        W31670  23.448  19.185   3.441 -0.1185 -0.0611 -0.0431
30807W        W31671   5.171  20.391   5.201 -0.3015  0.0807  0.0727
30808W        W31672  29.079  28.130  19.284 -0.1862 -0.0321 -0.0178
30809W        W31673  15.193  14.916   6.268 -0.0826 -0.2182  0.3445
30810W        W31674  22.082   7.700   1.078  0.1049 -0.0443  0.0928
30811W        W31675  21.970  29.051  20.475  0.2971 -0.1883 -0.1840
30812W        W31676   0.899  23.871   5.785  0.0434  0.0626 -0.1629
30813W        W31677  24.971  23.995   8.027  0.0652  0.0150  0.2249
30814W        W31678   4.259   2.971  21.779 -0.0346  0.1283 -0.1709
30815W        W31679  12.068  26.775  27.954  0.0801  0.3517  0.2502
30816W        W31680  12.206   9.721  25.451 -0.0101  0.1056  0.0024
30817W        W31681  25.385   2.457  22.309 -0.3102 -0.1062  0.0939
30818W        W31682   1.536  22.262   2.294 -0.0358  0.0181  0.2827
30819W        W31683  20.378   1.140  20.818  0.0511 -0.1234  0.0162
30820W        W31684   4.633  20.155  14.705 -0.0695  0.0320  0.1584
30821W        W31685  12.622  11.323  21.801  0.0380 -0.1098 -0.1520
30822W        W31686  19.374  24.418  10.933 -0.0535 -0.0553 -0.3536
30823W        W31687  26.099   2.261  28.151 -0.1340 -0.2856 -0.2588
30824W        W31688  23.280  22.814  14.488 -0.0117 -0.1069  0.3084
30825W        W31689  28.851   4.667  25.139 -0.1717  0.2336  0.0373
30826W        W31690  11.605  26.608   6.620  0.2828 -0.0138 -0.0174
30827W        W31691  14.615   3.768  17.053 -0.0720 -0.0711  0.1131
30828W        W31692   5.364   6.778  18.484 -0.2765 -0.0760  0.3057
30829W        W31693   9.208  27.683  15.144 -0.2123  0.2414 -0.1407
30830W        W31694  15.699  23.612  17.904 -0.2047 -0.1095  0.1769
30831W        W31695   6.764   4.505   2.855 -0.0601  0.2705  0.2628
30832W        W31696  28.188   7.525  24.147  0.0425 -0.0360  0.1015
30833W        W31697  13.114   0.294  11.410  0.1197  0.0668 -0.0475
30834W        W31698  22.236  17.019  20.297  0.0727 -0.2895 -0.0014
30835W        W31699  27.024  14.366  24.266 -0.1904  0.1808  0.0193
30836W        W31700   7.716   0.297  26.797  0.3478 -0.1580  0.0468
30837W        W31701  13.117   8.396   3.388  0.0453 -0.0081 -0.3232
30838W        W31702   8.959  23.787  28.354 -0.0415  0.2391 -0.0918
30839W        W31703   0.451   7.505  19.748 -0.1429 -0.3006 -0.0912
30840W        W31704  10.846  23.704  15.044 -0.5385  0.1765 -0.0555
30841W        W31705   8.918  18.915  19.297 -0.2631 -0.2687 -0.2597
30842W        W31706  17.412   9.961   9.315  0.3958  0.2085  0.0839
30843W        W31707  19.492  19.049  14.706 -0.1593 -0.1890  0.1874
30844W        W31708   7.042   5.783  23.063  0.0642  0.0100  0.0262
30845W        W31709  12.342   3.970  10.067 -0.1516 -0.1366 -0.2457
30846W        W31710  16.970   4.532  22.144  0.0464 -0.0174 -0.0509
30847W        W31711  14.416   7.281   5.160  0.0848  0.1085  0.4307
30848W        W31712  21.734  14.497  22.720  0.0512  0.0684 -0.0945
30849W        W31713  19.954  20.816  20.419 -0.0477 -0.1563  0.0679
30850W        W31714   2.839   1.842   2.970  0.2893 -0.0980 -0.1136
30851W        W31715  20.516   1.392  27.856  0.0211  0.2051  0.0588
30852W        W31716  24.942  18.992   7.572  0.0680  0.2148 -0.1043
30853W        W31717   6.292  12.513   4.144  0.1100  0.4264 -0.2492
30854W        W31718  12.591   2.895  23.624 -0.0343 -0.0372 -0.2281
30855W        W31719  20.365   8.124  10.638 -0.3498 -0.0247  0.2485
30856W        W31720  23.962  27.332   3.192  0.3096 -0.1544 -0.1414
30857W        W31721  21.160  28.805   2.616  0.1697  0.1532  0.1039
30858W        W31722  20.165  16.008  16.225  0.0840 -0.0376 -0.0279
30859W        W31723  18.567  25.034  11.183 -0.0117  0.2427 -0.1457
30860W        W31724  20.960  27.907  24.748 -0.1851 -0.1966  0.0807
30861W        W31725   4.187  27.863  22.087  0.2339 -0.1744 -0.0639
30862W        W31726  12.233   4.479   0.418  0.0512  0.0469  0.4168
30863W        W31727   4.260   7.709   1.479 -0.1897  0.3743  0.1243
30864W        W31728   4.828  17.816  17.913 -0.4630  0.1077 -0.0863
30865W        W31729  10.432   6.829  14.233  0.1664  0.0979 -0.1065
30866W        W31730   3.026  24.291  14.347 -0.0559 -0.2130 -0.1225
30867W        W31731   4.266  24.093   6.855 -0.0734 -0.1227 -0.0247
30868W        W31732  28.146  11.132   1.855 -0.0572 -0.1845 -0.2481
30869W        W31733  14.670  26.402  13.356 -0.0520  0.2315 -0.3612
30870W        W31734   6.140   4.798  24.222 -0.1135 -0.1049  0.2356
30871W        W31735   1.431  14.149   8.589 -0.2354 -0.1431  0.1398
30872W        W31736  16.116   0.816   9.575 -0.0358  0.0308 -0.3028
30873W        W31737  24.014   1.429  18.243  0.1130  0.0471  0.2645
30874W        W31738  21.911  24.054  14.836  0.1278 -0.1575 -0.1366
30875W        W31739  19.426   3.881  27.505  0.3672  0.1157  0.2970
30876W        W31740  14.061  25.267   0.301  0.2041 -0.0345  0.1138
30877W        W31741   0.628  23.227  14.385 -0.1766 -0.0388  0.1832
30878W        W31742   8.943  22.241   1.486 -0.1561 -0.3806  0.0814
30879W        W31743  22.945   3.438  14.044  0.0071  0.0858  0.1040
30880W        W31744  22.384  20.548  12.762 -0.0476  0.1003 -0.1346
30881W        W31745   6.484  20.800  14.765  0.0821  0.0030  0.1299
30882W        W31746  19.963  25.999  11.822  0.3661  0.1052 -0.0412
30883W        W31747  20.304   8.830  18.555  0.0381  0.1415 -0.1442
30884W        W31748  20.544  16.205  10.929  0.0431  0.1082 -0.2867
30885W        W31749  27.816  26.671  23.681 -0.1069  0.3081 -0.0375
30886W        W31750  10.695  28.544  13.452  0.2062  0.1304  0.1522
30887W        W31751   6.097   6.782  22.123 -0.2102  0.2892  0.0326
30888W        W31752   1.047  10.221   7.972 -0.3648 -0.4185 -0.2644
30889W        W31753  16.163   1.344  23.656 -0.1044  0.0654  0.1010
30890W        W31754  20.498  12.363  23.089  0.0025  0.0928 -0.3028
30891W        W31755  17.358  28.641  18.074 -0.1633  0.0426 -0.1040
30892W        W31756  13.138   5.210  12.207  0.0355 -0.1725  0.1055
30893W        W31757   6.915   5.007   0.508  0.2818 -0.1130  0.2599
30894W        W31758   8.047  21.055  14.879  0.0097 -0.0786  0.0894
30895W        W31759   7.928  28.329   4.368  0.2068 -0.0508  0.0024
30896W        W31760  16.340  20.769  16.410  0.3632  0.2098 -0.0894
30897W        W31761   4.326   3.678  19.600  0.0393 -0.0812 -0.0425
30898W        W31762  12.869  11.085  14.404 -0.0509  0.1732  0.2499
30899W        W31763  11.230   8.083   1.722  0.1561 -0.1465 -0.3438
30900W        W31764   1.533  17.662   3.638  0.1834  0.1387  0.0556
30901W        W31765  16.158  24.645  19.287 -0.2597 -0.1068 -0.0193
30902W        W31766  19.536   9.399  11.730 -0.1723 -0.2824 -0.1251
30903W        W31767  17.752   5.790  14.588 -0.1585  0.2462  0.0183
30904W        W31768  13.282  12.995  19.015 -0.0580  0.0942  0.2833
30905W        W31769  26.760  21.430  13.505 -0.3442 -0.0478 -0.3281
30906W        W31770  22.289   0.089   4.648 -0.0011  0.3640 -0.2070
30907W        W31771  28.700  20.398  14.117  0.1179  0.0308 -0.2811
30908W        W31772   9.777  15.271  12.211 -0.0533 -0.1192  0.1837
30909W        W31773   8.413   7.412  13.675 -0.1740  0.0171 -0.1585
30910W        W31774  28.659   4.067  17.515 -0.1543  0.2717 -0.0868
30911W        W31775  10.859  11.605   4.210 -0.2360 -0.2193  0.0580
30912W        W31776  27.896   8.601  22.029  0.1202 -0.0448  0.2379
30913W        W31777  28.386  12.200  20.703 -0.0848 -0.0477 -0.1490
30914W        W31778  18.013  26.755  21.861  0.2439 -0.0658 -0.1842
30915W        W31779  25.203   3.469  26.937  0.1094 -0.0262  0.1952
30916W        W31780   7.340  12.637   8.745  0.1332  0.1498 -0.2050
30917W        W31781  23.757   3.441   4.372 -0.3050  0.2016 -0.0207
30918W        W31782  14.458  15.703  14.221 -0.1278 -0.0124 -0.3589
30919W        W31783  14.319  27.560  19.106  0.2665  0.2287 -0.0570
30920W        W31784   4.141  13.567  17.295  0.0689 -0.1509  0.0440
30921W        W31785   2.174  15.108   9.258  0.1994 -0.2682 -0.0971
30922W        W31786  23.753   6.700  18.206 -0.0804  0.2712  0.0364
30923W        W31787   9.503   4.059  21.755  0.0482  0.5325 -0.0913
30924W        W31788  21.976  15.027  19.043 -0.3266 -0.0220  0.0014
30925W        W31789  12.062  11.100   2.294 -0.1305  0.1143  0.2939
30926W        W31790  15.562  12.757  18.103 -0.0105 -0.1607  0.1531
30927W        W31791   3.458  18.690  18.845 -0.1105 -0.1554  0.2575
30928W        W31792  28.560  22.061  27.445 -0.0172 -0.3954 -0.2409
30929W        W31793  10.442   1.525   4.849 -0.0352  0.1362  0.0235
30930W        W31794   2.696  22.026  26.354  0.0649 -0.2701 -0.1045
30931W        W31795  13.443  28.871  18.207 -0.1212  0.2363 -0.1509
30932W        W31796  27.888  12.109  14.269  0.2206 -0.1973  0.0327
30933W        W31797  25.429  18.916  19.690  0.2132  0.2281 -0.0593
30934W        W31798   7.504  18.355  20.376  0.0884 -0.1819 -0.1002
30935W        W31799   3.236   3.220  23.129  0.0077 -0.1838 -0.1074
30936W        W31800  11.041  13.416  13.280 -0.1908  0.1111 -0.0496
30937W        W31801   7.520  18.383  22.717  0.1089  0.0764  0.1264
30938W        W31802   2.109  12.582  26.791 -0.2689  0.1162 -0.1003
30939W        W31803  27.106   3.731  23.366 -0.1626  0.1487 -0.0374
30940W        W31804  28.712  28.843   4.716 -0.0191  0.2672 -0.3422
30941W        W31805   1.402  23.040  12.307 -0.0694  0.1295 -0.0907
30942W        W31806   1.997  20.201  18.796 -0.1686  0.2050  0.0928
30943W        W31807  25.902  18.038  14.541 -0.0804 -0.0264  0.0370
30944W        W31808   1.697   6.661  23.234 -0.0105 -0.1283  0.0788
30945W        W31809  22.353   5.101   7.182  0.0916  0.0533  0.2890
30946W        W31810   3.102   7.292   3.736  0.0918 -0.3226  0.0983
30947W        W31811  11.222   4.977   7.639 -0.0525  0.1565  0.0830
30948W        W31812  11.844  17.436  21.793  0.0875  0.1939 -0.3094
30949W        W31813   2.838  25.238  23.313  0.0193  0.1104  0.3672
30950W        W31814   6.339   9.350  20.536 -0.0012 -0.2545  0.2442
30951W        W31815  16.524  28.280  17.908 -0.2060  0.2759  0.1220
30952W        W31816  15.642  23.054   4.373  0.2311  0.0442  0.2892
30953W        W31817  23.348  19.612   3.890  0.0410 -0.1590 -0.4319
30954W        W31818  15.669  24.778  24.190 -0.0857 -0.4623  0.1039
30955W        W31819   5.326  22.078  15.118 -0.0709  0.2098  0.0431
30956W        W31820   2.985  11.988   2.886  0.2048 -0.1264 -0.0661
30957W        W31821  14.019   3.203  20.585  0.1006 -0.0199  0.0117
30958W        W31822  12.173  27.073   0.039  0.4061  0.0678 -0.1004
30959W        W31823   4.402   0.541  14.023  0.0922  0.0973  0.0510
30960W        W31824   8.226   7.682  16.549  0.1824  0.3270  0.3052
30961W        W31825  14.671   8.031   8.402 -0.3818 -0.2974  0.2316
30962W        W31826  17.687  26.347  15.973 -0.2851 -0.1123  0.0389
30963W        W31827  24.184   9.264  26.989 -0.2575 -0.2624  0.1900
30964W        W31828   3.830   5.555  25.346 -0.0287 -0.2401  0.0099
30965W        W31829  27.008  21.275  21.888 -0.1212 -0.0256  0.1575
30966W        W31830   2.365  10.345  12.077  0.0068  0.0412  0.2465
30967W        W31831  22.691   3.201  16.552  0.1942 -0.0538 -0.3207
30968W        W31832  14.745  21.183   9.870 -0.1422 -0.2122  0.0756
30969W        W31833   3.934  10.954  28.115 -0.1304  0.4051  0.2052
30970W        W31834   7.556  21.170   7.137  0.0171 -0.0715  0.1159
30971W        W31835  28.761  25.723  14.020 -0.1448  0.2888 -0.1562
30972W        W31836  25.620  12.945  13.032 -0.0573 -0.0632  0.0514
30973W        W31837   4.266  23.772   4.007 -0.1767 -0.1164  0.1225
30974W        W31838  24.162  26.091  19.940  0.0895 -0.0673  0.0302
30975W        W31839   0.343  10.526   1.118  0.1326  0.0454 -0.0590
30976W        W31840  26.766  27.187  16.664  0.2733  0.2071 -0.1370
30977W        W31841   6.061  24.562   7.488 -0.1491 -0.0825  0.1658
30978W        W31842   9.228  10.932  18.620  0.0778 -0.0891 -0.0203
30979W        W31843   4.057   6.269  18.787  0.0336  0.0477  0.0387
30980W        W31844   9.952  26.763  10.939  0.2360 -0.0922  0.0626
30981W        W31845  14.574   2.039   4.817  0.1189  0.0610  0.0137
30982W        W31846  28.178   2.595  15.714 -0.1423  0.0688 -0.0012
30983W        W31847  10.132  26.721  16.089 -0.2155 -0.1361 -0.2182
30984W        W31848  28.535  12.333   6.630  0.2165 -0.2127 -0.2452
30985W        W31849  22.525  23.603  20.833  0.0051 -0.0589  0.2185
30986W        W31850  28.885  13.179  13.009  0.0662 -0.0179  0.0500
30987W        W31851   1.036  15.918  18.906  0.0367 -0.0555  0.0069
30988W        W31852   6.294   4.662  19.055 -0.3644  0.0245  0.1443
30989W        W31853  24.195  13.712  27.785 -0.0895  0.2872 -0.1643
30990W        W31854  15.112   7.183  21.035 -0.1803  0.0586 -0.2843
30991W        W31855   2.299  25.362   9.937  0.0971  0.0381 -0.1659
30992W        W31856   2.544   4.502  17.426  0.0224 -0.0464  0.1133
30993W        W31857  25.941  16.768  21.170 -0.1234  0.1271  0.0489
30994W        W31858  10.854  24.265  29.135  0.1496  0.0311 -0.0042
30995W        W31859  21.151  24.324   8.199  0.1005 -0.1043 -0.3008
30996W        W31860  14.270  16.649  24.202 -0.0234 -0.0326  0.5245
30997W        W31861  18.290  15.112   3.781  0.0880  0.0713  0.0440
30998W        W31862  12.224   8.018   7.697 -0.1019 -0.1102 -0.1046
30999W        W31863  25.352  26.788  28.165 -0.0264 -0.1271 -0.1831
31000W        W31864   0.079  19.550   3.980 -0.0099 -0.0610 -0.1366
31001W        W31865  27.011   5.933   0.433  0.0449 -0.2796 -0.0683
31002W        W31866   2.657  28.097   6.894 -0.0821  0.2458  0.0149
31003W        W31867   3.647   4.053   1.191  0.1892 -0.1145  0.2320
31004W        W31868   7.617   9.374  21.903 -0.0916  0.1933  0.0101
31005W        W31869   2.761   9.198  19.663  0.1396 -0.0458  0.2323
31006W        W31870   4.963  22.861  18.448  0.2580 -0.0662  0.4417
31007W        W31871  17.454  23.629  18.037 -0.0139  0.2564  0.1454
31008W        W31872  19.130  12.105  11.098 -0.1908  0.0468  0.2722
31009W        W31873  20.878  26.538   4.617  0.0410  0.2914  0.0245
31010W        W31874  21.067  18.887  10.344 -0.0367 -0.1275  0.1233
31011W        W31875  16.457  23.080  16.603 -0.2569  0.3862  0.0029
31012W        W31876  15.360  15.092  22.546  0.0880 -0.0484 -0.0400
31013W        W31877  10.867   7.882   7.845  0.2227 -0.0799  0.1997
31014W        W31878   2.007   3.908   6.250  0.1634 -0.0303  0.2100
31015W        W31879   3.439  28.559  27.578 -0.1510  0.0753 -0.0514
31016W        W31880   1.856  25.392  27.844  0.0675  0.1744  0.1704
31017W        W31881  12.650  13.365  18.621  0.0808 -0.3013  0.0909
31018W        W31882  13.435  20.612  11.352 -0.2043  0.1559  0.1387
31019W        W31883  21.959   4.325   1.573 -0.2703  0.2332  0.0832
31020W        W31884  17.856  11.007  13.046 -0.0369  0.2914  0.0911
31021W        W31885   7.390   0.333  17.301 -0.0138  0.3515  0.0994
31022W        W31886   8.340  13.207  21.811 -0.0981 -0.1264 -0.0057
31023W        W31887  12.161   3.727  18.314 -0.0730 -0.0229  0.3809
31024W        W31888   6.042  25.111  13.286 -0.1218  0.2779  0.1364
31025W        W31889   8.148  20.469  15.848  0.1318 -0.0747  0.0419
31026W        W31890   4.056  13.136  21.219  0.2724  0.0643  0.1448
31027W        W31891  18.158   4.290  19.882  0.1425 -0.0931  0.2537
31028W        W31892  26.048   0.347  13.864  0.1591  0.1437 -0.1284
31029W        W31893  13.914   8.580  26.278  0.3077  0.0541  0.0817
31030W        W31894  16.459  11.108  15.580 -0.1053  0.2689 -0.1110
31031W        W31895  22.335  10.417   3.087 -0.2878  0.0367 -0.1331
31032W        W31896  17.225  25.811  10.302 -0.2950 -0.0962  0.0921
31033W        W31897  14.652  12.329  11.717 -0.0730  0.3945  0.1658
31034W        W31898  22.634  23.159   3.192 -0.1374  0.2778 -0.0144
31035W        W31899   6.692   0.018  18.719 -0.0631  0.1540 -0.0737
31036W        W31900   1.202  11.372  10.868  0.0326  0.0269  0.1222
31037W        W31901  23.052  15.074  11.391 -0.1156  0.0488 -0.3541
31038W        W31902   8.546   6.517  26.313  0.2388  0.3529  0.0698
31039W        W31903  26.176   2.182  15.915 -0.1826 -0.1086 -0.0144
31040W        W31904  17.813  27.851  27.976  0.1725 -0.1938 -0.1128
31041W        W31905   4.157   6.793   0.279  0.2328  0.0340 -0.0801
31042W        W31906  12.939   0.975  13.081 -0.0749 -0.1309 -0.2003
31043W        W31907   4.477   9.991   7.167 -0.2083  0.2957 -0.0183
31044W        W31908  12.700  12.521  17.869 -0.1008 -0.1129 -0.1406
31045W        W31909   0.888  11.319  23.606  0.0714 -0.1464 -0.2520
31046W        W31910  20.321  11.066   6.011  0.1031 -0.3169 -0.0975
31047W        W31911  16.031  16.207  22.797  0.0731 -0.1700  0.0268
31048W        W31912  21.457  20.017  25.495  0.0679  0.2950 -0.2306
31049W        W31913  10.046  27.527   1.885  0.0176  0.1037 -0.1587
31050W        W31914   9.658   9.809  25.078 -0.2056  0.3724  0.0244
31051W        W31915  28.829  16.040  17.768  0.0229  0.1606  0.1107
31052W        W31916  27.232  15.373  22.587 -0.0711  0.0755  0.2898
31053W        W31917  22.012  18.250  19.260 -0.1296 -0.2358  0.1743
31054W        W31918   1.010  14.184  20.380 -0.0220  0.1453 -0.1547
31055W        W31919  28.486  25.399  17.965  0.0135 -0.2708 -0.0657
31056W        W31920   0.247   1.660   9.738 -0.1476  0.3438  0.0861
31057W        W31921   6.030   3.237  17.507 -0.1958 -0.2228 -0.3031
31058W        W31922  24.377  12.572  14.258  0.4638  0.0688 -0.1742
31059W        W31923   0.290  10.630   5.335 -0.2354 -0.1369 -0.1167
31060W        W31924  10.402   0.265  13.138 -0.1101  0.1291 -0.0681
31061W        W31925   8.993  10.151   3.870 -0.0214  0.0768 -0.0166
31062W        W31926   2.782   4.614  20.612 -0.4391 -0.0904 -0.0633
31063W        W31927  25.442  18.795  13.082  0.2328 -0.0011  0.0872
31064W        W31928   8.152   3.335   1.048 -0.2424 -0.1764  0.0598
31065W        W31929  27.159   5.093  25.304  0.2951  0.3360  0.0017
31066W        W31930   3.648   9.707  28.951  0.4646 -0.0135  0.1529
31067W        W31931  10.823  27.073  17.833 -0.4269  0.2694  0.3316
31068W        W31932  15.506   1.378  26.845  0.1969  0.0597  0.1802
31069W        W31933  11.084  13.391  16.299 -0.0772  0.1793 -0.0166
31070W        W31934  10.044  25.385  26.668 -0.3136 -0.3322  0.0953
31071W        W31935  28.389   1.020   5.219 -0.0540  0.0258  0.0234
31072W        W31936  11.665   8.766  25.582 -0.1432  0.2250 -0.1776
31073W        W31937  26.684   2.724   5.418 -0.0362  0.1522 -0.0841
31074W        W31938   1.573   4.604   2.752 -0.2833 -0.1469  0.1023
31075W        W31939  23.858   7.259   1.213  0.0367  0.2501 -0.1721
31076W        W31940  27.327   1.365   9.517  0.0347 -0.0036  0.1733
31077W        W31941  25.020  22.102   1.287  0.0438 -0.0186  0.0643
31078W        W31942   9.738  14.521   7.401 -0.0564  0.0773 -0.2164
31079W        W31943  16.905  15.794  11.134  0.1188  0.0153  0.1299
31080W        W31944  17.245   3.659  18.313  0.0155  0.1170 -0.0798
31081W        W31945   4.215  13.501  22.019 -0.0069  0.2749  0.2232
31082W        W31946  21.408  16.665  25.693 -0.1494  0.0447  0.2605
31083W        W31947   0.433  28.925  11.572  0.0872  0.5521 -0.2297
31084W        W31948   6.060  12.499  27.941 -0.1413  0.2731  0.0659
31085W        W31949  20.994   4.859  17.768  0.0426 -0.0251 -0.0546
31086W        W31950  10.539   4.716  23.913  0.2220 -0.1625  0.6283
31087W        W31951   7.620   8.229   7.109 -0.4415 -0.0856 -0.4075
31088W        W31952   4.879   3.779  20.615 -0.0170  0.2900 -0.1106
31089W        W31953  14.425  25.206   1.295  0.1588 -0.2021  0.1171
31090W        W31954   7.096  21.620  25.059  0.0348 -0.1108 -0.1224
31091W        W31955   3.509  27.180  22.686 -0.0826  0.0279  0.1311
31092W        W31956  15.712  17.536  22.197 -0.1535  0.1458 -0.0428
31093W        W31957   2.140  17.743  13.549  0.1013  0.1954  0.0624
31094W        W31958   0.481   8.138  18.491  0.3530 -0.0019  0.1284
31095W        W31959   5.647   0.705  12.977  0.0367 -0.0249 -0.0641
31096W        W31960  17.009  16.387  12.134  0.0468 -0.4734  0.2106
31097W        W31961   8.192  14.226  14.779  0.4969  0.1059  0.2345
31098W        W31962  14.778   0.658  10.882  0.0909  0.0295 -0.1478
31099W        W31963  17.140  14.349  19.610 -0.2105  0.1732 -0.1973
31100W        W31964  14.417  14.488  26.050 -0.0176 -0.1325  0.0168
31101W        W31965   0.016   6.441  16.518  0.0452 -0.1625 -0.1418
31102W        W31966   7.579  19.362  11.072 -0.1411 -0.1132 -0.0085
31103W        W31967  26.647  17.870   6.557  0.1438 -0.2641 -0.1672
31104W        W31968   8.521   1.285   6.908  0.0709  0.0824  0.4344
31105W        W31969  23.286  12.672  17.458  0.1168  0.3249 -0.1329
31106W        W31970   0.976   8.014   8.818  0.3303  0.0199  0.0032
31107W        W31971  28.355   0.595  21.225 -0.1959  0.0873 -0.0020
31108W        W31972  17.760   1.686  16.373 -0.0414  0.1188 -0.0134
31109W        W31973  25.401   9.959  15.317 -0.4272  0.1265  0.0110
31110W        W31974  11.029   4.156   0.739  0.1050  0.0052  0.1577
31111W        W31975   4.443  16.840  26.502  0.0126 -0.0256  0.3997
31112W        W31976  28.642  12.247  15.547  0.3690 -0.0381 -0.1620
31113W        W31977   9.977  12.500  17.832 -0.2641 -0.2015  0.2514
31114W        W31978   4.692   5.245   5.669  0.0307  0.5051 -0.0268
31115W        W31979  27.990   4.496  11.154 -0.1452 -0.2451 -0.0308
31116W        W31980  26.362  22.489   2.160 -0.1064  0.0161 -0.0132
31117W        W31981   0.266   9.882  17.960 -0.1081 -0.1129  0.1825
31118W        W31982  23.552  27.445  19.869 -0.0055 -0.2118 -0.0102
31119W        W31983   3.384  26.064  26.943 -0.0667 -0.4640 -0.3069
31120W        W31984  19.031   6.653  25.430  0.3853 -0.0373  0.3737
31121W        W31985   5.761  27.695  18.561  0.1522 -0.0855  0.0168
31122W        W31986  11.918  26.450  24.101  0.0399  0.0948  0.0261
31123W        W31987   9.860  13.789  19.227 -0.1213 -0.2153  0.0602
31124W        W31988  14.325  16.960  20.129 -0.4114  0.0701  0.0395
31125W        W31989   5.258  18.765  20.808  0.1702  0.0956  0.0917
31126W        W31990  24.600  26.915  24.197  0.0624  0.1447 -0.5285
31127W        W31991  28.570  27.817   1.772  0.3407  0.3400  0.0515
31128W        W31992  12.887  12.401  11.736  0.2151 -0.1033 -0.0313
31129W        W31993  25.460  26.395   5.919  0.0494  0.3773 -0.1210
31130W        W31994   0.973   0.424  11.448 -0.0677  0.1067  0.0781
31131W        W31995  21.844  15.590   5.157  0.0097 -0.0105  0.1059
31132W        W31996  27.778  28.589  19.411 -0.0022 -0.2685  0.1652
31133W        W31997   0.500   5.833  18.520 -0.2546  0.0624 -0.1991
31134W        W31998  21.314  19.200   4.286 -0.0449  0.0018  0.1061
31135W        W31999   9.300  25.957  16.905  0.3971 -0.3004 -0.1390
31136W        W32000  24.113  22.225   0.784  0.1614 -0.1950 -0.0055
31137W        W32001  17.047   9.335  18.283 -0.0281 -0.1358  0.2915
31138W        W32002   4.769   7.625  17.375 -0.2093  0.1530  0.1473
31139W        W32003  21.356  28.427  28.259 -0.2794  0.0256  0.0325
31140W        W32004  23.899   1.712  15.937 -0.0382 -0.3546  0.1817
31141W        W32005  24.096   6.198   6.194  0.0457  0.0035  0.0864
31142W        W32006  28.626   5.824  27.161  0.2428  0.1099 -0.2648
31143W        W32007  20.204   7.675  11.533  0.1704  0.1333  0.0112
31144W        W32008   6.391   2.576  20.916 -0.1818 -0.0961  0.0400
31145W        W32009  20.657   6.161  19.094 -0.4396  0.1970  0.3406
31146W        W32010   7.894  21.766  22.002  0.2601  0.3809 -0.1256
31147W        W32011   6.001  16.605  13.571  0.2014 -0.1767 -0.2638
31148W        W32012  22.486   4.159  19.821  0.1686  0.1363  0.2794
31149W        W32013  18.796   1.955  22.519  0.2346 -0.1815  0.1770
31150W        W32014  14.585  28.224  26.737 -0.0520  0.3019  0.1882
31151W        W32015  14.326  10.659  28.714 -0.3172  0.0702  0.0541
31152W        W32016  10.717   8.227  27.320 -0.1580 -0.0208  0.0716
31153W        W32017   0.217  10.953  15.672  0.0914 -0.0126  0.2390
31154W        W32018  28.901   8.505  26.871  0.0817 -0.0904  0.0402
31155W        W32019  19.916   7.185   2.560 -0.0734  0.1562  0.2054
31156W        W32020   8.057  23.726  21.228 -0.0484 -0.0724  0.0041
31157W        W32021   7.560   3.195  25.214  0.2736  0.2458 -0.1132
31158W        W32022  24.079  21.054  19.045  0.3076 -0.0142  0.0669
31159W        W32023  22.642  27.069   4.731 -0.1002  0.1714  0.1145
31160W        W32024   3.347  10.337  14.498 -0.1701  0.2909  0.0353
31161W        W32025  27.059  10.347  19.156 -0.0272  0.1111 -0.3967
31162W        W32026  16.961  28.612  15.002  0.1048 -0.1977 -0.0161
31163W        W32027   9.581   0.142   9.430  0.2366 -0.0033  0.2523
31164W        W32028  16.757   4.452   1.303  0.0007 -0.2470  0.1818
31165W        W32029   8.370  18.363  15.334 -0.2350 -0.0480  0.0135
31166W        W32030   4.336   0.777  14.894  0.2069  0.0020 -0.4111
31167W        W32031   2.436  15.247  18.153  0.0419  0.1824 -0.1495
31168W        W32032  24.522  24.088  17.076 -0.0886  0.2927 -0.1512
31169W        W32033   2.860  13.087  16.500 -0.0695 -0.1321 -0.1092
31170W        W32034  21.314  15.697  17.623  0.1817 -0.1514 -0.2842
31171W        W32035   2.642   2.960   2.195 -0.0687 -0.0464  0.0653
31172W        W32036  15.031  26.795   7.930  0.0279  0.1046 -0.1590
31173W        W32037  14.052  21.695  25.867 -0.0424  0.1198 -0.0118
31174W        W32038   6.642  16.248   1.179  0.4037  0.1524  0.1792
31175W        W32039   8.207  26.311  17.339 -0.1708  0.3074  0.1229
31176W        W32040   1.254  13.985  14.428  0.0491 -0.0022  0.0861
31177W        W32041  26.096  22.038  17.167 -0.1475 -0.1809  0.0611
31178W        W32042  21.036   4.864  22.999  0.0604  0.2820 -0.0786
31179W        W32043   2.233   8.560   1.969  0.1371 -0.0777  0.1342
31180W        W32044  28.515  27.151  25.248  0.1363  0.0411 -0.0426
31181W        W32045   0.205  11.544  22.005  0.2419  0.1091  0.3065
31182W        W32046   7.880   9.572  12.832  0.1110  0.0414  0.1383
31183W        W32047  11.289  23.873  23.764  0.0983 -0.2592 -0.0025
31184W        W32048   5.537  15.636  11.187  0.1817  0.1131  0.0632
31185W        W32049   8.476  21.772   0.324  0.1232  0.1895  0.0242
31186W        W32050  11.268  13.221  29.031 -0.1810 -0.1536 -0.1979
31187W        W32051   5.619   9.366  17.869  0.2390 -0.0111 -0.2371
31188W        W32052   9.607   9.415  13.327  0.0198  0.0266 -0.3541
31189W        W32053   1.115  23.220   8.729 -0.2751 -0.1693  0.0560
31190W        W32054   0.051  19.802  24.364 -0.2361 -0.0735 -0.1024
31191W        W32055   8.580  25.249  12.870  0.0503  0.1071  0.2746
31192W        W32056   1.534  16.559  15.067 -0.4092  0.0558 -0.0812
31193W        W32057   4.867  23.057   0.571 -0.0625  0.1195 -0.0916
31194W        W32058   5.967   7.425  18.610  0.1722 -0.0883 -0.1515
31195W        W32059   4.721  13.869  21.414  0.0831  0.0504 -0.2587
31196W        W32060  16.133  20.053  17.254  0.1734  0.1795 -0.1828
31197W        W32061   9.570   4.885  26.573 -0.2196  0.1585 -0.0456
31198W        W32062   2.296  25.933  12.274  0.1794 -0.1122 -0.0111
31199W        W32063  22.169   3.494   2.101 -0.0424 -0.0347  0.0033
31200W        W32064   0.766  17.250  26.814  0.4334 -0.0805 -0.0119
31201W        W32065  12.882  23.897  12.401  0.1407  0.2344 -0.2770
31202W        W32066  10.608   9.997  12.603  0.2492  0.3429 -0.1195
31203W        W32067   7.176   2.962  19.550 -0.0578  0.2638  0.5657
31204W        W32068   5.788   7.642   1.854  0.0003 -0.2198  0.0565
31205W        W32069  15.770  20.851  21.846  0.0140 -0.1217  0.4063
31206W        W32070   0.698  15.669  21.223 -0.0783 -0.2434 -0.4678
31207W        W32071   3.742  19.326   8.365  0.1662 -0.1686  0.3447
31208W        W32072  21.781  27.027   9.292 -0.1835 -0.1723  0.1737
31209W        W32073  23.030  26.690  27.701 -0.1790 -0.2511  0.0013
31210W        W32074  15.820  27.574  16.991 -0.0617  0.1327  0.1303
31211W        W32075  21.510   8.843   7.981  0.0298 -0.0684  0.1463
31212W        W32076  28.931  25.997  24.753 -0.0474  0.0419 -0.1790
31213W        W32077   8.260  12.578  22.924 -0.2199 -0.0173  0.3086
31214W        W32078  15.826  11.849   6.325 -0.1557  0.0417  0.1913
31215W        W32079  19.512  13.936  28.820 -0.0220 -0.0586  0.1844
31216W        W32080  18.643  20.123  17.837  0.0169 -0.1358  0.0751
31217W        W32081   4.859  18.219   2.879  0.3072  0.0633  0.0970
31218W        W32082   4.911  27.962  22.822 -0.1596  0.4108 -0.2645
31219W        W32083  16.740   9.008   5.029 -0.0156 -0.0353  0.1243
31220W        W32084   9.977  27.769  18.377 -0.1620  0.2361 -0.0547
31221W        W32085  20.622  11.326  16.447 -0.1230  0.0179 -0.0174
31222W        W32086   5.300   3.449  13.002 -0.2670  0.1018 -0.2937
31223W        W32087  11.067   0.178  11.331  0.1146  0.2270  0.1511
31224W        W32088   1.784  19.069  15.686 -0.4903  0.1318  0.1517
31225W        W32089  14.880  17.197  16.494 -0.1103 -0.0294  0.2761
31226W        W32090  11.491   7.149   6.743 -0.2433  0.0057  0.0920
31227W        W32091   2.765  15.334  17.506  0.1268  0.1297 -0.1086
31228W        W32092  11.989  13.735  14.972  0.0538  0.0273 -0.1371
31229W        W32093  26.508  17.435  23.008  0.3913 -0.0630 -0.0673
31230W        W32094  26.825   1.773   8.904  0.0539 -0.1444 -0.1726
31231W        W32095  17.141   3.058  18.216 -0.3009  0.1440  0.4050
31232W        W32096  20.507   8.170  21.255  0.1629  0.3301  0.3205
31233W        W32097  11.348  28.780   4.609 -0.0350 -0.2488  0.1469
31234W        W32098   7.555   1.882  24.150  0.1353  0.1208  0.0934
31235W        W32099  21.800  11.409  11.318  0.1158  0.2475 -0.1440
31236W        W32100  14.088   8.992  23.957  0.0188  0.1879  0.1274
31237W        W32101   0.132   4.442  20.223 -0.1380  0.2469  0.0572
31238W        W32102  16.982  24.115  11.143  0.0270 -0.1504 -0.2877
31239W        W32103  19.975   3.533   0.154  0.2048  0.2252  0.0026
31240W        W32104  13.134  25.007  15.972  0.1951 -0.1579 -0.0542
31241W        W32105  17.147   8.431   8.885  0.2359 -0.3433  0.0699
31242W        W32106  26.662  14.734  10.642 -0.1965 -0.1164 -0.2004
31243W        W32107  11.529  28.362  12.348  0.0464  0.1868 -0.0245
31244W        W32108  20.902  24.434  22.891 -0.0299 -0.0765 -0.0718
31245W        W32109   9.524  27.803   5.856  0.0834  0.0431 -0.2060
31246W        W32110  11.991  17.002  20.245  0.2233 -0.0666  0.1325
31247W        W32111  25.543   5.655  23.103 -0.3823 -0.2283 -0.1343
31248W        W32112  17.094  17.279   7.365  0.0595 -0.2437 -0.0820
31249W        W32113   7.663   8.400  22.410  0.1865  0.0574  0.2174
31250W        W32114  10.782  21.663  16.592  0.0388 -0.0187 -0.0816
31251W        W32115  28.682   2.023  27.417 -0.2045  0.0817 -0.1176
31252W        W32116   0.082  27.692  16.724  0.1175  0.0757  0.0890
31253W        W32117   9.552   5.206   7.638 -0.1995  0.0994 -0.3917
31254W        W32118  14.447   2.317  20.831  0.0285 -0.0693  0.0867
31255W        W32119   0.850  18.209  21.268  0.0068  0.0277  0.1703
31256W        W32120   6.231  21.620  24.347  0.4243 -0.0905 -0.2275
31257W        W32121   7.439  18.326  19.706 -0.1281 -0.4278 -0.2810
31258W        W32122  28.769  28.816   1.889 -0.1155 -0.0299 -0.0904
31259W        W32123   7.988   0.910  14.353  0.3148 -0.1945 -0.1608
31260W        W32124   2.922  27.600   6.815  0.0058  0.1021  0.1976
31261W        W32125   9.324   2.576  16.370  0.2971 -0.1988 -0.0943
31262W        W32126   3.430  19.019  15.028 -0.0804  0.0374  0.1112
31263W        W32127  11.475   6.977  16.949 -0.0688  0.2787  0.0162
31264W        W32128   0.831  17.089  16.486  0.0622 -0.2872 -0.0444
31265W        W32129  26.144   6.295  14.273  0.1232 -0.1057  0.1488
31266W        W32130  28.022   6.090  15.302  0.1150  0.2026  0.0682
31267W        W32131  18.030  14.796   4.037 -0.0418  0.1458 -0.0499
31268W        W32132  16.302   9.905   2.982  0.0636 -0.4176  0.2330
31269W        W32133   4.629  17.081  15.134  0.0371 -0.0606  0.3348
31270W        W32134  13.506  14.982  10.183  0.0149  0.1071 -0.0839
31271W        W32135   2.351  23.827   8.271 -0.1970  0.1296  0.3987
31272W        W32136  21.201  18.699   1.526  0.1247 -0.1710 -0.0865
31273W        W32137   5.124  18.105   9.985  0.3877  0.0221 -0.0888
31274W        W32138  11.946  20.362  26.113  0.2201  0.1711 -0.3876
31275W        W32139  15.842   6.599  25.639  0.0702 -0.0689  0.0506
31276W        W32140  17.355   1.507  26.310  0.3947 -0.4937  0.1349
31277W        W32141  15.489   0.449  25.750  0.1017 -0.1153 -0.1827
31278W        W32142  11.530   0.080  11.164  0.1095 -0.1048 -0.3390
31279W        W32143   8.275  23.137  11.542  0.0492 -0.1186 -0.0913
31280W        W32144   1.697  14.416  20.017 -0.1012  0.1931 -0.0394
31281W        W32145   8.151   2.304  20.482  0.1664  0.0416  0.1659
31282W        W32146  11.703  16.248  15.101  0.0180  0.3506 -0.1794
31283W        W32147  28.847   3.483  13.318  0.3182 -0.1808  0.3575
31284W        W32148  11.166  10.736  21.206  0.2430  0.4781 -0.0638
31285W        W32149  26.260  25.839  18.993  0.1499 -0.0143 -0.1652
31286W        W32150  12.900   8.873  16.004  0.1119 -0.1316 -0.0925
31287W        W32151  24.455   1.559   0.292  0.1963  0.1653 -0.4932
31288W        W32152   3.791   9.799  27.775 -0.1321 -0.3494 -0.2010
31289W        W32153  13.094   5.308  13.203  0.0613  0.0035 -0.2218
31290W        W32154  22.959  11.208  21.005  0.4532 -0.2922  0.0436
31291W        W32155  27.353  26.651  24.095  0.1059  0.0538 -0.1819
31292W        W32156  26.446  28.699  23.858 -0.0553 -0.2121  0.0737
31293W        W32157  28.623  17.790   5.213 -0.1167 -0.0123  0.0123
31294W        W32158  18.075  18.735  18.345  0.2464  0.0769  0.2026
31295W        W32159  22.632   2.413  18.384 -0.1451 -0.2768 -0.0371
31296W        W32160  21.917  20.333  10.145 -0.0805  0.2011  0.1203
31297W        W32161  18.364   1.869  21.818 -0.0619  0.0635  0.0003
31298W        W32162   3.745   6.921  18.295 -0.1135 -0.1223 -0.1057
31299W        W32163   7.473   4.181   0.022  0.0785  0.2742 -0.0114
31300W        W32164  13.587  17.158  19.398 -0.1374 -0.2757 -0.1572
31301W        W32165  18.422  26.275   5.845  0.1958  0.1636  0.0754
31302W        W32166  23.779   0.929  21.522 -0.1846  0.0956 -0.3372
31303W        W32167  25.799  17.504  16.369 -0.1060 -0.1049  0.2003
31304W        W32168   5.874  15.539  14.281 -0.1949  0.0101  0.0843
31305W        W32169  16.856   8.668   3.616  0.3615 -0.0780 -0.2316
31306W        W32170   8.079  27.209   4.510  0.0694 -0.0065 -0.0466
31307W        W32171   9.862  20.402  14.235  0.1252 -0.0172 -0.0481
31308W        W32172  10.338  26.779  15.083  0.1291 -0.2567 -0.0060
31309W        W32173  16.926   2.587  25.849 -0.1483  0.1833  0.0171
31310W        W32174  19.621  20.024  28.587  0.1131 -0.1806  0.1406
31311W        W32175  14.166   2.278  12.100 -0.0765  0.4333 -0.0990
31312W        W32176   2.950   2.390  24.623 -0.0820 -0.0845  0.0115
31313W        W32177  22.266  21.812  22.164 -0.1210 -0.0864  0.2338
31314W        W32178  17.112   7.402  22.559 -0.1182  0.0650 -0.0199
31315W        W32179  15.860   3.510  16.500 -0.1369 -0.2592 -0.1231
31316W        W32180  26.554  25.096  12.840 -0.0556 -0.0265 -0.0132
31317W        W32181   7.079  28.832  24.463 -0.3233 -0.0669  0.2875
31318W        W32182  20.835  12.577  10.441 -0.2619  0.1503  0.1260
31319W        W32183  20.420  17.829   9.944 -0.2899 -0.3091  0.1634
31320W        W32184   1.849   1.506  19.629 -0.0284  0.1442 -0.0696
31321W        W32185   4.574  10.419  21.823 -0.1600 -0.0567 -0.0813
31322W        W32186  26.284  18.827  26.891 -0.1994 -0.1554 -0.1321
31323W        W32187  20.882  10.161  25.928 -0.0388  0.0069  0.1788
31324W        W32188  14.833  25.391  15.371  0.2101  0.4094 -0.2255
31325W        W32189   9.435  11.433  23.554  0.2761 -0.0961 -0.0583
31326W        W32190   8.230   6.439  22.813 -0.1952 -0.0722  0.0942
31327W        W32191   1.974   4.692  24.264 -0.0627  0.0939 -0.0142
31328W        W32192   1.903  28.650  21.390  0.0264  0.2362 -0.0155
31329W        W32193  27.837  14.413  12.169  0.0175  0.2783 -0.1203
31330W        W32194  10.110  13.931  23.579  0.0060 -0.2703  0.1702
31331W        W32195  11.337  27.823   5.127 -0.0962 -0.0757 -0.2283
31332W        W32196  13.751  10.249   3.482  0.0476 -0.0255 -0.1415
31333W        W32197   6.802   4.140  15.201 -0.2489  0.1003 -0.1065
31334W        W32198   6.669  19.706  19.673 -0.1340  0.0168  0.2453
31335W        W32199  19.150  21.895  15.296 -0.2750 -0.1743 -0.1623
31336W        W32200   5.218   9.515  20.101  0.3596 -0.1500 -0.1172
31337W        W32201   8.231  13.043  24.796 -0.2430  0.4834 -0.0749
31338W        W32202  27.460   9.158  27.260  0.1290  0.1477 -0.4856
31339W        W32203  10.306  25.816  18.733 -0.0331 -0.1101  0.0524
31340W        W32204  26.335  23.362  11.512 -0.2032 -0.2878  0.3075
31341W        W32205  18.522   4.628  25.571 -0.1091 -0.1260 -0.1427
31342W        W32206  10.807   9.056  27.020  0.0533 -0.0324 -0.0440
31343W        W32207   2.066  20.018  15.106 -0.0454  0.2395  0.2278
31344W        W32208   3.470   4.123  20.089 -0.2873 -0.0079 -0.0764
31345W        W32209   4.847   1.615  24.872 -0.0713 -0.1363  0.0634
31346W        W32210  10.908  20.124  19.441 -0.0373  0.2444 -0.0794
31347W        W32211  27.470   3.404   4.107  0.0662  0.1882  0.0422
31348W        W32212   8.941  25.122  11.921 -0.1505 -0.1720  0.1326
31349W        W32213  12.258   2.619   8.603 -0.4968 -0.1235  0.0476
31350W        W32214  14.354   6.391  23.401  0.1253  0.1751 -0.3698
31351W        W32215  16.061  15.934  20.901  0.2237 -0.2231  0.0833
31352W        W32216  12.785   1.668  18.772  0.1219 -0.0898  0.0375
31353W        W32217   3.696   0.203  26.445 -0.1627  0.0980  0.3069
31354W        W32218  10.381   4.366  16.092 -0.0669  0.1215 -0.0892
31355W        W32219  12.790  18.130  17.580 -0.1215  0.1015 -0.0015
31356W        W32220  19.592  13.601  27.971  0.2136 -0.0335  0.0683
31357W        W32221  11.641   2.354   7.659  0.1202  0.1324 -0.4684
31358W        W32222  26.484  26.863  19.324 -0.0704 -0.0275  0.4089
31359W        W32223   5.497  24.780   2.008 -0.0991 -0.0626  0.1387
31360W        W32224   5.443   9.075  22.514  0.1903 -0.0488  0.1203
31361W        W32225   8.062  12.666  14.587 -0.0159  0.0015 -0.1945
31362W        W32226  11.058  23.985  22.061 -0.0519  0.1886  0.3072
31363W        W32227  14.937  21.057  24.700 -0.1866 -0.0159  0.0466
31364W        W32228   8.571  16.039  18.186  0.0440 -0.0660 -0.2684
31365W        W32229  24.401   5.752  24.336 -0.4325  0.0052 -0.0911
31366W        W32230   6.746   7.372  16.742  0.1502  0.2671 -0.0295
31367W        W32231  12.541  26.027  28.801 -0.0324 -0.1897 -0.0940
31368W        W32232   2.851  17.362  15.447  0.1170  0.1264  0.0654
31369W        W32233  11.341  19.435  16.137  0.0557  0.1865  0.1848
31370W        W32234  27.728   1.629  22.915 -0.2214 -0.0742  0.1017
31371W        W32235  17.316  26.018  24.800 -0.0430 -0.1466  0.0618
31372W        W32236   1.638  27.030  15.492  0.1756  0.0464 -0.2204
31373W        W32237  20.335  19.005   1.016  0.1616 -0.0469  0.1521
31374W        W32238   5.278  16.157   9.282 -0.0733  0.2729 -0.0646
31375W        W32239   1.663  16.169  19.501 -0.0777  0.2603  0.2730
31376W        W32240  24.061  10.313  14.129 -0.0831 -0.0836 -0.1816
31377W        W32241  20.543   6.260  22.493 -0.0363 -0.1673  0.0900
31378W        W32242   6.676  17.077  15.419  0.0333 -0.2095  0.3166
31379W        W32243   6.681  25.878  23.512  0.0847 -0.1297 -0.0379
31380W        W32244   4.887  28.840  12.377  0.3004 -0.1504 -0.0570
31381W        W32245  14.031  15.818  13.367 -0.1260  0.1203  0.1108
31382W        W32246   5.287   5.339  25.779 -0.0088 -0.0716 -0.2543
31383W        W32247   4.009  26.382  20.360  0.0070 -0.3431  0.1729
31384W        W32248   4.180  12.628  22.018 -0.0370 -0.2239  0.2418
31385W        W32249   8.247  13.664  22.064  0.2885  0.0013  0.0077
31386W        W32250  29.063   5.694  19.902  0.4071 -0.1170  0.2170
31387W        W32251  24.417  24.069   9.219  0.1449  0.1745  0.0196
31388W        W32252   1.693  15.971   7.618  0.0424  0.0278 -0.0522
31389W        W32253  26.171   7.554  26.367  0.2207  0.2001 -0.0042
31390W        W32254   4.678   1.721  26.410  0.0657  0.0571  0.4037
31391W        W32255   8.340  20.689  24.460  0.3059 -0.1183 -0.0765
31392W        W32256   9.282   8.244   7.328 -0.0623 -0.2317 -0.2267
31393W        W32257  26.335   7.124  14.760 -0.0285 -0.1014  0.1545
31394W        W32258  20.720  21.372  19.336  0.0134  0.0770 -0.2234
31395W        W32259   5.937   6.743   9.142  0.0900 -0.2246 -0.1740
31396W        W32260  21.803  13.031   6.110  0.0798  0.1294 -0.0101
31397W        W32261  23.350  15.356  13.386 -0.0229 -0.0118 -0.2997
31398W        W32262   8.516   6.687   7.372 -0.0423 -0.0407 -0.0208
31399W        W32263  10.344  12.313  28.642 -0.0981  0.1966 -0.0304
31400W        W32264   3.135   2.209  19.057  0.0058 -0.0874  0.0177
31401W        W32265  18.584   8.701  26.986  0.0239  0.3774 -0.1289
31402W        W32266  27.733   7.342  15.420  0.5232 -0.1909 -0.1787
31403W        W32267  15.533  24.058  13.782 -0.0589  0.0777 -0.1388
31404W        W32268  19.913  28.034  13.958 -0.3163  0.4233  0.0111
31405W        W32269  26.678   3.500  24.866 -0.1290 -0.1507 -0.0291
31406W        W32270   7.507   0.105  15.432  0.0931  0.2292 -0.0870
31407W        W32271  28.046  14.804   1.118  0.0940  0.1240 -0.2282
31408W        W32272  27.853  18.437  25.396 -0.0488 -0.1107 -0.3086
31409W        W32273  28.316   4.730  22.253 -0.0062 -0.0417 -0.0868
31410W        W32274  24.162  16.515   6.528 -0.0498  0.1783 -0.2156
31411W        W32275   7.290  28.308  12.185 -0.2465 -0.1118  0.0386
31412W        W32276   3.710  15.878   5.341 -0.1109  0.0480  0.0735
31413W        W32277   6.353  11.734  27.362 -0.2112  0.0884 -0.2534
31414W        W32278  18.956  20.530  17.861 -0.0198  0.1508  0.1025
31415W        W32279  13.482  12.138   1.246  0.2025  0.3472  0.0356
31416W        W32280  21.731  16.910   9.153 -0.1581 -0.0675  0.1111
31417W        W32281  20.436  22.729  23.051  0.2503  0.1596 -0.2225
31418W        W32282  26.287   9.504  24.891 -0.1492  0.2798 -0.3639
31419W        W32283  14.953  24.220   8.695 -0.2191 -0.1198 -0.1647
31420W        W32284  27.499  13.535   4.905 -0.1808  0.0646  0.1135
31421W        W32285  27.218   1.788  23.186 -0.1045  0.0756  0.1565
31422W        W32286  11.936  14.516  26.873 -0.0789 -0.2388  0.0824
31423W        W32287   2.772  15.894  16.872 -0.1014 -0.0384  0.2525
31424W        W32288   2.082  26.385   7.009  0.3530  0.0050  0.0692
31425W        W32289   2.038   1.297  24.956  0.2730  0.1150 -0.2970
31426W        W32290   3.926   1.807   7.975 -0.0303  0.1734 -0.1355
31427W        W32291  19.414   1.967   0.717  0.4669 -0.1181 -0.2146
31428W        W32292   9.380  20.010  10.864 -0.0473  0.2791  0.2990
31429W        W32293   8.288  27.564  15.602 -0.1287 -0.0668  0.1912
31430W        W32294  25.485  19.490   1.609  0.0314  0.0069  0.0862
31431W        W32295  18.056  19.476   5.514 -0.1408 -0.1311  0.0199
31432W        W32296  14.109   4.636  26.353 -0.2508  0.2387  0.1985
31433W        W32297  17.636   1.165   0.715  0.3262  0.0077 -0.2949
31434W        W32298   8.703  17.962  13.364  0.0998 -0.1538 -0.1574
31435W        W32299  28.990   1.569  25.754 -0.1123 -0.0092  0.0376
31436W        W32300  17.405  28.717  23.836 -0.0414 -0.1481  0.5169
31437W        W32301   5.705   0.069  17.427  0.4622 -0.4429 -0.1169
31438W        W32302   2.436  15.563   9.422 -0.1118 -0.0761  0.0530
31439W        W32303  27.877  24.783   2.823 -0.1558 -0.0979 -0.0224
31440W        W32304  26.200   5.600  18.344 -0.1373 -0.0999  0.2101
31441W        W32305   9.533  23.302  21.797 -0.0978  0.1096 -0.0037
31442W        W32306   2.539   8.050  17.080 -0.1603 -0.0876 -0.2601
31443W        W32307   1.106   8.470   8.486  0.0296 -0.1628 -0.1662
31444W        W32308   3.213   6.526  26.796  0.0592 -0.2704 -0.1170
31445W        W32309   9.782  26.763   4.161  0.0677  0.2234  0.0971
31446W        W32310   3.179  16.880  10.996 -0.0116 -0.2748 -0.0300
31447W        W32311  20.025  17.524  14.961  0.1684  0.2472  0.1238
31448W        W32312  11.847  23.847  27.112 -0.3331 -0.2024 -0.0427
31449W        W32313   0.431   6.600  27.294 -0.2935 -0.1772  0.1844
31450W        W32314   4.715   4.047  16.086 -0.2671 -0.2042 -0.0745
31451W        W32315   9.439  19.347  25.599 -0.0486 -0.0921  0.1693
31452W        W32316   8.533   9.271  11.034  0.0222  0.2484 -0.2950
31453W        W32317  20.968  19.297   0.461  0.0936  0.1095  0.3997
31454W        W32318   8.567   3.899  25.868 -0.0050 -0.1319  0.0959
31455W        W32319   4.418  25.623  17.472 -0.3731 -0.1270  0.2084
31456W        W32320  11.386  26.116  17.180  0.2815 -0.0537  0.1035
31457W        W32321  24.107  23.090  26.413  0.2005  0.3037  0.1490
31458W        W32322  24.441   0.277  16.838 -0.1886 -0.0511  0.1380
31459W        W32323   0.429   9.799  14.202 -0.0129  0.1843  0.3124
31460W        W32324  11.554   4.526  22.956  0.3517  0.1391  0.3038
31461W        W32325   8.300  20.019  10.959 -0.0558 -0.3252  0.0875
31462W        W32326   0.738  16.596  20.053  0.0179  0.0238 -0.2992
31463W        W32327   6.993   5.174  13.441 -0.1577  0.3693  0.1626
31464W        W32328  23.465  19.382  22.352  0.0388 -0.0606  0.1016
31465W        W32329   9.093  12.685  19.915 -0.1282 -0.1483 -0.0274
31466W        W32330  10.750  10.051  13.692  0.1910 -0.1269 -0.0050
31467W        W32331  24.166   4.886  23.370 -0.0194 -0.1104 -0.0741
31468W        W32332  28.851   8.015   1.867 -0.1548  0.1241  0.2924
31469W        W32333   0.914  20.214  14.134 -0.0241  0.0719  0.4126
31470W        W32334  20.779  25.034   4.918  0.2767  0.2953 -0.2219
31471W        W32335  23.393  10.171   8.997  0.1440 -0.1825  0.2456
31472W        W32336   8.034   6.215   0.956  0.0663 -0.0551 -0.1022
31473W        W32337  25.127   8.339  26.616  0.1463 -0.2231 -0.0527
31474W        W32338  17.251  12.181  24.251  0.0372 -0.2017  0.4358
31475W        W32339   7.317   4.343  20.711  0.0631  0.0543 -0.1070
31476W        W32340  10.083   4.361   5.100  0.2170  0.1658 -0.0135
31477W        W32341  14.301   8.357   8.795 -0.0841  0.0786  0.0860
31478W        W32342   8.362  25.308  25.648  0.1926  0.1187  0.0275
31479W        W32343   9.764  20.956   7.765  0.1704  0.1402  0.0891
31480W        W32344  13.998  15.452  14.976  0.3428  0.0876  0.2316
31481W        W32345   4.294  20.391  20.502 -0.0489 -0.1144 -0.0767
31482W        W32346  13.001  12.533  26.121 -0.0211  0.3653  0.1870
31483W        W32347  22.757  26.407  11.171 -0.2245  0.0528 -0.0603
31484W        W32348  17.697  11.259  27.130 -0.1232  0.2999  0.0265
31485W        W32349  24.905   2.517  24.744 -0.0695 -0.0659 -0.2374
31486W        W32350  12.249  11.229  26.855  0.2489 -0.1512  0.1720
31487W        W32351   9.460  18.873  16.622 -0.1587  0.2030  0.0594
31488W        W32352  10.553   1.661  18.796 -0.0499  0.2978  0.0295
31489W        W32353   7.466   7.806  25.907  0.1954 -0.0480 -0.2099
31490W        W32354  23.098  20.025  26.873  0.3009 -0.3157  0.2390
31491W        W32355  25.563   8.011   4.889 -0.3851  0.1766  0.0509
31492W        W32356   6.675   1.602  21.477 -0.1256  0.0355 -0.0859
31493W        W32357   1.947   0.105  10.352  0.1116 -0.3559 -0.3193
31494W        W32358   2.514   3.023   7.999  0.3650 -0.2609  0.1220
31495W        W32359  18.951   3.844  17.129 -0.2518  0.2566  0.2585
31496W        W32360  28.737   2.297  28.117 -0.0986  0.0264  0.1161
31497W        W32361  13.389  25.787   6.173  0.4326 -0.1630  0.1165
31498W        W32362  15.585  11.387  21.101  0.0680  0.0141 -0.2072
31499W        W32363  25.733  16.881   0.891  0.1055  0.0820  0.3156
31500W        W32364  21.099  16.469  17.510 -0.0748  0.4326 -0.3859
31501W        W32365  28.461   3.222   1.504  0.0456 -0.0021 -0.2011
31502W        W32366  19.641  11.587  28.065  0.0535  0.0334  0.1728
31503W        W32367  25.679  13.623  19.722 -0.0111 -0.1441 -0.0633
31504W        W32368   7.178  19.022  12.863  0.2449  0.2081  0.0237
31505W        W32369  10.075   9.755  26.520  0.0758 -0.2518  0.0404
31506W        W32370  24.554   0.447   1.578 -0.2849  0.2254  0.1910
31507W        W32371  25.507  14.890  14.216 -0.0730  0.2127 -0.0021
31508W        W32372  13.617  21.392   5.477  0.0267  0.3144 -0.1466
31509W        W32373  27.553   0.491  11.813  0.0487 -0.0487  0.0479
31510W        W32374   7.036   7.585  26.113  0.1287 -0.0078 -0.2039
31511W        W32375  20.558  11.666  24.624  0.1829 -0.0160 -0.2984
31512W        W32376  12.077  10.999   1.725  0.0137  0.1236  0.5274
31513W        W32377   9.530   5.843  25.888 -0.0560 -0.0557  0.0893
31514W        W32378  13.384  24.904  22.500 -0.0796  0.0977 -0.0046
31515W        W32379   5.649   6.935   6.498  0.1762  0.0987  0.1288
31516W        W32380  21.221   2.053  28.582 -0.0260  0.0267  0.1568
31517W        W32381  22.679  18.673   7.120  0.0816 -0.2259 -0.2963
31518W        W32382   7.014   1.902  25.953 -0.2156  0.0797 -0.3846
31519W        W32383  15.519  12.772  19.982 -0.4153  0.0326 -0.1845
31520W        W32384   4.363  20.002  15.131  0.0599  0.1852  0.2108
31521W        W32385  20.102   3.570   5.018  0.1823  0.0485  0.3866
31522W        W32386  28.020  13.295  21.665  0.3145  0.0714 -0.0858
31523W        W32387  26.248  28.833   4.026  0.1218 -0.0577 -0.0501
31524W        W32388  19.490   5.931  25.940  0.0235  0.3064 -0.0912
31525W        W32389   5.062  14.856  17.041  0.1997  0.0249 -0.2004
31526W        W32390   1.481   1.291  25.071 -0.0087  0.1357  0.1610
31527W        W32391  16.754   8.201   1.792 -0.2085  0.2698 -0.2450
31528W        W32392  24.218  15.851  11.899  0.0250  0.2777  0.0962
31529W        W32393   4.709   3.192  21.749 -0.2351 -0.0881 -0.0590
31530W        W32394  18.703   1.483   3.764  0.3033  0.3858 -0.0152
31531W        W32395  15.708  10.949  28.771 -0.0717 -0.1865  0.1957
31532W        W32396  28.775  24.989  18.184 -0.3375 -0.3116 -0.0105
31533W        W32397  11.342   1.588   1.832  0.1192  0.1571  0.1573
31534W        W32398  20.265  11.406   8.132  0.0194 -0.1991  0.0711
31535W        W32399   3.311   2.393  16.587 -0.1427 -0.2560  0.0025
31536W        W32400  15.787  20.984   5.777 -0.1371 -0.0710 -0.1405
31537W        W32401   0.262  13.578  17.717  0.2971  0.1729 -0.1021
31538W        W32402  28.754  27.943   9.084 -0.2548 -0.0513  0.3588
31539W        W32403  14.098  27.999  10.861 -0.0755  0.1325  0.3280
31540W        W32404   7.914  23.995  26.265 -0.1554 -0.2906 -0.3012
31541W        W32405   8.606  22.232  22.574 -0.0678 -0.0957  0.2004
31542W        W32406  21.718  21.198   9.385 -0.1913  0.3012  0.0694
31543W        W32407  28.693  20.861  16.287  0.1217 -0.1950 -0.2946
31544W        W32408  14.914  13.664  21.533  0.0114 -0.2044  0.0721
31545W        W32409   0.621  17.938  28.481  0.0508 -0.1889 -0.0648
31546W        W32410  24.709   0.386  22.812  0.1472 -0.3326  0.0983
31547W        W32411   8.128  19.703  14.342  0.1154  0.0273 -0.2454
31548W        W32412   1.393  23.880  24.144 -0.0051 -0.1178  0.2528
31549W        W32413  12.079   5.180   7.338 -0.0811  0.0653 -0.1263
31550W        W32414   8.709  20.352   4.936 -0.0405  0.2043 -0.0947
31551W        W32415  27.401   1.564  21.780 -0.0271  0.2690  0.1184
31552W        W32416   5.203  26.060  22.388  0.2394 -0.1800  0.1762
31553W        W32417  11.418  18.377   1.206  0.0536  0.0569  0.2115
31554W        W32418  11.113  20.199  25.878  0.1752  0.1148 -0.0471
31555W        W32419  19.383  13.300   1.965  0.1851  0.1827 -0.0166
31556W        W32420   3.678   0.979   2.444  0.2310  0.0975  0.0854
31557W        W32421  26.685  22.152  17.866 -0.0561 -0.0717 -0.2680
31558W        W32422  11.540   0.699  14.912 -0.2296  0.1495  0.1711
31559W        W32423  16.495  27.843  13.192 -0.1375  0.2129 -0.2922
31560W        W32424   1.777   7.238  28.393 -0.1682  0.2492  0.0258
31561W        W32425  16.460   1.248  18.139 -0.2966 -0.2497  0.1618
31562W        W32426  24.570  28.920  23.514  0.1471  0.3703 -0.2277
31563W        W32427  27.078  14.995  26.680 -0.1134 -0.2237  0.1082
31564W        W32428  10.589  13.965  20.987 -0.4724 -0.0187  0.2308
31565W        W32429  27.410   0.569  28.976 -0.1489  0.0357  0.1864
31566W        W32430  12.056   8.005  22.291  0.1239 -0.1394  0.3062
31567W        W32431  24.931   9.734  10.471 -0.4904 -0.0475 -0.0796
31568W        W32432   8.465   0.465  23.705 -0.2466 -0.1598 -0.1232
31569W        W32433   1.570  15.381  22.967  0.0482 -0.1706 -0.1622
31570W        W32434   2.439  26.094  25.900 -0.0323 -0.1591  0.1416
31571W        W32435  18.119  17.428   9.663 -0.0759 -0.0418  0.1425
31572W        W32436  22.474  11.475  27.693  0.1712 -0.3642 -0.2396
31573W        W32437   0.402  28.798   3.932  0.1397  0.0290 -0.2588
31574W        W32438   5.841  17.308  15.012  0.0123 -0.0255  0.0452
31575W        W32439  20.946  13.399  15.718  0.2370 -0.1841  0.1531
31576W        W32440  22.001   3.860  22.316  0.0623 -0.0254 -0.0158
31577W        W32441   0.343  25.550  25.475 -0.0210 -0.1943 -0.0048
31578W        W32442   3.863   1.596  14.181  0.0766 -0.1024  0.1247
31579W        W32443   6.203   7.172   5.785 -0.1113  0.0043  0.5701
31580W        W32444  10.438  25.882   0.668  0.2048 -0.2244 -0.1523
31581W        W32445   9.786  13.578  15.914 -0.0300 -0.1862  0.2165
31582W        W32446  16.433  10.188  20.817 -0.2102  0.0390  0.0761
31583W        W32447   7.965  19.584  15.496 -0.1348  0.1092  0.2571
31584W        W32448  10.879   8.549  28.251  0.0003 -0.0896  0.0144
31585W        W32449   9.821  10.888  16.167  0.2199  0.1246  0.0944
31586W        W32450   0.167  22.765  16.524 -0.1568 -0.0485 -0.0300
31587W        W32451  22.474   3.959  17.608  0.1108  0.1474  0.1064
31588W        W32452  21.874  24.955  14.788 -0.1530 -0.0898 -0.0069
31589W        W32453   0.630   7.636   6.954 -0.0268 -0.2539 -0.0206
31590W        W32454  21.702  20.205   5.042 -0.0844 -0.3237  0.1202
31591W        W32455  21.519  10.450  24.847 -0.1352  0.0588 -0.1451
31592W        W32456   2.430  15.017  20.459  0.0429  0.0937 -0.2283
31593W        W32457   8.359   4.946  15.295  0.0174  0.1439 -0.0674
31594W        W32458   6.276  25.122  16.482  0.1592  0.1471  0.1314
31595W        W32459   3.601   2.693  27.083  0.2425  0.3322 -0.0113
31596W        W32460   6.226  27.517  21.680 -0.1081 -0.0306 -0.2027
31597W        W32461   6.463  13.554   9.318 -0.1960  0.2612  0.1661
31598W        W32462   4.403  15.591  19.251 -0.1053 -0.0072 -0.1480
31599W        W32463  19.387  25.929  10.170 -0.0956  0.1656  0.0999
31600W        W32464  17.399  11.275  23.072 -0.3022  0.1184  0.2163
31601W        W32465   3.651  22.830  10.028  0.2730  0.1574 -0.1525
31602W        W32466   7.795   3.741  17.215  0.0801 -0.0814  0.1966
31603W        W32467   0.259  27.559   1.840 -0.3506  0.0946  0.0457
31604W        W32468  11.172  14.500  25.462  0.0030  0.2102  0.0453
31605W        W32469   2.967  19.358  14.393  0.2455  0.0827 -0.2354
31606W        W32470  21.564  21.997  28.442  0.0386 -0.0930  0.0259
31607W        W32471   4.177   1.647  22.460  0.2934 -0.0430  0.2640
31608W        W32472  27.583  20.821  20.423 -0.1160 -0.1583 -0.2486
31609W        W32473   5.686   5.212  22.768  0.2512  0.4403 -0.1620
31610W        W32474  23.701  24.568  15.424 -0.0594  0.1608  0.1409
31611W        W32475   1.766  27.114  27.987  0.0063 -0.0241 -0.0554
31612W        W32476  26.246  18.642  12.090 -0.2366  0.1569 -0.0448
31613W        W32477   7.151   8.200   6.776 -0.0835  0.2756  0.0883
31614W        W32478  21.588   8.311  17.930 -0.2249  0.0646 -0.0503
31615W        W32479  22.850   2.272  13.324 -0.0872  0.0868 -0.1115
31616W        W32480  25.534  16.319  22.718  0.1255 -0.0526  0.5039
31617W        W32481  21.772  22.320   3.564  0.0370  0.0077 -0.2399
31618W        W32482  12.756  21.607  10.297  0.1994 -0.0520 -0.1027
31619W        W32483  18.785   0.775  24.301  0.0155 -0.1284  0.0047
31620W        W32484   2.744  27.316  24.992  0.1237  0.1908  0.2448
31621W        W32485   1.653  19.562  14.390  0.0251  0.2206 -0.3511
31622W        W32486  24.664   4.531   7.661 -0.0207  0.0305  0.0008
31623W        W32487   4.100   8.678  13.215 -0.0880 -0.0230  0.2242
31624W        W32488  16.053   1.976  19.203  0.0876 -0.2422 -0.0043
31625W        W32489  10.993  26.991   8.741 -0.0469  0.1954  0.2422
31626W        W32490  18.105   7.655   7.141  0.0701  0.0893  0.2110
31627W        W32491  13.490   3.340  25.440 -0.0961  0.0041  0.2800
31628W        W32492  15.962   2.972  21.727 -0.1767  0.1286  0.0784
31629W        W32493  19.563   8.805  21.264 -0.1747 -0.1847  0.0116
31630W        W32494   3.036  15.236  10.813  0.1132  0.1811 -0.1028
31631W        W32495   5.097  20.185  19.350 -0.1531  0.1708  0.1720
31632W        W32496  27.470  10.374  28.983  0.2509 -0.0853  0.2113
31633W        W32497   3.315  25.945   6.440 -0.0784 -0.1258  0.2296
31634W        W32498  15.422   8.047  17.694 -0.1923 -0.0108 -0.1431
31635W        W32499  25.064  14.450   2.088 -0.1020 -0.1170 -0.0848
31636W        W32500  20.084   2.302  18.773 -0.0430 -0.1031 -0.2036
31637W        W32501  16.986   4.196   3.853 -0.4037  0.0574 -0.0580
31638W        W32502  10.215  22.616  10.799  0.2132  0.1370 -0.0823
31639W        W32503  28.247  20.855  23.037 -0.0889 -0.1389 -0.1517
31640W        W32504  22.311   3.850   1.679 -0.2074 -0.3114 -0.2909
31641W        W32505   1.728  13.865  17.186  0.2896  0.2556  0.0710
31642W        W32506   1.388  22.337  28.075  0.1034  0.3120  0.1134
31643W        W32507  16.482   4.882   0.127 -0.0020  0.0860 -0.0255
31644W        W32508   3.464  18.199  23.140  0.2200  0.1144 -0.1367
31645W        W32509  10.448  17.088  17.165  0.2800  0.4251  0.0921
31646W        W32510  22.883  11.615  18.814  0.0573 -0.1526 -0.1599
31647W        W32511  12.825  20.499   1.221 -0.3122 -0.0656  0.2344
31648W        W32512   2.001   5.109  20.578  0.0552  0.0033  0.3119
31649W        W32513  25.354   3.488   7.344  0.0708 -0.0051 -0.0486
31650W        W32514  14.718   2.313  24.509 -0.0816 -0.0316  0.2775
31651W        W32515  20.566  16.751   0.263  0.2170 -0.0724 -0.0170
31652W        W32516  15.018  11.189  19.118  0.0327 -0.0927 -0.0260
31653W        W32517  18.095  20.110   0.144 -0.2877 -0.4237 -0.2146
31654W        W32518   5.073  24.971  25.335 -0.1685  0.0607  0.3072
31655W        W32519   1.678  17.555  24.210  0.0175  0.0934 -0.0865
31656W        W32520  25.642   1.573   2.743 -0.3185  0.1918  0.0197
31657W        W32521   0.423  28.024  11.543 -0.0348 -0.1990  0.1376
31658W        W32522   2.020   1.964   8.281 -0.0073  0.2900 -0.3669
31659W        W32523  22.278  10.786  27.712  0.0796  0.0531  0.1570
31660W        W32524  12.266  12.603  24.212 -0.3664  0.0793  0.2098
31661W        W32525   3.668   0.665   0.115  0.1067  0.1485 -0.1348
31662W        W32526  20.135  13.378  13.760 -0.2480 -0.1042  0.0417
31663W        W32527  18.015  13.741  16.874 -0.0804 -0.3113  0.1878
31664W        W32528  18.606  28.732  23.764  0.3457 -0.1607  0.0478
31665W        W32529   4.021  10.797  18.163  0.3461  0.0706  0.2919
31666W        W32530   4.853  18.884  21.142 -0.2127  0.5023 -0.1050
31667W        W32531  16.151   9.421  20.105 -0.2693  0.1015  0.1597
31668W        W32532   4.159  15.089  26.764 -0.1380  0.2281  0.2643
31669W        W32533  16.941  28.575  27.997  0.3128 -0.0218 -0.0430
31670W        W32534  28.772   6.542  18.316 -0.1158 -0.1292 -0.0004
31671W        W32535  14.328  28.236   4.905 -0.0540 -0.2041 -0.1187
31672W        W32536  14.656   0.789  13.791  0.2188  0.0639  0.2482
31673W        W32537  22.448  12.895  20.614  0.2429 -0.2343 -0.0400
31674W        W32538  28.510  21.453  27.719 -0.1250 -0.0381 -0.1943
31675W        W32539  22.876  21.155   9.200  0.0713 -0.2693 -0.0645
31676W        W32540   2.491   9.396  16.213 -0.2522 -0.0677  0.1238
31677W        W32541  27.120  19.750  22.451  0.0731 -0.0052 -0.0735
31678W        W32542  23.418   3.439  27.567  0.0456  0.1344  0.3245
31679W        W32543   3.882   6.132   5.673 -0.1871  0.2147  0.1112
31680W        W32544  23.077   3.538  11.837  0.0658  0.0338 -0.3271
31681W        W32545   4.661   0.136  28.334 -0.1422  0.1942  0.0024
31682W        W32546  21.696   1.201   8.816 -0.0489  0.1495 -0.1762
31683W        W32547   8.444  15.697  20.479  0.2360 -0.0308  0.0100
31684W        W32548  16.888  23.967  28.101  0.2458 -0.3908 -0.0180
31685W        W32549   8.655  11.186  15.406 -0.0111 -0.1380  0.2389
31686W        W32550   6.470  17.528   7.264 -0.3506 -0.3572 -0.0214
31687W        W32551   4.642  24.524   5.029 -0.1192 -0.0774  0.0782
31688W        W32552   7.046   0.658  10.467  0.0278 -0.1630  0.1558
31689W        W32553  23.421  13.093  24.772  0.2549  0.0349 -0.1838
31690W        W32554  25.995   8.824  28.910  0.2899  0.1436 -0.0047
31691W        W32555  13.645  22.623  27.596 -0.1447  0.1427 -0.0792
31692W        W32556   8.176   0.203  25.909  0.0328 -0.1680  0.0495
31693W        W32557   9.712   4.577  21.273 -0.3001 -0.2058  0.0790
31694W        W32558   1.052  25.896  19.530 -0.0874 -0.2002 -0.1083
31695W        W32559   5.445  13.720  25.773 -0.2119  0.0120  0.0366
31696W        W32560  24.178  12.149  25.024 -0.0779 -0.1394 -0.0092
31697W        W32561   9.991   6.404  25.435 -0.3471  0.1041  0.1512
31698W        W32562   5.217   8.600  26.610  0.1742  0.1128 -0.1326
31699W        W32563  22.128  29.031   4.111  0.2141 -0.1409 -0.1656
31700W        W32564   5.821  20.762   1.724  0.1458  0.3765 -0.1112
31701W        W32565  18.966  10.251  21.225  0.1577  0.1740  0.0859
31702W        W32566   5.126  27.301  11.355 -0.0961  0.2896 -0.0201
31703W        W32567  18.709  22.322   9.828  0.1488 -0.0474  0.2938
31704W        W32568   0.012  14.927  23.818  0.2281  0.0678  0.1813
31705W        W32569  10.505   4.149  17.649  0.1462 -0.2624 -0.1938
31706W        W32570  20.278  21.342  16.692  0.1282 -0.0215 -0.1096
31707W        W32571  15.275   6.077  17.259  0.2501  0.2502 -0.1819
31708W        W32572  19.179  12.156   4.902  0.1745  0.2286  0.2612
31709W        W32573   0.619   8.068  27.747  0.1105 -0.1676 -0.2448
31710W        W32574  17.867   3.261   3.572  0.2268  0.1398  0.3348
31711W        W32575  25.438   3.154   0.919  0.0219 -0.3323  0.1235
31712W        W32576   7.734  26.331  17.698 -0.3366 -0.1090  0.1613
31713W        W32577  26.777  29.051  26.375 -0.1621 -0.3047  0.1109
31714W        W32578   6.819  22.835  29.126  0.0951  0.0010 -0.0778
31715W        W32579  27.973  19.541  16.662 -0.1764 -0.3365 -0.0059
31716W        W32580   6.244  10.852   6.245 -0.0702  0.1973  0.2611
31717W        W32581  18.646   3.988  14.215 -0.1512  0.1215 -0.1193
31718W        W32582  20.865  11.989  23.091 -0.2517  0.0427 -0.1087
31719W        W32583  14.577   7.856  22.113 -0.1775  0.1866 -0.1677
31720W        W32584   5.422   9.332  22.973 -0.2954 -0.2879 -0.1991
31721W        W32585   1.164   0.315  13.833 -0.2742 -0.2221 -0.0801
31722W        W32586  16.982   7.142   2.885 -0.2769  0.1183  0.4509
31723W        W32587   6.168  15.016  14.324 -0.0709  0.4184 -0.0205
31724W        W32588  28.587   4.466  22.786  0.1091  0.1200  0.1664
31725W        W32589  21.898  20.812  21.188  0.3200  0.0785 -0.1593
31726W        W32590  28.962   7.641  18.830 -0.1720 -0.4697 -0.2578
31727W        W32591   8.715  23.353  15.691 -0.0983 -0.0647 -0.0268
31728W        W32592   3.256  28.997  24.709 -0.2001  0.3529  0.0902
31729W        W32593   9.978  21.930  16.206  0.2353 -0.0598  0.0559
31730W        W32594   5.293  26.508   4.426  0.2255 -0.0777  0.0488
31731W        W32595  11.180   1.878  28.706  0.3077 -0.2219  0.0440
31732W        W32596  15.713  14.255   0.867  0.2227 -0.0146 -0.0181
31733W        W32597  10.403   5.671  12.790  0.0402 -0.0798  0.0913
31734W        W32598  18.070  21.754   8.564  0.2477 -0.0369  0.0293
31735W        W32599  10.515  18.149   0.884  0.2443  0.2909  0.2352
31736W        W32600  14.431  13.527  14.861 -0.2140  0.0960 -0.0474
31737W        W32601  17.313  18.907   7.690 -0.0646 -0.0200  0.1208
31738W        W32602   6.281   8.642   9.561 -0.0993  0.2260  0.1895
31739W        W32603   9.781   9.971  25.952  0.1509 -0.0320  0.1266
31740W        W32604   4.750   4.134  17.391 -0.0547  0.2462  0.2044
31741W        W32605  20.008   1.138  22.794 -0.1340  0.3359  0.1873
31742W        W32606   0.781   3.182   5.204  0.3056  0.2876 -0.1853
31743W        W32607   0.933  18.310  11.903  0.3667  0.3270  0.1822
31744W        W32608   2.329  11.235  14.309  0.0191 -0.1262 -0.1732
31745W        W32609  24.819   9.147  17.999 -0.1911 -0.3137  0.0392
31746W        W32610  18.111   3.169  18.379  0.0618 -0.0883 -0.0697
31747W        W32611   1.568  16.486  23.591 -0.1594  0.2802 -0.2494
31748W        W32612  27.830  18.418  12.668  0.0094  0.3837 -0.0972
31749W        W32613  14.752  12.714  28.276  0.1128  0.5672  0.0424
31750W        W32614  21.023   8.695  28.248  0.0749 -0.3627  0.3774
31751W        W32615   2.452  11.236  17.421  0.0600  0.0182 -0.0628
31752W        W32616  27.917  23.200  20.160  0.2023 -0.0915  0.3770
31753W        W32617  24.170   9.133  24.475 -0.1261  0.0084  0.0463
31754W        W32618  11.658   8.551   7.181 -0.0344  0.1142  0.0857
31755W        W32619  17.121  20.222  19.805  0.2424  0.0166  0.3513
31756W        W32620  23.601   3.031  25.107  0.0101 -0.0026 -0.0416
31757W        W32621   5.570  14.809  20.632  0.0375 -0.2580  0.2404
31758W        W32622   0.597  25.150  24.326  0.1371 -0.0475 -0.0436
31759W        W32623  15.453  25.739   3.288  0.5130  0.2600 -0.1762
31760W        W32624   4.662  12.021  14.545  0.2701 -0.0168 -0.0432
31761W        W32625  19.157  25.098  12.761  0.0813 -0.2648  0.1944
31762W        W32626  18.223  19.940  16.029  0.1622  0.0821  0.1331
31763W        W32627   2.891   6.395   2.871  0.0061 -0.1421 -0.1444
31764W        W32628   9.619  17.622   5.532  0.2168  0.0516 -0.1800
31765W        W32629   6.527   9.978   9.816  0.3690 -0.2022  0.1481
31766W        W32630  10.368  28.531  19.828 -0.0497  0.1484 -0.0591
31767W        W32631  12.575   3.489  22.858  0.2551 -0.0079  0.0170
31768W        W32632  25.666   6.876  14.904 -0.1125 -0.3320  0.1468
31769W        W32633   3.775   6.711  18.747  0.0856  0.2506  0.0442
31770W        W32634   5.297  25.052   5.002  0.1886 -0.2529 -0.1507
31771W        W32635  13.629  20.048   6.620  0.0230 -0.2355  0.2868
31772W        W32636   6.519  28.931   3.871 -0.1269 -0.1330  0.3048
31773W        W32637  19.145  19.804   3.471  0.0107  0.0682  0.1663
31774W        W32638  10.399   1.061  21.287  0.3796  0.1705 -0.3021
31775W        W32639  13.923  13.857   6.710  0.0013 -0.1904 -0.1095
31776W        W32640   8.757   3.952   3.197 -0.0226 -0.0570  0.0887
31777W        W32641  22.066   0.341   0.057  0.1569  0.2738  0.1906
31778W        W32642  12.712  26.632  15.509  0.2815 -0.1412 -0.0849
31779W        W32643   5.370   2.524   7.911  0.0461 -0.0156 -0.1014
31780W        W32644  19.190  23.551  25.115 -0.0946 -0.1199  0.4168
31781W        W32645  14.625  15.613  24.133  0.0392  0.0200 -0.3542
31782W        W32646  19.940   3.881  27.796 -0.3283  0.0970 -0.1404
31783W        W32647   4.481  22.814   3.453  0.2565 -0.1244 -0.1462
31784W        W32648  14.460  21.661  12.048  0.0535  0.1349 -0.1812
31785W        W32649  10.091  13.003  13.240 -0.3239 -0.0927 -0.1974
31786W        W32650  28.217  24.003   8.430 -0.1513 -0.0909 -0.1379
31787W        W32651   9.400   2.511  14.970  0.0884 -0.0704  0.0761
31788W        W32652   3.433  27.949   1.210 -0.0768  0.0762  0.2039
31789W        W32653   9.479   2.470  26.605 -0.0059  0.2092 -0.0657
31790W        W32654  28.488   7.733  29.086 -0.1854 -0.2376 -0.0271
31791W        W32655   0.752  27.422   9.966 -0.1985 -0.2551 -0.1631
31792W        W32656  26.677  26.829   5.330  0.0193 -0.4352 -0.2536
31793W        W32657   9.568  19.140  26.091  0.3868 -0.0318  0.3222
31794W        W32658   3.864  17.371  22.177 -0.0357  0.0300  0.1151
31795W        W32659   4.008   6.459  12.969  0.0730 -0.0848 -0.3530
31796W        W32660   0.467   8.567   9.426  0.0070 -0.3582 -0.4565
31797W        W32661   3.915   5.519  21.149  0.3571 -0.2040  0.1049
31798W        W32662  19.688   2.461   7.842 -0.3768  0.0271  0.0848
31799W        W32663  13.896  18.553   1.271 -0.2085 -0.1156 -0.0772
31800W        W32664  16.619  11.622  15.862 -0.2114 -0.0597  0.0746
31801W        W32665  22.060  18.277  28.281 -0.1753 -0.1161 -0.1487
31802W        W32666  27.168   3.689  16.682 -0.3287 -0.0147 -0.0345
31803W        W32667  20.688  16.940  19.210  0.2565  0.0544  0.1404
31804W        W32668  13.078  23.347  23.011 -0.1221 -0.0255 -0.0722
31805W        W32669   6.092  25.023   1.798 -0.0182 -0.4971  0.0720
31806W        W32670  24.979   5.780  27.326 -0.2866  0.0330 -0.0649
31807W        W32671  18.243   1.514   3.937 -0.1450 -0.1467  0.0332
31808W        W32672  20.943  27.691   0.727  0.1474  0.0540  0.2466
31809W        W32673   9.970  25.599  15.605 -0.2875 -0.1326 -0.1485
31810W        W32674   9.202  10.744   9.107  0.3736  0.0390  0.1158
31811W        W32675   7.239  12.243  22.166  0.1996 -0.1238  0.3576
31812W        W32676  16.272   5.864  15.716 -0.0704  0.0335  0.1015
31813W        W32677  19.650  23.676   7.047 -0.1148  0.2106 -0.2790
31814W        W32678  12.800  18.119  27.512 -0.3279 -0.1935 -0.0950
31815W        W32679  13.796   6.739  28.066  0.1034 -0.0384 -0.2961
31816W        W32680  24.650  19.800  19.442 -0.2597  0.0681  0.2500
31817W        W32681  21.678   3.890  17.224  0.0930 -0.3293 -0.2813
31818W        W32682   2.851  19.003   9.359  0.2906 -0.1906  0.1281
31819W        W32683   2.925  26.100   0.287 -0.2620 -0.0955 -0.3114
31820W        W32684  14.145  17.482   1.235 -0.0661  0.1625  0.0340
31821W        W32685  28.289  26.782   3.054  0.0082 -0.0200 -0.0069
31822W        W32686  27.823   1.524   6.220  0.2912  0.2925 -0.1304
31823W        W32687   3.286  23.663  15.465 -0.3171  0.2130  0.1344
31824W        W32688  24.554   5.878  16.943  0.1337  0.2587 -0.3257
31825W        W32689  28.986   5.652  22.921 -0.0560 -0.0049 -0.0680
31826W        W32690   5.172   6.055  17.832  0.2940  0.3075 -0.1974
31827W        W32691  27.537  19.751  27.265  0.0560  0.0500  0.1085
31828W        W32692  26.031  20.022   2.501  0.2309 -0.1729  0.0490
31829W        W32693  15.888  15.393  26.932 -0.0444 -0.1803  0.0507
31830W        W32694  13.397  12.409   3.602  0.0197  0.0855  0.0820
31831W        W32695  19.110   6.445  28.220  0.1860  0.1688  0.1635
31832W        W32696   2.314   5.980  18.139 -0.0272  0.3189  0.3168
31833W        W32697   3.113  28.568  26.674  0.0409 -0.0944 -0.1361
31834W        W32698  10.715  23.841  12.612  0.0343 -0.2204  0.1816
31835W        W32699  29.032  12.053   5.092 -0.2476  0.0656 -0.1237
31836W        W32700  15.576  14.374  23.511  0.0402  0.3212  0.0985
31837W        W32701  11.061  18.716   1.301  0.0521  0.2845 -0.2784
31838W        W32702   7.240  20.254  13.217  0.0397 -0.0904 -0.0410
31839W        W32703   9.894   7.302  25.375  0.2267  0.1699 -0.1765
31840W        W32704  14.233  20.936  12.681 -0.1980 -0.2808  0.0644
31841W        W32705  28.002   1.605  26.921  0.0369 -0.3603 -0.2721
31842W        W32706   3.753   5.979   3.643  0.3571  0.1862  0.1246
31843W        W32707  28.365   5.157   8.330  0.1898  0.2521  0.1347
31844W        W32708  22.974  18.233  19.237  0.2003  0.1626  0.4135
31845W        W32709  16.664   4.502   3.075  0.1150  0.2837 -0.2312
31846W        W32710  26.084   9.008   3.752  0.0159 -0.0374 -0.0359
31847W        W32711   8.436   1.615  14.630  0.1572  0.2810 -0.4585
31848W        W32712  23.130  14.620  23.002 -0.0931  0.2859  0.0686
31849W        W32713  16.095  11.703  11.219  0.2157 -0.1059 -0.0261
31850W        W32714   2.446  23.541  25.916 -0.4085  0.2651 -0.2224
31851W        W32715  22.530   1.849  28.124  0.2228 -0.0059 -0.0771
31852W        W32716  21.714  26.355  23.784  0.0989  0.1515 -0.3605
31853W        W32717  27.455  15.075  15.338 -0.2028  0.0467 -0.0019
31854W        W32718   4.500  23.642  27.937 -0.2649  0.0083 -0.1735
31855W        W32719  27.142   6.947  27.283  0.1161  0.0380 -0.0444
31856W        W32720   2.518  22.508  22.582  0.1274  0.1453 -0.0122
31857W        W32721   0.579  16.921  28.884  0.1916 -0.2202 -0.2533
31858W        W32722  20.680   7.339  22.288  0.1329 -0.1098  0.2242
31859W        W32723  25.660  20.276  22.554  0.3339 -0.0520 -0.2986
31860W        W32724  24.433  20.879  12.182 -0.1574  0.3569  0.0719
31861W        W32725  21.675  10.840  13.489 -0.2967 -0.2063  0.0824
31862W        W32726  19.484  27.932  23.570  0.0974 -0.0339  0.3669
31863W        W32727  10.222  15.880  24.755 -0.0522  0.2850  0.3126
31864W        W32728   4.793  17.575  11.829  0.2065  0.1996 -0.0205
31865W        W32729   7.955  13.146   1.918  0.0594 -0.0700 -0.0345
31866W        W32730   3.727   4.942   6.691  0.0533  0.3648  0.0505
31867W        W32731  12.803  29.059   8.899 -0.0023 -0.1651  0.2013
31868W        W32732  27.120  28.138  10.559  0.0798  0.1861  0.1946
31869W        W32733  25.072   7.056  14.965  0.1313 -0.3434 -0.1250
31870W        W32734  25.450  23.194  11.527  0.0036  0.0019  0.0641
31871W        W32735  17.504   7.066   1.119 -0.1747 -0.0566  0.0157
31872W        W32736   6.651   1.012  28.160 -0.0934 -0.0124 -0.0775
31873W        W32737  21.802  25.680  18.095 -0.0748  0.2160  0.0660
31874W        W32738  21.453   1.768   8.820 -0.0984  0.2910  0.3598
31875W        W32739  11.813  10.347  24.308  0.0905 -0.3036 -0.2564
31876W        W32740  11.422  28.139  20.478  0.0496 -0.1117  0.2368
31877W        W32741  17.680  15.966  20.533 -0.1273  0.0545 -0.1767
31878W        W32742  28.267   4.730   2.384 -0.1024 -0.3091  0.1618
31879W        W32743  28.575  13.361  17.095 -0.2105 -0.1110  0.1557
31880W        W32744  17.912  20.956  23.412  0.0605  0.1994 -0.3300
31881W        W32745  10.090   0.303   4.632  0.0132  0.3443  0.0472
31882W        W32746   5.837  12.023  25.678 -0.1551  0.3035 -0.0813
31883W        W32747  26.900  17.985   5.386  0.3836 -0.0422  0.1024
31884W        W32748  27.754  11.286   4.845  0.1501  0.1730 -0.2258
31885W        W32749  14.562  18.971  22.620  0.1336  0.0682 -0.1776
31886W        W32750  20.436   2.440   8.337  0.0712  0.1054 -0.0094
31887W        W32751  25.480  27.474   4.275 -0.2173 -0.2292  0.0765
31888W        W32752  10.237  23.379  19.839  0.1670  0.2410  0.2350
31889W        W32753  21.152  25.058  12.214 -0.1870  0.0250  0.0661
31890W        W32754  22.521   8.508   6.016  0.3610  0.1059  0.2455
31891W        W32755   4.170  16.185  25.970 -0.2041  0.4925 -0.2044
31892W        W32756   1.133  22.855   3.431  0.1746 -0.0583  0.0172
31893W        W32757  10.549  21.428  17.934 -0.1118  0.3077 -0.0306
31894W        W32758  27.811  26.605  19.260 -0.2650 -0.0348 -0.0182
31895W        W32759  15.909  10.129  12.925 -0.1658  0.0316 -0.0239
31896W        W32760   6.380  12.121   0.712 -0.0702 -0.2208  0.0658
31897W        W32761  12.011  23.573  13.698  0.0405 -0.1232  0.0915
31898W        W32762   8.947   4.334   0.993  0.0598  0.1008 -0.0451
31899W        W32763  11.736   5.304   4.311  0.1793 -0.0318 -0.2001
31900W        W32764  12.717  14.753  13.951 -0.1474  0.1116 -0.0222
31901W        W32765  11.474  23.499   2.885  0.1710  0.1502 -0.3061
31902W        W32766  27.926  14.624  27.245  0.1840  0.0719  0.1085
31903W        W32767   2.615  12.443  27.097  0.1823  0.0668 -0.2529
31904W        W32768  22.414  19.308  25.649  0.0584  0.2119 -0.0756
31905W        W32769  27.710   4.038  14.795 -0.0218 -0.1008  0.1004
31906W        W32770   1.347  11.228  25.084  0.1068  0.1078 -0.2249
31907W        W32771  13.769  11.883  18.985 -0.1070  0.2129  0.4648
31908W        W32772  19.408  12.309  20.609  0.0446  0.0232  0.2281
31909W        W32773  12.104  25.343  17.010  0.0477 -0.1302 -0.0208
31910W        W32774   6.258   7.404  28.673 -0.0062  0.2029  0.0737
31911W        W32775  25.996  12.176  20.177 -0.1503 -0.0266  0.1145
31912W        W32776   4.785   3.730   2.889  0.1531  0.0551  0.0523
31913W        W32777   5.360   3.899  16.041 -0.1652 -0.1101 -0.1491
31914W        W32778   3.979   8.713   7.574 -0.1304  0.1018  0.1134
31915W        W32779  28.086  27.697  19.173 -0.0270 -0.0134 -0.2711
31916W        W32780   5.607   5.532  23.374 -0.1887  0.0203 -0.0528
31917W        W32781  11.533  13.385  17.535 -0.1289  0.1266  0.0199
31918W        W32782   3.346  10.728   3.913 -0.2356  0.2033 -0.0827
31919W        W32783  12.689  26.482  27.360 -0.0614 -0.2296 -0.0459
31920W        W32784   3.292  27.752  18.609 -0.1870  0.1909  0.1918
31921W        W32785   7.481  16.238   5.514  0.3978  0.2185 -0.2976
31922W        W32786   4.788   2.053  20.188  0.0089 -0.0790 -0.0019
31923W        W32787   9.894   3.546   6.816  0.1172  0.1982  0.2286
31924W        W32788   5.416  11.021   5.536 -0.0994 -0.0509  0.0720
31925W        W32789   1.793   3.475   4.058  0.0700 -0.0020  0.2486
31926W        W32790  10.012  11.972  21.447 -0.2179  0.2126  0.0263
31927W        W32791  20.158  25.660   5.087  0.0931  0.0180  0.1308
31928W        W32792  15.833  10.402  26.960 -0.0927 -0.3363  0.1051
31929W        W32793  26.438  20.318  11.591 -0.0189 -0.3347  0.1863
31930W        W32794   7.333   7.736   3.093  0.1678 -0.1264 -0.1389
31931W        W32795  26.392  12.418   2.400  0.0601 -0.1931  0.1947
31932W        W32796  12.514   1.802  24.633 -0.2727 -0.2159  0.3164
31933W        W32797  21.928  27.675  11.252  0.1292 -0.0540  0.0761
31934W        W32798   1.065   3.797   1.599 -0.0132 -0.1877  0.3498
31935W        W32799   3.064   0.069   6.622  0.3745 -0.2284 -0.1100
31936W        W32800  26.345   6.070  15.674 -0.1978  0.0133  0.2210
31937W        W32801  17.477   4.397  21.769  0.0276  0.3076 -0.0519
31938W        W32802  16.319  16.391  22.200  0.0982  0.0502  0.2735
31939W        W32803  24.088  14.417  14.699  0.1833 -0.0560  0.0006
31940W        W32804   5.993   6.765  16.502  0.0577  0.1852  0.0911
31941W        W32805   0.025  12.437  15.535 -0.1452  0.2557 -0.1153
31942W        W32806  21.191  27.248  28.395 -0.1528  0.4293  0.3013
31943W        W32807  18.381  16.010  13.104 -0.2717 -0.1580 -0.0465
31944W        W32808  10.075   2.811   0.752 -0.0231  0.1617  0.0338
31945W        W32809   5.327  12.106  20.722 -0.0700 -0.1958 -0.1636
31946W        W32810   4.065  23.570  10.600  0.0019  0.3769  0.0539
31947W        W32811  26.188   4.629  25.649  0.5207  0.0081 -0.2431
31948W        W32812  14.087   3.560   6.788  0.1226 -0.0801  0.3951
31949W        W32813   0.264   6.973  20.123  0.3935 -0.1386  0.0149
31950W        W32814   5.135  28.554  25.928 -0.1444  0.0452  0.0458
31951W        W32815   2.793  10.049  17.976  0.1758  0.2622 -0.4536
31952W        W32816  21.515  10.007  17.133 -0.0164 -0.4833 -0.2319
31953W        W32817  24.888   3.706   1.322  0.2128 -0.0756 -0.0855
31954W        W32818   3.298  27.107  27.763 -0.1756  0.0451  0.1171
31955W        W32819   2.209  20.587  28.699  0.3942 -0.0089 -0.0122
31956W        W32820  14.149   7.018  28.314  0.0688  0.0155  0.0670
31957W        W32821  21.869  26.501  26.138  0.3200 -0.1533  0.0108
31958W        W32822   5.353  15.547  16.010  0.3265 -0.0704  0.3463
31959W        W32823  18.816  28.881   7.479 -0.2181 -0.1508 -0.3270
31960W        W32824  18.094   3.706  27.161 -0.0024 -0.0783 -0.2238
31961W        W32825   1.677  26.018   4.299  0.0493  0.1021  0.2235
31962W        W32826  15.078  12.071  29.106  0.1330 -0.0177 -0.1564
31963W        W32827  20.711   3.226  24.961  0.4071 -0.1051  0.0373
31964W        W32828   1.103  16.941  11.952 -0.0543 -0.1084  0.0634
31965W        W32829   8.521  12.512  15.375 -0.1433 -0.2701  0.1503
31966W        W32830   3.749  21.532  17.057 -0.1421 -0.0967 -0.0999
31967W        W32831   7.183  17.783  15.373 -0.0613  0.1608  0.0051
31968W        W32832  17.777   6.616  28.559 -0.0675 -0.1010  0.1577
31969W        W32833   8.352   4.313  28.738  0.2480  0.2647  0.2257
31970W        W32834   4.322  23.808  19.471  0.0991  0.1213 -0.0867
31971W        W32835  11.138   3.888  23.634 -0.3233 -0.2109  0.2635
31972W        W32836  13.349   7.242   6.679 -0.2378  0.1629  0.1574
31973W        W32837   0.690   2.736   2.328 -0.0012  0.0729  0.3150
31974W        W32838  23.540  21.116   0.290 -0.0415  0.1336  0.5380
31975W        W32839  20.493  25.424   2.465  0.0633 -0.0413 -0.1881
31976W        W32840  21.644  23.683   6.373 -0.0630  0.1855 -0.2753
31977W        W32841  28.550  12.059  15.099 -0.1641 -0.0253 -0.0529
31978W        W32842  13.621  19.165  20.375 -0.0796 -0.2177 -0.1182
31979W        W32843   7.044   1.993  22.741 -0.2898 -0.1700  0.2178
31980W        W32844  28.499  27.776  27.370  0.2439 -0.0692  0.0834
31981W        W32845  22.859  18.196   8.364  0.1578  0.1046 -0.0567
31982W        W32846   3.337  13.911  24.541  0.0102  0.1299 -0.2679
31983W        W32847  21.315  17.506  13.229  0.0899  0.1734  0.4920
31984W        W32848   5.236  25.602   9.777 -0.1222  0.0591 -0.1402
31985W        W32849  13.902   3.856  12.491  0.2666  0.0730  0.0065
31986W        W32850   4.584   9.056  22.324 -0.3508  0.0543 -0.0964
31987W        W32851   1.878  24.254  21.909  0.0254 -0.0865 -0.1049
31988W        W32852  22.136  16.007  14.093  0.1012 -0.1304  0.1423
31989W        W32853  26.362  13.578  22.600 -0.3219  0.1581  0.0250
31990W        W32854  14.294  18.621   0.989 -0.2449  0.3122  0.0080
31991W        W32855  11.169  27.775   3.021  0.1686  0.3857  0.0249
31992W        W32856  20.155   1.009  18.216  0.0415 -0.1646 -0.0927
31993W        W32857   5.845   7.409  23.940  0.1469 -0.0740  0.1790
31994W        W32858  15.433  24.997  27.856 -0.1140  0.0771  0.0244
31995W        W32859  23.805   4.750  28.405 -0.0486 -0.4686  0.1474
31996W        W32860  23.577   8.654   1.622 -0.0280 -0.2251  0.2018
31997W        W32861  15.996  28.261   6.276  0.2010 -0.0042 -0.3220
31998W        W32862   7.422  28.754   2.459  0.0344  0.0653  0.1598
31999W        W32863  27.514  19.324  28.045  0.0520 -0.0399  0.0964
32000W        W32864  23.670   8.204  29.144  0.1943  0.0239  0.2132
32001W        W32865   2.374   2.883  25.828 -0.2229 -0.3984  0.0935
32002W        W32866  26.880   3.727  22.076  0.0428  0.3330 -0.0050
32003W        W32867  25.428  26.235   2.004 -0.2033 -0.0493  0.0943
32004W        W32868   2.383   2.516   2.421 -0.0526 -0.1648  0.2383
32005W        W32869  12.138  17.504  17.937 -0.1521 -0.1810  0.0548
32006W        W32870   8.209  13.427  27.695  0.0332 -0.0215 -0.1204
32007W        W32871   8.107   3.313  14.229 -0.0506 -0.1112  0.0358
32008W        W32872  16.410  26.723  21.035 -0.0330  0.0555 -0.3301
32009W        W32873   5.151  26.933  10.035 -0.1115 -0.1926 -0.1620
32010W        W32874  10.134  19.650  27.769 -0.1293  0.0941  0.1011
32011W        W32875  26.730  18.258  15.142  0.1032 -0.0631  0.1712
32012W        W32876   2.103  20.590  20.249  0.0742 -0.0730 -0.0014
32013W        W32877  21.117  24.970  13.918 -0.2971  0.0181 -0.0356
32014W        W32878  10.284  14.876  22.839 -0.2151 -0.0630 -0.0122
32015W        W32879  27.796  23.547   8.275 -0.0473 -0.3209 -0.0406
32016W        W32880  14.441  16.423   2.865  0.0033 -0.1686  0.2560
32017W        W32881   4.068   5.290  26.280  0.0192  0.1441  0.1732
32018W        W32882  28.748   3.661  24.914 -0.3708  0.1664 -0.0785
32019W        W32883  21.073  22.320   6.939 -0.2242 -0.0411  0.1483
32020W        W32884   9.177   1.056  27.587  0.0111  0.3303  0.2571
32021W        W32885   7.089  11.830   9.609  0.0239 -0.2186  0.1501
32022W        W32886   1.516   6.461  20.463 -0.1195 -0.1447  0.3380
32023W        W32887  28.745   5.557  10.192 -0.3614 -0.0341 -0.0061
32024W        W32888   9.797   2.399  27.288  0.0012  0.1979  0.1386
32025W        W32889   7.788  11.710  24.916  0.0886  0.0268  0.1914
32026W        W32890  23.424  16.584  19.004 -0.1464  0.0133 -0.0514
32027W        W32891  25.240  24.150   0.980 -0.1225 -0.0174  0.0888
32028W        W32892  19.869  16.184  20.780 -0.0829 -0.0163  0.0121
32029W        W32893   2.048   8.601   6.475 -0.0940  0.0335 -0.3245
32030W        W32894   9.967  20.566  24.274 -0.3552 -0.1618  0.2834
32031W        W32895   8.002  18.885  23.806  0.0008 -0.1449 -0.3886
32032W        W32896  19.116   2.411  23.532 -0.1062  0.0335 -0.1595
32033W        W32897   5.506  13.763   1.073  0.0609  0.2526  0.1409
32034W        W32898  14.064   4.139   8.924 -0.0860 -0.2884  0.1673
32035W        W32899  25.135  19.938   2.152  0.0660 -0.0457  0.1563
32036W        W32900   1.574  20.131  15.296  0.1226 -0.0645 -0.1128
32037W        W32901   6.550   7.399  20.710  0.2889 -0.0711 -0.2069
32038W        W32902  11.204  14.106  14.390  0.2203 -0.2265  0.2345
32039W        W32903  28.817   6.400  22.479  0.1312 -0.0999  0.4999
32040W        W32904  11.269   5.247   6.635  0.1994 -0.3686 -0.0762
32041W        W32905  24.726  27.457  22.508  0.0884  0.0557  0.0562
32042W        W32906   4.068  11.811   3.142  0.1496  0.3603 -0.4072
32043W        W32907  24.399  27.343   7.234 -0.2755 -0.0704 -0.0613
32044W        W32908  18.941  23.846  28.813  0.0424 -0.0954  0.1062
32045W        W32909   9.785  12.419  15.157  0.0783 -0.2027  0.0659
32046W        W32910  13.061   4.002   7.143 -0.3904 -0.0122  0.1215
32047W        W32911  26.905  23.714  18.055 -0.1456 -0.0674  0.1913
32048W        W32912  17.526   8.332  29.063 -0.2328  0.0363 -0.3666
32049W        W32913   6.093  17.428  21.660  0.1792  0.1629 -0.0849
32050W        W32914   1.030   6.746  27.374 -0.3972  0.2279  0.2069
32051W        W32915  19.508   6.848  26.304  0.2705 -0.1248  0.0136
32052W        W32916  16.878  23.161  28.039 -0.2413 -0.0736  0.1406
32053W        W32917  17.732  12.043   0.779  0.0289 -0.0615 -0.0343
32054W        W32918  22.430   1.184  19.753  0.0485 -0.3139 -0.0300
32055W        W32919  19.589   1.308   3.967 -0.1874  0.0190 -0.2095
32056W        W32920  25.700  21.142  26.832 -0.2253 -0.0586 -0.2151
32057W        W32921   2.883  15.715  26.266  0.0328 -0.2860 -0.0135
32058W        W32922  26.000  14.421  24.583 -0.0062  0.1746 -0.3396
32059W        W32923   6.667   2.046  26.905 -0.0536 -0.0678 -0.0017
32060W        W32924   4.370  25.571  26.684 -0.1445 -0.3082 -0.2839
32061W        W32925   6.876  26.043   7.676  0.1669  0.1878  0.0406
32062W        W32926  13.749   7.285   7.224  0.1142  0.0225  0.0181
32063W        W32927   1.516  27.591   3.238 -0.3756 -0.2468  0.0802
32064W        W32928  18.778  22.524   4.711  0.2438 -0.2439 -0.1292
32065W        W32929   0.634   4.001  12.566  0.1520 -0.0896  0.1941
32066W        W32930  18.024  10.689  22.954 -0.1094 -0.1681  0.1447
32067W        W32931   7.080   3.165  20.910  0.1010 -0.1113 -0.0435
32068W        W32932   5.103   4.998  14.326 -0.0804  0.1335 -0.0077
32069W        W32933   5.320  11.297  21.456  0.2024  0.3108 -0.0708
32070W        W32934   1.418  22.745   2.421 -0.0012  0.0117  0.2201
32071W        W32935   6.190   9.313  27.321  0.1779 -0.0604  0.2381
32072W        W32936   5.443  16.352   4.194  0.1378  0.0436 -0.0475
32073W        W32937   9.259   6.846  25.195 -0.0629  0.1242 -0.2897
32074W        W32938  13.398  25.243  18.334 -0.1019 -0.2085  0.1737
32075W        W32939  13.710   8.121  16.752  0.0058 -0.0390 -0.1435
32076W        W32940  14.506  20.587  12.891 -0.3164 -0.1429  0.1152
32077W        W32941  27.925   1.926   6.857 -0.0700 -0.1180 -0.1698
32078W        W32942   7.794  19.340   0.083  0.2680 -0.1270 -0.2029
32079W        W32943   2.985   4.303  10.559  0.1729  0.2069 -0.0237
32080W        W32944   6.894   5.217   5.558  0.3043 -0.0955 -0.2259
32081W        W32945  15.075   0.012   2.292  0.0251  0.0754 -0.0194
32082W        W32946   7.840  28.296   8.128 -0.3575  0.5514 -0.0309
32083W        W32947   4.439   9.160  14.880 -0.0563 -0.4720  0.0683
32084W        W32948  27.910  28.096  25.594 -0.1342  0.0521 -0.0409
32085W        W32949   2.534  24.311  27.142  0.2717  0.0543 -0.1063
32086W        W32950   7.234  25.009  23.368 -0.0261 -0.1341 -0.0047
32087W        W32951  12.254  28.599  26.962  0.1100 -0.3451  0.0172
32088W        W32952   2.197  21.437   4.128  0.0699  0.0023 -0.2596
32089W        W32953   7.745  25.106  28.012  0.2406 -0.4382 -0.2499
32090W        W32954  25.308   0.177  27.844  0.2481  0.2214 -0.0214
32091W        W32955   7.962   6.228  27.328 -0.1502  0.2032 -0.1397
32092W        W32956  13.461  12.874  20.496 -0.0062  0.0563  0.0204
32093W        W32957   8.344  22.625   9.761  0.2210  0.2501  0.3342
32094W        W32958  18.274  24.212  27.838 -0.0840 -0.1570 -0.3379
32095W        W32959  17.369  16.788   2.155  0.1339  0.0935  0.1851
32096W        W32960  24.535  14.135  25.853 -0.0640 -0.3885  0.0851
32097W        W32961  11.181   8.039   2.187  0.0765  0.3232 -0.0796
32098W        W32962   6.245  14.099   6.543  0.0085  0.1949  0.1774
32099W        W32963   9.822   1.081  15.502  0.0144  0.0867 -0.2384
32100W        W32964  10.909  14.012  23.826  0.2889  0.2206 -0.0334
32101W        W32965   9.432   3.579  26.034 -0.2976  0.0985 -0.1764
32102W        W32966   1.618  12.122  16.396  0.1885  0.1009  0.1032
32103W        W32967   0.274  14.793  13.505 -0.3515  0.0697  0.1210
32104W        W32968   9.845   1.947  25.633 -0.3124  0.1020  0.0843
32105W        W32969  12.392  10.908  17.126  0.1392 -0.2078  0.0245
32106W        W32970  13.622  14.603   4.149 -0.1595  0.0288  0.0925
32107W        W32971   1.044  22.150  16.942 -0.3066 -0.2431  0.1535
32108W        W32972  13.611   2.995  17.965 -0.2591 -0.0127 -0.0303
32109W        W32973  20.367   1.849  17.895 -0.2045  0.1354 -0.2617
32110W        W32974  25.074  24.787  26.085 -0.0913  0.2274  0.0024
32111W        W32975  14.467   7.132  25.902  0.2742  0.3530  0.0427
32112W        W32976  22.753  18.020   0.711  0.2419 -0.1441 -0.0685
32113W        W32977  26.664  24.954  10.568  0.2716 -0.1408  0.2452
32114W        W32978  13.425  24.885  19.426  0.1628 -0.1763 -0.0830
32115W        W32979  18.383   7.810   7.493 -0.1861 -0.2167  0.2964
32116W        W32980   7.998   0.626  24.491  0.1177  0.1260  0.2905
32117W        W32981  14.507  28.601  12.006  0.0034 -0.0919  0.0085
32118W        W32982  27.768  27.587   5.615 -0.4707 -0.0995 -0.1402
32119W        W32983  10.234  22.992  25.838  0.2150 -0.0173 -0.0308
32120W        W32984  23.206  12.923  17.064 -0.3203  0.3406 -0.1415
32121W        W32985  19.573   5.156  25.051 -0.4206  0.1469 -0.0336
32122W        W32986   3.762  26.404  25.421 -0.0606  0.3754  0.1079
32123W        W32987   2.724  12.031  14.297 -0.1490 -0.2046 -0.2140
32124W        W32988   2.196  23.595  20.613  0.2414  0.0643  0.3282
32125W        W32989   5.392  23.898  12.744  0.1194 -0.1631 -0.4082
32126W        W32990  20.807  10.298   3.233 -0.0226  0.1374  0.0322
32127W        W32991   7.808  20.772  16.682 -0.1436 -0.2175 -0.0145
32128W        W32992   8.190   1.400  18.761  0.2827  0.0846 -0.0010
32129W        W32993  16.420  16.815   1.455  0.0481  0.0503 -0.2022
32130W        W32994  20.554  12.862  26.253  0.0554 -0.0980  0.0269
32131W        W32995  11.804  14.823  27.749  0.0339  0.1503  0.2199
32132W        W32996  28.904  10.726   8.171 -0.4127  0.1822 -0.0320
32133W        W32997   3.246   0.720   8.974 -0.0342  0.1833 -0.2850
32134W        W32998   6.178  19.553  27.941 -0.2551  0.2717 -0.2017
32135W        W32999  21.052   7.466   3.187  0.0937  0.1493  0.0940
32136W        W33000   9.279   5.783  20.998 -0.1352  0.2758 -0.3298
32137W        W33001  20.151  18.490  20.038 -0.0941  0.1706 -0.0186
32138W        W33002   7.132   6.512  12.815  0.0677 -0.1050  0.0645
32139W        W33003   0.345   7.359  16.733  0.2561 -0.0517 -0.0998
32140W        W33004   5.872  16.018   3.965  0.0328 -0.0603  0.0619
32141W        W33005   0.881  27.162  16.874 -0.1018 -0.0339 -0.1672
32142W        W33006  25.236  26.998  21.879  0.0516 -0.1296 -0.2327
32143W        W33007  18.826   9.933  18.020  0.1191  0.1942  0.1589
32144W        W33008   6.875  22.310  21.039 -0.3626 -0.1177  0.1411
32145W        W33009   4.923  21.131   4.441 -0.0485  0.1839  0.3128
32146W        W33010   3.061  17.683   0.837 -0.0537 -0.4084  0.0968
32147W        W33011   0.908  16.052  26.002  0.1996  0.2776 -0.3860
32148W        W33012  14.682  25.376   2.338  0.1061 -0.2688  0.0126
32149W        W33013  27.457  22.661  28.802  0.3412 -0.2056  0.6743
32150W        W33014  24.504   2.705  19.262  0.0824 -0.1887  0.2877
32151W        W33015  16.481  16.703  20.138 -0.3235  0.1743  0.2534
32152W        W33016  16.690   0.313  25.175 -0.0036 -0.1097 -0.0208
32153W        W33017  20.128   9.477  12.609  0.1134  0.4148 -0.1281
32154W        W33018  15.539  17.740  10.994  0.0829 -0.1972 -0.0333
32155W        W33019   9.953   4.528  28.617 -0.2631  0.1847  0.0570
32156W        W33020  28.378  25.082  20.230  0.1313  0.3972 -0.0186
32157W        W33021  15.176  10.308  16.917 -0.1618 -0.0744  0.2106
32158W        W33022   1.688   5.612  26.212  0.1805  0.2592  0.5357
32159W        W33023   8.811  25.871   3.928  0.2407  0.1742  0.1830
32160W        W33024  23.067  27.117   3.008  0.0011 -0.0053 -0.0933
32161W        W33025  14.288  14.118   2.452  0.0717  0.0138 -0.0151
32162W        W33026  22.054  16.289  18.254 -0.0607 -0.1692  0.0164
32163W        W33027   8.742   3.447  10.827  0.0135 -0.1366  0.0041
32164W        W33028   2.293  16.355   0.811  0.3770  0.0144 -0.2688
32165W        W33029   2.897  21.911   6.281  0.4213  0.0886 -0.1555
32166W        W33030   9.843  27.991  25.199  0.0912 -0.0312 -0.0133
32167W        W33031  13.154   6.204   3.189 -0.0107  0.3354  0.1162
32168W        W33032  25.397  26.161  26.680  0.2497  0.0725  0.1495
32169W        W33033  10.409   0.932  19.766 -0.1060 -0.1735 -0.1825
32170W        W33034  22.629  28.834  11.736  0.1486 -0.0728 -0.1245
32171W        W33035  22.681  12.725  15.001 -0.2678  0.4532  0.0775
32172W        W33036  27.806  13.178  15.134 -0.1128  0.0619 -0.0461
32173W        W33037  12.083   0.363   2.380  0.2172 -0.1397 -0.0047
32174W        W33038   8.541   1.406  11.598 -0.0678 -0.0792  0.0840
32175W        W33039   9.845  22.363  23.617  0.1913 -0.3171 -0.1899
32176W        W33040  15.387  19.686  10.366 -0.1122 -0.1959  0.0759
32177W        W33041   8.577  11.602   5.782  0.0163  0.2300 -0.0015
32178W        W33042  25.730  22.826  22.764 -0.1203 -0.0612  0.1019
32179W        W33043  28.394  14.121  12.989 -0.1440 -0.0592  0.2102
32180W        W33044   1.732   5.835  15.250  0.1822 -0.1549 -0.0705
32181W        W33045  14.502   4.631  22.921 -0.1095 -0.0614 -0.1492
32182W        W33046  23.365  11.045  18.798 -0.1419 -0.0405  0.1514
32183W        W33047  17.444  21.307   2.264 -0.0186 -0.1956 -0.2672
32184W        W33048   5.938  20.775  24.189 -0.0471 -0.1189  0.2004
32185W        W33049  24.508   3.151   5.770  0.1615 -0.2303 -0.1652
32186W        W33050   8.480  15.652   5.386  0.1344  0.0856  0.0949
32187W        W33051  17.778  20.300  10.379  0.0199  0.1669 -0.3287
32188W        W33052  27.248  24.217  13.813 -0.1734 -0.0204  0.1900
32189W        W33053   1.441  17.869   5.136 -0.3451  0.1681  0.1167
32190W        W33054  10.730  13.600  26.017 -0.2075 -0.0826  0.2256
32191W        W33055  11.294  10.804   0.219  0.1315 -0.3308 -0.1721
32192W        W33056   3.623  13.783   6.558 -0.1006  0.0554  0.3822
32193W        W33057  16.499   8.220  25.984  0.2608  0.0117  0.0306
32194W        W33058  26.349  28.423  28.585  0.0179 -0.1328 -0.0600
32195W        W33059   5.782   1.346  10.947 -0.0402  0.0437  0.2241
32196W        W33060  14.932  11.183   1.341 -0.1803 -0.1793 -0.0727
32197W        W33061   8.264   9.571   6.950  0.0264 -0.1168 -0.0310
32198W        W33062  13.720  24.128   2.741 -0.0695 -0.1457 -0.0056
32199W        W33063  18.871  22.825   0.624  0.0354  0.1976  0.0052
32200W        W33064   8.537   8.543  24.210  0.3211  0.1382  0.1169
32201W        W33065   1.812  22.452  18.526 -0.1940  0.2913  0.0405
32202W        W33066  13.685   2.080   3.695 -0.1383  0.0938  0.1298
32203W        W33067  16.641  24.781  26.439 -0.1705 -0.0189  0.0167
32204W        W33068  10.687   1.290   4.357 -0.0027  0.3486  0.0528
32205W        W33069   5.440  26.903   2.753 -0.0801 -0.1172 -0.0195
32206W        W33070   5.340  19.505  17.326 -0.2477 -0.0127  0.0298
32207W        W33071  14.853  21.543  26.469 -0.0038 -0.5120  0.3532
32208W        W33072   0.732  10.402   1.543 -0.0591  0.0846 -0.0562
32209W        W33073  11.091  18.415   0.117 -0.0527  0.1269 -0.4270
32210W        W33074  26.533   0.728  25.324  0.0064 -0.4020 -0.1417
32211W        W33075   9.495  26.212   4.918  0.1197 -0.1021 -0.0516
32212W        W33076   8.087  14.250  27.602  0.1124  0.1062  0.0275
32213W        W33077   3.835   9.248  29.053 -0.1060 -0.0928  0.2544
32214W        W33078  11.481   6.095   6.782 -0.0387  0.0728 -0.2522
32215W        W33079  26.738  13.724  22.946  0.1913  0.0326 -0.1062
32216W        W33080  11.273  27.762   5.607  0.2204  0.0083  0.1976
32217W        W33081  10.310   5.876   0.908  0.3419  0.0765 -0.1932
32218W        W33082   6.787  13.294   0.771  0.2102  0.0139  0.2494
32219W        W33083  15.869  17.775  25.339  0.0374  0.2342 -0.0027
32220W        W33084   4.393  27.748   5.388  0.1269  0.2320 -0.1194
32221W        W33085   6.071   2.321  22.414  0.1040  0.3062 -0.0973
32222W        W33086   5.196  28.325  20.957  0.0757 -0.0083 -0.0235
32223W        W33087  24.302  11.164  12.217 -0.3198 -0.0465 -0.3093
32224W        W33088  27.676  19.985   8.302 -0.1271 -0.1247  0.0946
32225W        W33089   6.634   1.205  20.956 -0.3544  0.0814 -0.0890
32226W        W33090  29.026   0.654   9.673 -0.0611 -0.1901 -0.0863
32227W        W33091  27.641  19.857   3.858  0.3482 -0.3665 -0.3213
32228W        W33092   1.530  10.796   8.530 -0.1680 -0.1613 -0.0821
32229W        W33093   3.505   3.695  25.702  0.1979  0.2081  0.3084
32230W        W33094   7.888  10.847   1.577  0.0507 -0.0742  0.3645
32231W        W33095  27.315  27.271  20.270 -0.3102  0.0865 -0.0463
32232W        W33096  11.989  14.023   0.840  0.2097 -0.1724 -0.3708
32233W        W33097  16.127   0.958  17.209  0.0022 -0.2819 -0.0091
32234W        W33098  12.535  12.259   6.282  0.0449  0.0236  0.1037
32235W        W33099   5.976  14.798  28.681 -0.1092  0.1563  0.2373
32236W        W33100  12.683  19.417  15.691 -0.0257  0.1739  0.0585
32237W        W33101   0.998   5.449   6.005 -0.0866  0.3653 -0.2985
32238W        W33102  13.133  19.289  28.830  0.0567  0.1638  0.0001
32239W        W33103  14.723  16.401   0.711  0.0361 -0.0392  0.0117
32240W        W33104   6.587  20.884  27.045 -0.2143 -0.0126 -0.0797
32241W        W33105   8.471  20.945  23.372  0.2006 -0.3412  0.3897
32242W        W33106  20.711   8.981   1.188  0.0601  0.0189 -0.2399
32243W        W33107  13.412  15.592   2.420  0.0485  0.6264  0.1954
32244W        W33108  24.673  19.820   8.194  0.0360  0.2497  0.2227
32245W        W33109   6.113   1.606  27.455  0.0913 -0.0324  0.0201
32246W        W33110  18.917   5.427   0.127  0.1898 -0.0347 -0.4185
32247W        W33111  22.636  17.645   4.669 -0.2257  0.1394  0.0022
32248W        W33112   4.257  24.956   9.696  0.0851  0.0022 -0.3833
32249W        W33113   0.794   8.242   9.678  0.0951  0.1577 -0.1706
32250W        W33114   2.649  11.881  19.658  0.2045 -0.0030  0.2017
32251W        W33115  25.115  15.381   0.227  0.0058 -0.2874  0.0864
32252W        W33116   6.248  14.579  19.299  0.1296 -0.0580  0.1115
32253W        W33117   7.938  19.070   8.319  0.1908 -0.0096  0.1024
32254W        W33118   1.736   5.323  17.897 -0.1344 -0.0316  0.2649
32255W        W33119  24.192   3.364  26.100  0.2420  0.1167 -0.1593
32256W        W33120   4.841  25.140  19.996 -0.1234 -0.1030 -0.3508
32257W        W33121   4.016  11.580  24.671  0.1891  0.2488  0.0721
32258W        W33122  11.765   8.372  28.190  0.2206  0.1344  0.0274
32259W        W33123  26.153  15.607  23.158  0.1166 -0.3744 -0.0263
32260W        W33124   2.843   5.955  20.832 -0.1175 -0.0618  0.2256
32261W        W33125  17.020  18.448  29.015  0.2684  0.0940 -0.2916
32262W        W33126  13.707   9.262   0.308  0.2404  0.2815 -0.0606
32263W        W33127  17.697  14.459  11.756  0.0414  0.1087 -0.4836
32264W        W33128  13.097   2.914   1.972 -0.1917  0.0421  0.0574
32265W        W33129   0.960  20.486   1.085 -0.1439 -0.1894  0.1339
32266W        W33130  15.038  21.728  16.299 -0.1199 -0.0613  0.1542
32267W        W33131  21.604  13.051   0.071 -0.0194  0.3531  0.0633
32268W        W33132   2.785   0.119  23.956 -0.0837 -0.1728  0.0380
32269W        W33133  11.703  27.461  23.626 -0.0238  0.3571  0.0045
32270W        W33134  16.100  18.836  24.633 -0.0071  0.1339 -0.1465
32271W        W33135   4.089  16.328  10.799 -0.0125  0.2159  0.0472
32272W        W33136  22.107  12.290  28.150 -0.1893 -0.1596 -0.2835
32273W        W33137  11.949  20.393  17.256 -0.0820  0.0395  0.0684
32274W        W33138  22.732   9.558   4.465  0.1348 -0.0890  0.0753
32275W        W33139   3.745   2.658   4.511  0.1574  0.1605  0.0727
32276W        W33140  28.147  15.457  17.981 -0.2474 -0.2507 -0.6467
32277W        W33141  12.996  25.029  24.217  0.3090  0.2361 -0.0371
32278W        W33142  20.687  14.766   4.062  0.1449 -0.1714 -0.1845
32279W        W33143  28.952  15.120  19.169  0.1311  0.0830  0.2907
32280W        W33144   9.403   9.550  16.062 -0.0447 -0.1077  0.1177
32281W        W33145  14.826  10.545  16.376 -0.0445  0.1751 -0.0150
32282W        W33146   0.111  17.863   2.690  0.0925 -0.0386  0.1813
32283W        W33147  10.915  14.067   6.501 -0.0512  0.0746 -0.1438
32284W        W33148  27.774   6.918  28.664 -0.3788 -0.2928 -0.0752
32285W        W33149   1.945   5.344  24.387 -0.0507 -0.3285  0.1752
32286W        W33150  18.048  10.807  24.688  0.1431 -0.0165 -0.2463
32287W        W33151   3.379  22.706   7.590 -0.1561  0.0429 -0.1743
32288W        W33152  13.422  27.661  23.619 -0.2452 -0.1940  0.0269
32289W        W33153  26.724  19.634  20.583 -0.0281  0.0414 -0.2282
32290W        W33154  27.542  11.470   0.532 -0.2266 -0.0277  0.1184
32291W        W33155  19.007  13.323   3.951 -0.1691 -0.0191 -0.2216
32292W        W33156   5.537   6.985  11.081 -0.0100 -0.1931 -0.0933
32293W        W33157  21.081  14.807  24.639 -0.2657 -0.0554  0.0969
32294W        W33158   7.350  28.009  26.526  0.0330  0.1025  0.0485
32295W        W33159   9.257  24.780  21.986  0.0787  0.0249 -0.0668
32296W        W33160  15.262  23.506  23.111 -0.3776 -0.1612 -0.2164
32297W        W33161   1.394  18.743  22.415  0.0404  0.3316 -0.2492
32298W        W33162  23.604  12.628   1.925  0.3218  0.1361 -0.1567
32299W        W33163  28.910  12.161  24.714  0.1924  0.2620 -0.1260
32300W        W33164   8.540   6.252  15.365  0.3173  0.1758  0.2598
32301W        W33165   6.114  22.571   5.696  0.1223  0.0091  0.2152
32302W        W33166  11.222   9.897  11.788 -0.2845  0.2121 -0.0407
32303W        W33167  16.558   0.220   6.231  0.0907  0.1452 -0.0299
32304W        W33168   1.381  10.832  20.087  0.0617 -0.0810 -0.2189
32305W        W33169  21.322   4.555   6.726  0.2695  0.1833 -0.3301
32306W        W33170   0.666   5.006  24.532  0.0552 -0.1215  0.0054
32307W        W33171   7.329  12.282   9.673 -0.3393 -0.0475 -0.3157
32308W        W33172  21.725   9.878   5.665 -0.2478  0.2271 -0.3365
32309W        W33173  15.576   4.373  28.922  0.1693 -0.2842  0.1739
32310W        W33174   7.986   8.706  22.256 -0.0852  0.1225 -0.0668
32311W        W33175  25.255   2.631   5.626  0.2758  0.0372  0.3415
32312W        W33176   7.272  21.879   4.143 -0.0008 -0.0272  0.3420
32313W        W33177  26.785  10.113   7.724 -0.0663 -0.1748  0.0539
32314W        W33178  23.644  13.326  12.643 -0.1578 -0.1102 -0.0651
32315W        W33179  13.036  15.586   4.359  0.1572  0.0804  0.1125
32316W        W33180  18.115   4.989  28.607 -0.1601  0.2866 -0.2343
32317W        W33181  11.552   8.745  10.138 -0.0463  0.0075 -0.1029
32318W        W33182  21.734   4.608  19.688  0.1844  0.1840 -0.0650
32319W        W33183  26.807   9.254   1.995 -0.3009 -0.0585 -0.1480
32320W        W33184   8.630   7.813  24.740 -0.2846  0.0095  0.0802
32321W        W33185  24.390  23.676  13.754  0.1340 -0.2494 -0.3301
32322W        W33186   9.530  15.167   8.442 -0.1119  0.1658  0.1066
32323W        W33187   1.321  26.646   2.876 -0.0506 -0.0693 -0.0963
32324W        W33188  26.384  13.232   4.185 -0.2178 -0.0203 -0.1781
32325W        W33189  17.960   0.309  24.622 -0.0574  0.1106  0.1334
32326W        W33190   9.908  14.517  23.622  0.0760 -0.0452  0.0401
32327W        W33191  10.238  21.271   1.215  0.0698  0.2126  0.1300
32328W        W33192   5.590   1.366  25.874 -0.2046  0.1076 -0.2674
32329W        W33193  15.674   5.437   7.442 -0.1774 -0.0876 -0.0441
32330W        W33194   6.663  10.542   7.186 -0.1038 -0.0611  0.2131
32331W        W33195  11.957   2.490  14.354  0.2846 -0.1149  0.2755
32332W        W33196   2.050   3.756  14.381  0.3328  0.1108 -0.0951
32333W        W33197   2.100   3.152  24.182 -0.3125  0.0839 -0.0551
32334W        W33198   7.174  22.811   8.363  0.2083  0.1028  0.0659
32335W        W33199  27.942  19.238   9.132 -0.0629  0.1109  0.3478
32336W        W33200  11.535   5.304  15.577 -0.0873  0.0095  0.1735
32337W        W33201   6.411  16.320  12.379 -0.0820  0.0509  0.1291
32338W        W33202  28.151   3.420  21.376  0.1406  0.0133  0.0444
32339W        W33203  27.059  19.798  17.381 -0.1748 -0.0545 -0.1843
32340W        W33204  17.434  10.511  26.626 -0.1699  0.1447  0.1886
32341W        W33205  20.938   4.830  11.466  0.1880  0.1765 -0.0759
32342W        W33206   1.238  11.499   2.601 -0.1760 -0.1411  0.0406
32343W        W33207  26.380   4.701   1.039  0.0769  0.0392  0.2703
32344W        W33208  20.960   3.749  15.765 -0.2560 -0.0129  0.0772
32345W        W33209  27.133   6.107  17.644 -0.1009 -0.1063  0.0252
32346W        W33210  19.845  12.988  20.331 -0.0933 -0.0771  0.0058
32347W        W33211   8.139   4.110  22.332 -0.1554  0.0078  0.3100
32348W        W33212  12.920   6.848   9.756 -0.3382 -0.1111  0.0348
32349W        W33213  20.227  22.994  16.097 -0.5455 -0.0140  0.3384
32350W        W33214   4.574   5.979  25.212  0.1430 -0.2451  0.1543
32351W        W33215   3.144  10.587  24.821  0.3428 -0.1899  0.0497
32352W        W33216  13.026  26.234   3.377 -0.1112  0.1880 -0.0633
32353W        W33217  20.108  16.266   6.359  0.2295  0.1782 -0.1981
32354W        W33218   8.116  15.493   0.649  0.1084  0.0044  0.0187
32355W        W33219  27.609   6.574  12.808  0.1794  0.3757 -0.0154
32356W        W33220   7.226   6.991   9.098 -0.2202 -0.2179  0.3042
32357W        W33221  14.674   3.870  25.151  0.0101 -0.2470 -0.2332
32358W        W33222   6.308   3.244   6.393 -0.0396  0.0309 -0.0567
32359W        W33223   6.050  25.852  18.638 -0.0069 -0.0898  0.0856
32360W        W33224  25.883  23.897   8.828  0.0422 -0.3046  0.1852
32361W        W33225  10.557  15.787  21.933 -0.1301 -0.0797  0.1221
32362W        W33226   0.253  14.800  18.582  0.0078 -0.0275 -0.1762
32363W        W33227   9.181  22.515   0.151  0.0768 -0.0258  0.0273
32364W        W33228  24.874   3.797  21.802  0.0490  0.1012  0.1585
32365W        W33229  22.087  11.262  12.592  0.1542  0.2258 -0.0851
32366W        W33230  11.137  16.468  11.860  0.1235 -0.0793 -0.0068
32367W        W33231  16.912  26.634  19.331 -0.4754 -0.3004  0.1416
32368W        W33232  15.993  13.667  28.143  0.0852 -0.0513 -0.1903
32369W        W33233  13.382   2.811  22.956  0.0819 -0.1685  0.0240
32370W        W33234  23.521  22.267   7.418 -0.1195  0.0167  0.1859
32371W        W33235   3.134  21.192  10.490  0.1026 -0.0209 -0.0976
32372W        W33236  25.956  22.750  11.992  0.1861  0.0872  0.3499
32373W        W33237   4.016  10.184  11.095 -0.2085  0.0093 -0.1766
32374W        W33238   0.062   9.283   8.343 -0.2760  0.2385 -0.2751
32375W        W33239  24.919  18.434  20.199 -0.2874 -0.1752 -0.0781
32376W        W33240  11.964   0.425   9.626 -0.2216 -0.1301 -0.0347
32377W        W33241   5.090   4.351  15.947  0.0169 -0.2626  0.1918
32378W        W33242   4.730   2.327  21.218 -0.3694  0.2155 -0.1163
32379W        W33243   5.593   5.143   5.630 -0.2102 -0.0055 -0.0398
32380W        W33244   4.872   2.056  11.685  0.0013  0.1161 -0.3245
32381W        W33245  23.949  28.945  20.539  0.0856  0.0461 -0.1705
32382W        W33246   5.007  15.850  21.766 -0.4249  0.0358  0.0655
32383W        W33247  20.763  11.013  16.815  0.1117  0.1039  0.2311
32384W        W33248  27.714   6.159  20.475  0.2782  0.1254  0.1247
32385W        W33249  16.459  20.924   4.527 -0.1529 -0.0957 -0.0549
32386W        W33250  16.555  27.272  24.529 -0.2584 -0.0353  0.0397
32387W        W33251  11.772   8.493   4.014  0.2500  0.2834  0.0524
32388W        W33252  13.594  21.265  26.177 -0.1377  0.0281  0.1268
32389W        W33253   2.957  12.227   4.292  0.0488  0.0615 -0.1306
32390W        W33254  11.532   4.195   1.668 -0.0242 -0.1897 -0.1893
32391W        W33255   8.528   1.391   0.293 -0.0741  0.2152 -0.1640
32392W        W33256   9.020   8.677   9.834  0.1981  0.1597 -0.2007
32393W        W33257   1.897  12.472   6.561 -0.2572 -0.2867 -0.1879
32394W        W33258  10.926  19.306  28.296  0.0338  0.1342 -0.0846
32395W        W33259   2.030  12.254  17.362 -0.0834 -0.4548  0.0196
32396W        W33260   6.604  23.980   8.094  0.0368  0.0983 -0.2806
32397W        W33261  26.065  21.771  25.587 -0.1801 -0.2399 -0.3218
32398W        W33262  18.860   8.826  27.403  0.1342 -0.1706  0.1680
32399W        W33263  27.959  19.001  25.482 -0.0303  0.1481 -0.2528
32400W        W33264   8.740  13.230  23.972  0.0681  0.3577 -0.1866
32401W        W33265   7.911  16.268  22.226 -0.0721 -0.0578  0.1059
32402W        W33266  13.706   3.672   9.152  0.1909  0.0470 -0.0612
32403W        W33267   8.746  10.239   6.936 -0.1435 -0.2775 -0.1334
32404W        W33268  28.811  21.500  19.698  0.1021  0.2881  0.1436
32405W        W33269   3.053   2.916   6.663  0.0728 -0.2608  0.0444
32406W        W33270  23.035  14.915  21.294  0.2850 -0.0955 -0.1836
32407W        W33271   9.656  20.624   8.616 -0.1057 -0.0387  0.1780
32408W        W33272  10.997   0.733   6.691  0.0048 -0.1699 -0.0515
32409W        W33273  15.389   1.131   4.062 -0.0987  0.0408  0.1002
32410W        W33274   9.858  18.140   2.954  0.1525 -0.0646 -0.0093
32411W        W33275  10.103  28.904   5.112 -0.1833  0.1333  0.0441
32412W        W33276  16.695  11.204  14.006 -0.3642  0.1467  0.1831
32413W        W33277  11.644   9.521  24.296  0.3261 -0.0534 -0.4134
32414W        W33278   8.507  13.609   2.493  0.0418 -0.1007 -0.0834
32415W        W33279  25.180   5.022  20.285  0.2025 -0.2251 -0.1525
32416W        W33280  19.094  12.191   6.971  0.1576  0.0665  0.0304
32417W        W33281  21.128   2.092  12.895  0.3480 -0.1233 -0.2224
32418W        W33282  17.139   7.009   2.371 -0.2653  0.0391 -0.3016
32419W        W33283  15.086  17.904   7.765  0.0057 -0.0242 -0.0936
32420W        W33284  14.115  23.144  20.121 -0.1511  0.1628 -0.1128
32421W        W33285  20.197  18.301   2.188  0.3008 -0.2397  0.2318
32422W        W33286   3.772  17.511  26.412  0.0830  0.1916  0.1057
32423W        W33287   7.275  17.360   4.003  0.1899 -0.2322 -0.0350
32424W        W33288  23.616   9.577   4.246 -0.1404  0.0551  0.0414
32425W        W33289  14.063  26.885  13.007 -0.0824  0.1936 -0.2733
32426W        W33290  13.103  19.372  13.675 -0.0892 -0.0125  0.2900
32427W        W33291  24.470   4.222  26.870  0.1606  0.3809  0.1155
32428W        W33292  26.149   8.857   9.334  0.2626 -0.0808  0.0194
32429W        W33293  18.044  25.067  22.684 -0.1120 -0.1152 -0.2599
32430W        W33294   1.749  20.934  18.223  0.1286  0.2299 -0.0342
32431W        W33295   1.979  20.307  13.685  0.0366  0.0181  0.0661
32432W        W33296  17.452  14.649  22.035 -0.0861 -0.1360  0.0506
32433W        W33297   2.337   5.431  26.795 -0.0681 -0.1041  0.0018
32434W        W33298  23.991   6.736  20.427  0.0949  0.0955  0.0193
32435W        W33299   6.867  21.153   4.348 -0.1205 -0.1343  0.1409
32436W        W33300  21.480  11.550  21.704 -0.0068 -0.2599  0.1966
32437W        W33301   7.633  23.017   9.923  0.0099 -0.0900  0.1393
32438W        W33302  28.839  27.884  24.441 -0.0851 -0.0598  0.0451
32439W        W33303   8.628   0.389  24.186 -0.0126  0.2307 -0.1565
32440W        W33304  28.457   6.971   2.622  0.2293  0.0205  0.1407
32441W        W33305  20.337  19.571  14.712 -0.0286 -0.0964 -0.0595
32442W        W33306   3.889  28.610   5.748  0.1769  0.1745 -0.2191
32443W        W33307  27.185  18.021   8.377  0.1012 -0.4225  0.0156
32444W        W33308   6.008  11.745  26.313  0.0830  0.3025 -0.1129
32445W        W33309   6.413   2.590   2.380 -0.1067 -0.0053  0.0398
32446W        W33310  17.503  27.354   1.910 -0.0558 -0.0548  0.0133
32447W        W33311   7.515  24.180   4.310 -0.3678 -0.0233 -0.0635
32448W        W33312   7.958  15.470  26.920  0.3161 -0.1997  0.2618
32449W        W33313  27.603   6.589   2.336  0.0833 -0.0824 -0.0603
32450W        W33314  21.681   7.096  27.295 -0.0949  0.0521 -0.0761
32451W        W33315   5.253  17.319   7.229 -0.2093 -0.0094  0.1387
32452W        W33316   7.157   7.467   2.689 -0.0721 -0.0509 -0.1649
32453W        W33317  17.721  23.136  25.186 -0.2650 -0.0770  0.1186
32454W        W33318   3.237   4.745  10.411 -0.1172  0.0175 -0.1185
32455W        W33319   7.923   5.786  19.674 -0.2317 -0.1163  0.2401
32456W        W33320   9.391  28.353  19.474 -0.4318  0.1315 -0.2420
32457W        W33321  20.956   8.383   6.183  0.2459 -0.0819  0.0868
32458W        W33322  14.110  16.355   4.875  0.1706 -0.1040  0.1248
32459W        W33323  14.237  12.371  15.308  0.2102 -0.0284  0.3635
32460W        W33324  12.019   8.948   5.927  0.0535 -0.0733  0.0768
32461W        W33325   9.046   6.229  17.021  0.1677  0.2070  0.0497
32462W        W33326   9.377   9.362  19.523  0.0371 -0.2404 -0.1161
32463W        W33327   1.321   5.036   2.597  0.0505 -0.1065 -0.1501
32464W        W33328  16.264  15.698  24.712 -0.1837 -0.0122 -0.1699
32465W        W33329   7.242  15.594  25.507 -0.3318 -0.1245 -0.0397
32466W        W33330   8.516  25.842   6.568 -0.0813  0.2620 -0.3211
32467W        W33331   3.410   2.574  16.047  0.3948 -0.0626  0.1552
32468W        W33332  20.540   8.982  10.773 -0.2595  0.2301 -0.2483
32469W        W33333  27.330   7.486  23.398  0.2231  0.0620 -0.2905
32470W        W33334  13.196  14.524  27.294 -0.3103  0.0915 -0.1617
32471W        W33335  16.957   1.372  10.614 -0.0793 -0.1110  0.0543
32472W        W33336  13.395   0.391   5.950 -0.0392  0.1600  0.1789
32473W        W33337  26.105   8.126   3.245 -0.0576  0.1004 -0.0589
32474W        W33338  17.272   3.105   4.093 -0.1126  0.3339 -0.1544
32475W        W33339  10.337   2.422  14.543  0.0328  0.1228 -0.2351
32476W        W33340  25.119  11.512  26.082 -0.1263  0.0241  0.0674
32477W        W33341  27.133  23.406  17.096  0.3807  0.0206  0.2028
32478W        W33342   5.303  22.063  21.364 -0.0222  0.0158 -0.0720
32479W        W33343   2.972  15.980  19.719  0.1668  0.1795  0.0912
32480W        W33344  17.332  27.919  23.175 -0.2070 -0.0314 -0.1183
32481W        W33345  17.938  12.266  14.252  0.1710 -0.0758 -0.1373
32482W        W33346  22.143   3.669  27.572 -0.3121 -0.1762 -0.0944
32483W        W33347   8.154  19.194  22.007 -0.1752 -0.1609 -0.0484
32484W        W33348  14.623  10.877  11.923  0.0038 -0.2767  0.0703
32485W        W33349  16.833  25.839   6.316 -0.0471 -0.1862  0.1600
32486W        W33350  22.842  25.715   4.984  0.1498  0.1390  0.0913
32487W        W33351   0.263  25.870   4.559  0.0923  0.2891  0.2199
32488W        W33352  12.539  25.919   1.501 -0.1800  0.0165 -0.0880
32489W        W33353   7.320  25.801  21.268  0.0946 -0.2927  0.0764
32490W        W33354   2.730   7.377   1.728 -0.0984 -0.1733 -0.1019
32491W        W33355  26.761  13.036   4.506  0.3848 -0.0033 -0.4033
32492W        W33356  19.536  18.582  19.880  0.1791 -0.2679 -0.3346
32493W        W33357  13.927  22.774   0.442 -0.0433  0.2902 -0.0972
32494W        W33358  18.649   7.815   7.073 -0.2876  0.4872  0.1027
32495W        W33359  23.360   0.957   0.089 -0.0516 -0.3352 -0.0963
32496W        W33360   4.677   9.073   1.445 -0.1410 -0.3496  0.2016
32497W        W33361  15.310  12.114   6.391  0.2285  0.0351  0.0505
32498W        W33362  28.535   8.266   4.051 -0.0337  0.2680 -0.0396
32499W        W33363  17.162   6.818   0.835 -0.1709  0.3082  0.2797
32500W        W33364   4.593   4.353  26.255  0.1507 -0.1628  0.0022
32501W        W33365  12.492  19.956  26.671 -0.1692 -0.1008  0.0763
32502W        W33366   0.654  19.149   9.501 -0.0690 -0.2082  0.1145
32503W        W33367  15.331  13.346  23.024  0.2795  0.0270 -0.1921
32504W        W33368   2.372   9.325  26.760  0.1287 -0.0242 -0.0887
32505W        W33369  15.311  16.741  18.334 -0.2866 -0.2892  0.1072
32506W        W33370  18.041   0.730   0.798  0.0249  0.3967 -0.2835
32507W        W33371   8.071  12.869   3.173 -0.0076  0.0042  0.3488
32508W        W33372  18.532  17.752   2.167  0.0036 -0.0415  0.3027
32509W        W33373  16.365   3.851   8.563 -0.1770  0.2258 -0.1231
32510W        W33374  23.275  11.459  22.811  0.0976  0.0357  0.0475
32511W        W33375   6.261  10.109  13.663 -0.0231  0.0245  0.1591
32512W        W33376  18.803   4.242  22.575  0.0767  0.2544 -0.2672
32513W        W33377  11.589   0.015  15.660  0.1044 -0.2871 -0.0027
32514W        W33378  24.439  12.579   4.543 -0.3084 -0.1626  0.4509
32515W        W33379  25.901  13.262  26.366  0.1282  0.2872 -0.1863
32516W        W33380   9.001  26.551  10.695 -0.0534  0.0890  0.3804
32517W        W33381  14.709  18.619  26.198  0.0524 -0.2532  0.2138
32518W        W33382  16.805   5.247   2.605 -0.0798  0.1585 -0.2171
32519W        W33383  20.443   0.912   8.491  0.3104  0.1183 -0.2445
32520W        W33384  14.943   8.083   7.846 -0.1610  0.2815  0.0574
32521W        W33385  19.978   6.972  27.209 -0.3015  0.0635 -0.1419
32522W        W33386  22.234  17.331  28.318 -0.1467  0.0650 -0.1896
32523W        W33387  17.811  19.912  24.064 -0.2696 -0.1404 -0.0928
32524W        W33388  25.328  19.503   3.552  0.2684  0.0083 -0.0406
32525W        W33389  13.525   2.418  10.409 -0.0725  0.0242  0.0785
32526W        W33390  22.764   2.013  25.293  0.0136  0.0983  0.4107
32527W        W33391  12.036  16.208  13.219  0.1039 -0.4229  0.0987
32528W        W33392   3.985  12.231  16.039  0.2013 -0.1136  0.2016
32529W        W33393  12.985  13.299  15.696  0.0242 -0.2389 -0.1142
32530W        W33394  21.244  22.111  21.691 -0.3786  0.2180 -0.1129
32531W        W33395  15.975  14.756  13.887  0.0641  0.1156 -0.0491
32532W        W33396  11.597   0.721   0.025  0.1470 -0.0257 -0.1391
32533W        W33397   0.911  21.866  13.993 -0.1621 -0.0396  0.0363
32534W        W33398  22.348   9.459   6.265 -0.0517 -0.1610 -0.3808
32535W        W33399  20.750  21.188   2.240  0.0614  0.0792  0.2371
32536W        W33400  13.922   1.365  19.362 -0.1875 -0.0282 -0.1283
32537W        W33401   6.467  13.162  13.835  0.1270 -0.3538  0.1872
32538W        W33402  18.663   6.742  11.279 -0.2391  0.1345 -0.2614
32539W        W33403  23.725   7.296   4.893  0.0796  0.1108 -0.1147
32540W        W33404   9.203  11.185   4.376  0.2370  0.1832  0.1016
32541W        W33405  15.321   6.514  28.310  0.2340 -0.0733 -0.0651
32542W        W33406  23.714   5.790   8.147 -0.3277 -0.1540 -0.2014
32543W        W33407   2.433  15.123  22.213 -0.2148 -0.0167 -0.2874
32544W        W33408   0.862  15.320  16.445 -0.1864 -0.1677  0.0743
32545W        W33409   8.402   1.125   4.961 -0.0711  0.0486 -0.1294
32546W        W33410  14.794   1.619  28.427  0.2184  0.0316  0.0777
32547W        W33411   1.315  28.228  26.608 -0.0098 -0.2166 -0.2297
32548W        W33412   3.102  19.286  20.324  0.1007 -0.0718 -0.0598
32549W        W33413  28.690  10.463  15.921 -0.1025 -0.0830 -0.0626
32550W        W33414  25.899   1.398   0.100 -0.0219 -0.0971 -0.1110
32551W        W33415  29.032  19.548   2.032 -0.1961 -0.2955 -0.0241
32552W        W33416  24.618   9.702   5.379 -0.0850 -0.1210  0.3065
32553W        W33417  27.937   7.340  17.623 -0.1305  0.1299 -0.1263
32554W        W33418  22.869   3.836  18.832  0.1269  0.1302 -0.0731
32555W        W33419   8.018   7.829   4.243 -0.2363 -0.0725  0.1739
32556W        W33420   1.651  10.197   3.544 -0.1919  0.2433  0.2615
32557W        W33421  10.010   7.374   1.735 -0.0198  0.2338 -0.0763
32558W        W33422   5.308  25.310  25.625  0.0604 -0.3480  0.0727
32559W        W33423  28.796  10.724   2.452 -0.2183 -0.1917  0.2938
32560W        W33424   6.151  24.962  21.466  0.2443  0.0705  0.2587
32561W        W33425   7.153  23.489  11.321  0.1800  0.0541 -0.1605
32562W        W33426  17.045  15.668  17.989  0.1229 -0.0845 -0.3000
32563W        W33427  15.584   7.859  25.598 -0.0540 -0.0325  0.3657
32564W        W33428  28.752  15.172  22.420 -0.2680 -0.4475 -0.0294
32565W        W33429   6.097  18.433   1.953 -0.0009 -0.0227  0.1045
32566W        W33430  15.881   9.557  20.494  0.1310  0.0199 -0.0901
32567W        W33431   7.440   5.082  25.680 -0.1360  0.1306 -0.1085
32568W        W33432  11.970   4.595   6.333 -0.1918  0.3306  0.0635
32569W        W33433  18.430  29.098  15.544 -0.0211  0.1185 -0.0560
32570W        W33434  27.801   6.980  17.300 -0.0683  0.1351  0.2542
32571W        W33435  26.702  17.278  21.903  0.1350 -0.2634  0.1151
32572W        W33436  28.573   3.693  19.966  0.0248 -0.0970  0.0300
32573W        W33437   5.705   0.812   1.434  0.1577 -0.1415 -0.0130
32574W        W33438  28.413   5.496   4.839  0.1333  0.2359  0.0541
32575W        W33439   2.672   3.082  19.996 -0.0911  0.0842 -0.3995
32576W        W33440  11.671   5.807  23.639  0.1088 -0.0767  0.0124
32577W        W33441   6.062  19.694  17.962 -0.0171  0.2773  0.0792
32578W        W33442  24.796  15.563  14.019  0.3544  0.2245  0.0559
32579W        W33443   0.625  20.882  27.669  0.3087  0.0391 -0.0453
32580W        W33444   2.028   9.727  10.955 -0.0582  0.0680  0.0135
32581W        W33445   7.322   4.742  21.368 -0.1766 -0.1646 -0.1279
32582W        W33446  29.110  20.333  27.133 -0.2407 -0.0051  0.3280
32583W        W33447  23.566  21.282  11.263 -0.2451  0.2909 -0.0429
32584W        W33448  28.912  28.174  18.152 -0.0597 -0.1487  0.1101
32585W        W33449   7.443  11.661  21.798  0.0021  0.1285 -0.0375
32586W        W33450  15.632  21.316  14.268  0.1435  0.0066  0.2209
32587W        W33451  12.795  25.644  23.850 -0.1828 -0.1767 -0.0484
32588W        W33452  20.196  20.730   1.007  0.0677 -0.2230  0.0046
32589W        W33453   4.633  14.445  17.014 -0.0141 -0.1813 -0.0756
32590W        W33454  12.975   8.446   4.450  0.0422 -0.2204 -0.1738
32591W        W33455   4.704  19.574   1.510  0.1661 -0.0223  0.1221
32592W        W33456  20.221   6.206   9.121 -0.0400 -0.3312  0.1376
32593W        W33457  27.243  22.761   5.641  0.2416 -0.2565  0.1316
32594W        W33458  23.290  12.372  20.345  0.0843 -0.2416 -0.1245
32595W        W33459   9.890  19.857  27.386  0.0295  0.0091 -0.1538
32596W        W33460   1.462   3.325   4.423  0.1026  0.1255  0.0660
32597W        W33461   0.737  19.590  18.382 -0.2065 -0.1219 -0.0148
32598W        W33462   8.809   7.093   8.572  0.0477  0.0276  0.2857
32599W        W33463   8.083  24.550   3.155  0.1632  0.0440 -0.1709
32600W        W33464  25.501  15.472  14.049  0.3864  0.0717 -0.1226
32601W        W33465   0.234  18.007  15.951 -0.0284  0.1932 -0.1651
32602W        W33466  18.240   4.202  13.723  0.1547  0.1184  0.1334
32603W        W33467   1.114  14.654  25.720 -0.1189  0.0583 -0.0072
32604W        W33468  19.721  11.145   5.756 -0.0396  0.1660  0.0959
32605W        W33469   5.012  16.514   2.499  0.1706 -0.1402  0.2091
32606W        W33470  21.133  27.209  26.047  0.0435 -0.0325 -0.0282
32607W        W33471  20.651  26.667   7.421 -0.0238 -0.3964  0.3419
32608W        W33472   6.183   1.012   7.342  0.2836  0.0513  0.0852
32609W        W33473   2.075  15.738  24.891 -0.0902 -0.3138  0.0299
32610W        W33474   1.864   1.828  16.894 -0.1801 -0.0848 -0.3978
32611W        W33475  27.745  12.408   2.191  0.1172  0.0561 -0.1521
32612W        W33476   0.297   6.000  28.140 -0.1494 -0.0249  0.1178
32613W        W33477  14.150   3.017  23.385 -0.2170 -0.0580  0.3232
32614W        W33478  27.308  15.530   6.567 -0.1263  0.1973 -0.0692
32615W        W33479  21.128   6.947  28.741  0.0906  0.1364  0.0930
32616W        W33480  16.026  18.941   0.296  0.2285  0.2501  0.1305
32617W        W33481   2.813  14.502   4.060 -0.0632  0.0919  0.2001
32618W        W33482  11.760  11.518  16.345  0.0042 -0.1178  0.0321
32619W        W33483  10.094  15.949   4.824  0.0694 -0.0701  0.3464
32620W        W33484  24.150   6.734  23.932  0.3525 -0.2690  0.0241
32621W        W33485   5.070   5.292  18.510 -0.1329 -0.1326 -0.1809
32622W        W33486  16.390   7.934   9.146  0.0088  0.1043 -0.0832
32623W        W33487  23.578  12.678   7.973 -0.2572  0.0696 -0.0337
32624W        W33488  25.158  25.813   4.151 -0.1023  0.1179 -0.4534
32625W        W33489  16.272  12.898   9.397 -0.4558  0.3903 -0.2317
32626W        W33490   2.727  19.360  13.502 -0.0185 -0.0552 -0.1255
32627W        W33491  13.793  12.131  15.104 -0.1393 -0.3585  0.0449
32628W        W33492  23.697  11.082  16.030  0.0275 -0.0995 -0.2387
32629W        W33493  10.495  14.108  26.101 -0.0693  0.1550 -0.0221
32630W        W33494  25.289   7.716  20.380 -0.0899 -0.1448  0.2440
32631W        W33495  10.942  20.937   7.369 -0.1170  0.1585 -0.0204
32632W        W33496  24.962   2.023   6.368  0.0620  0.1833 -0.1310
32633W        W33497  17.316   0.738  21.398 -0.0123  0.4596  0.0726
32634W        W33498   6.250  13.103  17.858  0.1805 -0.0134  0.0398
32635W        W33499   2.993  20.357  22.380 -0.1384  0.1716 -0.0825
32636W        W33500  27.940   9.234  27.212 -0.3227  0.1590 -0.0913
32637W        W33501   8.930  27.783  17.831  0.2629 -0.0920  0.0011
32638W        W33502  10.388   6.547  21.959 -0.2271 -0.0545 -0.0320
32639W        W33503  18.078  26.673  15.780 -0.0227  0.0355 -0.0878
32640W        W33504  25.635  16.384   2.904 -0.0897  0.1624 -0.1033
32641W        W33505  22.260  16.999  15.495  0.0913 -0.2487 -0.0306
32642W        W33506   8.337  18.663   2.179 -0.1125 -0.2284 -0.0324
32643W        W33507  15.680   1.934  18.201 -0.3130 -0.2998 -0.1641
32644W        W33508  27.973   9.003  28.461 -0.1016 -0.1701 -0.0962
32645W        W33509   8.421   0.944   0.472  0.0005  0.2439 -0.0241
32646W        W33510  12.798  28.467   7.647  0.1049 -0.0193 -0.0756
32647W        W33511   1.964  25.363  13.128  0.0101  0.1577 -0.1309
32648W        W33512   5.768  14.750   9.528 -0.0732 -0.0901  0.1296
32649W        W33513  21.624  21.029  15.541  0.0815  0.0956  0.1099
32650W        W33514  16.465   3.391  13.242 -0.1353 -0.0704 -0.1086
32651W        W33515  25.304  11.852   3.866  0.0148 -0.0474  0.0864
32652W        W33516   1.490  23.056  20.591  0.4306  0.1707  0.0645
32653W        W33517   7.690  26.428   8.492 -0.1696 -0.3471  0.0396
32654W        W33518   6.730   7.505  13.941 -0.1329  0.0419 -0.1700
32655W        W33519   8.498  10.812   1.493 -0.2092  0.2027  0.1048
32656W        W33520  18.038  28.209  21.285 -0.0767  0.0392  0.1049
32657W        W33521  17.579  15.499  13.897 -0.0127 -0.0048 -0.1584
32658W        W33522   3.472  18.957  20.461 -0.0716  0.0113  0.2754
32659W        W33523   3.185   1.522   4.657 -0.2222 -0.0759  0.0161
32660W        W33524   9.408   3.873  18.843 -0.0522  0.0100  0.1667
32661W        W33525  14.161   4.314   2.265  0.0577 -0.0373  0.0857
32662W        W33526  24.591  26.104   2.589 -0.1160  0.0463 -0.5142
32663W        W33527   0.101   5.236   4.705  0.2242  0.0854  0.0686
32664W        W33528   0.111  16.361   5.611  0.1399  0.0526 -0.0344
32665W        W33529   5.017  26.816   0.208  0.3906  0.0676 -0.2354
32666W        W33530  13.879   4.812  26.752  0.1704 -0.0750 -0.0105
32667W        W33531   7.533   7.465  22.311  0.0040  0.5250 -0.3360
32668W        W33532  16.325   5.015  28.437 -0.2718  0.0824 -0.0570
32669W        W33533  21.686  20.451  10.589  0.0836  0.2924  0.0013
32670W        W33534   2.777  18.871  14.532 -0.0748 -0.1938  0.2650
32671W        W33535   1.103   0.784  19.922  0.1374 -0.0846  0.2345
32672W        W33536   0.836  10.550   5.487  0.0937 -0.0947 -0.0615
32673W        W33537   5.634  23.677  26.611 -0.1867  0.1399 -0.1466
32674W        W33538   8.510  28.941  16.731 -0.3742  0.0576  0.0005
32675W        W33539  15.589  22.836  14.253  0.0470  0.0263  0.1845
32676W        W33540  10.960   6.571  20.775 -0.1594  0.2438 -0.4596
32677W        W33541  11.859  12.089  19.225  0.3014  0.1266  0.2791
32678W        W33542  16.565   9.934  24.415  0.1130  0.6136  0.2659
32679W        W33543   7.008   2.203  11.027 -0.0518  0.1351 -0.2357
32680W        W33544   9.740   2.667  16.696  0.1027  0.1696 -0.0580
32681W        W33545  27.545  17.522  24.497 -0.4519 -0.2030 -0.1394
32682W        W33546  20.086  12.084  27.978 -0.1580  0.0492 -0.2544
32683W        W33547  12.208  20.096   7.531  0.2461 -0.1779 -0.1684
32684W        W33548  16.709   3.890   2.750 -0.2106  0.3606  0.0714
32685W        W33549  18.128   2.178  26.946 -0.0085 -0.1980  0.1775
32686W        W33550  10.521  27.936   6.265  0.2122 -0.1359  0.2586
32687W        W33551   6.145   4.849  29.083 -0.0840 -0.4867 -0.3951
32688W        W33552  21.679   7.666  10.983  0.1072  0.1523  0.0331
32689W        W33553   5.554   4.484  12.352  0.1779 -0.1001  0.0162
32690W        W33554  21.587   2.317  20.133 -0.0440  0.1394 -0.0270
32691W        W33555   5.922  15.677  23.391 -0.0734  0.1104  0.1314
32692W        W33556   6.061  26.251  16.180  0.0172 -0.2386 -0.1594
32693W        W33557  19.820  19.873  26.132  0.0089 -0.1943  0.3430
32694W        W33558  17.144  12.853  28.793  0.1333  0.1551 -0.1854
32695W        W33559   8.441   8.694   7.541 -0.2346  0.0586 -0.0712
32696W        W33560   6.566  28.688   5.203  0.0095 -0.0831  0.0622
32697W        W33561  12.825  26.821  24.086 -0.1065 -0.0130  0.0084
32698W        W33562  11.723  15.623   2.446 -0.1251  0.2789 -0.1105
32699W        W33563   0.883  23.396  21.372  0.1861  0.2865  0.0289
32700W        W33564   0.990   7.865   2.222  0.3962 -0.2687 -0.0011
32701W        W33565  19.984  23.206  10.610 -0.0815 -0.0072 -0.1495
32702W        W33566  16.390  25.317  15.479  0.2692 -0.1340  0.0218
32703W        W33567  15.113  24.741  11.685 -0.3301  0.3756  0.2208
32704W        W33568  12.126   0.511  23.539 -0.1530  0.0257 -0.2600
32705W        W33569  13.000  25.291   3.541 -0.0473  0.2658  0.2537
32706W        W33570  27.697   7.910  10.806 -0.0748 -0.2679 -0.2846
32707W        W33571  28.731   9.191  11.979  0.2193  0.0175  0.2152
32708W        W33572  25.419  12.063  14.772 -0.1599 -0.0401 -0.1970
32709W        W33573  28.977   0.184  19.780  0.1176  0.1267  0.1666
32710W        W33574  21.470   6.147   3.238 -0.0185 -0.0069  0.3005
32711W        W33575   8.318  13.891   1.614  0.0031 -0.2815  0.4293
32712W        W33576   9.518  22.182   3.808 -0.2977  0.0342 -0.0251
32713W        W33577   7.366   6.741   0.501  0.0058  0.1737 -0.0644
32714W        W33578  13.324   2.927   3.265 -0.2164  0.2700 -0.0955
32715W        W33579  14.652   5.367  27.693 -0.0404  0.0103  0.2373
32716W        W33580   4.927  19.637  11.903  0.0732  0.1923 -0.1590
32717W        W33581   2.307  15.782  26.506 -0.0436 -0.1838 -0.1027
32718W        W33582  26.812  14.329  15.191  0.3523 -0.0720  0.2012
32719W        W33583   7.933  15.146  14.207 -0.1205  0.0635  0.0036
32720W        W33584  18.714   0.084  19.030  0.1579  0.0487 -0.0905
32721W        W33585   8.935  11.678   4.571 -0.2293  0.2470 -0.0824
32722W        W33586   1.966  21.204  26.801 -0.3842  0.1307 -0.0548
32723W        W33587  26.080  23.374   8.003  0.3175  0.0278 -0.3195
32724W        W33588   8.953   9.133  26.834  0.1680 -0.0518 -0.1801
32725W        W33589  21.156  20.622  25.354  0.2488  0.2374  0.0016
32726W        W33590   1.251   6.168  24.853  0.3045  0.0715  0.1670
32727W        W33591  19.525  25.757  16.246 -0.0877 -0.0238  0.0827
32728W        W33592   3.633  29.034  14.740 -0.0234 -0.0326  0.1544
32729W        W33593  15.836  12.256  25.996  0.1991  0.2372  0.4084
32730W        W33594   3.881  14.835  19.192  0.0146 -0.2594 -0.0842
32731W        W33595  27.290  19.695  20.459  0.4494 -0.0219  0.0609
32732W        W33596  23.492  27.517   9.752 -0.1338 -0.1694 -0.0850
32733W        W33597  22.712  14.464   0.472 -0.1811 -0.1888  0.3464
32734W        W33598  10.129   9.802   7.893  0.0949  0.2007 -0.2442
32735W        W33599   6.649   5.787   1.978 -0.2147  0.0670 -0.0910
32736W        W33600   5.930   7.754  28.791 -0.3325 -0.1024  0.3166
32737W        W33601  11.872  17.298   1.471  0.0506 -0.0275  0.0533
32738W        W33602  22.036  11.505   2.886  0.0384 -0.0507  0.0617
32739W        W33603   9.515  14.210  15.373  0.1694 -0.1108 -0.0154
32740W        W33604  23.356   9.584   8.935 -0.2622  0.1752  0.0011
32741W        W33605  19.219  11.866   0.258  0.1216  0.2066  0.0209
32742W        W33606   7.363  13.499   8.533 -0.0292 -0.0849  0.0436
32743W        W33607   4.898  27.775   5.005 -0.0903  0.2441 -0.2098
32744W        W33608   8.082   7.782   4.759 -0.0620  0.1719  0.1992
32745W        W33609   9.200  27.675  24.980  0.3000  0.0649  0.0856
32746W        W33610   2.228  12.017  21.740  0.1294  0.0818  0.2312
32747W        W33611  12.498  28.238  26.521 -0.0768  0.0592  0.3423
32748W        W33612  12.667   1.032   9.084 -0.3774  0.1811  0.2208
32749W        W33613   0.273   7.009  20.731  0.2376 -0.2205  0.0720
32750W        W33614  25.341   3.815  15.308  0.5682 -0.1073  0.0306
32751W        W33615  18.615  17.907   9.760 -0.0577  0.0999 -0.3470
32752W        W33616  23.362   6.135   8.392  0.1136  0.2143  0.0621
32753W        W33617  13.225  28.117   5.367 -0.3188  0.0067  0.2946
32754W        W33618  17.543   4.019  22.786  0.1826  0.0056 -0.0505
32755W        W33619  25.357  25.567   0.174 -0.1961 -0.0216  0.1058
32756W        W33620  21.296  10.237  22.880 -0.2378  0.1565 -0.0152
32757W        W33621   1.229  23.271  20.176  0.1823 -0.0097  0.2801
32758W        W33622  22.915  24.027  14.158 -0.0859 -0.2508  0.1296
32759W        W33623   4.414  28.169  21.778 -0.0743 -0.0044  0.1180
32760W        W33624   9.098   2.807   4.226 -0.0237  0.0520 -0.0869
32761W        W33625  10.823   5.929   2.277  0.2890  0.2407  0.0826
32762W        W33626  13.581  22.398   0.646 -0.0204  0.0562  0.0901
32763W        W33627  14.008   9.571  14.334  0.1117 -0.3569  0.1519
32764W        W33628  25.529  18.448  10.119 -0.0402  0.1070 -0.1095
32765W        W33629   5.139  15.277  12.954  0.1558  0.2221 -0.4618
32766W        W33630  11.131   6.133  14.723 -0.0894 -0.0765  0.0658
32767W        W33631   7.797  10.407   6.887 -0.2331 -0.2509 -0.2349
32768W        W33632   9.768  12.800  21.330  0.2438  0.2387 -0.1731
32769W        W33633   6.400   1.224  11.569  0.2232 -0.0666 -0.1296
32770W        W33634  27.210   7.109  27.885 -0.0862 -0.1208 -0.2224
32771W        W33635   1.908  22.477  15.207 -0.3322  0.2197  0.1137
32772W        W33636  12.848  20.139   8.533  0.2242  0.0889 -0.2820
32773W        W33637  17.763   9.586  27.458  0.0406 -0.0823  0.2011
32774W        W33638   5.400   4.295  19.961  0.1714 -0.2418 -0.4542
32775W        W33639  24.619  28.110  15.572 -0.2268  0.0874  0.1824
32776W        W33640  27.787   9.950  28.907 -0.1912  0.2116 -0.0912
32777W        W33641  26.204  15.132   3.711  0.1285  0.0377 -0.1136
32778W        W33642  15.944   3.623  15.984  0.1597  0.2300  0.0326
32779W        W33643  23.704   8.189  22.216 -0.0132  0.3023  0.1246
32780W        W33644  19.913  13.809  11.137  0.2988  0.0574  0.1557
32781W        W33645  14.979  20.780  12.552  0.1687  0.0229  0.1909
32782W        W33646  22.626  11.747   6.109 -0.0117  0.1494  0.0862
32783W        W33647  12.878  26.348  28.829 -0.0423  0.0350 -0.2229
32784W        W33648  27.576   4.309  11.978 -0.1262 -0.1708  0.0389
32785W        W33649  16.638  22.802  11.315 -0.3323 -0.3263  0.3748
32786W        W33650   1.353  10.685  22.344 -0.1787  0.2573  0.0394
32787W        W33651  13.359  17.661  11.656 -0.0034 -0.2532 -0.2105
32788W        W33652  25.565   7.629   6.579 -0.0593 -0.0964  0.4469
32789W        W33653  23.684   8.914   3.443  0.2724 -0.0850 -0.0655
32790W        W33654  19.878  10.013  26.889 -0.0724  0.1575 -0.0974
32791W        W33655  25.157  14.263  12.366 -0.2807  0.3033 -0.1397
32792W        W33656  25.289  12.650  22.748  0.1175 -0.0299  0.1165
32793W        W33657   2.495  20.869  24.790 -0.1404  0.1611  0.0490
32794W        W33658   7.045  15.260   8.352 -0.1708 -0.0056  0.1587
32795W        W33659   7.481  15.672   5.288 -0.1486  0.0620 -0.0789
32796W        W33660  26.073  15.808  20.168  0.0144  0.0839 -0.0873
32797W        W33661   2.364  18.507  12.801  0.1105  0.0142  0.0131
32798W        W33662   4.780   6.711   8.220  0.0216 -0.0525 -0.0235
32799W        W33663   5.181   2.468  21.004 -0.0172 -0.0012  0.1879
32800W        W33664   2.994   7.600  20.412 -0.1786  0.2625  0.1360
32801W        W33665  10.389  20.737   5.555 -0.0205  0.2772  0.3937
32802W        W33666  20.106  11.695   3.803 -0.1035 -0.0367  0.2253
32803W        W33667  14.982  18.422  28.980 -0.3269 -0.4478  0.1688
32804W        W33668  28.141  16.063   4.851  0.3389 -0.0242  0.0731
32805W        W33669  27.719   0.031  10.350 -0.1137 -0.0540  0.0736
32806W        W33670   9.387  26.462  14.307  0.0617  0.3220  0.0935
32807W        W33671  24.447   5.367  17.477  0.2249  0.3411  0.1374
32808W        W33672   1.089  28.573   1.051 -0.1112  0.2771  0.0895
32809W        W33673  12.843  13.846  12.503 -0.4159  0.0819  0.0054
32810W        W33674  10.401  14.367  17.697 -0.2746  0.0349 -0.2015
32811W        W33675   6.455   8.800   5.211  0.1339  0.1061 -0.1922
32812W        W33676  20.259  21.078   8.661 -0.0861  0.1776 -0.1402
32813W        W33677  11.208  17.125  23.696  0.1886  0.1244 -0.1327
32814W        W33678  27.855  15.273  18.406 -0.1089  0.1647 -0.2732
32815W        W33679   7.743  15.709  21.877 -0.0488  0.1104 -0.0304
32816W        W33680   0.623  25.279   2.408 -0.0336 -0.1360  0.1911
32817W        W33681  13.345  20.138  22.927  0.0160  0.0002  0.0842
32818W        W33682   2.655   6.565   1.358 -0.1407 -0.1129 -0.0895
32819W        W33683   2.776  16.190  14.532 -0.2720  0.2132  0.2070
32820W        W33684  26.957  10.765  12.347 -0.1858 -0.0335  0.0359
32821W        W33685  23.312  13.557   1.537 -0.2053  0.0844  0.1401
32822W        W33686   1.954   5.052  21.197 -0.1998  0.1230  0.1299
32823W        W33687   1.193   4.165  21.249 -0.0972 -0.0678 -0.1963
32824W        W33688   4.916   8.316  27.015 -0.3925  0.2106 -0.4139
32825W        W33689  22.993  22.734   6.824 -0.2785  0.0230  0.1703
32826W        W33690   8.719  27.687   6.003  0.3984 -0.0294  0.0025
32827W        W33691   4.645   3.910   1.530  0.2683  0.0780  0.1857
32828W        W33692  15.115  26.320  24.258  0.2414  0.2428 -0.1086
32829W        W33693  13.805   6.458  21.122 -0.0343  0.1392 -0.1941
32830W        W33694  20.582  11.991  12.681 -0.1974  0.0953 -0.0486
32831W        W33695  12.833   7.426  20.200  0.0003  0.2664 -0.0404
32832W        W33696   8.052  22.209  25.959  0.0804  0.0875 -0.1761
32833W        W33697  16.470   9.136  25.894 -0.4896  0.1027  0.2545
32834W        W33698  12.917   5.639   1.721 -0.1236 -0.1813 -0.1588
32835W        W33699  29.099  16.640   4.553  0.0056 -0.2448 -0.3391
32836W        W33700  18.002  17.698  24.714  0.0238 -0.0661  0.0047
32837W        W33701  20.165  24.436  24.379 -0.0140 -0.0697  0.2319
32838W        W33702  28.644   3.373   4.904  0.2655  0.0564 -0.0396
32839W        W33703   1.441  13.325  19.746 -0.2471 -0.0035 -0.0736
32840W        W33704  18.991   3.810  10.673 -0.2853 -0.2899  0.2354
32841W        W33705   6.374   1.442  13.922  0.4445 -0.1290  0.0917
32842W        W33706  25.258  28.707  27.155  0.0488  0.0159  0.0973
32843W        W33707  13.182   4.395   4.974 -0.1271  0.0364 -0.1529
32844W        W33708  16.628  22.557   5.032 -0.3606 -0.2241 -0.2961
32845W        W33709   4.846   9.468  10.213 -0.1163 -0.2157  0.0609
32846W        W33710  11.857   8.224   0.972  0.1553  0.1279  0.0047
32847W        W33711  12.514   1.810   0.697 -0.0377 -0.1800 -0.1974
32848W        W33712   2.854  15.018  28.477  0.2447 -0.3231 -0.1816
32849W        W33713  11.334  15.084  18.562 -0.0071 -0.1459  0.0814
32850W        W33714   7.657  26.578  14.024 -0.0245  0.1981  0.0861
32851W        W33715  12.561  12.442   3.187  0.3576  0.0732  0.0208
32852W        W33716  21.762  11.956  11.722  0.0083 -0.0311  0.1374
32853W        W33717  16.864  16.193  10.843 -0.2101  0.0893 -0.0125
32854W        W33718   6.813  25.562  10.548 -0.2746  0.0151  0.1160
32855W        W33719  16.824   1.746  11.274 -0.0882 -0.0060  0.2149
32856W        W33720  24.667  10.757   6.153 -0.3908  0.2350 -0.0856
32857W        W33721  11.718  13.127  27.562 -0.1270 -0.0490  0.0088
32858W        W33722  23.546   6.267  12.150 -0.4071  0.1415 -0.2181
32859W        W33723   5.209  23.366  25.872 -0.1542  0.0321 -0.2504
32860W        W33724  25.408   1.288  24.748 -0.1908  0.4826 -0.1559
32861W        W33725   0.309  10.538  13.659 -0.3447 -0.1205 -0.0590
32862W        W33726  23.859   0.322  12.825  0.2296  0.1732 -0.4954
32863W        W33727  12.630   5.709  20.996  0.0620 -0.2808  0.0106
32864W        W33728   2.962  20.274  20.138 -0.0704  0.0336  0.2165
32865W        W33729   5.614   0.308  27.853  0.1306 -0.0464  0.0117
32866W        W33730   6.042   3.403   1.783 -0.3329 -0.1078  0.1640
32867W        W33731   4.882   7.327  13.484  0.0533  0.0435 -0.1180
32868W        W33732   4.417   7.145  15.954  0.0967  0.1498 -0.1517
32869W        W33733   8.563  11.750  15.971  0.1905  0.2792  0.1582
32870W        W33734   8.235  11.965  25.736 -0.0027 -0.1327  0.1766
32871W        W33735   2.394   4.270   5.037  0.1126  0.2091  0.0825
32872W        W33736   1.684  14.898  14.964 -0.2353 -0.1437 -0.1567
32873W        W33737  17.375  15.967   5.617  0.0418 -0.0278 -0.0955
32874W        W33738  24.742  17.675   0.559 -0.1574 -0.0597 -0.0600
32875W        W33739   4.933  17.896  14.034 -0.2459 -0.0255 -0.1703
32876W        W33740  12.623  26.121  20.899 -0.0315  0.0374  0.0594
32877W        W33741  23.500  17.108   2.912  0.0733 -0.0134 -0.1255
32878W        W33742   3.155  27.175   8.230  0.2797 -0.2518  0.1558
32879W        W33743  26.585   9.837  23.148 -0.0228  0.1481 -0.3814
32880W        W33744  10.016  15.722   5.934 -0.2496  0.2259  0.1121
32881W        W33745   6.784  12.730  14.377 -0.0572 -0.1974 -0.2121
32882W        W33746  10.468   3.197  26.078 -0.1271 -0.1649  0.3828
32883W        W33747   3.509  27.532   2.073 -0.4157 -0.1482  0.4477
32884W        W33748  17.623  27.087  20.782 -0.2245 -0.0892 -0.2706
32885W        W33749   7.131   5.749  13.350  0.1844  0.3272  0.3159
32886W        W33750   3.382  18.819  26.089  0.0477 -0.0018  0.2688
32887W        W33751  14.028  14.336  19.431  0.1971  0.1035 -0.1624
32888W        W33752  10.469   7.756  25.685 -0.1197 -0.1268 -0.1587
32889W        W33753   4.461  23.716  15.582  0.1949 -0.0180 -0.2365
32890W        W33754  26.373  10.823  14.217 -0.0741  0.0176 -0.1668
32891W        W33755   7.610  18.773   5.286  0.1158 -0.3342 -0.0754
32892W        W33756  20.730   7.145   4.091 -0.0644 -0.0328 -0.1023
32893W        W33757  17.005  12.479  16.902  0.2302 -0.0828 -0.1690
32894W        W33758  11.471   2.759   6.479 -0.0395 -0.1044  0.0456
32895W        W33759   5.851   1.585   1.112  0.4270  0.0296 -0.1328
32896W        W33760  25.896   1.461   4.191 -0.0006  0.0520 -0.1918
32897W        W33761  10.442   1.101   7.187 -0.0110 -0.0757 -0.2552
32898W        W33762  17.302  14.182  16.513 -0.0547 -0.4234  0.0788
32899W        W33763   0.606  14.796  18.968  0.0979  0.1140  0.3056
32900W        W33764  12.734  28.256  18.503  0.4050  0.1619  0.1029
32901W        W33765  16.501  23.297  26.292 -0.1173  0.1548 -0.2881
32902W        W33766   1.682  18.941  11.799  0.0660 -0.1429  0.0012
32903W        W33767   2.602  27.785  20.626 -0.0494 -0.0557  0.2953
32904W        W33768  25.706   6.575  26.617  0.0389  0.0074 -0.1489
32905W        W33769   2.981  12.490  15.939 -0.2377  0.4771  0.0679
32906W        W33770  15.429   8.364   6.479  0.2970 -0.0838 -0.2496
32907W        W33771  10.453  16.424  18.386 -0.1453 -0.0774 -0.1872
32908W        W33772  13.113  17.536   2.643  0.2656  0.2148  0.5105
32909W        W33773   1.027   1.469   5.235 -0.1506 -0.0136  0.2451
32910W        W33774   3.719  20.179   6.891 -0.1686 -0.1681 -0.3779
32911W        W33775  12.112  23.517   0.145  0.2011  0.2161 -0.2901
32912W        W33776  21.477   5.976   8.878 -0.0538  0.3282 -0.2857
32913W        W33777  11.151  21.273  13.982  0.2155 -0.1058 -0.3673
32914W        W33778   9.812   0.421   6.327  0.0174  0.2628  0.1090
32915W        W33779  25.504  25.450  14.176 -0.2348  0.0696  0.0116
32916W        W33780  10.244   7.411   6.231 -0.0784 -0.1131  0.0398
32917W        W33781   6.220  13.109  11.509 -0.0716  0.0875 -0.1651
32918W        W33782  26.629  21.732   3.567 -0.0366  0.0151 -0.1697
32919W        W33783   6.305  27.301  13.463 -0.4011  0.0798 -0.2062
32920W        W33784  20.584  16.474  23.377 -0.0544 -0.0942 -0.1267
32921W        W33785  12.255   6.836  13.777  0.0838  0.0920 -0.1512
32922W        W33786  25.520  26.659  19.032  0.1029 -0.1694  0.3176
32923W        W33787  16.448  11.940   4.148  0.3901 -0.0067 -0.0202
32924W        W33788  25.392  12.662  21.663 -0.1182  0.0220 -0.1305
32925W        W33789  13.496  20.724  12.580  0.0015 -0.2413 -0.0863
32926W        W33790   2.968   3.881   9.772  0.0140 -0.1425 -0.1325
32927W        W33791  15.952   5.480  26.824 -0.0299 -0.0643  0.1120
32928W        W33792  24.315  25.822  10.161 -0.3004 -0.1037  0.0561
32929W        W33793   6.183  13.188  13.213  0.3106 -0.2473  0.1028
32930W        W33794   4.302  13.612  27.130  0.1458 -0.1028  0.1940
32931W        W33795   3.397  17.121  13.492  0.0709  0.3211 -0.1315
32932W        W33796  20.975  13.419  10.918 -0.2484  0.1685 -0.4873
32933W        W33797   1.421   9.327   3.710  0.0495  0.0465  0.2637
32934W        W33798   7.549  10.162   5.360 -0.3785 -0.0534  0.2089
32935W        W33799  19.025   5.888   7.287  0.0076  0.0817 -0.3610
32936W        W33800  12.540  22.928  16.080 -0.5146  0.1216  0.2422
32937W        W33801  11.787  26.090  26.376 -0.1480  0.3471 -0.0106
32938W        W33802  17.904  28.514  27.972  0.5281  0.1836  0.4702
32939W        W33803  22.785   9.501   6.485  0.0542  0.2829  0.1857
32940W        W33804  25.390   2.679  23.866  0.2461 -0.3430 -0.3445
32941W        W33805  25.474  13.816  12.475  0.2540  0.1384 -0.0651
32942W        W33806   4.861  20.388   1.103 -0.3028 -0.0256 -0.3991
32943W        W33807  28.648  10.834   1.258 -0.3513  0.0420 -0.0894
32944W        W33808   6.101  28.886   9.648 -0.0871 -0.0588  0.0748
32945W        W33809  18.073  15.565   7.882 -0.0459 -0.1986  0.0957
32946W        W33810  18.553  19.273  19.140  0.3074 -0.1361 -0.1844
32947W        W33811   4.443   5.100  11.828 -0.2016  0.3606  0.1045
32948W        W33812  27.220  21.330  10.296 -0.0773  0.0422  0.3127
32949W        W33813   7.005  13.470  23.988  0.1209 -0.1052 -0.1592
32950W        W33814   2.441  22.190   7.485 -0.1568 -0.1425 -0.0189
32951W        W33815   4.526  29.131   0.492 -0.2935  0.0646  0.0361
32952W        W33816  17.732   5.319  14.590  0.2798 -0.0758  0.0270
32953W        W33817   7.708  19.276  28.670 -0.2534  0.0019 -0.0132
32954W        W33818   7.040  11.341  26.104 -0.2094  0.0955  0.4291
32955W        W33819  27.651  11.652  27.122  0.2370  0.2153  0.1211
32956W        W33820  13.870  23.956  25.641 -0.4079 -0.0315  0.3838
32957W        W33821  12.091  25.975  24.027  0.1133 -0.0581  0.0251
32958W        W33822  10.630  25.866  12.924  0.0984  0.0062 -0.0508
32959W        W33823  19.214   3.350  17.320 -0.1067 -0.0037 -0.1013
32960W        W33824  18.620  21.461  18.014 -0.3309  0.0533 -0.1490
32961W        W33825  28.595  12.913  15.597  0.0560  0.1121  0.0735
32962W        W33826  27.266  12.793   1.721  0.0070 -0.0540 -0.0016
32963W        W33827   2.466   9.789  28.622  0.1289 -0.0285  0.0908
32964W        W33828   7.590   7.315   8.069 -0.1426 -0.0171  0.0600
32965W        W33829   6.368  19.676  14.001 -0.3213  0.3616  0.1124
32966W        W33830   1.694  25.482   5.625 -0.1307 -0.2353  0.1650
32967W        W33831  14.704   8.672  19.343 -0.4264 -0.0590 -0.1445
32968W        W33832   9.025   9.834  19.518 -0.3169  0.2370 -0.2677
32969W        W33833  12.902  20.532   7.692 -0.0354 -0.0019 -0.1240
32970W        W33834   7.947   3.885   7.320 -0.3789 -0.0277 -0.0800
32971W        W33835   4.865  16.956   5.046  0.1602  0.1240  0.0562
32972W        W33836  27.892   2.892  17.842  0.0887  0.1524  0.1866
32973W        W33837  18.904   4.541  26.121 -0.0608 -0.0347 -0.0552
32974W        W33838   2.595   5.628  14.704 -0.0723 -0.1769  0.0968
32975W        W33839   7.182   0.298   8.188 -0.0592 -0.0144 -0.0698
32976W        W33840   3.493   4.771   2.839 -0.0298 -0.1704 -0.1783
32977W        W33841   7.843  29.069  20.126 -0.0637 -0.1669  0.1239
32978W        W33842  20.690  14.636   8.312 -0.0201 -0.3323 -0.2070
32979W        W33843   3.189  13.827  20.594  0.1933  0.1146  0.1060
32980W        W33844   6.495   5.423  11.093 -0.1084  0.0886 -0.0623
32981W        W33845  12.651  18.351   8.217 -0.0589 -0.4343 -0.3140
32982W        W33846  15.515   3.802  24.515  0.0712 -0.0224 -0.0185
32983W        W33847  11.993   9.187   2.245 -0.1347  0.1718 -0.2334
32984W        W33848  24.131  22.061   3.602 -0.1756 -0.0520  0.0544
32985W        W33849   7.881  12.200  27.221 -0.0509  0.1106  0.3318
32986W        W33850  16.000  15.963  20.434  0.2092 -0.0007  0.0958
32987W        W33851   1.951   1.877   2.563  0.0425 -0.3619  0.2534
32988W        W33852  27.895  17.835  12.765  0.1227  0.0794 -0.1516
32989W        W33853  28.116   1.131   0.948 -0.2254 -0.0832  0.0070
32990W        W33854   4.092  27.521   0.172 -0.2855 -0.0250  0.0012
32991W        W33855  10.188   9.906   8.756  0.2606 -0.1537  0.2224
32992W        W33856   6.184  19.561  25.173  0.2846 -0.0301  0.0079
32993W        W33857   2.957   2.385   5.654  0.0613 -0.0543 -0.2912
32994W        W33858  20.381   3.640  27.713 -0.0613 -0.0703 -0.1679
32995W        W33859  13.816  10.311   4.044  0.0478 -0.1028  0.0613
32996W        W33860  18.110  26.934  14.512  0.1363 -0.0441  0.0051
32997W        W33861  20.830  25.112   8.432  0.0622 -0.3431  0.0059
32998W        W33862  15.313  12.082   2.035  0.0887 -0.1123 -0.0954
32999W        W33863  20.988   7.316  17.038 -0.1823  0.0554  0.4226
33000W        W33864  10.321  14.541  20.415  0.3168 -0.1048  0.1268
33001W        W33865   8.906  15.262  11.818 -0.2655 -0.0487 -0.0239
33002W        W33866  22.819  26.766   6.679  0.0418  0.7031  0.0942
33003W        W33867  20.780   1.051  28.108  0.1463 -0.1220  0.0704
33004W        W33868   7.514  23.560  18.381 -0.0347 -0.3883  0.0488
33005W        W33869  25.019  13.874  16.435 -0.0941  0.0900  0.1740
33006W        W33870  11.976   4.414  13.084  0.1065 -0.0771 -0.1170
33007W        W33871   3.159   3.657  12.695  0.2792 -0.4442  0.1055
33008W        W33872   7.093  12.115  23.821  0.0926  0.3159  0.1964
33009W        W33873  19.006   4.759  26.652  0.1372 -0.0465  0.0087
33010W        W33874   1.525   2.902  19.843  0.3810  0.2994  0.1234
33011W        W33875  22.890  10.158  24.848 -0.0007 -0.1297 -0.0436
33012W        W33876  19.836   6.596   7.332  0.0304  0.0162  0.2213
33013W        W33877   0.582  22.963  13.523 -0.1993  0.0823 -0.2594
33014W        W33878  18.344  14.941   7.323  0.0440  0.1581 -0.0603
33015W        W33879   9.674   2.232   6.608 -0.3331  0.0298  0.0881
33016W        W33880  15.167  13.691  18.197  0.1440 -0.0832 -0.1420
33017W        W33881  14.723  11.607  19.070 -0.2092 -0.2467  0.0505
33018W        W33882   6.078  21.102   7.289 -0.0001  0.0729 -0.0254
33019W        W33883  15.121  21.508   7.045 -0.0381  0.0932 -0.0496
33020W        W33884  28.388   3.718   1.248 -0.1734  0.0106  0.2224
33021W        W33885   1.809  25.610   0.637 -0.2515 -0.0547  0.3566
33022W        W33886  24.385   5.394   2.463 -0.0691  0.1236  0.1708
33023W        W33887  16.311  14.653  12.537  0.4082 -0.1585 -0.0983
33024W        W33888  27.347  16.735  16.925 -0.1609 -0.1013  0.0354
33025W        W33889  13.224  14.192  17.063 -0.0745 -0.1091 -0.2009
33026W        W33890  14.904   8.095   6.575  0.3071  0.0448  0.0319
33027W        W33891  14.076  15.695   2.355  0.1745  0.3743 -0.4479
33028W        W33892  23.871  13.878  22.334 -0.0152  0.1340 -0.2573
33029W        W33893  10.698  10.168   9.663  0.1486  0.0278  0.1568
33030W        W33894   3.718  13.923  29.064  0.0093 -0.0253 -0.0607
33031W        W33895  15.334  11.556  22.837 -0.1806 -0.0936 -0.1043
33032W        W33896   5.005  24.949  10.466 -0.2889  0.2612 -0.1210
33033W        W33897   1.838  14.789  17.671 -0.1843  0.1656 -0.0530
33034W        W33898   6.669  13.253  20.192  0.0048 -0.0692 -0.0421
33035W        W33899   8.351   6.989   0.166 -0.1117 -0.2383 -0.4721
33036W        W33900  12.061  17.474  23.213 -0.0314  0.0736  0.1167
33037W        W33901   9.486   2.098   5.468  0.1978  0.3093 -0.2164
33038W        W33902   6.028  27.311   9.035  0.2129  0.0663 -0.1283
33039W        W33903  21.291   4.261  13.685  0.0333 -0.0522 -0.0765
33040W        W33904   4.513  14.876  28.835 -0.2280 -0.1232  0.1254
33041W        W33905  15.825  12.939  27.215 -0.2393 -0.2260 -0.0965
33042W        W33906   5.366   8.223  21.943  0.0468  0.1480  0.1996
33043W        W33907  10.526  28.487   8.428  0.2360 -0.2405  0.0583
33044W        W33908   3.386   5.030  17.345 -0.1059 -0.1055 -0.1922
33045W        W33909  13.386   2.665   2.812 -0.2454 -0.0074 -0.1870
33046W        W33910   3.827  18.069  27.377 -0.2462  0.2639 -0.1037
33047W        W33911   5.337  12.353  19.574 -0.1998 -0.0999  0.3918
33048W        W33912  22.281  21.406  21.897  0.0794  0.0791  0.0134
33049W        W33913   6.892   5.195   4.304 -0.1179 -0.1049 -0.2142
33050W        W33914   9.947  18.498  20.893  0.3206  0.0111 -0.1298
33051W        W33915   2.448  20.927  19.751 -0.1651 -0.3808  0.0876
33052W        W33916   2.878  15.493   2.053  0.1089 -0.0177  0.0943
33053W        W33917   4.809  12.452  25.859 -0.2767  0.1939 -0.0146
33054W        W33918  26.043  18.283   7.501  0.0144  0.3185  0.0435
33055W        W33919   6.898   9.766  16.860  0.1304 -0.1451 -0.1345
33056W        W33920  25.515  10.228   8.091  0.2737  0.0846 -0.2229
33057W        W33921  22.206  18.696   2.335 -0.0208 -0.0330 -0.0023
33058W        W33922  10.172  12.148   4.329 -0.0180  0.1106 -0.0076
33059W        W33923   1.478   4.945   4.852  0.0973 -0.3151 -0.0649
33060W        W33924  11.566  10.849  18.935  0.2800 -0.2287  0.1989
33061W        W33925  12.053  17.757  25.919  0.2664 -0.0774 -0.0525
33062W        W33926  16.683  18.326  27.784 -0.1006  0.0333  0.0165
33063W        W33927  12.667   6.251  22.059  0.0836 -0.1689 -0.3265
33064W        W33928   0.770   2.124  19.436  0.1999  0.4282  0.0272
33065W        W33929   6.413  18.562  26.976 -0.0422 -0.1306 -0.3066
33066W        W33930  11.089  17.125  19.697  0.1550  0.0738  0.0700
33067W        W33931  25.101  10.772   8.887  0.0514  0.2084 -0.0076
33068W        W33932  17.820   2.936  19.336 -0.1568  0.0921  0.2879
33069W        W33933  25.611   4.113  12.584 -0.0768  0.2828 -0.1910
33070W        W33934   5.228  24.812   8.284  0.2042  0.1693 -0.0388
33071W        W33935  27.896  21.956  24.103 -0.0823  0.0817  0.3393
33072W        W33936  12.568   0.056  26.749 -0.0735 -0.1793  0.1506
33073W        W33937  22.788   0.010  12.718 -0.0862 -0.1698 -0.0891
33074W        W33938   1.774  12.999   3.011  0.0422 -0.0711 -0.0728
33075W        W33939   1.603   1.065   5.095 -0.1591 -0.1143 -0.0386
33076W        W33940  18.882   9.363  11.424 -0.0251  0.2732  0.1706
33077W        W33941   3.169  21.371   6.485 -0.0078  0.1374 -0.0624
33078W        W33942  14.144  24.226  23.877  0.0352 -0.2217  0.1940
33079W        W33943  11.035   2.604  10.772 -0.3432  0.0675  0.0284
33080W        W33944  13.559  18.743  28.502  0.1901  0.1362  0.0873
33081W        W33945  21.238   5.374  16.560  0.1167  0.3923  0.5907
33082W        W33946  11.016   0.974  11.289  0.0529 -0.2367 -0.1489
33083W        W33947   0.214   2.603   9.486 -0.0618 -0.0969 -0.0369
33084W        W33948  10.585  14.967  24.630  0.1740  0.1087  0.3515
33085W        W33949   4.811  26.771  24.847  0.2180 -0.1524 -0.0518
33086W        W33950  12.053  16.372   5.623  0.1633  0.2949 -0.1827
33087W        W33951   2.675  15.575  11.402  0.2586  0.2526  0.2351
33088W        W33952   5.740  22.536  23.988 -0.1180 -0.1186 -0.1623
33089W        W33953  10.005  25.269   8.277  0.0084  0.2684 -0.0125
33090W        W33954   3.483  27.266  23.718  0.1768  0.1916 -0.3535
33091W        W33955  12.440  22.480  26.968 -0.0061  0.3717 -0.0458
33092W        W33956   6.685  14.534  21.104  0.0124  0.3507  0.0204
33093W        W33957  16.431  23.940  16.110  0.0898 -0.2430  0.1479
33094W        W33958  21.393  18.469  27.231  0.0534  0.2689  0.0688
33095W        W33959   8.347  28.142   0.864  0.0017  0.1360 -0.0094
33096W        W33960  22.804   6.904   7.871 -0.1225  0.0471  0.1801
33097W        W33961   5.062  12.374  28.108  0.0572 -0.0348 -0.0010
33098W        W33962   2.087  21.721  17.796  0.0193 -0.1798  0.0538
33099W        W33963  18.850  15.390   8.366  0.1436 -0.2702 -0.0448
33100W        W33964   8.385  23.353   1.939 -0.0251 -0.1988 -0.4050
33101W        W33965   4.276  13.207  18.927  0.0893  0.1576 -0.0215
33102W        W33966  18.712  17.738  21.963  0.3457 -0.0577  0.3856
33103W        W33967   9.063  16.821   5.121  0.1802  0.0145 -0.0815
33104W        W33968  11.009   7.570   2.383 -0.0210 -0.2199  0.1241
33105W        W33969  28.688  23.611   1.216  0.1002 -0.0079  0.1791
33106W        W33970  21.188  17.748  16.222  0.0264 -0.0425  0.1208
33107W        W33971   4.960   7.209   3.288 -0.0214 -0.1836 -0.2969
33108W        W33972   1.355  22.164  25.987  0.3533  0.0732  0.3129
33109W        W33973  19.017   2.477   6.742 -0.2149 -0.2210 -0.1212
33110W        W33974   8.065   6.855  26.187 -0.0903  0.0203 -0.0570
33111W        W33975   2.760  16.803  22.677 -0.1113 -0.0701  0.0159
33112W        W33976  18.776  13.631   4.729  0.3099  0.1946 -0.1850
33113W        W33977  26.690  28.491  23.449 -0.2375  0.0005  0.0529
33114W        W33978   5.138   0.645  29.072  0.2397  0.3402 -0.2849
33115W        W33979   1.099   6.281  12.870  0.1380  0.2081 -0.0419
33116W        W33980  11.920  14.596  21.479 -0.0114  0.1213 -0.0583
33117W        W33981  22.125   4.441  13.524  0.2457 -0.0856 -0.0618
33118W        W33982  10.227   4.286  19.876  0.0456 -0.0158  0.0152
33119W        W33983  14.659  21.057  26.374 -0.0951  0.0731  0.0279
33120W        W33984   1.680  19.323   1.727 -0.1964  0.0675  0.0723
33121W        W33985   3.344   6.275  19.486 -0.0240 -0.2970 -0.4538
33122W        W33986   5.445  13.021  26.502 -0.2615 -0.1713 -0.0762
33123W        W33987   8.590  15.732  15.137  0.1269 -0.4117 -0.0601
33124W        W33988  16.113  26.351  12.165 -0.2579  0.1425 -0.1218
33125W        W33989  14.412  13.977   3.088  0.1725 -0.1057  0.0059
33126W        W33990  27.297  18.478  10.963 -0.0326 -0.3408 -0.0161
33127W        W33991   7.627   6.332   9.740 -0.3050  0.3974 -0.0173
33128W        W33992  11.256  18.898   1.942  0.0617  0.0727 -0.0344
33129W        W33993   1.017  13.658   4.978 -0.0215 -0.2899  0.0661
33130W        W33994  25.667   2.913   6.386  0.1901 -0.1284  0.0477
33131W        W33995  19.852  27.818  16.949  0.1253 -0.0570  0.0251
33132W        W33996   1.410  10.234  18.206  0.1457 -0.2655 -0.0180
33133W        W33997  12.556  14.376  10.293  0.3667  0.1009 -0.2223
33134W        W33998  18.606  15.614   8.021  0.1021  0.1398  0.1329
33135W        W33999  14.226   9.061   4.089  0.1262  0.2159 -0.0015
33136W        W34000  17.898   7.515   2.876  0.0356  0.2012 -0.1938
33137W        W34001  23.149  19.434  14.615 -0.2655 -0.2075 -0.1153
33138W        W34002  28.099   8.441  19.936 -0.0393 -0.0754  0.2364
33139W        W34003  28.003   3.703   8.492 -0.2652  0.3641  0.1292
33140W        W34004   1.765  20.479  28.875  0.4530  0.2067 -0.1983
33141W        W34005  17.195  22.989  10.439 -0.1255  0.0414  0.1341
33142W        W34006  12.358  21.482  27.499  0.0092 -0.1652  0.2404
33143W        W34007  19.217  12.349  26.766 -0.0414  0.2855  0.2122
33144W        W34008   6.504   6.246   8.673 -0.1900 -0.0697 -0.3312
33145W        W34009  14.375   9.970   6.262 -0.1007 -0.0647  0.2372
33146W        W34010   3.435  10.809  18.800  0.0989 -0.0929  0.1474
33147W        W34011   4.796   3.759   4.271  0.1200  0.0322  0.1641
33148W        W34012  14.048   5.033  16.709 -0.0548 -0.1265 -0.2871
33149W        W34013   9.816   8.547  18.879 -0.0861 -0.1171  0.2306
33150W        W34014  14.131  12.919  14.519  0.2491  0.3476  0.0894
33151W        W34015   2.143   6.735   5.458 -0.0205 -0.1015 -0.1723
33152W        W34016   1.746  13.614  20.099 -0.3051 -0.0040  0.3209
33153W        W34017  10.069  12.879   1.855 -0.0349  0.0406  0.1508
33154W        W34018  24.669  26.965  22.708  0.2060  0.0050  0.0840
33155W        W34019   0.101  12.424  10.438 -0.1664 -0.4419 -0.2727
33156W        W34020  23.724   6.748  23.356  0.0299 -0.2457  0.1200
33157W        W34021   5.558  19.828   4.194 -0.0513 -0.0139  0.2440
33158W        W34022  25.126  13.246  14.178 -0.2434 -0.0381 -0.0493
33159W        W34023   5.311  14.336  15.329 -0.0330  0.4400  0.3331
33160W        W34024  15.274  16.201  26.663 -0.2166  0.1098  0.0719
33161W        W34025  21.074  19.828   2.122  0.3587  0.2422 -0.0447
33162W        W34026  24.302  12.814   5.728 -0.0576  0.2921  0.0512
33163W        W34027  26.454   9.945   6.370  0.0506  0.0773 -0.2066
33164W        W34028   7.706  13.822   4.422 -0.0374 -0.2336  0.1119
33165W        W34029   0.072   4.192  11.836 -0.4698  0.2174 -0.1347
33166W        W34030  17.059  26.409  12.107  0.0455  0.1978  0.0843
33167W        W34031  11.321   6.360  22.083 -0.0242  0.2218 -0.1991
33168W        W34032  21.141   9.841  15.288  0.0664 -0.3062  0.3974
33169W        W34033   6.701   7.121   8.291  0.0338  0.0368  0.0089
33170W        W34034  18.782  19.066   7.292  0.0302 -0.1679  0.5352
33171W        W34035   7.021  12.650   0.315  0.2004 -0.2021 -0.1354
33172W        W34036  10.630  14.074  17.253  0.1010 -0.0843 -0.0025
33173W        W34037   0.974   1.527   2.302  0.3724 -0.1368 -0.1435
33174W        W34038  25.326   7.691  20.906  0.1476 -0.2413  0.1036
33175W        W34039   8.474  16.031   3.734 -0.1626  0.2106  0.0405
33176W        W34040  10.801  16.802  13.802 -0.0256  0.2014 -0.0097
33177W        W34041   5.687  12.707  26.850  0.0003 -0.1586 -0.0649
33178W        W34042  12.893   7.497  28.956 -0.1155 -0.0536 -0.1366
33179W        W34043  19.931  26.271  10.888  0.0479  0.0642  0.1958
33180W        W34044   2.314  22.368   9.944 -0.0503 -0.0180  0.1321
33181W        W34045   3.247  23.281   7.813 -0.0794  0.1017 -0.1847
33182W        W34046   1.148   2.457   4.598 -0.0771  0.0652  0.3175
33183W        W34047   3.039  28.118  23.620  0.3244 -0.0095 -0.1038
33184W        W34048  21.275   6.693  22.551  0.4809 -0.1250  0.0129
33185W        W34049  17.322  10.694   9.001 -0.1995 -0.1822  0.0811
33186W        W34050  27.850   3.150  18.323  0.0678  0.2115 -0.1573
33187W        W34051  10.691   7.183  13.256  0.0401 -0.1410 -0.0510
33188W        W34052  14.169  28.344  19.796 -0.1833  0.1572  0.0195
33189W        W34053   6.903   3.249  15.583  0.0740 -0.1305  0.1066
33190W        W34054  26.001   3.795  27.445  0.0234 -0.1431 -0.0900
33191W        W34055  15.610   0.001  16.286 -0.0690  0.2796 -0.1740
33192W        W34056  26.920   6.702  13.430 -0.1357 -0.1948  0.0129
33193W        W34057   1.829   3.005  21.142 -0.1367 -0.2120 -0.2019
33194W        W34058   5.915  12.535  13.268  0.1373  0.0541  0.1652
33195W        W34059  19.917  12.227  10.400  0.0576  0.1745 -0.0588
33196W        W34060   5.030  27.913   3.349  0.1694  0.0836  0.1116
33197W        W34061   7.152  21.155   5.559 -0.0230  0.4398 -0.2168
33198W        W34062  12.762  22.106  11.568 -0.0217  0.1002  0.0569
33199W        W34063   7.443   9.338   9.263 -0.0046  0.0916  0.1119
33200W        W34064   2.729   2.194  23.554  0.0381 -0.1173  0.0806
33201W        W34065  21.456  16.063  19.632  0.1095 -0.0779  0.1349
33202W        W34066  18.192   5.421  14.957 -0.2851  0.1594 -0.0214
33203W        W34067   1.717  12.318  14.464  0.0363  0.4459 -0.3148
33204W        W34068  27.068  27.164   8.187  0.0292 -0.0298  0.4389
33205W        W34069  27.168  26.235  14.656 -0.0090 -0.1239  0.1258
33206W        W34070   8.311   8.123  11.065 -0.1536 -0.3473 -0.0604
33207W        W34071  20.197  20.830  11.473 -0.1281  0.1691  0.0084
33208W        W34072  21.971  18.074  16.724  0.0281  0.1233  0.0765
33209W        W34073   3.206  12.543  15.005 -0.3063 -0.0369  0.0456
33210W        W34074  28.855  15.698   6.540 -0.1668  0.0639  0.1009
33211W        W34075   1.174  10.814   0.860  0.0228  0.1192 -0.1199
33212W        W34076   2.328   0.112  16.919 -0.3198  0.0954  0.1551
33213W        W34077   2.934  22.141   5.340  0.1552  0.2005 -0.1525
33214W        W34078   0.277  20.692  12.171 -0.0886  0.1580 -0.1471
33215W        W34079   3.156   8.308   7.217 -0.0091  0.1637 -0.2900
33216W        W34080  19.575   7.495   7.982 -0.0880 -0.1238 -0.2674
33217W        W34081   1.594  20.442  27.520 -0.3015  0.1850 -0.1106
33218W        W34082   6.240   9.351  15.415 -0.2395 -0.0757  0.1515
33219W        W34083   7.672  14.617  28.392 -0.0569 -0.2915 -0.1863
33220W        W34084  16.449  10.119   9.612 -0.0351  0.0268  0.0383
33221W        W34085  26.809   5.107   7.116 -0.0687 -0.2074 -0.2452
33222W        W34086   3.784   0.029   0.347  0.6075 -0.0423 -0.1961
33223W        W34087   5.509   7.512  16.718  0.1687 -0.0257 -0.1168
33224W        W34088  18.308  12.927  16.683 -0.1527 -0.2117 -0.2602
33225W        W34089  15.976  22.523  13.023 -0.0702  0.1053 -0.0404
33226W        W34090  19.312  20.817   7.605  0.0347 -0.3426 -0.3114
33227W        W34091  26.618  25.967  19.635  0.2014 -0.2661  0.0826
33228W        W34092   9.343  10.582   3.802 -0.0797  0.1332 -0.0026
33229W        W34093   7.313   6.565   9.405  0.0654  0.2224 -0.0638
33230W        W34094   6.524  19.365  26.329  0.0269 -0.1840 -0.0367
33231W        W34095  21.615  13.025  27.242 -0.1491 -0.1068  0.0932
33232W        W34096   4.705   9.190  25.181 -0.2586  0.1439  0.1027
33233W        W34097   8.757   2.507  18.184 -0.2623  0.1456 -0.2024
33234W        W34098   6.440  20.589  24.092  0.0618 -0.0520  0.1547
33235W        W34099  16.935  27.620   8.866 -0.1361  0.1079 -0.0715
33236W        W34100   9.121   8.760   1.383 -0.0830 -0.0652 -0.1416
33237W        W34101   8.162   5.209  28.831 -0.1115 -0.0766  0.1499
33238W        W34102   4.993  13.556   9.540 -0.1133  0.1498  0.1417
33239W        W34103  12.332  20.193   0.310  0.2140  0.0602  0.1033
33240W        W34104  12.228   7.075  21.827  0.1369 -0.0768 -0.1637
33241W        W34105  21.026  14.561  26.380  0.1234 -0.2175 -0.0185
33242W        W34106   7.417  10.552  29.019 -0.4130 -0.1016 -0.1079
33243W        W34107  10.783  13.726  20.357 -0.2049 -0.0891  0.0736
33244W        W34108   0.350   6.856  16.464 -0.0340  0.0259  0.3781
33245W        W34109   3.263  10.379   8.195  0.1656  0.1871  0.0994
33246W        W34110   1.426   1.424  14.139  0.0621  0.2840 -0.0097
33247W        W34111  10.789   6.025  10.337  0.2178 -0.1613 -0.0890
33248W        W34112  26.086   6.971  10.243 -0.3283  0.0255  0.0968
33249W        W34113  13.339  13.492   4.387 -0.0568 -0.0815  0.1137
33250W        W34114  18.746   3.499  13.382 -0.2305 -0.0063  0.0457
33251W        W34115   6.748  13.690   9.686  0.1355  0.2728  0.1394
33252W        W34116  18.030  23.969  20.939  0.2397  0.0045  0.0453
33253W        W34117  14.262   3.591   7.724 -0.3361  0.2608  0.1258
33254W        W34118   7.218  13.463  12.624 -0.3625  0.0799  0.0906
33255W        W34119   8.997  24.246  28.685 -0.1398 -0.0821  0.0083
33256W        W34120  12.335  26.346  13.284  0.1059 -0.2976 -0.0729
33257W        W34121  21.963   6.282  22.370 -0.2423  0.0377  0.0907
33258W        W34122   3.633  14.627  14.371 -0.0359 -0.1120 -0.1072
33259W        W34123   7.699  25.378   7.365  0.0124 -0.0487  0.2813
33260W        W34124  11.924   7.450   8.324 -0.2615 -0.2949 -0.0860
33261W        W34125   1.192  15.613  24.759 -0.0412  0.1239  0.0373
33262W        W34126  15.208  15.069   2.259  0.2050 -0.1286  0.1876
33263W        W34127  16.488  17.577   6.746 -0.1865  0.2062  0.0823
33264W        W34128  15.075  14.838  14.856 -0.1802 -0.4060 -0.1060
33265W        W34129   6.931   2.335  18.549  0.3035  0.1229 -0.0017
33266W        W34130   1.285  16.013   7.838 -0.4127  0.2001 -0.0474
33267W        W34131  11.737  23.933  26.562 -0.0033  0.0813 -0.1031
33268W        W34132   3.224  16.391  26.993 -0.1252  0.1255 -0.0221
33269W        W34133   6.281  17.394   9.956 -0.1046  0.2803  0.0696
33270W        W34134  15.249   9.022  10.138 -0.1180  0.2309 -0.4737
33271W        W34135   5.861  12.613  11.542  0.3483  0.1920 -0.1004
33272W        W34136   2.333  15.267   6.256 -0.3187  0.2365  0.0618
33273W        W34137   0.402  11.176   6.940  0.0650  0.0601 -0.3230
33274W        W34138   1.090  13.885  16.069  0.0221  0.2793 -0.3417
33275W        W34139   0.407  13.033  19.201  0.0138  0.1258  0.0161
33276W        W34140  12.500   3.951  14.143  0.1334  0.3375  0.1301
33277W        W34141   9.269  24.413  18.055  0.2372 -0.1352 -0.0157
33278W        W34142  24.157   3.058  15.257  0.1412 -0.0417  0.0810
33279W        W34143  12.966   7.683  12.794 -0.2783 -0.1339  0.1788
33280W        W34144  19.035   2.602   6.032 -0.1691  0.1195  0.1996
33281W        W34145  17.135   1.739  27.646  0.3694  0.1410  0.2564
33282W        W34146  19.135  17.872  13.255  0.1819  0.1928 -0.0456
33283W        W34147  16.555   9.188   2.108  0.3320 -0.2043 -0.0540
33284W        W34148  16.089   9.834   1.586  0.1713 -0.3859 -0.0175
33285W        W34149  25.705  13.094   6.910 -0.1521 -0.0913 -0.0436
33286W        W34150   5.149  16.219  11.511 -0.2600 -0.0279  0.1721
33287W        W34151  26.087   7.709   0.945  0.0738 -0.0228  0.1202
33288W        W34152  15.426  27.206  16.844 -0.1193 -0.0683  0.0140
33289W        W34153  20.534  18.379   7.144 -0.0571 -0.0301  0.2002
33290W        W34154  26.798  17.127  24.981  0.0107  0.1681  0.1621
33291W        W34155  27.069   4.914   4.472  0.0301  0.0245  0.1576
33292W        W34156   6.544   3.112   5.952 -0.0750 -0.2662  0.2630
33293W        W34157  10.729  19.456  15.812 -0.3789 -0.0214  0.2468
33294W        W34158   6.612  15.520   2.962  0.1908  0.0054 -0.3267
33295W        W34159  14.278  24.599  22.571  0.1224  0.0611  0.4776
33296W        W34160  26.957   1.683   2.336 -0.1455  0.3429  0.1997
33297W        W34161  14.061  17.351  17.069  0.2435 -0.1801 -0.1375
33298W        W34162  14.575  13.076  12.396 -0.1462 -0.1372  0.2997
33299W        W34163  13.821  23.432   5.374 -0.0171  0.0608 -0.0572
33300W        W34164  19.289  19.708   0.395  0.2312  0.1629  0.0867
33301W        W34165   9.893  10.049  14.725  0.1147  0.0274 -0.0743
33302W        W34166  21.017   7.249   1.778 -0.0333 -0.0809  0.0917
33303W        W34167   2.042   6.502   1.742 -0.2594  0.1780 -0.0593
33304W        W34168  18.063   1.439  15.005 -0.1485 -0.1349  0.2383
33305W        W34169  12.003  16.040  15.440  0.0971  0.0200  0.1768
33306W        W34170  15.238  24.928  19.950 -0.0051  0.1248  0.1062
33307W        W34171  22.775  11.304  15.788 -0.3587 -0.1099 -0.3713
33308W        W34172  28.905  11.965   4.541  0.2881 -0.0269  0.0107
33309W        W34173  27.420   0.730  12.432  0.1914 -0.3119 -0.0946
33310W        W34174   3.646  10.858  24.850 -0.0655  0.2170 -0.1478
33311W        W34175  22.827  10.861   6.239 -0.0953 -0.3681  0.0228
33312W        W34176   8.037  26.184  28.195 -0.1970 -0.1687  0.1649
33313W        W34177  26.742  14.021  26.804  0.0807 -0.0670 -0.5265
33314W        W34178   5.168  19.162  27.564 -0.3144 -0.5680  0.0180
33315W        W34179  27.191  17.876  22.310  0.1302 -0.2355  0.0491
33316W        W34180  13.269  10.974  16.984 -0.2168  0.0990 -0.0791
33317W        W34181   1.623  28.274  20.811 -0.0817 -0.1000 -0.1266
33318W        W34182   3.280   9.405  20.747 -0.2669  0.0041 -0.2431
33319W        W34183  12.324  10.741  26.820  0.0714 -0.0171 -0.1008
33320W        W34184  13.638  24.862  11.413  0.2012 -0.1964 -0.1210
33321W        W34185  14.253   3.698   8.325 -0.1503 -0.0902 -0.1058
33322W        W34186   4.149   3.077  19.675 -0.1994  0.4579 -0.0387
33323W        W34187  22.845   2.807   5.299 -0.1104  0.4194 -0.1380
33324W        W34188  29.112  11.349  11.372  0.0052 -0.0470  0.0946
33325W        W34189  20.431   5.713  15.103 -0.1766  0.1451  0.0121
33326W        W34190  12.214  28.605  18.933  0.0148  0.0499 -0.3948
33327W        W34191  17.993  19.163   3.168  0.0266  0.1403 -0.1554
33328W        W34192  20.818   3.098   9.360 -0.1556 -0.0390  0.2370
33329W        W34193  24.346  10.255  15.873  0.2481 -0.0359 -0.3194
33330W        W34194   4.404  12.617  24.111 -0.1191 -0.0304  0.1216
33331W        W34195  10.999   0.960   7.138 -0.3008  0.3541  0.1315
33332W        W34196  11.421  10.054  17.860  0.2289  0.1980  0.1015
33333W        W34197  19.616  11.888  24.915 -0.1521 -0.0850 -0.0431
33334W        W34198  14.631   5.797  26.000  0.0735  0.0256  0.0743
33335W        W34199  23.189   4.590  18.070 -0.1279  0.0369  0.0883
33336W        W34200  12.626  19.149  12.930 -0.2095 -0.0057  0.0021
33337W        W34201  23.168  12.557   6.008  0.1446  0.0068  0.0250
33338W        W34202   0.839  12.396   4.940 -0.2320 -0.0731 -0.0614
33339W        W34203  27.682  18.624   4.463 -0.1973 -0.2372  0.0040
33340W        W34204   4.441  11.368  27.280 -0.1928 -0.1785 -0.3722
33341W        W34205  25.635   4.813  16.955 -0.2817  0.1177  0.0237
33342W        W34206   0.883  11.206  11.264 -0.1596 -0.1480 -0.0835
33343W        W34207  23.765  14.180   9.042  0.1512  0.0348  0.0255
33344W        W34208  12.262  13.432   8.421 -0.1498  0.0972  0.1189
33345W        W34209   9.254   6.861   3.083 -0.0063  0.0267  0.1049
33346W        W34210  19.348   0.703  27.424 -0.0212 -0.1361 -0.0262
33347W        W34211   8.588   9.773  11.065  0.3164 -0.2014  0.2800
33348W        W34212   3.200  24.449   4.463 -0.0389 -0.1228 -0.2562
33349W        W34213  28.834  15.497   9.718  0.0454  0.2723 -0.0758
33350W        W34214  11.513  26.843  10.574  0.2319 -0.3484  0.2124
33351W        W34215  12.479   0.500   4.760 -0.0887 -0.0786  0.2410
33352W        W34216   7.216   8.295  19.853 -0.1547  0.0893 -0.0799
33353W        W34217  28.969  14.163  12.240  0.0597  0.0248 -0.0868
33354W        W34218   0.290  17.709  21.329 -0.5954 -0.3768 -0.0922
33355W        W34219  25.086   2.405  28.088  0.1489  0.2460  0.1554
33356W        W34220   2.454  22.922  11.632  0.0156  0.1033  0.1588
33357W        W34221  25.677   8.252   2.629  0.1416 -0.0008  0.1834
33358W        W34222   8.699  11.274   6.387 -0.3074 -0.1128 -0.1332
33359W        W34223  10.811  16.742  12.115  0.0004  0.1191 -0.3667
33360W        W34224  14.750  11.380   6.920  0.0383 -0.2113 -0.4230
33361W        W34225   8.639  21.677   1.383  0.3254  0.2169  0.2319
33362W        W34226  22.536  13.849  18.847  0.0512  0.0672  0.3522
33363W        W34227  11.448  13.510   9.082  0.0180 -0.0883  0.1046
33364W        W34228   7.883   9.564  24.920 -0.1073 -0.0188 -0.0759
33365W        W34229  25.349  12.119  24.218  0.0116  0.0750  0.1541
33366W        W34230   6.886  11.500  11.583  0.0425  0.1065 -0.2625
33367W        W34231  27.392  22.566   6.391  0.3249  0.2045 -0.1876
33368W        W34232   9.129  20.621   8.153 -0.0608  0.0151 -0.0195
33369W        W34233   9.352  19.516  14.927  0.0119 -0.2248 -0.3312
33370W        W34234  16.784   6.723  28.191 -0.0711 -0.1898  0.1431
33371W        W34235   5.672  13.577  26.621  0.1788 -0.0611 -0.0669
33372W        W34236   3.225  25.496  10.583  0.1024  0.1851  0.2813
33373W        W34237  16.614  17.304  17.224  0.1341 -0.0075  0.1810
33374W        W34238  11.830   6.189  20.930  0.1303  0.1557  0.0227
33375W        W34239   3.259   7.271   1.704 -0.2135  0.2001 -0.0381
33376W        W34240  19.506  27.604   4.990  0.1372  0.1162 -0.1777
33377W        W34241   9.691   9.531   5.054 -0.0413 -0.1145  0.0880
33378W        W34242  24.598  14.768  11.951 -0.3182 -0.0617  0.0448
33379W        W34243  25.595   7.288  27.901  0.2604  0.1799  0.0263
33380W        W34244  23.111   0.256  14.736 -0.1590  0.2754  0.3973
33381W        W34245   2.483  17.860  12.155  0.4365  0.4960 -0.1424
33382W        W34246  19.887  11.233  25.129  0.5002 -0.0340 -0.1674
33383W        W34247   3.311   9.194  14.794 -0.1285 -0.0519  0.0121
33384W        W34248   5.827  21.120   4.475  0.1869  0.1045 -0.1595
33385W        W34249   1.516  15.984  14.224  0.3226  0.0067  0.0696
33386W        W34250  22.991   0.296  10.772 -0.2954 -0.0201  0.2182
33387W        W34251   3.659  12.381  11.563 -0.1429  0.3401 -0.0325
33388W        W34252  14.819   8.196  19.561 -0.0013 -0.2713 -0.0414
33389W        W34253  10.356  13.001  20.641  0.0643 -0.2415 -0.0263
33390W        W34254  22.412   0.110   3.692 -0.0144  0.0075 -0.1064
33391W        W34255  10.644   5.862  27.574 -0.2550  0.2465 -0.0577
33392W        W34256  27.554   3.189  13.133 -0.1627 -0.0072  0.0101
33393W        W34257  24.664  26.615  23.177  0.0700  0.2370 -0.1295
33394W        W34258  12.373  10.214  11.984 -0.5661 -0.0036  0.1304
33395W        W34259   1.013  28.731   9.415  0.0682 -0.0953 -0.1109
33396W        W34260   9.326  18.154  15.002 -0.1778 -0.3057  0.2444
33397W        W34261  22.054  26.776   3.893 -0.2227  0.2291  0.1251
33398W        W34262  18.395   8.941  10.569 -0.0859  0.0895 -0.1852
33399W        W34263  18.663  19.396  10.864  0.1888  0.3564 -0.0144
33400W        W34264  23.905   4.783   5.682 -0.0756  0.0669 -0.1101
33401W        W34265  15.874   8.467   5.155  0.2546  0.0378 -0.2149
33402W        W34266   0.392  16.383   9.064 -0.2392 -0.1098 -0.1245
33403W        W34267   2.984  23.758  19.261  0.0533 -0.0101  0.1432
33404W        W34268  26.299   8.372   0.643 -0.3084  0.0214 -0.1078
33405W        W34269  16.355   3.439  10.717  0.1230 -0.2682 -0.0197
33406W        W34270  13.302   6.501   7.636 -0.1392 -0.0756  0.2981
33407W        W34271   2.634   8.285   9.696 -0.0462 -0.0316 -0.1216
33408W        W34272  16.398  27.932  14.289 -0.0839  0.4239  0.1139
33409W        W34273  22.706   9.440  15.722 -0.3315  0.1411 -0.0431
33410W        W34274   0.075  11.264  16.049  0.2229 -0.2631 -0.2027
33411W        W34275  18.503   7.736  26.892 -0.0351  0.0532  0.0445
33412W        W34276   6.264   5.954  21.036 -0.0356 -0.1500  0.2359
33413W        W34277  13.077  16.313   9.275 -0.1564 -0.2021  0.1180
33414W        W34278   4.050  20.121  16.613 -0.2567 -0.0192 -0.2564
33415W        W34279  20.267   3.322   9.989 -0.2281  0.3132  0.3010
33416W        W34280  26.314  16.162  11.839 -0.0322 -0.2365 -0.2736
33417W        W34281   9.226   8.995  25.485  0.2720  0.0042  0.1518
33418W        W34282  17.603  17.907   8.381 -0.1162  0.0701 -0.1640
33419W        W34283  13.801  11.962  20.480  0.0242  0.0635  0.1455
33420W        W34284   2.828   9.447  14.368  0.1295 -0.2910 -0.1311
33421W        W34285  20.841  19.884   9.386  0.2716 -0.1425  0.1260
33422W        W34286  23.127   9.868   4.705  0.0716 -0.1746 -0.0512
33423W        W34287  28.109  20.982  15.979 -0.0641 -0.0805  0.1846
33424W        W34288   6.252  18.784  13.181 -0.0064  0.0642  0.0785
33425W        W34289   2.907  19.726  14.836 -0.1151  0.1128  0.0260
33426W        W34290   3.718   5.602  10.192  0.0145  0.1899  0.1239
33427W        W34291  21.234  27.556  10.863  0.0269  0.4239 -0.3238
33428W        W34292  16.614  13.870  11.084  0.1805  0.0164  0.3091
33429W        W34293  26.469  24.355  18.492 -0.2384  0.1248 -0.0713
33430W        W34294  24.722   6.323  19.794  0.3336 -0.0330  0.2154
33431W        W34295   0.981  26.527  16.389 -0.0132  0.1580  0.0322
33432W        W34296   1.609   9.982  26.783  0.0568 -0.3683 -0.0126
33433W        W34297  24.063  19.795  21.664  0.3603 -0.0090 -0.1033
33434W        W34298  14.411  24.743  21.237 -0.1409  0.1096 -0.1663
33435W        W34299  16.659  22.928  15.454  0.0417 -0.1429  0.0517
33436W        W34300  15.088  16.599  27.403 -0.1188  0.2783 -0.2551
33437W        W34301  15.572   1.925  19.096  0.1076 -0.5947  0.0918
33438W        W34302   6.563  18.149  12.662  0.2318 -0.2710  0.3032
33439W        W34303  10.187  11.524  28.194  0.0007 -0.1046  0.0075
33440W        W34304  15.568  12.268   8.940 -0.2705 -0.0941  0.5509
33441W        W34305  28.962  13.873  23.776  0.1094  0.0927 -0.1848
33442W        W34306   1.280  24.346  23.024  0.0205 -0.0118  0.0742
33443W        W34307  16.860   1.689  13.425 -0.3616 -0.0419  0.0203
33444W        W34308  10.519   3.278   9.987  0.1538  0.0804 -0.0923
33445W        W34309  25.214  28.248  28.743  0.0672  0.0115 -0.3648
33446W        W34310   9.946  16.880  18.851  0.1113 -0.0336  0.0152
33447W        W34311  28.646  27.598  24.970 -0.0413  0.0385 -0.0713
33448W        W34312   4.990  26.307  13.425 -0.0754  0.0348  0.0780
33449W        W34313  11.856  15.131  19.995  0.1529  0.1461 -0.0825
33450W        W34314   1.991   8.184  23.446 -0.2784 -0.2516 -0.0820
33451W        W34315   2.149   0.616   2.616 -0.1753  0.1382  0.0581
33452W        W34316  15.452   0.198   7.206  0.1160  0.0638  0.1255
33453W        W34317   2.134  10.398  14.989 -0.0592 -0.0450  0.2132
33454W        W34318  13.205   3.641   2.476  0.0709  0.1991  0.3270
33455W        W34319  23.646   6.276  11.683  0.4495 -0.0009 -0.0729
33456W        W34320  15.603   8.935   8.585  0.1506  0.0046  0.0329
33457W        W34321  27.701  22.298  17.837  0.2514  0.0465  0.0791
33458W        W34322  15.429  11.649   3.637  0.3049  0.2811 -0.1241
33459W        W34323  15.069   4.207  14.823  0.1468  0.0407  0.3963
33460W        W34324  18.192  18.921  17.807  0.0452  0.0455 -0.1333
33461W        W34325  15.534   5.303  11.987  0.0549  0.0602  0.0170
33462W        W34326   0.729   8.287  21.752  0.0054  0.1192 -0.1818
33463W        W34327   0.305   4.348  12.259 -0.1014  0.1465 -0.0063
33464W        W34328   9.655   2.784  17.261  0.2114  0.1498  0.4979
33465W        W34329  23.295  10.529  14.091  0.0233  0.1422  0.0213
33466W        W34330  14.740  26.144   9.206 -0.0178  0.0011 -0.3390
33467W        W34331   4.551  10.587   2.403 -0.2305 -0.1050 -0.2296
33468W        W34332  11.478  20.300  17.310 -0.3720  0.3711  0.0515
33469W        W34333  20.573   6.903  16.272  0.0328  0.0407  0.3458
33470W        W34334  13.228  13.330   6.667  0.3192 -0.1987 -0.3466
33471W        W34335  29.037   8.867   1.810 -0.2286 -0.1609  0.0154
33472W        W34336  15.690  28.204  23.848 -0.0779 -0.0265  0.1095
33473W        W34337   4.167  13.101  26.038 -0.0643  0.0294 -0.0987
33474W        W34338   7.889   3.969   2.363 -0.1965  0.0590  0.0716
33475W        W34339  24.979   3.998  19.620  0.0301  0.0128 -0.2388
33476W        W34340  27.170   8.589  22.425 -0.1738  0.1503  0.3135
33477W        W34341   7.607   2.835  14.723 -0.0675 -0.1595 -0.1343
33478W        W34342   6.756  13.501   5.270  0.2032 -0.1557  0.2510
33479W        W34343  17.804  11.757  14.951 -0.1421  0.2496  0.1166
33480W        W34344  25.026  18.285  24.923 -0.1972 -0.1070 -0.0211
33481W        W34345  11.189  28.104   1.818 -0.0328 -0.0894 -0.0182
33482W        W34346  12.865  16.284  12.109  0.0230 -0.0411 -0.1253
33483W        W34347  15.591  11.396  10.345 -0.1217  0.2527  0.2998
33484W        W34348   8.062   3.677  27.200 -0.0031 -0.0587  0.0541
33485W        W34349   1.727  19.055  21.092 -0.0052 -0.2071 -0.0422
33486W        W34350   8.705  17.225  17.231  0.3452 -0.0065  0.1222
33487W        W34351  25.283   4.765   5.648 -0.1413 -0.2174  0.0902
33488W        W34352  15.476   5.136   8.849 -0.1450 -0.0531  0.2260
33489W        W34353  22.120  15.452  14.806 -0.1762 -0.4418  0.0949
33490W        W34354   7.167  19.725  23.263  0.0809 -0.2774 -0.1693
33491W        W34355   6.333   6.709   5.674  0.1322 -0.0288  0.0103
33492W        W34356   6.345  12.487  14.476 -0.2128  0.0560 -0.2947
33493W        W34357   0.869   3.649  27.242 -0.1932  0.1204  0.0790
33494W        W34358   4.609  27.758  10.620 -0.3087  0.0193  0.1483
33495W        W34359   2.070  15.892  16.141 -0.2200 -0.0054  0.2957
33496W        W34360  28.923   9.667  15.832 -0.2894  0.3547  0.2322
33497W        W34361  17.002   6.357  13.194  0.0994 -0.0875 -0.0983
33498W        W34362   6.322  18.261  16.381 -0.1068 -0.5818  0.1667
33499W        W34363   4.980  18.103  16.325 -0.0681  0.4509 -0.0833
33500W        W34364  26.477  18.639   1.549 -0.4158 -0.2161 -0.2098
33501W        W34365  28.070  17.105  11.158 -0.0685  0.2504  0.0497
33502W        W34366  12.769  18.188   5.902  0.2687 -0.0454 -0.1390
33503W        W34367  16.068   7.533  14.244  0.0388 -0.3597 -0.1475
33504W        W34368   7.422  13.506   2.650  0.0306 -0.0128  0.2274
33505W        W34369  15.619  14.345  11.318 -0.0051  0.1279 -0.0546
33506W        W34370  11.125  11.082   7.976  0.3612  0.3786  0.0598
33507W        W34371  26.253   7.185   7.686  0.0263 -0.2960  0.2208
33508W        W34372  17.393  13.969  19.355 -0.0195 -0.1859  0.1430
33509W        W34373  19.308   5.926  14.446  0.1348 -0.0279  0.3312
33510W        W34374  26.910   8.540  27.655  0.3535 -0.1575  0.2871
33511W        W34375  21.303   9.077   0.915  0.0628 -0.2030 -0.2011
33512W        W34376  12.388  27.646  26.506  0.0429  0.1809 -0.1197
33513W        W34377  18.859   8.728   4.139  0.1215 -0.0279  0.0524
33514W        W34378   3.477  25.551  11.453 -0.0511  0.2004  0.1007
33515W        W34379  13.135  10.449   8.518 -0.2273  0.1318  0.2359
33516W        W34380  16.492   4.340  13.200 -0.2546 -0.1977 -0.0227
33517W        W34381   4.615  11.943  24.213 -0.3062 -0.1872  0.0252
33518W        W34382  22.482   5.582  15.497  0.1591  0.0470 -0.0559
33519W        W34383  10.107   2.488   6.539 -0.1545 -0.1042  0.1622
33520W        W34384   3.104   8.772   9.149  0.2681 -0.0815 -0.5097
33521W        W34385  13.518  24.925  17.351 -0.1759  0.0958  0.0430
33522W        W34386   9.296  14.421  12.056  0.5448  0.1458 -0.2659
33523W        W34387  15.862  12.460  10.650  0.3384  0.1358 -0.0584
33524W        W34388  19.473   7.410  10.972  0.1650  0.3135  0.0942
33525W        W34389  10.649   4.727   0.743  0.0293 -0.3127 -0.0589
33526W        W34390   9.522   8.047  12.477 -0.1540  0.0288 -0.0405
33527W        W34391  24.970   0.716   5.317  0.0096 -0.2242  0.0886
33528W        W34392   1.235  18.408  28.931 -0.1972  0.1181  0.3544
33529W        W34393   0.398  12.083  16.127  0.1607 -0.1714 -0.0883
33530W        W34394  26.796   4.322  15.207 -0.2206 -0.0705 -0.2215
33531W        W34395  18.026  17.187   8.364  0.0920  0.1302 -0.3322
33532W        W34396   6.643  17.733   5.103 -0.0709  0.3329  0.0914
33533W        W34397  19.256   4.245  10.380 -0.2283  0.2812 -0.1450
33534W        W34398  11.250   8.226  13.667 -0.3331  0.4104  0.2218
33535W        W34399  12.185  16.349   0.509 -0.2994  0.1747 -0.0953
33536W        W34400  28.410  27.291  14.789 -0.0046  0.0837  0.0386
33537W        W34401  16.566  12.065  17.633  0.2152  0.0218  0.0451
33538W        W34402  24.981  18.832   5.057  0.5251 -0.2605 -0.3412
33539W        W34403   8.179   2.569   6.561 -0.2328  0.0543  0.0211
33540W        W34404  21.207  26.890  17.755  0.1157  0.0790 -0.1285
33541W        W34405  16.157   7.197   1.310 -0.2070  0.2757 -0.2197
33542W        W34406   9.648  10.600   2.315  0.1465  0.5566  0.2314
33543W        W34407  10.741  22.560   3.309 -0.1953 -0.0949  0.3219
33544W        W34408  23.306   6.550   6.368 -0.2202  0.3970 -0.1016
33545W        W34409  16.591   7.624   8.796 -0.1043  0.2403  0.1008
33546W        W34410  17.062   3.807  22.883  0.0247  0.0484  0.0877
33547W        W34411  25.386  18.034  10.483 -0.0890 -0.0958  0.2841
33548W        W34412   9.315  10.163   4.331 -0.2041 -0.1361 -0.2240
33549W        W34413  14.647   3.702  13.612 -0.2563 -0.3194 -0.1828
33550W        W34414   4.400  27.055  11.513  0.1793 -0.0571  0.0011
33551W        W34415   2.987  12.106  20.616 -0.0651  0.0011  0.3249
33552W        W34416   4.686  28.193   4.130  0.1588  0.0312  0.0417
33553W        W34417   6.082  20.986   9.774 -0.3162 -0.2791 -0.0298
33554W        W34418  22.751  26.742  24.718  0.3795 -0.1262  0.2515
33555W        W34419  10.834  18.953  23.508  0.1457 -0.0532  0.3111
33556W        W34420  23.929   8.136  18.444  0.0930 -0.0424 -0.0808
33557W        W34421   0.962   8.479  24.952  0.1382  0.2472  0.1538
33558W        W34422   7.495  16.016  28.020  0.0200  0.2087 -0.0112
33559W        W34423  12.961  20.072  24.746 -0.0885  0.2647 -0.0736
33560W        W34424   0.710  27.218  12.700  0.0097  0.2315  0.1007
33561W        W34425  23.175  24.527  24.346  0.0769  0.3803 -0.0949
33562W        W34426   3.903   2.697  21.130  0.1618  0.2694 -0.0943
33563W        W34427   2.179  10.570   2.797 -0.0676 -0.4193 -0.1766
33564W        W34428  19.350  23.200  19.009 -0.1609  0.0219  0.2133
33565W        W34429   7.911   0.228  13.691 -0.1926  0.2369 -0.1316
33566W        W34430  11.701  26.624   8.061  0.0966  0.3755  0.1943
33567W        W34431   5.500  15.653   0.183 -0.0038 -0.0739 -0.4045
33568W        W34432  18.096   8.783  27.911  0.0086  0.0069  0.0694
33569W        W34433   6.477  26.500  10.709 -0.2631  0.0283 -0.2573
33570W        W34434  28.208  28.985  15.429  0.2447  0.1631  0.1455
33571W        W34435   1.455  23.015   4.011 -0.0731 -0.3957  0.3169
33572W        W34436  11.673  27.256  13.973 -0.0036  0.0109  0.3465
33573W        W34437  15.346   9.945  25.291  0.3201  0.2040  0.0659
33574W        W34438   8.557   8.104  16.510  0.0746 -0.0065  0.1206
33575W        W34439  26.406   7.837  19.794 -0.0618 -0.1592 -0.1009
33576W        W34440   2.289   5.222  28.717  0.0946  0.3016 -0.4970
33577W        W34441  24.469  17.804   4.441  0.2760  0.4000 -0.1734
33578W        W34442  18.699  13.561   9.265  0.0653 -0.0236  0.1383
33579W        W34443  14.112   5.322  10.713  0.0881  0.1059  0.0313
33580W        W34444   9.159  16.959  11.881 -0.1060 -0.5747  0.1448
33581W        W34445  13.431   4.157   9.560  0.0090  0.0109  0.0075
33582W        W34446   1.642   1.581  16.059 -0.0315 -0.2900 -0.2408
33583W        W34447  11.184  25.685   9.191 -0.1433  0.0087  0.0697
33584W        W34448  27.141   3.398   8.151 -0.0026  0.0551  0.1430
33585W        W34449   1.205  28.930  15.855 -0.2302  0.0952  0.0998
33586W        W34450   2.917  14.531  23.492  0.2845  0.0643 -0.3890
33587W        W34451  24.888   5.599  11.155  0.0391 -0.0750  0.0868
33588W        W34452   4.613  25.950  18.495  0.2799  0.2987 -0.4219
33589W        W34453   4.960  12.618  11.338 -0.0449  0.1425 -0.1807
33590W        W34454  23.486   5.814  25.864 -0.0498 -0.3872 -0.1757
33591W        W34455   6.806  25.264   7.217  0.0873 -0.1375  0.0497
33592W        W34456  17.201  16.233  10.459  0.1648  0.2813 -0.0774
33593W        W34457   9.016  26.878  24.701 -0.1324 -0.2596  0.1228
33594W        W34458   9.630  18.920  26.552  0.0197  0.1203  0.2797
33595W        W34459   1.254  11.314  13.127 -0.1282  0.3953  0.2949
33596W        W34460  21.798   7.632  13.866  0.1011  0.0633  0.2490
33597W        W34461   3.905  22.881  14.480 -0.0222 -0.2508 -0.5764
33598W        W34462  20.428  23.117   2.838  0.2760  0.2398  0.3034
33599W        W34463  27.582   8.291  18.428 -0.0109 -0.0367 -0.0448
33600W        W34464   4.855   4.834  26.145  0.0829 -0.0970 -0.3428
33601W        W34465  14.407   3.391   3.602  0.3405 -0.2320 -0.0001
33602W        W34466  12.861  19.700  27.324 -0.0101 -0.0625  0.0916
33603W        W34467  24.569   7.300   5.515  0.1843  0.0195  0.1213
33604W        W34468  19.864  25.904  22.549 -0.4186  0.0709 -0.0349
33605W        W34469  15.516   6.211  16.804  0.2701 -0.0959  0.1208
33606W        W34470   0.711  17.781  13.609  0.2638 -0.2246 -0.2832
33607W        W34471  28.138   8.221   2.727 -0.0131 -0.1376 -0.0773
33608W        W34472  25.795   7.315  17.679  0.0072  0.3827 -0.0789
33609W        W34473   9.290   0.381  18.584 -0.0711 -0.0193 -0.1766
33610W        W34474   6.919  21.039  18.935 -0.3484 -0.0601  0.1081
33611W        W34475   6.476  14.372  10.511  0.0114  0.0372  0.0468
33612W        W34476  22.188  10.761  17.041 -0.0800 -0.3397 -0.4203
33613W        W34477  15.217  14.240  12.182 -0.3101 -0.0711 -0.1041
33614W        W34478  15.500   2.228   8.471 -0.1020  0.0728 -0.1871
33615W        W34479  25.394  25.085  12.762  0.1348 -0.3345 -0.1012
33616W        W34480   6.906  18.174  16.376 -0.1425  0.1236 -0.0762
33617W        W34481  12.949  17.789  19.312  0.1452 -0.0143  0.0165
33618W        W34482  11.534  12.513  10.838  0.3324 -0.0744  0.0525
33619W        W34483   8.161  12.607  16.860  0.0734 -0.2531  0.1648
33620W        W34484  10.283   0.427  17.769 -0.0005  0.2698  0.1438
33621W        W34485   6.665  10.459  13.764  0.0068  0.1941 -0.0222
33622W        W34486  29.068   5.195  20.062 -0.1133  0.2546  0.2539
33623W        W34487  25.029  11.156   1.318  0.2151 -0.1264 -0.1409
33624W        W34488   2.791   2.227   9.489  0.1481  0.1132  0.2920
33625W        W34489  12.722   9.640   5.086 -0.0441  0.0006  0.1090
33626W        W34490  25.798   7.601  11.952  0.1795  0.0830 -0.3682
33627W        W34491  14.282  23.635  10.780  0.0112  0.0348 -0.3273
33628W        W34492   3.814  25.407   1.430 -0.2705 -0.0592  0.0320
33629W        W34493   3.015   5.382  22.080 -0.2063 -0.2753 -0.1066
33630W        W34494  22.984  12.951  28.877 -0.1273  0.1878 -0.1556
33631W        W34495   8.517  17.709   7.001 -0.0268  0.1618 -0.1087
33632W        W34496   4.030  14.209   1.655 -0.3021  0.3431 -0.3179
33633W        W34497  27.738  19.918  19.966 -0.1142  0.1041 -0.2279
33634W        W34498  16.117  18.678   3.891  0.3939  0.1112  0.0219
33635W        W34499   3.529  23.763   5.498  0.0017  0.0144  0.0026
33636W        W34500   9.468  10.990  10.367 -0.4254 -0.1354  0.0883
33637W        W34501   3.062  18.389  19.922 -0.1632 -0.2690 -0.3148
33638W        W34502  13.826  28.589  13.236  0.0075  0.2667 -0.1758
33639W        W34503   1.140   8.884   1.068  0.0256 -0.3812 -0.1868
33640W        W34504   3.464  21.083   3.286  0.2658 -0.0009 -0.4384
33641W        W34505  15.341  27.492  20.227 -0.1015  0.1132  0.1624
33642W        W34506   3.969  13.049   8.716  0.1277  0.0102  0.1691
33643W        W34507   7.310  23.399  14.354 -0.2887 -0.1747 -0.1351
33644W        W34508   0.507   2.079  18.525 -0.1546  0.0546 -0.0982
33645W        W34509   0.422  18.899  10.823 -0.1427 -0.1040  0.0525
33646W        W34510  22.555  12.960  11.723  0.0757 -0.1292  0.1364
33647W        W34511  25.771  12.320  24.647 -0.0867  0.1737 -0.3173
33648W        W34512   9.199   9.246  23.521 -0.0297 -0.1457 -0.1857
33649W        W34513  27.193   9.638  26.414  0.0651 -0.2125 -0.0387
33650W        W34514   4.756  26.771   4.084 -0.2646 -0.1009  0.0972
33651W        W34515  20.884  25.395  14.076 -0.1848  0.4359  0.0311
33652W        W34516   0.437  21.920   6.240  0.1826  0.1108 -0.0191
33653W        W34517  28.330   6.052  19.149 -0.1792 -0.5111 -0.0226
33654W        W34518  19.087   9.447  10.955  0.0165  0.0053  0.0334
33655W        W34519   8.829   5.172  19.814 -0.0437  0.3876  0.0982
33656W        W34520   8.350   8.803   1.034 -0.2011 -0.0061  0.1702
33657W        W34521  29.060  24.797  17.818 -0.2724  0.1722 -0.0725
33658W        W34522  17.171   4.152  10.399  0.1932 -0.0588  0.0438
33659W        W34523   9.278  28.384  10.980  0.0619  0.4147 -0.1169
33660W        W34524   6.051   1.734   9.596 -0.0214  0.3864  0.2929
33661W        W34525  12.207  12.719   2.370  0.1599 -0.0601  0.0671
33662W        W34526   4.584  27.213   8.781  0.2168 -0.0879 -0.0108
33663W        W34527  12.867  12.219  10.460 -0.1914  0.2054 -0.0780
33664W        W34528   3.820  15.918   4.851 -0.0935  0.1615  0.0575
33665W        W34529   0.336  17.735  13.261  0.1347  0.3722  0.0464
33666W        W34530  20.418  14.533  18.620 -0.0703 -0.2612  0.1468
33667W        W34531   8.006  16.186   5.671  0.1323 -0.2609 -0.1177
33668W        W34532   5.515   6.161  13.076 -0.0453  0.1940  0.0679
33669W        W34533  18.288   9.777  12.503 -0.0211  0.0025 -0.2610
33670W        W34534  22.150  17.415  20.567  0.1330 -0.1239  0.1869
33671W        W34535  14.287  11.375  11.451  0.0909  0.1768  0.0267
33672W        W34536   0.909  19.777  12.302  0.0107 -0.3013 -0.0895
33673W        W34537  15.697   6.389  16.300  0.0309 -0.1506 -0.0803
33674W        W34538   6.442   3.276  16.431  0.1822  0.1955  0.2305
33675W        W34539   2.024  11.383  15.744  0.2664 -0.3264 -0.1446
33676W        W34540  12.239  12.666  21.207  0.0669  0.1924 -0.2396
33677W        W34541   8.243   7.360   8.770  0.1213 -0.0211  0.2541
33678W        W34542  10.698  27.923  14.895 -0.2917 -0.1919  0.0742
33679W        W34543  20.738  24.660  15.678 -0.1123  0.0911 -0.1185
33680W        W34544  28.324   3.761   4.577  0.0361  0.0655  0.1395
33681W        W34545   4.472  13.254  12.503 -0.2620 -0.2447  0.1148
33682W        W34546  27.092  16.180   5.386 -0.3148 -0.1953  0.1042
33683W        W34547   4.594   5.848  14.483 -0.1567 -0.1190 -0.2454
33684W        W34548   8.643  24.400  17.536  0.0086 -0.1083 -0.0172
33685W        W34549  21.075   5.878  13.961 -0.0680  0.0079  0.3041
33686W        W34550  14.893  28.594  24.495  0.3122  0.3191 -0.0068
33687W        W34551   5.287  11.103  10.514  0.3736 -0.1053  0.0926
33688W        W34552  15.511  24.168  24.121 -0.1746  0.1140  0.2559
33689W        W34553   0.741  11.864  23.413 -0.0533  0.1985  0.1627
33690W        W34554  29.057  12.685  20.496  0.1973 -0.1636 -0.1378
33691W        W34555   8.513   2.777  17.416 -0.0019  0.1245  0.1776
33692W        W34556  19.045   2.755  22.419 -0.1380  0.0340  0.2392
33693W        W34557   0.712  14.309  17.180 -0.0659 -0.1677  0.1914
33694W        W34558   9.865   5.990   2.059 -0.1828 -0.0499 -0.0736
33695W        W34559  21.253  22.956  13.335 -0.1614 -0.1894 -0.1762
33696W        W34560   8.558  26.582  17.896 -0.0841  0.2407 -0.0283
33697W        W34561   8.462   4.173  13.437  0.2391  0.1647  0.1208
33698W        W34562   6.847  22.320  29.089 -0.0398 -0.1122  0.0133
33699W        W34563   2.820   2.048   0.564  0.0240  0.1844  0.1661
33700W        W34564   3.646   7.880  27.016 -0.1065 -0.0732  0.1809
33701W        W34565   5.009  23.408   5.321 -0.1069  0.0286 -0.0554
33702W        W34566  21.841  20.950   2.405  0.0984 -0.1032 -0.0056
33703W        W34567   9.324  13.115  22.842 -0.0006  0.1573 -0.0263
33704W        W34568   3.019   0.593   7.962  0.2607 -0.0282  0.2899
33705W        W34569  27.389  13.340  14.088 -0.2278  0.1137  0.1697
33706W        W34570   0.953  12.008   8.244 -0.3562  0.2948  0.0011
33707W        W34571  12.825   8.904  10.356 -0.0060  0.4929 -0.2228
33708W        W34572   8.939   7.433   7.534 -0.0173  0.1084 -0.0607
33709W        W34573   7.043   1.422  22.798  0.0144  0.1474 -0.1836
33710W        W34574   7.908  11.278  10.414  0.1657  0.0278  0.1807
33711W        W34575  27.552   0.106  14.872  0.1877  0.1834  0.0037
33712W        W34576   9.181  28.644  21.477 -0.0561 -0.3300  0.3022
33713W        W34577   2.240  24.308  20.774 -0.3918 -0.1709  0.0977
33714W        W34578   2.277  14.939  16.197 -0.0093  0.1359 -0.0188
33715W        W34579  26.805  15.193  15.332 -0.0295  0.2043  0.1291
33716W        W34580   1.981  17.889   7.206  0.0677 -0.0611 -0.0513
33717W        W34581   9.504  16.272  15.279  0.0486  0.2777  0.3269
33718W        W34582  22.266  11.346   9.644 -0.0435  0.2560 -0.1268
33719W        W34583  18.614  25.589  25.394  0.1022  0.0659 -0.1903
33720W        W34584  22.101  24.779   2.963 -0.0414  0.2539  0.0017
33721W        W34585   6.632   9.524  11.231 -0.0197 -0.0170  0.2597
33722W        W34586  20.014  23.832  21.306  0.0132  0.2550  0.0779
33723W        W34587   5.101  14.615  10.412  0.0584  0.0567  0.0290
33724W        W34588  22.311  24.243  20.052  0.0728  0.1416  0.3157
33725W        W34589  26.302  25.577  13.687 -0.1041 -0.0956 -0.2470
33726W        W34590   6.714  12.620  28.970  0.1209 -0.4304  0.0452
33727W        W34591  22.399   4.589  15.236 -0.1497  0.2214 -0.2514
33728W        W34592   1.181  26.670  21.296  0.3709  0.0249 -0.2259
33729W        W34593  14.309   9.821   9.577 -0.0529  0.4868 -0.0411
33730W        W34594  22.969  10.315  18.145  0.1195 -0.0688  0.1904
33731W        W34595  21.545   3.903  26.061 -0.0140  0.0002 -0.0257
33732W        W34596  19.574   6.111  22.806  0.0107 -0.0233 -0.1091
33733W        W34597   8.138  13.378  17.469  0.1775 -0.1827  0.0946
33734W        W34598  23.237  14.509   6.079  0.0149 -0.1133 -0.1800
33735W        W34599  28.135   3.212  14.606  0.1312 -0.1837  0.0847
33736W        W34600   6.760  14.071  11.921  0.5053  0.2475 -0.0245
33737W        W34601  24.549   4.365  10.082 -0.1170  0.1176 -0.1720
33738W        W34602  14.276  10.198   7.412  0.0141  0.1694 -0.0934
33739W        W34603  26.364  21.038  25.100 -0.2531  0.1492  0.2942
33740W        W34604   5.602   8.510   6.990 -0.0239  0.1272 -0.1827
33741W        W34605  23.482  10.398  23.893 -0.0396  0.0709 -0.0171
33742W        W34606  28.044  16.158  18.710  0.0352 -0.1406  0.4268
33743W        W34607  27.137   8.711   0.989 -0.2851 -0.1687  0.0120
33744W        W34608  25.137  11.385  20.693  0.2279  0.0642  0.1707
33745W        W34609  12.753  12.735  18.340 -0.2452  0.1165  0.0751
33746W        W34610  24.857  12.743  14.243 -0.0499 -0.1867  0.0288
33747W        W34611  27.326   6.710  18.734  0.2744 -0.2923 -0.1567
33748W        W34612  13.564   8.595  27.611 -0.3904 -0.1389  0.1503
33749W        W34613  10.949  14.856  13.901  0.3118  0.1199  0.3243
33750W        W34614   1.228  15.806  24.136 -0.1713  0.1534  0.0686
33751W        W34615  25.603   2.554   8.626  0.1311 -0.0249 -0.0388
33752W        W34616   3.696   7.307   7.943 -0.2040  0.0932 -0.4950
33753W        W34617  21.738   2.165  19.125 -0.1968 -0.0906  0.2407
33754W        W34618  28.735  12.713  21.295  0.0094  0.1284  0.0791
33755W        W34619  25.061   4.540  22.483 -0.0707 -0.0082  0.0634
33756W        W34620   1.916  16.989   7.297 -0.0677 -0.2734 -0.0039
33757W        W34621   8.720  19.276   3.497 -0.1608 -0.1648  0.2707
33758W        W34622  13.153  10.969  18.299 -0.2504  0.0478  0.4741
33759W        W34623   8.316   8.817  11.097  0.2762 -0.1602  0.4478
33760W        W34624   8.100  20.469  17.873  0.1033 -0.0368  0.3428
33761W        W34625  11.785  14.977   8.254 -0.0541 -0.1332 -0.0150
33762W        W34626   4.910  10.875   6.441  0.0181 -0.2518 -0.1585
33763W        W34627   2.618  29.018  15.387  0.2670  0.0768 -0.0648
33764W        W34628  12.010  19.889  12.031  0.0156  0.1816 -0.1936
33765W        W34629  24.279   8.794  14.364  0.1978  0.1962 -0.1478
33766W        W34630  26.482   4.211   0.891 -0.1800 -0.0669  0.0827
33767W        W34631  11.861  26.640  26.595  0.0981  0.2404 -0.0217
33768W        W34632  12.882   4.937   7.972  0.1714 -0.1086  0.0420
33769W        W34633  20.036   3.921  19.868  0.2718 -0.0895 -0.0631
33770W        W34634   9.254  16.701  17.290  0.2477  0.2338  0.0164
33771W        W34635  16.605  27.207   6.635 -0.1827  0.1167 -0.1654
33772W        W34636  14.315  18.905  23.707 -0.0615 -0.1407  0.0466
33773W        W34637   7.238  23.723  15.317  0.3060 -0.1671  0.1753
33774W        W34638   0.023  18.495  10.705  0.2348 -0.1985  0.1151
33775W        W34639  13.532  11.177  26.026  0.2684  0.0832 -0.0902
33776W        W34640  10.670  22.598  20.381  0.0077  0.1484 -0.3197
33777W        W34641   7.834   9.745  16.266  0.0503  0.0411  0.0868
33778W        W34642  21.066   6.355  20.122  0.0317  0.0994 -0.0974
33779W        W34643   0.720  17.907  22.609 -0.1547  0.0735  0.3270
33780W        W34644   5.508  23.540   8.148 -0.0181  0.0426 -0.1563
33781W        W34645   2.742   9.459  12.460 -0.2648  0.0247 -0.0362
33782W        W34646  14.048   2.252  24.058  0.0058  0.1640 -0.0368
33783W        W34647   9.676   6.933  21.130  0.1551  0.1982  0.3181
33784W        W34648  22.534  20.690   0.375  0.1300 -0.1640  0.2338
33785W        W34649  21.989   2.278  21.462  0.0165 -0.1911 -0.2448
33786W        W34650  10.730  10.680   9.549  0.0774 -0.0163  0.0995
33787W        W34651   5.883   0.437  12.606 -0.3224 -0.0299  0.0349
33788W        W34652   3.762  21.664  13.696 -0.0387 -0.2184  0.1917
33789W        W34653   8.101  19.803   2.228  0.0394 -0.2954 -0.0385
33790W        W34654   5.313  28.420  26.414 -0.1205  0.1238  0.1384
33791W        W34655  22.024  17.516   7.944 -0.1780  0.0699  0.1129
33792W        W34656  25.514  21.165  24.531  0.4330 -0.0348  0.0426
33793W        W34657   5.363   6.497  17.606  0.0620  0.3361 -0.2737
33794W        W34658  22.373  24.222  27.451  0.2199  0.1801  0.2589
33795W        W34659   3.894   6.799  15.353 -0.3535 -0.2784 -0.1900
33796W        W34660  17.792  26.248  14.127  0.1649  0.1171  0.0521
33797W        W34661  27.740   5.349   9.014 -0.2638  0.0576 -0.2218
33798W        W34662   9.063   9.344  17.565  0.0453  0.1293  0.2176
33799W        W34663  20.700   1.723  22.682 -0.2362  0.4235 -0.2294
33800W        W34664  12.785  10.876  13.558  0.0519  0.1902 -0.0168
33801W        W34665  20.030   8.582  28.316 -0.1495 -0.0475 -0.2896
33802W        W34666  15.576  20.798  28.044 -0.2789  0.2340  0.4332
33803W        W34667  24.542   5.466  10.048  0.1397  0.0721  0.2834
33804W        W34668  17.651   8.190  28.138  0.0382 -0.1789 -0.1012
33805W        W34669  22.530  28.579  17.949  0.1145 -0.2822  0.1856
33806W        W34670   2.190  27.164   8.818  0.1310 -0.1143  0.0558
33807W        W34671   6.075  25.157   6.438 -0.1465  0.1263  0.0984
33808W        W34672   4.061   3.417  10.794 -0.0067 -0.1011  0.0640
33809W        W34673  13.820  26.335  10.511  0.1039 -0.0235  0.1854
33810W        W34674   4.842  16.061  11.118  0.0198  0.0455  0.4817
33811W        W34675   3.671  20.320  27.246  0.0789 -0.1357  0.1497
33812W        W34676   3.353   3.242   2.819  0.2574  0.1627 -0.1561
33813W        W34677   5.810  25.387   0.659  0.1395  0.1380 -0.2381
33814W        W34678  26.707   7.788  10.133 -0.0818 -0.2686  0.1619
33815W        W34679  11.946  26.184  19.017  0.1157 -0.2463  0.1489
33816W        W34680  18.725  14.889  11.423  0.1880 -0.0245 -0.3153
33817W        W34681   9.491  11.890   1.922  0.0113 -0.0711 -0.2273
33818W        W34682  28.715  28.133   7.546  0.2661 -0.0275 -0.2643
33819W        W34683  28.192  24.848   7.715  0.1645 -0.0581 -0.2442
33820W        W34684  25.077   8.909  24.213  0.0724 -0.1001  0.0005
33821W        W34685   1.462  28.432  15.404  0.1115 -0.0593 -0.2792
33822W        W34686  11.031   2.141  16.956  0.1681  0.1480 -0.1061
33823W        W34687  18.201  17.835  20.411 -0.1201  0.0088 -0.0971
33824W        W34688  28.551  22.292  23.473  0.2029  0.2609 -0.0345
33825W        W34689   9.688  23.778   7.174  0.3519 -0.1605 -0.1642
33826W        W34690  25.278  17.572  27.555 -0.1773 -0.2867  0.0265
33827W        W34691  10.100   7.418  11.422  0.2163 -0.0676  0.0333
33828W        W34692  15.946  21.965   4.893  0.0300 -0.2425  0.0211
33829W        W34693  25.881  26.613   4.561 -0.3675 -0.2021 -0.0015
33830W        W34694  18.834   9.493   5.257  0.0760 -0.0454  0.0923
33831W        W34695  18.442   6.344  16.397  0.0098 -0.1625  0.1549
33832W        W34696   0.767   8.802  17.015 -0.0916  0.0664  0.1629
33833W        W34697  19.599  27.465  20.324 -0.2114 -0.0754 -0.0283
33834W        W34698   5.680  19.772   9.410 -0.0220  0.0543  0.0930
33835W        W34699  26.770  21.461   8.789  0.1098 -0.4742  0.0963
33836W        W34700  17.393   9.097  14.755 -0.1629 -0.1194  0.0442
33837W        W34701   4.645  21.599  14.089  0.0553 -0.1956  0.1099
33838W        W34702  16.217  10.732  10.357  0.3297 -0.1283 -0.3774
33839W        W34703  27.550  17.374  14.618 -0.1627  0.1645 -0.2541
33840W        W34704   9.394  10.302  20.315  0.3196 -0.0869 -0.1424
33841W        W34705   6.333  22.375   7.778  0.0715 -0.0413  0.2099
33842W        W34706  10.522   3.545  14.695  0.2621 -0.0449 -0.0665
33843W        W34707   1.427  29.020  24.984  0.2144  0.2281 -0.3395
33844W        W34708  25.716  20.238   5.472  0.4216  0.1012  0.1169
33845W        W34709   5.691   7.710   4.490  0.0321  0.0704  0.0142
33846W        W34710  26.046  11.951  10.773  0.0475 -0.0662 -0.0835
33847W        W34711   2.333  10.774   8.189  0.0021  0.0279  0.1022
33848W        W34712  17.459   6.975   2.816  0.1263 -0.3359 -0.0670
33849W        W34713  17.302   4.499  24.568  0.3216  0.0991 -0.2142
33850W        W34714   3.482   3.422  15.469 -0.0113  0.2908 -0.0504
33851W        W34715   4.984  23.770  15.686 -0.0826  0.2069  0.0722
33852W        W34716   4.709   2.784  22.608 -0.1165 -0.0019 -0.0090
33853W        W34717   4.479   6.306   9.305 -0.1927 -0.0464  0.2706
33854W        W34718  23.398  10.821  26.487  0.1082 -0.1005  0.0240
33855W        W34719   5.692  21.149  28.020  0.4590 -0.2041 -0.3465
33856W        W34720  27.192  25.190  15.832  0.0493  0.0287 -0.0088
33857W        W34721  19.767   9.972  25.129  0.1952  0.3399  0.2255
33858W        W34722  14.914   6.404   5.216  0.3758 -0.1476 -0.2000
33859W        W34723  18.353   2.715  12.090 -0.1839 -0.2828  0.0476
33860W        W34724  15.082   6.483  25.559 -0.1878  0.2409 -0.0051
33861W        W34725  25.679  21.950  18.015  0.1313 -0.2529  0.0467
33862W        W34726   7.269   8.181  14.084  0.0223  0.2000  0.0043
33863W        W34727   6.834   9.282  10.850 -0.0529  0.1153 -0.1054
33864W        W34728  22.962   5.567  15.371 -0.0384 -0.0128 -0.0186
33865W        W34729   8.272  26.082  25.083  0.1275 -0.0484  0.0880
33866W        W34730   4.564  11.836   7.043 -0.2724  0.2714 -0.0684
33867W        W34731   3.743  27.281  27.655  0.0127 -0.0045 -0.1183
33868W        W34732  18.780   8.618  19.841 -0.1371  0.2572  0.1201
33869W        W34733  28.493   3.494  23.907 -0.0588 -0.0693  0.1651
33870W        W34734  13.089  26.019  16.128 -0.0359 -0.1769  0.2428
33871W        W34735   8.999  25.160  13.174 -0.1446 -0.1787 -0.0395
33872W        W34736  25.333   6.565   6.494  0.1197 -0.0045 -0.1816
33873W        W34737  17.940   3.170  11.799 -0.0256  0.2256  0.0966
33874W        W34738  23.248  17.168  10.244 -0.3206 -0.1897 -0.1789
33875W        W34739   5.992  16.916  15.321  0.0621  0.0419  0.0435
33876W        W34740  15.049   3.185  10.891 -0.1085 -0.3046  0.3483
33877W        W34741  16.257   6.137   9.535 -0.3016  0.1603  0.1798
33878W        W34742  20.713  28.831  19.999 -0.2657  0.0490 -0.2997
33879W        W34743   5.666  26.450   0.739  0.2870  0.0168  0.1909
33880W        W34744  22.114  10.856   8.671 -0.2022 -0.0756  0.1139
33881W        W34745  16.316   3.944  10.940 -0.0447 -0.1384  0.2955
33882W        W34746  13.557   0.711  17.400 -0.0584  0.0630  0.1234
33883W        W34747  18.939   3.226  15.905 -0.2757  0.0481  0.0861
33884W        W34748  12.863  10.037  11.790 -0.2337 -0.2766 -0.2541
33885W        W34749  29.132   3.650   9.570 -0.0041 -0.0161 -0.1310
33886W        W34750   4.296  10.992  28.610 -0.0805  0.0718 -0.2484
33887W        W34751  18.472   8.323  26.576 -0.0149 -0.0140  0.1328
33888W        W34752  13.794   7.057   0.816  0.2743 -0.2273  0.3165
33889W        W34753  23.149  10.189  13.751  0.3217 -0.2105 -0.3365
33890W        W34754  23.809   2.596   0.086 -0.0833  0.2632 -0.2254
33891W        W34755  26.249  13.355  18.435 -0.0321  0.0116  0.1192
33892W        W34756   8.886   6.968   7.640  0.0364 -0.0265  0.0767
33893W        W34757   8.584   3.294   2.533  0.0412  0.2094 -0.2638
33894W        W34758  11.522  20.488   6.909 -0.3466  0.1223 -0.0865
33895W        W34759  16.439  15.486   1.257  0.1878 -0.2047 -0.1917
33896W        W34760  23.565   3.513   2.197  0.0552 -0.0608 -0.2947
33897W        W34761   2.106   1.874   7.200  0.0025 -0.0261  0.2893
33898W        W34762  23.605  22.450  22.619 -0.5213 -0.1172  0.0437
33899W        W34763  24.960   7.920   6.596  0.0148 -0.1192  0.0333
33900W        W34764  26.135   4.708  12.256  0.0974 -0.0551  0.1213
33901W        W34765   9.046  10.469   0.065  0.1128 -0.2212 -0.1251
33902W        W34766   0.659   3.113   6.249  0.0287  0.2023 -0.2498
33903W        W34767  10.876  28.519  11.400 -0.0305 -0.3553 -0.0277
33904W        W34768   3.441  11.391  24.883 -0.0353 -0.0539 -0.1052
33905W        W34769  23.223  21.374  24.255 -0.0517  0.3197 -0.1584
33906W        W34770   8.716  16.089  18.983  0.0205 -0.0578  0.0286
33907W        W34771  17.437   7.520   8.967  0.6134  0.0919  0.0704
33908W        W34772  27.227  17.835  18.160 -0.0243  0.1238 -0.3177
33909W        W34773   8.623   2.878   7.644 -0.1010  0.0740 -0.0112
33910W        W34774  17.054  18.717  14.974  0.2678 -0.2932 -0.1671
33911W        W34775  22.524  13.169   4.266 -0.2612 -0.1609  0.2402
33912W        W34776   9.491   8.025   3.678 -0.1309 -0.1157  0.1327
33913W        W34777  20.249  14.005  21.286 -0.0639  0.1937  0.6164
33914W        W34778  17.625   2.948   5.000 -0.3352 -0.0009  0.2990
33915W        W34779   6.236  21.198  17.622 -0.0026 -0.2654  0.0648
33916W        W34780  18.305   6.418  26.861 -0.0604 -0.0286  0.1139
33917W        W34781  26.255   8.766  12.535 -0.2085  0.0143 -0.3010
33918W        W34782  26.726  24.228  11.574  0.0344 -0.1313  0.2416
33919W        W34783  11.675   3.990   0.972  0.5060  0.0450 -0.0556
33920W        W34784   3.061   6.862  16.429 -0.2258 -0.1682  0.1434
33921W        W34785   5.586   4.143  23.327 -0.0490  0.3504 -0.1703
33922W        W34786  24.450   8.035  15.518  0.1909 -0.2293 -0.2040
33923W        W34787  15.539   7.764  26.898 -0.2372  0.1117 -0.1590
33924W        W34788  22.772  10.647  17.807 -0.0223 -0.0876  0.0282
33925W        W34789  18.633   1.484   1.775 -0.1983  0.1381  0.1619
33926W        W34790   9.628   8.139  26.553 -0.2567 -0.0664 -0.1004
33927W        W34791  24.208   9.902  20.305 -0.1440  0.1236 -0.0970
33928W        W34792  26.220  15.371   2.865 -0.0963 -0.0445 -0.1127
33929W        W34793   9.614   6.839   0.618 -0.1968  0.2938 -0.0312
33930W        W34794  14.181  13.231  15.926  0.3041  0.1909  0.0643
33931W        W34795  26.439  27.050  23.851 -0.0042 -0.2462  0.0899
33932W        W34796  28.044  14.241  11.678  0.1540  0.0649 -0.0292
33933W        W34797   1.197  18.555  15.291  0.0793 -0.0183  0.0092
33934W        W34798  22.795  14.468  21.307 -0.0910 -0.2315 -0.0134
33935W        W34799  14.444   8.634  24.033 -0.0300 -0.3889 -0.1331
33936W        W34800   3.268  26.010  22.946 -0.0692  0.1257  0.1345
33937W        W34801   1.766   2.271   9.921  0.2435  0.1068 -0.1839
33938W        W34802  22.140   1.056  23.566 -0.0976  0.1209  0.0417
33939W        W34803  24.279  15.415  16.871 -0.0605 -0.3349  0.0290
33940W        W34804  12.863  12.175   4.222  0.1696 -0.3693 -0.1333
33941W        W34805  24.575  28.794  16.335 -0.1520  0.4649 -0.0819
33942W        W34806  23.162   8.829  21.871  0.1902  0.2592  0.1255
33943W        W34807  10.375   3.810   0.243 -0.0981 -0.0266  0.0665
33944W        W34808   0.543  26.631  17.127  0.2702 -0.4042 -0.1930
33945W        W34809  20.958   6.887  21.906  0.3426  0.2752 -0.1536
33946W        W34810   1.440   4.831  24.206  0.0519  0.0321 -0.1846
33947W        W34811   8.194  15.384  12.306 -0.1350  0.1015  0.0031
33948W        W34812   3.493   6.038  10.160  0.1524 -0.1084 -0.1783
33949W        W34813   5.168   2.778  22.927  0.2758 -0.0031  0.0385
33950W        W34814   4.540  29.122  12.641 -0.2367  0.0367 -0.2496
33951W        W34815  14.546  14.436   7.795  0.2808 -0.2797 -0.1446
33952W        W34816   5.038   8.264  26.280 -0.0572 -0.0974 -0.0334
33953W        W34817   7.051  25.138   9.847 -0.2269  0.0590  0.1951
33954W        W34818  14.574  15.245  13.162 -0.3384  0.1189  0.0251
33955W        W34819   6.124  26.129   6.968  0.0687 -0.2962  0.1871
33956W        W34820  15.465   9.733  13.931 -0.0558  0.1900  0.0240
33957W        W34821   7.601   3.742   4.387  0.1875 -0.0508 -0.1327
33958W        W34822   5.010  20.623  28.938  0.0038  0.0816 -0.0227
33959W        W34823   3.858  16.184  13.780 -0.1244  0.0173 -0.0132
33960W        W34824   4.662  17.001   2.472 -0.1324 -0.1469 -0.1798
33961W        W34825  26.296  16.051  15.286  0.1445 -0.0456  0.2526
33962W        W34826  27.970  16.843  28.098 -0.1690  0.0600 -0.0292
33963W        W34827   1.867  22.677   7.085 -0.2552 -0.1861 -0.1175
33964W        W34828  12.585  24.092  26.102 -0.1147  0.1930  0.0449
33965W        W34829   5.126   4.413  13.493  0.0205  0.0587  0.2377
33966W        W34830   1.163   2.737  26.210 -0.3496  0.0411 -0.2956
33967W        W34831   3.332   0.511  28.636 -0.0087 -0.4367 -0.0520
33968W        W34832   4.251   8.343  22.926  0.4467  0.2142 -0.0635
33969W        W34833  26.461   3.937   9.170 -0.1703  0.1477 -0.2014
33970W        W34834  26.290  15.021  20.823 -0.0083  0.1580 -0.0948
33971W        W34835  26.812   3.183  26.062 -0.1142 -0.0323  0.0407
33972W        W34836  27.004   4.510  13.491  0.3627  0.2461  0.3624
33973W        W34837  14.394  11.862   9.338  0.3775 -0.0215 -0.0594
33974W        W34838  27.635   0.356  13.168 -0.1073  0.1358 -0.1650
33975W        W34839  21.372   5.985  18.499  0.0013  0.0856 -0.2003
33976W        W34840  12.421  16.813  15.026  0.0734 -0.1498 -0.2297
33977W        W34841  18.690  14.837   1.194  0.1543  0.2113 -0.2034
33978W        W34842  25.126  27.495  23.206 -0.0604 -0.0646  0.2310
33979W        W34843  10.233  23.177  16.970 -0.0144 -0.0119 -0.1180
33980W        W34844  18.860  12.225   4.025  0.1144  0.0351 -0.2989
33981W        W34845   1.898   7.863  23.890  0.0976 -0.0925 -0.1546
33982W        W34846  17.182   8.456   9.379 -0.0059 -0.1443 -0.0466
33983W        W34847   6.329  16.070  13.583  0.0798  0.0510 -0.3331
33984W        W34848   8.570  15.934   7.030  0.1003  0.0883 -0.0696
33985W        W34849   8.247   3.962  18.621 -0.1671  0.4092 -0.1490
33986W        W34850  11.381  11.876  16.733 -0.1157 -0.2817  0.1628
33987W        W34851  17.596   3.042  23.845 -0.0833  0.2338  0.1967
33988W        W34852  24.136   4.422  14.110 -0.2237 -0.1711 -0.1819
33989W        W34853  18.982  25.842   8.340 -0.2905  0.1900 -0.0945
33990W        W34854   1.238  12.953  16.039 -0.0909  0.2304  0.0799
33991W        W34855  19.605  13.594  22.808  0.0241 -0.1672  0.1153
33992W        W34856   2.338   2.618  21.732  0.0884 -0.2536 -0.5388
33993W        W34857  10.165   0.107  14.557 -0.1454  0.1937 -0.1719
33994W        W34858  11.345   0.101  11.776  0.3234  0.0282 -0.1984
33995W        W34859   6.315  27.898  15.411  0.1905 -0.4416 -0.3265
33996W        W34860  17.735   0.673  18.057  0.0722  0.2857  0.0654
33997W        W34861  18.812  10.740  10.100 -0.2326  0.1263  0.2160
33998W        W34862   7.302   6.092  12.410  0.2882  0.0350  0.1382
33999W        W34863  20.021  13.270   8.355 -0.3318 -0.1171  0.0750
34000W        W34864   7.405  21.945  11.479  0.2019 -0.0129  0.0223
34001W        W34865  27.879  25.751  15.087  0.0354  0.0584  0.1229
34002W        W34866   5.779  23.913   3.102 -0.0888 -0.3166 -0.2144
34003W        W34867  23.941  12.827   2.942 -0.0372  0.1663  0.2621
34004W        W34868  28.607   8.132   7.816  0.2848  0.0935  0.2722
34005W        W34869   6.705   9.908   8.365 -0.2367  0.0115 -0.1985
34006W        W34870   6.861   9.838  23.213  0.0921 -0.0120  0.1968
34007W        W34871  27.428  20.377   7.396 -0.0346 -0.3164  0.0080
34008W        W34872   7.246  25.789   3.991 -0.2592  0.0922 -0.0204
34009W        W34873   7.921  14.383  25.558 -0.2088 -0.0911  0.0647
34010W        W34874  28.987   2.932   2.285 -0.0736  0.0134  0.0991
34011W        W34875   6.787  28.323  21.731 -0.0660  0.0854  0.0961
34012W        W34876  19.730  21.716   3.494  0.1669  0.2223 -0.0771
34013W        W34877  10.226   6.366   1.829 -0.0182  0.2233  0.1638
34014W        W34878   9.454  23.393  17.164  0.2523  0.0430 -0.1539
34015W        W34879  15.283   0.242  23.189  0.0209 -0.0909 -0.0229
34016W        W34880  13.901  14.704  12.593 -0.2092  0.2895 -0.0833
34017W        W34881   1.643  18.359  27.259  0.0178 -0.2023  0.2771
34018W        W34882   1.163  17.364   4.297  0.0903 -0.2525  0.3785
34019W        W34883  16.228   3.541  26.777  0.1190 -0.2132  0.1641
34020W        W34884  12.960  16.017   8.267 -0.0065 -0.0739  0.0549
34021W        W34885  15.662   3.125   9.652  0.0645 -0.0646 -0.0886
34022W        W34886  28.399   6.359  20.144 -0.2717 -0.1506 -0.2457
34023W        W34887   4.278  21.788   7.240  0.0888  0.0552 -0.0549
34024W        W34888   9.781   9.076  22.668  0.0595  0.1936  0.1034
34025W        W34889  28.516  28.219  15.302 -0.3121 -0.2582  0.4267
34026W        W34890   4.689  12.656  20.167  0.0266 -0.1533 -0.0223
34027W        W34891  11.739   7.745  23.818 -0.1177 -0.3722 -0.1496
34028W        W34892  18.628  18.107  27.320 -0.0996  0.1220  0.0625
34029W        W34893   2.617  12.839   4.928 -0.1642  0.3615  0.0219
34030W        W34894   8.154  19.123  14.084  0.0590  0.0808 -0.0275
34031W        W34895   0.013   7.446  19.352 -0.2961 -0.1506 -0.0887
34032W        W34896   8.852  15.858   4.199 -0.0879  0.0714  0.1345
34033W        W34897  27.688   8.240  24.455 -0.3022 -0.1772  0.1929
34034W        W34898  14.267  20.706  23.028 -0.2501  0.1404 -0.2650
34035W        W34899  11.613   6.980  11.893  0.0861  0.1087 -0.0308
34036W        W34900  23.448   8.790  27.415  0.0263  0.2866  0.3246
34037W        W34901   6.885   6.203   7.916 -0.4332  0.0052  0.2330
34038W        W34902  26.764  18.903  18.940  0.0237 -0.0670  0.2520
34039W        W34903  18.218  22.740  11.894 -0.0682 -0.1071  0.1333
34040W        W34904   2.730  16.379  10.219  0.3514 -0.2613 -0.0082
34041W        W34905  25.396  10.504  20.907 -0.2489  0.0818 -0.0692
34042W        W34906  11.777  14.670  15.305  0.1558 -0.1422 -0.2411
34043W        W34907   9.229  10.473  22.575  0.1972 -0.0674  0.0744
34044W        W34908  28.846  13.362   6.227 -0.2769  0.1990 -0.0396
34045W        W34909  22.354  20.282  17.225 -0.1363 -0.2715  0.2392
34046W        W34910   0.871   8.034  10.971 -0.1372  0.2614 -0.1877
34047W        W34911  13.205  12.293  23.997  0.0037  0.2126  0.2151
34048W        W34912   3.240  13.095  10.964 -0.2454 -0.1549  0.3200
34049W        W34913   7.411   1.517  14.609 -0.1338 -0.1520  0.1629
34050W        W34914   8.281  20.305   6.610  0.0011  0.0944 -0.4949
34051W        W34915  16.356  27.633  12.211  0.1499  0.0360  0.0077
34052W        W34916  23.783   2.664  28.436  0.1006 -0.3114  0.1212
34053W        W34917  13.306   8.251   5.786 -0.0234 -0.2486  0.1138
34054W        W34918   5.784  28.179  21.741  0.0957 -0.0345  0.4435
34055W        W34919  25.038   5.933   3.018  0.0901  0.3171  0.0969
34056W        W34920   4.890  11.384  20.561  0.0441 -0.0741 -0.3986
34057W        W34921   2.729   1.454  18.418 -0.1580 -0.2805 -0.0237
34058W        W34922   4.121   4.816   2.959  0.0136  0.1166 -0.1376
34059W        W34923   9.016   7.255  12.218  0.2753 -0.0144 -0.2085
34060W        W34924   0.020  25.666  27.587  0.1920 -0.0059  0.1210
34061W        W34925  23.394  15.220   5.284 -0.0621 -0.1046 -0.1952
34062W        W34926   4.249  15.539  11.325 -0.0143  0.0698 -0.3062
34063W        W34927   6.158  10.337  16.241  0.3039 -0.0759  0.1140
34064W        W34928  14.017  11.704  17.572 -0.1426 -0.0440  0.0393
34065W        W34929   1.819   2.746  18.082 -0.0172 -0.1137 -0.0606
34066W        W34930  26.083   2.026  13.188 -0.3069  0.2597 -0.2239
34067W        W34931   6.904  11.825  11.976  0.2321  0.1105  0.1571
34068W        W34932   2.854  15.193   3.546 -0.0071  0.0434 -0.1076
34069W        W34933  12.675  19.017   9.208 -0.4035  0.0770 -0.0678
34070W        W34934  15.571   3.771  21.878 -0.1051 -0.1147  0.2073
34071W        W34935  16.362   7.588  25.389  0.1018 -0.0929 -0.0795
34072W        W34936  23.443  20.521  24.147 -0.0240  0.2378  0.1738
34073W        W34937  17.594   6.948   1.598 -0.0059  0.0487  0.2603
34074W        W34938  12.706   6.767   5.575  0.0258  0.0499  0.0144
34075W        W34939   6.788   1.753  12.520  0.4578  0.0015  0.0409
34076W        W34940  23.985  20.496  16.213  0.3014 -0.0270 -0.2950
34077W        W34941  20.274  16.567  24.706  0.0047  0.1996  0.0172
34078W        W34942  27.759  10.141   3.379  0.0802  0.2072 -0.1412
34079W        W34943  16.982  25.734  26.058 -0.3593 -0.0365  0.3677
34080W        W34944   8.829  21.507   7.833  0.1114  0.1666 -0.1127
34081W        W34945   6.311   5.178  20.268 -0.0391 -0.2150  0.0880
34082W        W34946   3.085   3.760   5.484  0.1685  0.0672  0.0013
34083W        W34947  23.399  16.937   8.155 -0.1575  0.0591 -0.0141
34084W        W34948  19.428  10.606   7.543 -0.1033  0.1140 -0.6080
34085W        W34949   7.473  12.976  17.742 -0.4029 -0.1984 -0.0957
34086W        W34950  18.632  26.919  23.247 -0.2424  0.0145 -0.3537
34087W        W34951   8.596  10.284  27.568  0.1290  0.2566  0.0394
34088W        W34952  13.275   6.885  14.542  0.0237 -0.0715 -0.0146
34089W        W34953   5.926   5.664  27.641  0.4727 -0.0180 -0.1424
34090W        W34954   6.609   6.726  11.098 -0.0571  0.1373 -0.0260
34091W        W34955  21.071  18.489   6.897 -0.1810  0.1873 -0.2563
34092W        W34956   9.177   9.264  12.336 -0.4007  0.0397 -0.0862
34093W        W34957  17.759  17.942  20.547 -0.0841 -0.1390 -0.1623
34094W        W34958  17.004  19.378  21.417 -0.0081 -0.2784 -0.1973
34095W        W34959  13.742  27.811   7.190  0.2211 -0.0353 -0.1894
34096W        W34960   0.365   6.687  10.325  0.2050  0.2186  0.3933
34097W        W34961  11.440  15.856  16.401  0.4309  0.0520  0.1892
34098W        W34962  20.713  10.715  25.198 -0.3046  0.2551 -0.1252
34099W        W34963  12.364   6.565  17.795 -0.4719  0.0369 -0.0155
34100W        W34964  23.760  13.294  17.663  0.2920 -0.0370  0.1270
34101W        W34965  13.106   6.514  22.740 -0.0611  0.1243 -0.1329
34102W        W34966   7.944   7.374  23.208 -0.1601  0.2783  0.0677
34103W        W34967   4.180  28.740   6.327 -0.1444 -0.0711  0.1397
34104W        W34968   1.300  16.194   5.996 -0.0886  0.1726 -0.0016
34105W        W34969  28.410   4.053   5.675  0.4023 -0.0509 -0.3625
34106W        W34970   3.047  14.810  23.094 -0.1466  0.1887 -0.0759
34107W        W34971  14.799   6.448  24.946  0.1401 -0.0558 -0.0899
34108W        W34972   3.657   6.853  13.032 -0.1238  0.2058 -0.1464
34109W        W34973   7.448   3.338  11.410  0.0669 -0.1887  0.0481
34110W        W34974  25.997   4.456  27.798 -0.2877  0.0349 -0.0928
34111W        W34975   6.419  12.383  18.504 -0.2076 -0.0689  0.3341
34112W        W34976  27.473   9.651  23.640 -0.2073 -0.1250 -0.0411
34113W        W34977  25.139  12.941  12.742 -0.0384  0.1945  0.0123
34114W        W34978  27.579   5.871  22.521 -0.1068 -0.1197 -0.0748
34115W        W34979  12.720   5.127  22.682  0.1220  0.1440 -0.1196
34116W        W34980   3.303  14.627  13.706 -0.2729 -0.2058  0.2738
34117W        W34981   2.352  12.771  13.552 -0.0387  0.0117 -0.0618
34118W        W34982   2.235  21.223   7.744  0.0966 -0.1432 -0.1172
34119W        W34983   9.836  28.539   4.794 -0.1686  0.1740 -0.2229
34120W        W34984  23.680  25.822   4.684 -0.0055  0.0501 -0.0541
34121W        W34985   8.035  11.691  22.823  0.1722 -0.1836  0.1353
34122W        W34986   4.662  24.732  21.149  0.0712  0.1469 -0.1648
34123W        W34987  14.163   9.034  22.451 -0.1374  0.2385  0.0012
34124W        W34988   4.874   4.700   2.470  0.0541 -0.0692  0.4372
34125W        W34989  26.494  23.672  23.221 -0.0720  0.4928 -0.0969
34126W        W34990  14.097  19.886   3.344  0.2209 -0.2028  0.3199
34127W        W34991  28.771   2.796  21.060  0.0544 -0.2984  0.0560
34128W        W34992   5.369  17.344  10.472  0.1382 -0.3769  0.0504
34129W        W34993  23.852  14.715  18.602  0.3087  0.1139  0.0027
34130W        W34994   0.026  17.717  16.707  0.1353 -0.0113 -0.1646
34131W        W34995  10.418   7.969   9.146 -0.2812 -0.2902  0.0083
34132W        W34996  22.396   6.189  19.710  0.2036 -0.1639 -0.2946
34133W        W34997  17.296   0.109   3.346 -0.4120 -0.1327  0.1916
34134W        W34998  27.298  13.683  25.991 -0.0634 -0.1466 -0.0903
34135W        W34999  19.791   3.464   9.240 -0.1360 -0.0405  0.3015
34136W        W35000   1.926   5.970   9.192  0.1432 -0.0666  0.2174
34137W        W35001  18.519  27.133  18.964 -0.0057  0.1031 -0.2164
34138W        W35002   1.633  18.318  20.655  0.0846 -0.2910 -0.0528
34139W        W35003  13.388  19.585  14.156 -0.1035  0.1787  0.4189
34140W        W35004   4.129  13.077  11.315  0.2972  0.1839 -0.1862
34141W        W35005   6.322  20.188   1.054  0.0413 -0.0556 -0.2058
34142W        W35006  25.156  17.514   0.352  0.0411  0.3734  0.1336
34143W        W35007   6.504  27.717  20.498 -0.0876  0.0425  0.2763
34144W        W35008  22.112  14.088  14.307 -0.2707  0.0418  0.0636
34145W        W35009  10.116  13.555   5.630  0.2452  0.2429  0.2717
34146W        W35010  22.724   2.248  21.016  0.1259  0.2069 -0.2923
34147W        W35011  15.393  11.152   9.024  0.1453  0.0708  0.1543
34148W        W35012  15.711   4.292  17.777  0.2584  0.2566  0.0972
34149W        W35013  26.360   8.366   5.630  0.0919  0.1498 -0.0202
34150W        W35014  12.743   9.109  17.692 -0.1322  0.1607 -0.1106
34151W        W35015  12.744  14.108   8.144 -0.1993  0.1050  0.1372
34152W        W35016  23.181  17.987  18.067 -0.0393 -0.0830 -0.1650
34153W        W35017  27.786   4.656  16.732  0.0412  0.0618 -0.2530
34154W        W35018  21.414   2.507  21.404 -0.1352 -0.0874 -0.0926
34155W        W35019   4.966   5.715  20.696  0.1644  0.0021  0.3782
34156W        W35020  10.196  26.777  20.952 -0.0011 -0.5271 -0.0033
34157W        W35021  13.138   6.828  27.726 -0.0870  0.0902 -0.2215
34158W        W35022   3.800  14.232  26.579  0.1272  0.2769 -0.1437
34159W        W35023  15.567  27.308  14.997 -0.0385  0.3026  0.0875
34160W        W35024  22.328  11.701  14.996 -0.2412 -0.4071 -0.0553
34161W        W35025  14.181  15.178   7.062  0.0127 -0.4952  0.2098
34162W        W35026   4.310  22.236  13.916 -0.2220 -0.3839 -0.0513
34163W        W35027   7.917   7.019   5.944  0.2110  0.0110  0.1483
34164W        W35028  10.729  23.000  15.176  0.2788  0.2924  0.1974
34165W        W35029  20.085   6.733  17.613 -0.1342 -0.1489 -0.0934
34166W        W35030   8.582   6.762  13.949 -0.0509  0.1031  0.1410
34167W        W35031  20.978  24.569   1.502  0.1449 -0.0529 -0.2382
34168W        W35032  14.907  28.138  21.073 -0.1544 -0.0464  0.0251
34169W        W35033  13.969  14.125   5.792  0.0646  0.0675  0.0574
34170W        W35034  24.192   9.801  22.293 -0.0219 -0.0596 -0.0664
34171W        W35035  20.998   0.581   9.091  0.0304  0.0319  0.1094
34172W        W35036  15.075   9.774  27.210  0.1155 -0.0402  0.2397
34173W        W35037  28.451   6.668  18.730  0.2639  0.0889  0.1214
34174W        W35038   3.163  26.852   6.063  0.2633  0.1013  0.0096
34175W        W35039   8.427  20.029  23.122 -0.5269  0.1189 -0.0387
34176W        W35040   8.132  15.647  14.864 -0.0306 -0.0993  0.3292
34177W        W35041   0.313  10.186   1.735 -0.1774 -0.0566  0.0979
34178W        W35042   3.733   2.681   0.073  0.1035 -0.1714 -0.0171
34179W        W35043  25.260  11.343   4.170 -0.3816 -0.0832  0.1301
34180W        W35044   9.643  14.177  11.799  0.1686  0.1444  0.3432
34181W        W35045  25.766  18.163  17.135  0.1637 -0.1647 -0.0105
34182W        W35046   6.913   6.806  17.653 -0.1028  0.1596  0.0899
34183W        W35047  12.581   4.706  21.470 -0.0955  0.1227  0.0266
34184W        W35048  28.433  18.761   9.938 -0.1179 -0.1758  0.1467
34185W        W35049   6.627  14.674  13.785  0.1210 -0.0494  0.0508
34186W        W35050  19.013   4.386  13.494  0.0884  0.0712 -0.0586
34187W        W35051   7.287  21.302  24.218 -0.1688  0.1276 -0.2121
34188W        W35052  24.151  28.780  23.755  0.3345  0.1340 -0.0345
34189W        W35053   9.617  22.192  15.577  0.0707 -0.0600  0.1887
34190W        W35054   0.785   8.744  17.693  0.1018  0.0136 -0.0547
34191W        W35055  24.133   9.579  10.408 -0.1629  0.2433 -0.1866
34192W        W35056  14.158  15.486  12.065  0.0672  0.0301  0.1095
34193W        W35057  22.682  26.850  18.533 -0.0152 -0.0673 -0.1481
34194W        W35058   1.599  28.902  10.121 -0.0662 -0.1957 -0.3614
34195W        W35059   9.617  16.957  13.937  0.0811 -0.0883  0.2400
34196W        W35060  21.721  19.773  16.888 -0.0144  0.3157  0.1451
34197W        W35061   1.984  28.187  27.163 -0.0898  0.0057  0.1133
34198W        W35062  24.040  12.516   6.611  0.2664 -0.1226 -0.0187
34199W        W35063  12.536  18.142  14.452 -0.1006 -0.0067 -0.2057
34200W        W35064   8.402  15.874  17.177  0.0476 -0.2904 -0.2441
34201W        W35065   9.176   0.804   3.602  0.2660  0.0239  0.1871
34202W        W35066  18.011  27.490  18.931  0.2635 -0.0825 -0.4634
34203W        W35067   8.630   8.928  10.691  0.1993 -0.1497  0.1775
34204W        W35068  22.870   6.816  19.042 -0.0841 -0.1893  0.3601
34205W        W35069  19.838  12.279  15.862 -0.0286 -0.0249 -0.1799
34206W        W35070  15.165  19.909  16.913  0.0733 -0.1134  0.2431
34207W        W35071   4.000   4.932   8.088  0.2075  0.1662  0.1857
34208W        W35072  24.256  11.457   0.607  0.4017 -0.2425 -0.2746
34209W        W35073   3.182   5.728   6.971  0.0725  0.1590 -0.1303
34210W        W35074  18.975  20.903   2.220  0.1544  0.2064  0.1606
34211W        W35075  27.325  22.436  14.090  0.2391 -0.2446  0.0547
34212W        W35076  12.692  13.393   0.974  0.2404 -0.2050 -0.2932
34213W        W35077  18.268  22.394   5.329 -0.0073  0.1028 -0.1025
34214W        W35078   6.766   6.654  26.933 -0.2712  0.3284 -0.2622
34215W        W35079   0.741   4.477  10.740  0.1604  0.0025  0.2651
34216W        W35080   0.148  13.574  27.290 -0.1007 -0.0027  0.0160
34217W        W35081   1.974  20.762  22.577  0.2934  0.2442 -0.0225
34218W        W35082  15.637   6.152  26.894  0.0804  0.1682 -0.0077
34219W        W35083  22.439   2.646   5.531 -0.1231 -0.1957  0.0300
34220W        W35084   7.744   0.439  10.927 -0.0706  0.0447  0.3862
34221W        W35085  17.070   5.964  14.033  0.3290  0.0149  0.0927
34222W        W35086   5.506   5.335  14.401 -0.3208  0.0436  0.2195
34223W        W35087   8.349   6.725  11.109  0.3261 -0.0956  0.0263
34224W        W35088  13.633   9.657  23.154  0.1191 -0.0333 -0.2114
34225W        W35089   8.590  28.940   5.745  0.2009 -0.1019  0.0900
34226W        W35090  28.145   6.259  28.170  0.0176 -0.2799  0.0592
34227W        W35091   9.848  27.492  27.828  0.0589 -0.1201  0.0757
34228W        W35092  22.335   4.964  22.404  0.1117  0.0248 -0.2706
34229W        W35093  13.105  24.835  19.903 -0.1870  0.0224  0.1577
34230W        W35094  25.929  19.846   0.897 -0.1798  0.0223  0.1261
34231W        W35095   2.144  14.346  12.448  0.2379  0.0850 -0.1562
34232W        W35096   5.760  16.304   9.351 -0.0469  0.1245 -0.0635
34233W        W35097  24.561  11.450  24.063  0.2398 -0.3401  0.0375
34234W        W35098   7.027  18.553   7.923  0.0481 -0.2519  0.1532
34235W        W35099  28.868  17.441  22.029 -0.2213  0.1170 -0.2061
34236W        W35100  10.198   9.071  21.546 -0.0459  0.2475 -0.3263
34237W        W35101   4.084  18.638  25.029 -0.0642 -0.3918  0.1495
34238W        W35102  14.058  18.626  18.007 -0.1264  0.1908 -0.0766
34239W        W35103   5.779   6.005  20.432 -0.1778 -0.2315 -0.1877
34240W        W35104   6.863   4.880  24.919  0.0445  0.0830 -0.1145
34241W        W35105  28.766  20.432  24.890  0.0553  0.1158 -0.1118
34242W        W35106  23.455  18.691   1.011  0.0651  0.2993 -0.3369
34243W        W35107  19.247  25.632   7.074  0.1640 -0.1289  0.0137
34244W        W35108   6.727   0.889  14.823  0.0316 -0.0951  0.1917
34245W        W35109   7.947   7.085  12.757 -0.0164 -0.1008  0.2576
34246W        W35110  18.831  10.149   6.950 -0.0554  0.4186  0.1715
34247W        W35111  13.424   5.008  23.724 -0.0781  0.2665  0.1168
34248W        W35112  26.644  23.880  22.243 -0.0072 -0.0722 -0.0458
34249W        W35113   1.615  15.679  25.091  0.1090 -0.1160 -0.0067
34250W        W35114   0.849  16.677  18.951 -0.1672  0.1738 -0.0519
34251W        W35115   4.708  14.070   2.977  0.0463  0.0699 -0.2930
34252W        W35116   4.242   5.104  19.374  0.0297 -0.1097 -0.1135
34253W        W35117   3.286  25.418  12.391  0.1423 -0.2501 -0.0569
34254W        W35118  15.774   6.668  25.090 -0.4558 -0.2165  0.2842
34255W        W35119  14.349  18.290  17.133  0.0307  0.0657  0.1527
34256W        W35120  14.096  14.983  26.546 -0.1133 -0.0638  0.0315
34257W        W35121  23.113  20.435   8.581  0.1110 -0.4409 -0.0462
34258W        W35122   7.997   9.510  18.216  0.3692  0.1013  0.1004
34259W        W35123  16.087  16.626  19.805  0.0388  0.1505 -0.0651
34260W        W35124  14.220   4.327  11.563  0.2134  0.0065  0.1346
34261W        W35125   7.754  26.194  15.423  0.0451  0.0506 -0.0839
34262W        W35126   6.124  24.711  16.785  0.2705 -0.2854  0.1490
34263W        W35127  16.636   6.010   4.659  0.0032  0.0331  0.2533
34264W        W35128   2.914  11.609  13.022  0.0487 -0.0942  0.3591
34265W        W35129  17.787  11.898  27.839  0.0022  0.0373 -0.0586
34266W        W35130   1.608  15.313  13.427  0.1805  0.2139 -0.0689
34267W        W35131  20.478  11.212  27.566 -0.2282 -0.0262 -0.1469
34268W        W35132   8.563  20.869   8.505 -0.0576 -0.3402  0.1315
34269W        W35133  25.206  10.774  13.343  0.2306 -0.0881  0.0355
34270W        W35134  14.904  17.983  18.221 -0.2228 -0.2561  0.0507
34271W        W35135  25.508  15.609  11.937  0.0638 -0.2132 -0.0849
34272W        W35136  28.923  13.399  20.942 -0.4155 -0.2052 -0.4375
34273W        W35137   3.050   8.962  25.827 -0.0774  0.0937  0.1199
34274W        W35138  27.628  11.072  18.770  0.0636  0.0348  0.0944
34275W        W35139  23.769  18.652   2.338  0.0347  0.2772 -0.2057
34276W        W35140  21.286  24.112   0.878  0.1036 -0.0150  0.1108
34277W        W35141   1.548  16.687   4.528 -0.2468 -0.0638 -0.0104
34278W        W35142   7.886  20.065  16.853  0.1706  0.0541  0.1637
34279W        W35143  12.850  22.920  24.693  0.0714 -0.1350 -0.0453
34280W        W35144   6.100   1.574   4.469  0.1611 -0.0135 -0.1325
34281W        W35145  13.567   8.588   3.531  0.0413 -0.0373 -0.2600
34282W        W35146  15.454   7.359  24.637 -0.1233 -0.4769  0.4096
34283W        W35147  23.839  17.500   8.467 -0.4210 -0.1186 -0.0414
34284W        W35148   7.945  19.634  27.136  0.2895  0.0836 -0.2920
34285W        W35149  24.452  28.767   5.390 -0.0885  0.1118 -0.1169
34286W        W35150   8.028  26.594   2.243 -0.1033  0.0503 -0.0177
34287W        W35151  22.700   2.103  10.782 -0.0527 -0.1255 -0.0546
34288W        W35152   8.019  10.788  16.254 -0.3441 -0.3043 -0.0456
34289W        W35153  26.634   2.691   4.452  0.1830 -0.4475  0.0765
34290W        W35154  11.909   9.163  21.641 -0.1266  0.1741 -0.1793
34291W        W35155  23.988   9.928   2.102 -0.1167 -0.0895 -0.1076
34292W        W35156  23.828  20.600  24.391 -0.0251 -0.1377 -0.1238
34293W        W35157   4.221   1.303  15.086  0.0292  0.0792 -0.0874
34294W        W35158  10.785   0.850  20.984 -0.0461  0.0426  0.0212
34295W        W35159   3.334   7.531   7.261  0.0262  0.0147  0.0406
34296W        W35160  10.158   1.078  26.224  0.0286 -0.0138 -0.1481
34297W        W35161   9.199  10.198   9.837 -0.0338 -0.1964  0.0720
34298W        W35162  28.081  19.617  15.041  0.0864  0.0755 -0.0854
34299W        W35163  14.494   2.041  19.454 -0.1007  0.1818 -0.2142
34300W        W35164  10.812   5.348   3.126 -0.2333 -0.1242  0.1067
34301W        W35165   2.542  12.550   4.521  0.0523  0.2831  0.0856
34302W        W35166  26.654   2.319  26.635 -0.2951  0.2796 -0.4591
34303W        W35167   6.116   2.383   7.289  0.1759 -0.3868 -0.3559
34304W        W35168  15.909  11.540  18.774  0.2037  0.2150  0.4533
34305W        W35169   9.717  10.511  21.163  0.0895  0.1302  0.0207
34306W        W35170  13.237  23.440  18.261 -0.1452 -0.2004  0.2695
34307W        W35171  27.223  24.897  21.433  0.2767  0.0201  0.2108
34308W        W35172  27.985   7.571  13.598  0.2520 -0.3305 -0.2993
34309W        W35173   5.736   8.329   2.695 -0.1259  0.1759 -0.1652
34310W        W35174  11.248  13.640  15.765 -0.0802 -0.1253 -0.0309
34311W        W35175  22.833   9.779  24.544  0.0359  0.0697 -0.1223
34312W        W35176   5.664  12.167   6.966  0.1186  0.0432  0.4397
34313W        W35177  29.030  28.788  21.512  0.2572 -0.1309  0.1297
34314W        W35178   1.662  14.566  27.633 -0.2665 -0.1558 -0.1803
34315W        W35179  17.119  21.567  28.302  0.1140  0.1471 -0.2817
34316W        W35180  23.570  10.578  15.751  0.0874  0.1054 -0.1750
34317W        W35181  13.193  26.620   7.856  0.0894 -0.0311 -0.0374
34318W        W35182   7.287   3.194   6.257  0.1472 -0.2051  0.0616
34319W        W35183   0.725  16.475  13.643 -0.3777  0.3611  0.1290
34320W        W35184   4.046   7.685   1.937 -0.3939  0.0798 -0.0994
34321W        W35185  26.170   8.053   4.124 -0.1290 -0.0397  0.0634
34322W        W35186  13.826   5.355  16.998 -0.1384 -0.1344 -0.2738
34323W        W35187   1.170   8.062  21.351 -0.1314 -0.0653 -0.1022
34324W        W35188  20.675  28.692  20.927 -0.2463 -0.0867 -0.0106
34325W        W35189  20.655  17.198  23.301 -0.1860 -0.0606  0.2459
34326W        W35190  13.566   7.112   2.215  0.2274 -0.1268 -0.0620
34327W        W35191   8.758  16.785  17.530 -0.2122  0.1103  0.0185
34328W        W35192   5.653  16.024   7.563 -0.1698  0.2511 -0.3968
34329W        W35193  10.395  15.604  15.147 -0.1749  0.0339  0.1753
34330W        W35194   8.541  28.128   3.539 -0.0693  0.2420 -0.1276
34331W        W35195  21.788  17.463   3.127  0.0223  0.2118  0.1579
34332W        W35196   4.841   3.401  25.862 -0.1413 -0.1058  0.1804
34333W        W35197  15.511   7.134   4.170 -0.0200  0.1061 -0.3622
34334W        W35198  26.988  22.791  23.341  0.0065 -0.2005  0.3531
34335W        W35199   3.283  13.775  12.936 -0.0784  0.0280 -0.0572
34336W        W35200  27.906   3.674   0.853 -0.1158 -0.0170 -0.3624
34337W        W35201   3.843  18.949  25.379  0.1051 -0.1629 -0.0075
34338W        W35202   1.744  18.286  28.814  0.2260 -0.3146  0.1907
34339W        W35203  15.034  15.370   6.376  0.1647  0.1437  0.1858
34340W        W35204   2.730  21.943  23.871 -0.0024  0.0225 -0.1963
34341W        W35205  26.179  21.876  23.236 -0.0522  0.1981  0.1262
34342W        W35206  13.690  10.093  18.733  0.1323 -0.0399 -0.0744
34343W        W35207   8.244  21.960  22.747  0.4289 -0.2093 -0.1895
34344W        W35208   7.931  19.816   6.699 -0.0521 -0.0500  0.0227
34345W        W35209   5.397  10.066  13.700 -0.2155 -0.3085  0.0880
34346W        W35210  25.907  24.829  27.114  0.2259  0.0091  0.0823
34347W        W35211   3.384  11.959  21.513 -0.2764 -0.1038 -0.1184
34348W        W35212  23.591  29.132   8.076 -0.0666  0.3614 -0.3283
34349W        W35213  25.108   7.516  28.368  0.0895  0.0876  0.2842
34350W        W35214  27.589   6.783  15.139  0.0502 -0.4438  0.1808
34351W        W35215   5.061  18.817  24.891  0.2627 -0.1395 -0.0147
34352W        W35216   6.399  23.654  25.876 -0.0568  0.2965  0.0770
34353W        W35217  16.707   7.855   5.091  0.2724 -0.4206 -0.1693
34354W        W35218  10.527  16.227  19.234  0.2045 -0.2711 -0.1491
34355W        W35219  13.943   8.968  21.364  0.0931  0.0102  0.0475
34356W        W35220   2.498  17.263  13.610  0.1278  0.1014 -0.0236
34357W        W35221  19.260   5.794  23.816 -0.2100  0.0323 -0.0994
34358W        W35222  10.897  22.942   4.892  0.0031 -0.0756 -0.0621
34359W        W35223  10.650  12.796   0.940  0.2196 -0.1501 -0.1087
34360W        W35224   0.277  14.989   6.661  0.1680  0.0077 -0.3283
34361W        W35225   6.063   9.374  16.352  0.0947  0.4892 -0.1971
34362W        W35226   4.463  15.648  25.426  0.1976 -0.0787  0.1966
34363W        W35227  20.522  12.844  23.760 -0.4114 -0.2684  0.1004
34364W        W35228   4.979  17.603  15.501  0.1288  0.0369 -0.1219
34365W        W35229   6.841  21.410  11.013 -0.0377  0.0895 -0.1947
34366W        W35230  15.578  18.694  19.101 -0.0129 -0.0642 -0.1836
34367W        W35231  13.208  28.194   1.241 -0.2583  0.2896 -0.0035
34368W        W35232  21.569  12.493  24.029 -0.0243 -0.2668 -0.0270
34369W        W35233  13.820  17.674  26.273  0.3029  0.0046 -0.2527
34370W        W35234   6.073   2.998  16.582 -0.1390 -0.0223 -0.1447
34371W        W35235   5.495  24.828  10.387 -0.0924 -0.0354 -0.2103
34372W        W35236  23.576  13.080   1.467  0.0645 -0.3136 -0.1047
34373W        W35237  24.136   5.787  10.015 -0.0706 -0.3464 -0.3637
34374W        W35238  27.323  10.233  16.351  0.0208  0.5056  0.2253
34375W        W35239   1.678  27.202  10.870 -0.3119 -0.0265 -0.1247
34376W        W35240   8.779  22.900  12.103 -0.1049 -0.3808 -0.0567
34377W        W35241   2.346   9.886   8.684 -0.0216 -0.0522  0.3070
34378W        W35242  10.884  27.564  18.034 -0.0039  0.0231 -0.0863
34379W        W35243   5.516  26.560  10.736  0.0127  0.3547 -0.1880
34380W        W35244   8.555  27.262  25.413  0.1728  0.1390  0.1230
34381W        W35245   9.830   4.538   7.059 -0.3856 -0.1863 -0.2170
34382W        W35246  24.811   4.262   6.633 -0.0720 -0.0601  0.1456
34383W        W35247  28.243   6.169  15.742 -0.1803  0.1074  0.2665
34384W        W35248   1.757   6.484  19.507  0.0000  0.0647  0.1062
34385W        W35249  11.507  25.650  12.886 -0.0035 -0.1673  0.1815
34386W        W35250   0.112  21.340   7.394  0.2050 -0.3101  0.2716
34387W        W35251   4.313   9.461  19.939  0.0405  0.2282 -0.1262
34388W        W35252  22.536  18.657  26.006  0.0063  0.0900  0.0535
34389W        W35253  27.739   3.571  21.075 -0.0776 -0.1586  0.0108
34390W        W35254  11.861   1.775  13.454 -0.0801  0.1216  0.3276
34391W        W35255  20.934   3.219  24.559 -0.1261 -0.0497 -0.2573
34392W        W35256  25.220   1.147   1.798  0.0702  0.3235 -0.1057
34393W        W35257  20.328  24.777  11.464  0.1667 -0.2168 -0.1473
34394W        W35258   8.538   3.067   8.182  0.2169  0.0609  0.0636
34395W        W35259   8.582  27.060  24.818  0.0506  0.1779 -0.0541
34396W        W35260  16.289  21.889  27.470 -0.2686 -0.0259 -0.0195
34397W        W35261   1.865  27.870  10.927  0.0179  0.0614  0.1789
34398W        W35262  14.699  19.546   9.834 -0.0378  0.1024 -0.0778
34399W        W35263  23.731   1.729  22.076  0.1417  0.1249  0.0237
34400W        W35264  18.941   0.806  15.110 -0.0426  0.2856  0.1393
34401W        W35265   0.741   9.727  12.583 -0.1521  0.0827 -0.2259
34402W        W35266  21.624  16.862  24.355 -0.1055  0.0489  0.2000
34403W        W35267  16.900   7.065  16.744 -0.2826  0.1799  0.0240
34404W        W35268  11.852   7.623  16.149 -0.0692 -0.0237 -0.2125
34405W        W35269  24.929   2.096  27.157 -0.0810 -0.0920 -0.0226
34406W        W35270  11.283   2.925  24.176  0.0843  0.3362  0.0672
34407W        W35271  22.897  15.444  10.714  0.2103  0.0393  0.1369
34408W        W35272   8.558  13.692  28.603 -0.3789  0.2706  0.0358
34409W        W35273  10.488  24.578  18.519  0.1478 -0.0843  0.0187
34410W        W35274  11.364  12.014  17.703 -0.2443 -0.0756  0.0209
34411W        W35275  21.923  11.478  18.481  0.3791  0.1570  0.0476
34412W        W35276  23.511   5.664   7.177  0.0925  0.0072  0.0931
34413W        W35277   0.933  11.400  16.275  0.1889 -0.0577 -0.0784
34414W        W35278  25.952   0.209  17.394  0.1106 -0.3862  0.4405
34415W        W35279  29.066  21.970   8.054 -0.2248  0.1246  0.0243
34416W        W35280   8.552   3.695  23.720 -0.1322 -0.4149  0.1804
34417W        W35281  19.009  11.174   5.441 -0.0580 -0.1263 -0.2253
34418W        W35282   4.309   5.720  16.733 -0.1356  0.4823  0.0064
34419W        W35283   5.227  24.230  18.378  0.1770 -0.3263  0.0137
34420W        W35284   5.165   7.239  27.925  0.0322 -0.1309 -0.1411
34421W        W35285  19.760  19.101   8.755 -0.1114 -0.0076  0.2103
34422W        W35286  27.895   0.774  25.137 -0.0200  0.2715  0.0302
34423W        W35287   8.643  15.219  17.310 -0.2594 -0.0510  0.4032
34424W        W35288   8.678  24.134  27.485  0.2553 -0.2584  0.0537
34425W        W35289  28.234  26.523  13.573 -0.0293 -0.2198 -0.0449
34426W        W35290  25.479  12.565  28.600  0.3659  0.1711 -0.1528
34427W        W35291  10.662  12.337  15.151 -0.1277  0.1481 -0.1021
34428W        W35292   5.847   1.463  11.411 -0.0090 -0.2154 -0.1830
34429W        W35293  23.814   2.185  20.057  0.3734  0.1997 -0.0158
34430W        W35294   3.677  18.478  27.053 -0.0101 -0.2409  0.0900
34431W        W35295  13.690   9.609  13.208 -0.2006  0.0578  0.0826
34432W        W35296  25.769  13.400  11.411  0.0513 -0.1270  0.1516
34433W        W35297  14.093   2.602  15.329  0.0900 -0.1544 -0.3334
34434W        W35298   6.544   5.348   0.519 -0.1537  0.0687 -0.1239
34435W        W35299  13.948   3.337  25.634  0.2865  0.1850 -0.0947
34436W        W35300   5.168   4.641  28.658 -0.0522  0.0268  0.2554
34437W        W35301  13.315  15.353  18.889  0.1706 -0.1886 -0.3350
34438W        W35302  12.540  19.784  24.640 -0.2810  0.1737 -0.2029
34439W        W35303  10.181   2.655  17.965 -0.1515  0.0097  0.0529
34440W        W35304   5.959  10.100   1.588  0.0976  0.0158  0.1586
34441W        W35305   3.871  14.902   5.742 -0.1532  0.2008 -0.1160
34442W        W35306  16.313  13.968   1.582 -0.2155 -0.1661  0.2119
34443W        W35307   0.206  14.325  18.458  0.0267 -0.0527  0.0189
34444W        W35308  20.001  15.548  24.033 -0.0010  0.2054  0.2812
34445W        W35309   5.069   2.749  28.875 -0.1657  0.4375 -0.1437
34446W        W35310  28.351  10.653  24.545 -0.0168 -0.0862 -0.1805
34447W        W35311  26.986  12.106  14.126  0.1197  0.1001  0.0613
34448W        W35312  24.955  27.172   6.983  0.0247 -0.4864 -0.1374
34449W        W35313   9.817  16.130  10.896 -0.2475 -0.1647  0.1176
34450W        W35314  27.699  10.787  29.118  0.4707 -0.2334 -0.1965
34451W        W35315  24.115   7.371  12.860  0.0188 -0.0157  0.2901
34452W        W35316  25.673   6.273  18.209  0.1645 -0.1011  0.2510
34453W        W35317  23.828  10.626  14.984 -0.1963 -0.1061  0.0821
34454W        W35318   7.829  13.117  22.820  0.1085  0.0339  0.2673
34455W        W35319  23.989  10.310  22.279 -0.2017 -0.0252  0.1127
34456W        W35320  12.611  12.925  28.110  0.0221  0.4380 -0.0850
34457W        W35321   9.069  22.170  20.039  0.1047  0.0472 -0.0430
34458W        W35322   5.889   0.355  11.483  0.1615  0.0358 -0.3001
34459W        W35323   2.301   4.985   3.319  0.0242 -0.1165  0.0975
34460W        W35324   3.502   9.205   8.883 -0.1963  0.2883  0.0872
34461W        W35325   2.139  28.617  26.959 -0.0848  0.2227 -0.1555
34462W        W35326  14.447   9.493   8.679  0.0595  0.0197  0.0937
34463W        W35327  17.061   5.680  21.253  0.0297  0.1701  0.2574
34464W        W35328  21.683  12.489  11.733  0.0684 -0.0157 -0.4059
34465W        W35329   9.723   7.305  23.990  0.0301 -0.2492 -0.0111
34466W        W35330   0.194  15.838   5.653  0.4151 -0.2500  0.1205
34467W        W35331   6.801   9.565   0.205  0.0306 -0.1561 -0.0480
34468W        W35332   7.689  10.705   8.040 -0.0928  0.1598  0.0812
34469W        W35333   5.029  10.115  27.268 -0.0816 -0.2543 -0.2244
34470W        W35334  26.039   9.877  18.737  0.0922  0.0764  0.0134
34471W        W35335  14.275  25.257  21.372 -0.1098  0.0282  0.1655
34472W        W35336   1.473   3.383  25.525  0.1703  0.2211 -0.1314
34473W        W35337  12.414  21.791  14.569  0.2174  0.2803  0.1112
34474W        W35338  27.589   5.885  20.055  0.4918 -0.0461  0.0399
34475W        W35339   4.227   7.641   8.563  0.0783 -0.1782  0.0640
34476W        W35340   1.654  14.668  12.974 -0.0154 -0.2064 -0.0393
34477W        W35341  26.152   1.277  16.766  0.2947 -0.1093  0.2814
34478W        W35342   4.850   9.951   0.005 -0.1258  0.0655  0.0848
34479W        W35343  14.462  25.656   0.514 -0.0197 -0.2914 -0.0922
34480W        W35344  11.577  26.896  12.788 -0.1456  0.0590 -0.1091
34481W        W35345  23.859  21.681   6.675  0.0865  0.2447  0.1705
34482W        W35346   4.980   8.715   1.773  0.1008  0.3610  0.2003
34483W        W35347  20.112   6.559   4.737 -0.1724  0.3193  0.0047
34484W        W35348  11.267  12.986  25.851  0.3220  0.0324 -0.0028
34485W        W35349   8.519  17.385   1.220 -0.2971  0.0426 -0.0428
34486W        W35350   4.411   9.610  11.200  0.2500  0.2987 -0.1752
34487W        W35351   0.805  17.608   0.012 -0.2014  0.1514  0.1152
34488W        W35352  18.550  24.683   6.339  0.0598  0.0686 -0.0616
34489W        W35353   6.660   1.008  20.024 -0.3413  0.3219  0.1804
34490W        W35354   8.771   5.544  28.309  0.0756 -0.0482  0.0904
34491W        W35355  26.692  28.983   5.076 -0.1996 -0.2090 -0.0236
34492W        W35356  18.672  28.678  19.324  0.6338 -0.2653 -0.2548
34493W        W35357  20.499  17.460  13.910  0.3205 -0.0107  0.0591
34494W        W35358  28.054  21.428  26.871 -0.0527  0.0876 -0.1470
34495W        W35359  22.352  25.065  14.989  0.1621 -0.2238  0.3264
34496W        W35360  25.526  23.806  27.603 -0.0862  0.3297  0.0142
34497W        W35361   2.025  20.121  13.226  0.0502 -0.0842 -0.2237
34498W        W35362  13.238   4.341  21.633 -0.0375  0.0201  0.1310
34499W        W35363   3.117  12.118  13.030  0.0094 -0.0985 -0.1454
34500W        W35364  16.119  18.388  23.625 -0.3362  0.0651 -0.0415
34501W        W35365  17.771   9.201   5.903 -0.0843 -0.0727 -0.0407
34502W        W35366  11.297   4.213  14.994 -0.0553 -0.1966 -0.1763
34503W        W35367  13.755  10.223  17.847 -0.0350 -0.2416 -0.0869
34504W        W35368   6.414  19.747  21.988  0.2238  0.0613  0.2864
34505W        W35369   3.708   2.186  21.586 -0.1082 -0.1511  0.1381
34506W        W35370  10.283   1.029  11.407 -0.0256  0.1123 -0.2358
34507W        W35371  11.396   9.612  18.952  0.0604  0.4650 -0.0823
34508W        W35372  18.173   6.681  23.569 -0.0534  0.0268  0.0654
34509W        W35373   0.936   6.213   6.228  0.0433 -0.2206  0.1196
34510W        W35374  10.366   9.220  17.986 -0.0115 -0.0024 -0.0464
34511W        W35375  26.054   7.709  15.823  0.0284  0.0116 -0.0916
34512W        W35376  14.708  24.207  14.484  0.1924 -0.1067  0.0859
34513W        W35377  24.512   4.285  18.279  0.0015  0.1702 -0.0691
34514W        W35378   1.208  14.798  26.766 -0.1420  0.0158 -0.0658
34515W        W35379  20.010  10.151  13.873 -0.4445 -0.1631 -0.2138
34516W        W35380  25.470   3.832   0.637 -0.1013  0.0743  0.0826
34517W        W35381   9.365  14.704  12.512 -0.0512  0.0214 -0.3304
34518W        W35382  28.704   6.984   9.010 -0.0198 -0.2056  0.1783
34519W        W35383  19.207   3.956  13.367 -0.0087 -0.1569 -0.0159
34520W        W35384  10.279   7.127  22.505 -0.0398  0.0348  0.2900
34521W        W35385   8.816  17.878  14.905  0.0803  0.1093  0.1147
34522W        W35386   2.343   5.529  18.392 -0.0399  0.1255 -0.1785
34523W        W35387   1.880  14.865   8.075 -0.2042 -0.0048 -0.2461
34524W        W35388  21.569  14.100   5.036 -0.2886 -0.1273 -0.1090
34525W        W35389  17.034  23.671  20.530  0.0265  0.2541 -0.1934
34526W        W35390  15.560  14.377   3.252 -0.0869 -0.5598 -0.4549
34527W        W35391   0.640  20.623   5.390 -0.0515  0.1445 -0.1268
34528W        W35392   7.110  23.676  23.780 -0.1865  0.0330 -0.0362
34529W        W35393  12.013  10.302  19.542  0.3406  0.2155  0.0527
34530W        W35394  25.941  13.051   6.363  0.0232  0.0672 -0.3008
34531W        W35395   6.537  25.598  18.479 -0.0204  0.0953  0.1055
34532W        W35396   2.729  11.453   3.397 -0.0804 -0.0142  0.0129
34533W        W35397   8.870  27.099  13.173  0.1208  0.2668 -0.5646
34534W        W35398  28.838   4.916  14.977 -0.1933 -0.1717  0.1689
34535W        W35399  15.950  28.824  23.053  0.2002  0.3322  0.2847
34536W        W35400  25.126  11.870  18.350  0.0904  0.1332  0.2042
34537W        W35401   4.852  11.453   4.524 -0.2526 -0.0246 -0.1412
34538W        W35402   4.326  10.740  23.620 -0.0497 -0.1987  0.1901
34539W        W35403  14.873  10.065  17.262  0.2781 -0.0232  0.1515
34540W        W35404  20.855  23.541   4.882 -0.0374  0.3372 -0.0414
34541W        W35405   0.293  26.375  12.663  0.1202 -0.3905  0.1219
34542W        W35406  10.854   8.419  27.802 -0.1502 -0.0283 -0.2330
34543W        W35407  21.434   1.140  27.725  0.1836  0.0134  0.3116
34544W        W35408   0.435  10.856  11.460 -0.1257  0.1756  0.2042
34545W        W35409   2.917   5.340   8.351  0.1177  0.3596 -0.2763
34546W        W35410  22.144  12.122  15.859 -0.0256  0.0733  0.3192
34547W        W35411   1.415  21.505  15.200 -0.2327  0.0576 -0.2212
34548W        W35412  10.318   2.101  18.655 -0.0487 -0.2953  0.0150
34549W        W35413  15.061  20.572   4.143 -0.0636 -0.1821  0.3657
34550W        W35414   6.440  19.059  14.463  0.3487  0.1725  0.0096
34551W        W35415  24.082  15.068  23.640  0.0991 -0.2791 -0.1984
34552W        W35416  29.010  17.323  13.898 -0.0817 -0.1044  0.0829
34553W        W35417  14.453   4.846  26.909 -0.1771  0.0528  0.2242
34554W        W35418   4.327  23.347  23.225  0.1410  0.1521  0.1327
34555W        W35419  17.858   7.000  22.161 -0.2602  0.3059 -0.0150
34556W        W35420   1.705   8.686  20.435  0.0862  0.0054 -0.0453
34557W        W35421  19.810   0.092   6.806  0.2114  0.0394  0.2764
34558W        W35422   0.838  26.886  25.190 -0.0548 -0.1123  0.0603
34559W        W35423   7.187   5.428  10.568 -0.1027 -0.5952  0.1505
34560W        W35424  25.542  28.730   4.862  0.0492 -0.0655  0.0377
34561W        W35425  14.477  23.463  19.511 -0.0478 -0.0331  0.0940
34562W        W35426  26.530  19.403  16.220  0.0544  0.0753  0.1842
34563W        W35427   2.306   9.096   9.380  0.2070 -0.2198 -0.4904
34564W        W35428   4.970   7.902  17.728  0.2431 -0.1958  0.0946
34565W        W35429   0.518  11.798  11.862  0.1840 -0.3304 -0.1674
34566W        W35430   3.441   9.203  16.075 -0.5617 -0.0158  0.0601
34567W        W35431  23.974  26.690  26.212  0.2029  0.2516 -0.1999
34568W        W35432   2.702  17.770   7.613  0.1833  0.1523  0.1570
34569W        W35433   2.820   6.431  16.426  0.0339 -0.1530 -0.1761
34570W        W35434  10.848  10.288  28.931  0.3064 -0.2640  0.1552
34571W        W35435  11.421   1.937   7.867 -0.0673 -0.2352  0.1376
34572W        W35436  27.467  15.132  15.831 -0.0503 -0.2767  0.0395
34573W        W35437  12.708  18.145  18.239  0.2374  0.0979 -0.0307
34574W        W35438   0.381   7.034  21.933  0.0231 -0.1587  0.3559
34575W        W35439   2.207  26.740  22.414  0.0531 -0.0920  0.1950
34576W        W35440  19.828   3.138  21.892  0.0982  0.0133 -0.1232
34577W        W35441  22.535  10.852   2.223  0.1308  0.1005 -0.0633
34578W        W35442  25.872  28.205  22.162  0.1278  0.1972 -0.1346
34579W        W35443  10.861  11.099  26.631 -0.0409  0.1364 -0.1383
34580W        W35444  11.999  27.023   4.265 -0.0501 -0.0789 -0.2551
34581W        W35445   5.468  12.056  24.492  0.1733 -0.1498 -0.3020
34582W        W35446  27.816  26.367  13.386  0.1283  0.2142  0.3834
34583W        W35447   9.575  14.846  10.270 -0.1978 -0.2304 -0.2543
34584W        W35448  26.150   2.587  20.068  0.2041  0.1943  0.1263
34585W        W35449  13.427   8.189  28.539  0.1781  0.1584  0.0532
34586W        W35450   9.929   9.279  15.320 -0.2782  0.1020 -0.0707
34587W        W35451  28.686  19.468   5.184 -0.0916  0.2682 -0.0889
34588W        W35452   7.772  26.613   9.471 -0.2960  0.0446  0.1853
34589W        W35453   0.622   2.151   7.716  0.1776  0.0171 -0.1864
34590W        W35454   0.858   2.030  27.337  0.3928 -0.0761 -0.0720
34591W        W35455  16.461  28.018  26.785  0.0114  0.2287 -0.0495
34592W        W35456   5.217  25.915  21.010  0.0129 -0.0710 -0.0035
34593W        W35457   7.171  23.045  13.100  0.2869 -0.0587 -0.0943
34594W        W35458  24.128  25.521  22.528  0.2538  0.0840 -0.0497
34595W        W35459  13.044  15.497  19.855 -0.1665  0.2676 -0.1095
34596W        W35460  11.151  17.819   5.785  0.0993 -0.4933  0.0554
34597W        W35461  11.485  12.725  27.137  0.0601  0.2618  0.0776
34598W        W35462   1.588  11.838  29.094  0.0333 -0.3418 -0.2799
34599W        W35463  17.302  26.430  21.490 -0.3697  0.1851  0.0751
34600W        W35464  13.966   3.339  19.155 -0.1265 -0.2243 -0.1450
34601W        W35465   5.981  25.502  22.093  0.2060  0.2341 -0.0906
34602W        W35466  14.543  10.240  28.501  0.1523 -0.1740  0.0511
34603W        W35467   2.301  13.718  26.564 -0.2334  0.1302 -0.0793
34604W        W35468  27.979   7.832   0.458  0.1056 -0.0094  0.1753
34605W        W35469  26.204  15.516  25.253  0.2175  0.1048 -0.1593
34606W        W35470  27.672  28.123  26.078  0.0811 -0.0364  0.0698
34607W        W35471  11.497   1.090   5.983 -0.0501 -0.0319 -0.1370
34608W        W35472  10.344  27.178  10.219  0.1123  0.0949  0.1357
34609W        W35473   6.582  23.524  18.006  0.0988  0.3082 -0.1088
34610W        W35474  24.969  23.038   2.829 -0.1943 -0.3219  0.1162
34611W        W35475   4.987  17.658   6.130  0.0995 -0.4561 -0.1340
34612W        W35476   5.423  14.301  17.660  0.0778 -0.1523 -0.2644
34613W        W35477   3.486   6.272   1.599 -0.0634 -0.1659  0.0042
34614W        W35478   1.912  20.265  23.927 -0.0665  0.2589  0.1525
34615W        W35479  12.661  13.038  14.720  0.1669  0.0813 -0.2378
34616W        W35480   1.077  21.328  13.813 -0.1520 -0.2807 -0.1021
34617W        W35481  25.934   6.400  14.733 -0.5004  0.1636  0.0294
34618W        W35482   4.228  13.456  23.111 -0.1166  0.0120  0.3884
34619W        W35483   9.850  15.252  13.497  0.0590 -0.0175 -0.0143
34620W        W35484  10.329  27.340  29.091  0.0132  0.0354 -0.2135
34621W        W35485  23.154  15.837  22.527 -0.3167 -0.0396 -0.0440
34622W        W35486  24.516  15.400  21.354  0.3143 -0.0288  0.1699
34623W        W35487  27.967  20.244  18.308 -0.2258  0.1349 -0.1454
34624W        W35488  12.597  19.235  22.214  0.5047 -0.1535  0.2673
34625W        W35489  24.407  20.715  23.036 -0.1151 -0.2943 -0.1118
34626W        W35490  15.666  11.833   2.274  0.1854 -0.1833  0.1712
34627W        W35491   8.502  16.863   1.657  0.0845  0.2199 -0.1772
34628W        W35492   1.485  28.929  12.231  0.0334 -0.0946 -0.4439
34629W        W35493  14.482  16.031  10.779  0.1153  0.0851  0.2235
34630W        W35494   1.260   3.123   9.918 -0.1764  0.2650 -0.2944
34631W        W35495  19.271  15.863  27.921 -0.1567 -0.4765  0.5610
34632W        W35496   1.567  18.678   4.567  0.2054  0.0382  0.0349
34633W        W35497  22.253  13.100  22.935 -0.1253 -0.1978 -0.0412
34634W        W35498   3.933  20.279  26.071  0.1579 -0.2323  0.1434
34635W        W35499   6.827  25.840  16.899  0.1437 -0.0043 -0.0644
34636W        W35500  12.605  18.783  23.063  0.0240 -0.0191  0.0017
34637W        W35501  27.233  19.381  10.791 -0.3814  0.0476 -0.3513
34638W        W35502   8.385   5.307  11.313 -0.0466  0.1287  0.2752
34639W        W35503   1.849  20.615   2.985 -0.0247  0.1836 -0.1203
34640W        W35504  27.260   7.670  19.353  0.1384  0.2055 -0.1545
34641W        W35505   4.348   9.823  18.328  0.2293 -0.4664  0.2315
34642W        W35506  23.927   2.325  10.363  0.1835 -0.2992  0.0943
34643W        W35507   9.649  28.825  16.973  0.0911  0.0388  0.1759
34644W        W35508   5.401  28.887  16.625  0.2246 -0.2012  0.1604
34645W        W35509   6.330   5.168   1.279 -0.3021 -0.0730  0.0565
34646W        W35510   7.324  12.852  26.541  0.2461 -0.0944 -0.0092
34647W        W35511  25.784   8.775  21.724  0.2474 -0.3361 -0.1863
34648W        W35512  24.721  23.365  25.453  0.2952 -0.1586 -0.2847
34649W        W35513  25.612  11.084  13.444 -0.0362  0.1287  0.1267
34650W        W35514  23.274   9.803  16.961  0.0562  0.2835 -0.1569
34651W        W35515   7.311  16.295  17.906  0.1498 -0.1631 -0.2221
34652W        W35516   0.718  19.134  15.026  0.1063  0.0855  0.1209
34653W        W35517  22.413  28.310  12.804  0.3985 -0.2092 -0.3239
34654W        W35518   9.321  12.620   6.081 -0.3760  0.0161  0.0339
34655W        W35519  23.851  26.766  14.661 -0.0752  0.2524  0.2684
34656W        W35520  17.320  17.984   9.426  0.0150 -0.2443  0.4322
34657W        W35521  13.509   5.364   1.100  0.1549 -0.1809  0.0395
34658W        W35522  27.601  17.144   0.779 -0.0462 -0.1429  0.0419
34659W        W35523  13.957  12.671  26.496 -0.0737  0.0391  0.1951
34660W        W35524  13.271   0.579   9.305 -0.0810 -0.0590 -0.2542
34661W        W35525  18.069   9.870   7.338 -0.0708 -0.1559 -0.0879
34662W        W35526  18.899  25.551  24.340 -0.1321 -0.1755 -0.2688
34663W        W35527   4.105  14.345  13.606  0.2491  0.0599  0.0835
34664W        W35528  20.485  19.184  17.819 -0.1034  0.1791  0.0555
34665W        W35529  11.857  20.210  14.560 -0.0926  0.0788 -0.0326
34666W        W35530   0.787  14.296  24.123  0.2635 -0.3536 -0.1068
34667W        W35531   2.064  22.765  20.145 -0.0531  0.0455 -0.2510
34668W        W35532   5.293  25.174  22.233 -0.1243  0.0666 -0.2980
34669W        W35533  20.393   6.380   3.577 -0.2513  0.1239  0.2082
34670W        W35534  11.422  18.770  22.650 -0.0020 -0.4076  0.0111
34671W        W35535   3.106  27.112  10.149  0.1303  0.0861 -0.0031
34672W        W35536   4.688  24.169  22.263  0.0193  0.1602 -0.2633
34673W        W35537  16.847   4.450  28.034  0.1661 -0.0687  0.1446
34674W        W35538  13.923   6.154  22.916  0.1583 -0.0515 -0.1597
34675W        W35539   2.105  26.947  22.890  0.0851  0.1698  0.2598
34676W        W35540  26.457  20.055   0.705  0.0531  0.1491  0.2100
34677W        W35541   4.710   2.925  15.598 -0.0317  0.2457  0.0836
34678W        W35542   9.971   4.205  22.638  0.1680  0.2370  0.1471
34679W        W35543  23.980   2.033  17.545 -0.1411  0.1314 -0.0561
34680W        W35544  22.773   2.499  11.677 -0.1044  0.0095  0.1819
34681W        W35545   1.661  21.222  17.474  0.1446  0.0824 -0.2568
34682W        W35546  11.514   3.628  26.780 -0.2056 -0.0392 -0.0896
34683W        W35547  21.340  28.487  21.122 -0.0751  0.2415  0.0715
34684W        W35548  11.422  14.444   0.285 -0.1421  0.1840 -0.0985
34685W        W35549  16.543  11.022  21.329  0.2428 -0.0297  0.1186
34686W        W35550   0.301   0.206  21.603 -0.1447 -0.2363  0.1388
34687W        W35551   0.906   5.987  17.431 -0.2463  0.2389 -0.1967
34688W        W35552  28.586  13.256  22.657 -0.2239 -0.1029  0.1665
34689W        W35553  27.446   2.004  14.719  0.2481  0.1676  0.2464
34690W        W35554   9.398   6.126  19.303  0.1506  0.2597 -0.2458
34691W        W35555   2.991  18.817   6.857  0.1922  0.0367 -0.1107
34692W        W35556  28.934   9.758   0.481  0.0774 -0.0441 -0.3339
34693W        W35557   6.860  13.745  21.709 -0.0836  0.0939  0.4411
34694W        W35558  15.081   1.482  11.543 -0.0072 -0.0396 -0.3276
34695W        W35559  11.631  12.309   0.182 -0.2282 -0.0114  0.3337
34696W        W35560  11.858   1.129  20.246 -0.3393 -0.0608  0.3593
34697W        W35561  27.976   4.038  13.156  0.1597  0.0079  0.0179
34698W        W35562   1.663  25.134  29.047 -0.1742 -0.0228 -0.1578
34699W        W35563  24.487  21.190  27.646 -0.2836  0.2446 -0.4262
34700W        W35564  14.323  12.993  25.518  0.1662  0.1996 -0.0641
34701W        W35565   9.530   7.736  10.569  0.3105  0.1729  0.0534
34702W        W35566  15.112   0.828  20.710 -0.2155  0.0575  0.2242
34703W        W35567   1.136   1.317  11.908  0.0400  0.0324  0.2398
34704W        W35568  10.384   9.372  25.595  0.0909 -0.0328  0.1114
34705W        W35569   2.761  27.582  19.961  0.0859  0.4070  0.2842
34706W        W35570   9.729   3.989   8.323 -0.2835 -0.0289 -0.0026
34707W        W35571  21.668  15.985  23.290  0.0903 -0.0129 -0.0732
34708W        W35572  17.025   8.531  11.152 -0.1933 -0.0833 -0.1790
34709W        W35573  17.845   1.804   0.011  0.2039 -0.1057  0.1088
34710W        W35574   2.549   4.637   6.316  0.0965 -0.3867  0.0197
34711W        W35575   7.289  20.373   8.515 -0.0170  0.0615 -0.2122
34712W        W35576  20.378   4.940  27.853  0.0307  0.0010 -0.1656
34713W        W35577   4.675   4.714  28.797  0.1158 -0.3309 -0.4164
34714W        W35578   8.101  22.631  20.645 -0.1260  0.1941 -0.1208
34715W        W35579   7.796  16.186   4.020  0.3466 -0.3701 -0.2399
34716W        W35580   5.898  15.096  25.547  0.2574 -0.2165 -0.0494
34717W        W35581   6.084  22.956   2.680 -0.0711 -0.1510 -0.0843
34718W        W35582  18.399   5.792   6.359  0.3817  0.0139  0.1413
34719W        W35583  12.406  16.823  12.442 -0.1438 -0.0474  0.3243
34720W        W35584   9.333  11.072   9.502  0.2254  0.1315  0.2637
34721W        W35585  13.850  12.074   0.329  0.1196  0.0352 -0.0448
34722W        W35586  28.413   8.710  17.052 -0.3110 -0.1093 -0.2526
34723W        W35587  21.801   9.965  10.369  0.2405 -0.0603 -0.0622
34724W        W35588   0.824   6.205  28.090  0.0839 -0.0165  0.0184
34725W        W35589   5.528  23.100  21.877  0.2375  0.0892  0.3058
34726W        W35590   0.843  17.476  21.280  0.0323 -0.1720  0.0032
34727W        W35591  29.045   8.280   0.645  0.5496 -0.0385  0.0964
34728W        W35592  18.270  12.438   5.297  0.3942 -0.2148 -0.3126
34729W        W35593   9.985   4.058  16.164 -0.1663 -0.0147 -0.2460
34730W        W35594  12.275   1.654  20.684 -0.0852  0.0916 -0.2807
34731W        W35595   4.807  28.992  13.106 -0.0470 -0.2844 -0.0293
34732W        W35596   9.517  22.718   7.539  0.3140  0.2667  0.0725
34733W        W35597  18.344  25.555  23.625 -0.0312 -0.0786 -0.1722
34734W        W35598   4.240   8.223   0.134 -0.1440 -0.0805 -0.2073
34735W        W35599   2.481  16.174  19.619 -0.0129  0.1023 -0.1830
34736W        W35600  19.673  14.227   2.182  0.2748  0.1909  0.3098
34737W        W35601  22.089  26.065   1.283 -0.2313 -0.0383  0.1859
34738W        W35602  23.730   6.964   7.786  0.2697 -0.0454  0.0137
34739W        W35603   3.139  18.179  25.748  0.1533  0.1152 -0.1660
34740W        W35604  26.853  28.373  28.633 -0.0923 -0.2833 -0.0021
34741W        W35605  26.249  11.007  15.286 -0.0503 -0.0972 -0.1167
34742W        W35606   2.545  11.990   3.387  0.0725  0.0595  0.2738
34743W        W35607  15.343  24.945  21.328  0.1101 -0.1669 -0.2534
34744W        W35608  16.989  16.702  18.829 -0.1659 -0.0041 -0.0343
34745W        W35609   1.248   4.686  25.787 -0.0691  0.0836  0.0956
34746W        W35610   4.695  20.073  13.802  0.1544  0.0158 -0.0695
34747W        W35611  20.465  20.223  15.569 -0.3855  0.0356 -0.2031
34748W        W35612   1.911  29.083  27.345 -0.5726  0.0931  0.0389
34749W        W35613   0.070  12.918  25.075 -0.2292 -0.2289 -0.0885
34750W        W35614   3.048   8.544   0.163 -0.0809 -0.1493 -0.4103
34751W        W35615  25.271  14.097  12.922 -0.2498 -0.0271  0.0390
34752W        W35616  10.757   9.768  11.415  0.1019 -0.2834 -0.1208
34753W        W35617  28.107  10.269   6.408 -0.1121  0.0243  0.1886
34754W        W35618   7.767   6.420  13.324 -0.1873  0.1330 -0.1146
34755W        W35619   9.001  10.432  28.472  0.1057 -0.5231  0.0111
34756W        W35620   3.759  11.132   2.859 -0.1713 -0.2053  0.0606
34757W        W35621  26.448  18.742  13.734  0.2944 -0.2048 -0.1208
34758W        W35622   7.919  17.098  15.836  0.0902  0.4328  0.1575
34759W        W35623  19.709  14.599  20.919 -0.0033  0.0152  0.1193
34760W        W35624  23.720  11.079  17.371  0.2872  0.1277  0.0300
34761W        W35625   2.118  11.923   4.115 -0.1886 -0.0649 -0.0019
34762W        W35626  16.791  21.456  11.614 -0.2065  0.1637 -0.2531
34763W        W35627  28.464  15.700   7.017 -0.1456 -0.0005  0.0724
34764W        W35628  16.718  13.467  23.186  0.0053 -0.2810  0.2931
34765W        W35629   4.463  21.116  14.013  0.2113  0.1517 -0.3793
34766W        W35630   7.490   2.067  25.749  0.0067 -0.1135 -0.1175
34767W        W35631   6.161  13.887  16.427 -0.3777 -0.3786 -0.0561
34768W        W35632   3.096  16.564  24.076  0.0197  0.0172  0.1485
34769W        W35633   5.582  27.941   6.628 -0.1948  0.3130 -0.3739
34770W        W35634   9.825  11.492   0.030 -0.1966 -0.0570 -0.0023
34771W        W35635  10.609   3.005   4.983 -0.1604  0.0168 -0.2930
34772W        W35636  23.152  28.172  16.608 -0.0418 -0.1012  0.2356
34773W        W35637   4.781   9.418  24.399  0.0657  0.1099  0.0497
34774W        W35638   9.142   5.421   9.187 -0.0192  0.0006 -0.0241
34775W        W35639  23.357  20.445  22.295  0.1100  0.1034  0.3391
34776W        W35640   8.752  11.640  24.168  0.1746  0.1192 -0.0126
34777W        W35641  10.862   6.510  12.738  0.0386  0.1849 -0.3277
34778W        W35642  25.525  13.394  16.873 -0.3305 -0.2235 -0.2008
34779W        W35643  27.042  12.606  25.110 -0.2709  0.1443  0.0368
34780W        W35644   7.947  18.034   5.188 -0.4032 -0.2717 -0.5011
34781W        W35645  24.546   8.191  21.348  0.2154 -0.2053  0.0021
34782W        W35646  11.442  24.482  23.672 -0.1061  0.0226 -0.1266
34783W        W35647  28.166  10.932  23.012  0.2113  0.3753  0.1389
34784W        W35648  21.389  18.626  19.742  0.1257 -0.2573  0.1386
34785W        W35649  27.978   9.159  18.009 -0.0270  0.2271 -0.1844
34786W        W35650   7.672  14.742  24.911  0.1099 -0.0450 -0.4587
34787W        W35651  10.046   3.890   5.392  0.0211  0.2766  0.0396
34788W        W35652   6.692   5.060   2.585  0.0811 -0.4352 -0.0630
34789W        W35653   2.558  16.000  21.768 -0.0610  0.1781 -0.3916
34790W        W35654   0.227  18.368   2.007  0.0304 -0.1197  0.0962
34791W        W35655  13.704   8.602  22.908 -0.1537 -0.2272 -0.0205
34792W        W35656  27.201  14.069   2.188  0.0629 -0.1293  0.0582
34793W        W35657  17.776   4.704   9.297 -0.1242 -0.1077 -0.0779
34794W        W35658   9.029  28.636   6.019 -0.0051 -0.0722  0.0053
34795W        W35659  25.307   8.594   2.710  0.1454 -0.0592 -0.2091
34796W        W35660  23.361   0.675  17.128 -0.2118  0.2648  0.4011
34797W        W35661   3.657  19.737  22.119 -0.3228 -0.0929 -0.3001
34798W        W35662  14.496  25.489  18.596 -0.2034 -0.1083 -0.2037
34799W        W35663   3.064   9.300  17.715  0.1129  0.0863 -0.0422
34800W        W35664  17.892   7.198   9.618 -0.2411  0.0469  0.1382
34801W        W35665   2.119  16.297   2.804  0.1703  0.0714  0.0197
34802W        W35666   5.602   4.268   1.557 -0.1211 -0.1186  0.1571
34803W        W35667  14.731   1.685   8.132  0.0565 -0.0347  0.1792
34804W        W35668  25.188  27.756  23.713  0.1449  0.3854 -0.0841
34805W        W35669   7.846   3.125   0.146  0.2665 -0.2387  0.3572
34806W        W35670  25.808   6.212   9.779  0.0203 -0.1370  0.0790
34807W        W35671  23.279  20.532  12.380 -0.3212  0.1471  0.2051
34808W        W35672  15.974   5.974  13.979  0.1844 -0.0060 -0.1581
34809W        W35673  19.080   8.355   8.133  0.0983  0.0570  0.3370
34810W        W35674   1.132  19.309  17.029  0.2417  0.0021  0.0443
34811W        W35675   7.689   1.680  25.435 -0.2347 -0.0844  0.1664
34812W        W35676  16.991  25.643  27.531  0.0587  0.1086 -0.1673
34813W        W35677   7.951  12.797  20.327 -0.1443  0.2666  0.1477
34814W        W35678  15.293  14.432   1.099  0.1459  0.3292 -0.1856
34815W        W35679   8.605  14.611  17.950  0.0684 -0.0149 -0.1348
34816W        W35680   7.791  24.583   0.075 -0.2700 -0.1506 -0.1371
34817W        W35681  13.552  10.981  19.138  0.1085 -0.0739  0.1179
34818W        W35682  22.500   5.170  21.386 -0.1109  0.0273  0.1014
34819W        W35683  28.884  12.275   9.996  0.1669  0.0713 -0.3319
34820W        W35684  25.483  25.992  22.776 -0.0770  0.0180 -0.3303
34821W        W35685  14.119   2.573  22.184  0.3389 -0.2744  0.0124
34822W        W35686  20.204   5.195  19.495  0.2860 -0.0297 -0.0628
34823W        W35687   2.979  28.664  15.254 -0.0137 -0.4118 -0.0097
34824W        W35688   3.817  26.456   2.852 -0.1787  0.0053 -0.0508
34825W        W35689  11.373   6.304  15.683  0.0379  0.0652 -0.1134
34826W        W35690  25.193   1.782  18.205  0.2550 -0.1560  0.0641
34827W        W35691  28.707  19.012  16.127  0.1185 -0.1455 -0.2388
34828W        W35692   6.362  23.020  23.989  0.3872 -0.1624  0.3051
34829W        W35693   5.164  11.160  26.427 -0.0457 -0.0117 -0.0412
34830W        W35694   5.251   6.699  28.208 -0.0106 -0.0210 -0.1175
34831W        W35695   0.304  12.009  22.475  0.1699  0.2199 -0.0365
34832W        W35696   2.317  16.145  15.281  0.1440 -0.1425 -0.1444
34833W        W35697  13.905  25.644  15.575  0.2800 -0.4051 -0.2054
34834W        W35698   9.848   5.657  12.927  0.0628 -0.5225 -0.1507
34835W        W35699   2.724  12.060  15.843  0.0518  0.0673 -0.1594
34836W        W35700  12.284  20.598   7.696 -0.1192 -0.0494  0.0390
34837W        W35701   1.857   1.243  25.433  0.0420  0.0898  0.1873
34838W        W35702   4.824   7.820  14.324 -0.1661  0.0537 -0.1403
34839W        W35703  17.635  13.902   7.397  0.2200 -0.2999 -0.0380
34840W        W35704  15.061  19.603  22.126  0.1764  0.1587 -0.0889
34841W        W35705  11.916  26.908  20.079 -0.2107 -0.0468 -0.0808
34842W        W35706  24.173  27.084   0.962  0.0280  0.0875  0.0915
34843W        W35707   6.201  29.025  17.735 -0.1084 -0.0038  0.2886
34844W        W35708  19.098  26.111  16.444 -0.3150 -0.1605 -0.1916
34845W        W35709  12.062  24.768  12.596  0.2339 -0.2791  0.1549
34846W        W35710   0.133   4.659  13.657  0.3272 -0.0326  0.5958
34847W        W35711  15.235  28.325  21.474 -0.1059 -0.1732 -0.2902
34848W        W35712  17.907  24.198   6.797  0.0155 -0.2304 -0.0047
34849W        W35713   7.976   8.154  21.060 -0.2210 -0.4230 -0.0653
34850W        W35714  22.977   1.589   6.310 -0.0325 -0.1305  0.1233
34851W        W35715  26.408  28.541  25.088  0.0817 -0.1490 -0.0681
34852W        W35716  14.823  11.077   5.626  0.1472  0.0176  0.0251
34853W        W35717  27.504  11.538   3.564  0.0698 -0.0793  0.0621
34854W        W35718   9.675   3.858  15.770  0.3351  0.0274 -0.0415
34855W        W35719  18.718  17.673  23.997 -0.3269 -0.0023 -0.1685
34856W        W35720   3.731  21.001   6.380 -0.2232  0.0425  0.0876
34857W        W35721   3.608  27.518  29.046  0.2599  0.0389  0.0649
34858W        W35722   0.263  23.136  24.509  0.0619  0.0052 -0.4326
34859W        W35723  27.330  28.751   5.896 -0.1762 -0.1214 -0.0185
34860W        W35724  21.323  23.932  21.022  0.2236  0.2431 -0.0439
34861W        W35725  14.907  18.008  24.294 -0.3361  0.1287 -0.0519
34862W        W35726  12.962   9.184  23.897 -0.3078 -0.0437  0.0515
34863W        W35727   4.301  11.154   6.321 -0.0809  0.1548 -0.0730
34864W        W35728   4.890  12.168   0.776  0.2069  0.0035  0.0395
34865W        W35729  17.125  14.231  25.727 -0.1957 -0.0181  0.0764
34866W        W35730  20.608  23.475  28.505 -0.0067  0.1841 -0.2374
34867W        W35731  15.054   5.032   0.639 -0.2443 -0.0420  0.5127
34868W        W35732   3.119  14.646  14.199  0.1013 -0.2393 -0.2871
34869W        W35733  26.714   6.955   0.622  0.1599 -0.0182  0.0028
34870W        W35734  23.796   6.569  17.382  0.2691  0.0387 -0.2363
34871W        W35735   4.906  21.308   7.832 -0.0085 -0.0482  0.0302
34872W        W35736   1.437  23.468  22.174  0.1269 -0.0386 -0.2036
34873W        W35737  16.726  21.085  18.613 -0.1759  0.3589  0.0315
34874W        W35738  24.383   8.020   4.946  0.2604 -0.0076  0.0429
34875W        W35739   6.429  22.120  22.114  0.0449  0.0824  0.1068
34876W        W35740  28.423  25.851  13.658 -0.1759  0.0675  0.0387
34877W        W35741  24.847  19.634  28.524  0.0733 -0.4067  0.2658
34878W        W35742  11.399   2.246  19.432  0.1336 -0.1081 -0.0712
34879W        W35743   6.484   6.020   8.196 -0.1706  0.0837  0.1968
34880W        W35744   3.629  22.918  25.926  0.2434  0.0536  0.3471
34881W        W35745   4.682  23.417  12.460 -0.2868  0.3617  0.1267
34882W        W35746  28.197  28.066  14.952  0.0565  0.1679  0.0472
34883W        W35747  12.933  24.392   6.899 -0.0129  0.1489 -0.1578
34884W        W35748   1.158  27.455  23.655  0.1139 -0.0157 -0.0036
34885W        W35749  24.305   7.167  26.760  0.1029  0.0857  0.3009
34886W        W35750   9.270  19.906  23.291  0.2316 -0.0862 -0.1720
34887W        W35751  11.399  11.799  17.259  0.3686 -0.0753  0.2048
34888W        W35752   3.234  28.423   8.397 -0.2664 -0.1465 -0.2146
34889W        W35753  23.198   4.864   3.539 -0.0682 -0.0778 -0.1979
34890W        W35754  20.258  18.590  11.252  0.0623  0.1763 -0.3288
34891W        W35755  18.256  10.511  13.746 -0.1517 -0.0765 -0.1396
34892W        W35756   3.427   9.013   8.347 -0.1046  0.2398  0.0938
34893W        W35757  13.162  25.398   9.797  0.0342 -0.0720 -0.3814
34894W        W35758  18.182   7.720  18.563 -0.0692  0.1738 -0.2254
34895W        W35759  11.065   3.078   0.062  0.2039 -0.1710 -0.3169
34896W        W35760   4.025   3.361  12.214 -0.1039 -0.1775 -0.0589
34897W        W35761  18.753   9.311  23.342  0.0684  0.0637  0.0187
34898W        W35762  22.372  28.733  16.197 -0.0583 -0.2377 -0.0973
34899W        W35763  21.587   5.442  10.739 -0.0510  0.0609 -0.0591
34900W        W35764  23.883  11.708  23.589  0.0851 -0.1102 -0.2949
34901W        W35765   9.626  10.447  26.236 -0.0824 -0.2025 -0.2689
34902W        W35766   9.960  26.196  21.510  0.0737  0.0976  0.1062
34903W        W35767   7.076  11.642  18.194  0.0764 -0.0755 -0.0402
34904W        W35768   1.320  20.575  15.496  0.1365  0.0526 -0.0114
34905W        W35769  24.629  19.518  11.780  0.2197  0.0870 -0.1456
34906W        W35770  20.836  14.772  22.850 -0.1148 -0.0571 -0.0996
34907W        W35771   5.703   4.670  17.233  0.0551  0.3149  0.0238
34908W        W35772   1.094   0.316  26.255  0.0249 -0.0626  0.1821
34909W        W35773  10.366  18.495  23.777 -0.1603 -0.2214  0.1241
34910W        W35774   3.037   8.036   0.189  0.1384  0.0284 -0.0873
34911W        W35775  15.487   8.729  22.310 -0.4012 -0.2962  0.1867
34912W        W35776   5.130   2.617  14.559 -0.3198  0.1000 -0.1168
34913W        W35777  17.955   7.207  12.412  0.2706 -0.2838 -0.1394
34914W        W35778  16.677  27.240  25.832 -0.1972 -0.0322 -0.0003
34915W        W35779  25.231  16.184   8.349 -0.0374 -0.2411  0.0751
34916W        W35780  26.363  20.190  20.111  0.2880 -0.0225 -0.0757
34917W        W35781  28.104  12.186  21.890 -0.1991 -0.0786  0.1365
34918W        W35782  25.164  23.757   8.651  0.1661 -0.1075  0.1179
34919W        W35783   9.532  11.968  10.562  0.0026 -0.3668 -0.1185
34920W        W35784  18.413  15.121   8.732 -0.0717  0.3910  0.2199
34921W        W35785  26.358  27.869  24.342  0.2090 -0.1672  0.2553
34922W        W35786  13.804   1.940  27.933  0.2871 -0.2220  0.0217
34923W        W35787   3.954   8.589   0.315  0.0951 -0.4054 -0.0299
34924W        W35788   5.308   8.919  19.141 -0.2517  0.2397 -0.0194
34925W        W35789   8.576   4.905   6.620 -0.1306 -0.1712  0.4139
34926W        W35790   8.893  21.784   1.867  0.1409 -0.2536  0.4987
34927W        W35791   2.728  18.659  10.970  0.2385  0.1762  0.0665
34928W        W35792  25.807  14.216   0.036  0.0221 -0.0753 -0.2688
34929W        W35793  23.099  10.409  29.041  0.0049 -0.0028  0.1325
34930W        W35794  18.480  18.069  11.880  0.0110  0.3080  0.2829
34931W        W35795   5.258  21.534  21.296 -0.0224  0.0300 -0.1844
34932W        W35796  25.828   8.648   0.662  0.0860  0.2113 -0.0354
34933W        W35797   5.723  21.827  21.824 -0.1754 -0.0609  0.1438
34934W        W35798   1.141  12.847   1.598  0.4220 -0.1364  0.1882
34935W        W35799  28.868  16.299  25.136 -0.0450  0.1242  0.3192
34936W        W35800  10.883  21.320   3.761  0.0331 -0.0722 -0.1436
34937W        W35801  23.589  11.219  22.364  0.3571 -0.0901 -0.1280
34938W        W35802  27.588   6.907  27.019 -0.0502 -0.0719  0.0324
34939W        W35803   9.496  29.039  25.291  0.0625 -0.0340  0.2116
34940W        W35804   4.393   4.295  11.400  0.0012 -0.1517 -0.0907
34941W        W35805  27.515   0.468  25.452  0.0696 -0.1617  0.2170
34942W        W35806  26.844  18.158  10.686 -0.3376 -0.1633 -0.4946
34943W        W35807  25.620  21.413  14.575 -0.2097 -0.0658 -0.0657
34944W        W35808   9.581  24.340   0.528 -0.0855 -0.0349  0.1172
34945W        W35809  28.720   7.945  26.099  0.1591  0.2323  0.2201
34946W        W35810  23.620  27.615  11.011 -0.2252  0.0149 -0.1729
34947W        W35811  12.643   1.979  28.376 -0.2481  0.0495  0.1947
34948W        W35812  10.322   5.014  19.162 -0.4070  0.1038 -0.1350
34949W        W35813  15.615  13.731   9.229 -0.1421 -0.1710  0.1191
34950W        W35814  24.508  14.063  16.461 -0.2149 -0.1343 -0.1423
34951W        W35815   1.318  20.095  17.557  0.0430  0.2297 -0.0690
34952W        W35816   3.817  11.383  23.116  0.1411 -0.0607 -0.1193
34953W        W35817  11.479   9.107  23.586  0.4158  0.0829  0.2463
34954W        W35818  22.321  12.397  24.569 -0.1638  0.2013  0.1752
34955W        W35819   3.746   6.537  28.224  0.0667  0.0735  0.0420
34956W        W35820  22.736  14.433  24.550  0.4161 -0.0507 -0.1956
34957W        W35821   6.983  25.264  27.560 -0.0447 -0.0269  0.0158
34958W        W35822  22.793   2.421  17.119  0.1163  0.0539 -0.0602
34959W        W35823  18.538  24.019  26.567 -0.1138  0.0893 -0.0928
34960W        W35824  21.403  21.131   3.861 -0.3890  0.1177  0.4115
34961W        W35825  28.456  27.529  21.041  0.0913 -0.2187  0.2232
34962W        W35826   1.475  16.464  20.178  0.0239  0.0023 -0.0594
34963W        W35827   4.866  12.112  17.343 -0.2285  0.1800 -0.0387
34964W        W35828  18.355   0.502  27.848 -0.3032  0.1470 -0.0214
34965W        W35829  23.873   3.378  16.875 -0.2063  0.1711 -0.0612
34966W        W35830   9.665  11.085  19.455  0.0415  0.1360 -0.1791
34967W        W35831  10.306   7.501  22.135  0.0085  0.0735  0.0076
34968W        W35832  26.159  10.015  21.254 -0.0574  0.1203 -0.1927
34969W        W35833   0.906  25.367   3.782 -0.2856  0.0381 -0.2374
34970W        W35834   8.386   8.685   4.334 -0.0825  0.3523 -0.0607
34971W        W35835  10.401   2.627  20.989  0.0626 -0.0173 -0.5145
34972W        W35836  27.333   9.839  10.657 -0.2270 -0.1388 -0.2028
34973W        W35837   5.502   9.809  18.963  0.1779 -0.3429  0.2085
34974W        W35838   8.613  28.229  25.455 -0.1604  0.0348 -0.1239
34975W        W35839  25.221   9.308  16.263  0.2451 -0.0512 -0.1022
34976W        W35840  14.301   1.495  24.872 -0.0906  0.0548  0.0758
34977W        W35841  20.216  10.277  18.628  0.0104  0.0728  0.0062
34978W        W35842  15.596  26.086   1.726 -0.0691  0.3260  0.1154
34979W        W35843  21.134  19.642   0.123 -0.0479 -0.1074 -0.0950
34980W        W35844  28.008   6.399  21.938 -0.0038  0.2834  0.0133
34981W        W35845  21.314  27.035  26.859  0.2333  0.2849  0.0133
34982W        W35846   3.591  21.218  18.744  0.2055 -0.0977  0.0948
34983W        W35847   9.307   6.803  10.039  0.2157 -0.0662  0.0657
34984W        W35848  23.024   4.124  17.200 -0.1026  0.0110 -0.1351
34985W        W35849  11.871   0.835  25.123  0.0280 -0.0925  0.3263
34986W        W35850   2.038  17.196  22.237  0.3113  0.1264 -0.0574
34987W        W35851  26.115  12.833   4.275 -0.1707 -0.0678  0.1324
34988W        W35852  26.093  21.671   4.870 -0.0172  0.0447  0.0820
34989W        W35853  14.726  28.375  25.741 -0.0478 -0.1834 -0.1664
34990W        W35854  19.419  26.552  15.851 -0.0141 -0.5285 -0.4164
34991W        W35855   8.263  16.127  10.414  0.0308 -0.0806  0.2733
34992W        W35856  12.415  10.447  28.102  0.1800  0.2188 -0.2855
34993W        W35857   5.407   6.428   2.804 -0.0562 -0.0283  0.0011
34994W        W35858   4.726  26.847  26.745 -0.1979 -0.0804  0.0312
34995W        W35859  14.393   6.073  23.747  0.2726 -0.0513 -0.1034
34996W        W35860  13.769  11.192  24.646  0.0209 -0.1795 -0.4214
34997W        W35861  10.726   7.105   2.364  0.2585 -0.0584  0.0428
34998W        W35862  21.318  15.467  23.212 -0.0043  0.4062  0.1589
34999W        W35863  25.313  14.836  24.210  0.1440 -0.2526 -0.2562
35000W        W35864   9.594  28.321  18.120  0.2573  0.0628 -0.2570
35001W        W35865   0.510  10.233   8.013 -0.1527  0.0150 -0.2111
35002W        W35866   5.721   3.272  26.854 -0.1462  0.3441  0.0971
35003W        W35867   9.551  17.355   6.571 -0.5352  0.1695 -0.0115
35004W        W35868  23.137   4.255  18.797  0.0360  0.2073 -0.2858
35005W        W35869  22.245  16.379  14.473  0.2156  0.0135 -0.0923
35006W        W35870  23.815  24.265   3.688 -0.0189 -0.1669 -0.1754
35007W        W35871   9.107  19.331  21.240  0.1026  0.3148 -0.1094
35008W        W35872   0.716  16.339   0.379 -0.1677  0.0213 -0.0098
35009W        W35873  27.103  28.058  18.075 -0.1170 -0.0763 -0.1563
35010W        W35874  20.224  20.491  13.879  0.0838 -0.0344 -0.1828
35011W        W35875  23.533  25.613  12.002 -0.0290 -0.0867  0.1868
35012W        W35876  10.976   7.122  17.077  0.2137  0.1069 -0.2549
35013W        W35877  15.673  10.266   8.858  0.2092 -0.1678 -0.1807
35014W        W35878  23.908   0.721   5.160 -0.0896  0.0742  0.2000
35015W        W35879  19.659  16.236  22.494 -0.0338 -0.3378 -0.1326
35016W        W35880  23.416  20.742  15.129 -0.2487 -0.0020  0.0970
35017W        W35881   1.161  27.211  23.174 -0.0979 -0.1649 -0.1385
35018W        W35882  14.262  25.531  25.028 -0.2290 -0.1347 -0.2166
35019W        W35883  16.634   8.725  26.202  0.1102 -0.1199 -0.0960
35020W        W35884  12.311   5.039   6.552 -0.0068  0.0665  0.1755
35021W        W35885  14.110  24.572   2.367 -0.0235  0.1307  0.0884
35022W        W35886  24.271  13.338   0.203  0.2266  0.1389  0.0720
35023W        W35887  17.100  17.903  12.450 -0.2110 -0.0972 -0.0813
35024W        W35888  11.665   3.530   8.745 -0.0017 -0.1378  0.1347
35025W        W35889  28.989   4.769  22.910 -0.0387  0.2127 -0.1557
35026W        W35890  27.877   5.600   4.577 -0.0327 -0.0221 -0.1815
35027W        W35891   0.117   3.970  27.297 -0.0513  0.0627  0.3420
35028W        W35892  17.721   2.039  20.234 -0.1578  0.3370 -0.1689
35029W        W35893  19.941   2.199   5.742  0.0541 -0.0432  0.0654
35030W        W35894  18.816  23.164   2.226 -0.2426  0.2530 -0.3305
35031W        W35895  25.911  19.329   1.053 -0.0228 -0.0487 -0.3761
35032W        W35896   4.786  21.193  28.111  0.2337  0.1453 -0.1730
35033W        W35897  23.876  12.674  19.043  0.2182  0.0929  0.1487
35034W        W35898   5.829   5.064   7.114  0.1010  0.4123 -0.0030
35035W        W35899  20.307   4.477  28.925  0.0353 -0.2326 -0.1628
35036W        W35900  24.684  15.819  26.015  0.2687 -0.2436 -0.1865
35037W        W35901   2.676  18.524   8.636 -0.2505  0.0497  0.2875
35038W        W35902   4.266  12.969  24.515  0.0658 -0.2181 -0.0957
35039W        W35903  22.235   6.506  22.954 -0.1461  0.0633  0.1825
35040W        W35904   9.406   8.838  22.934  0.1621  0.0004 -0.2565
35041W        W35905  12.275   4.509   2.138 -0.1785 -0.0335  0.1164
35042W        W35906  28.235  28.762   0.308 -0.1531  0.1226 -0.2492
35043W        W35907  17.193  16.702  26.741  0.1592 -0.0958  0.3025
35044W        W35908   1.440  21.892  17.149 -0.3232 -0.0040  0.2404
35045W        W35909  13.351  18.310  12.654  0.3851 -0.0961  0.0595
35046W        W35910  22.221  11.042   8.171  0.0704  0.0505  0.0595
35047W        W35911   4.022  26.806   2.557  0.1750 -0.0744  0.1304
35048W        W35912  10.027  21.287  27.178 -0.0205  0.0558 -0.0617
35049W        W35913  28.127  14.193   2.538  0.2279  0.2306  0.0996
35050W        W35914   6.350   7.794  26.646 -0.1254 -0.2138  0.0375
35051W        W35915   3.999  12.449  19.815  0.4680  0.3205 -0.0283
35052W        W35916   2.034  11.905   0.880 -0.1253  0.0271  0.0334
35053W        W35917  16.157  19.181   5.568 -0.1903 -0.0046  0.2737
35054W        W35918  23.601  25.513  15.187  0.0905  0.0278 -0.0635
35055W        W35919  25.134   4.142  23.713 -0.2284  0.1222  0.1786
35056W        W35920   1.468  15.400  22.015  0.0909  0.1712  0.1755
35057W        W35921   6.711  12.817   7.146 -0.3158 -0.1042  0.0600
35058W        W35922  28.392   6.646   7.674  0.1325 -0.0721 -0.2252
35059W        W35923   5.772  17.195   0.891  0.2259 -0.1100 -0.0926
35060W        W35924  19.036  16.444   1.005  0.1854  0.0566 -0.0740
35061W        W35925  21.110  10.403  13.086 -0.2923  0.0847  0.1480
35062W        W35926  22.641   0.044  23.093 -0.2991  0.0400 -0.0425
35063W        W35927  13.002  11.365  19.861 -0.0668  0.1015 -0.0223
35064W        W35928   9.387  13.771  24.178 -0.0114  0.2537 -0.1508
35065W        W35929  13.278  10.904  13.683  0.3032 -0.1408  0.1032
35066W        W35930  10.028  15.211   5.854 -0.0729  0.0472 -0.0680
35067W        W35931  23.593  22.535  24.359  0.2530  0.1666  0.3068
35068W        W35932   8.282  13.082  12.880 -0.4493  0.0083  0.3446
35069W        W35933  20.075  27.055  25.997  0.0872 -0.3113 -0.1112
35070W        W35934  21.665   9.025   6.107 -0.1026 -0.0840 -0.1099
35071W        W35935  18.930   7.187  25.789 -0.1412  0.0852 -0.1754
35072W        W35936   9.666   0.829  23.761  0.0313 -0.0057  0.1255
35073W        W35937  28.952   4.632  15.431  0.3570 -0.2988  0.0485
35074W        W35938  14.053   1.111  24.486 -0.1395 -0.0016 -0.1317
35075W        W35939  11.766   1.212  24.004  0.0360  0.0591  0.2365
35076W        W35940  19.468  16.560   0.308  0.1806 -0.2661  0.2097
35077W        W35941   4.106   7.973   6.721 -0.1466  0.2252 -0.0137
35078W        W35942  23.368  16.354  14.947  0.1404  0.1021 -0.1383
35079W        W35943  27.379  11.602  16.253  0.0302  0.0215 -0.3196
35080W        W35944  12.085  13.515   6.453 -0.0973  0.0467 -0.2886
35081W        W35945   2.606  13.399   9.609  0.0386 -0.0895 -0.0143
35082W        W35946  22.177  18.848   9.706  0.0664  0.1161  0.1314
35083W        W35947   5.590  21.033  26.035 -0.2783  0.1566  0.1987
35084W        W35948   6.542  12.980  16.277 -0.1416  0.2090  0.1406
35085W        W35949   6.163  23.764  27.919  0.3515 -0.1957  0.0437
35086W        W35950  27.349   7.745   6.389 -0.1179  0.0077 -0.2610
35087W        W35951  17.733  19.566  20.124  0.0227 -0.0490 -0.2281
35088W        W35952  14.176  13.781  13.048  0.0310  0.0826  0.4223
35089W        W35953  10.707  23.749  28.607 -0.0405 -0.0568  0.4380
35090W        W35954   3.847   4.681  19.764 -0.3206 -0.0636 -0.0259
35091W        W35955  19.406   4.020  26.659  0.2983 -0.0436  0.0152
35092W        W35956   4.242  27.526   1.121 -0.0849 -0.2746 -0.1199
35093W        W35957   6.647  12.412  19.181 -0.0210 -0.0605 -0.3718
35094W        W35958   0.423  10.270   6.778 -0.2279  0.0228 -0.1807
35095W        W35959  11.178  17.428  25.724 -0.2031 -0.1574  0.3665
35096W        W35960  23.770  10.093  19.389 -0.1941 -0.2490 -0.1040
35097W        W35961   3.384  26.343  18.330  0.1227  0.0086 -0.2056
35098W        W35962  23.807  11.219  19.554  0.0396  0.0139  0.3465
35099W        W35963   4.997   0.626  11.640 -0.3069 -0.0542 -0.0655
35100W        W35964   1.835  14.219  15.398 -0.1970  0.0003  0.2611
35101W        W35965   9.682   2.559  18.419 -0.4706  0.1118 -0.1315
35102W        W35966  28.223  23.341   4.909 -0.0058 -0.2594 -0.1381
35103W        W35967  27.625   3.231   3.374  0.1941  0.1822  0.2226
35104W        W35968  13.041   1.162  11.062 -0.2174 -0.1623 -0.0390
35105W        W35969   8.090  24.525  18.839 -0.2270  0.1585  0.0608
35106W        W35970   8.037  13.156  21.043 -0.1808  0.1446 -0.1315
35107W        W35971   7.359  26.818  17.132 -0.1720  0.1892  0.1742
35108W        W35972  16.582   8.529  24.702  0.0590  0.3756  0.3187
35109W        W35973  27.714  23.766  18.389 -0.0059  0.1560 -0.2201
35110W        W35974  17.750  17.905   4.309  0.2437 -0.3079  0.2046
35111W        W35975   8.761   5.769  23.075 -0.1289 -0.0809 -0.1192
35112W        W35976   2.120  28.794   7.932 -0.1731 -0.0904  0.0224
35113W        W35977  18.086   4.102  28.163  0.0862  0.1852 -0.2793
35114W        W35978  19.419  21.030  19.350 -0.0899  0.2969  0.0171
35115W        W35979  26.593   6.065  21.798  0.0870  0.3422  0.0260
35116W        W35980   1.842   4.038   4.307 -0.1143 -0.1728  0.2687
35117W        W35981  22.725   8.413  24.478  0.0430  0.2786  0.0290
35118W        W35982  11.024   8.918   6.697  0.1181 -0.1821 -0.0673
35119W        W35983   5.028  18.668  19.173 -0.0665  0.0892 -0.1586
35120W        W35984  12.874  23.975  17.462  0.2440 -0.2146  0.0869
35121W        W35985  15.508  19.434   6.204  0.0524  0.0920 -0.0029
35122W        W35986  16.033   4.862  10.146  0.0402  0.2479  0.2032
35123W        W35987   1.934  23.399   9.088 -0.1739  0.0205 -0.0698
35124W        W35988  28.381   8.806   7.266  0.0721  0.1488  0.3412
35125W        W35989   1.329  27.482   6.091 -0.0649  0.3033  0.2425
35126W        W35990  23.310  12.989  23.777  0.1973 -0.1453 -0.3772
35127W        W35991  14.266  13.172  20.631  0.0030  0.1545 -0.3169
35128W        W35992  14.996   2.138  28.713 -0.0593  0.0912  0.1727
35129W        W35993   0.291  25.495  22.767  0.2862 -0.1400  0.1484
35130W        W35994   6.087   7.971   4.750  0.0708  0.2296  0.2056
35131W        W35995  13.281  21.568   0.264 -0.1843 -0.1909 -0.0659
35132W        W35996   3.891   2.264   2.148  0.1317  0.2845  0.3385
35133W        W35997  15.452   2.255  25.106  0.0560  0.0663 -0.0858
35134W        W35998   1.329  12.265  26.447  0.0518 -0.2779 -0.0074
35135W        W35999   2.994   3.517  25.043  0.0716 -0.4499 -0.0716
35136W        W36000  12.903   3.019  14.152 -0.0118  0.2330  0.1213
35137W        W36001   1.710   9.316  23.191 -0.1032  0.0871  0.1375
35138W        W36002  23.085  15.537   7.561  0.0101  0.1251 -0.0787
35139W        W36003   7.342  14.186   5.271  0.2185 -0.0204  0.2169
35140W        W36004  21.329  18.003   0.831 -0.0170  0.2278  0.4777
35141W        W36005  23.492  21.265  15.059  0.0087 -0.3609 -0.1746
35142W        W36006   3.493  27.143   1.706  0.1944  0.0639  0.1357
35143W        W36007  15.055  17.501   4.047 -0.0777 -0.0903  0.0951
35144W        W36008   1.874  11.517  27.788  0.1586 -0.1684  0.1212
35145W        W36009   0.407  16.639   0.633  0.1202 -0.2436 -0.1459
35146W        W36010   9.527   2.259  28.239  0.2924 -0.1760 -0.1124
35147W        W36011  27.983  26.066  19.181  0.0507 -0.1437 -0.1104
35148W        W36012  21.415   6.511  24.999 -0.0895 -0.0185 -0.0392
35149W        W36013   9.672   5.989  21.472  0.1710 -0.1332 -0.1354
35150W        W36014   7.402  12.694  25.068  0.0105 -0.2983  0.0773
35151W        W36015  15.230  18.226  26.334 -0.0976 -0.1661 -0.0349
35152W        W36016  22.168  25.769  25.812 -0.2744  0.1526 -0.1578
35153W        W36017   1.034   9.428  21.426 -0.1337 -0.2382  0.2867
35154W        W36018   0.508  16.837   1.776  0.0153 -0.0085 -0.0069
35155W        W36019  24.152   1.817   6.186  0.2991 -0.4259 -0.0892
35156W        W36020  14.062  10.445  27.948  0.0620  0.1552 -0.0803
35157W        W36021  26.552   4.813  13.944  0.1417 -0.1317 -0.2266
35158W        W36022  23.124  21.243   1.133 -0.2044  0.3286 -0.0960
35159W        W36023  27.359  12.399   2.503 -0.4355  0.0851  0.0455
35160W        W36024   0.047   3.571   3.849 -0.1448  0.0242  0.0779
35161W        W36025  28.585  27.952  11.631 -0.4646 -0.2349 -0.4754
35162W        W36026   8.618  13.372   0.855 -0.1306 -0.0770 -0.0956
35163W        W36027  25.782  13.561  23.418 -0.2861 -0.0732  0.1005
35164W        W36028  22.268   2.491  12.542 -0.0353 -0.1705  0.1050
35165W        W36029   4.217   5.608  23.550 -0.1162 -0.2188  0.3819
35166W        W36030  29.091  13.571  22.439  0.1005 -0.2094 -0.2152
35167W        W36031   8.938  18.340   2.828  0.0339  0.1499 -0.1445
35168W        W36032  10.140  17.490  24.361 -0.2815  0.0239  0.1153
35169W        W36033   9.270   8.460   0.433  0.2143  0.1979 -0.0536
35170W        W36034  26.715  10.545   6.391 -0.2881 -0.0690  0.0195
35171W        W36035  18.819   4.705   6.704  0.2766  0.1963 -0.0329
35172W        W36036   1.708  11.481   2.882 -0.0153 -0.0144  0.1979
35173W        W36037  12.461  21.301  17.048 -0.1002  0.0738  0.1932
35174W        W36038   7.138  12.158   2.829  0.1215 -0.1237 -0.2179
35175W        W36039   1.189  23.436  17.972 -0.1309  0.0558 -0.1391
35176W        W36040  13.578   3.191   7.465  0.2775  0.1571 -0.0277
35177W        W36041   5.869  23.262   6.678  0.1831  0.1907 -0.3038
35178W        W36042  10.427   7.196  21.180  0.1125 -0.1123  0.0985
35179W        W36043  22.141  27.382  17.279  0.0563 -0.1399  0.1011
35180W        W36044  14.998   9.037   2.022  0.2769 -0.0090  0.0580
35181W        W36045  17.009  12.893  13.829  0.1221  0.1334 -0.2099
35182W        W36046  22.768   9.445  13.879  0.2387  0.0110  0.0166
35183W        W36047  19.759   0.131  11.131  0.2183  0.0039  0.0310
35184W        W36048   9.173  14.146  19.829  0.3135  0.0646  0.2716
35185W        W36049   6.101  10.130  19.797  0.1680 -0.0194  0.0923
35186W        W36050  20.663   8.034  19.202 -0.0998  0.5196  0.0270
35187W        W36051  11.340  13.649   5.229 -0.1793  0.0130  0.0691
35188W        W36052  15.903   4.769   5.548  0.1481 -0.0975 -0.0988
35189W        W36053  10.137   5.443  17.111  0.0745 -0.0124 -0.1431
35190W        W36054   3.844  19.316  16.364  0.1519  0.0814 -0.1196
35191W        W36055   7.551  25.666  20.310 -0.1403  0.1349 -0.0246
35192W        W36056  21.793  16.720  25.977 -0.2642 -0.0303  0.0442
35193W        W36057  18.176   5.828   3.682  0.0910  0.0478 -0.1844
35194W        W36058  10.154   0.317  18.312  0.0377  0.0506 -0.1964
35195W        W36059  10.556   5.145  22.080  0.0229 -0.1129  0.3482
35196W        W36060  28.554  18.530  16.254  0.1259  0.1964 -0.1000
35197W        W36061   8.218   8.898  10.325  0.0446 -0.1477 -0.0662
35198W        W36062   6.895   1.256  12.316  0.2498 -0.1102 -0.0988
35199W        W36063  19.480   3.794   8.598  0.3234 -0.1063 -0.0705
35200W        W36064   3.230  11.939   2.368  0.0444 -0.0307 -0.0577
35201W        W36065  12.478  28.383   4.292  0.2193 -0.0631  0.2113
35202W        W36066   6.556  26.616  19.800  0.1826 -0.1371 -0.1123
35203W        W36067   9.490   7.582  12.701  0.0595 -0.0395 -0.2807
35204W        W36068  22.051   1.576  26.292 -0.0428 -0.0591 -0.3271
35205W        W36069  25.011  28.788  23.782  0.1670  0.1418 -0.0244
35206W        W36070  10.689   7.605   8.886 -0.1892  0.1506 -0.1655
35207W        W36071   1.449  28.393  12.983  0.2983  0.1178 -0.0332
35208W        W36072  15.031  14.517   2.028 -0.2811  0.0212  0.2791
35209W        W36073  19.124  16.736  15.611 -0.1191  0.2180 -0.1295
35210W        W36074  18.685  27.759  19.676 -0.1413  0.3587  0.2496
35211W        W36075   3.178  22.617   1.396 -0.1354 -0.1727  0.2438
35212W        W36076   1.426   3.686  17.253 -0.0267 -0.0618 -0.2165
35213W        W36077   0.393  28.666   4.927  0.3178  0.0102  0.1173
35214W        W36078   2.101  24.125  19.345 -0.0437 -0.1885 -0.0745
35215W        W36079  19.156  11.037   9.805  0.1040  0.1762  0.0250
35216W        W36080   4.428   3.710   4.684 -0.2685 -0.1319  0.1043
35217W        W36081  19.431  14.100   3.501  0.0104  0.0771  0.1178
35218W        W36082   0.915  24.594  20.571  0.0777 -0.0066 -0.1388
35219W        W36083   4.897  10.369  26.180 -0.1105  0.2734  0.1932
35220W        W36084   6.311  23.700   0.120  0.1506 -0.1487 -0.0174
35221W        W36085   6.547  18.699   6.592 -0.4374  0.2011  0.0900
35222W        W36086   2.891  12.247  17.439  0.2359 -0.1898 -0.2212
35223W        W36087  23.284   0.752   9.676 -0.2546  0.3433  0.3124
35224W        W36088  14.516  13.544  22.205  0.1930 -0.2637  0.3739
35225W        W36089  10.120  11.373   2.957 -0.0541  0.1502 -0.0432
35226W        W36090  24.222   3.103  24.276 -0.1894 -0.1296 -0.1368
35227W        W36091  17.353  14.098  23.524  0.0093 -0.0546 -0.0361
35228W        W36092  28.896   9.395  27.023 -0.0349 -0.1815 -0.2990
35229W        W36093   7.802   3.680   1.243 -0.0523  0.0190  0.2865
35230W        W36094   5.375  12.886   3.702  0.0624 -0.0626 -0.0890
35231W        W36095  20.421  21.471  12.045  0.0090  0.1395 -0.1891
35232W        W36096  14.573  25.946   7.885 -0.0267  0.0516 -0.5921
35233W        W36097  28.230  11.444  12.704  0.0256  0.0293 -0.0023
35234W        W36098  10.418   6.265  16.904  0.0548 -0.4249  0.2203
35235W        W36099  26.838   9.373   0.305 -0.1353  0.0870  0.3497
35236W        W36100  10.714   4.706  25.158  0.1564  0.0236  0.1353
35237W        W36101   2.418  15.084  27.883 -0.0520 -0.1161  0.0295
35238W        W36102  27.082  14.483  25.102 -0.1659 -0.6073  0.1695
35239W        W36103  27.721  11.241   6.529  0.2279 -0.2150  0.0037
35240W        W36104  23.627  23.835   2.638 -0.4237 -0.1282  0.0618
35241W        W36105  11.179  11.488  11.744 -0.0337  0.1486 -0.1682
35242W        W36106   2.238   7.308   3.218  0.1860 -0.4668  0.4168
35243W        W36107   0.281  26.376  14.795  0.0323  0.1168  0.1178
35244W        W36108  26.314  26.180  28.082 -0.0565 -0.0816 -0.2851
35245W        W36109  26.247   0.051  10.735  0.0407  0.1095 -0.0091
35246W        W36110  10.876   1.063  28.507 -0.0075 -0.2359  0.0506
35247W        W36111  20.489  28.202  21.018  0.2140  0.1276  0.2557
35248W        W36112   4.191  19.496   3.316 -0.1287  0.1432  0.1784
35249W        W36113   3.444   0.943  20.526  0.3737 -0.0144  0.1356
35250W        W36114   6.984   2.865  16.959  0.0534  0.1762 -0.0578
35251W        W36115   4.336  14.383  28.971  0.1510  0.0839  0.2635
35252W        W36116  27.579  10.335   2.256  0.1057 -0.2059 -0.1578
35253W        W36117   0.351  20.583  22.527 -0.0920 -0.1282  0.0493
35254W        W36118   1.222  16.439  14.683 -0.2822 -0.0322 -0.0312
35255W        W36119  13.572   8.087  24.736  0.1146 -0.2626  0.2450
35256W        W36120   5.593  24.974   6.507  0.1471 -0.2028 -0.1764
35257W        W36121  11.996   3.962  26.259  0.0825  0.0969  0.0160
35258W        W36122   9.969  23.204  21.495 -0.0590 -0.0667  0.0057
35259W        W36123  21.692  13.562  17.800 -0.1671 -0.3208  0.0698
35260W        W36124  26.301  13.529   5.465 -0.0455  0.2939  0.2411
35261W        W36125   1.618  16.774  24.053  0.2876  0.2572 -0.1720
35262W        W36126  13.067   2.457  23.719  0.3176  0.0041 -0.0890
35263W        W36127  28.815  28.223  27.084  0.0657 -0.2031 -0.2142
35264W        W36128   1.969  25.453  16.898  0.1701  0.0938 -0.1348
35265W        W36129  17.234   3.239  22.354 -0.1643  0.1717  0.2309
35266W        W36130   1.560  13.512   1.337  0.0713 -0.0350 -0.0518
35267W        W36131  17.110  16.766  22.217  0.1395 -0.1254 -0.1363
35268W        W36132  21.724   2.032   5.437 -0.0883  0.2686 -0.1182
35269W        W36133   3.088   2.310  25.498  0.0930 -0.0925 -0.3350
35270W        W36134  24.229  19.296  27.105  0.0629 -0.1424 -0.1410
35271W        W36135  27.066  10.681   2.547  0.1066  0.2765 -0.1876
35272W        W36136   2.951   2.600  25.109  0.2560 -0.1400 -0.0986
35273W        W36137  24.910   8.279   1.440 -0.0987  0.1164  0.0979
35274W        W36138   7.658  24.927   9.896 -0.1577 -0.1529 -0.2370
35275W        W36139   6.806  13.287   1.974 -0.0279  0.0252  0.2725
35276W        W36140  23.324  22.109  13.199  0.1009 -0.1360  0.5001
35277W        W36141  29.044   9.435  11.212 -0.1999 -0.1168  0.0066
35278W        W36142   5.407   8.498  22.449 -0.3192 -0.0817  0.1012
35279W        W36143  25.538   7.704   5.616  0.1475 -0.1528 -0.1828
35280W        W36144  18.346  27.347  27.200  0.0834  0.0709  0.0495
35281W        W36145  12.829   9.229  21.096  0.1425  0.1015  0.2299
35282W        W36146   9.903  26.447  14.669 -0.1754 -0.1488 -0.3427
35283W        W36147  27.387   2.428   8.471  0.1005 -0.4214  0.1743
35284W        W36148   3.337  20.502   3.542  0.2026  0.1451  0.1097
35285W        W36149  22.610   8.469  21.702  0.3370  0.0724  0.0850
35286W        W36150  11.608   3.324  22.288  0.0190  0.1446 -0.0653
35287W        W36151  10.222   2.121   5.370 -0.2309 -0.3974 -0.1256
35288W        W36152   1.670  26.435  21.155  0.0569 -0.0473  0.0542
35289W        W36153   2.651  27.863  12.741  0.0843  0.0295 -0.1200
35290W        W36154  10.860  17.434  21.783 -0.1170  0.0456  0.1495
35291W        W36155  28.203   5.022  15.024  0.3309  0.1211  0.2092
35292W        W36156  10.179  20.027  13.998 -0.1918 -0.2713 -0.1083
35293W        W36157   2.031   6.508  22.446  0.0926 -0.0305  0.1839
35294W        W36158  26.272  16.119  21.541 -0.3047  0.0206 -0.1877
35295W        W36159   6.100   4.670  23.682 -0.0516  0.1378  0.1259
35296W        W36160  10.657  21.243  10.292 -0.0259  0.3419 -0.3190
35297W        W36161  25.914  16.583  28.000  0.0144 -0.1006  0.0058
35298W        W36162  20.911  11.476  16.854 -0.0400 -0.1068 -0.3478
35299W        W36163   2.310  11.878  12.037 -0.0197 -0.1913  0.0926
35300W        W36164   1.368   2.133  21.765 -0.2064 -0.0640  0.2529
35301W        W36165  28.368  16.221   4.386  0.1177 -0.2091  0.1862
35302W        W36166   8.647   0.962  26.115  0.2068  0.3124 -0.0842
35303W        W36167   1.420  11.276  14.243  0.2524  0.2378  0.0035
35304W        W36168  19.583  19.328  12.098 -0.1589  0.2975  0.2364
35305W        W36169   8.444   3.584   0.634 -0.1640  0.1307 -0.1204
35306W        W36170  12.136  10.554  28.529 -0.0915  0.0396 -0.1153
35307W        W36171   4.456  12.180  22.006 -0.1331  0.1352 -0.0995
35308W        W36172  10.034  24.408   0.716  0.1247 -0.1026 -0.0134
35309W        W36173  16.074  15.412  21.157 -0.1525  0.2060  0.2210
35310W        W36174  19.561   8.721  27.326  0.1077 -0.3581 -0.0085
35311W        W36175   5.021  28.676  20.261  0.1249 -0.1962  0.1681
35312W        W36176  20.693  22.801  11.268 -0.1675  0.0386 -0.0338
35313W        W36177  23.555  26.436  21.781 -0.1145  0.4757  0.0731
35314W        W36178   1.294  26.822  19.178  0.0120  0.1899  0.0148
35315W        W36179  23.436  14.434  23.989  0.3155  0.1781  0.0372
35316W        W36180  10.049  18.308  25.136  0.2440  0.1711  0.0561
35317W        W36181   9.481  10.998   5.494 -0.1091  0.0189 -0.1295
35318W        W36182  26.159   9.601  17.814 -0.0164 -0.1752  0.0152
35319W        W36183   6.691   9.057   2.917  0.0150 -0.0058 -0.1792
35320W        W36184  27.972  11.064  24.667  0.3113 -0.1525 -0.1467
35321W        W36185   7.419   7.750  24.262 -0.0675 -0.1241  0.2838
35322W        W36186  18.486   5.990  20.903  0.0127 -0.2301 -0.0256
35323W        W36187  17.228  16.209  16.596  0.0222  0.2132 -0.0056
35324W        W36188  20.968  10.481  14.880 -0.5320  0.1317 -0.2259
35325W        W36189   2.095  12.476  11.876  0.0510 -0.0480  0.1128
35326W        W36190  12.383   1.382  19.316  0.0006 -0.0949 -0.2057
35327W        W36191   9.105   8.779  23.551 -0.0481 -0.0951 -0.0047
35328W        W36192   0.010   6.092  20.622 -0.3062  0.1429  0.0333
35329W        W36193   1.198  22.794  16.214  0.0006  0.0789  0.0347
35330W        W36194   1.152  11.111  22.224  0.2488 -0.0656 -0.1974
35331W        W36195  16.975  10.239   0.411  0.1535 -0.0982 -0.1477
35332W        W36196   1.068   0.977  26.742 -0.1221 -0.1893 -0.0081
35333W        W36197   6.829   2.299  10.452 -0.2863  0.1367 -0.0707
35334W        W36198  23.259  18.801   9.787 -0.0719  0.2241  0.0983
35335W        W36199  11.771   4.030  21.760  0.2406 -0.0927  0.5019
35336W        W36200  23.823  28.126   3.053 -0.0864  0.0832 -0.0290
35337W        W36201  10.586   7.322  17.227 -0.0088 -0.3914  0.1207
35338W        W36202   8.287   9.144  14.337 -0.0276 -0.0858 -0.2476
35339W        W36203  27.038  10.155  15.833  0.1334  0.1860  0.1759
35340W        W36204   1.402   3.846   3.678 -0.0873 -0.1025  0.0731
35341W        W36205  12.292   4.144  10.561  0.0179 -0.1030  0.2069
35342W        W36206   0.513  18.129  19.910 -0.0775 -0.1528 -0.0624
35343W        W36207   3.811  13.938  15.993  0.0796  0.1826  0.0565
35344W        W36208  26.315  13.150  24.202 -0.3016  0.0201  0.0402
35345W        W36209  11.129  13.659   4.795  0.1788 -0.2778  0.2401
35346W        W36210   5.884  15.134  16.817  0.4643 -0.3342  0.2164
35347W        W36211  11.058  27.773  15.655  0.2874 -0.0640 -0.1900
35348W        W36212  20.501   7.343  20.551 -0.2643 -0.0488 -0.1478
35349W        W36213  21.360  14.152  10.516 -0.0360 -0.0523 -0.1632
35350W        W36214  28.713  24.100  26.140  0.2761 -0.0486  0.0280
35351W        W36215  19.241  12.594   7.910 -0.0342  0.1581  0.1313
35352W        W36216  24.607  10.720  24.176  0.0831  0.0510  0.0863
35353W        W36217   0.768  14.086  10.528  0.2225  0.0323  0.0512
35354W        W36218   5.686  27.695  13.478  0.1305  0.1773  0.2880
35355W        W36219   3.431  14.216  20.903  0.2174  0.0422 -0.0079
35356W        W36220  12.760   8.374   2.985 -0.0030 -0.1971 -0.3452
35357W        W36221   0.405  18.903  20.147  0.0261 -0.1667 -0.1219
35358W        W36222   2.116   3.649  12.923  0.3514  0.1045 -0.3204
35359W        W36223  28.629  14.507  12.586 -0.3651  0.1002  0.0736
35360W        W36224   8.682  20.952  27.483 -0.0701 -0.0415 -0.2066
35361W        W36225   8.617   3.159  28.258  0.1468  0.4157  0.3222
35362W        W36226  10.834  27.117   1.475 -0.3294  0.0975 -0.3074
35363W        W36227   2.542  17.869  23.717 -0.1021  0.0177  0.2168
35364W        W36228  15.406  24.199  15.120  0.1628 -0.0630  0.0690
35365W        W36229   7.490   7.840  17.856  0.1097  0.3544 -0.0084
35366W        W36230  23.186  23.523  16.562 -0.2672 -0.4188  0.2028
35367W        W36231   1.958  26.281  22.609  0.0137 -0.4240  0.1868
35368W        W36232  12.830   6.014   9.073  0.2749  0.2881 -0.1872
35369W        W36233  13.365   8.075   4.501  0.0874  0.0840 -0.1559
35370W        W36234  26.331   8.135  17.540 -0.1729  0.0694  0.2825
35371W        W36235   9.289  14.946  25.607 -0.1222  0.0489 -0.0122
35372W        W36236  27.012  13.316  22.814 -0.0894 -0.2988  0.1717
35373W        W36237   0.530   4.222  27.822  0.0448 -0.2970 -0.1212
35374W        W36238   4.792   5.981   3.264 -0.1125 -0.1841 -0.0424
35375W        W36239   2.122   3.206  20.680  0.0422  0.1179  0.2137
35376W        W36240   3.496  20.859  15.770 -0.1108  0.0951 -0.2550
35377W        W36241   8.487  12.965  13.872 -0.0109 -0.0479  0.0941
35378W        W36242   9.698   7.815  18.252  0.0064 -0.2817 -0.1121
35379W        W36243   0.594  10.810  12.636  0.0904  0.0144 -0.0754
35380W        W36244  14.567   2.948  13.715  0.0346 -0.0639 -0.1185
35381W        W36245   3.858  25.804  21.008 -0.3006 -0.0778 -0.0599
35382W        W36246  17.752  24.454  11.901  0.2385  0.1251  0.2264
35383W        W36247  17.660  17.533  23.049  0.1637 -0.2974 -0.1196
35384W        W36248   6.223  14.056  23.502 -0.2315 -0.2504  0.0376
35385W        W36249   6.820  13.575  27.405 -0.4807 -0.0812  0.2421
35386W        W36250  20.040  11.905  27.272 -0.2677  0.0792  0.2955
35387W        W36251   3.588  19.652   2.269  0.3900  0.3709  0.1278
35388W        W36252   6.017  22.424  14.978  0.1738  0.1102 -0.1601
35389W        W36253  13.281  25.840   0.456  0.1297 -0.0623  0.0119
35390W        W36254  26.094   7.550   4.016  0.0083  0.0414  0.1697
35391W        W36255   2.125  18.019   1.810  0.1285  0.0123  0.2721
35392W        W36256   3.345   0.890  26.799  0.0823  0.2843  0.1955
35393W        W36257   6.191  15.774  20.887 -0.0159  0.0143  0.1034
35394W        W36258  26.518  13.223  19.291  0.1313  0.3718  0.0271
35395W        W36259  10.496  17.938  24.593 -0.1612 -0.2490 -0.0888
35396W        W36260   8.166   3.180  15.617  0.0226  0.0799 -0.3376
35397W        W36261   7.630  10.847  24.123 -0.0058  0.3592  0.0447
35398W        W36262  11.065  24.220   9.521 -0.1623  0.2007 -0.2242
35399W        W36263   4.794   8.727  23.485  0.0244  0.1412  0.0576
35400W        W36264   9.505  28.100   3.759  0.2901  0.0647 -0.2696
35401W        W36265  10.981  24.009  15.466  0.2031 -0.4322  0.1883
35402W        W36266  14.637  14.313   4.263  0.0247 -0.0183  0.0397
35403W        W36267   2.402  10.484   5.366  0.2438 -0.1358 -0.0182
35404W        W36268  12.540   9.492   3.560 -0.1114 -0.3623 -0.0127
35405W        W36269   1.378  17.600  16.028  0.1968 -0.1574  0.1041
35406W        W36270  24.925   6.929   7.269  0.2491  0.3987  0.0309
35407W        W36271  22.428  25.265   4.321 -0.1759 -0.0753 -0.0042
35408W        W36272   4.921  10.218   0.983 -0.2298  0.1573  0.1766
35409W        W36273  12.407  21.266   3.958 -0.2106 -0.0677 -0.2758
35410W        W36274  27.274  14.026  25.100  0.0512 -0.0148 -0.0050
35411W        W36275  24.854  24.766  28.493 -0.1256 -0.0175 -0.0747
35412W        W36276  23.059   8.368  25.968 -0.1779  0.0565 -0.3411
35413W        W36277  22.123   9.749  26.214  0.0358 -0.1537  0.1637
35414W        W36278  18.782  19.322  23.859  0.1400 -0.0562  0.0431
35415W        W36279   3.340  16.686  24.928 -0.0167 -0.3136 -0.0697
35416W        W36280   9.877   8.066   1.796 -0.0075  0.0786 -0.0665
35417W        W36281   9.544  20.496  11.126 -0.1116  0.2067 -0.1836
35418W        W36282  26.614   4.266  24.591  0.0631 -0.0129 -0.0532
35419W        W36283   4.470  14.561   7.930  0.5354  0.0576 -0.1362
35420W        W36284  27.094   3.397   0.336 -0.2549  0.1044 -0.1383
35421W        W36285   6.009  24.079  27.513 -0.1906  0.0613 -0.0598
35422W        W36286  27.565  27.476  14.206 -0.1667  0.0482  0.0454
35423W        W36287  18.378   0.526  19.924 -0.0445 -0.1054 -0.0248
35424W        W36288  26.126  10.110  28.627  0.0215 -0.0487  0.2322
35425W        W36289  26.181  27.872   7.011 -0.2579 -0.0708  0.0402
35426W        W36290  16.137  18.071  18.427 -0.1372  0.1334  0.2233
35427W        W36291  20.796  14.323   2.839 -0.0408 -0.3063 -0.1023
35428W        W36292  12.557   3.485  28.670  0.2692  0.0033 -0.3156
35429W        W36293   6.780   3.898  22.659  0.2190 -0.0228  0.3961
35430W        W36294  15.002   7.863  28.173 -0.1713  0.0066 -0.0479
35431W        W36295  21.540  24.540   7.420  0.1259 -0.1219 -0.0815
35432W        W36296   0.926  19.393  15.530 -0.0120  0.1424  0.1491
35433W        W36297   0.123  25.097   4.746  0.2828  0.2293 -0.1901
35434W        W36298  13.073  16.820   0.288  0.1056  0.0111  0.1971
35435W        W36299  14.602  15.099  25.533  0.1736  0.0029 -0.1516
35436W        W36300  14.591  26.689   8.092  0.3502 -0.1983 -0.3139
35437W        W36301   7.567   8.555   1.413 -0.1626  0.0646  0.0628
35438W        W36302   4.423  17.749  24.659  0.1269 -0.1737 -0.3633
35439W        W36303  20.768  13.807  13.314  0.0155  0.0359 -0.0707
35440W        W36304   0.012  22.706  24.296  0.2686 -0.2243 -0.2954
35441W        W36305  11.262   2.760  23.134  0.2969  0.2110 -0.2384
35442W        W36306  11.664  19.039  17.810 -0.3630  0.1949 -0.2290
35443W        W36307  17.196   9.440  19.222  0.0346  0.0942  0.0355
35444W        W36308  28.684   7.418  11.515  0.0418 -0.1148  0.0919
35445W        W36309   4.132   7.012  27.404 -0.1137  0.1050 -0.2387
35446W        W36310  28.137  27.606  10.641  0.1256 -0.1661  0.0774
35447W        W36311  28.862   8.842  14.325 -0.1128 -0.0870  0.1415
35448W        W36312   5.097  26.616   5.881  0.0604  0.3766  0.0908
35449W        W36313  10.413  10.154   1.643 -0.2640  0.2121 -0.0450
35450W        W36314  10.833  24.106  24.654  0.3459  0.0003 -0.0706
35451W        W36315  15.743  17.142   3.044  0.0490  0.0329 -0.0576
35452W        W36316  26.384  24.730   1.315  0.0663 -0.0092 -0.3297
35453W        W36317   0.668  15.398  15.296 -0.0619  0.1138  0.1741
35454W        W36318   1.715  29.136  19.664  0.2175  0.0210  0.0695
35455W        W36319  20.353   5.237   5.654 -0.0231 -0.0034 -0.2558
35456W        W36320   5.651   4.075   2.602 -0.1033 -0.0092 -0.2092
35457W        W36321   5.205  21.578  10.488  0.0055 -0.2150  0.2750
35458W        W36322  27.388  11.467   9.606 -0.0909 -0.1964 -0.1967
35459W        W36323  13.913  16.115  25.776 -0.0877  0.2373  0.1400
35460W        W36324  13.110  11.191   0.489  0.0578 -0.3449 -0.1291
35461W        W36325  18.858   6.208  12.492 -0.1271 -0.0197 -0.1249
35462W        W36326   9.060   2.288  28.485 -0.0828  0.1288 -0.2627
35463W        W36327  13.869  18.937   1.587  0.1631  0.0661 -0.0490
35464W        W36328  13.675  26.900  10.936 -0.0725 -0.1145  0.2195
35465W        W36329  11.106  12.314  16.919  0.3063  0.3542 -0.0296
35466W        W36330  14.811   2.590  20.299  0.0270 -0.0810  0.1693
35467W        W36331  16.653   6.252  17.736  0.0608  0.1117 -0.1106
35468W        W36332  27.535  20.739   3.303  0.2281 -0.0557 -0.0463
35469W        W36333  22.292   2.470  17.256 -0.1933  0.1068 -0.1296
35470W        W36334   6.794   6.831  28.230  0.0581 -0.0303  0.0243
35471W        W36335   1.408   8.905  22.456  0.1724  0.0118 -0.2051
35472W        W36336   9.002  28.798   1.161  0.0970 -0.1064  0.0800
35473W        W36337   2.748   1.699  20.783  0.2187  0.1118 -0.0097
35474W        W36338   3.641   7.136   1.037  0.1655  0.0726 -0.0206
35475W        W36339   9.179  10.444  25.487  0.1920  0.3922  0.1229
35476W        W36340  27.802   3.356  21.758 -0.0288  0.2007  0.1908
35477W        W36341  27.618  28.583  12.183 -0.1029 -0.0859 -0.1245
35478W        W36342  21.266  14.703  20.560  0.0809 -0.0267  0.4022
35479W        W36343  18.824  21.088  15.170 -0.0365  0.0149 -0.0240
35480W        W36344   7.619   0.299  20.553 -0.1859  0.1987  0.2737
35481W        W36345  16.385  25.632   6.276  0.4595  0.0682 -0.0967
35482W        W36346  21.153   6.835  18.159  0.0626  0.0233  0.0056
35483W        W36347   5.797  11.185  16.650  0.0746  0.1312  0.0564
35484W        W36348  27.977   3.293  24.223  0.0761  0.0533 -0.1334
35485W        W36349  24.124  19.621  20.421  0.1147 -0.1977  0.2221
35486W        W36350   5.734  28.709  13.096  0.0699 -0.0318  0.1145
35487W        W36351  22.315   3.521   3.131  0.1304 -0.1290 -0.0553
35488W        W36352   0.405   5.468   2.501 -0.3945  0.1375  0.1987
35489W        W36353  10.594  26.389  27.551 -0.1682  0.2185  0.2586
35490W        W36354  19.468   6.777   5.798 -0.1674 -0.3337 -0.2721
35491W        W36355   6.667  18.613   5.678 -0.0313  0.0513  0.1643
35492W        W36356   8.085  18.303  24.005 -0.3653 -0.0164  0.2756
35493W        W36357  24.802  26.714  11.765 -0.0851 -0.1359 -0.0431
35494W        W36358   8.016  13.545  26.880  0.1937 -0.0726 -0.2251
35495W        W36359  14.359   5.906  18.126  0.3143 -0.1549  0.2587
35496W        W36360  27.283  10.233   3.270  0.1934  0.3436 -0.2158
35497W        W36361   8.332  22.850  17.404  0.2184 -0.4165  0.1554
35498W        W36362  24.914  12.590   0.578 -0.2151 -0.0642  0.0965
35499W        W36363  12.869  12.139  28.209  0.0823  0.1454  0.0915
35500W        W36364   9.516  10.484   0.250  0.2579 -0.0101  0.1849
35501W        W36365  24.683  24.238  23.693  0.2927  0.1671 -0.1398
35502W        W36366  15.871  13.915  22.511  0.2728  0.1017 -0.2325
35503W        W36367  25.624  17.056  26.668  0.1657 -0.1039  0.0229
35504W        W36368   4.013   1.309   1.974 -0.2609  0.0907 -0.3489
35505W        W36369   7.481  17.510  26.714 -0.2488  0.2666 -0.2979
35506W        W36370   4.272   6.394  19.567  0.1976 -0.0099 -0.0743
35507W        W36371  13.501   4.438   4.121 -0.0918 -0.0811  0.1541
35508W        W36372   5.957  15.743  27.090  0.0480  0.1275 -0.3002
35509W        W36373   7.925  14.994   8.914 -0.0093 -0.0231 -0.1555
35510W        W36374  23.671  22.417   1.227 -0.0809  0.3306  0.1639
35511W        W36375   5.719   1.575  18.080  0.3091  0.0914 -0.0582
35512W        W36376  28.955  19.545  28.625  0.0520 -0.0660  0.3179
35513W        W36377   8.482   4.826  17.170 -0.1964  0.1474  0.1590
35514W        W36378  20.181  22.886   3.824 -0.0050 -0.0554 -0.0500
35515W        W36379   6.809   5.545  15.661  0.2609  0.0047  0.0439
35516W        W36380   8.363   9.294   8.308  0.0623 -0.0392 -0.1198
35517W        W36381  25.367  21.618  23.100 -0.0120  0.0901 -0.0123
35518W        W36382  25.365  17.771  28.438  0.0055  0.2789  0.2947
35519W        W36383  13.905   4.282  14.059 -0.3514  0.0274  0.2083
35520W        W36384  16.154  21.875   1.315  0.1616 -0.0668 -0.0695
35521W        W36385   4.110  20.167  13.993 -0.2855  0.0301  0.1219
35522W        W36386   0.483  22.167   9.680 -0.0618  0.0375 -0.1505
35523W        W36387  14.374  26.716   5.291  0.1386  0.0157  0.0388
35524W        W36388   5.029  16.607  12.709 -0.1526 -0.1913  0.0168
35525W        W36389  20.696  13.356   1.868  0.0959 -0.0133 -0.2566
35526W        W36390  23.442   2.321   4.221  0.3074  0.3434 -0.0739
35527W        W36391  10.159  11.885  14.216 -0.0210  0.0254  0.2746
35528W        W36392  23.506  10.206   3.487 -0.0575  0.3108  0.2333
35529W        W36393  15.884  18.720  28.799  0.2264  0.1159  0.0376
35530W        W36394  17.683  12.260  20.794 -0.0953  0.0965  0.0270
35531W        W36395   2.366   5.785  19.300 -0.0764  0.1136  0.1923
35532W        W36396   3.977  10.767  18.975  0.4090  0.0088 -0.0566
35533W        W36397   4.838   9.214  10.950 -0.2633  0.2531  0.3089
35534W        W36398  24.363   5.347  20.980 -0.1806 -0.1047  0.0364
35535W        W36399  28.219  11.279  25.712  0.0766 -0.2339 -0.2776
35536W        W36400  26.259  21.561   7.005 -0.0975  0.0485  0.1593
35537W        W36401   9.455   4.774  25.176 -0.0145  0.0744 -0.1713
35538W        W36402  18.410  13.237  10.966 -0.1176 -0.2032  0.1824
35539W        W36403  27.190  19.192   1.443 -0.0583  0.0247  0.1221
35540W        W36404  11.448  16.682   5.057  0.0603 -0.1817  0.2683
35541W        W36405   8.547   4.726   4.257 -0.0570  0.1997 -0.2330
35542W        W36406   2.780   8.737  27.163 -0.2161 -0.5855  0.0189
35543W        W36407  10.925   9.357  24.673  0.0375 -0.2033 -0.1386
35544W        W36408   8.730   2.283  12.757 -0.0751 -0.0828 -0.1837
35545W        W36409   6.059  10.091   5.476 -0.0560  0.1843  0.0114
35546W        W36410   6.778  27.366  16.457  0.2349  0.0404  0.0766
35547W        W36411   4.334  10.591   5.024 -0.0391  0.2766  0.0629
35548W        W36412  13.920   6.820  29.064 -0.2388  0.3428 -0.4035
35549W        W36413   3.129  10.361   6.015 -0.0693  0.1842  0.0920
35550W        W36414  28.678  15.937  21.303  0.3718  0.0154 -0.1072
35551W        W36415  24.240  15.524   5.066 -0.3347  0.3388  0.0516
35552W        W36416   8.516   0.781   0.952 -0.2326 -0.0011 -0.0789
35553W        W36417  23.379  13.913   8.190  0.1086 -0.1050  0.1072
35554W        W36418  26.701   8.283  23.444  0.1876 -0.1887  0.0592
35555W        W36419  19.327   3.664  25.160 -0.1015  0.3927  0.0922
35556W        W36420   0.747  17.165   4.156 -0.0268 -0.1692  0.4502
35557W        W36421   6.355  17.786  22.384 -0.1532 -0.2203  0.1755
35558W        W36422   4.897  28.278  21.893  0.2128  0.0315  0.0041
35559W        W36423  21.362  11.574  27.314 -0.1515  0.0425  0.0131
35560W        W36424  18.951  13.159   4.417  0.1039  0.1263 -0.0028
35561W        W36425  26.173  11.109  20.201 -0.1870  0.1556  0.2369
35562W        W36426  11.422   1.324  27.089 -0.1255  0.0220  0.1071
35563W        W36427  11.511  12.911   3.041 -0.0249  0.0481  0.1926
35564W        W36428  27.757   1.122  26.985 -0.0116 -0.0591  0.2132
35565W        W36429  13.716  17.664   1.426 -0.0034  0.4416 -0.0878
35566W        W36430  19.232   7.844  17.854  0.0761 -0.1913  0.0658
35567W        W36431   4.228  27.435  27.423  0.1045 -0.0381 -0.0985
35568W        W36432  26.327   0.850  16.564  0.0728  0.2187  0.2227
35569W        W36433   1.968  13.326   5.528 -0.1837  0.2154 -0.1740
35570W        W36434  17.760   9.920   6.546  0.2116 -0.0951  0.3141
35571W        W36435  16.026  10.283  25.542 -0.0063 -0.0917  0.2336
35572W        W36436   3.409   8.469   2.713  0.3924 -0.0242  0.3351
35573W        W36437  25.780  29.093   7.303 -0.1894 -0.0144 -0.2563
35574W        W36438  21.796  15.700  26.097  0.1369  0.2618  0.0184
35575W        W36439  20.770  22.364  27.208  0.2329 -0.1109 -0.0113
35576W        W36440   9.931   3.128   1.994 -0.3108  0.2130  0.1642
35577W        W36441   9.844  10.202  27.381 -0.0447  0.0417  0.0861
35578W        W36442   6.732  21.872   1.145  0.1246 -0.0783 -0.1422
35579W        W36443  28.881  19.920  11.606 -0.3160  0.1006 -0.2499
35580W        W36444   8.013  24.385  18.322  0.1515  0.0519  0.4030
35581W        W36445  18.520  17.304  16.648 -0.0965 -0.0670 -0.0468
35582W        W36446  20.565  10.616   3.525  0.0026 -0.0981 -0.1869
35583W        W36447   6.402  11.313  10.839 -0.0769 -0.1240 -0.2486
35584W        W36448   0.553  14.322   5.486 -0.1474 -0.1052  0.0209
35585W        W36449  11.973  23.562  15.339  0.0001 -0.1161 -0.3449
35586W        W36450   5.554  12.697   0.646  0.1534 -0.2300 -0.2522
35587W        W36451  15.758  21.785  10.739  0.2102  0.0863 -0.2376
35588W        W36452  25.458  11.670  23.692  0.1006 -0.0894  0.1026
35589W        W36453  10.045   5.928  20.726  0.0774  0.2778 -0.0032
35590W        W36454  13.043  10.816  26.624  0.1864  0.1019  0.3771
35591W        W36455   8.684  11.989  13.499 -0.1945  0.1872 -0.1995
35592W        W36456  18.431  24.749  27.608  0.2235 -0.0442  0.1620
35593W        W36457  12.524   0.223   0.698 -0.0981 -0.2616 -0.2358
35594W        W36458  10.217  10.859  17.632 -0.3488  0.2084 -0.1597
35595W        W36459   5.196  10.875  18.310 -0.0140 -0.3649  0.0972
35596W        W36460   3.270  15.260  23.058  0.2763  0.1602  0.1548
35597W        W36461   8.290   0.336   5.758  0.1921  0.1430 -0.0680
35598W        W36462  15.394   6.428  27.685  0.0349 -0.2241 -0.1273
35599W        W36463  11.187  22.461  19.084 -0.1988 -0.1634 -0.2120
35600W        W36464   5.135  15.187   4.790 -0.3100  0.0498  0.0077
35601W        W36465  11.827  13.626   5.253 -0.3728  0.1594  0.1968
35602W        W36466   2.997  11.578  25.296 -0.0902  0.0899 -0.0377
35603W        W36467   6.782   2.419  16.905  0.0893  0.2879 -0.2031
35604W        W36468  18.934  17.364  29.010 -0.0238 -0.2454 -0.1989
35605W        W36469   1.434  25.481  14.888  0.0930  0.0645  0.0075
35606W        W36470  29.076  18.627  26.501 -0.2086 -0.0635  0.0914
35607W        W36471   9.536  11.994  20.228  0.1416 -0.1445  0.3988
35608W        W36472   5.569   4.914   2.674 -0.1636  0.0558  0.1279
35609W        W36473   9.413   6.877   9.213 -0.2675  0.0943 -0.2522
35610W        W36474   7.152   4.170   3.680 -0.1581  0.0987 -0.0373
35611W        W36475  22.241  17.169  22.740  0.3381  0.0119  0.2440
35612W        W36476  24.537   4.601   6.153 -0.0237  0.0512 -0.0370
35613W        W36477   3.934  11.156   9.300 -0.0327 -0.3056 -0.1500
35614W        W36478  15.728   8.891   8.076 -0.3433  0.1165 -0.1823
35615W        W36479   1.349  13.508  13.194  0.2250 -0.0472 -0.1067
35616W        W36480   7.938  15.503   2.939  0.1299  0.0104  0.1036
35617W        W36481  14.430   5.017   8.124 -0.0857  0.1737  0.0985
35618W        W36482  15.965  21.745  15.128 -0.0074 -0.0917 -0.1478
35619W        W36483  12.679  16.233   2.110 -0.1320 -0.4118  0.0424
35620W        W36484  15.024  27.221  22.248 -0.0912 -0.1474 -0.1609
35621W        W36485   3.456  11.241   8.577 -0.1911  0.1286  0.4885
35622W        W36486  24.913  27.951   8.745  0.2086 -0.1184 -0.2087
35623W        W36487   0.771   6.283  18.551  0.1495 -0.1252  0.1581
35624W        W36488  26.441   7.548  17.147  0.2491  0.0648 -0.0279
35625W        W36489   7.625  21.740  14.391  0.1767 -0.2169  0.1608
35626W        W36490   0.747  23.664  14.158 -0.1368  0.2247 -0.0465
35627W        W36491   5.958  24.587  13.370  0.0099  0.1910 -0.0676
35628W        W36492   4.708   8.415  15.650  0.1140 -0.0550 -0.0756
35629W        W36493   1.850   0.568   7.097  0.3716 -0.0538 -0.1462
35630W        W36494  25.351  12.464  12.934 -0.4708  0.4703 -0.1498
35631W        W36495  14.288   7.659  15.333  0.1377  0.3563  0.0301
35632W        W36496  19.564   3.452  24.554 -0.0496  0.5202 -0.2283
35633W        W36497   9.942  21.554  25.873 -0.0567 -0.0529 -0.0096
35634W        W36498   5.530  16.966  15.570 -0.1721  0.4206 -0.1238
35635W        W36499   8.329   7.967  18.018  0.0027 -0.1115 -0.1073
35636W        W36500   9.280   7.329  24.222  0.0947  0.1726  0.0127
35637W        W36501   0.367  28.542  23.805  0.3756 -0.1968 -0.2811
35638W        W36502  10.755  10.424   5.530  0.1130  0.1051  0.0132
35639W        W36503   5.429  21.455  25.038 -0.2163 -0.0435 -0.1245
35640W        W36504   5.071  26.723   6.360  0.3817 -0.0624  0.0317
35641W        W36505  24.721   3.773   4.571  0.1065 -0.1045  0.0174
35642W        W36506   7.073  26.501   5.890 -0.0208  0.1510  0.0991
35643W        W36507  13.100   3.404   1.968 -0.1847  0.0738  0.0698
35644W        W36508   7.950  21.174  27.314  0.0095  0.1525 -0.3055
35645W        W36509   3.955  24.498   9.189  0.0727 -0.0264  0.1334
35646W        W36510   3.642  28.837   7.533  0.0200  0.0604 -0.1210
35647W        W36511   0.126   0.465  28.055 -0.0283 -0.1244 -0.1950
35648W        W36512  17.515   6.713  26.561  0.0537 -0.2137  0.0084
35649W        W36513   4.622  15.259  20.438  0.2193 -0.0691  0.0104
35650W        W36514  15.337  12.338  26.055 -0.3680 -0.2370 -0.0836
35651W        W36515  15.967  20.194  23.948 -0.1212  0.2013 -0.1991
35652W        W36516   5.067  15.733  18.748  0.0163  0.5226 -0.1376
35653W        W36517   1.438  28.493  23.042 -0.0005  0.0502 -0.1632
35654W        W36518  16.206   9.300   9.837 -0.2806  0.0387 -0.2558
35655W        W36519  22.262   4.023  10.785 -0.2980  0.1463 -0.1161
35656W        W36520   6.321  27.929  28.404 -0.0320  0.2143 -0.2102
35657W        W36521   1.153  28.468  22.344 -0.0352  0.0675  0.1183
35658W        W36522  11.515   5.758  19.652  0.1163  0.2223  0.0333
35659W        W36523  22.220   2.203   4.615 -0.0338  0.0377 -0.0933
35660W        W36524   1.590  14.262   9.120 -0.0788  0.0155  0.0085
35661W        W36525   7.365  11.000   0.138  0.0558  0.3251 -0.1205
35662W        W36526  15.696  25.973   5.067 -0.0507  0.0653 -0.1831
35663W        W36527  11.007  17.425  25.228  0.2524 -0.0117 -0.1848
35664W        W36528   4.013  17.443  20.454  0.0177  0.0235  0.0712
35665W        W36529  25.256  12.926   3.016 -0.0551 -0.1116  0.1609
35666W        W36530   7.586  22.669   4.125  0.1767 -0.0701  0.2290
35667W        W36531   0.283  13.145  10.165 -0.0463 -0.0929  0.1854
35668W        W36532  15.011  22.896  28.904  0.1427 -0.2701  0.0742
35669W        W36533  21.944  12.412  10.674  0.0354  0.1924  0.0965
35670W        W36534  28.817   8.804  25.023  0.0524 -0.0885  0.2296
35671W        W36535  11.900   4.051   0.520 -0.0570  0.3310 -0.0492
35672W        W36536  18.325   4.973  24.207 -0.1401  0.1436 -0.1290
35673W        W36537  24.700  15.281  13.561  0.2138 -0.3016 -0.1630
35674W        W36538  15.668  15.233   3.078 -0.0708 -0.0722 -0.0485
35675W        W36539  28.660  11.680  15.522 -0.3976 -0.1301 -0.0854
35676W        W36540   6.080  22.285  20.292 -0.0040 -0.1574 -0.0298
35677W        W36541   2.613  24.752  28.849 -0.2210 -0.0822 -0.5887
35678W        W36542  21.230   0.173   1.614  0.0564  0.0137  0.0035
35679W        W36543  26.448  22.463  17.526 -0.0036 -0.2506  0.1952
35680W        W36544   0.997   6.664  20.590 -0.0157  0.2341 -0.0024
35681W        W36545  24.498   3.158  11.895 -0.4006 -0.2040 -0.0193
35682W        W36546   7.634  23.175   4.548 -0.3213 -0.0415  0.0116
35683W        W36547   5.278  17.165   1.472  0.2352 -0.1815 -0.0100
35684W        W36548   5.099   9.042  24.242  0.1181 -0.1006 -0.0372
35685W        W36549   4.270   5.048  17.459  0.2398  0.0455 -0.3335
35686W        W36550   0.151  19.480   8.952  0.2552 -0.0871 -0.0977
35687W        W36551   3.840   0.539  21.440  0.2037 -0.0166  0.3016
35688W        W36552   7.826  24.449  24.708  0.1757  0.1174  0.0300
35689W        W36553   0.459  13.186  23.570 -0.1390  0.2954 -0.0051
35690W        W36554  27.250  18.851   4.595 -0.3040  0.0764 -0.2042
35691W        W36555   7.113   6.698   2.968  0.1501 -0.4590  0.1713
35692W        W36556   8.364  20.452   0.497 -0.2911  0.2800  0.0181
35693W        W36557  12.776  12.791  18.814  0.0852 -0.1924 -0.1848
35694W        W36558   9.114   5.862   1.744 -0.0969 -0.1654 -0.3404
35695W        W36559   4.644   0.132  27.837  0.1174 -0.4161 -0.1236
35696W        W36560   5.739  11.576  14.111  0.1014 -0.4149 -0.0824
35697W        W36561   7.518  11.444   9.378  0.0788 -0.1398 -0.0625
35698W        W36562  11.730  13.086   7.414  0.3712  0.0008  0.0289
35699W        W36563  11.991   5.801  15.760 -0.1669  0.0437 -0.0308
35700W        W36564   7.781  26.711  26.740  0.0667 -0.0903 -0.2722
35701W        W36565  10.577  18.573   4.767  0.1949  0.1394 -0.2031
35702W        W36566   9.657   5.721   6.149  0.2454 -0.0282 -0.3396
35703W        W36567  14.365   6.678   2.424  0.0495 -0.1290 -0.0430
35704W        W36568   0.004  23.993   5.328  0.0508 -0.0301 -0.0125
35705W        W36569  21.016  18.444   7.554 -0.2688 -0.2977 -0.2259
35706W        W36570   1.562  16.576  28.226 -0.0162  0.0766  0.1380
35707W        W36571  25.218   6.769   4.199  0.0777  0.1919  0.4976
35708W        W36572  13.886   8.954  24.839  0.0698 -0.0174 -0.1185
35709W        W36573  25.975   7.938   0.431 -0.2825  0.0434 -0.0989
35710W        W36574   9.550  25.666   4.877  0.1772 -0.2541 -0.1033
35711W        W36575   6.406  18.243  18.345  0.3191 -0.1370  0.1714
35712W        W36576   7.102  13.708   6.320  0.3146  0.1475  0.1816
35713W        W36577  22.716   3.458  11.254 -0.0036 -0.1043 -0.1792
35714W        W36578   7.882  25.447  25.903 -0.0287  0.3104 -0.1390
35715W        W36579  11.115  12.223   4.812  0.2476  0.1689  0.1778
35716W        W36580  27.244   9.345   1.654 -0.1413 -0.1152 -0.0630
35717W        W36581  10.383  18.908  10.967 -0.0403  0.0943  0.1370
35718W        W36582  28.856   2.717  12.137 -0.3759 -0.1730  0.0995
35719W        W36583   4.881  21.798   3.925 -0.0409 -0.0341  0.1643
35720W        W36584  13.145  14.878   7.162 -0.1813 -0.0857  0.1507
35721W        W36585   0.598   6.353  11.189 -0.0724 -0.0686  0.1317
35722W        W36586   2.103  11.528   4.775 -0.1143 -0.0375  0.2498
35723W        W36587  19.946  27.803  21.326 -0.2649  0.2741 -0.1985
35724W        W36588  21.896  10.650   6.239 -0.0344  0.1563 -0.0015
35725W        W36589   0.673  14.396   3.926 -0.0014 -0.0945  0.2878
35726W        W36590   0.690  27.088  17.280 -0.0494  0.2168 -0.0555
35727W        W36591   0.160   8.262  18.053 -0.1512 -0.0080  0.0125
35728W        W36592  19.227  18.427   6.025 -0.0075 -0.0615 -0.0271
35729W        W36593   5.737  26.493  20.673  0.0536  0.1181 -0.0598
35730W        W36594   4.753  15.709  23.861 -0.0555 -0.0138  0.1725
35731W        W36595   9.759  29.087   6.530  0.0409 -0.1832 -0.0376
35732W        W36596  13.299   7.662  19.074 -0.0584  0.0169  0.2544
35733W        W36597   2.997  13.340  21.885  0.1056 -0.0284 -0.2636
35734W        W36598  19.215   2.190   6.374  0.1003 -0.4486  0.2088
35735W        W36599  21.740   3.110   6.196  0.2761 -0.0759 -0.0905
35736W        W36600  18.749  25.362  25.887  0.2233  0.1001  0.0150
35737W        W36601  12.981   9.236  18.097  0.1703  0.0161  0.0827
35738W        W36602   8.755  10.170  14.295  0.1416 -0.0158  0.0468
35739W        W36603  12.605   7.856  25.803 -0.1533  0.0829 -0.1138
35740W        W36604   5.595  18.104   1.215  0.0596  0.0046  0.2319
35741W        W36605  23.909   1.526   3.148  0.2274  0.0085 -0.2055
35742W        W36606  23.323   0.880  26.181  0.3064 -0.1535 -0.2095
35743W        W36607   2.720  14.592   0.408 -0.0832 -0.0391  0.0471
35744W        W36608   0.611  23.253   0.305 -0.1121  0.2189 -0.2467
35745W        W36609  16.254  23.910  12.842  0.3013  0.3783  0.0233
35746W        W36610   2.908  15.920  23.796  0.0509  0.2070 -0.1948
35747W        W36611  10.434  15.680   4.376 -0.0172  0.0623 -0.0455
35748W        W36612   5.639  24.004   5.673 -0.4059  0.1183  0.1189
35749W        W36613   5.820   2.017  20.491 -0.0007  0.1456 -0.1253
35750W        W36614  27.310  16.876  20.669 -0.1608  0.1176  0.1916
35751W        W36615  20.847  14.463  28.935  0.0965 -0.0240 -0.1897
35752W        W36616  27.169  18.610  18.475  0.3026 -0.0595 -0.2174
35753W        W36617   7.352  12.606  23.901  0.0554 -0.3284 -0.1478
35754W        W36618  15.277  28.663   1.143  0.1866  0.1312  0.5083
35755W        W36619  23.315  11.034   4.356 -0.0540 -0.1614  0.0787
35756W        W36620  26.501  25.379   6.866  0.2093 -0.1110  0.0429
35757W        W36621   3.613  16.504  28.105 -0.0684 -0.2740  0.0325
35758W        W36622  24.765  28.533  28.948  0.1008 -0.0088 -0.0079
35759W        W36623   4.788  14.208  28.120  0.0351 -0.0957 -0.0587
35760W        W36624   3.094  10.999   7.970  0.1476 -0.0441 -0.1820
35761W        W36625  27.242   1.099  25.199 -0.0633  0.3117  0.1299
35762W        W36626  22.290   2.091   8.360  0.1066  0.2252 -0.1427
35763W        W36627   7.267  18.025   5.711  0.0168  0.2195 -0.1497
35764W        W36628   2.157  20.452   0.637  0.4314 -0.0859  0.2416
35765W        W36629   6.139   2.415   0.029 -0.0334 -0.1009 -0.4350
35766W        W36630   9.723  11.924  28.959 -0.1561  0.2634 -0.3305
35767W        W36631   5.116   2.461  23.692  0.0606  0.1999 -0.1381
35768W        W36632  11.130  25.061  28.190 -0.2266  0.3159 -0.2640
35769W        W36633   5.375  15.528  12.120  0.1634 -0.0470  0.1044
35770W        W36634   6.893  11.378  12.784  0.0260  0.3639  0.0410
35771W        W36635   8.957  15.866   6.211  0.0169 -0.0168 -0.0029
35772W        W36636   7.478  28.399   6.318 -0.1365  0.3962  0.1090
35773W        W36637  27.175   8.262  12.565 -0.1140 -0.0750 -0.0957
35774W        W36638  15.181  25.171  23.289  0.0267 -0.4413  0.3243
35775W        W36639  27.538   4.365  21.598 -0.1009 -0.2547  0.2309
35776W        W36640   5.436   2.578  27.371  0.0544 -0.0456  0.0881
35777W        W36641   3.919   4.068   9.397 -0.1643  0.0708 -0.0451
35778W        W36642   2.009   3.525  28.709  0.5336 -0.0388 -0.0714
35779W        W36643  18.290  12.470   9.003  0.0210 -0.0064 -0.1061
35780W        W36644   5.709   2.944  10.651 -0.2581  0.3395 -0.0737
35781W        W36645  14.674   3.421  27.258 -0.1051 -0.1527 -0.2598
35782W        W36646   4.285   7.871  23.157 -0.0732 -0.0196 -0.2618
35783W        W36647   6.692  14.078  15.998 -0.2988  0.2119  0.0909
35784W        W36648   4.472   4.808  23.194 -0.0152 -0.3548  0.2010
35785W        W36649  17.509  28.854  15.743  0.1468  0.0049  0.0002
35786W        W36650   5.637  10.579  25.792 -0.1918 -0.3714  0.1950
35787W        W36651   5.240  11.590   4.832  0.1426  0.0946  0.1209
35788W        W36652  26.536  27.497  12.918 -0.1505  0.1140  0.1166
35789W        W36653  18.152  16.041  15.966 -0.0331  0.1404  0.1026
35790W        W36654  22.634  27.230  28.408  0.0045  0.1107 -0.0153
35791W        W36655   7.174   4.007  27.389 -0.1472  0.2255 -0.0082
35792W        W36656   4.292   7.416   0.698  0.1078 -0.0086 -0.1675
35793W        W36657   4.402  17.179   5.697  0.1762  0.0428 -0.2659
35794W        W36658  23.680  17.888  27.780  0.0557 -0.1687  0.1595
35795W        W36659  12.970  10.139   3.842  0.1349  0.0644 -0.3348
35796W        W36660   2.118  17.138  12.317 -0.2996 -0.2688 -0.1296
35797W        W36661  10.150  28.014  16.954  0.1698  0.2572  0.0349
35798W        W36662  13.714  28.710  23.656  0.0920  0.1901  0.1866
35799W        W36663  27.309  12.764  17.944 -0.1120  0.0849 -0.2023
35800W        W36664   8.398  18.706  15.002  0.0051 -0.0465 -0.0864
35801W        W36665  24.278   5.903  20.865 -0.0165  0.2877 -0.0698
35802W        W36666   3.931  27.731   2.389  0.0735 -0.2357  0.0266
35803W        W36667  18.373  18.139   7.796  0.0433  0.1573  0.2416
35804W        W36668  28.594  26.990   3.391  0.0836  0.1442  0.1817
35805W        W36669   1.806  14.602   3.757 -0.4377 -0.0826 -0.1164
35806W        W36670  13.057   1.165   6.840  0.2857  0.3178  0.1549
35807W        W36671   8.481   6.058   1.685  0.1468  0.1122  0.1123
35808W        W36672  24.982  12.066  11.576 -0.0314 -0.1822 -0.1067
35809W        W36673   7.984   0.855  28.506 -0.1955  0.0750  0.2150
35810W        W36674  13.063   7.356  12.353  0.2196  0.0215 -0.1352
35811W        W36675  11.721  12.132   9.503  0.3803 -0.1705  0.0273
35812W        W36676  28.107   4.915   2.922 -0.2216  0.3232 -0.2421
35813W        W36677  13.350  20.247   8.783  0.1397 -0.3733  0.1174
35814W        W36678  27.174   8.783   1.482 -0.1553 -0.0592  0.0702
35815W        W36679   4.481  18.449  18.798  0.2783 -0.0120  0.2554
35816W        W36680  19.015  11.028  28.503 -0.0220  0.1550 -0.0136
35817W        W36681   9.631   8.107  11.979  0.0127  0.2301  0.0222
35818W        W36682  19.730  14.762   8.463 -0.3240 -0.1683 -0.3436
35819W        W36683  14.808   6.238   0.132  0.0845  0.1987  0.1333
35820W        W36684  27.237  23.177  19.071  0.5146 -0.3710 -0.1246
35821W        W36685   3.724   0.251   7.378  0.0895  0.3616  0.1547
35822W        W36686  12.092  17.913   9.911  0.2361 -0.0343 -0.1826
35823W        W36687   2.632  19.432  12.981 -0.1706  0.1535  0.1441
35824W        W36688  25.542  18.418   0.397  0.2672  0.1360 -0.1148
35825W        W36689  21.576   6.478  25.568 -0.1645  0.0030  0.0444
35826W        W36690  24.677   5.452  24.683  0.2714  0.0025  0.1958
35827W        W36691  14.000   8.967  11.815 -0.1716 -0.0853  0.0589
35828W        W36692   7.590   6.037  13.646 -0.0339 -0.1990 -0.0710
35829W        W36693   5.864   8.959   1.662 -0.0565 -0.1418  0.1052
35830W        W36694   9.675   2.477   0.897  0.2321  0.3130 -0.1975
35831W        W36695  21.033   3.271   4.483 -0.0440 -0.0376 -0.0647
35832W        W36696   5.479  22.306  10.382  0.1844 -0.0920  0.0447
35833W        W36697  10.412  11.914  11.620 -0.4448  0.0687  0.2702
35834W        W36698  21.130   9.096   7.303  0.0314  0.2436  0.1883
35835W        W36699  11.107  10.168  11.411  0.1054 -0.0405  0.1804
35836W        W36700   9.488  10.903  12.362  0.1197  0.0387 -0.0458
35837W        W36701   3.038  24.413   0.605  0.0549  0.0560 -0.0373
35838W        W36702  22.970   6.193  17.010  0.0143 -0.1594  0.1873
35839W        W36703   1.455  10.701  19.075 -0.2275  0.0801 -0.0571
35840W        W36704   5.778   8.606  23.722 -0.0678 -0.0689  0.1633
35841W        W36705  18.473  10.912   2.909 -0.4325 -0.2998  0.3260
35842W        W36706   7.958   5.745  12.184 -0.0678  0.1416 -0.5715
35843W        W36707   6.255  21.838  22.941  0.3487  0.1308 -0.0503
35844W        W36708  10.358   3.526  21.345  0.0213 -0.1733 -0.1864
35845W        W36709   1.005   6.114  18.945  0.1332  0.1295 -0.3077
35846W        W36710   6.005  27.037  14.888 -0.1482 -0.0910  0.0862
35847W        W36711  10.254  17.992   9.293 -0.1452  0.0208 -0.3757
35848W        W36712   9.394  20.102   7.673 -0.0592  0.0367 -0.1722
35849W        W36713  18.859   7.880  21.431  0.1784 -0.0801 -0.0469
35850W        W36714   0.453  19.530   6.863 -0.0827 -0.0479  0.0524
35851W        W36715  10.008  13.497   3.939  0.1255 -0.0133 -0.1192
35852W        W36716  15.465  20.198   7.261  0.0094  0.0005 -0.1985
35853W        W36717   0.818   8.792   3.740 -0.0515  0.0327 -0.1710
35854W        W36718   6.727  26.307   0.514 -0.4435  0.1957  0.0784
35855W        W36719  21.123  11.713  13.404 -0.4160  0.2051 -0.1979
35856W        W36720  21.940   9.902  18.334 -0.2983  0.2213  0.1251
35857W        W36721   0.942  11.727  25.628  0.2878  0.0982 -0.3705
35858W        W36722   9.903  14.049  26.408  0.2942 -0.0711 -0.1031
35859W        W36723   9.710  11.684  11.067 -0.0880 -0.3373 -0.1310
35860W        W36724   6.067  23.711   5.512 -0.3940  0.1033  0.2036
35861W        W36725   2.356  29.008  16.066 -0.0906  0.1214  0.0368
35862W        W36726   2.727   7.240  15.070 -0.0243 -0.2100 -0.0404
35863W        W36727   3.423  22.341  13.844  0.2330 -0.1341 -0.1054
35864W        W36728  11.037  28.547   4.170 -0.1471  0.0505  0.2405
35865W        W36729  18.812   4.744  24.347 -0.0055 -0.1762  0.2233
35866W        W36730   3.836  13.096  25.659 -0.1343  0.0681  0.1543
35867W        W36731   4.033  23.744  18.695 -0.0918 -0.0390 -0.0405
35868W        W36732   4.324   8.502  16.982  0.2452  0.0024  0.0791
35869W        W36733  14.915   4.075  18.721 -0.1762 -0.0504  0.2585
35870W        W36734   5.059  11.656   5.839 -0.1617 -0.1161  0.0631
35871W        W36735  13.777   7.676   8.387  0.1966  0.0754 -0.1438
35872W        W36736  19.126  17.077   6.103 -0.3309 -0.3327  0.1960
35873W        W36737  12.628   8.168  11.922 -0.1995  0.0553 -0.2055
35874W        W36738  25.726   3.587   1.442  0.1647  0.0236  0.1177
35875W        W36739  13.276   3.813  25.643  0.0502 -0.2224  0.2148
35876W        W36740   9.866  14.044   9.875  0.0823 -0.2680  0.3186
35877W        W36741  28.491   8.509  14.481 -0.0557  0.4831  0.0409
35878W        W36742  26.796  21.858   4.049  0.2041  0.0327  0.1176
35879W        W36743   7.010  12.945   5.095  0.1284  0.1430  0.2302
35880W        W36744   8.420   6.506   0.056  0.3164  0.1451 -0.2813
35881W        W36745  13.439   4.156  27.079  0.1806  0.3091 -0.1567
35882W        W36746   9.052   2.830   0.320 -0.3023  0.1872 -0.0592
35883W        W36747   2.147   3.673  27.462 -0.0299 -0.0403  0.2302
35884W        W36748  12.301   5.092  21.739 -0.2404 -0.0302 -0.1960
35885W        W36749   7.027  28.814   8.678  0.3447 -0.1976  0.0979
35886W        W36750  25.356  28.127  27.277 -0.1833 -0.1481 -0.0896
35887W        W36751  11.540   9.457  23.212 -0.4918  0.0321 -0.0070
35888W        W36752  22.117  15.045  19.604  0.3980  0.1043  0.0351
35889W        W36753  29.121   8.191  10.641  0.3059  0.1066 -0.3227
35890W        W36754  18.626  17.227   2.196 -0.2622 -0.1221  0.1398
35891W        W36755  24.872  17.763   4.714 -0.2448 -0.0738 -0.3044
35892W        W36756   5.316  19.488   2.069  0.0205  0.0107  0.0269
35893W        W36757  23.899   1.931   8.885 -0.0776  0.0437  0.1188
35894W        W36758  28.096  22.405   5.680 -0.2220 -0.1938  0.1474
35895W        W36759   5.240  22.989   2.325 -0.1049  0.0207  0.0065
35896W        W36760  27.015   2.194   5.091  0.2361  0.0319 -0.1159
35897W        W36761  26.085   4.556   7.196  0.1743  0.0067 -0.0347
35898W        W36762  20.836  12.695  18.998  0.1727  0.1780 -0.1189
35899W        W36763  12.795  10.708  28.451  0.0195 -0.0439 -0.0664
35900W        W36764  17.007   2.155  22.525 -0.3042  0.0985  0.1113
35901W        W36765  28.340  17.766   6.121  0.1967 -0.1514  0.0880
35902W        W36766  12.212  21.777  24.943  0.1564 -0.1061  0.0430
35903W        W36767   0.415   3.079   8.036 -0.2136 -0.1641 -0.0683
35904W        W36768   3.130  28.142   4.059 -0.2560 -0.2228 -0.4883
35905W        W36769  12.921  18.662   9.970 -0.1100 -0.0141  0.1491
35906W        W36770  21.875   0.535  13.502  0.2804  0.2231  0.1683
35907W        W36771  26.407  26.159   8.189  0.3925 -0.0169 -0.2155
35908W        W36772  27.438  21.588  16.313 -0.3758 -0.0622 -0.1116
35909W        W36773  10.582  27.825  16.236  0.1228 -0.0167 -0.1084
35910W        W36774  27.438  10.209   1.777  0.0148  0.1734  0.0805
35911W        W36775   5.650  11.088   3.277 -0.0071  0.1768  0.2165
35912W        W36776  10.432  12.287   3.868 -0.1918 -0.2085 -0.1579
35913W        W36777  20.262   3.617  26.045  0.2644  0.0101 -0.1021
35914W        W36778  22.325   7.089   4.762  0.0103 -0.0436  0.1148
35915W        W36779  27.737  12.854   0.281 -0.2329 -0.3906 -0.0304
35916W        W36780   8.094   7.073   9.158  0.0889  0.1084  0.1924
35917W        W36781   8.768   1.030  25.613  0.2388 -0.0415  0.2310
35918W        W36782  23.978   8.036  10.462 -0.5345 -0.0993  0.0947
35919W        W36783  21.274   9.531  11.373  0.1292 -0.1526 -0.3664
35920W        W36784  18.415  21.219   2.850 -0.1217  0.0082 -0.0004
35921W        W36785  21.667   6.787  23.565 -0.2566  0.1605 -0.3168
35922W        W36786   2.151   6.542  27.456 -0.0787 -0.0769 -0.2660
35923W        W36787  19.581   1.098  28.874 -0.0480  0.2475  0.3599
35924W        W36788  25.694   0.408   6.033 -0.1793 -0.0589  0.0501
35925W        W36789   3.967   6.709  26.510  0.1990 -0.2393 -0.1771
35926W        W36790  26.992  14.663  20.578  0.1525 -0.1107 -0.3959
35927W        W36791   3.404   6.920  17.375 -0.1453  0.2601 -0.0203
35928W        W36792  27.129   6.901  20.065  0.0552  0.2919 -0.3526
35929W        W36793  20.436   6.499  22.084  0.1858  0.1354  0.1018
35930W        W36794   0.126  22.739  19.490 -0.2335 -0.0269 -0.0338
35931W        W36795  11.616   1.578  25.990  0.0356 -0.2273 -0.0453
35932W        W36796  28.364   1.264   3.595 -0.0100  0.1714 -0.2926
35933W        W36797  18.520   0.015  19.865  0.0430  0.0590 -0.1128
35934W        W36798  16.992  18.601   6.868 -0.3345 -0.0756  0.3090
35935W        W36799  22.708  12.186   8.135  0.1316  0.4297 -0.3080
35936W        W36800   2.415   8.496  16.830 -0.2626 -0.0401  0.1051
35937W        W36801  26.911  11.090   2.668  0.0815 -0.1223 -0.1124
35938W        W36802   7.131   6.957  23.455 -0.1192  0.1511  0.0308
35939W        W36803  25.170  18.473  15.402  0.0870 -0.0887 -0.0026
35940W        W36804  13.678   4.104   1.323 -0.0258 -0.1167  0.1689
35941W        W36805  16.577   0.150  11.114  0.2338 -0.2347  0.0546
35942W        W36806  14.488  20.080   8.054 -0.0129 -0.2610 -0.0105
35943W        W36807  12.994  14.978   8.574  0.0501 -0.4123 -0.1227
35944W        W36808  24.717  14.262   4.665  0.1376 -0.1319  0.1307
35945W        W36809   1.324  28.906  12.976  0.1072 -0.0310  0.2557
35946W        W36810  26.789   2.528  12.247  0.3814 -0.1004 -0.4092
35947W        W36811  23.696  12.143   8.265 -0.2740  0.2101 -0.1565
35948W        W36812  11.019  20.786   8.352  0.0805 -0.0539  0.1016
35949W        W36813  28.232  16.939  14.925 -0.0198  0.0040  0.1441
35950W        W36814  14.804  11.143   7.734  0.0477  0.1322 -0.1474
35951W        W36815  17.115  18.092   6.160  0.5583  0.0457  0.4097
35952W        W36816   2.797   5.188  20.215  0.1082  0.0947 -0.0720
35953W        W36817   5.192  12.844  25.573 -0.0243  0.0946  0.0676
35954W        W36818  20.952  13.019   2.863 -0.1557  0.1124  0.0503
35955W        W36819  27.207  27.316   1.280 -0.3401  0.2535 -0.1278
35956W        W36820   9.534  24.837  25.036 -0.0129 -0.1181  0.0378
35957W        W36821  23.747   5.314   4.393 -0.1251  0.0905 -0.0617
35958W        W36822  11.004   9.782  28.994  0.1698 -0.0681 -0.3428
35959W        W36823   5.349  10.165  27.680 -0.2495  0.0045 -0.0038
35960W        W36824  25.202  18.858   7.989  0.0952 -0.2242  0.2093
35961W        W36825  14.883  13.604  23.482 -0.0108 -0.0678  0.0342
35962W        W36826  28.600   6.589  25.690 -0.0594 -0.1331 -0.1730
35963W        W36827   9.642  12.247  19.726 -0.2363  0.1840  0.0978
35964W        W36828  21.272  19.386  20.309 -0.1714  0.0000 -0.0396
35965W        W36829  24.795   0.063  16.476  0.0812 -0.0478  0.2095
35966W        W36830   7.008   6.011  12.918  0.0606  0.0202 -0.1831
35967W        W36831  17.052  27.859  23.934  0.0581  0.0249  0.0592
35968W        W36832  24.455   2.632  25.050 -0.0694 -0.1962  0.0805
35969W        W36833   5.294   6.828  19.943  0.1322 -0.1954 -0.0637
35970W        W36834   4.379   4.401   3.311  0.5076  0.2176  0.4206
35971W        W36835   1.443  10.577  21.432 -0.2857 -0.0512  0.1183
35972W        W36836  12.925  15.670   3.863  0.1096  0.2051  0.0429
35973W        W36837   6.685   4.833   5.340 -0.0652  0.1819  0.1318
35974W        W36838  23.967   9.665  10.889 -0.1847 -0.0200  0.2646
35975W        W36839   3.455  22.940  14.294  0.0734  0.2526  0.0349
35976W        W36840   7.440  15.224  21.774 -0.0958  0.2277 -0.1118
35977W        W36841  19.968  12.664  26.055  0.3347 -0.4061 -0.1282
35978W        W36842  20.731  21.326   3.076 -0.0252 -0.1741 -0.1075
35979W        W36843   9.292   5.593   4.992  0.0981  0.2503  0.1336
35980W        W36844  16.272   1.837   1.472  0.2345  0.3455 -0.0160
35981W        W36845  25.599  23.350  24.443  0.2223  0.0623  0.1167
35982W        W36846  26.327  24.371   5.443  0.0052 -0.2633  0.2009
35983W        W36847   3.775  19.748  27.345  0.1834  0.3513  0.2091
35984W        W36848  17.161   3.042  19.848 -0.2097 -0.0809 -0.3669
35985W        W36849  18.474  13.676   6.643 -0.0402  0.1119 -0.0963
35986W        W36850   3.791  25.890   6.561 -0.0569 -0.1036  0.2981
35987W        W36851   1.987  18.047  20.836 -0.2334 -0.3885  0.1057
35988W        W36852  14.595   9.371  22.481  0.3246 -0.1049  0.2912
35989W        W36853   7.122   1.038   1.698 -0.0454  0.2205 -0.1543
35990W        W36854   0.099   4.643  11.521 -0.3628 -0.0319  0.0478
35991W        W36855  24.581   2.663  12.122  0.1138 -0.1881  0.0587
35992W        W36856  14.421  19.251  28.910  0.2975 -0.3078 -0.3429
35993W        W36857   4.130   8.181   8.503 -0.3900  0.0902  0.0729
35994W        W36858   2.020  22.048  12.194 -0.0186  0.0693 -0.0223
35995W        W36859  21.555   7.433  12.456  0.1027 -0.0050 -0.5143
35996W        W36860  20.753  25.863   5.102 -0.1624 -0.1189 -0.1698
35997W        W36861  17.919  28.449  10.199 -0.2848 -0.0643 -0.1021
35998W        W36862   9.013  18.459  25.857 -0.2816 -0.2599  0.2058
35999W        W36863  21.902   3.360  23.614 -0.3499  0.0329 -0.3095
36000W        W36864   4.487  26.078  24.686  0.0096 -0.1569 -0.3139
36001W        W36865   8.713  19.603   5.514 -0.1566  0.0266 -0.0416
36002W        W36866   1.200  18.612  19.935  0.0580  0.0037  0.0389
36003W        W36867   6.004  27.061  19.268  0.1732  0.0349 -0.3776
36004W        W36868  11.469  15.467  25.131  0.1576 -0.1238  0.0049
36005W        W36869   5.922  22.927   8.791 -0.1338 -0.1010  0.3119
36006W        W36870  24.083  14.075   5.834  0.1871 -0.0498 -0.0251
36007W        W36871  21.397  13.891   6.989  0.0910  0.1232 -0.0602
36008W        W36872   8.925   7.936   2.948 -0.0551  0.0898 -0.5114
36009W        W36873  28.259  16.237  13.424 -0.1808 -0.0968 -0.2582
36010W        W36874  12.395  16.390  28.459 -0.1523 -0.1900  0.0858
36011W        W36875   9.656  22.296  22.148 -0.0404 -0.0460 -0.1336
36012W        W36876  21.907  16.137   4.413 -0.3205 -0.4244 -0.2017
36013W        W36877   2.903   1.414  22.702 -0.1743  0.0804  0.0012
36014W        W36878  28.610  11.424  27.709 -0.0075 -0.0639  0.2079
36015W        W36879  15.644   3.333  26.827 -0.0373 -0.1040 -0.1388
36016W        W36880   9.709  22.831   0.858  0.3778 -0.1004 -0.0122
36017W        W36881  19.270  26.017   2.946 -0.2696 -0.0876 -0.2254
36018W        W36882  18.479   5.192   2.264  0.0367  0.0645 -0.1182
36019W        W36883  26.148  11.991  24.643 -0.0210  0.0387 -0.1256
36020W        W36884  25.541  15.290   5.959  0.0892 -0.1048  0.0502
36021W        W36885  22.674   1.895   3.745 -0.2851 -0.1055 -0.1264
36022W        W36886  27.555   3.825  20.420 -0.0521 -0.0681 -0.3376
36023W        W36887  13.168   7.967  20.046  0.0352 -0.1451  0.1431
36024W        W36888   7.837   4.353   0.839 -0.0046  0.0795  0.1928
36025W        W36889   2.549  21.540  22.692 -0.2673  0.1781  0.1058
36026W        W36890   6.903  22.630  13.390  0.0271 -0.0145 -0.0848
36027W        W36891  24.054  20.194   0.103  0.0159  0.1383 -0.0259
36028W        W36892  25.208   2.210  13.746 -0.0468 -0.2513  0.2874
36029W        W36893   1.161   3.720  28.074 -0.0207  0.0990 -0.0121
36030W        W36894  14.706   4.260  11.645 -0.0047 -0.2189 -0.1503
36031W        W36895  11.271  19.785  18.352 -0.1130 -0.1678  0.0405
36032W        W36896  27.988  20.794   6.222 -0.0588 -0.3521 -0.0303
36033W        W36897   9.953  15.284  22.955  0.1094 -0.2231 -0.1194
36034W        W36898   3.496  16.079  15.503 -0.0960 -0.0093 -0.2259
36035W        W36899   5.205   3.424   4.254 -0.0855  0.0442 -0.0968
36036W        W36900   2.468   2.659  19.589 -0.1961  0.1569 -0.4276
36037W        W36901   3.047   9.777   1.178 -0.2427 -0.1059 -0.0695
36038W        W36902  15.488   8.807  24.424  0.2606  0.1102 -0.2293
36039W        W36903   2.043  27.967  14.445 -0.0653 -0.1191  0.0149
36040W        W36904  23.696  14.151  26.434 -0.3621 -0.4830  0.0847
36041W        W36905   2.461  14.465  17.003  0.2529  0.0306  0.0654
36042W        W36906  26.614  15.952  17.234 -0.1485 -0.1273 -0.3212
36043W        W36907  25.565  21.088   3.507 -0.0379  0.1617 -0.2573
36044W        W36908   8.394  10.286   6.202 -0.0319 -0.0677 -0.1244
36045W        W36909  24.833  17.418  23.168  0.0062  0.1537  0.1446
36046W        W36910  14.011   5.114  28.438 -0.1036  0.1577  0.1057
36047W        W36911  16.892   4.733  13.621  0.2854 -0.1961  0.2312
36048W        W36912  16.694  24.845  24.526  0.6471 -0.1832 -0.1686
36049W        W36913   2.965  21.658  25.029 -0.1386 -0.0709  0.0155
36050W        W36914  15.988   9.953  25.097  0.3126 -0.0048 -0.2469
36051W        W36915   4.811  28.551   1.383 -0.0606  0.0890 -0.2547
36052W        W36916  19.396  19.323   6.433 -0.0617 -0.0325 -0.0426
36053W        W36917   9.068   8.989  17.902 -0.0540  0.0944  0.2435
36054W        W36918  26.762  27.549  12.331 -0.0004  0.0976 -0.4077
36055W        W36919  16.016  21.134   0.412 -0.1111  0.0594 -0.0158
36056W        W36920  24.351  13.847  21.914 -0.0800  0.0968  0.0827
36057W        W36921  11.691  13.562   0.778 -0.2005  0.0817  0.3626
36058W        W36922   5.841  14.597   5.928 -0.1290 -0.3019 -0.2423
36059W        W36923  22.218   2.797   3.399  0.2494  0.0649 -0.3246
36060W        W36924  10.751   0.299  23.686  0.0494  0.2963  0.0184
36061W        W36925   2.672  13.011  21.584  0.0874 -0.0931  0.1344
36062W        W36926  22.572   1.118  12.434 -0.0728  0.1404 -0.0082
36063W        W36927  13.739   2.272   5.345  0.0951  0.0037  0.1298
36064W        W36928  12.620   8.587   3.457 -0.0465  0.2380 -0.1862
36065W        W36929   3.522   4.828   8.815  0.1065 -0.1555  0.1264
36066W        W36930  17.242   3.827   1.394  0.0027  0.3844 -0.0221
36067W        W36931  13.595  27.951   1.962 -0.0371 -0.1881 -0.0644
36068W        W36932   6.585  23.767   8.995  0.0141  0.0696  0.0225
36069W        W36933  28.440  21.089   6.170 -0.4399 -0.1488  0.1938
36070W        W36934   0.520   0.901   5.819 -0.1893 -0.3285  0.0589
36071W        W36935   1.957   0.491  22.375  0.2263 -0.0857  0.1395
36072W        W36936   6.628  15.110  17.315  0.0777  0.0689 -0.1065
36073W        W36937  12.133  10.443   0.224  0.4078  0.2845  0.0496
36074W        W36938  16.045  17.537   6.345  0.1123 -0.0381  0.0425
36075W        W36939  25.237  16.456  25.227 -0.1282 -0.2408 -0.0134
36076W        W36940  12.344  12.649   6.675 -0.0282  0.0202 -0.0658
36077W        W36941   6.526   6.947  19.302 -0.1701  0.2489  0.0762
36078W        W36942  14.295  10.847  28.210 -0.0775  0.0501  0.0217
36079W        W36943   5.164  15.837  28.815  0.0793  0.3184  0.3351
36080W        W36944   8.826  27.179   0.558 -0.0873 -0.1320  0.0761
36081W        W36945   2.910  20.317  23.870 -0.1747 -0.1721 -0.1101
36082W        W36946  13.276  20.032  25.178  0.0832 -0.2935  0.0464
36083W        W36947  28.365  10.176  28.845  0.0698  0.2734 -0.0351
36084W        W36948  15.502   8.133  25.172 -0.2158  0.1236 -0.0640
36085W        W36949   6.959  18.119   4.917 -0.0907  0.1245  0.1354
36086W        W36950  17.276  15.361  21.584 -0.0180 -0.1787 -0.0194
36087W        W36951   5.785  11.105  22.312 -0.1520  0.2231  0.0832
36088W        W36952   1.669  11.125   7.386  0.2723  0.3338  0.2926
36089W        W36953  17.909   6.084  15.715  0.1568 -0.2311 -0.2572
36090W        W36954  12.582  20.694   3.964  0.1004  0.2020  0.2144
36091W        W36955   3.340  13.754  21.099 -0.0592  0.2610  0.0852
36092W        W36956   3.206   7.793  15.671  0.2625  0.0079 -0.3877
36093W        W36957  25.705  26.069   7.502  0.3197 -0.0381 -0.1095
36094W        W36958  10.252   1.937  17.347  0.1609  0.0477  0.2177
36095W        W36959  12.774  23.962  11.747  0.0715 -0.0131  0.1257
36096W        W36960  11.896   4.534   1.743  0.0920  0.1670 -0.1887
36097W        W36961  26.080   6.177  12.373  0.2303 -0.1892  0.0635
36098W        W36962  20.710   8.417   7.904 -0.1172  0.1410  0.0214
36099W        W36963  23.590   3.778  22.728 -0.0323 -0.0398  0.1648
36100W        W36964  29.121  21.279   1.795  0.0978  0.1338  0.4074
36101W        W36965  17.525   2.514  23.069  0.2853  0.0364 -0.2925
36102W        W36966  14.354   8.313  25.441 -0.3171  0.0433 -0.2915
36103W        W36967  25.032  25.055  10.139 -0.1519  0.0611 -0.1730
36104W        W36968  18.660  22.171  18.256  0.0198 -0.1800 -0.0740
36105W        W36969  27.875   6.067  13.465  0.0180 -0.4001  0.0563
36106W        W36970  16.912  24.120  23.878  0.0613  0.0238  0.0989
36107W        W36971  12.256  11.306   6.881 -0.2249  0.1195 -0.0197
36108W        W36972  16.479  10.850  23.211  0.1514  0.1862 -0.1459
36109W        W36973   6.061   3.295   8.681 -0.1062  0.0459  0.4763
36110W        W36974  23.482   3.940  19.340 -0.3049  0.2917 -0.1326
36111W        W36975   3.010  26.849   7.858  0.0978 -0.5642  0.1412
36112W        W36976   4.045  20.234  26.549  0.1329 -0.0177  0.1206
36113W        W36977   4.212   1.097  11.005  0.2326 -0.1637  0.1988
36114W        W36978   1.973  11.433   8.747  0.2874 -0.4016  0.2198
36115W        W36979  10.729   8.331  15.095  0.1686  0.0041 -0.1535
36116W        W36980  10.524  15.532   9.372 -0.0759  0.0768  0.0962
36117W        W36981  17.458  11.658   1.642  0.1569  0.0047  0.3325
36118W        W36982  13.834  14.365  28.118 -0.0115  0.0213  0.1842
36119W        W36983  28.462  26.960   9.509  0.0741  0.3086  0.1598
36120W        W36984  22.359   4.905   3.211  0.0666  0.3253  0.2908
36121W        W36985  10.581  26.185  17.254  0.0547  0.1188 -0.0254
36122W        W36986  12.658  25.494   1.814 -0.1087  0.0943 -0.0063
36123W        W36987   9.288  15.877  14.401 -0.0236 -0.2300 -0.0514
36124W        W36988  16.580   3.301  17.811 -0.1177 -0.2172 -0.0916
36125W        W36989  12.868  27.476  28.651  0.0362  0.1423  0.0511
36126W        W36990   3.450  18.087   6.889  0.2098  0.1525  0.3063
36127W        W36991  18.255  22.498  27.017 -0.1971 -0.0312  0.0140
36128W        W36992   6.700   3.068  23.837  0.1464 -0.1138  0.1004
36129W        W36993  12.997  24.012  27.461 -0.1117 -0.1508  0.0004
36130W        W36994   2.653   3.695   5.718 -0.1850 -0.1981 -0.0860
36131W        W36995  26.542   9.713   0.619 -0.2493  0.0376  0.2060
36132W        W36996   5.259  14.145  22.482 -0.3035  0.4259  0.0699
36133W        W36997  26.443   9.288  14.025  0.0558  0.2194  0.0533
36134W        W36998  16.949  12.013   1.513  0.0794  0.0460 -0.0377
36135W        W36999  10.213  16.106   9.906  0.1150 -0.3290 -0.0124
36136W        W37000  11.959   1.442   1.513 -0.1115 -0.0496 -0.0177
36137W        W37001   5.847  23.097  17.397  0.0678  0.2205  0.0074
36138W        W37002   6.140   2.221   7.755 -0.2399  0.1500  0.0630
36139W        W37003  21.790  17.861  20.456  0.0450  0.0534 -0.3156
36140W        W37004  20.336   7.476  16.291  0.0024  0.0677  0.0982
36141W        W37005  21.051   3.834  21.033  0.1327  0.0475  0.0051
36142W        W37006   9.998  12.959   0.263 -0.1194  0.1357  0.0284
36143W        W37007  18.439  28.816  26.991 -0.0044  0.1286 -0.2490
36144W        W37008   4.840  18.338  21.883 -0.0771 -0.0918  0.3659
36145W        W37009   6.820   7.041  10.761 -0.2618 -0.1239 -0.4610
36146W        W37010   7.326  26.727  22.116  0.0968  0.1357 -0.1404
36147W        W37011  14.638   9.465   6.034 -0.0821  0.1716 -0.1361
36148W        W37012  28.920  23.594  27.172  0.0440  0.1251 -0.1934
36149W        W37013   2.184  16.591  29.108 -0.0696 -0.2984 -0.1567
36150W        W37014  26.551  15.585   2.415 -0.1692  0.0193  0.1365
36151W        W37015  20.752  14.729  14.128 -0.0921  0.1262  0.1190
36152W        W37016  14.825  23.555   1.521 -0.2010  0.1644  0.0704
36153W        W37017  27.150   6.767   6.462  0.0263  0.1506 -0.1119
36154W        W37018   3.709  10.164  23.135 -0.1288  0.3514 -0.1901
36155W        W37019  11.313   8.197  28.010 -0.1043  0.1224  0.2180
36156W        W37020  20.549  21.709  23.333 -0.2872 -0.0874 -0.2906
36157W        W37021  25.967  10.141  13.701  0.4326  0.0771 -0.0547
36158W        W37022  14.897  25.251  19.358 -0.2280 -0.2430 -0.0431
36159W        W37023   5.256   4.741   5.641  0.0003 -0.1689 -0.0240
36160W        W37024  28.541  18.731  10.933  0.2596 -0.0522 -0.2265
36161W        W37025  25.896  10.702  18.696 -0.1223 -0.3137  0.0362
36162W        W37026  14.080  22.752  24.224 -0.2634  0.0662  0.0229
36163W        W37027  27.933  27.551   6.781 -0.2287  0.1997 -0.2569
36164W        W37028  13.489   2.693  25.562  0.0650  0.1411  0.0430
36165W        W37029  16.019  12.385   4.663  0.2522 -0.1299  0.0175
36166W        W37030  23.430   4.667  27.074 -0.3030  0.2813 -0.2104
36167W        W37031  27.051  16.168   0.376  0.0907  0.3389  0.0870
36168W        W37032  27.430  24.000  14.265 -0.1129  0.1631 -0.2493
36169W        W37033  10.396  15.613  24.187 -0.1253 -0.2899 -0.1918
36170W        W37034  14.551  13.649  24.250  0.2339  0.1122 -0.2286
36171W        W37035   0.493  19.601  20.038  0.0267 -0.0494 -0.0298
36172W        W37036  12.027  10.653   3.759  0.0782  0.0774  0.0217
36173W        W37037   2.947   8.135  22.861  0.2642  0.0949  0.1141
36174W        W37038  19.861  14.025   2.593 -0.0494  0.1025 -0.0134
36175W        W37039  26.930   7.966   8.776  0.0229 -0.2690 -0.1940
36176W        W37040   0.469   1.872  27.024 -0.0952  0.1320  0.4618
36177W        W37041  13.848  12.920  26.988  0.1972  0.0167  0.1445
36178W        W37042   5.625   9.081  28.413  0.0423  0.0108 -0.1275
36179W        W37043  20.208  23.922  14.751 -0.2161  0.2450 -0.1732
36180W        W37044  10.892  14.470   2.109 -0.0061  0.1604  0.0425
36181W        W37045  27.214  25.465  21.392 -0.0045 -0.2419 -0.0773
36182W        W37046   6.912   9.956  24.768  0.3553 -0.1465  0.3336
36183W        W37047   6.670  19.390   2.829  0.0930 -0.1061 -0.0904
36184W        W37048  11.910  27.214  24.507 -0.0051 -0.0621  0.0580
36185W        W37049   5.261  18.472  28.649  0.1101 -0.1572 -0.2367
36186W        W37050   8.979   8.555  17.731  0.1375  0.3578 -0.2281
36187W        W37051  12.649  10.501   1.503  0.1522 -0.2714 -0.2229
36188W        W37052  27.570  16.671  11.425 -0.2057 -0.0189  0.1241
36189W        W37053   4.034  12.341  15.591 -0.3562  0.1714 -0.1279
36190W        W37054   7.516  27.325   3.408 -0.1368  0.0279 -0.1099
36191W        W37055  25.401  16.491   0.498  0.1541  0.0471  0.0871
36192W        W37056   3.725  12.737  12.584  0.0372 -0.2115 -0.2247
36193W        W37057   2.829  13.892   3.052 -0.1401 -0.1812 -0.1079
36194W        W37058   5.678   6.082  12.256 -0.1569 -0.0972  0.0489
36195W        W37059   5.452  27.225  11.752  0.0698  0.1557  0.1122
36196W        W37060  10.278   7.787   7.002 -0.0310  0.2854 -0.0031
36197W        W37061   1.644  12.045   7.881 -0.0133  0.1480  0.1380
36198W        W37062  11.560  13.747  15.361  0.0698  0.0539 -0.1651
36199W        W37063  22.133  15.740  25.473  0.0186 -0.0774  0.1747
36200W        W37064  25.805   9.518  24.651 -0.1114  0.1536 -0.3139
36201W        W37065  11.188  19.394   2.632  0.2209  0.0713 -0.2437
36202W        W37066   5.236  20.073   3.920 -0.0479  0.0092  0.1259
36203W        W37067  27.660  24.955  15.551 -0.2244  0.1233  0.1948
36204W        W37068   7.494  19.380   6.012 -0.1051 -0.0991 -0.0492
36205W        W37069   9.730   0.101  24.803  0.0713 -0.2437  0.0852
36206W        W37070  22.480  27.147  14.791  0.0388  0.3415  0.0257
36207W        W37071   7.487  24.713  14.310 -0.0083 -0.0188  0.1850
36208W        W37072   3.831   5.118  10.358 -0.3917 -0.0694 -0.2456
36209W        W37073  27.288  18.770  17.085  0.0150 -0.0480  0.0903
36210W        W37074   7.336  11.302   1.954  0.0358  0.1599  0.4999
36211W        W37075  27.964  21.778   8.168 -0.1000 -0.0249 -0.1108
36212W        W37076   5.528  28.658   3.742 -0.0252  0.1742  0.1869
36213W        W37077  20.113  23.471  15.852  0.1096 -0.0915  0.2889
36214W        W37078   6.196   7.747  24.115  0.0092  0.4102  0.1172
36215W        W37079   8.327  12.673  11.401 -0.0969 -0.2623  0.0470
36216W        W37080  23.676  16.248  21.221  0.0555 -0.0972 -0.0677
36217W        W37081   8.241  22.329  18.354 -0.1475  0.1041  0.2221
36218W        W37082  19.016  13.259  11.313 -0.1465  0.0091  0.1100
36219W        W37083  11.655  15.368  14.759 -0.2171 -0.2532 -0.2423
36220W        W37084  16.349   8.411  13.328  0.2304 -0.1889  0.2221
36221W        W37085   0.992  14.032   3.544 -0.0055 -0.1585  0.2127
36222W        W37086  16.913   1.941   9.362  0.0599 -0.0086  0.0474
36223W        W37087  22.229  18.214  11.529  0.2759 -0.0572 -0.3283
36224W        W37088  14.062   2.457  19.886 -0.1941  0.0273  0.0287
36225W        W37089  27.056  25.129   2.831  0.4727  0.0453  0.0096
36226W        W37090   7.187  14.749   3.238 -0.0096 -0.1474  0.0547
36227W        W37091   9.829  25.326  10.835  0.0373  0.0118  0.2217
36228W        W37092  16.826  21.934  19.009 -0.0463 -0.2533  0.1263
36229W        W37093  26.912   6.689   3.106  0.1689  0.2357 -0.1061
36230W        W37094   3.725  19.846  25.805  0.0341 -0.0869 -0.1083
36231W        W37095  12.181   6.593   7.235  0.0286  0.1661 -0.3814
36232W        W37096  27.615   4.410   4.047 -0.0050  0.1354  0.0812
36233W        W37097   6.703   7.888   6.693  0.0881  0.2220 -0.1323
36234W        W37098  15.310   3.317   2.061  0.1305 -0.1291  0.1673
36235W        W37099   5.216   7.148   7.478 -0.2524  0.1159 -0.0421
36236W        W37100   4.829   4.093   9.849  0.0066  0.0453  0.0735
36237W        W37101  28.156   8.219  10.192 -0.0078  0.0396  0.0069
36238W        W37102  22.603  24.081  16.811  0.0570 -0.0708  0.0018
36239W        W37103   8.586  15.664  10.494  0.0867 -0.0033  0.0066
36240W        W37104   1.206  24.624  22.632  0.1469  0.1910  0.0138
36241W        W37105  10.027   7.226  24.848 -0.3188  0.1588 -0.0181
36242W        W37106  21.735  14.261   7.585 -0.0071 -0.2716 -0.3947
36243W        W37107  18.340  26.193   6.798  0.1093  0.0189 -0.3061
36244W        W37108   7.665   1.494  13.949  0.0981 -0.1293  0.0131
36245W        W37109  10.210  16.273  18.825  0.0494 -0.2072 -0.0219
36246W        W37110   0.630   3.722  13.982  0.1709 -0.0725 -0.1340
36247W        W37111   2.710  10.719  25.065  0.1246  0.4152  0.0664
36248W        W37112   6.716  21.942   7.343 -0.0710  0.2301 -0.0409
36249W        W37113  19.231  25.607  12.136  0.1377  0.1509 -0.0869
36250W        W37114  18.750  25.520   1.706 -0.3048  0.4133  0.0763
36251W        W37115  16.086   1.722  13.699 -0.0126  0.3346  0.0284
36252W        W37116  25.249   1.691  21.060  0.1839 -0.0565 -0.2125
36253W        W37117  20.309   4.071   3.440  0.1601 -0.3009  0.1220
36254W        W37118   0.672   0.345  23.923 -0.2193  0.0074  0.1993
36255W        W37119   2.023  27.953  10.023  0.0702  0.1056 -0.0296
36256W        W37120  25.822  22.980  26.660 -0.0342 -0.2205 -0.0673
36257W        W37121  22.853   4.186   7.963 -0.1650  0.0027 -0.1815
36258W        W37122  12.524   7.700   9.469  0.0739  0.1620  0.0434
36259W        W37123  14.659  22.521  28.557  0.2788 -0.0325 -0.0324
36260W        W37124  29.076   4.841   0.152 -0.1939  0.0726 -0.3957
36261W        W37125  21.409  11.784  20.957 -0.2330 -0.0994 -0.2275
36262W        W37126  28.601  13.935  12.529 -0.1252 -0.2132  0.0201
36263W        W37127  28.357  13.459  10.616  0.2361 -0.1545 -0.2706
36264W        W37128   8.798  22.841   8.158 -0.4021 -0.0474  0.2379
36265W        W37129  14.044   6.868  20.120 -0.1026 -0.1374 -0.0671
36266W        W37130  24.499   0.030   5.663 -0.1382 -0.1436 -0.0365
36267W        W37131   5.319  13.469  16.814 -0.0038  0.2046  0.2402
36268W        W37132  23.335   5.507   9.231 -0.2666  0.1788  0.1784
36269W        W37133  19.530  21.363   7.844 -0.1618 -0.3299 -0.1023
36270W        W37134  12.733   8.176  14.382 -0.2842  0.1397  0.0232
36271W        W37135  24.133   6.094  27.848  0.1540 -0.1208  0.0770
36272W        W37136  25.796  14.354  27.223  0.1433  0.0125  0.2222
36273W        W37137  27.118   1.350  11.675  0.1394 -0.1570 -0.0353
36274W        W37138  12.790  12.213  18.290  0.1251  0.0385  0.0765
36275W        W37139  20.949   7.983   3.448  0.0707 -0.1959 -0.1546
36276W        W37140  20.207   4.822  14.401 -0.0454 -0.4870 -0.2789
36277W        W37141  24.034   8.062  23.481 -0.0912  0.1614  0.0094
36278W        W37142  12.521   1.819   8.586  0.0390  0.2416  0.0989
36279W        W37143  13.174  13.184  20.725  0.2084 -0.0167 -0.1934
36280W        W37144  28.667  14.884  15.648 -0.1061  0.0520  0.1684
36281W        W37145   7.829  22.297  28.382 -0.1032 -0.1578  0.1017
36282W        W37146   1.713   4.851   5.794  0.0769  0.4811 -0.1060
36283W        W37147  21.213  28.695  15.382  0.1287  0.3032 -0.1491
36284W        W37148   6.505  21.951   2.217  0.2843  0.1517  0.2819
36285W        W37149  22.254  18.969   4.513 -0.0328 -0.1050 -0.2933
36286W        W37150  26.128   2.586  13.977 -0.0469 -0.1409 -0.3273
36287W        W37151  18.564   5.635  21.240  0.3803 -0.0387 -0.2532
36288W        W37152  12.072   8.341  20.709  0.3507 -0.0649 -0.2143
36289W        W37153  13.794  22.715  11.932 -0.0750 -0.2278  0.2385
36290W        W37154   6.965  13.845  13.117  0.1179  0.0240  0.0350
36291W        W37155   9.798   9.301  10.935 -0.0571  0.2154  0.0041
36292W        W37156  28.588   9.738   9.834  0.1056 -0.1133  0.3702
36293W        W37157   4.368   6.376   8.121  0.0080 -0.0725 -0.3376
36294W        W37158   5.615   7.374   8.323 -0.1307 -0.0818 -0.0316
36295W        W37159   8.088  15.618   1.800  0.0600 -0.0699  0.1227
36296W        W37160  21.204  26.882   7.132 -0.1968  0.0107  0.1544
36297W        W37161  13.195   4.725   8.297  0.0152 -0.1846 -0.0286
36298W        W37162  10.364  11.217  21.136 -0.2806  0.3308  0.0778
36299W        W37163   2.612   5.548  28.527  0.3366  0.0612  0.0574
36300W        W37164   6.545  20.374   4.384  0.2479  0.2762  0.1070
36301W        W37165  14.740  12.057  23.318 -0.1863 -0.2475  0.0735
36302W        W37166   8.057  20.557  20.095  0.0573  0.4284 -0.1402
36303W        W37167   0.015  23.413  12.138 -0.0784  0.0282  0.0120
36304W        W37168   2.837  16.814   8.106 -0.4112 -0.2256 -0.0840
36305W        W37169  25.521   4.365  24.798 -0.0787 -0.2432 -0.2067
36306W        W37170  12.709   4.761   2.894 -0.1931  0.1619  0.1051
36307W        W37171  15.246  28.710  10.061 -0.3055 -0.2486  0.1300
36308W        W37172   6.723   1.382  10.349 -0.0756 -0.0628 -0.1245
36309W        W37173   4.948  15.914  19.460 -0.0292 -0.2732  0.1913
36310W        W37174  11.939  10.044   7.642 -0.1169  0.0818 -0.0282
36311W        W37175   0.544  19.496  17.336 -0.0491 -0.1950 -0.1063
36312W        W37176   5.843  24.858  24.426 -0.2678 -0.2161 -0.1306
36313W        W37177  21.102  10.670  23.918 -0.1122  0.0011 -0.0588
36314W        W37178   7.253  16.233   6.947  0.0833  0.0708  0.2468
36315W        W37179  25.864  11.701  22.123 -0.0699  0.1894 -0.1457
36316W        W37180   4.764  11.584  17.495 -0.0310 -0.4691  0.3227
36317W        W37181  28.998  11.256   9.089  0.1070 -0.0611 -0.1567
36318W        W37182   9.520   8.258  28.970 -0.1500  0.2022 -0.0694
36319W        W37183  13.225   5.128   5.288  0.2890  0.0779  0.1281
36320W        W37184  17.525   0.003   7.878  0.1259 -0.1709 -0.3264
36321W        W37185  10.089  18.803   5.878  0.0699  0.0976  0.1135
36322W        W37186   5.495  20.100  21.907  0.0999  0.0230  0.2535
36323W        W37187  21.077  15.355  10.456  0.1641 -0.0495 -0.1392
36324W        W37188  15.976  29.125   4.488 -0.4021 -0.2610  0.1676
36325W        W37189   3.287   9.908   2.634 -0.1946  0.0284 -0.0234
36326W        W37190   2.997  10.712  21.273  0.2198  0.0949 -0.1145
36327W        W37191   5.296  16.959  24.502 -0.1594  0.1872 -0.3031
36328W        W37192  27.525  21.375  19.740 -0.0909  0.1586  0.1451
36329W        W37193   2.810  14.767  16.410 -0.0856 -0.1927  0.0880
36330W        W37194  21.229   5.019   6.060  0.0555  0.1346 -0.0839
36331W        W37195   4.989  22.663   9.563 -0.1448  0.2021 -0.1008
36332W        W37196  25.111  23.882   9.988 -0.1094  0.1817  0.1334
36333W        W37197  18.136  12.811   3.675  0.0098  0.2959  0.0606
36334W        W37198   4.472  20.181  21.088 -0.0921 -0.0140  0.1292
36335W        W37199   2.584   4.620  15.301  0.2129  0.2778 -0.1597
36336W        W37200   9.542  24.169  20.191  0.2172 -0.1874  0.1245
36337W        W37201   2.825  23.216  12.933  0.1538  0.2964 -0.1425
36338W        W37202   7.587  18.062  26.497  0.1825  0.0599 -0.0363
36339W        W37203  28.973   5.037   3.305  0.0367 -0.3899 -0.0054
36340W        W37204  16.883  16.700  26.295 -0.0522  0.3027  0.2131
36341W        W37205  11.132  14.063  12.820  0.1880 -0.4130  0.0401
36342W        W37206   5.452  22.872   4.220  0.2066  0.0923 -0.1300
36343W        W37207   3.045  29.095   6.174 -0.0109 -0.0581 -0.1645
36344W        W37208   0.636   8.216   9.077 -0.2066 -0.2047  0.0704
36345W        W37209  27.632   1.696  26.123 -0.2085 -0.4557 -0.1895
36346W        W37210  24.815   6.795   3.802  0.0513 -0.2585  0.3834
36347W        W37211  20.349   9.528  20.024  0.0458  0.0092 -0.0420
36348W        W37212   5.815  14.544  16.861 -0.3157  0.0671 -0.0099
36349W        W37213  25.163  24.104  26.986 -0.3980  0.0179  0.2324
36350W        W37214  29.079  23.809   0.311  0.0428  0.3540 -0.5305
36351W        W37215   3.288   4.626  17.723 -0.1520 -0.0271  0.0905
36352W        W37216  12.129  25.594   5.864  0.0572 -0.2463 -0.1039
36353W        W37217   3.059  23.960  22.859 -0.2325  0.4245 -0.0643
36354W        W37218  26.182  10.160  12.683 -0.2846  0.0244 -0.1921
36355W        W37219  19.550  11.536  25.284  0.0227 -0.1843  0.0062
36356W        W37220  27.620   6.673  10.195  0.1192  0.0741  0.0058
36357W        W37221  11.871   7.504   1.628  0.0348 -0.2264  0.3397
36358W        W37222   2.214   5.491  26.257  0.0706  0.0951 -0.4828
36359W        W37223  13.032  13.355   4.988 -0.1480 -0.1758  0.0038
36360W        W37224  28.852  10.202   8.257 -0.2096  0.0342 -0.1705
36361W        W37225   1.221  18.297   8.619  0.1348 -0.0441 -0.0616
36362W        W37226  12.126  14.947   8.638  0.0004 -0.3670  0.2277
36363W        W37227  23.791  14.988  23.256  0.0895  0.5087 -0.0225
36364W        W37228   2.933  21.672  19.107  0.1534 -0.2499 -0.3336
36365W        W37229  13.653  17.184  16.068 -0.1635 -0.1757  0.0697
36366W        W37230   8.529   3.733   0.149  0.0824 -0.1664  0.0724
36367W        W37231  21.617   6.310  20.308  0.0806 -0.1092  0.2301
36368W        W37232   6.239  24.782  13.960 -0.0159 -0.0320  0.0116
36369W        W37233  16.036  25.460   0.461  0.2423 -0.1469  0.1953
36370W        W37234  13.246  27.577  26.528 -0.0079 -0.2746 -0.0107
36371W        W37235   1.887  19.660   4.716 -0.2274 -0.2297 -0.0734
36372W        W37236   6.152  10.821   7.174 -0.1315 -0.3516 -0.0743
36373W        W37237  23.501  10.690  20.245 -0.2541  0.1163  0.0129
36374W        W37238  28.605   5.000  26.810  0.1250  0.0979 -0.0697
36375W        W37239   7.876   6.115   7.479  0.0324  0.0397 -0.2169
36376W        W37240  24.607   3.581  22.162 -0.1861 -0.0178  0.0499
36377W        W37241  17.796   5.293  28.317  0.4317 -0.1844 -0.2127
36378W        W37242  20.232  16.721   3.082  0.0712 -0.1051 -0.1008
36379W        W37243  23.536  28.778  11.559  0.1054 -0.4541 -0.1226
36380W        W37244   0.985  19.619  17.598 -0.3424  0.3286 -0.0830
36381W        W37245   8.549  18.077   7.307  0.0505  0.0421  0.0535
36382W        W37246  22.240  12.448   8.117  0.3082  0.3463 -0.3004
36383W        W37247  23.929  27.144   8.116  0.0405 -0.1127 -0.0099
36384W        W37248   4.470  12.745  14.899  0.3275  0.1685  0.2140
36385W        W37249  19.552  24.845  16.523 -0.0572  0.0684  0.0394
36386W        W37250  16.716  25.108  14.172  0.1357  0.0065 -0.0894
36387W        W37251   6.999  24.997  18.446  0.0473 -0.1849 -0.1262
36388W        W37252  17.267  15.903  22.427 -0.3364  0.2324  0.1639
36389W        W37253  25.692   8.675  12.685 -0.1724  0.1327  0.0768
36390W        W37254   0.086  14.811  10.331 -0.1060 -0.2358 -0.2624
36391W        W37255  21.784   7.666   5.974 -0.1459 -0.2065 -0.1699
36392W        W37256   5.693   7.763  13.108 -0.2202  0.0114 -0.1615
36393W        W37257  18.316  14.663  14.436  0.1366 -0.0160  0.1266
36394W        W37258   7.410   7.818  11.412 -0.0542  0.1900  0.0330
36395W        W37259  29.138  16.111   6.582 -0.0019 -0.1710  0.0225
36396W        W37260  11.548  18.517   4.131  0.1665  0.2128  0.0471
36397W        W37261  14.473   7.844   7.355 -0.3414  0.0925  0.3913
36398W        W37262  13.301  18.848  21.209 -0.2453 -0.4396 -0.1197
36399W        W37263  16.965  13.851  16.861  0.2953 -0.1310 -0.0558
36400W        W37264  10.099   8.102  28.716  0.0048 -0.2321  0.0440
36401W        W37265  23.369   2.837   8.016 -0.2203  0.1667 -0.0709
36402W        W37266  23.913  23.314   3.910  0.0778 -0.2848 -0.0081
36403W        W37267  17.126  21.311  17.670  0.0514  0.2104 -0.3601
36404W        W37268  23.215  16.874  25.367  0.1744  0.3071  0.2612
36405W        W37269  12.843  26.061   1.883 -0.1014  0.0985  0.0804
36406W        W37270  17.932  17.509  27.729 -0.1935 -0.0888  0.0821
36407W        W37271  15.105  28.234  19.816  0.1553 -0.1735 -0.1344
36408W        W37272  12.063   2.891  26.467 -0.3454  0.3525  0.1815
36409W        W37273  24.733  12.578  29.082 -0.0614  0.1365 -0.0741
36410W        W37274   6.841  15.704   3.429 -0.0494 -0.1326  0.1758
36411W        W37275  15.813   5.837   7.946 -0.0261  0.1493  0.0899
36412W        W37276  14.986   8.765  27.657  0.0672 -0.0694  0.0167
36413W        W37277  14.548   7.074   6.040  0.3271  0.0154  0.0196
36414W        W37278   0.724   1.533  12.187 -0.1051  0.1595  0.0879
36415W        W37279  11.247   4.417  14.442 -0.2493 -0.2345 -0.0789
36416W        W37280  12.647  19.637  27.883 -0.0877 -0.3193 -0.0887
36417W        W37281  23.782  19.694   2.156 -0.0594 -0.2952 -0.2022
36418W        W37282  27.878   3.647   6.945  0.3992  0.2031 -0.1269
36419W        W37283  11.993  13.198  17.500  0.0722 -0.0366  0.0377
36420W        W37284  24.429  14.147   0.971 -0.0073 -0.1378  0.1598
36421W        W37285  14.654   2.924  16.825  0.1326 -0.0551  0.1604
36422W        W37286  26.046   5.109  18.316 -0.2067  0.0299  0.1055
36423W        W37287   2.292  19.177  28.282 -0.1516  0.1681 -0.0071
36424W        W37288  23.678  21.688  17.927 -0.5142  0.0382 -0.1241
36425W        W37289   9.400  18.722   8.815  0.3045  0.0453 -0.0168
36426W        W37290  25.341   1.351  23.366 -0.1248  0.0818 -0.0907
36427W        W37291  14.326  17.504  19.649 -0.1554  0.1208  0.0396
36428W        W37292  20.038   9.699  20.467  0.0611 -0.0853 -0.1177
36429W        W37293   1.907   9.942  23.831  0.1428  0.3005 -0.0244
36430W        W37294  28.064  14.509   1.888  0.0326 -0.0027  0.5321
36431W        W37295  11.181  24.149  15.053  0.1752 -0.0647  0.1696
36432W        W37296  13.060   1.387  21.902 -0.0759  0.0297  0.1426
36433W        W37297   7.456  11.849   7.865 -0.0221  0.0835  0.0462
36434W        W37298  23.465  24.206   4.113 -0.1472  0.0838  0.0229
36435W        W37299  26.177  16.144   9.030  0.1694 -0.2801  0.0968
36436W        W37300  15.712   1.764  17.711 -0.1438  0.1052  0.1683
36437W        W37301  12.426  25.636   7.449  0.1277  0.2344  0.0894
36438W        W37302  18.491  14.297   9.718 -0.4108  0.2597  0.3032
36439W        W37303   9.170   9.878  15.469  0.1511  0.3090 -0.1837
36440W        W37304   1.971  14.303  18.490  0.0279  0.2303 -0.0574
36441W        W37305   9.217  19.412   1.354  0.1287 -0.0315 -0.1936
36442W        W37306   6.422  14.896   4.777 -0.1129 -0.2507  0.1462
36443W        W37307  10.218   4.286   3.990 -0.0850  0.3976  0.0353
36444W        W37308  16.641  17.709  28.026  0.2872 -0.2347 -0.0742
36445W        W37309   9.412  27.887  11.456  0.0359  0.1069 -0.2429
36446W        W37310   1.329   5.485  16.452  0.0611  0.0631  0.0515
36447W        W37311  25.777   5.074  26.950 -0.0290  0.0649 -0.0214
36448W        W37312  25.189  28.594  15.630  0.0128 -0.1123  0.0188
36449W        W37313  25.110   0.516   8.476  0.0007 -0.0233  0.4767
36450W        W37314  29.066  24.010  28.546  0.0259 -0.3293  0.1159
36451W        W37315   9.093   5.664  11.420  0.0496  0.1674  0.2334
36452W        W37316  17.611  27.001  25.792  0.2359  0.1758  0.1207
36453W        W37317  11.548  19.690  25.658  0.1433  0.0412  0.3370
36454W        W37318   6.337   1.658  12.894  0.0880  0.0593 -0.0175
36455W        W37319  26.917   2.738  16.916 -0.0576  0.0750  0.2115
36456W        W37320   3.115  16.839  15.092 -0.0740 -0.0033 -0.0116
36457W        W37321   5.432   4.970  21.173  0.1724  0.0672  0.2215
36458W        W37322   7.367   3.247   5.658 -0.1172 -0.1215  0.4443
36459W        W37323   9.683   6.953   3.431  0.1143  0.1487 -0.1232
36460W        W37324  14.425  16.005  25.815  0.3941 -0.4769 -0.2406
36461W        W37325  23.559  22.307   2.441 -0.1617  0.0955 -0.0339
36462W        W37326   5.621  26.801  13.133 -0.1272  0.1552 -0.0791
36463W        W37327   0.758  10.485  10.571 -0.1275 -0.1599  0.0119
36464W        W37328  27.303  21.658  22.728 -0.2121 -0.3405 -0.2292
36465W        W37329  23.593   4.103   5.243 -0.0686  0.0147  0.3582
36466W        W37330  22.110  15.042   1.625  0.2344 -0.4768  0.2634
36467W        W37331  11.726  13.039  18.461 -0.2818 -0.2327  0.1162
36468W        W37332  13.460  22.571  12.791 -0.1363  0.2147 -0.2011
36469W        W37333  14.208  25.204   8.022 -0.1556  0.0816 -0.3500
36470W        W37334  24.950  10.536  18.029 -0.2023  0.2018 -0.0311
36471W        W37335   9.485   1.937   0.736  0.1273 -0.2832 -0.0312
36472W        W37336  20.332  17.797   4.076 -0.1627  0.4230  0.1608
36473W        W37337  14.851   8.097  10.231 -0.0092  0.2184 -0.0838
36474W        W37338  18.011  13.708   4.979  0.1375  0.0273  0.0347
36475W        W37339  15.423  28.310   7.324 -0.3423 -0.0570 -0.1222
36476W        W37340  22.909  13.281   7.479 -0.0889  0.1004 -0.0139
36477W        W37341  20.341   7.810  24.182 -0.0081  0.2478 -0.0794
36478W        W37342   2.142  26.614   1.759 -0.0924  0.0411 -0.0311
36479W        W37343  14.377   4.852  24.218 -0.0398  0.0362  0.0153
36480W        W37344  10.127   4.749  19.547 -0.0233  0.0922  0.2027
36481W        W37345  11.075   8.011  17.619  0.3165  0.1521 -0.1784
36482W        W37346   9.499   9.417   0.419 -0.2968  0.0866 -0.0237
36483W        W37347   7.184  17.428   0.559 -0.0076  0.0780  0.1688
36484W        W37348  26.560   6.309  27.289 -0.0708 -0.2116  0.2209
36485W        W37349   4.480  15.321  14.865  0.0597 -0.1427  0.1129
36486W        W37350  24.234  18.883   0.308 -0.0687  0.0175  0.1288
36487W        W37351  23.980   1.764  17.069 -0.3201 -0.2149  0.1468
36488W        W37352   0.970   2.364   8.946 -0.0352  0.2297  0.1620
36489W        W37353   8.179   6.490   2.864  0.0808 -0.1521  0.0753
36490W        W37354  27.720  19.480  13.755 -0.0999 -0.1981 -0.1030
36491W        W37355  11.765  11.418  10.274 -0.1463 -0.1008 -0.2527
36492W        W37356   5.351  14.712   0.308  0.2196  0.0106  0.0726
36493W        W37357   4.630  22.674   5.223  0.0992 -0.1059  0.3041
36494W        W37358   2.519  20.468  19.920  0.1766 -0.3764  0.1949
36495W        W37359  22.182  21.210  11.409  0.0801 -0.1166  0.0550
36496W        W37360   2.363  13.451  12.204  0.2550 -0.1370  0.1205
36497W        W37361  21.273   2.919   1.900  0.0785 -0.1265  0.1878
36498W        W37362  21.237  25.412   6.082  0.1087 -0.0026 -0.1488
36499W        W37363   4.286   9.960  26.844  0.2497  0.1220  0.1006
36500W        W37364  18.921   2.726  19.681 -0.1598  0.1585  0.1071
36501W        W37365  25.302   9.284  22.772  0.0453 -0.0479 -0.0677
36502W        W37366  13.095  15.897   6.317  0.2415 -0.0222  0.3471
36503W        W37367  22.315   0.259  10.378 -0.0347  0.0882  0.1033
36504W        W37368   8.434  11.619  26.096  0.1482 -0.0478 -0.0300
36505W        W37369   6.976   0.675   7.975 -0.0236 -0.2010  0.2058
36506W        W37370  27.758  20.173  20.427  0.2500  0.1747  0.1577
36507W        W37371  27.360  17.673   8.728  0.1304 -0.0768 -0.0704
36508W        W37372   5.099  19.245   4.605 -0.2211 -0.2618  0.1102
36509W        W37373  10.650  11.844   0.852  0.0636 -0.0347  0.0769
36510W        W37374   6.678   7.872  12.387 -0.0742 -0.1130 -0.2179
36511W        W37375  19.279  14.601  11.088  0.2208  0.1196  0.1643
36512W        W37376  17.480  28.762  24.321 -0.2046 -0.2461  0.0161
36513W        W37377  10.498  18.801  13.306  0.1581 -0.1066  0.0836
36514W        W37378   2.583  24.154  12.800  0.0811 -0.1646 -0.1301
36515W        W37379  15.225   8.398  21.216  0.0883  0.0435 -0.2469
36516W        W37380  23.091   5.475  20.524  0.3783  0.2706 -0.2527
36517W        W37381   5.927  26.693  16.382 -0.0665  0.0850 -0.0895
36518W        W37382   6.565  18.758  20.387 -0.0714 -0.0653  0.0058
36519W        W37383   7.035  19.935  20.921 -0.0487  0.1477 -0.1676
36520W        W37384   4.940   8.698  28.774 -0.2632  0.2242 -0.0502
36521W        W37385   3.525  16.466  25.363  0.2678  0.0357 -0.0016
36522W        W37386  26.815  23.355  27.355  0.1926  0.0194 -0.1813
36523W        W37387  17.382   3.050  10.622  0.2011 -0.1482  0.0658
36524W        W37388  21.077   5.392   2.157  0.0594  0.2951  0.0955
36525W        W37389  24.691  11.924  15.132 -0.2257  0.0647  0.1389
36526W        W37390  10.315   5.534   2.264 -0.0584 -0.0840  0.0556
36527W        W37391  12.502  15.282  22.004  0.3379  0.0953 -0.1177
36528W        W37392  14.252  12.838   0.012 -0.2150 -0.0287 -0.0173
36529W        W37393   3.694   9.111  14.471 -0.2977 -0.1425  0.1274
36530W        W37394  22.805  29.019   9.875 -0.0256 -0.0941 -0.0119
36531W        W37395  26.323   7.066  23.876 -0.1524 -0.0344 -0.1429
36532W        W37396  20.906  28.650   1.502 -0.0593  0.2236  0.0447
36533W        W37397  19.719  14.700   3.093  0.0851  0.0989  0.0022
36534W        W37398  16.731  12.571  15.565  0.0591  0.1787  0.0914
36535W        W37399  15.247  20.334  17.188  0.1749 -0.4170 -0.1479
36536W        W37400  20.166   6.486   6.275  0.0853  0.1511 -0.0504
36537W        W37401   7.004  11.355  20.955  0.3293  0.1030 -0.3153
36538W        W37402  25.017  13.184   1.185 -0.0378  0.2223 -0.0882
36539W        W37403  29.072  15.041  12.129  0.0054 -0.1329 -0.1653
36540W        W37404  17.236   2.001  26.992 -0.1000  0.1209 -0.3571
36541W        W37405  25.758  27.920  22.648 -0.0924  0.4094 -0.2170
36542W        W37406  20.718  17.154  28.539 -0.1992 -0.0029  0.1581
36543W        W37407  24.666  26.985   9.186 -0.1927  0.0890 -0.2369
36544W        W37408   9.996   6.440  16.510 -0.5327 -0.1138  0.0784
36545W        W37409  19.334  13.384  13.212  0.1252  0.2817  0.1418
36546W        W37410   0.200  28.216  28.611 -0.0760 -0.1726  0.1356
36547W        W37411  11.461  24.316  15.424 -0.1186 -0.1621  0.0297
36548W        W37412  14.281  21.814  15.506 -0.0217 -0.2755 -0.3278
36549W        W37413   8.822  17.140  11.058  0.2177  0.0732  0.0746
36550W        W37414  10.868  25.400  28.984 -0.1616 -0.0002  0.1036
36551W        W37415  22.749  28.334   9.850  0.0075  0.1844 -0.2573
36552W        W37416  27.764  18.269   0.169  0.5614  0.1671  0.0333
36553W        W37417  10.620   2.226  11.923 -0.1804  0.1382 -0.1961
36554W        W37418   1.460  26.308  11.402 -0.4011 -0.2640  0.1142
36555W        W37419   6.400  11.451  10.343  0.1754 -0.2141  0.1255
36556W        W37420  22.749  27.071  27.377 -0.0780 -0.1499  0.0649
36557W        W37421   8.883  23.751   2.961 -0.0600  0.0890 -0.1131
36558W        W37422  25.457  23.913   8.014  0.0560  0.1137 -0.2997
36559W        W37423   0.340  10.696   1.848 -0.1770  0.1445  0.0524
36560W        W37424  11.791  14.913   5.108  0.3227  0.0243  0.1035
36561W        W37425  12.738  11.635  27.738 -0.2325  0.1275  0.1733
36562W        W37426   8.317   7.698  28.597  0.1689  0.0755  0.4327
36563W        W37427   4.580  18.029  11.696  0.1420 -0.1409 -0.1651
36564W        W37428   8.943   8.067   6.420 -0.2241  0.0505  0.1573
36565W        W37429  22.147   8.435  23.440  0.0304 -0.2174  0.0130
36566W        W37430   8.172  17.803  18.769  0.1223  0.1007 -0.2815
36567W        W37431  24.124  22.252  24.210 -0.0895 -0.1174  0.0401
36568W        W37432  13.447  11.636  20.409 -0.4524  0.0907 -0.3263
36569W        W37433  20.774   4.841   9.409  0.1857  0.1657  0.0832
36570W        W37434  16.665  25.786  20.437 -0.2452  0.0151  0.2377
36571W        W37435  20.005  23.323   4.588  0.0227 -0.0050  0.1624
36572W        W37436   4.493  28.862   1.966 -0.0742 -0.2968  0.2029
36573W        W37437  18.238  17.981   4.081  0.0421  0.2149 -0.0923
36574W        W37438  28.555   3.692  26.697 -0.2510  0.1347 -0.1540
36575W        W37439  10.821   4.775  19.355  0.6969 -0.0207 -0.2397
36576W        W37440  20.872  21.169   3.765 -0.1538  0.2139 -0.2222
36577W        W37441   8.413  11.425  28.860 -0.0153 -0.0334  0.1401
36578W        W37442   4.882   8.673  25.161 -0.2342 -0.1054  0.0748
36579W        W37443  15.325   7.848  10.218  0.1090 -0.0643  0.1452
36580W        W37444  27.167   0.799  15.601 -0.0094  0.1150 -0.0543
36581W        W37445  12.387  15.761  14.398  0.1115  0.0858 -0.0411
36582W        W37446   1.927  11.800  14.406  0.2595 -0.0624  0.3353
36583W        W37447  26.699  25.916  11.228  0.0766 -0.1551 -0.2294
36584W        W37448  13.336  18.135  25.693  0.0407  0.0161 -0.0619
36585W        W37449  27.727   7.320  11.689 -0.1027  0.1537  0.0072
36586W        W37450  16.442  16.843   7.712  0.0754 -0.1419 -0.0447
36587W        W37451   4.262   5.549  14.868 -0.0005  0.1714  0.1222
36588W        W37452  14.148  17.950   6.352  0.0015  0.1940  0.2308
36589W        W37453   2.779  15.729  27.576 -0.2148 -0.2841  0.0414
36590W        W37454  17.309  12.748   8.216  0.0992  0.0026  0.0248
36591W        W37455   8.413  10.670   5.140 -0.4220  0.2313  0.0554
36592W        W37456   5.598   0.023  28.644  0.1282  0.2126 -0.0212
36593W        W37457  18.041   3.393   4.464  0.1650 -0.3875 -0.1442
36594W        W37458   3.823  14.371  21.529 -0.0374  0.0377  0.4000
36595W        W37459  23.895  15.995   6.693  0.1954  0.1314 -0.2552
36596W        W37460  16.605  17.942  14.934  0.1958  0.2079  0.1568
36597W        W37461  10.804   1.863  21.090  0.2849 -0.0937 -0.0015
36598W        W37462  24.798  13.896  10.230  0.2343 -0.0114  0.0524
36599W        W37463  12.995   2.946  15.091  0.0830 -0.1430  0.0826
36600W        W37464  25.601   6.526  12.606  0.0850 -0.2883 -0.2114
36601W        W37465   6.719  13.225  23.627 -0.1613  0.3732 -0.1689
36602W        W37466   5.546   9.507   1.325  0.0058  0.2631 -0.0065
36603W        W37467  19.262  18.404   9.118 -0.1317  0.1942  0.1567
36604W        W37468  28.994  10.038  18.325 -0.1520 -0.1832  0.1753
36605W        W37469  25.642  11.484  13.168  0.0175  0.1197  0.1811
36606W        W37470   9.017   6.753  13.662  0.0222  0.0315 -0.2073
36607W        W37471   1.421   3.995  13.618  0.0837 -0.1778 -0.0191
36608W        W37472   1.702  24.093  12.482  0.1236 -0.1519  0.1549
36609W        W37473   8.216  17.343  16.282 -0.1749  0.3158  0.1768
36610W        W37474  25.625  12.325   3.404 -0.1541 -0.1003  0.1002
36611W        W37475  25.862  14.915   1.204 -0.2047 -0.2324 -0.0356
36612W        W37476   0.260   9.129   1.021  0.1373  0.1285 -0.0060
36613W        W37477   8.524   9.882  19.314 -0.0509  0.0255 -0.0300
36614W        W37478  15.656  20.890  23.177 -0.0108  0.1124 -0.2486
36615W        W37479  16.318  10.699  18.122  0.1956  0.1766  0.1452
36616W        W37480  19.539  19.331  28.368 -0.1850 -0.0082  0.0124
36617W        W37481  15.098   8.154   1.769  0.0787 -0.1464 -0.1041
36618W        W37482   5.865  22.620  24.588 -0.1132 -0.1096 -0.2318
36619W        W37483  14.448   0.243   8.578  0.1646  0.0777 -0.0495
36620W        W37484  25.028  13.907  20.272 -0.2153 -0.2197  0.0942
36621W        W37485  24.936   5.149   9.898  0.0483 -0.0145 -0.0434
36622W        W37486  17.062  12.303  26.209  0.2607  0.2225 -0.0871
36623W        W37487   0.799   9.180  23.154 -0.2489 -0.0417  0.1834
36624W        W37488  19.010  12.044   5.663  0.2739 -0.0205  0.0611
36625W        W37489  12.537  19.667  22.602  0.2953  0.0994 -0.0701
36626W        W37490  22.502  15.821  14.399 -0.1556  0.2510  0.1479
36627W        W37491  25.441   2.298  24.701  0.1881 -0.2896  0.2969
36628W        W37492  18.157  21.950  11.332 -0.2662  0.2452 -0.0746
36629W        W37493  27.408  25.716  15.851  0.1679 -0.3266  0.0932
36630W        W37494   3.903  23.788   6.708 -0.0053  0.0468  0.2640
36631W        W37495  17.483  27.709  14.708  0.1423  0.3090 -0.2718
36632W        W37496  13.996  11.289  27.266 -0.1126 -0.2612 -0.0012
36633W        W37497  20.402   6.144  18.254  0.0596 -0.1991  0.1744
36634W        W37498  21.695  15.420  16.009 -0.1828 -0.0993  0.0222
36635W        W37499   2.448  19.275   9.522 -0.0263 -0.4286  0.0327
36636W        W37500  11.931  22.183  16.579  0.0868 -0.1553  0.1187
36637W        W37501   5.119  23.170  16.959  0.1526  0.2498  0.1330
36638W        W37502  22.068   7.009  18.615  0.0230 -0.1199 -0.1463
36639W        W37503   5.025   9.497   1.598 -0.1844  0.2325 -0.1458
36640W        W37504   1.718  22.982   2.729  0.3936  0.0310  0.1881
36641W        W37505   4.084  21.477  10.049 -0.0668 -0.1181  0.0907
36642W        W37506  10.212  20.863  12.004  0.1726 -0.2338 -0.1102
36643W        W37507  19.237  22.285  13.668  0.3160 -0.0571  0.2043
36644W        W37508  11.756   0.913  28.675 -0.0868  0.0142  0.0683
36645W        W37509   5.561  13.890  25.216  0.0152 -0.1682  0.0290
36646W        W37510   3.066   3.513  18.757  0.0042 -0.0137  0.1727
36647W        W37511  26.579   5.755  13.854 -0.1535  0.0569  0.0623
36648W        W37512   6.522   7.710  11.413  0.1903 -0.2491  0.1820
36649W        W37513  26.721  10.360   9.535  0.0295 -0.2620  0.2383
36650W        W37514   1.785  25.675  15.822 -0.0216  0.0888 -0.1553
36651W        W37515  26.641  20.983  13.163 -0.0446  0.2024  0.3321
36652W        W37516  27.081   0.214   3.615 -0.1516  0.1595  0.0587
36653W        W37517   4.874   4.825   1.090  0.0613  0.0030 -0.0255
36654W        W37518  23.878  27.651   8.452 -0.0854  0.0681 -0.2764
36655W        W37519   9.618   7.814  28.161  0.1557 -0.2697 -0.2135
36656W        W37520  25.120   9.209   3.757 -0.0657  0.3023  0.0721
36657W        W37521   8.229  11.834  29.095  0.1331 -0.0369  0.0570
36658W        W37522   7.273  12.172   0.177 -0.0516  0.0206  0.1518
36659W        W37523   9.158  13.100   2.032 -0.1082 -0.1052  0.2387
36660W        W37524  16.488  17.360   9.027  0.1692  0.0223 -0.0999
36661W        W37525   1.858   6.499  25.345 -0.3056  0.2576  0.2605
36662W        W37526   6.157  10.739   4.035 -0.0370  0.0962  0.1423
36663W        W37527  24.036  14.561  13.299  0.1665 -0.0506 -0.2644
36664W        W37528  17.086   0.500  22.623  0.2646 -0.0481  0.0347
36665W        W37529   2.240   5.463  20.184 -0.0158  0.2532 -0.1943
36666W        W37530   0.392  24.042  10.532  0.0362  0.0461 -0.1491
36667W        W37531  20.902  16.282  18.857  0.0282  0.1452  0.0496
36668W        W37532  12.838   0.821  15.108  0.0201 -0.0473 -0.2960
36669W        W37533  25.774   2.737  16.070  0.2194 -0.1167 -0.2553
36670W        W37534   4.422  12.663   5.049 -0.1206  0.0769  0.3616
36671W        W37535   8.944   1.068   6.834  0.1069 -0.0443  0.3548
36672W        W37536  24.206   4.310   0.912 -0.1384  0.2846  0.0636
36673W        W37537  21.050  16.727   1.239 -0.2784  0.0020  0.3559
36674W        W37538  28.706  17.393  17.143 -0.1507  0.0578  0.0771
36675W        W37539   8.232   8.078  26.682  0.2780 -0.2507 -0.0710
36676W        W37540   4.607  10.306   9.597 -0.0556  0.1236 -0.0583
36677W        W37541   6.041  16.495   1.371 -0.0134 -0.2299  0.4456
36678W        W37542  10.926  13.331  10.345  0.0395 -0.0494  0.3339
36679W        W37543   9.663   5.319  11.987 -0.0667  0.0010 -0.1761
36680W        W37544  16.930  18.460  25.163 -0.1983  0.0493 -0.4092
36681W        W37545  25.242  15.895   7.334 -0.2532  0.3368  0.2609
36682W        W37546  16.575  18.681   1.757 -0.1283 -0.1827  0.2543
36683W        W37547   0.115   9.153  13.234  0.0777 -0.2751 -0.2455
36684W        W37548   2.873  16.495  18.216  0.1981 -0.0144  0.0479
36685W        W37549   9.442   0.849  16.907  0.2624  0.3395  0.0340
36686W        W37550   3.693   5.514   8.433 -0.3037  0.1833  0.0031
36687W        W37551  25.112   4.928  13.118  0.2140  0.0719 -0.0322
36688W        W37552   5.681   1.756  18.755 -0.0766  0.0966  0.2109
36689W        W37553  16.139  25.284   5.492 -0.3237 -0.0481  0.0899
36690W        W37554   6.951  17.263  17.402  0.0740 -0.0311  0.0768
36691W        W37555  18.704  25.815  22.756 -0.1549  0.2853 -0.0891
36692W        W37556  14.853  20.132  18.164  0.3376  0.1042 -0.0727
36693W        W37557  11.734  19.556   6.250 -0.1251 -0.0258  0.1290
36694W        W37558  16.312  14.703   7.217  0.0697  0.5298 -0.2268
36695W        W37559  21.985  10.368  10.125 -0.1878  0.2220 -0.1262
36696W        W37560   3.132   2.867   2.378  0.5877  0.2362  0.1235
36697W        W37561  13.603   7.968   5.026  0.1350 -0.1932 -0.2663
36698W        W37562   0.013   7.395  24.763  0.0410  0.1335 -0.0113
36699W        W37563  15.731   8.765   1.988 -0.0106  0.4675 -0.0020
36700W        W37564  15.153  18.370  19.459  0.0918 -0.3054  0.1107
36701W        W37565  18.997  16.032  13.901  0.3107 -0.0171  0.0086
36702W        W37566  11.841   9.875   5.668 -0.1209 -0.0618  0.3781
36703W        W37567  26.377  21.727  19.311  0.1278 -0.5984 -0.0364
36704W        W37568   5.140  17.276  26.946  0.0197  0.2765  0.2184
36705W        W37569  24.790  17.080  21.844  0.1715  0.0939 -0.0450
36706W        W37570  24.807  20.003   2.651  0.0289  0.2223  0.1587
36707W        W37571  21.563  16.658  21.448 -0.0640  0.4554 -0.1674
36708W        W37572  21.974   7.952  13.268  0.1317 -0.2553 -0.0135
36709W        W37573   9.153  25.636  11.706 -0.1361 -0.3566 -0.0506
36710W        W37574  22.639  13.554  28.119 -0.1336 -0.1225  0.2706
36711W        W37575  17.031  16.096  14.784 -0.0275 -0.0844 -0.1150
36712W        W37576   2.332   5.587   9.006  0.0707 -0.1880  0.2768
36713W        W37577   2.364  23.827   3.579 -0.0102  0.0013 -0.0537
36714W        W37578  27.418   9.138  12.462  0.1812  0.1561  0.0014
36715W        W37579   9.292  23.076  15.432 -0.1857 -0.0233 -0.1893
36716W        W37580  12.552  21.633   7.896 -0.1409  0.0542  0.2586
36717W        W37581  10.505  27.527  13.716 -0.0505 -0.1297  0.0455
36718W        W37582  22.016   6.564   9.461 -0.1367 -0.0442  0.1985
36719W        W37583  10.396  14.341  11.039 -0.1405  0.3877  0.1297
36720W        W37584  25.409  10.293  22.254 -0.2170  0.0716 -0.4618
36721W        W37585   6.175  10.050  24.199  0.0022 -0.1632 -0.1104
36722W        W37586   1.540  20.475  13.886 -0.0500  0.6000 -0.4019
36723W        W37587   4.197  21.646  27.736  0.0118  0.0761  0.1441
36724W        W37588  11.348  20.203  14.337 -0.1081 -0.3201 -0.1562
36725W        W37589   1.862  27.481  10.239 -0.2035 -0.0385  0.0939
36726W        W37590   9.221  19.381  19.164  0.2285 -0.1389  0.0600
36727W        W37591   8.690  17.422  21.978  0.3698  0.1149 -0.3034
36728W        W37592  10.003  19.336  10.804  0.1977  0.0728 -0.0444
36729W        W37593   7.362   3.050  16.129 -0.2845 -0.0101  0.0278
36730W        W37594  23.416  11.258  20.182  0.1994  0.1181  0.1886
36731W        W37595  27.345   2.038   6.909 -0.2029 -0.0407  0.0985
36732W        W37596  13.821  22.871  21.341  0.0444 -0.1122 -0.0782
36733W        W37597  11.749  28.573  28.651  0.1664  0.1014 -0.0926
36734W        W37598  24.015  26.068  11.203 -0.2591 -0.0664 -0.2528
36735W        W37599  24.453  15.681  15.863 -0.1237  0.1891  0.0975
36736W        W37600  14.555  12.359  21.315  0.1470  0.4317 -0.1698
36737W        W37601  14.498  24.785  21.765 -0.0480  0.1352  0.0685
36738W        W37602   5.410   6.305   9.736  0.0301  0.1452 -0.3203
36739W        W37603  23.615   7.712  10.201 -0.1513 -0.0028 -0.0560
36740W        W37604  16.203  21.726  12.641  0.0023  0.3170 -0.0302
36741W        W37605  17.623  25.841  28.835 -0.4117 -0.1058 -0.1543
36742W        W37606  28.807  14.958  18.651 -0.0374  0.0399  0.2702
36743W        W37607   0.392  14.694  16.997  0.0274  0.1609  0.1000
36744W        W37608  28.340  15.039  24.312  0.1492  0.1078  0.0173
36745W        W37609   3.281  11.341  20.085 -0.2097 -0.1471  0.1127
36746W        W37610  17.735  22.729   7.145  0.2066  0.2644  0.1121
36747W        W37611  29.086  29.039  16.280  0.2995 -0.0099  0.1146
36748W        W37612   4.758  27.372  28.652 -0.0705 -0.0047  0.3019
36749W        W37613   8.920  17.379   9.751 -0.3297 -0.1700 -0.2098
36750W        W37614  12.234   3.612   5.401 -0.2132  0.1876 -0.0200
36751W        W37615   8.861   0.606  28.697 -0.2028 -0.2225 -0.0820
36752W        W37616  26.702  23.363  13.817  0.2932 -0.1722 -0.1502
36753W        W37617   9.287  15.732  13.925 -0.1747  0.0214 -0.1182
36754W        W37618   4.679  25.310   2.872  0.1680  0.0803  0.0508
36755W        W37619  13.695   7.761  25.137 -0.3829 -0.1029 -0.0505
36756W        W37620  10.153  21.102  16.051  0.2141 -0.0651 -0.1056
36757W        W37621   7.957   0.852  10.623 -0.0125 -0.3466 -0.1717
36758W        W37622   5.988  28.645  20.742 -0.2381  0.3771 -0.1222
36759W        W37623  10.955  12.456  18.342 -0.4583  0.2861  0.1204
36760W        W37624  21.712   6.949  16.342 -0.0842 -0.4135  0.0762
36761W        W37625  11.243  14.599  21.897  0.1542 -0.1058  0.1480
36762W        W37626   4.630   5.268  10.763  0.3069 -0.1772 -0.2056
36763W        W37627   7.590  14.692   5.936 -0.3429 -0.0339 -0.2660
36764W        W37628   7.244  17.957  18.468  0.1206 -0.1858 -0.2134
36765W        W37629  26.684  12.510  25.869 -0.0188  0.0339  0.1968
36766W        W37630  29.132  16.411  15.110 -0.0705  0.1548 -0.0257
36767W        W37631  20.619  26.313   1.284 -0.0054 -0.1825 -0.2885
36768W        W37632  15.995  15.935  18.961  0.1144 -0.1391  0.0705
36769W        W37633   2.347  18.766  23.954  0.1721  0.0971  0.2792
36770W        W37634   8.907  18.571  17.245  0.0242 -0.1310 -0.1234
36771W        W37635  15.495  16.432   0.959  0.2752 -0.3205  0.2162
36772W        W37636   5.458  22.550   7.351  0.2231  0.0174  0.0527
36773W        W37637   5.087  18.144  28.139  0.1227 -0.0923 -0.1046
36774W        W37638  28.596   0.190  11.469 -0.0418 -0.1675 -0.0348
36775W        W37639  22.634  15.936  28.333 -0.0586 -0.0118  0.0348
36776W        W37640  18.935   8.748  10.567 -0.0191  0.0085  0.0906
36777W        W37641  15.366  25.228  17.691  0.0227 -0.1206  0.1712
36778W        W37642   4.179  20.688  18.547  0.2477  0.0778  0.0342
36779W        W37643  11.875   0.186  12.564 -0.0858  0.1302 -0.0350
36780W        W37644   0.230  11.532  18.020  0.2955  0.0879  0.0495
36781W        W37645  16.620  15.314  27.093 -0.3586  0.0460  0.1234
36782W        W37646  27.573  14.166  12.549  0.2785  0.1513  0.0307
36783W        W37647  26.838  24.389  15.716 -0.1414  0.0707  0.0409
36784W        W37648  13.440  28.572  10.011  0.0651 -0.1361  0.1509
36785W        W37649  15.209  19.366  19.375  0.4378 -0.0895 -0.1116
36786W        W37650  21.875   8.742  12.721  0.0068  0.2779 -0.0359
36787W        W37651  11.596  27.796  18.824 -0.0078  0.0225  0.2638
36788W        W37652   8.513  26.678  13.827  0.2051 -0.1157  0.0659
36789W        W37653  24.473   9.800   2.172 -0.0723 -0.0973 -0.0645
36790W        W37654   4.391   7.358  20.886 -0.3514  0.1456 -0.0537
36791W        W37655   4.613   7.997  14.734 -0.0908 -0.3490 -0.2862
36792W        W37656   1.346  26.731   3.671 -0.2107 -0.0574  0.2200
36793W        W37657   8.938   4.153  13.110 -0.2578  0.0404 -0.1835
36794W        W37658  18.529  11.167  21.742  0.2638 -0.0363  0.0949
36795W        W37659  19.160  19.962   7.569  0.3957 -0.2587  0.1628
36796W        W37660  23.488  24.692   1.770 -0.0767  0.0404  0.2613
36797W        W37661   2.060  11.864  25.892 -0.0985 -0.0866 -0.0823
36798W        W37662   5.171  20.828  25.042  0.1473  0.0313 -0.1812
36799W        W37663   8.672  19.177   4.050 -0.3129 -0.1458  0.3361
36800W        W37664  10.921   9.266  16.439 -0.0611  0.5434  0.3471
36801W        W37665  15.517   7.599   3.911 -0.3409  0.1025 -0.0621
36802W        W37666   7.563   6.359   0.275 -0.0375 -0.0389  0.3238
36803W        W37667  20.728  20.805  26.861 -0.0200 -0.1519  0.0752
36804W        W37668   0.044  24.565  26.922 -0.0963 -0.0659 -0.0052
36805W        W37669   3.398   4.139   6.553  0.3343  0.1232 -0.0537
36806W        W37670   9.800   7.135   8.092 -0.1381  0.1758 -0.5738
36807W        W37671  12.232   0.808  28.432  0.0393 -0.2529  0.1753
36808W        W37672  23.629   6.131   9.960  0.0402  0.3315  0.0581
36809W        W37673  19.325  28.022  28.021  0.0784  0.0416  0.2127
36810W        W37674   9.999   1.292  19.078  0.0330  0.2140 -0.2383
36811W        W37675   8.417  11.831   7.878  0.1516 -0.0506 -0.0806
36812W        W37676  18.444  14.580  15.314  0.0968  0.3205 -0.1765
36813W        W37677  13.564  17.918  21.126  0.1581  0.1204  0.0879
36814W        W37678  25.041  19.592  20.529  0.0458 -0.0535  0.2600
36815W        W37679   8.969  26.192  13.004  0.3278 -0.0486  0.1226
36816W        W37680   2.881  11.967  18.650 -0.1113  0.2425  0.1241
36817W        W37681  23.405   9.317  15.226  0.0658  0.3095 -0.0521
36818W        W37682  14.515  11.979  18.635  0.2105  0.0364 -0.0269
36819W        W37683   4.564  16.176   9.230 -0.0176 -0.2282 -0.0858
36820W        W37684  21.216  22.654   2.863 -0.2256 -0.2351  0.2024
36821W        W37685   3.590  14.506  28.358  0.2433 -0.0228  0.0721
36822W        W37686   2.292   7.918  15.013 -0.1781 -0.0732  0.2734
36823W        W37687  25.570  26.622  23.201  0.0467  0.2064  0.0355
36824W        W37688   8.681  20.237  21.063  0.2170 -0.2909  0.0207
36825W        W37689   0.889   4.857  12.624  0.2381 -0.3605 -0.1511
36826W        W37690  22.405   5.891  22.393 -0.1125 -0.1385  0.0362
36827W        W37691   4.368  17.671   4.827  0.0126 -0.2459  0.1286
36828W        W37692   6.023  16.852  10.133 -0.1175 -0.2059 -0.0922
36829W        W37693   1.763  18.758  15.287 -0.1019 -0.1092 -0.1406
36830W        W37694   7.135  14.083  25.353 -0.3788 -0.3600  0.0788
36831W        W37695  18.739   9.052  16.614  0.0125  0.0481  0.1373
36832W        W37696  14.224   4.493  27.666 -0.2373 -0.2134  0.1680
36833W        W37697   3.783   5.487  11.863  0.2774 -0.1343 -0.2377
36834W        W37698   5.229   0.882   9.038 -0.0225  0.0069 -0.1406
36835W        W37699   1.114  21.294   8.542 -0.0551  0.2327 -0.1495
36836W        W37700  20.011   8.668  25.139 -0.0220  0.0996  0.1602
36837W        W37701   0.216   4.191   1.395 -0.0722  0.0103 -0.0069
36838W        W37702   4.023   8.811  18.457 -0.0377  0.0362 -0.1485
36839W        W37703  23.345   4.776  24.402 -0.0835 -0.0174  0.3167
36840W        W37704   0.918  28.997  27.144  0.0619  0.0738  0.1992
36841W        W37705  19.897  28.859  16.491  0.1702 -0.1439  0.0307
36842W        W37706  26.938  19.926  16.839 -0.2086  0.0477 -0.0906
36843W        W37707   7.318   1.920  23.129 -0.2401  0.0822 -0.0425
36844W        W37708  10.630   8.931   5.260  0.1482 -0.0598 -0.2959
36845W        W37709   9.940  23.312   8.635 -0.0181  0.0464  0.1423
36846W        W37710   6.162  20.183  21.838  0.0158  0.1279  0.0502
36847W        W37711  19.251  15.149  28.820  0.0021  0.3187  0.4984
36848W        W37712  15.499   6.137  21.169  0.0461  0.4146 -0.0482
36849W        W37713   6.037  24.723  25.377  0.2788 -0.0309 -0.0652
36850W        W37714   4.076  20.271  18.187 -0.1651  0.0000  0.0813
36851W        W37715   8.318   3.525   2.003 -0.2704  0.2837 -0.0900
36852W        W37716   8.707  12.694  20.279 -0.1870  0.0896 -0.0029
36853W        W37717   9.691   5.027  14.425  0.1068  0.1706 -0.0285
36854W        W37718   0.143  26.537  27.110  0.1055 -0.1585  0.0558
36855W        W37719  11.243  26.162  11.646  0.2896  0.0405  0.1412
36856W        W37720  13.836  10.253  26.667 -0.2551 -0.2543  0.2050
36857W        W37721   5.432   8.864  17.694 -0.3627 -0.1449 -0.1098
36858W        W37722  26.999   8.331  17.242 -0.0169  0.0089 -0.0921
36859W        W37723  12.451  13.652   5.379  0.1727  0.2271 -0.0237
36860W        W37724   0.930  10.399   7.093  0.3221  0.0561  0.0092
36861W        W37725  12.181   9.217   7.311  0.1796  0.0708 -0.0393
36862W        W37726   3.220   0.888   0.208 -0.1225  0.1237 -0.1253
36863W        W37727   2.727  13.617  20.481  0.2614  0.0962 -0.1022
36864W        W37728   4.771   7.642  10.319 -0.2001 -0.3029 -0.2065
36865W        W37729  27.982  24.355   9.609  0.2625  0.2004 -0.0072
36866W        W37730  28.665  18.315   9.717  0.2886  0.1573 -0.2617
36867W        W37731  23.850  11.980  10.054  0.1684  0.0632 -0.2794
36868W        W37732  11.169  28.924   8.621 -0.0913 -0.1630  0.0655
36869W        W37733  11.877  23.912  11.253 -0.4713 -0.2102  0.4100
36870W        W37734  11.258  10.226  14.921 -0.3365 -0.0276 -0.1519
36871W        W37735   8.518   5.033  13.550  0.1024  0.2811 -0.0217
36872W        W37736  13.802   7.657  20.516  0.0542  0.0510  0.3085
36873W        W37737   1.838  10.939  11.646  0.1660 -0.1337  0.0475
36874W        W37738   6.078  16.069   1.055 -0.2810 -0.0921 -0.0159
36875W        W37739  28.488  28.473  14.126 -0.0725 -0.3287  0.0522
36876W        W37740  27.453  11.594  17.653  0.1187 -0.1877  0.0878
36877W        W37741   7.038  10.259  12.832 -0.1969  0.1112  0.0379
36878W        W37742  23.046   4.954  16.794  0.1645  0.1004  0.0006
36879W        W37743  12.557  22.087   8.188 -0.0582  0.0098  0.0321
36880W        W37744  18.755  16.651   6.278  0.1165 -0.2918  0.2355
36881W        W37745  17.290  28.541   0.159 -0.0370  0.2441 -0.0837
36882W        W37746  12.626  27.133  22.933  0.2754  0.1112 -0.0890
36883W        W37747  20.358   3.720   4.052  0.1115 -0.0004 -0.2318
36884W        W37748  25.450  21.094   2.237  0.1012  0.0027  0.0091
36885W        W37749   6.943   5.619   3.823  0.0387  0.3122  0.3121
36886W        W37750  26.177  10.894  24.005 -0.1614 -0.3852 -0.1438
36887W        W37751   8.888  27.641  21.098  0.2204 -0.0440 -0.0776
36888W        W37752   3.611  14.403   7.794  0.0815  0.4853  0.3683
36889W        W37753  10.748  11.875  23.157 -0.1969 -0.1520 -0.1324
36890W        W37754  19.494  16.077   8.236  0.0744  0.0176 -0.1485
36891W        W37755  11.148  26.500  13.957 -0.0419  0.0233 -0.0533
36892W        W37756  20.188  10.133  22.634 -0.0424 -0.0739 -0.0873
36893W        W37757  27.333   6.958  11.699  0.1610  0.0148 -0.0306
36894W        W37758  13.495  10.556   1.170  0.0253  0.0764  0.1370
36895W        W37759   5.921   5.600  12.267  0.0204  0.0778 -0.2678
36896W        W37760  15.979  25.558   9.306 -0.0275  0.2528  0.2745
36897W        W37761   8.654   9.240  10.329 -0.2247 -0.2659  0.1093
36898W        W37762  10.360   2.746  25.238  0.1897 -0.1287 -0.2004
36899W        W37763  29.105  12.846  20.939  0.2241  0.2164 -0.0968
36900W        W37764   2.773  10.538  19.721 -0.1715 -0.1073 -0.1298
36901W        W37765  27.858  13.757  16.701 -0.0255 -0.1267 -0.0582
36902W        W37766  17.717  12.262  24.650 -0.3601 -0.1702  0.1460
36903W        W37767  10.249  22.341   4.741 -0.3547 -0.1395  0.1597
36904W        W37768  23.608   9.982  13.422  0.0151 -0.1315 -0.0913
36905W        W37769   7.147   5.983   3.538  0.3384 -0.0289  0.0027
36906W        W37770  14.118   8.754   3.633 -0.0235  0.1589  0.2956
36907W        W37771  16.920   5.310  26.661  0.0435 -0.0031 -0.0346
36908W        W37772  16.896  18.002  15.864  0.1087  0.1494  0.1428
36909W        W37773  25.472   0.599  26.253 -0.0927 -0.1659 -0.1412
36910W        W37774   6.455   4.129  13.414 -0.3207  0.0844  0.0130
36911W        W37775  11.328  25.235  26.422 -0.3123 -0.2079 -0.0135
36912W        W37776  10.137  16.749  15.279 -0.1089 -0.0023  0.1017
36913W        W37777   1.978  27.422  21.121 -0.0314  0.0839  0.3094
36914W        W37778  11.040  17.592  18.850  0.0981 -0.1964 -0.0392
36915W        W37779  26.247  24.498   4.749 -0.0764 -0.3803  0.1165
36916W        W37780  13.734  18.246  12.088  0.0009  0.1064 -0.3837
36917W        W37781  27.352  10.923   7.348  0.2340 -0.3057 -0.0209
36918W        W37782   7.906  21.997  17.216 -0.3554  0.2019  0.2143
36919W        W37783   0.571  26.591   6.492 -0.4596  0.3560  0.0751
36920W        W37784  25.349   1.794   6.757  0.0793 -0.2282  0.0051
36921W        W37785   5.914   0.882   2.575 -0.0930 -0.1098  0.2858
36922W        W37786   5.909  27.973  24.516  0.3373  0.1850  0.0499
36923W        W37787  15.898  20.395  16.172 -0.1149  0.0752  0.1250
36924W        W37788  11.910   9.607  21.822 -0.0397 -0.0954  0.0573
36925W        W37789  26.564  26.693   5.793  0.0120  0.1833  0.0763
36926W        W37790   4.753   7.262  25.015 -0.0786  0.0366 -0.0402
36927W        W37791  15.375  15.380  26.092 -0.1621 -0.0710 -0.0368
36928W        W37792   2.082  22.108  13.017 -0.2299  0.2960  0.0407
36929W        W37793   0.941   4.140   6.737  0.0546 -0.1648 -0.1409
36930W        W37794   7.436  21.810  13.184 -0.0298  0.1273  0.1142
36931W        W37795   4.005  10.163  18.094 -0.0828 -0.0449  0.1176
36932W        W37796   3.968  23.244  28.688  0.0281 -0.3106 -0.0810
36933W        W37797  19.126   7.086  14.658  0.0148 -0.2964 -0.2303
36934W        W37798  23.044   9.319  17.653  0.0754 -0.1577 -0.1431
36935W        W37799   3.575  10.911  17.358 -0.2956  0.0109 -0.2079
36936W        W37800  12.667   7.471  17.895 -0.1415  0.2353  0.0163
36937W        W37801   1.836  22.200  19.307 -0.2754  0.1377  0.1203
36938W        W37802   7.264  17.077  16.062 -0.1900  0.4539 -0.2874
36939W        W37803   7.626  15.768  18.782  0.2130  0.1990 -0.1983
36940W        W37804   5.664  10.425   6.266 -0.2698 -0.0014 -0.1859
36941W        W37805  22.963  24.783  12.226  0.0216  0.0770 -0.2207
36942W        W37806   2.018  19.223  17.910  0.1166 -0.1069 -0.2943
36943W        W37807   9.038  18.393  15.937 -0.0393  0.1068 -0.0909
36944W        W37808  27.296  19.337  17.651 -0.0452 -0.0956 -0.0494
36945W        W37809  21.356  12.930   2.317  0.0605 -0.0858  0.0159
36946W        W37810  18.433   6.110  24.716  0.0853 -0.3280  0.0891
36947W        W37811  22.493  26.863   1.846 -0.0949  0.1368  0.0156
36948W        W37812  21.499  11.734   3.590  0.1568  0.2192  0.1167
36949W        W37813  16.635   6.775  16.285  0.0569 -0.2299  0.0266
36950W        W37814   3.450  11.424  25.391 -0.1076 -0.1219 -0.2125
36951W        W37815   8.617   2.963   3.449 -0.1794 -0.2427  0.2304
36952W        W37816   2.135   7.107  28.040  0.0254  0.0008 -0.1724
36953W        W37817   5.590  13.855  17.592 -0.0713  0.2238 -0.2170
36954W        W37818   2.393  28.820  11.311  0.1083 -0.1386 -0.2287
36955W        W37819  24.374  18.491  21.574 -0.0549  0.0655 -0.0011
36956W        W37820  11.013  19.993   5.574 -0.0849  0.3269 -0.0446
36957W        W37821   5.584   6.012   1.344 -0.1588  0.0774  0.0972
36958W        W37822  24.974   4.531  24.081 -0.2545 -0.0714 -0.3117
36959W        W37823  11.874  16.624  17.921 -0.0842 -0.2661 -0.3075
36960W        W37824  12.908  13.081   8.820  0.0999  0.1931  0.0554
36961W        W37825  11.976  12.604  11.666  0.1161 -0.0737  0.0801
36962W        W37826  25.000  10.694  20.669  0.1573 -0.3107  0.0634
36963W        W37827   4.252  12.768   8.429  0.1857 -0.0326  0.0873
36964W        W37828  22.672  11.630   1.583 -0.0750  0.0874 -0.0016
36965W        W37829  21.543  28.811   7.478  0.0869  0.2190  0.1551
36966W        W37830   8.801  17.188   4.287 -0.0397 -0.1686 -0.2025
36967W        W37831   3.543  17.407   9.546 -0.1011 -0.0601 -0.0222
36968W        W37832  14.192  22.590  27.107  0.1197  0.1460  0.1718
36969W        W37833   8.707   5.515  20.208 -0.0554  0.0381 -0.0748
36970W        W37834  27.876  13.436  23.185 -0.1199 -0.0663 -0.1529
36971W        W37835  21.558   8.393  11.763 -0.0398 -0.0932 -0.1969
36972W        W37836  15.235  12.258   7.074  0.1972  0.0070  0.2683
36973W        W37837   7.000  14.496   7.866 -0.0200 -0.0852 -0.1034
36974W        W37838  27.455  15.958   7.178 -0.4138  0.2928 -0.0076
36975W        W37839  17.420   6.571  11.784 -0.1793  0.2456 -0.1360
36976W        W37840   5.952  13.052   6.874  0.0152 -0.0436 -0.1661
36977W        W37841  10.241  16.831  21.410 -0.1294  0.3122 -0.0817
36978W        W37842  22.401  15.297   2.972 -0.0036 -0.4663 -0.0241
36979W        W37843  15.662   5.595   6.887 -0.1457 -0.0386  0.1502
36980W        W37844  25.922  14.149  20.945 -0.1739  0.2290 -0.2005
36981W        W37845  17.205   2.066  23.764 -0.0942 -0.2283  0.0474
36982W        W37846  15.348  15.846  12.837 -0.3665  0.3535  0.2231
36983W        W37847  28.162   5.564   1.924 -0.0312 -0.1060 -0.0408
36984W        W37848   9.379   9.866  22.179 -0.0125 -0.0096 -0.1279
36985W        W37849  28.532  19.655  15.649 -0.0657 -0.3726 -0.1724
36986W        W37850   4.356  11.089  14.143 -0.1278  0.2352 -0.1804
36987W        W37851  26.039   2.995  16.839 -0.1909  0.0644  0.0199
36988W        W37852   2.765   8.872  17.935 -0.4755 -0.3603 -0.2627
36989W        W37853   1.916  16.508  17.419  0.0248  0.0561  0.0615
36990W        W37854   7.927  22.744  12.681 -0.2008  0.3433 -0.2286
36991W        W37855  16.468  28.832  22.433  0.0453  0.1767  0.2628
36992W        W37856  18.169  27.323  19.936  0.1698  0.1364 -0.0471
36993W        W37857   0.520  20.897  13.795  0.1609  0.2215 -0.1866
36994W        W37858   6.082  12.689  29.007  0.0630  0.2641 -0.0403
36995W        W37859   2.972  17.600  22.237 -0.1238  0.1222  0.0377
36996W        W37860   3.289   6.563  23.574  0.1154  0.1523  0.1421
36997W        W37861   0.509  18.926   0.311 -0.1353 -0.1645  0.0638
36998W        W37862  26.845  28.046  23.621  0.0264  0.2503  0.1451
36999W        W37863   4.084  21.469   0.160 -0.1844  0.0136 -0.5111
37000W        W37864  10.506  24.315  12.868 -0.0832 -0.3493 -0.2582
37001W        W37865  27.458   3.649   7.673 -0.1411  0.0310 -0.1773
37002W        W37866   1.048   4.302   3.049 -0.1148 -0.0119 -0.1316
37003W        W37867  18.343   2.948  21.139  0.0076 -0.1353  0.2061
37004W        W37868  28.465   9.974  13.118 -0.3261 -0.3358  0.1466
37005W        W37869  23.250   1.015   4.895  0.1241  0.0424  0.1159
37006W        W37870  21.275   8.791  24.455  0.0104  0.0386 -0.1098
37007W        W37871  18.467  19.199   5.330  0.2679 -0.1099 -0.1790
37008W        W37872  22.551   7.513  15.855  0.2001 -0.2596  0.0108
37009W        W37873  27.169  15.172   9.981 -0.0591  0.1301  0.0267
37010W        W37874  18.696   0.075  10.415 -0.0348 -0.0157  0.1699
37011W        W37875  21.135  12.731  16.933 -0.1438  0.1753 -0.1981
37012W        W37876  12.547   1.765   7.745 -0.3161 -0.0667 -0.0425
37013W        W37877  12.781  10.735  14.072 -0.2604  0.2033  0.1135
37014W        W37878   8.593   2.766  23.530 -0.1885 -0.3171 -0.2828
37015W        W37879  17.488  18.472   2.829 -0.1888  0.0597  0.0701
37016W        W37880   0.533   5.240   3.489 -0.1913  0.0778  0.1372
37017W        W37881  23.482   3.428  21.251  0.1620  0.2647 -0.1156
37018W        W37882   5.698   1.896  20.961 -0.0223 -0.0370 -0.1880
37019W        W37883  27.497   9.533  28.497 -0.4771  0.1805  0.1093
37020W        W37884  13.964   2.467  18.651 -0.1930  0.2191 -0.1040
37021W        W37885   6.574  26.936   7.812 -0.0851  0.0987  0.0171
37022W        W37886  11.264   6.681  16.509 -0.0658 -0.0092 -0.3701
37023W        W37887   1.387  27.361  28.214  0.1602 -0.1408 -0.1329
37024W        W37888   1.531  17.758   2.636  0.0041  0.0075  0.1316
37025W        W37889  26.546  15.450   5.683 -0.1379  0.3368  0.0567
37026W        W37890  18.597  28.324  18.896 -0.0528  0.1373 -0.0476
37027W        W37891   6.433  25.796  28.242  0.0039  0.1418 -0.0542
37028W        W37892  20.713  18.558  26.615  0.2379 -0.2234  0.0884
37029W        W37893   7.449   2.925  17.179  0.1505 -0.2561 -0.2308
37030W        W37894   0.958   8.668  26.435 -0.0801 -0.1397 -0.2663
37031W        W37895  16.171   4.170  23.962  0.1638 -0.2420 -0.0342
37032W        W37896   3.629  25.255   4.165 -0.1793  0.2394 -0.1323
37033W        W37897  13.098   3.819   3.029 -0.4017  0.1886  0.0455
37034W        W37898   0.695  28.574   0.291 -0.0747 -0.1694  0.0331
37035W        W37899  15.175   7.896  23.876  0.0508 -0.0082  0.0498
37036W        W37900  26.873  11.185  15.923  0.2902 -0.1950 -0.2192
37037W        W37901  27.570   7.141   7.270  0.0367 -0.0418 -0.2133
37038W        W37902  28.013  15.657   2.017  0.0819 -0.2138 -0.2386
37039W        W37903  22.732   5.557  16.036  0.0561  0.1383  0.0554
37040W        W37904  21.819   9.321   6.460  0.2526 -0.1235  0.0852
37041W        W37905  15.845  13.995   5.650  0.0553 -0.2417  0.0759
37042W        W37906  17.193  13.662  18.938 -0.0910 -0.1082 -0.0547
37043W        W37907  22.421  19.916  18.249  0.2936 -0.2134  0.1120
37044W        W37908  22.668  21.016  22.951  0.0482  0.1453 -0.0277
37045W        W37909   9.744  14.587  24.089  0.1944  0.2837  0.1001
37046W        W37910   9.840  26.022  18.739 -0.1077  0.2327 -0.2682
37047W        W37911   5.318  26.342  17.842  0.1404 -0.3564 -0.1934
37048W        W37912   3.301  18.023  20.753 -0.0189 -0.3251 -0.0724
37049W        W37913   3.403   2.339  28.514  0.0026  0.0518 -0.2232
37050W        W37914   7.792   4.549  11.434  0.0955  0.0874 -0.1714
37051W        W37915   5.222  20.900  20.210  0.2259  0.1421 -0.3402
37052W        W37916  16.805   3.142   3.868 -0.0463 -0.2444  0.1593
37053W        W37917  10.452  23.337  15.403 -0.1392  0.1024  0.1585
37054W        W37918   5.409  13.041  20.868  0.1044  0.2197  0.0184
37055W        W37919  12.393  28.777  14.661  0.0399  0.5731  0.0256
37056W        W37920   5.198  11.044  27.762 -0.2394 -0.2848 -0.0191
37057W        W37921   1.847   7.959  11.565 -0.2089  0.0058 -0.1614
37058W        W37922  26.818   3.302  11.979  0.2635 -0.0266 -0.0640
37059W        W37923   6.877   4.333  20.545 -0.1416 -0.0107  0.0575
37060W        W37924  12.455  22.369   3.873 -0.1756 -0.0081 -0.0138
37061W        W37925   5.751  15.272   3.151  0.0677  0.0321  0.0818
37062W        W37926  13.207  22.514  14.694  0.0214  0.0479 -0.0867
37063W        W37927  14.105  23.329  11.143 -0.0969 -0.4403 -0.1767
37064W        W37928   5.266  16.960  18.222  0.0000  0.1602 -0.0718
37065W        W37929  20.428  14.657  13.384  0.1149  0.0786 -0.4635
37066W        W37930  17.927  11.171  10.813 -0.1515  0.1037  0.1166
37067W        W37931   5.961   2.624  28.705  0.1723  0.1637  0.1473
37068W        W37932  18.029  16.181   7.903 -0.4891 -0.0602  0.3193
37069W        W37933   6.053  13.251  20.277  0.1847 -0.1146 -0.2249
37070W        W37934  15.409  20.300   8.289  0.3700 -0.0248  0.2756
37071W        W37935   3.278  15.434   2.801 -0.3095  0.0378 -0.1231
37072W        W37936  17.511   4.680   0.633  0.0669  0.2159 -0.0373
37073W        W37937  20.429   6.299  22.988 -0.0750 -0.2150 -0.0552
37074W        W37938  18.130  20.413  13.532 -0.2096 -0.3404  0.0864
37075W        W37939  20.316   4.587  12.147  0.1453  0.3910 -0.0040
37076W        W37940  13.601   7.708  13.992 -0.4950 -0.0240 -0.1901
37077W        W37941  11.568   2.662  14.861  0.0501  0.2060 -0.0128
37078W        W37942   1.185   7.158   7.839 -0.3794  0.1702  0.1529
37079W        W37943   7.996  10.940   9.943 -0.0640 -0.4072  0.0895
37080W        W37944  24.049   8.457  22.778  0.0229 -0.1600  0.0856
37081W        W37945  27.681   7.407  17.147  0.1451  0.0236 -0.0574
37082W        W37946   4.417  20.319  10.182  0.0610  0.0712  0.2746
37083W        W37947   8.390   9.392   6.018  0.2415 -0.0652 -0.1385
37084W        W37948   5.668  17.176  28.614  0.2008  0.0185  0.3943
37085W        W37949  16.530  10.915  13.132 -0.1924 -0.0991 -0.1859
37086W        W37950  27.752  18.113   6.644 -0.4751 -0.2320 -0.0559
37087W        W37951  17.388  12.240  15.826  0.2781 -0.1402  0.0804
37088W        W37952   4.079  13.637  16.281 -0.0576 -0.1041 -0.2783
37089W        W37953  24.177   1.692  23.981 -0.1155  0.0791  0.3019
37090W        W37954  28.676   5.709  18.938 -0.0662 -0.0963 -0.4333
37091W        W37955   5.044  13.399  28.599 -0.3177  0.2360  0.2093
37092W        W37956   1.744   7.029   2.445  0.0324  0.0434  0.1660
37093W        W37957   0.471  17.030  23.568 -0.0014 -0.1351 -0.2073
37094W        W37958  15.649  15.017  11.183  0.2420  0.2377 -0.1454
37095W        W37959  10.312  28.158  17.475 -0.1484  0.3196  0.0110
37096W        W37960  10.353  18.739  15.431 -0.2985  0.1987  0.1525
37097W        W37961   2.725  12.691   0.215 -0.4782 -0.2088 -0.2934
37098W        W37962   1.611  11.853  16.837 -0.3683  0.1491 -0.0763
37099W        W37963  17.471   1.404  18.314 -0.1036 -0.1275  0.0082
37100W        W37964  10.565  17.109  12.240  0.3725 -0.1467 -0.0393
37101W        W37965   8.380  11.851  20.603 -0.1155 -0.0874  0.4751
37102W        W37966  14.060   5.804  12.571  0.0034  0.3665  0.0697
37103W        W37967  28.628   3.780  12.441  0.0974  0.0881 -0.3014
37104W        W37968  28.067  17.960  26.689  0.0177 -0.2104  0.3012
37105W        W37969   2.743   9.435  10.880 -0.1787  0.2529 -0.0558
37106W        W37970   7.810  21.950  15.327 -0.2324  0.0760  0.1765
37107W        W37971  19.208  10.408   6.029 -0.0346  0.3269  0.2371
37108W        W37972  24.795   9.361  23.245 -0.0081 -0.1046 -0.2861
37109W        W37973  20.182  27.807  23.860  0.1981 -0.0038  0.0784
37110W        W37974   5.624  21.468  15.365  0.1389 -0.0136 -0.0452
37111W        W37975  19.954   6.539  26.950 -0.0650  0.1375  0.0934
37112W        W37976   7.605   4.362  12.395  0.3938  0.0656 -0.1679
37113W        W37977   3.378  27.288  23.213  0.1039 -0.1500  0.2597
37114W        W37978   7.100  18.649  14.294  0.2901 -0.1581 -0.0204
37115W        W37979  13.342  12.844  19.766  0.1024 -0.1319 -0.4244
37116W        W37980  25.070  23.830   4.231 -0.0566 -0.1128 -0.2530
37117W        W37981  26.762  16.327  21.382 -0.2123  0.3139  0.1626
37118W        W37982  15.020   4.007  15.303 -0.1163 -0.0445 -0.2821
37119W        W37983  17.200  15.765   3.795 -0.1626 -0.1249  0.3885
37120W        W37984  20.160  11.944  17.446 -0.2392 -0.1417 -0.1697
37121W        W37985  11.767   8.713   1.686  0.1472  0.0385 -0.1212
37122W        W37986   4.487  10.834  20.801  0.0771 -0.1647  0.0418
37123W        W37987  22.993  21.942   1.512 -0.3387 -0.0582  0.3010
37124W        W37988   3.878  22.494  22.361  0.3364 -0.2316 -0.2057
37125W        W37989  10.510   9.543  20.618  0.0439  0.2351 -0.3677
37126W        W37990  23.893  18.830  25.153 -0.2041  0.2516 -0.1389
37127W        W37991  13.860   1.307  16.534 -0.0817  0.2277 -0.0602
37128W        W37992   2.429   6.000  12.572  0.1348  0.1249 -0.0591
37129W        W37993   2.978   7.659  12.684 -0.2681  0.1480 -0.4530
37130W        W37994  23.698  26.373   4.719 -0.0865 -0.0003  0.0052
37131W        W37995   8.935   8.682  24.004  0.3174 -0.2698 -0.2856
37132W        W37996  16.925  23.089  15.839  0.2028  0.1772  0.0329
37133W        W37997   4.211   1.498   8.278 -0.1926  0.0037  0.2344
37134W        W37998   5.929  14.854   4.936 -0.1851  0.1249  0.1625
37135W        W37999   5.776   5.511  22.383  0.2749  0.0086 -0.0029
37136W        W38000  23.086  25.604   6.022  0.0766  0.1145  0.0720
37137W        W38001   7.896  11.804  17.001  0.0036 -0.0027 -0.1722
37138W        W38002  19.471   8.569  18.650  0.2401 -0.0167 -0.2023
37139W        W38003  14.164  15.337  13.418  0.1484 -0.1380  0.0331
37140W        W38004   9.132   7.343  10.097 -0.0734 -0.1562 -0.2267
37141W        W38005   9.099  28.413   8.096 -0.3743 -0.0765 -0.2957
37142W        W38006  12.234  13.929   3.640 -0.0369 -0.1108  0.0813
37143W        W38007  19.523  19.927  14.105 -0.1949  0.1489  0.1409
37144W        W38008  17.841  17.542  14.569  0.1152  0.0262 -0.1184
37145W        W38009   8.977   2.913  23.935 -0.0448  0.1199  0.0562
37146W        W38010   6.374  26.444  13.514 -0.1865 -0.1436 -0.2103
37147W        W38011  25.880   8.215  14.895 -0.0813  0.0566 -0.1256
37148W        W38012   1.328   5.563   1.829  0.1693  0.3118 -0.3276
37149W        W38013  18.949  16.738   6.959  0.2222  0.1751  0.0627
37150W        W38014   9.935  25.067  15.636  0.0763 -0.0011 -0.0429
37151W        W38015  18.893  12.672   5.003 -0.1215  0.0954 -0.0793
37152W        W38016   4.695   8.138  12.182 -0.1610  0.0020 -0.0674
37153W        W38017  10.217   7.047  13.474  0.0901 -0.2729  0.0625
37154W        W38018   3.380  25.957  17.989  0.0967  0.1483 -0.1314
37155W        W38019   5.612  17.320  24.374  0.0504 -0.0571  0.1889
37156W        W38020   3.816  12.185  20.205  0.2128  0.1722  0.2880
37157W        W38021   2.202  20.432  19.233  0.1624  0.0457  0.0644
37158W        W38022   5.521  19.465  20.184  0.2489  0.2173 -0.0550
37159W        W38023  10.450   7.874  20.483  0.2518  0.0130  0.1388
37160W        W38024   6.381  16.681  28.533  0.4600 -0.1124 -0.1594
37161W        W38025   5.634  13.129  25.637 -0.1089  0.1338 -0.0505
37162W        W38026   7.893  19.182   6.790 -0.0960 -0.0206  0.3287
37163W        W38027  15.524  27.895  20.455 -0.1317  0.1710 -0.0232
37164W        W38028  10.543  28.084   4.533 -0.0933  0.0882  0.0804
37165W        W38029  28.578  21.794   4.616  0.1065  0.1065  0.4057
37166W        W38030  11.119  15.995  27.941  0.3209 -0.1095  0.3261
37167W        W38031  14.987  15.152  24.413  0.0216 -0.2137 -0.2807
37168W        W38032   0.455   5.357   5.161 -0.1435  0.3018 -0.4065
37169W        W38033  28.548   3.188  21.552 -0.1811 -0.2669 -0.1410
37170W        W38034  27.128  27.105   4.502  0.1174  0.1724 -0.0115
37171W        W38035   1.233  10.426   7.533 -0.2314 -0.1361 -0.2381
37172W        W38036   3.982  14.869   2.603  0.2197 -0.1291  0.0069
37173W        W38037   8.270   0.335  17.459  0.0357 -0.1113  0.1709
37174W        W38038  20.350  15.393  16.484 -0.4174 -0.2156  0.0103
37175W        W38039  13.646  20.953  14.077 -0.2576  0.0148  0.0159
37176W        W38040   5.313   7.461  17.926  0.3871 -0.1208  0.1176
37177W        W38041   3.869  18.431   6.123  0.1382  0.3733 -0.0387
37178W        W38042  17.492   4.105  17.495  0.0362  0.0870 -0.2810
37179W        W38043  15.906  15.531  24.336  0.0288 -0.1021 -0.2078
37180W        W38044   6.618  14.214  19.530 -0.0058 -0.2080  0.0205
37181W        W38045   1.184   6.174  22.421 -0.0371 -0.2251 -0.1114
37182W        W38046  21.199  19.799   6.161  0.3459 -0.1595  0.0484
37183W        W38047   7.015   3.263  25.263 -0.0741  0.0104  0.1676
37184W        W38048  22.951  11.824   1.063 -0.0658 -0.0173 -0.1008
37185W        W38049   7.060   8.532  28.963  0.1252  0.2385  0.0534
37186W        W38050   6.117  17.388  22.870  0.0224 -0.0344  0.3914
37187W        W38051  17.101   3.679   8.126  0.1117 -0.0491 -0.0410
37188W        W38052   5.824  21.640  25.769  0.2174  0.0373 -0.1287
37189W        W38053   0.638  11.126  16.894  0.0789 -0.1363 -0.0822
37190W        W38054  21.246  13.996  19.979 -0.0290 -0.0676  0.0559
37191W        W38055  24.186  28.475  14.797  0.0679 -0.3154  0.1721
37192W        W38056  24.131   8.603  27.642 -0.1748  0.1719  0.1050
37193W        W38057   0.413  15.833  26.692  0.1319 -0.0429  0.0239
37194W        W38058   8.907  15.206  10.970  0.0299 -0.1918  0.3040
37195W        W38059  24.053   6.084   0.217 -0.0816  0.0025 -0.1879
37196W        W38060  13.104   8.034  27.557  0.4454  0.1490  0.0308
37197W        W38061  10.014  25.259   6.098 -0.0057 -0.1156  0.2978
37198W        W38062  27.021  25.921  23.420  0.5064 -0.0438  0.2776
37199W        W38063  19.932  18.665  13.521 -0.3146  0.1914  0.1258
37200W        W38064  11.293  15.772  14.240 -0.0907 -0.2830 -0.0491
37201W        W38065  11.533  26.412  18.570  0.0205 -0.2609  0.0125
37202W        W38066   5.059  22.920  21.845 -0.1162 -0.1225 -0.0413
37203W        W38067   6.878  16.344   1.993 -0.1210 -0.1771  0.3307
37204W        W38068   4.393  10.586  26.870 -0.2347  0.5197  0.1551
37205W        W38069  18.481   5.805   1.593  0.3275  0.2668  0.1654
37206W        W38070  14.680   6.235  19.682 -0.3664 -0.0971  0.0636
37207W        W38071   8.698   8.687  20.175 -0.1951  0.1777  0.2971
37208W        W38072  16.611   9.695  20.015 -0.0720 -0.3037  0.0205
37209W        W38073  15.076  14.887  26.763  0.3341 -0.0446 -0.0508
37210W        W38074  17.138  22.663  28.879 -0.0165 -0.1742 -0.0198
37211W        W38075   0.647  20.362  24.155 -0.0155  0.0791 -0.2065
37212W        W38076   0.500  22.941  27.674  0.0158 -0.0648 -0.2165
37213W        W38077   8.634   4.761  25.884 -0.1693 -0.1439  0.0573
37214W        W38078  24.625  21.820  18.548  0.1158  0.0578  0.3737
37215W        W38079  18.513   2.472  21.073 -0.1418  0.3190  0.0570
37216W        W38080   1.547  14.144   0.403 -0.2547 -0.0481 -0.0292
37217W        W38081  17.455  20.718   0.369  0.2165  0.3520 -0.2086
37218W        W38082   5.151  13.468  14.377  0.0906 -0.0275  0.0402
37219W        W38083  19.356  14.686  24.557 -0.2379 -0.0462 -0.0494
37220W        W38084   4.411  14.062  19.604 -0.1966  0.2901 -0.0907
37221W        W38085   2.937  21.842  10.059 -0.1093  0.0428 -0.0861
37222W        W38086  16.458  10.901  22.189  0.1321  0.2138 -0.1628
37223W        W38087   5.449  22.194  24.729 -0.1196 -0.0338 -0.1272
37224W        W38088  24.838   0.722   0.879 -0.0037 -0.2656 -0.0096
37225W        W38089  17.954  10.928  11.783  0.1908 -0.3680  0.1702
37226W        W38090  22.117   2.440   9.077  0.0103 -0.2282  0.2463
37227W        W38091   8.743  11.450   9.982  0.0300 -0.0238  0.1698
37228W        W38092  10.172  14.117  26.818  0.0989  0.2023 -0.2386
37229W        W38093   4.420  21.580  28.206 -0.0738  0.1685  0.1609
37230W        W38094  11.993   3.687  15.712 -0.0740 -0.0202 -0.0672
37231W        W38095   9.400  20.977  27.091 -0.3744  0.0737 -0.1979
37232W        W38096  26.992   5.710   4.087  0.0433  0.1988  0.1200
37233W        W38097  10.391  10.257  27.700 -0.0831 -0.0971 -0.0350
37234W        W38098  12.212  19.014   0.616 -0.1967  0.2040 -0.2652
37235W        W38099   9.016  27.588   3.413 -0.1609 -0.0188 -0.2249
37236W        W38100  20.885  17.949  20.828 -0.0268  0.0485  0.5696
37237W        W38101  17.631  10.585   8.449  0.2031 -0.0743 -0.1234
37238W        W38102  20.969   8.196  27.500 -0.0691 -0.3890  0.2410
37239W        W38103  26.079   1.325  14.232 -0.3218  0.0429 -0.0395
37240W        W38104   4.139  14.707  14.233  0.0808 -0.0146 -0.1064
37241W        W38105  21.304  17.508  17.076 -0.1704  0.2235  0.0723
37242W        W38106  16.095  28.833  23.530  0.1805 -0.1514  0.1847
37243W        W38107   0.401  25.409  12.926  0.2538  0.0701 -0.0358
37244W        W38108   2.599  27.519  28.149  0.0208 -0.0309  0.1181
37245W        W38109  17.521  16.002   7.110  0.0362 -0.1814  0.0066
37246W        W38110  10.339  13.849  23.098 -0.0598 -0.0107 -0.1070
37247W        W38111   3.714  24.115  15.512 -0.0936 -0.2782  0.1682
37248W        W38112  23.461  15.706   6.815 -0.0649 -0.2993 -0.0919
37249W        W38113  22.085  21.638  17.637  0.3066 -0.0888 -0.2396
37250W        W38114   4.358  28.624  22.670  0.0093  0.0486  0.4853
37251W        W38115   3.648  25.862  15.075  0.0829 -0.3713 -0.0822
37252W        W38116  10.418   1.322  14.032  0.1413 -0.0777  0.0437
37253W        W38117  26.549   2.571   0.534 -0.1257 -0.0843 -0.0007
37254W        W38118  13.537  18.213  22.972  0.0925 -0.2587  0.0225
37255W        W38119  26.252  21.809  26.400  0.0686  0.1457  0.0492
37256W        W38120   7.567  19.654  19.159 -0.0177 -0.5296 -0.0358
37257W        W38121  12.518  25.960  16.822  0.0017 -0.0807 -0.0528
37258W        W38122  21.270   9.958  22.486  0.3794  0.2723 -0.1776
37259W        W38123  19.643  14.001  19.794 -0.1777  0.1388  0.0216
37260W        W38124  13.336   4.343  28.489 -0.0467 -0.1899  0.1256
37261W        W38125  15.896   7.113  24.689  0.0455 -0.3371 -0.1798
37262W        W38126  22.195  15.859  21.923 -0.0502  0.0738 -0.1040
37263W        W38127   3.779  14.045  10.173  0.0793  0.2028  0.4336
37264W        W38128  10.237   5.279   3.852  0.0225  0.1265  0.2053
37265W        W38129   6.159  27.157   7.517  0.1376 -0.2935  0.1639
37266W        W38130  26.563  14.690  16.515 -0.1949  0.1037  0.0349
37267W        W38131  24.398  25.775  11.283  0.2798  0.2463  0.0328
37268W        W38132   4.517  16.116  20.743 -0.0897 -0.1174 -0.0008
37269W        W38133  17.434  21.257   0.773 -0.0930 -0.0292 -0.1861
37270W        W38134   2.155   5.532  12.496 -0.0827  0.1626  0.3410
37271W        W38135  26.618  11.408  14.078  0.0386  0.0753 -0.2566
37272W        W38136  11.706  18.277  23.418 -0.2413  0.2770  0.0987
37273W        W38137  15.119  10.247  15.914 -0.3596  0.1066 -0.1258
37274W        W38138  19.633   1.728  28.018 -0.0949 -0.1818  0.1610
37275W        W38139   0.860   5.225  11.542  0.0959 -0.2532 -0.2002
37276W        W38140   0.421  23.897   0.721 -0.0434 -0.1210  0.0059
37277W        W38141   0.827  21.017   4.474 -0.0630  0.1684 -0.1179
37278W        W38142  13.146   6.683  15.610 -0.0694  0.1675 -0.0342
37279W        W38143  16.417   8.003  14.242 -0.2358 -0.2410  0.1321
37280W        W38144   3.213  15.684  16.867 -0.2262 -0.0227 -0.0173
37281W        W38145  13.726   5.007  16.270  0.1262  0.0347  0.0463
37282W        W38146   4.530  10.992   5.224 -0.0794 -0.1954 -0.0713
37283W        W38147  13.664  20.569  19.805  0.0710  0.1707 -0.1304
37284W        W38148   3.114  14.652  20.895 -0.0905  0.0150 -0.0144
37285W        W38149  17.081   7.493  26.225  0.0264 -0.0432  0.0104
37286W        W38150   6.490  21.713  16.006 -0.2169  0.0037  0.1596
37287W        W38151  13.254  22.714   3.634  0.1554  0.0789 -0.4052
37288W        W38152  21.147   6.632  14.530 -0.0464 -0.1236  0.1934
37289W        W38153   1.369  27.911  16.654  0.2314  0.4867  0.0974
37290W        W38154  15.025  25.312  10.899 -0.0405  0.5037 -0.2145
37291W        W38155   0.184   9.672  13.148 -0.0764  0.0656 -0.0860
37292W        W38156   2.406  19.062   5.092  0.0880 -0.0439 -0.1746
37293W        W38157   5.775  13.908   1.505  0.0048  0.0176  0.0564
37294W        W38158   3.364  12.130  15.217 -0.0733  0.2833  0.0982
37295W        W38159   5.362   1.687  19.220 -0.2277  0.0692 -0.1336
37296W        W38160   1.163  19.002  13.880 -0.0331 -0.4248  0.0915
37297W        W38161   2.908   9.508  18.591 -0.3335  0.1765  0.0414
37298W        W38162  17.159  21.167  25.413 -0.1201 -0.0037 -0.3255
37299W        W38163  17.393   8.652  21.433  0.0410 -0.0902 -0.0452
37300W        W38164   6.624  28.581   4.303 -0.0577 -0.3591  0.0820
37301W        W38165  28.079  23.127   1.810 -0.0506  0.4972 -0.2083
37302W        W38166   3.940  23.116  17.578  0.1178 -0.1063 -0.0522
37303W        W38167   1.438  24.117  23.433  0.0414  0.0392 -0.2378
37304W        W38168  17.922  12.946  10.734 -0.0883 -0.2207  0.1715
37305W        W38169  27.169  23.397  10.967  0.0992 -0.3134 -0.0494
37306W        W38170  22.042  22.681  28.140  0.0759 -0.1706 -0.3269
37307W        W38171   7.039  18.457  26.611  0.2177  0.5038 -0.0271
37308W        W38172  17.508   3.238  27.849  0.1551 -0.2973  0.0136
37309W        W38173   0.838  17.454  15.953  0.2005 -0.0681 -0.0090
37310W        W38174  17.852  20.547   8.839 -0.2875  0.1142 -0.1973
37311W        W38175   9.923  11.520  26.359 -0.2184 -0.1894  0.1219
37312W        W38176  23.290  22.697   7.596 -0.0963  0.0368  0.1075
37313W        W38177   0.158   5.932  21.759 -0.0303 -0.0553  0.1270
37314W        W38178  20.198   3.685  11.275 -0.0777  0.1314 -0.6587
37315W        W38179  27.268  21.148   3.266 -0.0850 -0.4657  0.2070
37316W        W38180  28.452  20.951   1.484  0.3260  0.1085  0.3780
37317W        W38181   8.693   9.682   8.510 -0.0162  0.1544  0.0755
37318W        W38182   2.128  14.753  10.659  0.1350  0.0932 -0.1344
37319W        W38183  28.366  25.961   2.034 -0.2925 -0.2066  0.0639
37320W        W38184  14.477  24.838  13.781 -0.0176 -0.1862 -0.1134
37321W        W38185  10.419  24.444  12.284  0.0622 -0.1708  0.0082
37322W        W38186   2.180   2.280  23.407  0.0774  0.1780  0.1537
37323W        W38187  21.398  12.364  25.583 -0.2170  0.1583  0.1159
37324W        W38188   9.818   4.986  10.172  0.0948  0.0277 -0.0430
37325W        W38189   5.150   5.660  15.000  0.1573 -0.1550 -0.1487
37326W        W38190   7.679   8.705  20.408 -0.1074  0.0785  0.0245
37327W        W38191  27.288  23.087  10.377  0.0314 -0.0549  0.0052
37328W        W38192  18.520  24.769  24.318 -0.1660 -0.2749  0.0381
37329W        W38193  24.010   7.212   9.393 -0.0233 -0.2097 -0.1021
37330W        W38194  21.904  13.134  19.206  0.1979  0.1179  0.0150
37331W        W38195  13.772   8.631   4.925  0.1622 -0.1336  0.2688
37332W        W38196   0.695  27.732  22.726  0.0338 -0.1147 -0.0298
37333W        W38197   7.826  27.472  19.214  0.2272 -0.0966  0.1363
37334W        W38198   8.946  12.934   1.120 -0.0037  0.1185 -0.2484
37335W        W38199   3.307  12.904   9.854  0.1399 -0.0866  0.2062
37336W        W38200   0.558  16.953  14.463  0.0219 -0.0961  0.1794
37337W        W38201  27.801   9.099   4.157 -0.2175  0.0623  0.1435
37338W        W38202   5.758  17.437  15.543  0.1179 -0.2487 -0.1553
37339W        W38203  14.768  12.976   1.393 -0.1387 -0.0460 -0.1385
37340W        W38204  27.983   7.381  20.645 -0.2339 -0.2760  0.0292
37341W        W38205  15.336  19.278  25.343 -0.0409 -0.0618  0.0734
37342W        W38206  10.793  11.172  11.809  0.1178  0.0785 -0.2084
37343W        W38207   0.355   0.413   2.992 -0.2508 -0.0476 -0.3323
37344W        W38208  24.777   6.212  18.863  0.0035 -0.0536  0.1124
37345W        W38209   2.216  19.473   7.362 -0.0277 -0.2994  0.0229
37346W        W38210   0.853   1.392  17.095 -0.0357  0.2083  0.2205
37347W        W38211   5.038  27.823  24.709 -0.1850 -0.1209  0.4904
37348W        W38212   0.658  22.114  11.968 -0.0347  0.0233  0.2032
37349W        W38213  17.091  11.305  11.362 -0.0126 -0.4394  0.1334
37350W        W38214   4.469  20.160  17.741 -0.0861 -0.0845  0.0547
37351W        W38215   9.724  24.170  21.501  0.2008 -0.0090  0.2829
37352W        W38216   7.582   0.573  14.537  0.2438 -0.1404  0.2130
37353W        W38217   4.592  29.111  13.969 -0.1455 -0.2764  0.2172
37354W        W38218   8.261  12.185  12.846  0.0476 -0.0428 -0.0707
37355W        W38219   0.045  24.311  13.618 -0.3682 -0.2650 -0.0712
37356W        W38220   5.897  24.026  14.266  0.0128  0.3712  0.0451
37357W        W38221   2.142  22.678  23.827  0.0713 -0.2844  0.1076
37358W        W38222   5.079   3.959   9.158 -0.2502 -0.0245  0.2338
37359W        W38223  25.420  21.071   4.953 -0.1972  0.0793 -0.1189
37360W        W38224  17.652  17.725  29.106 -0.1257 -0.0374 -0.0519
37361W        W38225  10.099  12.422  28.172  0.1301 -0.2396 -0.1964
37362W        W38226  20.460   4.434  10.192  0.0231  0.0497 -0.4069
37363W        W38227  16.307  22.200   9.660 -0.0437  0.1288  0.0906
37364W        W38228  13.388   8.985  25.084  0.0447 -0.0430  0.0411
37365W        W38229  23.037  22.967  14.872  0.0361 -0.0096  0.0785
37366W        W38230  11.357   8.952   4.121  0.0884 -0.1322  0.4083
37367W        W38231   1.153  17.266  13.356  0.1809 -0.3922 -0.1243
37368W        W38232   2.707   6.724  11.669  0.0632  0.1576 -0.2703
37369W        W38233  20.763  12.518  10.998  0.1229  0.0257  0.1770
37370W        W38234   6.323   4.082  14.941 -0.1589  0.2335 -0.0644
37371W        W38235   3.918   6.245  14.347  0.0691  0.0496  0.1935
37372W        W38236   1.167  11.146   8.706 -0.0142 -0.0467  0.1053
37373W        W38237  28.544  11.545  24.133 -0.2828 -0.0873 -0.0659
37374W        W38238  13.696  21.325  17.632 -0.0061  0.0548  0.4037
37375W        W38239   5.516   6.581  14.761 -0.1617 -0.3829  0.0427
37376W        W38240   0.192   2.082  21.158  0.0542  0.0504 -0.1002
37377W        W38241  17.487  21.918  27.123  0.0845 -0.3004  0.1553
37378W        W38242  13.187  10.967  28.518 -0.3668 -0.0080  0.1050
37379W        W38243  12.420  10.746  27.706 -0.1016 -0.1908 -0.2215
37380W        W38244  16.203   3.010  13.560 -0.0873 -0.0096  0.3087
37381W        W38245   6.337  10.291  16.797 -0.1701 -0.0612  0.0440
37382W        W38246  16.764   6.872   5.666  0.2314 -0.0390  0.0596
37383W        W38247   3.749   3.596  22.233 -0.0180 -0.1549  0.0532
37384W        W38248   5.794  18.144   2.865  0.0370 -0.1243  0.2977
37385W        W38249   4.678  25.896  13.450  0.0579  0.2359  0.3871
37386W        W38250   1.845  17.548  26.133  0.2714 -0.1648 -0.2998
37387W        W38251  19.052   1.080  18.406  0.0749  0.2743  0.2374
37388W        W38252  16.455  10.378  17.135  0.0747  0.1438 -0.2042
37389W        W38253   4.221   8.747  27.721 -0.0461 -0.0364  0.1122
37390W        W38254   3.072   9.423  27.774 -0.2146  0.3050  0.4220
37391W        W38255  21.938   0.041   8.137  0.0447 -0.0523  0.1109
37392W        W38256  20.802  12.823  13.141 -0.2255  0.0736  0.0283
37393W        W38257  11.707  22.331   7.727  0.1317  0.1406  0.0696
37394W        W38258  25.511  24.281   9.927  0.0972  0.0443 -0.1978
37395W        W38259   2.702  14.676  11.990 -0.1413 -0.0948  0.1314
37396W        W38260   3.751  10.044   2.407  0.3938 -0.0530  0.1232
37397W        W38261  11.165  17.390  28.148 -0.2568  0.0656 -0.2629
37398W        W38262  21.264  18.994  18.074  0.1334  0.2954 -0.1126
37399W        W38263   3.090  27.166  26.568  0.0693  0.2848  0.1885
37400W        W38264  24.991   5.787   6.513 -0.2039  0.1594 -0.4080
37401W        W38265   2.453  10.256   3.026  0.3310 -0.2303  0.0276
37402W        W38266   4.515  26.723  17.841 -0.2587  0.0038  0.1760
37403W        W38267  11.896  18.840  22.589 -0.2852  0.0462 -0.1856
37404W        W38268  26.968   2.287  14.781 -0.1119  0.0458 -0.0188
37405W        W38269  18.409  13.581   8.897  0.0601 -0.1833  0.1836
37406W        W38270   7.752  14.560  24.064 -0.0080  0.0005  0.1145
37407W        W38271  15.069  25.615  17.450 -0.1894  0.0026  0.1758
37408W        W38272   6.651  23.687  15.976  0.0242  0.3081 -0.3587
37409W        W38273   0.686  23.670  18.680 -0.0637 -0.0810  0.0960
37410W        W38274  17.898   3.775  26.669  0.1980  0.0733  0.0324
37411W        W38275  27.222  11.192  10.944  0.0675  0.0839 -0.1625
37412W        W38276  20.878  13.561  18.281 -0.0110 -0.1224 -0.0344
37413W        W38277   4.768  15.589   2.049 -0.1283 -0.1849  0.3800
37414W        W38278   2.508  13.614  11.760  0.1343 -0.0427 -0.1659
37415W        W38279  25.111   7.657  13.163  0.0915  0.1396  0.0111
37416W        W38280  17.006   7.541  18.959  0.0442 -0.1068  0.2126
37417W        W38281  19.540   0.285  23.161  0.0077  0.1920  0.0571
37418W        W38282  23.985   9.386  16.621 -0.2693  0.2434 -0.0156
37419W        W38283   9.395  28.188  17.576 -0.0923  0.0261  0.0935
37420W        W38284   1.032  27.872  27.376 -0.2698  0.0747 -0.2137
37421W        W38285  29.026  11.763  10.004  0.0740 -0.1575  0.1803
37422W        W38286   3.447  23.330   8.661 -0.0070  0.1443 -0.1286
37423W        W38287   8.738  18.792  14.671  0.0556 -0.0400 -0.0985
37424W        W38288   9.578  18.271  28.831  0.3295 -0.2606 -0.1068
37425W        W38289   5.825  26.926  13.839  0.3085  0.0425  0.2771
37426W        W38290   8.277  18.837  25.494  0.3729 -0.1666 -0.0427
37427W        W38291   2.585  25.911  18.376  0.0590  0.0109 -0.1136
37428W        W38292  23.915  28.996  13.508  0.0060  0.1108  0.0422
37429W        W38293  10.493  15.781   6.043  0.1107 -0.1792  0.0117
37430W        W38294  26.212  16.448  25.596 -0.0620  0.1449  0.0857
37431W        W38295  11.148  20.983  13.529  0.2853  0.4677  0.0433
37432W        W38296  12.736  28.569  23.564  0.5458  0.0030 -0.1712
37433W        W38297   4.364  11.679  25.371  0.0623  0.3639  0.3899
37434W        W38298  18.821   0.229  17.099  0.0341  0.1208 -0.1238
37435W        W38299   0.609  21.503   8.001  0.2983 -0.1864  0.1698
37436W        W38300  28.641   9.736  19.818  0.0683  0.0028  0.0394
37437W        W38301   2.559  22.457  23.619  0.1256  0.0332  0.2046
37438W        W38302  27.225  14.376  18.874 -0.1506 -0.1270 -0.2314
37439W        W38303   0.024  23.572  15.103  0.0056 -0.0263  0.0010
37440W        W38304   2.202   3.894  22.573  0.0326  0.1148  0.2046
37441W        W38305  27.524  22.078   6.259  0.0042  0.2924  0.1450
37442W        W38306   1.970  11.435  20.608  0.0724 -0.0406 -0.1105
37443W        W38307  27.186  14.444   8.839 -0.0003 -0.1368  0.0424
37444W        W38308  25.980  25.747  20.857  0.2956  0.0147 -0.0780
37445W        W38309   2.917  10.974  11.797  0.0882 -0.2200  0.3021
37446W        W38310   9.023   8.322  29.144 -0.0375 -0.0387 -0.1076
37447W        W38311   7.926  11.368  12.729  0.3499 -0.0366 -0.0303
37448W        W38312   8.792  12.345   8.067 -0.1460 -0.0061 -0.1803
37449W        W38313  15.359  11.967   2.626  0.1940 -0.0671 -0.1230
37450W        W38314  10.069  24.867   2.489  0.4081 -0.1290 -0.2810
37451W        W38315   6.797  11.577  17.823 -0.1865  0.1221  0.3990
37452W        W38316   5.961  22.129  21.215  0.1170 -0.0833 -0.1748
37453W        W38317   6.675   4.308  17.415  0.3368 -0.0653  0.0515
37454W        W38318  12.436   9.417  27.150  0.2599  0.0441 -0.0646
37455W        W38319  26.348  21.205   0.293  0.2050 -0.0381 -0.1283
37456W        W38320   2.690  13.920  13.614  0.1136 -0.2332 -0.0556
37457W        W38321   7.506  12.688  22.863 -0.0969  0.0418  0.1975
37458W        W38322   4.163  15.443   8.115  0.0087  0.1590 -0.3551
37459W        W38323   1.976  20.277  27.161  0.0005  0.1477  0.0426
37460W        W38324  11.160  22.717  13.515 -0.0919  0.0076  0.0718
37461W        W38325  10.632  17.115  20.479  0.1564  0.1657  0.2027
37462W        W38326   1.072  20.577  19.835  0.2502 -0.1631 -0.0785
37463W        W38327  20.340  10.538   9.605  0.1408  0.0360 -0.0272
37464W        W38328   8.868  15.924  20.536 -0.1356  0.1978  0.2476
37465W        W38329  19.588  17.504   8.895  0.1337 -0.0539  0.0771
37466W        W38330  14.901  16.451  14.983 -0.1421 -0.2040 -0.0278
37467W        W38331  17.806  26.557  19.355 -0.0350  0.1074 -0.2290
37468W        W38332  10.799   5.971  25.679  0.1713 -0.2375 -0.1052
37469W        W38333   3.702  12.054   8.819 -0.1757  0.1834  0.0510
37470W        W38334   5.641  14.822  11.654 -0.0584  0.0936 -0.0648
37471W        W38335  24.123  25.091   9.878 -0.1117 -0.1827  0.0352
37472W        W38336  24.620  10.813   3.003 -0.2477  0.1213 -0.0256
37473W        W38337   8.734  27.009  15.014  0.0739  0.0694 -0.2156
37474W        W38338  19.874  13.292  16.662 -0.2620  0.2977  0.0839
37475W        W38339  20.888  18.519  27.113  0.2615  0.0273  0.0499
37476W        W38340  26.180   4.046   7.112  0.0337  0.1077  0.0459
37477W        W38341   4.345  11.001  25.379 -0.0719  0.2331 -0.2902
37478W        W38342  26.053  19.311  16.239  0.3733 -0.1705 -0.1418
37479W        W38343  12.362   2.882  22.789 -0.0070  0.2797 -0.1241
37480W        W38344  25.811  20.609  23.879 -0.1878 -0.1950 -0.2472
37481W        W38345  17.209  25.433  11.092  0.2229 -0.1899 -0.0693
37482W        W38346   6.502  13.458   1.311  0.1147  0.0920 -0.1100
37483W        W38347  23.569  19.000  14.986  0.4601 -0.0242  0.1024
37484W        W38348  21.919  15.732   9.890 -0.1027 -0.2305  0.0348
37485W        W38349  24.334  10.225   0.745 -0.0012  0.0540  0.0120
37486W        W38350  10.238   6.544  14.565 -0.1596  0.1185 -0.1223
37487W        W38351   4.613  14.446  12.160 -0.0085  0.2716 -0.0628
37488W        W38352  18.297  26.859   8.093 -0.2199  0.1516  0.1757
37489W        W38353  27.465  26.213  19.077  0.0443 -0.0271  0.1330
37490W        W38354  26.161   8.395   0.116  0.0409 -0.2875  0.2128
37491W        W38355  27.466   1.460  23.417  0.0756  0.0032  0.3732
37492W        W38356   7.428   1.853   9.663 -0.0073  0.2795  0.2832
37493W        W38357   2.729  13.841  23.837  0.1877 -0.0798  0.2352
37494W        W38358  22.708   7.604  24.830 -0.0619 -0.2805  0.0016
37495W        W38359   8.526  27.793   6.975  0.2119 -0.2674  0.2287
37496W        W38360  24.084   9.246   1.140 -0.2013 -0.0416  0.0903
37497W        W38361  11.661   0.298  26.176 -0.3336  0.0611  0.0708
37498W        W38362  23.982  16.358  14.072  0.0719  0.0792  0.3516
37499W        W38363   1.104   8.899  25.146  0.1954  0.0477 -0.0891
37500W        W38364   4.204   7.599  21.326  0.0603 -0.0801 -0.0524
37501W        W38365  22.768  22.620  20.272 -0.2297  0.0256  0.2510
37502W        W38366  19.446  17.975  22.889 -0.0577 -0.2363 -0.1006
37503W        W38367  11.499  10.532  27.359  0.4327  0.1634 -0.0728
37504W        W38368  19.624   2.704  10.107 -0.0773  0.0569 -0.0794
37505W        W38369  28.046  10.130   0.820 -0.0118 -0.0781  0.3255
37506W        W38370  21.382  23.926   4.455  0.2268  0.1746  0.2344
37507W        W38371   2.638  26.864  11.833 -0.2651  0.2114 -0.0021
37508W        W38372  27.187  14.904  16.979  0.0251 -0.0024 -0.1274
37509W        W38373   8.474  27.117  22.872 -0.0126 -0.2552  0.1004
37510W        W38374   1.239  12.431  15.992  0.0424  0.0020 -0.0955
37511W        W38375  24.834   6.540  27.815  0.0485 -0.0868  0.1539
37512W        W38376  24.049   5.129  26.519 -0.0324  0.1886  0.1513
37513W        W38377  14.143  13.923  14.812 -0.1913 -0.0816 -0.1018
37514W        W38378  27.120   3.257   5.995 -0.0333  0.3212 -0.2416
37515W        W38379  15.428   0.466  11.637 -0.0881 -0.0943 -0.1775
37516W        W38380  16.458  24.318  13.039  0.0282  0.0956 -0.2479
37517W        W38381  23.367  22.201  15.903  0.0221  0.3068 -0.0806
37518W        W38382   3.782  17.307  27.824  0.2185 -0.1262 -0.0695
37519W        W38383   5.203   9.912  12.209 -0.1703  0.0317 -0.0768
37520W        W38384  18.859  10.112  20.225 -0.3091  0.0274  0.0561
37521W        W38385   3.756  20.637  25.263  0.0639 -0.0287  0.0997
37522W        W38386  25.640   3.082  24.011 -0.0802 -0.1273  0.0974
37523W        W38387  24.229   8.468  10.265 -0.0555  0.2028  0.1648
37524W        W38388   7.555  24.172  26.595 -0.0446  0.0480  0.0299
37525W        W38389  14.634   7.834   9.630 -0.1518  0.1741 -0.3750
37526W        W38390   7.040  25.741  12.608 -0.2329 -0.1436 -0.1999
37527W        W38391   4.609  11.059  20.238 -0.1489 -0.1907  0.1305
37528W        W38392   5.785  16.419  21.588 -0.2074  0.2525  0.1362
37529W        W38393   0.530   6.130  25.003  0.2512 -0.0886  0.3110
37530W        W38394  23.869  25.814  23.568 -0.1400  0.1518  0.2489
37531W        W38395   7.700   6.877  17.785 -0.0301  0.0672  0.2077
37532W        W38396  21.381  11.594  20.483  0.1363  0.4800 -0.1555
37533W        W38397  25.631  28.820  17.462 -0.0169 -0.0631  0.0957
37534W        W38398  12.389   6.368  13.715 -0.0680 -0.1006 -0.1460
37535W        W38399   0.444   1.050  20.320  0.1302 -0.1575  0.0292
37536W        W38400   4.389  28.225  15.697 -0.1361 -0.0724  0.0002
37537W        W38401   6.454  11.171   0.631 -0.1038  0.2862 -0.0175
37538W        W38402  15.681  11.806  24.512  0.0852 -0.1351  0.1340
37539W        W38403  23.896  12.882   8.940 -0.1343  0.0156 -0.0454
37540W        W38404  20.095  16.499  10.574  0.0754 -0.0082  0.3265
37541W        W38405  28.808   8.055  13.143 -0.1368  0.2795 -0.0244
37542W        W38406  10.938  25.037  13.079  0.2223 -0.0913  0.0969
37543W        W38407  28.379   3.473  10.128 -0.2481 -0.2856  0.3102
37544W        W38408  27.163  11.997  14.867 -0.2653  0.2643  0.3621
37545W        W38409  28.208   7.628  11.566 -0.0330 -0.0644  0.1833
37546W        W38410   0.423   1.472  20.032 -0.1801 -0.0702 -0.0238
37547W        W38411   9.653  15.425  23.896 -0.1082  0.0471 -0.1088
37548W        W38412   3.534   8.275  27.559 -0.0239  0.2044 -0.0267
37549W        W38413  11.119  18.041  23.421  0.0142 -0.0487  0.1500
37550W        W38414   2.481  28.689  21.313 -0.0219  0.3884 -0.0665
37551W        W38415  25.053  14.898   8.783  0.0366 -0.0426  0.0155
37552W        W38416   0.993  27.609  24.636 -0.0705  0.0215 -0.2409
37553W        W38417  29.006  11.632  23.788 -0.0030  0.0695  0.1509
37554W        W38418  13.393   4.594  26.744  0.2171  0.2515 -0.2824
37555W        W38419  23.928  16.423  24.933  0.2416  0.0820  0.1751
37556W        W38420  27.980  26.032  14.385  0.1128  0.0080 -0.0626
37557W        W38421  11.197  25.612  25.202 -0.0416 -0.0404  0.0592
37558W        W38422   3.171  21.375  19.387  0.0867 -0.1139 -0.3825
37559W        W38423   2.508  18.805  24.605  0.1027  0.0432 -0.1113
37560W        W38424  15.179   6.374   0.785  0.4078 -0.0774  0.0281
37561W        W38425   9.635  14.187   3.616 -0.0534 -0.0892 -0.1293
37562W        W38426   6.376  15.614  19.828 -0.1075 -0.3172  0.0584
37563W        W38427  14.750  21.230  28.630 -0.5137  0.1175  0.2692
37564W        W38428   5.942  24.246  10.480 -0.0311 -0.1715 -0.3454
37565W        W38429  26.140  15.097  27.580  0.0877  0.0109 -0.0218
37566W        W38430  23.054  12.571  16.657 -0.4178  0.2250 -0.1871
37567W        W38431  19.121   4.531  14.065 -0.0908 -0.0329  0.0305
37568W        W38432  26.099  12.287  14.173 -0.1291 -0.0379  0.0768
37569W        W38433   7.463   8.677  14.176  0.1510 -0.2401 -0.0441
37570W        W38434  22.370  24.097  14.027  0.0494 -0.0521 -0.2126
37571W        W38435  23.697  20.594  12.033  0.0227  0.0480 -0.0423
37572W        W38436  23.842   5.845  10.357  0.0116  0.0644  0.3693
37573W        W38437  25.156  20.359  16.233 -0.0763  0.1062  0.0824
37574W        W38438  14.846   2.957  17.745  0.1776 -0.1001  0.1402
37575W        W38439  16.576  10.569   9.533  0.0639  0.2605  0.1135
37576W        W38440  23.988   4.622  14.892 -0.2785 -0.3057  0.0835
37577W        W38441   6.213   9.215  13.437  0.3871  0.1231  0.1595
37578W        W38442  28.224   3.192  15.143  0.0504 -0.0901 -0.2553
37579W        W38443   6.240  25.407   6.008  0.2251 -0.0527  0.0577
37580W        W38444  27.493   9.584   8.341 -0.1482  0.0805 -0.0826
37581W        W38445   5.931  13.991  14.048 -0.1250 -0.1555 -0.4296
37582W        W38446   5.525  18.983   7.545 -0.0932  0.1849 -0.1809
37583W        W38447  25.190  16.884   2.156  0.1563  0.1256 -0.0733
37584W        W38448  28.745  22.032  24.006 -0.0999  0.1448  0.2737
37585W        W38449   3.198  14.781  15.609 -0.1875  0.1828 -0.3774
37586W        W38450  24.524  10.912  16.519  0.2616  0.0370 -0.0384
37587W        W38451  26.325  19.284  27.107 -0.0245 -0.0600  0.0226
37588W        W38452   0.508  13.617  10.641  0.2988  0.2571  0.0484
37589W        W38453  20.525  20.596  22.261  0.1236  0.2716  0.2410
37590W        W38454  15.020  24.440   2.884  0.0514 -0.0566 -0.3009
37591W        W38455  15.214  16.402   0.504  0.0683  0.0240  0.0459
37592W        W38456  26.067   7.893  29.064  0.3332  0.0367  0.2509
37593W        W38457  17.160   9.103  21.372  0.2627  0.0407  0.0262
37594W        W38458  18.924   2.931   2.963 -0.0851 -0.0733 -0.2695
37595W        W38459   1.190   9.570  26.351 -0.3445 -0.0641  0.0704
37596W        W38460  22.716   5.512  28.176 -0.0138 -0.0276  0.1271
37597W        W38461   4.226  23.009  26.101  0.1338  0.0333  0.4089
37598W        W38462  19.878   9.459  15.370  0.1401  0.1360 -0.0846
37599W        W38463   4.338   2.777   9.377 -0.0963  0.3083  0.1073
37600W        W38464  17.205   4.222   6.498  0.0232 -0.0875  0.0354
37601W        W38465  23.396  18.909  18.152 -0.0154  0.0107 -0.2092
37602W        W38466  25.611   0.104  20.170 -0.0604  0.0072 -0.1051
37603W        W38467  21.875  13.943  17.552 -0.0652 -0.0686  0.1604
37604W        W38468   1.484  18.301  23.599  0.0582  0.1242 -0.0166
37605W        W38469  14.819   2.170   7.374 -0.1617  0.1946  0.1186
37606W        W38470   7.298  22.501  17.849 -0.0295  0.1340  0.0211
37607W        W38471   4.680   9.662  20.202  0.0759 -0.1938  0.0502
37608W        W38472   5.966   8.925  24.069 -0.1477 -0.0847 -0.2146
37609W        W38473  13.333  26.288   6.025  0.0386 -0.1222 -0.0179
37610W        W38474   3.169  21.137  22.100  0.2273  0.0431  0.1551
37611W        W38475  15.149  21.216  14.400  0.0615  0.2799 -0.0594
37612W        W38476  14.619   7.249  27.319 -0.1008  0.4722  0.4178
37613W        W38477  26.281   4.371  20.031  0.1206  0.2582 -0.0014
37614W        W38478   7.227  10.640   3.724 -0.2946  0.1125  0.1344
37615W        W38479  10.250  11.067  18.997  0.1434  0.1735  0.0150
37616W        W38480  23.978  27.396  15.577 -0.0836 -0.0211  0.2658
37617W        W38481  20.860  17.678   5.836 -0.0289  0.1576  0.3518
37618W        W38482   2.160  24.686  25.002 -0.0120 -0.1097  0.3528
37619W        W38483  27.065   8.363  21.845  0.0205 -0.0556  0.0814
37620W        W38484  27.156  12.363  22.427 -0.1551 -0.0269 -0.0968
37621W        W38485   1.761  12.799  24.448 -0.1480  0.2464 -0.1595
37622W        W38486  11.725   3.798   9.515  0.3089 -0.2123 -0.1070
37623W        W38487   2.583  18.395  19.801  0.0630 -0.0350  0.0681
37624W        W38488   4.285  20.370   9.399  0.1180  0.0702 -0.0032
37625W        W38489  21.684   4.184  22.116 -0.0841 -0.0249 -0.1078
37626W        W38490   4.768  17.540   8.125  0.0608  0.2169  0.1007
37627W        W38491   4.539  20.352  22.251  0.0331 -0.0324 -0.0418
37628W        W38492  10.487  17.133   4.146  0.2100  0.0125 -0.1105
37629W        W38493   6.613   1.214  26.488 -0.3592  0.0927 -0.2530
37630W        W38494   7.573  28.293   1.453 -0.2868  0.1155 -0.1484
37631W        W38495  20.337  14.695   4.520 -0.0797 -0.1268 -0.0845
37632W        W38496   8.396  15.897  10.873  0.1157 -0.2187  0.0107
37633W        W38497  28.976  11.617   7.192  0.3063  0.1984 -0.0108
37634W        W38498  16.831  20.963  20.973 -0.0713 -0.1048 -0.0287
37635W        W38499   4.250   5.793   3.481  0.0414  0.0712  0.1577
37636W        W38500  10.118  27.674   7.799 -0.1547  0.3205 -0.0637
37637W        W38501   4.363  19.734  18.852 -0.0622  0.0394 -0.0764
37638W        W38502  12.984   7.879  19.460  0.1232 -0.1339 -0.1186
37639W        W38503  12.156  10.159  18.540  0.0232  0.0799  0.0699
37640W        W38504  11.815   7.438  14.918  0.2650  0.2264 -0.2358
37641W        W38505  27.630  21.466  13.679  0.0716  0.1297  0.1819
37642W        W38506  18.931  26.146  10.093 -0.2606  0.2036 -0.2552
37643W        W38507   9.355  10.909  21.921  0.1626 -0.0862  0.0880
37644W        W38508   6.540   5.894  14.416  0.0685 -0.3425 -0.0204
37645W        W38509  18.694  18.956  28.275  0.6328  0.1076  0.1217
37646W        W38510   8.404  15.134   8.755  0.0320 -0.2526  0.1217
37647W        W38511  13.347  13.601  21.057  0.0747  0.0681  0.2320
37648W        W38512  14.396   1.230  19.221  0.3652 -0.0246 -0.1640
37649W        W38513  14.659  22.823  19.160 -0.1718 -0.4437  0.3212
37650W        W38514  22.524  19.861  24.966  0.0234  0.1718  0.1236
37651W        W38515  16.811   5.507   8.895  0.0870 -0.2305  0.0446
37652W        W38516  16.044  19.689  19.539  0.0139  0.3737 -0.3048
37653W        W38517   2.353  12.850  19.872  0.2733 -0.3406 -0.2540
37654W        W38518   0.916  27.554   6.421 -0.3068 -0.0526 -0.1821
37655W        W38519  14.786   2.344  17.593 -0.0450 -0.3458  0.1444
37656W        W38520   6.041   4.079   8.048  0.1001 -0.0445  0.1042
37657W        W38521   7.776  24.129  24.305 -0.0386 -0.1958 -0.2958
37658W        W38522   3.748  13.672  20.795 -0.1451  0.1664 -0.0318
37659W        W38523  24.103  14.850   9.780 -0.0123 -0.3052 -0.0156
37660W        W38524  11.838  10.605  10.357  0.2572 -0.0663  0.1245
37661W        W38525  20.366  21.594  24.185 -0.2550  0.2395  0.1906
37662W        W38526   8.578  25.993  25.493  0.0461 -0.1074 -0.0494
37663W        W38527   1.424   6.727  16.991  0.0336  0.0363  0.0011
37664W        W38528  15.240  13.947   5.777 -0.1157  0.2239  0.1003
37665W        W38529  23.504  28.761   5.042  0.2243  0.0210 -0.0542
37666W        W38530   3.184  19.103  18.743 -0.0491  0.2020  0.3717
37667W        W38531   8.027  17.984  15.433 -0.0330 -0.3151 -0.3335
37668W        W38532  12.956  23.049   3.688 -0.0238 -0.0964  0.2834
37669W        W38533   6.176  27.713  24.912  0.2278  0.2713  0.1845
37670W        W38534  19.551  25.820  15.077  0.0333  0.0871 -0.0163
37671W        W38535   2.371  12.361   7.322 -0.1634 -0.6404 -0.1470
37672W        W38536   5.761  16.580   3.223 -0.1948  0.1288 -0.1185
37673W        W38537  11.709  13.161  26.916 -0.0059 -0.1044  0.0978
37674W        W38538  10.994  12.681  25.142 -0.2069 -0.2029 -0.2730
37675W        W38539  22.786   8.784  26.094  0.2692  0.2897  0.2580
37676W        W38540  28.099  27.870  26.084  0.1070  0.1743  0.0202
37677W        W38541  21.428  24.988  19.293  0.0283  0.1632 -0.3467
37678W        W38542  16.462   8.836  19.569  0.1407  0.0109  0.4238
37679W        W38543  10.877  24.916   5.412 -0.0781 -0.3159 -0.1169
37680W        W38544  11.323  18.266  25.543 -0.0144 -0.2031  0.1038
37681W        W38545   4.007   5.721   4.108  0.1673 -0.0121  0.3796
37682W        W38546  20.264  23.222  12.038 -0.0010 -0.1611  0.2949
37683W        W38547   1.946   2.667   5.861 -0.0079  0.1125  0.2644
37684W        W38548  21.301  13.538  12.086  0.2223  0.1727 -0.3324
37685W        W38549  14.330  17.481  11.348 -0.2508  0.2589  0.1343
37686W        W38550  15.095  16.443  22.362 -0.0275  0.1869  0.1311
37687W        W38551   6.075  20.704  15.090  0.0237 -0.0752 -0.1946
37688W        W38552   9.512  19.856  22.834 -0.1660 -0.0547 -0.0222
37689W        W38553   3.563  16.505  10.857  0.3655 -0.1267  0.0446
37690W        W38554  15.739  12.115  21.693 -0.2874  0.1803  0.0039
37691W        W38555  10.760   0.377   1.821 -0.1663  0.3256 -0.0317
37692W        W38556  15.740   2.441  22.411  0.1345  0.3936 -0.4367
37693W        W38557   5.459  13.835  27.510 -0.1142 -0.0728 -0.0231
37694W        W38558  21.665  26.970  25.907 -0.0958  0.1087 -0.2384
37695W        W38559   3.045  28.788  17.119 -0.0755  0.2925  0.1254
37696W        W38560   2.765  17.186   8.446  0.0626 -0.0063  0.0914
37697W        W38561   4.051  17.204  17.699 -0.0937 -0.2409 -0.0045
37698W        W38562   5.411   6.884  28.960 -0.0609 -0.2424  0.1919
37699W        W38563   8.341  24.812  20.255 -0.2700 -0.1048 -0.1993
37700W        W38564   7.226   7.873  20.289 -0.2701  0.0058 -0.1423
37701W        W38565  25.474   5.186   9.264 -0.2542 -0.3010 -0.0743
37702W        W38566   5.219  21.105  19.656 -0.0695 -0.3404  0.0967
37703W        W38567  20.634  23.181  21.229  0.2603 -0.1127 -0.0975
37704W        W38568  15.510  18.113  13.476  0.0859  0.0768  0.1131
37705W        W38569   9.570  16.905  28.818  0.1664 -0.0357  0.2078
37706W        W38570  21.591  22.101  25.243  0.0780 -0.0332 -0.2480
37707W        W38571   2.114  21.261  13.948 -0.2276  0.1567 -0.0598
37708W        W38572  18.081   4.501   2.243  0.0521 -0.1304  0.2748
37709W        W38573   5.653   6.883  23.762 -0.2510 -0.2362 -0.2392
37710W        W38574  18.435  14.706  21.420 -0.2965 -0.0074  0.2265
37711W        W38575   7.979   0.965  26.275  0.1898  0.1193 -0.0627
37712W        W38576  25.905   0.970   4.072  0.0797 -0.2532 -0.0229
37713W        W38577   2.860   9.126   4.310 -0.4900 -0.2861 -0.0914
37714W        W38578  15.101   6.711  16.127 -0.1395  0.2528 -0.1059
37715W        W38579   3.262  27.214   9.693 -0.2776 -0.1301 -0.3346
37716W        W38580   3.748  21.001  23.988  0.1607 -0.0536 -0.0149
37717W        W38581  19.542  21.345  26.699 -0.0391  0.0337 -0.1010
37718W        W38582  28.893   4.265   0.102  0.0294 -0.2147  0.0403
37719W        W38583   4.263  14.398   1.176 -0.0815 -0.0663  0.0620
37720W        W38584   3.590  10.551   2.039 -0.3818  0.1410 -0.1898
37721W        W38585  12.048   9.054  10.038  0.0071 -0.1338 -0.0323
37722W        W38586  22.578  13.381   6.064 -0.3427  0.2221 -0.3810
37723W        W38587   5.679  27.478  25.213  0.3411 -0.0584 -0.0207
37724W        W38588  27.885  25.232  10.748  0.1357  0.1747 -0.2296
37725W        W38589  15.893  22.632  21.811  0.1055 -0.0556 -0.0437
37726W        W38590  13.685  11.603  15.886  0.1177 -0.1712  0.0416
37727W        W38591  27.616  21.944   3.861  0.1926  0.2190 -0.1784
37728W        W38592  24.793   2.185  10.825 -0.0912  0.0375  0.0422
37729W        W38593  11.953  10.831  20.730  0.1528 -0.1317  0.3509
37730W        W38594  24.444   5.201  27.870 -0.3799 -0.0534 -0.0730
37731W        W38595  27.899   5.263  13.773  0.0537 -0.0243  0.1148
37732W        W38596   2.492   8.391   5.152 -0.0794  0.0186  0.1542
37733W        W38597  17.002  23.365  14.309  0.1830  0.1340 -0.1959
37734W        W38598   4.545  27.477  20.925 -0.0931  0.1476  0.3737
37735W        W38599  18.129  28.938  17.603  0.1765  0.2555  0.0329
37736W        W38600  22.566   8.480   4.443 -0.0747  0.2961 -0.1520
37737W        W38601   0.747  15.760  25.259  0.1259 -0.2685  0.0780
37738W        W38602   2.971   6.813  22.099 -0.0341  0.0241  0.0169
37739W        W38603  14.412  22.923  11.196 -0.0118  0.5692  0.0505
37740W        W38604  25.813  16.549  14.352  0.0089 -0.0152 -0.0814
37741W        W38605   8.624  11.959  22.483 -0.0671 -0.0012  0.2579
37742W        W38606   1.793  18.362  25.658  0.2708  0.1560  0.1090
37743W        W38607  11.898  24.982  27.004 -0.2912 -0.0441 -0.1568
37744W        W38608  25.215  12.392  15.427 -0.1671  0.0487 -0.1919
37745W        W38609   4.052  16.011  12.016 -0.1468  0.2217  0.1176
37746W        W38610  14.892   2.945  21.246 -0.0133  0.2070 -0.0455
37747W        W38611   5.411  20.756  15.815  0.2176  0.0485 -0.2288
37748W        W38612  14.922  12.511   8.845 -0.2495 -0.0177 -0.0217
37749W        W38613  12.516   2.058  20.949 -0.1020 -0.0672  0.2297
37750W        W38614   6.805  15.180  28.218  0.0953 -0.0901 -0.0077
37751W        W38615  11.407  21.829   0.974 -0.0515 -0.0129 -0.0165
37752W        W38616   4.775   7.275   9.925 -0.3967  0.0733 -0.1209
37753W        W38617   2.886   3.085  25.217 -0.4654  0.3791 -0.1342
37754W        W38618  23.979  12.049  24.044 -0.2047  0.2741  0.0859
37755W        W38619  23.048  17.703  11.847  0.0144 -0.0677  0.0025
37756W        W38620  17.783  19.111  22.220  0.2480 -0.0686  0.4533
37757W        W38621  10.069  10.794  23.044  0.2803  0.1271 -0.1109
37758W        W38622  23.750  18.304  21.649 -0.0352  0.4112 -0.2131
37759W        W38623  15.678   5.245  10.293 -0.2094 -0.0830 -0.1405
37760W        W38624  14.586   2.124  27.750 -0.0746 -0.4105  0.1726
37761W        W38625   9.068  26.540  12.201  0.3448  0.3094 -0.3937
37762W        W38626  21.820   9.750  24.322 -0.1109 -0.2637  0.1242
37763W        W38627   8.984  14.005  20.280  0.2510 -0.0018 -0.0671
37764W        W38628  15.401  10.326  14.975 -0.1485  0.0530 -0.0344
37765W        W38629   6.157  22.688  17.856 -0.2047 -0.0660 -0.2376
37766W        W38630  12.039   6.977  28.726  0.1545 -0.0857  0.0276
37767W        W38631   6.415  26.712  14.630  0.1957 -0.1084  0.2206
37768W        W38632   5.062   0.254  25.230  0.1034 -0.0878  0.1790
37769W        W38633   0.372  17.869  25.115 -0.1076  0.0200 -0.2882
37770W        W38634   3.275  12.795   2.346 -0.1031  0.0813 -0.2126
37771W        W38635  11.919   9.532  20.806  0.2521 -0.0468 -0.1171
37772W        W38636  15.649  18.760  24.178 -0.0872 -0.1086 -0.1430
37773W        W38637   0.120   3.982  18.723  0.1089 -0.1040  0.0605
37774W        W38638  25.635  23.144   3.121  0.1346  0.0478  0.0756
37775W        W38639   2.358  16.097  12.577 -0.4092  0.0904  0.1272
37776W        W38640   2.740  20.529  27.179 -0.0620  0.0734 -0.0255
37777W        W38641  12.374  28.949  15.982 -0.3562 -0.0403 -0.1422
37778W        W38642  27.422   1.278   0.452  0.0079  0.0260 -0.0927
37779W        W38643  10.588   0.709  20.188  0.0026  0.2009 -0.1539
37780W        W38644  18.047  15.182   2.335  0.2851 -0.0977  0.2081
37781W        W38645  16.071  10.647  18.572  0.1147 -0.0707 -0.1200
37782W        W38646  19.388  25.112   0.437 -0.1051 -0.2776 -0.1238
37783W        W38647   3.745   9.726  25.842  0.3256  0.0133 -0.0343
37784W        W38648   2.290  19.898   5.188  0.0460 -0.2289  0.1829
37785W        W38649   8.369  18.702  22.750 -0.0303  0.0368  0.0854
37786W        W38650  12.882  27.622  19.964 -0.3505  0.0686  0.1207
37787W        W38651   1.552  19.878   3.273 -0.2365 -0.2945 -0.0693
37788W        W38652   6.143  15.262  21.779  0.0995 -0.1064  0.1683
37789W        W38653   1.798  20.581  16.400 -0.1644  0.1248  0.1081
37790W        W38654  19.964  21.343  14.253  0.0652  0.1187 -0.2761
37791W        W38655  28.185   1.952   1.136  0.0903 -0.1139 -0.2360
37792W        W38656  16.231   7.776  19.552  0.0253  0.2845 -0.3649
37793W        W38657   0.007  13.132  11.688  0.0114 -0.1704 -0.1123
37794W        W38658  14.091  17.909   4.038  0.1054 -0.0114  0.0384
37795W        W38659   2.290   9.012   2.351 -0.4499  0.1221  0.1257
37796W        W38660  10.405  11.223  26.900  0.0328 -0.1842 -0.1516
37797W        W38661  21.518   3.505   2.532  0.2448 -0.0745  0.4535
37798W        W38662   0.139   0.571   3.801 -0.0301 -0.2037  0.0793
37799W        W38663  14.141  13.024  15.001  0.0577  0.2784 -0.1322
37800W        W38664   7.363  21.388  20.847  0.1311 -0.1876  0.0140
37801W        W38665  27.753  28.841  12.582 -0.0871  0.0302 -0.2308
37802W        W38666  25.601  20.222  25.920  0.0771 -0.0457  0.1707
37803W        W38667  21.499  16.850  27.374 -0.2359 -0.1722 -0.4005
37804W        W38668   1.276  23.638   8.563 -0.0853 -0.1473  0.0169
37805W        W38669  13.467   8.830  11.035 -0.1458  0.1544  0.0702
37806W        W38670  12.938   4.283  19.413  0.3234 -0.1806  0.0622
37807W        W38671  12.229  21.381  22.483  0.1499 -0.4050 -0.2640
37808W        W38672  26.810  12.780  15.919 -0.0800 -0.1361  0.0923
37809W        W38673  26.569  11.340  17.479 -0.0490 -0.1242  0.0142
37810W        W38674   7.138  16.948   4.788 -0.0995 -0.0820 -0.0139
37811W        W38675  26.636  21.042  23.831 -0.0311  0.0175 -0.1509
37812W        W38676  18.155   1.195   2.022  0.0181 -0.2474 -0.3274
37813W        W38677  26.698  18.760  26.026 -0.0120  0.0987  0.4531
37814W        W38678   2.872  12.829  27.760 -0.1204  0.2013  0.1007
37815W        W38679  26.918  20.737  23.437 -0.1613 -0.0888 -0.1657
37816W        W38680   3.698  13.657   6.008 -0.0518 -0.5014 -0.0684
37817W        W38681   5.738  13.073  11.173  0.3631 -0.2275 -0.2677
37818W        W38682   5.523  21.663  22.236 -0.2798  0.1791  0.0294
37819W        W38683  18.905  12.848  26.147 -0.2268 -0.3333  0.1744
37820W        W38684   6.172  22.564  24.209 -0.1899  0.1795 -0.0110
37821W        W38685   4.040  16.834  19.259  0.0818  0.0875  0.0639
37822W        W38686   0.066   2.881  18.726 -0.1311  0.1127  0.0326
37823W        W38687   9.934  14.634  11.142 -0.0188 -0.3262  0.0285
37824W        W38688   8.210  18.358   1.658 -0.3453  0.2335  0.1946
37825W        W38689   0.491  14.906   8.647  0.2133 -0.2400  0.2369
37826W        W38690  11.348  18.481  26.425  0.0291  0.1849  0.5088
37827W        W38691   8.836  12.953  13.428 -0.1604  0.0755 -0.1416
37828W        W38692   1.267  14.369  28.037 -0.0041 -0.1579  0.0520
37829W        W38693  21.332  26.880  22.349  0.0704  0.1031 -0.2103
37830W        W38694   9.687  20.257  23.115  0.2146 -0.0420  0.3115
37831W        W38695  26.625  17.300   1.772  0.1046  0.1508 -0.3571
37832W        W38696   2.228  10.474  24.947  0.0109 -0.0294 -0.0491
37833W        W38697  17.549  16.198  26.651  0.0142 -0.2274 -0.0667
37834W        W38698  15.526   5.430  16.292 -0.0708 -0.2729  0.0113
37835W        W38699  10.395  15.407  19.047  0.0248 -0.0049 -0.3008
37836W        W38700  20.970  18.153  27.729 -0.2617  0.2014  0.0490
37837W        W38701  27.581  14.962  13.293  0.2018 -0.3980 -0.2067
37838W        W38702   8.596   7.607  12.890 -0.1266  0.1080  0.0582
37839W        W38703  24.814  20.357  14.569  0.0711 -0.0386  0.0666
37840W        W38704   2.421  16.349   2.219 -0.1291 -0.0892 -0.0618
37841W        W38705   3.235  12.774  13.688  0.0578  0.0677 -0.0792
37842W        W38706  28.351   6.942  14.786 -0.1647 -0.0947  0.2908
37843W        W38707   9.548  25.315  20.214 -0.2707 -0.2431  0.2474
37844W        W38708  18.090   4.531  15.320 -0.0783 -0.1498  0.0858
37845W        W38709   6.664  11.576   7.833  0.0532  0.1578 -0.0003
37846W        W38710   7.231  15.288  24.393  0.0617  0.1637 -0.2528
37847W        W38711   2.065  18.233  15.582 -0.2787  0.0261 -0.3508
37848W        W38712   3.152  18.549  21.293  0.3258 -0.0635  0.0357
37849W        W38713  23.064  23.603  26.865  0.1448  0.1676 -0.0310
37850W        W38714   9.435  10.200  20.928  0.0860 -0.2906 -0.2329
37851W        W38715   6.514  25.835  21.751 -0.0282  0.0546  0.1268
37852W        W38716  20.708  14.743  25.409 -0.0107 -0.1932  0.0835
37853W        W38717   2.284  25.789   7.187 -0.1717 -0.1136  0.0321
37854W        W38718   5.329  13.874  23.037 -0.6292  0.1162 -0.1691
37855W        W38719  11.584  14.759  11.430  0.0510  0.1603 -0.0175
37856W        W38720   5.376  23.678  10.600  0.1592  0.1096  0.0216
37857W        W38721  13.827  10.987   8.749 -0.4031 -0.0372  0.1888
37858W        W38722  25.738  21.828  14.350  0.2617  0.1756 -0.1434
37859W        W38723   9.397  16.636  21.875 -0.1336  0.1425  0.0193
37860W        W38724  19.597   5.651  20.691  0.1740  0.1176  0.0440
37861W        W38725   3.346   1.465  24.421 -0.0621 -0.2736 -0.2040
37862W        W38726  10.442   2.174  20.097  0.3824 -0.3097  0.1770
37863W        W38727  12.040   6.378  28.024  0.1217  0.1214  0.0645
37864W        W38728   3.511   8.987  24.139  0.1914  0.2318  0.3038
37865W        W38729  25.258  18.153  15.866  0.0221 -0.0918 -0.1542
37866W        W38730   6.616   6.633   3.278 -0.3871 -0.3226 -0.1081
37867W        W38731  10.637   5.462  26.757 -0.1721  0.1107 -0.1270
37868W        W38732  15.386  15.883  27.741 -0.1222 -0.1938  0.2863
37869W        W38733   5.708  10.967  14.891  0.2103  0.0903 -0.0707
37870W        W38734   1.194  15.765   0.534  0.1385 -0.1206  0.2979
37871W        W38735  25.407  10.332   8.925 -0.0823 -0.0867  0.2340
37872W        W38736   2.977   5.287  26.829 -0.1121 -0.1722 -0.2833
37873W        W38737   4.064  26.045  24.328  0.1496 -0.0506 -0.2029
37874W        W38738  27.594  26.024  14.797 -0.0177 -0.1240 -0.0163
37875W        W38739  13.122   2.499  22.141  0.2139 -0.0694  0.1064
37876W        W38740  12.996  23.325   0.136  0.0260  0.1211  0.0160
37877W        W38741  16.161   2.563   0.380  0.1542  0.1215 -0.0172
37878W        W38742  17.355   3.823  10.843  0.1377 -0.3248 -0.1069
37879W        W38743  22.154  18.845   6.607 -0.2073 -0.3754  0.1670
37880W        W38744   8.192  10.938  14.504 -0.2057  0.0626 -0.3112
37881W        W38745  10.982  14.990  17.247  0.2430 -0.2938 -0.0271
37882W        W38746  19.659  21.070  16.031  0.4140  0.0870  0.0779
37883W        W38747  10.941   2.579  19.083 -0.0202 -0.0318 -0.0493
37884W        W38748   4.598  22.359   1.521 -0.1724  0.3056 -0.2070
37885W        W38749  10.901  17.214   7.785  0.2176 -0.2240  0.1250
37886W        W38750  23.415   3.894  15.988  0.2807 -0.2734 -0.0784
37887W        W38751  24.167   9.320  17.105  0.1399 -0.0278 -0.2902
37888W        W38752  19.384   2.517  24.529  0.1956 -0.2321  0.1258
37889W        W38753  13.104   4.980  15.903 -0.0232  0.0411  0.1333
37890W        W38754   5.165   0.054   5.457 -0.2701 -0.0763  0.1974
37891W        W38755  25.505  25.507  17.845 -0.3398  0.1220  0.3962
37892W        W38756   5.903  15.500  21.407  0.4783 -0.1815 -0.2920
37893W        W38757  24.968  26.877  22.290  0.0074 -0.3922  0.0440
37894W        W38758  13.097  15.690   4.913 -0.0109  0.0659 -0.0195
37895W        W38759  10.661  20.687  26.085  0.2064  0.1487  0.2324
37896W        W38760   0.685  13.410  17.959  0.4896  0.2805  0.2497
37897W        W38761  15.113   3.085   2.811 -0.1755  0.1425  0.2940
37898W        W38762  28.576   8.347  17.545  0.3219  0.0955  0.1305
37899W        W38763  15.775  28.210   9.601  0.0449  0.0416 -0.0083
37900W        W38764   5.955   1.537   5.318  0.2222 -0.0913  0.5756
37901W        W38765  22.167   3.366  26.514  0.1364  0.0726  0.1865
37902W        W38766  27.507  23.939  28.486  0.0936  0.0834  0.0496
37903W        W38767  27.848  13.806  24.340 -0.5005 -0.0867  0.2431
37904W        W38768  25.306  15.982  23.255  0.0092  0.1300 -0.2021
37905W        W38769   9.727  11.465  28.055  0.1708  0.1253 -0.0035
37906W        W38770   3.408   7.793  27.446 -0.1053 -0.1072 -0.0492
37907W        W38771  17.381  15.465  23.416 -0.0909 -0.1167  0.0383
37908W        W38772  23.122  27.124  11.544  0.0517 -0.0280  0.2495
37909W        W38773  28.876   9.999  13.412  0.1565 -0.2495  0.0775
37910W        W38774  25.453  14.379  28.619  0.1586 -0.2443 -0.1119
37911W        W38775  20.335  16.615  24.190  0.0843  0.1238  0.2554
37912W        W38776   9.948  22.828  18.770 -0.0023 -0.1165 -0.0165
37913W        W38777   1.449  13.973  23.208  0.1651  0.0441  0.0978
37914W        W38778  28.402  20.064   0.006  0.0809  0.3605 -0.4827
37915W        W38779   6.383  17.469  23.406  0.0087  0.0429 -0.1696
37916W        W38780  26.777  23.661  10.696  0.0373 -0.1326 -0.0692
37917W        W38781   9.675   3.473  19.687  0.2424 -0.1283  0.3514
37918W        W38782  28.896  18.926  21.249 -0.3685  0.0434  0.0587
37919W        W38783  28.891  13.024   8.446 -0.0798 -0.0130 -0.1976
37920W        W38784  11.669  22.405   0.327 -0.0933 -0.1171  0.4678
37921W        W38785  26.686  15.422  22.514 -0.0194  0.0241 -0.0695
37922W        W38786   9.009  13.020  19.570 -0.0304 -0.0846  0.2208
37923W        W38787  19.890  16.918  28.607 -0.2128  0.0689 -0.1865
37924W        W38788  25.280  12.957   0.800  0.0165  0.2085  0.2118
37925W        W38789   8.793   9.683  23.607  0.1539  0.1539 -0.2109
37926W        W38790  14.754   4.614  10.118  0.1267 -0.1195 -0.2243
37927W        W38791   0.787  11.107   7.857  0.2190 -0.0003  0.2629
37928W        W38792  18.116  22.249  19.764  0.0001 -0.1319  0.1221
37929W        W38793  27.173  15.540   7.231  0.2043 -0.1156 -0.0887
37930W        W38794   2.266  13.697  13.759 -0.0505 -0.1896 -0.0814
37931W        W38795  14.280  21.897   2.346 -0.1611 -0.1022  0.0208
37932W        W38796   6.539   2.219  24.195  0.1376  0.1439 -0.1680
37933W        W38797   2.550   8.227  22.349 -0.0807 -0.1433 -0.2947
37934W        W38798  27.561  28.419  23.964 -0.2589  0.1002 -0.4858
37935W        W38799   1.185   2.612  10.808  0.3057 -0.3221  0.0450
37936W        W38800  13.525   2.780   2.232 -0.1332 -0.0928  0.0742
37937W        W38801  10.086  16.744  22.501  0.1163  0.0744  0.3505
37938W        W38802   4.331  15.301  29.003 -0.4688  0.0562  0.2831
37939W        W38803   6.281  20.969  12.341 -0.0037 -0.0296 -0.1626
37940W        W38804  25.800   8.995  18.718 -0.4833 -0.0368  0.1002
37941W        W38805   4.015  16.669  21.560 -0.0227  0.2166 -0.1970
37942W        W38806  28.231  24.876  19.673  0.2135 -0.0242 -0.3262
37943W        W38807   5.628  19.257  25.843  0.1302 -0.1761 -0.2107
37944W        W38808   1.392  26.734   9.686  0.2043  0.0432 -0.0736
37945W        W38809  25.293  22.581  19.288 -0.2491 -0.2271  0.0209
37946W        W38810   4.422   3.583   8.214  0.2271 -0.4041 -0.0923
37947W        W38811  15.961   8.943  25.204  0.1132  0.0789 -0.1587
37948W        W38812  14.817  28.919  17.883  0.1236  0.1796  0.0257
37949W        W38813  10.627   1.622   1.108  0.1432 -0.0254 -0.0667
37950W        W38814  23.228  10.520  11.090  0.0816 -0.2880  0.1791
37951W        W38815   3.637  11.073  26.575 -0.2461 -0.4312 -0.2530
37952W        W38816  22.776  25.631  28.438 -0.1697 -0.1829  0.1056
37953W        W38817  13.314  24.650  26.379  0.0258  0.2454  0.1475
37954W        W38818   8.587  16.828  14.963 -0.1944  0.0239  0.2245
37955W        W38819   4.462   6.063   6.813 -0.0964  0.0436  0.1609
37956W        W38820  25.886   4.598  26.730 -0.0098  0.1146 -0.2031
37957W        W38821  11.452   0.899  27.430  0.3441 -0.2636  0.0213
37958W        W38822   6.505  16.861  25.860  0.1225 -0.1651 -0.1187
37959W        W38823   1.600  17.874  25.744  0.2550 -0.0211  0.0118
37960W        W38824   1.462   4.092  10.376 -0.4356  0.0117  0.1643
37961W        W38825  10.830  27.231   9.245  0.2482 -0.3054  0.0790
37962W        W38826   0.866  15.374  18.809 -0.4150  0.1757 -0.0608
37963W        W38827  13.000  11.790  18.410 -0.4294  0.1255  0.0650
37964W        W38828  25.371  20.499  17.626  0.0353 -0.1597 -0.2209
37965W        W38829  11.394   1.534  27.606 -0.1058  0.1301  0.0477
37966W        W38830  18.282  18.831  20.198  0.0573  0.0677 -0.1229
37967W        W38831  28.257   5.536  12.412  0.1467 -0.1806 -0.0182
37968W        W38832   3.447   0.578   1.537  0.0699  0.1796  0.0551
37969W        W38833  24.583  17.468  20.801 -0.0495  0.0913  0.1483
37970W        W38834  18.915  14.346  24.247  0.0030 -0.0082 -0.0544
37971W        W38835   0.529   7.740  13.004 -0.1763  0.1885  0.0603
37972W        W38836   7.220   4.746  11.002  0.1024 -0.0798 -0.0220
37973W        W38837   5.801  15.583   7.429 -0.0155  0.2986  0.3747
37974W        W38838   9.413   9.122   8.904  0.1696 -0.3973  0.0407
37975W        W38839  18.248  10.617   5.806  0.0260  0.0319 -0.1400
37976W        W38840   8.554   6.286   0.465 -0.3059  0.2938 -0.0512
37977W        W38841   2.312  14.805  25.146 -0.0909  0.0240 -0.1751
37978W        W38842  27.732  20.758  22.889 -0.1740  0.2279 -0.1011
37979W        W38843   8.900   8.015  21.228  0.2047  0.3346 -0.1907
37980W        W38844   2.510  18.228  27.179 -0.0566 -0.3472 -0.2778
37981W        W38845   0.848  25.079  16.003  0.0774  0.0831 -0.4091
37982W        W38846  13.885  22.921   3.455 -0.4471  0.0494 -0.0522
37983W        W38847   9.144   0.054  25.676 -0.0780  0.1493  0.0301
37984W        W38848   5.837  24.749  10.700 -0.1644  0.1171  0.0842
37985W        W38849   2.073  14.414  25.248  0.1280  0.1608  0.2016
37986W        W38850   6.245  12.959   6.431 -0.1517 -0.0611 -0.0192
37987W        W38851   5.539  18.980   5.869 -0.0862 -0.3300 -0.1943
37988W        W38852   4.433   7.085  16.784  0.1184 -0.3448  0.1871
37989W        W38853  24.107  28.614  16.269 -0.0028 -0.0844 -0.0282
37990W        W38854  14.528   1.485  24.296  0.0559 -0.1062 -0.0875
37991W        W38855   0.112  10.989  12.534 -0.0034 -0.6975 -0.2946
37992W        W38856  12.903   8.849  21.471 -0.1498 -0.2459  0.0655
37993W        W38857   3.740  20.125   9.705 -0.0570 -0.2256 -0.0715
37994W        W38858  23.371   2.408  13.221  0.1152 -0.0297 -0.2040
37995W        W38859  23.044  24.808   3.684  0.1513 -0.0776  0.1704
37996W        W38860  16.650   6.693  15.405 -0.0111 -0.0280 -0.2664
37997W        W38861   6.384  27.845   1.115  0.0208 -0.0176 -0.1375
37998W        W38862   7.090  28.406  19.606  0.2498 -0.0007 -0.1503
37999W        W38863  18.163  24.956   1.224 -0.1443  0.0764  0.0762
38000W        W38864   7.540  17.543  13.189 -0.0756 -0.0598 -0.1577
38001W        W38865  23.618  15.578  20.111  0.0350 -0.2075 -0.0908
38002W        W38866   8.094  22.526  22.038 -0.0886 -0.1107  0.0826
38003W        W38867  23.263  14.554  21.480 -0.1928  0.2197  0.1100
38004W        W38868   4.823  23.868  21.853 -0.2294 -0.2089  0.0096
38005W        W38869   1.548  15.479  20.674  0.1829 -0.0024  0.1216
38006W        W38870   3.750  16.855  20.447 -0.5931 -0.0934 -0.0623
38007W        W38871  25.828  13.579   9.225 -0.0580  0.3731 -0.0251
38008W        W38872   9.834  20.905   1.200  0.3249 -0.0134  0.2250
38009W        W38873  12.925   8.021  25.446  0.0079 -0.0901 -0.0052
38010W        W38874   7.543  17.918  25.114  0.2969 -0.3640 -0.0674
38011W        W38875  14.179   1.813  20.877  0.3599 -0.1555  0.2689
38012W        W38876  22.630  27.946   2.636 -0.2114  0.0149  0.1945
38013W        W38877   3.836  28.065  12.790 -0.1119 -0.2363 -0.1129
38014W        W38878   0.745   0.739  27.112 -0.0010  0.0774  0.2309
38015W        W38879  12.068  15.117  19.432  0.3092  0.0362  0.0242
38016W        W38880   7.765   5.445  16.143 -0.1057  0.1089 -0.1101
38017W        W38881  10.580  22.173   5.149  0.1514  0.0044 -0.1963
38018W        W38882  10.991  21.877  18.781  0.2976 -0.0768 -0.0445
38019W        W38883  16.134   2.348  15.639  0.2803  0.0938 -0.2612
38020W        W38884   7.161  12.163  11.194 -0.1579 -0.2339 -0.0930
38021W        W38885  10.971  15.511  21.811 -0.0151 -0.2525  0.0420
38022W        W38886  12.492   3.205  14.403  0.0185  0.1371  0.2597
38023W        W38887   6.736  16.714  10.697  0.0279  0.0197  0.2677
38024W        W38888  23.937  21.128  10.122  0.0101  0.0634 -0.1481
38025W        W38889   1.645  10.484  27.594 -0.0344 -0.4314 -0.2679
38026W        W38890   3.606   7.828  18.515  0.0638 -0.0522  0.0421
38027W        W38891   3.585  16.005  18.104 -0.1057  0.1865 -0.1060
38028W        W38892  12.851  19.861  21.400 -0.3316  0.1213 -0.0836
38029W        W38893  11.262  23.375   7.166 -0.1001  0.1011  0.0813
38030W        W38894  16.021   3.842  18.582 -0.1996  0.1407  0.4832
38031W        W38895  15.216   6.810  11.815 -0.1959 -0.0591 -0.0299
38032W        W38896  12.487  18.166  15.156 -0.0530 -0.3590 -0.0013
38033W        W38897  24.675   0.292  13.901 -0.0545  0.1102 -0.3746
38034W        W38898  23.154  15.108   3.381  0.0453 -0.4550  0.1975
38035W        W38899   6.528   4.584   6.353 -0.2690 -0.4271  0.0811
38036W        W38900  19.086  20.890  24.293 -0.0029  0.1428 -0.1084
38037W        W38901   0.796   9.626   5.892 -0.1494 -0.0685  0.1002
38038W        W38902   9.451  17.302  26.060  0.0046 -0.0064  0.2950
38039W        W38903  21.309  25.724  24.520 -0.4129  0.0627  0.1387
38040W        W38904   3.487  25.421  24.575  0.0015  0.1386 -0.2233
38041W        W38905  19.721   9.331  14.456 -0.1270  0.0401  0.0799
38042W        W38906  28.552  15.643  25.315 -0.1019  0.2050 -0.0759
38043W        W38907  25.932  20.768  12.386 -0.2886 -0.0355 -0.1715
38044W        W38908   7.009  26.319  25.704  0.0672  0.1233 -0.1659
38045W        W38909  11.051  23.332   5.145  0.0951  0.3259 -0.1744
38046W        W38910   3.235  12.572   0.288  0.0177  0.1471 -0.0988
38047W        W38911  28.726   7.098  24.606 -0.1043  0.0381 -0.0031
38048W        W38912   8.719   7.182   9.815 -0.1872 -0.1583  0.1121
38049W        W38913  11.371   9.046  14.607  0.0215  0.1557  0.3006
38050W        W38914  26.691   8.255  19.562  0.0217 -0.0140 -0.2935
38051W        W38915  18.862  27.069   6.665 -0.2746  0.1530 -0.0370
38052W        W38916  22.524  12.247  28.469  0.0316 -0.0576  0.1570
38053W        W38917  25.132  26.399  27.951 -0.1009 -0.0477 -0.0455
38054W        W38918  21.099  14.818   6.980 -0.3346  0.1023 -0.1794
38055W        W38919   6.672  12.253  12.916  0.3393 -0.1621 -0.1059
38056W        W38920   1.017  12.500   3.732  0.0362  0.1000 -0.3414
38057W        W38921   3.352  22.318  27.402 -0.0921 -0.0506 -0.2631
38058W        W38922  19.395  16.311  14.752 -0.4513 -0.0988 -0.1188
38059W        W38923  18.807   5.583  15.506  0.1291 -0.1414 -0.0883
38060W        W38924   1.267   6.864  10.782  0.3713  0.0280  0.2230
38061W        W38925  15.652   6.589   6.577 -0.1037  0.0563  0.1599
38062W        W38926   4.760  19.166  16.586 -0.5367 -0.0667 -0.0807
38063W        W38927  27.379   1.499  19.857  0.0159 -0.2932 -0.2004
38064W        W38928  11.999   1.760   6.256  0.0261 -0.1231  0.0481
38065W        W38929  12.320   6.048   3.420  0.1260 -0.3772  0.2336
38066W        W38930   6.326  17.305   5.075 -0.0624  0.1128 -0.1898
38067W        W38931  10.711   4.749  21.250  0.1448 -0.0022 -0.2081
38068W        W38932   8.020   9.127  24.212 -0.1515  0.4012 -0.1240
38069W        W38933  10.308  17.268  15.361 -0.0001  0.1147 -0.0683
38070W        W38934   1.068   2.807   6.081 -0.1480 -0.0299 -0.0315
38071W        W38935  12.302  18.671  13.823 -0.1754  0.1341 -0.1005
38072W        W38936  23.061  26.167   3.368  0.2336  0.0084  0.3834
38073W        W38937   2.361   5.740  27.906 -0.0682 -0.1254 -0.1045
38074W        W38938  24.695   9.878  20.144 -0.1348  0.0989 -0.1639
38075W        W38939  18.596  11.481  13.175 -0.2187  0.0904  0.0119
38076W        W38940   4.961  24.998  18.235  0.0328 -0.3946  0.2209
38077W        W38941   9.811  16.418  20.974 -0.0454 -0.1146 -0.0117
38078W        W38942  12.128   9.452  26.075  0.1315 -0.0864  0.2115
38079W        W38943  16.471  22.976  16.025 -0.1258 -0.0270  0.0354
38080W        W38944   5.213  20.798   6.936 -0.4989  0.0381  0.0755
38081W        W38945  13.002   8.068  12.378 -0.1638  0.3390  0.0192
38082W        W38946   7.667   9.828  10.169  0.1461  0.1520  0.0061
38083W        W38947  21.144  25.087  18.279 -0.1178 -0.4602 -0.1890
38084W        W38948  13.119  25.791  24.745  0.1107 -0.2340 -0.1946
38085W        W38949  24.956  16.615  19.627  0.3973 -0.1334 -0.0267
38086W        W38950  21.223  18.967   2.798 -0.1071 -0.0916  0.0008
38087W        W38951  21.961  10.723   6.745  0.3578  0.0280 -0.0480
38088W        W38952  10.277  16.064  11.715 -0.1237 -0.1564  0.1285
38089W        W38953  28.990   6.519  25.335 -0.0815  0.0250  0.0929
38090W        W38954  12.150  22.886  27.767  0.0322  0.1854 -0.3225
38091W        W38955  29.001  16.698  12.837  0.1028  0.1210  0.0154
38092W        W38956  15.744  21.295  20.387 -0.0247  0.0225 -0.1286
38093W        W38957   7.088  18.748  23.336 -0.2454  0.2063  0.0716
38094W        W38958  19.646  27.771  27.556 -0.0604  0.0420 -0.1465
38095W        W38959   5.076  12.091  21.201 -0.0273 -0.2926 -0.1591
38096W        W38960   5.887  23.681  14.648 -0.3362  0.3697  0.1094
38097W        W38961  25.972  22.598  26.309  0.2481  0.3354  0.4296
38098W        W38962   6.146  11.492  28.943 -0.0564  0.1104 -0.1932
38099W        W38963   6.090  19.383  25.674 -0.1259 -0.1248 -0.3670
38100W        W38964  18.516  26.535   6.371 -0.1634 -0.0300  0.2015
38101W        W38965  12.129  20.794  25.810 -0.1174 -0.0768  0.0404
38102W        W38966  23.413   8.291   6.570 -0.1943 -0.0059 -0.8055
38103W        W38967   3.353   4.111  23.302 -0.1914  0.1652  0.1739
38104W        W38968   8.343  13.187  20.091  0.0295 -0.1757 -0.1273
38105W        W38969  17.376  28.331  13.494 -0.0201 -0.0778 -0.0754
38106W        W38970   1.744   3.990   9.452  0.1801 -0.1921  0.0811
38107W        W38971  13.547   7.113   5.154  0.0971  0.1228  0.0030
38108W        W38972   1.628  20.561  13.393  0.1077 -0.0760 -0.2227
38109W        W38973  20.187   3.040  25.374  0.0669  0.0051 -0.2828
38110W        W38974  12.827   0.645   2.013  0.0967  0.1550  0.0231
38111W        W38975   8.098   7.419  22.331 -0.2588 -0.0637 -0.1534
38112W        W38976  29.088  12.940  12.228  0.0413  0.0293 -0.3449
38113W        W38977  16.917  12.012  22.104  0.0380  0.0032  0.0284
38114W        W38978  27.874   4.685  12.513 -0.0974  0.1959  0.1193
38115W        W38979   2.700  22.041  21.452 -0.1915 -0.0281 -0.0032
38116W        W38980   6.217  17.454  24.252 -0.0958 -0.1525  0.1770
38117W        W38981   8.415  22.643  16.797 -0.2421  0.1229  0.2590
38118W        W38982   7.623  25.607  26.273 -0.2787 -0.3413  0.1078
38119W        W38983  22.217   0.280  25.770 -0.0750 -0.1096 -0.0592
38120W        W38984  22.891  14.469   3.339  0.0911  0.1170 -0.1880
38121W        W38985  28.526  22.637   0.816 -0.0307 -0.1172 -0.0141
38122W        W38986   3.250   9.273   9.382  0.1532  0.4368 -0.1140
38123W        W38987  22.056  18.545  26.851  0.1466  0.1938  0.0519
38124W        W38988   7.983  12.213  22.684 -0.2527 -0.1876 -0.2447
38125W        W38989   9.995   6.098  21.920 -0.2093 -0.1231  0.0311
38126W        W38990  27.109  28.197   1.941  0.1999  0.0893  0.1350
38127W        W38991   6.880  24.868   0.154 -0.0894 -0.1923  0.0280
38128W        W38992   2.363   0.791   1.940 -0.0264 -0.0775  0.0086
38129W        W38993  20.406  11.735   3.131 -0.3094  0.2466 -0.2540
38130W        W38994  18.305   3.292  22.600 -0.1139  0.2835 -0.0343
38131W        W38995  19.377   9.282  19.631 -0.1180  0.2805 -0.1651
38132W        W38996   0.235   4.873  18.834 -0.0367  0.1066 -0.2609
38133W        W38997   8.623  26.313   9.979 -0.3100  0.0263  0.5324
38134W        W38998  25.931  26.305  19.888 -0.1259 -0.0663 -0.0181
38135W        W38999  13.207   8.309  14.569 -0.1338  0.0951  0.2251
38136W        W39000  19.732  15.538   2.938  0.1611  0.3341 -0.0702
38137W        W39001  27.396  21.573  15.269  0.0698  0.0576  0.1063
38138W        W39002  11.812  24.588  28.189  0.1444 -0.1696  0.2102
38139W        W39003  23.075  13.231  12.534 -0.1311 -0.1953  0.0993
38140W        W39004  22.400  23.597  15.516 -0.3194  0.0457 -0.1970
38141W        W39005   7.963   1.159  27.391  0.3105  0.1096 -0.1590
38142W        W39006  27.371   7.586  18.827 -0.2448  0.1537  0.0794
38143W        W39007  20.123   9.524   1.800  0.2937 -0.2008 -0.0570
38144W        W39008   8.956  22.870   2.840 -0.0590 -0.2193 -0.2996
38145W        W39009   5.555  11.241   6.902  0.0385  0.1744 -0.0584
38146W        W39010  22.425  22.209  16.855 -0.0127 -0.3266 -0.0369
38147W        W39011  13.752  19.528  19.066 -0.1170 -0.3384  0.0384
38148W        W39012   7.181  19.928   1.164  0.1495  0.2501  0.0843
38149W        W39013   6.553  28.680  19.001 -0.1232 -0.3369 -0.1827
38150W        W39014  13.356  26.402  29.019 -0.1522 -0.1018 -0.3546
38151W        W39015   9.383   7.805   6.187 -0.1033 -0.0964 -0.0301
38152W        W39016  23.649  21.066   2.205  0.2435  0.0374  0.1136
38153W        W39017   9.568  13.121  13.247 -0.2101 -0.1230  0.1755
38154W        W39018  29.000   9.227  21.510  0.2413  0.0835 -0.0982
38155W        W39019   4.443   5.680  19.182  0.1824  0.0053 -0.1410
38156W        W39020  16.199   8.771  12.976  0.0111 -0.0859  0.0596
38157W        W39021  22.979   4.009  24.998  0.1372 -0.1006  0.0498
38158W        W39022  25.707  14.629   8.012 -0.1205 -0.1675 -0.1077
38159W        W39023  10.431   6.536  16.239  0.2090 -0.1708 -0.0582
38160W        W39024  23.061  11.505   6.220 -0.0398 -0.0979 -0.2213
38161W        W39025  20.046  27.517  22.137  0.1213  0.1877 -0.2359
38162W        W39026  14.487  28.065   3.735  0.1958 -0.1462 -0.0256
38163W        W39027  14.202   8.390  23.491 -0.0587 -0.2294  0.0329
38164W        W39028  27.114  17.540  26.835 -0.1941 -0.0116 -0.0354
38165W        W39029  17.643   2.594  13.226  0.2821  0.0996  0.3600
38166W        W39030  14.641  16.119  28.302  0.2444  0.0488  0.1136
38167W        W39031   4.466  17.995  19.597 -0.3666 -0.2717  0.1553
38168W        W39032   2.957  16.630   0.190 -0.1005  0.0685 -0.0184
38169W        W39033   5.981  18.869   2.416 -0.2253 -0.0683 -0.0432
38170W        W39034  10.797   4.445  18.073 -0.1014 -0.1673  0.0401
38171W        W39035  27.690   9.384   9.761 -0.0293  0.1068  0.0584
38172W        W39036   2.541  17.765  25.595  0.1128 -0.1396  0.0662
38173W        W39037   3.506  16.935  26.890 -0.0389 -0.0458 -0.1419
38174W        W39038   1.494  23.089  27.890 -0.0608  0.0527  0.0075
38175W        W39039   8.541  16.214  23.871  0.2620 -0.0041  0.2744
38176W        W39040  25.206   9.460  20.916  0.0547  0.3226  0.4130
38177W        W39041   9.358  28.724   2.047 -0.1672 -0.0834 -0.0082
38178W        W39042  27.278  16.820  27.760  0.0569  0.0976  0.3523
38179W        W39043  14.729   5.650  16.673  0.0663  0.2764  0.1619
38180W        W39044  28.646  10.269   1.405  0.2849 -0.0041 -0.1126
38181W        W39045  22.574   7.751   5.441  0.0571 -0.0634 -0.0168
38182W        W39046  18.078  13.284  16.445 -0.0490  0.3809  0.2351
38183W        W39047   3.893   0.555  15.539  0.0795 -0.1111  0.0288
38184W        W39048  25.361  26.351  23.741  0.1752 -0.5509  0.0118
38185W        W39049   8.780  19.476  13.165  0.1832  0.0475  0.0628
38186W        W39050   2.587   7.511   9.621 -0.1898 -0.1654  0.1623
38187W        W39051  14.238   9.105  13.907 -0.5216 -0.0078 -0.1540
38188W        W39052  21.790   0.832   0.008  0.0908  0.0183  0.1110
38189W        W39053  13.857  27.227  18.230 -0.1502  0.1975  0.0118
38190W        W39054   4.198  13.065  17.461 -0.1268 -0.0707 -0.0960
38191W        W39055  11.682  12.429  14.945  0.0104  0.3662  0.0714
38192W        W39056   1.184  22.875  21.416  0.1432 -0.2224  0.0617
38193W        W39057   2.915  15.153  20.543  0.0338  0.0201  0.2478
38194W        W39058  22.832  20.599   3.389 -0.2591  0.1649  0.3950
38195W        W39059   5.841   9.920  14.038  0.1275  0.1644 -0.1317
38196W        W39060  21.463   9.449  23.371  0.2841  0.0925  0.3009
38197W        W39061  13.473   2.514  24.762  0.2258  0.4769 -0.2983
38198W        W39062   3.171   4.113   9.081 -0.0264  0.2447 -0.1589
38199W        W39063  23.017  21.301  27.903  0.2926  0.0158  0.3780
38200W        W39064  26.075  16.790   1.306 -0.0010  0.2830 -0.0173
38201W        W39065  22.839  16.061  25.817 -0.1130 -0.2969 -0.1952
38202W        W39066   0.418   5.708   1.588 -0.0931  0.0214 -0.2659
38203W        W39067   0.167  14.313   5.832 -0.0595  0.2792  0.1075
38204W        W39068   4.855   8.281   1.536 -0.0283  0.1437  0.1892
38205W        W39069   1.622  27.743  26.562  0.1791  0.1879  0.3492
38206W        W39070  26.083  19.901   4.030  0.1289 -0.0392  0.0990
38207W        W39071  16.754  13.143   5.513 -0.1659  0.1612 -0.1252
38208W        W39072  10.989  13.599   9.230  0.0494 -0.0520 -0.1751
38209W        W39073   9.872  25.113  17.346 -0.2598 -0.2130  0.5025
38210W        W39074   0.717  14.494  19.926  0.3332 -0.1439 -0.3216
38211W        W39075  14.696  24.903   2.797 -0.1159  0.3140  0.0535
38212W        W39076  24.984   4.392  26.961  0.1056 -0.0025 -0.0863
38213W        W39077   3.327  15.833  24.166  0.0464 -0.2954 -0.1273
38214W        W39078   4.794  21.243   9.588 -0.0712 -0.0318  0.2157
38215W        W39079   4.213  17.200  27.488 -0.0262  0.1063 -0.1017
38216W        W39080   8.318  16.098   5.274  0.0112 -0.0432  0.0310
38217W        W39081  25.061   9.833   5.659  0.0383 -0.1073 -0.3153
38218W        W39082  10.750  14.266   0.999 -0.1714 -0.2126  0.2241
38219W        W39083  24.939   8.351   0.361 -0.0119  0.0283  0.1102
38220W        W39084   8.019  12.850  23.266 -0.3000 -0.0852  0.0466
38221W        W39085   1.723  20.610   4.974 -0.3368 -0.3368 -0.1022
38222W        W39086  14.775   4.656  28.261 -0.0129 -0.1253  0.2170
38223W        W39087   8.156   7.978   9.151 -0.0767  0.2254 -0.2849
38224W        W39088  12.775  26.897   3.230 -0.1778  0.1637 -0.2266
38225W        W39089   4.789  20.516  16.290  0.2268  0.1042 -0.2978
38226W        W39090   1.263  27.927  28.277  0.0238  0.3135  0.0643
38227W        W39091   2.199  25.130   2.946 -0.2324 -0.0992 -0.0488
38228W        W39092   9.613  24.314  23.085 -0.4249  0.3310 -0.1531
38229W        W39093   0.628  23.870  25.281 -0.1411 -0.2148  0.2561
38230W        W39094  24.408  17.993  17.492 -0.0026 -0.0900  0.4104
38231W        W39095  25.546  20.394  21.219  0.1774  0.0431 -0.2493
38232W        W39096  25.984  19.721  28.975  0.0827  0.1597  0.0284
38233W        W39097  12.393  25.626  28.000  0.0664  0.2455  0.2326
38234W        W39098  25.669   2.237   5.593  0.0654  0.1002  0.0123
38235W        W39099   6.969  12.954  24.113  0.0684 -0.1448  0.1606
38236W        W39100  23.950  27.891   0.874  0.1366  0.1590 -0.1517
38237W        W39101  11.680  16.938  17.238 -0.0284 -0.1053  0.2603
38238W        W39102  22.225  11.465  26.852 -0.1118  0.2816  0.2361
38239W        W39103   7.710   1.145   1.344 -0.0913 -0.2465  0.1488
38240W        W39104  13.039   9.863  27.802  0.2077  0.1716 -0.1296
38241W        W39105   0.100  26.047  22.616 -0.0861 -0.0628  0.0159
38242W        W39106  15.830  18.701  15.851 -0.2771  0.1871  0.0954
38243W        W39107   1.474   5.692   9.320 -0.1530 -0.0907  0.0971
38244W        W39108  15.923  15.569   3.383 -0.0566 -0.0106 -0.0836
38245W        W39109   6.846  22.044   0.384  0.1609 -0.2401 -0.1580
38246W        W39110   9.106  25.601  21.946 -0.1667  0.0026  0.0489
38247W        W39111  28.610  19.565  16.169 -0.3387 -0.0356  0.0838
38248W        W39112   3.897  16.090   0.265  0.2821 -0.0833 -0.0868
38249W        W39113  28.299   8.581  26.761 -0.0771  0.0100 -0.2368
38250W        W39114  17.713  18.982  16.874 -0.1878  0.0102 -0.2527
38251W        W39115  25.750   9.509  15.536  0.2581 -0.1555 -0.4799
38252W        W39116  19.354   8.687  28.044  0.1311  0.2536 -0.0157
38253W        W39117  24.593  18.000   5.223  0.1408 -0.0290  0.2040
38254W        W39118  22.020  14.441  25.299 -0.1506  0.1401  0.2431
38255W        W39119   5.320   0.488  20.479 -0.0413  0.2516 -0.2092
38256W        W39120   8.369   2.520  16.887 -0.0055  0.2754 -0.0942
38257W        W39121   9.433  24.462  21.150  0.3501 -0.1127 -0.1768
38258W        W39122   2.604  15.847  23.383 -0.1962  0.4289 -0.0805
38259W        W39123   3.034  12.578   4.630  0.0126  0.2754  0.4438
38260W        W39124   3.855  15.849  14.205  0.1268  0.1098  0.0152
38261W        W39125   4.335  25.987   6.734 -0.0301 -0.2495  0.2762
38262W        W39126  17.858  24.253  23.032 -0.1064 -0.1108  0.1249
38263W        W39127  12.095  12.368  23.803  0.0776 -0.0014  0.2537
38264W        W39128  10.244   2.588  21.995  0.0538  0.0998  0.1993
38265W        W39129   7.574   8.721  18.951 -0.0468  0.0649 -0.1611
38266W        W39130   6.909  15.646  20.565 -0.2911 -0.0761 -0.1972
38267W        W39131  28.245  13.243   0.895  0.3111  0.1648 -0.0374
38268W        W39132  13.492   4.762   5.561 -0.3768 -0.0562  0.0370
38269W        W39133   5.687   8.546  19.382 -0.0971 -0.2324  0.0561
38270W        W39134  15.828  11.623  20.317  0.1543 -0.4283 -0.5226
38271W        W39135  17.823  14.487   4.339 -0.1754  0.2138  0.0965
38272W        W39136  25.166  26.458  19.899 -0.2154  0.0858  0.0592
38273W        W39137   9.574  21.245   5.383  0.1884 -0.0856 -0.3342
38274W        W39138  17.902  28.381   1.181  0.1183  0.0551  0.2861
38275W        W39139  21.014  22.953  25.543  0.2569 -0.0350 -0.0397
38276W        W39140  23.751  19.558  19.239 -0.0685 -0.0561 -0.2597
38277W        W39141   4.381  26.453  22.338  0.0595  0.0048 -0.0125
38278W        W39142  16.024   7.182  28.508 -0.1671 -0.0276 -0.0585
38279W        W39143  12.992  24.879  10.288  0.1705  0.0253 -0.0388
38280W        W39144   5.323   3.947  14.294  0.1009  0.0821 -0.1187
38281W        W39145   8.213  22.246   0.317 -0.3249  0.0650 -0.0499
38282W        W39146  21.532  10.663   5.887 -0.3913 -0.0297 -0.0800
38283W        W39147  10.764  22.810   1.173 -0.2480  0.1732 -0.2461
38284W        W39148   3.683  29.089  19.256  0.0071 -0.1735  0.0620
38285W        W39149   7.595  24.209   6.587  0.2875 -0.0154 -0.3208
38286W        W39150   3.258  19.048   8.638 -0.0757 -0.0067 -0.1864
38287W        W39151  20.714  12.970  16.594 -0.1799  0.0674  0.4659
38288W        W39152   7.459   9.373  12.964  0.3333  0.0044 -0.0348
38289W        W39153   0.988  19.998  24.321  0.2979 -0.1136  0.2057
38290W        W39154  10.415  14.022   6.498  0.1554  0.1281  0.1238
38291W        W39155  15.917  16.131  22.036  0.0461  0.0356  0.2626
38292W        W39156  27.710  15.317  25.408 -0.0464  0.1382  0.0912
38293W        W39157   7.731  12.090  15.280  0.3299 -0.2174 -0.0841
38294W        W39158  22.006   1.317  16.947 -0.2737  0.0862 -0.0152
38295W        W39159  14.797  17.891   4.346  0.0461 -0.1272  0.0033
38296W        W39160   8.697   5.871  18.365 -0.0489 -0.3330 -0.3921
38297W        W39161   3.832   7.590   0.321  0.2003 -0.1168 -0.0881
38298W        W39162   7.660  26.101   9.184 -0.2371  0.3000 -0.0127
38299W        W39163  14.250  18.763   7.026 -0.0652  0.2726  0.2518
38300W        W39164  20.947  11.551   3.051  0.2074 -0.1410 -0.0454
38301W        W39165   9.989   6.589  17.011 -0.0747  0.0351  0.1840
38302W        W39166   6.697   4.338  20.005 -0.3426  0.0781  0.2730
38303W        W39167  16.791  27.846  27.534 -0.0544  0.2650 -0.3768
38304W        W39168  10.257   6.124  18.304 -0.4952  0.2260 -0.2292
38305W        W39169  23.177  21.683  22.009 -0.3004  0.4415 -0.0083
38306W        W39170  21.071  15.367  22.780 -0.0867  0.1421 -0.0826
38307W        W39171   1.649  22.527  23.999  0.1577 -0.0273 -0.0391
38308W        W39172   8.821   3.036  17.083  0.1117  0.1909 -0.3563
38309W        W39173  23.808   6.503  25.398 -0.2468  0.0584 -0.3119
38310W        W39174   2.280  22.219  10.864 -0.0661 -0.0290  0.2988
38311W        W39175   5.461   9.892   1.688 -0.1684  0.1684  0.4613
38312W        W39176   4.327  15.437  20.793 -0.4491 -0.0896  0.3614
38313W        W39177  28.358  27.373   0.582 -0.0043  0.1679  0.0647
38314W        W39178   8.650  24.322  27.039 -0.0120  0.0258  0.0476
38315W        W39179  17.997   5.085  11.760  0.1577 -0.3921 -0.0410
38316W        W39180   4.976  10.067   7.010  0.0491 -0.0643  0.1704
38317W        W39181   5.775  22.731   1.443 -0.0299 -0.1255 -0.1104
38318W        W39182   7.035   2.306   3.804 -0.0416  0.2768  0.2796
38319W        W39183  13.425  25.856   9.634 -0.1388 -0.2008 -0.0799
38320W        W39184  16.210  22.712  18.180  0.0942 -0.1964 -0.0453
38321W        W39185  18.664  12.447   6.795 -0.1544 -0.1986 -0.1164
38322W        W39186   9.995   9.462   5.773  0.5113  0.0291 -0.0951
38323W        W39187   9.080   0.875  16.563 -0.0166 -0.1102 -0.1479
38324W        W39188  25.663   9.905  19.125 -0.1136 -0.1025  0.0172
38325W        W39189   9.180  16.673   0.787  0.1392  0.2624 -0.1342
38326W        W39190  27.552   9.259   3.154 -0.0600 -0.3083  0.3017
38327W        W39191  28.952  17.095  20.441 -0.2070  0.2940  0.1104
38328W        W39192  24.144  18.515  17.040  0.0039  0.0700  0.0709
38329W        W39193  19.884   5.835   0.567 -0.2473 -0.1051 -0.0755
38330W        W39194   5.446  12.463  22.752  0.3302 -0.1380 -0.2340
38331W        W39195  24.815  15.320  25.983 -0.0068  0.0824 -0.1503
38332W        W39196  21.181  28.351  22.263 -0.1701 -0.4041 -0.0194
38333W        W39197   7.289   0.847   8.666 -0.2101  0.2217 -0.0924
38334W        W39198  22.393  21.375   1.654 -0.0443  0.1333  0.3294
38335W        W39199  21.021   3.950   0.764  0.0021 -0.1736 -0.0476
38336W        W39200   4.291  28.863   5.884  0.0596  0.0638 -0.0106
38337W        W39201   4.263  16.564  20.677  0.2262 -0.0862 -0.0815
38338W        W39202  21.172   3.812  17.440  0.2308 -0.2303 -0.2906
38339W        W39203  22.045  18.230   3.777 -0.0722  0.0028  0.0795
38340W        W39204   3.093  10.226   3.000 -0.0797  0.2940 -0.0445
38341W        W39205  11.273  15.920  13.731 -0.3081  0.6180 -0.1234
38342W        W39206   2.131   5.686   4.424  0.1225  0.3144 -0.0757
38343W        W39207  14.481  10.823  16.087 -0.1580 -0.3003  0.0140
38344W        W39208   5.793  22.948  14.816 -0.0847 -0.2947 -0.2906
38345W        W39209  22.373   8.792  20.558 -0.2098  0.2229 -0.1210
38346W        W39210  24.276   5.667  18.999 -0.0715 -0.1394  0.1991
38347W        W39211  19.604   6.697   0.594  0.2154  0.2026  0.1192
38348W        W39212   1.831   7.999   0.455  0.3608 -0.1509 -0.2830
38349W        W39213  27.209  19.347  22.084 -0.5158 -0.0750  0.2669
38350W        W39214  11.117  11.603   6.992  0.4107 -0.0722 -0.4790
38351W        W39215   1.647   8.560  13.320 -0.1083 -0.0214  0.1570
38352W        W39216  13.941   0.414   4.309  0.1439 -0.2702 -0.0340
38353W        W39217  23.143  16.539   8.250  0.2497  0.2690 -0.6252
38354W        W39218  23.285  21.656   4.132  0.2383 -0.0827  0.2153
38355W        W39219   5.886  23.920  23.696 -0.1137  0.1828  0.1867
38356W        W39220  21.086  28.574  23.333 -0.2772 -0.2596  0.0755
38357W        W39221  12.185  28.222  25.502 -0.2289  0.2741  0.1636
38358W        W39222  16.439  26.922   3.737 -0.3405  0.0578  0.1016
38359W        W39223  14.567   6.121  28.042  0.0326  0.1529 -0.4163
38360W        W39224   6.474   3.114  17.559 -0.2425 -0.0689 -0.4313
38361W        W39225   4.168  20.704   6.032  0.0806 -0.0218 -0.1606
38362W        W39226   6.753  11.385   2.552  0.0017  0.0197  0.4396
38363W        W39227  20.899   1.293  19.511  0.2072 -0.0573 -0.2996
38364W        W39228  12.827   9.394  27.993 -0.0336  0.3733  0.0875
38365W        W39229   9.652   0.524  22.671  0.0734 -0.2401 -0.0276
38366W        W39230   0.697  12.224   9.721  0.4571 -0.3766  0.1132
38367W        W39231   2.173   8.981   3.999 -0.1390 -0.1118 -0.3126
38368W        W39232   7.605  20.814  17.324  0.0653 -0.1251  0.3237
38369W        W39233   8.224  16.760   0.473  0.3890 -0.2495  0.3425
38370W        W39234   2.635   8.105  25.882  0.0127  0.2088  0.0299
38371W        W39235   1.274   0.780  21.993  0.0064  0.1985  0.0844
38372W        W39236  12.919   7.365   0.945 -0.0692  0.4996 -0.1537
38373W        W39237   8.037  18.119  21.903  0.0175  0.0926 -0.2871
38374W        W39238  27.864   9.379  23.993 -0.1714  0.0535 -0.2408
38375W        W39239  26.097  28.919  25.070  0.0863 -0.0263 -0.0014
38376W        W39240   5.742   9.414  10.630  0.0470 -0.5034  0.0000
38377W        W39241  28.854   2.743   9.254 -0.1637  0.1189 -0.1201
38378W        W39242   9.350  28.263   7.668  0.1015  0.1943 -0.1134
38379W        W39243  11.705  16.700  22.478 -0.1355 -0.2366 -0.3419
38380W        W39244   9.647  25.519  12.827 -0.1240 -0.3444  0.0157
38381W        W39245   2.866  23.222  11.465  0.3054 -0.1273 -0.0303
38382W        W39246  25.131   5.967  18.041 -0.4328  0.3615 -0.0753
38383W        W39247  19.423  18.067  19.693 -0.3547  0.0968  0.1802
38384W        W39248  13.558  23.982  14.426  0.0207 -0.2828 -0.1162
38385W        W39249  24.847   9.752   8.827 -0.0453 -0.1854  0.0672
38386W        W39250  28.243  13.940  28.802  0.1361 -0.1045 -0.1115
38387W        W39251   1.357   5.332   3.355 -0.0189  0.4296 -0.1363
38388W        W39252   9.843  15.972   9.607 -0.2887 -0.0896  0.2082
38389W        W39253   6.119  25.475   2.016  0.2058  0.3188 -0.0795
38390W        W39254   2.558  16.308  28.386 -0.2331  0.1216  0.1344
38391W        W39255  18.069  20.822   5.141  0.2563 -0.0421  0.1570
38392W        W39256   5.709  17.323  18.090  0.0569 -0.0658 -0.1805
38393W        W39257  21.317  14.368  22.920 -0.0660 -0.2876  0.2543
38394W        W39258   4.139   4.791   6.958  0.3515  0.0856  0.1168
38395W        W39259  20.484  21.817   1.456 -0.1192  0.0627  0.4133
38396W        W39260  19.822  14.178  12.501 -0.2368 -0.1761 -0.1252
38397W        W39261  26.427   6.298  13.752 -0.0175  0.0865  0.2060
38398W        W39262  22.879  22.970  13.770  0.0079  0.0935 -0.3580
38399W        W39263  14.860  24.411  28.311  0.1323  0.1592  0.0977
38400W        W39264   6.774  25.726  20.597  0.1542  0.2005  0.1024
38401W        W39265   3.222   2.924   0.977 -0.2310 -0.1149  0.0534
38402W        W39266   6.190   1.896  25.917 -0.1995 -0.1163  0.0647
38403W        W39267  20.703   8.745   5.915 -0.1071 -0.0069  0.2176
38404W        W39268  12.860   8.955  23.222  0.1188 -0.1137 -0.1590
38405W        W39269   8.919   4.029  23.404  0.2176 -0.1974 -0.2183
38406W        W39270  24.822  12.795  18.401 -0.4188  0.1526  0.0120
38407W        W39271   1.910  14.841  28.038 -0.1061 -0.2971 -0.0305
38408W        W39272  17.615  11.359  22.603  0.1587  0.1134  0.1328
38409W        W39273   2.763   6.037  22.488 -0.0220  0.1823  0.3830
38410W        W39274  14.626  28.605  15.040  0.1463  0.0662 -0.2328
38411W        W39275  18.686  20.050   9.028  0.1968 -0.0288 -0.0830
38412W        W39276   0.023   5.529  16.583 -0.2023  0.1661  0.1025
38413W        W39277  18.345  15.598   7.105  0.3459 -0.0087  0.0851
38414W        W39278  26.021   9.588  17.013 -0.3663 -0.3863  0.0124
38415W        W39279  12.743  12.125  26.426  0.4196 -0.0996 -0.1714
38416W        W39280  26.596  13.974  22.372  0.2705  0.3616  0.1421
38417W        W39281   5.180  15.275  11.282  0.0256  0.0984 -0.1513
38418W        W39282   4.695   4.877   9.428 -0.0755  0.2131  0.0062
38419W        W39283   0.447  22.690  18.504 -0.0428  0.2681 -0.0559
38420W        W39284  26.682  16.638  29.092  0.0439  0.2391  0.1089
38421W        W39285  12.443  25.407  24.205  0.0128  0.1318 -0.1826
38422W        W39286   0.944  15.266  24.999 -0.0261 -0.0510 -0.1067
38423W        W39287   5.593  13.529  24.802 -0.0881  0.3321 -0.2430
38424W        W39288  28.887   7.284   7.093 -0.1530 -0.1224 -0.0808
38425W        W39289   3.724  24.508   2.147 -0.2665  0.0088  0.1350
38426W        W39290  24.383   6.435  28.590  0.0314  0.0730  0.1899
38427W        W39291  22.292  19.144  28.593  0.0110  0.1118  0.1613
38428W        W39292  25.872   8.787  27.918  0.1161  0.3135 -0.1384
38429W        W39293   7.686   6.495  16.105  0.1773 -0.0989  0.2605
38430W        W39294  10.063  12.838  28.470  0.2142  0.0163  0.1423
38431W        W39295   6.142   3.362  27.239 -0.1409  0.0235 -0.0241
38432W        W39296  18.788  24.288   0.391  0.1595 -0.1283  0.0143
38433W        W39297   9.853   3.897  25.779  0.2546 -0.2703 -0.1372
38434W        W39298  14.258  11.701  18.958 -0.0293 -0.0132  0.0309
38435W        W39299  23.482  22.363  21.319 -0.0344  0.0467  0.2389
38436W        W39300  23.102  19.750  16.270 -0.0736 -0.1001 -0.2213
38437W        W39301  29.066   8.684   9.234 -0.1207 -0.3010  0.2808
38438W        W39302  14.197  24.745  28.005 -0.0933 -0.2034 -0.1785
38439W        W39303  17.900  25.132   5.110 -0.2621  0.1023  0.2651
38440W        W39304  27.466  20.096   4.704  0.2912 -0.2888 -0.1190
38441W        W39305  21.179  21.416  17.587  0.3816 -0.3186 -0.1782
38442W        W39306   8.845  19.772  21.107 -0.1796 -0.1557 -0.1830
38443W        W39307  16.474  28.056  22.554 -0.0799  0.0154  0.0601
38444W        W39308  10.380   1.146  25.380  0.3995 -0.1950  0.1879
38445W        W39309  11.564  25.797   3.059  0.0314 -0.2022 -0.0009
38446W        W39310   2.374   7.461  29.027 -0.0883  0.2190  0.1866
38447W        W39311  27.783   0.818  18.394 -0.0526 -0.0453 -0.3718
38448W        W39312  22.780  25.534  10.148 -0.0759 -0.0748 -0.2011
38449W        W39313  16.197  15.209  25.760 -0.3574  0.0034  0.0056
38450W        W39314   3.338  17.917  12.058 -0.0935  0.1048 -0.0539
38451W        W39315   7.291  22.249  21.686  0.0451  0.0777  0.0491
38452W        W39316  26.514  28.522   8.530  0.3065 -0.0805 -0.4209
38453W        W39317  22.375   1.362   7.357  0.0857  0.1242  0.1151
38454W        W39318  21.463   9.673  25.626  0.0083  0.1196 -0.1229
38455W        W39319  25.816  11.481   7.737 -0.1440  0.0084  0.0636
38456W        W39320  17.117  26.804   2.396 -0.2264 -0.1655 -0.1734
38457W        W39321  10.550  20.634   7.716  0.1666  0.0192  0.0324
38458W        W39322   3.896  14.687  23.562 -0.0464 -0.2309  0.0952
38459W        W39323   6.759   6.196  13.549 -0.0150 -0.1863 -0.0881
38460W        W39324   4.367  16.972  28.324  0.0722  0.0069  0.0061
38461W        W39325  10.001  13.758   8.647  0.1801 -0.2183 -0.0535
38462W        W39326  19.980  18.705  28.114  0.1785  0.3229 -0.0856
38463W        W39327  15.402   6.951  23.295 -0.0195  0.0104  0.0827
38464W        W39328   8.249  19.793   8.725  0.1515  0.2016 -0.0531
38465W        W39329  20.481  20.792   2.411 -0.1369  0.0688 -0.1625
38466W        W39330   1.833  12.071   8.754  0.2706 -0.2274  0.1112
38467W        W39331  13.258  27.503  27.476  0.0577 -0.1579  0.1118
38468W        W39332  19.433  11.134  24.361 -0.0536 -0.1154  0.2361
38469W        W39333   4.138  22.764  13.350  0.0793 -0.0647  0.0528
38470W        W39334  14.516   2.333  11.498 -0.1683 -0.1555  0.0637
38471W        W39335   4.778  19.723   7.593 -0.1373  0.0579 -0.1361
38472W        W39336  20.688   7.862  16.308 -0.1845  0.1390  0.1232
38473W        W39337  13.873  25.360  17.228 -0.0001  0.1094 -0.0941
38474W        W39338  25.302  24.572  19.373 -0.0426 -0.1221  0.0619
38475W        W39339  23.550  19.513  26.432  0.0228  0.1148  0.1512
38476W        W39340  24.108  18.543   7.086  0.0449 -0.2012 -0.0129
38477W        W39341  13.481   1.411   2.104  0.2028  0.0557  0.1032
38478W        W39342  22.955   0.057  19.227  0.0572 -0.1532 -0.1352
38479W        W39343   5.173  18.933  18.378  0.1533  0.1747  0.1493
38480W        W39344   7.747   4.975   2.960 -0.1231 -0.2966 -0.2647
38481W        W39345  21.284  19.416  12.537 -0.2124 -0.1636 -0.0797
38482W        W39346   3.620  16.369  20.066  0.0834 -0.1148  0.1576
38483W        W39347  15.651  12.041   5.871 -0.1080 -0.2355 -0.1509
38484W        W39348  28.498   5.589   5.718 -0.0366 -0.0188  0.0019
38485W        W39349  23.124  11.009  13.973  0.1081  0.0702  0.1533
38486W        W39350   9.108   5.450  18.331 -0.1128 -0.0492 -0.0063
38487W        W39351  10.608   3.879  11.323  0.1010 -0.0495 -0.3376
38488W        W39352   3.601  22.643  25.485  0.0384 -0.2459 -0.0956
38489W        W39353   3.391  17.716   4.952  0.1826 -0.0449  0.0840
38490W        W39354   0.197  21.499   6.505 -0.0440 -0.0041 -0.1749
38491W        W39355   1.754  24.507  28.823  0.3148  0.2551  0.1628
38492W        W39356  28.977   8.199   5.836  0.0216  0.1143 -0.0462
38493W        W39357  25.671  12.971   5.961  0.1310 -0.1848  0.1056
38494W        W39358   9.279  24.036   7.311 -0.0010 -0.0855 -0.2052
38495W        W39359  13.807  23.047   4.761  0.3870 -0.1039 -0.0353
38496W        W39360  26.926  20.038  25.531  0.0498  0.0169  0.1258
38497W        W39361  20.044  28.523  11.631  0.3763  0.2876 -0.0681
38498W        W39362   9.934   6.054  17.005 -0.0024  0.1886  0.2163
38499W        W39363   0.975   6.754  13.142  0.2473 -0.2875 -0.3134
38500W        W39364  28.224  24.005  16.603 -0.3530 -0.4729 -0.0455
38501W        W39365   0.930  13.830  25.453 -0.0539 -0.0642  0.0754
38502W        W39366   7.009  24.571  24.864  0.1251 -0.3589  0.1161
38503W        W39367   8.661  17.083  20.601  0.0981  0.0406  0.0326
38504W        W39368  13.191  13.817  14.220  0.1926 -0.0109  0.1918
38505W        W39369   2.095  17.211  24.875  0.0711 -0.3221 -0.0478
38506W        W39370   6.451  20.921   8.444 -0.0842 -0.1969  0.1323
38507W        W39371   1.912  27.883  16.827 -0.5383 -0.0834  0.1367
38508W        W39372   1.374  20.194  26.547 -0.2168  0.3855 -0.0530
38509W        W39373   7.487  26.629  18.269 -0.1305 -0.0394 -0.0403
38510W        W39374   1.513  11.539  21.554 -0.3321 -0.3927 -0.1271
38511W        W39375  26.778   0.385  13.542  0.0535  0.1056  0.3305
38512W        W39376   7.689  13.164  20.620 -0.1227 -0.0364 -0.1074
38513W        W39377   5.282   4.230  11.187  0.1626 -0.1333  0.1463
38514W        W39378  18.362   5.957   4.477  0.0026 -0.2291  0.0945
38515W        W39379   6.000  25.193  14.166 -0.1605  0.1235  0.0880
38516W        W39380  22.113  17.553   4.843 -0.0657  0.0275  0.1020
38517W        W39381  28.885  16.735  24.636 -0.0870  0.0067  0.0254
38518W        W39382   9.006  15.432  21.472  0.0459 -0.1746  0.0555
38519W        W39383   9.302  10.245  11.711  0.3333  0.0429  0.2805
38520W        W39384   4.480  15.370  22.593 -0.0154 -0.1527 -0.2028
38521W        W39385   7.315  10.350   5.722  0.0447 -0.2298  0.1128
38522W        W39386  22.578  15.845   4.881 -0.1154 -0.1590  0.4755
38523W        W39387  12.243   0.896  25.690 -0.0207 -0.1855 -0.1772
38524W        W39388  24.447  26.880  19.755  0.0918 -0.1316 -0.2051
38525W        W39389  22.890   7.561  13.459 -0.1806 -0.0962 -0.0622
38526W        W39390   0.476  18.600  25.784  0.1196  0.0173 -0.0041
38527W        W39391   5.155  11.229  17.321 -0.3926  0.1537  0.1324
38528W        W39392  16.604  26.366   3.696 -0.4279 -0.1571  0.0077
38529W        W39393   1.234  17.281  18.731  0.0388 -0.1213 -0.0909
38530W        W39394   4.000   0.342  15.040 -0.1044  0.0566 -0.4875
38531W        W39395  10.986   5.497   4.557  0.0876  0.3580  0.0861
38532W        W39396  24.360  18.909  25.461 -0.0240  0.0101 -0.0390
38533W        W39397  26.853  19.386   5.813 -0.2410 -0.0382 -0.0469
38534W        W39398   8.934  14.092  25.322  0.2540 -0.0003 -0.1645
38535W        W39399   5.641  10.059  24.989  0.5142 -0.3677  0.0455
38536W        W39400   4.230  14.050  10.604 -0.1382 -0.0412  0.2300
38537W        W39401   0.862  13.432  22.429 -0.1493 -0.1736  0.0450
38538W        W39402  22.069   6.216  17.123  0.2208  0.0745 -0.2222
38539W        W39403  11.814   6.667  16.905  0.0722 -0.0590 -0.2249
38540W        W39404   0.194  17.264  13.544 -0.0750  0.2990  0.0960
38541W        W39405  14.471   8.597   4.053 -0.2304  0.1598 -0.2832
38542W        W39406  23.077   0.225  21.574 -0.0422  0.0794  0.4069
38543W        W39407  20.412  13.341  27.697 -0.0365 -0.1236 -0.0751
38544W        W39408  14.869   7.044   8.509  0.2180 -0.1833 -0.1057
38545W        W39409   3.794  14.671  13.229 -0.2834 -0.1120  0.0579
38546W        W39410  17.735  17.517   8.749  0.0286 -0.2015 -0.3646
38547W        W39411  10.405  15.609   8.110 -0.1533  0.0525  0.2235
38548W        W39412  10.304   0.645  23.178  0.2529  0.0373 -0.1307
38549W        W39413  22.711  11.751   2.054  0.0029 -0.0276  0.1381
38550W        W39414  27.339   6.094  27.766 -0.0089 -0.0582 -0.1168
38551W        W39415   1.189  24.087  16.666 -0.0020  0.0781  0.0178
38552W        W39416  16.130  13.700  25.523 -0.0807  0.0142 -0.1797
38553W        W39417  18.344   3.308   3.024  0.0425 -0.4123 -0.0937
38554W        W39418  12.097   7.033  15.892 -0.1187 -0.3858 -0.0311
38555W        W39419   5.875   1.799   7.655  0.0886  0.2357 -0.0773
38556W        W39420   2.546  26.922  19.077  0.0039  0.1143  0.2211
38557W        W39421   4.819  24.233  23.276 -0.0730  0.3204  0.1120
38558W        W39422  22.893   6.582   8.311 -0.2244  0.1440  0.1901
38559W        W39423  19.206  17.279   4.525 -0.3701  0.0723 -0.0707
38560W        W39424  27.027   2.399   4.594 -0.0114  0.1876  0.0504
38561W        W39425  19.560   4.768   1.299 -0.1140  0.0191 -0.2728
38562W        W39426   9.923  17.252  23.400 -0.2402 -0.0817  0.0628
38563W        W39427  20.962   9.405   4.248 -0.0457 -0.4198  0.2216
38564W        W39428   4.645  17.074  16.212  0.1080  0.0572 -0.1744
38565W        W39429  13.983  10.943  15.241  0.3422  0.2292  0.5548
38566W        W39430  10.007   8.065  22.713  0.0712 -0.2518  0.2855
38567W        W39431   7.848   1.730  28.629 -0.2285  0.0176  0.0227
38568W        W39432  22.343   6.326   5.927 -0.1161 -0.0959 -0.2819
38569W        W39433  12.723  19.160  18.768  0.0520 -0.1381 -0.0926
38570W        W39434  18.581  19.653  24.677 -0.1773  0.0527 -0.0992
38571W        W39435   9.477  24.908  10.060 -0.1803  0.0358  0.1636
38572W        W39436  25.687   7.592  16.723  0.0933  0.2280 -0.2457
38573W        W39437  20.531  22.539  15.534  0.0775  0.2357  0.1030
38574W        W39438   0.285  19.366   0.453  0.3232 -0.1486 -0.2619
38575W        W39439   5.219  16.985   2.803 -0.3195  0.0093 -0.0286
38576W        W39440   7.431   1.475  22.037 -0.3008 -0.5350  0.1621
38577W        W39441  18.609  18.966  23.584  0.1828 -0.1151 -0.3395
38578W        W39442  15.722   7.085  19.604 -0.3137  0.2168  0.1225
38579W        W39443  15.148   2.894   2.329  0.3272  0.0289 -0.1229
38580W        W39444  26.998  18.869   0.233 -0.5272  0.1026 -0.0005
38581W        W39445  26.449   7.836  14.231  0.2394 -0.2028  0.3205
38582W        W39446  14.930  25.467  18.905  0.3627 -0.0477  0.0755
38583W        W39447  11.272  13.342  24.196 -0.0837  0.1142 -0.0736
38584W        W39448  16.424  20.438  17.080 -0.1020 -0.3990 -0.0315
38585W        W39449   2.683   0.487   9.760 -0.1985  0.3488 -0.0750
38586W        W39450  29.116  10.543  15.509 -0.1667 -0.0436  0.0004
38587W        W39451  18.286   9.666   0.682  0.0951  0.0145 -0.1807
38588W        W39452   0.783  17.695   4.282  0.0607 -0.1565  0.0891
38589W        W39453  19.904  28.319   8.965  0.1123  0.2063 -0.3789
38590W        W39454   5.923  18.857  25.675  0.0314  0.0166  0.0342
38591W        W39455  24.926  11.824  18.802  0.3803  0.0666 -0.0875
38592W        W39456  15.300   6.963  23.851  0.3154 -0.2816 -0.2779
38593W        W39457  14.965   8.403   0.499 -0.0117  0.1359  0.3391
38594W        W39458  15.788  25.920   9.991 -0.3473  0.1247 -0.2627
38595W        W39459  23.893  13.892  19.010  0.1308 -0.0652  0.0692
38596W        W39460  27.744  13.194  21.224  0.1731  0.0267  0.0688
38597W        W39461  10.433   5.640  25.837  0.1356 -0.1026  0.1411
38598W        W39462  27.919  20.312  15.336  0.2489  0.2212 -0.1497
38599W        W39463  26.098  22.271   4.306 -0.2877  0.1594  0.2029
38600W        W39464  22.899  13.195  13.314 -0.1293 -0.0164 -0.2662
38601W        W39465   1.623  24.929   3.584 -0.1842 -0.0301 -0.0023
38602W        W39466   8.593  15.276   4.911  0.0276  0.2249 -0.0999
38603W        W39467   5.884  12.702  24.640  0.0385  0.2751  0.1933
38604W        W39468   0.631  16.038   9.335 -0.0656 -0.0430 -0.0942
38605W        W39469   1.542   8.896  12.473  0.0789  0.1929 -0.2244
38606W        W39470  22.391   1.954  26.564 -0.2819  0.0331  0.3716
38607W        W39471  16.048  14.234   7.391  0.0653 -0.2758  0.1967
38608W        W39472  23.918  10.388  10.212  0.0842 -0.0829 -0.0286
38609W        W39473  28.705  20.985  28.491  0.1964  0.2114  0.3180
38610W        W39474  11.827  24.976  14.430  0.0235  0.0640  0.1984
38611W        W39475  19.144  21.825  27.221 -0.2969 -0.1183  0.2969
38612W        W39476   1.636  27.327  25.104 -0.0671  0.0660  0.3712
38613W        W39477  12.546  15.191   8.545 -0.3493 -0.0985 -0.0300
38614W        W39478  23.296   2.333  25.982  0.2884 -0.0543 -0.0102
38615W        W39479  19.939   3.587   6.462  0.3022  0.0919 -0.0789
38616W        W39480  21.264  15.366  23.854  0.2316  0.0946  0.3528
38617W        W39481  19.375   4.412   0.855 -0.1353  0.1783  0.0981
38618W        W39482  22.848  27.557  12.029  0.3274 -0.1464  0.3703
38619W        W39483  15.704  16.127   8.757 -0.0817 -0.1947 -0.2409
38620W        W39484   3.980  24.897   2.315 -0.0731  0.1533 -0.0044
38621W        W39485  13.848  28.747   3.297 -0.1998  0.0993  0.0542
38622W        W39486   8.983   3.963   3.652  0.0378  0.2723  0.0417
38623W        W39487   4.676   5.654   1.992 -0.0561 -0.0984 -0.0193
38624W        W39488  23.668  22.972  13.691  0.1350 -0.2909 -0.1557
38625W        W39489  15.548   8.325  18.401  0.0436  0.2548 -0.1280
38626W        W39490   1.243  11.046   2.329 -0.0596  0.3804  0.0603
38627W        W39491  27.754  10.802   9.479 -0.1067 -0.1810  0.5290
38628W        W39492  26.507  12.406  23.034  0.1412  0.2258 -0.1365
38629W        W39493   9.649  24.463   8.163  0.2377 -0.1233 -0.1187
38630W        W39494  27.636   4.695  10.387 -0.2899  0.1602 -0.3318
38631W        W39495   0.451   1.141  26.961  0.0686  0.3079 -0.1718
38632W        W39496  12.707  16.549  18.833 -0.1068 -0.2807 -0.0794
38633W        W39497   6.441  10.823   5.205  0.1166 -0.1452 -0.2393
38634W        W39498  12.794   3.478  21.980 -0.3753  0.0530  0.0538
38635W        W39499  13.601  14.912  27.434 -0.0738 -0.1730 -0.1258
38636W        W39500   7.397   9.781   7.174  0.1651 -0.0934 -0.1100
38637W        W39501  13.759  20.649  26.490  0.0006  0.2464 -0.5204
38638W        W39502  14.266  15.808   5.929  0.1565  0.0696  0.0681
38639W        W39503  14.254   5.439  13.353 -0.0155  0.0678  0.0647
38640W        W39504   0.091  28.745   9.475 -0.1746 -0.1401 -0.0551
38641W        W39505   3.929  20.499  24.230  0.2615 -0.4291  0.0637
38642W        W39506  19.890   0.143  28.104 -0.1194  0.1898 -0.0789
38643W        W39507   6.721  12.153  20.297  0.2295 -0.2398  0.0526
38644W        W39508   9.090  11.815   1.633  0.0563  0.0440 -0.2062
38645W        W39509  21.504   8.296   9.390  0.3736 -0.1028  0.0927
38646W        W39510   8.803   7.615  11.881 -0.1050  0.1962  0.0355
38647W        W39511  26.072   8.561  25.116 -0.0501  0.0218 -0.3397
38648W        W39512  25.961  13.619   6.734 -0.2101 -0.0692 -0.2121
38649W        W39513  12.557  25.921   6.706  0.3985  0.0611 -0.1205
38650W        W39514   4.248   0.113  27.543  0.1252 -0.0926 -0.1936
38651W        W39515   0.731   8.774  27.040  0.2563 -0.2036 -0.2633
38652W        W39516  11.937  25.182  10.391 -0.3234 -0.0236  0.1243
38653W        W39517   8.562  14.689  13.594 -0.3157 -0.0517  0.2324
38654W        W39518  16.859   5.408   0.933  0.0144 -0.2041 -0.2502
38655W        W39519   5.507  16.978  26.317  0.0485  0.3170  0.1744
38656W        W39520  29.130  12.532   0.098 -0.0331  0.0758  0.1496
38657W        W39521  23.222   3.759  18.003  0.0964 -0.0986  0.0376
38658W        W39522   5.170  28.751  28.334 -0.2210 -0.0544 -0.0655
38659W        W39523  22.814  14.372   9.239 -0.0064  0.0802  0.2894
38660W        W39524   2.344  27.270  24.604  0.3180  0.2194 -0.1024
38661W        W39525  11.879  28.389  23.521 -0.3300  0.0503  0.6444
38662W        W39526   1.034  10.044  12.814  0.0067  0.0147 -0.1625
38663W        W39527   2.259  15.443  20.195 -0.3094  0.1287 -0.1090
38664W        W39528   8.215  15.737  11.370  0.1135  0.1249 -0.0686
38665W        W39529  12.416  14.879  21.267 -0.1528  0.1051  0.0672
38666W        W39530  25.459  17.407  27.096 -0.4358  0.2273 -0.3674
38667W        W39531   7.731   1.715   6.629  0.0738  0.1998 -0.0304
38668W        W39532  28.529   2.518  20.535  0.1225 -0.3952  0.3800
38669W        W39533  24.196  23.749  28.469 -0.0359 -0.0366  0.1796
38670W        W39534  27.881   1.794  10.593 -0.4776 -0.0867 -0.2175
38671W        W39535   7.869  12.704  22.535 -0.0368  0.0939 -0.0190
38672W        W39536   6.363  13.328  23.138  0.0165  0.0089  0.0251
38673W        W39537   5.176   8.344  24.488 -0.0500  0.0369 -0.0829
38674W        W39538   6.495   8.044  16.428  0.2211 -0.1268  0.0833
38675W        W39539  26.124  20.843  25.514  0.1144 -0.3211  0.0638
38676W        W39540   4.923  14.452   0.518  0.2442 -0.0703  0.2365
38677W        W39541  21.300  21.031   2.903 -0.1100 -0.0981  0.1080
38678W        W39542  11.582   4.938  25.879 -0.4325  0.0653  0.1870
38679W        W39543  20.774  24.341  26.231 -0.1289  0.1157 -0.0445
38680W        W39544   7.526  17.799   6.497  0.0891 -0.0452  0.2357
38681W        W39545  13.122   3.338  25.754  0.3660  0.2597  0.2363
38682W        W39546  25.126  15.969   1.283  0.2346  0.1505  0.1052
38683W        W39547  11.535  17.250  27.169  0.1172  0.4063 -0.2594
38684W        W39548   4.716  10.061  18.689  0.0203  0.0098  0.2430
38685W        W39549  23.654  16.720   0.256  0.1844  0.0560 -0.0695
38686W        W39550  27.590  16.032  25.329  0.1317  0.0003  0.0659
38687W        W39551  11.853  18.513  28.077  0.1000 -0.1854  0.2455
38688W        W39552  27.465  11.331  21.447 -0.1021 -0.0821  0.1015
38689W        W39553   8.819  11.598  16.380  0.1627 -0.2493 -0.3044
38690W        W39554   4.127  25.168  11.093  0.4268  0.3242  0.2279
38691W        W39555  18.247  17.944   3.571  0.0878  0.2208  0.0074
38692W        W39556   4.311   0.703   9.291  0.1535  0.0370  0.1646
38693W        W39557  12.658   8.152  27.835 -0.2739 -0.1037 -0.4547
38694W        W39558   1.432  13.764   1.811 -0.0168 -0.3104  0.0083
38695W        W39559   7.112   9.340   3.051  0.2253 -0.1200  0.0852
38696W        W39560  11.619   7.664  22.523  0.2602 -0.0041 -0.1111
38697W        W39561  20.057  18.764  16.485 -0.0846  0.0478  0.0631
38698W        W39562   1.199   6.046   2.178  0.1698  0.1349  0.0618
38699W        W39563   6.723  24.511  11.732 -0.0108 -0.2332 -0.0843
38700W        W39564   5.259  14.562  23.705 -0.0597 -0.0984  0.1559
38701W        W39565  21.029   9.362  23.173 -0.2006  0.1465  0.2318
38702W        W39566   3.707  23.443   1.112  0.0949 -0.2763 -0.1045
38703W        W39567  16.583  13.254  28.905 -0.0726 -0.1642 -0.0925
38704W        W39568   6.633  13.844  11.206 -0.1528  0.0800  0.0005
38705W        W39569  11.480  11.741  25.273 -0.0091  0.1323  0.0267
38706W        W39570  12.568  13.674  12.023 -0.2270  0.0352  0.0612
38707W        W39571   0.913   7.786   7.835 -0.1120  0.0493 -0.0366
38708W        W39572  15.761  27.324   0.035  0.0314 -0.0586  0.0907
38709W        W39573  14.539   9.886  24.571  0.2064  0.1811  0.0348
38710W        W39574   4.589  14.751  24.273 -0.0174 -0.0073 -0.3230
38711W        W39575   3.029  16.592   6.786 -0.1195 -0.0441  0.0429
38712W        W39576  13.039   7.564  23.885 -0.0705 -0.0109  0.3685
38713W        W39577   4.531  18.090  25.479 -0.1633 -0.3117 -0.2140
38714W        W39578  18.717  20.570   8.755 -0.1257 -0.0378  0.3724
38715W        W39579   7.482  23.985   3.277  0.0949  0.2151 -0.2200
38716W        W39580   0.150  18.626  24.518  0.2351 -0.2710  0.0482
38717W        W39581  19.642  22.217  13.936  0.0422  0.1120  0.3435
38718W        W39582   1.324   9.076  10.607  0.2064 -0.1592  0.2212
38719W        W39583   2.510   0.511  28.134  0.1058  0.1388 -0.0308
38720W        W39584   4.231  19.751  13.771 -0.2775  0.0675  0.3279
38721W        W39585  24.831   5.656  21.567  0.3389  0.3694  0.0055
38722W        W39586  12.306  27.200   4.739  0.1552  0.0278  0.3246
38723W        W39587   9.139   8.491   8.824 -0.0273  0.3384 -0.2878
38724W        W39588  24.423  25.307  22.186  0.0898 -0.2050  0.0594
38725W        W39589   8.179  20.800  12.663  0.2052 -0.0207 -0.0774
38726W        W39590   5.042  26.519  10.945 -0.2858 -0.2337 -0.0373
38727W        W39591  23.946  14.944   9.229  0.2164  0.0704  0.1103
38728W        W39592  20.858   7.282  16.197  0.1964  0.1764  0.2185
38729W        W39593  24.816   4.569  24.610 -0.1530  0.0004 -0.0530
38730W        W39594   2.726  18.877  19.031 -0.2285 -0.0141  0.1207
38731W        W39595  26.622   4.413   4.028  0.0508 -0.0185 -0.2272
38732W        W39596  25.579  13.109   0.192  0.4544  0.3932  0.0549
38733W        W39597  23.791  15.239   4.979 -0.0451 -0.2955 -0.2819
38734W        W39598   2.734  22.439   8.499  0.0464 -0.1695  0.1012
38735W        W39599   6.328  11.928  25.830  0.1864  0.2051 -0.1459
38736W        W39600   7.412  17.447  15.753 -0.4022  0.0699  0.3703
38737W        W39601  10.231  22.056   7.732  0.0073  0.0355  0.0198
38738W        W39602  12.599   2.212   7.438  0.3757  0.1155 -0.5511
38739W        W39603  11.051  18.044  12.340  0.1271  0.3710 -0.0869
38740W        W39604  17.660   6.638   3.384 -0.2634 -0.1019 -0.0096
38741W        W39605  18.824  21.397  20.954 -0.0844  0.0589  0.0243
38742W        W39606  19.291  13.841  24.137 -0.2093 -0.1071 -0.2330
38743W        W39607   7.559  17.984  15.710 -0.2574 -0.1415  0.3259
38744W        W39608   4.186   1.977  10.219  0.1269  0.3184  0.3638
38745W        W39609  11.113  21.361   1.155 -0.2603 -0.1130  0.2036
38746W        W39610  16.718  19.743  20.551 -0.2548 -0.1520  0.1631
38747W        W39611  25.839  14.225   0.582 -0.2298  0.3147 -0.2826
38748W        W39612  18.288  14.364   4.457 -0.1545 -0.0511 -0.0022
38749W        W39613   1.054   0.769   1.173 -0.0377  0.3142  0.0690
38750W        W39614  27.951   0.844  14.650  0.0927 -0.1295 -0.1187
38751W        W39615  23.401  18.449   9.116 -0.1241  0.3105  0.1679
38752W        W39616   2.657   6.671  24.034  0.1036  0.1507 -0.1345
38753W        W39617  24.472   8.865  27.860 -0.0823  0.1643 -0.0510
38754W        W39618   5.128  22.961   3.797 -0.1407 -0.3113 -0.0562
38755W        W39619   3.385  18.623  21.750  0.1962  0.1255  0.0729
38756W        W39620   1.776   9.426  15.708  0.0949 -0.0846 -0.2059
38757W        W39621  28.608  10.840  18.192 -0.0638  0.1450  0.2552
38758W        W39622   1.045  19.265   5.748  0.0766  0.2548  0.1309
38759W        W39623  21.040  26.983  24.677 -0.0809  0.0130  0.1497
38760W        W39624   4.271   4.437   4.751 -0.1567 -0.0374 -0.1311
38761W        W39625  12.520   3.363   1.304  0.0336 -0.6531 -0.3153
38762W        W39626   9.618  17.545  22.999  0.0277  0.3016 -0.2298
38763W        W39627   4.129  28.443  26.849 -0.1785  0.1000 -0.2733
38764W        W39628  28.680  27.787  26.001 -0.5712  0.2140 -0.0712
38765W        W39629   1.480   5.419  11.136  0.1539  0.2162  0.0239
38766W        W39630   5.264   3.229  18.012  0.1983  0.1494 -0.0962
38767W        W39631  16.957   9.969  17.573  0.1234 -0.0838  0.0199
38768W        W39632  19.365   7.180  24.586  0.1342 -0.3203 -0.2111
38769W        W39633  21.931  28.045  21.562 -0.0535  0.0136 -0.0798
38770W        W39634   3.257  25.136  11.634 -0.2033 -0.1028  0.2000
38771W        W39635  24.475  16.246  25.324 -0.1740 -0.0886 -0.3058
38772W        W39636   6.502  16.686   0.984 -0.0716 -0.0966 -0.2289
38773W        W39637   6.128   0.921   6.417  0.0347 -0.1832 -0.1397
38774W        W39638   8.300  11.225   4.568  0.0883  0.0020 -0.1590
38775W        W39639   0.396  27.512  29.098 -0.3569 -0.0221  0.0429
38776W        W39640  14.504  20.518   5.544  0.0060 -0.2560 -0.1857
38777W        W39641   8.964  14.005  25.900  0.0490 -0.0917  0.3357
38778W        W39642  12.539  17.334  27.202  0.0218 -0.2386 -0.1167
38779W        W39643   1.612  18.337  28.273  0.0393  0.3001 -0.2870
38780W        W39644  12.636  10.512  20.294 -0.0227  0.1448  0.0857
38781W        W39645   0.875  19.343   2.244 -0.2088 -0.2824 -0.1739
38782W        W39646  17.130  13.886  13.453  0.3350  0.1603 -0.1838
38783W        W39647   4.871  13.144   0.604  0.0908 -0.1552 -0.1069
38784W        W39648   2.114  18.304  12.095  0.0085 -0.3214  0.3392
38785W        W39649  23.979  14.961  22.820 -0.1730  0.0278  0.0655
38786W        W39650  24.935  21.610   1.140 -0.0655 -0.0867  0.1691
38787W        W39651  12.133  17.731   8.115 -0.3920 -0.0212  0.1209
38788W        W39652  12.541  18.680   7.776 -0.2377 -0.1885 -0.2375
38789W        W39653   2.627   7.265   0.807 -0.1409  0.3699  0.1096
38790W        W39654  14.047   0.965  24.975  0.1399 -0.1429 -0.1376
38791W        W39655   7.020  13.082  10.729 -0.0321 -0.3151 -0.1139
38792W        W39656   2.400  11.136   0.326 -0.2450 -0.0364 -0.2910
38793W        W39657  16.921  23.990  12.223  0.0288 -0.2135  0.1577
38794W        W39658  23.715  28.420  25.158  0.1313  0.0854  0.2187
38795W        W39659   1.859  23.968  13.537  0.1012 -0.0299  0.0085
38796W        W39660   3.226   9.610  13.049 -0.2028 -0.0551  0.0287
38797W        W39661  26.967   5.147  15.644  0.0080  0.1923  0.0874
38798W        W39662   5.208   3.230   3.696  0.1525 -0.2831 -0.2152
38799W        W39663   3.477   6.478   8.508  0.1494  0.4271 -0.0990
38800W        W39664   2.290   0.440   1.546 -0.1899 -0.2866  0.0023
38801W        W39665  11.917  20.198   2.681 -0.2785  0.0628  0.1813
38802W        W39666  26.305   8.741   0.965 -0.0858  0.3312 -0.0034
38803W        W39667   7.082  12.904  29.044 -0.0654  0.1857  0.1937
38804W        W39668   7.627   8.205   5.127 -0.2041 -0.1231  0.1090
38805W        W39669   5.390  23.560   3.054  0.2250 -0.0262 -0.0045
38806W        W39670   0.103  12.689   8.645  0.1846 -0.0922 -0.2830
38807W        W39671  11.692   5.710   2.204 -0.3532 -0.0692 -0.3533
38808W        W39672  14.392  14.581  24.514 -0.0220  0.1257  0.1165
38809W        W39673  22.143   0.382   2.451 -0.1915  0.3472 -0.2154
38810W        W39674  25.294  16.340  26.382 -0.1375  0.1478  0.2469
38811W        W39675  11.538  27.737  15.547  0.2532  0.1007  0.1863
38812W        W39676  24.209  11.528   6.027 -0.0509 -0.1099 -0.0582
38813W        W39677  18.154  17.416  16.256 -0.2873 -0.3855 -0.5009
38814W        W39678   2.804   3.426  14.655 -0.0797 -0.1335  0.0837
38815W        W39679  22.446   1.775  22.579 -0.0330 -0.0604 -0.2205
38816W        W39680   6.206  14.299  27.926  0.0431 -0.1506  0.0626
38817W        W39681   8.039  12.101   9.775 -0.1291  0.0787  0.0325
38818W        W39682  27.157  16.357   2.916  0.0134 -0.0457  0.2860
38819W        W39683   6.300  13.845  10.644 -0.1643  0.1452  0.3248
38820W        W39684   3.778  25.329  18.978 -0.0113  0.3205 -0.0352
38821W        W39685  14.902  19.964  24.168 -0.0664  0.1841 -0.0639
38822W        W39686   7.452  11.711  25.372 -0.0361 -0.0607  0.0402
38823W        W39687  12.342  12.846  22.951 -0.1465 -0.2090 -0.1267
38824W        W39688  24.353  27.597   1.084  0.3611 -0.1925 -0.0369
38825W        W39689   7.288  13.756  13.575 -0.0603 -0.0312  0.1229
38826W        W39690  20.862  16.363   6.461  0.1085  0.0190 -0.1673
38827W        W39691  25.714   9.137   0.631 -0.2523 -0.0148  0.1179
38828W        W39692   3.955  25.619  25.640  0.1691  0.0845 -0.0421
38829W        W39693  19.703  12.211   4.565 -0.3835 -0.0137 -0.2504
38830W        W39694  25.828   6.011  12.777 -0.0074 -0.0852  0.1435
38831W        W39695  29.027  21.804   8.916 -0.2009 -0.1510  0.1031
38832W        W39696  13.558  19.830  11.143  0.2332 -0.1019 -0.0516
38833W        W39697   4.462  24.607  21.841  0.1597  0.1858  0.2293
38834W        W39698   5.649  27.595  27.570 -0.0153 -0.2079  0.0459
38835W        W39699   6.239   6.831  23.667 -0.3187  0.0925 -0.2442
38836W        W39700  22.199  25.875   3.807 -0.1518 -0.2091  0.0185
38837W        W39701   1.605  19.527  25.243 -0.0182 -0.0898  0.0164
38838W        W39702  16.025   9.393  26.154 -0.3573  0.0806 -0.0684
38839W        W39703  10.728  21.560   1.915 -0.0144 -0.5657 -0.3580
38840W        W39704   0.007  19.006  24.065 -0.0121 -0.3915  0.1002
38841W        W39705   5.331  26.730  11.739 -0.2954  0.1607 -0.0044
38842W        W39706   2.523  22.516  11.320 -0.2526 -0.0696 -0.0666
38843W        W39707   1.056   7.529  10.810  0.0448  0.1322 -0.2761
38844W        W39708   3.432  21.929  27.639 -0.1150  0.0710 -0.1323
38845W        W39709  24.290  10.746  18.932 -0.0460  0.2400 -0.2490
38846W        W39710  24.152  22.429  14.199 -0.0290  0.1619  0.0681
38847W        W39711  15.252  22.763  16.665 -0.1035 -0.1386 -0.0208
38848W        W39712   5.044  23.539  24.573  0.0463  0.1672 -0.0958
38849W        W39713  10.023  13.546  22.302 -0.0829 -0.1278  0.1048
38850W        W39714   3.011  27.849  22.831  0.0048 -0.2365 -0.1235
38851W        W39715   8.587   2.097  16.444 -0.0403  0.0750  0.1654
38852W        W39716  10.687  28.221   9.533 -0.0138 -0.1787  0.0430
38853W        W39717   1.865  18.598  18.924 -0.0363  0.1994  0.2259
38854W        W39718  20.656  16.581  26.330  0.1182 -0.0096 -0.4677
38855W        W39719  12.336  14.044   1.648  0.1056 -0.3100  0.3098
38856W        W39720   0.876   0.098  11.043 -0.0545 -0.1012 -0.2447
38857W        W39721  11.538  17.425  22.219 -0.0246 -0.2565 -0.1563
38858W        W39722   1.855  13.010  22.528  0.0937  0.3390  0.2803
38859W        W39723  10.807   1.169  24.159  0.3349 -0.1160  0.3568
38860W        W39724  24.179  20.518  19.952 -0.0467 -0.4305 -0.1056
38861W        W39725   4.317   7.217  17.634  0.0388 -0.1789 -0.0052
38862W        W39726   3.707   9.144   2.454 -0.2152  0.0492 -0.1542
38863W        W39727   0.687  15.763  13.906 -0.0109  0.2704  0.0050
38864W        W39728  27.984   6.302   9.152  0.0776 -0.1397  0.0435
38865W        W39729   0.874   7.610  22.554  0.0687  0.0554 -0.1408
38866W        W39730   2.748  17.871  24.796  0.2129 -0.0205  0.0193
38867W        W39731  12.953  22.365  27.030  0.2117  0.0318 -0.2758
38868W        W39732  27.816  21.305   9.098  0.1626  0.0236  0.3882
38869W        W39733   1.985  25.675   7.553 -0.0610  0.0198 -0.1110
38870W        W39734  18.721  28.195   5.573  0.1810 -0.0065  0.1723
38871W        W39735   5.432   1.036  11.853 -0.0487  0.2149  0.0613
38872W        W39736   6.943  14.783  19.649 -0.0318  0.1716  0.2421
38873W        W39737   7.050   9.185  12.621  0.1981  0.0429 -0.2277
38874W        W39738  17.199  14.172   6.403  0.0472 -0.2040 -0.0796
38875W        W39739   0.044  19.195   5.371  0.2631 -0.1384  0.1008
38876W        W39740  27.553   1.429  18.476  0.3446  0.1774 -0.2066
38877W        W39741  20.936  21.629   1.387 -0.1828 -0.1705  0.0942
38878W        W39742   0.579  11.345  13.847  0.2735  0.0335  0.1150
38879W        W39743  14.068  18.442  11.204  0.5109  0.1467  0.2886
38880W        W39744  27.499  27.810   9.459 -0.0946 -0.1844  0.3132
38881W        W39745   7.304  25.123  11.139 -0.0024 -0.0285 -0.3352
38882W        W39746  13.011  12.471   1.150 -0.0170  0.0754 -0.2625
38883W        W39747  25.073  13.678  11.510  0.1683  0.0516 -0.0602
38884W        W39748  27.632  18.992  13.446 -0.0560 -0.0835 -0.0690
38885W        W39749  14.018   8.215   5.279 -0.0808  0.0858 -0.1478
38886W        W39750   0.962  24.410  26.808  0.3162  0.1532  0.0388
38887W        W39751   0.698   3.926  23.637 -0.2113  0.1281 -0.0029
38888W        W39752  12.391   6.789  18.277  0.0581  0.0876 -0.2376
38889W        W39753   2.730  16.229  13.056 -0.1391 -0.2819  0.2561
38890W        W39754   8.745  19.574   1.188 -0.1351 -0.1551  0.0052
38891W        W39755  19.808  15.364  19.591  0.2502 -0.0274  0.3456
38892W        W39756  23.291  10.707   1.995 -0.1761 -0.0478  0.2050
38893W        W39757  28.359  21.167  21.063  0.1842  0.0152  0.4318
38894W        W39758  27.656  21.687  27.324  0.2725  0.0237  0.0989
38895W        W39759  23.279   3.867  28.159 -0.0475  0.0771  0.0810
38896W        W39760   5.270  13.280   5.130  0.2020  0.1617  0.3938
38897W        W39761  12.635   9.485  25.310  0.1674  0.0203  0.0206
38898W        W39762  22.585   6.214   0.836  0.1139  0.4396 -0.4698
38899W        W39763   4.596  19.504  29.090  0.0436 -0.0818 -0.0958
38900W        W39764  23.014  16.888   7.875 -0.0999  0.3295 -0.2810
38901W        W39765  14.500  26.672   4.746 -0.0999 -0.1174  0.0788
38902W        W39766  27.843   2.210  15.881 -0.0731 -0.0892 -0.0360
38903W        W39767  11.727  17.487  15.109 -0.0471  0.3252  0.0751
38904W        W39768  23.946  24.862   6.159 -0.4495  0.1411 -0.0051
38905W        W39769  21.931  25.557   9.362 -0.0175 -0.2828  0.1565
38906W        W39770  21.279   2.785  11.567  0.0359 -0.1442 -0.3076
38907W        W39771   3.937  18.300   7.012  0.0181  0.0941  0.2352
38908W        W39772  22.817  24.302  17.475 -0.0493 -0.2388 -0.1511
38909W        W39773   7.276   5.251  21.354 -0.0087 -0.1835  0.4207
38910W        W39774  14.189  15.357   3.215  0.1473  0.0801  0.0208
38911W        W39775   2.219  27.695   4.668 -0.1847 -0.3234 -0.1548
38912W        W39776  27.682   2.138  22.333 -0.4119  0.1930 -0.0907
38913W        W39777   4.339  20.231   6.193  0.1691  0.3003  0.2333
38914W        W39778  10.861  28.420  28.989 -0.2584 -0.0534 -0.0043
38915W        W39779  10.999  21.923  15.266  0.3772  0.0227 -0.1831
38916W        W39780   1.336   7.502  15.192 -0.0082 -0.0208  0.0196
38917W        W39781  21.084  28.979  21.660  0.0688 -0.0958  0.4978
38918W        W39782   8.572  25.036   3.479 -0.2481 -0.0635 -0.2880
38919W        W39783   7.988   7.113  28.981  0.1403  0.1807 -0.1330
38920W        W39784  21.365  12.382  26.656  0.0029 -0.1139  0.0647
38921W        W39785  22.813   2.045  11.876 -0.2101  0.1343  0.0919
38922W        W39786  26.886  28.026   4.885 -0.0836 -0.1393  0.1482
38923W        W39787  18.538   4.054   1.693 -0.1739  0.0208  0.3016
38924W        W39788  19.686   1.998   6.486  0.2897 -0.0820  0.1532
38925W        W39789   7.069  22.289  20.004 -0.1618  0.0660  0.0784
38926W        W39790  12.351  15.369   7.157 -0.0188 -0.2348  0.2003
38927W        W39791  16.651  20.677  18.256  0.2064  0.0795 -0.0207
38928W        W39792   1.645   3.630  23.420 -0.1843  0.1535  0.1303
38929W        W39793   5.329  19.958  23.743  0.2274  0.0811  0.1207
38930W        W39794  10.387   4.064  15.346  0.1070 -0.0953  0.0073
38931W        W39795  10.806  19.976  11.522  0.0019 -0.0534  0.1582
38932W        W39796  27.587   0.015  15.677  0.0911 -0.0723  0.4135
38933W        W39797  24.137  12.816  16.002  0.0813  0.0233  0.0945
38934W        W39798  13.743  16.704  27.917 -0.4836  0.1445 -0.0553
38935W        W39799  11.164  16.107  26.460  0.2692 -0.0174 -0.1419
38936W        W39800  23.357  17.831  19.076  0.0245 -0.0643 -0.0286
38937W        W39801   3.638   3.303  11.846 -0.0382 -0.1759 -0.2862
38938W        W39802   9.711  17.623  27.909 -0.0466  0.1620 -0.2199
38939W        W39803  11.769  20.707   2.316 -0.3519  0.1586  0.0490
38940W        W39804   9.443  18.924   3.999  0.0169 -0.1524 -0.2263
38941W        W39805  13.986   1.333  21.693 -0.1290  0.2333  0.0346
38942W        W39806   7.901   4.563  28.880  0.0665  0.0144  0.0451
38943W        W39807   4.009  15.087   4.735  0.1100 -0.1398 -0.1525
38944W        W39808  14.406  24.920   3.262 -0.2855  0.0076  0.1661
38945W        W39809   8.620   3.200   9.857 -0.1590  0.0037  0.2713
38946W        W39810   5.155  18.937   7.180  0.0889 -0.1927  0.0863
38947W        W39811  12.397  13.507  13.915  0.4006  0.2025 -0.1541
38948W        W39812   9.192  23.485  15.830  0.4713 -0.3290  0.0467
38949W        W39813   4.711  23.077   9.482 -0.1515 -0.1049 -0.0879
38950W        W39814  23.581   9.658  22.828 -0.1895  0.0258 -0.0686
38951W        W39815   4.294   2.785  16.573  0.0630 -0.1246 -0.2106
38952W        W39816   7.639  20.507  19.795  0.1875  0.0762  0.0886
38953W        W39817  27.057   5.000  20.352 -0.1928  0.0074  0.0600
38954W        W39818  10.964  28.558   5.733 -0.0653  0.3728  0.1077
38955W        W39819   2.669  29.082  10.996 -0.3090 -0.0812  0.1109
38956W        W39820  10.655  24.953  23.650 -0.2915  0.1071  0.0532
38957W        W39821  14.810  14.012  27.260  0.0375  0.0107 -0.3780
38958W        W39822  17.595  16.913   3.729  0.2962 -0.0546 -0.1065
38959W        W39823   8.031  20.734  18.385 -0.0233  0.0465  0.1999
38960W        W39824   9.418  13.270  20.317 -0.3241  0.5238 -0.0407
38961W        W39825   0.094   9.141  25.448 -0.1605  0.2539  0.0088
38962W        W39826  14.148  11.409  13.423 -0.2723  0.3451 -0.1475
38963W        W39827  20.790  27.067  17.479 -0.0411 -0.1414  0.0404
38964W        W39828  25.259  25.641   1.568 -0.1199  0.1760  0.1282
38965W        W39829   0.867  21.127   1.870  0.1226  0.1239 -0.0764
38966W        W39830   3.514  19.103  19.757 -0.3034  0.1397  0.3607
38967W        W39831   1.139   8.356  17.716 -0.1924 -0.0061 -0.2373
38968W        W39832  12.428   5.098   4.836  0.1344 -0.0322  0.0032
38969W        W39833   2.634   4.630  11.961 -0.0169 -0.0211 -0.0235
38970W        W39834  15.676  10.877  21.107  0.0666 -0.2291  0.4388
38971W        W39835  13.016  11.427  21.178  0.3996  0.0950 -0.0587
38972W        W39836  19.941  21.167  22.528  0.4934 -0.0212 -0.0856
38973W        W39837   4.663  17.773   1.863 -0.1035  0.2631 -0.2618
38974W        W39838  11.031  28.185   5.363  0.1752  0.1670 -0.0202
38975W        W39839  14.244  22.743  12.872  0.1387  0.0003 -0.0863
38976W        W39840   3.452  24.256   8.202  0.0112  0.0189 -0.1599
38977W        W39841   2.501  26.984  24.256  0.1073 -0.1630 -0.5559
38978W        W39842   8.540  29.036   3.430 -0.0648  0.1661 -0.0389
38979W        W39843   5.133   8.845   3.309  0.1720 -0.4952  0.0361
38980W        W39844  26.404  16.046  11.369 -0.0045  0.0820 -0.1826
38981W        W39845   3.313  24.412  28.522  0.2659 -0.2546  0.0111
38982W        W39846  10.669  11.629  26.638 -0.0213 -0.0038  0.0295
38983W        W39847  12.771  14.074   7.055 -0.1592 -0.1003 -0.2194
38984W        W39848  11.287  19.710  16.751 -0.2412  0.0074 -0.1627
38985W        W39849  13.071   5.466  16.143 -0.2385 -0.0349  0.2755
38986W        W39850   9.412  11.765   7.521  0.2698 -0.3925  0.1488
38987W        W39851  12.484   9.853  27.980 -0.1208  0.1152  0.0690
38988W        W39852  26.026  12.621   3.378  0.1606  0.0496  0.1329
38989W        W39853   9.249  19.569  17.037  0.0771 -0.0049  0.2428
38990W        W39854  17.655  24.815  18.273  0.1461 -0.4136 -0.1226
38991W        W39855   7.249   0.375  26.318 -0.1401 -0.0292 -0.1273
38992W        W39856  13.104   2.853  26.033  0.3423  0.2476 -0.0219
38993W        W39857  22.208  25.158  17.360 -0.0409  0.1106 -0.1028
38994W        W39858  21.673  21.313   8.808  0.1135 -0.1101  0.2163
38995W        W39859   4.362  20.286  27.983  0.0515 -0.2446 -0.2357
38996W        W39860  28.472   4.765   7.951  0.0164 -0.2223 -0.2628
38997W        W39861  14.115  21.970   5.201  0.1074 -0.0001  0.0747
38998W        W39862  24.084  14.129   3.951 -0.0000  0.4437  0.1601
38999W        W39863  29.045  11.243   7.948  0.0277  0.2292  0.1277
39000W        W39864  13.521   0.646   4.057 -0.1183 -0.0223  0.0881
39001W        W39865   5.174  18.544   5.825  0.0103  0.0754 -0.0531
39002W        W39866  10.239  19.516  16.643  0.3766  0.0532 -0.0913
39003W        W39867  10.441   4.838   7.496  0.5397  0.1149 -0.0999
39004W        W39868   4.489  12.360   9.868  0.0552  0.0527 -0.1913
39005W        W39869  10.941  23.904  24.195 -0.0902  0.3441  0.2104
39006W        W39870   8.319   9.289   1.172 -0.1579  0.2266 -0.1095
39007W        W39871  27.241  20.619   1.501 -0.1677  0.3721  0.0987
39008W        W39872  12.093   7.296  11.483  0.0508  0.1219  0.2638
39009W        W39873  19.592  21.701   2.897  0.2654 -0.0651 -0.0071
39010W        W39874   9.579  23.077   8.380 -0.0084 -0.1510  0.1253
39011W        W39875  20.012   0.808  18.782  0.1886  0.2335 -0.1732
39012W        W39876   8.361  14.924  14.192 -0.4599 -0.0898 -0.1301
39013W        W39877  23.114   5.716  26.445 -0.2342  0.1546  0.0259
39014W        W39878  19.002  20.272  21.715 -0.0165  0.1178 -0.0345
39015W        W39879   6.625  12.980   4.353 -0.0751  0.0469  0.0630
39016W        W39880  13.456  13.239   7.133  0.1163 -0.0705  0.0265
39017W        W39881  28.162  28.840  17.201 -0.0552 -0.0672 -0.0726
39018W        W39882  11.724  10.472   4.141 -0.0303 -0.3000  0.1002
39019W        W39883   7.197  20.949   0.773  0.1039  0.2611 -0.0374
39020W        W39884  13.148  17.777  14.165 -0.1041 -0.0584  0.0004
39021W        W39885  22.796  16.495   4.239  0.3887  0.2489  0.3596
39022W        W39886  27.094  16.717   9.910 -0.0257 -0.3985  0.0410
39023W        W39887  21.129  27.178  12.309 -0.1239  0.0915 -0.1583
39024W        W39888  13.973  20.674  12.342  0.1209  0.1165 -0.3282
39025W        W39889   6.530   9.331   5.851 -0.0500  0.0178  0.0857
39026W        W39890  12.077  25.459  19.553  0.1253 -0.1213 -0.0823
39027W        W39891   1.630   8.630  11.118 -0.0055  0.2207 -0.3903
39028W        W39892   6.265   0.303   4.595  0.0554  0.1028  0.0990
39029W        W39893   9.578  18.835  21.125  0.1162  0.2049 -0.1070
39030W        W39894   4.018  15.431  17.725 -0.1762  0.1388  0.0842
39031W        W39895  26.006   3.027   9.153  0.2695 -0.1153 -0.1266
39032W        W39896   7.909  22.745  14.708 -0.0402  0.2463 -0.0040
39033W        W39897  16.092   8.007   5.543 -0.2425  0.1055 -0.0014
39034W        W39898   5.101  15.662  19.863 -0.1243  0.1776 -0.2523
39035W        W39899   7.192  21.761  19.052  0.1500  0.3572  0.0110
39036W        W39900   7.736  15.084  27.064 -0.1627 -0.0002  0.0396
39037W        W39901  11.988  26.315  22.075  0.0239  0.0202 -0.1907
39038W        W39902  24.398  22.797  19.750 -0.2926  0.0130  0.0599
39039W        W39903  16.154  17.342   0.825 -0.0888  0.1727 -0.1331
39040W        W39904   7.448   6.848   1.578 -0.0341  0.0218  0.2779
39041W        W39905  11.838   9.441  25.055 -0.2954 -0.0598 -0.4567
39042W        W39906   7.356  25.859  21.784  0.0036  0.2670 -0.0194
39043W        W39907  10.489  13.210   7.000  0.0443  0.2122  0.0303
39044W        W39908  13.871   1.317   2.595 -0.2884  0.1444 -0.0391
39045W        W39909  12.513   2.309  16.230  0.0197 -0.2160 -0.0000
39046W        W39910   0.521  19.401  15.938 -0.0575  0.3061 -0.3638
39047W        W39911  13.503  12.767  12.307  0.0907 -0.0045 -0.0763
39048W        W39912  16.754   9.912   0.120  0.1155  0.1153  0.0400
39049W        W39913  24.889  28.359   2.587 -0.1288 -0.2963 -0.1711
39050W        W39914  10.081   2.351  19.282  0.1505  0.1443 -0.2578
39051W        W39915   0.530   7.570   2.750 -0.2235  0.1284  0.0144
39052W        W39916   5.794   2.193   0.298  0.0992 -0.1572  0.0064
39053W        W39917  27.423  23.012  28.459 -0.0430  0.0374  0.3187
39054W        W39918   6.844   1.893   5.498 -0.0494  0.1836  0.1211
39055W        W39919  22.326  11.091   2.614 -0.2501  0.0588  0.2241
39056W        W39920  24.980  27.637  15.557  0.1597 -0.1155  0.3341
39057W        W39921   6.518  12.001   1.272  0.0626 -0.4903  0.0671
39058W        W39922   2.228  22.970   2.679  0.1129  0.1055 -0.1289
39059W        W39923   4.716   0.877   6.401 -0.1976 -0.4279  0.2196
39060W        W39924  12.618   0.455  27.093  0.1136  0.0210 -0.2300
39061W        W39925  15.385   5.310  12.535 -0.1174 -0.0762  0.1761
39062W        W39926  10.162  13.813   6.076 -0.1063 -0.1011 -0.0717
39063W        W39927   4.944  22.120  15.541 -0.0202  0.0567  0.1381
39064W        W39928  22.987  20.864   8.251  0.0534 -0.2873  0.0057
39065W        W39929   3.159  18.974   1.382 -0.0500  0.1225 -0.0743
39066W        W39930  11.037   4.857  17.887  0.4074  0.3456  0.1319
39067W        W39931  17.130   8.768  19.049  0.1765 -0.0099  0.2717
39068W        W39932  15.035  14.309  25.029  0.6832 -0.1379 -0.1043
39069W        W39933   0.699   3.299  14.345  0.0110 -0.1060 -0.2111
39070W        W39934   5.755  22.991  20.515 -0.1062  0.1480 -0.2920
39071W        W39935  26.637  12.747   6.117 -0.1000  0.2288  0.2051
39072W        W39936  12.195  12.118  13.766 -0.2383  0.1079  0.1954
39073W        W39937   1.130  19.019   3.654  0.2596 -0.1026  0.1808
39074W        W39938  10.730  17.919  13.730  0.1141  0.0699  0.0986
39075W        W39939   0.111   1.065  28.522 -0.3823 -0.2208 -0.1159
39076W        W39940  17.966   3.374  12.295  0.1566 -0.2729  0.0910
39077W        W39941   0.808   6.312  20.999 -0.2677 -0.0375 -0.0056
39078W        W39942   4.779   4.909  18.287 -0.3189  0.0797 -0.2428
39079W        W39943  12.933  23.892  26.944 -0.0382  0.3536 -0.0685
39080W        W39944   3.725  27.466   9.523 -0.0541  0.1003  0.1317
39081W        W39945  13.903   5.503  23.607 -0.0622  0.1329 -0.0958
39082W        W39946  15.809  18.808  13.038  0.1705  0.1522  0.1372
39083W        W39947  27.256  20.138  14.802  0.0836 -0.3451 -0.0173
39084W        W39948  15.736  13.118  11.745  0.0172 -0.0651  0.1528
39085W        W39949   8.066   5.320   9.814 -0.0598 -0.3570 -0.2070
39086W        W39950   3.233  24.128  16.335 -0.1776 -0.0306 -0.1745
39087W        W39951  19.455   9.983   9.070  0.1523 -0.1967 -0.0519
39088W        W39952  11.784   5.047  28.275 -0.2686  0.0499  0.2174
39089W        W39953   0.919  21.076   5.414 -0.1740  0.1069  0.4451
39090W        W39954  19.031   8.157  12.349  0.1871 -0.0246  0.0824
39091W        W39955  24.429  14.683  17.571  0.2482 -0.1105  0.0118
39092W        W39956  19.013  19.666  28.408 -0.1115 -0.1987  0.3696
39093W        W39957  28.480   7.811   9.310  0.3264  0.1605 -0.2147
39094W        W39958  13.813   2.135  18.307 -0.0376  0.4094  0.5089
39095W        W39959  24.377  11.143  28.784  0.1856  0.0725  0.1206
39096W        W39960  21.889  24.717   6.392  0.0560  0.1291  0.0899
39097W        W39961   0.085  14.032   7.038 -0.1573  0.2042  0.3103
39098W        W39962   4.399  21.670   3.777  0.0851  0.0144 -0.1308
39099W        W39963  12.020  25.036  15.488 -0.1343 -0.0955  0.2558
39100W        W39964   9.940  15.655   7.857  0.0537  0.3303  0.0098
39101W        W39965   6.028  12.420   7.274  0.2128  0.3998  0.1112
39102W        W39966   1.236  12.310  21.979 -0.0672  0.1565  0.1478
39103W        W39967   4.349  27.985   7.021 -0.1272  0.1148  0.3797
39104W        W39968   4.953  13.002  21.156  0.1176 -0.2134  0.0198
39105W        W39969  25.041  19.339  13.702 -0.1827  0.0297 -0.2067
39106W        W39970  26.498  14.988  28.346  0.1113  0.2155 -0.2602
39107W        W39971   9.851  18.657  22.655 -0.0243  0.0430 -0.1068
39108W        W39972   0.129  22.361  26.297  0.0513 -0.0664 -0.0356
39109W        W39973  28.556  14.287   9.423 -0.1065 -0.2700  0.4706
39110W        W39974   5.271  22.574   6.322 -0.1451 -0.0802  0.1812
39111W        W39975   2.355  18.804   9.003 -0.0875 -0.1116  0.0723
39112W        W39976   5.021  17.411  24.439 -0.0571 -0.0150  0.1553
39113W        W39977   6.188  14.617   6.712 -0.1330  0.3116 -0.1750
39114W        W39978  27.492  20.579  24.380 -0.0285  0.0548  0.1184
39115W        W39979  19.908   8.085  12.468  0.0844  0.1511  0.0673
39116W        W39980  28.894  19.682  17.026 -0.1739 -0.1110 -0.0865
39117W        W39981   3.350  16.899   9.563 -0.0500 -0.0411 -0.3054
39118W        W39982   9.801  19.823   2.495  0.1844  0.0071 -0.2101
39119W        W39983   0.051  22.406   0.538  0.0348  0.0730 -0.2349
39120W        W39984  12.191  18.275   1.848 -0.0899  0.2666  0.2148
39121W        W39985   4.519  15.413  23.518 -0.0625  0.3564 -0.1797
39122W        W39986   3.525  16.022  28.105  0.1185 -0.1987  0.0312
39123W        W39987   5.563  10.712   1.055  0.1978 -0.0240  0.1543
39124W        W39988   7.243  21.862  10.973 -0.2924  0.1426 -0.1277
39125W        W39989  17.755  12.187  17.146  0.0318  0.1636  0.0896
39126W        W39990  17.396  19.078  24.515 -0.3154 -0.2722  0.0949
39127W        W39991  15.494  14.156  20.298  0.2192 -0.1061  0.2644
39128W        W39992   4.413   5.287  22.968 -0.0082 -0.0870  0.1854
39129W        W39993  12.562  18.735  15.019 -0.0477  0.0827 -0.3591
39130W        W39994   4.550  19.514  21.732 -0.1841 -0.1051  0.2594
39131W        W39995  17.179  24.379  21.093  0.2406  0.1211 -0.3225
39132W        W39996   8.869  17.311  28.654 -0.1574 -0.1067  0.1479
39133W        W39997   5.530  21.753  16.052  0.1658  0.0591 -0.0352
39134W        W39998   4.865   4.133  17.881 -0.1222  0.0436  0.0308
39135W        W39999  12.463   7.966  28.791 -0.0003  0.0570 -0.0776
39136W        W40000   8.727  16.410  12.924 -0.1364  0.3444 -0.2984
39137W        W40001   6.026   4.566   7.167 -0.1741 -0.1310 -0.0596
39138W        W40002   4.631  10.759   9.203 -0.1525  0.1322  0.2448
39139W        W40003  12.643  17.170  17.108 -0.0206 -0.0633 -0.2319
39140W        W40004  13.083  10.806   1.346  0.0800  0.0922 -0.0490
39141W        W40005  12.710  25.624  19.682  0.1662  0.1835 -0.2926
39142W        W40006  19.740  11.900  13.499  0.1233 -0.0227  0.0374
39143W        W40007   9.870   5.479   0.806 -0.1645 -0.0855 -0.0276
39144W        W40008  17.182  18.299  14.074 -0.1284  0.2716  0.2562
39145W        W40009   4.318   0.070   2.324 -0.2189  0.1336  0.1331
39146W        W40010  27.771  19.231   3.061  0.2565 -0.1004  0.1968
39147W        W40011  16.320  27.813  22.106 -0.0460  0.1380 -0.1628
39148W        W40012   7.383   5.120   0.227 -0.1416  0.0428 -0.0987
39149W        W40013  15.480  23.023  27.693 -0.1282 -0.1193  0.0784
39150W        W40014   9.861  21.771  20.103 -0.1189 -0.1048 -0.1267
39151W        W40015   5.947   7.285  13.573  0.0152 -0.0577 -0.1835
39152W        W40016  23.835  15.727   3.204 -0.3013  0.2538 -0.0054
39153W        W40017  22.168  13.473   3.816  0.2690  0.0728 -0.0473
39154W        W40018   5.962  24.550  14.344  0.1860  0.0943  0.2450
39155W        W40019  20.304  12.971   5.069  0.2679  0.0634 -0.2404
39156W        W40020   2.395  16.179  14.232 -0.2525  0.3510  0.0512
39157W        W40021   5.711  14.253  28.683 -0.1163  0.0350 -0.1376
39158W        W40022   7.301  19.234   6.991 -0.2861 -0.0671  0.0794
39159W        W40023   2.656  25.851   3.315  0.0717 -0.2438 -0.1036
39160W        W40024  22.000  14.560  19.675 -0.2820 -0.0617 -0.1856
39161W        W40025  15.678   6.697  14.670  0.0789  0.2930  0.1687
39162W        W40026  28.555   9.574  10.835 -0.1755 -0.2484  0.1607
39163W        W40027  16.173  18.049  26.061 -0.1216  0.1897 -0.1802
39164W        W40028   2.336  23.271   4.460  0.2417  0.0024  0.2720
39165W        W40029   0.629  13.541   7.797 -0.2344 -0.0284 -0.0249
39166W        W40030   8.402  22.026   3.332 -0.1181 -0.0010  0.0459
39167W        W40031   7.564   6.069   4.941 -0.1163 -0.0154  0.0687
39168W        W40032  16.157  25.169  23.393  0.1234 -0.1466 -0.0888
39169W        W40033  25.552  25.590  28.879 -0.3206 -0.0787  0.1703
39170W        W40034  21.779  23.541  12.005  0.2728 -0.1221 -0.0826
39171W        W40035  27.810  18.594  27.359  0.1990  0.3810 -0.2237
39172W        W40036  17.515   4.028  18.413  0.0481  0.0465 -0.0152
39173W        W40037  13.092  23.843  22.734  0.4322 -0.1331  0.1981
39174W        W40038  17.236  16.388   0.020  0.1107 -0.2052  0.1193
39175W        W40039   8.659  20.028  21.559 -0.3084  0.2803  0.2903
39176W        W40040  21.294  19.547   9.172  0.0616  0.1950  0.0893
39177W        W40041   9.511  20.001  12.290  0.0096  0.0228 -0.3918
39178W        W40042   9.441   3.314   8.748 -0.0990  0.0641 -0.0521
39179W        W40043  11.462  11.286   4.649 -0.2856  0.0523  0.0636
39180W        W40044   8.436  21.857  26.795  0.3253  0.1785 -0.2257
39181W        W40045  16.410  18.516  28.920  0.0821 -0.0714  0.3816
39182W        W40046  25.560  22.059  27.694  0.1122  0.0784 -0.0463
39183W        W40047   8.386   4.247  17.060  0.5915  0.3265 -0.1309
39184W        W40048   5.650  24.507  23.628  0.0628  0.3161  0.0028
39185W        W40049  11.609   3.894   4.566  0.1898 -0.1203  0.1161
39186W        W40050   9.209  12.730   0.683 -0.2171 -0.2884 -0.0859
39187W        W40051  16.065  26.067   9.591  0.0124 -0.0052  0.0233
39188W        W40052  27.803  24.233  27.056  0.1124  0.1437 -0.1146
39189W        W40053   4.114   9.174  25.133 -0.2137 -0.0640 -0.2164
39190W        W40054   4.130  13.808   4.147 -0.1739  0.1871  0.0428
39191W        W40055   3.283  26.598  20.864  0.0775 -0.1617  0.0536
39192W        W40056  12.322  27.054   9.376  0.0725 -0.3216 -0.0916
39193W        W40057  22.805  14.923  24.206  0.0458  0.1018 -0.1217
39194W        W40058   0.720  21.159  26.330 -0.2984  0.0233 -0.3298
39195W        W40059   2.646  13.264   8.326 -0.0151  0.1923  0.1844
39196W        W40060  27.845   4.154   6.324  0.0420  0.1504  0.0548
39197W        W40061   7.745   3.197   4.174 -0.1872  0.0982  0.0233
39198W        W40062  19.791  17.504  14.518  0.0218  0.2131 -0.0502
39199W        W40063   3.876  19.550  22.525 -0.5579  0.0500  0.1303
39200W        W40064   5.567  12.250   3.040 -0.0046  0.1131 -0.1153
39201W        W40065  19.207  15.942   2.098  0.0096  0.0496  0.2334
39202W        W40066  12.695   1.927  18.239 -0.0035 -0.0493 -0.1499
39203W        W40067  22.422   8.332   8.139  0.0606 -0.0270  0.0189
39204W        W40068  25.700  14.301   8.364 -0.0958 -0.2467 -0.5640
39205W        W40069   5.421  15.322  10.831 -0.2395 -0.3057 -0.0145
39206W        W40070   6.050  26.253  21.001 -0.0100  0.0572  0.0779
39207W        W40071  14.896  10.855   6.621  0.2304  0.2413 -0.2279
39208W        W40072   8.610  18.305   6.019 -0.0508  0.1821  0.1988
39209W        W40073  24.253  28.691   8.886  0.3772  0.1143  0.2299
39210W        W40074  23.570  23.574  28.777 -0.0369 -0.1684  0.1634
39211W        W40075   9.171   5.800  29.089 -0.0102 -0.1390 -0.1991
39212W        W40076  28.807  12.003  12.167 -0.0785 -0.1078  0.0653
39213W        W40077   1.956  20.827  14.084 -0.1242  0.2202  0.2505
39214W        W40078  12.528  23.890  20.028  0.2347 -0.1336  0.0532
39215W        W40079  16.177  26.844   6.391  0.0800 -0.2233  0.1030
39216W        W40080  11.473  11.789   0.992 -0.2856  0.0180  0.0740
39217W        W40081  13.584  23.560   6.870 -0.0034 -0.2058 -0.2560
39218W        W40082  19.282   8.356  11.804  0.1975 -0.0232 -0.0331
39219W        W40083  18.046  13.152  26.333  0.2755  0.3682  0.1327
39220W        W40084  25.269   4.650   7.623 -0.1736  0.1674  0.1713
39221W        W40085  11.570   8.286  26.399  0.2325 -0.0323  0.1748
39222W        W40086  25.637  28.720  20.696 -0.1194 -0.1653 -0.1027
39223W        W40087  19.887  11.820  15.956  0.0264  0.0853 -0.0296
39224W        W40088   5.723  27.114  16.776  0.1555 -0.1109 -0.1916
39225W        W40089  10.047  18.672  22.090  0.0400 -0.0753  0.0088
39226W        W40090   0.497  19.971  28.887  0.2207  0.0516 -0.0784
39227W        W40091   7.727  22.064   4.281 -0.1390 -0.1287  0.1206
39228W        W40092  27.424   1.291   6.511  0.3257  0.0003  0.1254
39229W        W40093   9.278  22.424  26.584 -0.1213  0.2351  0.1200
39230W        W40094   5.845  11.614  22.367  0.2416  0.0876 -0.2765
39231W        W40095  26.664  11.482  25.103 -0.3036  0.5144  0.2319
39232W        W40096  12.466   4.519  13.699 -0.3368  0.0902  0.1450
39233W        W40097  22.764  27.236  20.584  0.1857 -0.0043  0.2288
39234W        W40098  28.578  28.026  15.733 -0.1005 -0.3297  0.0493
39235W        W40099  19.898  21.742  16.898  0.0749 -0.0600  0.0708
39236W        W40100  24.139   2.407  11.986  0.2348  0.3901 -0.0309
39237W        W40101   0.069  17.513  10.752  0.3553  0.0764  0.0978
39238W        W40102  10.795  18.589  26.369 -0.1090  0.1227 -0.3210
39239W        W40103  12.913  22.908   7.653  0.0239 -0.4910  0.0506
39240W        W40104  20.235  21.824   4.547 -0.2954  0.1574  0.0608
39241W        W40105   6.632  11.875  23.899  0.2724 -0.0283  0.1701
39242W        W40106  26.119  23.671  21.948 -0.3458  0.0105 -0.1024
39243W        W40107   6.470   0.103   3.211  0.1706 -0.0165  0.2509
39244W        W40108  26.674  25.529  23.200 -0.1743 -0.0575 -0.1241
39245W        W40109   9.347  18.694  17.041 -0.0882  0.3609 -0.1740
39246W        W40110  11.106   2.502  14.698  0.1256  0.2327 -0.0737
39247W        W40111  22.419   6.138  23.599 -0.4797 -0.0915  0.0903
39248W        W40112  16.766  25.004   8.250 -0.0504 -0.0391 -0.0452
39249W        W40113  10.078  16.969  28.552 -0.3465 -0.0351  0.0487
39250W        W40114  20.623  14.055  22.373  0.1031  0.3496  0.2021
39251W        W40115  14.893  20.026   5.025  0.1557  0.0309 -0.0184
39252W        W40116  22.952  19.081  25.651  0.2237  0.1485 -0.0236
39253W        W40117   1.121  27.069   1.983 -0.1342 -0.0148 -0.1371
39254W        W40118  26.165  22.234   8.511  0.0048  0.0610 -0.1890
39255W        W40119  28.707   1.215   6.514  0.2344 -0.0024 -0.0765
39256W        W40120   2.225   6.826  19.409 -0.0943 -0.2894 -0.0977
39257W        W40121  21.070  18.692  24.641 -0.0215 -0.1090  0.0990
39258W        W40122  24.258   1.866  23.518  0.1393  0.1173 -0.0998
39259W        W40123  13.685  20.499  28.285  0.1634  0.2073 -0.2709
39260W        W40124  15.341  28.283  24.656 -0.2855  0.2601  0.1225
39261W        W40125  24.712   7.995  26.577 -0.0660  0.0400 -0.2082
39262W        W40126  18.053  13.693   3.140  0.1214  0.1514 -0.3322
39263W        W40127  13.065   3.391  24.237  0.1704 -0.1857 -0.0141
39264W        W40128   5.861   3.967  14.755  0.1720 -0.2082  0.1947
39265W        W40129   4.830  15.994   1.789  0.0236  0.1600 -0.2320
39266W        W40130  27.618  21.694  26.663 -0.4013 -0.0102  0.2044
39267W        W40131  22.735   1.878  19.317 -0.3088  0.0732  0.2201
39268W        W40132   5.904  29.123  12.508 -0.2624  0.1925  0.2567
39269W        W40133  19.070  15.179  17.549  0.0303 -0.0819  0.3598
39270W        W40134  12.381   2.261   5.004 -0.1530 -0.1261 -0.1986
39271W        W40135   0.831   9.073   7.694 -0.1708  0.0303 -0.2334
39272W        W40136   0.681  16.635  14.101 -0.0743 -0.1397 -0.2765
39273W        W40137   7.894  14.006  10.606  0.1313  0.1081 -0.1192
39274W        W40138   9.269  22.149   1.834  0.0751 -0.2378  0.3133
39275W        W40139  23.373   4.161  20.714  0.3805 -0.0967  0.0144
39276W        W40140  19.825  21.894  21.610 -0.2629  0.0396  0.0789
39277W        W40141  25.531  27.304  20.772  0.1832  0.0227 -0.0205
39278W        W40142  19.816  14.544  28.748 -0.1464  0.1746  0.0589
39279W        W40143  27.534  24.684   5.091  0.1226  0.0082 -0.1124
39280W        W40144  26.948   8.882  19.131  0.2535  0.3366 -0.0963
39281W        W40145  24.401  19.006   6.011 -0.0622  0.3460 -0.1984
39282W        W40146   5.272  25.832  25.976  0.0803  0.3611  0.0351
39283W        W40147   6.195   8.527  15.938 -0.3273 -0.0311 -0.0961
39284W        W40148  23.059  19.901  24.790 -0.2157  0.3005 -0.3071
39285W        W40149  12.285  18.348  11.548 -0.3096 -0.0340  0.0608
39286W        W40150  23.718  25.817  21.718  0.1443 -0.0108 -0.0264
39287W        W40151  25.717  23.746   5.773  0.1419 -0.0413 -0.0283
39288W        W40152  15.439  26.081   9.723 -0.1438  0.3296 -0.2684
39289W        W40153  12.812  18.714  19.762 -0.0066 -0.1831 -0.0710
39290W        W40154  18.457   9.690  13.772 -0.1371  0.1541 -0.1388
39291W        W40155  23.179   6.222  11.787 -0.0175 -0.1016  0.0239
39292W        W40156  19.800  16.328  17.544  0.1362 -0.4138  0.1451
39293W        W40157  26.120  23.096   3.291  0.0124  0.0782  0.2836
39294W        W40158  20.830   2.020  20.323 -0.0108 -0.0019 -0.1751
39295W        W40159   2.383  18.270  24.574  0.2388  0.1071  0.0514
39296W        W40160  21.758  21.967   2.287 -0.2862 -0.3354 -0.2490
39297W        W40161  17.786  15.258   6.079  0.1035 -0.2908  0.1000
39298W        W40162  28.726  13.084   1.041 -0.1832  0.2722  0.2251
39299W        W40163   7.952   0.289  19.445  0.2520  0.1014 -0.0871
39300W        W40164  13.847  16.153  27.986 -0.1008  0.0888  0.1695
39301W        W40165  23.574  13.176  18.632  0.1091  0.0174  0.1304
39302W        W40166  13.373  14.830  17.640 -0.3281  0.0604  0.0796
39303W        W40167   3.717  12.856  13.628 -0.3341  0.1133 -0.2281
39304W        W40168  24.126  22.383   6.302 -0.1842  0.2424 -0.0608
39305W        W40169  29.105  10.445  27.441  0.0164  0.2315 -0.2091
39306W        W40170  12.383  14.200  28.461 -0.1316 -0.0827 -0.1654
39307W        W40171  26.362  16.036  16.820 -0.0838  0.1555  0.1504
39308W        W40172  22.207  28.152  13.923  0.1339 -0.0550 -0.0085
39309W        W40173  26.286  19.562   5.615  0.0351  0.1924  0.1262
39310W        W40174  24.541   6.805  23.610  0.2013 -0.0223  0.0389
39311W        W40175  17.229   2.060  13.267  0.0877 -0.0508 -0.0448
39312W        W40176  19.869  15.132  20.647 -0.1244 -0.2537 -0.0252
39313W        W40177  24.238   6.972  12.306  0.0153  0.4541 -0.1898
39314W        W40178  20.500   2.753  19.386 -0.2210 -0.0345 -0.1687
39315W        W40179   4.410   6.685  15.035 -0.0702  0.0931 -0.1122
39316W        W40180  13.227   4.976  11.075  0.0355 -0.0943  0.0704
39317W        W40181   1.465   2.108  19.061 -0.1285 -0.1556  0.0209
39318W        W40182   5.817  13.487  19.897 -0.1156  0.0727 -0.1773
39319W        W40183  12.581   1.737  12.898 -0.2313  0.0694 -0.1600
39320W        W40184  25.594  12.014  11.157  0.2759  0.0986 -0.2148
39321W        W40185  15.087   2.998  12.809  0.1171 -0.1419  0.2202
39322W        W40186   5.526  23.814  27.639 -0.1174  0.0398  0.1956
39323W        W40187  27.099   5.605   2.233 -0.2228  0.2686  0.0421
39324W        W40188   6.917  16.460  14.631 -0.0122  0.0732  0.0669
39325W        W40189   7.038  14.697  28.342 -0.0100  0.1436 -0.0523
39326W        W40190  10.437  29.006  20.053 -0.2654  0.1081 -0.2495
39327W        W40191   7.449  21.426   8.572  0.1135  0.1071  0.2415
39328W        W40192  12.167  25.613  28.699 -0.0792  0.0013 -0.1294
39329W        W40193  14.089  15.183  17.606  0.3908 -0.0322 -0.0455
39330W        W40194   2.484  24.604   3.680 -0.0406  0.0910 -0.0441
39331W        W40195   6.035  16.875  28.806  0.1924 -0.0064 -0.2415
39332W        W40196  17.113   5.822  20.378  0.0188 -0.2131 -0.0882
39333W        W40197  17.593   5.700   5.590 -0.2364  0.1457 -0.1113
39334W        W40198  13.259   9.029   2.067 -0.4184 -0.1468 -0.0268
39335W        W40199  12.691   7.902   3.138 -0.0784 -0.4915 -0.1706
39336W        W40200  19.657  20.246   8.788 -0.1253  0.2678 -0.0539
39337W        W40201   8.885   8.662  22.920 -0.2188  0.0710  0.2195
39338W        W40202   1.588  26.333  19.094  0.1773  0.1321  0.1532
39339W        W40203  10.075  12.130  18.893  0.2743  0.0561 -0.2638
39340W        W40204  26.756  27.437  17.673  0.2418 -0.1715  0.3901
39341W        W40205  16.127  23.205  18.682 -0.1677 -0.1159 -0.0383
39342W        W40206  21.696   4.006  13.925  0.0545 -0.1237 -0.1594
39343W        W40207   9.626   8.280   5.295 -0.0382  0.1160  0.3021
39344W        W40208   7.137  22.405   9.080  0.0782 -0.1678 -0.0520
39345W        W40209  14.260  24.888   6.235  0.1912 -0.4577 -0.0702
39346W        W40210  26.112   9.097  21.648  0.0953 -0.0268  0.0169
39347W        W40211  25.249  17.901  11.253  0.0182  0.1448 -0.1178
39348W        W40212  11.570  25.684  26.142  0.1210 -0.0131  0.0924
39349W        W40213  27.664   0.792  16.798 -0.0502  0.1166 -0.1768
39350W        W40214  16.955  11.963  27.999 -0.1232 -0.4004 -0.1267
39351W        W40215  27.008   1.234   7.971 -0.0984  0.0584  0.1830
39352W        W40216  28.232  12.704   1.720  0.1890  0.0473  0.0073
39353W        W40217   9.936  17.448   9.880  0.2444  0.1540  0.1993
39354W        W40218  20.317   0.628  17.928 -0.0118 -0.0811  0.1761
39355W        W40219  18.621  19.640   5.553  0.1734  0.1978  0.0141
39356W        W40220   3.946  25.212  24.804 -0.0236 -0.0945 -0.3060
39357W        W40221   9.184  14.263   3.442 -0.0581 -0.1210  0.0031
39358W        W40222   7.240  12.445   6.711  0.3487 -0.1689 -0.1240
39359W        W40223  16.379   9.583   4.494  0.0153  0.2693 -0.0483
39360W        W40224   0.117  27.729  14.934 -0.1144 -0.3040  0.0813
39361W        W40225   5.610   3.892  28.737  0.0192  0.0809  0.4289
39362W        W40226  11.584  26.104   8.684  0.2810  0.2132 -0.0508
39363W        W40227  10.665   3.727  12.613 -0.1056  0.0071  0.1625
39364W        W40228  13.505   6.389   3.975 -0.4884 -0.1345  0.1252
39365W        W40229   8.465  15.391  26.836  0.0623 -0.1994  0.0262
39366W        W40230  14.357   6.435  27.459  0.4675 -0.0200  0.1940
39367W        W40231  27.316  25.313   2.127  0.2282  0.2706  0.0746
39368W        W40232  26.019   7.425  11.397  0.0951 -0.3268 -0.3100
39369W        W40233  19.449   2.235   0.154  0.0031 -0.1515  0.0495
39370W        W40234  16.661  13.592  22.337  0.2130  0.0010  0.0102
39371W        W40235  12.869  18.104  10.825  0.2911  0.1480 -0.0594
39372W        W40236  16.564  23.190  10.964  0.1840 -0.0726  0.0198
39373W        W40237   9.257  16.818  26.265  0.0703  0.0812 -0.1715
39374W        W40238   8.786  12.642   5.224  0.4859  0.0562  0.1042
39375W        W40239  18.615  21.637  19.044 -0.0287 -0.2707  0.1988
39376W        W40240   1.916   4.847   1.609  0.2373 -0.0211  0.0009
39377W        W40241  29.085   7.270  22.069  0.1036  0.2065 -0.0490
39378W        W40242   6.258  27.025  10.992  0.0874 -0.0251  0.0527
39379W        W40243  28.422   3.881  17.901 -0.0703  0.0014  0.0438
39380W        W40244  25.631   4.724   1.846 -0.0269  0.0349  0.1278
39381W        W40245   8.668  15.782   7.507 -0.2456 -0.1571 -0.0311
39382W        W40246  21.988   7.247  12.352 -0.1705 -0.0392 -0.0951
39383W        W40247  26.821  13.397  14.848 -0.0943 -0.1637  0.0560
39384W        W40248  22.542   6.422  13.895  0.0058 -0.0292 -0.0844
39385W        W40249  23.098  21.335  24.763 -0.0872  0.2756  0.1003
39386W        W40250   6.649  17.661   9.222 -0.0443  0.2129  0.2930
39387W        W40251  11.397  21.203   7.620 -0.0539  0.2773  0.1884
39388W        W40252   5.003  24.514  17.051 -0.3481  0.0880 -0.0824
39389W        W40253   5.995   2.835  11.085 -0.2675  0.0664  0.0677
39390W        W40254  14.868  25.499  28.755 -0.0546 -0.1064  0.2812
39391W        W40255   0.267   8.545  26.994  0.0112 -0.1825 -0.1236
39392W        W40256   5.527  16.329  21.085 -0.0112  0.0165  0.0587
39393W        W40257   7.012   7.490   4.224 -0.1577  0.1553  0.0459
39394W        W40258  20.996   9.263  25.020 -0.2392 -0.2025 -0.0914
39395W        W40259   3.189  10.001   9.864 -0.0907 -0.1835  0.1145
39396W        W40260  19.875   6.103   7.448  0.0966  0.0654 -0.0281
39397W        W40261  10.084   0.286  22.794 -0.0319 -0.0103  0.0731
39398W        W40262  26.828  14.203   6.964 -0.1618 -0.0422  0.1743
39399W        W40263  14.936   9.886  10.512  0.0083 -0.1567  0.0924
39400W        W40264   2.642  16.673  14.793 -0.1603 -0.0096  0.2536
39401W        W40265  19.646  24.354  22.038 -0.3506 -0.2682  0.2026
39402W        W40266   4.827   6.426  21.777 -0.1114  0.2721 -0.0298
39403W        W40267   3.190   8.622   3.141  0.0712  0.1532  0.2330
39404W        W40268   3.262   4.464  21.618 -0.1968  0.1167  0.1846
39405W        W40269  17.370  26.017  26.774  0.0312 -0.2486  0.0846
39406W        W40270  22.054  28.731  15.193 -0.0426 -0.0589 -0.0351
39407W        W40271  20.810   0.008  10.466 -0.0605 -0.1681 -0.0688
39408W        W40272  22.073  18.157  20.094  0.2435 -0.0449 -0.1631
39409W        W40273   0.022  25.385  19.648 -0.3439  0.1275 -0.1248
39410W        W40274  14.243  22.816  18.827  0.1628  0.2943  0.1621
39411W        W40275   7.592  20.875   0.192  0.0070 -0.0307  0.1190
39412W        W40276   2.708  16.707  14.261  0.0697 -0.0674  0.2086
39413W        W40277   4.848   0.226  13.619 -0.1859 -0.2204  0.0637
39414W        W40278   9.752  25.641  20.546  0.1403 -0.0126  0.2106
39415W        W40279   2.940  18.897  16.555 -0.1402  0.0010  0.0767
39416W        W40280   8.519  24.463  12.925  0.0514 -0.4569 -0.0094
39417W        W40281   0.453  20.392  15.552 -0.0104 -0.1626  0.4410
39418W        W40282  14.693  15.191   3.688  0.1169  0.2068 -0.1540
39419W        W40283  28.412  18.827   0.769  0.1343 -0.1725 -0.1830
39420W        W40284  27.717  18.805  20.611  0.0922  0.3533 -0.0967
39421W        W40285   2.358  12.977  18.981 -0.0213  0.1742 -0.0609
39422W        W40286  23.794   9.302  11.212  0.3076 -0.0999  0.0616
39423W        W40287   4.872   2.633   5.733 -0.0242 -0.0453  0.1384
39424W        W40288  14.121  16.392  11.175 -0.3200  0.0768  0.0434
39425W        W40289  25.764  22.304   9.798  0.2305 -0.1771  0.0996
39426W        W40290   0.372  22.817  15.833 -0.0115 -0.2148  0.0759
39427W        W40291   5.089  25.429  10.817  0.0040 -0.1550 -0.0931
39428W        W40292   5.513  19.570  26.229 -0.0007 -0.0623 -0.2223
39429W        W40293  28.890   9.923  11.306  0.1905  0.1149  0.3804
39430W        W40294  28.186   1.902   5.125  0.0053  0.1727 -0.0343
39431W        W40295  22.131  13.568  19.503  0.1473  0.0247 -0.0270
39432W        W40296   7.856   7.405   2.330 -0.0857 -0.2922  0.2587
39433W        W40297  20.878   5.971  13.477  0.3902  0.1686  0.0983
39434W        W40298  22.740  12.073   9.616 -0.0150 -0.0914 -0.3159
39435W        W40299  10.500   6.109   8.092  0.1247  0.1892  0.2348
39436W        W40300   4.880   5.215   0.196  0.0283  0.1017 -0.1025
39437W        W40301  19.894  12.062  11.637 -0.1580 -0.1319 -0.1957
39438W        W40302   2.066  24.546  21.480 -0.0760 -0.0774  0.0469
39439W        W40303  11.893  16.015  22.139 -0.0085 -0.1354 -0.0320
39440W        W40304  27.645  28.061  14.154  0.0512  0.0791  0.1288
39441W        W40305   4.828   5.710  25.573 -0.2076 -0.3942 -0.2415
39442W        W40306   2.963   3.357  18.213  0.0288  0.0368  0.0692
39443W        W40307  25.732  11.527   4.313  0.2484 -0.2548 -0.0407
39444W        W40308   0.803   0.463   9.765  0.1410 -0.0932 -0.1243
39445W        W40309  24.273  19.606  13.938  0.0561  0.1902  0.3663
39446W        W40310  19.905  16.662  20.870 -0.1634 -0.0853  0.1762
39447W        W40311  10.342  26.058  28.408  0.1869 -0.0117 -0.1534
39448W        W40312  25.258  25.201   9.139 -0.1836 -0.0842 -0.2575
39449W        W40313  19.274   7.397  10.099  0.1830  0.1084 -0.2376
39450W        W40314  23.762   8.598  10.087  0.1671 -0.1296  0.1557
39451W        W40315  28.576  24.680   8.434  0.0615  0.1596 -0.1742
39452W        W40316  26.558  26.030  27.175 -0.0347  0.1014 -0.0340
39453W        W40317   1.818  13.807   8.417  0.1747  0.0789 -0.4170
39454W        W40318  23.276  13.555  11.261 -0.0425  0.1387 -0.3547
39455W        W40319  13.557  12.412   0.611  0.2244 -0.2168  0.2045
39456W        W40320   5.638  27.445   6.596 -0.2123 -0.0621  0.0648
39457W        W40321  27.414  21.464   3.731  0.0499 -0.2734  0.0387
39458W        W40322   4.717  20.009   2.739  0.0064  0.0014 -0.1489
39459W        W40323   5.660   3.529   6.434 -0.2055  0.1836 -0.1086
39460W        W40324  10.373  24.208  26.996  0.1804 -0.1214  0.0400
39461W        W40325  25.606  21.015  25.360 -0.0695  0.1156 -0.3537
39462W        W40326  25.470   6.927   7.687  0.2571  0.2942 -0.0472
39463W        W40327   5.028  28.249  13.194  0.0223  0.0162  0.1576
39464W        W40328   2.847  16.123   6.852  0.1660 -0.2147  0.1198
39465W        W40329   8.058  28.928  10.931 -0.5691  0.0552  0.0876
39466W        W40330   2.417   3.644  24.281  0.0180 -0.1058  0.1556
39467W        W40331  24.487  17.583   1.034  0.1048 -0.1984 -0.1422
39468W        W40332   5.378  15.192  29.070  0.1126 -0.2724  0.3796
39469W        W40333   3.432  10.073   6.226  0.2952 -0.2951 -0.0974
39470W        W40334  25.628  17.187  17.047 -0.1518  0.0213 -0.1381
39471W        W40335   6.745  18.758  24.824 -0.0696 -0.2484 -0.0425
39472W        W40336   3.201  14.228   6.795 -0.1887  0.1197 -0.0242
39473W        W40337  23.027   8.137  17.904 -0.1653  0.0539  0.1401
39474W        W40338  18.208  27.726  19.508 -0.2030 -0.0188  0.2170
39475W        W40339   1.556  20.902  20.292  0.1019 -0.0918 -0.1064
39476W        W40340  24.387  15.791   9.286  0.0813 -0.2699 -0.1368
39477W        W40341   4.817  22.275  16.852  0.0713 -0.1704  0.1560
39478W        W40342  15.818   7.639   5.806  0.1077  0.0376  0.0456
39479W        W40343  10.522  17.636   0.527 -0.0080  0.2911  0.0068
39480W        W40344   2.445  20.044   8.249  0.0391  0.1039  0.2232
39481W        W40345  19.363  12.805   9.958  0.0486 -0.2262 -0.2544
39482W        W40346   8.878  23.703  10.719  0.0460 -0.1433 -0.1811
39483W        W40347   8.501  15.156  13.680  0.1611  0.0587  0.0280
39484W        W40348   1.701  17.454  20.172 -0.0495  0.1189 -0.1431
39485W        W40349   3.635   4.237  18.792 -0.0390 -0.0587  0.0906
39486W        W40350  22.631  10.244   1.556 -0.4057 -0.4405 -0.2764
39487W        W40351   6.886  19.307  13.412  0.1865 -0.0799  0.4273
39488W        W40352   9.260  13.498   0.657  0.0308  0.1631  0.0153
39489W        W40353  14.999  21.127   9.223 -0.1463 -0.1747 -0.1211
39490W        W40354  12.700   8.120  26.578  0.1222  0.2250 -0.0485
39491W        W40355  15.992  22.084   7.169  0.1412  0.1750 -0.0325
39492W        W40356  12.243   3.038   1.557 -0.1738 -0.0361 -0.2928
39493W        W40357  20.329   6.371  20.745 -0.1783  0.2516 -0.0124
39494W        W40358   2.080  20.848  26.401 -0.1938  0.0385 -0.0227
39495W        W40359  15.672  24.868  14.397  0.1478 -0.0595  0.1502
39496W        W40360  10.992   5.871  20.058  0.0500  0.1443  0.1315
39497W        W40361  25.624  13.389  23.892 -0.0020  0.2214  0.1364
39498W        W40362  14.806  26.695  19.931 -0.1898 -0.0363  0.1367
39499W        W40363  25.202  28.774  22.852 -0.0861  0.1399 -0.0704
39500W        W40364  28.531  19.408   1.942  0.2102  0.1169  0.4122
39501W        W40365  13.295  21.659  19.018 -0.0290  0.0180  0.3669
39502W        W40366  10.190  12.117   4.854  0.1012 -0.0195 -0.0824
39503W        W40367   2.161   6.338  21.253 -0.2460 -0.0688  0.0647
39504W        W40368  12.274   2.238   0.983 -0.1191 -0.1144 -0.4630
39505W        W40369   6.820  16.055   2.990 -0.2361  0.1820 -0.1040
39506W        W40370   9.649  20.497   7.188  0.0543 -0.2364 -0.0781
39507W        W40371   8.734  12.750  10.246 -0.1227  0.0391 -0.1785
39508W        W40372  11.367   8.392  23.281  0.2615 -0.1465  0.1422
39509W        W40373  14.163  18.335   9.100  0.2355 -0.2170  0.1664
39510W        W40374  28.355  21.117   8.673  0.1842  0.1135  0.2460
39511W        W40375   6.522  23.224   0.101 -0.0115  0.1167 -0.1427
39512W        W40376   5.837  27.456  24.645 -0.3668  0.1305 -0.2459
39513W        W40377  16.447   6.504  23.981  0.2966  0.1997  0.0415
39514W        W40378   8.202  16.877  21.031  0.2432 -0.0118  0.1067
39515W        W40379   1.343  15.121   7.540 -0.2383 -0.0228  0.1915
39516W        W40380  12.292  15.976  13.961 -0.1263 -0.2547  0.1378
39517W        W40381   7.003  23.303  12.045  0.0286 -0.0650  0.1198
39518W        W40382  10.972  22.640  28.924  0.1194 -0.2323 -0.3488
39519W        W40383  20.684  17.645   6.510  0.4687  0.0114 -0.1734
39520W        W40384  15.329   1.845   9.284 -0.0481  0.2657 -0.0036
39521W        W40385  15.515   1.339   5.585 -0.0194  0.0965  0.2512
39522W        W40386  19.860   5.289  10.206  0.1755 -0.2935 -0.1314
39523W        W40387   0.373  16.051  21.753 -0.0606  0.2606 -0.0022
39524W        W40388  23.816  12.920  21.352  0.1626 -0.0446  0.0234
39525W        W40389  10.125  11.043   3.584 -0.0116 -0.0128  0.1656
39526W        W40390   4.385  19.220  10.428 -0.1508  0.2596 -0.1250
39527W        W40391  19.447  18.243  10.028  0.1104  0.1143 -0.0314
39528W        W40392  28.930   5.501   8.259  0.1484 -0.3060  0.0847
39529W        W40393   2.886  11.746  13.870 -0.0089 -0.0470 -0.0753
39530W        W40394  11.370   5.418  12.863  0.0167 -0.1327 -0.0276
39531W        W40395  15.355  19.437  12.469  0.0017  0.1109 -0.2380
39532W        W40396  28.571   5.715   8.946 -0.0258  0.0595 -0.0903
39533W        W40397   1.339  11.512   6.710 -0.1148 -0.0446  0.0801
39534W        W40398   9.556  25.749  10.727 -0.0636  0.0862 -0.1292
39535W        W40399   3.957  19.980  11.475  0.1345 -0.0204  0.1961
39536W        W40400  17.419   2.056   6.519 -0.2248 -0.1606  0.0486
39537W        W40401  29.044  15.366  14.239 -0.0826 -0.2055 -0.1080
39538W        W40402   6.064   3.272  21.868  0.2267 -0.2963 -0.0179
39539W        W40403   1.086   3.723   8.556 -0.2174  0.1699 -0.0617
39540W        W40404  17.482  22.986   8.806  0.4563  0.2082  0.3232
39541W        W40405   1.890  22.963  14.041 -0.0075  0.1863  0.0577
39542W        W40406   1.166  19.208  23.513 -0.1504  0.1234  0.1180
39543W        W40407   6.428   0.896  26.891 -0.0775 -0.0427 -0.0964
39544W        W40408  11.596   6.317  14.324  0.3100  0.1071 -0.0352
39545W        W40409   5.879   8.426  27.709 -0.0980  0.0709  0.1000
39546W        W40410   5.068  24.926  15.120  0.3712  0.2696  0.1195
39547W        W40411  10.951  21.123  22.207 -0.1652 -0.1986 -0.0881
39548W        W40412  19.586  21.909  26.918 -0.1995 -0.1316 -0.2863
39549W        W40413  24.348  16.781  20.225 -0.1108 -0.0354 -0.0472
39550W        W40414  10.210  12.894  23.516  0.2347 -0.1825  0.1693
39551W        W40415   8.882  16.902   8.940 -0.1817  0.1470 -0.2955
39552W        W40416  27.108  14.947   4.652  0.1191  0.1129  0.1128
39553W        W40417   7.155  28.326  18.633  0.3053  0.1291 -0.1291
39554W        W40418  23.437   0.184  10.493 -0.1675 -0.0342  0.0787
39555W        W40419  16.869  18.219  16.984  0.1057  0.6039 -0.0923
39556W        W40420   3.535  28.650  12.293 -0.1099 -0.1692 -0.1650
39557W        W40421   1.757  20.131  16.128  0.0269 -0.0071  0.3418
39558W        W40422  26.461   5.468  12.564 -0.0807 -0.2707  0.0126
39559W        W40423  17.838  25.918   1.427  0.0501 -0.4306 -0.0838
39560W        W40424  12.312  28.824  23.868 -0.0447 -0.2328  0.0096
39561W        W40425   6.753  20.004   5.333  0.0220  0.1890 -0.1253
39562W        W40426   1.007   8.570   9.355  0.2310 -0.7435 -0.2133
39563W        W40427  21.133   8.115  14.816 -0.0347 -0.0081 -0.1320
39564W        W40428   1.865  12.004  28.087  0.1038  0.1790  0.1907
39565W        W40429  20.013  18.882   6.018 -0.2173  0.0644  0.2714
39566W        W40430  13.303   1.315  19.337  0.3877 -0.2604  0.0525
39567W        W40431  10.219  11.438  12.286  0.1774 -0.2093  0.0474
39568W        W40432   7.798  28.161  10.823 -0.0442 -0.0279  0.1194
39569W        W40433  29.057  21.512  24.757  0.2493  0.0935 -0.2328
39570W        W40434   6.654  19.645   5.646 -0.0545 -0.1465  0.0203
39571W        W40435  28.667  24.246   3.248  0.0300 -0.0528 -0.0394
39572W        W40436   1.677  23.797  13.987 -0.0483 -0.0297 -0.1996
39573W        W40437  10.180  25.275  23.368 -0.0163  0.1669 -0.2386
39574W        W40438   2.952  26.161  21.116  0.1726  0.0627  0.1355
39575W        W40439  17.274  13.485  17.638  0.0419  0.1151 -0.0672
39576W        W40440  12.183   2.927  22.329  0.2756  0.0513 -0.0737
39577W        W40441  21.907  15.738  21.151 -0.0225  0.0321  0.0573
39578W        W40442  17.170  16.873  20.933 -0.0479  0.0413 -0.1576
39579W        W40443  22.163  17.618  23.006  0.0804  0.0643  0.0368
39580W        W40444  28.443   6.896   5.119 -0.0781 -0.2519  0.0919
39581W        W40445   9.325  24.304   7.789  0.2305 -0.1291 -0.0244
39582W        W40446   2.283   0.907   0.414  0.0339  0.2481  0.0985
39583W        W40447  21.121  18.207   6.431 -0.1633 -0.1194 -0.0269
39584W        W40448   1.365   0.305  19.831  0.1328 -0.0252  0.1322
39585W        W40449  20.599  18.602  27.533 -0.1132  0.1954  0.1942
39586W        W40450   5.864  17.460  21.050  0.1664 -0.0769 -0.3189
39587W        W40451  23.537  11.506   4.445 -0.0838 -0.1150  0.1949
39588W        W40452   9.229   4.818  22.699 -0.0836  0.1282 -0.0686
39589W        W40453  27.371  20.466   3.716  0.2248 -0.2650  0.2925
39590W        W40454   6.404  21.096  23.214 -0.2118  0.1100 -0.1549
39591W        W40455  27.985   1.784   1.599 -0.2169  0.4930 -0.0379
39592W        W40456  16.828  24.978  22.596 -0.0617  0.0168 -0.1449
39593W        W40457  18.564  21.329   4.378  0.2742 -0.0900  0.1137
39594W        W40458  10.188   8.824   1.661  0.0088  0.1169 -0.2515
39595W        W40459  10.523  24.382   9.416 -0.1775 -0.1878  0.1975
39596W        W40460  17.659  17.015  20.805 -0.1768  0.1057 -0.1803
39597W        W40461  27.945  21.985   7.579 -0.3284  0.0383 -0.1315
39598W        W40462  19.948  21.319   6.042  0.1028 -0.0775 -0.0517
39599W        W40463   4.151  25.169   9.292 -0.1116  0.0672  0.2499
39600W        W40464  28.007   5.328  12.013 -0.3337 -0.0978  0.0605
39601W        W40465  11.751  24.421  17.502  0.0213  0.0718  0.1956
39602W        W40466   2.959  10.122  13.127 -0.0058 -0.1995 -0.6982
39603W        W40467   4.935   9.628  23.543  0.1871 -0.0669  0.0852
39604W        W40468  28.500   3.891  22.711  0.3972 -0.3660 -0.3321
39605W        W40469   8.863  18.372  11.590 -0.2286  0.0640 -0.0419
39606W        W40470  14.865  26.209   6.092  0.3185  0.0668 -0.1563
39607W        W40471  13.190   7.443  16.735 -0.0347  0.0600 -0.5229
39608W        W40472   9.419  27.242   0.087 -0.0892  0.0850  0.0857
39609W        W40473  10.577  15.113   4.250  0.0102 -0.0380  0.2188
39610W        W40474  13.572  22.300   3.634 -0.2659 -0.1318  0.1885
39611W        W40475  22.298  21.711  23.189  0.1154  0.2704 -0.2908
39612W        W40476  12.967  28.419  19.350 -0.1263  0.1142 -0.1030
39613W        W40477  16.408  12.394   9.387  0.1228  0.0586  0.3452
39614W        W40478   5.507  13.203  28.628 -0.1144 -0.4544  0.0597
39615W        W40479  23.874   8.528  28.538  0.0662  0.2315  0.1088
39616W        W40480  18.311   1.208  17.425  0.0270 -0.3163 -0.2630
39617W        W40481  17.644   0.816   9.714  0.0956  0.1513  0.2237
39618W        W40482  24.529   8.556  16.409  0.1201  0.0069  0.2270
39619W        W40483  26.003  25.517  26.945 -0.0654  0.1256 -0.0583
39620W        W40484  12.380   3.200  16.428 -0.0860  0.1774  0.3435
39621W        W40485  12.360  13.041  19.046  0.1837  0.2398  0.2269
39622W        W40486  10.211  17.597   4.866 -0.0481 -0.2026 -0.1794
39623W        W40487  18.873  22.659  16.209 -0.0086  0.2467  0.2536
39624W        W40488  20.700  13.615  17.774  0.2169  0.1936 -0.0797
39625W        W40489  25.801  16.414   0.860  0.0986  0.0971 -0.2460
39626W        W40490  21.632  17.954   4.630 -0.0860 -0.0126  0.0361
39627W        W40491   2.265  16.436  11.689 -0.3062 -0.0002  0.1390
39628W        W40492   4.609  23.350   0.975 -0.1049 -0.0873  0.3342
39629W        W40493   4.987  14.620   4.513  0.1833  0.3232  0.0221
39630W        W40494   1.189  28.072  19.830 -0.2445 -0.0912  0.1283
39631W        W40495   6.303   6.192   1.432  0.1566 -0.4039 -0.0617
39632W        W40496   1.768  16.371   7.955  0.0536  0.0134  0.1532
39633W        W40497  10.045  14.328  24.472 -0.1894  0.2385 -0.0980
39634W        W40498  17.052  27.541  14.593  0.0658  0.3721 -0.1778
39635W        W40499   6.526   6.746   0.031 -0.0548  0.1426  0.0337
39636W        W40500   2.927  28.464  10.521  0.1322 -0.2484  0.3555
39637W        W40501   2.462  23.379  16.887 -0.1306 -0.1860 -0.0735
39638W        W40502   0.061   4.218  15.299  0.0513 -0.0186 -0.1098
39639W        W40503   3.396   9.040   3.410 -0.0042 -0.1327  0.3569
39640W        W40504  19.591  11.105  12.853 -0.0273 -0.1545  0.1673
39641W        W40505  23.656  24.735  17.123 -0.4535  0.0048 -0.1330
39642W        W40506  21.303  19.380   2.092  0.1511  0.1055 -0.1256
39643W        W40507  12.202  11.596  14.844 -0.0189  0.1728  0.0845
39644W        W40508  27.036  11.446  24.494  0.0655  0.1689  0.0415
39645W        W40509   5.681   2.134  17.916  0.0242  0.0484 -0.0000
39646W        W40510   4.824  20.185   6.318 -0.0655 -0.0208  0.1697
39647W        W40511   3.533  19.373   7.640 -0.0137 -0.0319 -0.0113
39648W        W40512  12.887   4.846  13.490 -0.0999 -0.0299  0.0410
39649W        W40513   4.294  19.060   4.547  0.1678 -0.1494 -0.1922
39650W        W40514  18.248   6.764   2.817 -0.0507  0.0027  0.0131
39651W        W40515   5.166   0.015   2.507 -0.0315 -0.1094  0.0482
39652W        W40516   5.482  19.899  10.063 -0.0633 -0.1352  0.0159
39653W        W40517   1.097  28.171  22.779 -0.2524 -0.0017  0.1327
39654W        W40518  26.807  23.840  23.640  0.0637  0.0636 -0.3385
39655W        W40519  27.392  26.430  17.231 -0.2607  0.0883 -0.2551
39656W        W40520  23.531  22.074   7.886 -0.2799 -0.2619 -0.1939
39657W        W40521   6.611  21.015   3.984  0.1537 -0.0896  0.3382
39658W        W40522  23.417  21.125   8.408 -0.2067  0.2638  0.1687
39659W        W40523   4.694   4.144   4.608  0.0280 -0.0267  0.0254
39660W        W40524  22.143   3.849   6.569  0.0982 -0.2036 -0.1120
39661W        W40525  18.088  19.270   8.923 -0.0541  0.0277  0.2504
39662W        W40526  12.651  12.492   2.231 -0.1819 -0.1248 -0.0239
39663W        W40527   9.697   4.641  19.887  0.1405  0.1011 -0.3368
39664W        W40528  21.971  15.577   2.843 -0.0778 -0.4021  0.1826
39665W        W40529  17.576   6.256   6.989  0.0195  0.0442 -0.1264
39666W        W40530   3.657  22.386  18.209 -0.1576  0.0730  0.0865
39667W        W40531   8.785   7.741   5.437  0.1118 -0.0594 -0.1388
39668W        W40532  10.405  12.902  11.431 -0.1179 -0.0925 -0.2036
39669W        W40533  20.626  22.653   3.557 -0.2252  0.3584  0.0203
39670W        W40534  15.460   7.230   0.289  0.3088 -0.0706  0.2188
39671W        W40535   5.667  14.129  26.654  0.2843  0.3585  0.3149
39672W        W40536   5.258  13.744  19.265  0.1269 -0.1306 -0.2339
39673W        W40537  13.684  12.405  15.567 -0.1294  0.1501  0.1876
39674W        W40538  11.505  24.830  20.032  0.0987  0.0055 -0.0507
39675W        W40539  25.485  12.382  25.123  0.4161 -0.0846 -0.3010
39676W        W40540   2.656  16.521  13.449  0.3759  0.0866 -0.1126
39677W        W40541  16.227   0.128   8.039  0.3384 -0.2092  0.1741
39678W        W40542   6.496   2.054   4.268  0.0345 -0.1694 -0.0419
39679W        W40543  24.876  23.839  25.721 -0.2905 -0.1677  0.1334
39680W        W40544   8.180  21.344  18.878  0.0203 -0.1291 -0.4579
39681W        W40545   8.061  21.211  10.249  0.0844 -0.1129 -0.2919
39682W        W40546  15.364  22.600  25.718 -0.1975  0.0367 -0.0810
39683W        W40547   3.256  20.308   5.009 -0.2278  0.3686  0.3001
39684W        W40548  14.298   3.643  25.889 -0.1203 -0.0653  0.1284
39685W        W40549  20.578  14.576  11.942 -0.4020 -0.1378  0.1271
39686W        W40550  23.597  23.488  18.205 -0.2072 -0.3641 -0.1904
39687W        W40551  23.816  10.562  11.845  0.0887  0.0516 -0.0404
39688W        W40552   3.646  17.625   3.505 -0.1447 -0.0108 -0.2422
39689W        W40553  13.392  21.901  16.158  0.4902 -0.0679  0.3854
39690W        W40554  18.669   3.713  18.606 -0.2075 -0.0691 -0.2585
39691W        W40555  14.478  20.490  24.372 -0.0080 -0.4446 -0.2634
39692W        W40556   2.337   9.380   5.778  0.3145 -0.4243  0.0399
39693W        W40557  15.133   8.692   9.741 -0.0460  0.1224 -0.1138
39694W        W40558  19.486  11.651  15.690  0.3361 -0.6016 -0.0962
39695W        W40559   2.990  18.049   8.423  0.0864 -0.0899 -0.1037
39696W        W40560  19.948  18.242  27.136  0.3348  0.1956 -0.2622
39697W        W40561  15.621  27.435  24.539  0.1474 -0.3574  0.3443
39698W        W40562  13.803  12.664  22.743  0.2188 -0.2437  0.0747
39699W        W40563   3.074  23.372   6.921  0.0253 -0.1714 -0.1983
39700W        W40564   6.333  11.883   0.091 -0.0415  0.1511 -0.1028
39701W        W40565  13.063  25.666  12.377 -0.3109  0.1890 -0.2498
39702W        W40566   2.176  13.236   2.815  0.3322 -0.1508  0.0372
39703W        W40567   1.965  22.917  21.601 -0.0742 -0.1514  0.1551
39704W        W40568   0.749  21.003  18.160  0.0668 -0.3377 -0.0888
39705W        W40569   6.051   3.906  29.015 -0.1969 -0.1490 -0.2314
39706W        W40570  24.347  12.812  19.215  0.0966  0.3153 -0.0772
39707W        W40571  12.145  15.621   2.825 -0.2220  0.2107 -0.2354
39708W        W40572   4.531  14.880  28.301 -0.0282  0.1896  0.1224
39709W        W40573  26.110  17.513   1.925 -0.0220  0.0066  0.0446
39710W        W40574  26.017  13.620   0.890 -0.0513  0.1470 -0.1095
39711W        W40575   5.677  15.149   7.255 -0.2149  0.1088 -0.2182
39712W        W40576   8.882  24.390   4.567 -0.2077  0.3771 -0.1290
39713W        W40577   3.221   9.493   4.524  0.1491  0.2355 -0.2815
39714W        W40578  12.224  15.171   5.008  0.0326 -0.0817  0.0069
39715W        W40579  22.620  11.479   7.387 -0.0014  0.0507 -0.0627
39716W        W40580  24.913  21.496  11.491 -0.3143  0.2550  0.0894
39717W        W40581   7.796   9.290  22.516  0.2337 -0.2388 -0.0336
39718W        W40582  19.146   2.590  24.086  0.0512 -0.3248  0.2984
39719W        W40583   5.472  26.728  14.169  0.0112  0.3368  0.3551
39720W        W40584   7.084  18.018   8.512  0.0257  0.1799 -0.0853
39721W        W40585  19.456  24.679  17.493  0.1234  0.0148 -0.1108
39722W        W40586   1.814  12.617  22.924 -0.1774 -0.2592  0.0329
39723W        W40587  20.997   2.463  12.363 -0.1151 -0.2132 -0.0089
39724W        W40588  27.421  16.737   7.155  0.4543 -0.0111 -0.1127
39725W        W40589   9.204  15.887  12.625 -0.3169 -0.0029 -0.2033
39726W        W40590   2.898  12.462  11.870  0.1471  0.0291 -0.0300
39727W        W40591  14.590   9.624  20.284 -0.0832  0.2421 -0.0083
39728W        W40592   0.162  20.901   7.162  0.1206 -0.0274 -0.1281
39729W        W40593  15.573  11.280  27.204  0.0274  0.0928 -0.1120
39730W        W40594  19.364  27.300   7.469 -0.2157  0.0944  0.0208
39731W        W40595   9.167  28.392  22.903 -0.0057 -0.2378  0.0214
39732W        W40596  17.259  21.949  17.143  0.2592  0.0134 -0.0866
39733W        W40597  15.776   7.901  17.977  0.1723  0.1817 -0.1551
39734W        W40598   8.701  17.244  16.289 -0.0792 -0.2059  0.2475
39735W        W40599  23.520   0.477  11.040 -0.2542  0.1407  0.1100
39736W        W40600   9.636  11.229  18.389 -0.3846  0.0152  0.1681
39737W        W40601  24.948  23.986  24.853  0.3065  0.1176 -0.0821
39738W        W40602  15.909  23.259   0.051 -0.1753  0.2486  0.0040
39739W        W40603   7.494   8.608   0.779  0.1741  0.0498  0.2341
39740W        W40604  27.521  11.194  26.185  0.2073  0.0024 -0.0126
39741W        W40605  23.665   6.684  26.211  0.0554  0.0311 -0.2534
39742W        W40606  23.953  10.150   1.572  0.0378 -0.1548 -0.0291
39743W        W40607   7.661   4.999  13.594  0.2612 -0.0845 -0.1299
39744W        W40608  16.074  24.326   9.736  0.3520  0.0161  0.1285
39745W        W40609  17.765  16.696  11.048 -0.0729  0.3044  0.2206
39746W        W40610  23.834   2.554  26.567 -0.2038 -0.0175  0.0919
39747W        W40611  25.982   6.966  16.063  0.3487  0.2074 -0.0273
39748W        W40612  21.539  12.109  15.252 -0.0697  0.3286 -0.0457
39749W        W40613  10.951  23.862   7.720 -0.0623  0.1553  0.0262
39750W        W40614  10.514  13.150  27.669 -0.0705  0.0026  0.1496
39751W        W40615   2.888  15.771  28.520  0.2985 -0.1572 -0.0970
39752W        W40616   3.267  14.525  17.079  0.0306  0.2604 -0.1446
39753W        W40617   6.351   1.522  10.008 -0.0560  0.0461  0.0111
39754W        W40618  20.312  22.764  19.867  0.0870  0.0151  0.0654
39755W        W40619   8.202  17.898   9.547 -0.0635  0.0615  0.1244
39756W        W40620  18.605   9.697  19.406  0.1604  0.1048  0.1058
39757W        W40621  10.507  15.277   0.851  0.0290  0.1648 -0.3323
39758W        W40622  18.713   3.259  23.396 -0.5149  0.0481 -0.3516
39759W        W40623   7.095  19.222  22.031  0.0923 -0.2494 -0.2183
39760W        W40624  11.615   8.068  19.137  0.0125  0.1447  0.0212
39761W        W40625   4.447  26.107   8.377 -0.0305  0.1831  0.3013
39762W        W40626   8.030  19.015   3.039  0.1723 -0.3204 -0.1913
39763W        W40627   1.464   6.207  10.041  0.1103  0.0305  0.3319
39764W        W40628  10.148  26.063  17.393  0.3203  0.1397 -0.2510
39765W        W40629  18.709   4.835  17.275 -0.1029 -0.0728 -0.2511
39766W        W40630   9.547  17.263  19.822  0.2863 -0.4283 -0.3921
39767W        W40631   9.847  26.000  16.757  0.0419  0.0100 -0.1240
39768W        W40632  21.897  17.390  10.851 -0.0920 -0.2150  0.2638
39769W        W40633  22.938  25.560  22.811  0.1164 -0.1910 -0.2043
39770W        W40634  17.624  22.812  28.752  0.1467 -0.1234 -0.0800
39771W        W40635  23.878  21.169  16.937 -0.0219  0.0872 -0.1439
39772W        W40636   4.631  24.669  27.884  0.0104  0.1398  0.1101
39773W        W40637  13.258   9.025  13.699  0.1936  0.2088 -0.3193
39774W        W40638   1.930  14.901   0.972  0.1848  0.0550  0.2116
39775W        W40639  11.443  19.914  20.175  0.2740 -0.0379  0.1347
39776W        W40640  28.533  14.148  23.114  0.3650  0.0343  0.1592
39777W        W40641  21.135  25.593   9.548  0.0555  0.2886 -0.0797
39778W        W40642  13.839  18.616  16.479  0.2676 -0.0551  0.0419
39779W        W40643  25.507  17.831  12.752 -0.2384 -0.1336 -0.0718
39780W        W40644   4.618  19.364  14.397 -0.3512 -0.0231 -0.0245
39781W        W40645  26.664  10.459  27.767  0.0935  0.2105 -0.2195
39782W        W40646  18.572  15.147   2.340 -0.1929  0.1550 -0.2582
39783W        W40647   7.170  17.437  17.879 -0.0848 -0.4244 -0.0996
39784W        W40648  23.715  18.425   8.459  0.3358  0.1577  0.0139
39785W        W40649  18.000  19.188  19.301  0.1517  0.0992 -0.0999
39786W        W40650  19.369  16.674  19.976  0.0795  0.0254  0.0751
39787W        W40651   4.561   3.489  28.820 -0.1073 -0.4419  0.2242
39788W        W40652   7.799  25.225  24.629  0.4061  0.1591 -0.0867
39789W        W40653  10.537  18.447  28.690 -0.0563  0.0311  0.0359
39790W        W40654  21.230   2.399   6.540  0.0278 -0.0473 -0.0003
39791W        W40655  26.266  14.893   0.651 -0.2303  0.0445  0.3188
39792W        W40656   0.226  19.153   3.080 -0.0476  0.0999  0.0864
39793W        W40657   2.643  28.366   9.628  0.1083  0.0823 -0.2761
39794W        W40658  17.675   7.516  21.542  0.3295  0.1686 -0.0924
39795W        W40659  12.378  12.746   7.957  0.1406 -0.0772  0.2759
39796W        W40660  13.906  25.070  15.587  0.0574  0.0717 -0.2226
39797W        W40661  23.802  16.146  10.060 -0.0030  0.0153 -0.0646
39798W        W40662   2.811  13.596  19.404 -0.2862 -0.4258  0.1178
39799W        W40663  12.230  26.578   8.187 -0.1156 -0.0150 -0.3431
39800W        W40664  11.473   2.164  12.621  0.2318  0.3299  0.1090
39801W        W40665  25.537   8.253   0.481 -0.2338 -0.1358  0.1132
39802W        W40666  26.190  24.385  28.477  0.0747  0.0736  0.2074
39803W        W40667  16.027  20.310   3.686  0.0025 -0.0982  0.1209
39804W        W40668   3.632  11.905  26.326  0.0560 -0.2420 -0.1169
39805W        W40669   0.159   6.605  11.335  0.0945  0.0134 -0.2990
39806W        W40670   6.623  19.048  21.938  0.1790  0.1541  0.0323
39807W        W40671  22.795  15.858  27.175 -0.0042  0.0845  0.2482
39808W        W40672  16.797   1.171  15.629  0.1203  0.2861 -0.0368
39809W        W40673   5.803  26.655   3.429  0.3204 -0.4590 -0.1195
39810W        W40674  10.666  27.004  19.165  0.0259  0.2542 -0.2971
39811W        W40675  12.768   9.766  16.649  0.0919  0.2091 -0.1359
39812W        W40676  18.077   2.190  10.963  0.0366 -0.1941 -0.0490
39813W        W40677  17.806  10.527  12.857  0.0853 -0.0732  0.2332
39814W        W40678  12.830  17.252  12.419  0.0832 -0.1912 -0.1526
39815W        W40679  19.062  10.204  24.536 -0.0542  0.0491 -0.0324
39816W        W40680   4.267  15.181   2.397  0.0838 -0.0253 -0.0318
39817W        W40681   9.375  12.478  26.279 -0.0932 -0.1608 -0.3269
39818W        W40682   8.882   4.077  14.469  0.2102 -0.3154 -0.0855
39819W        W40683   1.938  21.072  18.666  0.0986 -0.0837  0.1494
39820W        W40684  23.268   2.749  15.016 -0.3081 -0.0244 -0.2045
39821W        W40685   6.839   0.455   1.793  0.0893 -0.0808  0.0853
39822W        W40686   1.360  12.594  23.327 -0.2090 -0.0315  0.0779
39823W        W40687   0.640   9.456   7.438  0.1188 -0.0272 -0.3525
39824W        W40688   4.933  26.058   8.688  0.2034  0.0696 -0.3280
39825W        W40689   9.217  17.376  18.660  0.1881  0.1046  0.1369
39826W        W40690   4.180   3.120   1.973  0.3227 -0.0136  0.4445
39827W        W40691  20.572  23.154  11.629  0.0485 -0.1606  0.0651
39828W        W40692  15.367  14.083  17.908 -0.1930  0.1763 -0.0926
39829W        W40693   5.864  12.437   8.543 -0.0518  0.0524  0.2450
39830W        W40694   8.674  21.399  13.123 -0.4431 -0.2350  0.1222
39831W        W40695  17.278   3.382   3.682 -0.2254 -0.2467  0.0070
39832W        W40696  10.919  25.791  17.943 -0.2739 -0.1974 -0.1173
39833W        W40697  19.630   1.962  11.694 -0.1685 -0.1787 -0.2804
39834W        W40698  26.369  14.216  21.808 -0.1133  0.0462 -0.2090
39835W        W40699  20.223  27.451  18.630  0.1018 -0.1724 -0.1150
39836W        W40700  10.726  28.958  17.697  0.1185  0.0509 -0.2799
39837W        W40701  28.496  18.923  13.787 -0.0294 -0.0133 -0.0560
39838W        W40702  21.515  18.157   6.022  0.1095  0.2120 -0.0297
39839W        W40703  10.336   7.021  21.945  0.1548 -0.2262  0.0976
39840W        W40704   6.551  10.704   0.371 -0.1319  0.1003  0.2086
39841W        W40705   6.750   4.661  22.982 -0.1059  0.0286 -0.0164
39842W        W40706   5.228  23.617  23.904 -0.3158  0.0877 -0.2142
39843W        W40707   7.970  12.361   8.387  0.1858 -0.0077  0.0329
39844W        W40708   9.565   9.881  19.462 -0.1801  0.1086  0.1710
39845W        W40709  20.397   9.635  21.876 -0.0168  0.1767 -0.2370
39846W        W40710  25.891   8.398   9.599 -0.0553 -0.1111 -0.0158
39847W        W40711   3.141  15.177   5.455  0.0102 -0.1666 -0.0994
39848W        W40712  28.184  14.977   3.134  0.1314  0.2682  0.1716
39849W        W40713   5.119  25.338  16.130  0.0291  0.4464 -0.0114
39850W        W40714   1.682  23.544  11.791  0.1102  0.1178  0.0135
39851W        W40715  21.312  25.562  14.735  0.1058 -0.0731 -0.0331
39852W        W40716  22.957  24.000   6.389 -0.0776 -0.3351  0.1045
39853W        W40717   5.229  27.834  16.731 -0.2852  0.1920  0.2050
39854W        W40718  23.125  24.896  19.877  0.3845 -0.1867  0.1246
39855W        W40719  15.056  22.924   5.062  0.1968 -0.0982 -0.1309
39856W        W40720  10.846  27.285  20.651  0.1640 -0.0132 -0.0727
39857W        W40721   8.159  28.954   1.305 -0.0781 -0.0655  0.3536
39858W        W40722  18.043  20.902   6.692 -0.3028  0.0712  0.0216
39859W        W40723  25.495  16.122  27.379  0.0295 -0.0426  0.0253
39860W        W40724   7.683  21.390  13.178 -0.0195 -0.2499  0.0126
39861W        W40725   4.115   0.479  17.295  0.1709 -0.1217  0.0688
39862W        W40726   2.524  22.028   6.693 -0.1299 -0.0706  0.0235
39863W        W40727  23.545   9.555   5.684 -0.0492  0.0064  0.2634
39864W        W40728  28.087   3.478  25.561 -0.0129  0.0201  0.0049
39865W        W40729   8.260   1.942  28.821 -0.1033 -0.2391 -0.0897
39866W        W40730   2.050  14.375   0.920  0.2341  0.1973 -0.2601
39867W        W40731  20.618  16.818   2.763  0.0709 -0.2663  0.0052
39868W        W40732   2.187   1.307  15.351 -0.1899 -0.2912 -0.2088
39869W        W40733   2.489   8.715   4.223  0.1557  0.1143  0.1224
39870W        W40734  16.693  19.178  16.822 -0.4241 -0.1346  0.2542
39871W        W40735  12.534  23.018   3.352  0.4487 -0.1222  0.0291
39872W        W40736   8.673  15.018  19.832 -0.0922 -0.1458  0.2196
39873W        W40737  10.672  20.419  13.278 -0.1042  0.1699 -0.3622
39874W        W40738  19.447   1.482  23.810 -0.2831  0.0882  0.1565
39875W        W40739  27.042  18.155  25.152 -0.1386  0.0161 -0.1642
39876W        W40740  11.649  12.553   3.561 -0.1246  0.2198 -0.3138
39877W        W40741   4.763  22.915  22.256 -0.2607 -0.3360  0.2826
39878W        W40742   9.296  11.847  20.633  0.1814 -0.1071  0.1271
39879W        W40743   2.991   5.294  23.804  0.1060 -0.1853 -0.2538
39880W        W40744   9.845  19.672   1.934  0.2430 -0.1698  0.1741
39881W        W40745  16.386  18.747  28.100  0.0656 -0.1275  0.3565
39882W        W40746   0.654  23.203  18.896  0.1685 -0.0826  0.0973
39883W        W40747  14.382   9.249  26.727 -0.1278  0.0132 -0.3029
39884W        W40748  26.118  24.325  19.921 -0.0935 -0.1253 -0.0340
39885W        W40749  12.884   4.950  23.141 -0.0375 -0.0188  0.2732
39886W        W40750  26.587  20.954   4.084 -0.1522 -0.1142  0.2904
39887W        W40751  12.499  17.182   9.276  0.1769  0.3255  0.0421
39888W        W40752   5.209   3.478   7.111 -0.0707 -0.0080  0.0811
39889W        W40753  23.569  13.423  22.077 -0.0490 -0.0285  0.0879
39890W        W40754   3.217  19.744  26.001  0.0976 -0.1625 -0.0764
39891W        W40755   0.098  27.932  27.392 -0.1925 -0.2063 -0.4807
39892W        W40756  24.500   9.535  21.611 -0.2929 -0.0917  0.2081
39893W        W40757  23.278  11.889  20.497  0.1114  0.3101 -0.2850
39894W        W40758  13.695  18.110  17.194 -0.1124  0.4073  0.0854
39895W        W40759  11.769   9.961  26.676 -0.0631  0.0228 -0.2985
39896W        W40760  20.876  20.487  15.357  0.1509  0.0536  0.2605
39897W        W40761  15.649  11.882   1.333 -0.1117 -0.2190 -0.0966
39898W        W40762   0.703  18.166  19.458 -0.1377 -0.0779  0.0156
39899W        W40763  11.703  13.713  13.422  0.1577  0.1246 -0.4381
39900W        W40764  25.335  20.257   1.235 -0.0539 -0.0365  0.0415
39901W        W40765   1.597  11.051   3.272 -0.0017  0.3088  0.0046
39902W        W40766  21.961  19.893  15.602 -0.0260 -0.2012  0.0467
39903W        W40767   4.232   5.386  11.095 -0.1529  0.2600  0.1228
39904W        W40768  16.118  10.249   5.104  0.2039 -0.1356  0.0316
39905W        W40769  21.643   6.305   8.193  0.1777  0.0408 -0.3206
39906W        W40770  10.147   5.860  11.495  0.0695  0.0554 -0.3323
39907W        W40771  13.903   4.031  10.008  0.2221 -0.1437  0.0158
39908W        W40772   3.393   6.952  16.044  0.1968  0.0067  0.0050
39909W        W40773  25.010   0.824   0.343 -0.0622  0.0943 -0.1201
39910W        W40774  17.743  10.583   3.769  0.5103  0.0971  0.0128
39911W        W40775  14.565   6.600   6.311 -0.1591  0.0118  0.0689
39912W        W40776   2.588  25.745   5.591 -0.0247  0.0248 -0.2676
39913W        W40777  25.469  10.292  17.914 -0.2041  0.0187  0.4107
39914W        W40778   6.759  26.115  17.886 -0.0125 -0.1021  0.1201
39915W        W40779  14.307   3.373   0.578 -0.1005 -0.3028  0.0295
39916W        W40780   0.844  20.314  21.551  0.2782 -0.1574 -0.0685
39917W        W40781   3.357  15.969  18.626 -0.4293 -0.3775  0.0482
39918W        W40782   3.670  10.724   5.668 -0.3482 -0.3175  0.0675
39919W        W40783  12.229   5.070   7.871  0.0093 -0.0050 -0.1079
39920W        W40784   9.682  25.226   5.069 -0.1626  0.3105  0.0479
39921W        W40785   8.306  13.011  27.979 -0.0190 -0.0449 -0.0047
39922W        W40786  26.572  14.021   4.613 -0.1010  0.3303  0.5865
39923W        W40787   4.423  14.508  18.777 -0.0735 -0.3398 -0.1955
39924W        W40788   4.343  20.748  17.500 -0.0416 -0.1768 -0.1935
39925W        W40789   5.632  17.045   8.549  0.5030  0.1193 -0.1146
39926W        W40790  25.590  16.758  11.778  0.1903  0.1557  0.2417
39927W        W40791  22.928   3.987  16.320 -0.0799  0.1403  0.1379
39928W        W40792  22.624  20.728   7.816 -0.0233 -0.0228 -0.1052
39929W        W40793  25.578  20.728   1.132 -0.0313  0.1678 -0.0072
39930W        W40794  14.972  22.809   5.558  0.0775 -0.0350  0.0388
39931W        W40795   6.002  22.788  19.383  0.1954  0.0964 -0.1858
39932W        W40796  15.912  10.380   7.960 -0.1072 -0.0490 -0.1310
39933W        W40797   2.521  22.418   7.945  0.0156 -0.1898 -0.1324
39934W        W40798  14.911  25.652   4.586 -0.1467 -0.2066  0.1516
39935W        W40799  11.590  24.540   1.515 -0.2744 -0.2780 -0.1141
39936W        W40800   0.320  15.280   5.510  0.0497 -0.2328 -0.0052
39937W        W40801   3.032   2.620  11.504 -0.0244 -0.0245 -0.1889
39938W        W40802  10.862  19.423  11.686 -0.0956  0.0846  0.1241
39939W        W40803  19.232  24.136  15.157  0.0756  0.1292 -0.4887
39940W        W40804   4.860  20.184  27.897  0.1373 -0.2573 -0.1587
39941W        W40805  25.854  16.144  20.525 -0.0458 -0.0400  0.0920
39942W        W40806  20.721   9.784   8.459 -0.3483 -0.0078  0.2315
39943W        W40807  19.865  15.491  22.006  0.0381  0.1188  0.0392
39944W        W40808  23.760  15.872  23.114  0.1945  0.0264  0.1803
39945W        W40809   6.707  14.196   4.286 -0.0656 -0.0026 -0.2319
39946W        W40810   6.223  13.868   3.115 -0.2784  0.1380  0.0293
39947W        W40811  15.140  19.035  14.879  0.1778  0.0368 -0.1956
39948W        W40812  15.705  26.350  13.021  0.1015  0.0389  0.0568
39949W        W40813  14.771   1.377  10.087  0.1709  0.3058 -0.1388
39950W        W40814   8.288  15.864  24.271 -0.0398  0.1376 -0.2047
39951W        W40815   8.748  14.287   1.567 -0.2231  0.0951 -0.1543
39952W        W40816   2.261  29.090   1.315 -0.2674 -0.0217  0.1279
39953W        W40817  26.049   5.490   4.717 -0.0026  0.2239 -0.0359
39954W        W40818   5.500  12.525  23.261 -0.2106  0.1450  0.1141
39955W        W40819   1.668  20.118  12.507  0.1643 -0.0250 -0.1569
39956W        W40820   1.023  24.261   9.274 -0.0566  0.0938 -0.0015
39957W        W40821  18.292   9.655  14.273  0.2127  0.2695  0.1170
39958W        W40822   2.349  28.874  19.926  0.2522  0.0335 -0.0929
39959W        W40823  10.138  11.704  14.701  0.1670  0.3095 -0.1704
39960W        W40824   6.861  27.073  21.172 -0.0820  0.2358 -0.0835
39961W        W40825  27.374   0.116  19.634 -0.0355 -0.5850  0.0103
39962W        W40826  21.787  23.617  27.185  0.2504  0.4000  0.1509
39963W        W40827  27.077  14.892  13.176  0.0880 -0.0454  0.0096
39964W        W40828   7.314   1.686  13.643  0.1572 -0.2445 -0.2792
39965W        W40829  27.161  14.677   8.353 -0.1455 -0.1553 -0.1668
39966W        W40830  24.782  16.487  13.189  0.0881  0.3103  0.1937
39967W        W40831   5.622   7.158  18.223  0.1291 -0.0226  0.0218
39968W        W40832  22.660  11.834  20.566  0.2050  0.1882  0.1644
39969W        W40833  19.468  13.444  12.086 -0.1749 -0.1760 -0.2829
39970W        W40834  13.888  25.656   0.690 -0.4348  0.0876 -0.0558
39971W        W40835  28.579   8.440  13.991 -0.2550 -0.0104 -0.1455
39972W        W40836  14.725  15.869   7.141 -0.2331 -0.0825  0.1564
39973W        W40837   5.482  25.984   9.586 -0.0435 -0.1226  0.0243
39974W        W40838   6.874  20.217  24.749  0.0277 -0.0994  0.2170
39975W        W40839  16.132  16.093  10.219 -0.0360 -0.1114  0.0343
39976W        W40840  13.570   7.635  17.664  0.2646 -0.0004  0.5677
39977W        W40841   1.507  12.768   3.806  0.0942  0.1460 -0.1367
39978W        W40842  12.963  16.914  22.747 -0.2406  0.1508  0.1404
39979W        W40843  25.004  20.120   5.452  0.0788  0.0581 -0.1923
39980W        W40844   2.403  24.319   2.501  0.2651  0.3342  0.1460
39981W        W40845   6.991  10.930   2.798  0.0808 -0.3839  0.0903
39982W        W40846  15.735   7.817   5.272 -0.1067  0.1875 -0.2285
39983W        W40847  21.313  19.562   2.878 -0.1503  0.2298  0.0974
39984W        W40848  26.566  18.555   7.138 -0.2452  0.0825  0.0092
39985W        W40849   1.942  24.085  24.551  0.1379 -0.0998  0.0175
39986W        W40850   0.254  11.843  17.586 -0.1439 -0.1209 -0.3412
39987W        W40851   9.585  15.193  18.716  0.3668  0.2005  0.1602
39988W        W40852   7.845   3.420   1.686  0.1222  0.0154 -0.1273
39989W        W40853  13.006  17.257  10.268  0.1870  0.0283 -0.1496
39990W        W40854  13.452  23.161  21.036 -0.0482  0.1069  0.3893
39991W        W40855  12.185   0.037  13.912 -0.0216 -0.0313  0.1288
39992W        W40856   7.239  10.564  12.476  0.1770  0.1574  0.1717
39993W        W40857  27.328   3.932  12.179  0.0525 -0.0901 -0.2016
39994W        W40858   6.963  13.449  16.645  0.2589  0.0856 -0.0947
39995W        W40859  21.732  21.437  16.972  0.2065 -0.1294  0.2916
39996W        W40860   2.253   5.148   8.736  0.0528  0.2517  0.2185
39997W        W40861  20.726   4.998  20.456  0.2706  0.0160  0.0177
39998W        W40862  21.401  19.198  28.720 -0.0121 -0.0338 -0.1025
39999W        W40863  17.772   6.203   1.008  0.0741  0.1001 -0.0268
40000W        W40864   4.142  20.213  12.190  0.1855  0.0853 -0.0361
40001W        W40865   4.643  10.462  24.057  0.1129  0.0751  0.0022
40002W        W40866  16.717  19.665  13.758 -0.1175  0.2918  0.0067
40003W        W40867   2.281  14.439   8.110  0.2504  0.0078 -0.0358
40004W        W40868   5.600  17.065   6.958  0.1286  0.0421 -0.1648
40005W        W40869  25.203  23.339   5.721  0.0280  0.1258 -0.1902
40006W        W40870   3.114  14.707   7.518 -0.2116  0.0104 -0.0785
40007W        W40871  14.094  24.366   6.490 -0.1868  0.1314 -0.0044
40008W        W40872   4.884   1.893  19.587  0.1276  0.1847 -0.2199
40009W        W40873  26.363  21.469   9.105 -0.2265 -0.1730 -0.4288
40010W        W40874   6.291  24.458   6.765 -0.2267  0.0830 -0.0642
40011W        W40875  10.082  14.224  20.851 -0.0803  0.2047  0.0257
40012W        W40876  27.172  12.429  19.280  0.2080  0.2598  0.0563
40013W        W40877  26.161   7.057   5.567 -0.0081 -0.0699 -0.0723
40014W        W40878  16.470  25.227  12.845  0.0592 -0.2474  0.2192
40015W        W40879  20.770  12.626  24.637  0.0811  0.1476 -0.2847
40016W        W40880  14.042  17.020  19.453  0.0276  0.3949 -0.1637
40017W        W40881   8.133  18.212  28.021  0.2069  0.1997 -0.1985
40018W        W40882  24.837  20.045  20.309  0.2174 -0.0921 -0.2225
40019W        W40883  24.914   8.093  23.057 -0.0380 -0.1096  0.1664
40020W        W40884  19.015  13.047   8.356 -0.1973  0.1112  0.1216
40021W        W40885   5.157   8.193   5.724 -0.0735  0.2154 -0.1206
40022W        W40886  28.843   1.197  16.133 -0.0471  0.0659  0.2217
40023W        W40887  19.503  11.520  16.167  0.2263  0.2276 -0.0634
40024W        W40888  18.469  10.311   3.806  0.0520 -0.3287 -0.2172
40025W        W40889  13.697  21.880  24.842  0.0415 -0.0753  0.0234
40026W        W40890  23.757  11.759  13.476  0.2079 -0.1133 -0.0983
40027W        W40891  27.833  12.186  26.406  0.0805 -0.0453 -0.2998
40028W        W40892   9.729   8.932  19.315  0.0436 -0.4396  0.3569
40029W        W40893   8.046   6.052  20.086  0.3396  0.0770  0.1478
40030W        W40894  25.447   2.617  21.380 -0.1548  0.0235  0.0148
40031W        W40895   2.337  12.654  28.926 -0.1014  0.1756  0.1266
40032W        W40896  26.061  15.568   6.606  0.0098 -0.0554 -0.1423
40033W        W40897  16.666  25.598   8.493 -0.1950 -0.1339 -0.0960
40034W        W40898   9.305   0.016   1.820  0.2409  0.1979 -0.0243
40035W        W40899  25.450  23.668  17.811 -0.0463 -0.2698  0.1125
40036W        W40900  12.657   5.925  11.210  0.2194 -0.2518  0.0356
40037W        W40901  19.289  27.401  16.161  0.0091  0.2263  0.0940
40038W        W40902   4.832  26.589   5.250 -0.2501 -0.0471 -0.2581
40039W        W40903  25.553  17.966  14.153  0.0169  0.1046 -0.0026
40040W        W40904   6.557  25.950  12.400 -0.0195 -0.2395  0.0699
40041W        W40905   2.797   5.382   7.009 -0.0976 -0.1540 -0.1150
40042W        W40906  17.270  22.132   5.130  0.0117 -0.1550 -0.1457
40043W        W40907  17.437  14.668  22.661  0.0363 -0.4294  0.0552
40044W        W40908  25.480  11.489  13.682  0.3134  0.1099 -0.0279
40045W        W40909   5.447  11.515  11.804  0.1648  0.2273 -0.0788
40046W        W40910   3.953  20.884  21.530  0.0029 -0.1954  0.2812
40047W        W40911   4.298  26.497  20.808 -0.1499 -0.2239  0.0086
40048W        W40912   6.076  18.622  26.385  0.4601 -0.0560  0.2746
40049W        W40913   0.428  14.421   8.581 -0.2228  0.0909 -0.0884
40050W        W40914  14.862   0.531  19.526  0.1464 -0.1970  0.0957
40051W        W40915   4.162  23.776  13.276  0.2379  0.3599 -0.0939
40052W        W40916  24.845  12.914   4.763 -0.0894  0.2811 -0.3051
40053W        W40917   5.623   2.509   9.324 -0.1422  0.0245  0.5264
40054W        W40918   9.673  17.057  25.056 -0.0254  0.0398  0.1299
40055W        W40919   6.780  28.757  10.350 -0.0973 -0.1400  0.1324
40056W        W40920  17.521  15.269  26.153  0.0986  0.0742  0.0751
40057W        W40921  25.850   5.769   0.262  0.1121 -0.1565 -0.1278
40058W        W40922  18.914  25.790  19.531  0.0803 -0.3379  0.0225
40059W        W40923   3.048   5.081  21.397  0.2629  0.2579 -0.2399
40060W        W40924   9.193  26.177  21.930 -0.2060 -0.3570  0.0956
40061W        W40925   8.662   5.052  14.859  0.2687 -0.0102  0.0570
40062W        W40926  24.816  15.250  10.749 -0.2654  0.0245 -0.0576
40063W        W40927  19.444   8.541   6.719  0.1198  0.0937  0.0903
40064W        W40928   7.367  23.592  13.809  0.1203  0.1127  0.2963
40065W        W40929   5.695   5.557  28.649  0.1706  0.2726 -0.0365
40066W        W40930  16.086  10.965  22.571  0.1929 -0.1011  0.2157
40067W        W40931  16.956  13.115  10.975  0.0169 -0.0438 -0.1576
40068W        W40932  13.235  16.147  17.198  0.1099 -0.0517 -0.1979
40069W        W40933   4.992  15.907  17.235 -0.1118 -0.1198 -0.1072
40070W        W40934  27.218  13.626   5.858  0.0287 -0.0265  0.0236
40071W        W40935  28.668  14.925   4.251  0.3406 -0.2821 -0.1916
40072W        W40936  22.940  25.312  24.843 -0.0959 -0.0196 -0.1617
40073W        W40937  19.449  17.461  25.127 -0.0947 -0.0077 -0.1789
40074W        W40938  20.633   5.865  15.612 -0.1176 -0.2430 -0.0287
40075W        W40939  13.263  14.094  19.821  0.1934 -0.1681  0.1678
40076W        W40940   4.377  22.215  10.042  0.1375  0.0130  0.0069
40077W        W40941   0.272  23.631   2.930  0.2884  0.0882 -0.0590
40078W        W40942  26.375  19.490   8.342 -0.2019  0.1482 -0.0450
40079W        W40943  17.735   6.108   3.771  0.0777  0.3214  0.0679
40080W        W40944   6.346  13.565  12.866 -0.0111  0.1334  0.0979
40081W        W40945  21.700   4.837   7.027 -0.2005  0.0383 -0.1303
40082W        W40946   2.538  18.869  10.493 -0.0936 -0.0778  0.0161
40083W        W40947   6.415  11.659   2.246  0.0175  0.3911 -0.1855
40084W        W40948   3.230   9.487  11.855 -0.3165  0.2181  0.0149
40085W        W40949  13.518  26.274  22.482 -0.0670  0.4161 -0.1944
40086W        W40950  23.387  12.611  14.000  0.2496  0.0129  0.0352
40087W        W40951  26.966  17.476   8.480 -0.0267  0.0203 -0.0956
40088W        W40952  14.190  13.773   7.103  0.1856 -0.0911 -0.1939
40089W        W40953   3.529   3.773   4.530 -0.2153  0.2966 -0.0774
40090W        W40954  10.000  28.387   8.555  0.2091  0.0446  0.1224
40091W        W40955   8.624  16.985  23.697 -0.2569  0.0006 -0.1523
40092W        W40956   6.833  14.295  18.114 -0.1190 -0.1355 -0.1854
40093W        W40957  22.330  22.961  15.489 -0.1847 -0.1581 -0.2669
40094W        W40958  21.721  14.248  12.922  0.2515  0.2166  0.0218
40095W        W40959   5.828   1.741  16.829 -0.3883  0.1270 -0.0588
40096W        W40960  28.044   4.875  13.439  0.0540 -0.0472 -0.2294
40097W        W40961  27.020  17.201  19.329 -0.3683 -0.3953  0.1039
40098W        W40962  23.256   1.930  13.379  0.2385 -0.1506 -0.2144
40099W        W40963  10.613   4.387   7.530  0.2136  0.1760  0.0546
40100W        W40964   8.032  10.867   5.308 -0.0387 -0.1416 -0.0035
40101W        W40965  14.999  14.077  15.212 -0.1538  0.1974 -0.3175
40102W        W40966   1.277  25.363   6.173 -0.2761  0.2495 -0.1485
40103W        W40967  26.735   9.500  22.798 -0.3159 -0.1378 -0.1974
40104W        W40968  22.637   2.729  20.029  0.1106  0.3470 -0.1858
40105W        W40969  14.560   3.443  19.894  0.1087  0.2597  0.2942
40106W        W40970  25.309  19.290   7.731  0.1808 -0.2062  0.0914
40107W        W40971   3.301   6.613  25.441 -0.1081  0.3185 -0.2593
40108W        W40972   9.957  23.884  22.216  0.2883 -0.0115  0.0704
40109W        W40973  23.567  28.624  26.774 -0.1948 -0.1262  0.5850
40110W        W40974  14.896   2.322  13.728 -0.3140  0.3566 -0.3483
40111W        W40975  15.629   4.270   4.591 -0.0064  0.1804  0.4396
40112W        W40976  11.274  16.934   1.584 -0.0255 -0.0522  0.1053
40113W        W40977  24.427   5.098   9.644 -0.0721 -0.2979  0.1195
40114W        W40978   5.489   3.306  14.341  0.1261  0.2139 -0.2277
40115W        W40979  20.367   8.539   5.590  0.1905  0.1591  0.1900
40116W        W40980   2.623   0.597  10.248 -0.2720  0.1334  0.0735
40117W        W40981  22.697  26.036  23.566 -0.0532  0.2334  0.0832
40118W        W40982  11.996  16.154  17.775 -0.0858 -0.2156 -0.1822
40119W        W40983   7.302  27.488   0.391 -0.0582 -0.1340 -0.0801
40120W        W40984   0.993  15.649   3.204  0.0132  0.1256  0.0179
40121W        W40985   9.908  12.438  25.354 -0.1360  0.0413  0.1338
40122W        W40986   6.589  14.710   4.133 -0.2179  0.0867  0.2572
40123W        W40987  21.388  21.039  16.059 -0.0521 -0.0361 -0.1865
40124W        W40988   4.656   6.506  11.236  0.1769 -0.0401  0.1686
40125W        W40989  10.337  21.486  10.633  0.0132  0.1522  0.2246
40126W        W40990  22.286  17.962   7.560  0.0359  0.2649  0.2371
40127W        W40991  13.443   4.969  12.998  0.4807  0.1683 -0.0534
40128W        W40992  11.384  17.001  26.388  0.1900 -0.4542  0.3030
40129W        W40993  27.754  24.132  14.637 -0.0754 -0.1392  0.4456
40130W        W40994  20.864  20.963   4.802  0.1290 -0.1008  0.2129
40131W        W40995  24.828  24.880  13.023  0.0885  0.0041 -0.2331
40132W        W40996  28.339  17.515   6.603 -0.1898 -0.0283 -0.1297
40133W        W40997  23.306  27.541  11.387 -0.0203 -0.1270 -0.2825
40134W        W40998   3.095   8.180  16.050  0.2026 -0.0256 -0.0641
40135W        W40999   2.752  12.211  23.173 -0.0392  0.1285 -0.0841
40136W        W41000  14.904   5.887  20.455  0.1346 -0.3088 -0.0076
40137W        W41001   7.323  13.941  27.957  0.2944  0.3369  0.1349
40138W        W41002  20.253  21.357  13.809  0.3739 -0.2332 -0.1826
40139W        W41003  19.950  10.364   7.566  0.2337  0.1186 -0.0712
40140W        W41004  10.814  26.851   1.969  0.3617  0.2268  0.0804
40141W        W41005  17.197  26.976   6.555 -0.2697 -0.2229 -0.1170
40142W        W41006  14.983  16.092  27.548 -0.0527 -0.0907  0.0340
40143W        W41007   2.873  17.264   3.755 -0.1544  0.0402  0.0883
40144W        W41008   4.624  26.393  16.175  0.2129 -0.0807  0.2235
40145W        W41009  10.584   9.667  14.106  0.0084 -0.2420 -0.1678
40146W        W41010  10.083  20.810   5.004 -0.3236 -0.1547 -0.1270
40147W        W41011   7.461  21.207  11.001 -0.0114  0.1761  0.0175
40148W        W41012  21.348   7.327  12.889 -0.3683  0.0564 -0.0520
40149W        W41013  25.309  13.595  25.699 -0.1246 -0.2117 -0.0116
40150W        W41014   5.650  10.856   7.210 -0.0535  0.0494  0.2329
40151W        W41015  14.662  28.725  28.654 -0.1552 -0.0788 -0.2093
40152W        W41016  28.914  21.598  15.987  0.0121 -0.0314 -0.0069
40153W        W41017  18.085   4.426   7.864 -0.0812  0.1244  0.1814
40154W        W41018  10.193  25.570   6.486  0.0663  0.0369 -0.2756
40155W        W41019   7.412  20.243  14.929 -0.0316  0.0539 -0.1658
40156W        W41020  10.886  10.705  15.838  0.2565  0.0809 -0.1884
40157W        W41021   7.193  19.224  28.839  0.0443  0.3420  0.0879
40158W        W41022  26.270  17.563  16.571 -0.1468 -0.1186  0.0176
40159W        W41023  14.403  22.866  12.393  0.0456 -0.0186  0.1929
40160W        W41024  19.712   5.091  19.351  0.0212  0.0877 -0.0720
40161W        W41025  25.884  14.016   6.312  0.1121 -0.4222  0.0223
40162W        W41026  23.509   6.990  16.038 -0.3238 -0.1187  0.3078
40163W        W41027  19.456  21.445  22.692  0.0743  0.1232 -0.1166
40164W        W41028  24.934   6.293  27.326 -0.0481  0.0521 -0.2115
40165W        W41029  26.927  26.252  14.101 -0.2869 -0.1217  0.3616
40166W        W41030  13.760  22.226  18.372 -0.0458  0.2028  0.0244
40167W        W41031  22.042  13.578  16.202  0.3484  0.1716 -0.0340
40168W        W41032  11.325   2.193  26.570  0.3307  0.0685  0.5022
40169W        W41033   1.077   1.843  12.477  0.0416 -0.1411 -0.0501
40170W        W41034   7.993   3.765  24.189  0.1773 -0.1207 -0.1870
40171W        W41035  25.613  27.391  25.535 -0.5480  0.2733  0.0045
40172W        W41036  21.172  17.896  17.842 -0.1300 -0.2665  0.0003
40173W        W41037  24.417  22.614   5.789  0.1116 -0.0334  0.0150
40174W        W41038  22.096  17.655   0.920  0.0514 -0.4241 -0.1065
40175W        W41039   7.042  10.019  25.252  0.2044  0.2507  0.2421
40176W        W41040   5.077  12.000   1.697  0.0495 -0.2356  0.0624
40177W        W41041  21.280  10.229  20.309  0.0939 -0.3901 -0.0642
40178W        W41042   8.927   9.829  19.009 -0.3313  0.0039  0.0295
40179W        W41043   8.898  25.729  14.911  0.0927 -0.1078  0.3421
40180W        W41044  10.914   8.893   3.902 -0.1077 -0.0462 -0.1637
40181W        W41045  27.023   4.814  16.069 -0.0942 -0.3376 -0.2095
40182W        W41046  16.400  13.604  14.258  0.1843  0.1853  0.4325
40183W        W41047  16.243   8.636  20.651 -0.2501  0.1375 -0.0990
40184W        W41048   1.984  12.222  13.467 -0.0857 -0.0452 -0.2289
40185W        W41049   7.808   5.919  28.172  0.0925 -0.0598  0.2997
40186W        W41050  18.073   8.669  11.536  0.1264  0.1853  0.0570
40187W        W41051  25.788  26.142   3.285 -0.0821  0.1226 -0.1485
40188W        W41052  22.819  17.523  21.802  0.0577  0.0773  0.5646
40189W        W41053  18.195  21.765  12.929  0.1089  0.0478  0.4330
40190W        W41054  12.842  23.842   1.730 -0.2593 -0.1504 -0.2604
40191W        W41055  11.283  12.264  23.354  0.4075  0.0066  0.1986
40192W        W41056  23.613  13.300   5.333 -0.0404  0.2381 -0.0655
40193W        W41057  28.431  23.067  19.671  0.0902 -0.1274 -0.3363
40194W        W41058  13.595   6.236   3.478  0.2035 -0.1004  0.2386
40195W        W41059  25.452  27.284  13.565 -0.1198 -0.0525  0.3535
40196W        W41060  14.236   6.777  20.689  0.1967 -0.2077  0.0970
40197W        W41061   4.796  14.187  22.766  0.2523  0.1086  0.1491
40198W        W41062   6.432  20.254  26.609  0.1883 -0.0311 -0.2179
40199W        W41063  20.303  26.180   9.510 -0.1081  0.1388  0.0265
40200W        W41064  29.052  18.718   2.201 -0.1466  0.0056 -0.1242
40201W        W41065  10.073  16.211  23.652 -0.0912  0.1779 -0.1632
40202W        W41066  27.291  15.646  13.712  0.4228  0.2598 -0.0828
40203W        W41067   3.672  10.246  19.615  0.0780 -0.0885  0.1502
40204W        W41068   4.549  28.326  10.579 -0.2848 -0.1829  0.0504
40205W        W41069  27.244   3.970  21.393  0.0270 -0.1072 -0.1107
40206W        W41070  14.823  22.202  23.952 -0.3694  0.1885  0.2712
40207W        W41071   4.679   9.586  14.382  0.3613 -0.2945 -0.5203
40208W        W41072   5.492  21.508  19.322  0.1422 -0.0058  0.3434
40209W        W41073   2.132   0.865  23.074 -0.4861 -0.3595 -0.0282
40210W        W41074  14.855  27.670  15.460  0.0943 -0.0277 -0.0648
40211W        W41075   0.070   7.181  17.120  0.1995 -0.2276 -0.0200
40212W        W41076  15.844  28.043   0.714 -0.0217 -0.2376 -0.1909
40213W        W41077   8.390  21.900  23.348 -0.1095  0.1277  0.1602
40214W        W41078  26.811  15.062  19.357 -0.0085  0.0235  0.1321
40215W        W41079   1.001  22.245  16.411  0.0717  0.0543  0.2080
40216W        W41080   6.814  23.711  25.047 -0.2078  0.0601 -0.1739
40217W        W41081   6.036   9.528  12.509 -0.1461  0.3201 -0.0450
40218W        W41082   4.074  12.809   6.954 -0.0226  0.0850  0.0800
40219W        W41083  21.471  21.375  25.774 -0.1966 -0.0258 -0.0422
40220W        W41084   9.585  20.582  28.430  0.1713 -0.0670 -0.2751
40221W        W41085   8.609   4.635  13.287  0.1120  0.1921  0.1860
40222W        W41086  28.597  11.039   7.882 -0.1522  0.2081 -0.3413
40223W        W41087   2.242  16.394  16.971 -0.0729 -0.0423  0.1286
40224W        W41088   0.841  22.965   7.573 -0.2749  0.0754  0.3046
40225W        W41089  21.253  21.093   6.373  0.0227  0.1406  0.0082
40226W        W41090  15.384  19.841   7.667 -0.1360 -0.2156 -0.0940
40227W        W41091   1.760   8.002  18.752 -0.3454 -0.0074  0.0285
40228W        W41092   5.251  28.697  17.993  0.0103  0.1307 -0.0531
40229W        W41093  26.980  12.285   9.012  0.0173  0.1046  0.0679
40230W        W41094   6.296  22.863  14.917  0.1823 -0.2772  0.1834
40231W        W41095  26.510  27.642  15.380 -0.0516 -0.0445  0.1257
40232W        W41096  17.470  10.247  16.111  0.0441 -0.0490 -0.1010
40233W        W41097  26.657  14.949  26.880  0.1778 -0.2686  0.1280
40234W        W41098  17.286  19.771  16.432 -0.0650 -0.1112 -0.0982
40235W        W41099   3.326  26.100  19.384  0.0728  0.2583  0.1570
40236W        W41100  21.044  13.446   2.357  0.4080  0.2231  0.0060
40237W        W41101  12.160   1.828   4.473 -0.0146  0.1682 -0.6004
40238W        W41102  10.745   9.397   2.097 -0.2675 -0.0142  0.3416
40239W        W41103   9.030  26.673  12.948 -0.0526 -0.2565 -0.1388
40240W        W41104  27.783  17.218   7.787  0.2352  0.1489 -0.3329
40241W        W41105  18.143  12.171  27.434  0.1364  0.1209 -0.2608
40242W        W41106  22.052  23.498  13.259  0.1766 -0.0622  0.2512
40243W        W41107   9.162  15.487  11.308  0.1027 -0.4150 -0.0802
40244W        W41108   9.313  15.359  16.251  0.1955  0.4090  0.0953
40245W        W41109   4.984   7.791  21.968 -0.0676  0.1484 -0.0848
40246W        W41110  12.989  16.407  14.429  0.0053 -0.2016 -0.3184
40247W        W41111   5.693  14.586  12.059  0.0159  0.0949 -0.1675
40248W        W41112   8.125  20.145   9.556 -0.3579  0.3331  0.1008
40249W        W41113   9.198   7.885  27.773 -0.3263  0.1165 -0.1657
40250W        W41114  20.298   7.522  23.747  0.1807  0.1392  0.0054
40251W        W41115  21.817  24.944  21.962  0.1459  0.0893  0.0312
40252W        W41116   1.210   8.565  17.187 -0.1052  0.2259 -0.0918
40253W        W41117   7.416  18.985  19.879 -0.2761  0.2244  0.0076
40254W        W41118  14.358  12.366  23.432 -0.0185 -0.0719 -0.3532
40255W        W41119  20.367  12.795   1.822  0.0590 -0.2629 -0.0564
40256W        W41120  10.099   5.373  20.772  0.0581 -0.0219 -0.1850
40257W        W41121   8.253  15.948   4.277 -0.0324 -0.1297 -0.0411
40258W        W41122  14.102  22.257   4.305 -0.0941  0.3005 -0.0253
40259W        W41123  23.770  25.804  18.133 -0.3093  0.0722  0.0621
40260W        W41124  10.455   0.407  21.720  0.2681 -0.6713 -0.0126
40261W        W41125  25.792  20.459  11.107  0.2717 -0.2570 -0.2099
40262W        W41126  13.308  24.240   5.224  0.0897 -0.0544 -0.2629
40263W        W41127   7.906   9.563  17.662 -0.1151 -0.0366 -0.1055
40264W        W41128   0.722   8.641  14.316 -0.0179 -0.1741  0.2868
40265W        W41129   7.254  15.233   3.885 -0.1530 -0.2455  0.1432
40266W        W41130  11.204   8.046  21.568 -0.2827 -0.0011 -0.0535
40267W        W41131   2.400  21.577  18.164  0.0491  0.0620 -0.0888
40268W        W41132  12.802   2.031   3.287  0.3655  0.1795  0.0159
40269W        W41133  25.099  15.081  26.445  0.0177 -0.1688 -0.4198
40270W        W41134  27.041  18.821  21.897 -0.2232 -0.0886 -0.1088
40271W        W41135  15.994   6.438   9.263 -0.1264  0.0203  0.3027
40272W        W41136  28.939  26.297  22.026  0.0058 -0.0759  0.1828
40273W        W41137  26.482   3.803  22.510  0.0702 -0.1247 -0.1967
40274W        W41138  29.041  22.398  23.891 -0.2184  0.1350  0.2197
40275W        W41139   6.369  22.477  21.783  0.0847 -0.0572  0.2732
40276W        W41140   3.547  26.840   6.404 -0.0912  0.2985  0.1118
40277W        W41141  28.929  13.249  10.408 -0.1290 -0.1993  0.0353
40278W        W41142  25.198  17.362  28.261  0.3811  0.1416  0.1202
40279W        W41143  19.121  23.060   9.382  0.3347 -0.1592  0.0808
40280W        W41144  16.391  21.300   7.137  0.0180  0.0117 -0.0322
40281W        W41145   0.229   3.983   9.918 -0.1649 -0.0745 -0.2807
40282W        W41146  16.035  27.189  19.737  0.2491  0.2622 -0.2650
40283W        W41147  26.255  11.642  28.214  0.0452 -0.2089 -0.2030
40284W        W41148  15.277  14.264   0.549  0.1307  0.2470 -0.0499
40285W        W41149   0.437  20.205   0.346  0.1247  0.0725  0.4768
40286W        W41150  17.613  11.713  23.656  0.0351 -0.0000  0.1436
40287W        W41151  10.541   8.901   0.185 -0.1452  0.0643 -0.0200
40288W        W41152   8.986   6.295  15.494  0.0221  0.2727 -0.0807
40289W        W41153  12.062  12.226   9.089  0.1789  0.3727  0.1276
40290W        W41154  17.697  16.306  18.589  0.1532  0.2719  0.1368
40291W        W41155  14.663   6.180  25.622 -0.1673 -0.0843  0.0766
40292W        W41156   7.715  14.945   2.035  0.3008  0.0919  0.0764
40293W        W41157   8.962  19.055  11.424 -0.0326  0.1587  0.2226
40294W        W41158   3.759   6.142  17.907 -0.2470  0.0267 -0.1145
40295W        W41159   6.856  22.886   7.202 -0.0048  0.2274  0.2171
40296W        W41160  27.363  21.212   6.121  0.1766  0.0891 -0.1747
40297W        W41161  27.247   9.891   8.919  0.0702  0.0609 -0.1187
40298W        W41162   7.706  18.964   7.193 -0.0277  0.0139 -0.1461
40299W        W41163  17.858   3.013  20.268 -0.2007  0.0461 -0.0576
40300W        W41164   6.914  26.130  21.582 -0.2154  0.2058  0.2614
40301W        W41165  13.895  20.297  27.880 -0.2900  0.0218  0.0812
40302W        W41166  12.401   3.628   7.660  0.1061 -0.1161 -0.2255
40303W        W41167  22.782   6.496  18.045 -0.1047 -0.2756  0.1838
40304W        W41168   5.211  16.414  18.037  0.2099  0.0125 -0.3485
40305W        W41169   9.147   4.987  25.621 -0.0177  0.1039  0.1548
40306W        W41170  13.654  18.509  28.064  0.2533  0.1536  0.1580
40307W        W41171  25.317  15.041   7.423 -0.2985  0.2247 -0.0706
40308W        W41172   5.010   8.803  22.559 -0.3748 -0.0522  0.0102
40309W        W41173   7.062   3.840  20.755  0.1925  0.2141 -0.1241
40310W        W41174   7.200   5.381   3.496 -0.1295  0.1138  0.1688
40311W        W41175   5.822   4.007  28.075  0.1351 -0.1671 -0.0006
40312W        W41176  25.095  13.091  17.040 -0.0689 -0.2795 -0.0594
40313W        W41177  14.625  24.236   0.155  0.0158  0.2756 -0.0532
40314W        W41178  11.176  17.085  15.098 -0.2065 -0.0941  0.3681
40315W        W41179  14.104   2.741  28.785 -0.0367 -0.0124 -0.1245
40316W        W41180  21.454  16.340   4.498  0.1445  0.2104  0.0970
40317W        W41181  20.977  15.361  17.256 -0.1391  0.1575 -0.0452
40318W        W41182   3.153  28.769  16.029 -0.1860 -0.0498 -0.1731
40319W        W41183   5.721   8.610  26.561  0.2186 -0.1433  0.0035
40320W        W41184  20.436  19.028  14.871  0.0286  0.1153 -0.0704
40321W        W41185  14.356  22.148   7.454  0.2099  0.0075 -0.1661
40322W        W41186  23.696   5.303  17.716 -0.3532  0.1304 -0.1144
40323W        W41187   3.956   0.504  10.204 -0.1162  0.0059  0.0720
40324W        W41188   7.353   0.409  15.813 -0.0326 -0.1100  0.3297
40325W        W41189  11.960   7.578  27.129 -0.0433  0.0498  0.1385
40326W        W41190   4.378   4.972  24.115  0.0737  0.0012 -0.1950
40327W        W41191   1.060  16.604   0.065  0.1233  0.0863 -0.1756
40328W        W41192  14.564   5.042  21.508  0.1038  0.2414  0.1025
40329W        W41193   9.629  16.567  25.260  0.3308 -0.0473 -0.2327
40330W        W41194   9.821  11.485  21.787  0.2637  0.1095 -0.0990
40331W        W41195  16.439   4.574  18.264 -0.2395  0.2376 -0.0287
40332W        W41196  19.006  10.651  14.001 -0.0802  0.1550 -0.0885
40333W        W41197   2.053   8.595  17.872 -0.4668  0.3722 -0.0649
40334W        W41198  28.685  22.634  24.219 -0.4336 -0.1559 -0.0168
40335W        W41199  14.294   3.012   3.319  0.2183 -0.2134  0.0590
40336W        W41200   9.030  25.226  28.233  0.4019  0.1826 -0.1525
40337W        W41201   5.463  13.363   9.262 -0.0089 -0.1677  0.0696
40338W        W41202  22.469  14.766  19.854 -0.0606 -0.2968 -0.0528
40339W        W41203   3.403   2.799  17.550 -0.2520 -0.1219  0.0341
40340W        W41204   1.664  15.133  21.047  0.1270 -0.0247  0.0311
40341W        W41205   1.996  10.306  17.431  0.2305  0.2805 -0.2235
40342W        W41206  22.216  22.748   7.941  0.0666 -0.0557  0.0006
40343W        W41207  14.656  26.177  28.500 -0.0547  0.1720  0.1567
40344W        W41208   4.348  18.154  10.775 -0.2042 -0.1524  0.2670
40345W        W41209  17.858  19.041  24.260  0.1891 -0.2929 -0.0915
40346W        W41210   5.860  19.351  11.641 -0.0006 -0.1465 -0.0456
40347W        W41211  21.429  12.130  13.487 -0.3185 -0.0525  0.0920
40348W        W41212  28.707  27.409   8.388 -0.0977  0.0576 -0.1693
40349W        W41213  17.336  15.126  21.116 -0.0155  0.0188  0.0638
40350W        W41214   1.955   9.092   1.892  0.1931 -0.1951 -0.3262
40351W        W41215  25.099  20.520  19.724  0.1721  0.0483 -0.2752
40352W        W41216   9.126  20.590   3.616 -0.1448 -0.1930  0.0304
40353W        W41217   3.444  17.618  19.316 -0.2182  0.1364  0.0303
40354W        W41218   2.246   8.544  15.135 -0.1017 -0.0912 -0.1020
40355W        W41219   3.091  20.347  17.675 -0.1926 -0.1587  0.4895
40356W        W41220  15.880   6.293   6.943  0.1561  0.1748 -0.0014
40357W        W41221  10.187  22.325  17.386 -0.0566  0.4524  0.6177
40358W        W41222   5.592   1.042  28.289  0.3124 -0.0708  0.5786
40359W        W41223  14.612  25.641  14.468  0.2106  0.0455 -0.0038
40360W        W41224   6.778  24.752  13.793 -0.0938  0.0742  0.1000
40361W        W41225   8.822  15.955  22.757  0.0151 -0.3781  0.3578
40362W        W41226  24.016   5.965  23.539 -0.0661 -0.1086  0.0454
40363W        W41227   6.935  15.881  26.133 -0.0510  0.0135 -0.1555
40364W        W41228   2.208   2.973  12.565 -0.1548  0.1427  0.2941
40365W        W41229  22.556  21.461  27.761  0.0028  0.1211 -0.1834
40366W        W41230  24.751  15.893  27.973 -0.3409 -0.1165 -0.3046
40367W        W41231   0.644  22.732   4.587  0.3151  0.0664  0.0691
40368W        W41232  26.934   5.695  10.454 -0.1879  0.1794 -0.1047
40369W        W41233   1.718  14.734  23.934  0.1590 -0.1567 -0.1947
40370W        W41234  28.218  17.741  19.959 -0.0697  0.0454 -0.0674
40371W        W41235  28.516  11.407   4.278  0.2372 -0.2720  0.0649
40372W        W41236  29.022  25.928  19.471  0.3561  0.1195  0.0976
40373W        W41237   8.620  14.306   4.812 -0.2597 -0.2608  0.1640
40374W        W41238  18.302  11.154  18.022 -0.1597 -0.0895  0.1977
40375W        W41239  19.003  28.627  27.511  0.1791 -0.2120 -0.0072
40376W        W41240  25.353   4.085   8.195 -0.1695 -0.0377 -0.1072
40377W        W41241   7.729  16.900  10.386  0.2055 -0.0050 -0.2257
40378W        W41242  23.210  26.992  20.425 -0.0814  0.1288  0.1997
40379W        W41243   5.402  11.939  14.121  0.0506 -0.0367  0.2125
40380W        W41244  19.738  26.953  19.887 -0.1036  0.1147  0.0880
40381W        W41245   6.257  18.195  17.049  0.1894  0.0334  0.0187
40382W        W41246   7.113  14.217  17.279 -0.0810 -0.0216  0.0049
40383W        W41247   2.245   8.495   6.937 -0.0682 -0.2158 -0.0305
40384W        W41248   6.390  24.821  17.174 -0.0056 -0.1205  0.1741
40385W        W41249  15.292   0.028  13.127  0.0797  0.0928 -0.0687
40386W        W41250  25.524   5.768   1.773 -0.2281 -0.2640 -0.1961
40387W        W41251  24.530  18.472  26.402  0.2169  0.1597  0.2462
40388W        W41252  22.914  10.463   2.997  0.1115 -0.2470  0.0564
40389W        W41253  11.178  21.019  14.881 -0.0316 -0.2834  0.5476
40390W        W41254   4.040   3.887   5.411  0.1111 -0.0424 -0.0709
40391W        W41255   8.524   4.301  23.340 -0.1932  0.1426 -0.0652
40392W        W41256  29.020   3.435   8.392 -0.1019 -0.0568  0.2005
40393W        W41257  11.490   3.377  26.268  0.1908  0.0844 -0.2747
40394W        W41258   5.981   5.034  17.405 -0.1577  0.2339 -0.1643
40395W        W41259  24.280  27.914   7.550 -0.0265 -0.2547 -0.1090
40396W        W41260  11.548   7.095  14.667  0.3062 -0.0116 -0.0212
40397W        W41261  24.865  24.080  20.285  0.0209  0.0679 -0.1201
40398W        W41262   3.093  12.213  14.602  0.0453 -0.1138 -0.0254
40399W        W41263   0.723   6.104  20.068  0.2242 -0.1355 -0.5332
40400W        W41264  24.779   0.995  20.764 -0.0906  0.0841 -0.3863
40401W        W41265   9.852  22.698  25.985  0.1583 -0.0463 -0.2356
40402W        W41266  17.566  28.273  10.632  0.3578 -0.1124  0.1611
40403W        W41267   8.856  10.786  24.808  0.0036 -0.1421 -0.1736
40404W        W41268  16.067  27.483   7.470  0.0056 -0.2880  0.1077
40405W        W41269  26.419  11.303  23.337 -0.3048  0.3751 -0.1805
40406W        W41270  26.730  21.741  11.859 -0.2013  0.1378 -0.0205
40407W        W41271   5.407  22.278   5.135 -0.0134 -0.0326 -0.1781
40408W        W41272  10.763  24.989  27.749 -0.1689  0.0209  0.0126
40409W        W41273  21.267  18.077  12.496 -0.0341  0.1884 -0.0112
40410W        W41274   5.505  17.989  17.166 -0.1201 -0.1064  0.1140
40411W        W41275   5.027  20.669  18.278  0.2589  0.0136  0.2187
40412W        W41276   6.991   2.630  11.741 -0.0913  0.0600 -0.0939
40413W        W41277  28.896  21.247  23.565 -0.3431 -0.1649  0.2692
40414W        W41278  20.904  23.723   8.300 -0.1223  0.0765 -0.2206
40415W        W41279  23.847   3.323   8.677  0.3656  0.0771 -0.1702
40416W        W41280   5.276  19.796  11.567 -0.0801 -0.2109 -0.1038
40417W        W41281  11.286  10.738  17.450 -0.0701  0.1309 -0.0833
40418W        W41282  12.474  18.980  14.229 -0.0026 -0.1509 -0.0807
40419W        W41283  18.798  12.989  25.117  0.2939  0.1552  0.4271
40420W        W41284   1.043  26.722   3.263  0.0286  0.2729  0.0368
40421W        W41285   9.217  16.373  12.559 -0.0043 -0.0897 -0.0465
40422W        W41286   2.070  26.070  13.397  0.4883  0.0672  0.5460
40423W        W41287  12.366  15.370  19.942  0.0681 -0.1192 -0.1206
40424W        W41288  12.725   9.268  26.218  0.2060  0.1363 -0.0206
40425W        W41289  13.397  10.915  29.125  0.1063 -0.0694 -0.3383
40426W        W41290   0.120  16.486  16.404 -0.0890 -0.2494 -0.1050
40427W        W41291   6.828  15.695  26.585  0.0758 -0.0408 -0.2067
40428W        W41292  10.839  14.957   4.691 -0.3233 -0.1466 -0.0287
40429W        W41293   0.616  16.197  10.974 -0.0224  0.1029 -0.0025
40430W        W41294  26.226   6.435  18.019  0.1067 -0.0669 -0.3227
40431W        W41295  13.757  23.627  10.755  0.0634  0.3208 -0.5006
40432W        W41296  23.357  28.956  20.469 -0.0498  0.0017 -0.0237
40433W        W41297  14.911  15.424  18.524 -0.0829 -0.1098  0.1792
40434W        W41298   7.608   7.045  12.166 -0.0276  0.0451 -0.0236
40435W        W41299  10.543  18.614  25.144  0.0881  0.0931 -0.0345
40436W        W41300  28.079   0.858  18.856 -0.2181  0.0066 -0.1454
40437W        W41301   9.686  13.860   4.028 -0.1601  0.1345  0.2242
40438W        W41302   1.875  22.384   1.402 -0.1164 -0.0981 -0.0744
40439W        W41303  11.195   0.110   1.897 -0.3552 -0.0412 -0.0412
40440W        W41304  14.746  14.938   7.875 -0.1151  0.0498 -0.2708
40441W        W41305  19.261   7.422  16.712 -0.4188  0.0483 -0.1035
40442W        W41306   5.026  29.127  10.863  0.1421 -0.4131  0.0418
40443W        W41307   5.732   4.910  12.066 -0.1460 -0.0573 -0.1249
40444W        W41308  13.471  15.418  21.403  0.2068  0.1220 -0.0237
40445W        W41309  13.728   1.383  25.638  0.2472 -0.0388 -0.3540
40446W        W41310  20.144   4.188   8.494  0.2007 -0.0568 -0.2695
40447W        W41311  22.554   5.148  23.884  0.0294  0.1448 -0.3140
40448W        W41312   3.425  19.261   5.760 -0.2922 -0.2628  0.1229
40449W        W41313  16.584   5.459  22.109  0.0431  0.3312  0.2440
40450W        W41314   5.025  23.452  10.263  0.0668  0.3556 -0.3943
40451W        W41315  13.326  16.481  23.657  0.1813 -0.0622 -0.0120
40452W        W41316   3.433  17.545   1.286  0.1584  0.2255 -0.3980
40453W        W41317  15.494   7.604  18.916  0.2323 -0.1478  0.1098
40454W        W41318   4.429  14.830  14.989 -0.3241 -0.0646  0.4577
40455W        W41319  26.096  19.884  27.241  0.2461 -0.1447 -0.2479
40456W        W41320   2.868  23.318  19.055 -0.2303  0.1732 -0.0808
40457W        W41321  20.561  23.542  18.968 -0.0950  0.1226  0.0705
40458W        W41322  15.047  23.836  11.048 -0.1028  0.2076  0.2528
40459W        W41323  23.465  27.979  26.044 -0.1408 -0.0624  0.0943
40460W        W41324   5.620  26.034  20.680 -0.1196  0.1328 -0.0490
40461W        W41325   9.678  18.269   8.027 -0.1105  0.1847  0.1181
40462W        W41326   1.525   6.446   4.205  0.2977  0.1610 -0.3735
40463W        W41327  11.637  14.730  16.949 -0.2766 -0.1928  0.0795
40464W        W41328  27.503  23.017  10.951 -0.0176 -0.0654  0.0260
40465W        W41329   9.372   5.486  11.044  0.0659 -0.4826 -0.0834
40466W        W41330  27.962  18.612  21.696  0.0754  0.0794 -0.1447
40467W        W41331  22.554  13.161  27.067  0.2782  0.1380 -0.0014
40468W        W41332  20.117  19.113  24.536 -0.0523  0.0454  0.1243
40469W        W41333   1.631  23.704  16.768  0.1148 -0.1060 -0.0656
40470W        W41334   7.058  18.347  13.383  0.1302  0.0965  0.1376
40471W        W41335   1.971  13.495  11.800  0.0397 -0.1332  0.1460
40472W        W41336   1.978  12.357  21.538 -0.0271 -0.3630  0.0116
40473W        W41337  22.053  17.458  17.396 -0.0183  0.0374 -0.2692
40474W        W41338  13.960   5.742  16.023 -0.2019 -0.1849 -0.0677
40475W        W41339   9.161  20.874  14.892 -0.0151  0.1440  0.0099
40476W        W41340  21.658  13.811   1.233 -0.1098  0.3599 -0.0915
40477W        W41341   1.878  11.200   1.337 -0.2107  0.0585  0.2410
40478W        W41342  28.275  27.777   9.178 -0.1584  0.1572  0.1496
40479W        W41343  27.093  22.649  18.984 -0.0429 -0.1588 -0.0661
40480W        W41344  28.524  22.207  17.954  0.1943 -0.0625  0.0838
40481W        W41345   7.411  24.153   1.368 -0.1614 -0.0507  0.0121
40482W        W41346   4.910  22.152   6.875  0.0470  0.1085  0.0393
40483W        W41347   8.897   7.135  27.902 -0.1940 -0.0578 -0.2118
40484W        W41348  24.969  18.682  17.517 -0.0239 -0.0322 -0.1510
40485W        W41349   3.413   7.777  22.203  0.2053  0.0087 -0.0186
40486W        W41350  14.797  10.175  18.095 -0.0689  0.1995  0.0230
40487W        W41351   3.963  16.100  21.509 -0.2673 -0.0966 -0.3280
40488W        W41352  13.245  10.087   1.283  0.0658  0.0037 -0.0772
40489W        W41353  18.407  16.543  16.164  0.0940 -0.1218  0.2119
40490W        W41354   0.436  21.643   1.137 -0.1467  0.1467  0.2062
40491W        W41355  14.446  28.217   9.647 -0.1377  0.0764 -0.0460
40492W        W41356  12.835  21.942  21.482  0.2115  0.1060  0.0521
40493W        W41357  19.792  25.936   0.763  0.1326 -0.1190  0.0705
40494W        W41358  28.502  12.591  23.872 -0.1892  0.3137  0.2673
40495W        W41359   5.523  12.370  19.111  0.2973 -0.1362 -0.3320
40496W        W41360  16.290  14.230  16.451  0.1637 -0.1047  0.1945
40497W        W41361  24.846  27.057  23.184 -0.1813  0.1775  0.0226
40498W        W41362   2.467  17.330  26.512  0.1174  0.1535  0.0955
40499W        W41363   7.326  18.386  26.201 -0.1942  0.3364  0.0086
40500W        W41364  13.215  18.339   4.735  0.3082  0.3002 -0.0702
40501W        W41365   5.922  21.056  13.783 -0.0835  0.0874 -0.0704
40502W        W41366  25.720  28.378  19.798  0.0635 -0.1057 -0.1659
40503W        W41367   6.236  14.316   3.937 -0.2149  0.4454 -0.0296
40504W        W41368  24.140   9.957  21.116 -0.2383  0.1791  0.0028
40505W        W41369   0.181   0.588  17.366  0.1077 -0.1214  0.1179
40506W        W41370  15.602  24.652  26.318  0.1543  0.1599  0.1549
40507W        W41371  15.307  10.758  16.202 -0.1686  0.6105  0.1427
40508W        W41372   0.469  10.683  16.789  0.3650 -0.2078 -0.3037
40509W        W41373   0.196   9.412  12.730  0.0205  0.1715  0.1280
40510W        W41374  13.140   6.876   2.414  0.1111 -0.0118 -0.1221
40511W        W41375   7.277  21.413  28.829 -0.0923  0.2176 -0.0041
40512W        W41376  10.166  18.028  20.144 -0.0172  0.0608 -0.1307
40513W        W41377  20.165  28.440  28.751  0.1377 -0.2646 -0.0411
40514W        W41378   5.415  24.914  21.809  0.2423 -0.0551 -0.0634
40515W        W41379  22.102   8.521  13.228  0.1215  0.4397 -0.2366
40516W        W41380  15.662  17.447  17.461  0.0878 -0.0237 -0.4636
40517W        W41381   0.691  10.727  17.929  0.1337 -0.1443 -0.0022
40518W        W41382  10.447   8.050   3.957  0.0929  0.5237 -0.0730
40519W        W41383   3.895   4.320  10.959 -0.2453 -0.0337  0.2147
40520W        W41384  26.149  18.974   2.514  0.0231 -0.0875  0.3015
40521W        W41385  21.633  21.854  15.762 -0.1133 -0.0583 -0.0476
40522W        W41386  22.081   5.842  18.946 -0.1761  0.1255  0.2734
40523W        W41387  11.917  28.209   3.581  0.3308  0.1531 -0.0685
40524W        W41388   3.807  19.941  14.990  0.0065 -0.0399  0.0520
40525W        W41389   7.788  16.538  19.379 -0.0702 -0.1290  0.3861
40526W        W41390  22.016  15.249   5.459  0.2138  0.0676  0.0373
40527W        W41391  25.528  17.741   9.187  0.1134 -0.0304  0.1826
40528W        W41392   3.183  12.507  24.253 -0.1941  0.1210 -0.1772
40529W        W41393   1.282  17.377  15.138  0.0772  0.0179 -0.2371
40530W        W41394  20.429  28.160  27.398 -0.2755  0.1075 -0.0422
40531W        W41395  15.157  23.073  15.754  0.0834 -0.3408  0.3755
40532W        W41396   6.248  20.176  15.978  0.0047  0.1677  0.0957
40533W        W41397   4.537   3.723  18.126  0.1438  0.0434  0.1159
40534W        W41398  10.402  12.627   5.261  0.0364 -0.0357  0.0730
40535W        W41399  11.947  13.413  12.699 -0.1468  0.3216 -0.0558
40536W        W41400   8.495   5.057   8.603 -0.0765 -0.0369  0.2860
40537W        W41401  27.748  17.810  22.433 -0.0892  0.3373 -0.0538
40538W        W41402   6.569  22.572  22.284 -0.1083  0.1458 -0.0750
40539W        W41403  22.481  18.452  20.416  0.0415 -0.2652 -0.1408
40540W        W41404  20.021  19.647  20.367 -0.0445  0.0190 -0.2033
40541W        W41405  27.178  28.108   0.306  0.1688  0.3218  0.1879
40542W        W41406  28.999  24.218  20.896  0.0915 -0.2621  0.3988
40543W        W41407  26.531  18.260  11.207  0.0308 -0.0705  0.0255
40544W        W41408  24.519  18.110  14.715  0.4820 -0.1812 -0.0660
40545W        W41409  14.725  17.064  21.604  0.0176 -0.3535 -0.0245
40546W        W41410  24.887  10.117   4.176 -0.0694  0.1205  0.2882
40547W        W41411  16.434  17.635  27.534  0.2792 -0.0311 -0.1060
40548W        W41412   1.151  10.869  15.969  0.2259  0.4215 -0.0840
40549W        W41413   2.550  26.321  18.766  0.3559  0.1536  0.0716
40550W        W41414  28.814   6.622  24.787  0.1222  0.2414 -0.0644
40551W        W41415  19.943  23.141  25.107  0.2264  0.1540 -0.3843
40552W        W41416   4.666  24.717   8.616 -0.4046  0.0567  0.0677
40553W        W41417  24.261  21.144  26.087  0.0202  0.2254  0.1311
40554W        W41418   4.860  16.815  13.430 -0.1288  0.1489 -0.0470
40555W        W41419   9.892  10.262  20.639 -0.2351  0.0777  0.0569
40556W        W41420  26.866  14.807   3.218  0.0885 -0.0086  0.0874
40557W        W41421   6.285   1.702  17.084 -0.1670  0.3969 -0.0923
40558W        W41422   8.425  16.656  28.336  0.2416  0.0113  0.2111
40559W        W41423  12.684   6.785  25.545 -0.1369 -0.1499  0.2226
40560W        W41424  17.640  19.433  25.211 -0.0556 -0.1417  0.0818
40561W        W41425   3.346   5.189  10.626  0.0031  0.4793  0.0284
40562W        W41426   6.972  15.731   8.127  0.2290 -0.1465 -0.1175
40563W        W41427   3.680  12.084  13.782 -0.4050 -0.0830 -0.1872
40564W        W41428   6.425  22.218  15.916  0.4589 -0.1974 -0.0290
40565W        W41429   0.305  26.161  27.361  0.2424 -0.0821 -0.1512
40566W        W41430   1.806  24.753   7.710 -0.3681 -0.0101  0.0747
40567W        W41431  27.045  24.687   8.486 -0.0134  0.0521 -0.0148
40568W        W41432  25.937  17.031   9.326  0.2958 -0.0260  0.2811
40569W        W41433  23.631  14.718   2.146 -0.1556  0.3205  0.2678
40570W        W41434  21.605  20.494  14.119  0.2221 -0.0811 -0.0339
40571W        W41435   5.760   3.210  19.110  0.1223  0.5124 -0.1823
40572W        W41436   0.569  23.540  19.671  0.0047 -0.1074  0.3373
40573W        W41437  20.650   1.718   0.692  0.3560  0.0886  0.0414
40574W        W41438   7.391  11.995  14.666  0.0441  0.3182  0.1412
40575W        W41439  13.943  15.636  22.631  0.0869  0.0312 -0.0077
40576W        W41440  16.811  15.816  15.831 -0.4447  0.0171 -0.2850
40577W        W41441  13.029  20.078  29.017 -0.0235 -0.3250  0.2646
40578W        W41442  24.169  17.587  18.713  0.0235 -0.0159  0.1689
40579W        W41443  12.031   3.221  18.292 -0.3774 -0.3726 -0.2594
40580W        W41444   7.330   7.274  14.453  0.0746  0.0553  0.1032
40581W        W41445  25.642  13.003  16.647 -0.0788 -0.2008 -0.0925
40582W        W41446   4.013  14.440  10.429 -0.2233 -0.1059 -0.1417
40583W        W41447   9.526  24.077  16.485  0.0573  0.2115 -0.2023
40584W        W41448   8.034  22.169  22.344  0.1402  0.0276 -0.2898
40585W        W41449  28.727  27.950   8.564 -0.0071  0.2429  0.0210
40586W        W41450   0.428  16.001  13.489  0.3572  0.0050 -0.0926
40587W        W41451  21.471  14.394   7.026  0.3096 -0.0386  0.0474
40588W        W41452   8.856  15.627  18.017 -0.2286 -0.1815 -0.0608
40589W        W41453  15.759  25.523  27.317 -0.1050 -0.1898 -0.0733
40590W        W41454  26.131  19.506   9.122 -0.2300  0.0421 -0.2573
40591W        W41455  26.079   3.472  17.965 -0.0344  0.0048 -0.0278
40592W        W41456  28.572   6.523  20.568  0.1849  0.1198  0.2333
40593W        W41457  10.389  25.830   9.777 -0.1648 -0.1171  0.1840
40594W        W41458  16.253  26.316  28.717 -0.0136  0.1803 -0.0083
40595W        W41459   6.783  26.701  19.372  0.1073 -0.0859  0.0794
40596W        W41460   7.274  15.356  26.079  0.2125 -0.1224 -0.0106
40597W        W41461  10.466   8.173  10.038 -0.0247 -0.1541  0.2204
40598W        W41462   6.828   1.583  13.162  0.0393  0.1226 -0.1839
40599W        W41463  25.234  26.810   1.094 -0.1933 -0.1075  0.2256
40600W        W41464  22.586  17.803  16.012  0.0590 -0.1127  0.1112
40601W        W41465   4.511   6.945   3.460  0.1084  0.3163  0.0496
40602W        W41466  10.381   8.109  16.034  0.2184  0.2116 -0.1179
40603W        W41467   4.190  26.557  24.013 -0.0710 -0.0048 -0.0691
40604W        W41468   2.115   5.138   2.150 -0.4537 -0.0336  0.1982
40605W        W41469   5.900  27.968  19.774 -0.0176 -0.0920 -0.0391
40606W        W41470   4.728  21.582  27.794  0.2432  0.1699  0.2349
40607W        W41471  22.045  11.091  14.489  0.3968  0.0514 -0.1399
40608W        W41472   8.646  10.809  24.283  0.0764  0.0306 -0.2075
40609W        W41473  23.373  10.700  25.913  0.1099  0.0512 -0.0810
40610W        W41474  17.390   8.499  25.183  0.0361 -0.3419 -0.2484
40611W        W41475   3.545   0.339  13.630 -0.0418  0.2814 -0.1459
40612W        W41476  19.735   9.146  27.108 -0.1372  0.1799 -0.0890
40613W        W41477  21.774  12.713   1.919 -0.1110  0.0263  0.0686
40614W        W41478  17.881  21.898  23.401  0.1316  0.1939  0.0389
40615W        W41479  23.410  25.059   9.654  0.0962  0.1225 -0.2358
40616W        W41480   5.599  28.589   7.075 -0.3440 -0.0133 -0.0474
40617W        W41481   0.677  18.541  17.372  0.1761 -0.0404 -0.2007
40618W        W41482  14.951  11.971  27.161  0.1689 -0.2431 -0.0273
40619W        W41483  14.417  19.659  28.387  0.0083  0.1163  0.1569
40620W        W41484   1.678   8.798  18.826  0.4822  0.1060 -0.3145
40621W        W41485  15.514   9.265   3.053 -0.1264  0.0570 -0.1854
40622W        W41486  10.871  14.114  18.078  0.0321 -0.1729  0.0668
40623W        W41487  16.040  10.779   6.950  0.0933  0.0393  0.0509
40624W        W41488  16.073   8.327   5.939  0.0369  0.0590 -0.0718
40625W        W41489   8.279   1.149   1.251 -0.1636  0.0292 -0.3745
40626W        W41490  20.499  18.322  25.424 -0.0693 -0.1902 -0.0685
40627W        W41491  28.427  24.426  11.079  0.2789  0.1455 -0.3427
40628W        W41492  18.778  23.765  28.148  0.1580  0.2377  0.4612
40629W        W41493   7.371  11.877  27.881  0.1303 -0.2170 -0.0727
40630W        W41494   3.695   2.294  13.499  0.0976  0.0267 -0.0730
40631W        W41495  17.198   0.208  28.594  0.0510 -0.2463 -0.1349
40632W        W41496  13.707   1.177  22.989  0.0221 -0.1377 -0.0475
40633W        W41497  27.654   0.438   4.205  0.0212 -0.3815 -0.0658
40634W        W41498   6.863   2.537  22.436 -0.0476  0.0203 -0.1266
40635W        W41499  18.548  19.427  17.046 -0.6144  0.1694  0.0696
40636W        W41500   7.655  13.318  13.525  0.2869  0.4285 -0.1031
40637W        W41501  26.528   1.408   9.446  0.1751 -0.0235 -0.2485
40638W        W41502  16.279  28.318   6.927  0.2289 -0.3265 -0.0805
40639W        W41503   4.793   8.509   6.403  0.0604 -0.1240 -0.2010
40640W        W41504  10.591   4.341  20.959 -0.1548  0.0810 -0.0508
40641W        W41505  25.103   6.408   3.626 -0.1206  0.1931 -0.0498
40642W        W41506   7.641  26.259  14.363 -0.1804 -0.1095  0.1928
40643W        W41507  16.223   9.336  13.171 -0.2432  0.0079 -0.0965
40644W        W41508   0.412  20.070  23.762  0.2759  0.2676  0.2197
40645W        W41509   3.047  25.691   2.893 -0.0543  0.0030  0.0716
40646W        W41510  23.402   3.984  17.555 -0.0091 -0.2028  0.1817
40647W        W41511  28.432  21.982   9.127 -0.0145 -0.0610  0.0997
40648W        W41512  18.082  25.889  15.949  0.1572 -0.2641  0.1984
40649W        W41513   7.762   8.244  23.860 -0.4588 -0.1190 -0.2481
40650W        W41514   7.012  17.967  26.026  0.0639  0.3208 -0.1109
40651W        W41515  12.459  21.401  18.422 -0.2981  0.1754  0.7608
40652W        W41516   9.105   4.571   8.291 -0.2085  0.0893  0.1388
40653W        W41517  16.865  10.432   2.666  0.2834  0.0135  0.2226
40654W        W41518   0.632  24.194  16.368 -0.3833 -0.0496 -0.1369
40655W        W41519   4.937  16.182  10.178 -0.0078  0.1042  0.0554
40656W        W41520  19.664   2.317  15.387  0.0342 -0.1348  0.0404
40657W        W41521  15.303   4.630  28.619 -0.1801  0.0038  0.2438
40658W        W41522   5.635  18.429  20.111 -0.2615 -0.0518 -0.0008
40659W        W41523   5.721  18.756  18.310  0.0443  0.3458 -0.2339
40660W        W41524   4.613  26.433  28.777  0.0564 -0.0758  0.2215
40661W        W41525   8.091   4.943  17.726 -0.4632  0.0277  0.1135
40662W        W41526  26.706  12.214  26.296  0.1223 -0.3930  0.0946
40663W        W41527  17.677  11.473  22.044  0.4416 -0.2914 -0.0023
40664W        W41528  12.989  16.885   0.873  0.0990 -0.1309 -0.1830
40665W        W41529  22.544   9.685  20.083 -0.2999  0.0796  0.1760
40666W        W41530  26.458   3.661  10.786 -0.0606 -0.1827 -0.3252
40667W        W41531  18.336  17.737  23.531  0.3702  0.0998 -0.0456
40668W        W41532  26.356   1.046   6.183 -0.2141  0.4706  0.1219
40669W        W41533  17.884   6.745  16.987  0.0420  0.1309  0.4468
40670W        W41534  12.375   8.261  22.542 -0.0485  0.2881 -0.2505
40671W        W41535  24.413  28.479  24.904  0.0756  0.0186 -0.2949
40672W        W41536  19.014  17.536  18.808 -0.0329 -0.4531 -0.0177
40673W        W41537   3.509   0.370  19.969  0.2198 -0.1288  0.2655
40674W        W41538  13.930  24.899  17.018  0.1754  0.3810 -0.2525
40675W        W41539   6.778  17.542   8.225 -0.0294 -0.0585  0.2360
40676W        W41540   9.956   5.843  13.924  0.0081  0.2604  0.0465
40677W        W41541  29.007   6.131  10.014  0.2236  0.2904  0.0222
40678W        W41542   2.058   2.433  19.715  0.0373 -0.0643  0.0085
40679W        W41543   9.398  14.497  19.376  0.0723  0.3289  0.0440
40680W        W41544  20.024  17.755  27.550 -0.1213  0.0249 -0.0141
40681W        W41545   3.414  20.614  16.289  0.0116 -0.1213  0.0507
40682W        W41546   2.610  14.459  14.966  0.0879 -0.0328  0.0908
40683W        W41547  19.793   7.771  18.139 -0.0437 -0.3337  0.0544
40684W        W41548  14.189  17.808  23.534 -0.0756  0.1091  0.0451
40685W        W41549   2.742  10.460  24.202  0.0689  0.0517  0.4546
40686W        W41550  12.344  14.775  28.474 -0.2672 -0.2691  0.3544
40687W        W41551   7.265   9.049   8.375 -0.3142  0.3439 -0.1796
40688W        W41552   9.085   4.359  14.053  0.0475  0.0160 -0.3084
40689W        W41553  25.925  23.911   2.728 -0.1056 -0.1741  0.0601
40690W        W41554  26.992  24.609  20.989  0.1717  0.0463 -0.1767
40691W        W41555  28.734  11.126  11.662 -0.1888  0.1581  0.3202
40692W        W41556  14.055  25.197   4.446  0.2706 -0.0447  0.1182
40693W        W41557   8.298  25.141   4.004  0.2862 -0.2800 -0.0257
40694W        W41558  16.671  21.625  24.153  0.1496  0.1028  0.1047
40695W        W41559  15.058  28.579  20.171 -0.0053  0.1004  0.0981
40696W        W41560  25.847  21.068  16.010  0.2596 -0.0249  0.1135
40697W        W41561   0.274   1.006  22.863  0.0571  0.1730 -0.4408
40698W        W41562  17.617  13.675  23.628 -0.1805 -0.2996 -0.3059
40699W        W41563   5.555   1.983   4.360 -0.1147  0.0229  0.0609
40700W        W41564  12.117   1.854  21.250 -0.0860 -0.0890 -0.1145
40701W        W41565   8.104  13.271   0.973  0.0535 -0.1947 -0.1194
40702W        W41566   0.644  10.002  24.720 -0.0529 -0.5376 -0.1218
40703W        W41567  18.094  22.688  23.900  0.0051  0.0466  0.1542
40704W        W41568  23.524   2.586  20.708 -0.0935  0.1291 -0.0355
40705W        W41569   9.653  17.723  28.478 -0.2732  0.0576 -0.0240
40706W        W41570  16.480  26.241  11.182  0.1174  0.1576 -0.0088
40707W        W41571   0.469  11.277  23.996  0.1319  0.2195  0.2090
40708W        W41572   1.437   3.335  21.034 -0.1805 -0.1592 -0.0265
40709W        W41573   3.050  28.780  12.110 -0.0035  0.2189 -0.1442
40710W        W41574   3.640  16.628  23.646 -0.2377  0.3400  0.1793
40711W        W41575  25.968  15.512   7.771 -0.2180  0.1191 -0.1656
40712W        W41576  16.703  10.445   4.025 -0.1094 -0.1745  0.0165
40713W        W41577   3.429  15.468  20.174  0.3304  0.1464  0.0422
40714W        W41578  12.166   2.259  19.641  0.1943 -0.2252 -0.2159
40715W        W41579  21.271  17.541  20.165 -0.0509 -0.0340  0.4253
40716W        W41580   6.791   3.377   2.348  0.0749  0.3928 -0.1169
40717W        W41581  26.368  25.904  22.760 -0.1250 -0.3261  0.1726
40718W        W41582   5.438  17.432   5.039 -0.0174  0.0128 -0.2877
40719W        W41583   9.128   2.071   3.106 -0.2039  0.3756  0.0334
40720W        W41584   3.899  24.061  10.856 -0.1800 -0.3774 -0.3140
40721W        W41585   0.750  12.862  15.235 -0.2027 -0.2670  0.0011
40722W        W41586   3.634   5.118  25.417 -0.2721  0.1302  0.1141
40723W        W41587  14.178   7.746  20.075  0.2384  0.0655  0.2086
40724W        W41588   1.165   6.287   0.353  0.0166 -0.0887  0.1021
40725W        W41589   8.774  10.798  27.242  0.1046 -0.0192  0.0646
40726W        W41590  24.109  27.647   5.811 -0.3711  0.0298  0.2096
40727W        W41591  28.175  21.559   6.017 -0.0593 -0.1118 -0.1025
40728W        W41592  14.164  15.687  11.091  0.0546 -0.1960  0.1140
40729W        W41593  22.239   9.597  14.008  0.2230 -0.1087 -0.2872
40730W        W41594  14.609   8.561   2.642 -0.2506 -0.1779 -0.3267
40731W        W41595  16.187  18.889  20.902  0.1710  0.2765  0.1593
40732W        W41596   1.808   8.410  12.803  0.0314  0.0327 -0.1521
40733W        W41597   8.379   6.783  10.039 -0.3003  0.0166 -0.0212
40734W        W41598  15.419  16.839  25.964  0.3963 -0.0348  0.1244
40735W        W41599   7.947   8.937   4.475 -0.1518 -0.0507 -0.0796
40736W        W41600   7.866  13.136   8.606 -0.0758 -0.3087  0.0004
40737W        W41601   2.414  29.082  22.689 -0.0077  0.1551  0.0803
40738W        W41602  11.229  16.537  15.888  0.0798 -0.2405 -0.1176
40739W        W41603   1.018   2.000  18.853  0.3833  0.2149 -0.0016
40740W        W41604   2.781  15.365  17.016 -0.0740 -0.0555 -0.0670
40741W        W41605   8.018  20.460   5.504 -0.1358  0.0426  0.0287
40742W        W41606   0.173   2.226  18.173  0.0176  0.0977  0.4112
40743W        W41607  21.310   0.141  18.577 -0.0588  0.1985 -0.1457
40744W        W41608   2.800   1.812   4.273  0.1385 -0.3012  0.1374
40745W        W41609  27.833  23.317  17.811  0.1923  0.2679 -0.1832
40746W        W41610   8.363   7.053   8.292  0.0651  0.0217  0.1790
40747W        W41611   1.604  28.364  23.706  0.1408  0.2140 -0.1862
40748W        W41612  22.997  28.238  21.909  0.1864  0.2157  0.0413
40749W        W41613  17.180  17.409  12.496 -0.2035 -0.1818  0.0846
40750W        W41614  21.544  16.346  21.908 -0.1111 -0.1801 -0.0357
40751W        W41615   1.162  16.233   0.781 -0.0280 -0.0137  0.0057
40752W        W41616  24.115  10.185   9.376  0.3104 -0.3500  0.4335
40753W        W41617   7.445   4.825  15.382  0.1282 -0.0522 -0.1743
40754W        W41618  17.184  27.436  12.870  0.1825  0.2212 -0.1335
40755W        W41619   6.879  23.406  19.896 -0.0596 -0.2323 -0.5128
40756W        W41620  10.834   4.403  21.561  0.0397  0.0945  0.0892
40757W        W41621  21.678   6.919  29.089  0.2424  0.5048 -0.0935
40758W        W41622  11.921  11.832  15.888  0.1329  0.2109 -0.2069
40759W        W41623   4.211  21.604  18.232 -0.2087  0.2900 -0.0115
40760W        W41624  27.567  17.113  11.153  0.3521  0.0080  0.2893
40761W        W41625   2.939  15.633  22.590 -0.1613  0.0499 -0.0144
40762W        W41626  13.017  13.707  16.926  0.1277 -0.4685  0.1188
40763W        W41627   9.602  16.056  17.972 -0.3689 -0.2615 -0.1329
40764W        W41628   1.807   9.608  12.553 -0.0601  0.1198 -0.0167
40765W        W41629  22.808  22.877   9.203 -0.1855 -0.1246 -0.0189
40766W        W41630  21.594   2.976   5.418 -0.2579 -0.4156 -0.1238
40767W        W41631   2.574  22.461  17.974  0.2068  0.1275  0.2936
40768W        W41632  27.810  16.795   8.285  0.2836  0.1916  0.1160
40769W        W41633  27.319  13.563  27.608 -0.0863  0.0090  0.1928
40770W        W41634  26.535  11.570   6.158 -0.2372 -0.0184 -0.2215
40771W        W41635  27.519  19.596  18.763 -0.0823  0.1023  0.1780
40772W        W41636  26.371  22.452  29.113 -0.0314 -0.3244  0.0384
40773W        W41637   9.041  11.586   6.296  0.3016 -0.0667  0.5154
40774W        W41638   4.430  19.244  20.849  0.4159  0.0488 -0.0715
40775W        W41639  18.019   5.180   9.422  0.0039 -0.1625 -0.0907
40776W        W41640  21.522   4.317  12.615  0.2644 -0.1150 -0.4970
40777W        W41641  21.108   8.688  20.752  0.0010  0.0694  0.0702
40778W        W41642   4.846  23.377   3.158 -0.0490 -0.0301 -0.2311
40779W        W41643  26.191   3.519  28.002 -0.0397 -0.1296  0.0929
40780W        W41644  14.864  17.075  29.088 -0.0896 -0.0392  0.0203
40781W        W41645  10.352  24.744  11.862  0.1352 -0.2542 -0.2584
40782W        W41646   8.076  24.004   8.122  0.1236  0.2938  0.1942
40783W        W41647   4.384  18.167  23.675 -0.0043  0.0644 -0.0006
40784W        W41648  21.968  13.573  20.407  0.1303  0.2747 -0.0913
40785W        W41649  17.535  11.845  24.421 -0.0397  0.3057  0.1695
40786W        W41650  22.445  17.205  17.726 -0.1439 -0.1113 -0.1070
40787W        W41651   1.911  12.722  13.184  0.0537 -0.0263 -0.4149
40788W        W41652  22.311   3.714  26.199  0.0480  0.2133  0.0283
40789W        W41653   8.490  10.351   1.694  0.1422 -0.1044 -0.1614
40790W        W41654   4.182  17.724   1.048 -0.0303  0.2208  0.0712
40791W        W41655   4.282  18.075  17.899  0.3089  0.1313 -0.0310
40792W        W41656  24.688   7.094   6.398  0.3018 -0.1305 -0.1814
40793W        W41657  11.195   5.130   7.195  0.1799  0.1429 -0.0169
40794W        W41658  13.364  14.284  24.378  0.0496  0.0201 -0.3306
40795W        W41659  10.817   6.703  16.811  0.0721  0.2167 -0.1739
40796W        W41660  25.735  25.295  26.457  0.1500 -0.0357  0.0120
40797W        W41661   8.862  19.057  24.889 -0.2098  0.2966  0.0854
40798W        W41662  21.931  16.020  26.492  0.0650  0.1282  0.3139
40799W        W41663  24.111  21.311  23.175 -0.0859 -0.0680 -0.3148
40800W        W41664  26.318  16.779  23.725  0.1576  0.1522 -0.0365
40801W        W41665  27.434  22.456  11.786  0.0624  0.0351  0.0283
40802W        W41666  26.608   1.664  11.713  0.1929  0.1230  0.3118
40803W        W41667  26.647  12.327  20.167 -0.0242  0.0322  0.2279
40804W        W41668   2.235  17.318  18.519 -0.2527  0.5418  0.1175
40805W        W41669  12.336  19.006   4.224 -0.0647 -0.5479  0.2188
40806W        W41670   4.607  10.166  16.045  0.1545 -0.1834 -0.0109
40807W        W41671  11.847  21.387  15.137 -0.0463  0.0132  0.1531
40808W        W41672   8.739  18.008   8.378  0.0236 -0.1996 -0.3044
40809W        W41673  18.457   2.719  22.024  0.0417 -0.2621 -0.0528
40810W        W41674  14.050  11.561   8.331  0.0715 -0.3498 -0.2110
40811W        W41675   7.473  17.807   4.245 -0.1255  0.0738 -0.2623
40812W        W41676  28.681  18.165  19.814  0.3580 -0.1845 -0.0028
40813W        W41677   6.087  14.018   3.588 -0.2288 -0.0972  0.0676
40814W        W41678   1.798  24.606   1.392  0.0118  0.2528  0.2493
40815W        W41679   5.081   5.564  21.553  0.0200 -0.0641  0.2449
40816W        W41680  15.739  22.401  15.396 -0.1649 -0.1259 -0.2617
40817W        W41681  20.863   4.109   6.884 -0.1741  0.1811  0.2609
40818W        W41682  13.444   4.217  17.159 -0.2080 -0.0106  0.0158
40819W        W41683  13.257  22.040  14.535  0.0326 -0.2230 -0.4757
40820W        W41684   7.158  18.269   0.519  0.0730 -0.1741 -0.0333
40821W        W41685  10.255  25.608  25.489  0.0758  0.0440 -0.2459
40822W        W41686  25.979  28.582   7.997 -0.1364 -0.2971  0.4453
40823W        W41687  25.413   7.704  10.446  0.0752  0.1212  0.0992
40824W        W41688  26.707  12.328  17.313  0.0367  0.0121 -0.2436
40825W        W41689   4.586  20.370  28.855  0.1564  0.0869 -0.1113
40826W        W41690  12.328   9.854   7.180  0.1360  0.1462  0.1927
40827W        W41691   1.948  21.421   0.959 -0.0583 -0.3858  0.1087
40828W        W41692   1.838  29.062   5.294 -0.2211  0.0005 -0.3181
40829W        W41693  14.423  20.909  16.611 -0.0645  0.2233  0.2994
40830W        W41694  10.657  24.597   6.249 -0.0938  0.5248 -0.3529
40831W        W41695   9.318  23.449  26.663 -0.0997 -0.1212 -0.1251
40832W        W41696   8.859   7.435  23.820  0.4462  0.1592 -0.1632
40833W        W41697  27.163   7.227  22.944 -0.1822 -0.1061  0.2016
40834W        W41698  11.268  23.422   3.380  0.1342  0.0481 -0.1357
40835W        W41699   0.600   3.060   7.219  0.0712  0.2260  0.1660
40836W        W41700   5.074  13.399  20.763  0.1194  0.1473 -0.1830
40837W        W41701  16.922  11.896   6.265  0.2949 -0.2085 -0.3438
40838W        W41702   7.752  15.671  19.813 -0.1331  0.2357  0.1388
40839W        W41703  12.971   6.964  21.556 -0.1431 -0.2354 -0.1551
40840W        W41704   1.457   7.950   5.909  0.2232 -0.1288 -0.2384
40841W        W41705   0.239  21.922  21.821  0.1963 -0.1445 -0.1957
40842W        W41706   6.869  23.867   8.552 -0.0871 -0.2150  0.0639
40843W        W41707  19.274  24.884  27.083  0.1282 -0.0465  0.0986
40844W        W41708   2.675  23.902  16.765 -0.3267  0.1530  0.0593
40845W        W41709   4.028   6.316   4.524 -0.2048  0.2979  0.4627
40846W        W41710  24.952  17.670  20.429 -0.1493  0.1432 -0.1387
40847W        W41711   0.146   8.088  16.078 -0.1586  0.2419  0.0155
40848W        W41712  27.196   0.908  20.823 -0.1244  0.1683 -0.0777
40849W        W41713  19.026  23.547  21.876 -0.1624 -0.1165 -0.1191
40850W        W41714  19.554   9.653   6.856 -0.1802  0.1114  0.4509
40851W        W41715   9.071   1.479   9.391 -0.0608 -0.3706  0.1010
40852W        W41716  14.944  11.418  14.572  0.2592 -0.0279 -0.2210
40853W        W41717  23.535  22.510  16.925 -0.1659  0.1374 -0.1098
40854W        W41718  15.768  15.083  27.746  0.1172 -0.2024 -0.2106
40855W        W41719  12.292   2.155  12.662  0.0097  0.0615  0.1690
40856W        W41720   7.064  15.204  22.863 -0.0365  0.0660  0.0769
40857W        W41721  27.897  27.891  15.416 -0.0509 -0.0910  0.0426
40858W        W41722  25.806  23.467  16.950  0.0525  0.1285  0.1117
40859W        W41723  26.088  21.307  16.468  0.3578  0.1795 -0.0140
40860W        W41724  26.545   1.567  22.834 -0.0112  0.0952  0.1267
40861W        W41725  13.104  23.814  17.855 -0.1764 -0.1691  0.6317
40862W        W41726   9.645  17.104  23.791  0.0584  0.0044 -0.2144
40863W        W41727  25.111  10.003  26.281  0.1577  0.2634 -0.0596
40864W        W41728   1.015  13.957  18.033 -0.1128 -0.0516  0.0093
40865W        W41729   0.490   9.404  11.905  0.0776 -0.2590 -0.1593
40866W        W41730   4.200   7.450  13.712  0.2215 -0.1002  0.0250
40867W        W41731   2.665  23.617   0.284 -0.0057 -0.2042 -0.1357
40868W        W41732  13.970  18.957   6.142 -0.1326 -0.0577  0.1925
40869W        W41733  14.540  19.159   0.865 -0.1761 -0.1086  0.2355
40870W        W41734   3.216  13.104  23.820 -0.0580  0.1920 -0.0371
40871W        W41735  16.447   9.130   3.571  0.1278 -0.0176 -0.1627
40872W        W41736   5.074   5.244   3.558  0.0202  0.1931 -0.0423
40873W        W41737   8.775  28.466   5.583 -0.1711  0.0482  0.1386
40874W        W41738   9.378  15.273   0.091  0.1875  0.0300  0.4639
40875W        W41739   9.293  25.106  24.103 -0.1604  0.0024  0.1968
40876W        W41740  12.258   7.965   5.957 -0.2603  0.0617  0.1167
40877W        W41741  16.645   5.860  21.084 -0.3575 -0.4394 -0.0690
40878W        W41742   8.857  15.090  15.125 -0.0011 -0.0678 -0.0866
40879W        W41743   0.464  18.837  14.694  0.0008  0.3804  0.1874
40880W        W41744   1.225  18.673  27.480 -0.1652  0.2557  0.3163
40881W        W41745   7.469   8.397  16.444  0.0417  0.0877 -0.0308
40882W        W41746  10.989  21.954  11.385  0.4016 -0.1153 -0.2756
40883W        W41747   5.970   4.759  16.583  0.0790 -0.0661  0.1302
40884W        W41748  25.124  26.296  25.806 -0.1147 -0.2064 -0.1720
40885W        W41749  23.358  28.750  24.961 -0.1493  0.0811  0.3120
40886W        W41750   8.715  15.913  24.446 -0.2008 -0.2714  0.1050
40887W        W41751  15.439  13.581  22.538  0.2389  0.1077 -0.1081
40888W        W41752   6.852  25.363  18.131  0.1241 -0.3822  0.0738
40889W        W41753   3.312   6.439   8.065 -0.2364  0.1013  0.1164
40890W        W41754  19.857  14.662   9.555 -0.2161 -0.1885  0.0167
40891W        W41755  27.860  17.402  16.050  0.2821 -0.2202  0.0893
40892W        W41756   8.112   4.485  18.607 -0.2515  0.1532  0.0315
40893W        W41757   8.379  15.289  15.105 -0.0812 -0.0482 -0.0913
40894W        W41758  14.741  11.381   3.080 -0.1652  0.3291  0.1160
40895W        W41759  24.767  11.019  21.520  0.2926 -0.0433  0.0898
40896W        W41760  19.326   9.229  13.663 -0.1856  0.3309  0.0760
40897W        W41761   1.824  14.868  14.432 -0.3932  0.2518 -0.0517
40898W        W41762   7.739  26.991  18.009  0.0738 -0.3072  0.0584
40899W        W41763  28.689   9.951  23.389  0.0116  0.2856  0.2793
40900W        W41764   3.479  11.716  22.748 -0.0088 -0.0155  0.2769
40901W        W41765  13.659  17.883  17.759  0.0389 -0.0261  0.1189
40902W        W41766  18.888   7.698  16.794 -0.0079 -0.0649 -0.0454
40903W        W41767   0.287   5.882   9.078  0.0171 -0.2140 -0.0996
40904W        W41768  17.158  16.239  17.970  0.0788 -0.0804 -0.5398
40905W        W41769  20.578   2.199  22.420 -0.0880  0.1215  0.2282
40906W        W41770  14.004  23.175  17.005  0.0755 -0.0487 -0.0335
40907W        W41771   8.308  25.648  12.845  0.0889 -0.0240 -0.1837
40908W        W41772  25.328   6.914  18.473 -0.1787  0.4056  0.2061
40909W        W41773  11.002  18.574  12.429 -0.0977  0.1137 -0.4632
40910W        W41774  17.225  21.884  24.246  0.1179 -0.0477  0.1384
40911W        W41775   8.058  23.949   8.959  0.1444 -0.2446 -0.4586
40912W        W41776  28.307   8.304  18.799  0.2880  0.1501  0.4406
40913W        W41777  10.616  12.413  28.146 -0.0231  0.2967 -0.2059
40914W        W41778   9.513  12.001  22.740  0.1450 -0.0134 -0.0402
40915W        W41779  12.130  23.821  23.091  0.0087 -0.2012  0.0180
40916W        W41780  17.448  18.790  27.669  0.1202  0.0009 -0.1478
40917W        W41781  16.202   7.733  12.732  0.3889 -0.0816  0.0679
40918W        W41782  26.084   2.521   9.048 -0.1047  0.2431 -0.0224
40919W        W41783  12.961  11.287  29.115  0.1353 -0.2222 -0.1235
40920W        W41784   2.581  12.219  18.334 -0.0120 -0.0511 -0.0672
40921W        W41785  15.636  16.067   7.431 -0.0370  0.1068 -0.1447
40922W        W41786  26.423   8.039  16.853 -0.0751 -0.2864 -0.2708
40923W        W41787  13.302  16.708   9.082  0.2322  0.2721  0.0146
40924W        W41788   7.181  22.875  28.067  0.5201 -0.2349  0.1589
40925W        W41789   3.600  28.402   0.965  0.1525  0.0308 -0.2146
40926W        W41790  29.100   8.896  27.133 -0.0101  0.1439 -0.0819
40927W        W41791   8.918  20.498  13.242 -0.0744  0.3251 -0.2508
40928W        W41792   1.641  28.834  15.664 -0.1783  0.1524 -0.0652
40929W        W41793   0.114   2.166  23.597 -0.1826 -0.1899 -0.1125
40930W        W41794  13.295  16.804  27.458 -0.0658  0.0195  0.0116
40931W        W41795  10.048  27.427  26.999 -0.0275 -0.3377 -0.3097
40932W        W41796   4.399  16.105   7.012  0.0072 -0.1639  0.1105
40933W        W41797   5.902  16.087  18.439 -0.2473  0.3086  0.0447
40934W        W41798  15.506  16.427  15.279  0.4152 -0.4449 -0.1702
40935W        W41799  19.825  26.030  17.257  0.1329 -0.2296  0.3968
40936W        W41800   9.144  17.650   8.313  0.0826  0.0431 -0.1275
40937W        W41801   4.523  20.990   2.218  0.0285  0.0389  0.0557
40938W        W41802  24.685  12.997  26.878  0.2024 -0.2535  0.1039
40939W        W41803  10.289  23.140   7.820 -0.2354  0.0623 -0.3772
40940W        W41804   6.815   7.146  23.768  0.0955 -0.1079 -0.2834
40941W        W41805   7.779  13.169   2.758 -0.1474 -0.0450 -0.0240
40942W        W41806   6.941  23.257   2.994  0.1551 -0.0322 -0.0861
40943W        W41807  10.219  11.742  22.913 -0.2225  0.0748 -0.0449
40944W        W41808  24.419  24.098  10.340 -0.1780  0.2824  0.4112
40945W        W41809  19.824   2.974   1.507  0.2865  0.0896 -0.0625
40946W        W41810   0.171   5.349   3.894  0.2255 -0.1482  0.1189
40947W        W41811   3.308  16.200  13.113  0.2818  0.1176 -0.0733
40948W        W41812  23.292  10.354  11.883  0.1782 -0.2238  0.0281
40949W        W41813  17.300  20.276  16.544  0.0480 -0.2285  0.0146
40950W        W41814   1.440  23.108   6.229  0.3010 -0.2609 -0.0676
40951W        W41815   1.472   0.116   8.102  0.0441  0.1025  0.1569
40952W        W41816  16.002   7.940  23.235  0.2512  0.0077  0.0159
40953W        W41817   1.801  23.054  24.744  0.0187  0.1172 -0.2158
40954W        W41818  21.576  14.234  23.604 -0.0700 -0.0191 -0.0928
40955W        W41819   0.163  17.493  28.448  0.1220 -0.3667  0.1512
40956W        W41820   1.377  17.154   8.513  0.1351  0.1136 -0.1401
40957W        W41821  16.034  12.516  12.359  0.0703  0.0776  0.0879
40958W        W41822   9.345  12.687  16.434 -0.4387  0.2686  0.1483
40959W        W41823   1.278  11.397  12.294 -0.1467  0.1015  0.0674
40960W        W41824   2.508  14.449   1.816 -0.1229 -0.0612 -0.0980
40961W        W41825  15.911  23.477  25.326 -0.0219 -0.2576  0.2345
40962W        W41826  27.566  15.559   8.403  0.0623  0.0215  0.0374
40963W        W41827  17.540  18.709  25.902 -0.2617  0.4317 -0.0400
40964W        W41828   7.783  13.412  10.321 -0.0220 -0.2768  0.2302
40965W        W41829   8.530  14.314  11.989  0.1596  0.1538  0.3150
40966W        W41830   8.552  12.221   6.621  0.1534 -0.2082 -0.2301
40967W        W41831   5.032  11.029   5.107  0.1441 -0.0922  0.0560
40968W        W41832   0.968  26.154  17.631 -0.2748  0.1172 -0.2096
40969W        W41833  14.595   9.071  22.980  0.0929 -0.4323  0.2577
40970W        W41834  22.397   4.681  21.354  0.1755 -0.0817 -0.0030
40971W        W41835  10.260  27.776  14.598 -0.5541 -0.0911  0.0585
40972W        W41836   3.484  14.986   7.695 -0.1444 -0.0502  0.0771
40973W        W41837   2.931  22.837  11.160 -0.0976 -0.2428 -0.0110
40974W        W41838  13.534  18.973   6.569  0.2051  0.1470  0.0702
40975W        W41839  24.844  15.416  25.217 -0.3733 -0.0117 -0.2866
40976W        W41840  26.935  25.635   1.416  0.1098  0.1030 -0.1430
40977W        W41841  27.668  19.555  14.308  0.0464  0.1675 -0.0157
40978W        W41842   4.215   3.174  20.224  0.0067 -0.0814 -0.2864
40979W        W41843   7.278  28.722  20.993 -0.1427 -0.2191 -0.1382
40980W        W41844  12.351  21.669  28.414 -0.2818 -0.0733 -0.0086
40981W        W41845   0.680   9.262  20.670  0.0472 -0.0073  0.1023
40982W        W41846  17.484  23.631  18.735 -0.0233 -0.0454  0.1131
40983W        W41847   9.943  24.885   5.703  0.0548  0.1217 -0.1564
40984W        W41848  12.359  24.585   5.643  0.2977  0.0162 -0.1348
40985W        W41849   0.826  21.440  28.909  0.2152  0.2294  0.2281
40986W        W41850   8.339  23.510  17.882  0.0353  0.3497 -0.0400
40987W        W41851  13.387  20.629  22.819 -0.1536 -0.0237  0.0595
40988W        W41852   4.521  10.534  23.162  0.0839  0.1355 -0.4937
40989W        W41853  12.600  17.144  21.002  0.0488  0.0410 -0.1623
40990W        W41854   4.607  14.670  17.483  0.0190 -0.3835  0.1456
40991W        W41855   0.004  16.532  27.592  0.2680  0.2557  0.0287
40992W        W41856   8.342  16.358  17.300  0.0529 -0.2226  0.2069
40993W        W41857   5.500  10.438  17.147 -0.1300  0.1416  0.1704
40994W        W41858   8.914   7.019  20.495  0.3616 -0.1282 -0.0541
40995W        W41859   6.782  11.842   3.063  0.3971 -0.1355  0.0657
40996W        W41860   5.815   9.478   3.144  0.2604  0.2329 -0.3680
40997W        W41861  18.334  25.428   8.981  0.0000  0.2299  0.2961
40998W        W41862   3.375  17.247  22.040 -0.0241  0.2912 -0.1634
40999W        W41863   8.379   4.873  18.680 -0.2883  0.1673 -0.0991
41000W        W41864   8.330   4.242   4.460  0.1387  0.1418 -0.2541
41001W        W41865   2.386  24.423  22.158 -0.1728  0.3181 -0.0056
41002W        W41866   7.793  12.444   5.928 -0.2309 -0.0616  0.2120
41003W        W41867   0.182  23.216  26.404 -0.4843  0.1837 -0.1641
41004W        W41868  29.113  10.784   3.868  0.0581 -0.0042  0.0675
41005W        W41869   6.888   6.143  26.046  0.0574  0.0576  0.1116
41006W        W41870  21.090  10.982  14.771 -0.0422  0.0874 -0.0741
41007W        W41871  26.862  18.636  11.255  0.2932 -0.1126  0.1682
41008W        W41872   2.472  13.841  20.108  0.3404  0.3036  0.3476
41009W        W41873  27.945  19.617  15.505  0.0177 -0.0011 -0.2224
41010W        W41874   5.899  28.342   3.438 -0.1135  0.2035  0.0756
41011W        W41875   8.631   7.623  19.203  0.0860 -0.3148 -0.2515
41012W        W41876  23.827   9.970  10.465 -0.0926 -0.0430 -0.0857
41013W        W41877  26.281  28.315   2.025 -0.0997  0.1363  0.1460
41014W        W41878   2.015  26.792   4.224 -0.0653  0.0096 -0.0909
41015W        W41879   1.405   0.223  23.161  0.2138  0.1321 -0.1938
41016W        W41880  28.653   8.103  22.270  0.0035 -0.0734  0.0015
41017W        W41881  25.671  26.765  26.285  0.2391  0.0966 -0.2111
41018W        W41882  11.456  18.471  20.521  0.1236 -0.2055 -0.2739
41019W        W41883  13.148  15.418  23.595  0.0543  0.0281  0.0763
41020W        W41884   8.575  24.398  23.426  0.1674  0.0821  0.3420
41021W        W41885   3.818   7.322  25.547 -0.1904 -0.2386  0.1179
41022W        W41886  10.937   2.282  20.162  0.1407  0.0364 -0.2267
41023W        W41887  28.862  11.418  22.246  0.2279  0.0623 -0.1126
41024W        W41888   9.045  16.902  22.808  0.0022 -0.1546 -0.0207
41025W        W41889  17.448   7.543  25.213 -0.1797 -0.0135 -0.1374
41026W        W41890  22.668  17.244   2.125 -0.0640 -0.2107  0.2257
41027W        W41891  17.654  13.778   4.627  0.0524 -0.1169 -0.1744
41028W        W41892   3.415  18.374  28.871 -0.0298 -0.1046  0.0485
41029W        W41893  22.338   1.419  23.005 -0.0954  0.0065  0.0844
41030W        W41894  13.505  19.768  26.056 -0.1729  0.1284  0.1789
41031W        W41895   0.207  13.190  26.505 -0.1337  0.2509 -0.2670
41032W        W41896   1.962   6.674   0.701 -0.4100 -0.2814  0.0576
41033W        W41897  14.384   2.661  25.290 -0.6429  0.1502  0.1250
41034W        W41898  12.066  28.151  23.091 -0.1265  0.3680  0.1427
41035W        W41899  22.618  21.710   3.504  0.0449  0.0382  0.1341
41036W        W41900  13.194  19.262  23.502  0.1535  0.3674 -0.1313
41037W        W41901   2.695   3.933  28.767  0.3070  0.0113  0.2585
41038W        W41902  14.311   9.431  24.511  0.0297  0.0801  0.0567
41039W        W41903  16.841  20.450   3.731  0.0762  0.0878 -0.2654
41040W        W41904   6.433  12.525  22.514  0.0888 -0.0778 -0.0729
41041W        W41905  28.151  22.173   0.241 -0.0433  0.2388 -0.1419
41042W        W41906  22.028  26.923   8.210  0.0185 -0.0655 -0.2110
41043W        W41907  19.134  19.951  20.521  0.1670 -0.0405  0.0002
41044W        W41908  11.580   0.647   5.234 -0.0132  0.1177  0.1275
41045W        W41909  16.911   3.392  26.396  0.2024 -0.1522  0.1884
41046W        W41910  23.853  18.882  18.730 -0.0802  0.1626  0.0263
41047W        W41911   8.779   2.750  10.015  0.0586  0.0757  0.1878
41048W        W41912  10.662  21.920  16.163  0.1119 -0.1863 -0.1566
41049W        W41913   6.139  15.190   4.535  0.0092 -0.2088 -0.0881
41050W        W41914  10.732  24.097  14.641  0.0235  0.0657  0.0739
41051W        W41915   1.896  25.198   0.420  0.1581  0.2313 -0.0027
41052W        W41916   4.547  24.830   1.926  0.0474  0.1632 -0.0031
41053W        W41917   4.417  11.151  18.325 -0.1702  0.1025  0.0650
41054W        W41918  28.609  26.444  21.288  0.0233 -0.2185  0.1273
41055W        W41919   1.701  18.503  18.430  0.2779 -0.0235  0.1772
41056W        W41920   1.424  17.291  28.514 -0.1700 -0.1950  0.0412
41057W        W41921  19.313  22.359  22.237  0.0165  0.0575  0.1095
41058W        W41922  26.122  14.727  17.067  0.2114 -0.2307  0.0866
41059W        W41923   5.592   8.158  20.357  0.0950  0.0292 -0.0513
41060W        W41924   9.580  14.871   0.317 -0.0671  0.1798 -0.1504
41061W        W41925  22.355   5.522  28.695  0.1114  0.0820  0.3993
41062W        W41926  20.224  19.551  13.249  0.0394 -0.3481 -0.1308
41063W        W41927   8.732   3.523   1.271  0.0111  0.1773 -0.0027
41064W        W41928  16.982  24.433  27.310 -0.0632  0.0003  0.1368
41065W        W41929  20.960  13.550  21.866  0.1390  0.3020  0.0775
41066W        W41930   8.420   7.173  27.813 -0.3485  0.2043  0.1384
41067W        W41931  13.542  19.796  23.840 -0.3036 -0.2620 -0.1170
41068W        W41932  14.640   1.466  23.780  0.0652 -0.5029 -0.0515
41069W        W41933   6.819  25.984   5.185 -0.0239  0.0961 -0.2380
41070W        W41934   3.749   2.070  24.028 -0.1733  0.1999 -0.0329
41071W        W41935   5.242  17.974   2.615 -0.0051  0.0813 -0.5115
41072W        W41936  23.465  20.560  19.287 -0.1620  0.0871 -0.3039
41073W        W41937  26.388  19.959  22.935  0.5369 -0.1375 -0.0076
41074W        W41938  24.798   8.049  11.633  0.1111 -0.0196 -0.0881
41075W        W41939   4.526   1.114  20.393  0.0644  0.0972 -0.2355
41076W        W41940  12.969  12.602  29.012  0.0866 -0.0286 -0.3334
41077W        W41941  10.097   0.589  20.115  0.0264 -0.0044 -0.0935
41078W        W41942  27.327  19.488   7.629 -0.1373 -0.1205  0.0679
41079W        W41943   5.387  11.446  23.773  0.0045 -0.0660  0.0276
41080W        W41944  16.521  25.929   8.858  0.2572 -0.1791 -0.0294
41081W        W41945   5.872  20.740  20.461 -0.0090  0.1036  0.0678
41082W        W41946   0.719  22.260  15.018 -0.2294 -0.0843  0.0345
41083W        W41947  20.759   3.280   9.874 -0.2149  0.0711  0.1776
41084W        W41948  12.524  16.625   0.157  0.1197 -0.0926  0.0067
41085W        W41949  17.502  11.900   4.877  0.0748 -0.3005  0.0383
41086W        W41950  26.554   6.731   1.443  0.1441  0.5115 -0.0277
41087W        W41951   3.803  26.961  28.673  0.0345  0.0102 -0.0470
41088W        W41952  17.658   6.130  23.486 -0.2801 -0.2302  0.0722
41089W        W41953   9.508  28.639  24.852  0.1669 -0.2716 -0.0193
41090W        W41954   9.453  22.883  27.605 -0.1404 -0.0629  0.0185
41091W        W41955  22.516   1.772  25.597 -0.1604  0.1593 -0.1701
41092W        W41956   8.553   8.917   9.887 -0.2485 -0.2895  0.3896
41093W        W41957  22.845  19.776   6.982  0.1233 -0.3514  0.0692
41094W        W41958  20.937   8.219  18.341  0.2762 -0.2224  0.1970
41095W        W41959   8.936   8.538  24.612 -0.2364  0.0721 -0.3649
41096W        W41960  12.251   2.507   1.427  0.0762  0.2528 -0.0124
41097W        W41961  13.437   1.157   8.109  0.0717  0.4735  0.0854
41098W        W41962   5.036  25.577  18.564  0.1075  0.4772 -0.0218
41099W        W41963   6.741   7.701  23.126  0.1313 -0.0547 -0.0855
41100W        W41964  11.410  26.239  17.908  0.3753 -0.1643  0.1328
41101W        W41965  25.838  17.709  28.778  0.0312 -0.0216  0.0468
41102W        W41966  10.121   2.107  17.890 -0.2276  0.0205 -0.2756
41103W        W41967   4.046  25.710  16.612 -0.0019 -0.0656 -0.0560
41104W        W41968   3.497  15.982  22.830 -0.0255  0.1449  0.0515
41105W        W41969   2.055  12.552  10.476 -0.0777 -0.0609  0.1559
41106W        W41970  16.348  21.945  10.515  0.0349 -0.0497  0.1292
41107W        W41971  26.024  17.450  22.345 -0.1605  0.1347  0.2452
41108W        W41972   6.751  26.967   2.994 -0.0953 -0.1443  0.1266
41109W        W41973  14.252  17.490  18.712  0.1939  0.0216 -0.1390
41110W        W41974   7.149  18.031   2.423 -0.0069 -0.1451 -0.0952
41111W        W41975  18.788  17.097  20.350  0.1315  0.0073 -0.1327
41112W        W41976  13.174  13.736   7.152  0.1098  0.1767  0.0064
41113W        W41977  24.324  18.932   0.768 -0.1587 -0.2098 -0.5761
41114W        W41978  13.978  14.002  14.326  0.2909 -0.1258  0.1005
41115W        W41979  26.662  23.879   2.009 -0.3215 -0.1477  0.0036
41116W        W41980   2.149  16.477  22.338 -0.1605  0.2542  0.2004
41117W        W41981   4.690  17.794  28.033  0.0166  0.0658  0.0061
41118W        W41982  15.677   8.046  26.091  0.0828 -0.1542  0.1399
41119W        W41983   3.742  22.811  21.925  0.1377 -0.0203  0.2527
41120W        W41984  17.660   3.900  23.769 -0.2173 -0.3666 -0.5634
41121W        W41985  25.128  23.978  26.173 -0.0862 -0.0017 -0.2490
41122W        W41986  22.065  15.962   1.802  0.1636  0.1819  0.0516
41123W        W41987  27.942  11.021   6.948 -0.0543 -0.0086 -0.2753
41124W        W41988  19.407  19.907   1.774  0.0498  0.1243 -0.0143
41125W        W41989   4.773  14.412   9.433  0.1228 -0.0217  0.1080
41126W        W41990   6.272  12.183   8.798  0.1248  0.1865  0.0770
41127W        W41991  12.856   6.211  11.670  0.0033  0.3511 -0.1056
41128W        W41992   3.639   2.956   2.479  0.1320 -0.0031 -0.0555
41129W        W41993  28.358   4.329   6.196  0.0956 -0.3231 -0.0582
41130W        W41994  23.734   3.675   9.050 -0.0729 -0.0917  0.1168
41131W        W41995   1.570  10.346  28.667  0.2342  0.0748  0.0372
41132W        W41996   2.303  21.099  18.391  0.3106 -0.3331  0.0251
41133W        W41997  26.315  10.647  20.024 -0.1086  0.0050 -0.2536
41134W        W41998  25.403  12.603  22.285  0.2870  0.3224  0.0955
41135W        W41999  24.620  11.912  25.516  0.3384 -0.1472  0.0150
41136W        W42000   7.959  20.807  22.121  0.0422 -0.3064  0.2622
41137W        W42001  11.042  18.620  16.651 -0.1442  0.1375  0.1843
41138W        W42002   8.982  28.356  25.761  0.1651 -0.0400 -0.0269
41139W        W42003  16.973  20.656  20.579  0.0838  0.0014 -0.0823
41140W        W42004   9.540  28.806  13.147 -0.1363  0.0415  0.0981
41141W        W42005   1.981  28.981  24.841 -0.1545 -0.2884 -0.3572
41142W        W42006   5.519  24.895  14.136  0.0230  0.1011  0.0027
41143W        W42007   3.674  28.159  14.320 -0.0795 -0.1203 -0.4404
41144W        W42008  11.908  19.045   3.318  0.0964  0.2833 -0.0807
41145W        W42009  28.507  24.901  16.243 -0.3253  0.1288  0.2754
41146W        W42010  25.925  27.227   0.015  0.1629 -0.1157  0.3808
41147W        W42011   4.052   0.083   6.234 -0.1978  0.1178 -0.0241
41148W        W42012   1.490   7.788   4.076  0.2255  0.0101  0.0905
41149W        W42013  10.206  28.561  15.059 -0.0984  0.2873  0.0776
41150W        W42014  10.652  14.200  11.928 -0.1085  0.0892  0.1260
41151W        W42015   5.431   8.614   1.481  0.0847  0.3772 -0.1945
41152W        W42016  15.672  23.665   0.011 -0.0074  0.1748  0.1972
41153W        W42017  20.160  22.158  15.117  0.0684 -0.0518 -0.1514
41154W        W42018  20.881  10.213   4.769 -0.2049 -0.2160 -0.0116
41155W        W42019  11.649  18.378  26.843 -0.0874  0.0857  0.0585
41156W        W42020   4.232   0.271   0.226 -0.1394 -0.1623  0.1222
41157W        W42021  13.884  11.161   7.964 -0.1999 -0.1402  0.2603
41158W        W42022   3.505  20.142  22.321 -0.0982  0.0938  0.1529
41159W        W42023   5.040  21.210  29.096  0.2640 -0.4636 -0.0445
41160W        W42024  22.270   7.113  25.583 -0.0558 -0.2552 -0.2185
41161W        W42025   9.097  24.676   7.385 -0.4151 -0.1041 -0.2245
41162W        W42026   1.592   9.794  22.919 -0.0768  0.3055  0.2189
41163W        W42027  16.824  12.915  27.012 -0.0391 -0.1231 -0.1243
41164W        W42028  10.280   6.130  12.088 -0.1139  0.2392  0.0604
41165W        W42029   3.285  19.980  25.539 -0.0299 -0.0965 -0.0557
41166W        W42030  15.111   4.054   0.190  0.0322  0.0585 -0.1368
41167W        W42031   8.227  21.154  21.400  0.1567  0.0928  0.0501
41168W        W42032  23.369   4.180  16.363 -0.0127  0.0650  0.2612
41169W        W42033   0.302  18.961  26.299  0.1057 -0.1958 -0.0407
41170W        W42034  20.587   2.073  14.796 -0.1695 -0.1462 -0.2538
41171W        W42035  18.082  19.738   7.843 -0.3308  0.4381 -0.4482
41172W        W42036  18.656  26.289  22.863 -0.1319  0.2226 -0.0481
41173W        W42037  11.143  16.573  26.353 -0.1381 -0.0620 -0.2280
41174W        W42038  27.166  16.607  17.431  0.2140 -0.5600 -0.0318
41175W        W42039   5.017  21.582  17.227  0.0194 -0.2022 -0.0913
41176W        W42040   4.327  10.643  14.912  0.0201  0.0677 -0.1524
41177W        W42041   1.461   6.076   0.014 -0.2589 -0.2538 -0.1739
41178W        W42042   0.496  18.588  21.267  0.1587  0.0006 -0.0549
41179W        W42043   8.023  11.298   4.146 -0.2837 -0.1126 -0.0230
41180W        W42044  17.025  12.934  11.447  0.0794 -0.1200  0.2799
41181W        W42045   3.685  27.459  24.955  0.0515  0.0580  0.1733
41182W        W42046   7.891  21.440   0.865  0.0663 -0.0921  0.3814
41183W        W42047   4.278  21.296  14.834  0.1209  0.1534  0.0509
41184W        W42048   6.234  17.949   2.935 -0.0426 -0.1808 -0.1294
41185W        W42049  26.184   1.073  17.267  0.1723  0.2235 -0.0842
41186W        W42050   7.193  12.424  28.867  0.0364 -0.0188 -0.3157
41187W        W42051  20.179  13.939  19.765  0.0865 -0.0933 -0.0033
41188W        W42052  14.113   3.183  21.890  0.0969 -0.1029 -0.1416
41189W        W42053   2.922  15.654  21.280  0.3206  0.0913 -0.4266
41190W        W42054   2.809  15.567  24.267 -0.0737  0.0610 -0.1008
41191W        W42055  13.923  13.577  15.550  0.1310 -0.0527  0.0463
41192W        W42056  26.987  23.787   8.798 -0.0994 -0.1474  0.0790
41193W        W42057   0.548  16.247  11.895  0.1350  0.0859 -0.0177
41194W        W42058  27.599  16.953  28.710 -0.0472  0.0230 -0.2417
41195W        W42059  24.718  25.572  12.353 -0.1535 -0.1707 -0.2478
41196W        W42060   4.778  10.293  17.471  0.1839  0.3096  0.2306
41197W        W42061  25.764  11.685   1.716  0.0746 -0.0105 -0.1143
41198W        W42062  14.323  15.382   8.707  0.2522  0.0383  0.0368
41199W        W42063  22.561  16.647   5.482  0.1365  0.3007 -0.0911
41200W        W42064   7.919  19.724  28.491 -0.2564  0.0180 -0.2073
41201W        W42065  11.887   6.835  22.188 -0.2830  0.0328  0.2539
41202W        W42066  26.755  24.577  25.271 -0.0467  0.0648 -0.0381
41203W        W42067  25.023  14.675  20.993 -0.1162 -0.0231  0.0544
41204W        W42068  14.424  11.332  18.675 -0.0778  0.4140  0.0436
41205W        W42069  10.238  10.978  24.474 -0.2751  0.0608 -0.1647
41206W        W42070   3.570  22.522  28.354 -0.0119 -0.1819  0.2431
41207W        W42071  10.455  23.313  26.198 -0.5239  0.1239  0.2152
41208W        W42072  13.500  21.117   8.057  0.4246  0.2323 -0.2722
41209W        W42073  16.214  27.831  13.674  0.0566 -0.1362  0.0690
41210W        W42074  24.717  25.602  27.173 -0.1005 -0.0290  0.1959
41211W        W42075  12.124   6.392  19.657  0.1277 -0.1429 -0.2959
41212W        W42076  23.656   1.161  25.884  0.1967 -0.0801 -0.0469
41213W        W42077   3.362  19.808  12.846  0.1223 -0.0435 -0.1304
41214W        W42078  13.483  19.889  22.527 -0.4579 -0.0464 -0.1486
41215W        W42079  12.598   8.897  27.901 -0.0807 -0.0078 -0.0046
41216W        W42080  13.788  21.657  21.629 -0.1356 -0.1980 -0.1476
41217W        W42081  13.904  10.600  24.380  0.0356  0.3652  0.3342
41218W        W42082  14.411  25.661  20.231  0.3949  0.3449  0.1712
41219W        W42083  12.323  22.157  28.761 -0.2143  0.4207  0.1934
41220W        W42084   1.321  16.823  16.419  0.0256  0.3720 -0.0245
41221W        W42085   1.327  10.235  21.046  0.2465 -0.0349  0.2566
41222W        W42086  10.571  24.717  19.003 -0.0217 -0.1073  0.0428
41223W        W42087  24.891  15.277  27.078 -0.0403 -0.0645 -0.0876
41224W        W42088  10.934  19.377  13.549 -0.1835  0.1108  0.1773
41225W        W42089  29.141  12.171   8.627 -0.1526  0.1118 -0.0474
41226W        W42090   5.072   6.134   1.738  0.3393 -0.1361 -0.0720
41227W        W42091   9.118  11.545   6.814 -0.4246 -0.2158  0.1232
41228W        W42092  12.922  15.984  16.315 -0.0446  0.0064 -0.0240
41229W        W42093  12.736  11.282  18.602  0.2767 -0.0700  0.0566
41230W        W42094  16.202  10.079   0.825  0.2054 -0.1097 -0.0529
41231W        W42095  10.091  25.887  13.867  0.0368  0.0844  0.2701
41232W        W42096  11.789   2.176  22.509  0.2247 -0.1336 -0.0307
41233W        W42097  12.012  25.031  22.327 -0.1132  0.1247  0.2414
41234W        W42098  21.901  16.780  25.303 -0.0618  0.0157  0.3023
41235W        W42099  20.774  13.773  19.811  0.0357  0.1202 -0.1783
41236W        W42100  26.335  18.992  21.967 -0.0295  0.3253 -0.2872
41237W        W42101  26.138  15.543  27.402  0.0926  0.1834 -0.6431
41238W        W42102   8.105  21.265  12.956  0.0648 -0.3070  0.1501
41239W        W42103  20.370  19.755  28.912 -0.0082 -0.1863 -0.2333
41240W        W42104  26.247  13.419  18.940  0.0065  0.0818  0.0319
41241W        W42105  28.416   2.445  22.596 -0.1980 -0.2949 -0.1968
41242W        W42106  20.464  22.723  15.120 -0.0585 -0.0109 -0.1111
41243W        W42107  14.283  23.287  14.618 -0.2420  0.0632  0.1557
41244W        W42108   2.715   4.116   6.692  0.1077 -0.1338  0.1540
41245W        W42109   8.207  22.087  11.448 -0.0711 -0.4921  0.1443
41246W        W42110  17.566  21.498  25.610  0.0502 -0.3117 -0.0795
41247W        W42111   1.510  14.315  13.422  0.2475 -0.1571  0.0121
41248W        W42112   6.722  19.441   9.015 -0.0827 -0.1300 -0.1237
41249W        W42113  27.619  17.006  23.291 -0.0822  0.0287  0.0394
41250W        W42114  17.964  12.752  27.630 -0.1693 -0.0314 -0.0691
41251W        W42115  19.598  22.662  28.535 -0.1765  0.3241  0.0422
41252W        W42116  18.621   7.013  21.057 -0.0513  0.2057 -0.1963
41253W        W42117   7.123  19.991  16.884 -0.0388 -0.0356  0.0003
41254W        W42118   7.614  19.634   0.972 -0.1845  0.1265  0.0208
41255W        W42119   0.500   6.941  21.413  0.2716 -0.1320 -0.0884
41256W        W42120  12.662  12.269   1.743  0.2740  0.1621  0.3212
41257W        W42121   3.333  26.745  23.639  0.1522  0.1796  0.1919
41258W        W42122   9.387  22.891  28.422  0.1771  0.1801  0.0119
41259W        W42123  18.935  25.164   3.140 -0.0356 -0.1478  0.0610
41260W        W42124  15.618  27.638  13.961 -0.0608 -0.1906  0.0561
41261W        W42125   9.945   8.281  14.205 -0.1994 -0.2312  0.0846
41262W        W42126  23.437   5.204  16.516  0.0680  0.0701 -0.0646
41263W        W42127  12.122  14.794   2.256  0.1888 -0.0557  0.1752
41264W        W42128  12.167  20.943  11.589 -0.2555 -0.0918  0.1445
41265W        W42129   9.512  25.457  17.548  0.0880 -0.0483  0.0718
41266W        W42130  15.135   6.505  17.013  0.3003  0.0859  0.0844
41267W        W42131   0.863  27.361  14.422 -0.1191  0.0107  0.1857
41268W        W42132  22.828  13.602  24.261  0.0140  0.1410  0.0821
41269W        W42133   5.731  19.588  16.243  0.4837 -0.0112  0.0746
41270W        W42134  21.713   3.154  10.994  0.2252  0.1317  0.0698
41271W        W42135   5.575  17.061  10.886 -0.3392  0.1309  0.0615
41272W        W42136   9.328  19.441  17.715 -0.1251 -0.0483  0.1624
41273W        W42137  28.489  21.219   6.708 -0.1204 -0.1408 -0.1926
41274W        W42138  27.685   8.020  10.213  0.0668  0.3773 -0.2536
41275W        W42139  24.222   0.320  29.139 -0.1008 -0.0089 -0.1978
41276W        W42140  12.130   4.589  25.080 -0.4252 -0.1225 -0.1613
41277W        W42141  28.525  14.015  11.563 -0.1306 -0.1635 -0.1028
41278W        W42142  17.954  11.801   1.132  0.1150  0.1977  0.1301
41279W        W42143  26.330  16.319  13.933 -0.0518 -0.1692  0.3108
41280W        W42144  24.226  15.594  27.327 -0.1710 -0.1204 -0.4134
41281W        W42145  28.420   0.973   1.333 -0.0202 -0.0878  0.1413
41282W        W42146   4.039  12.660   0.469  0.1204  0.0534 -0.1361
41283W        W42147   8.376   6.517  19.948 -0.0685 -0.0369 -0.0344
41284W        W42148  12.197  18.993  23.549 -0.0512  0.0662  0.3090
41285W        W42149  10.218  23.397   1.580 -0.1326  0.3186  0.0484
41286W        W42150   7.821  27.011  23.285 -0.0437  0.2139 -0.0562
41287W        W42151   7.295  18.412  11.521  0.1560  0.2269 -0.0461
41288W        W42152  24.662  18.206  17.896 -0.1676  0.0415  0.0912
41289W        W42153   1.747  14.677  22.631 -0.1437 -0.0678  0.0120
41290W        W42154  18.156  27.857  20.500  0.3165 -0.0699  0.1291
41291W        W42155  12.553   9.877  10.650  0.2489  0.0797  0.1871
41292W        W42156  10.420   6.311  13.457 -0.1000 -0.1762  0.1112
41293W        W42157   0.966  24.011   1.414  0.0905  0.0610 -0.0913
41294W        W42158   4.374  17.206  19.212  0.0449 -0.0056 -0.1141
41295W        W42159  17.386  21.532  20.586 -0.1620 -0.4474  0.0330
41296W        W42160  11.595   8.166  16.976  0.1084  0.3242  0.0142
41297W        W42161  13.574   6.657  15.871 -0.1616 -0.0038 -0.0425
41298W        W42162   2.323  27.909   1.964  0.0832 -0.3962 -0.2590
41299W        W42163   3.121   6.717  27.715 -0.1167  0.3492 -0.2395
41300W        W42164  27.977  18.963  23.497  0.0174  0.4041 -0.2211
41301W        W42165   9.852  12.301   6.073  0.0843 -0.1704  0.1369
41302W        W42166   9.991   4.277  21.754 -0.1213 -0.0346  0.1855
41303W        W42167  10.823  28.197   7.587 -0.0975  0.3424  0.0178
41304W        W42168   6.365  11.140   0.100  0.0448 -0.1529 -0.2862
41305W        W42169   5.321  22.408  16.671  0.0875  0.0375 -0.1811
41306W        W42170  20.536  20.881  13.661 -0.3552  0.1969  0.1924
41307W        W42171   7.308  18.104   1.467  0.2204 -0.2022 -0.2480
41308W        W42172   7.702   5.676  19.227 -0.0220 -0.0439 -0.2214
41309W        W42173   3.663  13.789  25.409 -0.1216  0.0962 -0.0003
41310W        W42174   8.795  14.523   7.948  0.0982 -0.1598 -0.1249
41311W        W42175   8.246  17.538  15.323  0.0738  0.0866 -0.0150
41312W        W42176   7.859  17.627  28.643  0.1180 -0.0692  0.2074
41313W        W42177  17.606  29.050   8.543  0.0412  0.1582  0.3027
41314W        W42178  28.306  13.153  22.259 -0.1440 -0.1414 -0.0325
41315W        W42179  14.097  13.395   6.336 -0.1327  0.0642  0.0948
41316W        W42180   2.619  25.283  20.770 -0.1084 -0.0626  0.3508
41317W        W42181   9.330   6.937  21.905  0.1429  0.0595  0.3941
41318W        W42182   9.116   6.428  16.514  0.2048  0.0146  0.0366
41319W        W42183  11.153  19.106  28.830 -0.0674 -0.2048  0.2676
41320W        W42184   7.707  17.167  15.331 -0.2485 -0.0560  0.0020
41321W        W42185   0.194   1.543   0.029  0.2497 -0.1873 -0.2352
41322W        W42186  19.813  12.352   5.416 -0.1095  0.0281 -0.3629
41323W        W42187   9.707  16.758  24.219 -0.1252 -0.2163 -0.1276
41324W        W42188   4.262   7.923  20.105  0.1173 -0.2927  0.0567
41325W        W42189  25.762  14.614   4.185 -0.0975  0.0397  0.4546
41326W        W42190  14.981  24.615  20.374  0.2580 -0.1295  0.0344
41327W        W42191  16.645   7.775  18.650 -0.0480  0.0779  0.1187
41328W        W42192   5.007  13.462  21.317 -0.2725 -0.2046 -0.2037
41329W        W42193   3.202   6.081  28.288 -0.1826 -0.0035  0.1692
41330W        W42194   4.811   6.594  19.677 -0.0329  0.0155  0.3422
41331W        W42195  18.458  15.765  28.432  0.2806  0.2290  0.1614
41332W        W42196  27.576  10.808  16.520  0.0717 -0.0903  0.0989
41333W        W42197   2.041  21.825  16.485 -0.0859  0.3098 -0.0351
41334W        W42198   4.985   8.132  24.072  0.0152 -0.0345  0.1068
41335W        W42199   8.198   5.724  17.403  0.2082 -0.0003  0.0259
41336W        W42200   2.189   8.219  13.063 -0.0939 -0.1153 -0.0850
41337W        W42201   0.724  18.785  27.895  0.0090  0.0289 -0.0030
41338W        W42202  17.416  23.124  27.202 -0.0004 -0.1798 -0.2056
41339W        W42203  28.643  20.589  28.086 -0.1882 -0.0125  0.2380
41340W        W42204  26.397  26.015  28.593 -0.0405  0.2032  0.0328
41341W        W42205  27.068  18.881   3.121  0.2376  0.0149 -0.0204
41342W        W42206   9.715  12.704   0.654  0.1327  0.0456  0.2946
41343W        W42207   8.550   7.918  27.472 -0.0486  0.1479 -0.0576
41344W        W42208  15.025  25.341   9.935 -0.2520  0.1645 -0.0390
41345W        W42209   1.037  20.611  24.717 -0.0413 -0.1082 -0.0829
41346W        W42210  27.990  15.562  27.588 -0.1321 -0.2558  0.3004
41347W        W42211   7.914   7.882   2.534 -0.1957 -0.2097 -0.1396
41348W        W42212   2.749  16.088  17.757 -0.0332  0.1413 -0.3432
41349W        W42213   8.406  12.474  27.315 -0.1599  0.3203 -0.0412
41350W        W42214   2.534   7.232   2.565 -0.1163 -0.1469 -0.0726
41351W        W42215   6.277   3.975  27.859 -0.2583  0.0118  0.1994
41352W        W42216  21.405  20.149  27.332 -0.4240  0.2658  0.1416
41353W        W42217   8.004   1.616  15.850  0.3484  0.0767 -0.0779
41354W        W42218  14.035  28.342  23.385 -0.0382  0.0328  0.0005
41355W        W42219   5.556  22.342  27.230 -0.2454 -0.2399 -0.1990
41356W        W42220   4.747  12.564  26.516 -0.0460 -0.0530  0.0117
41357W        W42221  22.680  23.044   0.886  0.1870  0.0156 -0.4226
41358W        W42222   9.356  26.978   6.851 -0.1595  0.2364 -0.0456
41359W        W42223  13.492  28.118  13.241 -0.1727 -0.0821  0.2102
41360W        W42224  19.187   4.604  19.889  0.2079 -0.0529  0.0259
41361W        W42225   2.150  18.119   3.843 -0.3354 -0.1502 -0.1324
41362W        W42226  25.457  11.844  27.865  0.1216  0.3292  0.1393
41363W        W42227   5.843  10.460  23.034 -0.0404  0.1946 -0.0378
41364W        W42228  13.492  16.439  20.211  0.1296 -0.1837 -0.1517
41365W        W42229  20.772  22.869  27.137 -0.0817  0.2686  0.1681
41366W        W42230   6.393  19.822   1.440 -0.0002  0.0301  0.2235
41367W        W42231   8.687  17.851   9.845  0.2628 -0.0012  0.1257
41368W        W42232  14.977  12.605   1.683  0.2606  0.2341  0.0713
41369W        W42233  26.164  12.052  27.230 -0.1972 -0.2236 -0.3471
41370W        W42234   1.283   0.292  17.473 -0.0141 -0.1937 -0.2706
41371W        W42235  11.372  10.770   6.720 -0.2777  0.0816 -0.0641
41372W        W42236   4.767   1.929   4.754  0.1635  0.3297 -0.0293
41373W        W42237   1.519  11.486  12.697  0.2619 -0.5700  0.0890
41374W        W42238   2.404  21.341  27.691 -0.0889  0.3292  0.3305
41375W        W42239  28.056  26.691   8.492  0.1482  0.0594 -0.2979
41376W        W42240   5.003   7.548  14.721 -0.1834 -0.2387  0.0571
41377W        W42241  12.704  19.791   5.725 -0.3049 -0.0402 -0.2055
41378W        W42242  18.049   7.321  18.139  0.2506  0.2525  0.0551
41379W        W42243   1.047   2.697   9.838 -0.1766  0.0135  0.1192
41380W        W42244   4.460  27.840   3.022 -0.1205 -0.2046  0.2480
41381W        W42245  14.098  13.827  12.474 -0.0201 -0.2063  0.1923
41382W        W42246  11.596   8.705  17.997  0.3334 -0.0534  0.1679
41383W        W42247  13.055  19.821  17.659  0.3766 -0.2818  0.0805
41384W        W42248  28.577  22.936  26.931 -0.1475  0.1136 -0.1417
41385W        W42249  21.002   7.940  11.224  0.2853 -0.0150  0.3705
41386W        W42250   6.764   3.854  24.514 -0.0790  0.0044 -0.0410
41387W        W42251  14.869  27.707   8.416  0.2122 -0.1117  0.0462
41388W        W42252   8.275  12.428   7.485 -0.0192  0.2577  0.0848
41389W        W42253   6.906  24.872  10.978 -0.2690  0.0003 -0.0850
41390W        W42254   7.602  29.097  25.131  0.2531  0.0392  0.1966
41391W        W42255  18.495  13.613  19.051 -0.3236 -0.0912  0.1228
41392W        W42256   8.236   0.269   3.196  0.2488 -0.0144  0.2529
41393W        W42257   9.323  18.772   7.431  0.1065  0.1039  0.1356
41394W        W42258  20.070  18.770  29.036  0.2609 -0.2291 -0.2570
41395W        W42259  25.028  17.628  22.485  0.0091  0.2269  0.1041
41396W        W42260   9.972  12.555  26.311  0.1209 -0.1329  0.0604
41397W        W42261  12.235  11.714  27.754 -0.1469 -0.2017  0.1778
41398W        W42262  18.331  12.275  25.261 -0.1924 -0.1992  0.2144
41399W        W42263  27.810  15.560   9.654 -0.3023  0.1788  0.0068
41400W        W42264  11.644   4.047  18.936 -0.1183 -0.2451 -0.2051
41401W        W42265  10.694  19.793   7.466 -0.0947 -0.1509  0.0688
41402W        W42266  25.671   5.418  24.381 -0.1583 -0.1614 -0.0441
41403W        W42267   2.021   9.461   1.339  0.2175 -0.1184  0.1679
41404W        W42268   7.156  20.492  20.037 -0.0701  0.0164  0.1040
41405W        W42269  24.711   1.851  23.150 -0.0498 -0.2674  0.1223
41406W        W42270  12.564   5.302   0.681 -0.0319  0.0144 -0.1274
41407W        W42271  16.220  17.753  19.453 -0.1206 -0.0744 -0.4259
41408W        W42272  25.164  17.823  26.109  0.0561  0.2431 -0.2474
41409W        W42273  27.428   8.499  21.225  0.0093  0.2963  0.0093
41410W        W42274   7.482  10.450   1.086 -0.1628  0.0504 -0.0616
41411W        W42275   4.963  15.263  21.507 -0.1416  0.3638  0.1266
41412W        W42276   9.585  16.128  10.054 -0.0988  0.0690  0.1694
41413W        W42277  17.607  26.074  19.553 -0.2525 -0.0135  0.0488
41414W        W42278   3.780  15.692   3.963  0.0719 -0.0824 -0.3880
41415W        W42279  28.116  22.877  15.667 -0.2613 -0.0173  0.0523
41416W        W42280  20.620   6.206  17.133 -0.0415 -0.0735 -0.1913
41417W        W42281  19.469  26.510  19.938 -0.0803  0.1793 -0.2168
41418W        W42282  15.749   9.810   3.113  0.2435  0.2669 -0.0456
41419W        W42283  25.374   2.023   4.340 -0.1809 -0.0446 -0.0703
41420W        W42284  21.819  10.082  22.329 -0.0434 -0.1248  0.2943
41421W        W42285   3.060  25.401  26.475 -0.0240  0.2456 -0.0564
41422W        W42286   4.693  21.006  27.596  0.0113  0.0687 -0.2039
41423W        W42287  17.493   2.243  22.256  0.5207  0.2005  0.1210
41424W        W42288   7.782  13.355  25.647 -0.1267 -0.0399  0.1953
41425W        W42289  25.008  24.308  27.784 -0.1579 -0.4771  0.0764
41426W        W42290   1.127  20.159   1.664  0.1147  0.3063  0.1045
41427W        W42291  24.664  11.275  10.436 -0.1080 -0.1987 -0.1915
41428W        W42292   4.025   4.462   4.335  0.0436 -0.2690 -0.1362
41429W        W42293   7.111  16.599  12.806  0.2247 -0.0932 -0.0152
41430W        W42294  25.302   0.570  24.147  0.1099  0.0591 -0.2011
41431W        W42295  25.754  21.493   7.631 -0.1172 -0.1310  0.2887
41432W        W42296   1.569  16.978   1.134  0.3494 -0.0266 -0.0117
41433W        W42297  23.735  15.116  26.130 -0.0856 -0.1322 -0.0348
41434W        W42298  18.646  10.045   1.295  0.3035 -0.0167  0.2630
41435W        W42299  12.573  16.440   4.396 -0.1024  0.0616 -0.1431
41436W        W42300  16.073   2.972   9.919 -0.0560 -0.1610 -0.2119
41437W        W42301   7.106  19.961   8.227 -0.0181  0.1121  0.0483
41438W        W42302   9.444  21.364  14.837  0.2266 -0.0537 -0.0411
41439W        W42303  12.688   7.593   4.023  0.2844  0.0194  0.3589
41440W        W42304   9.202   0.112  22.060 -0.0977  0.0823  0.3182
41441W        W42305  21.695  13.519   0.310 -0.0791 -0.1390 -0.1373
41442W        W42306   6.470  13.926  21.299  0.0393 -0.1145 -0.0911
41443W        W42307  21.031  15.147  26.699 -0.1282  0.0181 -0.2988
41444W        W42308  21.779  26.433  11.053  0.0526  0.1835 -0.2019
41445W        W42309  22.898   5.379  21.088  0.0198 -0.0937 -0.0373
41446W        W42310  27.853  20.872  26.768  0.1928 -0.0615  0.0628
41447W        W42311  15.475   4.599   2.818  0.2302 -0.1056 -0.1769
41448W        W42312   0.280   1.893  27.888  0.2235  0.1589  0.2670
41449W        W42313   7.701   0.327  21.388 -0.3078  0.2156 -0.1234
41450W        W42314   8.082  11.680  13.422  0.1483  0.0730 -0.3125
41451W        W42315   8.932  10.769  26.730 -0.0048  0.1033 -0.3597
41452W        W42316   0.642  15.538  22.409 -0.1932 -0.2544 -0.0882
41453W        W42317   6.091   8.556   6.639 -0.2158 -0.1527  0.1034
41454W        W42318   4.770   6.227  27.809 -0.3981 -0.0938  0.2405
41455W        W42319   9.472  19.240  11.025 -0.1698  0.0470 -0.0266
41456W        W42320  28.781  19.035  20.737 -0.1239 -0.2233  0.1456
41457W        W42321   4.507   7.080   5.370 -0.0538 -0.1044 -0.1670
41458W        W42322  28.938   8.056   2.410 -0.0253  0.1419 -0.0989
41459W        W42323   3.881   2.049  19.316 -0.0414  0.0921  0.0007
41460W        W42324  11.623  18.063  28.190  0.0047  0.1040 -0.0140
41461W        W42325  21.155  12.954  20.151 -0.1009 -0.2393 -0.0125
41462W        W42326  13.652  24.453  17.412  0.1516  0.0965  0.0287
41463W        W42327   7.708  11.150  26.344  0.1177  0.1639 -0.1830
41464W        W42328  17.617  21.374   3.767 -0.1997  0.1809  0.2886
41465W        W42329  18.423  13.071   8.949  0.0864  0.0357  0.1243
41466W        W42330   1.652  20.452  16.872 -0.3415 -0.0860  0.2697
41467W        W42331  26.930  24.270   9.665  0.0574 -0.0817  0.2273
41468W        W42332   5.378  15.524  21.485  0.2245  0.1955 -0.0198
41469W        W42333   6.406  15.564  25.239  0.2631  0.1466  0.2314
41470W        W42334   3.988  22.892  27.672  0.1480 -0.2630  0.1221
41471W        W42335  22.924  28.753  15.438  0.0799 -0.0205  0.3065
41472W        W42336   2.960  19.956  20.598 -0.0394 -0.1189  0.0852
41473W        W42337   9.579  22.848  21.586  0.2025  0.1954 -0.0973
41474W        W42338  24.641  12.667  11.574  0.3654 -0.3180 -0.1754
41475W        W42339   4.568  15.722   8.136  0.2538 -0.2047  0.0809
41476W        W42340   6.511  16.629  22.877  0.2431 -0.3130  0.0945
41477W        W42341  25.068  28.395   6.881 -0.0078 -0.1057  0.0947
41478W        W42342  10.704   2.972  15.470  0.0917  0.0533 -0.2066
41479W        W42343   1.967  26.346   8.939  0.0237 -0.0116  0.0904
41480W        W42344   7.740  12.948  23.875 -0.1970  0.1519 -0.0722
41481W        W42345  17.644   8.825  29.071 -0.0703 -0.0214 -0.0824
41482W        W42346  15.516   1.358  26.326  0.3170  0.0135  0.2025
41483W        W42347  19.158  18.012   3.486 -0.0504  0.4162 -0.3452
41484W        W42348  26.158   8.365   3.687 -0.1625 -0.1578 -0.1285
41485W        W42349   5.294  28.320  23.868  0.2400 -0.2431  0.2077
41486W        W42350  28.295  19.066   4.788 -0.2501  0.1318  0.3202
41487W        W42351  16.703   7.502  23.832  0.1730  0.2216  0.1796
41488W        W42352  20.882   1.779  22.177 -0.1479 -0.0784 -0.0650
41489W        W42353   6.317  13.294   5.146 -0.0437 -0.0788  0.1262
41490W        W42354  19.768  12.693  28.334  0.1193 -0.0526  0.0678
41491W        W42355   2.526   9.895  12.472  0.2894 -0.1429  0.3794
41492W        W42356  10.900  20.441  19.860 -0.0418  0.0648 -0.3179
41493W        W42357  24.785  15.989   3.235  0.0394  0.3010  0.0890
41494W        W42358   6.663   7.392  24.165  0.0645  0.0981  0.0412
41495W        W42359  12.670  22.079  24.760 -0.1189 -0.0713  0.0537
41496W        W42360  11.861   6.227  18.674  0.1678  0.0061 -0.2514
41497W        W42361  12.573  11.091  24.723  0.1249  0.3808  0.0218
41498W        W42362   9.030  21.966   1.033 -0.3245  0.2944  0.0166
41499W        W42363   6.274   2.076  15.418 -0.1128 -0.0424 -0.3514
41500W        W42364   8.792  12.065  14.026 -0.3620 -0.0666 -0.2185
41501W        W42365  17.169  19.822   5.932  0.0729 -0.1635  0.0949
41502W        W42366  10.659  13.244  14.420 -0.1439 -0.2786  0.2637
41503W        W42367  17.148  17.026  28.185 -0.0475  0.1114  0.0808
41504W        W42368  12.601  24.278  22.140  0.0879 -0.0901 -0.2641
41505W        W42369   6.138  13.433   7.631  0.0050  0.2311 -0.0761
41506W        W42370  21.451  21.878  24.290 -0.3552  0.0586  0.2234
41507W        W42371  21.738  27.489   2.836 -0.0166 -0.2387  0.1542
41508W        W42372  15.336  16.837   9.556  0.0761 -0.0609  0.0621
41509W        W42373   8.347  15.546   8.457 -0.0935 -0.0441  0.1269
41510W        W42374  15.903   7.225   4.571 -0.2023 -0.0557  0.3341
41511W        W42375  17.480   1.591   9.183 -0.1606  0.3672 -0.2245
41512W        W42376  14.468  15.637  18.301  0.0773  0.3057  0.0743
41513W        W42377   3.597  23.355   8.182 -0.0529 -0.1123 -0.3600
41514W        W42378  11.212  14.575  18.374 -0.0098 -0.3474 -0.0842
41515W        W42379   1.655  14.338  12.610 -0.0138  0.0921 -0.1694
41516W        W42380   7.217   6.476  27.820 -0.0110  0.0897 -0.1340
41517W        W42381  14.604  14.540   2.365  0.1706 -0.2071 -0.2012
41518W        W42382  19.730  23.473  26.217  0.4121 -0.0977 -0.0138
41519W        W42383  28.732  24.357  28.382 -0.0817  0.2558 -0.2141
41520W        W42384   3.567  22.985  18.302 -0.2833  0.2761  0.1353
41521W        W42385  19.039   4.984  25.825  0.1145 -0.0084  0.1487
41522W        W42386  14.144  14.603   4.071  0.1433 -0.0500  0.2219
41523W        W42387   5.431   8.699  28.790 -0.2247 -0.0117  0.1434
41524W        W42388  12.589   7.576  21.037 -0.2190  0.1946 -0.1097
41525W        W42389  22.148  11.877  20.962  0.1413  0.0034  0.2085
41526W        W42390   8.228   2.086   2.986 -0.0587 -0.4235 -0.1498
41527W        W42391  16.489   2.612   7.233 -0.0471 -0.2477 -0.0581
41528W        W42392  16.933  26.762   3.727 -0.0875 -0.2906 -0.1106
41529W        W42393  28.976  16.813  25.173 -0.2166 -0.1578  0.1448
41530W        W42394  15.969  20.423  22.562  0.1117 -0.3482  0.1505
41531W        W42395   8.118  18.455  24.590  0.1805  0.4010  0.1985
41532W        W42396  14.726  24.052  18.339 -0.0998  0.0582  0.1721
41533W        W42397   9.412  13.696   5.410 -0.1957  0.2558  0.2406
41534W        W42398  26.891   3.437   9.431  0.0530  0.2788 -0.0077
41535W        W42399  25.654  28.661  24.861  0.0614  0.1618 -0.0198
41536W        W42400   4.737   0.712  22.512  0.0371 -0.0473 -0.1474
41537W        W42401  25.047  27.477  22.019 -0.3932  0.1232  0.2003
41538W        W42402  20.826  15.041  21.688  0.1369  0.1496  0.0144
41539W        W42403  28.813  12.793   4.529  0.2661  0.1900 -0.1999
41540W        W42404   0.409  11.202  22.743 -0.1644  0.1129  0.2120
41541W        W42405   2.975  18.664  23.785 -0.0441  0.0884  0.1341
41542W        W42406  18.130  21.927  22.966 -0.0847 -0.0029  0.1211
41543W        W42407  20.201  17.397   4.365  0.1556  0.1577 -0.1587
41544W        W42408   2.135   1.448   6.036  0.0304 -0.0278 -0.1250
41545W        W42409   3.104  22.089   3.050  0.0586  0.2796  0.2515
41546W        W42410  21.295  18.003   2.399  0.0931 -0.2116 -0.0992
41547W        W42411  27.940   9.654  28.100  0.0590  0.0031 -0.0986
41548W        W42412  16.699   3.054   4.955  0.0547 -0.3397 -0.0515
41549W        W42413  26.539   8.695  26.127  0.0361 -0.1322  0.1539
41550W        W42414  20.163  12.334   1.805  0.1811 -0.2545 -0.0974
41551W        W42415   7.331  27.341   2.038 -0.2490 -0.0445  0.1179
41552W        W42416   9.405   9.744  16.511 -0.0705 -0.0852  0.1507
41553W        W42417  22.828  22.671  20.843  0.1897  0.0417  0.1677
41554W        W42418   6.238  21.539   0.927 -0.2513  0.0465 -0.1946
41555W        W42419   2.442  17.156   1.271  0.0025  0.0285 -0.0470
41556W        W42420  12.924   2.128   7.101  0.0390  0.3303  0.1873
41557W        W42421  23.392  13.887  22.089 -0.2076  0.0703 -0.1870
41558W        W42422  17.934  22.216  25.167 -0.3224  0.0755 -0.1183
41559W        W42423  26.757  17.017   9.875  0.0531 -0.3528 -0.0043
41560W        W42424   4.764   6.865  14.639  0.1833 -0.0154 -0.0089
41561W        W42425  23.412  26.927   7.460 -0.1908  0.1067 -0.0561
41562W        W42426  10.223  17.467  21.788  0.1783  0.3482 -0.0890
41563W        W42427  16.717  14.230  27.168 -0.0757 -0.0853 -0.1776
41564W        W42428  24.730   4.048  27.547  0.0603  0.0116 -0.4006
41565W        W42429   1.018  10.373   1.115  0.1576  0.0309  0.0160
41566W        W42430  23.979  25.216  25.611 -0.0113  0.2170  0.5240
41567W        W42431  17.437   3.968  15.687 -0.2068 -0.0809  0.1979
41568W        W42432   6.153  19.692  11.031  0.1586  0.0326  0.2432
41569W        W42433  10.514  23.796  24.972  0.2383 -0.2472 -0.1248
41570W        W42434  16.235   5.871  10.003 -0.1849 -0.2337 -0.0008
41571W        W42435   6.567  18.721   3.172 -0.1946 -0.3172 -0.0013
41572W        W42436   8.553  13.864  27.654 -0.0819  0.0335  0.1663
41573W        W42437   8.464  22.148   1.254 -0.0173  0.3729  0.0794
41574W        W42438  24.492   8.503   1.903  0.1021  0.1242 -0.2265
41575W        W42439   0.825   3.323   8.495  0.1385  0.0717 -0.1325
41576W        W42440  26.057   4.395  22.980  0.3164 -0.5027  0.0344
41577W        W42441  27.834  14.072  27.392  0.0073  0.1468 -0.0006
41578W        W42442   0.688   3.990  28.498  0.1955 -0.0280 -0.0159
41579W        W42443  16.277  13.060   1.571 -0.2492 -0.1537 -0.0089
41580W        W42444   9.127   6.054  11.744 -0.0791  0.2614 -0.1739
41581W        W42445  21.315  27.551   4.864 -0.1134  0.2097 -0.0140
41582W        W42446   6.499  18.874   4.677  0.2767  0.3390 -0.0770
41583W        W42447  28.667  14.966   2.261  0.2936  0.0043  0.1285
41584W        W42448  27.416  14.937  23.463  0.1845  0.0392 -0.0266
41585W        W42449   8.874  21.692  16.828  0.0634 -0.2187 -0.2131
41586W        W42450   8.567  28.843  12.198 -0.2145 -0.3309  0.0660
41587W        W42451   0.135  15.087  11.298 -0.0842 -0.0852 -0.3899
41588W        W42452  18.032   8.431  28.990 -0.0167 -0.0123  0.1258
41589W        W42453  12.094  22.556   6.542  0.4471  0.0169 -0.0293
41590W        W42454  16.617  14.149   2.479 -0.3278  0.3937  0.4193
41591W        W42455   9.422  24.258  18.538  0.1786  0.1098  0.0754
41592W        W42456  25.537  18.386   3.247  0.0934  0.2392  0.1328
41593W        W42457   8.136  28.093   3.272 -0.0794  0.1775 -0.0426
41594W        W42458   0.108   6.905  24.556  0.0962  0.1182  0.0749
41595W        W42459   1.427  22.640   4.383 -0.0368  0.0983 -0.1446
41596W        W42460   3.428   2.258  29.049  0.1969  0.1664 -0.0696
41597W        W42461  12.045  13.590  27.666 -0.3873  0.1612  0.4435
41598W        W42462  27.291  18.594   4.057 -0.1242  0.0263 -0.1860
41599W        W42463  22.663   6.931  20.036 -0.1173  0.3162  0.1670
41600W        W42464  28.920   2.490   4.776  0.1987 -0.1472 -0.4670
41601W        W42465  28.654   1.190  17.698  0.2325  0.1418  0.1157
41602W        W42466  28.194  21.961   8.590 -0.0186 -0.1802 -0.1560
41603W        W42467  13.139  22.678   1.223  0.1859 -0.0776  0.1039
41604W        W42468   5.407   6.859  17.002  0.0545  0.1119 -0.1891
41605W        W42469  28.667  15.365   4.627  0.1459  0.1016  0.1894
41606W        W42470   1.190  10.685  18.044 -0.3926 -0.0625 -0.1724
41607W        W42471  11.406  23.637   2.332  0.0533  0.2864 -0.2001
41608W        W42472  11.621  15.398  19.376  0.1217 -0.0490  0.1187
41609W        W42473   9.755  10.136  18.263  0.0900  0.2757 -0.1393
41610W        W42474  24.717  19.236  17.770 -0.1768  0.1328  0.2621
41611W        W42475  10.229   9.808   2.631 -0.0024  0.0582  0.1748
41612W        W42476  11.480  13.194  19.685 -0.1850  0.0378  0.0934
41613W        W42477  28.651   2.577  27.596 -0.2058 -0.4013  0.2948
41614W        W42478  24.835  26.790  28.767  0.1048 -0.1094 -0.0813
41615W        W42479   9.882  24.960  22.441 -0.4515 -0.0839  0.1296
41616W        W42480  24.725   4.956  16.003  0.0443 -0.3366 -0.0486
41617W        W42481  27.083   1.140   6.914  0.0854  0.3350  0.1318
41618W        W42482  25.174  18.508   0.875 -0.2276  0.1139  0.1796
41619W        W42483  21.048   5.698  15.743 -0.0353  0.0441  0.0456
41620W        W42484  24.769  14.211   3.153  0.4208 -0.0535 -0.2911
41621W        W42485   9.366   0.817  18.837 -0.1365  0.1892 -0.1721
41622W        W42486  18.319   3.207  28.037 -0.1081  0.3431  0.0815
41623W        W42487  26.656  16.893   7.884  0.3006 -0.0166  0.2051
41624W        W42488  18.239  21.214   7.015 -0.1768  0.0092 -0.1898
41625W        W42489   6.471   1.000  23.470 -0.2267 -0.1501  0.0977
41626W        W42490  24.229   9.677   1.703 -0.1241 -0.1537  0.1216
41627W        W42491  26.665   4.132  25.426  0.2261  0.0789 -0.0030
41628W        W42492   9.781  25.957   7.205  0.0662  0.0065  0.1210
41629W        W42493   6.202  15.538  15.334  0.2183  0.0164 -0.2379
41630W        W42494  14.053  11.551   1.959 -0.2219  0.0466 -0.2496
41631W        W42495  28.231   0.789  16.667 -0.0935 -0.2779 -0.0329
41632W        W42496  19.613   0.853   0.701 -0.0045 -0.0488 -0.1059
41633W        W42497  25.526  15.479  22.640 -0.2357 -0.0382  0.0373
41634W        W42498   8.445   7.914   3.945 -0.2423  0.1455 -0.1818
41635W        W42499   8.517  14.436  27.771  0.2243 -0.2862  0.0012
41636W        W42500  16.423   0.311  12.252 -0.1368  0.4715  0.2038
41637W        W42501  11.652   9.509   2.954 -0.3777  0.1657  0.0452
41638W        W42502   9.375  19.209   2.842 -0.0369 -0.0030  0.2653
41639W        W42503   4.225  18.479  13.262  0.1058  0.4247  0.2560
41640W        W42504  28.034  15.021  22.889  0.2381 -0.1918  0.6298
41641W        W42505  25.758  12.629   0.896  0.1708 -0.0567 -0.1101
41642W        W42506  23.497  17.842   1.851 -0.0383 -0.1761  0.2422
41643W        W42507   6.392   4.628  25.203  0.0076 -0.2417  0.1975
41644W        W42508   5.711  18.357  21.829 -0.1572 -0.0954 -0.0098
41645W        W42509  20.172   0.996   9.615  0.0343  0.1622  0.2544
41646W        W42510   4.196   1.048  10.495  0.2740 -0.3353  0.2888
41647W        W42511   7.426  19.975   3.930  0.2922  0.0373  0.0079
41648W        W42512  27.153  12.784  10.061 -0.2761  0.0347 -0.2340
41649W        W42513   5.066  11.596  24.173 -0.0924  0.1557 -0.2503
41650W        W42514   0.637   3.904  14.539  0.3552 -0.4008  0.0910
41651W        W42515  15.262  14.169   7.118  0.0602  0.1230 -0.1050
41652W        W42516  13.379  15.684  12.481 -0.1622 -0.1251 -0.2654
41653W        W42517   2.972  16.432   5.321 -0.0041 -0.0370  0.1824
41654W        W42518   3.805  21.590   8.194 -0.3012 -0.1044  0.0637
41655W        W42519   2.172  26.892  16.816 -0.1241 -0.0531  0.1613
41656W        W42520   5.642  12.833  26.025 -0.1984  0.1194 -0.2299
41657W        W42521  16.981  17.186   3.378  0.0554  0.0663  0.1121
41658W        W42522   6.265  24.520  15.759  0.0491  0.0295  0.2536
41659W        W42523   5.141  11.463  25.014  0.1145  0.3613  0.2129
41660W        W42524  27.415  26.134  22.655 -0.1046  0.0622  0.4890
41661W        W42525  18.160  14.378   1.752 -0.1498  0.2282  0.4362
41662W        W42526   6.739  11.516  17.302  0.3479 -0.0587  0.2497
41663W        W42527   0.346  16.473  17.177 -0.1169  0.0901 -0.1157
41664W        W42528  28.259  13.953  15.283  0.2537 -0.0820 -0.0440
41665W        W42529  18.559   5.151  13.359  0.1436 -0.3052 -0.3477
41666W        W42530  12.574  28.142   5.252 -0.5104  0.1198  0.3673
41667W        W42531   1.434   2.842   6.989  0.3843 -0.1268 -0.0188
41668W        W42532  28.030  17.776  24.440  0.1484  0.1413 -0.0881
41669W        W42533  28.747  22.623   5.172 -0.2457 -0.0848  0.2426
41670W        W42534   3.263  18.796  27.323 -0.1550 -0.1761 -0.1265
41671W        W42535  29.004   8.294  18.565 -0.1196  0.1132 -0.3302
41672W        W42536  11.357  23.096  10.295 -0.0722 -0.0220 -0.1610
41673W        W42537  25.077  23.557  20.081 -0.3110 -0.0218  0.3355
41674W        W42538  10.029  23.527   4.817  0.1130  0.2489  0.1536
41675W        W42539  25.567  15.907  17.765 -0.1304 -0.2675 -0.1718
41676W        W42540   4.700   7.396  26.376 -0.3113  0.0224 -0.0112
41677W        W42541   2.757  15.367  25.354 -0.0658 -0.0866 -0.0365
41678W        W42542  14.565  14.293  24.137  0.0775 -0.2256 -0.3354
41679W        W42543   6.162  13.310  19.304  0.1062 -0.0708  0.2160
41680W        W42544  23.921  12.138  21.765  0.2334 -0.3384 -0.0716
41681W        W42545   2.043  23.082  15.769 -0.0011 -0.0165  0.1973
41682W        W42546  12.787  15.329  15.653 -0.2543  0.1500  0.1967
41683W        W42547   9.601  16.268  26.322 -0.1338  0.0583  0.0080
41684W        W42548   4.501   6.131   0.534  0.0947  0.2932 -0.2664
41685W        W42549  23.304  17.635   5.024  0.1930 -0.1849 -0.2470
41686W        W42550   1.508  15.351   9.711  0.0756 -0.0775  0.0316
41687W        W42551   6.845  16.810  19.237  0.2447  0.1327 -0.1819
41688W        W42552  11.553   3.098  18.442 -0.0661  0.2010  0.0776
41689W        W42553  18.287  10.170  13.376 -0.2506  0.0612 -0.2594
41690W        W42554  28.713   1.569  26.187  0.0425 -0.2950 -0.3718
41691W        W42555  22.117  18.396  21.860  0.2188  0.3423  0.1118
41692W        W42556  22.859   2.434   2.104 -0.1085  0.2291 -0.4024
41693W        W42557   5.097  17.501  19.244 -0.1542 -0.0387 -0.0221
41694W        W42558   9.335   0.874  11.905 -0.0609 -0.0358 -0.1511
41695W        W42559  15.274  17.276  25.135  0.0874 -0.1990 -0.0576
41696W        W42560  28.448  12.184  26.149  0.3491  0.2331  0.0396
41697W        W42561   8.281  18.731   3.940 -0.0488 -0.0861 -0.2968
41698W        W42562   4.520  23.966  27.360 -0.2511 -0.0394  0.0439
41699W        W42563   5.948  10.910  12.323 -0.0950  0.1282 -0.1830
41700W        W42564  24.414  20.271   7.403  0.4610  0.0820  0.1284
41701W        W42565   6.299  17.797   7.669  0.2016 -0.0667 -0.1408
41702W        W42566   5.704   2.659  13.198 -0.1240  0.0389 -0.1673
41703W        W42567  14.904  19.986  18.687 -0.1932 -0.2868 -0.1346
41704W        W42568   9.554  13.581  22.599  0.1116 -0.3206  0.3960
41705W        W42569   3.148  28.234  16.163 -0.2345  0.4580  0.1471
41706W        W42570  16.279   1.357  18.576  0.3386  0.0968 -0.2827
41707W        W42571  26.032   4.503  14.693 -0.0237  0.1334 -0.2976
41708W        W42572   4.398  16.180  23.897 -0.0126 -0.0174 -0.2167
41709W        W42573  24.968  13.701  10.924  0.0955  0.1949  0.0869
41710W        W42574  15.793  24.071   5.214 -0.2001  0.0451 -0.2049
41711W        W42575  12.511   6.028   4.745 -0.3065 -0.0150  0.1250
41712W        W42576  10.451  15.134  24.204  0.2291  0.0259  0.1329
41713W        W42577   4.319  10.679  13.303 -0.2535  0.0123 -0.0087
41714W        W42578  23.325   9.163   9.989  0.0723  0.4625  0.2422
41715W        W42579  11.817  10.256   3.535 -0.2718 -0.0975  0.0896
41716W        W42580  23.905  15.381  24.051 -0.2397 -0.4412 -0.1336
41717W        W42581  15.942  22.246  27.687  0.1119  0.1171 -0.0882
41718W        W42582   6.238  15.784  26.478  0.2776  0.1323  0.0040
41719W        W42583  23.738   3.202   3.891 -0.3171  0.1812  0.1109
41720W        W42584  12.820   4.613  12.470 -0.1657  0.0535  0.0258
41721W        W42585   4.016   5.676  23.025 -0.1997  0.0774  0.2927
41722W        W42586   0.390   8.185   7.356 -0.1471  0.3361  0.2592
41723W        W42587  12.330   8.969   3.414 -0.3281 -0.1135  0.1217
41724W        W42588   7.754   1.704  11.780 -0.0314  0.1288  0.0942
41725W        W42589   9.482  13.966  26.679  0.0055 -0.1628 -0.2252
41726W        W42590  15.695   3.553  21.395  0.0498  0.2179 -0.3557
41727W        W42591   6.713   1.445  23.800  0.2775  0.3298 -0.3014
41728W        W42592   3.836  20.371   8.757 -0.0408  0.1817  0.1151
41729W        W42593   5.918  19.253  20.406 -0.2552 -0.2246  0.0425
41730W        W42594   9.972  16.920  29.127 -0.3166 -0.1901 -0.0866
41731W        W42595  24.574  10.005   1.300  0.1453 -0.0479  0.1431
41732W        W42596  27.525   1.410   8.551 -0.0292 -0.1991 -0.1030
41733W        W42597  18.882  22.520  25.169  0.0463 -0.1168  0.1239
41734W        W42598  21.043  18.885   2.246 -0.0082 -0.0107 -0.0177
41735W        W42599  10.850  14.957  25.842  0.3663  0.2016  0.1916
41736W        W42600  28.283  12.810   4.461 -0.1201  0.0762  0.0569
41737W        W42601   8.668   4.596   8.065 -0.1338 -0.1202  0.1069
41738W        W42602  21.256  26.200  23.200  0.0728 -0.0180 -0.1623
41739W        W42603   1.178  14.433  18.880  0.2380 -0.0734  0.0608
41740W        W42604  11.387  22.960  18.247 -0.1572 -0.1458 -0.0203
41741W        W42605   2.718  11.995  20.196 -0.0139 -0.1398  0.0120
41742W        W42606   1.871  23.369   7.670  0.1771 -0.2011 -0.1301
41743W        W42607  12.068  25.391  24.790  0.2634 -0.4145  0.1273
41744W        W42608   4.767  29.014  17.839 -0.2045  0.3999 -0.0436
41745W        W42609  10.721  24.053  21.662  0.1357  0.3135  0.3817
41746W        W42610  14.585  13.868  12.186 -0.0586  0.0085  0.1332
41747W        W42611  26.949   2.599  24.027 -0.0425  0.1432  0.0243
41748W        W42612  24.921  26.080  17.690  0.4525  0.2224 -0.2667
41749W        W42613  11.317  22.266  25.766  0.1520  0.1117 -0.1011
41750W        W42614  13.148  20.522  28.253 -0.0109  0.0779 -0.0652
41751W        W42615  17.756  25.984  11.563 -0.0950 -0.0588 -0.0814
41752W        W42616  17.640  13.231  26.780 -0.0696  0.1945  0.3325
41753W        W42617   4.833  26.718  22.542 -0.2021  0.0575 -0.1051
41754W        W42618   0.231   9.109   0.472  0.0667  0.0959 -0.1888
41755W        W42619   9.010  24.845   3.897  0.0268 -0.1876  0.2554
41756W        W42620  12.569  22.379   5.407 -0.4310 -0.1765  0.0507
41757W        W42621  27.324   0.347   0.265  0.0839 -0.0791  0.0585
41758W        W42622  15.465  14.081   1.413  0.2050  0.0552  0.1848
41759W        W42623   5.591  12.050   7.448  0.2763  0.2866 -0.0231
41760W        W42624  29.138  14.169  16.392 -0.1395  0.0085  0.1146
41761W        W42625  14.995  11.554  25.051  0.1269 -0.0182  0.0609
41762W        W42626   8.020  13.503  24.670 -0.3784 -0.0515  0.1204
41763W        W42627   9.130  17.815  13.834 -0.3201  0.0430 -0.1706
41764W        W42628  24.793  17.436  16.275  0.3262 -0.2407 -0.1752
41765W        W42629   9.401   9.267   2.774 -0.1937  0.1561  0.1279
41766W        W42630   7.844  20.288  14.401  0.0159 -0.0286  0.0948
41767W        W42631   4.347   2.559  24.900  0.0439  0.0864 -0.1553
41768W        W42632  12.603   7.320  26.118 -0.3448 -0.0588  0.0630
41769W        W42633  25.788  15.049   7.630 -0.0519  0.3467  0.1342
41770W        W42634   0.839  20.712  13.353 -0.2124 -0.1035  0.0760
41771W        W42635  21.289   0.170   8.935  0.0857  0.2025  0.1923
41772W        W42636  14.572  16.144   8.956  0.1992  0.2403 -0.2567
41773W        W42637  12.713  20.498  16.500  0.0009 -0.1009  0.1955
41774W        W42638   2.205   9.243  11.739 -0.0720  0.0658  0.0342
41775W        W42639  23.856  11.920  25.394  0.0804  0.1390 -0.2146
41776W        W42640  13.611  25.889  26.334 -0.0808 -0.0319 -0.1360
41777W        W42641   9.327   9.316   7.460 -0.0667 -0.0115  0.0774
41778W        W42642  17.546   4.158   0.214  0.0640 -0.1027  0.0484
41779W        W42643  22.774  27.417  25.736  0.1216  0.2747 -0.2362
41780W        W42644  11.290   9.114  26.448 -0.0604 -0.2008 -0.1136
41781W        W42645  23.575  15.486  19.611  0.0297 -0.2192  0.3965
41782W        W42646   2.959  15.035  11.319  0.0380 -0.5165  0.2932
41783W        W42647  24.142  28.981  10.575  0.0454  0.1974  0.1175
41784W        W42648  29.120   8.272   6.547 -0.1470  0.1504 -0.2327
41785W        W42649  29.048  24.265   4.836  0.2304 -0.3453  0.1937
41786W        W42650  15.570   6.186   4.278 -0.0363 -0.1253  0.0199
41787W        W42651  26.144   9.966   2.728 -0.0856  0.1300  0.1258
41788W        W42652  27.103  10.089  22.249 -0.2274  0.1773  0.2247
41789W        W42653   0.589   0.382   0.342  0.1654  0.2082  0.1423
41790W        W42654   2.079   2.892  19.865 -0.0163  0.3177 -0.2921
41791W        W42655   3.744   9.349  21.102 -0.0213 -0.1103 -0.0482
41792W        W42656  24.599   1.326  16.074 -0.1941  0.2861 -0.3652
41793W        W42657  24.093  10.693   9.361 -0.2193  0.2311 -0.2567
41794W        W42658   5.299  20.417  16.167 -0.1393  0.0637  0.1722
41795W        W42659  16.181  13.357  26.428  0.1090  0.0227  0.1438
41796W        W42660  27.983  20.172  21.011 -0.0769  0.4157 -0.3091
41797W        W42661   5.697   4.402  18.222  0.2046  0.0440 -0.1264
41798W        W42662  22.872  10.834  14.342  0.2029  0.0029  0.0553
41799W        W42663  27.612  21.356  11.857  0.0229 -0.1337 -0.3308
41800W        W42664   3.712  18.024  28.802 -0.1412 -0.1027 -0.2143
41801W        W42665   9.205  11.581   4.041 -0.0580  0.0516 -0.1277
41802W        W42666   4.844  17.720   7.461  0.0819 -0.0777 -0.1481
41803W        W42667  25.061  10.042   5.111 -0.0274  0.1801  0.2181
41804W        W42668  15.491  23.153  13.425  0.3067 -0.1627 -0.3248
41805W        W42669   9.972   5.547  24.668  0.2374 -0.1746  0.0624
41806W        W42670   6.182  15.796  28.412 -0.2346 -0.2095  0.1900
41807W        W42671  11.100  10.072   0.251  0.0223 -0.0044 -0.0034
41808W        W42672  19.960   2.428  25.354  0.0655 -0.1600 -0.2073
41809W        W42673   6.103  26.122  28.044 -0.2421 -0.4089  0.2798
41810W        W42674  18.579   2.547  28.777  0.0159 -0.1899 -0.0617
41811W        W42675  10.786  21.835   5.466  0.1519  0.0830  0.3443
41812W        W42676  26.155  22.843  16.981 -0.0049  0.0409  0.2619
41813W        W42677   2.336  16.135  16.540  0.0086  0.0395  0.3565
41814W        W42678  27.626  17.954  25.344 -0.1788 -0.1838 -0.1482
41815W        W42679  14.991  20.555  20.077 -0.1608  0.1406 -0.4078
41816W        W42680  12.181  14.465   5.605  0.0012 -0.0854 -0.1290
41817W        W42681   1.470  15.986  17.997 -0.4432 -0.1234  0.0921
41818W        W42682  24.450  21.354   2.855  0.1150  0.0927 -0.2637
41819W        W42683  11.716  25.172  25.532  0.1050  0.1144  0.1799
41820W        W42684  28.751   8.445  28.352 -0.0208  0.3014 -0.1089
41821W        W42685  22.341   3.434  12.059 -0.0865 -0.1035  0.0377
41822W        W42686  27.976   2.336  21.805 -0.1545 -0.2403 -0.0708
41823W        W42687  11.051  22.720  10.546  0.1554 -0.1830  0.0631
41824W        W42688   8.287   9.711  21.273 -0.1360 -0.1269  0.1074
41825W        W42689  23.446  20.439  14.538 -0.0401  0.0355 -0.1165
41826W        W42690  17.636  28.215   0.253  0.0007  0.0548  0.3216
41827W        W42691   3.435  26.273   0.190  0.1028  0.1113  0.2657
41828W        W42692   1.658  17.019  21.380  0.1226  0.1981  0.0086
41829W        W42693  10.409   2.233  15.270  0.3888  0.0987  0.0311
41830W        W42694  14.810  19.176   4.380 -0.1511  0.2465  0.1380
41831W        W42695  24.701  13.794  22.858 -0.3979  0.2775 -0.0284
41832W        W42696   6.405  21.401  19.582 -0.1142 -0.2267  0.1014
41833W        W42697   4.691  14.076   8.321  0.0528 -0.2024  0.0876
41834W        W42698  23.183   5.671  11.416  0.1402  0.4602  0.0705
41835W        W42699  15.552  24.129   2.784  0.1840 -0.0002 -0.2177
41836W        W42700  19.629  22.842  24.916 -0.1511 -0.0370 -0.0100
41837W        W42701  25.901  26.380  10.393 -0.1209 -0.0849 -0.3398
41838W        W42702   2.770   9.054  18.861 -0.0384 -0.1013  0.2027
41839W        W42703  29.125  20.096  19.472 -0.4374 -0.1648 -0.0474
41840W        W42704  13.656   0.423  19.551  0.0909  0.1992  0.1652
41841W        W42705  26.709  26.382  18.298 -0.3672 -0.0216  0.0734
41842W        W42706  21.330  10.231   2.397  0.1716 -0.2829  0.0761
41843W        W42707  19.990  23.534  29.096 -0.2243  0.1203  0.1457
41844W        W42708  11.188  23.724   3.860  0.1639 -0.0387 -0.1726
41845W        W42709  20.930  12.597   3.184 -0.0152 -0.2454  0.0284
41846W        W42710   6.743  26.127  13.547  0.0709  0.0759  0.2110
41847W        W42711  11.019  16.070  15.574  0.0484 -0.0902 -0.0555
41848W        W42712   4.026   6.743  12.430 -0.3093 -0.2272  0.2566
41849W        W42713   6.574  22.913  18.012 -0.0993  0.0429  0.1011
41850W        W42714  28.667  19.599   6.384 -0.1172 -0.3831  0.0617
41851W        W42715   3.144  20.821  28.582  0.1628  0.2113  0.1285
41852W        W42716  12.953   5.202   1.013 -0.1743 -0.3420 -0.1242
41853W        W42717   5.450   9.157  14.929 -0.0320  0.1616 -0.0866
41854W        W42718  25.128  12.120   5.171  0.0406 -0.2456  0.1430
41855W        W42719   3.709  24.922   8.923 -0.1718  0.0629 -0.0226
41856W        W42720   7.322  22.307   0.737  0.1319 -0.0623  0.3932
41857W        W42721   8.679  27.652  10.412 -0.1240  0.1397 -0.1916
41858W        W42722   1.844  26.372   1.392  0.3446 -0.2023 -0.1064
41859W        W42723  14.715  20.374  10.550 -0.0660  0.2879 -0.0990
41860W        W42724  11.038   1.055  18.295 -0.0624 -0.2379 -0.2281
41861W        W42725   5.164  18.097   7.444 -0.2409 -0.2213  0.0875
41862W        W42726  13.186  11.086  27.211 -0.0066  0.2292 -0.4285
41863W        W42727   1.846   4.696   3.454  0.2246 -0.0170  0.1154
41864W        W42728  23.969  27.232  19.044 -0.0214  0.0587 -0.2332
41865W        W42729   5.843  24.984  22.168  0.1944  0.0323 -0.3193
41866W        W42730  20.135  12.694   7.563  0.0557 -0.2660 -0.0014
41867W        W42731  11.090  16.291   5.058 -0.0139 -0.1749  0.1941
41868W        W42732  10.736  12.645   8.842  0.1692  0.2121 -0.1511
41869W        W42733  22.082  23.287  27.624  0.0149  0.1431 -0.0955
41870W        W42734  28.147  12.760  19.577 -0.0154 -0.0040  0.1248
41871W        W42735   5.440  26.862  17.571  0.1282 -0.1041 -0.0618
41872W        W42736  20.842  28.613  12.050 -0.0429 -0.0948 -0.1364
41873W        W42737  14.125  25.896  16.305 -0.1652  0.2978  0.2428
41874W        W42738  26.552  13.257   1.666  0.1069  0.2181 -0.2562
41875W        W42739  12.401  10.998  19.960  0.6526  0.1752  0.0462
41876W        W42740  23.965  16.679   1.053  0.1818 -0.1958  0.1301
41877W        W42741   1.951  17.544  14.792 -0.0158 -0.0787 -0.1640
41878W        W42742  19.132   6.729   2.109  0.1530  0.1312  0.2069
41879W        W42743  14.037  15.630  22.105  0.0257 -0.1613  0.0213
41880W        W42744  27.143  24.073  15.311 -0.0955 -0.1344 -0.4445
41881W        W42745  15.627  10.216   1.056  0.0199  0.0664  0.0478
41882W        W42746   0.775  10.811   2.661  0.0386  0.1524  0.1523
41883W        W42747  13.538  10.326   5.421 -0.0607  0.4212  0.1204
41884W        W42748  15.915   6.300   8.249 -0.0823  0.0690 -0.2037
41885W        W42749  15.888  20.744   1.778 -0.1295  0.0555 -0.0939
41886W        W42750  21.704  24.123  22.435  0.1114  0.0161 -0.3777
41887W        W42751  25.971  18.028   1.828  0.1468  0.2512  0.1326
41888W        W42752   8.602   0.690   4.457 -0.1080 -0.4009  0.1559
41889W        W42753   5.489  15.515  17.743 -0.1309 -0.2264  0.0908
41890W        W42754  15.135  14.200   5.158 -0.0507 -0.1101  0.2092
41891W        W42755  18.785  20.363   8.143  0.3002 -0.0930 -0.3971
41892W        W42756   7.411  15.577  11.173 -0.0143 -0.1260  0.0623
41893W        W42757  14.056  15.156  18.269 -0.2617 -0.2828 -0.1051
41894W        W42758   0.598  27.493  23.273  0.1501 -0.0958 -0.0684
41895W        W42759  21.174  26.786   5.568  0.1299 -0.1914 -0.0392
41896W        W42760   9.382  16.847   9.018 -0.0058 -0.0772 -0.2289
41897W        W42761  12.285  22.787  10.214  0.1027 -0.3395  0.0902
41898W        W42762   1.909  10.507  23.628  0.5610 -0.2411 -0.1070
41899W        W42763   6.186   1.912  14.971 -0.1119 -0.0016  0.1692
41900W        W42764   9.078   4.576  26.621 -0.1662  0.3399  0.1052
41901W        W42765   2.864  23.034  20.706  0.1608 -0.1104  0.0543
41902W        W42766   3.942  19.757   4.932 -0.0175 -0.1078  0.0507
41903W        W42767   2.739  15.868   8.919 -0.1690 -0.0359 -0.1851
41904W        W42768  19.259  12.954  17.445  0.0364  0.0706  0.0207
41905W        W42769   9.503   6.989  14.470 -0.1402  0.0352  0.1657
41906W        W42770   5.675   3.470  21.027  0.0358 -0.3096  0.1126
41907W        W42771  22.369  25.452  25.350  0.2810 -0.1756  0.1485
41908W        W42772  16.780  11.350  12.988 -0.1348 -0.2895 -0.1662
41909W        W42773  25.806   3.676  20.778 -0.0757  0.0572  0.2014
41910W        W42774  18.275  24.095  24.748  0.0933 -0.0660 -0.2278
41911W        W42775   9.425  10.158  24.760  0.0874  0.2653 -0.1972
41912W        W42776  11.697  20.484  22.127 -0.1612  0.2175 -0.4508
41913W        W42777  16.156  27.633  18.941  0.0509 -0.1211  0.0330
41914W        W42778  22.434  19.140  10.068 -0.1199  0.0643 -0.0693
41915W        W42779   3.912  28.524  18.735  0.0544 -0.3134  0.1127
41916W        W42780  26.032  20.653  21.315  0.0852  0.1759 -0.1164
41917W        W42781  13.227  26.155   1.482  0.0627  0.0016  0.1055
41918W        W42782   5.964  13.481   0.253 -0.3142  0.4860 -0.1420
41919W        W42783  23.086  20.554  21.073 -0.0077  0.0289  0.0876
41920W        W42784   1.835   8.078  13.351 -0.0234  0.0170  0.1439
41921W        W42785  26.125  20.889  11.018  0.1437 -0.0648 -0.1147
41922W        W42786   4.217  11.072  26.104  0.2376  0.1482  0.1125
41923W        W42787   1.503  26.505  27.123 -0.0658 -0.0711  0.0273
41924W        W42788   0.069  22.601  20.044 -0.0132 -0.2408 -0.0378
41925W        W42789   7.185   7.320  10.168 -0.0142  0.3478 -0.0390
41926W        W42790   0.722   6.275   5.804 -0.2212 -0.1191 -0.0165
41927W        W42791   1.956  21.081   6.906 -0.0835  0.0998 -0.1686
41928W        W42792  15.580   1.845  13.680 -0.3691 -0.1290 -0.1489
41929W        W42793  14.214  17.481  10.672 -0.2286  0.0683  0.2211
41930W        W42794  16.797   0.635  13.013 -0.1228 -0.3709  0.0797
41931W        W42795   4.043  20.068   8.322 -0.2302 -0.2487 -0.1182
41932W        W42796  10.336  18.834  17.832  0.1261  0.3120  0.2992
41933W        W42797   0.125  19.906  10.944 -0.2482 -0.1110  0.3663
41934W        W42798  13.336  24.424  22.639 -0.0796  0.0911  0.0334
41935W        W42799  22.291  21.520   4.305  0.0515 -0.2806  0.0572
41936W        W42800  26.693  22.815   0.209 -0.1083 -0.0241 -0.3237
41937W        W42801  26.276  17.347   5.328  0.0463 -0.1257  0.3023
41938W        W42802   0.791  17.707  19.687  0.2480  0.0768  0.0024
41939W        W42803   2.908   3.128   9.366  0.0179 -0.0242  0.0689
41940W        W42804   6.066  12.607  27.223  0.3072 -0.3554 -0.1055
41941W        W42805  23.684   1.825  13.715  0.0816  0.2101 -0.0203
41942W        W42806  14.759  10.079   3.314  0.2058 -0.1931 -0.0181
41943W        W42807  24.038  21.701   2.963 -0.2079  0.0300  0.0085
41944W        W42808   0.146  12.056  12.064  0.0386  0.1452 -0.0122
41945W        W42809  27.085  19.636  28.987  0.1400 -0.1516  0.0583
41946W        W42810  11.319  14.240  23.826  0.0199  0.0400 -0.2255
41947W        W42811  20.840   4.027  10.062 -0.1241  0.2251  0.1813
41948W        W42812   1.094  14.009   9.461  0.2319  0.0135 -0.1634
41949W        W42813   0.050   9.693  15.218 -0.0411 -0.4137  0.3017
41950W        W42814  10.570  24.260  28.663 -0.1297  0.1663  0.2537
41951W        W42815  21.850  21.501  21.640 -0.0848  0.0535  0.0190
41952W        W42816  24.798  12.205  15.555 -0.0305  0.0339 -0.2269
41953W        W42817   8.137  20.386   2.667  0.1751 -0.1439 -0.0199
41954W        W42818  18.295   2.702  14.071 -0.0646 -0.0600 -0.2355
41955W        W42819  19.018   8.051   9.274 -0.1471  0.1014 -0.0102
41956W        W42820   3.580  28.871  22.268  0.0188 -0.2293 -0.0259
41957W        W42821  22.878  10.899  22.306  0.0339 -0.2264  0.1418
41958W        W42822  11.744  12.475  26.750  0.2609 -0.0339 -0.2598
41959W        W42823  10.249  13.855  24.513 -0.0592  0.0426  0.0284
41960W        W42824  23.440  25.031  15.810  0.0392 -0.1823 -0.3723
41961W        W42825   7.683  26.255  27.765 -0.0311  0.0661  0.0845
41962W        W42826   6.941   7.033   4.558  0.1197  0.2308  0.1226
41963W        W42827   2.293  22.464  17.559  0.1687  0.0408  0.0797
41964W        W42828  27.166  20.985  10.702  0.2205  0.0078 -0.1287
41965W        W42829  15.229  24.385  16.356  0.1368 -0.3661 -0.0985
41966W        W42830   0.287  10.274   7.256  0.1249 -0.1504  0.0197
41967W        W42831  22.482  14.416   9.868 -0.2065 -0.0646 -0.1315
41968W        W42832  11.387  27.157  13.523  0.0591  0.0452  0.2740
41969W        W42833  19.175   2.181   3.903 -0.1544 -0.0883  0.1774
41970W        W42834  27.157  21.250  16.128 -0.0733  0.0987 -0.0199
41971W        W42835  12.281  12.413   2.735 -0.0947 -0.1394  0.0722
41972W        W42836  19.628  16.157  25.802 -0.1292 -0.1354 -0.1249
41973W        W42837  25.085  14.687  28.329 -0.1291  0.1150 -0.0884
41974W        W42838  10.415  12.062   5.439  0.2190 -0.0578  0.1798
41975W        W42839  28.716   3.802   0.202 -0.0579 -0.0243  0.0966
41976W        W42840  15.225  22.470   5.158  0.0906 -0.1138 -0.0982
41977W        W42841   8.618  23.038   4.920 -0.4076  0.3304  0.2021
41978W        W42842   5.407   2.064  26.007  0.1027 -0.0670  0.0784
41979W        W42843  19.656  28.316   6.429  0.1764 -0.1454 -0.0917
41980W        W42844  10.626  15.009   1.296  0.2370 -0.4341 -0.2618
41981W        W42845  28.450  17.416   2.151 -0.2878 -0.4242 -0.2914
41982W        W42846  21.130   4.191  27.584 -0.1240  0.2220  0.0205
41983W        W42847  11.826  25.739   6.329  0.1054 -0.1242 -0.0582
41984W        W42848   7.615  20.941  23.367  0.0722  0.1276 -0.0144
41985W        W42849   7.690  15.962   3.566  0.2658 -0.0662 -0.1007
41986W        W42850  12.783   6.415   9.383 -0.3523 -0.0958  0.3277
41987W        W42851   5.775  23.050   2.275  0.3405  0.1102  0.6771
41988W        W42852  23.467   5.938   8.993 -0.0362  0.3397  0.3911
41989W        W42853  17.297  15.705   6.776  0.1501  0.0184 -0.1884
41990W        W42854   9.694   2.447   7.420  0.1594  0.0565 -0.1065
41991W        W42855   9.777  14.721   6.828  0.2510 -0.3123  0.0535
41992W        W42856   1.519  22.871   1.909  0.0800 -0.2069 -0.0759
41993W        W42857   9.632  11.363  10.651  0.0600  0.0482  0.0777
41994W        W42858   5.849  28.387  28.888  0.3007  0.0884 -0.2651
41995W        W42859  11.774  12.682  27.806 -0.2237 -0.1431 -0.0230
41996W        W42860  13.182   6.013  28.754  0.0463  0.0538  0.0402
41997W        W42861  20.738   4.119  21.824 -0.1030 -0.1605 -0.0758
41998W        W42862  16.161  14.670  19.201  0.0928  0.1875 -0.2132
41999W        W42863   4.080  16.298   2.962  0.1826 -0.1579  0.1952
42000W        W42864   6.620  27.322  27.818 -0.1639 -0.1569 -0.1124
42001W        W42865   1.860  15.080  28.490  0.2247  0.0794  0.3055
42002W        W42866   7.516   7.056   5.477 -0.0837  0.3404 -0.0897
42003W        W42867  15.783   6.217  12.721  0.0576 -0.0164  0.1651
42004W        W42868   9.688   8.781  25.090  0.0598  0.0271 -0.4516
42005W        W42869   4.608  19.346  19.117 -0.1342  0.1830 -0.0670
42006W        W42870  16.383  15.459   4.250  0.2199  0.0812 -0.0395
42007W        W42871   7.155  13.603  28.322 -0.0161 -0.3662  0.0518
42008W        W42872  14.573  12.589  22.356 -0.3874 -0.2710  0.0539
42009W        W42873  16.845   1.148  20.359  0.2216 -0.1275  0.0550
42010W        W42874   6.169  13.926  15.782  0.2358 -0.0292  0.0095
42011W        W42875   4.070  13.150   5.953 -0.0743  0.0126 -0.0683
42012W        W42876  14.825  10.547   9.379  0.0636 -0.1443  0.3999
42013W        W42877   5.237  23.006  20.467 -0.0061  0.0191 -0.0865
42014W        W42878   3.092   0.991   4.634  0.1349  0.1238 -0.0756
42015W        W42879  21.348  14.683   9.326 -0.0401 -0.3261  0.2894
42016W        W42880  25.127  12.998  20.060 -0.0976  0.0106 -0.0793
42017W        W42881   6.693   9.260  28.440 -0.0271  0.5043 -0.0385
42018W        W42882   8.956   3.449  19.964 -0.1744  0.3592 -0.0996
42019W        W42883  12.502  17.762  13.112 -0.3075 -0.1545  0.1009
42020W        W42884  20.414  15.524  14.706  0.0159  0.1529 -0.0465
42021W        W42885   8.793   5.829  21.171  0.1898  0.2488 -0.0419
42022W        W42886   0.316  28.563   5.676  0.0773 -0.2346 -0.1171
42023W        W42887   6.487  18.020  28.205  0.0053  0.1115  0.0701
42024W        W42888   2.264  22.319   6.303 -0.0945 -0.4143 -0.0954
42025W        W42889   3.048  25.227  24.409 -0.1331 -0.3219  0.1805
42026W        W42890  28.902  22.301  28.607 -0.1226  0.0491  0.0965
42027W        W42891   5.725  14.555  21.139 -0.1181  0.1330  0.3064
42028W        W42892  19.673   9.323  20.118 -0.0691  0.0141 -0.1907
42029W        W42893   8.491  22.801   2.759 -0.0880  0.1741 -0.1048
42030W        W42894   9.058  18.259   8.717  0.2552  0.0253 -0.0435
42031W        W42895   0.349  23.259  10.256 -0.2201  0.0487 -0.3123
42032W        W42896  11.201   9.305   6.344  0.1215  0.3283  0.3644
42033W        W42897  22.430  22.971  25.474  0.0454 -0.0457 -0.0983
42034W        W42898   1.988   7.327   6.935  0.2240 -0.0132  0.0483
42035W        W42899  22.147   8.561  13.747  0.1242 -0.0727  0.1620
42036W        W42900   7.000  23.178  28.784 -0.0491 -0.1642 -0.1772
42037W        W42901   4.498   9.902  12.742  0.0435 -0.1061 -0.0972
42038W        W42902  24.288  13.194  12.227  0.0192 -0.0194 -0.1810
42039W        W42903   1.295   1.791  27.140  0.1605 -0.0011 -0.3050
42040W        W42904   3.985  18.501  23.750  0.3077  0.1200  0.3462
42041W        W42905  26.940  27.020  19.577  0.4710  0.1324  0.0159
42042W        W42906  12.354   6.944  22.282  0.1023 -0.0484  0.1686
42043W        W42907  21.214  24.566   2.533 -0.1529 -0.3933  0.1514
42044W        W42908  17.600   5.509  17.495  0.4818 -0.0057  0.0332
42045W        W42909   5.244   0.164   9.346  0.0272 -0.0496  0.1222
42046W        W42910   5.706  25.679  18.267 -0.1957  0.0727  0.2270
42047W        W42911   8.669  25.979  20.822  0.2113  0.2737 -0.2019
42048W        W42912  27.661   0.227   3.748  0.0166 -0.2607  0.2920
42049W        W42913   8.218  28.565  27.828 -0.1232 -0.1778  0.0945
42050W        W42914  20.130  13.591  25.689  0.0791 -0.1205  0.1963
42051W        W42915  13.388  20.507  28.767  0.0056 -0.0005 -0.0778
42052W        W42916   2.560  22.034   1.337 -0.1759  0.0088  0.1131
42053W        W42917   8.122   7.840   8.671 -0.1685  0.2550 -0.0936
42054W        W42918  19.313   1.588   8.289  0.1418 -0.2286 -0.1497
42055W        W42919   3.490   4.222   8.314 -0.0772 -0.0036 -0.1313
42056W        W42920   4.764   8.405   2.124 -0.3624  0.0614  0.0858
42057W        W42921   9.600  20.907  25.413  0.1281  0.2162  0.1018
42058W        W42922  17.005  15.759   5.306 -0.0223  0.0548 -0.2252
42059W        W42923   0.408  26.156  13.176 -0.3379  0.1346 -0.0301
42060W        W42924   9.160  16.730  22.363  0.2319  0.3637 -0.1695
42061W        W42925   7.723   2.406   2.137 -0.0389  0.1093  0.4327
42062W        W42926  13.941  12.434   6.413  0.3148  0.2668  0.1231
42063W        W42927   2.295  25.491  25.858  0.1142 -0.2830 -0.1738
42064W        W42928   6.154  19.289  16.374  0.1514  0.4021  0.1103
42065W        W42929   8.360  26.285   6.369  0.1584 -0.0008 -0.1703
42066W        W42930  10.390  12.111   7.687 -0.0418 -0.0148 -0.0763
42067W        W42931  21.206  26.433   2.676 -0.4246 -0.4807  0.2043
42068W        W42932  19.966   6.136   1.594  0.2272  0.2460 -0.0942
42069W        W42933  24.334  17.318   8.481 -0.3141 -0.1584 -0.0045
42070W        W42934  27.292  23.263   8.117 -0.2265  0.0339  0.1114
42071W        W42935  24.984  28.617   4.162 -0.1472 -0.1975 -0.2167
42072W        W42936  15.840   1.735  11.014 -0.2297  0.0246  0.0547
42073W        W42937  10.352  15.501  27.513  0.1232  0.2293 -0.0877
42074W        W42938  28.529  28.762  22.880  0.0882  0.1470  0.0889
42075W        W42939  19.562   6.808   9.079  0.0773 -0.0088 -0.1265
42076W        W42940   9.486  19.978   5.367  0.2009 -0.1538  0.0291
42077W        W42941   1.256   7.417  27.509 -0.2352  0.2925  0.1235
42078W        W42942   5.421   7.917  19.416  0.1801  0.1423  0.0288
42079W        W42943   2.873  23.032  19.455  0.1747  0.1977  0.0000
42080W        W42944   9.886   4.135   8.788 -0.0237  0.0485 -0.1408
42081W        W42945  26.176  25.461  21.257  0.1196 -0.4300  0.4699
42082W        W42946   5.735  19.537  21.170  0.1405  0.1950  0.0210
42083W        W42947   0.854  14.683  28.069  0.0019  0.2661 -0.2065
42084W        W42948  15.062  12.010  26.645 -0.1056 -0.0725  0.0539
42085W        W42949   7.192  27.845  13.252 -0.1291  0.1373  0.1061
42086W        W42950   9.995  28.694   5.927  0.1727 -0.1296 -0.2024
42087W        W42951   0.415  18.913  28.395 -0.1596  0.3438  0.1453
42088W        W42952  27.070  18.552   8.805 -0.0558  0.0279 -0.1647
42089W        W42953  18.919   7.548  25.453  0.2080  0.1737 -0.2310
42090W        W42954  27.970   8.747  13.255 -0.1136  0.2905 -0.2152
42091W        W42955  10.770   4.338  24.188  0.0539 -0.0137 -0.2916
42092W        W42956  21.403   0.356  21.591 -0.0105  0.0684  0.1387
42093W        W42957  13.582  21.122   9.519  0.0409  0.0521 -0.0764
42094W        W42958  11.413   5.316  27.414 -0.0814  0.0043 -0.0133
42095W        W42959   5.856   8.990  19.659 -0.0522 -0.0584 -0.3442
42096W        W42960   5.693  14.258  22.231 -0.2190  0.0121 -0.0127
42097W        W42961  18.981  13.304   3.346  0.2128 -0.0338 -0.0251
42098W        W42962  24.447  11.686   9.500  0.1220 -0.0706 -0.0711
42099W        W42963  18.209  23.271   6.203 -0.1743 -0.0330 -0.1324
42100W        W42964  25.689  12.885   7.837 -0.4788  0.1235  0.1205
42101W        W42965   9.671  24.017  27.114  0.1300  0.0134  0.0575
42102W        W42966   9.243  22.997   7.931 -0.2683  0.2565 -0.1000
42103W        W42967  18.225  19.174  21.349  0.1279  0.1373 -0.1894
42104W        W42968   5.302  19.795  22.306 -0.0401 -0.1048 -0.4466
42105W        W42969   2.826  21.418  17.776 -0.0331 -0.0560 -0.1260
42106W        W42970   6.378   4.485  25.899 -0.1380  0.0397 -0.0540
42107W        W42971   4.223   9.371  24.453  0.0563 -0.2036 -0.0654
42108W        W42972  13.619  21.690  19.828 -0.1259 -0.1186  0.1098
42109W        W42973   3.539  12.362  26.342 -0.3608 -0.2807  0.1542
42110W        W42974   5.990  25.224  11.012  0.1288  0.1632 -0.0856
42111W        W42975  18.621   8.582  29.105 -0.1311  0.1296 -0.0291
42112W        W42976   3.707   8.727  27.639 -0.0996 -0.1302  0.1688
42113W        W42977  28.939  26.974  21.287 -0.0795  0.1597  0.1825
42114W        W42978  26.180  20.876  23.603  0.0329 -0.2697  0.0822
42115W        W42979   3.964  12.400  17.999 -0.0593  0.0356 -0.0898
42116W        W42980  11.705  14.349  10.113 -0.0737 -0.1714 -0.0356
42117W        W42981   2.622   9.863   9.755  0.1075  0.0097 -0.0923
42118W        W42982  19.699  12.669  16.161  0.0413 -0.1110  0.1492
42119W        W42983   8.397  24.769  23.225 -0.0692 -0.1255 -0.0677
42120W        W42984  17.343  16.983  19.106 -0.1636  0.0877  0.0067
42121W        W42985   7.407  22.264   8.473  0.0409  0.1235 -0.1433
42122W        W42986  11.132   3.535   1.325  0.1800 -0.2934  0.0645
42123W        W42987   1.242  22.218   4.101  0.1238  0.2010 -0.2993
42124W        W42988  19.092  25.155   1.657 -0.1796 -0.1597  0.0138
42125W        W42989  12.410   1.299   9.435 -0.2551 -0.0859 -0.2241
42126W        W42990  29.065  18.551  28.625  0.2345 -0.0102  0.0163
42127W        W42991   6.393   1.775   3.274 -0.0400  0.0866  0.3538
42128W        W42992   3.313  24.614  17.229 -0.0754  0.3450 -0.3928
42129W        W42993  17.325  10.218   8.289 -0.4374 -0.0277  0.0009
42130W        W42994   8.653  26.375  10.984  0.1205  0.2171  0.2242
42131W        W42995   7.510  10.980   6.281  0.1364  0.0792  0.1636
42132W        W42996  13.755  10.301  21.761  0.0697 -0.0158  0.0453
42133W        W42997  26.821  18.052   9.669  0.4765 -0.1356  0.2103
42134W        W42998   2.588   0.303  27.603  0.0252 -0.0306 -0.1937
42135W        W42999  12.015  17.099  27.237  0.0191 -0.0604  0.2806
42136W        W43000  26.508  25.790   7.178  0.0353 -0.0395  0.1465
42137W        W43001  15.982   3.899   2.203  0.2099  0.2045 -0.1290
42138W        W43002  20.834  21.568  24.500 -0.0746  0.0404 -0.1850
42139W        W43003   7.860  10.820  27.557  0.0131 -0.2678 -0.3304
42140W        W43004  11.701  27.900   0.273 -0.2721 -0.0532 -0.1183
42141W        W43005   3.156  16.620  22.333 -0.1034 -0.2131  0.2905
42142W        W43006  13.684   1.847   2.374  0.3154  0.0152 -0.1153
42143W        W43007  12.186   0.663   3.998  0.5130 -0.1154  0.1978
42144W        W43008   4.335   8.111   6.305  0.1774  0.0815 -0.0768
42145W        W43009  10.631   3.722  23.641 -0.0931 -0.0864  0.2074
42146W        W43010  22.900  25.831   9.614  0.0441 -0.3177  0.0164
42147W        W43011   1.444   0.612  22.449 -0.0327 -0.0467 -0.1163
42148W        W43012  19.739   7.440  22.569 -0.3429  0.0810 -0.1117
42149W        W43013  19.663  25.178  25.633 -0.1099 -0.0445 -0.0456
42150W        W43014   7.697  25.674  10.587  0.0091 -0.1206 -0.0870
42151W        W43015   9.123   2.496  18.597  0.1915  0.0803  0.0498
42152W        W43016   6.532  10.530   9.637  0.1429 -0.0407 -0.3289
42153W        W43017   4.634   7.780  21.665  0.0824 -0.3163  0.0738
42154W        W43018   8.595   4.402  10.923 -0.1266 -0.2013 -0.0869
42155W        W43019  14.950  10.881  24.911  0.0219 -0.0470  0.2723
42156W        W43020   5.019   5.745   6.387 -0.3145 -0.1464  0.0970
42157W        W43021  17.072  22.401  17.493  0.0690  0.3245  0.1054
42158W        W43022  23.978   3.522  22.582 -0.3345 -0.0829 -0.0432
42159W        W43023  18.318  16.226   5.285  0.0328  0.2533  0.1032
42160W        W43024  17.728   7.178  20.537 -0.2841  0.0388  0.0292
42161W        W43025   6.732  18.636   0.429  0.2017  0.2815  0.1969
42162W        W43026  12.616  12.738  13.129 -0.0685  0.2279  0.0362
42163W        W43027  26.894  13.497   0.942 -0.0245  0.0061 -0.1206
42164W        W43028  20.883   8.921  25.392 -0.0162  0.0539  0.0120
42165W        W43029  19.387  25.449  10.071  0.1153  0.0478 -0.1041
42166W        W43030  26.416  26.941   2.441  0.0925 -0.1029  0.4037
42167W        W43031  22.371   1.131  29.126 -0.0552  0.2654 -0.4146
42168W        W43032   2.423  12.968   3.728 -0.1780  0.2527  0.3387
42169W        W43033   3.132  14.087  12.593 -0.0690  0.1746  0.1048
42170W        W43034  23.477  18.657  15.889  0.1363 -0.3912 -0.3796
42171W        W43035   9.417   7.356   3.534  0.4407 -0.1043 -0.2563
42172W        W43036  23.005  21.237   7.019  0.1125 -0.1154 -0.1726
42173W        W43037   4.267  20.510   4.774 -0.1175  0.1926  0.0594
42174W        W43038  26.537  15.538   8.088 -0.0853  0.0691 -0.0889
42175W        W43039  11.876   7.098   5.864  0.0245  0.1019  0.0618
42176W        W43040  14.977  12.616  20.057  0.0282  0.1969  0.1212
42177W        W43041  28.824  15.946  27.359 -0.2925  0.0611 -0.1812
42178W        W43042   2.455  20.522   4.235  0.0155  0.0249  0.1863
42179W        W43043  10.743  16.185   8.295  0.0210 -0.1969  0.1600
42180W        W43044  12.845  19.294  26.336  0.0528  0.1289 -0.0626
42181W        W43045  13.722   7.969   0.551 -0.3380 -0.0791 -0.0057
42182W        W43046  19.223  14.314   5.984  0.1140 -0.0199  0.3861
42183W        W43047   4.975  23.644  28.305 -0.3909 -0.1075  0.1948
42184W        W43048  20.062  26.606  16.549 -0.1281  0.0442 -0.1901
42185W        W43049   4.523  22.136  11.025  0.1631 -0.1519 -0.0094
42186W        W43050   2.146  11.997   5.165  0.1393  0.0292 -0.1600
42187W        W43051  12.736   1.320  20.666 -0.0575  0.1288 -0.1982
42188W        W43052   6.117  24.075   3.944  0.0697 -0.1221  0.1010
42189W        W43053   7.891  14.340  20.526 -0.0067  0.2419  0.0437
42190W        W43054  12.290  28.359  19.909 -0.2978  0.1848  0.1289
42191W        W43055  12.784  19.388   7.639 -0.2697 -0.0523 -0.2614
42192W        W43056  11.701  23.679   5.776 -0.1658  0.1240  0.0244
42193W        W43057  15.529   0.862  15.937  0.0343  0.1198  0.0942
42194W        W43058  25.445  15.312  12.358 -0.0366  0.1307 -0.0569
42195W        W43059  14.305  25.243   2.700  0.0150  0.1902  0.0837
42196W        W43060  28.720  24.378   2.737 -0.1729 -0.1975 -0.1217
42197W        W43061   0.399  27.950  23.358 -0.0634  0.3986 -0.0368
42198W        W43062   6.018  17.831  15.785 -0.0289  0.1185 -0.0069
42199W        W43063  11.101  18.982  10.180  0.0113  0.1749  0.1584
42200W        W43064   3.534   8.022   7.168 -0.0228 -0.1041 -0.0503
42201W        W43065   4.578  18.292  22.717 -0.2102 -0.3834  0.1137
42202W        W43066  23.733  19.667  27.795  0.1411  0.3209 -0.1268
42203W        W43067  28.156  19.476   7.077  0.0971 -0.0899 -0.1870
42204W        W43068  28.460  24.946  10.022  0.3531  0.1134 -0.0430
42205W        W43069  24.224   1.442   3.534 -0.2132  0.1178  0.0206
42206W        W43070   7.696  23.716   7.895 -0.1315  0.1191 -0.1629
42207W        W43071   6.461  24.599   5.395  0.2453  0.0690 -0.1360
42208W        W43072   7.520  26.835   4.282  0.1468  0.0027 -0.0188
42209W        W43073   5.489  18.887  19.376 -0.0598  0.1154 -0.1068
42210W        W43074  20.476  12.968  21.556 -0.3060  0.1010  0.0653
42211W        W43075   5.441  11.649   2.370 -0.0706 -0.1160 -0.1002
42212W        W43076  22.524   0.689   9.447  0.0343 -0.5372  0.1930
42213W        W43077   2.554  16.404   0.358  0.2865  0.3059 -0.0161
42214W        W43078  12.354  25.325  15.824  0.0634  0.1100  0.1162
42215W        W43079  17.598  18.042  22.430  0.2069  0.1474  0.0504
42216W        W43080  14.414   5.244   1.253 -0.1433  0.0095  0.0851
42217W        W43081   2.710  24.496   7.874 -0.1618  0.0349 -0.1083
42218W        W43082   9.181  11.951  21.268  0.3471 -0.0758  0.0584
42219W        W43083  25.765  15.770  25.094  0.0376  0.3671  0.1677
42220W        W43084   4.100  11.212   4.882  0.0961  0.0465 -0.3090
42221W        W43085  29.073  27.417   8.056  0.5017 -0.1027  0.0548
42222W        W43086   2.749  26.629  17.843 -0.0403 -0.2249  0.1259
42223W        W43087  12.700  18.957   5.439  0.1063 -0.3088  0.2305
42224W        W43088  16.547  17.652  23.956  0.1625 -0.0102 -0.1266
42225W        W43089   8.094  26.311  11.640 -0.1922  0.0130 -0.1806
42226W        W43090   8.332  26.630   7.368  0.3204  0.0474  0.2247
42227W        W43091  13.664  17.407  15.324 -0.2024 -0.3074  0.0441
42228W        W43092  26.581  26.296  29.106 -0.1113 -0.0673 -0.2460
42229W        W43093  12.430  16.124  24.724 -0.1711  0.2114 -0.2919
42230W        W43094   3.296   9.480   7.575  0.1285 -0.1493  0.0754
42231W        W43095  28.299  24.167  27.355  0.0643  0.0273 -0.0450
42232W        W43096  17.584  22.632   5.166 -0.1687 -0.2717 -0.0474
42233W        W43097  23.220  17.398  26.203  0.1066 -0.0935  0.1844
42234W        W43098   9.493  21.117  11.404 -0.1215 -0.1916 -0.0078
42235W        W43099   6.635  23.808  19.682 -0.1836 -0.2277  0.1934
42236W        W43100   0.636  16.154   4.139 -0.1279  0.2595 -0.1913
42237W        W43101  18.732  18.654  10.778 -0.3421  0.1206 -0.0844
42238W        W43102  21.822   9.030   0.974  0.0185 -0.0068  0.1861
42239W        W43103  10.819  24.784  18.239 -0.0704  0.3199 -0.1133
42240W        W43104  26.640   1.250  28.893  0.0374 -0.1008  0.3459
42241W        W43105   7.348   4.533  25.605  0.3651  0.2007  0.4369
42242W        W43106  21.124  26.267   1.046 -0.1940 -0.3403 -0.0927
42243W        W43107  11.278   6.256   1.674 -0.1800 -0.0337 -0.1393
42244W        W43108  11.920  23.360  18.759  0.0935 -0.1748 -0.1701
42245W        W43109  11.175   6.972   0.485  0.0495  0.3373  0.1039
42246W        W43110  26.022  18.263  28.090 -0.0519  0.3984  0.2603
42247W        W43111   0.982  20.958  19.537  0.0843  0.0050 -0.5193
42248W        W43112   6.285  12.682   6.857  0.1488 -0.0548 -0.0214
42249W        W43113  19.395   8.687   7.298 -0.0456  0.2138  0.2606
42250W        W43114  29.014  22.302  21.183 -0.0061 -0.0619 -0.1750
42251W        W43115  24.795   3.516   1.890  0.0292  0.0592  0.1182
42252W        W43116  24.296  23.354  10.443 -0.1143 -0.2056  0.1041
42253W        W43117  11.079  17.906  25.913  0.1506  0.2405 -0.3185
42254W        W43118  11.022  10.226   3.481 -0.1547  0.1463  0.0939
42255W        W43119  18.084  17.275  24.404 -0.0375  0.1438  0.2150
42256W        W43120  18.955   1.465  25.651 -0.0462 -0.1646 -0.1552
42257W        W43121   9.234  22.774   0.656 -0.0797 -0.3211  0.0409
42258W        W43122  12.135  18.900  15.338 -0.2823  0.1978 -0.4234
42259W        W43123  28.408  27.913   1.289  0.2576  0.1117 -0.1304
42260W        W43124  14.730  17.545   9.997  0.0063  0.0096  0.0179
42261W        W43125   0.315  13.208  22.238  0.0212 -0.2909 -0.0652
42262W        W43126  10.820   2.905   0.486  0.0907 -0.0265  0.1874
42263W        W43127  10.687  28.517  14.881 -0.1236 -0.0108 -0.0424
42264W        W43128  12.310  16.829   4.289  0.1559  0.2324 -0.0227
42265W        W43129   6.415   1.018   9.863  0.1199  0.1227 -0.0055
42266W        W43130   0.729  21.817  10.637  0.2179 -0.1409 -0.1070
42267W        W43131  23.202   6.550   1.373  0.0655 -0.1403  0.2589
42268W        W43132  26.452  22.620  28.592 -0.0851 -0.0242 -0.3674
42269W        W43133   1.927  11.911  28.746  0.0590 -0.0138  0.1584
42270W        W43134  17.253  12.209  28.656 -0.0805  0.5207 -0.2786
42271W        W43135  11.818  10.721   2.105  0.1769 -0.4262 -0.3615
42272W        W43136  22.811  12.219   5.897 -0.2073 -0.0252  0.1325
42273W        W43137   9.985   2.036  28.168  0.2865  0.1397  0.2217
42274W        W43138  13.714   8.405   1.975  0.0728  0.0338 -0.1238
42275W        W43139   1.346   5.959  17.611 -0.2134 -0.0052 -0.0599
42276W        W43140   3.313   6.347  16.600 -0.0588  0.0143  0.0804
42277W        W43141  20.417  16.047  26.151  0.3574 -0.1585  0.0730
42278W        W43142  15.476   2.972  10.911 -0.0814  0.2000  0.0915
42279W        W43143  14.477  20.592  17.049 -0.0600  0.0960 -0.1896
42280W        W43144  19.505  19.205  21.122  0.1352  0.0634  0.1774
42281W        W43145   7.990  16.920  18.057 -0.0040  0.0357  0.4727
42282W        W43146  20.209   2.027  26.590 -0.0237  0.4179  0.3083
42283W        W43147   7.526   9.404   4.740 -0.0092  0.1097 -0.1402
42284W        W43148   8.639  16.371   4.127  0.2961 -0.0073  0.0978
42285W        W43149  19.703  15.157  26.780  0.0053 -0.0562 -0.1047
42286W        W43150  26.806  19.341   4.017 -0.0551  0.1211  0.2987
42287W        W43151  17.890  18.974  21.688  0.2502  0.1424 -0.2920
42288W        W43152  10.350  16.424   7.762  0.1250  0.0880 -0.1129
42289W        W43153  10.879   5.203   0.494  0.1395 -0.1812 -0.0750
42290W        W43154  24.874  17.926  16.122  0.2017 -0.1617  0.0421
42291W        W43155   5.625  12.092   9.950 -0.1278 -0.0416  0.2833
42292W        W43156   5.800  22.242  14.220  0.0766  0.2277 -0.2471
42293W        W43157   8.897  11.537   7.344  0.0651  0.0922  0.2065
42294W        W43158   1.864  10.613  12.055 -0.0244  0.3029 -0.1822
42295W        W43159   4.171   0.919  11.925 -0.0816  0.1483 -0.0116
42296W        W43160   2.944   4.720  26.329  0.3516 -0.0078  0.1316
42297W        W43161   5.019  19.282   2.417  0.2654 -0.0736 -0.0973
42298W        W43162  11.365   0.417   2.699 -0.1379  0.2992  0.1108
42299W        W43163  16.072   9.853  22.055 -0.1626  0.2358 -0.0058
42300W        W43164   2.589  14.890  23.708 -0.1308 -0.4568  0.3165
42301W        W43165  24.339  28.524  21.920 -0.0314  0.0754  0.0761
42302W        W43166  25.027  10.888   6.555 -0.2158  0.1683  0.0660
42303W        W43167   9.364  23.514  10.623 -0.0469 -0.4123  0.0697
42304W        W43168  21.419  15.930  13.910 -0.1840  0.2899 -0.0048
42305W        W43169  10.520   8.662  21.586 -0.3729 -0.0362  0.0959
42306W        W43170  29.049  22.040  11.407 -0.0637 -0.0665  0.3446
42307W        W43171  13.016  19.751   2.998 -0.2407 -0.0951 -0.1583
42308W        W43172   4.313  18.039   8.619 -0.1918 -0.3541  0.0392
42309W        W43173   9.678  17.962   3.765  0.1944 -0.1388 -0.0745
42310W        W43174  11.736  13.575  19.957  0.2753  0.2370 -0.1712
42311W        W43175  12.224  11.736   9.125 -0.3426 -0.0131 -0.4429
42312W        W43176  23.698  17.838  21.885  0.0328  0.2089 -0.0656
42313W        W43177   3.357  25.734   9.112  0.1922 -0.3790  0.1555
42314W        W43178   1.183  19.135   0.731  0.0354  0.0304  0.0483
42315W        W43179   7.970  12.870  12.573  0.0583  0.0900 -0.0070
42316W        W43180   0.477  13.134   5.467  0.0912 -0.5548  0.0235
42317W        W43181   8.645  23.965  12.989 -0.1625 -0.0694  0.0902
42318W        W43182  16.646  24.942  15.303 -0.1434 -0.0620  0.2831
42319W        W43183  25.956  10.513   7.811 -0.1598 -0.0687 -0.1434
42320W        W43184  10.667  22.186  15.705 -0.0678 -0.0485  0.1635
42321W        W43185  10.688  22.236  23.177 -0.1896 -0.1379 -0.1245
42322W        W43186  14.388  28.814  12.829  0.0421 -0.0412  0.1573
42323W        W43187  10.490  22.695   5.065 -0.1291  0.0204 -0.0399
42324W        W43188  19.457  23.091  11.491  0.0713  0.0619  0.1548
42325W        W43189  24.787  28.389  25.226  0.3031 -0.1261  0.0613
42326W        W43190  27.701  27.108  15.311  0.3099 -0.0459  0.0382
42327W        W43191   1.924  27.651  13.236  0.1522 -0.1968 -0.0285
42328W        W43192  26.070  13.320  15.631 -0.0958  0.0475 -0.2181
42329W        W43193  13.678   2.320  23.427  0.1463 -0.3940  0.0487
42330W        W43194  16.086  23.623  17.108 -0.2415 -0.1456  0.2944
42331W        W43195   7.714  21.405  25.713  0.0326  0.2311 -0.3172
42332W        W43196   9.154  14.860  18.637 -0.0093  0.2126  0.0953
42333W        W43197  19.546  12.517  13.999 -0.1461 -0.0618  0.0292
42334W        W43198  27.237  19.154  16.641 -0.1951 -0.3811  0.0898
42335W        W43199  18.238   1.546  10.326  0.0206  0.0148  0.2419
42336W        W43200  24.385  24.531  26.150 -0.0054 -0.1088 -0.1718
42337W        W43201  25.031   7.665  22.046 -0.0975  0.1383  0.1868
42338W        W43202   5.647   3.551  25.533  0.0824 -0.1339  0.0351
42339W        W43203  27.789   8.230  11.647 -0.2906 -0.1101  0.3301
42340W        W43204  25.809  21.341   9.166  0.1338  0.0670  0.1108
42341W        W43205   1.622  13.331  24.866  0.1749 -0.1407 -0.0012
42342W        W43206  14.318   4.189   0.653 -0.0915  0.2194  0.0373
42343W        W43207  14.894  16.095  11.717 -0.1071 -0.1733  0.1040
42344W        W43208  18.998  23.506  19.396  0.2664  0.1822 -0.0923
42345W        W43209  28.593   6.400  12.369  0.3100  0.2590 -0.0283
42346W        W43210  12.099   0.053  19.585  0.1735 -0.0251  0.0692
42347W        W43211   2.201  16.909  10.379  0.3990 -0.0296  0.1697
42348W        W43212  16.316  27.132  22.941  0.4175  0.0911 -0.1845
42349W        W43213   6.151   3.095  17.969  0.2946  0.0524 -0.1681
42350W        W43214  28.906   0.192  11.921 -0.0697  0.0100 -0.2042
42351W        W43215  12.150  22.265  20.157 -0.0866 -0.1512 -0.2451
42352W        W43216  13.191  22.427  15.921 -0.2199 -0.2590 -0.1279
42353W        W43217  23.039  27.413   8.341 -0.1997 -0.0250 -0.2427
42354W        W43218  14.685  22.488  18.018 -0.0319 -0.2899  0.0589
42355W        W43219   4.000  10.831   9.695 -0.0628  0.1791 -0.0490
42356W        W43220  28.885  10.097  10.806  0.2142 -0.0091  0.0258
42357W        W43221  24.744  24.230  15.514 -0.1623 -0.1385 -0.3248
42358W        W43222   5.572   9.442   7.472  0.1505  0.0576 -0.0102
42359W        W43223   9.992  21.256  21.098  0.1346  0.0027 -0.0440
42360W        W43224   1.430  20.004   8.946  0.0233 -0.1596  0.1867
42361W        W43225  19.422  23.566  13.805  0.2535  0.1120  0.3067
42362W        W43226   6.517  19.155   7.691  0.0734 -0.3558  0.0193
42363W        W43227  21.439  11.063   6.317  0.0414 -0.2190  0.1792
42364W        W43228  24.770   3.382   7.104  0.2518 -0.2690  0.0474
42365W        W43229   0.346  11.959  24.901 -0.0238 -0.1097  0.0070
42366W        W43230   3.003  14.744  19.187  0.1615 -0.0011  0.1203
42367W        W43231  20.763  12.952  24.226 -0.1434 -0.2607 -0.0260
42368W        W43232  12.936  22.020   7.849  0.0940  0.0704  0.1083
42369W        W43233   2.473   0.106   5.111 -0.0267 -0.1736  0.1285
42370W        W43234  22.792  14.937   1.729  0.0605  0.0763 -0.3482
42371W        W43235  23.997   4.220  15.214 -0.0883 -0.0794  0.1132
42372W        W43236  28.496  21.312  24.752 -0.1695 -0.4290  0.1607
42373W        W43237   1.463   8.751   3.114  0.2341  0.1605 -0.1357
42374W        W43238  21.654  20.453  17.970  0.0672 -0.0429  0.2024
42375W        W43239  28.718   3.191  15.285  0.2635 -0.0372  0.1179
42376W        W43240   3.357   8.844   1.485 -0.1762  0.2847  0.1644
42377W        W43241  10.061   0.060  12.255  0.3247  0.2807  0.0778
42378W        W43242   7.037  17.291   9.255 -0.0014  0.3735  0.2486
42379W        W43243   4.720  12.672   3.405 -0.2340 -0.0889 -0.1397
42380W        W43244  18.761  17.979  25.928 -0.1951  0.2207 -0.3456
42381W        W43245  28.687  17.635   7.354  0.3682 -0.2863  0.2245
42382W        W43246  20.468  20.592   8.623  0.1246  0.0606  0.3060
42383W        W43247  12.456  23.333  24.503 -0.0653 -0.2401 -0.1936
42384W        W43248  24.355  10.423  13.381  0.0657 -0.0325 -0.0697
42385W        W43249   4.083  16.747  11.190  0.2468 -0.1751  0.2610
42386W        W43250  17.838  27.017  10.929  0.1032  0.0530 -0.0512
42387W        W43251   2.715  26.416  25.590  0.1372 -0.1155  0.1805
42388W        W43252  25.793  16.415  12.596 -0.0634 -0.0628  0.0182
42389W        W43253  15.920  23.042  10.208  0.0327 -0.4722 -0.0394
42390W        W43254  27.953   6.520  21.107  0.0602  0.2006 -0.2842
42391W        W43255  26.922  28.513   5.038 -0.0710  0.0283  0.3069
42392W        W43256  14.107   9.637  24.051  0.1110  0.2268 -0.0293
42393W        W43257  13.971  19.012  13.396 -0.1098 -0.0763 -0.2529
42394W        W43258  15.332  24.459   8.657  0.2136  0.1531  0.1116
42395W        W43259   4.880  12.520  21.394 -0.0138  0.0392  0.1008
42396W        W43260  21.034  21.406  24.028 -0.0855  0.1317 -0.0782
42397W        W43261   3.148  27.218  25.697 -0.0659 -0.1666  0.1954
42398W        W43262   1.330   7.718   8.574  0.2766 -0.1162  0.0972
42399W        W43263  20.190  24.295  22.014 -0.0135 -0.1255  0.0723
42400W        W43264  22.392  14.311  24.996 -0.1743 -0.2905  0.1766
42401W        W43265  13.743  25.923  29.059 -0.2261 -0.0916 -0.1996
42402W        W43266   5.608  22.081  18.733 -0.0615  0.1038 -0.0890
42403W        W43267   9.624   0.837   4.613 -0.1361 -0.2656 -0.4724
42404W        W43268   9.158   7.549  21.203  0.2016 -0.0267  0.1173
42405W        W43269   8.653  22.925   5.885  0.1400  0.4014 -0.0368
42406W        W43270   4.231  13.547  27.942 -0.3260  0.0235  0.1062
42407W        W43271   3.175   9.731  25.106  0.1365  0.0959  0.0230
42408W        W43272  13.287   7.475  13.656  0.1246 -0.3816  0.1274
42409W        W43273   4.145  18.665   6.703  0.0064  0.1127 -0.0172
42410W        W43274   1.894   9.769  19.593  0.1122  0.1739  0.1937
42411W        W43275   8.378  26.969   5.266 -0.1598 -0.0413 -0.1809
42412W        W43276   7.302  22.450   5.107 -0.0651  0.0047  0.1893
42413W        W43277  18.159  27.235   0.207  0.0321 -0.0229 -0.2428
42414W        W43278   4.004  23.775  22.514  0.1126 -0.0398 -0.0597
42415W        W43279  19.639  11.450   6.149  0.1523  0.1903  0.0687
42416W        W43280   4.303  18.106   3.928  0.0284 -0.3248 -0.0835
42417W        W43281  14.788  28.406  19.352  0.3837  0.0860 -0.0448
42418W        W43282   5.569  26.564   6.194 -0.1655 -0.1275  0.0716
42419W        W43283   2.802   6.207  15.904 -0.0253 -0.0667  0.1973
42420W        W43284  19.961  12.040  24.166  0.2082  0.1662  0.1207
42421W        W43285   2.169  27.132   7.654 -0.0525 -0.1344 -0.1205
42422W        W43286  19.533  13.154  10.795  0.0642 -0.0163  0.1056
42423W        W43287  17.728   8.041   2.672  0.0950 -0.0739  0.0540
42424W        W43288   3.079  18.703   2.228  0.2278  0.0745 -0.1599
42425W        W43289  26.566  16.469  16.613  0.1940  0.1742  0.0829
42426W        W43290  23.616  22.635   7.115 -0.0534  0.1694 -0.3415
42427W        W43291  28.230  18.673   1.623  0.1602  0.5436  0.0376
42428W        W43292   3.400   6.662   9.348 -0.3442  0.0371 -0.0375
42429W        W43293  15.129  25.289  13.873 -0.1482  0.0536 -0.0503
42430W        W43294  13.974   6.791  17.750  0.0635 -0.0670 -0.1215
42431W        W43295   1.965  28.410   3.047  0.0327  0.0554  0.0350
42432W        W43296  25.763  29.026  14.679 -0.1850 -0.1412  0.2513
42433W        W43297   6.030   0.832  27.293 -0.2159 -0.1486  0.0601
42434W        W43298  25.958   1.578  12.928 -0.2491 -0.3800 -0.0048
42435W        W43299  11.742   6.799   5.307  0.0418 -0.0803 -0.1303
42436W        W43300  16.274   6.525  28.824 -0.2071  0.2807 -0.0604
42437W        W43301  28.339  25.150   0.297  0.0030  0.0262 -0.1332
42438W        W43302   7.238  18.287   8.897  0.0579 -0.1897  0.0745
42439W        W43303   8.506  27.273   2.178 -0.1267  0.1741  0.2396
42440W        W43304  24.144  23.408  15.463 -0.1475 -0.0974  0.2109
42441W        W43305  26.719  13.865   0.559  0.2415 -0.3012  0.1998
42442W        W43306  15.719   4.020   7.769  0.2323  0.0529  0.1269
42443W        W43307  11.709  23.134  26.967 -0.0918  0.3941  0.0137
42444W        W43308  10.893   3.412  12.299  0.1326 -0.0341  0.0599
42445W        W43309  23.455  17.979  18.554 -0.3649 -0.1527 -0.0666
42446W        W43310   8.387   4.040   7.580  0.0896  0.0103  0.0759
42447W        W43311  16.559  24.605   6.609 -0.4232 -0.1091  0.0350
42448W        W43312  23.251  27.321  25.596  0.1543 -0.0983  0.0550
42449W        W43313   4.150  16.637  23.555  0.1163  0.2007 -0.1050
42450W        W43314  16.396   5.934   5.923 -0.1951 -0.0457 -0.1298
42451W        W43315  26.932  12.929   6.788  0.1180 -0.4342 -0.1906
42452W        W43316  18.660  26.636  11.567 -0.0771  0.3085  0.1051
42453W        W43317  11.691  11.726   8.274  0.1934  0.0383 -0.2234
42454W        W43318   3.866  20.378  28.057  0.3319 -0.2051  0.1152
42455W        W43319  26.799  26.414  12.069  0.1108  0.1979 -0.0643
42456W        W43320   6.057  13.703   1.155  0.1673 -0.0087 -0.2924
42457W        W43321   9.310   2.337   2.709 -0.0660  0.1417 -0.0232
42458W        W43322   7.642  21.460  28.479  0.1028  0.1167 -0.0623
42459W        W43323   0.909   2.875  23.052 -0.0237 -0.0750  0.3292
42460W        W43324  16.234   9.125   2.470 -0.1119 -0.1214  0.1518
42461W        W43325   4.869  22.247   5.267 -0.0449  0.1451 -0.1514
42462W        W43326   0.744  16.461   0.984 -0.1516 -0.1207 -0.1209
42463W        W43327  19.059  21.826  20.179 -0.2102 -0.0010 -0.2316
42464W        W43328   8.257  23.967  11.656  0.0664  0.1511  0.1609
42465W        W43329  20.249  26.157   2.963  0.0806  0.1558  0.2150
42466W        W43330  12.891  24.224   8.441  0.0106 -0.1463 -0.2098
42467W        W43331  20.408   8.580  20.482 -0.2639 -0.0608 -0.0221
42468W        W43332  20.195  19.122   5.604 -0.3939  0.0062  0.1354
42469W        W43333  26.768  11.462   8.107 -0.3263 -0.1351 -0.0866
42470W        W43334   5.119  24.592  28.649  0.1332  0.0506  0.0690
42471W        W43335  17.861  11.342   1.467 -0.3700 -0.1763  0.1715
42472W        W43336  19.417   0.157   5.668 -0.0349 -0.3080 -0.1004
42473W        W43337  10.338   6.204  17.843  0.1385 -0.4235  0.0707
42474W        W43338  21.632   1.897   6.805  0.0717  0.1728  0.1873
42475W        W43339   6.605   5.684  16.126  0.3737 -0.1970 -0.0080
42476W        W43340  10.806   7.451  16.309  0.2255  0.1303 -0.0653
42477W        W43341  24.167  12.379  16.222 -0.3795  0.0296 -0.1020
42478W        W43342  15.662  18.567  24.683  0.0402  0.4937 -0.0874
42479W        W43343   3.893  13.525   8.517 -0.1462  0.0154 -0.1291
42480W        W43344  16.473  19.040  12.442  0.0370  0.0369 -0.2361
42481W        W43345   1.663  21.630  10.338  0.2457  0.1133 -0.0684
42482W        W43346   7.000   6.780  18.259  0.1359  0.0405 -0.1123
42483W        W43347   0.581   3.780  18.434 -0.1163 -0.0468  0.0060
42484W        W43348   5.165  18.216  22.961  0.0698  0.2600 -0.1938
42485W        W43349   2.141   2.176   7.842 -0.2375  0.2185 -0.0515
42486W        W43350  26.892  24.483  19.691  0.0580  0.1480  0.0584
42487W        W43351   9.045   5.304   8.335 -0.0984 -0.1099  0.0051
42488W        W43352   6.959  18.256   6.664 -0.0303 -0.2581  0.1080
42489W        W43353   4.276  10.972  26.570 -0.0088  0.1159  0.1668
42490W        W43354  28.989  20.824  26.978  0.0741  0.2682 -0.2535
42491W        W43355  11.137   6.959   6.345  0.3434 -0.1154 -0.1733
42492W        W43356   6.264  17.987   4.276 -0.2656  0.0461  0.1114
42493W        W43357  12.359  23.675  11.622  0.1320 -0.1903  0.0442
42494W        W43358  25.866   3.912  27.969  0.0908  0.3261 -0.0948
42495W        W43359   1.831  18.413  16.723  0.2280  0.1713 -0.2114
42496W        W43360   5.712   2.774  25.866  0.0417  0.1154  0.0507
42497W        W43361  12.237  16.542   9.410 -0.0838  0.0127  0.0899
42498W        W43362  16.727  16.120  13.632 -0.0032 -0.0397 -0.1451
42499W        W43363  25.698  16.254   0.238 -0.2579 -0.0610  0.0912
42500W        W43364  17.042  16.898  18.327  0.1666  0.4291  0.2621
42501W        W43365  17.630   9.562   0.443 -0.1278  0.1406 -0.3829
42502W        W43366  20.431  19.028  21.494  0.0637  0.0864 -0.1258
42503W        W43367  17.889  27.076   7.062  0.0092 -0.0389 -0.0913
42504W        W43368  24.387  21.762   3.975  0.0137 -0.0483  0.2388
42505W        W43369  19.590   2.847  24.170  0.2245  0.1962 -0.3013
42506W        W43370   0.459  17.910  16.670  0.3401  0.0366  0.2692
42507W        W43371   0.602  10.142  17.631 -0.2437 -0.2744  0.1911
42508W        W43372   9.169  10.856   0.399  0.0892 -0.0416  0.1708
42509W        W43373  24.051  19.261   1.751 -0.1501  0.0528  0.0823
42510W        W43374  20.031  27.984  11.616 -0.0606 -0.0907 -0.1879
42511W        W43375  17.441  15.755  14.440 -0.1804 -0.1943  0.0673
42512W        W43376  25.169  18.223   2.569  0.0819  0.1340 -0.0998
42513W        W43377  16.658  18.979   2.500  0.1184  0.0859 -0.1066
42514W        W43378   2.993   2.464  10.480  0.3269 -0.1322 -0.0772
42515W        W43379  13.252  23.439   5.450 -0.4522  0.0280  0.0281
42516W        W43380  24.719  16.866  17.665  0.1553  0.0574  0.1688
42517W        W43381  25.404  11.577  14.731 -0.0234  0.0745 -0.1279
42518W        W43382  12.505  20.335   2.249  0.1159 -0.3804  0.3867
42519W        W43383  24.111  22.798  23.394  0.1533  0.0805 -0.3621
42520W        W43384  18.165  17.117  11.616  0.0177  0.0055  0.0976
42521W        W43385  14.135  16.878  12.060  0.0382  0.1847 -0.2442
42522W        W43386  20.505  17.395   4.773  0.1053  0.2448 -0.4104
42523W        W43387   7.966  18.613  11.131 -0.0995  0.2987  0.2758
42524W        W43388  13.259  15.976  23.667 -0.0138 -0.0175  0.1557
42525W        W43389   5.020  23.419  11.052  0.1832 -0.0785  0.0236
42526W        W43390   1.735  11.403  10.705  0.1190 -0.0245  0.2610
42527W        W43391   3.574  15.447  18.822 -0.1919 -0.1205 -0.0674
42528W        W43392   2.279  15.805  16.980  0.0761 -0.2085 -0.0341
42529W        W43393  26.934  10.377  11.404  0.0615 -0.2968 -0.2339
42530W        W43394  13.282  11.140   4.720  0.0340  0.0009 -0.1031
42531W        W43395  11.230  13.251  23.287  0.0726 -0.1802 -0.1305
42532W        W43396  16.130   9.968   7.274  0.4585 -0.2217  0.0197
42533W        W43397  15.718   8.362   6.846  0.1106  0.0136  0.0908
42534W        W43398   7.080  10.260  21.033 -0.0376  0.0818 -0.1092
42535W        W43399  28.149  23.098  14.474  0.1055  0.1150  0.1195
42536W        W43400   6.859  14.897  28.890  0.1493 -0.0214 -0.0222
42537W        W43401  20.635  26.852  23.502 -0.0653 -0.1609  0.1894
42538W        W43402  15.860  17.704   2.918  0.1909 -0.2956  0.3473
42539W        W43403   2.200   9.695  27.434  0.0973  0.1044  0.1652
42540W        W43404   7.001   0.430  16.532  0.0988 -0.2165  0.0594
42541W        W43405   3.209  11.510   3.357 -0.0612  0.1582  0.1230
42542W        W43406   0.870  17.633  27.791  0.1527  0.0764  0.0816
42543W        W43407  15.281  13.950   0.949  0.0777  0.0846 -0.0187
42544W        W43408  11.818  20.644  18.228 -0.2314 -0.0915  0.2928
42545W        W43409   4.698  23.962   0.038  0.0018 -0.0151 -0.0096
42546W        W43410   2.242  23.246   1.346 -0.0845 -0.1658 -0.1223
42547W        W43411  11.442  25.962  22.134 -0.0437  0.0344 -0.1986
42548W        W43412   2.710  22.510  26.096  0.3357  0.1979  0.0589
42549W        W43413   2.407  15.042  24.747 -0.4764 -0.3072  0.0466
42550W        W43414  26.840  13.327   8.564  0.0172 -0.2443 -0.0094
42551W        W43415  29.109   7.408  24.095  0.0236  0.1771  0.2986
42552W        W43416  25.425  21.003   8.923 -0.1761  0.2109  0.0498
42553W        W43417  27.073  14.493  11.683 -0.3481  0.0501  0.1129
42554W        W43418   1.130  15.729  27.758  0.2280  0.1525  0.2413
42555W        W43419   5.985  23.038   9.340  0.1014 -0.5335  0.0467
42556W        W43420  22.271  27.502  12.954  0.0231 -0.2147 -0.2180
42557W        W43421  16.372  12.926   7.320  0.4599  0.1146  0.0338
42558W        W43422  10.876  10.707   4.492  0.2844 -0.0810 -0.0137
42559W        W43423   1.673  15.488  12.859 -0.1796  0.2212 -0.3063
42560W        W43424  10.134   9.313  24.054 -0.1801  0.0659  0.0759
42561W        W43425  26.134  21.305   7.989 -0.3969 -0.3727 -0.0150
42562W        W43426  25.772  20.687  15.656 -0.2906 -0.0001  0.1006
42563W        W43427   9.089   5.127  23.972 -0.1941 -0.2740 -0.1453
42564W        W43428   5.909   1.960   1.899 -0.0743  0.3411 -0.2022
42565W        W43429   9.571  22.734  20.075  0.0555  0.0290 -0.1883
42566W        W43430   9.546  22.043  10.197 -0.1638 -0.2140  0.1039
42567W        W43431   3.882  15.076  23.950  0.0401  0.0588  0.1264
42568W        W43432  18.982  14.277   9.110 -0.2334 -0.0412 -0.0805
42569W        W43433   4.732   7.380   1.855 -0.1076 -0.3792 -0.1145
42570W        W43434  26.173   6.094  22.088 -0.0245  0.0765 -0.2100
42571W        W43435  27.400  18.136   5.897  0.2281  0.4650  0.2427
42572W        W43436  12.781  17.000   8.760 -0.2032 -0.1112 -0.0207
42573W        W43437  11.412  17.716   8.570 -0.1102 -0.0859 -0.1293
42574W        W43438  26.011   5.007  26.333 -0.0229 -0.0204  0.2532
42575W        W43439  15.367  18.836   1.301  0.1788 -0.2290 -0.1560
42576W        W43440   7.751  16.466  18.042  0.2194  0.1243  0.0458
42577W        W43441  19.539  22.520   1.765  0.4567 -0.2751 -0.1034
42578W        W43442  27.553  12.910   0.697 -0.3465 -0.2989 -0.1110
42579W        W43443   4.438  20.911  26.005 -0.0831 -0.1812 -0.0840
42580W        W43444   3.471  22.363   8.017 -0.0214  0.2394  0.0943
42581W        W43445   8.097   4.338  10.756 -0.1189  0.1330 -0.1032
42582W        W43446  19.164   5.988  29.091  0.1474 -0.3050 -0.4223
42583W        W43447   5.033  21.545  19.427  0.2978  0.2544 -0.1016
42584W        W43448  11.449   0.239  18.250 -0.0024 -0.0803 -0.1706
42585W        W43449  27.488  19.498   9.054  0.0656  0.3081  0.1279
42586W        W43450   9.067  12.000  27.313 -0.1644  0.1392 -0.0873
42587W        W43451   4.380  23.879  23.089 -0.0349 -0.1766 -0.3362
42588W        W43452  18.458  16.883  25.995 -0.3016 -0.1862  0.2516
42589W        W43453  25.175  17.771   6.605 -0.0466  0.1336  0.1367
42590W        W43454  22.008  26.773  13.443  0.1255  0.0697  0.1832
42591W        W43455  16.324   4.819  26.080 -0.1594  0.2130  0.2754
42592W        W43456  26.883  16.575  13.325  0.1738  0.1467 -0.0073
42593W        W43457  17.604   0.211  15.569  0.0580 -0.1189  0.2923
42594W        W43458   4.758  24.915   1.432 -0.0439  0.1827 -0.1641
42595W        W43459  19.725  15.404  28.740  0.2276 -0.0731  0.0888
42596W        W43460  15.436   7.141  17.867 -0.1123 -0.0594 -0.2555
42597W        W43461  18.394   1.037  20.795  0.0729 -0.0404 -0.1132
42598W        W43462  27.606  20.452  14.927 -0.2619  0.0617  0.0149
42599W        W43463  27.619  14.812  10.014 -0.0694  0.1132 -0.1144
42600W        W43464   8.934  25.708   6.380  0.3777 -0.1131  0.1325
42601W        W43465  10.031  15.668  25.156 -0.0236 -0.0880  0.0329
42602W        W43466   4.735  14.991  13.997 -0.1799 -0.1132  0.4668
42603W        W43467   8.890   1.718   4.702  0.2722 -0.1736 -0.1660
42604W        W43468  18.697   5.795  11.788  0.1864 -0.1266  0.1521
42605W        W43469  18.701  19.052   3.627  0.0323  0.0115 -0.2271
42606W        W43470  10.731   4.239   6.980 -0.3818  0.0868 -0.2116
42607W        W43471   8.635  13.780  25.609 -0.3098  0.1873 -0.2644
42608W        W43472  27.820  26.751   4.015  0.0070 -0.2065 -0.1446
42609W        W43473   5.111   8.924   7.781 -0.0624  0.0494  0.0331
42610W        W43474  15.171  12.736  19.108  0.3690 -0.2656 -0.2097
42611W        W43475   9.410   2.825   8.221 -0.0191  0.0600  0.2376
42612W        W43476  11.376  25.330  17.420 -0.3020  0.0287 -0.0498
42613W        W43477   2.619   2.414   5.045  0.1636 -0.0176 -0.0872
42614W        W43478   4.490   7.660   4.631 -0.2875  0.1724  0.0331
42615W        W43479  28.485   0.382  16.818  0.0456 -0.2948  0.4398
42616W        W43480   4.945   7.211  14.332 -0.0873  0.0626  0.0176
42617W        W43481   2.940  12.310  10.509  0.3255  0.3936  0.1888
42618W        W43482  12.109  19.609   5.088  0.3361  0.3311 -0.0801
42619W        W43483  17.943  21.463  23.060  0.0593  0.1918  0.4094
42620W        W43484   0.477   5.254  20.028 -0.0836 -0.3298 -0.0261
42621W        W43485   7.541  24.613   1.287  0.0272  0.1523 -0.0195
42622W        W43486  20.200  17.495   9.555  0.3478 -0.1606 -0.1982
42623W        W43487  11.373  14.862   9.191  0.1499 -0.1501 -0.2040
42624W        W43488   2.918   3.315   2.431 -0.1105  0.0330 -0.1201
42625W        W43489  19.626   6.369  12.074 -0.3440 -0.0941 -0.0304
42626W        W43490   5.267   8.480  23.419  0.0667  0.0252 -0.2935
42627W        W43491   3.142  23.592  28.642  0.0462 -0.1283 -0.1594
42628W        W43492  25.398   2.548  12.158 -0.2678 -0.0813  0.0613
42629W        W43493  27.843  22.639  12.256  0.2052  0.1117  0.2289
42630W        W43494  11.584  24.547  13.816  0.0705  0.1037  0.2776
42631W        W43495  16.602  10.914  22.724 -0.0358 -0.1989  0.0276
42632W        W43496   3.522  15.684   7.775 -0.0206  0.1389  0.2009
42633W        W43497  11.993   8.302  19.791 -0.1789 -0.1050 -0.0290
42634W        W43498   3.000  15.353  12.834  0.0425 -0.1776  0.0441
42635W        W43499  21.739  27.325  10.760  0.1052 -0.0555  0.1261
42636W        W43500  27.013  17.647   6.795 -0.1147 -0.1789 -0.0794
42637W        W43501  23.193  22.576  12.230 -0.1925  0.1708  0.0147
42638W        W43502   1.351  21.348   6.741  0.0613 -0.0765 -0.2385
42639W        W43503  13.986  19.186  28.556  0.0339 -0.0190  0.0237
42640W        W43504   3.224   8.178   4.514 -0.0352  0.2410 -0.3442
42641W        W43505  26.823   0.124  21.853 -0.3174  0.0665 -0.0524
42642W        W43506  12.506  11.444   4.683  0.2030  0.1911  0.1197
42643W        W43507  10.959  17.848  15.299  0.0094 -0.0461  0.4387
42644W        W43508  10.922  28.265  16.476  0.0911 -0.1261  0.2082
42645W        W43509   7.708  24.492   1.742 -0.0422 -0.1391 -0.0348
42646W        W43510  12.549  15.632   2.570 -0.2273 -0.0061  0.1046
42647W        W43511   0.141  26.011  11.980 -0.1377 -0.2127 -0.0968
42648W        W43512   4.655  20.183  18.205 -0.1568  0.2045 -0.0878
42649W        W43513  10.586  25.362  15.238 -0.0177  0.0142 -0.0234
42650W        W43514  26.122  18.816   1.856 -0.0830  0.1083 -0.1282
42651W        W43515  26.081  25.442  18.612  0.4081  0.2248 -0.2847
42652W        W43516  17.612   2.864  18.404 -0.0833 -0.1541 -0.1053
42653W        W43517  10.105  19.177  13.104  0.3370 -0.1766  0.0800
42654W        W43518  21.797   8.840  16.775  0.0475 -0.0152  0.1384
42655W        W43519  15.858  20.976  25.587 -0.1986 -0.0864  0.1797
42656W        W43520  25.398   9.620   9.436  0.1518  0.0035  0.1946
42657W        W43521  12.502  25.200  13.818 -0.0392 -0.1159  0.3265
42658W        W43522  16.752   1.261   7.269 -0.1773 -0.0953  0.0265
42659W        W43523  11.683  10.752   1.586  0.2361 -0.0886  0.0856
42660W        W43524  16.046   3.650  13.364  0.2052  0.0198 -0.1430
42661W        W43525  17.521   3.604  12.227 -0.0170  0.1861  0.2743
42662W        W43526  13.239  15.814   9.206 -0.2588 -0.1166  0.2296
42663W        W43527  24.534  21.881   9.738  0.0414 -0.0558  0.0591
42664W        W43528  20.494  14.816   6.354 -0.0969  0.0525 -0.1704
42665W        W43529   4.953  21.773  25.797 -0.0409 -0.3555  0.0568
42666W        W43530   7.463   2.773  22.262  0.0541  0.0599  0.1597
42667W        W43531   1.970  15.940   4.574  0.0913  0.0395  0.0072
42668W        W43532   0.233  28.841   2.002 -0.3667  0.2394 -0.1010
42669W        W43533   8.648   3.722  18.856  0.0738 -0.3389  0.1957
42670W        W43534  21.457  13.526   1.703  0.1131  0.1069  0.1553
42671W        W43535   7.842  14.225   2.778 -0.0436 -0.2187  0.0231
42672W        W43536  21.806   5.514  12.548 -0.3065  0.2041 -0.1650
42673W        W43537   5.201   8.305   1.086  0.0911  0.0532 -0.1270
42674W        W43538   3.597  20.514  11.623 -0.1434  0.1608  0.0737
42675W        W43539  25.809  20.678  19.430  0.3797  0.0588 -0.0470
42676W        W43540  27.413  21.000  21.988 -0.3891 -0.0774  0.1244
42677W        W43541   2.062  18.327   2.387 -0.3337 -0.0309  0.4089
42678W        W43542  13.587   2.760  20.554 -0.1891 -0.0905 -0.1077
42679W        W43543   3.546  10.535  18.263  0.1682  0.2813 -0.0269
42680W        W43544  19.812   7.101   9.451  0.1831  0.0939  0.0274
42681W        W43545  12.862  13.577  14.766 -0.0773  0.2232 -0.0759
42682W        W43546   0.984   3.224  14.879 -0.1699 -0.1707  0.1786
42683W        W43547  16.982   1.073  24.533 -0.1899 -0.0638 -0.0538
42684W        W43548  11.786  18.696  12.239  0.1474 -0.1129  0.2236
42685W        W43549   3.028  14.014   7.853 -0.2099  0.0939  0.3389
42686W        W43550  11.326  14.447  17.171  0.0972  0.0930  0.0171
42687W        W43551   1.341   6.373  18.641  0.0992 -0.0187 -0.4135
42688W        W43552  15.784  24.620  11.677  0.1328  0.2773 -0.0285
42689W        W43553  23.853  19.709  22.126  0.1602 -0.3586  0.0940
42690W        W43554   5.449  13.672   8.811 -0.2377 -0.1823  0.0466
42691W        W43555  15.486   3.527  10.743 -0.2077 -0.0920  0.2104
42692W        W43556  27.521   6.008  17.172  0.4452 -0.0476  0.0665
42693W        W43557  20.979  27.647  27.736  0.0994 -0.1166 -0.0229
42694W        W43558  19.901   6.918  12.124 -0.0091 -0.1805  0.2957
42695W        W43559  13.167  17.335  25.186  0.0152 -0.0175 -0.3767
42696W        W43560  16.953   7.913  10.211 -0.2374 -0.1884  0.2981
42697W        W43561  13.818  18.563   6.663  0.0684 -0.2208  0.0698
42698W        W43562   7.882  27.021   5.461  0.1968  0.0182 -0.2476
42699W        W43563   4.799   1.620   3.025  0.0216  0.0591 -0.1583
42700W        W43564  13.894  18.605   7.339 -0.3623 -0.0960 -0.0671
42701W        W43565   2.195  29.097  20.297  0.0470 -0.0402 -0.0935
42702W        W43566  21.695  28.111   4.379  0.1308 -0.3543  0.0076
42703W        W43567   1.646  10.978  25.491  0.1467 -0.1107  0.1445
42704W        W43568  14.547  16.279   9.899 -0.1541  0.2770  0.0081
42705W        W43569  26.262  28.601  11.437  0.0139  0.2404  0.0693
42706W        W43570  26.074  11.344  24.364 -0.2467 -0.2507  0.0287
42707W        W43571  10.642  19.066  11.333 -0.1891 -0.2666 -0.0120
42708W        W43572  13.582  14.981   9.555 -0.0389  0.0349  0.1429
42709W        W43573   7.830  23.547   4.796 -0.1563 -0.4769 -0.2649
42710W        W43574   8.669  22.198   4.702  0.0794 -0.0033 -0.1321
42711W        W43575  15.013   5.592  24.225 -0.0640 -0.0183  0.4242
42712W        W43576   9.474  23.468   0.708  0.1532 -0.0195 -0.1938
42713W        W43577  20.044  25.359  12.943 -0.0386 -0.1321 -0.0391
42714W        W43578  25.830  11.115   3.112 -0.0314 -0.0045  0.0606
42715W        W43579   4.990  10.260   5.707  0.0633  0.5901 -0.2209
42716W        W43580  18.728  15.741  27.678  0.0866 -0.1012 -0.2528
42717W        W43581  24.743  16.264   8.401 -0.1836 -0.4040 -0.0463
42718W        W43582  28.037   8.677  11.822  0.1599 -0.0360  0.0517
42719W        W43583   3.413  19.238   9.318 -0.1835  0.4077 -0.1990
42720W        W43584  24.154  21.963  18.714  0.4226  0.0682  0.1473
42721W        W43585   9.237  28.962  13.521 -0.2762 -0.1524  0.0510
42722W        W43586  11.611  20.172  24.952  0.0322 -0.5390 -0.0702
42723W        W43587  17.989  18.760  14.640  0.1648 -0.0781  0.1397
42724W        W43588  18.433  18.278   0.302 -0.0548  0.0471  0.0124
42725W        W43589  25.930   3.202   7.579 -0.2629  0.1379  0.0457
42726W        W43590   0.283   1.360  11.872 -0.3369  0.1151 -0.1768
42727W        W43591  25.907   3.083   2.457 -0.1178 -0.0948  0.1897
42728W        W43592  26.918  16.925   6.415 -0.2161 -0.1871 -0.0946
42729W        W43593   3.179  20.767  11.887  0.1494 -0.3964 -0.5558
42730W        W43594   3.933  13.451  21.640  0.0045 -0.1071  0.0532
42731W        W43595  10.816  25.251  22.825  0.0776 -0.0817 -0.2332
42732W        W43596  17.849   7.383  27.817 -0.0438  0.0662 -0.0418
42733W        W43597   0.148  18.517   7.929  0.1114 -0.1122  0.0355
42734W        W43598   3.344  16.852   6.590 -0.1884 -0.1071 -0.0113
42735W        W43599   0.122  13.737   1.087 -0.1683  0.2343 -0.0581
42736W        W43600  15.033  16.068  20.665  0.0101  0.3902 -0.0633
42737W        W43601  22.592  11.271  14.364  0.0551 -0.0503 -0.1162
42738W        W43602   2.985  22.112   4.054 -0.0218 -0.2008  0.0554
42739W        W43603   0.874   4.706  29.025  0.1218  0.1896  0.0360
42740W        W43604   6.006   4.260  22.402  0.2264 -0.1239 -0.1221
42741W        W43605  14.750  12.159  13.966  0.1880 -0.1778 -0.4348
42742W        W43606  11.452  13.848  11.590  0.2030 -0.1172 -0.1229
42743W        W43607  16.836  14.265   9.260  0.1714  0.0569 -0.0533
42744W        W43608  22.927   7.573  17.874  0.0414  0.0776  0.3956
42745W        W43609  19.533   9.105   0.623  0.2293 -0.0564  0.0522
42746W        W43610   4.703  13.797  14.054 -0.5383 -0.0903 -0.4922
42747W        W43611   8.752  26.208  15.178  0.0163 -0.1417 -0.1351
42748W        W43612  24.044   4.055  13.287  0.1263  0.0970  0.1865
42749W        W43613   1.822  18.958   9.774  0.0452  0.1010  0.2490
42750W        W43614  10.213  15.612  15.826  0.1103  0.1451  0.2512
42751W        W43615  12.081   2.570   9.604 -0.0733  0.2097 -0.3520
42752W        W43616  13.233   7.974  25.055 -0.0541  0.0088 -0.1004
42753W        W43617   6.905  13.590   4.638 -0.3460  0.0316  0.0947
42754W        W43618  26.296  11.558  27.289 -0.2952  0.1244  0.1751
42755W        W43619  14.255  16.479  16.100 -0.0255 -0.2020  0.1202
42756W        W43620  13.001   2.702   6.687  0.0240 -0.2381  0.3185
42757W        W43621  10.334   1.263  23.289  0.0655  0.1029 -0.2792
42758W        W43622  26.693  23.284  20.526 -0.0471  0.0835  0.2605
42759W        W43623  26.600  19.695  12.711  0.0597  0.0913 -0.1124
42760W        W43624  14.384   5.474  10.278  0.1737  0.1545  0.1848
42761W        W43625  15.829  14.043  18.464  0.0714  0.0900 -0.2618
42762W        W43626  17.814  16.470  24.072 -0.1548 -0.0943  0.0013
42763W        W43627   1.957   1.134  23.987  0.0127 -0.2075  0.1248
42764W        W43628  16.341  17.313   7.978 -0.0755 -0.5003 -0.0681
42765W        W43629  24.898  22.270  19.284 -0.4127  0.1496 -0.2165
42766W        W43630  24.403  11.439   7.807  0.0739  0.1298  0.4636
42767W        W43631   8.516   3.291  20.247  0.0753  0.0217 -0.0220
42768W        W43632  23.546   9.365  19.707 -0.2069  0.2394  0.0090
42769W        W43633  26.597  21.599   0.544  0.0555 -0.0315 -0.1177
42770W        W43634  23.322  29.133   5.499 -0.2287  0.0580  0.0549
42771W        W43635   8.642  25.498  16.828  0.2415 -0.0656 -0.1316
42772W        W43636  28.824  24.155  12.704 -0.1051 -0.0100  0.0539
42773W        W43637  19.322  13.621  15.986  0.1387  0.2471 -0.0493
42774W        W43638  17.741  13.501   4.069  0.0966  0.0130 -0.0077
42775W        W43639   0.255   4.513  27.396 -0.0483  0.1892  0.1612
42776W        W43640  23.997  20.683  16.814  0.0483  0.2757  0.2998
42777W        W43641  26.594   0.545  12.965 -0.3174 -0.1286  0.4140
42778W        W43642  24.918  10.318  24.291 -0.0889  0.4009  0.1027
42779W        W43643  18.516  23.447  13.357  0.0901  0.2521 -0.3409
42780W        W43644  11.254  16.029  15.139  0.0834  0.1066  0.0828
42781W        W43645   8.847  13.638  15.909 -0.2035  0.3048 -0.0700
42782W        W43646  18.348  20.742   6.120  0.0834 -0.3808 -0.1654
42783W        W43647   9.623  21.014   9.326  0.1930 -0.1723  0.0917
42784W        W43648  24.828  19.116   6.759  0.0222  0.2727 -0.1913
42785W        W43649  26.003  13.488  19.384 -0.1218  0.0853  0.1574
42786W        W43650  26.163   6.519   9.550 -0.2009 -0.4656 -0.3294
42787W        W43651   6.467  11.881  19.830  0.0923 -0.3619 -0.3631
42788W        W43652  21.597  25.674   1.476  0.1208  0.0520 -0.1557
42789W        W43653  10.714  14.569   8.512 -0.2678 -0.0390 -0.0129
42790W        W43654  11.877  20.618   4.940 -0.1109 -0.0734 -0.1537
42791W        W43655  11.883  11.931  14.718 -0.1111 -0.2041 -0.0294
42792W        W43656  26.161  14.580  20.944  0.0155 -0.0199  0.0493
42793W        W43657  10.006   4.693   9.794 -0.3616 -0.1405 -0.1760
42794W        W43658  11.763   2.838   1.185 -0.2958 -0.2127 -0.0668
42795W        W43659  10.813  10.898   5.398  0.4061  0.0896 -0.4978
42796W        W43660   1.776  23.839  17.275  0.1892  0.1473 -0.1163
42797W        W43661  28.123  13.792   8.185  0.2235  0.2596  0.0945
42798W        W43662   6.659  18.143   9.438  0.1818  0.0818 -0.0076
42799W        W43663  26.432  17.558  13.425  0.0646  0.0680  0.0647
42800W        W43664  10.805  26.424   7.024  0.1037 -0.0958 -0.2488
42801W        W43665  13.023  26.807   6.587  0.0879  0.1110  0.0004
42802W        W43666  12.988  18.881   8.739  0.1550 -0.0331 -0.1576
42803W        W43667  28.304  28.012   8.240 -0.3328 -0.2005  0.1048
42804W        W43668  21.016  16.313  25.067  0.0537  0.2155 -0.0943
42805W        W43669   5.115  11.021   4.628 -0.2547  0.0267  0.0528
42806W        W43670   9.834  26.406  21.043  0.0011 -0.1251 -0.2291
42807W        W43671   3.164  10.002  14.197  0.2329  0.4231  0.3354
42808W        W43672  11.918  21.844   2.792  0.1824  0.1735 -0.0370
42809W        W43673  26.602  10.274   5.020  0.1662  0.4452  0.1261
42810W        W43674   1.520   5.267   5.984  0.0255  0.0096 -0.1955
42811W        W43675   8.728  21.263   1.659 -0.0859 -0.1611  0.1292
42812W        W43676   7.533  26.850  23.862 -0.0591 -0.0641 -0.0448
42813W        W43677   9.373   8.913  24.485  0.0351 -0.2893 -0.0402
42814W        W43678   1.926  21.438   4.674  0.3454  0.2441 -0.1088
42815W        W43679  20.600  11.976   1.612 -0.0432 -0.0750 -0.0882
42816W        W43680  17.840  15.249   0.727 -0.0344 -0.0138  0.0074
42817W        W43681  19.733   1.085  16.732  0.0255  0.1021  0.2810
42818W        W43682  19.981  12.647   4.593  0.0034  0.3375  0.5111
42819W        W43683  19.511  17.901   7.077 -0.2600 -0.0857  0.0393
42820W        W43684   8.931  19.601  13.667 -0.2156  0.2747 -0.0715
42821W        W43685  28.041  22.219  17.024  0.1661  0.0418  0.0438
42822W        W43686  14.608  17.545  21.535 -0.4687 -0.1272 -0.3602
42823W        W43687  17.304  12.043  13.400  0.1140  0.0134 -0.1269
42824W        W43688  23.665   4.577   8.515  0.2006  0.1653  0.1969
42825W        W43689  10.263  10.346  19.103  0.3935 -0.5016  0.0403
42826W        W43690  28.762   4.194   5.324  0.0772 -0.0277 -0.1318
42827W        W43691   1.640   8.079  12.045 -0.4405 -0.0661 -0.2607
42828W        W43692  12.904  26.414  19.061 -0.2452  0.0313 -0.1034
42829W        W43693  21.254  11.538  28.908 -0.0915 -0.1812  0.4152
42830W        W43694   7.143  22.033   7.083  0.0199 -0.2148 -0.2500
42831W        W43695   5.553  27.388  17.408  0.5314 -0.1903  0.0484
42832W        W43696   5.069  16.248  14.381  0.2499 -0.0555  0.4200
42833W        W43697   7.374  24.119   8.568 -0.1269 -0.1818 -0.0876
42834W        W43698  28.056  17.139  28.479  0.0342  0.0293 -0.0089
42835W        W43699  25.928  16.877  12.196  0.0651  0.0378 -0.2354
42836W        W43700  14.811  15.365  15.758 -0.0756 -0.0833  0.2916
42837W        W43701  12.163   7.997   5.130  0.1397 -0.0719 -0.0635
42838W        W43702   3.718  26.227   4.965  0.0034  0.2105 -0.0458
42839W        W43703   6.004  22.648  14.533 -0.0873 -0.0193  0.2123
42840W        W43704  25.030  11.208   6.013  0.0731 -0.3129  0.0543
42841W        W43705  28.513   5.832   5.187  0.0166 -0.2789  0.3806
42842W        W43706   7.163   4.036  25.247  0.2757  0.0619  0.1737
42843W        W43707   7.970   5.551  14.833 -0.1481  0.0390  0.1813
42844W        W43708  23.143  25.902  24.852 -0.0270 -0.0890 -0.1074
42845W        W43709  26.790  21.477  17.486  0.0693  0.0041  0.3280
42846W        W43710  17.434   6.589  19.713 -0.0898 -0.0346 -0.0113
42847W        W43711  23.419   5.003   5.777 -0.1357  0.0234  0.1540
42848W        W43712  14.677  11.753  26.478 -0.0449 -0.1500 -0.1783
42849W        W43713  21.879  17.585  23.407  0.0702 -0.0756 -0.0190
42850W        W43714   7.746  10.270  19.324  0.1891 -0.2197 -0.2736
42851W        W43715   9.518  17.731   7.626  0.0316  0.0514  0.1427
42852W        W43716   2.959   4.499   3.574 -0.2662 -0.0422  0.0068
42853W        W43717  24.197  25.587   0.622  0.1543  0.2083  0.1945
42854W        W43718   4.973  22.808   8.134  0.4538 -0.0825 -0.1976
42855W        W43719   7.612   5.474   4.347 -0.1652 -0.6221  0.2108
42856W        W43720  24.376  22.566  23.885 -0.2188  0.1192 -0.1199
42857W        W43721   6.026  21.483   5.450  0.1351 -0.4191  0.2495
42858W        W43722  28.224  13.402  12.356 -0.1294 -0.2032  0.0971
42859W        W43723  16.629   5.962  20.592  0.1935  0.1719  0.3663
42860W        W43724  14.058  11.614   7.776 -0.2878  0.0787 -0.0146
42861W        W43725   9.876  16.186   3.705 -0.3096  0.2252 -0.0358
42862W        W43726   7.860  17.974  11.304  0.0018 -0.1621 -0.0112
42863W        W43727   2.981   3.006  10.633 -0.1301  0.0253  0.1279
42864W        W43728  22.238  24.039  21.989 -0.1585  0.0904  0.0921
42865W        W43729   9.601   7.326   0.606 -0.0498  0.1063 -0.2442
42866W        W43730  21.487   5.739  15.995 -0.3272 -0.2782  0.1666
42867W        W43731  23.259  19.726  11.745 -0.1839  0.1810  0.0432
42868W        W43732   4.444   2.939  14.012 -0.0596 -0.0074  0.2580
42869W        W43733   4.299  13.886  13.770  0.0206  0.0647  0.3271
42870W        W43734   5.450  24.858  22.685  0.0058  0.1489  0.1778
42871W        W43735  15.032   4.099  19.193  0.0912  0.0270 -0.0840
42872W        W43736  10.433  21.627  26.937 -0.0320 -0.0274 -0.0196
42873W        W43737   5.694  17.702   0.198  0.2476  0.0315  0.1707
42874W        W43738  16.190  21.588   4.155 -0.0010 -0.1093  0.0332
42875W        W43739  20.473  15.502   5.327  0.2194 -0.2412 -0.2983
42876W        W43740   2.437  10.011  17.167  0.0906 -0.2621  0.2629
42877W        W43741   0.211  22.257  18.238  0.0981 -0.1934 -0.1140
42878W        W43742  19.507  28.111  19.052  0.0338  0.1634 -0.0867
42879W        W43743   9.959   9.561  17.990  0.1340 -0.0948  0.0514
42880W        W43744  19.039  13.092  22.153 -0.1746  0.1528  0.0482
42881W        W43745   7.903   9.288  23.006 -0.1325  0.3094  0.2493
42882W        W43746   8.567  10.941  21.897 -0.3681 -0.1789 -0.0230
42883W        W43747  28.340  28.848   5.860  0.1523  0.1637 -0.4568
42884W        W43748  10.200  10.876   9.077  0.2037  0.1808 -0.1651
42885W        W43749  25.905  10.426   2.977 -0.0521  0.3383 -0.0647
42886W        W43750  10.237  20.397   5.246  0.1180 -0.0974  0.1654
42887W        W43751   7.260   5.178  22.386  0.0407 -0.0013 -0.2277
42888W        W43752  29.102  19.918   2.485  0.3830  0.0419 -0.0060
42889W        W43753  28.621   8.238   8.434  0.0022 -0.1258  0.0062
42890W        W43754  13.071  26.582  17.269 -0.0656 -0.0665 -0.0943
42891W        W43755   5.972  20.774  14.574 -0.0565  0.2136  0.3685
42892W        W43756  25.326  21.996   9.868  0.0263  0.1902 -0.1075
42893W        W43757  23.336   4.987   9.339 -0.2118  0.1739 -0.2907
42894W        W43758  10.182  17.633   6.710 -0.2983 -0.0426 -0.0729
42895W        W43759  14.968  24.067  26.150 -0.0020  0.0591 -0.2178
42896W        W43760  14.868  11.029  14.841 -0.2257 -0.2283 -0.1437
42897W        W43761  23.712   6.891  11.818 -0.1172  0.3259 -0.6339
42898W        W43762  17.987  21.123   3.105  0.1312 -0.3638 -0.2200
42899W        W43763   6.338  16.425  17.597 -0.1752 -0.3115  0.0830
42900W        W43764  24.773  19.357  28.944  0.0206 -0.0794 -0.0378
42901W        W43765  26.594  29.121   3.719  0.0237  0.1516 -0.0452
42902W        W43766  24.333   9.026  20.078  0.1984 -0.2464 -0.1129
42903W        W43767   6.777  17.160   3.863  0.1771  0.0002 -0.1025
42904W        W43768   8.844  16.022  29.140 -0.3001  0.0349  0.0637
42905W        W43769   6.765  11.001  25.898 -0.2119  0.0209  0.0614
42906W        W43770  16.971  16.385  16.126  0.1998 -0.1245 -0.2270
42907W        W43771  22.811   6.509  13.323  0.2111 -0.0588 -0.0310
42908W        W43772  16.298   9.735  19.186  0.1599  0.0484 -0.1286
42909W        W43773  26.133   9.985   1.290  0.0056 -0.0052  0.0503
42910W        W43774  20.503  11.237  22.257 -0.1636  0.5270 -0.2284
42911W        W43775  12.587  17.161   7.820  0.2178 -0.1326 -0.0905
42912W        W43776   6.387  18.397  24.529  0.1027 -0.0988 -0.2858
42913W        W43777   7.732   5.333   5.234  0.0674 -0.0519  0.2129
42914W        W43778  24.983   4.413   3.050  0.0152 -0.2049 -0.1916
42915W        W43779  19.358  20.511   6.790 -0.0434  0.3739 -0.2544
42916W        W43780  23.358  14.346   9.762  0.3725 -0.0530 -0.1031
42917W        W43781   1.150  12.896  11.861 -0.1145 -0.0613 -0.0169
42918W        W43782   6.612  13.241  24.872  0.3487  0.0924  0.1229
42919W        W43783   0.291  24.749   6.505  0.2007  0.0669 -0.2197
42920W        W43784   7.168  24.773  16.695  0.1115  0.1159 -0.0241
42921W        W43785  26.567   5.880  10.977  0.0248  0.0325  0.1774
42922W        W43786   5.045  10.670  16.288  0.0296  0.2189  0.1483
42923W        W43787   3.989  18.244  22.814 -0.0932 -0.1723 -0.3150
42924W        W43788  13.318  21.370  22.717 -0.1342 -0.5289  0.2026
42925W        W43789   7.544  23.109   8.571 -0.1389  0.2020 -0.4519
42926W        W43790   3.059   3.393   9.749  0.0355  0.0022 -0.0393
42927W        W43791  27.188  20.529  19.734  0.2523 -0.0807  0.1537
42928W        W43792  16.145  15.854  28.758 -0.1154 -0.2089  0.1393
42929W        W43793   2.874  20.615  14.872  0.1538 -0.1510 -0.0939
42930W        W43794   1.597  28.093   4.105 -0.2306  0.3808 -0.1410
42931W        W43795   6.230  13.431  12.380  0.1769 -0.2460 -0.1840
42932W        W43796   7.158  10.882  19.687  0.2378  0.2018 -0.2212
42933W        W43797   3.401  13.321   5.518 -0.0900 -0.0752 -0.1134
42934W        W43798  14.228  16.530   4.200 -0.3668  0.0276  0.2400
42935W        W43799  28.598  21.141  25.991 -0.1031  0.0453 -0.4944
42936W        W43800   3.110   6.948  15.430  0.0851 -0.1512  0.1530
42937W        W43801   9.325   3.797   8.562 -0.2120 -0.1442 -0.0457
42938W        W43802  12.201  18.400  14.816  0.1861  0.0689 -0.1286
42939W        W43803  16.590  16.134  15.374 -0.1300  0.0434 -0.1998
42940W        W43804   8.931  26.965   0.095 -0.2869  0.1030  0.2995
42941W        W43805   4.624  19.300   5.332 -0.1058  0.0593  0.0008
42942W        W43806   8.364   8.903   9.106 -0.2729  0.1686  0.0438
42943W        W43807   2.907  15.195   0.228 -0.0120  0.2153 -0.1886
42944W        W43808  18.659   2.716  21.498  0.0393  0.3129  0.0709
42945W        W43809   6.975  28.635  11.660  0.0877 -0.1963  0.0605
42946W        W43810   4.799  15.783  27.944  0.4625 -0.3162 -0.0682
42947W        W43811  10.887   0.603  14.235  0.1218  0.0178 -0.2480
42948W        W43812   5.113   7.679   7.434  0.2619 -0.1037 -0.0310
42949W        W43813  23.607  13.034   6.029 -0.3189  0.0678 -0.3452
42950W        W43814   6.061  16.100   7.939  0.3810  0.0308  0.1457
42951W        W43815   9.366  16.779  23.538 -0.0862  0.1721 -0.0293
42952W        W43816  27.954   3.065  20.001  0.0084 -0.4414  0.0262
42953W        W43817  25.432  19.942   4.434 -0.4193  0.0188 -0.1321
42954W        W43818  16.838  11.415  26.065 -0.1946 -0.0076  0.2344
42955W        W43819   2.398   7.984   9.343  0.3395  0.0473 -0.0748
42956W        W43820  20.465  22.705  21.660 -0.2660 -0.0399 -0.1067
42957W        W43821   8.429   2.585   7.988 -0.1393 -0.4005 -0.1646
42958W        W43822   0.580  15.022   6.235 -0.0726  0.0939 -0.0748
42959W        W43823   0.039  22.560  16.067  0.4869  0.0667  0.1675
42960W        W43824   1.818  16.551   6.210  0.3284  0.1737  0.0262
42961W        W43825  10.143  15.774   3.382  0.1262 -0.1160  0.2907
42962W        W43826   2.081  20.478  19.742 -0.0676  0.1766  0.0813
42963W        W43827  14.681   4.635   4.709  0.4100  0.0639 -0.1539
42964W        W43828   9.838  21.151   1.593  0.0653 -0.0182  0.0127
42965W        W43829  18.414   9.006  26.660 -0.0973 -0.4118  0.2808
42966W        W43830   5.457  21.426  12.975  0.3145 -0.1628  0.1560
42967W        W43831  12.523  12.339  10.913  0.1746 -0.0395  0.0651
42968W        W43832   5.794  23.176  12.907  0.1825 -0.3450  0.0943
42969W        W43833  17.075   6.762  21.374  0.1703  0.0310  0.0824
42970W        W43834  15.892  20.519  25.359  0.1107 -0.3909  0.1613
42971W        W43835   2.999  26.653   9.459  0.1118 -0.3925  0.0199
42972W        W43836   1.934   5.073  20.036 -0.4123 -0.2947 -0.3296
42973W        W43837   8.590  16.941   3.891 -0.0874 -0.3188  0.0738
42974W        W43838  17.150  27.686   6.082 -0.0608 -0.2403  0.1269
42975W        W43839   9.370  21.873  28.438  0.1239 -0.0264  0.0399
42976W        W43840   9.653  15.310  10.437 -0.0799  0.0301  0.1578
42977W        W43841  14.241   1.147  17.755 -0.0522 -0.0769  0.3391
42978W        W43842  15.539  20.757   7.298 -0.2319  0.3297  0.3840
42979W        W43843   9.399  16.198   1.200 -0.0880  0.1453  0.0916
42980W        W43844   2.029  26.174  19.018 -0.1449 -0.1661  0.1638
42981W        W43845   2.466   8.301  23.063  0.3030  0.0377 -0.0250
42982W        W43846   2.405  23.698   6.157 -0.0319  0.0209 -0.0604
42983W        W43847  27.190  12.832  22.698  0.0533  0.0515 -0.1011
42984W        W43848   6.580   2.166  29.081  0.3169 -0.2409 -0.0062
42985W        W43849   3.749   5.808  26.727 -0.2121 -0.3087  0.0353
42986W        W43850   4.659  24.812   0.923  0.2386  0.1347  0.0509
42987W        W43851  20.616   5.181  24.425  0.3363 -0.1450 -0.1602
42988W        W43852   1.605   7.499   4.957 -0.1726 -0.2469 -0.2354
42989W        W43853   3.912   7.058  13.951  0.0499  0.2516  0.1510
42990W        W43854   7.511  26.875  22.563 -0.2241  0.2287 -0.0219
42991W        W43855  14.557   0.032  14.578  0.1098 -0.1769 -0.0505
42992W        W43856  19.778  20.969  21.868 -0.0206  0.0851 -0.1373
42993W        W43857   2.628   0.561   2.293 -0.0519  0.0514 -0.0746
42994W        W43858  20.105   1.677   8.949  0.0941  0.4601 -0.1469
42995W        W43859  19.456  22.639  21.798 -0.1481 -0.0351  0.0348
42996W        W43860  25.875  12.006   3.788 -0.0077 -0.1971 -0.3577
42997W        W43861  19.032  15.953   5.494 -0.1302  0.0832  0.0693
42998W        W43862   8.402  20.634  21.292  0.4570 -0.2538 -0.2563
42999W        W43863  24.347  13.721   6.655  0.1638  0.2233  0.3172
43000W        W43864   1.447  19.661   5.616  0.0165  0.2333 -0.1372
43001W        W43865  11.497  24.251  12.611 -0.0330  0.2158  0.3313
43002W        W43866  10.492   9.332  26.734 -0.2766  0.0358  0.1615
43003W        W43867  23.783   9.315   3.777  0.1250 -0.1053 -0.1750
43004W        W43868   1.207   1.520  15.375  0.0732 -0.0355 -0.0279
43005W        W43869  16.267   7.020  10.724  0.2823  0.1558  0.2127
43006W        W43870  11.621  11.229  21.971 -0.0699 -0.1937  0.1678
43007W        W43871   5.066   4.513  12.097 -0.1108  0.0903 -0.2621
43008W        W43872  17.781  24.296   4.759  0.0922  0.2491  0.0304
43009W        W43873  20.708  28.661   3.883 -0.2268  0.1639  0.1718
43010W        W43874  13.739  13.607  28.849 -0.3241  0.0606 -0.2042
43011W        W43875   8.243   9.091  21.567  0.0695  0.2630 -0.1768
43012W        W43876   4.738  27.151   8.289  0.1277 -0.0925  0.0053
43013W        W43877  26.131  16.853  14.099 -0.1410 -0.4098 -0.2871
43014W        W43878   9.837  19.166   2.042 -0.2433 -0.1021 -0.0547
43015W        W43879   9.253  23.845  18.814 -0.0853 -0.0135 -0.1861
43016W        W43880   5.229  28.875  22.444 -0.0697  0.2469  0.0836
43017W        W43881   2.832  21.896  16.181  0.1576  0.0259  0.1770
43018W        W43882  25.414  27.702   1.205 -0.0568  0.1969  0.0203
43019W        W43883  26.932  15.223   9.536  0.3160 -0.2039 -0.1906
43020W        W43884  19.491  23.962  13.521  0.2953  0.2025 -0.0616
43021W        W43885  28.955  17.683  12.962  0.0638  0.0310  0.1107
43022W        W43886   6.190  24.473   1.676  0.1402 -0.1038  0.0183
43023W        W43887   2.458  21.430  20.515  0.0468 -0.1342  0.2756
43024W        W43888  27.418   6.493  21.311 -0.3638 -0.2065  0.3003
43025W        W43889  20.892  13.423   0.056 -0.0718 -0.1703  0.1583
43026W        W43890   8.258   0.015   0.643  0.0527 -0.2775  0.2189
43027W        W43891  24.294   7.803  12.753 -0.0015  0.1392  0.0001
43028W        W43892  14.399   0.981  11.153  0.0545  0.2084 -0.1850
43029W        W43893  13.602  25.691  10.329 -0.3192 -0.1194  0.3257
43030W        W43894   7.625  11.699   8.851 -0.2536  0.0913  0.1093
43031W        W43895   0.626   0.093  20.328 -0.2101  0.4519 -0.0237
43032W        W43896   8.109   4.635  12.163 -0.1168 -0.0215 -0.0108
43033W        W43897  14.115  21.939   6.098  0.5325 -0.1408  0.0077
43034W        W43898  17.546  14.547  16.707 -0.0785  0.0673 -0.4755
43035W        W43899  13.276   1.582  14.680 -0.3220 -0.1194 -0.2827
43036W        W43900   1.906   3.820  26.868 -0.1427  0.2802  0.2844
43037W        W43901  26.495  24.486  27.073 -0.3239  0.1047  0.0385
43038W        W43902  19.922  10.714  18.556 -0.1245  0.0232  0.0993
43039W        W43903   4.611  25.849   9.564  0.0594 -0.1329  0.0240
43040W        W43904   0.758  10.161  15.605 -0.1818  0.0472 -0.0425
43041W        W43905   6.435  27.243  17.543 -0.0746  0.1517 -0.0022
43042W        W43906   3.971  12.974  10.418 -0.0973 -0.0232 -0.0913
43043W        W43907  18.456   0.087  21.546 -0.3871 -0.3388 -0.1558
43044W        W43908   4.490  13.257  15.016 -0.2001  0.2297 -0.2027
43045W        W43909  14.921  27.035  10.676 -0.0692  0.0890  0.1501
43046W        W43910  19.338   9.681  12.350 -0.0711 -0.1750 -0.4074
43047W        W43911  25.046   2.995  21.470 -0.0417  0.0018  0.0821
43048W        W43912   9.248  17.813  12.674 -0.0665  0.1030  0.0731
43049W        W43913   9.607  17.549   1.121  0.1993  0.2962 -0.0778
43050W        W43914   1.127  25.765   5.063 -0.4764  0.1332 -0.0756
43051W        W43915  20.204  19.648   9.066  0.1861  0.1398  0.2709
43052W        W43916   9.267  16.786  21.175 -0.2116 -0.1446 -0.1030
43053W        W43917  20.358  10.134  17.927 -0.1663  0.3194 -0.3638
43054W        W43918   0.864  18.903  15.555 -0.1321 -0.0750 -0.0655
43055W        W43919  12.661  12.500  27.789  0.3249  0.0565 -0.0177
43056W        W43920   6.828  18.023  17.274  0.1324  0.0821  0.0663
43057W        W43921   8.926  19.409  10.879  0.0335 -0.3079 -0.0188
43058W        W43922  25.710  17.791   6.539 -0.2034 -0.0149 -0.3749
43059W        W43923   2.037   0.918   1.591  0.1925  0.1781 -0.2178
43060W        W43924  24.128  13.071  20.966 -0.1772  0.0589  0.1445
43061W        W43925  19.797  25.335   4.872  0.3027  0.2241 -0.0172
43062W        W43926  18.073   8.359  24.226 -0.0674 -0.0157  0.0590
43063W        W43927   1.697  19.589   8.241 -0.1250 -0.0019 -0.1163
43064W        W43928  18.457  26.728  15.476 -0.0268 -0.1530 -0.3145
43065W        W43929   3.773  27.190  21.357 -0.2252 -0.4125  0.3379
43066W        W43930  20.484  22.604   7.716 -0.1178  0.1834  0.0604
43067W        W43931   3.814  15.448  10.349  0.0418 -0.0002  0.0783
43068W        W43932  24.813  23.369  23.231 -0.1930 -0.2330 -0.1045
43069W        W43933  20.146  25.528  27.592 -0.1126  0.1175  0.1853
43070W        W43934  22.667   0.022   7.723 -0.1408  0.0454  0.1177
43071W        W43935  14.144  16.085  16.379  0.0586 -0.0396  0.1342
43072W        W43936   0.926  19.619  19.824 -0.0327 -0.2481  0.4217
43073W        W43937   4.483  19.629   6.780 -0.1384 -0.1755  0.2532
43074W        W43938   3.558   8.557  11.367 -0.0360  0.2099  0.2481
43075W        W43939  16.745   3.975  11.339 -0.3180 -0.2519 -0.2918
43076W        W43940  25.492  16.356  15.084 -0.1695 -0.1832 -0.1130
43077W        W43941  13.917   1.450  25.161 -0.4424  0.2862  0.0903
43078W        W43942  13.855  25.822  22.359 -0.1154 -0.0603  0.5008
43079W        W43943  14.432  13.641   2.711 -0.2598  0.1256 -0.0170
43080W        W43944  24.895   2.050  21.050  0.1808  0.1323  0.0204
43081W        W43945  17.920   9.450   6.550  0.4096  0.0493  0.0887
43082W        W43946  15.302  12.334  18.837  0.3256  0.0993  0.1351
43083W        W43947   9.054  16.944   8.168  0.1309  0.3244 -0.2157
43084W        W43948   4.827   7.602   8.820  0.0311 -0.0783  0.0641
43085W        W43949   4.180   0.230   4.611 -0.0890 -0.1143  0.2907
43086W        W43950  25.840  12.528  20.524  0.1173 -0.2427 -0.0784
43087W        W43951  15.115   9.061   7.352  0.2121 -0.2815 -0.1405
43088W        W43952  14.481  15.601  18.883 -0.0830 -0.0135 -0.3282
43089W        W43953  22.988  24.130  19.029 -0.1171 -0.1974 -0.0612
43090W        W43954  27.339   7.287  13.862  0.2286 -0.2594  0.3887
43091W        W43955  12.817  13.270  13.030 -0.2329 -0.2132  0.3513
43092W        W43956  22.251  24.020   3.206  0.1643  0.0953  0.1661
43093W        W43957  22.370  18.497  18.578  0.1115 -0.1286 -0.1569
43094W        W43958  27.831   9.196  11.448 -0.1613 -0.0118 -0.0722
43095W        W43959  10.833  22.133  25.626 -0.0417 -0.3085 -0.3321
43096W        W43960  12.978  10.454  17.654 -0.1231  0.0275 -0.0755
43097W        W43961   5.171   0.885  18.303 -0.1533  0.0404  0.0504
43098W        W43962  14.305  15.742  28.193 -0.0390 -0.0903  0.0851
43099W        W43963   8.624  10.248   3.535  0.0067  0.0676 -0.1231
43100W        W43964   6.064  15.602  10.674  0.2185 -0.0429  0.3743
43101W        W43965   5.326  28.277   1.300 -0.0854  0.2304 -0.1545
43102W        W43966   8.571   2.295  21.720  0.0093  0.1318  0.0834
43103W        W43967  16.358  12.829  26.978 -0.0574 -0.1292  0.3299
43104W        W43968  28.329  23.087  16.300 -0.1236 -0.1585  0.3487
43105W        W43969  19.424   8.898  12.490 -0.0942  0.0485  0.1584
43106W        W43970  28.351  11.856  21.631  0.3190 -0.1239  0.1395
43107W        W43971  21.495  25.571   0.517  0.2060  0.0329  0.0765
43108W        W43972  26.377   7.916   5.419  0.0143  0.0764  0.1291
43109W        W43973  19.444  11.995  13.089  0.2796  0.1238 -0.0790
43110W        W43974   8.501  12.053  18.700 -0.0422  0.4410  0.1273
43111W        W43975  28.049   0.857  13.273  0.0991  0.1234 -0.1339
43112W        W43976   7.747   6.622   2.678  0.0888  0.0713  0.0626
43113W        W43977  24.886   2.486  14.007  0.3534  0.0211  0.0445
43114W        W43978   7.765  22.354  10.623  0.0896  0.0392 -0.2167
43115W        W43979   1.769  27.659   4.960  0.1160 -0.2976  0.0338
43116W        W43980  18.945   0.048  13.196  0.2251  0.1806 -0.1212
43117W        W43981  11.540  19.365   7.032  0.1290 -0.0216  0.0624
43118W        W43982  14.229   3.476  15.037 -0.1940  0.0349  0.1663
43119W        W43983   0.179   9.387  16.650  0.2677 -0.1558 -0.0232
43120W        W43984  17.146  13.832  16.006 -0.0765 -0.1749 -0.0822
43121W        W43985  11.837   4.782  26.761 -0.1600 -0.2578  0.0401
43122W        W43986  18.573  21.005   9.617  0.0100 -0.2941  0.2696
43123W        W43987  21.429   1.842  14.402  0.1358  0.3489  0.0076
43124W        W43988  14.946  28.761  11.335  0.0917 -0.0196 -0.1493
43125W        W43989   5.037  25.496  27.147 -0.0584  0.0576  0.2634
43126W        W43990  10.282   2.370  11.221 -0.0666  0.1460  0.0513
43127W        W43991   8.118   8.208   9.654  0.1656  0.1129  0.1308
43128W        W43992   9.308  18.992   0.950 -0.0505 -0.2730  0.1512
43129W        W43993   7.986  27.209  27.758  0.1967  0.2301  0.1437
43130W        W43994  28.009   8.745  10.279  0.3162  0.0375 -0.1624
43131W        W43995  17.685  22.249  10.657 -0.0781 -0.1477 -0.1083
43132W        W43996  18.548  24.258   3.916 -0.0030  0.0306 -0.0472
43133W        W43997  26.690   5.529  19.867  0.0541  0.2447 -0.1676
43134W        W43998   9.328  13.025  28.979  0.1226  0.0967  0.2159
43135W        W43999   2.533  29.033   6.697  0.2884 -0.5329 -0.1583
43136W        W44000  23.363   3.343   1.213  0.1147 -0.0948  0.0990
43137W        W44001  11.665  18.349  13.738 -0.1676 -0.4439 -0.2775
43138W        W44002   5.769  20.877  12.418 -0.3542 -0.0895  0.1920
43139W        W44003  25.848  14.543   9.546  0.0387  0.1762  0.1614
43140W        W44004   3.233   3.050  11.960 -0.1710 -0.1254  0.1363
43141W        W44005   2.693   2.867   5.379  0.0133 -0.0482  0.1374
43142W        W44006  21.020   9.122  24.062 -0.0416  0.2285  0.0793
43143W        W44007  12.122  16.993  28.286 -0.2363 -0.1209  0.1938
43144W        W44008  12.557  19.469  13.488 -0.0582  0.1788 -0.0482
43145W        W44009  24.365   1.719  17.324  0.1720 -0.0054 -0.2957
43146W        W44010  22.830  13.186  22.659  0.4346 -0.0733  0.2627
43147W        W44011   5.608  17.252  12.828  0.0654  0.0299 -0.1314
43148W        W44012  27.378   2.571  22.463  0.0047 -0.0288  0.1723
43149W        W44013  17.621  26.559  20.686  0.1440  0.2613 -0.1906
43150W        W44014   0.348  19.589  14.265 -0.1490 -0.0365  0.2855
43151W        W44015  15.178  23.198  11.988 -0.0504 -0.1838  0.1527
43152W        W44016   9.667   8.505  15.828  0.1458  0.0132 -0.2583
43153W        W44017  27.958  20.604  10.675  0.0139  0.1126  0.0247
43154W        W44018   8.481  18.135  17.855  0.1755  0.1641 -0.0178
43155W        W44019  21.702   6.931  18.196  0.0573  0.1058 -0.2030
43156W        W44020   5.806  19.723   0.280 -0.2197  0.2529  0.1157
43157W        W44021   4.474  26.357  25.676  0.1349 -0.0177 -0.2622
43158W        W44022   1.498  28.948   2.037 -0.1580  0.0401 -0.1304
43159W        W44023   4.516  22.481  19.459 -0.0308 -0.1044 -0.0685
43160W        W44024  11.694  21.712  19.579  0.0821 -0.1076  0.0312
43161W        W44025   9.913  11.077   6.511  0.2752  0.2324 -0.0197
43162W        W44026  10.478  18.693  19.118 -0.0111 -0.0903 -0.4397
43163W        W44027  21.084   3.173   0.944 -0.2682  0.0868 -0.2024
43164W        W44028  25.834  16.105  18.572 -0.1505  0.1392 -0.3515
43165W        W44029  13.787  24.852  27.721  0.1424  0.4648  0.0354
43166W        W44030  15.345  11.978  18.435  0.1567 -0.0998  0.0953
43167W        W44031  10.949  24.052  19.474 -0.1190 -0.0470 -0.0217
43168W        W44032   7.671   7.699   1.276  0.0419 -0.1307 -0.1250
43169W        W44033  11.574  16.143  14.145  0.1655 -0.0582 -0.0410
43170W        W44034  24.611  21.461   0.264  0.2879  0.0282  0.0968
43171W        W44035  24.080  13.703   6.150 -0.0135  0.1000 -0.2372
43172W        W44036   1.329  23.088  11.212 -0.0815 -0.0452 -0.1995
43173W        W44037   0.484  11.626   4.407  0.1093 -0.0906 -0.0468
43174W        W44038   6.648   5.776   9.261  0.1075 -0.2147  0.0154
43175W        W44039  14.004  14.566  14.392  0.1342  0.4378  0.0268
43176W        W44040  20.651  24.730   7.982 -0.3250  0.2019  0.0416
43177W        W44041   4.579  15.345   5.460  0.1076  0.2516  0.0423
43178W        W44042   8.151   5.353  10.751  0.1793 -0.4480  0.1437
43179W        W44043  13.634  14.532  13.920 -0.2587 -0.1266 -0.1443
43180W        W44044  20.724  24.436  11.387  0.2415 -0.1031 -0.0159
43181W        W44045   5.786   3.441  28.979 -0.0420 -0.4012 -0.1547
43182W        W44046   5.134  25.488  11.363  0.0227 -0.2620 -0.1007
43183W        W44047   2.493  23.354  13.258  0.2934  0.2395  0.1052
43184W        W44048   6.021  19.129  17.796 -0.1381  0.2440  0.0949
43185W        W44049   1.321   8.282  24.637  0.1405  0.0356 -0.4084
43186W        W44050  25.163  21.542   7.693 -0.2810 -0.3772  0.0274
43187W        W44051  11.043  15.842   3.680 -0.4360 -0.3567 -0.1461
43188W        W44052  25.320  12.035   7.466  0.0083  0.2581 -0.0776
43189W        W44053  23.961  19.557   9.492  0.4302 -0.0396  0.0050
43190W        W44054  21.085  17.183   7.724 -0.2792 -0.1164 -0.1929
43191W        W44055   8.412  10.513  16.332 -0.0044  0.1664 -0.2192
43192W        W44056  16.902  17.391  27.806 -0.0734 -0.0498 -0.0872
43193W        W44057   7.493   6.843  29.075  0.1485 -0.2692  0.3870
43194W        W44058   3.613  29.117  20.687  0.1110 -0.2392 -0.0164
43195W        W44059   2.956   4.051  15.901 -0.5645 -0.0260 -0.3957
43196W        W44060  10.925   9.951  18.121  0.0072 -0.0123 -0.2838
43197W        W44061  13.094  24.284  23.095 -0.3463 -0.1940  0.0637
43198W        W44062  27.255  21.614  13.397 -0.0320  0.2836  0.0658
43199W        W44063   3.906  14.937   6.459  0.1769 -0.1665 -0.0539
43200W        W44064  16.571   0.802  25.124 -0.1984 -0.0402  0.2897
43201W        W44065   4.891  11.394  21.843  0.2293 -0.3233  0.1722
43202W        W44066   0.244   9.397   9.845  0.2871  0.0760 -0.0057
43203W        W44067  15.594  25.689   6.234 -0.2632 -0.0345  0.0154
43204W        W44068  28.100   8.659  12.740  0.1698  0.1638  0.0426
43205W        W44069   5.825  22.614  11.665  0.0343 -0.1663  0.0283
43206W        W44070  27.904  19.139  21.110  0.0359 -0.3440  0.1555
43207W        W44071  28.003  27.062  20.381 -0.1406 -0.0308  0.0542
43208W        W44072  27.954  24.759  12.487  0.1160  0.1429  0.1126
43209W        W44073  15.669  27.386  10.945 -0.0849  0.1719  0.0074
43210W        W44074   8.956   3.655  28.940  0.0142 -0.1477 -0.2841
43211W        W44075   4.384  12.157  18.269 -0.1075  0.0697 -0.1181
43212W        W44076   6.073  16.203  10.744 -0.0077 -0.1563  0.1407
43213W        W44077  21.059  13.158  17.997 -0.2466 -0.1518 -0.2361
43214W        W44078   3.235  22.517   0.115 -0.1710  0.2170  0.1230
43215W        W44079   2.757   3.942  19.552 -0.0853 -0.0344 -0.0929
43216W        W44080  17.320  17.333  10.074  0.4171 -0.2784 -0.2333
43217W        W44081  22.558   8.025  16.609  0.0474 -0.2367  0.0478
43218W        W44082  20.088  27.151   8.362  0.2892  0.0756 -0.3346
43219W        W44083  18.766  22.086  17.718  0.1327  0.0597 -0.1096
43220W        W44084  11.945  22.689   0.006  0.0326  0.0749  0.1802
43221W        W44085  22.054  15.651   4.714  0.2853 -0.0096 -0.1773
43222W        W44086   9.975  18.270  22.384  0.2258  0.0408 -0.0755
43223W        W44087   6.437  26.015  13.109  0.1288  0.3096  0.2500
43224W        W44088  19.852  12.474   2.302 -0.0089  0.3065 -0.3141
43225W        W44089  19.119  17.770  10.459  0.0837 -0.0026 -0.0418
43226W        W44090  18.802  17.234  18.538 -0.0037 -0.1194 -0.1020
43227W        W44091   7.699   2.234   2.625  0.0307 -0.1153  0.4959
43228W        W44092  26.611  26.265   5.380 -0.0637 -0.2049 -0.1312
43229W        W44093  16.773  28.107  16.956 -0.2633  0.0093 -0.1617
43230W        W44094  28.486   3.649  19.444 -0.0550  0.1269 -0.1997
43231W        W44095   1.196  16.336  22.054 -0.2298 -0.1132  0.1155
43232W        W44096   5.063  12.112  11.052  0.1830  0.0956 -0.1501
43233W        W44097   1.210  15.092  12.064 -0.0360 -0.1378 -0.1275
43234W        W44098  16.090  13.458  23.802 -0.0139 -0.0068  0.0426
43235W        W44099  20.823  17.095  18.461  0.1683  0.2034 -0.1902
43236W        W44100  17.634  10.248  29.129  0.1932  0.0392  0.2414
43237W        W44101  12.017   4.955  24.625  0.0697  0.1291  0.2206
43238W        W44102  28.431  24.104  12.973  0.1367  0.1139 -0.2059
43239W        W44103   9.517  16.844  14.928  0.3214  0.0122 -0.1526
43240W        W44104  23.522   7.152  10.061  0.0697  0.0352  0.1032
43241W        W44105  11.551  20.944  19.592  0.4800 -0.2400  0.3664
43242W        W44106   5.688  25.108   9.174 -0.0110 -0.1508  0.0007
43243W        W44107  20.069   7.496  27.032 -0.1160  0.3416  0.0749
43244W        W44108  25.106  10.110  17.197 -0.0698 -0.2646 -0.0042
43245W        W44109   0.667  23.267   4.661  0.2661 -0.1625  0.5653
43246W        W44110   9.278  15.617  13.071 -0.2710  0.0638 -0.1935
43247W        W44111  11.918  28.249  25.045 -0.2773  0.0837 -0.0020
43248W        W44112  10.905  16.603  19.482 -0.0342  0.0847 -0.3394
43249W        W44113  19.349  11.643  10.280 -0.0439 -0.0271 -0.0541
43250W        W44114  10.679  21.850  17.116  0.0871 -0.0841  0.2246
43251W        W44115   5.231   6.880  11.528 -0.0070  0.3150  0.0821
43252W        W44116   1.951  15.145  18.336 -0.1815  0.0827 -0.2651
43253W        W44117   5.913  26.954   4.849  0.2914 -0.1082 -0.2417
43254W        W44118   6.193   7.303   9.934 -0.2455  0.0475  0.1030
43255W        W44119  18.280  21.906  22.440  0.2165  0.3248 -0.0282
43256W        W44120   4.568  23.987  16.030 -0.0203 -0.0122 -0.0403
43257W        W44121   4.461  27.809  20.564  0.1406  0.1967 -0.1472
43258W        W44122  28.158  25.330  15.075 -0.0700 -0.1455  0.0619
43259W        W44123  28.235  16.395   0.489 -0.3254  0.1776  0.4272
43260W        W44124  11.576   8.562  19.949  0.0793  0.0728  0.1580
43261W        W44125  21.200   1.239  21.491 -0.4362  0.0326 -0.0217
43262W        W44126  28.238  22.311  14.435 -0.1199 -0.2887  0.1179
43263W        W44127   2.315  28.058  11.001  0.0561  0.0463 -0.0923
43264W        W44128  17.375  26.554  10.650 -0.0854  0.0664  0.2095
43265W        W44129  25.886  18.536   8.589  0.0546 -0.3068  0.1826
43266W        W44130   2.857  20.982  10.075 -0.0087 -0.1374  0.2278
43267W        W44131   5.032  23.778  22.357  0.2546 -0.1952 -0.0432
43268W        W44132  17.731  12.388   1.164 -0.2636  0.0194  0.1094
43269W        W44133  13.001  25.641   8.371  0.2559 -0.2183  0.2374
43270W        W44134   6.891   8.772   8.027 -0.2814 -0.4103 -0.0557
43271W        W44135   8.647  15.822   4.935 -0.0769  0.1487 -0.2482
43272W        W44136  18.556  20.553  25.014  0.0158  0.1304 -0.2207
43273W        W44137  14.000  25.774  26.679 -0.2516  0.0253  0.2537
43274W        W44138  11.333   9.168  24.408  0.2255 -0.0814 -0.1384
43275W        W44139  15.659   4.402   8.148  0.0165 -0.1224 -0.2367
43276W        W44140   0.166  27.893   3.379 -0.1664  0.0110 -0.1372
43277W        W44141   8.172  25.446  24.825  0.0695  0.2892 -0.1455
43278W        W44142  23.681  12.861   6.514  0.0830 -0.0502 -0.1552
43279W        W44143   0.967  15.035   8.370  0.1309 -0.2259  0.0382
43280W        W44144   7.661  20.872  25.463  0.2535  0.1212 -0.1768
43281W        W44145   7.544  25.226  14.312  0.0636 -0.1164  0.2970
43282W        W44146  25.491  18.619   7.125  0.0526 -0.0399 -0.1856
43283W        W44147  17.052   5.109  19.637  0.0575  0.2260  0.0609
43284W        W44148   4.992   2.505  27.663 -0.1338  0.3708 -0.4498
43285W        W44149   5.092   2.858   6.402 -0.1208  0.2124  0.1399
43286W        W44150  24.245   3.647   9.066  0.0799 -0.0148 -0.0083
43287W        W44151   9.136  16.603   8.581 -0.1710 -0.1051 -0.2127
43288W        W44152  16.065  19.758  14.916  0.2749 -0.0844 -0.1756
43289W        W44153   3.826  27.738   0.499 -0.0528 -0.0181 -0.0865
43290W        W44154   0.028   4.635  21.683 -0.3134  0.3880 -0.0581
43291W        W44155   1.387  21.681  13.735 -0.0676 -0.1642  0.0548
43292W        W44156   4.457   5.595  20.582 -0.1076  0.1653  0.1647
43293W        W44157   7.018   9.042  25.575 -0.1124  0.0034  0.3536
43294W        W44158   6.787  15.328  12.716  0.1109  0.2925 -0.0007
43295W        W44159  26.268  11.609  16.769 -0.0774 -0.0670  0.2614
43296W        W44160   4.739  29.123   6.836 -0.4692  0.1563  0.0002
43297W        W44161  24.588   5.163  21.702  0.0652 -0.1190 -0.1942
43298W        W44162  15.005  26.585  27.668 -0.1872 -0.0266 -0.0081
43299W        W44163   2.299  28.783   9.021 -0.2000 -0.3964 -0.4758
43300W        W44164  19.292   8.342  14.108 -0.1627 -0.0326 -0.1136
43301W        W44165  19.163  27.237   8.675 -0.0376  0.3564  0.0777
43302W        W44166  17.034  23.796  16.353 -0.1083 -0.2721 -0.1429
43303W        W44167  19.402  13.169   5.126 -0.1906  0.1699  0.0304
43304W        W44168  15.575  27.183  16.123  0.1095  0.1064  0.2530
43305W        W44169   9.587  20.424  16.329  0.2431 -0.0981  0.1136
43306W        W44170  26.544  21.499  21.064 -0.0024  0.1869  0.0519
43307W        W44171   7.109   2.368   4.810  0.0845 -0.2086 -0.0433
43308W        W44172   1.158   2.130  28.116  0.0522 -0.3525  0.0345
43309W        W44173   9.814   4.863  11.486 -0.3015  0.3329 -0.1995
43310W        W44174  20.361  13.848   3.309 -0.2538  0.0308 -0.3297
43311W        W44175   7.396  23.076  13.932  0.0172  0.1534 -0.1166
43312W        W44176  21.725  17.805  17.161  0.0417 -0.0079  0.2478
43313W        W44177  16.817  24.192  11.618 -0.1992  0.1118  0.2484
43314W        W44178   9.505  11.498  19.222  0.4378  0.1283  0.2563
43315W        W44179  14.319  16.813   5.078  0.0208 -0.1799 -0.0892
43316W        W44180  11.530  10.570  19.392 -0.1971  0.1197 -0.1870
43317W        W44181   8.936   5.006   0.211  0.1057 -0.0578 -0.1411
43318W        W44182   3.182   5.229   4.324  0.1355  0.1072 -0.0258
43319W        W44183  22.445  26.343   0.476 -0.1127  0.0343  0.0225
43320W        W44184  15.412   3.441  18.279 -0.0608  0.3198 -0.1505
43321W        W44185   2.437   6.535  13.893  0.2563 -0.0926 -0.3893
43322W        W44186   1.162  24.960  11.634  0.1278 -0.2453 -0.2067
43323W        W44187  13.188   1.300  21.424  0.0472 -0.1684  0.0432
43324W        W44188  28.081  23.567  12.271 -0.3474  0.0766  0.0660
43325W        W44189   4.814  20.686  13.958  0.0060 -0.0937  0.0773
43326W        W44190  25.623  18.900   9.815  0.0476  0.1443 -0.3877
43327W        W44191   8.266  12.973  13.390 -0.0264  0.0815 -0.1019
43328W        W44192   2.702   1.947  27.597 -0.0750  0.0697 -0.1858
43329W        W44193  11.495   5.821   1.576 -0.1728 -0.0024 -0.2139
43330W        W44194  24.610   4.333  19.794 -0.0390  0.0204 -0.2704
43331W        W44195   3.313  27.894  22.429  0.1148  0.1425 -0.1659
43332W        W44196   4.738   8.278  16.853 -0.1079  0.1029  0.0385
43333W        W44197  27.444  19.057  16.183 -0.0229 -0.0814  0.1630
43334W        W44198   4.855  18.282   9.566 -0.0119 -0.2799 -0.0938
43335W        W44199   8.720  13.527   9.579 -0.2241  0.0282 -0.0993
43336W        W44200  22.117  17.925  17.608  0.1339 -0.2624  0.1061
43337W        W44201  21.922  17.328  11.355 -0.0009  0.0610  0.0422
43338W        W44202  26.608   8.986  12.827  0.0196  0.0175 -0.2181
43339W        W44203  19.285  26.249  10.551  0.0217  0.0058  0.0843
43340W        W44204   1.646  17.529  21.610  0.1215  0.0594 -0.2586
43341W        W44205   1.764  22.951  18.672  0.1003  0.1107  0.0665
43342W        W44206   3.718  15.440  20.618 -0.0046  0.1539 -0.0609
43343W        W44207   3.682  14.861  14.801  0.2197  0.3018  0.1719
43344W        W44208   7.809  26.617   8.972 -0.1125 -0.3052  0.1573
43345W        W44209  17.372   9.685  26.130  0.0938  0.0209 -0.1408
43346W        W44210  14.808   5.543  22.674 -0.1445  0.2321 -0.2550
43347W        W44211  17.633  12.636   8.984 -0.0170  0.2365 -0.0010
43348W        W44212  10.138  23.391   2.408 -0.0824 -0.0077  0.1733
43349W        W44213  13.692  21.162  19.845  0.0221  0.1220  0.3178
43350W        W44214   8.759   9.167  24.875 -0.0427  0.1841 -0.3274
43351W        W44215  14.391  14.315  27.368 -0.2035 -0.0126 -0.0028
43352W        W44216  10.448  23.563  11.361 -0.0338 -0.0210  0.0024
43353W        W44217   6.627  18.205  22.036  0.2987 -0.1451  0.0577
43354W        W44218  16.375  11.047   3.572  0.1900 -0.1229 -0.1564
43355W        W44219   6.273  22.047   2.699  0.2064 -0.2437  0.0110
43356W        W44220   8.633  14.285   5.336 -0.0676 -0.1459  0.0222
43357W        W44221  15.823  11.086   8.520  0.4666 -0.0599  0.1587
43358W        W44222  12.397  15.507  17.280 -0.1618 -0.1963 -0.3136
43359W        W44223  10.161   9.927  25.042  0.0102 -0.5240  0.0682
43360W        W44224  28.327  21.976   3.332 -0.1739  0.1132 -0.1923
43361W        W44225   6.696   1.852  18.626  0.1046 -0.1375 -0.4012
43362W        W44226   6.242  16.946   8.231 -0.1403 -0.1449 -0.1100
43363W        W44227   1.285   1.693   8.940 -0.1803  0.1927 -0.2197
43364W        W44228  21.344   9.717   0.255  0.2669  0.0710  0.1712
43365W        W44229  16.967   7.126  28.588  0.0341 -0.0138  0.2386
43366W        W44230   4.564  12.393  24.493 -0.1091 -0.3773 -0.1253
43367W        W44231  10.659  25.757   3.099  0.0920 -0.0676 -0.0408
43368W        W44232  12.990  17.244  10.802 -0.1070 -0.1982  0.0525
43369W        W44233  26.859  26.486  24.163  0.1097 -0.0279 -0.1080
43370W        W44234  27.834  14.259  15.233  0.1026  0.0040  0.0723
43371W        W44235   0.051   3.112  17.100  0.0488 -0.3021 -0.3168
43372W        W44236   3.270  27.386   6.421  0.1402 -0.0468  0.0229
43373W        W44237  26.582  18.138  26.211 -0.0841  0.1016  0.2528
43374W        W44238  15.136   7.610   7.852  0.3630 -0.2801 -0.1191
43375W        W44239   0.822   9.897  13.912 -0.0301 -0.0538  0.2854
43376W        W44240  28.361  15.180  21.481 -0.3499 -0.1075 -0.1227
43377W        W44241   9.159  18.409   5.884  0.3835 -0.0843  0.2135
43378W        W44242   1.658  14.231  14.491  0.4350 -0.2377  0.2019
43379W        W44243  28.731   0.152   1.182 -0.3987  0.1575 -0.1903
43380W        W44244  17.623  15.916  16.693 -0.1776  0.1294  0.2464
43381W        W44245   6.100   7.659  20.871  0.0695 -0.1123 -0.1406
43382W        W44246   6.405  20.111  18.091  0.1426 -0.0273 -0.1153
43383W        W44247  28.252   7.337  17.230 -0.0654 -0.0735 -0.1100
43384W        W44248  15.830  23.265  22.986 -0.1969 -0.5035 -0.1272
43385W        W44249   4.691  17.917  20.873 -0.1051  0.2128  0.2445
43386W        W44250  25.529   8.949   5.782 -0.1267  0.1353 -0.0599
43387W        W44251  25.499  23.935  18.889  0.3287  0.0409 -0.0547
43388W        W44252  12.233  19.523  15.476  0.3164  0.0936 -0.0362
43389W        W44253  23.449  16.342  12.077  0.1615  0.4348  0.0345
43390W        W44254  27.613  25.069  15.003  0.2885  0.0114  0.2375
43391W        W44255  27.698  23.450   9.518 -0.1966  0.1286  0.0769
43392W        W44256  26.983   3.989   1.003  0.0415 -0.0548 -0.0620
43393W        W44257  22.713  25.175  23.954 -0.1151 -0.0080  0.0438
43394W        W44258  28.192  14.182   4.698  0.1440  0.0234  0.3612
43395W        W44259  10.019  27.102   9.127 -0.0054 -0.0047 -0.1249
43396W        W44260  18.660   9.473  22.891 -0.1648 -0.0208  0.4461
43397W        W44261  17.276  22.130   7.769  0.1009 -0.2211 -0.0999
43398W        W44262   6.444  10.477  27.852 -0.1403 -0.2375 -0.3864
43399W        W44263  12.002  13.080  21.658  0.0533 -0.0826 -0.2254
43400W        W44264   9.314   8.338   4.817 -0.1398  0.2000 -0.1095
43401W        W44265   4.654  13.885  17.171  0.0334 -0.1132 -0.0353
43402W        W44266  27.684  21.490  18.901  0.2728 -0.2352  0.3000
43403W        W44267  21.399  22.546  18.952 -0.1632 -0.1429  0.2991
43404W        W44268  10.928  20.041   3.893 -0.0320 -0.2346 -0.0946
43405W        W44269  16.743  20.963  17.594 -0.2829 -0.1388 -0.1498
43406W        W44270  14.954   5.978  22.363  0.0317 -0.0168  0.4134
43407W        W44271   2.707  19.542   7.576 -0.2101 -0.0674  0.0745
43408W        W44272  27.345   2.878   0.528 -0.1875  0.0828 -0.0325
43409W        W44273  23.659  13.764   8.603  0.3412 -0.0071 -0.2478
43410W        W44274   8.446  27.657  17.856  0.1121  0.1775  0.1049
43411W        W44275  18.229  16.655   2.948 -0.1280 -0.1426  0.3374
43412W        W44276  15.152   8.894   7.822 -0.1072  0.1778  0.3742
43413W        W44277  12.892  22.244  26.077 -0.0751  0.1078  0.0127
43414W        W44278   5.486   4.765  13.521  0.0162 -0.1337  0.1231
43415W        W44279  18.338   4.981  18.607  0.1629  0.3786 -0.0831
43416W        W44280   0.674  16.810   0.216  0.1743 -0.1661  0.5342
43417W        W44281   3.795  17.795  23.002  0.1730  0.0921 -0.1321
43418W        W44282   7.029  24.895   0.745  0.2464  0.0469 -0.0585
43419W        W44283  15.243  28.372  23.644 -0.2210 -0.1507  0.0713
43420W        W44284  10.606   8.249  15.517 -0.0731  0.1438 -0.0421
43421W        W44285   3.857  15.368   6.047  0.0976 -0.3328  0.3711
43422W        W44286  21.098  29.121  25.315  0.1303  0.1649 -0.0875
43423W        W44287  11.494  28.040  16.471 -0.0669  0.0408  0.0754
43424W        W44288   5.916  12.633  22.476 -0.2285  0.1278 -0.1252
43425W        W44289  23.672  20.988  19.329 -0.1151 -0.0803  0.0667
43426W        W44290   8.205  13.063   5.893  0.3328  0.2370 -0.0712
43427W        W44291  20.903  11.007   1.665 -0.1228  0.0452 -0.3408
43428W        W44292  12.291  12.818  17.679  0.0817  0.2024  0.1553
43429W        W44293   1.593  13.480   0.817  0.3729 -0.1802 -0.0940
43430W        W44294  17.330  17.400   3.630 -0.3187 -0.1452  0.1103
43431W        W44295  27.476  11.107  28.793  0.1278  0.1794 -0.0590
43432W        W44296  17.397  23.119  28.065  0.1244  0.1472 -0.0408
43433W        W44297  18.157  21.476   6.612 -0.0317 -0.0516 -0.0298
43434W        W44298   2.291  25.063  25.414  0.1497 -0.1549  0.2944
43435W        W44299  22.608  13.932  14.431 -0.0239  0.1064 -0.2561
43436W        W44300  27.985  19.503  27.030 -0.1295  0.1330 -0.0727
43437W        W44301  13.645  24.038  20.937  0.3147  0.0148 -0.1249
43438W        W44302   3.745  26.127  20.066 -0.1795 -0.1009  0.0744
43439W        W44303  16.489  23.788  14.077 -0.0841  0.1195 -0.2212
43440W        W44304  12.279  27.384  18.110  0.0216 -0.0735  0.0861
43441W        W44305  11.910  19.935  23.328 -0.1548 -0.0292  0.1344
43442W        W44306   3.875  12.026  27.603  0.1409 -0.3126 -0.0710
43443W        W44307  11.945  19.746  25.911 -0.0663 -0.2838 -0.3038
43444W        W44308  14.032  24.660   8.897  0.0260 -0.1794 -0.2501
43445W        W44309  23.106  10.591  16.729 -0.1190  0.3249  0.2566
43446W        W44310   4.931  22.277   3.080 -0.1625 -0.0811 -0.0098
43447W        W44311  28.458  16.265   7.310  0.0323  0.2336 -0.2432
43448W        W44312  27.929   9.737  10.676  0.0562 -0.0946  0.1634
43449W        W44313  28.630  17.339  26.977 -0.2207  0.0294  0.0720
43450W        W44314   9.534  28.725  10.561  0.1546  0.2581  0.0268
43451W        W44315  21.418  25.336   3.607 -0.0266 -0.1774 -0.0835
43452W        W44316  18.294  17.302  14.621  0.0509 -0.1965 -0.0015
43453W        W44317  18.703  23.376   7.031 -0.1232 -0.1591 -0.1446
43454W        W44318  11.383  14.150  15.210 -0.0321 -0.0083  0.2923
43455W        W44319   5.296  18.538   1.261 -0.0014 -0.3241  0.0341
43456W        W44320   6.644  19.562  25.330  0.2595  0.2262  0.3739
43457W        W44321   8.305  21.768  20.101 -0.0038  0.0869  0.3018
43458W        W44322   2.247   3.700   6.654 -0.1063 -0.0485  0.0282
43459W        W44323  17.257   2.096   5.080 -0.1849 -0.0467  0.1663
43460W        W44324   8.559  16.739   5.214  0.0830  0.2312  0.2525
43461W        W44325  24.919  28.107  20.849  0.0725 -0.2675  0.3351
43462W        W44326   7.742  20.003  15.138  0.3931  0.0590 -0.1516
43463W        W44327  18.643  25.648   5.759 -0.0611  0.1763  0.0784
43464W        W44328   4.645  13.153  20.480 -0.0726  0.0729  0.1933
43465W        W44329  10.472  29.136   8.053 -0.0817 -0.0901 -0.0101
43466W        W44330  23.817   5.806  11.448 -0.0460 -0.0088 -0.3361
43467W        W44331   1.957  11.446  17.336  0.0029 -0.0079  0.1828
43468W        W44332  24.699  20.001   8.793 -0.3500  0.2478  0.3406
43469W        W44333   0.473  12.434  15.328  0.0469 -0.0819  0.0938
43470W        W44334   0.231  23.691  11.479  0.2765  0.1301  0.1465
43471W        W44335  15.944  21.140   9.548 -0.0500 -0.3570 -0.0266
43472W        W44336  10.138  10.468   9.950  0.2182  0.3119 -0.0152
43473W        W44337  12.386  17.691  23.942  0.3293 -0.1481  0.0306
43474W        W44338   9.829   6.633   6.116  0.3171  0.0853 -0.1040
43475W        W44339  27.811  24.574  19.492  0.0359 -0.0617  0.2062
43476W        W44340  12.896  22.602  11.527 -0.3198 -0.0503 -0.0121
43477W        W44341  15.154  18.443   5.985 -0.0672 -0.1759  0.0436
43478W        W44342  15.950   1.582   4.117  0.0764 -0.3326  0.1055
43479W        W44343   9.367   8.505  10.220  0.2331 -0.1198 -0.2798
43480W        W44344   3.307  21.013   6.821 -0.2918  0.1457 -0.1311
43481W        W44345  12.733  19.221   4.474  0.1321  0.3857 -0.0555
43482W        W44346  14.536  25.896  13.608 -0.2506 -0.1032 -0.2194
43483W        W44347  11.568  15.281  12.267  0.2090 -0.1297 -0.1324
43484W        W44348  27.760  27.140  23.371 -0.0015  0.0631 -0.0287
43485W        W44349   0.595  16.482  21.911 -0.1126 -0.0187  0.1042
43486W        W44350  24.364  13.880  23.610  0.1907 -0.1170  0.0761
43487W        W44351  23.471   1.195  12.573  0.2085  0.2136 -0.0869
43488W        W44352  10.879  25.440  27.455 -0.2670  0.0944  0.1180
43489W        W44353  10.511  10.037   4.275 -0.2509 -0.0605 -0.1899
43490W        W44354  27.026   6.446  14.441  0.2808 -0.3558  0.2270
43491W        W44355  18.469  17.843  10.585 -0.0767  0.2321 -0.1490
43492W        W44356   5.154   6.396  25.996  0.1370  0.3468 -0.1355
43493W        W44357  16.548  23.558  16.937 -0.1355 -0.2114 -0.0551
43494W        W44358  27.606  21.176  18.483 -0.1208 -0.0813 -0.1228
43495W        W44359  17.625  16.805  28.975  0.5796  0.2007  0.2677
43496W        W44360   2.426  20.397  11.344  0.1070 -0.3877  0.3465
43497W        W44361  22.814   5.782  10.594 -0.0998 -0.1372 -0.1717
43498W        W44362  21.689  25.184   3.124 -0.0402  0.0904 -0.2244
43499W        W44363   7.882   0.873  19.600 -0.0415  0.1166  0.0372
43500W        W44364   6.394  11.787  10.738 -0.2288  0.1938 -0.0440
43501W        W44365  24.533  25.883  17.468  0.1765 -0.0399  0.0518
43502W        W44366  27.731  15.863  15.506 -0.0255 -0.2963 -0.3034
43503W        W44367  11.930  19.460  10.008  0.1814  0.0127 -0.2555
43504W        W44368   4.402   6.856   7.413  0.1150  0.1837 -0.1725
43505W        W44369   7.830  12.507  11.609  0.2840  0.1352  0.2757
43506W        W44370   0.773   7.236  14.332 -0.1048 -0.1741 -0.2285
43507W        W44371   2.258   6.299  27.928  0.0010  0.0714 -0.0829
43508W        W44372  25.640  22.884  18.147  0.0353 -0.1821 -0.0125
43509W        W44373  26.100   6.918   1.486  0.1071 -0.1897 -0.1991
43510W        W44374   3.218   0.204   5.315 -0.3242  0.0292  0.1391
43511W        W44375   0.946   0.902  18.654  0.0738 -0.2321  0.0456
43512W        W44376   4.686  15.107  12.784  0.1528  0.0506  0.0603
43513W        W44377  12.920  21.535  13.128 -0.1172 -0.2017 -0.0747
43514W        W44378  20.337  17.076  28.808  0.2528  0.0329  0.0996
43515W        W44379  10.847  14.053  15.854  0.2845 -0.4090  0.0224
43516W        W44380  23.764   0.401   1.698  0.1879  0.2122  0.1875
43517W        W44381   4.472  18.274   2.118  0.1278 -0.0824  0.0507
43518W        W44382  13.002   8.403  10.302  0.1419 -0.2718  0.1142
43519W        W44383  17.046  15.798  19.657 -0.3877  0.1423  0.1605
43520W        W44384  20.022  12.849  26.910  0.1407 -0.0443  0.0888
43521W        W44385   1.398   8.743   1.463 -0.2738 -0.0563 -0.0241
43522W        W44386  26.365  11.802  17.600 -0.0953  0.1764  0.2157
43523W        W44387  26.496  17.354  14.759  0.1483  0.0425  0.0148
43524W        W44388  23.716  21.610  28.629  0.0323 -0.0497 -0.0039
43525W        W44389   8.716  17.806  27.295  0.0115 -0.2188  0.1595
43526W        W44390  16.032  10.969   4.062 -0.2581 -0.0428  0.3086
43527W        W44391   4.768  21.567  18.350 -0.0098  0.0960  0.3111
43528W        W44392  12.015  26.645  17.586  0.1932 -0.2230  0.2395
43529W        W44393  12.595  23.804  18.752 -0.0147  0.1562 -0.3527
43530W        W44394  14.249   6.946   4.004 -0.0697  0.1206 -0.1390
43531W        W44395   4.396  19.950  12.488 -0.0467 -0.0613  0.1767
43532W        W44396  13.629  20.596  16.657 -0.0892  0.3713  0.0013
43533W        W44397  14.999  20.294   9.499  0.3157  0.1005 -0.3840
43534W        W44398   7.014  17.592  20.154 -0.0747  0.1309  0.0318
43535W        W44399   5.453  16.023  20.055 -0.3893 -0.0497  0.4061
43536W        W44400  24.237  11.543  10.940  0.3628  0.0448  0.1028
43537W        W44401  25.843   0.809   8.238  0.2014  0.0113  0.2344
43538W        W44402   6.935   1.022  18.631  0.0785  0.1292 -0.0992
43539W        W44403   0.254  24.691  27.846 -0.0737 -0.0505  0.0416
43540W        W44404  10.393  20.491   2.327 -0.1380  0.4696 -0.0897
43541W        W44405   5.835   7.600   5.556 -0.2212 -0.0131 -0.1043
43542W        W44406   8.003   0.656  20.423 -0.0441 -0.0267  0.0063
43543W        W44407   9.336  12.798   7.756  0.0761  0.1429  0.1030
43544W        W44408   1.313  26.033  14.093  0.3685  0.0009  0.0654
43545W        W44409   4.665  18.916  12.133 -0.0292 -0.3137 -0.0562
43546W        W44410   9.783   4.677  22.150  0.3376 -0.1316  0.0396
43547W        W44411   4.287  11.833   7.928  0.1014  0.1592 -0.1447
43548W        W44412  12.151  24.368  20.707  0.4046 -0.5212 -0.0448
43549W        W44413   3.882  15.165   4.034  0.1196  0.2924  0.2410
43550W        W44414  13.694  16.239   9.845  0.0917 -0.0371  0.0510
43551W        W44415  26.216   4.473  13.816  0.3419  0.1084 -0.4173
43552W        W44416   9.232   1.240   8.984  0.1878  0.2189 -0.0767
43553W        W44417   6.843   1.498  28.209 -0.3271 -0.0467  0.2017
43554W        W44418   4.322   1.432  11.780  0.0669  0.1461 -0.0037
43555W        W44419   4.207  15.801  13.840  0.0035  0.1274  0.0554
43556W        W44420  17.095  22.841   5.827 -0.1292 -0.1752 -0.2222
43557W        W44421   5.740  17.889  15.111  0.2142  0.1095  0.2670
43558W        W44422   3.302  20.222   7.160  0.0124 -0.1515 -0.0048
43559W        W44423  10.225  26.073   8.001 -0.1865  0.0978  0.0389
43560W        W44424   6.497  24.613  29.025 -0.1380 -0.3073 -0.2037
43561W        W44425  15.439  27.174  10.546 -0.1594 -0.3426  0.1574
43562W        W44426   9.181  23.831  22.480 -0.0879 -0.1115  0.0183
43563W        W44427   6.887   4.978  17.910 -0.0831  0.0901 -0.0467
43564W        W44428  21.016   7.406  21.077  0.0127 -0.2626  0.0087
43565W        W44429   6.802  26.928  24.866  0.0422 -0.0389 -0.2458
43566W        W44430  18.095  18.473  11.789 -0.1067  0.2006  0.1083
43567W        W44431   6.523  24.733  24.909  0.1124 -0.0404  0.2711
43568W        W44432   8.740  28.111  11.659 -0.2919 -0.0447 -0.3956
43569W        W44433  12.083   6.295  14.585 -0.2064  0.1030 -0.1494
43570W        W44434  24.767  11.692  18.005  0.0926 -0.4837  0.3697
43571W        W44435  24.100   6.904  17.722 -0.1245  0.0779  0.0243
43572W        W44436  26.549   4.495  14.819  0.1358 -0.2257  0.2037
43573W        W44437   6.614  19.619  11.371  0.0134  0.3457 -0.0466
43574W        W44438   1.583   6.929  24.405  0.1173 -0.0347  0.0985
43575W        W44439   8.724  25.959  17.190  0.0115 -0.2499  0.1789
43576W        W44440   5.041  15.406   5.771  0.3509 -0.1634  0.1398
43577W        W44441  14.140  25.509  16.020  0.0608 -0.2920  0.1235
43578W        W44442   1.332   3.832   7.416  0.2700  0.1634  0.1646
43579W        W44443  16.637  21.254  26.648  0.1173  0.1233  0.0094
43580W        W44444  28.351  27.777  14.596 -0.0717 -0.0332 -0.0497
43581W        W44445   5.163  14.832  16.287  0.0417 -0.2615 -0.0890
43582W        W44446  18.119  18.645   0.191  0.2854  0.2118 -0.0106
43583W        W44447  14.285  24.753  10.070 -0.0815 -0.3199 -0.0052
43584W        W44448  27.122  20.287   2.134 -0.1802  0.1162  0.0156
43585W        W44449  25.197  25.766  25.838  0.0195 -0.2225  0.1478
43586W        W44450  14.684  10.388  16.846  0.1052  0.0955 -0.0662
43587W        W44451   1.828  25.311  10.781  0.2603  0.1028 -0.0391
43588W        W44452  13.378  15.291   3.711 -0.0400 -0.2637  0.2003
43589W        W44453  11.708   4.228  27.607  0.3386  0.0282  0.3885
43590W        W44454  22.799  22.623  25.110  0.1862  0.0088  0.3558
43591W        W44455   0.199  18.166  24.738  0.3345 -0.0472 -0.2778
43592W        W44456   7.829  11.991   2.228 -0.1480  0.0472 -0.1109
43593W        W44457   5.448  28.243  27.706  0.1652  0.0003  0.0637
43594W        W44458  18.364  12.829   3.181  0.2290  0.1097 -0.1387
43595W        W44459  23.629   7.597  16.710  0.0245 -0.2496  0.2540
43596W        W44460  14.158  21.375  23.111 -0.2061  0.0693 -0.1366
43597W        W44461   4.517  28.609  12.726 -0.0480  0.1468  0.0000
43598W        W44462   1.680   7.315  21.677 -0.1774 -0.1679 -0.0893
43599W        W44463   2.218  19.046  18.896  0.1208 -0.2526 -0.1423
43600W        W44464  27.259  16.079  14.825 -0.2818  0.0367  0.1437
43601W        W44465   4.936  24.570  11.285 -0.0847  0.2507  0.2432
43602W        W44466  10.997   3.231  24.494  0.0766 -0.0445 -0.1162
43603W        W44467  16.943  16.448  21.483  0.0837  0.0562 -0.0189
43604W        W44468   0.787  11.025  24.771 -0.2269 -0.0605 -0.2597
43605W        W44469   5.759  15.489  28.218  0.2938  0.2466 -0.0596
43606W        W44470   2.163   3.408  24.650  0.1214  0.1089 -0.1598
43607W        W44471   7.403  25.276  15.251 -0.1537  0.0706  0.3094
43608W        W44472  12.104  25.933  13.423  0.2177 -0.0100 -0.3188
43609W        W44473  17.018  10.948   6.176 -0.2775 -0.1977 -0.3848
43610W        W44474   9.274  13.194   8.454  0.0876 -0.0971  0.3019
43611W        W44475  24.486  12.319  16.662  0.1705 -0.1176  0.0648
43612W        W44476  17.730  21.619  16.859 -0.1289 -0.3428  0.0158
43613W        W44477  17.756   1.176  15.936 -0.2994  0.0799 -0.1113
43614W        W44478  12.643   3.802  18.227  0.0263  0.1170  0.1103
43615W        W44479   4.245  17.952  28.830  0.0861 -0.0119  0.3331
43616W        W44480  12.024  10.787  14.225  0.2358 -0.3876 -0.2078
43617W        W44481  15.406  20.883  15.218 -0.1703 -0.0028 -0.0648
43618W        W44482   9.679   8.616   3.514  0.0505 -0.0523 -0.0805
43619W        W44483   1.941  18.719   9.223 -0.4275 -0.1087  0.0479
43620W        W44484  22.845   8.092  23.062 -0.0465 -0.0087 -0.0994
43621W        W44485   5.237  15.378  27.020 -0.1795  0.0505 -0.1450
43622W        W44486  10.683   3.487   6.167  0.0290  0.0741 -0.1354
43623W        W44487  29.138  19.678  21.032  0.0378  0.1979 -0.0525
43624W        W44488   7.438  13.790  17.351 -0.3291  0.2971  0.1505
43625W        W44489  28.667  27.610  12.055 -0.3301  0.0207  0.0674
43626W        W44490  24.372  16.049   5.866 -0.0454 -0.2519  0.1052
43627W        W44491   9.887  15.721  10.017 -0.0195 -0.0804  0.0853
43628W        W44492   8.283  20.994  14.430  0.3262 -0.1457  0.2817
43629W        W44493   5.068  25.085   1.007 -0.2083  0.0609 -0.1584
43630W        W44494  27.016  20.468  13.118 -0.1162 -0.0929 -0.3071
43631W        W44495  11.374  15.305   0.467 -0.0209  0.1894  0.0689
43632W        W44496   2.769  13.840  12.741  0.2220 -0.0613  0.0159
43633W        W44497  13.928  18.272  18.428 -0.0394  0.1748  0.0649
43634W        W44498   3.874   0.633  18.368  0.0994  0.0476 -0.1590
43635W        W44499  11.965   7.190   8.718  0.1045  0.0952  0.0945
43636W        W44500   6.725  26.516   8.538  0.1076 -0.0605 -0.0911
43637W        W44501  27.490  13.615  21.903 -0.2856  0.1085 -0.1720
43638W        W44502  13.444  19.987   8.322  0.2187 -0.0419 -0.0940
43639W        W44503   7.940   3.196  15.076 -0.2373  0.1053  0.2115
43640W        W44504  16.662  15.977  16.375  0.1440  0.1873 -0.0276
43641W        W44505  14.855  14.250   1.056  0.0809  0.2618  0.0342
43642W        W44506  16.648   1.975  21.720  0.2980 -0.0008 -0.1536
43643W        W44507   6.974  22.104   1.697  0.1703  0.0739 -0.0482
43644W        W44508   4.475  14.271  15.092 -0.0076 -0.1345  0.3359
43645W        W44509   6.404  12.774  28.574  0.1620  0.0731  0.0958
43646W        W44510  23.879  14.682  27.559  0.0167  0.0442 -0.2640
43647W        W44511  15.101  27.101  18.978  0.0182 -0.0287 -0.3129
43648W        W44512  10.971  24.738  27.416 -0.2472  0.0560  0.1948
43649W        W44513  15.207  17.887  18.668  0.0341  0.0006  0.0880
43650W        W44514   2.191   8.158  12.551  0.1970 -0.3411  0.0902
43651W        W44515  14.248  23.106  13.393 -0.1140 -0.2922 -0.1855
43652W        W44516   1.640  14.336  17.508  0.0646 -0.0598 -0.2802
43653W        W44517   7.597  22.836  20.592  0.2422  0.3550 -0.0020
43654W        W44518  27.879  28.200   3.729  0.0459 -0.1121  0.0692
43655W        W44519   2.450  13.658   6.887 -0.0998 -0.1035  0.0435
43656W        W44520  17.794  11.282  21.070  0.1658  0.2001 -0.1340
43657W        W44521  26.555   9.079  20.093 -0.0909 -0.0515  0.1832
43658W        W44522   5.050   3.116  22.565  0.3342 -0.0017  0.3455
43659W        W44523   3.673  15.947  18.994  0.0114  0.0031 -0.2059
43660W        W44524  27.005  19.255  12.104 -0.1668  0.0307  0.2434
43661W        W44525  27.752   9.572  14.384 -0.1335 -0.1494  0.0125
43662W        W44526  14.592   4.267  17.046 -0.4145 -0.0446  0.1242
43663W        W44527  20.373  21.956  26.579  0.2026  0.1749 -0.0337
43664W        W44528  25.270  17.227  14.143 -0.1022  0.0626  0.2162
43665W        W44529   7.341  19.291  10.568 -0.1585  0.2796 -0.3098
43666W        W44530  24.414  22.404  27.057  0.0853  0.2596  0.0099
43667W        W44531  23.007  25.359  27.157 -0.3247 -0.1743  0.0335
43668W        W44532  23.277   2.954  18.589  0.0465 -0.1677  0.2520
43669W        W44533  10.854  23.062  21.642 -0.2148 -0.3801  0.0322
43670W        W44534  28.054  13.135  16.297  0.2982 -0.1923  0.0870
43671W        W44535   7.758  16.877  25.211  0.2536  0.0672  0.0554
43672W        W44536  26.951  17.066   4.901 -0.1164  0.0717 -0.1543
43673W        W44537  23.915  18.365   3.142  0.1126 -0.1288  0.1341
43674W        W44538  11.143  20.789  26.196 -0.2986 -0.1343 -0.1533
43675W        W44539  10.848   6.704   4.140 -0.2284  0.0739 -0.1196
43676W        W44540   0.817  11.281  12.144  0.1432  0.0866  0.2886
43677W        W44541  24.925  11.254  24.825 -0.0657 -0.3590 -0.0386
43678W        W44542  24.430   8.965  18.846 -0.2428  0.1721 -0.0322
43679W        W44543   8.894  23.321  25.501  0.3156 -0.1674 -0.2191
43680W        W44544  11.075  21.531  26.308 -0.0830  0.2554 -0.1412
43681W        W44545   0.694  28.066  19.105 -0.0023  0.1785 -0.1028
43682W        W44546  25.799   7.682  24.116 -0.0072 -0.0320  0.0033
43683W        W44547  16.199  22.861  11.202 -0.0458 -0.2390  0.1531
43684W        W44548  28.124  24.469  14.483 -0.0172  0.0289 -0.3921
43685W        W44549   8.999  11.056  10.108  0.1035  0.1675  0.0242
43686W        W44550   6.094   0.979  21.741  0.0226 -0.0744 -0.3129
43687W        W44551  11.949  24.332   2.770  0.1349 -0.3569 -0.4142
43688W        W44552  27.119  14.528   7.301 -0.0045 -0.1205  0.0726
43689W        W44553   9.753   5.524  20.195 -0.2415 -0.0850  0.2118
43690W        W44554  11.730  20.639  11.762 -0.0990 -0.3887 -0.1658
43691W        W44555  16.004   0.424  21.032 -0.0689 -0.1287  0.2127
43692W        W44556   5.340  23.852   8.960  0.1398 -0.1438  0.1473
43693W        W44557   3.083   2.967  17.213 -0.0367 -0.0113  0.2439
43694W        W44558  28.830   8.693  14.946 -0.0704  0.0313  0.1061
43695W        W44559  27.151  20.023   3.560 -0.0530  0.1466  0.2411
43696W        W44560  11.324  26.399  26.693  0.1134 -0.1080  0.1380
43697W        W44561  14.734  22.077  10.447 -0.0291  0.0674  0.0815
43698W        W44562   8.619  27.767  22.354  0.1114  0.1038 -0.0556
43699W        W44563  19.578  10.532  17.170 -0.1365 -0.2238 -0.3291
43700W        W44564  17.927   3.163   6.335  0.2465 -0.2974 -0.0533
43701W        W44565   0.571  18.940  22.748  0.0641 -0.1930 -0.0495
43702W        W44566   0.730  15.502  22.914 -0.1383 -0.1223  0.2340
43703W        W44567  12.678  18.473  15.540 -0.0520 -0.0241 -0.1046
43704W        W44568   6.637  18.082   2.446  0.2406  0.0872 -0.0146
43705W        W44569   4.362   7.416  11.680 -0.0262 -0.2191  0.1285
43706W        W44570  25.737   0.570  20.074 -0.3113 -0.0939 -0.0110
43707W        W44571   9.993   7.281  26.445 -0.1326 -0.1287  0.0377
43708W        W44572  25.139   7.587  27.862  0.2885 -0.0351  0.5074
43709W        W44573   2.841   7.182  23.255 -0.2932 -0.1195 -0.3228
43710W        W44574  26.855  28.123  17.559  0.1257 -0.2629 -0.0455
43711W        W44575   8.526  19.433  22.301  0.0025 -0.0634  0.4704
43712W        W44576  15.628   8.767  23.396 -0.0043 -0.1567 -0.1765
43713W        W44577  14.248  22.910  22.852  0.0407 -0.1081  0.1266
43714W        W44578  21.798   0.898  17.920  0.1347  0.0892 -0.1302
43715W        W44579   4.717  18.149   0.444 -0.0680 -0.3849 -0.4318
43716W        W44580  28.856   7.621   7.456 -0.0528  0.2204  0.0989
43717W        W44581  23.528  17.151  15.636 -0.0536 -0.0883 -0.2139
43718W        W44582   2.655   1.105  20.825  0.2768 -0.1111 -0.3362
43719W        W44583  22.478  25.124  10.004 -0.1869 -0.1570  0.1998
43720W        W44584   6.475  14.183  13.880 -0.0441 -0.1034 -0.0377
43721W        W44585   5.569   3.988   6.313  0.0605 -0.2655 -0.1136
43722W        W44586   2.435  18.129  28.960 -0.2536  0.2309 -0.2778
43723W        W44587   8.054   5.001  22.908 -0.3255  0.1212  0.0162
43724W        W44588   1.709   9.626  18.187  0.2456 -0.1902 -0.0234
43725W        W44589   1.606   6.567  18.185 -0.0010  0.1777  0.2608
43726W        W44590  20.939  26.909  14.937  0.3548  0.3440 -0.2061
43727W        W44591   6.357  22.485  18.283 -0.0381 -0.1091  0.1780
43728W        W44592  14.018  26.294  18.326 -0.1256  0.1316  0.2134
43729W        W44593  28.426  21.196  12.668  0.1209  0.0201  0.0713
43730W        W44594  28.546  28.081   2.804  0.1378  0.0567  0.2588
43731W        W44595  13.654   0.740  28.500  0.1275 -0.1294 -0.0368
43732W        W44596  12.593   3.667   0.832 -0.1911  0.0748  0.1263
43733W        W44597  27.353   7.640   1.112  0.1419  0.2550  0.0471
43734W        W44598  11.186  11.674  28.508  0.1195 -0.3121 -0.2131
43735W        W44599   1.734  19.646  13.395 -0.1597 -0.3578  0.2030
43736W        W44600   7.405   7.149   8.644 -0.1329 -0.0920 -0.1183
43737W        W44601   3.025  20.298  11.651  0.2678  0.1537  0.0324
43738W        W44602  26.686  26.979  28.379 -0.3295  0.4056  0.1543
43739W        W44603   4.472  20.540  26.733  0.3413 -0.0686 -0.1941
43740W        W44604  28.043  22.466   3.384 -0.2315 -0.0777 -0.0225
43741W        W44605   7.229  17.017  25.443  0.5006 -0.0598  0.0387
43742W        W44606   4.535  21.129  18.373  0.2707 -0.2448 -0.2512
43743W        W44607   6.439  19.478  16.941  0.2816  0.2252 -0.1353
43744W        W44608   3.252  21.193  12.142  0.0630  0.0382  0.2171
43745W        W44609   3.305   9.642   8.574 -0.2050  0.1977  0.0231
43746W        W44610  17.392   2.351   0.664 -0.0037 -0.0215 -0.1597
43747W        W44611   6.958  11.308  28.468  0.3555 -0.1916 -0.1559
43748W        W44612   7.100  15.901  16.408 -0.0003  0.1244  0.0827
43749W        W44613  11.909  12.972   1.970  0.2056 -0.1158 -0.4768
43750W        W44614  18.315  26.216  14.823 -0.0506 -0.0788 -0.1535
43751W        W44615  10.370  13.709  12.122 -0.0838  0.0539 -0.1838
43752W        W44616   1.136  17.213  28.043 -0.2376  0.1219  0.1389
43753W        W44617  15.128   2.121  23.229 -0.0452 -0.1897 -0.0100
43754W        W44618  20.872  17.218  17.136 -0.0991  0.4836 -0.1842
43755W        W44619  22.835  25.646  16.115 -0.0641  0.1110 -0.1285
43756W        W44620  16.517   3.644   6.338  0.1264 -0.0214  0.3323
43757W        W44621  14.314   4.970  25.997  0.0292  0.1449  0.2114
43758W        W44622   8.807  24.386   9.513  0.0174 -0.0923 -0.2321
43759W        W44623  22.621   4.557   5.455 -0.0167 -0.2245 -0.0414
43760W        W44624   9.600  26.320  11.380 -0.1595  0.0212  0.2877
43761W        W44625   3.653  19.272   4.290 -0.1095  0.1042 -0.2732
43762W        W44626   9.141  21.202  27.427  0.1122  0.3458  0.0205
43763W        W44627  21.746   9.040   8.408 -0.2190  0.1962 -0.0136
43764W        W44628   0.499   3.040  19.036  0.0163  0.0314 -0.2929
43765W        W44629  23.269  10.562   8.162 -0.2460 -0.0774 -0.3399
43766W        W44630  22.336   0.051  23.918 -0.4564 -0.2065  0.1227
43767W        W44631   9.995  14.463  12.841  0.0749  0.0761 -0.0431
43768W        W44632  29.074  18.342   6.429  0.2175 -0.0215  0.0665
43769W        W44633  14.097   9.892   3.830  0.0010  0.1324  0.0778
43770W        W44634  28.997  17.405  21.535  0.0602  0.2853 -0.1299
43771W        W44635   8.466  21.350   6.645 -0.1987  0.2717 -0.1525
43772W        W44636  21.487  17.107  11.230  0.2705  0.0568 -0.2623
43773W        W44637   2.671  11.419   4.130 -0.3707  0.2641  0.0890
43774W        W44638  17.689  12.159  23.269 -0.2967  0.1889  0.0274
43775W        W44639   3.964  26.808  19.005  0.0555  0.1956 -0.0913
43776W        W44640   4.984  10.422   4.036  0.3731 -0.2848  0.0165
43777W        W44641  15.303   3.417   8.260  0.2200 -0.0663  0.0008
43778W        W44642  20.773  24.295  16.304 -0.3200 -0.0529  0.0353
43779W        W44643   6.492  12.952  19.230 -0.0751  0.0914 -0.0129
43780W        W44644  19.354  25.824  13.546  0.0947  0.1154  0.0138
43781W        W44645   6.720   1.977  15.106 -0.0812 -0.2196  0.0112
43782W        W44646   8.868  25.228  20.785 -0.4796 -0.1929 -0.1078
43783W        W44647  20.986  11.305  13.160  0.1091  0.1065  0.0173
43784W        W44648  17.559   7.621   4.674  0.1575  0.1376  0.2552
43785W        W44649   5.579  17.661  19.132 -0.0894 -0.4149 -0.0731
43786W        W44650  18.425   5.875  28.480 -0.0317 -0.1640 -0.1868
43787W        W44651  15.260  19.770   8.131 -0.2991 -0.0772  0.1537
43788W        W44652   6.758   8.839  21.709  0.1072  0.2723 -0.1549
43789W        W44653  11.867   4.374  21.366 -0.0334  0.3867 -0.3226
43790W        W44654  24.523  17.507  21.696 -0.2698 -0.2514  0.0549
43791W        W44655  26.281   6.856   6.579  0.2841 -0.1278  0.0780
43792W        W44656  28.291  23.236  23.462  0.0803  0.1746 -0.0452
43793W        W44657  10.588   5.500  15.084  0.1622 -0.0199 -0.1987
43794W        W44658  10.292   9.158  12.225  0.2396  0.0309  0.0080
43795W        W44659  28.269  23.068   8.308  0.1548  0.1796 -0.0854
43796W        W44660  21.926  17.965   2.952 -0.1909  0.1996  0.1878
43797W        W44661  27.013  17.761   7.677  0.1771  0.1183  0.1141
43798W        W44662  22.508   4.779  18.705 -0.0521  0.2006  0.0403
43799W        W44663  25.750  19.196   1.969  0.0244 -0.1553  0.2173
43800W        W44664   0.711  26.209  24.397 -0.0250  0.1022  0.0866
43801W        W44665  19.114   5.770  19.326  0.0822  0.1282  0.0783
43802W        W44666   8.116   4.061   6.428  0.2005  0.0355 -0.1898
43803W        W44667   7.455  24.193   9.121 -0.1765  0.0380  0.3090
43804W        W44668   2.562  23.344   6.591  0.1890 -0.0855 -0.3346
43805W        W44669  12.968  17.536   0.115  0.2634  0.0591  0.1012
43806W        W44670  28.323  19.965  15.342  0.0469  0.1373 -0.1859
43807W        W44671  15.785  24.576  16.501 -0.0936  0.1669 -0.1818
43808W        W44672  25.105  22.387  22.860 -0.2525  0.1004 -0.0780
43809W        W44673  21.050   8.052  11.793 -0.1244 -0.2082  0.1431
43810W        W44674   3.467  27.682  20.050 -0.1086  0.3766 -0.1489
43811W        W44675  20.795  17.279  14.328 -0.0148  0.0149 -0.4075
43812W        W44676  19.542   5.807   7.687  0.3271 -0.1401 -0.2262
43813W        W44677  18.168  28.306   3.741  0.1461  0.0297 -0.0367
43814W        W44678  19.658   3.857  17.858 -0.0028 -0.1766 -0.0193
43815W        W44679  16.126   8.921  23.350 -0.0556 -0.2233 -0.2910
43816W        W44680  20.426  18.508  13.507  0.0518  0.0454 -0.4707
43817W        W44681   0.982   0.139  15.160  0.1247 -0.0305 -0.3847
43818W        W44682   6.187  11.437  16.448 -0.5067  0.2508 -0.0769
43819W        W44683   3.063  18.430   5.195 -0.0438  0.2738  0.0750
43820W        W44684  12.847   0.586   9.108 -0.0137  0.1432  0.1833
43821W        W44685  11.073  11.169  29.045  0.1331  0.0977  0.1776
43822W        W44686  22.514  18.355  19.029 -0.0549  0.1471  0.2309
43823W        W44687   7.508   1.283  16.128  0.1084 -0.0330  0.1428
43824W        W44688  15.372   1.071  11.321  0.0731  0.0135  0.2311
43825W        W44689   6.137  20.912  29.008 -0.0277  0.2266 -0.1485
43826W        W44690  28.212  19.116  10.864 -0.0086 -0.0023 -0.1652
43827W        W44691   0.284  16.690  22.323  0.3066 -0.1060 -0.1596
43828W        W44692  21.232  28.345  26.442  0.3294 -0.1262  0.4427
43829W        W44693  17.308  17.927  16.856 -0.0353 -0.0332  0.0464
43830W        W44694   0.101  28.725   6.147  0.1479  0.1364  0.0669
43831W        W44695  25.744  18.297  25.905 -0.1774  0.3764 -0.2639
43832W        W44696  27.051  20.183   5.813 -0.0252  0.0278 -0.4095
43833W        W44697  18.421  21.789  19.600 -0.0821 -0.1666  0.1344
43834W        W44698   0.372  18.767   4.536 -0.0647 -0.1407 -0.1094
43835W        W44699  28.874  28.627  18.795 -0.1711 -0.1344  0.0083
43836W        W44700   3.464  11.259  23.530 -0.0992  0.2317  0.0967
43837W        W44701  28.368  24.158   4.253 -0.1333 -0.1035  0.0014
43838W        W44702  10.950  25.448   3.856 -0.2180 -0.1079  0.1852
43839W        W44703  18.892   5.694  24.227 -0.1274  0.0557 -0.2512
43840W        W44704  19.275  21.245  21.786 -0.0980 -0.2740 -0.2996
43841W        W44705  14.579  28.515   3.274 -0.1003  0.0621  0.0510
43842W        W44706   3.858  19.346  10.567 -0.3602 -0.1936  0.3532
43843W        W44707   0.894   1.015   5.522 -0.0014 -0.1375  0.1409
43844W        W44708  14.096  29.104   6.105  0.2230  0.0637 -0.0289
43845W        W44709   0.756  17.432   4.677  0.0035  0.0664  0.0768
43846W        W44710  10.332   3.868   8.504 -0.2436 -0.0169 -0.2192
43847W        W44711  11.459  23.873   9.670  0.0801 -0.0178  0.0739
43848W        W44712   6.301  12.194  13.295  0.0244 -0.2018 -0.1441
43849W        W44713  13.269  24.688  15.655 -0.0392  0.1120  0.0855
43850W        W44714  14.795   2.197  15.645 -0.1121 -0.0218 -0.0118
43851W        W44715  13.627  19.185  15.695  0.0642  0.2880  0.1881
43852W        W44716  21.821   7.528  23.211 -0.1386 -0.0287  0.0026
43853W        W44717  16.890  14.644  10.589  0.0992  0.1381  0.0026
43854W        W44718  28.686  18.215   3.838  0.0276  0.0471 -0.1528
43855W        W44719  12.389  19.086  17.272 -0.1669 -0.0729  0.2214
43856W        W44720   2.065  25.636  14.019 -0.1819  0.2021 -0.2613
43857W        W44721   9.380  27.808  12.502  0.4207  0.2437 -0.0282
43858W        W44722  26.491  11.884  27.817 -0.0697  0.0655  0.0550
43859W        W44723   7.029  28.691  14.580  0.0545  0.2019 -0.1811
43860W        W44724  19.105  15.521   2.694  0.0623  0.2164  0.1793
43861W        W44725   0.375   8.315   5.185 -0.2605  0.0062  0.0831
43862W        W44726  27.729   6.170   6.274  0.2667  0.3692  0.4597
43863W        W44727  14.162   9.696  21.117 -0.0417  0.1726  0.0322
43864W        W44728  14.009  10.496  20.396  0.2217 -0.0862 -0.0251
43865W        W44729  14.881  23.054  22.276 -0.0395 -0.3513  0.0431
43866W        W44730  23.272  13.242  22.446  0.1007 -0.1456  0.0980
43867W        W44731  26.569  15.835   7.198  0.0287  0.1763  0.3101
43868W        W44732  27.480  27.236  15.702 -0.0399 -0.1921  0.1127
43869W        W44733  15.491  28.013  16.867 -0.2456 -0.1699  0.0921
43870W        W44734   9.288  18.153  17.662 -0.4024 -0.1169  0.2743
43871W        W44735  22.024  22.943  24.638  0.0611 -0.0437  0.2141
43872W        W44736  21.976  19.191  14.513 -0.0969 -0.2873  0.0808
43873W        W44737   2.399  12.826  28.463 -0.0846  0.0576 -0.1462
43874W        W44738  18.812  23.780   5.363  0.3603 -0.0419  0.1773
43875W        W44739   4.698  12.529  28.892 -0.0218  0.1100 -0.1392
43876W        W44740   2.511  16.106  19.109  0.2035 -0.0108 -0.2218
43877W        W44741  15.056  14.375  19.531 -0.1057  0.0632 -0.3428
43878W        W44742  10.847  23.476  18.836  0.0032 -0.1954 -0.0046
43879W        W44743   5.440   4.371  23.908 -0.3029  0.4732  0.1706
43880W        W44744   9.490  10.645  20.692 -0.1059  0.0826  0.1799
43881W        W44745  14.571  11.652  14.808  0.1220 -0.0783  0.2017
43882W        W44746  18.889  10.600  20.177  0.2794  0.0613  0.3357
43883W        W44747  11.055  17.680  18.279 -0.0748 -0.1792  0.1056
43884W        W44748   3.822   3.662  14.876  0.0085  0.1838  0.1413
43885W        W44749  19.203  10.613  24.293 -0.3541  0.1895  0.0386
43886W        W44750   4.816   9.461  11.490 -0.2763  0.1275 -0.4115
43887W        W44751  24.003   6.858   0.910  0.0749 -0.0039  0.3942
43888W        W44752  27.065  22.043   9.376  0.0426 -0.2280 -0.0676
43889W        W44753   5.023   3.113  25.207  0.0264  0.4088 -0.0087
43890W        W44754   6.806  25.352  26.459 -0.2834 -0.1479  0.2648
43891W        W44755   0.069  20.569   7.560 -0.3899 -0.2335  0.1033
43892W        W44756   1.693  13.930   2.504  0.4462  0.1922  0.2151
43893W        W44757   3.477  15.183  11.559  0.0487 -0.1250  0.0405
43894W        W44758  10.402   4.470   3.516  0.2849  0.2981 -0.0294
43895W        W44759  10.981  25.172  11.266  0.0277  0.0081 -0.2772
43896W        W44760   7.084  19.097  16.540 -0.0391 -0.3042  0.1867
43897W        W44761   2.234  11.595  28.536 -0.0767 -0.0348 -0.0252
43898W        W44762   0.712  21.946   5.694 -0.0643  0.2595 -0.1779
43899W        W44763  12.157  11.871  19.746  0.2164 -0.0527  0.1146
43900W        W44764   3.187  21.702  18.665 -0.0863 -0.0619  0.0615
43901W        W44765  16.200  15.920   1.378  0.0816  0.0753  0.5289
43902W        W44766  10.885  25.923   1.793  0.1138  0.3027  0.0902
43903W        W44767   3.967   3.651  16.695 -0.1542  0.1824  0.1328
43904W        W44768  18.165  20.425  14.633  0.2221  0.0098  0.2282
43905W        W44769  15.545  13.910   3.531 -0.0718  0.2495  0.1879
43906W        W44770  12.720  22.517   7.963  0.2607  0.3959  0.1892
43907W        W44771   8.319  23.120  16.834  0.0180  0.0377  0.0863
43908W        W44772  11.077  25.540  28.493 -0.0938  0.1442 -0.0044
43909W        W44773   7.758  17.939  19.399 -0.0831  0.0523  0.2003
43910W        W44774  14.262   4.553  23.750 -0.0984  0.2441  0.2587
43911W        W44775  16.048  26.394  17.609 -0.1420 -0.2723 -0.2304
43912W        W44776   8.218  19.943  13.571  0.0303 -0.0784 -0.2659
43913W        W44777  10.780  15.874  18.927  0.1299 -0.0170  0.0966
43914W        W44778  26.981  23.017   1.874  0.4343  0.0789  0.1710
43915W        W44779   0.772  22.900  25.497 -0.1081 -0.0185  0.0619
43916W        W44780  26.074  23.758  11.902 -0.2844 -0.1622  0.2261
43917W        W44781  26.107  17.738   3.045 -0.1738  0.0033 -0.2503
43918W        W44782  20.065  25.857  15.392 -0.1883 -0.0673  0.1592
43919W        W44783  10.515  28.674  16.475 -0.1323 -0.2201  0.0308
43920W        W44784  20.569  23.348  26.311  0.0661 -0.1089  0.0660
43921W        W44785  21.329  13.061  13.911  0.0128  0.2025 -0.0268
43922W        W44786   5.696  13.336  13.292  0.0857  0.0097  0.3376
43923W        W44787   0.611   9.829  19.823 -0.1937  0.2783  0.0854
43924W        W44788  14.606   4.131  26.119  0.2011  0.0660 -0.0342
43925W        W44789   4.786  19.091  27.894  0.3616 -0.0092 -0.0030
43926W        W44790  18.765  23.566  25.867  0.2088  0.6554 -0.1711
43927W        W44791  17.281  25.238  17.305  0.0265 -0.0758 -0.2395
43928W        W44792  11.896  11.260  27.256  0.0994 -0.3405 -0.1593
43929W        W44793  21.525   1.296  23.139  0.1052 -0.0375  0.3230
43930W        W44794   0.139  21.860  26.288  0.0750 -0.3472  0.0503
43931W        W44795  26.058  24.014  28.073  0.1477 -0.1559  0.1845
43932W        W44796  18.256  13.553  19.958 -0.0896 -0.0406  0.2553
43933W        W44797   9.875   7.587  19.114 -0.0589  0.2149  0.0488
43934W        W44798  15.329  23.262  17.581 -0.1156  0.2118 -0.4698
43935W        W44799   0.325   4.572  26.906 -0.1292 -0.0674  0.0284
43936W        W44800  13.705  17.177  12.719  0.0518 -0.1766  0.2452
43937W        W44801   9.746  14.494  22.231 -0.0663 -0.0396 -0.0043
43938W        W44802   1.509  23.993  22.163  0.0105 -0.1610  0.0453
43939W        W44803   6.751  15.590  24.279  0.1062  0.3602  0.2795
43940W        W44804  23.849  28.254  25.820 -0.2007  0.1847  0.2705
43941W        W44805  17.441  22.384  24.370  0.0055 -0.0812 -0.0038
43942W        W44806   0.775  29.062   8.182 -0.1443  0.0631  0.2351
43943W        W44807   5.919   9.882  13.259 -0.0444  0.0170  0.0905
43944W        W44808  23.422   5.532   8.724 -0.1311 -0.0024  0.0876
43945W        W44809  23.452   6.625  11.377 -0.0960 -0.0853  0.2016
43946W        W44810   8.526  21.731  24.547  0.3363 -0.1334  0.0048
43947W        W44811   9.844  26.271  10.877 -0.1177  0.0505  0.1495
43948W        W44812   8.189  18.659  21.877  0.0844  0.2917  0.0410
43949W        W44813  26.143  14.349  23.655  0.1817 -0.0455  0.3144
43950W        W44814  13.357  10.985   5.708  0.2191 -0.2380 -0.0148
43951W        W44815  19.589  24.032  20.014 -0.0062 -0.0099  0.2819
43952W        W44816  20.097  15.295   1.162  0.0270  0.2530  0.1419
43953W        W44817  18.151  22.401  25.786 -0.1485  0.0345 -0.0480
43954W        W44818   9.427  12.804  20.586 -0.0162 -0.0165 -0.1871
43955W        W44819  23.689  17.998   2.382 -0.1233  0.2379  0.0815
43956W        W44820   7.545  27.870  24.963  0.0428  0.5013  0.0699
43957W        W44821   4.248  12.641  25.746  0.2142 -0.2539  0.0635
43958W        W44822  24.803  23.968   9.510  0.3093 -0.3498 -0.0639
43959W        W44823  25.122  10.274  20.446  0.1555  0.1497  0.1557
43960W        W44824  13.758  23.265  14.478  0.2423  0.1320  0.1270
43961W        W44825  25.069  15.258  14.324 -0.2209 -0.1440  0.0430
43962W        W44826   5.296  12.287   6.608 -0.0989  0.0730  0.2422
43963W        W44827  13.687  21.822  22.135 -0.1183 -0.0380 -0.3075
43964W        W44828  27.255  26.750  26.833 -0.4336 -0.0783 -0.1943
43965W        W44829   8.817   8.089  11.157 -0.0403 -0.0857  0.0342
43966W        W44830   2.432  14.036  21.810 -0.1096  0.2175 -0.2387
43967W        W44831  27.000  25.683  27.886 -0.2448 -0.1760 -0.0504
43968W        W44832   4.798   6.791  18.447 -0.1965 -0.0298  0.4688
43969W        W44833  17.320  26.785  11.166 -0.1211  0.3481  0.1449
43970W        W44834   9.047  19.157  23.736  0.2235 -0.2119  0.0158
43971W        W44835   6.736  18.470  10.643 -0.0948  0.1700 -0.3081
43972W        W44836  26.636  16.642  18.439  0.0382  0.2512  0.0223
43973W        W44837  12.258  11.827  25.327  0.0625  0.0652 -0.0363
43974W        W44838   5.735   9.916  26.585 -0.2067  0.0708 -0.2596
43975W        W44839  12.968  14.855  21.285 -0.1935 -0.3012  0.0395
43976W        W44840  23.466  18.597  13.576 -0.3912  0.0381 -0.1267
43977W        W44841   5.846  21.632  13.840  0.0572  0.2528 -0.3011
43978W        W44842  18.729  15.011  15.165  0.1426 -0.0088  0.5660
43979W        W44843   4.993  24.893   0.496 -0.3034 -0.0522  0.1601
43980W        W44844   3.565  25.878  25.640  0.4391 -0.1220 -0.0228
43981W        W44845   1.101  16.844  20.479 -0.1361  0.2718  0.0162
43982W        W44846  26.388  17.396  17.178  0.2416  0.2597 -0.0623
43983W        W44847   7.278   0.392  20.130  0.0392 -0.0569 -0.0008
43984W        W44848  16.528  16.716  21.602  0.0068 -0.0153 -0.0248
43985W        W44849  27.905   5.164  27.243 -0.0253  0.0675  0.0128
43986W        W44850  17.149  15.797   0.973  0.0158 -0.1223  0.1559
43987W        W44851  19.681  16.750  16.334 -0.2284  0.0243  0.0849
43988W        W44852  13.502  21.852  20.297 -0.0556 -0.1245  0.0242
43989W        W44853   2.859  21.783  11.964  0.2763 -0.1711  0.0305
43990W        W44854   3.433  20.360  22.747  0.0946 -0.1885  0.1979
43991W        W44855  24.381  11.473  28.398  0.1396 -0.1488  0.0656
43992W        W44856   0.446   5.348  15.230  0.0568 -0.2356  0.3898
43993W        W44857  14.161  25.917   8.305 -0.0252  0.1696  0.0434
43994W        W44858   0.298   9.667  12.339 -0.1802  0.1764  0.0640
43995W        W44859   4.499  11.564   5.603  0.1324 -0.2591  0.1706
43996W        W44860   3.053  13.341  14.066  0.1321 -0.2367  0.1198
43997W        W44861   6.579  21.488  26.815 -0.2106  0.2160  0.0579
43998W        W44862  14.998  12.731  26.125 -0.1299  0.0387  0.1419
43999W        W44863  22.907  16.304  18.757 -0.1901  0.0201 -0.0428
44000W        W44864  16.116  22.696   9.882 -0.1683  0.1165 -0.0768
44001W        W44865  28.693  20.760  26.549  0.1911  0.0636  0.1417
44002W        W44866  28.215  13.770   1.069 -0.1607  0.4000 -0.1302
44003W        W44867  11.344   5.017  20.788 -0.0694 -0.2715 -0.1161
44004W        W44868  16.171  19.911   6.583 -0.0648 -0.0634  0.4110
44005W        W44869  22.238  27.730  23.007  0.2126  0.3885 -0.0280
44006W        W44870  24.662  19.831  20.784 -0.0992 -0.2052 -0.0288
44007W        W44871   7.705  25.094  22.347 -0.0888 -0.0947 -0.0450
44008W        W44872  10.905   0.715  14.794  0.1497 -0.3715 -0.3826
44009W        W44873  27.934   0.424   3.367  0.1108  0.0859 -0.2309
44010W        W44874  27.195   6.098  22.820  0.0875 -0.0046  0.0555
44011W        W44875  16.001   3.553   7.515  0.0914 -0.0498  0.0329
44012W        W44876  21.590  17.141  21.359  0.1527 -0.2391 -0.0734
44013W        W44877  24.781  23.020  10.426 -0.0839 -0.1997  0.0705
44014W        W44878   3.689   3.687  13.556 -0.0032  0.1051  0.1140
44015W        W44879  23.922   2.134   7.180  0.4095 -0.0345  0.3571
44016W        W44880   3.068   9.760  28.780 -0.3172  0.0090 -0.1671
44017W        W44881  21.310  20.719  15.425 -0.1468 -0.3783 -0.2195
44018W        W44882   7.764   0.034   6.821 -0.0421 -0.0850  0.0409
44019W        W44883   7.265  27.845   1.269  0.2011  0.1718  0.0963
44020W        W44884   0.538  14.286  17.836 -0.1352 -0.2830  0.0136
44021W        W44885  19.818   3.938   9.998 -0.0523  0.0538  0.2925
44022W        W44886  26.372  13.553   9.111 -0.0519  0.2697 -0.1521
44023W        W44887  13.198   9.798  24.832  0.3016 -0.2699 -0.2846
44024W        W44888  16.590  14.763  16.317  0.1934  0.1084  0.0621
44025W        W44889  25.068   5.558   5.120  0.0243  0.1045  0.0312
44026W        W44890   4.704  22.680  12.195  0.0413  0.3115  0.4450
44027W        W44891  12.804  26.218  13.062 -0.3811 -0.3050 -0.1102
44028W        W44892   4.432  25.740  24.231 -0.5437 -0.1333 -0.1071
44029W        W44893  16.257  16.411  17.960  0.5603 -0.2118  0.1236
44030W        W44894  13.287  17.741  24.304  0.1660 -0.0259  0.2160
44031W        W44895  21.864  13.058  15.420 -0.1647  0.3945 -0.2025
44032W        W44896  25.157  26.419  14.820  0.1478 -0.0973  0.0475
44033W        W44897   2.007   7.416  12.356 -0.0767 -0.2067 -0.0679
44034W        W44898  20.607  12.809   4.120 -0.0779  0.1017  0.0932
44035W        W44899  21.117  17.799  25.934 -0.0560  0.1482 -0.0239
44036W        W44900  26.157  19.828   5.165  0.0038  0.5868 -0.0037
44037W        W44901  21.726   4.299  22.634  0.0211 -0.0448  0.1256
44038W        W44902  26.936  13.150  21.635 -0.1690  0.0395 -0.0411
44039W        W44903  13.019  20.002   5.445 -0.0169 -0.0556  0.1760
44040W        W44904   9.176   1.703   7.685  0.0252 -0.3055  0.1232
44041W        W44905  14.130   8.984   3.158 -0.1361  0.2737  0.0247
44042W        W44906   3.926   8.862   5.693 -0.0883 -0.0891 -0.1028
44043W        W44907   9.753   4.553   2.293  0.2112 -0.1638  0.1849
44044W        W44908  13.242  12.987  23.356  0.0190 -0.0149  0.2917
44045W        W44909   0.923   3.707  12.345 -0.3449 -0.0284  0.0284
44046W        W44910  24.514   6.079  20.175 -0.2643  0.2658  0.2765
44047W        W44911   0.263  21.263  12.842 -0.0530 -0.0186 -0.1630
44048W        W44912   9.179  20.343  14.763  0.0533  0.0279  0.2991
44049W        W44913   7.543  10.295   8.294 -0.0231  0.2055 -0.0727
44050W        W44914   0.973  10.444  24.022  0.2990  0.0614  0.0552
44051W        W44915   1.500  26.700  16.435  0.1277 -0.0424 -0.0961
44052W        W44916  24.984   1.838  12.392  0.0917  0.0682 -0.0378
44053W        W44917  15.475   6.744  22.818 -0.1310  0.0336 -0.2594
44054W        W44918  14.461  17.403  14.066  0.1897 -0.4076 -0.0212
44055W        W44919  15.017  19.051  20.832  0.2974  0.0533  0.0227
44056W        W44920  20.292  24.083   4.001 -0.3019 -0.3414  0.1780
44057W        W44921  13.902  10.487  18.934 -0.3265  0.0758  0.0511
44058W        W44922  25.973  19.639  22.178  0.0071  0.1413 -0.0278
44059W        W44923   8.423  27.419  14.768  0.1758 -0.0020  0.3777
44060W        W44924  24.550   8.042  20.819 -0.1659  0.0931  0.3035
44061W        W44925  22.639  19.054   9.626  0.0759  0.3677 -0.0361
44062W        W44926  27.636  14.675   3.391 -0.2404 -0.0462  0.2850
44063W        W44927   2.906  22.547   2.692  0.1882  0.0792 -0.0601
44064W        W44928  25.680  21.599  27.348  0.0961 -0.1041 -0.1518
44065W        W44929  23.042  24.744  14.836 -0.0967  0.1639 -0.2684
44066W        W44930  22.684   4.096  26.477 -0.0855 -0.0152  0.0474
44067W        W44931  21.439   0.462   2.376 -0.2365  0.2464  0.0512
44068W        W44932   5.648   1.286  12.227  0.0285  0.0773 -0.0091
44069W        W44933   6.149   1.241  18.258  0.2606  0.1138  0.0301
44070W        W44934   2.452  11.203  13.130  0.0340 -0.0610 -0.0309
44071W        W44935  18.001  17.535   2.658 -0.0126 -0.0924  0.0552
44072W        W44936  28.038   6.980  19.576  0.0609  0.2832  0.2059
44073W        W44937  20.335  16.356  18.153  0.0841  0.2361  0.0613
44074W        W44938  16.603  18.196  11.157  0.1377  0.0652  0.0864
44075W        W44939   6.016  17.725  10.338  0.3522 -0.2374 -0.0993
44076W        W44940  20.940  11.937  21.931  0.2384 -0.1531 -0.2253
44077W        W44941  11.809  11.389  24.282  0.0358  0.0040 -0.0834
44078W        W44942  23.465   6.748  13.382  0.0057  0.0608  0.1677
44079W        W44943  17.272  12.071   8.223 -0.3890 -0.2909  0.2108
44080W        W44944  12.263   1.175  16.494  0.2401  0.0472 -0.1549
44081W        W44945  20.231   6.489  23.445  0.0648  0.1896 -0.1607
44082W        W44946  27.049   6.923  24.626  0.1240  0.2140  0.1023
44083W        W44947  22.673  26.158  27.706 -0.2210 -0.0596 -0.0144
44084W        W44948  28.199  20.479  17.126  0.2846  0.3040  0.1636
44085W        W44949  28.484  23.217   0.539 -0.1109  0.1870 -0.0259
44086W        W44950  15.535  19.619  18.174 -0.0047 -0.0403 -0.0377
44087W        W44951  21.755   9.595  15.670  0.3511  0.2681  0.0316
44088W        W44952  20.298  26.283  16.229  0.1710 -0.0270 -0.2902
44089W        W44953   6.617  26.897  13.313 -0.0992 -0.2880  0.0489
44090W        W44954   9.064   2.057  21.419 -0.0754 -0.0565  0.2596
44091W        W44955  12.673  26.246  16.424  0.2666 -0.2205  0.0123
44092W        W44956   9.596  21.212  29.037  0.3042 -0.0337 -0.0830
44093W        W44957   5.256  20.438  20.763 -0.0001  0.1447 -0.0023
44094W        W44958  10.537   9.059   3.170 -0.0924  0.1835 -0.2788
44095W        W44959  11.884  18.113  10.610  0.0758  0.3238 -0.0085
44096W        W44960  27.306  12.036   6.750  0.2000  0.0993  0.1314
44097W        W44961  12.985   7.787  26.788 -0.3272  0.1131 -0.2196
44098W        W44962  25.173  13.864  19.629 -0.0316  0.1483  0.2739
44099W        W44963   0.021  25.759  22.049  0.2755  0.5076 -0.1443
44100W        W44964  11.583  23.129   2.463  0.0592  0.1628 -0.2016
44101W        W44965   6.928  15.415  23.320  0.0097 -0.0615 -0.0704
44102W        W44966  15.228   7.994  19.376 -0.2906  0.4290 -0.1312
44103W        W44967  11.559   3.310  10.187 -0.1859 -0.0636  0.0038
44104W        W44968   3.464  11.508  27.210 -0.1051  0.1443 -0.0674
44105W        W44969  27.347  26.217   9.143 -0.1777  0.0925 -0.0662
44106W        W44970  25.829  19.512  16.683 -0.3268  0.1464  0.1893
44107W        W44971   7.077  25.721  20.185 -0.2125  0.0243  0.1971
44108W        W44972  14.307  20.088  16.863  0.0222  0.0750 -0.2454
44109W        W44973  10.204   4.177  25.067  0.5859  0.1431  0.0840
44110W        W44974   1.470  24.323   2.176 -0.0717 -0.0095 -0.0323
44111W        W44975  10.298  28.789   8.946 -0.2357 -0.1056  0.0846
44112W        W44976   8.261   1.369   0.762  0.0411 -0.0005  0.3037
44113W        W44977   0.923  18.735  23.185  0.2728  0.0351  0.1338
44114W        W44978  13.070  17.292   5.421  0.1315  0.1166  0.0640
44115W        W44979  23.412  27.834  10.482 -0.0242 -0.1387  0.1163
44116W        W44980  11.749   3.174   1.693 -0.1560  0.0321  0.1117
44117W        W44981  28.966  16.248  25.923  0.2131 -0.1443 -0.2065
44118W        W44982   8.334  14.223  17.698 -0.3613 -0.0229 -0.0166
44119W        W44983   1.517  18.269   8.059 -0.1055  0.3380 -0.1453
44120W        W44984  23.921  28.068  28.030 -0.2643 -0.2794  0.0620
44121W        W44985   4.151  28.855  24.584  0.0531  0.0525 -0.2422
44122W        W44986   7.016   8.203  25.003 -0.1857 -0.0674 -0.2189
44123W        W44987  23.566  14.479   3.134 -0.1610 -0.2294 -0.2107
44124W        W44988  28.312  20.959  27.944 -0.0770  0.1598 -0.1493
44125W        W44989  10.922   8.180  21.091 -0.0292 -0.0542  0.3645
44126W        W44990   0.852   7.215  11.116 -0.2297  0.0924 -0.0192
44127W        W44991   6.525   3.146   8.379  0.0281  0.1448 -0.0655
44128W        W44992  24.916   3.471  25.640 -0.5201 -0.0336  0.3546
44129W        W44993  10.091  10.866  13.539  0.1722  0.2382  0.0860
44130W        W44994  20.346   6.714  13.709  0.0841 -0.1082 -0.1241
44131W        W44995  11.305  11.784   9.395  0.0967 -0.3236 -0.0113
44132W        W44996  13.218  26.833   3.584  0.0587 -0.0898  0.1221
44133W        W44997  10.954  17.878   8.456 -0.4990  0.1727  0.3153
44134W        W44998  16.586  25.978  13.423  0.2136  0.0415  0.0522
44135W        W44999   6.813  17.132  27.836 -0.1569 -0.1333 -0.0913
44136W        W45000   0.443  23.642   4.370  0.0295 -0.0702 -0.2481
44137W        W45001  28.583   4.639  12.748 -0.0473 -0.0930 -0.0192
44138W        W45002  16.089  27.226  24.581 -0.1675 -0.3054  0.0375
44139W        W45003  23.594  18.674  21.218 -0.0306 -0.1834  0.2506
44140W        W45004  13.156   2.237  13.341  0.0976 -0.0145 -0.0326
44141W        W45005   9.007  14.948  13.771 -0.0232  0.2109 -0.2921
44142W        W45006   2.932  20.456  26.034 -0.0474  0.0917  0.0093
44143W        W45007  12.960  27.094  19.221 -0.0186 -0.0750  0.0270
44144W        W45008   6.145  20.068  28.082  0.2164 -0.0575 -0.5028
44145W        W45009  20.341  18.535  10.751 -0.0731  0.0441 -0.0430
44146W        W45010  15.465  13.423  28.027 -0.1302 -0.2967  0.0476
44147W        W45011  20.702  17.869  24.626 -0.0609  0.1105  0.0245
44148W        W45012  14.013   1.889   9.789  0.1240  0.4159  0.2667
44149W        W45013  25.822  19.300  24.933  0.0362  0.0379  0.0003
44150W        W45014  26.652  14.369  17.897 -0.1451  0.1201  0.0808
44151W        W45015  23.049   5.401  22.076 -0.0192 -0.0400 -0.0010
44152W        W45016  11.582   1.574  20.026 -0.3242 -0.1294 -0.0179
44153W        W45017  16.149  26.017   6.530  0.2423 -0.0346  0.1990
44154W        W45018  13.302  17.408  23.869  0.2333  0.1218 -0.1942
44155W        W45019   9.181   5.843  10.051  0.1172  0.1880  0.0608
44156W        W45020  21.020  20.763  20.422  0.1709  0.0523 -0.0444
44157W        W45021  22.742  14.395  22.782 -0.1232  0.0760  0.0678
44158W        W45022   4.208  15.198  14.102 -0.0127 -0.3880  0.0143
44159W        W45023   7.953  29.111  20.739 -0.1502  0.1752 -0.1789
44160W        W45024  28.209  22.367  22.316  0.2138  0.0821  0.0302
44161W        W45025  12.671  26.661   0.388  0.0961  0.2058 -0.2496
44162W        W45026  28.763  15.708  24.380 -0.3106  0.2914  0.2208
44163W        W45027  28.800  26.234  16.245  0.2353  0.1344  0.1103
44164W        W45028  26.921  17.617   3.237 -0.2699 -0.3629  0.1049
44165W        W45029   3.640  22.674   5.169 -0.0460 -0.1112  0.1756
44166W        W45030   7.321   7.434  21.314  0.2611 -0.0708  0.1623
44167W        W45031   7.612  12.906  19.352 -0.0891  0.2135  0.1196
44168W        W45032   4.196  25.891   7.211  0.0594 -0.0580 -0.1806
44169W        W45033   5.946  22.701  19.930 -0.2136  0.1242 -0.1050
44170W        W45034  28.178  16.520   9.621 -0.1321 -0.0907 -0.3669
44171W        W45035   1.016   0.204  23.442 -0.0592  0.3473 -0.0242
44172W        W45036  27.384   7.395  27.071  0.1166  0.1357  0.2411
44173W        W45037   1.440  19.356  15.968  0.0326 -0.1418 -0.0589
44174W        W45038  10.748  21.381  14.810 -0.0120 -0.0794 -0.1159
44175W        W45039  22.123  13.904   5.961 -0.0803  0.0082 -0.0574
44176W        W45040   6.930  14.674  10.678  0.1493  0.3032 -0.0720
44177W        W45041  16.123   6.709  16.181 -0.0889 -0.0408  0.1887
44178W        W45042  17.607  15.880  17.998  0.1077  0.0007  0.1827
44179W        W45043   0.426  28.165  11.039  0.0176 -0.0761 -0.1164
44180W        W45044  16.017   7.707   8.721  0.1112 -0.1054  0.1542
44181W        W45045   3.350   6.277   0.289  0.2080 -0.0770  0.2097
44182W        W45046   5.041  24.713  14.337  0.2789 -0.1506 -0.5133
44183W        W45047   9.657  12.815  13.651  0.1417 -0.0171  0.2220
44184W        W45048   2.437  22.223  25.610  0.0357 -0.2757 -0.1404
44185W        W45049  15.882  10.984  16.572 -0.0494  0.4149 -0.3108
44186W        W45050  19.212  22.043   4.529  0.0014  0.0214 -0.1913
44187W        W45051  18.862  27.361  18.106  0.0222  0.0124  0.1146
44188W        W45052  29.135  27.446   7.296 -0.2238  0.0293 -0.0636
44189W        W45053   5.867   2.066  14.620 -0.2127  0.2611 -0.0824
44190W        W45054  15.414  15.767  18.670  0.2585 -0.1361 -0.1367
44191W        W45055  12.044  11.519   6.365 -0.1843  0.2903 -0.1618
44192W        W45056  12.630  21.665   9.513  0.2345 -0.1519 -0.1399
44193W        W45057  17.870  13.663  21.837 -0.2816 -0.0251 -0.1474
44194W        W45058  25.226  18.722  25.787 -0.2556  0.0539 -0.0100
44195W        W45059  18.615   5.377  16.681  0.3216 -0.0109  0.0552
44196W        W45060  14.239  27.531   4.728  0.0348 -0.2504 -0.0558
44197W        W45061   6.679  14.620   2.363 -0.1689 -0.1067  0.2504
44198W        W45062  20.307   9.100   9.651 -0.0662  0.1105  0.1449
44199W        W45063  16.918   0.494  13.662 -0.0222  0.1316  0.1845
44200W        W45064   1.280  27.046   9.314  0.1555 -0.4737 -0.0861
44201W        W45065   6.298  14.925   2.176  0.1954  0.1355  0.3061
44202W        W45066  27.123  20.263  20.697 -0.2038  0.0874 -0.1886
44203W        W45067   3.330  23.861  15.934 -0.3975  0.0609 -0.0581
44204W        W45068   0.493  27.996  23.896  0.0428 -0.0140  0.1509
44205W        W45069  27.957  16.052  27.747  0.1699  0.3116  0.3286
44206W        W45070  26.986   9.335  22.018 -0.2878  0.4481  0.2365
44207W        W45071   4.563   1.301  28.393  0.4103  0.1035 -0.1061
44208W        W45072   9.830  27.602   0.092  0.2117  0.0134  0.1727
44209W        W45073  14.342  23.515  13.665  0.0599  0.0545 -0.0789
44210W        W45074  19.723  17.540  20.751  0.0466 -0.3443  0.1917
44211W        W45075  12.552  22.368  21.897 -0.1841 -0.3025  0.0231
44212W        W45076   6.125   1.682  23.891 -0.0422 -0.2129 -0.2635
44213W        W45077  16.609   1.858  23.055 -0.3891 -0.1399 -0.1790
44214W        W45078   4.997  16.510  13.814 -0.2820 -0.2053  0.0567
44215W        W45079   9.726  23.442  11.984  0.0851  0.0709 -0.2959
44216W        W45080  23.476  25.333  26.836  0.0797  0.0580 -0.2642
44217W        W45081  15.293  20.895  19.742  0.1907  0.0747  0.1591
44218W        W45082   5.120  22.660   7.711  0.0853  0.1847  0.0440
44219W        W45083  26.805  15.790  15.957  0.0035 -0.0942 -0.0755
44220W        W45084  28.510  14.194  23.886 -0.5120  0.0717  0.0217
44221W        W45085  28.491   1.651  19.093  0.1062  0.1950  0.1509
44222W        W45086   6.409   4.367   5.534  0.0261  0.1222  0.1655
44223W        W45087  15.885   6.855  17.422  0.0887  0.1120  0.1348
44224W        W45088   3.020  22.112   0.357 -0.2324  0.0870  0.1180
44225W        W45089   1.693  16.860   5.389  0.2284 -0.0640 -0.0261
44226W        W45090  12.738   1.167  22.480 -0.0427  0.0462  0.4121
44227W        W45091   7.263  20.259  28.178 -0.4756 -0.1098  0.0175
44228W        W45092   6.982  28.564  28.549 -0.0058  0.1079  0.1724
44229W        W45093  24.159   6.600  19.548 -0.3426 -0.1160 -0.1712
44230W        W45094  15.770  26.119  25.736  0.0114 -0.1894  0.0627
44231W        W45095   5.621   0.729  20.123 -0.1861 -0.1276  0.1926
44232W        W45096  22.053  25.878  27.644 -0.1287 -0.1479 -0.2968
44233W        W45097  16.434   8.951  28.403 -0.0245  0.2985  0.0071
44234W        W45098  11.789  18.873   2.866 -0.0324  0.2236  0.2337
44235W        W45099   1.096   6.185  20.480  0.3522 -0.3107 -0.0790
44236W        W45100  22.511   6.894   9.400  0.2945  0.0108  0.0581
44237W        W45101   0.582  13.537   2.108 -0.0836 -0.0260 -0.1110
44238W        W45102  24.949   7.284   9.718 -0.1173  0.0633 -0.3092
44239W        W45103  19.168  21.646  24.532 -0.2567 -0.1393 -0.2238
44240W        W45104  11.185  22.399  15.114 -0.0657 -0.2360 -0.0555
44241W        W45105   5.196  15.573  24.747  0.2505 -0.0852  0.1045
44242W        W45106  12.424  11.290   9.183  0.1843  0.1257  0.1783
44243W        W45107  24.734   4.775  19.956 -0.0214  0.0312  0.1896
44244W        W45108  24.021   0.183  27.806  0.0419 -0.1309 -0.0062
44245W        W45109  20.411  10.510  18.225  0.0039 -0.3140  0.0138
44246W        W45110   1.710   2.857  25.370  0.0785 -0.1813  0.3100
44247W        W45111  11.617   0.398  25.088 -0.0169 -0.3315 -0.0442
44248W        W45112   8.939   5.296  13.769 -0.2710 -0.3064 -0.2264
44249W        W45113   6.527  25.022  24.063  0.0319  0.1110 -0.0293
44250W        W45114  17.661  14.272  12.727  0.4217  0.0888 -0.2778
44251W        W45115  26.790  25.178   8.472  0.0799  0.0819 -0.0307
44252W        W45116   4.219   1.717  18.524  0.3152  0.2329  0.2121
44253W        W45117  15.476  24.720  12.879 -0.3036  0.1418  0.1492
44254W        W45118  13.668  21.721  27.919  0.1809  0.0270  0.0058
44255W        W45119   6.207  19.056   3.014 -0.0099  0.0100  0.0792
44256W        W45120   1.061  15.326   9.898 -0.0407  0.1554  0.1724
44257W        W45121   6.154  19.087  11.339 -0.0883 -0.2202 -0.4482
44258W        W45122  17.423   4.384   3.606  0.0217  0.4183  0.2478
44259W        W45123  13.170  25.123  25.729  0.0211 -0.2234  0.1494
44260W        W45124  20.508   0.308  24.407 -0.0894  0.0120  0.2261
44261W        W45125   6.608  15.969  20.076 -0.2793 -0.1392 -0.2409
44262W        W45126  14.639  12.304  26.769 -0.2112 -0.0857  0.0638
44263W        W45127   9.523  25.162  26.495 -0.2304 -0.0356 -0.1095
44264W        W45128   3.180   1.355   0.454 -0.4708 -0.0660  0.2027
44265W        W45129   2.435  20.181  27.038  0.0700 -0.1241  0.0341
44266W        W45130   6.582  13.460  18.296  0.1374 -0.0886 -0.1325
44267W        W45131   2.261  13.150   5.123  0.0393 -0.0171 -0.3798
44268W        W45132  16.489  23.979   7.330 -0.2408 -0.0410 -0.1619
44269W        W45133   3.693  10.648  15.941  0.1586  0.4752 -0.2083
44270W        W45134   6.585   6.824  25.838 -0.1390  0.0505  0.1551
44271W        W45135   8.330  15.400  22.137  0.2546 -0.0433 -0.0004
44272W        W45136  22.928   7.629  22.500  0.0106  0.0446  0.1778
44273W        W45137  27.811  17.081  25.427  0.3068  0.1648 -0.0764
44274W        W45138  24.777  14.073   9.364 -0.0158 -0.1375  0.1166
44275W        W45139  15.684  15.240   1.858  0.0511  0.0875 -0.2112
44276W        W45140  27.883   3.730   9.364  0.1533  0.0884  0.0661
44277W        W45141  12.783  14.155  20.503  0.2243  0.0303 -0.1023
44278W        W45142  13.347  28.636  19.004  0.2415 -0.1286  0.0522
44279W        W45143  26.193  26.886  26.823  0.0644 -0.1636 -0.1088
44280W        W45144  10.118   4.116   8.025 -0.1447  0.2544 -0.0686
44281W        W45145  22.470  12.120  20.153  0.1382  0.1637 -0.2542
44282W        W45146  27.704  27.644  16.633  0.0165 -0.1251  0.0498
44283W        W45147  15.446  23.607   2.746 -0.1752  0.1229  0.0782
44284W        W45148  16.311  13.398  28.438 -0.3200 -0.1361  0.0052
44285W        W45149   4.388  14.037  14.588 -0.1390  0.0377  0.0586
44286W        W45150  27.499  24.743  18.117  0.1565  0.2167  0.0451
44287W        W45151  26.044  24.557  21.040 -0.0866 -0.1745 -0.0809
44288W        W45152   0.356  29.063  25.646  0.1269 -0.0515  0.2739
44289W        W45153  14.158   2.377  10.975  0.0361 -0.1120  0.0749
44290W        W45154  14.572  25.070   1.850 -0.1031  0.2281 -0.4190
44291W        W45155   1.740  16.164  24.920  0.1437  0.0783 -0.1818
44292W        W45156   4.305  19.013  21.938  0.1024 -0.0799  0.0762
44293W        W45157   5.810  23.596  24.678 -0.2177  0.0376 -0.1186
44294W        W45158  27.949  25.093  21.869 -0.2189 -0.1867 -0.1647
44295W        W45159   6.397  14.349  24.571  0.0620 -0.0675 -0.0703
44296W        W45160   7.989  19.822   4.886 -0.1534 -0.0460 -0.0127
44297W        W45161  23.398  26.886   1.717  0.1227 -0.1231 -0.2603
44298W        W45162  16.787  17.746  20.822  0.1989  0.0546 -0.1856
44299W        W45163  20.751   0.192   8.731 -0.3347 -0.0126 -0.2074
44300W        W45164  23.085  11.795  15.387  0.3316 -0.1059 -0.2014
44301W        W45165   4.461  22.517  12.565  0.0693 -0.2577  0.1018
44302W        W45166  15.395  20.191   4.779  0.0229  0.0881  0.1761
44303W        W45167   7.683  19.513  28.092  0.0984  0.2916  0.1811
44304W        W45168  28.878   2.702  19.505 -0.1080  0.0313  0.0430
44305W        W45169   5.227  25.103  18.737 -0.1458 -0.1564  0.3811
44306W        W45170  20.886  26.599  17.262 -0.0747  0.5364  0.0711
44307W        W45171  27.953   4.238   1.368 -0.3911  0.0038 -0.2891
44308W        W45172  28.286  12.902   0.370  0.1029  0.0411 -0.1002
44309W        W45173  22.276   2.320  23.279  0.0178 -0.1681  0.2449
44310W        W45174  12.035  27.349  19.592 -0.2675 -0.1437 -0.1213
44311W        W45175  21.547  23.434   1.468 -0.3753  0.0745 -0.0897
44312W        W45176  25.879  19.691   7.198 -0.0172 -0.2714 -0.1014
44313W        W45177  13.315  23.657  27.228  0.3387 -0.2398 -0.1536
44314W        W45178  27.099   0.806   8.725  0.2213 -0.2025 -0.0027
44315W        W45179  23.659  26.231  21.106 -0.0926 -0.0859  0.0681
44316W        W45180   9.611  19.727  11.865 -0.0944 -0.0057 -0.2311
44317W        W45181   3.290  25.454  23.383 -0.0682  0.1990  0.3072
44318W        W45182  21.832  23.734   3.590 -0.0742 -0.2007  0.1160
44319W        W45183  22.072  16.758  22.542 -0.0071 -0.2594  0.0496
44320W        W45184   2.149  16.910  13.603  0.1718  0.1600 -0.2244
44321W        W45185  14.368  28.704   7.124  0.2845 -0.2447 -0.2436
44322W        W45186   2.395   8.473  26.442  0.2606 -0.0138  0.0523
44323W        W45187   7.901  17.239  22.624 -0.0133  0.1815 -0.4112
44324W        W45188  18.224  15.052  26.420  0.0324 -0.3841  0.1577
44325W        W45189   7.710  18.842  24.700  0.0746  0.0670  0.0783
44326W        W45190  24.866  12.467  26.214  0.0510  0.3070 -0.0733
44327W        W45191   8.368  17.340   8.063 -0.0040 -0.0299 -0.2742
44328W        W45192   4.034  24.351  21.620  0.0950 -0.4545  0.1315
44329W        W45193  20.316  21.893  27.044 -0.2930  0.0529 -0.0701
44330W        W45194  23.337   7.619  12.528  0.1106 -0.0296  0.1221
44331W        W45195   8.260  16.843   5.806  0.0316 -0.0216 -0.0771
44332W        W45196  16.373  14.252  18.701  0.2244  0.4272  0.1154
44333W        W45197  14.255  27.204  17.790  0.0170 -0.0060  0.0818
44334W        W45198  19.103  17.555   3.274  0.3774  0.2888 -0.4837
44335W        W45199   9.496  17.325  26.971  0.1622  0.1756 -0.1236
44336W        W45200   1.189  26.195  28.697  0.2483  0.0253  0.0040
44337W        W45201  14.056  13.695   7.625 -0.0428 -0.1183  0.1603
44338W        W45202  25.082  22.194  20.832 -0.0550 -0.2594 -0.2517
44339W        W45203  24.620  25.309  14.302  0.1088  0.1313 -0.1502
44340W        W45204  12.781  18.727  22.027 -0.1105  0.4839  0.0832
44341W        W45205   5.815  14.882   0.110  0.1755 -0.2282 -0.1078
44342W        W45206  27.608   7.035  17.807 -0.1376 -0.0198  0.2876
44343W        W45207  16.935  15.334  14.366  0.2956 -0.1941  0.3746
44344W        W45208   6.201  22.039   5.521 -0.0726  0.2353 -0.0346
44345W        W45209  20.817  26.389  18.484  0.1077  0.0955  0.1322
44346W        W45210  15.295  19.655  13.394  0.1423  0.0175  0.2415
44347W        W45211  27.197  10.355  11.944  0.0764  0.0208  0.0345
44348W        W45212  25.210  22.094  29.077  0.0723 -0.4934 -0.0239
44349W        W45213   5.191   0.511  16.909  0.4060  0.0859  0.0393
44350W        W45214  21.062  25.223  28.521  0.3685 -0.0385  0.2351
44351W        W45215  28.545  19.574  17.400 -0.1804 -0.1536 -0.0025
44352W        W45216  19.833  13.209   2.870  0.1391  0.1296  0.2518
44353W        W45217  11.948   7.348  28.260 -0.0640 -0.0189  0.1612
44354W        W45218  28.556  16.184  10.158 -0.3239 -0.0312  0.1254
44355W        W45219  14.781  23.731  16.211  0.2396 -0.0660 -0.0021
44356W        W45220  27.933  22.245  25.113 -0.1904 -0.3132  0.0345
44357W        W45221   9.287  15.280   9.977 -0.0764 -0.1399  0.3042
44358W        W45222  26.203  10.457  22.245  0.1948 -0.0049 -0.0453
44359W        W45223   2.166   5.661   9.580  0.0649 -0.0595  0.0310
44360W        W45224  17.265  20.717  28.183 -0.0767  0.0115  0.2414
44361W        W45225  10.973  17.213   6.356 -0.1730 -0.1378  0.0409
44362W        W45226  21.803  22.820  18.660  0.1080 -0.4293 -0.0147
44363W        W45227   4.927  22.008   0.512  0.1394 -0.1706  0.0024
44364W        W45228  18.571  10.262  21.455  0.0276  0.2184 -0.1088
44365W        W45229   8.735   4.317  19.854  0.1130  0.1423 -0.1923
44366W        W45230  13.217   2.948  18.662  0.2167  0.2817  0.1959
44367W        W45231  14.162   6.264   2.261 -0.2142 -0.0559 -0.2016
44368W        W45232   5.330  26.883  11.152  0.3670  0.1005 -0.0356
44369W        W45233   9.794  11.915   2.310  0.0897 -0.2249  0.1973
44370W        W45234   0.313  14.876  20.515  0.0980  0.0163 -0.1518
44371W        W45235   3.767  25.881   5.361 -0.1240 -0.0422 -0.3134
44372W        W45236  12.699   2.840  17.944  0.2017 -0.1314 -0.0302
44373W        W45237  25.192   3.789   9.592 -0.0719 -0.2252  0.1858
44374W        W45238   8.911  14.053   7.523  0.0519  0.1707  0.0321
44375W        W45239   3.501  17.099  28.736 -0.1266  0.0381 -0.1161
44376W        W45240   0.128  15.790   9.447  0.3103 -0.0807  0.3683
44377W        W45241  16.816  10.809  25.253  0.0572  0.1873  0.0085
44378W        W45242  15.439  13.680  20.134 -0.3643  0.0921  0.0013
44379W        W45243  20.355  17.819  22.924  0.0086 -0.2750 -0.2544
44380W        W45244  28.575   0.490  10.010 -0.1012 -0.0003  0.1359
44381W        W45245  17.066  16.544  19.330 -0.0173  0.1161 -0.3393
44382W        W45246   8.472   8.193  25.032 -0.0855 -0.0181  0.0430
44383W        W45247  11.943   4.011   4.856  0.0772 -0.1312  0.1505
44384W        W45248   3.321  24.177   4.074 -0.0087 -0.2249 -0.3227
44385W        W45249   1.198   4.308   0.957  0.0602  0.0763  0.0467
44386W        W45250   1.020  25.328  24.177  0.1069 -0.0709  0.3356
44387W        W45251   9.822  13.419  19.997  0.0821  0.0862  0.0354
44388W        W45252   3.625  19.062   5.251 -0.2570 -0.0625 -0.0399
44389W        W45253  16.600   2.392  26.628 -0.0348  0.0048 -0.1349
44390W        W45254  26.830   8.352   0.780 -0.1145 -0.3851  0.0345
44391W        W45255   7.515  20.231   8.082 -0.2361 -0.1946 -0.0190
44392W        W45256  18.891  23.272   5.292 -0.0698  0.1223  0.3423
44393W        W45257  14.190   9.253  20.108  0.1764 -0.0889  0.0611
44394W        W45258  10.192   9.501   7.138 -0.2474  0.6237 -0.1869
44395W        W45259   7.994  28.146  17.006 -0.2463  0.1246 -0.0373
44396W        W45260   0.172  12.007   6.115  0.0379  0.1259 -0.0036
44397W        W45261   2.908  18.513  27.570  0.2247  0.2454  0.1984
44398W        W45262  14.041  23.896  13.680 -0.0623 -0.0336 -0.0750
44399W        W45263  26.781   9.520  28.933  0.0950  0.2800 -0.1250
44400W        W45264   4.288  19.168  23.881  0.0072  0.1630 -0.0939
44401W        W45265  11.820  17.092  27.664 -0.0947 -0.1511  0.1388
44402W        W45266  28.698  17.390   6.205  0.0726 -0.0747  0.1574
44403W        W45267  12.218   5.390  24.157  0.2124 -0.1457  0.0677
44404W        W45268   1.481  14.983  20.528 -0.2474 -0.4586 -0.0508
44405W        W45269  24.761  21.400  14.731  0.3497  0.2376  0.3069
44406W        W45270  23.086  19.168   8.835  0.0990  0.1597 -0.0520
44407W        W45271  15.600  13.226  14.691 -0.3433  0.0004 -0.2167
44408W        W45272  28.181  27.467   1.117 -0.2619  0.1103 -0.0617
44409W        W45273   9.520   0.622  19.940 -0.2908  0.0484 -0.2797
44410W        W45274   7.667  11.147  22.961  0.0218 -0.2974 -0.0344
44411W        W45275  10.576  25.949  19.385  0.0927  0.1867 -0.1613
44412W        W45276   1.794  22.656   5.637 -0.0012  0.0387  0.0387
44413W        W45277  26.796   5.555  22.851  0.1234  0.1085 -0.2443
44414W        W45278  12.740   2.225   6.621 -0.0632  0.1899 -0.2106
44415W        W45279   6.798   2.392  28.615 -0.2438  0.0241 -0.0747
44416W        W45280  28.747   2.836  26.277  0.0363  0.1219  0.2316
44417W        W45281   9.993  14.231  15.787  0.0641 -0.2338 -0.1043
44418W        W45282   3.137  25.688  12.863 -0.0628  0.1360 -0.2968
44419W        W45283  20.462  28.842  10.683 -0.1831  0.1475  0.0751
44420W        W45284  15.972   8.296  25.793 -0.0367 -0.1502  0.2072
44421W        W45285   9.320  27.091   7.866  0.0056 -0.2993  0.4316
44422W        W45286  28.884   3.404  17.431 -0.3726 -0.2373 -0.3255
44423W        W45287  26.887   1.804  20.984  0.3384 -0.1464 -0.1090
44424W        W45288  25.690   0.975  23.123 -0.1264 -0.0913 -0.1888
44425W        W45289  26.587  25.212  16.900 -0.1122 -0.0848  0.1147
44426W        W45290   7.851  22.237  24.903 -0.0215  0.1393 -0.2395
44427W        W45291  10.773  12.295   5.916  0.1432 -0.4957  0.2326
44428W        W45292  29.018   0.192   0.728  0.1087 -0.2038 -0.0472
44429W        W45293  22.568  17.017  18.706  0.0445 -0.1316  0.1837
44430W        W45294   6.796  14.919  22.480 -0.2087 -0.2578 -0.0441
44431W        W45295   3.886   5.910   2.646  0.0555  0.3203  0.0979
44432W        W45296  15.763  20.246  28.902  0.1182  0.1162 -0.0208
44433W        W45297   6.957  26.226  20.380  0.0936  0.1456  0.1663
44434W        W45298   6.728  11.279  14.787 -0.1061  0.0650 -0.2988
44435W        W45299   1.270  18.904  20.321  0.4088 -0.2341  0.2151
44436W        W45300  13.032  18.807  14.217 -0.2612  0.0044 -0.0776
44437W        W45301  26.962  15.072  25.868  0.0990  0.1713 -0.0936
44438W        W45302  26.651  26.473  16.648  0.0459 -0.2124 -0.0728
44439W        W45303   0.949  20.043   9.876 -0.1570  0.0059 -0.0299
44440W        W45304   1.123   4.476  22.573 -0.1226 -0.1322 -0.1768
44441W        W45305   5.216   0.764  24.364  0.2177  0.2044  0.4071
44442W        W45306  27.160   7.952  15.422 -0.0318 -0.0842  0.0238
44443W        W45307  15.986  20.005  27.262  0.0468  0.1868  0.2890
44444W        W45308   6.214  10.673  24.973  0.0410  0.0082 -0.0966
44445W        W45309   6.467  26.134  20.689  0.0764 -0.0524 -0.2091
44446W        W45310  28.021   5.349  26.066  0.1179  0.1447 -0.3512
44447W        W45311  18.978  22.110   3.871 -0.0776 -0.1118 -0.0555
44448W        W45312  13.995  18.166   7.868 -0.1281 -0.0414  0.1615
44449W        W45313  27.040  15.542  17.149 -0.0048  0.1375 -0.1030
44450W        W45314  24.932  13.720  20.737  0.0996 -0.0048  0.0038
44451W        W45315   7.472  26.415  27.337 -0.2198 -0.1444  0.3686
44452W        W45316  28.513  28.975  20.535  0.2010  0.2352 -0.0314
44453W        W45317  10.556  18.636   1.361 -0.0851  0.2280 -0.0933
44454W        W45318  20.109  20.388  23.463 -0.1085  0.1801 -0.0499
44455W        W45319  27.482  28.761   8.868 -0.1337  0.1677  0.2066
44456W        W45320   4.378  28.661  10.306  0.2635 -0.0107 -0.3520
44457W        W45321  10.467  12.128  21.741 -0.0661  0.0446 -0.2813
44458W        W45322   3.073   8.970   8.670  0.1209  0.1799  0.0468
44459W        W45323   9.519  24.245   1.511 -0.0455  0.3097 -0.0422
44460W        W45324  25.681  20.807  11.960  0.0475  0.1106 -0.1194
44461W        W45325   6.543  19.940  10.466  0.0580 -0.1605 -0.2513
44462W        W45326   6.292   2.910  23.990 -0.0239  0.1200  0.0588
44463W        W45327  28.388   6.697   0.078 -0.0349  0.1454 -0.0085
44464W        W45328   4.021   0.442  23.772 -0.2412 -0.1664  0.2638
44465W        W45329  13.441  16.794   9.659  0.3606  0.0711  0.1195
44466W        W45330  22.572   7.189   5.218 -0.1141  0.0841  0.3662
44467W        W45331   7.932   5.880  23.461  0.2053 -0.2697  0.0209
44468W        W45332   6.000  23.386   7.160  0.0418 -0.0612 -0.0608
44469W        W45333   8.693  15.465  11.333 -0.2340  0.0451 -0.3467
44470W        W45334  15.048  15.200   8.192  0.1481  0.4692 -0.2282
44471W        W45335  15.108  10.574  27.921 -0.5068 -0.0179 -0.1807
44472W        W45336  27.395  28.240   8.779 -0.0454  0.1043  0.1965
44473W        W45337  27.726  24.326  13.760 -0.1503 -0.1125 -0.0353
44474W        W45338  23.301   9.056   0.770 -0.0560  0.0608 -0.2002
44475W        W45339  29.000  18.858  15.276  0.0963  0.1287  0.1432
44476W        W45340  12.342  10.666  21.672 -0.1095 -0.0585  0.1260
44477W        W45341   5.981  12.938   7.361 -0.0817 -0.1020 -0.1642
44478W        W45342  23.890  22.093   9.101 -0.4270  0.4251  0.1181
44479W        W45343   4.357  18.014  16.404 -0.2175 -0.0301  0.0629
44480W        W45344   3.441   5.967  20.926 -0.1473 -0.0315 -0.0626
44481W        W45345   7.945  24.768  19.973 -0.1243 -0.3076 -0.1567
44482W        W45346   8.765   1.150  22.098 -0.5059  0.3814 -0.2505
44483W        W45347   7.977  16.643   6.474 -0.0630 -0.1037 -0.1210
44484W        W45348   5.624  20.787   9.733 -0.0116  0.0167  0.0169
44485W        W45349   2.553  25.218  11.372 -0.1522 -0.0371 -0.0734
44486W        W45350  12.197  13.877  23.031  0.2955  0.0865  0.3303
44487W        W45351  28.678  16.527  14.073  0.0903  0.1504  0.0237
44488W        W45352   7.922   0.773  18.063  0.2897 -0.1848 -0.0696
44489W        W45353  12.853  16.674  17.856 -0.1865  0.0476 -0.3438
44490W        W45354  14.826  22.909  11.736 -0.1103 -0.3217  0.0309
44491W        W45355   8.825   6.725   0.227 -0.0376 -0.0782 -0.0990
44492W        W45356   2.192  13.230   6.940 -0.1553 -0.2277  0.2237
44493W        W45357   9.849  19.949   0.224  0.1565 -0.0573  0.1914
44494W        W45358  11.396  28.676  13.453 -0.0957 -0.1659  0.0749
44495W        W45359  13.323   4.453  25.834  0.2330 -0.1347  0.1506
44496W        W45360   1.316  10.586   8.150 -0.0036  0.0298  0.0462
44497W        W45361   5.189   6.256  23.880  0.1847 -0.0363 -0.1008
44498W        W45362   6.933  25.968  24.625  0.1088 -0.1360  0.0654
44499W        W45363  24.734  14.355  15.190 -0.0867 -0.0826 -0.4250
44500W        W45364   1.336  20.421  16.225  0.3574 -0.1444 -0.2260
44501W        W45365   3.984   7.231  10.212  0.0906 -0.1134  0.0200
44502W        W45366  27.654  12.695  21.350 -0.1497  0.1147  0.2227
44503W        W45367   8.721  16.600  15.465 -0.2837 -0.3391  0.3881
44504W        W45368   5.628  26.774   1.423 -0.1942 -0.0449  0.1056
44505W        W45369  12.769  19.907  24.226  0.0255  0.1658  0.1858
44506W        W45370  16.458  19.782  10.092 -0.0120 -0.0919  0.1604
44507W        W45371   3.993   0.594  21.957 -0.2658  0.1807 -0.3997
44508W        W45372  18.520  11.099  19.369 -0.1434 -0.1450 -0.0363
44509W        W45373  24.228  14.888  22.388  0.1205  0.4671 -0.1016
44510W        W45374  28.075  21.933  21.410 -0.0222  0.0929  0.0376
44511W        W45375   1.311  10.988  11.109  0.2316  0.1603  0.1629
44512W        W45376   6.458   8.787   4.230  0.1011 -0.0618 -0.1906
44513W        W45377   2.579  13.702   2.531  0.1412  0.1018  0.0940
44514W        W45378   0.735  19.887  27.217 -0.0262 -0.0275 -0.0024
44515W        W45379  24.565   1.055  21.205 -0.2192  0.2270 -0.2002
44516W        W45380  17.869  21.427   2.055 -0.1419  0.2363  0.2378
44517W        W45381  22.160  28.147  19.524 -0.0848  0.0545 -0.2091
44518W        W45382  10.307  10.615  10.426 -0.0274  0.0594  0.0660
44519W        W45383   2.185   4.994  26.613 -0.2716  0.0632 -0.0284
44520W        W45384   5.544  27.941  15.889 -0.3338 -0.0338 -0.1599
44521W        W45385  13.469  10.944   1.706 -0.0795  0.3008  0.0293
44522W        W45386   8.430  24.937  18.077  0.1557 -0.3280  0.0716
44523W        W45387  19.702  23.745  27.658  0.2495  0.0620  0.1815
44524W        W45388   4.180  11.470   5.938  0.1243  0.1850  0.0239
44525W        W45389   3.381   0.997  12.312 -0.1194  0.3681 -0.0456
44526W        W45390  15.835   1.980   2.763  0.0225  0.1053  0.1141
44527W        W45391  10.228   0.800  19.334  0.0816 -0.1273  0.2652
44528W        W45392  20.872   4.890   2.055 -0.3859 -0.1787 -0.0946
44529W        W45393  10.656  20.062   2.146 -0.0151  0.1782 -0.0753
44530W        W45394  18.797  15.569  19.423  0.1168  0.0195  0.0486
44531W        W45395   1.437  11.293  23.341 -0.1566  0.1266 -0.0728
44532W        W45396  15.435  19.971  14.962 -0.4001  0.0543 -0.1875
44533W        W45397  25.384  23.657  24.860 -0.1415  0.2042 -0.0079
44534W        W45398   0.667   0.906   1.515 -0.0235  0.3853  0.0436
44535W        W45399  19.890  14.835   4.696  0.0609  0.0747 -0.0245
44536W        W45400  17.127  15.984  26.582 -0.2972  0.0282 -0.4041
44537W        W45401   0.283  24.334   6.266 -0.4277 -0.0379 -0.1140
44538W        W45402  15.727   5.987   0.332  0.1201  0.0350 -0.2074
44539W        W45403  27.757  19.313   0.324 -0.0554  0.1181  0.0152
44540W        W45404  14.914   4.338  19.732  0.4847  0.1014 -0.2901
44541W        W45405  18.916   1.065   4.061 -0.0652  0.1258  0.2638
44542W        W45406   4.015   0.825   1.998  0.0569  0.3442  0.0125
44543W        W45407   2.489  14.564  25.940  0.0027  0.2987 -0.0416
44544W        W45408  10.594   8.757  14.961  0.4596  0.4207 -0.4262
44545W        W45409  20.744   3.143   0.162 -0.0703  0.0973  0.0080
44546W        W45410   8.522  16.607  20.710  0.1026 -0.0167  0.0865
44547W        W45411  10.504  17.862  28.536  0.2036 -0.0998  0.0659
44548W        W45412  19.450  16.644  11.553 -0.0591  0.1745  0.0767
44549W        W45413  27.376  12.323  26.935 -0.1464 -0.1134  0.2289
44550W        W45414   3.200   0.196   1.792  0.5171 -0.1951 -0.1872
44551W        W45415  11.309  19.946  15.303 -0.1094 -0.1722 -0.2164
44552W        W45416   4.225  25.775  12.135  0.1378 -0.0356 -0.2295
44553W        W45417  26.299   0.013  12.166 -0.2335 -0.1945 -0.0468
44554W        W45418  10.017  22.421  19.943  0.0742  0.3252 -0.0352
44555W        W45419  29.048  25.542  12.754  0.2565 -0.4720 -0.1871
44556W        W45420   9.215  20.281  26.144  0.0417  0.2538 -0.0405
44557W        W45421  19.408   6.519  26.669  0.1418  0.1349 -0.1065
44558W        W45422   3.689  14.014  28.595  0.1046 -0.0123 -0.3262
44559W        W45423   4.258  23.007  14.824  0.1947 -0.2426 -0.4158
44560W        W45424  18.990  16.996  26.666  0.0181 -0.0990  0.4092
44561W        W45425  16.636  22.407  10.437  0.2450 -0.1534  0.0961
44562W        W45426   9.001  28.529  26.800 -0.1097  0.2625  0.1882
44563W        W45427  25.212  18.991  26.549  0.0787  0.1838  0.1618
44564W        W45428   4.592  15.185  27.053 -0.2862  0.1004 -0.2720
44565W        W45429  26.973   7.847  29.024 -0.1265 -0.0367 -0.1362
44566W        W45430  12.810  21.257  14.679  0.0185  0.2234  0.1388
44567W        W45431  26.660   6.865  22.344  0.2164 -0.0101 -0.0345
44568W        W45432  22.498  18.164  15.068  0.1295 -0.0541  0.0995
44569W        W45433  15.773  13.407  14.082  0.0325 -0.1093 -0.3760
44570W        W45434  21.563  12.876  27.676 -0.2814  0.3302  0.0568
44571W        W45435   2.757  25.047   8.692 -0.3156  0.2949 -0.1863
44572W        W45436  10.508  15.785   1.052 -0.0605 -0.1255  0.0669
44573W        W45437  15.534  18.451  27.722  0.0200 -0.3808  0.0182
44574W        W45438  26.245  16.357  24.685 -0.0682 -0.4160 -0.1176
44575W        W45439   2.463  24.191  17.624  0.0121  0.3168  0.0505
44576W        W45440   2.615  25.723  25.619  0.1772  0.0814 -0.0974
44577W        W45441   2.187  19.493  23.752  0.2011  0.4015  0.2811
44578W        W45442  20.755  16.027   6.876  0.3417 -0.1014 -0.0781
44579W        W45443   1.408  14.054  12.968 -0.0764 -0.1745  0.3106
44580W        W45444  26.567   5.512  10.048 -0.1700 -0.1472  0.1419
44581W        W45445  18.405  15.203  19.152  0.2212 -0.2412  0.0173
44582W        W45446  25.783  11.292  22.421 -0.1460  0.0537  0.0513
44583W        W45447  12.631  19.633  17.974 -0.1820  0.3589  0.2238
44584W        W45448   3.151  25.900  23.826 -0.0372  0.3594  0.3987
44585W        W45449   6.893   4.622  13.139  0.1680 -0.1226  0.0449
44586W        W45450   2.962  16.624  23.096 -0.1937  0.2038  0.1295
44587W        W45451  19.355  19.363  11.585 -0.0074  0.2554 -0.0161
44588W        W45452   6.218  27.093  19.918  0.1660  0.1770 -0.0242
44589W        W45453   7.697  26.295  22.018  0.1602 -0.1015 -0.0566
44590W        W45454   7.094  13.794  16.309  0.1654  0.3009  0.0537
44591W        W45455  13.829  20.884  11.271 -0.0282  0.1909 -0.1053
44592W        W45456  15.756  25.359  24.415  0.2792  0.1814  0.0628
44593W        W45457   9.682  27.510  27.368  0.0079  0.0197 -0.0791
44594W        W45458   7.101  19.531  10.974  0.4607  0.2195 -0.0757
44595W        W45459  11.387   4.208   4.148  0.1308 -0.0212  0.1591
44596W        W45460   2.598  27.698  15.792  0.2125 -0.2093 -0.0072
44597W        W45461   2.211   2.706  21.241  0.1779 -0.2659 -0.0898
44598W        W45462   6.641  19.242   3.295 -0.0263 -0.1874 -0.2360
44599W        W45463  21.431  17.451  26.708 -0.3687  0.0668 -0.0206
44600W        W45464  24.846   1.411  27.546  0.4506  0.0136  0.2897
44601W        W45465  13.047  21.867  29.083 -0.1916  0.0829  0.2462
44602W        W45466   1.217  13.501  17.965 -0.1620  0.2279  0.0738
44603W        W45467   2.149  10.206   6.276 -0.0178  0.1175  0.1516
44604W        W45468  27.145  17.663   5.641 -0.0056 -0.0513 -0.0095
44605W        W45469   1.144  11.267  20.041  0.2273 -0.3279  0.0102
44606W        W45470  16.232  18.103  15.234  0.1446  0.0426 -0.0655
44607W        W45471  26.192  23.388  28.869 -0.2095  0.0926 -0.1574
44608W        W45472   9.635  26.134  13.791  0.0299 -0.1438  0.1760
44609W        W45473  23.398  14.826  19.766 -0.2009  0.1283 -0.0491
44610W        W45474   4.044  23.578  20.383 -0.0456 -0.2343  0.2494
44611W        W45475  27.578  17.523  16.443  0.2958  0.0085 -0.1632
44612W        W45476  24.428  17.138  26.349 -0.2094 -0.0456  0.0615
44613W        W45477  14.623  21.732  23.778 -0.0927  0.0330  0.1125
44614W        W45478  16.118   7.491   7.825  0.1389 -0.0456 -0.1343
44615W        W45479   9.895  17.953  27.531 -0.0461 -0.2185 -0.0454
44616W        W45480  28.275   1.029   6.571 -0.1437  0.1419 -0.0119
44617W        W45481   8.519  25.415  22.155 -0.0684 -0.3869 -0.0864
44618W        W45482   6.282  16.649  25.429 -0.1987 -0.4598 -0.2712
44619W        W45483  25.358  18.885  14.494 -0.1988  0.2387  0.2177
44620W        W45484  25.747   0.395  28.068  0.1078  0.1197 -0.1314
44621W        W45485  18.620   2.615  14.538  0.2937 -0.0983  0.0735
44622W        W45486  20.381  17.649  19.796 -0.0656 -0.1206 -0.1457
44623W        W45487   0.147  11.689  26.113  0.5748  0.1426 -0.1548
44624W        W45488  25.770  20.627  12.937 -0.0605  0.2081 -0.1288
44625W        W45489   6.361   1.602   5.822 -0.0677 -0.0324 -0.1308
44626W        W45490   9.164   2.112  16.633 -0.0454  0.0045 -0.0342
44627W        W45491  23.307   0.031  28.914 -0.2224 -0.1839 -0.1884
44628W        W45492   2.252   4.831  27.071  0.0402 -0.0691 -0.0823
44629W        W45493   9.013  12.337   9.993  0.1355 -0.0017  0.0410
44630W        W45494  10.417  21.561  26.416 -0.0450  0.0821  0.0955
44631W        W45495  25.137   5.444  23.206 -0.0824  0.2728 -0.0078
44632W        W45496  13.174  16.601  14.911  0.4185  0.1609  0.0901
44633W        W45497   3.125  14.631   9.532  0.0089  0.2201 -0.1828
44634W        W45498   8.541   9.391  17.812 -0.0121 -0.0202  0.2623
44635W        W45499   3.575  22.856  28.803  0.2672  0.1108 -0.1254
44636W        W45500   4.775  23.362  22.486  0.1915  0.0545  0.0898
44637W        W45501  24.234  10.507   6.992 -0.0560 -0.0560  0.1860
44638W        W45502  16.052  17.350   4.424  0.1425  0.0904  0.0400
44639W        W45503   6.103   2.493  24.325  0.0413 -0.0362  0.2833
44640W        W45504  17.708  23.678  22.731  0.1154 -0.1892 -0.0942
44641W        W45505   4.247   9.429  15.609 -0.1056 -0.3372  0.0748
44642W        W45506   4.788   9.792   9.795 -0.0903  0.1591 -0.2418
44643W        W45507  24.044  19.141   8.029 -0.2597  0.0001 -0.0737
44644W        W45508  21.715  11.818  19.109  0.2101 -0.0475  0.1581
44645W        W45509  21.236  21.128   0.611  0.2321  0.2330  0.1287
44646W        W45510   3.873  12.602  23.835  0.0168 -0.0584  0.0975
44647W        W45511  11.661   5.512  11.028  0.0373  0.1017 -0.0294
44648W        W45512   4.609  27.626  23.839 -0.1445  0.1352  0.1503
44649W        W45513  10.837  24.429  13.678  0.0611  0.1612 -0.1507
44650W        W45514   0.200  22.923   4.324  0.0866 -0.0400 -0.0974
44651W        W45515   3.530  23.669   3.302 -0.0431 -0.3186 -0.1183
44652W        W45516  11.690  11.961  26.755  0.4499 -0.0537 -0.0957
44653W        W45517  21.422   0.484  19.042  0.0267 -0.0305  0.2041
44654W        W45518   6.508  16.944  20.707 -0.0606 -0.1035  0.0602
44655W        W45519   3.477  20.328  12.083 -0.0551 -0.1257 -0.0442
44656W        W45520   5.258  15.843   5.675 -0.2351 -0.3999  0.0706
44657W        W45521   9.427   1.499   8.623  0.2232 -0.2921  0.2387
44658W        W45522  26.455  15.073  25.265 -0.1888 -0.2450  0.2764
44659W        W45523  13.319  19.781   1.386  0.2057 -0.0619 -0.3134
44660W        W45524   5.768  20.505   0.002  0.0389 -0.0375 -0.2785
44661W        W45525  15.499  17.700  26.876 -0.1129  0.3265  0.1738
44662W        W45526  19.160  20.671   0.166  0.0444 -0.0916 -0.2264
44663W        W45527  24.652  22.232  25.189 -0.1587  0.0158  0.3434
44664W        W45528  21.082  15.483   3.477 -0.0526  0.0830  0.2449
44665W        W45529   3.482   3.253  26.384 -0.0028  0.1455  0.1860
44666W        W45530   6.688  13.569  26.615 -0.0900  0.1631  0.1051
44667W        W45531  28.776  26.994  14.975  0.2084  0.1636 -0.0367
44668W        W45532  10.751  11.689  11.933  0.0093  0.2744 -0.2776
44669W        W45533  14.472  25.144   5.294  0.0919 -0.0687 -0.1097
44670W        W45534  28.440  10.597   1.727 -0.0980 -0.1212  0.0632
44671W        W45535  20.031  22.978  16.543  0.1645 -0.0303 -0.0598
44672W        W45536   6.305  13.502   0.720  0.0644  0.4575  0.1797
44673W        W45537  20.809   6.341  23.333 -0.1710  0.1393 -0.2075
44674W        W45538  20.094  13.160  11.256  0.0592 -0.1609 -0.0437
44675W        W45539   1.410  19.177   5.323  0.1065  0.1663 -0.1305
44676W        W45540  14.727  20.128  24.630 -0.1020  0.0130  0.0502
44677W        W45541   5.245  18.323  11.026  0.1648  0.0281 -0.2771
44678W        W45542  26.851  19.963   7.206  0.1271 -0.1022  0.2644
44679W        W45543  16.610   6.284   2.242 -0.3835  0.1513  0.0629
44680W        W45544  22.135   8.348  27.407  0.1384  0.1309  0.0132
44681W        W45545  17.999  25.804  26.194  0.1302  0.0673 -0.2474
44682W        W45546  14.707  24.018  10.337  0.2371 -0.0491 -0.2424
44683W        W45547   3.373   5.236   0.970  0.2686  0.0010  0.2054
44684W        W45548   2.677  19.381  16.630  0.1307 -0.1888  0.2640
44685W        W45549   5.681  22.053   9.436  0.2539 -0.2244  0.0292
44686W        W45550  22.875  25.064   2.488 -0.0362  0.1730  0.1532
44687W        W45551   0.560  23.165  15.179 -0.0179 -0.0186 -0.0974
44688W        W45552   5.591  22.728  28.202  0.1223 -0.1880 -0.1493
44689W        W45553  24.931  19.440  18.656 -0.1343  0.0711  0.1240
44690W        W45554  18.657   2.965   3.447 -0.3523  0.3269  0.0891
44691W        W45555   4.896  25.993  16.741  0.0126 -0.1568 -0.0224
44692W        W45556   8.793  10.743  19.208  0.1102 -0.0370  0.0991
44693W        W45557  20.656  11.674  18.952 -0.0906  0.0780  0.0423
44694W        W45558   8.618   3.401  22.312  0.2397  0.1200  0.2450
44695W        W45559  13.766  24.042   1.233 -0.0083 -0.1543 -0.0780
44696W        W45560  26.273  17.546  20.618 -0.0888 -0.3310 -0.0311
44697W        W45561  17.435  17.155  21.504  0.3214 -0.0802 -0.0716
44698W        W45562   8.584  16.893   6.602  0.1799 -0.1364 -0.2861
44699W        W45563  10.312  10.958  25.761 -0.1700 -0.3178  0.2598
44700W        W45564  15.191  25.787   5.943 -0.2139  0.2575  0.0058
44701W        W45565   9.868  18.090  15.848  0.1145 -0.2896 -0.0011
44702W        W45566   0.007  11.619  24.758 -0.1644  0.0417  0.1423
44703W        W45567   9.423   0.206  28.552  0.0777 -0.0598 -0.0237
44704W        W45568   9.722   5.069   3.929  0.1160 -0.2002  0.3102
44705W        W45569  17.542   3.993  20.864 -0.1950  0.2599  0.3686
44706W        W45570  29.125  10.628  21.528 -0.1549 -0.0888  0.0534
44707W        W45571  12.644  23.521   0.462  0.2607  0.0534 -0.1431
44708W        W45572  10.805  22.619  17.590 -0.0966  0.0823  0.1271
44709W        W45573   5.950  24.388  13.808 -0.0310  0.0994 -0.0352
44710W        W45574  26.649   3.022   9.714 -0.0942 -0.0467  0.1326
44711W        W45575  25.780  20.722  27.833  0.3023  0.0528  0.1315
44712W        W45576   4.601   6.978  11.808 -0.1336 -0.1224 -0.0005
44713W        W45577  14.591  23.724  26.083  0.2555  0.0244  0.6020
44714W        W45578  28.923  16.759   9.331  0.1579  0.1464 -0.0844
44715W        W45579  14.399  25.905  15.817 -0.0488  0.0573 -0.1188
44716W        W45580   3.561  25.074  24.084  0.0816 -0.1653 -0.2397
44717W        W45581  25.695  17.693  12.289  0.0708 -0.0382 -0.4739
44718W        W45582   6.510  10.658  23.671 -0.2245  0.1250  0.0944
44719W        W45583   6.506  21.395   5.674 -0.1062  0.2165  0.0095
44720W        W45584   2.057  11.584  29.135  0.1912 -0.2563 -0.1835
44721W        W45585   4.301  10.796  24.284 -0.1590 -0.1198  0.1967
44722W        W45586  25.092  17.738  14.278  0.1126  0.1605  0.1047
44723W        W45587   9.248  13.989  24.708 -0.1084 -0.3303  0.1744
44724W        W45588   4.355   1.558  25.112  0.0391  0.4698 -0.0136
44725W        W45589  10.050  24.690  17.625  0.1233  0.3045  0.0787
44726W        W45590  28.256  16.623   4.045  0.0862  0.3043 -0.3127
44727W        W45591   5.714  11.873  20.250  0.2401  0.1180 -0.0432
44728W        W45592   1.267  26.755  24.345 -0.0316 -0.2013 -0.2363
44729W        W45593  21.615  18.657   4.996  0.1024  0.0024  0.0572
44730W        W45594  26.255  26.039  26.280 -0.0155 -0.0090 -0.1028
44731W        W45595   6.851   6.201   3.163 -0.2545 -0.0757 -0.0054
44732W        W45596   2.609   0.295   1.189  0.2504  0.1760 -0.3100
44733W        W45597   7.882   5.811  24.713  0.1053  0.1251 -0.1990
44734W        W45598  21.611   2.637  18.122 -0.1827 -0.0372  0.1022
44735W        W45599  11.138  25.941  20.896  0.1092 -0.1914 -0.1403
44736W        W45600  27.227  23.174  25.644 -0.2866 -0.0412  0.0476
44737W        W45601   9.435  14.919  25.059  0.0588  0.1576 -0.0218
44738W        W45602  16.944  22.270  20.534 -0.1577  0.1548  0.5454
44739W        W45603  23.730  26.457  19.948  0.1632 -0.3637  0.1490
44740W        W45604  11.676  26.943  22.389  0.0268  0.0299 -0.0501
44741W        W45605  15.654   7.074  24.265 -0.0112  0.0270  0.1991
44742W        W45606  10.316  27.154  13.376  0.2464  0.0128  0.1509
44743W        W45607  22.377  20.574  19.963 -0.2035 -0.0765 -0.0710
44744W        W45608   5.500   7.841   8.159  0.2470 -0.1270 -0.0749
44745W        W45609  19.659   7.160  24.148 -0.3720 -0.2363  0.0708
44746W        W45610   5.477   5.570   9.963 -0.2427 -0.1409 -0.0014
44747W        W45611  10.724  11.518  11.407 -0.3831  0.0944 -0.2195
44748W        W45612  24.063  15.554  25.397  0.0295 -0.0156 -0.0136
44749W        W45613  14.233  24.322   4.251 -0.1570  0.1068 -0.0320
44750W        W45614  27.401  25.832  23.075 -0.2312 -0.1868  0.0828
44751W        W45615  23.289   3.111  10.061  0.0245  0.0659  0.1249
44752W        W45616   9.434  18.181  20.997  0.4354  0.1527  0.3698
44753W        W45617   3.175  13.033   4.756  0.0704 -0.0992  0.1665
44754W        W45618  23.529  26.698  10.903 -0.1565 -0.0586 -0.1010
44755W        W45619   7.533  28.407  25.158 -0.2099  0.3042  0.3656
44756W        W45620   2.509   0.325   7.937  0.0486 -0.1544  0.0718
44757W        W45621   2.887  10.005  28.370 -0.0254  0.0858  0.1830
44758W        W45622   1.364  13.962  21.756 -0.2314  0.0481 -0.1244
44759W        W45623  27.242  19.750  24.975 -0.2712 -0.0641 -0.0685
44760W        W45624  26.018  24.802  28.606 -0.0122  0.0341  0.0530
44761W        W45625  13.805   0.431  10.066  0.0257 -0.3864 -0.1782
44762W        W45626  16.478  19.564   7.128  0.1171 -0.0667 -0.0037
44763W        W45627  11.524  21.948  16.764  0.0440 -0.0037 -0.2004
44764W        W45628  27.768  11.958   5.522 -0.1445 -0.0285 -0.1188
44765W        W45629  10.537  21.843  18.238  0.2133 -0.1750  0.1652
44766W        W45630  26.967  14.401   1.344 -0.0209  0.1611  0.0401
44767W        W45631  24.181  23.489   3.434 -0.3071 -0.1755 -0.1124
44768W        W45632  28.319  26.626   1.491  0.2232  0.3743  0.0017
44769W        W45633  16.004  29.098  21.245  0.3049  0.2906  0.1992
44770W        W45634  13.736  12.629  27.507  0.1931 -0.1158 -0.4417
44771W        W45635  15.237  21.954  10.340  0.0775  0.0766 -0.2802
44772W        W45636  21.377  28.556  13.749 -0.1385  0.2516  0.4177
44773W        W45637  27.137  21.321  13.849 -0.0090  0.0951 -0.1849
44774W        W45638  11.287  21.251   1.729  0.0007  0.1200  0.4487
44775W        W45639  11.914  24.439   0.543  0.2344  0.4502  0.2511
44776W        W45640  20.382   1.814   5.864  0.1024 -0.0276  0.0455
44777W        W45641   7.246  20.504  26.315  0.3151  0.1095 -0.2443
44778W        W45642   0.167   3.173   5.967  0.1902  0.1043 -0.0238
44779W        W45643  28.820  19.393  12.316 -0.2761  0.0001  0.0552
44780W        W45644  11.362  21.458  25.541 -0.2191 -0.0429 -0.1490
44781W        W45645  27.452   4.740  20.681 -0.0908  0.1490  0.2871
44782W        W45646  21.822  10.625  18.785  0.1211  0.0596 -0.1218
44783W        W45647  20.009   0.851  26.708  0.2328  0.0279  0.0754
44784W        W45648  11.367  16.122  24.801 -0.1097 -0.0909  0.1152
44785W        W45649   4.026  16.350   6.733  0.0795 -0.3837  0.0577
44786W        W45650  19.467  16.537  24.119 -0.0934  0.0076 -0.0927
44787W        W45651  17.384  18.414  17.114 -0.3692  0.1159 -0.1670
44788W        W45652   9.243  18.713   6.913 -0.3397  0.0695 -0.1332
44789W        W45653  21.139   3.033  26.344  0.2328  0.3116 -0.0027
44790W        W45654  18.219   2.989  23.587 -0.1802 -0.0751 -0.1248
44791W        W45655   3.058  22.823  15.217 -0.0555  0.0424 -0.1110
44792W        W45656  24.156  28.684   3.142  0.2647 -0.2869  0.1215
44793W        W45657  13.382  23.621   0.941  0.2174  0.0526  0.2441
44794W        W45658  15.655  12.508  13.743  0.0455 -0.0963 -0.4100
44795W        W45659  14.706   6.781  20.934 -0.2425 -0.0623 -0.0095
44796W        W45660  21.522  25.941  14.513 -0.1578 -0.1506 -0.1233
44797W        W45661   4.625   9.685   9.312  0.0286 -0.3044 -0.2949
44798W        W45662   2.590   0.669   8.313  0.1943  0.0466 -0.0687
44799W        W45663   1.654  15.693  27.794  0.0271 -0.0063 -0.1883
44800W        W45664  18.188  10.556   0.495 -0.2619  0.1700 -0.2654
44801W        W45665   5.905  14.425   3.025  0.1788  0.0274  0.0055
44802W        W45666  13.119   7.077   1.357 -0.0925  0.0409 -0.1493
44803W        W45667   3.842  20.739  18.965  0.0634 -0.0438 -0.0609
44804W        W45668  11.263  16.979   5.389 -0.3237 -0.2208 -0.1768
44805W        W45669  11.415  23.667  21.156 -0.1470  0.1398 -0.1660
44806W        W45670   1.251   1.388   8.006 -0.2619  0.0792  0.0012
44807W        W45671  21.596  19.381  18.368 -0.2202 -0.3408 -0.1577
44808W        W45672   3.032  22.040  26.769 -0.0705 -0.1951 -0.2341
44809W        W45673  12.975  22.992   5.326  0.0695  0.1181 -0.1774
44810W        W45674  26.604  24.021  25.329 -0.0213  0.0340  0.0222
44811W        W45675  19.177  12.172  23.227 -0.1615  0.1931  0.0947
44812W        W45676   2.077  21.620   9.671 -0.0529  0.0525 -0.2023
44813W        W45677   8.891  19.936   7.607 -0.0018  0.0496 -0.3027
44814W        W45678   9.186   3.722  16.490 -0.1065 -0.2100 -0.2535
44815W        W45679   2.732  12.303   0.998  0.2178  0.1967 -0.2301
44816W        W45680  17.174  20.647  17.967 -0.0944 -0.4177 -0.0386
44817W        W45681  16.027  21.104  22.589 -0.3708  0.1938 -0.1250
44818W        W45682   9.511   7.956   0.493  0.2534 -0.3091 -0.4067
44819W        W45683   5.972   5.496   4.230  0.2078 -0.3507  0.0915
44820W        W45684  28.228  27.434   1.968  0.0652  0.2610 -0.4906
44821W        W45685  27.339  29.031  27.827 -0.0037  0.0762  0.1704
44822W        W45686  23.746  13.397  24.323  0.1805  0.2158  0.0449
44823W        W45687  26.878   7.847  13.224 -0.0944  0.0469 -0.2307
44824W        W45688  11.279  26.659  24.376 -0.2392 -0.1515 -0.0899
44825W        W45689   5.979  23.431  25.159  0.3164  0.2729  0.0318
44826W        W45690   5.833  27.632  21.401 -0.1374 -0.1007 -0.0110
44827W        W45691   9.442  23.530  23.287  0.1864 -0.2245 -0.0650
44828W        W45692  10.088   5.651  19.017 -0.0710 -0.1561  0.1598
44829W        W45693   9.433   1.394  13.445  0.2332  0.1498 -0.2515
44830W        W45694   1.524  17.107   1.636  0.0077 -0.2695 -0.1312
44831W        W45695   4.233   1.569  16.342  0.2368 -0.0344  0.2904
44832W        W45696  25.910  28.342  25.111  0.8451 -0.0079 -0.0133
44833W        W45697  28.551   9.166  22.708  0.2026  0.1004 -0.0207
44834W        W45698   5.521   9.930   6.461 -0.1983  0.1954  0.3708
44835W        W45699  13.274  20.815  15.284  0.1683  0.2268 -0.1173
44836W        W45700  16.302  22.591  20.083  0.2926 -0.1133  0.0942
44837W        W45701  15.354  14.651  20.424  0.1187  0.2696  0.2416
44838W        W45702  20.859   2.768   8.944 -0.0751 -0.0108 -0.0961
44839W        W45703  28.264  21.322   8.187  0.0525 -0.1299 -0.3506
44840W        W45704   8.488  27.693  11.474  0.0070  0.0387  0.2067
44841W        W45705  12.528  13.100  28.704  0.0183 -0.1050 -0.2667
44842W        W45706  26.816  20.043   7.688 -0.0748  0.3326  0.2879
44843W        W45707   6.448  26.500   9.095  0.1700  0.0548 -0.0806
44844W        W45708  18.323  17.787  16.695  0.1028  0.2108  0.2711
44845W        W45709  25.587   4.557   5.342  0.0607 -0.0799  0.4685
44846W        W45710   9.869  24.597  15.469  0.0108 -0.2732 -0.2479
44847W        W45711  13.411   7.193  24.123 -0.3802  0.0548  0.0668
44848W        W45712   7.247  18.315  27.658  0.1987  0.2599  0.1649
44849W        W45713  17.274   5.619   8.821 -0.1879 -0.3057  0.2135
44850W        W45714  10.615  28.984  18.203 -0.0387  0.1731  0.0240
44851W        W45715  11.151  23.994  11.135  0.0092 -0.1517  0.0042
44852W        W45716  23.852   1.542  27.726  0.3192 -0.1543 -0.2065
44853W        W45717   9.983  16.068  20.206 -0.1229 -0.0521 -0.0439
44854W        W45718  27.203  16.674  23.420 -0.0575  0.2629  0.0458
44855W        W45719  14.175   7.923  26.513  0.0436 -0.1335 -0.0537
44856W        W45720   5.597  25.621  12.960 -0.3155  0.1596 -0.0100
44857W        W45721   7.064  28.701   5.477 -0.2899  0.0300  0.1968
44858W        W45722   9.109  25.041  24.840  0.1681 -0.1329 -0.1378
44859W        W45723  28.074  22.070  27.418  0.0091  0.1008 -0.0515
44860W        W45724  25.299  20.853   2.692  0.0079  0.4056  0.3905
44861W        W45725  26.718  21.807  21.500  0.2641  0.4350  0.3514
44862W        W45726  26.043  22.592  28.192  0.1896 -0.0258 -0.2764
44863W        W45727   9.339  15.161  21.771 -0.2036  0.1633  0.1917
44864W        W45728  17.983  14.002   8.889 -0.2841  0.1443 -0.1484
44865W        W45729  17.238  23.975  13.082 -0.1303  0.0042 -0.0430
44866W        W45730  14.169  22.392  18.591  0.0069 -0.2599 -0.1409
44867W        W45731  26.778  22.015  16.156 -0.0326 -0.1671  0.0166
44868W        W45732  20.480   3.644   0.216  0.0782  0.5946  0.1149
44869W        W45733   8.149   6.927   1.041  0.2671 -0.2723  0.1245
44870W        W45734  17.805  27.656  20.239 -0.3801  0.2534  0.2525
44871W        W45735  25.777  11.845  24.272 -0.0868 -0.3803 -0.2914
44872W        W45736   9.033  22.053   5.120  0.1100  0.1020 -0.0261
44873W        W45737   8.342   0.224   1.498 -0.1486  0.1784  0.3634
44874W        W45738  21.331  17.637  22.788  0.1843  0.0223 -0.3195
44875W        W45739  25.196  18.068  27.577  0.0257  0.1198  0.2835
44876W        W45740   4.177   7.315   2.319 -0.1262 -0.0961 -0.1289
44877W        W45741   8.824  19.295   1.605 -0.1528  0.3920  0.0149
44878W        W45742  15.472  21.975  18.144 -0.0957  0.1750 -0.1837
44879W        W45743  11.017  19.362   9.540 -0.1226  0.0969 -0.0889
44880W        W45744  11.004   6.948   4.571 -0.1153 -0.2738  0.0838
44881W        W45745  10.634  19.859  13.395  0.0219 -0.0643 -0.1680
44882W        W45746   8.820  12.463  26.974  0.1627 -0.0087 -0.1535
44883W        W45747   5.286  22.798  28.605  0.2228 -0.1410 -0.1408
44884W        W45748  13.124  18.471  13.228  0.0819  0.2235  0.2352
44885W        W45749   4.043  27.571   5.049  0.1816 -0.3631 -0.2989
44886W        W45750   5.214  13.808  15.320 -0.2340  0.0251 -0.3082
44887W        W45751   2.095  19.601   2.566 -0.0812  0.1093 -0.0419
44888W        W45752   5.072  15.071  19.575  0.0774 -0.1606  0.0024
44889W        W45753  24.296   3.086  19.005 -0.0249  0.2745 -0.0482
44890W        W45754  15.183  15.454  16.700 -0.1265  0.4809 -0.1687
44891W        W45755   8.189  28.744  20.497  0.0799  0.0088  0.1209
44892W        W45756   0.976  28.940  11.497  0.2335 -0.1114 -0.1668
44893W        W45757  11.208   9.690   8.236  0.0931  0.4216  0.1506
44894W        W45758   1.430   5.374  18.413  0.1202  0.0163  0.0349
44895W        W45759  27.419  14.388   2.561 -0.0915 -0.0371  0.1147
44896W        W45760   4.284  22.360  16.732  0.2531  0.1917 -0.1174
44897W        W45761  27.468  12.846  28.198 -0.2923  0.3720 -0.0961
44898W        W45762   0.060   2.598  27.412  0.2083 -0.1435 -0.1320
44899W        W45763   0.903  16.567  17.399 -0.0566 -0.0095  0.1836
44900W        W45764   6.564  26.765   1.559  0.1545 -0.0847  0.1540
44901W        W45765   4.923  21.736  28.236 -0.0831 -0.0420  0.0992
44902W        W45766   0.121  24.369  18.716  0.0275 -0.1649 -0.2295
44903W        W45767  18.893  16.048  28.713 -0.0400 -0.2135  0.1124
44904W        W45768   7.597   5.795  20.206 -0.2072  0.4013 -0.0702
44905W        W45769  14.065  12.903  24.082 -0.0114 -0.0693 -0.1285
44906W        W45770   1.201  18.585  10.484  0.1016  0.1654 -0.1076
44907W        W45771   2.817  17.386  18.248 -0.1575 -0.1895  0.0361
44908W        W45772   5.241  25.188  23.013 -0.0125  0.0882 -0.2569
44909W        W45773  21.549  18.267  20.240 -0.1610  0.0829  0.1459
44910W        W45774  11.237  22.149  11.750  0.0487 -0.2047  0.3262
44911W        W45775   4.720  17.798  24.234  0.1697 -0.1501  0.1390
44912W        W45776  15.445  28.697  13.392 -0.2069 -0.0215 -0.0322
44913W        W45777   6.429  21.799  22.482 -0.0381  0.1232 -0.0467
44914W        W45778  11.904  12.384   5.462 -0.0131 -0.2643 -0.1561
44915W        W45779  22.735   9.029   3.186 -0.0441 -0.2067  0.1100
44916W        W45780  17.071  14.063   8.246  0.0444  0.0384  0.1241
44917W        W45781  28.363  19.198  16.465  0.0221  0.0522 -0.1120
44918W        W45782   7.896  22.195  25.400  0.1366  0.1749  0.0155
44919W        W45783  13.380  28.150   3.053  0.1138 -0.0609  0.0624
44920W        W45784  27.234  21.885  18.746  0.0406  0.1719 -0.0297
44921W        W45785  16.458   4.303  23.456 -0.0474  0.0701  0.1913
44922W        W45786  27.661  27.775  26.926 -0.0612  0.3663 -0.1818
44923W        W45787   8.348  11.829  10.298 -0.3634 -0.1571 -0.0326
44924W        W45788   8.115   6.021  13.754 -0.1463  0.1080 -0.1027
44925W        W45789   7.438  28.581  26.887 -0.1841 -0.1168 -0.2571
44926W        W45790  15.213  10.147   4.267  0.1521 -0.2756 -0.1159
44927W        W45791   8.230  28.523  11.999 -0.0081  0.0742 -0.0245
44928W        W45792   4.569   2.991  24.982  0.0153 -0.0555 -0.1442
44929W        W45793  23.224   2.082  10.905 -0.1299 -0.0287 -0.1910
44930W        W45794   7.696   5.260   1.116 -0.1737 -0.3978 -0.1367
44931W        W45795  18.857   0.872   3.492 -0.1570  0.2053  0.2624
44932W        W45796   2.851   9.281  26.562  0.1068 -0.0171 -0.1679
44933W        W45797   0.919  21.250  27.552 -0.2560  0.1498 -0.1378
44934W        W45798   8.368  25.149   0.990 -0.3782  0.1830 -0.0926
44935W        W45799   2.044  24.801   2.537 -0.2022 -0.0288  0.0305
44936W        W45800   5.159  16.546  22.455  0.3100 -0.2094  0.1501
44937W        W45801  13.722  19.067   0.300  0.1253  0.0338  0.2009
44938W        W45802  12.131   6.408  28.851 -0.4053 -0.0027  0.1548
44939W        W45803   8.463  18.151  27.638  0.1815  0.0588  0.0947
44940W        W45804  29.136  27.198   0.195 -0.3176 -0.1260 -0.1179
44941W        W45805  10.909   5.742  23.101  0.1537  0.5880  0.2241
44942W        W45806   5.276   7.662  13.336 -0.0857 -0.3772  0.0909
44943W        W45807  10.958   5.665  19.544 -0.0714 -0.1624  0.1744
44944W        W45808   8.321  24.733   8.625 -0.1891  0.1521  0.0622
44945W        W45809  13.074  10.667   6.026 -0.2041  0.1300  0.0806
44946W        W45810  23.105  10.147  15.151 -0.1947  0.0619 -0.1758
44947W        W45811  28.549  18.659  18.855  0.3263  0.4749  0.1120
44948W        W45812  28.721  27.753   6.481 -0.1722  0.2172  0.3847
44949W        W45813  12.505  23.168  25.038  0.0059  0.1469  0.0862
44950W        W45814  13.332  15.566  12.993  0.0897 -0.0496  0.0400
44951W        W45815   0.732  14.879  16.211 -0.1428  0.0631 -0.1143
44952W        W45816  22.735  22.367   3.722 -0.0635 -0.1015  0.1051
44953W        W45817  23.738  11.562  11.068 -0.1901 -0.3033  0.1710
44954W        W45818  17.573  10.583  15.084 -0.1012  0.0416 -0.0429
44955W        W45819  13.422  28.321   0.251 -0.0547 -0.2186 -0.1912
44956W        W45820  15.875  21.080  12.166  0.1443  0.3217  0.1871
44957W        W45821  18.746  18.340  19.967  0.2618  0.4790 -0.1420
44958W        W45822  25.031   8.513  22.674 -0.1284 -0.2805  0.3132
44959W        W45823  26.257   3.513  28.694 -0.2407  0.0316  0.0925
44960W        W45824  10.080  25.327  11.258  0.1181  0.0099 -0.2093
44961W        W45825  10.201  28.680  21.443  0.0350  0.0021 -0.0884
44962W        W45826   8.374  24.227   7.522 -0.0216 -0.3551 -0.2384
44963W        W45827   5.740   7.160  22.835  0.0525 -0.0229  0.2567
44964W        W45828  14.598  10.716   1.856 -0.0872 -0.1330 -0.1209
44965W        W45829  26.501   4.386  17.244 -0.3271 -0.0078  0.2927
44966W        W45830  12.288  26.722  26.287 -0.0380 -0.2939  0.0027
44967W        W45831  15.076  24.033   9.569 -0.0146  0.3274  0.3529
44968W        W45832  27.099  20.892   4.061 -0.4537  0.3154 -0.0728
44969W        W45833   3.583  11.219   3.643  0.0683 -0.2291 -0.4364
44970W        W45834  27.631  21.834  17.624 -0.0469  0.0721  0.0310
44971W        W45835  11.493   1.438  15.267 -0.1795  0.1609  0.2649
44972W        W45836  25.584  15.824   2.481 -0.4588 -0.2218 -0.0518
44973W        W45837  22.398  28.848   7.265  0.1105  0.1996 -0.0042
44974W        W45838  14.803   1.283   7.756  0.1260  0.1995 -0.0891
44975W        W45839   0.900  15.954  22.582  0.0515 -0.1599  0.1515
44976W        W45840   3.505  21.187  24.961  0.1678 -0.3496  0.1088
44977W        W45841   4.442   2.902  11.584  0.0458  0.2743  0.2274
44978W        W45842  16.266  23.561  27.745  0.1059 -0.0250  0.2377
44979W        W45843  10.952  11.612   1.722 -0.0494  0.0288 -0.2869
44980W        W45844  27.331  17.147  13.270 -0.4129  0.1076 -0.1445
44981W        W45845  11.837  21.365  12.327 -0.3496 -0.0645  0.0345
44982W        W45846  27.317  11.728   5.750 -0.1853  0.2234 -0.0675
44983W        W45847  14.384  19.261  17.282 -0.3098 -0.0400 -0.2873
44984W        W45848  17.121  15.670  25.395 -0.0412 -0.1583  0.0083
44985W        W45849  10.043   7.399  21.437  0.0640  0.1951 -0.0055
44986W        W45850   1.307  24.610  10.992  0.3663 -0.1114 -0.1246
44987W        W45851  23.901  17.937  18.956 -0.2631 -0.3155  0.1023
44988W        W45852   6.529  14.665  11.750  0.2809  0.1660  0.5335
44989W        W45853   5.173   4.222  22.585 -0.0649 -0.0976 -0.1089
44990W        W45854   5.215  23.821  23.037 -0.3053 -0.1446 -0.1590
44991W        W45855   7.361   2.099  13.997  0.3327 -0.3094  0.0796
44992W        W45856  27.448  12.904  20.282  0.0109  0.1670 -0.2757
44993W        W45857  18.144  12.914  17.418 -0.3689 -0.0383 -0.0622
44994W        W45858   5.930  28.163   6.971  0.2733 -0.1936  0.0456
44995W        W45859   1.306  22.882   8.360  0.0618 -0.0323  0.0059
44996W        W45860   2.923  27.036  12.526  0.0197 -0.0656 -0.1899
44997W        W45861  28.252  24.280   9.211 -0.0929 -0.0996 -0.1506
44998W        W45862   0.357  19.682   1.335 -0.2012  0.0791  0.2317
44999W        W45863  27.842  21.624   4.174 -0.0759  0.3315  0.2326
45000W        W45864   5.758  28.308  12.228 -0.0033 -0.0118  0.0006
45001W        W45865  27.388  14.093  17.366  0.0343  0.1379  0.2501
45002W        W45866  21.184  24.866   3.344 -0.1226 -0.0203  0.1682
45003W        W45867  22.018   3.715  13.658  0.0558  0.0667 -0.2139
45004W        W45868  22.201  24.405   4.818 -0.0513 -0.0775  0.0338
45005W        W45869  22.560  11.614  15.462  0.1581 -0.1403 -0.1576
45006W        W45870  17.694  26.701  27.398  0.0793  0.3277 -0.1991
45007W        W45871  14.610   2.945  12.507 -0.0430 -0.3412  0.4121
45008W        W45872   1.589   6.346  22.731  0.1020  0.0196  0.0324
45009W        W45873   4.583   6.610   6.196  0.0862  0.4765 -0.2360
45010W        W45874  12.242  24.170  23.775 -0.1870 -0.0418 -0.0102
45011W        W45875   5.364  11.433  26.967  0.2929  0.0585 -0.0380
45012W        W45876  19.019  11.858  17.839 -0.3365 -0.1178 -0.0703
45013W        W45877  21.948  26.544  17.899 -0.1851  0.0062 -0.0588
45014W        W45878  17.191  19.632  20.439 -0.2769 -0.1691 -0.1567
45015W        W45879   2.759   7.420  26.570 -0.0073 -0.4665  0.1455
45016W        W45880  12.279  21.807   4.585  0.2118 -0.1300  0.0903
45017W        W45881  11.310  28.089  10.974 -0.1767 -0.2768  0.1980
45018W        W45882  12.146  17.064  21.259 -0.4283 -0.1142 -0.3842
45019W        W45883  22.761   5.837  20.724  0.1360 -0.0402 -0.0481
45020W        W45884   6.824  10.353  20.611 -0.1201 -0.1723  0.1274
45021W        W45885  27.587   3.403   5.977 -0.0796  0.0929  0.0443
45022W        W45886  14.167  27.875  12.648 -0.1145  0.2397  0.0267
45023W        W45887   9.748   7.343  25.980 -0.0630 -0.1295  0.0292
45024W        W45888  17.052  16.900  16.020 -0.0454  0.0706 -0.0987
45025W        W45889  12.348  21.106   3.379 -0.0497  0.1864 -0.1495
45026W        W45890  25.594  19.949   3.844  0.0260 -0.2000 -0.2368
45027W        W45891  15.723   0.951   1.808  0.0288  0.1466  0.2579
45028W        W45892  28.100  17.639  27.145 -0.0957 -0.3524  0.1806
45029W        W45893   3.118  15.170  25.614 -0.2168  0.2412  0.0772
45030W        W45894  18.085  24.991  12.541  0.0376  0.1265  0.1164
45031W        W45895  18.159  23.159  27.766  0.3473  0.2152  0.0589
45032W        W45896  21.730   0.801  10.968  0.4064  0.2903  0.3471
45033W        W45897  12.153  11.058  18.024 -0.1292  0.0524  0.1620
45034W        W45898  25.145  21.519  17.689  0.1031 -0.2934 -0.3854
45035W        W45899  12.118  23.473   0.733 -0.1812  0.0802 -0.1801
45036W        W45900   8.366   3.889  27.571  0.1253 -0.0386  0.3053
45037W        W45901  21.419  12.351  16.204  0.1301  0.3161 -0.1293
45038W        W45902  15.117  10.459  15.420 -0.0105  0.0916 -0.0409
45039W        W45903  26.135  21.086   1.117  0.0541  0.3690 -0.2957
45040W        W45904   1.471   8.965   2.070  0.3634  0.2885  0.0897
45041W        W45905  20.790  27.311  28.674 -0.0784 -0.0635  0.0938
45042W        W45906  16.951  15.367   3.509 -0.1844 -0.0688  0.0863
45043W        W45907  22.758  28.753  24.048  0.1969 -0.0828 -0.1597
45044W        W45908  18.582  16.881   3.219  0.0743 -0.0471 -0.0456
45045W        W45909   5.401  19.369   7.836  0.1693 -0.2222  0.0916
45046W        W45910   1.804  10.471   5.990 -0.3284  0.2934  0.0305
45047W        W45911  24.336   1.349  23.032  0.0025  0.2122  0.0083
45048W        W45912  16.786  16.362   0.214  0.0356  0.4688  0.0683
45049W        W45913  12.565  22.592  17.304 -0.0548  0.0080  0.0281
45050W        W45914   5.269  15.925  26.832 -0.0502  0.0050 -0.2329
45051W        W45915   0.461  19.364   8.159  0.0076  0.1137  0.0913
45052W        W45916   9.815   8.647  20.135  0.0488  0.0907  0.0338
45053W        W45917  25.207  10.260  23.225  0.3445  0.1101  0.0321
45054W        W45918   3.076  13.296  12.933 -0.1290 -0.0790 -0.1102
45055W        W45919  13.648  20.374  25.144  0.2790  0.1111  0.3573
45056W        W45920   2.043   5.683   4.897  0.1003 -0.1200 -0.2245
45057W        W45921  10.798   3.438  13.726 -0.2053  0.0266  0.2761
45058W        W45922   1.652  28.948  10.693 -0.4300 -0.1942  0.0603
45059W        W45923  25.875  22.123   0.322  0.0352 -0.2200  0.1171
45060W        W45924   0.581  27.465  12.195 -0.3484 -0.0653 -0.0599
45061W        W45925  16.018   9.167  10.550  0.0635 -0.1962 -0.3085
45062W        W45926  17.795   1.388  12.224  0.2954 -0.0905  0.0750
45063W        W45927   8.510  17.148  23.218  0.0681 -0.0426 -0.4001
45064W        W45928   5.594   2.115   1.343 -0.0728 -0.0855  0.1817
45065W        W45929  26.458  21.060   9.970  0.1261 -0.0617 -0.0014
45066W        W45930  11.483  27.124   2.317 -0.0101  0.0316 -0.0584
45067W        W45931  27.713  14.648   8.515  0.1620  0.3130 -0.1023
45068W        W45932  10.576  14.521  20.847 -0.0719 -0.0753  0.2489
45069W        W45933   6.929   8.341  21.621  0.1845 -0.0456 -0.1619
45070W        W45934  26.135   1.482   2.777  0.0283 -0.0531  0.2616
45071W        W45935  17.035  23.540  12.448  0.1066  0.0704  0.2702
45072W        W45936   4.686  24.852  19.264 -0.5143 -0.0884  0.2251
45073W        W45937  11.945   2.743  18.353  0.1821 -0.0995  0.1130
45074W        W45938   8.402  28.955  21.447  0.2190  0.1586 -0.2247
45075W        W45939   0.273   8.477  27.893  0.0014 -0.2995  0.1774
45076W        W45940  10.654  19.321  19.278  0.0984 -0.1035  0.3308
45077W        W45941  27.786  10.130  16.953 -0.2254 -0.0051  0.2436
45078W        W45942   2.310  13.925  25.233  0.2294 -0.4486 -0.1408
45079W        W45943   7.873  19.768  11.113 -0.1874  0.2436 -0.0600
45080W        W45944  21.410  26.640   9.377  0.2516 -0.2060  0.0661
45081W        W45945  10.532  22.076   3.248  0.1107 -0.2051  0.0576
45082W        W45946  21.032  27.282   0.384 -0.0009 -0.1944  0.0363
45083W        W45947  19.240  24.480  18.030  0.3393  0.2328 -0.2150
45084W        W45948  19.091  19.865  22.067  0.0789  0.4083 -0.0127
45085W        W45949  19.373   2.518  17.816 -0.2807  0.2250  0.0803
45086W        W45950  27.271   4.799  18.177 -0.2230  0.0558 -0.1524
45087W        W45951   3.936   9.482   9.948 -0.2105  0.0254  0.1181
45088W        W45952  11.506  13.438  14.169  0.2014 -0.1072  0.0763
45089W        W45953  21.487  12.224   7.698  0.1803 -0.2080  0.0967
45090W        W45954   1.267  17.561   0.289 -0.0667  0.1866 -0.0077
45091W        W45955  11.315   8.560   1.885 -0.0373 -0.2989 -0.2525
45092W        W45956  13.216  17.772  14.644 -0.1001  0.0578 -0.1892
45093W        W45957  10.204  23.770   5.255  0.0604 -0.0296  0.0735
45094W        W45958  18.032   8.311  22.700 -0.4012 -0.2932  0.0405
45095W        W45959  15.517  23.968   2.321  0.0432  0.1518 -0.1747
45096W        W45960  21.822  22.004  15.186 -0.1276 -0.0577 -0.1543
45097W        W45961  18.613   7.644  21.001 -0.0363 -0.1732 -0.1208
45098W        W45962  15.057  21.866  15.128  0.0523  0.3266 -0.1964
45099W        W45963  27.859  26.959   9.316  0.1832 -0.1100 -0.0996
45100W        W45964  19.085   7.636   9.663  0.3003  0.4477  0.0187
45101W        W45965  13.726  21.198  27.727 -0.0737 -0.2681  0.1393
45102W        W45966  13.218  11.667  12.275  0.0513 -0.1937 -0.0449
45103W        W45967  20.327  17.551   2.775  0.2132 -0.0333 -0.1683
45104W        W45968  28.609   2.849  26.749 -0.1318 -0.3836  0.2316
45105W        W45969  13.867  25.920  24.894  0.4432  0.1110 -0.1677
45106W        W45970  18.691  19.194  15.393  0.2023  0.0798 -0.1699
45107W        W45971   4.507  15.359  12.361 -0.0693  0.0526  0.0928
45108W        W45972  23.575  12.611  11.590 -0.1227 -0.2467 -0.1076
45109W        W45973  26.093  10.873  14.740  0.0865  0.1083 -0.2497
45110W        W45974  18.470  25.057   4.042 -0.1666  0.2002  0.0986
45111W        W45975  21.598  25.302   0.082  0.1921 -0.1709 -0.1937
45112W        W45976  17.149  22.476  16.991  0.0911  0.0170  0.2808
45113W        W45977  13.936   4.136   8.414 -0.2697  0.2599 -0.1968
45114W        W45978  10.639  22.424  25.223 -0.1291  0.2791  0.0396
45115W        W45979  10.814  14.299   2.618 -0.0936 -0.1604 -0.1370
45116W        W45980  15.870  20.652  12.555 -0.2124 -0.3048 -0.2970
45117W        W45981  23.021  19.985  13.345  0.1505  0.1275  0.0713
45118W        W45982  25.804  24.994  25.436 -0.0983 -0.1289 -0.3582
45119W        W45983  12.733  25.467  23.395  0.2277  0.0875 -0.3514
45120W        W45984   0.921   8.071   1.485  0.3306 -0.0459 -0.3172
45121W        W45985  15.557  28.324  20.144  0.2650 -0.1287  0.1117
45122W        W45986   7.034  12.594  25.649  0.2907 -0.0133  0.0827
45123W        W45987  27.524  28.369   2.681  0.0672 -0.0297  0.1201
45124W        W45988  12.667  25.954  15.344  0.3700  0.0421 -0.0632
45125W        W45989   3.483   3.264  17.304 -0.0681  0.4942  0.1932
45126W        W45990  23.411  23.297  18.807  0.0139 -0.0126 -0.0374
45127W        W45991  25.461  26.222  21.497 -0.1601 -0.2243  0.3116
45128W        W45992   9.737   7.178   2.107  0.1101  0.1642 -0.1541
45129W        W45993  25.267  26.585  11.322 -0.1809 -0.0597  0.1845
45130W        W45994  13.380  22.222  28.894 -0.2538 -0.2284 -0.1729
45131W        W45995  27.689  21.733  22.395 -0.1601 -0.0483  0.1504
45132W        W45996  16.043  12.394  19.271 -0.2372  0.1059 -0.2589
45133W        W45997   4.741  28.055   2.607  0.0682  0.0513  0.0961
45134W        W45998  18.788  18.265   5.385 -0.1677  0.1527 -0.0201
45135W        W45999  21.514  20.628  23.676 -0.1816  0.2422  0.2635
45136W        W46000   2.862   9.192  23.497  0.1179 -0.1820  0.0406
45137W        W46001  14.351  15.003  22.058 -0.0300  0.1375 -0.0813
45138W        W46002   8.091  16.021   2.807 -0.1224  0.0528 -0.0589
45139W        W46003  25.555  19.640  21.812 -0.3307  0.1936  0.1421
45140W        W46004   3.964  13.278  14.283 -0.0491  0.1634 -0.0385
45141W        W46005   0.961   1.891  26.240 -0.1759 -0.2322 -0.1298
45142W        W46006   9.008  26.881  27.806  0.1236 -0.0828  0.2915
45143W        W46007   5.912  26.289   5.855  0.1085  0.0446  0.2198
45144W        W46008  21.386  15.725   3.847 -0.2825 -0.1861 -0.2012
45145W        W46009  20.488   1.339   8.200  0.2352  0.0481  0.2546
45146W        W46010   0.792  10.867   1.789  0.1715  0.3152  0.1809
45147W        W46011   6.869  20.610  27.373  0.0326 -0.2337 -0.3506
45148W        W46012  14.660  25.142  14.590  0.1189 -0.0346 -0.5146
45149W        W46013   2.120  21.628  22.451 -0.0441 -0.1274  0.0448
45150W        W46014  21.814  14.456  23.993  0.2274 -0.1486  0.0644
45151W        W46015  15.966  24.204  17.107  0.0983  0.1948  0.0771
45152W        W46016   5.972  23.226  11.419 -0.0814  0.2613  0.1704
45153W        W46017  21.585  26.957  12.605  0.2552 -0.1797 -0.2743
45154W        W46018  17.666  22.245  19.540  0.0663  0.0557 -0.2270
45155W        W46019  27.671  11.644  28.622 -0.0203  0.1489  0.4514
45156W        W46020   6.868  13.889  26.926 -0.1691  0.2921 -0.0648
45157W        W46021   7.351  13.377   4.462 -0.0040  0.1550  0.0233
45158W        W46022  24.464  15.237  25.449 -0.0117  0.0810 -0.1067
45159W        W46023  19.975   3.535  15.775 -0.3160 -0.2037  0.2573
45160W        W46024  11.986  13.082  19.837  0.3586 -0.1217  0.1018
45161W        W46025  24.242  18.099  26.532  0.0631 -0.2320  0.0071
45162W        W46026  20.549  16.052  23.002  0.2944  0.0222 -0.4329
45163W        W46027  29.104   1.835  10.710 -0.2598 -0.0510  0.0703
45164W        W46028  10.658  28.294   6.571 -0.3227  0.1325  0.0083
45165W        W46029   0.731   9.241  25.401  0.0193 -0.0590 -0.0054
45166W        W46030  20.165  18.752  25.425  0.0153  0.4308 -0.0605
45167W        W46031   1.953  20.825   0.124 -0.1948 -0.0768  0.0801
45168W        W46032   9.345  21.362   6.405  0.2936 -0.0142  0.0321
45169W        W46033  14.069   8.565   2.800  0.0438  0.0302 -0.2220
45170W        W46034  10.029  19.395   8.786  0.2056  0.0659  0.2425
45171W        W46035  26.077  24.606  29.098  0.0289 -0.2678 -0.2802
45172W        W46036  15.762   8.053  26.592  0.1745  0.1139 -0.1171
45173W        W46037  21.890  22.454   1.625  0.2913  0.1256  0.0024
45174W        W46038  13.224   0.007  16.282 -0.1918 -0.3484  0.1564
45175W        W46039  17.532  19.813  25.991  0.1214 -0.2195 -0.0518
45176W        W46040  12.227  25.058   1.918  0.0831 -0.0245 -0.0134
45177W        W46041   2.822  19.652  27.659  0.2782 -0.0868 -0.2655
45178W        W46042  12.797  27.300   7.161 -0.0950 -0.1295 -0.2617
45179W        W46043   3.390  21.614   8.635  0.5809 -0.5027  0.2341
45180W        W46044  14.110   5.197  16.057  0.1534 -0.2645  0.0159
45181W        W46045   5.812  18.539  17.735 -0.0647  0.2163 -0.2334
45182W        W46046   8.013  23.440   0.125  0.1006  0.1996  0.2177
45183W        W46047  10.312   0.759  11.907 -0.1729  0.0147  0.0263
45184W        W46048   3.070  14.297  11.663  0.2183 -0.2429  0.0734
45185W        W46049  11.967  23.412  24.317 -0.0215  0.0936  0.0289
45186W        W46050  27.164  28.916   0.669  0.0825 -0.2758  0.0922
45187W        W46051   6.529   1.752  17.523  0.0479  0.0704 -0.1744
45188W        W46052  18.953  25.930   5.063  0.3271  0.1426 -0.3565
45189W        W46053   6.335   2.518  16.748  0.2071  0.1031 -0.0619
45190W        W46054  16.730  27.811   0.167  0.0994 -0.2458  0.1356
45191W        W46055  19.153  26.170   3.674 -0.0747  0.2024 -0.2082
45192W        W46056  13.834  22.105   6.505  0.3171  0.1332 -0.2304
45193W        W46057   4.340  24.343  24.963 -0.1060  0.3683 -0.1398
45194W        W46058  21.787   7.455   7.087 -0.0320  0.1832 -0.1945
45195W        W46059   3.459  28.368  22.342  0.0353 -0.1810  0.0732
45196W        W46060   9.176  21.203  28.658  0.1104 -0.0906 -0.0716
45197W        W46061   0.026  23.332  24.131 -0.0856  0.1143  0.0471
45198W        W46062   4.653  17.223   8.499  0.1629  0.1994 -0.2520
45199W        W46063   1.757  13.407  27.947 -0.2013  0.0886  0.0672
45200W        W46064   9.052  13.380  13.149 -0.0878  0.1136  0.1952
45201W        W46065  17.662  27.116  11.404  0.0330 -0.0947  0.0249
45202W        W46066   8.957  21.199  20.856 -0.0126 -0.0396 -0.0336
45203W        W46067  16.329  29.014  12.439  0.2460 -0.0155 -0.2109
45204W        W46068  10.774   7.014  15.738  0.1859  0.0002 -0.0988
45205W        W46069   5.307  22.931  13.003 -0.3720  0.1785 -0.2312
45206W        W46070   3.929   7.188  13.347 -0.0245  0.1821 -0.0997
45207W        W46071  26.546  26.218   9.769 -0.1901 -0.3024 -0.0414
45208W        W46072  20.129  18.648  22.708 -0.1050 -0.1240 -0.2084
45209W        W46073   1.727  25.127  23.420 -0.2126 -0.2073 -0.0412
45210W        W46074  27.753  13.298   1.069  0.0783  0.1862  0.0543
45211W        W46075   7.346  23.548   5.142  0.0879  0.0090  0.0120
45212W        W46076   0.917  13.502  25.917  0.1197  0.0939  0.0202
45213W        W46077   8.139  12.849   6.796 -0.2628  0.0301 -0.1809
45214W        W46078   8.591   5.095  17.568 -0.1150  0.1597 -0.2343
45215W        W46079  13.548  17.697  29.141  0.1222  0.2858  0.0123
45216W        W46080  11.249   0.555   4.319  0.1678  0.0290  0.0490
45217W        W46081  11.620  23.003   1.598  0.2042 -0.3082 -0.0059
45218W        W46082  24.238  25.237   4.039 -0.2261 -0.1127  0.0196
45219W        W46083  25.076  24.314   8.398 -0.0034  0.2565  0.0632
45220W        W46084  27.131   1.787  12.591 -0.3582  0.2501 -0.3969
45221W        W46085  15.741   1.799   1.421  0.2159 -0.1473 -0.0338
45222W        W46086  12.664  11.123   0.861 -0.1155 -0.1155 -0.0930
45223W        W46087  22.484  12.135  18.407  0.0067 -0.0771 -0.0735
45224W        W46088  19.091  16.188   4.133  0.0993  0.2545 -0.3139
45225W        W46089  16.902  11.914  23.001 -0.3387  0.1326  0.3939
45226W        W46090  11.329  24.977   3.185  0.1277 -0.0828 -0.3352
45227W        W46091   6.286  13.766   6.907 -0.2570  0.0584  0.0967
45228W        W46092  27.178  22.017  11.886  0.0069  0.1815 -0.2008
45229W        W46093  17.193   3.130  21.808  0.0986 -0.0090 -0.1254
45230W        W46094   4.634  14.292  13.366 -0.0647 -0.0605 -0.4930
45231W        W46095  11.206  28.036   9.923  0.0429 -0.1376 -0.0410
45232W        W46096   8.624  12.442  16.841 -0.1040  0.3088 -0.2007
45233W        W46097   2.691  17.212   1.693 -0.1955 -0.2023 -0.1511
45234W        W46098  25.893  27.042  27.871 -0.0470  0.1554 -0.2949
45235W        W46099   4.867  15.241  28.744  0.0388 -0.1629  0.1919
45236W        W46100  21.499  12.100   8.591  0.2837  0.0567 -0.2794
45237W        W46101   1.407   7.349   4.516  0.0597 -0.1369 -0.1178
45238W        W46102  21.257   8.505  10.810 -0.2974  0.1114 -0.2628
45239W        W46103   9.546  22.213   2.426 -0.1300  0.0180  0.0206
45240W        W46104   6.331  16.103  25.318  0.0699 -0.2173  0.1020
45241W        W46105  14.682  15.409   9.153  0.0163 -0.1967  0.0442
45242W        W46106  24.179  13.147  12.918 -0.0592 -0.3791  0.3266
45243W        W46107   8.876  28.254   2.529 -0.1363 -0.0863  0.2921
45244W        W46108  15.894  22.650   5.592  0.1345 -0.0538 -0.0429
45245W        W46109  16.607  25.723  17.046  0.0090  0.3875  0.0432
45246W        W46110  10.897  13.072  28.215  0.2893  0.1745 -0.1562
45247W        W46111   5.561  22.206  27.922 -0.1611  0.0856  0.1583
45248W        W46112  24.245  16.750  25.230 -0.2060  0.3033 -0.0242
45249W        W46113  26.621   7.827   5.888 -0.1310 -0.2245  0.2960
45250W        W46114  22.648  21.071   4.365  0.3017 -0.0672 -0.0748
45251W        W46115  16.334   1.218  26.676  0.0634 -0.1156  0.0159
45252W        W46116   1.752  27.218   9.001  0.1831  0.0875  0.0241
45253W        W46117  22.660   6.829   6.830  0.4054 -0.2053  0.0006
45254W        W46118  21.694   7.749   8.555  0.0840 -0.0553 -0.1787
45255W        W46119   3.993  17.082   4.679 -0.1190 -0.0993 -0.0537
45256W        W46120  18.925  23.091   7.866 -0.0623 -0.1240  0.2804
45257W        W46121   3.723  14.656  22.916 -0.1232  0.2403 -0.1103
45258W        W46122  11.246  13.917  24.636  0.2496  0.0705  0.1300
45259W        W46123  14.417   8.325  24.473 -0.1243 -0.0807  0.0959
45260W        W46124   3.773  14.209  22.736 -0.3597  0.3176 -0.2122
45261W        W46125   8.117   2.060  16.639 -0.0519 -0.1770  0.2719
45262W        W46126   4.005  14.037  14.965 -0.3712  0.1501  0.2298
45263W        W46127   0.173  27.432  20.604  0.2308 -0.0089 -0.0775
45264W        W46128  13.056   4.659  14.483 -0.1559 -0.0724  0.1573
45265W        W46129  26.408  25.067   1.665 -0.3807 -0.2462  0.0271
45266W        W46130   7.162  21.483  27.572 -0.1889 -0.0684 -0.0287
45267W        W46131   1.358   3.401  11.667 -0.0411 -0.0948 -0.0786
45268W        W46132  10.263  25.434  14.262 -0.2440 -0.0243  0.0144
45269W        W46133   4.187  17.708  26.174 -0.1952 -0.0212 -0.1045
45270W        W46134  17.408  16.906   3.154 -0.5364 -0.1236 -0.1362
45271W        W46135   7.029  12.257  28.087  0.0972  0.0659  0.0986
45272W        W46136   3.513   6.339  14.757 -0.2612 -0.1274 -0.0835
45273W        W46137   0.052  19.916  26.122  0.0608 -0.1928 -0.0517
45274W        W46138   7.216  27.241  22.319  0.1456 -0.3381  0.1833
45275W        W46139  22.345  20.366  18.497  0.0506  0.3494 -0.1301
45276W        W46140  10.834   2.178  26.419 -0.1829  0.1861  0.0268
45277W        W46141   6.201   1.560   1.823 -0.0332  0.0260 -0.1974
45278W        W46142  24.484   4.258   3.127  0.0670  0.2779 -0.0940
45279W        W46143  22.520  23.965  24.148 -0.2362  0.0256  0.1542
45280W        W46144  16.172  27.130  20.806  0.3513 -0.0414 -0.0986
45281W        W46145   2.128   8.039  20.397 -0.2466 -0.1159  0.0054
45282W        W46146  25.567   0.465  28.603  0.0242 -0.1108  0.1401
45283W        W46147  14.144   8.574  17.984  0.1259  0.0633  0.0587
45284W        W46148  27.966  27.971  23.127 -0.0426 -0.0768 -0.2711
45285W        W46149  25.103  10.807   2.604 -0.3548  0.0605  0.1613
45286W        W46150   7.266  28.441  27.878  0.1964  0.2079 -0.1059
45287W        W46151  11.132   8.941  10.004 -0.0554  0.1273  0.0146
45288W        W46152   0.921  13.407  26.634  0.0218  0.1689 -0.1489
45289W        W46153   2.341  26.500  26.185 -0.3502 -0.1732  0.3526
45290W        W46154   4.563   3.224   9.592  0.1549 -0.1711  0.0619
45291W        W46155   2.023  20.569  10.424 -0.4608  0.3099 -0.0063
45292W        W46156  20.757   7.311   0.263  0.2328  0.0629  0.2979
45293W        W46157  12.572  25.286  22.492 -0.3980  0.1477  0.1199
45294W        W46158  19.381  25.891  22.638 -0.0214 -0.0543 -0.1145
45295W        W46159   7.573  20.272   3.527 -0.0090 -0.1196  0.1258
45296W        W46160   1.282  17.919  11.883 -0.2504  0.0140  0.1429
45297W        W46161   2.787  15.298  19.965  0.0759 -0.0869 -0.1390
45298W        W46162  27.179  11.932  27.212 -0.0647 -0.0044  0.2985
45299W        W46163  25.362  22.139   4.582  0.0925  0.0302 -0.0623
45300W        W46164  11.021   3.449   4.576 -0.0713 -0.3455 -0.1762
45301W        W46165  11.013   2.454  21.736  0.1964 -0.0168 -0.1797
45302W        W46166  28.542  21.457  12.039 -0.1269  0.0091 -0.0625
45303W        W46167  14.327  12.816  24.532  0.0941  0.1467  0.1893
45304W        W46168  16.075   6.296  19.322 -0.2496 -0.0980 -0.0308
45305W        W46169  21.187  20.338  25.834 -0.4019  0.0814 -0.0530
45306W        W46170   2.761   5.744  26.932 -0.0947  0.1071  0.0088
45307W        W46171   2.330   1.065   2.445  0.3228 -0.1686  0.2316
45308W        W46172   7.210  16.018   3.336  0.0812 -0.0834 -0.0167
45309W        W46173  23.453   5.190  22.952 -0.0842 -0.0168  0.0362
45310W        W46174  10.191  24.217   7.263  0.0692 -0.3520  0.1656
45311W        W46175   1.813  19.462  22.572 -0.1181  0.0248  0.1012
45312W        W46176   9.972  22.952  21.012 -0.1418 -0.1677  0.1141
45313W        W46177  26.662  17.495   1.217 -0.2360  0.2601  0.2324
45314W        W46178  15.325  16.230  27.170 -0.1067 -0.1447  0.1646
45315W        W46179   4.787   1.355  27.391 -0.1864 -0.3686  0.1490
45316W        W46180  25.639  13.529  22.322  0.1262 -0.1470  0.1076
45317W        W46181   1.628  27.695   1.368  0.0930 -0.0690  0.0864
45318W        W46182  15.820  16.728   1.682 -0.0537 -0.3238 -0.0703
45319W        W46183   5.409  24.477  16.266 -0.2260 -0.3728  0.2916
45320W        W46184   1.244   1.677  17.477  0.1614 -0.0976  0.0328
45321W        W46185  10.033  19.927  17.046 -0.0554 -0.1857 -0.0230
45322W        W46186  25.341  28.692   8.247 -0.0707 -0.1156  0.0345
45323W        W46187   3.354   5.247  24.834  0.0394 -0.2178 -0.1753
45324W        W46188   3.299   1.924  11.764 -0.1556  0.2686  0.1187
45325W        W46189   5.982  25.240  14.962  0.1158 -0.1370  0.2578
45326W        W46190   8.760  17.171  27.357 -0.4016 -0.0449  0.2282
45327W        W46191  15.124  17.165   4.468 -0.3554  0.2195  0.1151
45328W        W46192   3.967  23.037  25.524  0.0365 -0.2529 -0.1707
45329W        W46193  24.441  11.918  28.180  0.0617 -0.0584  0.0090
45330W        W46194  13.677  19.018   8.527  0.1407 -0.0378  0.2600
45331W        W46195  27.368  23.396   4.940 -0.1640  0.0341  0.0393
45332W        W46196  27.159  25.728  15.418 -0.0617 -0.3379 -0.0082
45333W        W46197  15.687  24.676  19.110  0.4242  0.0825 -0.0982
45334W        W46198  18.587   9.489  28.733 -0.0336 -0.0188  0.0444
45335W        W46199  17.706   6.599  11.381  0.0098  0.1554  0.2142
45336W        W46200   6.918  26.680   8.015  0.0831 -0.0969 -0.3990
45337W        W46201   3.850  21.518   4.970  0.0329  0.0005  0.2879
45338W        W46202   0.085  22.548   4.791 -0.0533  0.2557 -0.0481
45339W        W46203   4.808  15.115  22.941  0.0268 -0.0573 -0.0724
45340W        W46204   5.032  25.533  16.674 -0.2333 -0.1405  0.1744
45341W        W46205   1.595  20.668  15.865  0.0975  0.1151  0.1273
45342W        W46206  21.566   2.349  27.269 -0.0421 -0.1614  0.3170
45343W        W46207  16.963  12.844  18.329  0.0207 -0.1681 -0.5021
45344W        W46208  10.484  18.136  22.430  0.3913 -0.0616 -0.1918
45345W        W46209   0.700  14.778   5.268 -0.1858  0.0932 -0.1426
45346W        W46210  25.508  24.188  17.924  0.1987 -0.3441  0.1683
45347W        W46211  26.999   7.312  25.766 -0.0863  0.4220  0.0611
45348W        W46212  16.572  25.959  21.994 -0.0730  0.3781  0.2548
45349W        W46213  12.185  23.886  13.245  0.1401  0.0794 -0.0894
45350W        W46214   8.595   3.993  24.755  0.1403  0.1195 -0.0484
45351W        W46215   4.498  24.493   4.405 -0.2010  0.2813  0.2196
45352W        W46216  21.708  18.406  13.808 -0.0067  0.0924  0.1557
45353W        W46217   3.877  25.766  27.125 -0.1052 -0.3818  0.0779
45354W        W46218  17.765  18.457  23.084  0.0064 -0.0807  0.0187
45355W        W46219   7.976   1.555  28.145  0.1964 -0.0580 -0.1849
45356W        W46220  21.477  26.851  23.826 -0.1215 -0.1756  0.2249
45357W        W46221  20.076  10.658  22.558  0.2590 -0.1851  0.0122
45358W        W46222   6.060   9.925   2.961  0.0127 -0.2398  0.3391
45359W        W46223  10.033   6.068   7.060  0.0294  0.0029 -0.0429
45360W        W46224  28.406   9.379  20.690  0.0450  0.2026  0.1690
45361W        W46225   5.890  16.771  27.763 -0.0938  0.1601 -0.0489
45362W        W46226   3.195  14.646  14.695  0.0361  0.1311 -0.3270
45363W        W46227   9.515  20.439  25.760  0.2738 -0.0062  0.0541
45364W        W46228  12.133  14.415   3.905  0.1416 -0.0853  0.0027
45365W        W46229  14.694  26.666  24.240 -0.2482  0.0230  0.1394
45366W        W46230   9.591  23.802  19.179  0.0134  0.0199  0.0022
45367W        W46231  10.360  22.195  23.656  0.1399 -0.1911 -0.1823
45368W        W46232  25.342  13.774   3.695  0.0438  0.1431  0.1706
45369W        W46233   1.739   9.655   9.558 -0.1053 -0.0610 -0.0756
45370W        W46234  28.756  15.027  10.330 -0.1091 -0.3026 -0.0249
45371W        W46235  22.445   4.561   4.722  0.1077  0.2380 -0.0010
45372W        W46236  20.000  19.017   7.493  0.0538  0.2705  0.3373
45373W        W46237  16.086  14.629  18.498  0.2678 -0.0620  0.0348
45374W        W46238  14.696  20.814  26.893 -0.0347 -0.1073  0.0178
45375W        W46239   2.912   3.245  26.513  0.0757  0.0960 -0.1564
45376W        W46240   4.100  25.984   5.735  0.1765 -0.0513  0.0115
45377W        W46241  26.792   2.958  22.386 -0.1680 -0.0906  0.1790
45378W        W46242  16.543  17.716   0.212  0.0622  0.0928  0.0379
45379W        W46243  25.386  23.341   3.528 -0.0112  0.2077  0.1317
45380W        W46244   7.775   6.473  21.423 -0.1679  0.2376 -0.0269
45381W        W46245   6.488   3.281  20.131 -0.1922 -0.3410  0.1318
45382W        W46246   8.133  22.943   1.698 -0.1228  0.0932 -0.0655
45383W        W46247  27.587  23.877  11.447  0.1506  0.0460 -0.1192
45384W        W46248   8.508  25.825  24.200  0.3648 -0.0777  0.3205
45385W        W46249  23.518  18.922  10.495 -0.1324  0.0973 -0.1166
45386W        W46250  17.410   9.298  25.690  0.0148 -0.0422 -0.0173
45387W        W46251  28.691  21.606  12.537 -0.1524 -0.0004  0.2482
45388W        W46252   9.769  28.997   1.735  0.3123  0.0008  0.2951
45389W        W46253  10.570  18.964  20.476  0.1790 -0.0502  0.1226
45390W        W46254  23.366  24.898  28.462 -0.3443  0.1252 -0.2323
45391W        W46255  26.537  29.085   8.738 -0.0543 -0.2596 -0.0605
45392W        W46256  22.863  13.737  20.600  0.0849 -0.1360 -0.0474
45393W        W46257  28.771   6.074  25.530  0.0840 -0.1433 -0.1734
45394W        W46258   9.919   2.489   8.966 -0.1631 -0.1255  0.2527
45395W        W46259  26.905  20.696   7.984 -0.2025 -0.0994  0.2466
45396W        W46260   7.620  15.915  11.460 -0.0155 -0.3001  0.0894
45397W        W46261  14.313   2.047  18.615  0.3692 -0.0152 -0.0670
45398W        W46262  13.643   3.055   5.186  0.0812 -0.0560  0.1451
45399W        W46263  23.174  22.226  14.030 -0.0378 -0.0119  0.3874
45400W        W46264   5.301  13.074   0.933  0.0890 -0.1960 -0.1962
45401W        W46265   1.902   1.434   4.875  0.0588 -0.0549  0.0092
45402W        W46266  28.092  13.414  27.969 -0.0154 -0.1301  0.1070
45403W        W46267   8.831  21.120  17.151  0.0431 -0.2146 -0.1507
45404W        W46268   3.849   9.971   3.470  0.0118 -0.0361 -0.2179
45405W        W46269  22.973  13.872   2.314  0.0402 -0.0698  0.1759
45406W        W46270   3.893  18.680  24.306 -0.1868  0.1950 -0.0255
45407W        W46271  23.363   9.567  28.789  0.1858 -0.1167 -0.2170
45408W        W46272  12.817  16.872  16.470  0.0557  0.2631  0.0051
45409W        W46273  26.316  29.118  17.641 -0.3348  0.2628  0.4724
45410W        W46274  22.519  14.736   2.874  0.0606  0.0609 -0.1668
45411W        W46275  12.759  11.970   1.178 -0.0537  0.2966  0.0201
45412W        W46276   9.214   2.104  14.740 -0.3692  0.1757 -0.1134
45413W        W46277  24.179   5.106  28.315  0.1027  0.0440 -0.2550
45414W        W46278  10.229  26.414   1.571 -0.4113  0.0268 -0.1398
45415W        W46279  27.118   1.747  11.194  0.2697  0.0520 -0.0385
45416W        W46280   9.697  18.186   4.566 -0.3511  0.0881  0.3232
45417W        W46281  24.023   2.378  24.789  0.1309  0.0962 -0.1512
45418W        W46282   5.172  22.946  17.961  0.2137  0.0544 -0.1891
45419W        W46283   5.261   7.750  15.687  0.0653  0.3079  0.0789
45420W        W46284  16.625   4.398   4.758 -0.0059 -0.0758 -0.0409
45421W        W46285  25.967  14.879  22.283 -0.0196  0.0448 -0.1778
45422W        W46286  25.863  10.908  19.591  0.0144  0.1910 -0.2131
45423W        W46287  24.378   8.653   4.313 -0.0904 -0.1403  0.1399
45424W        W46288   0.161  27.524  18.029  0.1642  0.2580 -0.0583
45425W        W46289  12.760  24.476  20.762  0.0743  0.0016 -0.0743
45426W        W46290  19.453  11.626   3.137 -0.0262 -0.0098  0.0458
45427W        W46291  24.542  10.310  22.286  0.0617  0.1135 -0.1245
45428W        W46292   1.721  25.177  22.782  0.0835 -0.0666  0.0530
45429W        W46293  25.562  27.212   0.417  0.0345  0.2066  0.4031
45430W        W46294   9.072  11.167  28.749  0.0294 -0.2489 -0.0212
45431W        W46295   3.999  12.732  11.761 -0.0708  0.0378 -0.1065
45432W        W46296  12.707  16.497   0.705 -0.3874 -0.2789  0.0344
45433W        W46297   6.361  27.374   0.874 -0.0381  0.1403  0.0618
45434W        W46298  26.770  10.777   9.146 -0.1580  0.0480  0.2285
45435W        W46299  27.021   0.658  25.298  0.0484 -0.2778 -0.0877
45436W        W46300   7.395   3.805  15.872 -0.0248 -0.1837 -0.1177
45437W        W46301   3.777   8.349  18.459  0.3900 -0.1506  0.0619
45438W        W46302   9.040   4.975  19.262 -0.1378  0.0276  0.2018
45439W        W46303   2.173  20.598  13.148  0.1665  0.0618  0.3343
45440W        W46304  10.454  25.411   4.052  0.4193  0.2294 -0.1372
45441W        W46305  20.113  27.685  16.121 -0.1968 -0.1547  0.2708
45442W        W46306  26.342  17.312   2.312  0.2214 -0.2536 -0.0146
45443W        W46307   5.033  17.802  21.249 -0.0536  0.0008 -0.1103
45444W        W46308  15.505  17.298  13.146  0.0969 -0.1545 -0.2070
45445W        W46309  13.863  26.077  22.803  0.1106  0.0304  0.0882
45446W        W46310   2.510  25.433  21.748 -0.1174  0.0632 -0.2356
45447W        W46311   4.018  25.744  14.618  0.0127 -0.3534 -0.2006
45448W        W46312   8.360   0.054  18.669 -0.0857 -0.2245 -0.0087
45449W        W46313  10.820  20.213   4.380  0.2161 -0.1146 -0.1299
45450W        W46314   5.922   2.438   6.377  0.0642 -0.3191  0.1681
45451W        W46315  28.340  18.690  25.378 -0.4723 -0.3025  0.3122
45452W        W46316  10.941  12.857   4.671 -0.1946 -0.1063 -0.0981
45453W        W46317   0.323  21.099  23.676 -0.2279 -0.0614  0.0062
45454W        W46318  17.234  26.770  28.731  0.2718 -0.0667  0.0301
45455W        W46319  14.452  12.073   6.491 -0.1020  0.0009  0.1958
45456W        W46320   3.376  26.315  26.475  0.2648 -0.1869  0.0392
45457W        W46321  24.949   4.945  10.386  0.0627 -0.0228  0.0891
45458W        W46322  22.969  21.896  15.852  0.1139 -0.1142  0.1421
45459W        W46323   7.993   7.091  27.470  0.0317  0.0033 -0.5190
45460W        W46324  11.775   0.101   8.143  0.2464  0.2591  0.1769
45461W        W46325   2.432  17.945   2.454  0.3931 -0.2535  0.0781
45462W        W46326  20.831  28.326  25.160  0.2360  0.0637 -0.1104
45463W        W46327   6.318  22.587  28.751  0.0322 -0.2553  0.2054
45464W        W46328   9.770  24.955  26.099  0.1106  0.0277  0.2275
45465W        W46329   6.894   0.896  22.620  0.0356  0.2926 -0.1925
45466W        W46330   2.937  12.408  22.743  0.0196  0.0801  0.1450
45467W        W46331  13.916  10.379  13.212 -0.2903 -0.1858  0.2348
45468W        W46332   0.961   6.417  14.305  0.1015  0.5184  0.4585
45469W        W46333   6.415   8.162   7.449  0.0062  0.3408  0.1567
45470W        W46334  23.923   8.604  17.838  0.2399  0.0376 -0.3229
45471W        W46335  13.752   3.656   7.558  0.1259  0.4176 -0.0583
45472W        W46336  28.552  21.060   7.864  0.3105 -0.0708  0.2277
45473W        W46337   6.491  23.181  11.246 -0.0137  0.1858 -0.3465
45474W        W46338  11.522   6.068   2.870  0.3331 -0.0407 -0.1286
45475W        W46339  28.569  28.853   3.625  0.0407  0.0114  0.1950
45476W        W46340  15.413  23.197  28.205 -0.1399 -0.1108  0.2859
45477W        W46341  13.643  22.858   1.119  0.4043 -0.1378 -0.2999
45478W        W46342   8.059  21.523   8.482 -0.0160 -0.0551 -0.1296
45479W        W46343   3.787  13.881   2.804  0.0787 -0.0631  0.0323
45480W        W46344   9.334  26.533  24.487  0.4472  0.0174 -0.3854
45481W        W46345   3.796   6.578   2.921  0.0790 -0.0510  0.0919
45482W        W46346   1.876   1.709  12.420 -0.0127  0.0299 -0.0843
45483W        W46347   4.162  27.586  26.770 -0.2421  0.1385  0.0708
45484W        W46348   5.844   7.037  19.844 -0.0399 -0.0725 -0.0900
45485W        W46349   0.660  27.280   5.221  0.2904 -0.2888  0.0968
45486W        W46350   9.305  21.483   7.893  0.0693  0.1705  0.2968
45487W        W46351  14.178  19.385  27.087 -0.0000  0.2182 -0.2117
45488W        W46352   9.246  23.969   0.047 -0.1867  0.0526  0.0296
45489W        W46353  11.251   6.509   4.522  0.0180  0.3373 -0.3860
45490W        W46354  12.404  27.273  28.751  0.1310 -0.6338 -0.1863
45491W        W46355  17.392  20.134  21.872  0.0029  0.5346  0.2479
45492W        W46356   2.331  18.649  13.673  0.1233 -0.0436 -0.1169
45493W        W46357   2.128  14.230  17.324 -0.1997  0.0157 -0.1508
45494W        W46358  15.213   5.948  10.570 -0.0157 -0.2064 -0.2830
45495W        W46359  15.332   6.324   9.150  0.1792  0.1646  0.2287
45496W        W46360   0.730  14.959   2.095 -0.0398 -0.1240  0.0287
45497W        W46361  17.567   7.699  24.557 -0.1712 -0.1036 -0.2743
45498W        W46362   6.806  20.613  18.172  0.0672 -0.0488  0.3868
45499W        W46363   2.176  23.550   8.666 -0.0940 -0.0212  0.0157
45500W        W46364   7.195  21.486  10.629 -0.1555 -0.1821  0.1984
45501W        W46365   2.758   2.362  17.664  0.0846 -0.2589  0.0158
45502W        W46366  28.332  27.399  26.229  0.2184  0.1450  0.2331
45503W        W46367  28.498  17.175   8.591  0.2085 -0.2350  0.1597
45504W        W46368  24.054  25.714  19.084 -0.0218 -0.2775  0.2367
45505W        W46369   2.777  21.307   0.209  0.0948  0.1032  0.1720
45506W        W46370  27.419  27.466  26.623  0.0102 -0.4624  0.0049
45507W        W46371  13.969  12.871   4.938 -0.0553 -0.1608 -0.1227
45508W        W46372  17.869  19.274  24.707 -0.0470 -0.2423  0.1630
45509W        W46373   4.924  17.864  11.378 -0.0498  0.2245  0.0708
45510W        W46374  18.050  14.903  22.297 -0.1901  0.0666  0.1729
45511W        W46375  26.343  18.294  25.551  0.3041 -0.0293  0.0478
45512W        W46376  27.254  17.180  27.324 -0.2790  0.1671  0.3853
45513W        W46377  21.524   8.035   8.998  0.2241 -0.0310 -0.0060
45514W        W46378  27.962  13.299  24.083  0.0393  0.0091 -0.1068
45515W        W46379   8.432   0.238   5.242 -0.3431 -0.0764 -0.1326
45516W        W46380   8.692  28.332  18.842  0.1873 -0.0841  0.2637
45517W        W46381   0.374   8.098  16.512 -0.0686  0.1020 -0.1638
45518W        W46382  11.916  23.463  11.721  0.0727 -0.1183 -0.0265
45519W        W46383   9.700  17.992  16.940  0.0411 -0.6597 -0.0005
45520W        W46384  12.623  18.176   0.917  0.1955 -0.4289 -0.1301
45521W        W46385   2.623   1.879  12.030  0.1683  0.1295  0.2337
45522W        W46386   4.460  19.836  14.265  0.1110 -0.3183 -0.1963
45523W        W46387  13.557  26.155  18.529 -0.3187  0.2912  0.0820
45524W        W46388   1.178  27.836  10.650  0.0054 -0.0432  0.0413
45525W        W46389  20.684  26.438   2.872 -0.0312  0.0761 -0.1303
45526W        W46390  20.221  10.723   1.518 -0.0400  0.1152 -0.0067
45527W        W46391   1.240  28.984   7.543 -0.0839 -0.0720  0.0606
45528W        W46392  13.686  24.049   0.027 -0.2275 -0.0661 -0.0460
45529W        W46393  24.932   8.617   6.134 -0.1554 -0.3363 -0.3809
45530W        W46394  28.460   1.509  23.735 -0.2446  0.0968  0.7351
45531W        W46395  16.868  18.509   5.810 -0.1886 -0.1370  0.1724
45532W        W46396   2.194   6.634  10.969 -0.2014  0.1324 -0.3848
45533W        W46397  13.892  13.821  12.027 -0.4147  0.0149 -0.2587
45534W        W46398   2.463  16.630  16.378  0.0484 -0.0060 -0.0868
45535W        W46399  17.840  26.640   7.580 -0.1933 -0.1053 -0.2758
45536W        W46400   8.548   6.890   8.975 -0.0858 -0.1726  0.0996
45537W        W46401   6.524  14.191   8.689 -0.2088  0.1071  0.1157
45538W        W46402  26.762  22.821  24.533  0.1657 -0.1532 -0.1104
45539W        W46403  28.295  12.302   7.067  0.1802 -0.4010  0.2126
45540W        W46404  11.724   3.995  16.587  0.3343  0.1377  0.0838
45541W        W46405  29.000  28.721  26.320  0.0331  0.1513 -0.1979
45542W        W46406  16.613  20.335  24.837 -0.0960  0.2363 -0.0492
45543W        W46407  17.832   7.364   7.490  0.1110 -0.0136 -0.0925
45544W        W46408  19.636  16.890   6.913 -0.3442  0.1207  0.1391
45545W        W46409   6.037  20.492  28.725 -0.2308 -0.2398 -0.1124
45546W        W46410  15.348  21.275  23.290 -0.1507  0.0045 -0.0600
45547W        W46411  17.711  22.455   8.539 -0.0865  0.4311  0.2230
45548W        W46412  22.154  20.285  18.008  0.0639 -0.0647  0.4461
45549W        W46413  26.840   4.204  16.939  0.0646  0.0765  0.4141
45550W        W46414   4.227  10.363   8.715 -0.1279  0.1603 -0.0985
45551W        W46415   4.884  25.460  15.242 -0.2036  0.2822 -0.0950
45552W        W46416  26.288   5.493  11.249  0.0064  0.3488  0.0305
45553W        W46417  13.758  26.053   2.559 -0.1873 -0.2320 -0.0741
45554W        W46418  20.644   5.171  25.801 -0.1818  0.1195 -0.0525
45555W        W46419   2.310   3.126  27.540 -0.0452  0.4930 -0.0134
45556W        W46420  26.828   0.715   2.628 -0.1767 -0.0576  0.0849
45557W        W46421  15.965   6.409  27.905 -0.0343 -0.1109 -0.1427
45558W        W46422  19.143   2.085   1.877 -0.1392  0.0108 -0.3665
45559W        W46423  28.809  26.656  18.318  0.1395 -0.0984 -0.0193
45560W        W46424  10.047  18.461  28.580  0.0619 -0.1558 -0.0762
45561W        W46425   8.754  21.688  15.258  0.0571  0.2346  0.0164
45562W        W46426   7.138   6.453   3.495  0.1967  0.0567 -0.1931
45563W        W46427   9.301  19.539  28.392 -0.1186  0.0949  0.0238
45564W        W46428   8.339  17.363   1.725 -0.0846  0.0831  0.0756
45565W        W46429   5.421  19.159   6.862 -0.0849  0.2507 -0.2376
45566W        W46430  10.125   1.153   5.061 -0.0907  0.3226 -0.1742
45567W        W46431   2.134   3.033  22.243  0.0861 -0.2107 -0.0931
45568W        W46432   5.746   6.357   3.175 -0.1223  0.2645  0.1049
45569W        W46433  13.072  19.624  11.278  0.1750 -0.0235  0.3792
45570W        W46434   4.775   3.185  26.409 -0.2417  0.4241  0.3574
45571W        W46435   4.989  19.677  10.012 -0.1740  0.1142  0.3329
45572W        W46436  27.454   8.777   3.298 -0.4088 -0.0161 -0.0456
45573W        W46437   0.524  17.339   1.632 -0.1988  0.1463 -0.0585
45574W        W46438   2.712  20.527   9.340 -0.0856  0.0633 -0.4046
45575W        W46439   4.522  14.303   1.589 -0.3552 -0.1268 -0.0259
45576W        W46440  16.600  20.600   4.151  0.0539 -0.0203 -0.0749
45577W        W46441  23.302  11.247   5.438 -0.0633 -0.2991 -0.0175
45578W        W46442  23.291   9.735   3.743 -0.2616  0.0128 -0.0836
45579W        W46443  27.499  24.764   4.176 -0.1037  0.1896 -0.1669
45580W        W46444   1.927  23.482   2.569 -0.0932  0.5718  0.3907
45581W        W46445  14.039   4.599  22.543 -0.1691 -0.0078  0.1400
45582W        W46446  10.731  28.581   1.613 -0.3072 -0.1949  0.0242
45583W        W46447  10.542   0.521   5.012  0.2140 -0.3904 -0.0995
45584W        W46448   6.763   6.782   7.960  0.0671 -0.0390  0.1365
45585W        W46449  24.554  22.534   0.739  0.0030  0.1259 -0.1807
45586W        W46450  26.097  10.422  12.279  0.0729 -0.0768  0.0485
45587W        W46451   3.565  15.784   3.538 -0.0810  0.2525 -0.0630
45588W        W46452   0.315  21.164  10.116 -0.0980  0.2653 -0.1947
45589W        W46453   2.623  27.167   7.959 -0.1327  0.0703  0.2370
45590W        W46454   0.212  29.142  28.249  0.0957 -0.1343 -0.1338
45591W        W46455  12.275  18.240   3.753 -0.1066 -0.2398  0.3095
45592W        W46456  27.396  17.192   9.816  0.1715  0.0816  0.1326
45593W        W46457   0.112   7.628  15.869  0.0981 -0.2917 -0.1105
45594W        W46458   6.004  27.046   0.045 -0.0553  0.1457 -0.0482
45595W        W46459   8.018  14.685   9.262  0.3469  0.2752  0.0364
45596W        W46460  25.125  16.972  25.008 -0.1207 -0.2293 -0.0074
45597W        W46461   7.789  13.251   0.541 -0.1317 -0.1465  0.0937
45598W        W46462   7.659   7.856  12.789 -0.0204 -0.3189  0.3148
45599W        W46463  16.647  20.343  20.268 -0.3017  0.1097 -0.2292
45600W        W46464   8.337  21.859   4.956  0.3812 -0.0331 -0.3152
45601W        W46465   8.217  15.827  26.713  0.1896  0.0115  0.1056
45602W        W46466  15.396   8.348  11.292 -0.1999  0.0528  0.0547
45603W        W46467  15.774  27.801   9.934 -0.0768  0.3153  0.0020
45604W        W46468   9.252  26.015  23.791 -0.1983  0.4293 -0.1875
45605W        W46469  11.040  15.591  19.748 -0.1527  0.1597 -0.1521
45606W        W46470   4.142   8.039   3.810 -0.1209  0.0942 -0.0865
45607W        W46471   6.247   7.623  13.935  0.1741  0.0172 -0.0322
45608W        W46472  10.112  22.543  25.340  0.0267 -0.3075 -0.1994
45609W        W46473   9.228  14.521  10.338  0.0415  0.0635  0.0769
45610W        W46474  28.855  19.851  12.136  0.1835 -0.0428 -0.2762
45611W        W46475   0.773   5.659  19.002 -0.0451  0.2316 -0.0795
45612W        W46476  15.622   3.093   3.213  0.2345 -0.0427  0.2688
45613W        W46477  17.312  15.832  10.137 -0.1388  0.1544  0.0774
45614W        W46478   1.121   2.675  14.175 -0.1746 -0.2372  0.0294
45615W        W46479  24.783  13.077   2.828 -0.1714  0.2241  0.1062
45616W        W46480  28.862   8.372   5.372 -0.0980  0.0038  0.3533
45617W        W46481  13.101  14.928  11.616 -0.1425  0.0777 -0.1280
45618W        W46482  22.380  10.255  11.003  0.0161  0.0396  0.1326
45619W        W46483   7.435  28.379   4.805  0.1334 -0.3670  0.1187
45620W        W46484  13.461  21.409  15.825 -0.0077 -0.3349 -0.1684
45621W        W46485  28.295  22.973  24.664 -0.0978 -0.1246  0.1310
45622W        W46486  13.716  27.145   5.700  0.0220  0.1845  0.1748
45623W        W46487  11.665  13.204  10.762  0.1867  0.2185 -0.0130
45624W        W46488   2.052  24.266  26.955 -0.2351  0.2428  0.0144
45625W        W46489  28.157  22.636   0.032 -0.1389  0.1889  0.0481
45626W        W46490  17.441   5.208  24.673  0.0721  0.0359  0.1151
45627W        W46491   9.372  20.286  14.058 -0.2379 -0.0390  0.1056
45628W        W46492  28.768  24.612  29.058  0.1220  0.1770 -0.0575
45629W        W46493   2.467  14.146  15.639  0.0670 -0.1243 -0.3793
45630W        W46494  22.822  24.347  23.908 -0.0140  0.1438  0.2711
45631W        W46495  18.046  23.631  24.414 -0.3370  0.2333  0.1903
45632W        W46496  13.730  27.603   5.655  0.0682  0.1759  0.2471
45633W        W46497  11.419   1.796   3.559 -0.0986 -0.0695  0.2016
45634W        W46498  17.534   5.805   4.845  0.0245  0.2415 -0.0302
45635W        W46499   2.396  26.462  22.801  0.1365  0.1211  0.4277
45636W        W46500  19.737  27.867   0.912  0.0046 -0.1636 -0.0942
45637W        W46501   7.545  21.770   0.553 -0.0926  0.3448  0.3445
45638W        W46502  21.917   2.843   8.901  0.0781 -0.0236  0.1310
45639W        W46503  11.341  22.831  25.703  0.2063  0.1054  0.0910
45640W        W46504   4.244  10.749   3.582 -0.1102  0.0390  0.0577
45641W        W46505   3.484  28.912   8.098 -0.1410 -0.0679  0.1482
45642W        W46506   9.486  18.822   1.837 -0.5022  0.1746  0.0078
45643W        W46507  12.092   7.193  10.961  0.0489 -0.0600  0.1202
45644W        W46508  23.322   1.588   7.920  0.1524  0.3418  0.1443
45645W        W46509  26.964  19.913  28.054 -0.0632  0.1590 -0.3486
45646W        W46510   1.708   0.829  18.451  0.0329  0.2752  0.2960
45647W        W46511  12.527  10.850   3.130  0.3009  0.2425 -0.0990
45648W        W46512   4.827  13.641  12.605 -0.0227 -0.0158 -0.0562
45649W        W46513   6.336  23.630  20.050  0.2496 -0.0962  0.1380
45650W        W46514   3.417  21.411  11.284 -0.0917 -0.2332 -0.2746
45651W        W46515  18.480   0.146  12.288  0.3039 -0.0755  0.4518
45652W        W46516   4.256  25.960  10.482  0.2618  0.0293  0.3025
45653W        W46517  19.991   0.279   2.086  0.1462 -0.2299 -0.0477
45654W        W46518   4.180  24.810  17.903  0.0279  0.0724 -0.1137
45655W        W46519  18.362   5.399  20.279  0.2246  0.0769 -0.1851
45656W        W46520  18.615   1.547  13.059  0.0070 -0.1356 -0.1675
45657W        W46521  14.080  29.131  21.149  0.1325  0.1738 -0.0862
45658W        W46522  14.935  19.694  25.856  0.3468  0.1966  0.2191
45659W        W46523  15.982  25.500  17.757 -0.3322  0.0254  0.0096
45660W        W46524  14.278  24.127  20.207  0.0533 -0.3828  0.0344
45661W        W46525   5.658   6.085   5.568  0.2896  0.1092  0.1347
45662W        W46526  18.437   5.971  24.248  0.2658 -0.2661  0.2090
45663W        W46527   1.649  21.018   4.183  0.0036 -0.3762 -0.0491
45664W        W46528   1.629   6.289   3.750  0.1279 -0.1929 -0.4558
45665W        W46529   4.274  23.328  15.900 -0.0188  0.3747 -0.1294
45666W        W46530  22.301  27.476  20.751 -0.0332  0.2004 -0.0283
45667W        W46531  28.677  26.547   9.236  0.0017 -0.1586  0.1447
45668W        W46532   0.048   0.371   6.707 -0.2619  0.0589  0.1715
45669W        W46533  14.900  14.408  20.333 -0.2071 -0.1105  0.0572
45670W        W46534   5.078  27.056   7.382  0.3353  0.0148  0.2599
45671W        W46535   4.561  16.855   0.490 -0.3391 -0.1983 -0.0205
45672W        W46536  28.917  23.679  11.790 -0.0106 -0.0321 -0.5502
45673W        W46537   9.746   0.075  18.391 -0.0343  0.0009  0.2214
45674W        W46538  25.229  26.041   4.879 -0.0844  0.0971  0.0835
45675W        W46539  17.492   8.165  24.429  0.0909 -0.1255  0.2723
45676W        W46540  24.455  18.643   9.091  0.0467 -0.1101 -0.1133
45677W        W46541   8.775   3.681   8.532  0.0422 -0.1742  0.2766
45678W        W46542  12.875  27.759  28.086  0.1630 -0.0169 -0.0645
45679W        W46543  14.090   5.062  15.146  0.2321  0.0580 -0.0715
45680W        W46544   5.698  23.578  11.618 -0.2044 -0.1551 -0.2908
45681W        W46545  20.172  20.151  13.074 -0.0968  0.0519 -0.0582
45682W        W46546  25.483   4.540   3.992 -0.1786 -0.2630 -0.0294
45683W        W46547   8.239   5.757  27.114 -0.0400 -0.2710 -0.1392
45684W        W46548   6.104  21.781  11.433 -0.2017 -0.0569 -0.1046
45685W        W46549  19.359   1.983  18.057  0.1264 -0.2707  0.2606
45686W        W46550   0.091   3.276   5.468 -0.4461 -0.0070 -0.1557
45687W        W46551   4.066   4.375  23.789  0.0537 -0.1240 -0.4908
45688W        W46552  11.053  22.402  14.461 -0.2625 -0.0918  0.4637
45689W        W46553  15.876  22.745  18.652  0.0782 -0.1056 -0.1381
45690W        W46554   1.631  21.748   5.881  0.1266  0.1452  0.4108
45691W        W46555  22.525  21.453   9.336  0.1360 -0.1076  0.0665
45692W        W46556  16.512  10.258  20.240  0.2240  0.3952  0.0435
45693W        W46557  11.214   7.382  25.761  0.1454  0.1544  0.0900
45694W        W46558  12.973   2.753   8.525 -0.1748  0.0483  0.1177
45695W        W46559  20.042  20.052   5.349 -0.3044  0.2357  0.0344
45696W        W46560  24.858  14.660  10.758  0.0606 -0.0336  0.0498
45697W        W46561  21.440  28.164   5.664 -0.1027 -0.2330 -0.1337
45698W        W46562  25.525  22.599   7.969 -0.0482 -0.0284  0.0797
45699W        W46563   6.670  25.614   2.263  0.1345 -0.0242  0.1083
45700W        W46564  16.781  14.571   4.037 -0.1269 -0.0029 -0.0314
45701W        W46565  19.753  26.067   9.284  0.0121 -0.0279  0.0609
45702W        W46566  11.370   2.150   7.193  0.2386  0.2334  0.1198
45703W        W46567  21.198   0.823  17.114  0.2636  0.3563  0.0385
45704W        W46568   2.780  19.009  12.287  0.1601 -0.0238 -0.4427
45705W        W46569   7.199  28.865  25.939  0.4261  0.0463 -0.0796
45706W        W46570   1.349   4.903  11.354 -0.3369 -0.2566 -0.2778
45707W        W46571  13.533   1.836  28.978 -0.0280  0.1596 -0.1401
45708W        W46572  12.670  27.289  17.467  0.0484 -0.1359 -0.1154
45709W        W46573  29.011  28.378   3.247  0.1190  0.1489 -0.0784
45710W        W46574  19.190  25.183  17.393  0.0884 -0.4378  0.1924
45711W        W46575   7.595   5.446  15.228 -0.1320  0.1589 -0.3293
45712W        W46576  23.095  20.376   5.421 -0.0534  0.1966  0.1573
45713W        W46577   4.123  25.503  22.929  0.0780 -0.2241 -0.0534
45714W        W46578  26.891   4.958   6.382  0.0156 -0.1250  0.2137
45715W        W46579  28.852   0.466   0.343 -0.3117 -0.1052  0.2860
45716W        W46580  20.907  19.950  18.336  0.2261 -0.2191 -0.2603
45717W        W46581  11.377  18.271  21.822  0.0860  0.1135  0.0626
45718W        W46582  16.081   2.971   5.131 -0.4538 -0.2572 -0.0416
45719W        W46583   7.312  16.457  27.782 -0.3270 -0.0189 -0.0338
45720W        W46584  13.506  26.500  12.441  0.0099  0.1333  0.1355
45721W        W46585   7.337  16.210   8.193 -0.1416  0.0756 -0.0784
45722W        W46586   5.863  21.653   7.163 -0.1914  0.4314  0.0529
45723W        W46587   9.410   3.571  12.739 -0.1021  0.0102 -0.1595
45724W        W46588  15.549  22.896  24.287  0.0402 -0.2968  0.2317
45725W        W46589  22.665  18.516   2.514 -0.0206  0.1533 -0.0332
45726W        W46590   0.378   1.511  20.550  0.1380 -0.1292 -0.2084
45727W        W46591  18.824   0.160   4.552  0.3003 -0.2026 -0.2133
45728W        W46592  28.672  21.978   1.701 -0.1629 -0.0623  0.1200
45729W        W46593  14.181  24.960  10.737 -0.0640  0.1363  0.1089
45730W        W46594   0.935  21.828  26.770 -0.0041 -0.3805 -0.0170
45731W        W46595  27.521  20.709  27.104 -0.1689 -0.0668  0.3224
45732W        W46596  24.410   3.678   7.338  0.2233  0.1887  0.0046
45733W        W46597   3.161  23.143   8.297 -0.2466 -0.0358 -0.2709
45734W        W46598  16.709  27.121  13.924  0.1711  0.2313 -0.0130
45735W        W46599  16.425  22.861  18.606 -0.1124 -0.0851 -0.1780
45736W        W46600   5.746   7.615  23.193  0.0012 -0.1104  0.1202
45737W        W46601  25.709  15.240   3.036 -0.3425  0.2021 -0.2074
45738W        W46602   5.918  27.769  17.819 -0.0075  0.2042 -0.1369
45739W        W46603  19.438  19.256   0.173 -0.1500  0.2437 -0.1518
45740W        W46604   7.900   0.113  14.669 -0.0834 -0.0918  0.0133
45741W        W46605   4.163  28.322   8.081 -0.0762  0.1824  0.1433
45742W        W46606  11.872   0.128   6.978  0.0567  0.2594 -0.1879
45743W        W46607  28.903   1.448   9.784  0.2072 -0.0701  0.4319
45744W        W46608  16.287  19.446   5.908 -0.1781  0.0895 -0.0151
45745W        W46609  16.998  18.856  27.402  0.4928 -0.0685 -0.2269
45746W        W46610  12.277  14.521   7.006 -0.0142 -0.1182 -0.0419
45747W        W46611  27.557  26.141  20.324 -0.0295 -0.1821 -0.0914
45748W        W46612  17.533  13.067  28.971  0.0421  0.1110 -0.1558
45749W        W46613  14.672   9.306  28.761 -0.0627  0.4203  0.0983
45750W        W46614   0.610  11.361   7.385 -0.2225  0.3575 -0.1381
45751W        W46615  16.471  22.615  28.633 -0.1437  0.0075  0.0727
45752W        W46616  10.461  14.375   4.144 -0.0800  0.0813 -0.1969
45753W        W46617  12.025  25.989   7.342 -0.0767 -0.0716 -0.0980
45754W        W46618   6.570  26.616  17.654 -0.0526  0.1615  0.1251
45755W        W46619  16.614  22.969  11.965  0.2903  0.1914  0.0812
45756W        W46620   2.209  15.777   0.752 -0.2421 -0.3761 -0.1643
45757W        W46621   9.220   9.117  22.038  0.0553  0.0266  0.2425
45758W        W46622  14.161  22.177  21.526  0.2158  0.1674  0.0916
45759W        W46623  24.003  22.611  21.571 -0.1283 -0.0409 -0.0454
45760W        W46624   5.955  16.474  17.278 -0.1673 -0.1428 -0.2231
45761W        W46625   6.186  13.930  26.442  0.2225  0.1660 -0.1350
45762W        W46626   0.375   9.473  25.802 -0.1651  0.1715 -0.0668
45763W        W46627   4.434   4.829   5.071  0.0362 -0.0859 -0.2604
45764W        W46628   4.074  12.393   9.589  0.4312 -0.2062 -0.0901
45765W        W46629  29.111  26.492  25.443  0.1935  0.6069 -0.1316
45766W        W46630   8.740  26.767   7.808 -0.2835  0.1668  0.2318
45767W        W46631  12.899  20.018  14.876 -0.0348 -0.0360 -0.0416
45768W        W46632  28.922  24.839  10.120 -0.1611  0.1675  0.0349
45769W        W46633   1.398  12.359  23.789  0.0115  0.0040 -0.0193
45770W        W46634   2.817  25.346  10.065 -0.0106 -0.2654  0.0994
45771W        W46635   8.062  23.376  13.300  0.1429  0.0411  0.1300
45772W        W46636   3.771   7.641  14.031 -0.0786  0.1944  0.2717
45773W        W46637   1.520  20.496  11.409 -0.0138 -0.1443  0.1753
45774W        W46638  19.338   1.015   5.370 -0.1291  0.1384 -0.6779
45775W        W46639  28.949  12.122   7.478  0.1779 -0.0549  0.0942
45776W        W46640  12.973  16.998  15.098  0.2439 -0.1108 -0.3674
45777W        W46641   3.708   3.240  26.918 -0.2582  0.1901  0.1876
45778W        W46642   1.340  12.970   7.167  0.1834  0.0845  0.0185
45779W        W46643   8.431   2.410  14.055  0.1003  0.0017 -0.0649
45780W        W46644   3.150  20.881  19.353 -0.1442  0.2983  0.0725
45781W        W46645  24.130  11.525   9.897 -0.1373  0.3949  0.0181
45782W        W46646   9.965   2.330   3.893 -0.0367 -0.0850 -0.0737
45783W        W46647   7.353  16.186  27.285  0.3294 -0.0121 -0.3048
45784W        W46648  24.767   6.751   5.607 -0.1319  0.0076 -0.2205
45785W        W46649  18.106  13.686  27.569  0.0141  0.0263  0.0128
45786W        W46650  11.504  25.734  13.381 -0.1978  0.2820  0.0216
45787W        W46651  16.600  23.801   0.913  0.2302  0.2401 -0.0107
45788W        W46652  27.670   7.638  21.444  0.0039  0.2905 -0.1182
45789W        W46653   4.038   4.458  26.140 -0.0771  0.0565  0.1287
45790W        W46654  18.431  15.653  15.670  0.2313 -0.1386 -0.0301
45791W        W46655   5.829  28.347  17.099 -0.1695 -0.0579  0.1433
45792W        W46656  13.350  14.047   4.259  0.0929  0.1993  0.4821
45793W        W46657  29.061  18.309  13.356  0.3349  0.3576  0.0041
45794W        W46658   7.331  11.920  24.943 -0.2274  0.4091 -0.0815
45795W        W46659  11.981   4.091  16.030 -0.1730 -0.1455  0.2137
45796W        W46660  17.035   5.847   4.967 -0.1426  0.0102 -0.1247
45797W        W46661  27.817  19.747   2.353 -0.0482 -0.2807  0.0239
45798W        W46662  18.392  27.086   2.457  0.0777 -0.0538  0.0748
45799W        W46663  16.824   8.823   2.999  0.3570  0.1292 -0.2566
45800W        W46664  27.221  10.404  25.789 -0.1764 -0.2288 -0.1605
45801W        W46665  26.192  28.756  17.292  0.1306 -0.1078  0.0622
45802W        W46666  10.035  18.665   5.430  0.0009 -0.0148 -0.0330
45803W        W46667   1.992  16.200  24.074 -0.1364  0.1010 -0.1160
45804W        W46668  28.553   4.668  23.245  0.2803 -0.0245 -0.3364
45805W        W46669   8.852  28.451  22.484 -0.0915 -0.1434  0.0622
45806W        W46670   3.143   5.009   7.051  0.1427 -0.0999  0.0889
45807W        W46671   7.126  27.921  24.538 -0.1376  0.0164 -0.0104
45808W        W46672  19.340  21.736   9.442  0.1910  0.4024 -0.0400
45809W        W46673  12.040  21.500   5.408 -0.1153 -0.0951 -0.1933
45810W        W46674   5.056   0.155  15.197  0.0116  0.1139 -0.0475
45811W        W46675  14.859   6.792  18.648 -0.0193 -0.0806 -0.1165
45812W        W46676   0.434  20.875  21.622 -0.2809 -0.0071  0.1421
45813W        W46677  11.435   7.828  10.453  0.1084 -0.2171  0.2381
45814W        W46678   9.112  15.152  26.629  0.0835 -0.1915 -0.0247
45815W        W46679   4.657   2.081  11.103 -0.3463  0.1414  0.1712
45816W        W46680   0.349  13.903  14.407 -0.1593 -0.0413 -0.1719
45817W        W46681  15.873  19.600   7.800  0.1461 -0.2405 -0.4776
45818W        W46682  18.700  19.998  21.326 -0.0461  0.1209 -0.0884
45819W        W46683  19.350  20.074  23.831 -0.3056  0.3097  0.3004
45820W        W46684   1.419  17.804   8.451 -0.0085 -0.2398  0.1945
45821W        W46685  24.959   4.833  28.543  0.0076 -0.1974 -0.0324
45822W        W46686  27.922   0.550  21.541  0.1639 -0.1965 -0.0833
45823W        W46687  14.036   5.190   6.034  0.0983  0.0666  0.0987
45824W        W46688   0.698  12.505  16.012  0.1485 -0.2723  0.0309
45825W        W46689   6.602   6.531  19.697  0.1955 -0.0174 -0.0737
45826W        W46690   1.678   1.074  13.570 -0.2143 -0.0895 -0.1251
45827W        W46691  10.927  28.004   4.830 -0.1314  0.1612 -0.0929
45828W        W46692  23.268  21.910  25.429  0.0923  0.1580  0.0207
45829W        W46693  18.455  11.055  16.708 -0.1002 -0.0299  0.2572
45830W        W46694  17.584  21.840  18.660 -0.1770  0.1050 -0.0946
45831W        W46695   6.922  24.854   1.282 -0.0301 -0.1350 -0.0815
45832W        W46696  27.493  15.198   4.827 -0.1981 -0.0960  0.0116
45833W        W46697   4.370   3.655   1.082  0.1571 -0.1483 -0.0429
45834W        W46698  28.166  13.232  23.574 -0.1985 -0.0569  0.0158
45835W        W46699  20.965  27.418   8.059 -0.0298  0.1072  0.0636
45836W        W46700  13.876   6.452  23.331 -0.1423  0.2599  0.0314
45837W        W46701   9.176  13.743  20.707  0.2202  0.3494  0.0060
45838W        W46702  14.353  20.294  19.020 -0.0577 -0.2595 -0.2247
45839W        W46703   0.510  16.311   8.564  0.0756  0.0940 -0.1259
45840W        W46704  20.144  10.452   0.695  0.1845 -0.2823  0.1145
45841W        W46705  18.676   0.829  17.410 -0.1767 -0.0019  0.1053
45842W        W46706  13.652  24.326  25.933  0.2074 -0.4054  0.0699
45843W        W46707  22.484   9.230  11.235  0.3211 -0.1586 -0.1044
45844W        W46708   7.805  27.254  17.207  0.1804  0.1452  0.3162
45845W        W46709   3.978  12.821  14.239 -0.1574  0.3998 -0.0196
45846W        W46710   1.177   5.561   8.931  0.2226  0.0587 -0.3105
45847W        W46711  13.329  22.307  16.415 -0.1541  0.0547  0.1278
45848W        W46712   8.581  20.127  16.110 -0.1229  0.0919  0.2706
45849W        W46713   9.804  20.103   8.140  0.1931 -0.1217  0.1415
45850W        W46714   6.194  27.516  15.091  0.2569 -0.0768  0.4605
45851W        W46715  15.120  17.078  27.350 -0.0113 -0.1957 -0.1798
45852W        W46716   6.534  12.596   0.732 -0.0768 -0.1079  0.0210
45853W        W46717  25.296  12.272   0.713  0.0078  0.0894 -0.2467
45854W        W46718   5.538  12.432  26.383  0.0650  0.0024  0.0061
45855W        W46719   5.923   5.077   2.947 -0.0653  0.1217 -0.2264
45856W        W46720  11.066   0.206  19.443 -0.0893  0.1211 -0.1736
45857W        W46721   8.998  13.858  17.575 -0.0248  0.1979 -0.1090
45858W        W46722   8.089  19.863  18.612 -0.0851 -0.0114  0.0690
45859W        W46723   2.433  15.599  10.594  0.2378 -0.2945  0.1674
45860W        W46724  29.124  17.971  10.546 -0.0096  0.2774 -0.1736
45861W        W46725  23.463  26.422  25.204  0.0709  0.1186 -0.2980
45862W        W46726   1.770   4.233   2.292  0.0396  0.0023 -0.2659
45863W        W46727  28.342  21.718  14.245  0.1363  0.0581  0.2303
45864W        W46728   4.512  20.924   9.238  0.2978 -0.4815  0.1489
45865W        W46729  16.274   3.467  24.200  0.3306  0.2369 -0.1367
45866W        W46730  25.810   3.246   7.028 -0.3088 -0.3193  0.3384
45867W        W46731  13.808  26.986  14.171  0.0497  0.0126 -0.0312
45868W        W46732   3.351  15.075  18.505  0.0957  0.3038 -0.0584
45869W        W46733  15.399  22.630  22.851 -0.2217  0.0214 -0.2003
45870W        W46734  11.890   6.317  23.404 -0.0976 -0.0994  0.0594
45871W        W46735  11.398  19.460  13.241  0.0350 -0.0014  0.2330
45872W        W46736  13.690  27.613   0.711 -0.1516  0.0724  0.0065
45873W        W46737   6.074  28.030   6.496 -0.3768 -0.3738 -0.1338
45874W        W46738  15.533   9.732   8.625 -0.2730 -0.0573 -0.1674
45875W        W46739   5.931   9.691   9.363  0.1126  0.4988  0.0066
45876W        W46740   1.653  12.215  10.439  0.0975 -0.1449 -0.3365
45877W        W46741  29.049  11.137   5.006  0.1625  0.0678 -0.1565
45878W        W46742   6.678  10.810   4.713 -0.1321  0.1407 -0.0487
45879W        W46743  11.626  18.152   8.263 -0.2595 -0.1765  0.1656
45880W        W46744  22.165   2.029  23.991  0.1668 -0.0661 -0.2553
45881W        W46745   4.558   0.334  14.974  0.4224 -0.0177  0.0034
45882W        W46746   7.908  17.531   4.382 -0.0157  0.4033 -0.0309
45883W        W46747  14.951  14.971   9.051  0.0461 -0.1126  0.1424
45884W        W46748  27.900  26.415  20.006 -0.0716 -0.1978  0.3005
45885W        W46749   1.818  26.809  19.205 -0.2607 -0.1030 -0.2503
45886W        W46750   5.861  11.320  20.579 -0.4810  0.3738 -0.2335
45887W        W46751   1.128  21.583  23.703  0.1074  0.1544 -0.0820
45888W        W46752  17.207  17.931   8.019  0.0430 -0.0020  0.1047
45889W        W46753  27.885   8.545  18.693 -0.0785 -0.0899 -0.0753
45890W        W46754  18.166  14.392   7.287  0.1397 -0.1014  0.2127
45891W        W46755  14.438  22.413  26.715  0.0179  0.0633  0.1328
45892W        W46756   7.028  19.089   7.926 -0.0625  0.0705 -0.0629
45893W        W46757  13.629  13.113  18.699 -0.0813 -0.2990 -0.0516
45894W        W46758  26.370  25.350   8.673 -0.0376 -0.1241 -0.3263
45895W        W46759  25.429   8.299   7.156 -0.0755  0.2784 -0.1193
45896W        W46760   8.027  10.372  14.859 -0.2633 -0.0361 -0.1398
45897W        W46761  17.048  14.226  26.284 -0.0759  0.0687  0.1240
45898W        W46762  11.553  22.300  24.540  0.0685  0.1802  0.0894
45899W        W46763  25.503  12.549  27.688 -0.1765  0.0793 -0.0544
45900W        W46764  29.071  21.859  27.086 -0.0741 -0.0562  0.1516
45901W        W46765   8.460  28.394   0.133  0.3464  0.0150  0.0754
45902W        W46766  17.638  16.193   6.004  0.1999  0.3474  0.1644
45903W        W46767  14.181   0.014   3.024 -0.0817  0.3698  0.3631
45904W        W46768  14.912  28.939   3.626  0.0062  0.0086  0.0365
45905W        W46769  27.422  20.198  27.861 -0.2929 -0.1181  0.0432
45906W        W46770  10.584  18.202  24.159 -0.2390  0.0259 -0.0730
45907W        W46771  23.646  26.400   9.569 -0.1230  0.1364 -0.0737
45908W        W46772  11.828  24.058   8.756 -0.0213  0.1785  0.1799
45909W        W46773  13.853   5.104   6.823  0.1423 -0.2155 -0.0692
45910W        W46774   0.103  28.139  24.802  0.1997 -0.0800  0.2408
45911W        W46775  15.849  24.985  25.936  0.3721 -0.0132 -0.2258
45912W        W46776   1.191   2.031  15.301 -0.2747 -0.0587 -0.0441
45913W        W46777   2.067  23.530   7.270 -0.2156 -0.0378  0.0451
45914W        W46778   7.998  16.807  12.431 -0.0460 -0.1751  0.4944
45915W        W46779   1.027   8.786  14.845 -0.0542 -0.2223  0.1711
45916W        W46780   9.737  26.809  25.430  0.0833  0.0413 -0.2770
45917W        W46781  15.224   2.762   3.187  0.1413 -0.1051 -0.1067
45918W        W46782  13.549  19.249   6.124 -0.0925  0.1381  0.3041
45919W        W46783  15.991  25.164  15.916 -0.0846  0.0742 -0.0230
45920W        W46784   2.690  22.552  16.122  0.0253 -0.2189 -0.0375
45921W        W46785  11.543  25.724  14.310  0.0801 -0.0978 -0.0980
45922W        W46786  11.200  21.215  17.108  0.1221  0.0466 -0.1723
45923W        W46787  24.047   0.281   2.419  0.2596  0.1472 -0.0727
45924W        W46788  12.855   1.031  12.240  0.1224  0.1308  0.1553
45925W        W46789   3.341  22.608   2.278  0.0768 -0.0771  0.1421
45926W        W46790  15.343  19.638  11.966  0.2165 -0.1577 -0.1919
45927W        W46791   7.450  26.532  10.828  0.0460  0.1509  0.1027
45928W        W46792  10.570  19.653  11.263  0.0142 -0.0309  0.2783
45929W        W46793   7.707  18.512   4.287 -0.0893 -0.0889 -0.0763
45930W        W46794   5.345  22.534  10.961 -0.2195 -0.1251 -0.1124
45931W        W46795  15.352  24.068  25.547  0.1589 -0.1759 -0.1810
45932W        W46796  12.892  13.645  27.269  0.1160 -0.0501 -0.0083
45933W        W46797  10.297   8.039   6.245  0.2581 -0.0216 -0.2745
45934W        W46798  20.887  26.023  22.915 -0.0063  0.0382  0.1823
45935W        W46799  17.981  12.239  19.710  0.3483  0.0260  0.0097
45936W        W46800  14.985  13.086  23.283  0.3503 -0.1032  0.3061
45937W        W46801  20.733  27.127  12.666  0.2456  0.3064  0.0856
45938W        W46802   7.549  23.770  28.306 -0.2409 -0.1228 -0.0379
45939W        W46803  10.790  19.933  20.216  0.0165  0.0990  0.1137
45940W        W46804  17.933  22.220   1.233  0.1696  0.1424  0.3172
45941W        W46805   9.613  27.975   7.316 -0.1865 -0.4219  0.0737
45942W        W46806  10.412  25.938  15.898  0.2116  0.0009  0.1271
45943W        W46807  25.260   7.301   4.108 -0.4874  0.0180 -0.0605
45944W        W46808  24.140   3.559   7.770  0.1194 -0.0076  0.0971
45945W        W46809   4.713  25.829  10.767 -0.0007  0.1218  0.5109
45946W        W46810   1.618  16.618  16.809 -0.1571 -0.2494 -0.1337
45947W        W46811   1.814  17.776   5.596  0.0756 -0.3094  0.1743
45948W        W46812  12.102   8.993   0.752 -0.2609  0.0850  0.0565
45949W        W46813  20.954   4.749  10.823 -0.0009 -0.0848 -0.1433
45950W        W46814  12.595  16.382  13.033  0.1830 -0.1459 -0.2572
45951W        W46815  11.003  15.938  12.689 -0.2501  0.0434  0.1198
45952W        W46816   2.446   1.517  10.199 -0.1420  0.4661 -0.1176
45953W        W46817   7.455  18.346   7.908  0.3458 -0.1280 -0.1478
45954W        W46818  25.405  27.007  10.457 -0.1141  0.0002  0.3332
45955W        W46819   2.656  22.984  13.976  0.0315 -0.1115  0.0464
45956W        W46820   2.303  22.086  19.528 -0.1140  0.1692 -0.0819
45957W        W46821  25.773  26.128   9.367  0.0132  0.1135 -0.2136
45958W        W46822   6.151   4.380   0.808 -0.0524  0.1063  0.4720
45959W        W46823   0.622   8.407   8.527 -0.1903  0.2820  0.2158
45960W        W46824  15.488   5.691  28.528 -0.2531 -0.1314  0.0735
45961W        W46825   8.172  10.294   4.354 -0.0382 -0.2002 -0.1596
45962W        W46826  28.651  22.016   7.649 -0.1927  0.2987  0.0801
45963W        W46827   3.098   7.019   7.158 -0.3500  0.0171 -0.0163
45964W        W46828   0.071  24.373  17.641  0.0039  0.0033  0.0424
45965W        W46829  20.943  25.915   8.751 -0.1214  0.2398 -0.0086
45966W        W46830   0.988  14.569   5.576  0.0553 -0.0827  0.1056
45967W        W46831   6.771  13.231   6.295  0.1626  0.0068  0.2625
45968W        W46832   9.466   8.895  14.174  0.3017 -0.0673  0.2881
45969W        W46833  16.261  25.660  24.694  0.1419  0.0437  0.2144
45970W        W46834   2.508  15.352  14.864 -0.0794  0.0463  0.1096
45971W        W46835  15.471  21.918   3.357  0.1300  0.1038  0.2500
45972W        W46836  16.515  25.621  15.125 -0.2144 -0.0732 -0.0671
45973W        W46837   1.263  28.536  11.296 -0.4283  0.0067 -0.1025
45974W        W46838   7.011  19.805  24.396 -0.1764 -0.0895 -0.2421
45975W        W46839  12.975  20.633  15.924  0.0568 -0.0921  0.3864
45976W        W46840   4.009   3.209  26.552 -0.1112 -0.0626  0.1178
45977W        W46841  11.987   4.081  23.447 -0.0026 -0.3546 -0.2387
45978W        W46842   9.989  20.670   2.080 -0.1040  0.2148 -0.0453
45979W        W46843  23.032  12.469   9.775 -0.0450 -0.0362  0.1095
45980W        W46844   4.909  28.065  17.582 -0.0776 -0.0220  0.1184
45981W        W46845  19.766  26.659  25.302 -0.0794 -0.1063 -0.1641
45982W        W46846   6.344  11.115  13.741 -0.2392 -0.2876  0.0680
45983W        W46847   7.825  14.485  28.838 -0.0487 -0.0077 -0.0592
45984W        W46848   0.950  27.422  13.341 -0.1371 -0.1052  0.0588
45985W        W46849  24.662   6.113  22.805 -0.0643  0.0826  0.2191
45986W        W46850  25.366  25.568  10.996 -0.0526  0.0734 -0.0660
45987W        W46851  14.593   2.779   0.403 -0.3202  0.1667  0.2815
45988W        W46852   0.515   7.334  17.214  0.1067 -0.1181  0.3219
45989W        W46853  23.209  13.743  21.124  0.1659 -0.2116  0.0800
45990W        W46854  24.065  10.203  10.828  0.3856 -0.0292 -0.1863
45991W        W46855  18.520  16.736  24.915  0.1657  0.2455 -0.0717
45992W        W46856   3.579   5.301   7.079 -0.0813  0.1434  0.1219
45993W        W46857  12.683   1.767   2.123 -0.2168  0.0740 -0.1728
45994W        W46858  11.481  27.694  10.222  0.0216  0.1313  0.0754
45995W        W46859  18.896   7.371  10.816  0.3138 -0.0208 -0.2890
45996W        W46860  25.203   8.243   7.716  0.3011  0.0943 -0.1945
45997W        W46861   0.080  22.283   6.326 -0.4198  0.0523  0.0397
45998W        W46862   6.701  26.563   9.598  0.1520 -0.1364  0.2756
45999W        W46863  23.644  28.713  19.737  0.0615 -0.0600 -0.0441
46000W        W46864   2.335  19.082  25.689 -0.3050 -0.1616  0.2733
46001W        W46865   4.389  14.815  13.702  0.0506  0.5286 -0.2030
46002W        W46866  28.503   0.038  18.268  0.2060  0.0751  0.0922
46003W        W46867   1.034  17.791   9.018 -0.1844 -0.1153 -0.1811
46004W        W46868  15.965  18.803   6.293 -0.1434  0.3012 -0.3065
46005W        W46869  14.719  18.961  10.202  0.1044  0.1879 -0.0543
46006W        W46870  23.508  19.109  25.519  0.0896  0.1622  0.2056
46007W        W46871   6.951  23.092  23.971  0.0666  0.0753  0.1499
46008W        W46872   3.783  21.493   6.307  0.0591  0.0432  0.1805
46009W        W46873  12.033  16.960  11.362 -0.3769  0.0783 -0.2145
46010W        W46874  25.649   1.115  28.868 -0.1702  0.0182  0.0354
46011W        W46875  10.621  21.009  16.170 -0.0990  0.1885 -0.0555
46012W        W46876  21.828   9.657  28.684 -0.0997 -0.3736 -0.0523
46013W        W46877   5.547  10.522   7.992  0.2054  0.0664 -0.1988
46014W        W46878  28.407  28.289  16.083  0.1044  0.0237 -0.0120
46015W        W46879  27.784  11.462  23.935  0.2265 -0.1419  0.0633
46016W        W46880   9.401  14.557   5.786  0.2962 -0.3305 -0.0406
46017W        W46881  10.627  10.341  21.690 -0.0774 -0.4822  0.4099
46018W        W46882  26.956  11.321  21.548 -0.0435  0.1067  0.6135
46019W        W46883  19.468  21.853  23.077 -0.0114 -0.0979 -0.0572
46020W        W46884   4.006   9.291   8.490  0.1196 -0.0775 -0.1084
46021W        W46885  13.404   1.227   9.423 -0.2897 -0.0001 -0.1112
46022W        W46886  22.491  25.871   1.595  0.1204 -0.2063  0.2062
46023W        W46887   7.929   2.729  11.129  0.2003 -0.1449 -0.1408
46024W        W46888   1.024   6.058  13.827 -0.1621 -0.1310 -0.0609
46025W        W46889  13.479  21.275   9.991  0.2416 -0.3203 -0.1784
46026W        W46890  17.720   9.631   9.073 -0.0469  0.3344 -0.2912
46027W        W46891   6.595  20.744  17.302  0.0360  0.0050 -0.0883
46028W        W46892  24.487  22.190   7.245 -0.1569  0.0897 -0.0398
46029W        W46893  24.698  12.318  25.790  0.0729 -0.0353  0.3487
46030W        W46894  28.678  19.381   8.680  0.0436  0.0295 -0.2575
46031W        W46895  18.266  26.955   5.321 -0.0451 -0.0473 -0.2196
46032W        W46896  24.279  12.970   6.771 -0.2713 -0.0416  0.3584
46033W        W46897  13.721  22.379  20.054 -0.1101 -0.2364  0.1067
46034W        W46898   6.785  27.555  26.956  0.2114  0.1207 -0.2089
46035W        W46899   6.522  13.858  27.733  0.2450 -0.0868 -0.0698
46036W        W46900   1.554  11.948  10.856 -0.2808  0.0066  0.0686
46037W        W46901  12.933   5.395  20.695 -0.1534 -0.2496 -0.0053
46038W        W46902  19.368  14.697  25.054  0.0142  0.1150  0.2385
46039W        W46903  25.280  12.699   3.492  0.1152  0.1610  0.6145
46040W        W46904  22.252   9.726  18.710 -0.1906 -0.1199  0.2571
46041W        W46905  14.101  26.578   8.234  0.0611  0.0466 -0.0354
46042W        W46906  28.184  24.699   6.016 -0.3130 -0.0933 -0.1773
46043W        W46907   0.338  25.695  13.422  0.2755 -0.2115  0.0879
46044W        W46908  29.022  26.601   4.663  0.1229  0.3609 -0.3010
46045W        W46909  15.148  23.554  13.542  0.2525  0.2179  0.2201
46046W        W46910   3.008  20.643  21.949  0.3250  0.3277  0.0681
46047W        W46911   5.640  24.331  12.068  0.0718 -0.1980 -0.2763
46048W        W46912  12.899  25.299  12.666 -0.0199 -0.1438 -0.0774
46049W        W46913   5.773  18.007   7.386  0.4613 -0.1644  0.1441
46050W        W46914  19.302  15.048  28.053  0.1500  0.1856 -0.0782
46051W        W46915  14.775  26.502   1.104 -0.1625 -0.5105 -0.0434
46052W        W46916   0.711  26.203  16.684 -0.0992  0.1660 -0.5130
46053W        W46917  24.414  11.133   0.968 -0.0343  0.1360  0.0532
46054W        W46918   0.091   5.873   7.388 -0.0291  0.2185 -0.1202
46055W        W46919  18.187  21.993  17.488 -0.0308  0.3340  0.0430
46056W        W46920  15.884   1.095   6.939  0.0152  0.1134 -0.2721
46057W        W46921  27.646  26.048  25.306  0.1522 -0.0704  0.0821
46058W        W46922   6.769  19.398   9.699  0.2325  0.4630  0.1972
46059W        W46923  13.013  12.904  11.602  0.2124  0.3036  0.2098
46060W        W46924  13.239  14.834  13.827  0.0988 -0.2995  0.0744
46061W        W46925  10.759   2.809  24.761 -0.0137 -0.0777 -0.2017
46062W        W46926  14.281   0.936  26.417  0.1421 -0.0091 -0.0845
46063W        W46927  27.666  10.069   9.015 -0.3184  0.1927  0.0977
46064W        W46928   0.952   1.633  23.362  0.5253  0.0334  0.1432
46065W        W46929   5.221  26.290  14.317  0.0604  0.0769 -0.1601
46066W        W46930   0.442  18.186  20.965  0.2663 -0.0801 -0.2561
46067W        W46931   9.365   7.401  28.843 -0.4370  0.0086 -0.2083
46068W        W46932  28.370  23.275   5.767  0.1875  0.1387 -0.3676
46069W        W46933  14.897  27.347   4.512  0.1749 -0.2284 -0.2595
46070W        W46934   3.920   6.919  26.062  0.0297  0.0336  0.2095
46071W        W46935  27.074  23.357  28.692  0.2025  0.2298 -0.0124
46072W        W46936  20.889  20.462   7.913  0.1137 -0.2494 -0.1159
46073W        W46937   1.508  21.530  12.858  0.1072 -0.0400  0.0587
46074W        W46938   6.503  28.219  21.023  0.2078  0.0948  0.1635
46075W        W46939   3.361  24.001  15.148 -0.0540 -0.2767  0.0601
46076W        W46940   1.235  25.852  18.993 -0.0176  0.1458  0.0691
46077W        W46941  10.596  21.808   7.927  0.0781 -0.1886 -0.0875
46078W        W46942  10.269  21.946  26.104 -0.0744 -0.1180  0.0188
46079W        W46943  20.321   2.757  23.647  0.1143 -0.0023  0.2125
46080W        W46944  11.273  25.438  19.012  0.5146  0.0793  0.1586
46081W        W46945  11.366  13.692   6.232  0.1161 -0.0657 -0.1702
46082W        W46946   5.982  11.678  16.029 -0.0958 -0.1671 -0.0694
46083W        W46947  26.161  14.892  16.070 -0.0610 -0.2569  0.0321
46084W        W46948  12.846  15.080  18.838  0.0623 -0.0345 -0.1267
46085W        W46949  10.537   9.901   5.630 -0.4021  0.0839 -0.1408
46086W        W46950   1.873   9.983  14.564 -0.0717 -0.2143  0.0535
46087W        W46951   1.185  11.208  19.042  0.0436 -0.0214  0.1513
46088W        W46952  11.333   6.118  10.486  0.1733  0.0043 -0.1894
46089W        W46953  27.314   6.963  17.390  0.1146  0.0010 -0.2094
46090W        W46954   2.964  18.825  21.988  0.2949 -0.0965 -0.0162
46091W        W46955   4.840  23.837   6.017 -0.2914  0.1826 -0.0388
46092W        W46956   3.660  16.961  15.096 -0.4205 -0.1142  0.1932
46093W        W46957  28.278  19.507   4.951  0.1030 -0.2225 -0.0093
46094W        W46958   0.187  11.109  21.361  0.0118  0.0387 -0.1204
46095W        W46959  26.369  15.195  10.422  0.0587  0.0777 -0.2748
46096W        W46960  19.876  27.125   2.001 -0.1753  0.3187  0.0037
46097W        W46961  27.310  18.909  14.413 -0.2330 -0.1841  0.3099
46098W        W46962  22.304  14.245   6.335 -0.0219 -0.4663  0.0662
46099W        W46963  14.065  26.317   3.510  0.1693  0.3580  0.0626
46100W        W46964  28.504   6.134   9.697  0.0911 -0.0999  0.3707
46101W        W46965  12.294   3.955  25.887 -0.2504  0.0666 -0.2370
46102W        W46966   2.029  24.524  14.298  0.1267  0.1430 -0.1048
46103W        W46967   7.737  11.452   2.410  0.0617 -0.1681  0.0014
46104W        W46968  17.702   6.404  25.245  0.4185 -0.0243 -0.1362
46105W        W46969  12.775  11.751   1.613  0.0299 -0.2134 -0.1062
46106W        W46970   7.664   5.247  12.092 -0.0807 -0.2081 -0.0263
46107W        W46971  23.706  16.803  25.202 -0.0142  0.1152 -0.0014
46108W        W46972   3.568  24.977  19.889  0.0576  0.0079  0.1885
46109W        W46973   4.249   9.152  28.231  0.2077  0.0078 -0.2322
46110W        W46974  23.420  21.092   5.075  0.0333 -0.2396  0.1290
46111W        W46975  10.992  16.896  12.596  0.2095  0.1656  0.5162
46112W        W46976   3.382   2.935  10.390 -0.0852 -0.1812  0.1969
46113W        W46977  18.176   8.469   5.811 -0.2345  0.0518  0.1242
46114W        W46978  20.227  17.123  19.292 -0.1170 -0.1990  0.3111
46115W        W46979  24.336   2.671   8.223  0.2165 -0.1114 -0.0941
46116W        W46980  21.659  15.896   3.074  0.5369 -0.0977  0.1388
46117W        W46981  22.560   9.003   8.791 -0.1077  0.0706 -0.2285
46118W        W46982  20.421  26.371  17.945 -0.1253  0.2487  0.0094
46119W        W46983  21.883  28.501   4.112  0.2472 -0.0348 -0.1266
46120W        W46984  13.447  19.410  12.361 -0.1637  0.2397  0.0059
46121W        W46985  11.606  20.994   7.144 -0.2674 -0.0515  0.1721
46122W        W46986  27.831  23.559   4.733 -0.2686  0.0590  0.3050
46123W        W46987   7.766  26.774  27.552 -0.0098  0.0067 -0.3324
46124W        W46988  25.478  21.349   1.790 -0.2178  0.3212  0.0285
46125W        W46989   6.528  12.003   6.957  0.1528 -0.2153  0.0628
46126W        W46990   0.364  16.584  27.254 -0.0117 -0.0103  0.3772
46127W        W46991   1.826   0.722  12.591  0.1678 -0.2984 -0.1031
46128W        W46992  20.140  25.314  15.484  0.0481 -0.1065  0.0216
46129W        W46993  13.225  21.121  12.403 -0.0626 -0.3247 -0.1838
46130W        W46994  28.578   4.134  28.609 -0.1987  0.1168  0.2223
46131W        W46995   6.544  18.832  23.881 -0.3685 -0.1289 -0.0215
46132W        W46996   0.959  10.670  19.229 -0.0111  0.0617 -0.1273
46133W        W46997  20.335  23.121  14.819  0.1231 -0.1879 -0.0691
46134W        W46998  11.882   0.984  19.739  0.1937 -0.2536 -0.0709
46135W        W46999  20.191   2.112  24.048  0.0102  0.1059 -0.0164
46136W        W47000  10.867   3.577  26.777  0.1795  0.2628 -0.2294
46137W        W47001  14.246   2.164  23.499 -0.0844 -0.0408  0.1532
46138W        W47002   0.567  16.442  13.123  0.1993 -0.1450 -0.1277
46139W        W47003   2.159   5.732   0.334 -0.2942  0.0944  0.0800
46140W        W47004  18.842  13.651  18.589 -0.4568  0.0833 -0.3591
46141W        W47005   8.866  18.701  23.567  0.2115  0.1179 -0.0441
46142W        W47006  12.430  23.724  27.156  0.1051  0.0046 -0.0935
46143W        W47007  11.087  10.502  16.979 -0.0473  0.0177 -0.1187
46144W        W47008  27.188   8.656   9.824  0.1067  0.2258 -0.1048
46145W        W47009  12.690  23.216  17.637  0.0297  0.1201  0.0206
46146W        W47010  28.899  26.968  11.716  0.0065  0.2432  0.2996
46147W        W47011  11.722  23.492  10.486  0.1855  0.2534  0.1391
46148W        W47012  11.085  14.942  19.729 -0.0775 -0.3068 -0.1005
46149W        W47013  22.998   2.434   8.042 -0.1953 -0.0292  0.0342
46150W        W47014   6.384  12.639   7.578  0.0212  0.3798  0.3182
46151W        W47015  12.350   9.374   8.780 -0.2385  0.1781  0.0083
46152W        W47016  23.455  27.120  10.087  0.0110  0.2335 -0.0521
46153W        W47017  25.611   6.225  16.697  0.1222  0.2723  0.0305
46154W        W47018  28.765  26.576  23.892  0.2326 -0.3125  0.3430
46155W        W47019  20.581  21.539   2.627 -0.0792 -0.0630 -0.3474
46156W        W47020   0.294  14.725   5.544  0.1076  0.2098  0.1479
46157W        W47021   3.779  17.927  11.724 -0.0974 -0.1971 -0.1317
46158W        W47022  27.280   1.336   3.292 -0.1560 -0.1033 -0.0462
46159W        W47023  11.237  22.465  13.936 -0.1666 -0.2938 -0.3116
46160W        W47024   2.100   1.035  28.973  0.0122 -0.3431  0.0406
46161W        W47025   2.051   1.098   4.500 -0.1759  0.1051  0.0078
46162W        W47026   8.197  19.352   2.178  0.1095  0.0782  0.0577
46163W        W47027   7.786  19.547   4.389  0.3826  0.1112 -0.5407
46164W        W47028   5.443  22.139  24.189 -0.0955 -0.1141 -0.2514
46165W        W47029  15.904  11.524   0.055  0.1520 -0.2654 -0.0618
46166W        W47030   7.244  21.208  23.601 -0.3036  0.1978 -0.1302
46167W        W47031   9.179  11.924  28.132  0.0078  0.2017 -0.1634
46168W        W47032   3.767  15.999  10.977  0.1388  0.0065 -0.1673
46169W        W47033  24.566   0.028   6.178 -0.1997  0.1427  0.0880
46170W        W47034  18.580   3.674   6.689  0.2404 -0.0483  0.2059
46171W        W47035   4.131  20.489   4.274 -0.0299  0.2185  0.1373
46172W        W47036  19.063  28.285  11.289  0.1172 -0.1487  0.2257
46173W        W47037  12.287  27.807  10.207  0.0323 -0.0465 -0.2179
46174W        W47038  15.619   1.955  25.528 -0.2850 -0.0955 -0.1119
46175W        W47039  11.611  25.169  26.029  0.0245  0.2069  0.0918
46176W        W47040   0.035  29.013  12.735  0.0580 -0.0423  0.1295
46177W        W47041  26.660  21.715  29.087  0.1366  0.0677 -0.2851
46178W        W47042  11.321  11.075  14.336  0.0236  0.0264 -0.0333
46179W        W47043  16.701  22.770  13.930  0.2015  0.0908 -0.0540
46180W        W47044  12.318  16.581  20.193 -0.0242  0.3857 -0.3406
46181W        W47045  18.555  24.632   9.060  0.1292 -0.0318 -0.1092
46182W        W47046  16.797   1.255   6.788 -0.0255 -0.0255  0.2966
46183W        W47047   3.030  25.268   1.039 -0.0131  0.1345  0.1565
46184W        W47048  16.768  10.485  10.910  0.1464 -0.1333  0.0192
46185W        W47049   9.055   1.195   8.497 -0.2227 -0.0728 -0.2303
46186W        W47050  12.542   0.605  28.800 -0.0453 -0.0840 -0.0461
46187W        W47051  13.632   0.940  19.358 -0.3716 -0.2277  0.0296
46188W        W47052   3.351  17.310   1.965 -0.2421 -0.0931 -0.0456
46189W        W47053   4.658  15.576  12.842 -0.1069  0.0122  0.0048
46190W        W47054  25.979   7.178  25.952  0.0932 -0.2474  0.0566
46191W        W47055   4.689  25.092  12.399  0.1205 -0.3286 -0.1104
46192W        W47056   4.712   7.417   6.457  0.2545 -0.1358  0.1182
46193W        W47057   4.964   4.619  24.555 -0.1651 -0.0191 -0.0160
46194W        W47058  28.758  22.912   8.262 -0.2958 -0.0841 -0.2841
46195W        W47059   3.819  19.192  13.205  0.1044 -0.2160  0.1164
46196W        W47060   1.824  17.144  15.067  0.0711 -0.1103 -0.3492
46197W        W47061  18.488  11.719  17.359 -0.3780 -0.0512 -0.0449
46198W        W47062  19.752  22.130   5.427 -0.0887  0.0639 -0.1789
46199W        W47063  23.331  27.891  18.918 -0.1493  0.0153 -0.1308
46200W        W47064  23.802   6.971   7.282  0.0879 -0.3701  0.1593
46201W        W47065  12.912  26.877   4.594  0.0671 -0.0443  0.0695
46202W        W47066   4.010  18.519   3.831 -0.1906  0.0980 -0.1206
46203W        W47067  28.776  13.023   3.547  0.0176 -0.3077  0.1988
46204W        W47068  13.649   6.227   7.435 -0.4078  0.2087 -0.3174
46205W        W47069   9.669  26.862   7.543 -0.2951 -0.1888 -0.1550
46206W        W47070  22.209   0.152  17.983 -0.0312  0.2605 -0.2535
46207W        W47071  21.592  27.222   8.883 -0.1174 -0.5333  0.1816
46208W        W47072   4.404  15.403   3.329 -0.0049 -0.0231  0.2794
46209W        W47073   9.291   1.879  17.548  0.1369  0.0936  0.1134
46210W        W47074  14.688  28.813   4.145 -0.1710  0.0432 -0.0440
46211W        W47075   3.651  16.925   0.687 -0.2661  0.0336 -0.0791
46212W        W47076  25.009  26.701  24.908  0.0066 -0.0390  0.0407
46213W        W47077  11.906  21.146   1.598 -0.1395  0.0233 -0.2317
46214W        W47078  16.438  19.305   3.624 -0.0437 -0.1153  0.0222
46215W        W47079  25.322  18.759  20.159  0.0089 -0.1095  0.1936
46216W        W47080   6.289   0.884  18.588 -0.0563 -0.2360  0.0417
46217W        W47081   9.562  24.768   9.154 -0.2030  0.0617  0.1466
46218W        W47082   2.214  25.501  14.492  0.0642 -0.1797 -0.1276
46219W        W47083   8.741  27.854  20.507  0.3049 -0.2050 -0.0738
46220W        W47084  23.971  15.858   0.553  0.2787  0.1620  0.2358
46221W        W47085  18.298  28.856  20.279 -0.2048 -0.1693  0.0263
46222W        W47086   8.134  24.617  13.489 -0.2418 -0.3437  0.0180
46223W        W47087  24.805  16.738  16.650  0.1016 -0.0363  0.2953
46224W        W47088  10.590  18.162  10.220  0.0268 -0.1049  0.1001
46225W        W47089   2.452  12.815  25.572  0.3509  0.1573  0.1665
46226W        W47090  27.788  23.131   5.046 -0.1503 -0.0712 -0.0347
46227W        W47091  19.128  17.200   7.177 -0.0682  0.1487 -0.0836
46228W        W47092   0.830  23.909  10.990 -0.1766 -0.1360  0.2012
46229W        W47093  18.278   0.800  13.911  0.0945 -0.1485  0.3059
46230W        W47094   0.412   2.396  15.275  0.2529 -0.2150 -0.0143
46231W        W47095   6.520  14.784  15.841  0.1080  0.3153 -0.0345
46232W        W47096  28.691  12.175  22.406  0.1685 -0.0901  0.1531
46233W        W47097  11.359  22.982  27.751 -0.2632 -0.1126  0.1071
46234W        W47098  25.176  14.391  22.040 -0.0288 -0.2602  0.0525
46235W        W47099  28.563  24.458  21.486  0.0096 -0.1321 -0.2033
46236W        W47100  18.129  16.135   2.378 -0.0218  0.0847  0.4285
46237W        W47101  18.794   6.063  26.518 -0.0373 -0.0321  0.0928
46238W        W47102  13.564  24.094  13.198 -0.1090  0.0244  0.1554
46239W        W47103  23.344  17.566  19.514 -0.0332 -0.0618 -0.0307
46240W        W47104   3.894  20.362   1.827  0.1594 -0.0709 -0.2173
46241W        W47105  15.575   0.421  12.984  0.1023  0.1624  0.0676
46242W        W47106   3.831  15.272   9.478 -0.0400 -0.1142  0.0931
46243W        W47107   8.136  11.778  18.464  0.1423  0.1851 -0.0804
46244W        W47108  15.528  28.417  10.607 -0.1691  0.0829  0.0029
46245W        W47109   4.555  16.376  18.571 -0.2938 -0.1997 -0.0026
46246W        W47110  19.825  19.077  23.558  0.0255 -0.1789  0.1741
46247W        W47111  10.752  19.129   2.084  0.0350 -0.2338  0.3319
46248W        W47112   1.714   4.327   9.083 -0.0144 -0.2049 -0.1794
46249W        W47113   5.291  12.939   0.229 -0.0015 -0.0768  0.4167
46250W        W47114   9.917   5.898   4.264 -0.0821 -0.2989  0.3696
46251W        W47115  12.745  14.293  13.300  0.1172 -0.2195  0.1593
46252W        W47116   4.558   4.101  15.431  0.0699 -0.2205 -0.2714
46253W        W47117  27.854   3.079  11.435  0.3047 -0.2964  0.1381
46254W        W47118   6.660   7.714  12.824  0.0650  0.1504 -0.0738
46255W        W47119  11.206  12.906  10.385 -0.0410 -0.1294 -0.0655
46256W        W47120  26.214  24.212  25.783  0.0312  0.0447 -0.0529
46257W        W47121   4.432  21.732  15.366 -0.1438  0.0897 -0.2356
46258W        W47122  23.460   0.010   9.125 -0.0483 -0.2526  0.1070
46259W        W47123   6.903  17.984  18.769  0.2383 -0.2642 -0.0764
46260W        W47124   0.951  28.791  25.779 -0.3153 -0.0029  0.0100
46261W        W47125   3.135  17.510   5.280  0.2773  0.5990  0.1141
46262W        W47126   1.419  29.023  26.185 -0.1386  0.2356 -0.1212
46263W        W47127  20.346  27.111  11.833 -0.0175  0.0309  0.1067
46264W        W47128  10.646  17.578  24.296 -0.1126  0.1331 -0.0073
46265W        W47129   6.343   5.080  14.996  0.0423  0.1571 -0.0302
46266W        W47130  16.243  26.849  25.701  0.2257  0.0106  0.1181
46267W        W47131  11.521   3.543  19.822 -0.4278 -0.0685  0.0283
46268W        W47132   7.711  20.444  13.100  0.1362  0.0192 -0.1575
46269W        W47133   4.214  26.742  16.560  0.2201 -0.0393  0.0997
46270W        W47134  16.725  26.510  26.375  0.3586  0.2861  0.1268
46271W        W47135   3.110   3.445  10.962  0.3192 -0.0112  0.1433
46272W        W47136  13.527   1.869   7.559 -0.2913 -0.0584 -0.0620
46273W        W47137   8.420   8.947  17.063  0.1522  0.0395  0.1533
46274W        W47138  26.084   0.901  12.173 -0.1006  0.2797  0.2127
46275W        W47139   1.041  14.816   8.874  0.1711  0.1665 -0.1115
46276W        W47140   2.927  16.491  23.632 -0.0346 -0.0498  0.3296
46277W        W47141  13.221  16.074  12.788  0.0826  0.0502  0.0691
46278W        W47142   5.260  14.338  28.125 -0.0585  0.0432  0.2258
46279W        W47143  13.636  16.275  12.611 -0.0400 -0.0502 -0.1594
46280W        W47144  24.256  14.930  13.685 -0.2103 -0.0069 -0.1540
46281W        W47145   4.895   9.531  14.948  0.1905 -0.0987 -0.0733
46282W        W47146  19.239  18.638  25.552  0.1997  0.1753 -0.2065
46283W        W47147  21.079   1.585   0.264 -0.0438 -0.1007  0.1456
46284W        W47148  26.297   0.523  13.387  0.0767 -0.2238 -0.2424
46285W        W47149   8.341   1.778   9.243  0.1222 -0.0566  0.0108
46286W        W47150   8.097  18.006  10.029 -0.0489  0.1168 -0.2832
46287W        W47151  20.878  12.312  28.381 -0.1152  0.2577 -0.1751
46288W        W47152  18.798  23.733  19.789  0.2367 -0.0273  0.0338
46289W        W47153  11.480  20.217   2.396 -0.1825 -0.1150  0.0265
46290W        W47154  18.728  24.147  21.022  0.1854 -0.2892 -0.0066
46291W        W47155  10.392   2.281  28.133 -0.0182  0.1065 -0.1573
46292W        W47156   9.453  22.087   1.362 -0.2894  0.0026 -0.0040
46293W        W47157   2.333  12.785  20.878 -0.0327  0.3207 -0.3653
46294W        W47158  18.012   5.079   3.407  0.0090 -0.2289 -0.0038
46295W        W47159  10.330   8.851  15.379  0.2171  0.3628  0.0946
46296W        W47160  24.408  21.154  14.987  0.0235 -0.1764  0.3160
46297W        W47161   1.155  28.105  24.706 -0.0009 -0.3572  0.2286
46298W        W47162   9.264  22.993  10.494 -0.2216 -0.0900  0.0741
46299W        W47163  10.344   6.720  15.639 -0.0304  0.1972 -0.0951
46300W        W47164   7.336  22.702  29.007  0.0170  0.2658  0.1619
46301W        W47165  14.191  20.464  13.240  0.0718  0.0096 -0.0678
46302W        W47166   9.014  22.607  15.075 -0.2768 -0.0699 -0.2532
46303W        W47167  13.080  19.086   6.247 -0.1437 -0.1305 -0.0517
46304W        W47168   5.196  24.064  28.997 -0.0780  0.2698  0.0943
46305W        W47169   2.212  20.074  14.115  0.2049  0.0435  0.0369
46306W        W47170  12.897  17.151   3.674  0.1557 -0.0399  0.1726
46307W        W47171  20.816   7.339  28.601 -0.0574 -0.2734  0.0266
46308W        W47172   3.110  22.256  15.298  0.0214  0.1446  0.0808
46309W        W47173  25.292  26.913  24.493 -0.1468 -0.1916 -0.1486
46310W        W47174  13.158  17.831   6.670  0.0122 -0.0200 -0.1569
46311W        W47175   9.241   4.352   7.348  0.0342  0.0543 -0.2260
46312W        W47176  15.619  23.091  19.998  0.1223  0.1019 -0.3228
46313W        W47177  10.265  22.370  19.509  0.1107 -0.2060  0.2157
46314W        W47178  12.138   8.121  11.669  0.3195  0.2399  0.1854
46315W        W47179  14.621  28.416  11.156 -0.1233  0.0022  0.0941
46316W        W47180   2.698   8.818  29.059  0.1295  0.0589  0.2257
46317W        W47181  28.759  22.403  11.082  0.0258 -0.0754 -0.0534
46318W        W47182  28.925   0.439   1.602 -0.1616 -0.3490  0.0573
46319W        W47183  12.134  28.987  16.444 -0.0571  0.1091  0.0984
46320W        W47184  26.624  11.654  24.675 -0.1579  0.1420 -0.0811
46321W        W47185  18.273  22.652   7.287  0.1722 -0.0725  0.1961
46322W        W47186  12.429  12.502  19.906 -0.0351 -0.1143 -0.0079
46323W        W47187  27.406  12.331   5.725  0.0187  0.2910 -0.0531
46324W        W47188  10.898  20.567  27.222 -0.2681 -0.0913  0.0059
46325W        W47189  15.988   1.648  27.185  0.0228  0.0352 -0.0302
46326W        W47190  25.253  21.159   8.051 -0.0150 -0.0833  0.3175
46327W        W47191   9.114  19.142   4.409  0.0667 -0.0611 -0.0249
46328W        W47192   5.745  16.460  13.115 -0.1911 -0.0489 -0.2632
46329W        W47193   0.581  22.598  28.629  0.1138 -0.0288 -0.0330
46330W        W47194   6.090  16.785   6.225  0.1679 -0.0149 -0.1076
46331W        W47195  26.552  16.930   2.135 -0.0452  0.0391  0.0804
46332W        W47196  14.439  11.896  25.215 -0.0207  0.0660  0.1319
46333W        W47197  14.469  22.183   0.789  0.1655  0.0057  0.1094
46334W        W47198   0.167  18.121  17.595  0.2686 -0.0433 -0.1247
46335W        W47199   5.764  13.744  29.042  0.0031  0.0606  0.1011
46336W        W47200   5.132   4.156  28.469 -0.0707  0.0092 -0.0500
46337W        W47201   2.532   2.315   7.056 -0.0276 -0.0239 -0.1971
46338W        W47202   1.141   4.291  13.206  0.1413  0.1564  0.0679
46339W        W47203  22.629   6.535  16.083 -0.2359  0.0727  0.0275
46340W        W47204  16.775  15.531   2.798 -0.0969  0.0687  0.1180
46341W        W47205   9.374  20.823   5.223  0.3971 -0.2551  0.0769
46342W        W47206  14.038   2.531  11.444  0.0507 -0.1655  0.0678
46343W        W47207   8.064  20.454  24.909  0.1947 -0.0996 -0.1579
46344W        W47208  16.819  18.831  10.853  0.1680 -0.0479 -0.1816
46345W        W47209   4.521   9.816  11.692  0.0329  0.1251  0.3316
46346W        W47210  17.247  23.241  18.539  0.1252  0.3370 -0.2796
46347W        W47211  14.654  26.804  18.350  0.0093  0.4924  0.1804
46348W        W47212   9.161  19.241  12.833  0.0488  0.2229 -0.1867
46349W        W47213   8.236  28.169   6.087  0.1334  0.2148 -0.0652
46350W        W47214   0.256  19.779  18.237  0.0273  0.1673 -0.1295
46351W        W47215  24.083  24.733  20.477  0.1226 -0.1740  0.2061
46352W        W47216  20.930  19.196  24.358 -0.1030  0.1376  0.0462
46353W        W47217  10.754   5.250   1.552 -0.1576  0.1419  0.2144
46354W        W47218   5.548  18.355  24.159  0.2413 -0.3760  0.0204
46355W        W47219  26.507   4.516   3.090 -0.1871 -0.1350 -0.1688
46356W        W47220  12.724   4.887   7.502  0.1259  0.2353 -0.0597
46357W        W47221   7.643  19.177   7.918 -0.0669  0.0524  0.0659
46358W        W47222  12.090   7.672   8.824  0.0200 -0.0505  0.0885
46359W        W47223   8.609  21.825  19.056  0.4490  0.2108 -0.1491
46360W        W47224   4.296   5.417  12.195 -0.0502 -0.0241 -0.1156
46361W        W47225   8.641   9.156  16.683  0.0274 -0.3597 -0.2046
46362W        W47226  21.652   6.458  15.297 -0.3196  0.3319  0.1592
46363W        W47227  15.791  20.964  13.141 -0.0637  0.3693  0.2192
46364W        W47228  16.872  19.788  19.596 -0.0276 -0.0105 -0.1599
46365W        W47229   5.893  28.202   7.439 -0.1861  0.0790  0.0195
46366W        W47230  20.253   2.791  12.595 -0.0593 -0.3719 -0.2043
46367W        W47231  11.036  12.485  11.800 -0.4337 -0.1933 -0.2255
46368W        W47232   8.704  17.663  23.956  0.1433 -0.0558 -0.1273
46369W        W47233  16.752  19.117  25.582  0.0293 -0.1885 -0.0216
46370W        W47234   4.457  24.570  19.826  0.0102 -0.0138  0.1240
46371W        W47235  11.863  20.481   0.170 -0.1520  0.1965 -0.1662
46372W        W47236   6.547  12.243  10.600  0.3341  0.3844 -0.0397
46373W        W47237  15.401   3.482   2.908  0.1142  0.0534  0.1112
46374W        W47238   9.177  24.934   5.912 -0.1955 -0.0685 -0.1155
46375W        W47239  17.308  18.862  22.427  0.1265 -0.0610  0.1517
46376W        W47240  27.728  22.393   3.005  0.1473 -0.1030  0.0955
46377W        W47241  11.698  28.540   7.787  0.1382 -0.0213 -0.1386
46378W        W47242   8.308  24.086   9.354  0.0390  0.0106 -0.1007
46379W        W47243  27.780  21.377   1.002  0.2270  0.4640  0.1650
46380W        W47244  17.511  17.632  19.801  0.1068  0.1092  0.0248
46381W        W47245   5.074   0.332  11.207 -0.1186  0.0171  0.1880
46382W        W47246  16.854   5.881  16.675 -0.1927  0.1202 -0.2870
46383W        W47247   3.692   5.840   6.959 -0.1717  0.1537 -0.0386
46384W        W47248  22.584  12.606   0.790 -0.0879 -0.5802 -0.0202
46385W        W47249  14.636   0.366   9.071 -0.0293 -0.1805  0.0699
46386W        W47250   6.489   5.429   9.580 -0.0194 -0.1356 -0.2205
46387W        W47251   1.244   7.075  19.573 -0.0313 -0.1654  0.0026
46388W        W47252  11.746   4.319   9.580  0.1589 -0.1142 -0.1087
46389W        W47253  25.961   8.327   7.065 -0.0099  0.0374  0.0582
46390W        W47254   0.744  17.209  21.777 -0.1255  0.1214  0.0135
46391W        W47255  10.776   8.926   8.513 -0.1701 -0.3211 -0.0211
46392W        W47256  13.325  21.968  20.765  0.0643  0.0849 -0.0215
46393W        W47257  20.654  25.563   7.666  0.1956 -0.2609  0.1865
46394W        W47258   2.170  24.626  27.315  0.4007  0.1003  0.1580
46395W        W47259  17.366  15.814  17.510  0.1474 -0.0215  0.0131
46396W        W47260  15.674   7.114  18.563  0.0194  0.1843  0.0897
46397W        W47261  26.399  19.167   4.253 -0.1923 -0.1146  0.0882
46398W        W47262  10.590  12.909   3.744  0.0459 -0.0975 -0.0224
46399W        W47263  10.213   5.460   3.375  0.0778 -0.1393  0.3075
46400W        W47264   1.273  22.192  14.709 -0.1584 -0.5066 -0.1694
46401W        W47265  12.421  10.018  17.025 -0.0545 -0.0948 -0.0647
46402W        W47266   2.658  23.449  14.180  0.2285 -0.1597  0.0338
46403W        W47267   9.378  14.454  16.843  0.2456 -0.0496  0.2950
46404W        W47268  13.573   9.433  16.776  0.1120 -0.3582  0.1040
46405W        W47269  28.667  17.954  16.971  0.1981  0.2517 -0.1440
46406W        W47270   2.077   1.203  20.932  0.2830 -0.0015 -0.0439
46407W        W47271  22.566  21.226   0.312 -0.0368 -0.4038  0.2346
46408W        W47272  27.821  28.238  10.436 -0.1926  0.2924  0.0351
46409W        W47273  25.048  20.577  10.571 -0.1316  0.3807  0.1764
46410W        W47274   4.282  20.645   8.384  0.0333  0.1838 -0.1709
46411W        W47275   6.787  19.577  18.572  0.0469  0.0758  0.1918
46412W        W47276  11.894   9.062   1.378 -0.0737  0.1493  0.4872
46413W        W47277   0.947  14.097   5.267 -0.1147 -0.1239 -0.1657
46414W        W47278  28.911   7.299  12.798 -0.0273 -0.1711 -0.0032
46415W        W47279  16.871   4.001   6.125 -0.0928  0.3612  0.1328
46416W        W47280  25.113  22.157  12.034 -0.0769  0.0642  0.2643
46417W        W47281   3.266  10.247  17.975  0.1835  0.0709  0.2480
46418W        W47282  15.821   2.454  29.105 -0.0238 -0.0060 -0.0497
46419W        W47283  19.385  28.730   6.421  0.0501  0.1271  0.4295
46420W        W47284  13.649  16.997   7.530 -0.0455  0.0435  0.1641
46421W        W47285  11.718   8.474  19.360 -0.2086 -0.0644  0.0216
46422W        W47286  13.795   6.083   7.942  0.2071  0.0628 -0.3432
46423W        W47287  22.836   1.080   7.205  0.0989 -0.1618 -0.2366
46424W        W47288  14.109  18.917   8.326  0.0316 -0.0428 -0.2165
46425W        W47289   2.359  20.958  14.293 -0.2105 -0.0035  0.0429
46426W        W47290   9.556  21.489  11.792 -0.0133 -0.1548  0.3198
46427W        W47291   0.778  25.215  15.540  0.3295 -0.1918  0.1927
46428W        W47292  11.261  26.498  22.792  0.0625  0.3473  0.2439
46429W        W47293   1.744  13.344  19.059  0.2179  0.1694 -0.2933
46430W        W47294  10.193   2.180  24.277  0.2517  0.1126 -0.0782
46431W        W47295   8.171  23.195  24.806 -0.1039  0.0408 -0.0624
46432W        W47296  29.114  28.440   2.239 -0.3108 -0.0844 -0.0716
46433W        W47297  10.242  19.726  25.185  0.3943  0.2663  0.0338
46434W        W47298  26.819  18.063  23.989  0.2320  0.1342 -0.0323
46435W        W47299  10.234  24.461   5.892 -0.1667 -0.0375 -0.3018
46436W        W47300   6.767   5.983  18.235 -0.1252 -0.0207  0.1083
46437W        W47301   0.202  25.617   3.195 -0.1168  0.2443  0.1007
46438W        W47302   9.615  25.359  15.310 -0.1130  0.2563  0.2388
46439W        W47303  14.434  19.350  12.969  0.1820 -0.1768  0.3623
46440W        W47304  21.339  18.071   8.460 -0.0449 -0.3283  0.1492
46441W        W47305  16.202   9.113  22.805  0.1263  0.3121  0.0290
46442W        W47306  26.252  11.714  25.453  0.1783  0.1248  0.0580
46443W        W47307  26.034   1.563  13.471  0.3207 -0.0066 -0.3231
46444W        W47308  17.274  21.180  12.346  0.0918  0.2160  0.1310
46445W        W47309  21.751   6.290   6.037 -0.1332 -0.0401  0.0823
46446W        W47310   8.261  15.213  25.983  0.1777 -0.1153  0.2164
46447W        W47311   4.447   6.490  11.826 -0.0421 -0.1244  0.3805
46448W        W47312   6.886  28.318   0.289  0.0103 -0.0678 -0.2008
46449W        W47313   0.485  20.507   9.030  0.0734 -0.0426 -0.3139
46450W        W47314  10.995  22.147  17.539 -0.1753  0.0667  0.0644
46451W        W47315  13.692  22.687  13.607  0.0416  0.0499 -0.1609
46452W        W47316   2.656  25.372   3.031 -0.2953  0.1438  0.2273
46453W        W47317   0.484  16.189   6.534 -0.1984 -0.1511 -0.0084
46454W        W47318  22.844   7.055  19.552  0.1038 -0.0683 -0.1238
46455W        W47319  16.798  10.297  16.038  0.0062  0.1215  0.0679
46456W        W47320  24.169   8.920   7.724  0.2653  0.2021  0.1372
46457W        W47321   3.980  18.693  12.875  0.0856  0.1120 -0.3191
46458W        W47322  20.384  11.990   4.758 -0.2662 -0.1924 -0.2276
46459W        W47323  24.698   7.537  17.852  0.0649 -0.0002 -0.0068
46460W        W47324   0.361  12.613   6.225  0.2088  0.1428 -0.0351
46461W        W47325  24.179  26.522  18.098 -0.1216  0.1785 -0.2543
46462W        W47326   9.404  14.837   7.514 -0.0446 -0.0579 -0.0859
46463W        W47327  25.567   7.056  11.161  0.1549  0.1904  0.0883
46464W        W47328   5.298  27.638  13.816  0.2640 -0.2720 -0.1756
46465W        W47329  27.285   2.797  16.443  0.0260 -0.2373 -0.3939
46466W        W47330  15.794  16.286   5.792  0.1464 -0.0373 -0.2057
46467W        W47331  26.337  27.030  13.006  0.3984 -0.0951 -0.2002
46468W        W47332  14.680  20.503  21.975  0.1690 -0.2681  0.2992
46469W        W47333   1.546  25.997   3.813 -0.1072  0.1926 -0.2963
46470W        W47334   5.454  24.876   0.123 -0.1321 -0.0275 -0.1659
46471W        W47335   8.462   3.296  21.054  0.0180 -0.2232 -0.0626
46472W        W47336  23.992   5.397  10.736  0.0960  0.1622  0.0729
46473W        W47337   3.778  14.854  11.745 -0.0137 -0.0830 -0.0170
46474W        W47338  27.299  23.745   8.408  0.0635 -0.0614  0.1497
46475W        W47339   8.468  22.674  22.319 -0.0965  0.0924 -0.0784
46476W        W47340  12.549  25.475  15.383  0.0929  0.0713 -0.3190
46477W        W47341   5.677   9.064  10.099  0.1526 -0.0548 -0.1447
46478W        W47342  26.088   1.351   8.326  0.1110 -0.2332 -0.0180
46479W        W47343   5.616  28.549  11.678 -0.1638 -0.1029 -0.1214
46480W        W47344  17.566  24.953  25.653 -0.1798 -0.0035 -0.1282
46481W        W47345  27.972  23.815  24.507 -0.0478  0.1187  0.0004
46482W        W47346  12.402  23.666  22.061  0.1463 -0.3857 -0.2283
46483W        W47347  11.469  21.135  26.028  0.2028  0.0170 -0.0535
46484W        W47348   7.011  20.999   3.052 -0.0619 -0.1113  0.2210
46485W        W47349   5.491  24.634  13.466  0.2629 -0.0445  0.1703
46486W        W47350   0.641  16.787  21.421  0.0812 -0.0425  0.0535
46487W        W47351  14.772  24.409  13.444  0.0297 -0.0211 -0.0509
46488W        W47352   6.965  20.101  26.398  0.1156  0.0765 -0.1883
46489W        W47353   2.003   0.831  16.339 -0.0957  0.2418 -0.0128
46490W        W47354   0.653  25.165   8.229 -0.1127 -0.0619  0.0732
46491W        W47355  16.519  26.400   6.541  0.2227 -0.0180 -0.1682
46492W        W47356   6.638  16.175   0.633 -0.0787  0.0561  0.3368
46493W        W47357  20.774  27.765   8.380  0.0681 -0.0675 -0.1930
46494W        W47358   6.037  25.669  27.377  0.1964 -0.0112  0.1857
46495W        W47359  27.460  12.871  15.369 -0.1107 -0.1251  0.2564
46496W        W47360  15.498   0.097  17.238 -0.0509 -0.2662 -0.0651
46497W        W47361  19.963  13.924   0.839 -0.0724 -0.1977 -0.4715
46498W        W47362  14.658  26.632  17.575  0.1072  0.2345  0.0744
46499W        W47363  20.342  13.064   8.802 -0.0576 -0.2949  0.2372
46500W        W47364   0.310   4.698  15.675  0.0732  0.0984  0.0192
46501W        W47365  25.147  28.755  18.580  0.0629 -0.1845  0.0933
46502W        W47366  24.426   6.950   2.549 -0.2199 -0.2370 -0.0100
46503W        W47367   5.419   9.428  17.401 -0.2247 -0.1738 -0.0350
46504W        W47368   6.454  27.137  16.027 -0.1434 -0.1976  0.1685
46505W        W47369   7.787   0.513  20.947  0.2551 -0.0247  0.1525
46506W        W47370  10.137   1.049  15.847 -0.4158 -0.2516 -0.0744
46507W        W47371   2.648  12.749   8.414 -0.1479  0.2782 -0.0510
46508W        W47372  17.063  24.541  16.032 -0.4176  0.0605  0.0240
46509W        W47373  25.096   7.550  21.524 -0.1111 -0.1116  0.3005
46510W        W47374   4.655   2.789   6.184  0.1313 -0.1156 -0.0097
46511W        W47375   1.202   7.580  26.918  0.0960  0.1127 -0.1311
46512W        W47376  26.582   7.715  18.455  0.0648 -0.3775  0.1681
46513W        W47377   6.395  25.608   4.550  0.2811 -0.0265 -0.2198
46514W        W47378  19.060   1.291  13.056 -0.2490  0.0309 -0.0987
46515W        W47379   6.005   3.802  20.829 -0.3217 -0.0771  0.0587
46516W        W47380   2.230  22.912  27.306  0.2680  0.0760 -0.3907
46517W        W47381  17.123  29.037  23.452  0.2861  0.1248  0.1462
46518W        W47382   8.516   0.745  28.223 -0.2283  0.2419 -0.1444
46519W        W47383   4.647   0.985  11.923  0.2609 -0.0995  0.0592
46520W        W47384   7.783  22.913  19.071 -0.2555 -0.2389 -0.1179
46521W        W47385  17.332   7.859  22.752  0.2396  0.4638  0.1098
46522W        W47386   9.561  20.618  18.791 -0.2159  0.1354 -0.0506
46523W        W47387  12.632   1.206  21.655 -0.3027 -0.0826  0.5277
46524W        W47388   5.853  21.222  14.253  0.2724  0.3470  0.0525
46525W        W47389  23.659  24.892  14.081 -0.2481  0.2349 -0.1255
46526W        W47390  23.495   6.095  18.816 -0.0746 -0.4026 -0.3485
46527W        W47391  14.586  16.632  13.413  0.2859  0.1688 -0.3269
46528W        W47392   6.962   8.618  14.056 -0.3797 -0.0691 -0.1515
46529W        W47393   8.507   6.009  14.094  0.1645 -0.0411  0.3327
46530W        W47394  17.614  27.848   0.659  0.2470 -0.0006 -0.0189
46531W        W47395  16.937  28.500  15.640  0.1784  0.1210  0.2075
46532W        W47396  26.933   3.905   6.750  0.2937 -0.0695  0.4322
46533W        W47397   1.981  13.334  15.722  0.0860  0.1123 -0.2781
46534W        W47398  28.525  21.773  19.067  0.0029 -0.1889 -0.3810
46535W        W47399  12.873  22.313  27.915 -0.0312  0.0292 -0.5511
46536W        W47400   5.934   5.173   0.421  0.0730  0.0758 -0.4408
46537W        W47401  10.664  16.501  15.909 -0.0359 -0.1034 -0.2241
46538W        W47402  14.042   6.533   4.759 -0.2041  0.0764  0.0163
46539W        W47403  11.910  14.173  28.340  0.1409  0.2120  0.1045
46540W        W47404   0.298  24.289  10.945  0.1510  0.2650  0.1437
46541W        W47405  21.785  13.798   9.346  0.1545 -0.2943 -0.0371
46542W        W47406  27.764   8.926  10.717  0.4393  0.1164 -0.0490
46543W        W47407   7.387  27.955  20.034  0.4066  0.0068 -0.0016
46544W        W47408  18.890   2.241  10.411 -0.1799  0.1753 -0.1544
46545W        W47409   8.227  26.560  13.289  0.2439  0.2821 -0.2420
46546W        W47410   9.794  12.969  12.774  0.0326  0.2511  0.0479
46547W        W47411  21.661  21.251  11.858  0.0998  0.1908  0.2057
46548W        W47412   5.874  23.644  17.360 -0.0221  0.0327 -0.0688
46549W        W47413  24.868   0.278  19.962  0.1737  0.1137  0.1015
46550W        W47414   0.387   6.367  17.660  0.1258  0.1805  0.1480
46551W        W47415   4.022  24.346  25.761 -0.0717 -0.1210  0.4082
46552W        W47416  18.724  23.894  14.371  0.1411 -0.2655  0.3194
46553W        W47417   6.891  27.482  17.623  0.0851  0.1232  0.4773
46554W        W47418  19.590  28.693  27.154 -0.0528 -0.2624 -0.0673
46555W        W47419  14.512  15.091  18.582 -0.2687 -0.1874  0.1906
46556W        W47420  10.623  18.706  10.088  0.0403  0.2725 -0.2725
46557W        W47421  10.003  19.594   9.753 -0.1728 -0.0183 -0.2945
46558W        W47422   5.398  13.707   0.285  0.3109  0.0363  0.0467
46559W        W47423  18.514   9.480  18.038 -0.0981  0.3261  0.2432
46560W        W47424   6.580  17.067  18.356 -0.2792 -0.4351  0.0682
46561W        W47425  14.629   1.521   6.713 -0.0100  0.0691  0.2017
46562W        W47426  27.373  24.955   8.063 -0.1584  0.2533 -0.0147
46563W        W47427   6.581  16.155   1.642  0.1984  0.0804  0.0189
46564W        W47428   7.493  14.217  13.524 -0.2233 -0.0487  0.0346
46565W        W47429  12.883  11.394   2.086 -0.2230 -0.1348 -0.0573
46566W        W47430  17.230  11.230  27.354 -0.2420 -0.0930  0.0043
46567W        W47431  23.679  21.825  23.332 -0.1018  0.2565 -0.2601
46568W        W47432   0.087  26.196  28.993 -0.0266 -0.0031  0.1559
46569W        W47433   1.132  14.151   4.656  0.0744  0.0468  0.0598
46570W        W47434  27.228   6.190  20.292  0.0247 -0.0399  0.1798
46571W        W47435   6.756  21.042  21.305 -0.4406 -0.2379 -0.3856
46572W        W47436  20.832  11.323   2.082  0.3134  0.0308 -0.0874
46573W        W47437   3.864  24.385  10.346  0.1908 -0.2163 -0.3116
46574W        W47438  26.418   3.884  10.333 -0.2899  0.3522  0.3133
46575W        W47439   5.182   9.863  21.445  0.2366 -0.1511  0.2595
46576W        W47440  12.095   6.855  19.466  0.1308 -0.1632 -0.1920
46577W        W47441   0.802  27.459  26.306  0.0444  0.3462  0.0306
46578W        W47442   1.912  10.245   9.397  0.0407 -0.2980  0.0483
46579W        W47443   9.645  21.798  28.029 -0.1145 -0.0934  0.1107
46580W        W47444  11.620  12.601   9.281  0.2879  0.0882 -0.2760
46581W        W47445   4.831   6.812  19.222  0.3745  0.0643  0.0346
46582W        W47446  14.958   1.339   4.103 -0.0034 -0.0270 -0.1282
46583W        W47447  14.777  15.777  17.518  0.1303  0.0447 -0.0007
46584W        W47448   0.678   1.077   9.102 -0.2354 -0.1828 -0.2263
46585W        W47449   7.119  23.983  21.666 -0.0644 -0.1913  0.0704
46586W        W47450  10.060   9.810  25.488 -0.1501 -0.2256 -0.0615
46587W        W47451   2.351  21.889  14.318 -0.0942 -0.3453 -0.0090
46588W        W47452   6.896  16.089  21.979 -0.0234  0.0460 -0.0160
46589W        W47453  12.697   8.364  19.373 -0.3254  0.0117 -0.0519
46590W        W47454  20.518   6.241  28.750  0.1644  0.1192 -0.1000
46591W        W47455   7.549  12.366  21.247 -0.1886 -0.1723 -0.0467
46592W        W47456   5.212  21.531  23.112 -0.1199  0.2167 -0.0047
46593W        W47457  12.743  27.377   6.580 -0.1033 -0.0027  0.0078
46594W        W47458  16.390  27.778  11.239  0.1505  0.1077  0.0093
46595W        W47459  10.401  23.347  18.273 -0.0106  0.0752  0.2074
46596W        W47460  27.638  14.590  14.817  0.1003  0.2496  0.1505
46597W        W47461  11.104  18.265  16.271  0.0131 -0.2850 -0.0822
46598W        W47462  11.868   3.269  16.407 -0.2174  0.3275 -0.1070
46599W        W47463   6.144  26.330  12.148  0.1005  0.0721 -0.1999
46600W        W47464  20.680  14.613   1.496  0.2080  0.0920 -0.2572
46601W        W47465  15.503  23.068   6.683  0.1722 -0.0513  0.3355
46602W        W47466  10.701  24.775  15.956 -0.2049 -0.0568  0.0583
46603W        W47467  26.901   7.479  15.968 -0.1484  0.3119  0.1543
46604W        W47468  25.816  24.225   6.757 -0.1363  0.2281 -0.1020
46605W        W47469  12.961  18.799   1.360 -0.1716  0.1135  0.0026
46606W        W47470  16.391  19.213  19.874  0.0898 -0.2878  0.0682
46607W        W47471  17.739  17.187   6.094  0.0098  0.0634  0.0249
46608W        W47472  10.980  10.535  12.382 -0.2065 -0.1064 -0.2167
46609W        W47473  14.634  20.141  14.109 -0.3480 -0.1710  0.0605
46610W        W47474  20.980  26.089   9.997 -0.1457  0.0078 -0.2997
46611W        W47475   5.928  19.797   9.866  0.0436  0.2386 -0.1264
46612W        W47476  22.897   9.981   7.246  0.0242 -0.3206 -0.1368
46613W        W47477  13.777  22.009  13.028 -0.1179  0.0701  0.3499
46614W        W47478  13.212  16.261  18.616 -0.1839 -0.1343  0.0429
46615W        W47479   3.457  17.100  17.123 -0.2865  0.0397 -0.1154
46616W        W47480  18.632  13.660  23.475 -0.2676  0.0362 -0.3830
46617W        W47481  16.600   9.633  26.863 -0.1026 -0.1007  0.3913
46618W        W47482   4.926  11.943   6.538  0.2214 -0.2160  0.0076
46619W        W47483  26.062  12.185   1.107 -0.1722 -0.1799  0.0895
46620W        W47484   9.432  17.119  18.176 -0.2640 -0.5288 -0.3316
46621W        W47485   5.318   5.781  24.218  0.0191 -0.0962 -0.0145
46622W        W47486   4.466  17.974   5.667 -0.2601  0.2477 -0.3709
46623W        W47487   2.121  14.500   7.596 -0.1418 -0.1511 -0.3512
46624W        W47488  21.220  27.460  16.622 -0.1401 -0.1513  0.0815
46625W        W47489   6.994  14.497   0.003  0.1229 -0.2674  0.5717
46626W        W47490  13.676  16.785  16.875  0.0392 -0.1724  0.1235
46627W        W47491  18.036  24.006  11.246  0.1176 -0.0198 -0.3177
46628W        W47492   7.237  19.711  10.254  0.1134  0.1083  0.0861
46629W        W47493  18.029  25.926  20.536 -0.0722  0.0057  0.1360
46630W        W47494  17.485   0.673   7.927 -0.3773 -0.0302  0.1410
46631W        W47495  28.854  25.814  28.021 -0.0085 -0.3506  0.3108
46632W        W47496   9.682  12.783  11.833  0.1795  0.0246 -0.0660
46633W        W47497   6.106  17.501  28.836 -0.3542 -0.0092  0.1282
46634W        W47498   8.983  16.482   9.262 -0.1554 -0.0868 -0.1056
46635W        W47499   9.273  27.163   4.966 -0.1966  0.0953 -0.3280
46636W        W47500  23.400  28.136   3.424  0.4095  0.1286  0.1631
46637W        W47501  13.035  22.899  15.961  0.1217 -0.0788 -0.0767
46638W        W47502  17.264   1.471  13.126 -0.0596  0.1056 -0.4824
46639W        W47503  12.322  23.164  11.913  0.0113  0.0651 -0.0038
46640W        W47504   3.676  28.216  10.088 -0.1452 -0.1565 -0.1374
46641W        W47505   4.098  19.640  24.203  0.2419  0.2128 -0.4458
46642W        W47506  23.684  12.223   7.742  0.1314  0.1105 -0.0375
46643W        W47507  26.367   7.989  23.778 -0.2865 -0.0805  0.2001
46644W        W47508  26.233   9.204  27.927 -0.1248 -0.0005  0.0031
46645W        W47509  13.200  19.010  22.162  0.4680 -0.2901 -0.1852
46646W        W47510  25.556  17.070   9.809 -0.0169 -0.1300  0.0264
46647W        W47511  24.097   4.578  13.599 -0.0164  0.0338  0.1044
46648W        W47512  27.239  19.436   0.358 -0.2071  0.3319 -0.1308
46649W        W47513   4.122  27.343  18.805  0.2282 -0.0572  0.3571
46650W        W47514   1.751  27.174   4.038  0.0899  0.2228  0.0849
46651W        W47515   5.763  16.377  24.104  0.0872  0.2345 -0.0685
46652W        W47516  21.755  26.535   5.610 -0.0123 -0.2423 -0.1107
46653W        W47517  24.235  14.250  11.385 -0.1803  0.0274 -0.0524
46654W        W47518  10.604  20.371  14.608  0.2873 -0.2708 -0.0190
46655W        W47519  13.130  12.469  13.407  0.1025  0.2507  0.1185
46656W        W47520   3.945   0.782   7.587  0.1907 -0.3662 -0.0058
46657W        W47521  25.495  21.304  19.781  0.1597 -0.1151  0.2717
46658W        W47522  10.649  23.175  15.925  0.0784 -0.1187  0.3014
46659W        W47523   8.059  21.172  10.755  0.1131  0.1308 -0.3033
46660W        W47524   4.055   1.438   5.202 -0.0550  0.0317  0.1074
46661W        W47525  13.285  23.075  17.924  0.1651 -0.0193  0.2305
46662W        W47526   5.572  19.992  19.790  0.0125  0.0015  0.0066
46663W        W47527  11.185  16.145  25.505  0.1150  0.0097  0.1819
46664W        W47528  19.460  28.888  11.390  0.0588  0.0711 -0.0853
46665W        W47529  18.208  27.781   9.658 -0.3683 -0.0423  0.0700
46666W        W47530  10.761  26.398   4.535  0.0256  0.2606  0.1896
46667W        W47531   7.082  27.496  26.584 -0.1159 -0.1757 -0.3597
46668W        W47532  19.433   2.288  17.224  0.0925 -0.0673 -0.1902
46669W        W47533   1.246  13.548  14.697 -0.0620 -0.2086 -0.1058
46670W        W47534  18.124   6.596  13.111  0.0121  0.0210  0.0624
46671W        W47535  15.176  22.149  14.653 -0.3360  0.0902  0.2627
46672W        W47536   0.063  15.679   0.247  0.2212 -0.3158 -0.1044
46673W        W47537  13.591  11.924  17.412  0.0737  0.1114  0.0137
46674W        W47538  25.322  16.898   8.923  0.0038 -0.4728  0.0348
46675W        W47539  26.587  16.476  15.155  0.0252 -0.3081  0.2150
46676W        W47540   8.285  19.203  15.731  0.0754  0.0501  0.0513
46677W        W47541  16.366   1.393  13.288  0.1090 -0.0499 -0.1514
46678W        W47542   2.967  17.533   2.984 -0.0331 -0.3489  0.0960
46679W        W47543  27.683  27.830   2.719  0.3110  0.2118 -0.0157
46680W        W47544  24.535  13.585  25.264  0.1028 -0.0979 -0.0389
46681W        W47545   0.574  24.400  20.170  0.1562 -0.2928 -0.1262
46682W        W47546   8.492  19.212  19.075  0.2078  0.1848 -0.0218
46683W        W47547  20.092  17.260  22.178  0.0150  0.0071 -0.1913
46684W        W47548   0.584  14.747   8.146 -0.2184 -0.0164 -0.1122
46685W        W47549  21.556  29.049  27.050 -0.0032 -0.0593  0.2276
46686W        W47550  18.593   7.135  12.458 -0.3414 -0.0335  0.0540
46687W        W47551  15.127  21.246   8.080 -0.0825 -0.3385 -0.0614
46688W        W47552   6.360  12.557  23.362 -0.0409 -0.3279  0.2335
46689W        W47553   9.994   6.344   0.865 -0.2100 -0.1115 -0.0615
46690W        W47554   2.082  20.556  15.933  0.0133  0.2022  0.1538
46691W        W47555  16.666  16.830   3.113 -0.2255  0.0944  0.5110
46692W        W47556  26.123  28.714  10.554 -0.0656 -0.2011  0.1423
46693W        W47557  10.283  22.502   5.492  0.0610  0.1177 -0.1394
46694W        W47558  20.013  21.829  10.730 -0.0664  0.0824  0.0137
46695W        W47559  18.473  13.417  28.788  0.1859  0.1985  0.2203
46696W        W47560   5.160   8.333  15.732  0.2907 -0.0118  0.0969
46697W        W47561  22.404  20.089   4.094  0.1381  0.0163 -0.0005
46698W        W47562  18.476   4.639  13.554 -0.2320 -0.0341  0.3324
46699W        W47563  20.557  25.377   5.226  0.1522  0.1374 -0.3394
46700W        W47564  19.137  21.615   9.990 -0.1083 -0.3087  0.1017
46701W        W47565  15.954  18.340  13.313 -0.0687 -0.0760 -0.0484
46702W        W47566   5.284   8.608   6.522  0.0783  0.1290 -0.0592
46703W        W47567  11.632   3.518  12.188  0.3773 -0.1283  0.0732
46704W        W47568  14.812  19.505  17.512  0.0605  0.0448 -0.1509
46705W        W47569   9.129  19.683  11.572 -0.2204  0.2071 -0.2256
46706W        W47570  17.533  10.450   9.391 -0.0117 -0.0403 -0.0586
46707W        W47571  28.746  22.215  26.919 -0.0984  0.2652  0.2676
46708W        W47572  13.894  21.023   6.417  0.0182 -0.1464 -0.1062
46709W        W47573   6.482  24.114  19.296  0.2295  0.0950  0.1244
46710W        W47574  11.972   5.790  23.203 -0.4383  0.0311  0.2571
46711W        W47575  26.832  25.978   4.088 -0.0732  0.2175  0.0136
46712W        W47576  12.118  28.839  17.455  0.0520 -0.0833 -0.0965
46713W        W47577  11.046  28.175  22.890  0.2770  0.0805  0.2106
46714W        W47578   0.631  15.313  27.131 -0.1678 -0.3027 -0.0918
46715W        W47579  17.337   0.249  17.426  0.0664 -0.2250 -0.1708
46716W        W47580   9.590  12.741   9.267  0.1371 -0.0465  0.0513
46717W        W47581  28.191   5.886  20.320 -0.2501 -0.2152 -0.2113
46718W        W47582   6.428   8.324   6.908  0.0128  0.1631 -0.0820
46719W        W47583  12.280  18.852  12.329  0.2890  0.1423  0.1648
46720W        W47584   9.024   1.721  26.651 -0.3103 -0.0121  0.0744
46721W        W47585  18.969  16.350  17.677 -0.2626  0.0897  0.1769
46722W        W47586   2.692   1.747  23.763 -0.0279 -0.1267  0.1779
46723W        W47587  12.339  13.434  10.123  0.1082  0.0184 -0.0230
46724W        W47588   6.279  17.579  18.030 -0.2473  0.5405  0.4087
46725W        W47589   9.265  20.019  13.656 -0.0340 -0.0818 -0.0917
46726W        W47590  23.073  24.443   7.650 -0.0278  0.1340 -0.3169
46727W        W47591  13.346  13.721   2.696 -0.0952 -0.2932 -0.1156
46728W        W47592  11.056  29.106  27.858  0.0461 -0.1738 -0.3240
46729W        W47593  26.043  26.438  26.120  0.1331  0.2512  0.2458
46730W        W47594  11.528  24.152   5.568 -0.1797  0.0766 -0.2756
46731W        W47595  23.737  23.085   9.503 -0.2512  0.0530 -0.0161
46732W        W47596   0.258   7.145  11.430  0.2069 -0.1149  0.2306
46733W        W47597  28.559  27.981  19.232  0.0040  0.0520  0.2571
46734W        W47598  10.587  17.403  18.041  0.4305 -0.2055 -0.1083
46735W        W47599   3.444   0.427   4.074  0.2056 -0.0708  0.1599
46736W        W47600  15.857  16.052  25.446 -0.0168 -0.0447  0.1212
46737W        W47601   5.152  10.439  18.479 -0.3725 -0.3625 -0.3049
46738W        W47602   0.459  20.673  10.463 -0.2516  0.0761 -0.1197
46739W        W47603  12.956  11.446   7.447 -0.1114  0.0019 -0.1391
46740W        W47604  23.685  21.068  24.300 -0.0865  0.0231 -0.0632
46741W        W47605   3.323  25.074  17.030 -0.1679  0.2066 -0.2734
46742W        W47606  14.450   0.386  11.813  0.1162 -0.2967  0.3790
46743W        W47607   3.742  21.862  28.013  0.2392 -0.3213  0.0384
46744W        W47608  17.866  21.376  14.291 -0.0775 -0.0871 -0.0911
46745W        W47609   4.464  22.574  16.239  0.3787  0.0982 -0.2442
46746W        W47610  28.366   2.591   9.081  0.0595  0.0710  0.2107
46747W        W47611  21.210   3.070  17.120 -0.1113 -0.3530 -0.0714
46748W        W47612  25.331  28.285   5.579  0.0165 -0.1062  0.0908
46749W        W47613  18.127  25.602  18.482  0.0066  0.3817 -0.0320
46750W        W47614  27.684  28.650  28.871  0.0020  0.0035 -0.2754
46751W        W47615   9.321   4.112  22.983 -0.1544  0.0483 -0.0286
46752W        W47616   2.099  26.158   1.953  0.0322  0.2276  0.0648
46753W        W47617   8.163  21.106  16.489  0.2448 -0.0266 -0.1961
46754W        W47618   4.741  19.314  28.416  0.0922 -0.1043 -0.2835
46755W        W47619   5.540  24.915  12.229  0.1444 -0.2255 -0.2015
46756W        W47620   2.924   0.180  25.838 -0.1394 -0.4461 -0.0065
46757W        W47621  13.783  17.853  23.220  0.0572 -0.1202  0.2226
46758W        W47622   3.314  19.525   8.766 -0.0270 -0.0700 -0.0257
46759W        W47623   6.971  14.169  14.042  0.3447 -0.0900  0.0439
46760W        W47624   3.131  18.435  22.807  0.1581 -0.1305  0.0542
46761W        W47625  16.003  21.120  19.144  0.2274 -0.1254 -0.0826
46762W        W47626   4.707  23.894  13.953  0.0931  0.3492  0.1116
46763W        W47627  27.003  16.727   5.606 -0.1690  0.3317 -0.0717
46764W        W47628  15.390   6.112  18.128  0.1720  0.0175 -0.1222
46765W        W47629  13.081  19.589  19.637  0.0071 -0.1246  0.0336
46766W        W47630  10.177  24.866  23.839 -0.3093 -0.0564  0.0964
46767W        W47631  10.036  15.070  16.948 -0.0219  0.2229  0.0194
46768W        W47632   6.289  24.870  10.955  0.1065  0.0082 -0.1996
46769W        W47633  11.043  26.643  25.042 -0.0255  0.2330 -0.0101
46770W        W47634  14.207   7.464   6.924 -0.1692 -0.0377  0.1019
46771W        W47635   0.534  19.657  13.444  0.0746  0.0497 -0.1701
46772W        W47636   8.542   6.472   4.058 -0.1888 -0.2467  0.3243
46773W        W47637   7.887   8.006  11.359  0.0472 -0.2091 -0.0547
46774W        W47638   3.902  10.349  10.666 -0.3509  0.1670  0.0937
46775W        W47639  22.686  28.370   6.794  0.2903 -0.1451 -0.1149
46776W        W47640   5.190   2.819  17.327 -0.0480  0.0397 -0.2080
46777W        W47641  20.662  15.119  10.125 -0.3066  0.1716  0.2320
46778W        W47642   0.337  18.629  27.420  0.2651 -0.0726 -0.2873
46779W        W47643  13.666  22.660  16.316 -0.1289  0.1825  0.1611
46780W        W47644   0.271  11.261   8.719 -0.3532 -0.0351  0.2751
46781W        W47645  27.929   1.905  12.691 -0.1189 -0.0157  0.1295
46782W        W47646  27.102  28.179  20.620 -0.3427  0.0537  0.0491
46783W        W47647   8.341  17.998  18.356  0.0073  0.2688 -0.0494
46784W        W47648  18.502  12.847  27.170  0.1442  0.0866 -0.1524
46785W        W47649  22.468  17.104  24.166  0.2279  0.2102  0.1985
46786W        W47650   3.875   3.687  19.844  0.1156  0.2847 -0.0621
46787W        W47651  14.766  18.102  26.093 -0.0380 -0.2311  0.2960
46788W        W47652  23.514  18.268   4.272  0.2577  0.0348 -0.0002
46789W        W47653  23.978   1.478  24.400  0.0400  0.0011  0.0897
46790W        W47654  16.156  25.682  22.338 -0.4619 -0.0715 -0.2870
46791W        W47655  24.586   8.309  17.028  0.0939 -0.1313  0.2004
46792W        W47656  19.683  12.898  21.295  0.1023 -0.2590  0.0150
46793W        W47657  12.258  22.151  13.751 -0.0297  0.1368 -0.1026
46794W        W47658  15.822  25.890   2.122  0.3584 -0.1910  0.4820
46795W        W47659  12.459   4.525   6.269  0.0333  0.0919  0.2618
46796W        W47660  17.096   7.864   2.940 -0.0672  0.2576 -0.1629
46797W        W47661  12.004  12.358  17.852  0.2687  0.0579  0.3454
46798W        W47662  15.563  15.373   5.373 -0.2273  0.0617 -0.0101
46799W        W47663  11.267  22.668  18.655 -0.1290  0.1455 -0.2104
46800W        W47664  27.044  26.253  17.556 -0.3154 -0.3564  0.4355
46801W        W47665  13.303  11.171   7.223 -0.1064 -0.0594  0.2162
46802W        W47666  16.843   1.412  23.024 -0.0151  0.0194  0.0957
46803W        W47667  15.278  28.462  11.570  0.2332 -0.1600 -0.1640
46804W        W47668   6.914  24.375  13.357  0.0659 -0.3153 -0.1146
46805W        W47669   8.045  16.652  13.035  0.0981  0.5031 -0.0227
46806W        W47670   9.015   3.343   4.988  0.1736 -0.0099 -0.1651
46807W        W47671  16.302   2.162  23.801  0.0632 -0.4070  0.3577
46808W        W47672  25.361  27.071  23.168  0.2195  0.0776  0.2178
46809W        W47673   0.917  10.094   5.814  0.0440 -0.2935 -0.2377
46810W        W47674   1.226  23.174  12.714 -0.2908  0.1457 -0.1999
46811W        W47675  20.868   1.570  18.654  0.0612  0.0824  0.2543
46812W        W47676  14.733  17.705  22.682  0.0574  0.2022  0.0474
46813W        W47677   9.608   0.431   3.354  0.0595  0.0395 -0.1919
46814W        W47678  17.849   0.311  23.762  0.1031  0.0233  0.0429
46815W        W47679  13.595  24.415  11.909 -0.1880  0.0121  0.1087
46816W        W47680   4.861  22.479  10.741 -0.2373 -0.1263  0.0147
46817W        W47681   0.860  28.985  26.229  0.0419 -0.0529  0.0051
46818W        W47682  24.310   1.140  13.657 -0.3234  0.0185  0.4510
46819W        W47683   0.391  17.371   8.639  0.1155 -0.1521 -0.2055
46820W        W47684  16.473  24.554   8.124 -0.1653  0.3105 -0.3665
46821W        W47685   5.746  25.318  17.870 -0.1666 -0.1451  0.1013
46822W        W47686   0.799  28.627  16.673 -0.1917 -0.4044 -0.1087
46823W        W47687  14.740  17.385  15.402  0.1638 -0.1059  0.2791
46824W        W47688   8.569  20.528  20.328  0.1461  0.1855  0.1196
46825W        W47689  28.856   5.961  16.524  0.3395 -0.0227 -0.1447
46826W        W47690   2.954  13.880  17.709 -0.1701  0.3157  0.2812
46827W        W47691  13.311  23.680  21.566  0.1259  0.1710  0.0435
46828W        W47692  11.621  13.140  23.593 -0.0998 -0.0896 -0.1527
46829W        W47693   9.410  21.337  24.720  0.2473  0.0210 -0.1509
46830W        W47694   6.382  13.071  29.089  0.1408  0.1611 -0.1727
46831W        W47695   6.699   5.620  13.500 -0.0645 -0.1787  0.1159
46832W        W47696  28.659  28.484  27.997 -0.1957 -0.0139  0.0568
46833W        W47697  16.127  21.094  23.065  0.3627  0.2589 -0.3758
46834W        W47698   5.593  26.998  18.952 -0.3637  0.2646  0.0678
46835W        W47699  27.344   9.708  17.356  0.0528  0.0772 -0.2206
46836W        W47700  28.361  23.307  24.001  0.2499 -0.1285 -0.2115
46837W        W47701  19.375   3.245   8.833  0.1533  0.0007  0.0925
46838W        W47702   2.806  25.774  22.475 -0.0650 -0.1270  0.0919
46839W        W47703   9.065  28.041  12.181 -0.0335 -0.2076  0.1176
46840W        W47704  26.674  22.672   1.700 -0.0404  0.1040  0.0912
46841W        W47705  20.145   2.484   7.214 -0.0708 -0.2893 -0.3157
46842W        W47706  27.023  28.239  28.107  0.1461  0.0391 -0.0243
46843W        W47707  20.542  27.257  16.911  0.1574 -0.2804 -0.2267
46844W        W47708   1.474  24.241  15.081  0.0075 -0.2315 -0.3178
46845W        W47709   8.727  19.625  27.362  0.3879 -0.0280  0.0060
46846W        W47710   9.085   3.998  14.946  0.2747  0.1850 -0.1170
46847W        W47711   9.088   1.769  22.518 -0.0957 -0.0920 -0.3823
46848W        W47712  12.242  28.739  10.809 -0.1516  0.1677 -0.0016
46849W        W47713   2.088  12.431  25.684 -0.1273  0.3018 -0.3300
46850W        W47714  28.203   2.816  18.261 -0.0147  0.1564 -0.1922
46851W        W47715  21.579  13.403   5.651  0.1037  0.0126 -0.0627
46852W        W47716  22.669  20.148   3.689 -0.4250 -0.0801 -0.3155
46853W        W47717  11.463  18.195  17.707 -0.0173  0.1228  0.0154
46854W        W47718   9.418  11.708   8.315 -0.1984  0.0926 -0.0848
46855W        W47719  10.922   5.853  24.493  0.0939 -0.0773  0.2023
46856W        W47720   4.154  13.984  28.783 -0.1516 -0.4809 -0.1269
46857W        W47721   5.744   0.539   0.655  0.3927  0.5475  0.3320
46858W        W47722   8.253  23.050   0.878  0.1181 -0.1679  0.0479
46859W        W47723   2.373   9.170  13.070  0.2225 -0.1554 -0.2246
46860W        W47724  24.175  18.448   4.591 -0.2560 -0.1269  0.0167
46861W        W47725   1.066  11.000   6.656  0.0269  0.0090 -0.1920
46862W        W47726  11.256  20.941  19.069  0.0376 -0.1107  0.0598
46863W        W47727   6.772  13.124   7.570 -0.0258  0.0363 -0.0239
46864W        W47728  27.868   6.792  11.747 -0.2648  0.0516  0.0011
46865W        W47729  26.552  23.397  14.393  0.0213 -0.0440  0.1141
46866W        W47730  14.913   0.545  11.904 -0.1364 -0.0201  0.3637
46867W        W47731  12.232  11.740  16.264 -0.0828  0.1815 -0.1178
46868W        W47732  19.875   8.318   9.330  0.0474 -0.1633 -0.0852
46869W        W47733   7.200  20.801  17.915  0.0020 -0.0586  0.4945
46870W        W47734   4.433   8.430  16.065 -0.1629 -0.1915  0.0995
46871W        W47735   5.934  24.763  22.646 -0.0829 -0.1865  0.0190
46872W        W47736  22.332  24.307  17.666  0.0482  0.2341 -0.0680
46873W        W47737  17.197   5.513  12.102 -0.1135  0.1536 -0.3020
46874W        W47738   2.263  29.048  18.317 -0.1509 -0.1729  0.0825
46875W        W47739  20.496  25.196  28.540  0.0687 -0.0244 -0.0566
46876W        W47740  10.762  18.648  12.917  0.0182 -0.0762  0.4171
46877W        W47741  24.013  11.826   7.807 -0.3320  0.2881 -0.2445
46878W        W47742   7.052  26.853   4.078 -0.3968 -0.0048 -0.3023
46879W        W47743  25.895  22.334  16.775 -0.0377 -0.2767  0.1145
46880W        W47744   4.753  18.595  18.296 -0.4871 -0.0618 -0.4994
46881W        W47745  12.713  16.721   3.953  0.0974  0.1117 -0.0523
46882W        W47746  13.210  29.004   6.198  0.1830 -0.1083 -0.2251
46883W        W47747  27.891  14.507  26.744  0.0740 -0.1331  0.0546
46884W        W47748  24.951   2.216   1.597 -0.0749  0.1957  0.0763
46885W        W47749  12.232  23.690  28.786  0.1375 -0.0766  0.1643
46886W        W47750  19.094   6.951  16.968  0.1754  0.3138 -0.0848
46887W        W47751   5.116   1.135  12.215 -0.1719 -0.2532  0.0362
46888W        W47752  14.346  10.003   5.759 -0.0091  0.0387 -0.1246
46889W        W47753  25.525  10.457   7.568  0.4857 -0.0788 -0.1497
46890W        W47754   8.526  26.102   1.377  0.0866 -0.3525  0.1597
46891W        W47755  16.420  25.753  12.980 -0.3258  0.0450  0.1787
46892W        W47756  28.723  16.625  25.764  0.0549 -0.0022  0.0142
46893W        W47757   8.364  14.874  22.095  0.0600 -0.0082  0.0201
46894W        W47758  26.648  25.003  18.529  0.1439 -0.1075 -0.3701
46895W        W47759   4.648  26.420  14.016  0.0419  0.0876 -0.0666
46896W        W47760  27.281   0.998  27.608  0.0445 -0.1742 -0.1460
46897W        W47761  16.540   9.835  21.386 -0.4713 -0.0863  0.0209
46898W        W47762  24.398  15.321  11.678  0.2030 -0.0156 -0.0815
46899W        W47763   5.955  17.621   4.707 -0.0357  0.1852  0.0836
46900W        W47764  15.089  14.883   5.699 -0.2129 -0.1499  0.0228
46901W        W47765   3.913  27.305  14.267  0.2502 -0.1239  0.3004
46902W        W47766   0.934   8.059   0.946  0.0630  0.1095  0.0848
46903W        W47767   0.593   1.145  27.476  0.1150 -0.1255 -0.2357
46904W        W47768  21.163  24.101   9.466 -0.0830  0.2330  0.0326
46905W        W47769  28.279   8.865  25.221 -0.1206 -0.2449  0.0131
46906W        W47770  12.335  16.318  12.396 -0.1688 -0.2672 -0.0008
46907W        W47771   5.800  25.806  25.002 -0.0351 -0.2138 -0.1231
46908W        W47772   1.127  25.203   1.065  0.1161 -0.2315  0.0307
46909W        W47773   1.660  27.185  12.370  0.3540 -0.2120  0.0835
46910W        W47774  26.741  10.354  18.581  0.2403  0.1272 -0.0726
46911W        W47775   1.075  23.682   9.954  0.1643 -0.1682  0.1124
46912W        W47776  14.193  13.733   4.791 -0.3511  0.0105 -0.0663
46913W        W47777  15.362  21.027   7.719  0.1296 -0.0866  0.2207
46914W        W47778   0.335  25.178  13.989 -0.1912  0.0781 -0.0326
46915W        W47779  11.899  18.522  19.046  0.0274  0.0179  0.2681
46916W        W47780   3.972   2.453  22.374  0.3444  0.4199 -0.3222
46917W        W47781   0.917   6.450  26.079  0.0042 -0.1123 -0.0687
46918W        W47782  11.559   6.436  17.814  0.0728 -0.0134 -0.0855
46919W        W47783  10.188  11.016  20.270  0.1574  0.0157  0.0666
46920W        W47784   2.945   2.292  25.988 -0.0544 -0.3458  0.1907
46921W        W47785   6.662  25.111   9.418 -0.1868 -0.0197 -0.1977
46922W        W47786  12.701  10.627  24.976  0.0851  0.1526 -0.0706
46923W        W47787  13.480  20.615  19.243  0.1450 -0.2325 -0.1100
46924W        W47788  13.941   4.072   9.461 -0.0821 -0.0059  0.1460
46925W        W47789  13.765  26.763   3.614  0.1621 -0.2329 -0.1280
46926W        W47790  21.320  10.306  17.648 -0.0733 -0.3636  0.2955
46927W        W47791   2.032  15.536  22.830 -0.3825 -0.0365  0.2842
46928W        W47792  15.421  26.753  27.475 -0.0990 -0.1659 -0.1915
46929W        W47793  28.116  19.177   1.587 -0.1595 -0.3248 -0.0994
46930W        W47794  21.736  27.472   1.201  0.0877 -0.1318 -0.2030
46931W        W47795   6.105  19.928   3.405  0.2751  0.0979  0.0326
46932W        W47796   3.124  10.984  18.400  0.2365 -0.0208  0.2271
46933W        W47797   4.780  19.170  23.776 -0.0344  0.0063 -0.0090
46934W        W47798  19.228   6.851  18.150  0.0618  0.2035 -0.1898
46935W        W47799   4.477   0.011  12.130 -0.2459  0.3339  0.0062
46936W        W47800   6.628  14.792  14.300 -0.0473  0.2384  0.1669
46937W        W47801  10.851  22.186  10.967  0.1062 -0.1611 -0.1305
46938W        W47802  11.813   5.640  20.002  0.0304  0.2561 -0.0203
46939W        W47803   8.270  14.259  26.195 -0.0883  0.1033 -0.0398
46940W        W47804  25.377  17.198   9.360  0.0429  0.0943 -0.1490
46941W        W47805   4.426  20.984   7.495  0.5547  0.1738  0.0592
46942W        W47806  14.636  28.292  16.078 -0.1333  0.1217 -0.1931
46943W        W47807  11.508  15.943  28.442  0.0996 -0.0813  0.4347
46944W        W47808   2.115  28.439  23.728  0.1010  0.0957  0.1251
46945W        W47809  11.909  17.663  13.186  0.2088 -0.3349  0.0942
46946W        W47810  19.408   7.618  25.461 -0.0292 -0.0095 -0.0407
46947W        W47811  24.073  21.513   0.317  0.1789 -0.0716  0.1523
46948W        W47812  11.308   9.114  17.972  0.3190  0.0563  0.0349
46949W        W47813  28.624   8.310  10.448 -0.4404 -0.2404 -0.2452
46950W        W47814  13.514  25.819  13.224 -0.0630  0.0441  0.0684
46951W        W47815  25.351  10.573  25.462 -0.2615 -0.0609  0.0715
46952W        W47816  18.305  21.446  15.398 -0.0174 -0.0525  0.0203
46953W        W47817   7.717  11.414  12.263 -0.1662  0.0147  0.0505
46954W        W47818   8.814   1.274  10.331 -0.0865 -0.1162  0.2730
46955W        W47819   3.661   6.262  15.214 -0.2063 -0.1908 -0.0129
46956W        W47820   8.624   6.285  27.812  0.2049 -0.0340 -0.3337
46957W        W47821  27.515  24.750  13.925  0.0203 -0.0342  0.0319
46958W        W47822  25.228   2.408  20.984  0.1361  0.1706  0.4072
46959W        W47823   8.423   7.612  15.494  0.0486  0.0810  0.2699
46960W        W47824  14.110  15.001  25.034  0.0634 -0.1681 -0.2195
46961W        W47825   9.223  22.531  15.552  0.2166 -0.5035 -0.1895
46962W        W47826  10.388  24.999  26.658  0.0415  0.2452  0.0793
46963W        W47827  15.246   3.916   8.568 -0.2409 -0.2038  0.2181
46964W        W47828   9.664   8.198  18.568  0.0762  0.2072  0.3086
46965W        W47829   2.875  25.014  18.216  0.1483 -0.0067  0.1268
46966W        W47830  17.030  28.150  17.763 -0.2322 -0.1177 -0.3352
46967W        W47831   7.366   5.060  23.658 -0.1683  0.0566  0.0497
46968W        W47832  24.633   6.603   6.899 -0.1184 -0.1179  0.0196
46969W        W47833   5.114   2.211  19.307 -0.0772  0.1595  0.0036
46970W        W47834   6.221   3.080  12.320  0.0501 -0.0400  0.0163
46971W        W47835   2.610  23.541  20.112 -0.0030 -0.1988 -0.0788
46972W        W47836   2.539  29.108  28.625 -0.0761 -0.1029  0.0158
46973W        W47837  14.014  18.759  28.366  0.0230 -0.1993 -0.2799
46974W        W47838  17.695  23.811  24.006  0.1104 -0.2908  0.2859
46975W        W47839   9.598  28.361   8.238  0.2069  0.2553 -0.2987
46976W        W47840  16.960  20.514  13.340 -0.0395  0.0215  0.0044
46977W        W47841  26.809  28.798  19.801 -0.0356 -0.2315 -0.2366
46978W        W47842  20.887  12.148  16.138 -0.2936 -0.4072  0.0874
46979W        W47843  20.390   5.546  28.265  0.1024  0.2819  0.2230
46980W        W47844  28.307   1.561  10.444  0.1868 -0.2583 -0.3399
46981W        W47845   6.733  27.387   2.692  0.2248  0.1823 -0.1547
46982W        W47846   2.425  21.781  13.244  0.2005  0.1550 -0.2510
46983W        W47847  14.712  20.909  25.857  0.0546 -0.0117  0.1039
46984W        W47848  28.104  27.134  25.572  0.0263  0.0540  0.2586
46985W        W47849  10.939  26.336   0.401 -0.3155  0.1898 -0.0260
46986W        W47850  17.964  19.689  18.481 -0.2205 -0.0855  0.2282
46987W        W47851  13.548  19.476  24.700  0.1525 -0.0178  0.5909
46988W        W47852  16.557  12.372   1.381  0.0116  0.4600  0.0958
46989W        W47853   7.077  16.699  20.018  0.0045 -0.1050 -0.2000
46990W        W47854   1.348   2.536  14.713  0.4181 -0.0699 -0.0415
46991W        W47855   7.745  12.156  13.180 -0.0065  0.1455 -0.1974
46992W        W47856  20.245   1.286  24.309 -0.2642 -0.3616  0.1778
46993W        W47857  24.914  14.262   6.413  0.0811  0.0208  0.1218
46994W        W47858  20.540  27.234  14.591  0.1096 -0.0626  0.1590
46995W        W47859   2.503  25.355  20.045  0.0842 -0.1446 -0.2394
46996W        W47860   2.662   4.437  10.118  0.0010  0.2641  0.1642
46997W        W47861  20.059  24.786  22.055 -0.1642 -0.2475 -0.2732
46998W        W47862  15.256   0.556  22.337 -0.1507  0.1869  0.0805
46999W        W47863  10.981   2.586  22.769  0.0190  0.3393 -0.0483
47000W        W47864   0.149  11.105   5.477 -0.3025  0.0185  0.3750
47001W        W47865  12.080  23.571  26.719 -0.0496 -0.3409  0.0295
47002W        W47866  10.961   9.494  10.003 -0.2082  0.1303 -0.1213
47003W        W47867  27.787  18.682  14.340 -0.1634 -0.2862 -0.2290
47004W        W47868  27.710  21.769  25.071  0.1876 -0.1683 -0.0083
47005W        W47869   3.069   8.265  13.574  0.0133 -0.1227 -0.0266
47006W        W47870  25.751  24.142   0.149 -0.1843  0.1187 -0.2924
47007W        W47871   1.719  23.926  10.632 -0.3480  0.4408  0.4636
47008W        W47872  28.033   7.403   5.964  0.1573 -0.3192  0.0424
47009W        W47873  11.646  21.159  18.289  0.0825 -0.1800 -0.1827
47010W        W47874   0.929  21.977  18.529  0.0253  0.2014 -0.5993
47011W        W47875  21.613  28.282   8.132  0.0399  0.3130 -0.1598
47012W        W47876   5.376  15.841   4.219 -0.0124  0.0429 -0.1234
47013W        W47877   4.674   0.916  20.817  0.4172  0.3241  0.2074
47014W        W47878  10.512   3.702   8.004 -0.0683 -0.4492 -0.1403
47015W        W47879   9.766   4.720   5.150 -0.2302  0.3950  0.3117
47016W        W47880   4.440  23.888  20.670 -0.0575  0.0033 -0.2454
47017W        W47881  12.768  19.983   0.318  0.4468  0.0558  0.0249
47018W        W47882   9.623  19.390   1.005 -0.1305 -0.2253 -0.0300
47019W        W47883   6.517  23.189  22.835 -0.1339  0.2538 -0.0380
47020W        W47884  19.422  20.241   1.372  0.1181  0.1068 -0.0571
47021W        W47885  12.470   7.969  15.033 -0.0099 -0.2952 -0.0120
47022W        W47886  14.312  18.329   5.040 -0.0816 -0.0886 -0.1681
47023W        W47887  11.124   3.774   2.680  0.1442  0.1273  0.0397
47024W        W47888  11.415  25.522  13.869  0.1177  0.0340 -0.1616
47025W        W47889  13.018  22.833  12.565 -0.2081  0.1078  0.1372
47026W        W47890   2.695   5.812   8.049  0.0075 -0.1683  0.1210
47027W        W47891   8.548  23.310  23.545 -0.2472 -0.1726 -0.2084
47028W        W47892   3.373   1.758  20.845  0.0660  0.4049  0.0141
47029W        W47893   8.710  15.585  19.034 -0.0385 -0.1724  0.2271
47030W        W47894  24.449  24.104  15.011  0.0350  0.3767 -0.1051
47031W        W47895  22.861  15.312   4.276 -0.1367  0.4398  0.0585
47032W        W47896  19.211  22.235  18.026 -0.0087  0.0531  0.2649
47033W        W47897   6.237  17.635  19.699 -0.3371  0.5831 -0.0027
47034W        W47898  14.864  14.443  12.833 -0.1868 -0.0338  0.1987
47035W        W47899   6.756   0.456  22.849 -0.1102 -0.0621  0.1544
47036W        W47900   5.301  17.031  17.618 -0.0723  0.0639 -0.2238
47037W        W47901   9.583  27.211   2.062  0.0109  0.0461 -0.0605
47038W        W47902  15.219  18.622  23.445  0.2241 -0.1507  0.2041
47039W        W47903   1.289   1.818  13.788  0.1386 -0.1511 -0.0386
47040W        W47904   1.035  20.897  25.742  0.0532  0.0537  0.1030
47041W        W47905   7.191   9.312  28.661  0.1098 -0.1327  0.1103
47042W        W47906   9.395  18.366   2.991 -0.2775 -0.0624 -0.0310
47043W        W47907  21.004   7.009  14.896  0.1026 -0.1455 -0.0400
47044W        W47908   5.610  20.256  13.810  0.2347  0.1842  0.0157
47045W        W47909  12.641  23.835   9.319  0.0365  0.0580  0.1346
47046W        W47910  25.797  22.722  14.614  0.0533  0.2476 -0.3077
47047W        W47911  28.144  12.830  16.731  0.3976  0.0263  0.0117
47048W        W47912  28.719  22.485  20.091 -0.0330  0.0208 -0.0275
47049W        W47913  20.936  19.366  27.652 -0.1639 -0.1376 -0.1722
47050W        W47914   7.395   5.955  17.452 -0.0925  0.3092  0.0212
47051W        W47915  11.305  15.545  18.937  0.2728 -0.1168  0.0967
47052W        W47916  19.459  15.059  11.308  0.0426 -0.1416  0.1880
47053W        W47917   5.356  14.160   0.560  0.2611  0.0516  0.1101
47054W        W47918   5.971   3.918  13.490  0.0406  0.0908  0.3862
47055W        W47919  25.074  11.944  23.572 -0.0952  0.0907 -0.0176
47056W        W47920   1.233  14.400  22.106 -0.1317 -0.0385  0.1624
47057W        W47921   3.819   3.243   4.026 -0.2723 -0.1767 -0.1304
47058W        W47922  13.987  11.339  19.139 -0.3126 -0.1560 -0.1869
47059W        W47923  27.102  12.652   4.340 -0.0515  0.2523  0.1396
47060W        W47924  26.388  14.899  12.607 -0.2178  0.4545  0.0065
47061W        W47925   4.658  18.389  21.262 -0.0900  0.0173  0.2054
47062W        W47926  28.970  23.359   2.761 -0.0739 -0.1614  0.0439
47063W        W47927  20.581  27.688   2.310  0.0077  0.4147 -0.1269
47064W        W47928  11.243  27.095  11.543  0.3076 -0.1183 -0.2443
47065W        W47929  27.598  15.904  23.697  0.0445 -0.0584  0.3169
47066W        W47930  10.958   8.044  22.952  0.3390 -0.4733 -0.3966
47067W        W47931   9.649  18.906  18.548  0.1787 -0.1625  0.1287
47068W        W47932  21.572  19.244   2.483  0.1498 -0.2217  0.0427
47069W        W47933  13.819   5.835  24.361 -0.2443  0.1601  0.2270
47070W        W47934  26.631  28.651  26.932  0.0855 -0.0221 -0.1568
47071W        W47935  11.583   3.337   6.461 -0.0420  0.1708  0.2578
47072W        W47936   8.279   1.965  24.674 -0.0444  0.2222 -0.0930
47073W        W47937  13.468  23.068   5.212  0.1019 -0.2770  0.0334
47074W        W47938   9.014  12.589   2.040 -0.1428  0.2415  0.1387
47075W        W47939  28.749  29.136  27.747 -0.1284 -0.2869  0.0617
47076W        W47940   7.063  21.025  27.492  0.0083 -0.0535  0.0033
47077W        W47941   3.849  11.951   0.054  0.0252  0.2191  0.3637
47078W        W47942   6.448  26.153  20.127  0.1377 -0.0046  0.0150
47079W        W47943  15.102  20.085  27.849 -0.0809 -0.0445  0.1343
47080W        W47944   5.770   7.332  12.666  0.2287  0.1402  0.1184
47081W        W47945  27.442   9.437  11.813 -0.1186  0.0128  0.0845
47082W        W47946   5.434  28.047  28.976  0.0979 -0.1760 -0.3101
47083W        W47947  19.371  11.869  12.316 -0.3251 -0.0235 -0.0405
47084W        W47948   9.288  26.653   7.406  0.0947 -0.0958 -0.2307
47085W        W47949  18.048  10.715  17.960  0.0255 -0.1137  0.0698
47086W        W47950  15.142   6.983  24.310  0.3313  0.0745  0.1434
47087W        W47951   2.405  10.857  24.184 -0.1955  0.1769 -0.1634
47088W        W47952   9.377  10.386  22.103 -0.0423 -0.1161  0.1136
47089W        W47953  20.699   8.101  25.636  0.2160  0.1222  0.0516
47090W        W47954  13.159  11.991  17.928  0.1535  0.1443  0.0846
47091W        W47955  16.486  21.842   4.853  0.2332 -0.0522  0.0046
47092W        W47956  11.394  22.827  23.971  0.3467  0.1195 -0.0788
47093W        W47957   1.319   6.964   8.369 -0.0870  0.2040  0.0171
47094W        W47958  11.192  23.468  18.181  0.0567 -0.3845  0.0469
47095W        W47959  18.129  25.626  13.681 -0.2990  0.2843 -0.1206
47096W        W47960  26.515  12.627  15.590 -0.1277 -0.0150 -0.0525
47097W        W47961  12.038  27.437   8.497  0.0478  0.2719  0.0404
47098W        W47962  21.230  23.733  26.564  0.4347 -0.2419 -0.1430
47099W        W47963   2.877  28.770  20.123 -0.0380  0.1728 -0.1460
47100W        W47964   8.843   3.296  11.282  0.1096 -0.2205 -0.0751
47101W        W47965   0.120  20.070  24.774  0.0292  0.2232  0.3923
47102W        W47966   1.387  17.266  10.635 -0.1125  0.0083  0.1783
47103W        W47967  12.895   3.137  16.362 -0.0681  0.1053  0.1278
47104W        W47968   4.493  19.174  25.446 -0.0800 -0.0458  0.1494
47105W        W47969  14.544   3.996   9.012 -0.0305 -0.0495 -0.1680
47106W        W47970  11.334  20.661  21.176  0.0880 -0.2757  0.2899
47107W        W47971  18.635  27.854  24.157  0.1848  0.0305 -0.0487
47108W        W47972   4.441   0.305  20.244  0.1215  0.0053 -0.0144
47109W        W47973   4.092  25.098   0.247  0.0789  0.0255  0.0443
47110W        W47974  16.209  25.875  20.675  0.1315 -0.0132 -0.0440
47111W        W47975   0.687  20.169  13.293  0.2025  0.0795  0.0830
47112W        W47976   6.786   2.717   8.569  0.0020 -0.1006  0.2185
47113W        W47977  10.581  24.098   0.401  0.2689  0.0481 -0.0317
47114W        W47978  16.026  26.811   3.970  0.1509 -0.3366  0.2384
47115W        W47979  17.778  20.094  16.379 -0.0508  0.0661 -0.1187
47116W        W47980  16.256  23.506   6.475 -0.2823 -0.2500  0.0871
47117W        W47981   9.243   0.865  11.445  0.0395 -0.1973  0.2703
47118W        W47982  28.920   0.187  21.692 -0.4896  0.1655 -0.0889
47119W        W47983   6.385   1.574  27.900 -0.3754  0.2433  0.4148
47120W        W47984  16.883  26.185  16.448  0.1033  0.0630  0.0689
47121W        W47985   7.800  17.170  23.531 -0.2849  0.1794  0.0312
47122W        W47986   0.295  25.990  20.720  0.1205  0.2255 -0.0719
47123W        W47987   5.157  24.028  16.073 -0.1360 -0.0543  0.1419
47124W        W47988  11.168  12.853  20.215  0.0027  0.2972  0.0751
47125W        W47989  23.192  11.937   0.647  0.0445 -0.1389 -0.0857
47126W        W47990  20.550  19.785   7.478 -0.0728 -0.0394 -0.0607
47127W        W47991  11.132   2.264  15.731  0.0064 -0.2405 -0.0391
47128W        W47992  25.126  23.111  15.968  0.1272  0.0687 -0.1440
47129W        W47993   4.760  20.762  23.527  0.2443 -0.0028 -0.1412
47130W        W47994  21.063  20.888  10.889 -0.3788 -0.2105  0.3622
47131W        W47995   1.476   7.492  13.839  0.2476  0.0402 -0.1769
47132W        W47996   4.146  16.666  20.225 -0.0409 -0.0781  0.0755
47133W        W47997  16.996  27.285  23.771  0.1498 -0.2074 -0.1402
47134W        W47998   3.728  21.683   7.226 -0.1428 -0.0198 -0.0523
47135W        W47999  19.932  11.357  28.381  0.1741 -0.2039 -0.2094
47136W        W48000  24.569  17.580   9.624 -0.3611  0.1651 -0.0539
47137W        W48001  28.672   3.725  20.872  0.1099  0.1891 -0.1187
47138W        W48002   9.723  16.475  16.286 -0.1315 -0.1425  0.0234
47139W        W48003   3.113  17.309  20.083  0.0030 -0.1015 -0.1646
47140W        W48004  29.138   0.309  14.245  0.0333 -0.3519 -0.1056
47141W        W48005  11.382   1.993  16.115 -0.0476  0.2699 -0.4430
47142W        W48006  13.763   9.488   9.162 -0.1500 -0.1412  0.0018
47143W        W48007  27.919  23.774  21.629 -0.1353  0.0186  0.1820
47144W        W48008   9.898   0.753  19.686 -0.1176  0.1326  0.2649
47145W        W48009  15.719  21.505   6.213  0.1400  0.2188  0.0789
47146W        W48010   3.541  18.984  27.730 -0.1726 -0.1282  0.4929
47147W        W48011  27.819  26.062   0.546  0.2649 -0.3668 -0.0840
47148W        W48012   1.762  19.555  19.809  0.3806 -0.0670  0.1314
47149W        W48013  21.200   4.277  19.902 -0.1764  0.0802 -0.1669
47150W        W48014  11.744  20.870   6.685 -0.0227 -0.1156 -0.1676
47151W        W48015   5.830  26.528   4.573  0.1258  0.0032 -0.2679
47152W        W48016  10.699   6.275   9.864  0.1402  0.0021  0.2554
47153W        W48017   0.669  20.925  10.919  0.3422 -0.0080 -0.1696
47154W        W48018  10.428  22.909   9.524  0.0334 -0.3635  0.1294
47155W        W48019  20.730  17.731  16.014  0.1025 -0.1252 -0.1524
47156W        W48020   5.543  15.326  20.509 -0.1340 -0.0163  0.2401
47157W        W48021  21.590  25.322  15.416 -0.4996  0.2312 -0.0316
47158W        W48022  15.143  24.570  18.396  0.0949  0.1111 -0.3380
47159W        W48023  11.358  17.492   0.728 -0.2600  0.0013  0.1296
47160W        W48024   8.782  26.936   4.926 -0.1360 -0.1441  0.0312
47161W        W48025  19.402  10.806  23.843 -0.1917 -0.0775 -0.0934
47162W        W48026  14.571  19.613  18.537 -0.2363 -0.0550 -0.1889
47163W        W48027  11.084   1.533  22.064  0.1202  0.0227 -0.0735
47164W        W48028   7.731  10.531  15.784 -0.3827  0.0114 -0.0307
47165W        W48029   0.389  21.221   4.202 -0.3557 -0.1256  0.2435
47166W        W48030   8.772  24.676  25.091 -0.4076  0.0241 -0.1439
47167W        W48031  12.695   8.536   1.704  0.1713  0.1316 -0.0065
47168W        W48032  22.413  25.940   0.052 -0.2908  0.2625 -0.2785
47169W        W48033  18.902  26.512   7.522  0.2410 -0.1620  0.3689
47170W        W48034   6.338  13.817  15.321  0.1699  0.2776 -0.0845
47171W        W48035  13.591   0.305  12.354 -0.0644  0.1227 -0.0366
47172W        W48036   1.639  26.647  21.593 -0.2774  0.0680  0.0916
47173W        W48037   6.698  17.382  12.123  0.1255 -0.3595 -0.0837
47174W        W48038   0.333  24.824   1.627  0.0255 -0.2170 -0.2434
47175W        W48039  27.688  10.387  28.145 -0.3384  0.1944  0.1062
47176W        W48040   5.375  12.217  17.309 -0.2106  0.1349  0.3398
47177W        W48041  15.159  15.797  23.217 -0.0637  0.0808 -0.1835
47178W        W48042   1.007  14.136  23.142  0.3764 -0.1780 -0.1312
47179W        W48043  22.769  19.171  28.926 -0.1196 -0.1270 -0.0965
47180W        W48044  22.675  13.380  23.130 -0.0469  0.0013  0.1857
47181W        W48045   3.509  13.854  27.435  0.1530  0.5198  0.0696
47182W        W48046   3.247  11.904  18.266 -0.2481  0.1863 -0.2903
47183W        W48047   9.981   4.664   1.842 -0.0424 -0.0279 -0.1290
47184W        W48048   2.598  13.946  19.649 -0.2639  0.2529  0.1842
47185W        W48049  20.106  21.490   9.689  0.2504  0.2074  0.1052
47186W        W48050  20.026  20.274  16.472  0.0340  0.2356 -0.3157
47187W        W48051   6.159  21.331  27.710 -0.0465 -0.1838  0.2104
47188W        W48052  10.654   1.440  19.714  0.2661  0.0993 -0.2785
47189W        W48053  27.088   1.011  19.075  0.1107 -0.3907 -0.1172
47190W        W48054  24.134  24.042   3.415  0.1574  0.2041  0.2408
47191W        W48055  18.163  19.953   5.345 -0.0969 -0.2899  0.0038
47192W        W48056   5.420  21.835  14.047  0.1467 -0.2786 -0.1015
47193W        W48057  26.018  19.587  17.137  0.0059 -0.0538  0.0959
47194W        W48058   3.390   4.641  17.103  0.2831  0.0911 -0.2350
47195W        W48059   7.030   1.733   4.152  0.2083 -0.0971 -0.1203
47196W        W48060   9.201   8.847   2.610  0.0211  0.0214  0.0940
47197W        W48061   6.545   0.976  22.043 -0.0283  0.4629 -0.1827
47198W        W48062  12.521  20.305  19.277 -0.2929  0.0458  0.0521
47199W        W48063  25.862  18.584  10.890  0.0197  0.2080  0.2070
47200W        W48064  23.462  26.910  28.578  0.1286 -0.0258 -0.0531
47201W        W48065  12.364  18.436  19.724 -0.3532 -0.2310  0.0689
47202W        W48066   7.209  19.286  26.053  0.0158 -0.0083 -0.2353
47203W        W48067   0.254  18.011   7.901  0.2277  0.0257  0.0021
47204W        W48068   4.335  25.359  14.751 -0.0122  0.4171  0.1255
47205W        W48069   3.522  21.467  22.289 -0.0153 -0.0741  0.2443
47206W        W48070   5.798  14.436  28.125 -0.1039  0.2355 -0.0138
47207W        W48071  19.822   5.711  24.906  0.1222 -0.0831  0.1777
47208W        W48072   0.397  23.318  16.079 -0.0292 -0.0378 -0.1610
47209W        W48073   9.836   8.020  24.632  0.0839 -0.0943 -0.3242
47210W        W48074  26.642  19.488  14.370 -0.0606  0.2388 -0.1700
47211W        W48075  13.634  13.296  15.975  0.0143 -0.3289  0.0973
47212W        W48076   8.400   1.824  23.111 -0.3212 -0.1200 -0.0961
47213W        W48077   2.229  15.063   2.740  0.2610 -0.0719 -0.0400
47214W        W48078   5.317  20.497  18.784  0.0279  0.0985 -0.0494
47215W        W48079   8.681  20.050  20.118  0.2873 -0.0216 -0.1814
47216W        W48080   4.874  24.051   5.325  0.0214 -0.1402 -0.0343
47217W        W48081   8.335   6.189   7.359  0.1156  0.2089 -0.2232
47218W        W48082  12.993  17.423  21.821  0.3726  0.2181  0.0407
47219W        W48083  21.484  28.677  12.210 -0.2339  0.0231  0.1135
47220W        W48084  27.264  22.082   0.738 -0.1654  0.0444  0.2942
47221W        W48085   4.979  23.521   4.754 -0.0650 -0.0742  0.1054
47222W        W48086   6.441  20.495  19.340 -0.1181 -0.1992  0.2346
47223W        W48087  12.140  26.661   6.205  0.0632 -0.0378  0.1873
47224W        W48088   2.306  21.891   7.961 -0.2996 -0.2192  0.2097
47225W        W48089  23.278   8.237   1.268 -0.2799 -0.1828  0.3553
47226W        W48090   7.446   1.440  22.567 -0.1378 -0.0460  0.1393
47227W        W48091   3.668  26.193  15.889  0.1549 -0.2015  0.2209
47228W        W48092  20.757   3.913   8.718 -0.0545 -0.0576 -0.0396
47229W        W48093  20.387  24.804   7.293  0.2443  0.0818 -0.0086
47230W        W48094  20.243  27.205  23.934  0.0114 -0.1285 -0.2036
47231W        W48095  10.984  13.239  19.937 -0.0245  0.0959 -0.1086
47232W        W48096   9.095   1.719  10.356 -0.3365 -0.0522 -0.2415
47233W        W48097   6.599  26.229   4.428  0.1326 -0.0199 -0.1827
47234W        W48098   0.199   8.375  15.607 -0.1469 -0.1606  0.2698
47235W        W48099  27.069  19.488   1.006  0.3270  0.2243  0.1036
47236W        W48100   3.159   1.521   8.481 -0.0590  0.1967  0.2505
47237W        W48101  19.316  26.331   8.349 -0.5087 -0.2061 -0.1627
47238W        W48102  26.346  23.920   5.729 -0.3009 -0.0037  0.0804
47239W        W48103  18.565   6.437  21.780 -0.4242 -0.0589 -0.3138
47240W        W48104  24.762  22.940  16.246  0.0080  0.0397  0.0593
47241W        W48105  15.371   1.374   0.807 -0.1512 -0.5301 -0.1522
47242W        W48106   1.286  28.404  17.405  0.1570  0.3118  0.0504
47243W        W48107   1.798   6.191  17.820  0.1535  0.0655  0.0948
47244W        W48108  26.206   1.128  21.907  0.2270  0.3186  0.0733
47245W        W48109   5.919   6.799   4.865  0.3927  0.0715 -0.0082
47246W        W48110   0.923  18.562  25.176 -0.2289 -0.0926  0.0649
47247W        W48111  14.619  17.420  24.791  0.0521 -0.0915 -0.1382
47248W        W48112  12.763  22.001   5.702 -0.0450  0.0182 -0.1701
47249W        W48113   4.952   2.611  25.182  0.0261 -0.1827 -0.1400
47250W        W48114  26.614  28.314  20.537  0.2279  0.1828  0.2100
47251W        W48115   2.399   8.613   1.401  0.1896  0.1364 -0.3357
47252W        W48116  11.524  26.930  14.379  0.1784  0.2965 -0.0613
47253W        W48117  26.133   9.099   4.569  0.0509  0.2365  0.1922
47254W        W48118  15.651  20.526   3.448 -0.1525 -0.2605 -0.1995
47255W        W48119  13.155  19.270  15.581 -0.0903  0.0642  0.1209
47256W        W48120  27.464   4.252  19.597  0.0947 -0.1680  0.0085
47257W        W48121   9.180  22.189  26.981  0.1257 -0.0297  0.2116
47258W        W48122  25.266  20.158   5.062  0.3690  0.0211  0.3348
47259W        W48123  23.320  18.395   2.425 -0.1178  0.2861  0.1044
47260W        W48124   5.888  26.684   2.950  0.0892 -0.1996  0.1658
47261W        W48125  23.123  22.283  20.356  0.0017 -0.3301 -0.4638
47262W        W48126  23.302  22.254  20.893 -0.3262  0.4685 -0.2051
47263W        W48127   4.821   3.803  12.287 -0.1039 -0.0571 -0.1107
47264W        W48128  17.072  21.174  14.824  0.0577  0.1014 -0.0569
47265W        W48129   0.555  18.797   2.989  0.2333  0.0666 -0.2953
47266W        W48130  17.052  13.247  15.964 -0.0316 -0.0676 -0.0097
47267W        W48131  18.246  22.813  18.357 -0.1432  0.1862  0.2213
47268W        W48132   4.417  26.853  19.594 -0.1501  0.3506  0.0488
47269W        W48133   3.131  10.580  25.362 -0.1721 -0.4249  0.0321
47270W        W48134   3.636  24.133   4.523 -0.2702 -0.3226  0.1606
47271W        W48135  19.777  23.582  15.489  0.0570  0.3091 -0.1495
47272W        W48136  13.717  28.272  23.971  0.1470  0.2389 -0.0142
47273W        W48137  21.969  25.889  24.040 -0.1834  0.4056 -0.0899
47274W        W48138  21.683  14.941  19.428  0.0377  0.1700 -0.2014
47275W        W48139  13.489  11.443  18.969  0.0361 -0.0262 -0.2739
47276W        W48140   1.457  14.903  20.023 -0.2648  0.1078 -0.0268
47277W        W48141  27.318  17.716   3.531  0.1436 -0.4451 -0.2262
47278W        W48142  14.040  19.036  22.305 -0.0112  0.1294 -0.0775
47279W        W48143  27.295   8.367  11.498  0.4175 -0.1410 -0.0867
47280W        W48144   6.373   9.867  27.796 -0.0603 -0.0411  0.0804
47281W        W48145  28.907  26.484  15.710  0.0319 -0.0686 -0.0371
47282W        W48146   2.280   1.624  18.124 -0.0406 -0.1279 -0.2757
47283W        W48147  26.121  20.440  12.677 -0.1737 -0.1770  0.3011
47284W        W48148  22.943  27.960  28.450  0.0796 -0.1746 -0.0392
47285W        W48149   2.776   9.662   3.802  0.1060 -0.0246  0.3163
47286W        W48150  14.707  26.898  11.159  0.1245  0.1502 -0.1735
47287W        W48151  19.229  23.648  20.014  0.0248  0.0862  0.0729
47288W        W48152  27.440   5.320  12.348 -0.0749 -0.2366  0.0549
47289W        W48153   4.724  14.585  23.043  0.3632 -0.0530 -0.2585
47290W        W48154  26.399   4.887  28.610 -0.1564 -0.1311 -0.0688
47291W        W48155   4.537   9.616   1.782  0.0858 -0.0162  0.2018
47292W        W48156  13.710  19.698   4.473  0.4215 -0.1694 -0.2244
47293W        W48157   6.992  16.191  13.237  0.2554 -0.2921 -0.1914
47294W        W48158   4.948  19.645   9.052 -0.2439  0.0833  0.1515
47295W        W48159   1.038  21.889  20.796  0.1091 -0.0819  0.1238
47296W        W48160   0.009  18.589  21.030 -0.0445 -0.2508 -0.1289
47297W        W48161  20.537  28.137  23.917  0.0642 -0.4252  0.1492
47298W        W48162  10.515   2.856  18.266 -0.2456  0.2960  0.1825
47299W        W48163  28.422  11.420  25.277 -0.0024 -0.0464 -0.0241
47300W        W48164   8.463  16.206  26.296 -0.2501 -0.1714  0.4296
47301W        W48165  13.679  28.171  22.996 -0.0394 -0.1352 -0.2580
47302W        W48166   7.142  18.878  13.429 -0.1554 -0.2000 -0.1728
47303W        W48167   6.255   5.663  19.057  0.2489  0.2006 -0.0670
47304W        W48168  11.759   5.751  18.523  0.2189 -0.0996 -0.1349
47305W        W48169   6.743  18.044  10.062  0.2420 -0.2479 -0.0420
47306W        W48170  22.941  17.483  13.634 -0.4244  0.2848 -0.2176
47307W        W48171   4.564  13.191  11.180 -0.1148 -0.1329  0.3015
47308W        W48172   3.503   5.286   9.607 -0.3769 -0.0398  0.0257
47309W        W48173  15.233   3.177  18.759  0.3233 -0.2623  0.2071
47310W        W48174  23.143  27.435  24.144 -0.1402  0.0152 -0.0540
47311W        W48175   5.125  20.554  21.584  0.1224  0.3165 -0.0243
47312W        W48176  27.652  13.555  13.100  0.1217  0.0153 -0.0296
47313W        W48177  22.764  26.253   4.923 -0.1038 -0.0119 -0.0028
47314W        W48178  15.466  21.751  17.635  0.0012 -0.2400 -0.0408
47315W        W48179  22.253   1.470  24.356 -0.1736  0.2784  0.1504
47316W        W48180   8.456   8.206  25.599  0.3356  0.2263  0.0798
47317W        W48181  21.613   5.053  16.233  0.0747 -0.0106 -0.0277
47318W        W48182   2.963  23.706  25.795 -0.0897  0.2964  0.1793
47319W        W48183   7.073  26.264   4.364  0.0036  0.0765  0.0068
47320W        W48184   3.849  14.666  20.964 -0.0370 -0.1675 -0.0011
47321W        W48185  14.938   0.124  11.667  0.1893 -0.2417 -0.1240
47322W        W48186  23.630  28.379  15.367 -0.0662  0.1731  0.2008
47323W        W48187  11.457  26.907  15.714  0.0753 -0.0694 -0.1599
47324W        W48188  28.774  22.408   8.090 -0.1254  0.1501 -0.3551
47325W        W48189   1.642   4.266  22.716 -0.1622 -0.2781  0.4658
47326W        W48190  26.915  16.098   9.682  0.0851 -0.0565  0.1738
47327W        W48191   6.410  16.513  27.068 -0.0520 -0.0306 -0.2838
47328W        W48192  20.142   6.623   0.759  0.1004 -0.0337  0.0084
47329W        W48193  18.032  18.085  22.126  0.0200  0.1101  0.1560
47330W        W48194  28.986  23.804   3.150 -0.1149  0.2070 -0.1038
47331W        W48195   7.721   5.663  15.707 -0.0729  0.0025  0.0890
47332W        W48196  16.554  15.867  27.820  0.3669 -0.0381  0.1342
47333W        W48197  24.670   7.409   1.162  0.2508 -0.0418 -0.2245
47334W        W48198  24.125   9.666  28.232  0.2008 -0.2476 -0.1637
47335W        W48199  16.946   0.342  19.632 -0.0892 -0.0971 -0.1722
47336W        W48200   7.231   6.135   4.041 -0.1138 -0.3202  0.1066
47337W        W48201   8.467  14.093   6.640  0.0604 -0.0058  0.0102
47338W        W48202  11.994   4.769   6.865 -0.2277  0.2143 -0.0266
47339W        W48203  27.677  12.172  27.378  0.1354  0.3150  0.4229
47340W        W48204   3.115  16.946   4.028  0.1145  0.3338  0.1826
47341W        W48205   9.977   0.970  14.015  0.2365 -0.0302  0.2502
47342W        W48206   5.537  18.628   3.399 -0.1864 -0.1166 -0.2657
47343W        W48207   7.314   7.845  26.940  0.1167  0.2697 -0.0483
47344W        W48208  20.483  24.032  25.937  0.0617 -0.0985 -0.1028
47345W        W48209  23.822  20.297  11.124 -0.0401  0.0515 -0.1282
47346W        W48210   1.222  22.374  18.413  0.1046  0.0801  0.0353
47347W        W48211   1.586   3.930  14.501 -0.0109 -0.1788 -0.2124
47348W        W48212  15.231  16.375  27.883  0.1254  0.0294  0.0947
47349W        W48213  27.211  24.982  17.425 -0.1020 -0.2059  0.0582
47350W        W48214   3.358  23.734  26.135  0.0775 -0.0977 -0.0676
47351W        W48215  11.467  14.530  21.016 -0.1054  0.1786 -0.2430
47352W        W48216  18.292   1.090  24.366 -0.0596 -0.1154 -0.2456
47353W        W48217   7.834  28.420  27.218 -0.3583  0.0433 -0.0249
47354W        W48218   3.633   5.411  27.496 -0.1408 -0.0524  0.0695
47355W        W48219  14.037  27.744  19.869  0.2317  0.3967  0.0899
47356W        W48220  14.647  15.441  16.958 -0.0741  0.2150  0.1728
47357W        W48221  24.600  15.143   6.321  0.0200  0.4599 -0.2453
47358W        W48222  19.908  26.038  25.462  0.0558  0.1088  0.2795
47359W        W48223  21.002  10.192  19.924 -0.1131 -0.0299  0.0577
47360W        W48224  17.997  12.851  17.927  0.2821 -0.0744  0.1949
47361W        W48225   2.959   5.043   8.812 -0.0532  0.1824 -0.0063
47362W        W48226  13.011   7.319  20.688 -0.2511  0.1564  0.2093
47363W        W48227  28.936  27.412  10.033  0.0954 -0.2419 -0.0262
47364W        W48228   9.182  24.141   9.872 -0.2644  0.0739 -0.2020
47365W        W48229  20.614  20.091  27.714  0.0828  0.0111 -0.1373
47366W        W48230   9.691  16.643  14.371  0.0305 -0.4158 -0.0151
47367W        W48231   3.592  13.967  18.802 -0.0480  0.2338 -0.1292
47368W        W48232   8.405   1.445  11.105  0.1190  0.0338  0.0125
47369W        W48233  23.748   5.242   0.021  0.1370 -0.1936  0.0615
47370W        W48234   1.500  10.652   3.667 -0.0954 -0.0519  0.0180
47371W        W48235  18.260   4.258   4.057  0.1257  0.1987  0.2221
47372W        W48236   5.167   5.193   2.015  0.1881  0.0063  0.0616
47373W        W48237   0.643  12.343  22.701  0.2138  0.0778 -0.1279
47374W        W48238  28.064  15.489  21.131 -0.1181  0.0194 -0.1158
47375W        W48239  11.504   9.463  15.840  0.2125  0.0547 -0.2984
47376W        W48240   6.834  22.825  14.998  0.1697  0.1160 -0.1335
47377W        W48241  19.425   2.666  21.721 -0.0469  0.3744 -0.2379
47378W        W48242   1.847   8.706  21.499 -0.0464 -0.0474 -0.0666
47379W        W48243   8.375   0.736  20.020  0.2088  0.1198  0.1682
47380W        W48244  20.252  18.930  27.825  0.0437  0.0223 -0.1468
47381W        W48245   2.626   6.659   4.409 -0.1418  0.0916  0.0884
47382W        W48246  15.314  21.654   6.006 -0.1159 -0.0660  0.1241
47383W        W48247  23.897  20.104  21.131 -0.2340  0.1371  0.0466
47384W        W48248  19.089   5.779  16.580  0.1762 -0.0675  0.2943
47385W        W48249  17.371  20.957   2.644  0.1040 -0.2046  0.0049
47386W        W48250  22.580  16.880   3.506 -0.1917 -0.5599  0.1490
47387W        W48251  14.178   1.767  12.086  0.1108 -0.2021 -0.2300
47388W        W48252  21.299  21.678  11.429  0.1631 -0.0178  0.0845
47389W        W48253   9.256   9.423   3.302  0.3609  0.4190 -0.1503
47390W        W48254  11.489  20.382  24.546  0.5671  0.0850 -0.0657
47391W        W48255   1.710  15.065   4.123 -0.1258 -0.4004 -0.0338
47392W        W48256  24.237   0.756  25.376  0.0977  0.0298 -0.0500
47393W        W48257  15.435  24.273  23.671  0.0470 -0.0886  0.0683
47394W        W48258  16.683  22.906   6.105 -0.0048 -0.1536  0.0550
47395W        W48259  28.970  20.182  16.861 -0.0232  0.2341  0.3030
47396W        W48260   3.181  23.583  10.527 -0.1358  0.0839  0.2860
47397W        W48261   1.229   9.930  23.240 -0.1401 -0.1063  0.0021
47398W        W48262   0.956  24.402  23.570  0.3649  0.1084 -0.1183
47399W        W48263   8.642  25.209  26.612  0.2410 -0.0563 -0.0525
47400W        W48264   4.924  25.613   3.178 -0.4625  0.1364 -0.0245
47401W        W48265   7.886  18.727  15.358  0.0883  0.0237 -0.1116
47402W        W48266  22.556  28.559  25.249  0.0380 -0.1073 -0.0245
47403W        W48267  18.569  20.799  12.782 -0.0692  0.2150  0.2813
47404W        W48268  22.313   3.661   6.966  0.0715  0.1659  0.0739
47405W        W48269   1.416   7.978   9.679  0.1414  0.2078  0.0021
47406W        W48270   2.004  16.572  20.244 -0.1941 -0.0269 -0.1526
47407W        W48271   4.994  16.526  18.565  0.1495 -0.0354  0.1323
47408W        W48272  23.399  22.281  10.938 -0.0016  0.0460  0.3861
47409W        W48273  19.392  25.439  17.950  0.4025  0.1968 -0.1986
47410W        W48274  17.149  19.308  16.482  0.0087 -0.0056  0.0315
47411W        W48275   9.094   0.453  18.113 -0.1343 -0.1767  0.3290
47412W        W48276  18.317   5.472   4.454  0.1746 -0.0759 -0.2262
47413W        W48277  12.317   8.011  18.701 -0.0256  0.2134 -0.0337
47414W        W48278  20.724  20.856   9.627 -0.3488  0.1277  0.0738
47415W        W48279   3.802   2.379  17.493  0.1581 -0.2227 -0.1532
47416W        W48280   3.095  20.214  13.628  0.0930 -0.2342 -0.1269
47417W        W48281  15.787  13.047   3.232  0.1445  0.0043  0.0952
47418W        W48282   3.216  20.782  25.255 -0.4201 -0.2910  0.2335
47419W        W48283   2.063  24.916  14.610 -0.0791  0.0690 -0.0240
47420W        W48284  17.114  22.201  22.253 -0.1934  0.0877 -0.1656
47421W        W48285  14.223  23.573  17.848 -0.0172 -0.0434 -0.2010
47422W        W48286  28.209   9.763  26.894  0.0843  0.2118 -0.1610
47423W        W48287  21.457  11.832  22.412 -0.0768  0.0756  0.1150
47424W        W48288   0.682  22.919   6.637 -0.0102 -0.1712  0.1548
47425W        W48289  10.989  24.277  12.699  0.0179  0.0301 -0.0221
47426W        W48290   2.575  19.941  21.329 -0.0947  0.0282 -0.3856
47427W        W48291   6.629  26.390   1.067  0.2418  0.1365  0.0810
47428W        W48292   6.360  15.529  14.225 -0.1203 -0.2071  0.1046
47429W        W48293  21.357  24.373  11.999 -0.2604  0.2478 -0.1651
47430W        W48294   3.407  15.568  13.077  0.1694 -0.1707  0.0937
47431W        W48295  14.403  26.875  24.810 -0.1436  0.0475 -0.0048
47432W        W48296   8.296  18.485  18.282  0.4205 -0.1950  0.1587
47433W        W48297  16.173   5.444  14.090 -0.3174 -0.0771  0.0530
47434W        W48298  18.854  11.095  26.326  0.1461 -0.0157 -0.2313
47435W        W48299  27.051  27.699  15.134  0.0874  0.0991 -0.0251
47436W        W48300  25.837   4.889   3.998 -0.1150 -0.3511  0.0757
47437W        W48301  12.508  25.084  12.344  0.2809 -0.0124 -0.0452
47438W        W48302   7.818  21.441  16.039 -0.0478  0.0004 -0.1163
47439W        W48303  18.907  13.832  19.385  0.0716 -0.0878  0.0685
47440W        W48304  13.421  15.614  18.110 -0.1031  0.0136  0.1558
47441W        W48305  22.478  22.004  16.317  0.3653 -0.0029 -0.1820
47442W        W48306   1.025  16.440  22.909 -0.0640 -0.1760 -0.0454
47443W        W48307   5.903   9.568  23.264  0.2176 -0.1397  0.2016
47444W        W48308  16.007  20.425  21.500  0.1482 -0.0914  0.2081
47445W        W48309  20.155   5.936  25.888  0.1163  0.1845  0.2566
47446W        W48310   3.757   2.823   9.286  0.2387  0.1453  0.1465
47447W        W48311  12.833  12.053   5.369  0.2601  0.0184  0.0161
47448W        W48312  27.065  11.915  23.316 -0.0458  0.2547 -0.0663
47449W        W48313   4.808  17.863   6.592  0.1547 -0.0418 -0.1425
47450W        W48314  25.635  23.102   2.522 -0.0042  0.1725 -0.0074
47451W        W48315   5.864   7.753   1.202  0.2118 -0.1617  0.1947
47452W        W48316   2.146  22.597  19.393 -0.0786 -0.0523 -0.3261
47453W        W48317  20.771   2.116  23.015 -0.0510  0.0965 -0.1779
47454W        W48318  21.341  16.867   0.715  0.1774 -0.1068 -0.1467
47455W        W48319  12.901  13.724  24.434 -0.0317  0.0415  0.3292
47456W        W48320  17.506  18.807  17.343 -0.3804 -0.5026 -0.1184
47457W        W48321  18.566  15.339   0.076  0.3638 -0.0182 -0.3125
47458W        W48322  23.925  17.117  18.410 -0.1963  0.0966 -0.1114
47459W        W48323   6.602  11.847  21.179 -0.1088  0.2027  0.0345
47460W        W48324   1.456  25.552  23.145  0.1964 -0.1546 -0.0199
47461W        W48325  11.442  14.083  18.644 -0.0363 -0.2024 -0.1506
47462W        W48326  22.079   3.975  20.004  0.0079 -0.1512 -0.1080
47463W        W48327  18.848  14.937  16.148  0.0133 -0.1256  0.0778
47464W        W48328   1.133   3.345   6.876  0.0190  0.0274  0.3116
47465W        W48329   4.292  22.337   2.485  0.2227  0.2435  0.1234
47466W        W48330   8.709   2.145  26.567  0.1141 -0.0677 -0.0967
47467W        W48331  24.826  11.847  26.557  0.2345 -0.3320  0.0371
47468W        W48332   9.302  20.751  24.031 -0.2104  0.0223  0.2196
47469W        W48333   2.684  23.687  28.443 -0.1137  0.0222  0.1457
47470W        W48334  23.735   2.927  24.213 -0.0043 -0.0560 -0.1376
47471W        W48335  12.259   3.841  20.949  0.0860 -0.0879  0.4337
47472W        W48336  26.425   4.651   4.991  0.1520  0.1076  0.1731
47473W        W48337  24.093  18.920  23.975 -0.0627  0.0037  0.0696
47474W        W48338  12.427  25.522   0.549  0.0067 -0.0078  0.0007
47475W        W48339  22.666  11.688  24.773  0.0600  0.1203  0.1257
47476W        W48340  13.843  11.116   7.052 -0.2056 -0.3456 -0.1903
47477W        W48341   7.846  20.698  27.991 -0.1429 -0.0178  0.0523
47478W        W48342  11.558  25.921  28.490 -0.0455  0.1658  0.0757
47479W        W48343  19.621   9.667   4.259 -0.0264 -0.0112 -0.1117
47480W        W48344   7.696  17.361  20.186  0.0225 -0.1179 -0.0609
47481W        W48345  17.626  18.729  23.481 -0.0843  0.1503  0.1391
47482W        W48346  21.051   9.577  14.634 -0.2065 -0.2457 -0.2357
47483W        W48347  17.394   6.923  22.559 -0.4415 -0.0988 -0.2535
47484W        W48348   1.781  29.141  17.218 -0.0127  0.0358  0.1101
47485W        W48349  19.336  24.584  18.583  0.1726 -0.2175 -0.2244
47486W        W48350   4.400  19.484   9.182 -0.0366  0.0854 -0.2391
47487W        W48351   6.963   8.101   9.890 -0.0847 -0.2612  0.1343
47488W        W48352  10.076   0.080   8.732  0.2311  0.0770 -0.0801
47489W        W48353   5.813  20.138  17.284 -0.0038  0.2272 -0.0817
47490W        W48354   1.390  11.399  15.359  0.0237 -0.2651 -0.1185
47491W        W48355  14.819  21.914  21.079 -0.0839 -0.0849  0.1081
47492W        W48356  12.358  22.877  14.452 -0.4166 -0.1176  0.1166
47493W        W48357   1.522  25.808   6.033  0.0935  0.1565  0.1081
47494W        W48358  24.218  25.892  25.667 -0.0051 -0.0822 -0.0140
47495W        W48359   3.675  24.208  16.604  0.2421  0.1112  0.1519
47496W        W48360   4.838  21.616  23.458 -0.1129 -0.1881 -0.0843
47497W        W48361   4.863  24.078  17.991  0.1859  0.0182 -0.2766
47498W        W48362   7.746  28.308   9.841 -0.0067  0.0542 -0.0266
47499W        W48363  26.538  28.649   5.650  0.2589 -0.0020 -0.2587
47500W        W48364   1.731  20.216  22.457 -0.1270  0.1434  0.1823
47501W        W48365  15.173  18.325  16.611  0.2758  0.0434 -0.2271
47502W        W48366  28.952  14.679  17.157  0.2730  0.1104  0.2281
47503W        W48367   2.360  27.314   6.816 -0.4038  0.2216  0.2919
47504W        W48368  22.124   7.459   8.181 -0.2400  0.0061 -0.0419
47505W        W48369  24.331  25.800  26.917 -0.1572  0.0643 -0.1273
47506W        W48370   2.684  22.806  21.131 -0.0762 -0.2427 -0.1212
47507W        W48371  27.819  23.635  24.955 -0.1674 -0.3496 -0.0589
47508W        W48372  15.034  24.303  10.655 -0.1716 -0.1211 -0.1173
47509W        W48373   7.829   5.886   1.258  0.2153 -0.0068  0.2532
47510W        W48374   8.729  20.294  24.329 -0.1383  0.0168 -0.0725
47511W        W48375  16.701   9.589  24.058  0.1104 -0.3558 -0.1973
47512W        W48376  17.998  26.316  23.518 -0.2214  0.0166 -0.0592
47513W        W48377  11.682  27.998   4.811 -0.1114 -0.1176 -0.3030
47514W        W48378   1.875   0.491  17.719 -0.0345  0.0368 -0.0757
47515W        W48379   9.504   6.001  17.795 -0.1217  0.1255  0.0823
47516W        W48380  21.641   8.318  16.057  0.2054 -0.1195 -0.2179
47517W        W48381  17.664   9.817   8.056 -0.0033  0.2260  0.1710
47518W        W48382  11.553  14.404  27.967  0.1042  0.2106 -0.1228
47519W        W48383  11.831  28.970  17.884  0.0185  0.1724  0.1675
47520W        W48384  14.086  19.985  11.071  0.1576 -0.0753  0.0035
47521W        W48385   5.448  13.571  14.904  0.1697  0.0179 -0.1412
47522W        W48386  14.080  23.222  28.078 -0.1548  0.1144 -0.3707
47523W        W48387  17.300  22.837   3.293 -0.0309  0.1190  0.0771
47524W        W48388  14.877  17.859  24.788 -0.0165 -0.0997 -0.0994
47525W        W48389   9.030  13.783   4.160 -0.0810  0.2727 -0.3269
47526W        W48390  14.356  21.826   8.506  0.1332  0.1311 -0.1835
47527W        W48391  17.286  23.840   6.629  0.0505  0.1910 -0.2709
47528W        W48392   3.987  23.829  12.783  0.1482 -0.0953  0.1000
47529W        W48393  10.221  16.619   1.608  0.0482 -0.1090  0.1232
47530W        W48394   4.220  27.239  16.728  0.2391 -0.2000 -0.3687
47531W        W48395  25.629  23.941  17.461 -0.1370 -0.0379  0.0538
47532W        W48396  20.720   3.138  11.147  0.2491  0.2692 -0.1812
47533W        W48397   0.745  28.119  12.105 -0.1436 -0.0171  0.0088
47534W        W48398  14.016  20.039   5.731 -0.1311 -0.2891  0.1774
47535W        W48399  10.621  20.943  20.653  0.1358 -0.1627 -0.1577
47536W        W48400  12.878  24.236   4.342 -0.2260  0.1153  0.1438
47537W        W48401   4.398   3.131   0.637  0.3669  0.4359  0.0126
47538W        W48402  14.308  18.075   1.986 -0.0584 -0.0720  0.0419
47539W        W48403  23.262  22.897  12.682 -0.3301 -0.2045 -0.3580
47540W        W48404   0.449   7.616  15.194  0.1349 -0.1874  0.0231
47541W        W48405   5.267  13.993   5.653 -0.0964 -0.2653 -0.1631
47542W        W48406  14.297  13.954   0.591  0.0281  0.0215 -0.1583
47543W        W48407  16.513  23.128  15.027 -0.3564 -0.3715  0.0230
47544W        W48408   4.220  10.845  27.297  0.1080  0.1140  0.0924
47545W        W48409  10.431  20.687   9.103 -0.1085 -0.0595 -0.0374
47546W        W48410   1.462  22.924  22.249  0.1990 -0.0774  0.0042
47547W        W48411   3.529  25.981   2.999 -0.2622 -0.0828 -0.2565
47548W        W48412  28.371  19.295  20.909 -0.0004 -0.2662  0.2639
47549W        W48413  13.041  25.140   4.889 -0.0086  0.0199 -0.0682
47550W        W48414  10.480  19.869   9.932 -0.2910  0.0766  0.0179
47551W        W48415  22.455   6.003  14.316 -0.0675  0.1377 -0.1994
47552W        W48416   8.735  26.083   0.556  0.1736  0.5256 -0.0171
47553W        W48417  14.695  14.197  21.628  0.0427  0.1228  0.3604
47554W        W48418  22.085   5.870  16.760 -0.0037 -0.1620 -0.3295
47555W        W48419   4.926   9.117  26.537 -0.4355 -0.1212 -0.0886
47556W        W48420  16.431  20.573  13.373 -0.4389  0.2420  0.2965
47557W        W48421  28.831  18.655  19.875  0.2744  0.2505 -0.0983
47558W        W48422   8.803   6.820  19.702  0.0178 -0.1279 -0.0940
47559W        W48423   4.698   1.375  11.067 -0.1379  0.0730  0.1340
47560W        W48424   0.759  26.042  28.998 -0.1408  0.1129  0.1649
47561W        W48425  19.024  15.703   4.977 -0.0824  0.0832 -0.1990
47562W        W48426  26.357  19.081  26.175 -0.1020 -0.2869 -0.2611
47563W        W48427   1.453  29.130  23.565 -0.0588  0.1575  0.1640
47564W        W48428   6.940   8.579  19.450  0.0320 -0.2225 -0.0004
47565W        W48429   4.276  21.484   3.307  0.1509  0.0446 -0.2987
47566W        W48430   1.566  14.840  17.065 -0.1043  0.0890 -0.3412
47567W        W48431   2.951  18.146   0.001  0.3436  0.3974 -0.3160
47568W        W48432   9.293  22.365  18.879 -0.1369  0.2133  0.1121
47569W        W48433  15.203   7.413   1.260  0.3288 -0.1621  0.3533
47570W        W48434  24.655  19.746  10.756 -0.0206  0.0699  0.0206
47571W        W48435   2.484  21.848  25.259 -0.2709  0.1991 -0.3319
47572W        W48436  10.736  25.786  22.656  0.0454 -0.0425  0.0630
47573W        W48437   8.000  23.740  19.408 -0.2470 -0.0400 -0.0593
47574W        W48438  14.133   1.112  13.778 -0.0260  0.0061 -0.1334
47575W        W48439   7.395  10.415  25.466 -0.0051  0.0811  0.0308
47576W        W48440   7.795  25.337   2.607  0.3754  0.0614 -0.1288
47577W        W48441  19.220  10.544  19.265 -0.2235  0.1153  0.0825
47578W        W48442  26.215   6.269  22.761 -0.1823  0.2334  0.1601
47579W        W48443   5.190  16.997  11.149  0.1097  0.1862  0.0287
47580W        W48444  14.827  21.152   0.166  0.0953  0.2190 -0.1369
47581W        W48445   2.707   8.314   1.834 -0.1279 -0.2526  0.1218
47582W        W48446  17.879  26.828  15.289 -0.0207 -0.0953 -0.1503
47583W        W48447  15.161   4.460  17.806 -0.3722  0.4534  0.0424
47584W        W48448   7.868  12.885  11.146  0.1825  0.1998 -0.1280
47585W        W48449   0.999  18.132  19.987 -0.0925 -0.1759 -0.0707
47586W        W48450   0.180  19.649  25.141 -0.1571 -0.0033 -0.3803
47587W        W48451  24.372  24.021   6.018 -0.0530  0.2239  0.0109
47588W        W48452  22.704  26.514   7.172  0.2192  0.0683  0.0993
47589W        W48453  22.877  17.186  14.024  0.0905  0.1923  0.2813
47590W        W48454   2.625  20.637   6.374 -0.3887  0.3057  0.0837
47591W        W48455  21.077  14.253  22.451  0.1587  0.1422  0.1666
47592W        W48456  22.497  28.194   8.379  0.2008  0.2302  0.2114
47593W        W48457   7.047  28.694   1.175  0.0947  0.0288  0.1477
47594W        W48458   7.703  17.036  23.014  0.1886  0.2377 -0.3174
47595W        W48459   5.607   3.889   0.089  0.1033 -0.2468 -0.0654
47596W        W48460  29.084  15.526  22.904  0.3517 -0.0756 -0.1179
47597W        W48461  26.251  16.297  21.063 -0.0327  0.1594 -0.2533
47598W        W48462  15.406  22.720  26.210  0.2204  0.1178 -0.1831
47599W        W48463   0.084  28.547  26.740  0.3708 -0.0672  0.1380
47600W        W48464  28.170   0.897  19.683  0.1501 -0.4712  0.2391
47601W        W48465  14.674   6.308  16.997 -0.0125  0.1153  0.0671
47602W        W48466  18.327   7.858  24.980 -0.1420  0.4653 -0.2548
47603W        W48467  16.967   9.039  25.990 -0.1020 -0.0751  0.2277
47604W        W48468   0.389  17.208  25.310  0.0828 -0.0835 -0.0261
47605W        W48469  12.852  22.911  28.701 -0.3618 -0.3228 -0.0997
47606W        W48470  14.542   5.567   5.056  0.2157  0.0300  0.2796
47607W        W48471   5.861   8.708  22.586  0.2062 -0.1396  0.0384
47608W        W48472  28.876   0.876  17.995  0.2059  0.2849 -0.2021
47609W        W48473   7.986   3.864  19.993  0.5005  0.1400  0.0636
47610W        W48474  25.624   5.459  12.302  0.2141 -0.0880  0.2308
47611W        W48475  18.835  25.233   9.156 -0.0633 -0.3510  0.3426
47612W        W48476  17.684  14.512  20.135 -0.1424  0.3088  0.3966
47613W        W48477  22.896   6.589   5.517 -0.1315 -0.0535  0.1140
47614W        W48478  25.215   5.569   2.159  0.1780  0.0900  0.3047
47615W        W48479   7.311  25.631   3.444  0.0185 -0.3110  0.1150
47616W        W48480  27.457  21.667  24.648  0.2186 -0.1391 -0.0149
47617W        W48481   5.310  25.980  18.224 -0.1323 -0.2000  0.1294
47618W        W48482   6.026  24.956  12.389  0.0536  0.4264 -0.1170
47619W        W48483   2.285   0.967  20.489  0.0646 -0.1767  0.1912
47620W        W48484  13.023   7.588   2.915  0.2312 -0.0631  0.2580
47621W        W48485   3.045  25.148  19.901  0.0341 -0.0937  0.0602
47622W        W48486   2.365  27.943  26.931  0.4575  0.0752 -0.1362
47623W        W48487   5.469  14.390   8.137 -0.0512 -0.0935 -0.0003
47624W        W48488  12.735  23.412  11.245  0.2455  0.0151 -0.1360
47625W        W48489  27.486   8.601  19.266 -0.1308  0.0988  0.3183
47626W        W48490   6.637  10.158   1.571 -0.1064  0.1832  0.0392
47627W        W48491  10.525  17.520  11.964  0.1980 -0.1322 -0.1206
47628W        W48492  11.901   4.105  18.163  0.0578 -0.0289  0.2941
47629W        W48493  19.709  24.627  18.218  0.0038  0.0005  0.2279
47630W        W48494   6.800  24.278   5.612  0.2357  0.0914  0.0942
47631W        W48495  27.431  23.425  21.153  0.2979 -0.1108 -0.1194
47632W        W48496  19.559   6.264   2.325  0.1014  0.0890  0.1125
47633W        W48497  25.522  12.723  12.486  0.1487  0.2583  0.1100
47634W        W48498  22.149   7.449  23.567  0.0415 -0.1507 -0.0533
47635W        W48499  25.682  20.868  15.176 -0.1982 -0.2617  0.1436
47636W        W48500   1.624  12.218  27.251 -0.0542 -0.1104  0.0911
47637W        W48501   5.031   9.938   0.510 -0.4422 -0.1177  0.1300
47638W        W48502  14.880   5.337  14.989  0.2276  0.3847 -0.2295
47639W        W48503  16.898   6.688  23.665  0.0763  0.0450 -0.1321
47640W        W48504  11.260  22.592   7.805 -0.0776 -0.1835  0.2066
47641W        W48505   5.884  23.640  23.218  0.1469  0.2776  0.2888
47642W        W48506   7.362  25.220  17.006  0.1204  0.1862  0.1082
47643W        W48507  20.590   9.542  19.586 -0.1149  0.1334  0.2236
47644W        W48508  28.218  14.202  14.471  0.0450 -0.1775 -0.1316
47645W        W48509  18.654   2.663   5.569 -0.1911 -0.0241  0.0372
47646W        W48510   2.381  28.415  24.241  0.2164 -0.2384  0.2344
47647W        W48511  18.630  12.541   6.211  0.0467  0.1465  0.0710
47648W        W48512   9.582   0.511  10.699  0.0149  0.4415 -0.0746
47649W        W48513   0.739  24.726  22.167  0.0676  0.2056  0.0298
47650W        W48514   7.409  13.995  21.665 -0.0927 -0.1154  0.0901
47651W        W48515  22.255   1.836   5.105 -0.0252 -0.0835  0.3098
47652W        W48516   8.542  25.651  20.126  0.0273  0.0847  0.0383
47653W        W48517   6.044   5.421   3.295  0.0670 -0.0709  0.0257
47654W        W48518   1.849   2.985   2.804 -0.0347  0.2689 -0.1457
47655W        W48519  28.377   6.943  27.662 -0.0842 -0.4169 -0.3233
47656W        W48520   1.125   3.656   5.799  0.1329 -0.0514  0.1616
47657W        W48521   4.394   0.719  15.378 -0.1793  0.1289 -0.0961
47658W        W48522  15.153  28.967  13.720  0.2074 -0.1018  0.1146
47659W        W48523  26.406  12.815  16.755 -0.1554  0.0077  0.0467
47660W        W48524  21.010  29.105  19.669 -0.0141 -0.2730  0.4625
47661W        W48525   2.418  23.881  23.346  0.0805 -0.1627  0.0539
47662W        W48526   6.336  19.497   0.236  0.2236  0.3036 -0.2383
47663W        W48527  17.208  14.486   9.521  0.1305  0.3647 -0.1210
47664W        W48528  19.272   3.204  26.147  0.1880 -0.0393  0.2553
47665W        W48529   4.387  23.187  16.938  0.2326  0.3060 -0.3549
47666W        W48530  26.014  11.629  27.799  0.0016  0.2306 -0.0478
47667W        W48531  14.473  23.305  17.528 -0.0362 -0.1477 -0.1421
47668W        W48532  16.960  17.330  17.821  0.2002  0.0481 -0.1587
47669W        W48533  26.497  26.783   8.284 -0.0197  0.1226  0.0250
47670W        W48534   7.546  23.922   2.720  0.2058 -0.1745 -0.1767
47671W        W48535  15.373  22.020   7.739 -0.1926 -0.0986  0.0882
47672W        W48536   1.076  22.521   4.715  0.1204  0.0395  0.2339
47673W        W48537  22.152  24.978  20.797  0.2826 -0.0412  0.1206
47674W        W48538  16.842   3.035  25.451 -0.0634 -0.2919  0.0232
47675W        W48539  27.106  14.365   9.311  0.0311  0.1152 -0.3975
47676W        W48540   0.457  11.015  25.202 -0.1278 -0.0394  0.0811
47677W        W48541  14.424   1.622  21.930 -0.0207  0.0547  0.3722
47678W        W48542   3.869  26.615  15.765  0.0670  0.0201 -0.1036
47679W        W48543   1.786  18.792  20.606  0.3107 -0.0419 -0.3837
47680W        W48544  12.912  23.505   8.972 -0.1387 -0.0419  0.0234
47681W        W48545   0.221  24.276  12.462 -0.4774 -0.1140  0.2802
47682W        W48546   7.097   2.749  24.098 -0.4357 -0.2654  0.2609
47683W        W48547  16.234  23.974  24.699  0.4034  0.0693 -0.1974
47684W        W48548   0.822  26.703   4.128  0.3743 -0.2947  0.0963
47685W        W48549   5.159   6.232  24.411 -0.1199 -0.0647  0.0078
47686W        W48550  17.457  28.341   3.241 -0.1436 -0.1982 -0.1111
47687W        W48551  21.845  12.193  12.617  0.3901  0.1596  0.0341
47688W        W48552  27.814  10.158  27.160 -0.0468  0.3307  0.2294
47689W        W48553  22.202  11.733  17.661  0.0536  0.0508 -0.2806
47690W        W48554  14.736  10.048  10.954  0.2126  0.0238  0.2473
47691W        W48555   8.210  14.394  16.564  0.3502 -0.0199  0.2252
47692W        W48556   4.711  16.593  29.018  0.2017  0.0060 -0.2742
47693W        W48557  19.320   2.890  16.440 -0.1242 -0.1204  0.0109
47694W        W48558  26.872  16.872  17.073  0.0545 -0.1225  0.0362
47695W        W48559   4.117  20.736  14.198  0.2129  0.0783  0.3398
47696W        W48560   9.152  20.727  16.956 -0.0121  0.1423  0.0099
47697W        W48561  16.845  25.197  18.106 -0.0303 -0.1561  0.1349
47698W        W48562  13.846   0.702  26.343  0.0560  0.1618 -0.2740
47699W        W48563  23.161  25.739  10.684 -0.1185  0.1785 -0.0803
47700W        W48564   6.106   1.923   1.380 -0.0371 -0.0717 -0.0205
47701W        W48565  18.703   3.090  22.277 -0.1998 -0.0712  0.0377
47702W        W48566  21.547   2.473   7.644 -0.1481  0.2544  0.2406
47703W        W48567  22.302  26.715  11.303 -0.3128  0.2122 -0.3122
47704W        W48568  18.066  11.598  15.767 -0.2001  0.2307 -0.1166
47705W        W48569  25.007  21.699  25.451 -0.0192  0.3199 -0.2234
47706W        W48570   2.557   1.475  10.766 -0.0135  0.2292  0.0816
47707W        W48571   3.985   8.600  15.930 -0.0425  0.1721  0.2544
47708W        W48572  27.891  15.246  11.800 -0.1196 -0.0140  0.0480
47709W        W48573  13.063  28.116  11.888  0.2967  0.3055 -0.2649
47710W        W48574  20.485  15.416  25.493  0.1075 -0.0100  0.2137
47711W        W48575  17.661  18.693  18.079 -0.0390 -0.0547 -0.2457
47712W        W48576  28.831  29.133   0.161 -0.1729  0.1488 -0.2930
47713W        W48577   5.605  15.523  15.063 -0.0823 -0.2350  0.0297
47714W        W48578  20.903  21.275  26.698 -0.2050 -0.0891 -0.1317
47715W        W48579  20.068  18.880   7.989  0.2092  0.3483  0.2212
47716W        W48580   7.103  15.154  20.487  0.1842 -0.1115 -0.0067
47717W        W48581   4.800  19.921  21.502 -0.0993  0.0146 -0.0683
47718W        W48582   7.559  24.688  14.969  0.2096 -0.0046  0.0580
47719W        W48583  18.286  28.427   6.780 -0.0609 -0.2182  0.1161
47720W        W48584   0.245   1.253  12.905  0.0491  0.1559 -0.5056
47721W        W48585   2.952  28.788  17.637  0.0867 -0.0630  0.2121
47722W        W48586  18.656  22.678  11.644 -0.2041  0.0534  0.0991
47723W        W48587   7.091  11.356  23.155 -0.1674 -0.0615 -0.2892
47724W        W48588   9.029   5.068  13.289  0.0348 -0.0017  0.1241
47725W        W48589  13.437   0.055  23.079 -0.0750  0.1062 -0.1087
47726W        W48590   1.124  26.425  28.244 -0.0051 -0.3528  0.1276
47727W        W48591   7.023  27.403   1.328  0.2826  0.3748  0.3878
47728W        W48592  24.471  23.467  23.601  0.3669  0.0035  0.2239
47729W        W48593   9.871  20.330  12.955 -0.0166  0.1635  0.1118
47730W        W48594  24.857  25.506  10.940 -0.0717 -0.1838  0.0084
47731W        W48595   1.467  11.358   0.108 -0.1131 -0.2019  0.1321
47732W        W48596   2.215  25.234  27.449 -0.2130  0.1092 -0.2175
47733W        W48597  26.047   3.134  11.708 -0.0761 -0.0494 -0.1408
47734W        W48598  10.593  25.652   9.316 -0.0375  0.2361  0.2155
47735W        W48599   9.991  18.889  14.177  0.0412 -0.0242  0.1743
47736W        W48600   9.095   5.040   6.740  0.3328 -0.2351 -0.3044
47737W        W48601   3.444  23.036   0.121 -0.2903 -0.1365  0.4712
47738W        W48602   0.290  22.149  20.218 -0.3395  0.1670 -0.1899
47739W        W48603  10.260  27.378  18.324 -0.1863 -0.3104  0.0050
47740W        W48604  10.981  22.338  16.125 -0.0354 -0.1109 -0.1711
47741W        W48605  13.830   2.144  24.522 -0.0568  0.1759  0.2525
47742W        W48606  15.114  11.620  11.062  0.1481  0.2514  0.1012
47743W        W48607   7.475  19.244  24.530  0.0659  0.1981  0.0321
47744W        W48608   1.160  22.070  10.598 -0.3083 -0.0317 -0.3244
47745W        W48609   7.766   7.364   6.275 -0.0238 -0.0842  0.0781
47746W        W48610  15.068  19.515   4.136  0.0084  0.1678 -0.0203
47747W        W48611  23.124  28.530  24.374 -0.3512  0.0210 -0.1946
47748W        W48612  17.813   2.243  28.811  0.0150 -0.0235 -0.3635
47749W        W48613   8.631  17.923   2.810 -0.2168  0.0605 -0.2706
47750W        W48614  11.096  13.917  27.775  0.0225  0.2678  0.2178
47751W        W48615  20.795   2.733  17.489  0.2538 -0.0160 -0.2466
47752W        W48616  10.529  19.868  27.220  0.0864 -0.2193  0.0395
47753W        W48617  11.146  17.400  22.935  0.0697 -0.2898  0.0787
47754W        W48618   7.509  26.999   1.198  0.2846  0.1085  0.1882
47755W        W48619  27.268   6.766  21.740  0.0261  0.0631  0.2544
47756W        W48620  19.675  23.841  15.066 -0.2311  0.0296  0.0431
47757W        W48621   1.518   9.475   4.612  0.0682 -0.2771  0.1107
47758W        W48622   9.545  21.992  13.149  0.0342  0.0326  0.3046
47759W        W48623  12.335  15.360  26.642 -0.0120 -0.2936  0.0528
47760W        W48624  17.786   1.657  26.043 -0.1708  0.0799 -0.0449
47761W        W48625  24.423  10.665  10.144  0.0499 -0.0333 -0.0176
47762W        W48626   7.322   1.198  12.032  0.2164  0.2870  0.0966
47763W        W48627  20.174   6.868  20.105  0.3204  0.2044 -0.3153
47764W        W48628  25.958   1.579  14.731  0.2522  0.1090 -0.0322
47765W        W48629  24.398   3.189  21.798 -0.1869  0.0955 -0.0097
47766W        W48630   8.102  28.597  26.646 -0.0026 -0.0683 -0.2164
47767W        W48631  17.613   5.119  11.288  0.1978  0.0950 -0.1728
47768W        W48632   7.023   4.531  15.019  0.0977 -0.3882  0.0503
47769W        W48633   0.472   5.230  25.441  0.0437 -0.2875  0.2570
47770W        W48634  21.325  12.850  18.907  0.1038 -0.3608 -0.2413
47771W        W48635   7.483   2.723   0.475  0.0025  0.0953  0.0991
47772W        W48636  12.106   7.307  20.789  0.1203 -0.1979  0.4856
47773W        W48637  27.429  10.533  21.061 -0.0010  0.0415  0.1039
47774W        W48638  12.502   0.964   6.863 -0.2883 -0.3272 -0.1769
47775W        W48639  11.735  11.025  14.627 -0.4219 -0.0607  0.0798
47776W        W48640  28.655  21.428  25.202  0.0316 -0.1542 -0.0145
47777W        W48641  11.392   1.475  23.668 -0.1050  0.3269 -0.1250
47778W        W48642   0.947   7.181   4.508  0.2000 -0.0325  0.1685
47779W        W48643  16.819   2.529   4.760  0.0214  0.1282 -0.1888
47780W        W48644  24.557  25.054  28.174 -0.0440  0.1213  0.1524
47781W        W48645  12.414  20.382  16.039 -0.0818 -0.0014  0.0834
47782W        W48646   7.977   1.008  13.309 -0.1921 -0.1087 -0.1816
47783W        W48647  15.155  20.736   8.112  0.1124 -0.1056 -0.0985
47784W        W48648   3.606   5.977  27.304 -0.0049  0.0690  0.1093
47785W        W48649  13.758   1.918  20.584 -0.3125  0.1827  0.1685
47786W        W48650  20.337  27.086   5.830 -0.0779  0.2161 -0.2130
47787W        W48651  20.401   9.782  24.421 -0.1693  0.2774  0.1865
47788W        W48652   3.345  16.480   8.305  0.0187  0.0885  0.1515
47789W        W48653  14.556  19.870  13.656  0.3220 -0.1027 -0.0550
47790W        W48654  27.973   7.869   5.869 -0.0023  0.3789  0.1179
47791W        W48655  10.853  10.960   1.096 -0.1874 -0.0766  0.2805
47792W        W48656   1.752   6.190   1.428 -0.2502 -0.1792  0.2647
47793W        W48657  10.865  13.619  18.129 -0.1258 -0.3007 -0.0929
47794W        W48658  21.289  17.013  20.125 -0.1688 -0.0287 -0.1457
47795W        W48659   2.908  21.647  16.835  0.1168  0.1833  0.1434
47796W        W48660   8.637  28.792  17.166 -0.1643 -0.0029 -0.2390
47797W        W48661  26.697  18.146   7.475 -0.0184  0.0579  0.1844
47798W        W48662  12.802  21.430  15.356  0.0618  0.0784 -0.0568
47799W        W48663  10.053   1.415  20.559  0.1420  0.3051 -0.0290
47800W        W48664   8.970   4.343  24.811 -0.0960 -0.0037 -0.1552
47801W        W48665  17.678   8.209  10.456 -0.1022  0.0978  0.0835
47802W        W48666  10.487   3.015  12.434 -0.0360 -0.0274  0.1120
47803W        W48667   6.372  21.370  13.663 -0.1203  0.3794  0.1555
47804W        W48668   4.543  20.340   0.694  0.1168  0.0329  0.1590
47805W        W48669  24.940  23.772  13.715  0.0082  0.1516  0.3141
47806W        W48670   1.720   8.609  10.609  0.1710 -0.0703  0.2119
47807W        W48671   7.464   5.941   2.353  0.2513 -0.0278  0.1463
47808W        W48672  22.277  12.398  27.686  0.2643 -0.2097 -0.0915
47809W        W48673  22.666   0.334  16.690 -0.2244  0.2596  0.3365
47810W        W48674  11.328  19.631  28.939 -0.1291 -0.0036  0.1460
47811W        W48675   5.538  23.154  16.103  0.1856 -0.0490 -0.1478
47812W        W48676  12.989  28.143   9.534  0.3315  0.3417  0.0392
47813W        W48677   4.979  29.117  24.796  0.1929 -0.0695 -0.1393
47814W        W48678  10.155   3.646   2.018 -0.0753 -0.0104 -0.0621
47815W        W48679   4.164   4.423   0.453  0.0180 -0.3202 -0.0543
47816W        W48680   1.708  27.937  10.448 -0.1098 -0.0164 -0.2096
47817W        W48681  19.880  26.689   0.141 -0.0449 -0.1432 -0.2614
47818W        W48682  15.145  11.771   1.650 -0.2922 -0.2463  0.1306
47819W        W48683  28.999  17.877   1.300 -0.0132 -0.1870  0.2132
47820W        W48684  21.866   8.750  15.880 -0.1199  0.2144 -0.1520
47821W        W48685   4.947  19.582   6.092 -0.2572 -0.0726 -0.1330
47822W        W48686  24.655  19.965  14.237 -0.0471  0.3982  0.1824
47823W        W48687  11.521  13.148  24.560 -0.0374  0.2252 -0.0444
47824W        W48688  19.848  15.787  19.781  0.0009 -0.1561  0.0726
47825W        W48689   8.302   5.586  27.892  0.0370 -0.1999 -0.2169
47826W        W48690   0.502  15.025  22.085  0.2051 -0.2877  0.0348
47827W        W48691  19.930  10.462   5.334 -0.1975 -0.1737 -0.0552
47828W        W48692   8.535  19.269  17.185  0.1602  0.3423  0.2608
47829W        W48693  18.213  22.185   0.810 -0.1664  0.1401 -0.0767
47830W        W48694   2.796   3.050   8.870 -0.0935 -0.1786 -0.1621
47831W        W48695   5.947  12.187   0.163 -0.1807 -0.0707  0.0473
47832W        W48696   4.650  10.269   0.399 -0.1076  0.0639  0.1686
47833W        W48697  14.439   2.670  17.361 -0.2070  0.1116 -0.2063
47834W        W48698  18.656  27.737  13.748  0.4975 -0.3335  0.0213
47835W        W48699   6.328  24.454  26.907  0.1750 -0.1018  0.0488
47836W        W48700  28.328  18.995   6.918 -0.0411  0.1469 -0.0374
47837W        W48701  14.529  10.019   5.278  0.1600  0.2815  0.0201
47838W        W48702   0.197  14.974   5.055 -0.1390 -0.0640 -0.0952
47839W        W48703   6.038  22.075  24.047  0.0877 -0.0384 -0.0932
47840W        W48704   3.223  19.435  21.295  0.1421  0.0884 -0.0719
47841W        W48705  29.061  20.316  11.949  0.2425  0.1281  0.2993
47842W        W48706  20.366  15.951   0.753 -0.3854 -0.0015  0.0960
47843W        W48707  25.960  23.293   1.841  0.0460  0.1173  0.0120
47844W        W48708  24.130   1.276  13.148 -0.1000  0.1876  0.0371
47845W        W48709  26.957   7.314  21.004 -0.0218  0.1880 -0.1405
47846W        W48710   9.209   6.674  26.439 -0.0375  0.1907  0.0179
47847W        W48711  23.203   1.565  20.274 -0.0880 -0.1120  0.1237
47848W        W48712  27.987  18.574  15.716  0.1261  0.0358 -0.2078
47849W        W48713   4.746  19.212   1.126  0.0848  0.1428  0.3445
47850W        W48714  26.613  15.465  14.206 -0.0910  0.1319  0.2634
47851W        W48715   6.629  29.115   4.337 -0.1816  0.3093 -0.0362
47852W        W48716  16.885  24.591   7.771  0.1319 -0.1606  0.0477
47853W        W48717   5.098  12.260  26.322  0.4350 -0.0469 -0.0010
47854W        W48718  27.797  26.571  20.468  0.0656  0.2010 -0.3673
47855W        W48719  18.313  15.078  15.422 -0.3132  0.2460 -0.1794
47856W        W48720  18.498  27.214   7.776  0.0064  0.1021  0.1232
47857W        W48721  18.356   2.433  11.267 -0.0821  0.1860 -0.0098
47858W        W48722   9.547  27.733  26.829  0.0943  0.3503 -0.2260
47859W        W48723   7.127  23.611  24.437 -0.0700 -0.1959 -0.0455
47860W        W48724  12.117   3.609   2.221 -0.2089  0.1509 -0.1762
47861W        W48725   4.070  21.269  13.381 -0.0383 -0.1541  0.1253
47862W        W48726   8.458  14.727  16.349  0.0225 -0.0728  0.2362
47863W        W48727  13.349   3.326   8.263 -0.0137  0.0505  0.3456
47864W        W48728  21.278   3.535  21.777 -0.0507 -0.0757 -0.3296
47865W        W48729  14.114  28.036   7.947 -0.2407 -0.4493 -0.1568
47866W        W48730  11.397   6.886   1.638 -0.0780 -0.0197 -0.1767
47867W        W48731   9.036  17.883   3.053  0.2073 -0.0436  0.1702
47868W        W48732   3.104  26.079  27.940  0.0863 -0.1231 -0.2253
47869W        W48733   6.404   2.519  19.325  0.0162 -0.3359  0.1612
47870W        W48734   4.947  17.077  11.603 -0.1951 -0.2688 -0.2295
47871W        W48735   8.135  17.132  25.041 -0.0909 -0.0198  0.1148
47872W        W48736   2.747   8.038  24.324  0.1581  0.0730 -0.0163
47873W        W48737   4.958   8.965   2.861  0.0706  0.0680 -0.1490
47874W        W48738  24.218  21.045  28.059  0.3002 -0.2808  0.0603
47875W        W48739  27.603  11.509  22.062  0.1886 -0.1580 -0.2642
47876W        W48740  26.400  22.547  18.158  0.3119  0.2176  0.5025
47877W        W48741  23.937   5.688  17.495 -0.1888 -0.2994 -0.2161
47878W        W48742  28.282  16.013  24.939  0.1977 -0.1885 -0.1902
47879W        W48743  26.850  18.854   4.083  0.2319 -0.1113  0.7752
47880W        W48744  20.780  23.476  26.707 -0.0911 -0.1494  0.1860
47881W        W48745  28.420   5.860  11.832  0.0729  0.2450  0.1911
47882W        W48746   2.575  19.140   0.788  0.1911 -0.1692  0.3766
47883W        W48747   6.462  22.350   0.301  0.1997 -0.3455 -0.1803
47884W        W48748  29.141  23.986   9.444 -0.2120  0.0414 -0.2622
47885W        W48749   0.189  21.541  15.001 -0.1855  0.2050  0.2545
47886W        W48750  16.835   2.283   7.108 -0.2375 -0.0350  0.3062
47887W        W48751   0.253  20.102  22.735  0.1894 -0.0432 -0.3089
47888W        W48752   2.732   1.585  17.904  0.2264  0.1889  0.2044
47889W        W48753  12.179  25.916  17.711  0.0302 -0.2113  0.1426
47890W        W48754  11.234   4.357   0.313  0.2547  0.0301 -0.0777
47891W        W48755  27.149  22.192   6.727  0.2567 -0.2896 -0.0102
47892W        W48756   3.986  20.551  10.422  0.3163 -0.2156 -0.0014
47893W        W48757  28.268  17.909  20.801  0.1923 -0.3037 -0.0035
47894W        W48758   4.393  20.844  15.117  0.5726  0.1674  0.2882
47895W        W48759   0.593  11.313   9.673 -0.1330 -0.1187 -0.2540
47896W        W48760   2.295  19.966   2.277 -0.7108 -0.1201  0.1072
47897W        W48761   2.121   6.785  11.452  0.1116 -0.0304 -0.2008
47898W        W48762  22.160   2.246   4.100  0.5522 -0.2012 -0.1458
47899W        W48763  13.282  20.608  20.619  0.1416 -0.0405  0.1510
47900W        W48764  10.579   8.539  24.699 -0.0710 -0.1077 -0.2693
47901W        W48765  25.654  21.000  23.480  0.0186 -0.1939  0.1811
47902W        W48766  16.001  23.180   0.962 -0.0221 -0.0325  0.1300
47903W        W48767  14.822   3.341  21.558 -0.0728  0.0670 -0.3310
47904W        W48768  12.935  21.806   8.275  0.0018 -0.0187 -0.0740
47905W        W48769  13.777  14.974  13.537  0.1386 -0.0751 -0.0311
47906W        W48770   5.710  25.814  11.907  0.2049  0.1586 -0.1109
47907W        W48771   7.013  20.205  18.001 -0.0531  0.1394  0.0239
47908W        W48772  26.339   8.223  24.749 -0.0402  0.1705  0.0096
47909W        W48773  11.838   1.903  10.853 -0.4413 -0.1520  0.2217
47910W        W48774   4.276  11.230  27.760  0.3080 -0.0871  0.2950
47911W        W48775   5.071  21.305  24.352 -0.2250 -0.0586  0.0233
47912W        W48776   8.769  24.572   6.759 -0.4629  0.1010 -0.0689
47913W        W48777  25.662   3.864  13.485 -0.0457  0.1595 -0.0583
47914W        W48778  13.997   4.107  22.796  0.2214  0.3068  0.0037
47915W        W48779   5.381  21.714   6.983 -0.1523 -0.2745 -0.0913
47916W        W48780   7.211   5.355   6.255  0.0172 -0.2129  0.0563
47917W        W48781  24.284   2.141  20.756  0.2720  0.0081  0.2271
47918W        W48782   4.150  25.650  18.749  0.3126 -0.0117  0.0456
47919W        W48783  21.114  20.955   1.116 -0.0701 -0.1934 -0.1632
47920W        W48784  24.762  22.664  22.629  0.2005  0.0881 -0.2130
47921W        W48785  10.904  27.231  24.502 -0.4058 -0.1469  0.0708
47922W        W48786   6.349   5.270  18.701  0.0817 -0.4422 -0.3093
47923W        W48787   6.831  22.287   0.858  0.1954 -0.1119  0.1178
47924W        W48788  14.166  23.391  16.551  0.1187 -0.0509  0.1342
47925W        W48789  19.203  23.058   3.584  0.0597 -0.0460  0.1426
47926W        W48790  14.126  17.641  24.360 -0.1060 -0.0055 -0.0260
47927W        W48791   6.319  28.085  23.434 -0.1650 -0.0845  0.0498
47928W        W48792  26.656   7.955  15.782 -0.3305  0.2621 -0.0554
47929W        W48793   4.639   5.244  26.693  0.5024  0.1457 -0.0948
47930W        W48794   1.634  25.922  18.157  0.0342 -0.0108 -0.1111
47931W        W48795   1.530  28.739   6.132  0.0556  0.1179 -0.0252
47932W        W48796  28.841  16.645   7.298 -0.0193  0.0092 -0.0207
47933W        W48797  14.930   1.804  17.342  0.1613  0.1620  0.0600
47934W        W48798  10.577  16.593  12.587 -0.3442 -0.2830 -0.2305
47935W        W48799  14.845  26.761  12.641 -0.2494  0.0263  0.0684
47936W        W48800  16.523  16.787  19.552  0.0362  0.0038 -0.1978
47937W        W48801  14.531   8.369   5.300  0.0565  0.1568  0.2008
47938W        W48802   2.498  13.576  22.026 -0.0288 -0.2333 -0.1186
47939W        W48803  17.283   5.158   2.621 -0.1060  0.0349 -0.1498
47940W        W48804  23.386  16.419  25.160 -0.0238  0.0235 -0.1443
47941W        W48805   5.444  17.043   0.314  0.1729  0.1395 -0.1669
47942W        W48806   3.662  17.862   5.368  0.2545 -0.2770 -0.2159
47943W        W48807   0.902  21.022   3.410 -0.0658  0.0951 -0.0813
47944W        W48808  21.864  22.195  20.903  0.0565  0.0521 -0.3817
47945W        W48809   4.866  27.450  21.338 -0.1044  0.1927  0.1388
47946W        W48810  25.446  19.245  27.199 -0.1343 -0.2917  0.0231
47947W        W48811  26.535  10.923  28.936  0.0788 -0.0017 -0.2873
47948W        W48812  21.290   0.972  26.357 -0.2481  0.2573  0.0475
47949W        W48813  20.907   7.315  23.317  0.0688 -0.2706  0.1384
47950W        W48814  23.605  13.148   7.918  0.1563  0.2497 -0.0327
47951W        W48815   9.805   1.914  27.332  0.2985 -0.2446 -0.0490
47952W        W48816  15.337   2.304  26.779  0.0323 -0.1840 -0.0227
47953W        W48817   1.753  15.323  23.420  0.1539  0.0047  0.1100
47954W        W48818   1.196  29.048  13.604  0.0730  0.1126  0.1258
47955W        W48819   4.009   8.949   9.713  0.1603  0.2286  0.2437
47956W        W48820   6.872  26.209  25.237  0.0210 -0.0448  0.0208
47957W        W48821   9.472  10.999   8.229  0.0144  0.0184 -0.1572
47958W        W48822  24.791  10.056  10.008 -0.5279 -0.0190 -0.0872
47959W        W48823  24.434  17.302   6.682 -0.1137 -0.0123  0.0740
47960W        W48824  23.459  20.236  28.066  0.1459  0.0053  0.0568
47961W        W48825   8.356  22.760   8.429  0.1103 -0.2108 -0.3188
47962W        W48826  10.217  27.732  25.447  0.4503 -0.1547  0.0295
47963W        W48827   5.258  28.291  22.311  0.3997 -0.3116 -0.0406
47964W        W48828  25.851  14.919  13.263  0.2341 -0.0414  0.1918
47965W        W48829  13.053  19.903  23.817 -0.1991  0.1865  0.0815
47966W        W48830  11.753   7.546   0.253 -0.0251 -0.2350  0.1261
47967W        W48831  24.534  18.296  26.920  0.1642 -0.2078 -0.0257
47968W        W48832   7.504  15.153  12.677 -0.0955 -0.2333 -0.1603
47969W        W48833   6.968   4.839   8.935  0.2793  0.0018  0.0264
47970W        W48834  24.423  28.710   7.944 -0.0709  0.1725  0.0239
47971W        W48835   8.741  25.312  16.080  0.0449 -0.0638  0.1777
47972W        W48836   3.763  19.871  26.343 -0.0035  0.4276  0.2412
47973W        W48837  13.138  13.666  28.233  0.2248 -0.0026  0.0503
47974W        W48838  24.273  26.790  13.189  0.0056 -0.1923  0.1140
47975W        W48839   2.058   9.659  16.217  0.0962 -0.1855  0.1070
47976W        W48840  14.322  25.115   0.763 -0.1626  0.0420  0.0640
47977W        W48841   4.219   7.577  22.754  0.2466 -0.0745 -0.2107
47978W        W48842  11.320  20.363  26.359  0.4154 -0.0392 -0.0484
47979W        W48843  28.294  21.943  15.925 -0.0410  0.2448  0.0698
47980W        W48844  15.037   2.730  15.002 -0.2551 -0.2907  0.2284
47981W        W48845   2.394  25.050  24.617 -0.0498  0.4236 -0.2829
47982W        W48846  21.509  19.625  23.450 -0.5839  0.1516 -0.0069
47983W        W48847   6.861  28.297  10.247 -0.4671  0.0194 -0.0092
47984W        W48848   5.626  21.146  16.373  0.1520  0.2543 -0.1840
47985W        W48849   1.351  11.847  28.659  0.1269  0.0129  0.1502
47986W        W48850  18.302  18.181  25.281 -0.1518  0.1209 -0.1200
47987W        W48851  12.157  19.359   3.686  0.0500 -0.0712 -0.2477
47988W        W48852   4.468  21.939  26.005 -0.0908 -0.2232  0.0173
47989W        W48853  27.118  22.913  27.017 -0.1544 -0.0441 -0.1170
47990W        W48854   0.949  22.309  14.322 -0.1155  0.0312 -0.0315
47991W        W48855  19.036   7.825  20.849 -0.3931  0.3423 -0.2242
47992W        W48856  22.854  17.191  22.183 -0.1981  0.0508  0.0730
47993W        W48857  18.146  19.775  16.649 -0.0959  0.1607 -0.2164
47994W        W48858   6.329  25.348   0.670 -0.1859  0.0258 -0.1427
47995W        W48859  18.455  19.703   4.603  0.0578 -0.3372 -0.1968
47996W        W48860   6.777  25.607   5.563 -0.2705  0.1337  0.1826
47997W        W48861   8.437  20.593  26.631  0.2272 -0.2029  0.0213
47998W        W48862  23.398  12.512   4.865  0.1502 -0.3032  0.1480
47999W        W48863  28.253   7.161  26.718  0.1973 -0.0714  0.0946
48000W        W48864  20.035  17.212   7.590  0.0022  0.0170 -0.0239
48001W        W48865  16.941  27.115  15.934 -0.2723  0.0661 -0.3243
48002W        W48866  10.202  19.626  24.708  0.2026 -0.1902 -0.1835
48003W        W48867   2.724  20.802  23.845 -0.0102  0.0999  0.1728
48004W        W48868   0.257  12.389   7.760 -0.1600  0.0965 -0.0147
48005W        W48869  13.814   3.038  21.377 -0.4021  0.1515  0.3427
48006W        W48870   8.528  27.485  28.551 -0.0729 -0.0231 -0.2058
48007W        W48871  13.099  23.876  29.000 -0.0878 -0.1678  0.0472
48008W        W48872  18.734  14.536  27.188  0.0383 -0.0677 -0.0516
48009W        W48873   2.454  18.743  27.383 -0.0885 -0.0672  0.2168
48010W        W48874  24.600  22.564   6.238 -0.1011  0.0380  0.0563
48011W        W48875  12.644   8.032  22.042 -0.0342  0.0076 -0.1563
48012W        W48876   1.368  19.439  24.374  0.0413 -0.2107 -0.1169
48013W        W48877   2.589  14.700   3.589 -0.0210 -0.2771 -0.0812
48014W        W48878   2.279   8.585  14.630  0.1539 -0.2088  0.1647
48015W        W48879  14.407  14.262   4.726  0.0186  0.0294 -0.2056
48016W        W48880  14.767   7.029  14.087 -0.0925 -0.1730 -0.5896
48017W        W48881   5.826  21.253  22.256 -0.1688 -0.0670  0.0274
48018W        W48882   8.550   9.843  20.873  0.1403 -0.2137 -0.2776
48019W        W48883   7.278  14.924   0.221 -0.0580 -0.1219 -0.0921
48020W        W48884   5.882   6.854  18.549 -0.2786 -0.0299 -0.2487
48021W        W48885  10.484  28.542  14.081 -0.1556  0.2280  0.0015
48022W        W48886  17.844  18.716  19.359 -0.1601 -0.1185  0.1713
48023W        W48887  29.068  21.013   6.733 -0.0418  0.2594 -0.1543
48024W        W48888  11.088  27.644   3.621  0.0309 -0.1093  0.0748
48025W        W48889  16.626  18.082  12.676  0.0991  0.0358  0.0104
48026W        W48890   8.352  22.997  13.016 -0.0931  0.2745  0.1574
48027W        W48891   8.819  25.082  27.107  0.1683 -0.1101  0.0489
48028W        W48892  27.233  20.174   6.932  0.2939 -0.0803  0.1356
48029W        W48893  13.816   8.281  26.659 -0.0770  0.2499  0.0041
48030W        W48894   2.766   2.245  13.194  0.1196 -0.1870  0.0184
48031W        W48895   0.219  18.464  19.785 -0.0068 -0.0487  0.1165
48032W        W48896  27.883   7.603  25.029  0.0652  0.3397 -0.0536
48033W        W48897  24.695   2.115  23.813 -0.0870  0.2942 -0.0230
48034W        W48898  11.463   2.673   1.916  0.1407  0.0094 -0.2812
48035W        W48899   2.200  26.997   6.317 -0.1766 -0.0767 -0.1817
48036W        W48900  20.135  18.812  25.926 -0.3709 -0.0959 -0.1681
48037W        W48901   2.104  23.998   8.969 -0.2146  0.1547  0.0711
48038W        W48902  18.921  23.871  24.884 -0.1632 -0.2541 -0.1028
48039W        W48903  20.619  16.240  22.589  0.1579  0.3300  0.1509
48040W        W48904   4.351  26.517  10.318 -0.1226  0.0671 -0.0660
48041W        W48905   5.446   0.450  25.470 -0.1268  0.2404  0.0346
48042W        W48906  18.225  17.027   2.504  0.0112 -0.2345  0.2097
48043W        W48907  25.196  21.626  19.508 -0.0052  0.3068 -0.1493
48044W        W48908   7.482  13.642   0.246 -0.2881  0.1736  0.2394
48045W        W48909   0.923   8.609  22.392  0.0159 -0.2315  0.0643
48046W        W48910   3.382  22.440  26.812  0.1551  0.1626 -0.0800
48047W        W48911   9.773   3.871  23.031  0.3368 -0.2298 -0.0353
48048W        W48912  13.229   1.129  18.445  0.2845  0.0441  0.1311
48049W        W48913   2.482  19.845  13.133  0.0167  0.1475 -0.3256
48050W        W48914  21.286  24.927   7.153 -0.1253 -0.0056 -0.0819
48051W        W48915  10.445   6.591  24.167  0.1196 -0.0001  0.1693
48052W        W48916   7.797   3.354  27.517  0.2141  0.2107 -0.0516
48053W        W48917  24.278  27.576  10.051 -0.0181 -0.2392 -0.1397
48054W        W48918  25.497  17.683   2.634 -0.0746  0.1002 -0.1081
48055W        W48919   0.693  22.390  18.205 -0.2065 -0.0813 -0.0285
48056W        W48920   0.065  16.722   1.002  0.0579  0.0371 -0.0313
48057W        W48921   6.654   9.536  14.305 -0.0023  0.3484  0.3578
48058W        W48922   6.072   4.579  28.530  0.2384 -0.2658  0.2140
48059W        W48923  14.144  14.687   4.556 -0.0707 -0.1497  0.0468
48060W        W48924   5.663  15.956   1.361 -0.0329 -0.1404  0.3490
48061W        W48925   2.030  22.340   0.166  0.1586 -0.0052  0.2280
48062W        W48926   8.947  23.857  16.650  0.1120 -0.1612  0.1224
48063W        W48927  14.267  15.528  19.398  0.1601  0.1859 -0.0992
48064W        W48928   5.081   4.853   1.545 -0.0209 -0.1056  0.0250
48065W        W48929   7.319  15.401   7.988 -0.2265  0.1798  0.3167
48066W        W48930  13.400   8.709   9.061  0.0341 -0.1328 -0.1608
48067W        W48931   3.322  15.213  29.093  0.0564 -0.2349  0.1778
48068W        W48932  11.801  14.433  19.416 -0.2901 -0.1168 -0.0406
48069W        W48933   4.392  18.242  25.954 -0.1684 -0.0105  0.0145
48070W        W48934   9.907  21.543   5.047  0.2888  0.1232 -0.0002
48071W        W48935   7.713   6.998   7.049  0.1547  0.1842 -0.2511
48072W        W48936  11.507   4.968  21.788  0.2413 -0.1399  0.0127
48073W        W48937   3.171   6.588  19.811  0.2568  0.1324  0.0574
48074W        W48938   5.829   6.499  13.282  0.1035 -0.0515 -0.0208
48075W        W48939   4.978  20.152  21.898  0.2824  0.1195  0.3823
48076W        W48940  14.033   6.208   5.171 -0.0953 -0.3644  0.1098
48077W        W48941  10.178  21.692   1.585  0.1024 -0.0477  0.0802
48078W        W48942  22.286  27.106  26.660  0.0543  0.1813  0.0548
48079W        W48943  11.356  15.463  24.333 -0.0703 -0.0730 -0.1019
48080W        W48944  10.568   5.054  23.101  0.3324 -0.3706 -0.3266
48081W        W48945  17.794  28.445   2.825  0.1159 -0.0868 -0.0746
48082W        W48946  27.829  20.680   5.668 -0.1185 -0.2894  0.0175
48083W        W48947  27.363   7.423   7.621 -0.1380 -0.1316 -0.0823
48084W        W48948   1.496  14.649  25.391  0.0661 -0.0853  0.3964
48085W        W48949   4.716  15.756  10.459 -0.0265  0.2528 -0.0783
48086W        W48950  20.656  20.989   4.381 -0.0949 -0.3872 -0.1015
48087W        W48951   4.553  21.642  17.851 -0.0389  0.1255 -0.1941
48088W        W48952  20.763  16.382  14.621  0.0458  0.0799  0.1690
48089W        W48953   1.316  11.103   3.804 -0.0395 -0.0584 -0.3707
48090W        W48954   4.215  27.069  21.844  0.0372  0.1884 -0.0079
48091W        W48955  20.308  28.534   3.429  0.0299 -0.4304  0.3241
48092W        W48956  22.100  19.062  16.692 -0.0878  0.3460  0.2190
48093W        W48957   4.567  11.346  26.377  0.0835  0.1803 -0.0386
48094W        W48958  12.679  19.966  28.366  0.1253 -0.3009  0.0430
48095W        W48959   2.686   1.595  19.724  0.1002 -0.1603  0.1841
48096W        W48960  22.745  11.802  28.951 -0.2469 -0.0299  0.2317
48097W        W48961   4.223  22.195  19.046  0.1851 -0.0810  0.0365
48098W        W48962   9.385  22.517  10.347  0.0374  0.0742  0.0341
48099W        W48963  19.268  25.758  29.020 -0.1844  0.1561  0.2384
48100W        W48964  24.772   0.492  21.451 -0.1668 -0.2945  0.4929
48101W        W48965  11.510   2.307  28.463 -0.3356  0.1439 -0.0160
48102W        W48966  26.427  24.294  23.952 -0.0538 -0.0763 -0.0318
48103W        W48967  21.181  28.222   0.734 -0.0963  0.1160 -0.2910
48104W        W48968  18.248  18.645  26.063  0.1662 -0.0437  0.1042
48105W        W48969   4.482  17.704  16.795  0.0088  0.1902  0.0631
48106W        W48970  24.725  20.462  27.442  0.0348  0.0420 -0.2630
48107W        W48971   2.457  16.159  27.495  0.0155 -0.0849  0.0143
48108W        W48972  16.262   1.765  16.831 -0.2199  0.1785 -0.3282
48109W        W48973  16.089   5.779  17.184 -0.0347 -0.1318 -0.0643
48110W        W48974  21.294  24.193  26.179 -0.1286  0.1469 -0.0137
48111W        W48975  20.806   2.156   0.793  0.1437  0.0917  0.2148
48112W        W48976   9.189  16.061  26.623  0.2189  0.0600  0.2489
48113W        W48977   6.545  19.257  20.551  0.1945 -0.0536 -0.0872
48114W        W48978  21.530  26.550  27.639 -0.1127 -0.1981  0.2156
48115W        W48979  17.823  14.155  23.774 -0.1819  0.3771 -0.2404
48116W        W48980  16.878   1.696   8.485  0.4500  0.2241 -0.1473
48117W        W48981  28.084  16.932  12.773  0.1210 -0.0184  0.1645
48118W        W48982  19.296  21.841  15.809 -0.1492 -0.1548 -0.2706
48119W        W48983   4.182   3.470  27.016 -0.1370 -0.0653 -0.2528
48120W        W48984   7.891  11.307   5.024  0.3061 -0.0155 -0.1367
48121W        W48985   1.071  12.931  15.576 -0.3565 -0.0283  0.5679
48122W        W48986  17.254  19.069  18.730 -0.0389 -0.1732 -0.0302
48123W        W48987  28.529  28.961  11.959 -0.0875  0.1391  0.0778
48124W        W48988  14.319  28.200   6.931  0.0393  0.2173  0.0016
48125W        W48989   6.873  27.441  18.176  0.1123  0.2549 -0.0499
48126W        W48990  12.336  24.057   1.738  0.0649 -0.2826  0.1190
48127W        W48991  10.864  24.519   7.501 -0.2923  0.0965 -0.3689
48128W        W48992  13.151  14.510   4.290  0.2808  0.1052 -0.1342
48129W        W48993  26.483  19.123  15.340  0.1266 -0.3145 -0.0309
48130W        W48994   9.853   2.006  23.643 -0.0595  0.1386  0.0033
48131W        W48995  13.487   9.928  27.547 -0.0241 -0.0478 -0.3861
48132W        W48996   6.241  10.221   0.325  0.0903  0.2004  0.0112
48133W        W48997   1.915  24.309  17.099 -0.0167  0.1752  0.2868
48134W        W48998  14.550  10.820   1.285 -0.1253  0.0101 -0.3552
48135W        W48999  22.278  28.452  19.110  0.2722  0.3183 -0.0458
48136W        W49000   2.523   5.275   9.763 -0.1518 -0.0173  0.0314
48137W        W49001   6.002   8.041   0.387  0.3657 -0.0722 -0.0463
48138W        W49002  12.078  26.931  18.037  0.2620  0.0544 -0.1598
48139W        W49003  13.384  18.515  10.084 -0.1019  0.2126 -0.0210
48140W        W49004  23.665  25.227  19.794  0.1460  0.0370  0.0475
48141W        W49005  18.787   5.982  22.768  0.2544 -0.4283  0.0486
48142W        W49006  27.503  19.114  23.628  0.3291 -0.2804 -0.1108
48143W        W49007   1.349  27.743   0.689 -0.0738 -0.4106  0.1219
48144W        W49008  24.025   9.997  15.282  0.1549 -0.0516  0.1728
48145W        W49009   7.342  20.393   2.041  0.0497 -0.3053 -0.0731
48146W        W49010  25.237   2.339  25.125 -0.0284  0.1034 -0.4490
48147W        W49011   2.853  24.771   5.246 -0.0133  0.0527  0.2068
48148W        W49012  23.540  24.654   5.177  0.2166 -0.0855 -0.0802
48149W        W49013  26.295   9.420  15.563  0.0381  0.0783 -0.2165
48150W        W49014  11.323  11.799  22.422 -0.0940 -0.4521  0.0656
48151W        W49015  27.257  17.570   7.252  0.0297 -0.1710 -0.0350
48152W        W49016  10.646  21.835  24.427 -0.0315 -0.0945  0.2074
48153W        W49017  17.825  11.754  11.283 -0.2154 -0.1063 -0.2114
48154W        W49018   1.447  21.008  28.346 -0.0665  0.0273  0.2245
48155W        W49019  23.824   2.456  24.331  0.2295 -0.0979  0.2845
48156W        W49020  20.047   2.337  16.598 -0.6222  0.0247 -0.1177
48157W        W49021  14.623  19.398  27.973  0.0120 -0.2212  0.0197
48158W        W49022   7.433  11.934  28.874 -0.2204  0.0581  0.0452
48159W        W49023  10.700   2.016   9.130  0.0846 -0.1248 -0.2790
48160W        W49024  13.542  24.771   8.945 -0.0017  0.1093 -0.1658
48161W        W49025   5.846  21.855   6.170 -0.3248  0.2815  0.1046
48162W        W49026   3.182  19.922  11.013  0.0052  0.1122 -0.0718
48163W        W49027  12.609   8.933   3.900 -0.2184 -0.0411 -0.0035
48164W        W49028  24.133   8.635   1.507  0.3825 -0.3751  0.0014
48165W        W49029  27.676   0.452   7.228 -0.0145  0.0118 -0.1671
48166W        W49030   1.257  19.140  21.264 -0.0375  0.2327 -0.2100
48167W        W49031  12.127  24.505   8.658  0.3044  0.1544  0.4647
48168W        W49032  16.459   7.125  16.010  0.1619  0.0170 -0.0684
48169W        W49033   8.005  20.850  13.156 -0.1138  0.3233  0.2216
48170W        W49034  17.924  22.388   6.421 -0.0423 -0.0357 -0.2748
48171W        W49035   5.668  21.439   3.132 -0.1306  0.1952 -0.3677
48172W        W49036  10.419   9.780   7.503  0.1714  0.1144 -0.1197
48173W        W49037   4.567  14.992  19.546 -0.4574  0.1457  0.1246
48174W        W49038  12.182  16.901  20.698 -0.0920  0.2355  0.1907
48175W        W49039   7.647  22.993  26.411 -0.0316  0.2521  0.1263
48176W        W49040   6.465  23.845   4.195  0.2320 -0.1694  0.0097
48177W        W49041  20.720  14.876  14.714  0.1584 -0.1447 -0.1661
48178W        W49042  26.163   9.571  22.307  0.3469  0.0794  0.1748
48179W        W49043  11.974  23.129  24.772 -0.4501  0.3138  0.1444
48180W        W49044  27.374  28.597  10.656 -0.1254 -0.0054  0.0101
48181W        W49045  14.623  16.486  25.997  0.2947  0.4481  0.0964
48182W        W49046   3.398   9.146  11.243  0.2517  0.1010 -0.1934
48183W        W49047   2.620  23.196   6.057  0.1144  0.0527  0.1745
48184W        W49048  28.812   6.846  16.164  0.1947 -0.0613  0.2067
48185W        W49049   5.820   1.715   2.801 -0.4241  0.2008 -0.0054
48186W        W49050  17.013  25.219   5.079  0.0272  0.1880 -0.0821
48187W        W49051  25.519  23.877  18.349 -0.0931 -0.0433 -0.1971
48188W        W49052  28.265  27.015  24.357  0.0350 -0.1863  0.1970
48189W        W49053  21.236  19.089   0.058 -0.1707  0.0060 -0.0343
48190W        W49054   9.619   8.807  16.392  0.0262  0.0646 -0.2892
48191W        W49055  28.654   5.939  12.283 -0.1246  0.0817  0.0436
48192W        W49056  13.743  17.427   6.715  0.0183  0.1972  0.1114
48193W        W49057   8.038   2.028   1.791  0.0170  0.0791 -0.4084
48194W        W49058  18.288  26.693  12.537 -0.1486  0.0182 -0.2705
48195W        W49059  23.454   2.079   8.031  0.0460  0.1466  0.0839
48196W        W49060   1.997   5.295   0.028  0.3223 -0.0366 -0.0559
48197W        W49061   2.138   1.018   4.995  0.1614 -0.0693  0.3549
48198W        W49062  19.869  17.082  18.696  0.3313  0.0311  0.0510
48199W        W49063   5.249   4.320  15.246  0.0702  0.5402  0.0995
48200W        W49064   5.887  23.972  11.886 -0.0928 -0.5273 -0.0222
48201W        W49065  21.419   2.401  10.006  0.0076 -0.0165 -0.0238
48202W        W49066  12.537   3.031   4.903 -0.2045  0.2288  0.0188
48203W        W49067   6.843  11.704  15.241  0.3691 -0.3005 -0.2874
48204W        W49068  27.291  23.151   9.844  0.0916 -0.0818  0.0517
48205W        W49069  14.909   5.063   1.619 -0.1740 -0.3731  0.3220
48206W        W49070   8.972  26.715  10.239 -0.2503  0.1022  0.1403
48207W        W49071  28.736   1.622  18.490  0.0609  0.1468  0.0375
48208W        W49072  12.575   8.360  25.665  0.0475 -0.0532  0.3272
48209W        W49073  20.731  27.644  25.965  0.1338  0.1055 -0.0324
48210W        W49074  13.596   1.327   7.574 -0.0707 -0.0573 -0.2986
48211W        W49075   2.673  27.332  19.517  0.1066  0.0207 -0.1724
48212W        W49076  28.969   0.129  24.580 -0.3205 -0.1924  0.0012
48213W        W49077  19.790   2.578   8.805  0.0281  0.3288  0.2739
48214W        W49078   9.819  19.672   0.585 -0.0593  0.0309  0.0968
48215W        W49079  10.834  17.394  23.418 -0.3538 -0.2722 -0.0435
48216W        W49080  12.680  14.416  10.838 -0.3437  0.2441 -0.0688
48217W        W49081  13.474  22.563  19.615  0.0852  0.0629  0.1638
48218W        W49082   5.334  12.107   4.771 -0.0574 -0.1503  0.0700
48219W        W49083  16.507   9.415  26.411 -0.3667  0.2885 -0.1118
48220W        W49084   8.483  17.386  24.839 -0.2027  0.1119 -0.0312
48221W        W49085  12.234  23.806  16.901 -0.1051  0.0033 -0.2119
48222W        W49086  14.074  24.053   8.720  0.1826 -0.0278  0.0891
48223W        W49087   4.110  21.193   9.055 -0.1561 -0.3867 -0.0158
48224W        W49088   0.784  25.796  11.498  0.2989  0.2921 -0.0922
48225W        W49089   8.428  20.828  18.018 -0.1911  0.1533  0.1098
48226W        W49090   2.058  10.817   7.305 -0.1780  0.2012 -0.0646
48227W        W49091   0.583   6.311   8.592 -0.1125  0.0093 -0.2477
48228W        W49092   1.625   9.329  26.627  0.1216 -0.3606 -0.1052
48229W        W49093  11.354  12.522  23.791 -0.0952 -0.1123 -0.1550
48230W        W49094  17.530  25.463  15.627  0.0807  0.1118  0.1529
48231W        W49095  13.686   3.954  21.456 -0.0442 -0.3453  0.2916
48232W        W49096  18.260  13.901   5.376  0.1071  0.0285 -0.0717
48233W        W49097   8.022  27.290  25.708  0.4358 -0.0141  0.0413
48234W        W49098  24.389  12.280  19.736  0.1093 -0.0012  0.1973
48235W        W49099  19.054   9.958  19.344  0.1793 -0.1399  0.0684
48236W        W49100  26.480  27.337  17.174  0.1535  0.2282 -0.0809
48237W        W49101  11.466  27.817  13.205  0.0776 -0.0840  0.3676
48238W        W49102  11.380   1.466   2.724 -0.0394  0.1632  0.1741
48239W        W49103   3.197  25.235   5.693  0.0396 -0.0023  0.0106
48240W        W49104  24.698   1.596   0.811 -0.0323 -0.0415 -0.0529
48241W        W49105  12.370  22.422  16.071  0.0685 -0.1018  0.1150
48242W        W49106  17.634   9.270  12.211  0.1111  0.1361  0.0928
48243W        W49107  18.321  24.626   8.502 -0.1614 -0.0548 -0.3948
48244W        W49108  15.781   7.337  16.174  0.0141  0.2604 -0.0658
48245W        W49109  16.222  16.005   6.657 -0.1590  0.4503 -0.0725
48246W        W49110  17.646   2.435  28.401 -0.2027  0.1210 -0.2450
48247W        W49111  23.173  23.789  15.425 -0.2208  0.2797  0.0324
48248W        W49112   6.042  12.474  25.203  0.1460 -0.2106 -0.0048
48249W        W49113   9.112  25.345  26.786  0.2103 -0.0488 -0.1436
48250W        W49114   4.185  17.923   3.433  0.3239 -0.0038  0.0583
48251W        W49115   6.816  28.260   5.488  0.1587 -0.2017  0.4288
48252W        W49116   4.533  27.124  22.592  0.0336 -0.0100  0.0424
48253W        W49117  22.007  24.034   9.520  0.1105  0.2431  0.2308
48254W        W49118   5.272   1.747  22.330 -0.3199 -0.1353  0.1649
48255W        W49119   6.787  21.953   4.350  0.2383 -0.1971  0.1165
48256W        W49120   8.305  22.882  14.396  0.1971 -0.0022 -0.0056
48257W        W49121   5.837  26.134  27.599  0.2087 -0.3322 -0.0352
48258W        W49122   1.566  15.581  17.540  0.0746 -0.0687 -0.1363
48259W        W49123  22.571   4.739  20.500 -0.1232  0.1324 -0.1707
48260W        W49124  26.112  22.956  11.197 -0.0454 -0.1245  0.0933
48261W        W49125   5.605   1.324  23.920 -0.3669  0.1772 -0.0372
48262W        W49126  12.098  25.397  22.679  0.0013 -0.3300 -0.3104
48263W        W49127   5.521  26.842  20.228  0.1709  0.3021 -0.0259
48264W        W49128   2.856   2.934  20.460  0.3267  0.0081  0.2401
48265W        W49129   6.602  12.094  22.571  0.0410  0.0117  0.3621
48266W        W49130   1.323  18.175  10.766 -0.0342 -0.0782  0.0182
48267W        W49131   9.469   8.718  18.136 -0.1412 -0.0451 -0.0722
48268W        W49132   4.950   1.865  23.165 -0.1345 -0.4813 -0.2969
48269W        W49133   7.974  13.028  10.644 -0.0394 -0.2056 -0.1508
48270W        W49134  15.402   0.251  10.409 -0.3500  0.0240 -0.1661
48271W        W49135  17.751  11.490  25.388 -0.0999 -0.2209  0.2953
48272W        W49136   1.755   1.311  27.202 -0.3633  0.0122  0.0526
48273W        W49137  24.928  23.607  22.735  0.1827  0.0921 -0.0896
48274W        W49138  23.592   1.876   7.548  0.0459 -0.2372 -0.2163
48275W        W49139  24.957   3.781   0.787  0.1279 -0.2073  0.1380
48276W        W49140   0.067  20.702   8.682 -0.1941  0.1319  0.2090
48277W        W49141  14.239   5.826  29.091  0.0207  0.2367 -0.1853
48278W        W49142  12.984   6.064  25.397 -0.1906 -0.2304  0.1042
48279W        W49143  27.618   0.861  19.878 -0.2499  0.0581 -0.1781
48280W        W49144   9.522   7.558   1.851  0.1424 -0.1454  0.0936
48281W        W49145   9.398   2.075  16.186 -0.1161 -0.0696 -0.0572
48282W        W49146   8.852  28.814  27.199  0.0916  0.0391 -0.2808
48283W        W49147  10.019   6.579   5.664  0.0717  0.0142 -0.1409
48284W        W49148   9.383  18.411  16.378 -0.0924  0.1355  0.1677
48285W        W49149   3.889  19.451   9.540 -0.0658 -0.0057 -0.0674
48286W        W49150  20.670   6.770   1.976  0.0843  0.0318  0.1096
48287W        W49151   9.147  25.856  20.970 -0.1877  0.0547  0.0576
48288W        W49152  16.848  28.183   4.931  0.0221  0.2033 -0.3453
48289W        W49153   3.867   5.780  12.953  0.0222 -0.4384 -0.0850
48290W        W49154  13.497  23.888   5.968 -0.1272 -0.2246  0.1465
48291W        W49155  16.917  11.623   0.294  0.0267 -0.0135 -0.0565
48292W        W49156  18.799  21.909   3.418  0.0179 -0.2848 -0.0392
48293W        W49157  25.716   1.663   4.585 -0.1320  0.0293  0.1130
48294W        W49158   0.585   5.342  22.668  0.0533  0.0641 -0.0446
48295W        W49159  23.390   0.561  25.504 -0.1217 -0.3756  0.0620
48296W        W49160   2.677  10.137  26.796 -0.1948  0.0690 -0.1031
48297W        W49161   0.553  19.136  23.232  0.0936 -0.1342  0.1806
48298W        W49162   1.128   6.632   2.902  0.0492  0.1517 -0.1318
48299W        W49163   9.685   4.445  15.426  0.1292 -0.1487 -0.0630
48300W        W49164   2.186  25.819   4.369 -0.0780 -0.0796  0.0991
48301W        W49165   3.562  22.385  25.951 -0.0990 -0.0578 -0.1991
48302W        W49166   8.911   2.688  21.004  0.3110 -0.0956  0.1104
48303W        W49167  12.378  28.813   3.493 -0.0813 -0.2052  0.1579
48304W        W49168  28.575  26.918  23.615 -0.1368  0.1014  0.1950
48305W        W49169  26.319  10.407  17.080 -0.3185 -0.1090  0.2058
48306W        W49170   1.334   5.758  12.133 -0.0654  0.2520 -0.1238
48307W        W49171  17.350   9.704   4.309 -0.1861 -0.2471 -0.3109
48308W        W49172  27.609  18.545  27.903  0.0594 -0.2534  0.1193
48309W        W49173   9.598   1.185   6.862 -0.1021 -0.2502 -0.0383
48310W        W49174  25.449  25.450   6.923 -0.0838  0.0881 -0.0807
48311W        W49175   8.531   5.372  21.119  0.0849 -0.0477 -0.0322
48312W        W49176  15.122   9.944   9.297  0.3394 -0.0862 -0.1794
48313W        W49177  28.299  13.372   6.114 -0.0161 -0.0189  0.1123
48314W        W49178   4.545  13.436  25.963  0.0859 -0.3010  0.1428
48315W        W49179   9.661   1.347  12.545  0.1440  0.4833 -0.3425
48316W        W49180   7.539  24.991   7.642  0.1060 -0.0901 -0.0717
48317W        W49181  25.148  17.311  22.124  0.0094  0.4682 -0.2801
48318W        W49182  22.380  26.183   2.726 -0.1311 -0.2557 -0.0264
48319W        W49183   2.416   4.883  11.033 -0.2711 -0.1206  0.1068
48320W        W49184  29.100  11.691  16.790  0.2004 -0.0919 -0.0441
48321W        W49185   7.412  17.275   4.532 -0.0164 -0.1164 -0.0724
48322W        W49186   7.937  27.308  21.960  0.0887 -0.0474  0.3644
48323W        W49187  22.494  23.913   8.329 -0.0034  0.1358  0.2516
48324W        W49188  26.330  19.958  21.910 -0.0413 -0.1243 -0.0324
48325W        W49189  21.876  10.132  20.105 -0.0243 -0.0090  0.0254
48326W        W49190  10.676  26.406  28.670 -0.2824  0.1311 -0.5398
48327W        W49191  10.578  27.699  22.183  0.0457 -0.2210  0.0900
48328W        W49192  21.684  27.647   8.594 -0.0247 -0.0544 -0.1910
48329W        W49193  11.139   4.485   7.692 -0.1439  0.2712 -0.1601
48330W        W49194  19.513  14.316   3.968  0.6008  0.1522  0.1334
48331W        W49195  27.174  21.952   3.640  0.1313  0.1734 -0.3293
48332W        W49196  24.705  28.346   1.118  0.1539 -0.4467 -0.0759
48333W        W49197  26.790  22.926  18.383  0.1546  0.1117  0.0022
48334W        W49198  13.199   6.095   9.462 -0.0012  0.1161  0.1709
48335W        W49199  14.120   6.237  11.602 -0.3361  0.0332  0.4788
48336W        W49200   7.520   2.845   5.230 -0.2419  0.3080  0.0656
48337W        W49201   4.044   8.116  13.371 -0.0096  0.0993  0.0236
48338W        W49202  20.466  28.214   2.505  0.1724  0.1439  0.0068
48339W        W49203  28.458   6.873  12.458 -0.1919 -0.1773 -0.1745
48340W        W49204  16.975  20.372  14.019 -0.0419 -0.2240 -0.0313
48341W        W49205  19.735  21.475   4.768 -0.1979 -0.1981 -0.0152
48342W        W49206  29.062  23.151  26.982  0.1315  0.0197 -0.1981
48343W        W49207  12.849   3.606   6.186 -0.0871 -0.2676 -0.0419
48344W        W49208  25.922  13.014  12.533 -0.0113 -0.1189 -0.1770
48345W        W49209  25.866  27.161   5.453  0.1193 -0.2483 -0.1789
48346W        W49210   8.822   4.231   7.758  0.0255 -0.0341 -0.1199
48347W        W49211  24.048   2.548  19.152  0.1514 -0.3396  0.0285
48348W        W49212  26.275  25.987  16.469  0.3395  0.1345 -0.3615
48349W        W49213  17.999  28.182  26.125  0.4345 -0.2042 -0.1210
48350W        W49214  16.627  27.955   0.773  0.0465 -0.0495 -0.0544
48351W        W49215  23.126   1.981  23.072  0.3266 -0.3762  0.0019
48352W        W49216  13.422  15.375   4.705  0.0522  0.0447  0.2656
48353W        W49217  22.320   0.221  28.766 -0.0421 -0.1891  0.1372
48354W        W49218   9.798  25.326   6.562 -0.3166  0.1559  0.0635
48355W        W49219   6.479  26.440  26.299 -0.1177  0.1953 -0.0661
48356W        W49220  28.130   5.248  15.491 -0.1175 -0.1084 -0.3562
48357W        W49221  24.405  16.584  24.073 -0.1119 -0.1224  0.2036
48358W        W49222  11.284  18.697  13.888  0.1247 -0.1273  0.1633
48359W        W49223   4.992  20.934   9.875 -0.2519  0.0450  0.0679
48360W        W49224   3.399  16.655   4.870 -0.1366 -0.2588  0.1230
48361W        W49225   5.681  10.721  28.858 -0.1365 -0.0938  0.0563
48362W        W49226  21.331   1.174   3.089  0.2272  0.0517  0.0892
48363W        W49227  29.042  28.164   6.192 -0.2442  0.1190  0.0385
48364W        W49228   1.267  26.267   3.405  0.0837  0.1570  0.0790
48365W        W49229   8.142  13.576  15.554  0.3780  0.0599 -0.3725
48366W        W49230   6.294   2.083  27.303 -0.0562 -0.0400  0.2191
48367W        W49231  23.771   9.698  20.408  0.1520  0.0079  0.2080
48368W        W49232   2.603   8.342   0.076  0.6924  0.1222  0.1753
48369W        W49233   9.723  14.247  24.858  0.2892 -0.0813  0.0292
48370W        W49234  21.007  28.604   3.093  0.1846  0.1698  0.0568
48371W        W49235  28.868  19.170  11.406  0.1213  0.2847  0.0693
48372W        W49236   7.534   3.165  23.605  0.3146  0.0841 -0.1278
48373W        W49237  21.239  26.472   3.637  0.2168 -0.4312 -0.1591
48374W        W49238   3.062  17.293  28.525 -0.1328 -0.0146 -0.0601
48375W        W49239   0.008   9.368  13.820 -0.2540 -0.0798  0.0659
48376W        W49240  20.914  27.616  19.226  0.1154  0.0099  0.4164
48377W        W49241  25.116   0.491   6.733 -0.0544 -0.1287 -0.3671
48378W        W49242  17.983   3.390  14.874 -0.2740 -0.1783 -0.2561
48379W        W49243  18.207  12.720  19.464 -0.0304 -0.3299  0.0209
48380W        W49244  12.871  10.167  25.900 -0.0111 -0.0919  0.0798
48381W        W49245   0.512   5.748  27.719  0.3238  0.1270 -0.0474
48382W        W49246  14.313  27.537   2.987  0.0136 -0.0333  0.2888
48383W        W49247  13.016  11.093  23.809 -0.2776  0.1745  0.1136
48384W        W49248   9.743  28.452  24.022  0.1080 -0.0661  0.0615
48385W        W49249  10.127  13.813   8.158  0.0175  0.0142 -0.0552
48386W        W49250   7.028   7.513  28.800 -0.2529  0.0715  0.1212
48387W        W49251   2.173   0.625   9.172  0.0559  0.0598  0.1114
48388W        W49252  14.442  27.560  25.548  0.0816  0.0388 -0.3214
48389W        W49253   9.935  26.183  27.127  0.2157 -0.3402  0.0264
48390W        W49254   9.653   2.027   7.688  0.0397  0.1995  0.1120
48391W        W49255   4.338   8.548  17.535  0.0670  0.1187  0.0672
48392W        W49256  12.442  27.352  26.952 -0.1221 -0.0148 -0.1833
48393W        W49257  27.965  21.315  23.847 -0.1438 -0.0023  0.3950
48394W        W49258  24.907  12.943  26.328  0.0894 -0.3032  0.2411
48395W        W49259  12.475   1.908   6.936  0.1035  0.0361 -0.1783
48396W        W49260   0.746  28.371   2.518  0.1109 -0.1503 -0.1383
48397W        W49261  16.353  18.515  23.120  0.0833 -0.0276  0.0668
48398W        W49262   5.589  17.641  28.853  0.1120  0.1761  0.4630
48399W        W49263  20.644  21.131  24.383  0.1623  0.0519 -0.1181
48400W        W49264   1.752  21.181   0.573  0.3057 -0.1681  0.0152
48401W        W49265   4.928  27.280  18.202  0.2122 -0.1224 -0.2266
48402W        W49266  27.345  18.460   0.412  0.0591 -0.0092 -0.1696
48403W        W49267   1.387  15.437  11.762  0.0667  0.1374  0.0910
48404W        W49268   1.356  13.457  10.223 -0.1143 -0.0007 -0.2300
48405W        W49269  16.678  23.968   2.509  0.0274 -0.0147  0.0069
48406W        W49270  20.410  24.458  17.494 -0.2696  0.2028  0.2311
48407W        W49271  15.375  10.588   0.836  0.0305  0.1077  0.2601
48408W        W49272  11.350  26.818  16.597  0.2368  0.1485  0.0759
48409W        W49273  14.987   1.611  21.225  0.0495  0.0792  0.4634
48410W        W49274   5.329   7.778  26.296  0.2761 -0.0739 -0.3737
48411W        W49275  15.739   9.028  26.812 -0.1265  0.1310 -0.2304
48412W        W49276  27.432   8.676  29.071 -0.1621 -0.3028  0.1080
48413W        W49277  23.660  22.028  20.505  0.1845 -0.0752  0.0298
48414W        W49278   4.070  19.404  25.507 -0.1663  0.0909 -0.1080
48415W        W49279   7.537  25.885   0.152  0.2818  0.0108 -0.2407
48416W        W49280   2.864  18.763  24.998  0.1649 -0.1789 -0.2552
48417W        W49281   8.529   7.304  16.406  0.0696 -0.2396  0.2029
48418W        W49282   5.692  18.302  12.680 -0.1331  0.3934 -0.3481
48419W        W49283   0.754   1.334  10.557  0.2476  0.1143 -0.1874
48420W        W49284   7.834  10.939   2.740  0.1383  0.0348 -0.1188
48421W        W49285  22.114   6.028   7.076 -0.0890  0.0304  0.0582
48422W        W49286  25.581   1.500   0.466  0.0051  0.2508 -0.3026
48423W        W49287   0.434  10.704  13.219 -0.0352  0.0917 -0.1192
48424W        W49288  10.218  18.604  29.060 -0.0579  0.1118  0.0193
48425W        W49289   8.317   0.487  16.954  0.1955  0.0902  0.0965
48426W        W49290   7.442  26.354  28.274 -0.1401 -0.1123 -0.0465
48427W        W49291  11.085   4.521  20.927  0.0915 -0.0595 -0.0600
48428W        W49292   8.209   8.906  26.251  0.1865  0.0094 -0.3815
48429W        W49293  19.950  19.910  27.596  0.3876  0.3421 -0.2397
48430W        W49294  15.490  28.335   3.945  0.2107 -0.0203 -0.2259
48431W        W49295  23.281  23.818   8.476  0.2573  0.0338  0.0119
48432W        W49296   4.198   7.628   5.281 -0.0717  0.1956 -0.3034
48433W        W49297   9.354   2.774  15.416  0.0321  0.1584  0.1252
48434W        W49298  18.035   3.397  23.007 -0.1979  0.0655  0.0439
48435W        W49299   0.348  21.545  10.958  0.1447  0.1172  0.1922
48436W        W49300   4.292   3.978  24.248 -0.1665  0.1716  0.1672
48437W        W49301  22.868  18.294   3.279 -0.0062  0.1520 -0.2079
48438W        W49302   8.415   5.983   5.222 -0.0703  0.1730  0.1898
48439W        W49303  16.572  10.650   6.160 -0.1511  0.0773  0.0296
48440W        W49304  24.046  15.164  28.329  0.2337 -0.0972 -0.0136
48441W        W49305   3.957  12.132  19.366 -0.2696  0.2558 -0.1452
48442W        W49306  24.011  17.719  25.990 -0.0691  0.1163 -0.2544
48443W        W49307  13.836   9.536   7.073 -0.4281  0.1578 -0.1629
48444W        W49308   3.636   0.988  14.229  0.5192  0.2379 -0.1246
48445W        W49309  16.900  19.053   1.364  0.0473 -0.0642  0.0675
48446W        W49310  19.597  19.734   7.471 -0.1182 -0.1377 -0.0483
48447W        W49311  25.867  21.567  26.554  0.1110  0.3014  0.0840
48448W        W49312  27.282   3.782   4.405 -0.2227  0.0411  0.0620
48449W        W49313  25.526  25.814  25.061  0.0034 -0.0076 -0.1346
48450W        W49314  22.283  11.104   7.369 -0.0361  0.5130 -0.2356
48451W        W49315   4.863  24.038  20.401  0.0554  0.1890 -0.0853
48452W        W49316  11.774   2.599  16.960  0.3847 -0.0456  0.3618
48453W        W49317  17.742  21.748  22.053 -0.2784  0.2155 -0.2752
48454W        W49318   4.686  17.431   2.209 -0.0431 -0.1351  0.1945
48455W        W49319  27.832  25.474   9.319  0.3190  0.0663 -0.0611
48456W        W49320  24.061   9.898   8.133 -0.2006  0.1996 -0.0989
48457W        W49321   6.095   3.831  26.807  0.0331  0.0885 -0.0887
48458W        W49322   2.656   7.475   5.048 -0.0734 -0.0142 -0.1148
48459W        W49323  13.668   2.786  13.522  0.1410 -0.1919 -0.5819
48460W        W49324   9.912  17.586  21.248 -0.0755 -0.0170 -0.1986
48461W        W49325   6.772  17.150  27.322  0.1024 -0.1768 -0.1224
48462W        W49326   9.694  25.450  16.480 -0.0400 -0.2056  0.2773
48463W        W49327  19.006  26.220  21.924  0.0132 -0.0025  0.2153
48464W        W49328  18.267  10.336  26.228 -0.0380 -0.0102  0.2506
48465W        W49329  28.139  10.733  27.197  0.3025 -0.0150 -0.1565
48466W        W49330  13.815  26.781   5.393  0.0204  0.0703 -0.1307
48467W        W49331  26.750   6.139   4.338 -0.0186  0.2029 -0.0585
48468W        W49332  12.645  24.941  20.493 -0.0117  0.0170  0.0345
48469W        W49333  23.124   6.766   4.140  0.1697  0.0412 -0.1724
48470W        W49334  11.726  23.839  22.817  0.1241  0.1739 -0.0688
48471W        W49335   1.076   4.490  28.583 -0.1803 -0.0806 -0.2113
48472W        W49336  18.817  23.285  20.837  0.0920 -0.1999  0.2266
48473W        W49337   0.972   2.821  12.179  0.2091  0.3093  0.0177
48474W        W49338  23.862   8.685  27.106 -0.1191  0.0231 -0.3445
48475W        W49339   1.709  11.386  19.696  0.0660  0.1009 -0.0198
48476W        W49340   0.321  22.327  24.309 -0.2691 -0.2433 -0.0878
48477W        W49341   8.624   6.739  11.526 -0.0628  0.0085 -0.0833
48478W        W49342  28.242  14.851  28.568  0.1236 -0.0282 -0.0423
48479W        W49343  24.316  25.967  25.116 -0.1841  0.0596 -0.0031
48480W        W49344  15.719  16.610   3.190  0.0416  0.0928  0.0170
48481W        W49345   1.065  24.789   3.660 -0.1771  0.1197 -0.0488
48482W        W49346  28.122  15.606  15.175  0.1721  0.0187  0.0586
48483W        W49347  17.087   1.804   6.852  0.1882  0.0276 -0.0216
48484W        W49348  19.160   7.368  17.233 -0.1251  0.4895  0.3982
48485W        W49349  26.107   5.301   4.185 -0.1233  0.0393 -0.1130
48486W        W49350   4.222   1.239  18.910 -0.0382 -0.2126  0.2473
48487W        W49351   4.483  14.625  22.080 -0.3150  0.0509  0.1897
48488W        W49352  22.604  24.557   4.250 -0.1375  0.1483 -0.0097
48489W        W49353   4.760  24.620  25.183 -0.0323  0.0587  0.0760
48490W        W49354  24.185   9.986  16.803 -0.0450 -0.4648 -0.1037
48491W        W49355   1.097   7.022  27.798 -0.1493  0.1240 -0.0331
48492W        W49356  27.691  11.002  23.229  0.0228 -0.1683 -0.0639
48493W        W49357  17.809  15.544  21.650 -0.1135 -0.0250  0.1040
48494W        W49358  16.530  28.335  22.157  0.3181 -0.1741  0.0027
48495W        W49359  10.215  18.905  19.928  0.0716 -0.4071 -0.2683
48496W        W49360   0.934   2.641  25.719  0.1651  0.0575  0.0056
48497W        W49361  20.820   0.913   2.224  0.0020 -0.1987 -0.3473
48498W        W49362  13.699  16.883  22.477 -0.1311  0.1268 -0.2184
48499W        W49363  17.116   1.726   2.761  0.1864  0.3008 -0.2711
48500W        W49364  19.809  26.354   6.084 -0.1496  0.1683 -0.0586
48501W        W49365   7.137  23.831  27.849 -0.2182 -0.2012 -0.1597
48502W        W49366   2.447   3.352  25.602 -0.1675  0.0825 -0.1165
48503W        W49367  14.225   3.775  10.285 -0.0688 -0.1346 -0.0707
48504W        W49368  11.581  21.318  24.244 -0.2429  0.3016 -0.0116
48505W        W49369  17.820  28.591  19.471 -0.0097 -0.3094  0.2790
48506W        W49370  18.303  13.837  21.111  0.0003  0.1274 -0.1951
48507W        W49371  27.656  26.035  17.338  0.4037 -0.2083 -0.1125
48508W        W49372  22.017  28.619   2.617  0.3162 -0.1036 -0.3405
48509W        W49373   1.726  19.386   3.387  0.1546  0.1181 -0.2273
48510W        W49374   0.772  25.013  27.219 -0.2076 -0.3893  0.0784
48511W        W49375  28.499   2.744   9.650  0.2740  0.1478 -0.2411
48512W        W49376  19.645  26.394  28.652 -0.2078 -0.0227 -0.0874
48513W        W49377  14.909  25.807  20.216  0.0879 -0.0224 -0.2770
48514W        W49378   5.236  20.086  14.641 -0.5032  0.3059 -0.2465
48515W        W49379  17.407   2.094  26.524  0.2596  0.0759  0.2250
48516W        W49380   6.159  25.626   3.881 -0.0188 -0.0262 -0.1337
48517W        W49381  11.613   7.836  15.326  0.1053  0.4207 -0.0135
48518W        W49382  18.417   1.976  25.010  0.3823  0.0971 -0.0069
48519W        W49383  20.374   9.641   9.741 -0.1896 -0.1720  0.2909
48520W        W49384  20.018   4.463  22.383  0.1446 -0.0538  0.0139
48521W        W49385  24.998  24.846  27.707  0.0009  0.0853 -0.2998
48522W        W49386  24.576   2.694   4.972 -0.1575  0.1128 -0.1662
48523W        W49387  10.735  20.273  22.761  0.0856  0.0948 -0.0309
48524W        W49388  28.155  10.381  28.299  0.1211  0.0053 -0.1110
48525W        W49389  25.941   4.550  20.997 -0.5295 -0.3262 -0.2289
48526W        W49390  10.205  22.653  27.709  0.3162  0.1360 -0.0921
48527W        W49391   7.567  28.835  16.386  0.1363  0.0612 -0.1995
48528W        W49392  16.580   1.546  14.774 -0.1964  0.0472 -0.1083
48529W        W49393  28.597  19.340  14.039 -0.0387  0.1098  0.0795
48530W        W49394  11.928  21.832  27.332  0.0167  0.1253 -0.1729
48531W        W49395  12.620  19.268   7.097 -0.0000  0.2011  0.0028
48532W        W49396  14.498  11.175  19.204  0.2576  0.1410 -0.0567
48533W        W49397   1.378   5.749  19.448  0.2291  0.1575  0.3038
48534W        W49398  28.239  11.424   0.147  0.1421 -0.1864  0.3649
48535W        W49399  23.687  23.579  26.224  0.0249  0.2793  0.2730
48536W        W49400   6.847  16.180   0.060 -0.3924 -0.0394  0.1268
48537W        W49401   0.763   7.256  10.101 -0.0210  0.2582 -0.1029
48538W        W49402  26.405  28.667   9.825  0.0474 -0.0695  0.2055
48539W        W49403   0.764   3.488  25.373  0.0064 -0.0935  0.0521
48540W        W49404   8.008  23.107   8.334  0.1042  0.3175 -0.0071
48541W        W49405  22.867  25.051  28.497 -0.3003  0.3565 -0.1359
48542W        W49406   0.909  23.264   8.284 -0.0920 -0.3858 -0.0957
48543W        W49407   4.456  11.287  21.546 -0.0500  0.0089  0.0556
48544W        W49408  25.753   3.417   3.497 -0.1996 -0.0640  0.0083
48545W        W49409   9.142  25.319  15.624  0.2290  0.4581  0.0022
48546W        W49410   0.835  12.330  13.575 -0.3832  0.1706  0.2000
48547W        W49411  24.728  16.576   9.932  0.0157 -0.3200  0.1161
48548W        W49412   2.769  15.283  10.413  0.0626 -0.3299  0.1378
48549W        W49413   6.088  17.950  11.886  0.1047  0.1313  0.2271
48550W        W49414  20.807  26.388   8.397  0.1996 -0.3513 -0.0321
48551W        W49415   5.525  24.992   5.576  0.1788  0.0967 -0.0880
48552W        W49416   9.371   8.616  26.391  0.2703 -0.1367 -0.1196
48553W        W49417  26.386   7.838  10.679  0.2889  0.0676 -0.0379
48554W        W49418  24.120   3.047  19.970  0.2355  0.0984 -0.0342
48555W        W49419   8.022  18.993  19.694  0.1581 -0.1964  0.0140
48556W        W49420  10.864  15.437   2.490 -0.3027 -0.3130  0.2974
48557W        W49421  29.040  22.802  15.668 -0.1171 -0.0955 -0.1959
48558W        W49422   0.157  19.331  12.348 -0.2929  0.1433 -0.0688
48559W        W49423  15.041   2.336  26.359 -0.2783  0.1546 -0.2217
48560W        W49424  15.348  24.845   8.270 -0.0193 -0.0609  0.0241
48561W        W49425  24.933  17.582  27.085  0.0352  0.0901  0.1983
48562W        W49426  15.332  15.380  21.462  0.3985  0.0467 -0.0711
48563W        W49427  19.517  24.336   0.881  0.2485 -0.1002  0.1884
48564W        W49428  28.606  17.887  15.472  0.1353 -0.0515  0.0872
48565W        W49429   6.370  14.307   2.944 -0.2353 -0.0294  0.1177
48566W        W49430   4.592  18.585  22.326 -0.1488 -0.0655 -0.0546
48567W        W49431   4.451   4.945  16.398  0.4375 -0.0771 -0.0374
48568W        W49432  29.135  12.066  23.430  0.1110  0.1950  0.3241
48569W        W49433  27.679  20.604  25.805  0.0757  0.0769  0.2162
48570W        W49434   2.594  26.191   9.409  0.1495  0.1143  0.0540
48571W        W49435  11.067  15.233   2.872  0.0570 -0.0781  0.1263
48572W        W49436   4.704  22.093   1.014 -0.0963 -0.1646  0.1428
48573W        W49437   7.188  24.466   6.082 -0.1145  0.0400 -0.1389
48574W        W49438  19.398  26.622   3.727  0.0105  0.0775  0.1398
48575W        W49439  23.371   5.164  16.032 -0.3354  0.3645 -0.0837
48576W        W49440  16.213  28.671  26.687 -0.4134 -0.2454 -0.0362
48577W        W49441  26.418  22.630   7.991 -0.3489 -0.6457 -0.3759
48578W        W49442   5.708  28.504  13.552  0.1106  0.3789  0.0494
48579W        W49443   4.626  25.811   2.805  0.3007  0.1878  0.1120
48580W        W49444   8.660  26.509  11.807 -0.2069 -0.0103 -0.0413
48581W        W49445   1.127  23.574   2.024  0.1749  0.0612 -0.3378
48582W        W49446  11.814   3.568   0.280  0.1720 -0.1679 -0.3167
48583W        W49447  14.877   5.788   8.442 -0.3235 -0.0060  0.1072
48584W        W49448   6.232  28.388  28.622 -0.0273  0.2575  0.3649
48585W        W49449   6.896   5.709  24.639  0.0762  0.3716 -0.0919
48586W        W49450   9.730   0.758  19.189 -0.2882  0.0735 -0.0903
48587W        W49451  24.810  16.953  12.924  0.3022 -0.1309  0.0605
48588W        W49452   0.599  17.633  25.534 -0.0439  0.1320 -0.0994
48589W        W49453   3.456  25.103  22.563 -0.0567  0.2299 -0.1534
48590W        W49454   6.463  26.724  21.177 -0.0055  0.0576 -0.0132
48591W        W49455  25.384  22.988  18.944  0.0523 -0.0146  0.2022
48592W        W49456  10.367   4.276  21.440 -0.2132  0.0446  0.2767
48593W        W49457  26.405  15.645  13.146 -0.1453 -0.0139  0.0049
48594W        W49458  13.427  19.417   2.818  0.1800  0.0298 -0.2505
48595W        W49459  22.022  25.887   1.914  0.2800 -0.0948 -0.0205
48596W        W49460  16.128  18.866  15.365  0.0740  0.3650 -0.1897
48597W        W49461  10.712   0.248  25.186 -0.0037 -0.1029  0.0175
48598W        W49462  11.699   1.718   4.495 -0.1410  0.0240 -0.1902
48599W        W49463   7.199  10.686  13.186  0.0239 -0.1166  0.3652
48600W        W49464  21.964  26.886   8.712 -0.0923 -0.0456 -0.0500
48601W        W49465   6.868  25.958  15.929  0.3441  0.1147 -0.0618
48602W        W49466  15.579  27.552   0.577  0.0007  0.0513  0.0622
48603W        W49467   0.064  13.566   5.315 -0.0267  0.2055 -0.1064
48604W        W49468  27.505   2.437  18.675 -0.4064  0.0416 -0.2482
48605W        W49469   1.158  22.396  15.199 -0.0805  0.1789  0.3874
48606W        W49470  16.143  24.401   6.782  0.2683 -0.2099  0.1944
48607W        W49471   4.533   4.138  25.134  0.1017 -0.3642  0.2687
48608W        W49472  23.151   4.446   7.310 -0.0525 -0.1175  0.1186
48609W        W49473   3.952  10.877  12.700 -0.1147 -0.1011 -0.2151
48610W        W49474   4.702   5.264   6.303  0.2420 -0.1788  0.0244
48611W        W49475   8.805  23.261  10.488 -0.1480  0.0018 -0.1532
48612W        W49476  21.646   9.601  14.733  0.0121 -0.1718  0.1856
48613W        W49477  25.999  19.627   6.030 -0.0067 -0.1214 -0.2602
48614W        W49478  11.795  27.806   5.347  0.1271 -0.0185  0.2284
48615W        W49479   3.241  25.720   5.479  0.1996  0.1111 -0.0452
48616W        W49480  18.757   9.464   8.925 -0.1640  0.0915 -0.0136
48617W        W49481  12.357   8.664  25.167  0.2194 -0.1692 -0.0959
48618W        W49482   6.049  16.956  20.830  0.1578 -0.1203  0.1232
48619W        W49483  12.983   9.761  19.477 -0.0323  0.1884 -0.1681
48620W        W49484  21.073  23.555  14.276  0.2341 -0.0144 -0.0700
48621W        W49485   1.579   4.607  28.835  0.0970 -0.3041 -0.0605
48622W        W49486  20.299  26.430  27.344 -0.2872 -0.1726 -0.0404
48623W        W49487   0.779   3.234   4.368 -0.0729  0.2426  0.3807
48624W        W49488  15.364  19.746  25.542  0.1306 -0.2916 -0.2614
48625W        W49489  27.572   2.862   9.387 -0.3844 -0.0586  0.0929
48626W        W49490   0.878  14.061   5.757 -0.2532  0.1318  0.0528
48627W        W49491  14.509   4.321  17.741 -0.0551 -0.0146  0.3558
48628W        W49492   5.129  20.387   2.518 -0.0912  0.1500 -0.1123
48629W        W49493   9.382   4.161   4.622  0.2130 -0.0798  0.0452
48630W        W49494  21.224  26.899  18.308  0.0648  0.1570  0.3757
48631W        W49495  21.426  20.965   4.711 -0.1433  0.2972 -0.0967
48632W        W49496  13.374  16.624   7.006 -0.1387 -0.0258  0.2264
48633W        W49497   1.663   2.080   1.199  0.3009  0.2933 -0.2690
48634W        W49498  14.898   6.967  13.132 -0.0121  0.0162 -0.0592
48635W        W49499   2.033   6.249   2.413 -0.0786 -0.0760  0.2911
48636W        W49500  19.256  16.612  16.715 -0.1035  0.0600 -0.3859
48637W        W49501   4.669  20.479   9.110  0.0795 -0.0934 -0.1754
48638W        W49502   7.803  27.058  12.102 -0.3258  0.2577  0.0761
48639W        W49503  22.163  14.864   0.834 -0.5614  0.0735  0.1826
48640W        W49504  14.674  27.558   6.323  0.1776 -0.2493 -0.2147
48641W        W49505   5.037  12.252  27.141 -0.0426 -0.3030  0.3360
48642W        W49506  24.171  20.265  17.054  0.2264  0.3207  0.0493
48643W        W49507  16.026  15.265  16.831 -0.2359 -0.1878 -0.2012
48644W        W49508  27.885  27.857  11.612 -0.1677  0.1544  0.1060
48645W        W49509  17.609   0.539  21.021  0.2661 -0.0096 -0.0719
48646W        W49510   1.107  15.476  22.366  0.0903 -0.3638 -0.1015
48647W        W49511   0.466  17.990  11.281 -0.1204 -0.1994  0.1111
48648W        W49512  25.055  11.470   3.669  0.4201 -0.0890  0.0048
48649W        W49513  26.615  23.974  16.673  0.2711 -0.1154 -0.2302
48650W        W49514  10.125  24.029  10.169  0.1491 -0.1407  0.1030
48651W        W49515   7.489  21.867   3.273 -0.0198 -0.2299 -0.1228
48652W        W49516  24.039  11.595   3.668  0.0017 -0.1586 -0.1870
48653W        W49517   8.867  15.554   5.784  0.1796 -0.0804 -0.0116
48654W        W49518  25.547  11.078  22.811 -0.0574 -0.0017  0.1828
48655W        W49519   5.650  22.282   4.699 -0.0828 -0.0868  0.0020
48656W        W49520  20.550   9.200  22.801 -0.2610  0.1201 -0.0419
48657W        W49521  24.743  28.969  26.566 -0.0676 -0.1133 -0.0044
48658W        W49522   3.990  12.905   2.848  0.4292 -0.0563  0.0114
48659W        W49523  21.281  21.525  16.689 -0.0273  0.0668 -0.1689
48660W        W49524  17.039  21.761  28.834  0.0870 -0.1217  0.0103
48661W        W49525  24.922  20.575   3.436 -0.2066  0.1377  0.0297
48662W        W49526  26.963   4.623  27.413 -0.0877 -0.1121 -0.1022
48663W        W49527  22.458  22.812  13.597  0.2838 -0.1007  0.0302
48664W        W49528  10.114  10.663  16.882 -0.5238 -0.4641 -0.1718
48665W        W49529  22.731  13.075  26.599  0.0781  0.3110 -0.0742
48666W        W49530   0.417   3.608  27.050  0.0618  0.2775 -0.0587
48667W        W49531   5.565   2.771   6.142 -0.0257 -0.1493  0.1801
48668W        W49532  25.879   7.972  14.422 -0.1633 -0.1793 -0.0348
48669W        W49533  18.403   0.889  10.690  0.0102 -0.3089 -0.1359
48670W        W49534   3.054   2.495   4.736 -0.2084 -0.1383  0.2946
48671W        W49535   8.346   3.012  11.103  0.1552  0.0951  0.1082
48672W        W49536   2.186   1.504   8.767  0.0980  0.1087  0.2022
48673W        W49537  12.259   2.150  13.650  0.1452  0.0529 -0.0154
48674W        W49538   4.030  21.305   2.535 -0.0520 -0.0811 -0.0850
48675W        W49539   9.810  13.790  12.136  0.4161  0.2964  0.1963
48676W        W49540  11.027   4.929  17.112 -0.1127  0.0867  0.0690
48677W        W49541   3.985   8.349   7.174 -0.1148 -0.0988 -0.0865
48678W        W49542   2.661  13.681   4.565 -0.1576  0.3354  0.0626
48679W        W49543  25.114  25.474  15.019 -0.1099  0.1612  0.1315
48680W        W49544  22.516  16.221   3.121 -0.6152  0.0510 -0.1934
48681W        W49545   3.353  11.030  24.499  0.2332 -0.2975 -0.0579
48682W        W49546  17.107  27.446  27.420 -0.0107  0.3190 -0.2318
48683W        W49547   5.075  29.004   0.376 -0.3054  0.1037  0.1167
48684W        W49548   0.870  18.993  28.652 -0.1721 -0.1326  0.0200
48685W        W49549   7.030  15.047  21.430  0.0521 -0.0504  0.0744
48686W        W49550  11.335  24.871  17.261 -0.0971  0.4923  0.0427
48687W        W49551  23.866  20.597  14.283 -0.1187  0.1230 -0.0276
48688W        W49552  25.203  21.703  21.064  0.0020  0.0656  0.0580
48689W        W49553  13.356  11.210  22.436 -0.2484 -0.0774  0.0592
48690W        W49554  28.689  17.674   7.855 -0.1885 -0.0745  0.0263
48691W        W49555  16.602  13.881  18.388  0.3007 -0.1199 -0.1402
48692W        W49556  17.203   0.722   2.197 -0.2904  0.4093  0.0153
48693W        W49557  27.849  12.301  10.424  0.0631  0.2062 -0.0254
48694W        W49558   1.818  28.748  13.845 -0.2610 -0.0003  0.0173
48695W        W49559   3.385   0.100  10.978  0.0029  0.2101  0.0440
48696W        W49560  16.256  24.115   1.058 -0.1098 -0.1124  0.0098
48697W        W49561  22.138  12.511  20.284 -0.0375 -0.0559  0.0726
48698W        W49562  10.446   9.367   6.690  0.2999  0.0239 -0.2789
48699W        W49563   2.574  24.434  11.970  0.4434 -0.2983 -0.1371
48700W        W49564  27.303  17.306  16.849  0.1983  0.1676 -0.0879
48701W        W49565   9.678  26.098   8.967  0.5059  0.2660 -0.2952
48702W        W49566   6.445   0.772  20.721  0.0468 -0.0279  0.0449
48703W        W49567  25.100  25.295  16.929 -0.0005  0.2112  0.0609
48704W        W49568   8.189  21.567  17.369 -0.4151 -0.0078 -0.0228
48705W        W49569   6.012  13.160   9.249 -0.2702 -0.0298  0.0313
48706W        W49570  13.837  25.206  11.146  0.0890  0.0795 -0.5746
48707W        W49571   5.366   7.724  12.705  0.0577 -0.2756 -0.1010
48708W        W49572   9.576  15.746  12.247  0.0423 -0.1745  0.2112
48709W        W49573  17.970   5.499  10.797 -0.2478 -0.0809  0.2186
48710W        W49574   1.037  19.502  14.856  0.1767  0.2551  0.0366
48711W        W49575  26.413  28.965   4.607  0.0003  0.2367 -0.2032
48712W        W49576   3.460  26.735  18.618 -0.1138  0.1514 -0.1748
48713W        W49577   8.482   9.762   0.492 -0.3356  0.1056  0.0990
48714W        W49578  11.270  11.306  10.130  0.0931 -0.0452  0.1487
48715W        W49579   3.054  24.268  26.041 -0.0675 -0.0135 -0.0547
48716W        W49580  16.576  29.120   9.681  0.1157 -0.2773 -0.1096
48717W        W49581  20.436  11.478  11.012  0.1320  0.0106  0.0869
48718W        W49582   4.443  29.011   8.658 -0.1774 -0.1391 -0.0143
48719W        W49583   3.037  20.284  12.645 -0.3385  0.0861  0.1360
48720W        W49584   8.084  15.644  19.001 -0.0224  0.1679 -0.3471
48721W        W49585  14.987  27.377  26.242  0.1191 -0.0378  0.0802
48722W        W49586  13.485  24.831   3.316  0.0795 -0.2612  0.0167
48723W        W49587   8.937  23.068   6.386  0.0062  0.3270  0.0293
48724W        W49588   6.053   8.893  28.169  0.0815  0.3168 -0.3069
48725W        W49589  22.335   7.629  16.359 -0.2219  0.1034  0.0331
48726W        W49590   9.340   0.447   2.559 -0.0977 -0.3195 -0.0364
48727W        W49591  13.751   5.173  11.038  0.2357 -0.1205 -0.1455
48728W        W49592  22.806  28.820  14.167  0.1746  0.1139 -0.1396
48729W        W49593  24.936  10.380   6.436 -0.1092  0.1069  0.0001
48730W        W49594   7.241   4.266  13.253  0.5064  0.3018  0.1497
48731W        W49595  13.040  14.564   6.473  0.2368  0.1374 -0.1248
48732W        W49596  13.180  26.362  26.515 -0.0564 -0.1684 -0.2736
48733W        W49597  22.891  16.456  13.478  0.2015  0.1095 -0.1101
48734W        W49598   0.760   1.420  22.095  0.1765  0.2068  0.2191
48735W        W49599   4.857   1.388   0.091  0.1638 -0.0577  0.0654
48736W        W49600  14.994  14.175   2.432 -0.2596 -0.0747  0.0855
48737W        W49601  25.065   9.401   9.125  0.2862 -0.1447 -0.0428
48738W        W49602  24.365  27.179  11.971  0.2037 -0.0515 -0.3093
48739W        W49603   8.158   3.191   0.589 -0.0017  0.1441 -0.0239
48740W        W49604  25.789   9.634  17.472  0.0404  0.1409 -0.1158
48741W        W49605   5.332   1.954   4.844 -0.0853 -0.2816  0.0065
48742W        W49606  13.731  11.184   4.391  0.0410 -0.1349 -0.2265
48743W        W49607  15.520  21.024  11.314 -0.2676  0.0680 -0.1286
48744W        W49608   2.015  11.128   6.922 -0.0944 -0.1943 -0.1216
48745W        W49609  14.698   3.648  26.260 -0.0109 -0.0189  0.2055
48746W        W49610   5.136   0.484  27.733 -0.4710 -0.0889 -0.1047
48747W        W49611  19.821  17.591  25.475  0.0788 -0.0823  0.0127
48748W        W49612   1.934  23.075   2.189  0.0710  0.0900  0.1384
48749W        W49613  20.836  27.291   2.423 -0.0947 -0.1079 -0.0727
48750W        W49614   7.826  28.075   6.399 -0.4135  0.2540  0.2033
48751W        W49615   7.185   3.800  18.471 -0.0057  0.3016  0.0016
48752W        W49616  19.803  13.965   7.836 -0.3888  0.2780  0.0054
48753W        W49617   8.332  14.976  27.776 -0.1181  0.2454 -0.0597
48754W        W49618  27.508  22.440   5.348 -0.2413  0.1875  0.0993
48755W        W49619  14.175  28.618  26.750 -0.0213  0.0332  0.1394
48756W        W49620  17.692  25.099  10.646  0.2196  0.0035  0.0395
48757W        W49621   6.620  13.703   6.166  0.0183 -0.1919  0.1861
48758W        W49622  25.743  21.732   5.377 -0.2574 -0.0208  0.0394
48759W        W49623   7.415  22.136  26.811  0.1221 -0.3496 -0.1067
48760W        W49624  28.986  19.876   0.586 -0.0437  0.0344 -0.2404
48761W        W49625   6.567  22.506  20.140 -0.2443  0.1780  0.0908
48762W        W49626  25.176   6.078  16.470  0.2196  0.1061  0.2302
48763W        W49627  12.653  10.751   0.239  0.0679 -0.1146  0.2105
48764W        W49628  23.748  28.583  18.372 -0.0580  0.3290 -0.0708
48765W        W49629  25.136   4.310  21.006 -0.2517  0.0785  0.0985
48766W        W49630  25.784   0.870  26.721 -0.1758 -0.0069  0.1362
48767W        W49631  13.467  20.014   2.731 -0.0349 -0.3022  0.0690
48768W        W49632   5.066  18.430   4.503 -0.3878  0.0030  0.3124
48769W        W49633   9.485  24.016  28.754  0.1100 -0.1426  0.0815
48770W        W49634  24.382   5.405   9.230 -0.1695 -0.1235  0.0706
48771W        W49635  12.220  25.655   9.574  0.0284  0.4120  0.2371
48772W        W49636  16.220  24.772  16.670  0.1672  0.0137 -0.0267
48773W        W49637  26.251  22.068   2.410  0.2991 -0.2540  0.0384
48774W        W49638   0.735  11.726   9.881  0.2213 -0.1637  0.1605
48775W        W49639  23.421  16.213   6.828 -0.1384 -0.0981  0.2872
48776W        W49640  18.089  15.653  22.943  0.2866 -0.1204  0.1155
48777W        W49641  11.781  18.077   3.558 -0.0677  0.0022 -0.1321
48778W        W49642   5.014  22.047  14.319  0.0810 -0.1799  0.2580
48779W        W49643   0.527  22.679  15.364  0.1327  0.2345  0.1146
48780W        W49644  26.674   1.878  19.755 -0.0416  0.0529  0.0362
48781W        W49645  11.453  15.621   2.907 -0.1379  0.2782  0.3245
48782W        W49646   9.390   2.647   3.795 -0.0973  0.0203  0.1064
48783W        W49647   3.217   2.511  17.941 -0.1719 -0.2553 -0.0295
48784W        W49648  14.577   1.422  15.155  0.0958  0.3547  0.1087
48785W        W49649   8.841  12.927   4.812 -0.0265  0.4036  0.1191
48786W        W49650   0.960   7.918  16.046 -0.5704 -0.0193  0.0869
48787W        W49651   6.169   2.922   7.261 -0.0235  0.2392  0.1850
48788W        W49652   5.978  21.329  18.981 -0.2535  0.0842  0.1834
48789W        W49653  16.344   8.592   3.397  0.0786  0.2043 -0.0550
48790W        W49654  23.062   0.736   7.641  0.0739  0.1927  0.1793
48791W        W49655   2.743   9.497  12.980 -0.1446 -0.0287  0.1768
48792W        W49656  17.936   6.311   9.152 -0.1677  0.0681  0.3042
48793W        W49657   2.190   5.481  15.520  0.0756 -0.0966 -0.1225
48794W        W49658   5.537   4.057  25.498 -0.0383  0.2745 -0.1181
48795W        W49659  23.237   1.639  10.060 -0.0620  0.2642  0.1490
48796W        W49660   3.654   7.829  12.942  0.1942  0.0932  0.1050
48797W        W49661  16.814   7.446   2.002  0.1184  0.0735  0.1401
48798W        W49662   7.696   7.501   5.710 -0.0938 -0.0166  0.1689
48799W        W49663  21.391  25.483   2.829 -0.0560  0.1127  0.0961
48800W        W49664   6.412   1.635  23.290  0.1611  0.2438  0.0029
48801W        W49665  11.963  28.003  12.323 -0.1364  0.2697 -0.3179
48802W        W49666  17.817  13.736  12.144 -0.3037 -0.1495  0.0483
48803W        W49667   6.604  21.271  12.181  0.1704  0.0981  0.1068
48804W        W49668  28.581  23.126   9.867  0.2617 -0.0016 -0.2408
48805W        W49669   0.517   3.916   6.453 -0.0144  0.0500 -0.2100
48806W        W49670  15.066   2.637  12.423  0.2214  0.1587 -0.0947
48807W        W49671  24.523  25.063   6.801 -0.2639 -0.1437 -0.2692
48808W        W49672   2.110  20.283  17.032 -0.0770  0.2477  0.0498
48809W        W49673  12.484  17.387  11.626 -0.1822 -0.3433  0.0545
48810W        W49674  11.184  11.508  15.333 -0.0716 -0.0485  0.1288
48811W        W49675   7.991   0.501   8.854 -0.1076  0.0091 -0.0333
48812W        W49676  24.144  28.348   9.481  0.1729 -0.2423 -0.2054
48813W        W49677  25.104  20.943  24.301  0.0548  0.3667 -0.1533
48814W        W49678  25.935  26.606  11.873  0.2285 -0.1977 -0.0407
48815W        W49679   3.497  12.959  25.157 -0.0101  0.1128 -0.3114
48816W        W49680  13.961  27.045   4.683 -0.0180  0.1265 -0.3743
48817W        W49681  16.826   4.648  29.019  0.3687 -0.0941  0.4096
48818W        W49682  17.344  10.283  16.759 -0.0881 -0.0276  0.0580
48819W        W49683   8.829  12.692   1.592 -0.0268 -0.0185  0.0203
48820W        W49684  15.512  22.929  23.281 -0.1330 -0.4370 -0.0659
48821W        W49685   2.238  28.779   8.534 -0.1104 -0.0667  0.1753
48822W        W49686   9.107  23.191  13.966 -0.3039  0.2596 -0.0267
48823W        W49687   9.603  12.173  28.156  0.0916 -0.1381  0.0259
48824W        W49688  26.944  26.729   7.511 -0.0320 -0.2411 -0.1433
48825W        W49689  19.526   4.249  13.746  0.0219  0.3726 -0.1129
48826W        W49690  13.983   2.486  20.747 -0.1705  0.0561 -0.0794
48827W        W49691  25.266   5.723  16.072 -0.2603 -0.1750  0.2614
48828W        W49692   5.844  22.702   6.071 -0.0333 -0.1395  0.2934
48829W        W49693  17.605   5.760  16.193 -0.0926 -0.3783  0.1981
48830W        W49694   5.818   5.878  18.809 -0.1357 -0.0270  0.1648
48831W        W49695   3.295  13.834   5.873  0.1957  0.0574 -0.3133
48832W        W49696   6.084  28.344   9.856 -0.0246 -0.2380  0.1004
48833W        W49697  24.560   4.656   1.711 -0.2220  0.0227  0.0780
48834W        W49698  26.911  21.816  14.728 -0.1944 -0.0848  0.2193
48835W        W49699  10.867  26.288  12.781  0.0215  0.0331  0.1568
48836W        W49700  27.163   0.783  11.646  0.3579  0.2591  0.0449
48837W        W49701  13.296   8.762   1.084 -0.1365 -0.1435  0.0420
48838W        W49702  21.486  17.048   6.250  0.0063 -0.2035 -0.0697
48839W        W49703  28.059   8.767   3.211 -0.2738 -0.0115  0.1797
48840W        W49704  12.091  18.164   6.771 -0.3931 -0.0284 -0.0316
48841W        W49705  14.295  27.983  17.783 -0.1869  0.0256  0.2177
48842W        W49706  23.290  16.760   6.037  0.1278 -0.2541  0.0290
48843W        W49707   8.477  20.035  22.227 -0.0590 -0.0716  0.1451
48844W        W49708   5.966   4.410   1.249 -0.1025  0.0861  0.1800
48845W        W49709  19.325  15.151  16.857 -0.4181 -0.1808  0.1226
48846W        W49710  26.950   8.582   4.836 -0.0836 -0.0669 -0.1391
48847W        W49711   4.705   4.972  19.750  0.0565 -0.1706  0.2664
48848W        W49712  28.988  12.316  17.819 -0.2659 -0.0370  0.0968
48849W        W49713  24.495  22.686   3.784 -0.0693  0.0622  0.2195
48850W        W49714  12.463  11.296   6.241  0.3287  0.1109 -0.1656
48851W        W49715  10.249  20.200  29.016  0.1290  0.2281 -0.1288
48852W        W49716   6.390  28.670  12.353 -0.0323  0.0433 -0.0206
48853W        W49717  21.810  20.471  27.606  0.1247 -0.0336  0.0270
48854W        W49718  19.742  13.439  20.547  0.0117  0.1165 -0.2234
48855W        W49719  28.498  28.443   7.919  0.0033  0.1827 -0.0547
48856W        W49720  26.870  19.076  11.034  0.0466 -0.1618  0.1766
48857W        W49721  18.497  21.894  26.526  0.2304  0.2198  0.1640
48858W        W49722  10.606   4.254  12.530 -0.4747  0.0844 -0.1853
48859W        W49723   7.871  25.588  28.066 -0.0541 -0.0070  0.1118
48860W        W49724  11.549   6.284  12.196 -0.0114 -0.2721  0.1880
48861W        W49725   7.201   4.724   4.347  0.2347 -0.1173 -0.0352
48862W        W49726  16.036  27.971  20.416 -0.0320 -0.4625 -0.2629
48863W        W49727  26.575  20.757   1.439 -0.0914  0.0097 -0.0912
48864W        W49728  23.814  21.901  28.223  0.4398 -0.2106 -0.1775
48865W        W49729  28.273  25.841  12.818  0.1647  0.1442  0.0840
48866W        W49730  14.965  20.488  18.496 -0.1105 -0.0671 -0.0592
48867W        W49731  23.223   7.354   6.739  0.2850  0.0372 -0.0433
48868W        W49732   5.136   7.877  28.379 -0.1037 -0.0017 -0.0333
48869W        W49733   4.661  22.856  10.250 -0.3477  0.3226 -0.3057
48870W        W49734  19.400  24.796   4.073  0.1411 -0.2594 -0.2627
48871W        W49735  24.885   5.767   6.018  0.0074 -0.0623 -0.1213
48872W        W49736  27.806  14.714  26.243  0.1986 -0.0958 -0.1282
48873W        W49737  26.763  28.669   1.104 -0.1061 -0.0391 -0.1578
48874W        W49738  27.426   0.005  24.481 -0.2530  0.1714  0.2366
48875W        W49739  10.691  23.330  25.788  0.0783 -0.1520 -0.1496
48876W        W49740   0.036  26.936  12.835  0.0478 -0.1622  0.0263
48877W        W49741   7.135  23.308  17.747 -0.0132 -0.0739 -0.2233
48878W        W49742   9.991   5.035   2.179  0.0600 -0.1571 -0.0043
48879W        W49743  14.771  20.665   6.459 -0.2496  0.0884 -0.1688
48880W        W49744   1.108  10.277   9.885 -0.0690 -0.0820 -0.1293
48881W        W49745   7.277  16.487  18.350 -0.0250 -0.0353 -0.0289
48882W        W49746   9.724  25.678   1.249 -0.4764 -0.0222  0.1776
48883W        W49747  22.348  14.375   4.555 -0.1163  0.1522 -0.1134
48884W        W49748   5.636   4.789   8.530 -0.3357 -0.0532 -0.1311
48885W        W49749   7.017  16.877  10.357 -0.1871 -0.0793 -0.2477
48886W        W49750   3.094  24.639   7.591 -0.0787 -0.1467  0.4034
48887W        W49751  27.564   1.989  16.854 -0.0468  0.1368 -0.0387
48888W        W49752  11.153   3.629  11.918  0.0139  0.3124 -0.2038
48889W        W49753   3.148  16.527  12.045  0.2512 -0.2748 -0.0307
48890W        W49754  11.563  25.923  23.240  0.1231 -0.0568 -0.0111
48891W        W49755   3.194   7.292  12.218 -0.2519  0.2561 -0.1107
48892W        W49756  16.744  22.824  26.213 -0.1339 -0.1550  0.0988
48893W        W49757  26.214   0.653   6.830  0.3299 -0.2034  0.2239
48894W        W49758  16.267   6.221   4.900 -0.1692 -0.0801 -0.0348
48895W        W49759   9.029  19.299  25.843 -0.0226 -0.0966 -0.0685
48896W        W49760   4.274  14.103  16.093 -0.0343 -0.1708 -0.3320
48897W        W49761   8.443   0.808  27.422 -0.1890 -0.2235 -0.3257
48898W        W49762  17.820   4.621  19.670 -0.1204 -0.0709 -0.2597
48899W        W49763   1.879  11.957  20.937  0.1939 -0.2476  0.0378
48900W        W49764   0.513  26.536   7.706 -0.1549  0.3372  0.1934
48901W        W49765   6.242  19.330   9.682 -0.2266 -0.2101  0.0088
48902W        W49766  22.742   4.550  19.072 -0.0658  0.0798 -0.0114
48903W        W49767  22.830  19.556  27.625 -0.1403 -0.3471  0.1022
48904W        W49768  11.267  24.016  25.513  0.0512  0.0180  0.0892
48905W        W49769  15.640  27.055  15.578 -0.2628  0.0465 -0.2391
48906W        W49770   8.095  10.004   4.758 -0.0620 -0.3405 -0.3061
48907W        W49771  13.803  19.102  26.598 -0.0575 -0.0643  0.1369
48908W        W49772  28.940   0.389   6.078  0.3205  0.2061  0.1725
48909W        W49773   4.358  26.510   6.702  0.5068  0.1680 -0.0874
48910W        W49774   7.749   4.442  22.259  0.0507  0.2600  0.0756
48911W        W49775   0.131  26.597   0.205 -0.1947  0.1710 -0.1504
48912W        W49776  16.202   0.836  23.056  0.0857 -0.0680 -0.1584
48913W        W49777  10.904  19.256   3.987  0.1621 -0.0827 -0.0760
48914W        W49778  22.389  18.722   3.604  0.2670  0.1367 -0.1133
48915W        W49779  13.067  28.220   4.892  0.1369  0.1090  0.0375
48916W        W49780  24.535  22.638  14.465 -0.0713  0.0886 -0.0789
48917W        W49781   0.530   7.115  26.247 -0.2376  0.0740 -0.0954
48918W        W49782  17.987  25.197  26.855  0.2345 -0.2244 -0.0697
48919W        W49783  25.856   0.708  17.456  0.0170  0.0498  0.0735
48920W        W49784  18.047  25.181  22.115  0.1128  0.0033  0.0664
48921W        W49785  23.654   6.259   7.735 -0.1177  0.0879 -0.3527
48922W        W49786  25.194   6.096   5.265  0.3778 -0.1439 -0.3116
48923W        W49787   4.706   2.881  25.583  0.1028 -0.0992 -0.2301
48924W        W49788   4.082   1.729   6.700  0.0966 -0.1147 -0.1166
48925W        W49789  20.943  19.674  11.449 -0.0346  0.2040  0.0694
48926W        W49790  22.719  21.444  29.004  0.0029 -0.3861 -0.0533
48927W        W49791   1.783   5.733   8.136  0.1142  0.0328  0.1161
48928W        W49792  10.320   6.251  22.413 -0.0029  0.0513 -0.0903
48929W        W49793  27.818   2.798  14.590 -0.2552  0.0663  0.0872
48930W        W49794  20.295  22.956   2.331  0.0396 -0.1733  0.2710
48931W        W49795  12.730   9.740  10.110 -0.0964  0.4799  0.1433
48932W        W49796  14.640   4.962  12.185  0.0569  0.1313 -0.1834
48933W        W49797   1.546  13.662  24.462 -0.1105  0.0025 -0.2144
48934W        W49798   5.446  26.414   2.752 -0.0662 -0.2072  0.1217
48935W        W49799  26.524  19.989   4.831  0.0230 -0.2380  0.0282
48936W        W49800   8.736  14.496   2.134 -0.0343 -0.3290  0.0321
48937W        W49801  27.963  25.521   4.851 -0.3288  0.1089  0.1295
48938W        W49802   0.806  15.262  17.791 -0.1650 -0.2197 -0.2652
48939W        W49803   0.255   0.760  19.319  0.0197 -0.0364  0.1717
48940W        W49804  27.250   2.855   8.141  0.0926 -0.0861 -0.1484
48941W        W49805  11.855  14.154  10.617 -0.1744  0.0053  0.0736
48942W        W49806   6.545  27.982  22.461 -0.2327  0.1709  0.1380
48943W        W49807  27.359  24.047  10.124  0.1303 -0.0142  0.0067
48944W        W49808  28.318  16.838  14.436  0.0708  0.0591 -0.1250
48945W        W49809  27.913  28.058   1.188 -0.2934 -0.2036 -0.2668
48946W        W49810  18.311  26.810  27.957  0.0082  0.0254 -0.0417
48947W        W49811  18.160   5.572   9.724 -0.3438  0.2622  0.1258
48948W        W49812   0.921  23.144  19.805 -0.1081 -0.2482 -0.0483
48949W        W49813  20.521  27.130  26.682 -0.3660  0.0491  0.0134
48950W        W49814   0.850  20.094   7.193  0.0982 -0.0181  0.1177
48951W        W49815   7.263  17.212   5.619 -0.0226  0.3072 -0.0720
48952W        W49816  12.941  20.791  14.356 -0.0018 -0.3506  0.0228
48953W        W49817   3.090  19.226  25.926 -0.3149  0.2193 -0.1047
48954W        W49818   0.699   0.595   7.452  0.1439  0.4079 -0.2308
48955W        W49819  11.233  24.332  27.540  0.1129 -0.0706 -0.1683
48956W        W49820   0.377  15.630   1.070 -0.0413 -0.1170 -0.0679
48957W        W49821   0.979   8.727  28.682 -0.2069  0.1011 -0.0825
48958W        W49822   1.321  13.696   8.474  0.1344 -0.2341 -0.1172
48959W        W49823  15.324  11.631   9.013 -0.1014  0.0522 -0.0152
48960W        W49824  21.310  21.452   4.786  0.0219  0.1032  0.0114
48961W        W49825   7.609   9.419   8.667 -0.1081  0.4323 -0.1123
48962W        W49826   6.387   8.033   5.753 -0.2701  0.0620  0.3474
48963W        W49827  25.568   6.353  20.407 -0.4441  0.1450  0.0439
48964W        W49828  22.186   1.045  26.995  0.2448  0.1411  0.0251
48965W        W49829   1.080  26.103  27.811  0.0349  0.2308 -0.2421
48966W        W49830  28.734  14.225  27.296 -0.2357  0.3687 -0.0974
48967W        W49831  10.650   2.636   4.557 -0.0928  0.1165  0.1099
48968W        W49832   7.434   7.350   6.726  0.1792 -0.0422 -0.0030
48969W        W49833  25.578  16.148  14.600  0.0798 -0.0031  0.3022
48970W        W49834  19.104  20.291  24.495  0.0922  0.1737  0.1681
48971W        W49835   2.749   7.356  25.734 -0.0625 -0.3596  0.1496
48972W        W49836   7.037  17.747   6.720  0.0599  0.0772  0.1495
48973W        W49837  14.593  24.325  24.788  0.4449 -0.1837  0.0831
48974W        W49838  21.961  12.322  17.481  0.1371  0.1161 -0.3102
48975W        W49839  20.465  16.730  28.444 -0.0550  0.1781  0.3102
48976W        W49840   1.420   1.363   7.475  0.0304 -0.3231  0.0591
48977W        W49841  23.381  22.872   1.956 -0.1866 -0.2210 -0.1908
48978W        W49842   2.105   9.209  25.967 -0.1813  0.0392 -0.3006
48979W        W49843  14.043  24.853   5.699  0.0943  0.1809 -0.2222
48980W        W49844  20.214  26.322   5.801  0.1442 -0.0080 -0.5101
48981W        W49845   3.123  14.731  10.954  0.2831 -0.3364  0.1048
48982W        W49846   4.268  28.668  15.449  0.3262 -0.2107 -0.1808
48983W        W49847   9.834   0.827  12.801  0.1471  0.0405 -0.2135
48984W        W49848  13.471  12.270   1.859 -0.4283  0.4322 -0.0698
48985W        W49849  24.597  27.359  19.825  0.0976  0.1007 -0.1329
48986W        W49850   4.083  14.853   7.794  0.0144  0.3102  0.1200
48987W        W49851  17.505  24.599   1.650  0.1812  0.0851 -0.0740
48988W        W49852  17.297  21.423  24.064  0.1339 -0.2641 -0.3259
48989W        W49853  13.779   5.943  18.773 -0.0017 -0.0723 -0.2089
48990W        W49854   9.300  21.658  18.054  0.2930  0.1703 -0.3084
48991W        W49855  22.368   5.746   7.879  0.1784 -0.1034 -0.1747
48992W        W49856  23.232  20.585  12.939  0.1251 -0.2541  0.3375
48993W        W49857  21.561  19.023  15.750  0.3703 -0.0241 -0.0210
48994W        W49858   9.210   9.717  23.284  0.0640  0.0567  0.3201
48995W        W49859  11.128  27.671  19.170  0.2682 -0.1019 -0.2452
48996W        W49860  21.521  26.239  20.744 -0.0566 -0.0647 -0.0323
48997W        W49861   8.831  14.485   3.022 -0.0926  0.3939  0.2308
48998W        W49862  11.722  18.945   8.261  0.0507 -0.0164  0.3169
48999W        W49863   4.162  23.065   9.851  0.0528  0.1139  0.0249
49000W        W49864  17.685  25.353  13.700 -0.2435  0.0802  0.3518
49001W        W49865   5.056   4.385   0.811 -0.2248  0.1031  0.0906
49002W        W49866   0.219  17.931  18.150  0.0744 -0.0698  0.2243
49003W        W49867  13.251  14.017   3.445 -0.2653 -0.1452 -0.2006
49004W        W49868  17.994  27.483   6.144 -0.2644 -0.2320 -0.0293
49005W        W49869   7.672   6.156  12.104  0.1889  0.0095  0.0336
49006W        W49870   4.432   4.325   1.688 -0.0144 -0.0207 -0.1001
49007W        W49871  20.667   0.264  27.599 -0.0502 -0.3008  0.2669
49008W        W49872   7.828   5.017  15.185 -0.1057 -0.2523 -0.1486
49009W        W49873  14.663  19.891   6.977  0.0883 -0.1525  0.1629
49010W        W49874   1.752  13.670   8.979  0.3444  0.1113  0.0362
49011W        W49875   5.599  12.790  28.874  0.0579  0.4011  0.4565
49012W        W49876  23.916  25.702   3.493  0.2290 -0.0092  0.3832
49013W        W49877  10.215  21.339   7.267 -0.0172  0.0157 -0.0050
49014W        W49878   1.114  19.462  18.057 -0.3062  0.1584  0.2673
49015W        W49879   1.249   5.091  13.461  0.2388 -0.1121  0.0519
49016W        W49880  24.145   9.337   2.059 -0.0499  0.1492  0.0850
49017W        W49881   7.728   3.414  21.804 -0.2053 -0.1623 -0.3798
49018W        W49882   0.116  28.625  11.321 -0.2645  0.3351 -0.1176
49019W        W49883   6.145  28.462   6.231  0.3138  0.3412  0.2594
49020W        W49884  25.050  16.266   8.816  0.3988 -0.1207  0.1010
49021W        W49885   6.156   5.789   7.369  0.4246 -0.0839  0.0675
49022W        W49886   8.024  18.819   9.350  0.0896 -0.6123 -0.0394
49023W        W49887  17.535  26.361  11.869 -0.2193 -0.1497 -0.3570
49024W        W49888  24.839   6.794   2.774  0.2469  0.0422 -0.1018
49025W        W49889   3.111  14.120  14.893  0.0790  0.2294  0.0769
49026W        W49890   1.169  15.963   4.915 -0.0208  0.1382  0.2505
49027W        W49891   2.768   0.917  19.234  0.1426 -0.2427 -0.0736
49028W        W49892  12.802   3.050   1.040 -0.0539  0.0442  0.1117
49029W        W49893  26.548  17.541   5.759  0.1261 -0.0781 -0.0039
49030W        W49894   3.354   2.244  11.276 -0.2853  0.0474  0.1345
49031W        W49895  12.236  10.499  24.089  0.1791 -0.3843  0.4796
49032W        W49896  22.718  20.883  21.583  0.2376 -0.0698  0.0972
49033W        W49897  17.471  14.729  15.118 -0.0505  0.2443 -0.2445
49034W        W49898   9.073  15.727   2.900 -0.1288 -0.0586  0.1617
49035W        W49899  22.064  20.867  23.071 -0.4242  0.0616  0.2794
49036W        W49900   5.433  22.990   6.102 -0.0569  0.1298 -0.1451
49037W        W49901   7.087  10.127   1.022  0.1354  0.1987 -0.1269
49038W        W49902  25.936   3.100  19.280 -0.5645  0.0144  0.4660
49039W        W49903  24.925  24.181  28.275  0.0852  0.0562 -0.1132
49040W        W49904  11.174  14.051   0.145 -0.3456  0.0359  0.3256
49041W        W49905  15.888  27.413  16.458  0.1548 -0.2288 -0.0120
49042W        W49906  11.513   3.038  28.036  0.0356 -0.0874 -0.0615
49043W        W49907   1.424  15.351   0.791  0.1011  0.0363 -0.0613
49044W        W49908   7.541   4.041   7.413  0.0795 -0.0970  0.1116
49045W        W49909  10.991  14.074  13.898 -0.2011 -0.0549 -0.0503
49046W        W49910  27.337  17.438   5.099  0.0704  0.0737 -0.0148
49047W        W49911  11.373   2.579  26.092  0.0662  0.0610  0.0546
49048W        W49912  22.777  26.115  24.472  0.1190  0.2088 -0.2551
49049W        W49913  12.547   7.139  19.435  0.0964 -0.1745  0.0569
49050W        W49914  16.884  21.087  18.077  0.1474  0.0947 -0.1611
49051W        W49915   5.698  23.128   9.792 -0.0071 -0.1103 -0.1685
49052W        W49916   1.545  26.182   2.989 -0.3093  0.1195  0.1016
49053W        W49917   9.252   4.567   6.523  0.0218 -0.0211 -0.0436
49054W        W49918   7.589  14.400   3.232 -0.0241  0.1477 -0.0437
49055W        W49919   7.830  22.740   7.521  0.0717  0.0911 -0.3262
49056W        W49920   0.968  27.742   4.397  0.1083  0.3093 -0.0658
49057W        W49921  21.999   8.075   1.435 -0.0886  0.1587 -0.1809
49058W        W49922   8.424   9.329   6.579  0.1206 -0.0292  0.1881
49059W        W49923  23.738  26.566  22.712 -0.0992  0.0064 -0.0885
49060W        W49924  10.935  16.767  18.000 -0.3044  0.3377  0.0539
49061W        W49925  18.146   5.019  17.285 -0.0149 -0.0741  0.0854
49062W        W49926  28.561   3.426   3.188  0.3431 -0.2840 -0.1720
49063W        W49927  11.455  26.107   7.760 -0.1583  0.3183 -0.1088
49064W        W49928   0.860  24.852   2.382  0.3448 -0.1753 -0.0092
49065W        W49929  21.161   6.183  21.297 -0.0196  0.3344 -0.4126
49066W        W49930  25.981   7.167   8.571 -0.3130  0.2888 -0.0902
49067W        W49931  27.576  23.720  12.301 -0.0761 -0.0540 -0.0020
49068W        W49932   9.434   2.413  17.587 -0.0088 -0.0900  0.1684
49069W        W49933   5.705   2.277   3.779 -0.1088  0.0741  0.0403
49070W        W49934  19.390  27.667  18.821 -0.1272  0.0444 -0.3341
49071W        W49935   1.932   8.930  17.027 -0.0035  0.2271 -0.1357
49072W        W49936  20.774  12.835   8.685 -0.2480 -0.1038 -0.0381
49073W        W49937   9.165   3.460  15.159 -0.1745  0.0375 -0.0847
49074W        W49938   8.555   0.040   6.205  0.0741 -0.0236 -0.1422
49075W        W49939   3.975   2.770   6.543  0.1836 -0.3099  0.0858
49076W        W49940  14.383   7.854  24.532  0.0643  0.1001  0.2305
49077W        W49941   1.767  20.913   1.527  0.0775  0.1147  0.2154
49078W        W49942   0.927  25.488  18.615  0.0388  0.1068 -0.0328
49079W        W49943  21.564   2.460   2.683  0.0449  0.2157  0.0781
49080W        W49944  13.617   4.687  14.331  0.1435 -0.1758  0.1851
49081W        W49945   9.272  15.500  17.595 -0.1596 -0.1614  0.1963
49082W        W49946   5.408   0.251  23.740 -0.0667  0.1345 -0.0812
49083W        W49947   9.032  17.507  27.024 -0.3268  0.0398 -0.0841
49084W        W49948  17.987  16.004  24.207 -0.1790  0.1457 -0.1188
49085W        W49949  19.838  24.482  16.809 -0.1353 -0.1546  0.0287
49086W        W49950   2.555   3.029   9.786 -0.0349  0.0260  0.1495
49087W        W49951  15.195  20.092  25.022 -0.1449 -0.0903  0.1543
49088W        W49952  10.534  26.149   1.340  0.2750 -0.0357 -0.1334
49089W        W49953   7.543  11.098  21.785  0.0645  0.2455  0.0628
49090W        W49954   6.790  19.698  26.695 -0.0344  0.2786  0.0785
49091W        W49955   8.807  25.293   4.857  0.1545 -0.1608 -0.1437
49092W        W49956  20.531   9.114  12.931  0.0587  0.2811  0.0377
49093W        W49957   9.796   0.178  17.854  0.2225 -0.1567 -0.2656
49094W        W49958  26.336  15.223  15.278 -0.0976 -0.1226 -0.2258
49095W        W49959  14.682  18.921   1.832  0.1657 -0.1078 -0.1639
49096W        W49960  14.795  28.194   5.670 -0.1892 -0.3232  0.0098
49097W        W49961   0.871   8.244  15.019  0.0362 -0.1793 -0.0605
49098W        W49962  16.016  24.863   8.049  0.4835 -0.2017 -0.1941
49099W        W49963   5.863  18.756  11.552 -0.4385  0.0901  0.2076
49100W        W49964   2.365  28.329   9.116 -0.1651  0.1704  0.4224
49101W        W49965  10.038  21.333   0.290 -0.0252  0.3305  0.0810
49102W        W49966  26.384   1.849  19.376 -0.0196  0.1237 -0.2077
49103W        W49967   4.361  13.045  18.368  0.1281  0.0839 -0.0333
49104W        W49968  25.447  27.231  15.389  0.5045 -0.0620 -0.0348
49105W        W49969  25.730  26.871  14.139  0.2067 -0.0016  0.0696
49106W        W49970  11.315  20.520  20.039  0.0346 -0.1967  0.1590
49107W        W49971   3.575   5.797  21.410 -0.0602  0.0355  0.1145
49108W        W49972  19.909   2.762  19.980 -0.0927  0.1900  0.0636
49109W        W49973  21.599   2.083  27.744  0.1453  0.0194  0.0692
49110W        W49974  15.247   0.491   9.601 -0.0712 -0.0490  0.0667
49111W        W49975  14.669  24.904  27.940 -0.3536  0.0133 -0.0673
49112W        W49976  11.940  11.072  25.648 -0.1310  0.0301 -0.2256
49113W        W49977  22.030   8.548   6.113 -0.0408  0.0284  0.2591
49114W        W49978  24.304  25.899  14.317 -0.1181 -0.2899 -0.1278
49115W        W49979  21.224   8.987   4.091 -0.0351  0.0679  0.2011
49116W        W49980   9.775   1.932  25.101  0.1932 -0.2169 -0.0575
49117W        W49981   0.634   3.112   5.729 -0.0663 -0.1997 -0.3268
49118W        W49982  28.311  11.030   9.702 -0.0797 -0.0672 -0.1351
49119W        W49983  19.458  10.069   9.901  0.0994  0.0238  0.0378
49120W        W49984   8.408   5.586   3.777  0.2402 -0.2341  0.2716
49121W        W49985  20.251  25.650   3.009 -0.0151 -0.1550  0.2965
49122W        W49986   3.991  23.120   5.853 -0.1696 -0.0295  0.0058
49123W        W49987   2.568  28.476  17.644  0.1688 -0.0992 -0.0261
49124W        W49988   1.121  12.914  10.134  0.0428 -0.0796 -0.2713
49125W        W49989  21.435  11.543  18.228  0.0103  0.1080 -0.2990
49126W        W49990  12.934  27.906  15.785  0.3544  0.1594 -0.1006
49127W        W49991   7.011   7.950  28.228 -0.0403 -0.1721 -0.2063
49128W        W49992   7.158  20.259   9.439  0.0491  0.0149  0.0545
49129W        W49993  17.720   4.170  17.950  0.2183 -0.1652  0.1811
49130W        W49994   0.564  18.807   4.030 -0.0183  0.2351 -0.0447
49131W        W49995   5.678  13.044  18.983 -0.4128 -0.2101  0.2211
49132W        W49996  28.608   1.397  11.217 -0.2426  0.0125  0.5302
49133W        W49997  20.374  16.939  14.187  0.1382 -0.0705 -0.0773
49134W        W49998  14.615  17.682   2.095  0.2412  0.2662  0.2034
49135W        W49999  22.916   4.657   7.673  0.3192  0.0757 -0.0343
49136W        W50000  16.150   3.175  11.084  0.0719 -0.0706  0.3681
49137W        W50001   5.250   0.978  16.638  0.0411  0.3316 -0.1812
49138W        W50002  14.541   4.572  15.577  0.1137 -0.2156  0.5172
49139W        W50003  18.532   1.329   6.264  0.0162 -0.0684 -0.2567
49140W        W50004   6.777   3.968  23.592 -0.0233  0.3170  0.0080
49141W        W50005   5.442   7.773  23.998 -0.1050  0.0794 -0.2688
49142W        W50006   8.471  16.938  21.893  0.0475  0.0314 -0.3549
49143W        W50007   8.077  28.975   2.995 -0.3412  0.2441 -0.0171
49144W        W50008   6.575  18.855   4.134  0.0301  0.0666 -0.3073
49145W        W50009   9.254  27.708  21.493 -0.0709  0.1406  0.3507
49146W        W50010  26.252  20.276  20.583  0.1417  0.3815  0.0461
49147W        W50011  21.020  21.238  28.023  0.1720  0.0702  0.0641
49148W        W50012  20.810  22.208  10.626  0.1078 -0.1551 -0.2620
49149W        W50013   8.472   6.216   3.151 -0.2440 -0.0343 -0.1340
49150W        W50014  10.670  14.566  10.592 -0.1391  0.2724  0.0451
49151W        W50015  13.666  27.710  13.539 -0.1934  0.0522  0.1207
49152W        W50016  21.449   9.218  21.387 -0.0419 -0.1857 -0.1609
49153W        W50017  19.876  24.086   7.890 -0.1694 -0.2222 -0.0188
49154W        W50018  26.867  22.893  10.130  0.0355 -0.0605  0.1604
49155W        W50019  17.304  26.223   3.006  0.2020  0.0207  0.1277
49156W        W50020   1.184  23.479   5.932 -0.0634  0.4550 -0.1348
49157W        W50021   6.721   2.034  11.901  0.2737 -0.0531  0.2480
49158W        W50022  19.453  23.212  27.918 -0.1534 -0.2395 -0.0496
49159W        W50023  27.669   5.475  16.139 -0.2035 -0.0041  0.0079
49160W        W50024   5.182   6.851  15.955 -0.1812  0.1792  0.2207
49161W        W50025  19.824  15.034  11.730  0.2109 -0.0157 -0.0936
49162W        W50026  14.097   5.071  23.249 -0.0858 -0.1359  0.1875
49163W        W50027   3.165   3.090  20.002 -0.2941  0.2783  0.0274
49164W        W50028  12.320  13.332  15.193  0.1176  0.1415  0.0153
49165W        W50029  26.427  26.815  14.131  0.0269 -0.1059 -0.1262
49166W        W50030  10.264   1.277   8.596 -0.2249 -0.1160  0.0203
49167W        W50031   7.135  23.804   2.561 -0.0443  0.0385 -0.0984
49168W        W50032  15.569   8.410   3.291 -0.2631 -0.1832  0.1512
49169W        W50033  18.149  26.180   6.252  0.1143 -0.0129  0.0506
49170W        W50034  22.816  20.550  22.702  0.1962  0.0152 -0.0015
49171W        W50035  10.503  27.248  20.125 -0.3460 -0.2942 -0.2420
49172W        W50036   3.007  22.638  14.060  0.1438  0.4156  0.4244
49173W        W50037   2.539  13.166   5.692 -0.0292 -0.5946 -0.0661
49174W        W50038  26.985   3.831   9.778  0.2584  0.1643  0.0363
49175W        W50039   5.849  28.037   5.308 -0.2576  0.3434 -0.0769
49176W        W50040  28.846   0.281  23.619  0.0718  0.0716 -0.0501
49177W        W50041  26.204  20.707  22.403  0.0370 -0.1601  0.0664
49178W        W50042  23.981  28.980  26.523 -0.0437 -0.0725  0.1984
49179W        W50043  28.875   2.395   5.260 -0.0967 -0.0011 -0.0899
49180W        W50044  25.361   2.006  13.068  0.1179  0.0459 -0.0093
49181W        W50045   1.867   1.095   3.546 -0.0758  0.0591  0.0938
49182W        W50046  14.242  25.410  18.140 -0.0678 -0.0503 -0.1529
49183W        W50047   6.745  18.123   8.916 -0.2526  0.2616 -0.2578
49184W        W50048  24.712  22.917  22.070 -0.2882 -0.1527  0.4613
49185W        W50049   1.525  26.517  13.884 -0.2572  0.2132 -0.0444
49186W        W50050   0.825  22.035   1.028 -0.1022  0.3630  0.1889
49187W        W50051  29.033  22.391   8.977  0.0376  0.0626 -0.0357
49188W        W50052   0.794  13.631  10.192 -0.1123 -0.2400 -0.0314
49189W        W50053  12.395  23.287  27.564 -0.2149  0.3594  0.2547
49190W        W50054  10.661  24.538  17.012 -0.2557  0.2031 -0.1104
49191W        W50055  18.396   4.962   5.576  0.1806  0.0335 -0.0468
49192W        W50056  21.765   0.118  10.256  0.1742  0.1734  0.0763
49193W        W50057  25.998  26.581   2.439 -0.1262 -0.2013 -0.2384
49194W        W50058  11.403   0.842  13.145 -0.0656  0.1131  0.0088
49195W        W50059  14.004  15.785   9.518  0.1461  0.1267  0.0497
49196W        W50060   8.089  16.529  20.568  0.0077 -0.2695  0.1278
49197W        W50061  23.784   3.189   5.315 -0.0306  0.2724 -0.2102
49198W        W50062  14.130  22.296   8.503 -0.1276 -0.0663 -0.0727
49199W        W50063   5.830  15.109   5.960  0.0149 -0.0325  0.0140
49200W        W50064   5.568   8.568  12.927 -0.1120 -0.2243  0.1306
49201W        W50065  14.377   9.429   7.951 -0.1486  0.1583  0.2406
49202W        W50066  27.382  27.160  18.813 -0.1251 -0.1579  0.2256
49203W        W50067  11.132   1.421  12.550  0.0423  0.0147  0.0695
49204W        W50068  28.616  13.312  13.399  0.1630  0.1856 -0.0224
49205W        W50069  27.439  27.923  21.474  0.0408 -0.3169  0.0643
49206W        W50070   0.351  18.628   6.950  0.0560 -0.2028  0.4042
49207W        W50071  15.578   7.357   1.568  0.0613 -0.3057  0.1207
49208W        W50072   8.122   1.411   9.641  0.0966  0.0204 -0.2111
49209W        W50073   2.119   2.393   6.735 -0.1159 -0.1021  0.2624
49210W        W50074  23.257  10.479  22.351  0.0202  0.0604 -0.2121
49211W        W50075  11.551  27.473  17.290 -0.3582  0.0006  0.1156
49212W        W50076   5.073  12.241  23.383 -0.0389  0.2465 -0.0233
49213W        W50077  13.588   8.066   6.654 -0.0589  0.0281 -0.1103
49214W        W50078  19.997  25.841  19.436 -0.2779 -0.3892  0.0189
49215W        W50079  16.731   9.461   7.295 -0.0465 -0.0782 -0.4468
49216W        W50080   6.536  18.141   5.392  0.0446  0.0474 -0.0394
49217W        W50081  23.050  21.342  15.846  0.0797 -0.3167 -0.0043
49218W        W50082  17.025   8.151   5.413 -0.5230  0.0111  0.0530
49219W        W50083   4.203   5.394   5.646  0.1278  0.0963 -0.0175
49220W        W50084   7.662  19.022  28.175  0.1576  0.0451 -0.1592
49221W        W50085  15.121   8.871  28.847  0.2970  0.0724  0.2166
49222W        W50086  10.838  24.461  11.876 -0.0389  0.0940  0.1056
49223W        W50087   1.154  13.005  20.533  0.1850  0.0936 -0.1760
49224W        W50088  23.981  21.496  10.482  0.1144 -0.1394 -0.3482
49225W        W50089   0.863  24.877   2.869  0.1220 -0.0192  0.1188
49226W        W50090   4.906  20.791  18.779 -0.0845  0.2013  0.3095
49227W        W50091   2.349  13.976  21.289  0.0702 -0.0384 -0.2519
49228W        W50092   6.390   5.662  12.079 -0.1635  0.1273  0.0413
49229W        W50093  27.920  24.785   9.908 -0.0596 -0.3279 -0.1118
49230W        W50094  13.430  27.025  20.208 -0.0359  0.2336 -0.0013
49231W        W50095  28.151  20.912   1.085  0.0092 -0.0441  0.0980
49232W        W50096   7.114  23.497  16.215  0.0103  0.1102 -0.3664
49233W        W50097   2.184  19.209  11.557  0.0766 -0.1493  0.0917
49234W        W50098  13.587  19.013  23.015  0.1198  0.3392 -0.1074
49235W        W50099  12.133  17.528  26.991 -0.1561  0.1275  0.0991
49236W        W50100  27.872   6.955  16.356 -0.0509  0.1944 -0.1403
49237W        W50101  10.836   0.515   2.657  0.0305 -0.0047  0.0423
49238W        W50102  12.471  16.104  13.474 -0.0762  0.2444  0.2452
49239W        W50103  22.294  19.870  16.875  0.4896 -0.0076 -0.1417
49240W        W50104  19.847  27.969   1.384 -0.0661  0.1610 -0.0171
49241W        W50105   2.156   3.043  22.735  0.1615 -0.2519  0.0104
49242W        W50106  11.612  22.673  28.135  0.1677 -0.0893 -0.1324
49243W        W50107  17.274   4.844  13.199  0.1886 -0.0620 -0.0749
49244W        W50108   0.166  19.436  11.701  0.1224  0.1093  0.0142
49245W        W50109   8.141   9.384   3.590  0.2357  0.1275  0.4469
49246W        W50110  14.804   4.750  24.027 -0.2484  0.2215 -0.0958
49247W        W50111   5.859  20.005  18.864  0.1103 -0.2153 -0.1136
49248W        W50112   8.109   4.084  11.287 -0.1506  0.1872  0.0237
49249W        W50113  10.232  19.544   4.604 -0.1946  0.0938 -0.0630
49250W        W50114  28.690  28.884  14.507  0.3534  0.4374 -0.1040
49251W        W50115   4.340  17.043   5.228 -0.1251 -0.1519 -0.0326
49252W        W50116  18.495  10.632  18.215  0.0693  0.1560 -0.3468
49253W        W50117  26.050  23.055  12.921  0.2682 -0.0224  0.0473
49254W        W50118  24.674  24.165  16.155  0.0407 -0.3759  0.0361
49255W        W50119  27.264   4.455   9.070 -0.0203  0.0153 -0.2426
49256W        W50120  15.896  17.934  13.820  0.1249  0.1363 -0.2233
49257W        W50121   7.022  22.384  12.920 -0.2371  0.0308 -0.0799
49258W        W50122   8.506   8.050  14.667  0.3067 -0.0049  0.1649
49259W        W50123  28.780  28.498  21.821  0.0635  0.0920 -0.0037
49260W        W50124   3.700  24.091   3.766 -0.2246  0.3478 -0.2797
49261W        W50125  16.811  25.215  20.486  0.2582  0.1625 -0.1777
49262W        W50126   3.270  25.628  16.740  0.0335  0.0025  0.2760
49263W        W50127  28.542  12.152  14.294 -0.3882 -0.3302 -0.0356
49264W        W50128  19.329  21.119  25.566 -0.0226  0.0301 -0.0232
49265W        W50129   5.637  26.151   3.134 -0.0186 -0.2325  0.2226
49266W        W50130  25.462   1.526  17.859 -0.0327  0.0709  0.2215
49267W        W50131  26.359  11.149  22.282  0.0270 -0.2260  0.2600
49268W        W50132  26.997   9.613  18.476  0.0307  0.1430 -0.1480
49269W        W50133  18.265  25.433  24.997  0.0434  0.3239  0.3646
49270W        W50134   0.075  28.437  10.217  0.1281  0.1952 -0.4061
49271W        W50135  10.193  20.217  27.143 -0.1311  0.1216 -0.0009
49272W        W50136   1.033   1.961  16.717  0.0533  0.3233  0.0581
49273W        W50137  16.456  18.536  21.190 -0.0014 -0.0345  0.2069
49274W        W50138  14.813  14.627   8.284 -0.1535 -0.1228 -0.0334
49275W        W50139   3.635   9.501  13.326  0.1563  0.2317 -0.0978
49276W        W50140   2.615  10.759  10.975  0.3578  0.1076  0.1280
49277W        W50141  23.800   6.229  26.025 -0.0547  0.0776  0.3241
49278W        W50142   7.404   8.877  28.997  0.0229  0.0555  0.2779
49279W        W50143  27.265  16.993  15.473 -0.0107  0.3179  0.1887
49280W        W50144  23.124   6.406   7.835 -0.0014 -0.0117  0.0615
49281W        W50145   5.836   6.896   1.519  0.1073 -0.3288  0.3769
49282W        W50146   5.261  15.913   2.889  0.0120 -0.0190  0.0630
49283W        W50147  25.510   6.300  11.680 -0.0438  0.1576  0.2300
49284W        W50148   6.263   0.431  23.250 -0.2742  0.1193  0.0409
49285W        W50149  20.064   6.978  16.427 -0.1233  0.0628  0.3501
49286W        W50150   5.195  24.572  27.059  0.1635 -0.0184 -0.0446
49287W        W50151   2.916   4.296  14.067  0.0474  0.0380  0.0454
49288W        W50152  17.505  10.267  18.488  0.1339  0.1821  0.2221
49289W        W50153   5.647  20.601   4.588 -0.1883 -0.2977  0.2995
49290W        W50154  15.808   5.052  11.033  0.0452  0.0487  0.0145
49291W        W50155  14.206  24.897  15.886  0.1318 -0.2721  0.1361
49292W        W50156  16.948  20.684  21.490 -0.1032 -0.0374  0.0730
49293W        W50157   4.592  13.915   3.936  0.3402 -0.1157 -0.0627
49294W        W50158   5.042  24.811  16.396 -0.0415  0.0545 -0.1691
49295W        W50159  20.826   2.167   6.187  0.1380  0.2605  0.1121
49296W        W50160  14.611  22.132  28.227 -0.2973 -0.1139  0.0077
49297W        W50161   3.728   0.632   2.892  0.3007  0.0182 -0.2720
49298W        W50162  11.388  17.143   4.166 -0.1872  0.1210  0.0242
49299W        W50163   9.179  11.303  15.355  0.3558  0.1093  0.3198
49300W        W50164  14.255  17.835  21.078 -0.0569  0.0707 -0.1113
49301W        W50165  25.097  26.720   8.207 -0.2483  0.0115  0.2748
49302W        W50166  28.848   0.059  13.900  0.0340 -0.3361  0.1231
49303W        W50167  27.489  28.303   5.888 -0.1926 -0.0228  0.1442
49304W        W50168   7.512  27.987   7.871 -0.0218  0.1560 -0.1774
49305W        W50169  29.095  27.197  21.677 -0.1564  0.1699  0.1505
49306W        W50170   5.151   0.864  16.142  0.1080  0.3684 -0.0194
49307W        W50171  10.297  19.795  20.039  0.0150 -0.0155  0.0038
49308W        W50172  20.925  19.020  14.723  0.1079 -0.2721 -0.0442
49309W        W50173   0.382  11.116  12.978 -0.3364 -0.1820 -0.3273
49310W        W50174   1.218   3.044   3.144  0.0698 -0.0171 -0.4483
49311W        W50175  18.612  21.430  25.635 -0.0199  0.2222  0.2550
49312W        W50176  14.208  21.812  10.520  0.1293  0.1997  0.0952
49313W        W50177   7.569  18.009  11.704  0.1700  0.2288  0.1580
49314W        W50178   9.642  27.790   9.681  0.1330 -0.0134  0.0905
49315W        W50179   0.887   2.590  15.614 -0.0541 -0.4388  0.2179
49316W        W50180  14.533   7.113  25.047  0.0698 -0.2052  0.3048
49317W        W50181  19.833  28.527  14.155 -0.1857  0.2382  0.2440
49318W        W50182  10.450  28.742  20.906  0.0629 -0.1940 -0.0043
49319W        W50183  14.327  26.595  23.250  0.0501 -0.0523  0.3305
49320W        W50184   7.263  26.175  16.177 -0.2334  0.0976  0.0738
49321W        W50185  26.120  18.159   9.343 -0.1951  0.0874  0.0009
49322W        W50186   0.038   5.893   0.286  0.1831 -0.0009 -0.1333
49323W        W50187   7.495  26.387   2.868  0.0845 -0.1138 -0.0991
49324W        W50188  14.189  27.396  21.036  0.3167  0.2150 -0.1310
49325W        W50189   0.955  27.778  15.752  0.1166 -0.0174 -0.0441
49326W        W50190   7.802  10.139   9.141 -0.0941 -0.0911  0.3104
49327W        W50191   5.915  18.559  19.616 -0.2613  0.1912  0.0043
49328W        W50192  25.416   6.157   4.486 -0.0017  0.1210 -0.0455
49329W        W50193  27.047  14.654  23.859 -0.2271 -0.0536 -0.0805
49330W        W50194   9.401   0.486  17.706  0.0304  0.1678  0.0068
49331W        W50195   8.805   4.704   2.294 -0.2104  0.2785 -0.3402
49332W        W50196   0.419  17.904  10.345 -0.0336  0.0729  0.2876
49333W        W50197   5.785  21.625  21.310  0.0709 -0.0159  0.2340
49334W        W50198  10.750   5.972  18.656 -0.0851 -0.0566  0.3462
49335W        W50199   6.352  23.997  27.146  0.1645  0.4252 -0.2994
49336W        W50200  13.466  20.025  17.905  0.1619 -0.0980  0.2789
49337W        W50201   5.751  25.545   6.252  0.0473 -0.0387  0.2248
49338W        W50202  18.478  16.188  29.014  0.0578  0.2204 -0.2439
49339W        W50203  19.866  19.744   5.807 -0.4312  0.1828  0.0649
49340W        W50204  25.567  24.692  14.605  0.1095 -0.2345 -0.0835
49341W        W50205  28.579  18.154   4.348 -0.2741 -0.0465  0.3371
49342W        W50206  10.260   1.999  25.079  0.0234 -0.1631  0.1069
49343W        W50207  10.152  15.544   8.737  0.3952 -0.2511  0.3308
49344W        W50208  27.609   1.510  11.817  0.0403 -0.3915  0.0364
49345W        W50209   3.713   6.613   8.969  0.3705  0.0005 -0.3309
49346W        W50210   7.167  17.576  14.413 -0.2885 -0.0176  0.1102
49347W        W50211  14.832  22.763  12.674 -0.0610 -0.1001 -0.0032
49348W        W50212   0.591   6.359  15.982  0.1112 -0.1047  0.2829
49349W        W50213   6.231  20.106   5.286  0.1019  0.2447  0.0499
49350W        W50214   0.058  13.711  19.773 -0.0741 -0.0546 -0.1123
49351W        W50215  17.735  16.406   7.382  0.0236  0.0179  0.1619
49352W        W50216  11.210  20.341  26.856 -0.0784 -0.1148  0.1114
49353W        W50217  18.802  15.373  17.044 -0.0835 -0.1465  0.1100
49354W        W50218   0.177  24.360  27.462  0.0276 -0.0153  0.4301
49355W        W50219  23.379   7.885   9.585 -0.0697 -0.1289 -0.0838
49356W        W50220  28.992  14.612  10.695  0.0646 -0.2055  0.1160
49357W        W50221  11.377  22.050  28.377 -0.0674  0.2685 -0.0296
49358W        W50222   9.084  19.002   1.959 -0.0391 -0.2194  0.0142
49359W        W50223  18.774   5.129  17.957 -0.0215 -0.2507  0.2441
49360W        W50224   7.839  13.727  16.979  0.2860  0.0633 -0.0585
49361W        W50225  15.933  24.843  10.891  0.3326 -0.1447  0.2745
49362W        W50226   5.672  27.633  27.066  0.1213  0.0647  0.0235
49363W        W50227  22.953  22.143  23.976  0.0633 -0.1694 -0.2607
49364W        W50228  28.300  16.958  23.929 -0.1860  0.0813  0.1267
49365W        W50229  20.507   0.998   6.203 -0.1981 -0.1127  0.2453
49366W        W50230  19.882  24.631  11.757  0.2495  0.1603 -0.2185
49367W        W50231  16.953  24.503   8.249 -0.5312  0.1690 -0.3009
49368W        W50232  11.540  23.754  13.760 -0.2744  0.0909  0.0866
49369W        W50233  18.513  23.526  20.470 -0.0215  0.0228  0.0539
49370W        W50234  27.264   8.395   8.580 -0.0702  0.0760 -0.0892
49371W        W50235   3.619   5.356  16.560  0.1575 -0.1853 -0.0547
49372W        W50236   7.826  25.201   6.872 -0.0023 -0.2898  0.1134
49373W        W50237  27.282  13.077   1.196 -0.0080  0.1508  0.2109
49374W        W50238   1.653   0.829  19.452 -0.0604 -0.0005 -0.1153
49375W        W50239  14.435   2.276   0.517  0.0208 -0.1841 -0.2913
49376W        W50240  10.140  25.770  11.618 -0.1208  0.0211  0.1341
49377W        W50241  10.539  25.890   6.233  0.2463  0.3188 -0.1853
49378W        W50242  23.736  18.716   4.394  0.1491 -0.0178 -0.1238
49379W        W50243   0.914  23.954  19.441  0.0863 -0.0286  0.3294
49380W        W50244  18.805  13.992   9.500 -0.0522 -0.0141 -0.0541
49381W        W50245  27.892  27.148   5.319 -0.3655 -0.0304  0.0940
49382W        W50246  14.496   0.340  20.217  0.3475 -0.2607 -0.0444
49383W        W50247   3.124  13.550  11.944  0.0053  0.0383 -0.0143
49384W        W50248   7.277  10.061  18.403 -0.0213  0.1385 -0.0376
49385W        W50249  15.114  21.026  15.572  0.0843  0.3880  0.0789
49386W        W50250  21.259  23.061   7.445  0.1123  0.3429  0.0444
49387W        W50251   3.418  17.650  25.319  0.4014  0.1764  0.0480
49388W        W50252   5.895   6.015  10.704 -0.0862  0.1618  0.1082
49389W        W50253  11.496  27.667  28.862  0.1434 -0.0960 -0.1228
49390W        W50254   9.294   1.260  12.948 -0.1494 -0.2319  0.1376
49391W        W50255   5.988   4.334  15.658 -0.1729 -0.0691 -0.0977
49392W        W50256   6.262   4.251  23.895 -0.2000  0.2455  0.3649
49393W        W50257   4.028  17.801   6.948  0.0465 -0.2672 -0.1327
49394W        W50258   5.432  26.428  21.068  0.2155  0.2272  0.0499
49395W        W50259   1.518  26.162  28.124 -0.0341  0.1152 -0.1773
49396W        W50260  25.570  18.739   4.603 -0.1719 -0.1650 -0.2387
49397W        W50261   8.676  13.314  24.731  0.1341 -0.3699  0.0746
49398W        W50262  17.401  14.585   2.266  0.0591 -0.1516 -0.2967
49399W        W50263  20.367  25.290  12.256  0.0964 -0.1773  0.4025
49400W        W50264   1.281   1.196  15.928 -0.1647 -0.0349  0.1093
49401W        W50265  16.306   5.953  14.376 -0.1711  0.0261  0.0186
49402W        W50266   9.450   0.561  13.064 -0.1096 -0.2341  0.1998
49403W        W50267   7.602  15.227   6.172 -0.0450  0.2036 -0.2148
49404W        W50268  13.599  15.555  13.427 -0.1076  0.2629  0.0001
49405W        W50269  19.547  10.535  21.608  0.2017 -0.0626  0.0703
49406W        W50270  14.821   6.028  15.609 -0.0736 -0.0694 -0.0941
49407W        W50271  27.645  16.006   4.802 -0.1156  0.2411  0.2595
49408W        W50272  26.300  18.085  20.129 -0.1603 -0.1605  0.1043
49409W        W50273  24.266  28.465  18.481  0.2116 -0.3746 -0.2168
49410W        W50274   2.596  25.332   9.494 -0.3957  0.2491 -0.2008
49411W        W50275  28.637  10.925   8.803 -0.2657 -0.2495 -0.2504
49412W        W50276   8.874  10.672   6.197  0.0083  0.0514  0.1229
49413W        W50277   7.102   2.146  20.016 -0.2458 -0.1210 -0.3038
49414W        W50278  23.991  20.490   7.202  0.0220 -0.2798  0.2001
49415W        W50279  28.799  19.045  20.245  0.0929  0.2218 -0.3046
49416W        W50280  28.733  16.541   0.887  0.1275  0.3423  0.2406
49417W        W50281  19.679   0.569  16.656  0.1682 -0.0068  0.0147
49418W        W50282   1.294  18.571   2.708  0.1138  0.2513 -0.1061
49419W        W50283  22.587  21.187  15.250 -0.2794  0.0090 -0.1927
49420W        W50284  25.717  13.491  10.886  0.0056 -0.0786  0.0580
49421W        W50285  12.879   5.569   5.338 -0.3813  0.2342  0.3844
49422W        W50286   4.013  23.296  15.473 -0.2426  0.2629 -0.0883
49423W        W50287   3.171   3.705  28.346  0.0120  0.1348 -0.1323
49424W        W50288   5.731  12.276  18.217 -0.0478  0.1374  0.1561
49425W        W50289   3.135  19.808  15.668  0.1424 -0.2849  0.2603
49426W        W50290   1.974   6.876  10.075 -0.2139 -0.1113  0.3836
49427W        W50291  17.560   9.175  24.236  0.0807  0.0260  0.1816
49428W        W50292   4.183  25.976  19.951  0.1828  0.0790  0.0909
49429W        W50293   5.540  22.871  19.584 -0.0209  0.0732  0.2732
49430W        W50294   8.764  22.511  25.058  0.1021  0.1682  0.3950
49431W        W50295  14.775   3.995   4.453 -0.1298 -0.3093  0.2237
49432W        W50296   3.544  27.705  22.828  0.0745  0.2432 -0.0608
49433W        W50297   7.024  15.760  13.439  0.2666  0.0290 -0.0694
49434W        W50298   7.414   1.415  15.160  0.2763  0.1288 -0.0346
49435W        W50299   4.617  19.833  11.527 -0.2850 -0.0247 -0.0983
49436W        W50300   6.161   0.159  14.475 -0.2864  0.2963 -0.1643
49437W        W50301  16.261   1.658  10.087  0.1031  0.0651  0.1551
49438W        W50302  13.599   5.307   7.644 -0.1435 -0.2422  0.1315
49439W        W50303   4.469  24.800  14.236  0.0177  0.2825  0.1588
49440W        W50304  23.641  21.223   6.491  0.2948  0.1611  0.0728
49441W        W50305  16.520   1.412   5.638 -0.2421 -0.3340  0.0556
49442W        W50306  14.502  13.577   3.946 -0.1805 -0.3409 -0.2708
49443W        W50307  10.482   7.727  19.997  0.1701 -0.2040 -0.2554
49444W        W50308   4.261  22.480  27.573 -0.1157  0.0114 -0.1946
49445W        W50309  26.009  23.661   6.597 -0.2580 -0.3005  0.0898
49446W        W50310  15.836  20.058  24.562 -0.1923 -0.1121  0.0978
49447W        W50311  14.118   6.037  16.416  0.0451 -0.0031  0.0608
49448W        W50312  14.879  14.530  26.450 -0.0941  0.2090 -0.1283
49449W        W50313   9.884  28.271  19.686  0.1658  0.0578  0.0958
49450W        W50314  27.925  18.050  11.430 -0.0566  0.0207  0.2474
49451W        W50315  18.174  19.846   9.071 -0.2190  0.2389 -0.0683
49452W        W50316  17.987  20.304   7.881  0.0792 -0.0929 -0.0205
49453W        W50317  10.946  10.664  21.666  0.1900  0.0340 -0.1779
49454W        W50318  24.609   9.734  17.330 -0.0863  0.0842 -0.0422
49455W        W50319  13.650  23.369  17.796 -0.1580 -0.0411  0.1729
49456W        W50320   7.064   3.353   8.971  0.1025 -0.2741  0.4452
49457W        W50321   7.081  21.171  16.495 -0.0527 -0.2081  0.1445
49458W        W50322  16.271  17.781  22.505  0.2996 -0.4176  0.0169
49459W        W50323   5.318   3.985   4.318 -0.3386 -0.0486  0.1280
49460W        W50324   3.302  24.240   5.391 -0.0180 -0.0663  0.0469
49461W        W50325  27.970  27.392  15.603  0.2313  0.0937  0.2326
49462W        W50326   7.298  26.770   1.599  0.0865  0.0976 -0.3919
49463W        W50327  28.773  13.096  13.890 -0.0114  0.2586 -0.0690
49464W        W50328   5.384  24.132  26.824 -0.1074 -0.0848  0.0048
49465W        W50329   9.849  18.578  14.707  0.1230  0.0813 -0.4413
49466W        W50330   8.232  20.882   7.376  0.2044 -0.1390  0.0106
49467W        W50331   8.751  28.342  16.928  0.1960  0.2320 -0.1505
49468W        W50332   1.349   5.310  15.914  0.0090  0.1770  0.2206
49469W        W50333   2.281  16.915   2.293  0.1868  0.1252  0.0513
49470W        W50334  14.744  25.181  21.898  0.2937  0.0541 -0.1050
49471W        W50335   9.414  20.398   0.297  0.1316  0.0037 -0.4302
49472W        W50336   5.614  24.129   6.242  0.2365 -0.1381 -0.3990
49473W        W50337   3.486   2.233  22.642  0.1075  0.0226  0.0224
49474W        W50338   7.775   2.678  21.243 -0.0245  0.0844  0.2666
49475W        W50339   6.175   2.087  20.042 -0.0659 -0.1102 -0.1341
49476W        W50340   7.616  19.651  12.358  0.1608 -0.0844  0.1078
49477W        W50341   8.090  28.333  17.748 -0.1241  0.0043  0.0584
49478W        W50342   4.769  14.912   8.112  0.1064 -0.0491 -0.1511
49479W        W50343   8.410   2.161  13.231  0.3435  0.0349  0.1272
49480W        W50344  12.359  28.195  16.744 -0.0408 -0.1520 -0.0772
49481W        W50345   8.300  23.400  11.957  0.0013 -0.0595  0.0193
49482W        W50346   1.905   4.148   2.823 -0.0316 -0.4087  0.0847
49483W        W50347   5.222  27.711   9.697 -0.3695 -0.0429  0.0105
49484W        W50348  18.314  25.089  14.726  0.2847 -0.0006  0.0240
49485W        W50349  20.608  14.575  27.603 -0.0058  0.0743  0.2162
49486W        W50350   2.422  25.468   9.016 -0.1916  0.0605  0.0034
49487W        W50351  21.043   1.012  13.304  0.0898 -0.0354  0.2033
49488W        W50352  22.575  23.510   2.420 -0.2110  0.2741  0.0725
49489W        W50353   8.448   1.132   4.382  0.0867 -0.0956  0.0589
49490W        W50354   1.250  24.275  27.232  0.0442 -0.2739  0.0182
49491W        W50355   0.794  24.807  18.019  0.1532  0.2848 -0.0968
49492W        W50356  13.657  28.471  17.988 -0.0187 -0.0748 -0.3952
49493W        W50357   9.751   3.482   4.438  0.0600 -0.3335 -0.0712
49494W        W50358  26.760  12.163  12.136  0.3833 -0.0204 -0.1288
49495W        W50359  19.951   5.709  15.177  0.2509 -0.2691 -0.0055
49496W        W50360   9.573  19.170  27.975 -0.3077  0.0091 -0.1764
49497W        W50361  16.412  28.079  20.793 -0.2082 -0.1367 -0.1203
49498W        W50362  10.918  22.424   1.496 -0.4168  0.0715  0.1064
49499W        W50363  25.375  18.084   5.214 -0.2163 -0.1820  0.0588
49500W        W50364  27.016  16.599   5.100  0.3693  0.0296 -0.2101
49501W        W50365  26.592  14.951  11.324  0.2127 -0.0131  0.0672
49502W        W50366  16.388  13.663   3.739  0.4432  0.1789 -0.2264
49503W        W50367  23.331   3.728  13.127  0.0569  0.1696 -0.0482
49504W        W50368  23.354  20.339   6.562  0.2592  0.0247  0.0356
49505W        W50369  20.316   2.764  26.887  0.0897  0.0451  0.1331
49506W        W50370  28.355  20.692   8.122  0.1631  0.0613 -0.1101
49507W        W50371   6.385  28.036   3.210 -0.0800  0.2951  0.1266
49508W        W50372  20.657   2.093  12.187 -0.1812 -0.1400  0.0860
49509W        W50373   8.516  26.629  12.836 -0.1542 -0.1137 -0.2991
49510W        W50374  28.668   3.488  11.416  0.0057  0.2084  0.0225
49511W        W50375   7.753   6.405  13.883 -0.0623 -0.0518 -0.3578
49512W        W50376  14.142  23.579  12.173 -0.2429 -0.3456  0.2311
49513W        W50377   6.721  10.934  19.930  0.2556 -0.1244  0.0612
49514W        W50378   7.853  13.469  20.256  0.1278  0.0394  0.1062
49515W        W50379  17.627   3.587   8.163  0.1538  0.1726  0.1823
49516W        W50380   1.876   7.190  28.943  0.2516  0.2208 -0.2509
49517W        W50381  26.408  21.968   9.923  0.0320  0.1630  0.1075
49518W        W50382   1.819  23.325  12.249 -0.5313  0.1384 -0.2266
49519W        W50383   8.534  28.749  28.176 -0.0933 -0.0331 -0.0733
49520W        W50384   6.324   8.375  22.816  0.1114 -0.1846 -0.0896
49521W        W50385   3.441  10.607  15.448  0.0988 -0.0180  0.2069
49522W        W50386   0.090   2.938  12.565 -0.1761  0.2228 -0.0447
49523W        W50387   3.015   4.421  27.569 -0.0807 -0.2793  0.2152
49524W        W50388   5.206  26.920   5.322  0.0114  0.4387 -0.1135
49525W        W50389  26.529  12.456  13.913 -0.2159 -0.0875 -0.0776
49526W        W50390  12.314  26.857  24.187 -0.5167 -0.2232 -0.3144
49527W        W50391   1.455  25.936  10.135  0.0301 -0.3371  0.2139
49528W        W50392  16.922   2.543  13.571  0.0412  0.1659 -0.0714
49529W        W50393  13.640   3.577  13.799  0.0577 -0.0479  0.1788
49530W        W50394  28.216  28.100  16.504  0.1042  0.0378  0.0612
49531W        W50395   2.249  10.092  26.093  0.2931 -0.2114  0.0032
49532W        W50396  24.306  27.256   7.789 -0.2709  0.0242  0.0187
49533W        W50397   6.533  27.802  18.236 -0.1127 -0.0471  0.0402
49534W        W50398  10.299  28.262  13.518 -0.1027 -0.1175  0.0645
49535W        W50399  16.430  11.571   9.961 -0.1506  0.0541  0.2082
49536W        W50400   1.659   5.010   3.094  0.3824 -0.2843  0.1094
49537W        W50401   3.262  24.876   9.280  0.3795  0.0936  0.0730
49538W        W50402   2.496   6.637   0.827 -0.0208 -0.0654 -0.1294
49539W        W50403   6.924  27.880  10.574  0.2403  0.1553 -0.0580
49540W        W50404  25.429   1.869  14.988  0.1324  0.2405  0.2932
49541W        W50405  17.138   0.795   8.245 -0.2565 -0.0795  0.3558
49542W        W50406  13.963  27.718   8.664  0.1523  0.0775  0.4598
49543W        W50407   3.549   6.136  13.276  0.1675  0.2961 -0.2997
49544W        W50408  10.111  19.637  26.442 -0.1617  0.2148  0.1842
49545W        W50409   9.042   3.826  19.185 -0.1039  0.1990  0.0951
49546W        W50410   5.552   5.481  26.190  0.1658 -0.1371  0.0429
49547W        W50411  21.926  27.956  12.868 -0.1730  0.1120  0.2004
49548W        W50412  25.814  11.708   7.117 -0.0008  0.0855  0.2597
49549W        W50413  16.875   5.027   5.786 -0.1774 -0.0483  0.1753
49550W        W50414   7.742  13.438  13.986  0.0695  0.1541  0.3122
49551W        W50415   9.752   2.076  10.938 -0.3340  0.0449 -0.1874
49552W        W50416   6.834  23.449  16.637  0.1117 -0.2624 -0.0986
49553W        W50417  10.220  16.123  24.157  0.2868  0.2249 -0.3950
49554W        W50418   1.870   1.623  10.248  0.1600 -0.0853  0.4134
49555W        W50419  26.334   6.262  11.878 -0.0088 -0.0791 -0.0357
49556W        W50420  17.357   0.613   6.487  0.0272  0.1621 -0.1318
49557W        W50421  12.789  27.363   8.506  0.1546  0.3170 -0.2763
49558W        W50422   0.280   2.380  26.194 -0.0062  0.2387  0.1293
49559W        W50423  23.711  20.271  17.984 -0.0031 -0.1102  0.0580
49560W        W50424  18.130   9.668   8.387 -0.0431  0.1081  0.1207
49561W        W50425  18.722  26.401  19.954 -0.0850 -0.0008 -0.2431
49562W        W50426   6.030  12.941  23.127  0.4040 -0.0864 -0.0930
49563W        W50427   1.503   9.364   5.291  0.0602  0.0428 -0.0240
49564W        W50428   6.771  24.727   4.320 -0.0311 -0.3292  0.2340
49565W        W50429  23.820   1.178  17.837 -0.0608  0.3006  0.0652
49566W        W50430   4.293   1.514  24.570 -0.0314  0.0476 -0.3947
49567W        W50431  22.293   7.211  14.333 -0.0923  0.0171  0.0022
49568W        W50432  28.856  19.394  29.126 -0.1469  0.1788  0.0480
49569W        W50433   2.923   5.769  27.946  0.1058 -0.1869 -0.0225
49570W        W50434  27.067  15.972  21.037  0.0629 -0.2567 -0.3159
49571W        W50435   7.507  11.036   0.661 -0.1715 -0.3422 -0.1273
49572W        W50436  28.867  25.309  10.001 -0.0946 -0.0430 -0.0049
49573W        W50437   2.090  23.627  15.521 -0.2999  0.0503 -0.0419
49574W        W50438  25.474  15.974   4.513 -0.0082 -0.1805 -0.1036
49575W        W50439   3.226   0.449   4.527 -0.2455  0.3237 -0.3962
49576W        W50440   7.941   5.607  25.131 -0.1102 -0.2747 -0.1186
49577W        W50441  17.746  12.622  23.066  0.1999 -0.0540 -0.2425
49578W        W50442  26.700  14.411  19.227  0.1333 -0.0183 -0.0924
49579W        W50443  24.076  13.940  14.451  0.1625 -0.0338  0.1622
49580W        W50444  15.814  27.599   6.964 -0.0958  0.0217 -0.1488
49581W        W50445   1.420   2.357   3.327  0.3241 -0.2499 -0.1207
49582W        W50446   4.738  18.908  20.529 -0.1957  0.1029 -0.0279
49583W        W50447  11.649   4.277   8.191  0.0352  0.0875  0.0637
49584W        W50448  15.920  21.928   3.102  0.0946  0.0843 -0.2005
49585W        W50449  14.439   0.876  20.077  0.0950  0.1083 -0.1693
49586W        W50450  19.553   6.454  23.254 -0.3111  0.2978 -0.2675
49587W        W50451   1.166  19.309  25.039 -0.2964 -0.2572  0.2080
49588W        W50452  10.665   2.043   7.512  0.0831  0.0127 -0.4759
49589W        W50453  28.144  25.592  22.955 -0.1188  0.0684 -0.0575
49590W        W50454  20.163   4.358  27.088 -0.1917 -0.0402  0.0217
49591W        W50455   6.823   5.553  13.002  0.1441  0.0158  0.3386
49592W        W50456   5.432  13.438  18.806  0.2262  0.0476 -0.0726
49593W        W50457   9.488  22.035   5.267 -0.0634  0.0754  0.2092
49594W        W50458   8.248   7.172  15.534 -0.2246  0.1736  0.1561
49595W        W50459  21.958  23.299  25.313  0.1192 -0.0523  0.0176
49596W        W50460   4.063  21.928   0.484 -0.2151  0.2758 -0.0327
49597W        W50461  10.184   3.886   7.591  0.1341 -0.0336 -0.0568
49598W        W50462   9.418  26.146  23.238  0.3542  0.1750  0.1034
49599W        W50463   2.972   3.257  21.750  0.0980 -0.0460  0.1610
49600W        W50464   3.975   3.054  14.042 -0.0156  0.0763 -0.1538
49601W        W50465   1.418  21.894  13.228 -0.1874  0.1415  0.0733
49602W        W50466  14.735  12.943  20.388 -0.4161  0.2368  0.1103
49603W        W50467  17.182   0.302  25.044  0.2370  0.0482  0.1809
49604W        W50468   0.816  25.826  13.482 -0.1016  0.4899 -0.0630
49605W        W50469  21.043   4.495   5.590  0.0261 -0.1285 -0.2231
49606W        W50470  11.560   7.560  12.777  0.2090 -0.3786 -0.0514
49607W        W50471   4.290  27.020  23.992 -0.0004  0.0770 -0.4728
49608W        W50472  10.368   5.879  17.340  0.0147 -0.0879 -0.1876
49609W        W50473   6.178  12.363  18.985  0.1786  0.0482  0.0804
49610W        W50474  11.136   1.762   7.422  0.1908  0.1522 -0.0245
49611W        W50475  20.498  14.326  23.390  0.0486  0.2239 -0.1780
49612W        W50476   1.166  23.150  16.622 -0.0289 -0.1015  0.1871
49613W        W50477  10.990  28.063   0.976  0.3706  0.0664  0.2349
49614W        W50478   2.749  23.098   7.815 -0.1148 -0.2004  0.1391
49615W        W50479  14.606   6.565   3.147  0.1968  0.1019  0.1461
49616W        W50480   7.080  15.403   9.798 -0.1651 -0.1415 -0.1669
49617W        W50481  16.403  24.640  10.675 -0.2395  0.1234 -0.0184
49618W        W50482  11.155  13.417  11.481  0.0190  0.0477  0.1037
49619W        W50483  22.431   1.847   4.303 -0.0342 -0.4794  0.0271
49620W        W50484   8.333  25.261  17.223 -0.0699 -0.0750 -0.2259
49621W        W50485  11.553  24.360  11.860  0.0937  0.1421 -0.0005
49622W        W50486  24.252  18.307   8.341  0.1121  0.1053  0.0575
49623W        W50487   4.448  22.095  16.203 -0.0971  0.1752  0.4174
49624W        W50488   0.518   0.676  16.167  0.0389 -0.1377 -0.0603
49625W        W50489  14.849  28.063  24.443  0.3939 -0.0121  0.2294
49626W        W50490   7.907   1.945   4.397  0.0258 -0.0939 -0.1159
49627W        W50491  13.646  18.624  17.547 -0.1498 -0.0629 -0.0496
49628W        W50492   6.581  25.356  23.614  0.0902 -0.3239 -0.1018
49629W        W50493   8.118  27.664  28.259  0.1799  0.2859 -0.0516
49630W        W50494   3.564   0.292   8.739 -0.1374  0.2303  0.2106
49631W        W50495  19.916   8.240  20.671  0.0347  0.2260 -0.0588
49632W        W50496   7.472   8.650   6.753 -0.0082 -0.0539 -0.0847
49633W        W50497  26.506  14.359  10.215 -0.0916  0.2692 -0.0897
49634W        W50498   9.458  18.118  27.981 -0.1264  0.0739 -0.1451
49635W        W50499   2.874  26.718  18.723  0.2771  0.3801  0.1580
49636W        W50500  27.192  27.224  28.190  0.3390 -0.0107 -0.2284
49637W        W50501  25.284  20.466  24.122 -0.0324  0.2845  0.1718
49638W        W50502   7.407  24.198  21.308 -0.1726 -0.4223  0.0476
49639W        W50503  27.333   8.151  13.352 -0.0495 -0.0804  0.1960
49640W        W50504  13.965  19.916   2.826  0.0178 -0.0181 -0.0435
49641W        W50505  26.288  18.131   4.055 -0.0295 -0.0425  0.1129
49642W        W50506   3.715  15.451   5.028 -0.1082  0.2287  0.3999
49643W        W50507  11.037   3.565   3.321 -0.0473 -0.1564 -0.2011
49644W        W50508  11.235  21.672  27.978  0.0322  0.0711  0.0620
49645W        W50509   9.325  26.894   8.786 -0.0931  0.1633  0.0819
49646W        W50510   3.081  25.129  22.132 -0.0467 -0.0779  0.0001
49647W        W50511   5.962  21.042  10.729  0.0125 -0.3483  0.0879
49648W        W50512   6.713  19.701   6.316  0.0097 -0.0995 -0.1935
49649W        W50513  19.215  21.904  25.957 -0.0463 -0.3819 -0.1065
49650W        W50514   6.171  23.205  17.831 -0.0920  0.0850  0.3100
49651W        W50515  13.622  25.825   8.174  0.1925  0.0388  0.0941
49652W        W50516  11.756  17.802  14.024 -0.0955  0.1468 -0.0301
49653W        W50517  10.981  20.496  13.661 -0.3545  0.1483 -0.1478
49654W        W50518   6.525  18.305  26.533 -0.0512  0.2368  0.0173
49655W        W50519   0.139   4.093  12.755  0.2830 -0.0371 -0.1581
49656W        W50520  26.400   9.374  14.810 -0.0750 -0.1863 -0.0379
49657W        W50521   8.271  26.506   9.750 -0.2507 -0.0379 -0.0347
49658W        W50522  10.615   1.440  11.470 -0.2704  0.0826 -0.1148
49659W        W50523   0.547  20.167  22.319  0.1097 -0.1413 -0.0757
49660W        W50524  24.622  24.756   9.097  0.1056 -0.0604  0.4196
49661W        W50525   3.238  23.243  27.539  0.0710 -0.1918 -0.1535
49662W        W50526  17.283  23.001  16.848 -0.1205 -0.3501 -0.2930
49663W        W50527   1.859  29.008  21.872 -0.0190  0.0250 -0.0323
49664W        W50528  12.753  23.534   3.122 -0.2591 -0.0200  0.2585
49665W        W50529  25.847   1.392  11.546 -0.0683  0.3051 -0.0873
49666W        W50530   7.132   5.841  21.842 -0.1379  0.2833  0.3349
49667W        W50531  13.470  13.315  15.492  0.1403  0.0322  0.1091
49668W        W50532   0.568   3.577  19.157  0.1703  0.1996 -0.4641
49669W        W50533   2.552   3.166  12.836 -0.1933 -0.2381 -0.1043
49670W        W50534  17.814  24.787  17.257 -0.3238 -0.0095  0.1215
49671W        W50535   8.739  26.541  23.512  0.0827  0.0202  0.2298
49672W        W50536  27.988   7.707  29.118  0.2738 -0.2758 -0.3403
49673W        W50537   3.953  11.046  18.565 -0.1568  0.2282 -0.1171
49674W        W50538  16.617  22.096  19.942  0.1879 -0.2020  0.2408
49675W        W50539  27.509   6.337   7.693  0.0760 -0.4140  0.2221
49676W        W50540   6.086  18.032  12.859  0.1642  0.0391 -0.0884
49677W        W50541  12.193  25.903  10.858  0.0976 -0.2785  0.0323
49678W        W50542  17.829  18.608  24.012 -0.0013  0.3498  0.1023
49679W        W50543   6.915  27.312  10.273 -0.2981 -0.0678  0.0283
49680W        W50544  15.716  12.087  23.660 -0.0416  0.0413 -0.0496
49681W        W50545  23.997  12.044   9.000 -0.0110  0.0928 -0.1094
49682W        W50546  14.874   0.754   4.292  0.0603 -0.0556  0.0978
49683W        W50547  13.239  25.188   8.325 -0.0201  0.1750 -0.0109
49684W        W50548  21.570   9.474   8.372 -0.0677 -0.1726 -0.1250
49685W        W50549   5.706   8.084  11.464  0.1353  0.2500 -0.1558
49686W        W50550  26.523   0.068  24.030 -0.0097 -0.3856 -0.0497
49687W        W50551  11.527   0.821   8.312  0.2622  0.0392  0.2618
49688W        W50552   5.013   3.669   4.726  0.0775 -0.0107 -0.1632
49689W        W50553  22.713  26.922   5.461 -0.1172 -0.0786  0.0420
49690W        W50554   0.292  13.084  24.060  0.2923  0.2376  0.0150
49691W        W50555   7.207  18.719  10.541 -0.4688 -0.0461  0.0020
49692W        W50556  12.380  25.753   2.623  0.0089  0.3664  0.1567
49693W        W50557   8.806  10.346   5.141  0.1886 -0.0654 -0.1231
49694W        W50558  11.364   8.524  14.552  0.1533 -0.0011 -0.2791
49695W        W50559   4.555  26.262  19.647 -0.1701  0.1208 -0.1330
49696W        W50560   1.820  25.046   9.592  0.1466  0.0710 -0.2225
49697W        W50561  14.356  24.129  17.136  0.1954  0.2694  0.1123
49698W        W50562   9.943  21.349  28.095  0.2543 -0.0552  0.0692
49699W        W50563  19.695  18.871   0.378 -0.1195 -0.1569  0.0956
49700W        W50564  13.475   5.324  24.596 -0.1247 -0.1498  0.1377
49701W        W50565  27.380  10.029  26.109 -0.0977  0.0144  0.0348
49702W        W50566  10.092  28.017  21.915  0.0875 -0.1961 -0.1500
49703W        W50567  14.300   5.439  22.620  0.0987  0.0370 -0.0094
49704W        W50568  20.753   9.138  14.339 -0.1508 -0.0866  0.0218
49705W        W50569  25.555  15.274  13.398  0.2934  0.1212 -0.0217
49706W        W50570  28.003  14.123  15.689 -0.1562 -0.1268 -0.1468
49707W        W50571   0.914   4.510  19.434 -0.0287  0.1911 -0.1210
49708W        W50572  11.137  26.027  18.773 -0.2205  0.1184 -0.0473
49709W        W50573  27.511  15.122  21.732  0.2144 -0.2122 -0.2350
49710W        W50574   8.388  25.837  26.008  0.0786  0.3914  0.1295
49711W        W50575  22.224   9.174  12.575 -0.1463 -0.1072 -0.2453
49712W        W50576  11.961  24.213  18.388 -0.2175 -0.0673 -0.2639
49713W        W50577  26.686  16.494  18.891 -0.2257 -0.0433  0.0793
49714W        W50578   2.447   3.584   2.552 -0.2074  0.0250 -0.0980
49715W        W50579   5.114   3.756  18.778 -0.0515  0.0076 -0.0013
49716W        W50580   7.512  12.739  12.516  0.2983 -0.0027  0.0421
49717W        W50581  13.475  25.777  22.773 -0.0322 -0.0933  0.1113
49718W        W50582   8.589  10.663  20.936  0.2554  0.1485  0.0385
49719W        W50583  17.907  13.561  21.279 -0.0516  0.2119  0.0675
49720W        W50584   4.715   0.936  19.503  0.1121  0.3268 -0.1177
49721W        W50585   9.149  23.089  21.376 -0.1272  0.1083  0.0054
49722W        W50586  18.640   5.507   7.328 -0.0960 -0.1810  0.3061
49723W        W50587  27.850  17.055  23.844  0.3423  0.0003  0.0718
49724W        W50588  18.683  23.740   3.005 -0.0806 -0.0727  0.0590
49725W        W50589   4.507  25.183   4.405 -0.2275 -0.0882  0.2743
49726W        W50590  18.998  16.581  18.910 -0.0045 -0.0300 -0.1182
49727W        W50591  28.089  23.064  10.663  0.0391  0.0058  0.0966
49728W        W50592  23.325   6.305  21.042 -0.0759 -0.0495  0.0105
49729W        W50593  11.700   8.841   0.456  0.1363  0.0335  0.1753
49730W        W50594   8.282  25.667  17.899 -0.1004  0.0840 -0.0945
49731W        W50595  21.761  29.013  26.526 -0.0463 -0.3436 -0.2103
49732W        W50596   4.562  23.398  10.809  0.0748 -0.1088  0.0518
49733W        W50597  16.083   6.287  15.991 -0.0280  0.1298 -0.0103
49734W        W50598   7.286  17.999  19.200 -0.1866 -0.1267 -0.1613
49735W        W50599  16.994  27.166  15.008  0.0569  0.1111  0.0115
49736W        W50600  11.612   8.137   5.775  0.0452 -0.2774 -0.0536
49737W        W50601   0.162   1.869  20.247  0.0058 -0.0941 -0.0909
49738W        W50602  19.945  12.243  17.801 -0.2373 -0.0813 -0.1448
49739W        W50603  12.562  24.132  25.030  0.0230  0.2292  0.1475
49740W        W50604  26.879   0.128   9.374  0.1736 -0.1987 -0.1208
49741W        W50605  29.111  20.748  17.408 -0.0257 -0.0518 -0.0919
49742W        W50606  10.646  24.294  15.760  0.3687  0.0042 -0.1619
49743W        W50607  12.660  19.988  16.654 -0.2968 -0.1264  0.1231
49744W        W50608  19.633  15.606  20.299 -0.0151  0.3919  0.0393
49745W        W50609  21.843   2.340   8.639 -0.3139 -0.2470  0.2220
49746W        W50610   9.733   7.800  28.810 -0.3865  0.3475  0.1590
49747W        W50611  10.649   6.637  19.892 -0.2309 -0.0214 -0.0333
49748W        W50612  22.996   0.785   3.476  0.1099  0.1125  0.2626
49749W        W50613   7.753  18.062   8.322  0.2258 -0.0137 -0.0476
49750W        W50614  11.489  19.528   0.974  0.4441 -0.0452 -0.0576
49751W        W50615  24.600  16.052  12.389 -0.0555 -0.4517  0.0379
49752W        W50616   0.279  13.953  12.120  0.0392  0.2272 -0.3295
49753W        W50617  21.194   9.802  21.610  0.0174  0.1339  0.0309
49754W        W50618  17.406   9.862  27.272 -0.0692 -0.2186  0.1007
49755W        W50619   5.269  16.048  26.338  0.3419  0.1329 -0.0224
49756W        W50620   0.314  17.323  20.455  0.2094 -0.0436 -0.2534
49757W        W50621  14.239  14.434  16.431 -0.0179  0.0223 -0.2626
49758W        W50622   3.325  18.524   7.767  0.1774  0.3096  0.0338
49759W        W50623  21.113  23.812   1.256  0.2554 -0.2422  0.0570
49760W        W50624   5.747   8.425   2.072 -0.4351 -0.2935 -0.2290
49761W        W50625  12.251  19.599  20.683  0.1061  0.0525  0.4435
49762W        W50626  15.767  14.608  26.197 -0.0051  0.0486  0.0147
49763W        W50627   0.116  15.225  13.157  0.2352 -0.4137  0.1499
49764W        W50628  20.158   1.755   6.710 -0.0917 -0.1739 -0.1233
49765W        W50629  19.806   5.150  14.639 -0.2795  0.0657 -0.1345
49766W        W50630  24.496  28.081  27.044  0.0190 -0.1184 -0.1123
49767W        W50631  25.655  26.684  17.560 -0.1682  0.0412  0.3018
49768W        W50632  23.610  27.992  20.675 -0.1756  0.0048  0.3105
49769W        W50633  19.220  22.044  12.198 -0.1064 -0.0262  0.1165
49770W        W50634  14.838   3.025  10.376  0.2982 -0.0257 -0.4500
49771W        W50635   9.741  20.258  10.705 -0.1055  0.0675  0.0939
49772W        W50636   2.496   1.619   8.316 -0.1357 -0.3754 -0.0482
49773W        W50637  16.690  19.099  14.542 -0.0011 -0.1263 -0.1724
49774W        W50638  29.012  14.415   2.775  0.0496 -0.2588 -0.0502
49775W        W50639  25.269   9.844   7.226 -0.2468  0.2913  0.0320
49776W        W50640   9.384  10.347   4.898  0.4056  0.0826 -0.1242
49777W        W50641  10.383  19.025  21.500 -0.0254  0.0385 -0.1963
49778W        W50642   0.819  13.107   5.030 -0.2261  0.0030  0.2229
49779W        W50643   6.283  10.223  13.154 -0.2997  0.3411 -0.0851
49780W        W50644  19.290   9.297   0.204 -0.2976 -0.2538  0.0671
49781W        W50645  25.387  27.228  19.747  0.1786 -0.0678 -0.0739
49782W        W50646  19.625  15.569  16.951 -0.0118  0.0663 -0.0602
49783W        W50647   9.872  19.650  14.749 -0.1376 -0.0818 -0.0566
49784W        W50648  20.968  10.397  28.755 -0.2128 -0.0842 -0.4344
49785W        W50649   3.128  28.702   4.812 -0.0305 -0.1028 -0.0178
49786W        W50650   4.362  27.471  13.148  0.1519 -0.0964  0.1670
49787W        W50651  12.523  27.376   6.123 -0.0717 -0.1676 -0.0510
49788W        W50652   0.228   3.387  22.025 -0.0567 -0.1573 -0.0986
49789W        W50653   9.576  20.368  18.278  0.2147 -0.1418 -0.0601
49790W        W50654  14.935  10.501   4.072 -0.2498  0.2443  0.0424
49791W        W50655  27.022   4.748  23.243 -0.0334  0.1098  0.0522
49792W        W50656  24.418  17.687  20.374 -0.1625 -0.2038 -0.0702
49793W        W50657  23.395  18.314   9.747 -0.1402  0.1773  0.3644
49794W        W50658   5.561  20.887  16.883 -0.1155  0.1347  0.2172
49795W        W50659  22.912  10.697  23.665 -0.1115  0.3222  0.1278
49796W        W50660   9.379   4.705  12.713  0.3214  0.2164 -0.0028
49797W        W50661  17.327  15.794  11.401 -0.2835  0.0123 -0.3080
49798W        W50662   6.330   9.846  14.082 -0.0129  0.0519  0.0433
49799W        W50663   0.231  26.358  16.887 -0.0815 -0.0835  0.1408
49800W        W50664   7.008   0.474  14.842 -0.1751 -0.4175 -0.0647
49801W        W50665  14.666  26.177  24.001  0.3870  0.2792  0.3678
49802W        W50666  18.767  28.863  25.499  0.0733 -0.1959 -0.0275
49803W        W50667   8.346   2.959  25.120 -0.4141  0.1819  0.0870
49804W        W50668   4.255  27.683  12.719 -0.0374  0.1568  0.0986
49805W        W50669  18.888  11.424   7.413 -0.2995  0.1886  0.1761
49806W        W50670  15.683   4.226   5.595 -0.0944 -0.1652  0.1608
49807W        W50671   0.399   3.258  25.078 -0.3938  0.3805  0.2379
49808W        W50672   4.847   0.884  17.222  0.0230  0.0954  0.1571
49809W        W50673  22.772  23.282  27.100 -0.1029  0.0408 -0.0177
49810W        W50674   5.887   3.543  14.308  0.1172  0.3051 -0.1324
49811W        W50675  10.513  13.037  15.480 -0.2011 -0.2242  0.2163
49812W        W50676   5.488  26.223   6.913  0.2178  0.0534 -0.1634
49813W        W50677  12.981   6.253   4.829  0.0355  0.0411 -0.2335
49814W        W50678   2.731  11.843  28.554 -0.0800  0.2330 -0.3352
49815W        W50679   3.221  22.014  20.112 -0.2109 -0.1121 -0.3500
49816W        W50680   6.731  15.196  19.667 -0.0077  0.0393  0.0827
49817W        W50681  26.537  18.643  15.495  0.0675 -0.1817  0.1390
49818W        W50682  22.949  17.479   0.371 -0.0329 -0.1392 -0.0087
49819W        W50683   5.634  20.471  21.583 -0.1055  0.0655  0.1382
49820W        W50684  19.392  10.317  23.731  0.0532  0.3846  0.0046
49821W        W50685   3.748  15.755  23.889 -0.4031 -0.0358 -0.0656
49822W        W50686  28.589  27.267  27.248  0.0800 -0.3273  0.2209
49823W        W50687   2.864  14.262  29.129  0.2500 -0.2771 -0.0992
49824W        W50688  19.521  23.487   3.424 -0.0444  0.1937  0.0932
49825W        W50689  18.781  10.973  19.821 -0.0857 -0.1202  0.0688
49826W        W50690   9.951  28.141  14.229 -0.2372  0.0230  0.0396
49827W        W50691  28.620  23.252  18.894 -0.2320 -0.1165 -0.1176
49828W        W50692   2.067   4.581  19.243  0.1625  0.2078  0.0699
49829W        W50693  10.668  21.073  24.894  0.3471  0.0316  0.0214
49830W        W50694  15.424  25.577   8.569 -0.2268  0.0413 -0.1029
49831W        W50695  11.429   1.996  15.180  0.0698  0.2827  0.0862
49832W        W50696   5.607   4.214   9.887 -0.0059 -0.0710 -0.0268
49833W        W50697   0.013   4.027  25.056  0.1969  0.1269 -0.0038
49834W        W50698  11.787  22.609  23.723 -0.1247  0.5209 -0.0146
49835W        W50699  18.597  13.971  10.630 -0.1526 -0.2702  0.0565
49836W        W50700   5.382   1.020  28.739  0.0765 -0.3440 -0.0088
49837W        W50701  17.418  23.803  17.172 -0.1343  0.0792 -0.1929
49838W        W50702   1.355  14.728  17.708 -0.0482 -0.3390  0.0951
49839W        W50703  24.981   9.836  26.809 -0.0204  0.2866 -0.0959
49840W        W50704   6.549  22.464  18.836 -0.0851 -0.0076 -0.1476
49841W        W50705  23.929  23.729   7.063  0.2377 -0.1415 -0.0629
49842W        W50706   7.133  19.842  12.169  0.2206 -0.3157 -0.0260
49843W        W50707   6.991   1.219  21.326 -0.2514  0.0468 -0.0211
49844W        W50708   1.254  20.792   4.668 -0.1810 -0.3626 -0.0499
49845W        W50709  28.348  22.903  10.275  0.1261 -0.2005  0.1142
49846W        W50710  10.241  14.044   5.555 -0.1754  0.0321 -0.0861
49847W        W50711  28.901  16.798  16.528 -0.1422  0.0293 -0.0533
49848W        W50712   9.810  26.678  24.420 -0.0936 -0.1264 -0.0921
49849W        W50713  17.095  28.036  15.614 -0.3441 -0.0442  0.0230
49850W        W50714  22.459  26.153   0.992 -0.0156  0.0464  0.1334
49851W        W50715   9.463   7.710  18.670  0.2603  0.1808 -0.1802
49852W        W50716  11.741  23.837  16.667  0.0807 -0.0666  0.1322
49853W        W50717   0.446   4.622  24.167  0.0069 -0.1947  0.2770
49854W        W50718  20.403  28.637   8.065  0.1633 -0.2985  0.0682
49855W        W50719   3.682   0.111   1.551  0.0683 -0.2150 -0.1434
49856W        W50720  28.211   7.804  24.670 -0.1246  0.2344  0.0459
49857W        W50721  10.789  27.635  11.704 -0.0535 -0.0806  0.0792
49858W        W50722   4.223  20.793   7.860 -0.0100  0.1213 -0.1819
49859W        W50723  25.798  17.550  19.302 -0.0026  0.1798  0.1987
49860W        W50724  12.881   2.482  19.536 -0.1270 -0.1694 -0.0456
49861W        W50725  16.260  26.870   5.875 -0.0228 -0.1157  0.0356
49862W        W50726   4.315   3.522  18.543 -0.2257 -0.0022 -0.0634
49863W        W50727  26.922  26.527  14.963 -0.0533 -0.1599  0.0505
49864W        W50728  21.627  21.506  14.327 -0.1465 -0.0604 -0.3355
49865W        W50729  13.186  24.255   2.014 -0.1281 -0.2695  0.0970
49866W        W50730   7.171  14.615  14.165  0.3699 -0.1734  0.3583
49867W        W50731  20.242  21.079   3.402 -0.0441 -0.2027  0.3609
49868W        W50732  12.639  12.988  15.346 -0.2550  0.4938 -0.3188
49869W        W50733  24.308  28.252  20.255  0.0287  0.2904  0.1488
49870W        W50734   1.684  28.054  20.357 -0.0425 -0.0192  0.2138
49871W        W50735   9.917  24.286  12.587 -0.3341 -0.0878 -0.0682
49872W        W50736   5.476  22.049   2.060  0.0874  0.2326 -0.1684
49873W        W50737   9.758  14.365  10.373  0.1646  0.1653  0.1161
49874W        W50738   6.713  18.911  28.762  0.0688 -0.3760 -0.0573
49875W        W50739  19.108  24.034  26.449  0.2203  0.3736  0.2752
49876W        W50740   5.970  18.336   2.459  0.2359  0.0440  0.0321
49877W        W50741   5.322  26.417   8.630  0.0344 -0.1465 -0.3654
49878W        W50742  10.635   3.093   4.462 -0.2514 -0.1152  0.0648
49879W        W50743   8.048   4.211  17.983  0.2429  0.1153  0.6145
49880W        W50744  21.841  10.439  21.087 -0.0092 -0.0128 -0.2565
49881W        W50745   3.957  16.154  28.366 -0.3415 -0.1712  0.1626
49882W        W50746  27.216   6.362   2.706  0.0184  0.1535  0.0360
49883W        W50747  19.162  17.356  13.077 -0.2850 -0.0116 -0.0547
49884W        W50748   6.940  16.853  23.135  0.0298  0.0054  0.1443
49885W        W50749  16.725  23.652  15.043 -0.0923  0.0506 -0.1057
49886W        W50750  16.967   9.354  14.280  0.0432 -0.0043 -0.2704
49887W        W50751  19.044   8.461   6.446 -0.1185  0.0288 -0.0870
49888W        W50752   2.228  16.260   6.319  0.1156 -0.0611 -0.0479
49889W        W50753   3.093  10.963  23.319  0.0418 -0.2882  0.0824
49890W        W50754  16.803   7.906   1.016 -0.3105  0.0056 -0.0577
49891W        W50755   0.314  13.077  16.729 -0.1337 -0.0968  0.1762
49892W        W50756  16.322  18.819  22.602  0.1118  0.0734 -0.0169
49893W        W50757  25.402  25.082  19.289 -0.0220 -0.0042  0.0523
49894W        W50758  22.883  24.315   9.727 -0.0783 -0.1092  0.0602
49895W        W50759  26.583   9.029   9.488 -0.2542 -0.3009  0.0748
49896W        W50760  10.214   0.756  13.144 -0.2238  0.1179  0.1306
49897W        W50761  27.206  26.668   2.193  0.1476  0.0949  0.2669
49898W        W50762  14.910  11.704   2.755 -0.1396  0.2250 -0.0539
49899W        W50763  16.328  21.340   8.725  0.0096 -0.2940 -0.1049
49900W        W50764  11.259  16.054   7.632 -0.0832  0.1994 -0.1384
49901W        W50765   0.439  21.428  22.399  0.0199 -0.3954  0.3731
49902W        W50766  26.509   3.484  11.695 -0.0400  0.1379 -0.1039
49903W        W50767  17.860  25.823  22.098  0.2309  0.1531 -0.0423
49904W        W50768  13.799  13.475   9.783  0.0591  0.1335  0.0663
49905W        W50769  28.006  24.762  15.919 -0.2562 -0.1901  0.1849
49906W        W50770   4.312  25.909  13.825 -0.1629 -0.1381  0.0548
49907W        W50771  22.531   2.800   0.530 -0.0631  0.0687  0.0923
49908W        W50772  26.350  25.369  13.192  0.0777  0.0163  0.1619
49909W        W50773   3.768  17.974  26.123 -0.1246 -0.2401 -0.2160
49910W        W50774   0.425  27.428  17.552  0.1147 -0.1277  0.0797
49911W        W50775   3.090   7.571  23.579  0.1103  0.2448  0.0815
49912W        W50776   5.453  25.659  22.956 -0.0394  0.1255  0.1137
49913W        W50777  27.700   2.128  26.863 -0.1827  0.3785  0.1949
49914W        W50778  25.992   1.588  17.091 -0.0689 -0.0381  0.0068
49915W        W50779   0.010  20.763  11.654 -0.0548 -0.0855  0.0053
49916W        W50780  19.406   1.485   2.324 -0.3292  0.0146 -0.1327
49917W        W50781  14.132  28.351  12.960 -0.2408  0.0891  0.1891
49918W        W50782  12.928  10.046  14.726  0.0527  0.0216 -0.0292
49919W        W50783   5.241  27.998  16.245 -0.1281  0.0785 -0.2285
49920W        W50784  18.080  22.843  17.879  0.0284  0.3623  0.0383
49921W        W50785   8.531   2.617  14.550  0.0485 -0.2536 -0.1945
49922W        W50786  12.090  12.593  22.388 -0.1083 -0.1008  0.1658
49923W        W50787  12.855   2.100  16.731 -0.1147 -0.2806  0.1119
49924W        W50788   5.252   9.712  25.158  0.0064 -0.3704 -0.1623
49925W        W50789  12.595   7.393  11.535  0.2128  0.1327 -0.1818
49926W        W50790  14.861  18.987  14.401  0.0190  0.1986 -0.1825
49927W        W50791   8.708  11.055   0.055 -0.2030 -0.2074  0.2253
49928W        W50792  16.923  22.376   5.424  0.1657  0.0054  0.0171
49929W        W50793   2.542   6.938  11.120 -0.3371 -0.3405 -0.0435
49930W        W50794  10.119  28.440   5.226  0.0440 -0.3636  0.0392
49931W        W50795  11.861  24.391  11.428  0.2839 -0.1556  0.2013
49932W        W50796   5.228  14.312  25.413  0.0554 -0.0437  0.0454
49933W        W50797  21.909   5.014   7.436 -0.1079 -0.2158 -0.0269
49934W        W50798  23.309   8.970  16.890 -0.1146 -0.2345  0.1309
49935W        W50799  11.729  16.741  26.878  0.1821  0.0002  0.0584
49936W        W50800  18.503   8.847  15.698  0.0819 -0.0023 -0.0640
49937W        W50801  28.087  12.560  26.262 -0.0262  0.4169 -0.0656
49938W        W50802   4.181  24.819  28.937 -0.2030 -0.1933  0.1402
49939W        W50803   3.681   3.729  23.696 -0.1658  0.0512  0.0325
49940W        W50804  20.083  14.050   8.882  0.3822 -0.0258 -0.2982
49941W        W50805   8.839  25.195  25.318  0.2212  0.0919 -0.1805
49942W        W50806  23.702  20.572   1.207 -0.1109  0.3032  0.2201
49943W        W50807  29.092   9.438   7.516  0.1066 -0.0994 -0.2838
49944W        W50808  17.748   5.539   3.669 -0.0521  0.0956  0.1293
49945W        W50809   8.312  23.969  27.186  0.4499 -0.0885  0.1109
49946W        W50810   7.372   0.942  25.022  0.3149 -0.1110  0.3858
49947W        W50811  21.008   9.152  25.824 -0.0192 -0.0595 -0.0632
49948W        W50812  15.155  15.997  20.045  0.2017 -0.2749  0.1112
49949W        W50813  16.442  29.053   1.720 -0.2882  0.0134 -0.0575
49950W        W50814   6.936   5.917  25.450 -0.2664 -0.0041  0.1313
49951W        W50815   9.867   2.085  12.227 -0.0969 -0.1336 -0.1603
49952W        W50816  10.511   0.150  11.504  0.1296 -0.0064  0.1650
49953W        W50817   1.664  18.438  22.771  0.1771 -0.0211 -0.3715
49954W        W50818  24.667   0.729  10.223  0.2716 -0.3508 -0.0599
49955W        W50819   6.247  23.953  12.219  0.0462  0.2687  0.0914
49956W        W50820  26.476  17.360  12.632 -0.1262 -0.2316  0.3437
49957W        W50821   6.939  25.506   4.421  0.0865 -0.1948 -0.0665
49958W        W50822   1.564  28.410   0.354 -0.0973 -0.0835  0.0598
49959W        W50823  16.820  11.873   9.896 -0.3232 -0.1140 -0.1500
49960W        W50824  10.794  24.597  14.545  0.2440  0.0337 -0.3814
49961W        W50825  12.372   5.444  14.494  0.1175  0.3508 -0.3052
49962W        W50826   7.667   8.772  13.723 -0.1597  0.0412  0.4354
49963W        W50827  23.958  24.598  23.044  0.1380  0.3396  0.0650
49964W        W50828   7.343  23.528   0.791  0.0331  0.0443  0.0715
49965W        W50829  27.019  20.585  10.143  0.2290  0.0739 -0.0952
49966W        W50830  21.050   2.607   9.409  0.2520 -0.1053 -0.1179
49967W        W50831   5.299  21.189   0.470 -0.2620 -0.0459  0.2162
49968W        W50832  23.459  19.977  22.349 -0.3320  0.3532  0.0250
49969W        W50833  10.969  11.567  21.451  0.2844  0.0503  0.0666
49970W        W50834  18.040   3.083  24.138  0.2111 -0.2709  0.2119
49971W        W50835  17.117   1.522   9.593 -0.5677  0.1252  0.1897
49972W        W50836   8.001   0.664  22.311 -0.0329 -0.0951 -0.0851
49973W        W50837   2.036  17.960   5.024 -0.3269 -0.0679 -0.3698
49974W        W50838   8.401   0.968   2.128 -0.3443 -0.0946 -0.0115
49975W        W50839  22.108  12.478  13.015  0.1230 -0.1735  0.1148
49976W        W50840   8.516  24.404  18.165  0.1096  0.1691  0.0237
49977W        W50841  28.454   2.222  15.551 -0.0728 -0.0929  0.1908
49978W        W50842  26.890  17.786  17.614 -0.0721  0.1213  0.0473
49979W        W50843  21.699   1.580  18.969 -0.0464  0.0621  0.2414
49980W        W50844  12.735  15.756  13.685 -0.0851 -0.2509 -0.0020
49981W        W50845   4.635   0.319   4.836  0.0666  0.0460 -0.1418
49982W        W50846  20.826  17.670   9.017 -0.1996 -0.1156  0.1429
49983W        W50847  17.067  14.258  13.917  0.1771 -0.0754 -0.2883
49984W        W50848  14.214  21.192  17.612  0.1702 -0.2363 -0.1616
49985W        W50849  19.249   5.063   5.402  0.2255 -0.0421  0.0896
49986W        W50850  12.188   9.768  26.902  0.1230  0.0074  0.1064
49987W        W50851   9.761   8.264   5.800  0.1271  0.2357 -0.0961
49988W        W50852   9.052   1.408  27.037 -0.1322  0.2323  0.1760
49989W        W50853   6.547  17.436  18.842  0.4597  0.0705  0.0144
49990W        W50854  28.599  21.670  17.877  0.1185  0.1189  0.1624
49991W        W50855  28.401   9.790   6.273  0.0983 -0.0503 -0.0286
49992W        W50856   5.736  24.756  23.093  0.1242  0.0133  0.0921
49993W        W50857  21.764   8.686  10.233 -0.1490 -0.0060  0.1368
49994W        W50858  13.648  28.455  11.397 -0.0052 -0.3096 -0.0898
49995W        W50859  10.333  17.870  10.628  0.1837 -0.1412 -0.2384
49996W        W50860  19.910   5.637  17.707 -0.0028  0.1534  0.1278
49997W        W50861  21.250  10.460  19.058 -0.0191 -0.0487  0.3013
49998W        W50862  26.548  12.523   6.623 -0.3964 -0.3116  0.1111
49999W        W50863   1.188   0.800  25.045  0.0085  0.2860  0.0547
50000W        W50864   4.866  10.935  24.950 -0.1409  0.2013 -0.1405
50001W        W50865   5.594  25.287  26.624  0.0751 -0.2133 -0.0106
50002W        W50866   5.350   0.741  11.300  0.0979 -0.1757  0.1112
50003W        W50867  25.698   8.538  18.579  0.0348 -0.1588  0.4926
50004W        W50868  13.117  20.026   4.456  0.0211 -0.0285  0.1318
50005W        W50869  13.704  21.635   0.561  0.2403  0.0723  0.0232
50006W        W50870   5.780  27.791  20.872 -0.1662 -0.2568 -0.1833
50007W        W50871   6.319   2.575  25.044 -0.0109 -0.0678  0.3645
50008W        W50872  10.684   8.477   8.193  0.1982 -0.0775 -0.1689
50009W        W50873  16.460  27.270   8.378 -0.4393  0.1301 -0.1962
50010W        W50874  28.427  28.839  18.634 -0.1467  0.1777 -0.1249
50011W        W50875  14.851   2.336  21.894 -0.1190 -0.1630 -0.1593
50012W        W50876   0.727   2.383  22.510  0.2391  0.1180  0.1251
50013W        W50877   8.223  17.058  10.349  0.0246 -0.1544 -0.2966
50014W        W50878   8.309   7.465  24.942 -0.2171  0.0034 -0.0585
50015W        W50879   4.925  23.342  22.057  0.5897  0.3350 -0.1116
50016W        W50880  12.273  23.163  16.943 -0.1560  0.1092 -0.1201
50017W        W50881   6.791  11.933  24.937  0.0606  0.3265  0.0094
50018W        W50882  23.885  23.200  10.843  0.1395  0.2469  0.0877
50019W        W50883  28.497  27.203   7.942 -0.1348  0.0599  0.0753
50020W        W50884   1.567  24.741   0.454  0.2623 -0.1278  0.1842
50021W        W50885   5.224  25.624  20.624  0.0781 -0.3545 -0.0853
50022W        W50886   0.735  16.759   7.395 -0.0410 -0.0175 -0.1531
50023W        W50887  21.212  12.978  10.675  0.1594 -0.2162 -0.1085
50024W        W50888   7.388   2.511  25.488 -0.2381 -0.1400 -0.1534
50025W        W50889  14.509  27.020   0.708  0.2342  0.0176  0.0544
50026W        W50890   0.742  10.321   7.596 -0.2869 -0.2271  0.0155
50027W        W50891  27.050  28.562   8.622  0.4673  0.2234  0.0381
50028W        W50892   6.563   0.509  16.865 -0.0545 -0.2126  0.4921
50029W        W50893   0.347  26.305   9.055 -0.1337 -0.0897  0.2858
50030W        W50894   8.940  11.048  22.230 -0.1839 -0.0310 -0.1520
50031W        W50895  22.328   9.077  25.547  0.2483  0.3732  0.0096
50032W        W50896   5.513  24.411   9.686 -0.1879  0.0846  0.1618
50033W        W50897   9.246   2.811   2.669 -0.0364 -0.0281 -0.0288
50034W        W50898  11.968   9.617   9.814  0.0064 -0.0231  0.1270
50035W        W50899   4.291   7.503   9.978  0.0225 -0.4845  0.0135
50036W        W50900   9.747  22.888  14.279 -0.1633  0.0797  0.0789
50037W        W50901  13.255  24.506  11.546 -0.1635  0.1214 -0.4498
50038W        W50902   6.055   3.713   6.249  0.0584  0.1141 -0.0964
50039W        W50903  10.421   7.693  11.142 -0.2506 -0.1082 -0.1587
50040W        W50904  18.919  12.641  23.497  0.1814 -0.1487 -0.0123
50041W        W50905  20.581  11.708  19.801  0.3771 -0.4407 -0.0664
50042W        W50906   9.280  14.809  11.101 -0.0101 -0.1899 -0.1512
50043W        W50907  28.373   3.891  16.421 -0.0258 -0.2069 -0.0865
50044W        W50908   8.733  21.817  14.778  0.5547  0.1370 -0.0606
50045W        W50909   9.985  13.032   4.599  0.1314  0.2091 -0.0988
50046W        W50910   7.240   1.962  12.508  0.2071  0.2940 -0.1894
50047W        W50911  15.278  27.804  26.055  0.0974  0.0798  0.1568
50048W        W50912   9.267   9.015   4.638 -0.1866 -0.2801  0.4102
50049W        W50913  16.102   2.947  12.007 -0.2318 -0.2264  0.2040
50050W        W50914   9.168  22.526  17.350 -0.1428  0.3111 -0.3628
50051W        W50915   5.114  13.890   1.464  0.0516 -0.0654 -0.2048
50052W        W50916  12.136   1.779  22.048  0.2856  0.0920  0.2122
50053W        W50917  15.897  16.354  16.559  0.0736  0.0423  0.2044
50054W        W50918   2.407  22.292   0.495  0.0008  0.1049 -0.0891
50055W        W50919  23.046  15.656  15.809 -0.0974  0.0213 -0.1304
50056W        W50920   7.010  20.140  28.580  0.1212  0.3170  0.1225
50057W        W50921   2.702  14.413  10.780 -0.0237  0.1321  0.0287
50058W        W50922  27.157  15.587   8.016  0.0698 -0.0120 -0.1145
50059W        W50923   6.702  21.575  25.451  0.1868 -0.1627 -0.3288
50060W        W50924   9.870  27.244  18.622  0.3114 -0.1804  0.0260
50061W        W50925  28.414  13.252   5.212  0.2892 -0.3401  0.0566
50062W        W50926   0.589  20.373  13.748 -0.1085 -0.1413 -0.0830
50063W        W50927  20.426  20.859   6.695  0.1896 -0.0067 -0.1778
50064W        W50928  24.513  21.090  23.682 -0.0591  0.2596  0.0302
50065W        W50929  18.320  20.368   7.476  0.0287  0.0666  0.0270
50066W        W50930  28.620  16.320  10.714  0.1073 -0.1195 -0.0430
50067W        W50931  14.612  23.773  25.003 -0.4707  0.0530 -0.1317
50068W        W50932  14.332   0.375  18.004  0.0073 -0.0571  0.0891
50069W        W50933  28.106  10.833  19.844  0.2711 -0.2002  0.3732
50070W        W50934  18.228   2.890   5.796  0.0624  0.2217 -0.1572
50071W        W50935  17.723  13.548  12.962  0.1514 -0.0373 -0.0389
50072W        W50936  28.178  24.361  25.524  0.0870 -0.3546 -0.1075
50073W        W50937  11.791  16.593  20.010 -0.0592 -0.2336  0.0896
50074W        W50938   0.453  28.088  27.737 -0.1282 -0.2929  0.1505
50075W        W50939  28.284   3.295  11.679  0.0180 -0.0461 -0.0422
50076W        W50940  18.672  13.761  21.631  0.1844 -0.1430 -0.4302
50077W        W50941  14.027  21.459  11.881 -0.0781 -0.3467  0.0265
50078W        W50942   0.376  27.190   5.985 -0.2371  0.1379  0.1368
50079W        W50943   7.960  20.398   7.934 -0.0855 -0.4146  0.0737
50080W        W50944  11.089  27.630   0.447 -0.1694  0.1119 -0.1427
50081W        W50945  15.630  18.429   1.555 -0.4246  0.2519  0.1083
50082W        W50946   2.800  21.275   7.711  0.2874  0.0738  0.0210
50083W        W50947  28.543  19.363  22.292 -0.3021 -0.1611  0.1507
50084W        W50948  26.154   9.473   4.963 -0.1586 -0.2681  0.2380
50085W        W50949   2.059   2.518  15.966  0.0166  0.1431  0.0501
50086W        W50950   4.204   5.551  24.286 -0.1054 -0.0335 -0.1438
50087W        W50951  14.359  20.017   9.173 -0.0004  0.0910  0.2120
50088W        W50952  22.357  26.228  14.834 -0.2920 -0.1772  0.1653
50089W        W50953  15.588   6.866  21.740 -0.0203 -0.2119 -0.0629
50090W        W50954  10.469  17.244   9.947 -0.1981  0.0403  0.3070
50091W        W50955   1.209  14.796  18.481  0.0502  0.1915 -0.0444
50092W        W50956   7.843  26.606  18.631  0.2267  0.1609  0.2512
50093W        W50957   6.460  28.652  20.817 -0.0526  0.0123  0.3396
50094W        W50958   0.852   6.368   2.013 -0.1973  0.0019 -0.1664
50095W        W50959  14.137  24.592  22.077 -0.3466 -0.1253  0.0431
50096W        W50960   0.210  19.908  10.205 -0.2974 -0.1261  0.4739
50097W        W50961  10.343  10.251   5.098 -0.1169 -0.2344  0.2316
50098W        W50962   8.842  17.225  17.814 -0.0501  0.2538 -0.2018
50099W        W50963   1.661   9.238   3.171 -0.3341  0.0754  0.0785
50100W        W50964  27.160  16.153   4.881  0.0348  0.0994 -0.1445
50101W        W50965  25.668   6.896  13.884  0.1597 -0.3376 -0.1285
50102W        W50966  14.964  26.485  26.549 -0.1445  0.1322  0.0274
50103W        W50967  10.629  12.383  16.143  0.0228  0.1108 -0.1695
50104W        W50968   9.039   3.303  25.953 -0.1558 -0.1664 -0.1734
50105W        W50969  26.488  19.611  13.818  0.1673  0.0303  0.0008
50106W        W50970   7.473   0.942  13.712 -0.0441 -0.1866 -0.0868
50107W        W50971  23.955   6.992  27.817 -0.2649  0.1365 -0.4411
50108W        W50972  11.191  21.749  16.302  0.0206 -0.2455  0.1211
50109W        W50973  13.680   2.739  20.021  0.0196 -0.1695  0.2924
50110W        W50974  19.113   0.666  11.168  0.1665 -0.2925 -0.3262
50111W        W50975  24.528  26.045   8.410  0.1536 -0.0949 -0.0542
50112W        W50976  12.373   6.792   4.549  0.0841 -0.0337 -0.0364
50113W        W50977  22.603  10.700  27.341  0.1297  0.1874 -0.1193
50114W        W50978   9.282  25.926  12.731  0.1140  0.0707 -0.0887
50115W        W50979  28.533  16.967  28.307 -0.4316  0.0162  0.2480
50116W        W50980  13.609   3.191  20.309 -0.1299  0.1987  0.0349
50117W        W50981   5.259  24.435  19.909 -0.0908 -0.1170  0.1279
50118W        W50982  17.081   9.989  16.424 -0.0368  0.0771  0.1635
50119W        W50983   4.738  16.760  18.264 -0.0556 -0.1368 -0.1195
50120W        W50984  21.677   0.237  13.948  0.0435 -0.2443  0.0996
50121W        W50985   8.021  21.087  11.927  0.2380  0.1083  0.0435
50122W        W50986   3.448   6.060   9.617  0.0725  0.2571 -0.0177
50123W        W50987  11.988  24.007  17.582 -0.0869 -0.0195 -0.0979
50124W        W50988   3.648   9.163  21.884  0.0575 -0.0424  0.0627
50125W        W50989   3.904  20.168   1.195 -0.1703 -0.0742 -0.2430
50126W        W50990   6.827   1.595  19.010 -0.1969 -0.1577  0.2017
50127W        W50991   2.128   4.402  23.828  0.0749  0.3302 -0.0634
50128W        W50992  13.248   0.933  17.124 -0.0496  0.2114 -0.0026
50129W        W50993  11.566   4.685  24.214  0.1320  0.0410 -0.2420
50130W        W50994   6.607  17.197   9.031 -0.0946  0.1543  0.1065
50131W        W50995  15.374  27.597  17.187  0.1968 -0.0540 -0.3122
50132W        W50996   2.766   4.378  11.101 -0.2793 -0.1269 -0.3520
50133W        W50997   4.586   8.166  17.388  0.2825 -0.1136 -0.0227
50134W        W50998   3.723   2.112   8.922  0.0162 -0.0721 -0.0692
50135W        W50999   2.085  27.993  19.534 -0.3507 -0.0135 -0.0347
50136W        W51000   1.003   8.247  15.652 -0.1592 -0.0306  0.3268
50137W        W51001   0.759   5.601  23.073 -0.0789  0.1189  0.3072
50138W        W51002  28.258   8.887   0.508 -0.1722  0.1112 -0.0109
50139W        W51003   7.633   1.718  24.954 -0.0412  0.0896  0.1091
50140W        W51004  26.835   8.410  16.070  0.0454  0.2216 -0.0884
50141W        W51005   5.500  10.310  21.168  0.2056  0.1465  0.1582
50142W        W51006  12.073  14.935  28.837 -0.0813 -0.0775  0.0510
50143W        W51007  12.234   0.891  16.043 -0.0293 -0.0828  0.1674
50144W        W51008  28.990   6.867  15.337  0.2258  0.0268  0.1059
50145W        W51009   6.937  24.789   7.087  0.0036 -0.0093  0.2881
50146W        W51010   6.790  22.327   6.408  0.1177 -0.1126  0.0209
50147W        W51011   2.239  25.239  16.389  0.3541 -0.1230 -0.3176
50148W        W51012   6.067   7.350  21.854  0.0875  0.5177  0.3120
50149W        W51013   6.476  16.042  15.936  0.0419 -0.1452  0.0868
50150W        W51014  23.869  24.803   7.358  0.0786  0.1421  0.2189
50151W        W51015  25.579  10.736   5.745  0.1515 -0.1476 -0.1309
50152W        W51016   5.909  12.397  20.223 -0.0376 -0.2585  0.1582
50153W        W51017  25.011  18.837  14.061 -0.1426  0.2119 -0.1767
50154W        W51018  17.751  11.856  25.034  0.4882 -0.1920  0.1381
50155W        W51019   2.957   8.339  16.896  0.0136  0.2685 -0.1802
50156W        W51020  26.158  16.132   1.148  0.0713 -0.0666 -0.0794
50157W        W51021  21.654  24.588  15.105  0.2279 -0.0728  0.0944
50158W        W51022  17.355  16.412   1.868  0.0267 -0.0947 -0.0952
50159W        W51023  12.023  23.944  24.194 -0.0814 -0.0729  0.0230
50160W        W51024   3.478   6.766   1.753  0.0982  0.3226 -0.1367
50161W        W51025  13.521   6.642  13.232 -0.1299  0.4438 -0.1218
50162W        W51026  20.676   6.522  21.077 -0.0167 -0.0303 -0.0659
50163W        W51027  12.463  23.030  19.309 -0.0317  0.3484  0.0612
50164W        W51028   8.147  15.632  23.273 -0.2199  0.0034  0.2561
50165W        W51029  11.517  27.369   5.082 -0.1064  0.0541 -0.0884
50166W        W51030   6.890  24.123  23.117  0.0080  0.1846 -0.1379
50167W        W51031  16.416  25.365   9.379 -0.2122 -0.0225 -0.1619
50168W        W51032   5.777  12.130  14.449 -0.5626  0.2951  0.3474
50169W        W51033  16.429  19.542  17.584  0.0020 -0.0715  0.3544
50170W        W51034  13.888  22.894  12.510 -0.2553  0.3790  0.0053
50171W        W51035   4.437  21.973  19.703 -0.0418  0.0197  0.1553
50172W        W51036   8.272   7.497  11.657  0.2615  0.0763 -0.1296
50173W        W51037   1.461  26.999  20.296 -0.0432 -0.0713  0.0497
50174W        W51038  26.315   2.721  10.028 -0.0527  0.3177 -0.1482
50175W        W51039  24.749   6.585   3.318  0.1044 -0.1115 -0.1655
50176W        W51040   5.955  25.106   8.724  0.0742 -0.1293 -0.0893
50177W        W51041  26.940  14.219  17.461 -0.0572 -0.0670 -0.0608
50178W        W51042  26.890   3.944  11.124  0.0824  0.0279 -0.0006
50179W        W51043  18.609  18.006  17.137  0.0403  0.0756  0.2573
50180W        W51044  25.255   4.391  17.131 -0.0769 -0.1331 -0.0318
50181W        W51045  14.698  20.931   8.220  0.0100  0.3873  0.1455
50182W        W51046   4.024  16.016  25.498 -0.0092  0.2981  0.2288
50183W        W51047   2.829  28.639   1.421  0.0918  0.0966 -0.1497
50184W        W51048  13.715  10.656   0.265 -0.0134 -0.1234  0.0032
50185W        W51049  16.212   2.042  24.436  0.1300 -0.0772 -0.2295
50186W        W51050   7.021  25.486   9.427  0.2273  0.0966  0.1561
50187W        W51051  13.277  25.158  12.949 -0.1161  0.1925 -0.0688
50188W        W51052   7.863  25.621  12.505  0.0158 -0.1652  0.3085
50189W        W51053  24.132  26.521   4.893  0.2179  0.0745 -0.0357
50190W        W51054  13.730  12.589  28.963  0.0123  0.1692 -0.2583
50191W        W51055   7.611  12.401  14.424 -0.3576 -0.1821  0.0245
50192W        W51056  14.349  21.020  24.432  0.1989  0.1313 -0.0458
50193W        W51057  21.001  21.565  25.841  0.0337 -0.2727  0.0563
50194W        W51058  16.279   1.376   7.093 -0.0980  0.0763  0.0636
50195W        W51059   1.575   4.656   2.199  0.3503  0.0886 -0.0618
50196W        W51060  23.517  14.396  27.482 -0.1038 -0.3326 -0.1329
50197W        W51061   7.899  26.960   7.427 -0.2248 -0.0338  0.0525
50198W        W51062   6.348  15.129  12.440  0.0663 -0.0478 -0.2328
50199W        W51063  29.010   3.483   7.801  0.0745  0.2116  0.0734
50200W        W51064   4.784  23.537  27.125  0.0187 -0.0236 -0.0268
50201W        W51065  17.304  26.917  23.920  0.1748  0.0328 -0.0834
50202W        W51066   9.016   2.282  25.716  0.0236  0.2166 -0.1373
50203W        W51067  19.688  19.257  20.515  0.1369  0.0117  0.3223
50204W        W51068  27.602  20.445  19.991  0.2213 -0.1538  0.1117
50205W        W51069   8.782  15.317  14.088  0.0599 -0.4022 -0.0427
50206W        W51070  19.639  21.540  16.171  0.0502 -0.2462  0.1236
50207W        W51071  22.176   6.581  20.552 -0.0753 -0.0722 -0.2518
50208W        W51072  28.921  24.185   6.220 -0.0430 -0.1906  0.1418
50209W        W51073  16.157  14.513  27.963 -0.0099  0.0886  0.1699
50210W        W51074   9.990  23.154  27.700 -0.0091  0.1162 -0.1970
50211W        W51075  10.102  20.343  15.586  0.2093  0.1450 -0.2186
50212W        W51076  11.135   5.714  23.539  0.0135 -0.1311 -0.2821
50213W        W51077  18.881   9.974  18.487 -0.0308 -0.0519  0.0902
50214W        W51078   5.769  16.737  25.621 -0.1499 -0.0548  0.2534
50215W        W51079  24.582  15.602   6.002  0.2995  0.2474  0.2002
50216W        W51080  14.075  22.863  27.669 -0.0986  0.1566  0.3956
50217W        W51081   7.576  14.421  19.987  0.0153 -0.0251 -0.0525
50218W        W51082   6.570   3.265  12.694  0.1300  0.1481 -0.0926
50219W        W51083  28.457  22.254  28.282  0.2402  0.0688 -0.4119
50220W        W51084   4.614   8.124  22.118  0.0035  0.1552  0.1952
50221W        W51085  19.020  28.774  22.488  0.4278 -0.0315  0.0453
50222W        W51086  28.093  16.418   3.613  0.0773 -0.0216  0.1958
50223W        W51087   8.050  13.767   0.474 -0.0445 -0.1923 -0.0335
50224W        W51088  24.563   7.352   1.642 -0.1637 -0.2931 -0.2832
50225W        W51089  12.206   9.137  28.670 -0.0447 -0.0244 -0.4828
50226W        W51090  26.638   1.936  25.126  0.2971  0.1832 -0.1669
50227W        W51091  23.979   2.460  20.465 -0.0276 -0.1824 -0.0739
50228W        W51092   6.787   3.314   4.742 -0.1212 -0.2255  0.0838
50229W        W51093   3.654  10.411  14.077  0.1849  0.0158 -0.1191
50230W        W51094  18.946   6.680   3.960 -0.0763  0.2135  0.0876
50231W        W51095   5.230  14.769  14.093  0.2814  0.1780  0.0080
50232W        W51096   6.640  14.776  12.208  0.0661 -0.0459  0.0294
50233W        W51097  24.608  23.207   9.979  0.0898  0.0498  0.1125
50234W        W51098  22.248  19.061   5.739 -0.1593 -0.1572  0.1106
50235W        W51099  15.138  21.196  11.546  0.1565 -0.2885  0.1871
50236W        W51100  17.154   0.011  27.858  0.1990  0.0767  0.1726
50237W        W51101  13.549  23.489   2.059 -0.0193 -0.0616  0.0370
50238W        W51102  16.783  16.617   6.400  0.0590  0.2571 -0.1563
50239W        W51103  28.903   8.191   4.851  0.0552 -0.2824 -0.3557
50240W        W51104  19.934  13.381  25.126  0.1042 -0.0773 -0.0199
50241W        W51105   3.020  22.595   9.566  0.0428 -0.1368  0.2083
50242W        W51106  14.124  20.883  14.152 -0.0732  0.1964 -0.0791
50243W        W51107  20.085  26.034  28.631  0.0971 -0.1058  0.0704
50244W        W51108  18.519  24.145  23.117 -0.2775 -0.1522 -0.1693
50245W        W51109   2.841  27.937  11.739 -0.0361  0.3754  0.0656
50246W        W51110   8.230   4.719  27.282  0.1506 -0.0528  0.4017
50247W        W51111  18.473  15.365  16.536 -0.1362 -0.1880  0.3190
50248W        W51112  10.572   4.276   1.039  0.1528  0.0839 -0.0544
50249W        W51113   2.184  17.910  15.184 -0.0731  0.1305 -0.0058
50250W        W51114  19.108  19.486   4.431 -0.2513  0.2299  0.0432
50251W        W51115   8.459   4.921  25.308  0.1026 -0.1952  0.2564
50252W        W51116  20.396   6.353  18.732 -0.1348  0.1252  0.0066
50253W        W51117  17.937   1.218  13.838 -0.0495 -0.1152  0.0977
50254W        W51118  22.141   0.197  22.413 -0.2575 -0.0333  0.0902
50255W        W51119   7.977  20.124  28.841  0.2318 -0.3379  0.1633
50256W        W51120  11.168  12.654  13.768 -0.2108  0.0218 -0.0246
50257W        W51121  13.283  28.097  18.801  0.2608 -0.0943  0.1577
50258W        W51122  16.558   4.222  19.416  0.1641  0.2198  0.1461
50259W        W51123   2.690   7.809   0.656  0.2357  0.0676 -0.1062
50260W        W51124  16.986  17.992  10.881 -0.1688  0.1355 -0.0364
50261W        W51125  27.844  21.492  26.002 -0.2453  0.1592  0.0043
50262W        W51126   0.095  23.486   7.806  0.1432 -0.1726 -0.0474
50263W        W51127  26.398  22.771  10.145 -0.3437  0.0983 -0.0877
50264W        W51128  10.226   3.966  12.828 -0.0460 -0.1417  0.3696
50265W        W51129   0.347  21.470  21.922  0.3064  0.3024 -0.0880
50266W        W51130  28.099   0.602  17.109  0.1294 -0.2140  0.1872
50267W        W51131   8.312   1.177  27.888 -0.0115  0.0591  0.2366
50268W        W51132  29.133  17.424  23.209 -0.2771 -0.0260 -0.1076
50269W        W51133  28.030   0.159   4.228  0.4519  0.0841 -0.0776
50270W        W51134  27.022  28.908  24.280 -0.0522  0.0807  0.0033
50271W        W51135   7.674  22.150   2.883  0.0979  0.0342  0.3006
50272W        W51136   2.904  25.567  28.255  0.0232 -0.1285  0.2865
50273W        W51137  20.262  24.316  16.457  0.2465 -0.0950 -0.3815
50274W        W51138   8.582  28.675  26.524  0.1305 -0.2292  0.2346
50275W        W51139   3.897  26.251  12.421  0.1243  0.1139  0.0729
50276W        W51140  24.776  22.511   8.667  0.4271  0.0228 -0.1454
50277W        W51141  17.098  21.775   5.598  0.0091  0.3252  0.0359
50278W        W51142  17.767   8.750   5.700 -0.0152  0.1047  0.1000
50279W        W51143   4.959  26.765  19.706  0.0846  0.0194  0.0493
50280W        W51144  24.364  17.041   5.826  0.2032  0.1330 -0.2396
50281W        W51145  15.675   7.029   5.001 -0.1403  0.3985 -0.1670
50282W        W51146  26.447  12.235   9.068 -0.0814  0.1733  0.0306
50283W        W51147   4.936  21.029  12.805  0.1253 -0.1432  0.2313
50284W        W51148  15.404  26.349  25.420  0.1402 -0.1041  0.2131
50285W        W51149  28.309   1.342   9.991 -0.1949  0.0406  0.2950
50286W        W51150  21.099  24.746  27.324 -0.3029  0.0817 -0.1620
50287W        W51151  21.606   0.234  15.936 -0.0476 -0.2393  0.1337
50288W        W51152  27.991  24.698  18.247  0.3289 -0.2192 -0.2459
50289W        W51153   9.904   9.055  23.687 -0.2619 -0.0907  0.0052
50290W        W51154  22.980  11.160   5.820 -0.0555 -0.0259 -0.4072
50291W        W51155  24.995   6.631  11.860  0.1913  0.0200 -0.0728
50292W        W51156  26.894  21.617   1.550 -0.3346  0.4391 -0.1292
50293W        W51157   2.079  28.642   1.459  0.1800 -0.1702 -0.2804
50294W        W51158  11.729  20.784   2.862  0.0196  0.1261 -0.1304
50295W        W51159  29.137  27.861  25.188 -0.1016 -0.1804  0.2115
50296W        W51160  17.704  21.993   8.246  0.0644 -0.0456 -0.1443
50297W        W51161  18.116  24.949  17.699  0.2179 -0.1720  0.1739
50298W        W51162  10.385   7.037   8.850 -0.0058  0.0972  0.2054
50299W        W51163  10.899  14.436  19.739 -0.0100 -0.1036  0.0592
50300W        W51164  24.472  19.897  17.459  0.1529  0.1300 -0.3807
50301W        W51165  22.517  20.091  27.052 -0.2122 -0.2201  0.1257
50302W        W51166  12.018  28.602   9.901 -0.0575 -0.1281  0.3208
50303W        W51167   2.767  20.031  24.283 -0.2878 -0.1875  0.0199
50304W        W51168  16.206  15.441   6.866  0.0191  0.0320 -0.2875
50305W        W51169   2.995  27.662  16.125 -0.0456  0.1351  0.1149
50306W        W51170  17.993  24.418   3.760  0.0444  0.2061 -0.2720
50307W        W51171   6.900  20.643  28.384 -0.0094  0.3542 -0.4564
50308W        W51172   7.000  29.076  11.237 -0.0583  0.3138 -0.2185
50309W        W51173  23.781  27.559  10.170  0.0842 -0.0903  0.2014
50310W        W51174  12.204  27.608   5.597  0.0256 -0.0193  0.1485
50311W        W51175  11.748   5.353   0.217 -0.0153  0.1234  0.1379
50312W        W51176   1.340   2.509  18.747  0.0196 -0.1016  0.3224
50313W        W51177  15.364  10.927  20.732 -0.0621 -0.0369 -0.1475
50314W        W51178   5.288   4.740  11.296  0.2038  0.0870  0.1984
50315W        W51179  15.894  24.161  19.617 -0.0576  0.0025 -0.1816
50316W        W51180  12.426  10.020   2.978 -0.0618 -0.0622 -0.0368
50317W        W51181   5.720  23.606  24.055  0.4518 -0.0029  0.3152
50318W        W51182  17.538  13.335   0.915  0.0620  0.1323  0.3439
50319W        W51183   7.898   3.256  17.441 -0.0607 -0.0801 -0.0774
50320W        W51184   3.255  12.173  22.996 -0.0218 -0.2278 -0.0407
50321W        W51185  20.457  20.341  28.150  0.0077  0.0018  0.0745
50322W        W51186   2.337  17.872  14.415  0.0188  0.0940  0.0218
50323W        W51187   1.645  11.113   8.020  0.0560 -0.2078  0.2238
50324W        W51188  28.659  26.788   3.863 -0.2271  0.0764 -0.1090
50325W        W51189  28.465  21.717  22.879  0.0553  0.0757  0.0364
50326W        W51190   7.760  16.380   6.837  0.2796 -0.1359  0.0957
50327W        W51191   7.930  17.658   3.239 -0.2654 -0.0679  0.2136
50328W        W51192   6.593  20.676  21.046  0.0407  0.0829  0.1746
50329W        W51193  18.379   7.316  22.852  0.1754  0.1213  0.0793
50330W        W51194  11.069  28.003  16.864 -0.2192  0.1391  0.0618
50331W        W51195   2.051  14.199  15.889 -0.1691  0.0154  0.0760
50332W        W51196  10.575   5.382  28.703 -0.0339  0.2461 -0.1254
50333W        W51197  18.716   9.351  14.208 -0.0795 -0.1255  0.0355
50334W        W51198   3.763  25.465   0.331  0.3192  0.0001  0.2035
50335W        W51199   1.442  27.748  21.637  0.0039  0.0708  0.0693
50336W        W51200  22.860   8.703   4.819  0.0294  0.0093 -0.2196
50337W        W51201  20.941  26.895   3.765  0.1965 -0.2165  0.1407
50338W        W51202  17.850  15.915  27.991 -0.2146  0.2321 -0.0677
50339W        W51203   7.292  25.110  13.780  0.2707  0.1967  0.2382
50340W        W51204  15.004  29.119  17.381 -0.1554 -0.1371 -0.2381
50341W        W51205  10.750  25.330  10.494  0.0944  0.1037  0.0185
50342W        W51206   1.556   4.906  18.326  0.0062  0.1305 -0.1657
50343W        W51207  11.169  19.740  24.836 -0.2440 -0.0240  0.1708
50344W        W51208   2.953  19.379  19.141 -0.0398  0.0650 -0.1279
50345W        W51209  16.126  26.818  18.925 -0.0626  0.0768 -0.0729
50346W        W51210  21.966  22.649   9.424  0.0099  0.1869  0.0065
50347W        W51211  24.042  25.049  17.637  0.0257 -0.0795  0.2635
50348W        W51212   8.174  15.392  18.578  0.0354  0.3742 -0.3876
50349W        W51213  23.798  11.041   4.459 -0.1194 -0.1669 -0.0985
50350W        W51214   6.335  10.798   3.421 -0.0236  0.2826  0.0913
50351W        W51215  25.394  12.455  20.771  0.2645  0.2537 -0.0500
50352W        W51216  10.941  22.971  16.229 -0.0598 -0.1790 -0.2752
50353W        W51217  27.527  22.855   7.179  0.1674 -0.0394 -0.0982
50354W        W51218  27.731   3.935  24.343 -0.1054 -0.0512 -0.3745
50355W        W51219  12.205   5.144  20.268  0.0137 -0.1143  0.0640
50356W        W51220  10.252  12.898   6.639 -0.0341 -0.0797  0.1987
50357W        W51221   4.898   7.826  24.893 -0.1623 -0.0164  0.2197
50358W        W51222  24.143  27.961  18.766 -0.0605 -0.2618 -0.1524
50359W        W51223   3.562  13.630   7.294  0.2344  0.3095 -0.0253
50360W        W51224  13.355  25.239  20.070  0.0375 -0.0978 -0.1900
50361W        W51225   6.267  25.954  13.574 -0.0327  0.0435  0.0322
50362W        W51226  15.113   6.278  22.700 -0.0368 -0.5187  0.2047
50363W        W51227  12.464  27.303   1.598 -0.0464  0.0293  0.0477
50364W        W51228   2.653  13.543   9.077 -0.1634  0.1065 -0.0795
50365W        W51229  11.964   2.868  15.122  0.0277 -0.0232 -0.0060
50366W        W51230  22.139  28.520  28.727 -0.0125  0.2792 -0.2589
50367W        W51231  26.025  11.151  28.230  0.2603  0.2223  0.0199
50368W        W51232   1.101   9.871  10.164 -0.0242  0.1588 -0.1219
50369W        W51233  29.016  15.997   9.883 -0.0144  0.2772 -0.0506
50370W        W51234  27.045  14.123  25.617 -0.1008 -0.1467  0.1987
50371W        W51235  22.159  22.272  24.738  0.0129  0.0467  0.0856
50372W        W51236  28.756  17.408  14.325 -0.4249 -0.0726 -0.1527
50373W        W51237  26.008  18.730  15.717  0.0588  0.0736  0.1240
50374W        W51238   5.965   1.174  19.889  0.2590  0.0563  0.3393
50375W        W51239   9.060  10.304   2.970  0.2389 -0.2647 -0.1153
50376W        W51240  19.995   1.727  11.388  0.0690  0.0526  0.2412
50377W        W51241  20.017  15.478  18.028 -0.2055  0.1782 -0.0079
50378W        W51242  27.385   1.318  15.476  0.1995 -0.0998 -0.0010
50379W        W51243  25.244  21.880  15.136  0.0565 -0.2326 -0.0214
50380W        W51244   7.883   9.655  26.593 -0.1524  0.2060 -0.4340
50381W        W51245   4.130  14.075  18.550 -0.0447  0.2881  0.0184
50382W        W51246  15.770  17.051  11.611  0.0645 -0.1534  0.0133
50383W        W51247  27.642  20.336   8.861  0.0649  0.5074  0.3050
50384W        W51248  24.847  10.598   5.042 -0.0169 -0.3367  0.3051
50385W        W51249  13.143  16.904  14.419  0.0072 -0.0566  0.1859
50386W        W51250  22.123   0.931  12.489 -0.0339 -0.0003 -0.3970
50387W        W51251  17.511  15.153   1.696 -0.3155  0.0236 -0.3148
50388W        W51252   7.117   0.133  18.980  0.6320 -0.2216  0.0528
50389W        W51253  13.775   6.668  13.658 -0.1329  0.0132  0.1718
50390W        W51254   7.927  20.833   3.943  0.1106 -0.0131  0.1159
50391W        W51255   5.123  11.325  10.967  0.0113  0.2735 -0.0946
50392W        W51256  17.715  23.711   6.901 -0.3391 -0.0227 -0.1019
50393W        W51257   7.132  11.851   5.983  0.0241 -0.1343 -0.1676
50394W        W51258   7.560  14.413  15.762 -0.1438  0.0224 -0.0262
50395W        W51259  10.812   1.104  11.738 -0.1384 -0.0443 -0.5632
50396W        W51260  14.632  12.142  14.554 -0.2510 -0.1339 -0.0237
50397W        W51261  25.487  24.299   1.459 -0.1323  0.2762 -0.0546
50398W        W51262   4.728  15.717   9.939 -0.1329 -0.1054  0.3844
50399W        W51263  15.423   1.745   2.789  0.1648  0.3956 -0.0785
50400W        W51264  12.034   8.123  15.300 -0.0177  0.1015 -0.4207
50401W        W51265  18.067  23.986   5.021 -0.0489  0.1076  0.0996
50402W        W51266   8.532   3.838  21.326 -0.1822  0.1976  0.0694
50403W        W51267  28.001   0.845  10.805  0.3934 -0.1259 -0.0473
50404W        W51268  28.712  21.364   1.518 -0.1551 -0.0889 -0.1836
50405W        W51269  22.082  24.951  27.226 -0.3256 -0.3130 -0.1370
50406W        W51270  20.847   1.773  28.816  0.0528  0.4431 -0.3018
50407W        W51271  21.668  28.936   2.839 -0.0534 -0.0154 -0.0655
50408W        W51272   8.677  17.032  13.470 -0.0596 -0.0317  0.1127
50409W        W51273  18.725   7.973  22.177 -0.1664  0.0864 -0.1343
50410W        W51274  24.894  19.809  22.334  0.0424  0.1138  0.1433
50411W        W51275  28.313  28.719  18.056  0.1161  0.2675 -0.2439
50412W        W51276  28.249   6.605   1.406  0.0679  0.0340  0.1865
50413W        W51277  22.637   7.343   6.844  0.3203 -0.0553 -0.2482
50414W        W51278  16.674  17.856  19.543  0.1717  0.1645  0.1861
50415W        W51279  26.026  11.536  18.357  0.4021 -0.2215  0.2201
50416W        W51280  14.401  25.084  23.716  0.1131 -0.1536 -0.4538
50417W        W51281   4.898   2.504   3.685 -0.1853  0.0684  0.1313
50418W        W51282  16.694  21.933  19.501  0.1331  0.2147  0.0212
50419W        W51283   4.530   5.411  23.877  0.2475  0.2089 -0.0541
50420W        W51284   9.066   0.500  20.762  0.2103 -0.0679  0.1826
50421W        W51285   7.955  26.429  25.116  0.0640 -0.1022 -0.0195
50422W        W51286  25.190  21.344   6.886 -0.1239 -0.2556 -0.0054
50423W        W51287   9.298  24.248  22.674  0.0512 -0.2722 -0.2024
50424W        W51288  19.257  10.415  26.136  0.1244  0.2547  0.0064
50425W        W51289  28.826  17.327  25.051  0.1275 -0.1359 -0.2150
50426W        W51290  10.190  23.212  13.535 -0.1787  0.3362 -0.0664
50427W        W51291  17.777  10.419  23.265 -0.2237 -0.1112  0.1642
50428W        W51292  19.689   6.476  13.780  0.0870 -0.4389  0.2391
50429W        W51293  25.399  17.240  12.517 -0.0620 -0.1523 -0.0654
50430W        W51294   4.682  24.254  20.900 -0.1652  0.2101 -0.0038
50431W        W51295   4.056   3.516  13.846  0.2831  0.0873 -0.0545
50432W        W51296   6.933  19.064  10.806 -0.1510 -0.0169 -0.0484
50433W        W51297  23.558  27.921  28.811 -0.0962  0.0572  0.0456
50434W        W51298   2.850  21.066  14.417 -0.0591 -0.1781  0.0636
50435W        W51299  25.539  15.234  23.471  0.1879  0.1598 -0.0963
50436W        W51300  19.815  14.645  17.830 -0.0196  0.0430 -0.0498
50437W        W51301  16.725  26.158  15.260 -0.1458 -0.0598  0.1350
50438W        W51302  25.144  18.937  17.991  0.1551 -0.0239 -0.0558
50439W        W51303  20.659  19.958  14.392  0.0532 -0.1907 -0.3523
50440W        W51304  22.962   8.533  19.927 -0.4126 -0.0600  0.0640
50441W        W51305  28.645   8.872   4.818 -0.2921  0.0020 -0.0824
50442W        W51306  21.947  16.724  23.443  0.1313  0.1656 -0.0590
50443W        W51307   9.004  13.753   5.707  0.4240  0.1454  0.1266
50444W        W51308  10.260  21.579  19.938 -0.0602  0.0902  0.1749
50445W        W51309   2.412   1.839  26.123  0.2833 -0.0857 -0.0838
50446W        W51310   2.360  15.272  26.898 -0.0698 -0.0340 -0.1470
50447W        W51311   4.493  13.873   0.022  0.0188 -0.3126  0.0142
50448W        W51312   0.550  29.047  15.506 -0.0167 -0.1334  0.0471
50449W        W51313   4.823   5.768   9.252  0.2248  0.0231  0.0242
50450W        W51314   4.434   5.832  10.714 -0.0867 -0.2607 -0.0319
50451W        W51315   3.846  27.598  13.255  0.4090  0.1428  0.0696
50452W        W51316   2.898  13.091  17.652 -0.0547 -0.0099  0.2378
50453W        W51317   9.107  22.530   7.875 -0.0360 -0.1742 -0.0694
50454W        W51318  27.811  10.556   3.028 -0.1114  0.1389 -0.2809
50455W        W51319   0.532  26.580  13.943 -0.0221  0.2995 -0.1539
50456W        W51320  11.734  26.456  11.771 -0.1650  0.2945  0.0451
50457W        W51321   3.483  12.720   0.738  0.1808  0.1069 -0.2217
50458W        W51322  28.036  11.455   4.133  0.0598  0.1554  0.0105
50459W        W51323  15.523  26.182   6.098  0.1392  0.0813  0.0517
50460W        W51324   2.922  10.378   4.708 -0.1716 -0.0290  0.0043
50461W        W51325  22.469  14.696  18.553 -0.0950 -0.1831 -0.0813
50462W        W51326   3.317   5.364  11.114 -0.0019  0.0338  0.4290
50463W        W51327   8.410   8.859  12.513  0.1689  0.1099 -0.0570
50464W        W51328   8.612  10.841  17.714 -0.1473 -0.1945 -0.0285
50465W        W51329   6.818   4.414  22.481 -0.1819 -0.0648  0.0714
50466W        W51330  23.971  17.221  26.119  0.2786 -0.0708  0.2870
50467W        W51331  20.219  21.085  22.096  0.0883  0.1837  0.2300
50468W        W51332   0.906  26.913  14.783  0.1778 -0.0110  0.0154
50469W        W51333  18.709  24.354  22.624  0.0253  0.1437 -0.3747
50470W        W51334  12.629  27.549  16.984 -0.0484 -0.1230 -0.0951
50471W        W51335  10.875   3.699  15.047 -0.1538  0.1489 -0.1492
50472W        W51336   8.087  17.766   1.272 -0.2357 -0.3492 -0.3357
50473W        W51337   8.082  28.542  26.153 -0.1070 -0.2053 -0.0554
50474W        W51338  27.339   8.192  22.712 -0.1430 -0.0314  0.1770
50475W        W51339  17.111  21.555  18.135 -0.1190 -0.1474 -0.1597
50476W        W51340  28.124  13.479  13.183  0.0897  0.1520  0.0418
50477W        W51341  14.926   0.630  16.722 -0.1769 -0.0205 -0.1706
50478W        W51342   5.975  26.357   2.173  0.0085 -0.1784  0.0742
50479W        W51343  25.932  27.591   0.398 -0.0523 -0.2101 -0.5767
50480W        W51344   1.528  24.971  14.814 -0.3116  0.1658 -0.1402
50481W        W51345  17.780  19.017   7.228  0.2477 -0.0937 -0.0636
50482W        W51346   3.225   7.395   7.801 -0.0090 -0.2149 -0.0396
50483W        W51347  14.192  12.157  10.257  0.0259  0.0629 -0.1183
50484W        W51348   4.881  26.866  17.301 -0.0255 -0.1948 -0.1059
50485W        W51349   9.379   2.958  17.705 -0.0435  0.0431 -0.0368
50486W        W51350  27.255  11.173  12.355 -0.0451  0.4425  0.1083
50487W        W51351  10.964   7.537   1.146 -0.2770 -0.1343 -0.3730
50488W        W51352  22.806  28.854  28.239  0.1496 -0.3574  0.1244
50489W        W51353   5.048  25.721  22.031 -0.0487 -0.1417  0.0157
50490W        W51354  24.796  29.133  18.213 -0.2825  0.0846  0.2505
50491W        W51355   1.166   9.948  14.260 -0.0732  0.1722  0.0886
50492W        W51356  10.212  23.676  24.460 -0.0899  0.2729  0.2295
50493W        W51357   6.853  21.721   6.103  0.0541 -0.1403 -0.1050
50494W        W51358  11.439   1.234  10.436 -0.1925  0.1864  0.3563
50495W        W51359  17.829   7.450  13.289  0.1283  0.2329  0.1924
50496W        W51360  27.531  16.547  24.469 -0.0323  0.2922 -0.0750
50497W        W51361  26.399   2.596  22.349 -0.0122  0.1177  0.0566
50498W        W51362  10.450  26.035  25.353  0.2071  0.1590 -0.4423
50499W        W51363  12.300  14.482   7.536  0.0595 -0.1136  0.0772
50500W        W51364   1.800  28.199  22.867 -0.0404 -0.2229  0.2021
50501W        W51365   7.939  13.920   6.834  0.3574 -0.0596  0.1124
50502W        W51366   5.322  19.751  15.582 -0.1371  0.0277  0.2272
50503W        W51367  10.133  21.025   8.765  0.0752  0.1266 -0.1147
50504W        W51368  22.495  21.063   5.753  0.1260 -0.2410 -0.0969
50505W        W51369  23.049  21.496  26.551 -0.0619 -0.0638 -0.3361
50506W        W51370  15.745  27.390   4.788  0.1475  0.1191  0.1351
50507W        W51371   5.850  14.961   5.498  0.2085  0.1581  0.1884
50508W        W51372  16.541   5.306   7.475  0.1265  0.1676 -0.0095
50509W        W51373  27.809  14.749  19.982  0.0973  0.0703  0.1188
50510W        W51374   7.635  28.514  16.792 -0.0367 -0.0955  0.2009
50511W        W51375  14.825  13.455  10.780  0.1173 -0.2731 -0.2499
50512W        W51376   5.904  19.097  25.189 -0.0255  0.3593  0.1078
50513W        W51377  15.214   4.802  24.943  0.0201  0.1534 -0.3319
50514W        W51378   7.184   4.654  13.533 -0.5836 -0.0816 -0.0945
50515W        W51379   7.277   7.524  14.953  0.1665 -0.3757  0.0950
50516W        W51380   9.614  14.079  18.356  0.0216  0.5639  0.1691
50517W        W51381   8.085  23.478   8.657  0.0396 -0.2635 -0.1481
50518W        W51382  10.452  22.429  25.942  0.3047 -0.2125 -0.1611
50519W        W51383  26.965  15.126  18.374 -0.1986 -0.1277  0.0435
50520W        W51384  22.761  20.881  12.777  0.3369 -0.2379 -0.1239
50521W        W51385   6.105  24.922   3.445 -0.3086 -0.2158  0.0532
50522W        W51386   9.632  26.822  17.252 -0.0062 -0.0632 -0.1006
50523W        W51387   3.321  25.631  27.793 -0.1111  0.0562 -0.3661
50524W        W51388   8.076  11.905  22.261  0.1713  0.1527 -0.1580
50525W        W51389   9.326   6.905  18.554 -0.1304  0.0689  0.2411
50526W        W51390   0.573  21.616  23.585  0.2584  0.1424 -0.2426
50527W        W51391  27.768   1.074  21.482 -0.0493  0.2767 -0.2528
50528W        W51392  15.933  16.585  25.655 -0.0019 -0.2379  0.0728
50529W        W51393  21.922  20.196  19.230 -0.1205 -0.1505  0.1957
50530W        W51394  14.079  14.053  23.580 -0.0875 -0.0078  0.0954
50531W        W51395  22.841  21.870  22.479  0.0951 -0.1574  0.2916
50532W        W51396  22.637   9.308  27.328  0.2120 -0.0689 -0.0447
50533W        W51397   9.811  22.224  26.782  0.4271 -0.3238  0.1182
50534W        W51398   2.065   4.196  23.056  0.3735 -0.0886 -0.0040
50535W        W51399   5.355  11.486  16.777  0.1173 -0.0156  0.0082
50536W        W51400   1.495  19.877  18.092  0.0109  0.2096  0.3025
50537W        W51401  20.424  14.919  21.141  0.1861 -0.0319  0.1815
50538W        W51402  13.024  16.086  24.695  0.1535  0.3060  0.3198
50539W        W51403  28.687  14.688  23.217 -0.5340  0.4442  0.0183
50540W        W51404  25.533  15.478   8.612 -0.3034  0.0830  0.0830
50541W        W51405  16.151  25.000   2.610 -0.1779  0.1334 -0.2090
50542W        W51406  24.450   7.101  22.517  0.3170  0.0156 -0.1539
50543W        W51407  20.911   1.815  14.499  0.3095 -0.1211 -0.0203
50544W        W51408  10.207   2.371  21.429  0.1524  0.0190  0.0697
50545W        W51409   4.160   2.737  26.632 -0.2575  0.2406 -0.0990
50546W        W51410  15.507  23.426  11.398 -0.0136 -0.0753  0.0382
50547W        W51411   7.196   6.757  22.937 -0.1542 -0.0807 -0.0401
50548W        W51412  14.410  15.104  15.284  0.2278 -0.0452  0.1489
50549W        W51413  21.986   5.449   7.138 -0.1761  0.1317  0.0978
50550W        W51414  19.300   1.403  28.127  0.1532 -0.0316  0.1148
50551W        W51415  27.298  27.531  25.055 -0.3092 -0.2362 -0.2236
50552W        W51416  10.744  21.167   4.675 -0.1259  0.0075  0.2429
50553W        W51417   3.966   5.747  18.844 -0.0258 -0.1390 -0.1406
50554W        W51418   1.086  22.598  19.778 -0.1541 -0.1318 -0.2636
50555W        W51419  24.670   9.737   0.840 -0.4070  0.2937 -0.1165
50556W        W51420   3.749   9.240   6.200 -0.4404 -0.3082  0.2614
50557W        W51421   3.097   7.159  17.717 -0.0844 -0.2651  0.3163
50558W        W51422   6.290  14.505   4.531 -0.1151  0.1562 -0.0322
50559W        W51423   4.109  10.221  25.832 -0.0538 -0.0947  0.1622
50560W        W51424  27.526  27.164  20.750 -0.1145 -0.1327 -0.0259
50561W        W51425   9.020  27.067  15.436 -0.0830 -0.1355  0.0921
50562W        W51426   9.021  28.634  28.031 -0.0232 -0.0831 -0.0818
50563W        W51427  19.272  23.102  22.947 -0.0512  0.0449 -0.0738
50564W        W51428  12.144  11.274   0.894 -0.0664  0.1479  0.1377
50565W        W51429  28.238  17.304  19.650 -0.1392  0.0891  0.0564
50566W        W51430  27.813  20.532  15.896 -0.0997  0.0369 -0.1647
50567W        W51431   9.569  25.911  24.555  0.0237  0.1699  0.1534
50568W        W51432   3.556  25.277  12.020 -0.0124 -0.2158  0.1681
50569W        W51433   4.919  22.617   3.430 -0.0339  0.0279 -0.0778
50570W        W51434  16.181  28.614  16.342 -0.0738  0.1472  0.0020
50571W        W51435  14.760  25.871   5.076  0.0261 -0.1384 -0.1218
50572W        W51436  21.411  18.320  15.809  0.0825 -0.1129 -0.0179
50573W        W51437   1.531  12.327   6.034 -0.0432 -0.1726 -0.0405
50574W        W51438   9.084   0.070  26.285  0.3632 -0.0584 -0.1642
50575W        W51439  12.123   1.715  16.502  0.0742 -0.0859  0.0331
50576W        W51440  13.421   9.526  19.535 -0.0124  0.2237 -0.0409
50577W        W51441  22.710  12.711   3.508  0.2886  0.2877 -0.1267
50578W        W51442  23.167  22.136  22.137  0.4153  0.0852  0.2137
50579W        W51443  28.607  26.795  22.922  0.1401 -0.2244 -0.2279
50580W        W51444   9.080  21.525  15.889 -0.0403  0.3459  0.1770
50581W        W51445  17.073  12.439   2.660  0.1743 -0.1346  0.2426
50582W        W51446  26.448  19.990  14.194  0.3205  0.0016  0.0855
50583W        W51447   7.448   1.435   1.783 -0.1542 -0.1553 -0.0157
50584W        W51448  23.608   5.363  27.850 -0.0655  0.0991  0.1115
50585W        W51449   5.801   5.050   1.248 -0.1733  0.0431  0.0692
50586W        W51450   3.930  19.118  28.232  0.1258  0.0211 -0.0261
50587W        W51451  27.303  24.055  18.263  0.3430  0.2231 -0.0569
50588W        W51452   1.412   7.955   2.117 -0.3580  0.0419  0.0551
50589W        W51453  13.562   0.447   6.752 -0.0880 -0.1778  0.0695
50590W        W51454   5.456  23.122   5.050  0.2373  0.0937  0.2370
50591W        W51455  21.682   9.375   3.943  0.0541 -0.2058  0.2702
50592W        W51456   8.714  18.538   6.825 -0.0958  0.1863  0.0319
50593W        W51457   5.769   4.835   5.236 -0.0245 -0.1194  0.0556
50594W        W51458  15.987  18.412   0.147 -0.0255 -0.0435 -0.1826
50595W        W51459   5.360   7.074  16.483  0.3427  0.0505 -0.2829
50596W        W51460  10.576   7.259   9.294 -0.2531 -0.2242 -0.1605
50597W        W51461  11.775  22.006   4.742  0.2664  0.2178  0.1471
50598W        W51462   3.489  16.500   5.395  0.2596 -0.1251  0.0562
50599W        W51463  20.181  18.084  19.639  0.1268  0.0710  0.3133
50600W        W51464   4.116   2.351  12.066 -0.2465  0.0036 -0.0129
50601W        W51465  22.549  16.933  27.376  0.3140  0.1011 -0.0815
50602W        W51466   1.015  21.601   6.324 -0.2854 -0.1249 -0.0670
50603W        W51467  27.098  23.393  23.904 -0.0636  0.3207  0.3861
50604W        W51468  16.036   1.868   9.576  0.0248  0.0500  0.0254
50605W        W51469   1.722  19.318  23.053 -0.1205 -0.2266 -0.0544
50606W        W51470   4.315  28.273   5.520  0.1746 -0.1675  0.0567
50607W        W51471  25.826  13.744  25.560 -0.0107  0.1078  0.0665
50608W        W51472  24.914  27.841  26.946 -0.4702  0.2097 -0.0877
50609W        W51473  18.292  27.574   8.879 -0.0473 -0.1454 -0.2064
50610W        W51474   2.608  22.484   4.122  0.2844  0.0770 -0.0279
50611W        W51475  10.077   1.792  22.429  0.2205 -0.1145 -0.2965
50612W        W51476   8.771  23.011   9.158  0.0991  0.0914 -0.0974
50613W        W51477   3.648  19.888  15.745 -0.1914  0.2375  0.0993
50614W        W51478  21.460  21.980  12.354 -0.1756  0.2568 -0.4398
50615W        W51479  25.747  16.080  27.854 -0.0390  0.1209 -0.2567
50616W        W51480   6.886  19.601  28.623 -0.0390  0.1421  0.1144
50617W        W51481   0.856  19.823   7.702 -0.0847 -0.0529 -0.1756
50618W        W51482  14.635  21.703  16.610 -0.1964 -0.3454 -0.0895
50619W        W51483  16.713  19.128  28.232 -0.0944 -0.1666 -0.0384
50620W        W51484   6.150  18.294  21.565 -0.0021 -0.2487  0.2794
50621W        W51485  19.268  20.796   2.676  0.0142 -0.0631  0.4517
50622W        W51486  10.896  25.447  28.006  0.0011 -0.2648  0.0854
50623W        W51487  11.063   2.951   8.178  0.1252  0.1189  0.0287
50624W        W51488  12.535   4.393  12.817 -0.0289 -0.3218 -0.0610
50625W        W51489   3.608   3.982  22.904  0.0006 -0.1334 -0.0956
50626W        W51490   3.604  20.926  24.553 -0.0365 -0.0550 -0.1358
50627W        W51491   3.785  25.592  20.100 -0.0044  0.0904 -0.0297
50628W        W51492  17.014   0.112  26.086 -0.0107 -0.1514 -0.0721
50629W        W51493  23.742   7.627  18.174 -0.0583 -0.1310 -0.2263
50630W        W51494  17.788  23.937  25.043 -0.0320 -0.1769  0.1168
50631W        W51495  16.551  26.517   4.162  0.2622 -0.5353  0.2817
50632W        W51496  20.128  22.385   4.419  0.1507  0.2403 -0.0076
50633W        W51497  17.380  27.085  26.594 -0.3717  0.0405 -0.0273
50634W        W51498   4.911  24.665  18.660  0.0185  0.0110 -0.1386
50635W        W51499   5.855  19.219   6.175 -0.0014 -0.0898 -0.3902
50636W        W51500   6.865   6.334  17.907 -0.0063 -0.0442 -0.2535
50637W        W51501  15.219  17.651  23.474  0.1343  0.1496  0.0191
50638W        W51502  12.435   1.240   8.614 -0.0761  0.0486  0.2126
50639W        W51503  26.990  12.913   8.752 -0.1672 -0.1679 -0.0676
50640W        W51504   5.536  25.694  22.273  0.2999  0.0382 -0.0922
50641W        W51505  21.350   1.107  20.407  0.1364 -0.1431 -0.2227
50642W        W51506  21.537  25.041   0.488 -0.3512 -0.3110  0.1947
50643W        W51507  28.218  17.613  16.966  0.1466  0.0734 -0.0010
50644W        W51508   9.462  21.413  26.074 -0.0240  0.2770  0.1117
50645W        W51509  15.929   9.307  17.398 -0.1850  0.0579 -0.0509
50646W        W51510  27.023  29.114   5.840 -0.1569 -0.0914  0.0682
50647W        W51511  18.002  12.705   7.573  0.0013  0.0687  0.1015
50648W        W51512  25.189  14.751   6.140 -0.2045 -0.0106 -0.2124
50649W        W51513   4.897  12.984   1.483 -0.3061  0.0300 -0.1427
50650W        W51514   6.343  14.493   5.053 -0.0730 -0.0026  0.1320
50651W        W51515   8.321   8.597  16.729 -0.0424  0.0201  0.1262
50652W        W51516  27.257  14.695  25.688 -0.0018 -0.0998 -0.0944
50653W        W51517   5.539   1.626  21.344  0.0215  0.1032  0.0708
50654W        W51518  27.030  19.399  21.593  0.1612 -0.0807  0.0080
50655W        W51519  11.021   0.356  25.563 -0.0763 -0.2970 -0.0961
50656W        W51520  24.331   3.432   6.824 -0.1101  0.1182  0.2981
50657W        W51521   4.393  15.635   1.540 -0.0557  0.0395  0.1395
50658W        W51522  11.386   2.035   3.119 -0.2595 -0.1393 -0.0532
50659W        W51523  22.903  24.351  27.403 -0.1607  0.0106  0.1354
50660W        W51524  18.455  12.887   7.302 -0.2609  0.2749 -0.3495
50661W        W51525   6.258   0.485   0.574 -0.0705  0.1242  0.1445
50662W        W51526   1.480  12.974  19.327 -0.0838  0.0558  0.0724
50663W        W51527  11.209  17.272  21.177 -0.0537  0.2809 -0.2622
50664W        W51528   2.620  24.613  12.984  0.3835  0.2091 -0.0883
50665W        W51529  20.518  26.877  21.228 -0.0535  0.0848 -0.1878
50666W        W51530  10.351  13.797  15.912  0.0131 -0.1755 -0.3125
50667W        W51531   6.718  12.618   4.742 -0.0858 -0.2430 -0.0066
50668W        W51532  23.623   2.799   3.039  0.3138 -0.1396 -0.0968
50669W        W51533   8.438  27.335  16.129 -0.2028  0.0418 -0.1854
50670W        W51534  14.739  12.677  23.378  0.1815 -0.3836 -0.5068
50671W        W51535  10.906   8.971  15.546  0.1715  0.0514  0.1151
50672W        W51536   2.694  11.509  16.475 -0.1779  0.0598 -0.0491
50673W        W51537  12.446   1.421  21.058  0.0410  0.1294 -0.2661
50674W        W51538   1.767  22.596   8.424  0.3996 -0.0269  0.1206
50675W        W51539  24.506   4.878   2.593 -0.2864  0.0829 -0.2449
50676W        W51540  13.301  27.606  28.446 -0.2109  0.0883 -0.3677
50677W        W51541   8.738  16.006  17.683  0.0974 -0.1625  0.1540
50678W        W51542   2.039   0.347   5.134  0.0642  0.0316 -0.2073
50679W        W51543  19.400   9.419   3.568  0.0157  0.1723  0.0506
50680W        W51544  22.214   7.684  24.802  0.1321  0.2083  0.2044
50681W        W51545  20.493  23.482  22.333 -0.2556 -0.0786 -0.1068
50682W        W51546  17.007  28.062   3.101  0.1647  0.1906  0.1952
50683W        W51547   2.162  28.233  21.508  0.1208  0.0893  0.0138
50684W        W51548   2.095  28.263  20.039 -0.2921 -0.0656 -0.0865
50685W        W51549  29.002  27.659  12.450 -0.0844 -0.0439  0.1257
50686W        W51550   9.424  13.813  11.479  0.1446 -0.0410  0.0816
50687W        W51551   2.088  25.102  21.506  0.1361  0.2899 -0.0906
50688W        W51552  22.409   8.020  10.195  0.0181 -0.0161 -0.1042
50689W        W51553  26.897  15.341   6.798 -0.2019 -0.2374  0.2106
50690W        W51554   7.599  18.708  23.103 -0.3244 -0.1905 -0.0357
50691W        W51555  27.881  28.544  17.881  0.3126  0.0745  0.0975
50692W        W51556  10.110  23.372   5.696  0.1655  0.1405  0.0641
50693W        W51557   4.527  14.523  19.795 -0.0840  0.1449  0.0542
50694W        W51558   7.293   5.597  14.870 -0.1357  0.0687 -0.1448
50695W        W51559  25.141   1.977  22.247 -0.0067  0.2562  0.3138
50696W        W51560  12.677  20.852  19.900  0.1011 -0.3042  0.2077
50697W        W51561   3.394  27.403  13.214 -0.1389 -0.2280 -0.0834
50698W        W51562   5.349  28.169  24.561 -0.0807 -0.1837  0.0561
50699W        W51563  25.973  28.619   2.230 -0.0511 -0.1003  0.2690
50700W        W51564  12.254   5.572  25.902  0.0882  0.1757 -0.0093
50701W        W51565  12.192   7.829   1.405  0.1624  0.0188 -0.1040
50702W        W51566  26.607   4.174  19.634  0.1873 -0.1139  0.1393
50703W        W51567   1.740  14.823  25.009  0.4137  0.0996  0.0673
50704W        W51568   8.661  15.172  18.734  0.0108  0.3855 -0.2927
50705W        W51569   6.596  13.626  16.219 -0.2517 -0.0177  0.1865
50706W        W51570  26.713  18.848  22.289 -0.2201  0.3221 -0.0541
50707W        W51571  13.427  21.639  21.303  0.0179  0.2737  0.1593
50708W        W51572  22.941  19.258   5.220  0.2058 -0.1400  0.2128
50709W        W51573   1.217  18.726  23.771 -0.2585 -0.0258 -0.2182
50710W        W51574   1.995  11.823   3.153 -0.0988  0.3127  0.0315
50711W        W51575   8.906  23.255   3.932  0.2212  0.1341 -0.2760
50712W        W51576  18.473  14.598  26.435  0.2394 -0.0361 -0.0410
50713W        W51577  13.797  14.986   5.984  0.2982 -0.2158  0.1136
50714W        W51578   2.508   4.387  27.165  0.4405  0.2095  0.0461
50715W        W51579  20.010   9.998  16.459 -0.0839 -0.1241  0.0356
50716W        W51580  13.738  25.890  23.595 -0.2379  0.1784  0.0362
50717W        W51581   0.688  14.125  15.698 -0.0117 -0.0228  0.0703
50718W        W51582  15.158   9.235  12.430  0.1500  0.0110 -0.1937
50719W        W51583   9.582  15.166  13.948 -0.0182  0.1139 -0.0337
50720W        W51584  25.010  21.125  17.212 -0.1589  0.0281 -0.2183
50721W        W51585   1.638  17.723  17.644  0.1726  0.0652 -0.2559
50722W        W51586   0.373  16.459  29.130  0.1431  0.0480  0.1725
50723W        W51587   3.656  23.692  26.620 -0.1683 -0.2489  0.4256
50724W        W51588  11.903   4.835  17.618 -0.0014 -0.1609  0.1730
50725W        W51589   5.563  26.892  22.666  0.1834 -0.0250 -0.0648
50726W        W51590  24.855   4.415  14.865 -0.1017 -0.0479  0.1109
50727W        W51591  25.957  28.455  20.258  0.3391 -0.0910 -0.3123
50728W        W51592   5.683  23.651   3.532  0.0323 -0.4216  0.0266
50729W        W51593   8.342  23.925  22.630  0.0214  0.0013  0.0790
50730W        W51594   9.077  12.933  16.074 -0.0350  0.1663  0.1742
50731W        W51595  18.344  20.529  29.124  0.2980 -0.1223 -0.0171
50732W        W51596  11.996  25.568  23.306 -0.0224  0.1304 -0.1292
50733W        W51597   5.472  12.810  19.434  0.3380 -0.1010 -0.3517
50734W        W51598   6.180  15.684  24.374  0.0798  0.0074  0.1110
50735W        W51599   7.530  12.050   9.287  0.1588 -0.3493  0.1755
50736W        W51600   3.610   2.398   0.818 -0.0729  0.1012  0.2227
50737W        W51601  18.143  26.820  19.142 -0.4675 -0.2331 -0.2235
50738W        W51602  18.430   5.309  12.138  0.0018 -0.3653 -0.1669
50739W        W51603   5.661  12.237  28.914  0.1496  0.2317  0.0390
50740W        W51604  27.332  23.078  24.660  0.2124  0.1965  0.1429
50741W        W51605  23.933  24.226  15.760  0.0560  0.1870  0.1343
50742W        W51606  22.430  12.480  23.611  0.2085 -0.0420  0.0054
50743W        W51607   0.485  11.579  16.080  0.3032 -0.0634  0.1595
50744W        W51608   8.650  25.533   1.326  0.1594 -0.2776 -0.5166
50745W        W51609  28.715   2.188   4.410  0.1143  0.0174  0.1729
50746W        W51610  23.130  16.513  17.937 -0.0874  0.0462  0.1784
50747W        W51611   1.938  14.971  23.064 -0.1258 -0.0752  0.1723
50748W        W51612   9.603  17.173  28.375  0.1946  0.0286 -0.1582
50749W        W51613   3.900  25.339  20.603  0.1590 -0.1903  0.0162
50750W        W51614   5.777   7.321   5.987 -0.0275  0.2733  0.1098
50751W        W51615  28.690  22.945  23.234  0.1709  0.3701 -0.0357
50752W        W51616   4.860  22.535   8.652  0.0597  0.2386 -0.2472
50753W        W51617  27.543  21.420  27.753 -0.0253 -0.0790 -0.1064
50754W        W51618  27.381   8.244  26.312 -0.0302 -0.0779  0.3350
50755W        W51619   0.108  26.678  23.399  0.0687 -0.4077 -0.1222
50756W        W51620  16.130  14.083   0.203 -0.0833  0.1726  0.0122
50757W        W51621   3.048  12.619  14.202  0.0405  0.1895 -0.0502
50758W        W51622   9.877  27.702  11.727  0.3984  0.2184  0.2254
50759W        W51623   9.941  20.384   3.279  0.0955 -0.2739 -0.1582
50760W        W51624   1.089  16.418  26.785  0.1604  0.0600  0.1331
50761W        W51625   4.235  26.527  27.075 -0.1706  0.3941  0.0308
50762W        W51626  26.816   4.798  20.786 -0.1084 -0.2573 -0.1225
50763W        W51627  16.855   5.169  23.982 -0.1007  0.0067  0.0130
50764W        W51628   9.137  17.554  18.215  0.0285  0.0711 -0.3081
50765W        W51629  17.705  18.007  14.337 -0.0461 -0.0620 -0.1015
50766W        W51630  24.744  23.120   3.737 -0.0413  0.3188  0.0895
50767W        W51631  10.926  13.031   0.289 -0.0120  0.0676  0.0001
50768W        W51632   4.114  24.268  27.664  0.0628 -0.1366  0.3466
50769W        W51633   6.438  22.953   9.522 -0.0971  0.2827  0.1248
50770W        W51634  24.203   8.315   6.180 -0.2278 -0.0508  0.0527
50771W        W51635  11.973   4.098  25.351  0.0638  0.0182 -0.1491
50772W        W51636  15.602  27.268   5.747  0.1421 -0.1168  0.0735
50773W        W51637   7.087   3.153  26.115  0.0326 -0.2265  0.3686
50774W        W51638   9.389  26.003  16.313 -0.0009  0.0874  0.0721
50775W        W51639  14.703  23.922   7.381  0.0295 -0.0341  0.2089
50776W        W51640  16.164   2.598  27.630  0.0123  0.0446  0.1160
50777W        W51641   3.651  14.063  20.499  0.0194  0.1182 -0.1584
50778W        W51642  28.346  20.497   2.812 -0.1479 -0.0880 -0.2092
50779W        W51643  10.535  14.997   5.537 -0.3595  0.1636  0.1760
50780W        W51644  14.488   9.323   9.680  0.3341 -0.2290 -0.1856
50781W        W51645   7.698  14.168  20.956 -0.1300 -0.2275  0.2724
50782W        W51646  19.531  16.550  12.266  0.2050 -0.2682 -0.1182
50783W        W51647  11.130  13.775  23.374 -0.1561  0.1094  0.1421
50784W        W51648  25.170  10.837   5.366 -0.0361  0.0749  0.2078
50785W        W51649   8.793  15.540  22.441  0.0905  0.0284  0.4236
50786W        W51650   9.916   6.135  14.583 -0.1591  0.2080 -0.2505
50787W        W51651   7.878  22.745  25.476 -0.0665 -0.2063 -0.0093
50788W        W51652   3.626   4.495   6.249  0.0567 -0.1683 -0.0029
50789W        W51653  18.395  20.544   4.789  0.1639  0.2599 -0.0437
50790W        W51654   5.621   5.749  14.915  0.0939 -0.5891  0.1979
50791W        W51655  13.879   1.500  13.040  0.0536  0.1474  0.2129
50792W        W51656  27.062  10.238  23.217 -0.1396  0.0635 -0.1789
50793W        W51657   0.305   2.538  21.020 -0.0233 -0.0262 -0.1664
50794W        W51658  15.565  17.149  22.676 -0.0298 -0.1423 -0.2567
50795W        W51659  17.426  24.243  23.956  0.3509  0.1483  0.0735
50796W        W51660  23.567  21.466  16.077 -0.2142 -0.1576  0.0847
50797W        W51661  10.482  21.293  23.125 -0.2064 -0.0068 -0.1179
50798W        W51662   2.987  28.567  22.221 -0.0341  0.3280  0.0558
50799W        W51663  12.955  12.658   4.184  0.0778 -0.1387 -0.3687
50800W        W51664  22.614  24.044   3.566 -0.1132 -0.1718 -0.0662
50801W        W51665  11.502   0.214  13.841  0.1225 -0.1925 -0.2662
50802W        W51666   7.649  18.055  26.979  0.1169 -0.1698  0.2923
50803W        W51667  11.145  27.631  27.371 -0.0344  0.3617  0.3586
50804W        W51668  19.671  22.583   7.199  0.1733  0.1062  0.1293
50805W        W51669   8.956  28.271  15.068 -0.3909  0.1272  0.3433
50806W        W51670   0.738  28.042  21.029 -0.0051 -0.0924  0.2411
50807W        W51671  22.371  23.211  15.042  0.2147 -0.0995 -0.0811
50808W        W51672  15.457  28.760  19.861  0.0644  0.4024  0.1473
50809W        W51673   6.085   1.052  20.980  0.1675 -0.1413  0.2005
50810W        W51674   9.232  19.146   3.545  0.3032 -0.0798  0.1921
50811W        W51675   8.707  12.222   3.633 -0.1024 -0.2166 -0.0621
50812W        W51676  10.638  18.610  27.183  0.4732  0.2695 -0.0058
50813W        W51677   4.054   5.123  11.474 -0.3006  0.3497 -0.0043
50814W        W51678   1.606  13.892  15.955 -0.0598  0.2200 -0.0598
50815W        W51679   6.248  26.877  26.339  0.0656 -0.0201 -0.1705
50816W        W51680   4.766  24.601  11.765 -0.1849  0.2801  0.0032
50817W        W51681  26.677  21.571  15.911 -0.0791 -0.2607 -0.0211
50818W        W51682   2.178  23.974  25.615  0.2067 -0.2765  0.3349
50819W        W51683  10.670   8.214  21.495 -0.2864  0.3367 -0.0859
50820W        W51684   5.416  19.230  13.143  0.0624 -0.1634 -0.1768
50821W        W51685   9.011  25.229  21.622 -0.0244  0.3265  0.0755
50822W        W51686   8.414  24.291  23.935 -0.1612  0.2688  0.1198
50823W        W51687   4.188   1.321  23.431 -0.0178 -0.0083 -0.3389
50824W        W51688   0.100  19.111  24.525  0.3246  0.1852 -0.2465
50825W        W51689   6.697  22.275   3.963  0.0556  0.1131 -0.1071
50826W        W51690  24.720  19.592  14.670 -0.2790  0.1196 -0.0736
50827W        W51691  19.534   9.633  17.921  0.1044  0.0437  0.0291
50828W        W51692   3.378  29.047   3.862 -0.1496 -0.2678  0.2028
50829W        W51693   2.330  13.582  17.801  0.1637  0.0569  0.3137
50830W        W51694   3.700  10.383  26.060 -0.2319  0.2023  0.2494
50831W        W51695   0.875  19.937  10.421 -0.0340 -0.0274 -0.0347
50832W        W51696  25.263   3.371   8.812 -0.4213  0.1982  0.3757
50833W        W51697   0.172  23.981  25.206 -0.2491 -0.4794  0.1894
50834W        W51698   8.606   5.057   9.830 -0.1806 -0.0189 -0.0802
50835W        W51699  21.286  18.089   0.318 -0.0986 -0.0193 -0.2572
50836W        W51700  16.889  22.436  14.249  0.1169  0.1389 -0.2209
50837W        W51701   7.701   1.833  14.866 -0.1025 -0.0251  0.0445
50838W        W51702  11.495   8.760  24.629 -0.0268 -0.0007  0.0054
50839W        W51703   5.256   0.059  13.329 -0.2103 -0.0087  0.3713
50840W        W51704   5.318   4.108  12.067 -0.0818 -0.0083  0.0045
50841W        W51705   1.552  27.787  15.822 -0.1404 -0.4763  0.2123
50842W        W51706  16.059  26.453  28.005  0.0635  0.4619  0.0089
50843W        W51707  21.887  25.622   1.089 -0.2033 -0.0316  0.0622
50844W        W51708  17.618  21.505   9.755 -0.1924 -0.2087  0.0169
50845W        W51709   7.222   9.799  27.731 -0.2497  0.3581  0.0703
50846W        W51710  17.238   3.538  24.530 -0.3812  0.0913  0.2191
50847W        W51711  24.816   7.670  10.044 -0.2575 -0.0696  0.3626
50848W        W51712  21.640  23.260  23.730 -0.2772  0.2751 -0.2208
50849W        W51713  21.576  26.959  24.578  0.3316 -0.1032  0.0621
50850W        W51714  17.673  16.236  11.220 -0.0738  0.0541  0.4931
50851W        W51715   3.581  19.961  14.076 -0.2583  0.1601  0.2889
50852W        W51716  20.168  20.917  10.340 -0.0155  0.0926 -0.0126
50853W        W51717  13.440  27.108  18.507  0.0636  0.0742  0.0061
50854W        W51718  18.586   2.925   8.670 -0.4576  0.1052 -0.1686
50855W        W51719  26.528  22.887  21.789  0.0759 -0.0329 -0.0420
50856W        W51720  13.928   6.551   3.747  0.4243 -0.1733  0.1549
50857W        W51721  28.458   5.285   9.303 -0.0558  0.2458 -0.2214
50858W        W51722   0.845   2.206  11.719  0.4264  0.1365  0.0653
50859W        W51723  18.693  20.503  14.181 -0.3239  0.3875 -0.1606
50860W        W51724  23.288  26.346  17.969  0.0049 -0.2852 -0.1230
50861W        W51725  10.602  10.353   6.873 -0.0123 -0.1844 -0.0683
50862W        W51726   1.720   0.622  22.879  0.0465 -0.4379  0.2959
50863W        W51727  17.066  20.623  26.608 -0.2052 -0.0229 -0.1387
50864W        W51728  17.560  24.043  10.825  0.1048  0.0249 -0.2352
50865W        W51729   5.379   5.761  21.223  0.1756 -0.1420  0.0492
50866W        W51730  28.159  13.213   3.669  0.2551  0.1072 -0.1151
50867W        W51731   0.242   2.036  28.838 -0.0150 -0.2772 -0.1619
50868W        W51732  14.611  21.229   7.278  0.1189 -0.1943 -0.2791
50869W        W51733  10.976   2.379   0.716 -0.0654 -0.2160  0.0309
50870W        W51734  28.290  15.667   6.571 -0.1434  0.0946 -0.1991
50871W        W51735  22.925  26.504  12.951  0.0854 -0.2211 -0.0116
50872W        W51736   7.852  21.841  26.147 -0.1037  0.0620 -0.0869
50873W        W51737  26.997  27.586   7.125  0.3596 -0.1097  0.0689
50874W        W51738   0.297  28.392  28.175 -0.1191  0.3460 -0.0685
50875W        W51739  18.899  23.558   8.102  0.2126  0.1312 -0.0257
50876W        W51740  21.045  16.735  27.256 -0.1141 -0.1525 -0.2281
50877W        W51741  22.696  26.975  19.647 -0.0538 -0.0650 -0.0393
50878W        W51742  28.371   6.905  23.672  0.1139 -0.0143 -0.0080
50879W        W51743   0.835   3.364  22.859  0.5202  0.1638  0.1393
50880W        W51744  10.961  27.110  15.588  0.0963 -0.0182 -0.0959
50881W        W51745  24.010   9.252  25.989  0.1488  0.0238 -0.0041
50882W        W51746   3.424   2.586  27.549  0.1181  0.2178 -0.1464
50883W        W51747   4.796   4.457  28.348  0.0007 -0.2211  0.0922
50884W        W51748   3.757   7.433  27.396  0.1587 -0.0325 -0.3871
50885W        W51749  19.229  11.841  20.485  0.1200  0.0379 -0.2704
50886W        W51750   2.492  22.489  27.427 -0.0606  0.4385  0.3316
50887W        W51751  15.095  24.325   4.927 -0.2330  0.2939 -0.1166
50888W        W51752  20.293  27.332   6.333  0.2482  0.2869 -0.1540
50889W        W51753  12.499  18.377  21.822  0.0653  0.0135  0.0293
50890W        W51754  20.919  26.681  27.746 -0.1292 -0.2298 -0.0593
50891W        W51755  14.826  27.309  18.421 -0.1365  0.1623 -0.0768
50892W        W51756  12.781  27.876  25.205  0.0364 -0.0406  0.0559
50893W        W51757  20.461   6.679   9.646 -0.0357 -0.1571  0.1723
50894W        W51758  28.921  27.876  15.328 -0.1059  0.2499 -0.0125
50895W        W51759   8.401  20.017   2.547 -0.0476 -0.0051 -0.1598
50896W        W51760   3.050  16.763   2.974  0.1689  0.3935  0.1878
50897W        W51761   8.697  14.356   0.708  0.1018 -0.3590 -0.0329
50898W        W51762  10.384  10.666   5.336  0.1041  0.2283 -0.4235
50899W        W51763   8.360   3.361  27.417 -0.0111 -0.3005 -0.0708
50900W        W51764  12.870   1.745  26.117 -0.2235 -0.0299 -0.2803
50901W        W51765   2.396   6.594  28.876 -0.0582  0.0861 -0.2646
50902W        W51766  11.513  16.295   4.505  0.2373  0.0739  0.0115
50903W        W51767   7.562   0.119  26.044  0.0544  0.0920  0.0809
50904W        W51768   4.689  24.658  28.828  0.0168 -0.4040 -0.0963
50905W        W51769  14.701  19.139  18.446  0.2123 -0.0614  0.2029
50906W        W51770  24.610  15.476  19.870  0.4543 -0.3191  0.3335
50907W        W51771   5.011   5.298  26.355  0.1029  0.1285 -0.0136
50908W        W51772   6.709   3.873  20.284  0.0756  0.1246 -0.2056
50909W        W51773  24.114  25.725  22.085  0.1197  0.0557 -0.0368
50910W        W51774   3.721  17.203  16.285  0.1264 -0.1378 -0.1316
50911W        W51775  24.729  19.477  21.615 -0.1573  0.0188 -0.4154
50912W        W51776  14.351   7.983  14.626 -0.1737  0.0142 -0.0670
50913W        W51777   7.023   6.954   3.711  0.0863 -0.1006  0.2226
50914W        W51778  25.520  21.741   0.061 -0.2152  0.5627 -0.1442
50915W        W51779  12.269  25.480  26.718  0.0102 -0.0020 -0.0672
50916W        W51780   1.052  17.421   3.799 -0.1583 -0.1853 -0.0169
50917W        W51781   7.564  25.579  16.697  0.1197 -0.1278  0.0594
50918W        W51782  28.350  29.044  13.147 -0.1238 -0.1046  0.0192
50919W        W51783  21.199  17.417   5.338  0.1559  0.1655 -0.1439
50920W        W51784  21.276  14.496  10.811 -0.0249 -0.2465 -0.1199
50921W        W51785   6.170   3.655  25.326 -0.3735 -0.0835  0.1000
50922W        W51786   5.633  28.277   4.758  0.0832 -0.2136  0.0252
50923W        W51787   0.402   6.788   5.020  0.2533 -0.1258  0.3792
50924W        W51788  10.087  16.025   8.177 -0.0906  0.1640  0.0177
50925W        W51789  24.604  24.621  23.997  0.1567  0.0976  0.2244
50926W        W51790  21.874  23.125  12.937 -0.3093  0.1831  0.0268
50927W        W51791   4.273  25.118   1.569  0.0589 -0.0984  0.1264
50928W        W51792   3.934   5.183  24.049  0.0876 -0.0736  0.2434
50929W        W51793  27.751  28.792  15.413  0.1092 -0.2845  0.1567
50930W        W51794   6.081  26.852   0.542  0.0445 -0.0620 -0.2706
50931W        W51795   5.393  22.491   8.138 -0.0154  0.0565 -0.3032
50932W        W51796   7.838  24.982  15.282  0.0849 -0.1574  0.1680
50933W        W51797  13.109  13.205  19.516 -0.1609 -0.0050  0.2589
50934W        W51798   3.510  24.538  14.641 -0.0316 -0.1636 -0.0755
50935W        W51799   5.721  17.548  18.557  0.2046 -0.0652 -0.1909
50936W        W51800  15.904  21.090   4.337 -0.2543 -0.0560 -0.1564
50937W        W51801  27.830  21.287  22.144  0.0465 -0.0685  0.0498
50938W        W51802   7.894  16.337  21.670 -0.2828  0.3051 -0.3108
50939W        W51803   4.998  13.156  12.755 -0.0949  0.1832 -0.2496
50940W        W51804  13.878   6.499  24.977 -0.1812  0.1837 -0.0326
50941W        W51805  28.926  19.418  24.284 -0.2964 -0.0190  0.1323
50942W        W51806  20.935  12.524  26.440  0.0662 -0.2403 -0.1213
50943W        W51807   2.386   7.341   2.099 -0.4020 -0.2224  0.4639
50944W        W51808   6.744   0.277  25.499  0.0210 -0.2228  0.0950
50945W        W51809  17.615   9.553  14.969  0.0890 -0.1972 -0.1112
50946W        W51810  19.914   0.719  22.449  0.0847  0.4345 -0.0258
50947W        W51811  21.295  22.063  12.822  0.1564 -0.0189  0.3261
50948W        W51812   0.459  24.016  17.580  0.2537 -0.0809  0.0470
50949W        W51813  14.098  28.447  11.183 -0.1472 -0.1587  0.0848
50950W        W51814   6.893  25.789  28.726 -0.1187  0.1975  0.1854
50951W        W51815  15.145  22.223   1.342  0.1442  0.0479  0.1856
50952W        W51816  15.997   2.604   4.310  0.0695 -0.3254  0.2738
50953W        W51817  12.575  28.635   5.115 -0.2666  0.2645  0.4363
50954W        W51818  24.832  12.039  22.022  0.2663 -0.3022 -0.1634
50955W        W51819  14.968  29.051  16.293  0.1755  0.1614  0.2687
50956W        W51820  15.854  23.145  17.740 -0.0101  0.2071 -0.0880
50957W        W51821  22.003  13.628  13.485  0.1068  0.0333 -0.1798
50958W        W51822   4.889  23.603  25.553 -0.0954  0.0449 -0.1569
50959W        W51823  27.542  17.702   1.100 -0.0355  0.1796  0.1273
50960W        W51824   4.858  25.942   6.832  0.1216  0.1407  0.1318
50961W        W51825   6.187  20.527  14.171 -0.0493  0.0254 -0.1163
50962W        W51826  26.362   6.893  13.502  0.2670 -0.5323  0.1555
50963W        W51827  25.279  19.370   2.037  0.0494 -0.0968  0.2491
50964W        W51828  10.505  22.674  14.848 -0.0972 -0.0228 -0.1610
50965W        W51829   9.706  12.672   5.657 -0.0704 -0.0648  0.3214
50966W        W51830  14.653  22.588  17.479  0.1312  0.1508 -0.0208
50967W        W51831  10.333  15.640   9.887  0.1939  0.1881  0.1735
50968W        W51832   3.924  19.026  19.199 -0.0093  0.1835  0.1141
50969W        W51833  25.315  27.093   2.969  0.1836  0.1266 -0.1887
50970W        W51834   5.092  11.594  22.691 -0.2851  0.0603 -0.1558
50971W        W51835  18.191   6.799  28.257  0.3897 -0.2813  0.0380
50972W        W51836   7.314   8.715  18.540 -0.1626 -0.3003 -0.3313
50973W        W51837  25.462   9.853  20.570  0.2849 -0.0746  0.2230
50974W        W51838  11.855   4.591  25.610 -0.0450  0.1151  0.0413
50975W        W51839   8.526  22.316  23.096 -0.2607 -0.1821 -0.0740
50976W        W51840   2.164   3.369  27.049 -0.2416  0.2733  0.3027
50977W        W51841  17.762   7.388  21.011  0.0942  0.0387 -0.0170
50978W        W51842   3.469  20.484  24.335  0.2853  0.0623  0.2595
50979W        W51843  25.689  12.663   7.271  0.0149  0.2517 -0.0984
50980W        W51844  14.408  14.138  10.682  0.0447  0.0862 -0.3535
50981W        W51845  17.817  17.274  23.886  0.1868 -0.1245 -0.0120
50982W        W51846  16.756  16.379  27.346  0.2663  0.2322 -0.0976
50983W        W51847  27.790  17.499   2.844  0.1631 -0.1201 -0.1930
50984W        W51848   5.091  11.504  15.160  0.0198 -0.1615  0.1253
50985W        W51849  21.113  16.816   6.527  0.0016  0.1405 -0.1181
50986W        W51850  15.214  10.684   5.616  0.0568  0.0401  0.0999
50987W        W51851  21.939  24.757  19.203  0.1437 -0.1639  0.1038
50988W        W51852   9.293  14.521  24.784  0.0928 -0.3087 -0.0198
50989W        W51853  15.968  22.295  20.377  0.0200  0.1276 -0.1582
50990W        W51854  12.553  21.354  15.824  0.1119  0.4182  0.0623
50991W        W51855  28.959   4.296   4.869  0.0811  0.1968  0.0716
50992W        W51856   2.141  21.422  10.154  0.0502 -0.0755 -0.0944
50993W        W51857  16.450   2.280  20.400  0.1236 -0.1406 -0.1531
50994W        W51858  20.976   4.677   7.504 -0.0542 -0.1152 -0.1275
50995W        W51859  27.840  10.078   6.766  0.0349  0.2918  0.0529
50996W        W51860  11.172   5.351   8.831 -0.0725 -0.1677  0.1498
50997W        W51861  13.724   8.766  11.442 -0.2919  0.0143 -0.0945
50998W        W51862   3.974   5.305  12.571  0.3075 -0.2588  0.1364
50999W        W51863  28.806   9.294  15.458  0.3775  0.0620  0.2944
51000W        W51864   4.321  13.225   5.332 -0.0424  0.1017 -0.1276
51001W        W51865   6.107   5.502  28.993 -0.2272  0.3737 -0.0768
51002W        W51866   0.240  27.881   7.150  0.2627 -0.1828  0.2165
51003W        W51867  26.203   2.268   0.297 -0.1871  0.2719 -0.2312
51004W        W51868  17.457  13.178   0.321  0.1657  0.0358  0.0707
51005W        W51869   1.857  24.148  15.368  0.0787  0.0136 -0.3816
51006W        W51870   9.880   0.515  27.174 -0.0785  0.1191  0.0419
51007W        W51871  11.216  23.981  21.529 -0.0663 -0.0814 -0.2324
51008W        W51872  21.174   3.703   5.700 -0.0982  0.4645 -0.2337
51009W        W51873  27.831  24.474   5.530 -0.1171 -0.4097 -0.1451
51010W        W51874   1.308  24.733   3.139 -0.1348 -0.3968  0.0500
51011W        W51875  26.161  22.222  13.321  0.1775 -0.0796 -0.1258
51012W        W51876   3.443  24.257  25.157  0.1161 -0.5743  0.2792
51013W        W51877  20.581  25.370   8.755 -0.0821  0.2076 -0.1642
51014W        W51878  23.187   1.007  25.658 -0.0093 -0.0514  0.3148
51015W        W51879   8.743   2.977  21.837 -0.0158  0.0855  0.0124
51016W        W51880  23.796  26.795  16.798  0.0682  0.0857 -0.0632
51017W        W51881  12.101  20.535  19.148 -0.1503 -0.2736  0.2863
51018W        W51882  13.618   3.541   3.912  0.1198  0.2050 -0.3927
51019W        W51883   2.948   8.629  10.609  0.1186  0.1169 -0.2086
51020W        W51884  25.329  21.784   4.232  0.0443  0.1794 -0.0119
51021W        W51885   0.199  23.173  25.058 -0.0126 -0.1082  0.0586
51022W        W51886  16.414  12.371  24.210 -0.0136 -0.0981  0.0887
51023W        W51887  14.335  16.749   0.672  0.1446 -0.1666 -0.1917
51024W        W51888   9.370   0.572  27.206  0.1080  0.2934 -0.0122
51025W        W51889   2.546  19.346  20.215  0.0893 -0.0722 -0.1122
51026W        W51890  11.017  27.682  10.778 -0.3123  0.0369 -0.0053
51027W        W51891  25.597  14.596   5.582  0.1374  0.0259  0.0135
51028W        W51892  25.190   5.588  12.540 -0.3588 -0.2121  0.0144
51029W        W51893  27.061  28.690   5.519 -0.2083 -0.1837  0.0197
51030W        W51894  26.651  23.680  29.095  0.0256 -0.0472 -0.1944
51031W        W51895  11.179   5.287  14.033  0.0903 -0.1989  0.0871
51032W        W51896   9.357   6.377   8.186  0.3971  0.0325  0.1900
51033W        W51897   6.731   1.258  27.675  0.2133 -0.3235 -0.1842
51034W        W51898  27.070   5.024   9.078  0.0823 -0.1321  0.1483
51035W        W51899   7.768   7.286  25.026  0.2910  0.0336  0.0142
51036W        W51900  27.934  19.187  16.206  0.0683 -0.1399  0.1618
51037W        W51901  23.176   0.027  25.617  0.0407  0.1718 -0.5400
51038W        W51902  13.222   1.710  11.028  0.0784 -0.0874  0.1214
51039W        W51903  28.437  23.355  28.318 -0.1904  0.2997  0.1487
51040W        W51904  10.920   5.778   8.985  0.4127  0.1336 -0.1717
51041W        W51905  17.545   0.352  10.905 -0.2538  0.1312 -0.0779
51042W        W51906  12.594   0.472  23.756  0.1783 -0.2007  0.0310
51043W        W51907  25.900   0.122  21.303  0.1861  0.0883  0.0584
51044W        W51908  18.924  27.283  13.732 -0.3934  0.0018  0.1861
51045W        W51909  17.816  24.654  18.739 -0.3702 -0.2255  0.0668
51046W        W51910   7.142  26.164  27.032 -0.1404 -0.0228  0.3287
51047W        W51911  25.912  11.234  20.592 -0.1479 -0.2510  0.0863
51048W        W51912  17.106  25.668  17.004  0.1126  0.0152  0.0401
51049W        W51913  24.441   2.621  15.424  0.3195  0.2919  0.1162
51050W        W51914   7.984  20.642  14.059  0.1814  0.0558 -0.1809
51051W        W51915  27.246  10.108  12.376  0.2473 -0.1590 -0.1402
51052W        W51916   8.121   8.689  19.331 -0.2507  0.0401  0.1297
51053W        W51917  25.493  25.015  21.186 -0.0194  0.2169 -0.0999
51054W        W51918   4.042  28.743   8.938  0.0063 -0.1325  0.1455
51055W        W51919  15.073   5.467   2.678  0.1748  0.0818  0.2023
51056W        W51920   3.054   0.967  13.336  0.2316 -0.0123  0.0307
51057W        W51921   4.709  28.778  28.615  0.1121  0.0696  0.0738
51058W        W51922  15.564   1.829  12.686  0.0512 -0.1302  0.1187
51059W        W51923  22.045   7.775   5.521  0.3503  0.1806  0.0267
51060W        W51924  23.231  18.617  14.948  0.0658  0.1777  0.1369
51061W        W51925  12.123  10.644  12.592  0.2635 -0.1381 -0.1916
51062W        W51926   7.056  14.626   0.963 -0.1838 -0.5405 -0.2479
51063W        W51927   4.965   3.405  14.919  0.0494  0.3717 -0.0039
51064W        W51928  25.679   3.003  15.659  0.0959 -0.4527 -0.0677
51065W        W51929  13.851   3.748  13.094 -0.1939 -0.1904  0.2014
51066W        W51930   7.769  28.471  28.098  0.2645 -0.1231  0.1145
51067W        W51931  19.640  28.326   4.028 -0.1459 -0.2308  0.0628
51068W        W51932   7.247   0.882  26.437 -0.1438  0.1648  0.0517
51069W        W51933  28.864   1.402   0.386 -0.1483  0.1040  0.2291
51070W        W51934   2.626   5.150  26.327 -0.0448 -0.2049  0.0774
51071W        W51935  26.790   8.944   0.811  0.0218 -0.1650 -0.0835
51072W        W51936   2.017  12.628   3.216  0.0643  0.0734 -0.0281
51073W        W51937  26.190  24.009  26.317 -0.2165  0.3282 -0.0019
51074W        W51938   7.916   5.749   2.446 -0.2009 -0.2162  0.0346
51075W        W51939  23.141   4.028   4.680 -0.0755  0.0558  0.0949
51076W        W51940   8.765   8.161  19.860 -0.2395  0.0791 -0.1145
51077W        W51941  16.760   9.381   0.481  0.1705  0.3520 -0.1906
51078W        W51942  11.186   1.519  14.762  0.0308 -0.2737 -0.0913
51079W        W51943   4.448  28.797  19.519  0.0251  0.1104  0.0489
51080W        W51944   9.000  26.823   1.234 -0.1898  0.0921 -0.0605
51081W        W51945  24.193  25.569  13.459 -0.1361  0.2078 -0.3482
51082W        W51946  24.516   2.405  27.208 -0.0802  0.1641 -0.0109
51083W        W51947  22.480  28.054  22.718  0.1406 -0.2972  0.1021
51084W        W51948  25.551  22.324  21.910 -0.0900  0.0720  0.3273
51085W        W51949  20.456   4.950   4.391  0.1955 -0.2070 -0.1542
51086W        W51950   2.125  18.715  24.957 -0.1755  0.0142  0.0260
51087W        W51951  11.906  24.309   3.809  0.0636 -0.1711  0.0256
51088W        W51952  21.227  14.631  25.790  0.3599 -0.0613 -0.0812
51089W        W51953  15.429  17.261  21.898  0.0432  0.3222  0.1964
51090W        W51954   0.904  18.348  16.634 -0.1559 -0.3144 -0.2456
51091W        W51955   5.549  17.845  23.057 -0.0918  0.0633  0.1884
51092W        W51956  27.098  19.272   5.339 -0.0383 -0.1143  0.0087
51093W        W51957   3.487  18.287  23.694 -0.1307  0.1020 -0.3127
51094W        W51958  28.742  25.683  18.970  0.0128 -0.1987 -0.2195
51095W        W51959  25.310  23.430   6.746  0.1722 -0.0675  0.1227
51096W        W51960  25.222  20.974   6.003  0.1377 -0.4167  0.0382
51097W        W51961  12.827  12.961  27.569  0.2349 -0.1164 -0.0627
51098W        W51962  26.000  23.042  25.350 -0.0372  0.0447  0.0334
51099W        W51963  22.867   5.095   3.155  0.1531  0.3095  0.2341
51100W        W51964  10.307  14.873   0.403 -0.0156 -0.0494  0.3061
51101W        W51965  13.174  13.260   0.407 -0.0952 -0.2580 -0.0912
51102W        W51966  16.139   9.588   2.253  0.1637 -0.0923  0.0165
51103W        W51967  11.720  12.971  17.828  0.0984  0.1754  0.1584
51104W        W51968  24.470   4.103  20.263  0.3237 -0.5021 -0.0356
51105W        W51969   9.970   1.675   6.903  0.1232 -0.3437 -0.3046
51106W        W51970  14.272  17.819  24.813 -0.1805 -0.0590  0.1944
51107W        W51971   9.829   2.632  14.290  0.2023 -0.0630 -0.0672
51108W        W51972  27.479   3.848   5.913 -0.1003  0.1371  0.1388
51109W        W51973  18.086  18.255  16.366  0.0648  0.1745 -0.3016
51110W        W51974   7.101  10.988   7.239  0.1278  0.1798 -0.1363
51111W        W51975  27.849   8.161   8.988 -0.1332 -0.2565 -0.5074
51112W        W51976  12.143  28.719   5.377 -0.0822  0.1871 -0.2757
51113W        W51977  26.937  28.976  22.365 -0.1826 -0.2531 -0.2710
51114W        W51978   8.783   5.957   1.265  0.2177 -0.2482  0.2703
51115W        W51979   8.066  28.589  21.503  0.0981 -0.0583 -0.0411
51116W        W51980   6.422   8.242  17.791  0.0596  0.0105 -0.0741
51117W        W51981  21.870  18.325  17.279 -0.2055  0.5286  0.2303
51118W        W51982   8.939   5.029  16.858  0.1069  0.3584 -0.1123
51119W        W51983  22.388  15.676  10.500  0.0885 -0.1558 -0.2132
51120W        W51984   1.094  13.281   1.411  0.0833 -0.1528  0.1938
51121W        W51985   9.787  14.460  27.573 -0.1099 -0.1408 -0.1471
51122W        W51986  26.614  22.543  26.830 -0.0094  0.2635  0.1651
51123W        W51987  16.072  21.633  20.734  0.2645  0.1530  0.2498
51124W        W51988   3.457  15.501  22.688  0.2321 -0.0052  0.1368
51125W        W51989   0.429  20.230  17.832 -0.3998 -0.0599 -0.0783
51126W        W51990  27.745  22.851  15.318  0.0511 -0.1238  0.0071
51127W        W51991  14.947   8.790  18.155 -0.0854  0.3051 -0.0202
51128W        W51992   5.928  11.824  14.878 -0.2095 -0.0970  0.0239
51129W        W51993  15.124  25.387   3.464  0.1001  0.0809 -0.0803
51130W        W51994  28.446  21.821  18.312  0.2583 -0.0351 -0.2940
51131W        W51995  13.064  10.155   5.149  0.1074 -0.1204  0.1758
51132W        W51996  13.455  21.178  25.289  0.2625  0.1247 -0.0430
51133W        W51997   8.077  17.440  17.142  0.0376  0.2742 -0.0509
51134W        W51998  23.223  21.889   9.583 -0.1831  0.1253  0.3362
51135W        W51999   2.383  17.206  15.343  0.1101 -0.0309 -0.0429
51136W        W52000  24.929  11.857  24.127 -0.0189  0.1946  0.0900
51137W        W52001   2.007   0.536  28.106  0.1567  0.4307 -0.0063
51138W        W52002   1.655  12.309  12.267 -0.1786 -0.0273 -0.2313
51139W        W52003   2.554  27.765   1.430 -0.1340 -0.1630  0.0650
51140W        W52004  10.903  11.897  16.210 -0.0186  0.1842  0.0250
51141W        W52005  13.356  24.125   9.973 -0.4395 -0.3031 -0.1219
51142W        W52006   2.257  23.276   5.337  0.1166  0.1616 -0.2036
51143W        W52007  28.185  16.089  12.429  0.0263 -0.2733 -0.3035
51144W        W52008   1.569   0.671   1.277  0.0948  0.0602  0.1008
51145W        W52009  16.819   7.244  28.087 -0.0586 -0.0620 -0.3695
51146W        W52010   2.415  23.888   7.302 -0.0309  0.0121 -0.3051
51147W        W52011  23.816   5.016  19.186 -0.0123  0.0668  0.0347
51148W        W52012  25.354  18.094  23.902  0.0151  0.0824 -0.1106
51149W        W52013  10.917  19.616   5.217 -0.1722  0.1938 -0.0765
51150W        W52014   6.835  16.342   2.586  0.2444  0.0517 -0.0301
51151W        W52015   9.678  21.180  21.624 -0.1027  0.3058 -0.0435
51152W        W52016  17.116  15.085  22.033 -0.0755 -0.1493  0.1264
51153W        W52017  18.587  26.816   4.090 -0.3306  0.1381  0.0565
51154W        W52018  15.143   5.490  22.234  0.1958 -0.1324  0.1116
51155W        W52019  29.096  28.885  11.836 -0.0590  0.0589  0.3087
51156W        W52020   8.131  19.861  27.919  0.1539  0.0138 -0.3286
51157W        W52021  24.884   8.216   8.101  0.0807  0.6023  0.3502
51158W        W52022  28.292   8.478  27.811  0.0296  0.1317  0.3121
51159W        W52023  19.750  13.735   6.198 -0.0920 -0.1037  0.3021
51160W        W52024   7.349   6.921   4.933  0.1704  0.0589 -0.0859
51161W        W52025  19.757  20.852   9.544  0.0778 -0.0166 -0.0012
51162W        W52026  27.457  15.379  11.494 -0.1498  0.2690  0.0055
51163W        W52027  10.014  28.768   3.317  0.5441 -0.0865 -0.1324
51164W        W52028   5.600  18.792  26.040 -0.2353  0.0919  0.1087
51165W        W52029   9.391  23.520  25.602 -0.4302  0.1080  0.2129
51166W        W52030   1.624  25.987   7.782  0.0405  0.1051  0.0743
51167W        W52031  26.150   1.387  28.728  0.0230  0.1843 -0.0178
51168W        W52032  26.693  22.924   8.782 -0.0288 -0.0827  0.3169
51169W        W52033  16.590  14.684   0.827 -0.3105  0.0243 -0.0755
51170W        W52034  12.097  28.480  20.349 -0.3448  0.1934  0.0047
51171W        W52035  17.879  29.055  21.223 -0.1962  0.0856 -0.0998
51172W        W52036  17.342   4.670   4.770 -0.1346  0.4941 -0.0398
51173W        W52037  28.286  26.322  11.761  0.3056 -0.1127  0.1958
51174W        W52038   5.736  24.732   1.559  0.0746 -0.1274 -0.0329
51175W        W52039   7.598  12.267   3.062  0.1541  0.1650  0.2545
51176W        W52040   4.975  21.300  23.790  0.0122  0.1911 -0.4222
51177W        W52041  20.279  25.624   1.975 -0.0826  0.0515  0.0928
51178W        W52042   3.163  18.190   5.869  0.0691 -0.0967  0.1590
51179W        W52043   9.401  17.755  15.653  0.4355 -0.0134  0.1655
51180W        W52044  13.363   2.395  27.632  0.1963 -0.1714  0.1768
51181W        W52045   7.225   8.949  26.593 -0.0795 -0.1734 -0.2895
51182W        W52046   2.121   1.314  17.114  0.2857 -0.3464  0.2585
51183W        W52047  10.157  11.583   0.832  0.0896 -0.0723  0.2415
51184W        W52048   8.073  26.852  17.657 -0.1140  0.0564  0.1173
51185W        W52049  22.581  28.009  23.250 -0.1205  0.0199  0.1766
51186W        W52050  19.313   5.047   2.437  0.1734 -0.0170  0.1843
51187W        W52051  17.216  10.912  25.021  0.2004  0.2333  0.2769
51188W        W52052  14.888  19.728  16.061 -0.2804 -0.1875  0.0048
51189W        W52053   6.890  18.720   1.345  0.0158  0.1487 -0.0186
51190W        W52054  12.417   4.023   2.391 -0.0115 -0.2567 -0.0393
51191W        W52055   8.701  27.240  12.719 -0.2324  0.0788  0.0321
51192W        W52056   7.083   0.843  27.708 -0.1637 -0.1923 -0.1336
51193W        W52057   1.829   1.052  17.396 -0.3387 -0.0897 -0.3393
51194W        W52058   9.533   0.342   4.391  0.2940 -0.0832  0.1126
51195W        W52059  19.619  28.915   2.983  0.0057 -0.2296 -0.0227
51196W        W52060  28.473   1.792  10.839  0.2850  0.0269  0.1053
51197W        W52061   6.657  15.230  17.864  0.3039  0.1319 -0.0655
51198W        W52062  14.461  24.938   2.344  0.1090 -0.3454  0.0007
51199W        W52063  19.954   6.059  26.760 -0.3296  0.0978 -0.1233
51200W        W52064  28.956  19.264  14.341 -0.1427  0.0145  0.3064
51201W        W52065  28.795  17.223  16.219 -0.2541  0.1083  0.0578
51202W        W52066   1.640  25.603  25.117 -0.0434  0.0463  0.2009
51203W        W52067  15.911  13.110   1.202 -0.1863  0.0790 -0.0403
51204W        W52068  21.049  25.798  16.591 -0.0876 -0.1343  0.0088
51205W        W52069   0.969   3.978  22.322  0.2939  0.1286  0.3674
51206W        W52070  16.857  15.672  26.891 -0.1717  0.2169 -0.1364
51207W        W52071  10.695   2.101  11.033  0.0195  0.3418  0.0691
51208W        W52072  10.598   2.751   8.028  0.0984 -0.0505  0.0499
51209W        W52073  15.764   3.286  17.384 -0.1794  0.0130  0.0826
51210W        W52074   1.131   8.286  10.587 -0.0792 -0.1966 -0.3960
51211W        W52075  26.616   0.298  18.952  0.2542 -0.1725  0.1883
51212W        W52076   8.644   1.017  25.095 -0.2920  0.0576 -0.3372
51213W        W52077  28.231  16.332   6.810  0.0877 -0.2306  0.1818
51214W        W52078  12.819  28.110   3.535  0.2248  0.0992  0.0376
51215W        W52079  12.326   7.406  28.632 -0.1934  0.0626 -0.0071
51216W        W52080  11.246  20.882  11.897  0.4418 -0.0158 -0.0206
51217W        W52081  18.628  20.503   2.179 -0.0643 -0.0603  0.2321
51218W        W52082  24.134   5.059  25.939 -0.0897 -0.0603  0.1639
51219W        W52083   6.500  12.562   9.788  0.1758  0.1441 -0.1011
51220W        W52084   7.430   3.883  22.939  0.0422  0.1804 -0.0132
51221W        W52085   6.925  15.411  11.127  0.0935  0.1607  0.0720
51222W        W52086  12.370  12.995   0.744  0.0266 -0.0032  0.1323
51223W        W52087  29.055   0.288  12.930  0.0441 -0.3341 -0.0712
51224W        W52088  10.432  22.920   1.610  0.0159 -0.0422 -0.1579
51225W        W52089   5.565  25.312  22.648  0.2053 -0.1032  0.1061
51226W        W52090  15.271   2.784   9.618  0.1935  0.1425  0.0431
51227W        W52091  28.745   9.104  25.387 -0.1339  0.2444  0.2043
51228W        W52092   8.426  27.638  27.693 -0.0767  0.0074 -0.1655
51229W        W52093  14.647   2.814  24.224  0.1556 -0.1268 -0.1073
51230W        W52094  12.411  18.335  20.321 -0.0912  0.1004  0.1193
51231W        W52095   7.202  28.954  26.422 -0.1258 -0.1172 -0.0419
51232W        W52096  25.789  18.369  10.492  0.1225  0.1538  0.0751
51233W        W52097  21.782   6.774  22.536  0.0158  0.0650 -0.1202
51234W        W52098   6.819  23.894   3.862 -0.0454  0.2191 -0.5026
51235W        W52099  12.088   8.764   6.414  0.2000  0.1230 -0.4523
51236W        W52100   4.554   1.278  25.625  0.3862  0.1321  0.2483
51237W        W52101   2.335  20.029   2.785 -0.1011 -0.2698  0.0008
51238W        W52102  26.484  28.083  25.262  0.0540  0.0062  0.0844
51239W        W52103  10.008   4.018  22.170 -0.1298  0.0506 -0.1181
51240W        W52104  12.626  23.208   9.476  0.0651  0.2491  0.2147
51241W        W52105  19.148  29.034  28.115 -0.2719 -0.3490  0.1275
51242W        W52106   4.117  19.472   6.358  0.2698  0.2937  0.0955
51243W        W52107   1.218   3.107  14.426 -0.1733 -0.0478 -0.0309
51244W        W52108   7.393  28.913  14.242  0.0642 -0.1828 -0.1404
51245W        W52109  10.732  10.267  15.992  0.1146  0.1844 -0.1420
51246W        W52110  13.493  27.561  18.656  0.0965 -0.2159  0.0083
51247W        W52111  26.468  18.835   0.377  0.2911  0.1811 -0.1457
51248W        W52112  26.889   1.595   9.822  0.2102 -0.1504 -0.0374
51249W        W52113  14.660  26.015  11.522 -0.1546  0.0091 -0.1267
51250W        W52114   9.928  24.068  15.378  0.1102 -0.2030  0.1218
51251W        W52115  27.377  28.332  17.777  0.3424  0.1051 -0.2485
51252W        W52116  16.203  27.839  26.339 -0.0863 -0.1276  0.2038
51253W        W52117   8.133  28.157  26.911 -0.0121 -0.0288  0.1468
51254W        W52118   0.069   6.221  15.729  0.0505 -0.1151  0.0947
51255W        W52119  19.386  11.961   9.079 -0.3175 -0.4106 -0.0224
51256W        W52120  19.906  18.268  10.919 -0.2052 -0.1306 -0.3215
51257W        W52121  22.854  22.200  15.418 -0.0994 -0.3193  0.0462
51258W        W52122  21.631   1.116  21.261  0.3267  0.0906 -0.1543
51259W        W52123  15.121  14.010   1.910  0.4012  0.0765 -0.0378
51260W        W52124  12.178   0.430  26.909  0.1219  0.1313  0.0177
51261W        W52125   7.049   1.664  15.374 -0.0550  0.5404 -0.2696
51262W        W52126   6.227   9.831  19.353  0.0773  0.0627 -0.2027
51263W        W52127   9.472  17.304   9.426 -0.1166  0.2924  0.2139
51264W        W52128  13.588  21.079   4.120  0.1260  0.0058  0.0815
51265W        W52129   0.148  25.090   8.072  0.1533 -0.2724 -0.0192
51266W        W52130  15.810   3.538  14.870 -0.1632 -0.2573  0.3509
51267W        W52131   4.588  28.770  14.346 -0.0779 -0.4012 -0.1335
51268W        W52132  19.385   6.666  24.643  0.0181 -0.2424 -0.2437
51269W        W52133   6.925  25.343  19.711  0.2562  0.0387  0.0692
51270W        W52134   5.158  28.741  14.309 -0.2709  0.1894 -0.1929
51271W        W52135   5.766  17.796  21.743  0.2498  0.2069  0.1754
51272W        W52136  10.266  14.071  28.819 -0.1969  0.1619  0.0947
51273W        W52137  10.279  26.363   0.972 -0.0252 -0.2371  0.1906
51274W        W52138   4.630  10.964   2.842  0.3382  0.1671 -0.0872
51275W        W52139  14.438  25.490  22.918  0.1827 -0.1543 -0.1562
51276W        W52140  16.751   3.878  28.780 -0.0212  0.1333  0.0339
51277W        W52141   4.765   1.393  16.475  0.0146  0.1963  0.0501
51278W        W52142  12.716  18.619  25.155 -0.0703 -0.0072 -0.2031
51279W        W52143   1.161   0.367  16.259 -0.1019  0.1390  0.1034
51280W        W52144  20.910   2.518   1.744  0.0788 -0.1310  0.0888
51281W        W52145   1.328  27.857   5.717  0.2972  0.0201  0.1572
51282W        W52146  17.784   0.501   7.516 -0.0518 -0.3605 -0.0566
51283W        W52147  28.478  26.461   3.469 -0.0569 -0.2795 -0.0979
51284W        W52148   3.952   1.895  23.193 -0.3284 -0.0326 -0.2591
51285W        W52149   6.975   1.790  10.601  0.0439 -0.1892 -0.3353
51286W        W52150   7.385   4.307  11.802  0.1443 -0.1799 -0.2772
51287W        W52151  24.461   4.127   9.445  0.4645  0.2328 -0.0192
51288W        W52152  24.068  24.800  25.368 -0.0619 -0.1008  0.0316
51289W        W52153   0.586   3.117  16.884  0.1716  0.2026 -0.1466
51290W        W52154   1.817  12.207  18.172  0.3452 -0.1641 -0.2061
51291W        W52155  28.917  10.624  17.818  0.0373  0.0768  0.1285
51292W        W52156  12.459   2.911  18.378  0.3353 -0.2513 -0.2350
51293W        W52157   1.980  11.205  26.050 -0.0833  0.1964 -0.0918
51294W        W52158  28.023   6.828   6.022  0.0560 -0.3208  0.2956
51295W        W52159  25.473   7.910  14.717  0.1315  0.2886  0.1021
51296W        W52160  28.949   5.398   7.325  0.0779 -0.0916 -0.2280
51297W        W52161  18.603  16.635  17.476 -0.1728  0.1092 -0.1207
51298W        W52162  28.204  18.403   7.000  0.0269 -0.1953  0.1570
51299W        W52163  22.211   5.304   7.610  0.2044 -0.0558 -0.0647
51300W        W52164  24.776   4.237  20.656  0.4017 -0.0792  0.3352
51301W        W52165  15.501  25.751  26.939  0.0713  0.0106 -0.2345
51302W        W52166  16.239  13.889   2.810  0.1039  0.3987  0.3851
51303W        W52167   8.545   8.811   1.517  0.1921  0.2042  0.0500
51304W        W52168   4.774   0.151   2.086  0.0899  0.1784  0.1144
51305W        W52169  28.920  11.765  21.780 -0.0107  0.0030  0.0075
51306W        W52170   6.065  27.770   0.526  0.3821 -0.1422  0.1110
51307W        W52171  10.187   3.141  15.099 -0.2215 -0.4270  0.2054
51308W        W52172   3.671   3.988  15.718  0.1402  0.3616 -0.0865
51309W        W52173   2.560  18.247   8.148  0.2052  0.2213 -0.0667
51310W        W52174   4.894   5.732  27.840 -0.1244 -0.4266  0.3007
51311W        W52175   2.261   0.429  28.562  0.1470 -0.1353  0.0511
51312W        W52176  21.644  17.594   1.907  0.0542  0.0386  0.2207
51313W        W52177   3.415  27.927  24.231  0.1149  0.2818 -0.3919
51314W        W52178   7.720   7.104   1.274 -0.0839 -0.3385  0.1925
51315W        W52179   4.642  13.087   7.580  0.1522  0.1021 -0.0027
51316W        W52180  28.967   7.633   0.610 -0.0276  0.0191  0.0353
51317W        W52181   6.908  15.524  14.255  0.1118  0.1923 -0.1177
51318W        W52182  24.469  18.869  28.528 -0.0250 -0.0528 -0.1580
51319W        W52183  17.241   7.362   6.444  0.2940  0.1081  0.2050
51320W        W52184   8.223  26.216  15.148  0.1234  0.1074  0.1423
51321W        W52185  28.737   4.195   0.611 -0.0123 -0.1875  0.0344
51322W        W52186  20.563   4.987  26.295 -0.3210  0.1333 -0.0303
51323W        W52187  27.834  20.551  20.778  0.0677  0.2717 -0.2006
51324W        W52188  14.861   4.525  18.964  0.2960  0.0511  0.0038
51325W        W52189  13.467  12.883   2.668  0.0104  0.1346 -0.1129
51326W        W52190  26.443  13.910   1.021 -0.1457 -0.3963 -0.0301
51327W        W52191  16.647   1.977  12.502 -0.2425 -0.0182  0.1237
51328W        W52192   2.590   4.671  29.120  0.0693 -0.0574  0.0475
51329W        W52193  25.576   7.224   0.024 -0.1548 -0.0723 -0.1753
51330W        W52194   5.099  22.778  28.077 -0.1127  0.1370 -0.1552
51331W        W52195   3.299   0.239  14.642  0.0680  0.1661  0.1088
51332W        W52196  17.760  18.202  26.931  0.0675  0.0243  0.1836
51333W        W52197  17.060  14.141  25.166  0.2519  0.1155  0.2369
51334W        W52198  19.428  23.114  28.437  0.1269  0.1907 -0.1185
51335W        W52199  25.815  26.296  26.546  0.0243  0.0754 -0.2517
51336W        W52200   9.608  15.143  20.198 -0.0932 -0.0918  0.0489
51337W        W52201   8.550  26.799   2.940 -0.0961  0.2289  0.0269
51338W        W52202   8.646   9.876  23.109 -0.0806 -0.1053  0.1659
51339W        W52203  12.768  27.223  29.118  0.1566 -0.1333  0.3942
51340W        W52204   8.561  16.985   2.529 -0.0582 -0.0036  0.0713
51341W        W52205  15.457   4.492  25.683 -0.2765 -0.2254 -0.1984
51342W        W52206  11.859   3.934   5.964  0.0053 -0.0285  0.0532
51343W        W52207   3.230   4.522  14.461 -0.1700 -0.1147  0.0345
51344W        W52208  15.139   1.204  16.100  0.2262  0.0993  0.1870
51345W        W52209  18.846  20.119  17.419 -0.1353  0.1603 -0.1485
51346W        W52210   9.988   5.318  11.585  0.1238 -0.4250 -0.3850
51347W        W52211   9.737  24.070   1.979 -0.0614 -0.1911 -0.1817
51348W        W52212  25.920  15.559  12.590 -0.0039 -0.2325 -0.2371
51349W        W52213  14.290  22.636  21.552 -0.1377 -0.2534 -0.1776
51350W        W52214  22.018   2.668  16.850  0.0159 -0.0868 -0.1708
51351W        W52215   5.422   6.302  21.091 -0.0051  0.3536  0.1564
51352W        W52216   1.178  19.194  27.293 -0.1673 -0.0295 -0.3023
51353W        W52217  18.540  26.187  24.438  0.0658 -0.0366  0.0471
51354W        W52218   4.475  28.003  23.317  0.1690  0.1067  0.0074
51355W        W52219  22.154  22.536  20.133  0.1313 -0.0073  0.2224
51356W        W52220  23.411   0.762  27.307  0.0858  0.0227 -0.1537
51357W        W52221   2.937  14.764  18.685 -0.0668 -0.1626  0.1589
51358W        W52222   5.057  21.065  10.478 -0.2435  0.0367  0.0460
51359W        W52223   0.176   1.262   5.686  0.1937  0.0865 -0.0016
51360W        W52224   6.111   2.898   1.832  0.2640 -0.1929 -0.0329
51361W        W52225   1.453   2.690   7.482 -0.0022 -0.0627 -0.1213
51362W        W52226  11.058  25.418  21.531 -0.1887 -0.0332 -0.1306
51363W        W52227   4.490  10.154   5.738  0.4100  0.2971  0.0471
51364W        W52228   6.545  17.377  26.008  0.2823  0.0696 -0.2966
51365W        W52229  22.597   1.605  12.261  0.0148  0.0026 -0.3367
51366W        W52230  17.915  24.433   1.328  0.0115  0.1768  0.1902
51367W        W52231  26.411  19.730  14.828 -0.1665 -0.0849 -0.0612
51368W        W52232  11.969   7.042   8.027 -0.0585  0.0247  0.0264
51369W        W52233   7.562   3.359   0.535 -0.2009  0.0569  0.0858
51370W        W52234  27.268  25.668  19.121 -0.3591  0.0488  0.0777
51371W        W52235   2.130  29.063   0.360  0.0354 -0.0378  0.0795
51372W        W52236   0.970  19.162  18.507 -0.1336 -0.0546 -0.1696
51373W        W52237   0.391  25.454   0.418 -0.0808 -0.3333 -0.0942
51374W        W52238   0.687  19.064  26.000  0.0025  0.2307  0.0851
51375W        W52239  16.135  24.101  19.149  0.1175 -0.0640  0.2234
51376W        W52240  12.205  27.169  15.965 -0.1329 -0.0848  0.1631
51377W        W52241   2.941   2.144  20.856 -0.0867 -0.1173 -0.0360
51378W        W52242   5.347  21.944  26.955 -0.3190  0.2612  0.0552
51379W        W52243   5.735  27.910  20.352 -0.0040 -0.1371 -0.1259
51380W        W52244   4.290  20.148  23.965  0.2105 -0.2035 -0.2994
51381W        W52245   1.871  21.181  10.544 -0.0951 -0.3583  0.1945
51382W        W52246   7.908   6.794   4.219 -0.1924  0.4117  0.0739
51383W        W52247  12.345   3.037   2.841  0.3035  0.1814  0.1006
51384W        W52248   6.121  28.399   2.959  0.1066 -0.4150 -0.0291
51385W        W52249  20.210  22.059   0.257  0.2888  0.3790  0.1676
51386W        W52250   6.865  27.598  22.375  0.1458  0.1693  0.1845
51387W        W52251   1.241  22.588  10.773 -0.1399  0.0978  0.0364
51388W        W52252   9.816   8.257  25.031 -0.0235  0.2668  0.0453
51389W        W52253  22.412   1.935  15.324  0.1450  0.0077  0.0390
51390W        W52254   5.221   5.999   7.471  0.1539  0.0321  0.3745
51391W        W52255  14.238   2.659  16.833  0.1086  0.2573 -0.0179
51392W        W52256  10.163  26.788  27.119  0.1822  0.1350  0.0808
51393W        W52257   4.634   9.495   7.106  0.2689 -0.0277 -0.0121
51394W        W52258  25.211   0.328  27.397 -0.0211 -0.1159  0.2625
51395W        W52259   3.231  28.808  23.025 -0.2710 -0.1369  0.0232
51396W        W52260  12.409  15.456   9.002 -0.0167  0.1747 -0.0587
51397W        W52261  22.199   8.631  27.909 -0.0486 -0.0883  0.0077
51398W        W52262  24.797  20.161  10.394  0.2713  0.0480 -0.0186
51399W        W52263  10.105   8.225  26.877  0.2192 -0.1588 -0.0787
51400W        W52264  15.312  12.813  10.400 -0.1125  0.0782  0.0466
51401W        W52265  15.917   8.981   1.492  0.2157  0.2460 -0.1330
51402W        W52266  17.760  10.092  17.108 -0.1173 -0.1196 -0.1327
51403W        W52267  10.463  11.686   5.956  0.1916 -0.0391 -0.0556
51404W        W52268  11.659   0.590   4.690  0.1953  0.0456  0.0289
51405W        W52269  10.659  17.862  23.112 -0.1005 -0.1572  0.0657
51406W        W52270  14.035   8.997   6.721  0.0677 -0.3895 -0.0210
51407W        W52271  25.186   2.968  15.506  0.3749 -0.2463 -0.3401
51408W        W52272  18.606   9.522  16.565 -0.1447  0.3334 -0.1137
51409W        W52273  27.118  24.990  27.424 -0.0702  0.0522  0.4960
51410W        W52274  17.316   5.838  15.230 -0.0623 -0.2025  0.1973
51411W        W52275  12.172  19.020   9.092  0.0228  0.0717 -0.1606
51412W        W52276  19.125  24.294  21.334 -0.0032 -0.3233  0.1741
51413W        W52277  19.951   6.621   9.341  0.1169  0.1265  0.0251
51414W        W52278   1.263   7.219   3.004 -0.0894  0.2303 -0.1108
51415W        W52279   6.072  11.333   7.133 -0.2065 -0.2992 -0.0764
51416W        W52280   6.259  20.803   3.393 -0.0416  0.1143 -0.0133
51417W        W52281  21.881   0.609  25.563  0.0707 -0.2721 -0.0623
51418W        W52282   4.712  15.655  28.931 -0.0408 -0.1005 -0.0026
51419W        W52283  27.583  22.037  21.955  0.2097  0.2405 -0.2126
51420W        W52284  19.904  26.333  24.592  0.3424  0.0666  0.1298
51421W        W52285  13.551  26.035  19.424  0.1874  0.0681  0.2485
51422W        W52286  13.613  10.329  20.680 -0.1430 -0.0272  0.1981
51423W        W52287   6.257  11.771  22.093  0.3643  0.0137  0.1418
51424W        W52288  28.970  27.431   3.380 -0.2535 -0.0868  0.0449
51425W        W52289   7.028   3.928  19.855 -0.5310 -0.0986  0.1930
51426W        W52290  22.147  10.857   4.749 -0.4594 -0.1650  0.0001
51427W        W52291  10.394   3.213   1.852  0.1137  0.4353 -0.1384
51428W        W52292   2.348  20.969  10.232  0.0377  0.0263  0.0990
51429W        W52293  22.968   3.156   5.629  0.0689  0.0556  0.1114
51430W        W52294   3.200   4.379  26.562 -0.2788 -0.0647  0.1120
51431W        W52295   4.809  17.476  28.982 -0.0018 -0.2782  0.1715
51432W        W52296  13.452   2.328   4.731 -0.0632 -0.0088  0.2215
51433W        W52297   1.586  25.184  16.673  0.1326 -0.2936 -0.0638
51434W        W52298  22.396   0.759  27.895 -0.2665 -0.2843 -0.0313
51435W        W52299  11.720  20.306  26.599 -0.2347 -0.2734 -0.1555
51436W        W52300   6.606  27.327  26.176 -0.0960  0.1909 -0.1652
51437W        W52301   6.671  26.513   7.605  0.0007 -0.2455  0.0642
51438W        W52302  26.036  10.275   3.519  0.2185  0.6014 -0.3729
51439W        W52303  23.698  13.918   3.288  0.2771  0.0301  0.3539
51440W        W52304  23.577  17.333  14.805  0.0172 -0.0468 -0.2110
51441W        W52305  23.129   2.358  22.217  0.1012 -0.0989  0.1882
51442W        W52306   9.117  24.638   2.841  0.4458 -0.1330 -0.0496
51443W        W52307   7.662   6.649  22.692  0.0302 -0.3700 -0.0875
51444W        W52308  20.573   7.910   1.110 -0.0430 -0.1646 -0.1070
51445W        W52309  23.222  22.278  19.646  0.0774  0.1221  0.0773
51446W        W52310   7.028   5.281  14.516  0.0312 -0.1858 -0.1058
51447W        W52311   6.197   5.683  25.361  0.2786 -0.1549  0.0367
51448W        W52312   6.530  24.633  26.276  0.1614 -0.1087 -0.1220
51449W        W52313   1.324   7.602  10.076  0.2321  0.2677  0.0494
51450W        W52314   9.332   3.846   7.390  0.2031  0.0490  0.2717
51451W        W52315   7.751  18.864  25.233  0.1147  0.0266 -0.0051
51452W        W52316  22.361   2.422   9.605  0.0041 -0.0173  0.3993
51453W        W52317   5.390  26.381   5.364  0.0366 -0.0180  0.0215
51454W        W52318   1.299  20.535   7.250 -0.0140 -0.0973 -0.1046
51455W        W52319  12.270  25.295  25.303  0.4552 -0.0794  0.2439
51456W        W52320  22.760  16.305  26.266  0.0132  0.3536 -0.1745
51457W        W52321  13.181   0.841   4.335 -0.2807 -0.2185  0.1993
51458W        W52322   7.039  28.358  24.070 -0.0139  0.0692 -0.0746
51459W        W52323  15.480  17.121  24.252  0.1256 -0.1853 -0.1875
51460W        W52324  13.106   1.527   7.814  0.3438 -0.1589  0.0282
51461W        W52325  13.556   4.203  10.798  0.0313 -0.5544  0.2922
51462W        W52326   2.400  12.114   0.644  0.0197  0.2377 -0.1142
51463W        W52327  19.434  26.307   5.116 -0.2965 -0.1748 -0.0298
51464W        W52328   6.737   2.888  25.956 -0.1231  0.1355 -0.0229
51465W        W52329  10.515   1.931  24.532  0.0315  0.1355 -0.3382
51466W        W52330  25.462   8.737   3.863 -0.0251 -0.0657  0.1214
51467W        W52331  25.371   8.837  23.431  0.5064  0.1773  0.0652
51468W        W52332  18.614  21.073   3.338 -0.0721  0.4049  0.1898
51469W        W52333   5.112  20.011  12.940 -0.1777  0.0077  0.1661
51470W        W52334   3.881   9.008   4.130 -0.0682 -0.5105 -0.2769
51471W        W52335   3.864  19.500  23.796 -0.0630  0.1289  0.2227
51472W        W52336  10.850   8.751   4.382 -0.0968  0.1067  0.1572
51473W        W52337   9.810   8.768  10.137  0.1270 -0.0767  0.0115
51474W        W52338   9.360   4.869  10.365  0.0730  0.0058  0.0355
51475W        W52339   5.381   7.344   7.840  0.0484  0.2380  0.0131
51476W        W52340  10.527   6.073  21.942  0.1577 -0.2195 -0.1424
51477W        W52341   7.834   7.403  28.078  0.2331 -0.4175 -0.1869
51478W        W52342  28.474   2.879  23.443  0.1178 -0.2381  0.1768
51479W        W52343  11.212   2.735   3.680 -0.0866  0.1503  0.0749
51480W        W52344   9.310  23.960   3.311  0.1143 -0.2317  0.0962
51481W        W52345  17.641  26.383  21.159 -0.2191 -0.1119 -0.3673
51482W        W52346  15.405  24.269  26.813  0.0576 -0.0075  0.4409
51483W        W52347   9.259   8.102  15.915  0.0451 -0.0713 -0.0117
51484W        W52348   1.260   3.810  11.980  0.0285  0.0182  0.3696
51485W        W52349   1.979   9.401   0.776 -0.0726 -0.2019 -0.4442
51486W        W52350   4.028  23.462   7.050 -0.0520  0.1906 -0.3973
51487W        W52351  24.416   8.183   3.134  0.2123  0.0436 -0.1043
51488W        W52352  10.350  22.061  25.621  0.0837 -0.2974  0.4486
51489W        W52353  11.940  11.211  28.238 -0.0260 -0.1403 -0.1201
51490W        W52354  18.689   3.578   1.798 -0.0057 -0.0322 -0.0504
51491W        W52355  23.015  27.397  14.894  0.2259  0.0818 -0.0947
51492W        W52356  28.208  18.153  13.091 -0.0433  0.0032  0.1267
51493W        W52357  23.001   3.433  10.404 -0.0113 -0.1024 -0.0411
51494W        W52358  24.554   5.106  28.731 -0.3030  0.1776 -0.0586
51495W        W52359   7.196  27.495  28.232 -0.1354 -0.0987  0.0956
51496W        W52360  26.418   3.987  14.980  0.1164  0.3261  0.2717
51497W        W52361  15.016  27.359  22.829 -0.1946 -0.1543  0.1169
51498W        W52362   1.742  13.546  18.070 -0.0381 -0.1190 -0.1841
51499W        W52363   2.265   8.679   7.980  0.2059 -0.2204 -0.2326
51500W        W52364  19.208  17.220  23.391  0.2784  0.0360  0.0707
51501W        W52365  28.261  28.421   1.095  0.1625  0.0490 -0.0520
51502W        W52366   7.986   7.458   0.956  0.1475  0.0782  0.1670
51503W        W52367  12.132   0.574  16.866 -0.2150  0.0993 -0.0110
51504W        W52368  10.366   3.173   8.193  0.1536  0.0161  0.0916
51505W        W52369   9.451  27.679   2.050  0.0849 -0.1466 -0.0259
51506W        W52370   7.487  22.709   0.414  0.1444  0.0075  0.2998
51507W        W52371  11.250  27.253   8.372 -0.3339  0.0903  0.0181
51508W        W52372  26.817  26.355  26.876  0.2182  0.0589 -0.2677
51509W        W52373  13.049  17.109  20.827 -0.0636 -0.2515 -0.2331
51510W        W52374  25.491   3.226  21.723  0.1753 -0.3192 -0.3563
51511W        W52375   7.098  27.130   2.494 -0.0748  0.1936 -0.0967
51512W        W52376  19.987  26.851   2.472 -0.0448  0.1488  0.2329
51513W        W52377  20.083  26.685  14.939 -0.1110  0.1779 -0.1051
51514W        W52378  27.483  23.616   7.265 -0.0145  0.2244  0.2009
51515W        W52379  11.518   6.428  24.995  0.1721  0.1827  0.0795
51516W        W52380  22.280   5.703  18.548  0.2083  0.0356 -0.1514
51517W        W52381   6.133   6.009  21.964 -0.0090  0.0530  0.0955
51518W        W52382  21.609  19.903   2.008 -0.0113 -0.2638  0.0598
51519W        W52383   1.828   8.550   8.860 -0.1075 -0.1326 -0.1960
51520W        W52384   4.741   2.355  22.389  0.0581  0.1057 -0.1821
51521W        W52385  13.431   3.139  13.833  0.4960 -0.0767 -0.1312
51522W        W52386  16.012   8.143   3.293 -0.0664  0.0866 -0.0609
51523W        W52387  20.761   3.530  12.711 -0.1082  0.3978  0.0732
51524W        W52388  10.016   0.123  17.315 -0.1713  0.2642  0.1499
51525W        W52389   6.033  23.391  23.674  0.0768 -0.1418  0.2043
51526W        W52390  25.032  26.365   1.173 -0.1776  0.1179 -0.2275
51527W        W52391  14.159  10.871  20.112  0.0125  0.0696  0.0215
51528W        W52392  17.008  24.048  23.065 -0.1216  0.0360  0.2259
51529W        W52393   4.537  28.924  10.775 -0.2021 -0.2684  0.1314
51530W        W52394  17.795  13.655  19.414  0.0861 -0.2398 -0.0932
51531W        W52395   8.739   8.325   4.287 -0.0630  0.1026  0.0201
51532W        W52396   0.681  16.391  11.437  0.0042 -0.3571 -0.0561
51533W        W52397  11.275  20.844   4.086 -0.0145 -0.1383 -0.1754
51534W        W52398  24.505   5.744   7.981 -0.1088 -0.0811  0.0612
51535W        W52399  11.838   1.221   1.066  0.0984 -0.1539 -0.2009
51536W        W52400   2.378  20.527  13.963  0.1076 -0.0450 -0.3696
51537W        W52401  20.514   7.554  27.855 -0.4859 -0.1757  0.1327
51538W        W52402  10.051  12.419   0.283  0.4368 -0.0923 -0.0616
51539W        W52403  11.168  14.522   4.575  0.0541 -0.2513 -0.0570
51540W        W52404   9.194  26.111   0.737  0.1039 -0.3551  0.2403
51541W        W52405   2.118   1.305   7.577  0.1450  0.2370 -0.1264
51542W        W52406   9.200   4.642  18.508 -0.0066 -0.4188 -0.1381
51543W        W52407  16.570   5.719  17.767 -0.2800 -0.1592  0.0095
51544W        W52408   3.387  19.443  14.797  0.3666 -0.0797 -0.0462
51545W        W52409  21.377   9.343   7.895 -0.0104 -0.4238  0.2665
51546W        W52410   2.572   9.045  24.246  0.2171  0.2155 -0.0475
51547W        W52411  23.926  24.182   8.877  0.1251  0.1774  0.0978
51548W        W52412  10.839  19.920  15.550 -0.2098  0.0855 -0.0532
51549W        W52413   2.313   6.228  25.292  0.1832  0.3711  0.0947
51550W        W52414  22.057   6.891  28.728 -0.3942 -0.1508  0.0122
51551W        W52415   7.365  14.688  10.186 -0.4310 -0.0448 -0.0299
51552W        W52416   2.749  22.538  23.042 -0.1314  0.2203  0.3174
51553W        W52417  25.986  18.830   6.018  0.1195  0.1994  0.2446
51554W        W52418  14.159  13.363  28.532  0.0702  0.1273 -0.1801
51555W        W52419  20.888   3.314  20.086 -0.2302  0.1518 -0.2271
51556W        W52420  28.097  16.289   8.030  0.1071  0.2637  0.1046
51557W        W52421  13.600   7.931  27.415  0.0948  0.2916  0.0649
51558W        W52422   2.519   7.979  28.865 -0.2681  0.0731  0.1115
51559W        W52423   9.834   6.182  19.662  0.0425 -0.0965 -0.1724
51560W        W52424   1.466   5.667  25.685  0.0745 -0.0696  0.0117
51561W        W52425   3.151   6.711  14.522 -0.1699 -0.1620 -0.3628
51562W        W52426  15.946  24.945  12.836  0.0225 -0.1751 -0.0397
51563W        W52427  23.760   3.447  24.557 -0.3610 -0.0632 -0.1140
51564W        W52428  16.978  16.971  25.386  0.3997 -0.1571 -0.2143
51565W        W52429   6.712   4.600  10.945 -0.0393 -0.0982  0.4429
51566W        W52430   0.131   8.231  17.004 -0.1571  0.1256 -0.0059
51567W        W52431  13.190  27.254   5.470  0.0235 -0.0300  0.0112
51568W        W52432  17.533  18.580  24.443 -0.0200  0.0027  0.1395
51569W        W52433  18.000   8.538  17.048 -0.2652  0.3196  0.3651
51570W        W52434  21.764  24.882  10.010 -0.4744  0.0757 -0.0781
51571W        W52435   3.120   9.004  21.886  0.1030 -0.1079  0.0299
51572W        W52436  16.910  23.766   7.126  0.2660 -0.1025 -0.0421
51573W        W52437  15.827  29.105   3.377 -0.1741  0.1358  0.1459
51574W        W52438  15.037  25.041   0.079  0.0018 -0.1368  0.1441
51575W        W52439   8.257  24.410  10.530 -0.2029  0.3151  0.2173
51576W        W52440   4.347  12.188   4.757  0.2310 -0.2083 -0.1324
51577W        W52441  13.480  26.000   7.064 -0.1849 -0.1087 -0.4288
51578W        W52442   7.798  10.832  14.950  0.1262  0.1749  0.0231
51579W        W52443  21.600  22.714  12.932  0.0514 -0.0879  0.6566
51580W        W52444  14.864  16.321   3.122 -0.1831 -0.0002  0.1753
51581W        W52445  24.386   1.719   8.003 -0.4321 -0.0508  0.1943
51582W        W52446   3.981   7.635  11.959 -0.0650 -0.0434 -0.1737
51583W        W52447  25.411   9.873  27.295 -0.1702  0.1346  0.1748
51584W        W52448   1.446   8.484   2.372  0.0135  0.2681 -0.0539
51585W        W52449   7.364  23.066  23.092  0.0050  0.3163 -0.1992
51586W        W52450  16.518  29.056  15.216 -0.0631  0.0109 -0.3547
51587W        W52451  25.980  12.418   4.630  0.1102 -0.1691 -0.0532
51588W        W52452  22.269   9.163   3.242  0.2861 -0.2310 -0.0329
51589W        W52453   2.102  19.384  25.255  0.1185 -0.0428  0.3400
51590W        W52454  11.265  16.058   9.372  0.0764  0.1869  0.2527
51591W        W52455  27.710  10.058  15.958  0.2042  0.1041  0.2870
51592W        W52456   9.346   4.036   6.474  0.4159  0.2930 -0.1246
51593W        W52457   6.152  15.060   4.002  0.4802 -0.2423  0.1795
51594W        W52458  20.550   4.092   2.535 -0.1984 -0.1317 -0.0888
51595W        W52459  24.553   7.755   6.985  0.2746  0.2437  0.2202
51596W        W52460  22.350  16.138   7.540  0.1276 -0.1516 -0.1924
51597W        W52461  15.220   7.025  26.534 -0.2508 -0.6488 -0.3157
51598W        W52462   9.636  28.053   6.351  0.1043 -0.0021  0.0355
51599W        W52463  16.429   0.794  15.693 -0.1548  0.0566  0.1760
51600W        W52464   3.139  25.395  25.926  0.6332  0.1661 -0.0020
51601W        W52465   7.685  16.747   3.796 -0.0270  0.0549 -0.0662
51602W        W52466  21.428   4.754  20.189  0.3117  0.2500  0.3524
51603W        W52467  24.380  20.622  14.384  0.0449  0.4973 -0.1049
51604W        W52468  11.996  28.224   5.090  0.2724 -0.0179  0.1027
51605W        W52469  15.784  26.897  27.840 -0.0090  0.2506  0.0083
51606W        W52470  13.435  23.819  12.730  0.2849 -0.3117  0.0542
51607W        W52471  18.242  16.617  28.124 -0.3378  0.1048 -0.1464
51608W        W52472  24.887   8.964  28.198  0.0316 -0.0834  0.4433
51609W        W52473   6.663   4.613   3.383 -0.2240 -0.1084  0.4191
51610W        W52474  28.597   5.350  28.728 -0.0213  0.1449  0.0675
51611W        W52475  15.555   4.658  17.459 -0.1080  0.0090 -0.1038
51612W        W52476   5.131  21.889  21.875 -0.0937 -0.0886 -0.1883
51613W        W52477   4.629   2.256  24.267  0.3596  0.0200  0.2063
51614W        W52478   1.185  18.967   8.183  0.1081  0.1714 -0.4112
51615W        W52479   7.443  18.286  18.141  0.4169  0.1621 -0.0018
51616W        W52480  14.033  27.944   5.876  0.1667 -0.0101 -0.1638
51617W        W52481  10.729  12.138  22.686  0.2146 -0.1927  0.0817
51618W        W52482   4.608  16.181  10.700 -0.0291 -0.1574  0.2900
51619W        W52483   2.398   6.127   4.139 -0.0161 -0.0004 -0.1461
51620W        W52484  25.350  20.879   1.691 -0.2512 -0.0660 -0.2124
51621W        W52485   3.581  25.597   5.825 -0.1385 -0.1087  0.0160
51622W        W52486  10.322   2.843  17.379  0.1915  0.2975 -0.0498
51623W        W52487  27.505   2.099  22.855  0.2676 -0.0087 -0.0420
51624W        W52488   6.305   1.603   8.361  0.0796  0.0510 -0.0970
51625W        W52489   6.892  24.235  24.430  0.0712  0.1854  0.1860
51626W        W52490   8.202   4.338   9.405  0.1016 -0.1565  0.1245
51627W        W52491   5.383   4.153   2.152  0.5786  0.3951  0.1230
51628W        W52492  17.119  28.623  21.035  0.0224 -0.2330  0.0025
51629W        W52493   2.037  22.776   1.157 -0.2622  0.0642  0.2908
51630W        W52494  19.052  28.370  24.367  0.1181 -0.0629 -0.0564
51631W        W52495   8.222   7.999  27.886 -0.3108 -0.2240  0.2364
51632W        W52496  14.086  17.631   0.157  0.0492  0.1564 -0.0841
51633W        W52497  24.144  20.603   4.459  0.0228  0.0733 -0.2519
51634W        W52498  28.335   8.954   2.325 -0.2697  0.0501 -0.2542
51635W        W52499  11.645   6.218   4.604 -0.1586  0.0481 -0.0245
51636W        W52500  22.260   3.906  28.646 -0.0326 -0.0343  0.1202
51637W        W52501  15.835  18.125  28.346 -0.3919 -0.2193 -0.1827
51638W        W52502   3.569   0.444  23.280 -0.3036  0.1698 -0.3618
51639W        W52503  10.739  15.031   6.555 -0.3370 -0.1169  0.1414
51640W        W52504  13.679   6.289  16.448  0.0427  0.2445 -0.0144
51641W        W52505   5.865  26.064   0.901  0.0628  0.2332  0.1711
51642W        W52506  23.360  22.878  29.110 -0.1866  0.0208 -0.0230
51643W        W52507   5.003   6.717  17.960 -0.1646 -0.0832 -0.0686
51644W        W52508   0.703   2.068  12.244  0.0817 -0.2852  0.1403
51645W        W52509   2.985  20.328  15.234  0.0884  0.0136  0.1161
51646W        W52510  27.218   4.634   9.542  0.2579 -0.0517 -0.2089
51647W        W52511   8.974  27.410   2.425  0.0803  0.0145 -0.1082
51648W        W52512  10.142  14.561   0.805 -0.0346  0.0190 -0.0705
51649W        W52513  12.786  12.012  22.542  0.1737  0.2606 -0.1397
51650W        W52514   4.076  15.779   6.152 -0.2145 -0.2031 -0.2789
51651W        W52515  17.995  28.864  13.003 -0.0414  0.1148  0.1336
51652W        W52516  13.015   0.356  19.031 -0.0191  0.4339  0.1046
51653W        W52517  16.799  25.434  25.078 -0.2917  0.1393  0.1329
51654W        W52518  19.592   7.051   7.580  0.1051  0.2649 -0.1719
51655W        W52519  26.516  23.981  12.977 -0.0512  0.2934 -0.0529
51656W        W52520   6.391  20.882   9.310  0.2718 -0.0008 -0.0475
51657W        W52521  27.517  24.312  26.644 -0.1090 -0.3462  0.0584
51658W        W52522  26.104   3.543  13.674  0.2361  0.0987  0.1502
51659W        W52523  10.582   7.014  12.246  0.2850  0.1988 -0.1113
51660W        W52524  11.228   2.333   2.186  0.2140 -0.0231  0.3143
51661W        W52525  16.975   8.325  22.400 -0.0994 -0.2019 -0.0339
51662W        W52526   0.538   1.506   3.284 -0.0509 -0.0068  0.0933
51663W        W52527  18.824  11.586   0.060  0.1355 -0.1212  0.1497
51664W        W52528   0.093  12.700  26.314  0.1391  0.0855 -0.0204
51665W        W52529   8.772   5.241  25.453 -0.0431 -0.1298 -0.0253
51666W        W52530   3.355   8.554  20.001  0.2812 -0.1446 -0.0689
51667W        W52531  23.077  12.696  26.725 -0.1861 -0.1634 -0.4111
51668W        W52532  26.596  19.508   5.238 -0.0404 -0.1028  0.1271
51669W        W52533  12.130   5.961  22.426  0.0530 -0.0284  0.2126
51670W        W52534   4.518  20.179   6.690 -0.0986 -0.1361 -0.0932
51671W        W52535  22.892   5.673  19.816 -0.0694  0.0230  0.2673
51672W        W52536  14.215   0.642   8.319 -0.0372  0.0444 -0.0584
51673W        W52537  13.427  19.744   5.306  0.2072 -0.1643  0.2491
51674W        W52538   5.097   1.430  19.550  0.0667 -0.1800  0.0721
51675W        W52539  28.628  10.254   6.380 -0.2952  0.2381 -0.0490
51676W        W52540  27.332  28.551  26.397  0.0961  0.0136  0.3622
51677W        W52541  13.074  28.789  26.100 -0.2074  0.2121  0.0528
51678W        W52542  14.973  22.952  26.062 -0.1362  0.1270 -0.0368
51679W        W52543   7.525  13.294  10.779 -0.4027 -0.1917  0.0264
51680W        W52544   3.764  10.110   9.077 -0.1475  0.1322 -0.0362
51681W        W52545   6.430  18.197  25.512  0.2282 -0.2091  0.3983
51682W        W52546   6.017   1.211   1.474  0.1736 -0.1474  0.1643
51683W        W52547   9.598  20.758  10.700  0.2030 -0.0290 -0.2334
51684W        W52548   5.467  17.630   4.592 -0.1826 -0.0608  0.5389
51685W        W52549  11.942   2.589   3.931  0.4360 -0.0280  0.1835
51686W        W52550  17.318  14.726  11.398  0.1996 -0.0134 -0.0192
51687W        W52551   4.841   4.965  16.070  0.3107  0.1966  0.0235
51688W        W52552  24.283   5.771   0.632 -0.1911  0.1641 -0.3133
51689W        W52553  10.877  27.428  15.971 -0.2679 -0.1794 -0.2834
51690W        W52554   6.896   1.751  21.925 -0.0242 -0.1391 -0.2025
51691W        W52555  24.169  22.441  17.837 -0.2951  0.0072  0.2827
51692W        W52556  15.273  22.340   9.984 -0.1813 -0.0589 -0.2955
51693W        W52557   9.127  24.329   1.218  0.1006 -0.4168 -0.0266
51694W        W52558  22.790   1.568   1.424  0.2620  0.2056 -0.0665
51695W        W52559  15.332  17.786   3.282  0.1961 -0.2674 -0.1027
51696W        W52560   3.558   0.820   4.586 -0.0337 -0.2441  0.1579
51697W        W52561  13.087  12.150   1.515 -0.0912  0.3104  0.1340
51698W        W52562  19.220  27.636   0.982 -0.0235  0.0338  0.0469
51699W        W52563  13.737  15.505   9.879  0.0838  0.0154  0.2208
51700W        W52564   6.778  19.491  29.086  0.3141  0.0407  0.1262
51701W        W52565  27.946  25.257  28.158  0.5374 -0.0047  0.1308
51702W        W52566   3.248   3.510   7.711  0.3064 -0.1342  0.2172
51703W        W52567  15.827   8.534   6.294 -0.1424 -0.2081 -0.1646
51704W        W52568  25.845  28.036  16.501 -0.1497 -0.2218 -0.0394
51705W        W52569  11.105  18.390  26.004 -0.1638  0.0189 -0.1712
51706W        W52570  17.697  12.437  26.220  0.2996  0.0200 -0.1340
51707W        W52571  13.365  23.613  26.648  0.2039  0.2791 -0.1738
51708W        W52572   5.629   3.587  26.374  0.4661  0.2610 -0.0014
51709W        W52573  22.039  28.183   3.411 -0.1958  0.1702  0.1866
51710W        W52574  11.337  15.221   3.849 -0.1612 -0.2986  0.1455
51711W        W52575   3.918   0.201  19.643  0.0272 -0.0128 -0.0040
51712W        W52576  12.098   9.685   4.182 -0.1011  0.0083  0.1028
51713W        W52577   0.409   6.309   6.258  0.3694 -0.3153  0.2791
51714W        W52578  22.531  15.256   0.087  0.1849 -0.0498 -0.0924
51715W        W52579   0.219   4.369   4.494  0.1490  0.2207 -0.2200
51716W        W52580  19.602  23.018  21.221 -0.2931  0.3528 -0.0807
51717W        W52581  10.831   6.543   8.223  0.0128  0.1483 -0.1328
51718W        W52582  26.043  10.605  17.432  0.1064 -0.1162 -0.1255
51719W        W52583  25.745  15.540  25.557  0.2873  0.1217 -0.0921
51720W        W52584  13.555   5.070  11.482 -0.1929  0.1925 -0.0472
51721W        W52585  28.352  24.070  14.674  0.2510 -0.1124 -0.3669
51722W        W52586  17.878   6.127  28.616 -0.2019  0.1893 -0.1475
51723W        W52587  29.086   1.285  14.583 -0.0975  0.0612 -0.1065
51724W        W52588   9.555  23.361   8.938 -0.0343 -0.0226 -0.0062
51725W        W52589  28.906   2.275  28.761  0.1362 -0.2539 -0.1720
51726W        W52590  17.304  17.577  26.818  0.1218 -0.0831 -0.0353
51727W        W52591  19.195  19.086   1.118  0.1734 -0.0018  0.0320
51728W        W52592  21.179   6.799  13.996  0.0415  0.2552 -0.2823
51729W        W52593   1.599   9.221   1.127 -0.0350 -0.3845  0.2042
51730W        W52594  19.055  27.524  15.473  0.0988  0.2112  0.0829
51731W        W52595   0.948  26.025   8.683  0.0110 -0.1747 -0.1847
51732W        W52596   3.549   4.422   0.047  0.1145 -0.0154  0.3049
51733W        W52597  28.744  11.068   3.506 -0.1736  0.0439 -0.2688
51734W        W52598  16.648  11.062  17.051 -0.0513  0.2964  0.3255
51735W        W52599   6.561   3.790   5.603 -0.0380 -0.2424  0.0172
51736W        W52600  13.870   5.303  26.667 -0.1034  0.0652  0.0202
51737W        W52601   6.569  28.789  25.916 -0.1770  0.1681  0.0400
51738W        W52602   4.314   6.544   1.741  0.0342  0.1944  0.1944
51739W        W52603  14.104  13.687   1.354  0.4029  0.0789 -0.0448
51740W        W52604  12.420   0.435  26.091  0.1759  0.0728 -0.3125
51741W        W52605  13.822  20.637   6.042  0.0697  0.3327  0.0292
51742W        W52606  26.990  26.923   0.624 -0.2832  0.3028 -0.2452
51743W        W52607  23.033   3.505  23.361 -0.0365  0.1803 -0.0705
51744W        W52608  25.852   5.569  28.861  0.1206  0.0219  0.3000
51745W        W52609  24.151  17.626  26.476  0.2710  0.2851 -0.1568
51746W        W52610  13.909  13.347  11.724  0.0946  0.3780  0.0368
51747W        W52611  18.965   6.547   2.844  0.2608  0.2493 -0.0762
51748W        W52612  26.796   4.298  26.980 -0.0613 -0.0955 -0.2066
51749W        W52613  22.398  13.341   9.717  0.6075  0.0621 -0.1151
51750W        W52614   8.977  12.555  11.239 -0.0890 -0.1527 -0.1406
51751W        W52615  19.212  22.663  20.297 -0.0111 -0.2168  0.1574
51752W        W52616  16.848  10.603   0.788  0.1201 -0.3362  0.5101
51753W        W52617  14.140  12.528   4.583 -0.1402  0.0329  0.0479
51754W        W52618  13.309  15.348   1.973 -0.0496  0.3003  0.1552
51755W        W52619   6.098  11.659   3.903  0.2544  0.2613 -0.0485
51756W        W52620  13.824  10.698   4.350  0.3508 -0.1087  0.1292
51757W        W52621   7.986  21.470   5.245  0.1880 -0.3064 -0.2996
51758W        W52622  12.659   1.886  25.096 -0.4379 -0.0027 -0.3670
51759W        W52623  12.635   7.868   9.949 -0.1918 -0.1684 -0.0100
51760W        W52624  14.458  11.431  15.248 -0.1428  0.1056 -0.0384
51761W        W52625  21.287  20.722   4.209 -0.0735  0.4386 -0.2021
51762W        W52626  19.942  14.512  24.384  0.0926  0.1285  0.0008
51763W        W52627   3.174  23.544  24.760  0.0267 -0.0863 -0.0737
51764W        W52628  21.612  27.785   0.716  0.1791 -0.0596  0.0016
51765W        W52629  18.832  25.125   9.682 -0.2206 -0.1704 -0.3025
51766W        W52630   3.182   7.097  23.595  0.0359  0.1518 -0.1253
51767W        W52631  10.583   3.007  27.497 -0.1363  0.0659 -0.2144
51768W        W52632   2.973   3.039   4.635  0.1695 -0.1511 -0.2560
51769W        W52633  18.340  22.728   0.654 -0.0353  0.3470  0.3104
51770W        W52634  12.878   7.877  20.709  0.3062 -0.1445 -0.0306
51771W        W52635  18.217  16.032   1.183 -0.0286  0.0741  0.0037
51772W        W52636  15.081   2.648  24.607 -0.0216 -0.1030 -0.0964
51773W        W52637  17.682  13.485  17.209  0.1997 -0.0646 -0.2169
51774W        W52638   1.188  28.921   3.663  0.0755 -0.0303 -0.3469
51775W        W52639  23.217  11.971  22.530 -0.4477  0.1762 -0.0259
51776W        W52640   4.717   3.256  17.889  0.1997  0.1041 -0.1307
51777W        W52641  10.704  14.418  19.154 -0.1322 -0.0446  0.0492
51778W        W52642  13.689   7.903   6.189  0.0929 -0.0337 -0.1145
51779W        W52643  11.307   2.031   6.710 -0.0575 -0.0517  0.0884
51780W        W52644  12.472   8.075  13.119  0.2394 -0.0936 -0.0767
51781W        W52645  28.032  28.300  20.485 -0.1420  0.3607 -0.1298
51782W        W52646  16.174  28.802   7.812 -0.1425  0.2038  0.0682
51783W        W52647  22.049  27.270  27.921  0.0860 -0.1103  0.3835
51784W        W52648   6.725  14.760  17.698  0.0273 -0.2713  0.1324
51785W        W52649  22.260  21.010   6.512 -0.0376  0.1369 -0.0088
51786W        W52650  15.721   5.354   8.272  0.3587 -0.2221 -0.0045
51787W        W52651   8.224  23.584  28.264 -0.1860 -0.2714 -0.3234
51788W        W52652  19.950  24.718  10.092  0.0117  0.2226  0.1660
51789W        W52653   4.611   5.388  21.535  0.3417 -0.0932  0.1952
51790W        W52654  13.180  12.396   5.571 -0.0674  0.1246 -0.0831
51791W        W52655  24.831  29.007  24.352  0.1221 -0.0230 -0.0567
51792W        W52656  18.956   8.252  27.348  0.0652 -0.3109  0.1121
51793W        W52657  20.625   6.123  13.051  0.2953 -0.0587  0.0570
51794W        W52658  12.572  28.783   4.614  0.0178 -0.1491  0.1205
51795W        W52659  22.170  23.334   7.543 -0.0647  0.0128 -0.0090
51796W        W52660  21.705   1.129  19.988  0.0380  0.0360  0.0693
51797W        W52661   8.417   2.502  17.834  0.0505 -0.2104  0.4145
51798W        W52662  18.247  23.084   1.296  0.0320  0.0307  0.2474
51799W        W52663  18.484  13.105   0.645  0.1830 -0.2883  0.0556
51800W        W52664  18.135  27.756  27.654 -0.2676  0.1654 -0.2106
51801W        W52665  21.853  21.386   6.494  0.1735 -0.4304  0.2027
51802W        W52666   3.438  17.697  10.760 -0.3455 -0.1733 -0.2157
51803W        W52667   2.457  22.636  19.857 -0.2855  0.0875  0.1060
51804W        W52668  12.112  24.425  12.054  0.1225 -0.0175 -0.1966
51805W        W52669  11.173  17.957  10.047  0.2740  0.0339 -0.3006
51806W        W52670  27.970   5.133   4.181 -0.2110 -0.1035 -0.1845
51807W        W52671  10.907   1.322   7.954 -0.1095 -0.0157  0.0413
51808W        W52672  24.464  16.196  15.921 -0.1978 -0.0811  0.0590
51809W        W52673  14.593   6.734   8.239  0.0914  0.2560 -0.1277
51810W        W52674   8.507   7.843   5.038 -0.1035 -0.0019 -0.2395
51811W        W52675   2.929   8.005  14.717 -0.1661  0.1260  0.1295
51812W        W52676   9.480   5.771   0.895 -0.2694 -0.0176  0.0331
51813W        W52677   5.443   4.456  12.882  0.1837  0.1760 -0.4384
51814W        W52678  25.551   5.871  17.694  0.2715  0.1398 -0.5123
51815W        W52679   7.115  10.578  26.760 -0.0510  0.1717  0.0614
51816W        W52680   0.062   4.178  16.387 -0.1576 -0.1371  0.0977
51817W        W52681  17.469   4.995   6.109  0.1590 -0.3886  0.0094
51818W        W52682   7.195  18.619  23.816  0.0004 -0.4027 -0.0243
51819W        W52683   7.971  11.257   3.551 -0.0060 -0.0308  0.1178
51820W        W52684  20.945  28.818  26.808 -0.2232 -0.0074 -0.0866
51821W        W52685  22.279  14.189  18.352 -0.3121  0.1236  0.4932
51822W        W52686  12.424   6.561  13.202 -0.1907 -0.0239  0.2921
51823W        W52687   9.586   2.086  27.788  0.1094 -0.2095  0.2293
51824W        W52688   3.774   4.303  12.090 -0.0414  0.4732  0.1582
51825W        W52689  25.515  16.239  11.831  0.3199 -0.1793 -0.1579
51826W        W52690   9.107   8.990  10.440 -0.0923 -0.0925  0.0971
51827W        W52691  23.048  19.761  20.950  0.3099 -0.0122  0.0234
51828W        W52692  16.837  26.642  27.317 -0.0659  0.0079  0.0090
51829W        W52693   8.795   8.937   1.026  0.1354 -0.0917  0.0996
51830W        W52694  17.036   6.955  26.249 -0.2027  0.1886  0.0577
51831W        W52695  26.919   8.276  12.998  0.0836 -0.0661  0.0231
51832W        W52696  24.283  22.565   8.989  0.2663 -0.1460  0.3925
51833W        W52697   8.016   2.393   9.656  0.1005  0.0799  0.0486
51834W        W52698   7.807  27.189  28.435 -0.0946  0.1560  0.2859
51835W        W52699  28.948  28.320  11.605  0.2008 -0.1691 -0.0536
51836W        W52700   3.972   5.330  21.627  0.3007 -0.3980  0.4518
51837W        W52701   8.112   0.987   7.845  0.1247 -0.1906  0.0033
51838W        W52702   9.441   9.794  20.406  0.0208  0.2738  0.3685
51839W        W52703   3.981  10.588  20.952 -0.2459 -0.0342  0.3253
51840W        W52704  16.173   3.049  17.587 -0.2963  0.4330  0.0988
51841W        W52705   5.513  27.992  12.508 -0.0328 -0.1859  0.0383
51842W        W52706   3.864  20.061  10.277  0.0305 -0.0875 -0.0893
51843W        W52707   2.253   3.111  28.829 -0.1496 -0.0022  0.0003
51844W        W52708   7.741  17.860  13.524  0.2793  0.0625  0.3795
51845W        W52709  10.892  28.148  28.484 -0.0826 -0.6171 -0.1825
51846W        W52710  14.423   8.856  28.554  0.4248 -0.0114  0.0049
51847W        W52711   3.828   0.949   5.001 -0.4588 -0.1162 -0.1381
51848W        W52712  29.064  27.163   1.742 -0.3086  0.2047  0.0989
51849W        W52713  27.486  28.628  27.390  0.1193 -0.1598 -0.0696
51850W        W52714  14.519   6.157  21.143 -0.1611  0.0770  0.0284
51851W        W52715  25.907  18.910  11.748  0.0105 -0.1989  0.1231
51852W        W52716   1.815   4.353   0.022 -0.0953  0.0877  0.0009
51853W        W52717   1.943   0.763  21.349  0.0875  0.4235  0.2294
51854W        W52718  17.870   1.956   9.132 -0.1328  0.1894  0.0704
51855W        W52719  22.292  10.852  22.401  0.0281 -0.0187 -0.0155
51856W        W52720   6.085  18.193  12.326  0.2616 -0.0318 -0.0670
51857W        W52721  12.067  21.109  14.019 -0.0459 -0.1034  0.1882
51858W        W52722  14.584   6.845  23.175  0.3950 -0.0060 -0.1082
51859W        W52723  27.534   4.875   8.916 -0.0342 -0.3772  0.1782
51860W        W52724  24.907   1.984   6.871  0.1108 -0.0565  0.0965
51861W        W52725   6.550   9.868   1.015  0.0848 -0.5784  0.1773
51862W        W52726   5.164   6.558  10.929 -0.1608 -0.1643 -0.0106
51863W        W52727  11.381  12.032  15.006 -0.0919  0.1207 -0.0515
51864W        W52728   3.162  18.551  13.260 -0.1106 -0.0728  0.0515
51865W        W52729  17.074  23.050   0.817  0.2801 -0.1591 -0.0980
51866W        W52730  22.093  24.250   8.061 -0.0250 -0.1605 -0.4186
51867W        W52731  24.615  22.181  14.131 -0.1111  0.1333  0.1352
51868W        W52732  23.400  13.954  11.485  0.1135  0.0394  0.0502
51869W        W52733   3.213   2.258  27.906  0.1071  0.0665 -0.2686
51870W        W52734  25.272  10.193  21.748 -0.1853 -0.0321 -0.0193
51871W        W52735   8.492   2.331   7.005  0.0938 -0.1551  0.0603
51872W        W52736  12.805  28.318  11.249  0.0654  0.1769  0.0143
51873W        W52737  17.282  24.962   2.914 -0.3866  0.1385  0.1212
51874W        W52738  13.197   1.028   9.020  0.3577  0.1576 -0.5450
51875W        W52739  23.130  13.884  25.959 -0.4709  0.2665  0.1163
51876W        W52740  15.643  28.706  15.611  0.0915  0.0411  0.2200
51877W        W52741   9.892  11.640  22.590 -0.0724 -0.1417  0.0877
51878W        W52742  12.599  15.961  10.096 -0.1095 -0.3053  0.0106
51879W        W52743   7.204  25.339   7.514 -0.2702  0.1262 -0.0577
51880W        W52744  27.170   7.273   6.424  0.0018  0.1024 -0.2063
51881W        W52745  22.097   1.916   8.852 -0.2350  0.0918  0.0703
51882W        W52746  13.029  12.705  15.518 -0.0139  0.0428 -0.0271
51883W        W52747   6.740   8.957  26.136  0.0054  0.0253  0.0975
51884W        W52748  20.272  26.347   8.151 -0.2306 -0.1396  0.0689
51885W        W52749   8.868  13.748   6.710  0.0763  0.3736 -0.1122
51886W        W52750  24.557   7.572   6.500 -0.0988  0.0874 -0.0945
51887W        W52751  19.131   3.031  10.890  0.1503 -0.1082 -0.0696
51888W        W52752  27.476  14.361  25.387 -0.0684 -0.1360 -0.1603
51889W        W52753  11.030  20.512  18.962 -0.0757 -0.0329  0.0036
51890W        W52754  21.592   6.851  15.000 -0.1767  0.1043  0.1262
51891W        W52755   4.826  27.152  23.936 -0.0399  0.1955  0.2608
51892W        W52756  24.208  11.351  16.253 -0.3966 -0.1531 -0.1722
51893W        W52757  17.224  18.989   7.099  0.2415 -0.3532  0.1676
51894W        W52758  24.594   4.906   8.658 -0.1207 -0.0035  0.0451
51895W        W52759   1.937  18.022  24.424 -0.0194  0.1673 -0.0104
51896W        W52760  26.993   6.916   3.890  0.0706  0.0963 -0.4183
51897W        W52761  11.332  15.685  15.505 -0.1750  0.1777 -0.0532
51898W        W52762  11.875   1.207   7.476  0.1559 -0.3199 -0.0702
51899W        W52763  28.471   4.819  13.715 -0.0027  0.1641 -0.0743
51900W        W52764   0.377   1.737   5.359  0.0744 -0.1226  0.2711
51901W        W52765   5.667  12.894   5.646 -0.0805 -0.1876 -0.0925
51902W        W52766  11.983  14.776  24.721  0.1484 -0.1572 -0.1517
51903W        W52767   3.182  10.743   5.638  0.0422  0.0207  0.1153
51904W        W52768  25.071   0.897  19.302  0.0835 -0.2211 -0.1028
51905W        W52769   1.521  19.361  18.345  0.0652  0.2279  0.0487
51906W        W52770   2.240  26.488  27.616  0.0074  0.0839  0.0858
51907W        W52771  14.490   5.866  22.314 -0.1693  0.3699  0.0031
51908W        W52772  17.240  27.925  14.327  0.0496 -0.3459 -0.1788
51909W        W52773  12.089  14.353   4.730 -0.0208 -0.3976  0.1169
51910W        W52774   7.437  12.957  25.768 -0.0107 -0.1419 -0.0118
51911W        W52775   6.901   2.985  18.634  0.1466  0.2073 -0.1373
51912W        W52776  10.820  17.842  27.155 -0.1551  0.1179 -0.0244
51913W        W52777  15.469  27.408   7.340 -0.1426  0.1284 -0.1158
51914W        W52778  13.025  26.517  12.130  0.3674 -0.1274 -0.0504
51915W        W52779   1.919   7.704   5.431 -0.0430  0.0860  0.3178
51916W        W52780   0.474  18.081  10.779 -0.0279  0.1741  0.0486
51917W        W52781   3.601   9.583   2.297 -0.0166 -0.1214 -0.3591
51918W        W52782   7.357  17.542   3.098  0.2912 -0.2931 -0.1883
51919W        W52783   4.005  10.267   4.666  0.0907 -0.2000 -0.1238
51920W        W52784   7.928   3.180   5.228  0.0370  0.0267 -0.1690
51921W        W52785  21.393  12.025   5.493 -0.1761  0.1739 -0.0192
51922W        W52786  19.029  18.878  10.108 -0.1943  0.0960 -0.1263
51923W        W52787  14.926  11.163   1.854  0.2277 -0.3595 -0.1366
51924W        W52788   6.860  21.450   0.096  0.0195  0.3462  0.0364
51925W        W52789  14.582  23.464   9.121 -0.2439 -0.1109 -0.2803
51926W        W52790   0.834  25.045  16.946  0.0058 -0.0293 -0.0193
51927W        W52791   8.345   1.751   7.513  0.0789  0.0451  0.0209
51928W        W52792  13.666  22.050  28.382 -0.1675  0.0014 -0.3198
51929W        W52793  26.828  23.218  12.829 -0.1441 -0.4654 -0.1296
51930W        W52794  26.030  26.245   6.449  0.1029  0.2559 -0.1799
51931W        W52795  27.625  17.226   8.392 -0.4149 -0.1332  0.4951
51932W        W52796   4.473  26.492   3.664  0.1356  0.3078 -0.0302
51933W        W52797  24.368   5.887   2.493 -0.2725  0.0088 -0.1257
51934W        W52798  13.823  13.100   2.984  0.2367 -0.3149  0.1414
51935W        W52799  11.369  20.761   3.229  0.1605 -0.1228 -0.0531
51936W        W52800  16.337   0.612   8.062 -0.0491  0.1929 -0.1831
51937W        W52801   6.203   9.073  12.654  0.1855  0.3769  0.0392
51938W        W52802  11.843  26.258  16.263 -0.1643  0.0431 -0.0394
51939W        W52803  12.114  22.845   6.117  0.1016 -0.1958 -0.2249
51940W        W52804  12.256  16.369   8.225  0.2765 -0.1484 -0.1040
51941W        W52805  10.469  15.780  12.096 -0.1082  0.1278 -0.0730
51942W        W52806   5.290  22.507   9.052  0.0150  0.0517 -0.1760
51943W        W52807  18.041  16.131   6.329 -0.1671 -0.0732  0.0669
51944W        W52808  12.610  13.325  11.126 -0.1865 -0.1006 -0.3327
51945W        W52809  10.553   9.533  18.339 -0.1467 -0.2160  0.0504
51946W        W52810   4.725  24.161   9.431  0.1809 -0.1280 -0.1213
51947W        W52811  11.515  23.139  24.467 -0.0793 -0.3031  0.0878
51948W        W52812  23.665  24.374  10.862 -0.0115  0.0014  0.0800
51949W        W52813  12.312  23.108  18.019 -0.0377 -0.0076  0.1921
51950W        W52814  27.494  25.293  22.819 -0.3844  0.0118  0.2960
51951W        W52815   8.294   8.954  25.627 -0.0218  0.1176  0.0488
51952W        W52816  24.154  27.280   3.665 -0.2445  0.1111 -0.0080
51953W        W52817  10.017   6.353   6.651  0.0488 -0.1470 -0.2066
51954W        W52818  24.778  10.098  11.791  0.0593 -0.0855  0.2570
51955W        W52819  22.062   2.445   0.539 -0.2435 -0.0121  0.1188
51956W        W52820  18.008   3.143   9.686  0.5051  0.2462  0.1409
51957W        W52821  12.282  12.579  17.057  0.0166 -0.0225 -0.1302
51958W        W52822   5.746  28.269  10.267 -0.2342  0.0276  0.2282
51959W        W52823   5.332   4.828  25.972  0.0101 -0.0967 -0.0614
51960W        W52824  11.160   9.792  23.365 -0.0657  0.3775  0.1069
51961W        W52825  24.438   3.248   9.300  0.4048 -0.0013  0.0452
51962W        W52826  21.896  26.278   1.659 -0.0403 -0.0042  0.2705
51963W        W52827  27.646  12.139  14.704 -0.1156 -0.0132 -0.3726
51964W        W52828  11.103   9.919  23.869  0.4089 -0.1393 -0.0114
51965W        W52829   2.751   6.972   2.096 -0.0437 -0.0136  0.0163
51966W        W52830  10.135   8.898   7.005  0.0473 -0.1250  0.5174
51967W        W52831  10.617  28.226  15.284  0.6365  0.1232 -0.0953
51968W        W52832   0.406  12.512  16.464 -0.2590 -0.2667  0.3372
51969W        W52833   0.005  15.853  14.656  0.1512 -0.0691 -0.0912
51970W        W52834   6.848   9.234  13.986 -0.0868  0.0234 -0.1623
51971W        W52835  27.118  25.917  20.479 -0.0001 -0.0675  0.1169
51972W        W52836  10.824  19.894  17.013 -0.2203  0.0149 -0.5444
51973W        W52837   9.606  28.313  24.466 -0.2644  0.0589  0.0011
51974W        W52838   2.881   7.956   1.067 -0.0103  0.0290  0.0129
51975W        W52839  27.330  12.766   9.094  0.4579 -0.1161 -0.0800
51976W        W52840  23.919   5.086   4.808 -0.1575 -0.0117 -0.0811
51977W        W52841  18.740  24.785  14.822 -0.1981  0.1204  0.2283
51978W        W52842   4.164  16.971  14.798  0.0566 -0.0832  0.1006
51979W        W52843   9.455  14.251  10.720  0.2084 -0.0041 -0.1920
51980W        W52844   5.228  28.073   0.780  0.2858 -0.0814 -0.1503
51981W        W52845   0.371  22.988  21.247 -0.1954 -0.0349  0.3627
51982W        W52846  14.117   4.768  24.765 -0.2006 -0.1674 -0.0186
51983W        W52847  25.997   7.368  14.342 -0.0877 -0.0060 -0.1125
51984W        W52848   5.930   9.434   1.634 -0.0443 -0.1872 -0.3172
51985W        W52849  14.419   5.397  27.196  0.1126 -0.0344  0.0732
51986W        W52850  18.740  14.109   4.540  0.2226 -0.0983 -0.0064
51987W        W52851   9.354   8.947   4.153  0.3317  0.3181 -0.0456
51988W        W52852  15.518   8.984  21.835  0.2804 -0.1271  0.0613
51989W        W52853  12.227  18.650  21.150 -0.1593 -0.2747 -0.0318
51990W        W52854   4.444   0.949  10.096  0.2745  0.3145 -0.0406
51991W        W52855   3.218   1.429  19.603  0.2165 -0.3858 -0.0267
51992W        W52856   5.900   3.876  15.999 -0.1924  0.1461  0.2254
51993W        W52857   3.455  21.656  24.875 -0.3517 -0.1599 -0.0454
51994W        W52858  11.602  25.265  10.742 -0.0848 -0.0467 -0.0899
51995W        W52859  17.621  10.897  10.380 -0.2186  0.3623  0.0679
51996W        W52860  26.224  10.200   4.409 -0.2380 -0.2636  0.0662
51997W        W52861   0.288   7.973   5.723 -0.0809  0.0289  0.0403
51998W        W52862   2.224  17.069  23.568  0.1116  0.2085  0.2502
51999W        W52863   3.648  21.432  17.538  0.0045 -0.1253  0.0832
52000W        W52864  15.024   0.140  28.961 -0.0085 -0.2427  0.0023
52001W        W52865  17.507  13.785  15.667 -0.1478  0.2274  0.0750
52002W        W52866   0.022  16.231   2.727  0.0523 -0.1509 -0.1339
52003W        W52867   4.566  19.297  18.548  0.3440 -0.1325  0.0337
52004W        W52868   8.635  18.497  21.722  0.0772 -0.2225 -0.0571
52005W        W52869  12.409   0.990  19.679 -0.0174 -0.2199  0.2349
52006W        W52870  18.946   3.455   9.817 -0.0357  0.1238 -0.2418
52007W        W52871  11.161   4.110   7.336  0.2537 -0.1751  0.1121
52008W        W52872  10.590  18.377   9.352 -0.0846 -0.0295 -0.0963
52009W        W52873   7.375  11.770   3.217  0.5017 -0.2304  0.0741
52010W        W52874   8.611  27.799  10.898 -0.1457 -0.2776  0.0325
52011W        W52875   7.491  22.593  12.964  0.0759 -0.0841  0.3574
52012W        W52876   7.469   2.505  27.683  0.0476  0.1741 -0.1051
52013W        W52877   5.546  14.374   4.712 -0.1911 -0.0874 -0.3550
52014W        W52878  28.553   3.787   6.212 -0.0498  0.1431 -0.0120
52015W        W52879   7.855   3.229  12.799  0.0030  0.3263  0.0711
52016W        W52880   3.467   1.558  13.128 -0.0337  0.0347 -0.1936
52017W        W52881  23.811   5.823   8.635 -0.0215  0.2862  0.2396
52018W        W52882  18.082   6.744  16.090 -0.2119 -0.0676  0.0436
52019W        W52883  16.510   3.453   1.507 -0.0575  0.1619 -0.0197
52020W        W52884  24.958  22.737  26.346  0.1103  0.2339 -0.1005
52021W        W52885   4.868   4.136   8.720 -0.2108  0.3167  0.2739
52022W        W52886   4.502  24.249  22.799 -0.0009 -0.0442  0.2686
52023W        W52887   6.005   2.051  11.992 -0.0738  0.3727 -0.0947
52024W        W52888  27.652  15.868   3.645  0.1094 -0.1948  0.0002
52025W        W52889  15.689   2.178   4.612 -0.0199  0.1667  0.1320
52026W        W52890   0.248  26.997  24.609 -0.1710 -0.0004 -0.2072
52027W        W52891   7.671  28.368  21.293  0.2219  0.0537 -0.1029
52028W        W52892   6.616   3.690  20.873 -0.0099 -0.1727 -0.0829
52029W        W52893  11.402  10.227   7.276 -0.0490  0.3231 -0.2312
52030W        W52894   3.149  24.039   6.291  0.1155 -0.2929  0.0804
52031W        W52895   0.466   8.071  26.662  0.0638  0.2231  0.0647
52032W        W52896  23.464  12.286   8.814 -0.1822  0.1934  0.1592
52033W        W52897   3.120  27.127  18.793 -0.2163 -0.3430  0.0402
52034W        W52898   6.791  28.703   1.733 -0.0503 -0.2089 -0.2886
52035W        W52899  17.818   7.731   4.163  0.0745 -0.0962 -0.1864
52036W        W52900   6.040  18.140   0.900 -0.0615  0.1526  0.0250
52037W        W52901  22.037  26.548   9.375  0.0585 -0.0199  0.4013
52038W        W52902  25.853  26.484   5.106 -0.0828 -0.1580 -0.0835
52039W        W52903  18.881  26.491  15.692  0.3873 -0.0794  0.1497
52040W        W52904  19.114   9.106   5.523 -0.1745 -0.0422 -0.1238
52041W        W52905  20.983  12.822   4.418 -0.2682  0.0160 -0.0520
52042W        W52906  16.965  10.192   4.984  0.1177  0.1654 -0.1165
52043W        W52907  13.637   4.867  18.652 -0.2521 -0.2441  0.2094
52044W        W52908  12.029   1.426  12.220 -0.2286  0.0171  0.1035
52045W        W52909  22.448   9.314  13.124 -0.0332 -0.0351 -0.0509
52046W        W52910  10.720  12.364  25.566  0.1448 -0.0370 -0.0611
52047W        W52911  26.341   4.283   3.536 -0.0050  0.1870 -0.3323
52048W        W52912  28.036  15.671  22.174  0.0062 -0.0068  0.0110
52049W        W52913  10.256  26.011  23.014 -0.0051 -0.5095 -0.6338
52050W        W52914  16.358  23.116  28.158 -0.0143 -0.0811  0.0605
52051W        W52915  16.345   6.288   6.740 -0.1725 -0.0811  0.1461
52052W        W52916   6.249   0.067   7.010 -0.0118 -0.1440 -0.0724
52053W        W52917  22.417   0.362  23.445 -0.1565 -0.3719  0.0081
52054W        W52918  10.144  10.265   3.014  0.0653 -0.0374  0.1770
52055W        W52919   5.606   0.557  18.262 -0.2752 -0.1122 -0.3077
52056W        W52920  15.444  16.541  15.763 -0.0325  0.2454 -0.1517
52057W        W52921   5.180  14.495   7.361 -0.2072 -0.1952 -0.2732
52058W        W52922   1.924   4.569  18.256 -0.1058 -0.1145  0.0027
52059W        W52923   5.481   3.866   0.552  0.1110  0.1316 -0.0046
52060W        W52924  12.358   2.358  27.098  0.1350  0.1448  0.0363
52061W        W52925  15.597  24.969  10.397 -0.1467  0.1335 -0.0254
52062W        W52926  15.531   9.466   0.835 -0.1622  0.3420 -0.1871
52063W        W52927  20.659  13.981   3.680  0.1988 -0.0447 -0.0420
52064W        W52928   1.823   3.010   9.148 -0.2070 -0.0387  0.0071
52065W        W52929   8.907   2.118   1.515 -0.0154 -0.2381 -0.0796
52066W        W52930   5.121  21.460   4.865 -0.0873  0.2992 -0.0404
52067W        W52931  12.355  24.233  10.153  0.0118 -0.1229 -0.0127
52068W        W52932  12.674  14.619   9.751 -0.1782  0.2323  0.0534
52069W        W52933  11.648   3.994  10.550  0.1636  0.0618 -0.1817
52070W        W52934  13.871  12.799  24.754  0.0690 -0.0007  0.0851
52071W        W52935  11.516   5.819   0.290 -0.4050 -0.2341  0.0514
52072W        W52936  23.434   3.533  25.537  0.1738 -0.1298  0.0704
52073W        W52937   5.732  17.358  11.910  0.0927  0.1395  0.2340
52074W        W52938   8.174   1.389   8.337  0.2522 -0.1387 -0.1536
52075W        W52939   5.056  20.893   0.839 -0.2733 -0.0907  0.2133
52076W        W52940  25.152   6.563   7.672 -0.0167  0.1129 -0.0075
52077W        W52941  23.441   3.258   5.746 -0.1098  0.1313 -0.1406
52078W        W52942  22.120  11.203  23.141 -0.1881  0.1106  0.1162
52079W        W52943   2.771   3.919   4.861  0.2828 -0.0162  0.1095
52080W        W52944   9.581  12.818  25.301  0.1124  0.0548  0.1137
52081W        W52945   6.004  12.004   2.077  0.0813 -0.0606 -0.1891
52082W        W52946   4.489   7.078   7.967 -0.0140 -0.0254  0.0793
52083W        W52947  12.345  20.163  14.760  0.0267 -0.1077  0.0285
52084W        W52948   6.996  10.603  26.129  0.0139  0.0612  0.0118
52085W        W52949   1.147  21.190   5.776  0.1318  0.0617  0.1381
52086W        W52950  13.813   9.514  26.676  0.0831  0.0128  0.4212
52087W        W52951   0.357  26.365   9.929  0.0900 -0.1383 -0.0327
52088W        W52952   0.005  27.857   6.671  0.1485 -0.0444 -0.3221
52089W        W52953  14.417  18.733   2.706 -0.2089  0.1665 -0.2422
52090W        W52954   5.662   0.002   1.754 -0.1952 -0.1305 -0.1277
52091W        W52955   4.815  10.421  11.002 -0.1247  0.3191 -0.0023
52092W        W52956  25.853  27.048  15.183  0.1562  0.0524 -0.0600
52093W        W52957   6.463  23.485  13.574  0.0372 -0.2201 -0.3949
52094W        W52958  17.120  10.710  10.607 -0.1510 -0.0333  0.1778
52095W        W52959   1.498  14.067  20.320 -0.0615  0.2779 -0.2262
52096W        W52960  25.940   7.113   2.010  0.2611 -0.1101 -0.1095
52097W        W52961  27.121  20.071  23.790  0.0681 -0.0906 -0.0648
52098W        W52962   1.740  26.344  10.992  0.0260  0.2693  0.0547
52099W        W52963  22.296   3.679   9.164  0.1321  0.1462 -0.1722
52100W        W52964  25.177  24.824  20.759 -0.1999  0.0458 -0.2286
52101W        W52965   2.812   7.172   6.484 -0.0634 -0.2118 -0.2108
52102W        W52966  28.437   1.799  10.039  0.1318  0.1014  0.1663
52103W        W52967   3.045   3.283   0.403  0.2948  0.0404 -0.0797
52104W        W52968  18.742  27.461  15.015  0.2133 -0.2977 -0.1441
52105W        W52969   0.764  21.244   2.867  0.1112 -0.0115  0.0613
52106W        W52970  16.918   4.899   9.051 -0.1808 -0.0748 -0.1634
52107W        W52971  18.489   8.421  28.674 -0.2042 -0.1092  0.0842
52108W        W52972   9.000  19.044  23.279 -0.1013  0.2804  0.0098
52109W        W52973   1.552  28.257  11.553  0.1387  0.2927 -0.6230
52110W        W52974  21.748  10.082  29.066  0.0382  0.1324 -0.0450
52111W        W52975   4.854   0.862   4.293  0.0410  0.0006  0.0552
52112W        W52976  13.794  22.973  10.570  0.0263 -0.0022  0.2329
52113W        W52977  27.326   7.462  17.514 -0.0474 -0.0759 -0.2161
52114W        W52978   9.679   8.753  25.603  0.1248 -0.0488 -0.0593
52115W        W52979  27.780   7.963   3.767 -0.0554 -0.0809  0.0700
52116W        W52980  13.238  18.510   6.625 -0.3578 -0.1332  0.3779
52117W        W52981   9.363   4.382   3.993  0.0190  0.0853 -0.0809
52118W        W52982  21.775   4.392   0.287 -0.0774  0.2848 -0.0044
52119W        W52983  27.847  11.686  16.132  0.1799  0.1305  0.0996
52120W        W52984  19.780   4.043  22.192 -0.3946  0.0697  0.0809
52121W        W52985   2.048   2.262  24.576  0.2827 -0.0830 -0.1400
52122W        W52986   1.439   5.390  14.388 -0.4732  0.0215  0.2675
52123W        W52987   8.239   9.116  18.133  0.1037 -0.0259 -0.1349
52124W        W52988  24.243  22.883   9.814  0.1671  0.1453 -0.3279
52125W        W52989  19.249   0.367   0.412 -0.4822 -0.1283 -0.3434
52126W        W52990  10.464  18.229   4.185  0.0692  0.0751 -0.2082
52127W        W52991  16.096  28.503  11.590  0.0722 -0.0808 -0.0928
52128W        W52992  18.933   0.970  27.322  0.0764 -0.3493  0.0980
52129W        W52993   5.366   2.263  16.368 -0.1311 -0.0357 -0.2313
52130W        W52994  19.991   0.535   6.627 -0.2936 -0.0713  0.0342
52131W        W52995   5.266  14.832  18.308 -0.0775  0.2176  0.0356
52132W        W52996   3.742   2.184   6.311  0.2699  0.1079  0.1033
52133W        W52997   7.023  28.761   2.819 -0.1630 -0.2147  0.0668
52134W        W52998  20.934  15.528   9.900 -0.1271 -0.0945  0.1905
52135W        W52999  11.689   8.475   8.721  0.1827  0.1487  0.2152
52136W        W53000   1.956  24.698  12.985  0.2235  0.2744 -0.0207
52137W        W53001  10.085  21.873  10.435  0.0918  0.4157 -0.0174
52138W        W53002  24.592  11.437  27.948  0.0562  0.1294 -0.1845
52139W        W53003   4.423  20.974  20.432  0.0304 -0.2205 -0.1860
52140W        W53004  11.104  26.550   9.159 -0.1361 -0.2898  0.0379
52141W        W53005   2.735  24.951   8.115  0.0296  0.0402  0.1028
52142W        W53006  12.542   5.582   4.946 -0.2156  0.1453 -0.1714
52143W        W53007   9.602   5.726   1.601  0.2080  0.1550  0.1894
52144W        W53008  23.050  18.432   7.462 -0.0254 -0.3177  0.2974
52145W        W53009   2.418  17.407  13.077 -0.0383 -0.0371 -0.1391
52146W        W53010  27.758   5.165   3.647 -0.2858  0.2830  0.1628
52147W        W53011  26.905  20.035  13.981 -0.0032  0.1655  0.4222
52148W        W53012   5.210  28.763   1.112 -0.0914  0.0722  0.0100
52149W        W53013   6.948  13.164  26.473  0.2538  0.1641 -0.1426
52150W        W53014   2.182  15.430   0.353 -0.1074  0.0320 -0.1122
52151W        W53015   6.532  17.154  22.988  0.1325  0.1385  0.1665
52152W        W53016  20.676   6.853  23.345 -0.1408  0.1664 -0.0293
52153W        W53017   6.077  28.423   4.350 -0.1226  0.3613 -0.2504
52154W        W53018  12.551  22.563   0.865 -0.1638 -0.1170  0.1781
52155W        W53019   3.416   3.375  13.840 -0.0239  0.2318 -0.2680
52156W        W53020  26.753   4.466   4.612  0.0646 -0.3370  0.1263
52157W        W53021   4.767   5.767  22.285  0.0430 -0.0890  0.1044
52158W        W53022  24.469   2.309   6.738 -0.0652  0.2214 -0.0887
52159W        W53023  14.216   7.714  13.152 -0.0455 -0.3172  0.1581
52160W        W53024  24.236  28.570  11.739  0.0147 -0.1376 -0.0054
52161W        W53025  16.455  10.635  24.442 -0.0179  0.1818  0.0015
52162W        W53026   7.599   6.929  26.554  0.2328 -0.0424 -0.0394
52163W        W53027  10.924  16.837   0.767  0.1277  0.2060  0.2848
52164W        W53028  26.882  18.534   9.641  0.1992  0.0592  0.3308
52165W        W53029   6.593   3.840   2.475  0.1876  0.1865  0.0459
52166W        W53030   1.485   7.944   1.149 -0.2000  0.0068 -0.0215
52167W        W53031   3.595  26.764  20.024 -0.2043 -0.0416 -0.0672
52168W        W53032   2.101  26.606  18.802 -0.2448 -0.3581 -0.0267
52169W        W53033   1.172   5.451  27.349  0.0187 -0.1596 -0.2617
52170W        W53034   4.094  23.005   8.536 -0.4894 -0.1053  0.0516
52171W        W53035  12.939   7.875   1.016 -0.2109 -0.1345  0.0433
52172W        W53036  19.778   4.025   5.073  0.1140 -0.1044 -0.2296
52173W        W53037  15.641   5.691  20.866  0.0319 -0.1746 -0.1273
52174W        W53038  11.804  25.944  11.678  0.0090  0.0674  0.2088
52175W        W53039  14.778  21.305  27.603 -0.2222 -0.4169 -0.3435
52176W        W53040   7.462  14.813   1.261 -0.1417 -0.0373 -0.4127
52177W        W53041  18.826  22.284  12.931  0.0830  0.3142 -0.1457
52178W        W53042   1.772  16.909  19.925  0.0788  0.2039  0.0885
52179W        W53043   2.585   5.980   1.754  0.0006 -0.1845  0.2478
52180W        W53044  13.575   4.198  12.915 -0.0285 -0.2722  0.1513
52181W        W53045  17.886  23.129  19.570 -0.0837 -0.2551 -0.0441
52182W        W53046  14.035  25.596  19.497 -0.3460  0.3527  0.1352
52183W        W53047   0.367  27.470  11.692 -0.3611  0.0150  0.1638
52184W        W53048   0.028  10.270  20.459  0.0825  0.1291  0.0727
52185W        W53049  10.127  17.222   6.440 -0.0721  0.1876  0.0192
52186W        W53050  12.315  28.357  15.763  0.1824 -0.1923  0.0460
52187W        W53051  16.049   0.157   3.768  0.0407  0.1552 -0.0695
52188W        W53052   5.942  24.371  16.324  0.6025  0.0659  0.2675
52189W        W53053  20.270  16.647  11.042  0.0476  0.0965  0.0710
52190W        W53054  14.770   7.835  28.749  0.0322  0.3929  0.0239
52191W        W53055  22.426   1.834  23.189 -0.2570  0.0500 -0.0111
52192W        W53056  27.436   1.639  26.604  0.1686 -0.3089  0.1221
52193W        W53057   4.951   7.118  16.778 -0.1153  0.0913 -0.0352
52194W        W53058  23.978   6.731  16.084 -0.2225  0.0717 -0.0925
52195W        W53059  23.122   9.490   2.007 -0.3406  0.0372 -0.0159
52196W        W53060   1.610   5.681  24.097 -0.1932 -0.1656  0.1052
52197W        W53061   3.243   1.434   1.803  0.0113 -0.0522 -0.0969
52198W        W53062   0.431  12.101  13.348  0.1360 -0.3102  0.0244
52199W        W53063  11.223  14.912   6.367  0.4892 -0.0780  0.1794
52200W        W53064   8.595  26.671  26.612 -0.1126  0.1471 -0.1450
52201W        W53065   2.098   2.991   5.303  0.1878  0.0281  0.2019
52202W        W53066   7.868  25.371  15.600  0.0989 -0.1097  0.2017
52203W        W53067  11.911   0.422  14.056  0.2254 -0.0694 -0.1190
52204W        W53068   4.912   6.314   2.865  0.0127  0.2545 -0.1641
52205W        W53069  16.896  22.095  15.038 -0.1512  0.2069  0.0228
52206W        W53070   4.007   2.980  10.433 -0.2799 -0.3843  0.2228
52207W        W53071  20.333  15.133  11.474 -0.1123  0.1634 -0.1192
52208W        W53072  20.756  15.210   6.276 -0.2476 -0.1033  0.0412
52209W        W53073  27.520   3.850  12.632  0.1482  0.4089  0.1428
52210W        W53074   5.286   8.984   5.543 -0.1148  0.1406 -0.0559
52211W        W53075  11.456   5.581  18.022 -0.0543 -0.0283  0.1262
52212W        W53076   6.888   6.615   8.427  0.0878 -0.0482  0.0400
52213W        W53077   4.393   3.583   3.342 -0.0040 -0.0484  0.0047
52214W        W53078   2.104  21.171  20.277 -0.1347 -0.0429  0.2550
52215W        W53079  15.799   2.175  14.116  0.1459 -0.0310  0.1461
52216W        W53080   6.529  14.793  10.195  0.0216  0.1431 -0.1320
52217W        W53081   0.861  19.070  20.728  0.0664  0.3709  0.0146
52218W        W53082  16.779   3.646   6.992  0.1852  0.2162 -0.0517
52219W        W53083  18.036  23.310  10.652  0.3899  0.2251 -0.0046
52220W        W53084   9.549  28.979   5.926  0.2293 -0.1813  0.0443
52221W        W53085  20.275   3.373  14.357 -0.0968 -0.0168 -0.3668
52222W        W53086  11.959  15.691  26.373 -0.0823 -0.0842 -0.1262
52223W        W53087  22.639   9.755   3.398 -0.1521  0.2737  0.0370
52224W        W53088  11.336  24.274  24.716 -0.1984  0.0280  0.0754
52225W        W53089  18.218   8.112   4.584 -0.1760  0.1092 -0.1164
52226W        W53090  15.795   2.372  18.889  0.4218  0.0389 -0.0368
52227W        W53091  14.110  10.051  14.188 -0.0605 -0.2691  0.2027
52228W        W53092  18.713  25.431  22.104 -0.4439 -0.0551 -0.1595
52229W        W53093  19.706   2.012  27.531  0.2252  0.1057  0.3041
52230W        W53094   4.294  13.615  11.272  0.1885  0.0481 -0.1100
52231W        W53095  23.973   4.774  13.119  0.0790 -0.0263  0.1525
52232W        W53096   3.750   4.472  17.992  0.1583  0.3083  0.0990
52233W        W53097  16.467   1.905   5.240  0.1352  0.0462 -0.1806
52234W        W53098   5.654  18.356   7.878  0.1570 -0.2192 -0.2109
52235W        W53099   7.254   2.573  20.840 -0.2706 -0.3005 -0.0284
52236W        W53100   1.794   5.402   4.584 -0.0974  0.2089 -0.0196
52237W        W53101  16.237   5.722  24.541  0.3747  0.0160 -0.1859
52238W        W53102   2.558  27.313  26.528 -0.1649 -0.0232 -0.0039
52239W        W53103  11.216  28.419  20.088  0.1640  0.1209 -0.1686
52240W        W53104   8.450   2.614   3.163 -0.0126  0.0302  0.3508
52241W        W53105  24.159  26.937  18.534 -0.1969  0.0858 -0.0450
52242W        W53106   6.449   9.161   3.441 -0.2300  0.3418  0.5799
52243W        W53107  29.071  10.364   4.184  0.1309  0.1180  0.0854
52244W        W53108   4.065   2.436  16.952 -0.0309  0.3239  0.0081
52245W        W53109   7.751   4.911  10.479 -0.1749  0.0829 -0.3204
52246W        W53110  14.646  22.629   5.103 -0.1202 -0.0509 -0.0815
52247W        W53111   4.465  18.449   4.264 -0.4130 -0.0400  0.2006
52248W        W53112   5.113  14.854   1.329 -0.0712  0.0862  0.0957
52249W        W53113  14.212   2.511   2.921 -0.2486  0.1034  0.1665
52250W        W53114  17.561   3.285  19.961  0.2704  0.0619  0.0775
52251W        W53115  11.065  26.550  17.131 -0.1735 -0.2133 -0.0299
52252W        W53116  15.776   6.830   7.081 -0.0758 -0.4360 -0.0328
52253W        W53117   4.664   6.364   8.575  0.0952 -0.1264  0.1576
52254W        W53118   5.432   6.440  18.116  0.0947 -0.0729  0.3295
52255W        W53119  18.314   3.636  28.847 -0.1156  0.1344  0.1202
52256W        W53120   9.570   3.352  26.449  0.0730  0.3406 -0.0762
52257W        W53121  12.655   2.514  15.074  0.1609  0.1668  0.1295
52258W        W53122  11.268   8.447  22.223 -0.1617 -0.0475 -0.2404
52259W        W53123  21.612  13.296  14.292 -0.1251 -0.1988  0.3002
52260W        W53124  10.934   2.836  15.907 -0.0927 -0.0238  0.0551
52261W        W53125  17.060  24.740  18.257 -0.0897  0.2690  0.0586
52262W        W53126  25.424   0.074   2.805  0.0072  0.1783 -0.0760
52263W        W53127   4.247   8.753  14.520  0.0425 -0.0839  0.2344
52264W        W53128  20.388  25.853   4.264 -0.1746  0.1463  0.5163
52265W        W53129  24.779   6.234  18.313 -0.0588  0.0783 -0.1644
52266W        W53130   8.051   1.909  24.035 -0.0236  0.0594  0.0867
52267W        W53131   0.842   3.011   7.755  0.1645  0.0466  0.2264
52268W        W53132  11.311  16.504   0.684  0.2740 -0.0495  0.4154
52269W        W53133  15.515  20.696  13.372 -0.1504  0.2876  0.0877
52270W        W53134   6.809   4.114  11.641  0.0868 -0.2435  0.3480
52271W        W53135   6.204  13.051   4.698  0.0831  0.0541 -0.0417
52272W        W53136  21.393   1.812   4.711 -0.2516 -0.1326  0.1709
52273W        W53137   3.008   2.310  18.594 -0.2692 -0.0672  0.4702
52274W        W53138  16.064   1.244  22.147  0.1493 -0.0092  0.2110
52275W        W53139  20.824   8.823  13.826 -0.0164 -0.1428 -0.2878
52276W        W53140   2.328  17.742  10.661  0.3647 -0.3801  0.0601
52277W        W53141  21.630   3.130  27.809 -0.0112  0.6309  0.0580
52278W        W53142   8.679  13.858  26.413 -0.1029 -0.0332 -0.0807
52279W        W53143  15.213   4.610   6.715  0.3463 -0.1396 -0.1886
52280W        W53144  14.499  19.438  23.950 -0.0806  0.1950 -0.1586
52281W        W53145  12.701  18.401  28.983  0.1361  0.1742  0.2155
52282W        W53146  21.790   4.669   4.898 -0.3674 -0.0641  0.1257
52283W        W53147   9.396   3.671  18.202 -0.0868 -0.0389 -0.1423
52284W        W53148  12.561  25.444  11.141 -0.1203  0.1615  0.1918
52285W        W53149  28.491  27.402   1.541  0.1056 -0.1470 -0.1131
52286W        W53150   0.733  15.464  27.615  0.2116  0.1551 -0.1368
52287W        W53151   8.942   7.695  13.916  0.1192 -0.2058 -0.0934
52288W        W53152  10.227  15.231   7.236  0.0955 -0.0978  0.0017
52289W        W53153  13.107   1.400  24.907 -0.0056 -0.0264  0.0815
52290W        W53154  11.029   3.672   7.737 -0.0079 -0.1543  0.0896
52291W        W53155  20.567  11.652  17.287  0.0106  0.0018  0.0915
52292W        W53156  11.241   0.905  15.808 -0.0327  0.0614 -0.1825
52293W        W53157   8.438   5.144   1.799  0.1841 -0.1080 -0.1072
52294W        W53158   6.167  14.430  16.086  0.2490 -0.1460 -0.0763
52295W        W53159   3.639  11.328   5.129 -0.1374 -0.1484  0.1087
52296W        W53160  19.097   4.167   8.907  0.1798  0.0324  0.0084
52297W        W53161  28.585  25.769  16.283  0.0721  0.3385  0.1099
52298W        W53162  27.690   3.924  22.533 -0.2373 -0.1298 -0.0108
52299W        W53163  24.290   9.374   0.638  0.0068  0.0230 -0.1630
52300W        W53164  18.348  25.251   0.780  0.1356  0.0958 -0.3161
52301W        W53165   4.213   1.313  27.768  0.0335  0.1868  0.1870
52302W        W53166   3.846  24.729  21.966 -0.0296  0.1549 -0.0742
52303W        W53167  14.870  22.926  20.769  0.2019 -0.1289 -0.0841
52304W        W53168   9.263  11.556  10.154 -0.0058  0.0154  0.0760
52305W        W53169  14.076  25.599   4.058 -0.4156  0.1844  0.0747
52306W        W53170  26.164  28.321   5.494 -0.1119 -0.1153 -0.0947
52307W        W53171  20.557  13.393  25.489 -0.1495 -0.1510 -0.2677
52308W        W53172   8.858   4.782   6.218 -0.1222 -0.0891 -0.1584
52309W        W53173  24.349   9.894  19.269  0.1229 -0.1685 -0.0012
52310W        W53174   8.242  24.351   5.960  0.2588 -0.0618 -0.0104
52311W        W53175  18.382  21.001  18.129 -0.0477  0.1572  0.1236
52312W        W53176   7.910  22.867  11.363 -0.0995  0.0475  0.1251
52313W        W53177  28.223  23.468  17.559  0.3630  0.1005 -0.0579
52314W        W53178   5.877  12.180  16.406  0.0061  0.2307 -0.0083
52315W        W53179   9.159  27.863   8.879  0.3951 -0.2895  0.0587
52316W        W53180  15.216  21.951   7.275 -0.2215 -0.1753  0.0200
52317W        W53181  25.966   7.955   5.805 -0.0927  0.1116 -0.4725
52318W        W53182   5.552  26.009  21.405 -0.1134 -0.2049  0.1766
52319W        W53183  14.847  17.133   7.909  0.1329  0.0923 -0.0463
52320W        W53184   8.126  18.746  23.274 -0.1363  0.0143 -0.1195
52321W        W53185   0.895  13.951  12.349 -0.0083 -0.1820 -0.3816
52322W        W53186  14.913  26.956  23.837 -0.1279  0.1682 -0.0095
52323W        W53187  28.802  10.157  16.996 -0.1124 -0.1296 -0.0189
52324W        W53188  12.263   1.923  19.982  0.1511  0.0775  0.0266
52325W        W53189   5.092   2.097   8.660  0.0156  0.1964 -0.2900
52326W        W53190  22.590  23.837  23.620  0.0373 -0.2284  0.0363
52327W        W53191  20.318   4.100   8.920  0.0798 -0.0798 -0.3587
52328W        W53192   9.451   0.759  26.778  0.0647 -0.0993  0.0113
52329W        W53193   5.445  23.910   6.719 -0.1831 -0.0435  0.2688
52330W        W53194  28.985  26.253  24.214 -0.1831  0.3888 -0.0112
52331W        W53195  22.961  12.459  17.136 -0.0493  0.3581  0.0032
52332W        W53196   7.448   1.535  17.970 -0.0078 -0.0153 -0.1221
52333W        W53197  23.783  28.344  12.397  0.1210  0.1465 -0.2794
52334W        W53198   5.747  27.354  15.186  0.3726  0.2153  0.0010
52335W        W53199  16.183  10.240  23.778 -0.0154 -0.0963 -0.3009
52336W        W53200  14.995  27.411  26.770 -0.0712  0.1143  0.2449
52337W        W53201   7.947   3.470   5.682  0.1851 -0.0460  0.1346
52338W        W53202  21.291  18.216  16.402 -0.1705 -0.2517  0.0966
52339W        W53203  26.075  17.125  18.494 -0.1833  0.4069 -0.0081
52340W        W53204  28.173  12.105  15.568  0.0615 -0.0216  0.0010
52341W        W53205   3.758  28.176   5.791 -0.0162 -0.1442 -0.1640
52342W        W53206   7.297  14.848   5.073 -0.1836  0.5774  0.0844
52343W        W53207  28.760  15.515  19.932  0.0314 -0.0713 -0.0887
52344W        W53208   0.649   9.095  21.221  0.2371 -0.0751 -0.1337
52345W        W53209  20.334   2.543  19.817 -0.2964 -0.0315  0.1915
52346W        W53210   7.051  18.363   6.110 -0.0847 -0.1058 -0.0237
52347W        W53211  13.939  18.385  24.509  0.2829 -0.2012 -0.0624
52348W        W53212   1.843   2.128  17.388 -0.1907 -0.0263  0.1553
52349W        W53213   6.210   1.638  20.268  0.0016  0.1372 -0.1620
52350W        W53214  10.288  13.059  10.997 -0.1538 -0.1666  0.2199
52351W        W53215  20.168   1.729   0.790  0.0329  0.2211 -0.0275
52352W        W53216  17.205  15.538   1.908  0.0869  0.2332 -0.0665
52353W        W53217  23.160  26.706   7.050 -0.1931  0.1731  0.0964
52354W        W53218  15.369  27.296  28.828  0.0332  0.1400  0.0541
52355W        W53219  15.401  28.325   3.319 -0.2108 -0.2134  0.2339
52356W        W53220  10.784   5.259   9.184  0.2845 -0.0710  0.0818
52357W        W53221  14.196  27.463  12.346 -0.1998  0.0239  0.0338
52358W        W53222   3.893  20.579  16.669  0.1417  0.1102 -0.4623
52359W        W53223   9.674   6.455   3.460  0.1111 -0.0842  0.2313
52360W        W53224  27.677  15.545   4.556 -0.0069  0.0475 -0.0905
52361W        W53225  19.168   1.966  16.937  0.3296  0.0393  0.2753
52362W        W53226  24.173   8.653  19.757 -0.1059 -0.0456 -0.0043
52363W        W53227   3.977   7.735   4.862 -0.1190 -0.0734  0.0615
52364W        W53228   3.511   3.577   7.290 -0.0444  0.0276 -0.0304
52365W        W53229  27.949  18.438   3.267 -0.0075 -0.0903 -0.1641
52366W        W53230  12.091   0.862   8.418  0.0289  0.2513 -0.0681
52367W        W53231  23.813  20.055   1.033 -0.3021  0.4808 -0.4618
52368W        W53232   8.600   5.884  24.795  0.2269  0.2069  0.0104
52369W        W53233   4.354  14.052  26.484  0.2974  0.1953  0.0117
52370W        W53234  18.503   3.701  27.515  0.0213  0.2978  0.0820
52371W        W53235   2.040   9.710   7.315  0.1897  0.0111  0.1862
52372W        W53236   4.562   7.133   0.322 -0.0886 -0.2326  0.1695
52373W        W53237  16.745   0.874   1.456 -0.0795  0.2092  0.0717
52374W        W53238  24.456  27.841  10.956 -0.0104 -0.0366 -0.0426
52375W        W53239  22.100  17.412  13.762  0.0877 -0.0764  0.2368
52376W        W53240   6.423  10.738  26.240 -0.2201 -0.1076  0.2344
52377W        W53241   8.460   1.012  10.710  0.1511 -0.2290  0.0896
52378W        W53242   6.803   4.969  14.808  0.1025 -0.0855  0.1259
52379W        W53243   7.348  15.546   9.287  0.0840  0.0553 -0.3109
52380W        W53244   6.286  18.054  15.173  0.1125  0.0214 -0.0126
52381W        W53245   9.956  13.342   7.961 -0.0403  0.0534  0.1410
52382W        W53246   1.852  24.870  28.518  0.4656 -0.2840 -0.3415
52383W        W53247  14.469  10.125  13.092  0.1204  0.0185  0.0967
52384W        W53248   7.578  25.954  27.276 -0.0992 -0.1715 -0.1189
52385W        W53249  17.060   9.835  23.733 -0.1685 -0.1539 -0.1117
52386W        W53250  24.227  20.651   5.998 -0.1971  0.0271 -0.1415
52387W        W53251  22.014   3.701   4.941 -0.0877 -0.0418 -0.0744
52388W        W53252  17.893   9.328  20.866  0.0989  0.1604 -0.1105
52389W        W53253  27.825  12.634  14.017  0.1366  0.3809 -0.1283
52390W        W53254  27.627  24.797   8.593 -0.1728 -0.0646  0.1377
52391W        W53255  21.385   0.041   2.088  0.1001 -0.0637  0.4830
52392W        W53256  14.570   1.001  25.057  0.0404 -0.0697 -0.2339
52393W        W53257   6.742   8.489   7.651  0.1767 -0.0584  0.1449
52394W        W53258  21.385  23.893   8.423  0.0437 -0.1341 -0.3347
52395W        W53259  28.015   1.696   9.738  0.4068 -0.2178 -0.0033
52396W        W53260  15.795  22.852   1.361 -0.0308  0.0714 -0.2548
52397W        W53261   2.106  10.941  18.624  0.0908  0.2318 -0.0396
52398W        W53262  14.527   7.201   0.123  0.2045  0.0043  0.1197
52399W        W53263   8.517  22.573  15.998  0.0147  0.1561 -0.1812
52400W        W53264   5.709   3.683   5.857  0.5759  0.1865 -0.1106
52401W        W53265  11.226   6.567   5.395 -0.0546  0.1300  0.1181
52402W        W53266   3.890   8.849  11.100  0.0612 -0.1506  0.1278
52403W        W53267  16.156   1.260  11.843 -0.2013 -0.2786  0.3714
52404W        W53268   4.798  16.537  25.023  0.3290  0.1920  0.0566
52405W        W53269   6.217   6.839  17.506  0.0931  0.2009 -0.4135
52406W        W53270   0.323   7.946  13.819  0.2164  0.0715  0.1069
52407W        W53271  19.267  23.101   5.590  0.1446 -0.2324 -0.1909
52408W        W53272  11.601  24.963  14.891 -0.0081 -0.1414 -0.2614
52409W        W53273  27.472  28.544   4.122  0.0509 -0.1633 -0.2379
52410W        W53274  18.779  28.267   1.633 -0.0050  0.3813  0.3181
52411W        W53275  20.523  20.565  27.683 -0.0512 -0.0627 -0.0223
52412W        W53276  20.742  23.414   0.722 -0.1429 -0.0468 -0.0833
52413W        W53277   6.381  21.130   5.075 -0.2788 -0.0504  0.3686
52414W        W53278   8.607  18.273   4.185 -0.0264  0.0734  0.0001
52415W        W53279   4.910  14.583   3.065  0.6934  0.2102 -0.0633
52416W        W53280   4.237  21.601   5.777 -0.1962 -0.1567 -0.0813
52417W        W53281   0.048  22.451  18.671  0.0660  0.0856  0.0624
52418W        W53282  22.972   6.823  25.438  0.3196 -0.2853  0.0665
52419W        W53283   7.005   4.638  15.552 -0.0913  0.2160 -0.0641
52420W        W53284  17.271   5.263  28.297  0.1668  0.0970  0.3150
52421W        W53285  27.732  16.263  13.292  0.0136 -0.2220  0.2247
52422W        W53286   9.775   4.359  23.141  0.3083 -0.1304  0.0927
52423W        W53287  19.071  19.538   0.859  0.2758  0.0783  0.1213
52424W        W53288   6.203   5.638  14.109 -0.2279  0.1797  0.1084
52425W        W53289  18.966   4.800   3.315 -0.1610 -0.0296  0.0385
52426W        W53290  26.143   9.013   5.096 -0.1891 -0.3295  0.2249
52427W        W53291  19.822  28.808  24.625  0.0622  0.0250 -0.1404
52428W        W53292  16.750  23.688   9.378 -0.0409 -0.2378 -0.1328
52429W        W53293  13.269  21.777  16.629 -0.1570 -0.1751  0.0677
52430W        W53294  17.971   8.884   8.009  0.1740  0.2774 -0.0642
52431W        W53295   4.450  10.994  17.857 -0.1667 -0.0632 -0.1684
52432W        W53296  23.096  22.271  18.670 -0.2689  0.2268 -0.0932
52433W        W53297   3.333   4.568  24.665 -0.2714 -0.1275  0.1988
52434W        W53298  10.874   7.958   4.312 -0.5175 -0.0631  0.0644
52435W        W53299  15.419  21.520  27.235  0.1795  0.2067  0.5081
52436W        W53300   8.665  20.183  14.754  0.3910  0.0820 -0.1467
52437W        W53301   2.661   5.908   0.392 -0.0244 -0.2008  0.1415
52438W        W53302   5.265   2.805   0.678  0.1497  0.2273  0.0775
52439W        W53303   9.281  25.433  21.185 -0.0257 -0.0776 -0.1043
52440W        W53304   8.280  20.409   7.569  0.0026 -0.1967  0.2777
52441W        W53305  11.273   5.196   2.794  0.2439 -0.2033  0.0190
52442W        W53306  14.425   7.329  23.275  0.0518  0.2185  0.2899
52443W        W53307  16.240   5.861  10.547 -0.1928  0.2699 -0.0587
52444W        W53308   5.510   1.258  14.090 -0.0712  0.0694 -0.0491
52445W        W53309  23.380   6.401  18.365  0.1283  0.0218  0.2764
52446W        W53310   8.009   2.178  17.884 -0.1410  0.0072  0.0609
52447W        W53311   2.559   1.415  15.746 -0.0127  0.1459 -0.2172
52448W        W53312  19.077  17.572   7.525  0.0883 -0.2260  0.1598
52449W        W53313   4.982  17.049  10.302  0.0007 -0.0333 -0.1570
52450W        W53314  21.345   1.922   3.653  0.2750  0.0379  0.1167
52451W        W53315  17.498  12.403  19.293  0.1824 -0.2862 -0.0790
52452W        W53316  22.829   7.642  16.294  0.2570  0.1070  0.1833
52453W        W53317   1.878   8.643   0.480 -0.1775 -0.1735  0.2199
52454W        W53318  14.858  10.662  13.300 -0.1036 -0.0664 -0.1767
52455W        W53319  23.700  14.430  12.139 -0.1235  0.3223  0.2929
52456W        W53320   6.259   2.855  17.112 -0.2914 -0.0973  0.1553
52457W        W53321  22.507  25.511  26.925  0.3686 -0.3178  0.0096
52458W        W53322  12.825  24.532  23.910  0.1292 -0.1272  0.0667
52459W        W53323   1.950  15.576  28.474 -0.1237 -0.2184  0.3168
52460W        W53324  24.754  27.915   7.265 -0.1271  0.0226  0.0094
52461W        W53325  28.546   8.430  16.706 -0.0191  0.3026  0.3346
52462W        W53326  13.521  10.106   8.338 -0.0965  0.0607 -0.1163
52463W        W53327   9.154   7.086   6.459  0.0211  0.0708 -0.1507
52464W        W53328   9.415  23.515  14.833 -0.2864 -0.0109  0.1489
52465W        W53329  23.839  21.477  19.359 -0.2924  0.0209 -0.2358
52466W        W53330  19.582  17.759   2.760  0.0231  0.0275 -0.1197
52467W        W53331   5.032  18.447  23.392  0.0864  0.1023  0.0673
52468W        W53332   6.705   2.354  27.372  0.0022 -0.0017 -0.0409
52469W        W53333  27.881  19.880  13.459 -0.2674  0.2624  0.2390
52470W        W53334   9.743   0.268  16.150 -0.0800  0.0367  0.3548
52471W        W53335   5.061   0.828  26.786  0.0098  0.0363  0.2263
52472W        W53336  12.806   1.083   4.502  0.1831 -0.3393  0.1007
52473W        W53337  21.646  18.921   8.378 -0.3993  0.0319  0.0209
52474W        W53338  27.916   4.432   5.334  0.0230 -0.2252 -0.0672
52475W        W53339   8.087   8.597   6.597 -0.1987  0.1439 -0.0151
52476W        W53340  17.719   1.456  21.562  0.0068 -0.0143  0.0670
52477W        W53341   5.235  28.587  18.474 -0.0273  0.0539 -0.0112
52478W        W53342   6.042  23.839  16.531  0.0821 -0.1528 -0.2212
52479W        W53343  23.113  21.372  12.113 -0.2501  0.0479 -0.2900
52480W        W53344   1.002  12.811  27.117  0.4251 -0.1251  0.1228
52481W        W53345  25.994   0.125   0.599  0.1814 -0.1880  0.3688
52482W        W53346  20.694   7.896  19.718 -0.3123 -0.0448 -0.1282
52483W        W53347   7.337  21.913   8.022 -0.0222 -0.0660 -0.4792
52484W        W53348  16.878  13.788  10.261  0.0892  0.0676  0.1232
52485W        W53349   7.046  25.912  23.843 -0.1503  0.0575  0.0886
52486W        W53350   9.472  15.930   8.099  0.2926  0.0512  0.0906
52487W        W53351  23.917   8.426   0.361 -0.1103  0.2213 -0.2620
52488W        W53352  11.275  28.856  13.899 -0.2198 -0.0022 -0.0442
52489W        W53353  19.874   7.434  26.470 -0.2970 -0.3250  0.1371
52490W        W53354  18.782   4.497  18.694 -0.0295 -0.0680 -0.2430
52491W        W53355  14.012  24.098  19.021  0.2201  0.0074 -0.1616
52492W        W53356  18.998  14.358  29.110  0.0039  0.0239  0.4229
52493W        W53357  15.019   1.183  19.832 -0.0196  0.0002 -0.0426
52494W        W53358   3.963   0.141  11.308  0.0094  0.0375  0.0915
52495W        W53359  14.621   7.116   2.318  0.3601 -0.2814 -0.0133
52496W        W53360  15.085   5.059  16.031 -0.0008  0.0952 -0.1809
52497W        W53361  13.038  23.468   7.677 -0.0322  0.1579  0.0368
52498W        W53362  16.201   0.085   1.166 -0.1566  0.0521 -0.2603
52499W        W53363  13.128  25.019  13.411 -0.1442 -0.1011 -0.2129
52500W        W53364   6.607  25.114   3.626 -0.1401 -0.3919 -0.1834
52501W        W53365   5.230  21.656  11.586  0.3346  0.2229  0.2815
52502W        W53366   5.760   0.112   8.360  0.3120  0.5184 -0.3064
52503W        W53367  23.567  23.104   2.470  0.0946  0.0031 -0.1009
52504W        W53368   1.194  12.143  27.741  0.1326  0.3619  0.0334
52505W        W53369   6.532  23.926  21.415 -0.1394  0.1549  0.1554
52506W        W53370  19.282   4.075   5.732  0.0168 -0.1359  0.1298
52507W        W53371  11.281   7.444   0.061 -0.1637  0.2448 -0.0671
52508W        W53372  15.132  16.607   8.137  0.0969 -0.2335 -0.1109
52509W        W53373  23.664   4.457  14.473 -0.0988 -0.3264  0.0548
52510W        W53374  11.637  13.000   8.940  0.0511 -0.0898 -0.2923
52511W        W53375   8.602  19.085   2.144 -0.1468 -0.2946 -0.0258
52512W        W53376   5.207  12.506  28.845 -0.4623  0.0471  0.0008
52513W        W53377   8.157   2.576  13.437  0.2054 -0.0113  0.2929
52514W        W53378  26.102   0.712   9.920 -0.3251  0.2063  0.1162
52515W        W53379   0.134   5.333  19.644  0.1283 -0.1016  0.1366
52516W        W53380  22.086   2.868   5.311 -0.0634  0.1516  0.3056
52517W        W53381   4.195  27.014  11.964 -0.1526 -0.1190 -0.0243
52518W        W53382  18.350  23.307  16.078 -0.0101 -0.2350  0.0455
52519W        W53383  20.304  18.956   9.799  0.1361  0.1566  0.2857
52520W        W53384  15.241   9.008  27.999  0.1303 -0.1644  0.2535
52521W        W53385  13.870   6.215  13.326  0.3258 -0.2477  0.1406
52522W        W53386   6.957  16.802   9.083 -0.0657  0.1286 -0.0996
52523W        W53387  11.862  20.098  19.058 -0.0550  0.1307 -0.2870
52524W        W53388  20.784  17.301  10.654  0.1668 -0.3199  0.1585
52525W        W53389  14.220   4.462   9.316 -0.0597  0.1486  0.1002
52526W        W53390  15.827  22.646  13.472 -0.2252  0.1317  0.1247
52527W        W53391  19.669  28.417  18.159  0.1721 -0.0143 -0.0203
52528W        W53392  12.540  12.935  23.979 -0.1269  0.0890 -0.0136
52529W        W53393  28.591  14.640  22.314 -0.3462 -0.0755 -0.0538
52530W        W53394  11.631  29.143   3.744  0.3629  0.0019  0.0606
52531W        W53395  28.964   7.686  25.198 -0.0682  0.1261  0.0094
52532W        W53396   4.446   3.434   1.533  0.1620  0.0591  0.0102
52533W        W53397  10.272  21.267  12.848  0.1984 -0.2404  0.0358
52534W        W53398  13.315  21.856   9.284 -0.2185 -0.3130 -0.0194
52535W        W53399   2.601  26.862  14.794 -0.0278 -0.0399  0.0376
52536W        W53400   4.799   7.964   4.885  0.2029  0.0617 -0.0721
52537W        W53401   6.810  10.834   9.947 -0.0408  0.2955  0.1838
52538W        W53402   3.319   7.349  28.840 -0.0731 -0.0089 -0.1331
52539W        W53403   6.380  27.076  23.742  0.2613  0.1450 -0.0181
52540W        W53404  23.728  19.741  20.163  0.2260  0.1115  0.0520
52541W        W53405   5.173  16.527  13.170 -0.2509 -0.0955 -0.1614
52542W        W53406   1.694  21.620   4.226 -0.0035  0.0826 -0.0956
52543W        W53407   9.935  12.459   2.073 -0.3068 -0.3039  0.1548
52544W        W53408   0.505  25.388  11.291 -0.0925  0.1249 -0.0393
52545W        W53409  26.083  13.392  19.949 -0.0539 -0.4418 -0.1117
52546W        W53410  28.992  26.340   9.994  0.0662  0.0063 -0.2228
52547W        W53411  28.682   9.613   8.444  0.4215  0.1808  0.0888
52548W        W53412  28.046   1.054  22.893 -0.1435  0.1258 -0.0989
52549W        W53413  24.604  15.221  11.183 -0.0825 -0.4185 -0.0301
52550W        W53414  23.871  11.263  15.562  0.1236 -0.0490  0.2328
52551W        W53415  10.899  28.116  16.008 -0.0287 -0.2371  0.2398
52552W        W53416  14.156  23.652  25.205  0.2468 -0.0952  0.1669
52553W        W53417  24.315  14.506  18.049  0.1927 -0.0072 -0.0801
52554W        W53418   3.825   0.771   4.157  0.0650 -0.3006 -0.1440
52555W        W53419  24.066  23.961  21.733  0.1281  0.0528 -0.1861
52556W        W53420   3.544   8.649  11.894 -0.1523  0.1171 -0.1830
52557W        W53421  16.432  23.996  17.209 -0.0059  0.0803 -0.0716
52558W        W53422   6.988  12.844  10.187  0.0866  0.2110  0.2188
52559W        W53423  26.059  18.325  12.457  0.1399 -0.1326 -0.0234
52560W        W53424  12.232  25.829   3.790 -0.1511 -0.1656  0.2910
52561W        W53425   7.514  27.563   8.109 -0.2487  0.1711  0.1876
52562W        W53426  27.460   2.002  10.276 -0.1240 -0.0853  0.2377
52563W        W53427  22.146   8.038   0.569  0.1878  0.1481 -0.2795
52564W        W53428   5.379  10.664   9.669  0.0376 -0.1647  0.3216
52565W        W53429   1.114   6.498   3.868 -0.0494 -0.0942  0.0012
52566W        W53430  14.227  14.620   5.236 -0.0828  0.5016  0.1703
52567W        W53431  14.672  13.700  28.230 -0.1259  0.1465 -0.1646
52568W        W53432  27.651   4.167  21.152 -0.2135 -0.1208 -0.1009
52569W        W53433  11.355   2.293  21.388 -0.0711  0.1251  0.2810
52570W        W53434   2.534  11.359  13.844  0.0125  0.1257 -0.1466
52571W        W53435   0.153  22.209  16.459 -0.0571  0.0006 -0.0881
52572W        W53436  17.926   3.597  12.811 -0.2109 -0.4163  0.2871
52573W        W53437  11.771   5.861  21.836 -0.1570  0.0907  0.3692
52574W        W53438  25.371   6.058  15.098 -0.2010  0.1975  0.1904
52575W        W53439  28.729  24.503   2.218 -0.1441 -0.0332 -0.0188
52576W        W53440   8.308   7.958   0.175  0.2110  0.0206  0.1489
52577W        W53441  17.092  22.468  14.707  0.2482  0.2515 -0.0785
52578W        W53442  14.429   6.714  29.038 -0.0863  0.2937 -0.0928
52579W        W53443  27.030  12.120  11.723 -0.1595 -0.3247  0.4236
52580W        W53444  21.854   5.998  12.587  0.4627 -0.0261 -0.0873
52581W        W53445   6.758   4.136  14.132  0.1146  0.0980 -0.1702
52582W        W53446   9.757   2.525  11.263  0.1158 -0.2553 -0.0756
52583W        W53447  10.229  25.757  12.626  0.0138 -0.0305 -0.0172
52584W        W53448   1.100   3.659  13.998  0.1649 -0.1464  0.0667
52585W        W53449  22.124   4.111   4.381  0.0345  0.0568  0.2453
52586W        W53450  14.809   0.447  21.001  0.0995 -0.1054  0.1064
52587W        W53451  25.991  24.961  10.196  0.0951 -0.0765 -0.2028
52588W        W53452  12.543  18.702   8.548  0.0161  0.4655  0.1893
52589W        W53453  21.654  16.646   6.626  0.0918 -0.0429 -0.1012
52590W        W53454  29.088  26.905   2.648  0.4553  0.1335  0.0584
52591W        W53455   1.804  11.330  13.020 -0.2504  0.2401 -0.0519
52592W        W53456  18.283  18.906  22.393 -0.0209  0.0949 -0.3729
52593W        W53457  17.855   0.114  17.277 -0.0466 -0.0540 -0.0188
52594W        W53458   0.653  12.684  11.674  0.0744 -0.0055 -0.1038
52595W        W53459  16.428  18.376   9.751 -0.2643 -0.0376 -0.2895
52596W        W53460   0.679  11.457  26.917 -0.4678  0.1519  0.1526
52597W        W53461  12.646   6.201  16.764 -0.0158  0.1682 -0.0093
52598W        W53462   4.321  18.732  22.703 -0.0411 -0.0987 -0.0876
52599W        W53463   7.985  11.910  25.339 -0.2666  0.3906 -0.0412
52600W        W53464  11.836  26.374  13.540  0.1257 -0.0872  0.2047
52601W        W53465  15.249   7.253   4.762 -0.2536 -0.0476 -0.2077
52602W        W53466  28.350  18.398   5.377  0.0004 -0.1950 -0.0780
52603W        W53467  28.896  16.103   1.693 -0.3264 -0.0547 -0.0892
52604W        W53468  11.424  19.370  26.125 -0.4295  0.0386 -0.1258
52605W        W53469   0.718  20.134   4.959  0.0946  0.0716 -0.0292
52606W        W53470   9.680  16.164  14.212 -0.3800  0.0348  0.0685
52607W        W53471   7.000  22.188  18.105 -0.1445  0.3274 -0.2726
52608W        W53472  17.910  26.323  10.204  0.4512 -0.2248  0.2146
52609W        W53473  16.026   0.323  12.826 -0.2314  0.1293 -0.1462
52610W        W53474  12.903  11.459  17.604  0.1621  0.3211  0.1359
52611W        W53475  11.502   6.654  15.330  0.0040 -0.1003 -0.3001
52612W        W53476   7.208   4.582  20.199  0.1583 -0.0999  0.1060
52613W        W53477  20.878   6.616   3.498 -0.1114 -0.2716  0.2500
52614W        W53478  19.218  11.130   7.098 -0.2205 -0.4749  0.3288
52615W        W53479   8.898   9.447   9.065 -0.2673 -0.0539 -0.1115
52616W        W53480  18.244   5.756  15.874  0.0594  0.0956  0.1007
52617W        W53481  24.533  25.283   4.465  0.4540  0.2747  0.1791
52618W        W53482  10.966  16.773  14.776 -0.1026  0.2695  0.0754
52619W        W53483   8.964  18.123  20.788  0.0579 -0.1152 -0.2483
52620W        W53484  23.957  14.781  17.761  0.3954  0.1907  0.1288
52621W        W53485   9.080   1.018  28.975 -0.1822  0.0278  0.0896
52622W        W53486  28.686   8.992   4.332 -0.0867 -0.0709 -0.0101
52623W        W53487  20.801  15.228  23.156 -0.4347  0.1664  0.2399
52624W        W53488  22.650  25.496   7.357 -0.1371  0.1166 -0.0843
52625W        W53489   1.705  19.816  26.804  0.0986  0.1290 -0.1203
52626W        W53490  15.547   9.073  26.052 -0.2038  0.3598  0.2418
52627W        W53491  21.923  13.527  21.067 -0.4334  0.1282  0.3281
52628W        W53492  13.853   6.932   6.872  0.2048  0.3495 -0.2313
52629W        W53493   3.631  25.473  25.973  0.2564  0.1140 -0.0100
52630W        W53494   1.271  26.396  10.891  0.0121 -0.2439  0.0509
52631W        W53495  20.821  23.165  10.821  0.2299  0.0092  0.1412
52632W        W53496   3.653  22.788  21.425  0.1610  0.1439  0.2415
52633W        W53497  28.017  14.039   7.714  0.1461 -0.1245  0.0905
52634W        W53498  28.279  22.151   9.895 -0.1473 -0.0123  0.4554
52635W        W53499   1.927  12.956   7.806 -0.0704  0.1845 -0.0399
52636W        W53500  12.852  14.040  29.041  0.3328 -0.2112 -0.0034
52637W        W53501  16.918   3.195   1.760  0.0816 -0.0703  0.2260
52638W        W53502  26.153  17.320  19.608  0.2634  0.1762 -0.0960
52639W        W53503  15.376   8.761  17.905 -0.1480  0.1784  0.0572
52640W        W53504  15.170   6.539   6.449 -0.1898 -0.3743 -0.1662
52641W        W53505  20.461   5.095   9.772  0.0322 -0.3101 -0.0753
52642W        W53506  28.905   4.959  19.628  0.3577  0.0722  0.2418
52643W        W53507  27.028  23.364  14.302  0.0496  0.0068  0.0508
52644W        W53508  26.870   7.630  21.765  0.0303  0.2407  0.2054
52645W        W53509  15.997   0.718  21.910 -0.0388  0.1621 -0.1151
52646W        W53510   4.470  17.926  12.217  0.0547  0.1028 -0.1868
52647W        W53511  17.172  18.545   1.766  0.1341  0.1608  0.1329
52648W        W53512  18.112  28.156  11.219  0.0046 -0.0307  0.1908
52649W        W53513   6.823  14.850  25.960  0.1064  0.0544 -0.1917
52650W        W53514   8.407   1.591   4.646 -0.0556  0.1100  0.3886
52651W        W53515  11.699  28.376  28.106 -0.2365 -0.0703 -0.0498
52652W        W53516  23.059   4.468   5.866 -0.2365 -0.2011 -0.0565
52653W        W53517   6.510  27.228  18.593 -0.1351 -0.1236  0.0460
52654W        W53518  15.783   3.542   8.553  0.1170 -0.1678 -0.0229
52655W        W53519   2.753  25.208  28.519  0.0443  0.1142  0.0936
52656W        W53520  19.664   2.073  25.679 -0.2532  0.2087 -0.2522
52657W        W53521   4.782  25.210  12.885 -0.0433  0.1792 -0.0941
52658W        W53522   6.405  19.469  13.408 -0.1045  0.0966 -0.0399
52659W        W53523  16.948   9.982   3.974  0.0835 -0.0481 -0.0765
52660W        W53524   6.847  25.250  12.510  0.0840 -0.4046  0.1566
52661W        W53525   6.793  21.571  16.490  0.0931 -0.2340  0.1128
52662W        W53526  20.410  16.337   2.673  0.3788 -0.0626 -0.0090
52663W        W53527  21.105  25.372   7.403 -0.0314 -0.2075  0.4355
52664W        W53528   2.465   6.356  21.643 -0.1826  0.1488  0.2742
52665W        W53529  16.514  20.919  28.517 -0.1721  0.2523 -0.0532
52666W        W53530   6.943   3.268  17.388 -0.2359  0.3001 -0.0373
52667W        W53531  19.007  20.606  24.954 -0.0913  0.0734 -0.0612
52668W        W53532  22.320  17.354   8.403 -0.1432  0.1446  0.3758
52669W        W53533   1.023   1.001  12.877  0.1103  0.2690 -0.2494
52670W        W53534   7.546   7.049  16.790 -0.0552  0.2754 -0.0841
52671W        W53535   1.401   6.184   7.815 -0.0829  0.1184 -0.1642
52672W        W53536  27.009  10.652  16.381  0.0964 -0.1116 -0.1079
52673W        W53537   0.570  16.506  16.008  0.0762  0.1906  0.1872
52674W        W53538  12.830   5.754   7.607 -0.3297  0.1924  0.0417
52675W        W53539  12.540  28.802   6.516  0.1709 -0.1130  0.1046
52676W        W53540   8.771  15.534  28.824 -0.2233 -0.1020 -0.0918
52677W        W53541   2.161   2.246  22.916  0.1476  0.0657  0.1638
52678W        W53542  13.585  26.817   0.116  0.1625 -0.2964 -0.3054
52679W        W53543  14.559  21.829  26.833 -0.2863  0.0893 -0.2625
52680W        W53544  26.247  12.899  26.291  0.0780  0.2535 -0.2502
52681W        W53545   8.918   7.545  18.747  0.2567 -0.0607 -0.2133
52682W        W53546  19.759  15.956   6.778 -0.2842  0.2851 -0.1396
52683W        W53547  16.299  13.716   1.040 -0.0661  0.2708  0.1405
52684W        W53548  13.781  15.972   8.977  0.0235  0.1354  0.0465
52685W        W53549   0.961   2.894   4.786  0.0355 -0.3558 -0.2002
52686W        W53550   4.824   5.648  15.876 -0.2834  0.0391  0.0949
52687W        W53551   6.596   5.134   8.070  0.1573 -0.1596  0.1298
52688W        W53552  15.390  19.874  14.101 -0.0879 -0.2073 -0.0168
52689W        W53553  28.115  18.165  22.531 -0.1255  0.1386 -0.1426
52690W        W53554  17.878  28.554  28.548 -0.1931 -0.0649  0.2675
52691W        W53555  20.566   0.438  16.994 -0.3880 -0.0203 -0.1219
52692W        W53556   0.663  11.711  11.328 -0.1943 -0.0273  0.6038
52693W        W53557  26.670  22.703  25.143  0.0048 -0.0155  0.1440
52694W        W53558  12.283   5.362   0.165  0.0978 -0.1396  0.0894
52695W        W53559   8.766   0.512  16.442 -0.0986  0.0360 -0.0908
52696W        W53560  26.613  16.171  23.860 -0.2800 -0.1603  0.1543
52697W        W53561   8.414   4.308   3.097  0.2132 -0.2330  0.2166
52698W        W53562  15.359  17.816   3.794 -0.0162  0.1217  0.0414
52699W        W53563  14.716  13.739  17.223 -0.0267 -0.1742  0.0575
52700W        W53564  11.004  23.804   6.925 -0.0156  0.1316 -0.2446
52701W        W53565   8.472   0.175  11.891  0.0643  0.0659 -0.0600
52702W        W53566   6.618  26.488  13.098  0.0545  0.3671  0.2160
52703W        W53567   4.976   2.712  18.222  0.0628 -0.0158  0.2077
52704W        W53568   3.948   1.848   2.987 -0.1130  0.2118  0.0472
52705W        W53569  21.805   3.552  25.445  0.0852 -0.0239 -0.1715
52706W        W53570  19.514   9.550   3.000  0.0959 -0.1334  0.2757
52707W        W53571  23.712   1.858  10.157  0.2875 -0.0717  0.1058
52708W        W53572   1.329   2.182  11.624  0.2401 -0.2563  0.1472
52709W        W53573  23.387  14.515   4.354 -0.1177 -0.0318  0.0625
52710W        W53574  12.400   3.675  19.472  0.1596  0.0620  0.2669
52711W        W53575  11.261   1.808   2.242 -0.0587 -0.1691  0.1038
52712W        W53576  13.162  24.453   6.494  0.0185  0.2116 -0.1050
52713W        W53577  11.066  11.702   0.388 -0.0733  0.0625  0.0288
52714W        W53578  10.068   6.674  17.584  0.1981  0.2265  0.1076
52715W        W53579   0.399  25.754  22.336  0.1784  0.3350  0.1516
52716W        W53580   8.906  28.985  15.510  0.0824 -0.1236 -0.1242
52717W        W53581  12.198   8.868   5.384 -0.0285 -0.0109 -0.0787
52718W        W53582  15.398   9.711  20.393  0.2072 -0.0238  0.2197
52719W        W53583  13.461   0.499   2.127 -0.1271 -0.0171 -0.0194
52720W        W53584  10.232  15.273   1.981  0.0466  0.1310 -0.0843
52721W        W53585   7.106   6.579  10.762  0.1849 -0.0083  0.1203
52722W        W53586  12.721   8.283  16.318  0.2996  0.2894  0.1200
52723W        W53587   7.545   9.828  11.808 -0.0628  0.1436  0.0298
52724W        W53588  18.180   3.486  20.342  0.1853  0.3002 -0.3652
52725W        W53589  22.610  18.186  14.009  0.1103 -0.0107 -0.1966
52726W        W53590   8.245  11.791   8.364 -0.2107  0.0330 -0.1061
52727W        W53591   4.921   2.556   7.021  0.2106 -0.0779 -0.0253
52728W        W53592   6.344  26.905   1.057 -0.0715  0.0418 -0.0532
52729W        W53593  12.248   4.130  20.257  0.1683  0.1869  0.1399
52730W        W53594   8.123  25.940  24.604 -0.0065  0.2611  0.0716
52731W        W53595  12.100  23.679  14.691  0.1591  0.1652  0.0103
52732W        W53596  18.211  22.653   8.329 -0.0897 -0.2370 -0.2600
52733W        W53597   3.188  24.515  11.006  0.2425 -0.1193 -0.1403
52734W        W53598   9.595  17.588  18.945  0.1807 -0.5728 -0.2955
52735W        W53599  17.295   0.457   7.501  0.1778  0.1009 -0.2080
52736W        W53600   4.552   2.446  28.097 -0.0772  0.2358  0.0496
52737W        W53601  27.693  27.393  13.732 -0.1145 -0.1419  0.3034
52738W        W53602   6.703  16.267  16.661  0.1280 -0.1570  0.0291
52739W        W53603  16.117  18.230  16.524 -0.0856 -0.0109  0.0114
52740W        W53604  19.669  27.792   7.266  0.1304 -0.3642 -0.1452
52741W        W53605  27.944   9.542  18.388 -0.0242 -0.0421 -0.2816
52742W        W53606  20.923  27.744  17.894 -0.1218  0.2302 -0.2498
52743W        W53607   8.326   7.984  26.212  0.1835  0.0256  0.1316
52744W        W53608   7.577   2.953   3.245 -0.7077  0.0936 -0.1359
52745W        W53609  11.525   3.346  13.087  0.0755  0.1371 -0.0798
52746W        W53610  17.986  20.873  21.954  0.0105 -0.1090 -0.0287
52747W        W53611   7.042   9.791  26.663  0.1471  0.1731  0.2251
52748W        W53612  27.733  27.441   6.086  0.1289  0.0069 -0.3861
52749W        W53613  24.898   5.013  22.239  0.0855 -0.2059 -0.0638
52750W        W53614  15.290  23.129   6.139 -0.1594 -0.0582 -0.0540
52751W        W53615  24.207   0.935  22.144 -0.0650 -0.0437  0.1615
52752W        W53616  12.954  26.598  18.511 -0.3549 -0.1231 -0.0292
52753W        W53617   1.016  28.641  15.455 -0.0835 -0.0508 -0.1538
52754W        W53618   0.939   7.565  18.161  0.1544  0.1247 -0.0948
52755W        W53619   3.645  10.837  20.245 -0.1917  0.2297  0.2695
52756W        W53620   6.478   9.824  18.849 -0.3506 -0.0929  0.0075
52757W        W53621  20.320  17.135   5.255 -0.0043 -0.3441 -0.1558
52758W        W53622  27.851   7.021  20.352 -0.1367 -0.0118 -0.1119
52759W        W53623   8.098   5.697  26.624  0.0291 -0.0195  0.0475
52760W        W53624   5.119  25.076  28.473  0.0763  0.2064  0.0232
52761W        W53625  17.079  13.161  17.975  0.1095  0.1999  0.1709
52762W        W53626  26.238  27.327   0.736 -0.4336  0.2129 -0.1310
52763W        W53627   5.312  28.824   8.100 -0.0621  0.0232  0.1970
52764W        W53628  10.933   5.400  17.198 -0.1847 -0.2490  0.0684
52765W        W53629  28.292   3.044  18.675 -0.1699  0.1128 -0.1844
52766W        W53630   0.792  15.667  19.240 -0.2556  0.0536  0.0243
52767W        W53631  14.040   6.227  12.368  0.1237  0.0769 -0.0450
52768W        W53632   8.801  27.498  15.746 -0.1979  0.1444  0.1141
52769W        W53633  10.078   4.258  19.265  0.0648 -0.0992 -0.2626
52770W        W53634   2.498  20.872   7.548  0.0991 -0.0157 -0.0662
52771W        W53635  24.501  11.099  24.504 -0.0706  0.0210 -0.0047
52772W        W53636  27.400   0.759  12.921 -0.2419  0.0048 -0.0371
52773W        W53637  27.760  15.854   8.744 -0.0835  0.5677  0.1386
52774W        W53638  18.853   4.746  11.774  0.1293 -0.1184  0.0976
52775W        W53639   1.195  23.360  14.453 -0.3698 -0.2453  0.1900
52776W        W53640   7.749  16.378   8.721 -0.2303  0.0969 -0.0029
52777W        W53641  20.358  21.662  28.408  0.0278 -0.4298  0.1117
52778W        W53642  19.204   1.004  27.814  0.2451 -0.1517  0.0081
52779W        W53643   2.386   1.768  21.981  0.1560  0.0440 -0.2838
52780W        W53644   6.109   5.636   0.414 -0.1954  0.0982 -0.2986
52781W        W53645   3.407  23.620  14.009  0.1746  0.0001  0.0624
52782W        W53646  19.105  11.021  14.760 -0.1847 -0.0458  0.0876
52783W        W53647  24.381   5.007  22.220  0.0866  0.1126 -0.0673
52784W        W53648  16.797  27.406  22.025 -0.0297  0.0257  0.1326
52785W        W53649  21.222  22.038  15.948 -0.0484 -0.0581  0.1571
52786W        W53650  23.153  24.811   0.612 -0.1081  0.1957 -0.3035
52787W        W53651  25.421   5.164   2.554 -0.3509  0.0575  0.0242
52788W        W53652  16.947  17.507  15.619 -0.1177 -0.2113 -0.0660
52789W        W53653  15.524  21.898   1.280 -0.2128  0.2704  0.0628
52790W        W53654   7.055  25.294  24.000 -0.0726  0.0418 -0.0188
52791W        W53655  23.041  17.025  17.563  0.1965  0.1170 -0.0456
52792W        W53656  13.329   6.695  18.825  0.4981 -0.0836  0.1271
52793W        W53657  19.667  27.935  12.425 -0.4199 -0.1101 -0.1630
52794W        W53658  14.143   5.138  27.985 -0.1991 -0.0218  0.2203
52795W        W53659   4.598   9.185   2.493  0.2526 -0.0093 -0.2114
52796W        W53660   7.815   4.507  24.106 -0.3545 -0.0865 -0.0711
52797W        W53661  16.100   6.543   0.474 -0.0708 -0.3404  0.0544
52798W        W53662   7.414  15.363  14.308 -0.3749  0.3367  0.1187
52799W        W53663   0.546   5.415  15.763 -0.1135 -0.3026  0.0861
52800W        W53664  10.500  21.186  28.110  0.2647  0.2289  0.0137
52801W        W53665   7.913  10.083  13.057  0.1088 -0.0302 -0.0607
52802W        W53666  24.415  14.474  16.197 -0.1635 -0.0207  0.0547
52803W        W53667  10.091   2.645  26.790 -0.1186  0.1781 -0.0208
52804W        W53668  17.123   0.161  15.141 -0.2070  0.2004 -0.1010
52805W        W53669   8.043  19.663  11.913  0.3518  0.0873 -0.6027
52806W        W53670   3.273   5.386   3.420 -0.1344 -0.0121  0.0901
52807W        W53671   4.822  25.310  21.260  0.0026 -0.1294 -0.0996
52808W        W53672   0.414  18.500  11.650  0.1475 -0.0447 -0.0721
52809W        W53673   3.777  23.432  10.198 -0.2526 -0.1899 -0.2098
52810W        W53674   1.109   7.288  28.862  0.1042 -0.1646  0.0712
52811W        W53675  28.128  16.377   2.316 -0.2192 -0.2610  0.0965
52812W        W53676  12.578  11.663   8.462 -0.1779  0.0669 -0.0184
52813W        W53677  17.959  28.604  27.439  0.0459 -0.0932  0.0671
52814W        W53678   8.381   1.143  21.246  0.2397 -0.2573 -0.1372
52815W        W53679  19.500   0.056  21.649 -0.1377 -0.1153  0.1643
52816W        W53680  23.689   6.279   4.999  0.0454  0.0687 -0.0064
52817W        W53681   8.304   6.232  14.657 -0.5346  0.2885  0.0004
52818W        W53682   8.797  19.356   9.336  0.2167 -0.0949  0.1339
52819W        W53683  23.848  20.270  15.767  0.4273 -0.1294 -0.1508
52820W        W53684  25.597  28.055  12.953 -0.1800 -0.0530  0.4716
52821W        W53685  16.237  15.278  25.210  0.1881 -0.0355  0.0296
52822W        W53686  28.092  28.069  12.843 -0.2918 -0.1471 -0.0893
52823W        W53687   5.132   9.494  18.636  0.1975  0.3737  0.1121
52824W        W53688  19.149   8.289  21.107 -0.2755 -0.0993 -0.1310
52825W        W53689  11.582  13.426  11.161 -0.2677  0.0570 -0.0391
52826W        W53690   7.591   2.058  14.452 -0.3095  0.2144 -0.0377
52827W        W53691  14.930   1.505  22.891  0.1718 -0.0166  0.1083
52828W        W53692   9.949   5.892  16.524 -0.3423 -0.0016  0.1193
52829W        W53693  15.092  28.713  22.307 -0.0951  0.2597 -0.2053
52830W        W53694  25.114  10.082   3.726 -0.2527 -0.1052  0.1482
52831W        W53695   4.678  27.911  22.195  0.1302  0.0960  0.0870
52832W        W53696  17.227   3.683   5.669  0.1690 -0.1197 -0.1688
52833W        W53697   6.721  10.076  16.509 -0.0262 -0.0906 -0.2272
52834W        W53698  26.577   5.061  27.418 -0.1394 -0.0747 -0.3403
52835W        W53699   4.795  21.527   6.070 -0.0763  0.1634 -0.4874
52836W        W53700  19.009  23.886   0.159  0.1958  0.0181  0.0867
52837W        W53701   4.928  28.831  10.382 -0.0483  0.2393 -0.0242
52838W        W53702  11.414   5.746  10.182  0.1251 -0.0957  0.0375
52839W        W53703   5.497  24.530  14.592 -0.1915 -0.1149  0.2568
52840W        W53704  17.438  21.755   1.909  0.0320  0.5189  0.0156
52841W        W53705  12.181  13.454   3.375  0.5834 -0.1517  0.1036
52842W        W53706   7.736   1.203  11.691  0.0312  0.1211  0.1871
52843W        W53707   3.700  24.013   2.163 -0.0258  0.1230 -0.3504
52844W        W53708  10.802   8.406   3.998 -0.1386  0.0974  0.1475
52845W        W53709   3.967  26.364   2.391  0.1667  0.1133 -0.0392
52846W        W53710  13.565  19.116  28.866  0.3458 -0.1386  0.2282
52847W        W53711   4.637   2.368  20.665  0.2328  0.1188  0.0626
52848W        W53712   3.557   4.347  10.533  0.2727 -0.1455  0.1006
52849W        W53713  10.237  27.655  26.491  0.3026 -0.0623 -0.3795
52850W        W53714  28.319   5.154  10.646 -0.1746 -0.0860 -0.2753
52851W        W53715   3.160  10.679  11.484  0.0703  0.2593  0.2329
52852W        W53716  21.793  13.723  11.219 -0.1677  0.2994  0.3191
52853W        W53717  10.087   0.831   9.143  0.2049 -0.2228  0.0499
52854W        W53718  27.184  28.213  13.431 -0.1195 -0.2109 -0.2209
52855W        W53719   3.694  12.714   4.440  0.0464 -0.0837  0.0189
52856W        W53720  28.082  16.419  16.335  0.1079 -0.1520 -0.0353
52857W        W53721   8.358   5.237  28.326  0.3733 -0.0668 -0.1330
52858W        W53722  13.216  28.468  11.618 -0.0745 -0.2243  0.2063
52859W        W53723   0.980  14.949  15.730 -0.1214 -0.2218  0.1559
52860W        W53724  16.991  12.463  17.926  0.0160  0.3677  0.0472
52861W        W53725   6.162  17.247  14.581  0.1492  0.1272  0.0635
52862W        W53726   1.857   3.229  14.394 -0.3241 -0.0763 -0.0300
52863W        W53727   7.948   0.425  12.760  0.1333 -0.2261 -0.0514
52864W        W53728  19.653   2.603  16.841  0.1115 -0.1921  0.2607
52865W        W53729  23.459  25.491  23.518  0.1742  0.0517  0.2421
52866W        W53730  20.521  25.384   3.386  0.2106 -0.1706 -0.3702
52867W        W53731   2.692   9.340  11.886  0.1603  0.2269  0.3585
52868W        W53732  23.820  27.447   2.738 -0.0940 -0.0165 -0.2019
52869W        W53733  10.644   9.937   0.331  0.1774  0.1270  0.2384
52870W        W53734   7.871  28.575   6.737  0.0617  0.3714 -0.0127
52871W        W53735   3.337  19.420  20.764  0.0706  0.4151  0.1816
52872W        W53736  17.157   5.879  21.803 -0.0431  0.1573  0.1871
52873W        W53737  25.131   7.503  23.386 -0.1740  0.3906 -0.1348
52874W        W53738  27.935  17.769  14.692 -0.0494  0.1112  0.0197
52875W        W53739   3.124  27.129   4.130  0.2333 -0.1631 -0.0013
52876W        W53740  11.565   5.688   4.614 -0.0118  0.0956 -0.4091
52877W        W53741  25.327  12.189  22.067  0.1063 -0.0540  0.0065
52878W        W53742  10.290   7.598   9.542 -0.0864  0.2744  0.0265
52879W        W53743  17.992   5.229  24.423  0.1515  0.1112 -0.2060
52880W        W53744   7.090   2.513  13.172 -0.1791  0.1701  0.1820
52881W        W53745   9.557  25.955  11.700  0.0259  0.2282  0.1283
52882W        W53746   3.159   8.875   9.634 -0.2500 -0.0738 -0.4619
52883W        W53747  23.197   2.247  14.832  0.0598 -0.1080  0.0524
52884W        W53748  11.422   7.620   7.694 -0.0318 -0.0061 -0.3566
52885W        W53749  18.554   5.022   3.224  0.0758 -0.3609  0.1064
52886W        W53750   7.441  21.167  16.026  0.1765  0.0501  0.0461
52887W        W53751   6.182   4.896   5.630  0.3238  0.0517  0.2223
52888W        W53752   4.685   5.534  11.231  0.1152  0.0071  0.0331
52889W        W53753  21.122  24.976  10.641 -0.1304  0.1285  0.0974
52890W        W53754   1.641   6.811   2.943  0.2017 -0.2103  0.1108
52891W        W53755  23.074  12.294   4.520 -0.2004 -0.1764  0.1117
52892W        W53756   5.842   2.197  16.518 -0.1573 -0.2412  0.0084
52893W        W53757   7.973  26.207  16.026 -0.2321  0.3965  0.1587
52894W        W53758  27.035  10.167  24.066 -0.3073 -0.0201  0.0389
52895W        W53759  25.668  19.478  22.621  0.1226 -0.1551  0.2728
52896W        W53760  28.916  15.511   8.562  0.0304 -0.2557  0.0243
52897W        W53761  10.070  28.136  28.045  0.0332 -0.3499 -0.0024
52898W        W53762  12.246   6.375   3.026 -0.1685 -0.0960  0.0242
52899W        W53763   4.869  19.730  10.961  0.0811 -0.0506 -0.1359
52900W        W53764   0.818  27.926  20.139 -0.0824  0.0354 -0.0617
52901W        W53765  21.948   9.213  28.787  0.1364  0.3972 -0.0132
52902W        W53766  26.661  22.579  22.636  0.2216  0.0889 -0.1086
52903W        W53767  20.263   3.163  15.409 -0.0196  0.1562 -0.0828
52904W        W53768  15.645  26.620  24.497  0.1516  0.1335  0.1888
52905W        W53769   9.128   4.966   7.948 -0.0423  0.0138 -0.0587
52906W        W53770  15.102  12.849  19.628  0.1564  0.0946 -0.0717
52907W        W53771   1.172   5.839   0.840  0.0034  0.2095  0.1138
52908W        W53772  16.210   6.529  17.671  0.0007  0.3886  0.2012
52909W        W53773   2.199  22.163  13.891  0.0718  0.0413 -0.0806
52910W        W53774  23.679   7.648  18.646  0.3184  0.0529  0.2048
52911W        W53775  18.259  22.558  18.969  0.3811 -0.1903 -0.3048
52912W        W53776   9.593  23.137  28.004  0.0732 -0.0955 -0.0139
52913W        W53777  15.683  27.644  28.217 -0.0199 -0.1799 -0.1246
52914W        W53778  14.799  18.492  11.888 -0.0041  0.0216  0.1694
52915W        W53779   4.024  21.843  24.621  0.0818  0.2105  0.1162
52916W        W53780   6.427   3.507   8.935  0.2412 -0.1012 -0.1440
52917W        W53781  12.264  15.786  18.672 -0.0050  0.4507 -0.0674
52918W        W53782   1.757  24.885   4.142  0.0398  0.3643 -0.0130
52919W        W53783  22.906  18.209   9.982  0.0194 -0.3703 -0.2882
52920W        W53784   2.367  28.351  26.583 -0.1124  0.1146 -0.2282
52921W        W53785   9.647  26.604   9.111 -0.1234 -0.0807  0.0577
52922W        W53786   5.156  10.935   7.009 -0.0271  0.0535 -0.3118
52923W        W53787   9.230  23.548  28.771  0.3002 -0.1906  0.2442
52924W        W53788  23.413   2.880  24.671  0.1084 -0.0750  0.1118
52925W        W53789  13.160   7.450  10.118  0.1590  0.2374  0.0817
52926W        W53790  17.612   5.088  27.880  0.0141  0.0063  0.0791
52927W        W53791  10.620  22.602  22.196 -0.1259  0.0471  0.1059
52928W        W53792  16.245  26.602  15.355 -0.2399 -0.0357  0.3443
52929W        W53793  11.955  21.801  17.801  0.1426 -0.0558  0.2503
52930W        W53794   4.854   5.740   1.426 -0.1440  0.1098  0.0856
52931W        W53795  10.628   5.472   9.670 -0.1253  0.2499 -0.0085
52932W        W53796   5.049   9.710   5.453 -0.1235 -0.1914 -0.3087
52933W        W53797  10.538   0.453   2.260 -0.0819 -0.2600  0.0852
52934W        W53798  17.532   5.157  12.229 -0.1338 -0.2723 -0.1474
52935W        W53799  21.222  22.409  23.836 -0.3080 -0.2720  0.0603
52936W        W53800   2.327   3.322   1.251 -0.1592 -0.0218  0.1567
52937W        W53801  22.688   4.113  22.541 -0.1309 -0.1423  0.2639
52938W        W53802  24.537   9.586  10.132 -0.0131 -0.1478  0.1929
52939W        W53803   8.169  14.730  20.131  0.2374  0.0811 -0.1205
52940W        W53804  25.611  25.123   8.737 -0.1579 -0.0650  0.3439
52941W        W53805  14.919  26.340   7.747 -0.1228  0.1570 -0.1625
52942W        W53806  23.809  12.412   9.244  0.2221 -0.2081  0.0135
52943W        W53807   2.940  28.897   1.947  0.0691  0.2425  0.1987
52944W        W53808  14.902   1.104  20.331 -0.0290  0.0161 -0.0021
52945W        W53809   5.304  26.668  21.790  0.0442  0.1068 -0.2405
52946W        W53810  18.555  27.742   3.676 -0.0542  0.0253  0.1009
52947W        W53811  10.778  25.653  18.903 -0.1389 -0.3001  0.1698
52948W        W53812  10.336  22.005   9.074  0.0647  0.2084 -0.1292
52949W        W53813  20.418  15.888  17.231  0.0670  0.1296 -0.1072
52950W        W53814   9.528  24.691  13.332  0.2073  0.1634  0.0810
52951W        W53815   0.917   0.590  28.563  0.1277  0.3602  0.2957
52952W        W53816   7.999  17.044  10.787 -0.1843 -0.0263 -0.1367
52953W        W53817  12.408   1.273  23.445  0.2718  0.1664 -0.4021
52954W        W53818  26.983  26.883   0.111  0.0704  0.0663  0.1719
52955W        W53819   0.040  27.000   3.132  0.1056 -0.1648  0.0094
52956W        W53820  13.127   3.610  13.644 -0.0261  0.1019  0.1570
52957W        W53821  27.446   3.890   6.698 -0.0491  0.2259  0.1367
52958W        W53822  13.174   6.856  10.166 -0.2751  0.3016  0.0766
52959W        W53823   1.484   7.269  26.529 -0.3035 -0.0651 -0.3725
52960W        W53824   0.423  28.751  10.353  0.0793 -0.4369  0.1852
52961W        W53825  16.274  27.296  27.479  0.2923  0.1260  0.1816
52962W        W53826   9.416  17.456  25.141 -0.3191  0.2586  0.0776
52963W        W53827  13.802   1.013  23.901  0.0071  0.0243  0.1952
52964W        W53828   0.355  28.833  12.139 -0.0127  0.1729  0.1750
52965W        W53829  10.107  12.633  28.975 -0.2765 -0.1991  0.0627
52966W        W53830  26.604  27.591  22.352  0.2474  0.0699  0.1520
52967W        W53831   9.777   4.367  23.931  0.0799  0.0859 -0.2261
52968W        W53832   0.308  24.079   8.056  0.0025 -0.1628  0.0197
52969W        W53833  24.979   8.775  15.759 -0.3375 -0.1684 -0.1122
52970W        W53834  17.028  10.300   9.363 -0.0669  0.0466 -0.1184
52971W        W53835   2.229   7.493   9.182  0.1487 -0.2778 -0.2003
52972W        W53836   2.236  14.734  13.661  0.1525  0.1548  0.1627
52973W        W53837   7.088  15.486   5.565 -0.0792  0.0210 -0.3374
52974W        W53838   0.990  20.384  21.081  0.2401 -0.2120 -0.2325
52975W        W53839   2.054   9.315  24.986  0.2500  0.0802 -0.0404
52976W        W53840  18.116  18.967  23.242 -0.0613 -0.0015  0.1350
52977W        W53841  14.420  11.997   0.431 -0.0040 -0.2206  0.2099
52978W        W53842  20.893  23.838  28.648  0.2302 -0.0981  0.1920
52979W        W53843   2.463  20.107  28.521 -0.0776 -0.0589  0.2320
52980W        W53844   7.038  24.417  29.116  0.1510  0.3021  0.2391
52981W        W53845  11.131   9.915  17.078 -0.0225  0.0571  0.2917
52982W        W53846  22.602   3.069  28.045 -0.2697 -0.2067 -0.1822
52983W        W53847  25.406   9.967  13.835 -0.1012  0.1239  0.0028
52984W        W53848  15.937  14.146  16.785 -0.0769  0.0099 -0.1815
52985W        W53849   3.997  11.712  27.178 -0.2084  0.0471  0.1938
52986W        W53850  22.410   8.331  22.119  0.1956 -0.1012  0.2372
52987W        W53851  12.998   2.636  13.108  0.1366  0.0255 -0.0822
52988W        W53852  21.439   8.186   8.426  0.0171 -0.0711 -0.0290
52989W        W53853   2.171  14.339  28.381 -0.5026 -0.0743  0.2722
52990W        W53854   6.076  12.679   8.973 -0.1328  0.1555 -0.1165
52991W        W53855  12.278  25.406  27.535  0.3017 -0.2013  0.1198
52992W        W53856  10.825   2.165   6.598 -0.3471  0.4134 -0.0604
52993W        W53857   2.393   7.446  15.978  0.1320  0.0697 -0.1027
52994W        W53858  24.407  12.435  25.401 -0.1328 -0.2314  0.1157
52995W        W53859  12.005  12.616  12.221 -0.0548  0.0842  0.3114
52996W        W53860   4.998   9.105  19.879 -0.2409 -0.0796  0.0537
52997W        W53861  23.525  15.987  24.823  0.3300  0.0411  0.1488
52998W        W53862   2.059  17.628  10.176  0.0364 -0.3494 -0.0248
52999W        W53863   6.767  28.096  26.392  0.0631 -0.1170  0.1778
53000W        W53864   8.006  10.604   2.358  0.2651  0.2832 -0.2429
53001W        W53865  14.060  24.141   3.383 -0.2290  0.3968 -0.3410
53002W        W53866  18.694  29.115  24.103  0.1235  0.2623  0.1097
53003W        W53867   1.914  27.021  11.453 -0.1739 -0.0090 -0.0587
53004W        W53868  11.048  19.024   8.789  0.2285  0.1041  0.0695
53005W        W53869  28.632  20.521  13.204  0.0075  0.0580 -0.2932
53006W        W53870  14.866  12.100   8.017 -0.2591  0.2747 -0.1882
53007W        W53871  12.941  28.702  17.286 -0.3558  0.0932  0.0199
53008W        W53872  21.655   0.684   6.124 -0.0452 -0.0444 -0.1417
53009W        W53873  18.725   2.075  21.415  0.0019 -0.0193  0.3717
53010W        W53874  26.973  11.864   7.108  0.0005  0.0138 -0.0764
53011W        W53875  21.971  23.978   5.572  0.1444 -0.1208 -0.0384
53012W        W53876  19.937  23.403  12.431  0.0530  0.1125 -0.3199
53013W        W53877  13.666  26.768  13.393  0.0198  0.0479  0.4188
53014W        W53878  24.408   7.675  25.531  0.0030  0.0534 -0.0000
53015W        W53879  15.662  16.248  14.858  0.3232 -0.1255  0.0339
53016W        W53880  25.311  25.253  26.055 -0.1139 -0.1291 -0.0011
53017W        W53881   6.762   4.193  26.140 -0.0071 -0.1868 -0.0083
53018W        W53882  23.030   5.551  22.932 -0.4205 -0.0109 -0.0579
53019W        W53883   9.846   5.427  16.581 -0.2051 -0.3784  0.1936
53020W        W53884  13.372   5.979   1.442  0.0211  0.0070  0.0099
53021W        W53885   6.054  10.840  21.875 -0.2812  0.1224  0.1193
53022W        W53886  19.947  13.807   6.624 -0.1437  0.1201 -0.1041
53023W        W53887  19.776  21.412   0.964  0.1787  0.1108  0.1716
53024W        W53888   3.486  28.724   9.889  0.0740 -0.1983 -0.0894
53025W        W53889   8.203  19.330  27.999  0.4153 -0.1246  0.2410
53026W        W53890  27.042  17.242  16.425  0.3655 -0.1742 -0.1536
53027W        W53891   9.698   0.271  14.781  0.0506 -0.2707  0.2253
53028W        W53892  10.826   3.553  19.004  0.2388 -0.0183  0.1894
53029W        W53893   4.142  23.883  11.800  0.1376  0.0453 -0.0112
53030W        W53894  15.340  25.627   1.158 -0.0947 -0.1005 -0.2376
53031W        W53895  11.234   7.133   9.346  0.0354  0.0896 -0.1687
53032W        W53896   5.338  10.447  27.138  0.0736 -0.0097 -0.1366
53033W        W53897   0.788  13.440   0.895 -0.0083 -0.0014 -0.1025
53034W        W53898   7.136  25.057   8.032 -0.2355 -0.1211 -0.1816
53035W        W53899   4.162  22.460   6.459 -0.1529  0.2409  0.0808
53036W        W53900   2.202  16.652   7.078 -0.0023 -0.1470 -0.1791
53037W        W53901  27.791  28.571   7.178  0.0103  0.1837  0.2027
53038W        W53902  18.611   1.254  20.396 -0.0460  0.0909  0.0709
53039W        W53903  23.399  25.590  29.079  0.1935  0.2079 -0.3013
53040W        W53904   7.185  25.649  27.380 -0.2078 -0.0383 -0.1530
53041W        W53905  13.711  19.567  16.649  0.2152 -0.1443  0.2196
53042W        W53906  13.976  22.202  13.464  0.0116 -0.0923  0.0166
53043W        W53907  13.798  13.364  20.371 -0.2720  0.0913 -0.0160
53044W        W53908   8.170  27.632   2.325 -0.0171  0.0332  0.0454
53045W        W53909  21.999   6.337  24.473  0.1690  0.3163  0.2505
53046W        W53910   2.942  23.818   7.160 -0.1595  0.0391 -0.1155
53047W        W53911  21.894  22.926   2.276 -0.2114  0.2411  0.0856
53048W        W53912  25.217  13.159  26.037  0.2819  0.1220  0.1076
53049W        W53913  18.117   6.309  25.975  0.1817 -0.2065  0.1517
53050W        W53914   5.649   8.233   3.277  0.3773  0.1064 -0.0983
53051W        W53915  26.299  25.104  24.494 -0.0087  0.0638 -0.1126
53052W        W53916   5.571  13.644  20.885 -0.0979  0.0602 -0.2184
53053W        W53917  13.949  11.315  21.250  0.1409  0.0912 -0.0614
53054W        W53918   7.791   0.628  13.998  0.0842  0.1682  0.0792
53055W        W53919   3.734  27.740  16.833 -0.1874  0.2940 -0.5833
53056W        W53920  17.193  19.819   2.844 -0.0299  0.5969  0.1510
53057W        W53921   8.848  26.615   3.310  0.1500 -0.3253  0.0439
53058W        W53922  11.686   9.402  25.530  0.2512 -0.0417 -0.0415
53059W        W53923   8.054  13.233  22.398  0.0364  0.0692  0.2934
53060W        W53924   3.950  15.910  11.499  0.6204  0.2099 -0.0101
53061W        W53925   3.650  12.299  12.957  0.2008 -0.2152 -0.1442
53062W        W53926   1.694   3.615   0.464 -0.0768  0.1697  0.0088
53063W        W53927   7.959  15.377   9.779  0.1463 -0.1530  0.4392
53064W        W53928   5.642   1.683  11.845  0.0149 -0.1736 -0.1607
53065W        W53929  17.686  23.814  19.262  0.0105 -0.2974  0.1667
53066W        W53930  23.690  28.585  27.270 -0.2484  0.0650  0.2318
53067W        W53931  12.061  25.766   1.298  0.1408  0.0236 -0.1756
53068W        W53932  19.915  13.845   3.701 -0.0216  0.2138  0.2443
53069W        W53933  15.691  23.353  24.509 -0.2926  0.1451 -0.1341
53070W        W53934   2.418  12.181  22.448  0.0673  0.1153 -0.2505
53071W        W53935  12.951  18.305  26.563 -0.0684 -0.0094  0.0989
53072W        W53936  20.093  28.296   2.921 -0.0360 -0.5344  0.0439
53073W        W53937   6.055   3.918  18.829 -0.0549 -0.2392 -0.1957
53074W        W53938  16.526  28.279  19.089 -0.2194 -0.1123 -0.0766
53075W        W53939   8.026   2.088   6.236  0.2821  0.0348  0.1532
53076W        W53940  22.528  13.965   9.227 -0.0812  0.1121 -0.3865
53077W        W53941  23.167  23.612  14.282  0.1205 -0.3753  0.0884
53078W        W53942   6.499   1.037  24.271  0.2211 -0.4625  0.0103
53079W        W53943  21.667  27.046  20.205  0.1441 -0.0434 -0.0655
53080W        W53944  21.739  23.762  20.706 -0.0172 -0.2920  0.1049
53081W        W53945  26.590  16.379   0.509  0.2809 -0.0683 -0.0977
53082W        W53946  24.625  19.825   7.405  0.2851  0.0479 -0.1652
53083W        W53947   9.849  28.350  14.699 -0.2607 -0.1944  0.0228
53084W        W53948   3.349  23.080   1.246  0.0666 -0.1415 -0.0100
53085W        W53949   5.065  20.845  11.692  0.0163 -0.1164  0.2085
53086W        W53950  11.098  12.628   0.482 -0.2790  0.0272 -0.0805
53087W        W53951   5.245  13.680  12.323  0.0892  0.2504  0.0698
53088W        W53952  25.950   9.723  23.253  0.0068  0.3313  0.0096
53089W        W53953  10.277   8.483   0.190 -0.0707 -0.0716  0.1473
53090W        W53954   2.202   6.441  17.685  0.1613 -0.0680  0.0861
53091W        W53955  17.051   0.501   1.295  0.5997  0.0226 -0.2040
53092W        W53956  18.824  26.335  12.544 -0.0824 -0.0813  0.0196
53093W        W53957  10.770   0.436  12.765  0.1125 -0.4822  0.0232
53094W        W53958  12.587   9.779   8.875  0.0378  0.0080  0.3151
53095W        W53959   1.425  26.130   4.871  0.0728  0.1810  0.0921
53096W        W53960   3.591   0.094  25.016 -0.1206  0.2701 -0.4325
53097W        W53961  21.035  13.003  23.366  0.4051 -0.0126 -0.1683
53098W        W53962   0.460  14.302  24.661 -0.0253  0.1320  0.2650
53099W        W53963  18.164  21.528  26.771  0.2365 -0.4512 -0.0366
53100W        W53964  12.857   4.583  26.805 -0.0804  0.1540 -0.1013
53101W        W53965  23.494  24.876  16.294  0.2091 -0.1292  0.3784
53102W        W53966   6.246  21.233  22.767 -0.0759 -0.2641  0.3395
53103W        W53967   3.879   5.860  23.945 -0.0699  0.0410 -0.1659
53104W        W53968  28.022  24.728  13.826  0.2669 -0.1180 -0.0086
53105W        W53969   3.447   2.743  13.605 -0.1412 -0.1840 -0.2036
53106W        W53970  16.974  17.308   4.802  0.0218 -0.1156 -0.0445
53107W        W53971   4.402  25.418  19.883 -0.1731 -0.2539  0.1016
53108W        W53972  28.947  11.227  26.239 -0.1626 -0.1571  0.2449
53109W        W53973  14.549  27.464  11.946  0.0351 -0.1377  0.1200
53110W        W53974  25.338   3.626  17.181  0.0084 -0.0162 -0.2811
53111W        W53975  26.466  25.859  13.352 -0.4607 -0.0362 -0.2341
53112W        W53976  18.016  11.575  12.230 -0.2220  0.1632 -0.1098
53113W        W53977  17.114   5.306  11.570 -0.0628 -0.0706  0.2749
53114W        W53978   9.556   3.080  27.779 -0.0391 -0.0431 -0.2945
53115W        W53979  23.545  12.362  15.331 -0.0187 -0.0869  0.1182
53116W        W53980   0.336  24.938   9.685  0.1232 -0.0123 -0.3350
53117W        W53981  12.234  10.649   9.995  0.0310 -0.0589  0.3251
53118W        W53982  23.740  24.893  13.564  0.5012  0.1253  0.0897
53119W        W53983  20.909  29.049  25.928  0.0772 -0.2536  0.1940
53120W        W53984  15.111  13.141  27.430  0.2301  0.1440  0.1319
53121W        W53985  20.400  22.805   8.580  0.5056  0.0586 -0.6557
53122W        W53986  14.555   1.908  15.082  0.0873  0.1017 -0.0977
53123W        W53987  13.302   0.349  17.577  0.2510 -0.4327  0.1000
53124W        W53988   8.047  26.659   0.997 -0.2127 -0.1336  0.2797
53125W        W53989  24.919  12.587  12.428 -0.0010  0.3398  0.0010
53126W        W53990  14.780   0.502  14.711  0.1491 -0.2282 -0.1274
53127W        W53991  15.167   0.936   1.203  0.2404 -0.0485  0.1301
53128W        W53992  17.113  28.286   0.975  0.2322  0.0791 -0.2369
53129W        W53993  22.474   0.568  22.140  0.3146 -0.2570  0.0778
53130W        W53994  17.277  19.869   9.148  0.0653 -0.1202  0.2408
53131W        W53995   2.229  28.569   9.546 -0.0235  0.0556  0.2618
53132W        W53996   4.691  17.495   3.439  0.1146  0.0457  0.3624
53133W        W53997   3.193  16.180  23.253 -0.1119 -0.0383  0.2133
53134W        W53998  22.185   4.288  21.748 -0.2292  0.0989  0.1296
53135W        W53999  19.909  25.091  16.931  0.1496  0.0778 -0.2165
53136W        W54000   9.726   5.432  15.384  0.0487 -0.0036  0.1079
53137W        W54001   1.231   0.700  20.970 -0.1214 -0.1307  0.0491
53138W        W54002  22.580  20.802   9.044 -0.0714 -0.0462  0.0798
53139W        W54003  16.436  12.608  19.673  0.1767 -0.3216  0.2387
53140W        W54004  25.308   2.581  18.806 -0.2701  0.3842 -0.0430
53141W        W54005   6.453  22.481   9.683 -0.1797 -0.0825  0.1213
53142W        W54006   1.287   9.138  28.689  0.0892 -0.0554  0.0112
53143W        W54007   8.178  15.880   9.605  0.1116 -0.1811 -0.2097
53144W        W54008  13.575  21.455  16.310  0.1661 -0.1300  0.2161
53145W        W54009  23.165  24.180   0.095 -0.0656  0.0711  0.0464
53146W        W54010  13.673  17.838  24.585  0.0628  0.0539 -0.3473
53147W        W54011   4.452  15.322   7.667  0.3206 -0.1570 -0.0972
53148W        W54012  25.052   4.618   9.989  0.0968 -0.0519 -0.0817
53149W        W54013  26.639  26.492  11.000  0.0572 -0.0552  0.0908
53150W        W54014  10.591  13.841   2.343  0.0390  0.2719  0.1660
53151W        W54015   0.900  17.861  17.106  0.1299 -0.0948 -0.0570
53152W        W54016   1.075   8.637   6.963  0.1670  0.1262 -0.1711
53153W        W54017   7.563   7.819  18.355  0.2348 -0.1389 -0.1336
53154W        W54018  27.005  11.882  25.965 -0.0579  0.1971 -0.0546
53155W        W54019  18.326  27.162   7.299 -0.0043  0.2358 -0.0470
53156W        W54020   3.985   5.358   4.471  0.0461  0.0428  0.2267
53157W        W54021  19.936  23.001  14.570  0.2520 -0.0057 -0.1829
53158W        W54022   7.235   4.049  20.334 -0.0858  0.0205  0.1658
53159W        W54023  16.707  17.553  12.460 -0.1661  0.0626  0.0061
53160W        W54024   4.605  13.527   9.165  0.2596 -0.1927 -0.0125
53161W        W54025  12.577  27.973   3.995  0.0687 -0.0540  0.1495
53162W        W54026  13.284  24.008   7.719  0.0035  0.1315 -0.0411
53163W        W54027   2.423  20.940  18.973 -0.0087  0.0117 -0.3268
53164W        W54028   7.721  20.223  10.877 -0.0329  0.2383 -0.0341
53165W        W54029   7.825  17.702  18.284  0.1311 -0.3076  0.1816
53166W        W54030   7.243  23.791  18.000 -0.4017 -0.0135 -0.1885
53167W        W54031   7.246  15.116  17.940 -0.0013 -0.0406 -0.0181
53168W        W54032  23.133  15.340  18.183  0.4246  0.0241 -0.0131
53169W        W54033   9.842   3.001   5.818  0.3963 -0.2531 -0.1027
53170W        W54034   8.644   0.231   4.290  0.1962 -0.2405  0.2311
53171W        W54035  18.483  20.212   0.501  0.3699 -0.0691  0.1423
53172W        W54036   5.653  18.433  20.836  0.2290  0.0361 -0.4105
53173W        W54037  27.624  23.181  15.788  0.1695 -0.0391 -0.0853
53174W        W54038  10.475  19.129  14.684 -0.0113  0.1400 -0.2693
53175W        W54039  12.132   8.507  13.139 -0.1770  0.1344  0.0693
53176W        W54040   7.639  19.445   9.574 -0.2853  0.3109  0.0827
53177W        W54041  18.140  26.719  20.059  0.1468  0.1878 -0.0172
53178W        W54042  16.047  22.631  20.829 -0.1073  0.0691  0.1942
53179W        W54043  17.908  27.400  23.585  0.2364  0.2391  0.0714
53180W        W54044   0.540   0.208  27.271  0.1709 -0.1986 -0.1289
53181W        W54045  11.811   2.976  24.209  0.1730  0.2972 -0.1114
53182W        W54046  15.132  21.929  21.643 -0.4037 -0.1372 -0.0603
53183W        W54047   5.741   2.288  13.577  0.0851  0.0009 -0.0916
53184W        W54048  16.636  28.155  23.933 -0.0203 -0.1758  0.2199
53185W        W54049   1.222  10.627  16.417  0.0812 -0.3238 -0.2537
53186W        W54050  24.161  20.927   8.371 -0.0994  0.0017  0.2464
53187W        W54051  13.890  22.170   4.752 -0.0468 -0.0104  0.1534
53188W        W54052   7.837   4.358  16.463  0.1311  0.1792  0.1094
53189W        W54053   9.117  19.902  19.720  0.0649 -0.1238 -0.0023
53190W        W54054   7.953  23.989   1.510  0.0739 -0.2323  0.4080
53191W        W54055  13.420  15.581  25.648 -0.3303 -0.1023  0.2624
53192W        W54056  19.979  11.703   1.157 -0.1486  0.1055  0.1227
53193W        W54057  13.511   2.037  14.761  0.0231 -0.0835 -0.1387
53194W        W54058   8.585  11.303  16.666  0.0355 -0.2136  0.0244
53195W        W54059  20.928   3.762   3.523 -0.0883  0.3379 -0.1242
53196W        W54060  12.387   2.178  27.946  0.1170 -0.3560 -0.0033
53197W        W54061   1.085   4.611  23.101 -0.1399  0.2311  0.0952
53198W        W54062  20.410  26.693  24.946  0.0752 -0.0645 -0.1289
53199W        W54063  28.651   7.953  25.569  0.1938  0.1496  0.1480
53200W        W54064  12.421  19.347  19.145 -0.0485  0.0424 -0.2247
53201W        W54065  11.461   2.351  16.566 -0.1043 -0.1788  0.0007
53202W        W54066  13.467  26.737  12.943 -0.1548  0.1011  0.2941
53203W        W54067  13.411  14.478  15.837 -0.2159 -0.0084 -0.1768
53204W        W54068  26.669  21.109  20.770 -0.1666  0.1785  0.2124
53205W        W54069  24.749  10.172  19.234  0.2263 -0.0063 -0.1304
53206W        W54070  14.546  18.122  23.592 -0.0790 -0.3955 -0.0192
53207W        W54071  20.562   8.136  21.767  0.3296  0.1309  0.1035
53208W        W54072  23.218  26.978  18.534  0.0134  0.2755 -0.0990
53209W        W54073  15.836  21.917  10.300  0.2822  0.2607 -0.0122
53210W        W54074   9.877  28.656  16.482  0.1584  0.0818 -0.0661
53211W        W54075   6.724  24.518  14.884  0.0029 -0.1374 -0.0259
53212W        W54076  15.699  13.345  15.554 -0.2640 -0.2383 -0.1209
53213W        W54077  11.374   1.859  16.651  0.3391  0.2873  0.2204
53214W        W54078  15.223   2.812  27.919  0.2877 -0.1644  0.0509
53215W        W54079  11.066  17.450  10.429  0.0188  0.2434 -0.1961
53216W        W54080  24.133  24.554  11.009  0.2588  0.0509 -0.3810
53217W        W54081   7.615   2.388   0.096  0.1389  0.0376 -0.1604
53218W        W54082   4.721  19.780  22.183  0.0130 -0.0483 -0.0051
53219W        W54083  20.107  27.656  26.697 -0.3104 -0.0227 -0.1306
53220W        W54084   0.517  18.853  12.904 -0.0650 -0.1730  0.1371
53221W        W54085   1.564   9.245   8.662 -0.2880 -0.1597 -0.2439
53222W        W54086   4.836  24.580  20.208  0.1351  0.1701  0.1200
53223W        W54087   8.759  10.607  12.825 -0.0646  0.2307  0.2674
53224W        W54088  15.357   6.596  26.928 -0.2261 -0.2262  0.1720
53225W        W54089  16.061   5.738  26.366 -0.0285 -0.0763 -0.2575
53226W        W54090  22.621   4.138   3.486  0.0098  0.2561 -0.0114
53227W        W54091   7.893   7.281   3.911 -0.2672  0.1915 -0.2553
53228W        W54092  13.458   8.731  12.909 -0.0011  0.2254  0.1663
53229W        W54093   5.333  24.109  22.111 -0.0987 -0.0875 -0.0733
53230W        W54094  21.978   0.435  17.687  0.1441 -0.0203 -0.0357
53231W        W54095  12.902  21.090  18.590  0.0719  0.1264 -0.3273
53232W        W54096   2.075  14.313  27.298 -0.0790 -0.0408  0.1094
53233W        W54097  24.479   2.162  19.305  0.1745 -0.1314 -0.1048
53234W        W54098  26.488  14.211  13.269 -0.1565 -0.2527  0.0394
53235W        W54099  28.789  24.516  13.063 -0.1018  0.1227  0.0852
53236W        W54100   6.813   7.468   5.872 -0.0856 -0.0028  0.2463
53237W        W54101  19.289   0.855  25.085 -0.0615 -0.3071 -0.2365
53238W        W54102   1.636  27.746  27.886 -0.1377 -0.0230  0.0803
53239W        W54103   8.235   3.436  25.436 -0.0166 -0.2216 -0.0677
53240W        W54104  24.661   1.767  20.066 -0.0928 -0.1112 -0.0515
53241W        W54105   1.978  10.197  11.190 -0.0923  0.0693  0.0296
53242W        W54106  10.102  20.279  18.609  0.3114  0.0200  0.2169
53243W        W54107  19.834   8.652  17.690  0.1004  0.1860  0.0601
53244W        W54108   8.433  26.321  24.243  0.2435 -0.1120  0.2531
53245W        W54109  11.291  17.700  20.968 -0.0449 -0.2210 -0.0847
53246W        W54110   9.209  18.833  11.088 -0.2169 -0.1396 -0.1374
53247W        W54111   3.429   7.329  15.699 -0.0784  0.0122 -0.0541
53248W        W54112   6.846  10.871  12.588  0.1380  0.1287  0.0755
53249W        W54113  18.790  18.564  13.033  0.0622  0.0090  0.0024
53250W        W54114  15.893  14.491  23.038  0.0719 -0.0778  0.6462
53251W        W54115  17.465  11.721  10.935 -0.0604  0.1109 -0.1574
53252W        W54116   9.069  16.720   3.995 -0.0311  0.1864  0.1750
53253W        W54117   3.312   2.924  26.710  0.1212  0.0929 -0.3731
53254W        W54118  29.109  22.773  26.048  0.0713 -0.1002 -0.1857
53255W        W54119   6.731   5.325   5.058  0.0083 -0.2829  0.1196
53256W        W54120  23.830   4.140  26.052  0.1734 -0.3142  0.1988
53257W        W54121  16.088  17.825  24.506  0.3406  0.2002 -0.0301
53258W        W54122  22.020  10.933   7.782  0.0990  0.0549 -0.3398
53259W        W54123  11.381   8.580  25.175 -0.1129 -0.0183 -0.0408
53260W        W54124   0.857   1.616  19.783 -0.0325 -0.4103  0.1495
53261W        W54125   8.558  27.920  19.781 -0.0780  0.2915  0.1488
53262W        W54126  11.012   7.036  12.615 -0.4398  0.2681  0.1714
53263W        W54127  13.662  14.748  23.769  0.1718  0.0864 -0.0855
53264W        W54128  16.402   0.200  13.623  0.0577  0.3064 -0.0895
53265W        W54129  11.312   3.601  13.484 -0.0767 -0.2006  0.0452
53266W        W54130  18.350   7.452  17.452 -0.0830 -0.2342 -0.0082
53267W        W54131  16.148  22.267   1.589  0.1138  0.1158  0.0912
53268W        W54132   7.541   0.781   1.808  0.1002 -0.2473  0.0474
53269W        W54133  18.869   9.959  25.672  0.0378  0.1734 -0.2160
53270W        W54134  28.881   1.661  22.386  0.0954 -0.1020  0.0124
53271W        W54135   4.383  21.134  17.889  0.0869 -0.0897  0.2035
53272W        W54136  25.447  24.766  16.364 -0.1584 -0.1915 -0.0269
53273W        W54137  27.208   7.207  15.091  0.0431  0.0726  0.0995
53274W        W54138  20.996  29.131  16.875 -0.2922 -0.0478 -0.2672
53275W        W54139  11.471   6.752  12.486  0.1090  0.0595 -0.0634
53276W        W54140   9.862   8.834  26.240  0.0540 -0.1252  0.3804
53277W        W54141  11.114   3.563   6.768  0.0400  0.0105  0.0822
53278W        W54142  10.642   3.483   8.526  0.0103  0.0154 -0.0893
53279W        W54143   5.391  25.460  17.585 -0.3749  0.0859  0.2388
53280W        W54144   1.473  19.355  10.909  0.0995 -0.2577  0.0750
53281W        W54145  28.507  22.406  14.831 -0.0638  0.0885  0.2658
53282W        W54146  11.067  19.152  19.774  0.0191  0.2746 -0.1109
53283W        W54147  20.945  15.488   5.432 -0.1833 -0.2079 -0.0576
53284W        W54148   6.774  20.565   3.374 -0.0582 -0.1648  0.2616
53285W        W54149   9.735   6.208  27.276 -0.2704 -0.0167 -0.3345
53286W        W54150  28.281  13.696  14.352  0.0625  0.0035 -0.2059
53287W        W54151   9.734  15.952  21.244  0.2682 -0.0878  0.0137
53288W        W54152   3.453  21.112  23.575 -0.1007 -0.0432  0.0362
53289W        W54153  14.870  12.179   3.021  0.4293 -0.0132 -0.1377
53290W        W54154  12.463  23.836   5.437 -0.0986 -0.1831  0.0348
53291W        W54155   6.222   8.817  14.563  0.3110 -0.0338 -0.2256
53292W        W54156  29.004   0.079   3.786 -0.2867 -0.1638 -0.1384
53293W        W54157  18.607  11.112  25.508 -0.2126  0.0022 -0.0735
53294W        W54158   5.695  28.697  25.161 -0.0419 -0.0955 -0.0144
53295W        W54159  26.676  17.911   8.348 -0.0295  0.1337 -0.0937
53296W        W54160  13.794   1.375  28.574 -0.0155 -0.2487 -0.4790
53297W        W54161  10.786  26.555  17.561  0.0615 -0.0430  0.1076
53298W        W54162   5.047  21.089  16.807 -0.1597 -0.1720 -0.1469
53299W        W54163  13.216   7.284   1.901  0.2454 -0.4896  0.1849
53300W        W54164   4.815  20.759   7.799 -0.0723 -0.0453  0.1278
53301W        W54165   8.217  27.217  24.518 -0.1348  0.1907  0.1165
53302W        W54166  27.934   2.400  16.312 -0.1033 -0.2335 -0.1825
53303W        W54167  22.881  23.331  11.687  0.3769 -0.0324 -0.3752
53304W        W54168   3.708   5.914  20.262  0.1657  0.0636  0.0534
53305W        W54169  14.385  14.565   1.282  0.2023  0.0046 -0.0273
53306W        W54170   2.904  18.625  17.020 -0.2602  0.2639  0.3250
53307W        W54171  24.964   5.116  29.101 -0.2387  0.1920 -0.0382
53308W        W54172   0.072  20.851  19.175  0.0176 -0.1932 -0.0957
53309W        W54173  16.956  17.890   0.648  0.0793 -0.3230  0.0046
53310W        W54174  19.769   1.232  11.276 -0.1651 -0.0693 -0.3450
53311W        W54175  12.207   5.572   2.515 -0.1924  0.0711 -0.2258
53312W        W54176   5.399  28.523  10.766  0.1267 -0.0773  0.1290
53313W        W54177  10.192   1.860  11.884 -0.0016 -0.1551 -0.2495
53314W        W54178  22.956   6.022  10.982 -0.2170 -0.3876  0.0889
53315W        W54179  11.111  26.297  20.055  0.0208 -0.2880 -0.1194
53316W        W54180   4.116  27.847  18.149  0.3337  0.1251  0.0987
53317W        W54181  21.620  11.788  19.646 -0.0098  0.0794 -0.0052
53318W        W54182  16.297  29.130  22.096  0.0044 -0.1287 -0.0907
53319W        W54183   3.244  19.158  15.629  0.1582  0.0932  0.2509
53320W        W54184   3.926   1.653  15.355 -0.0284 -0.0734 -0.2999
53321W        W54185  23.434   0.854  19.909 -0.0483  0.0666 -0.0338
53322W        W54186  28.870   3.841   8.665  0.0328 -0.0302 -0.4254
53323W        W54187  23.830   0.121  10.955  0.0914 -0.1488  0.0556
53324W        W54188   2.645   2.677  26.224  0.1101 -0.2065  0.0626
53325W        W54189  13.052  28.905   2.851 -0.0740  0.0471  0.0558
53326W        W54190  24.815  23.479  19.495 -0.0512 -0.0623 -0.0095
53327W        W54191  25.741   7.377   7.616 -0.0880 -0.0344  0.2869
53328W        W54192   3.834   0.776   9.478  0.0757  0.0979 -0.0946
53329W        W54193   6.729   1.399  17.223 -0.2461 -0.2398  0.0227
53330W        W54194  10.255  12.330  24.072 -0.0410  0.0331  0.0745
53331W        W54195   4.595   0.599  19.155 -0.3044 -0.1869 -0.0392
53332W        W54196  17.207   9.388  23.918 -0.1429  0.0339  0.0349
53333W        W54197  15.197  24.981  25.917  0.0509  0.1474 -0.0739
53334W        W54198  20.113  11.564  24.789  0.1778  0.1097  0.0326
53335W        W54199  25.228   2.070  18.691 -0.0250  0.1404 -0.3701
53336W        W54200  17.118   1.271  11.434  0.2251 -0.1080 -0.4640
53337W        W54201   6.089  27.254  27.729  0.0249 -0.0296  0.4764
53338W        W54202   3.028  28.009  14.750  0.0843  0.1884  0.0629
53339W        W54203  17.709  14.509   1.438 -0.0932 -0.0187  0.1428
53340W        W54204   7.780  24.587  10.542 -0.1676 -0.0008 -0.3498
53341W        W54205   7.922  24.101   7.629 -0.0096  0.0669 -0.1368
53342W        W54206  12.662  23.296  22.658 -0.2956  0.0745 -0.0576
53343W        W54207  23.671  26.027  13.098 -0.1108  0.1483 -0.2013
53344W        W54208  15.818  13.628   9.876  0.2955  0.0468  0.0808
53345W        W54209  23.776  13.730   6.578  0.1406  0.1364  0.2880
53346W        W54210  18.159   8.891  17.374  0.0667 -0.1089 -0.4591
53347W        W54211  23.324   0.676  10.551  0.0901  0.4043 -0.2563
53348W        W54212  11.721   6.707  26.079  0.0431  0.0229  0.1532
53349W        W54213  25.437  23.504  15.419 -0.4005  0.3345 -0.0978
53350W        W54214  23.249  22.074   3.806 -0.2769 -0.2168  0.0127
53351W        W54215   1.752   5.572  12.211 -0.3266 -0.0201  0.0866
53352W        W54216  16.259   2.552  16.497  0.0516  0.3230  0.0023
53353W        W54217   0.389   8.351  11.921 -0.0617  0.1595 -0.3650
53354W        W54218   3.668  12.325   0.550  0.2856 -0.0410 -0.0274
53355W        W54219  18.261  23.846  21.422  0.0753  0.0084  0.1244
53356W        W54220  12.781  25.926   4.681 -0.4346  0.0717 -0.0082
53357W        W54221  10.019  27.387  13.756 -0.2358  0.3399  0.0140
53358W        W54222   9.370  20.094  26.806 -0.1065  0.3361  0.2125
53359W        W54223   0.828  18.571  14.983 -0.0191 -0.1035  0.3153
53360W        W54224   3.561   1.850  14.927  0.1275 -0.2627 -0.0341
53361W        W54225  12.994  14.935  19.726 -0.0404 -0.3041  0.2624
53362W        W54226  27.400   2.813  19.396  0.3716 -0.0237 -0.0910
53363W        W54227   6.252   0.419  19.201 -0.1559  0.0477 -0.0070
53364W        W54228  22.068   3.752   0.044  0.2913 -0.1991 -0.1803
53365W        W54229  26.406  18.989  17.857  0.1013 -0.1271 -0.2516
53366W        W54230  11.733  18.340  22.378  0.1862 -0.1950  0.2721
53367W        W54231  26.641   6.572   2.368 -0.0990  0.1988 -0.0127
53368W        W54232   1.483   2.930  19.017  0.2902 -0.3626  0.2300
53369W        W54233   0.397  23.027  12.182 -0.3902 -0.2114 -0.0484
53370W        W54234   8.994   8.910  22.427  0.1428 -0.2274  0.0513
53371W        W54235   9.746  15.437  27.384 -0.0525 -0.2598  0.1691
53372W        W54236   7.750  11.545  10.806  0.2906 -0.6130  0.1456
53373W        W54237   7.062  16.596  21.909 -0.0448 -0.0204  0.0729
53374W        W54238   4.742  26.763   7.123 -0.0062  0.2131 -0.0615
53375W        W54239  14.013  17.645   5.560 -0.0287  0.1185  0.2860
53376W        W54240  10.452   5.127  13.499 -0.1018 -0.0665  0.1913
53377W        W54241   4.748  18.386  11.049  0.1399  0.0054 -0.3245
53378W        W54242   6.223  15.898   5.903 -0.3019 -0.0469  0.0548
53379W        W54243   9.156  27.356   6.157 -0.1480  0.0796 -0.0995
53380W        W54244  18.864  28.325  15.590 -0.3982  0.1666 -0.0117
53381W        W54245  24.359  14.757   0.131 -0.1503  0.0339  0.0669
53382W        W54246  13.097  25.202  20.495 -0.0168  0.0553  0.1773
53383W        W54247   7.370   2.492  16.992  0.2855 -0.0441 -0.0468
53384W        W54248  27.270   5.597  14.351  0.1039  0.0400  0.2778
53385W        W54249   9.953  24.901  16.369 -0.0497 -0.2504  0.0179
53386W        W54250   3.927  26.208   6.932 -0.1342  0.1944 -0.1235
53387W        W54251   0.653   4.934  18.540 -0.2190 -0.0978  0.1549
53388W        W54252  24.083  22.277  20.403  0.1711  0.1682  0.0709
53389W        W54253  26.367   0.530  19.512 -0.0075 -0.2538  0.3058
53390W        W54254  12.275   2.974   1.081 -0.1228  0.0525 -0.4250
53391W        W54255  11.454  22.111  17.829  0.0143 -0.1372  0.2570
53392W        W54256   9.743  14.771  15.405  0.2086  0.1922  0.1422
53393W        W54257   1.878   4.180   3.808  0.0896 -0.0786 -0.0577
53394W        W54258  24.688   5.222  18.688  0.0850 -0.3931 -0.2598
53395W        W54259  11.494   8.780   6.593  0.1655 -0.3422  0.1392
53396W        W54260   4.253   2.901  24.556 -0.1586 -0.0495  0.2458
53397W        W54261  10.182   1.687  29.008 -0.1096  0.0218 -0.1780
53398W        W54262  29.030  14.231   9.353  0.1162 -0.0862 -0.2409
53399W        W54263  17.981  15.139  16.256 -0.2075 -0.0182  0.0468
53400W        W54264  16.920  19.916  24.683  0.2332 -0.2864  0.0960
53401W        W54265  12.918   3.335  18.250  0.3040  0.0457  0.0758
53402W        W54266  16.244  14.893  19.622  0.2922 -0.1950  0.3677
53403W        W54267   0.025  23.825  27.553 -0.1102 -0.1725 -0.1279
53404W        W54268  10.496  27.369  25.240  0.0373 -0.0639 -0.3721
53405W        W54269   5.141  20.145  28.821 -0.0834  0.2425  0.0071
53406W        W54270  10.661  28.845  26.206 -0.1627 -0.2458 -0.2700
53407W        W54271  23.727  13.964  27.401 -0.1800  0.1920  0.0178
53408W        W54272  26.410   9.581  23.515 -0.3284 -0.1948  0.1039
53409W        W54273   8.228  22.020  12.657  0.1969  0.3679 -0.1134
53410W        W54274  16.223  25.561  23.016  0.0585 -0.0459  0.0832
53411W        W54275  24.185   5.988   5.155 -0.0100 -0.2052 -0.0083
53412W        W54276   2.292   5.197  10.555  0.0888  0.0418  0.3505
53413W        W54277  25.865   9.875  27.113  0.0169  0.0603  0.3776
53414W        W54278  13.918  15.481  13.797 -0.2840 -0.0723  0.2223
53415W        W54279   2.259  15.972  12.007 -0.0766 -0.1090 -0.0763
53416W        W54280  25.933  24.308   5.052 -0.1249 -0.0995  0.1928
53417W        W54281  19.076  17.753   4.575  0.3007  0.1045 -0.0179
53418W        W54282   3.769   3.890  10.630 -0.0686  0.1905 -0.0934
53419W        W54283  27.517  26.731   6.754  0.0077  0.3357 -0.1515
53420W        W54284   1.040  28.718   6.055  0.0986  0.0894 -0.0914
53421W        W54285   4.192  21.497  17.273  0.1100 -0.3723  0.3292
53422W        W54286  19.217  26.728   7.974 -0.1304 -0.0475 -0.1652
53423W        W54287  10.516   2.761  10.121 -0.1361 -0.0479  0.0288
53424W        W54288   3.477   3.563  19.092 -0.1651 -0.3333 -0.0260
53425W        W54289   8.271  11.137  20.535  0.0752  0.0519  0.1300
53426W        W54290   2.294   2.836  20.386  0.1284 -0.2106 -0.0260
53427W        W54291  18.411  27.843   4.139 -0.1168  0.3607  0.0216
53428W        W54292  26.901  17.830  18.524 -0.0894 -0.0373 -0.2416
53429W        W54293  22.223  14.165  17.195 -0.1605 -0.2762 -0.1917
53430W        W54294  26.328  23.734   7.001  0.0237 -0.2750 -0.5108
53431W        W54295  11.071  23.218  16.662  0.3184  0.3708  0.1150
53432W        W54296  15.925   3.984  10.159 -0.0643 -0.0107  0.1184
53433W        W54297  28.747   7.187   4.856  0.2090  0.1286  0.1653
53434W        W54298   9.184  23.250  14.423  0.0093 -0.1005 -0.1237
53435W        W54299  12.485  22.232  15.465  0.0082 -0.1864  0.2605
53436W        W54300  26.919  15.685  19.031 -0.1826  0.4011  0.0148
53437W        W54301   1.924  24.719  26.769  0.1265  0.1180 -0.1870
53438W        W54302  14.581  19.868  27.022 -0.1520  0.0216 -0.0575
53439W        W54303  13.480   4.189  25.386 -0.1428 -0.3944  0.2450
53440W        W54304   2.553  23.775  17.845 -0.3714  0.0971  0.0497
53441W        W54305   9.414  11.517  26.199  0.0967 -0.0024  0.2875
53442W        W54306  17.036   2.746  23.040  0.1492  0.0125 -0.2171
53443W        W54307   4.921   9.530   0.768 -0.5239  0.0554 -0.1246
53444W        W54308   8.899  28.201  16.450  0.0502  0.0546 -0.1879
53445W        W54309   8.236  22.530   2.004  0.0786 -0.0136  0.1820
53446W        W54310  19.051  21.770  12.693 -0.2982 -0.2443 -0.0935
53447W        W54311   4.414  22.256   0.578 -0.0949  0.0002 -0.0803
53448W        W54312   0.282  24.875  27.373  0.0476  0.2889 -0.2085
53449W        W54313  28.480   3.995   7.155 -0.4050 -0.0471 -0.0726
53450W        W54314  18.696  28.812  21.354 -0.1757 -0.0573  0.3068
53451W        W54315  18.636  10.938  20.550  0.0093  0.0596 -0.2941
53452W        W54316   3.477   1.849  21.879  0.0354  0.1127 -0.2335
53453W        W54317   6.493   9.874   6.551 -0.0921  0.1836  0.1156
53454W        W54318  19.261  14.659  27.075 -0.0355  0.0065  0.0709
53455W        W54319   7.648  22.414  11.393 -0.1660  0.0761 -0.0995
53456W        W54320  20.184   2.213  15.435  0.0123  0.0694  0.0084
53457W        W54321  22.621  27.059  11.783  0.2602  0.1735  0.3015
53458W        W54322   1.439  23.614  26.829  0.0230  0.0482  0.0721
53459W        W54323  28.980  28.292  20.945  0.3689  0.1163  0.1068
53460W        W54324  25.137  17.103  10.158 -0.0281  0.2021 -0.0909
53461W        W54325  27.014   9.806  28.358 -0.1584  0.0085  0.3443
53462W        W54326  16.988   1.369  18.053 -0.2311 -0.0594 -0.0047
53463W        W54327  13.799  14.264   7.085 -0.1268 -0.2227 -0.0053
53464W        W54328  23.154   2.960  16.633 -0.4227 -0.3056  0.1089
53465W        W54329   1.045  26.880  23.918  0.1608 -0.1771  0.2831
53466W        W54330   8.064   6.433   9.054 -0.0256 -0.0179 -0.0244
53467W        W54331   8.690   0.357  15.460  0.1155 -0.0281  0.2963
53468W        W54332  17.423   3.211  17.786  0.2101 -0.2855 -0.0602
53469W        W54333  10.476  14.299  18.719  0.1632  0.1433  0.1863
53470W        W54334  26.825   1.178  28.355 -0.1165 -0.0270  0.0903
53471W        W54335   0.485   6.204  28.932 -0.2821 -0.1030 -0.1434
53472W        W54336   8.272  25.908   3.703  0.4055 -0.0414 -0.2446
53473W        W54337   0.971   9.480  28.553 -0.1568 -0.0081  0.0336
53474W        W54338   5.175  22.438   3.868  0.0122 -0.1810  0.3807
53475W        W54339  28.429   8.632   7.829 -0.0253  0.1210  0.1981
53476W        W54340  28.156  24.533  17.766 -0.1317 -0.0748  0.3001
53477W        W54341   6.272   4.891  27.244 -0.1757 -0.2515  0.0587
53478W        W54342  24.172   5.007  17.132  0.3928  0.1426 -0.0476
53479W        W54343  17.900   4.385  19.136  0.0516 -0.1002 -0.1787
53480W        W54344   4.659   5.923  12.480 -0.0291 -0.0606  0.1698
53481W        W54345  13.224  26.916  12.537  0.1467  0.1735 -0.3189
53482W        W54346  22.311   9.860  19.167  0.1068  0.0464  0.4324
53483W        W54347  21.603  22.960  11.168 -0.2224  0.1470 -0.0045
53484W        W54348  16.425  17.885  20.405  0.1327 -0.0094  0.3517
53485W        W54349   8.960  18.255   9.728 -0.0635 -0.2477 -0.1803
53486W        W54350  28.286   9.606   1.680  0.0815 -0.0569  0.0164
53487W        W54351  25.289  19.463  26.729  0.0774 -0.0256 -0.1766
53488W        W54352  14.150  13.300  13.670 -0.2776  0.0762  0.3576
53489W        W54353   1.976  20.006  20.017 -0.1657  0.1104 -0.0406
53490W        W54354  22.317  27.223  13.447  0.2761 -0.1083  0.1173
53491W        W54355  14.378  20.565  15.964 -0.0109 -0.0616 -0.1772
53492W        W54356  19.158  28.643  14.876 -0.0675  0.1849  0.0154
53493W        W54357  15.647  24.156  17.850  0.3131  0.2125 -0.0007
53494W        W54358  18.439   9.904  10.273  0.1026 -0.0151 -0.1548
53495W        W54359   8.678   5.231  23.256  0.0427  0.1891  0.2249
53496W        W54360   4.111   2.626  27.933 -0.0068 -0.2079  0.0699
53497W        W54361  11.571  12.836  15.151 -0.2321  0.0890  0.1212
53498W        W54362  16.226  14.933  26.257 -0.0399 -0.0077  0.0358
53499W        W54363  16.963  28.644   7.389 -0.1223  0.1133 -0.0709
53500W        W54364   9.961   9.495  15.798  0.2981 -0.1667  0.0824
53501W        W54365   3.491  27.760  27.184  0.5622  0.2242 -0.1659
53502W        W54366  19.859  18.202  22.735  0.2106  0.2411  0.0524
53503W        W54367   0.189   6.454  26.266  0.1251  0.1957  0.1784
53504W        W54368  14.077   6.327  14.528  0.0446  0.2223  0.2434
53505W        W54369  12.502   2.702  25.425  0.1690 -0.0614 -0.0477
53506W        W54370  11.325  28.561  16.582 -0.4225  0.1305 -0.1428
53507W        W54371  22.529   0.322  21.654 -0.2293  0.2274 -0.1970
53508W        W54372   8.662   2.307  21.194 -0.0376  0.0317 -0.0634
53509W        W54373   1.547  11.228  26.228 -0.2120 -0.0223 -0.1543
53510W        W54374   7.822  10.000  15.140  0.1766 -0.2864 -0.1111
53511W        W54375   5.501   5.863  15.410  0.1507 -0.0793  0.1916
53512W        W54376  11.137   5.494  11.127 -0.0008  0.0880  0.1741
53513W        W54377   2.270  26.523  19.293 -0.1343  0.0850 -0.1794
53514W        W54378   9.608  27.503  20.033 -0.1933 -0.1373  0.3350
53515W        W54379   6.628  29.119  26.914 -0.0048 -0.0215 -0.2275
53516W        W54380   4.932  15.970   3.457 -0.0802 -0.3742 -0.1503
53517W        W54381  22.325  12.518   6.476  0.3249  0.2336 -0.0840
53518W        W54382  10.741  26.415  19.241  0.0336  0.1741  0.0297
53519W        W54383  14.635  17.776  12.618 -0.0859  0.0284  0.1009
53520W        W54384   7.015  15.932   5.355 -0.0502 -0.1095  0.0262
53521W        W54385  22.219  25.473  14.045  0.0652  0.3951 -0.1204
53522W        W54386  20.905  25.141  26.373  0.0268  0.0115  0.1074
53523W        W54387  19.578   1.849  10.021  0.5612 -0.0374 -0.0256
53524W        W54388  26.167  11.762  23.501 -0.1352  0.3678 -0.1012
53525W        W54389  26.945   8.302  24.923  0.1337  0.0897 -0.0656
53526W        W54390   7.212  16.761  11.305 -0.0299  0.1486 -0.2267
53527W        W54391  18.267   8.875  14.821  0.1758  0.3516  0.3284
53528W        W54392  22.062  14.187  11.819 -0.2299  0.1057  0.0228
53529W        W54393   9.133   5.123   9.612 -0.1542 -0.1761  0.2513
53530W        W54394   6.272  23.247   1.017 -0.3395  0.0814  0.2709
53531W        W54395  17.923  14.881  18.901  0.1202 -0.1524  0.0734
53532W        W54396  13.690  21.775  13.603 -0.1046 -0.1553  0.0681
53533W        W54397   1.633  25.406  17.709 -0.0952 -0.0882 -0.0569
53534W        W54398  22.840   6.752  16.993  0.2025 -0.0779  0.2592
53535W        W54399   3.980   8.628  13.713  0.2355  0.1861  0.3926
53536W        W54400  26.696  16.281  25.404 -0.2253  0.0377  0.0426
53537W        W54401   5.935  16.142   0.528 -0.1094  0.0792 -0.2633
53538W        W54402  11.291  15.128  26.203 -0.0958  0.3668 -0.0627
53539W        W54403   7.029  23.707  18.804  0.1126 -0.0890 -0.0562
53540W        W54404  12.248  21.177  24.731 -0.1215  0.0421 -0.1622
53541W        W54405  18.451  11.882   0.135  0.2588  0.0748  0.2572
53542W        W54406   5.888  14.402  29.099  0.1837  0.0763  0.0746
53543W        W54407   9.290   2.512  24.044  0.0976  0.0744 -0.0382
53544W        W54408   4.291  23.670   0.158  0.0501 -0.1644  0.2517
53545W        W54409   0.849  24.691  25.146  0.2650 -0.0357  0.1021
53546W        W54410  10.434  27.730  10.384 -0.0428  0.4676 -0.3471
53547W        W54411   3.636  24.589  23.347 -0.0749 -0.1724  0.1909
53548W        W54412  22.572  24.140   0.063  0.0817  0.0801  0.0247
53549W        W54413  27.012   3.472  11.147 -0.3633  0.2578 -0.0745
53550W        W54414   1.733  25.103  12.713 -0.1841 -0.2581  0.4324
53551W        W54415  16.732   8.293  21.049 -0.0285  0.3041 -0.3497
53552W        W54416  17.313  26.480  27.189 -0.2924 -0.4479 -0.0288
53553W        W54417  29.002  23.474  14.576 -0.1774 -0.1442 -0.1616
53554W        W54418  28.024   9.534  19.859  0.3580  0.0341 -0.1547
53555W        W54419  16.097   4.627  13.152  0.1254  0.1490 -0.2058
53556W        W54420   6.966   1.992  19.587 -0.2780  0.0742 -0.2497
53557W        W54421   0.129  25.085  25.664 -0.3096 -0.1285 -0.4015
53558W        W54422  12.731   7.177   4.469 -0.2793  0.3287  0.0396
53559W        W54423  15.756  11.120  16.127 -0.0495 -0.0191  0.1125
53560W        W54424   8.868   5.691  25.286  0.1139  0.1352  0.5021
53561W        W54425  22.095  22.829  21.391  0.5001  0.1285  0.0865
53562W        W54426  10.298  21.299  23.600  0.1213  0.2107  0.0935
53563W        W54427   4.985  25.962  17.320 -0.0670  0.1219 -0.0952
53564W        W54428   3.233  22.058  14.841 -0.1292  0.0919 -0.0083
53565W        W54429  21.663  23.898  15.755 -0.0777  0.2325 -0.1687
53566W        W54430   0.441   4.394   3.703 -0.2073 -0.2151 -0.5161
53567W        W54431   0.110  19.399  17.870  0.3772  0.0610 -0.1127
53568W        W54432   4.823   5.311  21.971  0.0490  0.0958  0.0287
53569W        W54433   4.353  27.364  16.293 -0.0351  0.1382  0.1827
53570W        W54434  12.030  12.097  24.516 -0.0561 -0.1489  0.1469
53571W        W54435  12.744  23.479  19.321  0.1671 -0.1705  0.0018
53572W        W54436   3.419  11.913  24.993 -0.0095 -0.4169  0.1480
53573W        W54437  10.100  10.828  26.251 -0.1038 -0.2534 -0.2429
53574W        W54438   7.217   6.238  13.382 -0.3480  0.2367  0.0495
53575W        W54439   8.078  26.423  20.690  0.1243  0.2214 -0.0688
53576W        W54440  10.033   4.804  15.335 -0.0586  0.1611  0.0240
53577W        W54441  23.087   3.787  24.196  0.1095  0.1954  0.0443
53578W        W54442   8.824  21.391   2.163 -0.0178 -0.1290 -0.1075
53579W        W54443  18.957  13.006  10.765  0.0974  0.1962 -0.2758
53580W        W54444  12.139   5.292  15.723  0.0387 -0.0481  0.2121
53581W        W54445   6.454   2.573  10.170  0.0061  0.1587 -0.0920
53582W        W54446   4.045  10.013  18.671  0.2197 -0.2221  0.1056
53583W        W54447  22.861   8.031   1.060  0.0870  0.0797  0.0575
53584W        W54448   3.161   3.486  16.985  0.2029 -0.2651 -0.0170
53585W        W54449   2.088   3.390   0.777  0.0832 -0.0400  0.2198
53586W        W54450   4.941  16.681  15.827 -0.1243  0.2915  0.0392
53587W        W54451  24.258   7.454  21.569 -0.0316  0.3650 -0.1858
53588W        W54452  16.459  28.506  23.440 -0.0708 -0.1967 -0.5009
53589W        W54453  27.567  15.498  22.205  0.0197  0.2860  0.0843
53590W        W54454   6.392   6.271  17.807 -0.1597 -0.1490  0.0322
53591W        W54455   0.831  26.031  25.391  0.1667 -0.1946 -0.0006
53592W        W54456   5.830   4.695  22.957 -0.1137  0.0893 -0.3479
53593W        W54457  13.440  11.620   7.092 -0.0083 -0.0679 -0.0493
53594W        W54458  12.880  14.134   1.201 -0.1646 -0.0188  0.1642
53595W        W54459   8.489  18.869  15.484 -0.0696 -0.1688 -0.1702
53596W        W54460  10.507   2.994  29.105  0.1148 -0.0481  0.1597
53597W        W54461  10.733  20.673  14.967 -0.1921  0.3745 -0.0059
53598W        W54462  18.726   0.692  21.106 -0.0322  0.2865  0.1167
53599W        W54463  22.075   5.148   2.865  0.0805 -0.1026  0.0148
53600W        W54464   8.594  19.088  18.478  0.0090  0.0969 -0.0205
53601W        W54465   2.384  22.120  15.851 -0.0552  0.0066 -0.0603
53602W        W54466  20.556   1.503  10.964 -0.0906  0.5241 -0.1770
53603W        W54467  24.251  11.837  16.585  0.1415  0.0229 -0.0509
53604W        W54468   3.320   4.662   6.676 -0.2956  0.1049 -0.0412
53605W        W54469  26.482  18.553  20.717 -0.3658  0.0328 -0.1615
53606W        W54470  24.580  24.756  19.855 -0.0405 -0.0267  0.3074
53607W        W54471  23.615   0.699   2.486 -0.3441 -0.2270 -0.0752
53608W        W54472  21.806  17.353   0.091 -0.1208  0.0774  0.0976
53609W        W54473  18.867  10.969  18.064  0.0809 -0.0983  0.2608
53610W        W54474   6.834  10.519   5.226  0.5672  0.2461  0.2463
53611W        W54475  14.427   1.306  29.011 -0.0477 -0.2745 -0.1118
53612W        W54476   9.053  12.244   2.573  0.0573 -0.1030  0.1097
53613W        W54477   4.862  23.046  27.185  0.0359  0.0070 -0.0698
53614W        W54478  24.438   0.826   1.174 -0.0952 -0.0248  0.1429
53615W        W54479  16.764   0.461  25.850  0.0340  0.0338 -0.0770
53616W        W54480  27.511  11.991  19.077  0.0458 -0.1483  0.0846
53617W        W54481   3.783   0.216  14.386  0.0097 -0.0580 -0.4418
53618W        W54482  20.038  10.965  22.119  0.1127 -0.1333  0.3250
53619W        W54483  16.342   1.487  20.035  0.1047 -0.2299  0.3053
53620W        W54484   7.107  17.173  26.894  0.1412 -0.2457 -0.1605
53621W        W54485   3.231   2.107  15.241  0.1982 -0.1150  0.0041
53622W        W54486  11.667   0.806   0.812 -0.0302 -0.0450  0.1802
53623W        W54487  18.935  20.025  19.543  0.0914 -0.1923  0.1124
53624W        W54488  20.236  10.164  19.105  0.3243  0.1561  0.1334
53625W        W54489   4.424  11.743  21.726 -0.0976  0.3614 -0.0500
53626W        W54490  10.886  17.824   1.694 -0.0325  0.0626  0.1016
53627W        W54491   2.998   5.855   4.251  0.1228 -0.1643  0.0520
53628W        W54492  11.828   5.920  20.483 -0.0872  0.3293 -0.2308
53629W        W54493   3.714  15.186  25.949 -0.0736  0.2563  0.2561
53630W        W54494  23.153  24.246  15.410 -0.0563 -0.1382  0.1460
53631W        W54495  11.288   2.500   7.991  0.1722  0.0371 -0.0551
53632W        W54496   0.720  18.769  18.142  0.2883  0.2384  0.3404
53633W        W54497  12.611  27.963  26.091  0.0789  0.0458 -0.3422
53634W        W54498  27.308  16.626  20.187 -0.1718 -0.0692 -0.2626
53635W        W54499  26.000  13.179   5.240  0.1478 -0.0853 -0.3930
53636W        W54500  12.165  26.447  12.067 -0.1513  0.0799  0.0809
53637W        W54501  21.406  17.253  27.642 -0.0808 -0.0568  0.1381
53638W        W54502  19.244  25.266  24.735 -0.1895 -0.2576  0.0685
53639W        W54503  21.441  19.865  19.300  0.2108  0.0574 -0.2378
53640W        W54504  12.638   9.751   0.784 -0.0416 -0.0664 -0.2912
53641W        W54505   9.061  13.046  24.589 -0.0874  0.1785 -0.0198
53642W        W54506  25.845  12.798  22.422 -0.1122  0.0752  0.0385
53643W        W54507  16.798   9.086  24.052 -0.1975 -0.0769  0.1512
53644W        W54508  15.999  28.622  28.530 -0.0089  0.1468  0.2760
53645W        W54509  13.388   5.174   9.346 -0.1183  0.3306 -0.0448
53646W        W54510   9.126   8.868  15.138 -0.0664 -0.1235  0.1513
53647W        W54511  20.117  24.963  28.328  0.1596  0.1755 -0.0883
53648W        W54512   4.047   7.808   7.190  0.1825 -0.1105  0.0003
53649W        W54513   9.931  22.560  21.296 -0.1693  0.0071  0.0926
53650W        W54514  23.586  13.572  27.715  0.2024 -0.1257 -0.1497
53651W        W54515  16.883  19.144   7.501  0.0579 -0.1998  0.2096
53652W        W54516  11.206   9.862  26.073 -0.1392  0.0967  0.0246
53653W        W54517  18.291   2.331   2.734  0.1599  0.2322  0.1215
53654W        W54518  17.661  22.706  13.610 -0.4859  0.1665  0.0240
53655W        W54519   6.658  24.109  22.465  0.1879  0.2010 -0.1643
53656W        W54520   8.000   1.971   7.822 -0.3734  0.1136  0.2917
53657W        W54521   5.008   0.737  13.780 -0.1291 -0.2226 -0.2281
53658W        W54522   5.142   8.084  10.525 -0.1217  0.0819 -0.2079
53659W        W54523  17.797   7.923  21.125  0.2001  0.0399  0.2132
53660W        W54524  11.106  14.509   6.690 -0.2210  0.4205  0.0387
53661W        W54525  12.779   9.904  25.100  0.1848  0.4144  0.0171
53662W        W54526   7.572  13.365  21.069 -0.1191  0.0221  0.0580
53663W        W54527  14.699   0.479   7.608 -0.0499  0.0822 -0.1786
53664W        W54528  18.131   4.664  11.649  0.2908 -0.0870  0.1179
53665W        W54529   8.968   8.949  28.902 -0.1563  0.2580  0.0802
53666W        W54530  13.387  23.920  18.371 -0.2826 -0.0156 -0.2786
53667W        W54531   1.768   4.868  15.126 -0.3732 -0.1120 -0.2100
53668W        W54532   2.959  16.926   0.545  0.1853 -0.4630 -0.1595
53669W        W54533   3.761  23.286  12.046  0.5144 -0.0745  0.1385
53670W        W54534   4.630   9.670  15.790  0.1016 -0.1662 -0.3412
53671W        W54535  23.982   0.461  21.334  0.1133  0.1894  0.0256
53672W        W54536   7.933  26.526   5.563 -0.3483 -0.2382  0.1095
53673W        W54537  10.309   1.664  26.310  0.3083  0.0262 -0.2089
53674W        W54538   7.500  16.303   0.190 -0.1343  0.3150 -0.1757
53675W        W54539   5.126  25.352   1.547  0.1067 -0.0140  0.0624
53676W        W54540  10.003  16.274  24.948  0.0398  0.2005 -0.1048
53677W        W54541  20.976   4.047   9.161 -0.1942 -0.1485  0.0826
53678W        W54542  20.683   9.600  14.159 -0.0370 -0.0464  0.3863
53679W        W54543  19.504  28.898  20.657  0.0489 -0.2089  0.0981
53680W        W54544   2.202  12.586   5.161 -0.0125 -0.0824  0.1603
53681W        W54545   7.221   1.014  20.927  0.2409 -0.1505 -0.1766
53682W        W54546  15.983  12.575  11.852 -0.1600  0.3352  0.0151
53683W        W54547   0.012  17.996  21.647  0.0720  0.1345  0.0529
53684W        W54548   1.714  28.947   4.507  0.0448 -0.0596  0.0191
53685W        W54549   4.138  19.512  23.314  0.0919 -0.1087 -0.0549
53686W        W54550   5.893  27.686   8.756 -0.1750 -0.0196 -0.0605
53687W        W54551  17.545   8.699  16.250  0.0858 -0.0420  0.0557
53688W        W54552  11.439   1.076  21.862 -0.1390 -0.1244  0.1181
53689W        W54553   3.760  27.058  21.915  0.1789  0.1991 -0.0292
53690W        W54554  12.102   5.595  17.797  0.0295  0.0919 -0.1533
53691W        W54555  12.654  13.134   2.363  0.0335 -0.2065 -0.1140
53692W        W54556  10.275  24.214  13.758 -0.3002 -0.0869  0.0585
53693W        W54557   0.592   8.057  22.670 -0.1822 -0.1852 -0.2690
53694W        W54558  18.284   3.035   8.285 -0.2126  0.0207 -0.1081
53695W        W54559  17.882   4.659   3.774 -0.0426  0.5818  0.0124
53696W        W54560   5.467  21.626  20.330 -0.0503 -0.2114  0.1703
53697W        W54561   4.177  25.390   0.666 -0.1332  0.1265 -0.0558
53698W        W54562  11.262   7.541  15.028  0.1493  0.0416 -0.0916
53699W        W54563  17.079  10.489  13.291 -0.1109  0.0131  0.1264
53700W        W54564   1.514  21.954   6.832 -0.0741 -0.1285  0.2740
53701W        W54565  25.353  22.085  25.391 -0.0847  0.1504 -0.1023
53702W        W54566  12.936   1.223   5.942  0.3714  0.1826  0.2804
53703W        W54567   3.612  17.878  17.544 -0.0469  0.0400  0.5067
53704W        W54568  16.507  10.878   7.760  0.1928  0.1418  0.1523
53705W        W54569   9.875   6.707  10.227 -0.1516  0.1325 -0.0538
53706W        W54570   7.973  17.017  11.833  0.0646 -0.0255  0.0558
53707W        W54571  18.162   0.496  22.855 -0.1780  0.1659 -0.2401
53708W        W54572   8.593  25.258   0.417 -0.0961  0.1360 -0.0498
53709W        W54573  27.287  17.352  10.714  0.0592 -0.0803 -0.2661
53710W        W54574  22.278  27.802   7.029 -0.3134 -0.1021  0.1716
53711W        W54575  13.983  12.032  15.703  0.0431  0.0848 -0.0768
53712W        W54576  22.665  12.667  24.326 -0.1794 -0.2153  0.0622
53713W        W54577   5.282   3.148  11.834 -0.3952 -0.2294 -0.3198
53714W        W54578  11.573  12.676  22.516  0.2726 -0.0143  0.0592
53715W        W54579  13.391   1.585  18.599 -0.2913  0.0114  0.0068
53716W        W54580  17.989  27.208  20.419 -0.1121 -0.1482  0.1272
53717W        W54581   0.990   8.440  27.523 -0.0464  0.0132 -0.1871
53718W        W54582  14.340  24.044   3.800 -0.1427 -0.0006  0.0169
53719W        W54583  19.474  26.295  16.865 -0.0337 -0.0635 -0.0484
53720W        W54584  19.513   4.723  25.363 -0.2810 -0.2810 -0.2064
53721W        W54585  15.879   6.181  18.263  0.0157  0.0221 -0.0689
53722W        W54586   0.730   3.625   6.789 -0.0487  0.1124  0.1458
53723W        W54587   5.772  24.244  16.790 -0.2031  0.0836 -0.2004
53724W        W54588   1.639  18.498  27.714  0.1932  0.3232 -0.2693
53725W        W54589  10.809  21.344   8.029  0.2466 -0.1659 -0.0389
53726W        W54590  24.924   7.484  24.396 -0.1850 -0.0932 -0.0480
53727W        W54591   3.197   7.461   9.677 -0.4095  0.3828 -0.4059
53728W        W54592  12.053  14.307  22.850  0.0176  0.1366 -0.0104
53729W        W54593  13.131  15.081   6.091 -0.1948 -0.0224 -0.1900
53730W        W54594  23.401  12.466  26.208  0.2400  0.4553  0.2864
53731W        W54595  15.958  27.736  12.998  0.0995  0.0295  0.1036
53732W        W54596  16.625   7.233  18.671  0.1830  0.2335 -0.2156
53733W        W54597  11.937  25.259   4.600  0.0108 -0.4136 -0.2235
53734W        W54598  15.715   2.840  25.243  0.1845 -0.1057 -0.1962
53735W        W54599  11.661  24.689  17.888 -0.0364 -0.5151 -0.3670
53736W        W54600  18.036  11.753   7.850  0.0292 -0.0327 -0.0397
53737W        W54601  10.078  24.867  18.636 -0.0372  0.0251 -0.0050
53738W        W54602  21.143   6.164  20.574  0.3043 -0.1511 -0.3611
53739W        W54603  27.408   1.036   7.749 -0.3253 -0.2047 -0.0169
53740W        W54604  28.968  24.732  27.490  0.2156 -0.3034 -0.0315
53741W        W54605  19.638  21.825  13.011 -0.2637  0.1142  0.1693
53742W        W54606  12.538  20.446   8.104 -0.0828 -0.1997  0.0099
53743W        W54607  16.083  24.463  22.925  0.0737 -0.0560  0.3190
53744W        W54608   4.357   8.033   5.003  0.0853  0.2899  0.2038
53745W        W54609  10.530  20.487  20.313  0.0504  0.1425  0.0197
53746W        W54610   6.002   5.917  22.576  0.3106  0.0735  0.2452
53747W        W54611   2.089   6.201  17.147 -0.1074  0.0898 -0.2743
53748W        W54612  28.403  20.385  10.461 -0.1932 -0.0007 -0.1039
53749W        W54613  17.158   3.002   4.674  0.0498  0.2415 -0.0999
53750W        W54614  19.189   6.902   3.154  0.2724  0.1117  0.0031
53751W        W54615  14.257  14.634   9.666  0.0273 -0.1293 -0.2504
53752W        W54616   3.821  16.423  16.524 -0.0954  0.1361  0.0466
53753W        W54617  13.594  27.853  21.725  0.6802  0.2478 -0.1437
53754W        W54618   8.893  24.808  15.433  0.0954 -0.0912 -0.0288
53755W        W54619   8.521   1.634  15.126  0.5366  0.2633  0.1718
53756W        W54620  10.996  25.863   0.522 -0.3278 -0.0134  0.0345
53757W        W54621  10.520  15.987   3.070 -0.2090 -0.0685 -0.0657
53758W        W54622  12.147  24.416   7.152  0.0239  0.1377  0.0016
53759W        W54623  16.366  15.156  14.282  0.0678 -0.1103 -0.0208
53760W        W54624   8.546  24.766   9.926 -0.1956 -0.0049 -0.1010
53761W        W54625   1.789  14.434   3.123 -0.0090  0.2197  0.1364
53762W        W54626  12.116  11.556  19.332 -0.0213 -0.0409  0.2117
53763W        W54627  17.237  12.889   2.544 -0.2357 -0.2371  0.0783
53764W        W54628  27.098   7.104  15.649 -0.0801  0.0167 -0.5018
53765W        W54629   7.021   4.441   4.967 -0.2049 -0.1854 -0.1363
53766W        W54630  26.761   7.443  24.342 -0.0190 -0.0520 -0.0933
53767W        W54631  16.740   2.080  15.576  0.0726  0.0829 -0.2948
53768W        W54632  11.711  14.312   1.160 -0.2028 -0.4612  0.0124
53769W        W54633   3.187   8.799  19.507 -0.0502  0.0427  0.0701
53770W        W54634  16.027  15.377  26.401 -0.3082  0.2800 -0.2367
53771W        W54635   1.233  21.065  19.942 -0.1120  0.1757 -0.0069
53772W        W54636  15.800   0.196  22.114  0.0750  0.1039 -0.0330
53773W        W54637   5.847   1.826  19.441  0.0321  0.0031 -0.0571
53774W        W54638  24.900   4.563   3.952 -0.2371  0.3615  0.2464
53775W        W54639   6.244  19.691  15.935  0.2612  0.2009  0.0100
53776W        W54640   9.412  20.413  21.432 -0.1239 -0.1089 -0.0483
53777W        W54641  17.743  26.140  21.750  0.1626  0.0895  0.0819
53778W        W54642   4.519  11.363  16.483 -0.1316 -0.1766  0.1065
53779W        W54643   0.549  26.922  22.391  0.2636  0.1787 -0.3033
53780W        W54644   7.767   4.163   6.817  0.4334 -0.2705 -0.0979
53781W        W54645   3.316   1.101  25.401 -0.2560 -0.0587  0.2733
53782W        W54646   9.740  13.018  11.014  0.2039  0.1240 -0.0324
53783W        W54647   4.494  10.362  22.707 -0.0175  0.1333  0.0771
53784W        W54648   7.743  28.568  19.264  0.3478 -0.1078 -0.1104
53785W        W54649   0.761  27.629  16.156 -0.0603  0.3291 -0.2009
53786W        W54650   0.685  21.038  19.947 -0.2404 -0.0642 -0.3373
53787W        W54651  16.998  28.136  24.526 -0.0638  0.0671  0.4229
53788W        W54652  19.023   5.033   4.628  0.0520 -0.0067 -0.0403
53789W        W54653  29.113  17.689  16.198  0.0065  0.1583  0.0498
53790W        W54654  26.186  26.956   5.897 -0.1294  0.0854  0.0034
53791W        W54655   3.894  24.103   0.872 -0.2322  0.0328 -0.2559
53792W        W54656  27.995   1.462  19.752 -0.3115 -0.1503  0.1928
53793W        W54657  22.570  29.071  13.719  0.0920 -0.2412  0.2154
53794W        W54658  10.499   6.223  12.974  0.0336 -0.0692  0.0372
53795W        W54659   1.749   1.642  25.709  0.0197  0.3432  0.1844
53796W        W54660  24.193  20.394   1.003  0.0324  0.2269  0.1592
53797W        W54661   3.608  20.703  20.156 -0.1120  0.1796  0.2783
53798W        W54662   1.544  16.889  25.629 -0.0706 -0.1723  0.2047
53799W        W54663   5.074  29.010  26.138 -0.1079 -0.3297 -0.3121
53800W        W54664   3.217   2.312  22.096 -0.0320 -0.1038  0.0644
53801W        W54665  16.853  10.276  21.612 -0.0496 -0.2963  0.0254
53802W        W54666   5.919  14.415  23.858  0.0380  0.2978  0.1868
53803W        W54667   9.535   0.012  21.379 -0.1910  0.3131 -0.1780
53804W        W54668   7.662  14.427  27.083  0.0818 -0.0246 -0.3747
53805W        W54669  21.043  11.499  17.337  0.1987 -0.1260 -0.0425
53806W        W54670  18.129   1.380   7.571  0.1598  0.5753  0.0062
53807W        W54671   1.114  20.525  24.191 -0.0667  0.1898  0.2115
53808W        W54672  21.899  13.705  17.128 -0.0911 -0.2257 -0.3971
53809W        W54673  13.102  21.265  21.169 -0.0324 -0.1262  0.1712
53810W        W54674  12.553   5.744   6.835  0.2395  0.2732 -0.0581
53811W        W54675   4.350   4.016  17.787  0.3119 -0.3500 -0.1915
53812W        W54676  10.706  12.838  12.137 -0.1063  0.1890 -0.1938
53813W        W54677   2.452  24.066  28.711  0.0315 -0.0562  0.0837
53814W        W54678   2.268  28.976  23.239  0.0029  0.2061  0.1299
53815W        W54679  22.246  23.116   5.294  0.2531 -0.0288 -0.4165
53816W        W54680  17.254   8.094   0.964 -0.3603 -0.0372  0.1636
53817W        W54681   4.041   1.761  23.708  0.3166 -0.0564 -0.1137
53818W        W54682  20.279  15.256   6.436 -0.0746  0.0657  0.2906
53819W        W54683  27.442   8.412   2.238  0.2342 -0.3253  0.1342
53820W        W54684  23.102  28.282  10.921  0.3261  0.1078  0.0820
53821W        W54685  16.738  15.207  21.240 -0.1720  0.0090  0.2984
53822W        W54686   8.482   2.546  28.866 -0.4300 -0.1563 -0.0938
53823W        W54687  10.958   3.101  27.845  0.1462 -0.3286  0.1113
53824W        W54688  27.154  28.621  13.696  0.0203 -0.0329 -0.1050
53825W        W54689  20.548  13.948  24.987  0.3538  0.1802  0.1042
53826W        W54690  10.612  11.130  27.964  0.0755  0.2859  0.2168
53827W        W54691  21.799  18.851  17.081 -0.0569 -0.3013 -0.0611
53828W        W54692  10.284  13.060  22.406  0.1398  0.0802 -0.1730
53829W        W54693  19.161   6.293  18.206 -0.3373 -0.4624 -0.1170
53830W        W54694  14.830   3.894  24.651  0.1714  0.2070 -0.2206
53831W        W54695   2.983  18.200   2.201 -0.0637  0.0971 -0.1513
53832W        W54696  26.200   9.964  19.407  0.1169 -0.4099 -0.0496
53833W        W54697   5.355   0.122  22.808 -0.0435 -0.1338  0.1029
53834W        W54698  21.705   9.315   0.144 -0.0105 -0.1502  0.0886
53835W        W54699  17.693   3.189  29.021  0.0164  0.4334 -0.3110
53836W        W54700   7.579  28.243  13.046 -0.0126 -0.1313  0.2258
53837W        W54701  15.624  12.453  23.237  0.1639 -0.1447 -0.1726
53838W        W54702  15.026   3.477  24.372 -0.1573  0.1418  0.0690
53839W        W54703  23.284  17.536  14.350  0.1708 -0.0712 -0.0427
53840W        W54704   8.470   0.602   9.127 -0.0324 -0.2810 -0.2698
53841W        W54705   6.597  10.380  24.899 -0.1095  0.1238 -0.2764
53842W        W54706   9.927  16.141   9.058  0.0782 -0.0559 -0.2266
53843W        W54707  12.972  25.972  25.746 -0.1251 -0.1274  0.0636
53844W        W54708  21.999   0.374  20.218  0.0827 -0.1263 -0.0843
53845W        W54709  19.160   7.825  23.386  0.0566 -0.0725 -0.3356
53846W        W54710   0.509  17.999  11.892  0.1260  0.1364 -0.3239
53847W        W54711  16.248  27.134  16.676 -0.1879  0.2537  0.1400
53848W        W54712  10.455  12.814  14.095 -0.0916 -0.2801 -0.0050
53849W        W54713  21.614  22.080  18.833 -0.1381 -0.0383  0.2173
53850W        W54714  17.577  23.864   0.625  0.0991 -0.1046  0.0290
53851W        W54715   4.832  19.857  23.717 -0.0268 -0.2197  0.0523
53852W        W54716  16.571   6.561  17.305  0.2246 -0.1351  0.0210
53853W        W54717  14.600  11.443  23.136 -0.0656 -0.1201  0.0223
53854W        W54718  27.308   8.510  17.901 -0.0471 -0.0070 -0.0226
53855W        W54719  16.493  12.734  27.936 -0.1209  0.3912 -0.0067
53856W        W54720   5.575  26.683   5.683  0.2904 -0.1125 -0.1306
53857W        W54721  10.623  23.579  20.629  0.2010  0.0928 -0.0066
53858W        W54722  17.935  11.162  23.133 -0.0747 -0.4611 -0.0674
53859W        W54723   1.432  27.604  18.448  0.1416 -0.0369 -0.0807
53860W        W54724  27.262  24.095  15.787 -0.0292 -0.1492  0.0939
53861W        W54725  17.252   0.017  22.635  0.0189 -0.0845  0.3428
53862W        W54726   6.000  28.229  24.934  0.1444 -0.1965  0.1004
53863W        W54727  19.647  21.541   7.112  0.1906 -0.1058 -0.1362
53864W        W54728   4.076   3.719  27.952 -0.1292 -0.2101 -0.2593
53865W        W54729   7.060  21.700   4.859  0.0328  0.1947 -0.1740
53866W        W54730  28.207   5.739   9.284 -0.1852  0.2250 -0.0410
53867W        W54731  11.073   8.639  27.302 -0.0779  0.2754  0.0925
53868W        W54732   8.187   8.030  18.524 -0.0021  0.0307 -0.0632
53869W        W54733   4.959   4.005  24.824 -0.4806  0.2579 -0.0017
53870W        W54734  11.767   4.461   8.664 -0.0528  0.2791 -0.0959
53871W        W54735  13.048  25.029  26.266  0.0249 -0.2817  0.0963
53872W        W54736   0.569  27.377   2.668  0.2376  0.2655 -0.0758
53873W        W54737   6.832  10.867  15.951  0.1197 -0.4043 -0.0680
53874W        W54738  11.440  28.397  11.818 -0.1929  0.1923 -0.2025
53875W        W54739   2.639  28.681  21.808 -0.3720 -0.1123  0.0532
53876W        W54740   6.615  15.111  22.998 -0.0400 -0.2527  0.0042
53877W        W54741  28.902  16.226   5.201 -0.2230 -0.0960 -0.0960
53878W        W54742  13.297  10.067  17.513 -0.0913 -0.0397 -0.2449
53879W        W54743   2.846  22.473   1.099  0.1487  0.2208 -0.0129
53880W        W54744  16.769  23.847   6.505  0.0991 -0.0728 -0.0673
53881W        W54745   5.293  12.645  12.396 -0.0552 -0.1627  0.1259
53882W        W54746  24.338  18.645   2.397  0.0147 -0.0550 -0.0889
53883W        W54747  17.355  24.463  13.273 -0.1097  0.1860  0.0122
53884W        W54748   1.585  27.797   9.927  0.2697 -0.0740 -0.1897
53885W        W54749  13.639   0.312   9.164 -0.3066 -0.1911  0.1809
53886W        W54750  27.971  26.048  12.404  0.2189  0.2386 -0.1902
53887W        W54751  12.013  19.955  26.419 -0.2551  0.0749 -0.3524
53888W        W54752  24.979  13.241  21.377  0.1185  0.2126 -0.4797
53889W        W54753  26.057  23.450  22.438  0.1632  0.0896  0.2483
53890W        W54754  25.913  28.263  28.884 -0.0740  0.0542 -0.1185
53891W        W54755   4.884   4.772  27.846  0.0382  0.1701 -0.1538
53892W        W54756   7.937  21.213  28.053  0.2287  0.0052 -0.1955
53893W        W54757  12.998  11.090  25.668 -0.2263  0.2810 -0.0912
53894W        W54758   6.942  27.949  19.718  0.2017 -0.4086 -0.0158
53895W        W54759  18.022  25.922  19.362 -0.0236  0.1762  0.0015
53896W        W54760  13.689   9.552  15.042  0.1031 -0.0080  0.1284
53897W        W54761  15.034  17.186  19.116 -0.0391  0.0698 -0.0931
53898W        W54762  28.874  26.288   0.232 -0.2824  0.2012 -0.0187
53899W        W54763  26.746  13.671   5.711 -0.0362  0.0525 -0.0221
53900W        W54764  20.905  25.941  18.822 -0.2358  0.1605 -0.1261
53901W        W54765  19.157   3.329  14.536 -0.0896 -0.0096  0.1357
53902W        W54766  20.467  18.347  12.130 -0.0126 -0.2183  0.0021
53903W        W54767  21.186   5.240  20.324 -0.1240 -0.0337 -0.3106
53904W        W54768  26.405  15.268   9.704  0.1129  0.0308 -0.0210
53905W        W54769  12.325  28.042  12.706  0.0096 -0.0691 -0.1532
53906W        W54770  10.535   4.657   6.579  0.0385 -0.1349 -0.1922
53907W        W54771  24.098  19.737  24.660  0.1656  0.1612 -0.0592
53908W        W54772   7.542  20.417  17.673 -0.0095  0.1019 -0.0540
53909W        W54773   6.629  21.710  20.573  0.0141  0.0010  0.1048
53910W        W54774   4.726   6.498   0.977  0.0058  0.1286  0.0614
53911W        W54775   6.843   7.645   0.136 -0.2641 -0.2138  0.2851
53912W        W54776   9.386  13.192  16.420 -0.0036  0.1026  0.1235
53913W        W54777  22.063  23.441   2.207 -0.1448 -0.1132 -0.2348
53914W        W54778   5.262   8.193  16.698 -0.1562 -0.2468  0.2833
53915W        W54779  27.494  16.775  26.287  0.0415 -0.5057  0.1445
53916W        W54780  10.144  10.165  16.850  0.0829  0.2973  0.0848
53917W        W54781  27.339   1.525   4.220 -0.0231 -0.1259  0.0095
53918W        W54782   1.232   5.001  23.415 -0.3014 -0.0648 -0.1054
53919W        W54783  22.819  23.497   2.876 -0.0191 -0.1347 -0.0560
53920W        W54784  18.935  16.712  16.156  0.2328 -0.1571 -0.0268
53921W        W54785  24.148  24.469   8.502 -0.0573 -0.3013 -0.0735
53922W        W54786  25.748  17.613   6.025  0.3195  0.1069 -0.1086
53923W        W54787   3.570   6.325  21.380 -0.1680  0.1035  0.1305
53924W        W54788  28.790   2.227  16.857 -0.3610 -0.2006  0.0981
53925W        W54789  26.724  18.885   9.358  0.3237 -0.2238 -0.0641
53926W        W54790  12.551   4.988  28.942  0.0705 -0.3169  0.1112
53927W        W54791   5.558   0.587  16.245 -0.1074 -0.0840 -0.1398
53928W        W54792  16.538   9.042   8.534  0.0899 -0.1599 -0.1234
53929W        W54793  12.799  10.269   0.033  0.0497  0.0216 -0.2695
53930W        W54794  16.741   1.503  16.041 -0.0522  0.0075 -0.0020
53931W        W54795   7.837   9.202  26.359  0.1254 -0.2810  0.0436
53932W        W54796  19.041   6.161  24.304  0.0288 -0.0093  0.0662
53933W        W54797   6.730   4.555   9.359  0.2251  0.1181  0.0040
53934W        W54798  12.450   6.072   9.367 -0.2628  0.1188 -0.2525
53935W        W54799  15.426  24.955  23.767  0.0201 -0.2682  0.0072
53936W        W54800   1.774   7.035  21.139  0.0960  0.4116 -0.1562
53937W        W54801  14.376  24.008  16.154  0.3178  0.1963 -0.0346
53938W        W54802  17.044  26.152   0.880  0.1113 -0.2496  0.0455
53939W        W54803   6.438  22.096  15.079 -0.1540  0.1124 -0.1543
53940W        W54804   8.287  18.014  16.668 -0.0129  0.2215 -0.1137
53941W        W54805  24.367   4.832  20.883 -0.0075 -0.0883 -0.1925
53942W        W54806   7.050   8.960  13.102 -0.1630  0.1428  0.1458
53943W        W54807   9.641   9.234  10.462  0.1797 -0.0118  0.2163
53944W        W54808  26.260  27.359  21.954 -0.1299 -0.3423 -0.0275
53945W        W54809  26.703   1.244  13.029  0.1430  0.1488  0.2917
53946W        W54810   7.879   2.517  25.755  0.0447 -0.2839  0.1843
53947W        W54811  14.957  10.570  19.919  0.2874 -0.1025 -0.0558
53948W        W54812   0.674  10.665   0.701  0.1516  0.1309  0.0306
53949W        W54813  27.823  21.172   5.872  0.1090 -0.1975  0.3364
53950W        W54814   9.896  23.349  18.352  0.5120 -0.2263  0.1549
53951W        W54815  12.409  17.189  20.006  0.0216 -0.0164 -0.1723
53952W        W54816  25.886   2.690   4.704 -0.0789  0.0933  0.2579
53953W        W54817  22.836   8.285  28.003 -0.1061  0.1916 -0.0178
53954W        W54818  23.832  26.062   4.279 -0.1952 -0.1308  0.1135
53955W        W54819  28.492  24.511  22.015 -0.0834  0.0326 -0.1262
53956W        W54820   8.872  11.436  17.012 -0.4767 -0.0223 -0.0600
53957W        W54821  12.238   7.512  15.804 -0.0652  0.0079  0.0952
53958W        W54822  12.725  27.711  12.729 -0.1204 -0.2306 -0.1148
53959W        W54823   2.378   1.478  20.505  0.0142 -0.1437  0.2470
53960W        W54824  15.546   3.337  24.675  0.1621  0.0727 -0.0217
53961W        W54825   8.387  29.046  15.336 -0.1296  0.2504 -0.1153
53962W        W54826   7.690   3.281  23.157 -0.1232  0.0025 -0.0511
53963W        W54827  13.197  15.845   2.063 -0.0226 -0.0017 -0.0241
53964W        W54828  19.819   8.927  18.772 -0.2113  0.3240 -0.4769
53965W        W54829  17.287   3.553  26.016 -0.3709 -0.0348  0.0841
53966W        W54830  26.644   3.190   3.316  0.0824  0.2055 -0.0267
53967W        W54831  12.571  28.826   3.998  0.1216 -0.2389  0.1500
53968W        W54832   1.723  28.052  24.667 -0.0387 -0.2591  0.0438
53969W        W54833  27.225  18.395  14.403 -0.1133  0.1782 -0.1118
53970W        W54834  24.656   3.394  27.103  0.2484 -0.4230  0.1121
53971W        W54835  12.003   6.991   9.695 -0.0219 -0.0539  0.3550
53972W        W54836  18.152  20.479   4.357 -0.0109  0.0196  0.2855
53973W        W54837   4.436  25.007  13.231  0.1608 -0.2818  0.0627
53974W        W54838  22.113   8.173  28.764  0.1290  0.0476 -0.3174
53975W        W54839  25.414   0.931   1.225 -0.0730 -0.4402 -0.2396
53976W        W54840   6.873  12.120   0.933  0.0329  0.0655  0.1359
53977W        W54841   3.300  16.642  21.798  0.3653 -0.1078  0.0264
53978W        W54842  15.798   1.284  19.804 -0.1682 -0.0994 -0.0663
53979W        W54843   5.543  18.090  19.639 -0.0194 -0.1100 -0.0590
53980W        W54844   0.331   2.567  10.605  0.0007 -0.0425  0.2176
53981W        W54845  16.601  16.899   4.108  0.1226 -0.0041  0.2164
53982W        W54846   4.604  21.246  17.496  0.1792 -0.1838 -0.0624
53983W        W54847   1.214  21.296  25.479 -0.1890 -0.0150 -0.0208
53984W        W54848   3.481   0.437  21.087 -0.2378 -0.0862 -0.1075
53985W        W54849   9.794  28.241   5.585 -0.0526 -0.4695 -0.0325
53986W        W54850   3.389   7.589  14.866  0.0709 -0.1167 -0.2010
53987W        W54851  13.308  21.034  13.081  0.1652 -0.1448 -0.1100
53988W        W54852  18.082  16.919  18.010  0.0686 -0.5366  0.2858
53989W        W54853  17.838  23.314  24.065  0.0004  0.2686 -0.0203
53990W        W54854  19.623   2.410   9.249  0.2961  0.2352 -0.2229
53991W        W54855  21.315   0.292   5.359 -0.0760  0.1009  0.0288
53992W        W54856   5.805   3.953  16.952 -0.2386  0.1774  0.0317
53993W        W54857  16.446  23.214  13.714 -0.2120 -0.0775  0.0716
53994W        W54858  20.226  11.848  26.755 -0.1186 -0.1314 -0.0892
53995W        W54859   8.154  23.470   9.206 -0.0250 -0.1049  0.1711
53996W        W54860  14.842  11.069  17.421  0.1000 -0.2281  0.3341
53997W        W54861  21.210  15.693  24.284 -0.2522 -0.0312  0.1002
53998W        W54862  28.791  10.340  23.785  0.2798 -0.1974 -0.0269
53999W        W54863   6.581  27.982   0.555 -0.2423  0.1249 -0.1950
54000W        W54864   8.938  26.142  18.559  0.3465 -0.1940  0.0169
54001W        W54865  12.580  16.618  13.497  0.2339 -0.2065 -0.1318
54002W        W54866  12.648  18.306  23.296 -0.1713 -0.1289 -0.0351
54003W        W54867  13.187   8.901  16.942 -0.0361  0.0190 -0.0800
54004W        W54868  22.663   5.475  24.302 -0.2250  0.1207  0.0595
54005W        W54869  14.271   9.448   3.096 -0.2220 -0.3098 -0.1467
54006W        W54870  28.203   1.267  29.013 -0.1965 -0.1551 -0.4212
54007W        W54871  21.681  13.776  21.416  0.1838  0.0453  0.0005
54008W        W54872   4.656  28.331  19.432  0.1147 -0.2617  0.0399
54009W        W54873   1.471  19.743   2.751 -0.0729 -0.0552 -0.1099
54010W        W54874  22.370  15.880  12.409  0.0614 -0.1611  0.0640
54011W        W54875   6.999  18.808  18.076 -0.3040  0.1133  0.0433
54012W        W54876  10.071  20.815   6.972  0.1451 -0.3970  0.3412
54013W        W54877   6.330   6.365  24.165  0.0439  0.2015 -0.1735
54014W        W54878   7.422  23.058  12.145  0.2016 -0.1709  0.2605
54015W        W54879   7.649   3.586  26.561  0.0549  0.0441 -0.3489
54016W        W54880   6.430   2.732  28.627 -0.0558 -0.3954  0.3083
54017W        W54881  18.127  26.171  12.758  0.0813 -0.0645  0.1633
54018W        W54882  10.814   7.993  28.036  0.1077 -0.1112 -0.2966
54019W        W54883   5.206   7.580  25.753 -0.1248 -0.4170 -0.0876
54020W        W54884   8.705  15.261   3.070 -0.0402  0.0527 -0.1430
54021W        W54885   8.239  10.219  26.126  0.1669  0.0681 -0.2269
54022W        W54886  17.035   5.751  22.717  0.2433 -0.1282 -0.1404
54023W        W54887  27.335  24.491  17.019 -0.2876 -0.0250  0.1599
54024W        W54888   0.709   9.139   0.733  0.0171  0.0693 -0.0700
54025W        W54889  15.580   3.863  29.044  0.0835 -0.0387  0.1106
54026W        W54890  14.922  24.915   1.017 -0.1438  0.2858  0.0318
54027W        W54891   8.411  19.546  21.791 -0.1814 -0.3012 -0.0588
54028W        W54892   2.346  19.883  11.542 -0.0227 -0.2597  0.1721
54029W        W54893  11.103  12.945  19.341 -0.0047  0.1585 -0.0797
54030W        W54894   9.807   8.434  12.690 -0.1510  0.2692  0.0668
54031W        W54895   6.681  16.218  17.979 -0.0376 -0.2574  0.3592
54032W        W54896  17.907   6.429  10.288  0.1133 -0.3741 -0.1131
54033W        W54897  11.179  26.862  19.035 -0.1398 -0.0163  0.0652
54034W        W54898  28.120  11.399   1.154 -0.3515 -0.3060  0.0663
54035W        W54899  27.246  18.689  22.472 -0.0119  0.2068 -0.2481
54036W        W54900  25.613   0.868  24.974  0.0558  0.1119  0.1440
54037W        W54901  26.789   5.652  13.438  0.1076  0.1308 -0.0749
54038W        W54902   4.074  12.237  26.343  0.2702 -0.2966  0.0589
54039W        W54903   3.518  23.804   7.167 -0.0730 -0.1458 -0.0682
54040W        W54904  13.989   0.243  12.716  0.0679  0.1794  0.0291
54041W        W54905  19.944  26.573  26.310 -0.1902  0.2551 -0.0462
54042W        W54906   2.214   1.720  25.288  0.0982  0.0299 -0.0740
54043W        W54907   4.580  22.764   4.672 -0.2199 -0.2734 -0.3193
54044W        W54908  12.848  11.192  25.147 -0.0069 -0.0283 -0.3371
54045W        W54909   3.107  11.724   7.015  0.2979  0.0983 -0.0434
54046W        W54910  23.724   2.879  20.247  0.1272 -0.0345 -0.1502
54047W        W54911  28.888   1.815  21.296  0.0567  0.1730 -0.0539
54048W        W54912  20.120   6.615  21.090  0.1720  0.1497 -0.0915
54049W        W54913  13.305   7.742  28.802 -0.3737 -0.3063  0.2364
54050W        W54914   8.730   7.587  26.256 -0.0006  0.0612  0.2073
54051W        W54915  17.338  28.166  23.713 -0.3458 -0.3149  0.1423
54052W        W54916  26.106  12.223  21.519  0.1830 -0.1939  0.0138
54053W        W54917   6.349  17.305  21.039 -0.3548 -0.0376 -0.2741
54054W        W54918   6.160  20.913  17.146  0.0144 -0.3966 -0.0438
54055W        W54919  20.181  24.043  27.624  0.0622 -0.3090 -0.1622
54056W        W54920  15.676  25.051  16.881  0.4109 -0.1268 -0.1803
54057W        W54921  23.982  21.251  21.846  0.0435  0.1994  0.0129
54058W        W54922  14.687   4.545  23.451  0.2582 -0.2419  0.4740
54059W        W54923   3.908   5.191   0.723 -0.0128 -0.1057 -0.0186
54060W        W54924   9.889   8.700  18.392 -0.2238  0.2574  0.3872
54061W        W54925  12.474  23.013  18.479 -0.0085  0.1569 -0.0343
54062W        W54926  13.702  13.856  17.356 -0.1753  0.0350 -0.0194
54063W        W54927  25.974   8.898   7.380  0.0036 -0.3123 -0.1358
54064W        W54928  11.872   0.014  14.722 -0.2756 -0.0659  0.2395
54065W        W54929   9.295   4.626  26.162 -0.3376  0.2567  0.0383
54066W        W54930  13.790   3.404  23.379  0.2014  0.0114  0.2532
54067W        W54931  17.653   4.626  11.360  0.1384  0.1868  0.2967
54068W        W54932  20.310   2.573  16.203 -0.1128 -0.1669 -0.0343
54069W        W54933  14.504  12.407  17.561  0.0462  0.0285 -0.2942
54070W        W54934   4.474   3.673  20.240  0.1493  0.5325 -0.1427
54071W        W54935  16.360  25.205   8.483 -0.2238  0.0174  0.0249
54072W        W54936  25.987   2.737  21.064 -0.0737  0.4217  0.2566
54073W        W54937   4.067  28.343   3.128 -0.1556  0.1450 -0.0705
54074W        W54938  20.132   0.157  17.088 -0.2924  0.2214  0.2770
54075W        W54939  22.861  16.149  19.645  0.1967 -0.2224  0.2927
54076W        W54940  15.875  17.348  19.299 -0.0216  0.1353 -0.1024
54077W        W54941  26.603  26.381   1.699  0.0069  0.1631 -0.2175
54078W        W54942  14.602  19.053  14.942 -0.0903 -0.1741  0.2187
54079W        W54943   2.065   8.300   9.198  0.4608  0.1885  0.0094
54080W        W54944   6.175  12.192   1.612 -0.2717  0.3734 -0.1285
54081W        W54945   9.241  23.251  20.889  0.2093 -0.1007 -0.2977
54082W        W54946  12.569  11.454  19.364  0.0019  0.2453  0.0736
54083W        W54947   7.056  14.480   2.636  0.1469  0.0758 -0.1267
54084W        W54948  12.261   6.619  23.791  0.2336  0.1852  0.3745
54085W        W54949  28.568   0.279  19.345  0.2716 -0.1351  0.0359
54086W        W54950  16.326  20.802  25.729  0.2178 -0.0975  0.3117
54087W        W54951  28.035   8.188   4.186 -0.0264  0.1605  0.0350
54088W        W54952  10.372  16.129   5.695  0.1120  0.1775  0.1641
54089W        W54953  21.854  26.137  15.704 -0.1572  0.0258 -0.1243
54090W        W54954  27.986  22.586   1.078  0.1909 -0.3232 -0.3126
54091W        W54955  16.063  24.835  28.814 -0.1140  0.3944  0.0045
54092W        W54956   4.209   4.964   9.583 -0.1403  0.3192 -0.0188
54093W        W54957   1.392  22.982  19.676 -0.0932 -0.0705  0.2044
54094W        W54958  22.073  28.632   8.138 -0.0055  0.0925 -0.2319
54095W        W54959  13.415  26.554   6.826 -0.3651  0.0286 -0.0127
54096W        W54960  16.104  25.611  17.164  0.3403  0.3523  0.1057
54097W        W54961  13.747   1.019  14.821 -0.1102 -0.2982  0.0445
54098W        W54962   7.929  17.433  19.214  0.0740  0.0278  0.1141
54099W        W54963  10.899   6.413  16.111  0.2709 -0.0728 -0.0614
54100W        W54964  25.194   5.154  18.776  0.2056 -0.3108  0.2829
54101W        W54965   9.408   2.130  13.441  0.0089 -0.0366  0.0690
54102W        W54966  29.012   1.353  11.563 -0.1466 -0.0845  0.0768
54103W        W54967   4.482  21.086  21.572 -0.0621 -0.1325 -0.1606
54104W        W54968   3.160  24.140  19.699  0.1400  0.0343 -0.0488
54105W        W54969   2.183   2.777  16.679  0.1679 -0.0463  0.1633
54106W        W54970   9.930   6.967  13.047 -0.2287  0.1382 -0.0825
54107W        W54971   5.422   9.776  13.292  0.1200 -0.1583 -0.0709
54108W        W54972   9.472   5.471  17.393  0.0698 -0.1408  0.0256
54109W        W54973  28.775  12.107  25.600  0.0768 -0.0295  0.1337
54110W        W54974   4.386  11.035  15.544 -0.0639 -0.1674 -0.3151
54111W        W54975  27.143  11.625  24.988 -0.2597 -0.3886  0.1793
54112W        W54976  15.705  27.839  24.837 -0.1072 -0.1854  0.0750
54113W        W54977  10.281  14.939  18.270 -0.0306 -0.2030  0.0186
54114W        W54978   7.458  26.960  21.425 -0.0615  0.1867  0.2631
54115W        W54979  10.988  25.671  15.309 -0.2000  0.1266  0.0417
54116W        W54980  14.314  21.261  13.459 -0.5054 -0.1234 -0.1603
54117W        W54981  27.683   1.067  23.673 -0.3294  0.0625 -0.1865
54118W        W54982  15.336  22.769  10.383  0.3088  0.2311 -0.2579
54119W        W54983   6.225   3.055   5.521 -0.1181  0.3617  0.1022
54120W        W54984  18.842  28.311   4.255 -0.2570 -0.0480  0.1907
54121W        W54985  18.237   5.281   5.171  0.1872 -0.0200  0.1151
54122W        W54986  19.705  27.490  25.156 -0.1785 -0.2454 -0.2331
54123W        W54987  27.834   6.878   5.097  0.2217  0.2677  0.2211
54124W        W54988  13.623  28.599  17.519  0.3632  0.3398 -0.1591
54125W        W54989   5.243  19.187  14.885 -0.0807  0.1470 -0.2090
54126W        W54990  16.046  21.046  17.915  0.3115 -0.1207  0.3688
54127W        W54991  15.596  15.739   5.755  0.0742  0.0510  0.1033
54128W        W54992   7.840  26.203  19.336 -0.2319  0.0265  0.0645
54129W        W54993  27.023  26.300  19.618 -0.1244 -0.1180 -0.0315
54130W        W54994  18.696  10.805  21.440 -0.0131  0.0419 -0.1134
54131W        W54995  16.038  16.606  15.704  0.0698 -0.2644  0.0694
54132W        W54996  26.008  12.853  20.149  0.0362 -0.2953 -0.0544
54133W        W54997  11.243  24.462  28.228 -0.0271  0.3289 -0.0149
54134W        W54998   4.832  14.304  22.267  0.2694  0.1456  0.1098
54135W        W54999   8.416   1.126  20.561  0.0859  0.0785 -0.0512
54136W        W55000   5.096  23.218  12.141  0.2641 -0.1725 -0.2025
54137W        W55001   5.313   7.342  28.424 -0.1129  0.3470  0.3095
54138W        W55002  24.590  28.854  27.112 -0.1505 -0.0296  0.2361
54139W        W55003  13.810  23.793   7.763 -0.1105  0.0271  0.0402
54140W        W55004   9.109  22.038  17.330 -0.2221 -0.0707  0.0669
54141W        W55005  10.633  12.971  26.864  0.0157  0.1056 -0.1362
54142W        W55006   8.003   3.778  18.199  0.0369  0.1628 -0.0750
54143W        W55007  28.337   8.420  20.407  0.4877  0.0840  0.0803
54144W        W55008  28.444  18.448  14.684 -0.0400  0.0850  0.0943
54145W        W55009  10.555  20.230  18.298  0.0873 -0.1143  0.1600
54146W        W55010   1.995   2.206   2.130  0.0390 -0.3004 -0.1639
54147W        W55011   3.228  27.435  20.479  0.2457 -0.0944 -0.1826
54148W        W55012  25.788  17.985  16.603 -0.1372  0.1715 -0.0937
54149W        W55013  25.600   0.648  12.035 -0.1535  0.2987  0.1247
54150W        W55014  14.077   9.710  25.063  0.2141 -0.2354  0.2791
54151W        W55015  19.463  27.986   2.389  0.0494 -0.1920 -0.0374
54152W        W55016   8.157  28.416   9.510  0.3646 -0.0930 -0.0467
54153W        W55017  26.786  26.219   7.079  0.0212 -0.0228 -0.0409
54154W        W55018   5.554  26.436   8.150  0.1303  0.0496 -0.2355
54155W        W55019  11.383  21.809  22.791  0.1045 -0.1545  0.1698
54156W        W55020  21.951  22.056   7.146  0.1966 -0.0500 -0.0390
54157W        W55021  10.534  21.207  27.170 -0.2090  0.2516  0.1894
54158W        W55022  21.625   3.807  12.602  0.0658  0.1401 -0.1901
54159W        W55023  23.997  11.492  26.639 -0.1459  0.1275  0.0178
54160W        W55024   7.709  19.558   7.081  0.2296  0.1062 -0.0535
54161W        W55025  17.273   6.975  14.399  0.1575  0.2035  0.1495
54162W        W55026   8.413  25.124  27.410  0.0743 -0.1524  0.1689
54163W        W55027  22.135  18.770   7.679 -0.1263  0.0525  0.3079
54164W        W55028  14.758   6.690  11.716 -0.0747  0.4129  0.2498
54165W        W55029   8.881   1.690  14.309  0.2326  0.1020 -0.1472
54166W        W55030   2.058   0.576  10.186 -0.1273  0.0614 -0.3530
54167W        W55031  24.568  14.180  12.294  0.2093 -0.3056 -0.1796
54168W        W55032   8.110   5.240  17.219 -0.1619 -0.1110 -0.4857
54169W        W55033  16.834  11.510  16.298  0.0167 -0.1596 -0.2002
54170W        W55034  11.155   6.681  28.705 -0.1744 -0.0944 -0.2473
54171W        W55035  28.594  27.258   0.158  0.2457  0.0550 -0.1247
54172W        W55036   7.955  16.891  16.289  0.1087  0.0089  0.1777
54173W        W55037  26.475  22.972   7.561  0.0522  0.1413  0.0855
54174W        W55038   9.285  14.771  29.031 -0.1714 -0.3140 -0.0174
54175W        W55039   7.878  26.762   6.060 -0.0237 -0.0317 -0.1464
54176W        W55040  25.171   5.332   0.543 -0.2013 -0.1823  0.0774
54177W        W55041  22.462  20.350  26.227  0.0078 -0.2259  0.1290
54178W        W55042  17.201   4.333  27.679  0.0502 -0.3863 -0.0661
54179W        W55043  23.139  19.852  15.391  0.2511 -0.1545 -0.1959
54180W        W55044   4.876  24.639  15.495  0.0083  0.4924  0.0858
54181W        W55045   0.571  12.938  22.752 -0.0930 -0.1489  0.0400
54182W        W55046  22.150  14.485  20.141  0.1653  0.2164 -0.2419
54183W        W55047  11.047   5.235   3.829  0.1660 -0.1293  0.2258
54184W        W55048  19.876   9.982   2.936 -0.0204 -0.1862 -0.1174
54185W        W55049   4.539  25.350  27.096 -0.0060 -0.1585 -0.0525
54186W        W55050   7.633  27.712   4.998 -0.4222  0.0033  0.2373
54187W        W55051  24.261   7.754  18.462  0.1480 -0.0623 -0.0536
54188W        W55052  25.657  11.012  24.171  0.0720 -0.1532 -0.1810
54189W        W55053   5.646  27.713  11.666  0.1905  0.2066  0.0296
54190W        W55054  16.546  24.152   7.796 -0.5523  0.2190  0.0617
54191W        W55055  13.318   0.866   5.801  0.5784 -0.0205  0.0790
54192W        W55056  11.559  11.282  24.781  0.0400 -0.3002 -0.3556
54193W        W55057  17.465  28.964  28.552  0.2570  0.4419  0.1593
54194W        W55058   7.637  24.138  14.755  0.0793  0.0636 -0.2857
54195W        W55059  19.855   4.965  28.630  0.1770 -0.0008 -0.1313
54196W        W55060   9.445   6.054  16.756  0.0807 -0.0968 -0.2560
54197W        W55061   8.217  24.652   1.706 -0.2385  0.5123 -0.0323
54198W        W55062  11.613  27.949   4.280  0.4300  0.2392 -0.3128
54199W        W55063  27.723   0.290   5.596  0.1514 -0.0004 -0.2477
54200W        W55064  21.354   5.200  27.743  0.0601 -0.0111 -0.2062
54201W        W55065   3.839   1.806  24.421 -0.2126  0.1535 -0.1890
54202W        W55066   6.531   5.742  17.777 -0.1425  0.1453  0.1171
54203W        W55067   6.935   1.991   2.973  0.2960  0.1371 -0.3339
54204W        W55068  10.136   2.155  22.731  0.1858  0.0154 -0.0314
54205W        W55069  13.707  25.119   6.990  0.2122 -0.0925 -0.1395
54206W        W55070  12.051  16.666  28.668 -0.2955  0.0216  0.2152
54207W        W55071  23.719   6.378  26.881  0.0411 -0.0272 -0.1029
54208W        W55072  16.164   6.437   2.106 -0.0907  0.0686  0.4433
54209W        W55073   3.512  13.588   2.509 -0.1028 -0.3347 -0.1768
54210W        W55074  28.958  28.248  22.689 -0.0295  0.0266 -0.2954
54211W        W55075   7.392   4.165   1.343 -0.0572  0.0283  0.2889
54212W        W55076   0.266   5.937   8.574 -0.4389  0.0161  0.1336
54213W        W55077   6.165   0.709  17.100  0.2126  0.0263  0.0763
54214W        W55078  28.597  26.802   7.602  0.0840  0.0747  0.3110
54215W        W55079   9.130  14.799  27.815 -0.0559 -0.0819  0.2689
54216W        W55080  24.009  13.255  28.087  0.0040 -0.2573  0.1835
54217W        W55081   7.567  14.078  22.181 -0.0502  0.0723 -0.0707
54218W        W55082   6.770  19.127  17.383  0.1175 -0.1610  0.1494
54219W        W55083   4.001  29.016  22.673 -0.0570  0.0866  0.0782
54220W        W55084   9.046  17.534  27.658  0.2648 -0.2919 -0.1872
54221W        W55085  20.750   5.287  20.039  0.1358 -0.2957 -0.0077
54222W        W55086   7.866  23.215   6.064 -0.1871  0.0852  0.1310
54223W        W55087  11.780   6.697  20.950 -0.1783 -0.2786  0.0319
54224W        W55088  14.217  11.936  20.801 -0.0432  0.1601  0.1472
54225W        W55089   5.657  15.385  10.314 -0.2236  0.0103  0.1447
54226W        W55090   5.353   2.642  16.735  0.0818  0.1314 -0.0862
54227W        W55091  24.339   4.211  28.885 -0.0509  0.1083 -0.1524
54228W        W55092   3.744   0.462  24.208 -0.1726 -0.0101 -0.0261
54229W        W55093   4.301  25.708  19.523 -0.2870  0.0939  0.1513
54230W        W55094   0.307   5.152   9.116  0.0613  0.1285 -0.0845
54231W        W55095   3.426  22.348   2.786 -0.2131 -0.0168 -0.1636
54232W        W55096  15.275   7.190   8.907  0.1090 -0.0324  0.2082
54233W        W55097  23.889  15.180  19.866 -0.2641 -0.0675 -0.1760
54234W        W55098  19.149  22.106   1.054 -0.0252  0.2204  0.1735
54235W        W55099  26.533   0.001   1.486  0.2571  0.0111 -0.0882
54236W        W55100   8.547   6.492   4.656  0.0324 -0.1004  0.1722
54237W        W55101  24.989   1.244  16.627 -0.0731 -0.0403  0.0643
54238W        W55102   0.894  19.563  24.699  0.0256  0.0385  0.2001
54239W        W55103  13.361  10.574  21.535  0.0545 -0.0382 -0.2442
54240W        W55104  13.096  27.973  21.005 -0.1993 -0.0367 -0.2330
54241W        W55105  17.569   1.039  24.996 -0.1991 -0.0893 -0.2200
54242W        W55106  13.221   7.594  27.232 -0.0746  0.1717  0.0827
54243W        W55107   5.449  12.269  21.620  0.0349 -0.5236  0.2482
54244W        W55108  21.792   6.230   6.628  0.4371  0.1691  0.0405
54245W        W55109  15.386  27.475   6.109  0.3205  0.0368 -0.1437
54246W        W55110  25.405  21.366  28.805  0.1023 -0.0731 -0.1643
54247W        W55111   8.467  11.231  18.010 -0.1157  0.0749 -0.2037
54248W        W55112  24.765   5.057  20.544 -0.0510 -0.0171 -0.0137
54249W        W55113  21.969   2.540  28.958  0.0046  0.1758 -0.1182
54250W        W55114  18.277   6.201  19.920 -0.0508  0.2943 -0.1538
54251W        W55115  11.812   4.155   3.403  0.0659 -0.1004  0.1159
54252W        W55116  21.571   5.457   0.872 -0.0881 -0.2942 -0.0805
54253W        W55117   3.999   5.160  28.960 -0.0253 -0.1208  0.1794
54254W        W55118  21.592  22.254  19.347  0.0115  0.0692 -0.2540
54255W        W55119  19.709  11.297   9.097 -0.1203 -0.1300  0.3867
54256W        W55120   5.003   9.264  19.354 -0.0398 -0.2016 -0.1716
54257W        W55121  21.047  10.159   1.274 -0.1102 -0.0738 -0.0311
54258W        W55122   9.458   1.238  28.535  0.0021 -0.0066 -0.0830
54259W        W55123   7.987  23.406  24.403  0.4111  0.3181 -0.0493
54260W        W55124   1.202  15.315  14.059  0.0330  0.0359 -0.2749
54261W        W55125  14.032   3.325  15.972  0.2640 -0.0942 -0.1106
54262W        W55126  17.448   8.297  25.706  0.1115  0.1213 -0.2120
54263W        W55127   8.821   8.508  28.342 -0.1423  0.1840  0.0965
54264W        W55128  11.057   2.858   5.315  0.2676 -0.0678 -0.1334
54265W        W55129  21.665   2.225  24.172  0.1308  0.0826 -0.0347
54266W        W55130  19.682  23.646  28.660 -0.0206 -0.0314 -0.6672
54267W        W55131   4.087   0.715   4.556  0.3188  0.2281  0.1268
54268W        W55132  25.022  15.439  13.121 -0.3495 -0.2823 -0.1259
54269W        W55133  19.725   1.514  21.460 -0.1555  0.1578  0.0010
54270W        W55134  10.441  23.768   3.269  0.0293 -0.0561  0.1838
54271W        W55135  16.359   2.501   4.944 -0.0178 -0.2642 -0.0466
54272W        W55136   3.170  14.784  11.827  0.0048  0.1219  0.3470
54273W        W55137  17.883   1.283   7.161 -0.0157  0.0298 -0.1124
54274W        W55138  13.276   4.351   5.663  0.0648 -0.0133  0.1183
54275W        W55139   7.405  26.962   7.294  0.1405  0.0693 -0.0847
54276W        W55140  14.522  11.850   3.131 -0.1267  0.2031  0.0122
54277W        W55141  13.999  20.501  22.019  0.1441  0.0854 -0.1780
54278W        W55142  11.307   2.767  18.764  0.1140 -0.1311  0.0725
54279W        W55143   1.645  19.240  25.622  0.3901  0.0270  0.3053
54280W        W55144  10.439  13.353  18.093 -0.5166  0.1352 -0.0696
54281W        W55145   4.098  16.534  24.102 -0.0089  0.2766  0.0499
54282W        W55146  27.035  11.002   8.798 -0.0677 -0.3337  0.4590
54283W        W55147  20.223  16.314  22.261 -0.0273 -0.0041  0.1465
54284W        W55148   2.789   8.620  24.443 -0.2918  0.0024  0.1825
54285W        W55149  13.400   3.759  14.781 -0.1469  0.3660  0.1436
54286W        W55150  23.058   2.401  25.454 -0.1564  0.0514 -0.0745
54287W        W55151  13.276  22.382  23.558  0.0691  0.2849  0.1834
54288W        W55152  26.355  22.912  26.535  0.0592 -0.2904  0.1456
54289W        W55153  14.934   8.895  12.956 -0.0823 -0.3515 -0.2527
54290W        W55154  19.154  15.544  17.874  0.0335 -0.2889 -0.1585
54291W        W55155  14.582   3.298   5.075 -0.1514 -0.0577 -0.0335
54292W        W55156   3.885   2.374  26.092 -0.3089  0.0216 -0.0693
54293W        W55157   5.923  11.770  23.739  0.2033 -0.1450 -0.0530
54294W        W55158  27.292   6.395  15.967 -0.1047  0.0241 -0.0862
54295W        W55159   0.882  15.969  28.252  0.0660  0.0805 -0.1285
54296W        W55160   6.039   6.359  25.552 -0.0128  0.0606 -0.5156
54297W        W55161   4.482  24.235  25.430  0.1307  0.0088 -0.0549
54298W        W55162   8.832  19.091  20.913  0.1461  0.1135  0.1040
54299W        W55163  19.891  20.047   6.836 -0.0660  0.2384  0.0051
54300W        W55164  22.873   2.849  14.018 -0.0292 -0.0630 -0.2009
54301W        W55165   2.871  17.276   6.162  0.0069  0.2815  0.1438
54302W        W55166   3.205  25.951  21.938 -0.2114  0.1163  0.1889
54303W        W55167   3.324  22.306  17.458  0.0382 -0.0388 -0.0680
54304W        W55168  27.905  12.438   5.751  0.0907  0.0763  0.0657
54305W        W55169  24.480  22.127  25.931  0.2518  0.1952 -0.1191
54306W        W55170  10.117   9.871  19.272 -0.1582 -0.3012 -0.4124
54307W        W55171   4.992  27.949   1.194  0.1280  0.0482 -0.1853
54308W        W55172  23.589   1.777  28.724 -0.2367 -0.1579  0.0277
54309W        W55173  23.649   1.932   4.047 -0.3399 -0.0679  0.1027
54310W        W55174  14.867   7.023   1.884 -0.0784  0.2326 -0.0973
54311W        W55175   6.748   7.344  12.518  0.1617  0.3359 -0.2203
54312W        W55176  12.284  15.741   9.763 -0.1328  0.2074 -0.0546
54313W        W55177   0.205  18.165  12.909 -0.2129 -0.1452 -0.0257
54314W        W55178  14.373  22.832  17.798  0.2300  0.1189  0.1732
54315W        W55179   1.576   2.734   9.735  0.3356 -0.0933  0.2342
54316W        W55180  27.265  21.380   2.014 -0.0217 -0.3196 -0.0490
54317W        W55181  25.066  23.379   1.058  0.2285 -0.1853 -0.2594
54318W        W55182  21.570   8.566   4.335 -0.1909 -0.1582 -0.0555
54319W        W55183   8.184  27.122  23.854  0.0320  0.1299  0.4622
54320W        W55184  24.890   0.826  12.748  0.0296  0.3763  0.1709
54321W        W55185  28.901  17.083  22.849 -0.0223  0.2824 -0.0268
54322W        W55186   5.432   6.277  22.598  0.0637  0.2824  0.0576
54323W        W55187   7.713  26.639  15.820 -0.1557 -0.0710 -0.3603
54324W        W55188  26.391   7.573  23.435 -0.0060  0.1427 -0.2521
54325W        W55189   3.194  16.720  18.993  0.0285 -0.0530  0.0334
54326W        W55190  15.339  17.494   1.417 -0.3054  0.3190 -0.2231
54327W        W55191  13.593   1.145   1.059 -0.0444 -0.1044  0.4511
54328W        W55192  17.893  27.736  25.846  0.0321 -0.0879  0.0473
54329W        W55193   5.069  27.307   1.220 -0.2797  0.0848 -0.0609
54330W        W55194   0.686  20.525  27.996  0.0612 -0.0924  0.0605
54331W        W55195  11.620   5.880  25.533 -0.1827 -0.1026 -0.0058
54332W        W55196  15.673  28.342  11.797 -0.3682  0.0307 -0.1861
54333W        W55197  10.277  16.916   9.121 -0.1846 -0.1537 -0.0604
54334W        W55198   2.627   2.094   7.628 -0.1499 -0.2569  0.1430
54335W        W55199   7.425  14.095   7.582  0.2507  0.3532  0.0051
54336W        W55200  23.793  28.010  23.166 -0.2435 -0.0777 -0.3824
54337W        W55201  25.651   3.183  10.795 -0.0811 -0.2418 -0.0757
54338W        W55202  11.029   3.189  16.715 -0.0959  0.2531  0.2599
54339W        W55203  10.888  13.401   5.203  0.2075  0.0064  0.1014
54340W        W55204   5.132  12.447   3.260  0.2976  0.3471  0.2057
54341W        W55205   8.740   0.290   3.184 -0.0932  0.0754  0.0941
54342W        W55206   8.836  22.841  10.164 -0.1086 -0.2329 -0.3566
54343W        W55207  25.883   0.121  29.035 -0.0366 -0.0177 -0.2429
54344W        W55208  10.954  28.362   7.145 -0.2315 -0.1330 -0.0468
54345W        W55209   0.201  17.129  14.194  0.0467 -0.0288  0.0554
54346W        W55210  17.955  10.854  13.506 -0.1467  0.0936  0.3549
54347W        W55211  14.935  23.574   4.282 -0.0661 -0.1602  0.1362
54348W        W55212   3.662  14.370   5.774  0.1319  0.1827 -0.1064
54349W        W55213  24.964   6.789  10.539  0.2033 -0.2162 -0.0589
54350W        W55214  10.284  20.336   9.933 -0.0596  0.1268 -0.0867
54351W        W55215  24.468  22.753   5.281  0.2532  0.1388  0.2922
54352W        W55216   8.393   1.636   3.112 -0.1177 -0.3071  0.1166
54353W        W55217  15.391  11.709  26.979 -0.0754  0.0073 -0.2353
54354W        W55218   4.185   1.983  21.457 -0.1320  0.3563 -0.1691
54355W        W55219  13.026  19.423   4.023 -0.0703  0.0669  0.1789
54356W        W55220  20.912  24.650  18.241  0.0118  0.0673  0.2312
54357W        W55221  14.735   2.568   0.854  0.4274  0.1820 -0.0988
54358W        W55222  13.873   0.413   3.034 -0.0815 -0.1056  0.0297
54359W        W55223  11.390   2.707  15.734  0.5330 -0.1466  0.2303
54360W        W55224   4.266   6.256  10.876 -0.0204 -0.0301 -0.1582
54361W        W55225   1.349  28.400   9.503 -0.2078  0.0357 -0.0920
54362W        W55226   5.989   9.330   3.615  0.2588  0.0984  0.3044
54363W        W55227   9.706  10.015  21.776  0.0952  0.1340  0.0448
54364W        W55228  21.384   2.960   7.102  0.4111  0.0950  0.4320
54365W        W55229   7.276  18.620   2.623 -0.1418  0.0336 -0.3036
54366W        W55230   9.807  24.728  21.875 -0.0546  0.0923 -0.0075
54367W        W55231  18.655  11.516   6.227  0.3259  0.1371 -0.0432
54368W        W55232  19.535   4.910  26.581 -0.1117  0.1288  0.4093
54369W        W55233  12.899  18.413   3.764 -0.0783 -0.1051  0.1731
54370W        W55234  10.961  11.053   6.509 -0.2284 -0.1320  0.0339
54371W        W55235  12.688   3.491  13.432 -0.0722 -0.0763  0.0351
54372W        W55236  18.630  24.113  29.047 -0.0039 -0.1160 -0.3277
54373W        W55237  14.077  22.560  26.362 -0.1767 -0.2426  0.1781
54374W        W55238  18.533   8.333   7.214 -0.2375 -0.0332 -0.0094
54375W        W55239  23.000  17.859  15.802  0.2182  0.0506  0.2751
54376W        W55240  24.603  10.783   2.443 -0.3824 -0.3008  0.0714
54377W        W55241   7.582  27.327   1.607  0.2597 -0.2419  0.0742
54378W        W55242   1.097  25.954   7.758 -0.0369 -0.0333  0.0568
54379W        W55243  29.026  15.291  18.218 -0.0436  0.0699  0.1068
54380W        W55244  24.030  17.849  26.963  0.0622 -0.1809  0.3711
54381W        W55245  13.673  25.799   3.290  0.1378 -0.2144 -0.0879
54382W        W55246   7.793   0.080   1.537 -0.0065  0.0322 -0.1114
54383W        W55247  20.768  25.460   6.181  0.0511 -0.0472  0.0690
54384W        W55248  14.362  10.201   9.887  0.2212  0.0672  0.2730
54385W        W55249   7.877  16.326  27.943  0.0938 -0.2706  0.1053
54386W        W55250  19.689  24.910   0.788 -0.1829  0.0034 -0.1507
54387W        W55251  23.025  11.228  23.646 -0.1255 -0.0610 -0.2048
54388W        W55252  12.446  10.476  16.831  0.4062  0.1156 -0.0555
54389W        W55253   1.687   1.627  24.665  0.0905 -0.1214 -0.2008
54390W        W55254   8.922  11.490   0.319 -0.0139 -0.0279  0.2716
54391W        W55255  14.045  16.984  11.611 -0.0846 -0.2373  0.1623
54392W        W55256   9.635   1.367   3.748  0.2108  0.1315  0.0881
54393W        W55257  14.433   6.702  27.042 -0.0197  0.0122  0.0452
54394W        W55258  14.083   2.313  17.636  0.2375 -0.0017  0.1686
54395W        W55259   0.247  23.904  28.066 -0.0421 -0.2267  0.3944
54396W        W55260  19.602   7.606  26.882  0.3636  0.0181  0.1894
54397W        W55261  24.201  10.922   6.255  0.0083 -0.1295 -0.0399
54398W        W55262   6.886  14.435  18.625 -0.1283 -0.1224  0.0398
54399W        W55263  15.335   4.554  10.438 -0.2400  0.0610 -0.0999
54400W        W55264   5.535   2.898  28.661 -0.1263 -0.1404 -0.1666
54401W        W55265  20.401   2.068   2.812 -0.0331 -0.1246 -0.0336
54402W        W55266  23.771  24.539   1.336  0.1272 -0.1935 -0.1506
54403W        W55267  20.129  15.999   1.758  0.1202 -0.2578  0.0954
54404W        W55268  16.843  26.586  16.231  0.0727  0.0574  0.0807
54405W        W55269   3.132  28.641  27.180 -0.2154  0.0050 -0.1973
54406W        W55270  10.293  23.420  25.381 -0.0868 -0.1688 -0.2887
54407W        W55271   5.098  27.897  12.195 -0.3185 -0.0933 -0.1165
54408W        W55272  21.466  29.022   9.827  0.3934  0.1767  0.0024
54409W        W55273   1.143  21.107  23.072 -0.2865  0.0148 -0.0538
54410W        W55274  21.144  12.858   0.412 -0.1252  0.1496  0.1277
54411W        W55275  18.524   0.452   8.648  0.0560  0.0851  0.3212
54412W        W55276   3.513  23.694  21.148  0.0056  0.2412 -0.2095
54413W        W55277   9.870   1.922  26.108 -0.3354  0.1724 -0.0930
54414W        W55278   2.848  23.877   3.769  0.3255  0.0988  0.2346
54415W        W55279  23.850   6.940   3.752  0.0198  0.1289  0.0048
54416W        W55280   8.401   5.463  25.203  0.2202 -0.1710 -0.0601
54417W        W55281  10.267   5.270  24.073 -0.0082  0.3007  0.1304
54418W        W55282   1.671  26.153  26.803 -0.3802  0.0606  0.3608
54419W        W55283   5.929   4.361  29.133  0.0405 -0.3268  0.0551
54420W        W55284  25.304  22.861  16.459 -0.3089 -0.1370 -0.0793
54421W        W55285  11.370  20.844  18.013 -0.0142  0.0859 -0.0862
54422W        W55286  17.879   5.046   6.425  0.2120  0.1496 -0.1463
54423W        W55287   2.216  18.599  25.846  0.0454  0.1989  0.2066
54424W        W55288   5.039  17.848  19.571 -0.1572  0.0367  0.0746
54425W        W55289  11.878   2.176  13.937 -0.0413  0.0698  0.1936
54426W        W55290   3.842  24.591  16.902  0.0278 -0.0118  0.0344
54427W        W55291  18.982  13.005  21.303 -0.3336  0.0848  0.1034
54428W        W55292  17.136  16.680   3.511  0.0463 -0.0586  0.0223
54429W        W55293  22.729   2.624   4.784 -0.0552  0.1949 -0.0621
54430W        W55294  10.612  22.008  28.860  0.0434  0.0046  0.3969
54431W        W55295  19.964  22.488  18.653 -0.3858  0.3545  0.2843
54432W        W55296   2.816   1.604  20.233  0.0940  0.3529  0.1375
54433W        W55297   6.422  23.694   7.091  0.0026  0.1028 -0.1002
54434W        W55298   7.080   8.019  28.997 -0.2255  0.1987  0.3144
54435W        W55299  27.878  26.395   5.939  0.1291  0.0278  0.1437
54436W        W55300   6.577  11.690  23.347  0.1370  0.2931  0.0873
54437W        W55301  18.145   3.863   1.367 -0.0596  0.1566  0.1655
54438W        W55302   6.087  19.378   2.553 -0.0037  0.2318  0.2166
54439W        W55303  13.622   3.850   0.361 -0.3466 -0.0489 -0.0782
54440W        W55304   9.380  24.695  16.361 -0.3914  0.0247  0.0749
54441W        W55305   0.023   8.808  28.262 -0.0590 -0.0542  0.1702
54442W        W55306   1.873  27.484  26.166  0.4718  0.2005 -0.0843
54443W        W55307  15.476   0.550  10.038  0.0732 -0.1013  0.1373
54444W        W55308  11.365  10.839   4.373 -0.3877 -0.0806 -0.1573
54445W        W55309  25.350   2.174   1.969 -0.1839  0.1525  0.0074
54446W        W55310   7.697  28.454   0.054 -0.1861 -0.3765 -0.3494
54447W        W55311  12.663  17.886   3.014  0.0969  0.0404 -0.0324
54448W        W55312   9.191  17.344  12.775  0.0838 -0.0158  0.1457
54449W        W55313  29.069  17.112   8.576 -0.0013  0.1826  0.0761
54450W        W55314   8.446   3.695  23.162 -0.2266 -0.0188 -0.0085
54451W        W55315  28.782  19.357  19.265 -0.1014 -0.0278  0.1591
54452W        W55316   4.749   5.665  24.375  0.0420 -0.3260 -0.1017
54453W        W55317   9.241  12.135  14.218  0.0658  0.0484 -0.2234
54454W        W55318  12.092   5.188  28.813 -0.0313  0.0021 -0.1641
54455W        W55319   1.283  25.389   8.040 -0.0800 -0.2242 -0.0012
54456W        W55320  19.753  17.256  16.832 -0.2128  0.1253 -0.0759
54457W        W55321   1.422   9.857   0.281 -0.1960  0.0282  0.3035
54458W        W55322  22.845  26.093  25.880  0.0203 -0.1402 -0.0662
54459W        W55323   3.475  13.661  10.325  0.0762  0.0894  0.1514
54460W        W55324   6.029  17.324  28.308 -0.2867  0.1028  0.0714
54461W        W55325  20.203  15.370  29.044  0.0012 -0.0247 -0.0179
54462W        W55326  29.094   8.412  19.351 -0.3384 -0.0132 -0.0007
54463W        W55327   6.524  26.351  28.112  0.1770 -0.0148 -0.0962
54464W        W55328  10.811  15.590  18.030  0.1088 -0.1044  0.2145
54465W        W55329  10.827  26.607  14.286  0.0257 -0.0027  0.1127
54466W        W55330  23.546  25.363  11.034 -0.2934 -0.2964  0.1835
54467W        W55331   3.189  23.516   1.090  0.2239 -0.0051 -0.0961
54468W        W55332   7.998   8.215  25.361 -0.2738  0.0483 -0.0570
54469W        W55333  24.103  12.625   1.043 -0.0314 -0.1513  0.1726
54470W        W55334  17.196  23.214  27.626 -0.0749 -0.2655 -0.0435
54471W        W55335  20.837   7.494  16.627  0.1688  0.0305  0.2478
54472W        W55336   5.130   6.298   2.358  0.0957 -0.1682  0.0367
54473W        W55337  13.055  16.344   5.548  0.2209 -0.2671 -0.0659
54474W        W55338   5.736   1.138   2.964  0.0487 -0.3931 -0.0709
54475W        W55339  23.467   3.602  10.189 -0.0666 -0.0290  0.1229
54476W        W55340  20.186   5.531  26.978 -0.0710  0.0807  0.5148
54477W        W55341   5.163  17.734   5.396  0.0506 -0.1301  0.1297
54478W        W55342  27.039   0.593  21.632 -0.0424  0.1276 -0.0595
54479W        W55343  17.353  20.625   5.254 -0.1997  0.2732  0.0541
54480W        W55344  10.290  28.271  18.771  0.2225  0.2601 -0.0156
54481W        W55345  15.448  16.387   9.869  0.1230 -0.0802  0.1509
54482W        W55346   8.312   1.890  21.271 -0.3777 -0.0946 -0.0641
54483W        W55347  14.595   0.459  10.357  0.2959 -0.4473 -0.2214
54484W        W55348  14.019   5.958  25.034 -0.2429  0.0837  0.1370
54485W        W55349   9.585  23.319  21.258  0.1787  0.1427  0.0276
54486W        W55350  24.626   3.635  14.195  0.1810 -0.0528  0.1133
54487W        W55351   5.614  13.272   8.496 -0.3312 -0.3183 -0.0669
54488W        W55352  24.428  22.961   1.113  0.1320 -0.0105  0.2382
54489W        W55353  10.110  28.133   4.376  0.0366  0.1407 -0.1425
54490W        W55354   2.816  10.262  11.777 -0.1215 -0.0113  0.1451
54491W        W55355  11.956   6.997  26.649 -0.0457  0.3289 -0.0751
54492W        W55356  27.441   3.243  27.216 -0.0656 -0.1796  0.1227
54493W        W55357   5.550  26.154   4.741  0.1322  0.2060 -0.2066
54494W        W55358  11.702  19.468  17.558  0.1250  0.1578 -0.3940
54495W        W55359  14.390   0.740   8.812  0.0239  0.1497  0.0827
54496W        W55360   3.678  26.558  13.496  0.2564  0.1419 -0.1752
54497W        W55361  15.028  11.116  23.197  0.3922  0.0123  0.0167
54498W        W55362   7.671  23.620  16.311 -0.1064  0.3000 -0.1144
54499W        W55363   6.497  11.313   3.590  0.2905 -0.0249 -0.3614
54500W        W55364   1.645  28.268  26.205  0.0956 -0.2557  0.0352
54501W        W55365  14.051  26.013  10.895 -0.1191  0.2336  0.0776
54502W        W55366  16.120   5.660  19.806  0.1082 -0.0931 -0.0068
54503W        W55367  21.717   2.278   6.329 -0.1699  0.5168 -0.1070
54504W        W55368  12.268  17.296  12.698 -0.0993  0.1438 -0.0658
54505W        W55369   7.817  16.234   9.794 -0.0882 -0.1423 -0.0319
54506W        W55370  22.946  11.281   1.910 -0.2588  0.0033  0.1312
54507W        W55371   6.509   3.687  11.069 -0.0757  0.3550  0.0105
54508W        W55372  22.137   0.900   3.340 -0.0399  0.0386 -0.0757
54509W        W55373  15.427   0.201  13.617  0.1808 -0.1847 -0.1862
54510W        W55374   7.227  26.996   0.605 -0.0201  0.1765  0.3968
54511W        W55375  22.285   6.368  22.007  0.0040 -0.0665  0.0815
54512W        W55376  11.495  26.049  14.728 -0.1930  0.0852  0.1544
54513W        W55377  13.704  27.222  12.237  0.1814 -0.2318  0.3247
54514W        W55378  23.257  25.201   1.030 -0.2249 -0.0093  0.1113
54515W        W55379  21.090   7.933  27.919  0.1133 -0.1631 -0.0704
54516W        W55380   1.940   2.341   4.543  0.1713 -0.0838 -0.0439
54517W        W55381  28.334   4.851  27.267 -0.0372  0.0442 -0.1158
54518W        W55382  13.612   9.436   3.919  0.1436  0.0783  0.0956
54519W        W55383  12.440  21.832   9.991  0.1664 -0.3792  0.0316
54520W        W55384   6.194   2.872  27.247 -0.1947 -0.0080 -0.1659
54521W        W55385   0.218  19.126   7.050  0.3976 -0.3326  0.1155
54522W        W55386  11.724   1.727  21.695  0.0413  0.0157  0.0806
54523W        W55387  18.982  24.740  17.269  0.3078 -0.0831  0.0047
54524W        W55388  27.271  22.129   5.811  0.4276  0.0460 -0.2104
54525W        W55389   9.913  14.340   9.424  0.0219 -0.2688 -0.1931
54526W        W55390  28.622  13.552   0.959 -0.1064  0.1910  0.1108
54527W        W55391  16.691  27.685   6.328 -0.0598  0.3164 -0.2842
54528W        W55392  17.747  28.759  14.391  0.0801 -0.2174 -0.4895
54529W        W55393  15.303  14.709  11.325  0.0956 -0.1223 -0.2668
54530W        W55394   8.134  11.495   9.950 -0.2709  0.0086  0.0264
54531W        W55395   8.609   4.705  20.151 -0.0850  0.1412 -0.2162
54532W        W55396  20.381  24.881   6.716 -0.3816 -0.1403 -0.4925
54533W        W55397   1.801  17.676   7.645  0.1333  0.2482  0.0068
54534W        W55398  20.109   0.671  25.178 -0.4751  0.0944  0.0340
54535W        W55399   6.778   7.586  10.493  0.1325 -0.3957 -0.1557
54536W        W55400  24.944  22.292   9.598 -0.1998 -0.0427  0.0976
54537W        W55401  13.287   1.890  20.038 -0.4319 -0.3500 -0.2846
54538W        W55402   9.899   9.522  20.223 -0.0376 -0.0273  0.2417
54539W        W55403  19.149  15.657  24.577  0.0343  0.0946  0.1841
54540W        W55404  22.408   6.708  14.369  0.1561  0.1333 -0.1828
54541W        W55405  26.182  17.015   3.694 -0.0960  0.0213  0.2560
54542W        W55406  21.082  25.549  10.031  0.0397 -0.1374  0.1639
54543W        W55407  19.801   6.570   5.467 -0.1800  0.0589 -0.1018
54544W        W55408  10.494  20.866  17.000 -0.0324  0.0021  0.0358
54545W        W55409  22.699  25.046  22.587  0.0502  0.2079  0.2832
54546W        W55410  27.456  17.474  25.549 -0.1167 -0.0508 -0.0729
54547W        W55411   1.348  12.547  27.539  0.2560 -0.4682  0.1619
54548W        W55412  13.195  19.189  20.835  0.0172 -0.0018 -0.0347
54549W        W55413   7.919  26.157  25.563 -0.2173  0.3424 -0.1402
54550W        W55414   1.091   1.713  20.955 -0.0203 -0.1754  0.0533
54551W        W55415   3.279   2.840  25.476  0.0826 -0.1875 -0.1735
54552W        W55416  21.348   2.189   9.482  0.2055  0.2693  0.0596
54553W        W55417  28.960  14.519  23.986 -0.1961  0.2342  0.1596
54554W        W55418  22.026   4.500  12.650  0.1740  0.1135  0.0952
54555W        W55419  13.898  27.250  18.847 -0.0439  0.4449  0.2203
54556W        W55420   3.679   0.956   6.707  0.0941  0.1300  0.1119
54557W        W55421  25.066  19.874  28.117  0.0123 -0.3067 -0.1925
54558W        W55422  17.763  16.958  12.884  0.3088  0.1406  0.0455
54559W        W55423   0.132  27.941   4.349  0.1228 -0.3416  0.0847
54560W        W55424  23.486   0.553  23.696 -0.1650 -0.2843  0.1216
54561W        W55425  13.011  15.432  22.664 -0.0219  0.1388  0.0704
54562W        W55426   3.966  21.388  22.694 -0.0728  0.1071  0.0940
54563W        W55427  23.436  22.109  15.258  0.1963  0.2921  0.3725
54564W        W55428  27.837  24.686  26.713 -0.0389  0.2024  0.1268
54565W        W55429   3.178   1.272  20.073  0.0353 -0.0522 -0.0279
54566W        W55430  11.485   7.149   8.263  0.2494  0.0687 -0.2361
54567W        W55431   5.521  22.854  26.128 -0.1930  0.0417  0.2943
54568W        W55432   1.063   2.731  27.115  0.1012 -0.0626  0.2755
54569W        W55433  13.173   7.744   4.058 -0.0354  0.4670 -0.1272
54570W        W55434  25.057  13.208  28.116  0.4062 -0.0744 -0.1300
54571W        W55435  12.524  28.151  29.030  0.3437 -0.0039 -0.0870
54572W        W55436   2.902   6.300  23.712 -0.1180 -0.1438  0.1530
54573W        W55437   2.556   2.519  24.880 -0.0287 -0.1455 -0.2167
54574W        W55438  14.799   3.927  21.115  0.1351  0.0163 -0.0463
54575W        W55439  23.403  26.792   0.335 -0.0632 -0.1256  0.1653
54576W        W55440  15.890  16.551  10.072 -0.1775  0.0527 -0.2573
54577W        W55441   7.613  17.487   0.752 -0.0016  0.1239 -0.0480
54578W        W55442  22.204   9.109  28.293  0.1895 -0.2429  0.3130
54579W        W55443  22.807  22.217  10.273  0.1634  0.1420  0.1115
54580W        W55444  20.655  28.913   3.280  0.0544  0.2117 -0.1016
54581W        W55445  24.166  20.567  18.705 -0.0298  0.2549  0.1922
54582W        W55446  11.847   1.490  24.902 -0.2097  0.0490 -0.0111
54583W        W55447  22.713  23.988  15.508 -0.2254 -0.1320 -0.1340
54584W        W55448  14.201  26.033  26.292 -0.0083  0.0478  0.0530
54585W        W55449  10.733  22.482  15.330  0.1066  0.1514  0.2799
54586W        W55450   8.984  29.086   7.094  0.1980 -0.1473 -0.1359
54587W        W55451  26.456  27.668  10.396 -0.3302 -0.1301 -0.0002
54588W        W55452   8.023   5.958   4.691 -0.0152 -0.2010  0.2275
54589W        W55453  16.816  24.060   4.185  0.0419  0.1725  0.3254
54590W        W55454  16.727  21.487  21.759  0.0863  0.0983  0.1514
54591W        W55455   2.262   6.423  13.376  0.0520  0.1521  0.0478
54592W        W55456   2.662  13.217  14.927 -0.0756  0.0020 -0.1644
54593W        W55457  18.690  27.652  12.572 -0.1347 -0.1423 -0.3469
54594W        W55458   2.676  21.019  20.946 -0.0741 -0.2112  0.1231
54595W        W55459  20.915   6.512  28.597 -0.0187 -0.3156 -0.1094
54596W        W55460  12.684   3.073  18.847 -0.0966  0.0058 -0.2181
54597W        W55461  25.599  20.080  10.885  0.1856 -0.0290  0.0078
54598W        W55462  12.683  20.024   7.658 -0.1290 -0.4299 -0.1801
54599W        W55463  11.278   1.485   6.092  0.3307 -0.1138  0.1137
54600W        W55464  10.826   7.518   6.997 -0.2983  0.0716 -0.1887
54601W        W55465   1.772  26.801  17.742  0.1914 -0.1241 -0.1406
54602W        W55466   2.888  11.299  26.397 -0.0827 -0.1784  0.3758
54603W        W55467  17.236   6.437   0.349 -0.2730  0.1682 -0.1270
54604W        W55468  10.668  26.292  20.278 -0.1917  0.1237  0.0967
54605W        W55469   3.474  21.204  27.112 -0.2694  0.0528 -0.4373
54606W        W55470  13.328   5.071  22.854  0.0223  0.3171  0.0291
54607W        W55471   0.030  19.715  16.169  0.1797  0.0667 -0.0951
54608W        W55472   9.570  14.296   4.697 -0.0214  0.1510 -0.2342
54609W        W55473   7.443  18.247   4.615 -0.2815  0.0099  0.4266
54610W        W55474   0.110  24.689  23.179  0.0050 -0.1053 -0.1317
54611W        W55475   7.569   7.956  28.765 -0.2800  0.4119  0.0048
54612W        W55476   7.782   1.682   7.426 -0.2730 -0.4136  0.0396
54613W        W55477   5.369   5.560  25.401 -0.2264  0.1443 -0.0388
54614W        W55478  18.112   9.718  15.489 -0.1311  0.0969 -0.2410
54615W        W55479   5.649   8.013  10.589 -0.1478 -0.3468  0.0033
54616W        W55480  11.623   3.101  23.801  0.1024 -0.1409 -0.1420
54617W        W55481  15.927   4.604  27.276 -0.0913  0.0046 -0.0191
54618W        W55482  10.267  27.547   8.321  0.0912  0.0075  0.1565
54619W        W55483  18.543  13.416  13.384 -0.0560 -0.0372 -0.0407
54620W        W55484   6.528  24.093   4.670 -0.2493  0.4690 -0.0961
54621W        W55485   8.407  17.556   3.141  0.1701 -0.0023  0.0544
54622W        W55486   4.479   4.851   0.097 -0.1948  0.0175  0.0377
54623W        W55487  26.983  13.753  17.150 -0.3057 -0.0226  0.1431
54624W        W55488  21.866   7.944  16.752 -0.0578 -0.2809 -0.0893
54625W        W55489   5.524  18.450  28.183 -0.0689 -0.0751  0.3621
54626W        W55490  20.459  23.708   1.100  0.0695  0.1387 -0.2179
54627W        W55491   1.280   5.773   6.376  0.0445  0.0740  0.2974
54628W        W55492  13.411   9.281  26.884  0.1803 -0.1074  0.1369
54629W        W55493  15.809   6.787  16.612 -0.1013 -0.0958 -0.0812
54630W        W55494  29.046   2.262  12.134  0.1956  0.0095  0.0711
54631W        W55495  27.973  11.393  22.391  0.0022  0.3253 -0.0493
54632W        W55496   3.238  10.953   1.727  0.1955 -0.1175 -0.0390
54633W        W55497   2.428  15.304   5.005 -0.0728  0.0787 -0.2424
54634W        W55498   8.213  21.551  24.134  0.4026 -0.1921  0.1091
54635W        W55499  20.699  21.505   9.748  0.0952 -0.1447  0.0427
54636W        W55500  13.668   8.964  29.012  0.1580 -0.3035 -0.1036
54637W        W55501   3.927  27.864   9.843 -0.0303 -0.1735  0.1588
54638W        W55502   3.187   3.759  13.633  0.0761 -0.1381 -0.0872
54639W        W55503  11.018   3.208  14.135  0.1572  0.0306 -0.1673
54640W        W55504   6.393  12.600   2.428 -0.3439  0.2948 -0.5093
54641W        W55505  13.042   3.598   0.993 -0.1192  0.1526 -0.0368
54642W        W55506   5.325   1.614  22.834 -0.1953  0.1860 -0.0180
54643W        W55507  26.951  18.490  12.733 -0.2175 -0.0909  0.0716
54644W        W55508  12.870  23.185  11.700  0.2395 -0.0352  0.3667
54645W        W55509  28.441  28.007  12.274 -0.2291 -0.0518  0.2362
54646W        W55510  26.103  18.404   2.145  0.0070  0.0724  0.0494
54647W        W55511  25.251  28.184  14.739 -0.1192 -0.0976 -0.0805
54648W        W55512  26.652  17.442  19.638 -0.0559 -0.0856 -0.0169
54649W        W55513  24.283  19.733  22.399 -0.0493  0.2173 -0.0400
54650W        W55514  11.711  17.807   9.058 -0.0346  0.3432  0.3746
54651W        W55515   3.532   3.344   2.172  0.0964 -0.1659  0.1112
54652W        W55516   6.965   6.314   8.987  0.2292  0.2945  0.0592
54653W        W55517   5.392  26.505  25.306 -0.4358  0.1585  0.2849
54654W        W55518  10.160  10.672  19.872  0.1083 -0.3124 -0.1638
54655W        W55519   7.753  22.457  24.256  0.0129 -0.0614 -0.1909
54656W        W55520  25.157   0.902  12.053 -0.0518  0.1154 -0.1709
54657W        W55521   6.518  26.169  16.298  0.0748  0.0807  0.4032
54658W        W55522   1.420  11.669  27.846  0.3498  0.0685 -0.0262
54659W        W55523  18.739  22.311   0.554 -0.0900 -0.5216  0.2500
54660W        W55524  23.753   9.806  16.532 -0.0096  0.1349  0.0583
54661W        W55525   5.939  27.569   6.233  0.2533  0.0879  0.2328
54662W        W55526   4.992   3.165  12.330 -0.2156 -0.2221 -0.1917
54663W        W55527   9.097  11.431   5.754  0.0959 -0.1010 -0.1347
54664W        W55528  26.211  10.801   5.413  0.1438  0.0802  0.0126
54665W        W55529  23.660  14.557  17.432  0.0151 -0.0097 -0.0778
54666W        W55530  19.054  26.610  10.267  0.0548  0.0316  0.2893
54667W        W55531   9.067  14.217  26.573  0.1834  0.0311  0.0743
54668W        W55532  16.646  13.008  21.586 -0.2401  0.0767 -0.0858
54669W        W55533  24.544   9.702   4.311 -0.0950 -0.0187  0.0378
54670W        W55534  25.307  11.635   5.910 -0.0715 -0.1406 -0.1285
54671W        W55535  25.301   3.706  18.858 -0.3773 -0.0558 -0.0658
54672W        W55536  21.086  25.338  15.332 -0.2409  0.2419  0.0034
54673W        W55537   2.780   4.561   1.487 -0.1631 -0.1930  0.1452
54674W        W55538  28.892  14.542  17.645 -0.3113  0.1631  0.0962
54675W        W55539  27.234  22.065   4.153 -0.1499 -0.2914  0.3573
54676W        W55540  21.439   6.642   7.445  0.0005  0.2751  0.1941
54677W        W55541   9.492  27.847  18.111 -0.2410 -0.0601 -0.2785
54678W        W55542   4.818   2.003   6.930 -0.0081 -0.0390  0.1648
54679W        W55543  12.376   4.989   2.213  0.1224  0.2865  0.2037
54680W        W55544   8.491  24.557   3.561 -0.0926  0.1970  0.1452
54681W        W55545  27.987   2.527   0.766 -0.0803 -0.3187  0.0952
54682W        W55546  28.705  14.263   5.989  0.0334  0.1923  0.0121
54683W        W55547   2.846  23.377  18.105  0.0231 -0.2359  0.0338
54684W        W55548  17.477   5.843   3.051 -0.1709  0.3146 -0.4418
54685W        W55549   7.068   3.975   9.471 -0.4189  0.0531  0.0673
54686W        W55550   6.025  26.255   2.736  0.2948  0.0140 -0.3462
54687W        W55551   2.814  12.884   3.326 -0.1833  0.4821 -0.1765
54688W        W55552   8.197   6.653  12.982 -0.2011 -0.3456 -0.0109
54689W        W55553   4.113   0.027   9.891 -0.0870  0.1757  0.0687
54690W        W55554  23.618  23.732   4.071  0.0285 -0.0184  0.2715
54691W        W55555  15.099  11.425  13.307  0.2964  0.0081  0.2168
54692W        W55556  19.403  16.609   5.030 -0.0276  0.1176  0.1828
54693W        W55557  28.986   4.559  26.546  0.0786  0.0732  0.0521
54694W        W55558   4.453   2.834  28.410  0.1056  0.0474 -0.3404
54695W        W55559  15.061   3.210  26.235 -0.0643 -0.1510 -0.1691
54696W        W55560  15.721  21.736  16.712  0.2018  0.0853  0.0826
54697W        W55561  27.269  27.242  28.870 -0.2953  0.0024 -0.0444
54698W        W55562   9.111   6.414   4.857 -0.0514 -0.0136 -0.1048
54699W        W55563  13.541  26.375   3.440  0.0023  0.0757  0.1253
54700W        W55564   1.768  11.845  13.354  0.3774 -0.1350  0.1954
54701W        W55565  13.320  13.367   9.904  0.0910 -0.2658  0.1449
54702W        W55566   3.527   2.947  16.341  0.0718 -0.0623  0.1129
54703W        W55567  13.072   2.460   8.123 -0.1368  0.0143  0.1502
54704W        W55568   6.311  22.983  22.167 -0.2812 -0.0835  0.0459
54705W        W55569  15.813  28.947  10.752  0.1999  0.0674 -0.1710
54706W        W55570  15.145  12.963   1.001  0.0945 -0.1232  0.2708
54707W        W55571   1.602   2.942   8.305 -0.1809 -0.0706 -0.1810
54708W        W55572   2.614   4.108   2.922 -0.1379  0.0964  0.1090
54709W        W55573  10.066   5.147  22.054 -0.0114 -0.2333  0.0710
54710W        W55574  17.955   7.317   5.768  0.0281 -0.1602 -0.0803
54711W        W55575  24.191   5.550  28.663  0.0310 -0.0975  0.2834
54712W        W55576  22.675  23.480   8.417 -0.1645 -0.1640  0.0975
54713W        W55577  11.615  17.260   1.881  0.1232  0.1416 -0.1746
54714W        W55578  28.265   1.039  15.361 -0.0988 -0.0607 -0.0098
54715W        W55579  24.021  23.048  22.805 -0.2421  0.0239 -0.1114
54716W        W55580   8.084  12.779  19.681 -0.0062 -0.1646  0.2618
54717W        W55581  29.133   0.447  17.792  0.0676  0.4071  0.0354
54718W        W55582   5.846  29.117   6.735  0.2371 -0.2022  0.0857
54719W        W55583  21.300  25.126   6.515  0.0533  0.2252  0.0661
54720W        W55584  11.419   7.965  16.603  0.1121 -0.2324  0.4194
54721W        W55585   9.744  26.302  17.160  0.0318  0.2110  0.0990
54722W        W55586  12.448  23.808  13.635 -0.0331  0.0558  0.1511
54723W        W55587  19.819   3.863  25.245  0.1906 -0.0625  0.1324
54724W        W55588  16.723   8.547  28.556 -0.2457  0.2057  0.1292
54725W        W55589  13.767   5.001  26.243  0.2912  0.1262  0.0097
54726W        W55590  14.846  28.702   1.389 -0.1752 -0.0838  0.0067
54727W        W55591  17.345  19.219  27.493  0.0949 -0.2470 -0.0005
54728W        W55592  23.766  27.779   3.477 -0.0732  0.2370 -0.4159
54729W        W55593   5.135  22.956  14.015 -0.3204 -0.0258  0.0555
54730W        W55594  19.191  28.382   3.807  0.1847 -0.0600 -0.1281
54731W        W55595   2.036  20.678  25.934 -0.0568  0.2097  0.1241
54732W        W55596  19.967  15.063   9.233 -0.0571  0.2688  0.1453
54733W        W55597  16.874  14.106  15.660  0.2253  0.2084 -0.2158
54734W        W55598  10.495   6.975  23.318  0.0132 -0.2506  0.2416
54735W        W55599  11.799  13.441   8.196 -0.2840 -0.4268  0.1291
54736W        W55600  28.594  14.765  23.708  0.1635  0.0380  0.0353
54737W        W55601  10.039   2.562  23.913 -0.1006 -0.1517 -0.3271
54738W        W55602   7.763   8.385   2.321  0.0109 -0.0295  0.0651
54739W        W55603  21.917   5.944   1.736 -0.2305  0.0013  0.1306
54740W        W55604  18.305   9.201  29.100 -0.0259 -0.0388  0.0516
54741W        W55605  16.034   3.436  28.292  0.0638 -0.1224 -0.1606
54742W        W55606   4.557  21.206   3.592  0.3159  0.2383 -0.1658
54743W        W55607   9.328   3.055  22.879  0.1378 -0.0617 -0.0130
54744W        W55608  19.899  17.511   6.787 -0.2390 -0.0453 -0.0533
54745W        W55609   0.754   6.724  12.223 -0.0683  0.2582 -0.1774
54746W        W55610  14.077  10.755   7.707  0.2125  0.0411 -0.1110
54747W        W55611  12.687   0.148  28.790  0.2941 -0.1306 -0.1340
54748W        W55612   0.226   6.188  20.073  0.0107 -0.3429  0.1351
54749W        W55613  12.523   8.541  19.827  0.0799  0.0160 -0.0194
54750W        W55614   4.046   4.199  15.248 -0.2503  0.2059 -0.2115
54751W        W55615   2.471   3.805  13.281 -0.1426 -0.1308 -0.1162
54752W        W55616   0.338  27.240  13.152 -0.0822  0.0154 -0.1598
54753W        W55617   2.394   6.918   1.743 -0.2323 -0.1101  0.0776
54754W        W55618  28.376  16.815   2.252 -0.0526 -0.0888  0.2485
54755W        W55619  25.905  10.749  20.452 -0.2050  0.0470 -0.1835
54756W        W55620  16.893  23.451  11.996  0.3558  0.1004  0.1115
54757W        W55621  12.358  25.060  28.813  0.0471  0.2834  0.1610
54758W        W55622   8.013  11.140  18.957 -0.1584  0.2282  0.0582
54759W        W55623   3.082  20.817  18.002 -0.0912  0.1637  0.0393
54760W        W55624  19.509  20.866   6.494  0.3385 -0.1055 -0.5414
54761W        W55625   2.570   3.431   8.559  0.0674 -0.2063  0.4566
54762W        W55626   7.205   6.215  23.779  0.2318  0.0761  0.0128
54763W        W55627   8.015   2.423   6.996  0.2332 -0.1865 -0.0249
54764W        W55628   8.182  27.465   9.756 -0.2058 -0.0903  0.0431
54765W        W55629   6.643  22.391   2.909  0.2082  0.1147 -0.0044
54766W        W55630   2.280  13.384   6.298 -0.3278  0.1365 -0.2962
54767W        W55631   0.435   1.938  10.303 -0.0401  0.1003 -0.0179
54768W        W55632  22.834   0.948  26.014  0.0027  0.1076  0.1142
54769W        W55633   3.897   0.245  15.940 -0.4131  0.2281  0.0579
54770W        W55634   0.099  19.317  20.070 -0.1905  0.0229  0.2684
54771W        W55635  25.974  26.312  23.018 -0.2439 -0.2124 -0.2454
54772W        W55636   6.073   1.383   2.473  0.1086  0.0788  0.1931
54773W        W55637  12.002  21.460   8.587 -0.0828 -0.0447  0.1609
54774W        W55638   8.565  23.764  14.558 -0.3197 -0.2554 -0.3357
54775W        W55639  14.655   5.228  11.777 -0.0384 -0.0152 -0.0761
54776W        W55640  25.608  26.826  16.172  0.0672  0.0041 -0.2067
54777W        W55641   2.628  10.976  15.158 -0.0429 -0.3806  0.2430
54778W        W55642  17.807   5.981   5.190  0.2142  0.1361 -0.1751
54779W        W55643  25.042   4.159   1.629  0.1045 -0.0298 -0.2063
54780W        W55644  15.546   4.836   3.272 -0.1033  0.0158  0.1342
54781W        W55645  20.173  13.690   4.119  0.0243  0.0750  0.1089
54782W        W55646   1.443  23.069  26.914 -0.0618 -0.3555  0.0647
54783W        W55647  23.322  25.137  20.208  0.0996 -0.1594  0.2934
54784W        W55648  28.578   2.269   3.934 -0.0530  0.1133 -0.1448
54785W        W55649   8.887   3.699  26.168 -0.1106  0.0740 -0.1673
54786W        W55650  25.673  24.405  19.079 -0.0044  0.0313  0.0844
54787W        W55651  10.249  10.403  21.009 -0.0616 -0.1739 -0.0631
54788W        W55652  18.796   7.437   3.909 -0.0898 -0.2318  0.0333
54789W        W55653   2.681   5.403  19.389  0.1488  0.2485 -0.2325
54790W        W55654   2.004  18.619   0.980  0.0159 -0.0342 -0.2263
54791W        W55655   9.483  26.529   3.201 -0.0496  0.0453 -0.0176
54792W        W55656   0.048   1.467  10.163  0.0008  0.2453 -0.1173
54793W        W55657   0.575  20.542   6.408  0.2161  0.1702  0.2126
54794W        W55658   4.608  27.416   9.239 -0.1756  0.1108  0.1372
54795W        W55659  28.711  24.316  19.936  0.2143  0.3856  0.0304
54796W        W55660  25.187  26.429   0.385 -0.2193 -0.0529  0.2038
54797W        W55661  17.307   6.289   0.779  0.0597  0.0498  0.2672
54798W        W55662  11.516   2.987  15.292 -0.0288 -0.2734 -0.3062
54799W        W55663  27.139   8.416   3.100 -0.0668  0.3620  0.1515
54800W        W55664  17.167  11.617   8.078  0.0983 -0.1298 -0.1462
54801W        W55665  11.347   8.956  20.278  0.0353  0.2735 -0.0992
54802W        W55666  26.191   2.976  25.900  0.1587 -0.2341  0.1477
54803W        W55667   4.294  20.507  17.038 -0.1704  0.0842 -0.1398
54804W        W55668   2.990   2.716  15.721 -0.1100 -0.1224  0.0933
54805W        W55669   2.168  21.314   9.285  0.1423  0.0819 -0.0722
54806W        W55670  21.505  12.262   7.111  0.1752  0.1363  0.0317
54807W        W55671   4.824  22.173  26.588 -0.0126 -0.0578  0.1443
54808W        W55672  16.333   5.782   8.144 -0.0083 -0.0182 -0.1058
54809W        W55673  13.146   7.878  24.287 -0.3178  0.1894  0.1123
54810W        W55674   1.925  21.374  18.134  0.0514  0.0086 -0.0210
54811W        W55675   8.960  28.786   4.603  0.0966 -0.0011 -0.2364
54812W        W55676  24.216  10.619   3.321 -0.1875  0.0046 -0.1509
54813W        W55677  16.151  19.985  16.359  0.0573 -0.2216 -0.1272
54814W        W55678  19.990   4.354   6.397 -0.0575 -0.0346  0.2831
54815W        W55679  28.025  20.621  10.138  0.0026  0.0385 -0.0959
54816W        W55680   7.682   9.547  28.118  0.4711  0.0684  0.0920
54817W        W55681  26.915  11.473   5.616 -0.1999 -0.0674  0.2320
54818W        W55682   2.469   4.733  24.143  0.0130 -0.0105 -0.2331
54819W        W55683  14.035   9.539   4.235  0.0902 -0.0598  0.0429
54820W        W55684  13.591  16.495   4.065 -0.1383 -0.2214 -0.1114
54821W        W55685  10.572   9.040  17.161  0.2078  0.2502 -0.3499
54822W        W55686  21.674  10.226   6.062  0.2712 -0.0553  0.3102
54823W        W55687   9.969  23.901  23.950 -0.4303 -0.0682 -0.1825
54824W        W55688   7.451  16.011   9.544 -0.3631 -0.2358 -0.1400
54825W        W55689   5.341   9.433  27.062  0.0295 -0.2290 -0.0430
54826W        W55690  27.872  25.360   0.223  0.1598 -0.0087  0.1267
54827W        W55691   2.599   6.445  17.285 -0.0984 -0.2835 -0.3076
54828W        W55692   4.398   8.673   7.217 -0.0819 -0.1112 -0.0340
54829W        W55693   4.893   6.762   5.324  0.1889 -0.2034 -0.0307
54830W        W55694   3.110   4.275  10.059 -0.0012  0.1329  0.2431
54831W        W55695   2.919   5.386  23.073 -0.0054  0.0768 -0.1719
54832W        W55696  19.173  24.680  20.861 -0.0587  0.3273  0.5269
54833W        W55697   6.968   2.198  25.553  0.0406  0.4023 -0.0318
54834W        W55698   9.871  23.751   0.573 -0.2181  0.2330  0.1516
54835W        W55699  13.103  19.888  25.706 -0.1646 -0.2029  0.2368
54836W        W55700  13.977   6.073   1.603  0.0984  0.1389  0.0636
54837W        W55701   4.567   7.841  23.725 -0.0606 -0.0253 -0.0180
54838W        W55702  13.928   4.412   6.337  0.1685  0.1829 -0.1849
54839W        W55703   5.936  20.577   0.822  0.0697 -0.2577 -0.1534
54840W        W55704   7.316  13.532  16.932 -0.1554  0.0300  0.1547
54841W        W55705  17.956  20.550   3.805 -0.0990  0.4463 -0.1050
54842W        W55706  19.861   8.262  24.913 -0.1004  0.1834  0.1230
54843W        W55707  21.467   0.245  14.984  0.0317  0.2096 -0.1735
54844W        W55708   1.852   8.899  12.988 -0.2734 -0.1445 -0.0737
54845W        W55709   7.653  18.509   7.429 -0.1764  0.1456 -0.1513
54846W        W55710   2.624   0.578  22.272 -0.0396  0.2372  0.0376
54847W        W55711  16.978  21.241   0.709 -0.0092  0.2806 -0.1834
54848W        W55712   8.067  13.437   3.143 -0.2120  0.0168 -0.0597
54849W        W55713   1.729  19.119   4.268 -0.2996  0.1319 -0.0149
54850W        W55714  17.758   7.760  18.014 -0.2261 -0.0876  0.0803
54851W        W55715   4.333  25.666  27.842  0.1062  0.1684 -0.2795
54852W        W55716   7.238   1.358  26.694  0.0841 -0.1516 -0.3778
54853W        W55717  28.024  21.343  27.757 -0.1547  0.1373  0.0327
54854W        W55718  14.501  11.326  13.992 -0.1022  0.0604  0.0503
54855W        W55719   8.132   5.321  15.461 -0.0477 -0.1098  0.2619
54856W        W55720   0.664  14.116  27.237 -0.1156  0.3346  0.0635
54857W        W55721   1.685  12.136  26.106 -0.1196 -0.2285  0.0587
54858W        W55722   5.855  23.815   4.991 -0.2767  0.1425  0.1376
54859W        W55723   9.381   6.658   3.821  0.3295 -0.2663  0.1593
54860W        W55724   0.910  27.433   9.382 -0.0201  0.4206  0.1765
54861W        W55725   8.385  18.556  23.669 -0.0795 -0.0690  0.0456
54862W        W55726   9.635   2.201   0.337 -0.0992  0.1189  0.1150
54863W        W55727  22.065  25.720   6.176  0.2368  0.0341 -0.1852
54864W        W55728  10.388  27.809  21.118  0.1273  0.2133  0.1302
54865W        W55729  17.494  26.611  23.080 -0.2757 -0.0046  0.0183
54866W        W55730  11.800  23.675  19.257 -0.0736 -0.0423  0.1800
54867W        W55731   6.776  27.773  27.431  0.1547 -0.1402 -0.3607
54868W        W55732  10.849  17.378  20.834  0.1620 -0.2884  0.0579
54869W        W55733  12.817  11.023  10.435 -0.0260  0.1850  0.1016
54870W        W55734   9.721   0.552  28.940  0.0774  0.1862 -0.0340
54871W        W55735  17.236  10.007   6.380  0.1132  0.1840  0.1459
54872W        W55736   8.961   5.451  24.430  0.1714  0.2734  0.3390
54873W        W55737  14.225  13.135   8.366  0.1736 -0.0167 -0.0894
54874W        W55738  13.665  27.931   8.129  0.0967 -0.0333 -0.0107
54875W        W55739   5.599   4.398  10.458 -0.1779 -0.1784  0.1707
54876W        W55740   5.900  28.500  27.708 -0.1733  0.1174  0.1230
54877W        W55741  25.257  20.863  24.959 -0.0873 -0.0566  0.0999
54878W        W55742  22.599   3.481   8.814 -0.3016  0.2397 -0.0004
54879W        W55743  19.271   2.911   1.270  0.0853  0.1010  0.1757
54880W        W55744  12.019  25.622  14.561 -0.0945 -0.4268 -0.3314
54881W        W55745  13.679   2.325   7.891  0.0083  0.0290 -0.0515
54882W        W55746  18.753  23.621  15.756  0.1538 -0.0868 -0.3735
54883W        W55747   5.352  10.337  28.802 -0.4249  0.2616 -0.1762
54884W        W55748   8.356  28.760   8.046 -0.0793  0.3318 -0.0306
54885W        W55749  10.786  17.933   3.872 -0.0943 -0.0825  0.1171
54886W        W55750   6.512   9.091  25.682 -0.1324  0.2706 -0.0338
54887W        W55751  26.341  10.082  20.286  0.1093  0.2084  0.0115
54888W        W55752  15.743  11.304   0.812  0.2116 -0.2113 -0.5725
54889W        W55753  24.175  15.751   3.826  0.3322 -0.5005 -0.1562
54890W        W55754  20.500  14.228   4.898 -0.1319 -0.2196 -0.1194
54891W        W55755   7.158   5.335  19.827  0.2329  0.2100  0.2101
54892W        W55756  15.437   2.772  18.985  0.1822 -0.2567 -0.1578
54893W        W55757  10.296   3.225  17.870  0.0636 -0.1181 -0.0633
54894W        W55758   9.887  21.380  15.171  0.1739 -0.0612  0.1348
54895W        W55759   8.755   7.589  27.793 -0.0484  0.0475 -0.0703
54896W        W55760   0.004   5.554   5.508 -0.0262  0.0075  0.1432
54897W        W55761  13.930  28.140  26.880 -0.2123  0.2104 -0.4453
54898W        W55762  23.692   7.928   8.270  0.4732 -0.1990 -0.0034
54899W        W55763   6.637  16.852   4.872  0.2514 -0.0756 -0.0598
54900W        W55764   9.064  11.977   5.901  0.0828  0.1512  0.0688
54901W        W55765   6.296  18.456   4.438  0.0539 -0.0003 -0.2182
54902W        W55766  22.007   4.777  22.659  0.1779 -0.2349 -0.0498
54903W        W55767   4.556  23.696  23.542  0.0129 -0.1354 -0.3768
54904W        W55768   9.668  24.709  14.474  0.0017 -0.0962 -0.0073
54905W        W55769   9.906  14.123   1.237 -0.3292  0.0646 -0.0404
54906W        W55770   8.930   0.067  13.811 -0.0077  0.0384 -0.0399
54907W        W55771   6.638   3.327  23.417 -0.0052 -0.0556 -0.0634
54908W        W55772  21.370  13.347  21.662  0.0487  0.2841 -0.2516
54909W        W55773  21.022  15.184   5.831  0.0457 -0.1111 -0.0565
54910W        W55774   8.332  24.022  16.331 -0.0693 -0.0207 -0.1802
54911W        W55775   7.338  17.247  10.236  0.2946  0.1871  0.0561
54912W        W55776  18.721   7.407  20.632 -0.4697  0.2629  0.0521
54913W        W55777  14.352  16.474  14.837 -0.0916  0.1000  0.2819
54914W        W55778   5.112  24.631   9.492  0.0102 -0.1165 -0.1497
54915W        W55779  15.527  28.828  27.838 -0.1546 -0.0716  0.2204
54916W        W55780  19.151   1.045  23.711 -0.0497 -0.3229 -0.0637
54917W        W55781  21.638   0.245   5.845 -0.0730  0.3794 -0.1303
54918W        W55782   7.253   8.174  12.836  0.0218  0.0000 -0.0290
54919W        W55783   4.449   1.858   8.565  0.3361  0.1363 -0.1625
54920W        W55784   4.460  11.111   3.822  0.1056  0.2407  0.0304
54921W        W55785   7.828  12.128  13.662  0.1026  0.1919 -0.0760
54922W        W55786  18.788  17.328  14.397  0.0459 -0.1973 -0.3244
54923W        W55787   3.775  10.224   6.595 -0.0874 -0.0662  0.1788
54924W        W55788  20.618  12.476   6.193  0.0176 -0.3207 -0.2574
54925W        W55789  16.932   3.274   2.341  0.2446 -0.0299 -0.0035
54926W        W55790   2.132   2.994  25.391  0.2467  0.0604  0.0994
54927W        W55791  13.834  13.176  28.038 -0.2175 -0.2238 -0.1373
54928W        W55792   0.177   7.854  10.326 -0.0521 -0.1686 -0.0271
54929W        W55793  11.964  13.960  20.224 -0.4847 -0.3700  0.0835
54930W        W55794   0.987   2.039   8.141 -0.2437 -0.0660  0.1273
54931W        W55795   8.884  28.737   4.159 -0.1077  0.2720 -0.2105
54932W        W55796  23.896  19.683  28.356 -0.1644 -0.3085  0.0384
54933W        W55797   2.188   0.965   5.924  0.0068  0.1405  0.0015
54934W        W55798  14.924  20.526  19.562 -0.1430 -0.4082  0.1188
54935W        W55799  18.853   7.432  27.745 -0.1232 -0.2200  0.3513
54936W        W55800  11.607   3.954  27.209 -0.1609 -0.0777  0.0758
54937W        W55801  14.558   3.634  24.314 -0.0097 -0.1465 -0.0640
54938W        W55802   3.647  18.210  15.062 -0.2443 -0.2118  0.0917
54939W        W55803   0.616  12.995   8.030  0.0685  0.0163 -0.1849
54940W        W55804   3.391  26.768   1.298 -0.0353 -0.0220  0.1749
54941W        W55805  10.893  23.885  10.276  0.3900  0.1236 -0.2624
54942W        W55806  27.059  21.608  26.864 -0.0521 -0.1000  0.0290
54943W        W55807  19.234  21.378  20.653 -0.0545 -0.2018  0.3267
54944W        W55808  20.414  18.245   0.409 -0.1625 -0.0753 -0.2344
54945W        W55809   8.496   2.243  28.480  0.2962  0.0968 -0.4400
54946W        W55810  10.937   7.875  25.797  0.2363  0.1325 -0.0674
54947W        W55811  20.343  21.420  22.446  0.1200  0.0703 -0.3823
54948W        W55812  17.261   2.584  22.523 -0.1780 -0.1049 -0.2990
54949W        W55813   4.098   0.959   2.972  0.1794 -0.2436 -0.0687
54950W        W55814  13.017   1.066   5.473  0.0346 -0.1219  0.0628
54951W        W55815  21.919  11.778   0.966  0.0994 -0.0817  0.1106
54952W        W55816  25.173  23.373  16.462 -0.0290  0.0878  0.0418
54953W        W55817   4.517   9.901   7.665 -0.1211 -0.0060  0.1356
54954W        W55818   3.698  24.179   7.818  0.3092  0.0125 -0.0945
54955W        W55819  28.763   2.049   4.966 -0.0654  0.1028 -0.2072
54956W        W55820  18.721  27.112  26.186 -0.0150  0.3592 -0.0093
54957W        W55821   3.170  27.774  25.891 -0.1955 -0.0987 -0.0952
54958W        W55822   8.974  20.322  16.332 -0.2487 -0.0516 -0.1371
54959W        W55823  27.357  23.761   2.960  0.2063 -0.2208 -0.2283
54960W        W55824  11.867  18.216   1.452 -0.1519 -0.4127  0.3056
54961W        W55825   5.699  21.265   9.863  0.2163 -0.0719  0.0768
54962W        W55826  15.068  13.144  17.906  0.1785  0.0667 -0.2680
54963W        W55827   2.435  12.813  16.561  0.0111  0.0508  0.0375
54964W        W55828  10.065  23.638  25.922  0.1377 -0.3505 -0.0748
54965W        W55829  28.277  29.101  21.047  0.0412 -0.1307 -0.1064
54966W        W55830  17.910  10.875  14.963 -0.1283  0.3124 -0.1192
54967W        W55831   6.957  25.108  22.829  0.0667 -0.0824 -0.0714
54968W        W55832  28.671  14.232  26.811  0.1154 -0.1761  0.0213
54969W        W55833  12.733   0.812  11.055  0.1459 -0.2202  0.0998
54970W        W55834  14.068   5.197  24.360 -0.1671  0.1911 -0.0135
54971W        W55835   4.317  20.026  19.716 -0.1148 -0.0515 -0.0070
54972W        W55836  28.212  14.344   3.201  0.2889 -0.1620  0.1215
54973W        W55837  12.084   1.561   7.785  0.3827 -0.0267  0.0930
54974W        W55838   3.951   7.835  17.277  0.0079 -0.2243  0.0242
54975W        W55839  12.786   5.655  17.020  0.3049  0.0268  0.1299
54976W        W55840  24.947  24.591   6.920 -0.0204 -0.2348  0.0415
54977W        W55841  28.588  28.216  28.886 -0.1057 -0.2948  0.0745
54978W        W55842   2.390  17.663   1.620 -0.2620 -0.1941 -0.0318
54979W        W55843  10.975   2.031  19.364 -0.1194 -0.0219  0.1421
54980W        W55844  13.690  27.707  19.405 -0.0250 -0.1842 -0.0785
54981W        W55845  12.603  12.769   6.119  0.1252  0.1042 -0.1126
54982W        W55846   0.848  12.044  15.858  0.1066 -0.1626 -0.1952
54983W        W55847  14.126   1.772  26.676 -0.0909  0.0990  0.1570
54984W        W55848  21.129  15.334  16.800  0.4638 -0.1074 -0.2673
54985W        W55849   0.257   7.283  12.989  0.0004 -0.0155  0.0613
54986W        W55850   6.449   5.116  19.778 -0.0179 -0.1065  0.1923
54987W        W55851  29.126   3.449  19.944  0.1107  0.2424 -0.0922
54988W        W55852  21.736   6.073  16.263 -0.1470 -0.1654  0.0772
54989W        W55853   7.056  21.639  15.630 -0.1102 -0.1109  0.0135
54990W        W55854  24.025  14.174   6.398 -0.0457  0.0516  0.1381
54991W        W55855  10.971   4.938   2.389 -0.0624 -0.1212  0.3088
54992W        W55856  23.819   3.140  25.506 -0.1346  0.2639 -0.2666
54993W        W55857  26.854  27.905  18.536 -0.0773 -0.0619  0.0045
54994W        W55858  12.196  13.493  19.722 -0.4628 -0.0914 -0.4551
54995W        W55859   6.160  14.508   8.920  0.0294  0.2130  0.0550
54996W        W55860  11.076  28.170  20.798  0.1502  0.0395  0.5050
54997W        W55861  13.294  14.109   0.541  0.0241  0.0206 -0.2410
54998W        W55862   7.853   5.472  23.078 -0.1477  0.0317 -0.2958
54999W        W55863  17.187   6.061  25.058  0.0659 -0.0932 -0.0554
55000W        W55864  19.886   5.951   8.590 -0.0929 -0.0062  0.0283
55001W        W55865  15.511  17.172   8.763 -0.1332  0.2233  0.0967
55002W        W55866  28.024   9.384  22.469 -0.0544 -0.2552 -0.4222
55003W        W55867  13.893  12.202   4.278  0.2103 -0.1497  0.0709
55004W        W55868  12.881  18.264   7.784 -0.0122 -0.0278 -0.2593
55005W        W55869  21.703  14.283  15.518 -0.3619  0.3118 -0.3429
55006W        W55870  14.703   2.430   2.126  0.0724  0.3469  0.0303
55007W        W55871  19.224   6.411   4.370  0.1653 -0.0371 -0.1302
55008W        W55872  12.262   8.245   6.453 -0.0113  0.1113 -0.0260
55009W        W55873   3.227  12.926   1.447  0.1087 -0.1971 -0.0905
55010W        W55874   9.463   9.527  28.322 -0.1374 -0.0378  0.0647
55011W        W55875   1.193  22.357  24.253  0.2909  0.2405  0.0468
55012W        W55876  19.125   5.970   2.090  0.1245  0.1011  0.0114
55013W        W55877   5.120   2.186   8.142 -0.0405  0.1737  0.1409
55014W        W55878   7.923  11.248  17.088 -0.5118 -0.5373 -0.1149
55015W        W55879   5.533  11.949  10.423 -0.0276 -0.1050  0.2796
55016W        W55880   3.583   0.084  10.138 -0.1596  0.0877 -0.1083
55017W        W55881  12.128   5.631  11.685 -0.2284  0.2714 -0.1085
55018W        W55882  17.021   0.720  27.721  0.0235 -0.1630  0.2898
55019W        W55883  15.310  14.579  13.059 -0.1638 -0.0086  0.0064
55020W        W55884   4.047  22.840   3.213  0.2205  0.0423 -0.0329
55021W        W55885  19.693   2.806   6.361  0.1369  0.0240 -0.4049
55022W        W55886  20.172   7.895  16.077 -0.0917  0.0911  0.0209
55023W        W55887  10.429   6.620  20.576  0.1846 -0.0006 -0.0376
55024W        W55888   4.527   4.619   4.214 -0.2520 -0.2944 -0.0640
55025W        W55889  11.727   7.027   2.440 -0.3191  0.1953  0.0810
55026W        W55890  11.740  25.159  27.483  0.0500  0.2235 -0.0632
55027W        W55891  11.463   2.402   4.088  0.3161 -0.0098 -0.0955
55028W        W55892   4.328   8.960  18.003 -0.0432 -0.3530  0.1258
55029W        W55893   2.426   6.951   6.154  0.1569 -0.1597 -0.0769
55030W        W55894  16.316  23.897  25.868  0.0995 -0.0848 -0.1929
55031W        W55895  22.300   9.528  16.077  0.0715  0.0520 -0.1764
55032W        W55896  14.553   8.723  27.054  0.2343 -0.2773  0.2502
55033W        W55897  27.168   4.306  17.957 -0.2972  0.0490 -0.4419
55034W        W55898   7.674  16.253  10.295 -0.2114 -0.0239  0.1389
55035W        W55899   5.591   3.994  16.497  0.1971 -0.1619 -0.0526
55036W        W55900  17.512  11.754   3.285  0.0707 -0.2275 -0.0270
55037W        W55901   0.391  10.004   3.191  0.0662  0.0296 -0.0017
55038W        W55902   1.047   5.863  24.381 -0.1910  0.1623  0.0355
55039W        W55903  10.779  24.903   0.624 -0.0764  0.2429  0.0587
55040W        W55904   6.151  19.625   6.387 -0.2479 -0.2854  0.0429
55041W        W55905  12.797  20.391   3.140 -0.0120 -0.0304 -0.0539
55042W        W55906  20.190   4.404   0.901  0.1035 -0.0755 -0.0498
55043W        W55907   9.686  19.539   5.379  0.1658  0.0035  0.1736
55044W        W55908  14.720  29.052   5.292  0.3774 -0.0213 -0.0306
55045W        W55909  16.609   9.555  17.595  0.1924  0.3340 -0.2413
55046W        W55910  12.638  17.533  10.629  0.0695 -0.1348 -0.2081
55047W        W55911  10.375  14.903  25.679  0.2573  0.3782  0.1364
55048W        W55912   1.186   3.178  27.302 -0.1085  0.3014 -0.1383
55049W        W55913  29.007  26.532  11.044 -0.0654 -0.0206  0.1156
55050W        W55914  21.040  22.749   9.836  0.1768  0.0861 -0.1006
55051W        W55915  11.636   6.721  20.301 -0.0545 -0.1795  0.0852
55052W        W55916  13.610   9.791  10.489  0.2119 -0.2308 -0.1752
55053W        W55917  11.200  14.110  22.564  0.0530 -0.2486  0.2018
55054W        W55918   6.750  14.162   6.343 -0.0687  0.0143  0.0602
55055W        W55919  15.300   3.927   1.507 -0.1490 -0.0224 -0.0231
55056W        W55920  20.816   2.613  11.186 -0.2798  0.0072 -0.0024
55057W        W55921  11.677  22.169  28.907  0.0804  0.2861 -0.1240
55058W        W55922   9.334  27.677   6.535 -0.1351  0.1134  0.1122
55059W        W55923   8.111   4.202  24.341  0.1120 -0.1093 -0.0685
55060W        W55924  12.875  21.068  16.162  0.1779 -0.1759  0.1738
55061W        W55925  17.907  28.716   9.479 -0.2185 -0.3549 -0.2917
55062W        W55926  15.400  16.671  27.012  0.2025 -0.3730 -0.2815
55063W        W55927  16.083   7.418  13.357 -0.1540  0.1392 -0.1502
55064W        W55928  14.107  19.769  11.902  0.2191  0.1461 -0.1187
55065W        W55929   4.343   4.246  22.522  0.1412 -0.1934 -0.1508
55066W        W55930   5.871  16.263   2.829 -0.0920 -0.2828  0.1220
55067W        W55931  15.638  22.979  11.163 -0.0926 -0.2016 -0.1597
55068W        W55932   8.467  18.296   5.120 -0.0164  0.0426  0.1240
55069W        W55933  11.248  15.452  22.311  0.0374  0.2191 -0.0051
55070W        W55934  14.329   1.579  19.578  0.2208 -0.0426  0.0478
55071W        W55935  24.028   3.869  24.644  0.0920 -0.0610 -0.1025
55072W        W55936  21.838  11.763  24.996  0.2158 -0.1365 -0.0715
55073W        W55937   4.033  11.415  28.942  0.0299 -0.1039  0.0014
55074W        W55938  26.889  25.449  10.576 -0.0285 -0.0258  0.0652
55075W        W55939  10.388   4.244  11.111 -0.0511 -0.1504 -0.3489
55076W        W55940  10.228  23.361  27.328 -0.1271  0.2421 -0.1894
55077W        W55941   0.821  17.525  20.473  0.0548  0.2015 -0.1718
55078W        W55942  28.865  23.414  19.903 -0.1291 -0.2809  0.0587
55079W        W55943  20.784   2.462   5.472  0.2862 -0.1244 -0.1102
55080W        W55944  13.653   8.199  11.740  0.1265 -0.2337 -0.3000
55081W        W55945   3.565   6.035  16.235  0.0037  0.0602  0.2299
55082W        W55946  11.515   2.816  27.581  0.0712  0.4200  0.2673
55083W        W55947  14.379   7.962  12.758  0.0109  0.1477 -0.2543
55084W        W55948   9.720  18.918   7.195 -0.0853 -0.0840  0.2787
55085W        W55949  12.316   9.889   8.093  0.1376  0.1223 -0.4515
55086W        W55950   0.687   1.203  15.985  0.0066 -0.0228  0.3206
55087W        W55951  15.143   2.954  24.164 -0.2502  0.1453  0.1753
55088W        W55952  11.311   0.337   0.902  0.0260 -0.0341  0.1261
55089W        W55953  20.293  19.974   9.484 -0.1753 -0.1340 -0.2504
55090W        W55954  23.587   8.532  11.835  0.0306 -0.1470 -0.2581
55091W        W55955  10.072  15.282  23.662 -0.2141  0.0142 -0.2540
55092W        W55956   5.170   5.276  11.550 -0.0819  0.0945 -0.0938
55093W        W55957   4.868  13.618  16.582  0.1568 -0.1599 -0.0834
55094W        W55958  15.600  16.803  27.470 -0.2636  0.0963  0.1127
55095W        W55959  26.680  13.318  10.632 -0.2335 -0.0321 -0.0471
55096W        W55960  14.321  23.513  13.167 -0.3830 -0.0571 -0.1949
55097W        W55961  24.173  14.976   1.525 -0.4023 -0.2167  0.0099
55098W        W55962   6.259   0.678   6.876 -0.2587  0.1088  0.1465
55099W        W55963  11.958   0.398  13.555  0.0985  0.1664 -0.1343
55100W        W55964  16.062  16.767   2.841 -0.1396 -0.1633  0.1621
55101W        W55965   2.099  20.918  28.175  0.0573 -0.0477  0.2633
55102W        W55966   0.142  28.032  10.578  0.3495 -0.0924  0.0842
55103W        W55967   1.145  15.629  12.140  0.2913 -0.0051 -0.0004
55104W        W55968   5.051   4.814   9.753 -0.2936 -0.0072 -0.1575
55105W        W55969  15.494  19.309   2.770  0.0923  0.0842  0.0354
55106W        W55970   3.948  10.326   5.746  0.0575 -0.0722 -0.4633
55107W        W55971  17.448   4.594  22.227  0.0539 -0.3264  0.1043
55108W        W55972  14.006  20.249   9.442  0.1652 -0.2054 -0.1702
55109W        W55973   7.633   4.158  13.831 -0.1103 -0.0922  0.0731
55110W        W55974   7.607   8.220  26.678  0.1617 -0.1150 -0.0692
55111W        W55975  12.678   9.664   8.398 -0.1819  0.1717  0.1686
55112W        W55976   2.531  21.406   9.852 -0.3295 -0.2705  0.4002
55113W        W55977  22.106   3.033  26.909  0.1377  0.2525  0.0347
55114W        W55978  13.392   3.967   0.870 -0.1337  0.3114  0.0864
55115W        W55979  17.940   6.709   1.223  0.0116 -0.2154  0.2477
55116W        W55980   4.229  13.745  10.005  0.3163  0.1648  0.1220
55117W        W55981  11.230  17.044  10.863 -0.0246 -0.2293  0.1261
55118W        W55982  11.329   5.550   4.177 -0.1049 -0.3662  0.0229
55119W        W55983  12.492  21.124   9.483 -0.1360  0.0766 -0.2059
55120W        W55984   7.747  10.245  22.232  0.0932  0.0468 -0.1535
55121W        W55985   6.804  27.490   6.621  0.0560  0.0424 -0.1638
55122W        W55986  15.308  23.318   5.161 -0.0379 -0.1701 -0.0680
55123W        W55987  28.225  22.467  26.991  0.1292  0.1565  0.0807
55124W        W55988  10.991  28.071   4.337 -0.1496 -0.3455  0.2935
55125W        W55989  28.256  14.477   5.114  0.0491  0.1205 -0.0928
55126W        W55990  10.835   0.034  21.873 -0.0468  0.0829 -0.4794
55127W        W55991   2.284   1.126  27.573 -0.5020  0.0147 -0.1990
55128W        W55992   6.233   3.258   4.759 -0.0056  0.0626  0.2727
55129W        W55993  25.221  16.915   1.003 -0.3618 -0.1743  0.2508
55130W        W55994  28.335  22.172   4.800  0.2215 -0.0513 -0.0606
55131W        W55995  18.581  13.438  14.926 -0.0950  0.3848 -0.0035
55132W        W55996  17.470  17.227  27.677  0.1535  0.0013 -0.1525
55133W        W55997  12.549  25.802  10.154 -0.0196 -0.0444 -0.0097
55134W        W55998  19.974   8.403  13.240  0.1014  0.0737 -0.5088
55135W        W55999  10.489   3.291  26.869 -0.1859  0.1574 -0.1709
55136W        W56000   5.287   6.710  10.003 -0.0773 -0.0002 -0.0028
55137W        W56001  13.988  17.081   8.484 -0.0984  0.1314 -0.2115
55138W        W56002  22.619   4.439   0.675 -0.0031  0.0035  0.1138
55139W        W56003  15.771  10.575  28.300 -0.1085  0.1371  0.4701
55140W        W56004  26.468   5.181  11.606  0.0984 -0.2515  0.1119
55141W        W56005  17.745  26.595  12.703  0.0056  0.0387 -0.1609
55142W        W56006  14.607  11.085  19.853  0.1074  0.1159  0.0323
55143W        W56007  22.730  20.963   3.017 -0.0520 -0.0682 -0.1973
55144W        W56008   3.120   8.445   7.730 -0.0151  0.3816  0.1057
55145W        W56009  10.014   6.257   9.999  0.0157  0.0275  0.1967
55146W        W56010   4.871   2.947   9.310  0.2726  0.2668 -0.1097
55147W        W56011  17.004   7.404   1.422  0.0551  0.2574  0.4482
55148W        W56012  19.900  11.156   0.295 -0.0768 -0.0831 -0.0060
55149W        W56013   2.203   0.947  10.883 -0.2796  0.2011 -0.1260
55150W        W56014  11.521  15.349   6.427  0.2805 -0.0698 -0.3393
55151W        W56015   8.239  19.508  27.567  0.0744 -0.1414  0.2436
55152W        W56016  28.003  27.078   0.845 -0.1281 -0.0561  0.0003
55153W        W56017   3.867  16.823   9.571 -0.2576  0.2021 -0.0398
55154W        W56018   2.942   6.247  14.379 -0.0097 -0.0791 -0.3465
55155W        W56019   8.605  19.247   2.857  0.1998 -0.3325 -0.1529
55156W        W56020  21.842   6.048  27.344 -0.0834  0.0011 -0.1119
55157W        W56021   5.989   9.588  13.661  0.1339 -0.1085 -0.2401
55158W        W56022  12.748   8.613   7.808  0.2529  0.0888  0.2820
55159W        W56023  19.590   4.215  19.823  0.0704  0.0638  0.1560
55160W        W56024  28.410  27.418   5.348  0.0654  0.0438  0.0833
55161W        W56025   9.235  24.346   6.863 -0.2555 -0.0150 -0.2345
55162W        W56026  22.288  27.324  11.300 -0.1170 -0.0921  0.1760
55163W        W56027   8.860  17.347   5.142 -0.2584 -0.2093 -0.3933
55164W        W56028  25.352  22.996   5.357  0.2562 -0.1693  0.0863
55165W        W56029   3.598  17.044   1.192  0.0607  0.2301  0.1788
55166W        W56030  13.602  23.197  12.098  0.2469  0.0188 -0.0962
55167W        W56031  23.985   7.059  23.022  0.0885 -0.0032  0.2304
55168W        W56032  26.205   7.107  17.335  0.3356  0.0088  0.0233
55169W        W56033  16.042  19.815  26.804  0.1626 -0.2356  0.2874
55170W        W56034   5.627   5.995  11.177 -0.2590 -0.1913 -0.0178
55171W        W56035   7.157  25.232  28.790 -0.2539  0.3031  0.3578
55172W        W56036  21.516   0.597  25.926 -0.0942  0.0253 -0.0702
55173W        W56037   7.632   4.854  18.533 -0.0203  0.1123  0.1867
55174W        W56038   8.066  14.938  28.258 -0.1240 -0.4383  0.1536
55175W        W56039   5.276  15.052   3.166  0.2009 -0.2791  0.0574
55176W        W56040  23.191  23.246   9.205  0.0071 -0.2116  0.2794
55177W        W56041  20.534  13.642   2.356  0.0451  0.1581  0.0801
55178W        W56042  10.906  21.223  10.722 -0.0759 -0.1276  0.3382
55179W        W56043  12.445   6.570   0.874  0.2049 -0.0578  0.1345
55180W        W56044  21.899   1.012   4.270  0.1320  0.0527  0.0327
55181W        W56045  10.727   8.831  25.699  0.2267  0.3479 -0.0201
55182W        W56046  17.468  24.274   3.601 -0.0640 -0.2330  0.0209
55183W        W56047   0.172   4.561   0.484 -0.2836 -0.0109  0.2691
55184W        W56048  28.737  19.672   4.107  0.2471 -0.0524  0.1184
55185W        W56049  21.849   7.820  15.175 -0.0857  0.1154  0.1765
55186W        W56050  10.012  26.619   0.642  0.1042  0.3592  0.1123
55187W        W56051  11.222   1.496  21.504 -0.2448  0.0914 -0.0168
55188W        W56052  19.611   4.236   4.617  0.0781  0.1786 -0.0583
55189W        W56053   4.399  12.891   1.522 -0.0742  0.0022 -0.2989
55190W        W56054  26.910  28.623   8.109 -0.0443 -0.0173  0.1189
55191W        W56055   3.650   3.614  25.150 -0.1731 -0.1054 -0.1137
55192W        W56056   7.419  26.168  16.708  0.1345 -0.0213 -0.0062
55193W        W56057  15.491   6.702  11.391 -0.1026 -0.0903 -0.2927
55194W        W56058  22.117   2.866   6.641  0.0986  0.4703  0.0789
55195W        W56059   9.837  23.996  28.165 -0.0400  0.0528  0.2307
55196W        W56060  25.111  28.281  11.873 -0.1128  0.1098  0.0567
55197W        W56061   8.918  21.762  28.601  0.0150 -0.0147  0.0000
55198W        W56062   0.834   9.180  15.650  0.0927  0.4934  0.4054
55199W        W56063  16.549  20.623   2.712 -0.3339  0.3666 -0.2022
55200W        W56064   5.359  11.191   6.056 -0.2640  0.3173  0.0634
55201W        W56065   4.321  25.202   6.202 -0.2007 -0.0793 -0.2156
55202W        W56066   0.228  15.578  26.275  0.2034  0.0802 -0.0815
55203W        W56067   5.374  12.164  12.184 -0.3037  0.3871 -0.0400
55204W        W56068  27.653   5.236  21.409 -0.2692 -0.1271 -0.2650
55205W        W56069   9.691  29.088  23.552 -0.0230  0.3465  0.2609
55206W        W56070  22.023  10.009  13.805  0.0704  0.0404 -0.1503
55207W        W56071  19.654   3.245  19.815  0.2531 -0.2552  0.3252
55208W        W56072   5.144  11.455  28.603 -0.1286  0.1074 -0.0114
55209W        W56073  15.211   1.082  28.925 -0.0825  0.1152  0.3199
55210W        W56074  23.149  27.330  28.338  0.0776 -0.0048 -0.2800
55211W        W56075  13.570   6.124  24.753  0.1092  0.1054 -0.1574
55212W        W56076   3.762  11.328  20.323  0.1436  0.2410 -0.1045
55213W        W56077  12.895  22.911  25.186 -0.1391 -0.0644  0.2166
55214W        W56078  17.654  17.122   9.751  0.0131  0.0087 -0.0966
55215W        W56079   9.401  14.731  14.040  0.0283  0.1312  0.1891
55216W        W56080  20.959   3.748  25.951  0.0709 -0.1606 -0.1790
55217W        W56081   8.125   6.964  12.209  0.1095 -0.1977  0.1060
55218W        W56082  11.396   4.825  10.388 -0.1567  0.0138 -0.2951
55219W        W56083  28.380   4.179  12.674  0.1693 -0.0797 -0.1334
55220W        W56084   9.151   9.969  21.763  0.2748  0.0505 -0.0673
55221W        W56085   4.766  19.373  19.637  0.0355 -0.0836  0.0752
55222W        W56086  18.569  10.909  24.800 -0.0998 -0.1387 -0.0567
55223W        W56087   9.413   3.369  24.736  0.0924  0.2089  0.3120
55224W        W56088  13.113  10.231   5.688 -0.1665 -0.1210  0.0817
55225W        W56089  13.999   9.554   1.450  0.1272 -0.1182  0.1657
55226W        W56090  15.243  14.444  14.045  0.5930 -0.0385  0.1728
55227W        W56091  13.874  26.146  24.349 -0.3106 -0.0121 -0.1828
55228W        W56092   7.883  13.902   3.920  0.0346  0.3525  0.0172
55229W        W56093   6.853  24.897   8.991  0.0441  0.2484  0.2019
55230W        W56094  21.667   3.786  16.591 -0.0152 -0.4118  0.2946
55231W        W56095  20.463  12.294   7.457  0.0286  0.3094 -0.2969
55232W        W56096  22.918  10.042   3.814  0.1959 -0.0913 -0.0440
55233W        W56097  10.977   8.611  29.124 -0.3457  0.2655  0.0132
55234W        W56098  14.198  27.135   5.069 -0.0924  0.2082  0.1849
55235W        W56099  12.429  11.926   4.192  0.1086 -0.0108 -0.0888
55236W        W56100  11.289  19.888  10.868 -0.0576  0.0074  0.0077
55237W        W56101   7.128   2.831  13.540 -0.4193 -0.0793 -0.0438
55238W        W56102  11.249   5.502   7.882 -0.1216  0.0809  0.1029
55239W        W56103  10.005  23.600  17.235 -0.3065  0.1028 -0.1977
55240W        W56104  11.793  29.016   2.405  0.0219 -0.1298 -0.0816
55241W        W56105  21.790  19.906  27.632 -0.3559 -0.2567  0.1287
55242W        W56106  10.672   5.822  13.299  0.1558 -0.1180  0.3405
55243W        W56107  14.659   2.003  21.169  0.0436  0.3284 -0.1884
55244W        W56108  16.544   4.251   5.810  0.0725  0.1080 -0.2270
55245W        W56109   9.861   0.608   9.565  0.1432  0.0702  0.1413
55246W        W56110   2.689  23.841   6.628  0.1847 -0.1967 -0.0006
55247W        W56111  21.635   7.582   9.032 -0.0426  0.1062 -0.2664
55248W        W56112  15.715   6.525   1.775 -0.0964  0.1131  0.1032
55249W        W56113   6.028  13.111  26.884 -0.0105  0.0072  0.1045
55250W        W56114  15.004   6.634   0.317 -0.0150 -0.3584 -0.2257
55251W        W56115  25.865  14.461  28.331 -0.2570 -0.0189  0.2631
55252W        W56116  11.686  19.116   1.853 -0.4445  0.2162  0.0619
55253W        W56117  15.539  18.985  12.124  0.1234 -0.2008 -0.1305
55254W        W56118  18.764   7.038  25.310  0.0967 -0.1925  0.0016
55255W        W56119   0.706   2.386   9.901  0.1361 -0.0959 -0.0069
55256W        W56120  20.038   2.004   9.780  0.0381  0.1980 -0.0158
55257W        W56121  17.078  28.474  17.055  0.1122 -0.1033  0.1234
55258W        W56122   9.070   0.564   1.266  0.0423 -0.0476 -0.3250
55259W        W56123   1.705   6.681  11.966  0.0011 -0.1334  0.0599
55260W        W56124  16.399   4.330   9.507  0.2074  0.1195  0.0924
55261W        W56125  12.702   1.169  18.498  0.0441 -0.0100  0.0584
55262W        W56126  21.434   1.631   1.697  0.0967 -0.0256 -0.2410
55263W        W56127  14.030  19.160  16.847 -0.0483  0.2728  0.1255
55264W        W56128   3.061  15.740   8.096 -0.0667  0.0374 -0.1172
55265W        W56129  17.155   7.206  18.036 -0.3299 -0.0735  0.1204
55266W        W56130   5.948  26.488  26.134 -0.1139 -0.1353 -0.0887
55267W        W56131   8.747   4.392  27.828 -0.0034 -0.2283  0.0802
55268W        W56132  27.212  13.812  12.595 -0.2378  0.2201 -0.1705
55269W        W56133  27.085   9.081  11.988  0.0322 -0.4075 -0.4241
55270W        W56134  13.965  25.435   8.372  0.0625  0.0523 -0.2986
55271W        W56135   5.622  11.072  26.468 -0.3487 -0.4824  0.0639
55272W        W56136  17.092   2.244  11.131 -0.1789  0.1278  0.2978
55273W        W56137   7.304  23.863  13.311 -0.0128  0.1850 -0.0962
55274W        W56138   0.041  24.874  17.303 -0.0640  0.1019 -0.0115
55275W        W56139  25.121  25.086   2.756 -0.0225 -0.2217  0.3974
55276W        W56140  13.163  22.569  13.617  0.1644 -0.3178 -0.1375
55277W        W56141  17.115   4.625  19.916  0.0498  0.4657  0.0703
55278W        W56142   9.702  11.205  13.375  0.0762  0.1108 -0.0356
55279W        W56143   1.714  26.888   0.268  0.0836 -0.1780 -0.0947
55280W        W56144  20.877   5.402   7.098  0.1079  0.2924 -0.0717
55281W        W56145  28.087   9.203  27.996 -0.0030 -0.2508 -0.0073
55282W        W56146   4.378  10.569   2.869  0.0850 -0.1357  0.0546
55283W        W56147   8.250  19.398  19.501 -0.1644 -0.0297 -0.1987
55284W        W56148   6.840   3.429  21.280  0.4599 -0.0244 -0.1539
55285W        W56149  21.815  19.951  18.376 -0.0907 -0.0312  0.2373
55286W        W56150   5.133   7.908  27.135 -0.0729 -0.0747 -0.1382
55287W        W56151   4.418  23.510  13.650 -0.3857 -0.2070  0.1739
55288W        W56152   6.029  23.661  25.584 -0.3019 -0.0448  0.1756
55289W        W56153  13.760   9.623  27.192  0.0848  0.0890 -0.1204
55290W        W56154   7.531  14.420  11.634  0.3512  0.1022 -0.3810
55291W        W56155   1.773  20.039   2.413  0.3485 -0.2150  0.0323
55292W        W56156  22.336   7.284  27.974  0.3077 -0.1545  0.2242
55293W        W56157   5.221   0.957  15.371 -0.2160  0.0051  0.0295
55294W        W56158   2.449   5.120   6.142 -0.1331  0.0898 -0.0386
55295W        W56159  16.246   4.712  25.156 -0.1951 -0.1994  0.4322
55296W        W56160   9.732  28.792  24.404  0.1025  0.1988  0.1848
55297W        W56161   4.352   3.039  14.454  0.1059  0.1841 -0.3504
55298W        W56162   5.582  22.721  17.096 -0.1968 -0.3947 -0.0429
55299W        W56163   7.971   2.497   0.931 -0.1120  0.0137 -0.1251
55300W        W56164   8.290   7.713  12.191  0.0278 -0.1253 -0.0243
55301W        W56165  14.430   6.876   3.517 -0.0841 -0.1631  0.2945
55302W        W56166  25.386  19.013  28.599  0.1175  0.1687  0.2670
55303W        W56167  15.634   0.519  24.213 -0.0204  0.0470 -0.1184
55304W        W56168  28.589  26.460  26.105  0.1547  0.4420  0.0902
55305W        W56169  24.642  20.503   8.535  0.0027 -0.5723 -0.2258
55306W        W56170  27.895   8.187  12.667 -0.2268 -0.0540  0.0690
55307W        W56171  20.841  14.470   4.464  0.2013 -0.0688  0.1667
55308W        W56172  28.375  19.171  11.929 -0.2646 -0.0691 -0.0360
55309W        W56173   6.506   8.913  10.854  0.0302  0.0569  0.0791
55310W        W56174  22.961  22.453  19.102  0.2961 -0.2355 -0.0863
55311W        W56175   1.970   4.892   9.728 -0.0795  0.0216  0.0491
55312W        W56176  28.269  29.086   4.865  0.1458  0.0558  0.2102
55313W        W56177  26.900  27.212  22.377 -0.1732  0.0649  0.3823
55314W        W56178   6.222  16.522   0.614  0.2674 -0.0874 -0.0997
55315W        W56179   7.953  22.160   8.994 -0.0639  0.1673  0.3228
55316W        W56180   0.047   4.579   8.280  0.0958 -0.0025 -0.0321
55317W        W56181  25.890  23.153   8.543  0.1464  0.4574  0.3239
55318W        W56182   6.777  11.980  11.458 -0.1318  0.0399 -0.0559
55319W        W56183  13.756  20.220  13.665 -0.3463 -0.1065 -0.0147
55320W        W56184   9.970   4.418  24.652  0.0290 -0.1406  0.1662
55321W        W56185  26.367   6.786  10.720  0.1422 -0.3869  0.2193
55322W        W56186  21.268  18.935  24.080 -0.1214  0.2646 -0.0081
55323W        W56187  16.685  17.114  10.702 -0.2769  0.1764  0.0835
55324W        W56188  24.349  12.923   9.958  0.0274  0.0021 -0.0928
55325W        W56189  15.701   6.178  28.230 -0.3263  0.0767  0.0671
55326W        W56190   2.209   9.629  14.470  0.1499 -0.1482 -0.0561
55327W        W56191   3.848   4.801  27.660 -0.2164 -0.1914  0.0016
55328W        W56192  19.793  15.351   6.167 -0.2013 -0.0455 -0.1229
55329W        W56193  22.221   2.032   6.405  0.0304 -0.2002 -0.0580
55330W        W56194  12.466  10.259   6.749 -0.1364 -0.1550 -0.2863
55331W        W56195   8.739  18.522   8.177  0.1301  0.0332 -0.3668
55332W        W56196   6.239   3.466   5.818 -0.0752  0.0917 -0.0459
55333W        W56197   8.494  16.775   0.043  0.2359 -0.2479 -0.0237
55334W        W56198  26.064   7.796  24.947 -0.1351 -0.0212 -0.1458
55335W        W56199  14.955  22.667  26.579  0.1596  0.0254 -0.1207
55336W        W56200  11.479  12.161   2.603  0.3828 -0.0612 -0.2589
55337W        W56201  25.525   4.816  21.791  0.0918  0.1545  0.5018
55338W        W56202   2.995   2.262  12.597  0.1819  0.1627 -0.0183
55339W        W56203   8.491  15.902  28.618 -0.1534  0.0082 -0.1891
55340W        W56204   2.985   5.748  25.513  0.0790  0.0246  0.1193
55341W        W56205  14.981   1.639  16.833  0.0299  0.1840  0.3116
55342W        W56206  18.603  15.687  20.321  0.0635 -0.1101 -0.2786
55343W        W56207   9.835  24.801   4.298  0.2505 -0.0997 -0.1317
55344W        W56208  27.006   3.422   4.154  0.1030 -0.2762  0.0275
55345W        W56209  25.708  11.172  29.100 -0.1125  0.0824 -0.1394
55346W        W56210  16.668  12.814  22.597  0.0505  0.0679 -0.1527
55347W        W56211   5.388   9.401   2.472 -0.3239 -0.1490 -0.3732
55348W        W56212   5.684  13.911  13.593  0.2008 -0.0651  0.3503
55349W        W56213   7.876  22.670   4.523  0.0890  0.3639  0.1149
55350W        W56214  25.446   8.696  27.695 -0.0173 -0.2030 -0.0671
55351W        W56215   9.910   5.840   1.216 -0.0026  0.1541  0.0517
55352W        W56216  16.402  23.300  27.289 -0.0943  0.0818  0.0498
55353W        W56217   9.431   1.340   8.174  0.2118  0.2084  0.0377
55354W        W56218  15.852   7.449  25.476  0.1577  0.1030  0.0322
55355W        W56219  23.319  17.587   1.407  0.0179  0.0135  0.1446
55356W        W56220  29.010  10.455  28.409  0.7295 -0.1786  0.2117
55357W        W56221   9.830   4.506   4.203 -0.0350  0.0735 -0.1272
55358W        W56222   8.111   3.661   5.261 -0.0757  0.1526 -0.1612
55359W        W56223  22.926  28.735  22.970 -0.3515  0.0101 -0.0393
55360W        W56224  27.118   1.955  25.272 -0.1253 -0.4543 -0.0725
55361W        W56225   0.687  22.034   7.123 -0.1442  0.0543 -0.0692
55362W        W56226   4.766   3.373   3.889  0.0001  0.0126  0.1065
55363W        W56227  18.929   5.079   7.507 -0.2395  0.1149  0.1267
55364W        W56228   3.291   6.606  28.354 -0.2014 -0.1187 -0.0437
55365W        W56229   8.787  26.508  16.008  0.1922  0.0735  0.0853
55366W        W56230  10.414  12.872   9.214 -0.0941  0.0432 -0.1053
55367W        W56231  10.583  15.559  25.120  0.3801 -0.1895  0.0628
55368W        W56232  13.626  20.947  12.141 -0.2735 -0.0213 -0.3858
55369W        W56233  19.136  17.468  20.612  0.3028 -0.0947 -0.0846
55370W        W56234  11.829   0.203   2.818  0.3291 -0.2449  0.0255
55371W        W56235  28.872   7.071  14.922  0.1678  0.0385 -0.0221
55372W        W56236  12.693  24.122  15.607  0.0854 -0.0557  0.0421
55373W        W56237   9.135  10.771  20.986  0.0208 -0.0144 -0.3050
55374W        W56238  13.422   9.726  14.498  0.0746 -0.0470 -0.2424
55375W        W56239  26.006  25.921  18.576 -0.1236 -0.2630 -0.0351
55376W        W56240  17.061  26.481  19.804  0.2238  0.3346  0.3325
55377W        W56241   6.078   8.518  18.909  0.1562  0.2627 -0.0909
55378W        W56242   9.094   3.695  13.072 -0.1477  0.1576 -0.2140
55379W        W56243   1.823  17.511   9.653 -0.0386  0.1012 -0.0705
55380W        W56244  10.148  21.561   7.720 -0.1579 -0.0664  0.2464
55381W        W56245  19.184  16.933  12.250 -0.0325  0.0620  0.0095
55382W        W56246   0.439  26.405  25.804  0.1718 -0.0848  0.0763
55383W        W56247   5.143  14.151  13.502 -0.0356 -0.0000  0.0928
55384W        W56248  14.632   8.736   8.975  0.3357  0.1847 -0.0331
55385W        W56249   4.350   4.476  21.265  0.0154  0.0261 -0.0942
55386W        W56250   8.448   8.344  19.027 -0.0474  0.1501  0.1473
55387W        W56251   5.883  26.905   6.458  0.1187 -0.2360 -0.1859
55388W        W56252  13.673   1.244   6.232  0.0423 -0.1917 -0.1904
55389W        W56253  11.057   6.025   6.012 -0.1282 -0.1164 -0.3242
55390W        W56254   1.510  16.478  12.989 -0.0420  0.3666 -0.2613
55391W        W56255  28.475  25.276  13.942  0.2142  0.2706 -0.0404
55392W        W56256  13.900  13.313   1.564 -0.0727 -0.1571  0.1638
55393W        W56257  12.822   4.291   5.366  0.1157  0.0371 -0.1615
55394W        W56258   0.187  19.458  16.637  0.1139 -0.2278 -0.0416
55395W        W56259   7.801   3.919  10.910  0.3356 -0.0612 -0.0787
55396W        W56260   4.748  28.077   1.629  0.2852 -0.2012 -0.0656
55397W        W56261  24.718   0.781  14.301 -0.0814  0.0902  0.0636
55398W        W56262  23.604  21.278   7.003 -0.3010  0.2452 -0.3154
55399W        W56263   8.714  15.097   1.243 -0.1956  0.3923 -0.1875
55400W        W56264   0.858  12.748   7.118 -0.3027  0.0402  0.2175
55401W        W56265   6.062   5.880  15.276 -0.0531  0.0728  0.0599
55402W        W56266   2.423   3.843  12.067 -0.2120  0.1270  0.1747
55403W        W56267  16.308   7.673  11.009 -0.2233 -0.1895  0.2121
55404W        W56268  19.874  18.766  24.994  0.1751  0.2235  0.0153
55405W        W56269  23.274  19.530  21.388 -0.0567 -0.2107  0.0023
55406W        W56270   5.644   5.014  11.535  0.2508 -0.2620  0.0297
55407W        W56271   0.845  28.725  13.735 -0.0653  0.0910 -0.1421
55408W        W56272  26.941  21.495  10.679  0.0770 -0.1133 -0.0593
55409W        W56273  15.553  22.867  12.041 -0.0406 -0.1550 -0.0960
55410W        W56274  14.311   5.904   8.715 -0.2570  0.0281  0.1627
55411W        W56275  21.595  26.994   1.005 -0.0184 -0.3887 -0.0319
55412W        W56276  10.047  12.250  16.136  0.1517  0.0911  0.0707
55413W        W56277   2.614   7.602  14.705  0.0720 -0.1144 -0.2601
55414W        W56278  12.472   0.262  20.026 -0.0294  0.0802 -0.0806
55415W        W56279  24.160   6.985  13.586 -0.1416 -0.1955 -0.3567
55416W        W56280   9.122  23.807  16.209 -0.0889  0.1646 -0.0086
55417W        W56281  26.945  23.134  25.068  0.0254 -0.0963 -0.0877
55418W        W56282  13.531  19.116   3.184  0.3806  0.0484  0.0618
55419W        W56283   4.440  14.232   0.300 -0.2352  0.4733  0.1049
55420W        W56284   5.205   9.412   7.798  0.2581 -0.1094 -0.2753
55421W        W56285   4.432  23.178  16.422  0.1105 -0.0099  0.0713
55422W        W56286  12.287   0.522  12.633 -0.0111 -0.2006 -0.0750
55423W        W56287  20.697  15.993   1.747 -0.1678 -0.0358 -0.0049
55424W        W56288  11.046  17.257  11.299  0.0017 -0.0288 -0.4387
55425W        W56289   7.079  27.329   7.039 -0.1309  0.1072 -0.2453
55426W        W56290   0.410  22.075  18.626 -0.0089  0.0657  0.2094
55427W        W56291   0.264   6.220  21.297 -0.0874  0.2533  0.4154
55428W        W56292   2.842  23.813  15.041 -0.0316  0.0643  0.0067
55429W        W56293  14.048  13.128  26.584  0.3033 -0.1050 -0.0419
55430W        W56294  19.571  23.753  17.432 -0.0844  0.2305  0.0444
55431W        W56295  20.793   4.574  28.794  0.3024 -0.1911  0.0355
55432W        W56296   9.714   4.450   5.574 -0.1969  0.1283  0.1683
55433W        W56297   6.379  24.576  22.311  0.2101  0.0484  0.0194
55434W        W56298  14.527  22.959   8.115 -0.1983  0.3925  0.0819
55435W        W56299   5.123  27.938   8.007 -0.3806 -0.0917 -0.2296
55436W        W56300   8.884   6.773  18.284  0.0105 -0.0743 -0.1291
55437W        W56301   9.751   3.760   7.831  0.1630 -0.0157  0.0171
55438W        W56302  16.569  13.554   1.759  0.0062  0.0126  0.0823
55439W        W56303   1.503  13.649  12.678  0.0621  0.0286 -0.0739
55440W        W56304   2.656   9.158   0.680  0.0650  0.1391 -0.1967
55441W        W56305  11.538   7.619  14.070 -0.0652 -0.1429 -0.2964
55442W        W56306  22.605  27.695   8.566  0.1331 -0.1048 -0.2566
55443W        W56307  15.033   6.574  12.753  0.0313 -0.0617 -0.3691
55444W        W56308   9.803  13.648  13.189 -0.2442 -0.0176  0.1648
55445W        W56309  12.801  28.544  15.953  0.2315 -0.1436 -0.2488
55446W        W56310  14.810  10.352   7.846  0.3340  0.2268  0.0088
55447W        W56311   7.220   7.002  19.363 -0.1308  0.2025  0.0300
55448W        W56312  15.960   8.553   8.496  0.0356 -0.1057 -0.2328
55449W        W56313  10.220   7.297  10.884  0.0298 -0.0824 -0.0854
55450W        W56314   8.786   0.056  14.497 -0.1219 -0.1930  0.0555
55451W        W56315  16.554  22.033  12.325 -0.0993 -0.0737 -0.1525
55452W        W56316  12.934   7.562   5.266 -0.2114 -0.1873 -0.2822
55453W        W56317  16.875  19.540  25.386  0.1022  0.1399  0.0987
55454W        W56318  20.475  22.376  18.324  0.0165 -0.0518  0.0189
55455W        W56319  15.187  25.812  28.402  0.0878 -0.0491  0.1010
55456W        W56320  27.991  26.701  14.034  0.2876  0.2443  0.5202
55457W        W56321  25.721   8.974  22.588  0.1710  0.0256 -0.0234
55458W        W56322  10.379   8.819  17.619  0.0795  0.0491 -0.4288
55459W        W56323   2.736   0.036  18.370 -0.0765 -0.1789 -0.3774
55460W        W56324   0.290  12.927   1.862 -0.1264  0.1319  0.2779
55461W        W56325  12.818   9.067  12.879 -0.2374  0.0439  0.1142
55462W        W56326   1.611   6.802  26.667  0.0680  0.0673 -0.0936
55463W        W56327  23.789   4.551  18.831  0.0452  0.0649 -0.2436
55464W        W56328  17.897   3.950  23.144 -0.0097 -0.0368 -0.1072
55465W        W56329  26.072   5.959  11.297  0.1258  0.4136 -0.1157
55466W        W56330   6.217   4.231  11.777  0.2277 -0.1797  0.0721
55467W        W56331   6.857  25.062   2.296 -0.0425  0.1207 -0.0342
55468W        W56332  21.390  24.601  18.310  0.0025 -0.1058  0.1988
55469W        W56333  17.488   2.596  10.308  0.0763 -0.0559  0.0905
55470W        W56334   8.595   5.727  11.484 -0.0056  0.0450  0.1218
55471W        W56335  20.503   1.768   7.983 -0.0436  0.3449 -0.1439
55472W        W56336  25.962  17.346  11.914  0.0150  0.2084  0.0317
55473W        W56337   0.096  20.377   5.387  0.3020 -0.2760  0.0749
55474W        W56338   9.102   8.732  28.014 -0.1203  0.0337 -0.0112
55475W        W56339   5.910  19.238   4.811 -0.3109  0.2318  0.2255
55476W        W56340   0.129   0.243  28.697  0.3020 -0.0197 -0.2272
55477W        W56341   6.684   3.008  11.902  0.2072  0.2126 -0.1246
55478W        W56342  21.237   3.900  22.138  0.0562 -0.2556 -0.1082
55479W        W56343  27.421  19.506  28.631 -0.0486  0.4374 -0.0034
55480W        W56344  23.036   1.468   5.757 -0.0431 -0.2412 -0.1012
55481W        W56345  28.570  25.497  18.499  0.0721 -0.2151 -0.2683
55482W        W56346  16.154  15.055  17.664 -0.3523 -0.2262 -0.0690
55483W        W56347  12.631  24.082   9.806  0.2582  0.2818  0.1037
55484W        W56348  25.233  19.127  12.707 -0.2599  0.2050  0.1270
55485W        W56349   5.273   5.654  10.463  0.0044  0.3936  0.1298
55486W        W56350   9.670   7.607  10.023  0.1472  0.0748 -0.1223
55487W        W56351  11.935  24.903  11.103  0.2161  0.2515  0.1293
55488W        W56352  12.975  13.270  25.536 -0.0310  0.0555  0.2422
55489W        W56353  13.748   9.315  13.568 -0.0276  0.1453 -0.0040
55490W        W56354  24.013  12.679   0.526  0.0519  0.2901  0.0230
55491W        W56355  23.470   1.843   3.284 -0.3024 -0.0168 -0.3535
55492W        W56356  10.138  17.539  11.653  0.0005  0.2007 -0.0428
55493W        W56357  14.146   2.009  23.027 -0.1563 -0.1551  0.1323
55494W        W56358  20.968  16.763   5.493 -0.1539 -0.0033  0.3044
55495W        W56359  26.372   9.149   0.623  0.1337  0.1374  0.0840
55496W        W56360  10.051   7.208   0.722  0.0987 -0.2970  0.0487
55497W        W56361   4.509  25.477  16.679 -0.3097  0.1149 -0.3305
55498W        W56362  15.466  14.377   1.856 -0.1047  0.2903  0.1198
55499W        W56363   7.611  13.358   5.164  0.0046 -0.0327  0.0582
55500W        W56364  13.919   0.506  21.778  0.0029  0.0765 -0.2106
55501W        W56365  22.452  16.232  13.236 -0.3223 -0.1598  0.0217
55502W        W56366   2.708   2.448   3.512 -0.1815  0.3139 -0.0771
55503W        W56367  19.754   5.586   4.765 -0.1072  0.0435 -0.2316
55504W        W56368   0.958  28.504   4.488 -0.1141  0.0766  0.0768
55505W        W56369   4.698  18.329  15.204  0.1379  0.2858 -0.1978
55506W        W56370  20.522   7.987   0.035  0.1355 -0.0668  0.2292
55507W        W56371  18.801  23.575   1.823  0.1292 -0.0058  0.2877
55508W        W56372   0.584  11.412  21.322 -0.0203 -0.0699  0.0918
55509W        W56373  23.893  24.987   5.125  0.2340  0.2497 -0.1082
55510W        W56374   3.952  21.618  15.042  0.1706 -0.1045  0.0028
55511W        W56375   5.026  20.903  13.330 -0.0420  0.4451 -0.0241
55512W        W56376  29.006  14.255  28.083  0.0215 -0.1836 -0.1454
55513W        W56377  21.419   2.686  12.543 -0.1400 -0.2393 -0.1058
55514W        W56378  16.363   3.352  24.793  0.2419 -0.0129  0.1692
55515W        W56379   6.014  25.786  28.447  0.1365 -0.0196  0.1998
55516W        W56380   4.356   6.105   2.859  0.2673  0.0704 -0.0676
55517W        W56381  19.199   4.357  21.559  0.3213  0.2093 -0.3426
55518W        W56382  27.575  14.615   7.222  0.0578 -0.0047  0.3572
55519W        W56383  12.927  11.517  22.638 -0.2210  0.1267  0.1686
55520W        W56384  11.816  15.296   4.747 -0.1612  0.4426  0.1281
55521W        W56385  11.955   7.791  11.346  0.1204  0.2847 -0.1706
55522W        W56386  22.215   5.501  25.814  0.0028  0.0164  0.0136
55523W        W56387  21.522   3.224  21.455  0.1148 -0.0819  0.0978
55524W        W56388  26.846  22.007   2.318 -0.0113  0.4329  0.4826
55525W        W56389  19.023  18.267  12.694 -0.1954 -0.0535  0.0422
55526W        W56390   6.905  26.620  15.307 -0.0011 -0.1604 -0.1200
55527W        W56391   2.733  27.289   6.407 -0.1397 -0.2064  0.1530
55528W        W56392  13.973   8.346   1.482  0.1627  0.1359  0.1383
55529W        W56393   0.446   2.914  15.570  0.1888 -0.0122 -0.0782
55530W        W56394   9.934  28.383  26.004 -0.2681 -0.0311 -0.0270
55531W        W56395  23.540  21.450  25.185 -0.0672  0.0586 -0.0623
55532W        W56396   4.737  13.589  24.990 -0.1257  0.1029 -0.1724
55533W        W56397   2.201   3.853   9.345 -0.1476  0.1163 -0.0993
55534W        W56398   2.265  12.080   4.694 -0.1378 -0.1115  0.1376
55535W        W56399   6.319   3.193  23.058  0.0383  0.0329  0.0293
55536W        W56400  23.394  27.932   1.039 -0.0912  0.2117  0.0708
55537W        W56401   7.129  16.757  15.603  0.2515  0.1264  0.1873
55538W        W56402  18.882  24.604   2.432  0.0778  0.2537  0.0863
55539W        W56403   1.216   9.537  18.056 -0.0449 -0.2155 -0.1476
55540W        W56404   0.852   5.872   1.264 -0.2410  0.0746  0.5375
55541W        W56405  28.021   3.435   3.099  0.1589 -0.2106  0.0320
55542W        W56406   4.085  17.276  15.213  0.2745 -0.1001 -0.0358
55543W        W56407   3.488  10.632  23.629 -0.0083 -0.2994  0.0273
55544W        W56408  16.775  24.297  10.317  0.1350  0.1967  0.0683
55545W        W56409   3.810   7.398  21.529  0.0524 -0.0751 -0.1142
55546W        W56410  15.468  16.048   2.441 -0.2299  0.0207  0.1322
55547W        W56411  17.276  22.154  21.445 -0.1493  0.1975 -0.0568
55548W        W56412   7.301   5.633  18.729  0.1646  0.1326  0.2259
55549W        W56413  11.048   6.056   4.460  0.2202 -0.2900  0.0399
55550W        W56414   9.746  21.533  18.348  0.0204 -0.1190 -0.0653
55551W        W56415   9.565   3.651   0.644 -0.3632 -0.1015 -0.2733
55552W        W56416  11.449   7.341   6.198  0.1379 -0.2893  0.2691
55553W        W56417   3.823  10.273   9.995 -0.4886  0.1305  0.3255
55554W        W56418   8.635   6.747  19.185  0.1099 -0.1749  0.1538
55555W        W56419  10.278  27.745  27.808 -0.2357  0.1038 -0.0580
55556W        W56420  11.248  26.571   7.833 -0.1312 -0.0404  0.1011
55557W        W56421  26.475  23.323   1.108 -0.0061  0.2301  0.0993
55558W        W56422  28.355  27.641  15.353  0.2593  0.1506 -0.4664
55559W        W56423  12.270   1.863  24.187  0.1362  0.0724 -0.0408
55560W        W56424  11.792   6.251  20.027  0.0636 -0.0822 -0.0199
55561W        W56425  10.510  11.176   6.727  0.1718 -0.1529 -0.2315
55562W        W56426   9.697  11.750  14.064 -0.1197 -0.2957  0.0850
55563W        W56427  19.254  15.751   1.100  0.1667  0.5737 -0.0497
55564W        W56428  19.833   7.501  21.594 -0.2634  0.1129  0.0300
55565W        W56429  16.279  13.576  22.674 -0.0593  0.2249  0.0320
55566W        W56430  19.276   5.696  22.052  0.2890  0.0659 -0.2538
55567W        W56431  16.188  11.226  12.061  0.1363  0.4419  0.2588
55568W        W56432  19.379   7.840  26.452  0.2305 -0.0392  0.0576
55569W        W56433  14.854  14.331  13.314  0.5923  0.3435 -0.0583
55570W        W56434   4.523   5.520   9.013 -0.3694  0.1928 -0.2698
55571W        W56435   2.252  24.965  10.765 -0.1538  0.3323  0.0073
55572W        W56436   7.088  20.611  17.437  0.1389  0.1047 -0.1655
55573W        W56437   0.539  11.850   5.818 -0.2676 -0.1000  0.2678
55574W        W56438   8.549   5.477  10.126 -0.0268 -0.1062  0.1592
55575W        W56439  12.299   5.592  26.672 -0.0886 -0.2189  0.0174
55576W        W56440  27.976   9.664  24.811  0.0938 -0.1347 -0.0789
55577W        W56441   0.247   2.200  16.245 -0.0305  0.4248 -0.0386
55578W        W56442   9.404  15.714  21.782  0.2196 -0.0485  0.1470
55579W        W56443  12.246  24.724   1.044 -0.1381  0.1070 -0.0319
55580W        W56444   5.502  12.572  20.498  0.0347  0.5091  0.1818
55581W        W56445  29.125  13.333   5.838 -0.2220  0.0724 -0.1919
55582W        W56446  23.118   2.147  12.336  0.2552  0.2696 -0.0961
55583W        W56447   5.348   0.293  26.217 -0.2310  0.0789 -0.0183
55584W        W56448  20.022   3.208   4.136 -0.0689 -0.2567 -0.2303
55585W        W56449  17.878   9.698  29.117  0.0164  0.2810  0.0068
55586W        W56450  27.247  17.432   2.625 -0.2635  0.3893  0.0140
55587W        W56451  15.830   2.656  16.232  0.1124 -0.0836  0.1163
55588W        W56452   1.288   6.339  20.954 -0.6931 -0.0555 -0.0141
55589W        W56453   8.712   7.743  25.219 -0.0516  0.0165 -0.0933
55590W        W56454  11.806   9.251   4.100  0.0328 -0.0589 -0.0150
55591W        W56455   4.696  21.803  24.752 -0.0992  0.2883  0.1348
55592W        W56456  19.910   8.793   8.368 -0.1516  0.3844  0.2861
55593W        W56457  13.806   6.143   6.153 -0.2269 -0.1304  0.2431
55594W        W56458   4.591   6.178  28.321 -0.1128 -0.0541  0.1401
55595W        W56459   4.608  16.341  13.189  0.0638  0.1429  0.2176
55596W        W56460  15.369  25.040   1.210  0.1475  0.2974 -0.1873
55597W        W56461  19.726   8.254  13.660  0.2226 -0.0853 -0.2751
55598W        W56462  23.255  15.289  27.607  0.0588  0.0580  0.0962
55599W        W56463  14.257  15.847   4.931  0.1609 -0.0784 -0.2269
55600W        W56464  10.212  15.504  14.663 -0.2086 -0.3566 -0.2165
55601W        W56465  22.201   9.668   6.723 -0.1769  0.2411 -0.1171
55602W        W56466   6.879  24.860   1.813  0.0108  0.1981 -0.1350
55603W        W56467   2.469  22.805  26.881 -0.0365  0.1549  0.0876
55604W        W56468  19.150  18.716  26.064 -0.2854  0.0038  0.0104
55605W        W56469   5.287   8.636   9.868  0.0039  0.4308 -0.0057
55606W        W56470  20.118   3.634  19.460 -0.3852  0.0888  0.1646
55607W        W56471   1.667   3.086  21.796 -0.2161  0.1727 -0.1600
55608W        W56472  14.374  10.929   6.673  0.0500  0.1174  0.0134
55609W        W56473  26.082  20.089   6.882 -0.2349  0.2612  0.1071
55610W        W56474  17.738  15.446  11.456 -0.2136  0.0829 -0.1224
55611W        W56475   0.385   6.028  27.144  0.0772 -0.0535 -0.2477
55612W        W56476  19.175  25.994   7.490 -0.3712  0.1722  0.2514
55613W        W56477  10.817  19.567  16.583  0.2523 -0.1225  0.0431
55614W        W56478  11.434  27.301   3.194 -0.1301 -0.2469  0.1098
55615W        W56479   1.682   5.767  16.810  0.0589  0.1610 -0.2085
55616W        W56480  27.049   1.655   6.677  0.4875  0.0828  0.1840
55617W        W56481  17.235  14.072  13.028  0.0548  0.1587 -0.2706
55618W        W56482  14.460  25.656  15.392 -0.1109  0.0226  0.2614
55619W        W56483   7.723  27.690  10.758  0.1613 -0.2053 -0.0287
55620W        W56484   7.977   9.495   5.728  0.3193  0.0478 -0.0950
55621W        W56485   8.132  25.361  18.320  0.0791 -0.2995  0.3048
55622W        W56486  16.251   4.177  11.359  0.2033  0.2099 -0.0179
55623W        W56487  15.640  20.954  19.402  0.1273  0.0279 -0.1537
55624W        W56488   0.885  14.404  15.225  0.0863 -0.0873 -0.2751
55625W        W56489  12.191  19.812  17.797  0.1258 -0.1463  0.1876
55626W        W56490  28.008   5.338   5.884  0.0586 -0.1492  0.0150
55627W        W56491  12.206   4.183   3.725  0.1101  0.2361  0.4666
55628W        W56492   8.087   1.735  17.088 -0.1297  0.0026 -0.0553
55629W        W56493   3.726   4.733  12.935  0.1602  0.2675  0.1310
55630W        W56494  18.838   4.079  20.279 -0.0314 -0.0075 -0.1456
55631W        W56495  21.109  19.797  17.572  0.0521 -0.1364 -0.1649
55632W        W56496  13.596  21.366   2.171  0.1458 -0.1082 -0.3592
55633W        W56497   6.493   0.183  16.379  0.0864  0.2737  0.2130
55634W        W56498   9.844   7.694   6.461 -0.2128  0.0154 -0.0018
55635W        W56499  14.277  23.709  11.724 -0.1157  0.3694 -0.0483
55636W        W56500   8.322  15.889   0.203 -0.0712  0.0531  0.0444
55637W        W56501  20.715  17.760   1.541 -0.1335  0.2153 -0.2443
55638W        W56502   5.303   6.789   5.080 -0.0989 -0.1708  0.0703
55639W        W56503  27.187   8.084   6.952  0.2317 -0.0334 -0.0614
55640W        W56504  12.994   8.021   3.751 -0.1830  0.0882 -0.1845
55641W        W56505  19.263  25.274  11.703  0.2599 -0.1620  0.0150
55642W        W56506  22.446   2.507   6.498 -0.1829  0.1450 -0.0715
55643W        W56507   9.192   4.670  22.237 -0.2006  0.2822  0.1979
55644W        W56508   8.522   8.300   6.680  0.0814 -0.1349  0.1857
55645W        W56509  13.777   5.869  28.052  0.0986  0.1474 -0.0186
55646W        W56510  20.267   3.656   7.409  0.1864 -0.0719 -0.2732
55647W        W56511  11.919  28.159  14.885  0.0955 -0.2253  0.0999
55648W        W56512  25.895   3.177  22.051  0.2837  0.0164  0.1648
55649W        W56513   6.234   1.625  24.689  0.0377 -0.3947  0.0697
55650W        W56514   1.152   4.763   9.444 -0.1437  0.1433  0.0196
55651W        W56515   9.066   4.866  28.897  0.1511 -0.0024 -0.2194
55652W        W56516  10.901  17.924  11.843 -0.0967  0.2113  0.1478
55653W        W56517  17.029  28.341  13.981 -0.0407 -0.0604 -0.0193
55654W        W56518  20.449   1.295   6.626 -0.0408 -0.3438  0.1728
55655W        W56519  13.363  17.334   7.813  0.0413  0.3595 -0.0065
55656W        W56520   8.089   0.263  17.935  0.1651  0.0086  0.0417
55657W        W56521   0.951  28.560  21.361 -0.0538 -0.1705  0.1178
55658W        W56522   4.938   6.295  14.511  0.1688  0.0726 -0.1045
55659W        W56523   4.748  25.538  11.776  0.0032  0.0776 -0.0061
55660W        W56524  19.870  12.450  20.321  0.1544 -0.2709  0.1042
55661W        W56525  18.230  23.482  17.220  0.2971 -0.3666  0.3062
55662W        W56526  18.666  19.469   4.993 -0.2991 -0.5271  0.1342
55663W        W56527   0.194  27.884   1.368 -0.0689 -0.0019 -0.0258
55664W        W56528   9.665   4.944   6.873  0.0280 -0.2203  0.0505
55665W        W56529  23.444  15.691  28.848  0.1501 -0.1971  0.0267
55666W        W56530  10.224   9.244  13.958 -0.1014 -0.2336 -0.3742
55667W        W56531  12.235  14.596  15.437 -0.0655  0.0640  0.1306
55668W        W56532  21.871   5.705   9.274 -0.1754 -0.1257  0.1844
55669W        W56533   4.844   0.898  17.853 -0.3315 -0.2142  0.0376
55670W        W56534   2.250  22.342   8.384 -0.1274  0.0361  0.2537
55671W        W56535   3.435   4.899  21.704  0.1211  0.2098 -0.0814
55672W        W56536   8.061   4.451   0.394  0.2589  0.1576  0.2326
55673W        W56537  13.896   1.767  18.671 -0.1225  0.0479  0.0067
55674W        W56538  25.385   2.470  23.345  0.1895  0.0022  0.2835
55675W        W56539  27.682  10.793  10.739  0.3719  0.1036 -0.3838
55676W        W56540   2.867  14.675  13.395 -0.0766 -0.0262  0.0643
55677W        W56541   4.010  11.257  25.067  0.0321 -0.0444  0.5487
55678W        W56542   8.967  12.340  21.629  0.1379  0.1008  0.0382
55679W        W56543  10.689   1.162  10.297  0.0167 -0.0900  0.3944
55680W        W56544   9.614  18.407   6.595  0.0427  0.0276  0.1901
55681W        W56545  15.586  11.985  15.438  0.0789  0.1092  0.1012
55682W        W56546  13.749  26.510  19.310  0.1036  0.1980 -0.3080
55683W        W56547  16.134  24.746  28.313 -0.2344  0.2139 -0.0198
55684W        W56548  13.241   9.474   1.578  0.0088  0.0943 -0.0804
55685W        W56549   8.414   7.889   6.190  0.0778  0.4712 -0.0928
55686W        W56550   4.221  16.021  18.980 -0.2127 -0.1312  0.1712
55687W        W56551  17.562   7.596   9.444  0.0020 -0.3044  0.2640
55688W        W56552  15.693   4.466  11.364 -0.0525 -0.2506  0.2166
55689W        W56553  14.247   9.562  27.099  0.3359 -0.0223  0.0866
55690W        W56554   6.153  25.867  23.578  0.0332  0.0275  0.0591
55691W        W56555  13.672   8.741  24.362 -0.1511 -0.0200 -0.1599
55692W        W56556   7.163  15.276  13.132  0.2046  0.2588  0.0039
55693W        W56557   5.479   0.051   0.790  0.0967 -0.1449  0.5025
55694W        W56558  16.964  25.887  25.216  0.1251  0.0378  0.1839
55695W        W56559  27.194  14.906   3.884 -0.2835 -0.2613 -0.0115
55696W        W56560   5.265  15.687   1.909  0.0155 -0.1473  0.3705
55697W        W56561  15.803  25.277   4.485 -0.2527 -0.1891  0.2965
55698W        W56562  16.231  16.827   7.217  0.3567 -0.0900 -0.1329
55699W        W56563   7.430  26.467   4.650  0.2411 -0.1702  0.0637
55700W        W56564  17.041  10.381  14.251  0.1015  0.1888 -0.2379
55701W        W56565  12.879  10.306   2.950  0.1123 -0.0590  0.1112
55702W        W56566  22.626   2.654   2.507 -0.1604  0.0657 -0.1899
55703W        W56567  19.549   1.890  22.786  0.1610 -0.0058 -0.0037
55704W        W56568  20.024   4.607  20.462 -0.1518  0.0136  0.3825
55705W        W56569  20.829   6.686  11.768  0.4304  0.1876 -0.1336
55706W        W56570  16.562   6.282  23.504  0.1611 -0.0914 -0.0932
55707W        W56571  19.597   4.964   7.341 -0.1408  0.3327 -0.3240
55708W        W56572   0.594  25.019  14.648  0.1270  0.1720  0.1233
55709W        W56573  24.123   2.861   5.098 -0.1574 -0.2107 -0.1171
55710W        W56574  12.473   6.981  26.517  0.0130  0.3352  0.0378
55711W        W56575  23.792   3.645  14.485 -0.1669 -0.3902  0.0885
55712W        W56576  17.014   5.999  28.719  0.0106  0.3188 -0.0741
55713W        W56577  24.838   8.516   4.550 -0.1795  0.1339  0.2738
55714W        W56578  16.525   1.349   1.681 -0.0926 -0.0842 -0.2231
55715W        W56579   4.374  15.702  27.187  0.0246 -0.1176 -0.1486
55716W        W56580   3.832  22.623  10.933 -0.1348  0.0990  0.0546
55717W        W56581   7.383  22.220  23.726 -0.0657  0.1629  0.2720
55718W        W56582  23.140  27.275  22.070  0.1452  0.0941  0.2756
55719W        W56583  26.534   2.231   5.093 -0.2995  0.0625  0.3682
55720W        W56584   9.067   8.453   6.085  0.2904 -0.0208  0.1609
55721W        W56585  15.047   4.464   2.963 -0.0769 -0.1517  0.2597
55722W        W56586   7.405   3.691   9.186  0.1381 -0.3429  0.3842
55723W        W56587  14.206   3.183  11.821 -0.0896  0.0085 -0.0019
55724W        W56588  12.969  11.950   9.392 -0.2817 -0.0912 -0.0626
55725W        W56589   9.372  10.118   6.915 -0.0657  0.1648  0.3494
55726W        W56590  18.087   8.807   3.169 -0.1389 -0.1399 -0.0058
55727W        W56591   6.165  24.118   2.896 -0.0122 -0.0561 -0.4943
55728W        W56592  10.678  23.761  22.753  0.4096  0.2464 -0.1779
55729W        W56593   7.354  23.368  27.209  0.0951 -0.0575 -0.2104
55730W        W56594   9.998  12.911  17.453  0.0784 -0.2175 -0.3450
55731W        W56595  24.048  14.593   2.398  0.3830  0.0366 -0.2289
55732W        W56596  18.346  13.090  22.420  0.0930  0.1153  0.1146
55733W        W56597  18.124  12.563   2.416  0.1391  0.2756  0.0046
55734W        W56598   2.971   8.115   8.055 -0.0545 -0.1529 -0.1980
55735W        W56599  25.784   0.752  10.762  0.2782  0.3934 -0.0648
55736W        W56600  13.111  26.184  15.644 -0.3911  0.0538  0.0466
55737W        W56601   8.770   4.294  26.161 -0.1802 -0.0807  0.0311
55738W        W56602   4.228  25.705   8.537 -0.0270 -0.1559  0.2554
55739W        W56603  20.905   4.579   6.099 -0.2915 -0.2014  0.2443
55740W        W56604  15.896  25.592   7.450 -0.0688  0.0424  0.0979
55741W        W56605  11.666  15.218  25.545  0.0959  0.0310 -0.0775
55742W        W56606  12.485  23.134   0.086  0.0101  0.0359  0.0248
55743W        W56607  11.201  25.817  28.033  0.2058  0.1812 -0.0802
55744W        W56608  12.906  26.430  28.250 -0.3872 -0.1308  0.2455
55745W        W56609  19.932  28.309  17.141 -0.1176 -0.0569  0.0350
55746W        W56610   9.936   8.639   9.277 -0.0898  0.0101  0.2384
55747W        W56611   4.420   9.313   4.914 -0.1551 -0.0144  0.0782
55748W        W56612  19.016   4.057   0.946  0.0786  0.2334  0.1056
55749W        W56613  11.488  15.241  10.850 -0.0672  0.1529  0.1857
55750W        W56614  21.631   8.958  12.332 -0.2103 -0.1115  0.0955
55751W        W56615  16.127  26.116  12.794  0.1847 -0.2060 -0.0759
55752W        W56616  11.841   4.641  27.954 -0.0325 -0.1137 -0.0528
55753W        W56617  19.853  24.295  13.658  0.2095  0.0526  0.2316
55754W        W56618   0.556   5.564  19.445  0.0139 -0.1347 -0.1931
55755W        W56619  15.058  23.314  11.111  0.2181  0.0499  0.1473
55756W        W56620   6.539   0.655  28.598  0.2960 -0.1536  0.0854
55757W        W56621  26.337  12.291  15.881  0.1055  0.2021  0.1557
55758W        W56622  21.774  20.062   0.850  0.0841  0.0797 -0.0675
55759W        W56623  14.376   6.452  13.437 -0.1832 -0.2309 -0.2176
55760W        W56624  28.977  23.279  10.168  0.0229  0.0903 -0.2936
55761W        W56625   8.962   4.486   9.071 -0.1612 -0.2615 -0.0657
55762W        W56626  27.140   6.613  26.276 -0.0709  0.2344 -0.2679
55763W        W56627   7.161   2.845  21.296  0.2291  0.3329  0.2741
55764W        W56628   7.229   3.609  21.942 -0.0449 -0.0482 -0.0789
55765W        W56629   3.908  23.222  17.075 -0.0020  0.2501  0.0807
55766W        W56630  13.659   0.345   7.282  0.1486 -0.0061  0.2471
55767W        W56631   0.374  18.330  28.725  0.1705  0.1975 -0.1437
55768W        W56632  14.233  12.901   3.686 -0.1554  0.0360 -0.0051
55769W        W56633   9.245  22.934   4.659  0.0622 -0.3619  0.2692
55770W        W56634   8.512   2.795  23.034  0.0566 -0.2930 -0.2087
55771W        W56635  17.008   5.936   2.106  0.1230 -0.2847  0.0312
55772W        W56636   9.027   2.335  27.926 -0.0590  0.0090  0.0605
55773W        W56637  15.128  16.335   4.915  0.0665 -0.2051 -0.0210
55774W        W56638  16.380   4.534   7.400  0.0927 -0.2978 -0.0158
55775W        W56639   7.625  18.199  10.060 -0.1085 -0.1571 -0.0932
55776W        W56640  16.220  17.108   6.783  0.6758  0.2465  0.0021
55777W        W56641  27.821  12.574  18.130  0.0975  0.1845  0.0540
55778W        W56642  24.494   2.207   1.492  0.2038 -0.2513  0.0875
55779W        W56643   9.439  26.142  26.696  0.2144 -0.1242  0.0485
55780W        W56644  17.765   2.714   0.010  0.1246  0.0117 -0.0200
55781W        W56645  24.150  12.956   1.470  0.4392  0.0770 -0.1839
55782W        W56646  15.961   7.034  17.931 -0.0957  0.0115  0.0191
55783W        W56647  11.407  15.024  15.813  0.0367 -0.0286 -0.1116
55784W        W56648   1.257  10.450   4.783 -0.1058 -0.4259  0.1215
55785W        W56649  20.850   2.829  16.091  0.0898  0.1538  0.3205
55786W        W56650   9.696   1.150  16.007  0.1900  0.0339  0.1723
55787W        W56651  10.031   1.434  16.250 -0.1053 -0.1315 -0.2497
55788W        W56652   8.956  14.388  13.622 -0.0869 -0.1603 -0.1712
55789W        W56653   2.329   6.298  16.692 -0.2600  0.1838  0.2035
55790W        W56654  11.103   4.486   2.274  0.2099  0.0550  0.2134
55791W        W56655   1.964  21.460  13.148 -0.3630  0.0388  0.0746
55792W        W56656  27.378  13.161  19.844 -0.1370  0.0421  0.0651
55793W        W56657  23.170  10.590   4.242  0.1368  0.5542  0.1522
55794W        W56658   9.714  15.495   6.254  0.0291  0.4065 -0.0434
55795W        W56659  12.237  25.384  17.636 -0.1490 -0.1317  0.1596
55796W        W56660   9.715  20.824   4.101 -0.1187  0.3168  0.0735
55797W        W56661   4.439  17.746  19.186 -0.1603  0.2328  0.1517
55798W        W56662  10.722   8.408   2.726  0.2335 -0.0470  0.3278
55799W        W56663   4.646  14.082  23.205  0.2114  0.1616  0.1188
55800W        W56664   7.759  26.814   2.659  0.0558  0.2771 -0.0066
55801W        W56665   4.625  26.358   9.620 -0.0114 -0.2077 -0.3754
55802W        W56666  13.495  27.181  13.625  0.2336 -0.0225  0.1429
55803W        W56667  13.642  26.274  13.466 -0.1653 -0.0298  0.0058
55804W        W56668  19.877  13.317   6.511  0.0031 -0.3249 -0.2442
55805W        W56669   2.963   3.756  17.843 -0.0950  0.1448  0.4379
55806W        W56670  28.433  15.566  13.128  0.2121 -0.0842 -0.1809
55807W        W56671  12.580   5.953   8.468 -0.0693  0.0044  0.1660
55808W        W56672  15.485  24.754  17.756 -0.1512 -0.1249 -0.0556
55809W        W56673   2.715   5.311  25.517 -0.3043 -0.2398  0.0110
55810W        W56674  26.247  18.173  15.294  0.1167  0.3499 -0.1143
55811W        W56675   6.895  11.798  14.713  0.3744  0.0403  0.2820
55812W        W56676  23.602   9.200   9.176 -0.0223  0.1483  0.2131
55813W        W56677  12.179   9.384  12.717  0.1287 -0.0019 -0.0103
55814W        W56678  26.695   8.703  20.364 -0.0406  0.4270 -0.1765
55815W        W56679  13.781   0.912  25.467 -0.2829  0.2165 -0.0505
55816W        W56680   4.469  12.705  10.424  0.1223  0.0824 -0.2916
55817W        W56681  17.795   8.685  18.361  0.0528 -0.0814  0.1446
55818W        W56682  21.268   7.178   5.154 -0.2557 -0.0624  0.1305
55819W        W56683  23.706  12.414  23.560 -0.0692  0.0081 -0.1059
55820W        W56684  18.727  11.426   9.121  0.1770 -0.1994  0.1769
55821W        W56685   7.791  19.172  23.021  0.1295 -0.2295  0.0045
55822W        W56686  22.748   7.775  12.761  0.0380  0.0103  0.2541
55823W        W56687   2.455  26.231  13.057 -0.0949  0.1838 -0.1383
55824W        W56688   4.940  18.905  10.568  0.0539  0.0685  0.0926
55825W        W56689   0.779   1.002  11.851 -0.0412  0.1782  0.0273
55826W        W56690   4.986   9.649  17.233  0.1158  0.0211 -0.0543
55827W        W56691  19.472   6.013  15.988 -0.0015  0.0895 -0.0157
55828W        W56692  25.788   1.054  25.410  0.0602  0.1998 -0.3673
55829W        W56693  15.347  16.291  16.537 -0.2363 -0.2397  0.1446
55830W        W56694  25.049  19.058  27.024 -0.0145  0.1816  0.1547
55831W        W56695   9.717   8.337  28.437  0.0990  0.1599  0.0873
55832W        W56696  13.167  25.402   5.352 -0.1427 -0.1541 -0.1036
55833W        W56697  12.523  22.979   7.043 -0.0031  0.0128  0.3864
55834W        W56698  21.110  22.463   3.542 -0.3182 -0.1240  0.0146
55835W        W56699   4.399   3.907  14.436 -0.0748 -0.0252 -0.2178
55836W        W56700  14.976   4.483  26.392  0.2949  0.1279 -0.0474
55837W        W56701   2.262   2.320   8.517  0.3278 -0.0257  0.1066
55838W        W56702  12.566  18.098   8.883  0.0535  0.2214 -0.0694
55839W        W56703  18.370   0.938   7.447  0.0257  0.1250 -0.1299
55840W        W56704  22.641  14.447   6.681  0.0928 -0.0111 -0.2356
55841W        W56705   0.438  11.357  25.654  0.3942 -0.1616 -0.0707
55842W        W56706  20.194   9.165  11.055 -0.3233 -0.0865  0.0121
55843W        W56707  12.504  11.299  16.313 -0.0967  0.1046  0.1544
55844W        W56708  24.164  23.793  17.255  0.1742 -0.3430  0.2391
55845W        W56709  26.692  21.724   6.398  0.2933 -0.3761  0.1046
55846W        W56710  26.176   3.836  20.512  0.0301  0.2432  0.1819
55847W        W56711  19.436  27.117   4.873 -0.0630  0.3536 -0.1368
55848W        W56712   2.564   4.988   1.986  0.1665  0.1049  0.1347
55849W        W56713  17.119   6.582   5.390  0.0351  0.1191  0.1194
55850W        W56714  19.241   3.143  11.606 -0.0430 -0.1827 -0.0556
55851W        W56715   1.853   1.740  11.445 -0.0909  0.1386  0.1487
55852W        W56716  16.361  20.779  24.697  0.0684 -0.2538  0.2136
55853W        W56717  12.621  15.406  14.658  0.1226  0.3628 -0.0432
55854W        W56718   6.698   4.866  13.698 -0.0879 -0.0366  0.3667
55855W        W56719  29.014  10.004  12.362  0.0611 -0.0596 -0.1591
55856W        W56720   3.836   3.678  11.471  0.0808 -0.0348  0.1058
55857W        W56721   3.545   2.311  18.605  0.1538 -0.1066  0.1270
55858W        W56722   1.224   1.982  10.606  0.3455 -0.1879 -0.1151
55859W        W56723   6.520  28.055   9.978  0.0498  0.5115 -0.1412
55860W        W56724  13.700  27.386  20.848 -0.4478  0.1907  0.0316
55861W        W56725   8.170   6.325   4.957 -0.0961  0.0612  0.0877
55862W        W56726   6.219  27.750   1.580  0.0195 -0.0002  0.1702
55863W        W56727  24.876   9.039   9.446 -0.1247 -0.3215 -0.1927
55864W        W56728  11.000   0.349  16.623 -0.0056 -0.2918 -0.2095
55865W        W56729  17.790  11.592  18.828  0.0496 -0.2127  0.3402
55866W        W56730  10.416  24.774  21.163 -0.0020 -0.1115  0.0833
55867W        W56731   8.947  13.293  20.522  0.2052 -0.1375 -0.1712
55868W        W56732  15.217   7.220  22.627  0.0265 -0.0464 -0.0315
55869W        W56733  10.551  10.298   1.082  0.1434  0.1536  0.2610
55870W        W56734  16.623  15.780   3.890 -0.0565 -0.1421 -0.0998
55871W        W56735  17.199   1.048  10.277  0.1146  0.0758  0.0318
55872W        W56736  11.493   4.485   7.249 -0.0902 -0.2092  0.2283
55873W        W56737  17.204   4.975  12.668 -0.0268  0.2284 -0.0891
55874W        W56738  20.705   6.342   1.312 -0.4257 -0.0551 -0.1130
55875W        W56739   0.706   7.155   4.988 -0.0628 -0.0210  0.3035
55876W        W56740  25.607  22.702   4.040  0.1056 -0.0002 -0.2852
55877W        W56741   2.312  15.533  11.747  0.1279 -0.1396 -0.0803
55878W        W56742  19.388  25.409   8.184  0.2739 -0.2348  0.1261
55879W        W56743  20.504  28.020   8.070  0.3751 -0.1047  0.0601
55880W        W56744  17.715   5.678  17.046 -0.1307 -0.0820 -0.3179
55881W        W56745  24.592  24.873   3.818  0.2822 -0.0453 -0.1520
55882W        W56746  15.693  15.483  28.798 -0.0516  0.0754 -0.3272
55883W        W56747   5.718   7.611  13.957  0.0797  0.5048 -0.2855
55884W        W56748  27.511  27.545   2.348  0.1095  0.0280  0.2142
55885W        W56749   5.995   0.448   7.288  0.1599 -0.0706  0.0094
55886W        W56750  21.645   0.994  16.977  0.0994  0.3426  0.1043
55887W        W56751   3.535  11.766  20.538 -0.1240  0.1537  0.0940
55888W        W56752  28.969   9.427   6.761  0.0521 -0.1753 -0.4270
55889W        W56753  27.150  11.673  28.568 -0.0166  0.0364  0.0554
55890W        W56754  19.063  13.812  12.092 -0.0203 -0.2937 -0.1208
55891W        W56755   8.498   3.369  16.650  0.0591  0.1004  0.0200
55892W        W56756  23.828  19.478  15.810  0.1023 -0.0032 -0.1721
55893W        W56757  20.440  13.762  15.029 -0.0595 -0.2855 -0.1988
55894W        W56758   1.457  14.932  15.551 -0.1288  0.0520 -0.1830
55895W        W56759  12.739  23.028  16.631 -0.1772 -0.3717 -0.3377
55896W        W56760  22.999  12.724  12.314  0.2641 -0.1869 -0.0941
55897W        W56761  27.151   1.256  22.207  0.4612  0.1031 -0.2768
55898W        W56762  27.195  18.994   1.017 -0.0043  0.1179  0.0732
55899W        W56763  14.355   2.989  23.840  0.0096 -0.1428 -0.1383
55900W        W56764   1.998  14.442  13.196  0.0291 -0.0495 -0.4231
55901W        W56765  27.740   9.798  21.614 -0.1155  0.0341 -0.2656
55902W        W56766   8.609  17.493   3.864 -0.0019 -0.2356 -0.1798
55903W        W56767  19.940   5.362  28.217  0.1318 -0.0883  0.1038
55904W        W56768  26.589  21.993  25.536 -0.0331 -0.0048  0.0996
55905W        W56769  23.333  26.242  12.373  0.0177 -0.1289 -0.1558
55906W        W56770   5.434   8.656   8.076  0.1023  0.0642  0.2793
55907W        W56771  12.449   3.283  26.571  0.1015 -0.0632  0.1200
55908W        W56772  27.257   0.671   1.191 -0.1143  0.1377 -0.1700
55909W        W56773  22.878  17.682  16.472 -0.1455  0.0269 -0.0525
55910W        W56774   4.269  19.380   2.828  0.1529  0.3293  0.0349
55911W        W56775  27.078  14.625   2.190 -0.1543  0.0277 -0.2662
55912W        W56776  13.380  18.459   2.761 -0.0708 -0.0382  0.4107
55913W        W56777  15.244  11.404   9.467 -0.1770 -0.2360  0.0482
55914W        W56778   7.821   7.852  18.815 -0.1096  0.2768  0.2042
55915W        W56779  17.814  27.871   5.211  0.0487 -0.2677  0.0598
55916W        W56780  20.376  11.072  24.355  0.0313  0.0141 -0.1045
55917W        W56781  23.108  12.153   2.222 -0.0681  0.0603 -0.1116
55918W        W56782   0.662   5.724  13.975  0.1456  0.0359  0.1507
55919W        W56783  26.348   5.715  16.082 -0.1481 -0.0236  0.2309
55920W        W56784   0.731  26.508   3.588 -0.0155 -0.0362 -0.2307
55921W        W56785  13.632   8.801  13.399  0.3108 -0.2471  0.1767
55922W        W56786   3.482  25.603  20.610  0.2002 -0.0861  0.0986
55923W        W56787  13.211   8.247   8.889  0.2221  0.2832  0.1846
55924W        W56788   2.814   0.490   6.803  0.0677 -0.1102  0.1076
55925W        W56789  12.233   6.942   7.634 -0.1121 -0.0036  0.1233
55926W        W56790  10.197   9.941  18.225 -0.0522  0.1754 -0.2899
55927W        W56791  19.321  15.426   8.528  0.0913 -0.1605 -0.0609
55928W        W56792  27.949  15.849   6.956 -0.1731  0.0520  0.1783
55929W        W56793  20.342  27.982   1.439  0.0224 -0.0688  0.3787
55930W        W56794  28.345   9.994   6.828 -0.1969  0.0199  0.2579
55931W        W56795  10.897  20.217  24.079 -0.1275  0.4197 -0.1054
55932W        W56796  26.031  25.395  19.130 -0.2553 -0.0082 -0.1480
55933W        W56797   5.032  24.498  20.623  0.0835  0.0819 -0.0446
55934W        W56798  20.477  25.746  13.497  0.2168 -0.0169  0.2707
55935W        W56799  21.404  12.934  21.212  0.2517  0.4744 -0.0105
55936W        W56800  14.038   3.971  28.998 -0.2683 -0.0808  0.0708
55937W        W56801  28.062  17.922  25.702  0.1332  0.0432  0.1568
55938W        W56802  10.964   3.292   2.783  0.0329 -0.1424 -0.2170
55939W        W56803   3.856   6.020   3.123 -0.3509  0.1089  0.0493
55940W        W56804   3.592  13.444   4.210 -0.1923  0.3132  0.0582
55941W        W56805  13.286   6.457  20.326  0.3632  0.0522 -0.0651
55942W        W56806  27.367   9.088   4.354 -0.0646  0.1295  0.0542
55943W        W56807  28.785  10.890  22.162 -0.5166  0.3664  0.0880
55944W        W56808   6.453  11.326  25.095  0.2169 -0.1405  0.1064
55945W        W56809   2.720  13.451  10.206 -0.0487 -0.0676  0.1095
55946W        W56810   8.574  10.051   7.693 -0.2445 -0.1603 -0.1141
55947W        W56811  10.335  25.676  19.816 -0.2275 -0.1160 -0.3018
55948W        W56812  10.457  15.486  17.629 -0.1352 -0.1882 -0.1298
55949W        W56813  15.075   0.677  10.512  0.2118  0.2115  0.2614
55950W        W56814  26.270   1.936  12.114  0.2695  0.0311 -0.0069
55951W        W56815   5.403   9.439   1.890  0.2489  0.0624 -0.0865
55952W        W56816   8.281  25.073   2.368 -0.1569 -0.0421 -0.1565
55953W        W56817   6.030  17.166  19.937 -0.1313 -0.2389  0.0320
55954W        W56818   0.473   0.576  26.708 -0.0016 -0.3469  0.2320
55955W        W56819  24.323   5.364  25.066 -0.0648  0.0245 -0.0055
55956W        W56820   7.486   4.496  10.133  0.3477  0.2273 -0.3293
55957W        W56821  19.896  16.403   3.404  0.2518  0.0294  0.1415
55958W        W56822   6.662   4.098   9.229 -0.2282  0.3774 -0.1036
55959W        W56823  25.734  25.364  13.737  0.3089 -0.0828 -0.0525
55960W        W56824  25.589  18.769   0.782 -0.3073 -0.0389  0.0516
55961W        W56825   6.574  16.192  10.698  0.2370 -0.1714 -0.0490
55962W        W56826  11.753  12.056  20.078 -0.4115  0.0567 -0.0556
55963W        W56827  12.530   9.605   2.690  0.2066 -0.2665 -0.0984
55964W        W56828  25.164  23.938  15.596  0.1620  0.0786 -0.1222
55965W        W56829   6.727  10.240  11.024  0.1063 -0.0426 -0.1120
55966W        W56830  16.590  14.341  11.841  0.0216 -0.1682  0.1726
55967W        W56831  28.442   2.068  11.366 -0.2252 -0.2028  0.1374
55968W        W56832   7.655  17.416  25.351  0.0596  0.1194  0.0995
55969W        W56833   1.420  24.688  23.396 -0.0720  0.0875  0.1547
55970W        W56834  11.463  12.999  11.589  0.3216 -0.2433 -0.3957
55971W        W56835   9.102  14.212   5.516  0.0801  0.0404  0.1682
55972W        W56836  18.035   1.255   4.484 -0.2865 -0.3047 -0.0340
55973W        W56837  26.815  10.593  15.877 -0.3267 -0.0350  0.0421
55974W        W56838  15.940   9.576  15.427 -0.0204 -0.1473  0.2124
55975W        W56839  19.645   0.983  18.402  0.1615  0.1273  0.0693
55976W        W56840   2.772  16.471   5.907  0.3523 -0.1626  0.1244
55977W        W56841  14.596   8.792  28.007 -0.0826  0.2792 -0.1346
55978W        W56842  23.610  18.575   2.797 -0.1558  0.1021  0.0380
55979W        W56843   8.539  11.579   9.530  0.3984 -0.0864  0.1345
55980W        W56844   1.768   8.103  24.377 -0.3494  0.1964  0.1448
55981W        W56845  14.381  17.183   8.210 -0.3111  0.0808 -0.0101
55982W        W56846   0.441   8.791  11.680 -0.4374  0.4182  0.0628
55983W        W56847  19.187  27.958  24.535  0.1143 -0.0658  0.1580
55984W        W56848   5.727   8.648  14.668  0.2425  0.0919  0.1697
55985W        W56849  16.483   8.250  14.975  0.2013 -0.0820 -0.1910
55986W        W56850   3.397  14.527  18.554 -0.0391  0.0477  0.3999
55987W        W56851  22.759  16.637   0.000  0.0064  0.1840  0.0552
55988W        W56852  10.570   9.570  19.348 -0.1782 -0.2168 -0.1236
55989W        W56853   5.686   6.753  20.834  0.0999  0.0125 -0.0241
55990W        W56854  14.361   9.958  16.695  0.3982  0.0923  0.2251
55991W        W56855  10.017   2.663   2.167 -0.2002 -0.2066  0.1854
55992W        W56856  19.610   5.789   6.677  0.0372 -0.1788 -0.0474
55993W        W56857  21.255   4.957   7.977  0.0816 -0.1674 -0.0234
55994W        W56858   4.818   4.382   1.309 -0.0742  0.0877  0.0552
55995W        W56859  14.416   3.076  21.419 -0.2512 -0.1976  0.0720
55996W        W56860   4.690  12.415   1.578  0.0297 -0.2201 -0.0239
55997W        W56861  26.243  11.442   5.760 -0.0584  0.0599 -0.0241
55998W        W56862  21.514   3.852  11.758 -0.0535 -0.3541 -0.1138
55999W        W56863  12.735  23.237  14.238  0.2197  0.3175 -0.3293
56000W        W56864   4.197   0.159   7.410 -0.1668 -0.0127 -0.2323
56001W        W56865  14.847  26.159  19.802 -0.1046  0.3490 -0.1636
56002W        W56866   1.149   2.541  16.176  0.2577 -0.1813 -0.0651
56003W        W56867  28.142  19.325   8.587  0.3257  0.6233 -0.3871
56004W        W56868  23.878  20.894  20.726 -0.2742  0.1053  0.2832
56005W        W56869  15.524  17.036   6.692  0.3556  0.1229 -0.4751
56006W        W56870  28.464  14.774  27.292 -0.0148  0.0125 -0.0547
56007W        W56871  15.439   3.273  19.193 -0.2832 -0.1230 -0.0251
56008W        W56872  10.078   5.603  15.045  0.1889  0.0686  0.0560
56009W        W56873   3.370  22.992  20.633 -0.0517  0.0813 -0.1025
56010W        W56874   1.458  25.212  24.800 -0.1222  0.4743 -0.1162
56011W        W56875  10.186   0.448  13.917  0.0096 -0.2525 -0.0142
56012W        W56876  10.673   9.150  14.230 -0.0747  0.2349  0.0604
56013W        W56877  27.219  19.058  28.290  0.2065 -0.0435  0.1548
56014W        W56878  18.112  14.152  18.328  0.1033 -0.2334 -0.3013
56015W        W56879  15.623   0.003   4.050  0.3276 -0.1431  0.1664
56016W        W56880  16.875  19.539  23.874 -0.0507  0.2321  0.3512
56017W        W56881   5.253  23.977   7.689 -0.1324 -0.0963 -0.3112
56018W        W56882   4.757   6.653  28.263 -0.0429  0.2804  0.1967
56019W        W56883  21.429   2.029  20.498 -0.3069 -0.1011 -0.1979
56020W        W56884  13.768   8.384  15.388  0.0023  0.0305  0.0024
56021W        W56885  14.870  25.417   9.429  0.3063 -0.3619 -0.0142
56022W        W56886  11.289  16.517  10.435 -0.0732  0.1348 -0.2881
56023W        W56887   5.982  10.493   8.920 -0.1919  0.1085  0.0168
56024W        W56888   7.875  12.362  25.909 -0.0874 -0.1505 -0.0304
56025W        W56889  20.335   5.932  11.461  0.1137 -0.0191 -0.2720
56026W        W56890  10.999  16.052  11.655 -0.0496 -0.0924  0.0871
56027W        W56891  18.217   5.113  14.336 -0.2681 -0.0770 -0.2039
56028W        W56892  11.821  17.557   0.951 -0.1016 -0.1039  0.1073
56029W        W56893  10.177  27.989   9.310  0.1187  0.1463 -0.0016
56030W        W56894  28.130   8.600   9.767  0.0204  0.2700  0.0945
56031W        W56895  18.567  28.310  14.571  0.1503  0.0160  0.1611
56032W        W56896   1.529   3.441  11.061 -0.5174  0.1085 -0.2052
56033W        W56897  24.062   5.267   3.311  0.1479  0.1724  0.1458
56034W        W56898   7.994  18.638  28.171  0.1008 -0.0023 -0.1411
56035W        W56899  12.826  23.961   3.880  0.1271 -0.1126 -0.1360
56036W        W56900  10.139  27.638  15.539 -0.3369 -0.0362  0.3309
56037W        W56901  10.840   5.760  16.688  0.1409  0.1002 -0.2103
56038W        W56902   5.431  16.835   3.581  0.2812  0.2068 -0.0378
56039W        W56903   2.024  10.893   5.401 -0.1780  0.2265 -0.0808
56040W        W56904  10.227  10.485   9.401  0.1073  0.1181 -0.2464
56041W        W56905  14.672  20.765   5.947 -0.0504 -0.1831  0.0871
56042W        W56906  25.894   2.612   7.711 -0.1596  0.0300  0.1607
56043W        W56907   2.070   2.662  24.133 -0.0479  0.1538  0.1038
56044W        W56908  14.509   8.187   3.715 -0.1716  0.1677  0.0059
56045W        W56909   2.943  26.880  25.314  0.0873  0.1430  0.0602
56046W        W56910  22.204  13.212  25.674 -0.1186 -0.2031  0.2035
56047W        W56911  26.058   7.998  11.131  0.0067  0.2032  0.0231
56048W        W56912  24.931   9.773   7.672  0.3443 -0.0574 -0.0052
56049W        W56913  24.109  27.443  11.187 -0.1239  0.1368  0.1036
56050W        W56914   1.586   9.451  18.682  0.0598 -0.1362  0.3189
56051W        W56915  12.940  22.575  23.936  0.1153  0.0911  0.0932
56052W        W56916   1.177   6.780   2.070  0.0141 -0.3159  0.0737
56053W        W56917  28.661  10.068  28.435  0.0127 -0.1746  0.0533
56054W        W56918   3.796   4.295  13.333  0.1051 -0.2835  0.3119
56055W        W56919   3.360  15.123   8.976  0.2430 -0.0827 -0.1874
56056W        W56920  10.641  13.491  17.181  0.1032 -0.0477  0.4085
56057W        W56921   7.004   0.232  13.443 -0.3524  0.0273  0.1130
56058W        W56922   6.197  11.273  14.740 -0.1723  0.2283 -0.3024
56059W        W56923  16.659   2.631  19.420  0.0289  0.2223 -0.0681
56060W        W56924  28.512  16.156  25.427  0.3129 -0.0607  0.0348
56061W        W56925  15.479  21.004  10.787 -0.1809 -0.1613 -0.0008
56062W        W56926  10.613   1.784  23.401  0.0564  0.0842 -0.1753
56063W        W56927  23.106  20.684   4.338  0.0252 -0.0407 -0.0043
56064W        W56928  18.979  25.788  11.689 -0.1773  0.0281 -0.1725
56065W        W56929  28.598  13.234  19.373 -0.0886  0.1657 -0.3055
56066W        W56930  17.643  28.973  23.470  0.2772  0.0680 -0.1749
56067W        W56931  22.734  24.138  21.810 -0.0343  0.3086  0.1624
56068W        W56932  23.500  13.856   1.061  0.4059 -0.2520  0.0872
56069W        W56933  23.683   2.982  15.910 -0.0345  0.1477 -0.0063
56070W        W56934   4.972   6.915  28.666  0.1271 -0.2124 -0.0034
56071W        W56935   6.780  14.908  23.717  0.0971 -0.0591 -0.2285
56072W        W56936  14.492   2.088  14.036 -0.2784  0.1554  0.3441
56073W        W56937   1.715  21.926   1.749 -0.2368 -0.1335 -0.0536
56074W        W56938   9.995   7.843  18.701 -0.0737  0.0763 -0.0463
56075W        W56939  12.340   0.613  15.664  0.0740  0.0657  0.0736
56076W        W56940  27.078  12.332  18.787 -0.0557 -0.1290 -0.0965
56077W        W56941   0.016   0.646   8.420 -0.4928 -0.1800 -0.0187
56078W        W56942   8.173  20.204  16.393 -0.0386  0.1779  0.1238
56079W        W56943   8.118   0.142  21.189 -0.0415  0.1066  0.1301
56080W        W56944  20.456  12.623  14.431 -0.1592  0.1123  0.1178
56081W        W56945  20.890  18.273   4.875 -0.1117  0.1002  0.3622
56082W        W56946  22.808   3.093  26.084  0.2452 -0.2624  0.0918
56083W        W56947   0.956  18.186  12.418  0.2902 -0.2631  0.0206
56084W        W56948  28.841   1.991  14.488 -0.1566  0.0129  0.0096
56085W        W56949   6.441  22.117  10.721 -0.0104 -0.0600  0.0680
56086W        W56950  12.066   0.090  25.894  0.0002  0.0795 -0.1598
56087W        W56951  15.893  16.752  13.110 -0.0650  0.2339 -0.0693
56088W        W56952  16.156   6.981  17.039 -0.1637 -0.3524 -0.4285
56089W        W56953   4.975   5.471  14.473  0.2291 -0.0655  0.0541
56090W        W56954   4.596   0.130   7.692  0.1831 -0.2042  0.1086
56091W        W56955  19.396  10.355   8.176 -0.2474  0.3638 -0.1254
56092W        W56956   5.231   4.233  20.447  0.0115  0.4139 -0.2448
56093W        W56957  11.059  21.205  16.330 -0.0037 -0.3491 -0.0862
56094W        W56958   7.491  20.392  18.163 -0.1454  0.1811 -0.2817
56095W        W56959   5.066  11.137  27.210 -0.0284  0.0811 -0.2725
56096W        W56960   3.863  10.642  22.324  0.2129 -0.2134 -0.2223
56097W        W56961   2.528   5.010  18.696 -0.0371 -0.0086  0.0329
56098W        W56962   4.157  11.283  10.883  0.3166  0.0257 -0.3092
56099W        W56963  25.131  28.647   0.261  0.0245  0.1872 -0.1396
56100W        W56964  27.539  17.815  21.820  0.0149 -0.1071  0.0176
56101W        W56965   6.479  24.265  13.643  0.2202 -0.1203 -0.2032
56102W        W56966   6.752  21.894   8.749  0.2429  0.0949 -0.0606
56103W        W56967  27.350  14.475  21.858  0.1456 -0.1520  0.2787
56104W        W56968  27.293   0.557   7.614 -0.0438 -0.1746 -0.2055
56105W        W56969  12.787  14.150   8.993 -0.0269  0.2934 -0.1886
56106W        W56970  10.001  23.517  21.170 -0.1322 -0.1498 -0.3458
56107W        W56971  23.156  16.273  22.315 -0.1889  0.2409  0.0069
56108W        W56972   4.684   7.219   8.495  0.0298 -0.2831  0.1767
56109W        W56973   2.922   9.835  12.094 -0.0838 -0.0877 -0.0524
56110W        W56974   2.875  14.255  13.915  0.1046 -0.2155  0.0992
56111W        W56975  29.017  19.398  22.761 -0.2975  0.2152 -0.0201
56112W        W56976  15.680  19.290  14.418  0.0857 -0.1386 -0.1374
56113W        W56977   0.243   3.733  13.029 -0.1747  0.0320 -0.0909
56114W        W56978   2.334   9.083  15.133 -0.1403 -0.2851  0.1952
56115W        W56979  19.660   9.049  28.457  0.2634  0.1367  0.0516
56116W        W56980  25.382   0.356   9.241  0.0326 -0.0921 -0.1504
56117W        W56981  25.648   8.999  11.366  0.2351 -0.1484 -0.0986
56118W        W56982  22.203   3.181  12.431  0.0611 -0.1739 -0.0254
56119W        W56983   0.302  13.804  15.569 -0.0489 -0.0324 -0.0353
56120W        W56984   9.781   8.197   6.300 -0.1785 -0.2001 -0.0489
56121W        W56985  17.150   9.580  12.979  0.0226  0.3241  0.2723
56122W        W56986   2.858  13.319  23.410  0.0653  0.1942  0.1789
56123W        W56987  28.864  16.655  18.387 -0.2597 -0.2176 -0.1548
56124W        W56988  10.582   9.071  18.493  0.0326  0.1622  0.0296
56125W        W56989   8.162  26.817  26.326  0.0848 -0.1491 -0.1935
56126W        W56990   3.771   0.284  10.713 -0.0482 -0.1188 -0.1895
56127W        W56991  10.915  29.072  17.152 -0.1795 -0.3893  0.1340
56128W        W56992  15.192  20.124  11.902 -0.1050  0.3660 -0.3530
56129W        W56993   9.387  21.574   5.021  0.0618  0.0519 -0.1436
56130W        W56994  13.493  21.835  17.523 -0.4793 -0.0869 -0.0445
56131W        W56995  20.686   2.170   6.706 -0.0082  0.0741 -0.2256
56132W        W56996  10.134  17.669  25.132  0.0742 -0.0170  0.0187
56133W        W56997   0.925   2.851  17.193  0.0981  0.2755  0.1026
56134W        W56998   3.099   9.729  18.981 -0.4476  0.2268 -0.0635
56135W        W56999   5.869  12.668   3.857  0.1838  0.2254  0.0177
56136W        W57000   7.084   2.657  10.848  0.2078  0.0352 -0.0509
56137W        W57001   3.721  27.983  13.676  0.0306  0.1688  0.1200
56138W        W57002  15.648  10.301  25.139  0.0277  0.1738  0.0113
56139W        W57003  16.628   3.563  10.326  0.3424  0.0456  0.2992
56140W        W57004   4.217  13.582  18.304 -0.0256 -0.0319  0.0946
56141W        W57005   0.486   3.770  28.049  0.0449  0.1613 -0.2006
56142W        W57006  12.614  15.471   9.966 -0.1550 -0.1872 -0.1564
56143W        W57007   4.738   5.503   2.491  0.0513 -0.2533  0.1780
56144W        W57008  10.011   9.935  27.777 -0.2494 -0.2141  0.0713
56145W        W57009  11.382   7.875  18.264 -0.1140  0.1441 -0.3206
56146W        W57010  18.964  16.732  11.896 -0.1350 -0.2170 -0.0625
56147W        W57011   5.132   9.030  11.847 -0.0224 -0.2807 -0.2321
56148W        W57012  18.984  10.950   2.090 -0.3034  0.0021 -0.0359
56149W        W57013   6.350  11.707   2.797 -0.0883 -0.2748  0.0657
56150W        W57014  24.615   9.112   4.542 -0.2887  0.0607 -0.1598
56151W        W57015   4.946   3.590  16.280  0.0482  0.0296 -0.0881
56152W        W57016   7.185   6.581   7.766  0.0468  0.0621 -0.3550
56153W        W57017   9.966   4.723  22.611  0.0115 -0.3633 -0.1219
56154W        W57018   5.867   0.789   9.667 -0.2005 -0.0242 -0.2823
56155W        W57019   6.854  28.850  13.591 -0.1151  0.0387  0.1358
56156W        W57020   4.729  23.258  26.594  0.2183 -0.2025 -0.1558
56157W        W57021   0.415  20.482  12.965  0.1431 -0.0931  0.1882
56158W        W57022  13.213   3.923  21.351 -0.0072 -0.0221  0.0207
56159W        W57023  21.711  10.944  11.120 -0.1447  0.3498 -0.4035
56160W        W57024  14.032   1.465   2.104  0.0083 -0.3396  0.0325
56161W        W57025  23.889  24.753  15.829  0.1751  0.0789  0.1551
56162W        W57026  24.393  12.036   9.897  0.3371 -0.0818  0.0119
56163W        W57027   7.427   9.326   5.831 -0.3122  0.1449 -0.0014
56164W        W57028  19.690   5.732   9.565  0.0488  0.2815  0.1371
56165W        W57029  28.495   5.125   6.086 -0.0916 -0.2392 -0.1074
56166W        W57030  13.755   3.374  12.792 -0.2579  0.1929  0.0320
56167W        W57031   0.821   8.488  11.762  0.1683  0.1235  0.0142
56168W        W57032  19.723  11.203  28.877 -0.0349  0.0438 -0.0156
56169W        W57033   7.578  23.842   0.483  0.2188 -0.1631  0.2301
56170W        W57034  17.041   1.103  15.083  0.2442  0.1687  0.0625
56171W        W57035   3.691  24.053   5.100  0.4768  0.2313 -0.0631
56172W        W57036  23.443  16.083  13.121 -0.0092 -0.2000 -0.1759
56173W        W57037   9.276  13.833  10.922 -0.0472  0.2114 -0.2671
56174W        W57038  15.000  12.297  18.395  0.0129  0.1781 -0.2219
56175W        W57039  13.753   0.193   1.369  0.1537  0.4665 -0.2115
56176W        W57040   7.705  27.603  19.658 -0.0539 -0.0990  0.1804
56177W        W57041  19.563   7.110  21.869 -0.1425 -0.3333  0.0576
56178W        W57042   2.513   4.972  21.144  0.2136 -0.1258 -0.4479
56179W        W57043  12.106  29.100  26.734  0.1062  0.0894 -0.1235
56180W        W57044  27.030   4.511  18.843 -0.1256 -0.0989  0.2178
56181W        W57045   9.450   9.528  13.995  0.0112  0.1403 -0.1011
56182W        W57046  14.429  12.719  23.754 -0.0564  0.1230 -0.0877
56183W        W57047  24.205  12.238  20.221 -0.2086  0.0716  0.0925
56184W        W57048  25.195  11.017  21.819  0.2256  0.0749 -0.0442
56185W        W57049  12.797   8.744  13.594  0.0649  0.2949 -0.1629
56186W        W57050  28.900  27.196  13.755 -0.4609  0.3304 -0.1320
56187W        W57051   3.883   5.804  13.503  0.0656  0.0384 -0.1987
56188W        W57052   9.411   1.219  20.547  0.1040 -0.3121 -0.0338
56189W        W57053   8.032  10.504   6.462 -0.1758  0.0425  0.1306
56190W        W57054   5.384  13.815   1.889  0.0054 -0.0661  0.2290
56191W        W57055   5.668   9.376  13.325 -0.2617  0.1258  0.1291
56192W        W57056  21.107  14.151  17.829  0.0154 -0.1749  0.0761
56193W        W57057   9.716   3.535  16.194 -0.1703 -0.2944  0.0998
56194W        W57058  28.674  27.566   0.924 -0.0893  0.0315 -0.2821
56195W        W57059  21.169  11.503   6.184  0.1940  0.3042  0.1146
56196W        W57060  14.025   4.698   0.592 -0.0879  0.0548 -0.1874
56197W        W57061  25.538  23.491  20.367  0.0438 -0.2110 -0.0842
56198W        W57062  27.867   8.769  19.541 -0.1820 -0.1259 -0.0643
56199W        W57063   5.747  18.955  16.476 -0.1184  0.0071 -0.1104
56200W        W57064  19.414  24.810   6.168  0.1650 -0.0541 -0.2324
56201W        W57065   8.590  18.208  19.640 -0.0452 -0.0313 -0.3052
56202W        W57066   5.327  20.790  13.811 -0.1702 -0.1014  0.2368
56203W        W57067   9.515   4.858   8.380  0.1603  0.3207 -0.2476
56204W        W57068  23.853   8.979  16.898  0.0058 -0.1386  0.0245
56205W        W57069  10.167   8.137  26.362  0.0433  0.1825 -0.0834
56206W        W57070   1.525  11.692   4.080  0.1146 -0.4013  0.0762
56207W        W57071  12.762  18.070   4.054 -0.0904 -0.1161  0.0539
56208W        W57072  24.253  15.506  26.729 -0.0773 -0.1210 -0.0308
56209W        W57073  12.290  28.653  11.818  0.0023 -0.0436 -0.1298
56210W        W57074  16.440   6.869  22.742 -0.1039 -0.0385 -0.0295
56211W        W57075   2.976   6.976  19.590 -0.1061  0.0509  0.2487
56212W        W57076   8.720  15.377   6.235 -0.0772  0.1932 -0.1185
56213W        W57077  12.427   4.757   5.679  0.0362 -0.0216 -0.1948
56214W        W57078   6.214  28.904   4.501  0.0680  0.0915  0.0257
56215W        W57079   1.308  10.345  16.001  0.1989 -0.0196  0.0778
56216W        W57080  16.803   9.777  18.994 -0.1562  0.5787  0.1513
56217W        W57081  16.731   1.272   9.405  0.0079  0.0502 -0.1521
56218W        W57082  15.336   5.146  21.836  0.6073 -0.3616 -0.1317
56219W        W57083   0.628  22.580  19.313  0.1920  0.0738  0.2244
56220W        W57084  25.404  27.719  28.122  0.0816  0.1195  0.2155
56221W        W57085   2.882   7.229  16.841 -0.1564  0.0575 -0.1295
56222W        W57086  12.463   6.739  14.937  0.0616 -0.0025 -0.1451
56223W        W57087   3.481  24.440  27.278 -0.0431 -0.0042 -0.3586
56224W        W57088   6.066   1.340  19.299  0.0328  0.1240  0.0180
56225W        W57089   0.554   8.203  23.716  0.0501  0.0740 -0.0170
56226W        W57090  23.162   5.631  16.770  0.3506 -0.0227  0.0547
56227W        W57091  22.016   7.302  18.193  0.0680  0.0296  0.3193
56228W        W57092   3.490  25.925  12.546 -0.0571 -0.1351 -0.1694
56229W        W57093  13.488   5.487  14.417  0.0575 -0.3677  0.0213
56230W        W57094  10.672   3.404   6.736 -0.2660 -0.3968  0.0742
56231W        W57095  28.816  15.569  19.326  0.1173 -0.0405  0.2759
56232W        W57096  17.531  20.547  18.346  0.0908 -0.0384  0.0328
56233W        W57097  10.245  11.780   3.282 -0.0305  0.0217  0.1699
56234W        W57098   9.297  16.507   4.808 -0.0568 -0.0324  0.0693
56235W        W57099  10.571   9.879   2.062  0.0534  0.0127  0.0269
56236W        W57100   2.702  20.639   5.870 -0.0069  0.2064  0.3629
56237W        W57101  12.472  22.415  14.168 -0.0125  0.3047 -0.0497
56238W        W57102   2.887   5.981   7.279  0.2176  0.0533  0.0118
56239W        W57103   3.442   0.842  16.568  0.0446  0.1732  0.1322
56240W        W57104  16.188  27.408   2.407  0.0736  0.2396 -0.2649
56241W        W57105  12.853  11.339   1.292 -0.1797 -0.3390 -0.1261
56242W        W57106   7.214   4.337  14.125  0.0076  0.1380  0.3280
56243W        W57107   8.433  24.779  23.938 -0.1467 -0.0144 -0.2825
56244W        W57108   2.471  10.830   6.842  0.1322 -0.0208  0.0658
56245W        W57109  11.818   9.549   0.847  0.0711  0.1727 -0.2332
56246W        W57110   0.809   7.746  16.525 -0.0087 -0.4224 -0.2337
56247W        W57111   4.201   3.047  18.581 -0.0003  0.1062 -0.2272
56248W        W57112  16.887   4.361  16.500  0.0612 -0.2369  0.1169
56249W        W57113  18.615   0.534  18.826 -0.1886  0.3166 -0.1831
56250W        W57114   2.261   5.469  24.761  0.1026 -0.2181  0.3116
56251W        W57115  21.956   7.462  19.289  0.1505  0.1543 -0.2288
56252W        W57116  23.475   4.124   5.823  0.0029  0.0026  0.1271
56253W        W57117  15.539   8.199   2.005  0.1013  0.0225 -0.0700
56254W        W57118  23.455  27.927  15.592  0.1297  0.1266  0.0448
56255W        W57119  19.280   5.361  14.330 -0.0101 -0.0365 -0.2836
56256W        W57120  11.363   3.264   7.960 -0.2346  0.2969  0.2804
56257W        W57121  11.559   4.449   1.261 -0.1004  0.0848  0.1113
56258W        W57122  27.004  28.969   8.885 -0.2996  0.4045  0.1512
56259W        W57123  18.534  10.418  16.893  0.2500  0.0703  0.1272
56260W        W57124  22.523   1.055  15.086  0.3061 -0.1208  0.1387
56261W        W57125  17.343   7.665  21.052 -0.3815  0.1130 -0.1804
56262W        W57126  12.661  13.432   0.473 -0.2503 -0.1517 -0.2946
56263W        W57127   8.345  12.562  27.836 -0.2505 -0.0346 -0.1722
56264W        W57128  12.635  16.725  28.724 -0.3664  0.0085  0.0710
56265W        W57129  27.184   4.980  10.611 -0.0538 -0.1285  0.1007
56266W        W57130  12.640  21.666  19.815  0.3450  0.1052  0.1892
56267W        W57131  21.347  27.983   7.019  0.2136  0.0459  0.0692
56268W        W57132  28.802  25.598  17.105 -0.0322 -0.0926 -0.1091
56269W        W57133   3.977   0.481  22.792 -0.0071  0.0868 -0.2359
56270W        W57134  15.801  19.233  15.467 -0.3005  0.3795 -0.1166
56271W        W57135   5.309   8.219  11.772  0.3624  0.0071 -0.2606
56272W        W57136  10.826   6.064   0.899 -0.1878  0.0600  0.0576
56273W        W57137  13.302   2.194  25.684 -0.0725  0.1348 -0.0123
56274W        W57138   9.129  12.109  17.339 -0.1751 -0.5316 -0.1176
56275W        W57139  20.195  27.988  22.193  0.0561 -0.0767  0.0934
56276W        W57140   3.083  15.398   0.940 -0.1251  0.2949  0.1360
56277W        W57141  25.594  13.880  14.125  0.1276  0.2175  0.0299
56278W        W57142   0.558   7.629  11.183 -0.2634  0.0149 -0.4814
56279W        W57143   1.254   7.784   7.118  0.5611 -0.2231  0.3336
56280W        W57144   0.259   2.785   5.499  0.2096  0.1496 -0.1584
56281W        W57145  16.474  20.274   0.460 -0.2030  0.0922 -0.1559
56282W        W57146  22.309   0.751   4.056 -0.2630  0.2978 -0.0678
56283W        W57147   1.980  28.640   3.595 -0.0844  0.1162  0.0621
56284W        W57148  10.616  28.664  12.464  0.1907  0.1298 -0.0414
56285W        W57149  19.364  19.326  25.276 -0.0600 -0.0403  0.0742
56286W        W57150   7.727   3.428  15.424  0.3130 -0.0578 -0.0639
56287W        W57151  22.934  15.187  13.921  0.1380 -0.2850 -0.4299
56288W        W57152   2.659   3.272   6.018 -0.2055 -0.2398 -0.1046
56289W        W57153   9.154  21.646   9.994  0.0709 -0.0420 -0.0085
56290W        W57154  17.976  12.291  18.700  0.0928 -0.2317 -0.0863
56291W        W57155  15.343  25.926  15.938  0.1257 -0.0496 -0.2153
56292W        W57156  19.419  14.875   9.552  0.0500 -0.1557  0.0259
56293W        W57157  22.499   5.999  21.142  0.0981 -0.0439  0.2124
56294W        W57158  11.570   9.327  14.909  0.0970 -0.2588  0.0119
56295W        W57159   0.686   6.546  23.675 -0.0864  0.1487 -0.1777
56296W        W57160  16.441  25.383  10.271  0.1283 -0.4769 -0.1856
56297W        W57161  28.586  23.231  26.009 -0.4786  0.1311 -0.3942
56298W        W57162  15.461   1.497  18.402  0.1374  0.3819 -0.1758
56299W        W57163   2.562   3.707   6.175 -0.1298 -0.0452  0.3218
56300W        W57164  10.499  18.411  27.722 -0.1267  0.0349 -0.0546
56301W        W57165  11.405  15.358  19.944  0.1280  0.0231 -0.2307
56302W        W57166  12.282  14.859   9.095  0.1337 -0.3308 -0.2063
56303W        W57167   0.270   5.877  26.423  0.0054  0.0296  0.1261
56304W        W57168  14.681   8.853  13.897  0.3234 -0.2085  0.1961
56305W        W57169  22.462  26.262  17.825  0.2216  0.1308  0.4076
56306W        W57170  26.136  24.545  27.964  0.1378  0.0187  0.2237
56307W        W57171   7.179   8.956   7.024 -0.1252 -0.0211  0.0151
56308W        W57172   2.763  10.108   4.101 -0.0722  0.2312 -0.1044
56309W        W57173  10.928   9.390   6.784 -0.2398 -0.3062 -0.0257
56310W        W57174   0.728  28.378   7.972 -0.5602  0.0908 -0.0767
56311W        W57175  10.757  18.918   6.926  0.0182 -0.4149 -0.4071
56312W        W57176  21.560   9.126  24.871  0.1133  0.1515  0.2103
56313W        W57177  12.266  11.718  14.239  0.0867  0.1092  0.1766
56314W        W57178   6.488  12.278  11.942 -0.0807  0.1712 -0.1395
56315W        W57179   7.605  10.515  27.883 -0.0112  0.0525 -0.1127
56316W        W57180   6.741   2.471  13.560  0.1968  0.0931  0.2433
56317W        W57181   8.102  22.817  21.530 -0.1703  0.0437  0.0260
56318W        W57182  19.248   6.189  14.003 -0.2110  0.2405 -0.2440
56319W        W57183  22.887  11.869  17.020  0.1659  0.2050 -0.0100
56320W        W57184   3.577  13.186   9.550  0.0924 -0.0648 -0.3751
56321W        W57185  13.047  17.339   5.945 -0.1101  0.4603  0.0814
56322W        W57186  23.993   3.154   5.822  0.1873 -0.1605  0.0538
56323W        W57187  11.712  12.740   5.724 -0.0804  0.3107  0.1478
56324W        W57188   5.911   8.973  13.030  0.1429 -0.2311  0.1146
56325W        W57189   7.863  25.448  22.745  0.0485  0.1245 -0.1244
56326W        W57190  27.079   6.607   7.034 -0.1714 -0.0570 -0.2137
56327W        W57191  21.521   6.951  13.280 -0.1741 -0.1610 -0.0543
56328W        W57192  24.048  11.990   9.515 -0.1235  0.0321  0.2181
56329W        W57193   1.033   0.932  16.366  0.0256 -0.1689 -0.0291
56330W        W57194   5.549  15.129  26.022 -0.1383  0.0778 -0.0085
56331W        W57195  27.281   3.567  26.516 -0.0485 -0.0456  0.0429
56332W        W57196   8.528   4.705  10.196 -0.0656  0.6189  0.0053
56333W        W57197   9.309  11.511  21.512 -0.0963 -0.0223  0.3675
56334W        W57198  28.520  10.435  23.287  0.3767  0.2984 -0.0719
56335W        W57199  27.121  27.405  14.594  0.3442 -0.3713  0.1601
56336W        W57200  11.994   4.011   1.976 -0.1388 -0.1618  0.3090
56337W        W57201  23.681   0.770  22.919 -0.0660  0.1766  0.0371
56338W        W57202   2.070  18.758  10.712  0.0417  0.0167 -0.0534
56339W        W57203  19.009   5.205   8.531  0.1084  0.0417 -0.0747
56340W        W57204  10.851   6.051  17.176 -0.0101  0.2204  0.0037
56341W        W57205  16.079  17.715   7.606  0.0372  0.0434 -0.0481
56342W        W57206  18.783   6.021   6.676 -0.1453 -0.2047  0.2609
56343W        W57207   3.659   4.890  11.710  0.1394  0.1102 -0.2022
56344W        W57208  17.812  14.278   7.794 -0.0512  0.0001 -0.1648
56345W        W57209  11.956   3.021   8.738 -0.0018  0.2674 -0.2342
56346W        W57210  21.523  18.863  13.029 -0.1387 -0.1624  0.0087
56347W        W57211  21.977  19.815   8.482  0.0015 -0.1951  0.0026
56348W        W57212   6.336   3.837  21.271 -0.1595 -0.2366 -0.2480
56349W        W57213  17.597  25.505  25.886  0.2183 -0.0482 -0.1405
56350W        W57214  18.755   2.764  25.626 -0.1865  0.3404 -0.0627
56351W        W57215  23.670   6.090  28.642 -0.2166  0.0657 -0.0899
56352W        W57216  15.993   8.014  22.354  0.1266  0.1438 -0.0377
56353W        W57217   5.820  19.170  26.553  0.3092  0.0451  0.1701
56354W        W57218   5.313  22.445  12.807  0.1382  0.0004  0.2697
56355W        W57219  10.384  28.420   9.980  0.0296 -0.2080 -0.0366
56356W        W57220   7.894   8.828  23.263  0.3019  0.0424 -0.0908
56357W        W57221   6.831   8.892   6.021  0.0970 -0.0786 -0.2481
56358W        W57222  19.328  10.915   4.437 -0.0818 -0.1692 -0.1548
56359W        W57223   3.511  23.962  21.656 -0.3153 -0.2718 -0.0381
56360W        W57224   0.865  11.221  26.465  0.2131 -0.0269 -0.4131
56361W        W57225   4.144  23.366  12.477  0.0865 -0.1299 -0.0203
56362W        W57226  12.089  23.863  25.219 -0.0264 -0.2040  0.0484
56363W        W57227  21.768  28.978   5.304  0.0285 -0.3247  0.1118
56364W        W57228  16.806  16.332   8.332  0.1854  0.1921 -0.3792
56365W        W57229   7.165   2.614  12.585 -0.4406  0.0558 -0.2073
56366W        W57230  28.448   0.701  26.986 -0.3335 -0.2046  0.2211
56367W        W57231  26.230  26.284  15.727 -0.1956  0.3211  0.0095
56368W        W57232   7.007  15.346  17.550 -0.1853  0.0631  0.3773
56369W        W57233  17.376  18.760  12.924  0.2837  0.1283 -0.1622
56370W        W57234   1.566   6.351   8.859 -0.0458  0.2035  0.3034
56371W        W57235  15.637  24.639  21.068 -0.2040  0.0497 -0.1180
56372W        W57236   0.467  22.470  13.384  0.0946  0.0667  0.0146
56373W        W57237  25.821  14.374  19.058  0.2697  0.1006 -0.1105
56374W        W57238  19.326   0.435   7.381 -0.1841 -0.2902 -0.1369
56375W        W57239  17.032  21.577  24.621 -0.0034  0.1234 -0.2576
56376W        W57240  26.900   7.255   5.987 -0.2936 -0.1824 -0.1403
56377W        W57241   2.874  10.342   5.595  0.0117  0.1074 -0.1014
56378W        W57242  28.502  12.938  17.312  0.3154  0.2762  0.1590
56379W        W57243   9.798  12.572  24.166 -0.0680  0.0292  0.0256
56380W        W57244   0.192   1.555  17.603 -0.3252 -0.2419 -0.0970
56381W        W57245   5.450   6.072  16.723  0.0810 -0.3826 -0.2409
56382W        W57246  14.465  17.658  15.728  0.0469  0.0404  0.1697
56383W        W57247  23.832  28.187  12.911 -0.1031 -0.1415 -0.0583
56384W        W57248   2.693  28.562   6.773 -0.0492 -0.1013  0.0989
56385W        W57249   7.553   2.054  17.354 -0.0873 -0.1496 -0.0566
56386W        W57250   9.905   7.518   3.488 -0.1134 -0.2530 -0.2707
56387W        W57251  25.811  22.732  27.150 -0.1838 -0.0157 -0.3543
56388W        W57252  23.223  13.987  27.376 -0.0997  0.2040  0.2679
56389W        W57253  10.447   0.387   3.693 -0.3375  0.2418  0.0349
56390W        W57254  14.600  12.937  28.678  0.1786 -0.2727  0.0432
56391W        W57255  18.924  12.341  22.683  0.4173  0.1354  0.0035
56392W        W57256   9.757  25.026  13.757 -0.2214  0.1270 -0.1471
56393W        W57257  10.982   5.205  19.706  0.0363 -0.2183  0.1329
56394W        W57258  24.955   3.096  27.295 -0.1874  0.2323  0.2750
56395W        W57259  24.801   7.597  20.195  0.1473  0.1192  0.0164
56396W        W57260   8.518   7.319   4.727 -0.1295 -0.1411  0.2066
56397W        W57261  20.582  28.921  18.324 -0.1049  0.1852  0.0773
56398W        W57262   8.374  24.305  19.185  0.0999 -0.0857 -0.0505
56399W        W57263   6.780  20.546  25.460  0.1231 -0.0610  0.3431
56400W        W57264  24.770  15.061   1.481 -0.1064 -0.3338 -0.0488
56401W        W57265   8.671   7.201  10.321  0.0157  0.0853  0.0071
56402W        W57266  16.436  11.585  20.557  0.1229 -0.1762 -0.3105
56403W        W57267  22.195   0.194  16.745 -0.0436 -0.1399  0.3647
56404W        W57268   6.443   0.916  25.021 -0.2129 -0.1022  0.3828
56405W        W57269   8.103   5.674  29.032 -0.1861 -0.0016  0.0943
56406W        W57270  13.086   8.842   3.823 -0.3054 -0.2267  0.0113
56407W        W57271  20.767   3.011  21.125  0.2194  0.2505 -0.0977
56408W        W57272   3.883   5.086   8.584  0.1077 -0.1108  0.0119
56409W        W57273   2.671   2.485  21.299  0.1575  0.0267 -0.0701
56410W        W57274  15.227   9.890  11.152  0.1232  0.0337  0.2948
56411W        W57275  23.750   3.165   9.937 -0.0168 -0.0815 -0.2443
56412W        W57276  26.718  16.599  26.876 -0.0875  0.0131 -0.1193
56413W        W57277  10.972   3.099  10.947 -0.0506 -0.0937 -0.0932
56414W        W57278   0.394   7.943  20.823  0.3285 -0.0631 -0.1013
56415W        W57279  12.119  16.047   8.578 -0.0866 -0.0710  0.2672
56416W        W57280   7.596  10.832  10.280 -0.2890 -0.0662 -0.2132
56417W        W57281   1.543   7.753  27.892  0.0482  0.1638 -0.0124
56418W        W57282  25.218   6.601  11.377  0.0875  0.1426 -0.1520
56419W        W57283  20.518  20.919  16.807 -0.1546  0.0225  0.0069
56420W        W57284  28.729   9.390  19.372 -0.3220 -0.2885 -0.4028
56421W        W57285  13.551   8.296  12.727  0.0857 -0.0402 -0.5059
56422W        W57286  22.125  28.985  10.135 -0.0313 -0.1625  0.0394
56423W        W57287   4.594  17.361   6.605  0.2341  0.0978  0.0382
56424W        W57288  10.666  27.329  19.579 -0.0523  0.0998 -0.2673
56425W        W57289  25.965   8.449  16.333  0.3971 -0.0684 -0.0062
56426W        W57290  11.047  27.912  12.947 -0.1789  0.1927  0.0437
56427W        W57291  13.924   3.295   8.981 -0.0938  0.1384 -0.0387
56428W        W57292  11.631   4.058  14.569  0.0253  0.3852  0.1408
56429W        W57293  18.911  24.546   8.471  0.0937  0.1480  0.0161
56430W        W57294  11.538   7.230  23.467  0.1137  0.1991 -0.3379
56431W        W57295   7.970   2.934  23.866 -0.1345 -0.3908 -0.2933
56432W        W57296  26.692  21.913  20.935 -0.2932 -0.2336  0.0678
56433W        W57297   5.886   4.716  21.352 -0.0037 -0.2502 -0.4783
56434W        W57298   7.228  12.790  27.723  0.1134 -0.1533 -0.3433
56435W        W57299  20.251  13.141  16.370  0.1704  0.0272 -0.0720
56436W        W57300  17.173   4.439  17.372  0.0073 -0.1907  0.1876
56437W        W57301  12.613  28.712  19.635  0.0385  0.0003 -0.0908
56438W        W57302   2.307  17.192  21.276  0.0666 -0.2311 -0.0873
56439W        W57303   0.880   7.683  17.221 -0.1302  0.2279 -0.0184
56440W        W57304  13.887  14.863   8.129 -0.1871 -0.0555 -0.2262
56441W        W57305  28.491  23.490  22.061  0.1731 -0.0926 -0.2771
56442W        W57306  24.490  25.538   7.222 -0.0962 -0.2394  0.2043
56443W        W57307  12.054   9.982  16.143 -0.0021  0.5394 -0.1685
56444W        W57308  17.544  27.729  19.145  0.2479  0.2241 -0.0836
56445W        W57309  21.945  28.477  20.409 -0.0003  0.1902  0.1664
56446W        W57310  17.057  10.490  22.668  0.2132 -0.2403 -0.0066
56447W        W57311  22.277  22.453  21.065 -0.1161 -0.0694  0.0155
56448W        W57312  27.923   2.322  11.173 -0.4050  0.2026  0.2345
56449W        W57313  24.530   8.007  17.459  0.2049 -0.0541 -0.0204
56450W        W57314  19.575  15.824  15.681  0.1075  0.1169 -0.0625
56451W        W57315  11.793  14.278  11.493 -0.2691 -0.1855 -0.2249
56452W        W57316  28.991   8.146  20.043 -0.0061 -0.0477 -0.3399
56453W        W57317  14.494  11.309  14.516 -0.3238 -0.0547  0.0471
56454W        W57318  21.569  15.200  22.849 -0.3171  0.2646 -0.2044
56455W        W57319  16.736  12.594   4.716 -0.0820 -0.2005  0.1229
56456W        W57320  22.755   1.966  24.792 -0.1905  0.1898  0.2964
56457W        W57321   6.093  23.401  27.220  0.3139  0.0739  0.1134
56458W        W57322   5.029   0.783  14.422 -0.0041 -0.1834  0.0714
56459W        W57323  14.540  13.447  24.693  0.0679  0.0594  0.0395
56460W        W57324  12.953  25.531   8.840 -0.2856  0.2164 -0.4339
56461W        W57325   3.383   7.877  25.972 -0.2286 -0.1278 -0.1039
56462W        W57326   6.269  11.275  13.200 -0.0023 -0.0917 -0.3650
56463W        W57327  20.912  14.833  17.150  0.0104 -0.2331  0.1408
56464W        W57328  11.662   1.735  14.834  0.2275 -0.0987 -0.2706
56465W        W57329   0.539  22.443   9.289  0.1566  0.0939 -0.1554
56466W        W57330   6.918  24.231  25.206  0.3026  0.1448 -0.1052
56467W        W57331  28.223  15.786  15.727 -0.0203 -0.2757 -0.0001
56468W        W57332   3.529   1.614   3.170  0.3423  0.1613 -0.1773
56469W        W57333   8.076   9.265   8.832 -0.1670  0.1443 -0.0021
56470W        W57334  13.320   2.967  21.325 -0.1230  0.2650  0.0204
56471W        W57335   0.812  17.675  12.196 -0.0227  0.0785  0.0932
56472W        W57336   8.983  17.837   7.542 -0.1506  0.0079 -0.1340
56473W        W57337  14.188   9.511   7.492 -0.0227  0.1079  0.2654
56474W        W57338   8.652  11.069   3.025  0.1466  0.1805 -0.2909
56475W        W57339   7.684   3.972   8.919  0.0652 -0.2885  0.0140
56476W        W57340   0.360  22.139  25.903 -0.0610  0.2610  0.1324
56477W        W57341  25.635   9.403  19.854  0.3670 -0.1766 -0.1669
56478W        W57342  15.551  28.884   2.733 -0.0399  0.0526 -0.0339
56479W        W57343  16.849  27.680  23.343  0.0620  0.1125 -0.3672
56480W        W57344   1.061   4.525   2.623  0.0328 -0.2844 -0.3243
56481W        W57345  24.354  10.467   7.482  0.1459  0.1875  0.0963
56482W        W57346  22.485  22.533  15.625  0.1885 -0.3439  0.1901
56483W        W57347  12.991  10.581  10.187 -0.1323 -0.2387  0.0014
56484W        W57348  15.805   9.220  29.069  0.0825  0.2416 -0.0250
56485W        W57349   1.619  27.490  16.836 -0.0523  0.0877 -0.2588
56486W        W57350  17.361   4.700   6.547  0.0855 -0.1849 -0.0148
56487W        W57351  14.503   5.304   7.576 -0.0182 -0.1990 -0.2000
56488W        W57352  17.329   3.985  16.567 -0.1837 -0.2218 -0.0764
56489W        W57353   9.495  26.951  12.375  0.1492  0.1215 -0.1512
56490W        W57354  19.248  28.637   4.235  0.3106  0.2113  0.0032
56491W        W57355  28.251  23.989  19.935 -0.1476  0.0360  0.1129
56492W        W57356  17.342   0.581  15.822  0.0529  0.1125 -0.2343
56493W        W57357  21.026   9.910  23.081  0.0377  0.0813  0.0848
56494W        W57358  10.142   7.904  15.547 -0.0151  0.0824  0.2192
56495W        W57359   5.481  19.331  29.018  0.2062 -0.2340  0.1328
56496W        W57360   2.225   6.903  15.127 -0.0969  0.1602 -0.0461
56497W        W57361   5.082  23.495   1.694 -0.2931  0.1191  0.2373
56498W        W57362   6.591  19.444  16.241  0.0287  0.1180  0.0570
56499W        W57363  22.719  14.260   8.694 -0.0458 -0.4121 -0.1925
56500W        W57364   0.730  20.156  12.681 -0.0529  0.2269  0.0016
56501W        W57365  14.089  14.790  23.125 -0.0760  0.0992 -0.1052
56502W        W57366   7.663  17.370   2.294 -0.4153 -0.0008  0.1161
56503W        W57367  14.285  12.753  19.970  0.1827 -0.1002 -0.3718
56504W        W57368  25.665  13.931  11.590 -0.0801 -0.1619  0.0015
56505W        W57369  13.904  24.704   4.191 -0.2720  0.0960  0.1191
56506W        W57370  28.443   9.376  28.316  0.3008  0.1270 -0.3241
56507W        W57371   0.490   6.745  25.956 -0.1318 -0.4002  0.0392
56508W        W57372  18.878  12.237  25.242 -0.1209 -0.3675  0.0349
56509W        W57373  19.728  18.436   4.603  0.1583  0.0656 -0.2896
56510W        W57374  22.446   3.238  18.643 -0.1165 -0.0590 -0.2248
56511W        W57375   6.219   7.106  22.871 -0.1222  0.1342 -0.3110
56512W        W57376  28.348  16.671  13.144  0.0192  0.2375  0.1693
56513W        W57377  10.487  20.980  28.603 -0.0605 -0.0884  0.0662
56514W        W57378  23.196   6.563  27.052 -0.1836  0.0641  0.0779
56515W        W57379  17.414  22.232  11.963 -0.1877  0.2798 -0.0540
56516W        W57380  14.509  25.003   9.315  0.1932 -0.0070 -0.0703
56517W        W57381  25.512  17.574  20.575 -0.1667 -0.0346  0.2223
56518W        W57382   9.188  20.032  27.845  0.0084  0.1592  0.1029
56519W        W57383   7.011   6.140  14.324  0.1727  0.2481  0.0740
56520W        W57384   5.626  20.375   8.995  0.0864 -0.0221  0.2236
56521W        W57385   6.585   7.730  27.989 -0.0935 -0.0646  0.0544
56522W        W57386  27.395   5.175  14.647  0.2474  0.0320 -0.2066
56523W        W57387  25.966   0.145  22.674  0.0381  0.3574  0.1479
56524W        W57388  14.996   2.442  27.648  0.2134  0.0966 -0.1303
56525W        W57389  23.427  27.402  18.871 -0.0502  0.1088 -0.1475
56526W        W57390   2.450  11.270   2.980  0.2047  0.0719 -0.1181
56527W        W57391  11.782   1.061  20.872 -0.2884 -0.1191 -0.2775
56528W        W57392  11.837  12.101  17.415 -0.0636  0.0260 -0.0448
56529W        W57393   3.857  12.788  15.680 -0.0541 -0.0724 -0.2827
56530W        W57394   2.718  22.550  18.580  0.1389  0.0750  0.1240
56531W        W57395  26.752  15.092  20.696 -0.0953 -0.1952  0.1876
56532W        W57396  17.947  11.997  16.255  0.1034 -0.4528 -0.0099
56533W        W57397   7.374   9.164  18.782  0.0180  0.1156 -0.1948
56534W        W57398  14.534  20.777  24.936  0.1380  0.3297 -0.2156
56535W        W57399  19.143  24.199  14.263 -0.2568 -0.0634 -0.0250
56536W        W57400  23.761   4.256   0.262 -0.0709 -0.1117  0.0597
56537W        W57401  26.408   4.352  11.058 -0.1666  0.5639 -0.1096
56538W        W57402   0.007  24.862  19.763  0.2119 -0.1355  0.1760
56539W        W57403  12.892   6.782  13.106 -0.2268  0.0230 -0.3829
56540W        W57404  14.402   1.731   9.410  0.0517  0.2973 -0.1937
56541W        W57405  21.114   5.418  17.132  0.0017  0.3153 -0.0550
56542W        W57406  26.796   9.657  24.777 -0.2243  0.0935 -0.0350
56543W        W57407  11.369   1.727  19.401  0.1847 -0.0409  0.5866
56544W        W57408  15.805   7.270   8.682 -0.2384 -0.3883 -0.0435
56545W        W57409  17.129  25.458  22.183 -0.1388 -0.3428 -0.3218
56546W        W57410   5.659   4.438  25.768 -0.1735 -0.0274 -0.1385
56547W        W57411   7.484  12.859   5.335  0.2193 -0.1868 -0.3614
56548W        W57412   0.109   1.719  12.809  0.5089  0.2124 -0.5535
56549W        W57413   3.907  17.600   9.203  0.0694 -0.5567 -0.0068
56550W        W57414  25.980  22.566  16.124 -0.1090 -0.1480 -0.0486
56551W        W57415   7.337   4.532   9.577 -0.1379 -0.0396  0.0990
56552W        W57416  23.964  22.452  15.216  0.0558 -0.1992 -0.0738
56553W        W57417   3.375  26.080  20.882  0.0967 -0.3253 -0.3708
56554W        W57418   8.645  17.719  19.727 -0.1025 -0.0726  0.1051
56555W        W57419  14.586  24.762   0.044 -0.0993 -0.4784  0.0929
56556W        W57420  23.401   1.196  16.285 -0.0451 -0.1893 -0.0949
56557W        W57421  19.219  27.638  15.011  0.0512 -0.3681 -0.1159
56558W        W57422  21.173  20.489   5.593 -0.1900 -0.2229 -0.0123
56559W        W57423   9.886  13.744  25.024  0.2537 -0.4712  0.0880
56560W        W57424  12.744  15.251   6.875 -0.1200 -0.0849  0.3110
56561W        W57425   7.749   9.709  27.622  0.3405  0.1214  0.1711
56562W        W57426   0.828   4.014   7.247 -0.2409  0.1145  0.0654
56563W        W57427   7.977   9.379   9.614 -0.1251 -0.1671  0.2534
56564W        W57428  14.049  16.721   7.652 -0.0586  0.2729  0.1472
56565W        W57429  16.903  13.111  23.547  0.0772  0.0362  0.0531
56566W        W57430  25.363  14.117   0.879  0.0333 -0.2225  0.0635
56567W        W57431  14.930  23.163  19.451 -0.1104 -0.2817  0.0369
56568W        W57432  16.057  16.499  25.209  0.1992 -0.3055  0.0533
56569W        W57433  12.036   0.224  13.114 -0.1276  0.2678  0.2140
56570W        W57434   4.920  11.555  16.956  0.3686 -0.2756  0.1385
56571W        W57435   3.370  13.294  25.559  0.0344 -0.0367  0.1319
56572W        W57436  23.506  11.118  14.895  0.1324 -0.2763 -0.1033
56573W        W57437   4.230  28.091   2.682 -0.0787  0.0121 -0.0726
56574W        W57438  10.096   5.221   6.935  0.1837  0.1617 -0.3360
56575W        W57439  26.459  26.864   1.562 -0.1372  0.0984 -0.3162
56576W        W57440  20.521   6.339  16.211  0.0745 -0.0704  0.1010
56577W        W57441   4.196  14.509   9.528 -0.0241 -0.0116 -0.1916
56578W        W57442   5.173   2.076  24.067 -0.1996 -0.3540  0.1803
56579W        W57443   9.152   6.652   8.719  0.0525 -0.1187 -0.1477
56580W        W57444   4.293  13.693  20.172  0.0784  0.1599  0.0758
56581W        W57445   4.314  21.127   9.760 -0.1396 -0.0322 -0.0927
56582W        W57446  13.203   5.674  10.370  0.2496 -0.0586 -0.3602
56583W        W57447  13.447   6.687  19.379 -0.1490  0.1055 -0.2728
56584W        W57448   8.402  18.779   8.940  0.3744  0.3896 -0.2119
56585W        W57449  12.473   5.541  28.904  0.0718 -0.2365 -0.0207
56586W        W57450   6.564   2.237  22.669  0.1551  0.0131 -0.2320
56587W        W57451   8.637   1.681  27.256 -0.2344 -0.0609  0.0554
56588W        W57452   5.771   1.877  24.775  0.0413  0.1762  0.0880
56589W        W57453  15.745  15.068  26.080  0.2095 -0.2148  0.2820
56590W        W57454  26.334  28.897  20.526 -0.0701 -0.5030 -0.0078
56591W        W57455   1.845   0.967  16.840 -0.2642 -0.2092  0.3653
56592W        W57456  18.482  16.654  16.639  0.2886  0.2034 -0.1723
56593W        W57457   0.691  26.801   5.164 -0.2910  0.3093  0.0692
56594W        W57458   2.230  14.394   3.384 -0.1490  0.1682 -0.2044
56595W        W57459  21.802  15.945  16.435 -0.0080 -0.1043 -0.0400
56596W        W57460  24.593   4.611  22.469  0.2637 -0.1737 -0.2246
56597W        W57461  19.482  15.302   1.418 -0.0028 -0.0764  0.1591
56598W        W57462  12.338  22.152  20.616 -0.3434  0.1591  0.4852
56599W        W57463  22.150   3.880  22.823  0.4577 -0.1365 -0.1216
56600W        W57464  24.486  18.199   4.194 -0.1534  0.1047  0.0768
56601W        W57465   2.479   6.448  26.585  0.1281  0.0529  0.0004
56602W        W57466  23.106   9.152   6.714 -0.0884  0.3060  0.0391
56603W        W57467   5.834   4.903  11.103 -0.0625  0.0679  0.6225
56604W        W57468   1.221   4.686  17.783  0.2477 -0.0664 -0.1578
56605W        W57469  14.395   7.127  18.005 -0.0821  0.0379 -0.1452
56606W        W57470   6.136   7.531   8.664  0.0543  0.0220  0.2616
56607W        W57471   7.887  12.445  16.442  0.1472 -0.0645 -0.0485
56608W        W57472   7.422  19.253  11.970 -0.3924  0.1607  0.0784
56609W        W57473   1.522   8.494   7.570  0.0803 -0.1490  0.0639
56610W        W57474   0.652  12.418  17.015 -0.1625  0.0146  0.3521
56611W        W57475   1.391  27.907  23.711  0.3195 -0.1373 -0.1132
56612W        W57476   3.402   9.255  10.217  0.1009  0.0518  0.0173
56613W        W57477   5.144  20.202  11.196  0.1038 -0.0912  0.2283
56614W        W57478   0.996   3.989  24.465  0.1565  0.1256 -0.1794
56615W        W57479   1.698  19.450  23.531 -0.0596 -0.0590  0.1234
56616W        W57480   3.476  21.659  19.017  0.0426 -0.0399 -0.0326
56617W        W57481   3.402  14.614  11.334  0.0184 -0.1071 -0.1107
56618W        W57482  24.994   0.377  15.748  0.0572  0.2009  0.1494
56619W        W57483   2.894   0.319  26.585 -0.1549 -0.1475 -0.1350
56620W        W57484  17.474   6.270  13.202  0.3259  0.0064  0.0706
56621W        W57485  23.692  13.588  15.111  0.1284 -0.2105  0.2934
56622W        W57486  27.559  18.122  19.037  0.1369  0.1832  0.1779
56623W        W57487  23.395  14.379  11.312  0.2867  0.1869  0.1371
56624W        W57488  18.978   1.307  15.102 -0.0159 -0.0596  0.0013
56625W        W57489   9.324   0.399  21.687  0.0834  0.1707 -0.0075
56626W        W57490  23.090  27.750  19.824  0.0890 -0.0631  0.1125
56627W        W57491   7.731   7.509  27.325 -0.0899  0.1395  0.4077
56628W        W57492   5.586  11.680  16.345 -0.4573 -0.0728 -0.1706
56629W        W57493   6.328  11.962  16.370  0.0736 -0.2940  0.2516
56630W        W57494   5.073   3.555  14.090  0.0195 -0.0179 -0.2972
56631W        W57495   6.764  23.799   2.134  0.1781  0.0437  0.2969
56632W        W57496   4.200  18.256  15.245  0.2528  0.0804 -0.1187
56633W        W57497  15.270   5.697  25.292 -0.0561 -0.1269 -0.2188
56634W        W57498  11.114   9.036  14.004  0.1053 -0.3322  0.1716
56635W        W57499   4.969   0.410  23.926  0.2528 -0.0614 -0.1398
56636W        W57500  10.790   7.400  13.662 -0.0649 -0.0965  0.0192
56637W        W57501  12.265   2.297  28.476 -0.3457  0.3139  0.1130
56638W        W57502   4.707  23.538  24.050 -0.0384 -0.0594 -0.1664
56639W        W57503   7.226  17.193  22.690  0.2399  0.3751 -0.2827
56640W        W57504  18.350   1.560  20.833 -0.3443  0.1131  0.3159
56641W        W57505   7.106  27.402  10.776 -0.3934 -0.2121  0.0845
56642W        W57506  13.141   9.550  10.213  0.1688 -0.2423  0.3216
56643W        W57507  12.616   3.507   5.746  0.4936  0.0429  0.0605
56644W        W57508  20.482  15.360  17.268  0.2925 -0.2505  0.3081
56645W        W57509  16.434  15.858   7.086 -0.1875  0.2640  0.1236
56646W        W57510  14.682  19.935  11.750 -0.4262 -0.0051 -0.0261
56647W        W57511  12.626  15.749   2.085  0.0819  0.1514 -0.0973
56648W        W57512  18.049   4.099  13.202 -0.0377 -0.0373  0.0303
56649W        W57513  13.088   0.425  24.532 -0.0430  0.0400  0.0720
56650W        W57514  22.529  19.861  16.417 -0.2293  0.1354 -0.0772
56651W        W57515  14.829  21.406  25.984 -0.1857 -0.1439 -0.3462
56652W        W57516  20.280   8.652   7.499 -0.1480 -0.1003 -0.5283
56653W        W57517   1.690   1.018   2.567  0.1288 -0.1646  0.0813
56654W        W57518  14.599  22.503  10.979 -0.1129 -0.0053  0.1842
56655W        W57519  29.087  28.665  12.379  0.1762  0.2072  0.0145
56656W        W57520   8.709  26.568  13.358  0.0175  0.0452  0.3009
56657W        W57521  25.898  15.981  16.864 -0.1450  0.2262  0.1319
56658W        W57522   7.390  28.191  17.165 -0.0154  0.1350 -0.0297
56659W        W57523  21.502  25.265   9.263  0.2839 -0.1830 -0.1362
56660W        W57524  22.445  27.102  25.477 -0.0045  0.1252  0.2887
56661W        W57525  14.348  26.509  26.082  0.1662 -0.1321 -0.0740
56662W        W57526  18.238  16.568   6.144 -0.0425 -0.1237  0.0069
56663W        W57527   6.223   1.669  21.305  0.1799 -0.0177 -0.0782
56664W        W57528  15.266  20.548   1.413  0.1017 -0.1335  0.0781
56665W        W57529  25.203   4.127  17.929 -0.3594  0.1449 -0.3632
56666W        W57530  21.984   6.020  17.604  0.0563  0.0918 -0.2454
56667W        W57531   0.319   7.095  28.039  0.1953  0.1310  0.2714
56668W        W57532   3.266  13.641  23.705 -0.1040 -0.1616  0.1934
56669W        W57533   2.177   5.982  25.763  0.1675 -0.1002  0.0676
56670W        W57534  23.873   3.740  23.733 -0.2778  0.0533 -0.1445
56671W        W57535   6.993  18.888   9.695  0.0729 -0.1307 -0.3884
56672W        W57536  11.187  16.566  18.404  0.3826 -0.2345 -0.1695
56673W        W57537   5.977  12.888   1.049  0.3591  0.0073 -0.0178
56674W        W57538   4.435   6.340  17.721 -0.2045 -0.2664 -0.2773
56675W        W57539   8.987  18.375   7.258 -0.0864  0.0205  0.0484
56676W        W57540   2.217  24.190  13.801  0.1574  0.0176 -0.0497
56677W        W57541  11.946   5.267  26.738  0.0716  0.0231 -0.1185
56678W        W57542  11.339  19.840  23.874 -0.0238 -0.0951 -0.0244
56679W        W57543   1.090  15.216  13.465  0.0511  0.1324  0.2739
56680W        W57544   7.914   6.487  29.054 -0.0973  0.0367  0.1349
56681W        W57545   0.063  26.583  27.979 -0.2821  0.0624 -0.1400
56682W        W57546  11.040   0.237  16.152  0.0017 -0.1860  0.0496
56683W        W57547   0.892  20.136  24.797 -0.1128 -0.2356  0.1225
56684W        W57548  10.307   1.254  10.619 -0.2022  0.0309  0.1821
56685W        W57549   6.973   2.812  15.893 -0.0637 -0.2946  0.2053
56686W        W57550   6.682  24.032  10.653 -0.0466 -0.3182 -0.0863
56687W        W57551   6.811   8.201  20.234  0.1167 -0.0235  0.0422
56688W        W57552   2.624  18.818  26.677 -0.1461 -0.1197  0.1243
56689W        W57553   7.381   4.877  11.458  0.1782  0.0505 -0.0819
56690W        W57554  17.423  19.240  11.981  0.2101  0.0258 -0.0593
56691W        W57555  20.891   1.727   4.047 -0.2633 -0.2835 -0.1349
56692W        W57556  23.431   5.320   0.457  0.3932 -0.4185 -0.2267
56693W        W57557  10.781  27.198  25.993 -0.1464 -0.2140  0.1012
56694W        W57558  10.036  18.597   3.161 -0.0376 -0.0946 -0.0972
56695W        W57559  10.079  10.242  19.610 -0.0272 -0.1784 -0.2358
56696W        W57560   6.321  26.788  13.826  0.0611 -0.4130  0.1533
56697W        W57561   8.571   5.966  17.275 -0.0763 -0.0984 -0.0710
56698W        W57562   9.322  10.045  16.952 -0.0500  0.2416 -0.2594
56699W        W57563  26.046   6.387  21.076  0.1880 -0.2190 -0.1817
56700W        W57564  10.423  24.844  19.946  0.2401 -0.0909 -0.1193
56701W        W57565  13.127   4.280   9.220 -0.2383  0.0124 -0.2245
56702W        W57566   9.634  24.680  17.165  0.0202  0.0586  0.1560
56703W        W57567   4.445  10.134   8.288 -0.0355  0.0820 -0.2162
56704W        W57568  15.223  13.577  17.063  0.1548 -0.3734 -0.0823
56705W        W57569  16.481  12.419   7.945 -0.0036 -0.0120  0.0717
56706W        W57570  12.035  11.049  12.844  0.1555 -0.0195 -0.0978
56707W        W57571   7.110   0.702  17.475  0.0990  0.1687  0.4135
56708W        W57572  27.830  23.822   1.051 -0.0973 -0.3751 -0.0445
56709W        W57573   2.969  17.845  18.336  0.1103  0.2168 -0.0988
56710W        W57574  14.834  27.398  13.201  0.0599  0.1830 -0.0380
56711W        W57575  11.243   8.814   0.656 -0.0179 -0.1157 -0.0361
56712W        W57576  12.409  28.347  25.027 -0.0804  0.2335  0.1158
56713W        W57577  16.920   0.072   4.553  0.2617  0.1666 -0.0372
56714W        W57578   8.742  11.233  26.291  0.0264  0.2392 -0.1184
56715W        W57579  16.633   2.039  26.995 -0.2164  0.2534 -0.0901
56716W        W57580  24.773  24.161   7.022  0.0746 -0.2140 -0.0343
56717W        W57581  20.492   9.451  25.270  0.0839  0.1030 -0.1898
56718W        W57582  15.327   9.987  11.614  0.0733 -0.1619  0.1084
56719W        W57583  18.308  28.606  15.457  0.0514 -0.2403 -0.2311
56720W        W57584  28.155  10.722   7.864  0.0581  0.5457  0.1040
56721W        W57585   4.260  22.133  12.849  0.3563  0.0628 -0.2947
56722W        W57586  25.870   4.595  28.525  0.0733 -0.3555  0.2129
56723W        W57587  22.317   8.764   9.200  0.0978  0.0453 -0.2981
56724W        W57588  26.389   1.677  17.900 -0.0464 -0.0155  0.4800
56725W        W57589   8.549  21.217  24.440  0.0787 -0.0366 -0.0510
56726W        W57590   2.112  11.010  13.809  0.0960 -0.1494 -0.4223
56727W        W57591   1.899   2.655  22.029  0.0328 -0.0955 -0.0561
56728W        W57592  23.196  10.673  23.114 -0.1832  0.0194 -0.0143
56729W        W57593  22.598   9.837  16.262 -0.0344  0.3225 -0.0414
56730W        W57594  17.855  25.374   1.982 -0.0892  0.1812 -0.0462
56731W        W57595  13.195   4.410  23.871  0.0875 -0.2094  0.2710
56732W        W57596   0.060   5.068   5.306 -0.0769 -0.0293 -0.1151
56733W        W57597   2.725  16.524   9.579  0.1184  0.1606 -0.0326
56734W        W57598  28.985   0.688  23.916  0.1037  0.0415  0.2287
56735W        W57599  21.683  26.556   8.979  0.0978  0.0406  0.0457
56736W        W57600  11.266   4.610  13.952  0.0331  0.1879 -0.2163
56737W        W57601   0.614   9.463  27.608  0.0640  0.0860 -0.0948
56738W        W57602   1.436  15.549   9.263 -0.0104  0.3011 -0.0499
56739W        W57603   9.484   4.175  22.210 -0.3654 -0.0010 -0.2062
56740W        W57604   9.357   8.402  26.893 -0.0330  0.0008 -0.2154
56741W        W57605   1.695  17.457   2.228  0.0116 -0.0439 -0.0228
56742W        W57606  15.916   6.483  29.119  0.0418  0.0320 -0.2389
56743W        W57607   0.889   6.962  17.933  0.1161  0.0932 -0.2780
56744W        W57608  12.138   0.283  20.425  0.0753  0.0470  0.0398
56745W        W57609  14.414   6.098   9.157 -0.2986 -0.1300  0.4917
56746W        W57610   9.145  28.772  28.856  0.4298  0.0422  0.0768
56747W        W57611   7.063   8.651  12.629 -0.3265  0.2293  0.1975
56748W        W57612  11.607  19.956  21.259 -0.0622 -0.0856 -0.0796
56749W        W57613  23.024  20.619  21.910  0.1075  0.0022 -0.0964
56750W        W57614  14.208  24.195   0.995 -0.1259  0.0137  0.1702
56751W        W57615  16.159  17.291   2.825 -0.0296  0.1578 -0.0321
56752W        W57616  11.365  28.235   5.833  0.1840 -0.0855  0.2281
56753W        W57617  26.589   4.786   4.284 -0.0775  0.1176 -0.0855
56754W        W57618   1.726   1.621  26.452  0.0440 -0.2163  0.1341
56755W        W57619  20.019   2.661  18.366 -0.2941 -0.0152  0.1964
56756W        W57620  26.469  15.088  18.631 -0.1835 -0.1487 -0.0556
56757W        W57621  10.067  25.338  24.456  0.2567 -0.0818  0.0485
56758W        W57622   2.496   1.380   0.168 -0.0854 -0.1242  0.0517
56759W        W57623   1.566   6.272   0.760 -0.1865 -0.0545 -0.2917
56760W        W57624  21.930   3.255   4.766  0.0879 -0.0046 -0.0289
56761W        W57625  15.631   6.618  15.767  0.1404 -0.0041 -0.0341
56762W        W57626  16.400   4.624  27.367 -0.1313  0.0795 -0.1732
56763W        W57627  25.452   1.347  16.987  0.1238  0.0031  0.0121
56764W        W57628   7.032   9.134  24.974  0.1847 -0.0082  0.1762
56765W        W57629   8.897  16.651  19.702 -0.5183  0.1389  0.0821
56766W        W57630  28.787  27.350  15.363 -0.1004 -0.5382 -0.1254
56767W        W57631   7.305  13.744  15.340 -0.0063 -0.4565  0.0513
56768W        W57632  20.552  14.167   8.309 -0.1385  0.0704 -0.1529
56769W        W57633  16.370  21.650  25.182  0.3022 -0.3585 -0.0889
56770W        W57634  10.477  13.285  11.754  0.2525  0.2566 -0.1179
56771W        W57635  18.535  12.209  19.552  0.3192 -0.0625 -0.1854
56772W        W57636  27.742   3.498  12.353 -0.1907 -0.2628  0.2994
56773W        W57637  22.953   0.325  17.160 -0.1338 -0.1076 -0.0597
56774W        W57638   9.071  25.690  16.570  0.2379  0.1446 -0.3002
56775W        W57639   4.678   4.719  13.486  0.0302 -0.0766  0.0261
56776W        W57640   8.995   5.602   5.477 -0.3772  0.1543 -0.1576
56777W        W57641  25.376  28.297  24.501  0.2945  0.1161 -0.1154
56778W        W57642  26.126  15.689  11.605 -0.0522 -0.1335 -0.0135
56779W        W57643  16.038  13.011  12.174 -0.0314  0.1898 -0.1077
56780W        W57644   5.988   7.329   4.679  0.1838 -0.0972 -0.1155
56781W        W57645  11.292   1.976  28.065 -0.5141 -0.0030  0.6243
56782W        W57646   1.737   7.380   0.485  0.0001 -0.2498 -0.1513
56783W        W57647   7.378  11.164  16.734  0.0219 -0.2319 -0.1319
56784W        W57648  28.796   0.608   3.753  0.3040 -0.1649  0.2455
56785W        W57649  17.872  15.702  14.835  0.1985 -0.0116 -0.1780
56786W        W57650  12.036   1.216  28.953  0.1932 -0.0815 -0.1760
56787W        W57651   9.274  27.308  26.514 -0.1697 -0.1558 -0.1809
56788W        W57652  20.292   7.322  15.107 -0.0303  0.2841  0.1732
56789W        W57653  24.566  28.275  13.439  0.1223  0.1354  0.1358
56790W        W57654  10.739   6.062  26.453  0.1489  0.0466  0.0491
56791W        W57655   8.297  26.364  22.092 -0.1452  0.3481 -0.0026
56792W        W57656  12.702   1.409   3.256  0.1681 -0.1966  0.4427
56793W        W57657   0.875  26.465  12.356  0.0868 -0.1518  0.0189
56794W        W57658   3.481   0.105   4.921  0.2029  0.0772  0.1531
56795W        W57659  16.254  25.679  20.126  0.2086  0.1963  0.0044
56796W        W57660  20.124   9.436  20.912 -0.0527  0.1671 -0.1486
56797W        W57661   3.075  10.219  18.976  0.3406 -0.0753  0.2797
56798W        W57662  21.077   5.195   0.360  0.0423 -0.0840 -0.1199
56799W        W57663  16.544   8.192  10.439  0.0954  0.1042  0.2460
56800W        W57664  10.413   8.385  22.790  0.0919 -0.0579  0.0509
56801W        W57665   9.467   2.923  15.890  0.0078  0.0029  0.0629
56802W        W57666   9.816  10.628  20.272 -0.4217  0.0038 -0.0714
56803W        W57667  23.652   1.845  18.957 -0.0537  0.1777 -0.0891
56804W        W57668   4.224  13.885  23.364 -0.1337  0.2031 -0.0152
56805W        W57669  22.714   0.332  15.558 -0.0518  0.0282  0.0141
56806W        W57670   1.003   8.615  13.777  0.1869 -0.2941  0.0301
56807W        W57671  17.801  11.574  20.179 -0.2010  0.2310  0.0132
56808W        W57672   6.277  26.625  19.302  0.0838 -0.1917 -0.1231
56809W        W57673  16.784  27.296   9.903 -0.0046  0.0923 -0.0227
56810W        W57674   6.611   7.209   7.321 -0.0229  0.1306  0.2101
56811W        W57675   3.986  12.650  21.236  0.0192  0.1682  0.0205
56812W        W57676   2.577  14.389   8.556 -0.4146 -0.0048 -0.1591
56813W        W57677   1.117  28.974  26.653  0.1541 -0.3971  0.0841
56814W        W57678  20.786  10.477   8.923 -0.0626 -0.0614 -0.3302
56815W        W57679   5.705  15.758   2.739 -0.0017 -0.1619 -0.1858
56816W        W57680  17.465   5.565  20.642  0.0014 -0.0381  0.1807
56817W        W57681  15.442   7.389  23.044 -0.0930  0.1374 -0.1823
56818W        W57682  19.254  24.093  24.481 -0.0080 -0.2048 -0.2943
56819W        W57683  28.366  10.088   1.761  0.0859  0.0419  0.0710
56820W        W57684  10.204  17.142  25.273  0.1887  0.0225 -0.0877
56821W        W57685  22.488  11.908  26.612 -0.2761  0.1129 -0.0873
56822W        W57686   4.368  27.526  14.811  0.1086 -0.0696  0.2240
56823W        W57687   8.376   8.676   5.698 -0.3238 -0.2924  0.1967
56824W        W57688  12.578   7.270   5.590 -0.0771 -0.4239  0.2940
56825W        W57689   2.214  11.800  22.206 -0.1693  0.1669 -0.2328
56826W        W57690  10.729  11.243  12.298  0.1624 -0.0345  0.2345
56827W        W57691  23.504   0.951  13.519  0.0027 -0.0922 -0.2382
56828W        W57692   6.198   1.168  14.941  0.0797  0.0349  0.1595
56829W        W57693   0.206  24.518   8.904  0.0518 -0.3509  0.3196
56830W        W57694   2.036  25.086   2.128 -0.0950 -0.0684 -0.1568
56831W        W57695  13.073  14.520  18.956 -0.0502  0.1687 -0.0805
56832W        W57696  24.194  17.567  12.506  0.1101  0.3262 -0.0199
56833W        W57697  20.902   1.300  29.048 -0.1765 -0.2058  0.0023
56834W        W57698  10.628   8.940   7.994  0.2170 -0.0006  0.2456
56835W        W57699   8.690   6.522   5.184 -0.2102  0.2995  0.3056
56836W        W57700  12.101  23.919   3.596  0.1863 -0.2633  0.0195
56837W        W57701  24.699   0.431   4.329 -0.1799  0.2381 -0.0782
56838W        W57702  12.528  23.017  28.336 -0.1604  0.0232  0.1284
56839W        W57703  20.680   7.263   2.115 -0.0023 -0.1594  0.1468
56840W        W57704  26.344  22.562  22.158 -0.0053  0.3146  0.1396
56841W        W57705  12.245  17.166  24.738  0.0175  0.1347  0.1172
56842W        W57706   9.619   5.944  18.338  0.0597 -0.3657  0.1842
56843W        W57707  16.500  15.334   9.905  0.1620 -0.0735 -0.3522
56844W        W57708  23.586  10.430  14.510  0.2444 -0.0020  0.1934
56845W        W57709   8.181  23.132  14.868 -0.2415 -0.1260  0.4706
56846W        W57710  26.297   1.159  25.299 -0.2670 -0.1425 -0.3333
56847W        W57711  20.859   7.389   2.667  0.3000  0.0733 -0.0977
56848W        W57712  24.247  12.511  21.078 -0.0878 -0.0254 -0.1742
56849W        W57713   9.032  10.019  14.767 -0.2980 -0.0499 -0.4932
56850W        W57714  23.256   1.980  15.879  0.3928 -0.3725  0.0210
56851W        W57715  13.938   0.859  20.814  0.0334  0.3148  0.1354
56852W        W57716   3.635   9.821  18.810  0.1859 -0.1640  0.3548
56853W        W57717   3.941  14.428  15.729 -0.1003  0.0715 -0.0414
56854W        W57718   7.140   4.270  18.303 -0.3348 -0.1151 -0.0614
56855W        W57719  24.881   7.597  20.731  0.0581  0.0389  0.1384
56856W        W57720  14.854  27.590   3.000  0.0448 -0.3299 -0.2951
56857W        W57721   9.768   6.729   5.211 -0.1115  0.0138  0.2522
56858W        W57722   0.516  18.304  23.434  0.0628  0.0876  0.0299
56859W        W57723  23.243  22.714   2.394 -0.0458 -0.0434  0.1337
56860W        W57724  18.590  18.432  23.357 -0.1517  0.0425 -0.2595
56861W        W57725  17.033   9.640   0.981  0.0837 -0.0801  0.2225
56862W        W57726  18.323  16.067  23.315 -0.3033 -0.2220 -0.2716
56863W        W57727   2.254  17.169  10.918  0.2425  0.0688  0.2791
56864W        W57728  12.353  19.989  20.107  0.4814  0.1037 -0.1697
56865W        W57729  16.504   9.931  27.506  0.1961 -0.1688  0.0068
56866W        W57730  28.518   0.893   1.903 -0.0386 -0.0430 -0.0823
56867W        W57731  10.831   6.221  17.646 -0.1756  0.2117 -0.1730
56868W        W57732  18.516   1.237  14.707 -0.0132  0.0119 -0.1777
56869W        W57733   5.025   2.838  10.577  0.0114 -0.1243  0.0569
56870W        W57734  13.371  14.063  13.711 -0.3745 -0.0938  0.0438
56871W        W57735  22.624   3.196   2.171  0.2247 -0.2020 -0.2361
56872W        W57736  19.184  23.028  11.881  0.0159  0.2600  0.1877
56873W        W57737  17.467  13.428  15.227  0.1372 -0.1112 -0.1216
56874W        W57738   4.348  12.963  12.059 -0.2482 -0.1772  0.2130
56875W        W57739   0.669  11.699  26.075 -0.1967  0.2749 -0.3179
56876W        W57740   4.537  20.485  15.864  0.1279 -0.1361  0.0900
56877W        W57741  18.377   5.222   6.474 -0.2161 -0.1303 -0.2511
56878W        W57742   8.369   7.237  12.574 -0.0412  0.1595 -0.2437
56879W        W57743   8.961  15.142  24.998 -0.1103 -0.0320  0.1718
56880W        W57744  13.735   6.947  14.200  0.2334  0.1926  0.1826
56881W        W57745  20.655  14.052  28.647 -0.0448 -0.1280  0.0025
56882W        W57746  22.295   4.113  27.270  0.0440 -0.1538  0.0617
56883W        W57747  15.413   4.598   5.492  0.1060  0.1702 -0.2344
56884W        W57748   5.372   2.269  24.897 -0.1576  0.0259 -0.0167
56885W        W57749  24.434  25.721  16.975 -0.1997  0.1269  0.0784
56886W        W57750  19.062  14.677   1.433 -0.0876  0.3793  0.0556
56887W        W57751   6.867   9.484  20.546 -0.1227  0.0730 -0.0287
56888W        W57752  19.720  11.966  20.750  0.0519  0.1161  0.0264
56889W        W57753   2.741   5.211   5.785 -0.0071 -0.1930 -0.0840
56890W        W57754   2.306  15.945  23.751 -0.5927  0.0388  0.0479
56891W        W57755  14.318  29.005  18.010  0.0016 -0.1530 -0.0413
56892W        W57756  14.438   8.166  29.127 -0.0273  0.0888 -0.0930
56893W        W57757   6.919   1.090  10.733 -0.0414  0.0648 -0.0744
56894W        W57758  14.626   2.574   3.752 -0.1642  0.2247  0.0561
56895W        W57759  13.033   2.304  10.358 -0.2756  0.0903 -0.0907
56896W        W57760  26.734  20.544  20.676 -0.0882  0.1430 -0.2956
56897W        W57761   9.780  27.138   9.692 -0.2111  0.0966  0.2098
56898W        W57762  10.942  20.004  14.614  0.0168  0.1949 -0.0724
56899W        W57763  15.541   6.266  17.684 -0.0259  0.0143  0.1487
56900W        W57764  18.410  17.228  21.670  0.0328  0.0942  0.2882
56901W        W57765   1.547  15.068  16.380  0.0317  0.0879 -0.0207
56902W        W57766   7.235   5.548   8.612 -0.4355  0.0722 -0.1744
56903W        W57767  11.583  11.057  12.986  0.3501  0.1107 -0.0879
56904W        W57768   2.726  28.047   2.440  0.2343  0.3856 -0.1559
56905W        W57769  29.069  21.041  24.038  0.1106  0.0917 -0.2423
56906W        W57770  25.935   4.478  22.080  0.0182  0.1843 -0.1840
56907W        W57771  20.846  22.486  11.706  0.2460 -0.0721  0.1250
56908W        W57772   8.385  21.995  23.868  0.1265 -0.1391 -0.3325
56909W        W57773  14.908   9.787  21.717  0.1882  0.5379  0.1657
56910W        W57774   9.116   1.066  17.168  0.1251  0.0606  0.1529
56911W        W57775  25.309  12.984  15.178 -0.0409  0.0153 -0.1809
56912W        W57776   9.475   4.568  27.027 -0.0032  0.2065 -0.0940
56913W        W57777  14.832  26.279   9.710  0.2394 -0.0416 -0.0242
56914W        W57778   7.879  28.143  21.680 -0.1511  0.0600 -0.0545
56915W        W57779   1.534   9.583   7.217  0.0923 -0.4315  0.0597
56916W        W57780   7.274   0.444   7.595  0.0694  0.0240  0.0678
56917W        W57781  20.579   1.427   8.688 -0.0056  0.2501 -0.0972
56918W        W57782   6.386  14.060  13.397  0.1427 -0.1598  0.2267
56919W        W57783  20.724  10.329  18.975  0.0537  0.3738 -0.1192
56920W        W57784  10.482   8.344  23.995 -0.2304 -0.0595  0.1933
56921W        W57785  13.538   1.684   9.037 -0.3045 -0.0531 -0.2214
56922W        W57786  14.625  25.208  27.558  0.2642 -0.0194  0.1845
56923W        W57787   4.661   7.876  27.459 -0.0428 -0.0038  0.0796
56924W        W57788   3.813   9.543  19.971  0.1219  0.0147 -0.1651
56925W        W57789  14.248  27.114  22.075 -0.0978  0.0023  0.2096
56926W        W57790  15.102  27.787  17.574 -0.1832  0.3262 -0.3699
56927W        W57791  18.053   1.672  19.934  0.0167 -0.1730  0.0070
56928W        W57792   8.324  16.550   0.908  0.0737 -0.1444  0.1718
56929W        W57793   0.404   0.711   4.377  0.1397 -0.2282  0.1315
56930W        W57794   8.587   0.243  18.195 -0.0504  0.0443  0.0583
56931W        W57795   2.964  18.892  19.480 -0.2479 -0.0993  0.1498
56932W        W57796   8.496  27.790   8.035  0.0216 -0.3570 -0.0298
56933W        W57797   0.204   9.895  13.679 -0.0892  0.2558 -0.1616
56934W        W57798  12.629   7.360  12.067 -0.0379  0.0150 -0.2315
56935W        W57799  27.102   8.602  26.835  0.3878 -0.1092  0.0230
56936W        W57800   9.713   6.596  11.513 -0.0753 -0.1750  0.0209
56937W        W57801   3.513   8.923   0.946 -0.0799  0.0398 -0.0598
56938W        W57802   1.337   6.376  25.672  0.1908  0.2602  0.0256
56939W        W57803   5.821  12.828  21.007  0.0701  0.0579  0.0175
56940W        W57804  28.826   7.083   3.840  0.2814  0.0803  0.4048
56941W        W57805   2.917  11.427  18.626 -0.0271 -0.2611 -0.0088
56942W        W57806  12.730   1.052  16.537  0.1656  0.1251  0.0747
56943W        W57807  19.740  16.283  27.259  0.0303 -0.3987  0.1266
56944W        W57808   6.806  28.385  23.247  0.1758 -0.1620 -0.1485
56945W        W57809  14.134  19.579  24.611  0.1151  0.0756 -0.2467
56946W        W57810  19.331  13.187  26.159  0.0658 -0.0773  0.2288
56947W        W57811  24.200  12.245   0.744 -0.2808 -0.0109 -0.0292
56948W        W57812  13.586   1.816  25.991  0.3038 -0.3985 -0.0639
56949W        W57813  19.062  20.396   0.641 -0.0430  0.1898 -0.1200
56950W        W57814  18.946  29.058   8.596  0.2159  0.2241  0.1493
56951W        W57815  23.612  25.516  15.684 -0.0211  0.1372 -0.0247
56952W        W57816  19.293   7.922  28.339 -0.1777  0.1902  0.0775
56953W        W57817  17.020   8.202  10.760  0.1258  0.1615  0.0390
56954W        W57818  16.191   8.232  12.882  0.0941 -0.0408  0.0843
56955W        W57819  25.991   9.045  20.756  0.3886  0.1421  0.0965
56956W        W57820   0.430  19.586  22.895  0.3516 -0.0241  0.1367
56957W        W57821   4.151   7.217   3.687  0.0495 -0.0659  0.1362
56958W        W57822  29.010   4.214  11.262  0.3496 -0.0184 -0.3276
56959W        W57823  17.758  10.361  24.613 -0.0997 -0.3258  0.2169
56960W        W57824   7.836  24.217  19.153  0.1628 -0.0820 -0.0965
56961W        W57825   8.240  10.155  23.421  0.2438  0.1204  0.2946
56962W        W57826  13.981   6.894   9.345 -0.1849 -0.1967 -0.1846
56963W        W57827  21.671  11.765  15.649  0.1680  0.1077  0.0523
56964W        W57828  10.124   3.071  26.578 -0.2355  0.1373  0.1674
56965W        W57829  22.047  15.181  27.425 -0.3053  0.1092  0.3207
56966W        W57830   6.181   6.756  16.984 -0.1993  0.0715 -0.3660
56967W        W57831  25.578   4.252   1.735  0.3191  0.0089 -0.1558
56968W        W57832  12.765  25.130  25.442 -0.3631 -0.0652 -0.1929
56969W        W57833  12.737  10.445  13.205  0.0023 -0.2200  0.0811
56970W        W57834  28.661  25.712  27.362  0.0438 -0.0246 -0.1353
56971W        W57835   5.049  26.277   4.861 -0.2244  0.1391  0.0719
56972W        W57836  16.815  13.396  17.542 -0.4111  0.2181  0.0367
56973W        W57837   9.735  16.722  17.947 -0.1571  0.1643  0.0037
56974W        W57838  11.125  28.108  23.656 -0.2743  0.0520  0.0134
56975W        W57839  15.631  13.982   2.125  0.2220 -0.1071  0.5359
56976W        W57840  28.561   9.461   4.475  0.1172  0.1975 -0.1987
56977W        W57841   2.505   2.126   5.429 -0.0202 -0.1094  0.0393
56978W        W57842  14.631  11.029   4.223  0.0853 -0.0858 -0.0065
56979W        W57843  21.685  16.327   3.644  0.0225  0.6514  0.2465
56980W        W57844   8.254  10.415  17.723 -0.0329  0.0857  0.2171
56981W        W57845  13.261  12.945  22.082 -0.2199 -0.2534 -0.0210
56982W        W57846  22.098  17.627  14.261 -0.0312 -0.2188  0.1342
56983W        W57847  17.207  11.342  19.725 -0.0394  0.2513 -0.2680
56984W        W57848  28.396   7.992   0.816 -0.1749 -0.2462 -0.1643
56985W        W57849   2.104  22.116  22.596 -0.2133  0.1294  0.2029
56986W        W57850  13.739  13.164  17.746  0.1534  0.2048  0.0033
56987W        W57851  23.926   4.883   4.009  0.2373  0.2143  0.2475
56988W        W57852  11.731  13.859   9.174  0.1874 -0.1484  0.0984
56989W        W57853   7.694  27.689  25.847 -0.0944 -0.0222 -0.2274
56990W        W57854  28.483  11.084  16.831 -0.3310 -0.1580 -0.0343
56991W        W57855   2.361   5.438  16.869  0.0772 -0.0696  0.0908
56992W        W57856   5.066   6.454  22.863 -0.0279 -0.1619  0.2201
56993W        W57857  28.046  13.915  18.661  0.2382  0.0636 -0.0567
56994W        W57858   0.310  14.911   7.216  0.4240 -0.0340 -0.1338
56995W        W57859  13.706  18.399  16.030 -0.4957  0.1888  0.1247
56996W        W57860  12.928  28.295   5.772  0.2511  0.1219  0.3598
56997W        W57861   3.029  23.892  20.588 -0.2707  0.1212 -0.0115
56998W        W57862   9.478   7.623  16.083  0.1395 -0.1752 -0.0930
56999W        W57863  17.135  15.593   9.728 -0.0911  0.1222 -0.1149
57000W        W57864  19.649  15.948  27.657 -0.1925 -0.0267 -0.1311
57001W        W57865  21.066   8.216  28.935  0.0168  0.1966 -0.2165
57002W        W57866  16.311   6.222   3.652  0.0123  0.1316  0.0832
57003W        W57867   2.060   7.461  13.944 -0.0566  0.1529  0.2416
57004W        W57868  17.538  16.731   4.464 -0.1997  0.1364  0.1558
57005W        W57869   7.573  25.904  15.769  0.1832 -0.3170  0.1535
57006W        W57870  21.284   1.042  15.667 -0.1727  0.0253 -0.3441
57007W        W57871  22.592   4.445   3.080 -0.1410 -0.1109 -0.1201
57008W        W57872  14.884  28.783  27.760  0.0215  0.1712 -0.0954
57009W        W57873  20.336   9.071  16.773 -0.2099  0.1071  0.1465
57010W        W57874  14.382   8.016  27.381 -0.0036  0.2132  0.3421
57011W        W57875  22.696   2.765  21.466  0.4262 -0.0180 -0.0759
57012W        W57876   2.996  23.906  25.182  0.2316 -0.1513  0.0065
57013W        W57877  17.725  14.458  25.829 -0.0455  0.0929  0.2358
57014W        W57878   4.735  25.168  26.700 -0.0962  0.2476 -0.1482
57015W        W57879  26.402  11.719  14.588  0.2117  0.0220  0.2008
57016W        W57880  17.217  27.674   4.814 -0.2690 -0.2311 -0.1147
57017W        W57881  13.142  20.582   1.832 -0.0603 -0.2152 -0.1601
57018W        W57882   5.927  27.301   4.133  0.1338 -0.0312  0.0417
57019W        W57883   1.160   7.241  22.327 -0.0989  0.0825 -0.1884
57020W        W57884   7.890   7.320  19.964  0.1809  0.0668  0.2197
57021W        W57885  19.050  26.841  12.810 -0.1350 -0.1103  0.1744
57022W        W57886   5.303  27.131  17.098 -0.1440 -0.2538 -0.0652
57023W        W57887   6.534  12.549   1.606 -0.0406 -0.2557 -0.0662
57024W        W57888  14.440   5.613  24.478  0.1780  0.0108 -0.2315
57025W        W57889  27.253  28.889  11.298  0.3671 -0.0448 -0.0350
57026W        W57890   7.249   6.444  17.579 -0.4146 -0.0987 -0.1057
57027W        W57891   2.421  23.102  14.483  0.0685 -0.2728 -0.2579
57028W        W57892  10.599   9.504  21.243  0.1807 -0.1332 -0.0681
57029W        W57893  15.204  23.927   7.209 -0.2097 -0.0092 -0.0732
57030W        W57894  18.745  17.413  22.322  0.0489 -0.2188 -0.1284
57031W        W57895  27.449   2.466  25.330 -0.2818 -0.2255  0.1702
57032W        W57896  11.846   3.372  20.184  0.1016  0.1825 -0.0228
57033W        W57897   7.951  19.574   0.526  0.1272 -0.1748  0.0555
57034W        W57898  14.588   0.557   7.101 -0.1144  0.1213  0.1947
57035W        W57899  20.553   5.641  14.343 -0.3350  0.2904 -0.2340
57036W        W57900  28.023  10.164  24.739  0.2255  0.3017 -0.2344
57037W        W57901   9.682   6.145  24.164 -0.0523  0.2185  0.1408
57038W        W57902  14.583  21.577  15.202  0.1361  0.1251 -0.2179
57039W        W57903   6.137   0.876  15.436 -0.0274  0.1088 -0.0918
57040W        W57904  20.427  14.516   7.776 -0.0916 -0.1189 -0.1676
57041W        W57905   6.156   9.867  21.825 -0.1129  0.1258 -0.0144
57042W        W57906   7.726  20.281  26.050 -0.0111 -0.0047  0.0147
57043W        W57907  23.069  26.445  11.928  0.4712 -0.0335 -0.2617
57044W        W57908  22.015   4.417   2.203 -0.2686  0.0435  0.0495
57045W        W57909  19.755  14.093  15.444 -0.1328 -0.1617 -0.0984
57046W        W57910  15.926  25.629  28.120  0.0716  0.0353  0.1349
57047W        W57911  15.569  10.279   4.593  0.0412  0.1158  0.1498
57048W        W57912  21.655  26.874   6.841  0.2332 -0.0761  0.0775
57049W        W57913   4.570  28.143   9.041  0.2586  0.0210 -0.0847
57050W        W57914  25.678   6.780   8.696  0.0463  0.2460  0.0664
57051W        W57915  10.506   6.658  10.057  0.1618  0.0311  0.0808
57052W        W57916   7.736  25.277  18.053 -0.0991 -0.1479  0.1627
57053W        W57917   5.156   5.471  16.259  0.2172  0.1701  0.0847
57054W        W57918  10.674   7.930  12.542  0.0139  0.0229 -0.3340
57055W        W57919   8.430   3.837  19.444  0.0881 -0.2467 -0.1092
57056W        W57920   5.744  24.557  25.886  0.0076 -0.1001 -0.1893
57057W        W57921  24.487   2.108  26.387  0.0829 -0.1325 -0.0226
57058W        W57922   4.149   7.631  16.668 -0.0514 -0.1708 -0.1942
57059W        W57923   0.141   3.272  27.273  0.1583 -0.0729 -0.1326
57060W        W57924  28.223  23.926  26.945 -0.1333 -0.2148  0.0878
57061W        W57925   0.156   2.789  23.008  0.0440  0.0633  0.1021
57062W        W57926  17.610   8.496   9.167 -0.2151  0.3451  0.1682
57063W        W57927  14.313  24.269  12.272  0.0981  0.0124 -0.0420
57064W        W57928   0.543  12.021   1.323 -0.0237 -0.2526  0.1735
57065W        W57929  22.675  15.722  19.367 -0.0987  0.1183  0.1784
57066W        W57930  10.462  15.658  27.023 -0.1483  0.2226 -0.2452
57067W        W57931  15.120   8.708  21.934  0.0586  0.1994 -0.2201
57068W        W57932  19.016  20.982  10.990 -0.1906  0.1351 -0.0591
57069W        W57933  11.068   9.342  17.071 -0.3465  0.0914 -0.0712
57070W        W57934  13.332  20.347   1.399  0.2147 -0.1113 -0.1461
57071W        W57935  17.307  18.233  25.447 -0.1035  0.0336 -0.2062
57072W        W57936   8.926  20.477   6.869 -0.3238 -0.1774  0.4892
57073W        W57937  28.744  16.685   8.537 -0.0254 -0.0072 -0.1317
57074W        W57938  21.907  27.556  10.025  0.0050 -0.1671 -0.0149
57075W        W57939  26.695   4.205   0.018  0.0026  0.1060  0.0795
57076W        W57940  24.773  11.456   0.953  0.1967  0.0357  0.1426
57077W        W57941  18.737   3.311  19.631  0.0359  0.0974  0.0691
57078W        W57942  27.384   4.996   7.028  0.1879 -0.1407  0.0190
57079W        W57943   6.468   5.290   5.830 -0.2194 -0.1437  0.2262
57080W        W57944   2.150   0.690   3.778 -0.1526 -0.1523 -0.0072
57081W        W57945  20.239   6.086   2.972  0.1582  0.1841 -0.0861
57082W        W57946  17.644  16.725  25.412 -0.1898 -0.1593 -0.0280
57083W        W57947  27.117  27.717  28.947  0.1333  0.0109  0.0094
57084W        W57948  24.664  17.609  17.346 -0.2452  0.1868  0.2354
57085W        W57949  18.039   1.282  27.473 -0.0972 -0.1691  0.1087
57086W        W57950  27.837   2.850  25.373 -0.0919 -0.3499 -0.3435
57087W        W57951  27.835  28.991   5.698  0.4812 -0.1437 -0.1580
57088W        W57952  29.014  28.264  20.225 -0.0694 -0.1879 -0.1571
57089W        W57953  18.662   3.914  13.693 -0.0579  0.1172  0.0667
57090W        W57954  19.682  27.791  12.945  0.0323 -0.1555 -0.0861
57091W        W57955   9.777   8.591   0.317  0.0925  0.3992  0.1434
57092W        W57956   2.893  10.943   4.098  0.0097  0.2495 -0.3469
57093W        W57957   7.151  24.434  12.390  0.4147  0.0449 -0.1701
57094W        W57958   2.240   1.922  19.638  0.1567 -0.0143  0.1203
57095W        W57959   3.428  15.113   3.357  0.3107 -0.1188 -0.0770
57096W        W57960  10.366  13.793   2.843 -0.2708  0.3295  0.1608
57097W        W57961  13.712  21.155  12.625 -0.1202 -0.0689  0.0519
57098W        W57962  25.141  20.618  28.387 -0.1383 -0.0085 -0.1895
57099W        W57963  27.792   2.048   2.789 -0.0480 -0.0923 -0.2963
57100W        W57964  18.225   6.231  22.747  0.0787  0.1853  0.0193
57101W        W57965  21.717   6.980  24.654 -0.2420 -0.1568 -0.1939
57102W        W57966   9.764   6.023   3.171 -0.2033 -0.1485 -0.0070
57103W        W57967  18.045   1.128  15.502  0.2170 -0.2344  0.0459
57104W        W57968  22.040  26.535   1.136  0.1281 -0.0294 -0.0988
57105W        W57969   1.058   3.082  21.714  0.1192 -0.1666  0.2485
57106W        W57970  22.980  14.089  19.587 -0.0488 -0.3943  0.0629
57107W        W57971  14.268  10.013  23.327  0.1576  0.3282 -0.2114
57108W        W57972  26.741  28.569  26.397 -0.3152  0.2698  0.2476
57109W        W57973   3.813  15.417   5.523  0.2306  0.1184 -0.0069
57110W        W57974   1.832   5.961  19.576  0.1224  0.2928 -0.4450
57111W        W57975   4.379   0.955  22.895  0.0030  0.2203  0.0832
57112W        W57976   6.172   6.400  12.901  0.0132  0.2623  0.0163
57113W        W57977   7.743  14.322  10.109  0.0612 -0.0062 -0.1157
57114W        W57978  16.823  17.950   2.860 -0.3466  0.2161 -0.1261
57115W        W57979  29.037   5.004   9.972  0.1430  0.1258  0.0702
57116W        W57980  25.063  19.154  19.436 -0.1689 -0.0271  0.0425
57117W        W57981   0.639   4.129  27.319  0.1130  0.1049  0.1734
57118W        W57982   2.686  11.736   9.098 -0.0152  0.0300  0.1600
57119W        W57983   5.921   1.373   0.627  0.0023  0.0394  0.0167
57120W        W57984   7.460   3.025  17.764  0.3251 -0.0629  0.2707
57121W        W57985   5.911   4.286  19.139 -0.2180 -0.2231 -0.1336
57122W        W57986   9.159   3.440  19.520 -0.4075 -0.0304  0.2947
57123W        W57987  16.978  20.726  25.420 -0.0157 -0.1164  0.2756
57124W        W57988  22.334  20.582   5.756  0.0606  0.1214 -0.1574
57125W        W57989  28.480  14.164  20.357 -0.1706  0.1054  0.2995
57126W        W57990  22.319  13.831  20.770  0.3558 -0.2797 -0.0529
57127W        W57991   5.365   1.109   6.120  0.0676 -0.7477  0.2617
57128W        W57992  10.265  28.161  19.417  0.0131  0.3405  0.2291
57129W        W57993   5.368  13.947   4.364  0.2519  0.0806  0.0605
57130W        W57994   6.236   4.838  24.743  0.0100 -0.2638 -0.0986
57131W        W57995  17.312  10.632   0.417  0.2454  0.0201 -0.3986
57132W        W57996   0.595   0.503  18.220  0.0677 -0.1977  0.2663
57133W        W57997   5.858   9.685   0.033 -0.0861 -0.2159  0.4405
57134W        W57998  19.664   0.721  11.903  0.1752 -0.2154 -0.1453
57135W        W57999  16.859  17.061  12.551 -0.0459 -0.1684  0.0466
57136W        W58000  19.727  22.028  25.217 -0.3332  0.3010 -0.1038
57137W        W58001   1.242  16.994   0.329  0.0843 -0.0746 -0.1500
57138W        W58002   8.994   2.824  25.818 -0.0895 -0.0414  0.0314
57139W        W58003  20.407  13.162  28.860 -0.1921 -0.0378 -0.1162
57140W        W58004  16.340   9.615   6.961 -0.2912  0.0580 -0.1349
57141W        W58005  19.641  20.270  25.671  0.0605  0.1318  0.0570
57142W        W58006   5.271   0.866   3.758  0.0354 -0.0084 -0.2246
57143W        W58007  12.467  26.389  18.761 -0.1933  0.1305 -0.1883
57144W        W58008   6.943  25.472  16.020  0.0257  0.3033  0.2169
57145W        W58009  26.065   4.554   8.284 -0.2707 -0.1209 -0.2873
57146W        W58010  18.480  15.678  25.676  0.0664  0.0387  0.0496
57147W        W58011  14.906   0.386  16.078 -0.0914  0.3891 -0.3134
57148W        W58012  14.360  13.028   4.635 -0.0074 -0.0924  0.2022
57149W        W58013   8.580  28.391  19.817  0.0701 -0.0938  0.1084
57150W        W58014   8.349  10.824  26.157  0.1795 -0.1882 -0.0928
57151W        W58015  12.459  10.751  18.344 -0.1154 -0.2894 -0.2074
57152W        W58016   7.508  11.086  27.782 -0.0250  0.1006  0.1176
57153W        W58017   7.936  10.793  20.611 -0.1289  0.0138 -0.0112
57154W        W58018  20.381   1.868   2.272  0.2273  0.1760 -0.1698
57155W        W58019  22.567  14.498  23.645  0.1941  0.2167  0.0225
57156W        W58020  12.583  12.983  25.339  0.2840  0.1448  0.0553
57157W        W58021  28.161   8.624  25.760  0.0813  0.0722 -0.0874
57158W        W58022   2.769   4.429  28.747 -0.1629 -0.0514  0.1182
57159W        W58023   2.921  22.713  23.875 -0.1066  0.1329  0.0385
57160W        W58024   9.897   5.603   9.445  0.0692  0.1167  0.1799
57161W        W58025  27.563   9.875  22.335  0.1603  0.0756  0.1490
57162W        W58026  26.069  27.641  12.905  0.0359  0.2697  0.2206
57163W        W58027  18.548  27.262  21.294  0.0543  0.2291  0.2821
57164W        W58028  14.124   5.714   5.451  0.1518  0.0018 -0.0032
57165W        W58029  15.046  27.209  27.643 -0.1033  0.1512  0.1768
57166W        W58030  23.631   9.272   4.645  0.1654 -0.3652  0.0095
57167W        W58031  26.221  16.589  19.460  0.0026 -0.2309  0.1573
57168W        W58032  27.577  11.859  23.168 -0.0470  0.1504 -0.1919
57169W        W58033  11.478  13.854  28.587 -0.0668 -0.2016  0.0466
57170W        W58034  12.929   4.745  20.236  0.0844 -0.0197 -0.0717
57171W        W58035  15.969  12.303  15.646 -0.0892  0.2597  0.2129
57172W        W58036  12.722  18.354   3.260  0.3120 -0.2186  0.0883
57173W        W58037  20.591   3.045  10.276 -0.1944 -0.0920  0.1633
57174W        W58038  18.529   4.419  14.999 -0.2138 -0.1080  0.1825
57175W        W58039  15.361   2.192  10.243  0.2110  0.2139  0.0542
57176W        W58040   5.030  14.072  16.828  0.1070 -0.0278 -0.3032
57177W        W58041   7.001  19.027   2.833  0.0337  0.2927  0.1015
57178W        W58042   7.213   4.364  27.046 -0.0738  0.1162  0.3898
57179W        W58043  22.403  28.617  13.911 -0.1103  0.1701 -0.0297
57180W        W58044  25.637  23.515  21.275  0.0624 -0.2783 -0.1456
57181W        W58045   5.683  20.200   0.362  0.3173  0.0449 -0.1547
57182W        W58046  23.610   3.005  18.184 -0.4729 -0.1987 -0.0609
57183W        W58047  15.952  22.414   7.724  0.1441 -0.0178  0.3660
57184W        W58048  17.125  26.890  26.979  0.1093  0.3862  0.1072
57185W        W58049   8.660   5.811  18.954  0.2453 -0.1959  0.3009
57186W        W58050  12.544  21.586  17.916 -0.0659  0.2913  0.0994
57187W        W58051  17.578  24.573  27.555  0.0382  0.2019 -0.0146
57188W        W58052   2.524   6.028  26.136  0.4322  0.2771  0.2756
57189W        W58053  12.536   3.145  17.015 -0.0509 -0.0470  0.1540
57190W        W58054   6.299   0.604   2.316  0.3127 -0.2131  0.2581
57191W        W58055  12.291   7.667  11.885  0.1390 -0.1966  0.0909
57192W        W58056  17.689   0.592  27.197 -0.0263  0.0811  0.1994
57193W        W58057   9.014  14.523  10.838  0.1484 -0.0816 -0.0131
57194W        W58058   7.841   5.016  23.817 -0.0021  0.0289 -0.0000
57195W        W58059  19.021   0.527  27.801 -0.0617  0.0456 -0.3132
57196W        W58060  26.448   8.416  27.414 -0.2986  0.1247 -0.0737
57197W        W58061   6.853  21.178   5.985 -0.2850 -0.0689 -0.0999
57198W        W58062  19.885  28.736   8.293  0.1294 -0.0907 -0.0080
57199W        W58063  28.710  25.975  18.545  0.4550 -0.0752 -0.5408
57200W        W58064  27.724  24.452   8.276  0.2580  0.0337 -0.1061
57201W        W58065  25.061  24.006   7.514  0.3201  0.2243 -0.1531
57202W        W58066  20.166  25.137  26.745  0.0243  0.0819 -0.2354
57203W        W58067  19.121   9.722  24.434 -0.3524 -0.0105 -0.1408
57204W        W58068  22.867   1.983  22.580  0.0679  0.0391  0.0997
57205W        W58069  14.602   8.671  17.379 -0.1713  0.1764 -0.2084
57206W        W58070  21.568  18.593   9.246 -0.1197 -0.0340 -0.2746
57207W        W58071  27.347  16.820   1.178 -0.1359 -0.0383 -0.1434
57208W        W58072   0.819  18.733  12.406 -0.2343  0.1587 -0.1807
57209W        W58073  21.444   6.747  17.785  0.2444  0.4941  0.1619
57210W        W58074  27.924  14.335  24.518  0.0063 -0.0242 -0.1263
57211W        W58075   5.512  27.550  12.134  0.0833 -0.0289 -0.0048
57212W        W58076  18.833   6.476  13.084  0.2634 -0.0045 -0.0312
57213W        W58077  20.701  12.173   5.799 -0.0748 -0.3573 -0.1669
57214W        W58078  12.654   0.042  25.718 -0.1182 -0.1316  0.2396
57215W        W58079  25.361   1.942  20.140 -0.0167  0.1595  0.2007
57216W        W58080  14.056   6.803  27.301  0.3099  0.0089 -0.1284
57217W        W58081  15.974   1.315  24.279  0.1988 -0.1704 -0.0046
57218W        W58082   3.959   7.211  15.738 -0.0097  0.0832 -0.0930
57219W        W58083  22.339   8.993  21.421 -0.0223  0.0470  0.1062
57220W        W58084  21.056   5.511  25.686  0.2579  0.0342 -0.0262
57221W        W58085  18.914  18.242  15.370 -0.2138 -0.0941 -0.1085
57222W        W58086  26.040  20.819  28.210 -0.1418  0.0881  0.2526
57223W        W58087  19.701   0.088  19.366  0.0839 -0.1502  0.0641
57224W        W58088   8.501   6.013   4.678  0.0339 -0.0314 -0.6898
57225W        W58089  27.671  26.062  15.483 -0.3924 -0.3273 -0.3556
57226W        W58090  26.904  25.794   2.360  0.0855 -0.1663 -0.0317
57227W        W58091  15.937  16.156  15.547 -0.1429 -0.1660 -0.1032
57228W        W58092  15.680  15.239  16.044 -0.0650  0.0825  0.1270
57229W        W58093  22.192  18.399   0.014  0.1403 -0.1184 -0.2606
57230W        W58094  12.850  17.240  24.119 -0.2970 -0.0392 -0.1968
57231W        W58095   4.665  26.563  19.275 -0.0252  0.1030  0.1053
57232W        W58096  12.347  17.499  21.453  0.0263 -0.2937 -0.2170
57233W        W58097  28.377   2.668  10.367 -0.3468 -0.1818 -0.1270
57234W        W58098   4.201   3.946   5.919  0.0948 -0.2745 -0.2236
57235W        W58099   0.053   4.507  22.211 -0.1817  0.1063  0.2908
57236W        W58100  24.196  24.142  13.887  0.0346  0.1728 -0.1766
57237W        W58101   3.446   2.766  20.855 -0.1163 -0.0532  0.0849
57238W        W58102  12.089   6.504  27.540  0.2283 -0.0082  0.0152
57239W        W58103   2.035  15.216  12.482 -0.1349 -0.1449 -0.1443
57240W        W58104  16.862  17.077  23.335 -0.1049 -0.4612 -0.0294
57241W        W58105  25.076   3.850  24.097 -0.1174  0.4144 -0.4880
57242W        W58106  28.885   8.195  25.109  0.0086  0.0777 -0.0681
57243W        W58107  22.736  16.865  14.433 -0.1677  0.0711 -0.1555
57244W        W58108   5.492   0.130  12.847 -0.0788  0.0176  0.2726
57245W        W58109  12.791   3.343  26.178 -0.0049  0.2286  0.3243
57246W        W58110   9.189   2.192   7.369  0.1917  0.0988 -0.2826
57247W        W58111   0.612   6.708   7.183  0.1315 -0.1413  0.0908
57248W        W58112   1.891  14.891   5.857 -0.3117  0.1743  0.0943
57249W        W58113  17.739  18.026  15.839  0.0437  0.0169 -0.1860
57250W        W58114  13.413  10.611  18.021  0.0078  0.2713 -0.1514
57251W        W58115   0.101  12.022  12.587 -0.3736 -0.0980  0.2495
57252W        W58116  10.943  24.496   1.041 -0.0910 -0.2064 -0.1113
57253W        W58117  16.745   3.843  14.714 -0.4244 -0.0543  0.0349
57254W        W58118   1.851   9.688  24.332 -0.0963 -0.1214 -0.1856
57255W        W58119  21.900   0.418  24.462 -0.3573  0.1679  0.2856
57256W        W58120  17.666   1.531  11.344  0.0866  0.1071  0.2401
57257W        W58121  16.156  14.469  12.090 -0.2880  0.3613 -0.0101
57258W        W58122  22.141  28.364  21.923  0.1206 -0.2328 -0.2981
57259W        W58123   1.436  22.392  11.171 -0.0502  0.1086  0.0671
57260W        W58124   6.313   4.036  19.998 -0.0629  0.2149 -0.5482
57261W        W58125  12.782   6.885  23.207 -0.2567 -0.2698  0.0730
57262W        W58126  23.177   1.190  10.559 -0.1576 -0.2427 -0.1884
57263W        W58127   0.743  13.580  18.418 -0.1198  0.0101  0.1572
57264W        W58128  24.683  13.448  23.746  0.1118  0.2149 -0.0700
57265W        W58129  13.485   1.195  15.307 -0.2247 -0.2762 -0.3899
57266W        W58130  28.121  27.053  27.029 -0.2709  0.0047 -0.0657
57267W        W58131  27.497  14.938  18.311 -0.0171  0.0663 -0.1109
57268W        W58132   3.284   5.717  26.536  0.4131  0.1824 -0.1911
57269W        W58133  24.253   7.042  16.813 -0.1463  0.1360  0.0527
57270W        W58134   3.276  28.915  23.500 -0.0479 -0.0790 -0.1711
57271W        W58135  10.800   2.988   1.564 -0.1543 -0.3276 -0.3657
57272W        W58136  14.650  28.457  22.110 -0.3596  0.3234 -0.2173
57273W        W58137  12.587   7.807   8.609  0.2123 -0.0874  0.0441
57274W        W58138   0.067  11.725  13.667  0.0093  0.1068 -0.2804
57275W        W58139  12.438   4.327   4.172 -0.1934  0.2182  0.0174
57276W        W58140  14.055  15.462   7.529  0.0649 -0.2282 -0.3580
57277W        W58141   8.394   5.145  20.309  0.1292 -0.0721 -0.3130
57278W        W58142   8.180   6.575  27.713 -0.0733  0.1152  0.0872
57279W        W58143  16.319  13.996  10.583 -0.2234  0.2196 -0.1828
57280W        W58144  23.491   9.388  26.110 -0.0800 -0.0023 -0.0576
57281W        W58145  26.088  22.030   5.208  0.1795 -0.1432 -0.0611
57282W        W58146   8.620  11.204  14.555 -0.2171 -0.1213 -0.0110
57283W        W58147   1.942   6.166  16.354  0.0085 -0.0363  0.0340
57284W        W58148  11.505   6.457  26.717 -0.0335  0.2977 -0.1231
57285W        W58149   6.553  19.987  17.111  0.5671  0.0127  0.0872
57286W        W58150  16.821  10.555   5.416 -0.1885 -0.0146 -0.0997
57287W        W58151   2.861   2.928  24.695 -0.3353  0.3112  0.0796
57288W        W58152   6.734  18.425  27.406 -0.0514  0.1722 -0.0269
57289W        W58153  16.876  11.791  13.691  0.0266  0.3646  0.0867
57290W        W58154  12.859  13.288  19.071  0.1493  0.1099  0.1738
57291W        W58155  18.766  25.247  13.908 -0.0243  0.2093 -0.0880
57292W        W58156  12.218  16.558  27.073 -0.0934 -0.0502 -0.0109
57293W        W58157  12.778   1.913  12.459 -0.3163  0.1069  0.0245
57294W        W58158  26.351  13.972  14.414 -0.1467 -0.0274 -0.2459
57295W        W58159  17.983  14.064  26.170  0.1493 -0.0312  0.1463
57296W        W58160   5.983  16.360  12.115 -0.2753 -0.2624  0.1811
57297W        W58161   5.513   9.576  28.308  0.0684  0.0499 -0.0176
57298W        W58162  11.615  18.920  18.711  0.1686  0.2925  0.2885
57299W        W58163  24.391  21.924  20.133 -0.3801 -0.0198 -0.3508
57300W        W58164   7.049  15.890   9.115 -0.3336 -0.0205 -0.2578
57301W        W58165   9.879  26.719  23.624  0.0420  0.4453 -0.0377
57302W        W58166   0.308   5.767   4.793 -0.0753  0.1633  0.0424
57303W        W58167  11.555  14.930  17.417 -0.2634  0.0013 -0.1950
57304W        W58168   6.673  11.621   3.994 -0.1273 -0.1452 -0.1801
57305W        W58169  14.231   2.484  24.443 -0.1491 -0.3090  0.2930
57306W        W58170  14.475  15.971   2.648 -0.2326  0.0447  0.0982
57307W        W58171  11.505  15.755  11.391  0.2708 -0.0940 -0.3866
57308W        W58172  23.577  15.484  17.414  0.2408  0.1283  0.2373
57309W        W58173   5.855   5.030  26.473 -0.2478 -0.2857  0.0403
57310W        W58174   1.446   2.609   5.756 -0.0207  0.1118  0.0139
57311W        W58175   2.731  16.121  22.987  0.1365  0.2195 -0.0267
57312W        W58176   5.435  23.853  24.359  0.0458  0.0517  0.2740
57313W        W58177  27.876   3.027  26.904 -0.2102 -0.0345  0.0267
57314W        W58178  18.154   7.920  14.586  0.0048  0.3010 -0.2318
57315W        W58179  12.719  12.649  24.942  0.2426  0.1527  0.0450
57316W        W58180  22.913  15.762   6.610  0.3408 -0.0418  0.2692
57317W        W58181  11.116  25.504   1.406  0.1708  0.1126  0.0082
57318W        W58182   6.211   7.853  28.362 -0.2632  0.2104  0.2051
57319W        W58183   2.810  10.354  23.064 -0.1615 -0.0840  0.3529
57320W        W58184  12.579  27.913  20.878  0.0486 -0.1069 -0.1719
57321W        W58185  14.498  17.302  19.170  0.0529 -0.1546 -0.1822
57322W        W58186   1.034   6.456   2.469 -0.0323 -0.3607 -0.0384
57323W        W58187  20.095   3.257  22.593  0.1177  0.1405  0.2051
57324W        W58188   4.062  17.931  17.203  0.2934 -0.1637 -0.0424
57325W        W58189  18.557   7.290  26.105 -0.1459 -0.0764 -0.1701
57326W        W58190  16.618   3.104   9.054  0.0179  0.1986  0.3151
57327W        W58191  19.401  11.095  19.806 -0.1166 -0.2110  0.1418
57328W        W58192  18.017   3.607  22.176  0.2009 -0.0433 -0.2176
57329W        W58193   6.299   8.168  12.035 -0.2082  0.0624  0.2894
57330W        W58194  25.761  12.405  13.801 -0.0782  0.0214  0.0602
57331W        W58195   3.327   7.378  25.736  0.3166 -0.2902  0.3103
57332W        W58196   0.976  19.029  16.551 -0.5607 -0.0535 -0.0054
57333W        W58197  24.386  23.966  15.765  0.5683 -0.1497 -0.1129
57334W        W58198  19.841  28.998  26.227  0.0213  0.2521 -0.1430
57335W        W58199  21.060  24.411   9.070 -0.2470 -0.0078 -0.0979
57336W        W58200  15.196  24.489  13.721  0.0015  0.2458 -0.0608
57337W        W58201  20.841  12.340  14.024 -0.0260 -0.0118 -0.2845
57338W        W58202  12.424   5.062  26.728  0.3474 -0.1908  0.0043
57339W        W58203   1.230   7.032   2.519  0.0760 -0.4818  0.0201
57340W        W58204  13.429  17.523  28.360  0.1082  0.4034 -0.1809
57341W        W58205  28.313  11.011  12.362  0.1395  0.1731  0.0848
57342W        W58206  13.863   5.781  26.590  0.0301  0.1473  0.3309
57343W        W58207  24.855   5.104   1.602 -0.1985 -0.1470  0.1073
57344W        W58208  17.794  16.663  14.145 -0.2647  0.0118 -0.0484
57345W        W58209  19.894  28.777  28.485 -0.0066 -0.1886 -0.1499
57346W        W58210  17.961  26.825  17.071 -0.1764  0.1113  0.0277
57347W        W58211  26.641  14.099  16.279 -0.0293 -0.3054 -0.0170
57348W        W58212  21.006  10.848  24.367  0.2885 -0.0434 -0.0958
57349W        W58213  19.057   0.608  17.638  0.2986  0.0979 -0.1265
57350W        W58214  18.868  11.506  25.727  0.1849 -0.1082  0.1947
57351W        W58215   7.311  21.702  27.100 -0.2266 -0.0786 -0.3845
57352W        W58216   0.843  19.892  17.127  0.1151  0.1388  0.1013
57353W        W58217   7.346  20.243  19.083  0.0873 -0.0058 -0.1216
57354W        W58218  21.613   3.010  16.829  0.5077  0.0782 -0.0606
57355W        W58219   3.792   5.743  16.903 -0.2413 -0.3201  0.0540
57356W        W58220  17.633   3.943  21.904 -0.3967 -0.1905 -0.1250
57357W        W58221  15.269  13.143  12.049  0.1712  0.1808 -0.0699
57358W        W58222   0.602  21.210  21.277 -0.1116  0.1894 -0.2585
57359W        W58223  26.206  12.892  19.037  0.0807  0.1724  0.1499
57360W        W58224  12.817   4.789   5.095 -0.0167  0.4577 -0.1340
57361W        W58225  11.655  11.676  26.161  0.1644 -0.1764 -0.1230
57362W        W58226   6.942  20.467  14.847  0.0292 -0.0694 -0.1222
57363W        W58227  19.472  10.873   0.132  0.2160  0.0032 -0.1674
57364W        W58228  26.661  12.541  21.796 -0.0375  0.0041  0.1819
57365W        W58229  27.847   0.062  21.458 -0.1305  0.1386 -0.0765
57366W        W58230   6.749  17.277   5.306  0.0915  0.1980 -0.0065
57367W        W58231  15.057   1.154  28.449 -0.4039  0.2040 -0.3153
57368W        W58232   3.096  18.974  21.524  0.0410 -0.0571 -0.0328
57369W        W58233  12.685   7.784  22.832  0.3044 -0.2476 -0.2263
57370W        W58234   9.552  20.600  26.701 -0.2786  0.2858 -0.0005
57371W        W58235   1.576   5.862   8.869 -0.2525 -0.1978  0.2397
57372W        W58236   6.554  20.757   2.949  0.0781  0.0040 -0.3060
57373W        W58237  19.850  10.465  20.608 -0.0229 -0.0086 -0.1220
57374W        W58238   4.067  13.630   8.064 -0.0633 -0.2499  0.0891
57375W        W58239   6.124   6.958  28.932  0.1337 -0.0796 -0.0290
57376W        W58240   6.942  10.663   4.258  0.0287  0.1571  0.1615
57377W        W58241  20.049   4.737  14.884 -0.2740  0.1895  0.0594
57378W        W58242  28.523   7.209  17.672 -0.0162  0.0308  0.1531
57379W        W58243  10.616   5.509   3.608 -0.1856 -0.3119 -0.0608
57380W        W58244  24.705  27.054  14.947  0.0204 -0.0176 -0.1111
57381W        W58245  10.004  27.302  10.895 -0.2168  0.1050 -0.0150
57382W        W58246  15.454  10.328   0.378  0.1619 -0.0132 -0.2625
57383W        W58247   1.004  14.337  27.602  0.0886 -0.0853  0.1952
57384W        W58248  15.604  13.951  26.358  0.0822 -0.0224  0.3186
57385W        W58249  26.448  23.457   6.542  0.0503 -0.1027 -0.0058
57386W        W58250  15.933  25.511  18.461 -0.0901 -0.0092  0.3384
57387W        W58251  22.678   6.107  27.034 -0.1307  0.0187  0.1147
57388W        W58252  12.572  28.673  26.066  0.2542  0.6059  0.1116
57389W        W58253   3.390  20.325   7.679 -0.2571 -0.0721  0.0509
57390W        W58254   3.320   6.011   4.710  0.0977  0.0431 -0.1645
57391W        W58255   7.552  24.173  15.686  0.2525 -0.0297 -0.1475
57392W        W58256  17.524  17.224  22.489 -0.0737 -0.0642 -0.1821
57393W        W58257   8.633  14.156  17.296  0.0036 -0.2448 -0.2186
57394W        W58258  27.514  12.253  24.678 -0.3160  0.1231  0.1334
57395W        W58259   7.917   7.988   0.839 -0.2610  0.0851 -0.2774
57396W        W58260  14.251  25.943  11.311 -0.0736 -0.0937  0.1612
57397W        W58261   1.269  24.168   6.556  0.2239 -0.3646 -0.3149
57398W        W58262   5.073   4.080  19.469  0.0740 -0.0582 -0.0712
57399W        W58263  28.147  20.920  28.427  0.2990 -0.2301 -0.0924
57400W        W58264   2.649  22.308  28.758 -0.2371 -0.2150  0.0596
57401W        W58265   5.990  21.066  25.560 -0.2124 -0.0415 -0.3185
57402W        W58266   7.322  28.373  24.522  0.2118  0.2041 -0.2538
57403W        W58267  10.048   7.638   2.195 -0.0186  0.0251  0.3171
57404W        W58268   2.404   1.162  18.974  0.2875 -0.0049  0.2755
57405W        W58269  19.284  19.147  24.785 -0.2078 -0.0493  0.1859
57406W        W58270   6.460  18.089  17.584  0.1112  0.1970  0.0705
57407W        W58271  11.873  18.763   0.110  0.0305 -0.0227 -0.1033
57408W        W58272  23.261  20.091   9.897 -0.1927 -0.3487 -0.2089
57409W        W58273   2.876  20.406   0.254 -0.0882  0.3855  0.0036
57410W        W58274   6.940   4.613  25.899  0.0664  0.0336 -0.2300
57411W        W58275  19.146   6.168  23.058 -0.0697 -0.1855  0.1058
57412W        W58276  23.321   0.008  10.058 -0.1002  0.2326  0.0233
57413W        W58277   9.544  15.093   5.930 -0.2162  0.2227  0.2164
57414W        W58278  18.553  15.880   7.475  0.0739  0.1322 -0.0467
57415W        W58279  25.262   0.008  14.695 -0.2154  0.0763 -0.0220
57416W        W58280  12.568   8.793   6.206 -0.4916 -0.0946  0.1097
57417W        W58281  15.161  18.160  17.775 -0.4167 -0.0523  0.0591
57418W        W58282   8.249   1.806  11.757 -0.0185  0.0178  0.0500
57419W        W58283  27.860   4.150  13.806  0.1665 -0.0889  0.0068
57420W        W58284  12.067   2.486  10.144 -0.1023  0.1015 -0.0194
57421W        W58285   9.479  14.618  21.429  0.2051  0.0353 -0.1391
57422W        W58286   0.786   6.818   9.745  0.0099 -0.1248  0.2761
57423W        W58287   3.576  18.412  25.702  0.0188 -0.1241  0.0704
57424W        W58288  10.402  23.967  17.207 -0.0682 -0.0974 -0.0350
57425W        W58289  22.835   7.583  10.418 -0.3609 -0.0711  0.2978
57426W        W58290  16.998   5.654   0.028 -0.0241 -0.1238 -0.1118
57427W        W58291  20.052   1.217   4.784 -0.1796  0.0004 -0.2637
57428W        W58292   3.639  19.056   6.964  0.0329 -0.1560  0.0236
57429W        W58293  12.129  26.374  28.924  0.0453 -0.0219  0.0430
57430W        W58294   9.904   7.515  17.835  0.1835  0.3998  0.0466
57431W        W58295  12.374  16.865  12.971 -0.5274 -0.0720 -0.1522
57432W        W58296   6.069  11.349  26.573 -0.1637  0.1123 -0.0978
57433W        W58297   2.752  24.131   6.019  0.2246 -0.1910  0.0561
57434W        W58298  20.795  11.628   5.882 -0.1733 -0.1316  0.3355
57435W        W58299  25.239  19.769   9.473  0.0189  0.3170  0.3036
57436W        W58300  13.751  27.663  21.307 -0.2063  0.1018  0.1229
57437W        W58301   2.570  14.733  26.472 -0.2805  0.2373  0.4253
57438W        W58302   2.482  26.505   8.180  0.3322  0.0429  0.2327
57439W        W58303  11.214  17.522  26.926 -0.0993 -0.3975  0.3059
57440W        W58304   8.658  19.387  21.396  0.0585  0.3657 -0.0129
57441W        W58305   8.892   6.040  28.730  0.3429  0.0342  0.2650
57442W        W58306  15.676   4.238   3.136  0.0163  0.0243 -0.2655
57443W        W58307   7.529   3.018  24.202  0.0090 -0.0620  0.1876
57444W        W58308   9.229   9.779  11.607  0.1614 -0.2556 -0.1345
57445W        W58309  19.538   3.260   4.340  0.0453 -0.1231 -0.1244
57446W        W58310  11.442  24.449   3.111 -0.1187 -0.1913 -0.2636
57447W        W58311   3.512   7.537   3.056  0.0179 -0.1053 -0.0522
57448W        W58312  12.181   8.260  24.394  0.0882  0.1356  0.0084
57449W        W58313  18.258  14.777  28.525  0.1737 -0.1165  0.1593
57450W        W58314  25.381   4.547  21.382 -0.1801  0.1285 -0.0824
57451W        W58315   6.844  17.425   6.401 -0.1067  0.0389  0.0872
57452W        W58316  26.785  18.585  15.992 -0.1891  0.1386 -0.0295
57453W        W58317  10.052   9.330  19.319 -0.2338  0.1190  0.0947
57454W        W58318   5.076  11.047  13.343  0.0044  0.1492  0.2517
57455W        W58319   7.774   1.344  16.999 -0.0909 -0.0542  0.0802
57456W        W58320  20.629   0.021  24.041  0.1127  0.2182  0.2661
57457W        W58321  26.542  10.382  25.611  0.3845 -0.1356  0.2001
57458W        W58322  22.756  17.911  18.306  0.1858  0.3883 -0.0501
57459W        W58323   8.945  10.293  11.339 -0.1310  0.2029 -0.2416
57460W        W58324  19.678  16.330  22.963  0.0040 -0.1128 -0.0350
57461W        W58325  21.710  10.445  19.230  0.1855 -0.0509 -0.0127
57462W        W58326   6.972   2.439  25.102  0.1123 -0.1101  0.2490
57463W        W58327  13.845  11.818   5.835  0.1313  0.2184 -0.2394
57464W        W58328  28.577   3.686   1.875 -0.2207  0.0261 -0.1187
57465W        W58329  28.998   2.206  19.172  0.4171 -0.0002 -0.0313
57466W        W58330  10.942  10.132   0.731  0.1573  0.2147 -0.1694
57467W        W58331  10.198  24.447  11.366 -0.0354  0.3256 -0.0227
57468W        W58332  18.820   0.055  18.542 -0.0988  0.1448  0.0946
57469W        W58333  22.896  28.797   0.905  0.0791  0.0897 -0.3248
57470W        W58334   3.066   9.740  19.525 -0.0610  0.3066  0.1848
57471W        W58335  23.736   7.231  22.147 -0.3878  0.1429 -0.1866
57472W        W58336  14.621  29.025  20.374  0.3581 -0.0613  0.1998
57473W        W58337   5.939   2.033   5.211  0.1592  0.1337  0.1197
57474W        W58338  11.108  25.442  19.517 -0.1630 -0.2151  0.0413
57475W        W58339  28.673  26.424  22.554 -0.0078  0.2136 -0.2453
57476W        W58340  24.707   6.740  16.342  0.1887  0.3439  0.0280
57477W        W58341  21.141   0.345   5.849  0.2893  0.3693 -0.0979
57478W        W58342  20.801   4.450  16.600 -0.1112  0.0873 -0.3619
57479W        W58343   7.600   3.786  26.036 -0.1015 -0.1246 -0.0135
57480W        W58344   6.562  24.688   0.959 -0.2086  0.1176  0.1122
57481W        W58345  17.491  22.481  28.231 -0.2167  0.0779 -0.0232
57482W        W58346  21.239  27.501   6.323  0.2854  0.0949  0.1875
57483W        W58347  10.295   3.177   6.004 -0.0112 -0.1270  0.1010
57484W        W58348  26.919  24.270  24.021  0.0496  0.2788  0.0924
57485W        W58349  11.100  21.709   8.266 -0.1312  0.1651 -0.0717
57486W        W58350  26.277   0.574   0.681  0.1982 -0.1480  0.1188
57487W        W58351  15.784   9.803   1.978  0.0865  0.0122 -0.1550
57488W        W58352  16.492   7.624   2.394 -0.1878  0.0678 -0.1258
57489W        W58353  21.953   8.390  19.724  0.0986  0.1056  0.4455
57490W        W58354  23.088   5.535  10.931 -0.0733 -0.0695  0.1779
57491W        W58355  10.558  11.357   3.280 -0.0185 -0.1916  0.1912
57492W        W58356   9.915   8.229  13.126  0.0606  0.1738  0.0524
57493W        W58357  28.403   8.241   1.862  0.1254  0.3243 -0.4226
57494W        W58358  16.022  11.316   5.375  0.0130 -0.3119  0.0568
57495W        W58359  26.957   8.152   6.145  0.0585  0.0563 -0.1772
57496W        W58360  18.722  14.487  11.773 -0.0829 -0.2512 -0.1426
57497W        W58361  24.800  14.728   5.356  0.0293 -0.0496 -0.2253
57498W        W58362   4.294  27.905   0.391  0.1038 -0.1794  0.1566
57499W        W58363  11.977   2.157   3.666  0.0665 -0.0149 -0.1093
57500W        W58364  28.761  15.520   0.102  0.0410 -0.2370  0.1985
57501W        W58365   1.631  24.485   3.469  0.5615 -0.2948  0.2133
57502W        W58366   0.709  10.014   6.214  0.2427  0.1310 -0.1103
57503W        W58367  23.762  13.224  26.372 -0.0446  0.0637  0.2314
57504W        W58368   3.868  20.821   1.987  0.1865 -0.0682  0.1356
57505W        W58369  19.710  18.248   2.264  0.1430 -0.3166 -0.1536
57506W        W58370  21.516   9.514   5.960 -0.0794 -0.2218  0.1736
57507W        W58371  16.588  17.058  18.040  0.4664 -0.2167  0.1087
57508W        W58372  19.898   0.093   8.172  0.3815  0.1163  0.1079
57509W        W58373  28.731   7.014  21.268 -0.2448 -0.1415 -0.0953
57510W        W58374  12.631  20.572  27.340  0.1909 -0.3101  0.0989
57511W        W58375  13.780  10.412  23.016 -0.2090 -0.0699 -0.2492
57512W        W58376   2.444   1.016  24.797 -0.1673  0.0473  0.0631
57513W        W58377   4.992   5.134  13.406  0.1049  0.4482 -0.1566
57514W        W58378  23.214  28.489  23.280 -0.6211  0.3376  0.2246
57515W        W58379  11.251  26.725  15.307 -0.1184 -0.2557 -0.0444
57516W        W58380  13.340  17.451   3.706 -0.0211  0.1447 -0.1717
57517W        W58381  16.489  13.148  13.253  0.2324 -0.1291  0.1267
57518W        W58382  20.748   4.600   7.064  0.0318 -0.0122  0.1157
57519W        W58383   1.825  11.433  25.191 -0.0666  0.1680  0.2457
57520W        W58384  14.193   3.667  28.599 -0.0521  0.2105  0.0538
57521W        W58385  17.114  12.484  14.161  0.1447 -0.0007 -0.1956
57522W        W58386  11.254  28.820   3.811 -0.1483  0.1368 -0.1394
57523W        W58387  19.596  13.739  25.975 -0.1258  0.3618  0.0112
57524W        W58388  23.713  10.631  16.198 -0.1056  0.1211 -0.3969
57525W        W58389  19.720  28.177  28.825 -0.1456 -0.2542 -0.1027
57526W        W58390  22.320  26.466  23.765  0.3910  0.0127 -0.1171
57527W        W58391  22.358  12.640  10.470 -0.2310  0.1122 -0.1471
57528W        W58392  18.624   4.931  26.345 -0.0602  0.1160  0.0829
57529W        W58393   8.276   5.298  11.991  0.0407 -0.1899  0.0135
57530W        W58394  29.077  23.223   8.543  0.1264  0.3453 -0.0509
57531W        W58395   4.985   0.154   9.778 -0.2694  0.1072  0.4846
57532W        W58396  26.552   9.757   4.426  0.1581  0.2177  0.3959
57533W        W58397  22.213   1.910   2.006 -0.0070 -0.1385 -0.2119
57534W        W58398   2.963   2.941  19.531  0.1888  0.0259  0.1094
57535W        W58399  13.349  15.895  25.122 -0.0126 -0.3144 -0.2298
57536W        W58400  10.051   3.932  11.303 -0.1348 -0.0912  0.2653
57537W        W58401  28.832   4.219  12.540 -0.1982  0.0983 -0.2858
57538W        W58402  28.921   4.342  27.528 -0.3962  0.0837  0.3912
57539W        W58403  22.594  22.407  27.258  0.1456  0.1798  0.0696
57540W        W58404  14.017   4.172  10.616  0.0926 -0.1673  0.0074
57541W        W58405  10.524   4.934  27.764  0.0680 -0.0890 -0.2943
57542W        W58406  10.712  19.442  24.884  0.1931  0.2846  0.0489
57543W        W58407   7.239  24.329  16.699 -0.0375 -0.2004 -0.1123
57544W        W58408   6.600   6.403   1.846  0.1248  0.2831  0.1303
57545W        W58409  18.976  26.267  27.389 -0.4745 -0.0126  0.1034
57546W        W58410  10.432   2.184  22.277 -0.2439 -0.0080 -0.3459
57547W        W58411  22.844   2.968   0.907  0.0669  0.0347  0.3811
57548W        W58412   0.645  25.412  17.245 -0.0734  0.3903 -0.1687
57549W        W58413  11.005  15.641  20.264  0.0467  0.2738  0.0180
57550W        W58414  20.873  28.186   3.991 -0.3558  0.4486  0.3737
57551W        W58415  23.105  26.499  24.429  0.0688 -0.2866  0.0054
57552W        W58416  22.700   3.759  27.742 -0.0890  0.0885  0.0612
57553W        W58417  26.045   0.156   1.637  0.1445 -0.1128 -0.3522
57554W        W58418  11.651   5.197  12.516  0.1208  0.0862  0.1516
57555W        W58419  14.830  15.687  22.784  0.1301 -0.2235  0.0912
57556W        W58420   5.955  20.900  23.160 -0.0662 -0.1191  0.1980
57557W        W58421   5.399  16.049  28.391  0.0464 -0.1178 -0.1782
57558W        W58422  20.164  15.572  28.534 -0.1643 -0.1026  0.0469
57559W        W58423   5.405   5.016  20.656 -0.2442  0.0440  0.1964
57560W        W58424  14.944  16.050  10.639 -0.0578  0.4391  0.0556
57561W        W58425  27.353   9.815  15.685 -0.0781 -0.1963  0.0751
57562W        W58426   1.596   8.655   0.916 -0.1529  0.0623 -0.2128
57563W        W58427  18.599   1.514  25.000  0.3488 -0.0612  0.0125
57564W        W58428  13.084  28.955   4.287  0.1445  0.1210 -0.1000
57565W        W58429   4.897   2.136  14.418  0.0693 -0.2261 -0.1216
57566W        W58430  23.378  21.328  18.462  0.0577 -0.0998 -0.2085
57567W        W58431   7.647   0.330  18.812 -0.1334 -0.0652 -0.1150
57568W        W58432  21.906  20.941   0.997 -0.0291 -0.1441  0.0543
57569W        W58433  20.333  12.661  16.293 -0.0135 -0.2794 -0.1784
57570W        W58434  27.061   3.438  28.055  0.2682 -0.0619  0.1934
57571W        W58435   6.248   2.559  19.922  0.1454  0.1002 -0.1645
57572W        W58436  21.293   1.936  24.691  0.0215 -0.1892 -0.0558
57573W        W58437  28.569  10.843  21.733 -0.2571 -0.0871 -0.0319
57574W        W58438  13.665  26.593  21.228 -0.3041  0.0305 -0.2692
57575W        W58439  17.092   8.555   4.143  0.1266  0.0029  0.0543
57576W        W58440  15.061  28.160  28.623  0.2028 -0.1190 -0.4048
57577W        W58441   7.653  27.881  24.445 -0.1327  0.3541  0.2542
57578W        W58442   8.755   7.668  28.349  0.3206 -0.0905 -0.1605
57579W        W58443  27.623  11.510  10.018 -0.0577  0.1466  0.2621
57580W        W58444   6.209  22.114   9.877 -0.4240 -0.2548  0.3835
57581W        W58445  10.449  12.304   2.877  0.0062  0.3997  0.1818
57582W        W58446   3.425   4.403  22.575 -0.0893 -0.1481 -0.1408
57583W        W58447  11.789  22.867   1.174  0.2803 -0.1433 -0.0796
57584W        W58448  10.742  15.965   5.365  0.1061 -0.0815  0.0655
57585W        W58449  10.742  28.193  11.726  0.1264  0.2236  0.1265
57586W        W58450  23.206   2.803  11.028  0.2673 -0.2632 -0.1984
57587W        W58451   4.942  24.105  11.512  0.1278  0.3043 -0.0912
57588W        W58452   4.323  19.085   7.497 -0.1733 -0.2386 -0.3587
57589W        W58453   3.506  13.165  10.415 -0.1862  0.3731 -0.1748
57590W        W58454   3.732   2.447  18.026 -0.0460  0.1583 -0.0153
57591W        W58455  16.449  15.651  16.774 -0.0973  0.1677 -0.0769
57592W        W58456   4.593  18.802   2.020  0.5098 -0.0922  0.0563
57593W        W58457   4.086   5.042  25.015 -0.1832  0.1458 -0.0049
57594W        W58458  23.263  28.798   2.594  0.1622 -0.1139 -0.1578
57595W        W58459  11.853   5.856  28.002  0.2318  0.0023 -0.2708
57596W        W58460  22.028  24.466  27.152 -0.1069 -0.0676  0.4884
57597W        W58461  26.148  13.357   3.390 -0.2000  0.1973 -0.0052
57598W        W58462  26.997  23.897   0.771 -0.1769  0.2815 -0.1309
57599W        W58463  16.197  23.070   9.157 -0.0145 -0.1136  0.1665
57600W        W58464  24.046   9.238   5.798  0.0789  0.0938  0.0560
57601W        W58465   3.918   7.986  25.815 -0.1087 -0.2301  0.4142
57602W        W58466  26.546   8.463  14.391 -0.0331 -0.0672 -0.2698
57603W        W58467  17.347  20.658  14.911 -0.1176  0.0518 -0.0008
57604W        W58468  16.405  12.092  15.773  0.2478  0.1336  0.0356
57605W        W58469  18.376  24.772  27.085  0.0624  0.1027  0.0206
57606W        W58470  27.949  15.141  25.777  0.2722 -0.1004  0.3246
57607W        W58471  17.601  28.921  17.696  0.1393 -0.1470 -0.1247
57608W        W58472  21.902   1.307  17.580 -0.1007 -0.1751  0.2278
57609W        W58473   2.565  28.560  12.384 -0.1733 -0.0970 -0.3508
57610W        W58474  12.738   0.599   4.244  0.1589  0.3023  0.1121
57611W        W58475  22.709  27.965  15.658 -0.3692 -0.1875 -0.0694
57612W        W58476  25.051   4.054  11.232 -0.1445 -0.1096 -0.0707
57613W        W58477  13.006  24.587  20.330 -0.2489  0.1845  0.0502
57614W        W58478  13.292  14.000  16.620  0.2119  0.0392  0.1486
57615W        W58479  23.553  29.055   5.939 -0.1751 -0.0096 -0.2161
57616W        W58480  20.450   1.298  20.235  0.3983 -0.0755 -0.2423
57617W        W58481   1.496  12.813  28.362  0.0612  0.1837  0.2053
57618W        W58482  27.845   5.358   0.653  0.0994 -0.3094 -0.2687
57619W        W58483   7.075  10.571  14.058 -0.1337 -0.1442 -0.2890
57620W        W58484  21.772  10.032  22.818 -0.2466 -0.4458 -0.0295
57621W        W58485  26.798  25.545  26.815  0.1018  0.2414 -0.3504
57622W        W58486   0.686   0.817  11.232 -0.0244 -0.1010 -0.0001
57623W        W58487  23.074  24.016   9.373 -0.0177  0.1814  0.2538
57624W        W58488   2.560  27.155  23.721 -0.1394 -0.2103  0.0130
57625W        W58489  25.238   0.076  22.040 -0.0482 -0.1020 -0.1452
57626W        W58490  26.949   6.769  28.178  0.1187 -0.0336  0.1454
57627W        W58491  27.569  16.500   4.763  0.0853 -0.0078  0.3690
57628W        W58492   5.631  15.644  17.190  0.1901  0.2899  0.0614
57629W        W58493  10.831   9.543  14.564 -0.1641 -0.1778 -0.4378
57630W        W58494   7.917   0.491   6.103 -0.2276  0.2251 -0.1138
57631W        W58495  27.244  25.309   1.607  0.1765  0.0334  0.4425
57632W        W58496  20.969   7.072   0.654  0.2202  0.2225  0.0627
57633W        W58497   5.456   6.420  21.847 -0.0244 -0.0738 -0.1841
57634W        W58498  13.847  10.982   5.371  0.0748 -0.2362  0.0277
57635W        W58499   9.850   2.941  15.397  0.0351  0.3679 -0.0901
57636W        W58500  13.152  10.979   8.414  0.1673  0.1435  0.0872
57637W        W58501  14.485  13.482   4.424  0.0528  0.1232  0.1193
57638W        W58502  17.275   0.952  28.710 -0.2629  0.0768  0.0719
57639W        W58503   4.184   3.324  24.909  0.0065 -0.2685  0.1012
57640W        W58504   7.275   3.587   2.501  0.0614  0.1484 -0.1303
57641W        W58505  11.233  18.711  23.769 -0.0898 -0.1003  0.1504
57642W        W58506   3.824  16.118  26.475 -0.0968  0.0197  0.1812
57643W        W58507  21.580  14.797  11.405  0.2238  0.0671  0.1693
57644W        W58508  15.809   5.233   6.563 -0.0569  0.2100 -0.0236
57645W        W58509  17.462   2.558   8.991 -0.0097 -0.1761 -0.2086
57646W        W58510  23.354  28.658  16.584 -0.2353 -0.0316  0.3952
57647W        W58511  18.364  25.836  15.520  0.2592  0.1701 -0.2488
57648W        W58512   2.647   5.848  27.488  0.1381  0.0748 -0.1675
57649W        W58513   2.330  27.857  21.065 -0.2906  0.1417 -0.2670
57650W        W58514   7.509  15.595  14.715  0.0044 -0.0517  0.0679
57651W        W58515  14.837  25.452   1.057 -0.0527  0.1615 -0.2707
57652W        W58516  19.231   0.871   3.172 -0.0441  0.0351  0.1746
57653W        W58517  15.065   2.488   2.779  0.3983 -0.0178  0.1681
57654W        W58518  15.124  11.213   3.387  0.0440 -0.2964 -0.0149
57655W        W58519   0.712  11.977  27.027 -0.3216 -0.0085 -0.2512
57656W        W58520  20.032  24.433   7.574 -0.0322  0.2267 -0.2537
57657W        W58521  10.486  23.364  21.466  0.0226  0.1431  0.0953
57658W        W58522  13.033  22.681  27.573  0.2532 -0.3973  0.2858
57659W        W58523   6.321  20.787  25.258 -0.2535  0.0012  0.1063
57660W        W58524  14.944  17.156  13.787  0.1535  0.0653 -0.1039
57661W        W58525  20.368  18.484   0.974  0.0771  0.1745 -0.0868
57662W        W58526   5.055   9.383  25.636  0.0473 -0.1122 -0.2661
57663W        W58527  23.118   0.056  15.691  0.4322  0.0864  0.1127
57664W        W58528  14.621   2.228  29.095  0.0739  0.0834 -0.1526
57665W        W58529   6.982  15.980   8.639 -0.1611  0.0091  0.2030
57666W        W58530  23.437   8.693  12.283  0.2978  0.0520  0.0760
57667W        W58531   8.859  27.125  28.463  0.2070 -0.2378  0.3848
57668W        W58532  27.671   4.845   3.072 -0.0076 -0.0221  0.1609
57669W        W58533  22.866   9.194  22.145  0.0091 -0.0007  0.3231
57670W        W58534  10.161  15.715  11.231  0.0368 -0.2993 -0.3483
57671W        W58535  23.984  11.006  16.485 -0.1213  0.0971  0.0179
57672W        W58536  21.115  23.072  11.212 -0.0841  0.0002  0.0092
57673W        W58537  22.667  18.176  27.669 -0.1002  0.0290  0.0057
57674W        W58538   6.851  28.197  27.705  0.1319  0.0069  0.0851
57675W        W58539  14.868   4.261  22.181  0.0909 -0.2059 -0.0110
57676W        W58540  22.348  13.580  22.833  0.1230  0.2436  0.0784
57677W        W58541  15.479  10.370   2.075  0.0006  0.0671 -0.3103
57678W        W58542  12.816   8.242  26.131 -0.1554  0.2007  0.4412
57679W        W58543  25.089   1.410   1.301  0.1291  0.0848  0.1598
57680W        W58544   7.824   8.365  22.883 -0.1595  0.2822  0.0070
57681W        W58545  14.046  19.881  23.643 -0.1029  0.1932 -0.0527
57682W        W58546  23.240  10.407  21.428  0.1826  0.1216 -0.0825
57683W        W58547   2.681   9.218   4.798 -0.2876 -0.0396  0.1625
57684W        W58548   0.908   4.944  21.237 -0.2278 -0.1108 -0.2604
57685W        W58549  19.215  11.731  26.269 -0.0360 -0.2068 -0.0159
57686W        W58550  20.154  20.951  26.167  0.0163 -0.0567 -0.1633
57687W        W58551  16.734   8.260   4.763  0.0224  0.3583  0.0539
57688W        W58552  11.730   7.032  21.678  0.0836 -0.0733  0.1291
57689W        W58553  14.145  26.802  17.259 -0.0081  0.2057  0.1212
57690W        W58554   6.270   9.798  12.111  0.2352  0.3053 -0.3993
57691W        W58555   4.226  27.332  21.395  0.1626  0.1744 -0.1351
57692W        W58556  16.792   4.018  23.232  0.1146 -0.0631  0.0919
57693W        W58557  28.974   2.702  15.038 -0.1584  0.0532 -0.1756
57694W        W58558   9.836  25.803  13.434 -0.4440 -0.3607 -0.3602
57695W        W58559  15.542   6.092  14.893  0.4785  0.0197  0.1198
57696W        W58560  18.823  10.213   1.772 -0.0077 -0.1728  0.0134
57697W        W58561  22.369   8.582   4.818 -0.1589 -0.1324  0.1306
57698W        W58562   6.224  18.733  18.144 -0.0168 -0.1322  0.1259
57699W        W58563  10.115  24.687  25.213  0.1224  0.3288 -0.0472
57700W        W58564  13.158   2.991  24.527  0.2225  0.0715  0.1461
57701W        W58565  27.839  26.921  18.787  0.2973  0.1692  0.0147
57702W        W58566   8.250  21.447  28.566 -0.0974  0.1027 -0.0798
57703W        W58567  13.956  16.553  21.514 -0.0491  0.1442  0.2221
57704W        W58568  11.593  28.400  15.205 -0.2727  0.0800 -0.0724
57705W        W58569   0.834  18.753   0.786 -0.0554  0.3422  0.0862
57706W        W58570  16.713   7.841  26.349 -0.0618  0.3681  0.0480
57707W        W58571  28.481  28.198   7.118  0.3615 -0.3110  0.0471
57708W        W58572  27.394   3.998  14.071  0.1092  0.1104 -0.0955
57709W        W58573  21.904   8.092  21.980  0.1010 -0.1550  0.0482
57710W        W58574  24.840   5.691  18.786  0.1228 -0.0505  0.2685
57711W        W58575  16.465   4.441  25.772 -0.2392 -0.1039 -0.1439
57712W        W58576  20.930  26.350  17.945  0.0821  0.1509  0.0553
57713W        W58577   2.873  17.127  23.560 -0.0312 -0.4290  0.0941
57714W        W58578   1.156  16.034  23.178 -0.0145 -0.0061  0.0249
57715W        W58579   6.831  19.555  20.219 -0.0058 -0.1221 -0.0235
57716W        W58580  17.938   0.092  26.293 -0.4540  0.0009  0.0844
57717W        W58581   7.664  21.665  24.734  0.2005  0.0453  0.2312
57718W        W58582  17.113  10.332  23.918  0.0359  0.0771  0.1676
57719W        W58583   9.603  10.981  12.938  0.0373 -0.1900 -0.0225
57720W        W58584   5.984  16.736  26.572 -0.1051 -0.2757 -0.0408
57721W        W58585  19.165  16.845   0.542  0.1663  0.1908  0.1177
57722W        W58586  29.102  10.317   6.462  0.2335  0.2658  0.1553
57723W        W58587   8.025  25.435  18.816  0.2888 -0.1617 -0.2594
57724W        W58588  23.264  10.236  23.531 -0.3397  0.1125  0.3182
57725W        W58589  23.080  15.667  11.652  0.0865  0.2813 -0.0368
57726W        W58590   6.039   5.492   5.763 -0.0825 -0.0952  0.2542
57727W        W58591   7.714  27.979  12.271 -0.2521 -0.4258 -0.0188
57728W        W58592   5.800   2.445  24.668  0.1320 -0.1267 -0.0873
57729W        W58593  23.251   7.071  19.254 -0.0742 -0.3002  0.3315
57730W        W58594   7.330  20.286   9.939  0.0885 -0.0525 -0.0637
57731W        W58595   9.441   0.658  20.464 -0.1770 -0.2915 -0.0966
57732W        W58596   4.359  28.934  17.070 -0.4915 -0.1905 -0.0226
57733W        W58597  18.101   9.144   2.510  0.0748  0.0364  0.1642
57734W        W58598  21.835  20.936   8.517  0.0790 -0.1808 -0.2495
57735W        W58599   6.559  16.072  15.416 -0.2915  0.0895  0.1310
57736W        W58600   2.968  28.510  23.297 -0.2019  0.2549  0.1153
57737W        W58601   2.433  26.377  28.724  0.0907  0.1343  0.0442
57738W        W58602  15.012  20.009  27.279  0.0412  0.0380  0.1251
57739W        W58603   8.276  12.862   5.409 -0.0126  0.0407 -0.2479
57740W        W58604  21.545   3.390  24.045 -0.3510  0.1286  0.0739
57741W        W58605   4.607  23.354   6.771  0.1344 -0.1076 -0.1463
57742W        W58606  27.772  10.778   6.428  0.0763 -0.0807 -0.1507
57743W        W58607  23.012   8.290  23.955 -0.1246  0.2746  0.1109
57744W        W58608  13.927   0.661  24.349  0.1002  0.0699  0.3547
57745W        W58609   2.725  14.636  11.504 -0.0954 -0.1137  0.0952
57746W        W58610   6.427  15.591   2.424  0.3336 -0.1176  0.2384
57747W        W58611  14.490   9.546  25.490 -0.2111  0.0120 -0.0569
57748W        W58612  20.085   7.795  19.937  0.1416  0.0781  0.2841
57749W        W58613   4.750  16.597   7.851  0.0139  0.0358  0.3386
57750W        W58614   9.133   1.024  25.993  0.0850 -0.0438 -0.0717
57751W        W58615   5.361  21.831  17.499 -0.0563  0.0885 -0.0525
57752W        W58616   4.236   9.947   1.585 -0.4610 -0.0823  0.1215
57753W        W58617  15.150  19.403  27.637  0.0293  0.0699 -0.0276
57754W        W58618  22.260   2.793  21.213 -0.0174  0.1895  0.2409
57755W        W58619  20.313  18.817  23.250  0.0988  0.0760 -0.2813
57756W        W58620  17.307  10.418  12.781 -0.0601  0.2270 -0.2127
57757W        W58621   7.558   2.139  27.203  0.0613  0.2821  0.0241
57758W        W58622   8.923  16.111   1.349  0.0491  0.0144 -0.0364
57759W        W58623  28.449  10.383  18.402 -0.1199  0.1529 -0.0449
57760W        W58624   8.160   6.769  28.617  0.0230  0.0082 -0.0362
57761W        W58625   1.910  15.929   3.491  0.1883  0.0926  0.0977
57762W        W58626  11.511   8.083  19.861  0.0206 -0.0020  0.1739
57763W        W58627   9.942   9.588  22.619 -0.1276 -0.0295 -0.2447
57764W        W58628  11.275   2.029   5.242  0.0080 -0.2530  0.2563
57765W        W58629  14.120  14.663   2.264  0.2737  0.1363 -0.4246
57766W        W58630  20.215  22.871   4.387 -0.1362  0.2098 -0.3621
57767W        W58631  21.241   4.930  11.847 -0.3414  0.1879 -0.2844
57768W        W58632   1.540   4.797  21.221  0.3098 -0.2441 -0.2133
57769W        W58633  20.050   9.279  10.047  0.3883 -0.1202  0.2185
57770W        W58634  10.502   8.396   8.708 -0.5600 -0.2988  0.0364
57771W        W58635  16.592  10.162   3.474  0.1557 -0.0780 -0.1217
57772W        W58636   2.684  14.509  24.917  0.0626 -0.1112 -0.1712
57773W        W58637  11.493  14.999   6.935 -0.3196  0.1878  0.1729
57774W        W58638  19.080   8.336   2.047 -0.2396  0.0836 -0.0594
57775W        W58639  13.044   6.269  10.355 -0.1743 -0.2836  0.3800
57776W        W58640   1.646   4.268  11.893 -0.0098 -0.1506  0.2527
57777W        W58641   0.504  28.672  28.906 -0.0651 -0.0828 -0.0694
57778W        W58642  17.566  29.142  20.839 -0.2177 -0.2780  0.1088
57779W        W58643   9.153  12.493  14.815 -0.1143  0.2193 -0.1145
57780W        W58644  15.823   4.604  26.801 -0.2167  0.0263 -0.2010
57781W        W58645  27.521  17.692  27.867 -0.1711  0.0045  0.0586
57782W        W58646   6.691  11.910  26.834 -0.1108 -0.1695  0.0562
57783W        W58647   4.529   0.959  27.999  0.1977  0.1421 -0.0493
57784W        W58648   2.898   2.874  17.930 -0.0478 -0.1511  0.0518
57785W        W58649  16.617  28.062   8.736  0.0348  0.1888 -0.2473
57786W        W58650   6.437   4.564   9.913  0.0963 -0.0395  0.2491
57787W        W58651   0.124   0.977   8.983  0.3129  0.0620 -0.0366
57788W        W58652   1.383   5.463  26.537  0.1008  0.1202 -0.0149
57789W        W58653   6.504   4.162  11.166 -0.0863  0.1781 -0.1447
57790W        W58654  25.759  22.316  21.416 -0.2546 -0.1716 -0.0530
57791W        W58655  10.072  20.676  13.249 -0.4061  0.0576  0.1808
57792W        W58656  12.241   2.581  20.508 -0.0996 -0.0490  0.0768
57793W        W58657  21.274   1.982   2.731 -0.1476 -0.0571 -0.0746
57794W        W58658   3.684  28.331   8.845  0.0801 -0.1505  0.0782
57795W        W58659  11.598  10.607   5.387  0.2587 -0.0536  0.0473
57796W        W58660  26.677  12.730  23.951  0.2711 -0.1756 -0.2906
57797W        W58661  18.578  12.018  11.862  0.1297  0.2465 -0.2335
57798W        W58662  25.229   4.220  25.591 -0.1361 -0.0886 -0.1187
57799W        W58663   8.025   0.953   7.067 -0.1254 -0.0198 -0.1037
57800W        W58664  23.622  25.819   9.828 -0.0064 -0.2846 -0.0679
57801W        W58665  18.871  18.200   0.002 -0.2274  0.0128 -0.1142
57802W        W58666  10.605   3.579   3.040  0.0745  0.1259  0.3094
57803W        W58667   6.761  11.263  15.609  0.2119 -0.1927  0.2747
57804W        W58668  27.502   6.237   1.932 -0.3195 -0.0755  0.6127
57805W        W58669   2.526   2.216  28.740 -0.0519 -0.0429 -0.0349
57806W        W58670  23.921  12.726  16.466  0.1498  0.2032  0.1308
57807W        W58671   9.475  12.263  16.103 -0.1013 -0.1267 -0.0264
57808W        W58672   7.756  13.970  22.935 -0.1098  0.1013  0.1182
57809W        W58673   3.743   4.612  28.147  0.0260 -0.2369  0.0174
57810W        W58674   8.541  15.453  12.655  0.0413 -0.0956 -0.0780
57811W        W58675   7.489  16.709   2.837 -0.0850 -0.0591  0.0119
57812W        W58676  12.322  22.710   5.683  0.0690  0.1884  0.2408
57813W        W58677  27.512  18.019   4.535  0.0817 -0.1098  0.2549
57814W        W58678   4.639  14.999  15.389  0.0509  0.0106  0.3002
57815W        W58679  12.035   3.357  17.777  0.0918  0.0576  0.2851
57816W        W58680   4.345   8.689  20.324  0.4083 -0.0474  0.1791
57817W        W58681  21.244  14.330   5.386 -0.0599  0.0486  0.1313
57818W        W58682  10.331   7.214   7.222  0.0176 -0.0284 -0.2568
57819W        W58683  25.091   1.534   5.833 -0.3434 -0.2158 -0.0815
57820W        W58684   0.386  23.925  20.874  0.0694  0.2337  0.1711
57821W        W58685   4.643  14.482  16.063 -0.0669 -0.0356  0.1325
57822W        W58686  28.096  26.557  27.214  0.1319  0.0701  0.0892
57823W        W58687   3.874  12.044  23.630 -0.3526  0.1031  0.1005
57824W        W58688  18.653  15.902  21.585  0.0823 -0.1709 -0.1337
57825W        W58689  28.830  17.200   2.309 -0.0262 -0.2703 -0.3309
57826W        W58690  17.432   5.741  24.652 -0.0002  0.0832 -0.1641
57827W        W58691  12.463  10.327   8.926  0.2529  0.0415  0.1395
57828W        W58692  19.102  24.138   5.171 -0.2796  0.0463  0.0286
57829W        W58693  24.281   8.328   5.408 -0.0642  0.0316  0.0630
57830W        W58694  13.197  15.023   4.309  0.2628  0.3510  0.2203
57831W        W58695  19.805   2.401  27.924 -0.0503  0.0305  0.1457
57832W        W58696   1.997   5.495  14.991 -0.0052 -0.1218 -0.1371
57833W        W58697  27.061  21.558   2.524 -0.1723 -0.0907  0.4552
57834W        W58698   5.410   7.465  12.222  0.3359  0.3474  0.2270
57835W        W58699   1.976   9.304   3.620 -0.2943  0.2071  0.1737
57836W        W58700   8.873   8.678   5.635  0.2499 -0.0918  0.0843
57837W        W58701   6.752  19.143  11.294  0.3379  0.0973 -0.2906
57838W        W58702  15.587  27.920   1.905  0.1155  0.1602  0.1043
57839W        W58703   9.252  25.608  22.449  0.0281 -0.0388 -0.0479
57840W        W58704  11.357  12.824  24.877 -0.0449 -0.1086 -0.1373
57841W        W58705  12.421   7.358   8.543  0.2446  0.1186 -0.1352
57842W        W58706  27.628   4.638  28.203 -0.3869  0.1359 -0.3309
57843W        W58707  10.414  10.693  28.074  0.0587 -0.2889 -0.2404
57844W        W58708   9.643  15.752  22.191 -0.0226 -0.1662 -0.1374
57845W        W58709  18.224   5.089  10.703 -0.0296 -0.3753  0.1186
57846W        W58710  17.367  13.858   2.757  0.1757 -0.1850  0.2340
57847W        W58711   2.295  28.821   5.330  0.0635  0.0894 -0.0861
57848W        W58712   4.176  23.802   2.205 -0.0673 -0.2922 -0.0078
57849W        W58713  24.002   1.473   2.632  0.0065  0.1591 -0.2918
57850W        W58714   6.018  10.488  24.068 -0.0630  0.3469 -0.2427
57851W        W58715  15.000  10.547  27.213 -0.0557  0.0602  0.2864
57852W        W58716  16.675  28.478   5.794 -0.0214 -0.1931  0.2373
57853W        W58717  29.089   2.683  28.005  0.0559  0.0615  0.1148
57854W        W58718  24.599  18.390  28.785 -0.1500  0.0713  0.0620
57855W        W58719  16.620  12.433   0.886 -0.1712 -0.0904  0.0345
57856W        W58720   1.610  11.958  17.327  0.3254 -0.1436  0.1061
57857W        W58721  22.739  12.982  13.821 -0.3397  0.1145  0.1353
57858W        W58722  21.994  16.076   9.516  0.1827  0.2870  0.2809
57859W        W58723   8.192   5.672   7.402  0.1221 -0.0761  0.1449
57860W        W58724  20.586  14.762   4.922 -0.0941  0.1773  0.2315
57861W        W58725  10.897   2.663  28.983 -0.2904  0.0420 -0.1598
57862W        W58726  26.576  19.619  19.238  0.2238  0.2331 -0.2744
57863W        W58727   6.731  17.923  19.894 -0.0587  0.0647 -0.1894
57864W        W58728  24.666  16.242   9.115 -0.3750 -0.0169  0.0245
57865W        W58729   1.999  10.897   3.604  0.1701  0.1859  0.0605
57866W        W58730  20.479   8.143  17.153  0.3552 -0.0350 -0.1057
57867W        W58731  24.190   8.993   2.782  0.1372 -0.0980  0.3188
57868W        W58732   4.560   6.450  13.125 -0.4738  0.0450  0.0526
57869W        W58733  10.646  10.511  23.260  0.2697  0.1579  0.4141
57870W        W58734   2.245  10.024   1.997 -0.0323 -0.2747 -0.2199
57871W        W58735  10.373   4.899  20.759 -0.0431 -0.0433 -0.0666
57872W        W58736   3.610  14.150   6.223  0.2177  0.3088 -0.1182
57873W        W58737   3.774   3.894  19.108  0.1018 -0.2949 -0.4218
57874W        W58738  23.996   4.606  29.022  0.0465 -0.0837 -0.0439
57875W        W58739   7.847  22.243  12.229  0.3526 -0.1904  0.0195
57876W        W58740  24.110  10.527  27.598 -0.0862 -0.3467 -0.1136
57877W        W58741  17.499  14.670  19.089  0.0045  0.3006 -0.2539
57878W        W58742  13.438   4.561  14.820  0.0774 -0.1085  0.4111
57879W        W58743  18.698  11.856  10.913 -0.0233 -0.3743 -0.0290
57880W        W58744   7.010  14.894   8.679 -0.1186 -0.0039  0.0385
57881W        W58745  23.164   2.573  19.695  0.2996  0.0285  0.0611
57882W        W58746  14.916   0.661   0.078 -0.4272  0.1565  0.0395
57883W        W58747  10.651  25.411  13.328 -0.4187  0.0492  0.1783
57884W        W58748  24.512   6.162  27.115 -0.1375  0.1934  0.2141
57885W        W58749   8.416   9.408  19.051 -0.0095  0.0033  0.3403
57886W        W58750   9.251   5.829  28.233 -0.0031 -0.0009  0.2842
57887W        W58751  22.353   6.490   2.379 -0.1510  0.0756 -0.0180
57888W        W58752  21.939   0.372  19.232 -0.1780 -0.1702  0.0859
57889W        W58753  16.000  15.730  27.708  0.1460  0.1238 -0.2665
57890W        W58754   6.902  13.258   7.059 -0.1097 -0.1830  0.1052
57891W        W58755  11.724  21.389   7.948  0.0859  0.0964 -0.0492
57892W        W58756  16.617  19.711  12.900  0.0869  0.3028  0.0813
57893W        W58757  25.486  13.807  28.809  0.0227  0.3625 -0.0305
57894W        W58758  25.709  16.411  26.934  0.1812 -0.1637  0.0191
57895W        W58759   3.087  22.283   5.838  0.1333  0.3352 -0.3135
57896W        W58760  16.406   0.703   7.567  0.0890 -0.2172 -0.2619
57897W        W58761   7.264  13.501  25.545 -0.1379  0.1470 -0.0055
57898W        W58762  19.424  12.460  19.056 -0.1943  0.2165 -0.1219
57899W        W58763  25.778  23.384   8.970  0.2037 -0.1106 -0.3713
57900W        W58764   7.653   1.084   9.006 -0.1526  0.0887  0.0910
57901W        W58765   6.514  21.887  26.109  0.3508 -0.2260 -0.2413
57902W        W58766  13.121  20.634   5.370 -0.4796  0.1777  0.3166
57903W        W58767   1.926  19.993  18.289  0.1184 -0.0911 -0.1415
57904W        W58768  17.912   4.490   0.263 -0.1697  0.1950  0.1608
57905W        W58769   2.572  16.694   3.100  0.2798  0.1995 -0.2962
57906W        W58770  24.343  25.653   2.253  0.0921 -0.0407 -0.0416
57907W        W58771  16.279   8.246  10.878  0.1716 -0.0696  0.1062
57908W        W58772  22.880  10.940   4.090 -0.1370 -0.2319  0.1491
57909W        W58773   1.664  16.207  27.775 -0.3314  0.0407 -0.1377
57910W        W58774  15.841   2.129  24.081  0.2999  0.0212 -0.1952
57911W        W58775  18.965  14.169   2.820 -0.2416  0.2177 -0.0876
57912W        W58776   8.235   9.754   0.089 -0.0928  0.1377 -0.1033
57913W        W58777   2.505   3.125   4.975 -0.0079  0.1091  0.1676
57914W        W58778  21.476   1.797  29.073  0.1087  0.0236 -0.0069
57915W        W58779   5.401  13.296  13.701  0.2104  0.1967  0.3086
57916W        W58780   8.763   1.171   3.018 -0.1607 -0.2689 -0.2193
57917W        W58781   6.989  28.774  19.236 -0.1522 -0.3044 -0.0219
57918W        W58782   3.787   8.730  16.847 -0.0308 -0.2183 -0.3226
57919W        W58783   6.898  28.033   3.224  0.1927  0.0915  0.2510
57920W        W58784  14.561  10.553   6.943  0.1602 -0.0112  0.1568
57921W        W58785   4.788   5.526  22.735 -0.1408  0.0553  0.0095
57922W        W58786   2.271  19.684  15.453  0.1134 -0.2254  0.1870
57923W        W58787  10.816  11.976  28.305  0.0838 -0.1210  0.0222
57924W        W58788   5.489  17.541  22.579  0.0019 -0.1740  0.1295
57925W        W58789  20.042  13.396  26.773 -0.0767 -0.2339 -0.3760
57926W        W58790  14.265  13.914   4.330 -0.0300  0.0821 -0.2513
57927W        W58791  15.386  20.879  16.043 -0.0753 -0.1217 -0.0209
57928W        W58792  24.994  25.593  20.120 -0.3192  0.1308  0.1868
57929W        W58793  13.363   9.573  11.685  0.2145 -0.1050  0.0837
57930W        W58794  24.532   4.628  20.387  0.5570 -0.1607  0.3671
57931W        W58795  11.493  16.310   3.852 -0.1394 -0.1990  0.2335
57932W        W58796  14.597   7.940  25.860  0.0227 -0.1150  0.0477
57933W        W58797  17.859  12.394  25.126 -0.1640 -0.2302  0.1321
57934W        W58798  23.932   0.961   7.939 -0.0007  0.1994  0.1243
57935W        W58799   0.204  13.200  21.714 -0.3485  0.2554 -0.0752
57936W        W58800   2.716   9.721  16.725 -0.2322  0.2629 -0.0693
57937W        W58801   3.539   3.679   2.742 -0.0383  0.3757  0.1074
57938W        W58802   2.800  22.588  21.699 -0.1391 -0.1227  0.0947
57939W        W58803  15.617  24.453  16.919  0.1702  0.0100 -0.1657
57940W        W58804   8.566  12.993  14.416  0.0567  0.0359  0.0620
57941W        W58805   7.467  28.326  16.319  0.2923  0.0472  0.0492
57942W        W58806   6.952   0.742  28.965  0.0923 -0.4599 -0.3128
57943W        W58807  28.616  12.043  17.590 -0.0020  0.3175  0.1650
57944W        W58808  10.620   1.037  26.790 -0.0198 -0.1641  0.0461
57945W        W58809  15.831   8.288  27.652  0.4337 -0.0261 -0.1865
57946W        W58810   8.799   7.158  14.547  0.1305  0.0153 -0.1280
57947W        W58811  22.119  14.881  25.062 -0.2026  0.0622 -0.0284
57948W        W58812  12.518   3.129  13.163 -0.2062  0.1434 -0.3002
57949W        W58813  26.192  19.593  25.078  0.3072 -0.1337  0.0522
57950W        W58814   6.600  10.461  25.763  0.3701  0.0681 -0.1323
57951W        W58815  12.644  15.681   4.629 -0.0361  0.2399 -0.0820
57952W        W58816  13.050  12.839   5.166  0.1268 -0.0936 -0.0514
57953W        W58817   6.067  16.398   8.700  0.1609 -0.2127 -0.3854
57954W        W58818  10.154   6.112  28.041 -0.1536  0.0613 -0.4014
57955W        W58819  24.992  11.579  19.582 -0.1777  0.0852  0.2749
57956W        W58820   9.890   3.955  24.344  0.0769 -0.0044 -0.0022
57957W        W58821   7.211  14.429   7.252 -0.0557  0.1559  0.1173
57958W        W58822  21.485  24.075  24.058  0.0556  0.2116  0.3126
57959W        W58823  13.722  27.663  26.552  0.3783 -0.0968  0.0471
57960W        W58824   5.360  11.517   9.991 -0.0126 -0.3306  0.2848
57961W        W58825  17.172   5.755  27.419 -0.0360 -0.2089  0.2099
57962W        W58826   0.707   6.816  15.136 -0.1330  0.1512  0.0956
57963W        W58827  26.017  24.741   5.609 -0.0142  0.0727  0.0912
57964W        W58828   4.964  18.713  26.608 -0.0443  0.0082  0.2024
57965W        W58829   2.283   7.909  28.266  0.0475 -0.0017 -0.2963
57966W        W58830  15.763  14.112  12.959  0.0156 -0.1911 -0.1630
57967W        W58831  28.168   2.506  17.588  0.1858 -0.0730 -0.2427
57968W        W58832  22.522   1.907  27.410 -0.2083  0.0456 -0.1016
57969W        W58833  11.924  25.294   1.086 -0.1060  0.0760 -0.0840
57970W        W58834  29.004  16.654   2.310  0.0022  0.2081 -0.1558
57971W        W58835   0.752  12.902  25.900 -0.1757 -0.0831 -0.3601
57972W        W58836  10.152   7.717  26.644  0.1184 -0.1286 -0.0766
57973W        W58837   5.493  18.215  23.340 -0.2866  0.1751 -0.5733
57974W        W58838   6.033   3.115  28.669  0.1207  0.0814 -0.0379
57975W        W58839  19.785   2.893  12.770 -0.0501 -0.0532  0.0764
57976W        W58840  11.586   9.081   9.093  0.1234 -0.1113  0.1742
57977W        W58841  18.099   2.551  24.430 -0.1538  0.3872  0.2180
57978W        W58842  26.614   8.081  25.609 -0.1441  0.3497  0.1458
57979W        W58843  17.697  16.505   0.308 -0.0142  0.2739 -0.0707
57980W        W58844   4.148  19.332   4.955  0.4341  0.0670 -0.0989
57981W        W58845  15.994   3.557  27.790  0.1122  0.3220  0.0856
57982W        W58846  11.426  12.272   6.667  0.0486 -0.3038 -0.1259
57983W        W58847  29.064  25.669  18.633  0.3679 -0.1064  0.1187
57984W        W58848  13.782   9.716  12.673  0.0086 -0.2268 -0.2055
57985W        W58849   6.523  22.329  28.195  0.1586 -0.1547 -0.0014
57986W        W58850  23.992  12.874  28.455 -0.0130 -0.1286  0.0163
57987W        W58851  14.295  14.160   7.470  0.1015 -0.1258  0.0731
57988W        W58852   0.011  10.956   1.067  0.0526 -0.3113  0.0556
57989W        W58853  10.758  11.554   1.265 -0.2689  0.0172 -0.0274
57990W        W58854  17.511   5.262  10.864  0.0185 -0.0366  0.2248
57991W        W58855   6.463  16.958  16.313  0.0024  0.1513  0.1037
57992W        W58856   1.060  26.488   9.397  0.0825 -0.0130  0.0267
57993W        W58857  13.777  10.400  16.352 -0.2349 -0.3213 -0.2471
57994W        W58858  11.869  19.881  25.309  0.2196 -0.0885  0.0484
57995W        W58859  13.576   2.230   2.001  0.0063 -0.1837 -0.0447
57996W        W58860  19.450  19.497  14.427  0.0268 -0.2302  0.4350
57997W        W58861   7.644  14.304  10.962 -0.1181  0.0064 -0.0985
57998W        W58862  11.731   0.605  12.837  0.0557  0.1579  0.0335
57999W        W58863   0.643  24.987   6.847  0.1397 -0.1077 -0.4098
58000W        W58864   6.310   5.944  28.906 -0.0646 -0.0279  0.1103
58001W        W58865   1.680  23.786   4.918  0.2268  0.1487  0.0107
58002W        W58866  11.393  13.167   5.864  0.0732  0.2573  0.0440
58003W        W58867   6.637   6.659  27.798 -0.1607 -0.3312 -0.2195
58004W        W58868  19.441  26.388   3.195 -0.2910  0.1321 -0.2625
58005W        W58869   9.721  28.286  20.987 -0.2884 -0.2659  0.1869
58006W        W58870  27.700  15.406  17.698 -0.2756  0.2031  0.0763
58007W        W58871  14.724  17.738  12.138  0.0546 -0.1472  0.0343
58008W        W58872  13.277  13.448  24.007  0.0055  0.3518  0.0740
58009W        W58873   5.311   3.653  16.715  0.3180  0.3293  0.0721
58010W        W58874  25.464  20.905  28.139  0.2041  0.1930  0.2880
58011W        W58875   9.374  18.354  15.528  0.0151 -0.2645 -0.0162
58012W        W58876   3.439  12.678  23.640 -0.1081 -0.0734 -0.3264
58013W        W58877  14.427   8.931   5.769  0.1453  0.5696  0.0835
58014W        W58878  11.888  19.425  26.308  0.0876 -0.2643 -0.1336
58015W        W58879   2.259  25.393   5.712  0.0801  0.1596  0.4294
58016W        W58880  11.276   3.093   6.087 -0.1386  0.0173 -0.0590
58017W        W58881  27.919  26.838   7.541  0.0544 -0.0218  0.1515
58018W        W58882  25.344  21.566  14.076  0.0867 -0.1264 -0.0978
58019W        W58883  21.665  26.237  25.236  0.0671 -0.0758 -0.2148
58020W        W58884  16.951   4.582  27.337 -0.1194  0.3304  0.0623
58021W        W58885  13.264   4.349   2.220 -0.0795  0.2105 -0.1054
58022W        W58886  22.805  27.768   9.594  0.2139 -0.1324  0.1702
58023W        W58887   2.585  23.723  11.497  0.0472  0.5692 -0.1226
58024W        W58888   1.420   0.158  20.720  0.0743 -0.0141  0.0281
58025W        W58889   9.461   1.231  26.805 -0.0835  0.0443 -0.0596
58026W        W58890  17.134   8.552  27.846 -0.0284 -0.0556  0.1859
58027W        W58891  23.361   3.780  23.572  0.1321 -0.1305 -0.0647
58028W        W58892  14.958  13.241  16.118 -0.2273  0.0309  0.1243
58029W        W58893  17.313   8.899   3.776  0.1801  0.0054  0.0033
58030W        W58894  18.291   4.304  27.168  0.1377 -0.1277  0.0933
58031W        W58895  11.842  16.991  13.032 -0.0166 -0.1643 -0.1959
58032W        W58896  24.893  12.483   1.908  0.0929 -0.0528 -0.0173
58033W        W58897   2.669  22.172   9.596  0.2608 -0.1860  0.1437
58034W        W58898   3.656  23.193   3.365 -0.2036 -0.1174 -0.1420
58035W        W58899  27.678  18.787   2.839  0.0564  0.1552 -0.1157
58036W        W58900  27.864  27.925  14.580 -0.2006 -0.3015  0.0994
58037W        W58901   6.325  10.785   9.237 -0.1145 -0.1611 -0.0454
58038W        W58902   3.318  13.354  15.153 -0.2324 -0.2270 -0.0145
58039W        W58903  11.908   2.696  17.455  0.1038 -0.0536  0.1105
58040W        W58904  11.422  10.489  19.931 -0.1677 -0.0825 -0.1158
58041W        W58905   9.567   0.893  21.679 -0.2292 -0.0985  0.0715
58042W        W58906   5.177  14.883  21.748 -0.1946  0.1121 -0.0536
58043W        W58907   2.543   7.639  24.036 -0.1199 -0.1416 -0.2761
58044W        W58908   1.341   8.712  10.206  0.5181 -0.1185  0.1339
58045W        W58909  25.033  16.784  28.400  0.1590  0.1361 -0.0991
58046W        W58910   9.246  11.692   2.970 -0.2355 -0.2168 -0.2687
58047W        W58911   1.396  14.555  15.245 -0.4141 -0.1698 -0.2812
58048W        W58912  28.656  16.864  15.774 -0.0936 -0.0477 -0.2161
58049W        W58913  12.423  27.014   0.637 -0.0256  0.1573  0.1294
58050W        W58914  19.823   6.899  24.603  0.0707 -0.3654 -0.2960
58051W        W58915   6.251  21.436  20.595 -0.0292 -0.2320  0.0421
58052W        W58916   4.856   9.172  14.619  0.0122  0.1511 -0.3872
58053W        W58917  25.455  28.325  22.551 -0.0443  0.1478 -0.1275
58054W        W58918   2.064  14.889   3.391  0.1504  0.0253  0.0599
58055W        W58919  18.525  19.454   0.524 -0.1313 -0.1019  0.1084
58056W        W58920   9.902   2.676  24.909  0.1142  0.0747 -0.2273
58057W        W58921  20.725  29.091   0.373 -0.2777 -0.2864  0.3266
58058W        W58922   0.959  25.577   6.792  0.1646 -0.1607 -0.2182
58059W        W58923  20.039  22.802  13.273 -0.1205  0.0588 -0.2946
58060W        W58924  21.365  24.361  15.653 -0.3079 -0.0165  0.1036
58061W        W58925   5.620  25.213  28.470  0.2675 -0.0165  0.1546
58062W        W58926  19.795   3.971  27.088 -0.1299 -0.2181  0.2834
58063W        W58927  14.313  14.621   8.243 -0.2085  0.2856  0.0851
58064W        W58928   7.104  13.142  21.425  0.0507  0.1224  0.1614
58065W        W58929   9.774  13.386   5.232  0.1283 -0.1270  0.1269
58066W        W58930  23.762   5.817   1.272 -0.3405 -0.0529  0.3865
58067W        W58931  21.819   3.902  16.031 -0.2024 -0.4456  0.2914
58068W        W58932   2.505  10.030  11.040  0.2204  0.0710  0.0057
58069W        W58933   6.503  14.651  23.312 -0.1055  0.0608  0.1101
58070W        W58934   7.151  22.449  24.171 -0.1289  0.0437 -0.0224
58071W        W58935   5.744  27.489  13.942  0.0593  0.0506  0.1782
58072W        W58936   0.308  24.060  15.002  0.1222  0.4884  0.2137
58073W        W58937   1.060   8.073  26.470 -0.1016  0.0619 -0.1366
58074W        W58938  21.451  15.227   1.308  0.0099  0.0116 -0.1182
58075W        W58939   2.904  24.194  18.613  0.0075  0.1619  0.1535
58076W        W58940  14.398   8.343   0.464  0.0443 -0.0192  0.2616
58077W        W58941   2.765  20.164  10.603  0.1864 -0.0732 -0.0471
58078W        W58942  13.015   0.493  17.213  0.1218 -0.0693  0.1419
58079W        W58943   6.496   3.577  17.268  0.0286  0.0891 -0.0667
58080W        W58944   4.321   6.745  16.283  0.0371 -0.0744 -0.1388
58081W        W58945   7.007  14.734  11.469  0.0545 -0.0102  0.0492
58082W        W58946  13.545   3.483   6.178  0.0077 -0.0727 -0.1810
58083W        W58947  14.120   4.328  17.462 -0.0188  0.1118  0.3202
58084W        W58948  25.051  12.551  24.833  0.3970 -0.0431 -0.0677
58085W        W58949  19.443  16.646   9.080  0.0167  0.3932 -0.0825
58086W        W58950  16.894  28.690   1.155 -0.0096  0.0970  0.0747
58087W        W58951  22.842  10.506   7.241 -0.2702 -0.3393 -0.1933
58088W        W58952  12.703  19.278  12.305 -0.2842  0.2778  0.1968
58089W        W58953  24.611  26.381  22.049  0.3431  0.2570  0.0386
58090W        W58954  15.906  25.924  17.491 -0.0615  0.2278 -0.0301
58091W        W58955  10.116   5.275  17.723  0.1687  0.0161 -0.2180
58092W        W58956  23.895   0.480  24.478  0.5206 -0.1101  0.0648
58093W        W58957   1.963   4.093   1.281 -0.0876  0.0711  0.0836
58094W        W58958  13.476  12.405  10.839  0.0552  0.1395 -0.0519
58095W        W58959   0.196  23.198   0.063 -0.0304 -0.1283  0.0943
58096W        W58960   4.545   2.921  12.381 -0.2091 -0.0990 -0.1191
58097W        W58961   1.388   0.007  27.446  0.2085 -0.3425 -0.2407
58098W        W58962   9.341  27.887  16.501  0.0724  0.0197 -0.0053
58099W        W58963  26.559  14.662   2.202 -0.0564 -0.2014 -0.2452
58100W        W58964  21.448   3.412  26.210 -0.0437  0.2929  0.0937
58101W        W58965   7.683   7.347  18.526  0.0079 -0.4097 -0.3134
58102W        W58966  13.190  14.998   0.820  0.0916 -0.0790 -0.0251
58103W        W58967   1.679  18.118  26.284 -0.0097  0.2961 -0.0239
58104W        W58968  20.014   4.627  11.368  0.0542 -0.2723  0.1407
58105W        W58969   0.678  28.969   3.541 -0.2268  0.0987 -0.1973
58106W        W58970   6.427  15.143   2.627 -0.0109  0.0367 -0.4560
58107W        W58971   7.139  17.456  12.791 -0.1750 -0.1397  0.0725
58108W        W58972   4.096  10.154  24.949  0.0791 -0.1913 -0.1013
58109W        W58973   2.431  16.663  26.835 -0.0265  0.1293 -0.1284
58110W        W58974  14.101   5.683  19.091 -0.2137 -0.0796 -0.0287
58111W        W58975  10.870  15.375  19.235  0.1883 -0.3228  0.1248
58112W        W58976  20.622   5.097   8.348 -0.1553 -0.1436  0.1045
58113W        W58977  14.785   0.083  27.968  0.0218  0.3102  0.0485
58114W        W58978   9.777   2.144   9.582  0.1190 -0.0893  0.0434
58115W        W58979  13.787   1.568   0.785  0.2321 -0.1434  0.2011
58116W        W58980  12.933  28.341  26.259  0.0792  0.0303  0.1066
58117W        W58981  22.293   4.649  25.701  0.2057 -0.0187 -0.1618
58118W        W58982  28.236  10.493   3.959  0.2062 -0.1147  0.0841
58119W        W58983   2.490   4.222   6.047  0.1240 -0.2534  0.0475
58120W        W58984  29.109   1.163   6.842 -0.2143  0.0384 -0.0965
58121W        W58985  15.384   0.184   1.940 -0.0495 -0.0873  0.2133
58122W        W58986  11.871   2.153  16.455 -0.1326  0.1507 -0.0048
58123W        W58987   5.051  25.296  12.105 -0.1350 -0.0173 -0.0889
58124W        W58988  12.878  21.281   8.132  0.0076 -0.1626 -0.1407
58125W        W58989   6.659  15.678  14.619  0.0009  0.1539  0.2301
58126W        W58990  25.699  13.836   4.888  0.2776  0.0771 -0.2173
58127W        W58991  20.778  18.135   6.782 -0.0592 -0.1463  0.1297
58128W        W58992  10.749  13.236  20.335 -0.1284  0.0046  0.0258
58129W        W58993  27.288   1.365   5.996 -0.3376  0.3107 -0.2069
58130W        W58994   8.725  11.973   0.842 -0.0857  0.0465  0.1990
58131W        W58995   8.363  16.313  24.434  0.1012 -0.1162 -0.1252
58132W        W58996   4.593  23.119  15.187 -0.0202  0.1123  0.3393
58133W        W58997   5.849  26.329   1.318 -0.6162 -0.2194 -0.5602
58134W        W58998  22.901   4.431  20.856 -0.1622  0.3010 -0.0006
58135W        W58999  22.043  26.920  10.915  0.1117 -0.1130 -0.0183
58136W        W59000   9.049   8.139   9.676 -0.0222  0.1340 -0.1588
58137W        W59001  22.249  11.905   2.144 -0.3685  0.5025 -0.1208
58138W        W59002  27.548  25.080   3.001 -0.0837 -0.1547  0.1902
58139W        W59003  27.300  24.923  24.729 -0.1696 -0.0819  0.0159
58140W        W59004  13.322  20.783  26.017 -0.0963  0.0735 -0.1822
58141W        W59005  12.260  15.988   2.414  0.0817 -0.0282  0.5015
58142W        W59006  12.747  19.064   8.034 -0.0130  0.2588 -0.0336
58143W        W59007  25.687  25.695   3.033  0.2555 -0.0880  0.0085
58144W        W59008  12.108   7.536  25.910 -0.2222  0.0416  0.0316
58145W        W59009  20.296   4.840   9.275  0.0159 -0.2168  0.0322
58146W        W59010   5.762  28.683   8.282 -0.0236 -0.0148 -0.0078
58147W        W59011   3.523  11.166   4.219  0.4665  0.2286 -0.1309
58148W        W59012  19.236   7.769  27.268  0.0385  0.2488 -0.0733
58149W        W59013  23.263   0.778   6.619 -0.1171 -0.0053 -0.2484
58150W        W59014  20.555  19.640  15.428 -0.3659  0.3378  0.0221
58151W        W59015   3.567   3.260   4.566  0.4425 -0.4784  0.3983
58152W        W59016   9.513   4.052  10.490  0.4676  0.1371  0.1295
58153W        W59017  23.372  12.427  20.806 -0.0967  0.0629 -0.1011
58154W        W59018   3.145  16.061  15.033 -0.0839  0.0033 -0.0938
58155W        W59019  13.248   5.998  22.657  0.2518  0.2982  0.0308
58156W        W59020   5.545   7.918   2.207  0.0567 -0.0056  0.2486
58157W        W59021   1.893  25.225  23.876  0.3465  0.4064 -0.3795
58158W        W59022  11.043  13.678  18.654 -0.3322  0.0659 -0.1616
58159W        W59023  18.003   9.927  19.738  0.1630 -0.1836 -0.3357
58160W        W59024   0.343  27.316  28.311 -0.0913 -0.0745 -0.1250
58161W        W59025   9.458   9.727  13.006 -0.0967 -0.0510  0.0860
58162W        W59026   3.658   0.130  13.157  0.2568 -0.1105  0.0109
58163W        W59027   8.150  29.030   6.501 -0.0964  0.0003 -0.0420
58164W        W59028   3.226  12.434  28.620 -0.0654  0.0256 -0.0239
58165W        W59029   9.205  12.860  10.144  0.6384  0.0041  0.2371
58166W        W59030  13.559   1.584  28.107  0.2242  0.0004 -0.0223
58167W        W59031  14.770   9.572   1.862  0.3039  0.0711  0.2038
58168W        W59032   7.648   5.480   0.048  0.0787 -0.3610 -0.0015
58169W        W59033  22.052   1.650   5.564 -0.1195 -0.1129 -0.1362
58170W        W59034  21.866  28.767   1.158 -0.0185 -0.0910  0.0355
58171W        W59035   4.235  12.956  20.768 -0.0491 -0.2272 -0.0088
58172W        W59036  16.244  11.727  21.089  0.1115  0.3483 -0.0021
58173W        W59037  14.070  14.038  19.827  0.1712  0.0359  0.0223
58174W        W59038  10.786   8.180   5.244 -0.1325 -0.1420  0.0128
58175W        W59039   9.902   0.772   0.309  0.1813  0.1373  0.1885
58176W        W59040  24.986   2.596  19.435 -0.0851 -0.1804 -0.0847
58177W        W59041  13.890   5.373  15.591 -0.0056  0.1651 -0.0787
58178W        W59042   5.251  22.152   5.607  0.3327  0.1892 -0.1262
58179W        W59043   8.219  13.587   5.869 -0.0745 -0.2657 -0.1103
58180W        W59044  21.374  19.452  11.017 -0.0297 -0.1444  0.0901
58181W        W59045   0.995   8.540   0.696  0.2372 -0.0925  0.2498
58182W        W59046  14.253  13.281  27.577 -0.1564  0.1998  0.1349
58183W        W59047  19.772   8.344   8.693 -0.1236  0.2059  0.1130
58184W        W59048  23.159   8.515   6.950  0.1304  0.2932  0.1448
58185W        W59049   5.348  17.188   5.542  0.0535  0.0458 -0.4473
58186W        W59050  10.751   0.320  18.126  0.0057  0.2475 -0.2791
58187W        W59051   7.017   9.216  16.660 -0.1233 -0.0823 -0.0983
58188W        W59052   3.651  27.871   9.168  0.3408 -0.1631 -0.1783
58189W        W59053   4.036  14.400  19.522 -0.0778  0.0446 -0.1660
58190W        W59054  10.357   2.456  24.847  0.1272 -0.0891  0.2382
58191W        W59055  16.839  12.326  13.032 -0.1105  0.0773 -0.2417
58192W        W59056  26.690  24.781  20.664 -0.3906  0.1069 -0.5578
58193W        W59057  25.262   6.590  27.477  0.0833  0.4515  0.1594
58194W        W59058   4.992  27.926  10.839 -0.0415  0.1168  0.1573
58195W        W59059  23.904  28.396  11.368  0.1388 -0.1857 -0.0782
58196W        W59060   7.464  15.394  24.864  0.0569 -0.1984 -0.2650
58197W        W59061  10.455   9.247   7.566 -0.3909  0.1439 -0.1083
58198W        W59062   9.085  11.121   3.888 -0.3764  0.0590 -0.2924
58199W        W59063  22.673  19.027  27.854 -0.3337 -0.0271  0.0740
58200W        W59064  13.238  12.295  12.325 -0.0826  0.0137 -0.0619
58201W        W59065   8.142  28.813   0.028  0.0144  0.1036  0.0105
58202W        W59066  11.599   3.199  27.242  0.4318  0.3035  0.1492
58203W        W59067  17.610  18.757   1.974  0.1043 -0.2677  0.1138
58204W        W59068  29.126   1.335  10.620  0.0843  0.0233 -0.0956
58205W        W59069  27.316  25.750  26.025 -0.1259  0.4188 -0.1506
58206W        W59070   7.461   1.498   2.522 -0.0098 -0.1031  0.2342
58207W        W59071  23.611  19.397   3.014 -0.0662 -0.0690 -0.0180
58208W        W59072  13.929  18.336  27.267 -0.0289  0.1874 -0.0391
58209W        W59073  27.132  16.669   0.292  0.3842  0.0078  0.1672
58210W        W59074   2.911  11.292   8.801 -0.1725  0.0676 -0.0010
58211W        W59075   8.943   2.347   4.005 -0.1180  0.0468 -0.1809
58212W        W59076  22.666  12.393  18.040 -0.1305  0.0489  0.0043
58213W        W59077   9.688  15.861  19.297 -0.0377  0.3125 -0.1921
58214W        W59078  18.796   9.062  28.859  0.0687  0.2186  0.1487
58215W        W59079   5.760  23.252   0.778 -0.0936  0.0073  0.1865
58216W        W59080  12.600  17.274  25.092 -0.0106  0.1683  0.1539
58217W        W59081   8.768  13.198  29.043  0.0389 -0.1017 -0.0346
58218W        W59082   4.321   6.991  23.018  0.2338  0.0982  0.0976
58219W        W59083  14.687  23.852   8.296 -0.2240 -0.1403 -0.1244
58220W        W59084  21.973   0.458  10.758  0.2268 -0.1353 -0.0377
58221W        W59085   9.569  29.047  12.126  0.2390 -0.0723 -0.3175
58222W        W59086  18.121  12.018   6.103 -0.0039  0.1027 -0.0040
58223W        W59087  25.963  24.297  27.108 -0.0835  0.1433  0.0599
58224W        W59088  29.122  28.255   5.424 -0.2632 -0.1811 -0.0821
58225W        W59089   7.882  14.831   6.707  0.1417 -0.1599 -0.1157
58226W        W59090  23.523   9.099  18.486  0.1294  0.2857 -0.2703
58227W        W59091   5.069  12.105  24.154 -0.0680  0.1928 -0.0459
58228W        W59092  13.605   4.402  27.490 -0.0745 -0.1622 -0.2558
58229W        W59093   4.862   6.990  12.590  0.2153  0.0071 -0.1367
58230W        W59094   9.435   7.654  27.354 -0.1298  0.1080  0.2547
58231W        W59095  24.584   8.715  19.259 -0.1073  0.2413  0.1733
58232W        W59096   2.688  16.412  22.380  0.3535  0.0511  0.1790
58233W        W59097  13.054  12.594   1.975  0.1338  0.1409 -0.0724
58234W        W59098   1.883  12.096   2.691 -0.0629 -0.1859  0.0660
58235W        W59099   8.473   0.092   0.047  0.0728 -0.0445 -0.1101
58236W        W59100  10.988   5.987   1.432 -0.1392 -0.0217 -0.2842
58237W        W59101   2.633  27.510   2.071  0.1882 -0.3107  0.3037
58238W        W59102  28.781   5.496   3.969 -0.0924  0.4084  0.0888
58239W        W59103  14.154   1.501   6.491  0.0450 -0.1743  0.2492
58240W        W59104   8.246   1.594   2.020  0.1145 -0.2510 -0.3099
58241W        W59105  27.146  15.213  23.769 -0.0702 -0.1305  0.0804
58242W        W59106  24.493  11.740  22.785  0.0453  0.4470  0.2910
58243W        W59107   8.764  27.552  21.709 -0.0003 -0.2053 -0.1152
58244W        W59108   2.339   7.557  10.614 -0.5167 -0.0740  0.3458
58245W        W59109  23.875  15.621  14.751  0.2101 -0.0281 -0.1091
58246W        W59110   3.379   5.855  16.702  0.2837 -0.0658  0.2555
58247W        W59111   0.563  17.530  28.720 -0.1023  0.0668 -0.2033
58248W        W59112  15.286   9.773   1.108  0.2421  0.0931 -0.1367
58249W        W59113  21.975  16.895  16.494  0.2080  0.2243  0.3190
58250W        W59114  10.370   4.159  11.664 -0.0449  0.1395  0.0325
58251W        W59115   5.456  18.395  18.500 -0.1088 -0.0775 -0.1046
58252W        W59116  12.056  25.633  10.079 -0.0056 -0.1829 -0.0395
58253W        W59117  15.983   8.710  17.530  0.0758  0.1089  0.1574
58254W        W59118  26.500  11.932  13.305 -0.2143 -0.2021 -0.0931
58255W        W59119   0.388   0.405  13.221 -0.0102  0.0600 -0.1660
58256W        W59120   3.914   8.949  28.649  0.0538  0.0328 -0.1029
58257W        W59121  14.635   4.441   2.574  0.0220  0.0525  0.1711
58258W        W59122   7.722  19.738  27.623  0.0300 -0.1241  0.0043
58259W        W59123  25.704   1.215  10.328  0.0932 -0.2988  0.0471
58260W        W59124   9.754   9.118   0.104 -0.0325 -0.3256 -0.2995
58261W        W59125   6.411   2.371   3.742  0.2556 -0.0569 -0.0203
58262W        W59126   9.827  15.882  18.809 -0.2914 -0.0855  0.0605
58263W        W59127  13.733  28.478  14.444  0.1697 -0.2063  0.1410
58264W        W59128   5.531  19.191  17.992  0.0806 -0.1275 -0.0502
58265W        W59129  22.986   0.217  16.268 -0.1313  0.2551 -0.0961
58266W        W59130  13.292  16.995  12.402  0.0299  0.3808 -0.3274
58267W        W59131  14.523  27.098  12.869  0.5626  0.1809 -0.0012
58268W        W59132   6.833  18.064  21.029 -0.0589 -0.0453 -0.4111
58269W        W59133  23.845   0.487  10.547 -0.0443  0.1002 -0.0710
58270W        W59134   7.748   5.112  21.506 -0.2384  0.2041 -0.1397
58271W        W59135  19.359  12.753   4.595 -0.1328 -0.1386 -0.0920
58272W        W59136   4.100   9.026  27.295  0.0199 -0.0234  0.0095
58273W        W59137  16.730  16.578   1.842 -0.1495 -0.1796  0.0752
58274W        W59138  15.375  12.299  19.958 -0.1191  0.1967  0.1588
58275W        W59139   4.714  17.218   7.147 -0.3796  0.1294  0.0825
58276W        W59140  19.515  11.760  10.692 -0.2769 -0.0860 -0.0544
58277W        W59141  12.408  12.833   4.821 -0.0319 -0.1582  0.1293
58278W        W59142   8.311  26.927  25.834  0.0617  0.0736  0.3501
58279W        W59143   6.809  19.499  10.422 -0.1703  0.3324 -0.0436
58280W        W59144   0.595  13.735   6.035 -0.1197  0.0987  0.2011
58281W        W59145   1.362   1.130  24.638  0.3313 -0.2506  0.0949
58282W        W59146  22.584   9.662  26.292 -0.0263 -0.1802  0.1320
58283W        W59147  24.509   9.493   1.283 -0.1491  0.1694 -0.1954
58284W        W59148  16.579   7.453   2.895  0.2293  0.0658 -0.0226
58285W        W59149  28.167   6.887  20.787 -0.0640 -0.0291  0.1548
58286W        W59150   2.417  27.910  16.862 -0.2098 -0.0361 -0.1076
58287W        W59151   4.823  25.468  10.355  0.2888  0.1120 -0.3080
58288W        W59152  16.333   6.586  18.144 -0.0256  0.0318 -0.1009
58289W        W59153   0.823  10.504   6.510  0.1614 -0.0598  0.0019
58290W        W59154   7.586   1.165   2.187 -0.1081  0.2385  0.0699
58291W        W59155  24.490   1.492  28.825 -0.1992 -0.2748 -0.0011
58292W        W59156  11.125   5.671  25.286  0.1387  0.0985  0.2979
58293W        W59157  13.173  15.334   7.652 -0.0621 -0.2758 -0.0173
58294W        W59158  12.268  22.302   1.628  0.0214 -0.2000  0.1855
58295W        W59159   2.984  16.360   1.506  0.1062 -0.1385  0.1619
58296W        W59160   3.474  26.911  27.279 -0.0729 -0.0465 -0.2604
58297W        W59161  27.448   6.549  24.314  0.3650 -0.2510  0.1752
58298W        W59162   3.355  12.801   5.534  0.0203 -0.2259  0.0061
58299W        W59163  18.446  26.347   1.974  0.0896  0.0380  0.0361
58300W        W59164  23.801  19.941  20.653 -0.0525 -0.2060  0.1596
58301W        W59165  20.084  20.663  17.209  0.0793  0.1638  0.3172
58302W        W59166  27.948   4.103  16.117  0.3142  0.3246  0.1158
58303W        W59167  15.686   7.316   3.544  0.0472  0.2394 -0.0919
58304W        W59168   1.886  17.315  23.241  0.2717  0.2059 -0.0770
58305W        W59169  10.235  12.992  24.104  0.1747  0.0762  0.2796
58306W        W59170  14.715  15.924  20.265 -0.0777  0.0062 -0.3192
58307W        W59171  16.042  11.143   4.496 -0.1205 -0.2063  0.1434
58308W        W59172  13.438   9.480   4.684 -0.0194  0.0504  0.0399
58309W        W59173   1.883   3.985  11.168  0.0758 -0.1189 -0.1646
58310W        W59174  19.352  18.356   6.567  0.0784  0.0862 -0.1807
58311W        W59175  12.013   6.660  11.027 -0.0652  0.3930 -0.0274
58312W        W59176  26.505   0.332   2.272  0.3438 -0.3159  0.0869
58313W        W59177   3.352   9.596   5.342 -0.2020 -0.0772  0.0587
58314W        W59178   5.640   8.628  17.113  0.2888 -0.1074 -0.0308
58315W        W59179  14.818  19.219   4.918 -0.3023 -0.0064  0.1461
58316W        W59180   0.431  20.442   7.169 -0.2796  0.1331  0.1156
58317W        W59181  20.064   4.725   7.170  0.1066 -0.0488 -0.1167
58318W        W59182  15.850  27.051   1.891  0.2436  0.0903  0.0785
58319W        W59183  22.159   2.293  18.863 -0.0553  0.0268 -0.2874
58320W        W59184   1.343   2.669  21.824 -0.3688  0.5651 -0.0974
58321W        W59185  17.516   7.865   5.596  0.0656 -0.0753 -0.2434
58322W        W59186  14.526  23.907   4.361 -0.0918 -0.0745  0.0357
58323W        W59187   6.246  22.244   4.519  0.1574  0.0384 -0.3776
58324W        W59188  10.540  10.502   7.883  0.1548  0.0654  0.1316
58325W        W59189  10.873  19.556   7.045  0.0048  0.1155 -0.0366
58326W        W59190   1.378   5.010  12.528  0.0211 -0.1004  0.4016
58327W        W59191  22.641  21.310   6.131 -0.0609  0.2085 -0.1088
58328W        W59192   6.263  29.035  20.567  0.0633 -0.2018 -0.0395
58329W        W59193  12.325   8.342  26.954  0.1628  0.0508 -0.0086
58330W        W59194  12.576   6.465   0.046 -0.2628  0.1601  0.2540
58331W        W59195   0.580   5.337  10.655  0.2885 -0.0537  0.0691
58332W        W59196   7.461  18.826  27.548  0.1933 -0.5543  0.4658
58333W        W59197  27.262  22.692  12.286 -0.0883 -0.0805  0.0944
58334W        W59198   9.638  20.442  20.915  0.0529 -0.2350  0.2083
58335W        W59199   7.054  10.979  23.554  0.3430 -0.1060 -0.3728
58336W        W59200   3.784  13.237  11.691  0.1251 -0.1026 -0.3150
58337W        W59201  22.516   7.860   1.401 -0.1647  0.2243  0.0398
58338W        W59202  13.438  13.403  21.672 -0.1206 -0.1633  0.2947
58339W        W59203  25.505  22.790  11.749  0.1273 -0.0634 -0.1893
58340W        W59204   0.622  15.290  20.594  0.1000 -0.1095 -0.1488
58341W        W59205   0.172   8.939   2.286 -0.1387 -0.0976  0.0914
58342W        W59206  14.005   4.835  11.286 -0.1721  0.2136  0.0167
58343W        W59207  11.344  27.144  23.755  0.0320  0.0775  0.2954
58344W        W59208   9.960  19.984  22.204 -0.4842 -0.0358  0.0277
58345W        W59209  15.915   9.400  19.075 -0.0981  0.1732 -0.0603
58346W        W59210   4.278  27.140  23.078  0.0412  0.0646 -0.0112
58347W        W59211   1.685  11.065  15.538 -0.1457 -0.0266 -0.2017
58348W        W59212   1.367  11.510   2.073 -0.0641 -0.2504 -0.1921
58349W        W59213   5.733  11.568   0.993  0.0145  0.2382  0.2426
58350W        W59214  13.689  11.873   8.568 -0.3255 -0.2705  0.1450
58351W        W59215  15.254   8.290   9.954 -0.0507 -0.1164 -0.0987
58352W        W59216   4.735  20.860  25.639  0.2092 -0.0902 -0.1171
58353W        W59217  10.007  13.771   9.361 -0.3554  0.1134 -0.2312
58354W        W59218   6.042  11.246   5.897  0.0400 -0.5751 -0.2834
58355W        W59219  11.829  13.325   5.767 -0.2613  0.1197  0.0774
58356W        W59220   0.445  17.481  19.384 -0.1173 -0.1822 -0.2889
58357W        W59221   1.510  18.143  10.314  0.2302 -0.2473 -0.0678
58358W        W59222  12.350   3.442   7.174  0.1221 -0.0503  0.4024
58359W        W59223  12.652   5.327  12.028 -0.0524 -0.1920 -0.3661
58360W        W59224  20.304  24.695  24.002 -0.1250 -0.0903 -0.2677
58361W        W59225   3.930   5.373  22.115 -0.1643 -0.0594 -0.4414
58362W        W59226  17.556  22.018   8.864 -0.0529  0.0154  0.1667
58363W        W59227   4.532   4.777   1.421 -0.0036 -0.1311  0.1257
58364W        W59228  28.777  11.615   3.096  0.2975  0.0692 -0.4404
58365W        W59229  23.492   1.272   4.564 -0.1099  0.0557 -0.0033
58366W        W59230   1.285  22.458   1.200 -0.0277 -0.2782  0.2727
58367W        W59231  16.504  18.100   2.402  0.2148 -0.1766  0.1575
58368W        W59232  17.613   6.724   8.325  0.1288 -0.0850 -0.1889
58369W        W59233   4.965   9.337  13.994 -0.0458  0.0451 -0.0934
58370W        W59234  14.843   8.379  17.021 -0.1330  0.2547  0.0711
58371W        W59235  17.494   9.445  29.112 -0.3180  0.0629 -0.1367
58372W        W59236   0.219  13.121   5.030 -0.1136 -0.0723 -0.1658
58373W        W59237  22.028   3.128   0.898 -0.0326 -0.1394  0.0021
58374W        W59238   1.360  28.809   5.618  0.3376  0.2707  0.2934
58375W        W59239  23.438  14.014  27.910  0.1108  0.0215 -0.4076
58376W        W59240  23.171  19.799   2.146  0.0097 -0.3304  0.0522
58377W        W59241  12.690  18.974  28.613  0.0108 -0.0430  0.0814
58378W        W59242   5.846  22.964  25.279  0.1297 -0.3050 -0.1114
58379W        W59243   9.429  17.004  10.900  0.1271  0.2928  0.2481
58380W        W59244  13.053   3.112  20.608  0.1011 -0.1079 -0.0992
58381W        W59245  12.912  18.213   2.116 -0.0248 -0.0757 -0.1144
58382W        W59246   7.988  10.799   3.765 -0.0947 -0.3349 -0.0334
58383W        W59247   4.461  18.008  13.375  0.1233 -0.0252 -0.0303
58384W        W59248  15.783  27.927   8.543 -0.1515 -0.1810 -0.0374
58385W        W59249   5.186   5.659   3.361 -0.2676 -0.1864  0.1825
58386W        W59250  27.387  24.966   2.503  0.0582  0.0560 -0.0363
58387W        W59251  10.231  13.308   2.761  0.0850 -0.2114 -0.2945
58388W        W59252   3.406   0.674  15.298  0.0105  0.1216 -0.2674
58389W        W59253  21.485   9.420  23.916 -0.3560 -0.2345  0.0795
58390W        W59254   6.274  26.167  11.159 -0.0891  0.0265  0.0571
58391W        W59255  22.622  20.140  27.645  0.0503  0.0935 -0.0788
58392W        W59256   0.042  10.260   5.487 -0.1697  0.0884 -0.2333
58393W        W59257  10.996  18.061  26.566 -0.0021  0.3435 -0.2521
58394W        W59258  25.591   7.763   0.759  0.4484  0.0740 -0.2004
58395W        W59259   2.578   7.714   2.549  0.0875 -0.0354  0.0832
58396W        W59260  25.852   3.546  28.360 -0.0372 -0.1208 -0.2864
58397W        W59261   6.463  12.532  26.082  0.2427 -0.0292 -0.0737
58398W        W59262   6.164   7.150  25.821  0.2762  0.0750 -0.3229
58399W        W59263   6.799  13.396  13.005  0.0093 -0.0333 -0.0660
58400W        W59264  13.101   2.290   0.603  0.1145 -0.0182  0.0530
58401W        W59265  28.692  18.079   6.777 -0.0409  0.1421 -0.1132
58402W        W59266   4.825  10.839  24.380 -0.2838 -0.1830 -0.1819
58403W        W59267  19.611   4.922  11.058  0.0050 -0.0282  0.3630
58404W        W59268  14.762  24.931   6.309  0.2517  0.0535 -0.1631
58405W        W59269   6.106  19.303   8.810  0.2171 -0.4126 -0.0435
58406W        W59270   3.706  29.035   9.529  0.1594 -0.0626  0.3264
58407W        W59271  14.576  10.269  29.005  0.3587  0.1393  0.0624
58408W        W59272  11.661  22.269   7.188 -0.0539  0.0256 -0.1869
58409W        W59273   9.869  11.099  26.571 -0.1551  0.1062  0.0215
58410W        W59274  11.425   0.213   8.873  0.2740 -0.0798  0.1720
58411W        W59275  17.938  23.081  15.758  0.0862  0.0745  0.1697
58412W        W59276   6.831   3.950  19.337  0.1961  0.0939  0.0600
58413W        W59277   8.331   2.720  25.847 -0.1758 -0.0032 -0.1399
58414W        W59278  14.296  15.337  24.389 -0.3393 -0.0731  0.0304
58415W        W59279   7.564  27.738  23.048  0.1617 -0.2183  0.1950
58416W        W59280  13.696  27.566  23.082 -0.0182  0.2575  0.0083
58417W        W59281   6.450  26.224  26.779 -0.2532 -0.0108  0.2232
58418W        W59282  14.788   8.574   6.003  0.2691  0.0271 -0.0277
58419W        W59283  12.467  10.966  10.877 -0.2734  0.0872  0.0866
58420W        W59284  26.048  17.838  19.719  0.0742  0.3353 -0.2458
58421W        W59285   0.040  13.678   2.185 -0.1761  0.1459  0.2717
58422W        W59286  11.425   4.800   2.435 -0.0644  0.4021  0.2230
58423W        W59287  27.763   1.885   9.307  0.2441 -0.3571 -0.1895
58424W        W59288  11.384   1.028  11.746 -0.0077 -0.0422  0.2633
58425W        W59289  12.187   7.767   0.431 -0.4084 -0.0603 -0.0616
58426W        W59290  25.805  10.629   8.315  0.1966  0.0746  0.3133
58427W        W59291  24.824  22.488  21.744 -0.0880 -0.0937 -0.0467
58428W        W59292  12.666  26.795  11.363  0.2897  0.0575  0.3651
58429W        W59293  26.854   6.979  20.564 -0.2117 -0.0636  0.1262
58430W        W59294   7.197   0.316  27.733 -0.2921 -0.0410 -0.0721
58431W        W59295  23.196  13.509   6.033 -0.0205 -0.1766  0.2153
58432W        W59296  27.074  21.704  27.832  0.0628 -0.2464 -0.1085
58433W        W59297  24.994   1.309  24.342  0.4211 -0.0757 -0.1133
58434W        W59298   5.406  26.239  28.929 -0.2017 -0.3326  0.1065
58435W        W59299  20.238   9.598  16.709  0.0722  0.1279 -0.1817
58436W        W59300   4.263  21.210  19.295  0.1467  0.1278  0.0921
58437W        W59301  12.018   5.117   1.005  0.0190 -0.3646  0.1968
58438W        W59302  29.067  14.080  21.620 -0.0116 -0.1992  0.0369
58439W        W59303   6.194   0.207   9.213  0.3649 -0.2695 -0.0679
58440W        W59304   5.761   1.987  16.016 -0.1430  0.2590  0.1341
58441W        W59305  17.790  27.742  15.172  0.1501 -0.2938 -0.2497
58442W        W59306   2.484  12.059  25.645  0.1334 -0.1059  0.0719
58443W        W59307  14.898  16.659  13.044 -0.1706 -0.3033 -0.1255
58444W        W59308  28.942  27.988   2.372 -0.1162  0.0374 -0.1766
58445W        W59309  17.777   1.765  18.694 -0.0852 -0.1625  0.2854
58446W        W59310  12.628  24.213  27.115  0.4205  0.2643  0.2793
58447W        W59311  28.176   5.720  19.607 -0.0398  0.1598  0.1687
58448W        W59312   2.090  10.572  10.852 -0.1251 -0.2470  0.0312
58449W        W59313  16.234  19.995   9.294 -0.0113  0.1166  0.2541
58450W        W59314  14.512  15.007   1.473 -0.0528 -0.1393  0.0929
58451W        W59315  14.493  28.663  18.282  0.1118 -0.1753 -0.0115
58452W        W59316  20.430  12.936  13.886  0.4341  0.1496  0.1299
58453W        W59317   5.517  26.894   0.555 -0.0068  0.3392 -0.1968
58454W        W59318  13.311  28.219  15.668 -0.0095  0.1204 -0.2710
58455W        W59319  18.877  21.449  17.035 -0.1644 -0.0321  0.0546
58456W        W59320  28.789  28.126  18.772  0.1454 -0.0244 -0.1413
58457W        W59321  15.497  17.128   2.364  0.2380  0.0137 -0.0743
58458W        W59322  27.973  27.797  21.248  0.1547 -0.0433 -0.0775
58459W        W59323   5.733  14.886   2.844  0.1767 -0.2080  0.3171
58460W        W59324   8.567  11.344   2.619  0.0634 -0.4603 -0.2729
58461W        W59325   1.706  29.052  21.124  0.0202  0.2757 -0.0009
58462W        W59326  25.689  25.895   1.631  0.0460 -0.0774 -0.2406
58463W        W59327  10.618   7.234  19.082  0.0239 -0.4684 -0.3451
58464W        W59328  15.489  15.818   1.961 -0.0913  0.2255 -0.2921
58465W        W59329   7.693  12.774  17.341  0.0141 -0.0143 -0.0053
58466W        W59330   5.556   2.471   0.905  0.0447 -0.2580 -0.2872
58467W        W59331  17.111  22.008  18.572 -0.0111 -0.1349 -0.2124
58468W        W59332   5.826  29.086  16.386 -0.4396 -0.0629 -0.2109
58469W        W59333   3.946  21.015   0.009  0.1976  0.0373 -0.0825
58470W        W59334  25.004  26.342   4.507 -0.2630  0.0233 -0.0041
58471W        W59335  28.976   8.925   5.576 -0.1303  0.2824  0.1441
58472W        W59336  17.986  17.608   6.998  0.1137  0.2552 -0.2045
58473W        W59337  21.238  23.758   6.685  0.5418  0.4606  0.0764
58474W        W59338  27.785   7.900  19.380  0.0762  0.0625  0.0250
58475W        W59339  14.017  12.893   0.807 -0.0953  0.1543 -0.2804
58476W        W59340   4.125  21.582  16.726  0.1278  0.1747 -0.1418
58477W        W59341  23.741   0.921  10.325  0.0332  0.0171 -0.1864
58478W        W59342  25.967   4.509  26.217  0.1596  0.2128 -0.0793
58479W        W59343   7.643  13.056  19.930  0.1371  0.2779  0.2174
58480W        W59344  22.246  15.024  16.147  0.0690 -0.1127 -0.0296
58481W        W59345  26.201  18.987   9.052 -0.1379 -0.1861 -0.1668
58482W        W59346  21.173  10.649  21.167 -0.2586 -0.1254  0.0433
58483W        W59347  13.561   2.243  15.889  0.1555 -0.4704 -0.1471
58484W        W59348  28.503  19.837   0.498 -0.1276  0.1463  0.1505
58485W        W59349  10.683   8.553  19.408 -0.2364 -0.1850 -0.0902
58486W        W59350   6.799  11.981  13.313 -0.1125 -0.1358  0.1867
58487W        W59351   6.083  12.386   3.454  0.0972  0.1497 -0.0423
58488W        W59352   7.732   3.037  14.212  0.1332 -0.0622  0.0393
58489W        W59353  13.612   3.573  20.651  0.0647  0.0451 -0.1451
58490W        W59354  27.785  13.084  13.693 -0.0597  0.1611 -0.3461
58491W        W59355  20.452   2.786   7.498 -0.2386  0.0149  0.0282
58492W        W59356  15.635   9.500  28.712 -0.5136  0.1510  0.0217
58493W        W59357  18.656  24.744   8.133  0.0367  0.0218  0.3477
58494W        W59358  10.809   1.063   1.248 -0.1497 -0.2180  0.0152
58495W        W59359  15.110  10.526  24.159  0.0021 -0.0205  0.0309
58496W        W59360   8.157  14.019  22.474 -0.3568  0.1177 -0.1589
58497W        W59361   2.342   1.538   1.037  0.1014  0.4350 -0.0329
58498W        W59362  28.136   7.180  25.210  0.1378  0.0733 -0.1600
58499W        W59363  19.971  24.323   2.891 -0.2526  0.3025 -0.0743
58500W        W59364   8.869   1.561   6.699  0.4763 -0.0506 -0.2354
58501W        W59365   3.612  18.367  13.304 -0.0725  0.1459  0.2348
58502W        W59366  12.078   5.112   3.874 -0.0583  0.0086 -0.2711
58503W        W59367  14.059   0.799   4.767  0.3558 -0.0719 -0.2578
58504W        W59368  27.875   4.157  28.283 -0.0594  0.4341  0.3240
58505W        W59369  10.067  10.098  12.175 -0.3431  0.5042 -0.1858
58506W        W59370   3.496   2.688  28.816 -0.0172  0.1884 -0.1642
58507W        W59371   7.595  10.163  22.686  0.0316  0.2864  0.1391
58508W        W59372   6.013  15.913  26.042  0.2048 -0.1682  0.0535
58509W        W59373  28.200  13.933  22.703 -0.2669  0.0169 -0.0942
58510W        W59374  21.110   2.587  17.882  0.0229 -0.1458  0.0618
58511W        W59375  19.545   6.102  11.569  0.3363  0.1236  0.0916
58512W        W59376  15.804  11.600   2.802 -0.0953 -0.2835 -0.2257
58513W        W59377  17.465   8.425  26.316 -0.1884  0.2787  0.0184
58514W        W59378   8.093  12.518  26.957  0.1330 -0.0081 -0.0238
58515W        W59379   4.607   4.934  28.313 -0.0027  0.1955  0.1012
58516W        W59380  22.009  13.301  22.274  0.2017  0.0045 -0.1106
58517W        W59381   7.974  21.422   0.328  0.1161  0.1253 -0.0635
58518W        W59382  20.040  10.235   4.704  0.3221 -0.2536  0.1188
58519W        W59383   0.766   3.396  24.273  0.0862 -0.2212  0.1611
58520W        W59384  10.055   1.582  15.782  0.2834 -0.2069  0.1820
58521W        W59385   2.210  19.073  23.478  0.2118 -0.1265  0.3235
58522W        W59386   9.398   5.179   1.460  0.2100 -0.3512  0.1974
58523W        W59387   7.683  10.046  20.021 -0.0167  0.0491  0.2455
58524W        W59388  16.925   2.804   6.956  0.1163 -0.0215  0.2059
58525W        W59389  17.402  18.999  19.590 -0.1013  0.0926  0.0415
58526W        W59390  11.929  24.617   1.902 -0.1042  0.0270  0.0105
58527W        W59391   5.767   0.052   8.996 -0.1352  0.2522 -0.1159
58528W        W59392  21.903   3.458  10.698 -0.1019 -0.1390  0.0790
58529W        W59393  12.586  21.716  12.016  0.4510  0.0385  0.0004
58530W        W59394  28.414  11.563   9.619  0.0089 -0.3208  0.3112
58531W        W59395  10.527  25.173  24.133  0.1486 -0.0456 -0.1647
58532W        W59396  16.820  24.992  11.178 -0.2044 -0.1754 -0.1651
58533W        W59397  22.472   4.650   2.260  0.1572 -0.1792 -0.3411
58534W        W59398  23.503  21.251  26.676  0.3346 -0.0442 -0.0228
58535W        W59399   2.667  11.117  14.654 -0.0420 -0.3041  0.1516
58536W        W59400  19.699   5.240  26.993 -0.3184 -0.1215 -0.3528
58537W        W59401  21.551   6.733   4.249 -0.1877  0.1066  0.4043
58538W        W59402  20.438  23.812   2.375  0.0605  0.0163  0.0521
58539W        W59403  27.354   6.970  25.771 -0.1758  0.3439  0.1854
58540W        W59404  20.934  16.573   8.915  0.0771 -0.0264 -0.3567
58541W        W59405   4.725  25.927  25.111  0.0975 -0.1327  0.3292
58542W        W59406   7.883  16.365   1.051 -0.0594  0.3263  0.0565
58543W        W59407   2.694  13.398  25.144 -0.2220  0.0217 -0.0877
58544W        W59408  13.376   5.710  15.085 -0.0792  0.0354  0.0247
58545W        W59409   6.339  16.981  26.833  0.2447 -0.1668 -0.0364
58546W        W59410   8.432  12.764  19.279  0.1283  0.2059  0.1773
58547W        W59411   7.143  11.960  24.371  0.1019 -0.0841  0.1606
58548W        W59412  12.281  15.334   4.497 -0.0086  0.1818 -0.0259
58549W        W59413  12.907  27.373  27.803  0.0346  0.0376 -0.0738
58550W        W59414  27.994  13.702   1.614 -0.1072  0.0646 -0.1461
58551W        W59415  20.311  13.107   2.687  0.2138 -0.0783  0.0958
58552W        W59416   3.623   9.430   4.265  0.2931 -0.4530  0.0682
58553W        W59417  11.316   0.139  10.633  0.0208  0.1771 -0.0312
58554W        W59418   9.806   7.898  27.146  0.1376  0.2538  0.0035
58555W        W59419  15.864   9.039   0.905  0.0686  0.0201  0.0098
58556W        W59420  10.418  17.989  15.867  0.1701  0.0767 -0.0489
58557W        W59421  12.897   5.688  12.428  0.2185  0.0551  0.3883
58558W        W59422  19.335  20.628  25.416  0.0157  0.1168  0.2674
58559W        W59423  18.654   5.948   8.050  0.1154 -0.0535 -0.4974
58560W        W59424  15.836   1.792  15.813  0.0178  0.1789 -0.0038
58561W        W59425  20.316  23.218  27.345 -0.1636  0.0106  0.1679
58562W        W59426  20.352  18.099  17.329 -0.0896 -0.2258  0.2018
58563W        W59427   2.304  17.268   0.485  0.2590 -0.0015  0.2482
58564W        W59428   8.103   4.679  25.594  0.3086  0.0236 -0.2437
58565W        W59429  25.747  17.191  14.129 -0.0100  0.1166 -0.1196
58566W        W59430  18.791  23.830   4.034 -0.0678 -0.1258  0.1714
58567W        W59431  24.052  23.304   0.961 -0.0038 -0.1819  0.0524
58568W        W59432   4.821  12.486   6.483 -0.4413  0.0673 -0.1792
58569W        W59433   9.278   6.284  22.348  0.1458  0.3236  0.1403
58570W        W59434  28.957  22.358  19.620 -0.2205 -0.1310  0.1416
58571W        W59435  14.313   4.791  16.320 -0.1492 -0.0580 -0.0252
58572W        W59436  20.065  15.553  26.064 -0.1267  0.0263 -0.1283
58573W        W59437  24.635  15.794   7.402  0.2215 -0.0862 -0.1255
58574W        W59438  21.229  15.737  27.029  0.0091  0.1044  0.3222
58575W        W59439  10.889  27.867   9.103 -0.2762 -0.0554  0.0815
58576W        W59440   6.705   9.963   3.057  0.1838  0.1755 -0.2926
58577W        W59441  23.645   4.195  15.568  0.0735 -0.1213  0.2694
58578W        W59442  13.136   6.385  14.672  0.4282 -0.0545  0.0979
58579W        W59443   8.774  11.733   3.678  0.1986  0.5684  0.1435
58580W        W59444  24.051   9.153   6.967  0.0413 -0.1494  0.3294
58581W        W59445   8.041  24.475   7.246 -0.0314 -0.2587 -0.3816
58582W        W59446  27.174  21.781   8.793 -0.2319 -0.1221  0.1310
58583W        W59447   9.746  12.398   7.998 -0.0098  0.0205 -0.2665
58584W        W59448  12.181  10.278  10.258  0.0613 -0.4054  0.2326
58585W        W59449   0.995  28.130  25.611 -0.2028  0.0147  0.3776
58586W        W59450   2.529  11.525  17.017 -0.1444 -0.0404  0.5065
58587W        W59451  11.080   9.365  26.094 -0.4147 -0.1040  0.0516
58588W        W59452  21.349   5.253  15.806 -0.1440 -0.1019  0.3219
58589W        W59453   6.991  17.712  10.963  0.1049 -0.1109 -0.3525
58590W        W59454  26.956   9.423   2.982 -0.0872  0.0356  0.0280
58591W        W59455  15.674   5.434  19.700 -0.1235  0.1076 -0.0318
58592W        W59456  23.930   3.350  11.927 -0.1395  0.1145 -0.1028
58593W        W59457  10.645   6.053  12.528  0.2925 -0.0136  0.1045
58594W        W59458   5.889   6.537   2.726  0.0606  0.1481  0.3603
58595W        W59459   1.749  16.900  22.939  0.0372  0.1132  0.1336
58596W        W59460  10.475   6.205   6.694 -0.0006 -0.1548 -0.1480
58597W        W59461  12.466  18.832   7.286  0.0671 -0.1394 -0.0275
58598W        W59462  24.231  21.607   4.792 -0.0275  0.2469 -0.0726
58599W        W59463  21.368  13.196   8.827  0.1348  0.1831 -0.1459
58600W        W59464   0.080  14.383  10.006 -0.1133 -0.0390  0.2539
58601W        W59465  15.240  15.220  25.596  0.2031 -0.1218 -0.0115
58602W        W59466  15.351  19.449  15.869  0.1202 -0.2427 -0.0041
58603W        W59467  27.699  15.709  11.759  0.0488  0.3266  0.0419
58604W        W59468  16.088   7.717  28.607  0.1550 -0.0094  0.1248
58605W        W59469  25.776  15.459  11.363  0.0373 -0.2229  0.1363
58606W        W59470  28.122  29.063  20.165  0.3152 -0.0223 -0.1200
58607W        W59471  10.709   0.673  17.688  0.1906  0.2466  0.0379
58608W        W59472  15.075  14.730   5.169  0.1154 -0.0544 -0.0178
58609W        W59473   5.480   1.076  23.492 -0.0622 -0.0248 -0.3303
58610W        W59474   8.905   7.149   1.341  0.2743  0.0879 -0.0887
58611W        W59475   0.873   5.615  28.124  0.0492  0.2376  0.0176
58612W        W59476   5.188  13.334   6.542 -0.3515 -0.2884 -0.2509
58613W        W59477   7.707   5.246  11.588 -0.0552  0.1930 -0.0254
58614W        W59478  15.408  18.830   1.872  0.1146 -0.1918 -0.1296
58615W        W59479   5.340   9.408   5.202  0.1154  0.0286  0.1015
58616W        W59480  28.405  15.909  26.648 -0.0443  0.0293 -0.2203
58617W        W59481  15.736   2.591  11.821  0.0620  0.1791 -0.3004
58618W        W59482  26.410  12.388   8.296 -0.0607 -0.2537  0.0625
58619W        W59483  10.310   9.093  20.775  0.0923 -0.2162  0.2910
58620W        W59484   1.086   1.735  21.883 -0.5103  0.3726  0.0345
58621W        W59485  20.591   9.975  16.788  0.0069  0.0078  0.1201
58622W        W59486  16.262   9.327   9.308  0.1782  0.3165 -0.0317
58623W        W59487  27.789  21.844  17.154  0.0033  0.0854  0.3785
58624W        W59488   5.381   9.127  10.895 -0.1844  0.0629  0.3437
58625W        W59489  23.058  21.702  14.118 -0.1580  0.0816 -0.3782
58626W        W59490  14.573  12.840  10.087  0.0807 -0.0599 -0.0199
58627W        W59491   2.248   0.652   4.471  0.1200 -0.0452  0.2534
58628W        W59492  19.743   3.942  11.009  0.0200  0.1191 -0.3640
58629W        W59493   6.997  19.017   7.342 -0.0388 -0.0756  0.0413
58630W        W59494   9.314   5.640   3.704  0.1856 -0.1297  0.2561
58631W        W59495   9.136  13.773   9.904 -0.0739  0.1450  0.0480
58632W        W59496  28.449  23.761   5.933  0.0067  0.1966  0.1167
58633W        W59497   9.099  27.945   6.079 -0.0100 -0.6042 -0.0091
58634W        W59498  12.491  26.373   8.765 -0.1561 -0.0229 -0.1990
58635W        W59499  24.650   8.521  28.203  0.2033 -0.1001  0.2057
58636W        W59500  12.262  21.405  10.241 -0.0220 -0.0832 -0.2914
58637W        W59501  26.890  28.450   4.205 -0.0042  0.0313  0.1245
58638W        W59502   0.557   3.911  11.993  0.0510  0.2058 -0.0620
58639W        W59503  10.258   2.213  10.753  0.2663  0.0461 -0.0573
58640W        W59504   3.748  14.453  16.798 -0.1073 -0.2095 -0.0866
58641W        W59505   0.847  19.456  26.856 -0.0368 -0.0540  0.3292
58642W        W59506  10.698   0.112  28.587 -0.0510  0.4244 -0.0372
58643W        W59507   8.572  10.486   8.293 -0.2800 -0.0227 -0.1920
58644W        W59508   5.750   0.404   3.989  0.0932 -0.0083 -0.2558
58645W        W59509   7.010  22.793  18.956  0.2196  0.1772 -0.0517
58646W        W59510  13.623   7.550   3.824  0.0804 -0.2502  0.2032
58647W        W59511  23.501  17.957   9.065  0.3085  0.0882  0.2576
58648W        W59512   5.609  12.085   2.519 -0.0514  0.3168  0.1772
58649W        W59513  24.682  14.932  19.681 -0.0422 -0.0485 -0.2022
58650W        W59514  18.678  15.294  24.348  0.0218  0.1267 -0.1347
58651W        W59515   6.782  17.428   0.885 -0.1128 -0.1548  0.2333
58652W        W59516   1.358  10.773  14.286 -0.0952 -0.0733 -0.0532
58653W        W59517  18.202  21.601  26.281 -0.0129  0.0778 -0.1733
58654W        W59518  21.320  11.461  19.783  0.2046  0.0785  0.1738
58655W        W59519   3.433  21.591  16.026  0.0191 -0.0142  0.1222
58656W        W59520   6.104   6.712  21.138 -0.0941  0.0004  0.2985
58657W        W59521  17.509   9.556  28.008 -0.1134 -0.2288  0.1277
58658W        W59522  13.347   4.330  10.249 -0.0802  0.3160  0.0497
58659W        W59523   8.939  13.792  11.337  0.2319  0.1122 -0.3170
58660W        W59524   0.839  19.827  23.025  0.1229 -0.3108  0.2905
58661W        W59525  16.297  16.988  15.395  0.1128  0.2232  0.0332
58662W        W59526   6.437  18.779  11.690 -0.0197 -0.0482  0.0734
58663W        W59527  14.036   4.224   3.383 -0.0269 -0.3257 -0.0354
58664W        W59528  13.378  24.402  10.513 -0.0677 -0.0239 -0.1847
58665W        W59529  17.210   6.755  11.331 -0.0107  0.0118 -0.0925
58666W        W59530  23.213  26.086  20.016  0.2635 -0.0415 -0.1024
58667W        W59531  15.749  15.512   7.455 -0.1532 -0.1744 -0.4530
58668W        W59532  19.721  23.119  24.214  0.2044 -0.0050  0.0253
58669W        W59533  10.561   0.177   6.924  0.1446 -0.0577  0.1675
58670W        W59534   7.606  15.816  29.071  0.3105 -0.2889  0.0830
58671W        W59535  20.325  11.246  21.580  0.0501  0.0466 -0.1369
58672W        W59536  13.302   5.119  10.286 -0.2512  0.1606 -0.2397
58673W        W59537   9.943  21.768  18.865 -0.2643 -0.0764 -0.1022
58674W        W59538  23.070   5.436   2.240  0.0741 -0.1036 -0.2928
58675W        W59539  15.604  25.739   0.566 -0.1243  0.2088 -0.3570
58676W        W59540  20.215  12.763  18.916 -0.0711  0.3116 -0.2771
58677W        W59541   5.382  26.785  13.589 -0.1828  0.0535  0.1669
58678W        W59542  27.178  25.677  13.951  0.0988 -0.0229  0.3622
58679W        W59543   8.253  18.169   9.113  0.0572 -0.2657 -0.0291
58680W        W59544  17.099  20.948  15.396  0.2552 -0.3121 -0.0003
58681W        W59545  27.807   1.901  19.944  0.0617 -0.0591  0.0182
58682W        W59546  13.374  28.525  27.994  0.1608 -0.0135 -0.1642
58683W        W59547   4.606  20.256   1.628 -0.1335  0.2507  0.3215
58684W        W59548  15.582  25.478  10.532  0.0858  0.1198 -0.2392
58685W        W59549  27.638   6.058  11.423 -0.1771 -0.3414 -0.2388
58686W        W59550  17.102   4.922   5.326  0.0531  0.0958  0.0774
58687W        W59551   8.010  11.386   2.807  0.0339  0.0771 -0.1419
58688W        W59552  14.149  11.128  23.169 -0.3323 -0.0808 -0.2809
58689W        W59553   7.497  23.256  28.931  0.1136 -0.0106 -0.0456
58690W        W59554  21.569  27.296  18.363  0.2927 -0.3429 -0.0335
58691W        W59555   6.927   0.667  22.091  0.1831  0.1141  0.4043
58692W        W59556  10.655   4.576   5.834 -0.0646  0.0509 -0.0808
58693W        W59557   5.089   4.111  14.754  0.2178 -0.1108  0.1752
58694W        W59558  22.570   3.896   1.230 -0.0205 -0.1412 -0.1253
58695W        W59559   8.639  23.247   2.423  0.0718  0.3393  0.2755
58696W        W59560  10.734  14.464   9.426 -0.3656 -0.0649  0.2881
58697W        W59561  27.572  17.928   5.451  0.1797  0.1902 -0.1627
58698W        W59562  25.169  25.245   2.254 -0.3935 -0.0675  0.0703
58699W        W59563  25.121  22.476   2.881 -0.2201  0.0743  0.1142
58700W        W59564  23.261  12.420  22.846 -0.1001  0.0725  0.2607
58701W        W59565  27.649  12.596  13.495  0.0975 -0.1268 -0.0229
58702W        W59566  20.940  10.051   7.358 -0.0255  0.0006 -0.1107
58703W        W59567  28.143   9.341  24.423 -0.3912  0.0431  0.1876
58704W        W59568   3.017  16.731   6.244 -0.0897  0.0775 -0.0639
58705W        W59569  10.283   8.902   8.368  0.2565  0.0185  0.3391
58706W        W59570  12.963   8.746  18.338 -0.1682 -0.4191  0.0019
58707W        W59571  10.788  16.978  21.495 -0.2877  0.3000 -0.0763
58708W        W59572   7.122  20.219  16.067  0.0559 -0.1429  0.0894
58709W        W59573   0.484  18.023  12.400 -0.0999  0.0013  0.0654
58710W        W59574  18.630   8.605  14.202 -0.1963  0.1855  0.1407
58711W        W59575   6.057  17.294   7.008  0.2572  0.2576  0.1096
58712W        W59576  15.131   6.709   8.776 -0.0382 -0.0347 -0.0209
58713W        W59577  20.593  10.740   7.524  0.1620  0.3449 -0.1809
58714W        W59578  25.997   5.214   9.171 -0.1729 -0.0277  0.0914
58715W        W59579   8.153   6.645   5.517 -0.3413 -0.0584  0.2715
58716W        W59580  14.707  12.122   1.429 -0.3091  0.1027  0.0103
58717W        W59581  25.046  21.964   5.335  0.0855  0.0282 -0.0784
58718W        W59582  27.434   5.551  17.087 -0.0261 -0.1946  0.1376
58719W        W59583   1.532   3.689   2.202  0.1420  0.0891 -0.0610
58720W        W59584  17.519  22.709   1.853  0.0821 -0.2607 -0.0720
58721W        W59585  27.461  15.188  19.854  0.0236  0.0908  0.0172
58722W        W59586   8.866  27.876  27.635  0.1652  0.0295  0.1369
58723W        W59587  17.789   5.405   8.990  0.1046 -0.1525 -0.4718
58724W        W59588   7.335   0.175   4.219 -0.0611 -0.3245 -0.3356
58725W        W59589  19.158   9.676  27.877 -0.1404 -0.1205  0.2927
58726W        W59590   1.830  15.280   7.702 -0.1968 -0.0364 -0.1049
58727W        W59591  24.464  26.676  26.524  0.2624  0.1638 -0.0936
58728W        W59592  12.763  24.049   2.982 -0.0920  0.0569 -0.0067
58729W        W59593  27.236  21.065   2.753  0.1597  0.0418  0.2224
58730W        W59594  27.096  11.123  24.960  0.2362 -0.1898  0.0789
58731W        W59595  20.228  26.709   7.810 -0.0218 -0.3501  0.0262
58732W        W59596  12.845  25.437  10.271  0.0069  0.2507  0.2919
58733W        W59597  10.412  22.969  12.999  0.1510 -0.0272 -0.3184
58734W        W59598   5.697   2.960   5.673 -0.1665 -0.0006  0.0382
58735W        W59599   5.804  10.659  16.015  0.4556 -0.0144 -0.0393
58736W        W59600   0.862   5.420  16.172 -0.0502  0.0146 -0.1545
58737W        W59601   7.238   9.722   8.205  0.3275 -0.2872 -0.1490
58738W        W59602  23.933  22.618   9.481  0.0784  0.0129  0.1781
58739W        W59603  13.048   9.562  26.539  0.2040 -0.0703  0.1535
58740W        W59604   1.184  18.429  19.487  0.1645  0.1745  0.1896
58741W        W59605   1.736   7.856   6.266 -0.2573 -0.0533 -0.3481
58742W        W59606  11.691  10.764   9.498  0.0185  0.0133 -0.0957
58743W        W59607  16.337   7.260  21.857 -0.0212  0.3845 -0.2060
58744W        W59608  11.742   6.358  22.404  0.2714  0.0145  0.1889
58745W        W59609  15.851  12.736   9.149  0.2197  0.0883  0.0993
58746W        W59610   2.070   4.732   9.075  0.0331  0.0926 -0.0349
58747W        W59611   6.179  11.676   7.814  0.0291  0.3414  0.1221
58748W        W59612  19.511   3.796  14.840  0.1737  0.2851 -0.1476
58749W        W59613  28.473  25.103   5.846 -0.1592  0.5949 -0.2180
58750W        W59614  25.903  14.057  18.532 -0.0895 -0.0475  0.0732
58751W        W59615  10.650  26.968  25.494  0.0289  0.2262 -0.0441
58752W        W59616  23.839  22.597   0.045  0.0821 -0.2524 -0.2355
58753W        W59617  27.701   1.317  22.087  0.5155 -0.0047  0.1704
58754W        W59618  10.056  17.869  28.756  0.0525  0.0022 -0.2817
58755W        W59619  23.162   5.330  23.366  0.0916  0.1314  0.1138
58756W        W59620  21.330  12.251   9.271  0.2182  0.1441 -0.0417
58757W        W59621  10.740  20.900   9.389 -0.0071  0.2500 -0.1042
58758W        W59622  11.469   0.609  11.352 -0.0231  0.0381  0.1084
58759W        W59623   6.538  17.519   0.404 -0.1503 -0.0841 -0.1361
58760W        W59624   8.756   8.947   6.058 -0.0874 -0.3678 -0.2040
58761W        W59625  11.120  15.431   0.036 -0.1564 -0.3061 -0.1498
58762W        W59626   3.886  17.619  11.171 -0.0956 -0.2394 -0.0351
58763W        W59627  18.417  22.234  11.733 -0.1461  0.0849 -0.0430
58764W        W59628   0.861  17.065  11.504  0.2046  0.2197 -0.2794
58765W        W59629   4.528  27.949   5.852  0.0290  0.0823 -0.1900
58766W        W59630  22.982  28.087  27.848 -0.1050 -0.0319 -0.1758
58767W        W59631  18.025  15.640   4.154 -0.1426 -0.1329  0.0578
58768W        W59632  14.158  11.573  20.425 -0.0801  0.1757  0.1407
58769W        W59633   2.598   7.314  16.437  0.3536 -0.0709  0.2889
58770W        W59634   5.227   9.436  11.223  0.1425 -0.1028  0.1394
58771W        W59635   3.993  10.812  25.770  0.2823  0.1167  0.1765
58772W        W59636  14.640   4.170   2.133  0.0161 -0.0457  0.3464
58773W        W59637   1.927  26.917  24.854  0.3074 -0.0638  0.1993
58774W        W59638   1.107  18.429  10.006 -0.3049 -0.0806 -0.1527
58775W        W59639   2.068  22.778  21.052  0.1527  0.2176  0.0983
58776W        W59640  17.553   3.236   4.546  0.2993  0.0318 -0.0234
58777W        W59641  24.279  24.978   5.767 -0.1874 -0.0533 -0.0010
58778W        W59642  21.688  24.214  28.835 -0.0471  0.1951  0.3800
58779W        W59643   5.000  17.015  26.465  0.1462 -0.4613 -0.1699
58780W        W59644  28.880  17.718  19.357  0.2457 -0.0090  0.3395
58781W        W59645  17.217   8.593   1.625 -0.0386  0.1797 -0.1410
58782W        W59646  15.471  13.341   2.475 -0.4812 -0.1486  0.1400
58783W        W59647   7.956   8.630  14.276 -0.2984  0.1936  0.2613
58784W        W59648  10.617   3.907  28.959  0.0021  0.1926 -0.1663
58785W        W59649  20.736  16.908   0.712 -0.0234 -0.0302  0.2546
58786W        W59650   8.542   4.706  26.405 -0.0400 -0.0971 -0.1769
58787W        W59651   9.695  24.667  11.145 -0.1574  0.3944 -0.0283
58788W        W59652  13.214  13.283  14.660  0.1152  0.3579 -0.1436
58789W        W59653  25.376   7.989   3.756 -0.3805 -0.2637  0.1852
58790W        W59654  15.618  25.570  13.434 -0.1772  0.0238  0.1111
58791W        W59655   8.920   2.649   8.126  0.1269  0.1537  0.1570
58792W        W59656  26.075   2.505  17.480  0.2430 -0.1496 -0.0157
58793W        W59657  21.666   8.245  14.847 -0.0022  0.0142  0.3596
58794W        W59658  16.665  18.091  28.867  0.2369 -0.1334  0.1847
58795W        W59659  24.375  22.065  14.554 -0.0557  0.2064  0.0686
58796W        W59660  15.154  18.896  24.018 -0.1882 -0.1294  0.1087
58797W        W59661  12.729  25.205  27.364 -0.0561  0.0172 -0.0600
58798W        W59662  15.658  12.439   6.283  0.1322 -0.0758 -0.0299
58799W        W59663  17.746   6.998  14.601  0.3123  0.1968  0.0853
58800W        W59664   2.127   6.473   9.572 -0.1841 -0.0395 -0.2367
58801W        W59665  17.324   9.916   1.836  0.2437  0.1084 -0.2234
58802W        W59666  18.021  16.499  16.598 -0.0668  0.0096  0.0799
58803W        W59667  10.218  19.426  23.018  0.1325  0.1290  0.0972
58804W        W59668   2.965  12.460  16.426 -0.1884  0.1387  0.0383
58805W        W59669  18.499  17.110  19.862 -0.2639 -0.1138  0.0518
58806W        W59670  14.714   9.679   9.194  0.1285  0.0567  0.1746
58807W        W59671  27.471  23.641   7.787 -0.2034 -0.0757  0.0280
58808W        W59672  11.779  21.388  19.947  0.1122 -0.1498 -0.0908
58809W        W59673  18.712  26.771  28.243 -0.0150 -0.1179 -0.1254
58810W        W59674  18.224   1.370   1.496  0.0143  0.0570  0.1089
58811W        W59675  20.432  26.927   6.533 -0.0352 -0.0435 -0.2294
58812W        W59676  16.379  20.706   0.267  0.0115  0.0417  0.4109
58813W        W59677  19.795  15.751   5.810  0.0175  0.0300 -0.4503
58814W        W59678   9.077   4.110  11.298 -0.0379  0.3675  0.0614
58815W        W59679   3.197  16.142   3.385 -0.0994  0.1078  0.2679
58816W        W59680  26.703  15.827  11.798 -0.0095  0.1046 -0.1518
58817W        W59681   3.047  28.834  25.348 -0.1684 -0.0933  0.2238
58818W        W59682  23.961   7.373   7.532  0.1734 -0.0448 -0.0491
58819W        W59683   8.822  25.492  27.778 -0.2907 -0.1590 -0.2851
58820W        W59684   8.161  18.122  19.169 -0.1963 -0.1203  0.0291
58821W        W59685  22.788   5.528   6.511  0.2201 -0.2228  0.0025
58822W        W59686  12.289   8.761  22.513 -0.1865 -0.1219  0.0205
58823W        W59687   8.435  14.955  21.489 -0.0605 -0.1849 -0.3099
58824W        W59688  15.028  10.835  26.662 -0.2559 -0.0773  0.3939
58825W        W59689  15.743  27.737  15.848 -0.3268 -0.3544 -0.0087
58826W        W59690   1.737  20.829   9.580  0.3746  0.0682  0.2575
58827W        W59691  20.540   9.481  24.775  0.2248  0.0017  0.1909
58828W        W59692  27.186  23.864   6.305 -0.1613 -0.0667  0.0535
58829W        W59693  16.258  25.749  16.688  0.0982 -0.1595  0.0825
58830W        W59694  15.502   9.525  17.251 -0.0340 -0.1119 -0.0466
58831W        W59695  20.635   0.262  22.611 -0.2825  0.3197  0.0650
58832W        W59696   3.664  10.286  23.980 -0.2717  0.1391 -0.0563
58833W        W59697  24.212  16.820  15.365  0.3186  0.0632 -0.0597
58834W        W59698   6.989  11.568   5.066  0.4537  0.2603  0.1316
58835W        W59699  11.607   7.035   2.946 -0.1269 -0.2582 -0.1860
58836W        W59700  20.403  15.089  14.366  0.1945 -0.0283  0.1028
58837W        W59701  10.644   3.488  15.569  0.0756  0.4396 -0.1231
58838W        W59702   5.468  11.739  14.568 -0.0775  0.2392  0.1992
58839W        W59703  20.855  19.407  28.945  0.0392  0.2624 -0.3368
58840W        W59704   8.270   3.835   2.947  0.4020 -0.2473  0.0093
58841W        W59705  15.456  15.327   1.403  0.0054  0.0394  0.2830
58842W        W59706   2.627  12.403  19.898 -0.0949 -0.2069  0.0857
58843W        W59707  26.032  11.618   3.454  0.0731  0.0263 -0.2724
58844W        W59708  13.998  27.963  12.206  0.1385 -0.0261 -0.1419
58845W        W59709  11.189   7.477   2.845 -0.0118 -0.3011  0.0010
58846W        W59710  17.003  21.707  14.673  0.1591 -0.0930  0.1404
58847W        W59711   8.953  19.054   0.610  0.2125  0.0158 -0.0748
58848W        W59712  10.171  16.806  26.929  0.0973 -0.1109 -0.0603
58849W        W59713   7.101   0.607   6.563 -0.1651  0.0072 -0.0467
58850W        W59714   8.360   0.623  19.445  0.2392 -0.1513 -0.2477
58851W        W59715   8.127  18.802  25.983  0.0303  0.0806  0.6037
58852W        W59716   6.034  10.879  26.640 -0.1110  0.1133  0.1536
58853W        W59717  23.900   7.763  25.394 -0.2473 -0.0724 -0.1760
58854W        W59718  21.142   8.632   4.496 -0.1615  0.0793 -0.1920
58855W        W59719   8.130   8.279   7.005 -0.0431 -0.3623  0.1119
58856W        W59720   7.877  10.736  26.019 -0.0468 -0.0144 -0.0095
58857W        W59721  25.865  26.302  14.189  0.0076 -0.0810  0.0494
58858W        W59722  19.542   3.147   3.835 -0.0991 -0.2807  0.0462
58859W        W59723  13.881  26.459   4.057  0.1422 -0.1021 -0.0612
58860W        W59724   8.824   0.605  24.803 -0.0675  0.5340  0.1525
58861W        W59725   4.370  17.411  14.762 -0.0500 -0.1460  0.0187
58862W        W59726   3.009   5.234   9.653 -0.0438 -0.0831  0.4179
58863W        W59727  11.072   7.482  12.454 -0.1452  0.1067 -0.1119
58864W        W59728  19.870   6.227  10.234 -0.3071  0.1763 -0.0104
58865W        W59729  14.060   6.957   5.077  0.1993 -0.0481 -0.0636
58866W        W59730  13.365   1.337   3.192  0.1765  0.0175 -0.0697
58867W        W59731  20.245  23.968  24.372 -0.1131 -0.3286  0.2168
58868W        W59732  11.146   5.644  26.652  0.1619 -0.0313  0.1362
58869W        W59733  21.664   2.461  10.463  0.4328  0.0366 -0.0295
58870W        W59734   6.101   8.720  13.396 -0.2028  0.4198 -0.0345
58871W        W59735  14.475  14.820  28.783 -0.3501  0.1699  0.0020
58872W        W59736  18.408  18.652  12.698 -0.0518 -0.2454 -0.1320
58873W        W59737  16.610  12.253   6.093  0.0074 -0.5917  0.1232
58874W        W59738   5.201   5.153  14.903  0.2153  0.0018 -0.1861
58875W        W59739  10.260  13.422  13.455 -0.2898 -0.3316  0.0418
58876W        W59740   4.661  18.774   0.008  0.0221 -0.1403 -0.1798
58877W        W59741  11.859   8.937   8.688 -0.0574 -0.1106 -0.2070
58878W        W59742  26.349  25.704   4.122 -0.3803 -0.3441  0.1785
58879W        W59743   4.006   4.004  13.062 -0.1382  0.1098 -0.0638
58880W        W59744  13.186   8.036  11.736 -0.2174 -0.2212 -0.0780
58881W        W59745   9.093  14.814   5.448 -0.0674  0.1877  0.1457
58882W        W59746  10.633  18.894  27.634  0.1323  0.2108  0.0017
58883W        W59747   3.914  19.122   7.877 -0.2214 -0.1392 -0.1542
58884W        W59748  10.440  20.047   7.030  0.0638  0.1570  0.0729
58885W        W59749   9.576   7.863  13.892  0.2331 -0.2163 -0.4128
58886W        W59750   8.190   4.575  22.649 -0.0826  0.0979 -0.1315
58887W        W59751  23.559   3.348  10.996 -0.1370  0.2013  0.1809
58888W        W59752  28.482  11.337   7.111 -0.2555  0.0474 -0.0606
58889W        W59753  29.127   9.196   1.462  0.1994 -0.0461  0.1394
58890W        W59754  16.805   0.341  18.358  0.2664 -0.1273 -0.1491
58891W        W59755  12.072  22.334  25.082  0.1075  0.0694  0.3290
58892W        W59756   7.524  11.049  13.500 -0.0180 -0.2860  0.1131
58893W        W59757  21.013   3.368  19.589 -0.0982  0.2585 -0.0560
58894W        W59758  13.538   0.437   8.447  0.0799 -0.4002 -0.0443
58895W        W59759   4.752  23.915   1.056  0.6029  0.1210  0.1810
58896W        W59760  19.741   2.689  14.163  0.3301 -0.1472 -0.0233
58897W        W59761  28.540   2.256  21.237 -0.0866 -0.0528 -0.0439
58898W        W59762  10.042  17.569   2.336  0.1388  0.0137  0.1596
58899W        W59763  24.749  17.149  18.047 -0.0061 -0.0886  0.2421
58900W        W59764  20.045  27.172  20.284  0.3118  0.1412 -0.1138
58901W        W59765  14.773   5.328  17.123 -0.0709 -0.1019  0.1312
58902W        W59766   4.635  16.376  20.321  0.0563 -0.1712  0.1859
58903W        W59767  18.191  13.938  28.012 -0.0546  0.3586 -0.0273
58904W        W59768   9.197  21.112  10.564  0.0209 -0.3795  0.3784
58905W        W59769   4.887   5.304   1.177  0.0126 -0.2234  0.0889
58906W        W59770   9.523  11.593   7.063  0.0301 -0.0378 -0.1078
58907W        W59771  23.797  18.098  11.696  0.1265  0.1840 -0.0779
58908W        W59772   3.057  11.375   7.328  0.0408 -0.2059  0.5072
58909W        W59773  19.846   6.160  12.974  0.1363  0.0603  0.1611
58910W        W59774   2.035   6.408  12.384 -0.0032 -0.1799  0.1130
58911W        W59775   1.420  16.237  16.100  0.0011  0.1222  0.0555
58912W        W59776   5.029  26.760  16.835  0.1219  0.1329 -0.2764
58913W        W59777   8.043  18.272   2.182 -0.0279  0.1524  0.0192
58914W        W59778  14.595  12.280   4.048  0.2445  0.3127  0.1771
58915W        W59779  18.844   7.507   1.716  0.1009  0.0453  0.3257
58916W        W59780  17.092  15.103  26.335 -0.0552 -0.1326  0.1808
58917W        W59781  12.025  17.658   4.360  0.0808  0.2089  0.0783
58918W        W59782   7.490  17.047  21.601  0.1940  0.2309  0.1125
58919W        W59783  15.463   6.336  25.894 -0.0020  0.0944 -0.0094
58920W        W59784  14.558   1.710   1.292  0.2274  0.0311  0.0893
58921W        W59785  12.786   3.784   5.350  0.1851 -0.4817 -0.0115
58922W        W59786  16.498   2.456   3.099  0.1487  0.0321 -0.0788
58923W        W59787  25.934  14.293  14.415  0.0178  0.0231 -0.1482
58924W        W59788  26.901  18.138   7.973  0.0611  0.0747  0.2303
58925W        W59789  24.356   8.070  15.000  0.2105 -0.0599  0.3940
58926W        W59790  29.005  19.045  25.306 -0.0774 -0.0264  0.1446
58927W        W59791   8.545  12.582  14.767  0.0097 -0.2358 -0.2666
58928W        W59792  24.795   3.871  26.984  0.1385 -0.3384 -0.0443
58929W        W59793  13.442  16.154   7.689 -0.2200  0.3073 -0.2967
58930W        W59794   5.400  10.680  18.812  0.2598  0.0242  0.4436
58931W        W59795   8.980  25.510  24.986  0.1046 -0.2774  0.0623
58932W        W59796  10.286  15.267   3.796  0.0311  0.2021 -0.2276
58933W        W59797  24.298  14.758   4.677 -0.1442 -0.1038 -0.3438
58934W        W59798   8.747  20.371   6.353  0.1510  0.2313 -0.0571
58935W        W59799   1.769  11.418  23.894 -0.2915 -0.4203  0.1072
58936W        W59800  27.760  11.226  12.654  0.3067 -0.0301 -0.2619
58937W        W59801  12.888   8.091   1.605 -0.3800 -0.2215 -0.1565
58938W        W59802   0.986   4.503  14.140  0.0692  0.0561  0.1203
58939W        W59803  10.473  19.596   8.473 -0.0710 -0.3730 -0.0222
58940W        W59804   9.482   1.080  13.914 -0.0743  0.0182 -0.0991
58941W        W59805  11.822  12.263  15.708  0.0735  0.0879 -0.1582
58942W        W59806   2.914   8.826  16.850 -0.2224  0.4119 -0.2074
58943W        W59807  19.511   4.976   1.971  0.0169  0.1521  0.1799
58944W        W59808  14.400  13.437   7.874 -0.2760  0.2406  0.1937
58945W        W59809  27.532  21.550   3.148 -0.2645  0.2474 -0.0299
58946W        W59810   4.523  10.009  26.429  0.4560 -0.1146 -0.0251
58947W        W59811   2.427   7.767  12.765  0.0119  0.0122  0.1135
58948W        W59812   9.282   2.960  26.339 -0.2015  0.0958  0.3040
58949W        W59813   7.552   4.586   7.279 -0.2128 -0.0431  0.0375
58950W        W59814   3.709   3.404  27.875 -0.1076  0.1856 -0.1327
58951W        W59815  12.268  10.406  13.473  0.0678  0.2156 -0.3323
58952W        W59816  13.764  26.230  12.091 -0.3216 -0.1619 -0.0078
58953W        W59817  20.841  15.533  23.520  0.0296 -0.2271 -0.1221
58954W        W59818   9.406  17.915   0.763 -0.1880 -0.1946 -0.1243
58955W        W59819  27.389   7.516   4.561 -0.2776  0.3175  0.1881
58956W        W59820   9.358   4.654  23.212  0.2549  0.0748 -0.0173
58957W        W59821   1.215  21.003  22.220 -0.0185 -0.3016 -0.0184
58958W        W59822  20.607  27.174  25.194 -0.0903 -0.0264  0.1804
58959W        W59823   7.711   2.300   6.600 -0.1468 -0.2961 -0.1104
58960W        W59824   6.734  27.910  22.007 -0.1867  0.0449  0.0512
58961W        W59825  11.897   7.487   2.997 -0.2878  0.0688 -0.2255
58962W        W59826  10.412  15.039  20.276  0.3698 -0.2435  0.1120
58963W        W59827   9.207  23.011   5.637 -0.2911 -0.1753  0.0770
58964W        W59828  12.873  28.399   9.982  0.2144 -0.0383 -0.0066
58965W        W59829   2.979  26.445   8.912  0.1936 -0.0432 -0.3161
58966W        W59830  23.247  23.572  10.551  0.0026  0.3115 -0.1086
58967W        W59831  17.842  18.081   5.829  0.1595 -0.0621 -0.1534
58968W        W59832  13.970  12.146   9.794 -0.1795  0.0873 -0.0447
58969W        W59833   2.547  10.677  27.654  0.2250  0.1078  0.1290
58970W        W59834  12.395   6.208  24.154 -0.3086  0.1446 -0.3225
58971W        W59835  12.081   3.060  14.143  0.2172 -0.0501  0.1953
58972W        W59836  11.044  11.145  13.885  0.0017  0.2609  0.0740
58973W        W59837  24.823   9.701  13.842 -0.0300  0.1089  0.1116
58974W        W59838  14.058  23.685  22.456  0.0578 -0.1575 -0.0997
58975W        W59839   7.818  25.418   1.201  0.1304 -0.1083  0.1062
58976W        W59840  10.185   9.783  23.093 -0.1005 -0.1864 -0.2514
58977W        W59841   4.409  19.354  15.708  0.1457  0.0993  0.2090
58978W        W59842  19.136  28.146   8.618  0.2687  0.0730  0.0550
58979W        W59843  11.504   0.820  24.784  0.2789  0.0488 -0.1555
58980W        W59844   2.937  23.021   0.381 -0.2172  0.0332  0.1519
58981W        W59845  17.890  17.474  26.215 -0.3790 -0.1643 -0.1532
58982W        W59846  18.148  20.256   0.876  0.0406 -0.3307  0.3477
58983W        W59847   3.756   1.444  15.958  0.0206 -0.1150 -0.3482
58984W        W59848  12.054   9.990   6.688 -0.0357 -0.2553 -0.0795
58985W        W59849  15.095  20.949  13.548  0.1515  0.0585  0.2604
58986W        W59850  22.951   2.740  28.041  0.4041  0.2557 -0.2674
58987W        W59851  13.460  18.421   7.854  0.1908  0.1207 -0.4203
58988W        W59852  16.420   4.212   0.757 -0.0001 -0.0523  0.3222
58989W        W59853   4.646   5.942  26.524 -0.0198  0.0577  0.1318
58990W        W59854  16.757  11.461  14.926 -0.0197  0.2129 -0.3594
58991W        W59855   4.133  10.476  23.959  0.1701 -0.0256 -0.3773
58992W        W59856   1.322  15.553   4.559 -0.2277 -0.0626  0.1144
58993W        W59857  20.414   1.787  17.372  0.0494 -0.1481  0.1231
58994W        W59858   4.180   1.203  20.826  0.1563  0.2082 -0.2403
58995W        W59859  22.522   6.686  16.536 -0.0476 -0.3814  0.0884
58996W        W59860   0.343   4.899  12.354 -0.0940 -0.1231 -0.0175
58997W        W59861  23.750  16.130  11.719  0.3118  0.1573 -0.2324
58998W        W59862  26.835  15.129   7.994 -0.1509 -0.0235  0.1322
58999W        W59863  10.731  26.183  14.012 -0.2882 -0.0916  0.0552
59000W        W59864  24.639  15.636  18.129  0.0515 -0.2637  0.0480
59001W        W59865  22.630  12.522  21.447 -0.1240  0.1193  0.1892
59002W        W59866  12.434   3.155   6.129  0.0865  0.3375 -0.1144
59003W        W59867  25.746   9.952   9.049 -0.1429 -0.0845  0.2158
59004W        W59868  18.244  18.792   4.603  0.1257  0.0988 -0.0971
59005W        W59869   1.165  16.248  27.951 -0.1019  0.0960  0.1488
59006W        W59870   9.135  25.937  25.295 -0.1855  0.0707 -0.2550
59007W        W59871  20.807   9.135  11.955 -0.0958  0.1934  0.3326
59008W        W59872  21.186  21.246  18.404 -0.0122 -0.0744  0.0352
59009W        W59873  26.954  12.676  10.491  0.1925  0.3175  0.1754
59010W        W59874   5.397   4.176   8.723 -0.0562 -0.0338 -0.1580
59011W        W59875  19.940   2.429  27.244  0.0667 -0.0566  0.0082
59012W        W59876  27.844   5.683   0.289 -0.3313  0.0521  0.0432
59013W        W59877  22.550   8.097  11.134 -0.2707  0.0329 -0.0961
59014W        W59878  19.979  17.191   3.637  0.0893  0.1858 -0.1544
59015W        W59879   8.132  25.077  22.924 -0.1114 -0.2471 -0.0537
59016W        W59880   9.515  22.770  24.475  0.1282  0.1711 -0.1577
59017W        W59881  16.496  28.745  20.010 -0.3644  0.0834  0.0107
59018W        W59882   4.162  13.201  28.666  0.0804 -0.0667 -0.2490
59019W        W59883  20.143   1.291  10.505 -0.0403 -0.0744  0.2074
59020W        W59884   7.196  12.972  13.300  0.1068 -0.0439 -0.1890
59021W        W59885   5.109  13.958  17.807  0.1551  0.0734  0.1607
59022W        W59886   7.355  14.264  10.526 -0.1127 -0.2058 -0.1952
59023W        W59887   6.903   9.473  13.039 -0.2730 -0.2898 -0.1773
59024W        W59888  19.915  24.613  16.243 -0.1551  0.1742 -0.1855
59025W        W59889   1.264  14.594   4.897 -0.1133 -0.2993  0.1691
59026W        W59890  24.013  23.715  22.285  0.0511 -0.2297  0.0339
59027W        W59891   5.403  24.636  18.852  0.0615  0.1976  0.2000
59028W        W59892  13.173  29.036  23.979  0.0348  0.0155  0.2746
59029W        W59893  26.797  29.134   8.221  0.1678  0.2685 -0.2653
59030W        W59894  22.405   4.977  19.145 -0.0862  0.2381  0.2253
59031W        W59895  23.810  14.072  17.255 -0.0945  0.1383  0.0327
59032W        W59896  11.386  15.993  10.373 -0.1737  0.2017 -0.1949
59033W        W59897   6.547   7.891  27.193  0.1213 -0.1655 -0.0575
59034W        W59898   8.352  14.144  22.062 -0.1381  0.0812  0.1963
59035W        W59899   2.069  12.436   0.858 -0.0185  0.3079  0.1846
59036W        W59900   0.511  25.824   9.685 -0.0330 -0.1537  0.0332
59037W        W59901   0.735  13.728  20.288 -0.2271  0.1768  0.0640
59038W        W59902  20.154   3.563  24.015  0.1247  0.0656  0.1259
59039W        W59903  13.961  10.363  28.488 -0.0909 -0.3133  0.0555
59040W        W59904  17.358  11.749  23.234 -0.0018  0.2742 -0.1184
59041W        W59905  25.963  25.316   8.383  0.0126  0.3875 -0.1778
59042W        W59906  13.999   7.403  23.587 -0.0586  0.0368  0.2574
59043W        W59907  10.785  14.738   8.972  0.3021 -0.0699 -0.1013
59044W        W59908  19.140  20.981  12.453 -0.1644 -0.0058  0.0427
59045W        W59909   6.434  29.087  28.112  0.0213 -0.0053  0.2155
59046W        W59910  11.032   8.256  26.898  0.0014 -0.0934 -0.0171
59047W        W59911   7.960   6.231   1.614  0.1077 -0.0564  0.2175
59048W        W59912   4.421   3.975  18.680  0.0308  0.0029 -0.2260
59049W        W59913  27.816   6.666  13.963 -0.1771 -0.0071  0.0325
59050W        W59914   4.498  10.214  14.099 -0.1764  0.2566  0.3118
59051W        W59915  27.930   1.271  24.243  0.2131 -0.1191 -0.3529
59052W        W59916  11.043  11.526  14.353  0.1534  0.2325 -0.0351
59053W        W59917   7.645  16.558  13.870  0.0557 -0.0089  0.1510
59054W        W59918   2.546   6.550   3.908 -0.0637  0.0047  0.0485
59055W        W59919  28.352  10.134  20.059  0.0218  0.1036  0.0214
59056W        W59920  17.199  17.306  22.933  0.1730  0.0575  0.2477
59057W        W59921  22.925  13.702  13.128  0.2194  0.0302  0.2446
59058W        W59922   7.308   1.940   2.653  0.1504 -0.1544  0.1524
59059W        W59923  22.924   4.166  24.510  0.1037 -0.1573  0.1936
59060W        W59924  24.269   5.625   1.102 -0.2493  0.0817  0.1365
59061W        W59925  16.133  26.832  13.381 -0.0316 -0.0507  0.0445
59062W        W59926  11.843  15.123   9.012 -0.3282 -0.0978 -0.0559
59063W        W59927  11.136   1.454  10.079 -0.0183  0.1432  0.0546
59064W        W59928  17.299   3.481  23.735  0.1540  0.1010 -0.1034
59065W        W59929  17.741  29.120  20.237 -0.0893 -0.2647  0.1961
59066W        W59930  27.438   9.104  19.155  0.1731 -0.0196  0.1873
59067W        W59931   2.097  10.303   7.318 -0.1304  0.1658 -0.2345
59068W        W59932  15.292  15.223  18.278  0.0645  0.0745  0.4502
59069W        W59933   8.468  10.940  26.657 -0.1034  0.0600  0.1789
59070W        W59934  26.709  16.718  20.702 -0.3860  0.2035 -0.2990
59071W        W59935  13.309   6.821  11.535  0.0438 -0.1334  0.1957
59072W        W59936   6.541   3.905  26.519 -0.2560 -0.1163  0.2171
59073W        W59937  15.256   3.307   1.226 -0.1746 -0.2062 -0.0997
59074W        W59938  25.952  27.480  15.429  0.1218  0.0668  0.0861
59075W        W59939   3.870   0.480   0.602 -0.1091 -0.0350  0.0336
59076W        W59940   2.778  12.718   9.490 -0.0513  0.3223  0.1395
59077W        W59941   7.789  16.002   7.948 -0.0234  0.2688 -0.0637
59078W        W59942  17.426  10.060  14.818 -0.2623 -0.2088 -0.2103
59079W        W59943   2.505  11.316  18.391  0.1442  0.0459 -0.1939
59080W        W59944  16.936  24.235   6.721 -0.0459 -0.0076 -0.2268
59081W        W59945  20.503  11.092  10.589  0.2175 -0.0278 -0.1250
59082W        W59946  18.639  12.720   9.928 -0.0187  0.0277  0.0344
59083W        W59947   8.377   7.663   7.485  0.0754  0.1505  0.0075
59084W        W59948   6.284   7.629  12.113 -0.1900 -0.0276 -0.1792
59085W        W59949  18.151  28.227   2.444 -0.0278  0.2747  0.4107
59086W        W59950  20.623   6.712  27.864  0.0625 -0.0874  0.2429
59087W        W59951  16.584   3.134  12.812 -0.0395 -0.2222  0.5133
59088W        W59952   1.865  10.586  13.883  0.2891  0.0387 -0.0776
59089W        W59953  19.372  17.593   4.965  0.0179  0.0485  0.1470
59090W        W59954   2.158  28.039  16.414 -0.3189  0.0431  0.2083
59091W        W59955  19.627   7.767   6.030 -0.2970  0.1846  0.1898
59092W        W59956   6.376   4.814  14.471  0.2606 -0.0166 -0.1365
59093W        W59957   3.089   9.203  24.328  0.2147 -0.4023  0.0919
59094W        W59958  15.673   8.898  16.507 -0.0718 -0.1083 -0.0898
59095W        W59959  22.649  14.925   0.902  0.3250 -0.1179  0.0119
59096W        W59960  12.560   9.875   3.882  0.0868 -0.4035 -0.0038
59097W        W59961  14.243   2.327  15.740  0.0728  0.0541  0.2304
59098W        W59962   0.570  10.171  17.124  0.1144  0.2913  0.1169
59099W        W59963   6.808  22.229  11.041 -0.0265 -0.0231 -0.2343
59100W        W59964   0.687   9.827  10.516  0.1917 -0.1904  0.2010
59101W        W59965  25.204  18.963  16.001 -0.3377  0.0365 -0.1376
59102W        W59966  16.565   6.592   7.626 -0.2172  0.0776 -0.0747
59103W        W59967   3.544  27.231   6.000  0.3287  0.3352 -0.2327
59104W        W59968  15.735  16.579  12.638  0.1521 -0.3233 -0.0493
59105W        W59969  19.297   3.642  15.243 -0.0571 -0.1367  0.0946
59106W        W59970  13.385  19.370   9.597 -0.2528  0.1765 -0.3827
59107W        W59971  27.562  10.325   7.114  0.1750  0.0571 -0.1662
59108W        W59972   6.063  13.696  13.300 -0.0133  0.0900 -0.1035
59109W        W59973   9.167  14.232  11.213  0.0651  0.1378 -0.2593
59110W        W59974  15.821  22.403   2.524 -0.0187 -0.1316 -0.2803
59111W        W59975  10.562   2.826  26.662 -0.0343  0.0074  0.1511
59112W        W59976  18.139   4.952   8.998 -0.1663  0.0210  0.0351
59113W        W59977  24.894  16.370  17.483 -0.2183 -0.3577  0.1027
59114W        W59978  26.797   8.441   8.244 -0.0632  0.1968  0.0392
59115W        W59979  13.954  28.144  22.093 -0.0899  0.5050 -0.0045
59116W        W59980  16.036  14.867   0.601 -0.2275 -0.0426 -0.1423
59117W        W59981  24.850  12.798  18.951 -0.2567 -0.2447 -0.2896
59118W        W59982  16.548  16.977   5.362 -0.1213 -0.1629 -0.2659
59119W        W59983  21.717  15.106  13.469 -0.0620 -0.3681  0.0177
59120W        W59984  25.425  13.527  27.705 -0.1454  0.0461  0.2086
59121W        W59985  28.396  25.602   2.876  0.3498  0.1604  0.2231
59122W        W59986   6.938   5.269   7.677 -0.0930  0.1718 -0.3095
59123W        W59987  21.939  14.478  13.978 -0.2580 -0.2625  0.1972
59124W        W59988  24.034  25.625  13.011  0.0477  0.0967 -0.0476
59125W        W59989   3.841  19.196  11.904  0.0712 -0.3794 -0.0175
59126W        W59990  12.554   2.298  10.303 -0.0963  0.0900  0.2065
59127W        W59991  11.503   0.224   2.198  0.0799 -0.0149  0.0193
59128W        W59992  12.140   4.713  18.509  0.4176 -0.1351 -0.0903
59129W        W59993  20.119  26.326  17.503 -0.1261 -0.1256 -0.2006
59130W        W59994  23.173  10.350  26.557  0.1072 -0.1881  0.0606
59131W        W59995   8.271   3.666   1.505  0.0342  0.2388 -0.0287
59132W        W59996   5.070   2.147  26.345 -0.0325 -0.0539 -0.1452
59133W        W59997  14.161  13.383  12.152  0.3815  0.1233 -0.2647
59134W        W59998  18.700  14.918   4.119  0.0901  0.3552 -0.0628
59135W        W59999  19.900   5.504  19.108  0.0456  0.1173 -0.0649
59136W        W60000  15.438   7.001   1.115  0.6582 -0.0896  0.1115
59137W        W60001   4.505  11.926   0.591  0.1649 -0.1184  0.1527
59138W        W60002  25.537  26.016   8.476  0.0319 -0.0425  0.0777
59139W        W60003   9.654  13.196  21.621  0.0556 -0.0583  0.3138
59140W        W60004  28.646   2.537  15.920 -0.1099  0.1508 -0.0415
59141W        W60005  11.475  13.735  26.610 -0.2704  0.3619 -0.1708
59142W        W60006  24.724   4.194   3.547  0.3512  0.3524 -0.1759
59143W        W60007   8.362  25.474  10.672 -0.0414 -0.1763 -0.1984
59144W        W60008   6.227   4.545   7.949  0.2613 -0.0760 -0.0562
59145W        W60009   4.967   5.925  23.084 -0.1017 -0.1070  0.2704
59146W        W60010  17.008   5.109  25.005  0.0588 -0.1181  0.2336
59147W        W60011   0.684  15.595  20.157  0.2473  0.3607  0.0396
59148W        W60012   5.149   2.092  20.646 -0.1518  0.0895  0.2465
59149W        W60013  16.582  14.411  21.748 -0.2383  0.3067 -0.1556
59150W        W60014  11.286  14.190  15.681  0.1206  0.1383  0.2494
59151W        W60015  21.584  19.962  16.458 -0.1597  0.2891 -0.1230
59152W        W60016   7.750   6.059   6.619  0.0864 -0.0722  0.1822
59153W        W60017  18.401   5.597  24.760 -0.1956 -0.1426 -0.4131
59154W        W60018  26.642  17.079   8.594 -0.2663  0.0866 -0.2807
59155W        W60019  14.205  11.817  15.172 -0.3120  0.0043  0.0472
59156W        W60020  29.039  10.804  13.835 -0.0891  0.0191  0.1075
59157W        W60021  18.088  21.440   0.161 -0.0672 -0.0489  0.3211
59158W        W60022  15.900   0.072  20.696  0.2264  0.0554  0.1398
59159W        W60023   3.921  11.354  13.983  0.0362  0.0420 -0.0293
59160W        W60024  24.917  26.312  26.645  0.0027  0.1030 -0.1160
59161W        W60025  15.494  28.968  22.149 -0.3829  0.0463  0.1059
59162W        W60026  25.453   7.228   8.902 -0.2869  0.2721  0.2855
59163W        W60027   6.530  28.546  13.906  0.1498  0.2835  0.0991
59164W        W60028  17.560   9.757   2.263  0.0997 -0.1681 -0.0901
59165W        W60029  13.041  14.633  17.329 -0.1106  0.1296  0.2977
59166W        W60030  27.799   1.895  16.237  0.1083  0.1100 -0.1748
59167W        W60031  20.818   3.942  22.364 -0.1075  0.3769  0.2604
59168W        W60032   6.462   5.729   5.023  0.1985 -0.1121 -0.0653
59169W        W60033   7.908  14.563  26.076 -0.1351 -0.0420  0.0573
59170W        W60034  12.009  16.585  18.967 -0.0189 -0.1419 -0.1469
59171W        W60035   8.899  19.022   6.726  0.4929  0.1483 -0.1359
59172W        W60036  23.362  20.565  26.458 -0.0848  0.2350  0.0411
59173W        W60037   2.369  14.229   5.369 -0.3397 -0.3911  0.1216
59174W        W60038   4.169   6.814   4.632 -0.0412  0.1872  0.2018
59175W        W60039  27.143  20.994  23.786  0.1134 -0.2240 -0.0398
59176W        W60040  13.063  23.134   3.217  0.1481 -0.2450  0.1245
59177W        W60041   4.802  28.394  14.127  0.1852  0.0800 -0.0656
59178W        W60042  26.629   7.997  21.529  0.1927 -0.2211 -0.1569
59179W        W60043  21.775  11.061  25.074 -0.1396 -0.0880 -0.2515
59180W        W60044  15.054  11.798  12.965  0.1908  0.2323 -0.1300
59181W        W60045   6.403  26.022   0.850 -0.1058 -0.3203  0.0864
59182W        W60046  22.666  18.646   2.027  0.2301 -0.0810 -0.2367
59183W        W60047   4.026  11.660  11.718 -0.2592 -0.2366  0.0311
59184W        W60048   3.037  12.548  26.779 -0.2347  0.1337  0.1261
59185W        W60049  28.431   9.821   7.989  0.0355 -0.0080  0.0308
59186W        W60050   5.384   8.484  14.323 -0.0691  0.1807 -0.2017
59187W        W60051  16.062   9.368  21.298  0.0435  0.2135 -0.1105
59188W        W60052   3.589  17.890  16.969  0.1423  0.0633  0.1659
59189W        W60053  14.637   6.406   7.843 -0.1641 -0.0290  0.1102
59190W        W60054  11.007  13.056   5.626  0.0936  0.0637  0.1884
59191W        W60055   1.824  21.814  23.376 -0.1530  0.0718  0.1337
59192W        W60056  22.025  10.395   8.483 -0.0217  0.1248  0.1120
59193W        W60057  13.930   5.388  19.549 -0.1409  0.0472  0.0080
59194W        W60058  12.722   5.964  24.514  0.5213 -0.0408 -0.1514
59195W        W60059  11.448  19.735   5.210  0.2931  0.0648  0.4676
59196W        W60060   5.438  18.019  16.459  0.1101  0.0551  0.3465
59197W        W60061  11.671  18.549   6.119 -0.0151 -0.1686  0.1455
59198W        W60062  17.295   1.317   5.088 -0.1507  0.0868 -0.1857
59199W        W60063   4.309  13.999  12.126  0.2972 -0.0060 -0.0061
59200W        W60064   2.454   9.348  14.049 -0.0007 -0.3493  0.0254
59201W        W60065   3.380  23.136  12.352 -0.0443  0.0945  0.0788
59202W        W60066  20.084   8.867  10.343 -0.2952  0.0480 -0.1975
59203W        W60067   5.747  17.607  25.583  0.1744 -0.1543  0.2046
59204W        W60068  10.157   9.312  17.048  0.2378 -0.1604  0.1552
59205W        W60069   8.644   8.854   6.585  0.1655 -0.1594 -0.0594
59206W        W60070  24.194  18.415  25.510  0.2228  0.0646  0.4383
59207W        W60071  12.636   3.873   2.806  0.2574 -0.2440 -0.1142
59208W        W60072  24.029  10.980  19.881 -0.1837  0.2394  0.1785
59209W        W60073  19.077  26.916   6.193 -0.0773  0.1449 -0.0940
59210W        W60074  13.910   5.781  22.504 -0.3461  0.1340  0.1271
59211W        W60075  20.960  12.209  10.080 -0.0940 -0.1624  0.1988
59212W        W60076  15.402  12.525   6.668 -0.1901  0.0822  0.0141
59213W        W60077  20.613   7.908  18.656 -0.4486 -0.1764 -0.3770
59214W        W60078  27.881  10.094  11.102 -0.0627  0.2936  0.0086
59215W        W60079   0.213  29.059   5.443  0.2119 -0.0433  0.1976
59216W        W60080  13.124   9.641   8.116  0.2540 -0.1296 -0.4942
59217W        W60081   4.188  20.824  25.469 -0.0260 -0.0051 -0.3135
59218W        W60082  13.243   0.243  14.583  0.1351 -0.1845 -0.0302
59219W        W60083  23.243  28.063  17.109 -0.0965 -0.1382  0.5029
59220W        W60084   0.665  12.899  22.033 -0.2421 -0.5421 -0.1545
59221W        W60085  11.085  15.892  26.905  0.0419 -0.1516  0.2195
59222W        W60086  18.180  12.444  17.505 -0.2757  0.3092 -0.4000
59223W        W60087   2.405  28.153  11.837 -0.1790 -0.3110  0.0549
59224W        W60088  19.127  27.311   7.036  0.1270  0.3112  0.2004
59225W        W60089   7.736  13.540  11.143 -0.2757  0.1470 -0.0538
59226W        W60090   0.904   2.450  13.246  0.1683  0.1817  0.3024
59227W        W60091  18.874   5.685  14.625  0.0724  0.1713  0.1297
59228W        W60092  10.491   6.786   9.479  0.0331 -0.1381 -0.1717
59229W        W60093   8.930  21.393  19.612 -0.1071 -0.0931 -0.0143
59230W        W60094  19.720  25.454  11.957  0.1574  0.0207  0.0782
59231W        W60095  28.995  23.876  19.980  0.3489  0.2741 -0.2098
59232W        W60096  20.235   8.253  22.741 -0.2936  0.2321 -0.0553
59233W        W60097  21.707   3.030   2.744  0.0683  0.1545 -0.1679
59234W        W60098  11.299   4.954  14.503  0.1402  0.1088 -0.0467
59235W        W60099  17.409  24.304  24.968  0.0294 -0.0605 -0.0373
59236W        W60100  23.207  14.012   1.453 -0.1032  0.1138  0.0406
59237W        W60101  23.790  11.273  10.585  0.0767 -0.3218 -0.0584
59238W        W60102  17.380  17.445  13.624  0.0705  0.0661  0.2569
59239W        W60103  18.659  20.374  14.789 -0.2756  0.1881 -0.0691
59240W        W60104  19.065  23.613  18.863 -0.0253 -0.0555 -0.2484
59241W        W60105   7.748   5.184  27.312  0.0677  0.1423 -0.0466
59242W        W60106   5.073   6.414  10.362 -0.0483 -0.1063  0.0633
59243W        W60107  14.103   0.098  19.512 -0.0146  0.0732  0.2881
59244W        W60108  21.947   9.195   1.577  0.1644  0.0729  0.0260
59245W        W60109  13.660  28.141   7.610  0.1751  0.0319  0.4027
59246W        W60110   3.594   7.148  14.782  0.1783  0.0136 -0.0871
59247W        W60111  19.987  11.673   8.951 -0.0322  0.1532  0.0595
59248W        W60112   6.738   4.782  20.296 -0.1630  0.1452 -0.1671
59249W        W60113  13.346   1.429  11.447 -0.1115  0.1123  0.2489
59250W        W60114   4.972  20.034  14.183  0.1680  0.1900  0.0422
59251W        W60115   6.006  14.464  20.723 -0.2654 -0.1284 -0.1477
59252W        W60116  27.387   8.697  13.286  0.0827 -0.2714 -0.1655
59253W        W60117   9.998   3.479  13.097 -0.2013 -0.0842  0.1287
59254W        W60118  13.629   3.635  18.825  0.0751  0.0484 -0.2796
59255W        W60119  11.744   9.662  15.296 -0.1568 -0.1469 -0.2769
59256W        W60120  27.591  21.517  21.190  0.0928 -0.0116  0.0689
59257W        W60121  10.864   9.662  12.856 -0.0184 -0.2605  0.0554
59258W        W60122  19.517  10.876  25.111  0.1432 -0.3324  0.2713
59259W        W60123   9.246   8.540  28.642  0.0476  0.0505  0.1047
59260W        W60124  16.047  17.476  26.321  0.5460 -0.0640 -0.0180
59261W        W60125  15.078  14.664  12.349 -0.1848  0.2100 -0.0098
59262W        W60126  11.642   4.881   8.869  0.1792  0.0212  0.0050
59263W        W60127  19.795  16.952  21.779 -0.4293  0.0918  0.1180
59264W        W60128   0.384   6.158  23.668 -0.2461 -0.2847 -0.1600
59265W        W60129   9.317  11.418  23.046  0.2842 -0.0632 -0.1331
59266W        W60130  26.781   5.589  16.242  0.3588  0.0110  0.0178
59267W        W60131   4.183  16.806  18.387 -0.0113 -0.0461 -0.2455
59268W        W60132  16.119   2.068  25.342  0.1752 -0.1119 -0.2764
59269W        W60133   2.261  19.008  20.433  0.1406 -0.1668  0.1118
59270W        W60134  20.360  28.885   4.336 -0.2421  0.0483  0.0833
59271W        W60135  17.424  27.882  26.742  0.1333  0.2841  0.2010
59272W        W60136  15.151   1.060   7.113 -0.0638 -0.1356 -0.1633
59273W        W60137  16.815  21.746  27.944  0.0702  0.2586  0.0475
59274W        W60138  15.094  15.318  17.243 -0.1605 -0.2304  0.3872
59275W        W60139  17.531   2.747   8.473 -0.0834 -0.0106 -0.0173
59276W        W60140  22.352  12.302  15.116 -0.0206 -0.1297  0.1858
59277W        W60141   8.614  13.219   5.189  0.4093 -0.0907  0.1417
59278W        W60142  13.261   8.411  16.696 -0.0189 -0.2187  0.4375
59279W        W60143   4.801  26.736  13.677  0.3646  0.0999  0.0621
59280W        W60144   1.889  25.618  12.552 -0.0436  0.5070 -0.2951
59281W        W60145  13.390   8.897  15.831 -0.1933  0.2384 -0.0540
59282W        W60146   8.298  17.858   8.217  0.2619 -0.1347 -0.0115
59283W        W60147   3.268  18.423  15.258  0.1233 -0.1341 -0.1314
59284W        W60148  18.544  24.531  24.759 -0.0390 -0.2082 -0.0412
59285W        W60149  16.595   8.628   0.841 -0.0599 -0.1848 -0.3573
59286W        W60150  26.299  11.677  15.873  0.4565  0.0308 -0.3290
59287W        W60151  23.767   7.454   2.487 -0.0928 -0.0469  0.0276
59288W        W60152  10.891  18.750  22.554  0.0702 -0.5355 -0.0673
59289W        W60153   6.284  13.568  23.577  0.0028  0.2186 -0.0702
59290W        W60154  23.730  13.444  13.145  0.2032  0.0445 -0.3948
59291W        W60155   6.213  12.158  18.146 -0.0820 -0.0693  0.1295
59292W        W60156  20.747  15.485  21.919 -0.1646 -0.0703  0.2688
59293W        W60157  13.958  26.513  15.517 -0.0886 -0.2138  0.3271
59294W        W60158   8.434   3.100   5.408 -0.1435  0.1695  0.2673
59295W        W60159   8.308   5.174  21.961 -0.2620 -0.0479  0.3327
59296W        W60160  16.413  16.176  14.231  0.1409  0.0618 -0.3006
59297W        W60161  11.322  22.661   1.236 -0.1578 -0.2449 -0.0859
59298W        W60162  13.479  18.054  10.934  0.2171  0.0915  0.1484
59299W        W60163  17.614  15.257  10.595 -0.1371  0.2125 -0.0954
59300W        W60164  19.491  12.108  11.900  0.0781 -0.0370 -0.0780
59301W        W60165   0.427  17.433  11.146  0.0676  0.0829  0.0619
59302W        W60166   8.135   7.619  14.973  0.4067 -0.0293 -0.0365
59303W        W60167   7.852   9.884   7.006  0.1800 -0.0664 -0.0231
59304W        W60168   1.633  12.620  26.500  0.1017  0.2059  0.0106
59305W        W60169  25.148  12.414  14.480  0.1670  0.3647 -0.1595
59306W        W60170  12.051  20.046  24.718  0.5406 -0.0615  0.3187
59307W        W60171   7.221   2.196   8.411  0.1027  0.1107  0.0325
59308W        W60172   7.872  11.375  16.584 -0.0266 -0.3498  0.1321
59309W        W60173  14.043  12.769  16.532  0.2676  0.1390  0.1798
59310W        W60174   6.745  19.738  18.109 -0.1480  0.0529 -0.0089
59311W        W60175  10.805   9.926  27.605 -0.1414  0.1379 -0.1349
59312W        W60176  14.974  15.481  10.904  0.0992 -0.2324 -0.1169
59313W        W60177  13.568  19.015  12.046  0.0249  0.0301  0.2369
59314W        W60178  18.248   8.962   6.630  0.1030 -0.0897  0.1013
59315W        W60179  21.139   9.623  16.452  0.1701 -0.2471 -0.1830
59316W        W60180   9.954  15.631  24.400  0.1351 -0.4668  0.0124
59317W        W60181   0.003  17.899  23.380 -0.0404  0.2607 -0.1487
59318W        W60182  10.168   5.728   1.706  0.1275 -0.0617 -0.0679
59319W        W60183   9.664   2.800   2.971  0.2444 -0.3222 -0.1285
59320W        W60184  18.597  17.720   7.385 -0.2957  0.3089 -0.0378
59321W        W60185   5.873  24.226   1.432  0.2403 -0.1720 -0.2529
59322W        W60186  12.981   0.293  22.879  0.1853  0.3212  0.3088
59323W        W60187  28.632  12.067  19.766  0.2093  0.1191 -0.0559
59324W        W60188  21.172  26.170  16.088  0.0483 -0.0883 -0.2256
59325W        W60189  15.540   0.681   7.009  0.2391  0.1988 -0.2583
59326W        W60190  23.284   6.618   2.767  0.1113  0.1464 -0.3437
59327W        W60191   8.362  22.755  19.760 -0.2898 -0.0339  0.3999
59328W        W60192  26.991  27.535   9.438  0.2177 -0.1049  0.2059
59329W        W60193  12.663   2.275   2.304  0.0582 -0.0008  0.1855
59330W        W60194  19.304  12.884  14.238  0.0108 -0.0827 -0.2317
59331W        W60195   2.922  14.272  13.020  0.1856 -0.2276 -0.0790
59332W        W60196  16.223  18.901   8.171  0.0512 -0.0047  0.2164
59333W        W60197   3.461  16.807   0.235 -0.1850 -0.0011  0.1179
59334W        W60198  18.231  22.526   7.824  0.0264  0.1924  0.1364
59335W        W60199  18.474  10.665  19.644  0.0669 -0.0043 -0.1387
59336W        W60200   1.375  21.284  18.053  0.1553  0.0031 -0.2618
59337W        W60201   0.094  25.363   9.660  0.0077 -0.1405 -0.3935
59338W        W60202  20.246  21.429   5.110  0.0051 -0.3839 -0.3626
59339W        W60203  13.155  17.247  22.335 -0.1160  0.0396  0.1869
59340W        W60204  12.753  25.105   5.420 -0.4037  0.1386 -0.1322
59341W        W60205   2.275  28.060  23.324 -0.3143 -0.0787  0.0699
59342W        W60206  14.072   2.929  12.274  0.2638 -0.2424  0.3434
59343W        W60207  15.135   4.665  20.634  0.1403  0.0426  0.2163
59344W        W60208  14.262   8.236  12.110 -0.1687  0.0857  0.2565
59345W        W60209   7.369  26.445  20.663  0.0338 -0.0326 -0.1097
59346W        W60210   2.593  14.663   7.824  0.0332  0.2457  0.0114
59347W        W60211  14.248   3.815  10.892  0.3228  0.2292 -0.2147
59348W        W60212   7.310  17.393   6.243 -0.0264  0.2105 -0.0776
59349W        W60213  18.588   6.143  25.721 -0.5691  0.0589  0.0866
59350W        W60214   9.645   9.564   8.764  0.0542 -0.1332  0.0106
59351W        W60215  10.337  20.000   3.405 -0.3115 -0.0121 -0.0157
59352W        W60216  12.822  13.988  28.440 -0.1036  0.0723 -0.1522
59353W        W60217  12.109  12.783  28.542  0.0649 -0.2223  0.1175
59354W        W60218  13.872  26.971  27.976 -0.3149  0.0752  0.2351
59355W        W60219   7.500   2.522   9.105 -0.2259 -0.2506 -0.2172
59356W        W60220   3.680  27.185   3.712  0.0666 -0.1698 -0.1893
59357W        W60221  14.165   0.902  23.175  0.0238 -0.1072  0.1433
59358W        W60222   0.689  18.061   1.959 -0.0134 -0.2222 -0.1292
59359W        W60223   9.190  11.076   6.370  0.2553 -0.0143 -0.0498
59360W        W60224  10.176   2.710   4.142 -0.4000  0.1722  0.1232
59361W        W60225   7.704  11.273  14.550  0.0341 -0.0472 -0.2921
59362W        W60226  26.274  17.636   9.593  0.1709  0.3229 -0.2680
59363W        W60227   1.432   5.535  17.344 -0.1079 -0.0251  0.4029
59364W        W60228   3.623  11.319  14.825 -0.0830  0.2534 -0.1015
59365W        W60229  12.038  13.576  27.178 -0.2719 -0.0262 -0.0773
59366W        W60230   8.339  17.225  17.665 -0.2991 -0.2578 -0.1665
59367W        W60231  20.160  22.788  20.397 -0.2392  0.0033 -0.2753
59368W        W60232  25.738  10.931  16.505  0.0796 -0.2874  0.0728
59369W        W60233   0.278  12.085   4.468 -0.1512 -0.0054 -0.2487
59370W        W60234  12.273  12.826  26.231  0.3899  0.0130  0.2958
59371W        W60235  14.579   0.774   9.499 -0.1391 -0.1734 -0.3652
59372W        W60236   9.624  23.292   4.728 -0.0235  0.0316  0.0411
59373W        W60237   3.749  13.444   7.746 -0.1285 -0.2853 -0.2015
59374W        W60238  19.359  22.245   2.972 -0.0312  0.2066  0.0784
59375W        W60239  24.628  15.835   8.807 -0.0351 -0.1191  0.0081
59376W        W60240   5.984  17.230  17.691  0.0539 -0.2601  0.1558
59377W        W60241   5.607  11.622  23.307  0.3129  0.0734 -0.1613
59378W        W60242  12.027  14.948   5.534  0.0299  0.3483  0.2350
59379W        W60243  10.909  19.456   8.641  0.0693  0.0667 -0.1740
59380W        W60244  25.974  16.594  22.794 -0.1282 -0.1694  0.1435
59381W        W60245  14.643   4.925   5.111  0.0580 -0.0667  0.0557
59382W        W60246   7.374  16.862  17.928  0.0918  0.0598 -0.0943
59383W        W60247  21.541   7.890   4.853 -0.1409 -0.1474 -0.0555
59384W        W60248  21.882  26.030  28.190 -0.1852  0.0249 -0.1373
59385W        W60249  17.238   6.633  10.818 -0.4416  0.0006 -0.2736
59386W        W60250  23.687  27.433   9.304  0.0320  0.0329 -0.1815
59387W        W60251   5.476  18.207   9.098 -0.1430 -0.2223  0.1774
59388W        W60252   9.500   9.283  28.772  0.2055 -0.2837 -0.1517
59389W        W60253  15.967  26.374  18.085  0.1157  0.1175  0.1040
59390W        W60254   0.382  17.111  23.041  0.0788  0.2333 -0.0263
59391W        W60255  21.728  22.558  25.752  0.2271  0.0867 -0.3633
59392W        W60256  12.252  27.816   5.114 -0.0983 -0.0745 -0.3858
59393W        W60257  18.022  19.390  14.156  0.2598  0.3398  0.0661
59394W        W60258  22.141  12.898   9.802  0.0707 -0.0579  0.1275
59395W        W60259  11.704  13.211   9.555 -0.0812 -0.0353  0.1712
59396W        W60260  10.804   1.920   8.626  0.2576 -0.1373 -0.1522
59397W        W60261   8.167  22.596  13.737 -0.0907 -0.2873 -0.1828
59398W        W60262  19.919  10.583   8.118 -0.1738  0.1813 -0.0357
59399W        W60263  19.318   8.417   6.014  0.2459  0.2169  0.2243
59400W        W60264   7.865  11.703  26.395  0.3015  0.1653 -0.0661
59401W        W60265   8.424  20.979  12.205 -0.1194 -0.4187  0.3816
59402W        W60266  13.374  10.574   2.065 -0.1219 -0.0329 -0.0756
59403W        W60267   5.824   6.334  17.719 -0.1116  0.2336 -0.1476
59404W        W60268  15.713  14.798  18.900  0.0030 -0.2058  0.2189
59405W        W60269  14.181   0.813  18.205 -0.1039  0.1017  0.1002
59406W        W60270  23.227  11.549   4.832 -0.7095  0.0657  0.1013
59407W        W60271   7.850   3.249  17.970  0.1542  0.1634  0.0868
59408W        W60272   6.529  16.914  24.848 -0.0587 -0.1334  0.3534
59409W        W60273   9.287  25.126  13.768 -0.1651  0.3379  0.2297
59410W        W60274  27.553  19.845   9.545 -0.2479 -0.0347  0.1610
59411W        W60275  20.618   4.981  22.730  0.1453  0.0569 -0.0167
59412W        W60276  22.724   6.979  12.712 -0.3109  0.1906 -0.0575
59413W        W60277  11.058   5.699   8.247 -0.1262 -0.0656 -0.1103
59414W        W60278   6.084  11.228   2.962 -0.0558 -0.0398  0.1638
59415W        W60279   8.627  23.327  14.845 -0.1979 -0.0691  0.0244
59416W        W60280   6.716   9.840  12.000  0.1370  0.2480 -0.1416
59417W        W60281  12.716  15.876  23.418 -0.0411 -0.0951 -0.1925
59418W        W60282  11.827  23.209  17.907  0.0586  0.1677  0.1971
59419W        W60283  28.222  12.512  10.889 -0.0372  0.2921 -0.1673
59420W        W60284  14.314   7.170  16.040 -0.1796 -0.3706 -0.3927
59421W        W60285  29.143  18.416  12.556 -0.0521  0.0633 -0.1706
59422W        W60286   8.802  13.403  12.670 -0.1443 -0.1890  0.2933
59423W        W60287  12.230   5.969  21.221 -0.0843  0.1557  0.0008
59424W        W60288  26.375  13.791  28.156  0.0757 -0.1754  0.0712
59425W        W60289  28.898   5.260  26.384 -0.2462  0.1845  0.1725
59426W        W60290  27.792  24.707  16.862  0.0223  0.0683 -0.0094
59427W        W60291   2.658   5.151  21.685  0.1546 -0.1857  0.0599
59428W        W60292   6.561   2.578   7.363  0.2948 -0.2584  0.2321
59429W        W60293  11.406  22.457  22.564  0.5513 -0.0590  0.0634
59430W        W60294   1.808  28.587   9.261  0.4056  0.1055  0.2227
59431W        W60295   3.064  17.843   6.625 -0.0620 -0.1005 -0.0910
59432W        W60296   4.461  19.121  27.325 -0.0075  0.0364  0.1683
59433W        W60297  15.436  17.161  14.992 -0.1287  0.1867 -0.2244
59434W        W60298  24.596   9.190  25.916 -0.2857  0.0335 -0.0962
59435W        W60299  26.384   9.174   3.339  0.0799  0.0463  0.2299
59436W        W60300  20.617  13.118  16.067 -0.0137 -0.0712  0.0677
59437W        W60301   0.775  10.923  21.458  0.3579 -0.0275 -0.0155
59438W        W60302  11.044  24.738   9.770  0.2666  0.0037  0.1049
59439W        W60303  10.944  18.656   3.242 -0.1540 -0.1950  0.0745
59440W        W60304   6.621   9.913  20.671 -0.1722 -0.2130 -0.1585
59441W        W60305  12.950   9.586  20.309  0.1069  0.0541  0.2384
59442W        W60306  22.057   8.673  19.069  0.0302 -0.1714 -0.1491
59443W        W60307   9.426  12.464  13.877  0.2625 -0.3158 -0.1167
59444W        W60308   6.369   3.291  18.826  0.2623  0.0532 -0.0174
59445W        W60309  13.691   3.634   9.627 -0.0322  0.0777 -0.1192
59446W        W60310   6.159  12.857   5.535 -0.0620 -0.1505  0.0317
59447W        W60311  12.590   7.983  18.288 -0.3213 -0.0949  0.0780
59448W        W60312  19.599   0.187  13.858  0.0776  0.3054  0.0206
59449W        W60313   9.921   8.844  22.056  0.0242  0.1077 -0.1024
59450W        W60314  25.165   6.026  22.932 -0.0965 -0.1516  0.0637
59451W        W60315   4.227   5.364   3.740 -0.1344  0.0277 -0.3344
59452W        W60316   8.774   3.881  10.547  0.0690  0.2280  0.1013
59453W        W60317   6.802  23.832  13.362  0.1869 -0.2386 -0.2113
59454W        W60318   3.066  17.190  19.193  0.2462  0.1863  0.5025
59455W        W60319   7.686  22.471  13.788  0.0074 -0.2347 -0.0400
59456W        W60320   2.948  27.786   9.004 -0.0486 -0.0891  0.1973
59457W        W60321   9.898   9.948  21.162  0.1162  0.0236  0.1261
59458W        W60322  26.673  19.494  24.779  0.0124 -0.0755 -0.0511
59459W        W60323  15.180   7.971  25.948 -0.1324  0.1745 -0.2827
59460W        W60324  12.488  14.534  17.512 -0.2630 -0.0139  0.1033
59461W        W60325  19.657  21.470   3.876 -0.0034  0.0048  0.2128
59462W        W60326  24.195   8.722  26.574  0.2260 -0.0862  0.0628
59463W        W60327   3.933  17.802  16.604 -0.1680  0.0617  0.1897
59464W        W60328   5.931   7.199  23.460  0.0793 -0.1579 -0.0196
59465W        W60329   7.709  28.066  20.881  0.0529 -0.0907  0.0662
59466W        W60330  15.763  22.516  22.305 -0.0913 -0.1611  0.1665
59467W        W60331   6.105  11.585  20.018 -0.4408  0.1840  0.2956
59468W        W60332  14.174   3.485  29.116  0.0140 -0.0790  0.0447
59469W        W60333  13.427  15.178  19.784 -0.3238 -0.1045  0.3629
59470W        W60334  23.230  15.920  23.068 -0.1197 -0.0933 -0.1085
59471W        W60335  28.355   1.969  26.166  0.0765 -0.5547 -0.0093
59472W        W60336  15.243   3.924   7.956  0.1024 -0.1039  0.5044
59473W        W60337  12.120   5.857  26.276 -0.0698  0.0968 -0.0166
59474W        W60338  16.973  23.486   2.440  0.0500  0.3994  0.3576
59475W        W60339  22.269   0.243   0.592  0.3921  0.1416 -0.1662
59476W        W60340   5.169  15.537   5.218  0.5319 -0.1696  0.2528
59477W        W60341  25.233  14.232   3.445  0.0620  0.1228 -0.1464
59478W        W60342   3.774   5.078  19.439  0.0686 -0.4981 -0.0551
59479W        W60343  28.839  24.989   0.233  0.1077 -0.1258  0.0482
59480W        W60344  15.495  10.459  22.820  0.2678 -0.0459 -0.2005
59481W        W60345  22.256  14.141   2.456  0.0903  0.2170  0.1717
59482W        W60346  14.569   8.576  25.928  0.1303 -0.3257  0.1935
59483W        W60347  26.723  25.662  21.497 -0.0774  0.0293 -0.2755
59484W        W60348   9.109   3.178   7.889 -0.0978  0.1109 -0.0680
59485W        W60349   4.222  17.750   9.808 -0.1261  0.0262 -0.0074
59486W        W60350   7.293   3.436  12.129 -0.0775  0.0483 -0.1220
59487W        W60351   5.839  14.694  18.988 -0.2979 -0.0803 -0.1697
59488W        W60352  21.484   1.507  15.823 -0.4055 -0.0057  0.2265
59489W        W60353  27.166   1.476  13.041 -0.0855 -0.0243  0.3642
59490W        W60354  10.503  28.489   4.238 -0.0099 -0.2890 -0.0291
59491W        W60355  13.268  22.916  22.929  0.0279  0.2587 -0.2597
59492W        W60356  24.001  13.568  18.533  0.3721 -0.1069  0.0967
59493W        W60357   8.613  10.086  17.991  0.1009 -0.0804  0.0020
59494W        W60358  16.458  14.507  17.667 -0.3318  0.0268 -0.1101
59495W        W60359  21.375   5.823  28.581 -0.0848  0.0067 -0.0305
59496W        W60360  20.594  11.042   3.768 -0.0661 -0.2047  0.0068
59497W        W60361  21.287   3.882   7.127  0.0296 -0.0279  0.1068
59498W        W60362   7.813   5.338  16.734 -0.0341 -0.1271  0.1844
59499W        W60363  15.176  11.094  27.922  0.1022  0.2884 -0.0958
59500W        W60364  12.006   2.793  11.407  0.0772  0.2885  0.3345
59501W        W60365  25.875   4.506  11.134 -0.1858 -0.0123  0.0639
59502W        W60366   2.191  21.808   5.893  0.0808 -0.0362 -0.1383
59503W        W60367  18.188  11.342   8.214 -0.0728  0.0155 -0.0967
59504W        W60368   9.259  17.504   2.872 -0.2166  0.1800 -0.1634
59505W        W60369  12.276  17.379  27.664  0.2954  0.0920  0.1590
59506W        W60370  20.812   5.897  16.161  0.0823 -0.0161 -0.0380
59507W        W60371  19.871  19.216  15.521  0.1205 -0.1494 -0.0360
59508W        W60372  12.182   4.917   1.794 -0.2049 -0.0578  0.0720
59509W        W60373  21.225  10.961  11.194  0.0543 -0.0234  0.0292
59510W        W60374  22.486  10.938  14.741 -0.0932 -0.4001  0.0595
59511W        W60375  14.234  14.211  21.483 -0.1024 -0.0043 -0.0241
59512W        W60376  13.202   7.222  15.238 -0.2809 -0.0500  0.0989
59513W        W60377  14.206   7.815  23.368 -0.1462  0.1008  0.2185
59514W        W60378   5.802   3.108  24.157  0.0812  0.1659 -0.0371
59515W        W60379   5.948   4.096  21.330 -0.1173 -0.0608 -0.0155
59516W        W60380  28.935  26.208  14.040 -0.1428  0.0297  0.3965
59517W        W60381   1.779   5.269  25.746  0.0207 -0.0479 -0.0110
59518W        W60382  22.568  28.549  22.622 -0.1431  0.0774 -0.0715
59519W        W60383   4.220  12.228  20.560 -0.0177 -0.1279  0.1351
59520W        W60384  24.125  13.549  11.943 -0.0801  0.1607 -0.1622
59521W        W60385  25.999  26.461  23.627 -0.4848  0.1981 -0.1310
59522W        W60386  14.788   2.921   3.423  0.2728 -0.0322  0.0366
59523W        W60387  22.835   8.535  28.661  0.1113  0.0567  0.0749
59524W        W60388  14.803   0.464  22.956 -0.3221 -0.1068 -0.1006
59525W        W60389  13.836   1.684  27.436 -0.1204  0.0382 -0.0757
59526W        W60390  10.787  19.077  27.144 -0.1000  0.0951  0.2689
59527W        W60391  12.630  25.792   7.897 -0.0069  0.0711  0.0830
59528W        W60392  13.921  27.961   6.729 -0.1035 -0.2071 -0.0656
59529W        W60393   6.380  11.772  11.901 -0.3417 -0.0391  0.0269
59530W        W60394   5.106   4.750  13.086  0.4872 -0.0079  0.1387
59531W        W60395  22.368   7.923   9.721  0.0306  0.0910 -0.0288
59532W        W60396  16.314   1.643  18.958  0.3001 -0.2317  0.0049
59533W        W60397  11.865  26.089  15.722 -0.1009  0.1153 -0.1518
59534W        W60398   1.984  23.118   0.225  0.1644  0.0714  0.0048
59535W        W60399  16.087   2.512  28.671  0.1009 -0.5346  0.2349
59536W        W60400  12.149   4.727  28.608 -0.0208 -0.2058 -0.0059
59537W        W60401  15.888   9.842  13.634  0.0444 -0.1950  0.1746
59538W        W60402   1.161   6.351   4.947  0.1866 -0.0029 -0.1630
59539W        W60403   4.788  29.077   5.115  0.2010  0.0191  0.0193
59540W        W60404   8.453   0.160   2.698 -0.1046  0.0950  0.2252
59541W        W60405   7.245  24.525  17.690  0.1509  0.1117 -0.0410
59542W        W60406  24.249  17.689   7.531  0.0651 -0.0170  0.0180
59543W        W60407   9.042  14.493  20.205  0.2702 -0.0899  0.0429
59544W        W60408  15.117  11.275  17.043 -0.1167  0.3522 -0.0097
59545W        W60409  21.107   8.012   5.253  0.2389  0.0469 -0.0113
59546W        W60410  13.545  28.936  25.922 -0.0484  0.0847  0.0947
59547W        W60411  12.448  13.930   6.286  0.2225 -0.0726 -0.1563
59548W        W60412  14.387   4.040  13.280  0.1538 -0.0224 -0.0271
59549W        W60413  28.357  13.632  16.360 -0.0847 -0.0258 -0.0464
59550W        W60414  22.951  21.104  13.846 -0.0189  0.0559 -0.4232
59551W        W60415  23.986   8.869   6.520  0.0082  0.4441  0.3164
59552W        W60416   6.009   6.215  26.448 -0.0728  0.0367  0.0095
59553W        W60417   5.509   3.051   4.142  0.0790 -0.0885  0.4164
59554W        W60418   4.085  13.666   7.422  0.3927  0.1262  0.1809
59555W        W60419  11.285  11.768   3.932  0.1830 -0.0401  0.1725
59556W        W60420  27.232  15.896  18.581  0.0142  0.1598 -0.0453
59557W        W60421   6.779   8.047  13.233 -0.0940 -0.0261 -0.3182
59558W        W60422   0.638  28.986  12.494  0.1448 -0.3112 -0.4049
59559W        W60423   5.147  24.253  11.951  0.2646  0.1768  0.1383
59560W        W60424   4.782   4.891  14.740  0.0838  0.2886 -0.0602
59561W        W60425   8.242   5.989  23.849 -0.2461 -0.2015 -0.0516
59562W        W60426   1.561   5.037  17.423  0.1057  0.0223 -0.0330
59563W        W60427  13.064  14.008  14.635 -0.0027 -0.0083 -0.0555
59564W        W60428  14.312  10.422  15.047 -0.1332 -0.0494 -0.2408
59565W        W60429  19.976  25.393   6.043 -0.0848 -0.1187 -0.2599
59566W        W60430  17.543  10.117   3.701  0.0660 -0.0657  0.0557
59567W        W60431  25.656   9.716  22.822  0.0110  0.0711  0.0749
59568W        W60432   6.421  24.328  13.086  0.1518  0.0996  0.0738
59569W        W60433   3.999  18.327  25.351 -0.0690 -0.0276 -0.0991
59570W        W60434   8.241  12.573  24.294 -0.2352 -0.0153 -0.3147
59571W        W60435  11.644   1.841  17.921 -0.0593 -0.0769 -0.0305
59572W        W60436  23.789   1.416   7.770 -0.0399  0.1833  0.1855
59573W        W60437  19.303   6.059   3.423 -0.3977  0.0172 -0.1962
59574W        W60438  22.553   4.916  18.077  0.0088  0.0464  0.2884
59575W        W60439  21.429   4.886   7.477  0.1047 -0.3204 -0.0453
59576W        W60440   5.727   3.072  27.485 -0.3656 -0.3564 -0.0312
59577W        W60441  11.824  16.953  25.090  0.1824 -0.0394 -0.2551
59578W        W60442   8.074  16.086   1.419  0.1583  0.2545 -0.0520
59579W        W60443  24.955  13.088   3.532 -0.1090 -0.0972  0.1106
59580W        W60444  25.349   8.204  22.115 -0.2158  0.1058  0.0672
59581W        W60445  12.618  14.508  22.939 -0.2016  0.1297  0.3359
59582W        W60446  23.217  28.944   6.370  0.1242 -0.0196  0.3852
59583W        W60447   5.260   0.440  15.761  0.0608 -0.2434  0.1541
59584W        W60448  14.549  26.280  20.232  0.0349  0.2680  0.1703
59585W        W60449  18.918  23.483   9.240  0.1864 -0.2031  0.0992
59586W        W60450   9.533   8.459   8.444  0.3419 -0.2697  0.0948
59587W        W60451  22.007   9.570  16.548 -0.1070  0.0051 -0.1779
59588W        W60452  22.607  10.719  18.293  0.2855  0.1149  0.0497
59589W        W60453  20.168   8.223   7.721  0.2226  0.0257 -0.3034
59590W        W60454   6.293  18.498   8.579 -0.1862 -0.2266  0.0272
59591W        W60455  11.491  14.876   4.629  0.0427 -0.2308  0.1724
59592W        W60456  22.732   2.607  22.479 -0.1889 -0.1956 -0.0091
59593W        W60457   5.863  12.709   4.494 -0.2767 -0.2683  0.0153
59594W        W60458  24.321   0.718  14.612  0.1724 -0.1322 -0.3588
59595W        W60459  18.584  22.245   7.740  0.0880  0.1179  0.2096
59596W        W60460  11.489  24.164  10.535  0.3438  0.3444 -0.0250
59597W        W60461  16.829  27.631  11.461  0.1331  0.0468 -0.1201
59598W        W60462  22.539   4.534  22.250  0.2487 -0.1929  0.2403
59599W        W60463   6.175  14.449   3.466  0.1581  0.2456 -0.1749
59600W        W60464   5.966   8.654  21.121 -0.0748  0.0526 -0.0817
59601W        W60465  23.533  15.131  16.413 -0.2840 -0.1587 -0.0793
59602W        W60466  29.030  11.167   2.432 -0.1491 -0.2039 -0.0470
59603W        W60467   5.204  15.663  10.249  0.0246  0.0035  0.0178
59604W        W60468   0.503  24.365  23.260 -0.0623 -0.0016 -0.3706
59605W        W60469  16.321  22.869  12.886  0.0788 -0.0066 -0.0272
59606W        W60470  19.631  16.660  19.539  0.1102  0.0004 -0.1619
59607W        W60471   0.094  17.124   1.951 -0.1085 -0.1760 -0.2216
59608W        W60472  28.366   2.150   0.701  0.3804  0.2265  0.0602
59609W        W60473  10.300   2.646  23.419 -0.1090  0.1390  0.4956
59610W        W60474  18.129  27.443  12.604 -0.2427  0.4066 -0.2334
59611W        W60475  28.418  11.814   6.292  0.1117 -0.2365  0.4584
59612W        W60476   1.052  12.299  15.032  0.3146 -0.1600  0.0198
59613W        W60477  21.019  11.241  27.754 -0.0454 -0.1325  0.1931
59614W        W60478  10.154   3.702  15.721  0.4005 -0.3718  0.2805
59615W        W60479  19.129   2.533  16.935  0.1746  0.0005  0.1640
59616W        W60480   9.423  11.712  18.392 -0.2143  0.0155 -0.1393
59617W        W60481  13.466  11.793  12.679 -0.0445  0.1307 -0.1674
59618W        W60482  16.597  15.056   4.985 -0.3074  0.1000 -0.0106
59619W        W60483  12.239  17.608   6.961 -0.3007 -0.0841  0.0288
59620W        W60484  19.091  10.198  16.562  0.2648  0.2393 -0.4271
59621W        W60485   4.899   5.157  12.650  0.3540 -0.1676 -0.1870
59622W        W60486  15.917  28.228  16.977 -0.0981  0.1055  0.2556
59623W        W60487   6.755   1.232  11.224 -0.0352  0.0214 -0.2857
59624W        W60488  11.646  28.300  13.270  0.0137 -0.2709  0.0384
59625W        W60489   1.546  19.462  12.031  0.0024  0.3016  0.1494
59626W        W60490   9.203   6.862  20.066  0.1234  0.1997  0.0657
59627W        W60491   6.978   5.441   0.192 -0.1748  0.1796  0.0609
59628W        W60492   1.082  13.891  13.345  0.2288  0.1712  0.1691
59629W        W60493  26.895  14.824  23.386 -0.1838  0.0463  0.4436
59630W        W60494   8.936  17.832  12.218  0.1410  0.1055  0.4481
59631W        W60495   6.229   3.778  16.760 -0.0548 -0.1753  0.0516
59632W        W60496  13.451  12.022  10.483  0.0993 -0.1710 -0.2966
59633W        W60497   3.225   1.516  17.961  0.0425 -0.0401 -0.1929
59634W        W60498   6.002  13.435   7.157  0.1718  0.0562 -0.1367
59635W        W60499  20.297   9.922  25.015 -0.3671  0.0613 -0.3743
59636W        W60500  17.244  12.952  16.783 -0.1345  0.1808 -0.1089
59637W        W60501  12.507  27.708  27.351 -0.0588 -0.3654  0.1997
59638W        W60502  18.014   5.457  22.834 -0.0774  0.1010 -0.0634
59639W        W60503  16.988  18.942  13.532 -0.0164 -0.3059 -0.3188
59640W        W60504  25.993  21.502  18.083  0.0203  0.2456  0.0967
59641W        W60505  25.903  13.456  26.875 -0.1019  0.3388  0.0668
59642W        W60506  28.574   8.473   5.754  0.2131  0.1744  0.2088
59643W        W60507  17.110  12.180  23.427  0.0426  0.1442  0.1151
59644W        W60508   8.604  24.596  24.455 -0.0851  0.0510  0.0482
59645W        W60509  18.032   8.413  17.700  0.1192 -0.0833 -0.0555
59646W        W60510   3.909  27.370   8.155 -0.0824 -0.2688 -0.2047
59647W        W60511  25.932  22.557  17.306 -0.2704  0.0378 -0.4656
59648W        W60512  19.868   7.651  24.012  0.0014 -0.1640 -0.1122
59649W        W60513  23.028  25.091  10.192 -0.3767 -0.4509  0.0433
59650W        W60514  20.603   4.019  16.802 -0.2100  0.0370  0.4047
59651W        W60515  14.466   9.169  25.897 -0.1496 -0.2610  0.1611
59652W        W60516  21.026  11.577  18.580 -0.2715  0.2527  0.0638
59653W        W60517   7.394   1.822  10.874  0.3475  0.2378  0.2774
59654W        W60518  11.233  21.236  23.885  0.1156  0.2094  0.3334
59655W        W60519  18.025  17.959   8.742 -0.0462  0.2444 -0.0650
59656W        W60520  10.586   5.005  12.213  0.0659  0.0132  0.0609
59657W        W60521  26.110   3.288  12.680 -0.1795  0.3581  0.0219
59658W        W60522   3.591   8.591  13.392 -0.0574  0.4856 -0.0599
59659W        W60523   3.012  27.029  23.970 -0.0740 -0.0194 -0.1842
59660W        W60524  11.714  15.037   4.177 -0.0449  0.1184  0.1471
59661W        W60525   6.312   6.197  15.843 -0.2418 -0.3239 -0.2081
59662W        W60526  15.303  13.998   9.591  0.2259 -0.0425  0.1818
59663W        W60527  18.880  11.717  12.431 -0.0236  0.2451 -0.1776
59664W        W60528  23.911  10.403  16.602 -0.1246  0.0381  0.0224
59665W        W60529  11.685   2.127   2.235 -0.2362  0.1874  0.0065
59666W        W60530   6.951  18.014  12.944 -0.2059  0.1774  0.1361
59667W        W60531  28.709   6.610   1.285 -0.0852 -0.0015  0.0629
59668W        W60532  21.990  17.099  24.504 -0.0906  0.1418 -0.0839
59669W        W60533   8.239  12.299  11.822  0.0120 -0.0066  0.2575
59670W        W60534   9.923  22.032  17.013  0.0694  0.2460 -0.0790
59671W        W60535   5.665   9.798   5.002  0.1526  0.0236 -0.1311
59672W        W60536   6.508  11.334   5.439  0.0164 -0.0527  0.0210
59673W        W60537  12.775  17.776  14.935 -0.0014  0.3233 -0.3447
59674W        W60538  15.034  16.736  23.584  0.1348 -0.1641  0.2761
59675W        W60539   5.345  11.997   5.654 -0.3043  0.0121  0.3048
59676W        W60540   8.874  14.606  12.358  0.1521 -0.0535  0.0209
59677W        W60541  19.615   9.319  12.619  0.0797  0.2166  0.1952
59678W        W60542  13.617  14.327  10.811  0.0506 -0.0573 -0.0544
59679W        W60543  11.929  13.479  22.184 -0.1245 -0.1679 -0.3145
59680W        W60544   6.884  12.330   9.981  0.2130  0.0697  0.2792
59681W        W60545   5.174  16.571   0.093  0.0296 -0.1632  0.1519
59682W        W60546  18.230   7.819  11.234  0.1302  0.0902 -0.1609
59683W        W60547   7.955   3.389  18.591  0.1043 -0.2189 -0.0033
59684W        W60548   7.484  15.661  20.667 -0.1366 -0.1051 -0.0985
59685W        W60549  22.763   7.356  13.934 -0.0487 -0.1072  0.0192
59686W        W60550  17.892  16.236  23.586  0.4130  0.1638 -0.0911
59687W        W60551   9.226   5.396  12.378 -0.0313 -0.0722  0.1061
59688W        W60552  12.342   9.142  20.253  0.0257 -0.0215 -0.0557
59689W        W60553  22.988  29.028   9.129 -0.1113 -0.0189 -0.2310
59690W        W60554   7.776  19.071  20.765  0.1102  0.0025 -0.0334
59691W        W60555   7.760   2.833   6.710  0.1763  0.0027  0.0691
59692W        W60556  24.245  18.280  12.806 -0.2525 -0.0141 -0.2178
59693W        W60557  28.564  19.358   1.398  0.1430 -0.0784 -0.1385
59694W        W60558  11.539   1.547  23.113  0.1262 -0.1867 -0.1637
59695W        W60559   3.017  23.202  10.833  0.1119 -0.2208  0.2281
59696W        W60560  20.317  14.457   0.909  0.0886  0.0480  0.0399
59697W        W60561  19.920  23.939   7.305 -0.0454 -0.2471  0.4589
59698W        W60562   5.502   1.439  15.369 -0.0677  0.0476  0.0348
59699W        W60563  17.325   8.467   2.862 -0.0946  0.0509  0.0761
59700W        W60564  24.894   5.251  14.687 -0.1259 -0.0179  0.0238
59701W        W60565   2.300  20.393   3.183 -0.1224  0.1460  0.1965
59702W        W60566   2.671   7.474  22.199  0.0105 -0.1218 -0.0010
59703W        W60567  27.359   4.276   9.991  0.0291 -0.0306 -0.4298
59704W        W60568   1.467   5.289  24.408 -0.1403 -0.0237 -0.1164
59705W        W60569  10.749  15.154  12.787 -0.0838 -0.0760  0.0238
59706W        W60570   5.394  13.091  14.679 -0.0437  0.0759 -0.0906
59707W        W60571  11.189   5.709   0.696 -0.1444  0.3366  0.1911
59708W        W60572   9.720   9.650  18.451 -0.1917 -0.0121  0.0885
59709W        W60573  14.612  18.890   0.109 -0.1310  0.0631  0.1250
59710W        W60574   7.162   7.683  12.710  0.0733  0.0325  0.1365
59711W        W60575   4.660   9.082  29.111 -0.2222  0.2981 -0.0157
59712W        W60576  11.027   7.969  20.653  0.3198  0.1614  0.1170
59713W        W60577  25.858  18.767  22.100 -0.0080 -0.4718  0.1810
59714W        W60578  27.590  13.323  17.884  0.2302 -0.2143 -0.3351
59715W        W60579  23.886  24.622  19.493 -0.1226  0.0472  0.1277
59716W        W60580  14.127   2.485  13.780  0.2069 -0.0004 -0.4600
59717W        W60581   5.701   8.726   9.454  0.1369 -0.0788  0.0998
59718W        W60582  28.306  15.801  20.825  0.2606 -0.0327 -0.1068
59719W        W60583   1.037  27.936  17.531  0.1171 -0.3054  0.1534
59720W        W60584   1.550  18.501  17.792  0.0184 -0.0263  0.2291
59721W        W60585  10.000   3.871  12.370 -0.2522  0.0223  0.0675
59722W        W60586  12.598   5.626  17.535  0.0001 -0.1129 -0.1469
59723W        W60587   8.706  14.487  11.247  0.0337  0.2934  0.1671
59724W        W60588  14.871   9.215  16.744 -0.2645  0.0561 -0.1565
59725W        W60589  18.304   8.810  16.668  0.2600 -0.1265  0.0340
59726W        W60590  19.129   7.866   1.961 -0.0409 -0.1040  0.0052
59727W        W60591  26.778  18.623  17.924 -0.0855 -0.1594 -0.2806
59728W        W60592  28.530  12.207  11.496  0.0074 -0.1727  0.0271
59729W        W60593  14.595  10.219  15.457  0.2493  0.4114 -0.0285
59730W        W60594  16.385   4.135  20.379  0.2637  0.2213  0.0474
59731W        W60595  12.210  13.010  12.349 -0.1503  0.1446 -0.1222
59732W        W60596  11.013  18.993  11.976 -0.0374 -0.1340 -0.0966
59733W        W60597  28.525  23.339   9.378 -0.0462  0.3536  0.1984
59734W        W60598   4.402  14.509  10.802  0.0096  0.2212 -0.3411
59735W        W60599  16.338  18.455   1.358 -0.1336  0.1945  0.0341
59736W        W60600  15.678  19.141  16.111 -0.1638 -0.3923  0.0340
59737W        W60601  26.173  11.722   0.951  0.0902  0.2485 -0.1583
59738W        W60602  12.361   7.814  12.724 -0.1021 -0.2352 -0.2938
59739W        W60603   1.892  18.605  22.235 -0.2231 -0.2841  0.3806
59740W        W60604  18.961   9.971   8.978  0.1924 -0.0040  0.1309
59741W        W60605  12.157   3.323  16.001 -0.0545  0.1747 -0.0259
59742W        W60606   1.121   4.017  14.347 -0.0393 -0.1099  0.0406
59743W        W60607  10.017   9.298  25.072 -0.3303 -0.1137 -0.0216
59744W        W60608  12.546   3.424   3.734 -0.2430 -0.0327 -0.1138
59745W        W60609  13.985   1.999  13.984  0.0195  0.0890 -0.1034
59746W        W60610  22.891  24.612  21.972  0.2201  0.1791 -0.1645
59747W        W60611   3.922  18.531  14.666  0.0400 -0.0299  0.5290
59748W        W60612   8.092  10.197   8.429  0.1610 -0.0768  0.0732
59749W        W60613  23.857  22.070  16.799 -0.0211 -0.5090 -0.1157
59750W        W60614  12.622  10.300  23.805  0.1590 -0.0452  0.4715
59751W        W60615  13.166  24.858  14.253 -0.0037  0.0245 -0.0029
59752W        W60616  15.116  20.071  10.800 -0.1502  0.1351  0.0979
59753W        W60617  13.833  22.459  10.618 -0.1020  0.1751  0.2075
59754W        W60618   6.397   2.866  18.482 -0.0699  0.1196  0.2487
59755W        W60619  17.435  13.707  27.518  0.0069  0.2672  0.3298
59756W        W60620   6.009   6.830  24.214 -0.0680 -0.4854  0.3964
59757W        W60621   7.353   9.628  25.039  0.0651  0.0225 -0.2337
59758W        W60622   3.484  13.315  18.821 -0.1920  0.2895 -0.0044
59759W        W60623  25.396  26.364   0.886  0.2800 -0.2819  0.1497
59760W        W60624  17.284   0.577  18.419  0.0559 -0.0299  0.1990
59761W        W60625  11.257  15.278  16.391  0.0262 -0.2621 -0.1153
59762W        W60626  15.782  17.082   7.137  0.1482  0.3138  0.2279
59763W        W60627  10.567  18.554   0.278 -0.0307  0.1838 -0.2343
59764W        W60628  14.218  26.056   9.075  0.0524 -0.3078 -0.1905
59765W        W60629  22.334  11.525  12.180  0.0719  0.1706 -0.0059
59766W        W60630   3.708  16.941   4.096 -0.0306  0.0747 -0.0842
59767W        W60631  25.149  27.970   9.195 -0.0505 -0.0802 -0.2950
59768W        W60632  27.422  13.530  22.437  0.0243 -0.0504  0.2065
59769W        W60633  14.273   7.150  22.246 -0.2971  0.0612 -0.1303
59770W        W60634  25.586  26.666   3.798  0.0509 -0.5310  0.2742
59771W        W60635  25.427   4.265  11.528 -0.1678 -0.0290  0.0092
59772W        W60636  10.835   3.840  22.068  0.3000  0.0241  0.0640
59773W        W60637  12.711   4.166  14.552 -0.0679  0.4098  0.1026
59774W        W60638   4.566   6.356  19.155 -0.2824  0.2778 -0.1070
59775W        W60639   4.632  10.960   7.921 -0.0792 -0.1156  0.0953
59776W        W60640  22.018   9.517  19.393  0.1972 -0.1670  0.0279
59777W        W60641   2.773  24.386  21.083  0.0153 -0.0178  0.1066
59778W        W60642   5.086  14.928  26.867  0.0255 -0.1613 -0.0583
59779W        W60643   8.078   6.204   5.667 -0.0458  0.2457  0.2616
59780W        W60644  18.836   6.559  16.145 -0.1193 -0.0599 -0.3875
59781W        W60645  16.891  24.652  14.971  0.0662 -0.1206 -0.0910
59782W        W60646   9.475  21.487  22.559  0.0266  0.2946  0.2871
59783W        W60647  28.674  10.932  26.478 -0.1271  0.1858  0.0631
59784W        W60648  16.183  13.682  19.541 -0.1575  0.2349 -0.4327
59785W        W60649  11.744  13.753  26.204 -0.0207 -0.0021 -0.0730
59786W        W60650  18.813  18.241  22.231 -0.1769  0.0096  0.2437
59787W        W60651  19.687  27.305  10.627 -0.1392 -0.0483 -0.3307
59788W        W60652   2.598   2.641  23.335 -0.0483 -0.0056  0.3415
59789W        W60653  17.706   9.293   7.350  0.1100  0.1212  0.1038
59790W        W60654  10.697   9.319  10.384  0.2112 -0.0226  0.0879
59791W        W60655  18.845  11.792   1.182  0.0152  0.2080  0.1606
59792W        W60656   5.528  11.574  26.509 -0.0429 -0.1610 -0.1540
59793W        W60657  12.696  13.226   1.482  0.0100 -0.3221  0.0229
59794W        W60658  16.574   0.944  15.167 -0.0237 -0.2110  0.0373
59795W        W60659  14.833   9.877  16.769 -0.0425 -0.1499 -0.2280
59796W        W60660   8.960   7.157   9.085  0.0472  0.2992  0.3011
59797W        W60661   7.817  12.924  10.182 -0.1622  0.0804 -0.2363
59798W        W60662  28.056   0.781   4.330  0.2354  0.0084  0.0549
59799W        W60663  21.598   8.576   0.950 -0.3837  0.1056 -0.3363
59800W        W60664   5.819   2.542  14.077 -0.0773  0.0815 -0.4176
59801W        W60665   7.329  27.247  20.955 -0.0372  0.3639 -0.2296
59802W        W60666  15.311  15.737  25.376 -0.1041  0.1879 -0.0434
59803W        W60667  12.572  20.783  23.117 -0.0044  0.1565  0.0403
59804W        W60668   7.419  14.854  25.968  0.0271  0.0059  0.2595
59805W        W60669  19.023   8.548  28.769  0.0502  0.2731 -0.2913
59806W        W60670  16.677   0.182  24.374 -0.1713 -0.0163 -0.0352
59807W        W60671  10.274  17.040  22.977  0.1893  0.2032  0.2712
59808W        W60672  14.774  16.969  18.202 -0.1198  0.1206 -0.1771
59809W        W60673  11.158   8.939   9.401  0.1639 -0.0501  0.0670
59810W        W60674   1.220  27.298  26.471 -0.2121 -0.0509  0.3476
59811W        W60675   9.962  26.743   1.278 -0.1586  0.0004 -0.1508
59812W        W60676  27.987  22.573  14.807  0.1410 -0.1633  0.3806
59813W        W60677  14.414  19.198  15.812 -0.0027  0.1674 -0.0164
59814W        W60678  12.175   4.975   6.060  0.1203 -0.1333 -0.1104
59815W        W60679  28.805  27.285   3.844 -0.1098  0.1597  0.0969
59816W        W60680  14.252  19.830  19.512  0.1121 -0.0146 -0.1212
59817W        W60681  10.778  21.596  28.092 -0.0212  0.0230  0.1133
59818W        W60682   4.618  13.694   2.581 -0.0128  0.1470 -0.0073
59819W        W60683  26.522  21.887   5.416  0.1757  0.1111  0.1328
59820W        W60684  12.530  15.693  13.200  0.1328  0.0379 -0.0400
59821W        W60685  19.025  11.361   1.779  0.2164 -0.0609  0.0132
59822W        W60686   3.854  12.840  13.082 -0.1776  0.1925  0.2065
59823W        W60687  21.389   5.532  13.914  0.0641 -0.0548  0.0846
59824W        W60688  12.045   0.208  17.579  0.2631  0.1780 -0.0710
59825W        W60689   9.852  14.828  18.971  0.2899 -0.0400 -0.0491
59826W        W60690  20.329  10.215   6.080  0.1312  0.0187 -0.0082
59827W        W60691  24.507  19.007  11.888 -0.2584 -0.0787  0.0920
59828W        W60692  16.216   9.423  22.225 -0.2965  0.0784  0.1754
59829W        W60693  13.506  27.906  25.698 -0.1819  0.0884 -0.2299
59830W        W60694   8.298   5.544  24.657 -0.0170 -0.0873  0.1869
59831W        W60695  28.142   0.562  14.198 -0.2404 -0.1556 -0.2884
59832W        W60696  20.235  19.194   8.801  0.1526  0.2498 -0.0185
59833W        W60697  21.209  20.449  23.982 -0.0608  0.2284 -0.4169
59834W        W60698   4.019  21.239  13.865  0.1700 -0.2048 -0.2896
59835W        W60699  16.123   6.578  20.263  0.3372 -0.1944  0.0532
59836W        W60700  11.706  16.278   7.592 -0.0296 -0.0863  0.1382
59837W        W60701  19.997   0.140  10.322  0.1738 -0.0791 -0.1576
59838W        W60702  17.606  20.181  22.374  0.0206 -0.2226  0.0528
59839W        W60703   9.755  26.474  19.877 -0.1802  0.3002 -0.0582
59840W        W60704  27.108   5.639  17.457  0.1902 -0.2002  0.0872
59841W        W60705  25.196  24.112  14.050 -0.1605 -0.0276 -0.1748
59842W        W60706  14.297  15.062  20.923 -0.0963  0.0094  0.2158
59843W        W60707  18.259   4.041  17.835 -0.0751 -0.1381 -0.2847
59844W        W60708  20.639   4.429  27.600  0.0262 -0.0482  0.0384
59845W        W60709  16.993   8.032  23.614 -0.0351 -0.1012  0.0387
59846W        W60710  14.544  13.569  12.615 -0.2574 -0.2395  0.3906
59847W        W60711  28.636   8.559  12.720 -0.0666 -0.1109  0.2355
59848W        W60712  27.246   3.560  17.448  0.0408  0.1657  0.3449
59849W        W60713  14.569   8.406  14.708 -0.2852  0.0985 -0.4291
59850W        W60714  23.784   1.455  20.613  0.0867 -0.0473  0.1546
59851W        W60715   3.778  23.974  27.000  0.0712 -0.3404 -0.2456
59852W        W60716  10.554  10.260  17.941 -0.0248 -0.4648 -0.0636
59853W        W60717  22.015   0.158  16.233  0.3858  0.3820 -0.1372
59854W        W60718  24.179  28.456  15.384 -0.0017  0.1833 -0.1543
59855W        W60719   9.552  10.360   5.667  0.2743  0.0164  0.0812
59856W        W60720  15.745  12.340   2.232  0.2198  0.2222  0.3103
59857W        W60721  22.763  27.455  13.354  0.0631 -0.2954  0.4013
59858W        W60722   9.359  15.607   4.363  0.2244  0.0742  0.1753
59859W        W60723   1.998  27.918   8.477  0.0608  0.0899  0.0428
59860W        W60724  13.115   0.217  16.846  0.0518 -0.1385  0.0845
59861W        W60725  24.227  13.677  25.668  0.0415  0.1583 -0.1167
59862W        W60726  10.127  13.037  27.243 -0.0122 -0.1099  0.1768
59863W        W60727  26.977  19.297  27.924  0.1919 -0.0594  0.1804
59864W        W60728   8.020   2.898  17.093  0.0742 -0.1748  0.2922
59865W        W60729  10.218  26.354  16.976  0.1155 -0.0201  0.1047
59866W        W60730   4.079  12.383  12.737  0.0483  0.0457  0.2958
59867W        W60731  20.477   4.808  15.164 -0.3887  0.1210  0.1283
59868W        W60732  18.196  15.925  26.175  0.0239 -0.1362 -0.2867
59869W        W60733   3.465  22.673  25.018 -0.3129 -0.0716  0.0583
59870W        W60734  17.013  11.763   5.325 -0.0951  0.1400  0.1190
59871W        W60735   9.641  23.380   6.721 -0.1707  0.0832 -0.0180
59872W        W60736  20.017   5.806   7.093 -0.4034  0.1525  0.1314
59873W        W60737   1.613   3.852  27.256  0.1000 -0.3596  0.0481
59874W        W60738   8.319  17.728  19.345 -0.0471 -0.0373  0.2624
59875W        W60739  19.357   7.957  18.335 -0.1920 -0.0351 -0.2538
59876W        W60740   4.987  14.950  10.017 -0.0700  0.5261  0.1347
59877W        W60741   0.223  13.281   7.723 -0.1100 -0.0310 -0.0105
59878W        W60742   0.721  17.770  21.711 -0.1828  0.2121 -0.0824
59879W        W60743   1.744  16.457  28.716 -0.0902 -0.0923 -0.1417
59880W        W60744  10.987  11.181   4.583 -0.0209 -0.0742  0.4794
59881W        W60745   7.788  21.274  22.223  0.2252 -0.0974 -0.3280
59882W        W60746   8.981   5.669   3.104  0.2997 -0.1119 -0.0077
59883W        W60747  14.422  26.482  19.697  0.3243  0.1679  0.1116
59884W        W60748   4.201  18.549   1.796 -0.0280 -0.0643 -0.2402
59885W        W60749  11.596   5.143   9.948 -0.1343  0.0184 -0.2897
59886W        W60750  18.651   7.970  28.398 -0.4123 -0.0540 -0.2465
59887W        W60751  10.928  14.230  18.594 -0.0039 -0.1461 -0.1614
59888W        W60752  17.137   1.531  21.533 -0.1682  0.2960 -0.0936
59889W        W60753  14.265  16.391  28.131 -0.0047 -0.1007  0.0827
59890W        W60754  16.844  12.090   6.716 -0.0275  0.0737 -0.3407
59891W        W60755  17.752  16.861  17.661  0.2882  0.3419 -0.0814
59892W        W60756  23.956   8.130   5.767 -0.2469  0.0181  0.0706
59893W        W60757  20.270   1.057  16.849  0.0489  0.0854 -0.1943
59894W        W60758  10.591  10.176  15.011 -0.4065  0.2620 -0.0880
59895W        W60759  24.231   7.779   6.082  0.1508  0.3732 -0.3998
59896W        W60760   7.663  19.568  18.631 -0.1260  0.1547  0.0674
59897W        W60761   9.304   9.141  10.878 -0.1671  0.1306  0.1144
59898W        W60762  20.033   3.835  23.586 -0.0846  0.3120  0.1445
59899W        W60763   5.760  10.596  21.502 -0.0745 -0.1248  0.1084
59900W        W60764  10.005  18.028  28.193  0.1376 -0.0094  0.2384
59901W        W60765   5.138   9.712   8.880  0.2730  0.1215 -0.2553
59902W        W60766  17.053  16.963   4.433  0.0839  0.2799  0.1387
59903W        W60767   0.550   2.925  22.679 -0.0551  0.1060  0.0772
59904W        W60768  10.487  24.802   5.026  0.0843  0.1093 -0.0530
59905W        W60769  10.960   7.229  23.296  0.0908  0.3819 -0.1824
59906W        W60770   4.049  24.303  28.558 -0.0628 -0.5293  0.2539
59907W        W60771  13.785   8.342  25.733 -0.1455  0.1874 -0.1459
59908W        W60772  10.175   1.615  24.786  0.0935 -0.0493  0.0928
59909W        W60773  16.617  19.017  23.119 -0.0434  0.3683  0.5516
59910W        W60774  14.521   1.219  14.067  0.0441  0.0110  0.0475
59911W        W60775   1.412  21.928  15.628  0.0318 -0.0420 -0.2341
59912W        W60776  23.238  12.077  17.392  0.1606 -0.3432 -0.0279
59913W        W60777  13.871   1.369   1.587 -0.1850  0.0466  0.4604
59914W        W60778  21.842   5.460   7.888 -0.1253 -0.2643  0.2970
59915W        W60779  25.848   5.274  10.963  0.2160  0.5139 -0.0829
59916W        W60780  27.682  16.743   4.286 -0.1596 -0.0377  0.0225
59917W        W60781   2.161   7.084  20.340  0.0864 -0.2073 -0.0430
59918W        W60782  16.803  28.466   8.946  0.3440 -0.1735  0.0328
59919W        W60783  11.357  16.825   3.723  0.0574 -0.0938 -0.0164
59920W        W60784  28.807  23.000  26.411  0.3400 -0.0342  0.0286
59921W        W60785  19.701   1.133  27.917  0.2843 -0.0689 -0.1438
59922W        W60786  15.480  15.956  19.142 -0.0393  0.1504 -0.0360
59923W        W60787  28.324  26.446   4.012 -0.1972 -0.0287 -0.1971
59924W        W60788   1.564  26.459  22.858 -0.3602 -0.2335 -0.0257
59925W        W60789   3.772   6.857  11.444 -0.1050  0.0713  0.0090
59926W        W60790  28.161  16.508  10.581 -0.4375 -0.0504  0.2314
59927W        W60791   6.810  22.216  20.524 -0.1731 -0.1640  0.0578
59928W        W60792  13.329  11.449  15.531 -0.1063  0.2049  0.3443
59929W        W60793  20.554   0.515  14.122 -0.1883 -0.1838 -0.1947
59930W        W60794  17.458  24.984  20.213  0.1214 -0.2909  0.0473
59931W        W60795   2.791   7.009  17.283  0.0624 -0.1092  0.0127
59932W        W60796   5.424   4.318  28.989 -0.3297 -0.0808  0.0606
59933W        W60797  19.347  16.924  27.182  0.2586 -0.0270  0.0188
59934W        W60798  21.068   2.018  22.609 -0.1612  0.3078 -0.2584
59935W        W60799  26.513   8.584  28.685 -0.0010  0.1764  0.1995
59936W        W60800   7.127   3.825  16.927 -0.3157 -0.1939  0.2929
59937W        W60801   8.532   5.107  12.587  0.2235 -0.1684  0.0901
59938W        W60802   0.115  10.427  19.522 -0.0769 -0.2501  0.1411
59939W        W60803   4.585   3.245  16.343 -0.2039  0.1690 -0.1182
59940W        W60804   7.521   8.163  10.515 -0.1480  0.0291  0.0602
59941W        W60805  14.433  24.103  24.353 -0.0661 -0.0348  0.1465
59942W        W60806  12.500   8.414  14.829 -0.2393  0.3974  0.4487
59943W        W60807  14.799  22.923  14.753  0.2952 -0.2622 -0.0481
59944W        W60808   5.899  12.580   2.557 -0.0209  0.2931 -0.2854
59945W        W60809   7.802   0.269  22.556 -0.1170 -0.1748 -0.2833
59946W        W60810  10.720  14.755  28.661 -0.1256  0.1656 -0.2922
59947W        W60811   7.628   9.803  18.090 -0.3701 -0.1112 -0.3638
59948W        W60812   3.522  25.561  18.552  0.0937  0.1446 -0.0680
59949W        W60813   3.689  17.520  21.700  0.0173 -0.2998 -0.0797
59950W        W60814  15.829   0.534   2.098 -0.0523  0.0794  0.0499
59951W        W60815  25.632  12.043   9.311  0.0951 -0.0071 -0.0680
59952W        W60816   5.961  20.969  18.412 -0.4066  0.1078 -0.0981
59953W        W60817  23.541  17.804  14.012 -0.2927 -0.0896 -0.0753
59954W        W60818  20.713  12.806   5.780 -0.1069 -0.0819  0.2734
59955W        W60819   5.407   7.134  21.010  0.0629  0.1320 -0.1043
59956W        W60820  17.610   0.179  28.011 -0.0752  0.2717 -0.2395
59957W        W60821  12.503  11.053  25.758 -0.2028 -0.3419  0.0569
59958W        W60822  24.635  12.358  14.650  0.1848  0.3916  0.0904
59959W        W60823  10.295  14.720   3.330 -0.1763  0.2025 -0.0629
59960W        W60824  10.515   0.723   0.235  0.2615 -0.0229  0.0053
59961W        W60825  11.725   6.641   5.756 -0.1082 -0.2570  0.0341
59962W        W60826   8.248   3.680  20.868  0.0952  0.1529  0.0246
59963W        W60827   6.641   9.521  24.747 -0.0702 -0.0013 -0.1863
59964W        W60828   0.690   0.564  26.070  0.0597 -0.0611 -0.2928
59965W        W60829   4.072  12.548  12.243  0.0460  0.4075 -0.2738
59966W        W60830   7.697   5.748  20.683 -0.1783 -0.0482 -0.4188
59967W        W60831  18.012  26.501   1.708  0.1025  0.0482  0.2231
59968W        W60832  22.544  17.322   6.116 -0.2577 -0.1734 -0.4081
59969W        W60833  27.054  12.089  28.820 -0.2876  0.0027  0.1354
59970W        W60834  13.678  12.086  14.533  0.0245 -0.0174  0.0846
59971W        W60835  12.495   6.842  21.473 -0.0038  0.1451 -0.2167
59972W        W60836   1.578   8.950  14.020  0.4153 -0.1889 -0.2330
59973W        W60837   4.766  28.758  22.176  0.1499 -0.3980  0.2172
59974W        W60838  11.750   3.439   6.935  0.0227  0.0201 -0.1378
59975W        W60839  17.975  20.840  19.069  0.1145 -0.0619  0.1549
59976W        W60840  22.191   4.645   1.277  0.1518 -0.3750 -0.1256
59977W        W60841  12.991  27.311   3.418  0.1423  0.0673  0.3270
59978W        W60842   1.237   7.681  16.870 -0.0409  0.0328 -0.2396
59979W        W60843   3.998  14.977   3.136  0.0930  0.3304 -0.4549
59980W        W60844  21.693  26.163  11.660  0.1144 -0.0730  0.1175
59981W        W60845  23.805  12.161  14.931 -0.3411  0.3660 -0.0515
59982W        W60846   2.409  14.737  18.589  0.0089  0.0120  0.0972
59983W        W60847  10.843  25.219  19.157  0.2972 -0.0553 -0.1705
59984W        W60848   6.825  15.820   2.544 -0.0076 -0.0402 -0.2994
59985W        W60849  18.437  21.218   5.306 -0.0519  0.1546 -0.1033
59986W        W60850   5.469   8.036   7.262  0.3429 -0.0107  0.1630
59987W        W60851  18.625  16.925  22.060 -0.2097 -0.1615  0.1694
59988W        W60852  19.710  26.840  12.131  0.1132 -0.1290 -0.1161
59989W        W60853  20.968   9.039   1.759  0.0323 -0.1716  0.1962
59990W        W60854  26.298  16.055  23.108 -0.3153  0.0828 -0.1304
59991W        W60855  20.101  28.760  18.077 -0.2085  0.2180 -0.2227
59992W        W60856  10.476  11.708  13.776 -0.1882 -0.1161 -0.2546
59993W        W60857  11.073  20.173   3.019  0.1443 -0.2436 -0.0510
59994W        W60858  21.949  25.800  26.774 -0.0751  0.3321 -0.0952
59995W        W60859  15.157  17.940  10.368  0.0081  0.0417  0.0817
59996W        W60860  18.182  22.547  10.494  0.0183 -0.1668  0.1407
59997W        W60861   5.694   0.533  28.473 -0.4250  0.2446  0.2588
59998W        W60862   9.965   4.573  20.651  0.0076  0.0653 -0.1508
59999W        W60863  12.932  24.885  21.641 -0.5492  0.0301  0.1455
60000W        W60864   9.227   1.531  26.228 -0.2474 -0.1411  0.1368
60001W        W60865  13.189  11.492   6.372 -0.1379  0.0071  0.0328
60002W        W60866   1.500  25.379  13.235  0.4692 -0.0914 -0.1231
60003W        W60867  22.705  15.925  10.835 -0.1880  0.1889 -0.1963
60004W        W60868  27.730   2.893  26.359 -0.0364  0.1050  0.0996
60005W        W60869   2.007  15.697  25.398 -0.2706 -0.0368  0.1937
60006W        W60870  21.964  25.610  15.666 -0.2250 -0.2503  0.2600
60007W        W60871   7.122  12.246  21.666 -0.0127 -0.1722 -0.0328
60008W        W60872  16.578  11.064  19.150  0.1770 -0.1101  0.1178
60009W        W60873  25.267   2.488  10.330  0.3109 -0.3225 -0.0763
60010W        W60874   4.371  14.580   2.421  0.1116  0.1706  0.2001
60011W        W60875  28.195  11.785  23.742  0.2812 -0.6182  0.2584
60012W        W60876  18.367  22.501  12.858  0.1038 -0.1269 -0.0163
60013W        W60877  12.412  23.810  24.546  0.2463  0.0405  0.1182
60014W        W60878   6.121  12.835   9.706  0.2326 -0.2376 -0.0793
60015W        W60879   5.564  22.676  22.038  0.1403 -0.0110 -0.0628
60016W        W60880  26.554  12.093   1.134 -0.0073 -0.0473 -0.6075
60017W        W60881  26.946  26.942   9.082  0.1764  0.1741  0.2597
60018W        W60882  29.106  18.848  14.604 -0.0280  0.3128 -0.0272
60019W        W60883  23.628  26.730  15.271  0.2597 -0.0915 -0.0347
60020W        W60884   2.147  28.682  16.384  0.0437 -0.1327  0.1095
60021W        W60885   5.752  15.645   6.852  0.1139 -0.3269 -0.3500
60022W        W60886  15.998   1.840   0.938  0.2551  0.0076  0.0932
60023W        W60887   5.359   6.052   6.001 -0.0415  0.2956 -0.0422
60024W        W60888   2.793  25.583  16.613 -0.1459  0.0637 -0.2777
60025W        W60889   5.249  28.606  12.022  0.0701 -0.4729  0.4000
60026W        W60890  28.815  15.809  24.936 -0.2661  0.0142 -0.0696
60027W        W60891  19.230  21.565   4.763 -0.2153 -0.0858  0.1419
60028W        W60892   9.840   3.467   6.047  0.0465  0.1465  0.1216
60029W        W60893  27.500   2.204  18.273  0.0540 -0.1921  0.1478
60030W        W60894  23.313  15.969  21.925 -0.1391  0.1252  0.0604
60031W        W60895  14.616  25.430   8.054 -0.1034  0.0210  0.0832
60032W        W60896   9.646   6.467   1.191  0.0487 -0.0986  0.0695
60033W        W60897  27.876   8.830   7.645  0.2497  0.0027  0.1550
60034W        W60898  27.034  10.787  27.030 -0.2648  0.1986 -0.3927
60035W        W60899  11.796  25.248   6.058  0.2678 -0.0519  0.0992
60036W        W60900  15.788   5.151  28.492  0.1779  0.1527  0.2510
60037W        W60901  19.850   6.042  20.802  0.1507 -0.3367 -0.5479
60038W        W60902  24.414  21.170  17.073  0.1881 -0.3571  0.2740
60039W        W60903  22.399   5.724  13.604 -0.0754  0.1558  0.2510
60040W        W60904  19.205  17.921   5.311  0.1741 -0.0850 -0.3427
60041W        W60905  21.799  10.064  15.931 -0.1061 -0.0560  0.1046
60042W        W60906  12.741  27.729  22.329 -0.0687 -0.0721 -0.4351
60043W        W60907   5.629  20.591  21.076  0.0699  0.0531  0.2495
60044W        W60908  20.698  22.968  10.373  0.1552  0.1374  0.0581
60045W        W60909  14.230  23.982  21.745  0.1696  0.1026 -0.1110
60046W        W60910  24.906  24.105  21.157  0.0975 -0.1491 -0.1035
60047W        W60911   6.096  18.193  22.951 -0.0002 -0.1256 -0.0939
60048W        W60912  12.508   8.180  11.306 -0.1745  0.1712 -0.0718
60049W        W60913   8.406   7.345  28.899 -0.0377  0.1136 -0.2805
60050W        W60914   4.148   3.213  27.914 -0.1479 -0.0127  0.1704
60051W        W60915  10.969   1.580  17.668 -0.2073 -0.0565 -0.2656
60052W        W60916   8.961  14.443  17.617  0.1457  0.0313 -0.0019
60053W        W60917  15.180  13.066  24.016  0.0318 -0.1206 -0.2935
60054W        W60918  27.171  15.572   5.798 -0.1021  0.1408  0.0478
60055W        W60919  12.318   6.744  16.728  0.3912 -0.2506 -0.2529
60056W        W60920  28.994  13.430  22.955  0.1418 -0.0923  0.4012
60057W        W60921  13.937   4.768  22.070  0.2483  0.1363 -0.2909
60058W        W60922  11.101  11.939   5.227 -0.1207  0.2174 -0.1499
60059W        W60923  28.737  24.168  16.752  0.4207  0.1798 -0.1823
60060W        W60924  10.425  26.244  27.119 -0.2397 -0.1891  0.0982
60061W        W60925  20.870  13.212  22.550  0.2546  0.2528 -0.1028
60062W        W60926  16.714  25.199  17.612  0.3951  0.0192 -0.1211
60063W        W60927  10.638  19.152  15.414 -0.0219 -0.0506  0.0430
60064W        W60928  27.940  10.402   2.577  0.0870  0.1471 -0.0617
60065W        W60929  12.519  21.737  16.165  0.2007  0.0762  0.3158
60066W        W60930   9.397  27.554  20.932 -0.0351 -0.0682 -0.0743
60067W        W60931   1.755   0.274  25.035  0.0620 -0.0856 -0.0468
60068W        W60932   1.983  12.362   5.589 -0.2242  0.2983  0.1344
60069W        W60933   8.174   5.105   5.264 -0.1595  0.0444 -0.1898
60070W        W60934  17.832  18.737  20.583  0.0545 -0.2972  0.1201
60071W        W60935   8.033  13.385   0.082  0.0875 -0.0234 -0.0390
60072W        W60936  22.910  12.850   4.447  0.2877 -0.0772 -0.0340
60073W        W60937   1.979   5.934   7.544  0.0552 -0.1017 -0.1006
60074W        W60938   5.947   6.415  21.777  0.1690  0.0770 -0.1871
60075W        W60939   0.682   0.742  19.639  0.3766 -0.0112  0.0029
60076W        W60940  26.347  28.831  26.542  0.0337  0.1524  0.1593
60077W        W60941  19.243  17.908  19.140  0.1744 -0.1168 -0.2323
60078W        W60942  20.741  10.800  10.977  0.1290  0.2258 -0.1033
60079W        W60943  15.529   5.733  26.624 -0.1093  0.1200 -0.2160
60080W        W60944  19.665   8.944   2.408 -0.1980 -0.1098 -0.2038
60081W        W60945   4.145  10.261  22.325  0.0751 -0.0645 -0.2702
60082W        W60946  15.119  26.215   3.417 -0.0280 -0.3250 -0.0082
60083W        W60947   6.142   3.473   4.320 -0.2027  0.1624  0.1028
60084W        W60948  24.624   8.718   5.352 -0.0438  0.0579  0.0045
60085W        W60949  10.159  20.981  22.683 -0.2199 -0.1264 -0.1420
60086W        W60950  25.509  12.732  16.247  0.0933 -0.1488  0.1210
60087W        W60951  14.480  23.902  23.259 -0.1695  0.2768 -0.3224
60088W        W60952  10.948   2.638  20.974  0.0678  0.0197  0.0722
60089W        W60953  22.168  14.267  17.780 -0.5196 -0.1392 -0.0223
60090W        W60954   3.349  21.573  14.923  0.1856  0.3369 -0.2392
60091W        W60955   4.013   3.397   4.621 -0.1475 -0.0557 -0.0556
60092W        W60956  13.719  19.071  19.544  0.2765  0.1525  0.1308
60093W        W60957  15.117  12.182  17.884  0.0304 -0.2400 -0.0225
60094W        W60958  22.250   2.612  21.693 -0.1005  0.1256 -0.0254
60095W        W60959  24.248  16.803  18.217  0.0039  0.0216 -0.0884
60096W        W60960  12.544   7.854  12.273  0.0031 -0.0612 -0.1214
60097W        W60961  19.685   1.861   3.983 -0.1489 -0.0580  0.0530
60098W        W60962   6.291  25.698  15.669  0.0081 -0.2355  0.1242
60099W        W60963  12.118  26.459  20.022  0.0732 -0.0988  0.0983
60100W        W60964  26.241   9.540  25.983 -0.1186 -0.1790  0.0116
60101W        W60965  15.932  20.724   9.173 -0.1825  0.0873  0.0393
60102W        W60966   8.974   9.081   3.561 -0.2804  0.2957  0.3552
60103W        W60967  19.187   9.737   8.091 -0.0300 -0.0416 -0.2025
60104W        W60968  24.654  12.349  27.544  0.0714  0.1830 -0.1291
60105W        W60969   7.633  22.746   8.130 -0.1843  0.2065 -0.2937
60106W        W60970   0.106  13.213  24.632 -0.3178 -0.2166  0.1037
60107W        W60971  16.414  21.522  27.039 -0.1184  0.0494  0.0571
60108W        W60972  27.652   9.637  10.189  0.2447 -0.2337  0.0118
60109W        W60973   0.753   8.557   1.496 -0.0900 -0.2545 -0.0411
60110W        W60974  21.523   3.514   4.749  0.0630  0.0463 -0.0557
60111W        W60975   8.816   6.308   8.941  0.0144 -0.0135 -0.2187
60112W        W60976  22.955  19.359  12.541 -0.2293  0.1146  0.0254
60113W        W60977  27.650   1.171  22.626  0.0725  0.2837  0.0290
60114W        W60978  25.140  10.628   3.524  0.0928 -0.0498  0.0649
60115W        W60979   8.798  20.863  11.918  0.1199  0.1028  0.3430
60116W        W60980  16.484  25.870  28.734  0.0966  0.1383  0.1092
60117W        W60981  25.358  23.836  16.379  0.0751 -0.1389 -0.0111
60118W        W60982   4.651  21.231  18.970  0.1642  0.0929 -0.1411
60119W        W60983  23.061  24.017  14.960 -0.2476 -0.3289 -0.0619
60120W        W60984   0.636  12.343  22.090 -0.0109 -0.0414 -0.2395
60121W        W60985  16.682  21.793  26.614 -0.0867  0.0717  0.1880
60122W        W60986  24.248  10.996  19.446  0.2406  0.2742  0.0477
60123W        W60987   4.904  23.945  24.232 -0.1538  0.1319 -0.1698
60124W        W60988  24.025   2.315   6.204  0.0942 -0.3362  0.0590
60125W        W60989   8.683   7.030  18.728  0.0569  0.1882 -0.0608
60126W        W60990  16.754   6.545  21.044  0.3382 -0.0377 -0.1262
60127W        W60991  16.997  10.106  12.992 -0.2455 -0.0750 -0.0901
60128W        W60992  21.670  29.048  15.497 -0.2514 -0.1082 -0.1077
60129W        W60993   5.290  21.354  20.806  0.2329 -0.0474 -0.0543
60130W        W60994  11.391   2.052  21.820  0.0741  0.1968  0.1467
60131W        W60995   1.611  21.453  12.329 -0.1324 -0.1738  0.0414
60132W        W60996  28.753  13.112   3.053  0.0267 -0.2667 -0.1655
60133W        W60997  20.752  14.902  18.520 -0.0263 -0.1596  0.4389
60134W        W60998   5.158  16.927  16.188 -0.0550  0.1187 -0.1307
60135W        W60999  25.191   6.252  19.691 -0.0482 -0.2498 -0.3152
60136W        W61000  23.637  28.315   0.021 -0.0708  0.2322  0.2300
60137W        W61001  14.231  16.456  12.453 -0.1913  0.1078 -0.0841
60138W        W61002   5.277  22.040   6.554  0.0102  0.0878 -0.0076
60139W        W61003  12.852   0.489  21.668 -0.3495  0.3477 -0.0683
60140W        W61004  19.485  23.705  12.613  0.1584 -0.0191  0.0750
60141W        W61005   1.382  21.400  15.745 -0.0282 -0.2305 -0.1005
60142W        W61006  12.264  14.431   8.849 -0.2279  0.3604  0.0889
60143W        W61007   5.239  26.423   0.524 -0.0936  0.0735 -0.3441
60144W        W61008  26.139  11.615  17.224 -0.2187  0.2983  0.0226
60145W        W61009  16.926  10.857  27.288 -0.0969  0.0958 -0.2292
60146W        W61010  24.456   9.774  23.826  0.0327  0.1827 -0.2066
60147W        W61011   8.190  25.191  17.722 -0.1753  0.1170  0.0101
60148W        W61012  12.372   0.489  19.536  0.1891  0.0617 -0.1103
60149W        W61013  13.712   1.921  11.749  0.1269 -0.2361 -0.1949
60150W        W61014   5.734  11.228   0.287  0.0462 -0.1496  0.0652
60151W        W61015  19.137   2.975  27.760 -0.1836 -0.0483  0.3319
60152W        W61016   1.587  15.963   1.378  0.2618 -0.1517 -0.1940
60153W        W61017  20.300   8.732  12.009 -0.0766 -0.3224  0.0005
60154W        W61018  27.985  28.756  22.827  0.2725 -0.0360 -0.1116
60155W        W61019  13.854  15.537  24.250 -0.0550  0.1502 -0.0471
60156W        W61020  27.857  10.354  15.094 -0.0462  0.3262 -0.0214
60157W        W61021  17.961   7.021  19.417  0.0586  0.0422 -0.1393
60158W        W61022  23.025   0.727  21.490  0.0175  0.1393  0.3592
60159W        W61023  27.237  17.083  18.747  0.2040 -0.0848 -0.3646
60160W        W61024  13.427   2.887  14.861 -0.1454 -0.0903 -0.1718
60161W        W61025   9.674  24.388  15.021 -0.1578  0.0680 -0.0329
60162W        W61026   5.184   7.202  13.022  0.3909  0.1722  0.0952
60163W        W61027   7.310   7.052  10.863 -0.1692  0.2360 -0.1402
60164W        W61028  23.109  28.949  26.122 -0.0613 -0.1950 -0.1815
60165W        W61029   1.695  22.460  22.266  0.0705 -0.2069  0.1053
60166W        W61030  18.775   3.602  21.232 -0.0953  0.2199 -0.1696
60167W        W61031  20.318   2.013  11.038 -0.1513 -0.1528  0.1000
60168W        W61032   5.951  11.326  17.949  0.0852  0.2009 -0.5582
60169W        W61033  10.018   8.101  20.006 -0.1342 -0.4136 -0.2866
60170W        W61034   3.516   8.084   4.956  0.2025 -0.2508  0.1148
60171W        W61035   8.181  26.441  11.157  0.5001 -0.0141  0.0577
60172W        W61036  26.111   7.681   5.000 -0.1475 -0.4795 -0.0840
60173W        W61037   2.427   3.915  16.401  0.3246 -0.1584  0.1834
60174W        W61038   7.093  28.568  12.746  0.3847  0.0326  0.2300
60175W        W61039  18.224  16.207   4.344 -0.0093 -0.1628  0.0701
60176W        W61040  10.146  14.361   6.198 -0.0373 -0.0073 -0.4840
60177W        W61041  27.359   6.245  19.208 -0.2141  0.1880  0.0283
60178W        W61042  27.603   6.504  20.042 -0.0977  0.0213  0.1420
60179W        W61043   0.228  27.092   5.259 -0.0743 -0.0764 -0.0970
60180W        W61044   2.241   6.566  18.861 -0.2898  0.1332  0.0059
60181W        W61045   1.316   9.884  13.753  0.2475  0.1046  0.0171
60182W        W61046  27.304   4.336   7.101 -0.1587  0.0308  0.3421
60183W        W61047  25.143  27.050  20.991 -0.0098  0.3664 -0.0433
60184W        W61048  11.414  10.865  26.653 -0.0643  0.0454 -0.1476
60185W        W61049   6.269   8.169  17.247 -0.1654  0.1424  0.0206
60186W        W61050  23.764  11.274   0.132  0.0964 -0.2881  0.0926
60187W        W61051  23.317  12.574   0.419 -0.0243 -0.2703 -0.2750
60188W        W61052  25.124  10.153  18.436  0.3833 -0.1917 -0.2331
60189W        W61053  10.702   2.639  12.184 -0.1548  0.2470 -0.1272
60190W        W61054  29.142  22.980  14.430 -0.2247 -0.3767  0.1259
60191W        W61055  10.180  18.990  27.180  0.0244  0.2803 -0.2506
60192W        W61056  28.301  12.568  25.242 -0.0788  0.3953 -0.3420
60193W        W61057  15.451   5.900  22.491  0.1963 -0.0890 -0.1186
60194W        W61058  13.580  18.720   5.308 -0.1273  0.0861  0.2591
60195W        W61059  11.459   7.474  28.470 -0.0757 -0.1493  0.0499
60196W        W61060  14.263   6.022  16.994 -0.1922 -0.0721 -0.4218
60197W        W61061   8.818  23.827  13.549  0.3876  0.1236  0.0204
60198W        W61062   4.797  16.772  19.979 -0.1904  0.1285 -0.2562
60199W        W61063  25.937  27.700  17.774  0.0653 -0.1553  0.1630
60200W        W61064   2.812  14.022  24.825 -0.1384  0.2794 -0.1083
60201W        W61065  27.437  26.502   3.338  0.0584 -0.0645  0.0417
60202W        W61066  28.277  14.800  25.731 -0.0754 -0.3188  0.1927
60203W        W61067  13.909   6.081  25.517  0.0679  0.1125  0.1265
60204W        W61068   0.236  24.199   0.378  0.1717 -0.4535 -0.0428
60205W        W61069  29.129   1.832   0.540 -0.5194  0.1753 -0.2000
60206W        W61070   3.460  27.618   2.740  0.2304 -0.1061 -0.1308
60207W        W61071  11.975  14.542  18.813  0.1595 -0.0794  0.2084
60208W        W61072  27.880  10.588  18.080  0.2260 -0.1311 -0.2375
60209W        W61073  21.958   4.752  26.657  0.3604  0.3472  0.1055
60210W        W61074   2.171  25.355   4.072 -0.0431  0.1238  0.1729
60211W        W61075  12.108   7.633  15.291 -0.1573  0.1063  0.1423
60212W        W61076  21.544   4.638  23.950  0.1963  0.2738 -0.3734
60213W        W61077  21.151  12.503  13.269 -0.1014  0.0246  0.0184
60214W        W61078  20.919  16.703   6.052  0.0295 -0.2132  0.1924
60215W        W61079  22.427  22.464  23.825  0.3318 -0.0087 -0.1809
60216W        W61080  12.903   7.533  28.461  0.1131 -0.2349  0.1993
60217W        W61081  23.389  17.043  14.326 -0.0412 -0.0929 -0.0220
60218W        W61082  28.220  20.074  14.833  0.2170 -0.1556 -0.2691
60219W        W61083   6.917   4.968  23.312 -0.1515  0.1354  0.2015
60220W        W61084  17.196  27.186  18.240 -0.1569 -0.0801  0.3191
60221W        W61085  25.151  23.624  24.414 -0.0485  0.0910  0.0451
60222W        W61086  29.094  25.220  20.162 -0.1653  0.1575  0.2003
60223W        W61087   3.352  14.146  26.269  0.2334  0.1071  0.1673
60224W        W61088   5.757  22.084  17.612  0.0688  0.2215  0.2610
60225W        W61089   8.106  18.755   0.165  0.1093 -0.4904  0.1073
60226W        W61090   1.576   3.318  19.249 -0.1950  0.0117 -0.0237
60227W        W61091   1.904  23.940  20.897  0.1502  0.1095  0.0507
60228W        W61092  14.093  16.364   8.894  0.1157  0.1264 -0.1951
60229W        W61093  22.340   6.519  26.185  0.2219 -0.0652  0.1062
60230W        W61094   8.496  16.325  19.921  0.0040 -0.1945  0.0343
60231W        W61095  13.943   7.614   8.861 -0.1832 -0.1068  0.0557
60232W        W61096  11.209  27.072   0.072  0.0425  0.2500  0.0999
60233W        W61097   4.461  22.756   8.301 -0.3619 -0.2522  0.0468
60234W        W61098   6.874   1.340  22.241 -0.0931 -0.1375  0.4935
60235W        W61099   0.732   2.121   0.625  0.0869 -0.0554  0.0797
60236W        W61100  18.994   7.529  14.439 -0.3675 -0.3592 -0.0977
60237W        W61101  27.597   8.688  21.625 -0.1411  0.2419 -0.1384
60238W        W61102  24.141  18.797  21.977  0.1589  0.0874  0.3546
60239W        W61103  13.887   6.428   9.263  0.0125 -0.3945 -0.2187
60240W        W61104  18.878  19.477   9.723 -0.3211  0.0215  0.2232
60241W        W61105  26.244  13.002   4.725 -0.0051 -0.1831  0.1244
60242W        W61106   7.194  20.712  15.170  0.0355 -0.1897  0.0195
60243W        W61107  25.168   4.571  28.994 -0.2091 -0.3392 -0.3160
60244W        W61108   4.592  27.535  19.073 -0.1928 -0.0823 -0.3364
60245W        W61109  16.624  12.630   2.722  0.2171 -0.2019  0.2173
60246W        W61110   5.833  15.498  25.217 -0.1021 -0.5112 -0.0363
60247W        W61111  21.923  28.863  25.572  0.2855  0.3035  0.1089
60248W        W61112  23.216  17.719  14.835  0.1493  0.0581  0.2070
60249W        W61113  24.810  21.147  26.190 -0.2996 -0.2272  0.0680
60250W        W61114   2.621  19.970  27.984  0.2100  0.1713  0.1496
60251W        W61115   3.993   8.394  27.319  0.1243  0.1673 -0.1082
60252W        W61116   1.900   1.402   2.341  0.1151  0.0844  0.1936
60253W        W61117  17.595  11.891  22.768 -0.2307 -0.0650 -0.0147
60254W        W61118  26.191  10.343  28.007  0.0260 -0.0139  0.2435
60255W        W61119  18.821  18.189  28.610 -0.2158  0.1676  0.1318
60256W        W61120  19.467  24.821  19.515  0.1043 -0.2946  0.0199
60257W        W61121   2.931  11.424  28.674  0.1208  0.0659 -0.4901
60258W        W61122  24.136  12.093  27.255 -0.0932 -0.0830 -0.2908
60259W        W61123  12.187   1.477  21.669 -0.2602 -0.0605 -0.2372
60260W        W61124   8.725  18.812  25.663 -0.1176  0.2793  0.0544
60261W        W61125  16.124  24.151   5.886  0.0141 -0.1659  0.3992
60262W        W61126   9.525  14.059  12.388  0.0120 -0.0757 -0.1933
60263W        W61127   7.459   5.076   7.108  0.2193  0.1523  0.3636
60264W        W61128  24.429   5.187  19.155 -0.0224 -0.4509 -0.0259
60265W        W61129  21.154  28.863  24.821  0.1038 -0.1184 -0.2623
60266W        W61130  15.326  25.246   9.390 -0.1666  0.5262 -0.1994
60267W        W61131  20.666  26.340   2.264  0.3544 -0.2042  0.0048
60268W        W61132  25.907  22.166  12.769 -0.0914  0.0881  0.0428
60269W        W61133  14.652   9.149   3.122  0.4581 -0.0715  0.2124
60270W        W61134  14.122  26.383  21.138 -0.0204  0.1988  0.0160
60271W        W61135  19.955  13.242  13.226  0.0304  0.2279 -0.0823
60272W        W61136  21.940  27.793  23.403  0.1432 -0.4471 -0.2199
60273W        W61137  11.553   3.510  24.065  0.0838  0.0114 -0.0990
60274W        W61138  26.184  25.037   0.409 -0.0832 -0.1561 -0.0880
60275W        W61139   3.527  22.562  15.010  0.1483 -0.0656  0.1312
60276W        W61140  28.499  15.343   6.201  0.0022  0.1299  0.0035
60277W        W61141   4.848   7.433  19.411  0.0214  0.1676  0.2562
60278W        W61142  25.706   4.867   2.898  0.0944  0.1425  0.2224
60279W        W61143   5.717   8.095  28.292  0.0492  0.1331  0.0397
60280W        W61144  22.433   6.728  11.946  0.4211  0.1225 -0.0860
60281W        W61145   1.507  21.013  26.790 -0.0312  0.3295  0.3163
60282W        W61146  24.351  10.463  16.845 -0.3096  0.0877 -0.2933
60283W        W61147   1.018   6.974  26.224  0.0514  0.2218  0.4221
60284W        W61148   3.423   5.802  22.221 -0.1500  0.3002 -0.1806
60285W        W61149  16.516   5.110   0.708 -0.2563  0.1805 -0.0166
60286W        W61150  25.670  14.042  13.267  0.1665  0.0173 -0.1327
60287W        W61151  19.298  11.848   4.455  0.0371  0.0570  0.3475
60288W        W61152   4.995  18.214  17.305  0.2064  0.2750 -0.1007
60289W        W61153  16.010  11.660   0.536 -0.1770  0.0840 -0.1145
60290W        W61154   3.190   5.218  27.385  0.1391  0.1874  0.1787
60291W        W61155  17.647  14.510  21.604 -0.0120  0.1110  0.1850
60292W        W61156  17.912   3.930  28.613 -0.0498  0.2401 -0.0526
60293W        W61157  25.299   2.365   0.432  0.0258 -0.1093  0.0904
60294W        W61158  11.581  27.916  24.296 -0.3602  0.2045  0.1494
60295W        W61159   2.831   4.825  27.863 -0.0377  0.0317  0.1720
60296W        W61160   3.975   9.832  19.454  0.0259  0.0887  0.0702
60297W        W61161  18.692   8.221   4.419 -0.1104 -0.3043 -0.2939
60298W        W61162  14.985  24.305  20.819  0.1424 -0.2442  0.4814
60299W        W61163  25.472   9.706  27.953  0.1363  0.0811 -0.0248
60300W        W61164  23.609  20.194  18.952 -0.0217 -0.0693 -0.1336
60301W        W61165  13.608  10.759  12.997 -0.1781 -0.0559 -0.0398
60302W        W61166   3.215   4.491   1.642 -0.0117  0.1456 -0.1825
60303W        W61167  26.161  11.831   1.441 -0.0932 -0.1751 -0.1685
60304W        W61168  23.024   9.731   7.614 -0.2339  0.1374 -0.1027
60305W        W61169  13.079  13.289  22.490 -0.2411 -0.4305  0.0776
60306W        W61170  20.989  11.713  26.976 -0.0661  0.2709 -0.0213
60307W        W61171  27.372  23.067  23.624 -0.2811  0.1581  0.4206
60308W        W61172  10.373   8.043   2.611  0.1022 -0.0829 -0.0451
60309W        W61173   5.343   9.784  23.234  0.2297  0.1439  0.3565
60310W        W61174  27.779   7.238  21.148  0.0560 -0.1074  0.4667
60311W        W61175  22.500   2.101   1.297  0.2315  0.0798 -0.0139
60312W        W61176  16.721  18.394  14.741  0.4017 -0.1666  0.2348
60313W        W61177   4.458   1.608  10.479 -0.0786 -0.0219 -0.0193
60314W        W61178  27.104  25.581  20.883  0.2785  0.2373  0.0332
60315W        W61179   8.192  19.271  16.246  0.2450 -0.2424 -0.0193
60316W        W61180  13.647  23.411  19.270 -0.1315 -0.2533 -0.2204
60317W        W61181   9.945  28.475  15.981 -0.0516  0.0291  0.3014
60318W        W61182  14.206  12.051  21.438  0.2136 -0.2416 -0.2934
60319W        W61183  25.086  11.134  27.410 -0.1967 -0.0893 -0.0269
60320W        W61184   1.708   3.872  14.007  0.0234 -0.3439  0.0090
60321W        W61185  15.765  19.879   8.403 -0.1235  0.0836 -0.0972
60322W        W61186   9.039  10.939   7.930  0.2753  0.0283  0.1525
60323W        W61187   4.016  16.365  22.011  0.1378  0.1655 -0.2189
60324W        W61188  22.425   4.948  12.966  0.0907 -0.1046 -0.0873
60325W        W61189   3.668  24.202  16.050  0.0854 -0.1240 -0.0164
60326W        W61190  10.864   0.322   5.896 -0.0944  0.0358 -0.0666
60327W        W61191  11.692   0.652  11.829  0.1255 -0.1521 -0.0376
60328W        W61192   5.532  28.710  15.060 -0.1194 -0.0439 -0.0469
60329W        W61193  10.657  14.168  13.506 -0.0224  0.1536 -0.0448
60330W        W61194  19.304  20.917  27.085 -0.1276  0.4917 -0.0224
60331W        W61195   2.990  24.675  21.941  0.3358 -0.0590  0.0596
60332W        W61196   9.509   1.365  17.079 -0.0500 -0.1994 -0.1994
60333W        W61197  16.358  15.873  11.284 -0.0197  0.0163  0.2567
60334W        W61198  19.764  11.259  18.417  0.3164 -0.1369 -0.0461
60335W        W61199  12.262  15.658  22.264 -0.1411  0.3073  0.0727
60336W        W61200  19.226  15.386  13.343 -0.1156  0.0325 -0.0361
60337W        W61201   6.376   7.074   4.825 -0.0484 -0.0291 -0.0347
60338W        W61202  20.666   7.115   3.309 -0.0341 -0.1352  0.1231
60339W        W61203   8.112  20.341  27.826 -0.4030  0.0357 -0.1294
60340W        W61204   1.448  27.760   0.028 -0.0496  0.1666 -0.4051
60341W        W61205   2.468   8.278  24.674  0.1232 -0.0503 -0.0202
60342W        W61206  17.376  23.773  12.136  0.0681 -0.1306  0.0988
60343W        W61207  21.601   7.131  19.320 -0.0070  0.3779 -0.0521
60344W        W61208   8.273  17.555   9.062  0.4352 -0.1739 -0.4633
60345W        W61209  12.705   9.290  16.499 -0.0629 -0.1086 -0.0877
60346W        W61210  11.814   9.276   6.417  0.0270 -0.0054  0.2914
60347W        W61211  12.139   2.680   9.100  0.0395 -0.0746  0.0425
60348W        W61212   3.551   8.706   0.067  0.3082  0.0232  0.0865
60349W        W61213   1.146  15.765  20.191 -0.0261  0.0866  0.1211
60350W        W61214  10.049  25.553  17.126  0.0248  0.0284  0.0365
60351W        W61215  15.298  24.604   1.445  0.4472  0.3540 -0.3566
60352W        W61216  27.704   7.298  18.221 -0.0368  0.0842 -0.1139
60353W        W61217   8.380  10.537  23.960  0.1966 -0.1122 -0.0187
60354W        W61218  17.743   8.247   9.619 -0.3053  0.0692 -0.1761
60355W        W61219  20.209  20.193  24.910 -0.0635  0.1136 -0.0386
60356W        W61220  15.194   1.746  18.780 -0.2215 -0.0749  0.1466
60357W        W61221  24.278  14.119   1.486  0.2850 -0.1274 -0.0884
60358W        W61222  20.470  24.371   9.026 -0.1834 -0.2022  0.0222
60359W        W61223   2.932   5.020  18.344  0.3393  0.0019  0.1052
60360W        W61224  24.067   6.592  20.933 -0.0335 -0.1441  0.1883
60361W        W61225  25.530  11.084   6.733  0.0261 -0.0352 -0.0100
60362W        W61226   7.544  10.389  14.879 -0.1859  0.1326 -0.1898
60363W        W61227   4.274  10.459   9.970  0.2120  0.0902 -0.0402
60364W        W61228   9.021   3.685   0.382  0.0192  0.2808 -0.1003
60365W        W61229  17.346  21.492  17.233 -0.2822 -0.2589 -0.2574
60366W        W61230  13.581   3.049  25.847 -0.0136 -0.3048  0.1575
60367W        W61231  24.878   8.060  14.833  0.0572 -0.5308  0.1318
60368W        W61232  11.540  12.742  19.840  0.2658  0.0473 -0.2337
60369W        W61233  12.999  11.173  26.169  0.0329  0.3028  0.0086
60370W        W61234   9.654  28.782  13.730  0.0323  0.2408  0.1005
60371W        W61235  11.632   8.914  22.397 -0.1986 -0.2416  0.1121
60372W        W61236   2.628   8.507  23.526 -0.0385  0.1696 -0.2642
60373W        W61237  20.730  22.109  22.634  0.1621  0.1034 -0.0360
60374W        W61238   9.220  15.622  23.591  0.0908 -0.0365 -0.0902
60375W        W61239  16.351   2.782  22.787  0.0382 -0.1036 -0.0318
60376W        W61240  11.588   4.887   3.737 -0.2182 -0.1014  0.0304
60377W        W61241   5.690  17.623   7.050  0.2490  0.2996 -0.0190
60378W        W61242  12.160   3.305  12.246 -0.0994  0.0464 -0.0358
60379W        W61243  16.118  16.127  23.647  0.3239 -0.1249  0.0142
60380W        W61244  25.660  10.010  13.210 -0.1451  0.1814  0.2349
60381W        W61245   6.891  20.851  23.049 -0.1341 -0.0409 -0.2478
60382W        W61246   6.017  11.892  28.638 -0.1431 -0.3490 -0.0536
60383W        W61247  23.564   4.872  16.883  0.0653 -0.2025  0.0423
60384W        W61248   8.922   1.763  19.014  0.0405 -0.0190  0.1791
60385W        W61249  19.691  10.728  19.971 -0.2629 -0.1177  0.2179
60386W        W61250  23.864  10.775  25.442  0.0670 -0.0101  0.0058
60387W        W61251   8.740  13.357  25.311  0.1603 -0.0422  0.0867
60388W        W61252   7.902  25.248  16.840  0.1551 -0.0713 -0.0948
60389W        W61253  14.281  10.309  18.508 -0.3107 -0.2346 -0.1848
60390W        W61254   1.502   0.277  21.800 -0.2974 -0.1963 -0.0130
60391W        W61255  22.738  11.354  26.552  0.0383 -0.1396 -0.0662
60392W        W61256  13.259   0.880  17.756 -0.1301  0.0710 -0.0361
60393W        W61257   4.282  13.563   3.702  0.1014 -0.0036 -0.2312
60394W        W61258   6.467  12.847   5.119 -0.0662  0.0994  0.0214
60395W        W61259   9.339  22.187  24.574 -0.4348  0.0413  0.0308
60396W        W61260   4.719  21.920  20.152 -0.3271 -0.1633  0.1413
60397W        W61261  21.688  20.666  28.565 -0.1608 -0.1329  0.2202
60398W        W61262  13.966   9.724   4.731  0.0286 -0.1457 -0.1533
60399W        W61263   1.758   9.027   0.169  0.1680 -0.0479  0.2211
60400W        W61264   8.346   7.668   0.654  0.2763 -0.1372 -0.1564
60401W        W61265   1.382  26.408   7.630  0.2209  0.0890  0.0174
60402W        W61266  14.461  23.298  26.316 -0.3437  0.1760  0.0700
60403W        W61267  19.767  22.323  26.056 -0.1952  0.3247 -0.0686
60404W        W61268   0.339  13.723   8.148  0.0258  0.0027  0.0804
60405W        W61269  28.837  12.581  18.990  0.2411 -0.0939 -0.0814
60406W        W61270   7.081  22.724  12.009  0.1871 -0.1941 -0.4553
60407W        W61271  12.877  28.780  25.530 -0.1459  0.0725  0.0431
60408W        W61272  21.786  24.737   2.213  0.1325  0.1278 -0.1254
60409W        W61273  20.682  11.583  21.386  0.2479  0.0608  0.1778
60410W        W61274   1.432   0.666  16.649  0.0373  0.0265  0.1112
60411W        W61275  16.966  13.205  21.163  0.0683  0.0047  0.1230
60412W        W61276  28.671   1.204   0.818 -0.0012 -0.0610 -0.0578
60413W        W61277   6.608  15.372   1.987 -0.2322 -0.0978 -0.2208
60414W        W61278   2.288   5.022  19.397 -0.1566 -0.3943  0.2357
60415W        W61279  19.591   0.071  28.530  0.1076  0.0329  0.2939
60416W        W61280   2.493   9.335  27.611 -0.2603 -0.1310  0.0842
60417W        W61281  23.404  23.365  22.933 -0.1931  0.0527  0.0934
60418W        W61282  17.594  25.991   3.376 -0.2615  0.1151 -0.1434
60419W        W61283  28.847   5.597  25.609  0.2701  0.0321 -0.1434
60420W        W61284  25.470  15.447   4.501  0.0339  0.1126  0.0146
60421W        W61285   2.192  10.851  19.126 -0.0972  0.2416  0.0088
60422W        W61286  22.746   2.703   6.005  0.0120  0.0306  0.2132
60423W        W61287  28.102   7.076   2.098 -0.4248 -0.0770  0.0801
60424W        W61288  12.242  16.102  27.200 -0.1250  0.4193 -0.0430
60425W        W61289  13.839   3.535  11.882  0.0152 -0.1237  0.1192
60426W        W61290  20.609  26.761  10.455  0.0172  0.1392  0.2562
60427W        W61291  15.112  13.098   5.672 -0.1200  0.1012  0.1842
60428W        W61292  23.770   8.948  24.715  0.1050  0.0227  0.0527
60429W        W61293   7.827   5.033  28.410 -0.1192 -0.1356 -0.0231
60430W        W61294   6.555   4.044  25.170  0.3689  0.2416 -0.3133
60431W        W61295  10.998  21.013  20.973 -0.2552  0.0754  0.0149
60432W        W61296   8.846   6.940  24.133  0.1889  0.0310  0.0225
60433W        W61297  11.931  11.635  22.456  0.0965  0.0397 -0.0680
60434W        W61298   6.634   0.956   4.133  0.0429  0.2435  0.0655
60435W        W61299   7.674   7.278  24.122  0.1502  0.1181 -0.1590
60436W        W61300   7.264  22.141  14.700 -0.1693 -0.2464  0.0603
60437W        W61301   9.637  20.592  19.400 -0.0420 -0.1852 -0.1485
60438W        W61302  21.207  23.023  23.635 -0.3726 -0.0827  0.2836
60439W        W61303   4.642  25.408   9.301 -0.0962  0.3540  0.0391
60440W        W61304   3.391  26.779  26.746  0.4386 -0.1752 -0.0045
60441W        W61305  12.880  26.349   7.509  0.0423  0.0971 -0.0589
60442W        W61306   0.328   0.209   9.541 -0.1383  0.2186  0.4064
60443W        W61307  18.654   0.323  12.903  0.0382 -0.2209 -0.0890
60444W        W61308  16.881  16.946   2.205  0.0317 -0.1291 -0.0683
60445W        W61309  22.324   1.345  14.302  0.0097  0.0312 -0.2633
60446W        W61310   6.214   1.751  15.841  0.1473 -0.1071 -0.3266
60447W        W61311  26.226   1.118  10.265 -0.0979  0.1919  0.2451
60448W        W61312   9.517  17.507  20.237  0.2337  0.0371  0.0170
60449W        W61313   4.930  21.164  18.072 -0.1147 -0.1858  0.0501
60450W        W61314   4.796   3.974  11.315 -0.3316  0.0193  0.1085
60451W        W61315  26.899   1.366  26.407 -0.2644  0.0513 -0.1330
60452W        W61316   5.857  21.454  26.290  0.0433 -0.1650 -0.1411
60453W        W61317   4.952  26.493  27.603  0.3297 -0.0342 -0.0513
60454W        W61318  11.295  11.766   6.512  0.0407 -0.0221  0.1601
60455W        W61319  13.022   5.581  25.349  0.1012 -0.0156 -0.0424
60456W        W61320   5.488  14.742  28.913 -0.1674 -0.1316 -0.2397
60457W        W61321   9.955   2.107  10.225 -0.0735  0.1657  0.0583
60458W        W61322  10.283   1.024   0.591  0.2860 -0.0923  0.0404
60459W        W61323   7.462  16.767  17.390 -0.2245 -0.1425 -0.0223
60460W        W61324   9.462   7.558  25.517  0.0474 -0.2383 -0.2136
60461W        W61325   4.606   4.463  27.570  0.2500  0.2757 -0.3119
60462W        W61326   6.269  12.006  12.315  0.2286 -0.2095 -0.0683
60463W        W61327   2.696  10.224  23.609  0.0148 -0.3242  0.0546
60464W        W61328   7.481   5.771   2.801  0.0142 -0.0787  0.1482
60465W        W61329   1.289   4.813  12.994  0.0419 -0.0149  0.3032
60466W        W61330  22.860  20.501  11.170 -0.1053  0.2719 -0.1212
60467W        W61331  27.543   3.734  13.653  0.2450 -0.0475  0.2097
60468W        W61332  10.627  15.841  13.323 -0.0784  0.1593  0.0532
60469W        W61333  16.829  18.556   1.318  0.1696  0.1444 -0.0604
60470W        W61334  10.697  11.258  25.729 -0.0495 -0.1541  0.1360
60471W        W61335  14.970  11.378  26.788 -0.1344  0.1722  0.1105
60472W        W61336  19.483   5.871  23.273 -0.0627  0.0309  0.0327
60473W        W61337   4.663  13.648  12.086 -0.0654  0.0361 -0.2575
60474W        W61338   3.275  17.151   8.504  0.2282 -0.2975 -0.2319
60475W        W61339   6.509  28.858  18.124  0.0595  0.1680 -0.1354
60476W        W61340  11.503  17.791  23.726 -0.2427 -0.1385 -0.4556
60477W        W61341  14.881   3.396  25.335  0.4141 -0.0793  0.0347
60478W        W61342  11.200  24.405  12.236 -0.2103 -0.2456 -0.1827
60479W        W61343   7.890   1.724  10.917  0.2948  0.2959  0.0196
60480W        W61344  19.958   2.563   9.639  0.2197  0.1517  0.2142
60481W        W61345  12.118  23.131  17.450  0.1189  0.2492  0.0883
60482W        W61346  25.847  20.397  25.547 -0.0610  0.1104  0.1169
60483W        W61347   7.202  14.411  23.605 -0.3215 -0.3598 -0.0499
60484W        W61348   8.845   1.018   1.231 -0.0264 -0.0591  0.1925
60485W        W61349  13.560  11.591   2.006 -0.0857 -0.1837  0.0368
60486W        W61350  18.131  18.254   4.479  0.0136 -0.2329 -0.1722
60487W        W61351   3.010  12.425  20.189  0.1003 -0.2390  0.0780
60488W        W61352   0.454   7.349   6.497  0.2915  0.0355 -0.3488
60489W        W61353  29.009  10.699  24.126 -0.1832  0.0397 -0.1054
60490W        W61354   7.166   5.909   0.015 -0.0263 -0.0512  0.0553
60491W        W61355  21.795  11.814   7.851  0.0440  0.2010  0.0131
60492W        W61356  27.322  16.326  22.535  0.2733 -0.0337 -0.1937
60493W        W61357  26.581  15.541  20.851  0.4128 -0.2676  0.0254
60494W        W61358   0.682  14.351  25.441  0.0153 -0.0019 -0.0266
60495W        W61359  19.862  11.147  24.060 -0.0214 -0.0165 -0.4162
60496W        W61360  13.521   9.665  18.600 -0.0215  0.2152  0.0692
60497W        W61361  21.025   6.032   6.269  0.6023 -0.0661  0.2644
60498W        W61362   7.831   8.865  24.610 -0.1340 -0.0482 -0.2827
60499W        W61363  11.479  10.350  25.380  0.3659  0.3284 -0.1577
60500W        W61364  22.314  24.672  22.573 -0.2727 -0.0942 -0.1236
60501W        W61365  13.101  28.589  25.071 -0.1759 -0.3610  0.1208
60502W        W61366  23.776  13.026   9.897 -0.0985  0.1340  0.2061
60503W        W61367  22.384   8.653  24.827  0.1016  0.0275  0.0110
60504W        W61368   0.323  21.700  22.842 -0.0214  0.1810  0.1204
60505W        W61369   8.680   5.935   0.012 -0.0566  0.0758 -0.1398
60506W        W61370   6.725  23.648  23.222  0.0914  0.4292 -0.0713
60507W        W61371  27.369  12.941  15.962 -0.0194  0.0431  0.0612
60508W        W61372  19.185  21.683   3.193 -0.0362 -0.0609 -0.0752
60509W        W61373  18.340  27.275   1.086 -0.0878  0.3477 -0.1126
60510W        W61374   1.354  27.022  23.555 -0.3483  0.0095 -0.0495
60511W        W61375   8.508  15.398  21.655 -0.0301 -0.2795 -0.2163
60512W        W61376   2.665   5.742  16.577  0.0975 -0.1870  0.2453
60513W        W61377  19.010  26.378  17.807 -0.2341  0.0389 -0.0162
60514W        W61378   7.941  23.178  25.837  0.0376  0.0826  0.3728
60515W        W61379   9.420  10.628   3.157  0.0677  0.0385  0.0072
60516W        W61380  15.777  13.055  26.086 -0.0065 -0.0887 -0.0992
60517W        W61381   6.654   7.397   2.673 -0.2813  0.2632  0.3666
60518W        W61382  13.423   5.200  28.411 -0.3879  0.0226  0.1849
60519W        W61383   6.443  10.918  12.333 -0.0827  0.3291 -0.1309
60520W        W61384  13.210  22.767  16.499 -0.0336  0.3680  0.0106
60521W        W61385  10.814   7.874  18.081  0.0270 -0.0833 -0.0483
60522W        W61386  25.791  17.684  20.128 -0.0505 -0.1207 -0.0327
60523W        W61387   7.472  15.906  24.716  0.4472 -0.1841  0.2004
60524W        W61388  20.526  19.722   4.596  0.2214  0.0084 -0.0304
60525W        W61389   7.725   8.777  25.363 -0.2111  0.0084 -0.1732
60526W        W61390  10.539   3.378  19.483 -0.0156  0.3537  0.3915
60527W        W61391  17.088   6.362  17.533  0.2359  0.2515  0.0752
60528W        W61392   3.619  14.378  12.454 -0.4913  0.0477  0.0495
60529W        W61393   9.733  23.341  20.725 -0.3730 -0.1310  0.0152
60530W        W61394  15.429   4.230  16.580  0.2998 -0.3394  0.2209
60531W        W61395  13.575  11.633  13.871 -0.1717  0.0798 -0.4908
60532W        W61396   9.276  13.790   3.670  0.1043 -0.3382  0.1080
60533W        W61397   8.191   9.179  27.050 -0.3550 -0.2540  0.3282
60534W        W61398  11.808  10.793  24.460  0.2942 -0.0139 -0.0755
60535W        W61399   1.489   1.885  24.247 -0.1222 -0.1488  0.0680
60536W        W61400   4.449  12.431  17.247  0.3459 -0.0469  0.2812
60537W        W61401  13.641   0.602  25.115 -0.1255  0.4789  0.3680
60538W        W61402  11.010  26.275   7.469  0.2224 -0.3996  0.0211
60539W        W61403   0.341  11.345   9.227 -0.0573  0.1291  0.0037
60540W        W61404  25.261  19.784  24.239  0.2110  0.0246 -0.1287
60541W        W61405  15.583  24.030  11.433  0.1304  0.3019  0.3182
60542W        W61406  16.295  21.492  19.309 -0.4820  0.1332  0.0675
60543W        W61407  23.893  13.833  28.789 -0.1466 -0.2033 -0.0778
60544W        W61408  20.940  19.721   0.742  0.1774  0.0337  0.1248
60545W        W61409   5.343  28.386  14.652 -0.0838 -0.0734 -0.2030
60546W        W61410   7.350   8.433  10.070  0.1034  0.2600 -0.0226
60547W        W61411  17.895  14.928  20.442  0.2647  0.1717 -0.0410
60548W        W61412   8.727   0.963  24.031 -0.0313  0.4743  0.0901
60549W        W61413   8.911  23.263  13.435 -0.2154 -0.2539 -0.0127
60550W        W61414  17.668  17.271  16.482  0.5347  0.2378  0.0328
60551W        W61415  21.289  16.398  27.572 -0.1774 -0.1618 -0.1096
60552W        W61416  17.229   1.123   9.188 -0.0768  0.1156  0.1963
60553W        W61417  13.481   1.942   0.744  0.3161  0.0510 -0.1326
60554W        W61418  12.506  11.927  19.231  0.0003 -0.2326  0.0955
60555W        W61419   4.504  13.262  15.531 -0.2317 -0.0642  0.3049
60556W        W61420  26.120  25.280  14.047  0.4268  0.3723  0.2696
60557W        W61421  20.874  20.768  23.083 -0.1173 -0.4349  0.3150
60558W        W61422   3.964   6.675  17.883 -0.3076 -0.1092 -0.1325
60559W        W61423  11.870   9.867  21.177 -0.1395 -0.1190 -0.1130
60560W        W61424  14.075  16.937  23.747  0.0205  0.2889 -0.3845
60561W        W61425  26.048  13.037  16.337  0.3543  0.1312  0.3966
60562W        W61426  28.771  21.404   9.748  0.1037 -0.1090 -0.2265
60563W        W61427   7.704   0.149  14.119  0.0053  0.2032  0.1179
60564W        W61428  15.991   9.058  20.593  0.0006 -0.1573  0.1995
60565W        W61429  11.701  24.943   5.680 -0.3031  0.1931 -0.1035
60566W        W61430  14.067   6.780  19.193 -0.0655 -0.2532  0.3587
60567W        W61431  11.330   0.218   8.378  0.0241  0.2355  0.0942
60568W        W61432  17.313  18.414  10.289  0.1418 -0.0942 -0.3031
60569W        W61433  15.547  27.262  19.722  0.0110 -0.2091 -0.1490
60570W        W61434  20.096   4.801   2.037 -0.0810 -0.0939 -0.3064
60571W        W61435  15.111  20.396   3.026 -0.0040  0.0459 -0.2585
60572W        W61436   1.357   9.548  16.900 -0.0684 -0.3290 -0.2559
60573W        W61437  29.019   4.102  21.936 -0.2176 -0.2201  0.0786
60574W        W61438  25.563  14.336   5.071 -0.1056  0.1528  0.0784
60575W        W61439   9.037  10.834   2.782 -0.1744  0.1284 -0.0764
60576W        W61440  28.971  14.096  24.370  0.2490 -0.1629  0.1531
60577W        W61441  17.197  21.624   7.740  0.0049 -0.0629 -0.1121
60578W        W61442   7.389   4.227  22.482  0.3372  0.3276 -0.2940
60579W        W61443  26.589   8.457  21.741 -0.1541 -0.1840  0.0029
60580W        W61444  12.091  11.685   2.870 -0.0643  0.2417 -0.2244
60581W        W61445  28.825  19.143   1.070  0.1060  0.1201  0.0226
60582W        W61446  24.588  24.389  21.891  0.1158 -0.1968  0.0488
60583W        W61447  15.427   0.540  14.529  0.1978  0.0706  0.1649
60584W        W61448  27.559   2.339  25.821 -0.0585 -0.3487 -0.1824
60585W        W61449  13.821  26.859  12.601 -0.2354  0.2737 -0.1922
60586W        W61450  15.397  20.045  26.496  0.3299 -0.0886  0.3507
60587W        W61451  17.997  20.323   1.349 -0.0254  0.0474 -0.3304
60588W        W61452  14.232  26.525  27.923  0.3655 -0.2925 -0.1696
60589W        W61453  16.835   7.033  12.291  0.1960 -0.0102 -0.0395
60590W        W61454   1.423   2.595   4.158  0.2245 -0.1270 -0.0621
60591W        W61455  27.839   7.879   3.298 -0.0138  0.1924  0.0091
60592W        W61456  15.707  27.135  19.282 -0.0907 -0.0291 -0.2446
60593W        W61457   5.593   6.193  17.263 -0.0592 -0.0411 -0.2217
60594W        W61458   5.631  10.127  23.986 -0.5601 -0.0546 -0.1794
60595W        W61459  12.353   5.795   7.361 -0.1595  0.0930 -0.0994
60596W        W61460  10.244   8.628  12.430 -0.1647 -0.0444  0.0860
60597W        W61461  27.057  12.078  27.732 -0.1411 -0.0574 -0.2470
60598W        W61462   2.335  18.143  13.800  0.0294  0.0277  0.1844
60599W        W61463   0.185  16.991  27.519  0.0389 -0.1977 -0.1214
60600W        W61464  22.056   3.830  10.406 -0.2358 -0.0963  0.0454
60601W        W61465   8.372  12.430   9.914 -0.3933  0.1436 -0.1402
60602W        W61466  27.350   9.337  16.565 -0.1744 -0.2483 -0.0548
60603W        W61467  18.625  10.312  27.445 -0.1767 -0.2334  0.4683
60604W        W61468  26.281  20.317  17.554  0.2976  0.1127 -0.0306
60605W        W61469  15.468   4.535  12.450  0.3607 -0.1842  0.0862
60606W        W61470  18.321  19.611  12.105  0.1906 -0.1728  0.1302
60607W        W61471  11.411  27.208  24.342  0.1759 -0.0421  0.0551
60608W        W61472  19.833  22.144  24.285  0.2356  0.1678  0.1903
60609W        W61473   3.433   5.852  11.421  0.1210 -0.1780 -0.0509
60610W        W61474  21.240   4.262   0.257 -0.0196  0.1527  0.0495
60611W        W61475  26.292  22.113  25.116 -0.1496  0.1957 -0.0107
60612W        W61476   2.507  11.375  12.663 -0.1338 -0.4962  0.0783
60613W        W61477   2.492  22.742   9.565 -0.3285 -0.4071 -0.1901
60614W        W61478  23.345  15.591   3.092  0.0816 -0.0532 -0.0605
60615W        W61479   7.430   5.345  28.393 -0.0733  0.0410  0.3180
60616W        W61480  22.444  25.389  21.159 -0.0158  0.0024 -0.0516
60617W        W61481   7.522  13.747  16.516 -0.0049 -0.1312  0.0708
60618W        W61482   2.289  18.333  10.916  0.1018  0.2675  0.4094
60619W        W61483  16.642  27.584  19.063  0.0686  0.1617  0.2311
60620W        W61484   8.541   3.929  27.086 -0.1162 -0.3907  0.0363
60621W        W61485   9.124  25.211   0.409  0.1769 -0.2705 -0.0555
60622W        W61486  14.361  22.348  13.168 -0.0919  0.2329  0.1666
60623W        W61487   6.984   9.475  17.330  0.0017  0.0445 -0.1304
60624W        W61488  25.465  20.050  26.577 -0.0215 -0.1405  0.1185
60625W        W61489  20.873   1.389   3.268 -0.2926  0.0408  0.0550
60626W        W61490  12.414  12.397   5.391  0.0092  0.1393  0.0440
60627W        W61491  16.502   4.037  18.053  0.1751  0.0405 -0.0261
60628W        W61492   1.890   0.491  13.016 -0.1086 -0.2743 -0.0410
60629W        W61493  19.371  18.412  18.944  0.1251 -0.0998 -0.1272
60630W        W61494   0.457  23.398   1.108  0.1772 -0.0186 -0.0398
60631W        W61495  17.815  13.525  27.213 -0.1373  0.2072 -0.0119
60632W        W61496  25.716  10.170   8.557 -0.1902 -0.2973 -0.1001
60633W        W61497  17.460   2.491   4.830  0.1936 -0.1328  0.0619
60634W        W61498  11.072   5.182  16.714 -0.1501 -0.0652 -0.0066
60635W        W61499   5.698  26.683  23.967  0.1067  0.0765 -0.2958
60636W        W61500  19.367  10.550  23.173  0.0372  0.0188  0.0853
60637W        W61501   1.789  22.696  28.075  0.1207  0.2941  0.2159
60638W        W61502   3.128  12.951  18.690  0.0588 -0.2141 -0.3880
60639W        W61503   5.234   4.785  19.783  0.1254  0.1266 -0.1752
60640W        W61504  25.487   9.823  23.359 -0.1153 -0.0514 -0.1422
60641W        W61505   1.831  12.628  12.715  0.0529 -0.1705 -0.0610
60642W        W61506  10.483  15.058  25.157  0.0144 -0.2222 -0.2094
60643W        W61507  19.524  24.029  14.005 -0.0593  0.1174 -0.0859
60644W        W61508  16.696  11.320   2.083 -0.2417  0.1214  0.0730
60645W        W61509  16.306  13.241  25.241 -0.0284  0.2829  0.1349
60646W        W61510  13.434  16.210  19.510 -0.1410  0.0989  0.3144
60647W        W61511  14.919  18.579  18.066 -0.1077  0.1377 -0.0080
60648W        W61512  23.253  15.050  21.888  0.1414  0.0957 -0.0921
60649W        W61513   6.553   6.527  17.256  0.0607  0.0832  0.0129
60650W        W61514   5.587   9.580   5.967  0.1886  0.1209 -0.2442
60651W        W61515   1.012  21.059  29.115 -0.0102  0.0728 -0.1714
60652W        W61516  16.590  14.356  24.105 -0.0805 -0.0194 -0.1222
60653W        W61517  24.934  28.714  11.184  0.3291  0.2752 -0.0767
60654W        W61518  18.934   3.561  23.813  0.1140 -0.0433  0.2425
60655W        W61519  18.724  11.572  24.007  0.0460 -0.0758  0.6682
60656W        W61520  11.449  17.474  28.797 -0.2381  0.0436  0.0306
60657W        W61521  12.087  11.184  20.344 -0.0913 -0.0063  0.0639
60658W        W61522  10.090   3.088  27.074  0.1465 -0.0182 -0.0435
60659W        W61523  25.144   8.569  17.187 -0.2443  0.3269 -0.2174
60660W        W61524  20.412  14.951  20.368 -0.1374 -0.2001  0.2318
60661W        W61525  11.903  25.589   2.812  0.0375  0.0889  0.1188
60662W        W61526  11.823  13.998   6.967 -0.0388  0.3876  0.0242
60663W        W61527  24.630  28.214   7.709  0.2211 -0.0168 -0.1422
60664W        W61528   1.748  16.347   5.747 -0.2082 -0.0644  0.0040
60665W        W61529  10.575   6.690   2.135  0.2675  0.0727  0.2879
60666W        W61530   3.954  15.434  10.869  0.2066  0.1865  0.1563
60667W        W61531   6.704  27.758   1.488  0.1712  0.1857 -0.2273
60668W        W61532  12.761  27.949  18.036 -0.1998 -0.1521 -0.1209
60669W        W61533   5.865  17.131  25.296 -0.0066 -0.1150  0.3511
60670W        W61534  16.259   1.085  25.399  0.1328 -0.0723 -0.0033
60671W        W61535  20.912  16.821  20.442  0.1171 -0.0316  0.0424
60672W        W61536  28.868  11.224  17.839  0.1780 -0.3657  0.3939
60673W        W61537   0.432  13.118  28.753 -0.1484  0.1365  0.0933
60674W        W61538   9.987   5.543  21.245 -0.1991  0.2829 -0.0957
60675W        W61539  28.714   6.643   4.795  0.1826 -0.3878 -0.1215
60676W        W61540  14.778  15.807  28.620  0.1744  0.2704 -0.1099
60677W        W61541   3.018  19.296  28.556  0.0502  0.1863  0.0616
60678W        W61542  14.290   8.238   1.120  0.0426 -0.1137  0.1139
60679W        W61543  17.235  10.327  27.613 -0.0202 -0.1602 -0.0411
60680W        W61544  26.482  10.319   1.154  0.2965 -0.1035 -0.1414
60681W        W61545   9.677  12.002   3.219 -0.1162  0.0865 -0.1194
60682W        W61546  16.088   4.018  17.623  0.1830 -0.0503  0.0197
60683W        W61547  10.684  22.034  27.104  0.0397  0.0809  0.2130
60684W        W61548   0.690  21.013  22.035  0.0243  0.6288  0.2957
60685W        W61549  24.128  22.418  22.638 -0.1365  0.1966  0.2880
60686W        W61550  15.257  16.666   0.093 -0.1065  0.2952 -0.0528
60687W        W61551   7.324  20.786   2.566  0.4405 -0.0706 -0.2615
60688W        W61552   3.737  15.467  13.889  0.1792  0.0776 -0.1391
60689W        W61553   0.983  10.610  12.170  0.1934  0.2641 -0.0213
60690W        W61554  17.208  23.414   8.217 -0.1497 -0.2538  0.0429
60691W        W61555  11.457  18.292  12.332 -0.4445 -0.1808 -0.2019
60692W        W61556   8.038  19.670  23.785 -0.0212  0.0413  0.0990
60693W        W61557   0.302  24.631  12.062  0.2519  0.1621 -0.2418
60694W        W61558  20.627   2.870  26.494 -0.1901 -0.0520  0.3406
60695W        W61559   7.245  16.234  11.422  0.1317 -0.0649 -0.1247
60696W        W61560   8.955  19.952   6.730  0.0834 -0.3988  0.0302
60697W        W61561   4.316  17.491  17.207 -0.2701  0.3449 -0.2453
60698W        W61562  19.489  27.965  24.978  0.1900 -0.3744  0.2203
60699W        W61563   3.744  10.890   8.806 -0.1940  0.1951  0.0212
60700W        W61564  14.603   2.845   5.464 -0.1477 -0.2130  0.0771
60701W        W61565  15.883   5.605  21.308  0.0898  0.2749 -0.0118
60702W        W61566  10.733  11.520  23.971 -0.2811  0.1882 -0.1239
60703W        W61567  14.635  10.035  21.182  0.0740 -0.2220  0.0283
60704W        W61568   7.106  14.585  25.584  0.1874  0.1053 -0.1312
60705W        W61569  28.218  10.153  17.493  0.1559 -0.0786 -0.0487
60706W        W61570  24.828   4.077   8.246 -0.0379  0.0432 -0.2161
60707W        W61571  10.680   5.332  24.239 -0.2925 -0.0108 -0.0042
60708W        W61572   6.334  10.367  18.228  0.0481  0.3374  0.0373
60709W        W61573  28.697  11.719  23.337  0.3827 -0.0535  0.2604
60710W        W61574   3.480   0.654  12.816 -0.0140  0.0319  0.0045
60711W        W61575   2.620   3.055  14.324  0.2965 -0.1574  0.3059
60712W        W61576  28.223  24.573  25.981 -0.2581  0.1212  0.1761
60713W        W61577  13.145   5.222  27.168 -0.0166 -0.3970  0.2270
60714W        W61578  11.225   4.375  27.316  0.1988  0.0426 -0.0763
60715W        W61579   0.013  18.684  28.059 -0.1548 -0.2637  0.1137
60716W        W61580   5.001  19.444   0.365 -0.0475 -0.0243 -0.0543
60717W        W61581   9.807   5.916  23.745  0.1451 -0.2890 -0.1845
60718W        W61582   2.244  10.801  12.314 -0.1066  0.1260  0.1107
60719W        W61583  13.360  22.128  19.822 -0.0146 -0.2352 -0.3973
60720W        W61584  25.977  11.832   2.498  0.0203  0.0695 -0.1431
60721W        W61585  28.499   0.957   4.522  0.2294  0.2037 -0.0344
60722W        W61586   2.173  20.801  21.766 -0.1938  0.0211 -0.0545
60723W        W61587  18.306   3.994  20.196  0.0915 -0.7154 -0.0683
60724W        W61588   2.039   4.650  23.372 -0.0278  0.2676  0.0920
60725W        W61589   3.398  18.719   6.050  0.0565  0.2404 -0.0400
60726W        W61590  13.998  20.749   9.448 -0.2232 -0.4943 -0.1051
60727W        W61591  15.748   5.507   1.616 -0.1922  0.3623 -0.0307
60728W        W61592   2.160   8.332   4.639 -0.0027 -0.0339  0.4468
60729W        W61593   7.448   3.282  28.855  0.0902 -0.1163  0.1728
60730W        W61594  16.441   1.443   1.150  0.0766  0.0800 -0.1046
60731W        W61595   5.143   3.968   0.209  0.0288 -0.1959  0.0322
60732W        W61596   3.451  21.132  16.209 -0.1210  0.0173 -0.0832
60733W        W61597  13.982   8.391   0.683  0.0505  0.0745  0.0901
60734W        W61598   4.770  19.379  25.046  0.0957  0.2957 -0.0252
60735W        W61599  13.953  25.315  11.936 -0.0614  0.0362  0.1287
60736W        W61600  27.310  28.730   1.238  0.0804 -0.0056 -0.2800
60737W        W61601  17.670   9.133   1.443 -0.0073  0.1294  0.1079
60738W        W61602   2.827  19.082   4.007  0.0655  0.0956  0.3598
60739W        W61603   2.255  13.232  14.225  0.2153  0.2630  0.1679
60740W        W61604  27.905   0.072  24.568 -0.2174 -0.1660  0.0242
60741W        W61605  20.615  14.988   7.934 -0.1298 -0.1178  0.0565
60742W        W61606   6.447   0.655  29.096  0.0179 -0.1814 -0.0385
60743W        W61607  10.759  25.905  23.916 -0.0325 -0.0704  0.0151
60744W        W61608   6.225   6.216   6.562 -0.0485  0.1465  0.0444
60745W        W61609  10.806   9.094   5.796 -0.1623  0.1059  0.0404
60746W        W61610  12.187  16.067   1.941  0.1252 -0.0170  0.0877
60747W        W61611   1.767   0.345   9.274  0.0462 -0.1619 -0.1211
60748W        W61612  10.204  20.695   4.169  0.4711  0.1554  0.2406
60749W        W61613  18.881  28.188   9.164  0.2777  0.0126 -0.1206
60750W        W61614  19.383   2.216   5.719 -0.1326 -0.1223  0.1003
60751W        W61615   0.075  26.575  18.700  0.2997 -0.0430 -0.4507
60752W        W61616  17.515  22.280  16.214  0.0992  0.1078 -0.1896
60753W        W61617   8.541  16.175   4.630 -0.2647 -0.0291  0.3369
60754W        W61618   9.219  24.434   0.204 -0.0637  0.0726 -0.1467
60755W        W61619  21.451   7.634  26.721  0.2008 -0.2005  0.2354
60756W        W61620   9.639  28.727  28.757 -0.1454  0.2677 -0.1535
60757W        W61621  21.821  14.693   1.207 -0.0083 -0.3759 -0.2082
60758W        W61622  14.182   3.270  14.552 -0.0545 -0.3497  0.1148
60759W        W61623  19.048   7.324  24.995 -0.2257  0.1782 -0.3439
60760W        W61624   7.751  24.570  12.230 -0.1112  0.2879  0.0459
60761W        W61625  15.976  23.547  11.257  0.0883 -0.1636  0.3305
60762W        W61626   5.574   7.249   5.324  0.0118 -0.0508  0.0581
60763W        W61627   8.981  26.359   2.516 -0.2671  0.1376 -0.1846
60764W        W61628  19.610   2.457  12.984  0.0812  0.2495 -0.3237
60765W        W61629   6.230  14.376  21.343  0.0582  0.2325 -0.0169
60766W        W61630  19.047   6.739   5.565  0.2613  0.1600 -0.0132
60767W        W61631  16.065  22.458   0.424 -0.2575 -0.0652  0.0552
60768W        W61632  14.571  27.947   2.798 -0.0798 -0.0453 -0.1795
60769W        W61633   3.917   7.216   9.694  0.1508 -0.1290 -0.1381
60770W        W61634  27.191  28.760  14.219  0.0700 -0.0149 -0.0937
60771W        W61635  16.294   1.389   6.052 -0.1242  0.0992 -0.0160
60772W        W61636   2.998  15.133  22.703 -0.1149 -0.0725 -0.0695
60773W        W61637  12.633  10.856  14.873  0.0474 -0.0996  0.1207
60774W        W61638  26.253  27.791   5.229  0.0793  0.0948 -0.1263
60775W        W61639  24.993   1.679  10.090  0.0736 -0.0763 -0.0444
60776W        W61640  20.646   1.859  27.739 -0.1310  0.0226  0.2046
60777W        W61641  18.169   8.950   4.999 -0.1590  0.2098 -0.0208
60778W        W61642  17.013   5.877   0.955  0.2275 -0.0127  0.0874
60779W        W61643  11.598   1.766   1.420 -0.1391  0.2314  0.0824
60780W        W61644  14.240  13.247  18.014 -0.0989  0.2042 -0.2423
60781W        W61645  14.561   0.231  23.311 -0.0171 -0.0947 -0.1608
60782W        W61646   6.627  21.261  14.508 -0.1486 -0.0103 -0.1661
60783W        W61647   5.979   7.623  16.933  0.0584  0.0266  0.0676
60784W        W61648   6.560   5.970  13.160 -0.2930 -0.2079 -0.0499
60785W        W61649  16.137  23.074   1.605 -0.4565  0.0953  0.0403
60786W        W61650  23.497   5.239   7.458 -0.0280  0.1039  0.0680
60787W        W61651  11.526  11.331  25.703 -0.0525 -0.0167 -0.1013
60788W        W61652   7.162  25.055  21.512 -0.0344 -0.0001  0.0715
60789W        W61653   2.896  14.204   7.181 -0.0477 -0.1389 -0.0822
60790W        W61654   0.094   2.973  26.353 -0.0546  0.1252 -0.1197
60791W        W61655  12.920  10.542  18.115  0.0758 -0.2255  0.4100
60792W        W61656   9.803  10.658  12.053 -0.2012 -0.1299  0.2281
60793W        W61657  28.502  18.849  15.023  0.0304 -0.0740 -0.2039
60794W        W61658  10.955  10.493   8.704  0.0599  0.1567  0.1804
60795W        W61659   8.348   6.846  16.657 -0.0866  0.3894 -0.1417
60796W        W61660   8.063  12.442   2.309 -0.0047 -0.3707 -0.0094
60797W        W61661   2.212  13.500  10.409 -0.1612 -0.1314 -0.3388
60798W        W61662   9.637   5.501   6.924 -0.0488  0.0434  0.2800
60799W        W61663  24.146   6.035  24.002  0.2225 -0.4887  0.0549
60800W        W61664  21.881  11.270  21.675 -0.0506  0.0506 -0.3354
60801W        W61665  23.706  23.313  22.392  0.0532  0.2670  0.2996
60802W        W61666  16.888  25.712  21.254 -0.3762 -0.0817 -0.0414
60803W        W61667  21.593  27.825   2.423  0.0235  0.2137 -0.2232
60804W        W61668  26.710  14.187  27.886  0.0638 -0.1503 -0.1638
60805W        W61669   5.841  23.249  19.599  0.0639  0.0823  0.1441
60806W        W61670   2.094   6.001  23.511 -0.1510  0.3204  0.0886
60807W        W61671  12.453  11.835  18.399  0.0793  0.3654  0.2788
60808W        W61672  21.326  10.669  16.648  0.0378 -0.3344 -0.0590
60809W        W61673   0.485  20.877   3.214  0.0256  0.3074  0.1449
60810W        W61674  24.393   8.574   8.086 -0.1502  0.2658  0.1338
60811W        W61675  11.862   8.729  10.812 -0.0194 -0.0324  0.3064
60812W        W61676  27.652  28.593   5.498 -0.0714 -0.0217  0.2585
60813W        W61677  18.337  19.925  23.312 -0.0368 -0.1559  0.0535
60814W        W61678  15.326   7.413  18.318  0.0192 -0.0312  0.1647
60815W        W61679  22.683  16.293  20.978  0.1657 -0.2113  0.0012
60816W        W61680  11.657  11.297  16.764 -0.2248 -0.0557 -0.0741
60817W        W61681   5.282  14.181  24.943  0.1791 -0.1518  0.0522
60818W        W61682  20.006  13.780   5.711 -0.2234 -0.0233  0.2872
60819W        W61683  24.529   6.006   0.234 -0.1464 -0.1424  0.1508
60820W        W61684  25.166   1.904  28.213 -0.1404  0.0495  0.2369
60821W        W61685   2.397  17.864  27.542 -0.1179  0.0820  0.0023
60822W        W61686  12.560  25.105  27.911 -0.0025 -0.1757 -0.0597
60823W        W61687  13.694   6.724   9.723 -0.0604 -0.0918 -0.0598
60824W        W61688   8.259   8.009  22.923  0.1815 -0.0321  0.0155
60825W        W61689   2.499  10.045  21.800 -0.2294  0.0167  0.2715
60826W        W61690   2.874  21.485  15.174  0.0662 -0.1801 -0.0898
60827W        W61691   8.011  28.278  23.500 -0.0235  0.1902 -0.0744
60828W        W61692  22.857  24.666   0.116 -0.0173 -0.0789 -0.1790
60829W        W61693  26.507  14.822  15.577  0.1962 -0.1409 -0.1682
60830W        W61694  28.179   1.511  26.085  0.2787  0.2646 -0.1245
60831W        W61695   2.781   3.048   1.279  0.3281 -0.0394  0.0231
60832W        W61696  10.425  16.950  18.106  0.0630  0.2142  0.1824
60833W        W61697  19.657  21.757   9.069  0.0547 -0.0088  0.2896
60834W        W61698  10.169  10.693   2.427 -0.0840 -0.0316 -0.1168
60835W        W61699  27.547  14.920  27.073 -0.0083 -0.1450  0.0118
60836W        W61700  19.046   5.438   3.303  0.0169  0.0238  0.2866
60837W        W61701  18.267   2.216  24.077  0.0629  0.1879  0.1545
60838W        W61702  28.678   7.988  28.560 -0.0894  0.3371  0.2282
60839W        W61703   3.590  11.591   6.805 -0.0770 -0.0384  0.2712
60840W        W61704  10.977   7.318   9.801  0.1812 -0.0664  0.0418
60841W        W61705   4.516  16.688   8.299 -0.1805 -0.0700  0.0863
60842W        W61706   6.952  22.575   0.374  0.0152 -0.0134 -0.3302
60843W        W61707  26.590   9.613  20.812  0.0999  0.5696 -0.1386
60844W        W61708   4.293  28.973   5.383  0.1121 -0.1054 -0.2249
60845W        W61709  13.439   7.603   0.863  0.2773  0.3920 -0.3765
60846W        W61710  28.771  15.248  24.069 -0.0967 -0.0411 -0.2531
60847W        W61711  25.639  21.755   0.592 -0.0978 -0.3403  0.2206
60848W        W61712  19.991  15.595  25.538 -0.0216 -0.0924  0.1177
60849W        W61713   6.616   2.491   4.649 -0.2060 -0.1266 -0.2462
60850W        W61714   1.815  27.963  15.284  0.0783 -0.1040  0.0292
60851W        W61715  13.665  10.971   7.480 -0.2350 -0.0444 -0.0378
60852W        W61716  10.721   1.464   2.497  0.0517 -0.1209 -0.3569
60853W        W61717   0.482  13.886  21.605  0.2921 -0.2554  0.1735
60854W        W61718  11.814  13.186  25.102  0.0607 -0.0831 -0.2374
60855W        W61719  13.643  14.736  11.199  0.0539 -0.1986  0.2393
60856W        W61720   5.448   5.410  26.692 -0.3091 -0.0938 -0.1205
60857W        W61721  20.894  24.056  27.642  0.1530  0.0901 -0.0248
60858W        W61722   1.302  13.372  27.158 -0.0793 -0.1309  0.1357
60859W        W61723  16.253  11.260  14.836 -0.1641  0.2061 -0.0900
60860W        W61724   3.993   5.927  25.025 -0.0359 -0.0640  0.1459
60861W        W61725  19.195   5.206  25.347 -0.0927  0.4187 -0.1574
60862W        W61726  25.006  22.010  14.456 -0.0723 -0.3871 -0.1671
60863W        W61727  11.282  22.763  16.542 -0.1922 -0.3493 -0.0503
60864W        W61728  27.015   8.698  23.367 -0.1439  0.2046  0.0758
60865W        W61729  18.412  26.237  12.327 -0.1524  0.0780 -0.0821
60866W        W61730  24.158   8.588  24.679 -0.3473  0.1276 -0.0342
60867W        W61731  16.307  26.189   7.015  0.0997  0.1869 -0.1032
60868W        W61732  21.750  19.210  23.645  0.1439 -0.0793 -0.3616
60869W        W61733   8.179  28.626  17.016  0.2217  0.1815 -0.0109
60870W        W61734  18.710   5.667  20.539  0.0380  0.2487  0.1279
60871W        W61735  24.619   6.375  16.721 -0.0149  0.1864  0.2187
60872W        W61736  15.351  10.143  19.977  0.1291 -0.0914 -0.2151
60873W        W61737   2.637  13.039  26.198 -0.4416 -0.2518 -0.0413
60874W        W61738  19.604  11.375  22.456 -0.0074  0.0489  0.1608
60875W        W61739   3.303   9.980   6.703 -0.0480  0.0657 -0.0625
60876W        W61740   4.862  14.230   8.794  0.0646  0.0535 -0.0321
60877W        W61741  18.246  13.505  11.956 -0.2683 -0.1568 -0.2491
60878W        W61742  11.970  24.228  17.096 -0.2101  0.0914  0.1876
60879W        W61743  25.689  10.675  13.127 -0.0502  0.2048  0.1578
60880W        W61744   3.095   5.718  14.690  0.0777 -0.0984 -0.1677
60881W        W61745   7.040  23.290  23.409 -0.1791 -0.0791  0.0014
60882W        W61746  27.792   3.054  21.253  0.1355 -0.2427  0.1273
60883W        W61747  12.276  11.749   0.313 -0.0242  0.2349  0.1080
60884W        W61748   8.223  11.117  22.944 -0.0211  0.0559  0.0510
60885W        W61749  27.247   3.549  28.967 -0.1354 -0.0445  0.2757
60886W        W61750   9.376  24.170  14.015  0.0375  0.1387 -0.0571
60887W        W61751  29.119  19.397  21.607 -0.1068  0.1667  0.1597
60888W        W61752   7.635  16.360  28.424 -0.1243 -0.0070 -0.1619
60889W        W61753   4.736   3.241  24.429  0.1814  0.0396 -0.0503
60890W        W61754  27.239  11.175   3.389  0.0999 -0.2593  0.1401
60891W        W61755  18.834   5.544   6.404  0.0639 -0.0537  0.3261
60892W        W61756  22.046  11.270   0.937  0.1291  0.0821 -0.2146
60893W        W61757  19.451  13.395   3.544  0.2576 -0.0334 -0.0250
60894W        W61758  10.799  19.981  10.920 -0.0382 -0.2170  0.1515
60895W        W61759  23.685  11.541  20.579 -0.2584  0.1533 -0.1498
60896W        W61760   2.930   6.933   1.654  0.3473 -0.0173 -0.1208
60897W        W61761  22.836  19.833  10.047 -0.0074 -0.2406  0.0687
60898W        W61762  13.537   9.258   5.185  0.3640  0.0600  0.2170
60899W        W61763   9.201  10.732  19.528  0.2681 -0.0269 -0.2333
60900W        W61764   1.614  10.391  20.630 -0.0526 -0.0171 -0.0388
60901W        W61765  23.543  23.846   4.536 -0.0201 -0.0889 -0.1409
60902W        W61766  20.413  15.287   2.611 -0.0577 -0.2506 -0.0580
60903W        W61767   7.057  12.155  25.288 -0.1992  0.0469 -0.1888
60904W        W61768  24.274   6.348  25.887 -0.4767 -0.1503  0.2799
60905W        W61769   2.082  26.003  24.031 -0.1609  0.1561  0.0828
60906W        W61770  10.944  13.720   2.786 -0.1323  0.1083  0.1450
60907W        W61771   4.237   4.333   3.853  0.2241 -0.0079 -0.1326
60908W        W61772  11.998  26.704  14.157 -0.1788  0.2504  0.2242
60909W        W61773   7.625   3.500  23.996  0.2331  0.1820 -0.3732
60910W        W61774  14.905  19.204  24.434 -0.4199 -0.2850  0.0672
60911W        W61775  20.062  17.310  26.252 -0.1310 -0.3547  0.2934
60912W        W61776  17.375  19.576  24.658 -0.2182  0.1652 -0.2057
60913W        W61777  20.178  21.403  27.180 -0.2237 -0.1026  0.1440
60914W        W61778   0.162  10.402  18.009  0.1916 -0.2331  0.2718
60915W        W61779  10.575  26.808   9.243  0.0572  0.3442 -0.0287
60916W        W61780   7.781  25.870  17.004 -0.0597  0.2327 -0.1595
60917W        W61781   9.549   9.062  28.070 -0.1475 -0.1797 -0.1026
60918W        W61782  10.355  17.563  23.480 -0.3336  0.1339  0.2639
60919W        W61783  24.010  10.766  12.354 -0.1189  0.3223  0.1455
60920W        W61784  19.072   9.869  19.841 -0.2510 -0.2324 -0.0678
60921W        W61785   1.207   5.890  23.318 -0.0005 -0.0711 -0.1397
60922W        W61786  17.866  28.217  19.887  0.0173 -0.2219  0.2763
60923W        W61787  16.323  23.122  19.433 -0.3869 -0.2664 -0.0060
60924W        W61788  13.133  26.883  27.468 -0.1046 -0.0774 -0.3586
60925W        W61789  21.289  17.084   9.017  0.0297  0.1762  0.1249
60926W        W61790   3.013  28.188  21.837 -0.1207  0.1113  0.0238
60927W        W61791  21.105   0.800   6.196 -0.2064  0.0625 -0.3106
60928W        W61792   1.934  13.914  28.467  0.2108 -0.0069  0.4608
60929W        W61793  25.725   8.752  10.181  0.1801 -0.2271 -0.2136
60930W        W61794  14.196  15.016   2.780  0.1078  0.0330 -0.1161
60931W        W61795  18.494   9.839  19.912 -0.1017  0.3658  0.2967
60932W        W61796  27.498  15.282  21.251 -0.0834  0.0256  0.0232
60933W        W61797   6.737  23.104  22.377 -0.3096 -0.2365 -0.1501
60934W        W61798  18.212  24.673  29.100 -0.2802  0.1928 -0.0234
60935W        W61799  23.386  17.684  10.892 -0.2703 -0.1281 -0.0342
60936W        W61800  17.367   7.238  17.438 -0.2749  0.1386  0.0029
60937W        W61801   1.157   0.188  23.938 -0.2152 -0.0290  0.1948
60938W        W61802   6.286   7.626   1.687 -0.1902 -0.0830 -0.2317
60939W        W61803   8.371  16.302  18.578 -0.0895  0.2725  0.0964
60940W        W61804  21.839  20.148  26.318  0.1084  0.1418 -0.2945
60941W        W61805  16.642  24.642   5.518 -0.0242 -0.0175 -0.2549
60942W        W61806  12.896  26.562   1.769  0.0940  0.0718  0.0964
60943W        W61807  18.665  24.664  20.943 -0.0933 -0.2865 -0.0300
60944W        W61808   9.808  12.100  26.223  0.5449  0.1183  0.1868
60945W        W61809   3.123   7.630   0.529 -0.3119 -0.0963 -0.0440
60946W        W61810  28.831  26.828   6.560  0.0973 -0.1888  0.1439
60947W        W61811   0.821   3.923   9.110  0.1660  0.1166 -0.1935
60948W        W61812   0.339  27.887  17.665  0.3077  0.0495 -0.0733
60949W        W61813   8.103  21.030   1.464  0.1404 -0.1971  0.1096
60950W        W61814   1.620  28.829   0.757  0.0501  0.3503 -0.1025
60951W        W61815  14.651   3.791   0.763  0.2644  0.1035 -0.0291
60952W        W61816  12.279  20.106  11.164 -0.0392 -0.0909 -0.2455
60953W        W61817  26.159  14.486   4.835  0.1480  0.0499  0.1632
60954W        W61818  26.050   6.719   8.385  0.0499 -0.3454  0.3029
60955W        W61819  11.525   8.380   1.344  0.0221 -0.2370  0.0457
60956W        W61820  28.362   9.133  13.549  0.1495  0.0572  0.1166
60957W        W61821  10.214  15.061   2.776  0.1634 -0.0403 -0.0363
60958W        W61822  16.524  11.702  10.838  0.4905 -0.2077  0.0922
60959W        W61823  17.622  19.363   4.550 -0.1593  0.0859 -0.1541
60960W        W61824   0.923   0.701   8.518  0.1609 -0.1075 -0.0913
60961W        W61825  10.451  14.995  17.421  0.1317 -0.1475 -0.1209
60962W        W61826  22.318  29.031  22.764 -0.1350 -0.1258 -0.0479
60963W        W61827  25.018  18.899   1.257  0.1328 -0.0519 -0.0678
60964W        W61828  18.194  27.864  28.588 -0.0253 -0.0766 -0.0834
60965W        W61829  27.597  16.354  17.245  0.0869 -0.0475 -0.1637
60966W        W61830  27.120   5.084  27.314  0.4430 -0.0962 -0.2812
60967W        W61831  28.524   8.708  11.819  0.0972  0.1602 -0.0889
60968W        W61832  12.380  13.552   1.642 -0.0853  0.0807 -0.0703
60969W        W61833  22.714   5.221  29.141  0.1251 -0.2890 -0.1608
60970W        W61834  25.047  24.130   1.619 -0.1119  0.0883  0.0730
60971W        W61835  18.112   0.200  18.058 -0.1435  0.0683  0.0566
60972W        W61836  21.195  17.286   6.773  0.2684 -0.1336  0.2681
60973W        W61837   6.163  19.962  22.510 -0.0388 -0.4198 -0.0805
60974W        W61838   8.192  26.649  15.917 -0.1167  0.3055  0.1077
60975W        W61839   4.454  23.905  16.557 -0.3436  0.4115  0.2537
60976W        W61840   2.074  10.551  17.882 -0.3135  0.2386 -0.0774
60977W        W61841  22.578  13.984  23.966 -0.2172 -0.0628 -0.0882
60978W        W61842  18.727   5.400  25.946  0.0024 -0.0320  0.1755
60979W        W61843   1.832  10.704  13.448  0.2458  0.3139  0.0733
60980W        W61844   9.887  12.215  24.487 -0.1423 -0.0297  0.2479
60981W        W61845   1.106   9.541   7.038 -0.0629  0.0510 -0.1889
60982W        W61846   5.006   9.303   1.153 -0.3050 -0.0183 -0.1518
60983W        W61847  10.432   1.460   9.742  0.1285  0.0832 -0.2313
60984W        W61848  20.040  22.266  25.603 -0.1514 -0.1792  0.0142
60985W        W61849   9.226   8.511  11.232  0.0942  0.0566  0.1477
60986W        W61850   3.535  25.942  23.504  0.1935 -0.4690  0.1360
60987W        W61851  15.904  13.857  22.995 -0.1007  0.1687  0.1288
60988W        W61852   7.579  16.999  14.882 -0.4214  0.2367 -0.1111
60989W        W61853   6.528  22.946  16.471  0.1048  0.0568  0.1066
60990W        W61854  28.216  13.291  19.674 -0.0286 -0.3225  0.0183
60991W        W61855  10.146  22.351  28.301  0.0530 -0.1808  0.1605
60992W        W61856  26.396  12.120   2.777  0.2835  0.0451 -0.2618
60993W        W61857  22.561  24.459   6.888 -0.0718  0.1480  0.3276
60994W        W61858  23.733  26.763  23.684  0.1137  0.2843  0.1308
60995W        W61859  24.183   5.876  15.157 -0.1873 -0.1943 -0.0744
60996W        W61860   8.597  15.794   3.035  0.0322 -0.0341  0.2529
60997W        W61861  10.140  16.621   8.697  0.3051 -0.0900  0.0912
60998W        W61862  27.690   7.901   6.779 -0.0695  0.0895  0.1699
60999W        W61863  26.644  13.995   9.802  0.0695 -0.3868  0.2457
61000W        W61864  24.079  23.388  18.653  0.1428 -0.0452 -0.1311
61001W        W61865   3.120  20.790   6.340  0.2295 -0.2581 -0.1488
61002W        W61866  14.656  24.919  19.690  0.3824  0.2804  0.0179
61003W        W61867  11.922  23.635  21.020  0.0542 -0.2046 -0.3710
61004W        W61868   0.856  25.535  22.088 -0.3057 -0.1392 -0.2445
61005W        W61869  19.936   6.355  10.757  0.2673 -0.2228  0.1571
61006W        W61870  13.204   9.455  25.259  0.0502 -0.0489  0.4240
61007W        W61871  26.738   9.311   9.037 -0.0074  0.2224  0.0642
61008W        W61872  24.197  28.512  26.197 -0.1289 -0.1282  0.2929
61009W        W61873  12.869  16.865  13.938 -0.0695 -0.2396 -0.2975
61010W        W61874   4.500   8.835   5.059 -0.2728  0.2724  0.0593
61011W        W61875  28.932  10.148   1.789 -0.1505 -0.0986 -0.0618
61012W        W61876  11.760   4.927   2.014 -0.2353 -0.0903  0.0360
61013W        W61877  10.487  28.583  26.573  0.0108 -0.1548 -0.0546
61014W        W61878  11.517   0.141  20.336 -0.0997  0.1401 -0.0649
61015W        W61879  23.344  10.919   9.013  0.1056  0.1707 -0.2167
61016W        W61880  19.196  10.557  17.505  0.1875 -0.1985 -0.0158
61017W        W61881  18.235  11.959  24.084 -0.7177  0.0963  0.4186
61018W        W61882  13.429  22.041  11.546 -0.2457 -0.1871 -0.4053
61019W        W61883   5.106   2.135  22.746 -0.0315 -0.0776  0.0792
61020W        W61884  20.778   6.663   5.706 -0.1309 -0.0557  0.0524
61021W        W61885   1.168  12.462   2.011 -0.2052  0.1497 -0.2325
61022W        W61886  28.340   7.180   7.476 -0.1074 -0.0600  0.0892
61023W        W61887  14.793   4.904   9.612  0.3471  0.1010 -0.3540
61024W        W61888   1.308  18.732   6.246 -0.0166  0.1186  0.0310
61025W        W61889   5.024  16.706  14.953 -0.2323  0.1742 -0.2282
61026W        W61890  23.561  12.617  24.539 -0.0492 -0.1731 -0.0931
61027W        W61891   4.870   9.721  18.280  0.0359  0.2104 -0.1623
61028W        W61892   2.017   6.190  21.944 -0.0842  0.1746 -0.0840
61029W        W61893  25.511  22.847   4.936 -0.1294  0.0474  0.0698
61030W        W61894   6.250   8.782  23.594  0.0673  0.2728  0.1668
61031W        W61895  11.799   5.423  25.689 -0.1141 -0.2399 -0.0934
61032W        W61896  16.535  20.767  26.730  0.0331 -0.1677  0.0550
61033W        W61897  12.974  18.377  10.437 -0.2937  0.0942 -0.1237
61034W        W61898   6.621  18.839   0.872 -0.1520  0.0780 -0.2173
61035W        W61899   8.321  10.194  17.295  0.0604  0.2017  0.1733
61036W        W61900   8.003  25.355  25.283  0.0747 -0.2603  0.0562
61037W        W61901  19.512  13.286  18.811 -0.0104 -0.0783  0.0389
61038W        W61902  14.794  18.749  25.728 -0.4317  0.1510 -0.4704
61039W        W61903   5.999  18.545   3.189 -0.2120  0.0147  0.2011
61040W        W61904   0.317   9.148  24.958  0.0306 -0.1892  0.0027
61041W        W61905   8.690  16.005   9.611 -0.0342  0.2683 -0.2467
61042W        W61906   6.199  19.419   2.000 -0.0911 -0.0490 -0.0628
61043W        W61907   2.094  14.685  24.644 -0.0710 -0.2052  0.2077
61044W        W61908  23.073  13.487   2.026  0.0299  0.2480 -0.0306
61045W        W61909  26.481   9.112  27.061  0.3388  0.0354  0.1492
61046W        W61910   5.644  10.361   5.744  0.1446  0.2147 -0.2595
61047W        W61911  18.250  19.399   7.098 -0.1952  0.0563 -0.0241
61048W        W61912   9.149   0.679  14.019  0.0612 -0.4500 -0.0792
61049W        W61913  25.819  24.409   2.958 -0.1991  0.1020  0.1030
61050W        W61914   7.479  21.591  28.065 -0.3095 -0.1192 -0.0481
61051W        W61915  12.199  20.702   2.541 -0.0385 -0.0696 -0.0702
61052W        W61916   0.716   5.680  24.031 -0.2499  0.2632  0.2455
61053W        W61917  28.993  28.088  26.646  0.1236 -0.2552 -0.0130
61054W        W61918   2.059   2.320  18.633  0.0754  0.2370  0.4278
61055W        W61919  15.891  21.864   6.488 -0.2445 -0.0928 -0.1838
61056W        W61920  18.041  18.688   4.086  0.0247 -0.0382 -0.3114
61057W        W61921  19.006  20.099   1.999 -0.1063 -0.0414 -0.3905
61058W        W61922  14.969  26.679  14.642  0.2295  0.0794  0.1106
61059W        W61923   3.483   5.305   1.483  0.1800 -0.0109 -0.1939
61060W        W61924   0.912   7.831  12.517  0.0353 -0.1341  0.0008
61061W        W61925  12.385   3.271  11.254 -0.2448  0.0550  0.1344
61062W        W61926   3.165  18.115  10.509 -0.0495 -0.0665  0.0412
61063W        W61927  27.905  23.987  12.656  0.0700 -0.2272  0.0914
61064W        W61928   7.079   8.987   9.407 -0.1703 -0.0584 -0.4276
61065W        W61929   4.632   7.517  16.904  0.2011  0.2175  0.0082
61066W        W61930   0.711   6.955  11.496  0.2085 -0.0542 -0.3005
61067W        W61931  24.936   9.530  17.003  0.1259 -0.1366 -0.0565
61068W        W61932   1.743   3.369   4.903  0.1237  0.0879  0.1468
61069W        W61933  12.864  16.522  19.443 -0.3317 -0.1390  0.2032
61070W        W61934  17.009  11.559   1.231  0.0349  0.0646  0.1497
61071W        W61935  22.763   8.356   0.048  0.0352 -0.1153  0.0646
61072W        W61936  10.501  26.909   1.163 -0.0182  0.1632  0.0816
61073W        W61937  25.109  13.023   7.986 -0.0368  0.1375  0.1932
61074W        W61938  16.345  21.382   2.654  0.1430 -0.1747 -0.2475
61075W        W61939  16.646   2.868  13.283 -0.1097  0.1342  0.0147
61076W        W61940  28.484  18.426   3.466  0.0522 -0.2634  0.0652
61077W        W61941  16.986  24.366   4.580 -0.1778 -0.1202 -0.0041
61078W        W61942  24.561   4.540  11.105  0.2314  0.1832 -0.0764
61079W        W61943   0.016   3.161  24.305  0.1008 -0.0524  0.1842
61080W        W61944   5.421  27.239  13.023  0.2031  0.0775  0.2398
61081W        W61945   5.046  21.722   5.626  0.1242  0.0004  0.4016
61082W        W61946  12.615  25.127  18.275 -0.0249  0.3815  0.1771
61083W        W61947   3.445  20.046   1.029 -0.1617  0.0748 -0.0721
61084W        W61948   5.817   5.567   6.746  0.0880 -0.0150  0.2260
61085W        W61949   7.330   4.870   8.219 -0.2141 -0.1622 -0.0315
61086W        W61950   6.868  23.428   5.142  0.0681  0.1931 -0.0187
61087W        W61951  24.715  16.421  26.679 -0.1426  0.1040  0.0849
61088W        W61952   6.658   6.220  10.962 -0.0823  0.1278  0.2329
61089W        W61953   7.774  18.337   5.749 -0.2724 -0.0259 -0.1457
61090W        W61954  11.524  13.812   1.243  0.0137 -0.0348  0.2631
61091W        W61955  16.383  12.376   5.694  0.0215  0.1158  0.4304
61092W        W61956  25.553   3.843   2.037 -0.1991  0.2887  0.1821
61093W        W61957  14.364  22.006   1.246 -0.2258 -0.0238 -0.0334
61094W        W61958  20.835   9.636  28.425  0.2170  0.3943  0.3672
61095W        W61959  28.732  13.209  11.942  0.1190  0.0503 -0.2351
61096W        W61960  11.596  15.279   8.553 -0.0481  0.2010 -0.0669
61097W        W61961  28.462   4.089  18.385 -0.0925 -0.0592 -0.3065
61098W        W61962   7.531  12.779   3.190  0.0068  0.0362 -0.1506
61099W        W61963  16.001  20.385   0.588  0.0044  0.2391  0.1051
61100W        W61964  20.253   5.817   3.997 -0.0883 -0.0147 -0.0684
61101W        W61965  10.008  23.182  16.436  0.1299  0.0486 -0.3211
61102W        W61966  24.772  10.819   7.714  0.0282  0.0787  0.0107
61103W        W61967  26.917  16.066   4.372  0.3210 -0.0466  0.0193
61104W        W61968  19.793  12.423  20.889 -0.1700 -0.1183  0.0148
61105W        W61969  15.219  18.539  12.085 -0.0730  0.0227 -0.3192
61106W        W61970   5.611  20.129  28.481  0.1182  0.2251  0.0104
61107W        W61971  26.741  13.115  10.154  0.0324  0.1976 -0.0155
61108W        W61972  21.565  23.292   2.291  0.0179  0.0221  0.2939
61109W        W61973   2.476  14.982  15.233 -0.0269 -0.1449  0.5813
61110W        W61974  18.688   5.086  25.451  0.0891 -0.4039  0.0254
61111W        W61975  23.310  22.536   8.137 -0.1253  0.0884 -0.2365
61112W        W61976   1.076   9.043  22.123 -0.1523  0.3335 -0.2683
61113W        W61977   1.359  10.354  20.153 -0.1427  0.1003 -0.0990
61114W        W61978   4.080   9.708  25.397  0.2554 -0.2562 -0.1433
61115W        W61979   2.935   6.270   3.748 -0.1132 -0.2731  0.2686
61116W        W61980   4.486  13.724  18.701 -0.2808 -0.0092  0.1186
61117W        W61981  19.924  13.491   7.864 -0.5062 -0.3438 -0.0311
61118W        W61982  12.932   7.424   8.585 -0.3668 -0.1436  0.2706
61119W        W61983   5.051  27.977  14.571 -0.2463 -0.2758  0.1838
61120W        W61984  13.023  19.729   1.798 -0.0326 -0.1560  0.1821
61121W        W61985  15.857   9.051   0.423  0.0549 -0.2228 -0.1734
61122W        W61986  22.569  17.669  17.437 -0.1114  0.2967 -0.0020
61123W        W61987  19.236   6.585  14.301  0.0387 -0.0343  0.3874
61124W        W61988  16.253   9.269  19.410 -0.3998  0.0929  0.1386
61125W        W61989   5.821   3.001  23.156  0.2214  0.1401  0.0516
61126W        W61990  11.578   6.971  28.468 -0.1281  0.0809 -0.0850
61127W        W61991   1.939  11.739   8.282  0.0916 -0.0414  0.0461
61128W        W61992  11.650  15.215   9.461 -0.0218  0.0810  0.0733
61129W        W61993  10.709  21.259   2.968 -0.2186  0.0687 -0.0792
61130W        W61994  27.323   9.544  13.231 -0.0939  0.0433 -0.1214
61131W        W61995   6.879   1.012  10.109 -0.2752 -0.1364  0.3248
61132W        W61996   1.009  20.271  23.729 -0.3352 -0.2888  0.1209
61133W        W61997   5.787  13.818  19.406 -0.0873  0.1320  0.1897
61134W        W61998  11.762  16.319   9.156  0.0543 -0.3298  0.2195
61135W        W61999  14.159  14.443   0.585 -0.0727  0.1744 -0.0185
61136W        W62000  11.005  13.170  17.255  0.2798  0.0677 -0.0611
61137W        W62001  26.334   1.663  25.364 -0.2350  0.0188  0.5280
61138W        W62002  17.536  11.545  18.245  0.0242 -0.0416 -0.2136
61139W        W62003   5.543  14.698   7.656  0.0135 -0.0467  0.1989
61140W        W62004  20.028  16.786  15.986 -0.2559  0.1041  0.2892
61141W        W62005  23.610  15.971  27.874 -0.1960 -0.3647  0.0663
61142W        W62006  21.705  23.942   5.979 -0.2395  0.1491  0.3118
61143W        W62007  28.205   2.086  26.900 -0.2781 -0.4130  0.1254
61144W        W62008   1.995   7.904  14.499  0.1287 -0.0745 -0.1545
61145W        W62009   3.678  11.694  19.990  0.2000 -0.0637  0.2028
61146W        W62010  12.791  17.734  25.289  0.0562 -0.1252  0.0429
61147W        W62011  25.419  26.349  25.199 -0.1871 -0.0896  0.0920
61148W        W62012  10.973  11.164  21.083  0.0524 -0.0256  0.2789
61149W        W62013   0.257   5.846  28.570  0.0527  0.2599 -0.0103
61150W        W62014   7.365  11.766   2.337  0.1602 -0.0522  0.0972
61151W        W62015  12.858   6.635  21.163  0.1415  0.1657  0.0495
61152W        W62016  17.251  22.272   6.819 -0.3496  0.0670 -0.0800
61153W        W62017  21.743   3.235   9.178  0.0285 -0.1868  0.2420
61154W        W62018  15.630  20.645   7.962  0.3063  0.2936 -0.3138
61155W        W62019   1.881  14.813  19.736 -0.3832  0.0671 -0.1189
61156W        W62020   4.879   9.536  24.890  0.3030 -0.0401  0.1472
61157W        W62021  24.904   1.700   3.174 -0.1597 -0.0697 -0.2334
61158W        W62022  10.688  28.692   3.388 -0.4087 -0.2067  0.0308
61159W        W62023  24.770  19.823   1.009  0.0300 -0.1203  0.1524
61160W        W62024  10.722   6.822  28.428  0.2371  0.0120 -0.0333
61161W        W62025   2.672  12.136  21.489  0.0260 -0.2723  0.2785
61162W        W62026  11.478  20.679  28.973  0.2877  0.0424  0.0024
61163W        W62027  12.178   9.456   8.310  0.2138 -0.0620  0.2076
61164W        W62028  16.902   5.967  26.568  0.1345 -0.1247 -0.0605
61165W        W62029   1.833   8.396  16.881  0.1670 -0.2280 -0.1291
61166W        W62030   3.861  15.076  25.383  0.0766 -0.0561  0.1164
61167W        W62031   5.308  18.384   2.922  0.2910 -0.2520  0.1497
61168W        W62032  17.919   5.261  29.051  0.4011 -0.0360 -0.0370
61169W        W62033  11.394   5.235  26.835  0.1257  0.0437  0.0283
61170W        W62034  13.945  23.790  16.313  0.0174  0.2288 -0.2468
61171W        W62035  27.554   6.836   7.734 -0.1849 -0.1717  0.1318
61172W        W62036   5.581  12.866   2.298 -0.1195  0.0885  0.2704
61173W        W62037   3.278   5.889  20.452  0.0482  0.1800 -0.0951
61174W        W62038   5.693   9.932  19.417 -0.0749  0.0897  0.0060
61175W        W62039  21.488   7.677  25.252 -0.3585 -0.1163 -0.0539
61176W        W62040   9.209  27.956   0.352  0.0231  0.0546 -0.0726
61177W        W62041  10.015  22.962   5.338  0.1015 -0.1629 -0.0293
61178W        W62042  10.151   8.431   3.948  0.3009 -0.0041  0.3782
61179W        W62043   7.025  21.599  28.434  0.1561  0.1235  0.2208
61180W        W62044   2.389   4.735   4.804  0.6957 -0.0474 -0.1840
61181W        W62045  14.107  14.173   1.511  0.0016  0.4041  0.1298
61182W        W62046  16.867  10.699  18.181  0.0029  0.0919 -0.1796
61183W        W62047  11.604  20.994  13.790  0.1257  0.0642  0.0830
61184W        W62048  26.524  23.037   3.046 -0.0157  0.0915  0.0683
61185W        W62049  16.794  15.359  21.718 -0.0320 -0.0092  0.0579
61186W        W62050  13.487   6.824   4.356 -0.0449  0.2241  0.0479
61187W        W62051   3.191  10.228  23.396  0.6316  0.0534 -0.1739
61188W        W62052  19.703   6.622  15.464  0.2805  0.0607  0.0511
61189W        W62053  11.422  17.539   0.193  0.0039 -0.0042  0.0590
61190W        W62054  20.650  10.655   5.960 -0.0960 -0.1205  0.2506
61191W        W62055  24.177   8.844   5.495 -0.3263  0.1877 -0.1397
61192W        W62056  15.171  26.805   1.116 -0.1571 -0.1673 -0.1445
61193W        W62057  14.735   8.450  28.473 -0.0029 -0.1249 -0.1859
61194W        W62058   4.336  16.770  24.984  0.2928 -0.0025 -0.0008
61195W        W62059  15.790  10.661   4.386 -0.0367 -0.3060 -0.0313
61196W        W62060  27.152   1.040  19.649 -0.0339  0.1904  0.2986
61197W        W62061   6.001   6.840   6.086  0.3657 -0.1130  0.0198
61198W        W62062  11.464  28.309  23.284 -0.1718 -0.1787 -0.0066
61199W        W62063   6.296   1.154   6.871  0.2916 -0.3420 -0.0262
61200W        W62064  25.083  21.260  14.331 -0.1769  0.2695 -0.1094
61201W        W62065  26.023   8.627   4.652 -0.0552 -0.0930 -0.1876
61202W        W62066  25.663  24.286   4.618  0.0187 -0.0367 -0.2280
61203W        W62067  23.743  13.001   0.978  0.1192  0.1749 -0.2105
61204W        W62068   3.750  15.789  22.197  0.0549  0.1432 -0.0231
61205W        W62069  12.276  27.146  14.971  0.1001  0.1818 -0.0737
61206W        W62070   5.104  16.775   7.167  0.1445  0.0424 -0.0517
61207W        W62071   3.507   6.230  11.793  0.0266 -0.3146  0.1907
61208W        W62072  26.640   9.289   3.783  0.0214  0.0576  0.1298
61209W        W62073  11.370  28.790  23.317  0.2275  0.3398  0.1950
61210W        W62074  16.466  25.068   6.893  0.3022  0.1252 -0.1115
61211W        W62075  12.355  10.354  13.951 -0.1559 -0.0473 -0.1779
61212W        W62076  25.844   4.388   3.641 -0.0569  0.0894  0.1409
61213W        W62077   3.737  21.033  22.344  0.0143 -0.2155  0.2819
61214W        W62078   8.513   2.189  12.183 -0.0751  0.1084 -0.3180
61215W        W62079  25.902   9.237   3.195  0.3146  0.2822 -0.1121
61216W        W62080  18.257  17.140  12.223 -0.0780  0.0361  0.1138
61217W        W62081  17.216  10.465  23.191 -0.1982 -0.0517 -0.0808
61218W        W62082  27.271  22.810  13.160 -0.0638  0.1823 -0.1487
61219W        W62083  24.213  20.887  19.455  0.2557  0.0972  0.0704
61220W        W62084   1.414   3.880  15.028 -0.0907  0.2625 -0.0995
61221W        W62085  22.916   7.048   3.377  0.1714 -0.1944  0.0961
61222W        W62086  22.374  18.781  21.613 -0.0984  0.1860  0.0541
61223W        W62087  17.872  16.188   6.777 -0.3485 -0.0139  0.0821
61224W        W62088   8.218  17.485  25.598  0.1596 -0.2173 -0.0564
61225W        W62089  17.249   5.477   1.752 -0.2189  0.0692 -0.1053
61226W        W62090  11.087  10.718  13.037 -0.4753 -0.2263  0.0103
61227W        W62091  13.147   4.872  17.583 -0.6095  0.2175  0.1678
61228W        W62092   6.202  26.002   8.998 -0.0112 -0.3775 -0.2262
61229W        W62093  14.389  17.388  22.939 -0.0331 -0.2769 -0.1080
61230W        W62094  11.324  17.006   0.512 -0.1813  0.1350  0.3669
61231W        W62095  23.229  13.656  12.328 -0.1060  0.0567 -0.0084
61232W        W62096  14.980   7.859   1.408 -0.0480 -0.0893 -0.1445
61233W        W62097  21.118  27.891   1.180  0.1293  0.1772  0.0138
61234W        W62098  16.955  25.281   9.483 -0.0294  0.0510 -0.0925
61235W        W62099   0.820  28.727  23.994  0.0844  0.1206  0.1854
61236W        W62100  14.069  11.276  10.990  0.0015  0.0354 -0.0640
61237W        W62101  26.779  19.274   0.072 -0.1125 -0.0999  0.0131
61238W        W62102   8.094  25.083   7.298 -0.0439  0.0330 -0.0163
61239W        W62103  18.368   4.650   8.650 -0.1096  0.0649  0.1528
61240W        W62104   4.058  28.865  14.534 -0.1743  0.1706 -0.3024
61241W        W62105  16.612  22.689  28.097  0.1772  0.1318  0.0105
61242W        W62106  20.851   2.299   2.879 -0.2860 -0.2945  0.0946
61243W        W62107  18.687  19.719  10.365 -0.1921 -0.0599  0.0880
61244W        W62108   9.493   2.033  26.387 -0.1211 -0.1084  0.0143
61245W        W62109  25.696   3.933  25.601  0.5365 -0.3007 -0.2347
61246W        W62110  10.379   9.864  22.554  0.1564  0.2131 -0.0868
61247W        W62111   3.310  26.796   3.716 -0.0544  0.2037 -0.1415
61248W        W62112  17.115  10.620   3.081  0.1292 -0.3282  0.3001
61249W        W62113   8.912  28.323  12.574  0.1528  0.0543 -0.2558
61250W        W62114   5.244  24.777   9.050 -0.1629  0.1398  0.0559
61251W        W62115   4.806   5.953   4.783  0.0728 -0.2685 -0.0965
61252W        W62116   6.285  14.894  22.683 -0.2580  0.0613 -0.0573
61253W        W62117   3.043   9.568  21.230  0.1631  0.0839 -0.1428
61254W        W62118  16.533   8.076  28.768 -0.0759 -0.2067  0.0588
61255W        W62119  23.258   3.031  14.298 -0.0453 -0.1536 -0.2712
61256W        W62120   9.830  12.185  26.726  0.0780  0.1382 -0.1739
61257W        W62121  25.995   9.208  14.059  0.3912  0.0591 -0.1545
61258W        W62122  12.921  12.453   3.654  0.2316 -0.2630  0.0457
61259W        W62123   3.700  15.642   8.236 -0.0071  0.3165 -0.0967
61260W        W62124  27.366   7.626   8.973  0.4043 -0.1166  0.1109
61261W        W62125  21.093  16.530  26.098  0.2341  0.2156 -0.2180
61262W        W62126  10.309  13.822  11.073 -0.0213  0.0722  0.2452
61263W        W62127  18.801  14.425   4.950 -0.1438 -0.1849 -0.0290
61264W        W62128  28.112   0.780  24.173  0.0241  0.1793  0.0195
61265W        W62129  11.270   8.902   5.507  0.3876  0.0430  0.0729
61266W        W62130  11.780  26.881  27.499  0.1767  0.3936  0.0552
61267W        W62131  23.784  17.017   1.486  0.1704  0.3585 -0.2576
61268W        W62132  23.248  12.026  28.795  0.0420 -0.0344 -0.0782
61269W        W62133   1.788  19.291   5.624 -0.0239 -0.1625  0.1052
61270W        W62134   9.461  24.676  13.916  0.1198  0.3441 -0.1909
61271W        W62135  26.544  12.134  12.763  0.2512 -0.2715 -0.2106
61272W        W62136  10.108  11.131   7.038  0.1331  0.2213 -0.0419
61273W        W62137   5.572   8.255   3.792  0.0809 -0.1388  0.2090
61274W        W62138   5.946  26.876   8.784 -0.1459 -0.0557  0.0604
61275W        W62139  13.240  10.458  27.800 -0.3489 -0.0221  0.3359
61276W        W62140   1.834   5.057  10.224  0.2379  0.1952 -0.0661
61277W        W62141   5.156  20.520  28.387 -0.0273  0.0670 -0.2655
61278W        W62142  23.229   4.944   7.134  0.1809  0.3428 -0.1164
61279W        W62143  23.251  23.011   7.172  0.2183  0.3826 -0.1544
61280W        W62144   9.969   5.248  19.440 -0.1629  0.2931 -0.0227
61281W        W62145  21.864   6.265   2.190 -0.1022 -0.0169  0.3099
61282W        W62146  18.503  11.063  26.773 -0.1136 -0.1760 -0.0197
61283W        W62147  19.178   7.838  11.923 -0.0282  0.1677 -0.3452
61284W        W62148  16.977  21.333   6.028  0.0072 -0.0342  0.2886
61285W        W62149   4.442  12.309   2.404  0.3022 -0.1245  0.0224
61286W        W62150   9.951   1.465   0.760  0.3169  0.2976 -0.2290
61287W        W62151   5.066   2.669   0.226  0.0174  0.0435 -0.1027
61288W        W62152   8.834  22.332  18.056  0.1408 -0.0644  0.1531
61289W        W62153  23.779  15.802   4.192 -0.0267  0.3219 -0.2844
61290W        W62154  26.477  22.882  11.525 -0.1757  0.0028 -0.0875
61291W        W62155  22.409  17.871  10.096 -0.2502  0.3594  0.0907
61292W        W62156   1.348  21.344   4.421  0.0851  0.1584 -0.2089
61293W        W62157   6.379  29.044  11.669 -0.0202  0.0434 -0.1200
61294W        W62158   3.262   9.493   8.132 -0.1555  0.0061  0.2604
61295W        W62159  19.935   8.533  21.147  0.4385 -0.0063  0.2114
61296W        W62160   6.789  28.034  25.871 -0.0340 -0.1256  0.1417
61297W        W62161   0.643  23.405  28.993 -0.1053  0.0618 -0.0337
61298W        W62162   5.956  13.198  28.899 -0.0207 -0.1147 -0.0261
61299W        W62163   3.370  14.352  23.390 -0.1403 -0.1468 -0.0901
61300W        W62164   7.394  10.678  19.305  0.3104  0.1017  0.1629
61301W        W62165  27.428  24.624  27.421 -0.4678 -0.1578 -0.0311
61302W        W62166  14.463  17.992   0.110 -0.3684 -0.0590  0.0410
61303W        W62167  15.430   9.459   5.082 -0.0325 -0.0812 -0.0081
61304W        W62168  25.791  27.395  20.022 -0.0014  0.1075 -0.0771
61305W        W62169   1.305  13.353   8.912 -0.0685 -0.1893 -0.1336
61306W        W62170  11.713   2.658  25.614  0.3355  0.1937  0.1594
61307W        W62171  28.578   9.807  16.736  0.3151 -0.3251  0.0907
61308W        W62172  20.490  26.094   4.761  0.2317  0.2381  0.3153
61309W        W62173   9.718  14.931  23.752  0.1581 -0.1145  0.2031
61310W        W62174  16.082  26.037  19.368  0.0378  0.0905  0.0654
61311W        W62175  21.979  11.204  23.646  0.0830  0.0192 -0.1234
61312W        W62176   4.578  20.539  21.803  0.2758  0.0033  0.0152
61313W        W62177  22.189  25.270  22.332 -0.1241 -0.0446  0.0315
61314W        W62178  19.451   8.479  25.117  0.2567 -0.0355  0.1688
61315W        W62179   4.195   3.921  22.867  0.0870 -0.0632 -0.1497
61316W        W62180   3.730  11.482   3.211  0.1026 -0.0946  0.1840
61317W        W62181   7.816  15.809   0.992  0.0915 -0.2784  0.1378
61318W        W62182  22.589  26.691  24.236  0.1152  0.2302 -0.5722
61319W        W62183  27.877  20.685   7.952  0.4562 -0.1265 -0.0385
61320W        W62184  17.992  16.693  23.098 -0.0427 -0.0325 -0.1071
61321W        W62185  20.561  17.507   1.175 -0.0805  0.0220  0.1190
61322W        W62186  25.125  17.358  11.198  0.0705 -0.3456 -0.0528
61323W        W62187  24.638  13.724  26.639 -0.0538 -0.0788  0.3405
61324W        W62188   6.636   6.332   9.546  0.0297 -0.0836 -0.5679
61325W        W62189   5.518  13.555  11.889 -0.0056  0.4966 -0.0933
61326W        W62190   3.886  14.511  11.448 -0.1725  0.0398  0.2392
61327W        W62191  24.849   0.373  17.792 -0.0400  0.3031  0.0272
61328W        W62192   0.531  15.042   2.946  0.1707 -0.0407 -0.1429
61329W        W62193  25.087  22.236  22.112  0.2280 -0.0810 -0.1723
61330W        W62194  24.749  10.678   0.189  0.3259 -0.0095  0.2556
61331W        W62195   4.333  12.330  21.047 -0.1166 -0.0030 -0.0066
61332W        W62196  10.875  13.340   7.705  0.0420 -0.1369  0.1908
61333W        W62197  14.072  24.453  21.586 -0.0352 -0.1753 -0.0277
61334W        W62198   2.187  19.156  22.371 -0.1837  0.1305  0.0001
61335W        W62199   8.471  18.316   8.679  0.2621 -0.2139  0.1667
61336W        W62200  14.193  13.228   4.132  0.1728 -0.2144 -0.0091
61337W        W62201  10.814  13.062  26.037  0.1800  0.4741 -0.0674
61338W        W62202   8.443   9.053   7.882 -0.0300  0.3791  0.0935
61339W        W62203  11.551  26.053  25.415 -0.0342  0.1905  0.1619
61340W        W62204  10.338   1.667   4.311  0.1057 -0.1822 -0.0145
61341W        W62205  28.482  12.214  18.864 -0.0285 -0.0076  0.0743
61342W        W62206  17.014  24.107  21.517 -0.0203 -0.0700  0.1703
61343W        W62207  15.733  20.425  27.355 -0.0012 -0.0684  0.2133
61344W        W62208   2.967   2.043  18.102  0.1643  0.1111 -0.2445
61345W        W62209  23.649   9.949   2.566  0.0511  0.0474 -0.2168
61346W        W62210   3.462  27.433   8.510  0.4517  0.3049 -0.0257
61347W        W62211  17.496  15.878  21.778 -0.3301  0.0703  0.2958
61348W        W62212   4.144  19.584  22.023 -0.2952  0.2058 -0.1667
61349W        W62213  25.370   8.257  20.229  0.2202 -0.2078  0.3549
61350W        W62214   1.565  13.358  17.573  0.0434  0.1228 -0.1013
61351W        W62215   2.550  25.717  17.589 -0.1248 -0.0595 -0.0728
61352W        W62216   5.172  22.719  12.372 -0.0158  0.0881  0.4143
61353W        W62217   7.861   5.412   3.937 -0.1707 -0.0619 -0.3929
61354W        W62218   4.257  21.390   2.105  0.1882  0.1260  0.3149
61355W        W62219   3.478  25.100  26.309  0.0979 -0.1331  0.2254
61356W        W62220  24.927  21.815   6.155 -0.2116 -0.1950  0.1925
61357W        W62221  28.274  16.258  27.412  0.2664 -0.2125 -0.1174
61358W        W62222  18.349   6.322  28.741 -0.0196  0.1746 -0.2449
61359W        W62223   0.420  15.231   8.221  0.0707  0.1441  0.0741
61360W        W62224  19.522  10.412   8.666 -0.0805  0.2448  0.1843
61361W        W62225  28.200   4.246  19.384 -0.1502 -0.4774 -0.2366
61362W        W62226   9.889  14.931   2.206  0.2683 -0.0098 -0.2103
61363W        W62227  13.799   2.262  25.752 -0.0474  0.0672  0.3072
61364W        W62228  28.701  19.563   8.147  0.1066 -0.0699 -0.1891
61365W        W62229  22.942   0.696   2.089 -0.0870  0.3346 -0.0954
61366W        W62230  23.714  11.217   1.483 -0.0713  0.0836 -0.0697
61367W        W62231   2.771   2.320  14.530 -0.1405 -0.3263  0.3819
61368W        W62232  17.046  16.995   3.905 -0.2212 -0.2718  0.1138
61369W        W62233  13.245  18.706  13.671  0.4112 -0.0290  0.0955
61370W        W62234  23.310  10.901   3.842  0.1041 -0.0766 -0.1404
61371W        W62235   0.320   9.850  21.248  0.2174  0.1093 -0.0149
61372W        W62236  11.415  28.905  16.173  0.2359 -0.1236  0.2303
61373W        W62237   9.054  21.537  17.299 -0.1904  0.0920  0.2026
61374W        W62238  17.950  14.345   2.285  0.0110 -0.0811  0.2696
61375W        W62239   3.638  25.688  21.948 -0.2623  0.2728 -0.2418
61376W        W62240  10.189  10.299   2.112 -0.0019 -0.1194  0.2812
61377W        W62241   9.613  11.333   3.871  0.2887 -0.1281  0.3153
61378W        W62242   2.032  24.578  19.154  0.0465 -0.0360  0.0623
61379W        W62243   9.136  22.611  21.411  0.0284  0.1346  0.1308
61380W        W62244  16.888   9.142  26.577  0.3318 -0.0240 -0.3440
61381W        W62245  21.879  15.860   3.573 -0.0923 -0.0267 -0.3549
61382W        W62246  15.784  11.040  14.949  0.1365 -0.0849 -0.0550
61383W        W62247   2.875   4.846   9.907  0.3113  0.0164 -0.0014
61384W        W62248   6.702  16.487   6.883 -0.1824  0.0392 -0.0063
61385W        W62249  20.485  21.787  13.742  0.2053  0.2152  0.0105
61386W        W62250  21.142  24.640  12.620  0.0113 -0.1875 -0.0542
61387W        W62251  19.930   7.410  23.047 -0.1931  0.0878 -0.0183
61388W        W62252  26.978   1.118   3.974  0.1566 -0.1564  0.2251
61389W        W62253  20.920   5.283  11.805  0.0249  0.1983 -0.3205
61390W        W62254   8.946   4.701   3.977  0.0847 -0.1519  0.4824
61391W        W62255  22.158  22.205  13.225 -0.1860  0.0753 -0.1520
61392W        W62256  18.233  24.056  19.590  0.0514  0.3101  0.4584
61393W        W62257  17.429   4.542  14.728 -0.0450 -0.0357 -0.0905
61394W        W62258  22.716  10.111  15.508  0.1024  0.2052  0.1488
61395W        W62259  19.393   6.683   2.661 -0.0748 -0.0532  0.1453
61396W        W62260  11.591  25.212  16.974 -0.1976 -0.3124 -0.0105
61397W        W62261  18.465  12.858   5.138  0.0117  0.0666 -0.2028
61398W        W62262  10.820   7.022  25.918  0.1160 -0.2592 -0.0790
61399W        W62263   0.583   0.883  13.106  0.0482  0.0093 -0.0264
61400W        W62264  27.659  16.023  10.721  0.0606 -0.0506  0.0265
61401W        W62265   3.493  21.403  26.217 -0.0242 -0.2996 -0.0021
61402W        W62266  19.264  11.517  23.000 -0.2151  0.1243  0.0345
61403W        W62267  12.730   1.349   0.628 -0.3039  0.2608  0.2666
61404W        W62268  19.539  23.878  24.053 -0.2252  0.0694  0.1746
61405W        W62269   7.308  22.003   9.803  0.3255 -0.2140  0.3616
61406W        W62270   8.331  16.092  13.187  0.1481 -0.0191 -0.2856
61407W        W62271  17.242  26.819   9.175 -0.1938  0.2194  0.0479
61408W        W62272  10.757  27.570   1.283 -0.3490  0.2393 -0.4000
61409W        W62273  17.811  23.945   1.264  0.2784  0.0025 -0.1951
61410W        W62274  28.247  16.916   1.479  0.0356  0.1222  0.0791
61411W        W62275  13.266  24.383   9.214 -0.1406  0.2692 -0.1559
61412W        W62276   5.457  25.763   3.366 -0.0267 -0.1834  0.1429
61413W        W62277   4.700  15.784  15.136  0.0155 -0.0968  0.0074
61414W        W62278   5.801  27.795  14.953 -0.0087  0.0852  0.3355
61415W        W62279  17.219  21.225   4.131 -0.3555 -0.3195 -0.1093
61416W        W62280  11.799  16.686   4.013  0.1396 -0.0433  0.1747
61417W        W62281   7.363  25.165   9.487 -0.1178  0.1313 -0.4352
61418W        W62282  12.078  18.346  15.414 -0.2732 -0.2722  0.2767
61419W        W62283  17.374  13.988   3.592 -0.2887  0.0902  0.0859
61420W        W62284  17.476  14.155  24.841  0.0117 -0.2288  0.1876
61421W        W62285  13.750  13.892  28.294  0.1113 -0.0024  0.1212
61422W        W62286  13.119  23.833   0.442  0.0848 -0.0174 -0.0006
61423W        W62287   7.881  23.002  13.736  0.0975 -0.1601 -0.5124
61424W        W62288  20.204   7.161  24.123  0.2038 -0.0937  0.0062
61425W        W62289   7.771  17.130  27.543 -0.1646 -0.0630 -0.1496
61426W        W62290  24.952   6.688  21.993 -0.0004 -0.0392 -0.2031
61427W        W62291  25.675  19.423  21.338  0.4471 -0.1766 -0.1964
61428W        W62292  11.194   4.923  25.117  0.2784 -0.2917 -0.0203
61429W        W62293   9.873  13.357  27.552  0.1224 -0.2149  0.0139
61430W        W62294  16.382   6.791  13.807  0.1864  0.1861  0.1671
61431W        W62295  15.171   8.854  14.113 -0.1710  0.5153  0.0264
61432W        W62296  20.426  13.219  28.389  0.2710 -0.3679 -0.2109
61433W        W62297   3.370  22.391   4.039 -0.3710 -0.0749 -0.3034
61434W        W62298  22.306  16.956  10.027 -0.2633  0.0059 -0.1052
61435W        W62299   3.101   8.335   9.543  0.0219 -0.1719  0.0012
61436W        W62300   8.424  28.217  24.633  0.0904 -0.1502  0.2128
61437W        W62301  20.814   5.641  24.004 -0.1355  0.0566 -0.0398
61438W        W62302   9.837  28.546  10.136  0.0457  0.0764  0.4488
61439W        W62303  29.011  20.680   5.707 -0.0603 -0.2144  0.2297
61440W        W62304  22.390   0.491  25.364  0.0625 -0.3792  0.0125
61441W        W62305   6.474   7.716  28.937  0.1099 -0.0767  0.2057
61442W        W62306  11.067  15.398  15.932  0.1945  0.2667  0.0535
61443W        W62307  11.743   5.336  23.801  0.1983 -0.3131 -0.2328
61444W        W62308  10.923  28.582  28.128  0.0899  0.0191 -0.2146
61445W        W62309  26.113   7.866  27.281  0.0496 -0.0692  0.4699
61446W        W62310  14.440  19.232  14.187  0.1605  0.0975 -0.3628
61447W        W62311   5.902  21.759   3.971 -0.0890 -0.0596  0.1995
61448W        W62312  19.631   6.135  18.373 -0.0105  0.1009  0.2985
61449W        W62313  25.154   7.045   9.310 -0.3036  0.1944  0.2375
61450W        W62314  25.690   5.393   2.120 -0.3116  0.0489 -0.0675
61451W        W62315  17.096  18.418  11.233  0.1409 -0.0353  0.0494
61452W        W62316  25.498  15.269  10.047 -0.1031  0.2521  0.1610
61453W        W62317  11.628  27.921  11.973  0.1034  0.3202  0.2442
61454W        W62318   5.330  10.077   6.063  0.2873  0.4831  0.0058
61455W        W62319   3.406  15.158   4.662 -0.3403  0.1259  0.1394
61456W        W62320   8.286  15.564   7.328  0.1860 -0.0527 -0.2781
61457W        W62321  28.475   7.117   9.682 -0.0562  0.0362 -0.1400
61458W        W62322   4.034   2.014  16.099 -0.1767 -0.1340 -0.0009
61459W        W62323  16.479  23.143  23.616 -0.0416 -0.2972 -0.3936
61460W        W62324   7.520   7.290  25.546  0.5261 -0.1501 -0.2708
61461W        W62325  26.004  18.433  16.673 -0.0081 -0.0281 -0.1642
61462W        W62326  21.705   9.176  19.133 -0.0182 -0.1405 -0.0071
61463W        W62327  14.435  15.130  10.412  0.0531  0.0275 -0.2257
61464W        W62328  24.389  11.844  27.638  0.1232  0.0330  0.1585
61465W        W62329   3.976   4.205   3.459 -0.0205 -0.1965  0.1306
61466W        W62330   4.054  22.957  22.539 -0.1867  0.2769 -0.1488
61467W        W62331  22.779   4.858   9.984 -0.2002 -0.1677 -0.0077
61468W        W62332  22.508  15.797  20.749  0.2295 -0.2313  0.0034
61469W        W62333  20.439  10.222   6.683 -0.1455 -0.0828  0.0217
61470W        W62334   4.976  10.596   7.939 -0.3884  0.2300  0.2518
61471W        W62335  18.735   6.814  10.793 -0.0009  0.0292  0.1959
61472W        W62336   5.503  13.162  20.366  0.1437 -0.0173  0.1983
61473W        W62337   3.993   9.054   5.072 -0.0872  0.1027  0.3195
61474W        W62338   1.387   3.402   7.721 -0.0524 -0.0434  0.1779
61475W        W62339  18.322  27.212  10.810  0.0875 -0.0305 -0.0190
61476W        W62340   0.800  25.420  19.146 -0.1003 -0.1673 -0.3019
61477W        W62341  22.168   7.192   4.126 -0.3694  0.3514  0.2881
61478W        W62342  18.133   6.254  25.445 -0.1471 -0.0818 -0.3399
61479W        W62343  22.792  14.579  26.377 -0.1613 -0.0461 -0.1878
61480W        W62344  15.974  12.541  21.961 -0.0518  0.3932  0.3362
61481W        W62345  24.635  16.851  27.539 -0.1642  0.1199 -0.4809
61482W        W62346   5.588  18.262  12.051 -0.2552 -0.1090  0.0419
61483W        W62347   3.482   8.216   2.244  0.1035  0.0948 -0.3913
61484W        W62348   9.848  16.194  27.588 -0.1602 -0.0272 -0.2952
61485W        W62349  20.264   2.837  22.831  0.0914  0.2451 -0.1519
61486W        W62350   9.107   6.327  10.689  0.0655  0.1506  0.1403
61487W        W62351  17.797  17.822  19.445 -0.0315  0.0807  0.2547
61488W        W62352   2.085  10.331  27.460 -0.5318  0.1316 -0.3403
61489W        W62353  20.119  10.767   4.919 -0.2622 -0.0166 -0.0132
61490W        W62354  18.492  24.198   3.301  0.2646  0.1571 -0.3957
61491W        W62355  13.702   5.506  10.401 -0.2312 -0.2983  0.1648
61492W        W62356   1.595   8.696   7.106 -0.1426  0.1401  0.0917
61493W        W62357  16.503  23.018  21.042 -0.1763 -0.2174  0.0667
61494W        W62358  15.194   2.410  25.555 -0.2169 -0.2608  0.1187
61495W        W62359  11.150  14.566  28.346 -0.0086  0.3020  0.2578
61496W        W62360  17.742  18.910   0.061 -0.0184  0.3132 -0.0490
61497W        W62361   0.173  12.260  27.448  0.1512 -0.0020  0.2302
61498W        W62362  18.291  14.467  28.117 -0.2009  0.0393 -0.2062
61499W        W62363   2.756   2.003  15.104  0.3138  0.0235  0.2327
61500W        W62364   2.613  11.684   1.362  0.3404  0.5145 -0.2156
61501W        W62365  10.355  23.285   6.535 -0.1539 -0.0294  0.2032
61502W        W62366   6.503  22.035  18.054  0.0495 -0.1521  0.0794
61503W        W62367  11.993   8.956  13.405  0.4329  0.3495  0.1995
61504W        W62368  11.129  15.026   8.687  0.2248  0.4564 -0.1163
61505W        W62369  24.088  20.908   0.394  0.1972 -0.2765  0.0900
61506W        W62370   7.644   5.805   9.172 -0.2214 -0.0673 -0.0779
61507W        W62371  20.476   6.329  11.804  0.0950 -0.2543  0.2542
61508W        W62372  12.740   4.415  13.253  0.0245  0.0560  0.3197
61509W        W62373   5.066   2.233   6.603 -0.0613 -0.1237  0.4064
61510W        W62374  15.150  24.011   7.725  0.2085 -0.1526  0.0487
61511W        W62375  11.937   4.048   1.378 -0.3305  0.1517 -0.0273
61512W        W62376  15.838  12.401   7.905 -0.4601  0.1538  0.1803
61513W        W62377   2.498  13.135   0.535  0.1421 -0.0715  0.0340
61514W        W62378  27.698  17.245  15.594 -0.0995  0.2826  0.1920
61515W        W62379  24.755   4.931   3.036  0.2490  0.0745 -0.1862
61516W        W62380   8.389  16.958  16.036  0.2290  0.0509  0.0578
61517W        W62381  12.408  26.930  23.338  0.0789 -0.2984 -0.3858
61518W        W62382  28.944  15.736  28.763 -0.0431  0.0013 -0.3446
61519W        W62383  15.970  14.597   5.299 -0.0319 -0.5069  0.1277
61520W        W62384   9.224  14.947  16.029 -0.0321  0.0090 -0.0659
61521W        W62385   0.951  18.632  22.699 -0.0849  0.0782  0.0871
61522W        W62386  15.044   5.266   7.454  0.2343  0.2507  0.3064
61523W        W62387  11.502  28.862  18.328  0.2696 -0.1533 -0.2949
61524W        W62388   1.106  12.780  21.765  0.1087 -0.1432  0.3812
61525W        W62389   7.380  16.671  26.074 -0.0603  0.0288 -0.2674
61526W        W62390  15.357  18.643  22.881  0.2687 -0.0051  0.0552
61527W        W62391  27.466   9.166  28.859 -0.0590 -0.1330  0.2599
61528W        W62392  12.276  23.565  17.728  0.1383  0.1795  0.0500
61529W        W62393  24.442  16.799  12.464 -0.2807 -0.2499 -0.0938
61530W        W62394  12.184  16.088   0.969  0.2887 -0.1403 -0.0390
61531W        W62395  15.548  22.201  13.301 -0.3186  0.0389 -0.1914
61532W        W62396  26.784  13.595   6.236 -0.2731 -0.2182  0.0760
61533W        W62397   3.169  22.565   5.408 -0.0617 -0.0685 -0.2105
61534W        W62398   5.252   0.719   7.163 -0.0875 -0.0253  0.0115
61535W        W62399   9.307   3.270  25.559  0.0534  0.1736 -0.1207
61536W        W62400   1.461  13.410  28.323  0.1090  0.0938 -0.1588
61537W        W62401   1.197   6.627   0.819  0.1606 -0.2185 -0.0637
61538W        W62402  10.557   4.952   3.471 -0.3166  0.2066  0.3356
61539W        W62403   3.800   9.432  12.474 -0.1604  0.1938  0.1056
61540W        W62404   0.460  22.713   5.054  0.2599 -0.1188  0.0047
61541W        W62405   4.926   7.338  23.538  0.0647 -0.0537  0.0975
61542W        W62406  17.759  20.487  24.951 -0.0365 -0.5177  0.3368
61543W        W62407   1.791   9.965   5.498 -0.1975 -0.0168  0.0890
61544W        W62408  27.364   2.194   3.197  0.0130 -0.2108 -0.1310
61545W        W62409  14.579   5.938  23.326 -0.0106 -0.2012 -0.0067
61546W        W62410  18.848   6.340  20.967 -0.2116  0.1247  0.0079
61547W        W62411  12.762  16.114   5.048 -0.2964  0.1520  0.2189
61548W        W62412  12.822  21.460  18.949  0.1083 -0.0099  0.0335
61549W        W62413   8.363   2.711   2.662 -0.1155  0.0594  0.0267
61550W        W62414   6.547  24.158  26.010  0.1939  0.0612  0.0058
61551W        W62415  10.389   8.215   6.714  0.0775 -0.0637  0.2023
61552W        W62416   7.567  22.522   6.998 -0.1483 -0.0250 -0.0810
61553W        W62417   0.011  16.843  17.369  0.1292 -0.1813 -0.1108
61554W        W62418   6.624   1.123  25.943  0.1164  0.0858 -0.2691
61555W        W62419   5.643  11.524   5.714  0.1827 -0.0047  0.0146
61556W        W62420   8.981  26.418   5.677 -0.0477 -0.1974  0.1436
61557W        W62421   0.745  13.454  19.316  0.1564  0.1862 -0.1102
61558W        W62422  25.627  11.807  18.093  0.0698  0.0861  0.5226
61559W        W62423   1.127  20.237  15.068  0.1366 -0.2571 -0.2604
61560W        W62424  28.300   2.145   2.818  0.2254  0.0299 -0.1060
61561W        W62425  19.510  28.204   3.448 -0.1496  0.0233 -0.0611
61562W        W62426  13.716  13.703  10.233 -0.0293 -0.0264  0.1046
61563W        W62427  28.282   9.777   1.145 -0.1317  0.2144 -0.5503
61564W        W62428   3.137  18.627  15.738  0.0881  0.1245 -0.2456
61565W        W62429   7.254  16.897   7.680  0.2236  0.1025 -0.3396
61566W        W62430  26.814  14.050  14.038 -0.0671  0.0701  0.1691
61567W        W62431  20.396   9.515   8.814 -0.0710 -0.2765  0.1664
61568W        W62432   5.783   7.794  12.389  0.3371  0.1994 -0.0999
61569W        W62433  16.130   8.859  27.153  0.3543 -0.2219 -0.0562
61570W        W62434   8.564   8.827  17.947 -0.3758 -0.0847  0.2305
61571W        W62435  26.102   7.000  11.123 -0.2662 -0.0151 -0.0010
61572W        W62436   5.002  23.919   2.025 -0.3977  0.0544 -0.0104
61573W        W62437   9.858   2.457  15.193 -0.0681  0.0997  0.0220
61574W        W62438   0.875  21.488   8.981 -0.1874 -0.1929 -0.0833
61575W        W62439   5.755  17.354  10.095  0.0591  0.0151 -0.0116
61576W        W62440   1.974  18.128  23.607  0.0689 -0.2524 -0.0093
61577W        W62441  25.059   7.754   5.804  0.0716  0.0119  0.1393
61578W        W62442  27.450  22.740  22.853  0.5762 -0.2278 -0.1225
61579W        W62443  10.918  27.172  25.000  0.2275  0.0957  0.1519
61580W        W62444  10.787  18.700   9.036  0.0315 -0.1308 -0.0366
61581W        W62445   6.479  11.248   4.883 -0.1383  0.1220  0.1638
61582W        W62446  28.468  21.046  26.921  0.0221  0.0869  0.0728
61583W        W62447   7.605  16.043   7.301  0.0608  0.4261 -0.0833
61584W        W62448  12.219   9.575   7.714 -0.1661 -0.2396 -0.2919
61585W        W62449   6.224  18.593  16.732 -0.2086 -0.1777  0.1504
61586W        W62450  23.338  11.510  19.028 -0.2261  0.2516 -0.0013
61587W        W62451  28.754  10.543  14.188 -0.3097 -0.0429 -0.3682
61588W        W62452  13.235  18.209   3.291  0.2714  0.3908 -0.2114
61589W        W62453   2.950  15.405  27.261 -0.0519 -0.0793  0.0563
61590W        W62454  16.235   1.259  27.902  0.1066 -0.2066  0.2571
61591W        W62455   6.224  13.092  23.574  0.0875  0.0019 -0.0151
61592W        W62456  18.818  16.045  24.293 -0.1954 -0.3572 -0.0114
61593W        W62457  10.378   3.859   6.801  0.0553 -0.3136 -0.1027
61594W        W62458  28.787  18.455  13.712  0.2029  0.2633 -0.0695
61595W        W62459   0.393  27.510   6.512  0.0424 -0.2707  0.0403
61596W        W62460  13.693   6.241  28.346 -0.4435  0.1222 -0.0818
61597W        W62461  13.060  10.796  20.098 -0.1626  0.0905  0.2794
61598W        W62462  16.447  19.312  11.953  0.1771  0.0530 -0.2466
61599W        W62463  18.840  11.473  27.944 -0.0753  0.1236  0.0837
61600W        W62464   2.370  12.681  12.742 -0.0058 -0.0782  0.0134
61601W        W62465  19.536  15.069  21.149 -0.2182 -0.0355  0.0819
61602W        W62466  20.126  15.436  18.578 -0.1339  0.1109 -0.0390
61603W        W62467  25.907   5.183  19.550 -0.1009  0.1906  0.0343
61604W        W62468   9.770   6.237   1.624 -0.1821 -0.0673  0.2119
61605W        W62469  17.790   9.149  27.729  0.1307  0.0005 -0.2122
61606W        W62470   9.749  12.852   6.610 -0.1520  0.2111  0.3775
61607W        W62471  27.965  16.070   9.863  0.0942  0.3240 -0.1550
61608W        W62472  12.017  22.541   9.795 -0.0509  0.1093  0.0651
61609W        W62473  13.787   7.542   5.796  0.1444 -0.1871  0.1074
61610W        W62474  15.961   2.198  16.137 -0.1044 -0.0835 -0.1586
61611W        W62475  22.853   8.861   3.667 -0.0656  0.0611  0.1035
61612W        W62476   0.884  23.826   2.341  0.2710  0.2429  0.4151
61613W        W62477  20.334   0.711   3.690 -0.0832  0.1527  0.4164
61614W        W62478  20.382   1.332  28.385 -0.0377  0.1457  0.0393
61615W        W62479  13.532   5.068   5.904 -0.0383 -0.1925 -0.2395
61616W        W62480  22.417   0.109   8.260  0.3467  0.1834 -0.0763
61617W        W62481  25.640   5.579  12.795 -0.0214 -0.3176  0.1139
61618W        W62482  11.784  19.795  26.808  0.0574  0.0176  0.0178
61619W        W62483  26.030   8.450  14.313  0.0073 -0.2773 -0.0948
61620W        W62484  10.612  10.813  25.286  0.1239  0.0776  0.0915
61621W        W62485  24.858   8.462   2.973 -0.0627  0.1421 -0.0486
61622W        W62486  15.417  16.305   8.408  0.4351  0.0300  0.0539
61623W        W62487   5.318   2.075   9.504  0.0215  0.2185 -0.1152
61624W        W62488   0.340  24.354   8.472 -0.2706  0.1765  0.0169
61625W        W62489   9.978   9.502  18.870  0.1687 -0.0420  0.0023
61626W        W62490  20.538  18.934  16.447 -0.0515 -0.1054 -0.1737
61627W        W62491   2.034   8.651   7.368  0.1404  0.3318 -0.0076
61628W        W62492   2.735   9.469  23.999 -0.0052 -0.2178  0.3395
61629W        W62493   4.483   8.717   5.552 -0.1006  0.1550  0.0227
61630W        W62494   8.909   8.534  26.209  0.1004 -0.0819  0.0838
61631W        W62495   7.392  24.662   2.096  0.0652 -0.1513 -0.0227
61632W        W62496   4.894  27.516  22.542  0.0103 -0.2663 -0.4647
61633W        W62497  27.346  25.005   6.544  0.2940 -0.1710 -0.0131
61634W        W62498   6.708   6.748  12.631  0.3330 -0.1702  0.0203
61635W        W62499   9.355   8.604   5.639 -0.0009 -0.0398 -0.1961
61636W        W62500  11.476   9.789   9.193 -0.1783  0.0059  0.2770
61637W        W62501  15.478  21.345   6.650  0.2897 -0.1521  0.1142
61638W        W62502  11.826  13.853   6.147 -0.1117  0.3966  0.0774
61639W        W62503  25.656  12.843  18.377 -0.2237 -0.1631 -0.0224
61640W        W62504  10.919  26.539   1.256 -0.0214 -0.0126 -0.2292
61641W        W62505  22.785  28.866  14.895 -0.3461 -0.2737  0.1761
61642W        W62506  23.109   1.062  27.844 -0.0907  0.2203 -0.2091
61643W        W62507   3.409  20.256   1.547 -0.0997 -0.0824 -0.0790
61644W        W62508  13.848  11.966  12.991  0.0114 -0.0249  0.0405
61645W        W62509   1.158   5.769   9.772  0.0732  0.2949  0.0517
61646W        W62510  24.900  19.293   2.742 -0.1061 -0.1763  0.2340
61647W        W62511   7.044   0.328  22.439 -0.0037 -0.0116 -0.1192
61648W        W62512  13.930  23.245   9.045  0.2288 -0.2724  0.1769
61649W        W62513  18.690   0.402  16.492 -0.1201  0.2845 -0.2632
61650W        W62514   5.525  16.359  12.363 -0.0215  0.0974  0.2672
61651W        W62515  26.359   6.113   5.131  0.2205  0.0167 -0.0915
61652W        W62516  22.495  13.822  16.318 -0.2928 -0.1920  0.4289
61653W        W62517   9.408   7.887  22.376 -0.1519  0.0609  0.0396
61654W        W62518   2.078   6.195   6.236  0.0205  0.0335 -0.0850
61655W        W62519  22.896  21.542   6.663 -0.0774 -0.2898 -0.1023
61656W        W62520   9.030   9.413  14.819 -0.1407 -0.1953 -0.0615
61657W        W62521   1.232  18.380  26.993 -0.0537  0.0805 -0.4981
61658W        W62522   9.380   8.226   1.847 -0.2210 -0.1788  0.2976
61659W        W62523  13.602  23.593  17.193 -0.1073 -0.0605  0.3144
61660W        W62524  23.887  12.027  28.147  0.1405 -0.1637 -0.2350
61661W        W62525  13.627  15.676   7.591 -0.1047 -0.3087 -0.1627
61662W        W62526  19.052   6.205  25.204  0.2788  0.0351 -0.1432
61663W        W62527  12.191   7.126   1.678  0.1548  0.2249  0.0597
61664W        W62528   0.560  15.061  28.903  0.3393  0.1880  0.5216
61665W        W62529   7.405  11.563  22.793 -0.2562 -0.0564  0.2156
61666W        W62530   7.720  11.627   1.805 -0.0605 -0.5313 -0.0438
61667W        W62531   7.365  15.131  18.420 -0.1441  0.4385  0.1280
61668W        W62532   9.606  18.604   0.055 -0.0106 -0.1491  0.2040
61669W        W62533  20.376   7.196  14.237  0.2873 -0.1230 -0.0496
61670W        W62534  19.693   2.773   7.084  0.2044 -0.1899  0.5185
61671W        W62535   6.558  20.048  11.725 -0.1558  0.1245 -0.1727
61672W        W62536   0.582  15.257  19.768  0.0657  0.0024  0.0444
61673W        W62537  23.453  29.119   1.599 -0.0563 -0.0009 -0.1632
61674W        W62538  24.649  21.149  24.284  0.1761  0.0221 -0.0967
61675W        W62539  24.749  25.504   1.409  0.2137 -0.2836  0.1349
61676W        W62540  22.366  27.886  19.158  0.0597 -0.1878 -0.2039
61677W        W62541   4.337  16.016   4.810 -0.0423  0.1336  0.3436
61678W        W62542   1.073  14.473  27.150 -0.0960 -0.0510 -0.1086
61679W        W62543  11.126  27.756   8.459 -0.2387 -0.0807 -0.2560
61680W        W62544  21.969  11.733  10.592 -0.0577 -0.1859 -0.0733
61681W        W62545  10.054   1.754   7.898 -0.3300  0.0145  0.1960
61682W        W62546   9.830   5.543  22.210  0.2386 -0.4647  0.0902
61683W        W62547   5.873  25.660   4.751 -0.0332  0.0185 -0.1713
61684W        W62548   9.318   3.856  27.991 -0.2199 -0.0757 -0.0072
61685W        W62549  25.569   7.309   4.680 -0.0346 -0.1750  0.1993
61686W        W62550  13.539   0.054  12.768 -0.0258  0.1730 -0.1292
61687W        W62551  10.880   9.326   5.065 -0.0095 -0.0036 -0.1052
61688W        W62552  16.234   0.973   1.258 -0.0204  0.1642 -0.1131
61689W        W62553  20.559   9.824   5.055 -0.2776  0.1196 -0.1353
61690W        W62554  27.130  12.465  12.310  0.1118 -0.0378 -0.2413
61691W        W62555  24.342  27.472  23.924 -0.0878  0.3104 -0.2313
61692W        W62556  23.468  10.743   4.778 -0.1044 -0.2531  0.0178
61693W        W62557  27.376   8.026   3.412 -0.0566 -0.0589 -0.1097
61694W        W62558  16.017  17.716  16.588 -0.1681 -0.0323  0.0980
61695W        W62559  24.884  10.568  27.021 -0.0425 -0.2992  0.1155
61696W        W62560  23.388  11.293  27.269  0.1501  0.1496 -0.1124
61697W        W62561   2.578  12.332   4.996  0.0505  0.2527  0.0719
61698W        W62562  17.738  14.036  21.121 -0.1925 -0.0653 -0.0628
61699W        W62563  13.215  21.772   6.272  0.0605  0.2224  0.5801
61700W        W62564  24.738  16.771  17.185  0.3041  0.0176  0.2601
61701W        W62565  23.470   6.837  22.273  0.2854  0.1240 -0.0356
61702W        W62566   6.380  22.434  21.135 -0.1106  0.0196 -0.1850
61703W        W62567  25.953  21.180   4.781 -0.1643 -0.0336  0.0050
61704W        W62568   9.140   3.959   4.115  0.0458 -0.0667  0.1366
61705W        W62569  10.600   1.199  14.491 -0.4404  0.1191  0.0798
61706W        W62570  17.898   5.710  21.899 -0.1221  0.2376 -0.0429
61707W        W62571  26.529  14.878  14.506 -0.0716  0.1191 -0.2690
61708W        W62572   2.694  10.609  11.459 -0.0056  0.1935  0.1371
61709W        W62573   2.999  19.144  16.965  0.0017 -0.1727  0.0701
61710W        W62574  22.676  22.652  16.953 -0.2788  0.0006  0.0958
61711W        W62575  13.361   1.253  13.921  0.2590  0.1854  0.0514
61712W        W62576  10.360   4.251  10.233 -0.0355 -0.2453 -0.0756
61713W        W62577  17.229  11.205  27.980  0.2916  0.0686 -0.0466
61714W        W62578  26.471  27.679  14.331 -0.3025  0.0317 -0.0669
61715W        W62579  21.694  12.028  14.467  0.0016 -0.0605 -0.2107
61716W        W62580  18.735   9.553  12.861  0.0487 -0.4980 -0.1953
61717W        W62581   9.314  14.767   1.235 -0.0661 -0.0552 -0.3873
61718W        W62582  19.323  23.150   0.302 -0.0323  0.2340 -0.0278
61719W        W62583  10.619  10.646  12.001  0.1355 -0.0465  0.0258
61720W        W62584  28.268  17.885   9.421  0.1145 -0.2250  0.1537
61721W        W62585   0.132  24.459  12.948 -0.1990  0.1150  0.0583
61722W        W62586  18.418  23.839   6.330  0.1302 -0.1033  0.1769
61723W        W62587   8.077  25.217  20.534  0.0820  0.0861  0.0180
61724W        W62588  17.225  24.670  16.445 -0.1140  0.1955  0.0801
61725W        W62589   9.997  26.104   0.591 -0.1442  0.1430  0.2137
61726W        W62590   3.925   7.300  11.568  0.2419 -0.0821  0.2667
61727W        W62591   5.530   6.098   6.560  0.1694 -0.2549 -0.0482
61728W        W62592   6.196  20.277  22.884 -0.0498 -0.2362 -0.0195
61729W        W62593  27.903  17.120  20.533  0.0234 -0.2773 -0.0643
61730W        W62594   8.485  10.558   5.650 -0.0093 -0.3994 -0.2398
61731W        W62595  15.232  10.150   8.492 -0.0650  0.0265  0.3304
61732W        W62596   3.700  27.362  15.307  0.0631 -0.0766 -0.1993
61733W        W62597  28.708  19.207   5.603 -0.0292  0.1407  0.0030
61734W        W62598  27.961  16.475   5.106  0.2037  0.0888  0.0943
61735W        W62599   5.624   3.254  25.979  0.1783 -0.0028  0.3793
61736W        W62600  15.036  17.832  22.331 -0.1303  0.0163 -0.1514
61737W        W62601   4.386   9.613  24.958  0.0626  0.3047 -0.0551
61738W        W62602  16.935  13.288   8.742 -0.1574  0.2678 -0.0492
61739W        W62603  13.663   5.422   2.813  0.3669 -0.0292  0.2711
61740W        W62604  24.218   6.953  21.225  0.2157  0.0739 -0.1720
61741W        W62605   7.225   1.890   5.107 -0.3115  0.4846 -0.0489
61742W        W62606  24.479   9.757  13.104  0.0681 -0.3819 -0.0780
61743W        W62607   2.517  26.398  11.775  0.3046 -0.0159  0.2001
61744W        W62608  20.728  26.640  24.475  0.2134  0.0650  0.1300
61745W        W62609   8.631  26.988  12.092 -0.0611  0.1100 -0.1177
61746W        W62610   8.679   6.837   0.924 -0.1010  0.3398 -0.1042
61747W        W62611   3.986  16.070  24.213  0.0638 -0.0136 -0.0826
61748W        W62612   3.697  14.220  23.747  0.0731 -0.1045 -0.2238
61749W        W62613  17.405  13.595   0.076  0.0137  0.2476 -0.0154
61750W        W62614  19.594  12.965   0.742 -0.1162  0.0607  0.1913
61751W        W62615   1.739   7.174   9.151 -0.0899  0.0947  0.1185
61752W        W62616  13.956  26.520   0.643 -0.1988  0.1083  0.0046
61753W        W62617   0.908   5.102   5.210 -0.2836  0.1260 -0.1928
61754W        W62618   1.397   9.194   9.847  0.4413 -0.1783  0.0133
61755W        W62619  26.379  13.941   6.074  0.0530 -0.1758  0.0228
61756W        W62620  28.931   4.713  16.507 -0.2838  0.1484  0.0605
61757W        W62621  27.705   3.134  10.532 -0.3580 -0.0163 -0.1782
61758W        W62622   1.452   9.199  12.942  0.0667 -0.1016 -0.0575
61759W        W62623   7.984  11.328  24.426  0.1636  0.0821 -0.3998
61760W        W62624  18.139   5.980   6.791 -0.0878  0.0495  0.0916
61761W        W62625   0.406   5.456  23.599  0.1935  0.3583 -0.1703
61762W        W62626  27.842   0.320  16.741 -0.3953  0.1086 -0.2997
61763W        W62627   2.499   8.040   2.912 -0.1383  0.0953  0.2286
61764W        W62628  11.395  13.075  28.045  0.2544  0.0618  0.0200
61765W        W62629  28.608  22.743  26.041  0.0893  0.0965 -0.1958
61766W        W62630   7.291  26.848  11.699 -0.0595  0.0269  0.2078
61767W        W62631  11.499   3.019   4.996 -0.0505 -0.0527  0.0311
61768W        W62632  13.027   8.100  22.336 -0.0175  0.2127  0.2228
61769W        W62633  14.679  27.329  10.380  0.1627 -0.1502 -0.0643
61770W        W62634  24.177  19.779  20.936 -0.2482  0.0757  0.2112
61771W        W62635   6.783  17.028  11.708  0.0355 -0.2121  0.0920
61772W        W62636  26.400   2.760   9.400 -0.1764  0.0082  0.1375
61773W        W62637  26.735  10.030   1.514 -0.1675  0.0868 -0.1833
61774W        W62638   7.750   8.011   3.083 -0.0056  0.2174  0.1324
61775W        W62639  26.479  18.444   0.996  0.0024  0.1915  0.1503
61776W        W62640  16.707   7.620  23.082  0.0793  0.1704  0.1066
61777W        W62641  21.968   7.464  25.871  0.1777  0.0128 -0.1497
61778W        W62642   1.212  20.622  17.276 -0.3092 -0.0356  0.1416
61779W        W62643  16.947  24.087  17.359  0.2096 -0.0424  0.0675
61780W        W62644   7.550  14.954  14.007  0.0617  0.0689 -0.5429
61781W        W62645  17.032  14.923   3.689  0.1523  0.0909 -0.2128
61782W        W62646  10.980  19.599  18.983  0.3359 -0.2007  0.1425
61783W        W62647  16.035  13.976   9.633 -0.2486  0.0301  0.1066
61784W        W62648  13.281   0.512  14.059 -0.1827 -0.1448 -0.3406
61785W        W62649  11.599  19.020  27.644 -0.0761 -0.1578  0.1659
61786W        W62650   0.986   4.937  19.781  0.0105  0.3624  0.0065
61787W        W62651  16.162  23.135  15.622 -0.0107 -0.1055 -0.0749
61788W        W62652   8.366   7.937  16.039  0.1900 -0.2815 -0.0141
61789W        W62653   2.450  17.737   2.958  0.0489  0.0576 -0.3515
61790W        W62654  26.886   6.360  15.285 -0.1753  0.1225  0.4402
61791W        W62655   1.940  12.356   7.679 -0.1848 -0.1102  0.0084
61792W        W62656  10.266  10.414  10.904 -0.0798 -0.2268 -0.0755
61793W        W62657   9.202   8.171   0.859  0.3187  0.0840  0.1195
61794W        W62658  10.415  15.119   9.963 -0.1121 -0.0569  0.0756
61795W        W62659  16.961   4.791   4.355  0.3840 -0.0237 -0.1217
61796W        W62660  22.438  10.694   5.922 -0.0558 -0.0118 -0.0888
61797W        W62661   5.481  14.366  10.869  0.0256 -0.0142 -0.0432
61798W        W62662   7.993  28.115   5.598 -0.0894 -0.2389  0.0513
61799W        W62663  25.044  23.615  14.187 -0.0335  0.0934 -0.0610
61800W        W62664   9.054  17.532   9.267  0.1878  0.0859  0.1836
61801W        W62665   1.631  12.005  21.797  0.0410  0.3136 -0.3386
61802W        W62666  13.059  13.642  11.194 -0.0612  0.0633 -0.3273
61803W        W62667   5.498  12.359  15.474 -0.3039  0.0555 -0.3890
61804W        W62668  17.806   5.054   4.015 -0.0471  0.1385  0.0470
61805W        W62669   4.160   4.874  23.646 -0.0855  0.0505  0.0802
61806W        W62670  10.376   8.300   1.612 -0.2031 -0.3034 -0.0420
61807W        W62671  18.565  19.011   8.841  0.3290 -0.0468 -0.2100
61808W        W62672   0.736  17.479  13.171  0.1506 -0.0645  0.0793
61809W        W62673   9.645  12.915  27.457 -0.1330 -0.1224 -0.0790
61810W        W62674  20.555  26.411   6.582 -0.2164  0.3772 -0.0364
61811W        W62675  24.416  11.898  14.463  0.0381  0.2349  0.0217
61812W        W62676   7.474   5.513   1.481 -0.2892 -0.0974 -0.1769
61813W        W62677  10.602   4.538  25.934 -0.1881  0.0308  0.1064
61814W        W62678  13.908  10.313  19.417 -0.0168 -0.1439  0.0346
61815W        W62679  16.615   0.933  20.013 -0.0610  0.1863 -0.2716
61816W        W62680  17.851  16.992  26.066 -0.2832 -0.1799 -0.0802
61817W        W62681   4.545   2.549  10.613  0.0597 -0.0593  0.0777
61818W        W62682  14.434  11.812  12.364 -0.1293 -0.3002  0.1103
61819W        W62683  16.730  17.468  11.730 -0.3331 -0.3345  0.2146
61820W        W62684   1.734   2.815  18.645 -0.2444 -0.1267 -0.0922
61821W        W62685   7.783  16.807  18.875  0.1557 -0.1614 -0.0208
61822W        W62686  14.297  19.965   9.828 -0.0964 -0.0072  0.0996
61823W        W62687  12.205  12.134  20.237 -0.1888  0.2367 -0.0675
61824W        W62688  26.477  22.949  15.104 -0.1304 -0.1975 -0.1165
61825W        W62689  25.916  21.718   2.358  0.3135 -0.2347 -0.1094
61826W        W62690  22.591  21.143  10.059  0.1284  0.1296 -0.0825
61827W        W62691  12.050   5.798  14.362  0.0331 -0.2370 -0.0007
61828W        W62692   6.247  10.706  11.895 -0.0494 -0.1315  0.0037
61829W        W62693  20.491   4.968   6.935  0.0626 -0.0145  0.0088
61830W        W62694  14.582  14.545   6.452  0.0502  0.1737  0.0439
61831W        W62695  26.207   9.261  28.746  0.1103  0.3239  0.2323
61832W        W62696  20.051  11.552  25.775 -0.2268 -0.1499  0.0238
61833W        W62697   8.683   4.669  19.477 -0.1168  0.2730  0.1224
61834W        W62698  14.527   6.515   5.710  0.0686  0.4211  0.1558
61835W        W62699  22.853  23.812   9.826 -0.2910  0.1683  0.0633
61836W        W62700  14.447  20.768  17.581 -0.2623  0.4914  0.2451
61837W        W62701   0.559   4.314  20.528  0.2593 -0.0102 -0.2552
61838W        W62702   0.197   9.857   6.666  0.0621 -0.1654 -0.1243
61839W        W62703  10.375  28.511   2.948 -0.0770 -0.0446  0.2736
61840W        W62704  10.791   9.735  15.185  0.3180  0.0108  0.4306
61841W        W62705  29.000  10.305  13.739  0.0346  0.0700  0.0715
61842W        W62706  15.405  13.417   9.638 -0.0858  0.0607 -0.1895
61843W        W62707  14.966   2.506  10.309  0.2874  0.0961 -0.1150
61844W        W62708   2.131  17.375  14.385  0.1305 -0.0457  0.2347
61845W        W62709   5.478   9.627   8.543 -0.3962  0.0134 -0.0397
61846W        W62710   8.077   1.516   6.994 -0.1324 -0.0047 -0.0526
61847W        W62711  28.482  21.589   6.354  0.0557  0.0232  0.0283
61848W        W62712   5.928  28.353   9.392  0.1495  0.1499  0.1618
61849W        W62713  22.262  17.808  27.206 -0.0271 -0.0544 -0.0269
61850W        W62714  10.055   8.452   8.503 -0.1750  0.0408 -0.2096
61851W        W62715   6.861  28.184  13.033  0.0769  0.0899 -0.0356
61852W        W62716  11.690  21.642  11.941 -0.0933 -0.2592  0.1425
61853W        W62717  25.950  24.358   9.065  0.0627 -0.0913  0.0627
61854W        W62718   7.345  12.160  23.176  0.1211 -0.0005  0.0085
61855W        W62719  10.225  19.445   7.673 -0.0087 -0.2294 -0.0948
61856W        W62720   3.394   4.074   6.039 -0.2382  0.1419  0.2090
61857W        W62721  10.004  19.785  18.843 -0.2909 -0.1963 -0.3389
61858W        W62722  12.020   8.906  21.210  0.1277  0.0925  0.1964
61859W        W62723  27.891   9.907  26.334 -0.0032 -0.1132  0.2313
61860W        W62724   3.567  11.837  10.293 -0.2192 -0.0100 -0.1507
61861W        W62725   1.272  11.957  24.689 -0.2019 -0.2321 -0.0802
61862W        W62726   5.392  25.638   4.836  0.0289  0.0453 -0.2201
61863W        W62727  21.523  10.127  18.749 -0.1111 -0.1349  0.1597
61864W        W62728  13.120   5.633  20.148  0.0540 -0.3919 -0.2246
61865W        W62729   4.991  17.741   4.373 -0.2028  0.0054  0.1819
61866W        W62730  19.061  19.052   7.760 -0.1536  0.3326 -0.2599
61867W        W62731   0.080   9.834   2.779 -0.4632  0.0620  0.1640
61868W        W62732   2.138   9.276  20.847 -0.4034  0.1045  0.1084
61869W        W62733   9.818  16.156  28.085  0.1225 -0.0229 -0.1146
61870W        W62734  25.886  15.915  22.843 -0.2591  0.2160  0.1863
61871W        W62735   1.748   7.485  17.068 -0.1564 -0.3698  0.1521
61872W        W62736   8.609  14.412  21.223  0.0187  0.0521 -0.1328
61873W        W62737   6.332   9.035  18.274 -0.1267 -0.0361  0.1715
61874W        W62738  15.825  19.457   2.336  0.4339 -0.0479 -0.0930
61875W        W62739   2.445  18.288   2.065  0.2827 -0.0645  0.1774
61876W        W62740  18.752  19.508  26.880 -0.1804 -0.2367 -0.0638
61877W        W62741  26.634  15.540  19.412  0.2348 -0.0416 -0.2114
61878W        W62742   5.861  13.224   5.995  0.4004  0.0709  0.1849
61879W        W62743  11.068   4.006  16.461 -0.1420 -0.1009  0.1855
61880W        W62744   5.741  19.758  26.659  0.0189 -0.0887  0.0338
61881W        W62745  18.792   5.310  18.412 -0.2373 -0.2175  0.0926
61882W        W62746  15.743  13.673  19.800 -0.0011  0.4843  0.0497
61883W        W62747  11.344  20.464  28.522  0.1161 -0.1393 -0.2602
61884W        W62748  21.251  25.344  19.550  0.0157  0.0470 -0.0384
61885W        W62749   8.241  17.728  13.478  0.1636 -0.1104 -0.2690
61886W        W62750  17.311   2.924  13.595  0.2404  0.0104  0.2187
61887W        W62751  10.010  17.681  20.671  0.3230 -0.2097  0.0787
61888W        W62752   3.293  24.323   0.147  0.0077 -0.0850 -0.0758
61889W        W62753   1.789   7.844   3.317 -0.1626 -0.2274  0.0505
61890W        W62754   9.078  14.503  28.617  0.1656 -0.1333 -0.2660
61891W        W62755   3.341  15.604  10.250 -0.2228 -0.0616 -0.1038
61892W        W62756  16.411  25.164   3.016 -0.0217 -0.2193  0.1300
61893W        W62757   7.664  11.734  24.326  0.0733  0.1370 -0.1159
61894W        W62758  12.671  11.994  25.522 -0.2235  0.3104  0.1681
61895W        W62759   9.941   6.469  28.440  0.0770 -0.0840 -0.0345
61896W        W62760   4.407  13.394  14.026  0.2746  0.3191 -0.3074
61897W        W62761  18.764   4.885   5.249  0.1386  0.2061 -0.2648
61898W        W62762   5.221  16.725   4.664 -0.0746  0.1427  0.3702
61899W        W62763   4.318  16.954   0.012 -0.0776 -0.0324 -0.0027
61900W        W62764  27.653  26.615  21.507  0.0555 -0.1222 -0.0003
61901W        W62765  12.006   2.023   9.676  0.2972  0.3340 -0.2700
61902W        W62766   9.376  27.218   7.297 -0.0154  0.1158  0.0963
61903W        W62767  22.179  23.313  11.051  0.2331 -0.1710 -0.1070
61904W        W62768  13.338  11.877   0.381  0.1569 -0.0035 -0.1086
61905W        W62769   5.072  17.143   6.150 -0.2803  0.3209 -0.1781
61906W        W62770  14.028  19.631  13.131  0.1378  0.0271 -0.1407
61907W        W62771   7.677  11.039  13.042  0.0467 -0.0411 -0.1957
61908W        W62772  23.035  18.490   5.524  0.1147 -0.0223 -0.0405
61909W        W62773  19.394  13.439  17.971  0.1404 -0.1524 -0.0112
61910W        W62774  14.836  21.819   8.979 -0.3202 -0.1729  0.0582
61911W        W62775  28.732  25.279   9.134  0.0062  0.1824 -0.1840
61912W        W62776  11.512   5.405  23.357  0.2322 -0.0610 -0.1336
61913W        W62777  17.523  16.007  28.403  0.1744 -0.1430 -0.2692
61914W        W62778  11.555  10.945  19.731 -0.1139 -0.2296  0.3183
61915W        W62779  15.255  18.716  25.570  0.0837 -0.0203  0.3257
61916W        W62780   5.091  13.337   7.289  0.0595 -0.1336 -0.0376
61917W        W62781   4.787  17.827  23.750  0.0176  0.1760 -0.3143
61918W        W62782   6.171   0.715  11.728  0.1936 -0.1903 -0.0900
61919W        W62783   7.880   5.606  11.103 -0.0697 -0.0890  0.0953
61920W        W62784   3.937   1.402   6.313  0.4802 -0.0124 -0.2936
61921W        W62785   5.505   1.808  16.400  0.0034  0.1932  0.3308
61922W        W62786  17.926   4.317   0.766 -0.3514  0.3096 -0.0567
61923W        W62787   8.483   4.353   6.427 -0.1431  0.2170 -0.1439
61924W        W62788  23.027  13.683  14.309  0.2796 -0.2293 -0.2380
61925W        W62789  12.226   2.832  12.442 -0.0016 -0.0226 -0.1538
61926W        W62790  20.807   1.774  24.777 -0.2367 -0.3758 -0.2668
61927W        W62791  21.860   7.036   0.408 -0.1540  0.0377  0.0780
61928W        W62792   6.012  28.382  25.400  0.1937  0.0919 -0.1866
61929W        W62793   2.215   1.707  17.507  0.0567  0.1513 -0.1426
61930W        W62794  25.990  25.154  12.780  0.1499  0.2347 -0.0871
61931W        W62795   4.088  19.219  17.205  0.1904 -0.1341  0.0782
61932W        W62796   8.691   2.384  20.650 -0.0699 -0.3686  0.1043
61933W        W62797   9.317  12.622  15.743  0.2446  0.1824  0.2047
61934W        W62798  12.772   5.543   8.750 -0.0093 -0.2670 -0.3140
61935W        W62799  14.890   8.926   8.567 -0.0254  0.1222  0.1326
61936W        W62800  15.189  11.851  21.122  0.1428 -0.0299  0.0852
61937W        W62801  27.108   8.316   1.314 -0.3592  0.0043 -0.2516
61938W        W62802  11.993  13.518  23.490  0.1157  0.0204 -0.1014
61939W        W62803  20.150  26.513   1.230 -0.1360 -0.1660  0.0274
61940W        W62804  28.252  26.416  22.927  0.0672 -0.1130  0.1575
61941W        W62805  25.105  15.072   0.859  0.2740  0.1632 -0.0362
61942W        W62806   6.498   0.010   5.433 -0.1681  0.0849 -0.0019
61943W        W62807   9.297  13.146  15.621 -0.2314  0.4383 -0.1208
61944W        W62808   2.892  13.970   5.023 -0.1663 -0.1473  0.3109
61945W        W62809  23.099  25.097  17.916  0.1641 -0.1470 -0.0335
61946W        W62810  14.984   3.005   5.858  0.0250  0.1056 -0.0131
61947W        W62811   0.368  23.065  18.108 -0.1432  0.1999  0.3067
61948W        W62812   6.265  27.390  18.161  0.3899 -0.3334 -0.0249
61949W        W62813   3.951   6.247   9.937  0.1066  0.1031 -0.1570
61950W        W62814   5.141   6.898  27.407 -0.0061  0.0368  0.1720
61951W        W62815   5.336   8.274   8.363 -0.1239 -0.0318 -0.1346
61952W        W62816  12.216   9.623   5.849  0.3348  0.1819 -0.0741
61953W        W62817  20.002   4.291  23.372  0.2475  0.1836  0.2027
61954W        W62818   8.323  11.132  18.512  0.1126 -0.1796  0.0954
61955W        W62819  11.951  10.526  18.060 -0.1568  0.3002  0.1650
61956W        W62820  25.128  17.155  26.814  0.3386 -0.2211  0.3091
61957W        W62821  12.200   2.730  20.991  0.1710 -0.1661  0.2594
61958W        W62822  26.519  16.914   1.502 -0.2325 -0.0361 -0.1067
61959W        W62823  11.985   7.775  19.002 -0.2146 -0.2023  0.0618
61960W        W62824  20.257   8.529   9.041 -0.0109  0.0268 -0.2291
61961W        W62825  14.879   1.818   6.047  0.1584 -0.0945  0.2693
61962W        W62826  10.964  11.269   5.742  0.1498 -0.4676 -0.0958
61963W        W62827   8.727  26.729  21.320 -0.0503 -0.0516 -0.0833
61964W        W62828   3.072   7.066   2.741 -0.1411  0.0844  0.3298
61965W        W62829  19.952   7.022   8.912  0.0941 -0.2453  0.1034
61966W        W62830  12.240  24.040  29.109  0.0095 -0.3574 -0.1560
61967W        W62831  28.276  11.742   2.706 -0.3708  0.1831  0.1530
61968W        W62832  22.097  14.065  13.185 -0.1955 -0.2975 -0.2884
61969W        W62833   6.327  22.348  26.162 -0.1411 -0.0001 -0.0750
61970W        W62834   8.131   3.115  11.974  0.0071 -0.3045 -0.2362
61971W        W62835  23.016  25.556   7.828 -0.1748  0.2295  0.0024
61972W        W62836  12.097  21.802  12.252  0.1458 -0.2950 -0.0034
61973W        W62837  26.433   0.782  21.597  0.1597  0.2134 -0.0400
61974W        W62838  28.260   2.859  26.344 -0.2420  0.1082  0.0524
61975W        W62839  19.791  25.384  28.169  0.0119  0.0276  0.1625
61976W        W62840  12.585  15.985   1.182 -0.1128 -0.0338 -0.0110
61977W        W62841  24.289  23.394  22.621 -0.0983  0.2911  0.0470
61978W        W62842  10.378  14.758  11.465 -0.0684 -0.1201  0.0617
61979W        W62843  10.585   0.655  26.170  0.0178 -0.0337 -0.1989
61980W        W62844   1.013  18.094   8.155  0.2910 -0.1033 -0.0496
61981W        W62845   7.208   9.795  12.214  0.2778 -0.1895 -0.0763
61982W        W62846  27.860  11.796  19.423 -0.1447  0.3097  0.1458
61983W        W62847   9.073   6.218  28.048  0.0841 -0.0906 -0.4971
61984W        W62848  17.237  17.659  22.144  0.0425  0.1731  0.1589
61985W        W62849  13.916  11.768   5.142 -0.0237  0.3049  0.0513
61986W        W62850   8.331  26.855   6.187  0.2829  0.0018 -0.1679
61987W        W62851   8.043  14.809   6.223  0.2014  0.0493 -0.3036
61988W        W62852  15.227   2.019  11.114 -0.1108  0.0575 -0.2651
61989W        W62853   3.029  11.386  12.566  0.0141  0.0178  0.1205
61990W        W62854   5.379  11.500   4.372  0.3898  0.0953  0.1873
61991W        W62855  15.116  10.301   3.096 -0.0803 -0.0853 -0.0407
61992W        W62856   2.748  11.389  19.506 -0.2036  0.0668  0.0636
61993W        W62857  14.566  13.709   7.387 -0.1085 -0.1594  0.0294
61994W        W62858   5.890  13.481  25.271 -0.2468  0.1649  0.2644
61995W        W62859   3.414  23.171  11.747  0.1136 -0.1751  0.2288
61996W        W62860   7.553  20.042  22.989  0.1312  0.0927  0.2800
61997W        W62861   2.845  28.664   8.554  0.0768 -0.0659 -0.0880
61998W        W62862   4.745   4.737  10.782 -0.0807  0.0011  0.0017
61999W        W62863  15.010  23.071  19.937 -0.2361 -0.1992 -0.0502
62000W        W62864   1.034  21.828  24.194 -0.1641  0.1969  0.1563
62001W        W62865  20.518  24.027   7.260  0.0836  0.2985  0.0384
62002W        W62866   8.397   9.629   5.424  0.0935  0.1229  0.0232
62003W        W62867  21.311  11.742   7.897  0.1209 -0.1133  0.0630
62004W        W62868   1.284  28.089   7.197  0.0231  0.1914  0.2500
62005W        W62869  15.654  25.986   8.365  0.0689  0.2252  0.1534
62006W        W62870  16.976  13.245   1.570  0.0206 -0.0043 -0.0961
62007W        W62871  22.143  16.888  14.519  0.0999 -0.0960  0.0734
62008W        W62872   3.990  26.332  28.529 -0.0552 -0.0649  0.3676
62009W        W62873  24.300   2.634   7.192 -0.4073 -0.0225 -0.3152
62010W        W62874   2.916  18.122  11.948 -0.1715 -0.0171  0.0365
62011W        W62875  13.179   3.422  15.127 -0.1044  0.2103 -0.1917
62012W        W62876  17.772  10.678  18.449  0.3643  0.1934  0.0446
62013W        W62877   3.412  10.647  10.095 -0.1909 -0.1220 -0.0606
62014W        W62878  14.613  27.616  20.348  0.0500 -0.0444  0.0748
62015W        W62879   9.500  22.651  26.970  0.2065 -0.2744 -0.0778
62016W        W62880  20.800  20.916  25.190  0.1511 -0.1914  0.4106
62017W        W62881  26.996  12.381  24.316 -0.1337 -0.0799  0.2289
62018W        W62882   2.988  19.973   0.514  0.1760  0.0800  0.0731
62019W        W62883   9.327  20.328  17.305  0.0105 -0.3095  0.2910
62020W        W62884  22.321  26.464  10.862 -0.0775  0.2578  0.2729
62021W        W62885  15.626   4.081   7.288 -0.1492  0.0950  0.0307
62022W        W62886  18.131  10.900   5.179  0.0254  0.0635 -0.1267
62023W        W62887   5.835  22.508   7.803 -0.0834  0.0764  0.0476
62024W        W62888   0.463  18.409  18.949  0.2101  0.1817  0.0366
62025W        W62889  14.357  24.745  12.068  0.4530  0.1250 -0.3078
62026W        W62890  10.705  21.604   4.356 -0.4010  0.1393 -0.1833
62027W        W62891  17.162  10.850  14.264 -0.0434 -0.2077 -0.0273
62028W        W62892   1.510  28.214   4.897  0.0222 -0.2765  0.1203
62029W        W62893  28.539   7.694  17.462  0.1051  0.0879  0.3266
62030W        W62894   5.410   0.496  15.139  0.0311  0.1179 -0.2575
62031W        W62895  16.302  11.090  25.279  0.1996 -0.1370 -0.0412
62032W        W62896   6.141  19.154  13.869 -0.0476 -0.0269  0.1208
62033W        W62897  19.857  14.709  26.427  0.0184  0.3027  0.0493
62034W        W62898  15.257  17.488   7.454  0.2642 -0.2801 -0.1752
62035W        W62899   8.903   9.327   6.430  0.0426 -0.1199 -0.2150
62036W        W62900  12.927  23.934   6.291  0.1978  0.1449 -0.2271
62037W        W62901  12.902  17.292   1.370  0.1153 -0.1971  0.0908
62038W        W62902  19.360   7.141  18.569  0.1122 -0.0020 -0.0407
62039W        W62903  26.429  23.478   7.412 -0.2217 -0.0828  0.0153
62040W        W62904  20.490  22.699  27.542 -0.1561  0.0812 -0.1538
62041W        W62905  25.078  20.137  20.735  0.0743  0.3840 -0.2873
62042W        W62906  12.852   5.905  26.701 -0.0624  0.0650 -0.1650
62043W        W62907  16.005   5.338  18.648  0.1832  0.1391 -0.3776
62044W        W62908   9.069   0.805  10.493  0.0642  0.1519  0.1366
62045W        W62909   1.711  16.591   8.578 -0.0534  0.0172  0.0392
62046W        W62910  12.082  12.184  14.298  0.3763 -0.1983 -0.3931
62047W        W62911   1.870  17.432   7.055  0.1027  0.3966 -0.0947
62048W        W62912  13.634   5.140  12.559  0.0295 -0.1468 -0.2542
62049W        W62913  25.094  17.853   8.300 -0.2672  0.0660 -0.3315
62050W        W62914  11.721   3.649  20.619  0.0142 -0.1541 -0.1051
62051W        W62915  17.351  18.066  26.627  0.0664  0.3333 -0.2003
62052W        W62916  11.566  13.851   3.510 -0.1849  0.2126 -0.0072
62053W        W62917  11.722  10.073  10.224 -0.0816  0.0138  0.3623
62054W        W62918  19.537  24.994   5.273  0.0758 -0.0641  0.2610
62055W        W62919   6.941  11.455   6.705  0.0206  0.0337 -0.0706
62056W        W62920  16.811  22.487   8.457 -0.0097 -0.0274  0.2103
62057W        W62921  16.613   6.836  26.581  0.1451 -0.0720 -0.0310
62058W        W62922  22.984   1.894  14.028 -0.2948 -0.2588 -0.0636
62059W        W62923  13.312  24.795   6.016  0.0241 -0.2036 -0.0762
62060W        W62924  23.247  28.468  26.088  0.0875  0.1755  0.0486
62061W        W62925  15.905  16.455  19.008 -0.0418 -0.1393 -0.0887
62062W        W62926   8.921  20.847   6.007  0.0506 -0.0671  0.1433
62063W        W62927  21.297   9.354  15.209  0.0883  0.0478 -0.0485
62064W        W62928  12.285  12.249   7.756 -0.0620 -0.0024 -0.0188
62065W        W62929   8.399  13.922  11.422 -0.0336  0.1839  0.2536
62066W        W62930   8.110  29.085   9.590 -0.0378 -0.2628 -0.2201
62067W        W62931   4.024   9.518  12.938  0.1674  0.0309 -0.0969
62068W        W62932  12.603   3.831  12.109 -0.0838 -0.0693  0.1244
62069W        W62933   7.806  16.449  18.517 -0.1546  0.1306 -0.2676
62070W        W62934   4.200  22.087  14.963 -0.3398 -0.2452 -0.0707
62071W        W62935  19.037  19.125  14.409 -0.1276 -0.2092 -0.0691
62072W        W62936  23.662  21.686  27.765  0.0690 -0.1116 -0.1600
62073W        W62937  16.126  18.312   5.096 -0.2654 -0.1987  0.0570
62074W        W62938  14.422   4.340   6.465 -0.0187 -0.0141 -0.3177
62075W        W62939   1.086   6.534  20.154 -0.0963  0.0214  0.2306
62076W        W62940  20.734  20.351  26.661 -0.0235  0.0045  0.0522
62077W        W62941  20.816  12.008  15.635  0.0139 -0.0561 -0.1225
62078W        W62942   9.745   9.232   3.132 -0.0166  0.0455  0.0482
62079W        W62943   3.777   6.110   7.422 -0.1168 -0.1080  0.1296
62080W        W62944  22.031  19.671  13.163  0.1136 -0.0743 -0.1008
62081W        W62945  23.920   0.889  13.787 -0.0159 -0.0954  0.3159
62082W        W62946   5.790   8.031  20.812 -0.0204  0.4452  0.0468
62083W        W62947   4.750  25.041   8.173 -0.0689 -0.3332 -0.0518
62084W        W62948   9.029  29.033  26.830  0.0921  0.0845 -0.2293
62085W        W62949   6.158  22.114  14.629  0.2096 -0.1313  0.2896
62086W        W62950  27.115   1.369  14.038  0.0372  0.0590  0.1174
62087W        W62951  15.898  24.099   4.356  0.0350 -0.0924 -0.2922
62088W        W62952  11.495   5.202  13.313 -0.0155  0.4007  0.2176
62089W        W62953  16.271  20.860  17.379  0.1538  0.0733 -0.0980
62090W        W62954   2.753  22.069  14.559  0.3240  0.0248  0.0734
62091W        W62955  22.081  17.952   6.608  0.0148 -0.3557 -0.0195
62092W        W62956  12.840   7.027   6.057 -0.0497 -0.0251  0.0877
62093W        W62957  12.310  11.825  21.590  0.3790  0.0792 -0.0607
62094W        W62958   4.102   9.282  16.376 -0.0714  0.2145 -0.0764
62095W        W62959   7.895  18.698  21.135 -0.3736  0.1494  0.0257
62096W        W62960   6.912  22.957  16.788 -0.0928 -0.0707  0.2189
62097W        W62961   8.617  16.754  18.841  0.4946  0.0254  0.3359
62098W        W62962  28.548   7.427  24.953 -0.0558  0.1217 -0.3146
62099W        W62963   1.747   5.601   1.567  0.2912 -0.1180 -0.1452
62100W        W62964   0.292  23.551  18.279  0.2207  0.0088  0.0276
62101W        W62965   5.087  21.555  19.934  0.1683  0.4644 -0.1466
62102W        W62966  17.884  22.654   0.927  0.0269  0.0585  0.1723
62103W        W62967  26.623  11.056   0.249  0.1469 -0.1076 -0.1543
62104W        W62968   5.935   1.161  27.763 -0.0348 -0.1031  0.3003
62105W        W62969  15.572  28.822   4.420 -0.1840  0.2498  0.0847
62106W        W62970  22.756  16.492   7.692 -0.1216  0.2158 -0.0656
62107W        W62971   2.128  12.276  18.592  0.0543 -0.1820  0.0357
62108W        W62972   4.100  17.453  22.901 -0.2380 -0.0663  0.1786
62109W        W62973  19.569   1.961  23.747  0.1107 -0.2053  0.1432
62110W        W62974  12.461   0.543  10.032 -0.0314  0.0917 -0.2118
62111W        W62975  25.845   0.796   7.210  0.4006  0.1189  0.2867
62112W        W62976  10.268   5.073   9.522 -0.0832  0.1864  0.3355
62113W        W62977  13.649   8.291  23.795 -0.2923  0.1986 -0.0037
62114W        W62978  24.738  27.088  24.763  0.0846 -0.1320  0.0056
62115W        W62979   4.177  12.353  28.367  0.1755  0.0602 -0.1650
62116W        W62980   4.105  13.446  26.718  0.0200  0.2261 -0.0932
62117W        W62981  19.499  25.601   5.893 -0.1299 -0.1576  0.0206
62118W        W62982  24.056   6.200   1.122 -0.1455 -0.0013 -0.0099
62119W        W62983   9.772   1.070   7.337 -0.2390 -0.1573 -0.0539
62120W        W62984   9.440  13.435   3.056  0.1261  0.1714  0.2284
62121W        W62985   1.618  26.533   4.080  0.3193 -0.0932  0.1320
62122W        W62986  14.234  13.066  22.175  0.1107 -0.3064 -0.0577
62123W        W62987  10.792   6.906   7.366 -0.4033  0.0466 -0.1748
62124W        W62988  20.094   2.961  19.535  0.0616  0.2863  0.1739
62125W        W62989   5.517  12.474  24.273  0.0840  0.1742 -0.1903
62126W        W62990  12.436   0.195   9.203  0.0120  0.0052 -0.1106
62127W        W62991   6.168  14.322  25.594 -0.0144  0.0905 -0.3332
62128W        W62992   6.885   5.482  27.563  0.1285  0.0220 -0.5559
62129W        W62993  18.839  12.264  10.698 -0.0019 -0.3232 -0.1381
62130W        W62994  27.148  13.229   6.402  0.3405 -0.1676 -0.3062
62131W        W62995   4.070  14.394   6.121  0.1809  0.0446 -0.0794
62132W        W62996   7.399  13.212   9.395 -0.0224  0.0222 -0.1079
62133W        W62997  22.274  28.709  27.566 -0.2036 -0.0219  0.0028
62134W        W62998  18.802   0.424  11.503  0.0227 -0.3738  0.0652
62135W        W62999  23.065  11.162  15.308  0.0222  0.1029  0.0060
62136W        W63000  13.130  24.357  17.261  0.0975 -0.1409 -0.1272
62137W        W63001  21.487   3.653   4.121  0.1045 -0.0528  0.1810
62138W        W63002  13.282  15.127  21.822 -0.1508  0.0009 -0.2992
62139W        W63003   3.899  18.285  19.726 -0.1859  0.0409  0.2199
62140W        W63004   1.089  21.420  10.009 -0.0464 -0.0448 -0.0944
62141W        W63005  10.631  26.700  25.946 -0.0098  0.0685 -0.0690
62142W        W63006  26.865  16.105  22.754 -0.1664 -0.1986  0.0304
62143W        W63007  14.827  24.478   5.965 -0.3712  0.0070  0.1113
62144W        W63008   4.113   9.772   0.931 -0.2192  0.1842  0.1049
62145W        W63009  11.107  22.575  27.557  0.3022  0.0554  0.0356
62146W        W63010   4.329   1.279  14.487  0.1585 -0.2213  0.0590
62147W        W63011   7.286  17.687  28.793  0.0030 -0.3010  0.1341
62148W        W63012   1.670   0.952  13.063  0.2325 -0.0494  0.0813
62149W        W63013   3.837   8.373  10.354  0.0179 -0.1106  0.1031
62150W        W63014  16.161  11.499   4.105 -0.2361 -0.1165  0.1401
62151W        W63015  14.514  23.850  15.698 -0.1392  0.3109  0.2921
62152W        W63016  15.581   3.577  20.289 -0.1884 -0.0521 -0.4192
62153W        W63017  14.092  16.622  18.192  0.1630  0.1397 -0.2905
62154W        W63018   3.656   7.215  15.259 -0.2493 -0.2512  0.1403
62155W        W63019  26.133  23.903  21.484 -0.4345 -0.2232  0.0926
62156W        W63020   0.994  16.346  21.440  0.4737  0.1365  0.1536
62157W        W63021   9.635  14.256  14.412 -0.0874 -0.0454  0.0919
62158W        W63022   1.641   9.105  18.151  0.4114  0.0539  0.0404
62159W        W63023  25.206  12.688  18.095  0.0480 -0.1712  0.2048
62160W        W63024   3.811  10.729   4.779  0.2135  0.3483  0.0951
62161W        W63025   7.061   7.037  12.856  0.1784 -0.0805 -0.2919
62162W        W63026  29.098   0.825   1.933 -0.2559  0.0325  0.1663
62163W        W63027  16.648  20.861  21.930  0.1403  0.1239  0.1193
62164W        W63028   7.000  26.078   6.733 -0.1593 -0.1050 -0.2789
62165W        W63029   1.601   5.361  20.837 -0.0777 -0.0423  0.0531
62166W        W63030   4.732  15.533   4.109  0.2718  0.5406 -0.4807
62167W        W63031   4.695   6.592   0.419 -0.0367 -0.4886 -0.1055
62168W        W63032   7.600   8.224  25.636  0.2301  0.0728 -0.0423
62169W        W63033   6.793  11.175   4.343 -0.2109  0.1614 -0.1944
62170W        W63034  15.877   5.941   5.033 -0.0181 -0.0955  0.0181
62171W        W63035  22.057  14.533  24.621  0.1278  0.1446  0.1699
62172W        W63036  16.575   2.755   3.491  0.3145  0.0617  0.2793
62173W        W63037  21.237  28.611  28.692  0.1748 -0.0998 -0.0554
62174W        W63038  26.419  27.741  23.867 -0.0073  0.0095 -0.2820
62175W        W63039   3.229   7.536   8.700  0.4571 -0.0841 -0.0067
62176W        W63040  23.849  13.146  18.128  0.3885 -0.3776 -0.1422
62177W        W63041   3.670   4.449  15.892 -0.2551  0.1286  0.1284
62178W        W63042  12.987  18.741  23.369 -0.2516 -0.2137 -0.1037
62179W        W63043   6.361   1.443   0.301 -0.2101  0.2272 -0.0699
62180W        W63044  18.105   0.725   8.287 -0.0665  0.0874 -0.3677
62181W        W63045  18.539  13.258  26.092 -0.0086 -0.1122  0.3684
62182W        W63046  14.740  13.872  25.602  0.3884  0.1549  0.1346
62183W        W63047  10.618  20.360   4.911 -0.2717 -0.0204 -0.0348
62184W        W63048  12.878   9.340   5.529  0.1544 -0.0147 -0.1780
62185W        W63049  26.304  23.555  13.567  0.0603  0.2220 -0.1248
62186W        W63050  14.416  15.158  23.389 -0.1223  0.1566  0.0250
62187W        W63051   6.215  11.323   1.961 -0.2207 -0.0258 -0.0848
62188W        W63052  15.835   5.606  18.284  0.0665  0.2640  0.1341
62189W        W63053  14.025   9.488  19.648  0.1103 -0.1202  0.1152
62190W        W63054  15.449   8.749  22.866  0.0410  0.1393  0.1269
62191W        W63055  18.556  18.173  10.987 -0.2448  0.0218 -0.1087
62192W        W63056  20.511  21.526  25.843 -0.1762 -0.0570  0.0998
62193W        W63057  24.315   7.317  19.473  0.0628  0.0642 -0.1016
62194W        W63058  23.896   8.351   9.452  0.1799  0.1602  0.1044
62195W        W63059  16.295  10.502  15.944  0.1739  0.2109  0.1759
62196W        W63060  23.327  22.260   9.144 -0.2326 -0.1649 -0.0988
62197W        W63061   0.953  12.897  19.079  0.0001 -0.0852 -0.1439
62198W        W63062   8.978  16.088  28.043 -0.2132  0.0366 -0.1554
62199W        W63063  19.203   8.645   7.726  0.5109  0.0199 -0.0266
62200W        W63064  11.472  12.616  26.323  0.0684 -0.0237 -0.0342
62201W        W63065   4.002   4.967  20.367  0.1327 -0.0426  0.0304
62202W        W63066   7.953   4.755   7.576  0.2222 -0.0439 -0.0781
62203W        W63067   1.334  24.779  16.330  0.0713  0.1170 -0.0558
62204W        W63068  11.460   9.339  18.540 -0.5106  0.2584 -0.1674
62205W        W63069  10.745  12.771   8.292 -0.0140 -0.1195 -0.3002
62206W        W63070   6.546  16.684  13.603  0.0133  0.0771  0.0182
62207W        W63071   1.687   5.897   4.322  0.2515  0.1748  0.0162
62208W        W63072  10.379  19.423  11.803  0.1191  0.0603 -0.1002
62209W        W63073   8.255   9.938   6.608 -0.0492 -0.0526  0.0511
62210W        W63074  13.623  15.265  20.243 -0.1050  0.0302 -0.3991
62211W        W63075   2.685  23.311  28.759 -0.0895 -0.2230  0.2162
62212W        W63076  20.611  15.523  18.839  0.0146  0.2663  0.1216
62213W        W63077   7.994  23.163  16.330 -0.1970 -0.1206  0.2537
62214W        W63078  27.255   8.004  21.441 -0.3225  0.2713  0.1380
62215W        W63079  13.116  21.829  17.185 -0.0259  0.0953  0.0763
62216W        W63080   3.952  21.234  26.962  0.1413  0.1504  0.1443
62217W        W63081  14.318   0.659  22.771 -0.1655  0.1179 -0.0264
62218W        W63082  17.173  27.692  25.185  0.0278 -0.1698 -0.1677
62219W        W63083   0.435  28.196  14.316  0.0507 -0.0533 -0.0440
62220W        W63084   5.615  12.349  27.163 -0.1980 -0.0946 -0.1684
62221W        W63085  26.105   8.792  22.871 -0.0360 -0.1429  0.0628
62222W        W63086  11.000  23.103  25.492 -0.0256  0.2127 -0.3625
62223W        W63087   2.805  24.179  13.883 -0.4670 -0.0067 -0.0847
62224W        W63088   9.995   9.616   8.347 -0.2075  0.0172 -0.2712
62225W        W63089   9.765   8.642  13.566 -0.1571  0.1566 -0.0589
62226W        W63090  11.967  16.135  28.524 -0.0328  0.0498  0.2252
62227W        W63091  18.146  24.273   4.216 -0.4919 -0.0023  0.2617
62228W        W63092  27.110   2.971  12.986 -0.0635  0.0919  0.2212
62229W        W63093  25.791  16.648   7.661 -0.0392  0.3533 -0.0442
62230W        W63094   2.900   9.569  10.147  0.2014  0.0582 -0.0085
62231W        W63095   2.124   9.083   8.839  0.0475  0.0359  0.1620
62232W        W63096   7.270  29.127  18.473 -0.0013  0.5828  0.3285
62233W        W63097  11.387   8.007   8.680  0.1102 -0.1270 -0.0026
62234W        W63098  12.837  15.926  20.083  0.0890  0.1428  0.0047
62235W        W63099   3.086  22.271  22.697 -0.0271 -0.1742 -0.1504
62236W        W63100   1.697   3.503  25.939  0.0349  0.0806 -0.1906
62237W        W63101  17.217  14.916  16.998  0.2305  0.0628 -0.1143
62238W        W63102  25.524   4.148  10.959 -0.0211  0.0154 -0.2111
62239W        W63103  13.373  14.342  26.836  0.0409 -0.0034 -0.1246
62240W        W63104  26.410   0.731  13.902 -0.0337 -0.1055  0.3514
62241W        W63105  24.366  17.627  24.244  0.2314  0.0256 -0.1909
62242W        W63106   9.633  17.086  12.953  0.1576  0.3415  0.0941
62243W        W63107  16.586  25.198  22.950  0.4823 -0.2940 -0.2571
62244W        W63108  10.360  29.039   3.526  0.0722 -0.1874  0.1447
62245W        W63109  23.730  25.159  28.248  0.0046  0.0675  0.0847
62246W        W63110  22.949   6.025  19.454 -0.1203 -0.0386 -0.2055
62247W        W63111  12.714   2.085   5.598 -0.2449  0.0395 -0.0559
62248W        W63112   9.089  14.515   2.509 -0.1358 -0.1388 -0.0795
62249W        W63113   4.334  21.090   2.804  0.0359 -0.1749  0.1641
62250W        W63114   7.482  20.721  14.785  0.0078  0.0336  0.1408
62251W        W63115   7.204  28.868  10.594 -0.0747 -0.2938  0.1888
62252W        W63116  14.830  23.454  24.134 -0.1771  0.0307  0.3003
62253W        W63117   5.301  20.071  21.453 -0.0551 -0.0254 -0.0281
62254W        W63118   4.945  14.597   2.204 -0.0093 -0.0310 -0.0222
62255W        W63119  21.249  17.334  21.676 -0.3869 -0.2984 -0.1097
62256W        W63120  14.834  17.193   7.374 -0.1065  0.1679 -0.1352
62257W        W63121  25.851  14.046  26.781 -0.2436 -0.5201  0.0270
62258W        W63122   6.469  20.138  25.001 -0.1874  0.1511  0.1152
62259W        W63123   0.181  16.169   7.976  0.3073  0.1305 -0.0502
62260W        W63124   7.606  16.607  10.999 -0.1729 -0.0874  0.5209
62261W        W63125   1.421  25.623   4.659  0.1752 -0.2278 -0.0521
62262W        W63126  14.882  12.865  26.710 -0.0577 -0.0854 -0.0124
62263W        W63127   9.919   8.684  23.252  0.2489 -0.0869  0.0872
62264W        W63128  18.743  11.526  22.654 -0.1305  0.0078  0.1657
62265W        W63129  17.949  21.648   7.104 -0.0019 -0.2936  0.0451
62266W        W63130   9.660  13.511   8.421  0.1909  0.0134 -0.0183
62267W        W63131  23.436  23.331   2.899 -0.0597 -0.1550  0.0559
62268W        W63132   1.641   7.019  20.559 -0.4172  0.0025  0.1902
62269W        W63133  15.580  22.215   4.092  0.1357 -0.0251  0.1314
62270W        W63134  13.630  12.863  16.207  0.0064 -0.0311  0.2451
62271W        W63135  20.392   4.476  22.006 -0.0626  0.1039 -0.0707
62272W        W63136   0.431  18.944   5.150  0.3465 -0.1577  0.2439
62273W        W63137  19.079  27.505  11.733 -0.3724 -0.3012  0.3857
62274W        W63138  18.465  24.794   9.860 -0.5324 -0.0336 -0.1923
62275W        W63139  16.613   3.837  24.219 -0.0050 -0.0657  0.0184
62276W        W63140  27.007  11.928  17.449 -0.0504  0.0781  0.3287
62277W        W63141   6.786  15.564  22.775 -0.1150  0.1353  0.1547
62278W        W63142  13.955  26.823   2.199 -0.1299  0.2030  0.0177
62279W        W63143   1.605  11.370  13.505  0.0692 -0.0334 -0.1220
62280W        W63144   7.813  25.929   4.891 -0.0761  0.2143  0.2577
62281W        W63145   1.984   1.903  16.362 -0.0648  0.2590 -0.1971
62282W        W63146   9.738   2.512   8.452  0.1655  0.0143  0.1061
62283W        W63147  21.713   5.132  12.280 -0.1583 -0.1876  0.0242
62284W        W63148   4.387  10.976  10.147 -0.0715 -0.3216 -0.1305
62285W        W63149   8.325   5.140  25.812  0.2010  0.0693 -0.1931
62286W        W63150  13.758  11.913  25.199  0.1855 -0.0367 -0.1518
62287W        W63151  15.616  28.537  17.619 -0.0386  0.0238  0.0259
62288W        W63152  11.515  10.870   2.974 -0.0340  0.0756 -0.1720
62289W        W63153   4.782   6.718  20.226 -0.1336 -0.0574  0.2783
62290W        W63154  24.211   0.753  24.805 -0.1925  0.0246 -0.1718
62291W        W63155  12.328  11.279  25.363 -0.0363  0.3008  0.0913
62292W        W63156  14.757  28.471  16.528  0.0104 -0.1609  0.0443
62293W        W63157  15.948  23.238  27.482  0.2621  0.2487 -0.1036
62294W        W63158  15.749  27.224  27.498  0.0144  0.3679 -0.0677
62295W        W63159  13.939   5.528   1.340 -0.1073 -0.1491  0.2367
62296W        W63160  16.132   9.111  14.094 -0.2764 -0.1260 -0.0347
62297W        W63161   7.435  18.755  25.810  0.0905  0.1940 -0.1111
62298W        W63162   9.380   1.862   9.575  0.2971 -0.1622  0.1351
62299W        W63163  18.340   0.899   6.539  0.0464  0.0220  0.2536
62300W        W63164  27.810  11.762  12.645 -0.2524 -0.0507  0.1786
62301W        W63165  13.209  23.076  27.817  0.0634 -0.2496  0.1703
62302W        W63166  12.408  11.456   3.244  0.0408 -0.0992 -0.0901
62303W        W63167  22.503   9.040  10.372 -0.0683  0.0364  0.2620
62304W        W63168   0.676   9.904  11.738  0.0113  0.0406 -0.0650
62305W        W63169  18.872   8.470  23.673 -0.1154 -0.2220 -0.1782
62306W        W63170  19.371  20.602  18.719 -0.2007 -0.1380 -0.2427
62307W        W63171   4.305  24.422   5.484 -0.1958 -0.5151  0.0890
62308W        W63172  14.807   5.444   9.920 -0.2522 -0.2023  0.1151
62309W        W63173   9.545   3.199  13.151 -0.0359 -0.1190 -0.0204
62310W        W63174   4.180  23.378  19.002 -0.0367  0.2757  0.3305
62311W        W63175  14.318   3.999  25.531 -0.1851  0.0655 -0.1407
62312W        W63176  13.149   0.052  14.122  0.1556  0.0341 -0.0739
62313W        W63177   1.573   9.219   8.107 -0.1741 -0.0807  0.0634
62314W        W63178  11.910  14.619   1.877  0.2449  0.0885 -0.1541
62315W        W63179   3.497  19.156  11.518  0.3071  0.0949  0.1142
62316W        W63180   5.018   8.642  20.943 -0.2264  0.1025 -0.2050
62317W        W63181  12.304  12.317  17.452 -0.0553 -0.1198 -0.0296
62318W        W63182  28.658  18.511   1.924 -0.2135  0.0566 -0.0819
62319W        W63183  11.036   4.637  24.592  0.0221  0.0279 -0.0840
62320W        W63184  25.891  25.132  16.220  0.0425  0.0346  0.0648
62321W        W63185  23.191  14.722  22.390  0.1790  0.4451  0.0767
62322W        W63186   9.515  18.345  27.558  0.1378 -0.0796  0.0264
62323W        W63187   7.757   8.691  21.828  0.1231  0.2911  0.0429
62324W        W63188  11.802  12.699   1.600 -0.0319  0.2634 -0.0268
62325W        W63189   0.217  17.932  20.279 -0.1136 -0.0465  0.0913
62326W        W63190  17.258   2.308   3.553  0.1777  0.2031 -0.1148
62327W        W63191  13.895  15.267  10.419  0.1085  0.1809 -0.1111
62328W        W63192   7.131   9.723  23.645 -0.0443 -0.1657  0.0188
62329W        W63193  19.310  16.010  14.317  0.0798 -0.2668  0.1485
62330W        W63194  19.308  19.489   7.822 -0.2615  0.2071 -0.1242
62331W        W63195   0.267   8.113  11.077 -0.0160  0.1051  0.1796
62332W        W63196   8.391   6.997   5.817 -0.1081 -0.0021 -0.0834
62333W        W63197  15.045  17.312   0.335 -0.1610  0.1208  0.1712
62334W        W63198   4.116  19.184  11.473 -0.0509  0.0287  0.0989
62335W        W63199  14.555  12.904  17.317 -0.0620  0.2113 -0.2813
62336W        W63200   1.959  14.220  20.896  0.1501  0.0353  0.1621
62337W        W63201  25.606  24.545   4.188 -0.2449  0.1288 -0.2522
62338W        W63202  15.023   1.408   2.561  0.1313 -0.0180  0.0339
62339W        W63203  10.798  28.042  11.174 -0.0454  0.1763 -0.2998
62340W        W63204  26.495   9.158  22.337 -0.3224 -0.1667 -0.2913
62341W        W63205  11.680  15.831   9.502 -0.1047  0.0915 -0.2116
62342W        W63206  17.922   7.461   1.925 -0.0337  0.1784 -0.2159
62343W        W63207   4.969   8.886  15.559  0.0293  0.3690 -0.1527
62344W        W63208   2.684   3.481   7.953 -0.0369  0.3285  0.0696
62345W        W63209   6.418  11.375  23.007 -0.0164  0.0975 -0.1763
62346W        W63210   2.867   5.939  12.741 -0.0689 -0.0270 -0.2259
62347W        W63211  25.587  23.223   9.834 -0.2837 -0.0967  0.0531
62348W        W63212  22.453  17.216  12.352 -0.0542  0.0980 -0.0387
62349W        W63213  15.858  15.205  14.179  0.3266 -0.0906  0.0633
62350W        W63214  16.395  10.886   8.345  0.0154 -0.1055  0.3630
62351W        W63215  13.022  24.382  21.583  0.0585 -0.3673  0.1466
62352W        W63216  18.017  20.661  27.755 -0.1729  0.1527 -0.3022
62353W        W63217  28.568  20.590   1.030 -0.0102 -0.0611 -0.1565
62354W        W63218   7.678  21.062  12.782  0.0508 -0.2091 -0.2020
62355W        W63219  28.625   6.672  10.430 -0.0377  0.1292  0.0454
62356W        W63220  12.378  10.977  28.207  0.0656 -0.2331 -0.2054
62357W        W63221   2.215  17.756  24.049  0.1154  0.0898  0.2169
62358W        W63222  13.470  10.395  24.095 -0.3522  0.3099  0.2083
62359W        W63223   6.524  18.803  10.987 -0.1449 -0.2340 -0.2324
62360W        W63224  13.218   3.860   1.373 -0.1489  0.1257 -0.0994
62361W        W63225  10.431   8.504  14.171 -0.2433  0.0126  0.0551
62362W        W63226   0.091  10.818  18.959  0.1348 -0.2358 -0.1887
62363W        W63227  17.899  11.776  26.300  0.0161  0.0114 -0.2688
62364W        W63228   2.801   2.072   6.741 -0.1069 -0.0022 -0.0813
62365W        W63229  17.291   6.777  13.334  0.4190  0.0687 -0.4685
62366W        W63230   2.791  18.888   9.949  0.0463  0.0168 -0.0264
62367W        W63231  13.288  12.288   8.598 -0.2345 -0.2027  0.3211
62368W        W63232  20.745  17.565   8.554  0.1486 -0.4489 -0.3336
62369W        W63233  23.374  18.748  27.416  0.0296  0.1939 -0.1214
62370W        W63234   8.967   0.602   9.129  0.2670 -0.2618  0.1110
62371W        W63235  25.762  10.200  27.530  0.2455 -0.0454 -0.0423
62372W        W63236  28.897  11.864  24.268  0.3556  0.3365 -0.1783
62373W        W63237  22.935  11.326   9.080  0.1028  0.1434 -0.0248
62374W        W63238   2.762  19.154   5.480 -0.1056  0.1989  0.1967
62375W        W63239   0.684  15.281  12.183  0.0426 -0.1454  0.2382
62376W        W63240  22.441   7.950   1.896  0.1061 -0.0110  0.1020
62377W        W63241  10.001  20.489  24.878  0.0663  0.1940  0.0355
62378W        W63242   0.138   3.465  19.450 -0.1419 -0.2203 -0.2412
62379W        W63243  11.708  14.594  13.550 -0.1716 -0.1901 -0.4396
62380W        W63244   6.185  17.957  10.841  0.0347 -0.2960 -0.0160
62381W        W63245   8.149  16.838  27.785 -0.3083 -0.0046 -0.1824
62382W        W63246   5.953  23.407  27.742 -0.0462 -0.0348  0.4589
62383W        W63247  22.967   4.164  19.301 -0.1546  0.0259 -0.0280
62384W        W63248  12.203   3.841  23.901 -0.2127  0.2677  0.3815
62385W        W63249  15.481   7.878   3.411 -0.1793 -0.0705  0.0474
62386W        W63250  15.511  16.076  16.938 -0.1901  0.1580  0.0719
62387W        W63251  12.279  27.592  20.594  0.5158 -0.0183 -0.1092
62388W        W63252   9.808  28.236  12.373 -0.0323 -0.1317  0.3545
62389W        W63253  28.169  14.179  16.118  0.0322 -0.0364  0.3506
62390W        W63254   9.643  14.110  12.908  0.0481 -0.0153  0.2482
62391W        W63255  20.115  10.414  19.676  0.0676  0.0248  0.0362
62392W        W63256  11.931  12.119   7.439  0.1344  0.0985  0.0421
62393W        W63257   6.559  12.217  13.732  0.0447 -0.0726 -0.1324
62394W        W63258  22.614  16.462  27.142 -0.1743  0.0251 -0.1021
62395W        W63259   9.380   2.072  28.846 -0.0242 -0.1018  0.3390
62396W        W63260  23.614  10.312  15.265  0.3679  0.0803 -0.1059
62397W        W63261  23.325  27.366  11.918  0.0313  0.1734  0.1638
62398W        W63262   3.762  16.891   5.103 -0.2986 -0.2197  0.0467
62399W        W63263   4.962  11.557   3.464  0.0888  0.0339  0.1434
62400W        W63264   7.327  21.700  11.896 -0.3948 -0.0377  0.1011
62401W        W63265   1.508  15.505   7.336 -0.0019  0.2259 -0.2042
62402W        W63266   9.910  11.725   4.725 -0.3079  0.2637  0.2333
62403W        W63267   7.602  14.273  19.306  0.1363 -0.1002 -0.1650
62404W        W63268  13.753  27.244  22.161  0.2389  0.0875  0.0404
62405W        W63269  22.226  25.471   0.763 -0.2782 -0.1794  0.2244
62406W        W63270  16.425  11.968  16.821 -0.1533 -0.1942  0.1996
62407W        W63271  23.046  11.190  25.129  0.1056 -0.0293 -0.1714
62408W        W63272  20.847   6.573  22.887 -0.2264 -0.3449 -0.0056
62409W        W63273   3.023   5.910   5.144 -0.2647 -0.2409 -0.3355
62410W        W63274  25.887   6.900  15.527  0.1333  0.3029  0.3342
62411W        W63275  27.786   2.805  28.151  0.0583  0.1197 -0.3267
62412W        W63276  27.155   8.295  25.399  0.1049 -0.3328 -0.1544
62413W        W63277   5.149  13.889   7.483 -0.2639 -0.1385 -0.1211
62414W        W63278  11.076   8.045  17.062  0.1028 -0.1948 -0.0923
62415W        W63279   0.118  19.913   1.747 -0.0565  0.0809  0.0612
62416W        W63280  10.089  12.305  19.494  0.1346  0.1044 -0.1679
62417W        W63281   9.552   8.865  16.966 -0.0518  0.1377  0.1760
62418W        W63282  25.354  15.376  10.544  0.0680 -0.0692 -0.0802
62419W        W63283  10.236  21.317   4.754 -0.1467 -0.1238 -0.0611
62420W        W63284  10.811   6.596  10.519  0.0737  0.0130 -0.0033
62421W        W63285  16.158  11.319  21.738  0.1768  0.2007  0.0293
62422W        W63286   4.301   3.081  17.571 -0.0059  0.0768  0.1567
62423W        W63287   5.681  22.921  17.908 -0.0142  0.0183  0.1375
62424W        W63288   5.696  10.223  20.723 -0.2461  0.0196  0.0967
62425W        W63289   8.946  18.774  22.367 -0.1219 -0.0360 -0.0117
62426W        W63290   2.905  20.467   3.866 -0.1672 -0.1412 -0.0487
62427W        W63291  23.264  18.665   6.362  0.0477 -0.0652 -0.0641
62428W        W63292   7.105  10.513  27.715  0.0518 -0.0523 -0.2756
62429W        W63293   9.471  13.936  17.434 -0.0928 -0.0711  0.3775
62430W        W63294  21.363  15.907  21.884  0.1470  0.0450 -0.2878
62431W        W63295  16.251  26.094   3.544  0.0474 -0.4926  0.2260
62432W        W63296  21.825   3.786   9.320  0.0219  0.1966  0.3186
62433W        W63297  28.312   9.500   3.630 -0.0767 -0.1565 -0.1073
62434W        W63298  17.869  22.006  15.996  0.3797 -0.2774  0.0465
62435W        W63299   3.581  28.571  19.173  0.0244 -0.1454 -0.0810
62436W        W63300  12.469  15.006  15.415  0.1961  0.1211  0.0976
62437W        W63301  24.947  12.330  22.528  0.2082  0.0496 -0.2089
62438W        W63302  12.178  13.680  13.470 -0.0035 -0.3028  0.0216
62439W        W63303   0.321   2.686  16.921  0.4016 -0.3033 -0.2049
62440W        W63304   3.815  21.637   3.535 -0.0581 -0.1373 -0.0543
62441W        W63305   1.594  23.521  18.770  0.0197 -0.0756  0.0947
62442W        W63306   7.261  11.530  20.513  0.0109 -0.1964 -0.2265
62443W        W63307  27.440  21.014  17.347  0.3884 -0.0580  0.2421
62444W        W63308   8.382   5.468  15.063 -0.2163 -0.0168 -0.1606
62445W        W63309   3.149   3.484  10.475 -0.0069  0.1090 -0.1277
62446W        W63310  25.750   7.319  17.203  0.1293  0.0872 -0.1988
62447W        W63311   3.944  21.141  15.762  0.1264 -0.1376 -0.2038
62448W        W63312  27.431   6.990   3.618 -0.1364  0.1007  0.2096
62449W        W63313  25.384  25.517  22.450  0.1703 -0.0629 -0.2580
62450W        W63314  18.623   7.171  11.964 -0.2047  0.0643  0.1654
62451W        W63315  16.375  16.038  15.802 -0.0425 -0.1187 -0.0261
62452W        W63316  19.056  17.972  20.819  0.3404  0.0890 -0.1605
62453W        W63317  23.284  22.629  20.046 -0.0441  0.0635 -0.1104
62454W        W63318  14.859  12.552  12.593  0.1678 -0.0065  0.1406
62455W        W63319  20.367  10.134  19.988 -0.2689  0.1430  0.2217
62456W        W63320  20.152  13.976  16.066 -0.1012 -0.1827  0.1158
62457W        W63321  20.763   1.523  14.990  0.2742  0.1915  0.1386
62458W        W63322   3.397  15.401   3.784  0.0901 -0.1152  0.2471
62459W        W63323   4.987  14.663  13.678  0.0313  0.2882  0.2541
62460W        W63324  22.923   7.849  27.681  0.1672 -0.0071 -0.3768
62461W        W63325  21.526  18.829  25.461  0.4236  0.0842 -0.1884
62462W        W63326  14.737  27.098  17.957 -0.0359 -0.1663  0.0759
62463W        W63327  10.072  18.484  18.123  0.1725  0.0163 -0.0799
62464W        W63328  11.081   5.547  22.437  0.0120  0.0447  0.1522
62465W        W63329  21.499  26.082  10.106 -0.0457  0.0787  0.0975
62466W        W63330   6.611   3.937  21.671 -0.1140  0.0411 -0.3192
62467W        W63331   7.714  17.080   6.044  0.0523 -0.1074  0.2994
62468W        W63332  17.317   6.615  15.227 -0.0981  0.2084  0.2698
62469W        W63333  22.552   7.979  15.011 -0.0782  0.0209 -0.0181
62470W        W63334   8.253   5.413  21.520 -0.0622  0.1568 -0.1878
62471W        W63335  14.557  19.392  10.533  0.2395 -0.0167  0.0701
62472W        W63336  14.907  12.780   0.590 -0.4145 -0.3952 -0.1837
62473W        W63337   4.793  22.899   3.075 -0.1168 -0.2056  0.0798
62474W        W63338   7.400  10.525  11.207 -0.1205  0.1636 -0.1616
62475W        W63339  19.915  24.532  11.066  0.0445  0.1173  0.0891
62476W        W63340  20.209   2.138  27.561 -0.1384 -0.2422 -0.1332
62477W        W63341  26.106  20.084   7.770 -0.0521 -0.0073  0.1383
62478W        W63342  18.762  23.492  14.739 -0.1644 -0.0035 -0.1418
62479W        W63343   4.446  25.771  21.320  0.0770 -0.3422 -0.3041
62480W        W63344   6.600  15.803  23.830  0.0121 -0.2041 -0.1266
62481W        W63345   4.828   4.545  15.620  0.3113 -0.0239 -0.4081
62482W        W63346  10.803   4.586  16.271 -0.1806 -0.2537 -0.0483
62483W        W63347  21.656   1.496   5.176  0.4068 -0.2419 -0.0529
62484W        W63348   4.598   8.282  15.117  0.1787  0.0618  0.0358
62485W        W63349  20.608   9.510  20.465 -0.1015  0.1020 -0.2720
62486W        W63350  17.231   9.035   1.262  0.0090  0.2482 -0.0715
62487W        W63351  24.851   5.776   2.483  0.4201  0.1243  0.0828
62488W        W63352   2.499   3.143  27.993  0.0064 -0.0111 -0.1189
62489W        W63353   4.366  23.319  25.670 -0.0995  0.0412 -0.2424
62490W        W63354   0.708   6.688  21.922 -0.2762 -0.1866  0.0800
62491W        W63355  17.973   9.333  25.228 -0.2056 -0.1134 -0.2123
62492W        W63356   9.724  28.535  25.252 -0.2460  0.2471  0.3965
62493W        W63357   6.439   8.818   7.388  0.1555 -0.3856  0.0429
62494W        W63358  26.221  28.399  16.533  0.1949  0.1720 -0.0804
62495W        W63359   8.771   7.583   3.763  0.0075 -0.0298  0.3893
62496W        W63360   8.430  24.184   1.968  0.1942  0.1341 -0.0018
62497W        W63361  21.976  14.578   4.844 -0.3401 -0.1780  0.0201
62498W        W63362   8.962  14.616  19.689  0.3831  0.1809  0.0668
62499W        W63363   3.761   9.636   8.802 -0.0470  0.0281 -0.2752
62500W        W63364   4.037  20.091  12.962 -0.0969 -0.0631 -0.0347
62501W        W63365  18.462  22.106  14.251  0.0632 -0.3931  0.0310
62502W        W63366   4.854  27.892  15.415  0.1034 -0.0213  0.0828
62503W        W63367  23.539   1.261  22.692 -0.3197 -0.0915 -0.0417
62504W        W63368  17.492  22.072  17.628  0.0896 -0.0153  0.1562
62505W        W63369  15.603  10.516  16.660 -0.1846 -0.0838  0.0482
62506W        W63370  12.765  14.326  14.207 -0.1963  0.2224  0.0432
62507W        W63371  10.474   7.241  26.224 -0.1113  0.0871  0.2178
62508W        W63372  10.794  18.776  19.990 -0.1995  0.2100 -0.0799
62509W        W63373  14.778  22.369  18.608  0.3129  0.0826 -0.2226
62510W        W63374   0.535   0.505  10.870 -0.3812  0.1354  0.0032
62511W        W63375  19.012   3.095  13.437  0.2114  0.4935  0.2318
62512W        W63376  26.327  14.080  12.098 -0.2376 -0.3190 -0.0285
62513W        W63377   1.697  10.934  23.808  0.0764  0.0722 -0.0139
62514W        W63378  11.858   9.741  17.752  0.0161  0.2261  0.0030
62515W        W63379  26.553   4.936  23.444 -0.0068 -0.3317 -0.2460
62516W        W63380   7.142  15.588  28.064 -0.1303 -0.0120 -0.1490
62517W        W63381   1.667  18.639   7.212 -0.2418 -0.0570 -0.1290
62518W        W63382  10.782  16.352  18.782 -0.0456  0.1054 -0.0225
62519W        W63383   6.348  16.163  23.483  0.1692 -0.1048 -0.0095
62520W        W63384  12.151  24.963  24.018 -0.1408 -0.1433  0.0665
62521W        W63385  28.099   7.348  19.990 -0.2730  0.1278  0.0761
62522W        W63386  19.840   1.677  18.096  0.1354  0.0281  0.3077
62523W        W63387  12.331  17.853  27.345 -0.2339 -0.1300  0.2572
62524W        W63388  28.470  14.095  25.778 -0.1111 -0.2088 -0.0673
62525W        W63389  18.052  16.579  28.800  0.2011 -0.0441  0.0065
62526W        W63390  28.224   6.028  27.438  0.0304 -0.0767 -0.0766
62527W        W63391  20.640  23.042   5.067 -0.0900  0.2873  0.2267
62528W        W63392   7.348  10.941  26.099  0.2474 -0.1457 -0.1273
62529W        W63393   9.657   4.362  15.931  0.1465  0.1897  0.4026
62530W        W63394   2.393   1.486  16.246  0.0253  0.0932 -0.4820
62531W        W63395   9.932   2.998  18.319 -0.0693  0.2600  0.0307
62532W        W63396  12.682  11.519  25.694 -0.2498 -0.1438  0.2229
62533W        W63397  23.413  17.514   0.133  0.2437  0.0500  0.3161
62534W        W63398  19.949  13.192  12.206  0.2763  0.0470  0.0780
62535W        W63399  10.947   1.373  15.606 -0.0158 -0.0081 -0.1805
62536W        W63400   8.533  19.013  16.467  0.0228 -0.1552 -0.1016
62537W        W63401  24.116   1.201  16.267  0.1060 -0.2519 -0.0121
62538W        W63402  20.552  13.401  17.265  0.0729  0.0091  0.1884
62539W        W63403   6.480  11.299  20.893 -0.1967  0.3489  0.1456
62540W        W63404  21.640  19.584  21.302  0.0937 -0.3747 -0.1658
62541W        W63405  21.357  17.386  10.751  0.2655  0.3062 -0.1336
62542W        W63406   1.565   5.211  23.779  0.0325 -0.0362  0.0590
62543W        W63407  16.731  12.088  29.089 -0.4319 -0.3705 -0.1098
62544W        W63408  14.692   8.159   3.186 -0.1091 -0.0791  0.1370
62545W        W63409  16.057  11.788  15.547  0.1293  0.0528  0.0070
62546W        W63410  22.178  19.888   3.618  0.1321 -0.1917 -0.1387
62547W        W63411   7.013   0.631  12.553  0.2394  0.0908 -0.3015
62548W        W63412   0.005   6.308   5.119  0.3207  0.0247 -0.1069
62549W        W63413   4.578  17.884   3.117 -0.1262 -0.0267 -0.2028
62550W        W63414  12.813   4.881  18.976  0.0046 -0.0947 -0.3436
62551W        W63415  22.736  28.110   9.193  0.3874 -0.0650  0.1122
62552W        W63416  21.134   5.004  25.933 -0.0202 -0.0830 -0.1421
62553W        W63417  28.907  23.664  11.268 -0.0329  0.0502  0.2364
62554W        W63418  16.292   9.994   2.019  0.2015 -0.4140 -0.0859
62555W        W63419   1.572   8.379  22.179  0.0580  0.0947 -0.0352
62556W        W63420  11.281  18.800  14.881 -0.1514  0.2952 -0.2429
62557W        W63421  22.607  13.369  14.295  0.0966 -0.1024 -0.5552
62558W        W63422  22.691   8.094  10.661 -0.0662 -0.2054 -0.1452
62559W        W63423   6.644  26.833   0.662  0.3074 -0.0508  0.2779
62560W        W63424  27.038  18.405  23.666 -0.0698  0.0593 -0.1971
62561W        W63425  24.392  16.945  16.314  0.1598  0.2834 -0.1633
62562W        W63426  11.092  17.751  14.331 -0.0942  0.1951  0.3341
62563W        W63427   2.992  21.370   8.189 -0.0390 -0.0822  0.2583
62564W        W63428  27.362  15.463   0.783  0.2899 -0.1528  0.0165
62565W        W63429  15.898  16.072   3.242  0.2746 -0.1065  0.0421
62566W        W63430   0.047   2.255  13.651  0.1572 -0.1592 -0.1892
62567W        W63431   3.498   7.933   2.751  0.1041  0.2795  0.2053
62568W        W63432   2.988  14.715  24.061  0.1553 -0.0405 -0.2472
62569W        W63433  23.269   2.643   0.113 -0.1151 -0.0291  0.1941
62570W        W63434  13.052  10.608  15.510  0.2460  0.1454 -0.3379
62571W        W63435  25.954  16.304  15.922 -0.0422  0.1927 -0.0399
62572W        W63436   9.379  18.296  19.622 -0.1098 -0.0140  0.0816
62573W        W63437  11.687  23.572   0.392 -0.3215 -0.0068 -0.6116
62574W        W63438  12.163   0.506   3.301 -0.1476  0.0795 -0.3206
62575W        W63439  17.808  20.748   9.288 -0.1384  0.1019 -0.3897
62576W        W63440   9.628   5.245   2.445 -0.1551 -0.1725  0.1611
62577W        W63441   7.459  11.667  28.465  0.1095  0.1650  0.0157
62578W        W63442  23.875  14.640  13.802 -0.0553  0.1122 -0.0156
62579W        W63443   6.046  12.528   0.530  0.1767 -0.3350  0.0446
62580W        W63444   5.651  23.122  13.383 -0.4598 -0.2995 -0.0809
62581W        W63445  18.159  12.608  14.518 -0.0308 -0.0528 -0.0359
62582W        W63446  24.600  14.895  16.367 -0.0854 -0.1710 -0.2055
62583W        W63447   3.369  15.583  18.289 -0.1301 -0.1661 -0.1512
62584W        W63448   7.246   4.569   2.447  0.0626  0.0150 -0.4435
62585W        W63449   6.861  19.727  26.108 -0.1471  0.0806  0.3305
62586W        W63450  21.126  21.245  20.582 -0.3794 -0.1126  0.3946
62587W        W63451  18.845  10.154  29.108 -0.1459  0.0173  0.2241
62588W        W63452   2.327  21.906  19.984  0.1604  0.3991  0.2274
62589W        W63453   2.178  25.362  20.446 -0.1348  0.2191  0.0138
62590W        W63454   2.004  27.751  20.711 -0.0928 -0.1436 -0.2693
62591W        W63455  14.186   7.431   4.708 -0.3617 -0.0653 -0.0588
62592W        W63456   2.642   9.499   3.075  0.1792  0.1336 -0.0794
62593W        W63457   1.382  14.040   8.041 -0.0089  0.0458  0.2252
62594W        W63458   1.610   9.896   6.415 -0.1269 -0.0406 -0.1215
62595W        W63459  12.420  25.451   6.859  0.0017 -0.1658 -0.3543
62596W        W63460  16.580  17.954  16.726  0.0390  0.0556  0.0992
62597W        W63461  20.556  14.294  15.412 -0.0530  0.2530 -0.1532
62598W        W63462  28.617   6.238  26.043 -0.1975 -0.1681  0.0784
62599W        W63463   5.100   3.252   8.163 -0.1320  0.1267 -0.0769
62600W        W63464  19.056  17.592   9.520 -0.0842 -0.1296  0.1149
62601W        W63465  23.048  28.867  11.971 -0.1849  0.1533  0.1753
62602W        W63466   8.559  23.791  14.005 -0.0754 -0.3292  0.2086
62603W        W63467  10.566  13.729  23.493  0.1317  0.0232  0.0497
62604W        W63468   9.035  19.125  16.849  0.3834 -0.2722  0.0741
62605W        W63469   2.954   5.455  11.966 -0.3884  0.1879 -0.0125
62606W        W63470  27.122   1.678  16.843  0.1939  0.0014  0.0078
62607W        W63471   8.485   8.435   5.299  0.1159  0.1583 -0.0503
62608W        W63472   9.056   8.719  18.352  0.1347 -0.1369  0.2332
62609W        W63473   8.118  28.092  24.236 -0.2827  0.0728 -0.1101
62610W        W63474  24.839  15.570   1.574 -0.0820 -0.1596  0.0267
62611W        W63475  28.942  11.801  17.823  0.1548  0.2053  0.1091
62612W        W63476  14.932  24.115  14.974  0.4821  0.0260 -0.2208
62613W        W63477  11.411  11.860  24.667  0.1066  0.1165 -0.0945
62614W        W63478   5.988  17.293  10.586 -0.1971  0.1064  0.0438
62615W        W63479  11.865   6.642   2.048  0.3704  0.1360 -0.3932
62616W        W63480  21.686  13.347  16.553  0.1084  0.0119  0.1146
62617W        W63481   5.834   1.269  12.758 -0.1720  0.1458 -0.1207
62618W        W63482  12.075   0.901  23.080 -0.2124 -0.0248 -0.2590
62619W        W63483  12.420   7.323   0.755  0.2219  0.2235  0.5208
62620W        W63484  28.395   7.999  14.147  0.1401 -0.0182 -0.2069
62621W        W63485  16.575   5.101  20.793 -0.0092  0.2599 -0.4328
62622W        W63486  13.383  13.977   1.524  0.0284  0.1034  0.1800
62623W        W63487   9.870  23.483  28.779  0.2607  0.1093 -0.0611
62624W        W63488   4.014   8.074   0.598 -0.0746 -0.2068  0.3778
62625W        W63489  27.604  16.710   8.877  0.1178 -0.0983  0.3958
62626W        W63490   9.832  14.356  17.019  0.0885 -0.1820  0.3902
62627W        W63491   8.129  14.702  24.708 -0.0598  0.3216  0.1777
62628W        W63492  11.577  14.498  24.678  0.2048 -0.1568 -0.3665
62629W        W63493  26.057  11.615  20.256 -0.0330  0.0998  0.0247
62630W        W63494  13.464  11.678  23.958 -0.0191  0.1445  0.2137
62631W        W63495   3.263  14.555  21.795  0.1557 -0.0616 -0.1747
62632W        W63496  11.578  20.359  10.608 -0.0973 -0.3920 -0.3727
62633W        W63497  19.170   8.937  25.127 -0.0835  0.0093  0.0204
62634W        W63498  28.772   8.948  17.431 -0.1161  0.1186 -0.0148
62635W        W63499   8.258  17.406  11.714  0.0791 -0.0402 -0.0193
62636W        W63500  23.311  12.510  19.852 -0.0713  0.0162 -0.1962
62637W        W63501  21.209  11.077  23.538 -0.0354  0.0901 -0.0247
62638W        W63502  20.664  19.220  17.353 -0.1634 -0.0519  0.2356
62639W        W63503  11.727   2.687   7.300  0.0493  0.1673  0.3146
62640W        W63504  22.364  21.122  23.408 -0.1028 -0.0273 -0.2432
62641W        W63505   2.622   8.880  12.195  0.3356  0.0316  0.3362
62642W        W63506  10.913   8.018  20.133  0.1242  0.1335  0.0820
62643W        W63507  24.389  29.084   4.667  0.3059 -0.0566 -0.0788
62644W        W63508  16.936  25.619  17.485  0.2267 -0.0486  0.2430
62645W        W63509  11.534  24.385  13.097 -0.1514 -0.2619 -0.1110
62646W        W63510  16.227  17.419  18.297 -0.0073 -0.1303 -0.0513
62647W        W63511  19.055   9.631  26.205 -0.2079 -0.2122 -0.0752
62648W        W63512   8.226  17.648  22.611 -0.3243 -0.1104 -0.1640
62649W        W63513   9.772  19.770  13.119 -0.1371 -0.0262  0.0947
62650W        W63514  10.792  15.000  11.681  0.2924 -0.1859  0.1519
62651W        W63515   8.572   8.203  22.042 -0.1217 -0.0072 -0.1236
62652W        W63516  25.659  26.351   6.913  0.1920 -0.0540  0.0831
62653W        W63517   7.933   8.496   0.939  0.0111  0.0574 -0.1110
62654W        W63518   5.989   1.095   8.397  0.0076 -0.3142 -0.0052
62655W        W63519  12.151   5.321  19.248  0.1314  0.0185  0.0183
62656W        W63520  16.317  12.206  13.064  0.1083  0.2845 -0.2256
62657W        W63521  18.565  16.046   2.136 -0.2607  0.0313 -0.1155
62658W        W63522   5.768   5.028   4.259 -0.2106 -0.2335 -0.1799
62659W        W63523  24.450  25.654  24.392  0.0863 -0.2190 -0.1308
62660W        W63524  23.947   2.826  12.714 -0.1715  0.2378 -0.1542
62661W        W63525  10.033  18.837  23.539 -0.2880  0.0288 -0.0425
62662W        W63526  19.868  16.454  26.623 -0.0863 -0.1643 -0.2276
62663W        W63527  20.228  21.314  28.831 -0.0099  0.1405 -0.2158
62664W        W63528  11.288  28.714   7.540  0.0226  0.0827 -0.0033
62665W        W63529  27.048   2.161   1.177  0.0879 -0.1388  0.0761
62666W        W63530  27.842  13.430  14.567 -0.0720 -0.0621 -0.3159
62667W        W63531   6.976  17.017  13.562  0.0544  0.1123 -0.2544
62668W        W63532   4.013  26.922   4.541 -0.0758 -0.1161 -0.1564
62669W        W63533  26.460   4.665  22.943  0.1333 -0.0762 -0.2072
62670W        W63534  17.073   3.670  25.442  0.1777 -0.2908  0.0827
62671W        W63535   9.450  22.769  11.583 -0.0014  0.0254  0.1124
62672W        W63536  13.276   2.060  20.491  0.1624  0.5448  0.0177
62673W        W63537  16.865  25.293  13.674  0.0371 -0.0082 -0.1544
62674W        W63538   9.776   6.543   8.408 -0.0678  0.1239  0.0090
62675W        W63539   6.997  16.523  11.763  0.2512  0.1410 -0.1099
62676W        W63540  19.316   5.960  27.594 -0.2429 -0.0072  0.1664
62677W        W63541   3.192  24.984  23.049 -0.1305 -0.0187  0.0768
62678W        W63542  16.089   4.483  10.941  0.0828 -0.0440  0.0525
62679W        W63543   8.233   5.326   6.986 -0.1986  0.2803  0.1527
62680W        W63544  10.444  14.061   1.356 -0.2996  0.3155  0.0013
62681W        W63545  25.431  16.161   9.118  0.2051  0.1033 -0.0255
62682W        W63546  15.551   7.660  13.315  0.1023  0.0257 -0.1579
62683W        W63547  11.003  15.621   0.744  0.3762  0.1045  0.2306
62684W        W63548  23.625   7.665  14.051 -0.2070  0.1117 -0.1404
62685W        W63549   8.916  19.893  15.300 -0.0659  0.1815  0.2762
62686W        W63550   4.398  12.798  19.760 -0.0835  0.2475  0.0679
62687W        W63551  13.851   7.567  16.113  0.0248 -0.1094  0.0689
62688W        W63552   8.232   4.799  10.674 -0.0091  0.0349  0.0757
62689W        W63553   9.785  24.972  25.434  0.1171 -0.2029 -0.0855
62690W        W63554   6.230  11.867  27.827 -0.0224  0.1825  0.1182
62691W        W63555  12.469   8.580  18.932 -0.0821  0.0063 -0.0366
62692W        W63556  10.165   1.299  12.644 -0.1421  0.2260 -0.0504
62693W        W63557  18.860  13.990  25.394 -0.1890 -0.0620 -0.3810
62694W        W63558  19.905   2.745  23.298  0.1658  0.0073  0.1200
62695W        W63559   8.164  20.014  21.756 -0.5675  0.2241 -0.1512
62696W        W63560  13.364  15.190  17.296  0.1113  0.0275 -0.2541
62697W        W63561  26.524   3.860   2.435 -0.2154 -0.0081 -0.0217
62698W        W63562   5.104   8.107  20.145  0.0236  0.1524 -0.1218
62699W        W63563  12.121  13.624  16.074  0.0093 -0.0839 -0.1568
62700W        W63564   6.571  14.548  20.625 -0.1051 -0.2765 -0.4119
62701W        W63565   0.052   1.725   8.392  0.0379  0.0411  0.2452
62702W        W63566   4.567  17.847  14.960  0.0781  0.2017  0.2378
62703W        W63567   8.375   8.719   7.033  0.1529 -0.1700 -0.3073
62704W        W63568  10.404  11.340  20.602 -0.4333 -0.0128 -0.0714
62705W        W63569  21.488   2.268  13.128  0.0062  0.3437 -0.1654
62706W        W63570   3.260  22.576  17.976 -0.0218 -0.1850  0.1358
62707W        W63571  26.334  13.288  26.681 -0.0587  0.0522  0.1855
62708W        W63572  24.002  27.663  10.695  0.3141  0.3116 -0.2552
62709W        W63573  16.127   6.407  27.018  0.3185 -0.0490 -0.0418
62710W        W63574  12.991  23.765  16.544  0.1171  0.2888  0.0435
62711W        W63575  17.834   4.872   7.894 -0.2220 -0.0504 -0.1584
62712W        W63576   1.438  28.711   1.569 -0.1094  0.0843  0.2720
62713W        W63577  15.644  13.097  25.539 -0.1878 -0.1070 -0.1537
62714W        W63578  16.925  25.838   5.814  0.3157  0.4617 -0.4784
62715W        W63579  21.610   8.102  23.514 -0.0313 -0.0278  0.0765
62716W        W63580  16.748   9.375  13.319 -0.1693 -0.2941 -0.1867
62717W        W63581  12.214   6.032  10.925 -0.1869  0.0456 -0.2092
62718W        W63582  16.331  22.036   9.148 -0.1652 -0.2631 -0.0250
62719W        W63583  22.976   3.712   4.306 -0.2983 -0.0439 -0.1550
62720W        W63584  19.617  17.545  23.057 -0.2812 -0.0634  0.2341
62721W        W63585  12.249  25.784   0.051 -0.0237 -0.1234 -0.1390
62722W        W63586  13.054   2.122  20.971  0.0076  0.0383  0.1520
62723W        W63587   2.789  26.491  24.492 -0.1667 -0.0254 -0.0992
62724W        W63588  15.025   7.277   4.256  0.0023  0.1500 -0.1639
62725W        W63589  15.586  14.841   4.041 -0.1899 -0.2579  0.0244
62726W        W63590   5.691  19.488   6.553 -0.1734  0.1839 -0.0786
62727W        W63591  27.047  20.494  24.653  0.1807  0.4641 -0.1918
62728W        W63592   0.147  22.393  25.529  0.1667  0.2261  0.1323
62729W        W63593   9.516  10.715  19.022  0.0677  0.0359 -0.5404
62730W        W63594  20.867   9.454   2.110  0.0703 -0.1991  0.0776
62731W        W63595  24.440  11.549  21.228  0.1335  0.3317 -0.2052
62732W        W63596   0.960   2.086  25.595 -0.0781  0.0216  0.1319
62733W        W63597  14.865  14.021  14.340 -0.1589  0.3416 -0.0397
62734W        W63598   0.441  22.050  10.993  0.0815 -0.0396 -0.5287
62735W        W63599   3.743  20.427  18.581 -0.0052  0.0080 -0.2618
62736W        W63600   2.910  15.934  10.306 -0.1106  0.3250 -0.1040
62737W        W63601   0.917   2.491  16.654  0.1827  0.3889  0.1575
62738W        W63602   9.047   9.473  20.735  0.1329  0.3731  0.0903
62739W        W63603  16.743  15.856   9.432 -0.2302  0.0832  0.1726
62740W        W63604  17.229   6.985   3.789  0.1441 -0.2455 -0.3551
62741W        W63605  16.332  19.113   2.088 -0.0857  0.0904  0.0552
62742W        W63606   0.119   7.042   1.600 -0.0759  0.0234  0.2388
62743W        W63607  17.075   3.604  16.872  0.1849 -0.0270 -0.2567
62744W        W63608  23.781  25.373   9.498 -0.5318  0.0946 -0.3047
62745W        W63609   9.641  16.717   4.433 -0.0670  0.0882 -0.1558
62746W        W63610  19.285  27.684  17.207  0.1094 -0.1521 -0.0051
62747W        W63611  15.641  24.885  15.741 -0.2712 -0.0779  0.1542
62748W        W63612   2.613   5.641   7.520  0.0204 -0.2169  0.0040
62749W        W63613  14.875  26.337  15.091 -0.4107  0.1933  0.0878
62750W        W63614  21.374  19.381   7.319 -0.1000  0.4454  0.3297
62751W        W63615   5.345  23.398  13.041 -0.0888 -0.1501  0.1082
62752W        W63616  15.231  12.747   7.280  0.1478 -0.4839  0.1039
62753W        W63617  18.617  10.428   0.913  0.3355  0.0689  0.1182
62754W        W63618  18.455  20.480   9.204  0.0379 -0.0416  0.1802
62755W        W63619   0.522   4.476  11.773 -0.0832 -0.3278 -0.1841
62756W        W63620  28.755  19.238  12.806  0.0934 -0.1962 -0.1228
62757W        W63621  26.507  26.359  20.818 -0.2072 -0.1544  0.1792
62758W        W63622  13.480   0.544  18.610  0.2204  0.1571 -0.2269
62759W        W63623   8.632  18.759  23.164 -0.1196 -0.1025 -0.3674
62760W        W63624  14.008  24.392  21.008  0.1020  0.0588 -0.0882
62761W        W63625  25.943  17.585  24.569 -0.3482 -0.0601 -0.4303
62762W        W63626   3.595  11.056  19.275 -0.0398 -0.2934  0.1796
62763W        W63627  23.471  28.147   4.385  0.0394  0.0106 -0.0628
62764W        W63628  22.233  17.332   7.002  0.1554  0.1297 -0.1798
62765W        W63629  22.065   0.044  25.197  0.2331 -0.0299 -0.1370
62766W        W63630   4.580   2.681   2.696 -0.1773  0.2116  0.1300
62767W        W63631  23.391  10.880  14.477 -0.0628 -0.1209  0.1143
62768W        W63632   8.866  15.527  13.651  0.0298 -0.0993  0.0953
62769W        W63633  27.989   6.416   7.410  0.0409 -0.1087 -0.1847
62770W        W63634  11.907  28.328  12.774  0.3637  0.2652  0.0615
62771W        W63635  13.149  13.751  15.246 -0.1691  0.0721 -0.0596
62772W        W63636   6.801   0.298  10.964  0.1902  0.1515 -0.1149
62773W        W63637  23.706  18.717   8.002  0.1005  0.0560 -0.0131
62774W        W63638  11.421  15.933   8.910  0.0279 -0.0187 -0.0680
62775W        W63639  29.026  18.236  19.401 -0.0604  0.1710  0.1524
62776W        W63640  17.252  15.587   7.785 -0.0822 -0.1721  0.1775
62777W        W63641  11.156  14.995  12.438 -0.2726 -0.0127  0.3150
62778W        W63642   7.532  12.757   4.272  0.2298 -0.1630 -0.0232
62779W        W63643   2.551  22.629  14.522  0.2797  0.1182 -0.1834
62780W        W63644  27.608  27.909  16.208 -0.1762  0.0891 -0.1032
62781W        W63645  23.813  17.504  15.968  0.0549  0.2962  0.1359
62782W        W63646  15.224  17.896  23.058  0.1017  0.0356  0.2829
62783W        W63647  13.122   7.550  22.530  0.1072 -0.0267 -0.2314
62784W        W63648   9.892   4.293   2.747  0.0649 -0.3281 -0.1083
62785W        W63649   3.391  23.684  24.288  0.0547  0.0430 -0.0980
62786W        W63650   6.455  12.617  14.991 -0.1670  0.1872 -0.0267
62787W        W63651  26.461  18.526   9.238 -0.2229  0.1747 -0.0549
62788W        W63652  12.626  14.768  12.482  0.1612 -0.0628  0.0524
62789W        W63653  19.063   5.595   8.225  0.1769 -0.2388 -0.0367
62790W        W63654  10.721  15.610  23.119 -0.0066  0.2103 -0.0480
62791W        W63655   9.096  14.964   8.287  0.0017 -0.2280  0.3700
62792W        W63656  23.651  16.647   9.062 -0.0554 -0.2301 -0.2159
62793W        W63657  25.005   9.181  12.989 -0.1757 -0.0739 -0.0307
62794W        W63658  25.165  25.106  10.988  0.2113  0.0226  0.1881
62795W        W63659  15.802  17.243  28.534  0.0901  0.1063  0.1687
62796W        W63660   4.357  16.070   0.512 -0.1216 -0.1100  0.2667
62797W        W63661   4.538  16.766   9.545 -0.0091  0.2126 -0.3058
62798W        W63662  16.297  28.635  18.218 -0.3350  0.3673  0.3087
62799W        W63663  20.713   8.941  18.840  0.3578  0.0118 -0.1552
62800W        W63664  13.844  14.596   2.670 -0.2849  0.0589 -0.2815
62801W        W63665  21.161  20.534  29.143 -0.2462  0.0842 -0.1130
62802W        W63666   4.408  28.064  20.091 -0.0165  0.2361  0.0474
62803W        W63667  24.510  18.443  10.475  0.1999  0.2414  0.1687
62804W        W63668  15.966  11.233  15.429 -0.1301  0.0290  0.0910
62805W        W63669  11.627  27.644   8.342  0.0535 -0.2268  0.2526
62806W        W63670   1.547  15.579  25.645  0.3574 -0.4994 -0.2620
62807W        W63671   0.185  13.540  17.048  0.0235  0.3660  0.0941
62808W        W63672   3.496  19.966  21.339  0.3340  0.1688 -0.2230
62809W        W63673  12.919  13.200  10.689  0.3858 -0.2395 -0.1681
62810W        W63674   5.077   8.945  18.032  0.0368 -0.0219  0.1272
62811W        W63675   5.180  27.186  14.393  0.3138  0.1543 -0.0414
62812W        W63676   7.964  11.679  14.957 -0.0800 -0.0162  0.0343
62813W        W63677  17.756  16.387  21.857  0.2056 -0.1253 -0.1151
62814W        W63678  11.079   4.048  12.742 -0.1100 -0.2522  0.2210
62815W        W63679  12.302  10.456  23.066 -0.1536 -0.1473  0.0043
62816W        W63680  15.475  18.422   2.423 -0.0100  0.2475 -0.0004
62817W        W63681  21.332  15.958  18.289 -0.0321  0.0772 -0.0275
62818W        W63682   4.669   3.975  16.689  0.3069  0.2284  0.2919
62819W        W63683  17.277  19.231  28.001 -0.1490 -0.0514 -0.1404
62820W        W63684  13.473  28.064  12.301  0.2502 -0.0460  0.1619
62821W        W63685  12.727  13.791  18.297  0.0232  0.0111 -0.0817
62822W        W63686  25.399  20.966   0.732  0.0556  0.0649  0.0718
62823W        W63687  18.216  18.884  14.137  0.2633 -0.3866  0.1239
62824W        W63688  20.089  14.148  22.423  0.0638  0.3040 -0.1143
62825W        W63689  11.320   9.678  24.664  0.1218 -0.1386 -0.0936
62826W        W63690   9.441  25.744  15.022  0.0205  0.2710  0.1255
62827W        W63691  17.672  28.122   4.712 -0.2343 -0.0334  0.0671
62828W        W63692  28.606  28.591  15.600  0.1412 -0.3048 -0.0616
62829W        W63693   6.359   8.609  21.430  0.2028  0.2882  0.4087
62830W        W63694  24.205  11.307  27.426 -0.0212 -0.1050  0.0186
62831W        W63695  11.280  27.851  25.683 -0.1077  0.2353  0.3025
62832W        W63696  18.614  24.716  17.941  0.0974 -0.1496  0.0962
62833W        W63697  27.558  23.615  27.742 -0.1412  0.1637 -0.1025
62834W        W63698  16.026  21.179  12.700 -0.1146  0.0329 -0.0470
62835W        W63699  12.408  22.121   7.714  0.5530 -0.2600  0.3056
62836W        W63700  23.372  11.876  27.638  0.0577 -0.2935 -0.1504
62837W        W63701  26.637  15.711  10.533 -0.3199  0.2272 -0.2159
62838W        W63702  10.129  14.230  14.271 -0.3567 -0.1071 -0.1449
62839W        W63703  16.897  10.799  28.896 -0.1093 -0.0363  0.0230
62840W        W63704   2.309   7.661   8.161  0.1398  0.0640  0.3253
62841W        W63705   5.852  14.607  17.614 -0.3993 -0.0785  0.3210
62842W        W63706  16.687   0.118  28.612  0.0272 -0.1525  0.0109
62843W        W63707  20.675  10.278  26.378 -0.1190  0.3053 -0.1768
62844W        W63708  25.875  12.597  26.406 -0.2022  0.1296  0.0727
62845W        W63709  10.067   0.074  18.736 -0.0151 -0.0530  0.2774
62846W        W63710  17.178  15.448  16.111  0.2457  0.3212  0.1509
62847W        W63711  21.125   2.516  20.501 -0.2832  0.1557 -0.0491
62848W        W63712   4.766  11.948   4.778  0.2466 -0.1949 -0.0113
62849W        W63713   4.331   1.082   7.887 -0.2890  0.2338  0.2149
62850W        W63714  16.994   6.160   4.228 -0.1781  0.3126  0.1262
62851W        W63715   2.003  14.749  25.658 -0.1768 -0.2177  0.0023
62852W        W63716   7.676  20.036  27.036 -0.0670 -0.0781  0.1714
62853W        W63717   4.730   4.067  11.825 -0.1595 -0.0992  0.1522
62854W        W63718  11.716   7.099   1.286 -0.2227  0.3053  0.1594
62855W        W63719  16.689  15.204  22.898 -0.2685  0.0298 -0.0366
62856W        W63720  11.695  17.755  19.521 -0.1932  0.3239 -0.1033
62857W        W63721  21.323   8.298  19.733  0.1999 -0.3438  0.2004
62858W        W63722  13.547  28.163   9.799 -0.1859 -0.1842 -0.0371
62859W        W63723  13.859  15.077  26.144  0.1133 -0.0108  0.0396
62860W        W63724  12.722  22.109   4.781 -0.0600  0.3326  0.2275
62861W        W63725   5.891  11.154  16.102  0.0748 -0.0386  0.0094
62862W        W63726  27.867  22.988  28.876 -0.1494  0.1303 -0.1054
62863W        W63727   5.035  16.321  19.965 -0.0899 -0.0931 -0.1792
62864W        W63728   9.564  10.688   4.572  0.0879 -0.0196 -0.0720
62865W        W63729   9.349  14.084  16.560 -0.0094  0.0886  0.0458
62866W        W63730  23.080   8.181  11.301  0.4261  0.1690  0.0097
62867W        W63731   6.840  17.260  16.619 -0.0108 -0.1808 -0.2200
62868W        W63732  28.407   4.267   4.446  0.0927  0.1628 -0.1790
62869W        W63733  21.401  19.451  24.413 -0.0306 -0.0508  0.1055
62870W        W63734  22.199  16.911  19.049 -0.0032 -0.1481 -0.0078
62871W        W63735   7.926  12.539  28.167  0.1375  0.2380 -0.0145
62872W        W63736  10.047   8.827  14.231 -0.2323  0.2645 -0.2704
62873W        W63737  26.828   7.051  21.906 -0.4893  0.4056  0.2343
62874W        W63738  13.074  11.964  10.039 -0.1988  0.1297  0.1528
62875W        W63739  26.178   8.484   5.177 -0.0350 -0.1060 -0.2075
62876W        W63740  11.359  15.493  17.950 -0.2195  0.0037  0.2624
62877W        W63741  25.745   9.005  21.216 -0.0846 -0.0007 -0.0006
62878W        W63742  24.290  18.002   0.783 -0.1141  0.2684  0.0106
62879W        W63743  17.148  13.315  17.182  0.2251  0.1299 -0.0246
62880W        W63744  20.172  27.737   7.122 -0.0513  0.0797  0.0790
62881W        W63745   6.086   8.531   1.498 -0.0895 -0.1310 -0.0672
62882W        W63746  10.796  14.637  12.759  0.1915  0.2774 -0.0014
62883W        W63747  27.438   9.155  21.188 -0.1100 -0.1397  0.0738
62884W        W63748   7.242  13.591  21.959 -0.2883  0.2479 -0.0343
62885W        W63749  14.445  14.310   5.650  0.1362  0.0839  0.0742
62886W        W63750   2.849  22.403   6.245 -0.1052 -0.2013 -0.1116
62887W        W63751  15.382   2.995   8.623  0.1366 -0.1403 -0.1984
62888W        W63752  15.432   2.263   1.329 -0.0096 -0.2231 -0.0838
62889W        W63753  15.307  25.329  19.630 -0.1414  0.2418  0.1552
62890W        W63754  19.581  27.369  15.379 -0.2425 -0.0604  0.0667
62891W        W63755   7.599  12.151  24.563 -0.2195  0.1667  0.1151
62892W        W63756   5.631  16.529   6.257  0.3871  0.1947  0.0317
62893W        W63757  26.409  28.390   8.084 -0.0841  0.1350 -0.0107
62894W        W63758  11.445  10.232  14.417 -0.0499  0.1993  0.3425
62895W        W63759   2.302  27.743  14.074 -0.1567  0.0723 -0.0811
62896W        W63760  25.662  13.774  27.241 -0.1194  0.0267  0.1321
62897W        W63761   5.299  12.236  27.606  0.0810 -0.2279 -0.1722
62898W        W63762  25.397  11.002   8.446 -0.3175  0.1837  0.1000
62899W        W63763   0.193  11.957  14.105 -0.1537 -0.2332 -0.2565
62900W        W63764  12.648  15.487   3.078  0.0634  0.2428 -0.0896
62901W        W63765   7.307   2.637   8.609  0.3338 -0.0606  0.2142
62902W        W63766  26.444   1.148  20.077  0.2089  0.0079  0.0770
62903W        W63767  22.149  24.911  17.821 -0.0326  0.2313  0.0181
62904W        W63768   7.129   9.669  14.238 -0.0991  0.1467  0.1300
62905W        W63769   7.448   4.770  18.986 -0.1663  0.3604 -0.1078
62906W        W63770  17.888  28.890  18.165  0.3327  0.2405  0.1505
62907W        W63771  14.976   2.801  19.867  0.1798 -0.0235  0.2521
62908W        W63772  10.310   2.633   3.597 -0.0712  0.0272 -0.0375
62909W        W63773   9.425  17.956  12.238 -0.0402  0.3259  0.0471
62910W        W63774  13.415  13.404  10.945  0.0368 -0.1074  0.2331
62911W        W63775   7.100   9.847  11.029  0.1744  0.0149 -0.0864
62912W        W63776  19.718  19.425  19.652 -0.2421  0.0219  0.2270
62913W        W63777   9.079  25.783  15.347  0.1515 -0.1401 -0.2405
62914W        W63778  27.696  22.608   7.733  0.1692 -0.3248  0.3141
62915W        W63779  17.889   7.569  24.873 -0.0780  0.0067  0.1725
62916W        W63780  14.613   7.504  12.835 -0.3632  0.0874  0.0479
62917W        W63781  11.130  28.260   6.300 -0.0942 -0.2398 -0.2273
62918W        W63782  22.519  18.589  10.868  0.0773 -0.2525 -0.0415
62919W        W63783   0.232   6.352  17.047  0.4385 -0.2230  0.1004
62920W        W63784   8.120  28.074   2.011  0.2077 -0.2224  0.0293
62921W        W63785   4.654   3.261  17.277  0.0662  0.0770  0.4021
62922W        W63786  18.645   5.111  26.821  0.2808 -0.0341  0.3073
62923W        W63787   9.898  27.791   2.299  0.3264 -0.0821  0.2164
62924W        W63788  25.789   2.597  10.039  0.1138  0.2152 -0.3205
62925W        W63789  10.894   9.229  11.486 -0.0013  0.0565  0.2156
62926W        W63790  10.036   4.496   7.678  0.2471 -0.0827  0.1227
62927W        W63791  26.222   1.175  13.706  0.0790  0.0999  0.1100
62928W        W63792   5.156  17.437  23.050 -0.3364  0.2618 -0.3016
62929W        W63793  27.054   3.377  14.611 -0.0864 -0.0864 -0.3602
62930W        W63794   0.436  14.093  11.601  0.2363  0.3200  0.0212
62931W        W63795   1.628  10.802  16.058  0.1946 -0.4413 -0.1663
62932W        W63796  28.905  21.097  17.163 -0.2637  0.3134  0.0874
62933W        W63797  12.987   0.647   4.749 -0.1449 -0.0268  0.1512
62934W        W63798   8.827  19.284  10.406 -0.2629 -0.2978 -0.0434
62935W        W63799   4.495  17.965  15.521 -0.4688 -0.1323 -0.0344
62936W        W63800  13.276  16.764  19.419 -0.3813 -0.0148  0.0704
62937W        W63801  26.483  19.440   0.930 -0.0137  0.3675  0.1300
62938W        W63802  28.749   0.793  16.570  0.2360 -0.1255 -0.1345
62939W        W63803  24.301  15.909   1.738  0.5417 -0.0250  0.2501
62940W        W63804  22.901   0.952  17.258  0.2639  0.2012 -0.2103
62941W        W63805  23.402   7.946  24.702 -0.1700  0.1456  0.0203
62942W        W63806  10.678  18.314   7.024 -0.2886  0.1025  0.0123
62943W        W63807  19.592   1.139  13.782 -0.3916 -0.1289 -0.0809
62944W        W63808   8.452  19.384  10.859 -0.0768  0.0865  0.2109
62945W        W63809  24.508  16.379   3.200  0.2774  0.0908 -0.1275
62946W        W63810  17.202  14.340   8.644  0.1079  0.1026  0.1625
62947W        W63811  17.504  26.166  23.397  0.1893  0.0631 -0.2195
62948W        W63812  28.619  14.277   2.382 -0.2760 -0.2349 -0.0778
62949W        W63813  14.196  23.808   8.340 -0.2348  0.2129 -0.0969
62950W        W63814  13.272  28.499  22.774 -0.0205 -0.1204 -0.2664
62951W        W63815  28.855  16.403   6.045  0.1397  0.0509 -0.1818
62952W        W63816   1.654   0.329  26.143 -0.2537  0.2841  0.3519
62953W        W63817   5.590  14.196  16.596  0.0571 -0.1547  0.0589
62954W        W63818   4.094  14.882   0.034 -0.2270 -0.2456 -0.0940
62955W        W63819  20.296  11.318  19.960  0.0703  0.2933 -0.2194
62956W        W63820   3.599  22.555  10.459 -0.2439  0.3298  0.4090
62957W        W63821   2.796   8.498  20.754 -0.1164 -0.0290  0.0453
62958W        W63822  23.672   6.795   5.011  0.1582 -0.0352 -0.0291
62959W        W63823  13.981   9.287  27.574 -0.2507  0.0464  0.0344
62960W        W63824  28.016   2.546  26.752 -0.3693 -0.2076  0.1036
62961W        W63825  13.859  11.414  18.575 -0.1256 -0.0621  0.5789
62962W        W63826  13.660  11.644   1.232  0.2669  0.0437 -0.2869
62963W        W63827  17.088  10.557  20.593 -0.0535  0.3154  0.2600
62964W        W63828   2.330   1.849   6.176  0.3111  0.3300 -0.2807
62965W        W63829  17.433  14.279   4.698  0.0266 -0.1276  0.1356
62966W        W63830   0.936  10.717   0.101  0.4301 -0.2557 -0.3465
62967W        W63831  12.312  25.218  14.261 -0.3044  0.0486 -0.1430
62968W        W63832  24.411   5.427  26.293 -0.1714 -0.0083  0.1267
62969W        W63833   9.884  19.536  18.252  0.0360 -0.2335  0.0272
62970W        W63834  25.184  12.364  11.018 -0.0666  0.0110  0.2337
62971W        W63835   7.509  11.307   3.514  0.1203  0.0919  0.0654
62972W        W63836  11.284  19.638   0.431  0.1073 -0.1075  0.0487
62973W        W63837   9.208  22.617  25.324 -0.1841 -0.2909 -0.0411
62974W        W63838  14.411  18.504  22.580 -0.0685 -0.1763 -0.0590
62975W        W63839   5.411  16.734  21.449 -0.3813  0.1585  0.0845
62976W        W63840  21.220  18.502  11.329 -0.1821  0.0877 -0.1640
62977W        W63841  28.715  22.498  13.071  0.3654 -0.1956 -0.1187
62978W        W63842   6.006   9.762  15.796  0.0573 -0.1932 -0.2514
62979W        W63843  16.913  19.208  17.826  0.2961  0.1452  0.1612
62980W        W63844  24.646   5.086   0.475 -0.2943  0.1173 -0.0296
62981W        W63845  14.386   6.569  12.518  0.2345 -0.1148 -0.0417
62982W        W63846  18.620  22.087  28.659 -0.1664  0.0604  0.0282
62983W        W63847   6.671  21.075   0.537  0.1723  0.1721 -0.0605
62984W        W63848  12.832   2.407  28.633 -0.1321 -0.0777 -0.0593
62985W        W63849  23.317  19.747  10.277 -0.3493 -0.3293  0.2754
62986W        W63850  16.885  19.344  27.671 -0.0828  0.2194  0.3142
62987W        W63851   9.287  15.799  26.261 -0.1108  0.2410 -0.1131
62988W        W63852   2.754  15.268   9.617  0.2787  0.4326  0.0151
62989W        W63853   9.437  19.044   6.543  0.2575  0.1399 -0.0208
62990W        W63854  20.382   7.677  16.826 -0.1199 -0.3390 -0.0693
62991W        W63855   9.513   7.006  11.304 -0.0647  0.0696 -0.0297
62992W        W63856   9.936   0.283  20.483  0.0739  0.0669 -0.0768
62993W        W63857  28.414  14.272  19.322  0.2212  0.0065 -0.0129
62994W        W63858   0.560   5.669  25.993  0.0245 -0.1384  0.0468
62995W        W63859  12.104  20.935  23.193  0.2300 -0.1110  0.0064
62996W        W63860  23.223  13.503   7.817  0.2188  0.0976 -0.2486
62997W        W63861  28.043  13.774  12.782  0.0933  0.4058  0.3694
62998W        W63862  12.927  29.071   4.789  0.0113 -0.0895 -0.2702
62999W        W63863   5.029  18.063  18.296  0.1009  0.1178  0.2778
63000W        W63864  25.666   9.801  19.587 -0.0968 -0.3157  0.0101
63001W        W63865  17.496  14.588  16.150 -0.1425 -0.2680  0.1167
63002W        W63866   3.650  25.516  25.099 -0.2233 -0.1941  0.0814
63003W        W63867  16.729  24.920   7.310  0.2399 -0.1203 -0.1319
63004W        W63868  18.799   3.068  29.062  0.0435  0.1274 -0.1793
63005W        W63869  15.571  19.667  21.219 -0.0355 -0.2677 -0.0668
63006W        W63870   2.375   7.612   1.116  0.1751 -0.2835 -0.2769
63007W        W63871  15.174   2.337   1.977 -0.1489 -0.0614 -0.0552
63008W        W63872   5.990  16.028  13.111  0.0270 -0.0659  0.3318
63009W        W63873   6.167  28.950  13.043  0.2656  0.0281  0.2244
63010W        W63874   6.083   2.734   5.932 -0.0378  0.1876 -0.1114
63011W        W63875   8.738  10.501  25.174  0.1885 -0.2061  0.0965
63012W        W63876  13.207  19.538  20.400 -0.0936 -0.1595 -0.0743
63013W        W63877   8.988  11.911  18.357  0.1859  0.0052 -0.1617
63014W        W63878   4.281   1.955  17.215 -0.0296  0.1850  0.0662
63015W        W63879  27.243  23.535  15.655 -0.3160  0.0565 -0.1748
63016W        W63880   6.972  10.776  20.974  0.1145  0.0348  0.2695
63017W        W63881   9.621  23.077  23.593  0.0281  0.1427  0.0234
63018W        W63882  21.059  17.799  24.068  0.0149  0.0731  0.1345
63019W        W63883  10.685  28.159  27.814 -0.0619  0.1384  0.0575
63020W        W63884  19.683   2.925   2.914  0.2443  0.2590  0.0119
63021W        W63885  22.222   5.871   3.400  0.2052  0.0216 -0.2440
63022W        W63886   2.866  23.562   7.962 -0.1170 -0.4925 -0.2232
63023W        W63887   6.286  19.613  15.376  0.1034 -0.0542 -0.0735
63024W        W63888   4.348  21.269   7.030 -0.1302 -0.2021 -0.2549
63025W        W63889   9.530   2.079  24.061  0.1824 -0.2306  0.1145
63026W        W63890   4.788  23.012  24.083 -0.1509  0.0890 -0.0727
63027W        W63891  16.200  29.116  28.381  0.1370 -0.2985  0.1385
63028W        W63892  16.765  20.606   9.505  0.1585 -0.2699  0.0168
63029W        W63893   0.428   6.386  28.437 -0.1389  0.3298 -0.3283
63030W        W63894  26.011  22.868   2.836 -0.0304 -0.5793  0.3165
63031W        W63895  19.129   4.005  18.992 -0.1998 -0.1885 -0.3698
63032W        W63896   9.680  21.256   5.903  0.0107 -0.1178 -0.0281
63033W        W63897  14.382  13.826  11.157 -0.4381  0.1330 -0.0369
63034W        W63898   5.582  15.971  11.599 -0.3357 -0.1797  0.1007
63035W        W63899   1.648   8.302  17.456  0.2340  0.0575 -0.0895
63036W        W63900   5.610  13.649  20.294 -0.0459  0.3765 -0.0022
63037W        W63901  26.878  17.689  15.796 -0.0812 -0.0282  0.0090
63038W        W63902   0.710   6.067  16.899  0.0409 -0.3734  0.0021
63039W        W63903   9.266  22.497   5.335 -0.0525 -0.2945 -0.3818
63040W        W63904  10.504  15.803   7.139  0.1733 -0.3689  0.1590
63041W        W63905  15.774  13.739  18.075 -0.0392  0.0959  0.2002
63042W        W63906  21.580   7.783   1.251 -0.0908 -0.0578  0.0696
63043W        W63907  12.584  20.272  22.961 -0.2068  0.1074  0.1084
63044W        W63908   2.577  12.490   5.910 -0.1090 -0.2812 -0.1120
63045W        W63909  21.363  19.538  26.644 -0.1135  0.3989  0.0200
63046W        W63910  10.125  14.796   7.568 -0.2055  0.0164 -0.0304
63047W        W63911  17.670  24.583  24.332  0.1055  0.3969 -0.0704
63048W        W63912  24.551   7.009   0.805  0.0948 -0.1606 -0.2116
63049W        W63913   5.497  14.264  13.961 -0.1828 -0.2929 -0.0878
63050W        W63914  18.492  11.598   3.486 -0.1986 -0.2671 -0.1183
63051W        W63915  23.656  17.557  26.430 -0.0783  0.2336 -0.3258
63052W        W63916   6.577   3.469  19.198  0.2308  0.2057 -0.1233
63053W        W63917  27.688  21.926  11.709  0.0130 -0.7371  0.2087
63054W        W63918  22.756  11.672  23.344 -0.2203  0.0335  0.0896
63055W        W63919  26.183  12.378  18.830  0.0561  0.3429 -0.1197
63056W        W63920   4.607  13.686  10.831 -0.0405  0.0235  0.0444
63057W        W63921  21.778  14.892  22.419 -0.2686 -0.2037 -0.1337
63058W        W63922  14.635  17.094   6.888  0.3041  0.1016 -0.4564
63059W        W63923  19.540  18.053   8.803 -0.0199 -0.0879 -0.1986
63060W        W63924  10.492  24.555  27.423 -0.0041  0.1596 -0.2998
63061W        W63925  10.142  13.967  27.783  0.1409  0.1343 -0.2854
63062W        W63926  23.235   8.125  28.889  0.0410 -0.1263 -0.1076
63063W        W63927   8.904  13.458  22.643  0.0098  0.1841  0.1872
63064W        W63928   6.379  17.029   3.371 -0.0058 -0.1910  0.0993
63065W        W63929  14.566   1.409  11.346 -0.4300  0.2209 -0.4641
63066W        W63930  18.744  20.846   2.851  0.1165  0.0083  0.3561
63067W        W63931   5.956  12.752  19.237 -0.0219  0.1009 -0.0670
63068W        W63932  12.069  18.941   6.161  0.2779 -0.1556  0.2049
63069W        W63933  17.043  17.675  18.664 -0.0434  0.1024  0.3261
63070W        W63934  19.352  22.202  12.819  0.0359 -0.3785  0.1067
63071W        W63935   6.006   3.339  16.064  0.0492  0.2476  0.1773
63072W        W63936  15.554  10.191  26.110  0.0544 -0.2197 -0.2623
63073W        W63937   2.099   2.514  28.730  0.0094  0.0712  0.0013
63074W        W63938  12.392   5.871  14.067  0.1680 -0.3238  0.0198
63075W        W63939  10.469  13.716  12.598  0.1900  0.0172 -0.1578
63076W        W63940  21.263  23.571  11.815 -0.4912  0.0274  0.0177
63077W        W63941  26.337  19.770  10.340  0.2950 -0.4183  0.1642
63078W        W63942  28.509  16.111  19.998  0.0675  0.2579  0.3040
63079W        W63943   9.438  17.128   9.857 -0.3705  0.1891  0.0682
63080W        W63944  23.075   4.787   5.357  0.0269  0.0840  0.1046
63081W        W63945  25.815   6.737  24.998 -0.1314 -0.0709 -0.1964
63082W        W63946   5.263   6.905  22.646 -0.4598 -0.0867  0.1839
63083W        W63947  27.961  12.240  23.255 -0.2525 -0.0151  0.0118
63084W        W63948  28.277  14.073   1.915 -0.2013 -0.1332 -0.0679
63085W        W63949   6.702  24.544  17.590 -0.2941  0.0242  0.3093
63086W        W63950  11.346   4.860  19.372 -0.1921 -0.1494 -0.3329
63087W        W63951  11.631  23.829  18.812  0.1215 -0.0991  0.2870
63088W        W63952  12.159  11.483   4.284 -0.0971 -0.0012  0.0547
63089W        W63953   3.606   9.497  19.415  0.3108 -0.3053  0.2843
63090W        W63954   8.033   1.458  22.089 -0.0036  0.0922 -0.4104
63091W        W63955  18.052   5.064   4.457  0.0511  0.1329 -0.0268
63092W        W63956   5.482  18.960  25.390 -0.3686  0.3248 -0.2018
63093W        W63957   5.530   9.947  19.905  0.0729  0.0239  0.2098
63094W        W63958  15.303   5.133  28.597 -0.2364 -0.1754  0.0134
63095W        W63959  17.678   7.783  15.508 -0.1119  0.0213 -0.2495
63096W        W63960   0.390   7.027  11.901  0.0797 -0.0481 -0.2196
63097W        W63961  24.264  16.399  10.054 -0.1797  0.2721 -0.1691
63098W        W63962   3.840  14.425  28.889 -0.3716 -0.0072 -0.2336
63099W        W63963  14.468   0.414  13.484 -0.0742  0.1635 -0.2930
63100W        W63964  14.117   8.790  23.122  0.1442  0.1086  0.1138
63101W        W63965  28.467  13.514   9.349 -0.2140 -0.0283  0.1727
63102W        W63966   4.450  19.086  28.738  0.0299 -0.2076 -0.0446
63103W        W63967  15.681  21.508   9.333 -0.2419 -0.1340 -0.0264
63104W        W63968   2.417   5.607  19.756  0.3243 -0.0936 -0.1191
63105W        W63969   5.529  11.657  12.869  0.2036  0.2362 -0.2355
63106W        W63970  12.187   6.618   3.989  0.0678  0.1194  0.1745
63107W        W63971   1.193   2.208  18.030 -0.1456  0.2199  0.0691
63108W        W63972  16.734  23.606  13.668  0.4384  0.0387 -0.0433
63109W        W63973  13.990   4.324  21.319 -0.2056  0.2970  0.3120
63110W        W63974  10.764   2.595  13.350 -0.2056  0.0886 -0.0769
63111W        W63975  18.520  16.851   7.225 -0.2316 -0.0275 -0.1232
63112W        W63976   6.464  25.734  17.274 -0.0648 -0.0199  0.3456
63113W        W63977   6.879   6.228  21.549  0.1508  0.0950 -0.1553
63114W        W63978   6.653   4.542   0.698 -0.0835 -0.0841  0.0886
63115W        W63979  14.564  16.353  27.348  0.1888  0.1891 -0.0423
63116W        W63980  19.779  18.206   9.212  0.0353 -0.0382  0.0280
63117W        W63981   8.307  20.476  20.772  0.1333  0.0554 -0.3811
63118W        W63982   5.284   1.729  25.637 -0.2358  0.1451  0.0721
63119W        W63983   8.719  12.532  10.820  0.1508 -0.2068 -0.2489
63120W        W63984   3.273  15.040  19.792  0.0993  0.1870 -0.0853
63121W        W63985  10.657  22.145  22.135 -0.0203 -0.1209  0.2485
63122W        W63986   9.900  25.059  13.288  0.0532  0.4055 -0.1528
63123W        W63987  26.174  15.531  25.870 -0.2573  0.2076 -0.1341
63124W        W63988  22.006  18.570  23.401  0.1934  0.1456 -0.1049
63125W        W63989  10.935  17.935  28.209  0.0287 -0.2690  0.1648
63126W        W63990   8.619  10.695  15.438 -0.0042  0.1738 -0.0658
63127W        W63991  21.399   7.629  16.960 -0.3967 -0.0095 -0.0557
63128W        W63992   0.912  14.626  23.708 -0.0208 -0.1765 -0.0447
63129W        W63993   5.741   0.580  15.546  0.0210  0.0023 -0.2999
63130W        W63994  29.074  17.912   7.148  0.2033 -0.0881 -0.0973
63131W        W63995   3.111  10.787  20.026 -0.2510 -0.3016  0.0930
63132W        W63996   0.406  10.367  24.393 -0.0340 -0.0491 -0.0633
63133W        W63997  24.152  12.035  23.235 -0.1302 -0.3175  0.1145
63134W        W63998  13.499  24.320  12.641 -0.2590  0.3192  0.1422
63135W        W63999  11.136  11.743  19.525 -0.0390  0.3906  0.0412
63136W        W64000   8.264  14.975  17.159 -0.0459  0.0167  0.0059
63137W        W64001  28.561  19.657   0.971 -0.1803  0.0538  0.3546
63138W        W64002   3.125  11.534  26.782 -0.0821 -0.1910 -0.2599
63139W        W64003   1.189  12.667   1.087  0.3308  0.1787 -0.0282
63140W        W64004  22.366  27.322  23.270 -0.0190 -0.1426  0.2005
63141W        W64005   5.420   9.033  26.775 -0.1180  0.0397  0.0797
63142W        W64006   9.658  11.161  18.892  0.3355  0.0209  0.1040
63143W        W64007  28.440   8.849  20.072 -0.1099 -0.0852  0.3770
63144W        W64008  10.477  13.578  15.490  0.3866 -0.3451 -0.1954
63145W        W64009  24.364  17.215   0.622  0.2949  0.2654 -0.0607
63146W        W64010   5.616  11.495  10.462  0.0917  0.2238 -0.1268
63147W        W64011  13.981   5.024   8.431  0.1008  0.0681 -0.1656
63148W        W64012  15.383   5.194  28.125 -0.2130  0.0601 -0.0690
63149W        W64013  20.722   4.886   7.888  0.1791 -0.0139  0.0284
63150W        W64014   0.482  27.683  14.302 -0.0154  0.0111  0.1274
63151W        W64015  17.639  19.560  27.715 -0.0490  0.0240 -0.0768
63152W        W64016   3.180  14.764   3.781  0.0285 -0.1088 -0.1165
63153W        W64017  19.526   4.559  23.180 -0.0357  0.1816  0.0911
63154W        W64018  11.020   3.999  14.614  0.1128  0.1035  0.2366
63155W        W64019  13.055   1.631  27.233 -0.1083 -0.0106 -0.1847
63156W        W64020  27.034  24.518  27.113 -0.2336 -0.0453 -0.0978
63157W        W64021   7.235  13.739  22.966  0.0577 -0.4187 -0.2193
63158W        W64022  13.318   0.415   1.633  0.5682  0.1327 -0.0170
63159W        W64023  16.744   0.700   8.569 -0.0103 -0.3182  0.0151
63160W        W64024  16.554  21.519  20.708 -0.0207 -0.1383 -0.0350
63161W        W64025  20.111  12.008  22.300 -0.0121  0.0349 -0.2247
63162W        W64026   5.691  17.066  13.298  0.0359  0.0407  0.1750
63163W        W64027  22.637   2.339  22.904  0.4798  0.2368  0.1981
63164W        W64028   4.439  13.937  28.305  0.1331 -0.2052 -0.0444
63165W        W64029  13.306  11.828  14.293  0.2549  0.1633  0.0240
63166W        W64030   2.438  13.288  20.877 -0.2689  0.0626 -0.3551
63167W        W64031   1.016  27.677   3.447 -0.3903 -0.1488  0.0199
63168W        W64032   6.933  26.852  28.859  0.1551  0.2497 -0.2552
63169W        W64033   6.865   2.642  14.480 -0.1630  0.0823  0.1429
63170W        W64034  17.268   4.160  14.194  0.0198  0.0127 -0.0317
63171W        W64035  28.555  29.119   8.950  0.2753 -0.2821 -0.0579
63172W        W64036   5.913   9.872   8.472  0.0986  0.0856  0.3495
63173W        W64037   6.559  26.769  23.419 -0.0727 -0.0243  0.0978
63174W        W64038   6.586   2.466  25.806 -0.3183  0.0231  0.1358
63175W        W64039  25.485  14.164  20.449 -0.3645  0.0580  0.0687
63176W        W64040  24.004   3.481  27.752  0.0233  0.1273 -0.0022
63177W        W64041  10.491   8.575  11.918 -0.1019  0.1769  0.1941
63178W        W64042   4.707   7.654  25.414 -0.3465  0.0853  0.0661
63179W        W64043   9.442   1.708   4.658  0.0608 -0.2301  0.2260
63180W        W64044  24.014   6.595   6.990  0.2909 -0.1536  0.0830
63181W        W64045  14.048   5.935   8.301 -0.0138 -0.1099  0.0318
63182W        W64046   6.602   2.784  16.499 -0.1766  0.0087  0.0861
63183W        W64047   9.783   6.365  17.971  0.0677  0.1074  0.0909
63184W        W64048   2.047  17.208  24.181 -0.1626 -0.1700  0.3287
63185W        W64049  28.487  12.606  22.715  0.1564  0.1038 -0.0108
63186W        W64050  23.223  27.195  21.090  0.0768  0.1734  0.1783
63187W        W64051  23.173  10.458   0.387 -0.2455  0.2156  0.1192
63188W        W64052  22.932  15.311   6.438 -0.0111  0.2406 -0.1791
63189W        W64053   1.344   3.403  16.399  0.1582 -0.0381 -0.0823
63190W        W64054  18.563  16.471  22.172  0.0469  0.4380  0.3718
63191W        W64055   2.795  19.372   2.146 -0.1515 -0.0485 -0.0042
63192W        W64056  28.657   2.962  11.677 -0.1761  0.1085 -0.2391
63193W        W64057   5.184   9.519  15.907  0.1726 -0.2581 -0.3387
63194W        W64058  28.289  27.979  18.805  0.1243 -0.1766  0.0195
63195W        W64059  14.860  22.244   3.520  0.2875  0.3235 -0.3902
63196W        W64060   3.625   8.101   3.740 -0.1538 -0.0781  0.0086
63197W        W64061   4.460   9.287  19.065 -0.0053  0.0138 -0.1590
63198W        W64062  25.413   6.630  16.452 -0.0387  0.2573 -0.0088
63199W        W64063   9.337  24.867  23.132  0.1289  0.1283 -0.0082
63200W        W64064   0.626  13.197   5.923 -0.1581  0.0241  0.1611
63201W        W64065   9.190   4.028   0.026  0.1641  0.1508 -0.1879
63202W        W64066  14.000   8.805  19.054 -0.0173 -0.0539 -0.1399
63203W        W64067  22.786  16.641  21.534 -0.1593 -0.4756 -0.0475
63204W        W64068   6.106   2.015   8.202  0.0578  0.0204  0.2059
63205W        W64069  28.115  22.931  21.747  0.0534 -0.1300  0.1960
63206W        W64070   2.611  25.906  14.224  0.0702  0.0791  0.0964
63207W        W64071  12.261   8.404  17.861  0.0222 -0.0222  0.1703
63208W        W64072   6.986  25.693  15.488  0.0503  0.1678  0.1340
63209W        W64073   5.244   6.560   0.897  0.0489 -0.2913 -0.1846
63210W        W64074   0.193  12.570  11.871  0.0090 -0.3731  0.1716
63211W        W64075  13.631   1.251  24.302 -0.2772  0.0501  0.0117
63212W        W64076   8.761   8.185  11.930  0.1789 -0.3960 -0.1735
63213W        W64077   9.300  26.674  18.759 -0.1737  0.1743  0.0338
63214W        W64078  11.811  11.733   7.771  0.0510 -0.0343 -0.0201
63215W        W64079  16.620  26.133  14.179  0.0042  0.2625  0.2826
63216W        W64080   7.034   6.401  25.324  0.2713 -0.0841 -0.1166
63217W        W64081   1.639  11.280  20.281  0.1351  0.0271 -0.0685
63218W        W64082  15.939   4.529   3.556  0.1060 -0.0307  0.0505
63219W        W64083  14.077   8.504  11.653 -0.2308 -0.0207 -0.1772
63220W        W64084   6.842  18.549  24.221  0.1997 -0.4873  0.0041
63221W        W64085  27.908   0.827  23.324 -0.1569  0.2914  0.0271
63222W        W64086  14.218  17.525  27.200  0.1693 -0.2317  0.1735
63223W        W64087  12.861   1.683  17.216 -0.0971  0.3101  0.2156
63224W        W64088   1.286  22.568  26.326  0.0105 -0.1219 -0.2055
63225W        W64089  18.020  18.974  13.624 -0.1001  0.1942  0.0059
63226W        W64090  20.261  13.698  28.541  0.0546 -0.1067 -0.0418
63227W        W64091   5.033  21.470  17.691 -0.1245 -0.1304 -0.1377
63228W        W64092  24.359  17.898  11.523  0.1827 -0.3334  0.1060
63229W        W64093   2.241   6.047  14.855 -0.1533  0.0909 -0.1754
63230W        W64094  23.965  27.473  22.386  0.2441 -0.2180  0.3366
63231W        W64095   1.993  23.202   6.298  0.0124 -0.0507  0.1004
63232W        W64096  24.986   7.467  19.279  0.1901  0.1391  0.1301
63233W        W64097  20.758   9.605  11.950  0.0416 -0.3165  0.2703
63234W        W64098  14.662  22.508  14.562 -0.2422  0.2465  0.2853
63235W        W64099   8.896  19.497   8.818 -0.2513  0.2147 -0.1663
63236W        W64100   2.495  18.186   0.355  0.0028 -0.0774 -0.0734
63237W        W64101   5.366  13.772  16.394  0.0606  0.0109  0.0550
63238W        W64102  28.219  12.769  23.548  0.0929 -0.2154  0.0284
63239W        W64103   3.070  25.838  11.370 -0.1546 -0.3129  0.1751
63240W        W64104   8.217  26.248  27.671 -0.1633 -0.0964  0.3630
63241W        W64105   8.157  28.817   8.733 -0.1273  0.0433  0.0178
63242W        W64106   6.468  26.222   2.499 -0.0923 -0.0848 -0.0943
63243W        W64107  22.451   9.975  16.705  0.2990 -0.3124 -0.4087
63244W        W64108  10.388  21.360  21.739  0.1730  0.0882  0.1427
63245W        W64109  16.603  13.304  14.625  0.1608 -0.2653 -0.2401
63246W        W64110   6.863  16.733  13.174  0.0322 -0.1202  0.0775
63247W        W64111  16.371   4.562  28.821 -0.0609 -0.0294  0.1213
63248W        W64112  25.091   8.326  27.457  0.0148  0.0870  0.2667
63249W        W64113   5.381   1.317  27.933 -0.3078 -0.2520 -0.0582
63250W        W64114  10.933  18.208  14.070  0.0377  0.0139 -0.0324
63251W        W64115   5.567  20.418  23.662  0.1539  0.2363 -0.1085
63252W        W64116  23.298  15.225  11.878 -0.0266 -0.2313  0.2000
63253W        W64117   4.459  18.572  17.920 -0.0726  0.0483 -0.2497
63254W        W64118  13.478   1.134  19.814  0.0773  0.0409 -0.0880
63255W        W64119  22.440  12.729  13.273  0.1183 -0.1841 -0.2378
63256W        W64120   0.743  19.988   1.085 -0.1373  0.0538  0.1847
63257W        W64121  10.955  19.899  22.988 -0.2632  0.1432  0.0426
63258W        W64122  18.792   9.639  14.670  0.0492  0.1438 -0.2655
63259W        W64123   9.771   8.567   0.854  0.1202  0.0921 -0.0940
63260W        W64124   3.949  10.689  19.493 -0.3449 -0.1355 -0.2074
63261W        W64125   4.452   7.767  20.609  0.0208 -0.0353  0.1373
63262W        W64126   7.771   8.208  14.029 -0.3677  0.2280  0.0532
63263W        W64127  10.494  25.163  18.785 -0.4473  0.0201  0.1210
63264W        W64128  12.593   1.156  10.721 -0.2173 -0.0197 -0.2364
63265W        W64129  23.099   0.415  26.038  0.0440 -0.3276 -0.0764
63266W        W64130  17.921  13.161   0.528  0.0118 -0.0587 -0.3518
63267W        W64131  19.931  23.149   9.321 -0.0651  0.0623  0.2723
63268W        W64132   6.617  26.605  23.889 -0.0762 -0.0599  0.0273
63269W        W64133   2.121  11.743  13.003  0.1028  0.5499  0.0784
63270W        W64134  22.470  18.435   9.411 -0.0527 -0.1372  0.0047
63271W        W64135   6.805  18.821   1.838 -0.0654 -0.1142 -0.1174
63272W        W64136   5.239  25.686  24.056 -0.1444  0.0113 -0.0406
63273W        W64137   8.510  16.590   8.908  0.2411  0.1681  0.2937
63274W        W64138   2.829  20.006  16.218  0.0638 -0.1441  0.1088
63275W        W64139  11.524   8.489  18.892 -0.0168  0.2015  0.1840
63276W        W64140  23.231  15.893  19.929 -0.2673 -0.3996 -0.1896
63277W        W64141  20.401  14.757  21.674 -0.0461 -0.3022  0.1897
63278W        W64142   3.933  29.063  17.764 -0.3945  0.0164 -0.2953
63279W        W64143  26.375  13.360   8.192 -0.0626 -0.3825  0.0687
63280W        W64144  22.460   9.793  28.180 -0.1612 -0.1710  0.0858
63281W        W64145  12.677   8.434  15.878  0.3263  0.1003  0.2374
63282W        W64146  25.696  13.868   4.207 -0.3418  0.1009  0.0829
63283W        W64147  28.371  15.669  21.801 -0.3941  0.1772  0.0117
63284W        W64148  19.379   8.017  19.440  0.4188 -0.0165 -0.2342
63285W        W64149  25.180  23.500   9.684  0.1391 -0.0962  0.2273
63286W        W64150  26.456   0.722  11.956  0.1422  0.2442 -0.2469
63287W        W64151  18.821   2.018  23.477 -0.1607  0.1408  0.0864
63288W        W64152  28.284  18.364  11.558  0.2631 -0.0678  0.0084
63289W        W64153   0.110  26.664   9.588  0.0164  0.2702  0.1387
63290W        W64154   5.096  24.190   7.287  0.0728 -0.2531  0.2326
63291W        W64155   5.516   9.159  20.010 -0.0244  0.0371  0.0514
63292W        W64156  20.253  17.336  25.499 -0.0698  0.1085 -0.0308
63293W        W64157  10.758  27.041  18.347  0.1965 -0.2730  0.0493
63294W        W64158  20.195  21.769  25.473 -0.0007  0.0936  0.4408
63295W        W64159  18.254   7.300  21.817  0.0375  0.1562  0.1056
63296W        W64160  18.929  28.594  27.045 -0.1642 -0.3862  0.0597
63297W        W64161   2.297  14.972   7.640  0.3986 -0.0629  0.0696
63298W        W64162   6.120   7.194   0.656 -0.0056 -0.1269  0.0250
63299W        W64163   0.115  16.676  19.684  0.1073 -0.0911  0.2208
63300W        W64164  20.163  14.792   3.270 -0.0762 -0.2086 -0.3079
63301W        W64165  11.764   9.072  10.460 -0.3851  0.0618 -0.3212
63302W        W64166  13.298  10.517   4.815 -0.0575  0.1072 -0.0162
63303W        W64167   3.021  15.872   2.900  0.1455  0.0819  0.0769
63304W        W64168   7.202  19.820  23.845 -0.0599 -0.0213  0.1470
63305W        W64169  19.926   3.553   3.752 -0.1084  0.1034  0.0153
63306W        W64170   3.024  12.742  12.298  0.0915  0.0946  0.1582
63307W        W64171  14.889  17.003   9.362  0.0160 -0.2803  0.0205
63308W        W64172  24.329   9.016  16.688 -0.0093  0.3401  0.1508
63309W        W64173   3.289  13.205  20.805  0.0683  0.0148 -0.0845
63310W        W64174  16.925  23.426  21.465  0.2162  0.2406  0.0522
63311W        W64175   9.083  10.697  17.777 -0.2108  0.2438 -0.0651
63312W        W64176  21.630  17.677  25.899  0.2068 -0.1962  0.1691
63313W        W64177  14.428   6.932   4.819  0.0109  0.1150  0.0726
63314W        W64178  10.397   4.244  27.205 -0.0611 -0.0549  0.1248
63315W        W64179  11.058  18.044  14.765  0.0616  0.0352 -0.0255
63316W        W64180  29.028  17.181  15.748  0.2421  0.2940  0.0530
63317W        W64181   7.114   5.572  21.018 -0.2723  0.0470  0.0418
63318W        W64182  16.656  26.094   1.618 -0.0001  0.2037 -0.0345
63319W        W64183  16.535  11.174  28.612  0.0726 -0.0019 -0.2281
63320W        W64184   4.015  11.377  13.413 -0.1797  0.0724 -0.0068
63321W        W64185  16.063  22.946  11.976  0.0785 -0.1043 -0.0559
63322W        W64186   3.781   7.541   1.497 -0.0090 -0.2531 -0.1054
63323W        W64187   4.478  13.788   7.801  0.1065  0.3633 -0.0715
63324W        W64188   7.988   8.552  25.808 -0.1122  0.1798  0.3571
63325W        W64189   0.340  22.486  21.052  0.3210 -0.2412 -0.1525
63326W        W64190  10.268   3.932   4.959 -0.1808  0.0389  0.3178
63327W        W64191  14.853   9.186  25.087  0.0544 -0.0948 -0.1267
63328W        W64192  22.696   3.637  27.257 -0.1264  0.1904  0.0337
63329W        W64193   7.049  18.016   1.914  0.0064 -0.0459  0.0348
63330W        W64194   9.173  21.277  20.018  0.2792 -0.3189 -0.0804
63331W        W64195  17.927   7.993   8.284  0.0017 -0.5603  0.1926
63332W        W64196  14.157  13.807  24.574  0.1603  0.1025 -0.3248
63333W        W64197  11.607  23.316  17.340 -0.0106  0.2436  0.1533
63334W        W64198  16.763   3.168  22.765 -0.1257  0.1078 -0.1734
63335W        W64199   6.139  11.513  24.368  0.1754  0.0965 -0.4394
63336W        W64200   4.311   5.620   6.154  0.1633  0.0325 -0.1288
63337W        W64201   2.830  22.203  25.295  0.2482 -0.1299 -0.0433
63338W        W64202   0.091  10.635  20.941  0.3296 -0.1318 -0.0120
63339W        W64203  23.046  10.501   3.715  0.0922  0.2494 -0.3213
63340W        W64204  19.707  28.963  23.164  0.0944  0.1403  0.0121
63341W        W64205   1.293   4.214   9.437  0.0710  0.0124  0.1483
63342W        W64206   4.236   2.115  28.226 -0.3585  0.2346 -0.0978
63343W        W64207  14.811   5.561   0.448 -0.0598  0.1554  0.1256
63344W        W64208   2.956  14.167  16.858 -0.1480  0.0069 -0.3018
63345W        W64209  20.881  10.738  23.461 -0.0602 -0.0258  0.2189
63346W        W64210  12.773  15.745   5.966  0.0246  0.2350 -0.0273
63347W        W64211   1.383   8.354  12.509 -0.0335 -0.0423  0.1465
63348W        W64212  15.122  19.495  27.140  0.1468 -0.0605 -0.0883
63349W        W64213  28.040  26.954  14.862  0.4165 -0.1798  0.1551
63350W        W64214  28.704  11.658  13.401  0.0671 -0.2214 -0.0338
63351W        W64215  14.101  19.714  28.780  0.2206 -0.0932  0.0752
63352W        W64216  13.680   1.521   3.606 -0.0129  0.0499  0.0270
63353W        W64217   4.001  19.493  19.095 -0.1037  0.2021  0.1468
63354W        W64218  17.175   4.465   5.165  0.1982  0.0033  0.0013
63355W        W64219   7.327  25.423  16.276  0.2904 -0.1376  0.0431
63356W        W64220  10.518  10.658  22.766  0.2367 -0.2091  0.1404
63357W        W64221   6.913   6.876   0.393  0.3856  0.6088  0.0269
63358W        W64222   5.860  10.583   4.525 -0.1296  0.1314  0.2304
63359W        W64223   5.844  27.292   8.365 -0.0226  0.0397 -0.2538
63360W        W64224  10.267  10.840   2.965 -0.0526 -0.1429 -0.2196
63361W        W64225  19.469  27.122   0.160 -0.0296 -0.0925  0.3045
63362W        W64226   9.523  20.653   0.765  0.2656  0.2655 -0.0810
63363W        W64227   5.806  12.518  18.670 -0.1053 -0.3363 -0.1271
63364W        W64228  13.138  18.889  10.377  0.1362  0.1681  0.0766
63365W        W64229  20.853  11.599  27.495 -0.2262  0.2625 -0.2183
63366W        W64230  22.252  27.634  14.038  0.1282 -0.2418 -0.2380
63367W        W64231  20.428   8.786   0.881  0.0258  0.0513  0.1126
63368W        W64232  17.503  23.743  16.071 -0.0013 -0.0954  0.0068
63369W        W64233  19.642  27.166  10.108 -0.0196  0.2060 -0.1920
63370W        W64234  14.442  26.215   8.657 -0.0815 -0.0158 -0.0200
63371W        W64235   6.120   2.827  28.188  0.1164 -0.2996 -0.0540
63372W        W64236  15.986  13.224  13.171 -0.1624 -0.1453  0.1036
63373W        W64237  24.800   1.229  11.809  0.0946  0.0697  0.2254
63374W        W64238  27.462  28.767  18.240 -0.0943  0.1307 -0.0606
63375W        W64239  25.555   1.465  13.368  0.3504 -0.0771 -0.0917
63376W        W64240   7.235  16.331  26.706 -0.3098 -0.1408  0.0214
63377W        W64241   1.913  14.141  23.489 -0.0593 -0.3993  0.0485
63378W        W64242   4.894  12.454  10.240 -0.0743 -0.1891  0.1118
63379W        W64243  25.304   1.741   2.420  0.0473 -0.1495 -0.1415
63380W        W64244   6.295  16.925  27.381 -0.1398  0.0747 -0.2512
63381W        W64245   7.577   9.475  11.036  0.0243  0.0194 -0.0449
63382W        W64246  10.094  23.623  15.634  0.1338  0.1068  0.0036
63383W        W64247   1.242  27.126  16.509 -0.0841  0.2016 -0.2561
63384W        W64248  10.253  13.254   1.556 -0.2417 -0.1399 -0.1236
63385W        W64249  23.797  18.839   6.388  0.1420 -0.1505 -0.2334
63386W        W64250   8.470  25.275   5.615  0.0961 -0.0864 -0.0632
63387W        W64251  17.518  20.823  11.034  0.1596 -0.1516 -0.1311
63388W        W64252   8.954   9.971  16.611 -0.0889 -0.3028  0.0775
63389W        W64253  13.946  19.214  14.960  0.0861  0.3304 -0.0605
63390W        W64254  24.160   5.077  17.732 -0.0081  0.3567 -0.1577
63391W        W64255  26.082   6.972   2.478  0.0257  0.1375 -0.0240
63392W        W64256  11.757  19.372  13.903  0.1043 -0.1963 -0.2466
63393W        W64257   2.795   0.623  20.606 -0.3437 -0.0543  0.0352
63394W        W64258  12.605   1.724  23.358 -0.1097  0.2536  0.1457
63395W        W64259  12.005  28.128  16.275  0.2052  0.1525 -0.0347
63396W        W64260  27.790  20.847   0.265 -0.0064 -0.4192  0.3324
63397W        W64261  13.942   7.878   4.630 -0.5076  0.1582  0.3220
63398W        W64262  12.553  20.889  14.028  0.0246  0.1687 -0.2663
63399W        W64263   8.493  14.393  24.477  0.1177 -0.1733  0.1698
63400W        W64264  19.266  20.506   4.432  0.2231 -0.1203  0.3888
63401W        W64265   7.080  18.474   9.332  0.0323 -0.0384 -0.5462
63402W        W64266  26.776  17.692  24.811  0.2922 -0.0296 -0.0696
63403W        W64267  22.952   0.208  22.084 -0.0279  0.0662 -0.0746
63404W        W64268  17.063  15.389  25.864  0.0001  0.2610  0.2397
63405W        W64269  19.543  24.515  10.461  0.0923 -0.2842 -0.1163
63406W        W64270   0.614  22.408  27.581  0.0723 -0.1641 -0.1474
63407W        W64271  10.235  25.016  19.205 -0.0324  0.0686 -0.0494
63408W        W64272  10.943  10.154   5.996  0.3008  0.3329  0.1934
63409W        W64273  12.753  26.599  23.683  0.0367  0.2346  0.2493
63410W        W64274  29.095   1.377  22.797  0.0314  0.0312  0.4760
63411W        W64275  16.256  21.164   5.921 -0.1103  0.2518  0.1346
63412W        W64276  22.749  26.004  13.843  0.3386 -0.2687  0.0464
63413W        W64277  21.563  12.510  18.550  0.3362  0.0920  0.1338
63414W        W64278   5.806   5.539  18.409 -0.5885  0.2415  0.3911
63415W        W64279  13.394  13.073  22.853 -0.1186 -0.1340  0.0405
63416W        W64280   8.851   5.045   7.182  0.0500 -0.1152  0.1972
63417W        W64281  10.476  25.251  25.751  0.1119 -0.2588 -0.0475
63418W        W64282   3.869   3.547   8.653 -0.1713 -0.0921  0.0147
63419W        W64283   6.320   2.778  25.496  0.1333 -0.0492  0.0903
63420W        W64284  25.772  24.351  26.383 -0.0656 -0.0037 -0.0940
63421W        W64285  24.674   0.668  26.099 -0.0080 -0.2073  0.1301
63422W        W64286  15.006  21.024  18.287 -0.2399  0.1586  0.3781
63423W        W64287   9.801  10.110  29.061  0.1765  0.0904 -0.2641
63424W        W64288  27.794   3.426  19.643  0.1485  0.0353 -0.0961
63425W        W64289   6.114   8.868  27.653 -0.1133 -0.1983 -0.1444
63426W        W64290  28.323  25.632  20.196 -0.0191 -0.3366 -0.0159
63427W        W64291  20.306  12.357  23.952  0.1208 -0.0110 -0.2256
63428W        W64292  14.868   0.660  28.259  0.0573 -0.0293 -0.1880
63429W        W64293  17.843   7.277  24.416  0.3102 -0.1953 -0.2137
63430W        W64294   3.610   4.215  23.857  0.5139  0.3255  0.0784
63431W        W64295  18.839  23.992  16.118  0.4377 -0.0479 -0.0541
63432W        W64296   2.089   5.842  21.574 -0.2021 -0.1273 -0.0194
63433W        W64297  27.095  11.728  22.795 -0.1813 -0.2079  0.2867
63434W        W64298  19.103  17.858  28.836 -0.1427 -0.1935 -0.0154
63435W        W64299   6.345   4.748   8.584 -0.1452 -0.0973  0.3156
63436W        W64300  11.885  17.583  27.403 -0.3308  0.0328  0.1653
63437W        W64301  19.113  19.255  11.051 -0.0634 -0.1455  0.3752
63438W        W64302  19.300  12.401   3.098 -0.1015 -0.1490 -0.1711
63439W        W64303  15.658  28.409  12.322 -0.0486 -0.0781 -0.2854
63440W        W64304   3.685  14.832  17.093 -0.0167 -0.3930  0.1991
63441W        W64305   2.194   6.964  14.048  0.2505 -0.1002  0.1280
63442W        W64306   2.722  10.148   1.940  0.0214 -0.0231  0.1807
63443W        W64307  16.540  11.866  12.786 -0.0638  0.0327 -0.2314
63444W        W64308  28.845  21.006  27.768  0.0342 -0.1796 -0.1938
63445W        W64309  12.089  28.369  27.741 -0.2828 -0.0713 -0.1568
63446W        W64310  12.380  14.814   1.075 -0.0249  0.1368 -0.0456
63447W        W64311  10.262  28.810  10.239  0.3137  0.1190 -0.2844
63448W        W64312   2.692   3.431  24.640  0.1771 -0.2193  0.1504
63449W        W64313  16.693  15.223   7.753  0.1710  0.0936 -0.1873
63450W        W64314   9.567  12.404  16.793 -0.1148 -0.1494  0.1699
63451W        W64315   6.578  27.680  17.226 -0.1719  0.3149 -0.1721
63452W        W64316   9.076  18.976   8.268 -0.1478 -0.1844 -0.2574
63453W        W64317   8.101  12.104  26.270  0.0051 -0.1343 -0.0136
63454W        W64318  21.777   1.515   5.956  0.1988 -0.0930  0.1919
63455W        W64319   0.451  21.945  25.474 -0.1250  0.2196  0.1546
63456W        W64320  11.509  13.912  25.680  0.1479 -0.3517 -0.1052
63457W        W64321  26.636  19.510  18.501 -0.2426 -0.3527 -0.1992
63458W        W64322  18.203   6.302  28.281  0.0667  0.3441  0.1374
63459W        W64323   6.568  16.487  22.051  0.4766  0.2021  0.0340
63460W        W64324   9.751  22.040   2.012  0.0627 -0.5317  0.0022
63461W        W64325   7.202  17.159  23.849  0.1982  0.0852  0.1109
63462W        W64326   1.705  19.707  25.870 -0.0982 -0.1961  0.1410
63463W        W64327  15.773  14.805  11.699 -0.0501  0.3406 -0.0712
63464W        W64328   2.460  22.750   0.914  0.0320  0.1133  0.1159
63465W        W64329  20.833   8.295  16.682 -0.1418 -0.0759  0.0478
63466W        W64330  14.604  23.303  19.022 -0.0047  0.1151 -0.0516
63467W        W64331   0.148  13.074  27.133 -0.1686 -0.0237 -0.1083
63468W        W64332  21.693  19.084  12.590  0.0314 -0.0361  0.0254
63469W        W64333  24.911  13.304  14.627  0.2575 -0.0512  0.0309
63470W        W64334  12.788   8.546   6.960 -0.0684 -0.2518  0.0901
63471W        W64335  18.287  12.848   6.680 -0.0080 -0.1450 -0.0869
63472W        W64336  17.852  11.672  23.179  0.2027 -0.1566 -0.0623
63473W        W64337  13.137  18.992   2.713  0.1838  0.1051  0.0935
63474W        W64338  12.596  24.409  19.385 -0.2225 -0.3202  0.2067
63475W        W64339   9.220   9.656  18.613  0.1064 -0.1233  0.1092
63476W        W64340  28.001   4.110   6.923 -0.0832  0.2350 -0.0079
63477W        W64341  19.148   0.450  20.923  0.0559 -0.1185 -0.1225
63478W        W64342   0.114   7.502  12.477 -0.1099 -0.2504  0.2797
63479W        W64343  13.114  22.722   1.791 -0.1507 -0.0679  0.0009
63480W        W64344  23.109  24.842  25.665 -0.0827  0.2653  0.0337
63481W        W64345  11.065   1.835  24.787 -0.1512 -0.2904 -0.0390
63482W        W64346   9.244  12.073  19.370 -0.0483  0.0822  0.6570
63483W        W64347  13.371   3.270  23.681  0.1399 -0.0618 -0.2455
63484W        W64348   2.783   9.197  22.189 -0.1645 -0.0541 -0.0268
63485W        W64349  16.672  19.439   5.546 -0.0740  0.0144 -0.1455
63486W        W64350   0.536  21.752  24.043  0.1089  0.0034  0.2069
63487W        W64351   9.571   8.291   3.029  0.2890 -0.2978 -0.0134
63488W        W64352  24.977  21.058  28.842 -0.0556 -0.0208  0.1071
63489W        W64353  12.044  16.699  24.534 -0.0836 -0.1891 -0.1446
63490W        W64354   8.514  22.483  14.220 -0.1129 -0.0258  0.0119
63491W        W64355   5.461   3.437   9.904  0.0517  0.1541 -0.1649
63492W        W64356  11.380  15.358   1.793  0.1935  0.1287 -0.1145
63493W        W64357   9.274   1.874   9.108  0.1364 -0.0187 -0.3957
63494W        W64358  16.643   1.776  18.592 -0.1717  0.0278  0.2025
63495W        W64359  11.939  13.168  21.177  0.1909  0.1262 -0.0483
63496W        W64360   8.375  15.158  20.427 -0.0895  0.0673 -0.1372
63497W        W64361  16.392  12.584  11.532 -0.0697 -0.3674 -0.2616
63498W        W64362  11.135  18.454  17.357  0.2351  0.1288 -0.0318
63499W        W64363   2.035  17.440  11.963 -0.0344 -0.2554  0.3659
63500W        W64364  15.156  10.695  12.632 -0.0065 -0.0924 -0.1531
63501W        W64365  27.740   7.927   5.428 -0.0515  0.0921  0.0751
63502W        W64366  24.361  11.482  15.800 -0.1186  0.0465 -0.1473
63503W        W64367  18.793   8.325  11.891  0.3008  0.1026 -0.2054
63504W        W64368  21.868   0.255   9.658  0.0767  0.1210 -0.0697
63505W        W64369  17.116   0.703   3.983  0.1802 -0.1650  0.0632
63506W        W64370  21.761   1.080  28.680  0.2277  0.2239 -0.0750
63507W        W64371  24.719  16.997  18.891  0.2455 -0.1006  0.1117
63508W        W64372  24.770   7.322   4.123 -0.2441 -0.0721  0.0898
63509W        W64373  26.304   8.523  18.842  0.1077 -0.1696 -0.0973
63510W        W64374  10.464   6.490  28.652 -0.0023  0.1717 -0.4303
63511W        W64375  19.194   5.634  16.128  0.1493  0.1393  0.0567
63512W        W64376  10.160   5.246  27.060  0.1488 -0.1920  0.1378
63513W        W64377   6.451  10.559   7.656 -0.0910 -0.4777 -0.2239
63514W        W64378  11.207  11.539  21.956 -0.1494 -0.1700 -0.1160
63515W        W64379   2.263  15.029  17.606 -0.1438  0.2339  0.0644
63516W        W64380  23.550  14.611  21.995 -0.2387  0.1717  0.1584
63517W        W64381  17.408  25.111  19.630 -0.0009  0.0761 -0.1382
63518W        W64382  26.167   0.829   3.703  0.1481 -0.4984 -0.0578
63519W        W64383   2.443  23.479   3.974 -0.0030 -0.0566 -0.2464
63520W        W64384  12.435  15.146   7.628 -0.1067  0.0150  0.0625
63521W        W64385  20.973   0.484   2.448  0.0662  0.2529 -0.1291
63522W        W64386   7.433   5.188   9.664 -0.3334 -0.1321 -0.0178
63523W        W64387   6.241  18.393  23.494 -0.2599 -0.1063  0.1443
63524W        W64388  26.125  20.587   2.756  0.0212 -0.1182  0.3196
63525W        W64389  12.887  21.717  14.898  0.0703 -0.0242  0.2186
63526W        W64390  14.733  21.585   3.814 -0.2879 -0.3161  0.4688
63527W        W64391   4.715  16.048   2.602  0.1733  0.1531  0.0370
63528W        W64392  17.622  11.155  25.773 -0.0280  0.0103  0.2981
63529W        W64393  15.963   1.355   1.063  0.2907 -0.0979  0.1332
63530W        W64394  14.984   9.421   0.939  0.0098  0.0099 -0.3235
63531W        W64395  23.191   7.654   3.567 -0.0215 -0.1347  0.3060
63532W        W64396   5.723  24.035  15.971 -0.2074 -0.0811 -0.0651
63533W        W64397  27.565  21.051   4.100  0.3163  0.0903 -0.0646
63534W        W64398   2.181  11.071  10.842  0.0457  0.1408 -0.0732
63535W        W64399   3.431  11.650  13.945 -0.0065 -0.1718  0.0646
63536W        W64400  21.551  22.561  16.345  0.1249 -0.0911 -0.1424
63537W        W64401  22.632  28.735  26.217  0.1079 -0.1644  0.0097
63538W        W64402  15.023   4.032  10.349 -0.0426 -0.0135  0.1344
63539W        W64403   8.169  24.754  27.145 -0.1158  0.1127  0.3373
63540W        W64404   2.574  27.954   9.350  0.0111  0.1050  0.1338
63541W        W64405  24.009  11.238  24.553  0.1399 -0.4900 -0.1413
63542W        W64406   3.086  19.591  13.205  0.2646  0.0861 -0.1646
63543W        W64407  24.679  11.948  27.134  0.0539 -0.2943 -0.3361
63544W        W64408   7.581   6.568  26.980  0.2798 -0.4586 -0.2717
63545W        W64409  18.545   9.705  26.169 -0.1728 -0.0264  0.0068
63546W        W64410  28.669  10.072  25.420  0.2903  0.2590  0.2968
63547W        W64411   8.156  10.568  22.093 -0.3672 -0.1756 -0.2662
63548W        W64412  19.541  20.992  27.545 -0.3162 -0.1395 -0.3269
63549W        W64413   1.727  13.120  20.367 -0.1517  0.0453  0.0517
63550W        W64414  28.816  10.032   4.470 -0.0564 -0.0726 -0.1113
63551W        W64415  11.606  23.754  20.192 -0.0603 -0.0054 -0.2215
63552W        W64416   9.992  26.534  23.133 -0.2086  0.1750 -0.1826
63553W        W64417  11.344   5.097   3.291  0.0768  0.1401  0.2355
63554W        W64418   1.319   4.517   0.435  0.2455 -0.1038 -0.3855
63555W        W64419   5.212   6.743   7.149  0.0247  0.3249 -0.1943
63556W        W64420   6.971  21.270  20.486 -0.0937 -0.0805  0.0073
63557W        W64421  14.401  28.966  24.223  0.1272  0.0334  0.0539
63558W        W64422  24.934   7.389   0.116  0.0336 -0.1569 -0.3020
63559W        W64423  16.019  18.115  21.345  0.0449 -0.0237  0.0072
63560W        W64424   5.222   8.026  18.775  0.3278  0.1819  0.0355
63561W        W64425  15.777   3.087  21.261 -0.0222 -0.1711  0.1717
63562W        W64426  15.309   4.414  18.714  0.1188  0.1065 -0.0879
63563W        W64427  17.693   1.890  14.024 -0.1134  0.0537 -0.2153
63564W        W64428   9.808  19.723  11.024 -0.0526  0.2911  0.2869
63565W        W64429  10.316  26.477  14.138 -0.0653 -0.1921  0.2111
63566W        W64430   0.445   6.644   1.637  0.1076  0.1333 -0.1157
63567W        W64431  10.993  21.176  27.987 -0.0871 -0.2530  0.2326
63568W        W64432   8.474  15.457  24.498  0.0515  0.1713 -0.1074
63569W        W64433  18.113  14.793   0.453  0.2500  0.0817 -0.0758
63570W        W64434  11.800  15.932   0.610 -0.3056 -0.3663  0.0842
63571W        W64435   8.241  22.166  16.409 -0.0478 -0.1378 -0.0619
63572W        W64436   4.496   6.702  18.041  0.1895 -0.3707 -0.4083
63573W        W64437   8.928  10.611   1.160 -0.3630 -0.0917 -0.0351
63574W        W64438   9.221  10.252  19.293 -0.1346  0.2196  0.0038
63575W        W64439  13.892  25.205   3.147  0.1448 -0.1155 -0.2493
63576W        W64440  24.944   2.712  23.418 -0.2575  0.1185 -0.1842
63577W        W64441  12.158  29.032  11.491  0.0130 -0.0894 -0.0112
63578W        W64442  10.205  17.573  27.384  0.2517  0.1915 -0.1178
63579W        W64443   9.947  16.175   7.561 -0.2999  0.0963  0.0670
63580W        W64444  16.717   3.642  21.862 -0.3193 -0.0216  0.2399
63581W        W64445   2.364  18.557  18.834  0.0246 -0.1493  0.1173
63582W        W64446   8.501  11.658   4.781  0.1051  0.2111  0.1072
63583W        W64447  10.751  14.534   7.261 -0.2142 -0.1368  0.2097
63584W        W64448   2.159  20.594  17.991 -0.0544 -0.0596 -0.2728
63585W        W64449  16.379   5.360  13.150 -0.1250  0.0829  0.0121
63586W        W64450  14.684  16.126  17.857  0.0517 -0.1132 -0.2181
63587W        W64451   7.531   9.852  25.601  0.0719 -0.0745 -0.0813
63588W        W64452   6.196  14.461   2.220 -0.0355 -0.0511 -0.2597
63589W        W64453  22.998  19.519  26.428 -0.0260 -0.2244  0.1537
63590W        W64454  28.259   7.529   8.513  0.2927 -0.1515 -0.0497
63591W        W64455   7.212  24.896  12.605 -0.1269 -0.0578 -0.3511
63592W        W64456  20.552  16.018   6.301  0.0815  0.1947  0.1997
63593W        W64457  11.986  26.927  11.967  0.1456 -0.0104  0.0235
63594W        W64458   4.680   9.628   6.603 -0.1348  0.3942 -0.1421
63595W        W64459  12.588   5.143  13.092  0.1127 -0.2011 -0.0956
63596W        W64460  17.017  14.484  13.292  0.4287  0.0769 -0.2828
63597W        W64461  20.472  23.704  27.434 -0.3734 -0.0575 -0.0206
63598W        W64462  20.819   5.619  24.887  0.2968  0.4034 -0.1940
63599W        W64463   6.315  26.954  28.721 -0.2469  0.1733 -0.0703
63600W        W64464  12.254  14.938  10.203  0.0305 -0.1869 -0.0020
63601W        W64465  24.642   0.132   8.526 -0.5103 -0.0229  0.3398
63602W        W64466  10.226  14.731  14.124 -0.2716  0.1071 -0.3217
63603W        W64467  14.723  16.334  19.995  0.0103 -0.0165 -0.0545
63604W        W64468  12.588  25.861  26.693  0.2408  0.0789  0.1852
63605W        W64469  28.625   3.324   0.460  0.2785 -0.1211 -0.2029
63606W        W64470  18.537  21.532  13.478 -0.1187  0.1223  0.1577
63607W        W64471  15.623  13.256  23.997 -0.3450  0.0348  0.0083
63608W        W64472   0.160  15.707  11.277  0.1595 -0.2249 -0.2578
63609W        W64473   8.041   8.811  15.912 -0.2020  0.2020  0.1056
63610W        W64474   4.413  14.308  16.534  0.2435  0.2649  0.1355
63611W        W64475  12.708  16.040  27.261  0.0573  0.1830 -0.1785
63612W        W64476  20.732  14.749   3.080 -0.4281  0.0213  0.1401
63613W        W64477  24.437   1.665  12.622  0.0306 -0.2959 -0.0254
63614W        W64478   5.250  24.206  16.713  0.3810  0.2673  0.1746
63615W        W64479  28.017   6.432  24.289 -0.0936 -0.1172  0.0897
63616W        W64480   7.352  18.490  15.468 -0.2074  0.0601  0.0462
63617W        W64481   8.028   6.433  23.737  0.0551  0.1924  0.1533
63618W        W64482  19.288   9.653   5.590  0.1409  0.1182 -0.0335
63619W        W64483   8.744   0.639  14.365  0.1294 -0.2229 -0.1988
63620W        W64484   2.760   1.590  21.538 -0.3379 -0.2245  0.0635
63621W        W64485  11.658  28.762   5.090  0.2373 -0.1562 -0.0896
63622W        W64486   3.035  10.859   2.300 -0.2428 -0.0794  0.0942
63623W        W64487   3.078  15.073  23.561 -0.1342  0.1693 -0.2269
63624W        W64488  14.630  21.297   5.748  0.2218  0.1451 -0.3162
63625W        W64489  21.067  15.111   4.052  0.4138 -0.1868 -0.1336
63626W        W64490   2.023  15.166  18.927 -0.1348  0.0109  0.0093
63627W        W64491   1.816  22.666  20.614  0.1417 -0.1210 -0.2635
63628W        W64492  27.510  20.446  21.616  0.1102 -0.0126  0.0575
63629W        W64493   7.768   9.737  12.322 -0.1868  0.1176 -0.1204
63630W        W64494  28.355   4.929   6.901 -0.3130  0.0272  0.0079
63631W        W64495   4.351  15.225   6.827  0.0407  0.1235  0.0840
63632W        W64496  26.742  17.506  23.936  0.3981  0.0547 -0.0952
63633W        W64497  14.239  12.795  27.341 -0.3108 -0.0945  0.2798
63634W        W64498  15.199  25.241  16.996  0.0020 -0.1267 -0.1425
63635W        W64499   0.636   5.781   0.749  0.1399  0.0227  0.0899
63636W        W64500   5.212  10.938  15.899 -0.1080  0.2576  0.3154
63637W        W64501  10.898  12.540  22.480 -0.1124 -0.0265  0.1805
63638W        W64502  29.143  17.264  14.678  0.0429  0.0129  0.0206
63639W        W64503  24.425   5.076  27.291 -0.0362  0.0285  0.0025
63640W        W64504   6.763   1.998  28.173 -0.2859  0.0960  0.1308
63641W        W64505  22.915   9.420  28.789  0.2873 -0.0651  0.2292
63642W        W64506   1.088  23.870   3.036  0.1764  0.0875  0.2172
63643W        W64507  19.082  11.121  16.044 -0.0832  0.0332  0.1134
63644W        W64508   5.942  13.811  20.622 -0.3262 -0.3337 -0.0923
63645W        W64509  21.503   6.312   4.629  0.1242  0.0707  0.1587
63646W        W64510  15.941  15.020  14.676  0.4125  0.0554  0.0733
63647W        W64511   1.949  13.354   4.617 -0.1936 -0.2120 -0.0057
63648W        W64512   1.336  27.299   2.858 -0.0395 -0.4516  0.0525
63649W        W64513   8.618  16.846  25.026  0.1974 -0.0315  0.0060
63650W        W64514  13.169  21.047   6.674 -0.1100 -0.0843  0.1542
63651W        W64515   4.294  17.611  20.000  0.0393  0.0709  0.2872
63652W        W64516   7.664  13.343  15.427 -0.0413  0.0179  0.2340
63653W        W64517  17.539   9.428  27.029  0.0596  0.0134 -0.0486
63654W        W64518   0.988  19.106  24.506 -0.0309  0.1208  0.1053
63655W        W64519  22.356   5.117  14.264  0.1390 -0.0056  0.0587
63656W        W64520   6.655  27.231  29.015 -0.1752 -0.0357  0.0295
63657W        W64521  15.310  18.832  16.371 -0.0314  0.0210  0.0132
63658W        W64522  11.586   5.546  11.502  0.0384 -0.2441  0.0518
63659W        W64523  24.248  16.279   8.341 -0.0127 -0.3139 -0.1212
63660W        W64524  15.259   0.988  24.634 -0.5477  0.3567  0.1140
63661W        W64525  18.039   7.957  17.451  0.1504 -0.0697 -0.0331
63662W        W64526  28.042   9.642   5.197 -0.3833 -0.1433 -0.1791
63663W        W64527  27.091  27.541  15.630 -0.0416  0.1149 -0.2229
63664W        W64528  12.469  14.876  20.687 -0.1532  0.3418 -0.0651
63665W        W64529  16.377   6.631  25.636 -0.0495  0.3564 -0.0789
63666W        W64530   9.096  29.105  17.625 -0.2211  0.1718 -0.1344
63667W        W64531  10.547   4.341   4.861 -0.0683 -0.0272 -0.3036
63668W        W64532  14.562  26.333  25.598  0.4252  0.1542 -0.3266
63669W        W64533  12.113  11.040  10.434  0.1776 -0.0603 -0.0579
63670W        W64534  10.366   6.009   2.106  0.0446  0.1682  0.3533
63671W        W64535  23.869   7.248   3.325  0.0968 -0.0985  0.1981
63672W        W64536  18.336  23.262   4.817  0.4423 -0.2549  0.0098
63673W        W64537  12.920  11.581   0.810 -0.0018  0.0782  0.1793
63674W        W64538  26.794  26.082  25.989 -0.1645  0.1735  0.1867
63675W        W64539   5.725  11.233  14.488 -0.2769 -0.0718  0.2002
63676W        W64540  11.318  10.942   1.232 -0.0626 -0.0404  0.1071
63677W        W64541   7.355  22.175  22.534  0.1525  0.0965 -0.0378
63678W        W64542   9.570  12.333  11.798 -0.1348  0.1195  0.2279
63679W        W64543  13.616   7.582  17.129 -0.1141  0.0831 -0.3691
63680W        W64544   8.414  21.450   3.226 -0.2272  0.1173 -0.0806
63681W        W64545   1.597   0.845  24.205  0.3051 -0.0476  0.1265
63682W        W64546  11.004  22.739  26.949 -0.3372  0.0832  0.1139
63683W        W64547  25.774   8.664  27.300 -0.0612  0.1571  0.2646
63684W        W64548   2.408   5.879  21.109 -0.3656  0.1296  0.0298
63685W        W64549  13.516   8.442   0.317 -0.0495  0.0251 -0.1117
63686W        W64550  28.670   7.401  26.894 -0.0821 -0.2609 -0.2782
63687W        W64551  13.303  22.484   7.405 -0.0683 -0.3065 -0.0486
63688W        W64552  18.343  15.220   0.497 -0.1299  0.1311  0.0746
63689W        W64553  17.439  13.970  26.043 -0.3045 -0.0257 -0.2979
63690W        W64554  13.968   8.117  20.407  0.1506  0.1081 -0.0618
63691W        W64555  25.577  19.760  16.187 -0.3022 -0.0994 -0.0350
63692W        W64556   4.245  13.319  10.804 -0.0522  0.0592  0.3475
63693W        W64557  18.224  21.688  17.047  0.0869  0.1335  0.1171
63694W        W64558   6.478   8.504  21.904 -0.1956 -0.0589 -0.0590
63695W        W64559  28.325  23.905  24.058  0.0016  0.1490 -0.0252
63696W        W64560   4.200  15.229  25.705  0.3361 -0.0161 -0.2065
63697W        W64561  21.257   9.412  26.455  0.1514 -0.1751 -0.0276
63698W        W64562  24.701   6.802  16.969  0.2681 -0.0251  0.2568
63699W        W64563  16.386   6.638   2.531 -0.0853  0.2317  0.3225
63700W        W64564   1.236  20.137  22.621 -0.0512  0.2868 -0.1950
63701W        W64565  15.422  12.883  11.357 -0.1625 -0.1492 -0.1844
63702W        W64566  15.954  12.030  15.130 -0.1884  0.0936  0.2820
63703W        W64567  18.513  18.282  18.859 -0.0530  0.0159  0.1285
63704W        W64568   3.194   9.736  17.966 -0.2459 -0.1267 -0.0055
63705W        W64569   6.016   5.818   5.281  0.1046 -0.0052  0.2463
63706W        W64570  21.068  12.437   8.561 -0.0084  0.2202  0.2060
63707W        W64571  10.135   0.311   7.767  0.0062 -0.0269 -0.0578
63708W        W64572  14.368   0.980  21.670  0.0219  0.1541  0.3527
63709W        W64573  10.731  28.657  28.582 -0.0716 -0.0612  0.2921
63710W        W64574   9.004  15.876   9.203 -0.2604  0.0549  0.2856
63711W        W64575  20.359   1.260   0.833  0.1391 -0.1114 -0.1368
63712W        W64576  14.076  19.525  10.692  0.1216  0.2843 -0.1841
63713W        W64577   6.392  15.846  25.711 -0.1038 -0.1494  0.0133
63714W        W64578   5.022  10.115  17.056  0.0027  0.0240  0.2956
63715W        W64579  12.556  19.365  25.055  0.1381 -0.1347 -0.3097
63716W        W64580  12.568   5.022  23.519 -0.2369 -0.3358 -0.0225
63717W        W64581  22.046  11.549  15.396  0.2176  0.4050  0.3475
63718W        W64582  10.576   9.470  11.810 -0.2182 -0.1925 -0.1835
63719W        W64583  12.002   7.537  22.182  0.1044  0.0364 -0.0280
63720W        W64584   0.505  25.715  15.499  0.0444  0.0169 -0.0483
63721W        W64585   0.188  17.219  27.990  0.0736 -0.0211 -0.1576
63722W        W64586   0.143   9.414  27.850 -0.0907 -0.2517  0.1877
63723W        W64587   7.797  12.097  17.479 -0.0784  0.1582 -0.3083
63724W        W64588  17.979  25.623   9.451 -0.1105 -0.3682  0.1757
63725W        W64589   1.045  11.492  24.754 -0.0038 -0.3472  0.2368
63726W        W64590  11.460   4.695  28.384 -0.0235  0.2623  0.2407
63727W        W64591  13.762  12.107   2.731 -0.1231  0.2923  0.1968
63728W        W64592   9.167  15.308  23.198 -0.0036 -0.4640 -0.2072
63729W        W64593   3.708  20.690   6.778 -0.1045  0.0832  0.0044
63730W        W64594  17.322  17.313  15.921 -0.1471  0.0380  0.0726
63731W        W64595  20.225  22.768  17.999 -0.2386 -0.0202 -0.1135
63732W        W64596  11.840   7.358  27.576  0.1599 -0.1470 -0.0008
63733W        W64597   5.972  13.446  10.502  0.1773  0.2107  0.2361
63734W        W64598   0.661  17.552  10.681 -0.2122 -0.1699 -0.2383
63735W        W64599   8.543  26.313  28.108  0.0722 -0.0091 -0.0131
63736W        W64600  12.706  17.640  11.172  0.3073  0.1927  0.0427
63737W        W64601  21.432  10.384  20.760 -0.5972  0.0870 -0.1495
63738W        W64602   5.874   0.283  10.643  0.0895 -0.1625 -0.2227
63739W        W64603  25.425  11.435  27.176 -0.1030 -0.1305  0.4128
63740W        W64604  20.184  29.044  15.576  0.0117 -0.1330  0.0201
63741W        W64605  18.805   8.797   5.121  0.1117  0.0193 -0.3996
63742W        W64606   8.328  19.251  24.032  0.1206  0.1280 -0.2363
63743W        W64607  22.145   6.215   0.370 -0.0145 -0.0029 -0.0797
63744W        W64608   0.712  10.906  22.119  0.0211  0.1044 -0.1028
63745W        W64609   4.518  23.586   9.472 -0.1562 -0.1717  0.1545
63746W        W64610  24.073  11.513   4.646  0.4617  0.4237  0.0855
63747W        W64611   4.871  15.539   6.312  0.1276  0.1103 -0.1522
63748W        W64612   2.115  20.352  20.732 -0.0684 -0.2155  0.1789
63749W        W64613  18.522  20.929  15.603  0.0592 -0.1968 -0.0613
63750W        W64614  29.068   7.237  28.337 -0.0603 -0.0979 -0.0834
63751W        W64615   8.938  22.623   4.413 -0.3005  0.2564  0.3734
63752W        W64616   3.197  16.673  26.215  0.0171 -0.3189 -0.1573
63753W        W64617  19.078  17.567   6.210  0.1498 -0.1660 -0.0962
63754W        W64618  22.589  12.983   2.581 -0.0865 -0.0589 -0.2582
63755W        W64619  21.006  28.343   2.570  0.0775  0.0562  0.0226
63756W        W64620   5.970  13.765  22.212  0.0321 -0.1498  0.1971
63757W        W64621   9.253  21.568  23.853 -0.0801  0.3431  0.2325
63758W        W64622  28.689  19.726  11.200 -0.1777 -0.1619 -0.2695
63759W        W64623   8.766  15.307   8.309 -0.2086  0.1055 -0.2425
63760W        W64624  20.671  22.297  26.377 -0.0440 -0.1709  0.0138
63761W        W64625   5.148  12.765  26.181 -0.1303  0.0379  0.2387
63762W        W64626   2.553   4.685  28.267  0.2115 -0.0767 -0.1015
63763W        W64627  26.307  18.716  19.412 -0.0590 -0.4205  0.0534
63764W        W64628  17.610  28.120   2.464 -0.4322  0.1857 -0.0616
63765W        W64629   1.774  12.778  15.965 -0.2251 -0.0475 -0.2077
63766W        W64630  13.014  27.404  11.426 -0.0943  0.0768  0.2730
63767W        W64631  12.450  19.081  19.614 -0.0859  0.2768  0.2414
63768W        W64632  26.006  18.735  18.046 -0.1003  0.1245  0.0896
63769W        W64633  10.390  26.327  12.827  0.0435 -0.0275 -0.3803
63770W        W64634   0.209  11.802   1.656  0.2044  0.1099  0.0283
63771W        W64635   6.843  28.996  21.535 -0.0622 -0.2375 -0.1172
63772W        W64636  13.507   7.613   2.950  0.0213 -0.0199  0.3976
63773W        W64637  17.535  10.919  22.321 -0.0638 -0.2520 -0.1313
63774W        W64638  23.999  25.681   4.008  0.0758  0.1046 -0.2824
63775W        W64639  21.373  15.085  25.742  0.1318  0.0038 -0.2076
63776W        W64640  17.995   1.106  16.405  0.2581  0.2072 -0.0366
63777W        W64641  11.575   5.365   3.766  0.0726 -0.4116  0.0979
63778W        W64642  27.793  22.221  20.410 -0.1276 -0.2152 -0.4636
63779W        W64643  15.178   1.058   1.854 -0.1294 -0.0658 -0.4580
63780W        W64644  15.482  19.989  22.973  0.0742 -0.0900  0.0011
63781W        W64645   8.278  10.671  23.470  0.2900 -0.1054 -0.2424
63782W        W64646   1.438  17.702  25.027 -0.1241  0.0104  0.1359
63783W        W64647  12.366  28.678   1.793 -0.1442  0.2607 -0.0715
63784W        W64648   4.440  23.651   3.512 -0.2420  0.2337  0.1112
63785W        W64649   7.477   7.826  19.839 -0.1614  0.2144  0.0288
63786W        W64650  11.184  16.132   4.174 -0.0399  0.0024 -0.0152
63787W        W64651   5.655  22.451  15.360 -0.1172 -0.0497  0.3351
63788W        W64652  10.552  15.829  20.017  0.3373 -0.0282 -0.3413
63789W        W64653   0.706   9.935   7.255  0.0888 -0.1044  0.2824
63790W        W64654   8.407  23.092  28.448  0.1348  0.0094 -0.0573
63791W        W64655  24.281  11.641  14.037 -0.2257 -0.2265  0.0135
63792W        W64656   7.992   8.014  25.821 -0.0617 -0.3175  0.2793
63793W        W64657  11.430  10.994  27.124 -0.3411  0.0181 -0.0251
63794W        W64658  18.018   5.619  28.675 -0.0475  0.0641 -0.0758
63795W        W64659  18.670  13.954  26.534  0.1548  0.3935 -0.1325
63796W        W64660  21.828   9.631  22.532 -0.0574 -0.1372  0.0621
63797W        W64661  16.803  14.534   1.230 -0.1903  0.0739 -0.1864
63798W        W64662  16.620   5.714   7.742  0.0863 -0.1543  0.0428
63799W        W64663  19.131  12.862   8.869  0.3610  0.0991  0.0310
63800W        W64664  24.812   3.294  26.537 -0.2610  0.1310 -0.1405
63801W        W64665   7.268  15.236  27.269  0.1347  0.2185 -0.0450
63802W        W64666  21.765  18.146  13.413 -0.0694  0.3726  0.5116
63803W        W64667   8.076   9.352  10.166 -0.2792  0.0655  0.0547
63804W        W64668  20.611   7.838  23.378  0.0945  0.1366  0.0170
63805W        W64669  15.257   9.583   2.779 -0.0302 -0.0379  0.2082
63806W        W64670  15.626   4.485  20.959  0.1494  0.0175 -0.1870
63807W        W64671  18.165  21.074  28.032 -0.1684 -0.0495  0.0908
63808W        W64672  11.924  14.344  23.732  0.1200 -0.1038  0.1464
63809W        W64673   3.324  13.844   3.884  0.0263  0.1069  0.0195
63810W        W64674   6.840   8.089  27.674 -0.3265  0.0351  0.0534
63811W        W64675  11.972  14.161  27.299  0.0167  0.0475  0.0357
63812W        W64676  21.108   6.479  15.028 -0.0495  0.0492 -0.0172
63813W        W64677   5.154  24.920  26.518  0.1371 -0.1596  0.0998
63814W        W64678   2.862   1.817   8.041  0.0536 -0.0731 -0.1906
63815W        W64679   9.257  14.698  15.208 -0.1817 -0.1613  0.0462
63816W        W64680  24.225  24.419   7.624 -0.0473  0.1022  0.0569
63817W        W64681   4.224  14.183  26.982 -0.1746 -0.0331  0.2772
63818W        W64682   4.784   6.177  15.853  0.1525  0.2410  0.1513
63819W        W64683  24.627  15.398  21.816  0.0003 -0.1074 -0.1410
63820W        W64684   1.841   6.951  25.182  0.0193 -0.1666 -0.0211
63821W        W64685  11.355  29.019  13.122 -0.1107  0.2275  0.0179
63822W        W64686  22.382  21.439  16.531  0.2174 -0.1077 -0.2617
63823W        W64687  17.191  22.352  18.013  0.0480 -0.1467  0.2238
63824W        W64688  26.371   7.603  28.232  0.2387 -0.1106 -0.1511
63825W        W64689  26.906   5.529   5.653  0.0595  0.0880 -0.2303
63826W        W64690   6.397  20.179  19.691 -0.0264 -0.0820  0.0694
63827W        W64691   0.315  29.123   6.407 -0.3372 -0.3000  0.1044
63828W        W64692  13.924  14.517  15.831 -0.0139 -0.2944 -0.0696
63829W        W64693  24.838  26.445  16.887  0.1103  0.0335 -0.1480
63830W        W64694   6.983   5.037  23.955 -0.0701 -0.0757 -0.2008
63831W        W64695   5.215  17.891  10.614  0.0935  0.1273  0.1729
63832W        W64696  14.828   4.622  22.561 -0.1259  0.0149  0.0371
63833W        W64697  23.340  20.834   5.488  0.0068 -0.3012 -0.2047
63834W        W64698  21.469  10.890  26.782 -0.2299  0.1659 -0.1176
63835W        W64699   3.801   1.808  13.527  0.1747 -0.5090  0.0507
63836W        W64700  13.508  10.120  28.716  0.3163  0.0730 -0.2186
63837W        W64701  17.887  14.974   9.432 -0.0329  0.2675  0.1605
63838W        W64702   8.654   0.144  20.564 -0.0705  0.0423 -0.2697
63839W        W64703  25.153  15.572  25.723  0.0389  0.0125 -0.0352
63840W        W64704  22.950  27.979  22.432  0.1265 -0.0193  0.0167
63841W        W64705   5.597  20.364  12.095 -0.2294  0.0121  0.1291
63842W        W64706  14.235  24.660   0.502  0.1997 -0.0434  0.1914
63843W        W64707  11.887   0.539  19.476 -0.3468 -0.0649  0.0113
63844W        W64708  21.260   3.831  28.096 -0.0540  0.0619  0.1422
63845W        W64709   4.785   6.865  15.424 -0.0102 -0.0044 -0.0091
63846W        W64710  13.676  12.091  24.148  0.2358 -0.1512  0.0419
63847W        W64711  12.091  20.258  11.739 -0.3764 -0.0558 -0.0726
63848W        W64712   0.077   0.616  21.946 -0.1690  0.0551  0.0735
63849W        W64713   2.917   4.794  23.911 -0.2361  0.0522  0.1577
63850W        W64714  24.099  18.058   6.585 -0.1089 -0.2688 -0.1147
63851W        W64715  12.909  27.515   1.734 -0.3956  0.1642 -0.3037
63852W        W64716   2.137  20.475  14.401  0.0452 -0.1082  0.1065
63853W        W64717  10.102  11.786  18.476  0.4785 -0.3026 -0.3144
63854W        W64718  11.003   6.613  26.673 -0.1142  0.0652 -0.0431
63855W        W64719  28.445  20.621  28.810 -0.1869 -0.0907  0.2718
63856W        W64720  16.851  16.071  25.465 -0.0780  0.1819 -0.0423
63857W        W64721   1.342  25.588  27.901  0.0994  0.4486 -0.1280
63858W        W64722  26.939  13.777  10.736  0.0762 -0.0091 -0.2818
63859W        W64723  15.350  12.459  12.693  0.1074 -0.3392 -0.0168
63860W        W64724  19.764   7.427   3.422  0.0801  0.2017  0.0522
63861W        W64725  26.793   3.024   0.480  0.3495  0.0926  0.3875
63862W        W64726  15.945   7.167   5.889 -0.0211  0.0102  0.0111
63863W        W64727  17.426  13.833  23.112  0.4423 -0.2477  0.1412
63864W        W64728  15.889  18.495  26.415 -0.1528  0.0381  0.1134
63865W        W64729  20.426  26.023  23.156 -0.2256 -0.4921 -0.0712
63866W        W64730  29.069  14.958   8.503 -0.4935  0.3690  0.0442
63867W        W64731  27.304  15.592   9.398 -0.2338  0.1228  0.1204
63868W        W64732  16.683  27.605   7.437 -0.2764  0.0960 -0.1501
63869W        W64733  25.228  16.818   4.752 -0.7223  0.2428 -0.1156
63870W        W64734   8.247  20.354  18.717 -0.1473 -0.5569 -0.2048
63871W        W64735   7.846  10.482   2.874 -0.1851 -0.2186 -0.2314
63872W        W64736  10.653   8.664  20.844  0.2361  0.0654 -0.3078
63873W        W64737   9.058  17.157   3.832 -0.1908  0.0175  0.0763
63874W        W64738  25.658   4.497   6.502 -0.2784  0.2261  0.2155
63875W        W64739   2.738  25.050  12.602  0.0164  0.1608 -0.0612
63876W        W64740  17.086  13.342   7.003  0.1901 -0.0222 -0.0612
63877W        W64741   7.082  27.773   9.002 -0.0072 -0.0441  0.1173
63878W        W64742  26.662  23.950   6.661  0.2039 -0.0323 -0.1791
63879W        W64743   4.772  18.981  26.189  0.3441 -0.0346  0.1720
63880W        W64744  27.782   6.755   8.803 -0.3295 -0.1387  0.4011
63881W        W64745  13.953  26.682   1.755 -0.0757 -0.0882 -0.0337
63882W        W64746  15.636  24.560  20.109 -0.2579  0.1228  0.0624
63883W        W64747  23.856   4.881  22.118  0.0625 -0.2027  0.2648
63884W        W64748   6.207   3.969  18.327 -0.0932 -0.0102 -0.1947
63885W        W64749  21.090  29.028  18.145  0.4035 -0.1523  0.0771
63886W        W64750  27.784  10.941  21.297 -0.0391 -0.0471  0.0324
63887W        W64751  18.147   6.604   0.729  0.1570 -0.1573  0.1252
63888W        W64752  12.570  10.635  20.784 -0.0430 -0.0675  0.2878
63889W        W64753  18.755  28.022  28.785  0.0398  0.1462  0.2194
63890W        W64754  18.291   2.627  25.345 -0.4013  0.0641 -0.0269
63891W        W64755  17.414   6.282  26.707  0.2106 -0.1438 -0.1171
63892W        W64756   4.271  25.028  15.961 -0.0781  0.0246  0.0245
63893W        W64757   3.749   6.958  23.128 -0.0929  0.0876  0.0689
63894W        W64758  19.101   6.825  21.040  0.2053  0.1779 -0.1098
63895W        W64759   2.387  23.117  20.836  0.2566  0.1784 -0.0289
63896W        W64760   1.597   9.608  24.857 -0.2749 -0.0208 -0.0704
63897W        W64761  17.896   5.422  20.426 -0.3485 -0.0037 -0.2075
63898W        W64762  21.120  13.033  27.436 -0.1781 -0.1563  0.2324
63899W        W64763   5.618   4.496  18.727 -0.1999  0.1874  0.1147
63900W        W64764  25.937  23.878  27.347  0.1129 -0.2525  0.2110
63901W        W64765   2.478   7.712  27.213 -0.1044 -0.0140  0.0802
63902W        W64766   8.175   5.206  23.413 -0.0371 -0.0945 -0.0336
63903W        W64767   6.630  10.925  28.872 -0.1341  0.1196  0.0685
63904W        W64768   6.932  12.264  26.142 -0.0107  0.0137 -0.1948
63905W        W64769  27.617  10.013   4.262  0.3929 -0.3143  0.0350
63906W        W64770   6.544  18.765   8.197 -0.1688  0.0360  0.0086
63907W        W64771   0.874   7.465   6.220  0.1863 -0.0198 -0.0009
63908W        W64772   7.109  11.382  19.145  0.4436 -0.1165  0.0037
63909W        W64773   5.027  16.447   3.731  0.1401 -0.1337 -0.0595
63910W        W64774  18.875   4.850  18.362  0.0758 -0.1973 -0.1526
63911W        W64775  19.176   8.972  22.561  0.1448  0.0274 -0.1372
63912W        W64776  12.094  23.761  15.913  0.0669 -0.2459 -0.0349
63913W        W64777   3.334  14.137   3.113 -0.2231  0.0962 -0.2834
63914W        W64778  13.352  20.207  18.447 -0.0817 -0.0338  0.2721
63915W        W64779  27.093  13.979  22.097  0.0125 -0.3496 -0.4093
63916W        W64780   1.726   8.626   1.794  0.0478 -0.0309 -0.0756
63917W        W64781   7.037   5.321   7.183 -0.2213  0.1591 -0.2477
63918W        W64782   6.997   6.556  13.748  0.0701  0.0219  0.0256
63919W        W64783   7.756   6.731   5.132  0.2100 -0.1730 -0.0332
63920W        W64784  23.501  12.132  19.554  0.2203  0.0457 -0.1083
63921W        W64785   2.097  16.170  24.571 -0.2457  0.2883  0.0966
63922W        W64786   3.208  11.984  15.717  0.2767  0.3135  0.0465
63923W        W64787   5.962   4.738  14.821 -0.0205 -0.1404  0.2459
63924W        W64788  15.129  23.936   2.013  0.1012  0.1182  0.1298
63925W        W64789   6.490   8.196  25.902  0.1901 -0.0409 -0.0381
63926W        W64790  15.372   2.811   3.717 -0.0988  0.0528  0.2643
63927W        W64791  18.884  25.523  27.675 -0.2367 -0.0813  0.1608
63928W        W64792  10.998  11.125  28.490  0.3654 -0.0102  0.0179
63929W        W64793  19.785  23.939  22.896 -0.0753 -0.1213  0.2564
63930W        W64794   2.128  11.646  24.161  0.3368  0.0943  0.0979
63931W        W64795  12.154  27.885   8.333 -0.2907  0.2753  0.0104
63932W        W64796  20.597  17.930  25.094 -0.0338 -0.0915 -0.2510
63933W        W64797   5.739  26.936   7.356  0.1627 -0.2098  0.2699
63934W        W64798  13.394   9.989  25.600  0.0930 -0.1361  0.0175
63935W        W64799   9.098   5.025   8.697 -0.2393 -0.1340 -0.1341
63936W        W64800   3.640  27.353   7.481  0.1557  0.0377 -0.0030
63937W        W64801  19.024  15.662  12.591  0.0783  0.0467  0.1003
63938W        W64802   7.251  11.233   2.484  0.0082 -0.2206  0.0371
63939W        W64803   7.077  16.261   1.548  0.2556 -0.0806 -0.0482
63940W        W64804   2.775  27.470  18.984 -0.1147 -0.3173  0.0823
63941W        W64805  20.772  23.966   0.835  0.1888 -0.0442  0.1441
63942W        W64806  26.849  22.934  22.876  0.0008  0.0906 -0.0914
63943W        W64807  10.122  17.782   0.838  0.2664  0.0967  0.1649
63944W        W64808  23.771  24.148  24.577  0.3203  0.1425 -0.2468
63945W        W64809  10.369  25.046  13.890  0.0126  0.1402  0.0591
63946W        W64810   9.576  15.278   4.053  0.1608 -0.1317  0.3210
63947W        W64811  15.296   1.661   6.328 -0.0847 -0.1605 -0.0698
63948W        W64812  21.498  14.516  19.616 -0.0004 -0.3836 -0.1497
63949W        W64813   5.685   5.592   0.133 -0.1792  0.0132  0.2033
63950W        W64814   6.720   4.834  18.923  0.5496  0.0565 -0.0304
63951W        W64815  14.505  12.870  16.764 -0.3341 -0.0270 -0.0491
63952W        W64816   1.302  27.209  10.572 -0.0948  0.0845  0.1720
63953W        W64817  17.789   1.175   8.152  0.0283 -0.1175  0.0539
63954W        W64818  18.568   5.626  28.014 -0.2842 -0.2987  0.0680
63955W        W64819  28.350   2.356   9.905  0.1143  0.0905 -0.3121
63956W        W64820   8.167   6.168  26.369  0.0509 -0.1778  0.1924
63957W        W64821  28.699  21.548  29.077  0.0779 -0.2157 -0.4031
63958W        W64822  12.706  11.796  17.215 -0.0069  0.0139  0.1741
63959W        W64823  23.553  15.516  16.072  0.1589  0.1041  0.3126
63960W        W64824   2.885   7.419  11.362 -0.0090 -0.0105 -0.2848
63961W        W64825   4.498   0.087  24.735 -0.0580  0.0172  0.1275
63962W        W64826  11.869   6.067  27.525  0.0567 -0.2132 -0.1263
63963W        W64827   9.005   9.546  22.213 -0.1926 -0.0151  0.1549
63964W        W64828   1.226  21.389   1.444  0.3885 -0.0717  0.0259
63965W        W64829  14.596  15.573   6.789  0.0864  0.2310 -0.2294
63966W        W64830  18.863  22.930  17.577  0.2521  0.2250 -0.0450
63967W        W64831  26.934   1.388  26.909 -0.1353 -0.1375  0.3424
63968W        W64832  21.619  23.480  16.327 -0.2343 -0.1331 -0.1778
63969W        W64833  16.889  19.794  18.482  0.1002  0.0511  0.0243
63970W        W64834  19.294   6.231  19.262  0.3925 -0.2246 -0.2212
63971W        W64835  14.848   7.699  23.331 -0.0488  0.1229 -0.0971
63972W        W64836  15.577  20.812  17.035 -0.0022 -0.2155  0.3888
63973W        W64837  11.972  17.380  14.555  0.1846  0.2671 -0.0533
63974W        W64838  20.376  16.055  16.735 -0.2864 -0.0037 -0.0311
63975W        W64839  21.355  11.600   9.535  0.0751  0.2014 -0.1195
63976W        W64840  11.607  29.051  17.385  0.0115 -0.1299  0.1746
63977W        W64841  25.218  18.364  13.032 -0.0422  0.4643 -0.1009
63978W        W64842  27.234   0.839   0.751 -0.0892 -0.2116 -0.2172
63979W        W64843  17.619   0.735  12.063  0.1189  0.1478  0.1177
63980W        W64844  16.227  13.951  17.270 -0.0913  0.0392  0.3378
63981W        W64845   7.560  10.643  20.173 -0.1090  0.1846 -0.1703
63982W        W64846   1.031  20.103  28.252 -0.0988 -0.3338 -0.1120
63983W        W64847  13.062   9.382  16.823  0.1048 -0.0965 -0.0538
63984W        W64848   7.161  26.323  13.219  0.0067 -0.2425 -0.0997
63985W        W64849  25.243  19.700   4.840  0.0765  0.0431  0.0355
63986W        W64850  14.078  24.139  26.792 -0.0530  0.1341  0.1834
63987W        W64851   1.076  15.330   0.368  0.1580  0.2288  0.0897
63988W        W64852   3.947   8.815  23.484  0.0913  0.2859 -0.0659
63989W        W64853  15.348  20.073  28.310 -0.3226 -0.2298 -0.1349
63990W        W64854  12.873   7.665  27.899 -0.0588  0.0009 -0.4754
63991W        W64855   4.083  24.011   6.275 -0.2530  0.1309 -0.0294
63992W        W64856  13.559  22.272  22.856 -0.3264 -0.2272  0.1455
63993W        W64857  28.150  27.625  25.165 -0.1708 -0.1579 -0.0084
63994W        W64858   6.077   0.762  16.035 -0.0729  0.0794  0.0814
63995W        W64859  10.485  17.774   2.015  0.0905  0.0025  0.1822
63996W        W64860  22.390  13.003  27.783 -0.1256  0.3094 -0.3085
63997W        W64861  18.665  10.443   2.762  0.2551 -0.1601 -0.1421
63998W        W64862  15.485  13.495  26.699 -0.0043 -0.2024 -0.0010
63999W        W64863   9.427  23.663  28.340 -0.3697 -0.1314  0.0770
64000W        W64864  17.366  11.287  12.957 -0.1182 -0.0167 -0.1778
64001W        W64865   7.674   8.742  26.296  0.2969  0.0170  0.0651
64002W        W64866  14.856   3.242   0.826  0.0397  0.0693  0.2295
64003W        W64867  10.600  19.992   5.266  0.1432 -0.0468 -0.1420
64004W        W64868  27.231  11.672   3.178  0.1380  0.1120 -0.2347
64005W        W64869  23.489   6.509  25.755  0.0348  0.3798  0.1465
64006W        W64870   6.421   8.108  23.822 -0.0959  0.0232 -0.0159
64007W        W64871  28.499  19.082  23.497  0.1548  0.0914  0.0782
64008W        W64872   0.375  10.760  20.396 -0.2639 -0.0616 -0.0371
64009W        W64873  19.149   2.911   5.611  0.2795  0.0997 -0.1406
64010W        W64874  13.667   7.887  23.383  0.1611 -0.0600 -0.1041
64011W        W64875   5.770   3.162  27.988 -0.1170 -0.3350  0.1341
64012W        W64876   2.460   8.117  14.539  0.3735 -0.0704  0.4182
64013W        W64877  22.680  24.185  11.372  0.0920  0.0229 -0.1449
64014W        W64878   2.812   4.129   2.479 -0.1727  0.1161 -0.0774
64015W        W64879  25.891  16.510   1.734  0.1138 -0.0899  0.0774
64016W        W64880   9.644  21.535  28.681 -0.1080 -0.1930  0.0792
64017W        W64881   4.338   5.548  25.206  0.2217  0.1107  0.0326
64018W        W64882   4.577   1.062   6.807 -0.0426 -0.3804  0.4138
64019W        W64883  26.020  17.762   1.280 -0.2442  0.3045 -0.1844
64020W        W64884  15.063  18.593   6.852 -0.2242 -0.1815 -0.1081
64021W        W64885   8.737  21.536  11.281 -0.1111  0.1872 -0.0952
64022W        W64886  12.610  11.529  12.002 -0.2773  0.1986 -0.1330
64023W        W64887   1.052  20.346  11.854 -0.0376  0.0711  0.1412
64024W        W64888  25.805   4.140   8.381  0.1873  0.0558  0.1972
64025W        W64889   9.533   5.025  15.378 -0.1213 -0.2875  0.2003
64026W        W64890  23.688   9.943   5.441 -0.0864 -0.0735  0.1558
64027W        W64891  13.349  12.980  17.358  0.1750 -0.0971 -0.0200
64028W        W64892   1.339  11.394   7.176 -0.1666 -0.1587  0.0880
64029W        W64893   6.777  26.581  27.686 -0.0832  0.0852 -0.2575
64030W        W64894  27.516  22.233  19.076 -0.0508  0.4116 -0.1152
64031W        W64895   4.641   9.111   1.932 -0.1312 -0.0235 -0.2259
64032W        W64896  12.362  18.016  12.325 -0.3591 -0.2342  0.2283
64033W        W64897   3.848  21.196   5.874 -0.2637  0.1684  0.1765
64034W        W64898  27.278   1.199  20.274  0.0997  0.2775 -0.1835
64035W        W64899   4.779  25.267   2.386 -0.3627 -0.0676  0.2315
64036W        W64900  16.216  22.700  15.295 -0.0164 -0.3232  0.0694
64037W        W64901  22.883  26.104   2.882 -0.0617 -0.0182  0.1345
64038W        W64902  11.402  15.420  26.939  0.1818  0.0554  0.0143
64039W        W64903  20.953  14.702  26.883  0.2779  0.1349 -0.1385
64040W        W64904  14.724   6.355   9.814  0.0347 -0.0413  0.0400
64041W        W64905   4.758   8.612   3.563  0.0385  0.0718  0.0357
64042W        W64906   5.930  15.359   2.635  0.0313 -0.3144 -0.0289
64043W        W64907   7.245  16.977  22.190 -0.1109 -0.3716  0.0908
64044W        W64908   0.516   5.534  16.627  0.0450  0.0165 -0.2139
64045W        W64909  29.077  12.814  16.395 -0.1618 -0.2462  0.0001
64046W        W64910  27.400   0.433  10.317  0.2745  0.1523  0.3876
64047W        W64911  12.014   3.958  28.267 -0.1948  0.2503  0.2180
64048W        W64912  11.859  25.649  10.520  0.1601 -0.0119  0.1742
64049W        W64913   1.349  28.539   8.998  0.1458 -0.0549  0.1203
64050W        W64914  25.467  17.952   0.208  0.2572 -0.1815  0.1788
64051W        W64915   7.388  12.534  13.469  0.3404 -0.3894 -0.0090
64052W        W64916  27.771   5.768  19.041  0.1191  0.1653 -0.1148
64053W        W64917  21.305  17.678  20.871  0.2239  0.0538  0.1845
64054W        W64918  22.910  22.395  26.290 -0.0133 -0.0406 -0.3924
64055W        W64919  22.500  26.634  27.682  0.0094  0.2817 -0.2175
64056W        W64920  24.343   2.401   2.721  0.1844  0.0403 -0.0599
64057W        W64921  22.430  27.190   7.779  0.0017 -0.1130  0.2052
64058W        W64922  26.956  23.900  26.099 -0.1566 -0.0020 -0.0899
64059W        W64923  15.531  24.633  28.964 -0.1063  0.1067  0.0811
64060W        W64924  10.733  16.013   4.109 -0.0226 -0.0080 -0.1061
64061W        W64925  21.873  26.770   5.128 -0.1901 -0.0037 -0.2189
64062W        W64926   4.195  28.376  12.504  0.4628 -0.1763  0.2358
64063W        W64927   9.272  28.888   6.445 -0.0419 -0.1899  0.0256
64064W        W64928  20.677   9.447  24.157  0.3081  0.0638 -0.3006
64065W        W64929  20.754  15.537  24.064 -0.0454  0.0955  0.1472
64066W        W64930  28.578   8.945   8.596 -0.0557  0.1196  0.1627
64067W        W64931  28.844  26.810  25.860  0.0564  0.0963 -0.1869
64068W        W64932  29.103  19.180  28.195 -0.0512 -0.0606 -0.1429
64069W        W64933   6.380  17.837  23.050 -0.1265 -0.1322 -0.1913
64070W        W64934   8.581   0.466  26.972  0.0061  0.0967 -0.1459
64071W        W64935  25.956   1.337  26.617  0.1030 -0.1340 -0.2354
64072W        W64936   9.331  15.145  18.003  0.1812 -0.1917  0.1173
64073W        W64937   8.794  22.624   5.461  0.0392  0.1064  0.2242
64074W        W64938   7.982   7.034  11.726 -0.0056 -0.0702 -0.2036
64075W        W64939   6.216  25.968  14.414  0.0750  0.0560  0.1920
64076W        W64940  11.612  15.858   5.101 -0.0736  0.0797  0.1602
64077W        W64941  17.439  20.312  24.051  0.0417 -0.1138  0.0789
64078W        W64942   1.240  22.042  27.707  0.1831  0.0608  0.1519
64079W        W64943   5.594  20.671  10.716 -0.1821  0.1064 -0.0393
64080W        W64944  14.285   5.764  11.535  0.1459 -0.0600 -0.1684
64081W        W64945  12.010  16.037  20.532 -0.1374  0.2124 -0.0136
64082W        W64946  24.051  10.065  28.625  0.0728  0.3514  0.2488
64083W        W64947   8.418  14.619  23.305  0.0283 -0.1477  0.1666
64084W        W64948  27.914   6.877   6.917 -0.0487  0.0598  0.1717
64085W        W64949   7.630   2.716   8.168  0.0692 -0.0603  0.0443
64086W        W64950  27.018  17.658  21.861 -0.0482 -0.2410  0.0790
64087W        W64951  28.542  17.702  17.489 -0.3290  0.0267 -0.0806
64088W        W64952  20.106  15.899  12.711  0.1343  0.3252  0.0322
64089W        W64953  10.983  23.651  12.060  0.0818 -0.1972 -0.1065
64090W        W64954  27.647  18.296  17.167  0.2038  0.1124 -0.1404
64091W        W64955  19.056  28.923   5.162 -0.3722 -0.1116 -0.4484
64092W        W64956  16.098   7.020  25.164 -0.0889 -0.2052 -0.0895
64093W        W64957   2.684  19.112   1.735 -0.1015 -0.0838 -0.0986
64094W        W64958   3.268  15.866  22.318 -0.1199  0.2898 -0.0929
64095W        W64959  22.090  27.787  10.426 -0.0200  0.1193 -0.1445
64096W        W64960  16.082  26.351   1.535  0.1241 -0.1714  0.0653
64097W        W64961   2.101  10.760  23.129 -0.1407  0.6097 -0.2280
64098W        W64962  18.649  20.153   4.986 -0.0784  0.1675  0.0683
64099W        W64963  17.778  12.479  13.584 -0.1844 -0.1781 -0.0507
64100W        W64964  25.270  17.220  24.283  0.1427 -0.0826 -0.4699
64101W        W64965   3.387   2.086  13.846 -0.1420  0.0252 -0.1281
64102W        W64966  17.737  12.394  15.377 -0.0461  0.5007  0.0522
64103W        W64967  27.523  13.616  25.142 -0.1752  0.1263 -0.1777
64104W        W64968  13.877   1.295   5.772  0.0986 -0.0648  0.1703
64105W        W64969  16.855  14.631   1.754 -0.0325 -0.1016  0.0637
64106W        W64970  18.016  13.217  16.964  0.3369  0.0455 -0.3130
64107W        W64971  26.902  10.572  28.791 -0.2737  0.2174  0.1368
64108W        W64972   5.476  16.816  23.963 -0.0210 -0.0177 -0.2728
64109W        W64973  10.099  15.384  27.054  0.2308 -0.0940  0.0736
64110W        W64974  28.737   8.949  26.808 -0.2061 -0.4911 -0.1928
64111W        W64975   4.687   0.672  11.244 -0.0851  0.0828  0.1041
64112W        W64976  25.596  20.259   8.339  0.0727  0.0001 -0.1410
64113W        W64977   1.898  29.057  20.655 -0.0166 -0.4082 -0.0323
64114W        W64978   7.727  12.676   2.665  0.1040  0.0055  0.2803
64115W        W64979   9.922  12.996  26.050 -0.0917 -0.2561 -0.2048
64116W        W64980   7.830  20.670  24.467  0.2043 -0.0071 -0.1607
64117W        W64981   0.273  11.208  28.624 -0.0659 -0.0943  0.0124
64118W        W64982  28.528  23.049   6.262  0.0914  0.2525 -0.0084
64119W        W64983  14.358  22.129  27.150 -0.0736  0.1355 -0.2317
64120W        W64984   2.001   4.354  18.743  0.0902  0.2754  0.0416
64121W        W64985   7.273  16.045  15.104  0.4891  0.3338 -0.1777
64122W        W64986   9.713  13.594  21.939 -0.1802  0.0733  0.0916
64123W        W64987  11.535   0.696  25.864 -0.1855 -0.1331 -0.2533
64124W        W64988   8.838   7.904  16.168 -0.0570 -0.1912  0.1158
64125W        W64989  22.308   9.186  29.091  0.0355  0.3644 -0.0094
64126W        W64990  10.491  21.051   5.121  0.2022  0.0289  0.3115
64127W        W64991   3.990  16.141  23.557  0.0360 -0.0520  0.4289
64128W        W64992  25.799   5.827  16.012 -0.0699 -0.2665  0.2278
64129W        W64993   1.847   2.871   4.354 -0.1000  0.0165 -0.0422
64130W        W64994  11.839   6.100  26.588  0.0600 -0.1644 -0.2426
64131W        W64995  17.079  13.184  29.124 -0.3315  0.2232 -0.0461
64132W        W64996  24.773  13.616  14.031  0.0818 -0.2223 -0.5741
64133W        W64997  21.596   0.562  28.693 -0.1222  0.0596 -0.2591
64134W        W64998  14.078  24.169  11.876 -0.0335  0.1519  0.1221
64135W        W64999   5.263  28.624  21.957 -0.0494 -0.0049  0.1647
64136W        W65000  16.497  27.343  16.005  0.1202 -0.4381  0.3044
64137W        W65001  15.429   5.603  17.807  0.0809  0.2198 -0.0340
64138W        W65002  12.397  14.260   1.016  0.0478 -0.1011 -0.0526
64139W        W65003   5.825  14.175  18.923 -0.1754 -0.0878 -0.3041
64140W        W65004  14.547  19.635  20.571 -0.1294 -0.0449  0.2583
64141W        W65005  24.422   4.389  26.216 -0.0846 -0.0636  0.0921
64142W        W65006  25.220  24.939   5.588 -0.1419  0.0299 -0.0968
64143W        W65007   9.202   8.014  17.361  0.1532 -0.0747  0.0555
64144W        W65008   6.492  15.164   8.551  0.0328  0.0955  0.1239
64145W        W65009  17.624  24.422  26.974  0.2321 -0.0953  0.2738
64146W        W65010  11.803  17.976  27.150  0.0756  0.1109  0.1449
64147W        W65011  11.315  12.354   3.892  0.2135 -0.3712 -0.1754
64148W        W65012  12.129   6.725  10.118 -0.1079  0.1708  0.1707
64149W        W65013  29.138   9.925  14.106 -0.0929 -0.3580  0.1686
64150W        W65014  25.279  27.851  24.734  0.0132 -0.2220  0.1244
64151W        W65015   2.765   1.057   2.273  0.0907  0.0004  0.0856
64152W        W65016  26.587  17.969  25.234 -0.0934 -0.1751  0.1906
64153W        W65017   1.764  15.116   0.438  0.0155  0.0922 -0.0545
64154W        W65018  12.749  23.413   7.243 -0.0536 -0.1296 -0.1894
64155W        W65019  20.277  11.628  16.179  0.0275 -0.3421 -0.1002
64156W        W65020  26.492   3.424   0.303 -0.0594 -0.0424 -0.3112
64157W        W65021  28.712  12.921   7.460  0.0494 -0.0678  0.2497
64158W        W65022  20.446  23.345  10.515  0.0940  0.0620  0.1793
64159W        W65023  17.718  13.413  23.098 -0.2495  0.1936  0.0819
64160W        W65024  14.614   8.335  11.704  0.3018 -0.0612  0.2629
64161W        W65025  19.866  27.752  18.916 -0.2108 -0.3395 -0.0352
64162W        W65026   5.309  13.187  18.262 -0.2556 -0.0775  0.1828
64163W        W65027  13.639  20.922  14.849  0.3052 -0.1745  0.2205
64164W        W65028  25.073  15.733   4.244  0.2035  0.0526  0.0067
64165W        W65029   9.256  10.576  12.990 -0.2970 -0.0247 -0.1783
64166W        W65030   8.022   0.621  21.811  0.0427 -0.0200  0.2150
64167W        W65031  24.349   9.071   5.026  0.1117 -0.3232  0.0458
64168W        W65032  11.700  29.129   1.062  0.1468 -0.2035  0.2199
64169W        W65033  17.763   3.686  13.308 -0.0264 -0.0317  0.0402
64170W        W65034   7.377   0.048   7.203  0.0623  0.0502  0.1226
64171W        W65035  25.355   7.859  25.775 -0.0478  0.1204  0.0677
64172W        W65036  12.365  27.677   4.352 -0.1434 -0.1406 -0.0118
64173W        W65037  26.878  11.955  19.236 -0.0482  0.0397  0.0684
64174W        W65038   8.647  22.096   3.748  0.0724  0.0622 -0.1648
64175W        W65039  11.632  11.180   7.714  0.1178  0.1043  0.2130
64176W        W65040   5.429  27.069  29.121  0.0462 -0.1255  0.4606
64177W        W65041  10.978  14.349   8.105 -0.0383 -0.0223 -0.3017
64178W        W65042   9.707  27.195  22.859 -0.2211  0.0080  0.2581
64179W        W65043   4.353  17.537  16.285 -0.0389 -0.1988 -0.1757
64180W        W65044  17.476   8.838  27.518  0.2435 -0.3316 -0.0331
64181W        W65045  17.301   9.438   6.998  0.1890 -0.0394  0.3745
64182W        W65046  13.154  14.025  11.502 -0.1062  0.2712  0.0180
64183W        W65047  10.071  19.276  28.092  0.0948  0.1374  0.1093
64184W        W65048   9.737   5.232  14.897 -0.1063  0.2286  0.1367
64185W        W65049  17.859  14.797   7.483 -0.4526 -0.3755  0.2155
64186W        W65050  12.401   4.517  14.754 -0.1471  0.1105  0.0598
64187W        W65051   9.738   2.955  28.683  0.0851 -0.0768  0.0439
64188W        W65052   1.732  19.540   7.134  0.1523 -0.1353 -0.3410
64189W        W65053  10.745  13.673  14.948  0.2199 -0.1353 -0.2064
64190W        W65054  14.726  18.597  23.600 -0.4192 -0.2031 -0.0653
64191W        W65055  13.824  25.782  25.462  0.1535 -0.3983 -0.1408
64192W        W65056  17.519  27.868   6.803 -0.1873 -0.3719 -0.1799
64193W        W65057  25.987   0.980   0.381 -0.1001  0.1644 -0.3447
64194W        W65058   8.268   8.345  27.506  0.2722  0.0433 -0.0781
64195W        W65059   3.365  16.337   2.267 -0.1628 -0.0568 -0.0838
64196W        W65060   4.242  23.187   9.345 -0.1604  0.2339 -0.0671
64197W        W65061   0.616  20.591  12.481 -0.0727  0.1048 -0.1713
64198W        W65062  20.590  13.259   5.540  0.2494 -0.1918  0.0881
64199W        W65063  24.953   1.897  19.144  0.3607 -0.0282  0.1141
64200W        W65064   3.329   0.488   0.446 -0.2841 -0.0916  0.2991
64201W        W65065   1.652  25.485  27.396 -0.0797  0.0539 -0.3891
64202W        W65066   1.391  19.888   8.470 -0.1886 -0.1666  0.2074
64203W        W65067   3.525  13.501  28.739  0.1378  0.2016 -0.1904
64204W        W65068  17.599  23.186   6.891  0.0036 -0.1079 -0.1020
64205W        W65069   7.842  25.008  18.567  0.0547  0.2919 -0.1729
64206W        W65070  23.832  14.985   2.640 -0.1251  0.3121 -0.4081
64207W        W65071   0.041  23.249  20.610 -0.1287  0.0900  0.0024
64208W        W65072  16.600  20.685  13.842 -0.0191  0.1018 -0.3895
64209W        W65073  25.761   7.527  20.430 -0.2729 -0.1605  0.1049
64210W        W65074  26.109   3.059  24.367  0.0441 -0.0872 -0.0384
64211W        W65075  17.817  23.305   7.451  0.1734  0.1048 -0.1406
64212W        W65076  16.509  24.737   0.483 -0.2332 -0.1695  0.2787
64213W        W65077  11.121   1.070  13.525  0.2810 -0.0001 -0.2283
64214W        W65078  20.058  19.537  17.785 -0.2560  0.3568 -0.0081
64215W        W65079  24.737   7.150  15.949  0.1967 -0.1762 -0.0081
64216W        W65080  14.304  22.783  22.014  0.2879  0.2821  0.0001
64217W        W65081   7.713  10.039  27.089  0.0451 -0.2539 -0.2943
64218W        W65082  28.810  21.861  18.616 -0.1133  0.1349  0.2754
64219W        W65083  27.948  27.101  18.351  0.1409 -0.1232 -0.0051
64220W        W65084   3.818  29.086   5.833 -0.0201  0.0244 -0.0216
64221W        W65085   7.842  15.832   8.533  0.1010 -0.2745  0.0514
64222W        W65086  20.791   8.233   6.871 -0.1338 -0.4814 -0.3143
64223W        W65087  27.869  22.249  12.582 -0.0899  0.2473 -0.0472
64224W        W65088  26.593  16.981  19.458  0.3332  0.4254 -0.1289
64225W        W65089   7.441   9.581  27.066  0.1096 -0.2710  0.0089
64226W        W65090  25.175  17.152   7.469  0.2178 -0.0236 -0.1024
64227W        W65091   2.934  15.148   6.740  0.0424 -0.0057  0.2128
64228W        W65092  28.612  16.686   7.858 -0.2958  0.0456  0.0446
64229W        W65093  16.667  19.425   0.020  0.3489 -0.0601 -0.0036
64230W        W65094   5.229  27.586  12.595 -0.2664  0.1334 -0.2480
64231W        W65095   0.351  22.436   3.595 -0.0315 -0.2502  0.3249
64232W        W65096  15.199   9.280  24.695  0.0126  0.0709 -0.1074
64233W        W65097  22.329  18.904   0.137  0.0863  0.0938 -0.1260
64234W        W65098  17.354  13.473  13.491  0.1813  0.2597 -0.2909
64235W        W65099  28.386   3.866   8.934  0.0746 -0.3808  0.1107
64236W        W65100  16.130   6.276   3.066  0.1730  0.2349  0.0014
64237W        W65101  10.946  17.210  18.460 -0.2205  0.2400 -0.1603
64238W        W65102   0.955  17.815  20.946 -0.1875  0.1466  0.3220
64239W        W65103   6.779   2.435   1.808  0.2127  0.1521  0.1624
64240W        W65104   4.857  14.926  19.107  0.1595 -0.0415 -0.1196
64241W        W65105  10.462  14.558  29.005  0.0191 -0.0240 -0.1969
64242W        W65106   8.108  23.184  25.307 -0.0028 -0.0329 -0.1585
64243W        W65107   4.707   1.157  10.619  0.3063  0.0738  0.1106
64244W        W65108  21.545  13.412  17.016  0.0559  0.2952 -0.0756
64245W        W65109   7.652  11.895   8.384 -0.1454 -0.1629 -0.1875
64246W        W65110  20.754   5.395   1.764 -0.0528 -0.0896  0.1138
64247W        W65111  23.151   5.239  24.184 -0.1409 -0.0041  0.0125
64248W        W65112  18.967  23.904  23.427 -0.1127  0.0564 -0.1395
64249W        W65113  10.707  22.673  10.966 -0.1324 -0.2996  0.0498
64250W        W65114   0.455  12.832  15.624 -0.0185  0.0163 -0.1887
64251W        W65115  12.678  11.196   3.972 -0.0755 -0.0064  0.0001
64252W        W65116  18.411   2.674   0.071 -0.0039 -0.0787  0.3198
64253W        W65117  12.413  19.939  26.097  0.3182 -0.0595 -0.6739
64254W        W65118  19.790  22.660   2.437 -0.1029  0.1352  0.0356
64255W        W65119  11.583  20.793   4.466 -0.4233 -0.0712 -0.1464
64256W        W65120  14.903  20.137   4.413 -0.2017 -0.1601  0.1010
64257W        W65121  21.209   6.507   7.952 -0.0200  0.2376 -0.3942
64258W        W65122  17.789   2.781  23.390  0.0943  0.0623  0.3023
64259W        W65123  10.594  14.212  27.619 -0.3205  0.2469 -0.0828
64260W        W65124  20.839   8.312  20.589  0.0141 -0.2762  0.1030
64261W        W65125  16.951  12.621  24.965 -0.0287 -0.0803 -0.0856
64262W        W65126   9.091  23.205  10.940  0.3937 -0.0002  0.1838
64263W        W65127  14.837  20.727   9.904 -0.2611 -0.0003  0.1758
64264W        W65128  10.614  19.264   5.442 -0.1375  0.1029  0.0690
64265W        W65129   3.661   8.550  19.032 -0.0007  0.0324 -0.0595
64266W        W65130   1.453  24.060  28.944  0.1231  0.1694 -0.1350
64267W        W65131  20.271   9.577   7.936  0.1139  0.0761  0.1979
64268W        W65132  11.255  27.424   7.484  0.3071  0.0615 -0.1077
64269W        W65133  12.962  11.531   3.786  0.0484  0.1063 -0.2126
64270W        W65134   4.413  21.203  28.544  0.0618  0.0072  0.2584
64271W        W65135  28.262   6.262  25.483 -0.1231  0.2108  0.2638
64272W        W65136  23.488  18.367  17.618 -0.2543 -0.3228 -0.1255
64273W        W65137  10.980  21.436   9.386  0.0086  0.0617  0.1294
64274W        W65138   6.156  19.722  17.443 -0.1067  0.1587  0.2263
64275W        W65139   5.538  20.428   6.922  0.0673  0.1467  0.1099
64276W        W65140  12.704  25.984   0.655 -0.1926 -0.1872  0.0529
64277W        W65141   6.627  25.015   7.618 -0.1805 -0.0544  0.1725
64278W        W65142  25.682   7.103  16.471 -0.4096  0.3851 -0.1712
64279W        W65143  26.987  21.251  23.308  0.2227 -0.0993 -0.2889
64280W        W65144   1.140  21.152  18.514 -0.1641 -0.0455 -0.1706
64281W        W65145   6.316   3.524   5.176  0.0104  0.3789  0.1886
64282W        W65146  26.135   6.954  27.623 -0.1115  0.0042  0.1468
64283W        W65147   8.746  14.563  15.391 -0.1555 -0.2403 -0.1849
64284W        W65148   9.748  22.875  13.665 -0.0464 -0.1589 -0.2141
64285W        W65149  11.983   1.192   2.028  0.2648 -0.1498  0.1019
64286W        W65150  14.248  17.767   9.050  0.0057  0.0187 -0.0259
64287W        W65151  15.711   4.293   0.291  0.1130  0.1820 -0.0977
64288W        W65152  18.096  17.774  22.968 -0.3250  0.0585  0.0658
64289W        W65153  14.041  24.501   3.762 -0.1926  0.0539 -0.1729
64290W        W65154  15.984  14.332   4.796  0.1094  0.1027 -0.0596
64291W        W65155  26.889   0.335   3.193 -0.0590 -0.0580 -0.2233
64292W        W65156  17.349   1.283  24.228  0.1636  0.1468  0.1081
64293W        W65157  13.619   9.568   8.406 -0.0288 -0.0877  0.0367
64294W        W65158  22.986  27.069   3.501  0.1507 -0.4480  0.1991
64295W        W65159  11.918  16.696   5.282  0.1736  0.3335  0.1719
64296W        W65160   5.976   9.582   4.555  0.1225  0.2074  0.2461
64297W        W65161   3.005  14.090   1.354  0.2527  0.0840 -0.1043
64298W        W65162  27.800  26.121   2.015 -0.2369  0.0209 -0.6672
64299W        W65163  22.534   2.219  21.500 -0.0908  0.1040 -0.2111
64300W        W65164  18.550   8.328  21.578  0.3332  0.1637 -0.2309
64301W        W65165   9.954  22.684  21.850  0.1040 -0.1216  0.1538
64302W        W65166   6.655  14.026  18.489 -0.0784 -0.1800  0.1395
64303W        W65167   8.265   7.774  21.947  0.0136  0.0153 -0.0942
64304W        W65168   1.189   1.801  24.677 -0.1059  0.0902  0.2677
64305W        W65169   8.077  15.047  10.698  0.0495 -0.0916  0.2184
64306W        W65170  22.991  28.810  28.956  0.2472 -0.0076  0.2458
64307W        W65171  21.458  23.145   1.085  0.1326  0.0774 -0.1037
64308W        W65172   3.852  25.957  23.922 -0.2164  0.0658 -0.1109
64309W        W65173  18.902   9.124  18.887 -0.1721 -0.0634 -0.0047
64310W        W65174  11.922  25.685  12.182  0.0620  0.2342  0.3417
64311W        W65175  10.128   5.771   6.660 -0.1398  0.1349 -0.2241
64312W        W65176  24.334   1.775   1.234 -0.0096 -0.1796  0.0854
64313W        W65177   1.496   9.203  19.123 -0.5468  0.0913 -0.1202
64314W        W65178  10.031  22.653  24.436 -0.3111 -0.2182  0.0826
64315W        W65179  10.593   4.515   0.292 -0.0758  0.1622 -0.0896
64316W        W65180  19.491  23.563  24.430  0.2874  0.1448 -0.0574
64317W        W65181  22.132  21.653   4.866  0.0725  0.4582 -0.0828
64318W        W65182  27.637   6.168  23.099  0.0685 -0.1007  0.0063
64319W        W65183  17.535   7.463   1.458 -0.0569  0.2965 -0.0449
64320W        W65184  11.529   8.460   4.780 -0.1028  0.1702  0.3001
64321W        W65185  18.928  22.013  10.249  0.3619 -0.1275  0.0746
64322W        W65186   4.430  20.093  19.206  0.0283  0.1098  0.2267
64323W        W65187  15.365  27.696   5.129  0.0206  0.0255 -0.3472
64324W        W65188  20.530  24.450   7.610  0.0174 -0.0918  0.2882
64325W        W65189  25.897  22.601   3.289  0.2751  0.1278 -0.0861
64326W        W65190   6.885  17.925  27.492  0.0347 -0.2037  0.0968
64327W        W65191  11.748  10.800   0.375 -0.0568 -0.0797  0.0077
64328W        W65192  26.493   2.631  25.560  0.2832 -0.2068 -0.0344
64329W        W65193  10.670  17.038  25.117  0.2889 -0.0561 -0.1099
64330W        W65194  20.720  22.573  24.944  0.1200 -0.1225  0.1638
64331W        W65195  10.291  29.025   2.936  0.0525  0.0398  0.1254
64332W        W65196  26.503  16.982  15.948  0.0940 -0.0307 -0.2003
64333W        W65197  18.861   2.332   8.018 -0.2280 -0.0822  0.0853
64334W        W65198  21.084  16.835  27.747  0.3020 -0.3610 -0.4015
64335W        W65199  24.130  11.097  10.195  0.1618 -0.2026 -0.0853
64336W        W65200   0.790  12.100   0.288 -0.2396 -0.0099  0.2151
64337W        W65201  21.973   9.374  14.399 -0.0788 -0.0686 -0.1215
64338W        W65202  10.723  10.724  17.493 -0.2378  0.1823  0.0282
64339W        W65203  15.877   4.008  22.853  0.1660 -0.0109  0.2492
64340W        W65204  16.601  12.802   6.051 -0.1352 -0.2983  0.1836
64341W        W65205  26.703  14.021   2.208  0.1362  0.1482  0.0979
64342W        W65206  15.186  23.859  12.628  0.0588 -0.0248 -0.2072
64343W        W65207  26.434  27.700  11.940  0.0730 -0.1241 -0.2459
64344W        W65208  12.112  14.789   2.878 -0.1691  0.2538 -0.0043
64345W        W65209  16.094  23.956  25.137 -0.0927  0.2011  0.1488
64346W        W65210   8.148   9.403  13.944  0.0537 -0.2547  0.2161
64347W        W65211   7.665  27.984   0.331 -0.4227 -0.1215  0.1514
64348W        W65212   4.143  22.723  21.531 -0.1627  0.1003  0.1002
64349W        W65213  11.790  20.421  16.100  0.0160  0.2018  0.2896
64350W        W65214  20.182  28.466  16.694  0.1350  0.0413 -0.1370
64351W        W65215  25.101  21.780   0.391  0.0568  0.2417  0.2315
64352W        W65216  16.726  12.791   9.598  0.1567 -0.2794 -0.0852
64353W        W65217  10.940   9.413   7.309  0.0067  0.0276  0.3187
64354W        W65218  11.067  26.081  25.179  0.3752  0.1400  0.0447
64355W        W65219  11.841  21.864  28.333 -0.3882  0.4265 -0.2491
64356W        W65220   1.163  15.569  10.364 -0.0332 -0.0319 -0.0101
64357W        W65221  27.789  16.640   1.054  0.2109 -0.0467  0.0896
64358W        W65222  22.246   8.329   2.124  0.2041  0.2348 -0.0472
64359W        W65223   0.922   5.776  20.745  0.0161  0.0037  0.3207
64360W        W65224  27.606  17.423  25.023  0.1017 -0.2907  0.1358
64361W        W65225  24.629  27.088  21.751 -0.5457 -0.1939 -0.0827
64362W        W65226   0.691  19.278  10.504 -0.2288  0.2154  0.0803
64363W        W65227  17.384  10.206  12.355  0.0304 -0.0926 -0.0744
64364W        W65228  15.561   1.868  27.962  0.2258  0.2254 -0.0017
64365W        W65229  11.946  27.312   6.000 -0.2136  0.0303 -0.1600
64366W        W65230   1.252  14.303   3.194  0.2657  0.0175 -0.1862
64367W        W65231   5.694  21.721  11.745  0.2033 -0.1297 -0.1205
64368W        W65232   3.106   4.312   6.957 -0.0539 -0.0129  0.0983
64369W        W65233  18.042  28.494  11.576 -0.2401 -0.4209  0.0376
64370W        W65234  17.464  25.333  26.922  0.2039  0.1309  0.0826
64371W        W65235   3.317   6.934  20.676  0.1360  0.0569  0.1826
64372W        W65236   6.812   7.798   9.041 -0.0823  0.1248 -0.0250
64373W        W65237  20.643   7.591  14.364  0.1795  0.1886  0.3365
64374W        W65238  28.856  17.832  24.532  0.1195  0.1349 -0.1995
64375W        W65239  13.922  19.094  18.885  0.1336  0.0463 -0.0104
64376W        W65240   8.637   4.508  26.884 -0.3285  0.2439 -0.1077
64377W        W65241  24.678  25.319  21.763  0.0095 -0.1346  0.1686
64378W        W65242  24.650  13.347   6.548 -0.0616 -0.0127  0.2865
64379W        W65243   4.036  15.904   7.886 -0.1230 -0.0663 -0.0421
64380W        W65244  17.402  23.252  23.847  0.1045  0.0421 -0.0282
64381W        W65245  27.503  10.673   5.960 -0.1460  0.1555  0.2710
64382W        W65246  15.380   8.135   9.035 -0.1064 -0.2324 -0.2917
64383W        W65247  14.610  24.360   2.539 -0.2685 -0.0579  0.4493
64384W        W65248  25.542   4.805   4.827  0.3194 -0.0399 -0.1766
64385W        W65249  20.762  18.798   4.880  0.0312 -0.1992 -0.0454
64386W        W65250  19.304  23.460  28.976  0.0175  0.0604  0.0611
64387W        W65251  28.565  13.886   9.072 -0.0886  0.0745  0.1613
64388W        W65252  21.949  28.054   3.885  0.0921 -0.4081 -0.1934
64389W        W65253   2.712  13.574   5.352  0.3880 -0.0114 -0.0949
64390W        W65254  16.149  26.868  24.116  0.0524  0.1918 -0.0583
64391W        W65255   3.560  23.453  23.831  0.0673  0.1208 -0.2544
64392W        W65256  14.957  23.139  10.316 -0.0627  0.1665 -0.0546
64393W        W65257  27.027  22.245  12.337  0.1034 -0.2291  0.3186
64394W        W65258  10.791   4.338  27.529 -0.0685  0.0767  0.4154
64395W        W65259  18.342  27.679  12.158 -0.0004  0.1401  0.0122
64396W        W65260   0.207   2.353  26.974  0.2137 -0.1948 -0.1067
64397W        W65261  19.694  20.267  14.439 -0.0593  0.1123  0.1917
64398W        W65262  10.983   6.858   1.908  0.0843  0.0041  0.2236
64399W        W65263  18.095   9.541  10.055 -0.2216 -0.1118  0.0833
64400W        W65264  18.251   5.770   7.255  0.0922 -0.1827 -0.0314
64401W        W65265   9.249  21.136  12.476  0.1004  0.0446  0.1189
64402W        W65266  23.132   8.699  21.394  0.1831 -0.1348 -0.1576
64403W        W65267   6.360  16.414  16.247 -0.0039  0.2047  0.1629
64404W        W65268   5.531  14.353  24.136  0.2069 -0.1789  0.1631
64405W        W65269   7.224  20.189   2.516 -0.0621 -0.2177  0.2029
64406W        W65270  17.259   5.077  22.717 -0.5225 -0.0924 -0.1067
64407W        W65271  27.060  21.676   0.505 -0.0489 -0.1269  0.1852
64408W        W65272  19.060  12.613  13.403  0.0166 -0.1829  0.0003
64409W        W65273  10.919   8.702  20.364 -0.1634  0.0971  0.0625
64410W        W65274   8.859  26.197   4.794  0.1818  0.0105  0.1066
64411W        W65275  17.700  14.006   9.579  0.0179  0.0375  0.0078
64412W        W65276  28.640  20.899   0.621 -0.1105 -0.2067 -0.1402
64413W        W65277   9.037  13.325   5.474  0.0384 -0.3045  0.0241
64414W        W65278  24.379  28.071   4.540  0.1077  0.1816 -0.1063
64415W        W65279  11.525   4.851   6.380  0.1011  0.0623  0.0864
64416W        W65280   6.152  25.059   2.971  0.0105 -0.0385  0.1102
64417W        W65281  17.743   5.785  20.028  0.0409  0.0089 -0.4309
64418W        W65282  10.841   3.347   8.026  0.0062 -0.2805 -0.2250
64419W        W65283  17.161  23.091   4.583  0.4364  0.0825 -0.3239
64420W        W65284  12.651  19.676  21.840  0.0376  0.1533  0.2557
64421W        W65285  12.888  27.124   1.336 -0.2156 -0.1650 -0.0459
64422W        W65286   3.852  18.686  28.535 -0.2678  0.0263  0.1782
64423W        W65287  13.057   2.443   1.913  0.0759 -0.4674 -0.1672
64424W        W65288  26.764  17.160  10.709  0.1865 -0.0342  0.0799
64425W        W65289  20.657  20.348  19.824 -0.0110  0.1889  0.0858
64426W        W65290   8.967  12.058   2.084 -0.0926 -0.0297  0.1948
64427W        W65291  11.959   1.298  13.108  0.0480 -0.1454 -0.1001
64428W        W65292  26.330  16.708   8.820  0.0418 -0.1305  0.1984
64429W        W65293   0.808  14.101  14.702  0.0677  0.0011 -0.3048
64430W        W65294   0.460  16.336  26.805  0.0168  0.0104 -0.0405
64431W        W65295  11.419   5.009  27.899  0.0486  0.2209 -0.2041
64432W        W65296   4.125   9.114  20.431 -0.0354 -0.1490  0.3410
64433W        W65297   7.772  15.249  19.482 -0.0678 -0.2886 -0.0403
64434W        W65298  10.273  24.236   6.767 -0.2648  0.1981  0.0163
64435W        W65299  11.891  19.349   7.965 -0.4721  0.0753 -0.2449
64436W        W65300   1.735   2.250  26.862  0.0695 -0.0047  0.2230
64437W        W65301  18.316  17.444  27.396 -0.0133 -0.0508  0.2049
64438W        W65302  26.699   2.378  19.925  0.0240 -0.0170  0.0817
64439W        W65303   1.223  28.021   1.186  0.1242  0.0324 -0.0848
64440W        W65304  16.214  11.316   8.335  0.1385  0.0882  0.0870
64441W        W65305   3.631  15.435  24.235 -0.0530 -0.0043 -0.0833
64442W        W65306  20.738  29.058   8.049 -0.0569  0.2324 -0.3650
64443W        W65307   7.002  21.893   6.608  0.1994  0.0333  0.2139
64444W        W65308  20.857  13.829  24.111  0.1635 -0.2273 -0.3317
64445W        W65309  17.222  12.592   4.193 -0.1622 -0.2379  0.2697
64446W        W65310   0.961  23.273  16.120 -0.1347 -0.1486 -0.2763
64447W        W65311  13.803  12.974  22.380 -0.0719 -0.0950  0.0126
64448W        W65312   1.224  15.797   8.767 -0.2924 -0.0815 -0.3784
64449W        W65313  28.874  13.790  23.274  0.0366 -0.0322  0.2959
64450W        W65314  16.222  15.782  19.608 -0.1635 -0.0645 -0.2008
64451W        W65315   0.295  12.582   3.023 -0.0732 -0.2916  0.1408
64452W        W65316  16.760  12.882   3.365  0.2526 -0.0225 -0.0713
64453W        W65317  14.528  22.898  28.845  0.0757  0.0826  0.0232
64454W        W65318   7.939  20.153  23.299 -0.1278  0.1448 -0.0209
64455W        W65319  10.080  23.289  28.292 -0.1486 -0.2717  0.2432
64456W        W65320  25.241  20.968  15.583  0.0478 -0.1639  0.1509
64457W        W65321  27.714  21.519   1.925 -0.0389 -0.0416  0.1322
64458W        W65322   2.735  17.518   6.790 -0.0053  0.1444 -0.2482
64459W        W65323   3.494   8.205   5.896 -0.0787  0.1346  0.3700
64460W        W65324  10.784   5.253  19.232  0.1074 -0.1518  0.1943
64461W        W65325  20.278   2.773  28.927 -0.0800  0.1761 -0.0361
64462W        W65326   2.947  29.009  26.245 -0.0714 -0.1139  0.0927
64463W        W65327   4.395   0.479  23.140  0.0997  0.1287  0.1726
64464W        W65328   1.047  20.835  20.345 -0.0513 -0.0146  0.0420
64465W        W65329   5.618  17.066   7.539 -0.1178 -0.1465  0.4756
64466W        W65330   9.354  18.424  11.406  0.0060 -0.2583 -0.0835
64467W        W65331  26.357  12.843  29.051 -0.0070 -0.0211 -0.2248
64468W        W65332   3.669  22.205  20.210  0.1724 -0.0414  0.0454
64469W        W65333   6.706  14.118  26.236  0.0567 -0.1776 -0.0766
64470W        W65334   7.044  15.776  27.052 -0.0613  0.0513  0.0749
64471W        W65335   0.151  18.060  24.263  0.3728 -0.3264  0.1757
64472W        W65336   9.655  19.480  26.548  0.0319 -0.5007  0.1766
64473W        W65337   9.133  21.865  23.267  0.0799 -0.1176 -0.3603
64474W        W65338  10.043  21.978  18.403  0.2625  0.0272 -0.3210
64475W        W65339  13.375  11.210   8.925 -0.4606  0.0026 -0.2725
64476W        W65340  20.736  28.249  13.713 -0.0017 -0.0720 -0.3375
64477W        W65341   2.986   7.320   8.309  0.1557  0.0246  0.0035
64478W        W65342  26.583  28.545   4.664 -0.2020 -0.0709  0.2374
64479W        W65343   8.733   7.744  17.371  0.0817  0.0242  0.0839
64480W        W65344   8.071  27.557  11.177 -0.0110 -0.0804  0.3636
64481W        W65345  11.548   6.531  11.732 -0.1615 -0.1941 -0.1514
64482W        W65346  25.587  14.961   6.420 -0.0181  0.3175 -0.0616
64483W        W65347   8.683  11.056  10.741 -0.3097  0.1514  0.0207
64484W        W65348  18.229  13.778   4.009  0.0519  0.0203 -0.0623
64485W        W65349  19.136   1.533  10.989  0.0062  0.1667 -0.2476
64486W        W65350  15.126   5.988  26.859  0.1957 -0.1500 -0.1647
64487W        W65351   9.704  18.668  26.071  0.3407  0.2376  0.1468
64488W        W65352   6.362  24.188  27.864  0.1399 -0.4646  0.0047
64489W        W65353  26.473  21.226  28.926 -0.2870 -0.1734 -0.1754
64490W        W65354  16.026  14.571  10.062  0.1534 -0.1056  0.0060
64491W        W65355  20.651  13.602  28.185  0.0938  0.4446 -0.3161
64492W        W65356  12.318  28.297   2.788  0.2712 -0.0775  0.0027
64493W        W65357  21.531  26.437  18.722 -0.0484 -0.1195 -0.0369
64494W        W65358   7.215  23.710   6.282  0.1196 -0.1521  0.0867
64495W        W65359  26.065   7.899  27.858 -0.0049  0.1377  0.0260
64496W        W65360  24.735  24.400   4.108 -0.0643  0.0418 -0.4055
64497W        W65361  28.006  23.038   8.728  0.2929 -0.2555 -0.0368
64498W        W65362  12.183   3.505  29.081  0.5192  0.1608 -0.0300
64499W        W65363   1.688  17.991  23.996 -0.2699 -0.0622 -0.0915
64500W        W65364   9.429  14.094   9.565 -0.0276  0.1878  0.3483
64501W        W65365  25.886  14.451   2.708  0.1035  0.1110 -0.1932
64502W        W65366   7.272  27.526  18.584  0.0699 -0.2165  0.0345
64503W        W65367   9.840   0.460  28.499  0.1891 -0.3715  0.4042
64504W        W65368  22.231  11.954  28.786  0.0759  0.0687 -0.1083
64505W        W65369   6.439   6.570   8.218  0.3272 -0.0955  0.1868
64506W        W65370  18.488   2.711  27.669 -0.0314  0.1247 -0.2783
64507W        W65371   6.997   4.941  25.449 -0.0803 -0.4658 -0.2388
64508W        W65372  12.769   0.299  23.332 -0.1350  0.1590 -0.2040
64509W        W65373   7.231  21.517  12.357 -0.3062 -0.1443  0.3213
64510W        W65374  29.081  17.518   7.600  0.0796 -0.1031  0.0002
64511W        W65375   7.048  28.084  22.385 -0.0606 -0.0147  0.5601
64512W        W65376  26.239  27.989   9.028 -0.1273  0.2827 -0.2942
64513W        W65377   0.289   6.927  19.651  0.1453 -0.1643 -0.1839
64514W        W65378   4.137  19.172   4.073  0.0218 -0.0254 -0.5092
64515W        W65379   8.062   2.607   9.127 -0.1449  0.0624  0.0242
64516W        W65380  11.576   9.270   2.526 -0.1735 -0.0794  0.1446
64517W        W65381   7.841  15.923  25.568  0.1494 -0.3869  0.2145
64518W        W65382  15.929   9.885  27.665  0.0325 -0.4004  0.2094
64519W        W65383   2.275  10.356  22.864  0.0808  0.2821  0.1155
64520W        W65384  28.664   6.894  13.249 -0.1133  0.2837 -0.0600
64521W        W65385  10.273  22.510  19.016  0.1634  0.2101 -0.4574
64522W        W65386   5.113  24.502  17.900 -0.1630 -0.1135 -0.0063
64523W        W65387  20.248   9.022   9.044 -0.1928  0.1133 -0.0582
64524W        W65388   0.230  11.598  19.980  0.2678  0.1540 -0.1090
64525W        W65389  21.468  25.047  26.039  0.0420  0.1303 -0.0302
64526W        W65390   9.149  23.889   1.410  0.0178 -0.1085  0.2485
64527W        W65391  19.009  14.095  22.662 -0.0324  0.1404 -0.0117
64528W        W65392  11.188  26.719  22.312  0.0566  0.1108  0.0454
64529W        W65393  27.193  21.758  26.382 -0.2474 -0.3314 -0.1769
64530W        W65394   8.670  14.890   0.694  0.1024 -0.1484 -0.0852
64531W        W65395  16.331  14.090  11.492 -0.0722  0.0652  0.0381
64532W        W65396  25.716  20.022   6.023  0.0306 -0.2820  0.1597
64533W        W65397   1.326   4.106   8.825  0.1382 -0.0830  0.1811
64534W        W65398   1.221   9.279  14.608  0.0141  0.1461  0.0387
64535W        W65399   6.310   8.686  25.912 -0.0518  0.1582  0.0124
64536W        W65400  17.499  23.166   1.780  0.0279  0.1750  0.1305
64537W        W65401  16.644  27.475  22.498  0.1428 -0.1330  0.3650
64538W        W65402  16.801   0.106  14.140  0.1600 -0.0647  0.1276
64539W        W65403   6.522   9.367   4.424  0.0087 -0.1979 -0.0130
64540W        W65404  18.325  20.489  19.076  0.0909  0.0224  0.1258
64541W        W65405   7.162  14.758  24.553  0.2022  0.0404  0.0167
64542W        W65406   7.651   2.303   5.001 -0.2621 -0.2024 -0.0462
64543W        W65407  14.411   4.309   7.586 -0.4486 -0.1633  0.1625
64544W        W65408  10.287  23.858  23.073  0.2570  0.2335 -0.0397
64545W        W65409   5.816  20.618  28.250  0.1712 -0.1726 -0.1181
64546W        W65410  17.009  20.826  22.509 -0.1014  0.0035  0.2734
64547W        W65411  11.216  16.417   6.256  0.0702 -0.1159 -0.1543
64548W        W65412  23.409  19.275   2.325  0.0981  0.1068 -0.0527
64549W        W65413  26.465  12.612   1.144  0.0422 -0.0038 -0.1642
64550W        W65414  16.154  13.167   6.262  0.1089 -0.2164 -0.1868
64551W        W65415  25.591   1.460  21.382  0.0785  0.2399 -0.1596
64552W        W65416  16.096  19.392  21.900 -0.3256  0.3688 -0.0342
64553W        W65417  23.708  24.217   8.305 -0.0827 -0.2858  0.0218
64554W        W65418   0.390   0.745  25.130  0.1703  0.1652 -0.1517
64555W        W65419   1.807  17.449   8.525 -0.0808 -0.0045 -0.1481
64556W        W65420   7.757  26.022  25.996  0.0958 -0.3215  0.0212
64557W        W65421   3.330  25.049   1.384  0.1129  0.1996 -0.2712
64558W        W65422  21.460  11.174  17.868  0.0021  0.1594  0.3221
64559W        W65423   2.994  12.370   8.457  0.0992 -0.1265  0.2996
64560W        W65424  10.987   7.459  26.869 -0.0497  0.0391  0.0657
64561W        W65425   2.810  22.502  12.062  0.2747  0.2681 -0.0147
64562W        W65426   5.710   4.468   7.620 -0.0676  0.1521  0.0608
64563W        W65427  16.240  11.377  22.835 -0.1822  0.1143  0.1110
64564W        W65428  11.964  13.436   7.055 -0.0446  0.1269  0.1686
64565W        W65429  26.638  11.961  27.359  0.1454  0.1568  0.2907
64566W        W65430  20.502  20.019   9.914  0.3512 -0.3696 -0.1382
64567W        W65431  26.352  11.899   9.490 -0.1484 -0.1935  0.2145
64568W        W65432  22.383  18.207  25.874 -0.2010  0.1503  0.0070
64569W        W65433  21.835  18.157  16.200 -0.1559 -0.0588 -0.0313
64570W        W65434   8.876  14.919  26.149  0.0283 -0.0559  0.3655
64571W        W65435  20.196  10.988  27.006  0.3247 -0.0697  0.5295
64572W        W65436  28.607   1.203  14.551 -0.1512  0.0534  0.0855
64573W        W65437  11.841  10.572  23.289 -0.0134 -0.3721 -0.0621
64574W        W65438  12.717  11.716   8.937 -0.1354  0.1713 -0.1025
64575W        W65439  18.333  17.144  25.263  0.1496 -0.0383 -0.0011
64576W        W65440  19.518   8.347   3.253 -0.0043 -0.1340 -0.0892
64577W        W65441  11.401   1.180   1.425 -0.1370 -0.1488  0.0053
64578W        W65442  26.295  15.522   4.680 -0.0553 -0.2222  0.0513
64579W        W65443   9.778  18.928  17.150 -0.0577 -0.0930 -0.0679
64580W        W65444  16.949  12.196   5.576 -0.1231 -0.1287  0.1728
64581W        W65445  18.347   5.287  28.308 -0.0100 -0.1271  0.1457
64582W        W65446   1.956   7.667  15.774  0.2615  0.1389 -0.3678
64583W        W65447  24.601   6.368   9.353 -0.0096  0.1962  0.1673
64584W        W65448  21.111   7.939  23.350  0.2808 -0.0982 -0.0829
64585W        W65449  11.625  25.560  19.397 -0.0377  0.1732  0.0280
64586W        W65450   0.339  13.276  27.713 -0.0900 -0.0742 -0.0238
64587W        W65451  23.147  15.495  22.010 -0.1095  0.1578 -0.2084
64588W        W65452   1.197   5.067   8.580 -0.2443 -0.0629  0.1100
64589W        W65453   1.935  13.524   6.592  0.0265 -0.0620 -0.1829
64590W        W65454   6.106   2.048  13.240  0.1626  0.0523  0.0229
64591W        W65455  11.390   7.936   0.281  0.1841  0.2786 -0.0208
64592W        W65456  14.271  12.186  25.580  0.4334  0.1550 -0.2038
64593W        W65457  12.173  26.562  23.718 -0.2134 -0.0736 -0.2510
64594W        W65458  13.349  27.892  27.798 -0.0228 -0.2433  0.3496
64595W        W65459  14.110  22.928   6.568  0.1053 -0.0555 -0.3399
64596W        W65460   5.976   9.191  25.868 -0.0156 -0.1749 -0.2489
64597W        W65461  12.011   9.073  25.750  0.2041  0.1340 -0.3076
64598W        W65462  13.306   1.920  23.364 -0.0056 -0.2712  0.0865
64599W        W65463   3.816   5.540   3.373 -0.3086  0.1547  0.1750
64600W        W65464  13.819  28.709  25.119 -0.1928 -0.2302 -0.1151
64601W        W65465  28.758  10.736   4.299 -0.3333  0.0331  0.2172
64602W        W65466   5.538   8.978  23.332  0.1099 -0.2148  0.0066
64603W        W65467  12.624  17.940   3.521 -0.0408  0.3044 -0.2185
64604W        W65468  29.036  24.196  27.881  0.0458 -0.1395  0.2245
64605W        W65469  27.612   6.730  10.788 -0.1278 -0.1325 -0.2045
64606W        W65470   6.930  14.963   0.620  0.1575 -0.0408 -0.1344
64607W        W65471  27.538   0.102  28.519  0.0805  0.2954 -0.2045
64608W        W65472  10.827   2.551   2.475 -0.1099 -0.0683  0.2293
64609W        W65473   4.030  13.960  24.084  0.0345 -0.2435 -0.0347
64610W        W65474   1.167  12.516   8.399 -0.0950 -0.0870  0.0001
64611W        W65475   2.795  24.821   6.204 -0.2973 -0.0170  0.0734
64612W        W65476  21.996  13.665   2.791 -0.3405 -0.0450 -0.0852
64613W        W65477   0.615  20.744   4.054 -0.1428  0.0910 -0.1802
64614W        W65478   5.899  19.219  13.358  0.0122 -0.5284 -0.1184
64615W        W65479  21.197   2.035  27.400 -0.1476  0.1756  0.2925
64616W        W65480   5.659   5.655   1.791  0.0135  0.1032  0.3331
64617W        W65481  10.436  22.269   4.271  0.0040  0.0657 -0.1612
64618W        W65482   0.503  13.306  11.481  0.0812  0.0187  0.0235
64619W        W65483   0.219   0.567   6.197  0.2385 -0.5152  0.3426
64620W        W65484   2.283  15.202  14.422 -0.1386 -0.1433  0.2590
64621W        W65485   5.913   9.091  20.903 -0.1558  0.0068  0.2134
64622W        W65486  23.746  13.453  11.184 -0.0124 -0.1578 -0.0859
64623W        W65487  23.876  17.293   7.636  0.0260 -0.3526 -0.3107
64624W        W65488   1.174  17.348   4.877 -0.4207 -0.1035  0.1580
64625W        W65489  14.510  12.809   5.615 -0.0993 -0.1040 -0.0383
64626W        W65490   5.932  26.454  15.598  0.2980 -0.2749 -0.1199
64627W        W65491   4.575   9.028  26.954  0.0763  0.2442 -0.0763
64628W        W65492  25.630   6.953  27.320 -0.1535 -0.2599  0.0812
64629W        W65493  16.617  20.655   1.542 -0.0445  0.0684 -0.0189
64630W        W65494  27.485  19.775  24.054 -0.2847  0.4205  0.0877
64631W        W65495   0.507  17.209  14.959 -0.3009 -0.0504  0.0661
64632W        W65496  17.767  14.864   1.982  0.1703 -0.0828  0.1206
64633W        W65497  26.397   1.506   9.915 -0.2048 -0.0600  0.2086
64634W        W65498   5.672  17.175  25.876 -0.0203  0.1139 -0.1121
64635W        W65499  13.701  20.250  10.801 -0.0025 -0.1742 -0.0578
64636W        W65500  19.993  17.826  20.415  0.1421 -0.1881  0.2168
64637W        W65501   8.824  18.199  18.650 -0.2749  0.1052  0.2423
64638W        W65502  10.562   9.240  24.261 -0.4634  0.0705 -0.0302
64639W        W65503   3.073   2.536  14.037  0.1726 -0.0458 -0.0283
64640W        W65504   2.764   7.070   5.416  0.2221 -0.2710 -0.1064
64641W        W65505   6.891  19.247  19.749  0.0314  0.1364 -0.2045
64642W        W65506  26.365   0.976  28.515 -0.0235  0.1200 -0.2477
64643W        W65507  17.013   4.094   0.902  0.1691 -0.0194  0.2205
64644W        W65508  16.764  27.679  25.427 -0.0423  0.0706  0.2343
64645W        W65509   5.484  12.351  11.315  0.1782  0.2569  0.1808
64646W        W65510  22.682  12.665   1.791  0.1414  0.2533  0.2904
64647W        W65511   1.155  13.135  28.623 -0.0202  0.2112 -0.1126
64648W        W65512   6.351  23.940  25.121  0.3779  0.0876 -0.4785
64649W        W65513  14.706  20.238   5.926  0.1045  0.1440  0.1025
64650W        W65514   9.651   0.611   6.774 -0.1966 -0.1087  0.4573
64651W        W65515   7.839  12.791  12.062 -0.0200 -0.1294  0.0741
64652W        W65516  19.165  11.828   9.840 -0.2313 -0.0971 -0.1156
64653W        W65517  10.997   8.806   2.938  0.0292  0.1625 -0.1117
64654W        W65518  22.809   7.675   5.923 -0.0302 -0.2015  0.3005
64655W        W65519   3.694  17.084  24.635  0.0166 -0.3251  0.0201
64656W        W65520  12.704  14.650  24.699 -0.0034  0.0506  0.0895
64657W        W65521   8.128   4.307  12.521  0.4975 -0.1139  0.1279
64658W        W65522  20.258  24.160  21.566  0.1826  0.2958  0.0769
64659W        W65523  10.402  22.159  13.303  0.2482  0.0548  0.1479
64660W        W65524  26.845   7.787  16.811 -0.1968  0.0568 -0.2064
64661W        W65525  10.341   6.430   4.789  0.0377  0.0644  0.0522
64662W        W65526  13.281  10.378  29.087  0.1668  0.0345 -0.3422
64663W        W65527  13.705  28.227  12.691  0.0649 -0.0140  0.0708
64664W        W65528  21.879  11.651  12.242  0.0889 -0.0965  0.1217
64665W        W65529   5.408  16.204  16.197  0.2736 -0.0261  0.1590
64666W        W65530  28.202  11.430   7.702  0.1290  0.0797  0.1594
64667W        W65531   8.971  14.122  12.322 -0.1297 -0.1631  0.1715
64668W        W65532  19.444  17.111  15.455  0.0086  0.0539  0.1183
64669W        W65533  23.841   3.067   8.278  0.2261 -0.3377 -0.3631
64670W        W65534   3.866  22.581   7.527  0.2177 -0.1904  0.2592
64671W        W65535   6.630  10.586  10.617  0.1889  0.1565 -0.1312
64672W        W65536  28.944  15.864  25.445  0.3097 -0.0609 -0.0582
64673W        W65537  10.480  15.702   2.047 -0.1510 -0.0852 -0.1652
64674W        W65538  12.159  10.509   1.696  0.0287  0.1579 -0.1175
64675W        W65539  27.161  19.904  12.964 -0.3003  0.0952 -0.2555
64676W        W65540  12.976  15.604   1.479 -0.1937 -0.0504  0.0366
64677W        W65541   5.418  18.165   4.700 -0.3005  0.0620 -0.2256
64678W        W65542   8.370  16.493  25.794 -0.1887 -0.1835  0.1171
64679W        W65543   3.764  27.237  24.214 -0.0658  0.4907 -0.3296
64680W        W65544  11.271   2.335  25.660  0.0793 -0.2360 -0.3439
64681W        W65545  14.498  24.810  17.641  0.2862 -0.2645 -0.1059
64682W        W65546  20.733  23.710   9.947 -0.1846 -0.2689 -0.0120
64683W        W65547  26.015  19.297  21.746  0.0535  0.1656 -0.1261
64684W        W65548  27.400  19.094   0.039  0.2675  0.0270  0.0366
64685W        W65549  12.378  20.210   9.689  0.3466  0.1673  0.0829
64686W        W65550   4.980  26.526  25.765  0.3141 -0.0456  0.0108
64687W        W65551  11.199  16.523   8.481  0.0193  0.2562  0.0648
64688W        W65552  11.005   6.881   3.672 -0.1688  0.0962 -0.0217
64689W        W65553  22.333  28.640   0.388  0.1029  0.0860  0.1410
64690W        W65554   4.921   4.969  23.161  0.1818 -0.0499 -0.2460
64691W        W65555   8.195  24.128  14.655  0.1120 -0.0256  0.3416
64692W        W65556  15.782   5.430  28.892  0.1349 -0.2434  0.2301
64693W        W65557  15.019   9.600  28.511  0.3095 -0.1009  0.1538
64694W        W65558  10.052   5.501  26.666  0.0175  0.0073 -0.0212
64695W        W65559   7.553  20.020  12.723  0.0682 -0.0385 -0.2083
64696W        W65560  21.874  22.531  27.187 -0.0090  0.1498 -0.0685
64697W        W65561   6.870  22.700  28.484 -0.1826 -0.0324  0.0994
64698W        W65562   1.626  11.651  26.013 -0.0237 -0.2160 -0.0772
64699W        W65563   8.367  17.312   4.922 -0.3554 -0.1246 -0.3029
64700W        W65564  19.058   8.907  28.436 -0.0534  0.1727 -0.1533
64701W        W65565   9.797  28.854  18.069 -0.2298  0.2940  0.3890
64702W        W65566   9.209  27.577  10.362 -0.0847  0.2717 -0.0727
64703W        W65567   1.200   4.467  11.762 -0.1778  0.1958  0.1421
64704W        W65568  12.730   0.676  16.872  0.0385 -0.0565  0.0571
64705W        W65569  10.705  23.741  18.449 -0.0789 -0.2119 -0.0830
64706W        W65570  11.873   6.021   3.193 -0.0697  0.3322 -0.1773
64707W        W65571  13.231  26.031   9.020 -0.1869 -0.1314  0.0916
64708W        W65572  11.412   6.431  23.815 -0.0965  0.1828 -0.1838
64709W        W65573  13.344   0.325   3.056  0.1040 -0.0004  0.1574
64710W        W65574  13.766  16.988  15.637 -0.2752  0.0410  0.3161
64711W        W65575   3.765   9.682   6.517  0.3115  0.0734 -0.1629
64712W        W65576  27.036  11.559   2.729 -0.1166 -0.0943 -0.1670
64713W        W65577  17.555  15.358   9.579 -0.2539 -0.3838  0.0596
64714W        W65578  18.878  14.064  25.940  0.1659  0.1616  0.2764
64715W        W65579  11.019  12.838  21.681 -0.4307 -0.0576  0.1662
64716W        W65580   4.771  24.393  10.774  0.0627 -0.0313  0.1437
64717W        W65581  13.435  14.874   7.648 -0.1677 -0.2312 -0.1820
64718W        W65582  26.151  25.821   7.568  0.0978  0.0202  0.1958
64719W        W65583   3.503   4.436  11.465  0.0325  0.0842 -0.0503
64720W        W65584   9.193   4.115  26.377 -0.1627  0.5350 -0.1712
64721W        W65585   3.620  27.520   5.307 -0.2756 -0.2199  0.1553
64722W        W65586  20.375  15.400  22.318  0.2822  0.2891  0.1307
64723W        W65587  22.555  13.966  24.525  0.1056 -0.2652  0.0770
64724W        W65588  14.385  23.369   3.701  0.0766 -0.0306  0.3395
64725W        W65589   5.531  13.606   9.665 -0.1319  0.1400  0.0400
64726W        W65590  18.607  20.805  19.872  0.2630 -0.1354  0.0222
64727W        W65591   0.606   7.076   1.905  0.1570  0.0122  0.0100
64728W        W65592  12.730  12.426  21.388 -0.0272  0.0754  0.1309
64729W        W65593   8.654   5.395   5.831  0.0109 -0.1734  0.1444
64730W        W65594   6.483  22.017  20.101 -0.0735 -0.0644 -0.0202
64731W        W65595  20.580  11.822  13.224 -0.1029 -0.0135  0.4127
64732W        W65596   8.014   2.570  23.005 -0.2625 -0.1008 -0.2061
64733W        W65597  15.052  12.240   8.420 -0.0654  0.0312  0.2530
64734W        W65598   4.511   0.400   8.763 -0.2977  0.0868 -0.0145
64735W        W65599  11.678  17.043   7.335 -0.1208  0.2303  0.1045
64736W        W65600  10.421   3.068  10.661  0.1862  0.1304 -0.1636
64737W        W65601  16.569  21.073   1.042 -0.0014  0.1946 -0.0952
64738W        W65602  20.858  15.504   0.660 -0.1146  0.1603  0.2828
64739W        W65603  28.765  13.420  15.640 -0.0251  0.0191  0.2655
64740W        W65604   5.488   9.098   6.120 -0.2934 -0.0077 -0.0636
64741W        W65605   3.771  22.678  17.761  0.2152  0.0761  0.3593
64742W        W65606  14.638  10.469  26.479 -0.0635 -0.1074  0.1358
64743W        W65607  16.112   1.793  11.491 -0.2582  0.0692  0.0144
64744W        W65608   4.236  19.687  20.867  0.2976  0.1668  0.2057
64745W        W65609  16.281  21.027   3.982 -0.0095 -0.1732 -0.0011
64746W        W65610  11.714  10.408  28.718  0.0403  0.1284 -0.1758
64747W        W65611  24.356  14.859  15.808  0.0119  0.0121 -0.2872
64748W        W65612  16.566   4.910   6.650  0.0207 -0.2685 -0.1484
64749W        W65613  11.738  26.062  25.867  0.0689 -0.1261 -0.0064
64750W        W65614  24.673   7.915   7.713 -0.2171  0.2932 -0.1308
64751W        W65615  27.573  11.646  18.695  0.2580 -0.2001 -0.0985
64752W        W65616  10.165   4.698   2.536 -0.2671 -0.0799 -0.0823
64753W        W65617   0.413   5.903   5.958 -0.1260  0.0155  0.1186
64754W        W65618   3.327  16.071   5.579  0.0757 -0.3408 -0.0784
64755W        W65619  19.357   7.612   1.547 -0.2898 -0.2941  0.1236
64756W        W65620   4.886  23.024   1.378 -0.0532  0.0056 -0.0530
64757W        W65621  13.281  26.233  21.567 -0.0699 -0.0292  0.1352
64758W        W65622  12.854   3.694  14.492  0.0322  0.0019  0.1357
64759W        W65623   6.358   7.648   4.968  0.2015  0.1351  0.1519
64760W        W65624   7.793  15.269  28.791 -0.2531  0.1064  0.2633
64761W        W65625  16.320  13.133   5.719  0.1115 -0.1638  0.0482
64762W        W65626  28.092  15.005  19.634 -0.0009  0.1295 -0.5631
64763W        W65627   6.015  13.290   1.501 -0.3324  0.0912 -0.0722
64764W        W65628  12.308  14.084   8.461 -0.2441  0.1040  0.1441
64765W        W65629   4.428   4.025  27.713 -0.0960  0.1756 -0.0798
64766W        W65630  27.757  17.741   4.923 -0.0069 -0.0349  0.3092
64767W        W65631  24.183   7.035   0.440 -0.2657 -0.0709 -0.3528
64768W        W65632   8.779  19.730   0.435  0.0545 -0.0263  0.3613
64769W        W65633   8.491   2.833  24.052 -0.0018  0.0815 -0.0488
64770W        W65634  15.488   1.195   8.229 -0.2301  0.1064 -0.0511
64771W        W65635  15.459  11.203  26.678  0.2226 -0.0951  0.0538
64772W        W65636   6.766  23.612   6.670  0.0218  0.0429  0.0526
64773W        W65637  27.447  15.833  26.150  0.0490 -0.2152  0.2004
64774W        W65638   6.587  23.607  19.171 -0.0590 -0.5591  0.0446
64775W        W65639  25.330  28.878  26.674  0.0486  0.1091  0.0191
64776W        W65640  19.063  11.102  10.370 -0.3857  0.0185 -0.0988
64777W        W65641  20.140   5.003  11.964 -0.3173  0.1073  0.0554
64778W        W65642  22.830  25.535  24.389  0.0319 -0.1653  0.1486
64779W        W65643  16.484   4.343   2.681  0.0595  0.0090  0.2619
64780W        W65644   8.701   3.209  22.868 -0.1923  0.0121  0.0544
64781W        W65645   8.991  20.672   3.130 -0.1554 -0.2097  0.0000
64782W        W65646  13.161   5.213  14.264  0.2061 -0.2395 -0.2553
64783W        W65647  25.762  23.409   0.626  0.0134 -0.0232  0.0020
64784W        W65648   8.308   0.988  18.397 -0.1286 -0.2536 -0.1472
64785W        W65649   4.253   3.764   9.601  0.1529  0.1320  0.3114
64786W        W65650  14.137  27.197  29.047  0.0517  0.1423 -0.1205
64787W        W65651  10.651   0.581  15.796  0.2759 -0.0548 -0.1271
64788W        W65652  14.009  22.556   0.829 -0.3385 -0.2269  0.1022
64789W        W65653   4.919  15.520  14.683  0.1834 -0.3233 -0.2320
64790W        W65654  18.780   2.586  25.129  0.1001  0.0682  0.0114
64791W        W65655  17.331  15.474  11.855 -0.0497 -0.0129  0.3497
64792W        W65656  24.158  11.031  15.850 -0.0110 -0.1939 -0.0275
64793W        W65657  16.623  21.539  23.615 -0.0574  0.0027 -0.1424
64794W        W65658   1.071   8.682  12.210 -0.0905  0.4121  0.1118
64795W        W65659  28.266  25.320  28.604  0.0181 -0.1496  0.1698
64796W        W65660  10.837  26.175  26.035  0.1637 -0.0448  0.1605
64797W        W65661   7.803  26.150  12.478 -0.1176  0.1396  0.0143
64798W        W65662   5.297   8.670  26.025  0.3139 -0.1027  0.2142
64799W        W65663   9.611  22.125   0.877  0.0910  0.2211 -0.1950
64800W        W65664  27.812  19.372   4.191  0.0986 -0.2796 -0.0959
64801W        W65665  25.407  15.868  10.385 -0.0181 -0.4003 -0.3277
64802W        W65666   6.189  11.862  26.740 -0.1354  0.0562  0.1784
64803W        W65667   3.075   2.889  21.341 -0.3013  0.1296 -0.3622
64804W        W65668  10.954  11.661  13.878 -0.1209 -0.0376 -0.1994
64805W        W65669  17.339  17.803  15.981  0.0391  0.3028 -0.0078
64806W        W65670   0.667  14.894   1.568  0.0220 -0.1251  0.1284
64807W        W65671  15.919  10.293   2.267  0.0654  0.2529  0.1195
64808W        W65672   8.263  20.666  10.972 -0.3138 -0.1379  0.3869
64809W        W65673   0.936  14.672   3.065 -0.0496  0.0438  0.0561
64810W        W65674  14.231  25.743   6.523  0.0868 -0.1017  0.1193
64811W        W65675   2.617  14.144  27.095  0.2204 -0.1939  0.1279
64812W        W65676   2.334   4.102  27.706 -0.1554 -0.1804  0.1896
64813W        W65677  11.176   9.544  25.617 -0.1905  0.0577  0.1702
64814W        W65678   0.216  15.463  15.111 -0.0749 -0.1253 -0.1009
64815W        W65679  24.492  22.733   2.705 -0.0822 -0.1848 -0.2253
64816W        W65680  14.639   1.668   2.838  0.0222  0.0608 -0.3773
64817W        W65681  12.895   3.468   6.936  0.5580 -0.1922  0.0660
64818W        W65682  21.807  20.055  28.693 -0.1111 -0.0981  0.4951
64819W        W65683  20.471   8.575  10.423 -0.1727  0.1169  0.0246
64820W        W65684  17.672   2.391   5.276 -0.0169 -0.0836 -0.0855
64821W        W65685   2.476  10.017  12.976  0.0864  0.1836 -0.0547
64822W        W65686   6.205  11.069   6.684 -0.1413 -0.0315 -0.1539
64823W        W65687  14.067   0.272  27.063 -0.1268  0.1829  0.0166
64824W        W65688   1.976  11.380  27.323 -0.2527  0.1238  0.0422
64825W        W65689   3.332  15.212   0.513  0.1656  0.0548 -0.2053
64826W        W65690  12.896  17.360   6.485 -0.1016 -0.1135 -0.2668
64827W        W65691   1.887  11.417  13.982 -0.0538 -0.0869 -0.1353
64828W        W65692  20.824   9.233  11.496  0.1051 -0.0232 -0.2670
64829W        W65693  11.753  11.852   6.067 -0.0897 -0.1729 -0.1022
64830W        W65694   6.353  18.343   0.115 -0.1134 -0.3929  0.2125
64831W        W65695   2.104  12.021   2.236  0.0731 -0.2352 -0.0393
64832W        W65696  25.474   4.451  27.048 -0.2134 -0.0062  0.0999
64833W        W65697  14.150   3.626  18.799 -0.1921 -0.1606  0.0091
64834W        W65698   6.809  18.222  27.896  0.0447  0.5125  0.0791
64835W        W65699  13.367   9.417  24.019 -0.3768 -0.1607 -0.1014
64836W        W65700   1.878  22.975  24.181 -0.0256  0.3421 -0.1516
64837W        W65701  28.639   2.998  23.941  0.2538  0.1521  0.0960
64838W        W65702  10.486  26.741  22.059  0.3746  0.0081 -0.2471
64839W        W65703   0.011  12.932   2.672 -0.0132 -0.0185 -0.0975
64840W        W65704  21.141  16.669  16.506  0.0686  0.2481  0.3692
64841W        W65705  19.029  25.130   2.596  0.2119  0.0493 -0.3596
64842W        W65706  14.873  28.945   7.952 -0.0307  0.0080 -0.3078
64843W        W65707   0.399  14.232  28.467 -0.4053  0.1627 -0.0643
64844W        W65708  22.598  27.210   0.023 -0.1467 -0.0219  0.1214
64845W        W65709  25.548  18.215  25.072  0.4379  0.0373  0.2163
64846W        W65710  15.391  26.490  23.203 -0.0374  0.2231 -0.2453
64847W        W65711  14.553  16.307   5.077 -0.0254  0.3428 -0.1287
64848W        W65712  13.364   3.646   7.273 -0.2405  0.2187  0.1265
64849W        W65713   9.942   9.515  12.424 -0.2990 -0.2306  0.1562
64850W        W65714  15.620   7.382  12.766  0.1330 -0.0160  0.0297
64851W        W65715  24.964  14.729  13.597  0.2471 -0.3306  0.0135
64852W        W65716   6.301   2.088   6.551  0.3342  0.1794 -0.1937
64853W        W65717  17.930   8.910  26.196 -0.2261  0.0498 -0.5309
64854W        W65718  28.953   6.386   9.506 -0.0474  0.3499 -0.1965
64855W        W65719  19.237  12.300  14.922  0.0165  0.1552  0.2067
64856W        W65720   3.034   7.877  10.513  0.1369 -0.2217  0.2213
64857W        W65721  25.903  26.704  12.788  0.1758  0.0390 -0.2903
64858W        W65722  20.531  15.086   9.094 -0.1319  0.1286 -0.1037
64859W        W65723  25.644  13.886  27.982 -0.2639  0.2291 -0.0074
64860W        W65724  13.011  21.121  15.667 -0.3048 -0.0995 -0.1298
64861W        W65725  22.003   5.887  28.767 -0.0349  0.2557  0.1269
64862W        W65726   6.518  18.632   9.688  0.0810  0.2826  0.1512
64863W        W65727   8.721  11.870  25.781  0.0517 -0.3659  0.0410
64864W        W65728  19.531  11.338  21.194  0.0105  0.0242  0.0458
64865W        W65729   8.159   3.583   6.179 -0.2159 -0.2246 -0.3549
64866W        W65730   5.720  22.291   6.341  0.0787  0.1895 -0.3355
64867W        W65731   1.132   3.595  25.060  0.3756  0.0948 -0.3663
64868W        W65732  14.317   0.742  28.365 -0.0675 -0.1472 -0.4383
64869W        W65733   0.184   8.605  28.759  0.1171  0.0882  0.0252
64870W        W65734   5.485  21.281  11.847  0.1436 -0.3660  0.2613
64871W        W65735   8.669  26.263   9.432  0.0529 -0.2994  0.2218
64872W        W65736   8.133  17.036  16.743 -0.2393  0.1118  0.1148
64873W        W65737   3.700  14.990  17.660  0.0498 -0.0320  0.0363
64874W        W65738  23.466  19.172   3.991 -0.0780  0.1690  0.0187
64875W        W65739  16.099  10.758  15.232  0.0416  0.0438 -0.0228
64876W        W65740  12.329  27.867  17.648  0.2765 -0.1532 -0.1570
64877W        W65741  12.363   7.471  16.911 -0.0618  0.0422  0.2882
64878W        W65742   3.773   9.641  26.703  0.3201  0.0516 -0.0075
64879W        W65743  24.583  15.240   0.127  0.1166  0.0891 -0.1563
64880W        W65744  22.192  22.287   8.881 -0.2805  0.0373  0.1345
64881W        W65745  22.522  16.560  18.253 -0.1899 -0.0821  0.1048
64882W        W65746  12.408   6.947  10.624 -0.0555 -0.1552 -0.1521
64883W        W65747   9.233  28.590   3.786  0.0603  0.1784  0.1092
64884W        W65748   5.666   2.966  16.368 -0.0795 -0.2043  0.1112
64885W        W65749   1.494   4.434  15.205 -0.2563 -0.3717  0.2125
64886W        W65750  23.887  26.130   8.976  0.1463  0.1987  0.3247
64887W        W65751   1.825  21.050  16.735 -0.0441 -0.0164 -0.0663
64888W        W65752   1.016  21.606   3.172 -0.0570  0.0747  0.0043
64889W        W65753   7.988  14.232   9.635  0.3159 -0.0655  0.3622
64890W        W65754  18.966   6.440   8.171 -0.0435 -0.1342 -0.4692
64891W        W65755   3.557  20.763  18.236  0.1192  0.0739 -0.2186
64892W        W65756  19.719  19.495  13.277  0.4297  0.0185  0.1743
64893W        W65757  28.960  12.566   6.682 -0.0724  0.4915 -0.3175
64894W        W65758  11.892   1.380  26.422 -0.0638 -0.2554  0.0388
64895W        W65759  19.767  17.824   5.239  0.0141  0.0267 -0.2746
64896W        W65760  11.600  18.400   6.879 -0.0851  0.2808  0.1655
64897W        W65761  21.422  10.251   3.307  0.1738  0.1060  0.0232
64898W        W65762   2.184   5.170   9.303  0.2917  0.2735  0.0372
64899W        W65763  22.664  14.454  26.872 -0.1096 -0.2476 -0.0661
64900W        W65764  29.026  17.491  22.609 -0.1296  0.0501 -0.0530
64901W        W65765  13.998  17.234   5.223 -0.2795 -0.2510 -0.0992
64902W        W65766   6.481   7.259  14.404  0.4599 -0.1579  0.2643
64903W        W65767  13.668   2.844   4.672 -0.0999 -0.4085 -0.1364
64904W        W65768  12.028  14.851   9.540  0.3287  0.3672 -0.2391
64905W        W65769   8.792  14.460   6.437  0.0397  0.0739 -0.0055
64906W        W65770  19.005  22.497   8.542  0.2717 -0.0422 -0.1252
64907W        W65771  14.674  22.299   1.495 -0.1786  0.1359  0.1716
64908W        W65772  16.859  10.187  23.302  0.0762  0.0423 -0.1998
64909W        W65773   9.508  16.067  16.088  0.0025 -0.1452  0.0897
64910W        W65774   0.216   5.406   8.674 -0.1984  0.1477  0.2111
64911W        W65775   2.604  25.168  21.300 -0.0948  0.0257 -0.0263
64912W        W65776   4.768  14.220  10.671 -0.0683 -0.1041 -0.0020
64913W        W65777   7.833   7.098  14.638 -0.1737 -0.0081 -0.0721
64914W        W65778   8.342   9.132   4.721  0.1722  0.0272  0.3417
64915W        W65779   5.483  12.799   1.300 -0.3338  0.1943 -0.1240
64916W        W65780   5.928   2.888   2.287 -0.2695  0.3952  0.2473
64917W        W65781  15.531  15.464  27.991  0.3288 -0.0248  0.0814
64918W        W65782  23.047  14.650   8.860 -0.0271  0.1219 -0.1278
64919W        W65783   4.777  20.867   3.869 -0.0613  0.1340  0.1507
64920W        W65784  12.747  17.503  19.837  0.0349 -0.0031  0.0245
64921W        W65785  20.174   2.454   4.455 -0.1116 -0.0324 -0.1770
64922W        W65786   3.415  26.376   7.653  0.0317 -0.0225 -0.0392
64923W        W65787   3.974   9.545   1.877 -0.2915  0.0804  0.0958
64924W        W65788   0.603  17.862   2.885 -0.1357 -0.0386 -0.0211
64925W        W65789  25.421  27.466  21.721  0.3090  0.1432 -0.0995
64926W        W65790   0.377   0.681  24.576  0.2653  0.2735  0.2506
64927W        W65791  17.026  21.780  23.768 -0.1480 -0.0180 -0.1555
64928W        W65792  23.751   6.625   5.508 -0.0907  0.1266 -0.0819
64929W        W65793  28.204  16.752  21.738 -0.0208  0.0893 -0.2365
64930W        W65794   5.709  24.634   0.939  0.1043  0.0001 -0.1005
64931W        W65795   6.088  15.521  12.760 -0.3755 -0.0030 -0.2244
64932W        W65796  18.710  21.361  10.855 -0.0940  0.1378  0.0411
64933W        W65797   6.230  10.482  11.211  0.1689  0.2485 -0.1878
64934W        W65798   8.877   9.839   3.454 -0.0712  0.3545 -0.0090
64935W        W65799  26.719  26.865  26.965 -0.2306  0.2198 -0.2786
64936W        W65800  13.994  23.480  28.925 -0.2968 -0.1847  0.0622
64937W        W65801  17.836   0.195   1.888 -0.0366  0.0646  0.0251
64938W        W65802   5.795  20.922  11.187  0.1358  0.0952  0.0310
64939W        W65803  16.323   5.943  23.928  0.0332 -0.1096  0.3042
64940W        W65804   4.119  17.930  24.337  0.0215 -0.0632  0.1875
64941W        W65805  28.439  10.640  24.032 -0.1205 -0.0569 -0.0876
64942W        W65806   7.134  13.355   1.412 -0.0883 -0.0775 -0.1586
64943W        W65807   5.001  23.507  21.552  0.2113 -0.1916  0.0440
64944W        W65808  14.456   7.766   3.969 -0.2324 -0.1367  0.0195
64945W        W65809  17.555   5.436  23.182  0.2566  0.0111 -0.0194
64946W        W65810  26.521  23.834   4.383  0.2315 -0.3041 -0.0433
64947W        W65811  18.870  21.445  13.811 -0.0101  0.1004 -0.1579
64948W        W65812  15.185  17.466  10.300 -0.0292  0.1133 -0.1679
64949W        W65813  22.339  16.935   5.860  0.1488 -0.0277 -0.0953
64950W        W65814  27.929   1.888  26.487  0.1769 -0.0804  0.2528
64951W        W65815  12.243  17.102   5.253  0.0964 -0.0046 -0.1434
64952W        W65816  27.961  15.349   8.666  0.0507  0.0788 -0.0128
64953W        W65817  28.481  25.856  16.760  0.1835 -0.0304 -0.1885
64954W        W65818  26.221  21.213  20.231 -0.0336 -0.1202  0.2425
64955W        W65819  27.807  23.722  14.913  0.3423 -0.2080 -0.2641
64956W        W65820   9.501   3.031   3.440 -0.1757 -0.2392 -0.0589
64957W        W65821  11.052   2.213   9.408 -0.2013  0.0017  0.1219
64958W        W65822   4.055   6.002  16.350  0.0642 -0.0773  0.5342
64959W        W65823   3.018  16.682  25.350 -0.0377 -0.0879  0.0156
64960W        W65824  11.617  27.831   3.786  0.1663  0.3213 -0.2045
64961W        W65825   2.090   4.660  13.612  0.0385  0.0407  0.1617
64962W        W65826  29.122  20.015  17.903 -0.0049  0.3606 -0.0195
64963W        W65827  12.917  19.869  10.793 -0.0927  0.1667 -0.2163
64964W        W65828  22.879   0.350  19.783 -0.0898  0.0677  0.0449
64965W        W65829   6.025   5.535   6.288  0.1390  0.2964  0.0843
64966W        W65830   2.164   6.999  15.736  0.3597  0.2549  0.1330
64967W        W65831  26.400   5.334   2.789  0.1768 -0.0154  0.0067
64968W        W65832   1.490  15.955  24.513  0.0739  0.1520 -0.0002
64969W        W65833   8.457  20.018  11.959  0.0518  0.0022 -0.0983
64970W        W65834  13.905  26.997  16.438 -0.2271 -0.0326 -0.0511
64971W        W65835  25.888   1.055   8.733  0.0480  0.1385 -0.1335
64972W        W65836  23.986  22.795   5.537 -0.2019 -0.2075  0.0412
64973W        W65837  16.933  15.124   9.832 -0.3094  0.1953 -0.0472
64974W        W65838   6.371  25.450   1.554 -0.0788  0.0427 -0.3286
64975W        W65839  17.633  22.539  19.117  0.0005 -0.0040  0.3127
64976W        W65840  22.484  24.333   1.707 -0.0177  0.1046  0.2530
64977W        W65841  12.658  27.993   3.044  0.0361  0.2257  0.1639
64978W        W65842  16.871   4.632  19.456 -0.0719 -0.0985  0.2653
64979W        W65843  18.671  14.894   9.764 -0.0225  0.0432 -0.0535
64980W        W65844   0.680  24.850   6.140  0.3005  0.1896  0.0938
64981W        W65845  22.483  26.064  11.731  0.0793 -0.0587  0.0121
64982W        W65846  13.444  27.345  15.752 -0.1571 -0.1316  0.3757
64983W        W65847  17.682  19.013  14.246 -0.0682  0.0466  0.0527
64984W        W65848  23.639  11.430   6.362 -0.2324 -0.0341 -0.0779
64985W        W65849   7.416  24.052  23.662  0.0922  0.2722  0.0274
64986W        W65850   9.333  17.981  16.097  0.0326  0.1287 -0.3393
64987W        W65851   8.974   0.531  25.680 -0.1053 -0.2626 -0.0045
64988W        W65852  27.322  12.291  11.302 -0.1947 -0.2005 -0.3118
64989W        W65853  19.818   3.508  26.231 -0.1934  0.1121 -0.0945
64990W        W65854   1.713  23.921   2.770 -0.0804  0.1070  0.2568
64991W        W65855  19.708  18.808  24.514  0.0050  0.2945 -0.1300
64992W        W65856  12.869  10.648  10.823 -0.1901  0.0077  0.1762
64993W        W65857  18.747  28.332  13.675 -0.1022  0.4014 -0.0190
64994W        W65858  16.942  22.443  19.310 -0.1206 -0.0157  0.1477
64995W        W65859  18.473  10.452  20.519  0.1372 -0.1325 -0.0468
64996W        W65860   9.793   1.076  11.972  0.4909 -0.0475  0.0580
64997W        W65861  28.366  20.731  19.748  0.0481  0.2862  0.2229
64998W        W65862  25.121  10.919   0.293  0.0892  0.1649  0.1696
64999W        W65863  20.698  29.080   6.445  0.0911  0.0512  0.0483
65000W        W65864  24.356  11.527   5.570  0.0017 -0.0355 -0.3452
65001W        W65865   8.199  25.078   8.265 -0.2357  0.0802 -0.0892
65002W        W65866  17.227   2.358  21.063  0.1536  0.1679 -0.3499
65003W        W65867   0.353  10.311  15.282 -0.0393  0.2137 -0.1446
65004W        W65868   1.983  29.105   1.811 -0.2973  0.1198 -0.1090
65005W        W65869   7.038   6.626   1.931  0.2991 -0.1682 -0.5319
65006W        W65870  10.386   9.395  11.310 -0.0457 -0.1472 -0.0796
65007W        W65871  18.955  18.854   0.679  0.0878  0.1154 -0.2163
65008W        W65872  22.039  13.045   4.072  0.0671 -0.1394  0.0445
65009W        W65873  14.961  16.733  18.679 -0.0073  0.1034 -0.1950
65010W        W65874  10.923  21.182  25.753 -0.0856  0.3565 -0.0391
65011W        W65875  11.465  27.644  16.851 -0.0062  0.0328  0.3289
65012W        W65876  21.457   2.843  15.347 -0.1815  0.0201 -0.1618
65013W        W65877  13.731  14.199  13.224  0.2364 -0.1924  0.0719
65014W        W65878   7.059  13.258   9.881  0.1715  0.0024  0.3058
65015W        W65879   4.168   6.462  20.811  0.0395 -0.0273 -0.2280
65016W        W65880  16.621   0.418  20.180 -0.1107  0.3357 -0.1141
65017W        W65881  24.362  19.578  21.338  0.2401  0.0294  0.0126
65018W        W65882  25.547   0.662   4.325 -0.0295  0.4488  0.0527
65019W        W65883   5.197   3.908  23.772  0.2081  0.0321  0.0495
65020W        W65884   9.633  14.905  17.689  0.0152 -0.2305 -0.3053
65021W        W65885   2.444   6.862  22.540 -0.1215 -0.2111 -0.2750
65022W        W65886   4.497  22.065  24.388 -0.0269  0.1593  0.0663
65023W        W65887  24.586  14.225   8.115  0.0400 -0.1479 -0.0612
65024W        W65888  14.959  11.582  24.134  0.1719  0.3085 -0.0261
65025W        W65889  27.692  21.755   8.694 -0.0028  0.2301  0.0724
65026W        W65890  23.591   7.750   1.382 -0.0765  0.1415 -0.1164
65027W        W65891  16.102  13.250  10.167 -0.0828  0.0560  0.0729
65028W        W65892   9.571  26.033  28.713  0.0667 -0.0909 -0.0686
65029W        W65893   3.343  22.704  11.375  0.3905 -0.0665  0.1378
65030W        W65894  29.111  13.504  26.200 -0.0832  0.5114  0.2182
65031W        W65895   3.304   3.541  11.458  0.0107  0.0078 -0.1449
65032W        W65896  23.382   0.644   5.235  0.2019  0.0912 -0.1220
65033W        W65897  15.344  23.348  12.860  0.1244 -0.1844  0.0577
65034W        W65898   7.867   9.148  19.864 -0.2013 -0.2040  0.2525
65035W        W65899   8.287  12.461   7.998  0.1155  0.0472 -0.1403
65036W        W65900   5.205  16.411  24.106 -0.0762  0.1799 -0.1218
65037W        W65901  15.114   4.006   2.382 -0.2041 -0.1732  0.0256
65038W        W65902  28.383  22.559  13.570 -0.2944 -0.2207  0.2547
65039W        W65903   1.488  26.311   5.873  0.1029 -0.0117  0.0720
65040W        W65904   9.343  26.931  22.440 -0.0613 -0.0687 -0.2956
65041W        W65905  27.638   2.308   7.558  0.0876  0.0707  0.2762
65042W        W65906   3.195  11.838   7.468  0.1531 -0.3180  0.4301
65043W        W65907   1.859  11.041   0.370 -0.0776 -0.1184  0.0515
65044W        W65908  27.501   3.757  19.183  0.1652 -0.0215  0.0389
65045W        W65909  14.831   2.449  25.019 -0.1815  0.1313  0.0025
65046W        W65910  28.989  25.130   6.211  0.1200  0.0983  0.1428
65047W        W65911  26.821   8.587  18.699  0.4192  0.3901  0.0586
65048W        W65912   3.897  14.293   9.215  0.4452  0.1759  0.2149
65049W        W65913  19.787  19.448  21.723 -0.1508 -0.2016 -0.0650
65050W        W65914  27.817   2.407  19.074  0.3537 -0.1684 -0.3870
65051W        W65915  23.335  18.988  17.599  0.0106 -0.3309 -0.0137
65052W        W65916  14.252   1.298   9.913 -0.1306 -0.0025 -0.1309
65053W        W65917  20.958  20.567  19.427 -0.0857  0.0842 -0.2287
65054W        W65918  10.246  27.690  13.212  0.3258 -0.1665 -0.0282
65055W        W65919  11.299  16.824  13.818  0.0002  0.0257 -0.0356
65056W        W65920   2.215  10.646  11.330  0.1298 -0.1554 -0.1610
65057W        W65921  28.575  18.708  25.974 -0.3937  0.0359 -0.1305
65058W        W65922  28.077   5.933  21.316 -0.1369  0.2952 -0.3279
65059W        W65923  15.707  22.544  23.549 -0.0127 -0.0609 -0.0322
65060W        W65924  17.677  15.848   6.484  0.1216 -0.3183  0.2986
65061W        W65925  24.759   8.347  10.301 -0.4173 -0.1889  0.0911
65062W        W65926  24.699  12.839  24.591 -0.0434 -0.2703 -0.2167
65063W        W65927  27.933  24.184  22.453  0.3393  0.1793  0.2156
65064W        W65928  10.089  18.889  21.134  0.0645  0.4164  0.0132
65065W        W65929  25.200  22.774   8.936 -0.4322  0.3629  0.1405
65066W        W65930   8.602   3.757  14.882  0.1959  0.0425 -0.0935
65067W        W65931  14.811   3.259   2.119  0.0403  0.1434  0.0852
65068W        W65932  14.598   9.014   6.648  0.0023  0.1843 -0.1578
65069W        W65933  18.914   6.235  10.537 -0.2740  0.0121 -0.1519
65070W        W65934   9.101  19.632  23.629 -0.2948 -0.1981  0.1609
65071W        W65935  20.756  28.125  10.498 -0.2626 -0.0639  0.1543
65072W        W65936  12.125  18.979  18.163  0.2049  0.1146 -0.1529
65073W        W65937  13.885  26.440  11.075  0.0566 -0.0640 -0.3246
65074W        W65938  12.881   9.966   7.168  0.0989 -0.2527 -0.0891
65075W        W65939  19.311  22.848   5.156 -0.0998  0.2013  0.0779
65076W        W65940  20.036  10.745  14.476  0.2063  0.1734  0.0304
65077W        W65941  26.319  25.707  18.241 -0.1126  0.0414 -0.0293
65078W        W65942   6.138  10.959  24.219  0.1435  0.2541 -0.2239
65079W        W65943   2.295  17.563   4.825 -0.2560 -0.3098  0.5310
65080W        W65944   4.232  17.768  15.894  0.0565  0.1428 -0.3175
65081W        W65945  10.022  27.937   5.871 -0.0612 -0.0562 -0.0449
65082W        W65946  25.683  18.832   9.335  0.1033 -0.0963  0.0153
65083W        W65947   6.761  23.052  13.605  0.1500 -0.0852  0.1605
65084W        W65948   9.284   0.490  29.079  0.1757  0.0149 -0.2792
65085W        W65949   1.176  12.335   7.928  0.0676  0.4352  0.2828
65086W        W65950  12.101  22.014  16.118  0.0343 -0.0306  0.0138
65087W        W65951   4.658  14.986  25.800  0.0710  0.2304  0.1911
65088W        W65952   6.234  18.752   6.963  0.0288 -0.1306  0.1674
65089W        W65953  28.920   8.833  15.505 -0.1869  0.0934  0.0665
65090W        W65954  13.921  28.792  19.729  0.0053  0.3101  0.1433
65091W        W65955   1.336  14.856  14.318  0.1637  0.2035 -0.3747
65092W        W65956   3.329  24.678  16.504 -0.2543 -0.1297 -0.0486
65093W        W65957  23.101  17.461  18.486  0.2681 -0.3496  0.1371
65094W        W65958   0.193  20.255  12.470 -0.0128 -0.1206 -0.1336
65095W        W65959  16.119  13.665   0.538 -0.1621  0.0631 -0.0469
65096W        W65960  28.765  20.896   8.860 -0.0090 -0.0664 -0.0829
65097W        W65961   0.404   8.348  22.302 -0.1903  0.1396 -0.0424
65098W        W65962  28.067  11.424  12.243  0.1499 -0.2336 -0.0247
65099W        W65963   5.624  23.280  16.994 -0.1467  0.2358 -0.2706
65100W        W65964  14.098   8.306  19.919 -0.0714  0.0332  0.5897
65101W        W65965  28.356  12.930   3.284  0.1304  0.1248  0.1615
65102W        W65966   4.179  15.385  18.312 -0.0684  0.3149 -0.0053
65103W        W65967   2.029  25.833   3.921 -0.0796  0.0008 -0.1165
65104W        W65968  28.750   8.855  19.344  0.0152 -0.0366  0.2819
65105W        W65969  21.464  22.689  14.164 -0.2068 -0.0941  0.0668
65106W        W65970  26.477  18.482  16.435 -0.1688 -0.0938  0.1485
65107W        W65971  17.143  25.591   4.676 -0.2582 -0.0852 -0.4138
65108W        W65972   4.771   6.537   6.712  0.0028 -0.0789 -0.2263
65109W        W65973  18.132   8.698   1.245  0.0085  0.3164 -0.2709
65110W        W65974  18.677  15.211  13.208  0.1907 -0.1024 -0.0886
65111W        W65975   7.528  19.875  22.054 -0.0322  0.3386  0.0113
65112W        W65976   6.247   4.045  17.246 -0.0926  0.2486  0.2143
65113W        W65977   7.929  14.408  16.985 -0.1682 -0.1357  0.2255
65114W        W65978  21.704  10.652  11.954  0.1610 -0.0734  0.0107
65115W        W65979  19.047  10.023   5.189  0.2423  0.1872  0.1711
65116W        W65980   7.133  26.366  17.647  0.1054 -0.0358 -0.0058
65117W        W65981  17.774  16.872  24.356 -0.1294 -0.2035 -0.1097
65118W        W65982  20.022  10.704   3.537 -0.2554 -0.0208 -0.2132
65119W        W65983   2.915  16.682   3.453  0.0461  0.1507 -0.0279
65120W        W65984   9.405   6.216   2.032 -0.0445 -0.0160  0.0593
65121W        W65985   7.678   8.330  14.517 -0.3392  0.3153  0.0587
65122W        W65986  15.517  18.870  27.531  0.1052 -0.0715  0.3021
65123W        W65987  26.470  28.492  10.292  0.3072  0.0167  0.1119
65124W        W65988  27.063   8.068  26.634  0.1499  0.0211  0.0239
65125W        W65989  13.026  14.223   3.864  0.0316 -0.3617  0.1995
65126W        W65990  12.032  27.348  25.536 -0.4792 -0.0730 -0.1114
65127W        W65991  13.349  29.128  13.339 -0.0182 -0.0534  0.0957
65128W        W65992  24.541   4.293  21.135  0.0588 -0.0836 -0.1158
65129W        W65993  12.690  21.292   7.436 -0.0529 -0.0084  0.1587
65130W        W65994   6.117  20.050  29.135  0.0828 -0.2839  0.1416
65131W        W65995  18.831   9.908   5.624 -0.0488  0.0245 -0.1640
65132W        W65996  14.131  25.385  17.637 -0.0587 -0.1518 -0.1087
65133W        W65997  21.395  21.033  24.025  0.0245  0.1521 -0.0150
65134W        W65998  18.996  22.206  11.788 -0.1652 -0.3162 -0.0647
65135W        W65999  22.176  16.338  16.456 -0.0855  0.0319 -0.0075
65136W        W66000   9.695  28.407  20.504 -0.0224  0.0079 -0.0406
65137W        W66001   8.279  23.401  22.327  0.0426 -0.3688 -0.0171
65138W        W66002   1.189  23.280  28.328  0.2961  0.2545 -0.5723
65139W        W66003  15.542  12.487  14.222 -0.1331  0.3040 -0.1240
65140W        W66004  28.330  24.831  14.291  0.0615  0.1638  0.0668
65141W        W66005   1.229  20.135  12.709 -0.0988 -0.1672 -0.1270
65142W        W66006  10.980  22.734  12.410 -0.0628 -0.2391 -0.1076
65143W        W66007   6.594  27.247   3.416 -0.2732  0.0704 -0.0604
65144W        W66008  17.259  21.838  10.075  0.1497 -0.0943 -0.1083
65145W        W66009  15.598  10.319  23.266  0.1458 -0.1209 -0.1060
65146W        W66010  26.546  14.069  11.028  0.1400  0.0361 -0.0517
65147W        W66011   8.840  19.070   1.100 -0.1211 -0.0519  0.0141
65148W        W66012  11.982  19.778  23.886 -0.0930 -0.0559 -0.2553
65149W        W66013   5.170  26.405  15.227 -0.1326 -0.3289 -0.0051
65150W        W66014   4.446  21.779  20.618  0.1607  0.1813  0.3225
65151W        W66015  15.079  16.671  16.530  0.1368  0.0923 -0.3915
65152W        W66016   5.425  10.952  17.001 -0.1803 -0.1068  0.1224
65153W        W66017   1.881  17.499  27.056 -0.1692 -0.1670  0.1157
65154W        W66018  11.512  14.200  26.082 -0.2090 -0.3977 -0.2948
65155W        W66019   7.903  21.704  19.790  0.0069 -0.3842  0.0938
65156W        W66020  10.081  17.450   5.750  0.0899  0.1917  0.1791
65157W        W66021  27.861  19.943  14.036  0.0205  0.0817  0.0525
65158W        W66022  19.200  23.626  15.057 -0.0896 -0.0405 -0.0001
65159W        W66023   8.838  21.018  15.831  0.2251 -0.1347 -0.0421
65160W        W66024  10.685  20.786  19.316  0.0809  0.0870 -0.2060
65161W        W66025   6.563   2.035  14.624 -0.2638  0.0126 -0.3328
65162W        W66026  14.880  15.671   7.728  0.0162  0.1471 -0.0545
65163W        W66027  10.302  13.899  28.254  0.3177 -0.0768  0.1752
65164W        W66028  12.328  17.458  15.715  0.1772  0.1126  0.0843
65165W        W66029  11.676  10.870   5.830 -0.0093 -0.1038  0.2515
65166W        W66030  26.844  15.274  17.785  0.1171 -0.4435  0.2470
65167W        W66031   5.727  13.119  14.294 -0.1331  0.0102  0.0436
65168W        W66032   3.022  16.041  26.695 -0.0293  0.0722  0.0956
65169W        W66033  21.263  23.175  12.140  0.2862 -0.2941  0.3857
65170W        W66034   9.738  16.886  26.087  0.1791  0.0258 -0.1714
65171W        W66035  25.790   8.476  23.032 -0.0053  0.0350  0.0029
65172W        W66036  28.312  21.377  25.605 -0.0674 -0.0729  0.1952
65173W        W66037   3.008  13.786  10.391 -0.0010 -0.0445  0.1054
65174W        W66038   2.065  19.144   0.899 -0.0639 -0.0225  0.0385
65175W        W66039   1.126  18.851  21.921 -0.0277 -0.0540 -0.2414
65176W        W66040   8.945   4.485  18.062  0.2908 -0.0162 -0.0532
65177W        W66041   3.682   4.698  28.685  0.2177  0.2372  0.1416
65178W        W66042   9.416   8.991  23.881 -0.1002 -0.4408  0.0685
65179W        W66043   4.904   6.939   1.149  0.0342 -0.1898 -0.3134
65180W        W66044  12.511  15.445   4.025  0.1221  0.1306 -0.0409
65181W        W66045  11.623   8.922  13.795  0.0888  0.2055 -0.3836
65182W        W66046  10.890  15.582  28.277  0.0389 -0.0920  0.0079
65183W        W66047   5.165  15.953   9.746 -0.0704 -0.1318  0.1138
65184W        W66048  25.547   1.559   1.091 -0.0774  0.2928 -0.1718
65185W        W66049  28.194  17.842  22.161 -0.0644 -0.2806 -0.1601
65186W        W66050   2.321  13.126  10.065 -0.1733  0.2245  0.2172
65187W        W66051  29.030  16.416  16.795 -0.0859  0.1323 -0.0098
65188W        W66052  12.890  17.647  23.699  0.3135 -0.1087 -0.0650
65189W        W66053  21.226   1.047  24.346 -0.0811 -0.1198  0.0272
65190W        W66054  17.264  12.479  18.410 -0.1925  0.0600  0.1349
65191W        W66055  19.967  23.117  12.901 -0.0143  0.2626 -0.2361
65192W        W66056   4.058  14.717  21.926  0.1551  0.0462 -0.0562
65193W        W66057  20.043  25.260  22.152 -0.1893  0.1806 -0.1050
65194W        W66058  28.330  25.428  21.915 -0.2544 -0.4663 -0.0369
65195W        W66059  26.075  19.130  10.001  0.1342  0.0371 -0.0371
65196W        W66060  15.457  18.927   6.205  0.4226 -0.0334 -0.1409
65197W        W66061  14.975  18.613   5.500 -0.0071 -0.1915  0.3179
65198W        W66062  19.051  12.014  27.244  0.1055  0.0222  0.0135
65199W        W66063  10.601  17.226   8.179  0.0384 -0.0585 -0.0624
65200W        W66064  24.654   7.879   9.154  0.1677 -0.0263 -0.1240
65201W        W66065   4.303   9.044  12.900  0.0162  0.0846  0.2551
65202W        W66066  12.113  27.750   6.513 -0.1412 -0.2349  0.1635
65203W        W66067  19.163  23.581  16.102  0.0860  0.0500  0.0061
65204W        W66068  28.189  14.007  11.161 -0.0838 -0.0773  0.0784
65205W        W66069  10.137   4.306   6.733 -0.1290  0.4409 -0.2017
65206W        W66070  18.094  16.114  11.001 -0.0535 -0.0023 -0.0509
65207W        W66071   9.187   2.428  10.563  0.0752 -0.2904  0.0559
65208W        W66072   7.799  15.415   6.613  0.0309  0.3738 -0.0104
65209W        W66073   2.903  10.100   6.332 -0.0263  0.0210 -0.0182
65210W        W66074   1.185  26.996  20.971  0.0342  0.1431  0.0097
65211W        W66075   8.012  24.373  13.036 -0.3688  0.0259 -0.0023
65212W        W66076  25.550  27.145   1.924  0.3195 -0.1008 -0.0072
65213W        W66077  15.651  24.847  18.602  0.1934  0.2753  0.0129
65214W        W66078  14.920  22.827   9.929  0.0371  0.0067 -0.2691
65215W        W66079  10.972  16.752  15.487  0.1289  0.1062  0.1994
65216W        W66080   7.432   9.702   0.992  0.1065 -0.0334  0.1663
65217W        W66081   4.846   6.700   7.654  0.1184 -0.3925 -0.0205
65218W        W66082   4.261  14.167   2.716  0.1012 -0.0190 -0.2345
65219W        W66083   9.316  12.794   1.474  0.0324 -0.0689 -0.0970
65220W        W66084  14.585   7.385  16.991  0.1803  0.0102 -0.4122
65221W        W66085   6.641   4.395  12.000  0.0957 -0.1758 -0.1838
65222W        W66086   1.407  20.989   8.786  0.0796 -0.0454  0.1923
65223W        W66087   5.082  18.674  27.676 -0.0133 -0.2156  0.1314
65224W        W66088   8.596   5.059  21.600 -0.2483  0.0284 -0.3333
65225W        W66089   5.458   5.322  15.300 -0.0277 -0.0080  0.0473
65226W        W66090  27.623  28.582   3.392  0.0213 -0.0047  0.1562
65227W        W66091  12.891  25.635  18.874  0.0443 -0.2566 -0.0717
65228W        W66092   4.896  14.026  14.545  0.2672  0.0268  0.0564
65229W        W66093  28.274  20.504  25.576 -0.2637 -0.2658  0.2541
65230W        W66094  19.980   6.383   2.062  0.2928 -0.0875 -0.1185
65231W        W66095  12.551  20.923   7.928  0.3686  0.0785  0.0973
65232W        W66096   1.815   8.350   3.417 -0.1005 -0.3153  0.1129
65233W        W66097  22.834   5.030   2.149 -0.1314 -0.1833 -0.0102
65234W        W66098  28.314  17.372  10.748  0.0581 -0.2284 -0.0094
65235W        W66099   3.735   6.924   2.415 -0.0097 -0.3056 -0.1095
65236W        W66100  26.345  20.430   8.855  0.0613 -0.1880  0.1637
65237W        W66101  18.523  24.271   8.224 -0.0449 -0.0103  0.3072
65238W        W66102  10.335  17.568   9.539  0.2070  0.1960 -0.1704
65239W        W66103  16.439   9.074   1.623 -0.1123  0.1859  0.1711
65240W        W66104  15.677  14.315  13.856 -0.0273 -0.4186  0.0338
65241W        W66105  21.824  15.269  25.018  0.1451  0.2376  0.0019
65242W        W66106   4.613  11.308  11.174  0.2487 -0.1001  0.1432
65243W        W66107  12.634  11.313  11.377  0.2174  0.2965 -0.1441
65244W        W66108  14.890   2.640  14.449  0.0079 -0.2842 -0.0807
65245W        W66109  16.801  11.610   7.277 -0.0784  0.2903  0.1156
65246W        W66110   8.165  17.901   2.646 -0.0022  0.1595  0.1980
65247W        W66111   6.444   7.113   1.558  0.0854 -0.1057  0.0704
65248W        W66112  16.602   4.342  10.831 -0.0233  0.3507  0.0559
65249W        W66113   5.115   4.885  13.808 -0.1195 -0.1549  0.2373
65250W        W66114   1.197   1.657   8.412 -0.2006  0.2622 -0.0349
65251W        W66115  10.682  15.558   6.748  0.0392  0.2364  0.7367
65252W        W66116   4.225  27.189   5.405  0.6416  0.1405 -0.7082
65253W        W66117  22.015  10.962   1.325  0.0573  0.0380  0.0603
65254W        W66118  14.913  11.042  16.235  0.1840  0.1581 -0.0027
65255W        W66119  14.652  25.525  21.082  0.0911 -0.1033 -0.3451
65256W        W66120   3.309   7.236  24.051  0.0320  0.3394 -0.1723
65257W        W66121  26.163  21.321  18.995 -0.0019  0.0635  0.1470
65258W        W66122  28.571  12.417  11.996 -0.0956  0.1629  0.1046
65259W        W66123  11.227  16.031   8.283 -0.1765  0.1041 -0.1528
65260W        W66124   0.406  11.854   8.765  0.0478  0.0626 -0.0996
65261W        W66125   7.866  27.575   9.369 -0.1362  0.1764  0.4036
65262W        W66126  14.410  17.393  23.881  0.2637  0.0171 -0.0131
65263W        W66127  21.908   6.606   7.466  0.0374  0.2745  0.2977
65264W        W66128  25.718   5.979   8.145 -0.1127  0.1785  0.1056
65265W        W66129   3.913  23.605   3.681 -0.0980  0.2836 -0.0503
65266W        W66130  13.857  10.604   3.132  0.1207 -0.1940 -0.0049
65267W        W66131   6.422  26.063  14.865 -0.0075 -0.1972  0.2785
65268W        W66132  17.162  25.571  28.878  0.0404 -0.2150  0.0378
65269W        W66133  11.889  28.006  15.336 -0.1499  0.0146  0.1452
65270W        W66134  29.033   3.501  16.856 -0.4331 -0.1355  0.0272
65271W        W66135  10.367  14.410  12.386 -0.1628 -0.3218  0.1588
65272W        W66136  28.840   2.062  20.253 -0.1282 -0.3084  0.0773
65273W        W66137  22.252  20.952  20.927  0.0158  0.0614 -0.3602
65274W        W66138   0.853  17.085  15.376 -0.0314  0.3665 -0.2193
65275W        W66139  26.024  12.264   9.479  0.2784  0.0502 -0.0082
65276W        W66140   8.088  20.255   6.142  0.1180  0.3456  0.3498
65277W        W66141   9.659  18.308  10.410 -0.0793 -0.0807 -0.0906
65278W        W66142  20.099  23.524  28.407  0.1975 -0.0151  0.0770
65279W        W66143  12.726  27.356  24.352  0.1568  0.2483  0.1172
65280W        W66144  20.827  17.399  18.002  0.0653  0.1087  0.2208
65281W        W66145   8.595  25.770   8.758  0.2303  0.0986 -0.0279
65282W        W66146   5.939  14.479  24.715 -0.0169  0.0620 -0.0410
65283W        W66147   0.855  16.359   8.997  0.2961  0.0521  0.0554
65284W        W66148   5.505   4.640   7.213  0.0561  0.1294 -0.1673
65285W        W66149  14.709  16.160  24.835  0.0444  0.2548 -0.0908
65286W        W66150  13.752  27.792   6.276 -0.3178  0.1920  0.1791
65287W        W66151   0.025  17.415   7.083 -0.0765 -0.1037  0.0636
65288W        W66152   9.432  16.430  18.238  0.1420  0.2439  0.1629
65289W        W66153   2.352   8.266  11.601  0.2734 -0.0585  0.1938
65290W        W66154  28.164  13.466  28.778  0.5192 -0.0043  0.1766
65291W        W66155   7.432   1.915   6.289 -0.1198 -0.0356 -0.2388
65292W        W66156   1.416   9.965   5.886  0.0924 -0.0628 -0.1403
65293W        W66157  12.576  24.614   7.170  0.0701 -0.0703 -0.0034
65294W        W66158  23.850   8.536   5.302 -0.0948  0.1354  0.5179
65295W        W66159  15.841  19.544  16.397  0.0823 -0.0909  0.2903
65296W        W66160   3.765  12.484   6.732  0.0047  0.2244 -0.4245
65297W        W66161  24.027  14.727   5.099  0.3104  0.2175  0.0714
65298W        W66162  26.798   2.078  11.408  0.0589 -0.1805  0.1773
65299W        W66163   1.024  11.856  10.681  0.1977  0.2550  0.0019
65300W        W66164   4.874  21.234   5.660  0.0378  0.0686  0.4072
65301W        W66165   5.566  25.759  16.145 -0.1628 -0.0306  0.2810
65302W        W66166   3.533  23.368  28.884  0.0156 -0.0422 -0.1975
65303W        W66167   4.490  15.354  13.708 -0.0742  0.1282 -0.0436
65304W        W66168  16.878  13.680  18.022 -0.0884  0.1682  0.3402
65305W        W66169  17.198   2.904  15.492  0.1905  0.0970 -0.1569
65306W        W66170  18.668  14.582  14.838  0.1090  0.1526  0.0605
65307W        W66171   5.473  10.869   6.564 -0.0523  0.1589  0.0475
65308W        W66172  11.870  28.184  18.729 -0.0549  0.3448 -0.1535
65309W        W66173  11.465   0.492   1.772 -0.0967  0.0554 -0.3615
65310W        W66174  15.834  27.684  22.129  0.0077 -0.3047 -0.0181
65311W        W66175   2.324  23.810  15.045  0.0681  0.0659 -0.1716
65312W        W66176   1.133  15.718   9.641 -0.0182  0.1753  0.1271
65313W        W66177  21.540   4.804  22.871  0.2315 -0.0924  0.0015
65314W        W66178  10.960  26.394   9.637  0.1637  0.0915  0.1894
65315W        W66179  11.000  17.698  23.824  0.0151 -0.1236  0.2244
65316W        W66180  10.787   6.188  10.852 -0.1187  0.0692  0.3406
65317W        W66181  13.651   4.316   9.144  0.3045  0.2666  0.0031
65318W        W66182  13.698   3.570  28.825 -0.1756 -0.2027 -0.1298
65319W        W66183   6.715  15.580  15.138 -0.1250  0.0739 -0.1851
65320W        W66184   0.704   5.371   7.560  0.0151 -0.3071  0.2713
65321W        W66185  19.596  15.321   4.145 -0.0457 -0.1786  0.1794
65322W        W66186  26.579  22.185   6.629 -0.1307  0.0316 -0.1576
65323W        W66187  15.761  26.088  14.705  0.3119  0.0559 -0.0600
65324W        W66188  13.328   9.592  13.557  0.0353  0.0035  0.0037
65325W        W66189  12.315  15.874  28.882  0.0364  0.1902 -0.1669
65326W        W66190  21.876   7.387  16.947  0.1894  0.2046  0.2876
65327W        W66191  26.670  14.454  12.855 -0.0971  0.1691 -0.3022
65328W        W66192  15.010  28.649  22.779 -0.1508 -0.0050  0.3655
65329W        W66193  20.123  27.265   6.883  0.2053  0.0592 -0.0342
65330W        W66194  15.604   3.717  14.344  0.1560 -0.0672  0.1805
65331W        W66195   2.499   9.012  20.636 -0.0011 -0.0742  0.0419
65332W        W66196  11.307  13.420   8.042 -0.1184  0.0199  0.1165
65333W        W66197  28.648  15.848  14.497 -0.1912 -0.0958 -0.0616
65334W        W66198   3.369   3.129  18.595 -0.0461 -0.0020  0.0894
65335W        W66199  12.544  28.431   8.975 -0.1192 -0.0676  0.1873
65336W        W66200  12.048  19.667  28.291  0.0299  0.1066  0.2297
65337W        W66201   4.644  22.963  16.012 -0.1407  0.0940 -0.0652
65338W        W66202   3.664   6.145  22.447  0.2471 -0.0941  0.2560
65339W        W66203  28.410   9.278  22.165 -0.1030  0.2243  0.0487
65340W        W66204  16.086  17.686  14.962  0.1440  0.0695  0.4815
65341W        W66205  27.324   4.031  10.759 -0.1567  0.3132 -0.1087
65342W        W66206  14.834   5.189  28.809 -0.0981 -0.0600  0.0096
65343W        W66207  19.915   2.492  19.601 -0.0615 -0.0609 -0.2944
65344W        W66208   6.369   0.339  17.905 -0.1329  0.1172 -0.2868
65345W        W66209  12.567   4.945  19.899  0.2016 -0.0496 -0.3262
65346W        W66210   3.952   2.181   4.236 -0.1313  0.4591  0.1630
65347W        W66211  25.864  10.294  18.194 -0.2925  0.1925 -0.1235
65348W        W66212   1.647  27.204   1.266  0.0795 -0.0297 -0.0079
65349W        W66213   6.563  13.848  20.054  0.4663 -0.0813  0.1746
65350W        W66214  12.323  25.486   8.166 -0.2681  0.2161  0.4208
65351W        W66215  29.010   7.134   5.890  0.2090  0.1705 -0.1601
65352W        W66216  15.487   1.340   1.279 -0.0304 -0.0101 -0.1630
65353W        W66217  11.980   0.561  11.215  0.1122 -0.1668 -0.0175
65354W        W66218   9.161   8.389  12.681 -0.1391  0.1623 -0.0545
65355W        W66219  27.823  15.514  16.642 -0.0206  0.0416 -0.4194
65356W        W66220  12.391  13.784   7.966  0.1488 -0.3433 -0.0819
65357W        W66221  17.303  10.248  18.957  0.0228  0.1299  0.1941
65358W        W66222   7.114   8.481  26.717 -0.0210 -0.1669  0.0324
65359W        W66223  16.202  14.210   0.809  0.2381  0.2013 -0.0367
65360W        W66224  25.124  13.095  24.496 -0.0410 -0.0070  0.0832
65361W        W66225  16.422  18.107  24.232 -0.1049  0.0017  0.1000
65362W        W66226  13.357   7.835  25.936 -0.0584 -0.4376  0.3971
65363W        W66227  10.125  16.235  26.298  0.0531  0.1595 -0.0678
65364W        W66228  21.322  15.790  10.656 -0.2186 -0.1678  0.0468
65365W        W66229  11.589  10.812  15.700 -0.2583 -0.0102 -0.4073
65366W        W66230  19.269  23.264  18.493 -0.0108 -0.0712  0.1332
65367W        W66231   5.861  10.379  16.723 -0.1237  0.1729 -0.0567
65368W        W66232   6.780   0.684   2.615  0.0038  0.2443 -0.1205
65369W        W66233  25.894   0.194  11.530 -0.0086  0.0642  0.0155
65370W        W66234   8.580  18.187  11.998  0.0192 -0.1369  0.2191
65371W        W66235  18.992  17.052  18.977 -0.1419 -0.1595 -0.1453
65372W        W66236   4.576   0.778   5.938 -0.0025  0.0145 -0.2133
65373W        W66237   8.154   8.571  29.004 -0.3832  0.0426 -0.2840
65374W        W66238   8.807  11.224  26.952  0.3307  0.0159 -0.1840
65375W        W66239  28.441  16.840  28.789 -0.0974 -0.3174 -0.2689
65376W        W66240   5.475   8.613  27.047  0.1806 -0.0354 -0.0821
65377W        W66241  21.892  12.765  10.260  0.2535  0.0553  0.1840
65378W        W66242   3.854  21.634  18.577  0.0130 -0.1391  0.1515
65379W        W66243  12.446   2.567  11.177  0.2497 -0.3712 -0.1205
65380W        W66244   1.590   7.400  16.613  0.1053  0.1090 -0.2397
65381W        W66245  11.309  20.107  19.188  0.0233 -0.1417 -0.0308
65382W        W66246   5.862   9.276  15.769  0.0756 -0.1877  0.3206
65383W        W66247  20.128  10.627   5.786  0.0894  0.2563  0.0530
65384W        W66248  10.633  22.931   8.172 -0.3411  0.1611  0.1029
65385W        W66249   7.310  28.672  15.070 -0.2717 -0.1050 -0.0924
65386W        W66250   9.389   4.713   0.121  0.1535  0.3115  0.0898
65387W        W66251   9.627  13.714   5.845  0.3741  0.1580 -0.0843
65388W        W66252   6.694  20.112  15.105  0.1461  0.2011 -0.0527
65389W        W66253   4.711   6.376  10.753  0.0886  0.1066  0.0699
65390W        W66254  15.339  20.144   8.715  0.1517  0.0454 -0.1517
65391W        W66255  14.507  20.602  13.921  0.2283  0.0045 -0.0525
65392W        W66256   6.207  27.291  13.974  0.3219 -0.0720 -0.0906
65393W        W66257  23.233  22.110  23.479  0.1088 -0.2850 -0.0962
65394W        W66258  22.759   5.698  13.948 -0.0067 -0.0887 -0.0819
65395W        W66259  18.147  20.969  14.031  0.1888 -0.2582  0.2746
65396W        W66260  11.877  25.304  19.004 -0.2358  0.0568 -0.1742
65397W        W66261   8.874  26.448  22.287  0.0207 -0.0702  0.0581
65398W        W66262   5.015   2.335   4.586 -0.0443 -0.0403 -0.1620
65399W        W66263  15.577   8.082   3.914  0.0004 -0.1845  0.1461
65400W        W66264  20.558  10.687  24.710 -0.2012 -0.2529 -0.3378
65401W        W66265  19.055  26.715   2.329  0.1429  0.3686  0.1546
65402W        W66266   7.215  17.264   2.021 -0.1356  0.1264  0.0023
65403W        W66267  21.814   2.136  14.683  0.1054 -0.0836  0.2279
65404W        W66268  24.578   7.803   9.635  0.0845  0.0663  0.0080
65405W        W66269   3.096  10.652   0.917  0.2192 -0.0010 -0.1442
65406W        W66270  27.675  12.324   3.739 -0.0153  0.0053 -0.0890
65407W        W66271  15.921  17.160  12.148  0.1232 -0.2392 -0.1130
65408W        W66272   2.207  18.343  25.372 -0.1906 -0.2775 -0.0745
65409W        W66273  10.148  20.008  11.991 -0.2496  0.0947  0.0248
65410W        W66274   2.855  24.164   4.233  0.1537 -0.1014 -0.0365
65411W        W66275   7.317   3.719   3.451  0.1884 -0.2391 -0.2925
65412W        W66276   4.178  28.546  10.820 -0.1400  0.3243 -0.1439
65413W        W66277   0.129  21.580  26.670  0.0816 -0.1188  0.0763
65414W        W66278  15.454  21.992  12.882 -0.0589 -0.3223 -0.0318
65415W        W66279  19.386  10.843   6.261 -0.3601  0.1207 -0.3735
65416W        W66280   9.549   0.745  14.862  0.1697 -0.0099  0.2064
65417W        W66281  10.135  24.857  10.948 -0.1414 -0.1472 -0.0506
65418W        W66282   1.541  26.697  20.752  0.0503 -0.0010  0.2564
65419W        W66283   7.190   7.983  25.379  0.1529 -0.1378  0.1986
65420W        W66284  27.390  11.467  25.778 -0.3861  0.1561 -0.1202
65421W        W66285   4.508  17.457   1.338 -0.2663 -0.1390  0.0500
65422W        W66286  15.991  22.659   5.063  0.0589 -0.0602  0.1560
65423W        W66287  11.588  13.618  24.391  0.0927  0.5445 -0.0832
65424W        W66288  11.061   4.221   4.918 -0.1850 -0.0586  0.2090
65425W        W66289  23.837  19.648  22.756  0.1068 -0.1978 -0.0999
65426W        W66290  27.133   9.196  13.530  0.1983  0.1403  0.0863
65427W        W66291  13.232  15.864  19.098 -0.1989 -0.2979  0.0607
65428W        W66292   2.153  13.222   1.983 -0.1026 -0.1673 -0.1031
65429W        W66293   2.580  17.685   3.499  0.0146  0.0451  0.0214
65430W        W66294  24.198  25.927  12.531  0.0351  0.0059  0.1630
65431W        W66295  16.739  20.440  23.273 -0.1433 -0.1840 -0.0186
65432W        W66296  12.227  13.432  25.369 -0.1237  0.0374 -0.4167
65433W        W66297   6.461  16.538  11.881  0.0382 -0.0249  0.3664
65434W        W66298   4.889  29.082   4.552  0.1353  0.2519  0.2412
65435W        W66299   2.471   3.099  10.713 -0.0609 -0.0374 -0.4102
65436W        W66300   9.614  10.727  25.325 -0.0454 -0.3321  0.0193
65437W        W66301  14.262  16.401  15.300  0.0693 -0.3205  0.1668
65438W        W66302   4.945   4.723  19.281 -0.0618  0.0113 -0.0114
65439W        W66303   9.929  19.042  13.613 -0.2650  0.1051 -0.2175
65440W        W66304  15.190   0.557   7.455 -0.2253  0.3843  0.3745
65441W        W66305   7.975  28.356  16.251 -0.2706 -0.0247  0.2447
65442W        W66306  15.722   4.908  14.667 -0.1410 -0.1792  0.2153
65443W        W66307  18.755  11.770  15.597  0.1015  0.3055 -0.1090
65444W        W66308  17.719   7.370  16.730  0.1959 -0.1990 -0.0868
65445W        W66309  19.121  25.635  15.306 -0.1443 -0.2232  0.0792
65446W        W66310   0.875  18.677  19.184 -0.4631  0.1677  0.1080
65447W        W66311   7.174   8.520  26.193  0.1831  0.4218  0.0997
65448W        W66312  16.320  10.803  17.386  0.1174 -0.3492 -0.0827
65449W        W66313  10.062   2.109   3.388  0.0400  0.1971  0.1547
65450W        W66314   8.280  16.067  24.913 -0.1152 -0.1087 -0.2999
65451W        W66315  12.272  16.818  14.448  0.2043 -0.0458  0.3335
65452W        W66316  26.090  13.109  13.055  0.2104 -0.0735 -0.4479
65453W        W66317  14.513   0.795  17.332  0.0968  0.2247 -0.0742
65454W        W66318  13.485   0.465  20.434 -0.3485  0.0743 -0.2642
65455W        W66319  25.969  22.203  10.244  0.0721  0.0345 -0.0220
65456W        W66320  28.426  16.098  25.965 -0.2468  0.0900 -0.0219
65457W        W66321   5.842   0.824   7.019  0.2241  0.0264 -0.1199
65458W        W66322  10.920  19.810   8.299 -0.2654 -0.0160  0.0727
65459W        W66323  15.935   6.961   7.721 -0.1760 -0.2506  0.0036
65460W        W66324  20.486  19.782  12.798 -0.3034  0.3735 -0.2621
65461W        W66325   6.351   6.411  26.083  0.1666  0.1370 -0.0676
65462W        W66326   1.456  15.573  26.766  0.0322 -0.1593 -0.1572
65463W        W66327   8.512   9.636  14.485  0.2997  0.1114 -0.0845
65464W        W66328  10.269  16.748   6.335  0.1070  0.0320 -0.1605
65465W        W66329  13.340  13.599  19.785 -0.1548  0.0285 -0.2459
65466W        W66330  17.764  27.172  28.246 -0.0648 -0.0852  0.1576
65467W        W66331  14.058  25.378   7.391  0.1997 -0.1430  0.2343
65468W        W66332   7.957  20.008  15.953 -0.1272 -0.1136 -0.0726
65469W        W66333  28.100  17.342   3.978  0.0663 -0.0907 -0.2219
65470W        W66334   9.834  15.109  21.080  0.0706  0.0826  0.1126
65471W        W66335   8.474  23.154  12.391 -0.0421 -0.1678 -0.2190
65472W        W66336  19.940  10.344   9.003 -0.0071  0.0242  0.1092
65473W        W66337  19.540   9.775  19.617  0.0676 -0.0451  0.2567
65474W        W66338  14.526   1.288  12.888 -0.0139  0.1051  0.6563
65475W        W66339  28.758  14.528   6.895  0.3040 -0.1450  0.1078
65476W        W66340   7.637  25.089   8.138 -0.0783  0.1023  0.2935
65477W        W66341  26.322  18.401  17.879 -0.1507 -0.0157  0.1053
65478W        W66342   3.885   3.466  19.388 -0.2176 -0.1943 -0.1546
65479W        W66343  20.339  13.527  10.260  0.2069  0.0492  0.1643
65480W        W66344  18.947  27.066   7.589 -0.1445  0.2023 -0.2645
65481W        W66345  15.650   4.298  21.953 -0.1359 -0.1491 -0.0482
65482W        W66346  28.912  24.925   8.838 -0.1043 -0.2606  0.2026
65483W        W66347  27.223  19.407   8.647  0.0588 -0.3131 -0.0906
65484W        W66348   1.436  13.774  18.871  0.1474  0.2983  0.0434
65485W        W66349  15.189  25.310   2.522 -0.2191  0.0883  0.2852
65486W        W66350   0.117  19.524  15.677  0.0774  0.1941  0.2013
65487W        W66351   1.248   8.012   2.606  0.0533 -0.0193 -0.2400
65488W        W66352   7.785   8.232  21.575  0.2652  0.2553 -0.0324
65489W        W66353   4.234  15.702  24.971  0.0426  0.1996  0.0715
65490W        W66354   8.714   3.671   1.753  0.0061 -0.1565  0.0508
65491W        W66355   9.998  24.467   7.771  0.0375 -0.0066 -0.3286
65492W        W66356  15.893  20.520  17.249 -0.2436 -0.0876 -0.2019
65493W        W66357   9.515  16.058  25.826 -0.2638 -0.0802 -0.0138
65494W        W66358  24.398   8.403   7.606  0.0575  0.2986 -0.0377
65495W        W66359  12.413   6.664   1.396  0.0436 -0.0099 -0.1893
65496W        W66360   7.882  11.458  19.846  0.1953 -0.2471 -0.0241
65497W        W66361   5.102  12.447   3.721  0.1569 -0.2908  0.0922
65498W        W66362  14.741  26.888  22.024  0.4370 -0.0345 -0.1852
65499W        W66363  24.295  15.886   3.342 -0.3693  0.2025  0.1796
65500W        W66364   8.063   0.102  16.647 -0.0605  0.1191  0.1823
65501W        W66365   6.413  23.259  19.706  0.1654  0.3512 -0.1416
65502W        W66366  11.599  21.477  11.092  0.0214  0.1984  0.0742
65503W        W66367  22.066  14.781  28.015 -0.0247 -0.1333 -0.1477
65504W        W66368  19.144  24.569   6.997  0.0960 -0.2735  0.0218
65505W        W66369   0.974  27.106  26.024 -0.2028  0.1082  0.1611
65506W        W66370  24.347  22.037   8.339 -0.1969 -0.0176 -0.3609
65507W        W66371   7.438   5.829   5.364  0.2702 -0.1082 -0.1885
65508W        W66372  18.636  16.344   7.083  0.0229 -0.0603  0.1257
65509W        W66373  28.193   1.555   5.741  0.1271  0.0013  0.2587
65510W        W66374  28.350   2.995  24.449  0.1597 -0.2204 -0.0786
65511W        W66375   8.397  14.906  29.085 -0.4038  0.0912 -0.0066
65512W        W66376  21.301  21.134  27.081 -0.1341  0.3461 -0.2494
65513W        W66377   2.095  14.426   9.572  0.2932 -0.1866 -0.0711
65514W        W66378   4.611   6.816   8.797 -0.1874  0.2009  0.1659
65515W        W66379   5.897  16.050  11.192  0.0579  0.2226 -0.1303
65516W        W66380   4.654  24.759  13.586 -0.2263  0.1374  0.2771
65517W        W66381   8.358  18.700  24.150  0.1617 -0.2116 -0.0597
65518W        W66382  13.212   0.658  19.465  0.1404  0.3055  0.1288
65519W        W66383   9.689   1.373   7.767 -0.0387 -0.0276  0.0834
65520W        W66384  13.563  14.891   1.178  0.1112 -0.1168 -0.0335
65521W        W66385  22.637  21.676  14.563 -0.2840  0.1345  0.1364
65522W        W66386   2.466   9.766  27.824 -0.1898 -0.0646 -0.1968
65523W        W66387  26.035  17.623  21.663  0.2049  0.3364 -0.1970
65524W        W66388  22.168   1.308  20.171 -0.0623  0.0443 -0.0302
65525W        W66389  25.757  13.879  17.800  0.0980  0.0622 -0.1565
65526W        W66390   8.627  14.501  21.723  0.1955 -0.2346 -0.0754
65527W        W66391  27.849   6.499  25.586 -0.0199 -0.0557  0.2725
65528W        W66392  16.858   8.461  19.492 -0.1762  0.1117  0.3564
65529W        W66393   9.910   2.365  13.476 -0.1390  0.1588  0.2736
65530W        W66394  26.193  14.887   9.341  0.0063 -0.2344 -0.3000
65531W        W66395  13.394  21.220  21.658 -0.1241 -0.0873  0.0034
65532W        W66396  10.738  17.651   0.053  0.2917 -0.0399  0.2820
65533W        W66397   7.124  22.997  10.045  0.1652  0.1330 -0.0931
65534W        W66398  11.952  14.841  22.920  0.2165  0.2685 -0.0705
65535W        W66399  14.945  27.312  21.737 -0.4402  0.0906  0.0693
65536W        W66400  20.810  19.221   0.959 -0.1299  0.0270 -0.2200
65537W        W66401   0.953  18.594  12.917 -0.0711  0.1040  0.1827
65538W        W66402  24.334  11.985  18.002 -0.2369 -0.1333 -0.2812
65539W        W66403   8.215  18.882   4.869 -0.1850  0.1975  0.0532
65540W        W66404  27.711  26.955  14.428  0.1063 -0.0711 -0.0638
65541W        W66405  25.611  26.315  12.100 -0.0359  0.0927  0.1803
65542W        W66406  16.348   0.645  18.421  0.1427 -0.0229 -0.0047
65543W        W66407  26.712  15.281   1.490  0.0622  0.0307 -0.1014
65544W        W66408  27.766   1.551   2.644 -0.1664  0.0385 -0.1516
65545W        W66409   4.712  27.470  11.621  0.0121 -0.0767  0.2750
65546W        W66410  20.605  14.144  15.879  0.1817  0.1886 -0.0310
65547W        W66411   8.828   8.490  14.614  0.1759 -0.1868 -0.3022
65548W        W66412  12.401  14.128  29.054 -0.0241 -0.0381  0.2111
65549W        W66413   6.334   1.880  26.476 -0.0124  0.0038  0.3497
65550W        W66414  15.090  24.463  16.971 -0.1426 -0.2557 -0.2643
65551W        W66415  21.687   8.337   0.491 -0.0129 -0.1485  0.1417
65552W        W66416  15.547   1.435  11.785 -0.0678  0.0023  0.0663
65553W        W66417   4.759  20.387  18.976 -0.0945  0.0004 -0.0810
65554W        W66418   2.175  15.777  27.947 -0.5809 -0.1861 -0.1155
65555W        W66419  24.013   1.968   2.954 -0.1756  0.0321  0.1554
65556W        W66420   8.086  22.563  24.616  0.0911  0.2276 -0.0662
65557W        W66421  27.571  10.274  18.322 -0.1395  0.0138 -0.2147
65558W        W66422  12.586   8.929   8.625 -0.1372 -0.1171 -0.3246
65559W        W66423  22.927  11.115  18.125 -0.2042  0.2414 -0.1646
65560W        W66424  14.494  18.211  15.228  0.2027  0.0100 -0.0674
65561W        W66425  17.272  26.802  12.752  0.2125 -0.4576  0.0916
65562W        W66426   8.276  18.730   1.334  0.0487  0.0695 -0.0834
65563W        W66427  22.262   1.504   6.059  0.0091 -0.0899 -0.1291
65564W        W66428  29.138   7.478   3.490  0.0093 -0.0527  0.0238
65565W        W66429  20.821  24.694  20.185 -0.0502 -0.1341 -0.0095
65566W        W66430  19.595  17.599  11.741 -0.2232  0.0969 -0.1965
65567W        W66431  15.677   7.981   6.142 -0.1331  0.3071  0.2916
65568W        W66432  19.183  23.416  17.121  0.2847 -0.2695  0.0153
65569W        W66433   5.764  15.154  18.868  0.2364  0.1778  0.1079
65570W        W66434  19.150  12.116  12.699 -0.1084  0.4448 -0.0129
65571W        W66435  28.144   5.477  24.732  0.0236  0.0127  0.2266
65572W        W66436  20.646  15.242  15.058 -0.2020  0.2899 -0.0166
65573W        W66437  27.225  10.573  22.170 -0.2666  0.1722  0.1342
65574W        W66438  20.379  12.771  27.327 -0.1406  0.0873 -0.0800
65575W        W66439  15.822   6.897  27.264 -0.3084  0.1103  0.0128
65576W        W66440   6.362  14.008  14.308 -0.3818 -0.3557  0.0511
65577W        W66441   7.836   7.311  21.420  0.0828  0.1766  0.3189
65578W        W66442  20.624  10.697  19.298  0.2371 -0.1274  0.0118
65579W        W66443  25.047   4.247  16.279 -0.0252 -0.0486 -0.1259
65580W        W66444  12.491   2.930  15.387 -0.2388 -0.0129 -0.0393
65581W        W66445   8.939  21.637  11.826 -0.0560  0.0494 -0.3676
65582W        W66446  22.899  23.660  13.799 -0.0621  0.0759  0.2384
65583W        W66447  19.467  11.352   7.505  0.1518 -0.0390 -0.0277
65584W        W66448   0.842  19.966  20.732 -0.1378  0.0286 -0.1443
65585W        W66449  13.501  11.567   9.226  0.0133 -0.1644 -0.1788
65586W        W66450   9.572  24.027  13.198  0.3517  0.2439  0.0790
65587W        W66451  21.634  15.165   6.046  0.0026 -0.2979  0.5349
65588W        W66452  21.199  24.518  19.226 -0.2486  0.1304  0.0840
65589W        W66453  19.601   9.098   5.404  0.0419 -0.5315 -0.3308
65590W        W66454  19.312  25.197   9.539  0.2816 -0.3426  0.2095
65591W        W66455  15.147  15.583   5.556  0.0967  0.0372 -0.0286
65592W        W66456  12.135  13.154   7.872  0.0276  0.0892 -0.4270
65593W        W66457   4.993   6.750   2.530 -0.0028 -0.0457  0.1349
65594W        W66458   0.903  11.458  18.665  0.0711 -0.0567 -0.3398
65595W        W66459  16.033  11.844   4.495 -0.3695 -0.3368  0.0674
65596W        W66460  22.098   8.271  18.053  0.1472  0.0572  0.2619
65597W        W66461  25.232  24.578  18.000 -0.1089 -0.0608  0.1467
65598W        W66462  21.049  22.425  15.103  0.2195  0.2820 -0.0342
65599W        W66463   7.334   3.327  15.735  0.0507 -0.1654 -0.1204
65600W        W66464   2.434   1.500  21.122  0.2200  0.1182  0.0812
65601W        W66465   6.511  18.410  21.201  0.0554  0.0620 -0.2032
65602W        W66466  28.831   4.762  22.417  0.2320  0.1200 -0.0090
65603W        W66467  25.857  20.340   8.746 -0.0947  0.1183 -0.3512
65604W        W66468   8.346  11.331  15.775 -0.1964  0.2876 -0.0409
65605W        W66469   2.839  16.791  20.605  0.1826  0.2722 -0.0596
65606W        W66470  16.152  12.952  10.609 -0.4549 -0.0789 -0.0268
65607W        W66471  10.633  18.905  16.515  0.2713  0.1562  0.2532
65608W        W66472  23.245   7.561  14.336 -0.0560 -0.1565  0.3182
65609W        W66473   8.669  19.891   8.421 -0.1107 -0.0494 -0.1146
65610W        W66474   9.584   8.762  11.716 -0.0947  0.3462  0.2025
65611W        W66475   6.143  26.851  10.541 -0.3762  0.1453  0.0581
65612W        W66476  10.834  27.480   6.956 -0.0918  0.0916 -0.1034
65613W        W66477   2.815  17.262  20.659  0.0257  0.0920  0.1063
65614W        W66478  21.823   2.734  13.464  0.0939  0.0895  0.2576
65615W        W66479   1.981  15.956  27.444  0.1344 -0.0509  0.0073
65616W        W66480  13.855   7.036   7.685 -0.4115 -0.1581 -0.1644
65617W        W66481   8.827  15.082   9.630 -0.2687  0.2365 -0.2633
65618W        W66482  15.886  17.483   2.458  0.5047 -0.0827  0.0573
65619W        W66483   2.530  27.309  12.205 -0.2824  0.0781  0.2306
65620W        W66484  11.737  26.257  15.282 -0.0092  0.0892  0.2780
65621W        W66485  28.461  15.752  28.900 -0.2605 -0.3417 -0.1326
65622W        W66486   9.657  15.452  22.580 -0.2547 -0.0522 -0.3146
65623W        W66487   4.159  25.938  18.223 -0.0946 -0.1597  0.1345
65624W        W66488  21.186  11.417  21.314 -0.1356 -0.1071  0.0028
65625W        W66489  11.156  19.337  10.518  0.0040 -0.5104  0.0381
65626W        W66490   3.826  11.641  21.547  0.2432 -0.0676  0.0344
65627W        W66491   8.652  15.116  19.318 -0.1774 -0.1616 -0.1652
65628W        W66492   4.692  26.217  10.520 -0.1063 -0.1007 -0.0502
65629W        W66493  14.657   7.111  22.611  0.0905 -0.0149  0.1617
65630W        W66494   6.405   9.572   8.645 -0.0526  0.1221 -0.0297
65631W        W66495  12.366  14.792  27.747  0.0707 -0.2351  0.1029
65632W        W66496  17.756   9.507   7.729 -0.0495  0.2999  0.0122
65633W        W66497   5.979   8.968  25.443 -0.0387  0.2323 -0.1627
65634W        W66498  19.828  25.083   0.213  0.0838  0.1757  0.2970
65635W        W66499  16.647  26.996   4.328 -0.2240 -0.2674 -0.0901
65636W        W66500  26.426  20.317   9.556  0.2051  0.2146 -0.1762
65637W        W66501   3.003  12.159  10.994 -0.1474 -0.1640 -0.0836
65638W        W66502  19.457  16.451  24.953  0.0254  0.1472 -0.0886
65639W        W66503  28.776  14.999  11.699  0.0082 -0.2151  0.1519
65640W        W66504  19.646  17.441   9.510 -0.0109  0.0269 -0.2553
65641W        W66505   9.235  13.702   7.718 -0.0380 -0.0643  0.2419
65642W        W66506   2.018  22.486  16.287  0.1099  0.1596  0.1348
65643W        W66507   1.845  21.118  27.695 -0.1783  0.1581  0.1073
65644W        W66508  25.803  10.481  16.973  0.1039 -0.1128 -0.2201
65645W        W66509  23.476  15.238  15.596 -0.1929  0.1453  0.0148
65646W        W66510  20.293  17.369  16.011 -0.2821 -0.2360 -0.2350
65647W        W66511   7.327  22.597  21.370  0.2375  0.2533 -0.2292
65648W        W66512  27.997   5.387   3.268  0.1680 -0.1505 -0.1066
65649W        W66513   5.239   7.232  10.155  0.0855  0.1019 -0.0085
65650W        W66514  26.080  25.926  11.738  0.0586 -0.5885 -0.0656
65651W        W66515   8.442  22.691   4.567  0.2110 -0.0499  0.1036
65652W        W66516   1.558   3.870  18.954  0.0683 -0.0371  0.0306
65653W        W66517  17.343  24.892   3.391  0.0745 -0.0071  0.2505
65654W        W66518  20.029  10.333  24.964  0.1483  0.2965 -0.2964
65655W        W66519   6.448   9.774  15.334  0.1492 -0.0003 -0.0341
65656W        W66520  28.426  16.438  18.543 -0.3836  0.2458 -0.1944
65657W        W66521  20.583  15.117  16.847 -0.1454 -0.1735  0.3495
65658W        W66522  16.852  21.505  10.872  0.1607 -0.1581 -0.0277
65659W        W66523   8.403  14.590   8.817 -0.3105 -0.0993  0.1040
65660W        W66524  19.978  17.635  12.660 -0.3572 -0.0624 -0.1689
65661W        W66525   0.577  11.834  13.804 -0.0636 -0.0829 -0.0131
65662W        W66526   8.982   7.146  26.363  0.4873  0.0332 -0.1551
65663W        W66527  20.382  17.549  28.339 -0.0577 -0.0177  0.0785
65664W        W66528  20.943   5.298   9.682  0.3716  0.0390  0.1483
65665W        W66529  12.919  14.461   7.354 -0.1028 -0.0994 -0.1310
65666W        W66530  18.833  22.676   7.574 -0.2391  0.4387  0.0311
65667W        W66531   7.632  17.704  15.147 -0.4376  0.0903 -0.0639
65668W        W66532   0.370  25.311   1.670 -0.3496 -0.1285 -0.0536
65669W        W66533   9.361  28.544  16.649  0.1307 -0.1279  0.1704
65670W        W66534  27.563  25.244  21.609 -0.1687  0.0541  0.5065
65671W        W66535   4.737   3.940  22.672 -0.0413 -0.0793 -0.2905
65672W        W66536   3.765  17.585  18.555 -0.0022  0.2809 -0.0532
65673W        W66537  28.558   5.181  22.073 -0.2233 -0.0613 -0.2799
65674W        W66538  27.201  17.676   9.899  0.1379  0.1399  0.2623
65675W        W66539  20.235  14.462   2.862 -0.0731  0.2570 -0.2335
65676W        W66540  15.647   8.462  15.340  0.0333  0.2291 -0.0536
65677W        W66541   2.776  20.738  16.880  0.3810 -0.2484 -0.3354
65678W        W66542  12.779  14.786   1.797  0.0246  0.2302 -0.2705
65679W        W66543  15.280  18.471  14.928 -0.3933 -0.1942 -0.0357
65680W        W66544   8.083   4.143  27.078 -0.2463  0.2586 -0.0463
65681W        W66545  11.977  20.549  11.323  0.0027  0.0227  0.1109
65682W        W66546   4.154   2.167  13.397  0.0157 -0.1235  0.1122
65683W        W66547  22.982  17.110  24.553  0.2013  0.3422  0.2941
65684W        W66548  16.934  23.088   3.527  0.0740 -0.4254  0.1201
65685W        W66549   0.227  15.685  22.069  0.1727  0.0603 -0.0205
65686W        W66550   5.624   5.337   2.184  0.3280  0.0455 -0.2181
65687W        W66551  10.358  11.923   8.213 -0.0508 -0.1050  0.0524
65688W        W66552  14.386  14.535  11.893  0.0977  0.0929 -0.1384
65689W        W66553  14.489  15.630  15.346 -0.0774 -0.0375  0.0009
65690W        W66554  24.882  10.481  23.778  0.3420 -0.1401  0.1069
65691W        W66555   4.078  19.066  27.638 -0.1474 -0.2739 -0.0579
65692W        W66556  18.486  26.940  13.427  0.0792 -0.0098  0.1838
65693W        W66557   3.698   7.773  26.444 -0.0328  0.1161 -0.1556
65694W        W66558  23.549  13.423   3.018  0.4061  0.0503 -0.2444
65695W        W66559   4.652   3.772   6.269  0.0870 -0.0869  0.0780
65696W        W66560   3.930  11.863  14.528 -0.1838 -0.1876  0.4742
65697W        W66561   6.951  12.292   8.100 -0.1132 -0.0447 -0.1187
65698W        W66562  17.292  14.200  18.869  0.2472  0.1583 -0.1023
65699W        W66563   7.537  15.906   8.946 -0.5296  0.0397 -0.0294
65700W        W66564   1.597  23.269  16.363 -0.2394 -0.1498 -0.1039
65701W        W66565  20.273  20.425  17.662 -0.0852 -0.0807 -0.1205
65702W        W66566   1.892   3.403  11.539  0.1224 -0.1727  0.0256
65703W        W66567   1.580   7.405  15.857  0.0422  0.0165  0.0569
65704W        W66568  14.188  21.847  21.913  0.2000 -0.1639  0.0735
65705W        W66569  28.510  17.125   4.124 -0.1359 -0.1085 -0.1496
65706W        W66570   2.230  16.722   9.548 -0.2229  0.2032 -0.0872
65707W        W66571   0.646   8.339   5.566 -0.0078  0.0135  0.0084
65708W        W66572  11.852  14.595   9.116  0.1295  0.0756 -0.2836
65709W        W66573  24.777  14.344   8.585 -0.1034 -0.0799  0.0094
65710W        W66574   3.818   9.218  16.825  0.0037 -0.0682 -0.1164
65711W        W66575   1.579  22.805  21.093 -0.0045  0.2176  0.0756
65712W        W66576   9.920  24.215  19.615  0.3807  0.1191  0.2305
65713W        W66577   1.303  20.177   1.077 -0.1447 -0.0412 -0.0388
65714W        W66578   2.727  15.817  17.352  0.0056 -0.2747  0.0198
65715W        W66579   4.331   3.806   8.689  0.0948 -0.0692  0.2599
65716W        W66580  15.784   2.285  11.294 -0.0965  0.0391 -0.0685
65717W        W66581  17.835   5.512   5.206  0.0547 -0.0130  0.0821
65718W        W66582  25.532   7.908  15.765  0.1242  0.0923 -0.0207
65719W        W66583  25.221   6.377  17.715 -0.1387  0.2159  0.2201
65720W        W66584   8.298   5.379   8.945 -0.1218 -0.1978 -0.0871
65721W        W66585  23.398  19.076  13.780  0.0418  0.2226  0.0823
65722W        W66586  14.332  26.956   5.817 -0.1131  0.0898  0.1079
65723W        W66587   2.004  15.339   9.687  0.0094  0.2614 -0.2187
65724W        W66588  20.904  28.282   9.612 -0.0642 -0.0804 -0.4803
65725W        W66589   6.381  20.089   3.988 -0.0879  0.0396 -0.0748
65726W        W66590  20.557  21.349  13.443  0.0123  0.1111 -0.0791
65727W        W66591  16.760  11.219  20.481  0.1487  0.0866  0.2238
65728W        W66592   7.649  15.615  25.258  0.0442 -0.0381  0.2266
65729W        W66593  16.532  18.968  28.655 -0.3018  0.0117 -0.2424
65730W        W66594  10.499  23.125   8.683  0.2260  0.0946  0.1106
65731W        W66595  25.710   6.149   5.235 -0.2691  0.1730  0.1139
65732W        W66596  18.582  16.186  10.798  0.3209 -0.1814  0.2165
65733W        W66597  18.400  11.112  28.513  0.1031  0.0633 -0.2263
65734W        W66598  25.273   4.000  21.392  0.1822 -0.1432  0.3316
65735W        W66599  11.459  13.552   7.163  0.0935  0.2225 -0.0243
65736W        W66600  15.437  22.087  27.790  0.1927 -0.0493  0.0107
65737W        W66601  14.876   7.187  20.005  0.4044 -0.0262  0.0214
65738W        W66602  24.879  11.725  10.606 -0.3897 -0.0540  0.1489
65739W        W66603   2.749   5.105   7.430 -0.2424  0.0011  0.4600
65740W        W66604   9.449   2.341   9.126  0.0449  0.0547  0.0533
65741W        W66605   6.687  12.923  23.197  0.0576  0.0014 -0.0780
65742W        W66606   0.642  18.550   2.215 -0.2065 -0.2261  0.3141
65743W        W66607   9.745  18.193   2.358  0.2852  0.0485 -0.0569
65744W        W66608  18.271  12.297   1.972 -0.0342  0.2742 -0.2764
65745W        W66609   6.709   1.744   4.554  0.3716  0.1945  0.0812
65746W        W66610  11.082  26.387   2.076 -0.3978  0.0478  0.2263
65747W        W66611  24.344  16.303   2.704 -0.0717  0.0881 -0.1855
65748W        W66612  13.134  19.959  21.859  0.0479 -0.3275 -0.1889
65749W        W66613  10.597  27.443  13.041 -0.1298 -0.2348 -0.1252
65750W        W66614  17.369  17.345  16.966 -0.0960  0.2296  0.0912
65751W        W66615   6.144  19.040   8.349  0.4028 -0.2865 -0.1304
65752W        W66616   3.625  19.742  29.143 -0.0438 -0.0645  0.1620
65753W        W66617   5.792  15.695  13.554 -0.0120  0.0576 -0.0292
65754W        W66618   2.660  14.130   6.639  0.2668  0.0192  0.0144
65755W        W66619   7.690  21.397  23.873  0.0960 -0.3343 -0.0398
65756W        W66620  14.369   9.722  21.584  0.0070  0.2554  0.0691
65757W        W66621   8.201  11.073  17.520  0.2985  0.2633 -0.0627
65758W        W66622   1.515   8.303  23.257  0.2778  0.1587  0.2527
65759W        W66623   9.341  23.929  17.960 -0.0999 -0.1168  0.1805
65760W        W66624  10.554  13.254   5.583 -0.3435 -0.2777  0.0565
65761W        W66625  17.958  15.196   3.336  0.1850  0.2211 -0.1071
65762W        W66626  21.087   5.142   0.867  0.0059 -0.0312 -0.0582
65763W        W66627   6.002  23.883  19.056  0.1492  0.3186 -0.3420
65764W        W66628   1.195  15.742  26.394  0.0387 -0.3325 -0.2383
65765W        W66629   2.772   3.515   5.145 -0.1417 -0.0256 -0.2369
65766W        W66630  21.273  26.286   8.254 -0.0963  0.2352 -0.0668
65767W        W66631  23.374  12.705  15.707  0.0134  0.1307  0.0908
65768W        W66632  24.043  18.106  18.481 -0.2779 -0.3242 -0.0434
65769W        W66633  28.029  17.122   1.034 -0.1784 -0.0245  0.1534
65770W        W66634  20.759  18.665  13.894 -0.2283 -0.1787  0.3108
65771W        W66635   0.478  25.536  23.229  0.0873  0.0454  0.0485
65772W        W66636  25.456  24.931  18.371 -0.1251 -0.0633  0.1174
65773W        W66637  21.539  14.048  24.423 -0.3181 -0.1335 -0.0996
65774W        W66638   9.813  12.601  13.149 -0.0274  0.3071  0.0945
65775W        W66639  16.251  14.664  16.781 -0.1417 -0.0279  0.1617
65776W        W66640   7.344   6.681   4.452  0.2336  0.0106 -0.0831
65777W        W66641  16.882  14.414  18.559 -0.0527 -0.0537 -0.1045
65778W        W66642  12.770  22.136  14.547 -0.2799  0.2593  0.3391
65779W        W66643   8.618   5.464   2.703  0.1200  0.0843  0.1113
65780W        W66644   7.064  13.244  16.174  0.0070  0.0237 -0.3682
65781W        W66645  10.206   8.274  18.548  0.0555 -0.1820 -0.0272
65782W        W66646  23.318  25.421  24.527 -0.2018  0.0559 -0.0953
65783W        W66647  16.677  22.023  23.171 -0.1855  0.0752  0.1391
65784W        W66648  17.639  17.227  26.563 -0.2028 -0.3000 -0.3247
65785W        W66649   8.287   6.067  23.180 -0.4543  0.3321 -0.1428
65786W        W66650  12.441  12.718  27.292  0.0245 -0.1026 -0.2551
65787W        W66651   6.305  13.145  22.661  0.1833 -0.0432  0.1022
65788W        W66652   9.837  15.941  15.700 -0.1003 -0.3263  0.2702
65789W        W66653   0.763  10.782   1.259 -0.0775  0.1487  0.0981
65790W        W66654   3.928   4.888  22.050 -0.2430  0.0970 -0.1605
65791W        W66655  18.679  18.097  10.216 -0.0400  0.2262  0.0980
65792W        W66656  24.169  23.968  13.331  0.0784  0.1577 -0.1184
65793W        W66657   3.179   1.891  25.321  0.2657 -0.0594 -0.1138
65794W        W66658  16.600  15.528  18.265  0.0026 -0.2496  0.4242
65795W        W66659  21.019   6.480  19.525 -0.0800  0.2363  0.2823
65796W        W66660  15.335   5.829  19.592 -0.2897  0.0930 -0.0274
65797W        W66661   1.573   5.757  27.560  0.2702 -0.1206 -0.0247
65798W        W66662   8.164  12.898   9.787 -0.0022 -0.0428  0.3031
65799W        W66663   5.645  22.277  19.458 -0.0134  0.0826  0.0925
65800W        W66664   6.219  19.382   8.031  0.0697 -0.0535 -0.0770
65801W        W66665   7.529  27.812   0.814 -0.0059 -0.0062  0.0636
65802W        W66666   5.330  11.838  11.411 -0.1242  0.1680  0.3419
65803W        W66667  23.729   3.460  20.258 -0.0158 -0.0197 -0.0342
65804W        W66668  20.714  17.940  18.048  0.0947  0.4364 -0.0942
65805W        W66669  16.739  14.660  15.792 -0.0968 -0.0634 -0.0133
65806W        W66670   2.767  25.189  26.919  0.1028 -0.2452  0.0719
65807W        W66671   5.312  24.438  23.090 -0.0247  0.1122 -0.1043
65808W        W66672  16.799   9.446  27.655  0.1655 -0.0438 -0.0415
65809W        W66673  22.921   0.238  25.125  0.0262  0.1608  0.0023
65810W        W66674   8.771   9.669  12.952 -0.0759 -0.2908 -0.2419
65811W        W66675  19.908  23.379   0.504 -0.1980  0.1407  0.2373
65812W        W66676  15.261  10.651  14.651  0.2905  0.1113 -0.0095
65813W        W66677  14.122  24.286  14.699 -0.0427 -0.2944  0.2388
65814W        W66678  22.081  14.754  23.582  0.0239 -0.1673 -0.0683
65815W        W66679  27.564   0.006  20.144  0.2290 -0.0151  0.3903
65816W        W66680  17.022  28.295   5.528 -0.1769 -0.0423 -0.3290
65817W        W66681   3.244  10.724  17.923  0.2611 -0.2546  0.0255
65818W        W66682  11.962  26.345  18.015  0.1394 -0.0775  0.0412
65819W        W66683  11.431  16.088   7.095 -0.0851  0.1292 -0.1332
65820W        W66684  12.358   4.429  25.573 -0.1114  0.1034 -0.0730
65821W        W66685  17.776  15.573   5.587 -0.0838 -0.1296  0.0691
65822W        W66686  19.936   0.869  15.750  0.0585 -0.1908 -0.3476
65823W        W66687  16.773   2.348   9.839 -0.2735  0.0189  0.0898
65824W        W66688   8.588  20.122  16.636  0.2823  0.2028  0.2208
65825W        W66689  14.774  12.622   8.154  0.0996  0.3129  0.0301
65826W        W66690  20.577  19.702  21.987  0.0836 -0.0547  0.1370
65827W        W66691  14.628  24.452   0.837  0.1497 -0.1653 -0.1854
65828W        W66692   6.534   5.333  21.705  0.1177  0.1380  0.0505
65829W        W66693   9.569  20.074  10.189 -0.0574  0.2104 -0.1796
65830W        W66694  24.624  17.191  11.236  0.4242  0.2766 -0.1958
65831W        W66695   1.987  19.594  15.945 -0.2076  0.2309 -0.0369
65832W        W66696  12.950   9.339   3.938 -0.0322  0.0055 -0.1879
65833W        W66697  26.959  16.164   8.736  0.0372  0.0286  0.0284
65834W        W66698  27.242  21.137   4.568 -0.2293  0.1725 -0.0862
65835W        W66699  14.325  20.837  21.806  0.0928 -0.0604 -0.1280
65836W        W66700   2.720  15.776  18.204  0.3163  0.3767  0.0772
65837W        W66701  23.343  25.367  20.975  0.1240  0.0008  0.1556
65838W        W66702   1.766  10.514   5.455 -0.1199  0.0160 -0.1382
65839W        W66703  12.224  15.405  29.036 -0.1270 -0.1343 -0.3183
65840W        W66704  12.796  22.784  14.635  0.2303  0.1577 -0.0258
65841W        W66705  25.470  14.123  18.856  0.3791 -0.3136 -0.0661
65842W        W66706   7.496   5.956  16.925 -0.0723  0.0656  0.1018
65843W        W66707  13.303  11.950   4.794 -0.3069 -0.0429 -0.0251
65844W        W66708   6.531  17.894   1.067 -0.1619  0.1338  0.0945
65845W        W66709   7.982  13.961   7.827  0.2471  0.2020  0.0961
65846W        W66710  25.135   1.066  14.457 -0.1029  0.3124  0.3231
65847W        W66711  10.801  19.547  18.539  0.1423  0.4426  0.0371
65848W        W66712   4.454  17.159  10.524 -0.0109  0.0817 -0.3257
65849W        W66713  27.303  27.777   5.699 -0.1122 -0.0417 -0.2880
65850W        W66714  20.437   0.043  15.098  0.0464  0.2449  0.0475
65851W        W66715  25.096   8.141  14.392 -0.4081 -0.1063  0.2352
65852W        W66716  26.834   8.869  17.172  0.2262  0.0868 -0.0384
65853W        W66717  11.431  26.715   0.369 -0.0336  0.0799 -0.0090
65854W        W66718  22.288  26.978  21.940 -0.2160  0.1767 -0.1473
65855W        W66719  11.602   6.141   9.770  0.4353 -0.2257  0.0698
65856W        W66720   6.977  21.755  20.174  0.2704  0.0140 -0.0709
65857W        W66721  22.811   3.025   7.902  0.0458 -0.1275  0.3376
65858W        W66722  12.348   1.787  11.477 -0.3378 -0.2337  0.1493
65859W        W66723   9.560  16.126  11.890  0.1290  0.1914  0.0578
65860W        W66724  16.759  15.547  19.943  0.1963  0.0023  0.0427
65861W        W66725   4.888   0.709  23.195  0.1465 -0.0169 -0.0020
65862W        W66726  21.384   4.835  28.101  0.0971  0.0577  0.1416
65863W        W66727  21.215  21.614   0.564  0.0054 -0.0910 -0.1904
65864W        W66728  26.397  14.807  13.117  0.0691 -0.0715 -0.0172
65865W        W66729  15.947  27.451  12.619 -0.1399 -0.1809  0.0614
65866W        W66730  13.148  11.339  27.775  0.3331 -0.0932 -0.0617
65867W        W66731  13.831  20.001   1.501  0.0432  0.3396  0.2679
65868W        W66732  12.862   5.461  18.340 -0.0249  0.1791  0.0558
65869W        W66733   0.515  21.467   1.883 -0.1708 -0.4566 -0.5319
65870W        W66734  10.208  27.686   4.192  0.1142 -0.1143  0.2899
65871W        W66735  15.491  18.038  19.904 -0.0617  0.1397 -0.2182
65872W        W66736  13.302   4.182   2.721 -0.2104 -0.1946  0.1627
65873W        W66737  13.147  12.311  15.709  0.1251  0.0041  0.1167
65874W        W66738  22.018  12.165  19.402 -0.2144  0.1104  0.0807
65875W        W66739   5.754  14.583  16.295  0.2281  0.3114  0.3084
65876W        W66740  18.442   9.231  19.546  0.0752 -0.0082 -0.0780
65877W        W66741  10.484   6.852  12.718  0.0853  0.2500  0.2877
65878W        W66742  28.056  11.413  18.652  0.2758 -0.0511 -0.3607
65879W        W66743   1.925  16.906  17.161 -0.1170 -0.2642  0.1327
65880W        W66744   0.467   4.367   8.440 -0.0787  0.1291  0.2586
65881W        W66745  11.266   2.493  10.338  0.1463  0.0121 -0.1191
65882W        W66746  21.307   9.125  17.013  0.1232  0.0850 -0.0889
65883W        W66747  21.918  19.338  27.337 -0.2640 -0.0324  0.1597
65884W        W66748  13.465  25.578  12.735 -0.0174 -0.2386 -0.1560
65885W        W66749  21.634   9.453  17.089 -0.0623  0.1443 -0.0382
65886W        W66750   1.301   2.524  22.847  0.3654 -0.2495 -0.0909
65887W        W66751   3.441  10.883  16.318 -0.2305  0.1475  0.0367
65888W        W66752  10.324   5.812  14.640  0.3351 -0.2499  0.1027
65889W        W66753  12.982  25.411   2.691 -0.0339  0.2705 -0.0014
65890W        W66754  10.310  14.591  25.292  0.0382 -0.0218 -0.0669
65891W        W66755  11.810  10.078   7.097  0.0512  0.3597  0.1621
65892W        W66756  17.521   3.491   6.277  0.2568 -0.2091 -0.1822
65893W        W66757   7.843  28.880   7.233  0.1661  0.2462 -0.1312
65894W        W66758   0.856  20.730  25.195  0.2413 -0.1707  0.0516
65895W        W66759   5.638   0.750   7.499  0.0711  0.0372  0.0704
65896W        W66760  14.470   5.663  21.400 -0.1409 -0.0730  0.1437
65897W        W66761   2.577   1.564  24.987 -0.1572 -0.2276 -0.2732
65898W        W66762  11.953  23.402   8.099 -0.1292 -0.0900  0.1054
65899W        W66763  10.042   1.856  19.125 -0.0306  0.1474  0.0849
65900W        W66764   5.348   8.019  16.090 -0.1200 -0.2808 -0.1512
65901W        W66765  12.296  13.985  20.617  0.0241  0.0962  0.0009
65902W        W66766  21.531  11.928  20.126  0.1952 -0.1858  0.0641
65903W        W66767  28.941   0.792   6.387 -0.1932  0.3505 -0.0649
65904W        W66768  11.509  13.218   1.049  0.0335 -0.0426 -0.0367
65905W        W66769  15.423   5.803   9.071  0.0343  0.1567 -0.0115
65906W        W66770   4.439  21.979   6.706  0.1977 -0.0872 -0.2098
65907W        W66771   9.758  26.524  18.402 -0.0289  0.3860  0.1536
65908W        W66772   4.805   6.934  16.337  0.1968 -0.1853 -0.2248
65909W        W66773  19.335  19.191   0.652 -0.0715  0.0756  0.1052
65910W        W66774   2.896  15.285  16.514  0.1001 -0.2600 -0.0183
65911W        W66775   5.017  11.365  16.153  0.1293  0.0124  0.0029
65912W        W66776  10.944  10.577   8.175 -0.1306  0.5080  0.1886
65913W        W66777   9.669   0.458   8.608  0.2157 -0.0021  0.0077
65914W        W66778   5.961   0.560  15.005  0.0012  0.0204 -0.0307
65915W        W66779  27.891  17.241  29.003  0.0231  0.0408 -0.0084
65916W        W66780   5.239  12.440  16.758  0.0838 -0.2309 -0.0090
65917W        W66781   9.745  13.303  24.067 -0.2232 -0.3455 -0.0540
65918W        W66782  18.342  12.180  18.358 -0.0487 -0.0943  0.0345
65919W        W66783   2.463   8.050  23.619  0.1092  0.0523 -0.0365
65920W        W66784  13.044   7.350  13.213  0.1989  0.3760  0.0252
65921W        W66785  17.699  22.634   9.558  0.1224 -0.0404  0.1577
65922W        W66786   4.364   4.591  15.442 -0.0366  0.2360 -0.2760
65923W        W66787  22.045   8.576  11.843  0.0799  0.3897  0.2256
65924W        W66788  14.870  19.081  18.897 -0.0640  0.2611  0.3205
65925W        W66789   3.830   5.445  15.155  0.1055  0.2748 -0.2054
65926W        W66790  18.853  19.693  15.697 -0.2122  0.2132  0.3787
65927W        W66791  14.081  19.373  28.083 -0.2585 -0.0252 -0.0696
65928W        W66792   0.262  15.042  27.312  0.3380 -0.0524 -0.2879
65929W        W66793   1.145  20.676   8.486 -0.0734 -0.0014  0.0753
65930W        W66794   5.064  18.406  15.949  0.1922  0.1642  0.2336
65931W        W66795  27.452   3.242  11.171  0.2525  0.0099 -0.0801
65932W        W66796  10.873  15.077  22.980 -0.1797 -0.1293  0.1848
65933W        W66797  20.805  13.586  16.145  0.0568  0.0396  0.0640
65934W        W66798  21.299  26.541   6.754 -0.3928  0.0213  0.0292
65935W        W66799  16.104  27.277  21.336 -0.3004  0.2355 -0.0685
65936W        W66800   7.567  15.286   4.999 -0.2273  0.0177 -0.0803
65937W        W66801  10.250  13.294  15.905  0.0661  0.0580 -0.2078
65938W        W66802  16.107  11.503  15.912  0.0945 -0.1433 -0.0153
65939W        W66803   6.975  22.679   2.382  0.0369 -0.0052  0.1971
65940W        W66804  28.569   2.763  19.954 -0.0509 -0.0547  0.0616
65941W        W66805  23.623  17.783   0.983 -0.0859 -0.1520 -0.0078
65942W        W66806   5.921   6.667  25.940  0.2257 -0.1248 -0.0408
65943W        W66807  21.419  14.301  12.467  0.1029  0.1855 -0.0665
65944W        W66808   7.280  10.172  17.868 -0.0924 -0.1452  0.2312
65945W        W66809  14.081   6.123  15.587  0.1481  0.0274 -0.1440
65946W        W66810  17.244  18.510  13.625  0.2069 -0.0555  0.1636
65947W        W66811  13.165  23.481   9.447  0.2152  0.2220  0.0834
65948W        W66812  13.762  23.668  14.069  0.1999 -0.0777 -0.0169
65949W        W66813  28.908  14.903   6.638  0.2023 -0.0052  0.0917
65950W        W66814  16.776   4.219  15.102 -0.1646 -0.1463 -0.0098
65951W        W66815  15.255  13.514  26.196  0.0827 -0.0172 -0.1491
65952W        W66816  15.182  15.706  24.882  0.3987  0.0893 -0.4095
65953W        W66817  25.870  15.689   2.860 -0.0427 -0.3125 -0.0291
65954W        W66818  21.512   9.979   9.923 -0.0277  0.0105  0.0699
65955W        W66819   7.379   7.889   7.532  0.0761  0.0512  0.1944
65956W        W66820  21.542  19.913  14.184  0.2939 -0.2793 -0.0423
65957W        W66821   9.405  20.271   8.386  0.2102 -0.0527 -0.0228
65958W        W66822  21.702  27.147  27.567  0.2980  0.6538 -0.0945
65959W        W66823  23.178  25.871  10.218 -0.1626  0.1019 -0.0222
65960W        W66824  11.915  28.377   6.029 -0.0594  0.1930 -0.0225
65961W        W66825  23.138  20.922  14.399 -0.2083  0.0252  0.1641
65962W        W66826  16.324  23.748   8.708  0.0489  0.2099 -0.1002
65963W        W66827  25.807   4.894  17.580  0.3071  0.2572 -0.0553
65964W        W66828  18.808   0.830   5.210  0.0289  0.0331 -0.0846
65965W        W66829  21.899  19.539  20.576 -0.2024  0.1168  0.0853
65966W        W66830   7.953  22.506   5.510  0.1220 -0.0797 -0.0243
65967W        W66831  11.779   0.075  16.134  0.3110  0.0236 -0.0144
65968W        W66832  21.331  25.270   8.317  0.0775  0.0602  0.1292
65969W        W66833  16.571   3.251  15.413  0.1634 -0.1167  0.0924
65970W        W66834  26.893  21.550  25.520  0.1994 -0.0635 -0.0024
65971W        W66835  15.338   1.802  15.012  0.1585  0.0140  0.1364
65972W        W66836  13.379  23.372  13.067  0.1886 -0.2323  0.0003
65973W        W66837  25.514  13.945   7.486 -0.0991  0.2989 -0.0520
65974W        W66838  11.957  20.898  14.483  0.2507  0.1718 -0.1179
65975W        W66839  16.146   9.561  22.759 -0.1374  0.2125 -0.0483
65976W        W66840  10.907   6.154   8.517 -0.1416 -0.3712 -0.3786
65977W        W66841  17.893  20.721  26.634  0.0825  0.0256  0.0007
65978W        W66842   4.483   4.853  24.727 -0.0787 -0.4441  0.2017
65979W        W66843   5.390  15.803  15.428  0.1412  0.1853 -0.2295
65980W        W66844  25.778   7.276   0.808 -0.1653  0.2280 -0.2120
65981W        W66845   1.298  27.980  14.029 -0.2159 -0.2744  0.1975
65982W        W66846   5.983   5.662  21.420 -0.0431 -0.3820  0.1972
65983W        W66847  23.240   4.060  22.486 -0.2457 -0.1056 -0.0262
65984W        W66848  21.872  16.873  22.978  0.0862  0.2416 -0.0125
65985W        W66849  27.596   5.114   9.452 -0.1112  0.3179  0.1068
65986W        W66850  12.115  19.837  21.597 -0.4287 -0.1888 -0.0585
65987W        W66851  27.895  10.267   9.391  0.1491  0.2786  0.1499
65988W        W66852   5.129  26.185   1.484 -0.1135  0.0577  0.0479
65989W        W66853   1.499   2.561  21.023  0.0329 -0.1557 -0.1769
65990W        W66854   6.896  15.353  25.138 -0.2793 -0.0118 -0.0984
65991W        W66855   7.758  21.413   1.408 -0.1408 -0.1611 -0.0339
65992W        W66856   5.428  11.925  23.712 -0.3837 -0.3581 -0.0858
65993W        W66857  12.903  24.174  18.719 -0.2330  0.0525  0.2212
65994W        W66858  11.286  22.326  13.155  0.0044  0.0598  0.0769
65995W        W66859   8.298   3.356  18.205 -0.1416  0.1975 -0.0140
65996W        W66860  11.731  20.745   5.427 -0.0536 -0.1035  0.0432
65997W        W66861  14.800  21.934  17.015  0.0343 -0.0334  0.1318
65998W        W66862  12.923  18.806   7.081  0.2683  0.1078 -0.0404
65999W        W66863  11.509   9.701  13.909  0.0160 -0.3292 -0.1381
66000W        W66864  27.508   8.515  24.044 -0.2444 -0.1101 -0.3223
66001W        W66865  17.492  23.154   3.661  0.0507  0.0903  0.1719
66002W        W66866   2.018  23.447  17.139 -0.1992 -0.0966 -0.2538
66003W        W66867   0.746  18.996   7.131 -0.0066 -0.1199  0.3176
66004W        W66868  26.452   9.414  21.912  0.0514  0.0509 -0.1392
66005W        W66869   5.472  11.566  20.589  0.1366  0.1935 -0.1242
66006W        W66870  14.182   7.222  10.192  0.1839  0.0693  0.0062
66007W        W66871  13.626  23.983  15.938 -0.1530 -0.0174 -0.0784
66008W        W66872  24.579   8.168  22.660 -0.1143  0.0801  0.0887
66009W        W66873   3.423   7.783  21.171 -0.3304 -0.2121  0.0142
66010W        W66874  23.278  21.318   9.413 -0.0629 -0.0182  0.0286
66011W        W66875  21.503   2.826  12.080 -0.1494 -0.0759  0.5157
66012W        W66876  22.180  17.342   1.885 -0.1675  0.0011  0.1121
66013W        W66877  26.623  13.160  23.757  0.0320  0.1321 -0.1458
66014W        W66878  13.039  10.608   0.395  0.1001  0.1603 -0.1929
66015W        W66879   5.859   2.186  17.075 -0.1562  0.0443  0.0827
66016W        W66880  13.805  11.941   1.695 -0.0504  0.0255  0.2005
66017W        W66881   0.885  12.692  10.636  0.2069 -0.2189  0.2414
66018W        W66882  10.092  28.597  16.936 -0.0108  0.1837  0.3829
66019W        W66883  25.150  26.711  23.454 -0.1153 -0.1937 -0.0950
66020W        W66884  27.796  21.683  12.167 -0.0441  0.0047  0.1343
66021W        W66885   4.248  15.669  19.895  0.0472 -0.2926  0.0676
66022W        W66886  24.715  12.791  21.085 -0.0653 -0.1095  0.0234
66023W        W66887  14.559  16.935  23.783  0.0194 -0.0440 -0.1165
66024W        W66888   7.184  18.476  16.693 -0.1315 -0.0276 -0.0102
66025W        W66889   6.806   8.007  15.831 -0.1995 -0.2080  0.1542
66026W        W66890  23.152  12.484  23.714 -0.1520  0.2265 -0.1697
66027W        W66891  10.353  12.443   1.198  0.1299  0.1937  0.1408
66028W        W66892  25.394   7.397  27.424 -0.1848  0.0017  0.0609
66029W        W66893  12.237  23.665  21.475 -0.0524  0.1788  0.2635
66030W        W66894  20.602  20.113  24.574  0.2020 -0.1775  0.0168
66031W        W66895   6.092  26.962  18.357 -0.0167 -0.1402 -0.1165
66032W        W66896  16.207  12.080  10.698 -0.1352 -0.0044 -0.0544
66033W        W66897   1.855   6.672  21.830 -0.2199 -0.0629 -0.0618
66034W        W66898  13.476  27.450  25.444  0.0122  0.0249 -0.1000
66035W        W66899   4.674  25.711  23.794 -0.0964 -0.0183  0.1490
66036W        W66900   4.697  11.927  10.002  0.2707 -0.0326 -0.0202
66037W        W66901   5.997  21.284  13.351 -0.2637  0.0787 -0.1862
66038W        W66902  13.774  16.878  28.790 -0.0898 -0.2826  0.1826
66039W        W66903   8.506   1.537  22.063 -0.0573 -0.1120 -0.4330
66040W        W66904  10.895  14.500   0.151  0.1155 -0.0304  0.3566
66041W        W66905  18.127   7.702  25.934 -0.0841 -0.1037  0.2430
66042W        W66906   0.322   9.871  24.298  0.1806 -0.1895  0.1678
66043W        W66907  10.316   8.605  26.648  0.1690 -0.0660  0.1847
66044W        W66908  11.983  27.414   1.722  0.0408  0.1988  0.0086
66045W        W66909   4.931   9.088  10.484 -0.1829  0.1419 -0.0638
66046W        W66910   6.483  12.161   3.790 -0.3919 -0.3117 -0.2011
66047W        W66911  15.049  19.702  24.646  0.0669 -0.2012  0.2129
66048W        W66912  25.349   2.303  10.908  0.3992  0.1380 -0.2679
66049W        W66913  24.478  17.560  28.024 -0.0942  0.0707 -0.1716
66050W        W66914   7.456  16.683   6.460 -0.0363 -0.1541 -0.1743
66051W        W66915   6.063   0.405  20.924 -0.0232  0.1939 -0.0113
66052W        W66916  19.752   8.582  15.111 -0.1274  0.2269 -0.1362
66053W        W66917   6.094  16.750   1.776  0.0884  0.0948 -0.0541
66054W        W66918  20.332   7.542   9.766  0.1710  0.1399 -0.0634
66055W        W66919  21.925  24.552  17.436  0.0503  0.4463  0.2794
66056W        W66920  11.597  15.199  20.453  0.0059 -0.2705 -0.2040
66057W        W66921  15.815  15.758  18.350 -0.1349  0.0721 -0.1533
66058W        W66922   6.850  24.830  28.177 -0.1193 -0.1919 -0.3014
66059W        W66923  10.049  16.719  18.444 -0.0051  0.2253 -0.2210
66060W        W66924  12.888   1.436  13.116  0.2431  0.1732  0.1923
66061W        W66925  15.223  28.328  25.470 -0.2194 -0.3599 -0.2959
66062W        W66926   1.627   1.814  11.894  0.3542 -0.0060  0.1645
66063W        W66927   3.252  12.625   9.444  0.4598 -0.2911 -0.1644
66064W        W66928   4.744  17.377  18.925 -0.1661 -0.2071 -0.1444
66065W        W66929   7.250  28.305  27.302 -0.2407  0.1158  0.1649
66066W        W66930  18.654  19.769  11.762 -0.0758 -0.1023 -0.0788
66067W        W66931  17.702   6.676  20.535  0.1376  0.0013  0.1158
66068W        W66932   5.685  12.636  15.127  0.2276  0.1282  0.1164
66069W        W66933  22.416  23.043   9.642  0.0051  0.0955 -0.0028
66070W        W66934  14.872   2.181  13.184 -0.1543 -0.1557  0.0201
66071W        W66935  12.454  15.767  26.111  0.0688 -0.2497 -0.1179
66072W        W66936  18.485  12.769  24.529  0.1060  0.1026  0.0379
66073W        W66937  20.175  10.287  16.846 -0.1778  0.0215 -0.0086
66074W        W66938  24.245  24.170  20.364  0.0395 -0.2434 -0.1221
66075W        W66939  20.948   6.075  28.944  0.1056 -0.4033 -0.0524
66076W        W66940   8.997  23.755   3.843 -0.2733  0.1395 -0.0128
66077W        W66941  19.950   7.002  20.587  0.1164  0.2868  0.0449
66078W        W66942  22.971  23.131   2.098  0.0436  0.1223 -0.0227
66079W        W66943  20.377  10.692  17.159  0.3067 -0.0347 -0.1469
66080W        W66944  15.114  20.991  26.645 -0.1033  0.2730 -0.0933
66081W        W66945   0.776  11.413  25.250  0.0830 -0.0459  0.1637
66082W        W66946   2.864   7.988   5.303  0.2004  0.1352  0.3267
66083W        W66947   2.419  15.905  24.325 -0.0697  0.2081 -0.1313
66084W        W66948  26.864  20.859  16.817 -0.1193  0.3604  0.2732
66085W        W66949  29.124  13.193  19.690 -0.0270  0.0515 -0.1319
66086W        W66950  12.292  26.087  11.782 -0.1145  0.4653 -0.0749
66087W        W66951  28.680  25.607  19.830  0.0405 -0.3404 -0.2126
66088W        W66952   1.294  13.257   5.241 -0.3087  0.0516  0.0314
66089W        W66953  17.851   0.873   6.416  0.0469  0.3437 -0.2205
66090W        W66954  19.487  19.422   8.344 -0.0578  0.0984  0.2357
66091W        W66955  22.178   0.028  15.786 -0.0541 -0.1342  0.1261
66092W        W66956  15.069   2.153  20.185  0.2159 -0.0580  0.2748
66093W        W66957  25.369  12.752   2.155 -0.0092 -0.0795 -0.0778
66094W        W66958   9.661  10.676  15.200 -0.1882 -0.3016 -0.0944
66095W        W66959  11.731  19.196  15.201 -0.0671 -0.0897  0.1910
66096W        W66960  26.659  24.927  19.754 -0.1161 -0.3375 -0.0395
66097W        W66961   7.526  11.198  19.313  0.0438  0.0271 -0.0939
66098W        W66962  13.334  16.950  19.956  0.2541  0.0362  0.2994
66099W        W66963  15.963  21.031   7.114 -0.2968  0.1318 -0.2317
66100W        W66964  22.532   8.209  12.477 -0.2230  0.1286  0.2099
66101W        W66965  12.837  21.800  22.545  0.0702  0.1054 -0.0961
66102W        W66966   4.667  21.677  24.035 -0.0547 -0.4180 -0.0556
66103W        W66967  11.977  22.607  14.283  0.2131  0.2100 -0.3583
66104W        W66968  29.070  14.073  22.416 -0.1179 -0.2415  0.1884
66105W        W66969  17.347  14.612   9.075 -0.1031 -0.1881  0.2188
66106W        W66970  20.344  26.610  18.425  0.2982  0.0561  0.1068
66107W        W66971   2.099  14.598  18.948 -0.0570 -0.1165 -0.2996
66108W        W66972   9.112  11.347  28.157 -0.0368  0.1453  0.1660
66109W        W66973  14.193   1.644   3.712  0.1881 -0.1332  0.2469
66110W        W66974   9.550  13.061   7.171  0.2960  0.1439 -0.0536
66111W        W66975  24.627  20.964  13.585  0.3611 -0.1917  0.1792
66112W        W66976  15.599  27.416  13.059  0.0482 -0.1726 -0.0573
66113W        W66977  18.142  20.533  10.152  0.0145  0.0054 -0.2806
66114W        W66978   3.510  18.790   2.526 -0.2282  0.1812 -0.1518
66115W        W66979  13.670  11.687  26.101  0.1591  0.1725  0.0100
66116W        W66980  17.858  10.763  21.108 -0.0958 -0.0043 -0.0087
66117W        W66981  15.869  14.840  20.999  0.0915 -0.0148 -0.1912
66118W        W66982  16.134  17.497   7.106  0.1843  0.0445 -0.1160
66119W        W66983   5.076  17.792  27.745 -0.0139 -0.1551  0.0320
66120W        W66984  10.873  15.878  14.102  0.1081 -0.5303  0.2032
66121W        W66985   9.284  12.315   1.725  0.1163  0.0142  0.4634
66122W        W66986  18.877  25.273  17.913  0.1131 -0.1726  0.0354
66123W        W66987  28.604   7.834  12.067 -0.2893  0.0164  0.0540
66124W        W66988   4.326  10.962   7.404  0.0448  0.0384  0.3383
66125W        W66989   6.236  21.165  24.440 -0.0423  0.2048  0.1672
66126W        W66990   2.594   3.392   4.493  0.0256 -0.0037 -0.0549
66127W        W66991  22.914   0.718  15.315  0.3463 -0.2396 -0.0246
66128W        W66992   5.434  18.833  22.382 -0.0616 -0.0980 -0.1177
66129W        W66993  11.778   5.227  21.091  0.0875 -0.0663  0.0734
66130W        W66994   6.760   7.210  18.230 -0.0921  0.0089 -0.1686
66131W        W66995   8.737  25.902  10.699 -0.2391 -0.0023 -0.3856
66132W        W66996  13.256  17.719  16.673 -0.0448  0.1262  0.0522
66133W        W66997   4.875  18.308  13.757 -0.0496 -0.1515 -0.3872
66134W        W66998   4.525  24.630  22.413  0.3705  0.0681 -0.0552
66135W        W66999  13.464  13.768   3.837 -0.1198  0.0921 -0.1199
66136W        W67000   6.423   8.815   5.719  0.0052 -0.1055  0.0691
66137W        W67001  23.477  15.503  14.410 -0.1830  0.2851  0.4824
66138W        W67002  21.410   3.131   1.454 -0.1860 -0.1420  0.1694
66139W        W67003  23.950   8.223   3.149 -0.1649  0.2794  0.3102
66140W        W67004   4.038   4.232  25.044  0.4859 -0.1876  0.0328
66141W        W67005  28.191  21.166  18.419 -0.0428  0.0375  0.0514
66142W        W67006  19.127   3.190   3.541  0.2210 -0.4159 -0.1149
66143W        W67007  15.977  24.917  17.845 -0.0150 -0.0724  0.3030
66144W        W67008  25.963  26.253  19.030  0.0450  0.2027  0.2483
66145W        W67009  21.380  20.224   7.086  0.0126 -0.4034 -0.0440
66146W        W67010  17.453   8.994  21.009  0.1910  0.1113  0.1692
66147W        W67011   5.169  10.993  20.016  0.1353 -0.1127  0.1518
66148W        W67012  13.054  21.535   1.612  0.0969 -0.1708 -0.3064
66149W        W67013  17.780  28.445  24.612  0.1699 -0.0874 -0.0351
66150W        W67014   0.491  14.416  14.363  0.0522  0.0920 -0.2048
66151W        W67015  22.334  15.172  12.001  0.0883  0.0474 -0.1504
66152W        W67016   4.957  11.131  10.079  0.0809  0.0533 -0.0685
66153W        W67017  12.713  14.619  15.211  0.0772  0.2195 -0.0100
66154W        W67018  14.214   2.863  13.341  0.3752  0.0121  0.1975
66155W        W67019   9.850   8.033  17.498 -0.1526 -0.0615 -0.1466
66156W        W67020  16.016  11.940  16.072 -0.1587  0.0949  0.0866
66157W        W67021   6.186  17.289  25.660 -0.0647  0.2590  0.2469
66158W        W67022  13.594  18.701  19.102  0.0766  0.1304 -0.0689
66159W        W67023  18.184   3.647   9.681 -0.1816 -0.0248  0.1030
66160W        W67024   7.920  24.077  16.079 -0.3228 -0.0240  0.4417
66161W        W67025   2.004   3.877  19.230 -0.3388 -0.2429  0.1165
66162W        W67026   7.267  18.926   5.959  0.0297  0.1272 -0.0269
66163W        W67027  22.085  17.511  10.113 -0.1125  0.1314  0.2023
66164W        W67028   7.816   9.696  23.335 -0.1378 -0.3839 -0.0510
66165W        W67029  15.356  20.869  22.778 -0.3015  0.3012  0.0873
66166W        W67030  16.087   3.108  16.309  0.1401 -0.0442  0.2196
66167W        W67031  24.223  26.611  22.856 -0.3098 -0.0310  0.2368
66168W        W67032   4.186  12.194  23.993 -0.0960  0.1887 -0.1893
66169W        W67033   1.764  26.820   5.066 -0.1595 -0.0635 -0.0087
66170W        W67034   7.261  11.994  10.070  0.2836  0.1296 -0.4016
66171W        W67035   3.627  11.572  18.315  0.2263  0.4413  0.0926
66172W        W67036   8.359   0.283  21.642 -0.1949  0.0176 -0.0992
66173W        W67037   2.207  17.642   2.142 -0.1513 -0.0626 -0.0388
66174W        W67038  24.822   1.854   1.297  0.0846  0.1016  0.0728
66175W        W67039   2.940   6.365  12.488 -0.3889  0.2722  0.2104
66176W        W67040  28.470  22.127  22.621  0.1719  0.0219  0.0646
66177W        W67041  10.388  13.361  23.790 -0.1508 -0.0897  0.1840
66178W        W67042   8.911  20.733  24.323 -0.2005  0.0236  0.0287
66179W        W67043  10.346   3.925  24.589  0.0504  0.0156 -0.2680
66180W        W67044  20.001  20.700  24.064  0.0977  0.0775  0.2888
66181W        W67045  11.187  27.426  21.019  0.0045  0.3632  0.1177
66182W        W67046  13.250   1.342   0.712 -0.0843 -0.1936 -0.0055
66183W        W67047   7.502  18.679  15.012  0.1882  0.0361 -0.0540
66184W        W67048   3.185   6.829  23.104 -0.0189 -0.0444 -0.2382
66185W        W67049  24.536   7.354  18.385  0.0753 -0.1955  0.3463
66186W        W67050  15.517   2.551   2.446 -0.0180 -0.0831  0.1052
66187W        W67051  17.372  10.708  19.844 -0.1850  0.1528 -0.0468
66188W        W67052  11.959   2.704   1.908  0.2496 -0.0370 -0.1205
66189W        W67053  12.225  23.752   5.010 -0.0834  0.0254  0.0442
66190W        W67054   7.213   1.212  27.990  0.2388  0.1207 -0.0131
66191W        W67055  23.421  18.712  24.929  0.0171  0.3016  0.2784
66192W        W67056   3.623  25.537  28.895 -0.0863  0.3275 -0.0229
66193W        W67057   0.178  25.129  10.121  0.2614  0.2296  0.1759
66194W        W67058  27.128  16.768   2.299 -0.1871 -0.0926 -0.1374
66195W        W67059  16.085  23.109   5.523 -0.0870  0.0397 -0.0673
66196W        W67060  11.143  27.971  12.466  0.1224 -0.1511 -0.1071
66197W        W67061  27.229  10.947  15.602  0.1618 -0.1183 -0.1099
66198W        W67062   2.776  23.399   8.879  0.1204  0.1094 -0.1140
66199W        W67063  10.942  14.965   5.209  0.2274  0.1315 -0.4103
66200W        W67064  15.813  20.452   6.985 -0.0300  0.1317 -0.2006
66201W        W67065  22.112  22.124  10.795  0.2510 -0.0042  0.1264
66202W        W67066  26.124  21.749   5.656 -0.0058  0.2629 -0.1877
66203W        W67067   3.808  20.864  19.718  0.0609 -0.1804 -0.1500
66204W        W67068  22.183  23.349  26.319 -0.1156  0.1026  0.1912
66205W        W67069   5.795  17.870   4.221  0.0666  0.1943 -0.1543
66206W        W67070   5.508  21.991  14.632 -0.2077  0.2085 -0.3260
66207W        W67071  20.698  19.582  23.900 -0.0332  0.0057 -0.1120
66208W        W67072  19.786   3.843  25.788 -0.1190 -0.0519 -0.1635
66209W        W67073  15.466  22.856  24.781 -0.0677  0.3386 -0.0962
66210W        W67074  17.094   3.343   2.883  0.1181 -0.0175 -0.0052
66211W        W67075  11.111  21.581  13.194  0.4511  0.2185 -0.0153
66212W        W67076  12.575  15.747  19.607  0.0758  0.0129  0.0279
66213W        W67077   1.540   1.235  19.202  0.3977 -0.1817 -0.0640
66214W        W67078   0.709  23.062  12.608 -0.3514  0.1331 -0.0900
66215W        W67079   8.804  16.806  26.064 -0.0031 -0.1935  0.0991
66216W        W67080   6.465  12.959  18.385 -0.0906 -0.2479  0.0124
66217W        W67081  13.156  15.460  16.402 -0.2426  0.1808  0.0785
66218W        W67082   0.120  19.299  10.931 -0.3124 -0.0210 -0.0287
66219W        W67083  19.770   0.918  12.673  0.0187  0.1573 -0.2844
66220W        W67084  20.553  28.351   6.131 -0.0278  0.2550  0.0601
66221W        W67085   4.223   5.478  13.185  0.1187 -0.1069 -0.1710
66222W        W67086  25.454  19.189   1.190 -0.2491  0.3593 -0.1814
66223W        W67087   8.337  14.903  18.401 -0.0115 -0.2345  0.0439
66224W        W67088   5.538  24.541  22.162 -0.2282 -0.1334 -0.3008
66225W        W67089   0.451  26.172   6.143 -0.3453  0.2140 -0.3174
66226W        W67090  25.670   8.809  17.655 -0.2980 -0.2654 -0.0502
66227W        W67091   1.463  12.874  17.620 -0.2077  0.2941 -0.2322
66228W        W67092  18.727  10.199   4.874  0.2206  0.1189 -0.2852
66229W        W67093  26.716  21.240   2.795  0.0216 -0.0814 -0.1070
66230W        W67094  11.891  26.617   7.096 -0.3629 -0.1442  0.0573
66231W        W67095  24.082  23.916  24.902 -0.1081  0.1195 -0.0523
66232W        W67096   4.655   3.741  21.073  0.0985 -0.1415  0.1197
66233W        W67097  14.646  13.898  23.860 -0.3431  0.1222 -0.1069
66234W        W67098  13.370  16.903  21.463 -0.0851  0.0392  0.0295
66235W        W67099  12.210  19.840  27.776 -0.0947  0.2828 -0.0494
66236W        W67100  24.913  25.200  20.491 -0.0062 -0.3712  0.2159
66237W        W67101   3.020  19.857  19.019 -0.0375 -0.1959 -0.0306
66238W        W67102   6.138   9.202  17.850  0.2109 -0.0823 -0.0181
66239W        W67103  26.594   7.241  25.177  0.2779 -0.1812  0.0986
66240W        W67104  14.811  16.301  21.506 -0.2393 -0.2451  0.4005
66241W        W67105   7.299  23.016   5.078  0.0255 -0.2060  0.2177
66242W        W67106   8.994   8.170  13.779 -0.0682 -0.0823 -0.1830
66243W        W67107  28.666  27.042   7.194  0.2861  0.1125  0.1305
66244W        W67108   5.935  20.359  25.044  0.1971  0.0440  0.2145
66245W        W67109   9.249   7.039   5.583 -0.0562 -0.1565  0.3497
66246W        W67110   2.080   1.754  20.897  0.0666  0.0308  0.0013
66247W        W67111   2.595  21.511   9.333 -0.1860  0.0496 -0.0289
66248W        W67112  16.436  16.454   2.815 -0.2322  0.1650 -0.0494
66249W        W67113   6.290   6.362  23.371  0.1201  0.2288  0.0237
66250W        W67114  14.211  26.111  15.418  0.0673 -0.0262 -0.0474
66251W        W67115  14.514  23.784  21.402  0.1791 -0.0895 -0.2661
66252W        W67116   1.771  15.727   8.084 -0.1606 -0.1730  0.0541
66253W        W67117  14.720  26.784   7.413 -0.2749 -0.1738  0.0505
66254W        W67118   3.990   0.819  13.564  0.2665  0.0180 -0.1281
66255W        W67119  11.346   8.682   3.237  0.0089  0.3376 -0.2045
66256W        W67120  15.588  13.261  12.436 -0.0846  0.1390  0.0703
66257W        W67121  18.094   2.792  28.288 -0.0251  0.0551  0.1675
66258W        W67122  20.553  21.155  10.659 -0.3009  0.0854 -0.0267
66259W        W67123  20.607  25.778  10.637  0.1300  0.2276  0.0680
66260W        W67124  20.384  17.138   8.383 -0.1470  0.3026 -0.0205
66261W        W67125  10.290  12.048  15.267 -0.1397  0.4381 -0.0868
66262W        W67126  13.297  25.660  20.682 -0.1958 -0.1425 -0.1429
66263W        W67127  15.003   3.496  22.854  0.1521  0.1828  0.0467
66264W        W67128  17.056   6.615   3.510 -0.0609  0.0406  0.0154
66265W        W67129  13.467  22.798   3.180 -0.0952 -0.1802  0.1185
66266W        W67130   9.822  20.803   5.432 -0.1397 -0.0252  0.0721
66267W        W67131   3.634  13.193   4.631 -0.0018 -0.0229 -0.0949
66268W        W67132  25.325   2.543  26.459 -0.1134  0.0949 -0.0090
66269W        W67133   4.061   9.281  19.532 -0.2009 -0.0083  0.1606
66270W        W67134   7.151   4.200   9.988  0.0727  0.1202  0.0692
66271W        W67135  28.090  19.974  23.937  0.1085  0.0577  0.5233
66272W        W67136  22.115  22.747  15.903 -0.1921  0.0074  0.2390
66273W        W67137  19.257  13.146   1.274 -0.2223  0.1277 -0.0947
66274W        W67138  18.121  18.917  10.050 -0.0109  0.1484  0.0111
66275W        W67139  24.539   6.310   5.454 -0.1599 -0.0686 -0.1851
66276W        W67140  20.834   1.185  20.517 -0.2200 -0.2565 -0.2062
66277W        W67141   4.837  15.489   6.812 -0.0419  0.0410  0.1414
66278W        W67142   5.033  22.861  26.761  0.0992 -0.2399  0.0798
66279W        W67143  18.466  24.799  22.499  0.1004 -0.1300  0.1731
66280W        W67144   7.344  22.105  20.412  0.1843 -0.1735  0.1434
66281W        W67145   7.457  29.095  10.947  0.0254 -0.1776  0.0884
66282W        W67146  19.302  14.820  14.275 -0.1589  0.0551  0.0604
66283W        W67147  11.940  26.685  23.286  0.1271  0.2697  0.1324
66284W        W67148  19.366  10.119  15.673  0.0624  0.3790 -0.0312
66285W        W67149   9.557  20.186   4.583 -0.2110  0.2059 -0.0349
66286W        W67150  10.392  19.516  10.468  0.0560 -0.1524  0.0126
66287W        W67151  10.727  21.359   2.418 -0.0014 -0.2643  0.1983
66288W        W67152  11.991  20.620  13.591 -0.2213  0.0649 -0.0616
66289W        W67153  10.977  16.290  21.414  0.3437  0.0567 -0.1380
66290W        W67154  24.038  21.676   9.987  0.0966 -0.1813  0.1075
66291W        W67155  10.516  21.133  11.051  0.2751 -0.0660  0.4808
66292W        W67156   3.023   6.762  20.260 -0.0791 -0.2023 -0.0295
66293W        W67157   5.286  21.906  25.079  0.0464 -0.1715 -0.1413
66294W        W67158  17.315  25.930   6.280  0.1115  0.0384  0.0367
66295W        W67159  17.251  15.511   0.404 -0.0382  0.0755 -0.5150
66296W        W67160  12.390  17.749  16.083  0.0927  0.0910 -0.0575
66297W        W67161  17.933  13.851  13.765 -0.2927 -0.1280  0.1289
66298W        W67162  11.660  24.089  25.198 -0.1238 -0.1608  0.1690
66299W        W67163  19.341  11.232  17.940 -0.1998  0.0455 -0.1117
66300W        W67164   3.611  16.856  18.521  0.2316  0.0432  0.2833
66301W        W67165   3.820  27.988  22.549  0.2233 -0.0414 -0.0151
66302W        W67166  17.679   1.975   2.101 -0.3757 -0.3401  0.0367
66303W        W67167   8.447  25.706  23.626 -0.1064 -0.0747 -0.2437
66304W        W67168  28.383  25.335   5.021  0.0312  0.0365 -0.0736
66305W        W67169  13.807  18.095  20.629  0.0974 -0.0679  0.2874
66306W        W67170   9.255   7.475  28.149 -0.1379 -0.0839 -0.0842
66307W        W67171   9.139  15.013  15.558 -0.0566 -0.0945 -0.1028
66308W        W67172   3.248   1.513   1.283  0.3894  0.0395  0.0768
66309W        W67173   7.282  21.280  19.256 -0.0443  0.0835 -0.2718
66310W        W67174  12.143  16.858   7.711  0.1281 -0.1514 -0.1240
66311W        W67175  26.566   7.578  26.014  0.1773  0.0396  0.1987
66312W        W67176   3.567  14.096  11.342 -0.0133 -0.3498 -0.0139
66313W        W67177   4.471   6.821  21.062 -0.1030  0.2433 -0.0650
66314W        W67178  15.061   9.424   1.454 -0.3496  0.2074  0.1266
66315W        W67179   4.073  12.722  17.075 -0.0928 -0.2085 -0.3711
66316W        W67180  15.673   8.823   6.659 -0.3789 -0.1123  0.0697
66317W        W67181  16.107  24.444  20.919 -0.0192 -0.0861  0.0883
66318W        W67182  16.293  17.298  27.149  0.1932 -0.1265 -0.1676
66319W        W67183   0.061  25.160  23.041  0.2649 -0.0532  0.1112
66320W        W67184  23.872   2.795   7.398  0.1439  0.1608 -0.3012
66321W        W67185  20.243  25.909  17.817 -0.1607  0.1716 -0.0868
66322W        W67186   9.224  13.205  18.092  0.1260  0.0537  0.2071
66323W        W67187   8.011   4.544  10.237  0.1059  0.3333  0.2459
66324W        W67188  19.182  18.679  16.515  0.2850  0.1275  0.2563
66325W        W67189   8.389   0.707  23.236  0.0186 -0.1325  0.0740
66326W        W67190  28.744  27.219  20.823 -0.1941  0.0319  0.1135
66327W        W67191  19.597  16.834  18.286  0.1389 -0.0607 -0.4484
66328W        W67192   4.379   5.988  24.085  0.1294  0.2271  0.0260
66329W        W67193   9.229   4.575  13.196 -0.1513 -0.1993  0.0238
66330W        W67194  18.504   8.438  20.319  0.1145 -0.0972 -0.1957
66331W        W67195   9.078  20.771  20.090 -0.0010  0.3109  0.0859
66332W        W67196   3.547  14.717   6.189  0.1830 -0.3772  0.0606
66333W        W67197  19.485  26.341  19.415  0.2560 -0.2242 -0.1023
66334W        W67198   4.691  10.911  21.912 -0.1476  0.1319 -0.6440
66335W        W67199  20.301   5.269   2.536 -0.0973 -0.2463  0.0562
66336W        W67200  28.761  14.828  21.163  0.1671  0.0041  0.1596
66337W        W67201  12.805  20.461  20.323  0.0715 -0.0833 -0.1644
66338W        W67202  28.017  10.673  21.826 -0.0805  0.3031 -0.0972
66339W        W67203  28.027  10.936  26.138  0.1902 -0.0778 -0.0449
66340W        W67204   0.269  19.187  23.684 -0.0383  0.0789 -0.1524
66341W        W67205  13.984   9.223   8.214  0.1814  0.1789 -0.2520
66342W        W67206  24.840  17.325  14.326  0.0489 -0.0908 -0.0785
66343W        W67207  15.609  15.722  13.318 -0.0677  0.3454  0.0801
66344W        W67208   0.506   6.902  22.929 -0.0284  0.1461 -0.1703
66345W        W67209  14.159  24.071  22.810  0.1137 -0.2413 -0.1030
66346W        W67210   8.025  19.770   6.179 -0.0210 -0.1393 -0.1200
66347W        W67211   4.625   5.258  27.969 -0.0275 -0.2692  0.2447
66348W        W67212   9.472  25.271  21.857  0.0569 -0.0318 -0.0189
66349W        W67213  11.382  10.359   0.546 -0.0389  0.0324 -0.0738
66350W        W67214   9.123  12.644   9.156  0.1995  0.1697  0.5163
66351W        W67215  11.426  24.662  26.220  0.0562 -0.3483 -0.1297
66352W        W67216  28.188  19.238  19.306 -0.2876  0.1563 -0.1008
66353W        W67217   4.056   0.210   9.353  0.1333 -0.2225 -0.0972
66354W        W67218  25.610  17.330   8.900  0.1406 -0.1718 -0.1602
66355W        W67219  19.750  28.419  13.657  0.1298 -0.0661 -0.2355
66356W        W67220  22.910  19.946  25.309 -0.2044 -0.0289  0.1096
66357W        W67221  21.993  11.193   6.089 -0.2618  0.0702  0.2040
66358W        W67222  14.955  18.844  27.182 -0.3220 -0.1900  0.1104
66359W        W67223   8.083  25.334  20.039 -0.2554 -0.1129 -0.2145
66360W        W67224   9.022  18.744  26.616  0.4239 -0.0888 -0.0584
66361W        W67225  17.029  20.239   7.660 -0.0083 -0.0691  0.1676
66362W        W67226  13.914   6.521  26.894  0.0503  0.2304  0.1352
66363W        W67227   3.579  21.182  21.796  0.2203 -0.0980 -0.2700
66364W        W67228   5.966  11.132  19.908  0.0142 -0.2042  0.1052
66365W        W67229  22.785  10.956  23.189  0.0191 -0.2782  0.0798
66366W        W67230   9.492  28.178  20.135 -0.2830  0.0654 -0.3189
66367W        W67231  14.621   0.844  13.179 -0.1449  0.2137 -0.0203
66368W        W67232  19.030  14.780   7.785 -0.6184  0.2864 -0.2630
66369W        W67233   2.090   6.418   9.037  0.2176  0.2279 -0.0222
66370W        W67234   8.869  11.550  15.619 -0.2399  0.0781 -0.0539
66371W        W67235  16.564  15.674  21.262  0.0082  0.2275  0.1034
66372W        W67236  17.159  17.180  14.727  0.1316 -0.2050  0.0963
66373W        W67237  20.993  25.615  26.375  0.3560 -0.0949 -0.0076
66374W        W67238   4.888   6.338  17.572 -0.0250 -0.0082 -0.1147
66375W        W67239  27.482   9.773   2.031  0.1446 -0.0313  0.2016
66376W        W67240  14.983   3.436  17.974 -0.0018  0.0007  0.1101
66377W        W67241   1.311  12.979  26.818 -0.1946 -0.2102  0.3168
66378W        W67242  27.430  22.293  25.147 -0.1576 -0.0232 -0.0911
66379W        W67243  12.212  18.259  21.428  0.1926  0.0980 -0.1811
66380W        W67244   8.031   3.533  16.734 -0.1302  0.1046  0.1347
66381W        W67245  15.323   5.892   7.109  0.0716 -0.0536 -0.1220
66382W        W67246   2.703  11.334   5.144  0.0006  0.0034 -0.0056
66383W        W67247  22.928  12.879  12.932  0.0665  0.1654 -0.1563
66384W        W67248  12.260   9.070  24.113 -0.0649  0.0032 -0.0245
66385W        W67249  17.122  25.333  23.206 -0.1151 -0.1114 -0.2692
66386W        W67250  24.428   4.815  23.785 -0.1308  0.3014  0.0331
66387W        W67251  18.002   1.606   6.195  0.4235  0.2722  0.0077
66388W        W67252  23.607  14.299  14.071  0.2281 -0.1206  0.1389
66389W        W67253  12.583   4.438  20.170 -0.3016  0.2403 -0.0466
66390W        W67254  15.939   1.080  20.815  0.1191 -0.3721  0.1262
66391W        W67255  26.808  18.221  27.575  0.3977  0.1096 -0.0846
66392W        W67256  26.331  15.931  24.298  0.1019 -0.1540 -0.2051
66393W        W67257   4.329  27.512   8.417  0.1900 -0.0814  0.3640
66394W        W67258  28.735  12.400  20.278  0.0488 -0.0594  0.2038
66395W        W67259   7.749  14.105   0.422  0.1999  0.0632  0.0421
66396W        W67260   4.732  27.536   3.532  0.2110  0.0685 -0.0543
66397W        W67261   8.994  16.733  14.697 -0.0614 -0.3531  0.0456
66398W        W67262  22.308   8.563  25.771 -0.0249 -0.0357 -0.2716
66399W        W67263  12.589   7.968  19.092 -0.0536 -0.0374 -0.1728
66400W        W67264   2.742   1.388  14.032  0.0567 -0.1885  0.1027
66401W        W67265   8.127  12.280  17.220 -0.0357 -0.1947 -0.2605
66402W        W67266  26.537  25.904  23.491 -0.4154  0.1170  0.1664
66403W        W67267  27.775   3.778  11.936  0.0701 -0.0096  0.1301
66404W        W67268   4.779   5.516  28.363 -0.0384  0.1713 -0.0486
66405W        W67269  13.329  10.139   9.380 -0.1968 -0.1482  0.0182
66406W        W67270   7.764  12.451  26.433 -0.0401 -0.0158 -0.6935
66407W        W67271   5.797   7.500  10.344 -0.0537 -0.0392  0.1864
66408W        W67272  24.795  22.222  18.271  0.0124 -0.4246 -0.0933
66409W        W67273  23.282  18.503  10.220 -0.1654  0.0882  0.0998
66410W        W67274  26.654  13.509  25.449 -0.0345 -0.0232 -0.0114
66411W        W67275  26.624   0.319  17.415 -0.1045 -0.1249 -0.0480
66412W        W67276  16.302   9.550  27.277 -0.0487 -0.0986 -0.1267
66413W        W67277  12.406  11.085   5.787  0.1332 -0.0355  0.3234
66414W        W67278  26.269   2.590  12.021  0.0239  0.0812 -0.2191
66415W        W67279   2.441   1.019   0.925 -0.1790 -0.0967  0.1082
66416W        W67280  14.270  21.420  16.781  0.2504  0.0873  0.1070
66417W        W67281   8.767  20.703  27.037 -0.0685 -0.1579 -0.0757
66418W        W67282  20.437   1.381  14.617  0.3145 -0.2570 -0.2622
66419W        W67283  13.912  11.568  23.401  0.2413  0.2176 -0.0462
66420W        W67284  23.780  13.255  11.665  0.3164  0.1264  0.0889
66421W        W67285   6.093  15.084  19.273  0.0504 -0.1442 -0.2185
66422W        W67286  27.553  21.515  18.039  0.2634  0.0441  0.1941
66423W        W67287   2.910   2.451  15.006 -0.0796  0.0935 -0.2827
66424W        W67288  23.517   0.024  21.877 -0.0866 -0.3525 -0.2021
66425W        W67289  21.512  20.402  14.680 -0.4301  0.3139 -0.0297
66426W        W67290   5.593  12.623  14.578 -0.1639 -0.1021 -0.2747
66427W        W67291  11.724  23.209  21.205  0.0076  0.1096 -0.1674
66428W        W67292   6.151  19.872   4.366 -0.1129  0.0164  0.1194
66429W        W67293   3.316   9.828  27.873 -0.0293 -0.0766 -0.2090
66430W        W67294   3.176  10.948  13.516  0.0155  0.3647  0.2214
66431W        W67295   6.634  22.097  27.661 -0.0570  0.0309 -0.2396
66432W        W67296  25.906  28.720   4.387 -0.0539  0.3804  0.1870
66433W        W67297  20.315  12.170  21.070  0.1093 -0.0223  0.1191
66434W        W67298   7.147  26.367  17.118 -0.2617  0.2350 -0.0231
66435W        W67299   4.107   3.966  13.548  0.0091 -0.0333 -0.2568
66436W        W67300  13.362  17.285  14.803  0.1431  0.0712  0.0067
66437W        W67301  15.089  20.585  25.711  0.1413  0.0722 -0.0081
66438W        W67302  24.163  15.338  22.101  0.0860 -0.0144 -0.3480
66439W        W67303  14.716  13.260  21.280 -0.0926 -0.1596 -0.0131
66440W        W67304  20.642   2.042   3.743 -0.0699 -0.0227  0.0461
66441W        W67305  24.857  19.763  22.864  0.1988 -0.0502  0.1205
66442W        W67306  16.480   2.472  12.568 -0.0246  0.0506  0.1423
66443W        W67307  22.318  24.819  14.391  0.1618 -0.1906  0.0304
66444W        W67308   6.436  11.457  26.133  0.1087  0.0858 -0.0234
66445W        W67309   8.238   5.714  15.779  0.2233 -0.0834 -0.0808
66446W        W67310  19.763  28.467  26.293 -0.0704 -0.1740 -0.1233
66447W        W67311  11.905  10.218  27.167 -0.0608 -0.1732 -0.0532
66448W        W67312  10.972  23.941  26.224 -0.1276 -0.3422 -0.0271
66449W        W67313  10.261   1.069   5.528 -0.1323 -0.0582 -0.0139
66450W        W67314   3.300  28.734  14.221 -0.0495 -0.0978 -0.0708
66451W        W67315  22.469  20.439  19.440  0.1399 -0.0806 -0.1810
66452W        W67316   1.406   1.839  10.065  0.0499  0.0211 -0.1552
66453W        W67317  19.713   9.725  21.146 -0.0712  0.3232 -0.0590
66454W        W67318   1.772  22.142  23.014  0.0681 -0.0977  0.2259
66455W        W67319   3.361  24.920   4.969  0.2767 -0.0699 -0.0010
66456W        W67320  14.643  25.716  22.073 -0.0742  0.0613 -0.0818
66457W        W67321  11.655  26.672  12.268  0.3299 -0.2141 -0.0532
66458W        W67322  18.408   7.766  21.842  0.0739  0.0065 -0.2159
66459W        W67323   9.958  20.167  19.649 -0.1920 -0.1156 -0.1997
66460W        W67324   9.559  18.929  24.311  0.2656  0.1209 -0.3693
66461W        W67325  16.690  14.376  12.856  0.2534  0.0493  0.1279
66462W        W67326   8.495  12.076  24.282 -0.0337 -0.0537 -0.0356
66463W        W67327   1.966  10.237  18.862 -0.2220  0.2400 -0.2483
66464W        W67328  14.099  13.440   0.573  0.0104  0.1308  0.0554
66465W        W67329   4.889   6.460  27.327  0.1875 -0.0203  0.1455
66466W        W67330   8.282   7.172  19.128  0.1022 -0.0712 -0.2380
66467W        W67331  18.457  18.039  17.926  0.0422  0.0326 -0.0965
66468W        W67332  11.310  16.307  14.664 -0.0409 -0.2704 -0.1789
66469W        W67333  26.982   4.360  19.331  0.4265  0.0844 -0.0632
66470W        W67334  16.826  15.599  10.162 -0.1905 -0.2679 -0.2029
66471W        W67335  23.852  24.630   8.034 -0.1633 -0.0245 -0.1470
66472W        W67336  10.507  19.024   0.215  0.4248 -0.1120 -0.0049
66473W        W67337  15.336  22.236  19.663 -0.0632 -0.1232 -0.2340
66474W        W67338   5.218  10.451  24.420 -0.2295  0.1062  0.0936
66475W        W67339   2.230  18.673   0.536  0.4374 -0.2269 -0.1972
66476W        W67340  13.567  21.019   0.949 -0.3287 -0.1483  0.0752
66477W        W67341  27.429  14.207   1.243 -0.0317 -0.1970 -0.3798
66478W        W67342   7.210  17.802  19.649  0.3043  0.1293  0.1537
66479W        W67343   5.083   6.867  24.998  0.1818  0.1426  0.0350
66480W        W67344   6.813  16.556  16.280  0.0458 -0.1406  0.2489
66481W        W67345  14.244   9.561   1.874  0.2205  0.0297  0.1968
66482W        W67346   5.772  13.247  16.407  0.1348 -0.2228  0.0486
66483W        W67347  14.118  17.061   6.922  0.0116 -0.2680  0.0857
66484W        W67348   8.883  16.253   7.398  0.0005  0.1765  0.0139
66485W        W67349  11.431  11.500  13.995  0.2075 -0.0079  0.0366
66486W        W67350  26.309  27.242   7.506 -0.0415  0.2425  0.3630
66487W        W67351   4.775  11.941  18.011 -0.2313 -0.1860  0.3699
66488W        W67352   7.257  10.129   6.747 -0.0357  0.2009  0.0650
66489W        W67353  28.297  11.830   8.693  0.1272 -0.0569 -0.0285
66490W        W67354   2.918  17.191   9.651 -0.0074 -0.2086 -0.1917
66491W        W67355  10.125   9.499  24.613 -0.3448 -0.0291  0.0769
66492W        W67356   6.940  21.359  13.468 -0.2653  0.1178  0.1715
66493W        W67357  25.103   4.111  18.721 -0.3448  0.0919 -0.0393
66494W        W67358  11.934  27.564   4.769 -0.0043 -0.1377 -0.1375
66495W        W67359   9.807  15.967   6.835 -0.0739 -0.0171 -0.0237
66496W        W67360   1.063   0.244   2.834 -0.4619  0.1161  0.0448
66497W        W67361  25.914  11.993  18.580 -0.1437 -0.0397 -0.1079
66498W        W67362  15.767   8.076  21.534 -0.1129 -0.1859  0.0067
66499W        W67363  17.276  23.954   7.539  0.0405  0.0385 -0.1529
66500W        W67364  25.522   6.883  18.933  0.0171 -0.1274  0.0308
66501W        W67365  27.701  13.566  12.484 -0.0686  0.2347  0.2026
66502W        W67366  12.494  11.480  27.244 -0.5577  0.0817 -0.3842
66503W        W67367  12.917   9.569  23.097  0.0376 -0.1303 -0.1514
66504W        W67368   0.173  20.900  24.957 -0.0061 -0.0881 -0.3112
66505W        W67369  13.555  23.226  11.207  0.0684 -0.2763  0.1071
66506W        W67370   8.041  12.942   2.383  0.1029  0.1497 -0.3293
66507W        W67371  10.314  16.250   6.224 -0.1782  0.4110  0.0792
66508W        W67372  28.702  25.954  20.698 -0.0023  0.1669  0.0140
66509W        W67373  14.923  20.849  23.717  0.0472 -0.0353  0.2436
66510W        W67374  27.270  16.368  26.138  0.0504 -0.0037 -0.1371
66511W        W67375  25.814  23.344  27.442  0.1752 -0.2581 -0.0968
66512W        W67376  23.901  12.990  20.429  0.0551  0.0623 -0.2273
66513W        W67377  23.502   8.191  23.676  0.0843 -0.3185 -0.1945
66514W        W67378  18.505  18.832  21.932 -0.2004  0.2994  0.0083
66515W        W67379   8.030  19.718  12.735 -0.0247 -0.2978  0.3526
66516W        W67380  17.604  16.413   6.417 -0.2796 -0.0577 -0.1840
66517W        W67381   6.353  13.597  20.925  0.2031 -0.2860  0.0289
66518W        W67382  15.503   4.103  19.097  0.1620 -0.0869 -0.1036
66519W        W67383  12.802   5.813  10.097  0.1098  0.0383  0.0618
66520W        W67384  21.316  14.471  13.263  0.3591  0.2860  0.0812
66521W        W67385  23.315  19.372  16.659  0.3971 -0.0174 -0.1828
66522W        W67386  20.723   7.141  23.867 -0.0637  0.1337 -0.0992
66523W        W67387  10.884  24.517  27.901  0.2601  0.0756  0.0126
66524W        W67388  23.586   8.461  16.905 -0.1303  0.0244 -0.0256
66525W        W67389   1.359  14.022   1.388  0.1595 -0.2545 -0.1055
66526W        W67390   7.728  16.241   3.051 -0.0605 -0.0863 -0.1274
66527W        W67391   5.195  15.459  28.426  0.0134  0.0269  0.0118
66528W        W67392  14.093  16.549  22.547 -0.1524 -0.3557 -0.3531
66529W        W67393   2.250   6.076  15.461  0.0173  0.0347  0.3611
66530W        W67394  17.889  15.127  14.651  0.0330 -0.1597 -0.1327
66531W        W67395  22.777  22.517  13.989 -0.1528 -0.0019  0.0777
66532W        W67396  11.729   8.438  13.484 -0.1787 -0.1435 -0.2832
66533W        W67397   2.225  13.046  16.117  0.0318 -0.0351 -0.0194
66534W        W67398  27.866  17.640   8.145  0.0414  0.0436  0.1141
66535W        W67399   6.149   5.577   9.933 -0.0077  0.0822 -0.0569
66536W        W67400  15.133   5.744  15.082  0.3161  0.0793  0.0354
66537W        W67401  25.314  18.039  13.708  0.0912  0.1059  0.0525
66538W        W67402  11.534  17.128  19.587 -0.0769  0.1645 -0.3884
66539W        W67403   7.335  11.930  18.562  0.1204  0.0746  0.0762
66540W        W67404  11.127  20.299   6.041  0.1345  0.0809 -0.3930
66541W        W67405  21.217  12.475  23.173 -0.0976 -0.2046 -0.0643
66542W        W67406  21.298  24.392  26.652 -0.0066 -0.0337  0.2650
66543W        W67407  14.709   4.089  15.705 -0.0219 -0.1055  0.2454
66544W        W67408   4.069  16.763  22.326 -0.0698 -0.0456  0.2022
66545W        W67409  11.526   4.704  13.184 -0.1497  0.0741 -0.3620
66546W        W67410   4.933  11.107   3.726 -0.2208 -0.1036 -0.0731
66547W        W67411  17.219  23.994  10.163 -0.2980  0.1518 -0.3557
66548W        W67412  21.629  27.926  15.021 -0.1763  0.1798  0.0677
66549W        W67413  26.443   7.107  11.487  0.3162  0.1153  0.3146
66550W        W67414  11.054  17.454   8.208 -0.1310  0.2833 -0.1140
66551W        W67415  14.968   3.533  15.613  0.0446  0.1556  0.0557
66552W        W67416  11.673   7.644  25.675  0.4014  0.0001 -0.0969
66553W        W67417  21.118  10.745  26.141 -0.1047 -0.3484  0.1638
66554W        W67418   9.530  18.930  25.183  0.0460 -0.0956 -0.1230
66555W        W67419   4.908  25.291   5.932 -0.2590  0.0041  0.1211
66556W        W67420   7.496  13.601  16.052  0.0311 -0.1808 -0.1951
66557W        W67421  16.190  15.690  15.522  0.0575 -0.0003  0.1277
66558W        W67422   9.748  12.389  27.727 -0.2842 -0.2272  0.2797
66559W        W67423   7.606  16.647  25.662 -0.1151  0.0109  0.1549
66560W        W67424  19.049  17.193   3.620  0.0120 -0.2484 -0.2427
66561W        W67425   1.811  11.919  24.975  0.0610 -0.0396 -0.3105
66562W        W67426  19.955  10.349  14.950  0.2696  0.0405 -0.3090
66563W        W67427   0.702  28.071  18.589  0.8176  0.0888  0.0909
66564W        W67428  26.506  17.754  12.995 -0.1597 -0.4544  0.1072
66565W        W67429   9.308  10.426  12.518 -0.2289  0.0632 -0.1003
66566W        W67430  21.543  13.464  22.513  0.3542  0.2494  0.2610
66567W        W67431  24.178  24.337  19.111  0.3248  0.0182  0.1311
66568W        W67432  28.892  21.951  24.861  0.0139  0.1765 -0.2469
66569W        W67433   7.031  22.175   4.820  0.0337  0.2136 -0.0885
66570W        W67434   9.744   1.095   8.780 -0.1050  0.4587 -0.0540
66571W        W67435  28.454   9.272  16.228 -0.1106  0.0418 -0.0628
66572W        W67436   6.309  13.953   2.134  0.1846 -0.1054  0.2864
66573W        W67437   8.574   4.340  18.877  0.0113 -0.0481 -0.2587
66574W        W67438   5.922  17.260  27.808  0.2576  0.0519 -0.0093
66575W        W67439  20.295  20.788  25.646 -0.1790  0.0000 -0.1192
66576W        W67440   9.299   0.462  23.016  0.3666  0.0247 -0.0360
66577W        W67441  13.631  15.353  18.539  0.1958 -0.0944  0.3255
66578W        W67442   9.985   7.985   0.081 -0.1646 -0.0386 -0.2275
66579W        W67443   4.614  14.476  14.661 -0.0373  0.1189 -0.1987
66580W        W67444  15.853  23.320  20.459 -0.0626  0.0295 -0.0096
66581W        W67445  13.814  17.827  22.160 -0.1013  0.1052  0.2039
66582W        W67446  23.561  13.311  21.114 -0.3693  0.0742  0.1049
66583W        W67447   1.062   5.938   6.798  0.0272  0.0116 -0.1400
66584W        W67448   2.416  27.332  15.083  0.0127 -0.3365  0.1968
66585W        W67449  25.235  17.368  25.317 -0.2426  0.1595 -0.1706
66586W        W67450   1.762   2.177  12.794  0.0214 -0.1341 -0.1852
66587W        W67451  12.301  13.825  12.554 -0.1256  0.2579  0.2593
66588W        W67452   2.887  26.990  16.819  0.0319 -0.1988  0.0442
66589W        W67453   7.802   2.540  27.137 -0.0868  0.0360  0.0620
66590W        W67454  13.790  23.130   2.393  0.1733  0.0596 -0.3523
66591W        W67455   0.261   8.263  17.579  0.1482  0.1372 -0.3795
66592W        W67456  18.727  10.075   4.332  0.1211 -0.1544  0.0752
66593W        W67457  13.300  17.887   7.238  0.1876 -0.4132  0.0845
66594W        W67458  17.935  28.486  16.703  0.2433  0.1919 -0.1187
66595W        W67459  13.060   8.194  24.683  0.3876 -0.1522 -0.1818
66596W        W67460  18.883   2.046  16.013 -0.0275  0.2199  0.2641
66597W        W67461  11.520   4.428   5.536  0.0574 -0.2023 -0.1415
66598W        W67462  24.773   8.826  19.728  0.3891  0.2472  0.0490
66599W        W67463   0.300   9.698   4.854  0.1294  0.0814  0.1808
66600W        W67464  17.426  18.152   0.149 -0.0919 -0.2665  0.2169
66601W        W67465  18.645  26.990   4.943  0.2744 -0.0697 -0.0651
66602W        W67466  19.535   5.786   1.507 -0.0353  0.0280 -0.0015
66603W        W67467  15.340  23.473  20.315 -0.1103 -0.3516  0.2325
66604W        W67468  10.303  25.881  26.752  0.2022 -0.1400 -0.1957
66605W        W67469  10.210  25.716  26.290  0.1874  0.4007 -0.0608
66606W        W67470  12.761   7.282  25.588 -0.2131 -0.1643  0.1499
66607W        W67471  24.849  21.527  21.506 -0.2868  0.2038  0.2233
66608W        W67472  13.599  18.043   3.681 -0.0730  0.0566  0.1318
66609W        W67473   4.980  10.087   9.153  0.1426 -0.3628 -0.3046
66610W        W67474   1.762  23.556  18.293 -0.0439 -0.4146  0.0266
66611W        W67475   1.679   4.699  18.944 -0.2973 -0.3043  0.1133
66612W        W67476   2.282   3.354  14.609 -0.1650 -0.1423  0.1281
66613W        W67477  16.298   2.161   7.222 -0.2714  0.2726  0.1291
66614W        W67478   4.891  14.087  15.027  0.1933  0.1303 -0.0919
66615W        W67479  20.929   9.919  23.660 -0.1491  0.0133 -0.1022
66616W        W67480  12.850   1.095  23.223  0.0763  0.0202  0.0703
66617W        W67481  13.256  16.710  23.239 -0.2126  0.0900  0.2519
66618W        W67482  21.341  10.057  24.462  0.2672 -0.0866 -0.1371
66619W        W67483   4.192  18.918  17.683  0.1978  0.0231 -0.0707
66620W        W67484   5.185   4.797   6.678  0.0861  0.3801 -0.1989
66621W        W67485   1.398  13.948  11.344 -0.2823 -0.1243  0.1771
66622W        W67486   8.205   8.263   7.486 -0.0172  0.0140  0.3274
66623W        W67487   8.245  21.488   1.714 -0.1147  0.0080  0.0361
66624W        W67488   6.928  10.645   6.694  0.2289 -0.2223  0.0379
66625W        W67489   7.532   6.173  12.908 -0.0506  0.0359  0.0391
66626W        W67490  28.593  14.379  21.706  0.2211  0.1995 -0.0221
66627W        W67491   3.864  12.879   9.166  0.0701 -0.2636 -0.3396
66628W        W67492  23.294  18.242  13.954  0.1575  0.2075 -0.0823
66629W        W67493   3.256  27.628  11.630  0.1688  0.2517 -0.2693
66630W        W67494  10.810  13.804  28.520 -0.1883  0.0043  0.2508
66631W        W67495  10.439  23.085  20.703  0.1438 -0.2105  0.1714
66632W        W67496  22.026  12.819  23.471  0.2899 -0.1293  0.1985
66633W        W67497  13.875  19.766  15.187  0.0847 -0.2232 -0.0597
66634W        W67498   8.178  15.842   3.286 -0.0936  0.1533 -0.2089
66635W        W67499   5.567  23.468  14.971  0.1686 -0.1632  0.3802
66636W        W67500   8.780  15.328  15.519  0.0641  0.0935 -0.2162
66637W        W67501  12.052  21.561  19.028 -0.4310  0.2544  0.1240
66638W        W67502  15.359  18.934  22.081 -0.0803 -0.0023  0.2180
66639W        W67503   8.155  15.757  15.366 -0.0968 -0.3006  0.0544
66640W        W67504  12.315   4.850  25.977 -0.0911  0.2175 -0.2146
66641W        W67505  25.296   5.331  23.940 -0.2998  0.2079  0.1023
66642W        W67506   0.269  26.014  25.410 -0.2328  0.1340  0.1163
66643W        W67507   9.232  18.197  17.083  0.1204  0.0689 -0.2313
66644W        W67508  20.571  24.578   4.766 -0.0817  0.2217  0.0999
66645W        W67509  11.926  18.285   5.302  0.1332  0.3921  0.0500
66646W        W67510  12.006  20.441   6.705 -0.1215  0.3887 -0.2020
66647W        W67511  12.465   7.521  22.370  0.0628  0.1108 -0.0418
66648W        W67512  28.064  11.033   8.795  0.2439 -0.1553  0.1550
66649W        W67513   9.111  18.524   1.941  0.2288 -0.0612 -0.1131
66650W        W67514  22.871  19.387  11.582 -0.2730  0.0341 -0.1141
66651W        W67515   7.944  17.293  18.739 -0.0728  0.1758  0.1721
66652W        W67516   7.519  23.062  18.184 -0.3162  0.0092 -0.1102
66653W        W67517  15.229  17.280   0.891 -0.3417  0.0589  0.1197
66654W        W67518  21.685  28.844  10.577 -0.1677  0.1385  0.1370
66655W        W67519  22.631  16.263  14.104  0.1269  0.0568 -0.3151
66656W        W67520   8.368  20.162  23.675 -0.3688  0.1524 -0.2919
66657W        W67521   4.586  24.114   3.599 -0.0695  0.0553  0.1499
66658W        W67522  13.571   9.129   1.296 -0.0604 -0.3689  0.1598
66659W        W67523  14.081   8.764  25.801 -0.1217  0.1040 -0.2262
66660W        W67524  27.640  14.988  19.349  0.1940  0.3881 -0.1426
66661W        W67525  25.571  18.241  24.390  0.4423 -0.2537  0.1770
66662W        W67526  14.012   0.230   0.905 -0.4288  0.1496 -0.0478
66663W        W67527  24.036  25.497  11.140 -0.0017  0.0585  0.1197
66664W        W67528  14.337   5.501  21.867 -0.0699 -0.0464 -0.1199
66665W        W67529   7.429  14.098  29.007 -0.0017 -0.1320 -0.0803
66666W        W67530  27.038  16.304   2.194 -0.2777  0.1508  0.2688
66667W        W67531  15.803  17.441  24.406 -0.1270 -0.1682 -0.0182
66668W        W67532  10.934  27.013  16.845 -0.2373 -0.3066 -0.4162
66669W        W67533  23.951  21.339  21.104  0.0962 -0.0233  0.2123
66670W        W67534  28.982   5.649  12.819  0.1710  0.2573  0.1606
66671W        W67535  17.440   2.919   0.408 -0.0914 -0.1347 -0.2011
66672W        W67536  25.729  10.420  16.453  0.2972  0.2352  0.0159
66673W        W67537  12.230   8.479   0.432 -0.0165  0.2622  0.2469
66674W        W67538   6.019   8.563  24.477  0.1263 -0.1052  0.1153
66675W        W67539   3.122  21.263  21.508 -0.2203 -0.0542 -0.0176
66676W        W67540  16.778  24.616  25.430  0.0255  0.0389  0.3081
66677W        W67541  22.958   2.057  17.680 -0.1621 -0.0695  0.0727
66678W        W67542  11.300   7.452  10.864  0.0699  0.2407 -0.0727
66679W        W67543  14.959  17.849  15.535 -0.0875 -0.0250  0.2428
66680W        W67544  19.744  17.093  23.325  0.0998  0.2595 -0.1195
66681W        W67545  21.457  18.228   5.205 -0.2767 -0.0343  0.0834
66682W        W67546  14.853   9.309  23.493 -0.1683  0.0044 -0.1278
66683W        W67547   4.416  27.022  28.408  0.0607  0.0795  0.1935
66684W        W67548  21.767  27.185  24.062  0.0903  0.1538 -0.1671
66685W        W67549   6.646  17.773  26.312  0.1636  0.1873  0.1704
66686W        W67550   7.090   5.086  24.456 -0.0023 -0.0248  0.0291
66687W        W67551  17.112  18.178   8.452 -0.0236  0.0681 -0.0367
66688W        W67552  21.950   3.783  23.276  0.1833  0.1148  0.2993
66689W        W67553  10.431   0.258  20.340 -0.3549  0.0055 -0.2003
66690W        W67554   6.879  16.441  26.187 -0.0804  0.2223  0.0576
66691W        W67555  27.841   5.646  17.518 -0.2948  0.0204  0.0517
66692W        W67556  14.466  22.438   3.828  0.1816 -0.2245 -0.1067
66693W        W67557  12.984  20.527   6.322  0.0643  0.1182 -0.2788
66694W        W67558   5.817  21.887   6.686 -0.0951  0.1769 -0.2440
66695W        W67559   4.667  24.350  26.028 -0.1653  0.0438  0.0932
66696W        W67560   1.450  12.869   8.824 -0.0135  0.0497 -0.0355
66697W        W67561   8.230  26.189   2.805 -0.0558 -0.0523  0.2123
66698W        W67562   4.301  14.821  25.323  0.3796  0.0110 -0.0771
66699W        W67563  10.643   1.661  11.955 -0.2079 -0.0441  0.3317
66700W        W67564  14.507  28.116  18.930 -0.0918 -0.0226 -0.1956
66701W        W67565  10.410  17.078  23.509 -0.0907  0.0402 -0.1809
66702W        W67566   5.971  27.485   1.192 -0.0751  0.2619  0.1016
66703W        W67567   8.103  16.755  22.231 -0.1716  0.2392  0.2201
66704W        W67568   3.840  16.155   1.241  0.0849  0.1221  0.0128
66705W        W67569  21.284  10.420  12.150 -0.1879  0.0001 -0.1077
66706W        W67570  24.405  12.743  23.156 -0.0464  0.0356 -0.3076
66707W        W67571  12.968  22.352   8.375 -0.0759  0.0714  0.1298
66708W        W67572  20.446  18.179   8.457  0.2195  0.0635 -0.0037
66709W        W67573  28.315  21.821  12.914 -0.0091  0.0525 -0.1078
66710W        W67574   6.524   0.363  22.387 -0.2207 -0.2395  0.2650
66711W        W67575   6.945  19.034  10.198 -0.1360  0.3915 -0.0310
66712W        W67576  28.210  26.334  20.360  0.2107 -0.3642 -0.1789
66713W        W67577  26.217  10.647  23.486  0.0156  0.1721  0.1130
66714W        W67578  21.344  18.509  10.578 -0.1125  0.0068 -0.0666
66715W        W67579   1.693  19.069  22.061  0.1209  0.1813 -0.0587
66716W        W67580   6.176  22.847  26.327  0.2265 -0.0121 -0.1182
66717W        W67581  20.390  23.598   2.771 -0.2464 -0.0618  0.2342
66718W        W67582  15.284  10.800  26.178  0.1735 -0.1324  0.0746
66719W        W67583  12.300  23.511  19.634 -0.3191  0.1168 -0.0311
66720W        W67584  13.180  10.127   2.137 -0.2680  0.1481 -0.3763
66721W        W67585   3.558  12.782  18.609  0.3103 -0.3121  0.0069
66722W        W67586   6.773  26.678  14.051 -0.0849  0.0235 -0.0111
66723W        W67587  25.465  10.191  11.156 -0.3303  0.1669  0.0662
66724W        W67588   2.151  26.277  22.140  0.3187 -0.0747  0.0680
66725W        W67589   5.297  25.389  20.107 -0.1082  0.2113  0.1881
66726W        W67590   2.084  21.806   4.441  0.3257 -0.5558  0.1177
66727W        W67591   2.923  13.648  15.013 -0.4232  0.0110  0.0591
66728W        W67592  20.356  25.452  20.613 -0.0637 -0.0842  0.2118
66729W        W67593  10.263  17.747   0.108  0.1221  0.2598  0.2805
66730W        W67594  24.852  17.235  27.834 -0.0110  0.1742 -0.0017
66731W        W67595  21.164  22.007   3.341 -0.2884  0.2849  0.1645
66732W        W67596   2.444  25.413  11.910 -0.1573  0.2105 -0.0527
66733W        W67597   1.448  10.642  12.369  0.2893  0.1362 -0.1270
66734W        W67598   0.688  12.491  11.141 -0.2080 -0.2110  0.2184
66735W        W67599  10.749  28.930  13.820  0.0112  0.0785  0.1364
66736W        W67600   5.004  14.232   5.287 -0.1044  0.3923  0.1829
66737W        W67601  14.487  12.390  10.614 -0.0619  0.1804 -0.0472
66738W        W67602  26.081  15.882   8.225 -0.1263  0.4437  0.0917
66739W        W67603  24.558   4.430  23.400 -0.1514  0.0422 -0.0569
66740W        W67604  12.945  16.862   6.659 -0.1525  0.0642 -0.0425
66741W        W67605  11.462  28.349  18.491 -0.1890 -0.1980  0.2240
66742W        W67606  18.753  25.186  11.691  0.1820 -0.1157  0.3504
66743W        W67607  23.249   8.314  19.052 -0.0991  0.3554  0.2628
66744W        W67608  23.615   6.243  13.275 -0.1815  0.0693  0.0431
66745W        W67609   5.715  19.377  11.118 -0.3592  0.0298  0.0239
66746W        W67610  26.608   5.897   8.963  0.1132  0.2720 -0.2373
66747W        W67611  19.700  27.378  26.208 -0.1195  0.1606 -0.1287
66748W        W67612  11.244  24.124  20.372  0.5265  0.0743  0.0402
66749W        W67613   4.545  10.664   0.895 -0.1971  0.1398 -0.0381
66750W        W67614  16.478   6.531  24.486  0.0706 -0.1105 -0.2067
66751W        W67615  12.897  11.966  16.637  0.0658 -0.0445 -0.0712
66752W        W67616   9.057  23.306   0.511 -0.2793  0.0247  0.0379
66753W        W67617   6.790   5.699   5.480 -0.0661 -0.4218  0.0956
66754W        W67618  26.983  28.407   0.763  0.2476  0.2371 -0.2473
66755W        W67619  17.015  26.340  23.342 -0.0789  0.0360 -0.1615
66756W        W67620  12.669  15.500   7.944  0.3177  0.3322 -0.0801
66757W        W67621   7.395  21.420   0.967  0.1196  0.1280  0.1983
66758W        W67622  15.151   0.442   8.812 -0.0774 -0.3288 -0.1144
66759W        W67623  26.413  13.490   1.271  0.4998 -0.2331 -0.1979
66760W        W67624   0.002  29.134  11.382  0.1214  0.0884 -0.1663
66761W        W67625   4.515  13.794  24.044  0.2171  0.1566 -0.2065
66762W        W67626   6.683  26.195  27.219 -0.0079 -0.0696 -0.0671
66763W        W67627  16.898  21.710  20.348  0.1347 -0.1202  0.2701
66764W        W67628   8.565  22.573  24.545  0.1032  0.0203 -0.0551
66765W        W67629  11.312  13.622  14.970 -0.1884 -0.0088 -0.0452
66766W        W67630   2.742  11.803   0.282 -0.0856  0.0882 -0.0256
66767W        W67631   8.256  15.767  20.013  0.0575  0.1342  0.1067
66768W        W67632  10.871  15.087  27.603 -0.0826 -0.1650 -0.2636
66769W        W67633  16.338  12.709   3.864 -0.3656 -0.0361  0.3056
66770W        W67634   5.922  19.531  18.701 -0.1237  0.0570  0.1668
66771W        W67635  26.259  13.290  13.540  0.0062 -0.1745 -0.3315
66772W        W67636   6.516  10.351  21.088  0.3402  0.0557  0.2101
66773W        W67637   5.894   7.907  15.176  0.0110  0.1866 -0.0245
66774W        W67638   0.049  19.723   9.454  0.3223  0.3399  0.0577
66775W        W67639   2.757  12.402  12.749  0.0351 -0.3102 -0.2816
66776W        W67640   9.188  14.785   9.846 -0.2321  0.1018  0.0541
66777W        W67641   2.227   0.873  25.237 -0.0262  0.0340 -0.0643
66778W        W67642  26.324  13.548   6.437 -0.0061 -0.0484 -0.0763
66779W        W67643  21.887  10.273   5.449  0.1364  0.1912  0.1315
66780W        W67644  15.270   2.416  14.205  0.2822  0.0740  0.0896
66781W        W67645  16.145  16.285  28.991 -0.0734  0.0523 -0.2167
66782W        W67646  27.878   0.424  20.167 -0.2300 -0.2931  0.1478
66783W        W67647   4.896   5.366  27.496  0.0755  0.0625 -0.2049
66784W        W67648  28.060   4.988  18.297 -0.6940 -0.2233  0.0884
66785W        W67649  28.688  10.942   2.004 -0.4183 -0.2690  0.1958
66786W        W67650  10.219  18.236   3.458 -0.0664  0.0723 -0.1023
66787W        W67651  15.784  17.148   1.489 -0.1829  0.1580 -0.1734
66788W        W67652  11.269  17.793  21.984 -0.2808 -0.0928 -0.0222
66789W        W67653  12.062   0.140  24.435 -0.1169 -0.0114 -0.1088
66790W        W67654  11.695  23.376  11.304  0.0965  0.0988 -0.3078
66791W        W67655   7.789  16.509   8.243  0.0261 -0.0059 -0.1205
66792W        W67656   6.206  10.087  23.196 -0.1296 -0.2863  0.1315
66793W        W67657   3.569   1.666   7.651  0.0737  0.0273 -0.0029
66794W        W67658  17.969   7.628  19.415  0.0707  0.2671  0.2384
66795W        W67659   3.474  27.162  11.302  0.0129 -0.0764  0.1832
66796W        W67660   3.536  23.883  20.682 -0.1804 -0.0764 -0.0100
66797W        W67661  28.199  18.891  14.580  0.0067  0.2293 -0.0626
66798W        W67662  13.975   5.618  28.431 -0.3174  0.0650  0.2021
66799W        W67663   8.361  28.592  24.227 -0.3977 -0.2796 -0.3379
66800W        W67664   9.615   1.299  24.457  0.0816 -0.1011 -0.2287
66801W        W67665   1.254  16.148  27.446 -0.0076  0.1122 -0.2051
66802W        W67666   8.482  21.708  28.050  0.0251 -0.2645  0.0237
66803W        W67667  22.238   1.045  25.495  0.1541 -0.2584  0.0913
66804W        W67668  11.213   8.703  17.677  0.1308  0.3260  0.0835
66805W        W67669  20.330   9.736  13.852 -0.0448 -0.0680 -0.0926
66806W        W67670  17.271  18.183   6.710 -0.1759 -0.0285 -0.0384
66807W        W67671  22.345  11.180  18.786  0.1684  0.1778 -0.0314
66808W        W67672  23.428   5.268  19.021  0.1076 -0.0016  0.1887
66809W        W67673  13.223  16.080  14.128 -0.2715  0.1858  0.2868
66810W        W67674  10.060  17.981   7.865  0.1565  0.2625  0.0127
66811W        W67675  14.840  18.852   0.563  0.2006  0.0720  0.1537
66812W        W67676  12.337  12.423   7.207  0.2112 -0.1470 -0.3651
66813W        W67677  23.627  17.103   6.257 -0.4117 -0.1884  0.2460
66814W        W67678  28.081  11.874  17.656  0.2067  0.0074  0.1097
66815W        W67679  16.161  18.787  13.935  0.1311 -0.2178  0.1267
66816W        W67680   3.186   5.383   7.390 -0.2472 -0.1202  0.0168
66817W        W67681  13.652  25.272  10.037  0.0113 -0.1057 -0.0165
66818W        W67682   9.912  21.728  20.668  0.0360  0.2630 -0.1082
66819W        W67683  14.337   5.270  11.348  0.1629  0.2175  0.0248
66820W        W67684   3.177  16.692  27.896  0.3742 -0.2084  0.1322
66821W        W67685   8.737  12.465  22.704  0.0898  0.2894 -0.1620
66822W        W67686   6.695  25.618  13.445  0.2078  0.0803 -0.0532
66823W        W67687  11.243  18.963  17.466  0.0424 -0.2242  0.1142
66824W        W67688  15.603  10.509   1.450  0.2714 -0.0338  0.0255
66825W        W67689  10.945  14.927  16.032 -0.3320 -0.0461 -0.0157
66826W        W67690   6.861  24.267  27.674  0.0648  0.2112  0.2036
66827W        W67691   4.663  15.837   7.664 -0.0001 -0.0071 -0.0314
66828W        W67692  19.606  19.958  13.152 -0.1493 -0.2578 -0.4548
66829W        W67693   8.863  10.245  22.784 -0.3658  0.0349 -0.1195
66830W        W67694  15.663  12.092   4.862 -0.0747  0.1152 -0.2427
66831W        W67695  12.186  19.371   6.418  0.0839 -0.0996 -0.0982
66832W        W67696  12.308  10.730  18.856  0.3033 -0.0358 -0.1006
66833W        W67697   2.887   1.354  18.919  0.0965  0.0020 -0.0411
66834W        W67698  11.856  15.956  23.758 -0.2484 -0.0463 -0.4378
66835W        W67699  14.110  11.686  16.137 -0.1587  0.1319  0.0457
66836W        W67700   5.930   7.527  15.889  0.1329  0.3387  0.1267
66837W        W67701  10.080  16.294   3.163 -0.1664  0.0224 -0.1155
66838W        W67702  12.451  23.738   8.121  0.1711  0.0862 -0.0619
66839W        W67703  24.579  18.064   0.314  0.0893  0.1481 -0.0041
66840W        W67704  12.392  18.358  19.106 -0.0984  0.2197 -0.3347
66841W        W67705  11.189   4.764   8.174  0.3838  0.0152 -0.0684
66842W        W67706  24.481  28.335   8.550  0.1212  0.0528  0.0316
66843W        W67707  10.842  11.446  23.468  0.1082  0.0954  0.0973
66844W        W67708  27.083   8.696  13.721 -0.3264 -0.0725  0.0199
66845W        W67709   0.309   7.714  24.994 -0.3468 -0.3321 -0.1559
66846W        W67710  21.211  12.346  23.723  0.0152 -0.1055  0.0312
66847W        W67711  23.490   5.475   5.930 -0.2055  0.1015 -0.2454
66848W        W67712   7.406  18.471  19.224 -0.0525 -0.0588 -0.0035
66849W        W67713   8.478  18.339  17.385 -0.2418  0.2419 -0.1934
66850W        W67714   2.386   0.267  12.015  0.3455  0.2191 -0.0293
66851W        W67715  19.875  24.910  19.065  0.1510  0.0579 -0.1201
66852W        W67716  22.977   3.594   0.251 -0.0496 -0.0193  0.0098
66853W        W67717   4.265  20.847   3.860  0.1860  0.0074  0.2324
66854W        W67718  14.185  18.497  23.437  0.3861 -0.0111  0.2716
66855W        W67719   3.815   4.331   0.840 -0.2301 -0.0551  0.0871
66856W        W67720   0.386   6.943  28.503 -0.0331 -0.0654 -0.0977
66857W        W67721  18.409  17.697   0.538  0.2888  0.0159  0.0810
66858W        W67722   7.135   0.662   2.097 -0.0644  0.2606  0.0714
66859W        W67723  14.187  15.132  22.513  0.0166 -0.0046  0.1125
66860W        W67724   8.141   1.456  27.045  0.0551 -0.0788 -0.0781
66861W        W67725   0.311  19.182   6.055 -0.1741 -0.1109 -0.0020
66862W        W67726   6.728  28.325  27.227  0.2189 -0.0197 -0.0826
66863W        W67727  12.509  23.669   5.974  0.0509 -0.1628  0.2531
66864W        W67728   6.183  28.519  14.353 -0.1177 -0.1767 -0.1995
66865W        W67729   4.683  17.478  21.148 -0.0851  0.1491  0.0237
66866W        W67730   8.943   0.471  28.228 -0.3990 -0.1513 -0.1150
66867W        W67731  18.992  17.395  24.277 -0.1041  0.1012 -0.1942
66868W        W67732  23.214  17.788  22.590  0.0035 -0.0084 -0.0061
66869W        W67733  11.853  25.769   0.859 -0.3526 -0.1242 -0.2801
66870W        W67734   2.208   5.538   2.548  0.2689 -0.1264  0.1657
66871W        W67735  10.824   1.363  21.236 -0.1323 -0.1739  0.0046
66872W        W67736  27.704  15.346  13.665  0.0262  0.0055 -0.1018
66873W        W67737  14.582  18.413  27.151  0.1873  0.0473 -0.1049
66874W        W67738  25.181   8.188  25.479  0.3174  0.2043  0.0277
66875W        W67739  15.946  17.105  23.932  0.3163 -0.0551  0.3306
66876W        W67740  27.879  28.440  16.251  0.2801  0.0179  0.3618
66877W        W67741  19.027  15.726   6.393 -0.1026  0.1232  0.2959
66878W        W67742  12.253  25.687  13.855  0.0903  0.1927  0.3325
66879W        W67743  23.045  21.473   5.167  0.0529  0.1685  0.3714
66880W        W67744  22.654  13.682  27.298 -0.1766  0.4940  0.0492
66881W        W67745   7.234   5.995   9.930 -0.1567  0.3582 -0.4250
66882W        W67746  20.462  19.832  11.168 -0.1714 -0.0967  0.0672
66883W        W67747  23.684  24.657  14.568 -0.4211 -0.1405  0.1605
66884W        W67748  23.933  11.783   5.652 -0.0609 -0.0928  0.0195
66885W        W67749   5.302  24.073  14.752 -0.0387 -0.2379  0.0679
66886W        W67750   5.124  15.034   3.938 -0.2095  0.1741 -0.0794
66887W        W67751   8.504  24.351  14.296  0.1976 -0.5127  0.2039
66888W        W67752   3.963  17.847  22.500 -0.2409 -0.1099  0.3112
66889W        W67753   6.130   5.080  22.033 -0.2881  0.0972 -0.0514
66890W        W67754  24.074  18.252   2.146  0.0648  0.0625  0.0978
66891W        W67755   7.728   4.492  13.462 -0.0014  0.3476 -0.3604
66892W        W67756  14.992  17.975  16.991 -0.0181  0.0972  0.0918
66893W        W67757  11.194  16.540  13.448  0.1968 -0.1591  0.0719
66894W        W67758  13.733   5.963  10.210 -0.2835 -0.1446  0.0325
66895W        W67759  22.617  10.929  11.657 -0.0767 -0.0827  0.1343
66896W        W67760   8.692  16.877   6.111  0.2016  0.2600 -0.2651
66897W        W67761   0.913   5.491  25.673 -0.0307 -0.0127 -0.0032
66898W        W67762   1.265  19.649  22.741  0.3057  0.0643  0.2869
66899W        W67763  12.388  15.394  23.384 -0.1900 -0.0091 -0.0150
66900W        W67764  13.349  24.297  24.650  0.3325 -0.2794  0.1050
66901W        W67765  18.183   5.037   5.988  0.0279 -0.5734 -0.0374
66902W        W67766   8.505  17.325  10.755  0.1193  0.0047 -0.0805
66903W        W67767  12.485  21.698   6.859 -0.1413  0.0074 -0.0513
66904W        W67768  18.768  21.905   6.710 -0.1013  0.1100 -0.1778
66905W        W67769   5.111  21.225  27.718  0.0711 -0.1321 -0.0543
66906W        W67770   9.126  19.157   6.175  0.2326 -0.0214  0.1838
66907W        W67771  14.945  13.969  12.540 -0.1659 -0.0543  0.2056
66908W        W67772  11.373   6.325   0.143  0.1090 -0.0174 -0.2694
66909W        W67773   3.339  22.541  23.086  0.0405 -0.0112  0.4359
66910W        W67774  19.880  28.245  21.643  0.0284  0.0335  0.0027
66911W        W67775  22.267  23.647   7.935  0.2606 -0.0104 -0.0531
66912W        W67776  13.507  13.237  11.371 -0.0845 -0.0619 -0.2283
66913W        W67777   2.928  26.141  17.866 -0.0539  0.0453  0.1361
66914W        W67778  25.664  13.439  10.302  0.1294 -0.0514 -0.1440
66915W        W67779  14.687  27.617   3.495 -0.3350 -0.1529 -0.3140
66916W        W67780  13.180   4.843   6.216  0.2025 -0.4042 -0.1668
66917W        W67781  13.415  29.021  16.656 -0.0837  0.4368 -0.0596
66918W        W67782   3.627   9.483  26.233  0.0864  0.1588 -0.1506
66919W        W67783  20.419   2.288  26.180  0.0299 -0.3861 -0.0856
66920W        W67784  14.404  17.561  28.846  0.0356 -0.1718  0.0443
66921W        W67785  27.680  21.085  17.831  0.0636  0.1447 -0.0277
66922W        W67786  12.492  11.016  12.533 -0.3137 -0.1367 -0.0007
66923W        W67787  24.629  27.221  18.269  0.1673  0.0003  0.2290
66924W        W67788  17.500  14.658  24.397  0.1497 -0.2000  0.2800
66925W        W67789   4.863  13.075   9.223 -0.0331  0.1381 -0.0195
66926W        W67790  25.014  28.588  26.395  0.0130  0.3875 -0.2343
66927W        W67791  25.041  27.614  19.907 -0.3153  0.3851  0.0503
66928W        W67792  14.923   3.380  17.442 -0.0061 -0.2300  0.3263
66929W        W67793   1.736   2.709  14.326  0.0787  0.4056  0.0173
66930W        W67794   0.149  22.547  24.721 -0.1536 -0.0198 -0.1827
66931W        W67795   8.366  11.521  18.901  0.2553  0.2036  0.1659
66932W        W67796   7.434  23.075  22.087 -0.1399 -0.1153 -0.1026
66933W        W67797  17.324  28.537   5.059  0.1898  0.0523 -0.3692
66934W        W67798  25.184  24.899  23.341 -0.1175 -0.0046  0.0395
66935W        W67799  14.555  17.327   9.037 -0.1617  0.3732  0.0613
66936W        W67800  20.820  20.562  20.843 -0.1373 -0.2891 -0.0338
66937W        W67801  12.225  25.847  21.218  0.0478 -0.0452  0.0666
66938W        W67802  14.322   2.192  21.435 -0.1899 -0.1049  0.1023
66939W        W67803  20.753  15.025   3.489  0.1136  0.1240  0.1799
66940W        W67804  28.504  28.412  19.070  0.5696 -0.3339  0.0339
66941W        W67805   4.884  13.590  14.918 -0.0500 -0.0572 -0.3245
66942W        W67806  23.182  23.336  28.927 -0.1441 -0.1588 -0.1648
66943W        W67807  11.044  21.670  11.889  0.0661 -0.0993  0.0175
66944W        W67808   1.872  16.396  13.798  0.0162  0.0027 -0.1346
66945W        W67809  27.836  29.046  18.124 -0.1227 -0.1783  0.3853
66946W        W67810  23.478  15.040  22.874 -0.2370 -0.0076  0.2220
66947W        W67811  23.164   8.391  13.113  0.0225  0.0668 -0.2936
66948W        W67812  14.268   3.029   0.169  0.0043 -0.3149  0.3927
66949W        W67813  19.509   3.448  18.219 -0.1519 -0.1038 -0.1279
66950W        W67814   9.506  18.622   4.424 -0.0225  0.1654 -0.0734
66951W        W67815   1.782  20.514   7.163  0.2019  0.2868  0.0616
66952W        W67816   5.214  18.392  26.024 -0.1246 -0.0049  0.0717
66953W        W67817   8.788   3.694  20.923  0.1702 -0.0773 -0.1500
66954W        W67818  22.628  20.515  22.197  0.3098  0.1248 -0.0901
66955W        W67819   9.269   8.060  19.635  0.1243  0.0988  0.0904
66956W        W67820  10.274  28.950   1.942  0.2678 -0.0454 -0.0373
66957W        W67821  24.163  21.281  24.042 -0.0908 -0.1764  0.3001
66958W        W67822  26.493   4.905  14.490 -0.1378 -0.1302  0.0337
66959W        W67823   6.516  25.140  26.106 -0.1341  0.0574 -0.2754
66960W        W67824   6.123  15.787  22.644  0.0428  0.1870 -0.1783
66961W        W67825   5.158  11.255   0.381 -0.1815  0.2173 -0.2106
66962W        W67826  27.179   5.080  23.676  0.3367 -0.0847 -0.0335
66963W        W67827  12.414  26.457  21.254  0.0536 -0.2887  0.1208
66964W        W67828  22.122  12.305   0.687 -0.4186  0.0284 -0.0668
66965W        W67829  19.184  11.495  17.538 -0.1509  0.0261 -0.2973
66966W        W67830  13.305  16.598  21.063 -0.0327  0.1618  0.1338
66967W        W67831   0.546   6.590  20.071  0.1751 -0.2828 -0.1262
66968W        W67832  27.426  13.466  15.002 -0.0332 -0.5039 -0.2434
66969W        W67833   7.559  18.675  13.125 -0.0587  0.0801 -0.0358
66970W        W67834  11.803  12.826  19.445  0.0674  0.0736  0.1644
66971W        W67835  15.432  21.024   9.936  0.1319  0.2734 -0.2074
66972W        W67836   2.625  21.766   0.381  0.0165  0.0248  0.0382
66973W        W67837  22.344  16.567  21.279 -0.3028 -0.2114 -0.1191
66974W        W67838  12.486  23.622  15.673 -0.0398  0.1514  0.2089
66975W        W67839  25.514  12.478  23.179 -0.0184 -0.0071  0.3793
66976W        W67840   3.079   2.811  16.720  0.1414 -0.1376 -0.2926
66977W        W67841  15.553  29.024   4.891  0.2347 -0.1186 -0.1390
66978W        W67842  27.361  19.312  26.501  0.0454  0.0146  0.2404
66979W        W67843   8.601  18.702  24.616 -0.3505 -0.2424  0.0567
66980W        W67844   0.325   9.617  25.307 -0.0894  0.2990 -0.4143
66981W        W67845   0.386   5.725  19.865  0.0378 -0.3335  0.1193
66982W        W67846  20.338   5.142  28.548  0.5538  0.0559 -0.1257
66983W        W67847  25.702  20.968   7.911  0.0065  0.0843  0.0465
66984W        W67848  10.319  14.031  19.131  0.3049  0.0690 -0.0938
66985W        W67849   1.185   3.396  19.630  0.0221 -0.3679 -0.3524
66986W        W67850   2.403  17.861  25.130  0.1824  0.2387  0.2484
66987W        W67851  19.137   8.564  17.278  0.1356 -0.3271  0.1131
66988W        W67852  24.121  19.237  19.011  0.1179  0.0619 -0.1342
66989W        W67853   3.569   6.727  24.990 -0.0860  0.2588  0.2897
66990W        W67854   2.890  23.846  24.263 -0.3445 -0.0500 -0.1520
66991W        W67855  14.360  18.457  11.656  0.0835 -0.1301  0.1405
66992W        W67856  12.886   5.273  28.242 -0.4476  0.1539  0.1492
66993W        W67857  14.532  10.306  20.530 -0.2303 -0.1063 -0.2637
66994W        W67858   5.327   9.015  12.965  0.0040 -0.3078  0.0870
66995W        W67859  23.015  28.317  10.379  0.0456 -0.1386  0.3593
66996W        W67860  28.344   2.860   6.486 -0.2941 -0.0822  0.0929
66997W        W67861  25.364   4.007   2.525  0.0282 -0.1211 -0.2808
66998W        W67862   7.510  27.415  23.953  0.0282 -0.1377  0.3446
66999W        W67863  17.480  11.467   0.899  0.0747  0.0104 -0.1517
67000W        W67864  27.191   0.017  22.765  0.0529  0.2681 -0.2262
67001W        W67865   6.920  19.047  22.493  0.1104  0.0157  0.1131
67002W        W67866  15.589   8.899  25.538  0.4084 -0.1830  0.1016
67003W        W67867  11.400  17.666  12.276  0.0158  0.2889  0.3837
67004W        W67868  21.018  16.835  14.417 -0.1017 -0.1444 -0.1612
67005W        W67869  18.084  14.296  16.079  0.0218 -0.2250 -0.0304
67006W        W67870  27.810  12.299   0.779 -0.2241  0.0358 -0.0487
67007W        W67871   4.876  22.550  14.205  0.1659 -0.0993 -0.1876
67008W        W67872   5.758   6.653   8.247 -0.1795  0.0712  0.2760
67009W        W67873   5.045  17.379  28.101 -0.2077 -0.0603  0.2559
67010W        W67874  19.731  19.820  14.738 -0.1182 -0.1572  0.1901
67011W        W67875  18.376  24.383  25.687 -0.1274 -0.3505  0.1669
67012W        W67876   4.891  22.688  12.823 -0.2527 -0.1832 -0.1757
67013W        W67877   5.322  27.759  20.084 -0.4761  0.0269 -0.2703
67014W        W67878  17.974   4.184   3.641 -0.0399  0.0397  0.0950
67015W        W67879  11.420  22.725  16.075  0.0332  0.4367  0.1127
67016W        W67880  14.803  17.669  23.756 -0.1634 -0.0847  0.1782
67017W        W67881  16.547  11.310   1.207 -0.0192 -0.1901 -0.1211
67018W        W67882   0.857  13.606  27.103 -0.0543 -0.4275 -0.2685
67019W        W67883  11.121  20.442  21.744 -0.0152 -0.1096  0.0518
67020W        W67884   4.724  28.131   6.272  0.3029  0.0051  0.2332
67021W        W67885   0.891  17.513   9.582  0.0606  0.1677 -0.1010
67022W        W67886  15.992  26.087  16.393 -0.0849 -0.0024 -0.2029
67023W        W67887   7.260   3.783  22.502  0.0545  0.2660 -0.0776
67024W        W67888  28.950   9.958  22.110 -0.0806  0.1610  0.1435
67025W        W67889   8.644  24.904  28.177 -0.1057 -0.0137 -0.1574
67026W        W67890  11.929   3.109  21.935 -0.0900  0.0768 -0.0007
67027W        W67891  15.562   8.415  12.196 -0.0643 -0.0210  0.0954
67028W        W67892   2.816  13.399  27.633  0.0199  0.0982  0.2293
67029W        W67893  20.665  23.696  14.488 -0.0305  0.0807  0.0566
67030W        W67894  27.623   6.978  23.535  0.0606  0.1094  0.1011
67031W        W67895  15.227  12.286  13.837 -0.0615  0.1124  0.0893
67032W        W67896  18.389   6.456   9.931  0.1516 -0.2770  0.0326
67033W        W67897  16.150  24.542   4.441 -0.3111  0.0506 -0.0483
67034W        W67898  13.486  11.758  11.449  0.1158 -0.2783  0.1212
67035W        W67899  13.413  17.177  16.587 -0.0954  0.1252  0.0761
67036W        W67900   8.184  11.015  11.888  0.0914  0.5860  0.0311
67037W        W67901  11.740  11.413  15.422 -0.1118 -0.2861 -0.1221
67038W        W67902  19.868  24.343  12.274 -0.0119 -0.0956  0.0653
67039W        W67903   7.744  28.229   9.294 -0.1544  0.2058  0.1700
67040W        W67904  25.294  23.684  28.435  0.1969 -0.2343  0.1504
67041W        W67905  15.721  16.356  27.680 -0.1282 -0.1136  0.2046
67042W        W67906  15.637  27.346   2.374 -0.1983 -0.3578 -0.1645
67043W        W67907  25.016  27.510  13.431  0.1351 -0.0909 -0.2003
67044W        W67908  28.771   1.311  25.331  0.2138 -0.3235 -0.3873
67045W        W67909   4.119  16.578  14.494  0.1450 -0.3137 -0.0090
67046W        W67910  28.968  22.182  24.436 -0.2109 -0.0481 -0.0527
67047W        W67911  13.108  12.430  17.568 -0.2515  0.0836  0.1857
67048W        W67912  12.137  10.167  17.779 -0.0833 -0.0417 -0.2407
67049W        W67913   4.353  21.138   5.651 -0.0896 -0.1910 -0.2780
67050W        W67914  13.262   3.546  19.164 -0.1459  0.3567  0.2896
67051W        W67915   5.322  24.064  20.790  0.1014  0.3028  0.0028
67052W        W67916  20.437  16.052  27.121 -0.0636  0.3177 -0.0101
67053W        W67917   3.303  26.141  11.039 -0.1254 -0.1398  0.0155
67054W        W67918   3.855  11.433  12.752  0.2122  0.1141 -0.0241
67055W        W67919   7.347  25.374  19.458 -0.2730  0.0122  0.0598
67056W        W67920   5.571  26.838  28.306 -0.3690  0.1452 -0.0004
67057W        W67921  12.729  26.508  24.657 -0.3024 -0.0507 -0.3884
67058W        W67922   4.767  14.477   1.175  0.1268  0.2304  0.2765
67059W        W67923   6.547  22.513   8.238  0.0542 -0.3282  0.0893
67060W        W67924  17.062  10.159  18.229 -0.0090 -0.4067  0.0652
67061W        W67925  23.115  19.297   2.746  0.1953  0.1021 -0.2470
67062W        W67926   6.942  23.430  15.712 -0.1833  0.2170 -0.2351
67063W        W67927   3.547  18.754  26.612 -0.2384 -0.0992  0.1356
67064W        W67928   0.276   7.601  28.501  0.0949 -0.4976 -0.1400
67065W        W67929   9.439  21.017   4.441 -0.1818 -0.2878  0.1211
67066W        W67930  10.091  25.884  22.524  0.2834  0.1287 -0.0366
67067W        W67931   4.535   8.726  19.063 -0.0535 -0.0116 -0.0184
67068W        W67932   8.650   0.039   8.929  0.0386  0.0314  0.0808
67069W        W67933   6.281  10.980   4.485 -0.1524 -0.0432 -0.0965
67070W        W67934  27.179  27.290   6.236 -0.0270 -0.3128  0.4443
67071W        W67935  28.200  12.512  14.291  0.3616  0.1374  0.0587
67072W        W67936  18.152  17.117   6.876 -0.0570 -0.1549  0.1356
67073W        W67937  15.176   5.949   3.525 -0.2023 -0.0132 -0.0295
67074W        W67938  17.472  18.598  26.661  0.0359  0.2064  0.2029
67075W        W67939  13.076  21.846  10.663 -0.1356  0.0079  0.3844
67076W        W67940  28.815  26.615  12.612  0.1380  0.3653  0.0624
67077W        W67941  21.922  28.661   8.879  0.0337  0.0003 -0.1015
67078W        W67942  26.121   6.758  24.509  0.2237  0.1869 -0.1626
67079W        W67943  13.075   4.736  28.176  0.0310  0.2496 -0.1153
67080W        W67944   7.099   0.360  28.667  0.1898  0.0474  0.0371
67081W        W67945  14.417  25.173  26.530 -0.2098 -0.0563 -0.0073
67082W        W67946   7.558  24.986   4.885 -0.1138 -0.0870 -0.1282
67083W        W67947  27.090  20.786   1.921  0.1414 -0.0662  0.1422
67084W        W67948  27.021  13.752   3.199  0.1386 -0.1092 -0.3282
67085W        W67949   4.326   1.830  24.160  0.1583 -0.0257 -0.0140
67086W        W67950   9.401  23.891  24.091  0.1214  0.0396  0.1026
67087W        W67951  26.856   4.654  15.649  0.2869 -0.2955  0.4793
67088W        W67952  22.802   9.019  21.592  0.0735  0.3225 -0.5091
67089W        W67953   9.858  20.084  24.318  0.1248 -0.1199  0.2348
67090W        W67954   2.515   2.804   9.401 -0.1351 -0.4326  0.2049
67091W        W67955   2.941   8.916   5.126  0.1330  0.3769  0.0190
67092W        W67956  10.560   9.392   8.864 -0.0458  0.4982 -0.1029
67093W        W67957  22.341  20.215   8.273  0.0860 -0.1036  0.0158
67094W        W67958  15.472  22.480   2.124  0.0184 -0.1326 -0.1957
67095W        W67959  25.048  17.647   4.179  0.4875  0.1434 -0.0625
67096W        W67960   6.219  17.100  11.995  0.1605  0.4175  0.3145
67097W        W67961   2.796  16.578  12.450  0.1777 -0.0010 -0.1885
67098W        W67962  28.298  28.029  26.941  0.3759 -0.0979 -0.0096
67099W        W67963   4.801  16.922   4.490 -0.2961 -0.0547 -0.1754
67100W        W67964  20.705  14.986  17.708  0.0300 -0.2184  0.1059
67101W        W67965  29.094  23.476   5.214 -0.0423  0.2560 -0.2819
67102W        W67966  12.501  26.971  13.253 -0.1384 -0.1777 -0.0974
67103W        W67967  11.193  14.099  28.248  0.1069  0.0944 -0.2510
67104W        W67968  15.056  14.100  21.290 -0.0117  0.0292  0.0893
67105W        W67969   3.085  17.622   3.474 -0.1379  0.2070 -0.0056
67106W        W67970   9.305  10.685  11.976 -0.1517  0.2290  0.0172
67107W        W67971   1.909  16.417  22.815 -0.1572 -0.0258 -0.3092
67108W        W67972  12.121  13.739  28.235  0.2218  0.1004  0.2347
67109W        W67973   4.558  24.123  12.043 -0.1094  0.3193 -0.0365
67110W        W67974   9.966  20.557   0.053 -0.3344  0.1033 -0.1253
67111W        W67975  27.810  16.906  14.638 -0.2053 -0.0011  0.0363
67112W        W67976  16.849  12.703  26.442  0.0389 -0.1415 -0.2718
67113W        W67977   4.876  14.459  21.750  0.0732  0.0467  0.0365
67114W        W67978  10.226   3.738  23.306 -0.0341  0.2973 -0.0504
67115W        W67979  28.733   4.429  11.985  0.0138  0.1656  0.0702
67116W        W67980   6.292  25.227   2.421  0.2047  0.0258 -0.1129
67117W        W67981   7.567  13.594  25.162 -0.1617  0.0472 -0.1966
67118W        W67982  10.813  25.610  10.074 -0.0382  0.1488 -0.1747
67119W        W67983  23.823  24.708   5.606  0.2419 -0.0473 -0.0378
67120W        W67984   0.644   8.841  20.375 -0.1452 -0.0566  0.2083
67121W        W67985   0.569  24.607  14.257  0.0040 -0.0789  0.2449
67122W        W67986  12.635  13.323  14.326  0.1140 -0.3961  0.0282
67123W        W67987   8.358  11.038  24.701 -0.1343 -0.0471 -0.0365
67124W        W67988  27.507  10.144  21.339  0.1607  0.1011 -0.0296
67125W        W67989  13.107  22.162  14.075  0.4015  0.2651  0.0392
67126W        W67990  12.562  15.472   1.243 -0.1554  0.1534 -0.0316
67127W        W67991   1.383  18.278   4.497 -0.1890  0.1516  0.3201
67128W        W67992  12.219  13.248   4.455 -0.0888  0.1820  0.2671
67129W        W67993   7.687  13.634  22.530 -0.0082  0.1115  0.3422
67130W        W67994   0.934  20.327   2.578 -0.0885  0.1265  0.0539
67131W        W67995  22.575  28.774   8.179  0.1159 -0.3374 -0.2775
67132W        W67996   8.073   8.989  25.078 -0.4271 -0.3031 -0.0878
67133W        W67997  19.340   7.627  10.540 -0.0906  0.0455  0.0597
67134W        W67998  24.165  26.235  17.555  0.5104  0.2675 -0.0572
67135W        W67999   3.902   5.961  11.607  0.1311  0.2854  0.4429
67136W        W68000  25.544  11.521  14.209 -0.0209  0.4799  0.0233
67137W        W68001  16.184  26.745  21.931  0.2932  0.1986  0.1200
67138W        W68002  17.132  27.573  17.601 -0.0272  0.0043 -0.3441
67139W        W68003   7.443  20.895  20.925 -0.0449  0.1346 -0.0278
67140W        W68004  17.249   5.514   1.262  0.3268 -0.1436  0.0867
67141W        W68005  15.862   3.147  27.483  0.1890 -0.1316 -0.2404
67142W        W68006  23.399  15.531   1.785 -0.1704 -0.3996  0.5879
67143W        W68007  12.766  23.453  20.840  0.1233  0.1612 -0.1270
67144W        W68008  26.086  22.882  23.137  0.0598  0.3842 -0.0387
67145W        W68009  13.160  27.856   3.802 -0.0812 -0.0368  0.1035
67146W        W68010  13.317   9.758  23.519  0.1108  0.1908 -0.3183
67147W        W68011   3.822  11.014  13.149 -0.0912 -0.0607  0.1973
67148W        W68012   4.614  11.990  21.274 -0.0280 -0.1372  0.1342
67149W        W68013  14.814  26.930   2.121  0.2371 -0.1731 -0.2168
67150W        W68014  10.097  10.846  21.443 -0.1515  0.1042  0.0608
67151W        W68015  21.590  15.024  28.677  0.1931  0.0415 -0.1686
67152W        W68016   9.643  25.264   3.750 -0.2533 -0.0206  0.3115
67153W        W68017   2.809  13.329   4.941  0.1271 -0.2061 -0.0983
67154W        W68018  12.849   3.425   2.846 -0.1011  0.3789 -0.3254
67155W        W68019   1.642  21.297   7.226  0.4160  0.0102 -0.0605
67156W        W68020  26.704  16.928  26.516 -0.0345  0.2060  0.0837
67157W        W68021  25.295  16.034  24.926 -0.1199  0.0483  0.1728
67158W        W68022   3.039   0.502  29.025 -0.1205 -0.1007  0.2953
67159W        W68023  13.803  17.035  21.565 -0.0755  0.0642 -0.1137
67160W        W68024  13.458  28.586  12.047  0.2052  0.2354  0.2005
67161W        W68025   3.940   3.777   3.120  0.2328 -0.2545 -0.0925
67162W        W68026  12.750   9.545   1.729 -0.0239 -0.1776  0.3470
67163W        W68027  19.652   9.659  27.937  0.0186  0.5463  0.0626
67164W        W68028  11.571  10.966  23.993 -0.2660  0.1293 -0.0037
67165W        W68029   9.252   4.388   1.385 -0.3541  0.0790 -0.0651
67166W        W68030  15.766   8.942   2.610 -0.2273  0.5211 -0.1858
67167W        W68031   3.440   8.837  28.377 -0.2916 -0.0079 -0.1197
67168W        W68032  14.900  21.821   1.536  0.0390 -0.0730  0.1179
67169W        W68033  20.608   1.957  21.771  0.4121 -0.0771  0.2757
67170W        W68034   3.859  20.678  25.824 -0.1797 -0.0971  0.0958
67171W        W68035  11.319   2.184  24.438  0.1318  0.0586  0.1304
67172W        W68036  11.449  10.485   8.599 -0.2427 -0.2491  0.0817
67173W        W68037   5.484  14.813  25.514  0.1138 -0.0570 -0.2653
67174W        W68038  15.545   2.144   3.739 -0.1355 -0.1044  0.0708
67175W        W68039  15.954  13.959  20.530  0.0821 -0.1171  0.0131
67176W        W68040  21.010   5.569   5.756  0.0747 -0.0697  0.1578
67177W        W68041   5.826   0.135   9.525  0.2478 -0.0333 -0.3283
67178W        W68042  10.406  17.892  21.423 -0.0661 -0.0811 -0.2239
67179W        W68043   3.636   1.215  27.045  0.3337  0.0559  0.0619
67180W        W68044  13.842  22.797   5.419 -0.0437  0.1433  0.1335
67181W        W68045   4.389  25.030  22.062 -0.2776 -0.0000  0.0691
67182W        W68046   8.430  23.044  25.810 -0.1422 -0.0104 -0.1846
67183W        W68047  15.235  27.564  10.822 -0.0525  0.0536  0.0560
67184W        W68048  21.625  15.398  21.479 -0.0280  0.0733  0.1846
67185W        W68049   6.185  11.130  28.034  0.0363 -0.3145  0.1001
67186W        W68050   8.580  18.876  10.292  0.1363  0.0537 -0.0667
67187W        W68051  19.344  15.870  12.891 -0.1287  0.1284  0.1136
67188W        W68052  11.029  10.665   0.671  0.2417  0.0467 -0.4164
67189W        W68053  20.541  24.696  26.508  0.1596 -0.4397  0.0618
67190W        W68054  20.759   8.422   3.744  0.0842 -0.0291  0.4834
67191W        W68055  12.358  28.263  18.118  0.1379  0.1289 -0.0836
67192W        W68056   7.814  22.532  18.696 -0.3108 -0.0698  0.2798
67193W        W68057   6.397  12.137  10.131 -0.0043 -0.2709  0.0521
67194W        W68058   7.323   0.002   1.063 -0.3363 -0.2994  0.2995
67195W        W68059  17.785   8.545  25.424  0.0167 -0.1636  0.0324
67196W        W68060  21.611  27.900  28.943  0.0635  0.3531  0.1291
67197W        W68061  27.640  13.086  24.985 -0.0848  0.2127 -0.1117
67198W        W68062   7.252  22.366  28.626  0.2849  0.1009  0.0808
67199W        W68063  23.163  24.940  11.103  0.4329 -0.2416 -0.1284
67200W        W68064  28.798  23.877   8.580  0.2317 -0.0968 -0.1437
67201W        W68065  19.621  18.684  28.453 -0.0969  0.1016  0.0893
67202W        W68066  18.301  14.582   1.258 -0.0806  0.0622 -0.0155
67203W        W68067   3.360  10.291  16.909 -0.0529 -0.2271  0.2421
67204W        W68068   4.535   1.219  22.498  0.2987 -0.1146 -0.0638
67205W        W68069   4.829  28.230   7.494 -0.1100 -0.0928  0.0101
67206W        W68070   4.949  14.170   1.919  0.2077 -0.2232 -0.0242
67207W        W68071  26.171  28.043  20.522 -0.0464  0.2838  0.1471
67208W        W68072  15.873  25.505  11.075  0.0193  0.0025 -0.1003
67209W        W68073   0.019  12.815  27.909 -0.1043 -0.2628 -0.0408
67210W        W68074   0.421   6.733  14.345  0.0016 -0.1627  0.2523
67211W        W68075   6.562  24.212  17.227 -0.0185 -0.0572 -0.2040
67212W        W68076  19.142   3.343  22.233  0.0101 -0.2050 -0.2934
67213W        W68077  11.551   7.087  15.151  0.2101  0.2616 -0.0144
67214W        W68078  12.803   7.790  23.306  0.0695 -0.1684  0.1579
67215W        W68079  28.776   6.665  23.750 -0.0047 -0.2125 -0.1561
67216W        W68080   4.124  14.460   8.751 -0.1638 -0.0456  0.0905
67217W        W68081   9.568  20.721   2.983  0.3137 -0.0176 -0.3558
67218W        W68082  12.540  12.873  24.507 -0.0829  0.2419 -0.0151
67219W        W68083  22.756  17.117  22.660  0.3128  0.0811  0.2123
67220W        W68084  25.333  13.567   2.461 -0.0402  0.1180  0.0806
67221W        W68085  21.459  22.691   0.866  0.0297  0.1963 -0.0189
67222W        W68086  13.334  17.910   2.914 -0.0266 -0.0880 -0.0497
67223W        W68087  16.138   2.065  26.901 -0.1192 -0.1715 -0.1502
67224W        W68088   9.893  21.245   6.333 -0.0719  0.0675 -0.0381
67225W        W68089  15.896  10.844   2.517  0.2225  0.1138 -0.3875
67226W        W68090   2.661   6.677  16.827 -0.4350 -0.1608  0.0453
67227W        W68091   1.651   4.495   8.095 -0.1054 -0.4489  0.0320
67228W        W68092   4.078  26.857   6.363  0.2150 -0.0274 -0.0816
67229W        W68093  19.234  16.984  27.775 -0.0750 -0.0076  0.4871
67230W        W68094   7.388  25.807  27.858  0.0413 -0.1298 -0.3024
67231W        W68095  11.704  20.523  20.854  0.1621 -0.0795 -0.0632
67232W        W68096   4.408   0.208  19.745  0.0421 -0.2255 -0.0500
67233W        W68097  24.214  15.383   0.814 -0.1484 -0.1439  0.3340
67234W        W68098  17.836  12.788  25.929 -0.1399 -0.0209  0.0816
67235W        W68099  14.804  12.754  12.011 -0.0445 -0.2193  0.0121
67236W        W68100  21.820  20.770   7.555 -0.1154 -0.1970 -0.0827
67237W        W68101  25.267  14.599  29.060 -0.1291  0.0515  0.1180
67238W        W68102  14.145   8.789  17.084  0.1051 -0.3227 -0.0243
67239W        W68103  23.059  18.696  26.034  0.1023 -0.1671  0.0600
67240W        W68104  19.228   5.334  15.700  0.1926 -0.1072  0.1873
67241W        W68105  22.672  22.889  26.295  0.1648 -0.0299 -0.0966
67242W        W68106   5.130   4.808   3.878  0.4516 -0.1506 -0.1147
67243W        W68107  11.651  14.003  23.441 -0.0299  0.3574 -0.1533
67244W        W68108  10.076   0.062  25.905  0.3832  0.0547  0.0065
67245W        W68109   8.755  28.065   1.669  0.0545 -0.3025  0.1995
67246W        W68110   3.041   1.176  15.703  0.1942 -0.0722 -0.0935
67247W        W68111  20.450  28.043  15.882  0.3061  0.2207  0.4452
67248W        W68112  16.881  27.623  26.022 -0.4887 -0.0960  0.1679
67249W        W68113  27.150  17.051  21.777 -0.3589  0.0533 -0.1542
67250W        W68114  22.956   1.754  27.145  0.0959 -0.0980  0.0719
67251W        W68115   3.066  16.214  22.030 -0.1455 -0.1590  0.1504
67252W        W68116   1.649  25.553   4.136  0.0407 -0.1383 -0.2202
67253W        W68117  13.842   7.638  29.114  0.1005  0.1259 -0.0742
67254W        W68118  21.125   4.021  18.871 -0.2570  0.2972  0.1998
67255W        W68119  27.665  25.489   7.913  0.2825  0.0516  0.0787
67256W        W68120  21.791  13.278  13.833 -0.1934 -0.0705  0.1761
67257W        W68121   0.203   4.655  19.303 -0.0916  0.0095 -0.1492
67258W        W68122  10.472  20.829   6.555 -0.0406  0.3761 -0.2704
67259W        W68123   4.592  23.378  14.736 -0.3854 -0.2899 -0.0187
67260W        W68124  23.203   1.848   4.241  0.1041 -0.2092 -0.3081
67261W        W68125  17.210  24.984   7.867  0.0027 -0.0907  0.1644
67262W        W68126   9.090   1.262  25.263 -0.0800 -0.1832  0.2709
67263W        W68127  15.085   2.608  27.113  0.0482  0.0890 -0.1401
67264W        W68128   0.930  24.131   6.949 -0.0578  0.0263  0.0140
67265W        W68129  21.249  23.912  15.484 -0.1375 -0.1422  0.0803
67266W        W68130  12.654   3.584  16.679  0.1855  0.1209  0.0848
67267W        W68131   5.973   7.115   7.339  0.0458 -0.4337 -0.0534
67268W        W68132  10.074  12.397  18.380  0.0857  0.0419 -0.2829
67269W        W68133  15.240   4.133  27.761  0.1408 -0.2870 -0.1093
67270W        W68134   6.409  20.809   6.984 -0.1557 -0.0928 -0.1942
67271W        W68135  14.228  18.490   3.160  0.0020  0.0207 -0.1126
67272W        W68136  17.952   0.632  24.997 -0.2940  0.0358  0.2021
67273W        W68137   5.188  19.037  13.990  0.2298  0.2544  0.0566
67274W        W68138   9.061   3.241  11.751  0.0829  0.0921 -0.0438
67275W        W68139   8.442  18.046  23.732  0.2359  0.0445  0.1091
67276W        W68140   1.387  17.257  23.980 -0.1774 -0.2037  0.0572
67277W        W68141   6.285   1.349  25.144  0.1128  0.1243  0.0844
67278W        W68142  16.638   5.007  25.266  0.0721  0.5712  0.1202
67279W        W68143  19.350   9.692   2.019  0.0955 -0.1412 -0.1360
67280W        W68144   1.130  28.809  14.983 -0.0428  0.0862 -0.1331
67281W        W68145   4.929   7.544  24.090 -0.3508 -0.1476  0.1454
67282W        W68146  19.587  17.950   4.660  0.1345 -0.1262 -0.1605
67283W        W68147   4.638   6.731  25.706 -0.1776  0.1796  0.0922
67284W        W68148  15.501  12.255  26.916 -0.0143 -0.0025  0.1072
67285W        W68149  11.146  16.499   9.535  0.3529 -0.0640 -0.1111
67286W        W68150  22.198   0.845  25.054 -0.0127  0.0848 -0.2088
67287W        W68151  27.108  13.175  25.232  0.0402  0.0259  0.1735
67288W        W68152  19.451  23.256  22.156 -0.0535 -0.1806 -0.1104
67289W        W68153  16.383  12.957  17.223  0.1266 -0.0173 -0.0153
67290W        W68154  24.148  27.130   2.397 -0.0673 -0.2186 -0.4009
67291W        W68155   7.510  24.360   5.626  0.1107 -0.2991  0.0697
67292W        W68156  15.662  24.434  14.061 -0.1209 -0.1023  0.0965
67293W        W68157   6.332   8.097  27.769 -0.2569  0.3690 -0.2386
67294W        W68158   1.301   2.581  29.102  0.2471  0.0738 -0.0665
67295W        W68159  23.941  10.360  17.109 -0.0350  0.3339  0.1704
67296W        W68160  10.849   9.640  17.428  0.1145 -0.0216 -0.0793
67297W        W68161  10.559  20.768  25.548  0.3150  0.0112 -0.2021
67298W        W68162  12.102  22.061  26.868 -0.1489  0.2421  0.1926
67299W        W68163  22.340  11.314  25.400 -0.0472 -0.1457  0.1015
67300W        W68164  16.344   8.818  26.636 -0.5090  0.0632  0.0897
67301W        W68165   4.250  25.787   3.727  0.0941  0.1168 -0.2042
67302W        W68166  16.522   6.406  27.926  0.0560  0.2305 -0.0744
67303W        W68167  13.376   8.429   9.943  0.0047 -0.0079  0.3394
67304W        W68168  17.322  20.677  19.650  0.0069  0.1304  0.0874
67305W        W68169  25.614  15.904  11.453  0.0244 -0.1420  0.1196
67306W        W68170  18.457  24.385  10.159  0.3613 -0.0554 -0.0190
67307W        W68171  15.835   9.075  18.743 -0.1478 -0.2315  0.0269
67308W        W68172  10.921   2.368   9.991  0.1588 -0.1273 -0.2019
67309W        W68173  21.365  20.574   7.529  0.0315 -0.1045 -0.0917
67310W        W68174  17.648  28.199  27.056  0.1853 -0.1243  0.2644
67311W        W68175  28.922  13.592   4.441  0.0004 -0.2099  0.0747
67312W        W68176  19.814  23.884   3.274 -0.1026 -0.0458 -0.2727
67313W        W68177  18.248  20.751   0.823  0.2356 -0.1575  0.0431
67314W        W68178   1.831  16.604  18.442 -0.2356 -0.3280 -0.3218
67315W        W68179  10.347   6.738   2.682  0.2826  0.3433 -0.0347
67316W        W68180  10.949   2.531  19.643  0.0713 -0.0275  0.0265
67317W        W68181  10.884  24.032  17.184  0.0770 -0.0967  0.0970
67318W        W68182   4.226   0.269  26.499 -0.4793  0.1706  0.1443
67319W        W68183   5.514  21.376  23.684  0.1759  0.3475  0.3125
67320W        W68184   6.925  16.454  28.539 -0.1576  0.0828  0.0440
67321W        W68185  18.331  12.040  13.312  0.0582 -0.0426  0.0237
67322W        W68186  15.994   3.573   0.163 -0.1457  0.0304 -0.0110
67323W        W68187  13.528  14.633   6.921 -0.1917 -0.0133 -0.1000
67324W        W68188  15.416  15.789   6.975  0.0066 -0.1429  0.0865
67325W        W68189   3.350  28.004   0.715  0.1631  0.2958  0.0113
67326W        W68190   8.380  19.498   1.758  0.1002  0.1002 -0.0049
67327W        W68191   0.996  13.763   4.392  0.0472 -0.0338 -0.3387
67328W        W68192   7.648  18.717  28.591 -0.0520  0.0246  0.0813
67329W        W68193  21.625  10.550  20.050  0.0525  0.1628  0.0660
67330W        W68194   3.031  13.799   1.742  0.1086 -0.1313  0.4111
67331W        W68195  10.515  21.330  13.721 -0.0849  0.2560  0.3751
67332W        W68196  25.118  24.523  23.840 -0.0728 -0.1913  0.1437
67333W        W68197  27.302  16.199  23.181  0.2739  0.3450  0.1484
67334W        W68198   3.058  14.088   6.295 -0.2413  0.2102 -0.0204
67335W        W68199   6.621   0.139  15.361 -0.0455 -0.5011 -0.0349
67336W        W68200   5.681  25.628   0.190 -0.0793  0.0884 -0.1628
67337W        W68201  26.288  17.639  25.606 -0.3007  0.1280 -0.2332
67338W        W68202  18.902  24.054   2.588  0.1367 -0.1474 -0.0745
67339W        W68203  27.801   2.856  18.913  0.2389  0.1849  0.1172
67340W        W68204   0.062  22.748  17.753  0.0733  0.0370 -0.1186
67341W        W68205   5.991  17.664   5.745 -0.1383  0.0826 -0.0308
67342W        W68206  10.759  20.038  12.931  0.2892  0.2424 -0.1954
67343W        W68207  24.334  24.995  23.331  0.0875  0.2215 -0.1269
67344W        W68208   1.819  14.213  10.513  0.0903 -0.1527 -0.0013
67345W        W68209   1.565  17.556  16.726 -0.1917  0.5230 -0.2786
67346W        W68210  11.247   4.656   4.514 -0.0433  0.3205  0.1087
67347W        W68211  12.641  13.505  28.358 -0.1151  0.1464 -0.0702
67348W        W68212   7.349  19.059  16.119 -0.1899  0.0113  0.0156
67349W        W68213  12.595   3.905   7.069 -0.1315  0.1271  0.3439
67350W        W68214   0.662  24.304  13.489 -0.2359 -0.0587 -0.0725
67351W        W68215   4.634  28.083   3.618  0.3968 -0.1719 -0.2086
67352W        W68216  18.459   6.815   8.640  0.1513  0.3199 -0.0715
67353W        W68217  11.047  23.918  18.047  0.1869  0.1494 -0.0005
67354W        W68218  13.312   4.153   4.501  0.1431 -0.1185 -0.0102
67355W        W68219   6.877  28.453   6.692  0.2021 -0.1586 -0.0526
67356W        W68220  24.107   6.439  20.046  0.1270 -0.0008  0.1924
67357W        W68221   9.968  17.431   8.733  0.2093 -0.1977 -0.0904
67358W        W68222   6.466  13.772  24.494  0.0208 -0.2441  0.0726
67359W        W68223  13.070  23.392   1.846  0.0957  0.1288 -0.0148
67360W        W68224   9.529  23.212   7.434 -0.1188 -0.7984 -0.0764
67361W        W68225  21.801  16.454   9.256 -0.0354  0.0139 -0.1280
67362W        W68226  27.758  22.835  25.701 -0.0816  0.2022  0.1240
67363W        W68227   6.779  19.056  19.243 -0.0864  0.1570 -0.0054
67364W        W68228   8.852  27.466   9.387  0.1012 -0.0502 -0.0454
67365W        W68229   8.911   0.611  27.483 -0.0805 -0.1559 -0.0745
67366W        W68230  29.040  28.886   9.979 -0.2330  0.2848 -0.3274
67367W        W68231  26.992  22.527   4.017 -0.0036  0.4294  0.1824
67368W        W68232  13.958   9.557  15.944 -0.1680  0.0322  0.1260
67369W        W68233  11.909  10.647  11.337 -0.1186  0.0216 -0.0025
67370W        W68234  17.913   5.386  21.023  0.0308 -0.3733 -0.0562
67371W        W68235   7.226  25.257  28.026  0.2419  0.0377  0.0489
67372W        W68236  21.272  10.220  12.675 -0.2284  0.3924 -0.0105
67373W        W68237   3.899  12.969  24.826  0.0700 -0.1766  0.1584
67374W        W68238   1.610  11.028  27.525 -0.0762 -0.2770 -0.1285
67375W        W68239   9.367  16.546  10.028 -0.1165 -0.1799 -0.0359
67376W        W68240  17.623  23.789  25.798 -0.1897 -0.0782 -0.0477
67377W        W68241  17.667  24.524  23.376  0.0682 -0.0825 -0.1505
67378W        W68242   3.911   7.689  12.492 -0.3434 -0.1311  0.0133
67379W        W68243  21.937  15.884   8.358  0.0515  0.1418  0.0235
67380W        W68244  12.205  11.218  13.988  0.1226  0.3520 -0.0252
67381W        W68245  12.277   9.079  18.605  0.2498  0.0377 -0.0777
67382W        W68246  24.934  27.515   0.354 -0.0273 -0.2307  0.1540
67383W        W68247  14.058   9.992  11.854  0.2838 -0.0323  0.2831
67384W        W68248  23.108  26.361   6.566  0.0508 -0.2065  0.3685
67385W        W68249   2.641   9.815  26.008 -0.1560  0.1364  0.0596
67386W        W68250  11.239  13.069   9.309 -0.0157 -0.1822  0.3518
67387W        W68251   5.675  29.050   1.238 -0.0336 -0.1710  0.0633
67388W        W68252  24.628  18.075  21.787  0.0652  0.3832  0.0006
67389W        W68253  17.304  28.507  10.115 -0.1910 -0.0684 -0.0633
67390W        W68254  16.840   4.212  18.881  0.0920 -0.2331  0.2021
67391W        W68255   3.686  14.286   4.979  0.0746 -0.2309 -0.1035
67392W        W68256   9.154  16.467  11.549 -0.0336  0.4302 -0.0512
67393W        W68257  25.663  28.556  23.626 -0.0835 -0.1064  0.0746
67394W        W68258   3.603   6.886  27.554 -0.0249 -0.2292 -0.0405
67395W        W68259  23.349  18.430   3.187  0.1773 -0.0345 -0.0223
67396W        W68260   0.219  22.100   3.980  0.0061 -0.1400 -0.1889
67397W        W68261   8.205  12.391   6.319  0.0379 -0.0959  0.0608
67398W        W68262  25.353  20.875  19.516  0.2861 -0.0154 -0.1810
67399W        W68263  27.584   8.738  14.881 -0.3135 -0.1448  0.2762
67400W        W68264  13.251   4.025   6.146  0.0550  0.0465  0.3055
67401W        W68265  16.551  18.871   5.755 -0.0445 -0.1854 -0.0007
67402W        W68266  13.860  13.323   9.227 -0.1590 -0.1325 -0.0608
67403W        W68267   8.877  29.119  11.505  0.1080 -0.1789 -0.1788
67404W        W68268   6.181  16.237  20.323  0.2253  0.0916  0.1867
67405W        W68269  13.693  20.800  25.502 -0.0979 -0.4619 -0.0548
67406W        W68270   4.681  28.626   5.405  0.2775  0.2543  0.2175
67407W        W68271  18.711   7.430  28.251  0.1115  0.0272 -0.2811
67408W        W68272  14.600  20.044  21.021  0.1229  0.2626 -0.4935
67409W        W68273  27.465  14.076  29.083 -0.0905 -0.3914  0.0708
67410W        W68274  19.724   9.802   4.701 -0.1079 -0.0978 -0.2152
67411W        W68275   3.071  26.246  17.395 -0.1352  0.2499  0.2021
67412W        W68276  15.016  25.884  26.748  0.2894  0.1655  0.0822
67413W        W68277   8.435  12.644   1.295  0.2924  0.0711 -0.0751
67414W        W68278   6.771  27.837   9.424  0.1525  0.1101 -0.1989
67415W        W68279  13.501  26.414   4.994 -0.2263 -0.1019  0.0462
67416W        W68280   4.177   2.299   9.814  0.0101 -0.1330  0.0418
67417W        W68281   0.471   8.524   9.909 -0.0253 -0.2156 -0.1393
67418W        W68282  27.532   1.865   2.292  0.1532 -0.2616  0.0359
67419W        W68283  22.797   3.031  28.468  0.0909 -0.0563  0.0911
67420W        W68284  16.015   8.675  28.550  0.0419  0.0471 -0.0924
67421W        W68285  12.427  24.528   1.942 -0.0516  0.2710  0.3076
67422W        W68286  11.047   3.764  26.327  0.0349 -0.1330 -0.1683
67423W        W68287  21.975  25.612  17.264 -0.1443  0.1102 -0.0910
67424W        W68288  16.795  20.873  23.484 -0.0606 -0.0326  0.0198
67425W        W68289  24.160   0.965  28.759 -0.1022 -0.1014 -0.0668
67426W        W68290   3.403  15.473  21.005  0.4090  0.2691  0.0408
67427W        W68291   9.536  23.994  21.953  0.3874 -0.1317  0.0140
67428W        W68292  11.178  11.205   3.082 -0.0991 -0.0027 -0.0121
67429W        W68293   9.627   9.688   6.553  0.2331  0.2114  0.0458
67430W        W68294  17.315   9.255   8.505 -0.0283  0.1546  0.0665
67431W        W68295  24.256  14.642   6.392 -0.3334 -0.1201  0.1094
67432W        W68296   9.863  19.227  11.849 -0.0011  0.0248 -0.0833
67433W        W68297  11.738  11.946  10.293 -0.0511 -0.0348 -0.1868
67434W        W68298  13.802   5.617  25.761  0.4035  0.0396  0.0055
67435W        W68299  22.073  12.245   8.617 -0.1460  0.0117 -0.0882
67436W        W68300  25.490  19.954  29.063 -0.1388  0.0776  0.1026
67437W        W68301   5.094  25.868  17.780 -0.1367 -0.1318  0.0856
67438W        W68302  24.052   5.318   0.395 -0.1077 -0.1853  0.0027
67439W        W68303  28.770  25.920   3.039 -0.0765  0.1635  0.0814
67440W        W68304  16.306   6.475  20.722  0.1654  0.0853 -0.0065
67441W        W68305  17.929  19.362   0.312  0.0527  0.3946  0.2041
67442W        W68306   8.537  28.872   0.931  0.0887  0.3141 -0.1543
67443W        W68307   5.169  24.581  26.173 -0.0041  0.0458 -0.0220
67444W        W68308   0.570  24.859  21.503 -0.0218  0.2830 -0.1077
67445W        W68309   6.719  19.475   8.002 -0.1477  0.2079  0.1212
67446W        W68310   6.965  23.341  21.922 -0.2249 -0.1314 -0.0054
67447W        W68311  15.369  16.011  11.975 -0.1439 -0.0515  0.0291
67448W        W68312   9.433  21.749  22.103  0.0847  0.0094  0.0263
67449W        W68313   4.950  15.394   0.618  0.0048 -0.2697 -0.0061
67450W        W68314  26.662  18.753  29.007 -0.0170  0.2397  0.3094
67451W        W68315  17.710  23.976   7.880 -0.0337  0.2910  0.0409
67452W        W68316  10.643  18.108  10.952  0.0127  0.2526 -0.3303
67453W        W68317  16.574  28.871   6.195  0.1251 -0.0611 -0.0936
67454W        W68318  21.584  11.876  28.025 -0.2115 -0.0582 -0.1402
67455W        W68319  14.769  17.269   6.230 -0.1995  0.1764  0.0763
67456W        W68320  18.929  24.913  26.770 -0.0795 -0.0400  0.2754
67457W        W68321   6.684  11.537   0.277 -0.1368 -0.0844  0.1256
67458W        W68322  22.539  15.894  24.258  0.1448 -0.0462  0.2932
67459W        W68323  27.345   3.465  21.395 -0.0581  0.0455 -0.1226
67460W        W68324   0.087  25.737   5.863  0.1047 -0.3034 -0.0775
67461W        W68325  27.309  20.788   0.564 -0.0757  0.0183  0.5048
67462W        W68326   9.404  24.050  23.619 -0.0604  0.0283  0.3144
67463W        W68327   7.920  28.266  24.761 -0.1531 -0.2181  0.1101
67464W        W68328  22.505  24.793   1.391 -0.0528  0.1071 -0.1063
67465W        W68329  26.034  23.637  11.251  0.0804  0.3324  0.0978
67466W        W68330   4.887  16.067  28.366 -0.1891  0.1607 -0.0635
67467W        W68331  18.636  14.022   0.245  0.0289  0.1222 -0.0978
67468W        W68332  26.655   7.166   4.191 -0.1289 -0.0757 -0.2279
67469W        W68333   9.595   6.319   2.483 -0.0886 -0.0271 -0.3057
67470W        W68334   7.945  19.814   3.511 -0.1380  0.0373 -0.0475
67471W        W68335   4.120  19.385   1.496 -0.0469 -0.1672 -0.0204
67472W        W68336   5.069  21.479  22.149  0.0389  0.2461  0.0129
67473W        W68337  21.951  15.141   3.823  0.0057 -0.2205 -0.3061
67474W        W68338   4.304  14.082  21.220 -0.0832 -0.2903 -0.2611
67475W        W68339   1.405  16.372  22.623  0.0951  0.3765 -0.2528
67476W        W68340  12.246   3.295  26.121 -0.0653  0.0256 -0.0196
67477W        W68341  21.296  22.144   8.627 -0.2827  0.0366 -0.0536
67478W        W68342  23.430   9.210  22.906 -0.0194 -0.0013  0.1575
67479W        W68343   9.523  18.706  13.905 -0.1290 -0.0939  0.1086
67480W        W68344   7.695   4.544   1.577  0.0527  0.4624  0.2024
67481W        W68345  18.107  16.135  28.590  0.1929  0.3058 -0.0299
67482W        W68346   7.104   9.353  10.166  0.0706  0.2102 -0.1247
67483W        W68347  22.561   1.869  17.980 -0.0367 -0.1237  0.2166
67484W        W68348  26.283  23.401   3.900 -0.2173 -0.1816 -0.3716
67485W        W68349   9.622   3.002  16.378  0.1235 -0.0480  0.1830
67486W        W68350  27.086  20.013  13.449 -0.0305 -0.1176 -0.0257
67487W        W68351  15.897   0.559   0.296  0.0268 -0.4374  0.1507
67488W        W68352   9.475  14.927  12.022 -0.0109 -0.1877 -0.1640
67489W        W68353   8.970  20.172   4.518  0.2603  0.0770 -0.3491
67490W        W68354   5.789  24.024  25.860 -0.1448 -0.0744  0.2286
67491W        W68355   2.724  19.956   3.748  0.3662  0.0750  0.3217
67492W        W68356  24.539  18.891  26.869 -0.1308 -0.3073 -0.0202
67493W        W68357  14.976   8.571   6.563  0.0348 -0.2945  0.1472
67494W        W68358   8.709  18.812  20.078 -0.1210  0.1742 -0.0523
67495W        W68359  28.932  23.636   5.711 -0.0920  0.0755 -0.1634
67496W        W68360   3.712   0.808   5.572 -0.1891 -0.0737 -0.0614
67497W        W68361  10.658  20.346   6.286 -0.2339 -0.0516 -0.0990
67498W        W68362  17.209   2.587  20.179  0.2708  0.2109  0.0577
67499W        W68363  14.172  15.900   3.538  0.1679  0.1017 -0.2202
67500W        W68364  26.642  14.991  23.906  0.0895 -0.1657 -0.0386
67501W        W68365  12.274  20.630   5.337 -0.0623 -0.0626 -0.0203
67502W        W68366  21.306  24.130  18.421 -0.1400  0.0647  0.1669
67503W        W68367   9.686  27.916   0.486 -0.0938 -0.1572  0.2141
67504W        W68368   3.182  29.129  11.776 -0.0163 -0.2143 -0.3041
67505W        W68369   2.904  23.062  26.797 -0.0203  0.1362 -0.0505
67506W        W68370  27.771  22.028   5.723 -0.1781  0.2261 -0.0383
67507W        W68371   6.913   1.487  23.311 -0.2485 -0.0600 -0.2175
67508W        W68372  11.679   9.560  11.925  0.1865  0.2392 -0.3149
67509W        W68373   7.035  15.229  27.736 -0.0984 -0.1802 -0.1934
67510W        W68374   2.663  18.944  12.812 -0.2165  0.0111 -0.1272
67511W        W68375   8.609  18.531   4.732 -0.0366  0.1121 -0.1380
67512W        W68376   0.177   5.006  28.044  0.0295  0.0677 -0.2661
67513W        W68377  26.347  12.674  22.334  0.1387 -0.0236 -0.3142
67514W        W68378  15.428  12.493   3.518 -0.1606 -0.1962 -0.1126
67515W        W68379   9.720  26.234  22.830  0.3030  0.3553  0.0730
67516W        W68380   4.221  12.829   7.409  0.1626 -0.0504  0.1260
67517W        W68381  11.792  15.560   3.450 -0.1754  0.1049  0.3137
67518W        W68382  18.313   9.692  13.180  0.0878  0.1679  0.0932
67519W        W68383   4.227   0.620   9.780  0.2963 -0.3629  0.0998
67520W        W68384  12.473  27.408  25.311 -0.0544  0.3327 -0.0178
67521W        W68385  10.707  12.843  22.133 -0.1123  0.2050  0.0096
67522W        W68386  11.645  24.736  10.619 -0.1959 -0.0882 -0.0012
67523W        W68387   7.630   1.288  28.681  0.1160 -0.1243 -0.2146
67524W        W68388   7.860  20.444  28.441  0.3458 -0.1536 -0.1704
67525W        W68389   7.322   6.374  20.364 -0.3347  0.0312  0.0395
67526W        W68390   3.906  12.473  24.302 -0.0665  0.0172  0.3057
67527W        W68391  20.453   3.094  16.028 -0.0349 -0.1316  0.1046
67528W        W68392  22.099  14.139   5.088  0.0061  0.1205 -0.1796
67529W        W68393  15.142   9.368  28.941  0.2925 -0.0937 -0.1895
67530W        W68394   7.473  19.232   8.459 -0.0955  0.1260 -0.0973
67531W        W68395   6.123  20.752  22.719  0.1265  0.0742 -0.0180
67532W        W68396   7.292  12.615  15.302 -0.1802 -0.3926  0.0722
67533W        W68397   8.163  25.389   3.582  0.0953  0.0732 -0.1238
67534W        W68398   7.800  26.739   7.037  0.0497  0.0893  0.2238
67535W        W68399   9.038  17.066   9.349  0.0845 -0.0296  0.0995
67536W        W68400  16.588  15.063   6.862 -0.0815 -0.2156 -0.0295
67537W        W68401  22.381  24.324  14.459  0.1447  0.2686  0.0610
67538W        W68402  12.083   1.906  26.518  0.1665  0.0292  0.2340
67539W        W68403  17.877  26.588   9.770  0.1762  0.1267  0.1166
67540W        W68404   0.219  27.033   8.063 -0.0544 -0.0543  0.0065
67541W        W68405   3.669  26.447  27.224 -0.4733 -0.0675  0.3862
67542W        W68406   3.933  15.328   3.543 -0.0703  0.1901 -0.0195
67543W        W68407   9.981  27.600   2.720  0.0432 -0.0782 -0.0542
67544W        W68408   8.619  22.902  27.265  0.1343 -0.3366 -0.2643
67545W        W68409   0.554  14.069   4.966 -0.0622  0.0828 -0.0470
67546W        W68410  24.560   6.924   5.194 -0.0969  0.2880 -0.0077
67547W        W68411  17.094  11.364   8.591 -0.0077 -0.0824 -0.1399
67548W        W68412  10.945  19.858  26.858  0.2280  0.3309 -0.0091
67549W        W68413  22.252  18.368  10.285  0.0154 -0.0231  0.2652
67550W        W68414   9.929  23.015  24.800  0.3010 -0.2343  0.0983
67551W        W68415   6.271   7.215  12.357 -0.0807 -0.2590  0.1949
67552W        W68416  13.526  19.601  10.217  0.2853 -0.4182 -0.0801
67553W        W68417  16.593  18.054   1.219  0.1759  0.1155 -0.0090
67554W        W68418   0.021  15.572  24.652  0.2534  0.3981  0.0716
67555W        W68419   1.882  23.185  27.461  0.4698 -0.2743 -0.2827
67556W        W68420  23.804  12.416  27.517  0.0220  0.0414 -0.2218
67557W        W68421   8.691   6.378  24.974  0.4201  0.0403  0.0745
67558W        W68422  13.110  11.906   2.803  0.1135  0.2107  0.1013
67559W        W68423  19.308  23.570   5.351  0.0634  0.3742  0.0303
67560W        W68424  15.293   8.239   2.689 -0.0307  0.0092 -0.2095
67561W        W68425   1.076   7.241  18.927  0.1354 -0.0866 -0.1903
67562W        W68426   8.488   9.965  22.638  0.0292  0.0200  0.1183
67563W        W68427  15.596   1.723   7.667 -0.1598 -0.1813  0.0088
67564W        W68428  12.113   3.117  18.782  0.3077  0.1917  0.2378
67565W        W68429  19.520   9.550   6.363 -0.1407 -0.2069 -0.0963
67566W        W68430   8.148   7.551  10.532 -0.1003  0.1047  0.1024
67567W        W68431   5.507   5.184   0.870 -0.4007 -0.3466  0.0564
67568W        W68432  28.267   0.147   8.598  0.1242 -0.3619 -0.2661
67569W        W68433  11.937   3.220  20.882  0.2018  0.0054  0.2431
67570W        W68434   0.594   6.482  26.542 -0.2725 -0.1037 -0.1588
67571W        W68435  28.770   5.145   4.826 -0.1120 -0.1726 -0.3295
67572W        W68436  26.121  10.525  21.428  0.2544 -0.1092 -0.2222
67573W        W68437  13.108  28.414  10.494 -0.2566  0.2196  0.0358
67574W        W68438   4.619   2.791   0.289 -0.1316  0.2255  0.1348
67575W        W68439   9.089  25.961  24.798  0.2493  0.1406  0.3934
67576W        W68440   8.304  11.440   3.207 -0.1583 -0.0804  0.1512
67577W        W68441   5.436   8.934  21.038  0.0595  0.0259  0.0470
67578W        W68442   8.399  23.501  23.998 -0.0151 -0.0519  0.1229
67579W        W68443   4.019  19.802  17.726  0.1812 -0.1312 -0.1629
67580W        W68444  10.272  14.438   7.214  0.0631 -0.3104  0.1046
67581W        W68445  18.051  12.565   2.912  0.1897 -0.0669 -0.1020
67582W        W68446   1.362  17.669   9.377  0.3047 -0.0698 -0.0340
67583W        W68447  12.216  17.915  21.845  0.1794 -0.4763 -0.1198
67584W        W68448   0.970   3.860   1.115  0.4058  0.2103 -0.2026
67585W        W68449  10.182  24.073  15.863 -0.1434  0.0559  0.3949
67586W        W68450   1.390  21.657  21.430 -0.0550  0.1468 -0.1310
67587W        W68451  16.300  17.453   9.920 -0.0023 -0.0905  0.2268
67588W        W68452   7.770  16.867   7.624  0.0617 -0.1609  0.1437
67589W        W68453   6.743  13.086   3.716  0.0982  0.1345  0.5103
67590W        W68454  18.879   7.618  17.611 -0.3142  0.0875 -0.2314
67591W        W68455  19.973  28.339   0.095 -0.1306  0.2082  0.0108
67592W        W68456   9.128  24.954   7.876 -0.0429  0.1339 -0.1493
67593W        W68457  20.845   3.012  17.902  0.0353  0.2949  0.3289
67594W        W68458  14.020  21.261   0.718 -0.0724  0.0851  0.0746
67595W        W68459  19.242  28.380  20.557  0.0250 -0.1852  0.2150
67596W        W68460   8.161  23.781  13.647  0.0463 -0.1278  0.1436
67597W        W68461  13.872   8.333  10.076 -0.0230 -0.1061 -0.0092
67598W        W68462  14.945  16.910  10.287 -0.1669 -0.0814  0.4053
67599W        W68463  13.315   5.731  26.617  0.2810  0.2125 -0.2622
67600W        W68464  26.609  26.066   2.942 -0.1530 -0.1999  0.4236
67601W        W68465  27.920  11.510  22.954  0.0650  0.0407 -0.3375
67602W        W68466  29.139  21.398  27.912 -0.1364  0.0443 -0.2502
67603W        W68467  14.594   5.969  21.817 -0.0139 -0.2142 -0.1008
67604W        W68468   4.694  22.634  15.522 -0.2207 -0.0731  0.1157
67605W        W68469   8.891  24.595  23.835 -0.0208  0.0917  0.1451
67606W        W68470   3.454  11.604  21.887 -0.0788  0.2001  0.0298
67607W        W68471   9.042   3.452   0.848  0.1128  0.1933  0.5804
67608W        W68472  22.507   0.299  19.382  0.1161 -0.1976  0.0746
67609W        W68473  21.313  11.913  25.746 -0.0153 -0.2052  0.2700
67610W        W68474  23.041  26.533  22.135 -0.1701  0.0478 -0.2032
67611W        W68475  13.355  16.665  28.611  0.0307  0.1108  0.1662
67612W        W68476   0.053  22.779   7.240 -0.1959  0.3130 -0.1256
67613W        W68477   5.147  25.563   1.978  0.0299 -0.2707  0.1175
67614W        W68478  24.272  18.109   6.082 -0.0230  0.3559  0.0549
67615W        W68479   6.454  15.935   3.289  0.0575  0.0293 -0.0928
67616W        W68480   1.726  18.577  24.044  0.3165 -0.0769 -0.0071
67617W        W68481   3.326   7.281  19.330  0.1102 -0.0831  0.0970
67618W        W68482   5.392  14.688   6.783  0.1981 -0.0157 -0.1804
67619W        W68483   2.037   9.170  26.497  0.1214  0.0800  0.0700
67620W        W68484  13.732   4.512  15.245 -0.3640 -0.1897  0.0848
67621W        W68485   0.048  23.149   1.029  0.0058  0.0127  0.0670
67622W        W68486  14.699   4.668   0.359  0.1345 -0.2077  0.0859
67623W        W68487  16.003   4.250   9.114 -0.0763 -0.1821  0.0656
67624W        W68488   3.879  16.871  23.130 -0.0626 -0.0281  0.1552
67625W        W68489  13.297   3.294   9.893  0.0690 -0.1303  0.1213
67626W        W68490   3.025  10.943  28.073 -0.1159  0.0977 -0.2421
67627W        W68491  15.585  26.876  18.867 -0.2047 -0.1359 -0.1780
67628W        W68492  10.047  14.463   3.726  0.0407  0.0230 -0.0432
67629W        W68493  17.310  22.451  12.526 -0.0019 -0.2057 -0.0509
67630W        W68494  22.169  26.362  22.731  0.2562 -0.1982  0.1509
67631W        W68495   7.258   7.071  17.937 -0.1047  0.3226  0.3604
67632W        W68496   7.030  23.851   4.338  0.0175 -0.0970 -0.0793
67633W        W68497  21.866  15.891  27.113  0.1934 -0.0720 -0.2684
67634W        W68498   9.606   2.147  19.442  0.1776 -0.2073 -0.0784
67635W        W68499   8.012  18.236  16.330 -0.2016  0.1585 -0.2027
67636W        W68500  23.827  16.955   4.296 -0.0083  0.0941 -0.0715
67637W        W68501  16.175  14.313  13.935  0.0131 -0.5609 -0.0068
67638W        W68502   9.478   1.319  11.722  0.0153  0.0092  0.0180
67639W        W68503  16.253  19.189   4.074 -0.0505  0.3350  0.2227
67640W        W68504   1.084  10.400  23.287  0.1538 -0.0882  0.0878
67641W        W68505   5.261  21.333  28.175  0.1521  0.0908  0.0386
67642W        W68506   7.913   3.668  19.529  0.0710 -0.1261  0.0787
67643W        W68507  27.046   9.840   0.416 -0.0694 -0.1548 -0.0953
67644W        W68508   3.874  18.778  21.814 -0.1519  0.3302  0.0647
67645W        W68509  18.478  22.221  10.271 -0.2228 -0.1966  0.2497
67646W        W68510   6.761  22.379   3.417 -0.1202 -0.1243 -0.2668
67647W        W68511  11.171   0.575  11.794 -0.1321 -0.0377  0.0622
67648W        W68512  10.009   9.959   4.229 -0.3283 -0.2238  0.1653
67649W        W68513   3.904  20.848   8.596  0.0656 -0.1935  0.2890
67650W        W68514  20.088  29.064   7.686  0.2865 -0.0193 -0.0450
67651W        W68515  17.244  20.322  15.357 -0.1588 -0.4065 -0.3114
67652W        W68516  10.998  13.338   4.006  0.0412  0.1396 -0.1417
67653W        W68517  12.391  14.489   1.943  0.0043  0.0165 -0.0799
67654W        W68518   6.953   7.830  21.236 -0.1440 -0.1034 -0.0191
67655W        W68519   6.747  16.162  26.602  0.0932  0.1488  0.3739
67656W        W68520  21.751  27.839  27.121  0.1518 -0.0732  0.0885
67657W        W68521  14.219  17.252  26.780 -0.1554  0.1596  0.1000
67658W        W68522   9.092  20.625  21.121 -0.0167  0.0357  0.2144
67659W        W68523  12.379  13.410  16.473 -0.1984 -0.2176  0.1853
67660W        W68524  12.587  12.166   9.954  0.2051  0.2712  0.0387
67661W        W68525   2.388  23.113   9.164 -0.4045  0.1374 -0.2332
67662W        W68526  23.731  16.973  27.449  0.0590 -0.3311 -0.1613
67663W        W68527   8.370  20.775   6.795 -0.2173 -0.1032 -0.1309
67664W        W68528  12.463  27.094  20.663 -0.3631 -0.0325  0.2154
67665W        W68529  11.718  24.304  10.144 -0.2753  0.2413  0.2296
67666W        W68530   5.729   0.937   3.926  0.2093  0.0723 -0.0990
67667W        W68531   1.227  24.624  12.124 -0.2131 -0.2871  0.0005
67668W        W68532  27.530   6.902  16.899 -0.0615  0.0583 -0.1018
67669W        W68533   5.939  22.406  27.585  0.1317  0.0074 -0.0219
67670W        W68534  21.174   9.807   5.764  0.0225 -0.2178  0.1306
67671W        W68535   6.938   5.468   0.803 -0.1446  0.1535 -0.1248
67672W        W68536  10.095   6.504  21.006 -0.0926 -0.0629 -0.1138
67673W        W68537  22.054  28.153   2.398  0.0507  0.1607  0.0677
67674W        W68538  27.392  21.173  26.932 -0.4815 -0.1410 -0.1291
67675W        W68539   4.524  25.105  25.107  0.0886 -0.0603  0.0381
67676W        W68540  15.695  22.884  25.380  0.0612  0.0047 -0.0335
67677W        W68541  13.465  22.261  15.519 -0.0205  0.0544  0.2137
67678W        W68542  28.140  14.314  25.474  0.0335  0.1363 -0.0987
67679W        W68543   9.682  17.122  13.471 -0.2215 -0.0735  0.1244
67680W        W68544  15.488   2.053   7.308 -0.1721 -0.1715  0.3283
67681W        W68545  13.763   9.752  26.039  0.1121 -0.1476 -0.1326
67682W        W68546  20.299  23.788  21.951 -0.3354 -0.1700 -0.1708
67683W        W68547   4.877  12.262  16.260  0.0922 -0.0977 -0.2133
67684W        W68548  20.617  28.450  10.008  0.2306 -0.0965 -0.1271
67685W        W68549   1.095   7.609  15.620 -0.1056 -0.3373 -0.0280
67686W        W68550  14.127  25.015  20.835 -0.1557 -0.2180  0.2028
67687W        W68551   1.683   6.694   6.948  0.0284  0.1434  0.0456
67688W        W68552   4.623  18.085  16.001 -0.0098 -0.0481 -0.0385
67689W        W68553  12.874  13.329  20.357 -0.2592  0.2709 -0.2349
67690W        W68554  14.165   0.999   1.792  0.1051 -0.0664  0.2495
67691W        W68555  21.845   5.168  11.816  0.4969  0.0180 -0.0037
67692W        W68556  12.015   6.692  19.013  0.1028 -0.0439 -0.0197
67693W        W68557   8.506   2.341  19.220 -0.2250  0.0981 -0.0330
67694W        W68558   3.690  20.107   3.241  0.1756 -0.2098  0.3120
67695W        W68559   8.948   7.856   4.201 -0.1958  0.1468 -0.1999
67696W        W68560  16.636  14.415  11.309  0.0574 -0.3736  0.0682
67697W        W68561  13.284  16.187  20.558 -0.1606 -0.2169 -0.1919
67698W        W68562  27.375  28.368  25.665 -0.0498 -0.0759  0.2035
67699W        W68563  28.778  17.244  10.768  0.1704 -0.0857 -0.0588
67700W        W68564   9.770  12.144   0.697 -0.1625  0.0816  0.1655
67701W        W68565  21.623  12.240   1.954 -0.1068 -0.0389 -0.2592
67702W        W68566   6.278   0.161  20.162  0.0972  0.0172 -0.0001
67703W        W68567  14.986   9.761  24.830  0.1873 -0.3652 -0.3704
67704W        W68568  12.438  13.109  21.046  0.1973 -0.1574  0.0916
67705W        W68569  14.583  13.046   2.834  0.1367 -0.0326 -0.0016
67706W        W68570  21.428  10.414  22.171  0.0390  0.4243  0.0386
67707W        W68571  10.520  26.938   6.302 -0.0448  0.2718 -0.1867
67708W        W68572  17.588  25.275  22.899  0.0876  0.2779  0.1207
67709W        W68573  29.003   2.441  21.295  0.1476 -0.0373 -0.1702
67710W        W68574  14.452  18.406  14.282  0.3114  0.1775 -0.1910
67711W        W68575  24.261   8.165   0.071  0.1097  0.3715 -0.2375
67712W        W68576   3.250  23.773  16.746  0.2325 -0.2787  0.1644
67713W        W68577   4.407   6.811  10.311 -0.1912  0.1541 -0.0609
67714W        W68578  14.755  21.005  21.926  0.1324 -0.0711  0.1289
67715W        W68579  11.137  27.186   2.801 -0.0921  0.0008 -0.2899
67716W        W68580  14.436  15.267  27.242 -0.0216  0.1289 -0.1223
67717W        W68581  18.037  15.740  12.348 -0.0731 -0.1644 -0.0879
67718W        W68582  25.323  16.845  24.571  0.2522  0.2008  0.3394
67719W        W68583   5.776  22.593  17.557 -0.2669 -0.0225 -0.0162
67720W        W68584   6.534  27.237  20.318 -0.0900 -0.3017  0.3581
67721W        W68585  25.273  24.423   7.293 -0.2255 -0.2554 -0.0015
67722W        W68586  28.305  25.023   1.000 -0.1540 -0.1410  0.2596
67723W        W68587  18.303  25.003   2.026  0.1287 -0.0143 -0.0842
67724W        W68588   9.913   3.934  15.248 -0.2018  0.1951  0.0397
67725W        W68589  14.303   7.835  27.890  0.2490  0.2797  0.0351
67726W        W68590   3.841  25.339   9.706  0.0206  0.5873 -0.0697
67727W        W68591   6.950  28.560   3.910 -0.1029  0.1941 -0.0403
67728W        W68592  21.852  24.159  25.956 -0.2256 -0.0680  0.1713
67729W        W68593   8.368  10.778   0.346 -0.0761 -0.2092 -0.0018
67730W        W68594  15.577  24.113  16.557 -0.0106 -0.0117 -0.0109
67731W        W68595   2.224  21.057   4.400  0.0107 -0.0070 -0.1482
67732W        W68596   8.703  16.920  19.300 -0.0528  0.3756  0.2315
67733W        W68597  28.500  20.019   5.267  0.0489 -0.0008  0.2612
67734W        W68598  23.322  10.698   2.834 -0.1240  0.0621  0.3280
67735W        W68599  20.391   3.222  28.245 -0.3069  0.0244  0.2785
67736W        W68600   6.802   9.496   3.521 -0.1184 -0.1954 -0.1104
67737W        W68601  26.098  10.817  19.169 -0.0688  0.0144  0.1809
67738W        W68602  18.545  23.798  13.894 -0.0905 -0.3557  0.0789
67739W        W68603  12.163   2.589   0.237 -0.0746  0.0407  0.0566
67740W        W68604   6.685  23.516  28.698 -0.0568 -0.0313 -0.0958
67741W        W68605   6.829  10.498  29.127  0.3200 -0.0266 -0.0424
67742W        W68606  11.066   1.644  15.215  0.2999 -0.1831  0.0092
67743W        W68607   2.808  10.222   7.878  0.0774  0.1111 -0.2145
67744W        W68608   7.678  28.990   3.328 -0.5314 -0.1254  0.0073
67745W        W68609  24.810   4.400  19.279 -0.0020  0.3337  0.0923
67746W        W68610  13.950   1.946   6.434  0.3738 -0.2301 -0.0632
67747W        W68611  17.155  11.375   3.687 -0.3762 -0.0309 -0.2283
67748W        W68612   3.447   1.789   6.190  0.0630 -0.1084 -0.0890
67749W        W68613  16.864   9.774  18.510 -0.1255 -0.0876  0.1479
67750W        W68614  12.513  12.541   9.124 -0.0663 -0.1298  0.2419
67751W        W68615  28.937  21.944   3.787  0.0049  0.2688  0.1423
67752W        W68616  11.401  21.178  24.778  0.1513  0.0007  0.0695
67753W        W68617   3.725   7.608  27.914 -0.2728 -0.0326 -0.0317
67754W        W68618  11.324  27.485   9.311 -0.0586  0.0115  0.0502
67755W        W68619  19.007  26.536  24.335 -0.2954 -0.0202  0.2803
67756W        W68620   7.376   7.580  26.463 -0.0666 -0.1795  0.0324
67757W        W68621  13.739   2.960  24.673 -0.1820 -0.0276 -0.1725
67758W        W68622   5.456  19.707   6.900 -0.0330 -0.0030  0.2480
67759W        W68623  10.547  10.996  23.209 -0.3418 -0.1389  0.3228
67760W        W68624  22.673  24.704   4.746  0.0714  0.1012 -0.2188
67761W        W68625   6.588  16.208   7.297 -0.0642 -0.1319 -0.1247
67762W        W68626   2.227   6.740  12.002 -0.2358  0.0097  0.3600
67763W        W68627  17.090  28.070  26.131 -0.0884  0.1277  0.1785
67764W        W68628   3.268  13.463  25.076 -0.1891 -0.0471 -0.0568
67765W        W68629  12.882  17.457  22.718 -0.4744  0.0709 -0.1814
67766W        W68630  21.909  25.410  16.234 -0.0561 -0.3046  0.1302
67767W        W68631  16.023  24.057  13.959 -0.1590  0.1352  0.0712
67768W        W68632  20.740  20.147  13.914 -0.0099 -0.1647  0.1875
67769W        W68633   5.250  24.626   3.326 -0.0897  0.2368  0.0812
67770W        W68634  22.698  14.183  27.339  0.1254 -0.1189 -0.0564
67771W        W68635  21.332   4.659  10.139  0.0107 -0.1593  0.1525
67772W        W68636   6.240   1.647  28.827 -0.1481 -0.0420  0.0874
67773W        W68637   3.884  14.059   9.634 -0.0844 -0.0963  0.1295
67774W        W68638  19.485  11.289  11.509 -0.1009  0.2062 -0.0570
67775W        W68639  24.633   9.885   2.703  0.0482  0.0571 -0.3180
67776W        W68640  16.094   5.042  27.568 -0.1479 -0.0515  0.1246
67777W        W68641   4.487  12.593  18.104 -0.0815  0.0735  0.0034
67778W        W68642   2.356  11.737   7.940  0.0232  0.2563  0.0372
67779W        W68643  12.520  15.699   8.396 -0.1644  0.0250 -0.0817
67780W        W68644  28.158   9.090  26.787  0.0439  0.0800  0.0617
67781W        W68645  10.335  23.179  24.339 -0.0958 -0.1772  0.2205
67782W        W68646  10.224   7.717  24.770 -0.3930 -0.0207  0.0007
67783W        W68647  12.634  25.101   7.263 -0.0089  0.1841 -0.1450
67784W        W68648   8.143   7.211   0.536  0.0651  0.1622  0.0190
67785W        W68649  15.691  22.555  16.389  0.1213 -0.2355  0.0402
67786W        W68650   6.128  22.912  27.850 -0.3535 -0.0810 -0.0954
67787W        W68651  10.778  27.261  23.045 -0.4106  0.1814 -0.0361
67788W        W68652  13.772  14.547   5.021 -0.0736  0.1312  0.0393
67789W        W68653   6.278  10.240   6.924  0.0196 -0.0324  0.1770
67790W        W68654   3.911  16.080  10.045  0.1818 -0.1637  0.2242
67791W        W68655  11.533   2.609  22.701 -0.2474  0.1900  0.2495
67792W        W68656  12.714   9.542   0.330  0.0564 -0.1179 -0.1902
67793W        W68657   5.431  10.792   3.619 -0.0773 -0.1204  0.1260
67794W        W68658  21.428  17.662   3.495  0.0657 -0.0499  0.0150
67795W        W68659  12.485   2.651   2.002  0.0174  0.1231  0.0098
67796W        W68660  28.425   7.557   4.538 -0.1476  0.1893  0.0019
67797W        W68661   8.042  14.770   8.303 -0.1632 -0.0362 -0.0780
67798W        W68662  23.529  28.456   8.306 -0.1049  0.2970 -0.0762
67799W        W68663   9.242  19.179  10.100  0.2491 -0.3120 -0.0666
67800W        W68664  16.935  22.833  15.071 -0.0988 -0.1849 -0.0291
67801W        W68665   5.499  11.868  27.284  0.1716 -0.3862 -0.0694
67802W        W68666  15.761  10.520  20.184  0.0809  0.1656 -0.2914
67803W        W68667   2.565  16.270  26.582 -0.1640 -0.1945 -0.2808
67804W        W68668  14.211   8.016  10.930 -0.1634  0.1058 -0.0058
67805W        W68669   1.882  24.588   7.220  0.1909  0.0451  0.0486
67806W        W68670   2.345   8.201   8.351  0.1618 -0.2331 -0.3175
67807W        W68671   1.752  19.284  21.502 -0.1812 -0.0699  0.1711
67808W        W68672   4.811   5.745  18.244  0.6779 -0.0707 -0.2694
67809W        W68673   2.908  11.447  27.257 -0.0204  0.1124  0.0866
67810W        W68674  24.295  18.494  24.137 -0.0257  0.1080 -0.4223
67811W        W68675   7.659  24.135   7.104 -0.0906 -0.1247  0.0759
67812W        W68676   4.279  13.692  15.760 -0.0954  0.0053  0.0105
67813W        W68677  16.846   6.945   9.922 -0.1634  0.0129  0.0681
67814W        W68678   8.029  28.002  18.581 -0.0036  0.0580 -0.4259
67815W        W68679  25.281  26.426  16.093 -0.1139  0.3864 -0.1394
67816W        W68680  22.519   4.711  10.604  0.1956 -0.3680  0.0828
67817W        W68681   8.968   0.690   1.794  0.1591  0.2931 -0.1006
67818W        W68682  11.855  17.444  25.590  0.1445 -0.1920 -0.0298
67819W        W68683  20.488  20.232   7.619  0.2285  0.3275 -0.3534
67820W        W68684   2.178   4.735   5.891 -0.1622  0.1162  0.1299
67821W        W68685   3.729   3.099  23.103 -0.1316  0.0208  0.0682
67822W        W68686  15.502   7.243  26.882  0.0699 -0.3638  0.3313
67823W        W68687   5.938  17.680  20.088  0.4838  0.0751 -0.3714
67824W        W68688  25.728  15.270  26.565  0.0283 -0.1429  0.1222
67825W        W68689  14.860  10.498  18.469  0.1817 -0.2894  0.0613
67826W        W68690  27.896   3.683  14.004  0.0858 -0.1435  0.5161
67827W        W68691   6.593  15.149   6.275 -0.1725  0.2134  0.0388
67828W        W68692  18.729  19.517  13.511  0.1082 -0.0014  0.1495
67829W        W68693  11.869  18.374   3.121 -0.0055 -0.0468  0.1200
67830W        W68694   5.551  20.947  18.762  0.2195 -0.2472 -0.2462
67831W        W68695  13.928  12.857   2.399 -0.0041  0.0993  0.0852
67832W        W68696  23.886  26.537   0.285 -0.2856 -0.0425 -0.3588
67833W        W68697  12.472  12.959   8.409 -0.0640 -0.2827  0.0296
67834W        W68698  11.401   8.609  11.628 -0.0421 -0.1713 -0.1115
67835W        W68699  18.590  10.950  16.225 -0.0622  0.0827  0.1409
67836W        W68700  13.713  16.884   2.725 -0.0859  0.1812  0.1514
67837W        W68701  13.098  12.790   7.827 -0.0809 -0.0050  0.0758
67838W        W68702  19.324   7.742  19.811 -0.2835  0.2333  0.1147
67839W        W68703  12.520  13.363  25.774  0.1692 -0.1055  0.0878
67840W        W68704   7.340  18.105  10.639  0.2025  0.2566  0.1181
67841W        W68705  13.468  27.711   5.247 -0.1058 -0.0153  0.1975
67842W        W68706  13.460  12.456   6.919  0.0958 -0.1939 -0.2709
67843W        W68707   3.603   1.724   4.398 -0.1714  0.1513 -0.1970
67844W        W68708   7.853  22.273  26.436  0.2177 -0.0367 -0.1766
67845W        W68709  14.465   0.521  24.326  0.1884  0.0075  0.1491
67846W        W68710  27.265   8.608   7.416  0.4536  0.0749 -0.1313
67847W        W68711  17.915  11.827   3.788 -0.1315  0.0175  0.0924
67848W        W68712  24.349  20.187  16.002 -0.0335 -0.1329 -0.1345
67849W        W68713   6.626  19.256  14.012 -0.2925 -0.0437 -0.0249
67850W        W68714  12.981  19.502   5.353  0.1396  0.1871  0.0844
67851W        W68715   1.954  21.770  21.113  0.2444  0.1152 -0.0429
67852W        W68716  11.323  25.032   6.004  0.0577 -0.0427  0.2214
67853W        W68717  12.712  13.303  24.255 -0.1290 -0.0625  0.3495
67854W        W68718  11.831  23.041  12.011  0.1452 -0.0664  0.0636
67855W        W68719   4.302  20.730  19.518  0.1763 -0.1404 -0.0104
67856W        W68720  21.649  22.691  24.451 -0.1796 -0.1123 -0.0315
67857W        W68721  22.171  19.462   4.619  0.0896  0.0583  0.3855
67858W        W68722  20.338  22.093   9.479 -0.1658 -0.1125  0.0201
67859W        W68723   8.283  18.867  27.529  0.3404 -0.0055  0.0185
67860W        W68724   2.816  22.593   1.761 -0.2038  0.1151  0.1584
67861W        W68725   5.743  24.492   5.836 -0.0969  0.0073  0.1289
67862W        W68726   7.636   2.343  12.470  0.0467  0.1375  0.0761
67863W        W68727   4.596   6.364  23.122 -0.0433 -0.0521  0.0458
67864W        W68728   7.724   5.343  17.623  0.0074 -0.0831 -0.1311
67865W        W68729  10.560  22.722  24.412  0.2900  0.2587  0.2275
67866W        W68730  12.701  18.921  29.115  0.0677 -0.1059  0.0238
67867W        W68731   8.362   9.496  25.093  0.3227 -0.0962 -0.1196
67868W        W68732  26.015   7.890   8.150 -0.0952  0.0880  0.1741
67869W        W68733  11.129   1.911   2.708  0.0919  0.0041 -0.0466
67870W        W68734   8.536  15.556   3.530 -0.0378  0.0963 -0.0005
67871W        W68735  10.716  25.038   3.228 -0.3179 -0.0816  0.0763
67872W        W68736  28.026  22.678   2.674 -0.0009  0.1583 -0.3596
67873W        W68737  27.091   4.324   2.173 -0.0448 -0.0087  0.1034
67874W        W68738  20.258   7.151  26.672 -0.0684  0.2323 -0.2225
67875W        W68739   9.948  15.952   6.379  0.1535 -0.1586 -0.0361
67876W        W68740   3.476  26.828  25.536 -0.1094 -0.1562  0.0112
67877W        W68741  19.257  15.674   3.680 -0.0408 -0.2687 -0.2167
67878W        W68742  15.807  27.290   4.033  0.1754  0.0815 -0.1226
67879W        W68743   1.861   5.397  26.620 -0.1840 -0.1412  0.0192
67880W        W68744  13.608  21.321   6.702 -0.2654  0.1742  0.0702
67881W        W68745   2.695  16.874  17.891  0.1409  0.2704 -0.2083
67882W        W68746  22.820  18.440   4.993  0.1336 -0.0953 -0.1975
67883W        W68747   5.748  27.134   5.838 -0.1450 -0.1039 -0.0590
67884W        W68748   0.865  24.349   4.976  0.1214  0.0158  0.1895
67885W        W68749  27.414   7.858  19.799  0.1245 -0.1737  0.1520
67886W        W68750  16.357  23.018   6.467  0.0087  0.0293 -0.0922
67887W        W68751  22.061  13.837  28.111  0.0387 -0.2279 -0.0630
67888W        W68752   5.795  25.842  24.486  0.0660  0.1069  0.0973
67889W        W68753  11.421  15.043  21.003  0.2775 -0.0614 -0.1811
67890W        W68754  19.444  17.181  26.235  0.3703  0.1477  0.2629
67891W        W68755   3.219   1.913  28.303 -0.0459 -0.2339  0.1398
67892W        W68756  14.998  27.867   5.982  0.0784 -0.4076  0.1374
67893W        W68757  18.802  11.421   3.868 -0.4514 -0.0817 -0.0627
67894W        W68758  12.637  25.507   5.929  0.1109 -0.3070 -0.0881
67895W        W68759   8.658  23.551  22.798  0.0189 -0.1687 -0.1417
67896W        W68760  18.088  17.673  28.814 -0.0269 -0.0473  0.7216
67897W        W68761  12.178  25.220  11.519 -0.2211  0.0042 -0.1737
67898W        W68762  15.166  27.190   5.512  0.2499  0.1435 -0.1977
67899W        W68763  21.177  12.810  15.319  0.0085 -0.1846  0.0033
67900W        W68764  25.020  19.675  27.113 -0.0016  0.2522  0.2112
67901W        W68765  27.440  12.086  12.168 -0.1334  0.1517  0.0076
67902W        W68766   3.548   9.149   9.764 -0.2161  0.2520  0.2232
67903W        W68767   8.435  25.602   4.077  0.1528  0.2578  0.2055
67904W        W68768  28.359  28.769  10.991 -0.2137 -0.0551 -0.3754
67905W        W68769   3.878  24.848  14.639 -0.1908  0.0009  0.4286
67906W        W68770  10.530  18.753   2.289  0.5021  0.0896 -0.0516
67907W        W68771   8.914  20.198   1.348 -0.2549 -0.0878  0.0834
67908W        W68772  26.788  14.859  24.321 -0.2152  0.1706 -0.0563
67909W        W68773  13.332   6.378  28.003  0.1109  0.0289  0.0269
67910W        W68774  24.235  11.646  27.086 -0.2185 -0.0788 -0.0194
67911W        W68775   0.929  21.112   3.955  0.1164  0.1264 -0.1684
67912W        W68776   6.104  27.938  28.843  0.3498 -0.0438  0.1673
67913W        W68777   5.986   3.696  19.833 -0.0213  0.1638  0.0158
67914W        W68778   5.219  23.297   8.851 -0.0288  0.1980  0.4611
67915W        W68779  23.913  25.191  11.716  0.1498  0.2397  0.0703
67916W        W68780  17.233   6.096  25.621 -0.2284 -0.1388  0.0657
67917W        W68781  16.096  24.428  13.507 -0.2861 -0.0282  0.0112
67918W        W68782  15.274  11.181   6.810  0.1399  0.0535  0.0497
67919W        W68783   9.196  17.127   0.986  0.2308 -0.1612 -0.3443
67920W        W68784  17.115   9.320   5.212  0.5157 -0.0631  0.2030
67921W        W68785  14.541   5.649   0.862 -0.1493 -0.1220 -0.4609
67922W        W68786   4.866   1.741   5.212  0.3375  0.3402  0.0239
67923W        W68787   6.294   2.907  21.647 -0.0195  0.0430 -0.1910
67924W        W68788  24.145  27.357  27.126 -0.0188  0.2884 -0.2658
67925W        W68789   6.605  24.914  11.357  0.0770 -0.0076 -0.4330
67926W        W68790  23.144  28.598  19.587  0.0745 -0.3006 -0.1074
67927W        W68791  11.921  13.024   3.467  0.2049 -0.2380 -0.1249
67928W        W68792  21.628  18.786  26.883 -0.0828  0.0940  0.2328
67929W        W68793   5.339  28.145  13.564 -0.1643 -0.0034  0.0316
67930W        W68794   1.554  22.791   4.839 -0.0174 -0.1989  0.1255
67931W        W68795  11.579  10.052   4.714  0.4337  0.1215 -0.0030
67932W        W68796  11.288  16.438   7.988 -0.0756 -0.2303 -0.5600
67933W        W68797  10.616   1.494  25.572  0.2052  0.1073  0.0303
67934W        W68798  17.750  18.109   9.882  0.0303 -0.3640 -0.1600
67935W        W68799  11.906   1.643   3.585  0.2699  0.1529 -0.0859
67936W        W68800  14.370   0.054  13.204  0.2522 -0.2669  0.0838
67937W        W68801  27.902  15.349  24.967  0.0708 -0.0502  0.1742
67938W        W68802   2.625   0.719  20.100  0.0125  0.3154  0.1197
67939W        W68803  14.828   0.004  14.976 -0.3841 -0.3080 -0.1034
67940W        W68804  14.264   6.469  16.638 -0.1326  0.0011 -0.2592
67941W        W68805  28.497  10.990   3.924 -0.0348 -0.0985 -0.2985
67942W        W68806   5.884  28.123  13.282  0.1876 -0.1366 -0.1400
67943W        W68807  16.622  25.018  14.694 -0.1640 -0.3006  0.2982
67944W        W68808   2.291  21.064  11.915  0.1062  0.0917 -0.0032
67945W        W68809  10.977   6.895  10.175 -0.0121 -0.3216  0.2501
67946W        W68810   3.501  18.264   9.120  0.0549 -0.1095  0.2860
67947W        W68811  13.063  12.404  18.678  0.3835  0.0413 -0.1953
67948W        W68812   8.800  15.893  23.590 -0.0480 -0.0567  0.1296
67949W        W68813   2.774   7.879  11.318  0.1002  0.0642  0.2233
67950W        W68814   4.980   1.107  13.403  0.0007  0.2818 -0.0823
67951W        W68815   6.391  23.722  13.150  0.2500 -0.0605  0.0290
67952W        W68816   1.507   2.419  15.275 -0.0156  0.1255  0.0259
67953W        W68817   3.013  18.310   4.061 -0.0424  0.1524 -0.0901
67954W        W68818   3.533  23.790   0.718 -0.2899  0.2530 -0.1088
67955W        W68819  22.996  28.872  16.119  0.0462 -0.3106  0.1784
67956W        W68820  21.695  18.980   0.958  0.0636 -0.2106 -0.0553
67957W        W68821  13.380  24.444  13.967 -0.0243 -0.0753 -0.0220
67958W        W68822  20.076  27.750   6.549 -0.1155  0.1141 -0.0221
67959W        W68823  24.943  23.150   6.402  0.0649 -0.2051 -0.0018
67960W        W68824  24.772  22.666  18.531 -0.2338  0.0869 -0.1634
67961W        W68825  20.871  22.336   3.111 -0.3417  0.0718  0.1630
67962W        W68826  13.308  12.957  28.862  0.2406  0.1786 -0.2363
67963W        W68827  25.314  18.675  23.183  0.0132  0.0921 -0.1389
67964W        W68828  23.160   5.608  16.294 -0.0669 -0.0809  0.1075
67965W        W68829   8.962   2.543   6.165  0.1447  0.1527  0.0577
67966W        W68830  25.477   9.046  13.104  0.0511  0.1921 -0.1867
67967W        W68831  19.152   3.446   5.925 -0.3497  0.2018  0.0806
67968W        W68832  28.347  19.971  20.488 -0.4411 -0.0503  0.1816
67969W        W68833   4.788  14.918   9.293 -0.0956 -0.2118  0.1868
67970W        W68834  11.495  15.701   3.887 -0.0855 -0.0222 -0.1186
67971W        W68835   5.442  24.209  27.295  0.1522  0.1016 -0.0465
67972W        W68836  21.273  28.112  12.133  0.1757 -0.0702 -0.2938
67973W        W68837   9.967  15.055   8.682  0.0261 -0.1455 -0.1705
67974W        W68838  21.840   7.062  17.737 -0.1647 -0.1782  0.1720
67975W        W68839  12.822  18.796  26.411  0.1800  0.0944  0.0038
67976W        W68840   3.332   3.203  20.498 -0.1433  0.1419  0.0148
67977W        W68841   8.639   6.333  13.649 -0.0162 -0.1896  0.0438
67978W        W68842   1.338  18.271  25.910 -0.1275  0.1400  0.0340
67979W        W68843  26.160   9.013  19.756  0.0234  0.1519 -0.2024
67980W        W68844  24.521   8.185   8.691 -0.1799  0.3353  0.0974
67981W        W68845   5.008  23.154   7.137 -0.0719 -0.3690  0.3614
67982W        W68846  27.446  18.952   9.963  0.1549 -0.1475  0.1837
67983W        W68847   9.095  26.128  18.106 -0.2871  0.1415  0.3234
67984W        W68848   1.899  19.896  20.677 -0.1342 -0.4605  0.1157
67985W        W68849  14.951  19.513  10.925  0.0456 -0.0726  0.1249
67986W        W68850  21.089  14.880  28.759  0.0006  0.3777 -0.2319
67987W        W68851  25.408  12.402   3.893  0.2593  0.1200  0.3189
67988W        W68852   8.832   9.152  21.626  0.3710 -0.1065  0.1029
67989W        W68853   3.282  13.351   5.077 -0.0167 -0.1266  0.4580
67990W        W68854  25.653  23.639   4.472  0.1100 -0.2155 -0.0196
67991W        W68855   7.907  19.520  17.741 -0.1057 -0.1617 -0.0941
67992W        W68856  21.646  10.040   1.102 -0.2935 -0.2535 -0.2024
67993W        W68857  15.433   8.889  12.729 -0.0689  0.0840  0.3015
67994W        W68858   1.253   7.418   1.026 -0.1652 -0.0295  0.1006
67995W        W68859  22.057  16.002  28.055  0.0002 -0.2639 -0.1277
67996W        W68860   3.404   6.374   3.845 -0.0272  0.1394 -0.3894
67997W        W68861   1.205  16.736   5.209  0.1832 -0.0566 -0.0902
67998W        W68862  19.181  24.105   6.550  0.4005 -0.0920 -0.1501
67999W        W68863   1.159   9.279  16.524  0.1491 -0.0174 -0.1414
68000W        W68864   1.373  16.953  10.131  0.1257 -0.2222  0.0054
68001W        W68865  28.668  18.276   4.905  0.0709 -0.2007  0.3382
68002W        W68866   6.478  19.736  28.307  0.0150 -0.0142  0.1114
68003W        W68867   4.175  15.194  12.660 -0.0424 -0.0680 -0.1397
68004W        W68868  14.964  26.840  16.668 -0.1082 -0.4008 -0.0248
68005W        W68869  27.621  18.160  14.641 -0.0799  0.2713 -0.0181
68006W        W68870   2.327  19.665   8.655 -0.1442 -0.1355 -0.2302
68007W        W68871  13.597  13.632   2.185  0.1641 -0.1429  0.1572
68008W        W68872   4.780  11.482   5.020 -0.1842  0.0159  0.0720
68009W        W68873  28.615  11.993  23.796  0.1261  0.0185 -0.1769
68010W        W68874  11.164  24.975  10.662  0.0793 -0.0629  0.3585
68011W        W68875   1.072  22.348  26.750 -0.4925 -0.0234  0.1435
68012W        W68876   0.561  15.674   4.073  0.2269 -0.3260  0.0218
68013W        W68877  20.755  27.767   5.478  0.0222 -0.0624  0.2219
68014W        W68878  17.052   7.060   5.271  0.1067 -0.1849  0.0229
68015W        W68879  24.570   1.557  16.883 -0.3098  0.3313  0.4329
68016W        W68880   5.233  19.758  13.841  0.1243  0.0405  0.0358
68017W        W68881   4.472   1.517   6.977 -0.0945 -0.1040 -0.3665
68018W        W68882  27.590  15.890  16.358  0.2738 -0.0470  0.3245
68019W        W68883  23.430  17.782  11.511 -0.0005 -0.1147 -0.2413
68020W        W68884  26.450  13.442   0.725  0.1358  0.1800 -0.1063
68021W        W68885   1.176  17.753  10.541 -0.0395  0.0087  0.5229
68022W        W68886   3.264  11.621   5.580  0.2235  0.3612  0.0401
68023W        W68887  20.688  23.044   8.112 -0.2027 -0.1773  0.0187
68024W        W68888   7.906   2.389  17.184 -0.2294  0.2203 -0.3049
68025W        W68889  18.593  19.223   6.280 -0.2057  0.1074 -0.0182
68026W        W68890  15.646  24.952   7.319 -0.2189  0.0798 -0.2718
68027W        W68891  16.189  25.740   8.468 -0.3994  0.2273  0.1092
68028W        W68892  13.173  27.169  26.299  0.0012  0.1122 -0.1501
68029W        W68893  19.233  13.814  12.963  0.2647  0.2796  0.1642
68030W        W68894  15.510   3.833   2.084 -0.0113 -0.1402 -0.2739
68031W        W68895   0.890   6.132   8.173 -0.1513 -0.3572  0.3983
68032W        W68896   6.632  19.748  24.723  0.2418 -0.0149  0.3403
68033W        W68897  26.244  12.135   9.915 -0.1898 -0.0841  0.0047
68034W        W68898  14.446  22.726  20.256 -0.0632  0.1546  0.0036
68035W        W68899  11.054  20.341  20.386 -0.1208  0.2732 -0.1912
68036W        W68900  24.859   9.482  11.643 -0.0020  0.0221  0.3403
68037W        W68901   9.431  15.006  24.126  0.1995  0.0910  0.0724
68038W        W68902   8.239  21.588  18.266 -0.2350 -0.1272 -0.2061
68039W        W68903  17.731   0.565  12.658 -0.1943 -0.3855 -0.0067
68040W        W68904   9.790  14.723  27.168  0.2239  0.0362  0.3362
68041W        W68905  13.761  24.415  27.993  0.2085 -0.2649 -0.1439
68042W        W68906   5.365  14.540   4.238 -0.3169 -0.0005  0.1491
68043W        W68907  13.150  13.053   1.423 -0.1808 -0.0902 -0.0519
68044W        W68908   7.343  14.254  15.278  0.1229 -0.0533  0.2778
68045W        W68909   5.706  10.240  24.487 -0.1302  0.0229  0.0950
68046W        W68910   7.353   0.864   7.181 -0.1135  0.0960 -0.3204
68047W        W68911  14.602  16.980  24.345 -0.1851  0.1623 -0.0141
68048W        W68912  12.189   8.062  28.051 -0.0198  0.2373 -0.2390
68049W        W68913   7.936  22.206   1.064 -0.0327  0.1429 -0.2657
68050W        W68914  16.050   1.576  25.624  0.0011  0.1643 -0.0472
68051W        W68915   3.935  27.879  19.930  0.1949 -0.2064 -0.1492
68052W        W68916  14.012   9.543  16.581 -0.0429 -0.0009 -0.3059
68053W        W68917  23.293  15.164   0.937 -0.0422  0.0128  0.1172
68054W        W68918  12.675  22.417  13.738  0.2127  0.0647 -0.0640
68055W        W68919  25.193  11.452  18.113  0.2707  0.1188 -0.0849
68056W        W68920   7.336  28.090  14.016  0.1245 -0.0598  0.1791
68057W        W68921  19.149  18.712  26.578  0.3593  0.0047  0.1195
68058W        W68922   5.077  13.351  27.751 -0.2674  0.3266 -0.0857
68059W        W68923  16.467  21.042   8.310 -0.2898  0.1729  0.3071
68060W        W68924  15.166  21.377   1.291 -0.0977  0.0222  0.0663
68061W        W68925   3.148  27.579   1.671 -0.0058 -0.0172 -0.0358
68062W        W68926  13.727  16.561  22.047 -0.1898 -0.3141 -0.1471
68063W        W68927   5.509   1.203  27.434  0.1672 -0.0351 -0.0377
68064W        W68928  10.232   0.467  15.056 -0.3395  0.0898 -0.0850
68065W        W68929   7.002  25.012   6.247  0.0698 -0.0727 -0.1156
68066W        W68930  26.230  22.116  12.411 -0.1337  0.2460  0.0324
68067W        W68931   4.880  10.566   3.089  0.0364  0.0488 -0.1768
68068W        W68932   7.722  19.522   2.304  0.1666 -0.0727  0.3017
68069W        W68933  13.118  21.766  13.748  0.1855  0.1040 -0.0534
68070W        W68934   5.140  11.946   4.324 -0.2690  0.0951 -0.1156
68071W        W68935  28.420  23.678  25.460 -0.0930  0.0265  0.2967
68072W        W68936   4.671   4.967  18.815 -0.3055 -0.0699 -0.1438
68073W        W68937   5.560   5.373  21.465 -0.1208  0.0936  0.1669
68074W        W68938  10.410  27.536   6.647 -0.2945  0.1342  0.2184
68075W        W68939  12.316  15.587  19.147 -0.0285  0.1247 -0.0936
68076W        W68940   9.053  27.488  25.647  0.0190  0.2136  0.1551
68077W        W68941  15.387   1.694   8.758  0.1922 -0.1545 -0.1886
68078W        W68942  24.621   6.853  14.336  0.1378  0.1765  0.1724
68079W        W68943   5.909  12.962  28.464 -0.2519 -0.1456  0.1042
68080W        W68944  14.509  15.952  21.301 -0.0970 -0.3710 -0.0802
68081W        W68945   9.533  15.015   9.504  0.3883  0.1551 -0.0514
68082W        W68946   8.390  17.266  26.528 -0.0934 -0.0584 -0.1293
68083W        W68947  16.894  19.572   6.589  0.1705 -0.0020  0.2519
68084W        W68948   5.230  24.705   9.993  0.1942  0.1208  0.2788
68085W        W68949  15.417  28.224  13.515  0.1857  0.0986 -0.0363
68086W        W68950  11.409   4.123   2.190 -0.2588  0.2156 -0.2367
68087W        W68951  17.835  17.222  17.272  0.0185  0.2038  0.3037
68088W        W68952   9.219  11.130  24.865  0.0936 -0.0502  0.0656
68089W        W68953   0.891  12.968  24.692  0.0891 -0.1974  0.0495
68090W        W68954  10.708   1.955   6.161 -0.0937  0.1896 -0.3125
68091W        W68955  23.741  24.357   0.097  0.0830  0.0214 -0.1436
68092W        W68956   4.352  27.998  11.498 -0.1143 -0.0383  0.0746
68093W        W68957   3.080   0.734  10.440  0.2296 -0.0852 -0.2905
68094W        W68958   1.838   7.757   9.963  0.1637 -0.0876 -0.0550
68095W        W68959  13.162   0.652  11.982 -0.1228  0.3123 -0.3880
68096W        W68960  21.348  19.007  26.468  0.1763  0.1460 -0.1192
68097W        W68961  10.140  22.906  15.071 -0.0868 -0.0244 -0.0032
68098W        W68962   1.765  14.726  18.636 -0.3435 -0.0217  0.3040
68099W        W68963  10.483   5.323  18.753  0.1343 -0.0915 -0.0320
68100W        W68964   4.149   1.890  15.027 -0.0098  0.0401 -0.1216
68101W        W68965   5.997  22.813  21.797  0.3679 -0.0972  0.1015
68102W        W68966   3.798  19.610  14.472 -0.0279  0.1663  0.0886
68103W        W68967  15.197  20.560   7.588 -0.0065 -0.0288 -0.1265
68104W        W68968   4.189  28.783  13.799  0.2106 -0.2065  0.0636
68105W        W68969  12.429   4.260  12.296 -0.1448 -0.1656 -0.0395
68106W        W68970   6.235  24.416  17.650 -0.0683 -0.0233  0.2744
68107W        W68971  18.670  20.109  19.121 -0.1010 -0.0365  0.0530
68108W        W68972  19.283  15.922  19.518 -0.0658  0.2678  0.1957
68109W        W68973   8.031  10.344  24.294  0.0884 -0.1423  0.0616
68110W        W68974  29.067  16.937  20.940  0.1431 -0.0453 -0.1410
68111W        W68975   1.645  28.031   7.553 -0.2164  0.0894  0.1984
68112W        W68976  11.191  20.526  19.422 -0.0918 -0.2239 -0.0396
68113W        W68977   9.603   4.053   1.488 -0.0151 -0.0261  0.1852
68114W        W68978   2.561   8.520   6.472  0.0304 -0.0322  0.1262
68115W        W68979   2.596  25.996  15.206  0.1859  0.1782 -0.0670
68116W        W68980  20.131  29.030  19.178  0.2745  0.1127  0.1590
68117W        W68981   0.530  26.185  15.258  0.2049 -0.1316 -0.2300
68118W        W68982  10.170   5.280  19.918 -0.1377  0.0778 -0.0365
68119W        W68983  12.986  13.291  28.665  0.0635 -0.0467  0.3702
68120W        W68984  17.577  14.154  22.736  0.2490 -0.0508  0.2442
68121W        W68985  10.763  12.426  15.626  0.1539 -0.3192  0.2623
68122W        W68986  20.941  16.982  17.640 -0.3110  0.0159  0.2195
68123W        W68987   7.287  14.643   9.669 -0.1896  0.0821 -0.0312
68124W        W68988  19.852  19.939   1.191 -0.0316 -0.0307  0.0743
68125W        W68989  22.938  14.490  17.866  0.3943 -0.2297 -0.0324
68126W        W68990  10.730  17.682  17.035 -0.0499 -0.2910 -0.2330
68127W        W68991  10.962  14.095   4.387 -0.1301 -0.3003  0.0631
68128W        W68992  28.521   3.456   2.692  0.0989 -0.1465  0.1082
68129W        W68993   8.925  20.878  21.855 -0.2159 -0.2413 -0.1608
68130W        W68994   3.589  26.655   5.220 -0.1550  0.3057  0.3286
68131W        W68995  18.420  11.794   4.996 -0.1685  0.1028 -0.1157
68132W        W68996  10.397   9.174  16.603 -0.0509 -0.0226 -0.1250
68133W        W68997  23.295  14.513  19.369  0.1314  0.1871  0.1065
68134W        W68998  17.793   4.241  22.340 -0.3573  0.0611  0.0677
68135W        W68999   7.551  23.723  27.475  0.1162 -0.0714 -0.1255
68136W        W69000   8.931  12.063  25.333  0.1994 -0.2532 -0.0987
68137W        W69001  24.451  14.061  20.405 -0.0699 -0.1870  0.0726
68138W        W69002  12.967   7.199  27.478  0.0688 -0.1761  0.1392
68139W        W69003  21.441   8.533  26.844 -0.0410  0.2053  0.0710
68140W        W69004   1.423   8.925  20.739 -0.0069  0.1161  0.3254
68141W        W69005  14.168   5.479   2.716 -0.0363 -0.1172  0.2009
68142W        W69006   9.339   1.230  10.267  0.4826  0.0931 -0.3130
68143W        W69007   2.772   8.055   6.246 -0.0625 -0.0926  0.0677
68144W        W69008   6.498   6.127  22.840 -0.1104 -0.0243  0.4197
68145W        W69009  11.445  15.556   5.579 -0.0658  0.1222 -0.0785
68146W        W69010   2.181  21.162  27.257  0.1895 -0.1341 -0.1715
68147W        W69011  14.624  10.997   2.786 -0.4181  0.0569  0.0657
68148W        W69012  27.984  22.667  11.777 -0.1243  0.2922 -0.1213
68149W        W69013   1.985  12.146  10.037 -0.2897 -0.2352  0.0291
68150W        W69014   8.532  13.672   5.441  0.2893 -0.0557 -0.0008
68151W        W69015   5.194  21.715  24.604  0.1456  0.0858  0.3931
68152W        W69016  21.408  25.794  26.587 -0.1355 -0.3118 -0.2243
68153W        W69017   3.950   1.336  13.279  0.0349 -0.0305  0.1894
68154W        W69018   7.559   7.829  10.888  0.0184 -0.0962  0.1418
68155W        W69019   2.713  29.124  21.136 -0.0843 -0.1670 -0.0680
68156W        W69020  17.198  10.414   6.679  0.1004  0.2365  0.1043
68157W        W69021  14.903  10.408  22.847  0.0256  0.1528 -0.2097
68158W        W69022   1.107  12.950  22.317 -0.0247  0.1625 -0.0396
68159W        W69023  20.152  19.119  12.316  0.0124 -0.0923  0.2386
68160W        W69024  18.258  24.986  19.109  0.0422 -0.2158 -0.0738
68161W        W69025  11.190  10.458  25.870 -0.1577  0.1751  0.2827
68162W        W69026   1.991  28.269  27.878 -0.1888 -0.2560 -0.1402
68163W        W69027   4.112  26.870  22.449 -0.0434  0.5842 -0.0508
68164W        W69028  21.730  11.789  17.929  0.3858  0.2318 -0.1317
68165W        W69029  10.867  14.165  22.946 -0.2497 -0.2987 -0.1117
68166W        W69030  11.482  13.620  23.739  0.1243  0.0559  0.0053
68167W        W69031   0.015  20.811   3.514  0.0811 -0.0125  0.0979
68168W        W69032   3.502   9.838  20.381  0.2557  0.0652 -0.0021
68169W        W69033   6.324  24.874  17.793 -0.0987  0.0601  0.0040
68170W        W69034  10.452   1.849  20.571 -0.0373  0.0287 -0.1859
68171W        W69035   5.785  25.593   7.355 -0.0801  0.3789  0.3150
68172W        W69036  19.433   6.662  24.144  0.1460  0.0396  0.2381
68173W        W69037  11.932   8.267  23.862 -0.1015  0.2443 -0.3324
68174W        W69038   1.144  15.076   1.662 -0.0469  0.1010  0.1691
68175W        W69039  18.673  25.364   0.339 -0.1954  0.0688  0.1296
68176W        W69040  25.228  23.113  10.699  0.1699 -0.0958  0.3578
68177W        W69041  23.174  28.178   5.249  0.1222 -0.2245  0.1417
68178W        W69042  10.512  12.420  18.129  0.0502  0.1666 -0.0298
68179W        W69043  25.724   7.822  11.493 -0.1932  0.0071  0.0261
68180W        W69044  26.997  19.380  19.541 -0.2277  0.0725  0.1144
68181W        W69045   9.935  16.099  11.403 -0.2288 -0.0143 -0.1819
68182W        W69046  23.364  17.057   9.100  0.2340  0.2887 -0.1435
68183W        W69047  15.524  26.320  17.857 -0.0157  0.3319  0.3192
68184W        W69048  11.045  10.195  12.718 -0.0354 -0.0953  0.1019
68185W        W69049  24.070  25.047  14.675  0.3282  0.3524  0.0120
68186W        W69050  18.766   5.556   1.054 -0.2071 -0.0221 -0.1495
68187W        W69051   8.830  23.243  19.327 -0.0431 -0.4234  0.0822
68188W        W69052   4.101   6.736  23.888  0.0966  0.0544 -0.0417
68189W        W69053   5.299   4.475   2.515  0.2346 -0.3819  0.2857
68190W        W69054  15.545   6.395   7.251  0.3472 -0.1238  0.0564
68191W        W69055  16.889   8.089   4.061  0.1146  0.1185  0.0355
68192W        W69056   6.560  28.127   5.943 -0.3109  0.0503 -0.0949
68193W        W69057  16.650  10.496  28.553  0.1158 -0.0533  0.3451
68194W        W69058  19.112  25.083  12.223  0.0574 -0.1165  0.2322
68195W        W69059  10.217  19.989   3.930 -0.0146 -0.2803  0.3586
68196W        W69060  15.548  27.777  12.688 -0.1525  0.0643 -0.1896
68197W        W69061  20.974   7.122   7.208 -0.1506 -0.2020  0.3422
68198W        W69062   9.792  20.396  17.158  0.3177 -0.2994  0.1493
68199W        W69063   2.802   2.314  15.487  0.1383  0.0565  0.0904
68200W        W69064  12.504  10.072   7.636  0.2079 -0.3321  0.0957
68201W        W69065  13.337  16.168   7.182  0.0237 -0.1353  0.1093
68202W        W69066  14.274   7.583  21.334  0.0744  0.1656  0.2719
68203W        W69067  10.992  10.508   6.439  0.0849  0.0294 -0.0940
68204W        W69068   2.183  17.559  12.562 -0.0231  0.0980  0.0190
68205W        W69069  13.166  18.433  11.588 -0.2034 -0.3025  0.1281
68206W        W69070  22.638  22.756   4.006  0.1340 -0.0151  0.1336
68207W        W69071  28.426  14.247   4.275 -0.3473 -0.1057  0.0352
68208W        W69072  11.669  26.964  29.044  0.0966  0.1067 -0.1195
68209W        W69073  21.075   7.617  13.784  0.0124 -0.1454 -0.0670
68210W        W69074   9.705   7.303  11.769 -0.0452 -0.0856  0.2720
68211W        W69075   7.344  18.527   5.686  0.2746  0.0511  0.0401
68212W        W69076  16.711   4.878  25.739  0.1577 -0.1232 -0.0768
68213W        W69077   6.449  11.733  14.881  0.0871 -0.2492  0.2814
68214W        W69078  28.693  26.156  28.850 -0.0572  0.0182  0.1055
68215W        W69079   7.328   2.041   9.155  0.2513  0.1669  0.1115
68216W        W69080   1.050  18.110  15.544  0.1795 -0.0297  0.2591
68217W        W69081  11.970  15.850  15.953 -0.2056  0.1625  0.0531
68218W        W69082  26.399  19.961  18.936 -0.0157 -0.0419 -0.2654
68219W        W69083  23.106  28.200   9.579  0.0941 -0.1723 -0.0078
68220W        W69084  18.231   6.493  18.234 -0.0238  0.0021  0.0741
68221W        W69085  19.170  11.869  25.506  0.1054  0.0486  0.3728
68222W        W69086  16.849  24.183  14.956  0.5263  0.1990 -0.0521
68223W        W69087   8.011  10.454  20.297 -0.0551  0.0556 -0.0230
68224W        W69088  24.307  26.628   3.059  0.1571  0.4952 -0.4031
68225W        W69089   0.436  27.553   9.235  0.2821  0.1637 -0.1433
68226W        W69090   9.468   2.756  20.139 -0.1085 -0.2474  0.0787
68227W        W69091  28.941  27.101  23.183  0.0147  0.1015 -0.1534
68228W        W69092  15.651  21.736  13.286 -0.0862  0.1014 -0.0487
68229W        W69093   0.887  17.960  27.378  0.1880  0.1819  0.1290
68230W        W69094   2.413  23.656  21.096  0.2086 -0.0323 -0.4898
68231W        W69095   4.885  28.483   1.856 -0.2653 -0.0284  0.3453
68232W        W69096  28.474  16.611  13.646  0.0088  0.3047  0.0793
68233W        W69097  15.986   6.458   3.973 -0.1424 -0.2092  0.0179
68234W        W69098   8.238  14.049  19.563 -0.1330 -0.2507  0.1533
68235W        W69099  16.161  15.083  18.841  0.1757  0.1309 -0.0036
68236W        W69100  28.096  11.159  26.583 -0.1989  0.2843  0.0253
68237W        W69101  21.736   0.373   8.998 -0.2723  0.0582  0.0165
68238W        W69102  16.264  26.259  11.657 -0.0100 -0.0127  0.0661
68239W        W69103  12.905  20.143  16.234 -0.1312  0.1093  0.2328
68240W        W69104  13.193   9.745  19.933  0.1548 -0.0508  0.2356
68241W        W69105  10.337  12.244  23.127  0.1440  0.0312  0.0234
68242W        W69106   6.885  22.507  16.417  0.0915 -0.1160  0.1179
68243W        W69107  19.572   9.572   9.987 -0.0498  0.1597  0.1757
68244W        W69108  26.578  17.024   5.987  0.1453  0.0653  0.1585
68245W        W69109   3.815  15.714  21.053  0.1516  0.2710  0.2228
68246W        W69110   3.698  18.224  24.182  0.4346 -0.0398  0.2658
68247W        W69111   8.912   1.133  21.218 -0.1028 -0.0931 -0.0619
68248W        W69112  20.232  23.669  12.873 -0.1732  0.1941  0.1353
68249W        W69113   3.924  20.110   0.173 -0.1775  0.1110  0.1750
68250W        W69114   4.394   4.521  13.057 -0.0834 -0.0121 -0.2519
68251W        W69115  16.159  19.624   4.351 -0.2007  0.0959  0.0399
68252W        W69116  27.844  25.611  12.623  0.0782 -0.0026 -0.4014
68253W        W69117   4.296   9.198  10.075 -0.2259 -0.0510  0.4891
68254W        W69118  12.205  24.255  26.387 -0.1318  0.1452  0.2709
68255W        W69119   9.390  21.445  19.414 -0.2639  0.1302 -0.0773
68256W        W69120  13.099  11.508   2.512 -0.1688 -0.0226 -0.0210
68257W        W69121  18.427  17.561  26.100 -0.2446 -0.0020  0.1331
68258W        W69122  15.535  23.752   4.004  0.0360 -0.2759  0.4226
68259W        W69123  28.008   0.380   7.631  0.1392  0.1561  0.2331
68260W        W69124  23.612  27.515   1.681 -0.0805  0.0032  0.3623
68261W        W69125   5.013  18.458   7.131  0.1145 -0.1375  0.1514
68262W        W69126  22.316  13.468  13.814  0.1267 -0.0782  0.0809
68263W        W69127  13.649  14.455  15.383  0.1520 -0.1270 -0.0998
68264W        W69128   3.009  25.277   5.269  0.0007 -0.0834 -0.1484
68265W        W69129   5.260  27.463  27.849  0.1770  0.1108 -0.0716
68266W        W69130   6.592  21.765  13.453 -0.1025 -0.1169  0.0062
68267W        W69131   6.178  20.328   5.709 -0.2465  0.1524  0.2217
68268W        W69132  10.582  22.299   3.707  0.0180 -0.3662 -0.1428
68269W        W69133  19.286   7.389   3.236 -0.2132  0.1127 -0.0778
68270W        W69134   1.906  18.711  14.085 -0.1901 -0.2411  0.2622
68271W        W69135  26.745  13.588  18.793 -0.1017 -0.0370 -0.2171
68272W        W69136   4.000  14.056  20.112 -0.1805 -0.2435 -0.1562
68273W        W69137  16.575  26.588   5.581  0.1000  0.3522  0.0617
68274W        W69138  26.145  12.611   6.339  0.2334  0.0727 -0.0838
68275W        W69139   9.895  11.445  12.987  0.0450  0.0763 -0.1869
68276W        W69140  10.417  10.845   8.654 -0.0681  0.2404  0.1552
68277W        W69141  15.099  27.481  11.497 -0.0978  0.0118  0.1400
68278W        W69142  23.640  27.635  15.157  0.1112 -0.0014 -0.0929
68279W        W69143   8.477  17.197  22.720 -0.0823 -0.2347  0.4730
68280W        W69144   5.470  19.842  16.963 -0.1424  0.1127 -0.2877
68281W        W69145  16.243  15.495  12.798 -0.1929 -0.0648 -0.3021
68282W        W69146  16.968   1.144   1.868 -0.0502  0.0022  0.0604
68283W        W69147  18.019  12.913   6.189 -0.1117  0.0952 -0.2416
68284W        W69148  22.655  20.269  15.803 -0.0554 -0.0564 -0.3328
68285W        W69149  10.815  27.060  10.258 -0.1615 -0.2576 -0.2056
68286W        W69150  16.646   3.484  25.258  0.2810  0.0690  0.2293
68287W        W69151   7.834  13.729   5.464  0.1017 -0.0418  0.1070
68288W        W69152   1.662   6.358   6.542  0.0345  0.1511  0.0312
68289W        W69153  10.153  12.332   7.031  0.1768 -0.0955 -0.2027
68290W        W69154  13.361  19.450   1.815  0.0015  0.0582 -0.0730
68291W        W69155   6.650  21.215   9.012  0.0819 -0.4175  0.0944
68292W        W69156   4.292  28.798  29.010 -0.0568  0.2594 -0.1536
68293W        W69157   6.382   3.959   7.148 -0.0220  0.2740  0.2870
68294W        W69158   8.693  22.567   3.222 -0.0023  0.4393  0.0445
68295W        W69159  11.617  12.757  15.661  0.0299 -0.0699 -0.1127
68296W        W69160  16.618  21.386   5.112  0.1024  0.0468  0.2277
68297W        W69161  12.428  26.256  11.225  0.2808 -0.0627  0.0780
68298W        W69162  28.104  23.730  13.754  0.0401  0.2988  0.2924
68299W        W69163  13.014  18.328   1.312  0.3663 -0.1516 -0.0544
68300W        W69164  24.003  20.324   5.111  0.2239  0.1624  0.0568
68301W        W69165   9.519  19.768  18.988  0.2065 -0.3926 -0.0146
68302W        W69166  18.986  24.475  16.037  0.0940  0.0532 -0.1686
68303W        W69167  23.754  19.274  16.850  0.1192  0.0161  0.2520
68304W        W69168  16.067  29.020   7.238 -0.0918  0.1547 -0.0146
68305W        W69169  15.947  24.085  16.248  0.2300  0.5047 -0.3847
68306W        W69170   0.017  11.760  16.278  0.1827  0.3049 -0.1987
68307W        W69171   6.549  27.896   2.559  0.0811 -0.2607  0.0036
68308W        W69172   3.287   3.863  22.341 -0.1381  0.2226  0.2486
68309W        W69173  21.187  21.120   5.163  0.0594 -0.0194  0.2126
68310W        W69174  21.701  15.973   0.336 -0.3982 -0.0649  0.3857
68311W        W69175   8.245  12.673   1.806  0.6246 -0.0951  0.3461
68312W        W69176   4.963  25.893  24.449 -0.1386 -0.1019 -0.1025
68313W        W69177  20.283  24.782  15.613  0.2014 -0.3303 -0.2254
68314W        W69178  23.418   5.539  14.933  0.0289 -0.3235  0.2885
68315W        W69179  28.980  24.728   4.961  0.0656 -0.1293 -0.0059
68316W        W69180  27.803  16.214  27.297  0.1623 -0.0618  0.1731
68317W        W69181   5.787  23.481  10.756  0.0827  0.3022 -0.1197
68318W        W69182  17.717  15.521  20.378 -0.0158 -0.0154  0.2150
68319W        W69183  13.333  11.969  21.817  0.0995  0.3078 -0.1573
68320W        W69184   0.301  11.673  24.361 -0.1894  0.3131 -0.0663
68321W        W69185  16.033  16.864  27.246 -0.0853  0.3139  0.2006
68322W        W69186   3.565  27.928   4.997 -0.0211 -0.1298  0.1254
68323W        W69187   1.446  20.243  28.556  0.3781  0.0514  0.1052
68324W        W69188  29.043  18.473   1.515 -0.0010  0.0782  0.0959
68325W        W69189  22.606  16.909   8.697 -0.3373  0.1031  0.0460
68326W        W69190  27.370  15.354  26.336 -0.0122 -0.2390 -0.1019
68327W        W69191   8.640  18.868   9.432 -0.0597  0.0286  0.0258
68328W        W69192   8.074   2.918   1.308 -0.0264  0.0400  0.0500
68329W        W69193  23.739  28.715  18.922  0.3635 -0.1933 -0.0338
68330W        W69194   9.757   5.227   8.581 -0.0540  0.2167 -0.3418
68331W        W69195   8.736   3.414  13.279 -0.2189  0.1134 -0.0233
68332W        W69196   5.221  22.486  26.286  0.2553  0.4687  0.0758
68333W        W69197   5.223  14.396  17.097 -0.3077  0.1395  0.1032
68334W        W69198  16.169  16.293   7.146  0.1628  0.0459  0.0844
68335W        W69199  11.801  26.066  24.978  0.0879 -0.1529  0.1514
68336W        W69200  25.961  27.619  14.442 -0.0072 -0.0201 -0.0367
68337W        W69201  24.663   8.597   7.191  0.1872  0.0828 -0.4405
68338W        W69202  17.312  13.197  19.888  0.0852 -0.3536 -0.0866
68339W        W69203  16.708  14.967   8.474 -0.1514  0.0158 -0.3087
68340W        W69204  12.577  23.732   7.632  0.1103 -0.1833 -0.3106
68341W        W69205   8.453  16.215  20.374 -0.0700 -0.2831  0.1219
68342W        W69206  12.684  26.034  27.110  0.1641 -0.1566 -0.0648
68343W        W69207  16.397  16.235  21.625  0.1356 -0.0519  0.0547
68344W        W69208   9.894  26.994  10.457 -0.3210  0.2425  0.0124
68345W        W69209  22.188  23.379   8.452 -0.0336 -0.3489  0.0718
68346W        W69210  18.194  11.553   9.435 -0.0008  0.0337 -0.1253
68347W        W69211   1.956  10.633  24.153 -0.1743  0.0818  0.0922
68348W        W69212  15.274   6.387  14.562  0.1890  0.1795 -0.0376
68349W        W69213  28.404   8.097  17.097  0.2060 -0.0486 -0.1176
68350W        W69214   0.588  13.480  20.832  0.4770  0.0822 -0.0397
68351W        W69215   4.524  26.987   2.744  0.2923 -0.2330 -0.1535
68352W        W69216   7.858  23.151  11.888  0.0007  0.2601 -0.2449
68353W        W69217  15.430  22.117  22.054 -0.0180  0.1725  0.1603
68354W        W69218  22.027  14.545   6.725 -0.0260  0.2291  0.1053
68355W        W69219  23.951   1.343  19.840  0.0964  0.1352  0.0815
68356W        W69220  28.778  19.804   1.642  0.0623 -0.0859 -0.1507
68357W        W69221   9.919  16.337   4.163  0.0620 -0.3447 -0.1677
68358W        W69222   5.978  24.320  11.004 -0.1393  0.1366 -0.4685
68359W        W69223  27.505  22.535  28.262 -0.0373 -0.0919  0.2875
68360W        W69224  23.750   8.194  14.781  0.3581 -0.1754 -0.4975
68361W        W69225   7.822  12.489   1.535 -0.2367  0.1011 -0.2550
68362W        W69226  25.843   1.116  20.597  0.1450  0.0014  0.0661
68363W        W69227  22.247  10.497   8.008  0.0861  0.2099  0.1824
68364W        W69228   8.082  25.877   8.441 -0.1378  0.2035 -0.2661
68365W        W69229  21.335  16.528  20.035 -0.1819 -0.0738 -0.0434
68366W        W69230   3.580  20.959  16.642 -0.2266  0.0356 -0.0389
68367W        W69231   9.924  19.554  17.752  0.0088  0.2601  0.2142
68368W        W69232   4.332  26.286  17.948  0.2521 -0.0483  0.1103
68369W        W69233  23.413  18.660   3.961 -0.1228  0.1915  0.1155
68370W        W69234   2.191  18.896  20.945 -0.1385  0.3121 -0.4496
68371W        W69235  22.096   4.128  26.346  0.3169 -0.3164  0.3222
68372W        W69236  28.116   4.785  10.234  0.1757  0.4155  0.0386
68373W        W69237  28.084  25.256  24.236  0.0393  0.0174 -0.2907
68374W        W69238  27.561  10.118  24.559 -0.2138 -0.0644 -0.2345
68375W        W69239  27.363  28.172  12.429 -0.0397  0.1489  0.0734
68376W        W69240  21.521  22.552  16.886 -0.2367 -0.0950 -0.1183
68377W        W69241  12.106  18.391  27.351  0.2377 -0.0345  0.2078
68378W        W69242   4.466   2.716  19.762 -0.0619 -0.0314 -0.1002
68379W        W69243   2.211  15.984  20.015 -0.0627  0.0335 -0.0484
68380W        W69244   6.759  28.937  10.796  0.0676 -0.1462  0.1295
68381W        W69245   1.087  24.694   5.792  0.3754  0.0035 -0.0327
68382W        W69246   7.215   5.213  27.105 -0.1224 -0.2461  0.1592
68383W        W69247  25.218  15.426  24.309 -0.4005 -0.0024 -0.2171
68384W        W69248   0.555   7.954  15.590 -0.1269 -0.0490  0.1460
68385W        W69249  10.034  16.470  16.731  0.0736  0.1345 -0.0460
68386W        W69250  10.011  24.414  13.163 -0.0784  0.3914  0.2492
68387W        W69251  18.873  18.530  21.657 -0.0457  0.1541  0.0655
68388W        W69252   6.916   9.714   1.334 -0.2355  0.0006  0.1581
68389W        W69253  10.261  13.841  17.948  0.0408  0.0428 -0.1656
68390W        W69254   7.642   9.033  15.162 -0.0322  0.1589  0.0139
68391W        W69255   9.204  22.973   8.919  0.3223 -0.0268  0.0644
68392W        W69256  12.105  18.523  16.535  0.1046  0.1872  0.1596
68393W        W69257   3.081   5.400  16.522  0.1093  0.2703  0.0060
68394W        W69258  14.683  21.619  10.305 -0.1325 -0.1531 -0.0097
68395W        W69259   8.885   6.187  11.307 -0.0091  0.3550  0.3476
68396W        W69260  20.555  10.873  14.644  0.2267  0.1766  0.0558
68397W        W69261   6.145  23.511  12.731 -0.0191 -0.4175  0.0756
68398W        W69262  22.169  16.946   7.429  0.2449 -0.3058 -0.1270
68399W        W69263  18.717  11.812  20.634  0.0501  0.0970 -0.0688
68400W        W69264   8.433  17.526  28.407  0.3561  0.0561 -0.1106
68401W        W69265  13.310  22.707  21.324 -0.1590 -0.2325  0.2211
68402W        W69266  14.935   8.448  29.109  0.1382  0.2242  0.0999
68403W        W69267   1.523   0.775  16.095  0.0090  0.0922  0.0141
68404W        W69268  15.867   8.334   7.956  0.0922  0.0295 -0.2131
68405W        W69269   9.518  17.477   7.154 -0.2244  0.1492  0.1770
68406W        W69270   5.392  17.970  20.772 -0.0552  0.0313  0.0750
68407W        W69271   6.632   2.778  14.974  0.0783  0.1520  0.2304
68408W        W69272  28.891  28.212  13.893 -0.2340 -0.1697  0.0283
68409W        W69273  22.019  20.081  14.114  0.0166  0.0324 -0.2662
68410W        W69274  22.627   1.114   7.705 -0.0692 -0.1093 -0.0915
68411W        W69275   3.736   2.379  13.026  0.1245 -0.1401  0.1024
68412W        W69276  16.692   6.452   9.644  0.0343  0.0541 -0.0015
68413W        W69277   6.407  18.049  19.478 -0.2093 -0.0250  0.1501
68414W        W69278   8.977  16.201   2.992  0.0705 -0.0488 -0.2059
68415W        W69279   9.162  21.289   5.931 -0.2744  0.2022 -0.0250
68416W        W69280   4.341  15.066   9.414 -0.2414 -0.2662  0.0192
68417W        W69281  10.391   7.888  23.516  0.1120  0.0116 -0.1590
68418W        W69282  19.815   5.946  11.098 -0.0148  0.1552  0.0426
68419W        W69283  11.481  25.264   2.789 -0.1388  0.0595 -0.1950
68420W        W69284  13.988  27.749  16.134  0.0407  0.0290  0.1542
68421W        W69285   3.282  19.276  10.623  0.0215  0.2087  0.0260
68422W        W69286  16.268   6.930  29.066 -0.1444 -0.2046  0.0360
68423W        W69287  19.211  27.113  24.524 -0.0758 -0.1152 -0.0873
68424W        W69288   9.672  14.900   5.489 -0.3001  0.0420  0.1859
68425W        W69289  26.123  19.538  12.647 -0.1734 -0.1373 -0.2534
68426W        W69290  14.298  17.458   3.611  0.0343  0.3057  0.1650
68427W        W69291  20.691   8.740   2.754 -0.0443  0.0918  0.0049
68428W        W69292  19.190  14.827  14.887  0.2224 -0.3390 -0.1121
68429W        W69293  21.557  19.690  17.362  0.0758  0.0872  0.0797
68430W        W69294  24.949   7.162   5.850 -0.0890  0.2991 -0.1305
68431W        W69295   5.605   8.981  18.221  0.3155  0.1402  0.0754
68432W        W69296  24.721  14.988  24.834  0.1067  0.0576  0.2525
68433W        W69297   5.251  28.695  25.373  0.1685 -0.0634  0.1312
68434W        W69298   4.760  14.003  26.800 -0.1571 -0.0120  0.4832
68435W        W69299   9.964  17.079  24.526 -0.2554  0.2162  0.0704
68436W        W69300  11.369  20.618  15.151  0.1378  0.0483 -0.1412
68437W        W69301  24.499   6.635   0.333  0.2619 -0.1140 -0.1502
68438W        W69302  14.420  27.503  15.899 -0.1722 -0.4767  0.1015
68439W        W69303  19.835   2.072  20.681 -0.0953  0.0098  0.2012
68440W        W69304  15.898  10.895   6.373  0.0770  0.3695 -0.2985
68441W        W69305   8.941  26.308   4.231 -0.0201  0.1796 -0.2097
68442W        W69306   0.735  17.010  22.284  0.2110  0.0580  0.2760
68443W        W69307   7.277   9.744  21.852 -0.2271  0.0530  0.1665
68444W        W69308   3.732  22.998  18.798 -0.2851  0.0563 -0.1595
68445W        W69309   1.841  10.580   8.146 -0.0326  0.0706  0.0679
68446W        W69310  19.051  19.994   6.850  0.1112 -0.1062  0.0420
68447W        W69311   8.607  23.307  19.863  0.0493 -0.2813  0.0761
68448W        W69312  14.921  25.441  24.435 -0.2007  0.3295  0.0974
68449W        W69313   9.203  18.083   3.545  0.1459 -0.3229  0.1746
68450W        W69314  17.497  26.459  13.772  0.0230 -0.2777  0.2850
68451W        W69315  26.577  25.482  10.954 -0.0066  0.2850  0.0508
68452W        W69316  18.923  23.126  10.183  0.1432  0.2831 -0.0940
68453W        W69317  25.873  23.712   4.032 -0.1721  0.0535  0.0203
68454W        W69318   1.541   7.226  19.156  0.1922 -0.0294 -0.2561
68455W        W69319  17.032  24.868  16.958  0.0398 -0.0920 -0.0642
68456W        W69320  19.760  14.708   7.270  0.0860  0.0659  0.3324
68457W        W69321  21.166  16.175  15.645 -0.1501  0.0573  0.2236
68458W        W69322  12.253   1.424   6.772 -0.0666 -0.1959  0.0133
68459W        W69323  17.489   6.488   8.867 -0.1378  0.0658  0.1462
68460W        W69324   0.786   3.667  26.685  0.1568  0.2566  0.0077
68461W        W69325  24.628  25.219  24.903 -0.0452 -0.0462 -0.0644
68462W        W69326  18.513  27.811  14.675  0.3123 -0.0464  0.0336
68463W        W69327  17.359   1.151   7.825  0.0541  0.3936 -0.0152
68464W        W69328   1.812  25.253  25.744  0.0159  0.1017 -0.2413
68465W        W69329   9.210  24.485  10.309  0.3955  0.0313  0.1905
68466W        W69330   0.266  20.049  23.263 -0.0915  0.3298  0.1914
68467W        W69331  13.393  23.056  13.653 -0.0711  0.2394 -0.1612
68468W        W69332   7.059  20.566  18.703 -0.0886 -0.0503 -0.1105
68469W        W69333  17.856  19.712   7.003  0.0938 -0.0535 -0.0502
68470W        W69334   4.150  23.363   1.870  0.1464  0.0207 -0.4451
68471W        W69335   1.928   2.320   6.266 -0.0857 -0.2607  0.0412
68472W        W69336   3.299  12.517   6.572  0.3104  0.2619 -0.1147
68473W        W69337   0.285   8.561  18.759  0.2563  0.0098  0.0453
68474W        W69338   0.994   9.859  20.168 -0.1378 -0.2697 -0.1441
68475W        W69339   4.807   4.002   7.749 -0.0509  0.2637 -0.1967
68476W        W69340  28.332  23.707   4.583 -0.0381 -0.2705 -0.0188
68477W        W69341   6.053  19.368  14.449  0.1795  0.2130 -0.2788
68478W        W69342   0.017   5.891   4.287 -0.0841  0.1341  0.1219
68479W        W69343  22.517  22.149  28.263 -0.0664 -0.0448 -0.0555
68480W        W69344  14.639  12.255   7.164  0.0513  0.1587  0.0270
68481W        W69345  27.804  13.221  15.854  0.1629  0.1369  0.0014
68482W        W69346   2.420  20.260  18.305  0.1245  0.1953  0.1069
68483W        W69347  22.864  26.409  28.599 -0.0226 -0.3488 -0.0181
68484W        W69348   5.540  20.629   2.172  0.1559 -0.1426  0.1307
68485W        W69349  17.735   1.034   1.273  0.1329 -0.1181  0.0283
68486W        W69350   2.467  26.433   5.033 -0.1360 -0.0456  0.0284
68487W        W69351  18.799   5.045   2.789  0.0480  0.0599 -0.1609
68488W        W69352  15.310  24.355   9.220 -0.4166 -0.0875  0.1091
68489W        W69353   7.793  14.118  16.606 -0.6119  0.2185  0.2054
68490W        W69354   9.197  16.176  21.863  0.1145 -0.1985 -0.1353
68491W        W69355   4.712   2.707   4.535 -0.0899 -0.1345 -0.0595
68492W        W69356  12.975  13.251   7.625 -0.1901 -0.3672  0.2063
68493W        W69357   6.411  15.243  23.547 -0.0957  0.0590  0.0665
68494W        W69358   0.972  13.777  16.622  0.0151  0.1585 -0.1051
68495W        W69359  24.641  19.668   6.824 -0.4249  0.0316 -0.0853
68496W        W69360  22.803  15.687  19.860  0.0446  0.0746 -0.0509
68497W        W69361  11.495  16.692  12.723  0.1785 -0.2040 -0.0379
68498W        W69362  16.186  27.904   6.667  0.1343 -0.1389 -0.2782
68499W        W69363   3.546  25.884   7.067 -0.0318 -0.0531  0.0322
68500W        W69364   1.818   8.995   6.661  0.0847 -0.3350  0.0243
68501W        W69365  15.127  14.950   3.778  0.1177 -0.2163  0.4990
68502W        W69366  19.423  10.601  16.697 -0.1960 -0.0476 -0.2773
68503W        W69367  21.048  20.885  13.990 -0.1990 -0.2656 -0.0023
68504W        W69368  10.099   1.738  23.249 -0.1643 -0.1570  0.0553
68505W        W69369   7.390   8.841   5.940 -0.2523 -0.1094 -0.3268
68506W        W69370  13.625  25.261  20.550 -0.2605  0.2266 -0.0535
68507W        W69371   5.143  10.825  13.984 -0.0018  0.1282 -0.2200
68508W        W69372  12.528  12.481   4.015 -0.2002  0.0538  0.1146
68509W        W69373  19.508  10.235  24.777  0.2428  0.2526 -0.1795
68510W        W69374  22.462  11.596  28.544  0.2662  0.0986  0.0886
68511W        W69375   2.453  10.261   0.198  0.0565  0.1624 -0.0673
68512W        W69376   4.943  18.385   9.113 -0.3133 -0.0698  0.2012
68513W        W69377  15.645  28.583   5.352  0.1659 -0.2616 -0.3314
68514W        W69378  14.626  10.216  18.871 -0.0792 -0.0526 -0.0752
68515W        W69379   1.405  24.338   1.638  0.1546 -0.0842 -0.0572
68516W        W69380  19.368   0.309  14.330  0.2558  0.0098  0.1041
68517W        W69381   1.684   4.379  21.462  0.1663 -0.0213 -0.3225
68518W        W69382   7.375  26.136  26.329 -0.3220 -0.0877  0.1260
68519W        W69383   6.341  15.957  27.923 -0.1797  0.1528 -0.3255
68520W        W69384  10.511   3.362   7.655 -0.1508  0.3399  0.4529
68521W        W69385  13.906  21.170   1.839  0.0518  0.0357 -0.1851
68522W        W69386   8.443   2.762   0.985  0.1547  0.0571 -0.1301
68523W        W69387   9.633   9.078  23.285 -0.0833  0.0370 -0.0584
68524W        W69388  26.926  22.404  20.342  0.0841 -0.1606 -0.1218
68525W        W69389  15.194  14.638  16.578 -0.0242  0.1954 -0.0866
68526W        W69390   7.654  16.628  11.523  0.1789  0.0987 -0.3170
68527W        W69391  21.891   7.432  18.727  0.0882  0.0911 -0.1118
68528W        W69392   9.738  27.511  23.306  0.3076 -0.1296  0.1729
68529W        W69393   3.689  16.894   7.584  0.1051  0.1508  0.0482
68530W        W69394  12.425   9.988   0.296 -0.1476  0.4524 -0.1608
68531W        W69395  21.544  26.568   1.345  0.1900 -0.0649  0.2409
68532W        W69396   5.451   0.179  22.274 -0.0459  0.2300  0.0746
68533W        W69397   2.765  17.330   7.307 -0.1898  0.0950 -0.1947
68534W        W69398   3.108   9.826  13.502 -0.0794  0.1932  0.1891
68535W        W69399  12.879  11.259   3.046  0.0168  0.1499  0.1004
68536W        W69400  15.303  18.198   0.235  0.0186 -0.1169  0.0281
68537W        W69401  18.767  18.089  25.365  0.0904  0.0820  0.0658
68538W        W69402   9.382  13.206  25.604  0.3701  0.3062 -0.2081
68539W        W69403  24.385  27.372   8.278 -0.1303 -0.1222 -0.1587
68540W        W69404   4.932  21.695  15.245 -0.2914  0.0198 -0.0979
68541W        W69405  16.214  13.199  16.746  0.0210 -0.2589  0.1447
68542W        W69406  12.950   7.720   1.968 -0.0745  0.3144  0.0633
68543W        W69407   8.062  19.772  10.509 -0.0875  0.2052  0.0499
68544W        W69408  26.213   2.068   6.441  0.2735  0.1322  0.3251
68545W        W69409  24.052  25.380  14.319 -0.4089 -0.1088  0.1397
68546W        W69410   6.879  10.325  12.371 -0.0906  0.2127 -0.0037
68547W        W69411  17.944  18.102  13.897 -0.1832  0.2178  0.0226
68548W        W69412   6.186   6.555  12.350  0.0962 -0.1479  0.3183
68549W        W69413   5.337  14.269   2.217  0.0123 -0.2535 -0.2264
68550W        W69414  26.014  19.490   2.370  0.0357 -0.1384 -0.1128
68551W        W69415   7.356  12.353  12.224 -0.1223 -0.2440  0.1003
68552W        W69416   9.054  25.549  10.590 -0.1415 -0.0347  0.1570
68553W        W69417   2.487  16.957   0.120 -0.5019 -0.0918  0.3419
68554W        W69418   6.191  23.881  10.793 -0.1374  0.4341  0.0853
68555W        W69419  12.565  18.457   1.489  0.2073 -0.0795  0.1145
68556W        W69420   3.242   2.147   6.474  0.1640  0.0558  0.0491
68557W        W69421   0.848  16.234   3.736 -0.2420 -0.3184 -0.0577
68558W        W69422   0.020  26.630  22.332  0.1695 -0.0401 -0.0631
68559W        W69423  13.011  26.078  18.697  0.1256  0.0266  0.2015
68560W        W69424  23.853   3.196  13.721  0.0539 -0.2926  0.3883
68561W        W69425  16.200  21.576  26.572 -0.0084 -0.0911 -0.0473
68562W        W69426   7.160  18.229  17.682 -0.3086  0.1116  0.1105
68563W        W69427  11.263  24.994  19.325 -0.0556  0.0771  0.2983
68564W        W69428  10.088  18.696   8.094  0.2199  0.3729  0.0166
68565W        W69429   3.003   2.744  13.367 -0.1693  0.0384 -0.0633
68566W        W69430  20.702  25.995   8.042  0.1929 -0.1413 -0.1065
68567W        W69431   3.737  19.865  11.974 -0.0739  0.0501  0.0703
68568W        W69432  11.074   3.278  15.243  0.0816 -0.1622  0.0000
68569W        W69433  14.892  14.218   7.480 -0.3332  0.0634  0.1178
68570W        W69434  19.689  22.705  22.321 -0.1853 -0.0315  0.1876
68571W        W69435  10.562   9.016  16.143  0.0843 -0.3413 -0.2777
68572W        W69436  10.826   2.536  27.199 -0.1831  0.0191  0.0998
68573W        W69437  15.845   0.948  23.959 -0.0714  0.0129  0.0611
68574W        W69438  20.718   7.208  24.853  0.3214 -0.0025 -0.0174
68575W        W69439   8.834   3.983   5.801  0.0966 -0.0217  0.3369
68576W        W69440  15.753   6.369  13.781  0.1607 -0.1929  0.2154
68577W        W69441   9.367  25.992   6.800  0.0517  0.0784  0.1325
68578W        W69442   0.606   9.568  16.451 -0.3495  0.2076  0.2881
68579W        W69443  15.747  10.522   6.667 -0.1687  0.0160  0.2861
68580W        W69444  16.691   1.512  19.306  0.1761  0.4585  0.2141
68581W        W69445  16.159  16.503  21.296 -0.2373  0.0713  0.2518
68582W        W69446  26.395  23.682  24.430  0.3233 -0.4398  0.0532
68583W        W69447  24.070  14.983  14.732 -0.0811  0.1782 -0.1422
68584W        W69448   2.740  23.989  12.327 -0.2830 -0.1371  0.0196
68585W        W69449   2.653  15.615   7.019 -0.1480  0.0803 -0.1281
68586W        W69450   5.834  18.065  22.221  0.3215 -0.3085  0.0392
68587W        W69451  27.868   0.261  16.067 -0.0263  0.1420 -0.1342
68588W        W69452   0.142  15.314  29.016 -0.0800  0.3365  0.0296
68589W        W69453  24.155  14.559  15.269  0.0891  0.2481  0.0272
68590W        W69454  28.476  18.628  24.843  0.1755 -0.0280 -0.2390
68591W        W69455  23.885  17.580  11.581  0.0046 -0.0679  0.1242
68592W        W69456  18.226  15.168   9.737  0.1419  0.1827  0.0364
68593W        W69457   3.319  17.569  17.222  0.2791  0.2531  0.3276
68594W        W69458  10.852  18.613   2.735 -0.0788  0.1103  0.3646
68595W        W69459  18.201  22.351  16.301 -0.2957  0.0177  0.2765
68596W        W69460   4.254  23.307   2.346 -0.2460 -0.0831 -0.4261
68597W        W69461  25.089  19.614  25.655  0.0876 -0.1185  0.0990
68598W        W69462   4.124  11.841  10.129 -0.1827  0.1390 -0.1327
68599W        W69463   8.706  24.151  19.527 -0.1164  0.1489  0.0249
68600W        W69464  12.075  23.132  13.466  0.1761 -0.2285  0.1146
68601W        W69465  28.123   5.284  20.496  0.0289 -0.2515 -0.5523
68602W        W69466   5.108  20.748  19.253  0.0825  0.0774 -0.2452
68603W        W69467  22.019   4.851   2.486  0.1250 -0.1386  0.1920
68604W        W69468  27.717  17.485  12.414 -0.0410 -0.3171  0.3731
68605W        W69469  10.557   2.750   5.507 -0.4342 -0.2420  0.0275
68606W        W69470  15.232   9.376   6.035  0.2098  0.1162 -0.0857
68607W        W69471   7.797  18.675   2.258  0.0355  0.0794  0.1205
68608W        W69472   5.465  24.373   5.394  0.1860 -0.0193  0.1567
68609W        W69473  18.078  19.384  27.561 -0.0635 -0.0650 -0.1611
68610W        W69474  25.267   1.983   9.070 -0.3428  0.1671  0.0334
68611W        W69475  24.838  20.993  11.438  0.1553  0.2175 -0.2559
68612W        W69476  16.626   1.753   6.301  0.2136 -0.0748  0.1882
68613W        W69477   7.029  13.791   8.702  0.0281  0.0739  0.3199
68614W        W69478   7.297  15.441  10.211  0.0002 -0.0211 -0.2176
68615W        W69479   7.840  25.385  16.344 -0.0264  0.1975  0.2150
68616W        W69480  11.637   6.122  24.533 -0.0271  0.0152 -0.1398
68617W        W69481   0.582  20.783   2.710  0.4895 -0.1023  0.0455
68618W        W69482  14.932  12.110  17.400  0.0889 -0.0002 -0.0442
68619W        W69483  16.359   9.688  12.000  0.2573  0.0013 -0.0694
68620W        W69484  28.398   8.459   2.349 -0.1853  0.0391 -0.2927
68621W        W69485  15.948  15.876  12.304 -0.1584  0.0225  0.2048
68622W        W69486  15.364  24.675  27.213  0.0789 -0.2585  0.3093
68623W        W69487   6.623  27.644   4.140 -0.1321  0.4888  0.2131
68624W        W69488  11.479  16.205  27.377 -0.1119  0.0712  0.0573
68625W        W69489  10.371   1.369   2.894  0.2184  0.0789  0.1366
68626W        W69490  12.570  16.000  24.224 -0.3431  0.0050 -0.0135
68627W        W69491   5.854  29.134  11.131 -0.0416  0.0104  0.0577
68628W        W69492   8.395   1.780  26.239  0.0174 -0.1013 -0.1453
68629W        W69493   4.478  26.303  12.130  0.3449 -0.0748 -0.1768
68630W        W69494   6.590  20.163   5.919 -0.0292 -0.0267 -0.0320
68631W        W69495   9.967   7.947  22.219 -0.1931 -0.1566  0.1694
68632W        W69496  15.082  13.338   8.529 -0.0480  0.0152  0.0158
68633W        W69497   4.576  17.345  12.646 -0.4383  0.0027  0.0163
68634W        W69498   9.881   6.947   6.925 -0.0966 -0.2518  0.3803
68635W        W69499  15.968   0.819   7.782 -0.2112  0.0303 -0.0395
68636W        W69500   7.446  13.910  12.887 -0.2071  0.0309  0.3400
68637W        W69501  15.128   3.088  24.812  0.0860  0.2230  0.0397
68638W        W69502   2.983  18.301   7.015  0.3608 -0.0719 -0.2102
68639W        W69503  20.819   5.926  28.429 -0.0339  0.0821  0.2911
68640W        W69504   8.957   8.125  28.627  0.1601 -0.2425  0.2351
68641W        W69505   9.156  26.720  21.967 -0.1091  0.1832  0.0432
68642W        W69506  10.555  10.255  25.266 -0.1039 -0.0202  0.0014
68643W        W69507   2.224   4.927  21.645 -0.1378 -0.1984  0.0889
68644W        W69508  23.163  22.288   6.995  0.0066  0.2188  0.0733
68645W        W69509   2.712   9.999  24.043 -0.0055  0.0379  0.2107
68646W        W69510  20.378  25.068  12.705 -0.0715  0.0067  0.1551
68647W        W69511   2.627  18.060   6.679  0.0916 -0.1521 -0.2721
68648W        W69512  15.903  29.022  12.836  0.3057  0.0156  0.2496
68649W        W69513   2.235  14.732  19.422  0.2277 -0.2193 -0.0453
68650W        W69514  12.080  20.298   9.288  0.3324  0.1077 -0.0200
68651W        W69515  16.661  10.405  29.072  0.0252  0.0560  0.1509
68652W        W69516  20.139  19.890  16.137  0.3431 -0.1259 -0.2872
68653W        W69517   6.862  19.339  14.828 -0.0884  0.2350  0.2349
68654W        W69518  10.372   6.595  25.846  0.1107 -0.0253 -0.0278
68655W        W69519  14.365  14.586  26.585 -0.2468 -0.0133  0.0833
68656W        W69520   4.115  13.406  24.748 -0.0020  0.2227  0.0696
68657W        W69521   6.059  23.248  21.523 -0.1360 -0.0544 -0.1632
68658W        W69522  23.791  26.984  29.093 -0.2477 -0.0522 -0.0885
68659W        W69523  10.968  12.739  14.576  0.1720  0.1684  0.1253
68660W        W69524  20.018  27.590   4.190 -0.1229 -0.0313 -0.4594
68661W        W69525   4.663  25.041   6.563  0.1877 -0.1852 -0.0349
68662W        W69526  21.954  27.527   9.145 -0.0442 -0.1606  0.1705
68663W        W69527  25.786  11.976   6.703 -0.1450  0.0543  0.0623
68664W        W69528   7.864  21.743   6.025 -0.0455 -0.0277 -0.5875
68665W        W69529  10.701  22.956  21.102 -0.0930 -0.1143 -0.0171
68666W        W69530   6.437   8.921  11.775 -0.3930  0.0651  0.0953
68667W        W69531   9.705  27.873   8.362 -0.1677  0.0549 -0.0131
68668W        W69532  26.100  18.575   9.590 -0.0679 -0.1013  0.2848
68669W        W69533   6.552  28.783  27.239 -0.0333  0.1735  0.3272
68670W        W69534   9.188  21.949  14.604 -0.3420  0.1303 -0.2489
68671W        W69535   7.301   9.158  16.158  0.1735 -0.1207  0.0807
68672W        W69536  24.550   4.633  10.551 -0.2007 -0.1047 -0.1532
68673W        W69537  16.053   5.073  13.480 -0.1442 -0.1318  0.0061
68674W        W69538  15.727   2.986  20.615  0.3563 -0.2786 -0.0177
68675W        W69539  28.910  25.960   1.974 -0.4804 -0.0415 -0.1991
68676W        W69540   8.900  22.862  28.288  0.0859 -0.2309 -0.1447
68677W        W69541  20.886  16.239   7.834 -0.2107  0.0789  0.2741
68678W        W69542  15.665  28.499  16.626  0.2883  0.3036  0.1786
68679W        W69543  14.441   1.020  18.596 -0.2330  0.1210 -0.0680
68680W        W69544  10.960  26.605  26.354 -0.2450 -0.2556  0.2526
68681W        W69545   1.483  20.599  12.502 -0.3077 -0.3114  0.1416
68682W        W69546  13.069  15.424  16.941  0.0850 -0.0033  0.4199
68683W        W69547  18.109  27.722  17.455 -0.0479 -0.0330  0.2027
68684W        W69548  23.967   9.102  27.450  0.1032  0.1355 -0.0801
68685W        W69549   5.333   1.318  16.272  0.2110 -0.3096  0.0175
68686W        W69550   0.107   2.284  28.201 -0.2086 -0.0707 -0.0115
68687W        W69551  24.349  14.066  17.296 -0.0630 -0.0979 -0.0576
68688W        W69552  16.537  12.147  11.712 -0.1908  0.0683 -0.2010
68689W        W69553  10.727  25.148  11.759 -0.2562  0.0868  0.0212
68690W        W69554   1.800  20.484   6.681  0.4282  0.0813  0.1523
68691W        W69555  27.079   2.933   4.273  0.4622  0.1662 -0.2302
68692W        W69556   2.494   0.564  13.991  0.0239 -0.1280 -0.1554
68693W        W69557  19.174  25.645  17.502 -0.2374 -0.2009  0.4341
68694W        W69558   7.940  18.380  21.516 -0.3060 -0.1242 -0.0208
68695W        W69559  18.947   3.500  14.940 -0.2118  0.1293  0.1970
68696W        W69560  12.839   8.540  22.332  0.1095  0.0531  0.2774
68697W        W69561  27.216  18.924  24.258  0.2681 -0.1882  0.1207
68698W        W69562   1.441  21.443   2.946  0.1129 -0.2856  0.0979
68699W        W69563  15.152  14.624   7.875  0.2965 -0.0702 -0.2822
68700W        W69564   2.940  15.133  15.398  0.1379  0.0279  0.1034
68701W        W69565  28.827  12.508   8.365 -0.2014 -0.0748  0.2094
68702W        W69566  13.268  12.163  13.005 -0.0390 -0.1869  0.1237
68703W        W69567   4.225   1.841   5.549 -0.1526 -0.0636 -0.4974
68704W        W69568  24.118   7.242  24.893 -0.0120 -0.0859 -0.0215
68705W        W69569   7.034  17.639  20.901  0.1639  0.0756  0.1333
68706W        W69570  11.926  16.521  12.072  0.3760 -0.1638  0.1669
68707W        W69571  27.503   9.300   6.493 -0.0148 -0.2765 -0.2885
68708W        W69572   0.394   2.672  26.595 -0.1171  0.0044 -0.0466
68709W        W69573  19.914   9.519  11.395 -0.0377  0.0064  0.2535
68710W        W69574  15.036  24.624  24.735 -0.0154 -0.0982  0.1647
68711W        W69575  15.140  17.149  26.327  0.3878  0.0312  0.0619
68712W        W69576  21.404  18.071  13.992 -0.1202 -0.1106 -0.0236
68713W        W69577  20.952  27.670  20.629  0.0374 -0.1306 -0.0731
68714W        W69578  13.748  11.129  10.639  0.0148  0.1189 -0.0247
68715W        W69579   3.588  23.961  23.856  0.0493 -0.0374 -0.3398
68716W        W69580  24.497  24.475   2.445 -0.1863  0.3666  0.3466
68717W        W69581   6.556  13.648  19.387  0.2087 -0.2545  0.1077
68718W        W69582  27.749   9.379  27.722 -0.0276 -0.1838  0.2084
68719W        W69583  12.875  13.774  18.865 -0.0619  0.1325 -0.1604
68720W        W69584  10.755  17.701  16.478  0.0674  0.0699 -0.2631
68721W        W69585  11.992  25.601  13.055  0.2839 -0.1242  0.2647
68722W        W69586  21.214  26.215   4.466  0.0756 -0.0218  0.1636
68723W        W69587   8.907  24.140   2.187 -0.1019  0.2193  0.0399
68724W        W69588   4.802  17.065   3.081 -0.0424  0.2157  0.0109
68725W        W69589   9.507  14.386  14.894  0.1091 -0.0433 -0.3210
68726W        W69590  20.527  13.791  25.995  0.0043  0.2194  0.1158
68727W        W69591   4.834   8.143  18.395  0.1187  0.1376  0.0483
68728W        W69592  23.770   4.045  10.617 -0.0059  0.1495  0.1048
68729W        W69593   9.766   7.955   6.863  0.0346 -0.0588  0.0979
68730W        W69594  13.189  12.031  25.300 -0.2247 -0.3021 -0.4321
68731W        W69595   9.906   0.661   2.917 -0.3998 -0.0730  0.0603
68732W        W69596  14.287  17.336  25.215  0.0167  0.3335 -0.0600
68733W        W69597  28.178  14.760  12.691 -0.1470 -0.2097 -0.2155
68734W        W69598   2.267  10.929  25.782 -0.1342  0.2559  0.0579
68735W        W69599   8.739   4.412   5.496 -0.2586 -0.2871  0.0497
68736W        W69600  24.951  13.790  12.487  0.1830 -0.1112  0.1362
68737W        W69601  12.549  11.831   2.025  0.1596 -0.0603  0.0741
68738W        W69602   9.363   6.924   4.891  0.0715 -0.2718 -0.2923
68739W        W69603   7.638   5.505  13.478  0.1110 -0.1146  0.1605
68740W        W69604  10.527  25.608  11.898  0.2965 -0.3358  0.0565
68741W        W69605  15.847  19.633   5.707 -0.0019  0.0334 -0.1937
68742W        W69606  18.187  27.861  19.980  0.0886 -0.2770 -0.2502
68743W        W69607  11.783  12.176  23.216  0.2256 -0.1916 -0.6685
68744W        W69608  27.572  17.174   6.373 -0.0448 -0.0198  0.0567
68745W        W69609   9.973  25.986  25.306  0.1168  0.0278  0.0254
68746W        W69610  20.165  23.422   2.370 -0.1154  0.3933 -0.3302
68747W        W69611   6.829  22.991  16.000  0.0475 -0.0310  0.1365
68748W        W69612  11.534  26.064  27.745 -0.1140  0.2117 -0.1181
68749W        W69613  12.091   7.805  27.550  0.0497  0.0115 -0.0246
68750W        W69614  20.746  10.991  20.022  0.0861 -0.0593 -0.0159
68751W        W69615  26.041  25.084   7.954 -0.2197 -0.2947  0.2714
68752W        W69616  11.298  11.598   7.857 -0.2249 -0.1264  0.1100
68753W        W69617  16.439  20.679  21.541  0.0701  0.1379 -0.2591
68754W        W69618   3.996  27.619  25.789 -0.3589  0.0453 -0.1576
68755W        W69619  20.813   0.982  15.259  0.2298  0.1193  0.0889
68756W        W69620  23.876  10.576  28.072  0.2538  0.0417 -0.0390
68757W        W69621  24.476  18.627  12.195  0.0045 -0.0826 -0.2292
68758W        W69622   0.286  28.907  17.844 -0.0190  0.1748 -0.0511
68759W        W69623   2.216  24.456  28.989  0.1201 -0.3189 -0.1223
68760W        W69624   9.771  20.385  13.485  0.2508 -0.1852  0.2631
68761W        W69625  15.429  14.657  21.187 -0.0481 -0.0022  0.0669
68762W        W69626  10.464   7.340  14.077  0.1625  0.1861  0.0757
68763W        W69627   8.583  13.609  10.970 -0.0654  0.0943  0.2025
68764W        W69628   0.232  14.215  12.813 -0.3355 -0.1944  0.0655
68765W        W69629  18.370  17.294  23.830  0.1553  0.0288  0.1763
68766W        W69630  13.174  10.094  10.011  0.4079  0.2244  0.0516
68767W        W69631  15.140  18.943  18.465  0.4405  0.1195 -0.3685
68768W        W69632   6.885  27.929  20.309  0.1797  0.2893  0.1832
68769W        W69633  17.141  18.200   5.026  0.1075  0.0812 -0.0299
68770W        W69634   3.569  20.810  26.214  0.2153  0.1097 -0.1279
68771W        W69635  28.425  22.608   9.794 -0.1810 -0.1609 -0.3295
68772W        W69636  25.428  28.877   2.195  0.2664 -0.3946 -0.1912
68773W        W69637  27.170  25.338  16.298  0.0689 -0.0237  0.0685
68774W        W69638  10.619  24.220   5.435 -0.2066 -0.2840  0.0568
68775W        W69639   4.524  25.559   6.521  0.1599 -0.0494 -0.1943
68776W        W69640  25.468  19.282  20.165  0.0776 -0.0879  0.0737
68777W        W69641   1.464  27.798  22.864  0.0147  0.2277 -0.4487
68778W        W69642  19.596  19.977  20.303  0.1378 -0.1149 -0.0366
68779W        W69643  26.469  15.450   8.723  0.0400  0.1702  0.1244
68780W        W69644  11.333   0.622  26.395 -0.1269 -0.5051 -0.4790
68781W        W69645  14.889  16.727  26.447  0.5019  0.3239  0.1757
68782W        W69646   3.517  20.406  14.887 -0.0289 -0.0561 -0.4502
68783W        W69647   1.009  19.534   9.666  0.1012  0.1493 -0.2320
68784W        W69648   6.733  14.876  11.067  0.0013 -0.0047  0.2469
68785W        W69649  12.368  16.640  22.075  0.2474  0.1406  0.0440
68786W        W69650  10.464  22.048  15.226 -0.0166  0.1148  0.0948
68787W        W69651   8.427   6.861  20.594  0.1466 -0.1642 -0.1265
68788W        W69652   6.984  17.500   7.145 -0.1726 -0.0452  0.0552
68789W        W69653  11.609  18.938   7.215 -0.1638  0.0013 -0.1698
68790W        W69654   9.617  21.716  22.919  0.2983 -0.0141  0.3010
68791W        W69655   6.779  21.511  19.213 -0.2680  0.2126  0.0712
68792W        W69656  10.174  18.349  18.603 -0.1966 -0.4180 -0.1277
68793W        W69657  28.502  13.690   8.537  0.0076 -0.0954  0.1654
68794W        W69658   8.260  23.369  27.820  0.2326  0.0562  0.0033
68795W        W69659  24.504   5.593  12.101 -0.0710  0.0696 -0.0910
68796W        W69660   9.634  22.080  16.568 -0.4148  0.0866  0.1607
68797W        W69661  18.764  28.674   5.807  0.2200  0.0338  0.0045
68798W        W69662  10.964  13.730  21.819  0.1671  0.0729  0.1688
68799W        W69663   1.918  19.803  10.825  0.1953 -0.0186  0.0340
68800W        W69664  13.988  28.331   8.941 -0.4581 -0.0776 -0.1353
68801W        W69665  27.906  13.270   0.478  0.3420 -0.1096  0.0486
68802W        W69666   3.953   8.287  23.535 -0.0075 -0.0344  0.0089
68803W        W69667  14.500  11.192  20.358  0.0052 -0.0857  0.1203
68804W        W69668  11.346  19.795   6.837 -0.1031  0.1925 -0.5591
68805W        W69669  11.856   9.420   8.792  0.1899 -0.1746  0.1168
68806W        W69670  21.681  11.933  16.727 -0.1876 -0.0526 -0.0781
68807W        W69671   6.659  27.273  25.331  0.0149  0.0558 -0.0371
68808W        W69672   1.516  19.118   5.972  0.1488  0.2647  0.2153
68809W        W69673  13.827  24.884   1.390 -0.3254  0.0029  0.2959
68810W        W69674  15.041  15.952   5.232  0.1102  0.0148  0.0926
68811W        W69675  10.952  10.315  22.987  0.0211  0.3335  0.1263
68812W        W69676   3.410  28.447  12.815  0.1095  0.1269 -0.2163
68813W        W69677  17.670  27.841  17.209 -0.2615 -0.0312  0.1803
68814W        W69678  23.162  14.719   0.912  0.0932  0.0266 -0.1701
68815W        W69679  15.312  24.733   5.472 -0.1896  0.2215  0.3259
68816W        W69680   2.656   8.047  13.274 -0.2281  0.0846 -0.0287
68817W        W69681  18.996  21.545  14.973 -0.0938  0.2480  0.1410
68818W        W69682  13.598  23.315   7.713  0.1411 -0.0420 -0.0771
68819W        W69683   0.389   5.227  24.962  0.1206 -0.0398 -0.1435
68820W        W69684  26.243   7.867   1.842  0.1509  0.0697  0.1852
68821W        W69685  17.537  28.731   9.004 -0.2748  0.1603  0.2826
68822W        W69686  15.328  22.901   8.117  0.1083 -0.0659  0.1606
68823W        W69687   4.762  21.278  22.991  0.0840  0.0228 -0.2934
68824W        W69688   4.942   0.401  21.064  0.2440 -0.0886 -0.0791
68825W        W69689  22.711   1.585  15.077 -0.0347 -0.1490 -0.0547
68826W        W69690  14.040  23.579  17.375 -0.0946 -0.3019  0.0878
68827W        W69691  11.559  25.951  18.355 -0.0042  0.0180 -0.0145
68828W        W69692   5.088  23.179   7.793 -0.2137  0.1867 -0.1566
68829W        W69693  14.035   0.928  17.332 -0.1795 -0.0174 -0.0616
68830W        W69694   8.357   2.455  10.988  0.0956  0.3624  0.0287
68831W        W69695   0.935  27.563   1.954  0.0644 -0.0523 -0.1682
68832W        W69696   6.419   8.854  18.750  0.1281 -0.1890 -0.1224
68833W        W69697   8.876  25.156  19.079  0.2592 -0.0592 -0.1499
68834W        W69698  19.968   9.820  19.828  0.1532  0.2049  0.1102
68835W        W69699  11.998  12.868  14.880 -0.0344  0.2621  0.3367
68836W        W69700   8.729  14.505  23.993 -0.0435  0.0068 -0.0146
68837W        W69701   5.598   9.422  14.174  0.0084 -0.1764 -0.0686
68838W        W69702   8.516  22.719   1.258  0.1476 -0.1271  0.0431
68839W        W69703   4.357   0.100  14.363  0.1094  0.0165 -0.1303
68840W        W69704   1.187  10.250   8.972  0.1906  0.2801  0.0597
68841W        W69705  22.327  24.084  18.564  0.2447  0.1510  0.0314
68842W        W69706   4.815   0.537   9.260 -0.0487  0.3019  0.0648
68843W        W69707  26.389  17.857  10.892 -0.0325 -0.1720 -0.0879
68844W        W69708  28.411  11.865   1.610  0.0389 -0.2077  0.2808
68845W        W69709  28.644   6.367  28.834  0.1627  0.1078  0.0473
68846W        W69710   2.128  18.483   5.229 -0.0616 -0.0868  0.1006
68847W        W69711   2.545  27.414   8.984 -0.1793  0.3155  0.0652
68848W        W69712  12.437  22.811   7.503 -0.0003  0.1572 -0.0060
68849W        W69713   2.502  13.800  28.427  0.2878 -0.2133 -0.1078
68850W        W69714  28.686   2.475  11.770  0.3878 -0.0114  0.0800
68851W        W69715  15.566  18.774  13.514  0.0973 -0.0824 -0.0146
68852W        W69716   7.718  14.789  19.234 -0.0102 -0.0238 -0.0436
68853W        W69717   2.656  11.977  16.448 -0.0088  0.0885 -0.1745
68854W        W69718  10.449  27.944  11.443  0.2090 -0.1158 -0.0531
68855W        W69719  11.557  20.076  22.899  0.1119  0.0366  0.1011
68856W        W69720  29.061  13.985  17.588  0.0075 -0.1270  0.3396
68857W        W69721  11.404  24.289  18.607 -0.0431 -0.1557  0.0300
68858W        W69722   2.633   0.222   6.332  0.1928 -0.3377 -0.1403
68859W        W69723  19.086   8.239  14.847  0.0121 -0.1556  0.2499
68860W        W69724  26.084   9.835  11.353  0.3261 -0.1812  0.0396
68861W        W69725   4.378  22.230   7.789  0.2637  0.0885 -0.1891
68862W        W69726  10.263  26.050  23.943  0.1890 -0.3165  0.0725
68863W        W69727  17.382  22.230   2.117 -0.2162  0.2212  0.1397
68864W        W69728  12.921   1.050   9.535  0.2658 -0.2996  0.1110
68865W        W69729  26.808   0.308  23.053  0.0512  0.1389 -0.1060
68866W        W69730  28.917  16.378  17.289 -0.1945  0.3127 -0.2035
68867W        W69731  28.715  26.072   3.904  0.3107  0.2168 -0.1152
68868W        W69732   5.663  17.482  17.318 -0.3584  0.0991 -0.3192
68869W        W69733  20.494  28.847  12.328  0.0280  0.2868  0.0819
68870W        W69734  15.016  25.148  20.514  0.2085 -0.1656 -0.0871
68871W        W69735   7.428  11.007   7.649 -0.1157 -0.0404 -0.2082
68872W        W69736  28.409  18.175  18.721 -0.0882 -0.0724 -0.0181
68873W        W69737  21.156  23.066  14.386 -0.1580  0.0476 -0.0197
68874W        W69738   6.205  27.641   8.195  0.0645 -0.1583  0.0564
68875W        W69739   1.657   2.469  10.608  0.1947 -0.1027  0.2190
68876W        W69740  23.591   9.330   1.074  0.1662 -0.2545 -0.0015
68877W        W69741   7.505  20.869  26.554 -0.1049 -0.1263 -0.0922
68878W        W69742   1.885  18.947  26.050 -0.1302  0.1327 -0.0873
68879W        W69743  22.622  19.483   2.913  0.2076 -0.0779 -0.0055
68880W        W69744   4.603   9.443  17.973 -0.3052 -0.1993 -0.2865
68881W        W69745   3.194  21.865  13.822  0.1957 -0.0560 -0.2551
68882W        W69746  10.583  13.575  10.762  0.1868 -0.0682  0.0205
68883W        W69747  19.964  21.717  15.859  0.0583  0.1090 -0.0580
68884W        W69748   0.120  16.353   3.355 -0.1805 -0.2130 -0.1437
68885W        W69749   5.515  19.663  14.659  0.1023 -0.0298  0.2499
68886W        W69750  10.971  22.340  28.457  0.0997  0.1076  0.0387
68887W        W69751   3.345   0.452  12.342  0.1201 -0.0214 -0.1149
68888W        W69752   8.244  29.097  17.114 -0.0206  0.1828  0.0036
68889W        W69753  13.412  27.713  13.985 -0.1443 -0.1875 -0.0440
68890W        W69754  11.319  12.938  21.177  0.3957  0.0662  0.0271
68891W        W69755  19.279   7.609   0.987 -0.1543 -0.2236  0.0834
68892W        W69756  16.010   2.520  15.118 -0.1696  0.1721 -0.2064
68893W        W69757   7.580  15.791  10.443  0.2935  0.1731 -0.1658
68894W        W69758   4.291  15.448   3.918  0.3389  0.1131  0.0137
68895W        W69759  16.138  17.793   5.355  0.0793  0.0757  0.1848
68896W        W69760  13.893   9.922   7.419  0.5851 -0.2513  0.0812
68897W        W69761   0.667  19.937  21.227  0.1413 -0.1207 -0.1766
68898W        W69762  12.060  21.480   4.859 -0.0562 -0.3258 -0.1168
68899W        W69763  14.411  16.799  26.364  0.2081  0.0236  0.2222
68900W        W69764  21.610  19.002   6.464 -0.0581 -0.2693 -0.1266
68901W        W69765  13.699   1.190  13.485 -0.1307 -0.3066 -0.3326
68902W        W69766   9.860  23.009  11.764  0.0258  0.2058  0.0436
68903W        W69767   9.341   9.858   4.994  0.0464  0.0833 -0.1419
68904W        W69768   5.989  21.928  18.124 -0.1825 -0.0698  0.0914
68905W        W69769   3.887   7.659   3.952 -0.0216 -0.0828  0.1157
68906W        W69770   9.470   5.199  11.527  0.1594  0.2607  0.0389
68907W        W69771   2.084  20.099  21.984 -0.0666  0.2187  0.1306
68908W        W69772  21.290  24.325  27.207  0.0229 -0.1826  0.0013
68909W        W69773   3.805   9.152  13.692 -0.2177  0.0364 -0.0444
68910W        W69774  18.397  20.602  11.457  0.0232  0.0858  0.2311
68911W        W69775  13.392  23.023  11.678 -0.0127  0.0295  0.0399
68912W        W69776  26.934  11.174  16.500  0.0123  0.0144 -0.1207
68913W        W69777   9.301  26.507  16.127 -0.0136  0.1070 -0.1593
68914W        W69778   7.539   1.542   5.953  0.3287 -0.2124  0.1672
68915W        W69779  16.265  24.752  13.173 -0.3027  0.4673  0.2192
68916W        W69780  12.822  26.867   7.648 -0.2135 -0.0869 -0.1410
68917W        W69781   8.665   9.526  27.869  0.1030  0.2685 -0.0536
68918W        W69782  21.091  13.307  17.510 -0.1035 -0.0715 -0.3117
68919W        W69783  11.239   1.015   5.018  0.0524  0.0199  0.0062
68920W        W69784   9.319  10.792   5.040  0.0577 -0.1813 -0.0244
68921W        W69785   7.712  20.527  21.172 -0.1619 -0.1027  0.1395
68922W        W69786   9.007  28.521  20.987  0.0223  0.0130 -0.0201
68923W        W69787  19.240  19.596  19.618  0.2167 -0.2883  0.1522
68924W        W69788  23.943  24.108  10.552 -0.0881  0.2299  0.0418
68925W        W69789   8.796  20.348  11.990  0.2932 -0.0368 -0.2117
68926W        W69790  13.742   0.004  21.869  0.1567  0.1043  0.1736
68927W        W69791  26.879  19.866  16.021  0.0843 -0.2081 -0.0130
68928W        W69792  29.052  13.048  13.466  0.2050  0.3116 -0.0573
68929W        W69793  28.791  24.924   2.513 -0.5040 -0.0610  0.1835
68930W        W69794  20.475  12.437   8.643  0.0751 -0.1159  0.1764
68931W        W69795  20.488  27.570   6.764  0.0430 -0.0681  0.0094
68932W        W69796   3.726  22.267   2.224  0.0757 -0.4821  0.0929
68933W        W69797  22.813  17.089   8.263  0.0226  0.0308  0.1557
68934W        W69798  12.160   3.551   8.813 -0.4122 -0.2873  0.0551
68935W        W69799  16.616  18.426  23.797  0.1004  0.0049  0.1826
68936W        W69800   9.644  10.211  13.115 -0.0478 -0.1527 -0.1868
68937W        W69801   3.984   4.014   4.578 -0.0029  0.1682 -0.1099
68938W        W69802  16.148  25.757  14.780 -0.2336  0.1079 -0.3098
68939W        W69803  20.639   7.902  28.697 -0.1368  0.1840 -0.2370
68940W        W69804  23.421  18.107  12.433 -0.0508 -0.1610  0.1788
68941W        W69805  17.336  11.529  15.181  0.1940 -0.1208 -0.1778
68942W        W69806  12.403   6.220  16.299  0.0466 -0.2652  0.0175
68943W        W69807   5.670  16.354  18.825 -0.0490 -0.1297  0.5281
68944W        W69808   4.050  25.501  15.823  0.1294 -0.0536 -0.1467
68945W        W69809  15.242   1.565   8.078  0.3418 -0.2039  0.2167
68946W        W69810  12.326  21.206  26.709  0.0450  0.1153  0.2453
68947W        W69811   0.884  21.904   0.074  0.1325  0.0736 -0.0490
68948W        W69812   9.469  26.670  27.756  0.1360  0.2661  0.4093
68949W        W69813  11.214  10.968  26.102 -0.0819 -0.4260  0.2054
68950W        W69814  22.200  14.083   1.976  0.0771 -0.1795  0.1396
68951W        W69815  22.774  16.166  27.530 -0.0255  0.1372 -0.1729
68952W        W69816  15.745   6.054  12.207  0.0019  0.0335 -0.1626
68953W        W69817  19.485   3.278  28.715 -0.0845  0.2552  0.2642
68954W        W69818   1.909  28.116  21.947  0.0389  0.2628 -0.0867
68955W        W69819   1.938  27.556  11.682  0.1938  0.0890  0.0919
68956W        W69820  21.748  16.832  15.647  0.1726  0.0267  0.1944
68957W        W69821  27.785  12.773  10.230  0.0086 -0.1282  0.0691
68958W        W69822  20.316   3.221   5.637  0.0345  0.2359  0.2620
68959W        W69823  27.762  11.643   7.793  0.0969 -0.0430 -0.1348
68960W        W69824   7.456  21.384   8.064  0.1909 -0.0227  0.0586
68961W        W69825   9.622   4.955   5.616  0.1063  0.0127 -0.1781
68962W        W69826  13.158  20.624  10.499  0.0467  0.1058  0.2075
68963W        W69827   4.790  12.016  29.133 -0.0660 -0.0315 -0.0352
68964W        W69828  28.113  28.716  15.913  0.0319  0.0785 -0.1167
68965W        W69829   7.484  29.117   2.861  0.0162 -0.1133  0.2631
68966W        W69830  19.629  13.754  11.660 -0.1183  0.3276 -0.1078
68967W        W69831  27.115  26.888  28.607 -0.2239 -0.3429 -0.1480
68968W        W69832  23.908  11.918  14.466  0.2488  0.1250 -0.0588
68969W        W69833   4.045  15.103  15.767 -0.0444  0.3169 -0.2244
68970W        W69834  23.229   6.542  17.888  0.0619 -0.0074  0.0719
68971W        W69835  24.954  18.271  10.242  0.2440 -0.0430  0.5435
68972W        W69836   1.282  18.945  18.996  0.1880 -0.5596  0.0450
68973W        W69837  25.493  25.508   0.726 -0.1544 -0.0798  0.0832
68974W        W69838  26.013  24.181  15.327  0.1129  0.1732  0.1332
68975W        W69839  27.234   2.306  16.871 -0.0481  0.0591 -0.1338
68976W        W69840  11.956   8.880  16.438 -0.1828  0.1267  0.1463
68977W        W69841   8.330  21.454   0.661 -0.0176  0.0206  0.2328
68978W        W69842  11.104  11.048  23.263 -0.1703  0.2002 -0.2128
68979W        W69843   6.076   5.382  24.963  0.0442  0.0201  0.0985
68980W        W69844  19.040  15.561  24.082  0.1375  0.3152 -0.0319
68981W        W69845  21.873  15.342  11.760  0.1885  0.2285 -0.2653
68982W        W69846   1.565  24.592  21.611 -0.2852  0.0270 -0.2914
68983W        W69847  10.224  28.963  10.737  0.0908 -0.1813 -0.1194
68984W        W69848   8.342  11.884   3.430 -0.1115 -0.0472 -0.3372
68985W        W69849   9.800  23.866  14.858  0.1928 -0.1971 -0.1803
68986W        W69850   4.260  19.057  20.100  0.2658 -0.0577  0.1654
68987W        W69851   3.392   7.831  23.256  0.1617  0.2114  0.2325
68988W        W69852   7.159  25.778   9.006 -0.2079  0.1245 -0.0530
68989W        W69853  25.240  20.719  18.111 -0.1272 -0.1231  0.0095
68990W        W69854   5.237   9.286  15.438 -0.4727 -0.3514 -0.1462
68991W        W69855  12.227  12.030  18.865  0.2038 -0.0997  0.0853
68992W        W69856  27.799   8.003  13.764 -0.1913  0.2701 -0.0746
68993W        W69857   3.057  24.985   3.150  0.1181  0.1062 -0.1260
68994W        W69858  20.366   5.970  26.394  0.0243  0.2686 -0.0875
68995W        W69859  18.301  12.335  16.194 -0.1418  0.2641  0.0902
68996W        W69860  13.363  27.840  22.673 -0.1335 -0.3706  0.0869
68997W        W69861   7.554  15.769   3.048 -0.1033  0.0396  0.0740
68998W        W69862  19.538  13.954  12.091 -0.1414 -0.2252  0.0048
68999W        W69863  27.869  13.139  12.861 -0.1558  0.3053  0.0983
69000W        W69864  12.732  18.478  24.154 -0.0753  0.0715  0.4118
69001W        W69865   2.087  26.608   2.257  0.2266 -0.1554 -0.0037
69002W        W69866  17.878  23.565   0.327 -0.0293 -0.2032 -0.1174
69003W        W69867  20.341  17.461  10.686 -0.0211  0.1803  0.1487
69004W        W69868  15.420  26.415  15.881  0.0100 -0.3005  0.3276
69005W        W69869  20.411  22.260   1.860  0.1191  0.0752  0.0277
69006W        W69870   9.236  14.320  21.032 -0.0632  0.2314  0.0270
69007W        W69871  26.630  13.197  22.000 -0.1057  0.3576  0.0155
69008W        W69872   9.503  17.526  17.886  0.0436 -0.2945 -0.0272
69009W        W69873  21.293  17.769   2.996 -0.2199 -0.0872 -0.0740
69010W        W69874  19.894  24.898  28.835 -0.3083  0.0522 -0.0892
69011W        W69875   5.739  23.042   0.113 -0.1953 -0.1916  0.2011
69012W        W69876   5.248   5.290   2.536 -0.1980  0.0111 -0.0408
69013W        W69877  12.115   3.648  10.895  0.1246  0.0419  0.2091
69014W        W69878  28.293  23.810  17.044  0.0478  0.2680 -0.1622
69015W        W69879   3.924  16.324  19.301  0.2447  0.1599  0.0546
69016W        W69880  22.527   1.818  14.397  0.0401  0.0733  0.1137
69017W        W69881   3.625   5.306  23.007  0.1863  0.1069  0.3243
69018W        W69882  27.787  17.292  18.823 -0.2915 -0.1039  0.0230
69019W        W69883   2.204  16.204  25.053 -0.3271  0.1096 -0.1062
69020W        W69884  13.302  24.053  12.173  0.1006  0.2762 -0.0809
69021W        W69885  14.748  12.997   1.905  0.1328 -0.0433  0.0599
69022W        W69886   1.586  25.525   1.117 -0.0995 -0.0300  0.1553
69023W        W69887  18.117   0.699  17.141 -0.3309  0.4325 -0.1033
69024W        W69888   0.351  18.435  26.742  0.0786  0.1056  0.0007
69025W        W69889  16.461   8.195  15.944 -0.1007  0.4220  0.1695
69026W        W69890  22.549  17.605   1.747  0.0467 -0.1610  0.0010
69027W        W69891   6.554  24.055  17.751 -0.2756 -0.0967  0.2069
69028W        W69892   9.644  15.242   5.142  0.1046  0.0903  0.2653
69029W        W69893   4.153  28.932  26.130 -0.1014 -0.0417  0.3099
69030W        W69894   7.028  20.676   3.793 -0.1141 -0.0466 -0.0126
69031W        W69895   7.269  24.618   4.199 -0.2158 -0.0228  0.0553
69032W        W69896  17.558   2.317  24.391  0.1834 -0.0158 -0.2774
69033W        W69897   1.574   6.016   4.991  0.0231  0.1271 -0.0255
69034W        W69898  14.031   7.444  17.728  0.0063  0.1630 -0.2466
69035W        W69899  27.924  10.444  20.943  0.0463  0.4907 -0.0069
69036W        W69900  18.195  16.376  15.157 -0.0709  0.2899 -0.0955
69037W        W69901  11.730  28.290  26.307  0.2751  0.0170 -0.1270
69038W        W69902  14.486  18.499   2.227 -0.1744 -0.2307  0.2088
69039W        W69903  17.876  23.407   0.809 -0.1736  0.2678 -0.0726
69040W        W69904   2.717  14.521   5.131 -0.2907 -0.0057  0.1624
69041W        W69905   8.848   3.154  17.542 -0.2149 -0.1482  0.0772
69042W        W69906   6.158   0.379  27.696 -0.2459 -0.0450 -0.2096
69043W        W69907  19.498  12.225   9.668 -0.0860  0.0953  0.1745
69044W        W69908   9.539   4.273  28.297 -0.0518  0.0266 -0.0851
69045W        W69909  12.744   2.604   4.585 -0.2039  0.1506  0.1996
69046W        W69910   3.378  21.631   3.286 -0.1603 -0.0599  0.2947
69047W        W69911   6.213  19.828  16.409 -0.1530 -0.3229  0.2946
69048W        W69912  19.939  13.872  19.285  0.2684  0.1071  0.2940
69049W        W69913   3.967   8.218   1.601 -0.2140  0.0788 -0.0877
69050W        W69914  24.828   3.394  10.280 -0.1511  0.0173  0.1381
69051W        W69915  25.783  27.858  21.731 -0.0021 -0.2229  0.0523
69052W        W69916  10.168  21.385   2.802  0.0363  0.2497 -0.2529
69053W        W69917   6.281  28.360  10.485  0.2197 -0.2181 -0.0079
69054W        W69918   1.792  26.736  26.185 -0.0931  0.5591 -0.1171
69055W        W69919   8.225   0.454   9.660 -0.2682  0.0075 -0.2578
69056W        W69920   2.165   9.098  15.702 -0.2240 -0.2874 -0.4167
69057W        W69921  28.629  17.503   9.346 -0.7115  0.1884 -0.1875
69058W        W69922   9.738  13.353   6.699 -0.0552  0.1464  0.4141
69059W        W69923  13.039  13.695   0.690  0.0605 -0.1633 -0.0348
69060W        W69924  21.547  11.339  12.516 -0.0364 -0.3846  0.0711
69061W        W69925   7.105  18.287  22.125  0.0209 -0.0429 -0.2048
69062W        W69926  26.563  13.090  22.525 -0.2880 -0.1939  0.0994
69063W        W69927   0.564  14.143   2.361 -0.0758  0.0019  0.2243
69064W        W69928  21.364  25.806  18.860  0.0672  0.2361 -0.2820
69065W        W69929  15.070  26.340  16.631 -0.0553  0.1800  0.0963
69066W        W69930  19.191  24.104  25.365 -0.1939 -0.2983 -0.1547
69067W        W69931  20.477  27.507  19.437 -0.0923  0.1303  0.0374
69068W        W69932  25.083  11.600  16.730  0.2445  0.1438 -0.0626
69069W        W69933  15.380  14.209  28.423  0.0467 -0.3115 -0.0477
69070W        W69934  27.787   6.561  13.409 -0.2043  0.2107 -0.0426
69071W        W69935  21.761  23.005  27.209  0.2128  0.0306 -0.3614
69072W        W69936  27.074  14.455  28.074 -0.1399 -0.0590  0.0577
69073W        W69937  23.468  28.861  21.550  0.1573 -0.0164  0.1672
69074W        W69938   0.582  25.416  26.828 -0.1647 -0.2294  0.0918
69075W        W69939   5.561   2.183  10.326  0.0254 -0.1687  0.0560
69076W        W69940   3.559   3.074   7.819  0.1684 -0.1384 -0.2318
69077W        W69941  21.855  28.884  13.183  0.0746  0.3733 -0.2308
69078W        W69942  20.635   7.865   7.216 -0.0679  0.1478  0.1059
69079W        W69943   9.659  15.271  25.460  0.2406 -0.1129 -0.1241
69080W        W69944  20.386   3.264  17.862  0.2508 -0.0589 -0.2752
69081W        W69945  10.605   6.189  11.643 -0.1957  0.0581  0.2416
69082W        W69946   4.051  27.588  27.972  0.0668  0.1867 -0.1106
69083W        W69947  10.931   2.370  17.803  0.0459  0.0910  0.1795
69084W        W69948  13.758  26.839  21.749  0.1051 -0.1062 -0.2793
69085W        W69949  10.302   9.633  15.359 -0.2044  0.2860  0.1416
69086W        W69950  19.057  13.690  27.194 -0.1133 -0.1872 -0.0051
69087W        W69951  10.861  19.888   6.074 -0.2924 -0.2034  0.2477
69088W        W69952   5.746  11.324  12.443 -0.2202 -0.0366 -0.3098
69089W        W69953  21.583   7.919   6.881 -0.0714  0.2053 -0.0060
69090W        W69954  17.987   4.572  13.455 -0.0214 -0.3794  0.2232
69091W        W69955  10.638  28.427  25.116  0.0135  0.3343 -0.1156
69092W        W69956  12.816   1.590  28.676 -0.0117  0.2549 -0.2353
69093W        W69957  19.948   5.533  26.172  0.0622  0.2651  0.0994
69094W        W69958   0.735  28.337  20.522 -0.3660 -0.1470 -0.2944
69095W        W69959  27.552   7.791  11.767  0.0871 -0.0582  0.1945
69096W        W69960  24.839  22.200  15.321 -0.0900  0.1033  0.0952
69097W        W69961  10.433   5.117  25.593 -0.0174  0.4051 -0.0290
69098W        W69962   7.770  21.939   9.603  0.0520  0.1996 -0.0200
69099W        W69963  19.911  19.088  19.201 -0.0165  0.2052  0.0281
69100W        W69964   3.100  13.326  28.875  0.3347  0.1317 -0.0374
69101W        W69965   9.515  15.218  16.689 -0.3095  0.0715  0.1515
69102W        W69966  26.148  27.906  15.734  0.2464  0.0324  0.0993
69103W        W69967  20.488  16.467   8.020  0.0768  0.2439 -0.0481
69104W        W69968  15.304   6.758   4.645 -0.1250 -0.2964 -0.1507
69105W        W69969  26.473  26.550  19.715  0.0274  0.2157 -0.2337
69106W        W69970  17.893  19.645  10.140  0.2289  0.2398 -0.0710
69107W        W69971  16.098   1.576   2.532  0.1150 -0.0222 -0.2109
69108W        W69972  13.230  22.857   4.833  0.0658  0.0183 -0.0630
69109W        W69973   0.353  10.102   9.348  0.2867  0.1567  0.0258
69110W        W69974  16.560  17.123  11.209 -0.0217  0.1350 -0.0846
69111W        W69975  12.398  13.990  18.742 -0.0463 -0.0978 -0.0218
69112W        W69976   7.553  10.251  12.166  0.0596  0.0550 -0.1320
69113W        W69977  21.183  24.754  19.827 -0.0369 -0.1669  0.2773
69114W        W69978  20.405   9.597  18.204  0.1455 -0.2945 -0.2756
69115W        W69979  13.735  22.889  25.671 -0.0812  0.2901 -0.1233
69116W        W69980  14.787   8.298   8.821 -0.0639 -0.0110 -0.1264
69117W        W69981  22.188  22.158   8.006 -0.3620  0.2147 -0.0431
69118W        W69982   9.436  26.602  13.282 -0.0916 -0.0948 -0.3114
69119W        W69983  22.614  12.733   6.102 -0.0128  0.3733 -0.4543
69120W        W69984  24.323  19.365  28.592  0.0195  0.0151 -0.0796
69121W        W69985   1.343   7.930  11.658 -0.2155 -0.2126 -0.1148
69122W        W69986   8.611  21.498  15.714 -0.1763 -0.1564  0.1583
69123W        W69987  24.689  10.740   5.622 -0.3280  0.2499  0.0249
69124W        W69988   8.102   6.598  24.352 -0.3504  0.3078 -0.0468
69125W        W69989  24.486   7.147  24.111  0.0158  0.0613 -0.2872
69126W        W69990  24.144  27.304  21.483 -0.0449  0.0394  0.2361
69127W        W69991   8.609   5.937  14.943  0.4430 -0.3404  0.0802
69128W        W69992   7.321  18.429   8.403  0.2646  0.3173 -0.1279
69129W        W69993   5.551  13.076   7.525  0.3178 -0.0687 -0.1029
69130W        W69994  19.592  19.622   3.480 -0.1424 -0.2420  0.1012
69131W        W69995  27.934  15.313  11.287 -0.0790 -0.1770  0.2371
69132W        W69996  18.282  20.286   8.771  0.1549  0.0121 -0.1886
69133W        W69997  13.421  24.287  17.831 -0.2293  0.1224 -0.1420
69134W        W69998  12.041  21.181  23.688  0.1673  0.0581 -0.0615
69135W        W69999   3.456  18.154   0.148 -0.1514  0.0297  0.1136
69136W        W70000   8.271   9.470  22.716 -0.3409 -0.0141 -0.0144
69137W        W70001  15.154  21.063   4.457  0.0059 -0.0200 -0.0222
69138W        W70002  18.467  27.416  23.429  0.1265 -0.0882  0.1883
69139W        W70003   7.906  22.447  17.574 -0.0128 -0.0077  0.2575
69140W        W70004  19.925  26.320   3.301 -0.3005  0.1788  0.0391
69141W        W70005  13.786  20.555  20.635 -0.0118 -0.0378  0.1326
69142W        W70006  14.977  13.252   0.327  0.2273 -0.5406 -0.0552
69143W        W70007  17.318  23.548  13.442 -0.2131  0.1239 -0.2972
69144W        W70008  18.060   0.894   2.393 -0.1892 -0.0752 -0.4403
69145W        W70009   8.930   2.614  26.658 -0.3161 -0.0793 -0.0117
69146W        W70010   9.036  19.019  17.910  0.3211  0.3250 -0.2064
69147W        W70011   7.513  24.714   3.528  0.0989 -0.1789 -0.1414
69148W        W70012   6.298  27.746  21.026 -0.2505 -0.1370  0.2339
69149W        W70013   2.521  15.893   2.916  0.1656  0.2092 -0.0805
69150W        W70014   8.002  22.852   0.528  0.3340  0.0392 -0.2259
69151W        W70015  11.235   7.006  11.203 -0.1172 -0.0837 -0.3319
69152W        W70016   8.452  18.756  20.856  0.0918 -0.0247  0.0358
69153W        W70017   0.150  19.408  26.126  0.2404  0.2119  0.2347
69154W        W70018   4.960  26.729  14.188 -0.2111  0.0912  0.1327
69155W        W70019  27.403  18.102   9.031 -0.4804 -0.2352 -0.0326
69156W        W70020  19.004   0.787  23.186 -0.1605 -0.2201 -0.3464
69157W        W70021  25.413   7.423  13.576  0.0610  0.1395  0.0017
69158W        W70022   1.535  17.728  13.023 -0.0607 -0.2872  0.2543
69159W        W70023  11.473   9.416  21.717 -0.1087 -0.0427  0.1969
69160W        W70024  20.597  12.212   4.100 -0.2384  0.1506  0.1422
69161W        W70025   7.779  25.467  13.544 -0.1062 -0.1111  0.4159
69162W        W70026   1.190  28.480   2.907 -0.0577  0.2671 -0.1391
69163W        W70027  20.617  28.642  13.329  0.2313  0.0217 -0.1697
69164W        W70028  13.396  17.728  18.684  0.0436 -0.3431  0.0199
69165W        W70029   5.499  22.170  23.149 -0.1076 -0.0345  0.2226
69166W        W70030   1.094  11.568  18.176 -0.0795  0.2809  0.1544
69167W        W70031  26.160   6.478   4.835 -0.3199  0.0553 -0.0291
69168W        W70032  24.818  21.042  16.739  0.0999 -0.1869  0.3129
69169W        W70033   7.407   4.197  21.237  0.0818  0.2168 -0.2994
69170W        W70034   3.989   9.085  15.875  0.0808  0.0083 -0.3093
69171W        W70035  16.346  18.336   2.805 -0.3992  0.0048 -0.1358
69172W        W70036   2.706  14.622  15.600  0.4288 -0.2692  0.0180
69173W        W70037  14.142  22.074  15.837  0.0315  0.1533  0.3529
69174W        W70038  18.825  27.241  19.733  0.0566  0.3426 -0.1126
69175W        W70039   7.048  11.903  19.834 -0.0288 -0.0555  0.0912
69176W        W70040  10.941  20.751   6.503  0.3223 -0.0348 -0.3304
69177W        W70041  17.201  22.906  25.211 -0.0692  0.1830 -0.0571
69178W        W70042  14.499  25.713  21.557  0.0784 -0.1860  0.1403
69179W        W70043  13.795  11.552  15.335  0.1949 -0.3487  0.4560
69180W        W70044   3.126   5.695  27.448 -0.0286 -0.0546  0.0296
69181W        W70045  11.452   8.237   8.205  0.1198  0.2509 -0.0440
69182W        W70046  17.447  16.311  24.857 -0.2146  0.4064  0.2644
69183W        W70047   4.999  20.365   6.822  0.1536 -0.1695 -0.0501
69184W        W70048  21.840  26.659  18.404  0.5102 -0.1495 -0.2177
69185W        W70049  15.072  20.880  14.735  0.0700  0.1529 -0.1669
69186W        W70050  10.716  11.142  24.318  0.1647 -0.1230 -0.2776
69187W        W70051  20.938  19.082   1.826  0.2550 -0.1091  0.5044
69188W        W70052  23.079  13.270  14.587 -0.0638  0.2159 -0.2782
69189W        W70053  17.606   6.326   5.628  0.0636  0.1217  0.0350
69190W        W70054  12.538   4.518  27.976 -0.0991 -0.3097  0.0004
69191W        W70055   9.176   6.428  24.250  0.2137 -0.0669 -0.0296
69192W        W70056   5.860  15.073   1.305  0.2043 -0.1698 -0.1758
69193W        W70057  17.237  12.626  11.063 -0.0321  0.0648 -0.0683
69194W        W70058   8.168   9.777  25.824 -0.2792 -0.1069 -0.3528
69195W        W70059  24.202  27.121   0.403  0.0379  0.0606  0.0810
69196W        W70060  18.822   6.605  26.574  0.0456  0.0231  0.2699
69197W        W70061  12.095  21.348   9.208 -0.2905  0.1021  0.1440
69198W        W70062  29.104  16.778  16.060 -0.1679  0.0489 -0.1640
69199W        W70063  12.014  17.139  10.366 -0.0976 -0.0163 -0.3198
69200W        W70064  10.149  25.500  13.061  0.0461  0.1753 -0.0487
69201W        W70065   5.291  13.876  11.527 -0.1422  0.1178  0.0915
69202W        W70066  17.233  18.903  14.008  0.1925 -0.1190 -0.1342
69203W        W70067  25.304  26.996  16.737  0.0524 -0.0877  0.0860
69204W        W70068  11.784   8.629  17.506  0.0132  0.0448 -0.0260
69205W        W70069  19.255  20.941  28.898 -0.0398  0.1839  0.4453
69206W        W70070   5.779  20.930  15.500  0.1771 -0.0071  0.0306
69207W        W70071  20.226   1.050   7.467 -0.2628 -0.2543  0.0636
69208W        W70072  23.295  23.038  19.711  0.2776  0.0922  0.1860
69209W        W70073   7.432  12.033  26.191 -0.2493 -0.1123 -0.0452
69210W        W70074  26.154   3.374  24.914 -0.2986  0.1062 -0.1923
69211W        W70075   7.133   6.293  11.166  0.3145 -0.0750 -0.1596
69212W        W70076   5.046  11.717  26.383  0.3303  0.1715 -0.1715
69213W        W70077   1.714  10.827  17.361  0.1521  0.0542  0.0930
69214W        W70078   8.271   9.154  12.020  0.0558  0.1709  0.0347
69215W        W70079  16.040  14.407  23.918  0.0940  0.0298  0.0907
69216W        W70080   9.564  16.246  22.244  0.4563  0.0795 -0.0511
69217W        W70081  21.338  14.930  22.070 -0.0499 -0.0072  0.1299
69218W        W70082   1.255   7.995  16.469 -0.0312  0.0045  0.4755
69219W        W70083  20.215   7.216  19.224 -0.1991 -0.0907  0.0582
69220W        W70084  28.304  28.273  22.130 -0.1808  0.1581 -0.1307
69221W        W70085  14.687  17.593  13.646  0.0477  0.2114 -0.0243
69222W        W70086  17.753  24.141   1.743  0.2317  0.0940 -0.0087
69223W        W70087   1.542   4.461  13.780  0.0670 -0.2601 -0.2624
69224W        W70088   3.553  17.521  24.844 -0.0115  0.1733 -0.0991
69225W        W70089  16.866  24.473   2.551 -0.0682  0.2255 -0.0384
69226W        W70090  10.462   1.656   8.880 -0.3216 -0.0464 -0.1836
69227W        W70091  14.839  27.850  11.945 -0.0819 -0.0082 -0.0894
69228W        W70092  12.667   2.611  23.191 -0.1902 -0.1954 -0.0104
69229W        W70093  15.891   8.567  18.971 -0.1484  0.2330 -0.1358
69230W        W70094  18.841  21.796  24.077  0.1994 -0.1659 -0.0941
69231W        W70095  27.555   0.453  20.865 -0.1677 -0.1076  0.1170
69232W        W70096  26.581  16.983  28.567 -0.0089  0.1536 -0.1770
69233W        W70097  29.069  25.151  20.692  0.0146  0.0371  0.2670
69234W        W70098  13.461   2.805  12.645  0.3031  0.1185 -0.1571
69235W        W70099   5.748  19.837  12.269  0.3314  0.1986  0.1961
69236W        W70100  28.718  16.345   9.712  0.1493 -0.1502 -0.0021
69237W        W70101  26.292  24.535  22.371  0.2840  0.0111 -0.1822
69238W        W70102  11.426   1.295  18.527  0.4403  0.1957  0.0012
69239W        W70103  21.690   3.058  14.931  0.1312  0.0721 -0.0610
69240W        W70104  14.300  21.058  27.205  0.0105  0.0164 -0.2510
69241W        W70105  13.763  22.507   9.680  0.1048 -0.0806  0.1436
69242W        W70106   9.917  14.806  17.324 -0.0497 -0.1782  0.0589
69243W        W70107  25.817   5.847  17.114  0.0705 -0.2198  0.1210
69244W        W70108  10.234  14.939  16.474 -0.0198  0.0230  0.0437
69245W        W70109  16.419  13.773  17.796  0.0351  0.1683  0.0256
69246W        W70110  14.927  28.354   9.562  0.3656 -0.2698 -0.1055
69247W        W70111  22.283  12.036  14.654 -0.1546  0.1529 -0.2678
69248W        W70112  25.666  27.971  14.813  0.0964 -0.3929 -0.2377
69249W        W70113  12.051  22.686  13.770  0.1822 -0.2921  0.2723
69250W        W70114  20.376  25.353  16.378 -0.1283 -0.0455 -0.0643
69251W        W70115  25.096   0.891  25.985 -0.1312  0.2281  0.0773
69252W        W70116  23.243  14.627  20.166 -0.0357 -0.0132  0.0218
69253W        W70117  12.372  15.677   5.538 -0.0588 -0.1191 -0.0608
69254W        W70118  25.101  17.058  21.209 -0.0708  0.2147  0.2194
69255W        W70119   7.385   2.524  19.810 -0.0811 -0.0825 -0.1034
69256W        W70120  18.825  12.855  14.387  0.1220  0.0782  0.1149
69257W        W70121   5.137   4.464   9.007  0.0915 -0.0569  0.3431
69258W        W70122  18.092  15.686  13.872  0.0227 -0.1661 -0.0120
69259W        W70123   2.863  19.705   6.745  0.1145  0.0957 -0.0128
69260W        W70124  20.176  13.368   9.823 -0.0208  0.2190  0.1575
69261W        W70125  17.599  13.937  13.444  0.0483  0.0553 -0.2815
69262W        W70126  10.808   2.190  10.544 -0.0678  0.0365 -0.1609
69263W        W70127  11.032  11.061  17.718  0.0845 -0.0694 -0.1327
69264W        W70128   6.206   7.000   4.365 -0.2454  0.1575  0.2415
69265W        W70129   4.885   3.412  18.343  0.1093  0.0589  0.1313
69266W        W70130   3.965   8.276   8.015  0.2118  0.0519  0.0657
69267W        W70131   2.822   6.662  20.732  0.1888 -0.0631  0.4675
69268W        W70132   2.250   9.237  10.958 -0.2694  0.0243 -0.1723
69269W        W70133   9.361  27.440  22.527 -0.0062  0.1409  0.1377
69270W        W70134   2.657   4.677  21.565  0.0857 -0.2254 -0.0393
69271W        W70135   6.307   1.172  11.033  0.2137 -0.0721  0.2182
69272W        W70136   9.636  19.248   9.757  0.1255 -0.3060  0.1496
69273W        W70137   1.628   1.025  12.161  0.4290  0.1735 -0.0133
69274W        W70138  13.122  15.325  18.444  0.0666 -0.2669  0.1165
69275W        W70139  12.121  15.362   9.401  0.1941  0.0136  0.1695
69276W        W70140   4.559  13.015   4.600  0.0185 -0.1093 -0.0984
69277W        W70141  14.886  12.058  27.762 -0.0718  0.0564  0.0494
69278W        W70142  22.434   5.338   6.226 -0.0024 -0.0676 -0.3019
69279W        W70143  20.786   9.857  17.862  0.0821  0.0800 -0.0569
69280W        W70144   8.135   4.044  20.508  0.0515 -0.1539  0.0284
69281W        W70145   1.612  24.031  16.330 -0.3636  0.2666 -0.0747
69282W        W70146  12.169  17.184  25.923  0.1732  0.2993 -0.2943
69283W        W70147  25.429  23.341  14.001 -0.1129 -0.0268 -0.1717
69284W        W70148  26.357  10.753  24.438  0.3419 -0.3066  0.0966
69285W        W70149   8.329  13.090  22.978 -0.0661  0.0801 -0.0402
69286W        W70150  10.772   3.669  14.250  0.0246  0.1655  0.0628
69287W        W70151  21.392  10.913  24.757  0.2050 -0.2369 -0.1037
69288W        W70152  11.892  26.812   5.812  0.2711 -0.0597  0.2910
69289W        W70153   3.484  23.148  25.188 -0.2597  0.1535 -0.0480
69290W        W70154  13.659   7.388  14.465 -0.1011 -0.1997  0.1147
69291W        W70155  11.673  24.964   7.114 -0.1189 -0.0301  0.0006
69292W        W70156   5.444  17.753  23.587  0.1358 -0.1800 -0.1009
69293W        W70157  14.066   2.942  24.253  0.2453 -0.0268  0.3427
69294W        W70158   1.510  11.540  19.120 -0.0274 -0.1071  0.2372
69295W        W70159  12.621  28.228  15.401 -0.0577 -0.4034 -0.0467
69296W        W70160  29.003   0.161  24.099  0.0042 -0.1794  0.1140
69297W        W70161  26.557  15.170  19.889  0.0087  0.2223  0.2054
69298W        W70162   7.214   4.925  15.929  0.0531  0.2577  0.0513
69299W        W70163   4.884   7.941  15.475  0.1727 -0.0671  0.1087
69300W        W70164  28.815  26.845   0.251  0.0596  0.0516  0.1720
69301W        W70165   2.934  26.932  27.478  0.0459  0.3201 -0.2678
69302W        W70166  19.321   0.236  12.407 -0.0013  0.0172  0.0904
69303W        W70167  29.056  16.190  18.187 -0.3568 -0.0600  0.1464
69304W        W70168   9.911  13.512  20.629  0.3627  0.1522 -0.0530
69305W        W70169  14.373  27.707   6.829  0.0677  0.1485  0.0025
69306W        W70170   7.147   1.411  24.960 -0.1080 -0.1594 -0.0854
69307W        W70171  17.174   8.662  13.001  0.0013  0.0950 -0.2366
69308W        W70172  19.561  26.557  13.088 -0.1800  0.0909  0.1424
69309W        W70173  18.256  20.656  24.229 -0.1845 -0.1006  0.2453
69310W        W70174   4.342  15.227   4.348 -0.0997  0.0513 -0.3255
69311W        W70175  25.201  27.411  27.810 -0.2286 -0.0791  0.0844
69312W        W70176   1.196  22.388  19.324 -0.0125  0.1109 -0.3698
69313W        W70177  13.167   2.630   8.951 -0.1257  0.0113 -0.1163
69314W        W70178   8.460  22.255   6.735  0.1928 -0.0016  0.0508
69315W        W70179  25.490  16.181  18.996 -0.0264 -0.1691  0.1982
69316W        W70180  10.960  21.206  19.331  0.2918  0.2749  0.2161
69317W        W70181   8.059   7.025  22.823 -0.0095  0.1282 -0.1023
69318W        W70182   1.921   9.791   3.687 -0.1009  0.0882 -0.3167
69319W        W70183  28.117  20.024  25.508  0.1329  0.1230 -0.1312
69320W        W70184  10.125   6.044  21.209  0.2048 -0.3182 -0.0074
69321W        W70185   8.833  17.478  13.496  0.2867  0.0786 -0.0625
69322W        W70186  22.280  22.046  20.704  0.0261  0.3164  0.2059
69323W        W70187   5.634   6.451  24.210 -0.3487  0.0753 -0.1537
69324W        W70188  10.372   6.242   0.018  0.1456 -0.0385 -0.1123
69325W        W70189  17.420  26.010   5.724 -0.0168  0.3795  0.1783
69326W        W70190   6.428  27.287  19.070 -0.0784 -0.1938 -0.3074
69327W        W70191   2.579  10.197  15.137  0.3293  0.2280  0.0440
69328W        W70192   8.858  24.281  17.048  0.0294 -0.1431 -0.1416
69329W        W70193   6.796  13.626  15.183 -0.4844  0.1192 -0.0667
69330W        W70194  15.776   4.225  24.432 -0.2832  0.4157 -0.1118
69331W        W70195  22.552   0.534  26.235  0.2399 -0.0936 -0.0135
69332W        W70196   4.728  18.021  10.384 -0.1993 -0.0990  0.0458
69333W        W70197  13.620  11.764  27.992  0.2769 -0.0955  0.1806
69334W        W70198  18.965  10.296  10.431  0.3530  0.3388 -0.3437
69335W        W70199  27.978   9.954  15.466  0.3404  0.0050  0.2808
69336W        W70200  27.628   3.718  14.408 -0.0956  0.1315  0.2812
69337W        W70201  15.019  24.888  11.148  0.0269  0.1310 -0.0893
69338W        W70202   7.969   6.693  21.869  0.1870  0.1070 -0.3648
69339W        W70203   7.024  17.605  13.273 -0.0008 -0.1012 -0.2917
69340W        W70204   0.236   4.747   6.892  0.1363  0.0403  0.3096
69341W        W70205  22.531  18.992  20.570 -0.0534  0.2217  0.0080
69342W        W70206   4.036  24.891  22.464 -0.4289  0.2268 -0.2750
69343W        W70207   7.810  19.735  26.331 -0.1288 -0.1168 -0.2311
69344W        W70208  18.133   2.182  16.913 -0.1209  0.5543  0.3516
69345W        W70209  15.177  21.623  27.670 -0.0438  0.0594 -0.0513
69346W        W70210  28.072  22.439  19.154 -0.1639  0.2712  0.0060
69347W        W70211   9.708  21.626  14.466  0.1486  0.0645  0.0115
69348W        W70212  13.458  22.631  21.797  0.1346  0.0070 -0.2100
69349W        W70213   8.485   1.936  20.770  0.1498  0.0281  0.1417
69350W        W70214  28.032  19.102  15.008 -0.2148 -0.2507 -0.2228
69351W        W70215   4.746  28.657   6.358  0.0775  0.2385  0.3654
69352W        W70216   5.543   8.665   3.515  0.0652 -0.1926  0.1078
69353W        W70217  11.971  15.663  13.080  0.0264  0.0974 -0.1120
69354W        W70218   8.681  16.347  14.971 -0.0297 -0.2310  0.0017
69355W        W70219  28.960  22.687   7.705  0.0423  0.1109 -0.0058
69356W        W70220  12.298  20.015  15.466 -0.0840 -0.2909  0.0398
69357W        W70221   8.736  26.537  20.090 -0.1985  0.2604  0.0881
69358W        W70222  24.969  17.330  17.609 -0.0558  0.2250  0.0562
69359W        W70223  16.780  14.820  14.412 -0.1981  0.0926 -0.1892
69360W        W70224  15.588  20.565  10.159  0.2781 -0.2990 -0.0958
69361W        W70225   8.537  12.959  17.677 -0.0481 -0.2083  0.0105
69362W        W70226  10.503  10.791   7.113  0.0740 -0.2398  0.0681
69363W        W70227  21.908  16.430   0.149 -0.3312  0.0312 -0.2579
69364W        W70228  11.017  15.229  28.568  0.2738  0.2050  0.0818
69365W        W70229   7.115   1.143  23.619  0.1492  0.0655  0.1331
69366W        W70230  17.311  22.865  19.377 -0.1308  0.0021  0.1217
69367W        W70231  21.961  18.155  18.716  0.2645  0.2823  0.0709
69368W        W70232  10.926  21.711  23.002  0.1250 -0.4009  0.2653
69369W        W70233   7.134  18.052   3.021 -0.0939  0.2629 -0.3164
69370W        W70234  19.434  18.046  22.382  0.0774 -0.0933 -0.3962
69371W        W70235  17.374   7.462   2.931 -0.1362  0.2713 -0.0331
69372W        W70236   3.861  10.240  21.313 -0.1696 -0.3244  0.0166
69373W        W70237  19.774  13.081   9.248 -0.0230 -0.0769 -0.0421
69374W        W70238  17.772   3.178   1.670  0.0309 -0.1849  0.1990
69375W        W70239   8.200   3.169   9.476 -0.1944 -0.0369  0.1258
69376W        W70240   1.971   3.759  26.245 -0.0997 -0.0564  0.2089
69377W        W70241  25.075   9.406   7.378  0.0256  0.0287  0.0358
69378W        W70242  19.126  17.065  22.377 -0.1119 -0.0640  0.2481
69379W        W70243   2.428  14.598  21.238 -0.1299  0.1473 -0.3067
69380W        W70244  18.528  16.207  24.738  0.0684  0.1818 -0.1117
69381W        W70245   9.365   4.622  13.703  0.0430  0.0215 -0.3943
69382W        W70246   7.396  27.028   3.784 -0.1567  0.0734  0.0260
69383W        W70247  11.022   9.409  25.131  0.1471  0.4030 -0.0379
69384W        W70248  14.977  11.640  26.007  0.0145  0.1584  0.0938
69385W        W70249  13.106  10.295  22.455  0.0931  0.0342  0.0503
69386W        W70250   6.203  28.109  20.119  0.5253 -0.0814 -0.1979
69387W        W70251   3.193  12.357  24.896  0.0830 -0.0226  0.1822
69388W        W70252   0.352  21.670  16.534 -0.1574 -0.0928  0.2157
69389W        W70253  14.757   0.404   5.150 -0.3132  0.0270 -0.0842
69390W        W70254  12.868  27.016  15.207  0.0770 -0.0683  0.0473
69391W        W70255  17.355  27.119  29.078 -0.3927  0.1256  0.0061
69392W        W70256  26.094   5.738  18.803  0.0943  0.1298 -0.3609
69393W        W70257  14.557  17.157  14.874 -0.0180 -0.2866  0.2112
69394W        W70258   0.129  23.599  24.882 -0.1610 -0.3526  0.3075
69395W        W70259  12.851  19.672  28.718 -0.0525  0.3446 -0.0228
69396W        W70260  12.859   2.814  28.255 -0.1656  0.1021 -0.0266
69397W        W70261  21.126  28.500  21.747 -0.1537 -0.2610 -0.1843
69398W        W70262  16.952  17.346  24.286  0.1563  0.1214  0.2546
69399W        W70263  15.685  28.032   1.416  0.3716 -0.0564 -0.1709
69400W        W70264   9.970  18.058  24.711 -0.1084 -0.1016 -0.0120
69401W        W70265   8.679  20.171  28.695 -0.0216 -0.0437 -0.0876
69402W        W70266  23.434   3.958  12.031 -0.0269  0.2355 -0.1415
69403W        W70267  26.930   2.555  17.431 -0.1859 -0.1419  0.0073
69404W        W70268  24.000  10.346   5.458 -0.0138  0.1351 -0.3474
69405W        W70269   4.435  15.906  23.509  0.0979 -0.0098 -0.0256
69406W        W70270   2.320   4.168  24.218 -0.2208 -0.0736 -0.2310
69407W        W70271  11.065  14.090  16.986  0.0338 -0.0683 -0.1530
69408W        W70272  24.258   5.229  12.942  0.0392  0.0195  0.0917
69409W        W70273  21.414  28.784  18.857  0.1261 -0.0300 -0.0266
69410W        W70274  11.076  18.821  11.515  0.3389 -0.4692 -0.0208
69411W        W70275  16.834  12.510   1.739 -0.3210  0.0814  0.0528
69412W        W70276   8.192  19.643   5.408  0.1031 -0.1609  0.0492
69413W        W70277   2.689   7.566  17.181  0.0399  0.0065  0.2121
69414W        W70278   0.150   9.840   8.131  0.1881  0.2808  0.2142
69415W        W70279  10.772   3.886  18.566  0.0551 -0.1059  0.1328
69416W        W70280   2.954  17.572  22.780  0.2235  0.0067  0.2338
69417W        W70281  10.189  20.644  14.723 -0.0345  0.4403 -0.0546
69418W        W70282   0.022  10.748  25.141  0.1301  0.2255  0.0613
69419W        W70283  23.182  18.356  13.205  0.1882 -0.2360  0.0745
69420W        W70284   7.407  28.886   1.476  0.0916  0.4588 -0.0790
69421W        W70285  12.105   5.592   3.881  0.0455  0.1874  0.3806
69422W        W70286   7.007  15.757  24.668  0.0014 -0.1216  0.0214
69423W        W70287  20.617  28.127  24.390 -0.1870 -0.2726 -0.0110
69424W        W70288   3.549  24.510  13.094 -0.0833  0.2123 -0.0291
69425W        W70289   9.909  28.739  20.883  0.1527  0.3752 -0.0398
69426W        W70290  28.692   3.634  18.262 -0.3030  0.2734  0.2943
69427W        W70291   1.425   5.550   8.521  0.2943  0.1036  0.1316
69428W        W70292  16.300  22.394  24.453  0.1266  0.1353 -0.1184
69429W        W70293  28.053  20.118  22.578  0.1983 -0.1789  0.0066
69430W        W70294  12.047  24.586   6.658 -0.1187  0.1793  0.0520
69431W        W70295  24.986  21.509  22.197  0.2113 -0.4438 -0.1802
69432W        W70296   1.349  11.452  25.598 -0.0532  0.1484 -0.0094
69433W        W70297   7.999  25.510  23.704  0.0958  0.3337 -0.1538
69434W        W70298   1.420   8.843  16.423  0.2361  0.0214  0.4172
69435W        W70299  26.894  25.068  23.437  0.3114  0.2873  0.1815
69436W        W70300   9.562   5.568  24.321 -0.2160  0.1598  0.2274
69437W        W70301  22.368  24.053  20.900  0.1669  0.0661  0.1382
69438W        W70302  17.217  19.461   2.131  0.1718 -0.1513  0.4198
69439W        W70303   5.544   4.821  14.536 -0.2056  0.1038  0.3515
69440W        W70304   6.682  24.531  22.788 -0.0706  0.0461 -0.1089
69441W        W70305  11.017  28.644  18.295  0.0881 -0.2862 -0.2328
69442W        W70306   4.349  25.672   4.318  0.1858 -0.0069  0.0882
69443W        W70307  12.155   1.652  15.074 -0.1070 -0.1423 -0.0305
69444W        W70308  16.987  17.910  27.021  0.1694 -0.0475 -0.0991
69445W        W70309  13.489  24.976   5.026  0.1543  0.0979  0.1454
69446W        W70310  10.396  12.793  17.138 -0.0687  0.1598 -0.0708
69447W        W70311  23.549  17.341   9.472 -0.0927  0.2828  0.1043
69448W        W70312  17.538   4.836  11.776 -0.4290 -0.3132  0.2396
69449W        W70313  16.023  27.944   3.344 -0.0023 -0.0788 -0.0633
69450W        W70314   7.715  17.668  22.846 -0.4854  0.1812  0.0249
69451W        W70315  21.496  14.197  19.298  0.0442  0.1459 -0.1828
69452W        W70316  20.838  12.810   1.690 -0.1896 -0.1320 -0.1550
69453W        W70317  28.968  17.322   0.156 -0.0682 -0.2119  0.2395
69454W        W70318  16.994  16.003  19.186  0.1687 -0.1109 -0.2037
69455W        W70319  25.180  19.594  15.457 -0.0974 -0.0641 -0.4943
69456W        W70320  17.612   7.415  15.126  0.4618  0.3081 -0.1592
69457W        W70321  15.539  10.701  19.754  0.1705  0.1063  0.0059
69458W        W70322  25.116   8.090  20.725  0.1910  0.5785  0.0217
69459W        W70323  16.488  24.148   4.541  0.0474  0.0134  0.1675
69460W        W70324  25.111   4.992  13.693  0.1353 -0.0441 -0.1212
69461W        W70325   9.546  21.673   3.623 -0.1421  0.0556 -0.2223
69462W        W70326  22.739  21.345  20.149 -0.0778 -0.3017 -0.2516
69463W        W70327  12.265   9.822  16.600 -0.0411 -0.1829 -0.0215
69464W        W70328   7.745  21.706  12.264  0.1475  0.0950  0.1326
69465W        W70329   9.643  23.634  16.699 -0.1952  0.4346 -0.2354
69466W        W70330  18.255  28.325  20.255 -0.2317 -0.1948  0.1887
69467W        W70331  24.474   9.539   5.832 -0.0391  0.4480  0.2962
69468W        W70332  12.712   2.503  16.975 -0.1702 -0.0788 -0.2087
69469W        W70333  15.551   4.741  28.183 -0.0572  0.0681 -0.2221
69470W        W70334  22.452  11.891  24.330 -0.2015  0.0604 -0.1388
69471W        W70335  22.026  19.533  16.558  0.1276 -0.2878 -0.2557
69472W        W70336  25.720  14.930   9.285  0.0673  0.2085 -0.0470
69473W        W70337  24.036  10.146  12.182 -0.3490  0.0317 -0.0350
69474W        W70338  26.086   1.798  22.774  0.0612  0.1830  0.3236
69475W        W70339   3.702   6.232  21.978  0.4708  0.2890 -0.0518
69476W        W70340  16.036   7.860  16.016 -0.0257 -0.1410  0.0253
69477W        W70341  18.137  16.873  10.312  0.2945  0.1409  0.1936
69478W        W70342   7.596  18.152  28.032  0.3777  0.2435  0.0867
69479W        W70343   9.146   0.264  21.232 -0.1050  0.1074  0.0411
69480W        W70344  13.583   4.983   3.155  0.0866 -0.3249 -0.2331
69481W        W70345  11.122  23.579  13.478  0.1922 -0.2563 -0.3144
69482W        W70346   6.221   2.154  19.011 -0.2372 -0.2430 -0.4007
69483W        W70347   9.462   3.047  18.193  0.0791  0.2736  0.1084
69484W        W70348   0.392  22.119   0.249 -0.1448  0.0001  0.0166
69485W        W70349   8.401  24.038  26.006 -0.0985 -0.2555 -0.1972
69486W        W70350   9.254  24.842  26.153 -0.0979  0.0663 -0.1876
69487W        W70351  16.796  22.246  21.328 -0.2060  0.1121 -0.0883
69488W        W70352   1.882   4.854   4.555 -0.1828  0.1349 -0.0577
69489W        W70353   6.686  27.409  15.271 -0.0397 -0.1497 -0.0844
69490W        W70354   3.206   8.303  18.546  0.4889  0.2115 -0.0401
69491W        W70355   7.670   6.392   4.092  0.2231  0.0873  0.2306
69492W        W70356  18.136  12.169  17.895 -0.1495 -0.0710 -0.2855
69493W        W70357   7.027   4.022  25.732 -0.0125  0.1191 -0.0501
69494W        W70358   0.436  24.112   9.690  0.3173 -0.1233 -0.2464
69495W        W70359   5.698  22.123   9.924  0.0231  0.1529 -0.0804
69496W        W70360  26.976  20.170  18.227  0.1417  0.0082 -0.0573
69497W        W70361   9.684   9.870   6.097  0.0636  0.2998  0.4159
69498W        W70362  23.235  22.849  20.454  0.3455  0.0489  0.0803
69499W        W70363  12.633   8.775   9.691 -0.0207 -0.2635  0.1596
69500W        W70364  14.310  16.115  17.547 -0.1510 -0.0373 -0.1311
69501W        W70365  22.422  10.337   5.524  0.0195  0.0779 -0.0612
69502W        W70366   8.376  18.128  21.497  0.0963  0.2665 -0.0519
69503W        W70367   6.146   2.311  17.666 -0.0511  0.0762  0.1978
69504W        W70368  11.586  16.128  25.212 -0.0732 -0.0080  0.0798
69505W        W70369  16.056  17.443  14.464 -0.4338 -0.2986  0.2691
69506W        W70370  14.303  10.293   7.920  0.1193 -0.1161 -0.3941
69507W        W70371  16.689  11.027  12.066 -0.0708 -0.1475  0.2047
69508W        W70372   2.423   1.264  17.550 -0.1172  0.3695 -0.1624
69509W        W70373  17.640   9.862  11.153  0.0064 -0.1624  0.0547
69510W        W70374  28.577  16.078   6.343  0.2579 -0.2007  0.0674
69511W        W70375  19.304  22.360  15.568  0.3373 -0.2934 -0.0056
69512W        W70376  20.659   7.833   2.492  0.0459  0.1894 -0.0199
69513W        W70377  10.421  23.141  17.809 -0.0289 -0.0580 -0.1177
69514W        W70378  25.474   8.567  19.162 -0.0404 -0.1695 -0.3465
69515W        W70379  10.548  22.212  21.046  0.2076 -0.2628 -0.1462
69516W        W70380  10.849  24.254  25.639  0.0990 -0.0297 -0.1752
69517W        W70381   8.409  14.576  22.480 -0.1584  0.1647  0.0254
69518W        W70382  23.500  23.087  20.165  0.0900  0.3758  0.2159
69519W        W70383  17.901   0.107  11.155 -0.2012  0.0546 -0.1858
69520W        W70384  23.574  21.267  15.543 -0.0079 -0.1822 -0.2342
69521W        W70385   1.241  26.807  25.649  0.2351 -0.0922  0.0468
69522W        W70386   4.423  11.807   5.163  0.3754  0.1492  0.0475
69523W        W70387  26.844  13.444  12.605 -0.0629 -0.2570 -0.0724
69524W        W70388  26.088  19.969  10.926 -0.3491  0.0385 -0.1395
69525W        W70389  19.643  26.581   4.181  0.1568  0.1326  0.0184
69526W        W70390  26.537   6.809   4.578  0.2272  0.0526  0.0505
69527W        W70391  10.304  17.736  10.135  0.0938  0.2094 -0.0234
69528W        W70392   1.010   9.499  12.997  0.2593 -0.0340 -0.2119
69529W        W70393  18.378   2.399  25.810 -0.3634 -0.0974 -0.3165
69530W        W70394   7.953  14.216  11.600 -0.0012  0.0045 -0.2323
69531W        W70395   7.255   5.238  15.500  0.0808 -0.2243 -0.0999
69532W        W70396   1.277   6.652   9.682 -0.4114  0.0768 -0.3227
69533W        W70397  28.359  24.371  21.001 -0.1823 -0.0294 -0.2616
69534W        W70398   7.227  21.945   8.821 -0.1882  0.3726 -0.1778
69535W        W70399  18.537   4.970  12.675 -0.1625  0.0754  0.0098
69536W        W70400  12.517  18.796  11.744 -0.0956  0.1050  0.1541
69537W        W70401  11.702  16.612  22.964  0.0884  0.1173  0.0189
69538W        W70402  23.005  18.310   0.421  0.2057 -0.1071  0.0931
69539W        W70403  14.995  20.440  24.114 -0.4007 -0.2473  0.3453
69540W        W70404  10.795   1.465  22.965 -0.1000 -0.0552  0.0382
69541W        W70405  10.796  27.443  14.791 -0.0603  0.0969  0.4303
69542W        W70406  12.365  21.583   2.580 -0.2295  0.0242  0.0821
69543W        W70407  17.196  21.161  28.958 -0.0634  0.0314 -0.0112
69544W        W70408  16.769  20.307  23.890 -0.0562 -0.0476  0.0990
69545W        W70409  21.715  28.839   8.431 -0.0715  0.1497  0.0052
69546W        W70410  23.385  12.998  26.157  0.1927 -0.0559 -0.0206
69547W        W70411  21.149  22.768  17.768  0.0693  0.0052  0.0435
69548W        W70412   2.503  21.375  19.970 -0.2238  0.0349  0.1101
69549W        W70413   7.879  18.086   3.463 -0.0995  0.0658  0.1168
69550W        W70414  23.652  24.423  13.839 -0.1714 -0.2005 -0.2643
69551W        W70415  15.746  14.584  20.071  0.2724  0.0592  0.2510
69552W        W70416   8.377  13.773  29.085  0.0797  0.1634 -0.0725
69553W        W70417  15.583  15.182  16.496  0.1103 -0.0002 -0.1762
69554W        W70418   2.215   1.828  23.628  0.0660  0.0042 -0.1044
69555W        W70419   0.365  20.355  11.156  0.2504  0.1844 -0.0348
69556W        W70420  14.599   0.142   2.555 -0.0086  0.0765 -0.0669
69557W        W70421   6.496  19.738  14.908  0.1944 -0.2203 -0.2078
69558W        W70422  12.710  10.229  24.675  0.0414 -0.0017 -0.0218
69559W        W70423  12.723  21.257  19.459  0.0474 -0.0030 -0.1864
69560W        W70424   0.639  14.874  25.389  0.0894 -0.2709 -0.1471
69561W        W70425   3.980  26.279  23.026 -0.1172 -0.4876 -0.1284
69562W        W70426  16.752  27.405  26.721 -0.1104  0.1246  0.2088
69563W        W70427   8.299  20.070  19.112 -0.0231  0.0341  0.0818
69564W        W70428  18.496  28.500   7.255 -0.0327  0.0553 -0.3125
69565W        W70429   7.338  21.114  17.555  0.1204  0.0104 -0.0538
69566W        W70430   0.775  12.198   2.673  0.1534  0.1040 -0.2475
69567W        W70431  23.084   2.496  17.510  0.0911 -0.0216 -0.1944
69568W        W70432  19.725   3.493   1.650 -0.1282  0.2051  0.3909
69569W        W70433  16.644  14.600  19.540  0.0144 -0.1701 -0.0163
69570W        W70434   6.271  18.176   9.819 -0.0745 -0.1152 -0.0081
69571W        W70435   3.441  23.091  23.104 -0.2524  0.0834 -0.2279
69572W        W70436  17.498   6.995  27.015 -0.2503  0.1057  0.0973
69573W        W70437  29.051  18.685  20.473 -0.1448  0.0992  0.1261
69574W        W70438  11.573  28.572  21.863  0.0445  0.1068 -0.2741
69575W        W70439  12.572  27.122  23.769  0.3753  0.1930 -0.2098
69576W        W70440   9.396  20.336  22.649 -0.1937  0.2090  0.0076
69577W        W70441  26.638  24.470   9.266  0.2190 -0.2250 -0.4245
69578W        W70442   3.346  18.348  26.245 -0.0485 -0.2419  0.0291
69579W        W70443  19.313   2.712   2.677  0.2330 -0.2328  0.0525
69580W        W70444   1.709  19.067  12.887 -0.2219 -0.0269 -0.2183
69581W        W70445  10.823   6.887  16.296  0.1340  0.3777 -0.0926
69582W        W70446  11.604  20.605  25.904 -0.2857 -0.0855  0.1764
69583W        W70447  22.284  12.718  24.001  0.0554  0.3274  0.5484
69584W        W70448  10.433  23.237  14.899 -0.2674 -0.0576  0.0961
69585W        W70449   7.810  20.036  18.954 -0.3042 -0.2591 -0.3899
69586W        W70450  23.963  27.773  26.099 -0.1594 -0.2703  0.1644
69587W        W70451  13.035  20.345  15.227  0.0107  0.1715 -0.0092
69588W        W70452  27.900  14.047  13.942 -0.1086 -0.0857  0.3286
69589W        W70453   8.005   2.954   4.586 -0.1551  0.0168  0.4017
69590W        W70454  15.009  25.531  21.570 -0.1103  0.0239  0.1448
69591W        W70455  21.750   0.539  22.167 -0.2462 -0.0646  0.0438
69592W        W70456   1.503   8.373   6.242  0.1166 -0.1244  0.3582
69593W        W70457  17.148  25.542  20.359 -0.1374 -0.2400  0.0855
69594W        W70458  10.348  14.522  17.226 -0.1481  0.2903  0.0722
69595W        W70459  20.112  11.219   8.667 -0.1260  0.0886  0.1145
69596W        W70460  10.902   9.613   5.993 -0.1287  0.2286  0.2352
69597W        W70461   2.617  13.277  25.765 -0.2162  0.2991 -0.0744
69598W        W70462   4.867   0.487  26.398 -0.1384 -0.0914  0.0266
69599W        W70463  24.165   0.558  18.708  0.2131  0.2288  0.0468
69600W        W70464   9.629  10.446   1.279 -0.0929 -0.1502 -0.1728
69601W        W70465  13.026  19.452  17.306  0.0138 -0.4356  0.2687
69602W        W70466   8.925   6.362  14.997  0.0552  0.0075  0.2537
69603W        W70467   3.606  23.335  16.679 -0.0986  0.0552 -0.0566
69604W        W70468  15.876  20.234  20.731 -0.0200  0.0520 -0.0099
69605W        W70469  13.546  18.917  16.916  0.1427 -0.0509 -0.2419
69606W        W70470   5.891  25.572   1.553 -0.0473 -0.0785 -0.2386
69607W        W70471  28.324   7.177   3.065  0.1232  0.1517  0.1375
69608W        W70472   6.070   6.290   7.344  0.1945 -0.0905  0.3476
69609W        W70473   0.107  17.587   0.826  0.1417 -0.1335 -0.1770
69610W        W70474  27.713  16.209   0.333 -0.1464  0.2419 -0.4024
69611W        W70475  19.284  15.050   2.999 -0.2800 -0.2876  0.0842
69612W        W70476   3.324   3.055  24.963  0.3338  0.2050 -0.0876
69613W        W70477   0.900  11.974  22.355 -0.1389 -0.0418  0.0373
69614W        W70478   6.028  17.227  19.402  0.6466  0.0026  0.0188
69615W        W70479  18.948  12.700  13.888 -0.0775  0.2688  0.0734
69616W        W70480   9.152  28.541  25.196  0.4749  0.4053  0.4183
69617W        W70481  12.438  15.580  20.434 -0.1073 -0.3845 -0.0569
69618W        W70482  14.885   7.753  26.267 -0.0770 -0.2445  0.1616
69619W        W70483  24.325  22.967  21.715  0.3481  0.0781 -0.1120
69620W        W70484  19.496  10.143  28.718  0.1250 -0.2108  0.1950
69621W        W70485  27.575  16.459   9.408 -0.2220 -0.0314  0.0042
69622W        W70486  16.356  24.778  22.698 -0.0645  0.2126 -0.1296
69623W        W70487  25.094  23.070  23.462 -0.1261  0.2579  0.0445
69624W        W70488  19.445  16.264  16.376  0.0078 -0.1513 -0.2644
69625W        W70489   8.117  22.112   3.959  0.0035  0.2404 -0.1553
69626W        W70490  26.786  20.661  11.833 -0.0575 -0.0471 -0.0295
69627W        W70491  12.681   8.559  13.025  0.0083  0.2704  0.1857
69628W        W70492  13.968   2.762  25.754 -0.0689  0.1411  0.1546
69629W        W70493  17.990  21.666   6.199 -0.0923  0.3279  0.2933
69630W        W70494   4.574  17.010   6.209  0.2166 -0.1495  0.1564
69631W        W70495   0.715  27.562   1.494 -0.0343 -0.0920  0.1278
69632W        W70496   9.003  19.902  16.683 -0.1856 -0.0389 -0.0224
69633W        W70497  19.280   4.125  27.131  0.1335  0.1894 -0.1294
69634W        W70498   7.373  22.730  14.278 -0.1101 -0.2026 -0.0128
69635W        W70499   4.172  23.201   4.838  0.0867 -0.3166  0.4432
69636W        W70500   8.809  13.309  19.212  0.1737  0.2446  0.0685
69637W        W70501   6.748  11.253   1.987 -0.1557 -0.1308 -0.1693
69638W        W70502   8.795   0.723  16.947  0.1427  0.2842  0.0135
69639W        W70503  15.982   4.035  16.472 -0.2120  0.3229  0.2211
69640W        W70504  13.482   7.759  12.654  0.1138 -0.3949  0.0697
69641W        W70505  20.637  16.078  11.865  0.0676  0.2265  0.0445
69642W        W70506  26.320  19.169  21.309  0.1136  0.2085 -0.1982
69643W        W70507  14.248  16.121  18.137 -0.2906  0.3893 -0.0502
69644W        W70508   8.097  16.811  22.724  0.0591 -0.0648 -0.2808
69645W        W70509  10.607  18.978  15.892 -0.1969 -0.0757  0.0311
69646W        W70510   4.064   2.788  17.987 -0.2190  0.0505 -0.1257
69647W        W70511  20.301  16.927  25.071  0.1125  0.0813 -0.1140
69648W        W70512  20.117  12.972  24.002  0.0703  0.3086  0.0148
69649W        W70513  28.225  24.285   3.826 -0.1696 -0.1732  0.1622
69650W        W70514  10.340  21.695  13.200  0.0446 -0.1297  0.1918
69651W        W70515  11.674   8.770  16.930 -0.3923  0.0086 -0.2872
69652W        W70516  23.635  18.763  26.719  0.1264  0.2071  0.1807
69653W        W70517   9.464  25.178  12.363 -0.0709  0.2042  0.0146
69654W        W70518  15.632  18.927  14.931 -0.0898  0.0604 -0.1918
69655W        W70519  24.442  16.536  27.181 -0.3978  0.0256  0.2272
69656W        W70520   6.547  15.384  18.966 -0.0937  0.0672 -0.0712
69657W        W70521   4.031  26.179  16.572  0.0606 -0.0430 -0.1522
69658W        W70522   3.805  21.990  22.052 -0.0215 -0.2327 -0.0338
69659W        W70523  17.899   3.033  10.200  0.0751  0.0498  0.2002
69660W        W70524  29.114  25.209  26.345  0.1336  0.1263 -0.1407
69661W        W70525  28.220  22.472  11.095 -0.1473  0.2801  0.0995
69662W        W70526  10.776  28.052  17.271 -0.1642  0.1884 -0.1395
69663W        W70527   3.347  28.334   0.267  0.1403 -0.1520  0.3002
69664W        W70528  10.134  22.788  10.349  0.4147  0.1003  0.3505
69665W        W70529  21.775  26.396  19.232 -0.0023 -0.3285  0.2910
69666W        W70530   2.672  18.118   3.734 -0.0768 -0.0041  0.2390
69667W        W70531  10.013   1.827  16.593  0.3572 -0.2292  0.2035
69668W        W70532  27.937   3.668   7.841 -0.0477  0.0392  0.0372
69669W        W70533  26.880  23.130  26.636  0.0242  0.0191 -0.0114
69670W        W70534  11.668  21.058  16.807 -0.0632 -0.3434  0.0486
69671W        W70535  10.542  24.287  19.287  0.0757 -0.1978  0.1123
69672W        W70536  29.133  22.520   5.736 -0.0026  0.3146  0.5028
69673W        W70537  11.790  18.880  24.319 -0.1606 -0.0172  0.0504
69674W        W70538  14.350  15.373  26.404 -0.4102 -0.1211 -0.0973
69675W        W70539   7.771   2.016  19.411  0.2874  0.0360 -0.2425
69676W        W70540  11.466  12.318  27.705 -0.1818  0.1593  0.1376
69677W        W70541  24.148  14.565  19.032 -0.1534  0.0820 -0.0552
69678W        W70542   0.244  15.938  15.205  0.1470 -0.1156 -0.1008
69679W        W70543  16.962  14.333  14.435 -0.0009  0.2843  0.3328
69680W        W70544   5.716  14.671   9.000  0.1358 -0.1712  0.1439
69681W        W70545   3.237  22.304  24.071 -0.0865  0.1089 -0.0751
69682W        W70546  18.823  22.122  17.017  0.0385 -0.2667  0.0552
69683W        W70547  18.726   7.434  23.312 -0.0829 -0.3789  0.1194
69684W        W70548   2.881  27.327  27.795 -0.0586 -0.0075 -0.1861
69685W        W70549  27.592  25.859   6.134 -0.1280 -0.0683  0.1848
69686W        W70550  27.508  23.757  26.175 -0.1981 -0.1842 -0.1033
69687W        W70551  13.572  11.083  17.320  0.1184 -0.0988 -0.1809
69688W        W70552   0.192   6.369  13.448  0.3435 -0.0265  0.0235
69689W        W70553   8.537  11.861  21.938  0.0079  0.0591 -0.0812
69690W        W70554  14.731   3.430  20.674 -0.0478 -0.0033  0.3546
69691W        W70555  19.317   8.701  22.016  0.3858 -0.3520  0.1898
69692W        W70556   6.007   7.930  25.106  0.0846  0.2099 -0.1504
69693W        W70557  17.235  14.222  21.311 -0.0104  0.1951 -0.0469
69694W        W70558  10.821  16.501  11.342 -0.1127 -0.3365 -0.1254
69695W        W70559   3.160  10.062  26.540 -0.3452  0.0871  0.0507
69696W        W70560  19.162   6.120  25.697  0.2030 -0.2851 -0.1222
69697W        W70561  15.979   6.807   6.268 -0.1725  0.0430  0.1651
69698W        W70562  21.568   7.683  22.606 -0.1495 -0.1674  0.0401
69699W        W70563   7.339   9.956  15.037 -0.0256  0.1775 -0.1017
69700W        W70564  19.726  13.647   0.179 -0.0204 -0.0314 -0.1117
69701W        W70565  10.687   8.375  10.523 -0.4968  0.2173  0.0638
69702W        W70566   4.897   2.679  13.751 -0.3171  0.2922 -0.1285
69703W        W70567  15.012  18.087  13.964 -0.1938 -0.3583  0.1836
69704W        W70568   9.983  17.893  21.616 -0.1892 -0.1482 -0.1459
69705W        W70569  12.385   5.053  23.056 -0.1181  0.2397  0.4571
69706W        W70570  24.202   6.725  15.471  0.0807 -0.0398  0.1888
69707W        W70571   3.085  27.619  23.836 -0.0110  0.2563  0.1480
69708W        W70572  23.807   2.861  14.937 -0.1960  0.1907  0.1853
69709W        W70573   6.097   8.676   4.800 -0.1024 -0.0751  0.4115
69710W        W70574  21.819   9.370  15.133  0.2337 -0.1143 -0.2382
69711W        W70575  19.728  10.129   4.287  0.2364 -0.0840 -0.1174
69712W        W70576  27.683   1.309  20.620 -0.1943 -0.2312 -0.3343
69713W        W70577   5.811   7.805  26.512 -0.0722  0.2461  0.3340
69714W        W70578  10.942  16.482  22.581  0.0870 -0.1792  0.0246
69715W        W70579  14.800  16.429   6.574 -0.1560 -0.0320  0.1006
69716W        W70580  25.042  22.947  14.027  0.2160 -0.1296 -0.0191
69717W        W70581  19.740  24.460   6.053 -0.0687  0.2889  0.3626
69718W        W70582  17.817   6.027  17.505 -0.2745 -0.0202  0.3097
69719W        W70583  17.935   3.473  23.789 -0.2164 -0.1157 -0.1182
69720W        W70584  15.213  15.321  22.958  0.1523 -0.1096 -0.1851
69721W        W70585  15.570  17.230  27.191  0.1693  0.0707 -0.0385
69722W        W70586  28.879   1.069  18.515  0.4122  0.1854 -0.4015
69723W        W70587  14.766  12.982  24.649  0.0381 -0.0257 -0.2389
69724W        W70588   7.396  12.624  24.540  0.0275 -0.3560 -0.0037
69725W        W70589  12.720  21.375   1.302 -0.1195  0.2877 -0.2372
69726W        W70590   7.519  19.411  23.798  0.0106 -0.0237 -0.3957
69727W        W70591  25.665  10.372   6.130  0.0446  0.2612  0.1765
69728W        W70592  17.645  18.601   0.875  0.1495  0.1285 -0.2368
69729W        W70593  27.097  27.962   4.221  0.3272 -0.1073 -0.0248
69730W        W70594  11.997  24.785  13.877 -0.0168  0.0241 -0.2119
69731W        W70595   7.133  16.488  24.006  0.1895  0.0424  0.2255
69732W        W70596  24.419   1.945  17.794  0.1555 -0.1478  0.3408
69733W        W70597  24.217   8.237  13.233  0.2620 -0.1724  0.1087
69734W        W70598   9.734  17.795  26.054  0.0184  0.0169 -0.0636
69735W        W70599   6.552  21.184  16.925 -0.3353  0.3807  0.1899
69736W        W70600  10.190  24.958   0.734 -0.0076  0.0100 -0.1594
69737W        W70601   6.650  14.152  17.041 -0.0452  0.0388  0.0757
69738W        W70602   6.479   8.114  15.264  0.1145 -0.1616  0.0308
69739W        W70603   8.583   1.669  24.270  0.1391 -0.0297  0.2736
69740W        W70604   9.744  13.182  18.909 -0.0114  0.2540  0.0575
69741W        W70605  12.861  10.090  12.863  0.0699  0.2276 -0.3141
69742W        W70606  24.844  27.828  10.296 -0.2402  0.2348  0.1141
69743W        W70607  10.189  26.959  20.469  0.0057  0.1008 -0.1221
69744W        W70608  12.277   4.474  16.103 -0.0360  0.0760  0.1128
69745W        W70609  12.898   6.274  20.574  0.0093  0.0071  0.2256
69746W        W70610  26.955  16.425  12.622 -0.1111 -0.3971  0.1871
69747W        W70611  10.778   7.582   5.461 -0.0772  0.1357  0.0447
69748W        W70612   7.453   4.142  19.879 -0.0200  0.1689 -0.0910
69749W        W70613  13.216   1.478   1.674  0.3093 -0.0178  0.1816
69750W        W70614   9.769  12.034  13.048  0.1120  0.1226 -0.2795
69751W        W70615  21.436  11.020  18.864  0.2569  0.2978  0.2038
69752W        W70616  19.312  21.826  24.037 -0.0256 -0.1357 -0.0399
69753W        W70617  22.117  11.416   2.261  0.1150  0.2356  0.3660
69754W        W70618  21.108  23.424  22.912 -0.2233 -0.1697 -0.0968
69755W        W70619  14.748  28.634   5.993 -0.0918  0.1228 -0.0070
69756W        W70620  12.070  21.875  24.484 -0.2549  0.1860  0.0983
69757W        W70621   5.416   0.453  19.633  0.1011  0.3884 -0.0950
69758W        W70622   9.012  17.250  23.983 -0.1642  0.2501  0.0180
69759W        W70623   2.694  11.023   0.848 -0.2472  0.0517 -0.0199
69760W        W70624   9.104   0.267   3.486 -0.1436 -0.1863  0.2534
69761W        W70625  28.831   5.191  23.172 -0.2455  0.1115 -0.1961
69762W        W70626  15.635  19.934  12.279  0.1943 -0.2168  0.0284
69763W        W70627   4.661  21.789   7.952  0.0693 -0.0396 -0.1870
69764W        W70628  15.058  21.554   2.564  0.1041  0.0409 -0.0078
69765W        W70629  15.969  25.385  20.972 -0.2725  0.0696 -0.2603
69766W        W70630   4.948  23.697   8.551 -0.0469  0.0022  0.0541
69767W        W70631  20.581  16.962  18.012 -0.1195 -0.0822  0.2290
69768W        W70632  24.520   1.682  22.670 -0.2347 -0.1300  0.0925
69769W        W70633  20.389  13.559   5.180  0.1044  0.0347  0.3470
69770W        W70634  29.126   6.155   6.026  0.0147 -0.0952 -0.0032
69771W        W70635  23.249  28.870  13.948  0.1858  0.1238  0.0588
69772W        W70636  16.397   4.760   1.525  0.0253 -0.0939 -0.0890
69773W        W70637  15.480   5.277  15.807 -0.0882  0.1366 -0.2886
69774W        W70638  17.178  19.395  28.471  0.2083 -0.2085  0.2383
69775W        W70639  13.344  19.240  19.191  0.1149  0.1721 -0.0156
69776W        W70640  19.003  12.216   7.774  0.0817  0.0018  0.1878
69777W        W70641   6.932   8.810   3.919 -0.0764 -0.0839  0.0763
69778W        W70642  17.391   8.754  16.947  0.2562 -0.1777  0.2987
69779W        W70643  27.083  15.091  27.223 -0.0059  0.1158  0.0113
69780W        W70644  21.099  25.604  20.516 -0.1432  0.2179 -0.0966
69781W        W70645  26.670   4.081  28.082 -0.2940  0.3240 -0.0152
69782W        W70646   5.143   2.485  18.741 -0.0298  0.2363  0.2050
69783W        W70647  17.701  15.967   2.111  0.1478  0.1062 -0.0284
69784W        W70648  11.598  15.772  27.726  0.0671  0.0702  0.1796
69785W        W70649  14.109   7.429   3.781  0.1238  0.2005 -0.2823
69786W        W70650   3.367  21.390  13.572 -0.5085  0.1023 -0.3637
69787W        W70651  19.846  25.463   1.023  0.2409 -0.3144 -0.0448
69788W        W70652   7.434  24.353  11.449 -0.0239 -0.0892 -0.0632
69789W        W70653  10.249  15.668  28.705 -0.1120 -0.0261  0.1499
69790W        W70654  28.754  18.490  11.251  0.0195 -0.0525  0.1992
69791W        W70655  23.030   2.097   1.376  0.3214 -0.0337 -0.1159
69792W        W70656  22.251   9.694  21.171  0.1951 -0.0283 -0.0285
69793W        W70657  11.529  18.977  19.559 -0.0727 -0.0610 -0.2213
69794W        W70658  26.628   8.801  15.133 -0.2047  0.2256 -0.3565
69795W        W70659  12.351   4.710  13.184  0.3437  0.0238 -0.1067
69796W        W70660  18.758  18.618  27.451  0.0884 -0.2893  0.0931
69797W        W70661  28.281  28.805  10.132 -0.0222  0.0414 -0.0056
69798W        W70662  18.402  26.275  15.764 -0.0594  0.0644  0.2057
69799W        W70663  12.326  28.847   6.114  0.0218  0.0265  0.3639
69800W        W70664  27.645   9.943  13.036  0.1331  0.3460 -0.0700
69801W        W70665  12.216  14.924   4.177  0.0892 -0.1081 -0.0007
69802W        W70666   3.351  11.313  20.604  0.1225  0.0417 -0.0797
69803W        W70667   7.824  22.748  12.169 -0.1835 -0.0627  0.0366
69804W        W70668   5.475  14.611  24.592  0.1647  0.0708  0.0980
69805W        W70669   6.675   8.286  18.734 -0.3333 -0.0248 -0.0095
69806W        W70670  21.854  26.216  21.691  0.1424 -0.0410 -0.3537
69807W        W70671  13.579  22.420  27.079 -0.0240  0.1227  0.1400
69808W        W70672   9.060  27.104  16.007 -0.0888  0.0776  0.0259
69809W        W70673   6.326   8.949  19.564  0.1668  0.2415  0.4065
69810W        W70674  18.625  19.250  10.104  0.1353 -0.1250 -0.1647
69811W        W70675  12.839  17.057  11.588  0.3629 -0.1581 -0.1933
69812W        W70676   9.371   8.140  24.488 -0.3020 -0.3816  0.3560
69813W        W70677  12.768  21.715  16.770 -0.0118  0.0642  0.2139
69814W        W70678  14.084  26.196   7.790  0.2477 -0.0466  0.0780
69815W        W70679  24.083  27.103  24.672  0.4684  0.0917  0.2565
69816W        W70680  18.039  12.160  26.020  0.3447  0.2045  0.2008
69817W        W70681  23.398  17.236   4.045 -0.1302  0.2072 -0.1309
69818W        W70682  28.992  19.886  20.427  0.3639  0.0654  0.1676
69819W        W70683  14.328  26.026  24.752 -0.0356 -0.2068  0.2608
69820W        W70684  28.816  26.545  24.650  0.2079  0.3383  0.3829
69821W        W70685   3.011  14.431   1.800  0.1160  0.1484  0.1393
69822W        W70686   6.662  22.241  13.252  0.1760  0.1591 -0.0813
69823W        W70687   8.999   7.542   1.687  0.2024  0.0240  0.0406
69824W        W70688  18.561  21.836   8.738 -0.0167 -0.1389 -0.0046
69825W        W70689   4.135   9.258   3.415 -0.2984 -0.3550 -0.2583
69826W        W70690   9.663  28.261  13.763  0.1000 -0.2313  0.2602
69827W        W70691  25.841   1.277  23.552 -0.1525  0.0016  0.2026
69828W        W70692  15.086  16.670  28.787 -0.1677  0.0963  0.5331
69829W        W70693   6.709   4.112  27.539  0.5343 -0.0573  0.0750
69830W        W70694  16.462  26.110  17.510 -0.0862 -0.2272  0.0384
69831W        W70695  21.896  23.576  25.989 -0.2306 -0.1383 -0.1427
69832W        W70696  27.540  19.800  26.667 -0.1650  0.0232  0.0401
69833W        W70697   5.424  16.457  11.847  0.1102 -0.0818 -0.0674
69834W        W70698  25.461  17.915   7.874 -0.1156  0.0562 -0.0308
69835W        W70699  12.032   5.350   2.950  0.1904 -0.1398 -0.3766
69836W        W70700   9.219   6.205  12.965  0.1253 -0.1469 -0.5290
69837W        W70701   7.827   9.698  21.414  0.0570 -0.3482 -0.0352
69838W        W70702  16.586  21.031   7.767  0.1663  0.2293  0.1106
69839W        W70703   3.709  11.747  15.992  0.0078  0.1158  0.0077
69840W        W70704  21.606  27.032  18.778 -0.1694  0.2113  0.0650
69841W        W70705  18.919  14.133   2.205  0.2488 -0.0759 -0.1098
69842W        W70706   6.560  19.258  28.437 -0.0054  0.0912 -0.1339
69843W        W70707  20.463  15.445  20.812  0.0238  0.2181 -0.2000
69844W        W70708  15.025   9.342  10.634  0.1933  0.0669  0.1221
69845W        W70709   2.152   0.005  13.926  0.0972  0.1141  0.0091
69846W        W70710  12.281  14.324  11.677 -0.0744 -0.1678  0.0953
69847W        W70711   4.901  13.191  27.316  0.1115 -0.0064  0.0716
69848W        W70712  11.271  24.762  16.782  0.0989  0.0004  0.0755
69849W        W70713  13.742  23.802  11.287 -0.1383 -0.0031 -0.0566
69850W        W70714  20.628  14.561  16.701 -0.2488  0.1103  0.1983
69851W        W70715  11.280  28.821  19.642  0.0318 -0.0363  0.4266
69852W        W70716   2.547  12.763   7.575 -0.0518  0.1668 -0.1187
69853W        W70717  25.307  25.214  22.915  0.2159 -0.0980 -0.1551
69854W        W70718   4.272  12.552  22.529 -0.0805 -0.1682  0.0782
69855W        W70719   7.397  16.250  24.368 -0.0995 -0.1685  0.1383
69856W        W70720   3.053   1.207  21.620 -0.0452  0.1809  0.1299
69857W        W70721  19.193  17.603  22.187  0.2841 -0.3397 -0.2476
69858W        W70722  13.242  23.758  23.808  0.2303 -0.0191 -0.0308
69859W        W70723  14.941  18.218  23.273 -0.0666  0.2805 -0.3221
69860W        W70724   6.969  23.484   7.984 -0.0284 -0.0399 -0.0279
69861W        W70725   0.564  28.965  24.312 -0.0141  0.2004  0.0648
69862W        W70726   5.531  25.576  14.584  0.0274  0.0409 -0.1114
69863W        W70727   6.947  27.737  14.209 -0.2322  0.0217 -0.0438
69864W        W70728  13.197  28.719  20.647  0.0117  0.3607 -0.2251
69865W        W70729  12.212  15.780   6.891  0.0408  0.2025  0.1900
69866W        W70730  21.634   0.200  25.411  0.1226  0.4144  0.0456
69867W        W70731  26.814   3.497  15.848 -0.4904 -0.0713 -0.0215
69868W        W70732   0.620  15.708  16.677 -0.0338 -0.2697  0.0457
69869W        W70733   3.219  27.133  15.336  0.0263  0.0668  0.1377
69870W        W70734  28.591   2.660   4.299  0.1023  0.3165  0.1004
69871W        W70735   3.006   9.325  25.381  0.0748  0.0167  0.0498
69872W        W70736   5.320  19.232  22.776  0.1827  0.0080 -0.0211
69873W        W70737   7.956  20.267  18.312  0.1842 -0.1668  0.1133
69874W        W70738   7.012   5.926  27.765 -0.1950  0.2536  0.1477
69875W        W70739  10.392  19.171   3.824  0.5689 -0.2706 -0.0894
69876W        W70740  16.907   3.859  27.514  0.1126  0.0900  0.1518
69877W        W70741   4.093  23.086  20.575 -0.5253 -0.0125 -0.1457
69878W        W70742   2.422  23.444  23.130 -0.1152 -0.1514 -0.0728
69879W        W70743  16.622   7.146   1.551 -0.0342  0.2169  0.0614
69880W        W70744   7.686  20.295  16.455 -0.2732 -0.2783  0.3300
69881W        W70745  11.167  16.442   5.519 -0.1225  0.1173 -0.1203
69882W        W70746   3.954  24.044  25.285 -0.3627 -0.2062  0.2266
69883W        W70747  11.356  18.024  28.582 -0.0097  0.0242  0.2051
69884W        W70748   5.107  14.190  18.316  0.1508 -0.1933  0.2459
69885W        W70749  12.120  20.972  20.840  0.0323  0.1722 -0.0633
69886W        W70750   9.629   0.728  28.096 -0.2946 -0.0015 -0.1066
69887W        W70751   5.863  18.190  10.194 -0.2876  0.4302  0.0816
69888W        W70752  16.317  15.455  28.014 -0.0017 -0.4320 -0.3104
69889W        W70753  27.011   8.443   1.802 -0.1518  0.2274 -0.1909
69890W        W70754  13.646  23.542  28.224  0.3298  0.1156  0.0472
69891W        W70755  24.348  17.754  16.071  0.0276  0.1035 -0.0359
69892W        W70756  20.961  14.697  10.225  0.1839  0.1627 -0.0455
69893W        W70757   1.175  22.052  24.706 -0.0040 -0.0304 -0.1225
69894W        W70758  27.492  17.006  16.509  0.2534  0.1236 -0.2508
69895W        W70759  13.668   8.431  17.677 -0.4260 -0.1687 -0.1169
69896W        W70760  23.746   1.339  21.105 -0.0732  0.1706  0.1301
69897W        W70761  10.941  12.427   5.353 -0.1233  0.0108 -0.0183
69898W        W70762   7.489   8.656   9.104 -0.2632  0.1120 -0.1664
69899W        W70763   9.426  14.769  23.296  0.2555  0.1063  0.3341
69900W        W70764  23.415  22.229  24.659  0.1694 -0.2978  0.2039
69901W        W70765  28.136  22.164  20.943  0.4980 -0.0396  0.0388
69902W        W70766  16.672  13.457  20.801 -0.1828  0.1877  0.0850
69903W        W70767  21.144  26.714  25.737 -0.2415 -0.0398 -0.2357
69904W        W70768  15.222   1.859  11.869 -0.2489 -0.0118 -0.1712
69905W        W70769  14.543  20.719  14.889 -0.1598 -0.1161 -0.1339
69906W        W70770  11.245   7.948  22.398 -0.2286  0.0378 -0.0646
69907W        W70771   3.606  16.832   2.256 -0.2780 -0.2450  0.2486
69908W        W70772   0.905  28.417  24.333 -0.0245 -0.5030 -0.0528
69909W        W70773  21.301  14.877  28.278 -0.0563  0.2992  0.0772
69910W        W70774  14.794  17.621   6.601 -0.0073  0.1068 -0.0264
69911W        W70775   4.327   5.728   2.471 -0.2254 -0.2405  0.0612
69912W        W70776  10.354   2.512  18.882  0.0905  0.3151 -0.4997
69913W        W70777   9.339   0.110   3.042 -0.1056  0.5214  0.0649
69914W        W70778  21.658  22.049  24.756 -0.0609 -0.1610  0.1832
69915W        W70779  22.761  26.722   1.489 -0.0807  0.5581 -0.0741
69916W        W70780  18.085  19.868  26.836 -0.1253 -0.1695 -0.1595
69917W        W70781  14.300   1.828  27.542  0.1451 -0.1626 -0.0879
69918W        W70782  24.226  14.876  14.228  0.1186  0.2488  0.0798
69919W        W70783  24.279  14.054  15.919  0.0017 -0.4987 -0.0700
69920W        W70784  20.437  18.027  20.671  0.2147 -0.0386 -0.0741
69921W        W70785   2.015  18.727   6.867 -0.3940  0.1116 -0.0262
69922W        W70786  17.525  10.936  26.435 -0.1311  0.2948  0.1004
69923W        W70787   9.621   4.486  17.460 -0.0068 -0.0625  0.1380
69924W        W70788  13.549  15.088  25.725 -0.2359 -0.0204 -0.1521
69925W        W70789  11.616  26.070  19.376  0.2545 -0.1239 -0.2550
69926W        W70790  16.338  16.233  16.785  0.2000 -0.0115 -0.0066
69927W        W70791  28.248  26.040  19.896  0.1318  0.1623  0.0584
69928W        W70792   5.050  17.476  13.885 -0.1985 -0.1486 -0.1097
69929W        W70793  16.478   2.498   1.342 -0.0105  0.2447  0.1783
69930W        W70794   8.253  25.084   6.059 -0.0066 -0.0187 -0.1065
69931W        W70795  15.933  28.353  23.382  0.0520 -0.3384 -0.0037
69932W        W70796   0.854  14.233  21.767 -0.0296  0.0972  0.0537
69933W        W70797   1.134   0.783  24.354 -0.0489  0.2412 -0.2279
69934W        W70798   8.229  10.064  22.147 -0.0999  0.0142  0.4352
69935W        W70799  10.212  15.507   2.459  0.4159  0.1531  0.4424
69936W        W70800   7.040  21.452   1.279  0.1531  0.1360 -0.0436
69937W        W70801  10.197  26.448   3.284 -0.0469  0.3063 -0.0754
69938W        W70802  28.894   9.250   0.542  0.0185 -0.3127 -0.0275
69939W        W70803  22.122  11.412   3.969  0.1264  0.1093  0.2625
69940W        W70804   9.991   2.011  20.435  0.0650 -0.1105  0.2101
69941W        W70805  22.309  12.506  16.421  0.1539 -0.1392 -0.4020
69942W        W70806  11.688  13.278   6.256 -0.3753 -0.0085 -0.1219
69943W        W70807  11.004   4.174  20.516 -0.3219  0.0979 -0.2226
69944W        W70808  16.921  23.095  27.152  0.0087 -0.0990 -0.1563
69945W        W70809  17.593   2.679  21.126 -0.0562 -0.1500  0.0161
69946W        W70810  12.737  14.363   0.232 -0.0564  0.0042 -0.0466
69947W        W70811  25.674  14.968  11.268  0.0462 -0.0003 -0.3477
69948W        W70812   6.189  28.122  17.464 -0.0838  0.1027 -0.0106
69949W        W70813   8.614  15.126  10.513 -0.0065  0.1344 -0.0998
69950W        W70814  27.034  13.186   1.583  0.0232  0.1168 -0.0707
69951W        W70815   8.452   8.481  26.543  0.0664 -0.0859  0.1791
69952W        W70816   4.986  22.569  13.709 -0.1199 -0.3115  0.0424
69953W        W70817  13.756  18.684  20.466  0.2383  0.1610  0.3853
69954W        W70818  13.699   6.170  13.850 -0.0384 -0.0584 -0.2069
69955W        W70819  10.470   7.229   0.979 -0.2890 -0.0470  0.0676
69956W        W70820   8.501  22.521   7.686  0.3346  0.0545  0.1706
69957W        W70821  19.483   0.437  17.174 -0.3403 -0.1065 -0.2234
69958W        W70822   6.558  14.147  21.726 -0.0008 -0.1327 -0.0601
69959W        W70823  27.920   6.669  18.685  0.1153 -0.2115 -0.0276
69960W        W70824   0.790  22.324  26.258 -0.1790  0.1945 -0.2983
69961W        W70825  14.806  20.259  23.695 -0.2637  0.0064 -0.0761
69962W        W70826  12.161  23.440   5.537 -0.1274 -0.0189  0.3034
69963W        W70827   8.365  13.134  28.753 -0.3111  0.0604 -0.1258
69964W        W70828   8.773   5.151  22.166 -0.2487 -0.2073  0.0169
69965W        W70829  25.859  26.174  22.067 -0.0768  0.2401 -0.0717
69966W        W70830  24.970  19.729   1.711 -0.1948 -0.2871  0.1731
69967W        W70831   6.684   1.052  18.219  0.0538 -0.1346 -0.1237
69968W        W70832   3.106  17.061  29.098  0.1481  0.2810  0.3023
69969W        W70833  28.782   3.497  22.923 -0.2702 -0.0343 -0.2566
69970W        W70834  10.246   4.855  26.020 -0.0997  0.3687 -0.1376
69971W        W70835  20.836   1.437   1.092  0.2143 -0.0754  0.0461
69972W        W70836   6.718  26.041   8.762 -0.2171 -0.0140  0.0617
69973W        W70837   3.811   2.634  23.861 -0.1232 -0.0701 -0.0170
69974W        W70838   2.322  12.055  21.195  0.0139 -0.2463 -0.1077
69975W        W70839  25.875  19.558  11.005  0.0413  0.1444 -0.1374
69976W        W70840  23.056   7.256  25.759 -0.1902 -0.1187  0.1142
69977W        W70841  14.256  23.237  24.902  0.0258 -0.1329 -0.1378
69978W        W70842  15.469  15.065  14.670 -0.2132  0.3992 -0.2909
69979W        W70843  12.818  10.740  27.965 -0.0570  0.2626  0.1357
69980W        W70844  18.726  23.650   0.863  0.3630  0.2910 -0.1549
69981W        W70845  24.875  11.391   2.350 -0.2369 -0.1631 -0.0579
69982W        W70846  18.699  17.339   4.572 -0.0399 -0.1467  0.0548
69983W        W70847  20.603  14.539  24.893 -0.0249 -0.0090 -0.0148
69984W        W70848   7.487  29.008   0.018  0.0873 -0.1954 -0.3221
69985W        W70849  15.404  16.553   1.449  0.2121  0.1737  0.1569
69986W        W70850   6.231  14.930  18.740  0.0114  0.2577 -0.0901
69987W        W70851   8.006  23.857   5.120  0.1938 -0.1554 -0.0417
69988W        W70852   1.319  16.342   2.998  0.1255  0.4337  0.1494
69989W        W70853  23.878   0.919  23.565  0.1518  0.1203 -0.3095
69990W        W70854   5.899  24.200  26.737 -0.0365 -0.1211  0.1611
69991W        W70855  20.387  12.385   9.327  0.1899  0.3263  0.1548
69992W        W70856  22.669  11.885  17.921  0.2391  0.0166  0.1351
69993W        W70857   4.993  22.232  24.497  0.1556 -0.1543  0.1041
69994W        W70858  16.798  10.648   6.612  0.0047  0.0225  0.0972
69995W        W70859  20.526  20.615  26.079 -0.0069  0.1156  0.1813
69996W        W70860   6.770  28.954   2.232  0.0557 -0.0817 -0.1794
69997W        W70861   0.707  28.007  28.214 -0.1079  0.2578 -0.0099
69998W        W70862  13.483   9.288   7.975 -0.2467  0.0837  0.0907
69999W        W70863   4.664  28.360  11.311  0.0407 -0.3555 -0.1645
70000W        W70864  29.122  19.439  20.543 -0.0194 -0.0872  0.0651
70001W        W70865  26.796  11.606  16.751 -0.0980 -0.2304  0.2084
70002W        W70866  18.842  10.732  23.443 -0.6649 -0.1811  0.1525
70003W        W70867   4.575  28.211  27.261 -0.2430  0.1886  0.0712
70004W        W70868   0.326  22.772   7.675  0.2253 -0.0609 -0.0158
70005W        W70869  16.355  14.815   7.690 -0.0407 -0.0525 -0.0994
70006W        W70870   7.587  18.937  26.230 -0.1654 -0.0697  0.2427
70007W        W70871  14.406  21.242   2.628  0.0271 -0.0480 -0.0099
70008W        W70872  27.212  16.342  27.997 -0.1092 -0.2874  0.1449
70009W        W70873   7.807  28.608  23.063  0.3052  0.3554  0.3742
70010W        W70874  17.644   3.566  17.446  0.0125  0.3094 -0.0373
70011W        W70875   0.142   0.014  22.734 -0.3276 -0.2195  0.0716
70012W        W70876   9.488  15.017  19.246 -0.1072  0.2637 -0.1926
70013W        W70877  22.765   0.193   9.461 -0.0565  0.0294  0.1535
70014W        W70878  25.922   1.758  11.166  0.1469 -0.1880 -0.2455
70015W        W70879  18.412   3.020  26.595 -0.2641  0.0178  0.2742
70016W        W70880  16.286   3.724  14.737  0.1923 -0.2050  0.3032
70017W        W70881   6.554  28.389   1.370 -0.2333 -0.1342 -0.0109
70018W        W70882  11.999  10.464  26.475  0.2407 -0.2013  0.0095
70019W        W70883   8.296  21.856  28.954  0.0751 -0.1339  0.2198
70020W        W70884  28.901  28.873   5.821  0.2137 -0.0068  0.2314
70021W        W70885  27.758  17.640   7.247  0.1249  0.2203 -0.0540
70022W        W70886  12.532  15.300  10.499 -0.1370 -0.0997 -0.0909
70023W        W70887  21.344   9.657  25.138 -0.0747  0.1885 -0.1877
70024W        W70888   4.077  19.650   2.365 -0.0968  0.1078 -0.0114
70025W        W70889  12.544  23.190  22.065 -0.0378  0.0802  0.2517
70026W        W70890   8.328   0.383  22.608  0.1334  0.0306  0.1073
70027W        W70891  14.100  28.924   7.481  0.3393 -0.0218 -0.2233
70028W        W70892   6.040  10.790   4.912 -0.2682  0.1756  0.1748
70029W        W70893  28.280  25.716  21.489 -0.1283 -0.3770 -0.0598
70030W        W70894   4.030  28.787  19.117  0.3933 -0.0604 -0.1506
70031W        W70895  13.696  13.734   5.648  0.0373 -0.2502 -0.1660
70032W        W70896  12.915  15.140  16.121 -0.1305  0.0850  0.0035
70033W        W70897  12.840   4.301   2.933  0.2916  0.0180 -0.0227
70034W        W70898  18.493  16.820   9.411 -0.0055  0.0177 -0.1340
70035W        W70899  14.557  15.007  28.291  0.0437 -0.0833 -0.2318
70036W        W70900  19.265   6.488  20.680 -0.0364  0.0293 -0.1379
70037W        W70901  15.313   0.443  12.244  0.4904 -0.1566 -0.2932
70038W        W70902   9.207  23.020  25.725  0.0998 -0.4154 -0.3234
70039W        W70903  19.781  14.523   7.878 -0.2664 -0.2851  0.0045
70040W        W70904  26.400   9.919  10.134 -0.2082 -0.0706  0.2463
70041W        W70905   4.315   4.692  20.103  0.0631 -0.2245  0.1398
70042W        W70906   7.472  15.499   0.748 -0.1247 -0.2370  0.3699
70043W        W70907   1.406  14.288   5.505 -0.1794 -0.3459 -0.0753
70044W        W70908  10.227   7.880  18.212 -0.0939  0.0525  0.1086
70045W        W70909  13.398  26.611   1.647  0.0739  0.0758 -0.3220
70046W        W70910   9.362   8.289  27.403 -0.1614 -0.0939  0.1094
70047W        W70911  19.271   7.670  24.732  0.1379 -0.1929  0.2701
70048W        W70912   9.500  22.458  16.926  0.0130 -0.1705  0.0785
70049W        W70913   7.075  19.914  29.006 -0.1735  0.1670 -0.0721
70050W        W70914   7.616  26.826  25.264  0.0664  0.2693 -0.1862
70051W        W70915  20.617  18.680  22.591 -0.1923 -0.0232 -0.2352
70052W        W70916  12.390  20.871  27.045 -0.0987  0.1339  0.2250
70053W        W70917  21.423  19.669  27.902  0.3765 -0.0159 -0.1595
70054W        W70918   5.281   7.128  20.467 -0.3800 -0.2607 -0.0260
70055W        W70919   0.181  14.137   4.096 -0.0967 -0.2864 -0.2436
70056W        W70920   7.094   0.755  18.180 -0.4113  0.1050 -0.0415
70057W        W70921  11.011   0.343  12.328 -0.1003  0.0858  0.0197
70058W        W70922  13.232   5.329   7.964  0.1603 -0.1024  0.2357
70059W        W70923  19.542  28.452  21.928  0.1126 -0.0057 -0.2130
70060W        W70924  24.145  25.319  15.084  0.1743 -0.0937  0.0008
70061W        W70925   5.184  19.690  15.100 -0.2818  0.0659 -0.3349
70062W        W70926  15.075   1.505  28.063  0.0327 -0.0586  0.3112
70063W        W70927  12.024  17.516  20.132 -0.0456 -0.0850 -0.2150
70064W        W70928  15.524  16.477   4.476 -0.1000 -0.1246  0.0277
70065W        W70929  16.617  15.172   2.239  0.0035  0.0881 -0.2215
70066W        W70930   2.457  10.558   4.839  0.0445  0.1713  0.3895
70067W        W70931  25.485   0.691  27.683  0.0578  0.2799  0.0982
70068W        W70932  12.847   2.072  24.230  0.1702 -0.0663 -0.2465
70069W        W70933   5.902  24.225  11.459 -0.1964  0.4002 -0.0806
70070W        W70934  22.446  15.393   4.555 -0.0191  0.0314  0.0516
70071W        W70935  28.631  16.797  12.149 -0.0729 -0.1701 -0.1605
70072W        W70936  11.856   3.967  26.789 -0.1423 -0.0192  0.2577
70073W        W70937  10.931  16.605  24.666 -0.1011  0.0872 -0.0435
70074W        W70938  22.111  23.595   5.979 -0.1152  0.1339 -0.0173
70075W        W70939  10.705   4.877  20.080  0.0224  0.1010  0.2932
70076W        W70940  20.045   3.150  23.127  0.1838 -0.0898  0.0327
70077W        W70941  21.116  20.176  17.948 -0.0228 -0.0103  0.1137
70078W        W70942   8.573  14.703   2.580 -0.1122  0.1029  0.1523
70079W        W70943  25.314  27.151  19.086 -0.1261  0.0346 -0.2769
70080W        W70944  21.214  18.510  13.860  0.2676 -0.2379  0.0946
70081W        W70945  22.708  19.464   1.723 -0.0063 -0.2644 -0.1666
70082W        W70946  10.905   8.278   3.434  0.0049 -0.0483  0.0366
70083W        W70947  10.761   6.896   1.150  0.2404  0.0057 -0.0409
70084W        W70948  20.832  27.249   5.625 -0.0040 -0.0117 -0.1646
70085W        W70949   1.619  16.922  11.652 -0.0209 -0.0945 -0.1022
70086W        W70950   1.627   0.732   4.315 -0.0384 -0.2332 -0.1196
70087W        W70951  13.637  16.228   3.060  0.2887  0.1494  0.0563
70088W        W70952  19.305   2.978  18.426 -0.3579  0.0444  0.0076
70089W        W70953   3.842  24.031   8.927 -0.3057  0.0764  0.1179
70090W        W70954  28.877  19.967  26.925 -0.0589  0.1472  0.0616
70091W        W70955  12.725  12.072  17.641  0.0614 -0.1096  0.1910
70092W        W70956   4.724  18.005  18.831 -0.1927  0.0347  0.0872
70093W        W70957   5.799  19.786   7.549  0.3034  0.0807  0.0823
70094W        W70958   5.649   1.287  26.365  0.2335  0.1605  0.3192
70095W        W70959  12.859  24.610   2.171  0.3351  0.2263  0.2208
70096W        W70960   6.688  16.959  19.767  0.0114  0.0983  0.0189
70097W        W70961  12.839   9.649  20.774 -0.0458 -0.0972  0.1615
70098W        W70962  24.481  18.225  11.905 -0.0939 -0.2040 -0.1869
70099W        W70963   7.112   7.198  17.056 -0.0873 -0.2515 -0.1835
70100W        W70964  15.532  20.343  21.116 -0.0502  0.1482 -0.0315
70101W        W70965  16.374  27.740  27.216 -0.1023  0.0079  0.1016
70102W        W70966   3.592  22.304  22.716  0.3252 -0.1911  0.4427
70103W        W70967   6.663  22.870  18.499  0.0722 -0.0281 -0.1682
70104W        W70968   4.819   4.300   2.207  0.1813  0.1138  0.0421
70105W        W70969  26.940   3.350  17.853 -0.2460 -0.1087  0.0852
70106W        W70970  20.948  22.203  21.296 -0.0545 -0.3402 -0.6210
70107W        W70971  26.284  16.066  17.720  0.1020  0.1779  0.0353
70108W        W70972   1.705  25.637   8.144 -0.2889 -0.0404  0.0519
70109W        W70973  20.171  22.795  22.306  0.2246 -0.2183  0.0605
70110W        W70974   9.938  23.255   7.091  0.2296 -0.0201  0.2713
70111W        W70975  22.105   0.895  22.195  0.1586 -0.1746  0.2048
70112W        W70976  10.442  15.501  21.542  0.0915  0.0630  0.2647
70113W        W70977  11.124   4.198  25.948 -0.1303 -0.2502 -0.0189
70114W        W70978  18.537  23.372   5.629  0.1999  0.1370 -0.0764
70115W        W70979   4.686  11.210   0.783 -0.0029 -0.0301 -0.4275
70116W        W70980  27.525   1.167  21.081 -0.0449  0.0941 -0.2096
70117W        W70981  12.111  24.319  25.011  0.0662  0.0025 -0.2514
70118W        W70982  28.828  22.085  26.245 -0.4461  0.1989 -0.3563
70119W        W70983   5.001   0.482  16.435 -0.1149  0.1214  0.1265
70120W        W70984   2.060  15.128  24.285 -0.2539 -0.1152  0.1092
70121W        W70985  26.580  20.552  17.133  0.1138  0.2798  0.0492
70122W        W70986   9.894  12.348  21.084 -0.0178 -0.3203  0.1203
70123W        W70987  23.804   5.691  19.827  0.0850  0.2656  0.0073
70124W        W70988   9.990  15.510  21.301  0.0912 -0.0208 -0.4328
70125W        W70989  13.574  20.150  14.472  0.0898 -0.1070 -0.1326
70126W        W70990  27.980  20.373  21.480  0.2064  0.0826 -0.0827
70127W        W70991   3.094   9.707  24.173 -0.1618 -0.1278  0.1958
70128W        W70992  10.027  21.250  26.253 -0.2544  0.1393 -0.0254
70129W        W70993  13.615  20.281  24.558 -0.4915 -0.0653 -0.0361
70130W        W70994   7.378  16.786  23.478 -0.0104  0.0144 -0.0684
70131W        W70995  26.549   5.280  24.740  0.1654  0.1057 -0.1199
70132W        W70996  24.272  26.287  13.547  0.2458 -0.1833 -0.0471
70133W        W70997  15.597  28.338   4.431 -0.0597 -0.1662 -0.0882
70134W        W70998  21.333  24.459  20.781 -0.0567 -0.0675  0.0358
70135W        W70999   1.136  21.197  27.050  0.0148  0.0243  0.3657
70136W        W71000  23.934   4.125   4.370  0.0594 -0.0073 -0.0127
70137W        W71001   3.323   4.458  16.571 -0.1128  0.0193  0.1577
70138W        W71002  11.776  16.495   3.068  0.1247  0.3498  0.3009
70139W        W71003  27.780   4.058  22.062 -0.1299 -0.0908  0.0533
70140W        W71004  18.578  26.550  14.407 -0.1030  0.2680  0.1545
70141W        W71005  24.303   8.108  16.655 -0.0961 -0.0742 -0.0656
70142W        W71006  11.531   2.289  27.521 -0.0685  0.0495  0.0587
70143W        W71007   3.883   4.491  20.733  0.1580 -0.2692 -0.0992
70144W        W71008  15.755  12.519   3.958  0.1152  0.1752  0.2441
70145W        W71009   8.686   6.488  16.760 -0.2920 -0.0430  0.1027
70146W        W71010   1.909  26.359   5.080  0.3912  0.1257  0.0832
70147W        W71011  19.592  13.176  26.641 -0.1808 -0.2263 -0.0775
70148W        W71012   6.503  21.517  21.530 -0.2483 -0.1005  0.1010
70149W        W71013  16.708   0.023   1.248 -0.3244  0.2515  0.0278
70150W        W71014  17.903   4.859   0.825  0.1608 -0.0799 -0.0139
70151W        W71015   7.629  28.789  18.344  0.2303  0.0572 -0.0164
70152W        W71016   3.148  25.218   2.723  0.0777  0.1846  0.0632
70153W        W71017  24.765   0.616  25.539 -0.0689  0.1147  0.0422
70154W        W71018   0.196  13.837  13.538 -0.1112  0.0506  0.2908
70155W        W71019  28.403   0.837  22.663  0.0517  0.1322  0.2072
70156W        W71020  10.084  23.110   3.879 -0.1538  0.1059 -0.0484
70157W        W71021  17.734  14.921  28.920 -0.0125  0.0515 -0.2848
70158W        W71022  13.577  17.575  21.801  0.0556 -0.0210 -0.0462
70159W        W71023   3.175   8.778  13.524 -0.2164 -0.2933  0.1125
70160W        W71024  28.234  20.088  15.834 -0.1941 -0.1688 -0.0073
70161W        W71025   3.221  21.248  15.516 -0.0292 -0.3204  0.2507
70162W        W71026  24.969  22.385   7.041  0.3175 -0.0596 -0.0428
70163W        W71027  24.176  24.238   2.107 -0.0232  0.0557  0.3194
70164W        W71028   4.556   1.981   6.472  0.1065 -0.0906  0.3159
70165W        W71029  22.135   7.263   5.487 -0.0571 -0.2931  0.0264
70166W        W71030   6.310  19.424  18.946  0.4273  0.1128  0.1281
70167W        W71031  16.434  15.089  28.912  0.1003  0.0490 -0.0169
70168W        W71032   1.545  13.089  23.203 -0.1147  0.1274 -0.0736
70169W        W71033   1.146  18.588  11.575 -0.0818 -0.3201 -0.0710
70170W        W71034  28.636   7.722  26.533 -0.0287  0.1801 -0.2922
70171W        W71035   0.120  20.846   6.225 -0.1359 -0.0793  0.0586
70172W        W71036   7.871  12.658  24.696  0.1392 -0.1356  0.3112
70173W        W71037   8.517  11.978  21.121 -0.1543 -0.1525  0.4907
70174W        W71038  15.107   3.145  27.096 -0.0863  0.0118 -0.3323
70175W        W71039  19.420  13.482  22.041  0.1552  0.3147  0.2182
70176W        W71040   6.518  21.519  20.141  0.0904  0.1129  0.1029
70177W        W71041  16.979   2.233  23.018  0.2494  0.4079 -0.0828
70178W        W71042  10.971  19.154   6.025  0.1701 -0.2830  0.2522
70179W        W71043   4.320  12.716  23.005  0.3128  0.1154  0.2742
70180W        W71044  28.893  27.905   4.800 -0.1415  0.1622  0.1187
70181W        W71045  10.965  28.929   8.158  0.2659 -0.1848  0.2119
70182W        W71046  15.225  21.941  20.807 -0.0755 -0.0835  0.1158
70183W        W71047  15.313  17.068  20.906  0.0979  0.0169  0.4945
70184W        W71048  21.614  12.709   3.731 -0.1797  0.3901  0.0943
70185W        W71049  12.051  27.280  21.475 -0.0762 -0.0739 -0.0080
70186W        W71050  13.204  26.276   9.700  0.0112 -0.0831 -0.1775
70187W        W71051  13.774  13.133   8.661 -0.3532  0.1841 -0.1447
70188W        W71052   0.678  23.738  23.971  0.2472 -0.0837  0.2597
70189W        W71053   9.218  15.659  22.754  0.0166 -0.1001  0.0452
70190W        W71054   2.592  13.419  10.736 -0.0300  0.1674 -0.2327
70191W        W71055   6.465  20.115  24.418  0.0394  0.1320 -0.0841
70192W        W71056   7.931  22.698  26.690  0.0610 -0.0702  0.0018
70193W        W71057  27.227  22.691   6.825  0.0247  0.2464 -0.3539
70194W        W71058  13.711   6.500  15.403  0.0782 -0.0792 -0.1691
70195W        W71059  17.608  21.337  18.902 -0.0023 -0.0690  0.0454
70196W        W71060   9.943  27.508  25.031  0.1826  0.1764  0.4720
70197W        W71061   5.208  14.651  20.929  0.1241  0.3825  0.0296
70198W        W71062   8.290   6.517  21.549 -0.2461 -0.0149  0.0504
70199W        W71063   6.239  26.374  22.300  0.3905  0.0095  0.2381
70200W        W71064  19.588   6.878   8.583  0.0998 -0.0209  0.3030
70201W        W71065  28.450  24.522  18.205  0.4895 -0.2589  0.1877
70202W        W71066   9.321  29.087  14.712  0.1130 -0.2185 -0.1650
70203W        W71067  13.274  16.916  27.990  0.3454  0.2400  0.0705
70204W        W71068   9.699   4.170   7.560  0.3630 -0.4145  0.3620
70205W        W71069   9.950  20.793  18.490  0.0171 -0.1472  0.1001
70206W        W71070  15.026  15.618   4.460  0.1123 -0.1879  0.3453
70207W        W71071  23.742  15.374   1.170 -0.0177 -0.1311  0.0163
70208W        W71072  10.013  24.449  20.109 -0.1274 -0.2162  0.1851
70209W        W71073   8.372  19.254  19.974  0.1389  0.0107  0.0283
70210W        W71074  21.317  17.970  26.438 -0.0877  0.1232 -0.0243
70211W        W71075   1.135  12.403  12.069  0.1510  0.1750  0.0534
70212W        W71076  20.483  13.975   0.756  0.1074 -0.0007  0.2726
70213W        W71077  16.234  26.891  23.427 -0.4526 -0.4642  0.1052
70214W        W71078   6.210  15.634  15.973  0.1894 -0.0404  0.0193
70215W        W71079  17.368  23.979   4.650 -0.1099 -0.0342 -0.0354
70216W        W71080  12.788  19.085  24.264 -0.0726 -0.1142  0.0804
70217W        W71081  20.842  24.021   0.024  0.0374 -0.1516  0.0925
70218W        W71082  11.152  13.512   2.087 -0.0698 -0.0229 -0.1463
70219W        W71083  23.438  22.854  22.905  0.2900  0.3543 -0.1338
70220W        W71084  15.071   3.738  10.885 -0.1236  0.1385 -0.3211
70221W        W71085  16.668   0.324  16.490  0.0189 -0.0451 -0.1218
70222W        W71086   4.234  22.501  11.145  0.3842 -0.0646  0.1922
70223W        W71087  22.516  13.985  15.347  0.2724 -0.0261  0.0279
70224W        W71088   8.712  11.986  10.814 -0.0036  0.0523  0.3182
70225W        W71089   7.310  19.684   5.650 -0.0299  0.1288  0.3304
70226W        W71090  19.596  23.737  23.357 -0.0023 -0.1382 -0.3795
70227W        W71091  27.278  23.620   0.157 -0.4142  0.1032 -0.2822
70228W        W71092   0.662  23.460  28.435 -0.1271 -0.2557 -0.1026
70229W        W71093  16.180  15.338  22.009  0.1655  0.1565  0.0286
70230W        W71094   6.092  25.862  19.859  0.2445  0.0020 -0.2236
70231W        W71095   4.461  17.189  18.478 -0.2687  0.0215  0.0058
70232W        W71096   7.612  12.118  21.760 -0.1914 -0.0098 -0.4802
70233W        W71097  16.937   6.522   6.160  0.5781  0.1342 -0.1539
70234W        W71098  17.706  25.673  19.070 -0.1706  0.2166  0.2401
70235W        W71099  15.555  24.115   4.782  0.2483 -0.2102  0.5237
70236W        W71100   5.897  13.868  25.583 -0.0765 -0.0933 -0.0216
70237W        W71101  16.964   1.711  26.074 -0.1455  0.1693 -0.1857
70238W        W71102   8.050  22.705   1.209 -0.2755  0.1499  0.0296
70239W        W71103  24.624   6.476   4.893  0.0808  0.0105 -0.1485
70240W        W71104  26.982   9.346  10.788 -0.1452  0.2790 -0.1191
70241W        W71105   5.308  15.698  28.034 -0.0828  0.1169  0.1051
70242W        W71106  11.334   4.020   5.818  0.2212 -0.1040 -0.0310
70243W        W71107  27.571  22.703  15.783  0.1228 -0.0672 -0.2121
70244W        W71108   0.779   0.920   6.699  0.0159  0.2662 -0.4052
70245W        W71109   1.078  17.688   6.789 -0.0209 -0.2897  0.1808
70246W        W71110   8.856   0.664   8.449 -0.0905  0.0931 -0.0708
70247W        W71111   2.845  23.456   2.071  0.1457 -0.2938  0.0601
70248W        W71112  16.306  11.467   4.880 -0.0926 -0.0665  0.0315
70249W        W71113  12.463  22.857   6.559 -0.1047 -0.0258  0.2113
70250W        W71114   4.246  14.420  28.455 -0.0941  0.0222 -0.0734
70251W        W71115  28.036  25.666  15.602  0.1312 -0.1468  0.0309
70252W        W71116   1.007  10.397  13.234 -0.1830  0.0039  0.0939
70253W        W71117   7.895  15.937  26.339  0.0814 -0.0843  0.1123
70254W        W71118   3.478  25.308   8.754  0.1517 -0.3120  0.0305
70255W        W71119   5.192   0.663  25.873 -0.1209  0.2596 -0.1028
70256W        W71120   3.347  13.395  20.334 -0.2011 -0.1695  0.0774
70257W        W71121  21.471   3.426   3.019 -0.0741 -0.0395 -0.2064
70258W        W71122   5.904   0.662  28.028 -0.0950  0.1583  0.3412
70259W        W71123  17.790   9.859  20.577 -0.2625  0.1124 -0.2587
70260W        W71124  22.140  11.635  15.968  0.2970  0.1448 -0.0252
70261W        W71125   3.365  11.231  23.007 -0.0473  0.0009 -0.1453
70262W        W71126   3.360  14.349   4.598  0.0388 -0.2199  0.1158
70263W        W71127   2.778   6.778  14.152 -0.0172  0.0934 -0.1342
70264W        W71128  28.149  12.644  12.681  0.1920  0.0776  0.0815
70265W        W71129   0.362  13.651   8.867 -0.1074  0.2997 -0.0576
70266W        W71130  23.210  18.986  21.427  0.1210  0.0340 -0.1630
70267W        W71131  14.172  24.609  17.367  0.0870  0.2103 -0.3242
70268W        W71132  23.197  14.612  14.844 -0.0001  0.1010 -0.0571
70269W        W71133  15.217  25.787   9.346 -0.2304 -0.1122  0.1183
70270W        W71134  20.285   6.299   0.373 -0.5809  0.2085 -0.1362
70271W        W71135   7.449  16.900  27.854 -0.3120 -0.0963 -0.2593
70272W        W71136   5.894  18.218   0.328 -0.0633  0.2244 -0.1079
70273W        W71137  28.745  27.690  19.999  0.1741 -0.1486 -0.1404
70274W        W71138  26.488  20.026   3.685  0.0981 -0.1995  0.2839
70275W        W71139  13.989  21.747  27.529  0.1541 -0.1883  0.1145
70276W        W71140   5.902  15.673  27.743 -0.0218  0.2004  0.0176
70277W        W71141   2.839  26.382  26.717 -0.0672 -0.0212  0.1428
70278W        W71142   5.184   2.599  22.486  0.2575 -0.0386  0.0470
70279W        W71143  14.280  24.948  23.179  0.0965 -0.2673 -0.0746
70280W        W71144   6.432  18.224   6.745 -0.1309  0.3527  0.1286
70281W        W71145   4.293  28.573   5.028 -0.2828  0.0812  0.3620
70282W        W71146   6.587  22.219   5.935 -0.0202  0.1336 -0.1496
70283W        W71147   0.941  15.075  11.635 -0.1923 -0.2528 -0.0444
70284W        W71148   4.387  19.099  21.376  0.2078 -0.1295  0.0880
70285W        W71149   5.249   8.399  28.425  0.4089 -0.0851  0.1904
70286W        W71150   8.831   9.154  18.327  0.2478 -0.1514  0.0383
70287W        W71151  27.641  14.958  17.351  0.1355  0.1948 -0.2304
70288W        W71152  22.362  17.477  18.907 -0.1932  0.0657 -0.1235
70289W        W71153   0.249   9.591  23.776  0.2818  0.1530 -0.1593
70290W        W71154   1.367  25.751  21.680  0.2839 -0.1978 -0.0131
70291W        W71155   8.429   8.098  28.369  0.1058 -0.1309 -0.2815
70292W        W71156  14.681  18.679  20.588  0.1015 -0.1227 -0.0791
70293W        W71157  21.633  11.140  20.551 -0.2397 -0.0551 -0.1870
70294W        W71158   5.011  16.743  12.191 -0.0526 -0.4545 -0.0864
70295W        W71159   0.751   1.307  11.083 -0.2526  0.0518  0.3090
70296W        W71160   9.939  10.351   4.778  0.0315 -0.1213  0.2158
70297W        W71161   6.692  14.719  16.362  0.1957 -0.0879 -0.1119
70298W        W71162  19.287  13.609  17.318  0.0134 -0.0493 -0.1336
70299W        W71163   4.397  20.887  11.511 -0.1186  0.0012 -0.0247
70300W        W71164   3.826   4.796   0.376 -0.1873  0.2462 -0.0697
70301W        W71165   5.896   4.954   2.070  0.1638  0.1055 -0.1005
70302W        W71166  17.686  10.522   7.911 -0.0881 -0.2560 -0.1634
70303W        W71167  19.591  10.843  19.443 -0.1257 -0.1196  0.2120
70304W        W71168   2.489   1.999  18.408 -0.0492  0.1539 -0.0129
70305W        W71169   8.535  22.189   7.311 -0.3207 -0.0017 -0.1697
70306W        W71170  15.795   6.665  28.326  0.0060 -0.0106 -0.1092
70307W        W71171  15.664  12.887   8.158  0.1976  0.1658  0.4280
70308W        W71172  28.888  20.394  27.603  0.1350  0.2763  0.0762
70309W        W71173  27.815  10.618  16.152  0.0102  0.0777 -0.1606
70310W        W71174   5.281  23.265  28.309  0.0622  0.1736  0.1733
70311W        W71175   8.685  25.990  27.702  0.2125  0.2636 -0.1064
70312W        W71176   0.570   4.109  19.397 -0.2260  0.2075 -0.2280
70313W        W71177   6.802  15.827  25.363 -0.0071  0.3644  0.0358
70314W        W71178  23.669  22.489   0.570  0.0734  0.1197  0.1598
70315W        W71179   3.193  16.745   5.708 -0.1069  0.1258 -0.1147
70316W        W71180  22.199  19.099  11.381 -0.0017  0.2319  0.3127
70317W        W71181   6.625   5.850  28.211 -0.1468 -0.1864 -0.1258
70318W        W71182   2.773  26.728  10.061  0.0601  0.0596 -0.0343
70319W        W71183  16.589  17.939  18.230  0.1053 -0.2456  0.0970
70320W        W71184  18.325   0.327   4.384 -0.1697 -0.0243  0.0749
70321W        W71185  11.129  21.455  14.472 -0.1394  0.0576 -0.0105
70322W        W71186  28.881   7.416  16.141 -0.2150  0.1936 -0.1765
70323W        W71187   7.240  21.378  26.749 -0.0019 -0.0975  0.6319
70324W        W71188  17.719  17.411   4.550 -0.1876 -0.0759 -0.1573
70325W        W71189  12.776  12.465  25.410 -0.2682 -0.0941  0.1161
70326W        W71190  27.342   4.539   6.546  0.0387  0.2172  0.0169
70327W        W71191   1.457  13.105  21.651  0.5268  0.0852  0.1043
70328W        W71192  15.569  25.828  15.079 -0.0219 -0.0642  0.2409
70329W        W71193  14.780  16.632   8.771 -0.1246  0.2588 -0.2497
70330W        W71194  27.116  21.971  20.136  0.2026 -0.0501 -0.0974
70331W        W71195   9.213  20.934  11.028  0.1723 -0.1758 -0.1315
70332W        W71196  10.683  19.742  19.725  0.1370 -0.0469 -0.2375
70333W        W71197  10.769  21.109  29.065  0.2372 -0.0606 -0.1738
70334W        W71198  10.499   7.902  16.457 -0.3317  0.1117 -0.5212
70335W        W71199  17.033  25.506   1.449  0.2315 -0.1459  0.0549
70336W        W71200  18.102  16.820  25.644  0.1301  0.0441  0.0118
70337W        W71201  17.496  28.164  16.557 -0.1107 -0.0688  0.2392
70338W        W71202   2.532  15.801  25.229  0.1026 -0.0540 -0.0893
70339W        W71203  17.533  26.825  24.403  0.4106 -0.0297 -0.1013
70340W        W71204   8.178   3.304  26.761  0.2741  0.0182 -0.2865
70341W        W71205  10.147  13.663  27.203 -0.0785 -0.4022 -0.0901
70342W        W71206   5.816  10.342  27.531  0.0020 -0.0274 -0.4362
70343W        W71207  17.870  16.606   2.506  0.5348  0.0610  0.0759
70344W        W71208   7.858  25.501   6.048 -0.1456 -0.1623  0.1275
70345W        W71209  23.037   1.272  11.439 -0.3852  0.0627  0.0513
70346W        W71210   7.849  24.159  27.112 -0.1042 -0.1253 -0.0325
70347W        W71211   1.079   0.308  22.155 -0.3469 -0.2302  0.2416
70348W        W71212   0.711  14.987   0.529 -0.2916  0.2691  0.1872
70349W        W71213  16.221   4.038  22.524  0.3465  0.2410  0.1926
70350W        W71214   3.763  24.956   5.340 -0.0546  0.3213 -0.0099
70351W        W71215   8.680   2.084  18.638 -0.0157 -0.0347 -0.0768
70352W        W71216  17.935  16.260  25.564 -0.0097 -0.3303  0.2241
70353W        W71217  20.317   4.174   1.649 -0.4353  0.0544  0.2701
70354W        W71218  18.849   1.413  15.985  0.3732  0.1398 -0.1062
70355W        W71219  12.434   3.820  17.747 -0.0786 -0.1085  0.0271
70356W        W71220  28.162  20.512   0.096 -0.0147  0.1519 -0.0852
70357W        W71221  26.518  18.024  28.096 -0.1770  0.1290  0.2355
70358W        W71222  28.560  28.898  10.498 -0.3275  0.0653  0.2078
70359W        W71223  24.936  18.565  22.508  0.0480 -0.1857  0.0162
70360W        W71224   7.267  28.336   3.476  0.0663 -0.1522  0.2459
70361W        W71225   3.851   3.382  15.889  0.1396 -0.0587 -0.1349
70362W        W71226   0.600  25.977   0.404  0.1980  0.0890 -0.3316
70363W        W71227   6.977  20.591   9.806  0.2739 -0.2599  0.1849
70364W        W71228   7.992  26.204   1.211 -0.1613 -0.3009  0.1143
70365W        W71229  27.847   9.932   4.726  0.0220 -0.1344  0.0103
70366W        W71230   0.581  25.106  27.748 -0.0536 -0.3303 -0.0755
70367W        W71231  19.627  23.532  16.948 -0.1500  0.3289  0.1819
70368W        W71232   2.913  20.712   4.361 -0.1812  0.1136  0.1412
70369W        W71233  21.868   7.485  14.363  0.1990  0.1180  0.1800
70370W        W71234   7.302   9.447   3.671  0.1252 -0.2989 -0.0592
70371W        W71235   8.920   6.195   6.030  0.0208  0.0247 -0.0186
70372W        W71236  15.989  22.740   6.604 -0.0016  0.1300 -0.2201
70373W        W71237   3.941   2.151  22.772 -0.1459 -0.1664  0.0742
70374W        W71238   3.230  20.446  27.401  0.0335 -0.1174 -0.0561
70375W        W71239   1.618  19.633  20.372  0.0826  0.0428 -0.1456
70376W        W71240  11.430  24.319  17.162 -0.1324  0.0799 -0.0597
70377W        W71241  11.748  23.904   0.855  0.1399  0.1298 -0.0373
70378W        W71242   8.460  26.203  13.636  0.0016 -0.1414  0.2843
70379W        W71243  13.023  22.084  25.591  0.2287 -0.0893  0.0660
70380W        W71244   5.443  17.387  12.391  0.2753  0.0805  0.0035
70381W        W71245  23.226   3.744   5.565 -0.2731 -0.0566 -0.3029
70382W        W71246  14.569   4.065  23.630  0.3625  0.0905 -0.3045
70383W        W71247  14.290  23.735  26.455 -0.1270  0.1931 -0.1040
70384W        W71248   8.162  19.016  24.477 -0.1271 -0.1266 -0.1347
70385W        W71249  16.353  12.565   6.928 -0.1452 -0.0460 -0.0643
70386W        W71250  13.511  28.007  28.865  0.1962 -0.3293  0.1685
70387W        W71251  13.232  20.682   1.000 -0.0313  0.1928 -0.0514
70388W        W71252   2.048   9.722   9.151 -0.1136  0.2795  0.1521
70389W        W71253   5.639  14.441  18.083 -0.3713  0.0750  0.2948
70390W        W71254   2.417   3.473  12.430 -0.0308 -0.1922 -0.1069
70391W        W71255  26.733  24.297  19.266  0.1082  0.0996  0.0479
70392W        W71256  26.763   1.296  23.959  0.0515 -0.3148 -0.1141
70393W        W71257   7.274  21.684   7.548  0.1754 -0.1941  0.3175
70394W        W71258   9.868  18.181  19.614  0.0818 -0.2594  0.1208
70395W        W71259   8.046   8.321   8.235 -0.2816  0.2917 -0.0385
70396W        W71260  21.719  23.179  19.568 -0.0356  0.3733 -0.1469
70397W        W71261  18.440   0.536  13.350 -0.2525 -0.0188 -0.0540
70398W        W71262   8.910  19.973  21.990 -0.1068 -0.0094  0.0601
70399W        W71263   4.197  26.921  14.437 -0.0452  0.1568  0.0857
70400W        W71264  11.387  14.235  10.642  0.3554 -0.4730 -0.0260
70401W        W71265   6.753  10.895  28.407 -0.2256  0.0620 -0.2805
70402W        W71266  10.482  23.272  27.886 -0.0611 -0.1385 -0.1436
70403W        W71267  22.595  14.722  25.161 -0.0299  0.0591  0.2468
70404W        W71268   8.247  23.271   3.243  0.2124  0.0078 -0.0034
70405W        W71269   3.983   0.058   1.981  0.0341 -0.1478 -0.0184
70406W        W71270  25.890  15.629   4.332  0.0016 -0.1102 -0.2826
70407W        W71271  12.332  16.224  25.825 -0.0164 -0.1326 -0.1010
70408W        W71272   1.321  28.160  10.156 -0.1010  0.0283  0.0620
70409W        W71273  21.301  21.622  17.181 -0.0834  0.3021 -0.1322
70410W        W71274   9.252  11.639  25.575 -0.0121  0.0814 -0.1991
70411W        W71275  25.733   9.598   7.374 -0.0998 -0.1008 -0.1816
70412W        W71276   9.805  26.446   8.615 -0.0501 -0.2860  0.0443
70413W        W71277  18.678   9.348   5.728  0.2804 -0.0887 -0.1602
70414W        W71278   8.546   7.067  24.535  0.1808  0.0719  0.1007
70415W        W71279  23.395  23.891  28.250  0.3714  0.1538  0.0756
70416W        W71280  16.439  23.768   0.413 -0.1627  0.1946 -0.0825
70417W        W71281  14.452   8.441  22.207  0.2492 -0.0903  0.0182
70418W        W71282  17.741   8.255  12.860  0.0607 -0.2560  0.1346
70419W        W71283  23.012  25.266  20.613  0.3005  0.0983  0.0697
70420W        W71284   5.571  27.897   7.763  0.0898 -0.3693 -0.2817
70421W        W71285  12.271  20.752   3.055  0.1220 -0.2301  0.2472
70422W        W71286  13.825  13.135  10.913 -0.0250 -0.1214 -0.3926
70423W        W71287  29.013  26.180   7.090 -0.2231  0.0104  0.0104
70424W        W71288  14.753   5.611  15.344  0.0958 -0.0399  0.0074
70425W        W71289   1.146  11.506  26.756  0.0539 -0.0002 -0.0907
70426W        W71290   1.932  17.458  27.802 -0.2324 -0.1102  0.2436
70427W        W71291  22.903  12.146  11.660 -0.1849 -0.0704  0.1598
70428W        W71292  17.238  28.561  28.760 -0.0065  0.0108  0.0405
70429W        W71293  13.921   9.473   9.654  0.0563  0.3779  0.1390
70430W        W71294  12.636  21.416  22.169  0.1302 -0.1455  0.2277
70431W        W71295   1.640   2.576  17.397 -0.0304  0.1535  0.1909
70432W        W71296   4.255   9.416   1.400 -0.0996  0.4427 -0.0771
70433W        W71297  13.593  24.434   2.282  0.1232 -0.0201  0.4696
70434W        W71298   5.717  19.173  27.047  0.0833 -0.0740 -0.0411
70435W        W71299  13.118  21.189   5.603  0.0650  0.1850 -0.1689
70436W        W71300  13.901  25.069   5.302 -0.2638 -0.1769  0.0408
70437W        W71301   1.694  14.715   1.694 -0.1896 -0.0349 -0.0491
70438W        W71302  22.978  23.227  18.572  0.3684  0.0821 -0.1494
70439W        W71303  17.674   9.549  19.150 -0.1196  0.2599 -0.1417
70440W        W71304  20.405   5.606  24.633 -0.0585 -0.0198 -0.1068
70441W        W71305  10.620  16.551  25.110 -0.0909 -0.0765  0.2849
70442W        W71306   4.936  14.138  19.251  0.0612  0.2221  0.1197
70443W        W71307   2.404   3.416  28.409  0.0456  0.0631 -0.0428
70444W        W71308  25.368  18.555   4.193 -0.2021 -0.0337 -0.3222
70445W        W71309   6.672  23.831  28.156  0.3156 -0.0378 -0.0695
70446W        W71310  20.907  13.917  10.860  0.1901  0.2783 -0.2791
70447W        W71311  22.572  19.225  21.445 -0.0201  0.0876  0.3116
70448W        W71312  15.055  22.265  13.060  0.1600 -0.1182  0.1329
70449W        W71313  18.886  22.511  15.709 -0.0233  0.1606 -0.1099
70450W        W71314   2.797  14.170  28.119  0.1664 -0.0421 -0.3492
70451W        W71315  18.688  27.794  21.262 -0.0059 -0.2930  0.1846
70452W        W71316  24.410  18.753  13.338  0.3306  0.2171 -0.2783
70453W        W71317  22.185  14.925   3.173 -0.0806 -0.1680 -0.1204
70454W        W71318   4.193  16.539  17.428 -0.3223 -0.1875  0.1763
70455W        W71319   4.150   6.986   2.679  0.2888 -0.2461 -0.0200
70456W        W71320  27.303  24.723  15.233  0.2082 -0.0491 -0.2468
70457W        W71321  15.666  16.181  18.668  0.1634  0.3266  0.1482
70458W        W71322  26.228   0.534  28.238 -0.2103  0.0080  0.0627
70459W        W71323   3.406   1.447  26.124  0.0392 -0.0893 -0.1071
70460W        W71324   1.618  28.081  27.522  0.2357 -0.2632  0.0926
70461W        W71325  26.903   2.283  13.648  0.1889 -0.0078  0.1774
70462W        W71326  19.172   3.156  19.501 -0.2423  0.0945 -0.1812
70463W        W71327  23.792  20.428   2.710  0.0068 -0.0589  0.0761
70464W        W71328  18.088  27.740  29.045 -0.0224  0.0176 -0.2620
70465W        W71329  15.679  15.809   8.335 -0.0325 -0.2522 -0.1497
70466W        W71330  18.110  24.140  26.338 -0.0358 -0.1195 -0.1209
70467W        W71331   5.766  17.544  16.540 -0.1234  0.2091 -0.2058
70468W        W71332   3.350  24.040  25.691  0.0500  0.1694  0.1220
70469W        W71333  18.242  21.427   7.448  0.1904  0.1291  0.2441
70470W        W71334  13.510  19.381  17.023  0.2130  0.3157 -0.1510
70471W        W71335  21.548   0.306   3.593 -0.2632 -0.1370  0.0521
70472W        W71336  25.409   0.561  18.163 -0.0248  0.0384  0.2635
70473W        W71337  19.691  19.032  20.062 -0.0091  0.0332 -0.3074
70474W        W71338  22.566   0.307  26.729  0.2134  0.2146 -0.3341
70475W        W71339  26.941   8.892  24.228  0.1291  0.1009 -0.2232
70476W        W71340  17.831   7.664  26.838 -0.2859  0.2420  0.2615
70477W        W71341  13.996  15.922   2.856  0.0650 -0.3229 -0.0894
70478W        W71342   9.061  24.728   9.834 -0.1838  0.2018  0.0394
70479W        W71343  25.603   8.651   4.396  0.1319  0.1379 -0.0516
70480W        W71344   4.853   5.787   8.506 -0.2491  0.3315  0.0169
70481W        W71345  16.477  26.158  16.828  0.0104  0.4644  0.0078
70482W        W71346   2.825  22.703  20.352  0.1355 -0.2017  0.0173
70483W        W71347   3.024  16.260   8.679  0.2552  0.2811  0.0664
70484W        W71348   7.760  28.060  11.799 -0.2557  0.1249 -0.2457
70485W        W71349   2.512   3.864  14.759  0.1517 -0.0113  0.1785
70486W        W71350   1.823  16.973  29.050 -0.1840 -0.0679 -0.0627
70487W        W71351   3.419  17.752  23.905  0.2631  0.2644  0.0034
70488W        W71352  27.384   6.792  13.688 -0.0474  0.0492 -0.0667
70489W        W71353   4.889  25.086  14.033  0.0647 -0.1142 -0.1693
70490W        W71354  23.918   3.644  17.363 -0.1641  0.0388  0.2201
70491W        W71355  16.551  10.285  22.866 -0.1612 -0.2642  0.0048
70492W        W71356   6.545   3.293  28.719  0.0287 -0.1665  0.1317
70493W        W71357   5.405  22.578   3.328 -0.3085  0.0350  0.0967
70494W        W71358   4.421   1.974  29.054 -0.0219  0.0300  0.2079
70495W        W71359  15.468  12.479  17.680 -0.2198 -0.0040 -0.2255
70496W        W71360   8.196  16.548  19.003 -0.2178  0.1800 -0.0298
70497W        W71361  13.965  26.147   3.002 -0.2024 -0.1037  0.0966
70498W        W71362  10.167  26.729  20.007 -0.0634  0.0766 -0.0612
70499W        W71363  18.083  22.083  20.896 -0.1108 -0.1462  0.0333
70500W        W71364   7.099  10.092  26.254 -0.2185  0.0050  0.1214
70501W        W71365   4.400  13.400  19.745 -0.0759 -0.0461  0.2487
70502W        W71366   7.071   2.641   0.249  0.1482 -0.3112  0.0155
70503W        W71367  14.399  13.347  22.644 -0.2698  0.0757 -0.0585
70504W        W71368  20.180  11.042   5.477  0.0852  0.0107 -0.0801
70505W        W71369  20.419   9.868  26.661 -0.1884  0.0093 -0.2548
70506W        W71370  25.539  23.289  25.138 -0.1281 -0.1040 -0.0845
70507W        W71371   2.114  13.019  27.085  0.1343 -0.3746  0.0592
70508W        W71372  25.095  18.545  19.293 -0.1751 -0.0096  0.1335
70509W        W71373  21.172   1.958   7.112 -0.3796 -0.0989 -0.1420
70510W        W71374   4.353  24.871   4.761 -0.1605 -0.3029 -0.0416
70511W        W71375  13.999  23.287  20.998  0.0646 -0.4861 -0.0622
70512W        W71376  12.316  22.805  24.513  0.1195  0.2235  0.1195
70513W        W71377  13.044  22.957  11.229  0.0821  0.1828  0.2488
70514W        W71378   8.892  25.911   1.081  0.1060  0.3553  0.3269
70515W        W71379   2.411   4.191  19.292 -0.1357  0.0344  0.1702
70516W        W71380   3.364  16.012  11.353 -0.2294 -0.2147 -0.2935
70517W        W71381   1.203  20.729   0.705 -0.1163 -0.1584  0.1229
70518W        W71382   6.442  23.342  28.115  0.4594  0.1429 -0.0943
70519W        W71383   2.093   0.503  10.685  0.3328  0.0847 -0.1385
70520W        W71384  20.905  22.933  16.286 -0.1517 -0.3628  0.0842
70521W        W71385   8.080  25.533  24.286 -0.2326 -0.2047 -0.1538
70522W        W71386   2.412   3.814   1.029  0.1037  0.0461 -0.1683
70523W        W71387   3.732   9.300   7.998 -0.1185 -0.0499 -0.3096
70524W        W71388  24.271  19.597   2.044  0.0315 -0.0602  0.3309
70525W        W71389   6.652  29.121   7.759  0.0034  0.0572 -0.1363
70526W        W71390   3.347  26.946   8.645  0.0666  0.0683 -0.0695
70527W        W71391  28.524  21.680   4.119  0.0795 -0.2578 -0.0932
70528W        W71392  18.582   0.027  18.109  0.1829  0.0644 -0.1407
70529W        W71393  24.753   6.463  15.644  0.1209  0.0509 -0.0183
70530W        W71394   5.614  18.130  10.645  0.1175 -0.2924 -0.3099
70531W        W71395   3.020  23.810  18.306  0.0671 -0.0997  0.1805
70532W        W71396   7.252  15.012   1.760  0.0713  0.0938 -0.0084
70533W        W71397  15.278  20.113  25.910 -0.0927 -0.1765 -0.0104
70534W        W71398  11.820  19.049  28.096 -0.0034  0.0339 -0.1578
70535W        W71399  18.531   6.486   0.998 -0.2951  0.0563  0.0020
70536W        W71400   3.855  15.552  26.821 -0.1788  0.1351 -0.2392
70537W        W71401   7.813  16.877  20.263 -0.1077  0.1736  0.3639
70538W        W71402   9.096   2.407  26.231  0.0408  0.1021  0.4044
70539W        W71403  20.846  15.151   2.388  0.2126 -0.2647 -0.1138
70540W        W71404  11.706  20.628  27.753 -0.1313  0.0058 -0.0502
70541W        W71405  21.856  18.199  14.454  0.1178 -0.1893  0.1229
70542W        W71406  20.975   7.902   2.836 -0.2088  0.3746 -0.0203
70543W        W71407   8.508  26.447   2.393 -0.1386  0.0054  0.0088
70544W        W71408  16.982  18.026   2.107 -0.0202  0.0268  0.0945
70545W        W71409   7.658   7.776   6.615  0.3545  0.1491 -0.2101
70546W        W71410  14.479  28.807   2.890 -0.1790 -0.0727  0.3383
70547W        W71411   4.880  17.475  26.190 -0.0864 -0.1352 -0.3531
70548W        W71412  22.093   7.953  11.230  0.0004 -0.0330  0.2397
70549W        W71413  13.385   5.008   2.663 -0.0897 -0.0636 -0.1707
70550W        W71414  20.342   4.467   4.404 -0.2412  0.1970  0.1774
70551W        W71415  27.502  25.679  23.713 -0.2012 -0.3540  0.1007
70552W        W71416  12.415  22.090  14.963 -0.0636  0.1606 -0.1532
70553W        W71417   1.668   1.468   3.358 -0.3396 -0.2331 -0.0078
70554W        W71418   4.390  24.071   0.506  0.0523  0.0019 -0.0787
70555W        W71419  18.530  20.472   4.040  0.1088  0.0928 -0.0681
70556W        W71420  26.839  16.344   6.511 -0.1383 -0.1436  0.1246
70557W        W71421   1.050  11.593   8.495 -0.4081  0.2307  0.0256
70558W        W71422   7.081  23.978   5.857 -0.1393 -0.3345 -0.0758
70559W        W71423  11.270   9.759  14.429  0.2183  0.6037 -0.2613
70560W        W71424   6.593  26.937  17.155  0.2927 -0.1669 -0.2746
70561W        W71425  28.148   2.156   5.613  0.1635  0.1739  0.5079
70562W        W71426  13.889   3.624  26.899  0.2699 -0.2034  0.2778
70563W        W71427   7.341  11.332  28.129  0.1098  0.1745  0.0066
70564W        W71428   3.757   3.727   5.930 -0.0998  0.0649  0.2589
70565W        W71429  11.346  26.138  16.335 -0.1288  0.1504  0.0394
70566W        W71430  18.890   5.387   9.072 -0.2822  0.0064 -0.1149
70567W        W71431  13.473   8.946   7.561  0.1269  0.0644  0.0183
70568W        W71432  15.269   0.423  27.250 -0.1391 -0.0498  0.1644
70569W        W71433   8.757  12.731  28.869 -0.0422  0.1960 -0.0815
70570W        W71434   8.811  21.179  20.390 -0.1306 -0.0221 -0.3299
70571W        W71435  20.909   3.223  13.580  0.1972 -0.1175  0.0425
70572W        W71436  25.176  12.854  16.593  0.2065 -0.1433  0.1416
70573W        W71437  13.289   3.593  22.332 -0.0325  0.1587 -0.0843
70574W        W71438  25.427  21.086  20.839  0.1688  0.2135  0.0276
70575W        W71439   4.787  10.227  20.378  0.0303 -0.3940  0.2030
70576W        W71440   3.215  26.434  25.463 -0.0013 -0.1227  0.0329
70577W        W71441  14.151  27.959  26.381 -0.0512  0.2323 -0.0107
70578W        W71442   6.471  17.303   2.953  0.2098 -0.2118  0.1015
70579W        W71443   9.918  27.150  16.309  0.0475  0.1202 -0.1797
70580W        W71444  28.328  27.883   6.730  0.0114 -0.0024  0.0889
70581W        W71445   8.789  12.191  17.767  0.0802  0.0706  0.1491
70582W        W71446   4.310  22.241  27.026 -0.2273 -0.1236  0.0213
70583W        W71447  17.586  18.277  23.684  0.1441  0.2894 -0.2996
70584W        W71448   0.938  19.161   4.061  0.1977  0.1283 -0.1661
70585W        W71449  23.680   2.258  22.257  0.2178 -0.1566 -0.2236
70586W        W71450  21.942  20.196   9.493  0.3180  0.0842  0.1403
70587W        W71451  21.131   5.836   1.169 -0.1987  0.2944  0.3623
70588W        W71452  26.167  28.810  13.398 -0.0167  0.0157  0.0294
70589W        W71453   4.952  11.904  24.587  0.2012 -0.1414  0.2426
70590W        W71454  23.705   9.230  15.723 -0.2035  0.3884 -0.1188
70591W        W71455  18.677  28.039  20.118  0.2204  0.0610 -0.1069
70592W        W71456   8.604   4.795   3.087  0.1161 -0.2207 -0.0271
70593W        W71457  12.160  26.520   9.429  0.4248  0.1432 -0.0996
70594W        W71458  15.296  25.803  27.492 -0.1287  0.2774  0.2451
70595W        W71459   4.735  17.810   9.668 -0.0447  0.0162 -0.2131
70596W        W71460  20.679  19.672   0.287 -0.1224  0.2940  0.0386
70597W        W71461  24.629  16.454  10.452  0.2954  0.3765  0.3414
70598W        W71462  19.642  14.314  16.797  0.1011 -0.1070  0.1751
70599W        W71463  24.482  15.187  14.512 -0.0760  0.1401 -0.0360
70600W        W71464  10.248   8.308  17.677  0.1481 -0.0443 -0.1357
70601W        W71465   2.394   2.838  17.827  0.2186  0.1179  0.0513
70602W        W71466  11.213   9.331  10.511 -0.0167 -0.1658  0.0203
70603W        W71467  20.983  24.494   6.102 -0.0917  0.1048  0.1775
70604W        W71468  25.306  23.373  27.824 -0.0962 -0.0673 -0.1531
70605W        W71469  24.652  23.154  26.336  0.1245 -0.1458 -0.2297
70606W        W71470   2.533  14.714  12.475 -0.0090  0.1143  0.1359
70607W        W71471  28.256  26.371  25.214 -0.1051 -0.1513  0.2696
70608W        W71472   6.667   6.286  10.393  0.4228 -0.0038  0.0750
70609W        W71473  19.880   4.748  16.021  0.0204 -0.0288 -0.1177
70610W        W71474   6.703  11.515   9.383 -0.1927 -0.2113  0.1228
70611W        W71475   6.245  13.031  24.415 -0.0080  0.1087  0.0147
70612W        W71476  26.939  28.015  14.711  0.2071  0.1967 -0.3223
70613W        W71477  22.332  17.071  18.216 -0.3575 -0.0312  0.1436
70614W        W71478   8.039  26.701  29.055  0.1693 -0.0558  0.1453
70615W        W71479   5.001  14.994  17.496  0.2700 -0.0956 -0.1364
70616W        W71480  12.668  10.614  19.808 -0.1450 -0.0006 -0.2053
70617W        W71481  26.218  14.057   9.207  0.1101 -0.0134  0.1953
70618W        W71482  19.797  24.856   2.018 -0.0643 -0.0426 -0.1675
70619W        W71483  12.663   0.306  25.109  0.0745 -0.0459 -0.1307
70620W        W71484   1.235  11.278  23.963  0.3637  0.4296  0.0046
70621W        W71485   8.604   6.398  10.257 -0.0094  0.0970 -0.3910
70622W        W71486   8.955   8.160  16.894 -0.0739  0.0164 -0.1700
70623W        W71487  26.517  25.777  29.056  0.1142 -0.0327  0.0281
70624W        W71488  17.066  11.708  10.620 -0.1741 -0.0576  0.2403
70625W        W71489   9.844  22.843  11.134 -0.0831  0.1099 -0.0282
70626W        W71490  11.989  17.797  23.613 -0.1371 -0.2288  0.0098
70627W        W71491   3.558  21.348  21.290  0.2742  0.0580 -0.1810
70628W        W71492  20.078  22.825  26.836  0.2711  0.1202 -0.1606
70629W        W71493   8.620  22.152   5.422 -0.0688  0.0127  0.2499
70630W        W71494   4.380   7.626  19.234 -0.0052  0.0180 -0.4296
70631W        W71495  16.826   2.083   1.832  0.1252  0.2166  0.2785
70632W        W71496  13.246   1.167  20.916 -0.1903 -0.0209 -0.0472
70633W        W71497  21.665  25.833  12.682 -0.0584 -0.0216 -0.1900
70634W        W71498   5.015  23.758   9.324  0.1189  0.0027  0.2119
70635W        W71499  12.120   4.977  23.794 -0.0689  0.1337  0.0472
70636W        W71500  18.096   8.649  26.787 -0.0468  0.2020 -0.1491
70637W        W71501  12.954  19.420  15.119 -0.1032 -0.2672 -0.2152
70638W        W71502  17.886  24.490  23.858  0.1881 -0.1852 -0.1797
70639W        W71503   7.176  13.068  24.601  0.3336 -0.0956 -0.1033
70640W        W71504  14.133  28.630  28.717  0.2404  0.0353 -0.1272
70641W        W71505   0.137  22.852   3.646  0.0369 -0.1399  0.1438
70642W        W71506  18.732  18.692   1.929 -0.2888  0.0576  0.1294
70643W        W71507   2.498  18.153  17.506 -0.0294 -0.1013 -0.1641
70644W        W71508  26.450  26.665   3.303 -0.0850  0.2504 -0.1755
70645W        W71509   0.812  29.042   6.366  0.0110  0.1351 -0.2640
70646W        W71510   6.470  15.843   5.145  0.0965  0.0299 -0.5630
70647W        W71511  19.483  18.716  23.636  0.0785 -0.5443  0.0538
70648W        W71512  23.211   2.546   6.196 -0.1817 -0.1069  0.2000
70649W        W71513   5.592  21.771   5.597  0.0753  0.0786 -0.2033
70650W        W71514  16.950   1.575  24.439  0.0681 -0.0210  0.1445
70651W        W71515   4.695   9.238  15.997  0.0472  0.1741 -0.0093
70652W        W71516   2.338   2.436   9.165  0.2360 -0.2531  0.2887
70653W        W71517   8.966  11.715  22.854 -0.1882 -0.0830 -0.0070
70654W        W71518  26.988  19.111   2.443  0.3253  0.0095 -0.0890
70655W        W71519   9.084  23.517  18.458 -0.1553 -0.1331 -0.1576
70656W        W71520  19.900   5.408   8.631 -0.1437 -0.1337 -0.0039
70657W        W71521   2.045  16.744   3.302  0.0527  0.0240  0.3802
70658W        W71522   0.905   8.067   2.962 -0.0240 -0.2579 -0.0563
70659W        W71523   3.937   3.911  12.485  0.2890 -0.0948  0.0695
70660W        W71524  28.428   6.891   1.702 -0.0598  0.1012  0.2834
70661W        W71525  11.322  16.236  29.139 -0.3022  0.0052  0.1505
70662W        W71526   3.070   8.559  23.122 -0.3197  0.0963 -0.1952
70663W        W71527   6.048  28.125  21.234 -0.0790  0.1707 -0.0932
70664W        W71528  13.091  23.530  25.333 -0.0067 -0.0747  0.2101
70665W        W71529   2.667  24.042  14.642  0.0451 -0.2785 -0.0648
70666W        W71530  22.090  12.036   2.658 -0.2209 -0.0153 -0.0083
70667W        W71531  14.105  16.347   1.798 -0.1004 -0.2374 -0.1783
70668W        W71532  25.676  27.245   1.082  0.0174  0.2816  0.2206
70669W        W71533  25.020   2.872  26.823 -0.3010 -0.1827 -0.2439
70670W        W71534  23.661  28.395   9.685  0.0714 -0.0798 -0.3570
70671W        W71535  15.082   3.183  22.025  0.0611 -0.0099 -0.2410
70672W        W71536   2.656  21.514   1.128  0.0908  0.0466  0.1279
70673W        W71537  28.014  10.334  14.624 -0.1080 -0.2648  0.0392
70674W        W71538   1.298  13.235  21.075  0.0384 -0.0309 -0.1395
70675W        W71539  19.800  25.394   3.927 -0.0918 -0.0068  0.1200
70676W        W71540  21.214  11.602   2.324 -0.0158  0.4011  0.1594
70677W        W71541  13.581   7.277  13.284  0.0714  0.0551  0.2690
70678W        W71542  27.162  22.980  15.785  0.0912  0.1630  0.3066
70679W        W71543   9.264  16.182  25.416  0.2721 -0.1974  0.1048
70680W        W71544   5.455   1.971  18.353  0.1383 -0.0462 -0.1079
70681W        W71545   3.439  20.572  17.377  0.0845  0.1862  0.1812
70682W        W71546   4.777   0.132   2.829  0.0171  0.0030  0.1548
70683W        W71547   7.738  21.703   1.911  0.1846  0.0799  0.0323
70684W        W71548  18.152  23.719  26.785  0.0677  0.2649 -0.1129
70685W        W71549  18.639   5.998  18.999  0.1610  0.4083 -0.0852
70686W        W71550  27.410  16.859  28.226  0.2849 -0.1169  0.1668
70687W        W71551   5.509  16.203  28.854 -0.0760  0.1949  0.0469
70688W        W71552  12.276  23.367  26.297  0.2984 -0.2458 -0.1690
70689W        W71553  15.619  27.771  14.920  0.2943 -0.0320  0.0160
70690W        W71554   2.954  27.615  26.328  0.0747  0.2322  0.1769
70691W        W71555   5.879  18.390  14.162 -0.2458 -0.1235 -0.0572
70692W        W71556  13.984   5.795  13.103  0.0997  0.3677 -0.1041
70693W        W71557   1.370  25.261   5.079  0.1815 -0.2921 -0.3945
70694W        W71558  12.947   1.597   4.700 -0.0987 -0.1287 -0.1943
70695W        W71559   0.111  16.613   8.658 -0.0636 -0.0814  0.1274
70696W        W71560   8.293  10.377  14.402  0.2267 -0.0908  0.0070
70697W        W71561   9.285   0.130   8.420  0.0947  0.1630  0.0468
70698W        W71562  18.913  17.499  19.866 -0.1576 -0.1763 -0.1492
70699W        W71563  18.968   0.987  10.066 -0.0438  0.1798  0.1711
70700W        W71564   4.846   4.830  27.356  0.0816 -0.1893  0.0790
70701W        W71565   2.742  18.979   2.556  0.1139 -0.3490 -0.2978
70702W        W71566  28.489  20.862  24.617 -0.0215  0.2451 -0.2147
70703W        W71567  25.299  13.478   8.245  0.2166  0.1095  0.2327
70704W        W71568  11.318  22.015   5.360  0.0021 -0.0231  0.1857
70705W        W71569  18.283  26.668   8.951  0.1422  0.2995  0.3248
70706W        W71570  28.428  10.869  20.244 -0.2314 -0.0002 -0.3105
70707W        W71571   0.741  25.126  21.867  0.0273  0.2098 -0.0928
70708W        W71572   4.756  10.322  24.566 -0.0232 -0.1647  0.0966
70709W        W71573  10.558  25.487  23.757 -0.1546 -0.1888 -0.0567
70710W        W71574  12.762  14.825  10.551 -0.0177  0.0792 -0.3014
70711W        W71575   4.792  14.500  28.553 -0.1638 -0.1817  0.1736
70712W        W71576  10.592   1.051   4.879 -0.2256  0.1962 -0.0802
70713W        W71577   7.452  28.799  11.310  0.0665  0.0410 -0.0456
70714W        W71578  28.973  24.429   8.561 -0.1565  0.1037 -0.0198
70715W        W71579  15.819   4.756  17.014 -0.0725 -0.0473 -0.2726
70716W        W71580   3.159  14.426   5.972  0.0410  0.2357  0.1635
70717W        W71581  22.393  10.190   7.404  0.0620 -0.2371 -0.3231
70718W        W71582   2.771  28.286   4.892  0.1421 -0.0904  0.0974
70719W        W71583   6.650  21.260  17.413  0.1052  0.0228  0.2817
70720W        W71584  17.861  22.235   9.339  0.3766 -0.0936  0.0524
70721W        W71585  13.416   3.482  13.200 -0.0510  0.0471  0.1395
70722W        W71586  16.723  25.485  11.199  0.2280  0.1518 -0.1434
70723W        W71587  15.353  27.367   6.712  0.2283 -0.1814  0.1308
70724W        W71588  16.214  17.484   3.424 -0.0376  0.0059  0.1799
70725W        W71589   4.686   1.156  26.907 -0.3024 -0.0444 -0.1888
70726W        W71590   0.445  29.059   0.352  0.1063 -0.0124 -0.2416
70727W        W71591  11.653   1.892  23.475 -0.0715  0.0163 -0.2643
70728W        W71592  20.625  24.975  21.277  0.0504  0.0035  0.0870
70729W        W71593  11.670  13.822   3.968 -0.0057  0.1340  0.3329
70730W        W71594  25.354   4.622  27.637 -0.1020 -0.1926 -0.0232
70731W        W71595  26.840  15.928  15.104  0.4097  0.0764  0.0274
70732W        W71596   7.437  12.046   4.888 -0.0693 -0.2155  0.3403
70733W        W71597   7.934   6.217  19.395 -0.0806 -0.1653 -0.1381
70734W        W71598  15.246  17.480   7.975 -0.3659 -0.0971 -0.0615
70735W        W71599   7.910  22.780   9.494 -0.0736  0.0209  0.3705
70736W        W71600  12.973   2.958   2.927 -0.0667  0.0212  0.0216
70737W        W71601   6.816  14.753  14.809  0.1356 -0.0559  0.3141
70738W        W71602   8.431  23.081  24.416 -0.1695  0.0806  0.0768
70739W        W71603   2.824  20.637  13.786  0.1378  0.1310 -0.0668
70740W        W71604  22.077   8.960   2.265  0.0015 -0.2357  0.3818
70741W        W71605   4.019   9.918   8.089 -0.0354 -0.2205 -0.0347
70742W        W71606  16.892  17.900  28.438 -0.1653 -0.1663  0.4083
70743W        W71607   2.536  23.571   2.806 -0.1383 -0.3025  0.0955
70744W        W71608   5.526  25.005  27.826 -0.0393 -0.0281 -0.0323
70745W        W71609   1.448  21.081   0.215 -0.2600  0.1530 -0.1442
70746W        W71610   9.524  25.767  15.539  0.0438 -0.0549 -0.1458
70747W        W71611   0.089   8.628  25.177 -0.0367  0.0506  0.1882
70748W        W71612  27.115  28.415  11.420  0.0534  0.0650  0.2301
70749W        W71613  19.172  27.275  28.287 -0.0551  0.0832 -0.1938
70750W        W71614   7.689  24.572   4.515 -0.0909 -0.0056  0.2086
70751W        W71615  24.517  10.594  28.015 -0.1092 -0.3137  0.2116
70752W        W71616  22.245  10.540  21.619 -0.2818 -0.1031  0.0486
70753W        W71617  20.091  19.334  20.004 -0.2234  0.2094  0.0265
70754W        W71618   0.591  22.914  29.024 -0.1038  0.2626  0.0421
70755W        W71619  22.308  17.883  14.665 -0.1512  0.0040 -0.0572
70756W        W71620   4.295  25.584  25.080 -0.1760 -0.3300 -0.0871
70757W        W71621   2.586  18.474  13.274  0.3618 -0.1365  0.0779
70758W        W71622  12.003  23.239   8.564 -0.0105  0.0236  0.1646
70759W        W71623  19.659  23.097   2.256 -0.1277 -0.2355 -0.0388
70760W        W71624   6.451  22.568   6.791 -0.2439  0.3328  0.0059
70761W        W71625   5.859  18.155  23.819 -0.2691  0.1665  0.0493
70762W        W71626  16.600  19.954  15.917 -0.1207  0.3385  0.2793
70763W        W71627  20.519   5.026  21.682  0.0541  0.2782  0.0010
70764W        W71628   4.419  16.246  25.219  0.0286 -0.0709  0.2237
70765W        W71629  12.238  11.980  26.439 -0.0840  0.0015  0.1960
70766W        W71630   6.721  24.758  13.083  0.2818 -0.0640  0.1671
70767W        W71631   3.448  21.210   4.920  0.2476 -0.1436 -0.2850
70768W        W71632   4.109  14.553   4.920 -0.2033  0.0224  0.0312
70769W        W71633   1.113  20.002  14.641 -0.1789  0.0524 -0.1094
70770W        W71634   7.008   8.247  27.150 -0.2694  0.1154 -0.2438
70771W        W71635   8.163  26.521  20.158 -0.0009  0.1480 -0.1336
70772W        W71636   9.931   2.223   7.024  0.0253 -0.3769  0.0178
70773W        W71637  27.282  25.708   8.226  0.0954 -0.3527  0.0993
70774W        W71638   8.767  11.808   8.223 -0.0938 -0.2950 -0.1559
70775W        W71639   8.117  23.120   4.729  0.2828 -0.1633 -0.3019
70776W        W71640   6.132   8.059   2.295 -0.1888  0.1660  0.0364
70777W        W71641  13.787   3.434   0.612  0.2035  0.1943  0.3171
70778W        W71642  13.848   6.681   8.820 -0.0738 -0.1175  0.1881
70779W        W71643  11.886  27.501  12.058 -0.3701 -0.0734 -0.3649
70780W        W71644   7.094  18.724   0.774 -0.4047 -0.3617  0.1334
70781W        W71645  16.087  11.659   7.248  0.2732  0.0843 -0.0151
70782W        W71646   1.281  25.649  24.575  0.1888 -0.1793 -0.1142
70783W        W71647  17.811   4.998  17.617  0.1121 -0.0429  0.0004
70784W        W71648   3.589   8.144  20.358  0.2788  0.1618  0.3524
70785W        W71649   7.734  16.028  14.977  0.1524 -0.1350 -0.0619
70786W        W71650   5.647  15.076  12.989 -0.1394  0.1274 -0.0551
70787W        W71651   9.314  23.176   3.061 -0.0803 -0.1156 -0.2144
70788W        W71652  18.418  22.065  13.220 -0.0567  0.0396 -0.1365
70789W        W71653   4.335   0.719   1.109 -0.2640 -0.1038  0.0706
70790W        W71654  10.149  18.487  11.863 -0.1368 -0.0176  0.0361
70791W        W71655  11.808   2.678  26.988  0.0581  0.1281 -0.0333
70792W        W71656  16.349  21.605   0.262 -0.1524 -0.1060  0.0569
70793W        W71657  24.437  25.223  22.754 -0.2546  0.5144 -0.0268
70794W        W71658   2.854  21.842  28.475 -0.1463 -0.1701 -0.1242
70795W        W71659   7.610  27.363  17.673 -0.2621 -0.0541 -0.2455
70796W        W71660  28.557  20.827  22.650 -0.1241 -0.0126  0.0125
70797W        W71661  16.174  27.842  24.009 -0.5670 -0.0845  0.0195
70798W        W71662  13.273  21.463  18.567 -0.1916  0.0465 -0.1988
70799W        W71663   5.114  27.002  22.194 -0.0611 -0.0057  0.2842
70800W        W71664   6.986   2.769  27.524 -0.4494 -0.0827 -0.0362
70801W        W71665   8.039  12.958   8.088  0.0172 -0.1517 -0.0399
70802W        W71666   8.417  16.750   7.464  0.0373 -0.1521  0.3368
70803W        W71667  12.554  10.344  15.344 -0.0921 -0.0187  0.0892
70804W        W71668  24.921  28.811   8.577 -0.0652 -0.0714 -0.2193
70805W        W71669  12.465  24.124  25.549 -0.3488  0.1674 -0.0754
70806W        W71670   8.594   1.513  28.828 -0.0285 -0.0480  0.1506
70807W        W71671  10.833  20.449   0.895  0.0507  0.2282 -0.0571
70808W        W71672  12.334  17.809   4.786 -0.0205  0.1604 -0.1919
70809W        W71673   9.796   1.884  17.501  0.0922  0.0373 -0.1974
70810W        W71674   8.064  17.885  11.753 -0.2033  0.0846 -0.1284
70811W        W71675   7.174  27.312  27.151 -0.0152  0.0133 -0.0484
70812W        W71676   7.183  24.561  14.674  0.1744  0.0644 -0.2234
70813W        W71677  13.201  20.702  25.385 -0.1626 -0.0182  0.0803
70814W        W71678  24.577  13.743   6.186 -0.2475 -0.0596 -0.0394
70815W        W71679   0.752  20.094  11.127  0.0862  0.0054 -0.0689
70816W        W71680  21.269   9.296  10.883  0.1389  0.0209 -0.2044
70817W        W71681   6.501   6.827  17.940 -0.0074  0.0385 -0.0798
70818W        W71682   7.519  17.562   9.280 -0.1987  0.3103  0.1724
70819W        W71683   1.421  22.322  12.447 -0.0219 -0.3456 -0.0514
70820W        W71684  18.828   9.132  21.199  0.0555 -0.0167 -0.1448
70821W        W71685  28.253  27.732   7.238 -0.1503  0.0133 -0.3483
70822W        W71686  22.389  10.167  10.371 -0.0978  0.2304  0.0445
70823W        W71687   9.938   8.279  14.681  0.0993  0.0758  0.0148
70824W        W71688  20.487  28.477   9.155 -0.2269 -0.0271  0.3325
70825W        W71689  25.700   9.119  26.696  0.1287  0.2057 -0.1530
70826W        W71690   2.333  16.231   5.811 -0.1497 -0.0334  0.0457
70827W        W71691  14.473   4.522  11.150 -0.0909 -0.0632 -0.3847
70828W        W71692  10.131  24.516   1.214  0.1059  0.0789 -0.1288
70829W        W71693  20.873  15.772   8.421  0.1712 -0.0632 -0.1169
70830W        W71694   7.670  27.215   2.941  0.1497 -0.3295 -0.0933
70831W        W71695  10.417  27.818   0.089 -0.3935 -0.0171  0.0686
70832W        W71696  10.822  11.846  19.948 -0.2100  0.4366  0.1753
70833W        W71697  24.400  22.055   8.847 -0.1864 -0.1830  0.1335
70834W        W71698   8.706  28.477  23.813  0.0853  0.0399 -0.0256
70835W        W71699   5.140  15.362  23.806 -0.0349  0.0204  0.0461
70836W        W71700  20.566  22.752   1.665 -0.0977 -0.1677  0.0968
70837W        W71701   8.540   2.478  10.509  0.0521  0.0223 -0.1091
70838W        W71702  24.847   4.451  25.934 -0.0106  0.3006  0.4003
70839W        W71703  15.084  28.595  15.259 -0.1105  0.0237  0.2275
70840W        W71704   7.331  12.604  16.707 -0.1485 -0.2917  0.0857
70841W        W71705  11.625  13.814  28.062  0.3291  0.3491 -0.3447
70842W        W71706   0.837   6.035  19.397 -0.1646 -0.2200  0.1134
70843W        W71707  22.117   0.613   0.921  0.2709  0.1061 -0.0295
70844W        W71708  28.183  17.506  21.095 -0.0501 -0.3310 -0.1077
70845W        W71709  14.149  25.982  12.343 -0.1240 -0.1448  0.1416
70846W        W71710  28.422  18.419   6.494  0.2739 -0.3572  0.2658
70847W        W71711  18.716  22.501  22.567  0.0231  0.3506 -0.0592
70848W        W71712  11.509  15.139  10.317 -0.2877 -0.0846 -0.0062
70849W        W71713  26.510  19.337  10.168  0.0317  0.1919  0.0481
70850W        W71714   6.714  19.887  16.098 -0.0192  0.0744 -0.1109
70851W        W71715   3.360  28.433   7.903 -0.0753  0.1303 -0.0286
70852W        W71716   2.262   7.054  27.189  0.0480 -0.0071 -0.0189
70853W        W71717   3.932  17.879  21.935 -0.0602 -0.1317  0.2531
70854W        W71718   5.700  26.408  28.103  0.2938  0.1283  0.2074
70855W        W71719   3.788  18.505   0.494 -0.0222  0.1953 -0.1980
70856W        W71720  13.072   5.027  25.517 -0.0338 -0.0924 -0.1786
70857W        W71721  17.158   0.705   7.011  0.2613  0.2200 -0.1858
70858W        W71722   1.182   5.197   2.117 -0.2547 -0.0862 -0.1530
70859W        W71723  11.387  15.129   9.856  0.1703 -0.3124  0.0686
70860W        W71724   3.114   0.356  18.035 -0.3034  0.3294 -0.1585
70861W        W71725   7.547   2.068  18.004 -0.1193 -0.1198 -0.1137
70862W        W71726  13.688  25.518   5.260 -0.1077 -0.0473 -0.0647
70863W        W71727   5.501  25.983   5.655 -0.1386 -0.1197 -0.0680
70864W        W71728   6.656  22.947   2.650 -0.0257 -0.0752 -0.0958
70865W        W71729  16.404   0.312  10.576  0.1780 -0.3467 -0.4458
70866W        W71730   4.791  15.783  12.143  0.0955  0.3020 -0.0479
70867W        W71731   5.035  11.350   6.505  0.1254  0.2424 -0.1839
70868W        W71732  10.647   8.872  22.650 -0.1358  0.3001  0.0199
70869W        W71733  22.527  25.303  20.628  0.0280 -0.1353  0.0539
70870W        W71734  23.538  23.316  13.379 -0.1027 -0.0726 -0.2489
70871W        W71735   5.685   3.376  28.434  0.0147 -0.4533  0.1477
70872W        W71736  24.047  13.152  15.046  0.3150 -0.2617 -0.0153
70873W        W71737  11.573  27.236   0.811 -0.1234 -0.0076 -0.1856
70874W        W71738   4.184  27.362  13.638  0.0689 -0.3548  0.0191
70875W        W71739  11.651   9.798  12.324  0.2514  0.0077  0.0816
70876W        W71740  13.761  18.718  14.755 -0.0030  0.1169  0.1170
70877W        W71741  10.133   5.247  22.508 -0.0808  0.0155  0.1420
70878W        W71742   2.879  26.672   4.001  0.1306  0.1045  0.2167
70879W        W71743  11.748  21.512  22.655  0.1947 -0.0098  0.0825
70880W        W71744   1.344  15.040  11.310 -0.0078 -0.2336 -0.0714
70881W        W71745   6.085  15.352   5.067 -0.1232 -0.1675  0.2482
70882W        W71746  14.250  16.575  27.661 -0.0944  0.0624 -0.0379
70883W        W71747   8.301  25.819  11.056 -0.0171  0.4167  0.1728
70884W        W71748   4.554   3.155   5.851  0.0055 -0.0606 -0.0451
70885W        W71749   7.087   8.700   1.117 -0.0833  0.0804 -0.3365
70886W        W71750  27.023  18.505   6.346 -0.1459  0.0275  0.1019
70887W        W71751   3.964  12.042  11.293 -0.0299 -0.2165 -0.0484
70888W        W71752  12.612  11.589   7.091  0.4352 -0.2518  0.2557
70889W        W71753   7.076  11.974   5.484 -0.2441 -0.2747 -0.3243
70890W        W71754  10.904  16.268  16.638  0.0195 -0.0050  0.0929
70891W        W71755  22.192  10.676   5.212 -0.3476 -0.0121  0.3397
70892W        W71756  23.688  14.467   3.953 -0.1660 -0.1421 -0.3563
70893W        W71757  16.469  12.051   0.553  0.3350  0.0211 -0.3001
70894W        W71758  25.593  12.208  12.450 -0.0350 -0.2215  0.0798
70895W        W71759  19.516  23.164  25.374  0.0550  0.0859  0.0298
70896W        W71760  24.345  15.791  20.575  0.1145 -0.0267  0.0049
70897W        W71761  23.241   6.016  15.209 -0.1027 -0.1184  0.1778
70898W        W71762   2.059  11.407   7.380 -0.0961  0.2510 -0.3537
70899W        W71763  25.505   1.593   2.016 -0.2308 -0.0058  0.3045
70900W        W71764   9.533  11.901   6.714 -0.2048 -0.0704  0.0980
70901W        W71765  17.201  11.788  28.915 -0.0245  0.1876  0.0752
70902W        W71766  25.066   4.524   0.810  0.2342  0.3220  0.1177
70903W        W71767   9.305   3.072   0.745  0.2737 -0.2368 -0.2367
70904W        W71768  23.036  21.302   5.700  0.1182  0.1250 -0.1511
70905W        W71769  26.367   3.176   2.658 -0.1455  0.0205 -0.0958
70906W        W71770  17.669  17.817  28.067  0.1350  0.0810  0.1775
70907W        W71771  25.968  10.749  16.055 -0.4347  0.2151 -0.1815
70908W        W71772   3.953   8.843  10.639  0.3908 -0.0596 -0.1060
70909W        W71773   7.104  25.010   4.664 -0.2267 -0.1004 -0.1835
70910W        W71774  23.887  15.049  17.232  0.2762 -0.0681 -0.0079
70911W        W71775  28.862   9.164  15.937  0.1238 -0.1690 -0.0650
70912W        W71776  14.982   8.399  15.306  0.2046 -0.0581  0.3022
70913W        W71777  21.979  20.814   0.127 -0.0325  0.0507  0.1400
70914W        W71778  20.095  27.214   7.815 -0.1809  0.2028  0.0634
70915W        W71779  10.496  22.002  11.429 -0.0751  0.1087 -0.0109
70916W        W71780   5.363   6.604   1.448  0.1631  0.0699 -0.1517
70917W        W71781  20.963  17.782  21.983  0.3974 -0.0479 -0.1621
70918W        W71782  22.681   6.726  23.395 -0.2524  0.2621 -0.1349
70919W        W71783  13.916   7.536  22.115  0.1949  0.3678  0.0049
70920W        W71784   2.445   7.484   6.241 -0.0617  0.1471 -0.0471
70921W        W71785  29.104  16.735  12.372  0.0883  0.1409  0.0944
70922W        W71786  21.740  28.635  27.769  0.1167 -0.0378  0.2075
70923W        W71787   8.826  20.047  23.455  0.3740  0.0433  0.0695
70924W        W71788  19.597  26.129   1.716 -0.1460 -0.2582  0.0515
70925W        W71789   3.928  23.276   0.082 -0.1276  0.3672  0.2433
70926W        W71790   5.640  18.757  13.311 -0.4619 -0.1846  0.0149
70927W        W71791  25.031  28.541  24.256 -0.3179 -0.1722 -0.4046
70928W        W71792  22.189  25.796  27.212 -0.0869  0.0361 -0.1565
70929W        W71793   9.870   3.447  28.771 -0.0314  0.2019 -0.0042
70930W        W71794   6.702   9.023  11.313  0.1336 -0.1160 -0.0844
70931W        W71795   4.950  21.728   9.659  0.3743 -0.3772  0.3134
70932W        W71796  20.494  13.672   8.027  0.0360  0.0312 -0.2003
70933W        W71797   6.960   4.763   6.559 -0.0027 -0.0322 -0.0948
70934W        W71798  26.522   2.537  16.047 -0.3221  0.1802  0.0059
70935W        W71799   1.110   1.073   2.609 -0.2092  0.2423  0.0130
70936W        W71800   1.565  15.483   6.842  0.1671 -0.0830  0.0825
70937W        W71801  23.590   4.298  21.538  0.3254  0.2421 -0.2845
70938W        W71802   4.798  19.983   0.089  0.3438 -0.0092 -0.0282
70939W        W71803  16.801  21.140  20.513  0.2537  0.0307  0.0448
70940W        W71804  16.820  27.457   4.388 -0.3600 -0.0461 -0.0572
70941W        W71805  24.798   9.436   3.375  0.1025 -0.0750  0.3223
70942W        W71806  10.694   1.252   3.866 -0.3842 -0.1511 -0.1830
70943W        W71807  19.618  17.583   6.337  0.1127 -0.3924 -0.0232
70944W        W71808  26.637   0.149  20.821 -0.0695 -0.1618  0.1004
70945W        W71809  20.873  25.599   8.335  0.0213  0.1698  0.0706
70946W        W71810  23.148  21.457  11.152 -0.3520 -0.1408  0.1052
70947W        W71811   4.112   3.056   1.427  0.1006  0.2916  0.1513
70948W        W71812   1.906   5.380  18.668 -0.0903 -0.4569 -0.5145
70949W        W71813  16.266  22.524  23.479  0.1046  0.1849 -0.0717
70950W        W71814   7.498  12.961   9.771 -0.1393  0.0168 -0.2033
70951W        W71815  23.583  23.399   4.710 -0.0293 -0.0524  0.0883
70952W        W71816  11.354  10.114  28.908  0.1240  0.1695 -0.0595
70953W        W71817  19.368  22.476  25.233 -0.0168  0.0532  0.0759
70954W        W71818   9.590   3.908  23.865  0.0799 -0.0294 -0.1005
70955W        W71819   0.041  18.712  27.041  0.1921  0.2075 -0.0877
70956W        W71820  28.664  23.067  21.773 -0.0925  0.0484  0.1117
70957W        W71821  13.894  16.253  17.804  0.0196 -0.1538  0.0002
70958W        W71822  20.229   0.513  28.203 -0.3535  0.0465 -0.3803
70959W        W71823  16.528   5.587  17.192  0.0369 -0.0714 -0.0025
70960W        W71824  18.846  26.895   1.362 -0.3210 -0.1664 -0.1329
70961W        W71825   9.073  26.401  26.967 -0.1061 -0.0328  0.2914
70962W        W71826  19.665  15.968   3.267 -0.0179  0.1099 -0.1982
70963W        W71827   4.532   0.807  25.454 -0.2603  0.0026 -0.0317
70964W        W71828   7.226  18.780  11.113  0.2264 -0.1435  0.1107
70965W        W71829  13.863  10.766  17.840  0.0020 -0.1731 -0.2183
70966W        W71830  11.462   4.600  10.880  0.1683 -0.1736 -0.1563
70967W        W71831  24.698  26.405  28.139  0.0750  0.0710  0.1018
70968W        W71832   2.571  19.298  10.103 -0.1507  0.0878  0.3248
70969W        W71833   3.560  20.201  17.102  0.1932 -0.0767 -0.1112
70970W        W71834   7.931  25.988   7.508  0.2079 -0.2402 -0.1209
70971W        W71835   2.224  18.345   8.564  0.2311 -0.2851  0.1793
70972W        W71836  26.036  15.658  12.096 -0.2506 -0.2131 -0.1072
70973W        W71837  22.452   2.028   6.881 -0.0718  0.0040  0.5406
70974W        W71838   9.477   7.953  13.021 -0.1363 -0.2246 -0.0083
70975W        W71839  17.892  21.388  20.253  0.2189 -0.0116 -0.1858
70976W        W71840  27.706   7.267   8.216 -0.2670  0.1209  0.2521
70977W        W71841  11.432  12.393  18.609 -0.3190 -0.0156 -0.2132
70978W        W71842   8.844   9.087  12.702 -0.0203 -0.0763  0.1838
70979W        W71843   7.022   6.571   4.028 -0.0949 -0.0606  0.1072
70980W        W71844  19.153  28.738   7.155  0.2169  0.3916 -0.3922
70981W        W71845   8.641   0.880  15.463 -0.2379  0.0175 -0.0842
70982W        W71846   2.416  22.675  16.551  0.2251 -0.1126 -0.0455
70983W        W71847   0.937  10.204  19.812 -0.3539  0.1449  0.1512
70984W        W71848  14.951   1.731   4.378  0.4078 -0.3115  0.1042
70985W        W71849  11.296  24.266  26.503 -0.1005  0.3880  0.2177
70986W        W71850  26.079  12.272  29.051 -0.0400  0.2199  0.3354
70987W        W71851  14.455   0.867  15.859 -0.1032  0.0205  0.1084
70988W        W71852   8.579  18.865  11.688  0.1745 -0.3795  0.1501
70989W        W71853   8.542  28.646  16.187 -0.3261 -0.0114 -0.1026
70990W        W71854  18.251  18.239   4.957  0.1720  0.0554  0.0131
70991W        W71855  11.899  28.511  10.450  0.2485 -0.1983  0.3491
70992W        W71856   9.457  13.463  24.653 -0.0461 -0.1523  0.1996
70993W        W71857   7.825   2.144   9.116 -0.2215 -0.0959 -0.0316
70994W        W71858   8.763  23.369   5.997 -0.2563 -0.1623  0.0111
70995W        W71859   0.771   0.974  14.565 -0.1076  0.0051  0.0004
70996W        W71860  10.588  12.234  13.781  0.3248  0.0512 -0.0696
70997W        W71861  17.997  24.753  26.701 -0.3933 -0.1163  0.0676
70998W        W71862   0.567   1.698  16.117  0.0848  0.0256  0.0251
70999W        W71863  10.325  21.078  15.120  0.3860  0.1393 -0.1384
71000W        W71864  21.968   1.272  19.537  0.0409  0.0340  0.0213
71001W        W71865  13.223   8.368   1.384  0.0176  0.3569  0.0089
71002W        W71866   5.551  22.495  14.824 -0.0797 -0.1053 -0.2504
71003W        W71867  15.848  23.844  26.858 -0.0248  0.1147 -0.0334
71004W        W71868  10.944  23.402  10.180 -0.3124 -0.0221 -0.3072
71005W        W71869  25.850  14.828  23.216 -0.1986 -0.3320 -0.3080
71006W        W71870  20.591  22.436  12.151 -0.0339  0.3046  0.0347
71007W        W71871   4.067   4.409  25.644  0.1214  0.2941  0.0615
71008W        W71872   1.655   7.289   8.604 -0.1818  0.0791 -0.0900
71009W        W71873  19.118  26.477  13.857 -0.3048 -0.0042 -0.3405
71010W        W71874  28.984  18.471  24.035  0.2074 -0.0758  0.1911
71011W        W71875  12.987   4.198   3.427 -0.3521 -0.2088 -0.3053
71012W        W71876  24.550  27.852  25.509  0.3706  0.1044 -0.2037
71013W        W71877   7.562  28.215  23.222 -0.0083 -0.0038 -0.1075
71014W        W71878  12.313   4.269   1.592  0.0730  0.0470  0.2054
71015W        W71879  13.580  22.241   6.050 -0.2125  0.0429  0.5981
71016W        W71880  13.201   1.936   2.204  0.2267 -0.2899  0.0261
71017W        W71881  17.891   7.013  22.904  0.1208 -0.1437  0.3177
71018W        W71882  16.901  26.058   8.558 -0.2886  0.3312 -0.0391
71019W        W71883  12.972  26.433  15.076  0.1296  0.2211  0.0456
71020W        W71884   6.099  19.429   3.379 -0.0058 -0.0879 -0.1969
71021W        W71885  19.934  14.755  17.352 -0.2088 -0.2767 -0.0905
71022W        W71886  21.386   7.330   6.136 -0.1749  0.2369 -0.1380
71023W        W71887  11.908  15.250   6.834 -0.1146 -0.0641  0.1668
71024W        W71888  19.257  21.902   7.367 -0.1613  0.2835 -0.0344
71025W        W71889  13.143   1.910  21.469 -0.3518 -0.1679 -0.0247
71026W        W71890  15.527  20.400  15.218  0.1799  0.3995  0.0164
71027W        W71891  13.508   8.636  19.095  0.4024  0.0979 -0.0363
71028W        W71892   8.520  27.378  25.911  0.3528  0.0752 -0.2915
71029W        W71893   3.123  28.378  19.328 -0.0949 -0.0863  0.0142
71030W        W71894  19.994   1.127  14.618  0.1503  0.0459 -0.0001
71031W        W71895   9.334  25.357  25.319  0.1010 -0.0024 -0.1123
71032W        W71896  11.134  19.256   5.009 -0.3940 -0.1597  0.3882
71033W        W71897   7.178  21.282  10.118  0.3269 -0.1039  0.1685
71034W        W71898  25.179  27.203   8.357  0.0148 -0.0452 -0.1751
71035W        W71899   6.180  27.706   2.802 -0.0733  0.4810 -0.3131
71036W        W71900  20.516  25.529  25.082  0.0824  0.1798 -0.5205
71037W        W71901  11.286  23.164  11.510  0.1372 -0.2091 -0.2466
71038W        W71902  11.734  24.060  13.436 -0.1665 -0.0361 -0.1356
71039W        W71903   7.150  17.843   6.215 -0.0643  0.1627  0.3404
71040W        W71904   7.022   4.111  28.922 -0.0447 -0.3435  0.2301
71041W        W71905  10.786  16.727   8.073  0.0970 -0.0945  0.2844
71042W        W71906   4.457  10.718  22.292 -0.0625  0.0484  0.0321
71043W        W71907  16.604   3.459   9.508 -0.0110 -0.1226 -0.1614
71044W        W71908   2.835  25.459   6.992 -0.2327  0.2571  0.4520
71045W        W71909  13.684  16.335  20.922 -0.0630 -0.0155  0.0538
71046W        W71910  17.340  20.040  13.137  0.1094  0.0925  0.2100
71047W        W71911   8.227  26.828  11.842 -0.1073  0.2891 -0.0503
71048W        W71912  29.032  25.444  26.842 -0.1376 -0.1875  0.0174
71049W        W71913  13.020  21.355   8.608  0.1178 -0.0342  0.1585
71050W        W71914   7.899  26.560  28.527  0.0592  0.1188 -0.0659
71051W        W71915  15.122  27.362   8.737  0.0871  0.1198  0.5448
71052W        W71916   4.010  27.165  12.435 -0.1234  0.1920  0.0201
71053W        W71917   3.149  12.094  16.747 -0.0111 -0.2747 -0.5985
71054W        W71918   1.239   0.263  13.260  0.0457  0.2287 -0.1705
71055W        W71919  15.425   0.422   0.432  0.3914  0.1251 -0.1621
71056W        W71920   9.944   6.252   8.786 -0.0113 -0.1632  0.2386
71057W        W71921   4.806  16.705  25.510  0.0643  0.1251 -0.2238
71058W        W71922  19.800  18.416   6.878  0.1994 -0.3095 -0.4029
71059W        W71923  21.868  22.867   3.748  0.1563 -0.0007 -0.1932
71060W        W71924   1.735  23.699  21.759 -0.0735 -0.0445  0.1423
71061W        W71925  23.966   1.568   4.150  0.0251 -0.0204 -0.0879
71062W        W71926   8.188   3.150   3.749 -0.2263  0.0818 -0.1151
71063W        W71927  18.716  14.365   4.113  0.5517 -0.0210  0.1509
71064W        W71928  18.940  16.490   2.236  0.4089 -0.0628 -0.0355
71065W        W71929  18.519   5.906  12.658 -0.0392 -0.0802 -0.1026
71066W        W71930   9.230  23.960   4.248  0.3263 -0.1386  0.1881
71067W        W71931   8.147  25.663  16.646 -0.0163 -0.1360 -0.0042
71068W        W71932   1.801   3.428  21.417 -0.3495 -0.2564  0.3204
71069W        W71933  26.538  24.984  27.346 -0.0668  0.0824 -0.2280
71070W        W71934   4.992  24.384  13.363  0.1103 -0.1269 -0.1682
71071W        W71935  28.946   2.801   5.738 -0.1965 -0.4858 -0.2871
71072W        W71936   7.474  25.842  22.772 -0.0591  0.4145 -0.0275
71073W        W71937  12.399  18.145   7.811  0.3200  0.1499 -0.1496
71074W        W71938   2.111  28.930   0.822  0.0291 -0.0617  0.1896
71075W        W71939  10.898  22.908   9.395 -0.0660 -0.2423 -0.1362
71076W        W71940   5.140   6.119   0.566 -0.1516  0.3353  0.1004
71077W        W71941   8.725  25.023   8.675 -0.1184  0.0296  0.1675
71078W        W71942   2.913  10.425  28.124  0.0014 -0.2669  0.0641
71079W        W71943   4.698  16.205   5.148  0.0505 -0.1872 -0.0909
71080W        W71944  12.034   3.059  28.828  0.2025 -0.3288  0.3725
71081W        W71945  13.753  20.654   3.906  0.1545 -0.2571 -0.0451
71082W        W71946  23.781  22.045  10.691 -0.4797  0.1940 -0.0516
71083W        W71947   4.589   9.768  13.930  0.0275  0.0490  0.0400
71084W        W71948   8.224  27.723  21.745  0.0509 -0.2688 -0.0221
71085W        W71949  22.436  12.968  12.839  0.0737  0.2663  0.2593
71086W        W71950  10.876  27.265   6.482 -0.3459  0.1233 -0.0981
71087W        W71951  28.122  25.143  15.509 -0.1373  0.2746  0.0382
71088W        W71952   2.763   7.155  28.892  0.0031 -0.1758 -0.0908
71089W        W71953  13.674   4.664  23.025 -0.2437 -0.0688  0.0122
71090W        W71954  17.526  27.974  25.506  0.1419  0.3511 -0.2124
71091W        W71955  15.112   0.566   2.467  0.0251  0.0583  0.2087
71092W        W71956  21.646   9.763   7.855 -0.0009 -0.0361  0.2618
71093W        W71957   7.932   4.069  10.286 -0.1030  0.2725 -0.0211
71094W        W71958   9.715  26.053  26.288  0.0207  0.0986  0.0345
71095W        W71959  12.724   1.022   2.406 -0.0051 -0.0648  0.0190
71096W        W71960   4.757   1.644  26.917 -0.1060  0.2289  0.1200
71097W        W71961   9.544  10.968   4.143 -0.3693  0.0106  0.0372
71098W        W71962   7.636  20.158  13.545  0.1710  0.0790 -0.1703
71099W        W71963  20.959   7.883  21.400  0.0347 -0.1127  0.0721
71100W        W71964   9.894  19.430   4.938  0.1934 -0.0674 -0.2078
71101W        W71965  26.095   9.643   1.819 -0.0123  0.0204 -0.1228
71102W        W71966  24.578  13.727   0.556 -0.3230 -0.0872 -0.2091
71103W        W71967  19.767  11.435  26.199 -0.1029 -0.0855  0.1182
71104W        W71968  22.063  24.482  19.673  0.0950 -0.0293  0.0198
71105W        W71969   6.007  20.289   2.787 -0.1605 -0.1825 -0.1764
71106W        W71970  10.863  18.358   5.629  0.0736  0.1157 -0.0764
71107W        W71971  26.547   2.408   2.095 -0.4019 -0.2558 -0.0248
71108W        W71972  24.884  20.183  17.487  0.0479 -0.0119 -0.0459
71109W        W71973  15.937  24.344  24.403  0.1636 -0.2998 -0.0000
71110W        W71974  26.828  24.799   1.681 -0.1420  0.3835 -0.2513
71111W        W71975  14.154   4.556  13.622 -0.3020 -0.1993 -0.0097
71112W        W71976  17.741   2.976   2.480  0.2498  0.1083 -0.2060
71113W        W71977  14.550  12.538   2.790 -0.0034  0.0166  0.1096
71114W        W71978   6.212   7.657  15.441  0.1318  0.0920  0.0067
71115W        W71979  28.162  22.243   0.725  0.0700 -0.1543  0.0111
71116W        W71980   3.243  10.540   7.611  0.0597 -0.3450  0.0423
71117W        W71981  14.752  16.056  14.467  0.1206 -0.1948  0.0295
71118W        W71982  18.947  25.688  16.706  0.0386  0.0988 -0.3217
71119W        W71983   8.001  20.912   9.792  0.0914 -0.0405 -0.3513
71120W        W71984  24.381  11.912  15.633 -0.0432 -0.0286  0.3055
71121W        W71985   4.930  19.678  16.631  0.0252 -0.2565  0.2940
71122W        W71986   0.155  20.735  10.889 -0.0665  0.2931 -0.2095
71123W        W71987  15.814   1.077   3.885  0.3543  0.1401  0.0175
71124W        W71988  27.547  21.126  14.797  0.1957  0.2053 -0.2860
71125W        W71989  18.204  12.854  28.091 -0.2197  0.0778  0.0667
71126W        W71990  16.701  27.580   2.227  0.3195  0.1064 -0.0681
71127W        W71991  26.202  27.449  24.630  0.3101  0.0701  0.4973
71128W        W71992  16.171  20.411   6.618  0.2305 -0.0584 -0.0932
71129W        W71993   8.744  23.428   0.157  0.1007  0.3022  0.0069
71130W        W71994  23.366   7.650   4.091 -0.3843 -0.2143 -0.1347
71131W        W71995  23.633  21.128  27.940 -0.0195  0.0413  0.0281
71132W        W71996   8.315  26.526   9.171 -0.4647 -0.2270  0.1571
71133W        W71997   3.274  20.352  14.144  0.2318 -0.2731 -0.3851
71134W        W71998  20.482  22.993   7.250 -0.0818  0.0189 -0.3979
71135W        W71999  13.852  20.826  26.042  0.1556 -0.1345  0.1395
71136W        W72000  19.652  20.477  13.728 -0.1182  0.1992  0.0876
71137W        W72001  17.416  15.316   3.998  0.2189  0.3689  0.1499
71138W        W72002  21.844   0.481  24.988 -0.1210  0.1928  0.0507
71139W        W72003   6.005   0.261  21.414  0.0934 -0.4495 -0.2177
71140W        W72004  10.869  17.987  20.834  0.2748  0.2030 -0.0342
71141W        W72005   7.021  17.372  26.396  0.3911  0.1918  0.1093
71142W        W72006  25.028   6.236  23.716 -0.0866 -0.0558 -0.0259
71143W        W72007  21.337  14.348  14.755  0.2571 -0.1170  0.2037
71144W        W72008   6.143   1.831   2.349 -0.0741 -0.1250 -0.0625
71145W        W72009   6.469   5.526  17.290  0.3205  0.0056 -0.0403
71146W        W72010   1.127  26.341  15.796 -0.2155  0.0793 -0.0636
71147W        W72011  14.266  17.233  21.316 -0.0278 -0.0124  0.3121
71148W        W72012   1.461  14.012  22.353 -0.2452  0.0503 -0.0190
71149W        W72013  27.751   9.164   0.628  0.0073 -0.0443 -0.1781
71150W        W72014  20.374  20.662  25.062 -0.1836  0.2138  0.1587
71151W        W72015   3.932   0.942   0.948 -0.1613 -0.4291 -0.0127
71152W        W72016   2.971   2.577   8.372 -0.0472 -0.1338  0.0769
71153W        W72017  20.545  24.591   1.765 -0.0484 -0.1341  0.0352
71154W        W72018  24.722  19.243   0.983 -0.0112 -0.2409 -0.0136
71155W        W72019  10.562  12.855   1.547 -0.0937  0.4210 -0.1248
71156W        W72020  25.484  14.736   3.351  0.0418 -0.1073 -0.0845
71157W        W72021   3.667   1.675  16.363  0.3758 -0.4236  0.2031
71158W        W72022   4.052   7.396   4.455  0.0245  0.3526  0.1039
71159W        W72023  20.759  25.380  23.720 -0.1020  0.0362  0.0306
71160W        W72024  14.000  27.256  21.463  0.3063  0.0664 -0.1181
71161W        W72025  26.777  11.316  22.010 -0.1419 -0.2012  0.0780
71162W        W72026  14.700  12.847  19.280 -0.2796 -0.1250  0.3326
71163W        W72027  19.942  23.036   8.597  0.0527  0.1116  0.1072
71164W        W72028   7.822  12.129  17.989  0.0397  0.0866 -0.2562
71165W        W72029  11.809  20.615  20.043  0.0417 -0.0057  0.0938
71166W        W72030  18.652  26.783  13.855  0.1424  0.2213 -0.0147
71167W        W72031  23.328  26.167   5.662 -0.1487  0.2911  0.1700
71168W        W72032   7.856   3.652  10.049 -0.0287 -0.0595 -0.0197
71169W        W72033  12.308  27.358  10.881 -0.0335  0.1027 -0.0200
71170W        W72034  28.572  19.701  23.534 -0.0174  0.0847  0.0098
71171W        W72035  19.623  28.643   6.008 -0.1176 -0.4205 -0.0008
71172W        W72036   1.543  20.759  19.488  0.4731  0.0951  0.2837
71173W        W72037  19.335  15.645   4.527  0.1507  0.0723 -0.1075
71174W        W72038  28.998  13.620   8.521 -0.2077  0.0379 -0.0995
71175W        W72039  13.488  24.550  16.975 -0.1028 -0.1721  0.1968
71176W        W72040   3.995  28.248  10.498  0.0499 -0.1622 -0.0035
71177W        W72041  11.795  19.045  12.602  0.0806 -0.0397 -0.1125
71178W        W72042  18.532  19.737   9.430 -0.3266  0.0017  0.0709
71179W        W72043   3.364  12.549   6.036 -0.0376  0.0083  0.0103
71180W        W72044  13.733  20.622  23.804  0.1130  0.0265  0.2185
71181W        W72045  20.930  20.207  28.021 -0.2127 -0.3513 -0.1124
71182W        W72046   3.227   1.218   3.322  0.1172 -0.0712 -0.0037
71183W        W72047   3.665  24.257  21.175  0.0658  0.0436  0.0203
71184W        W72048  22.332  26.429  28.900 -0.0904 -0.3929 -0.0954
71185W        W72049  18.819  19.976  20.860  0.0685  0.1463 -0.0620
71186W        W72050  19.037  25.153  28.272 -0.3646  0.1807  0.2496
71187W        W72051  25.386  22.130  15.978  0.1196  0.0316  0.0322
71188W        W72052  13.171  18.751  19.317  0.0927  0.1579  0.2320
71189W        W72053  13.326   2.071  24.397  0.0217 -0.2086  0.0797
71190W        W72054  17.473  21.037   6.025  0.1880  0.1550  0.0157
71191W        W72055  14.537  26.703   8.605 -0.1336  0.3133  0.0198
71192W        W72056   0.826  14.793  24.203 -0.1284 -0.3857  0.2725
71193W        W72057   2.397  16.693  10.792 -0.0600  0.1376  0.0410
71194W        W72058  26.791  19.649  27.700 -0.2309  0.1012 -0.2066
71195W        W72059   1.254   1.567  25.416 -0.1988 -0.0993  0.1194
71196W        W72060  22.803   2.791  27.522 -0.2192  0.0174 -0.1216
71197W        W72061  13.588  15.787  27.438  0.1951 -0.3222 -0.1595
71198W        W72062   6.983  17.414  10.499  0.0808  0.0094  0.1034
71199W        W72063   8.250   4.754  24.523 -0.0444  0.1703  0.1750
71200W        W72064  12.771  26.822  21.701 -0.0016 -0.0163  0.0481
71201W        W72065  15.965   2.940   5.959  0.0359  0.1244 -0.3953
71202W        W72066  27.563  15.906  12.208 -0.0692  0.4102  0.2276
71203W        W72067   1.965  20.388   8.749 -0.3714  0.0766  0.1721
71204W        W72068   2.932   2.897   1.787  0.0844  0.0727 -0.0923
71205W        W72069  11.492  13.730   5.730 -0.0052 -0.3280  0.0225
71206W        W72070   6.175  20.335  18.961  0.1969  0.1992 -0.1074
71207W        W72071   0.191  10.915  27.426 -0.0200  0.2036  0.4687
71208W        W72072  13.246   5.405  24.073 -0.1964 -0.3513  0.1092
71209W        W72073  10.121  17.543   8.176 -0.3110 -0.2977  0.1777
71210W        W72074  24.847  22.759  10.861 -0.3042 -0.1671  0.0172
71211W        W72075  14.193   9.682   9.048 -0.2347 -0.2204 -0.3781
71212W        W72076  23.727  22.564   9.022 -0.0372  0.0027  0.0255
71213W        W72077  13.705  26.908  15.607  0.0656  0.1880  0.3315
71214W        W72078  22.026  28.546   5.020 -0.0528 -0.0279 -0.0420
71215W        W72079  11.141  27.060  13.038  0.2019  0.2231 -0.1074
71216W        W72080  15.091  24.141  11.682 -0.0564 -0.1373  0.0624
71217W        W72081   7.429  17.038   9.418 -0.1882 -0.2226  0.2931
71218W        W72082  20.268  26.516  26.792 -0.0953 -0.0327  0.0473
71219W        W72083  19.994  23.829  19.751 -0.1329  0.1713  0.0455
71220W        W72084   7.107   0.399  13.032 -0.0841 -0.2199  0.2257
71221W        W72085  23.635   5.103  22.516  0.2170  0.1651 -0.0798
71222W        W72086  16.256  21.230   5.431 -0.1259 -0.0037  0.0198
71223W        W72087   1.837   9.768   1.999 -0.1267  0.0143 -0.2102
71224W        W72088   7.621  24.465   7.455 -0.0627  0.0964  0.1725
71225W        W72089   6.995  22.425  14.395 -0.0166  0.2475  0.0222
71226W        W72090   7.829  22.664  27.964  0.4179 -0.2978 -0.2404
71227W        W72091   8.509   7.250  26.901  0.2304 -0.1210 -0.0433
71228W        W72092  12.324  26.688  22.090  0.3140  0.0129 -0.1123
71229W        W72093  24.863  10.228  28.526 -0.3827 -0.1183 -0.1578
71230W        W72094  20.361  22.859   9.325  0.0080 -0.0935 -0.1018
71231W        W72095  25.768  12.714  19.710  0.0079 -0.0681 -0.1143
71232W        W72096   4.162   2.078  11.229 -0.2661 -0.0311 -0.1244
71233W        W72097   6.746   5.039   3.091  0.0957  0.0732  0.1747
71234W        W72098   1.932  26.735  14.109 -0.2129 -0.1060  0.2714
71235W        W72099   5.183  24.112  18.903 -0.1044 -0.2803 -0.1401
71236W        W72100   4.810  20.798  17.659  0.0916 -0.0154 -0.1122
71237W        W72101   2.586  19.675  23.482 -0.0384  0.2635  0.0701
71238W        W72102   9.155   3.512   3.600 -0.0634  0.3131 -0.3064
71239W        W72103   1.042  14.919  13.079 -0.3324 -0.2475  0.2788
71240W        W72104  22.006  24.937  15.320 -0.2182  0.1526  0.3011
71241W        W72105  23.020  25.756   0.335  0.0069 -0.4216 -0.2355
71242W        W72106  22.519  25.451   8.815  0.2201 -0.2893 -0.2167
71243W        W72107  11.353  25.972   0.851 -0.1318  0.3543  0.3414
71244W        W72108   6.464  26.325   5.140 -0.0553 -0.1758  0.2026
71245W        W72109   6.548  26.429   6.972  0.2136  0.1958  0.2516
71246W        W72110  18.176   4.994  25.492  0.2888 -0.0131 -0.2729
71247W        W72111  13.656  17.044   7.052 -0.0888 -0.3860 -0.1190
71248W        W72112  22.603  16.972   9.544 -0.0912 -0.3969  0.4030
71249W        W72113  26.875  21.972   9.854 -0.1452 -0.0838 -0.1526
71250W        W72114  22.645  24.163  23.216 -0.1791 -0.1070 -0.1182
71251W        W72115   3.404   1.671  18.948 -0.1450 -0.1019  0.1020
71252W        W72116   2.862  14.323  26.220 -0.0291 -0.1953  0.0669
71253W        W72117  20.482   3.979   9.363  0.0953  0.5227 -0.0407
71254W        W72118  20.442   2.335   9.692 -0.2207  0.2133  0.2790
71255W        W72119  14.700  20.518   7.899  0.2545 -0.0301  0.1616
71256W        W72120   4.757   3.966   1.058 -0.0672 -0.3668  0.0339
71257W        W72121  17.477   5.881   8.432  0.0613 -0.0154 -0.2323
71258W        W72122  13.144  18.327   9.558 -0.2298  0.2733  0.0542
71259W        W72123  13.669  15.288   7.334  0.3037  0.2029  0.0816
71260W        W72124  11.280  22.414  10.986 -0.0776 -0.1229 -0.1143
71261W        W72125  17.077  19.190  28.930  0.0177  0.3940  0.0548
71262W        W72126  22.403  27.325   0.518  0.1342 -0.0339  0.0607
71263W        W72127   6.533  28.762  21.940 -0.4756  0.0581 -0.0172
71264W        W72128  28.240   1.447  14.287 -0.0049 -0.3778  0.3504
71265W        W72129  20.124  27.909   6.041  0.1486 -0.0803  0.2020
71266W        W72130  20.998  22.654  27.549  0.2002  0.4362  0.0219
71267W        W72131   3.733   7.717  19.147  0.0960  0.0528 -0.0578
71268W        W72132   3.003  13.613  20.063  0.2074  0.0544  0.1405
71269W        W72133  15.065  18.864  19.311  0.3324 -0.0714 -0.1459
71270W        W72134   9.748  27.219  12.791 -0.0255 -0.1967 -0.1152
71271W        W72135  29.139  24.288   3.060 -0.0512 -0.2886 -0.2986
71272W        W72136   9.468   4.971  17.629 -0.5175  0.0988  0.2243
71273W        W72137  14.828  13.037  20.846  0.0887  0.2403 -0.4913
71274W        W72138  14.742  11.503   9.154  0.0825 -0.2881  0.1074
71275W        W72139   4.864  11.233   1.248 -0.2016 -0.1305 -0.3529
71276W        W72140  28.665  27.566   7.516 -0.0572  0.1083 -0.2355
71277W        W72141   9.625  21.118   2.087 -0.2085  0.0657 -0.0134
71278W        W72142   3.351   7.704   1.118  0.1347 -0.3827 -0.0677
71279W        W72143   3.741  23.484  27.618  0.1324  0.2341 -0.0383
71280W        W72144   1.104  19.179  27.795  0.1380 -0.1423 -0.1108
71281W        W72145  26.617  13.995  28.615 -0.1137  0.1021  0.1091
71282W        W72146   4.503   0.955   3.356  0.3193  0.0230  0.0606
71283W        W72147   3.611  24.756   6.793  0.0667  0.0455  0.2313
71284W        W72148  25.547  17.480   7.752  0.0618 -0.3162 -0.0172
71285W        W72149   9.967  24.081  10.912 -0.0626 -0.1546  0.1625
71286W        W72150  25.965  22.427   3.766  0.0784 -0.1613 -0.4382
71287W        W72151  22.376  23.064  20.729  0.3866  0.2004  0.1055
71288W        W72152   9.719   7.017   1.545  0.1235 -0.1604  0.1187
71289W        W72153   0.267  11.850   3.716 -0.1332  0.2510 -0.4302
71290W        W72154  21.090   4.355  28.446 -0.1287 -0.0293  0.1262
71291W        W72155   0.029  17.676   3.668  0.0321  0.3138 -0.2144
71292W        W72156   8.548  21.787  27.320  0.0538 -0.0338  0.2586
71293W        W72157   2.597  28.356  25.622  0.1295 -0.2432  0.1042
71294W        W72158   8.462  14.021  25.223 -0.0448 -0.1911  0.0851
71295W        W72159   7.533  16.521  24.792  0.0271 -0.0775 -0.0270
71296W        W72160  11.294  21.757  20.098  0.0139  0.1681 -0.1918
71297W        W72161  15.261  21.010  13.003  0.3562 -0.1570 -0.0319
71298W        W72162   9.113  15.424  25.422  0.2162  0.1345  0.0931
71299W        W72163  25.668  28.852  25.393 -0.2277  0.0476 -0.0073
71300W        W72164   7.050   3.272  24.144  0.1373  0.1204 -0.0359
71301W        W72165  24.175   6.250  15.735 -0.2701 -0.2488  0.1284
71302W        W72166  28.605  10.280  12.322  0.0960  0.0677  0.0631
71303W        W72167   8.831  15.137   3.684  0.2815  0.1121 -0.2816
71304W        W72168   3.383  19.695   7.173 -0.0121  0.1606 -0.1926
71305W        W72169   5.221   3.858  11.652  0.0551 -0.1294 -0.2644
71306W        W72170  11.118   8.280  26.118 -0.0863 -0.1699 -0.1525
71307W        W72171  10.195  21.309  10.206  0.1116  0.1579  0.3205
71308W        W72172  11.098  27.649  27.873 -0.2113 -0.1402  0.2141
71309W        W72173   9.220  16.919  24.285  0.2376 -0.1476 -0.3016
71310W        W72174  18.001   0.101  23.273  0.0664 -0.2097 -0.0934
71311W        W72175  20.179  27.823   7.641 -0.1293  0.0526 -0.0352
71312W        W72176  24.635  15.994  10.128 -0.1344  0.1713 -0.3549
71313W        W72177   5.596  28.323  22.746  0.2030  0.0440  0.3561
71314W        W72178  12.731  19.691  20.407 -0.1131  0.3582 -0.0471
71315W        W72179  16.067  28.817  15.236  0.0323  0.1341 -0.0773
71316W        W72180  28.895  25.826   6.779  0.0115 -0.0420  0.3328
71317W        W72181  19.576  16.481   4.218 -0.2008  0.0350  0.0592
71318W        W72182   8.788   6.655  14.408 -0.0719 -0.0643  0.3525
71319W        W72183   5.473  25.985  17.477 -0.1805 -0.2481  0.0784
71320W        W72184  24.696  25.391  20.992 -0.0731  0.1930 -0.1971
71321W        W72185  17.999  24.038   0.282 -0.1775  0.0233 -0.0134
71322W        W72186  13.624  12.748  18.211  0.2134  0.2273 -0.5702
71323W        W72187  10.204  21.757  28.855 -0.1455  0.1450  0.0419
71324W        W72188  12.744  28.671  20.392 -0.0302 -0.2284  0.2261
71325W        W72189  24.518  12.337   2.353 -0.1384 -0.1648  0.0747
71326W        W72190  27.240  27.827  14.338  0.1961  0.0874 -0.4332
71327W        W72191  16.709   7.612  11.419 -0.1296  0.3956 -0.0621
71328W        W72192  26.677   1.004  15.036 -0.2340  0.0782 -0.0337
71329W        W72193  25.820  19.986  12.659 -0.0939  0.0226 -0.2322
71330W        W72194  24.772  14.107   5.147 -0.0303 -0.0668  0.0228
71331W        W72195   9.364  19.986  16.364 -0.1776 -0.0435  0.0084
71332W        W72196   7.220  13.307   7.496  0.2140  0.0634  0.0695
71333W        W72197  13.329   1.718  14.178 -0.2952  0.2098 -0.1498
71334W        W72198  10.992  20.810  11.445  0.0606 -0.2203  0.0762
71335W        W72199  11.928  16.761  19.422  0.1578  0.3757 -0.0313
71336W        W72200  10.298   3.062  22.743  0.1985  0.0890  0.2013
71337W        W72201  22.893   0.631  13.834  0.0284  0.3360 -0.2816
71338W        W72202  12.336  12.528  13.507 -0.1432  0.0005 -0.0493
71339W        W72203  13.279  15.698  17.410 -0.1682 -0.0403  0.1049
71340W        W72204  12.330  28.483  20.820 -0.0523  0.0528 -0.0872
71341W        W72205  10.732  13.453  15.910 -0.2243  0.1437 -0.1567
71342W        W72206  25.791   9.444   9.033  0.1130  0.1040 -0.1120
71343W        W72207   7.938  23.978  10.803  0.0728  0.1508 -0.1218
71344W        W72208  25.616  18.596  12.245 -0.2039  0.1282 -0.2220
71345W        W72209   2.133  27.778   5.905  0.1218 -0.0979  0.3554
71346W        W72210  10.087   2.718  10.923 -0.0461 -0.2174 -0.0037
71347W        W72211  14.034   6.710  13.160  0.1867  0.0148 -0.1655
71348W        W72212   5.164   3.507  26.201  0.1666 -0.2690  0.2607
71349W        W72213  26.961  19.745   6.164 -0.3968 -0.0193 -0.0413
71350W        W72214  18.523  16.538  19.025 -0.0566 -0.0196 -0.0194
71351W        W72215  22.928  23.504   1.273  0.0453 -0.1583  0.1312
71352W        W72216  18.439   4.377  10.009 -0.0962 -0.0049 -0.1249
71353W        W72217   3.586   3.541  12.357 -0.1633  0.0490  0.0630
71354W        W72218  16.005  26.773  11.820  0.1827 -0.0065  0.1622
71355W        W72219  25.164  16.409   1.962 -0.1258  0.0741  0.1231
71356W        W72220   7.773  23.783  19.866 -0.1993 -0.1231 -0.1441
71357W        W72221  21.474  15.726   7.575 -0.0812  0.0598 -0.0523
71358W        W72222  23.868  10.193   8.777 -0.1025  0.1432 -0.1020
71359W        W72223   3.303   3.125  19.082 -0.2097 -0.1290 -0.1395
71360W        W72224  18.057  19.249  12.750 -0.3011  0.0836 -0.0501
71361W        W72225   3.195  26.175   4.129  0.1539 -0.1173 -0.1392
71362W        W72226  15.452   2.730  10.109  0.4616 -0.0763  0.2139
71363W        W72227   5.092  21.158  18.532 -0.3761  0.0010 -0.1439
71364W        W72228  18.608  28.105   4.622 -0.1317 -0.1680 -0.0995
71365W        W72229  25.473  13.476   4.645  0.0451  0.1477 -0.1821
71366W        W72230  10.714  21.613  22.019  0.1466  0.0046 -0.0699
71367W        W72231  19.847  18.253   1.500 -0.0499 -0.1023 -0.1442
71368W        W72232   0.742  11.903  24.506 -0.1715  0.3499  0.1711
71369W        W72233   3.281  21.128   1.817  0.1452  0.0858 -0.2262
71370W        W72234  10.608   6.671  17.766 -0.1820  0.0787  0.2397
71371W        W72235  17.711  25.942  21.136  0.0126 -0.0137  0.1012
71372W        W72236  13.092   8.489  26.724 -0.2279 -0.0994  0.1141
71373W        W72237  14.815   3.154  28.568  0.1013 -0.0466 -0.0623
71374W        W72238   3.328  11.370   7.722  0.0698  0.0830  0.1862
71375W        W72239   4.198  24.170  19.861 -0.0868  0.2055 -0.0105
71376W        W72240   5.438   2.737  25.019  0.0595  0.0898  0.0170
71377W        W72241  19.005  25.667   7.877  0.1178  0.1556 -0.0229
71378W        W72242  21.150  21.114  25.504  0.2729 -0.2870 -0.0480
71379W        W72243  11.079   9.148  22.516  0.2437 -0.2053  0.3124
71380W        W72244  12.136   6.749   6.335 -0.1748 -0.3959  0.0454
71381W        W72245   2.459   8.857  16.418 -0.0283  0.1453 -0.0436
71382W        W72246  28.371  16.107  11.383 -0.2087  0.1534 -0.0114
71383W        W72247  14.476  13.825  16.798 -0.2330 -0.0292  0.0269
71384W        W72248   4.060   9.401   3.956  0.0193  0.0237  0.2518
71385W        W72249  13.443  19.126  10.021 -0.1964 -0.3279 -0.2330
71386W        W72250  14.597   9.214  24.076 -0.0325 -0.1898  0.1409
71387W        W72251  10.329  15.843  18.127  0.1487 -0.1450 -0.0546
71388W        W72252  14.933  16.532   9.817  0.0487  0.1174  0.0131
71389W        W72253  22.702   3.328  20.076  0.3510 -0.1078 -0.2404
71390W        W72254   7.905   1.010  16.378  0.0179 -0.1458 -0.4901
71391W        W72255  20.292   9.902  12.796  0.0606 -0.0971  0.0506
71392W        W72256   8.732  27.919   1.116  0.3220 -0.0394  0.1813
71393W        W72257  18.085   4.735  22.713  0.1307 -0.2210 -0.0644
71394W        W72258  16.614  19.933  25.668  0.2726 -0.0853  0.1086
71395W        W72259  19.635   9.265  24.334  0.3595 -0.1577  0.3967
71396W        W72260   8.753   2.112   5.060  0.1224 -0.0365  0.3607
71397W        W72261   8.197  11.590  28.363 -0.1224  0.1170  0.0970
71398W        W72262  13.978  19.312  14.398  0.0881 -0.1010  0.2284
71399W        W72263   6.275  29.002   2.177 -0.3058  0.1237 -0.0716
71400W        W72264  16.189  25.176  16.947 -0.2221  0.1118 -0.0180
71401W        W72265  10.193  19.396   0.304 -0.1012 -0.0122  0.1219
71402W        W72266  16.927  24.174   6.163 -0.1244 -0.0831  0.1167
71403W        W72267  28.721   7.992   0.330 -0.1992  0.4402  0.0725
71404W        W72268   3.261  24.327   2.120  0.1137  0.0398  0.0515
71405W        W72269  21.926   4.204  16.457  0.0071 -0.1146  0.0330
71406W        W72270   9.468   1.823  14.324 -0.0643 -0.0301  0.1817
71407W        W72271  10.667  16.388  10.890  0.2377 -0.0139  0.1938
71408W        W72272  11.799  23.181  26.444 -0.0532  0.2559 -0.2971
71409W        W72273  21.857   6.378   8.648 -0.1974 -0.0632 -0.0931
71410W        W72274   7.439   6.891  13.660 -0.0245 -0.1268 -0.0751
71411W        W72275   2.410  13.251  24.245 -0.0999  0.0022 -0.0155
71412W        W72276   7.515  15.738   4.790 -0.1549  0.0118  0.1530
71413W        W72277  19.723  26.507   7.090 -0.1895  0.1803 -0.0469
71414W        W72278   5.163   1.632   3.333 -0.0261  0.1368  0.1074
71415W        W72279  25.764   9.251  23.001  0.0354 -0.1556 -0.1295
71416W        W72280   5.431  14.181  20.875  0.1368 -0.0715  0.1255
71417W        W72281   2.466  13.459  13.260 -0.0355 -0.2218 -0.2275
71418W        W72282   4.290   2.838   6.974 -0.0679  0.1414 -0.1460
71419W        W72283   8.487  20.207   1.667  0.1833  0.0165  0.1444
71420W        W72284  23.760  26.253  15.371 -0.0990  0.0853 -0.2093
71421W        W72285   5.734  16.756   2.144 -0.7396  0.1186  0.0665
71422W        W72286   9.623  25.736  22.721  0.0818 -0.0961  0.0908
71423W        W72287  17.168  22.811  11.206 -0.1610  0.1437  0.2330
71424W        W72288  19.771  14.723  21.783 -0.0202  0.1954 -0.0907
71425W        W72289   7.892  20.649  12.304  0.0208  0.1976 -0.1852
71426W        W72290   6.999  18.125  15.816 -0.2249 -0.0973 -0.0927
71427W        W72291   2.142  27.821   6.890  0.0332  0.0258 -0.0616
71428W        W72292   4.462   3.180   7.341  0.4604 -0.2771 -0.0751
71429W        W72293  12.594  26.710   5.115  0.1067  0.1183 -0.0274
71430W        W72294  25.318   2.326  27.549  0.2040 -0.0851 -0.1721
71431W        W72295   8.598  21.873  13.008 -0.1851  0.0638 -0.0851
71432W        W72296  17.794  23.155  13.758  0.0286 -0.0923 -0.1001
71433W        W72297   8.707   5.389  12.206 -0.3896 -0.0539 -0.0514
71434W        W72298  10.674  21.602  25.945 -0.2824  0.2214  0.0310
71435W        W72299   6.195  11.173   8.850  0.0931  0.0890 -0.2490
71436W        W72300  13.486   8.264  10.363 -0.0778 -0.1727  0.2009
71437W        W72301   4.461  11.575   1.187  0.1496  0.0688  0.0918
71438W        W72302   2.993   6.608   6.175 -0.2349 -0.0853  0.1083
71439W        W72303  13.143   9.915  29.001  0.0863  0.3347  0.3018
71440W        W72304   8.162  21.417   9.817 -0.1212 -0.1314  0.0468
71441W        W72305   0.939  13.904   8.245 -0.1320 -0.0600 -0.1324
71442W        W72306   2.883   0.269  15.400  0.1246  0.0250 -0.3653
71443W        W72307   4.605  26.223  27.337  0.0206 -0.2904 -0.3001
71444W        W72308   3.558  17.470  11.870  0.0162 -0.3307  0.0589
71445W        W72309  26.533   5.275  27.002  0.2771 -0.1294  0.2691
71446W        W72310   8.613  28.608  10.255  0.1773  0.2639  0.2456
71447W        W72311   0.363  14.916  12.279 -0.0708  0.1014 -0.2719
71448W        W72312   8.287  27.836  14.438  0.1799  0.2208  0.0876
71449W        W72313   2.429  10.192  28.153  0.1351  0.0292  0.3950
71450W        W72314   2.012   6.163   8.027 -0.2620  0.0619  0.2560
71451W        W72315   9.923   7.765  12.879 -0.0439  0.3015 -0.2411
71452W        W72316   3.578   5.310   8.919  0.0106  0.2391 -0.0480
71453W        W72317  11.053  25.898   4.784  0.0045 -0.0201 -0.1829
71454W        W72318  21.094  27.325  11.513  0.0208 -0.1070 -0.0078
71455W        W72319   5.808  25.497  17.260 -0.0121 -0.1738 -0.0363
71456W        W72320   4.536  12.696  12.421  0.2146  0.0736 -0.4170
71457W        W72321  26.243   0.038   5.212 -0.1214  0.1736 -0.0298
71458W        W72322   2.330  25.724  18.884  0.2809  0.3639 -0.0468
71459W        W72323   0.357   3.138  18.457 -0.0514  0.2956  0.3894
71460W        W72324   4.659  19.298   4.771 -0.1403 -0.1276  0.0309
71461W        W72325   9.987  14.258  23.190 -0.1848  0.1527  0.0612
71462W        W72326  14.785  17.913   9.048 -0.0764 -0.0380  0.1896
71463W        W72327  22.621   8.582  15.249 -0.1013  0.1010  0.0105
71464W        W72328  27.182  15.909  11.829  0.0187  0.1321 -0.0666
71465W        W72329   4.459  22.465   3.133 -0.2189 -0.3090  0.2516
71466W        W72330   6.120  17.361  12.951 -0.0056  0.0281  0.2046
71467W        W72331  10.187  11.173   1.581 -0.1420  0.0772 -0.2817
71468W        W72332   8.504  21.392   8.217  0.0623  0.0154  0.0369
71469W        W72333  17.957   3.810   4.092 -0.1757  0.0628  0.1788
71470W        W72334  18.695   8.176   2.757  0.0494  0.2326  0.0115
71471W        W72335  27.294  10.636   6.419  0.1122  0.2823 -0.0099
71472W        W72336   5.198  17.939   9.410 -0.0737 -0.0823  0.1590
71473W        W72337  17.984   3.191  20.749 -0.0521  0.1114  0.0359
71474W        W72338  19.974  19.666   3.177  0.4512 -0.0515 -0.0395
71475W        W72339   0.086  13.234   3.624 -0.1181 -0.0183  0.0173
71476W        W72340  12.481  13.791  25.894  0.1164 -0.0361  0.1478
71477W        W72341  14.675  18.195  10.414  0.3946  0.0500 -0.2046
71478W        W72342  11.790   6.220  21.397  0.2715  0.3491 -0.1566
71479W        W72343  26.326  15.096   5.031  0.1452 -0.2412 -0.1188
71480W        W72344   8.201  25.374  26.377  0.1302  0.1812  0.2962
71481W        W72345  11.031   5.272  23.170 -0.2584 -0.1325  0.0728
71482W        W72346   9.807  22.889   8.831  0.3672 -0.1256  0.0088
71483W        W72347  25.957  18.717  13.822  0.4641  0.0509 -0.2533
71484W        W72348  21.518   5.399   5.858  0.1754 -0.2783 -0.1379
71485W        W72349   9.222   1.531  27.506 -0.1774 -0.2582  0.3963
71486W        W72350   6.270   9.523   9.750  0.0298  0.0911 -0.0978
71487W        W72351   1.488   8.018   9.080 -0.1440 -0.0440  0.5804
71488W        W72352  28.009  16.798   7.380  0.0682 -0.1825 -0.2691
71489W        W72353   3.653  15.361   0.857  0.2647  0.0420 -0.0558
71490W        W72354   0.216  18.522   2.545  0.1724  0.0817 -0.0977
71491W        W72355  19.749   3.492  16.643  0.0543  0.3512  0.3226
71492W        W72356  11.441   7.413   3.247 -0.1051  0.0179  0.1355
71493W        W72357   4.789   6.943  13.173 -0.0258  0.0868 -0.1006
71494W        W72358   1.625  22.656  17.713 -0.1458 -0.3754 -0.1798
71495W        W72359  16.574  26.083  18.717 -0.0210  0.2399  0.3415
71496W        W72360   4.297  26.395  18.449 -0.1113 -0.4540 -0.1526
71497W        W72361   4.138  19.126   6.908 -0.0528  0.0531 -0.2190
71498W        W72362  26.288  27.148   3.400  0.2718  0.1523 -0.2842
71499W        W72363  22.289  20.251   3.297 -0.2520  0.0756  0.0367
71500W        W72364  19.641  28.855  22.233  0.0506 -0.2605  0.2388
71501W        W72365   8.744  20.515  17.831  0.1777  0.1080  0.0114
71502W        W72366  15.630  28.658  28.965 -0.1251 -0.1145 -0.2476
71503W        W72367  24.827   1.533   2.483  0.0416 -0.2630  0.1057
71504W        W72368   8.610  28.163  10.511  0.2209 -0.1676 -0.3052
71505W        W72369  17.732  13.665  27.918 -0.0719 -0.0391  0.1638
71506W        W72370  22.100  17.688  25.759  0.3363  0.2873  0.2175
71507W        W72371  23.945  16.062  18.410 -0.0641 -0.0708  0.2725
71508W        W72372   9.928  17.715   3.358 -0.0799  0.0847  0.2122
71509W        W72373  27.712  15.256   1.259  0.0622  0.2074 -0.0197
71510W        W72374   6.664  16.817  15.850 -0.0778  0.0800 -0.0849
71511W        W72375   8.500  24.397  15.289 -0.0013  0.2451 -0.4806
71512W        W72376  14.969  15.466  13.030  0.0702  0.0419 -0.2557
71513W        W72377   5.245  19.034  16.547  0.0649  0.1572 -0.0794
71514W        W72378  27.516  10.621  10.243 -0.0048  0.1691  0.4035
71515W        W72379  27.575  19.868  20.854 -0.4835  0.0181  0.0075
71516W        W72380  15.233   8.266  26.369 -0.0688  0.2227  0.6164
71517W        W72381  21.925  17.860  20.925 -0.2325 -0.0428 -0.3077
71518W        W72382   2.610  14.587  28.604  0.0861 -0.0050 -0.1478
71519W        W72383   5.799  20.835   8.869 -0.1321 -0.0724  0.0178
71520W        W72384  13.838  24.173  14.040  0.2450 -0.0288  0.0512
71521W        W72385  26.249  16.680   9.760  0.0774  0.0342  0.1643
71522W        W72386  13.925  17.409  10.232  0.0465  0.1168 -0.2278
71523W        W72387  13.987  24.121  15.650 -0.2621 -0.1845  0.2860
71524W        W72388   9.229  13.611  16.691  0.1402  0.3117 -0.1425
71525W        W72389  25.594  21.102  13.141 -0.0803  0.2166 -0.0375
71526W        W72390   9.747  10.500   5.229 -0.1519  0.1152 -0.5181
71527W        W72391  25.243   2.827  22.651 -0.1421 -0.0031  0.1753
71528W        W72392   6.837  24.896  17.973 -0.3213  0.0549  0.3027
71529W        W72393  21.186   4.752   0.056 -0.0268  0.0834  0.3463
71530W        W72394  10.848   8.197  11.734  0.1024  0.0441 -0.0089
71531W        W72395   8.515   2.021  17.993 -0.0438 -0.0084 -0.2246
71532W        W72396   3.215  28.574   8.882 -0.0061 -0.0172 -0.1413
71533W        W72397  13.176   7.363   9.295 -0.0476  0.0074  0.0339
71534W        W72398  18.938  26.825   3.730 -0.1016 -0.1326 -0.1001
71535W        W72399  11.448  12.727   7.565  0.1585 -0.0584  0.1614
71536W        W72400   2.625  26.946   9.211 -0.4013 -0.1427 -0.1252
71537W        W72401   4.523  15.140  17.582 -0.1196  0.4023  0.1367
71538W        W72402  26.439  24.027  28.694  0.1379 -0.0326 -0.1114
71539W        W72403   9.812  10.726  24.101  0.0330 -0.0212 -0.1476
71540W        W72404   7.743  21.428  26.862  0.0845  0.0223  0.0235
71541W        W72405   0.668  24.271  15.336  0.0906 -0.2549 -0.0166
71542W        W72406  13.428   9.484  25.771  0.1827  0.3137  0.0302
71543W        W72407  29.003  11.611  12.397 -0.2874  0.1171  0.0605
71544W        W72408   5.809   8.875   6.400 -0.1173 -0.2903  0.0702
71545W        W72409   5.375   9.092  16.990 -0.2875 -0.1143  0.0340
71546W        W72410  17.388  20.475   6.224 -0.0860 -0.2486 -0.2304
71547W        W72411  14.823  17.464  11.225  0.0695  0.2180  0.1305
71548W        W72412  15.439   5.714  15.501 -0.1337 -0.2167 -0.1266
71549W        W72413  20.007   7.698   2.337  0.0381  0.0288 -0.1264
71550W        W72414   5.296  19.252   5.455  0.1265  0.3713 -0.1463
71551W        W72415  19.424  12.990  12.333 -0.0673  0.0527  0.0347
71552W        W72416  14.615   1.274   9.554  0.0356  0.1360 -0.0804
71553W        W72417  17.712  19.608  10.722  0.3445 -0.0178 -0.0345
71554W        W72418   4.163  15.047  14.604  0.0015 -0.2855  0.0204
71555W        W72419   8.177   2.500  16.398 -0.0918 -0.0641  0.3111
71556W        W72420  15.074  24.161  10.053 -0.2930  0.0987  0.4475
71557W        W72421   7.940  22.774  15.222 -0.1250 -0.1614 -0.0407
71558W        W72422   8.849   4.821  12.887  0.0070  0.2317  0.0201
71559W        W72423  13.813  17.754  28.228  0.1623  0.0842  0.0760
71560W        W72424  15.117   3.973  12.453 -0.1162  0.1546 -0.1670
71561W        W72425  11.338  13.299  28.531 -0.0699 -0.2418  0.0978
71562W        W72426  24.017  25.816  15.136 -0.1941  0.2587 -0.1589
71563W        W72427  18.431   3.787   4.267 -0.0200  0.0590  0.0172
71564W        W72428  28.253   7.104   5.628 -0.0009 -0.1510 -0.2067
71565W        W72429  22.475   0.172   3.173 -0.1700  0.1351  0.1571
71566W        W72430  15.072  22.689  12.270  0.2951 -0.0942  0.2595
71567W        W72431   4.610   8.832  17.205  0.1082 -0.0134 -0.3440
71568W        W72432   9.835  23.694  21.586 -0.0153 -0.0606  0.1770
71569W        W72433   7.547  17.167  20.705 -0.1350  0.0302  0.3856
71570W        W72434  10.990   7.072  26.450 -0.0881 -0.0675 -0.2617
71571W        W72435   9.128  23.914  26.694  0.2746 -0.1675 -0.3220
71572W        W72436  15.085  21.148  25.655 -0.1103  0.1578  0.1439
71573W        W72437  15.946   0.064  13.322  0.3401 -0.0839 -0.0681
71574W        W72438   6.530  16.704  23.409  0.0602 -0.0015  0.0179
71575W        W72439  24.955  20.117   4.508 -0.0895  0.0114 -0.1801
71576W        W72440   9.327  24.789  12.054 -0.2053 -0.0665 -0.1928
71577W        W72441  14.248   0.303   3.433  0.0300  0.2762  0.2508
71578W        W72442  20.563  13.220  11.193  0.0607  0.3802 -0.0632
71579W        W72443   4.375  11.420   2.442 -0.1753 -0.2055  0.0927
71580W        W72444  18.945  25.557  13.572  0.0187  0.0902 -0.0280
71581W        W72445   4.578  23.379  19.978  0.0869  0.1862  0.0746
71582W        W72446  17.874  10.194   8.275 -0.0752  0.0890 -0.0583
71583W        W72447   6.773  24.599  25.864 -0.3485 -0.3523  0.2802
71584W        W72448   4.092  12.843  25.288 -0.2490  0.0212 -0.1233
71585W        W72449   9.357  17.141  25.565 -0.0186  0.2321  0.2267
71586W        W72450  20.584   5.951  13.946 -0.0976  0.2665 -0.2492
71587W        W72451   7.992   0.840   0.950 -0.0777  0.2166 -0.0537
71588W        W72452   0.973  13.839  19.020 -0.1136 -0.0347 -0.0036
71589W        W72453  28.097  20.893   6.723  0.2098 -0.1437 -0.0754
71590W        W72454  16.891   3.048   0.164  0.4868  0.0875 -0.0406
71591W        W72455   2.572  24.778  27.966 -0.0584  0.1264 -0.0873
71592W        W72456   0.569   8.193   7.841 -0.0140 -0.0760  0.0384
71593W        W72457  14.513   3.498  17.712  0.0089 -0.0664  0.3184
71594W        W72458   5.051  20.333  23.446  0.0483 -0.2285 -0.1122
71595W        W72459  13.126  16.473  16.716 -0.0699  0.1330 -0.0918
71596W        W72460   6.359  13.331  26.334 -0.0128  0.1056 -0.4371
71597W        W72461   0.481  28.649   4.444  0.0332 -0.0697 -0.1739
71598W        W72462  23.857  20.430   8.163  0.2681  0.1092 -0.2967
71599W        W72463  20.148  15.662  16.938  0.1189  0.0405 -0.1106
71600W        W72464   3.639  28.531  23.428  0.0558 -0.1599  0.1535
71601W        W72465  25.970  18.134  11.059  0.0459  0.3242 -0.0896
71602W        W72466  16.196   0.966  18.823  0.2658  0.1532  0.1528
71603W        W72467  17.821  26.560  22.726  0.0871 -0.0162  0.2234
71604W        W72468  25.118   2.857   6.643  0.0991 -0.0900 -0.2054
71605W        W72469  26.808  22.475   9.778  0.2957  0.1507 -0.0471
71606W        W72470   8.457   2.727  18.907 -0.0459  0.0807  0.1323
71607W        W72471   8.544  27.310   3.669  0.0131 -0.2560 -0.0826
71608W        W72472  13.827   3.644  20.131  0.1151 -0.2836 -0.0245
71609W        W72473   2.955   1.177   6.537  0.1950  0.3415 -0.5082
71610W        W72474   8.425   1.814   9.768 -0.2819 -0.1226  0.0358
71611W        W72475  13.271  26.136   8.514  0.0929  0.6269  0.0638
71612W        W72476   0.723  14.577   4.786  0.3207  0.0556  0.0438
71613W        W72477  28.763   2.084  23.333 -0.1969 -0.0390  0.6026
71614W        W72478   3.789   8.330  21.668  0.1401 -0.0810  0.0795
71615W        W72479   7.823   6.548  25.231  0.1463  0.1347 -0.3736
71616W        W72480   2.344   1.672   2.866  0.1318 -0.1445  0.0344
71617W        W72481   6.560   4.939  28.280 -0.0220  0.0292 -0.2580
71618W        W72482  10.891   6.278  24.236 -0.1730  0.3667  0.0993
71619W        W72483  10.369  18.545  16.765  0.2013 -0.2447  0.0394
71620W        W72484   6.764  12.304  19.775  0.0993 -0.2638  0.0947
71621W        W72485   2.732  25.236  16.207 -0.1472 -0.1001 -0.1476
71622W        W72486  10.846  13.615   4.387  0.2532 -0.0543  0.1441
71623W        W72487   3.167   6.187  25.649 -0.1536  0.0551  0.1207
71624W        W72488   4.404  28.274  18.495 -0.3339  0.4273  0.1229
71625W        W72489  18.585  27.997   8.797  0.3226  0.2695  0.1772
71626W        W72490   9.481  28.132  15.170  0.1396  0.2170  0.2766
71627W        W72491   1.408  27.838   8.947 -0.0522 -0.0607  0.0305
71628W        W72492  21.818  15.729  17.456 -0.0406 -0.3165 -0.0484
71629W        W72493   7.453  27.544  14.007  0.1509  0.2322 -0.1654
71630W        W72494   4.415  26.654  17.370  0.0527 -0.0312 -0.3202
71631W        W72495   8.721  22.731   0.490  0.0446  0.1016  0.0207
71632W        W72496   2.906  16.758  16.344  0.1060  0.1885  0.0919
71633W        W72497  23.991  22.311   8.597 -0.0414 -0.2603  0.0834
71634W        W72498  20.955  16.072  27.732 -0.1066 -0.0850  0.2498
71635W        W72499   4.595  25.871  15.391  0.4225 -0.0021 -0.1651
71636W        W72500   1.513  27.817  17.672 -0.2435  0.3186  0.0814
71637W        W72501   8.287  29.119  14.317  0.1758  0.1628 -0.0276
71638W        W72502  11.991  13.093   2.879  0.0723  0.3043 -0.2697
71639W        W72503   5.624  22.538   2.191  0.0371  0.2077  0.1102
71640W        W72504  21.080  20.347   9.401 -0.2191  0.1671 -0.0072
71641W        W72505  24.891   8.850  15.180 -0.0253  0.2282 -0.0666
71642W        W72506  19.217   7.898   7.837  0.1648 -0.0982 -0.0252
71643W        W72507  18.165  14.690   9.724  0.1349 -0.0032  0.3042
71644W        W72508   2.005  22.472  21.823  0.0186  0.2345 -0.2301
71645W        W72509  14.462   9.879   7.713  0.2127 -0.4690 -0.1238
71646W        W72510  14.597  17.339  27.554  0.0594 -0.1323  0.0541
71647W        W72511  10.518   4.044   9.593  0.0328 -0.0040 -0.0537
71648W        W72512   9.604   2.104  17.965 -0.2124 -0.4081 -0.0084
71649W        W72513  10.460   4.096   9.098 -0.0659  0.0787 -0.0378
71650W        W72514   1.839  21.479  15.982  0.0662  0.1739  0.0371
71651W        W72515   3.356  28.261   9.228  0.0010 -0.0528 -0.0676
71652W        W72516   5.697  18.733   2.863  0.0996  0.4051  0.1913
71653W        W72517   9.622   9.905   0.378  0.1902  0.0903 -0.3703
71654W        W72518   0.547  27.471   8.027  0.1233 -0.1329  0.0403
71655W        W72519  16.205  19.145  16.976  0.1050  0.0193 -0.0123
71656W        W72520   7.718  26.608  21.067  0.1107 -0.1236 -0.2100
71657W        W72521  14.936  17.396  12.416  0.0350  0.2344  0.2797
71658W        W72522   8.225  14.356  13.882 -0.1469  0.0519  0.0725
71659W        W72523  16.478  28.970   5.451  0.2805  0.2831 -0.1142
71660W        W72524   6.253  20.657   8.890  0.0882 -0.0494  0.0059
71661W        W72525   6.293  10.756  15.949 -0.2696 -0.1690  0.1662
71662W        W72526  20.292  20.290  14.904  0.1248  0.1259 -0.1263
71663W        W72527  20.475  22.344   4.798  0.0843 -0.2604 -0.1327
71664W        W72528   2.172   0.379  27.300 -0.0615 -0.0352 -0.0290
71665W        W72529  14.844   7.576   8.285  0.2027  0.0060 -0.1929
71666W        W72530  11.516  27.793  20.184 -0.1939  0.0178 -0.1654
71667W        W72531  10.641  10.456  12.988  0.2048 -0.1581 -0.3965
71668W        W72532  12.519  26.812  20.168  0.0866 -0.0393 -0.0090
71669W        W72533   0.461  17.709  20.805  0.1773 -0.4530 -0.2123
71670W        W72534  20.772   9.336   9.722  0.3463  0.1708 -0.1729
71671W        W72535   2.938  27.980   1.951  0.1106 -0.2219 -0.1253
71672W        W72536  12.606  25.981  22.952 -0.3076  0.0928  0.1177
71673W        W72537   1.948  17.884  14.012 -0.0088 -0.1060  0.0938
71674W        W72538  26.716  20.219  17.807 -0.0278 -0.1986 -0.0734
71675W        W72539  26.897  24.558  12.576 -0.0686 -0.0750  0.0004
71676W        W72540  10.349  14.911  10.929 -0.0434 -0.0749 -0.1917
71677W        W72541  14.434  23.460  15.113 -0.4182  0.0574 -0.0031
71678W        W72542  29.117  26.151   6.267 -0.2220  0.0189  0.1366
71679W        W72543   5.713  13.354   7.869 -0.1791  0.0043 -0.0146
71680W        W72544   7.641  28.904   6.430  0.2726 -0.2800  0.0538
71681W        W72545  10.803  26.389  10.566  0.1664  0.0737 -0.0166
71682W        W72546  25.803  16.900  13.037 -0.3161  0.1926  0.0173
71683W        W72547   7.172  10.840  25.476  0.1791  0.1858 -0.2576
71684W        W72548   4.067  24.873   7.795  0.1000 -0.1697 -0.0405
71685W        W72549   1.378  20.580  25.951  0.1360 -0.2218  0.0453
71686W        W72550  24.934  21.516   8.370 -0.2484 -0.1052  0.1754
71687W        W72551   0.820  23.374   9.125  0.0010 -0.3008  0.2513
71688W        W72552   6.432  20.753  13.782  0.0253 -0.0879  0.0971
71689W        W72553   5.066  11.208  12.001  0.2294  0.2916  0.3623
71690W        W72554   3.396  27.162  17.242 -0.1482 -0.4527 -0.0886
71691W        W72555   0.041  17.817   8.554  0.0317  0.0331 -0.1195
71692W        W72556   0.940  22.291  22.013  0.2666 -0.3090  0.2468
71693W        W72557   9.751   1.070  22.540  0.0023  0.2364 -0.0896
71694W        W72558  10.438  24.655   8.916 -0.0036 -0.3385 -0.1141
71695W        W72559   2.664   7.012  28.337  0.0336 -0.1980 -0.2380
71696W        W72560  14.168   3.723   9.148  0.4440  0.1292  0.0570
71697W        W72561   0.965   9.836  19.467  0.1199 -0.3094  0.2931
71698W        W72562  17.880   5.526  24.848  0.0209  0.1328 -0.0122
71699W        W72563   3.319  20.722   7.320  0.2191 -0.2337 -0.0897
71700W        W72564  25.180  24.325   4.338 -0.0904  0.0195  0.0826
71701W        W72565  14.190   9.413  22.788 -0.0915 -0.0921  0.0343
71702W        W72566  18.439  18.961  10.634 -0.1449 -0.2940  0.0340
71703W        W72567   9.281  22.573   3.600  0.1648  0.3838  0.1471
71704W        W72568  18.794  20.589  18.878  0.1780 -0.0719 -0.1419
71705W        W72569   2.223  19.081  12.818 -0.0544  0.1784 -0.3051
71706W        W72570   6.249  24.066  28.331  0.3373  0.1003  0.0443
71707W        W72571  24.688   8.568  26.630  0.0619  0.1420  0.0326
71708W        W72572  14.621   1.045  19.626  0.2250  0.1884  0.3121
71709W        W72573   4.734  17.042   1.549  0.1071  0.1294 -0.0562
71710W        W72574   6.929   7.023   8.705  0.0663  0.1126  0.2474
71711W        W72575   7.878   2.465  19.590  0.3510 -0.3137 -0.0762
71712W        W72576  25.304   1.393  14.925 -0.0799  0.1960  0.1295
71713W        W72577   5.921   1.511  15.124  0.1603 -0.0113  0.2397
71714W        W72578  22.465   7.349  26.069  0.0065  0.0784 -0.0699
71715W        W72579   9.397  18.827  12.885  0.1844  0.0025  0.1146
71716W        W72580  23.700   6.274  24.976 -0.1405  0.0003  0.0203
71717W        W72581   5.948  12.749   1.489 -0.2380  0.2754 -0.0557
71718W        W72582  19.443  26.547  16.449  0.1398  0.0311 -0.0637
71719W        W72583   7.793  17.366   4.955 -0.0083 -0.1452 -0.0994
71720W        W72584  19.339  25.747   3.802  0.0841  0.0030 -0.0917
71721W        W72585  15.727  20.032  25.223  0.0999  0.1757 -0.2624
71722W        W72586   8.317  15.916  25.390  0.0500 -0.0365 -0.2746
71723W        W72587  16.373  24.577  14.775  0.2028  0.1700  0.2239
71724W        W72588  11.684   2.001   8.654  0.0292 -0.0477 -0.0216
71725W        W72589  24.572  26.697  18.343  0.1746  0.0402 -0.3771
71726W        W72590  19.805  13.525   4.880  0.0336  0.3284 -0.1843
71727W        W72591   4.088  18.177  26.945  0.0788 -0.3747 -0.2901
71728W        W72592   2.288  17.055  14.842  0.1165 -0.0148 -0.5899
71729W        W72593   6.713  21.131   9.866 -0.0751 -0.1005  0.0950
71730W        W72594  24.542   4.403  12.489 -0.3170 -0.0697  0.1066
71731W        W72595  18.574  20.878  23.387  0.1135  0.0632 -0.4809
71732W        W72596  20.238  14.378  18.147 -0.1293  0.0312  0.1531
71733W        W72597  11.327  16.478  17.926  0.1598  0.0114  0.0001
71734W        W72598  25.170  11.535  25.524 -0.1723  0.0615  0.1930
71735W        W72599  16.659  23.568  22.292  0.0787 -0.2778  0.0942
71736W        W72600  25.091   7.687   3.052  0.0425  0.1326 -0.2741
71737W        W72601  26.252  11.768  18.971 -0.0659  0.1182 -0.0261
71738W        W72602  12.831   0.476  13.150 -0.3483 -0.2274 -0.1802
71739W        W72603  17.529  18.840   5.495  0.1341  0.3671 -0.1527
71740W        W72604  18.832  28.892   8.072 -0.0492  0.2645  0.0296
71741W        W72605   6.541  18.975  10.507  0.1203 -0.1943  0.2029
71742W        W72606   5.188   4.720  16.999 -0.0201 -0.0294  0.0778
71743W        W72607   7.240  13.006  14.772  0.1168 -0.1915  0.2332
71744W        W72608   2.625   0.181   7.187  0.1037 -0.5121 -0.2296
71745W        W72609   8.831  20.262   0.401  0.1153  0.0867  0.2441
71746W        W72610  18.405  14.057  17.075 -0.2922  0.0152 -0.2663
71747W        W72611  15.426  27.012   8.279 -0.1034  0.0446  0.0322
71748W        W72612   3.592  17.180  10.818  0.1963  0.0330  0.2529
71749W        W72613  14.703   7.460  12.311  0.2167 -0.2216 -0.0751
71750W        W72614   5.729  28.652  11.162 -0.0232  0.3720 -0.0357
71751W        W72615   7.572  19.168  12.426  0.0173 -0.1655 -0.3021
71752W        W72616  22.815   4.377   8.935  0.1543 -0.0877  0.1561
71753W        W72617   4.456   7.812  18.486 -0.1750 -0.0187 -0.1215
71754W        W72618  26.676   7.554  11.615  0.3153  0.2034 -0.0172
71755W        W72619  26.368  24.026  16.211  0.0951 -0.3393  0.1795
71756W        W72620   4.723  21.380  14.645  0.1340 -0.0609  0.0516
71757W        W72621  16.190  11.342   9.518 -0.2148  0.0512  0.1150
71758W        W72622   7.725  12.870  15.533 -0.0185 -0.0854  0.0639
71759W        W72623  28.432   4.826  15.441  0.1695  0.1715  0.2604
71760W        W72624   8.753  16.755   0.463 -0.3784  0.0396 -0.0227
71761W        W72625  29.080  10.107   9.049 -0.1400 -0.1836 -0.2598
71762W        W72626  18.080  17.637  25.252  0.2014  0.1033  0.1583
71763W        W72627  17.832  21.897  14.551  0.1151  0.2381 -0.1111
71764W        W72628  24.739  26.284   7.473  0.0572  0.2091 -0.1053
71765W        W72629   7.416   0.693  19.701 -0.3690 -0.0079 -0.0096
71766W        W72630  10.291  18.635  14.958  0.0579 -0.2290  0.1186
71767W        W72631  15.614  16.711  24.032 -0.1265  0.0813 -0.1581
71768W        W72632  24.524  20.589  18.257 -0.2189  0.0341  0.1649
71769W        W72633  15.407  25.535   4.330 -0.1231 -0.3302 -0.0040
71770W        W72634   6.692   6.417   0.449  0.0176  0.0151  0.0727
71771W        W72635  24.459  20.848   8.864 -0.1056 -0.1266 -0.0641
71772W        W72636  27.794  24.492   7.759 -0.2537  0.0735 -0.1312
71773W        W72637   1.341  20.894  13.607  0.0459 -0.1300 -0.0265
71774W        W72638  15.595  11.277  27.803 -0.1583  0.1039 -0.0474
71775W        W72639  25.287  21.852   6.807  0.0230  0.0428 -0.2870
71776W        W72640   6.111  16.595  23.796 -0.2299  0.0241 -0.0818
71777W        W72641   6.357  18.316  22.526  0.1946 -0.0614 -0.0310
71778W        W72642  15.263   2.377  23.679 -0.1113  0.1328  0.1200
71779W        W72643  27.918  24.033   8.047  0.1656  0.1598 -0.0295
71780W        W72644  12.750  10.065  17.555  0.0751 -0.1878  0.0610
71781W        W72645  21.961  19.852  10.343  0.4050  0.0746 -0.1113
71782W        W72646  12.826  12.419   9.552 -0.2049  0.0045 -0.2412
71783W        W72647  25.756  18.195  13.725 -0.1018  0.0807  0.0035
71784W        W72648  20.171  11.688  14.019 -0.1439 -0.1057  0.3554
71785W        W72649  22.187   7.588  20.429 -0.0146  0.0628  0.0925
71786W        W72650  11.035   6.001  27.329  0.0435  0.0304 -0.1492
71787W        W72651   3.358   6.909  18.657  0.0864  0.2393 -0.0044
71788W        W72652  14.538   9.950  19.292  0.2892 -0.1617 -0.3287
71789W        W72653  28.752   2.164  22.304  0.1311 -0.3936 -0.0883
71790W        W72654  21.365  26.230   7.740 -0.3877 -0.0090  0.3667
71791W        W72655   9.421  18.129   6.209  0.0034 -0.1697  0.0108
71792W        W72656   6.352  17.216  25.178  0.0700 -0.0862  0.2011
71793W        W72657  12.546  28.084  16.135 -0.2290  0.0727  0.2072
71794W        W72658  14.542  25.345   9.794 -0.1347  0.0525 -0.0181
71795W        W72659  19.664  21.123   7.419  0.1217  0.0269  0.1007
71796W        W72660  20.698  21.658  25.350 -0.2749 -0.1612  0.1077
71797W        W72661   2.241  24.197  23.707 -0.0600 -0.1710 -0.1268
71798W        W72662  10.200   1.911   9.781  0.0087  0.2067 -0.3972
71799W        W72663  14.229   7.015  14.000 -0.2031 -0.1782 -0.3066
71800W        W72664  12.249  15.675  23.840 -0.0910  0.0744  0.2380
71801W        W72665  19.889  27.900  14.473 -0.1911  0.1148  0.1430
71802W        W72666  26.141   8.825  11.624  0.1654 -0.0920  0.1767
71803W        W72667  17.940   3.314  16.916  0.0149 -0.1381 -0.3744
71804W        W72668  22.351  26.419  26.011 -0.1402  0.0696  0.2540
71805W        W72669  24.691  26.769   2.076  0.2907 -0.1468 -0.1054
71806W        W72670   3.533  12.006   3.233 -0.1607  0.2304 -0.0704
71807W        W72671  27.832   1.391   7.410 -0.2865 -0.1133 -0.0027
71808W        W72672  20.220  28.665  27.298 -0.2766 -0.0232  0.1888
71809W        W72673  26.239  20.261  14.736 -0.0677  0.0483 -0.0390
71810W        W72674  22.251  26.285  10.355 -0.0890  0.2672  0.0091
71811W        W72675   9.909  20.817  11.359  0.3158  0.0982 -0.2471
71812W        W72676  14.840  14.108  20.810  0.0652  0.1663 -0.1889
71813W        W72677  24.426  25.530   8.288 -0.1685 -0.0207  0.0188
71814W        W72678  10.002  12.669  14.588 -0.1100 -0.3065  0.0017
71815W        W72679  21.087   7.206   1.170 -0.3785 -0.2040  0.1067
71816W        W72680  20.815   7.903  10.728 -0.1306  0.2124  0.1944
71817W        W72681   6.159   6.344   0.734  0.1279 -0.1316  0.3806
71818W        W72682   4.413  13.744   5.351  0.0002 -0.1115  0.3609
71819W        W72683  24.318  18.509  14.933 -0.0234 -0.0938  0.2320
71820W        W72684  12.649   0.096  10.144 -0.1100 -0.2665  0.0528
71821W        W72685  23.588  19.649  14.952  0.1056  0.0898  0.1354
71822W        W72686   1.227  20.998   2.965  0.1752  0.0806  0.1404
71823W        W72687  19.728   4.558   2.889  0.1330 -0.2513  0.1125
71824W        W72688  15.484  19.566   9.453  0.1387  0.1933 -0.4795
71825W        W72689  15.615  18.921   7.054 -0.1512 -0.0816 -0.1771
71826W        W72690  12.118  19.139  15.803 -0.0994  0.1491  0.3049
71827W        W72691  18.307  14.338  10.555  0.5553  0.0853  0.1960
71828W        W72692   6.001  25.691   2.993  0.0736 -0.1589 -0.1207
71829W        W72693  10.488  20.769   4.662  0.1519  0.0516  0.1326
71830W        W72694  19.659   5.780  12.149  0.2314  0.1335  0.1343
71831W        W72695  18.060  16.232  12.154  0.4313 -0.1591  0.2265
71832W        W72696  12.107  17.948   9.337  0.0121 -0.0343 -0.0494
71833W        W72697  27.214  14.700  22.943  0.0074  0.3512  0.0706
71834W        W72698  16.606  18.486   4.965 -0.2133  0.2210  0.0921
71835W        W72699   2.691  26.491   3.347 -0.1352  0.1094 -0.0538
71836W        W72700   8.360  14.716  18.886 -0.0071 -0.0699  0.3218
71837W        W72701  17.280   6.049  14.783  0.1103  0.0978 -0.0735
71838W        W72702  28.824  19.551  18.756  0.2985 -0.2444 -0.0439
71839W        W72703   9.991  21.919  15.295  0.2882  0.1453 -0.1026
71840W        W72704   4.025  10.121  17.558 -0.1334 -0.2531  0.0656
71841W        W72705   0.355  14.557  15.244 -0.0093 -0.3337  0.1875
71842W        W72706   0.510   5.837   2.882  0.2685  0.1247  0.0501
71843W        W72707   3.596  16.411  18.859 -0.1943 -0.1136  0.2134
71844W        W72708  13.074   7.422  16.213  0.0604 -0.0911 -0.4992
71845W        W72709   8.793   9.971   5.649 -0.0654 -0.0610 -0.1139
71846W        W72710   6.072  15.129  11.512 -0.1107  0.2731 -0.1870
71847W        W72711  22.482   3.990   8.808  0.1769  0.2740  0.0106
71848W        W72712  13.834  17.036  14.719  0.0944 -0.1175 -0.0064
71849W        W72713  27.185  10.336  10.536  0.2566 -0.1212 -0.0239
71850W        W72714  28.603  11.848  16.584  0.4027  0.1055  0.1056
71851W        W72715   8.215   7.087   6.326  0.0998  0.2201 -0.0533
71852W        W72716  12.318   8.110   8.953  0.0307 -0.2099 -0.0006
71853W        W72717   5.863  22.238  10.777 -0.0742  0.1012 -0.1104
71854W        W72718  26.364   9.664  11.006  0.3771  0.0116  0.0353
71855W        W72719   5.094  18.225   6.705  0.1661  0.0266  0.1262
71856W        W72720   2.889  12.040   9.834 -0.0005 -0.0374 -0.0577
71857W        W72721  11.226   0.663   2.185 -0.1707  0.2377  0.2599
71858W        W72722   0.477   9.224  24.450  0.0930  0.0590  0.0774
71859W        W72723   1.765   0.146  22.735 -0.1143  0.0378  0.0485
71860W        W72724  10.680  26.460  28.151  0.0887 -0.1504  0.1016
71861W        W72725  19.903  19.690  14.275  0.0139 -0.1435 -0.1800
71862W        W72726   7.992  15.498  20.492 -0.1561  0.0127 -0.0956
71863W        W72727  22.017  17.873  12.800  0.1632 -0.2190  0.4869
71864W        W72728  25.338  23.980   9.555 -0.0692 -0.1078  0.2546
71865W        W72729  17.380  26.862  11.716 -0.2150  0.2506 -0.1203
71866W        W72730   9.080  10.249  19.798 -0.1111  0.4594  0.0821
71867W        W72731  19.167   1.399   7.664 -0.3522 -0.2466 -0.0810
71868W        W72732  19.160  16.416   8.627  0.2691 -0.5367 -0.0898
71869W        W72733   7.653   7.530  15.711  0.3716  0.0666  0.2294
71870W        W72734  11.997  24.724  10.163 -0.2491 -0.0415 -0.1280
71871W        W72735  18.139   5.753   5.613  0.2615  0.1312  0.0222
71872W        W72736   8.495  18.343  15.915 -0.0190  0.2561 -0.1618
71873W        W72737  11.310  14.914   8.232  0.1909 -0.2815 -0.1609
71874W        W72738   6.139   7.999   5.254 -0.2663 -0.1328  0.0666
71875W        W72739  13.326  19.268   8.779 -0.0727  0.0802 -0.0567
71876W        W72740  13.470  14.734  23.237  0.0148 -0.1104  0.1577
71877W        W72741   8.491   0.029  16.276 -0.0936  0.2105 -0.1878
71878W        W72742   8.272  17.000   1.276  0.1359  0.0663  0.1461
71879W        W72743   8.269   4.237   8.909 -0.1364 -0.0471 -0.0295
71880W        W72744   6.082   5.952  28.025 -0.1580  0.1062  0.0294
71881W        W72745  20.949   8.769  10.521  0.0572  0.3191 -0.1270
71882W        W72746   7.000  18.396  18.382  0.3128 -0.2626 -0.1816
71883W        W72747   2.731  28.994  23.476  0.2184 -0.2441  0.1359
71884W        W72748   6.421   9.754   7.068 -0.0855 -0.1299 -0.1868
71885W        W72749  16.815  14.253  17.423 -0.1401 -0.1485 -0.1931
71886W        W72750   8.241   4.910  14.125 -0.2593 -0.0056 -0.0136
71887W        W72751  14.836  25.382  13.361 -0.1115  0.2890  0.0511
71888W        W72752  20.466  26.023  10.143 -0.0182 -0.2444  0.1683
71889W        W72753  23.563  21.572  10.836  0.0282  0.2050  0.3285
71890W        W72754  13.723  22.136   2.699 -0.1654 -0.0540  0.1902
71891W        W72755  12.954  17.917   8.563  0.1856 -0.1679  0.1579
71892W        W72756   3.546  16.826  14.130  0.0966 -0.0382 -0.4154
71893W        W72757  13.534  26.513  19.814  0.1815 -0.1371 -0.3376
71894W        W72758   8.844  20.788  13.746  0.1904 -0.0657  0.0715
71895W        W72759   7.468   1.217  16.658  0.0193 -0.0600 -0.1738
71896W        W72760  13.242  19.180  12.897 -0.2099  0.0038 -0.0821
71897W        W72761  15.876   2.348  18.391 -0.0547 -0.1092 -0.2051
71898W        W72762   7.509  23.689  15.803  0.2336 -0.2690 -0.2479
71899W        W72763  17.502  27.885  17.721 -0.0602 -0.0149  0.1151
71900W        W72764   2.797  13.259  22.411 -0.0056 -0.0306  0.1244
71901W        W72765   9.622   4.208   5.159  0.0829  0.2462 -0.2291
71902W        W72766  14.135  10.950  11.809  0.0158  0.1704  0.1190
71903W        W72767   7.549   3.615   0.086 -0.1213  0.2440 -0.3213
71904W        W72768  26.698  27.556  21.782 -0.3502 -0.0811 -0.3545
71905W        W72769  27.586   5.113  25.696 -0.1294 -0.3555  0.0799
71906W        W72770   0.242   0.220   8.749  0.1398 -0.0404 -0.0243
71907W        W72771  15.330  19.349   7.872 -0.3018 -0.0930  0.2221
71908W        W72772  13.548  13.534  27.979  0.0213  0.2466 -0.2148
71909W        W72773   4.633   7.807   9.688  0.1692 -0.0703  0.1870
71910W        W72774  16.568   2.506  23.135  0.1615  0.0882 -0.3209
71911W        W72775  11.613  12.941  12.059 -0.3856 -0.1944 -0.1984
71912W        W72776   8.799  22.441  25.539  0.1661 -0.1307  0.2633
71913W        W72777  11.515   4.466  24.729 -0.1072  0.0711 -0.0085
71914W        W72778  14.913   4.642  26.878  0.5535 -0.1135 -0.1725
71915W        W72779   4.574   1.836   5.916 -0.2578 -0.0027 -0.0251
71916W        W72780   6.215  11.074  24.700  0.0361  0.1588  0.0583
71917W        W72781   7.925   4.174   7.722  0.1519 -0.3829 -0.2966
71918W        W72782   7.822  23.260  23.193  0.0548  0.2548 -0.1288
71919W        W72783   1.456  18.117  13.896 -0.1615 -0.0132  0.2503
71920W        W72784   7.850  15.125  27.590  0.0282 -0.2836  0.1077
71921W        W72785  20.389  10.956  11.296  0.2396 -0.0024  0.3054
71922W        W72786  25.410  23.508  19.362 -0.2906  0.0664 -0.2138
71923W        W72787  23.858   2.632   8.023  0.4110 -0.1453 -0.0889
71924W        W72788  21.782   1.068  10.137 -0.3430  0.0251 -0.2182
71925W        W72789  17.919  19.706  24.516  0.0120  0.2895 -0.2487
71926W        W72790  14.684  27.864   7.164 -0.1592  0.3853 -0.1024
71927W        W72791   6.438  15.228  25.633  0.0964  0.1166 -0.0662
71928W        W72792  14.284  20.457  28.208 -0.1301 -0.0957  0.3538
71929W        W72793  19.689  25.475   7.242  0.1362  0.3131 -0.0192
71930W        W72794  12.385  19.810   9.210  0.0901  0.1196  0.1771
71931W        W72795  20.831  21.712  21.051  0.1435 -0.0979  0.2832
71932W        W72796  15.883  22.067   0.729 -0.2970 -0.0125 -0.3621
71933W        W72797  20.642  16.752   8.422  0.1773  0.0840 -0.1902
71934W        W72798  21.021  28.049  12.609  0.0956  0.1706 -0.0946
71935W        W72799   9.322   6.866   1.223 -0.0208  0.1459  0.0536
71936W        W72800  16.441  27.999  14.845  0.2983 -0.0739 -0.3145
71937W        W72801   3.547  12.006  16.417 -0.0236  0.2929  0.2290
71938W        W72802  11.112   7.674  19.812  0.1334  0.2684  0.3687
71939W        W72803  10.555  18.078  18.861  0.1056  0.1170  0.2017
71940W        W72804  13.890  19.245  12.835  0.0893  0.0013 -0.0976
71941W        W72805  15.448   5.327  20.444  0.2052  0.0630 -0.0254
71942W        W72806  14.496  22.351   8.966  0.2521  0.3006  0.0415
71943W        W72807  16.728  16.121   6.712 -0.0261 -0.2398  0.2998
71944W        W72808  26.629  25.697  22.368 -0.1061 -0.1132 -0.1820
71945W        W72809  27.278  26.087   8.634  0.2160 -0.0867 -0.0544
71946W        W72810   5.664   9.163  11.483  0.0440  0.1389 -0.1862
71947W        W72811  10.811   6.785  11.009 -0.2169  0.0723 -0.0521
71948W        W72812   9.412  22.625  13.938  0.1258  0.0811  0.3404
71949W        W72813  14.142   6.736  22.445  0.1748 -0.0497  0.3781
71950W        W72814  21.968  16.039  14.822 -0.0109 -0.1947  0.0089
71951W        W72815  12.985  24.298  16.420  0.1750 -0.0953 -0.0013
71952W        W72816  21.802   6.369   1.525  0.1637  0.4105  0.0272
71953W        W72817  12.669  20.376   5.114 -0.0778  0.1011  0.1669
71954W        W72818  13.709  24.432  23.682 -0.2272 -0.1172  0.1820
71955W        W72819  26.416  14.172   5.103  0.1697  0.0906  0.2258
71956W        W72820   3.221  16.027  10.808  0.0156  0.2868  0.0317
71957W        W72821  13.742  12.594   1.098 -0.1043 -0.0670 -0.1777
71958W        W72822   3.374  15.384  28.667 -0.1930  0.2081  0.0179
71959W        W72823  11.825  24.381  24.521  0.2475 -0.2255  0.1624
71960W        W72824  19.233   4.877  19.418 -0.1756 -0.0493  0.1060
71961W        W72825  27.444  25.011  20.161 -0.0589  0.1589 -0.1004
71962W        W72826   3.257  23.022  18.979 -0.1480 -0.1726 -0.0059
71963W        W72827  11.391  28.031  21.811  0.0082 -0.1077 -0.0441
71964W        W72828  19.343  23.919   2.074  0.1365 -0.0684  0.0574
71965W        W72829  13.316   0.785  15.860 -0.3688  0.2350  0.1240
71966W        W72830  19.370  18.111   1.321  0.1429 -0.1249 -0.1917
71967W        W72831   5.562   9.269   0.189 -0.1005  0.1369 -0.0472
71968W        W72832  13.940  19.412  12.318  0.5647 -0.1479  0.2384
71969W        W72833  12.429  27.786  10.752  0.0058 -0.2166  0.3122
71970W        W72834  17.111   6.579   2.176  0.0792 -0.0169 -0.1608
71971W        W72835  25.785  18.050   2.839 -0.1149  0.0621  0.0595
71972W        W72836  23.106   4.110  15.676  0.1310  0.1152  0.1540
71973W        W72837   3.956  21.307  12.843 -0.1725 -0.4584 -0.1031
71974W        W72838  16.652   6.579  10.498  0.0168  0.3710  0.2227
71975W        W72839  10.752  21.845  14.429 -0.3160 -0.1193 -0.3652
71976W        W72840  16.164   2.080  21.710  0.1276  0.1484  0.1354
71977W        W72841  11.205  20.896   6.105  0.0565  0.3499  0.2117
71978W        W72842  18.011  15.559   9.562  0.1127  0.1505 -0.1858
71979W        W72843  16.689   6.601  12.056  0.0105  0.2208 -0.2629
71980W        W72844  11.323  20.353  12.218 -0.1981 -0.0786 -0.0527
71981W        W72845   3.324  14.303   5.375  0.1072 -0.0249 -0.4840
71982W        W72846   9.229   8.894  24.959 -0.0154  0.1639 -0.0761
71983W        W72847  23.025  15.423  28.372  0.0792 -0.1401  0.0297
71984W        W72848  13.895  24.154  22.001 -0.0663 -0.2610  0.2601
71985W        W72849  25.267   5.347  28.736 -0.1000  0.0891 -0.0704
71986W        W72850   4.948   6.155   8.203 -0.1220 -0.2514  0.1445
71987W        W72851  28.425   3.515  20.462 -0.0425 -0.0533  0.1183
71988W        W72852   7.080  15.421  23.924  0.0464  0.1498 -0.2140
71989W        W72853  22.331  16.225   8.193  0.1160  0.0368 -0.1828
71990W        W72854  19.434  13.251  22.474 -0.4635 -0.1622  0.0009
71991W        W72855  20.863  16.239  20.695  0.1380  0.0391  0.4167
71992W        W72856  21.631   5.252  15.071 -0.0780 -0.0258  0.0052
71993W        W72857  27.026   8.582   8.937 -0.2925 -0.0125 -0.2393
71994W        W72858   3.919  22.034  27.532 -0.0556  0.2547 -0.2242
71995W        W72859  10.639  24.421  20.220  0.1159 -0.1639  0.0613
71996W        W72860  18.740  16.760   1.275 -0.2030 -0.1774 -0.0832
71997W        W72861  10.463  15.990   7.573  0.1446  0.1597  0.1304
71998W        W72862  17.409  17.457   5.472  0.0242  0.0840 -0.1645
71999W        W72863   7.639  13.959  20.243 -0.0212 -0.0715 -0.0258
72000W        W72864  15.008   2.187  22.724  0.0685 -0.2065  0.1187
72001W        W72865  13.574   1.640  19.632  0.2886 -0.0682  0.1966
72002W        W72866  16.565   4.101  20.863 -0.0074 -0.1562  0.0345
72003W        W72867   7.004   1.041  19.656 -0.0895  0.2821 -0.1620
72004W        W72868   3.534  13.695   9.336 -0.2680  0.0035  0.0217
72005W        W72869  23.065  28.588  20.308 -0.4313 -0.1944 -0.1449
72006W        W72870  11.313   2.750   0.706  0.0013 -0.1493 -0.0989
72007W        W72871   7.495   5.080  22.806 -0.0623 -0.0948  0.0400
72008W        W72872  20.508  26.119  22.135  0.0008  0.1752 -0.2001
72009W        W72873  16.109  23.817   4.696  0.1511  0.0865 -0.0776
72010W        W72874   7.804  22.264  12.728  0.2500 -0.0263  0.0469
72011W        W72875  11.362  25.742  11.925 -0.3998  0.2044 -0.1447
72012W        W72876   5.635   0.193  15.903 -0.1803 -0.0805 -0.0807
72013W        W72877  12.817  21.861  21.984  0.0642 -0.0240  0.1323
72014W        W72878  25.890   3.544  26.371 -0.1207  0.3429  0.0172
72015W        W72879   7.217  20.158  21.781 -0.1403  0.2856  0.0820
72016W        W72880  17.896   7.751   8.820 -0.1905 -0.1238 -0.1587
72017W        W72881  23.888  15.909  14.368 -0.0057 -0.1842 -0.1281
72018W        W72882   3.778  20.511  22.349  0.1958 -0.0313  0.1399
72019W        W72883   9.547  17.035  23.099 -0.1251  0.0860 -0.0009
72020W        W72884  16.008  11.088  23.171 -0.2257  0.4726  0.1298
72021W        W72885  18.507  25.832  18.285  0.0439  0.1661  0.2591
72022W        W72886  21.362  20.350   1.219 -0.2860  0.1810 -0.0145
72023W        W72887  22.557  26.499  16.951  0.3549 -0.1472  0.1875
72024W        W72888  22.273  22.534  11.810 -0.1679  0.1188 -0.0818
72025W        W72889   1.607  18.976  19.802 -0.0896  0.0169  0.5017
72026W        W72890  12.010   5.218   9.183 -0.0509  0.3340  0.2454
72027W        W72891  20.880   2.613  22.297 -0.0021  0.0791 -0.0862
72028W        W72892  24.617  21.098   8.498  0.0389 -0.1406  0.2388
72029W        W72893  13.773  14.785  20.965 -0.0893  0.1712  0.1811
72030W        W72894  18.888  17.201   0.363  0.0819 -0.1015  0.1554
72031W        W72895   4.619  25.864  17.885 -0.0950 -0.1247 -0.0845
72032W        W72896  23.481   9.650  12.975  0.0330 -0.2497 -0.0031
72033W        W72897  26.179  20.897  17.974  0.1755 -0.2344 -0.1064
72034W        W72898   6.117  15.002   6.348  0.0976  0.2449  0.1549
72035W        W72899  17.944  27.257  14.904  0.1209 -0.1329  0.3634
72036W        W72900   6.964  25.309   8.440  0.0698 -0.0323 -0.2000
72037W        W72901  14.580  18.542  27.635  0.1636  0.0403  0.1447
72038W        W72902  18.353  18.620  11.091  0.0225  0.3223  0.2483
72039W        W72903   3.883  24.913   3.805 -0.2151  0.1256  0.0529
72040W        W72904   8.427   7.294  24.097  0.1406 -0.2267 -0.0711
72041W        W72905  10.464   3.404  27.797 -0.0064 -0.0867 -0.1892
72042W        W72906  14.494  27.595  12.850  0.4136  0.0876 -0.0409
72043W        W72907  26.056  19.784  14.457 -0.0115  0.3544 -0.2515
72044W        W72908   2.129  10.181  28.620  0.0469 -0.0618  0.0512
72045W        W72909  28.124  14.250  21.655 -0.0432  0.0803 -0.0111
72046W        W72910  22.494   0.683   1.671  0.1203  0.1109 -0.0371
72047W        W72911  21.918  25.240   2.198  0.2709 -0.0472 -0.0110
72048W        W72912   1.207  14.624  10.181 -0.2097 -0.0526  0.1863
72049W        W72913   4.858  22.497   0.580  0.1552  0.2010  0.3032
72050W        W72914  11.475  19.582   5.783  0.0900 -0.0197  0.0335
72051W        W72915  25.678  12.681  15.392  0.0665 -0.0888  0.2598
72052W        W72916  11.268   6.267  25.387 -0.3036 -0.3137 -0.2681
72053W        W72917   8.581  26.963  14.430 -0.0730  0.0117  0.1755
72054W        W72918   7.221  23.225  20.331  0.0626 -0.1359 -0.1828
72055W        W72919   9.693  25.740  23.729  0.1572  0.1234 -0.1532
72056W        W72920  13.213  14.108   5.192 -0.0676 -0.1324  0.1916
72057W        W72921   9.690  19.037  17.682  0.0039  0.2450 -0.1208
72058W        W72922   9.690   9.549   9.950 -0.2753  0.0794  0.2162
72059W        W72923  22.307   0.224  11.806  0.2400  0.0781 -0.1163
72060W        W72924  15.367  23.325   4.660 -0.1108  0.1102  0.1388
72061W        W72925  26.855  20.249  19.165  0.1193 -0.1683 -0.3036
72062W        W72926  21.637   9.546  20.337  0.1429 -0.0105 -0.0313
72063W        W72927   3.410   5.581  13.219 -0.3491 -0.0198  0.1042
72064W        W72928  12.633  12.064   0.108 -0.2105  0.0511  0.3759
72065W        W72929   4.235  27.319   9.575  0.2719 -0.2715 -0.2646
72066W        W72930  27.993  17.926   0.790 -0.1803 -0.1145 -0.1224
72067W        W72931  18.106  17.998  17.165 -0.1917 -0.0551 -0.1246
72068W        W72932  19.405  20.807  22.355  0.1386 -0.3731 -0.1324
72069W        W72933  19.781   1.372   9.827 -0.2182 -0.1036 -0.0224
72070W        W72934  18.856  19.751  14.364  0.0404  0.1475 -0.0276
72071W        W72935  28.743   0.331  14.773  0.0963 -0.0074  0.0632
72072W        W72936   2.104  28.022   5.102 -0.0913 -0.0127 -0.1143
72073W        W72937  13.750  14.488   1.850  0.1339 -0.0494  0.3196
72074W        W72938   5.690  28.642  22.351 -0.1373 -0.3362  0.2130
72075W        W72939  14.255  28.117  15.241  0.2193  0.0591 -0.1370
72076W        W72940  14.083   0.197  12.158 -0.0070  0.0641 -0.2466
72077W        W72941   8.553   0.782   3.919  0.0371 -0.1434  0.1836
72078W        W72942  28.861  17.583  13.474  0.0096  0.1774  0.0369
72079W        W72943  19.083   6.104   7.814  0.5350 -0.1711 -0.4909
72080W        W72944  22.782   8.807   6.551 -0.2911  0.0604  0.3151
72081W        W72945  22.688   0.673  10.175  0.0744  0.0804  0.0443
72082W        W72946  27.777  19.055  19.431  0.1374 -0.0787 -0.4549
72083W        W72947  15.760  25.656  16.209  0.0082  0.1819  0.1396
72084W        W72948  12.030  22.905  20.181 -0.0416  0.0181 -0.0971
72085W        W72949  10.598   5.763  11.209 -0.2446  0.2132  0.1024
72086W        W72950  13.587   1.716  18.191 -0.0464  0.1518  0.0151
72087W        W72951  26.952  15.660   0.578 -0.3270  0.1152  0.0162
72088W        W72952   8.622  24.690  18.865  0.1078 -0.1138  0.1072
72089W        W72953   7.002  27.822  16.979  0.1399  0.0803  0.0975
72090W        W72954  11.314  29.025   9.248  0.0678 -0.0013  0.0735
72091W        W72955  14.377   4.303   4.567  0.0598 -0.3137 -0.0779
72092W        W72956  18.531  27.265  22.894  0.0598  0.1099 -0.1158
72093W        W72957  13.343   4.547  19.276  0.0451  0.1724 -0.0960
72094W        W72958   0.443  15.679  24.830 -0.1578  0.0094  0.0142
72095W        W72959  22.299  21.060  17.608  0.0647  0.0973  0.1832
72096W        W72960   8.333  12.460  25.941 -0.0970 -0.2590  0.1836
72097W        W72961  26.015  27.918  18.769  0.0573 -0.0902 -0.0063
72098W        W72962  21.246  20.603  16.280  0.0207 -0.0092 -0.2809
72099W        W72963   9.092  24.897   2.257 -0.0628  0.1042  0.3497
72100W        W72964   2.447  23.282  10.103 -0.0338 -0.0818 -0.1551
72101W        W72965  16.659  26.022  20.963  0.2058 -0.1387  0.0526
72102W        W72966   1.037   9.219   6.044  0.0069 -0.1636 -0.0868
72103W        W72967  13.451   6.741   5.537 -0.2082 -0.0313  0.1066
72104W        W72968  10.035  22.832  29.049 -0.1238 -0.0244  0.1140
72105W        W72969   5.003  11.340  15.619 -0.0947  0.0945  0.0026
72106W        W72970  11.308  18.625   0.765 -0.3107 -0.0252 -0.0719
72107W        W72971   9.195  25.574  16.067  0.2288 -0.2145 -0.1912
72108W        W72972  25.100   5.283  21.850  0.3550  0.0854 -0.0381
72109W        W72973  24.317  15.619   4.250  0.1394 -0.1013  0.1753
72110W        W72974  21.951  23.357   3.990 -0.1295 -0.0025  0.0650
72111W        W72975   8.235  16.290  12.707  0.0952 -0.1413  0.3100
72112W        W72976  12.570   8.313  24.750 -0.0164  0.1352 -0.2295
72113W        W72977  16.743   2.826  27.331  0.1114 -0.2467 -0.3473
72114W        W72978   8.002  27.312   8.315  0.0636  0.0529  0.1775
72115W        W72979  18.223  25.485  19.629 -0.0072 -0.0652  0.0885
72116W        W72980  25.858  26.105  15.102  0.2407  0.0323  0.0200
72117W        W72981  10.543   0.996   2.476  0.3530  0.1362 -0.0343
72118W        W72982   8.370   8.152  12.995 -0.2463 -0.0414 -0.3505
72119W        W72983   4.645   2.541  23.852 -0.1002  0.2073 -0.0733
72120W        W72984  16.674   3.433  19.313 -0.1798  0.1598 -0.0196
72121W        W72985  19.097   9.649  18.788  0.0472  0.1127  0.0778
72122W        W72986  27.351  11.196   4.312 -0.1854  0.2480  0.1453
72123W        W72987   0.425  28.859  25.145 -0.1067 -0.2023 -0.0699
72124W        W72988  18.383   2.260  26.266  0.3108  0.3790 -0.1198
72125W        W72989   0.559  26.692  14.507  0.1293 -0.0569 -0.2591
72126W        W72990  19.305  14.210  12.446  0.1863 -0.0823 -0.3146
72127W        W72991  16.845  20.214  19.384  0.0520 -0.1059  0.1822
72128W        W72992  11.180  14.448   8.806  0.1804 -0.0885  0.0783
72129W        W72993   1.363   8.032   7.561 -0.0258 -0.1034 -0.1790
72130W        W72994  10.671  13.266   9.081  0.0635 -0.1012  0.1397
72131W        W72995  20.982  18.230   1.500 -0.4200  0.1990 -0.2250
72132W        W72996   7.218  15.089  10.956 -0.2065  0.0988 -0.0694
72133W        W72997  28.991   1.665  23.575 -0.1883 -0.2521  0.2016
72134W        W72998   0.211   0.353   2.000  0.2366 -0.0673  0.1007
72135W        W72999  11.095   3.501  21.722  0.3901  0.1887 -0.1173
72136W        W73000  11.329   4.101   6.334  0.0327 -0.0610  0.1313
72137W        W73001  23.962  21.413  11.547 -0.2996  0.1019  0.2372
72138W        W73002   9.068  28.889  16.896 -0.1660  0.2499 -0.1794
72139W        W73003   6.079  21.961  10.358  0.1181  0.3548  0.0402
72140W        W73004  13.273   5.970  27.753  0.0696 -0.2870 -0.1555
72141W        W73005   1.941   8.306  26.989 -0.0461  0.1293  0.1673
72142W        W73006  20.919   7.879  16.959  0.3734  0.1455  0.1863
72143W        W73007  17.509  22.733  23.192  0.1608 -0.6313  0.2247
72144W        W73008  27.374  10.478   9.281  0.3111 -0.1126 -0.1340
72145W        W73009   9.578  16.648   3.885  0.0979  0.2038 -0.2483
72146W        W73010  15.753   0.676  11.167 -0.0445  0.3401 -0.2086
72147W        W73011   9.946  26.901  19.530 -0.3583 -0.1248 -0.0272
72148W        W73012   8.593  10.776   4.501  0.1047 -0.0609 -0.1044
72149W        W73013  23.634   1.089  16.906 -0.1005 -0.0223 -0.0272
72150W        W73014  11.175  27.217   4.385 -0.4318 -0.0006  0.2791
72151W        W73015  25.888   6.441  22.368 -0.1193  0.5045 -0.3581
72152W        W73016   9.807  22.979  27.206  0.2757  0.2480 -0.2276
72153W        W73017  16.802  20.079  13.163 -0.2718  0.0695 -0.0168
72154W        W73018   6.056   7.827  20.341 -0.1058 -0.0670  0.0458
72155W        W73019  14.488  18.466  17.688  0.0608  0.0614  0.1943
72156W        W73020   7.938  21.074  17.067 -0.5326 -0.2377 -0.2105
72157W        W73021  18.190  21.180  10.055 -0.2609  0.2688 -0.1588
72158W        W73022  27.311  17.678  13.292  0.0290 -0.0658  0.2848
72159W        W73023   0.052  24.105  19.109 -0.0203  0.0447  0.0721
72160W        W73024  23.011  13.567  20.122  0.1661  0.2055  0.0150
72161W        W73025  13.783  21.533   4.049  0.2068  0.0915 -0.0980
72162W        W73026  15.616  21.150  24.211 -0.0232 -0.0569 -0.2398
72163W        W73027   0.805   8.700  19.502  0.0167  0.0153 -0.1296
72164W        W73028  17.452  11.957  16.274 -0.1666  0.1864 -0.2194
72165W        W73029   9.886  23.645  13.405 -0.1921  0.0919  0.0037
72166W        W73030  27.297  20.520  22.052 -0.0033  0.1907 -0.2428
72167W        W73031   3.986  16.452  16.002  0.0644 -0.2228 -0.0889
72168W        W73032   8.850  17.120  15.742  0.0379  0.2736 -0.2816
72169W        W73033  27.569  27.320   8.348  0.1427  0.0600  0.1575
72170W        W73034   4.155  13.016  19.346 -0.2240 -0.0772  0.3190
72171W        W73035   2.951  25.050   1.929  0.1239  0.3959 -0.1267
72172W        W73036  22.253  17.976   0.587  0.0988  0.0800  0.0855
72173W        W73037   8.572   5.933  17.884  0.1977 -0.2026  0.1321
72174W        W73038  23.098  11.735  24.434  0.1164  0.0475  0.0976
72175W        W73039  26.621  23.751  27.566 -0.0429 -0.1113  0.0556
72176W        W73040   6.663  22.333  13.782  0.2430  0.0232  0.0439
72177W        W73041   9.702  22.691  26.444 -0.0820  0.0062  0.0748
72178W        W73042  14.745  10.281  23.876 -0.0197  0.0801  0.0769
72179W        W73043   7.392   4.082  15.267 -0.4120  0.3769  0.1911
72180W        W73044   7.273   5.728  15.739 -0.2059  0.1059 -0.0045
72181W        W73045  12.855  15.204  13.791  0.1347 -0.0604  0.3077
72182W        W73046  14.745  19.467  21.519  0.1692  0.1460  0.0700
72183W        W73047   7.510  18.966   3.017 -0.1343 -0.1987  0.0193
72184W        W73048   4.252  21.361  14.351  0.2792 -0.2414  0.1718
72185W        W73049  21.941   3.376   6.681  0.0076  0.0126  0.2105
72186W        W73050   1.447  24.505  22.093 -0.0424  0.1377 -0.0036
72187W        W73051  10.254  10.508  14.059 -0.1025 -0.1148  0.2977
72188W        W73052   4.898   7.592  13.035  0.0948  0.2023  0.1549
72189W        W73053   0.493  18.492  22.918  0.4128 -0.1542  0.0829
72190W        W73054  24.976  15.828  26.487  0.0450 -0.0222 -0.0077
72191W        W73055   8.183  11.442  14.436  0.0811  0.1198  0.1901
72192W        W73056  21.926  19.879  20.149  0.3990  0.2103  0.1104
72193W        W73057  26.208  11.531  21.151  0.2669  0.0155 -0.0736
72194W        W73058  13.926  24.829   4.763 -0.0085 -0.0135 -0.3731
72195W        W73059   1.530  12.294  21.342  0.3744  0.1499 -0.0111
72196W        W73060  26.442   2.895  20.785  0.0390 -0.0060 -0.1536
72197W        W73061  19.499  20.578   9.160 -0.1003  0.2671 -0.2073
72198W        W73062  13.713   4.972  22.472  0.0878 -0.2225  0.0695
72199W        W73063  11.985   6.587  16.373  0.2974 -0.0772 -0.3048
72200W        W73064  20.865   0.961  18.798 -0.0936  0.3809  0.1590
72201W        W73065  20.535   0.594  25.426 -0.0190  0.3181  0.2931
72202W        W73066  27.379   6.727  20.444 -0.1306 -0.0238  0.1037
72203W        W73067   9.765  27.952  13.250 -0.0966 -0.0207 -0.1975
72204W        W73068  13.985  11.996  18.510  0.2477 -0.1330 -0.0141
72205W        W73069   8.410   7.290  21.972 -0.0339 -0.3160  0.2761
72206W        W73070   5.127  10.680  10.768  0.1731 -0.1468  0.0830
72207W        W73071   3.713  23.999  27.495  0.0230 -0.2592 -0.0932
72208W        W73072   9.356  20.759   9.777 -0.1452  0.1398 -0.2081
72209W        W73073  16.342  25.484  19.652 -0.0215 -0.1062 -0.0125
72210W        W73074  25.535   2.671  16.509 -0.0374  0.0860  0.1903
72211W        W73075   1.207  22.513  27.639 -0.0622 -0.0457  0.1206
72212W        W73076   3.807   9.536  14.773 -0.0492  0.1126  0.1060
72213W        W73077  11.641   5.143   7.947  0.1271  0.1854  0.0275
72214W        W73078   8.994   3.786  26.934 -0.0475  0.1186 -0.1768
72215W        W73079   7.530   1.094  14.260 -0.1990  0.0579 -0.0055
72216W        W73080  15.074   3.093  17.031  0.1274  0.0739  0.2829
72217W        W73081  14.209  25.887  17.511  0.0463  0.2717  0.2370
72218W        W73082   0.946  21.296  25.002  0.0333 -0.0188  0.1539
72219W        W73083  27.695  14.790   0.724  0.1073  0.1401  0.0753
72220W        W73084  11.177  11.022  12.493  0.2551 -0.2263 -0.0274
72221W        W73085  27.881  27.400  16.165 -0.0994 -0.1691 -0.2675
72222W        W73086  26.306  26.307  12.037 -0.0488  0.1397  0.0241
72223W        W73087  21.793  23.279  18.097  0.2124  0.2282 -0.1513
72224W        W73088   4.489  26.331  13.554 -0.1259 -0.0603 -0.2409
72225W        W73089  16.447  16.838   2.520  0.0650  0.1278  0.2078
72226W        W73090  28.393  13.180  14.270  0.0523 -0.1322  0.0665
72227W        W73091  13.606   7.743  24.106  0.1146 -0.3955 -0.2554
72228W        W73092  26.589  14.758  15.040  0.1383  0.0199  0.2699
72229W        W73093  11.794  27.254  15.643  0.1807 -0.0137  0.2693
72230W        W73094  28.746  20.918  18.905  0.0655  0.0687  0.0159
72231W        W73095  19.828  25.758   1.484 -0.0160  0.2528 -0.0552
72232W        W73096  10.087   2.590  10.333 -0.1381 -0.0415  0.3822
72233W        W73097   2.396  26.804  11.436 -0.0130  0.0029  0.1715
72234W        W73098   1.836   1.677   9.716  0.1062  0.0031  0.1949
72235W        W73099  28.511   2.589  24.151  0.2265 -0.0523  0.2454
72236W        W73100  11.890   7.311  16.825 -0.0890  0.0088 -0.0892
72237W        W73101   5.394   5.271  19.989  0.0826  0.1877  0.2027
72238W        W73102   9.899   3.100  17.586  0.0817  0.0652  0.1765
72239W        W73103  25.559  10.480  14.083 -0.0982 -0.0456 -0.1295
72240W        W73104  24.008  11.176  18.358  0.2462  0.0138 -0.3589
72241W        W73105  24.141  15.362   9.499  0.2475  0.1321 -0.1029
72242W        W73106  20.412  28.635   1.238  0.1712 -0.3565 -0.4065
72243W        W73107  17.500  19.852  11.169  0.1145 -0.1956  0.0035
72244W        W73108  26.540  17.994  19.666 -0.1012  0.0260 -0.1620
72245W        W73109   1.029  26.150  10.255 -0.2194  0.2331 -0.0623
72246W        W73110   7.535   0.420  24.192 -0.0252  0.0879  0.1802
72247W        W73111  14.200   8.440   5.790 -0.0581 -0.1837  0.0795
72248W        W73112  16.002  27.325  25.098  0.1759  0.1209 -0.0179
72249W        W73113  16.983  19.263   0.438 -0.2456 -0.0322  0.3481
72250W        W73114  16.083  19.699  15.388 -0.2106  0.0041 -0.1868
72251W        W73115   9.846  21.182   0.803 -0.1911  0.0934 -0.0664
72252W        W73116  13.267  11.289  24.218  0.0456  0.0427  0.0005
72253W        W73117   4.064  18.689  25.731  0.1489  0.1588 -0.2268
72254W        W73118  26.796   6.316   6.011 -0.2361 -0.1386 -0.0949
72255W        W73119  10.352   2.128  21.028  0.2978 -0.1352 -0.1491
72256W        W73120  13.418   9.730  21.625  0.0541 -0.0324 -0.0188
72257W        W73121  17.814  22.645  20.420  0.1371  0.0561  0.0646
72258W        W73122   7.459  20.295  22.537 -0.4290 -0.0593  0.1904
72259W        W73123  11.604  28.533  18.929  0.0097 -0.2137 -0.1941
72260W        W73124   6.847   7.493  19.586  0.0424 -0.1271  0.0247
72261W        W73125   0.390  27.531   0.487  0.1754  0.3342 -0.0526
72262W        W73126  11.308  11.972  11.966  0.1841  0.1988 -0.2603
72263W        W73127   0.090  17.866  13.682 -0.0890  0.0257  0.0223
72264W        W73128  12.844  20.645  29.102 -0.3351  0.0021 -0.0016
72265W        W73129  19.468  21.416  11.736  0.4151  0.1682  0.1569
72266W        W73130  17.914  17.938   3.185 -0.1608  0.1376  0.2110
72267W        W73131  10.343  11.161  14.830  0.0295  0.2760  0.4799
72268W        W73132  21.296   7.485  27.183  0.0771  0.0131  0.0727
72269W        W73133  26.400  26.801  24.999 -0.0226  0.1435 -0.2521
72270W        W73134  19.129   4.073  15.032 -0.2704  0.2392  0.2143
72271W        W73135  11.847   9.014  19.620 -0.0784 -0.1270  0.1282
72272W        W73136  23.255   1.373  14.486  0.3567  0.3252 -0.1382
72273W        W73137  29.006  12.181  26.228 -0.1691  0.0183  0.2679
72274W        W73138   0.605  10.162   0.977 -0.2675  0.0026 -0.0314
72275W        W73139  20.260  28.553  26.374  0.0803 -0.1026  0.0418
72276W        W73140  19.564   1.189  18.830  0.1416  0.0360  0.3028
72277W        W73141  14.901   6.161  23.638 -0.1856  0.2574 -0.1623
72278W        W73142  19.767  19.454  18.902 -0.3502 -0.3256 -0.0163
72279W        W73143  24.282  17.676  15.585  0.1507  0.3355 -0.0193
72280W        W73144   2.333  12.966  20.372 -0.3619 -0.0043  0.2066
72281W        W73145   3.410  26.974  20.528 -0.2237  0.0492  0.2750
72282W        W73146   9.538  19.686   9.528  0.0340  0.0184  0.1881
72283W        W73147  29.006  28.918   2.314 -0.0804 -0.2500  0.1145
72284W        W73148   8.578   3.433   7.839 -0.0501  0.1640 -0.0976
72285W        W73149  11.033  22.748  20.035 -0.0916 -0.1259 -0.0629
72286W        W73150  14.992  10.155  22.046  0.2663 -0.1772 -0.1259
72287W        W73151  12.627  22.165  17.045 -0.0596  0.3538  0.0480
72288W        W73152   6.488   7.358  18.745 -0.0041  0.0460  0.1572
72289W        W73153  26.737  25.445  18.188 -0.0606 -0.2990 -0.1143
72290W        W73154   8.470  26.362   3.808 -0.2745 -0.2080  0.1323
72291W        W73155  27.572   2.372  19.591  0.0857 -0.4490 -0.0304
72292W        W73156  13.659  12.190  22.310  0.2658 -0.2448 -0.0417
72293W        W73157   8.588  16.786   9.392 -0.0478  0.1526  0.3353
72294W        W73158  20.684   9.075   3.325  0.0073 -0.2184  0.0435
72295W        W73159  10.697  11.546   4.758  0.2879 -0.0051  0.0440
72296W        W73160  16.516  17.594  16.363  0.0579  0.0390  0.1168
72297W        W73161   0.167  14.488  23.472 -0.1723 -0.1556  0.1775
72298W        W73162  19.380   1.417  21.903  0.0594 -0.0688 -0.0985
72299W        W73163   3.698  26.873  15.273 -0.0475  0.0349  0.0592
72300W        W73164   2.713  18.638  16.143 -0.1063  0.1078  0.0161
72301W        W73165  22.716  24.611  26.606  0.2742  0.1175 -0.0454
72302W        W73166  13.352  21.950   7.433  0.0316  0.1776 -0.3673
72303W        W73167  22.526  23.792   9.279 -0.3057  0.0786 -0.1266
72304W        W73168  13.607  25.999  16.129  0.4515 -0.0007 -0.2959
72305W        W73169  14.111  24.164  26.164 -0.3084  0.0334  0.1078
72306W        W73170  22.674   9.528  21.531  0.2368  0.0566 -0.2702
72307W        W73171  12.265  25.796   3.107 -0.0024 -0.0509  0.1250
72308W        W73172  10.327  21.032  17.726 -0.2759  0.1229  0.0149
72309W        W73173   9.898  24.165   6.439 -0.1231  0.2022 -0.0356
72310W        W73174  27.509  22.966  11.792  0.0589 -0.0502  0.1998
72311W        W73175   4.383   1.856  13.779  0.0259 -0.2122  0.2195
72312W        W73176   1.682  16.828  17.751 -0.0018  0.1106 -0.1865
72313W        W73177  11.350  27.580  17.823 -0.2183  0.2079  0.0119
72314W        W73178   6.462  11.064  17.246  0.2141  0.1023  0.3152
72315W        W73179  22.909  26.517  13.787 -0.2670  0.0405 -0.1849
72316W        W73180   3.263  28.073  27.573  0.0436  0.2511  0.0064
72317W        W73181   5.015  20.379  15.587  0.3320  0.1831  0.0413
72318W        W73182   2.194  11.728   6.381 -0.2386 -0.1698  0.4788
72319W        W73183   5.373  17.490  13.244  0.0313  0.2324  0.6207
72320W        W73184  15.635   1.596  15.400 -0.0145 -0.1083 -0.0380
72321W        W73185   8.242  15.484  19.460 -0.0462  0.1308  0.0108
72322W        W73186  27.375  21.934  13.064 -0.2013  0.1878  0.2356
72323W        W73187   2.460   9.316   6.453 -0.3918  0.1428 -0.0950
72324W        W73188  18.258  17.216   2.955  0.4427  0.1027  0.2193
72325W        W73189  28.102  16.963  22.191 -0.1575 -0.0065 -0.0557
72326W        W73190   9.337  16.660  25.738  0.0347 -0.5770 -0.0572
72327W        W73191  13.562  20.361  15.300  0.2231 -0.4577  0.2971
72328W        W73192  10.544  22.773  19.396  0.2775 -0.2347 -0.1665
72329W        W73193  16.991  19.610  16.074 -0.1981  0.0431 -0.3015
72330W        W73194  17.845  22.169  28.160  0.0389 -0.0723  0.0460
72331W        W73195  22.260  20.632  21.496 -0.0625 -0.0077  0.0467
72332W        W73196  12.756  28.657  10.878  0.0367 -0.0772  0.0597
72333W        W73197   8.628  17.852   8.827  0.1995  0.0250 -0.0189
72334W        W73198  15.819  26.019  11.371  0.0789  0.1259  0.1181
72335W        W73199   6.752  17.322   4.804  0.0666  0.0391 -0.0434
72336W        W73200   3.933  22.190   5.113  0.1562 -0.0100  0.0040
72337W        W73201  22.336   2.177  19.345  0.2897 -0.0520 -0.2499
72338W        W73202  16.960  27.737  13.963 -0.0234 -0.1776  0.0014
72339W        W73203   4.325  14.821  16.644  0.1371 -0.1494  0.0122
72340W        W73204  13.484   0.014   4.486 -0.3087 -0.0275  0.1066
72341W        W73205  18.416   1.895  27.935 -0.1980 -0.0418  0.0353
72342W        W73206  11.920   3.859  17.737  0.2490 -0.0521  0.0887
72343W        W73207  11.195   1.698  20.386 -0.1340 -0.0260 -0.3679
72344W        W73208  12.749  25.979   8.974 -0.1310  0.2137 -0.0815
72345W        W73209   4.690  13.682  19.440  0.3510  0.0414  0.0376
72346W        W73210  19.994   2.871  28.209 -0.0277 -0.0324  0.1458
72347W        W73211  16.794  18.328  19.739  0.1326 -0.3746  0.0204
72348W        W73212  18.544   9.712   4.690 -0.2862 -0.0711 -0.0247
72349W        W73213  24.042  25.197   7.970 -0.5161  0.0734  0.0859
72350W        W73214  10.944   9.871  27.037  0.0342 -0.2716 -0.1906
72351W        W73215   2.505  16.095  20.423  0.1823 -0.0411 -0.0537
72352W        W73216  24.003   1.315  21.808 -0.1687 -0.0704 -0.0608
72353W        W73217  26.257  14.364  18.803  0.0987  0.0320 -0.2652
72354W        W73218   4.540   8.767  15.206  0.2685 -0.4285  0.1269
72355W        W73219  12.016  10.225  14.545 -0.0636 -0.0126  0.0203
72356W        W73220  21.921  22.573  14.389  0.0541 -0.0660 -0.0462
72357W        W73221   6.499  17.725  28.569 -0.0779  0.1200 -0.0150
72358W        W73222  27.879  18.735  17.136 -0.1523 -0.1170 -0.1584
72359W        W73223   3.614  23.494  18.883  0.0175  0.1378  0.2189
72360W        W73224   1.213   0.757  23.010 -0.0737 -0.1540 -0.2442
72361W        W73225  16.793  23.907  12.874  0.0515 -0.1044 -0.0198
72362W        W73226  10.605   5.518   4.905 -0.1308  0.0175 -0.0375
72363W        W73227   6.321  24.998   5.723  0.1629 -0.2181 -0.1470
72364W        W73228  28.223   0.276  16.387 -0.1682 -0.4010  0.0546
72365W        W73229  13.089  20.802  12.052 -0.0528 -0.1883  0.2122
72366W        W73230  19.686  22.570  12.958  0.0544  0.2369 -0.0351
72367W        W73231  21.920  20.422  21.765  0.0631  0.2501  0.0052
72368W        W73232   6.489   9.585  17.635 -0.1325  0.1456  0.4307
72369W        W73233   4.462   1.150  13.213 -0.0498 -0.1725  0.3549
72370W        W73234  12.504  20.953   9.976  0.1359 -0.0660  0.3693
72371W        W73235   4.163   3.452  24.415  0.0597  0.1225 -0.2651
72372W        W73236  14.095  22.086   8.025 -0.1748 -0.3841 -0.1203
72373W        W73237   2.874  16.296  20.122  0.1839  0.1799  0.2794
72374W        W73238  20.591  18.062  22.168 -0.0142 -0.1358  0.1168
72375W        W73239  20.594   3.652  23.409  0.0609 -0.1316  0.3856
72376W        W73240  22.711  17.576  23.814  0.1268 -0.2511  0.0751
72377W        W73241  13.819  18.141   1.723  0.0713  0.2234 -0.0847
72378W        W73242  23.935  21.655   1.607  0.0303 -0.3810  0.0942
72379W        W73243   1.373  28.381  14.879  0.1665  0.3169  0.1739
72380W        W73244  11.992  27.764  11.041 -0.1348 -0.0593  0.1357
72381W        W73245  18.086   8.339  21.206 -0.2873 -0.2883 -0.1359
72382W        W73246  23.127   9.840   6.240 -0.0689  0.0439  0.1505
72383W        W73247  19.271   3.459  16.465  0.0584  0.1265  0.0563
72384W        W73248  21.557  17.581   9.889  0.2079 -0.0181 -0.2148
72385W        W73249   5.092   3.237  23.271  0.1644  0.0524  0.2624
72386W        W73250   8.833   4.966   9.138  0.0464  0.0934  0.0771
72387W        W73251   7.075  16.605  25.688 -0.1287 -0.1589  0.1328
72388W        W73252  10.576   9.075  23.319  0.1892  0.0752 -0.0078
72389W        W73253  15.406  11.115  16.512 -0.0680  0.3198 -0.0411
72390W        W73254  26.893  13.831  15.989 -0.0817  0.1633 -0.2702
72391W        W73255  11.724  22.646   9.391  0.3044  0.0685 -0.0907
72392W        W73256  21.710  21.551  15.375 -0.0897 -0.1971  0.1988
72393W        W73257  10.601   2.641   7.524  0.3865  0.0037  0.0031
72394W        W73258   9.735  22.651  27.987  0.0036 -0.1611  0.0390
72395W        W73259  19.008   7.665   2.776 -0.0734 -0.0849 -0.3091
72396W        W73260  26.310  11.877  15.056  0.0747  0.0237  0.0254
72397W        W73261   8.841  21.331  12.252 -0.0793 -0.0431  0.3661
72398W        W73262  15.986  12.461   9.674 -0.0477  0.2430 -0.0471
72399W        W73263   8.302  18.282  11.559  0.0823 -0.0306  0.3461
72400W        W73264   0.258   2.738  17.957  0.4294  0.1813 -0.0779
72401W        W73265   7.196   0.691   0.343  0.0732 -0.0819 -0.1043
72402W        W73266  19.118  16.300   6.255  0.2251 -0.0120 -0.0865
72403W        W73267  24.578   5.191  15.554 -0.1499 -0.0177  0.1034
72404W        W73268  10.840   9.542  19.802  0.0469 -0.2910  0.2848
72405W        W73269   7.958  22.983  22.202 -0.2869 -0.3278  0.0512
72406W        W73270  17.050   1.644  29.019 -0.2356  0.0684 -0.0339
72407W        W73271  24.229  26.244   1.626 -0.1607  0.1296  0.1670
72408W        W73272  19.871  24.769   2.660  0.2780  0.1722 -0.0170
72409W        W73273  24.218  10.646  16.162  0.1144  0.2881  0.0260
72410W        W73274  12.951  28.958  23.209 -0.2348 -0.1258 -0.3835
72411W        W73275   7.075   5.479   4.750  0.0021  0.1286  0.0398
72412W        W73276   5.614  28.539  21.140  0.0483  0.2423 -0.0253
72413W        W73277  15.324   4.644   3.666 -0.0271  0.0547 -0.0716
72414W        W73278  24.467  20.273  13.348 -0.0473  0.2045  0.2988
72415W        W73279  22.329   2.489  13.169 -0.0240  0.1440 -0.0364
72416W        W73280   3.170  23.844  18.810  0.2639  0.0967  0.2415
72417W        W73281  28.289  14.503  20.800 -0.2245 -0.1762 -0.3021
72418W        W73282  13.399   1.409  25.278 -0.0739  0.2408  0.0179
72419W        W73283  14.493  19.225   8.507 -0.1988 -0.0988 -0.1065
72420W        W73284   6.327  10.295  25.328  0.1303 -0.2902 -0.2458
72421W        W73285  25.896  15.834   9.275 -0.1608  0.2079  0.1542
72422W        W73286   0.640  20.496  20.068 -0.1810  0.0307  0.0371
72423W        W73287   9.246  10.076   5.938 -0.3080  0.3496 -0.3507
72424W        W73288  14.466   5.963  22.846 -0.0570  0.2182 -0.1772
72425W        W73289  18.226   5.228   7.265  0.4523 -0.0301  0.1773
72426W        W73290   9.283  13.884  15.703 -0.1924 -0.2967  0.1065
72427W        W73291  24.280  13.259  16.453  0.0233 -0.0430 -0.1074
72428W        W73292   0.089  22.004  14.324 -0.1538 -0.2080  0.2860
72429W        W73293  13.226  25.728  23.551  0.1734 -0.0789 -0.0316
72430W        W73294  10.969  29.059   6.748 -0.1485 -0.2129  0.3734
72431W        W73295  14.675  10.616  22.037 -0.1226  0.1181  0.0080
72432W        W73296  18.732  21.448  12.449  0.0503 -0.1763  0.2272
72433W        W73297   7.262  21.201  21.299 -0.2944  0.1090  0.1634
72434W        W73298   8.045  16.876  13.480  0.1479  0.2162  0.2094
72435W        W73299  11.837  16.738  21.115 -0.0707  0.1999  0.1576
72436W        W73300   9.669  16.468  20.388  0.1169 -0.0513  0.4032
72437W        W73301  13.868  14.086  13.835 -0.0494  0.2549  0.4101
72438W        W73302  16.266  25.872  12.410 -0.0947  0.0059  0.1177
72439W        W73303   5.405   5.241   1.554  0.0271 -0.3422 -0.1625
72440W        W73304  23.231   4.024  26.669  0.1555 -0.3176  0.0296
72441W        W73305  27.177  18.207  22.749 -0.0247  0.1991  0.1927
72442W        W73306  16.170  22.865  27.154  0.0657 -0.0023 -0.2951
72443W        W73307  24.820  25.767  11.785 -0.2714 -0.0460 -0.2381
72444W        W73308  25.284   1.271  17.493  0.0627  0.0112  0.0643
72445W        W73309   7.661   6.814   9.092  0.0942  0.0327  0.3455
72446W        W73310  18.061   1.215  16.904  0.0357  0.1866  0.1692
72447W        W73311  19.784   3.735  16.221 -0.0384 -0.2228  0.1745
72448W        W73312  11.460   7.097   4.324 -0.2516 -0.0246  0.0724
72449W        W73313  16.624  15.538   4.928 -0.2971  0.3214 -0.0198
72450W        W73314  12.465  19.071  11.045 -0.0998 -0.0254  0.0774
72451W        W73315  13.238   8.858  17.486  0.3929 -0.1756  0.1227
72452W        W73316  14.179  27.157  16.863  0.1787  0.0621  0.1435
72453W        W73317  25.347  24.043  20.263 -0.1839  0.1649  0.0959
72454W        W73318   8.521  16.024   1.045  0.0464 -0.1112  0.1068
72455W        W73319  19.799  11.105  26.667  0.1959  0.1807  0.0676
72456W        W73320   9.599  11.777  24.459  0.0413  0.4492  0.1665
72457W        W73321  11.753  11.048  13.856  0.1232  0.2805 -0.0583
72458W        W73322  19.156  25.966  12.559  0.1403 -0.2273 -0.1701
72459W        W73323   3.194  25.617  25.407  0.1089 -0.0117  0.1235
72460W        W73324   6.197  17.101   7.455 -0.1004  0.1935 -0.1288
72461W        W73325  16.803  28.408  28.494 -0.2768 -0.0235 -0.1647
72462W        W73326  22.282  20.536   2.568 -0.1541  0.5051  0.1046
72463W        W73327  10.975  20.765  28.736 -0.0812  0.2301  0.0634
72464W        W73328   4.844  21.626  25.238 -0.2294 -0.0737  0.0415
72465W        W73329   8.234  10.313  18.646  0.0648  0.1712 -0.0145
72466W        W73330   1.335  11.207   5.200  0.1216 -0.3307  0.1940
72467W        W73331  28.205  23.127   0.086  0.0536 -0.2536 -0.0399
72468W        W73332  19.144  27.138  23.937  0.0892  0.0946  0.3262
72469W        W73333   2.416  12.722   2.888  0.0186 -0.1280  0.1374
72470W        W73334  15.620   2.581   6.101  0.1435 -0.0185  0.0935
72471W        W73335  11.135  11.014  22.111 -0.0517  0.0868 -0.2384
72472W        W73336   3.875  20.958   4.237 -0.1111 -0.2286 -0.2957
72473W        W73337  17.515  18.388   8.179 -0.0515  0.0299  0.4273
72474W        W73338  10.407   3.422  20.455  0.1444  0.1052 -0.0170
72475W        W73339  28.253   2.905  12.856 -0.3641  0.3193 -0.0870
72476W        W73340   0.939   5.264  16.674  0.0573  0.2908 -0.0498
72477W        W73341  19.094  22.922  24.998  0.1152 -0.0467 -0.3219
72478W        W73342  26.932  18.266   9.225  0.4049  0.0831 -0.1042
72479W        W73343  10.329  12.322  13.385  0.1089  0.2487 -0.0472
72480W        W73344  17.769  10.389   4.783 -0.2144  0.0174 -0.2735
72481W        W73345  15.923  22.035  13.698  0.1168 -0.1191  0.8092
72482W        W73346  28.936  25.852  15.950 -0.0075 -0.2785 -0.1080
72483W        W73347   3.125  20.460  18.317 -0.1023 -0.0632  0.1642
72484W        W73348  12.895  21.608  23.398 -0.0146 -0.1254 -0.1793
72485W        W73349   9.651  14.640  15.848  0.0465  0.3101  0.1328
72486W        W73350   8.947  14.550  17.079  0.0041  0.2512  0.1622
72487W        W73351  14.496  22.995  19.767  0.0933 -0.2046 -0.0934
72488W        W73352  26.090  15.466  13.515 -0.2055  0.0977 -0.0803
72489W        W73353  15.366  22.932  12.559 -0.0701  0.2469 -0.0287
72490W        W73354  14.670   1.810  23.261  0.2061  0.0284  0.0153
72491W        W73355   5.565  19.148  13.707  0.2315  0.0138  0.2434
72492W        W73356  16.250  15.476  12.215 -0.0435  0.2471 -0.0772
72493W        W73357  12.801   6.687  16.918  0.0293  0.0620  0.0987
72494W        W73358   4.906  20.601  14.472 -0.2205 -0.1791 -0.4289
72495W        W73359  10.864   9.393  23.550  0.2489  0.0362  0.1062
72496W        W73360   3.469  17.886  13.151  0.0910 -0.2631 -0.2201
72497W        W73361   7.339  25.179   8.925 -0.1134 -0.1794 -0.2309
72498W        W73362   1.066   4.775  16.924  0.3384  0.0587  0.2217
72499W        W73363   7.926  10.317  12.448  0.0016 -0.0580 -0.4868
72500W        W73364  18.044  16.121  16.904 -0.0833  0.2609 -0.0880
72501W        W73365  17.406  18.010  13.727 -0.0864  0.3702 -0.0372
72502W        W73366   2.893  22.523  19.555  0.1379  0.1323  0.0391
72503W        W73367   4.642  23.332  11.382  0.2117  0.2395 -0.0900
72504W        W73368  26.763   2.567  21.290  0.1373 -0.0375 -0.4643
72505W        W73369   4.079   7.316   1.206 -0.0557  0.2249 -0.1182
72506W        W73370   5.788  11.058  11.518  0.0049 -0.0845 -0.1046
72507W        W73371   3.233  21.512  13.014  0.3398 -0.1571  0.0230
72508W        W73372  19.040   0.293   9.641  0.0522 -0.1049 -0.3898
72509W        W73373  15.668  20.719  14.825  0.1099  0.0683 -0.0709
72510W        W73374   7.854  14.825  11.624 -0.1831  0.3085 -0.1552
72511W        W73375  22.914  25.551   2.505 -0.1018  0.1239  0.2033
72512W        W73376   2.699  23.342  22.585 -0.1131  0.0008 -0.0952
72513W        W73377   8.006  15.923   6.496  0.0047  0.2518  0.0111
72514W        W73378   4.936   2.199  18.448  0.2062  0.0796  0.0114
72515W        W73379   4.216   7.592  24.098 -0.2482 -0.0713  0.0651
72516W        W73380  13.247   4.517   3.060 -0.0832  0.1566 -0.1687
72517W        W73381  21.974  26.672  20.178  0.0032 -0.0833  0.1544
72518W        W73382  26.808   3.634  26.319  0.1434  0.0751  0.1306
72519W        W73383  21.030  21.710  12.341  0.2629 -0.0476 -0.1994
72520W        W73384   7.222  17.805  21.325 -0.1251 -0.1304  0.0463
72521W        W73385   2.723  12.626  20.583  0.2968  0.1064 -0.2498
72522W        W73386  18.531  28.612   2.051  0.2946  0.1017 -0.2044
72523W        W73387   4.484   2.216  19.764 -0.2125  0.1800 -0.1183
72524W        W73388  20.133  14.827   2.463  0.1109 -0.3438 -0.1741
72525W        W73389  20.138   9.038  17.622 -0.0283  0.1742  0.0377
72526W        W73390   6.870  28.278  11.336  0.1472 -0.3921  0.0504
72527W        W73391  22.329   4.319  14.848  0.0719  0.4538 -0.0206
72528W        W73392  20.415  18.199  26.434  0.2769 -0.1570  0.0913
72529W        W73393   1.565  16.593  26.190  0.1582 -0.0419 -0.0220
72530W        W73394  23.533   4.171  18.037 -0.1451 -0.2003  0.0853
72531W        W73395   2.598   3.006  16.436 -0.0086 -0.1101 -0.3117
72532W        W73396   2.562  26.293  13.531  0.1211  0.1158 -0.1454
72533W        W73397  24.918   3.269  21.877  0.3305  0.1615  0.1229
72534W        W73398  27.033  21.558  14.309 -0.1601  0.0370 -0.0563
72535W        W73399  12.778  18.120  24.905 -0.2853  0.0773 -0.1476
72536W        W73400   3.283  20.039  24.149 -0.2075 -0.2020 -0.1172
72537W        W73401   5.052  14.597  19.434 -0.3273 -0.0328 -0.1429
72538W        W73402  16.082   4.032   0.095  0.2009  0.0670  0.0016
72539W        W73403  10.287  28.545   9.492 -0.1971 -0.1819  0.0519
72540W        W73404   3.816  13.729  23.660  0.1768 -0.1212 -0.0364
72541W        W73405  14.649  22.722  13.245  0.1420  0.0546  0.1402
72542W        W73406  12.878   0.173   5.984  0.2568  0.0490 -0.2122
72543W        W73407  17.340  20.419  17.132  0.1570 -0.1182 -0.0018
72544W        W73408  15.937  25.384  19.977  0.0892 -0.0416 -0.0984
72545W        W73409  13.187  22.862  23.447  0.0211 -0.2593 -0.1527
72546W        W73410  12.410   7.602  29.099 -0.2439 -0.2358 -0.1179
72547W        W73411   4.493   4.863  11.239  0.0599  0.0022 -0.2912
72548W        W73412  17.094  17.202   0.687 -0.0944  0.0057 -0.3408
72549W        W73413  11.769   9.827  19.823 -0.2335 -0.0138  0.0472
72550W        W73414  16.356  20.304  21.892 -0.0601 -0.1275  0.1208
72551W        W73415   5.501   6.183   8.396  0.1453 -0.0169 -0.1708
72552W        W73416   4.624  23.808  22.659  0.0288 -0.3468 -0.0284
72553W        W73417   9.863  25.958  19.718 -0.1398  0.0355 -0.2325
72554W        W73418   9.295   8.414  23.169 -0.0387  0.2040  0.0410
72555W        W73419  17.747  18.611  16.142  0.1626  0.1172 -0.1123
72556W        W73420  10.545   3.151   3.324 -0.2287 -0.1778 -0.0405
72557W        W73421   4.534  20.404  15.369 -0.1140 -0.1690 -0.0153
72558W        W73422  22.231  28.175   0.424 -0.0636 -0.3047  0.0495
72559W        W73423   7.111   8.190   0.792  0.0338 -0.3923 -0.3158
72560W        W73424  18.199  26.702  16.672 -0.3690 -0.1413  0.2337
72561W        W73425   4.836  24.174   4.151 -0.0226  0.1571  0.2939
72562W        W73426  26.860   6.228   1.312 -0.0545 -0.2137 -0.3071
72563W        W73427   3.933   8.636   0.828 -0.2965  0.1879 -0.0369
72564W        W73428   4.943   8.218  21.711 -0.0526  0.1774 -0.0110
72565W        W73429  11.977  11.530   1.865  0.0610 -0.0778  0.2650
72566W        W73430  21.560  26.552  23.345 -0.1999 -0.0398  0.0753
72567W        W73431  22.754  22.030  13.768 -0.0517  0.0085 -0.0530
72568W        W73432  12.542  27.273  21.623 -0.1436  0.0673 -0.2672
72569W        W73433   0.815   2.826  28.395  0.0314  0.0910 -0.1693
72570W        W73434   0.648  22.848  22.359  0.0183 -0.1283 -0.0739
72571W        W73435  17.256   3.032   6.136 -0.0183  0.1991  0.2401
72572W        W73436  16.219  15.560  18.660  0.1781 -0.1919 -0.3925
72573W        W73437  12.356  28.730  25.530 -0.3036 -0.1276  0.1358
72574W        W73438   1.556   0.917  26.983 -0.0785  0.2868  0.0451
72575W        W73439  18.957  12.642  27.355  0.0218  0.1129 -0.0633
72576W        W73440   7.768  26.779  14.519 -0.1990  0.0637  0.2360
72577W        W73441   7.115  12.436   5.060 -0.2549  0.1691 -0.4972
72578W        W73442  12.537  14.804   4.693 -0.0815 -0.0421 -0.1100
72579W        W73443  24.994  19.977  24.574  0.0302  0.1213  0.0487
72580W        W73444   1.852  14.763  21.332  0.0320  0.0335 -0.0261
72581W        W73445   7.025   2.060   0.685  0.0534 -0.2787  0.0430
72582W        W73446  16.812  22.784  10.784 -0.1319  0.1516 -0.0853
72583W        W73447  10.094  13.740   6.820  0.1223 -0.0176 -0.0249
72584W        W73448  21.594   9.075   4.401 -0.2397 -0.0619  0.0931
72585W        W73449  10.867  16.959  15.940 -0.2614  0.0196 -0.1103
72586W        W73450   8.415  26.170  20.418  0.1956 -0.1523  0.2564
72587W        W73451  28.611  14.270  22.644  0.2345 -0.0840  0.0274
72588W        W73452   5.433  14.554   5.498 -0.2688  0.0992 -0.1894
72589W        W73453  16.221  27.298   5.611  0.0049 -0.2156 -0.0045
72590W        W73454   1.507  17.622  14.112  0.1219  0.2550 -0.1715
72591W        W73455   2.086  11.528  24.759  0.0744 -0.2269  0.1112
72592W        W73456  24.233  24.951  17.168  0.5355  0.0155  0.0220
72593W        W73457   8.274  28.092  22.550 -0.3865 -0.1070  0.0137
72594W        W73458   5.040  13.769  22.203 -0.0034 -0.1377  0.0390
72595W        W73459   0.408  26.671   8.265  0.0028  0.5347 -0.0253
72596W        W73460  12.875  17.582   4.778 -0.0865 -0.4764  0.0153
72597W        W73461   7.122   8.826   2.867 -0.0748  0.1250 -0.0264
72598W        W73462  11.891   3.552  23.606 -0.0084  0.1178  0.1069
72599W        W73463   1.022   9.215  18.391  0.1922  0.0931  0.1427
72600W        W73464  15.783  28.096  13.839  0.0381 -0.1548 -0.0559
72601W        W73465  27.534   0.608   8.034  0.1310  0.1468  0.1384
72602W        W73466  14.692  25.395  17.034 -0.0921  0.0354  0.0898
72603W        W73467  17.182  19.126  14.458  0.0368  0.0227 -0.0189
72604W        W73468   9.809  13.737  23.212 -0.1319  0.0336 -0.2289
72605W        W73469  26.390  13.517  26.245 -0.0717  0.1805  0.0765
72606W        W73470   8.925  28.114  20.078  0.0949  0.1124 -0.2400
72607W        W73471   4.841  26.005  23.417 -0.0626  0.0619 -0.2658
72608W        W73472  17.577  10.188   6.120  0.0407 -0.0324 -0.1315
72609W        W73473  17.535   2.363  24.854  0.0513  0.0235 -0.1014
72610W        W73474  20.066  11.384  12.889  0.0662  0.2203 -0.1692
72611W        W73475  10.992   4.073  21.112  0.1239 -0.0645  0.0903
72612W        W73476   8.910   1.996   9.422  0.0175  0.4269  0.0768
72613W        W73477   6.143  24.311   4.946  0.2885  0.1949 -0.1070
72614W        W73478  16.553  27.324  21.033 -0.0626 -0.1469  0.0360
72615W        W73479  11.081   6.311  27.752 -0.2099  0.2083 -0.0906
72616W        W73480   7.994  23.980  28.417  0.4134 -0.0330  0.1382
72617W        W73481  11.154   0.604  17.988 -0.2254  0.2117 -0.2100
72618W        W73482  21.929  23.695  28.888 -0.0810 -0.2008 -0.1967
72619W        W73483  25.343  24.847  15.759 -0.5298  0.0162  0.0314
72620W        W73484  11.776  26.901  11.475  0.0173  0.1038 -0.2041
72621W        W73485   4.717  15.396  11.505 -0.2268  0.1343 -0.1344
72622W        W73486   7.551  21.886   9.184  0.4150 -0.1660  0.0694
72623W        W73487   9.649   4.690   3.201 -0.1618  0.0066  0.0815
72624W        W73488  26.470  13.273  23.010 -0.0915 -0.2836 -0.1870
72625W        W73489   7.061  15.843  19.710  0.5133 -0.2588  0.0304
72626W        W73490   9.823   2.112  23.114 -0.1823 -0.1083 -0.0586
72627W        W73491  18.757   7.204   3.153 -0.0138  0.4122  0.3991
72628W        W73492  12.164  23.874   9.047  0.1770 -0.2972 -0.0596
72629W        W73493  18.382   2.589  13.529 -0.1264  0.0480 -0.1873
72630W        W73494  19.176  21.518  26.345 -0.0019  0.2371  0.1469
72631W        W73495   6.625  25.797   4.180  0.2116 -0.1214 -0.1769
72632W        W73496  28.918   4.740   6.697  0.2098  0.0282  0.1174
72633W        W73497  11.575  17.500  26.075  0.0561  0.2560  0.1769
72634W        W73498  26.375   0.929  27.991  0.0384 -0.0993  0.4374
72635W        W73499   5.193  14.665  22.709 -0.0307  0.2440  0.0757
72636W        W73500  10.664  29.034  28.094  0.2587  0.0092  0.0775
72637W        W73501  13.267  21.753  26.362  0.1693 -0.0031 -0.0212
72638W        W73502  19.400  21.770  13.551  0.4306 -0.2984 -0.2663
72639W        W73503  13.750  23.529  24.799 -0.1704  0.1335 -0.0723
72640W        W73504  24.672  14.436  29.098 -0.2434  0.0477 -0.1806
72641W        W73505  27.692  14.506   5.873  0.2103  0.0178  0.1406
72642W        W73506   6.186   3.467   7.193  0.1146  0.0268  0.2255
72643W        W73507   1.061  22.446  20.402  0.0610 -0.1756  0.3374
72644W        W73508   8.867  16.376  24.352  0.3878 -0.0386  0.0695
72645W        W73509   7.513  20.870  18.281  0.2649 -0.2521 -0.0153
72646W        W73510   9.068  15.233  17.024 -0.0068  0.1113  0.2101
72647W        W73511  26.730  24.675  26.024 -0.0573  0.0488  0.4347
72648W        W73512  22.647  13.080   0.593 -0.3057  0.2356 -0.1427
72649W        W73513  25.611   1.045  17.891 -0.2050  0.0420 -0.1640
72650W        W73514   0.095  23.302  16.530  0.4062  0.2534  0.1879
72651W        W73515  22.070   0.846  13.934 -0.2376 -0.0842  0.0611
72652W        W73516   4.762  11.978  13.334 -0.1533 -0.0576  0.5529
72653W        W73517  13.959  12.570   6.902  0.0495 -0.1100 -0.1704
72654W        W73518  27.690  15.925   9.239 -0.0784 -0.1851  0.0371
72655W        W73519  27.982  22.087  22.659  0.2096  0.3515 -0.1258
72656W        W73520  29.046  14.710  18.215  0.0089 -0.0916  0.4140
72657W        W73521   9.363   8.202  18.187 -0.0935 -0.4063  0.1527
72658W        W73522  21.073  20.590  13.206  0.2246 -0.0392  0.0083
72659W        W73523   5.332  19.323  16.170  0.1260 -0.2246  0.3338
72660W        W73524  14.776  21.359  16.982  0.1095 -0.2013  0.4646
72661W        W73525  24.873   3.858  18.997 -0.1169 -0.1275 -0.2058
72662W        W73526   3.271  14.622  17.555 -0.2291 -0.2737  0.2193
72663W        W73527  25.835  25.392  25.116  0.1507  0.1175 -0.0521
72664W        W73528  26.477  16.509  17.955  0.3062  0.0457  0.2435
72665W        W73529  23.181  24.427  20.077 -0.1829  0.4026  0.2180
72666W        W73530   7.427  22.896   9.350 -0.0331  0.0427  0.2559
72667W        W73531  10.551   0.294   1.347 -0.4810  0.1738 -0.2372
72668W        W73532  13.713  13.765   7.144 -0.1358 -0.1762  0.2009
72669W        W73533   5.193  27.570  22.936  0.0595  0.1522 -0.2356
72670W        W73534   7.116   4.413   8.100 -0.0596  0.2163 -0.0225
72671W        W73535  20.097  25.438  25.396  0.0997  0.0804 -0.0432
72672W        W73536  10.493  21.881  22.814  0.0525  0.0538 -0.0621
72673W        W73537   3.976  22.510  16.348  0.1078  0.3154  0.1899
72674W        W73538   6.591  14.688  26.464  0.0352  0.2303 -0.2341
72675W        W73539   4.667  26.636  15.218  0.0072 -0.3552 -0.0619
72676W        W73540  11.693   5.664  26.621 -0.0812  0.3087  0.1596
72677W        W73541   5.695  23.773  16.874 -0.1472 -0.1238 -0.1452
72678W        W73542   1.891  18.360   1.509 -0.2930 -0.1114 -0.1828
72679W        W73543  27.633  12.745  19.372 -0.2499  0.0528 -0.3632
72680W        W73544   8.231  14.695   7.341  0.1507 -0.1381 -0.0810
72681W        W73545   2.801   1.078  19.762  0.0560 -0.0390 -0.0237
72682W        W73546  19.756  10.772  23.425 -0.1213 -0.0166 -0.0605
72683W        W73547  28.700  17.034  13.508 -0.0094 -0.0796  0.2061
72684W        W73548  25.323  16.850  18.878 -0.0698 -0.0299  0.1010
72685W        W73549  25.889   6.139   6.534 -0.0054 -0.3218 -0.2855
72686W        W73550   1.481  14.491  20.547 -0.1474 -0.0063  0.4781
72687W        W73551  25.585   0.541  13.856  0.1222  0.1948 -0.2011
72688W        W73552  16.168  11.919  23.445  0.0465 -0.1585  0.0008
72689W        W73553  22.908   4.711  24.144  0.1715 -0.0843 -0.1297
72690W        W73554  21.154  20.775  18.089 -0.2085  0.3723  0.2010
72691W        W73555   1.318   5.325  19.873 -0.1247  0.2099 -0.3230
72692W        W73556  14.202  26.588  13.419  0.1412 -0.1480 -0.1388
72693W        W73557  13.699  12.466  20.577 -0.0290 -0.0593  0.0897
72694W        W73558   6.126  23.782  15.225 -0.0111  0.1503 -0.0151
72695W        W73559  21.488  16.433  15.081 -0.3006 -0.2100  0.1016
72696W        W73560  27.143  21.109   1.461 -0.1210 -0.2588 -0.0731
72697W        W73561   7.585  27.980  22.203 -0.1133 -0.0823 -0.0376
72698W        W73562   2.142  13.975  16.923 -0.0766  0.2000  0.2567
72699W        W73563  28.257  15.472  13.638 -0.1175  0.0491 -0.1552
72700W        W73564  10.677  20.819  22.454 -0.0296 -0.1568 -0.2389
72701W        W73565  23.678  21.718  20.045 -0.1323 -0.0346  0.3219
72702W        W73566   6.622  14.643  19.018 -0.0454 -0.4361 -0.0485
72703W        W73567   5.715  28.878   4.297 -0.2070 -0.0231 -0.1905
72704W        W73568   1.766  18.129  12.547  0.0284 -0.4701  0.0988
72705W        W73569  13.263  17.958  21.967 -0.0415  0.0215  0.3470
72706W        W73570  23.422  25.014   5.642 -0.1456  0.0673  0.0639
72707W        W73571   9.310   7.329  22.353  0.3913  0.1804  0.0269
72708W        W73572  22.137  24.693   8.364  0.1232 -0.0837  0.1215
72709W        W73573   2.441   2.795  23.799  0.2218 -0.1248 -0.1952
72710W        W73574   3.941   2.116  14.025 -0.1034 -0.2603 -0.2052
72711W        W73575   7.759   1.115   9.515 -0.3746 -0.0456  0.0334
72712W        W73576  25.140   0.940   2.805 -0.1810 -0.3220  0.0735
72713W        W73577  11.663  18.605  17.344  0.2727  0.0092 -0.0321
72714W        W73578  27.480  15.953   5.672 -0.1060 -0.0679 -0.0037
72715W        W73579  17.309   8.270  19.617  0.0510 -0.1529 -0.1759
72716W        W73580  24.362  26.822  15.785  0.1046  0.1587  0.0131
72717W        W73581  17.697   2.050  16.736  0.0469  0.0399  0.0376
72718W        W73582   4.599   2.973  11.111 -0.2796 -0.0824  0.2789
72719W        W73583   2.932  11.346  21.305 -0.0260  0.0033 -0.0612
72720W        W73584  23.037  22.949  28.034 -0.0760  0.1733 -0.1917
72721W        W73585  10.762  24.685  24.201 -0.1709 -0.1144 -0.4004
72722W        W73586  19.083   9.670  15.261 -0.4791  0.2637 -0.1498
72723W        W73587   4.237  18.533  23.245  0.0229 -0.0114  0.0395
72724W        W73588   6.425  10.881   1.953  0.1034  0.0169 -0.2363
72725W        W73589   8.785   6.997   1.932 -0.0321 -0.1981 -0.0727
72726W        W73590  28.173  11.070  22.062  0.1419 -0.3188 -0.0448
72727W        W73591   6.655  26.287  14.413 -0.3755 -0.1726  0.2171
72728W        W73592   4.047  11.399  14.473  0.0652  0.0178 -0.2090
72729W        W73593  10.339  17.369  24.823 -0.2676  0.1685  0.0043
72730W        W73594   7.734  14.950  19.898 -0.2079 -0.1578  0.0379
72731W        W73595   9.290  17.743  22.648 -0.0678  0.1157 -0.0210
72732W        W73596  12.071  22.418  17.011 -0.0044 -0.1140  0.2090
72733W        W73597  22.492  16.872  12.003 -0.3372  0.1644  0.0611
72734W        W73598   1.896  15.766  15.259 -0.3340  0.0776 -0.1873
72735W        W73599   1.008  13.889  17.210  0.2385 -0.4439  0.1096
72736W        W73600  12.351   5.854  28.540 -0.2231 -0.1510 -0.0078
72737W        W73601  26.931  12.672  15.307 -0.1822  0.0169  0.0117
72738W        W73602  13.956   9.068   7.612 -0.0029 -0.1379 -0.0782
72739W        W73603  28.692   2.326   0.353 -0.1161  0.0739  0.2642
72740W        W73604  24.156   1.843   8.453 -0.1069 -0.2211  0.2142
72741W        W73605  13.170  24.790  20.767 -0.1663  0.0322  0.2655
72742W        W73606   8.663  16.461  17.907  0.2793  0.3415  0.4193
72743W        W73607  15.936  15.482  10.392 -0.0060  0.1235  0.3797
72744W        W73608  16.025  14.071  26.024 -0.1947  0.1915  0.2208
72745W        W73609   8.384  27.113  15.426  0.0810  0.1601 -0.2357
72746W        W73610   4.636   2.150  21.751 -0.0769  0.1949 -0.2170
72747W        W73611   0.931  13.511  28.466 -0.0757  0.0941  0.1986
72748W        W73612  24.682  10.016  16.910  0.1518  0.0539  0.3335
72749W        W73613  10.374  19.273  18.054  0.2092 -0.2569  0.3933
72750W        W73614   1.388   2.594   2.846  0.1320  0.0293 -0.0193
72751W        W73615   9.252  12.111  24.811  0.0658  0.0001 -0.2457
72752W        W73616   3.396  16.792  25.717 -0.0392 -0.2097  0.0420
72753W        W73617  23.217  15.243   3.951  0.1431 -0.0298 -0.0362
72754W        W73618   9.315   1.071  19.798  0.3473 -0.2004 -0.1931
72755W        W73619  23.492  17.409  25.311  0.0337 -0.1046 -0.1155
72756W        W73620  17.630  27.403  17.445 -0.1937 -0.1672  0.1303
72757W        W73621   4.345  26.226  14.410 -0.0765  0.1175 -0.1902
72758W        W73622  17.622  23.420   2.417  0.1073 -0.0623 -0.1939
72759W        W73623  13.816  25.092  23.375  0.1639 -0.0236 -0.1466
72760W        W73624   6.542  21.322  24.812 -0.1117 -0.2284 -0.0036
72761W        W73625  21.016  16.749  12.150  0.2276 -0.2777  0.1958
72762W        W73626  23.297  15.803  27.337  0.1786 -0.3105  0.2744
72763W        W73627  16.167   6.653   9.677  0.1466  0.2930  0.1858
72764W        W73628  10.181  26.447  19.603  0.1290 -0.1571  0.4275
72765W        W73629  29.011  25.501   4.502  0.0865 -0.1582 -0.0464
72766W        W73630  18.395  18.961  27.462  0.1838 -0.1592 -0.0818
72767W        W73631   8.854  24.159   8.213  0.0443 -0.2348  0.0668
72768W        W73632  10.111  16.361   6.691  0.0138 -0.0165 -0.0928
72769W        W73633   0.378   7.063   3.490  0.0725  0.0555 -0.2275
72770W        W73634  18.337   8.887  19.867 -0.2774  0.0738 -0.1151
72771W        W73635  22.861  26.168   5.939  0.0077  0.3519 -0.2116
72772W        W73636   8.246  14.242  10.189  0.1051  0.0069  0.0709
72773W        W73637  23.822  14.449   7.586 -0.1929 -0.2132 -0.4664
72774W        W73638  21.211  26.173  12.588  0.1147 -0.0414  0.1154
72775W        W73639  13.326   1.411  23.275  0.3354  0.3319 -0.0068
72776W        W73640  26.858  11.545   8.613  0.0891  0.1916 -0.0568
72777W        W73641  22.607   1.538   4.923  0.0875 -0.1368 -0.0403
72778W        W73642  27.349  24.962   7.049  0.0649  0.2730  0.2160
72779W        W73643   4.296   8.092  28.180 -0.0265 -0.1416 -0.0642
72780W        W73644  13.859  24.855  23.948 -0.1168 -0.0259 -0.0111
72781W        W73645  20.325  24.957  20.359 -0.1012  0.1204  0.3667
72782W        W73646  18.537  12.468   3.741 -0.0368  0.3268 -0.3190
72783W        W73647   3.835   6.636   5.559 -0.0475 -0.0008  0.0340
72784W        W73648   3.325   4.664  13.928 -0.2141  0.0187  0.0417
72785W        W73649  26.426  23.909  22.792  0.0277 -0.0351 -0.1504
72786W        W73650  28.191  27.412  27.618  0.0060  0.2704  0.0768
72787W        W73651  14.662   9.634  18.875 -0.0490 -0.0754 -0.0332
72788W        W73652  11.336  14.227  26.563  0.1820  0.0079  0.1171
72789W        W73653  14.022   0.115  11.025  0.1834  0.2359  0.2271
72790W        W73654   7.075  11.527  25.079  0.3446  0.0141 -0.0213
72791W        W73655   8.992  16.128   7.912  0.0614 -0.0676 -0.1201
72792W        W73656   6.081  28.844  10.172 -0.3309 -0.1779 -0.2947
72793W        W73657  22.752  18.484  13.065  0.2421  0.1320  0.0634
72794W        W73658   3.648   5.293  18.076  0.0451 -0.1910  0.0309
72795W        W73659  11.236  26.483  21.174  0.0123 -0.2733 -0.3403
72796W        W73660   5.071   1.696  23.713  0.1532  0.0454 -0.3475
72797W        W73661  22.237  20.270   1.590 -0.1847  0.1939 -0.0140
72798W        W73662   7.366   7.345   1.616  0.0416 -0.2496  0.1768
72799W        W73663   8.292   9.279  18.592  0.0410 -0.2641 -0.0056
72800W        W73664  29.012  16.804  11.508 -0.2415  0.0715 -0.0400
72801W        W73665   1.651  16.543  21.254  0.0977  0.1837 -0.1222
72802W        W73666   7.498  20.339  13.960  0.1771 -0.0995  0.1000
72803W        W73667   3.709  23.375  20.729  0.1049 -0.2207 -0.2369
72804W        W73668   9.101  23.536  11.294 -0.0010 -0.0145  0.0530
72805W        W73669   0.946  21.801  21.792 -0.1079  0.3273  0.0145
72806W        W73670  17.302   0.616   0.740  0.0164  0.0116  0.1461
72807W        W73671  20.910  24.642   7.269  0.1622  0.0933  0.0903
72808W        W73672  15.596  19.318   7.415  0.2011  0.0665  0.1606
72809W        W73673   7.407  28.790  27.374 -0.3686  0.0055  0.3548
72810W        W73674  14.311  28.632   9.274 -0.1812  0.0704 -0.2012
72811W        W73675  13.251   2.859  22.471 -0.0754  0.0453 -0.1068
72812W        W73676  10.672  22.579  23.542  0.1455  0.0043 -0.1949
72813W        W73677   8.914  24.062  27.898 -0.0392  0.1253 -0.1247
72814W        W73678  12.106   0.081  27.636  0.3664 -0.1505 -0.1782
72815W        W73679   1.556   3.073  23.381 -0.1167 -0.1305 -0.0913
72816W        W73680   1.773  12.359  16.818  0.0120  0.0433 -0.1762
72817W        W73681  16.261  11.519  24.390  0.0477 -0.1702 -0.3333
72818W        W73682  16.030   3.227   4.226  0.0026  0.2532  0.0784
72819W        W73683   6.760  13.781  23.656 -0.1384 -0.3500 -0.0310
72820W        W73684  26.520  26.699   0.868  0.0157 -0.2336  0.3326
72821W        W73685  17.894  24.042  28.304 -0.2005 -0.1882 -0.1374
72822W        W73686   2.704  24.250  15.193  0.1430 -0.3200  0.0009
72823W        W73687   7.836   6.774  24.811 -0.0940 -0.2307  0.1431
72824W        W73688  10.704   2.588  22.190 -0.2835 -0.0760  0.1453
72825W        W73689  14.870   1.526  25.083 -0.1943  0.0348  0.0716
72826W        W73690   3.015  25.756   5.973  0.2102  0.1652  0.2105
72827W        W73691   7.025  15.112  16.267 -0.0228  0.1179  0.3130
72828W        W73692   0.102   9.255  19.397  0.2826  0.1800 -0.2894
72829W        W73693  19.760  27.265  23.323  0.1181  0.3723  0.0597
72830W        W73694  20.746   6.028   1.822 -0.1592  0.1027  0.0239
72831W        W73695  11.502   3.759  22.031 -0.0005 -0.0911  0.1031
72832W        W73696   1.929  14.720   9.010  0.1048 -0.0417  0.0335
72833W        W73697  27.866  16.790  20.184  0.0115  0.1684  0.0676
72834W        W73698  26.087  27.993   1.285 -0.1460  0.0597 -0.0495
72835W        W73699  12.604  16.176   7.937 -0.0384 -0.0091 -0.3435
72836W        W73700  15.094  16.118  21.884 -0.1447 -0.1028  0.1021
72837W        W73701   5.348   7.318  24.123 -0.4326 -0.1475  0.4357
72838W        W73702  14.312   9.198  21.051  0.0498  0.2734  0.0915
72839W        W73703   6.658  21.167   7.276 -0.0982 -0.2505  0.1534
72840W        W73704  17.193   8.541  12.021  0.2485 -0.0404 -0.2618
72841W        W73705  16.911   7.132  13.238  0.2851 -0.0110 -0.1456
72842W        W73706   5.670  24.884   3.038  0.0571 -0.1567  0.2298
72843W        W73707   6.877  17.503  23.193 -0.1671 -0.0606  0.4093
72844W        W73708  28.108   7.854   5.041 -0.2304  0.1582 -0.4385
72845W        W73709  10.546   8.674  18.879 -0.0336 -0.0800  0.0646
72846W        W73710   2.281   2.471  26.695 -0.1191  0.1975  0.0121
72847W        W73711   9.169  21.009   7.805  0.2382  0.0379  0.1377
72848W        W73712   6.131  14.878  17.153 -0.2106  0.1946  0.0903
72849W        W73713   1.659  23.366   3.078 -0.1473  0.0616  0.2428
72850W        W73714   8.184  20.291  10.513 -0.0510  0.2324 -0.1661
72851W        W73715  18.768  24.161  17.823  0.2665  0.0087 -0.1349
72852W        W73716  13.884   1.850  17.456 -0.3417  0.2370  0.2439
72853W        W73717  13.784   4.593  19.773  0.1205  0.0530 -0.0637
72854W        W73718   9.967  13.346  14.818  0.2594 -0.0842 -0.2470
72855W        W73719   8.254   6.198  17.607  0.0436  0.2406 -0.0627
72856W        W73720   9.381  21.661  16.586  0.0353  0.3066  0.0050
72857W        W73721  13.353  13.482  17.850 -0.0139  0.0444  0.0639
72858W        W73722  28.472   7.538   0.392 -0.0406 -0.1142 -0.1608
72859W        W73723   2.517  25.546   3.702 -0.1201 -0.2596  0.1372
72860W        W73724  21.004  23.708  14.853 -0.1115 -0.0283  0.1058
72861W        W73725   9.926  16.906  16.461 -0.1353  0.2490 -0.1225
72862W        W73726  11.464  25.531  12.429  0.2315  0.3257  0.0455
72863W        W73727  16.493  27.642  22.956 -0.2256 -0.0931  0.2865
72864W        W73728  24.202  21.210   5.105  0.2129  0.0563 -0.1334
72865W        W73729  24.732  20.018  11.242  0.0307 -0.1140 -0.2371
72866W        W73730  20.187   5.911  14.260  0.1114 -0.0270 -0.0967
72867W        W73731   3.456  18.847  16.674 -0.0241  0.2542 -0.1530
72868W        W73732  25.679  13.775  14.636 -0.2558  0.0229  0.1716
72869W        W73733  19.064  20.657  15.022 -0.1605 -0.2932 -0.0931
72870W        W73734  16.332  28.717  14.408  0.2853 -0.0123 -0.1677
72871W        W73735   5.631   5.171  28.950  0.0000 -0.0916  0.1342
72872W        W73736  13.338   4.738   6.802  0.1383  0.0928 -0.3113
72873W        W73737   0.728  19.717  18.942 -0.1279 -0.1756 -0.1702
72874W        W73738  22.174   2.063  27.069  0.1550 -0.0100  0.2420
72875W        W73739   9.890  22.815  28.409 -0.1772 -0.5176  0.2260
72876W        W73740  16.077   0.587  19.147 -0.0214 -0.2160 -0.0668
72877W        W73741  21.521  23.496   4.663  0.0801  0.0939  0.1082
72878W        W73742   0.837   2.702  20.335  0.4061  0.2003  0.0416
72879W        W73743  22.041  20.618   9.766  0.0018  0.1886 -0.1538
72880W        W73744  27.729   5.075  17.418 -0.0576 -0.0036  0.0315
72881W        W73745   5.570  21.540   1.906 -0.0527  0.1718 -0.1544
72882W        W73746  13.659  20.429  21.121  0.0673 -0.1368 -0.2712
72883W        W73747  27.424  23.801  18.791 -0.1171  0.1180 -0.0256
72884W        W73748  12.147  11.102  21.691  0.3907 -0.0906  0.0668
72885W        W73749  19.753  10.150  25.608 -0.0781  0.1601 -0.0539
72886W        W73750   9.874   6.880  25.646  0.1300  0.2420  0.0913
72887W        W73751   5.419  28.399  17.594  0.0262  0.0830  0.0587
72888W        W73752  13.742  13.368  18.226  0.1650 -0.1342 -0.1224
72889W        W73753   7.611  28.946  22.712  0.3137 -0.0388 -0.1639
72890W        W73754  17.287  18.267  23.218 -0.1299  0.3634  0.0585
72891W        W73755  24.626  28.016  18.900  0.1506  0.1272  0.3144
72892W        W73756  27.389   7.138   1.474 -0.2830 -0.1076  0.2934
72893W        W73757  10.190  12.409  25.840  0.0257  0.3882 -0.1701
72894W        W73758  13.650  13.588  25.380  0.0980 -0.1026 -0.0428
72895W        W73759   3.811  25.783  27.666 -0.0541 -0.0356 -0.1436
72896W        W73760  10.346   0.003  14.088 -0.2075 -0.0247 -0.0174
72897W        W73761   3.894  17.713   3.049 -0.4651  0.1343  0.1562
72898W        W73762  17.622  14.821   0.625  0.2348  0.2325  0.1693
72899W        W73763   5.277  15.981  17.662  0.0359  0.0359  0.1928
72900W        W73764   9.146   2.214  11.941  0.4018  0.1593  0.0422
72901W        W73765   2.421  19.652  25.513 -0.2589 -0.0854 -0.1560
72902W        W73766   9.606  19.577  27.752 -0.0922 -0.1442  0.0440
72903W        W73767  15.002  15.983  12.327  0.1627 -0.1372 -0.0440
72904W        W73768   1.029  24.427  12.886 -0.0687  0.0048  0.1538
72905W        W73769   2.779  25.721  26.086  0.3152 -0.0184  0.1690
72906W        W73770  23.105  18.243  26.635 -0.1981  0.0156  0.2569
72907W        W73771  18.350   7.303  27.680  0.0976  0.1237  0.1934
72908W        W73772   4.100  15.107  23.449 -0.1648  0.1100 -0.2238
72909W        W73773   6.047  21.308  15.226  0.2950  0.0970  0.0243
72910W        W73774  22.949   6.318  23.743  0.1385 -0.0301 -0.0485
72911W        W73775  14.473  25.391  13.664  0.2085  0.4876 -0.0909
72912W        W73776  28.794   9.341  23.860 -0.2084  0.0089  0.1229
72913W        W73777  24.632   7.726  23.352  0.1248 -0.0074 -0.1229
72914W        W73778  14.047  18.927  29.067 -0.0325  0.3677 -0.1724
72915W        W73779   1.429  17.486  27.189  0.1003 -0.2492  0.1178
72916W        W73780   6.358  28.137  27.568  0.1752 -0.2012  0.1979
72917W        W73781   9.744  27.434  19.524  0.0418 -0.1906 -0.0266
72918W        W73782   2.797   5.011   6.648 -0.0314 -0.3263  0.0338
72919W        W73783   3.413   3.967   7.863 -0.0800  0.3309  0.0698
72920W        W73784   1.190   2.842  15.139 -0.3350  0.0683  0.2408
72921W        W73785  17.186  24.070  12.588 -0.0809 -0.0341 -0.2130
72922W        W73786   3.810  19.415  27.776  0.0911 -0.0829  0.0786
72923W        W73787  20.068  18.512  20.885  0.1874 -0.3586 -0.2448
72924W        W73788  10.206  11.263   0.299  0.0908 -0.0635 -0.1528
72925W        W73789   6.601   0.547  13.583 -0.1468  0.2937  0.0627
72926W        W73790   3.104   1.684   9.482  0.0300 -0.1065  0.2823
72927W        W73791   1.131  21.678   4.055 -0.0426 -0.0933 -0.2427
72928W        W73792  22.843  23.286  25.771 -0.0741  0.0011  0.1620
72929W        W73793   6.491  17.183  17.742 -0.0650 -0.0230  0.0779
72930W        W73794  10.644  14.416  14.079 -0.2335 -0.0566  0.2951
72931W        W73795  21.211  21.556  20.087 -0.1730  0.0901  0.1861
72932W        W73796  26.668  12.732  19.486  0.0156  0.2597  0.1719
72933W        W73797  20.955   3.282   2.314  0.0983  0.1043  0.1813
72934W        W73798   2.095   7.868  24.747 -0.2075  0.0221 -0.1313
72935W        W73799   9.991   1.155  27.628 -0.0063 -0.0698 -0.1123
72936W        W73800  25.772   9.565  27.582  0.1111  0.0174 -0.1161
72937W        W73801  10.789  27.576  12.250 -0.1387 -0.1683 -0.2212
72938W        W73802  11.212  15.023   1.407 -0.0010 -0.1273 -0.0626
72939W        W73803  14.289  14.099  18.165 -0.2017  0.0502 -0.1910
72940W        W73804  16.909  15.190  16.408  0.0681  0.0180  0.0230
72941W        W73805   2.345  25.132  24.091  0.0460 -0.1554 -0.1213
72942W        W73806  21.838   4.035   5.342 -0.1052 -0.0574  0.1830
72943W        W73807  13.034  15.795   7.622  0.0110  0.0438  0.1181
72944W        W73808  14.097  11.701  23.901 -0.0767  0.0205  0.1650
72945W        W73809  19.409  19.425   1.764 -0.0438 -0.0750  0.2066
72946W        W73810   3.361  14.741   5.567 -0.2929 -0.0891 -0.0199
72947W        W73811   7.842  25.472   0.312 -0.0446  0.2006  0.0457
72948W        W73812  11.812   3.734  17.034  0.0065  0.2384 -0.3059
72949W        W73813   4.324  12.836   3.202 -0.7156  0.1739 -0.2572
72950W        W73814   5.193   2.350  23.229 -0.0106  0.0396 -0.0191
72951W        W73815   2.733  23.481  19.575  0.0239  0.4500  0.2128
72952W        W73816  12.070  13.498  12.135 -0.1982 -0.1139  0.2873
72953W        W73817  22.400  27.654  21.522 -0.2826  0.1390 -0.0808
72954W        W73818   5.637  11.154  10.881  0.0653  0.0829  0.2344
72955W        W73819  20.153  10.706  19.190  0.0647  0.2335  0.0488
72956W        W73820  14.374  17.389  16.606 -0.0776 -0.0560  0.1274
72957W        W73821  10.481   1.254  19.072  0.0456 -0.0234  0.3574
72958W        W73822  27.600   4.241  27.879  0.1801 -0.2013  0.1151
72959W        W73823  18.932   3.688  22.509 -0.4582 -0.3494  0.0556
72960W        W73824  15.133  26.502   7.307  0.1363 -0.2946 -0.1141
72961W        W73825   8.105  22.754   3.067  0.2620 -0.0798 -0.1180
72962W        W73826  12.689  25.786  24.370  0.0642 -0.2821  0.0253
72963W        W73827   7.509  26.042  24.052  0.1457 -0.1318 -0.1519
72964W        W73828  12.374  20.168  18.852 -0.2192 -0.0277 -0.2593
72965W        W73829  10.336  10.272  29.132 -0.0554  0.1832  0.1439
72966W        W73830  24.969  26.415   2.287 -0.0569 -0.1538  0.0274
72967W        W73831   5.800  16.987  18.443 -0.2282 -0.0316 -0.0360
72968W        W73832  19.593  20.098  18.250 -0.0592 -0.3194  0.3314
72969W        W73833  28.886   5.008  28.348  0.0002  0.0590 -0.1852
72970W        W73834   5.409  25.515   5.431  0.1361  0.0105 -0.0645
72971W        W73835  18.824  19.989  28.043 -0.0070  0.2524  0.1700
72972W        W73836  20.586  10.848  29.043 -0.2151  0.0344  0.2149
72973W        W73837   9.993  23.013   3.172  0.3007 -0.1973 -0.1068
72974W        W73838   4.571   4.903  21.255  0.0526  0.1486 -0.1249
72975W        W73839  18.814  13.728  17.238  0.2612  0.0788 -0.1284
72976W        W73840   9.178   0.270   0.390  0.2093 -0.1419 -0.0603
72977W        W73841  25.621   3.886  23.961 -0.1769  0.1188 -0.0889
72978W        W73842  17.240   8.149   4.592 -0.2256  0.2284  0.1204
72979W        W73843  29.085   5.522   9.126  0.1155  0.2470  0.2138
72980W        W73844   1.051   4.511   7.466 -0.1972  0.1226  0.1028
72981W        W73845  10.932   7.029  17.521  0.0852  0.0208  0.1792
72982W        W73846  12.381  16.470  24.241 -0.2285  0.1151  0.2191
72983W        W73847  23.491   2.191  24.625 -0.0881  0.0495 -0.1392
72984W        W73848   9.043  24.689  17.441 -0.0249  0.3403  0.4076
72985W        W73849   4.369  23.152   5.291  0.0893  0.0452 -0.0733
72986W        W73850   9.721  24.843  10.560  0.1926 -0.2202 -0.1741
72987W        W73851  27.094   2.593  20.158  0.2306  0.0403 -0.2160
72988W        W73852  12.554  26.759  11.892  0.0599 -0.1043 -0.1374
72989W        W73853  18.164  28.472  17.136  0.3254  0.1980 -0.2652
72990W        W73854  24.391  27.644  16.479  0.0230  0.3691  0.0740
72991W        W73855   8.366  16.359   9.996 -0.2180 -0.5650  0.2762
72992W        W73856   3.129  19.461   6.355 -0.0074 -0.1103  0.2093
72993W        W73857  25.926  28.924  23.944  0.2266  0.0651  0.3297
72994W        W73858   7.831  17.564  25.854  0.0093 -0.2083 -0.0980
72995W        W73859  19.464   1.989   2.267 -0.0323 -0.0216  0.0879
72996W        W73860  26.627   2.653  15.460  0.2214 -0.1214 -0.1250
72997W        W73861  25.482  28.116  21.184 -0.1324  0.1033  0.0311
72998W        W73862  18.660   3.595  20.140  0.2580 -0.0621 -0.0452
72999W        W73863   5.863   3.932  24.563 -0.4158  0.1877 -0.1147
73000W        W73864   3.488  23.159  15.276 -0.1974  0.0570 -0.3250
73001W        W73865   5.689  20.865  19.884  0.2674 -0.0824 -0.1583
73002W        W73866  12.368  24.637  28.057 -0.2209 -0.3652  0.0942
73003W        W73867  10.834  18.308  25.492 -0.0744 -0.2838  0.0231
73004W        W73868  13.926  29.114  13.168  0.1174 -0.3005 -0.1563
73005W        W73869   7.623   7.120  26.014  0.0345  0.2237  0.1306
73006W        W73870   7.290   5.308  11.106  0.1998 -0.1310 -0.0404
73007W        W73871  22.832   1.691  26.659 -0.0182 -0.2477  0.0310
73008W        W73872  25.416  18.016  28.835  0.0433  0.1105  0.1003
73009W        W73873   6.193   2.533  13.173  0.3946 -0.1276  0.0775
73010W        W73874  26.995  16.492   0.789  0.0412  0.3056 -0.0957
73011W        W73875  16.480  18.830  19.465 -0.0849 -0.1057  0.1265
73012W        W73876  17.613  27.399   3.454 -0.0065  0.2638  0.1382
73013W        W73877   9.229   0.301  14.332  0.0286  0.0692  0.0382
73014W        W73878  24.000  25.593  25.318  0.1310  0.1144  0.3019
73015W        W73879   0.916  26.260  11.528  0.1902 -0.2161  0.0571
73016W        W73880  25.168  21.717  16.164 -0.0519  0.2508  0.1341
73017W        W73881  16.236  11.939  21.697  0.3214 -0.1425  0.0957
73018W        W73882  24.604  11.182  22.492 -0.3550  0.1323  0.0512
73019W        W73883  23.086  14.664  12.686  0.0151 -0.1121  0.0781
73020W        W73884  23.212   9.000   5.670 -0.3563  0.0984  0.0313
73021W        W73885   0.425  20.654  18.294 -0.0624 -0.2898  0.0174
73022W        W73886  27.391  18.035   0.759 -0.0811  0.1219 -0.0442
73023W        W73887  16.300   3.600  20.919  0.3215 -0.0343  0.1396
73024W        W73888   9.356  13.137  26.098  0.4430 -0.0082 -0.0332
73025W        W73889  15.120  22.134   6.090 -0.0609 -0.0706 -0.1615
73026W        W73890  19.563  13.113  19.497  0.1090 -0.0301  0.0253
73027W        W73891  25.283   9.309  28.901  0.0700 -0.5149 -0.0408
73028W        W73892  27.146  25.625  16.729 -0.1295 -0.1984  0.0740
73029W        W73893  22.895  28.856  20.680 -0.0301  0.0995 -0.1647
73030W        W73894  14.439  27.134   6.426 -0.0524  0.2823 -0.0702
73031W        W73895  27.937  13.010  20.499  0.0297 -0.2333  0.2714
73032W        W73896   7.429  22.114  21.217 -0.1957 -0.0185 -0.2972
73033W        W73897  16.567   2.216  21.252 -0.2562  0.0923  0.2471
73034W        W73898  16.770   7.050  24.423  0.0215 -0.1034  0.0402
73035W        W73899  16.659   7.303   6.670 -0.1133  0.1315  0.0245
73036W        W73900  10.435  24.707   5.538  0.4053  0.2666 -0.0664
73037W        W73901  27.339   5.711  25.191  0.4638 -0.0262  0.3184
73038W        W73902   2.690  28.149  22.514 -0.0052 -0.2486  0.1052
73039W        W73903   9.390  14.212  13.901 -0.1194  0.1407 -0.2153
73040W        W73904   9.642   1.795  24.557 -0.0473  0.1361 -0.1854
73041W        W73905   8.674  18.073  20.345  0.0483 -0.0029 -0.2981
73042W        W73906  19.631  11.039  16.423 -0.1204 -0.3167 -0.2437
73043W        W73907  22.483  20.173  24.070  0.2969  0.3686 -0.1251
73044W        W73908   0.271  16.502  19.231  0.0945 -0.2093 -0.3183
73045W        W73909   0.355  16.457   9.963  0.0127 -0.1299 -0.0802
73046W        W73910  17.133   0.509  28.106  0.1156 -0.1809 -0.3174
73047W        W73911  16.616  26.811   1.505  0.2758 -0.0818  0.0012
73048W        W73912  28.002  28.961  17.641  0.1611  0.0314  0.2647
73049W        W73913  13.731  28.674  22.098 -0.1064  0.4044  0.0132
73050W        W73914  21.186  20.809  18.616 -0.1004  0.4673 -0.0291
73051W        W73915   9.467   3.410   8.230 -0.0569 -0.1109  0.0790
73052W        W73916  18.084  19.209  10.953 -0.4259  0.1429  0.0554
73053W        W73917  20.640  25.484   0.608  0.2512  0.1551 -0.2250
73054W        W73918  10.620  14.601  21.345  0.3009  0.4507 -0.0047
73055W        W73919  12.043   8.960   0.088  0.0781 -0.0754 -0.1885
73056W        W73920  14.096  15.748  27.281 -0.0366  0.0334  0.1463
73057W        W73921  10.577   9.241   9.895  0.1406 -0.3469  0.3694
73058W        W73922  11.372  23.712  15.236  0.1220 -0.0683 -0.2428
73059W        W73923   8.828   9.446  11.419 -0.0207 -0.1235 -0.0117
73060W        W73924  18.930   2.243  15.550 -0.0876 -0.1477  0.2719
73061W        W73925   4.218  10.640   6.012  0.0341 -0.1856 -0.1012
73062W        W73926  13.506  26.673  11.419 -0.1071  0.0555 -0.1211
73063W        W73927  19.039  19.413  12.576  0.0342  0.1382 -0.0447
73064W        W73928   1.926   3.062   1.499 -0.4368  0.1006  0.0172
73065W        W73929  15.961   0.839  29.021  0.0527 -0.1396  0.0674
73066W        W73930  16.319  21.052  13.232  0.2292 -0.0316 -0.1120
73067W        W73931   8.591  28.859   5.196 -0.0552  0.0657  0.2983
73068W        W73932   4.008  17.836  14.978 -0.0212  0.1540 -0.1887
73069W        W73933  17.427   9.643  24.245 -0.1731  0.0283  0.0622
73070W        W73934   5.931  16.753   0.984  0.2988 -0.1557  0.0616
73071W        W73935  23.911  21.972   4.075 -0.0039 -0.0158 -0.0304
73072W        W73936   7.801  16.767  28.137  0.2144 -0.1431  0.0863
73073W        W73937   6.350  21.202  18.653 -0.2430 -0.1110  0.2089
73074W        W73938   4.643  21.167  10.128  0.1191  0.2690 -0.0193
73075W        W73939  25.165   3.347  10.632  0.3628  0.0424  0.0921
73076W        W73940   5.593  24.093  19.837 -0.0718  0.2689 -0.0686
73077W        W73941  23.374  28.650  25.560 -0.1169  0.0680  0.1108
73078W        W73942  10.566  26.142   2.203  0.0283  0.2068  0.1922
73079W        W73943  23.217  14.141  22.921 -0.3358  0.1185  0.1662
73080W        W73944  11.717   7.215  23.924  0.0862 -0.1285  0.1681
73081W        W73945  11.295  22.558  17.414 -0.0897  0.4520 -0.0780
73082W        W73946  12.838  23.436   6.360  0.4827  0.2491 -0.0017
73083W        W73947  17.733  28.042  20.878 -0.0349 -0.3551  0.0948
73084W        W73948   6.994   9.947  17.483  0.4469 -0.2171  0.1478
73085W        W73949  20.675  19.462   3.726  0.1411 -0.0554 -0.1029
73086W        W73950   7.890  10.204  24.844 -0.0109  0.1469  0.1477
73087W        W73951  12.729   1.568  24.046  0.5600 -0.1330  0.0629
73088W        W73952  14.444  16.845   7.318 -0.2461 -0.0844  0.1761
73089W        W73953   9.151   0.463  14.806 -0.0280  0.1044  0.0597
73090W        W73954   5.938   3.040  14.345  0.0420  0.3994 -0.0192
73091W        W73955   8.238  16.371  23.069  0.1803  0.1702  0.0712
73092W        W73956   3.074  15.747   7.166 -0.2101  0.3005 -0.0727
73093W        W73957   2.834  16.591  27.478 -0.2940 -0.0962 -0.0182
73094W        W73958  15.155  10.224  17.741 -0.0896 -0.3004 -0.0127
73095W        W73959   5.180  20.341  22.971  0.3293 -0.0045  0.2596
73096W        W73960  12.063  13.263  11.142 -0.0916 -0.2074  0.0122
73097W        W73961   8.173  20.076  26.104 -0.0960  0.0999 -0.2855
73098W        W73962   4.197  19.529  27.495 -0.1036  0.1114 -0.3358
73099W        W73963  13.488  20.220  18.966  0.1483 -0.2707 -0.4723
73100W        W73964   9.703  26.953   0.845 -0.0223  0.0413 -0.0266
73101W        W73965  10.348  21.336  22.235  0.0338  0.2511 -0.2333
73102W        W73966  10.226  18.970  11.588  0.2980  0.0372  0.1168
73103W        W73967  24.387  10.586  26.830  0.1125  0.1241  0.0619
73104W        W73968   6.159  27.607  22.996  0.0308 -0.1527 -0.0089
73105W        W73969  23.708  17.556   6.064  0.0136  0.0025  0.2162
73106W        W73970  27.608  17.189   3.747 -0.0134 -0.2719 -0.1440
73107W        W73971  24.978  16.473   1.348 -0.0344 -0.1421  0.1005
73108W        W73972  19.140  15.482   0.143 -0.0447  0.0879  0.2625
73109W        W73973  13.224  27.689  25.015 -0.1737  0.4620 -0.1468
73110W        W73974  26.142   4.239  11.553  0.0530 -0.2622  0.2414
73111W        W73975  22.687  19.861  24.430 -0.2334 -0.2093  0.0744
73112W        W73976  15.831  26.862   5.544 -0.2306  0.1600  0.0370
73113W        W73977  12.021   2.514  12.911  0.0607  0.2065 -0.3533
73114W        W73978  15.949   1.636  28.709 -0.0328 -0.2110 -0.0833
73115W        W73979   4.248  12.789  16.606 -0.1367 -0.0243  0.1298
73116W        W73980  15.532  10.198  16.235 -0.0919 -0.0364  0.2758
73117W        W73981  24.807  14.573   9.136 -0.2042  0.1453 -0.2093
73118W        W73982  19.956  19.547   6.909 -0.1692  0.0166  0.2088
73119W        W73983   8.844   3.022  24.568 -0.1737 -0.1358 -0.0513
73120W        W73984   3.271  25.684  11.940  0.0302 -0.0418  0.0330
73121W        W73985  11.608  21.427  14.066 -0.4131 -0.0601 -0.3232
73122W        W73986  11.775  15.377  26.079 -0.1019 -0.1374 -0.3039
73123W        W73987   5.761  15.720  28.691 -0.2716  0.3445 -0.0647
73124W        W73988  18.489   2.909  24.465 -0.1349  0.0480  0.3022
73125W        W73989  19.450  25.951   0.357 -0.1891  0.4660  0.0440
73126W        W73990   7.534   1.312  24.314 -0.1183  0.0447 -0.1037
73127W        W73991   3.687  22.070  26.458 -0.0665  0.0124 -0.0627
73128W        W73992  20.184  28.323  18.302 -0.4378 -0.0600  0.0484
73129W        W73993   0.454   2.382  13.945  0.1105  0.0675  0.2156
73130W        W73994   7.003  25.351  14.397  0.2986  0.0028  0.1502
73131W        W73995   7.313  16.253  23.298 -0.0761 -0.0171 -0.1953
73132W        W73996  27.088  20.609  17.864  0.4490 -0.1189  0.0785
73133W        W73997  25.632  14.990   2.231 -0.1059  0.1507 -0.0109
73134W        W73998  22.160   3.844  17.244 -0.0517 -0.2185 -0.1505
73135W        W73999  11.212  27.610  23.976 -0.2277 -0.2618  0.0335
73136W        W74000   5.792  16.934  27.079 -0.2313  0.3698 -0.2770
73137W        W74001  10.242  27.703  18.829  0.1127 -0.1568 -0.5903
73138W        W74002   0.322  20.426  21.444 -0.1217 -0.0797  0.2821
73139W        W74003   1.005   8.466   0.104 -0.0303 -0.2882 -0.1112
73140W        W74004  13.269  22.154  17.895  0.1363  0.2573  0.0007
73141W        W74005  17.561  12.917   4.489 -0.1769 -0.1330 -0.1429
73142W        W74006  25.420   8.134  18.626 -0.0806 -0.0321  0.0565
73143W        W74007  13.971   8.993   9.524  0.1307 -0.2378 -0.0663
73144W        W74008  11.123  19.599  19.980 -0.0272 -0.2274 -0.1529
73145W        W74009  13.752  22.518  25.324  0.0295 -0.2510  0.0835
73146W        W74010  21.045   0.894  21.868  0.0657  0.4010 -0.1668
73147W        W74011  13.134  28.810   1.138  0.1139  0.0790 -0.0284
73148W        W74012   3.340  26.649   3.010 -0.0426  0.1637 -0.0604
73149W        W74013   2.942  24.204   2.491 -0.3637 -0.0285  0.3528
73150W        W74014  19.249  16.106  25.350  0.1070 -0.0884  0.2341
73151W        W74015   4.452   3.806  24.723  0.1520 -0.1203  0.1916
73152W        W74016  13.433   4.121  11.275 -0.3018 -0.2011 -0.0979
73153W        W74017   8.497  21.185  20.962  0.1816  0.2943 -0.0493
73154W        W74018  27.049   3.972   2.506 -0.2717 -0.0566 -0.1191
73155W        W74019  10.999   9.229  18.318 -0.0839 -0.1066 -0.1430
73156W        W74020  15.279  25.662   4.929  0.1292  0.0730  0.0488
73157W        W74021   8.767  25.732  22.940 -0.1674 -0.2821 -0.0454
73158W        W74022  10.542   4.074   5.396 -0.0515  0.3065  0.2309
73159W        W74023   1.165  12.967   6.197  0.0412  0.0146  0.0807
73160W        W74024   8.941  15.986  16.854  0.2414  0.0269  0.1753
73161W        W74025  22.173  28.023   4.364 -0.3087  0.0048 -0.1360
73162W        W74026  13.635  20.824  21.997  0.3468 -0.0729  0.0129
73163W        W74027   8.850  18.201  25.422 -0.0313  0.1524  0.0919
73164W        W74028  10.747  25.884  19.992 -0.1648  0.0279  0.0328
73165W        W74029  28.515  13.717  17.486 -0.2254 -0.2024 -0.0648
73166W        W74030  17.467   1.206  21.240 -0.0437 -0.2043 -0.0747
73167W        W74031  14.516  22.270  23.042 -0.0131 -0.0038 -0.0196
73168W        W74032  15.209  15.720  27.242  0.1390 -0.0721  0.0098
73169W        W74033  12.726   0.109   2.480  0.0147  0.0584 -0.2275
73170W        W74034  21.851   6.826   8.396 -0.1172 -0.1491 -0.1853
73171W        W74035  23.361  20.680  22.736  0.0186 -0.0620 -0.0202
73172W        W74036  11.841  16.020  20.023 -0.0887 -0.0987  0.1223
73173W        W74037   2.949   7.407  24.767  0.1650  0.1975  0.0033
73174W        W74038  28.046   2.237  24.991  0.0171  0.1129  0.1780
73175W        W74039   2.999  19.383   9.071  0.0391 -0.2251 -0.1833
73176W        W74040  18.421  19.981  13.305 -0.0852  0.2992 -0.0653
73177W        W74041  16.651   6.576  27.202  0.0401  0.4280 -0.1116
73178W        W74042  11.035   2.863  20.061  0.1827  0.0024 -0.0326
73179W        W74043  26.151   1.834   7.746 -0.1567 -0.1130  0.2373
73180W        W74044   5.528  23.138  11.667  0.2256 -0.1587 -0.1322
73181W        W74045  25.226  17.875  25.316 -0.2215  0.1815 -0.0494
73182W        W74046   7.592   4.875  25.248 -0.0848  0.1026  0.0546
73183W        W74047   8.083  28.692   0.801 -0.1480 -0.0429  0.0208
73184W        W74048  16.485  26.036  26.391 -0.0102 -0.1400  0.3613
73185W        W74049   7.318   8.334  27.692  0.3690  0.1048 -0.0497
73186W        W74050  20.414  26.178  29.067 -0.0096  0.4840  0.0214
73187W        W74051  27.724   3.075  23.735 -0.0635  0.0205 -0.1705
73188W        W74052   6.063  18.964   0.876  0.5937 -0.0326  0.1689
73189W        W74053  11.318  23.656   0.901  0.3507 -0.1486 -0.3809
73190W        W74054  27.500  25.945  20.829 -0.0520 -0.0256 -0.1930
73191W        W74055  10.850  17.447  10.862  0.2156  0.0416  0.1898
73192W        W74056  18.818   6.236   1.267  0.1068  0.2636 -0.0501
73193W        W74057  28.799  24.649  21.023 -0.0563  0.0763 -0.0017
73194W        W74058   3.101  23.501  27.119  0.0882  0.0749  0.1474
73195W        W74059   2.329  23.660   9.225  0.1243  0.1413 -0.3225
73196W        W74060  10.825  11.531   6.572  0.0537  0.0664  0.2732
73197W        W74061  12.713  16.678   9.106  0.1837 -0.1496 -0.0887
73198W        W74062  25.255  25.650  28.454 -0.3024 -0.0533  0.1907
73199W        W74063  22.565  24.936   3.277  0.0459 -0.0576  0.2049
73200W        W74064   0.842  13.889   0.521  0.1019  0.0289 -0.3585
73201W        W74065  11.165   6.097  28.211  0.0925  0.1391  0.3847
73202W        W74066   8.501  20.189  14.292  0.0453 -0.0623  0.0848
73203W        W74067   3.508   4.125  14.704 -0.0226  0.2503  0.2475
73204W        W74068  23.657   8.940   9.621  0.1644  0.0112  0.1445
73205W        W74069   9.628  23.223  19.831 -0.2238 -0.1878 -0.1809
73206W        W74070   5.549  22.708  13.737 -0.3147  0.0578 -0.1726
73207W        W74071  19.073   2.116  27.436 -0.3064 -0.2249  0.0253
73208W        W74072   4.776  24.780  28.366 -0.1397  0.0060  0.0099
73209W        W74073   6.810  12.812  19.979 -0.0743 -0.0106 -0.1533
73210W        W74074  10.790   7.713  13.196 -0.1231  0.2958  0.0363
73211W        W74075  12.920  12.858   0.553  0.1594  0.0298  0.2150
73212W        W74076   2.960   4.661  21.079 -0.0924  0.1355 -0.2784
73213W        W74077   2.788  21.923   7.856  0.2517 -0.0342 -0.1077
73214W        W74078  18.879   7.138   1.432 -0.1131 -0.0384 -0.3030
73215W        W74079   2.844   7.114   3.367 -0.3700  0.2323  0.0076
73216W        W74080   3.679  15.892   2.124 -0.0911 -0.0614  0.1984
73217W        W74081  24.472  24.753  17.701 -0.0789  0.0590  0.0461
73218W        W74082   6.679   1.632  29.116  0.2194  0.0737  0.0870
73219W        W74083   8.402  19.581  25.219  0.1202 -0.1262  0.0696
73220W        W74084   8.052   8.187  16.532 -0.4096 -0.4098  0.1583
73221W        W74085  11.479   8.556  28.586  0.3402  0.1969  0.0980
73222W        W74086  15.157  21.326  28.097  0.2784 -0.1739  0.0898
73223W        W74087   7.606  21.178  24.553  0.1140  0.1419  0.1717
73224W        W74088  11.679   0.881  26.606 -0.2107  0.0153 -0.4205
73225W        W74089  12.266  17.864   0.483  0.1369 -0.0553  0.2522
73226W        W74090  12.148  26.702  16.279 -0.1583 -0.0461  0.2880
73227W        W74091   8.598  21.011  18.933  0.0230  0.2188 -0.0337
73228W        W74092   6.064  22.743  23.589 -0.0497  0.0061 -0.0399
73229W        W74093  23.422  19.825   1.213  0.0522 -0.1694 -0.2399
73230W        W74094  18.761  22.079   0.136 -0.0153 -0.0652 -0.0939
73231W        W74095  20.761  10.938  28.081  0.0364 -0.0816 -0.2522
73232W        W74096  11.459  11.740  18.272 -0.3257  0.0472 -0.1521
73233W        W74097  16.673  21.578  27.489 -0.1806 -0.0131 -0.0286
73234W        W74098  18.874  14.996  23.911  0.3828  0.4615  0.0222
73235W        W74099  25.004  15.763  28.422  0.1090  0.2616  0.2050
73236W        W74100   5.438  24.738  27.443  0.2906 -0.1092  0.0689
73237W        W74101   6.207  10.439  21.573  0.0157 -0.1785 -0.0606
73238W        W74102  19.527  28.359  12.678  0.1079 -0.0350  0.1328
73239W        W74103  10.700   1.082  15.909  0.0607 -0.0485  0.2169
73240W        W74104   0.742  18.985  27.411  0.0703 -0.0648  0.0297
73241W        W74105  22.563   5.782  17.129  0.0519 -0.1637 -0.0175
73242W        W74106  26.453  19.898   8.729 -0.0126  0.0142  0.0280
73243W        W74107   7.768  22.180  14.736  0.1939  0.1338  0.4850
73244W        W74108   8.021  27.579  14.017  0.4424 -0.2177  0.3848
73245W        W74109  28.375  27.435   3.629  0.1432 -0.1515  0.0925
73246W        W74110   1.907   5.240  17.043 -0.0767 -0.0992 -0.0913
73247W        W74111   1.126  15.645  17.961 -0.0564  0.0707  0.1344
73248W        W74112  17.034   8.385  26.809  0.1034  0.0223 -0.2192
73249W        W74113  28.515  26.607  26.639 -0.0092 -0.2703  0.0510
73250W        W74114   7.693   4.028  23.848 -0.0119  0.1662  0.1827
73251W        W74115  15.896   0.546  20.397  0.1620  0.1233 -0.1982
73252W        W74116   5.696  22.086   4.225  0.0890  0.0922 -0.0102
73253W        W74117  22.872   4.878  21.893  0.0762 -0.0477  0.0516
73254W        W74118   6.713   6.553  22.666 -0.1675 -0.0357  0.1821
73255W        W74119  15.275  14.002  22.804 -0.0483  0.0186 -0.2251
73256W        W74120  14.224  28.949  25.290 -0.2123  0.0012  0.2929
73257W        W74121  17.074   8.512  27.326  0.0408 -0.2959 -0.1177
73258W        W74122  28.769  22.523   7.270  0.3702 -0.1070  0.2687
73259W        W74123   6.278  21.019  14.241 -0.1441 -0.0094  0.2951
73260W        W74124  26.870   7.108   5.416 -0.0688 -0.1998 -0.3387
73261W        W74125  22.681  24.653   2.745 -0.0452 -0.0008 -0.4078
73262W        W74126  17.116  27.625  15.108  0.1928  0.3012  0.3128
73263W        W74127   0.897   4.984   9.981 -0.0736 -0.1639 -0.4002
73264W        W74128   7.760   3.415  25.630 -0.3757 -0.2153  0.1081
73265W        W74129   2.022   9.785  18.701  0.0432  0.2132 -0.2645
73266W        W74130  13.501  15.743   1.626 -0.3695 -0.1244 -0.1931
73267W        W74131   6.942  12.453   8.576 -0.0386 -0.0369 -0.0268
73268W        W74132  15.580  10.222   3.307 -0.1707 -0.0340  0.3018
73269W        W74133   0.938  21.618  23.201 -0.1631  0.0203  0.2409
73270W        W74134  11.609  21.796   4.264  0.2330 -0.0051  0.3275
73271W        W74135  13.726  26.072  15.387  0.1124 -0.4344  0.1770
73272W        W74136   8.927  12.665  18.004  0.0325 -0.1935 -0.1830
73273W        W74137   9.985  16.532  28.709  0.1883  0.0684 -0.0747
73274W        W74138  13.126  17.904  11.286  0.0683 -0.0785 -0.2744
73275W        W74139   9.339  16.413  24.236  0.0058 -0.1013 -0.0045
73276W        W74140   5.325  13.059  11.842  0.0309 -0.2537 -0.2067
73277W        W74141   4.694   1.479  23.025  0.2893  0.1848 -0.1185
73278W        W74142  28.629  25.480   7.076  0.1791 -0.2306 -0.2209
73279W        W74143  18.999   0.428   1.129 -0.1771  0.1614  0.1217
73280W        W74144  12.357   5.191  27.604  0.1746  0.0584 -0.0610
73281W        W74145   9.999  28.227  21.480  0.3918 -0.2435 -0.0400
73282W        W74146   1.355  26.863  14.224  0.0541  0.0048  0.0616
73283W        W74147  19.960  15.633   5.341 -0.0979 -0.1774 -0.2680
73284W        W74148   5.735   9.930  22.954  0.0326 -0.1587 -0.2444
73285W        W74149  11.698  14.506   5.525  0.0165  0.2816  0.0234
73286W        W74150   1.919  17.003   6.774 -0.1283  0.0260 -0.1132
73287W        W74151   1.606  22.962   9.108  0.2652 -0.0218  0.3483
73288W        W74152   2.946   7.972  21.017 -0.1015  0.2310 -0.2019
73289W        W74153   9.110  10.255   8.363 -0.0669 -0.0927 -0.0042
73290W        W74154  25.925   1.876   0.283 -0.3616 -0.0728 -0.0857
73291W        W74155   3.925  28.740   7.982  0.0859 -0.1765  0.0182
73292W        W74156  12.370  11.447   5.271  0.3779  0.1914  0.1564
73293W        W74157   2.876   0.204  10.279 -0.1825  0.0078 -0.1664
73294W        W74158   7.094  23.564  19.311 -0.5441 -0.2117 -0.0311
73295W        W74159  23.452  10.299  18.356  0.1141 -0.0111 -0.3175
73296W        W74160  13.479  18.920  13.228  0.2745  0.1349  0.2327
73297W        W74161   8.287  18.548  19.796 -0.1676 -0.4984 -0.0465
73298W        W74162   2.817  28.142  26.786  0.2365 -0.3178 -0.0350
73299W        W74163   8.633  22.659   1.749  0.1526  0.1151  0.2354
73300W        W74164   5.647   0.604   9.225  0.1276 -0.0542 -0.4133
73301W        W74165   5.313   2.978  22.171  0.3011 -0.2557 -0.1210
73302W        W74166  23.916  28.291  23.558  0.1083  0.0234 -0.4456
73303W        W74167  18.827  22.432  22.035  0.2521  0.3158 -0.2119
73304W        W74168   1.121  11.993  20.839  0.0862  0.1323  0.1317
73305W        W74169   3.592  15.474   1.792  0.1520 -0.0769  0.1082
73306W        W74170   9.748  22.998   7.872  0.0998  0.0009  0.0197
73307W        W74171  20.627  27.617  26.459  0.2659 -0.3041  0.0954
73308W        W74172  24.247   7.574  23.030 -0.0670 -0.0798  0.0170
73309W        W74173  16.431  20.934   9.082 -0.0837  0.2541 -0.0809
73310W        W74174   6.445  19.726   3.122  0.3444  0.1842 -0.2170
73311W        W74175   0.128  13.221  10.751 -0.2545  0.0148  0.0589
73312W        W74176  28.623   6.698  17.846 -0.2161 -0.0792 -0.1780
73313W        W74177   2.058  15.239  10.582 -0.2912  0.1291  0.0028
73314W        W74178  26.369  19.631  11.439 -0.2115  0.0950 -0.1443
73315W        W74179  19.481  14.221   3.011  0.1229 -0.3919  0.0758
73316W        W74180   5.598  25.714  26.441 -0.1926 -0.1494 -0.2168
73317W        W74181   7.355  24.643   8.421  0.0817  0.0438 -0.4682
73318W        W74182   3.282   9.902   0.555 -0.1202  0.2094 -0.3623
73319W        W74183  15.957  22.462  25.239 -0.2448 -0.0692  0.3139
73320W        W74184  11.779  27.515  24.114 -0.0181 -0.0330  0.4671
73321W        W74185  10.856  27.725  23.684  0.1195 -0.0848 -0.0298
73322W        W74186  10.775   2.617   3.400  0.1090  0.2277 -0.0623
73323W        W74187  14.821   4.920   2.388  0.3089  0.1153  0.0441
73324W        W74188  14.887  27.668  16.202  0.2031 -0.3972 -0.0970
73325W        W74189   8.706   9.616   7.276  0.1286  0.0484 -0.2451
73326W        W74190  23.535   1.739  16.240 -0.1833 -0.2479 -0.2383
73327W        W74191   2.306   2.298   0.508 -0.3245 -0.0085 -0.0448
73328W        W74192  25.909  21.797  19.013  0.2525  0.2918 -0.0345
73329W        W74193   3.030   9.885  21.776 -0.1350  0.1707 -0.0182
73330W        W74194   0.975  13.839  22.206 -0.2140 -0.0695  0.2452
73331W        W74195  14.066  25.613  24.553 -0.1235 -0.1466 -0.0103
73332W        W74196  11.931  23.752   7.723 -0.3835 -0.0722  0.0071
73333W        W74197  18.045  10.393  25.071 -0.0930 -0.2232  0.0176
73334W        W74198   6.515   5.122  16.177 -0.2096 -0.0221 -0.0088
73335W        W74199   4.193   0.885   2.456 -0.0250 -0.0448  0.2566
73336W        W74200   8.134   1.639  13.778 -0.0205  0.0095 -0.1305
73337W        W74201  16.233  24.360  17.952 -0.0155 -0.1895  0.3077
73338W        W74202   4.895   3.730   2.135 -0.0177  0.0655  0.3747
73339W        W74203  13.042  17.430  17.169  0.0958 -0.1016 -0.0848
73340W        W74204   0.782  25.597   3.249 -0.0542  0.1451  0.2119
73341W        W74205   7.966  10.272  11.044 -0.1589 -0.3466  0.2515
73342W        W74206   7.125  22.581   1.123 -0.0716  0.1202  0.2394
73343W        W74207  17.526  24.858  26.746 -0.0058  0.2074  0.0297
73344W        W74208   7.182  20.654  23.441 -0.2880  0.1438  0.1002
73345W        W74209   5.301  21.913  22.739 -0.0438  0.1250  0.1109
73346W        W74210  25.304   2.333  21.784 -0.0611 -0.0457 -0.0656
73347W        W74211  17.287   4.226   7.487  0.1186 -0.0316  0.0467
73348W        W74212  24.327  22.286  27.577 -0.3596  0.2555  0.2833
73349W        W74213   8.685  27.717  11.942 -0.1532  0.1065 -0.1018
73350W        W74214   4.844  28.346   3.280  0.1298 -0.1241  0.1412
73351W        W74215  23.514  19.847  13.040 -0.1192  0.0393 -0.1670
73352W        W74216  21.254   1.976   5.253  0.1218 -0.1099 -0.0904
73353W        W74217  17.067  20.847   6.417  0.0364 -0.0151  0.4385
73354W        W74218   2.475  25.388   5.242  0.1175  0.0388  0.1902
73355W        W74219  15.811  15.061   7.692 -0.2580 -0.1046  0.3190
73356W        W74220  12.657  27.310  19.677 -0.3199 -0.0053  0.1136
73357W        W74221  21.457  14.094   5.766 -0.3003  0.0623 -0.0686
73358W        W74222   4.706  22.931  14.559  0.0433 -0.0342  0.0884
73359W        W74223  10.996   8.166  23.490  0.2275  0.0332 -0.0380
73360W        W74224   0.675  12.509   0.855  0.1282  0.1805 -0.0894
73361W        W74225  11.232  20.865  10.685 -0.2343 -0.3127  0.0702
73362W        W74226  26.668  12.576   2.798 -0.1306 -0.3901 -0.0351
73363W        W74227  13.445  16.084  15.765 -0.0115  0.0123  0.0798
73364W        W74228  21.146   5.202  24.674  0.4775  0.0159 -0.1875
73365W        W74229   8.706  25.730  10.151  0.0581 -0.0133 -0.1631
73366W        W74230   1.171  11.601  22.584 -0.0324 -0.0058 -0.2527
73367W        W74231   5.487   6.898   5.697 -0.1364  0.1122 -0.0233
73368W        W74232  11.235  28.490   1.211 -0.1149 -0.0738 -0.0037
73369W        W74233  10.801  26.454  20.939 -0.4088 -0.2656  0.0868
73370W        W74234  24.573  17.665   8.173 -0.1859 -0.0476 -0.0770
73371W        W74235   3.332  18.182  27.243  0.2148  0.3201 -0.0379
73372W        W74236   5.068   6.485  13.035 -0.1778 -0.0204  0.0347
73373W        W74237  24.075  23.902  25.467 -0.0248  0.2787  0.0784
73374W        W74238   6.211  15.967  15.017 -0.3187 -0.1866 -0.2663
73375W        W74239  12.862  20.045  23.325  0.1106 -0.0728 -0.3474
73376W        W74240  16.581  29.008  17.966 -0.1990 -0.0314  0.1214
73377W        W74241  26.331  12.555  11.874  0.3607 -0.2553  0.3294
73378W        W74242   7.751  11.273   4.534 -0.1772 -0.1748  0.0911
73379W        W74243   7.469   9.713   0.166 -0.1067 -0.2610  0.3134
73380W        W74244  11.995  27.218  20.724 -0.0826  0.0495  0.0455
73381W        W74245   5.507  25.629   8.311 -0.0768  0.3870  0.1646
73382W        W74246   2.531   5.556  22.518  0.0724  0.1156  0.0924
73383W        W74247  27.877  26.860  13.578  0.0507  0.0451 -0.1017
73384W        W74248   0.070  13.903  11.280  0.0159  0.1252  0.0361
73385W        W74249   4.442  18.009  22.099 -0.1165 -0.0612  0.0753
73386W        W74250   1.982   1.763  24.320 -0.1553 -0.3134  0.0329
73387W        W74251   1.355   4.367   3.713  0.0197  0.1139 -0.0304
73388W        W74252   2.425  10.648   9.323  0.0075 -0.2019  0.1265
73389W        W74253  12.449  26.681  18.312  0.4010 -0.0741 -0.1246
73390W        W74254   1.762   4.657  27.017 -0.0476  0.3010  0.0280
73391W        W74255  11.382   4.069   8.576  0.0017 -0.0570  0.0529
73392W        W74256  15.453  11.552  23.672 -0.4693  0.1047  0.2407
73393W        W74257  22.724  24.380  16.447 -0.1105 -0.1431 -0.2394
73394W        W74258  24.154  12.145  14.031  0.0815 -0.0510 -0.1732
73395W        W74259   9.207   9.690   6.246 -0.3805  0.2322 -0.2040
73396W        W74260  12.825  24.607  15.522 -0.0841 -0.1374  0.1743
73397W        W74261   3.583  14.371  14.849  0.0534  0.2078  0.1377
73398W        W74262   2.737  24.453  19.967 -0.1155 -0.0181  0.1273
73399W        W74263   1.307  20.956   1.673 -0.3165 -0.1136 -0.0464
73400W        W74264  24.309  12.691  26.982  0.0093  0.1514 -0.2277
73401W        W74265  28.944   4.797  27.844  0.0321 -0.0051 -0.0758
73402W        W74266  21.291   2.622  15.899  0.1124  0.1246 -0.0078
73403W        W74267   6.308  26.054   1.388 -0.0982 -0.1842 -0.0783
73404W        W74268  25.870  23.025   5.314 -0.0093 -0.3414 -0.0934
73405W        W74269  23.783  27.240   5.696 -0.1301  0.0186  0.2947
73406W        W74270   2.432   2.439  20.763 -0.1234  0.1381 -0.4785
73407W        W74271  25.323   8.535  21.653  0.0849 -0.0518  0.0206
73408W        W74272  26.330  19.541  16.703 -0.0294 -0.1002 -0.2911
73409W        W74273  10.382  29.032   4.207  0.3132 -0.1564  0.1279
73410W        W74274  19.430  26.877   5.573 -0.0997 -0.2357 -0.1290
73411W        W74275   2.494   8.971  26.232  0.0112  0.1569 -0.0903
73412W        W74276   4.419   5.118   7.780 -0.2251 -0.4611  0.0096
73413W        W74277  21.683  19.728  27.031 -0.0565  0.2694  0.1136
73414W        W74278  23.978  20.701   1.824 -0.0075  0.4606  0.0227
73415W        W74279  14.672   0.842  16.313 -0.0018  0.0732 -0.0583
73416W        W74280  10.427  14.069   9.445  0.1369  0.0105 -0.4054
73417W        W74281  12.662  22.956  27.798  0.0245  0.3761  0.0538
73418W        W74282  13.646   9.272   1.786  0.2680 -0.0012  0.0669
73419W        W74283   1.284   7.646  20.725  0.2548  0.0187  0.0868
73420W        W74284  12.939  22.384  28.879  0.0268 -0.0977 -0.1991
73421W        W74285   7.525   8.724  26.895 -0.0297 -0.1071 -0.1335
73422W        W74286  26.762   7.891  12.672 -0.2153  0.2248 -0.0290
73423W        W74287   0.748  22.231   6.454 -0.1211 -0.1993  0.1295
73424W        W74288  26.135  23.458  21.175  0.0227 -0.1607 -0.0046
73425W        W74289   4.949   7.274  12.100 -0.1823  0.2620 -0.2114
73426W        W74290  25.543   5.305   1.005 -0.2083 -0.1553 -0.0365
73427W        W74291   1.576  13.273  25.912  0.2675 -0.1639 -0.1920
73428W        W74292  27.333   3.843  20.900 -0.1440 -0.0084  0.0360
73429W        W74293   2.071   2.642  25.053  0.3183  0.0266  0.1831
73430W        W74294  15.190  15.061   7.663 -0.1894 -0.1621  0.1941
73431W        W74295  22.312   9.252   7.203  0.0124 -0.1804 -0.1373
73432W        W74296  21.808  28.791  26.026  0.1062 -0.3014 -0.2252
73433W        W74297  25.719  23.384  12.019 -0.2044  0.2919  0.1989
73434W        W74298  16.374   9.890  25.555  0.0993  0.3609 -0.1499
73435W        W74299   4.770  22.746  28.925 -0.0545 -0.1114 -0.3814
73436W        W74300  13.518   9.676   1.240  0.1392  0.1424  0.0068
73437W        W74301  23.918  28.802   7.822 -0.0975  0.0420  0.0166
73438W        W74302  18.636   7.409  16.073  0.2787 -0.0451 -0.2303
73439W        W74303   1.988   2.260  11.024 -0.0902 -0.2556 -0.0578
73440W        W74304   7.006  15.942   6.323  0.0686 -0.1227  0.0127
73441W        W74305  27.514   0.858  22.268  0.0018  0.0219  0.1982
73442W        W74306   8.755   4.021  13.969  0.1625  0.0520  0.1590
73443W        W74307  14.242  28.333  14.199  0.0458 -0.0611 -0.1575
73444W        W74308  22.385  28.195   3.788 -0.2380 -0.1570 -0.1225
73445W        W74309   4.384  19.742  25.158  0.0797  0.0117 -0.3771
73446W        W74310  12.444  13.830   3.184  0.3403 -0.0226 -0.0687
73447W        W74311  10.283  20.846  21.006  0.0252 -0.0656 -0.1618
73448W        W74312   5.848  25.166  19.780 -0.2037  0.2197  0.0930
73449W        W74313   8.227  13.117  14.782 -0.1064  0.1808 -0.0891
73450W        W74314   8.638   1.521   8.469  0.1085  0.2313 -0.0661
73451W        W74315   1.333  23.978   6.031  0.0553  0.2803  0.2179
73452W        W74316   8.019  19.952  25.208  0.1501 -0.1251  0.0560
73453W        W74317  23.968   6.675   3.330  0.0186  0.0420  0.1159
73454W        W74318  17.597  19.543   7.899 -0.0318 -0.0061  0.2312
73455W        W74319  19.279  22.600  14.077 -0.2970  0.3960 -0.0113
73456W        W74320  24.037   6.975   1.751 -0.2927  0.0261 -0.2010
73457W        W74321  23.193  14.908  13.526  0.1397  0.0860 -0.3636
73458W        W74322  21.123   9.724  19.664  0.0410 -0.1026  0.0169
73459W        W74323  17.697   4.011   1.150 -0.1686  0.1470 -0.0999
73460W        W74324   4.329   0.475  28.168 -0.1082  0.0715 -0.0985
73461W        W74325   7.508  17.354  19.736 -0.1053 -0.2750 -0.1037
73462W        W74326  16.820   1.450   5.061 -0.1439 -0.0949  0.1075
73463W        W74327  15.263  13.603  14.289  0.2053  0.2120  0.0057
73464W        W74328   0.357  15.499   4.947 -0.1997 -0.2023  0.0297
73465W        W74329  18.523  17.120  26.846  0.1356  0.1127 -0.2413
73466W        W74330  24.379  15.650  11.273 -0.3227  0.3265  0.3922
73467W        W74331  18.677   6.987  20.189  0.0642 -0.1432 -0.1288
73468W        W74332   7.840   6.870  18.896  0.0725 -0.2701  0.2324
73469W        W74333   9.269   0.385  12.116  0.2069  0.1574  0.2052
73470W        W74334  17.065  20.619  18.619  0.0464  0.3773  0.2069
73471W        W74335   3.368  20.089  21.874 -0.0911  0.1506  0.1295
73472W        W74336  22.185  16.033   7.053 -0.0719 -0.1207 -0.0252
73473W        W74337  14.841  27.646  27.343  0.0410 -0.3484  0.1017
73474W        W74338  10.355  21.549  15.195 -0.0159 -0.4008  0.0265
73475W        W74339   6.822  17.170  21.088  0.2421  0.2143 -0.3375
73476W        W74340  15.611  23.034   5.756  0.1171  0.1096 -0.1380
73477W        W74341  11.732   6.220   0.506 -0.2160  0.0661 -0.0588
73478W        W74342   1.803  27.532   0.851 -0.3659  0.0726 -0.0779
73479W        W74343   1.771  28.188  25.377  0.2274  0.3037  0.4439
73480W        W74344  27.550  26.954  13.952  0.0758  0.3028  0.0731
73481W        W74345  14.020  22.377   1.279 -0.0122  0.0071  0.1039
73482W        W74346   3.618  16.579  17.048 -0.3222  0.1939  0.2170
73483W        W74347   1.339   2.973   6.503  0.0192  0.2031 -0.0689
73484W        W74348  18.900   5.532   7.775 -0.0088 -0.1970 -0.0949
73485W        W74349   8.319  20.144   5.215 -0.0643  0.0950  0.0310
73486W        W74350  27.432  25.197  11.194  0.0317  0.0407  0.0469
73487W        W74351  11.767  22.461   1.517 -0.3084  0.1164 -0.2889
73488W        W74352   5.430   6.866   3.973  0.1167  0.1772 -0.3102
73489W        W74353   5.650   7.927  17.859  0.0652 -0.1447 -0.1105
73490W        W74354   6.086  14.437   7.624  0.2269  0.1698  0.0038
73491W        W74355  10.667  23.085  19.811 -0.0827 -0.0017  0.1568
73492W        W74356  18.686   1.875  18.862  0.4828 -0.2045  0.0153
73493W        W74357  13.003  25.718   1.466  0.3792 -0.2506 -0.3148
73494W        W74358   0.219  16.585  28.094 -0.0435  0.2965  0.0325
73495W        W74359  20.607  19.029  26.004  0.1618  0.0154 -0.2269
73496W        W74360   5.872   0.870  11.319  0.0333 -0.0219  0.1907
73497W        W74361  15.871  15.729  19.970  0.0160 -0.0907  0.4161
73498W        W74362  12.353  18.017  29.091 -0.0565  0.0796  0.2464
73499W        W74363   0.341  27.327  21.437  0.1228 -0.1791 -0.1334
73500W        W74364   5.649   6.361  18.658 -0.2427 -0.1241  0.1804
73501W        W74365  28.602   7.489   8.861  0.0285 -0.0265 -0.0399
73502W        W74366  23.485  22.198   6.037 -0.2878 -0.1169 -0.1154
73503W        W74367  20.198  26.098  16.743 -0.4075  0.2979 -0.3188
73504W        W74368  24.807  27.761   9.784  0.2104  0.0068 -0.1540
73505W        W74369  26.992  24.778  28.514  0.2547 -0.3187 -0.0384
73506W        W74370  16.861  16.503   9.031 -0.1913 -0.1963 -0.0925
73507W        W74371  11.468  25.210   3.688  0.0031 -0.1510 -0.0606
73508W        W74372  25.399  16.467   6.731 -0.2088 -0.1850 -0.1738
73509W        W74373   8.131   4.320  27.557  0.2123  0.2134 -0.1334
73510W        W74374  27.225  28.683  28.642 -0.1198 -0.1361 -0.3836
73511W        W74375  11.082   9.052   0.232  0.0870  0.1855 -0.0187
73512W        W74376  26.619  20.878  26.385  0.1917  0.1336  0.3811
73513W        W74377  26.388   0.471  23.316  0.1403 -0.0285  0.1373
73514W        W74378   8.220  19.339   6.355  0.2350  0.0923 -0.3556
73515W        W74379  11.958  10.856   7.908  0.1641 -0.1162  0.0964
73516W        W74380  17.114  17.576  17.317  0.0110 -0.0722 -0.0214
73517W        W74381  27.047  14.406  29.084  0.1465 -0.1910 -0.1813
73518W        W74382   0.047  13.764  13.014 -0.0427  0.2375  0.0605
73519W        W74383   1.801  24.245  11.979  0.1528  0.0330 -0.0182
73520W        W74384  28.582  20.023  26.457  0.0722 -0.5023 -0.2032
73521W        W74385  10.025   9.481   0.408  0.3026  0.2024  0.0713
73522W        W74386  22.901  22.543  22.154  0.1970 -0.2879 -0.0954
73523W        W74387   9.952  17.292   6.963 -0.2461 -0.1076 -0.0738
73524W        W74388  23.056   3.247   1.822 -0.1415 -0.0960  0.1252
73525W        W74389  22.852  21.848  18.983  0.0120 -0.0190  0.1568
73526W        W74390   1.361  17.320   5.312 -0.2774 -0.1445 -0.0387
73527W        W74391   7.075  14.913  21.895 -0.0654  0.0103 -0.1232
73528W        W74392  20.555   0.308  17.565  0.2259  0.1902 -0.0553
73529W        W74393  14.194   3.823  28.113 -0.0017 -0.2477 -0.0826
73530W        W74394   5.941  10.385  28.545  0.1412 -0.0786 -0.3888
73531W        W74395  23.113   6.055  27.290 -0.0947 -0.0280  0.0772
73532W        W74396  26.550   7.037  24.624  0.2231  0.0882  0.0855
73533W        W74397  11.346  14.693  25.887  0.2091  0.2255  0.0039
73534W        W74398   5.796  27.847  15.447  0.0651 -0.3989  0.2196
73535W        W74399   4.840  21.673   6.947  0.0707  0.2548  0.2000
73536W        W74400   1.459   3.907   1.335 -0.2529  0.1231 -0.3418
73537W        W74401  14.798  24.175   5.469 -0.3440 -0.1013  0.0104
73538W        W74402  12.147   0.047   8.632 -0.0242 -0.1027 -0.2866
73539W        W74403  16.526  13.682  12.287  0.1440 -0.0561 -0.0189
73540W        W74404  22.180  24.120  22.983 -0.0605  0.2069  0.1678
73541W        W74405  28.280  15.234   2.749  0.1641 -0.0953  0.1262
73542W        W74406   1.734  23.927  27.109  0.0053 -0.0583  0.2177
73543W        W74407   6.117   8.311   3.553 -0.0064  0.0490  0.0322
73544W        W74408  13.950   6.104  27.253 -0.1111 -0.2538  0.2136
73545W        W74409   6.941  14.078   0.171  0.0365  0.2585  0.0129
73546W        W74410  17.908  15.195  28.489  0.1481  0.1459  0.0554
73547W        W74411   6.022   4.131  25.604 -0.0676 -0.0204 -0.1723
73548W        W74412  11.825  27.224  17.736 -0.0205 -0.3323  0.4066
73549W        W74413  25.887  22.364  18.186 -0.3678 -0.0069 -0.1786
73550W        W74414  28.506  16.584  12.608  0.2191 -0.1316  0.2281
73551W        W74415   2.256  24.360   5.553  0.1632  0.0752 -0.0409
73552W        W74416  22.678  14.306  18.920  0.1648  0.1747  0.1608
73553W        W74417  10.458  11.828  28.617 -0.0054  0.1000  0.1007
73554W        W74418  28.239  25.218  27.675  0.1160  0.2390 -0.3221
73555W        W74419   5.493  22.425   1.686  0.0430  0.2996 -0.0902
73556W        W74420  23.911   3.375  14.951  0.3059 -0.2078  0.0482
73557W        W74421   7.614  11.976   5.790  0.1786 -0.4056 -0.1349
73558W        W74422   6.555  26.711  18.519 -0.2670  0.3771  0.1387
73559W        W74423   8.287   3.509  27.944 -0.0866 -0.0186  0.1553
73560W        W74424  11.589  21.933  21.800  0.1967  0.2408 -0.1525
73561W        W74425  18.802  24.109  15.607 -0.0930 -0.1264  0.0423
73562W        W74426   6.740  13.068  27.364  0.1392 -0.1699  0.0995
73563W        W74427   3.666  10.577   8.401 -0.0804 -0.0087  0.2381
73564W        W74428   6.593  19.560  12.287  0.2394  0.0998  0.2137
73565W        W74429  12.416  27.972   6.836  0.0609 -0.2795  0.1872
73566W        W74430  12.384  21.178  17.568  0.1926 -0.1783 -0.0490
73567W        W74431  12.700  25.081   0.300 -0.0218 -0.3110 -0.1208
73568W        W74432  13.660   8.838  16.831 -0.5444 -0.0953  0.2882
73569W        W74433  25.905   0.934   6.328 -0.1470  0.0503  0.0907
73570W        W74434   2.216  28.008   2.757  0.3430 -0.0024  0.2913
73571W        W74435  18.106   2.536  23.090 -0.2445  0.1086 -0.1051
73572W        W74436  12.079  12.985  15.558 -0.3037 -0.3254  0.1655
73573W        W74437   3.911  21.822  20.594  0.0824  0.2005  0.0194
73574W        W74438   6.789  25.513   4.936 -0.3083  0.0609 -0.0890
73575W        W74439   5.067  15.696  10.796 -0.1684  0.0514 -0.1595
73576W        W74440  14.092   4.762   4.456 -0.1567  0.0419 -0.1530
73577W        W74441   5.809   2.311  26.003 -0.1954 -0.2352  0.2571
73578W        W74442   2.647  14.215   2.635 -0.0741  0.3615 -0.0825
73579W        W74443  18.384  23.100  21.309  0.2166 -0.0773  0.2668
73580W        W74444   9.409  22.504  18.348  0.0673  0.0031 -0.2873
73581W        W74445  10.642  27.961  17.844  0.0632 -0.1256  0.0817
73582W        W74446   6.763  15.248   0.126  0.0044 -0.1335  0.1541
73583W        W74447  13.123  19.011  12.344  0.1584  0.2691 -0.0116
73584W        W74448  22.133  28.910  17.589 -0.3940  0.2818 -0.0886
73585W        W74449  25.052  25.534  25.184  0.5218 -0.0148  0.3716
73586W        W74450   9.554   4.727   1.516 -0.1082 -0.1353  0.2028
73587W        W74451  14.016   5.939  21.438  0.1227 -0.3145  0.5738
73588W        W74452  26.925  22.045  23.861 -0.1121 -0.0944 -0.0313
73589W        W74453   8.282   8.476  23.732  0.2420 -0.0420 -0.0414
73590W        W74454  25.071  14.653  11.978 -0.0566  0.1645  0.1330
73591W        W74455  15.380   7.016  27.439  0.1803  0.2342  0.1326
73592W        W74456  13.354  13.808  24.674  0.3723 -0.1466 -0.3738
73593W        W74457  20.913  19.717  27.977  0.1377 -0.1307 -0.0426
73594W        W74458   9.385  15.859  10.928  0.1576 -0.0728  0.1052
73595W        W74459  17.610  18.040  24.626  0.0774  0.0756 -0.0878
73596W        W74460  19.995  17.025   1.545 -0.1215 -0.1476 -0.2104
73597W        W74461   3.585  27.640  19.524  0.1550 -0.2311  0.1038
73598W        W74462  10.407  24.437  23.874 -0.1069  0.2567  0.3155
73599W        W74463  22.098   4.978  27.593 -0.1407  0.0928 -0.0236
73600W        W74464   5.542  18.633  13.838 -0.3721 -0.1053 -0.0665
73601W        W74465   4.552  16.667  14.211  0.1901  0.2414 -0.0489
73602W        W74466  18.934  12.882   6.566 -0.1218 -0.0450  0.2263
73603W        W74467   7.610  26.514  24.770  0.1552  0.0025  0.0648
73604W        W74468  22.652  22.095   1.030 -0.0753  0.0527  0.1662
73605W        W74469  19.025   4.449  25.641  0.0736  0.0526  0.1358
73606W        W74470  19.702  14.080   0.471  0.3199 -0.1415  0.2428
73607W        W74471   9.254  26.390  24.968  0.0113 -0.0254 -0.2857
73608W        W74472   7.597   2.177  28.668  0.2032  0.3406  0.0691
73609W        W74473   2.063  17.842   4.475  0.2971 -0.0286 -0.0990
73610W        W74474   2.838  29.039  27.344 -0.1169  0.1517 -0.2714
73611W        W74475  20.253   2.138   7.642  0.2824 -0.3293  0.1937
73612W        W74476  28.153   3.851  28.526 -0.0438 -0.0844  0.0973
73613W        W74477  20.890  24.764  22.516  0.1186 -0.2122  0.0545
73614W        W74478  16.116   3.218  11.585  0.0393 -0.1418  0.1406
73615W        W74479  23.332  10.495   0.922  0.0813  0.1197  0.0817
73616W        W74480  28.132   5.135   4.628 -0.1217  0.1703  0.0077
73617W        W74481  28.521   2.636  22.148  0.2716  0.0258  0.3664
73618W        W74482  11.696  29.034  24.700  0.2057 -0.0746 -0.2863
73619W        W74483   6.235  20.351  17.223  0.0463 -0.1328  0.1177
73620W        W74484  27.751  25.686  22.549 -0.3629  0.2435  0.1214
73621W        W74485   2.931  23.018  11.990 -0.0891 -0.0119 -0.1750
73622W        W74486   1.393  23.827   1.610 -0.1297 -0.1404  0.0521
73623W        W74487  26.001  20.979  19.834 -0.1744 -0.2814  0.1116
73624W        W74488  24.390  20.491  25.287  0.3075 -0.3010 -0.1754
73625W        W74489   3.876  23.062   6.633 -0.1379 -0.1729  0.1047
73626W        W74490  14.491  22.468   3.238  0.4465  0.1837  0.1573
73627W        W74491   5.133  15.944  25.828  0.0853 -0.1909  0.2452
73628W        W74492   1.312  19.261  20.698 -0.4417  0.0272  0.3804
73629W        W74493   7.158   3.052   6.805  0.0422  0.3835  0.0102
73630W        W74494   3.149   0.432   8.571 -0.0076  0.4039 -0.2387
73631W        W74495  21.961  23.695  21.135 -0.0373 -0.0865  0.3193
73632W        W74496   3.148  28.465   1.109 -0.0304  0.4346 -0.2098
73633W        W74497  10.935   7.597  18.982 -0.1164  0.2719  0.1027
73634W        W74498  25.313  10.170   0.195  0.0861 -0.1655  0.1353
73635W        W74499  24.209  20.769   7.597 -0.2356 -0.0417  0.0525
73636W        W74500  12.334  27.182   3.391 -0.0824  0.0252  0.2677
73637W        W74501  15.907   7.440  23.211 -0.3704  0.1943  0.0326
73638W        W74502  27.549  17.001  13.859  0.0377  0.0560  0.2873
73639W        W74503  24.811  28.258  27.923 -0.1692 -0.1401  0.3194
73640W        W74504   8.419  20.177   0.988 -0.1381 -0.1348  0.0283
73641W        W74505   3.456  16.352   6.504  0.1452 -0.0887  0.0936
73642W        W74506   3.360  15.043  26.898  0.0032  0.1432 -0.1187
73643W        W74507  24.176   0.775   1.595 -0.4141  0.2490 -0.5990
73644W        W74508  28.397  14.606   2.777 -0.1134 -0.0711  0.0087
73645W        W74509  22.799  21.769  25.572  0.1040 -0.1702 -0.0376
73646W        W74510  12.376  16.009  17.514 -0.1850  0.1637  0.3212
73647W        W74511  15.113   1.979  19.498 -0.2163 -0.4339 -0.0860
73648W        W74512   9.479  21.438  23.299  0.2627 -0.1972  0.1965
73649W        W74513  12.241  19.345  27.954 -0.0516 -0.2463  0.0788
73650W        W74514  27.978  27.957  29.034  0.1357 -0.0376  0.1798
73651W        W74515  13.925  23.302  13.784 -0.1609  0.3710 -0.2781
73652W        W74516  28.905  23.731   1.858  0.0690 -0.1554  0.4179
73653W        W74517   4.882  12.747  15.786  0.2053  0.4255 -0.1175
73654W        W74518   1.000  20.533  12.925  0.2151 -0.0503  0.1830
73655W        W74519   8.065  26.646  15.397 -0.0131 -0.0447 -0.0211
73656W        W74520   9.498  11.723   0.376  0.2181 -0.1465  0.2405
73657W        W74521  21.189   1.871  12.153 -0.1953 -0.0541  0.0071
73658W        W74522   5.509  13.961  13.091  0.0780 -0.1259  0.1368
73659W        W74523  11.762  15.300  22.784 -0.3004  0.0865 -0.0577
73660W        W74524  22.541  25.646  22.094  0.0896  0.1983  0.1143
73661W        W74525  10.132   1.474  25.842 -0.2111  0.1940  0.2039
73662W        W74526   2.881  20.401   3.343  0.1626  0.0101  0.1480
73663W        W74527  22.738  17.059   7.196 -0.0447  0.5540  0.3094
73664W        W74528  18.618  25.814  15.038  0.0154 -0.0884 -0.3246
73665W        W74529  11.754  26.084  13.050 -0.1582 -0.1754  0.1037
73666W        W74530  24.205   7.903  28.227  0.1881  0.2099  0.0765
73667W        W74531   6.383  23.640   8.587  0.0890  0.0142 -0.1132
73668W        W74532   4.170  12.526  24.850  0.0266  0.1292 -0.0902
73669W        W74533   3.877  12.047  24.812  0.3720 -0.0560 -0.0041
73670W        W74534   4.680   8.660   9.104 -0.3013 -0.2052  0.0407
73671W        W74535  15.353   0.045   3.577 -0.2824  0.1202  0.0979
73672W        W74536   5.795  14.665   3.874  0.1196 -0.0110 -0.0351
73673W        W74537   5.199  27.031  27.549  0.0063 -0.3220  0.1408
73674W        W74538  27.344  26.281  26.075  0.3265  0.2026  0.2343
73675W        W74539   2.988  11.764  17.258 -0.0289 -0.3555  0.0104
73676W        W74540  11.169  20.381  11.716  0.0795 -0.3852 -0.1942
73677W        W74541   3.806   0.906  22.995 -0.2557  0.1355 -0.2333
73678W        W74542  13.436   1.125  28.236  0.0317 -0.0799 -0.0826
73679W        W74543  28.358  16.096   0.901  0.2215  0.1540 -0.2440
73680W        W74544  24.816   7.956  27.584  0.0029  0.3313 -0.1118
73681W        W74545   6.926  26.588   6.619  0.0962  0.1169  0.0382
73682W        W74546  14.314  26.216  22.913  0.0261  0.1404  0.3004
73683W        W74547   9.645  22.612  22.565 -0.1153 -0.0764  0.5962
73684W        W74548   1.490   7.927  15.731  0.2585 -0.0567  0.0112
73685W        W74549  27.706  25.089  24.527  0.1133 -0.2455 -0.0587
73686W        W74550  12.286   1.987  22.528  0.0569  0.0601  0.2702
73687W        W74551   9.282  17.345  28.913 -0.1196  0.5640  0.0461
73688W        W74552   6.177  26.473   0.869  0.0808 -0.1131  0.0696
73689W        W74553  17.508  16.498   5.521  0.0970  0.2892 -0.3916
73690W        W74554  13.818  25.103  19.221 -0.2302  0.3341 -0.1173
73691W        W74555  13.973   8.458   6.740  0.1295 -0.2011  0.0037
73692W        W74556  13.185  28.052  13.621  0.2068  0.0277 -0.0126
73693W        W74557  25.447  12.153   2.628 -0.0086  0.2085  0.0620
73694W        W74558   6.501  12.511  21.794 -0.0769  0.2129 -0.3209
73695W        W74559   8.363  23.791   2.910  0.0529  0.4104  0.0752
73696W        W74560  22.850  26.747  10.790 -0.0394 -0.1285 -0.1540
73697W        W74561  15.259  19.176  13.551 -0.0019  0.0182  0.0173
73698W        W74562   5.295  18.385  22.127 -0.0064  0.1575 -0.0068
73699W        W74563   0.139  24.984   5.236 -0.1621 -0.0280  0.0711
73700W        W74564  22.563  22.481   6.966 -0.0357 -0.0106  0.1792
73701W        W74565   0.768   7.922   3.443  0.1027 -0.1361  0.0164
73702W        W74566   2.681   4.246  26.724 -0.2184 -0.3384 -0.2445
73703W        W74567  19.863   4.512   0.031 -0.2469  0.0939 -0.2360
73704W        W74568  22.843   4.239  21.921  0.0574 -0.0194  0.0212
73705W        W74569   1.205  15.877   2.205  0.2127  0.0274 -0.3750
73706W        W74570   6.545   7.626  23.575 -0.0984 -0.0815 -0.0001
73707W        W74571   7.290  15.717  17.205 -0.1971  0.1027 -0.1533
73708W        W74572  20.838  16.216  19.712  0.1048  0.0388  0.3429
73709W        W74573  15.050   2.771   0.098 -0.1056 -0.0359 -0.0529
73710W        W74574   8.143   9.537   2.135 -0.2796  0.1389  0.1513
73711W        W74575   8.427   6.552   1.909  0.1714  0.1354  0.0162
73712W        W74576   8.154  10.785   4.760  0.4714  0.1049 -0.1647
73713W        W74577   9.463  14.059  18.854 -0.0786  0.0900 -0.4150
73714W        W74578  11.851  22.370  28.405  0.2344 -0.0637 -0.0346
73715W        W74579  25.756  23.995  21.773  0.0874 -0.0888 -0.0223
73716W        W74580  12.680  12.917  12.554 -0.3069 -0.2505 -0.2823
73717W        W74581  17.570  26.335  24.347  0.3942  0.0841 -0.3366
73718W        W74582  13.221  19.715  20.896  0.1188 -0.2622  0.3751
73719W        W74583  19.953  16.416   6.874 -0.1398 -0.1814 -0.0967
73720W        W74584  25.755   2.435   0.439 -0.0697  0.0102 -0.4594
73721W        W74585  17.478  16.326  22.233  0.2230  0.0288 -0.0946
73722W        W74586  10.706  27.933  19.311 -0.2392  0.0438  0.1906
73723W        W74587   3.272  25.924  28.664  0.3866 -0.0289 -0.2633
73724W        W74588  10.588  26.035  16.418  0.3811 -0.2058 -0.0356
73725W        W74589  19.699  15.616  20.853 -0.4266 -0.1839  0.2816
73726W        W74590  27.524   5.676  29.037 -0.1390  0.3109 -0.2282
73727W        W74591  29.035  27.876   0.868  0.0866 -0.0462  0.0333
73728W        W74592  13.598   6.484  22.672 -0.0838  0.2975  0.2410
73729W        W74593  11.259  21.521   0.208  0.0770  0.0935 -0.0410
73730W        W74594  26.304   0.883   8.381 -0.2299  0.1755 -0.1701
73731W        W74595  26.255  28.326  24.257 -0.0358  0.3327  0.0924
73732W        W74596  27.871  19.851  22.161  0.0289  0.0439  0.1073
73733W        W74597   2.969   1.282  29.136  0.2081  0.0048 -0.1651
73734W        W74598   0.557  12.001   9.206 -0.0233 -0.2682  0.0308
73735W        W74599  19.874  27.302  22.527 -0.0956 -0.3230 -0.1020
73736W        W74600  10.766  24.499   3.904  0.0017  0.1144  0.1062
73737W        W74601   6.816  17.281  14.095 -0.0775 -0.2207  0.0855
73738W        W74602  17.615  25.574   5.609  0.0450 -0.0402  0.0372
73739W        W74603  10.058   2.599  23.009  0.0130 -0.1112 -0.0024
73740W        W74604   9.052   3.153   7.320 -0.0422 -0.2910 -0.0046
73741W        W74605  27.167  16.800  24.857 -0.0807  0.2426  0.0163
73742W        W74606   9.784  19.684  10.551 -0.1653 -0.3480  0.2322
73743W        W74607  25.176   3.174   0.160 -0.4136 -0.2404  0.1964
73744W        W74608  27.557   6.596   6.112  0.0066  0.0301  0.1311
73745W        W74609   1.679  26.409   8.058 -0.2726 -0.1899 -0.1092
73746W        W74610  28.579  16.225   8.111  0.1054 -0.3166  0.0708
73747W        W74611  17.850  16.080   3.317 -0.1090  0.1915  0.0274
73748W        W74612  10.883   3.899  27.127  0.2393 -0.1305  0.1255
73749W        W74613  10.354   3.619  15.186  0.2789  0.1335 -0.2341
73750W        W74614   2.967  20.118  25.198  0.3699 -0.0163 -0.0666
73751W        W74615  11.488  23.950  23.271  0.1669 -0.2332  0.0234
73752W        W74616  28.642  21.962  15.007 -0.2940 -0.2127 -0.1888
73753W        W74617  10.519   8.305  20.095  0.0177 -0.1303  0.2599
73754W        W74618   2.452  20.172   6.075  0.3884 -0.0654 -0.0635
73755W        W74619  15.749  21.718  23.006 -0.2596  0.2709  0.1943
73756W        W74620   5.479  26.645  16.604  0.0210 -0.3463  0.1382
73757W        W74621   1.565  24.298  22.635 -0.0824 -0.0545 -0.1913
73758W        W74622   1.647  21.430  18.518 -0.3827 -0.0695  0.0708
73759W        W74623   8.709  19.258   6.386 -0.2597 -0.0717 -0.0921
73760W        W74624  11.596   2.739  10.052 -0.2159 -0.1645  0.0660
73761W        W74625   9.645  11.047  23.324 -0.1551 -0.2428  0.1899
73762W        W74626  23.840  12.442  25.359  0.1357 -0.0496 -0.2243
73763W        W74627  19.055   9.496  18.276 -0.2029  0.0265 -0.2313
73764W        W74628  20.351  25.330  24.607 -0.0258 -0.0656 -0.1660
73765W        W74629   2.622   6.895   4.917 -0.0127  0.1059  0.0609
73766W        W74630  11.346  19.932  26.620 -0.1803 -0.0413  0.1737
73767W        W74631  25.088  26.290  10.948 -0.1070  0.1806  0.3091
73768W        W74632   6.347  19.820   2.511 -0.1852  0.3646  0.0880
73769W        W74633   3.812   3.743   6.810  0.4026 -0.1354 -0.0683
73770W        W74634  19.983   4.173  22.895 -0.0349  0.1500 -0.1944
73771W        W74635  22.135   6.935  27.112 -0.2460 -0.2769  0.2047
73772W        W74636   7.195  11.535   7.569 -0.1597  0.1331 -0.0242
73773W        W74637   0.744  23.551   0.687  0.2577 -0.0531 -0.1024
73774W        W74638   1.778  18.834   2.789  0.0718  0.0008 -0.5086
73775W        W74639  10.385   5.526  27.778 -0.1594  0.1964 -0.0860
73776W        W74640   0.310  23.937  16.002  0.3019  0.0403  0.0142
73777W        W74641  15.479  27.487  17.639 -0.0260  0.1089 -0.0783
73778W        W74642  21.029  19.074  25.658 -0.1182 -0.1032  0.0292
73779W        W74643  10.546   8.599   2.006  0.2452 -0.3249 -0.0927
73780W        W74644   5.765  16.854  22.067 -0.0080 -0.1103  0.1195
73781W        W74645  20.761  22.736   4.522 -0.1191 -0.0205 -0.0855
73782W        W74646  23.316   5.502  13.214  0.2829 -0.1108 -0.3051
73783W        W74647  27.280  24.690  25.324 -0.0038 -0.1531 -0.1466
73784W        W74648  11.632  24.557  25.026  0.0646 -0.0903  0.3270
73785W        W74649  22.186   7.404  17.494 -0.3159 -0.0538 -0.0664
73786W        W74650   0.600   2.952  25.477 -0.0533 -0.0856 -0.1360
73787W        W74651  24.552  13.409  11.770 -0.0927 -0.0422  0.2681
73788W        W74652  15.888  10.740  17.741 -0.1500 -0.2685  0.0502
73789W        W74653   1.251  18.283  26.464 -0.1863 -0.1651 -0.1896
73790W        W74654   6.012  20.272  11.660 -0.1411  0.2531 -0.3368
73791W        W74655  11.811  14.903  25.984  0.1631  0.0158  0.0038
73792W        W74656  19.564  19.587   0.930 -0.0722 -0.1329  0.4037
73793W        W74657  23.220   5.240  27.163 -0.2986 -0.0745  0.1577
73794W        W74658   4.789  27.434   2.875  0.0826 -0.1052  0.2955
73795W        W74659  18.541   1.830  19.732 -0.1955  0.1265  0.1860
73796W        W74660   5.328  18.565  17.578 -0.0998 -0.5550 -0.0191
73797W        W74661  12.499  17.059   6.597  0.1369  0.1163 -0.2645
73798W        W74662  12.279  24.259  19.738 -0.0310 -0.0231  0.0800
73799W        W74663  23.691  13.849  16.793 -0.0758 -0.2258  0.2838
73800W        W74664   7.403   0.374   1.475  0.1184  0.1533 -0.2432
73801W        W74665  26.084  19.191  22.397  0.0460 -0.3004  0.1678
73802W        W74666   3.004   1.732  26.186 -0.1440 -0.1337 -0.0933
73803W        W74667   0.137  23.503  20.202  0.1391 -0.2094  0.0381
73804W        W74668   7.166   7.331  24.083 -0.0067  0.1433 -0.0841
73805W        W74669  26.137  17.163  25.752 -0.0842  0.2639 -0.1934
73806W        W74670  11.287  26.843   3.215  0.0253  0.1296 -0.0888
73807W        W74671  17.624   3.738   0.597  0.0582 -0.1761  0.0793
73808W        W74672  18.857  28.342   6.949 -0.2174  0.2950 -0.1472
73809W        W74673  16.708  14.404  25.601  0.1711 -0.2166 -0.0151
73810W        W74674   5.982  23.089  28.292  0.0362 -0.0288 -0.2223
73811W        W74675   4.150   8.018  12.241  0.2246  0.3333 -0.0325
73812W        W74676   8.082  17.799  28.226 -0.0472 -0.2834  0.3131
73813W        W74677   8.785   2.717  28.449  0.1459  0.0789  0.1539
73814W        W74678  17.315  16.594  17.393 -0.0469  0.0978 -0.0139
73815W        W74679   0.715  25.165  12.563  0.0146 -0.2924  0.2641
73816W        W74680   4.298   2.759   5.738  0.1217 -0.1241 -0.1989
73817W        W74681   2.890   7.608  29.035 -0.0069  0.2979  0.1098
73818W        W74682  26.924  22.384   8.781  0.0927  0.1340  0.0649
73819W        W74683   8.094  17.646   7.209  0.0553  0.1080 -0.3695
73820W        W74684   3.678  18.304  12.091  0.0904 -0.2163 -0.3092
73821W        W74685   6.206   1.936  28.173  0.0944 -0.2830 -0.2769
73822W        W74686   8.491   1.861   0.776 -0.0751  0.2892  0.0876
73823W        W74687   5.928   2.313   2.819 -0.1937 -0.1460 -0.3882
73824W        W74688   7.542  14.703  25.488 -0.1034  0.2575  0.0941
73825W        W74689  21.688   8.334   7.234  0.0724 -0.2018  0.0848
73826W        W74690   4.479  16.581  10.955  0.2250  0.2286  0.1262
73827W        W74691   7.762  28.504  24.322 -0.1523  0.3776  0.0463
73828W        W74692  20.837  10.882  15.259 -0.1825  0.0227  0.0728
73829W        W74693  18.372  28.434   0.684  0.1370 -0.0944 -0.1966
73830W        W74694  21.568   2.656   5.806 -0.1566 -0.0110  0.0424
73831W        W74695  17.295  17.589  20.244 -0.1359 -0.1635 -0.1301
73832W        W74696  14.208  18.044   1.432 -0.1649 -0.0662 -0.2049
73833W        W74697   6.085   1.042   5.394 -0.1165  0.1175 -0.1191
73834W        W74698  12.905  20.323   4.081 -0.1145 -0.3190  0.0625
73835W        W74699  11.412  28.170  22.391  0.2236  0.0895 -0.1359
73836W        W74700  12.704  17.811  26.944 -0.0897  0.0474  0.1708
73837W        W74701   6.471   8.840  24.199 -0.0501  0.4157  0.1420
73838W        W74702  21.351   7.851  12.972  0.0426  0.0983  0.2640
73839W        W74703  19.961  22.548   5.711 -0.0106  0.1939 -0.1078
73840W        W74704   1.046   1.408  10.171  0.0866  0.2832  0.0525
73841W        W74705  23.396  27.206   4.392  0.2921 -0.0372 -0.2747
73842W        W74706  26.574  19.985   1.513 -0.2871  0.0356 -0.2910
73843W        W74707  28.801  25.929  22.315 -0.0419 -0.1425 -0.0117
73844W        W74708   7.493  24.808   5.441 -0.2486 -0.2074  0.0078
73845W        W74709  18.402  14.977   3.331 -0.0572 -0.1936  0.0111
73846W        W74710  13.228  20.560  13.067 -0.0092  0.0893 -0.2991
73847W        W74711  25.560  15.909   6.960 -0.1428 -0.0874  0.2373
73848W        W74712  12.258  23.012   0.814  0.0622  0.0073  0.0655
73849W        W74713  12.808   5.904  18.613 -0.4122  0.0284  0.2803
73850W        W74714  19.361  19.782  24.226  0.0145  0.0367  0.0370
73851W        W74715   7.552  11.274  15.024  0.0315  0.0726 -0.0489
73852W        W74716   0.210   2.611  25.347  0.2073 -0.0992 -0.0670
73853W        W74717  22.574   2.497  28.320 -0.1834  0.0321 -0.0623
73854W        W74718   2.020  24.457   3.784  0.4794  0.5520  0.0826
73855W        W74719   6.771  21.376  10.386 -0.2642  0.2007  0.0509
73856W        W74720  13.527   4.106  16.087 -0.1550  0.0809  0.3613
73857W        W74721   8.288  24.105  12.657  0.0415  0.1751  0.2223
73858W        W74722  16.604   9.707   3.762  0.2115  0.1010  0.0527
73859W        W74723  12.253   8.897   1.695 -0.0666  0.0691 -0.1913
73860W        W74724   7.662   2.840  28.938 -0.0061 -0.1420 -0.3025
73861W        W74725  11.882  27.481  10.067  0.0089 -0.1054  0.1122
73862W        W74726  20.790  20.866   8.353 -0.0018 -0.0330  0.1273
73863W        W74727  12.673   5.687  13.517  0.0437  0.1735 -0.0110
73864W        W74728  28.251  20.868  24.017 -0.0647 -0.0204 -0.2190
73865W        W74729   8.157  12.333   8.877  0.1729 -0.3945  0.1670
73866W        W74730  28.332  27.837   4.420 -0.2219 -0.2809  0.1283
73867W        W74731  18.200  23.838   4.048  0.2560 -0.1635  0.1480
73868W        W74732  17.021   4.226  26.430  0.0608  0.0877  0.0964
73869W        W74733   2.338  26.143   3.537  0.1920  0.1632 -0.2604
73870W        W74734  21.230  17.478  15.833  0.0268  0.2301  0.1636
73871W        W74735   7.926   7.031  11.270  0.2006  0.1563 -0.2657
73872W        W74736   8.845  26.419   0.951  0.0254 -0.2703 -0.0913
73873W        W74737   6.970   5.837   2.403  0.1396  0.2005 -0.1985
73874W        W74738  29.114  26.425   8.380 -0.0444 -0.3446 -0.0287
73875W        W74739   4.769  23.708   3.948 -0.2791  0.1783 -0.0162
73876W        W74740  19.626  28.978  10.166  0.2291  0.1268 -0.0997
73877W        W74741  12.215   6.062  23.677  0.0608  0.0482  0.2045
73878W        W74742  21.964   2.422   5.689  0.0346 -0.0444  0.1157
73879W        W74743   1.855  20.037   5.055 -0.2197  0.2053 -0.4909
73880W        W74744  21.007   9.621   4.962  0.2070  0.0177  0.0991
73881W        W74745   3.855  25.917   1.492  0.3185  0.1841  0.0374
73882W        W74746  20.839  14.252  27.341  0.2843  0.0561 -0.0941
73883W        W74747   3.230  21.636  19.825  0.0255  0.0384 -0.2555
73884W        W74748  24.736   2.909   7.931  0.0032  0.1048 -0.0973
73885W        W74749   8.510   8.758  18.459 -0.0304  0.1830 -0.0668
73886W        W74750  16.925   2.535  29.094 -0.0342 -0.0314  0.4389
73887W        W74751  11.842  22.955  16.009 -0.5354  0.3217 -0.0393
73888W        W74752   8.840   8.753   7.228  0.2382 -0.0487  0.0316
73889W        W74753  25.889   7.604  14.765 -0.0416  0.0808 -0.2728
73890W        W74754  25.393   4.721   6.140  0.2220  0.0201  0.3051
73891W        W74755  23.387   4.870   4.861 -0.3909 -0.1745 -0.0439
73892W        W74756  16.795  26.567   8.410 -0.0972 -0.2830  0.2219
73893W        W74757  24.566   8.316  26.146  0.0624 -0.2392 -0.1056
73894W        W74758   4.223  13.606   2.196  0.2204  0.1375 -0.0487
73895W        W74759   6.406   4.583  10.490  0.0417 -0.1844  0.2840
73896W        W74760  11.611  21.416  14.682  0.0202 -0.1265 -0.0407
73897W        W74761   5.491  26.663  25.818  0.2836 -0.1743  0.4426
73898W        W74762  12.131  11.761  28.638  0.1722 -0.0528  0.0396
73899W        W74763   4.324   6.723  15.630  0.2390 -0.0509  0.0419
73900W        W74764   6.440  28.447  14.824 -0.0177  0.1084 -0.0801
73901W        W74765  12.890   4.938   0.578  0.0976  0.0137  0.2625
73902W        W74766   0.785   5.055   5.726 -0.1533 -0.2552  0.2221
73903W        W74767  14.414  22.278  23.640  0.0934 -0.2368 -0.0987
73904W        W74768   6.697  28.795   9.138 -0.0113 -0.0131  0.0998
73905W        W74769  11.407  18.640  19.140 -0.0725 -0.1343  0.0619
73906W        W74770  13.974  21.370  28.834  0.0753  0.1559 -0.0136
73907W        W74771  26.581  22.732  20.195  0.1489  0.2439 -0.0797
73908W        W74772   3.400  22.756  12.699 -0.1040  0.2222 -0.0324
73909W        W74773  19.778   1.035   4.474 -0.1087 -0.1911 -0.1390
73910W        W74774  19.253   5.767  22.634  0.1054  0.1157  0.1646
73911W        W74775   2.150  27.569  12.769  0.0863  0.0514 -0.0975
73912W        W74776   5.713   5.402  16.129 -0.0727 -0.0529 -0.1650
73913W        W74777  11.146  22.242  22.904 -0.1512 -0.1690  0.2726
73914W        W74778   2.565  25.129   4.461  0.2973  0.0571  0.3104
73915W        W74779  21.098  13.471  15.220 -0.0644 -0.2845 -0.0831
73916W        W74780  26.921   3.126  27.081  0.0600  0.2122 -0.3160
73917W        W74781   9.110   4.258  27.122  0.1743  0.2842  0.0358
73918W        W74782   8.184   4.688  20.449 -0.1978  0.0881  0.2201
73919W        W74783  15.824  12.148   2.676 -0.4059 -0.0702  0.1457
73920W        W74784  22.616   3.435  15.025 -0.1042 -0.2282  0.0350
73921W        W74785  22.003   3.251  21.324 -0.1095  0.0747  0.3600
73922W        W74786   9.367  18.633  17.581 -0.0106 -0.1895 -0.0509
73923W        W74787   7.234  25.861  10.573  0.2299 -0.3457  0.0204
73924W        W74788   3.887   5.938  10.536 -0.1261 -0.0585 -0.2454
73925W        W74789   1.702   9.513   2.748 -0.0672  0.0960  0.0275
73926W        W74790  20.384  19.217   7.090 -0.0118 -0.2063 -0.0082
73927W        W74791   6.647   5.390  10.624 -0.1678  0.1075  0.1107
73928W        W74792   8.779  27.907   0.008  0.3219  0.0892  0.2429
73929W        W74793  13.975  26.643  22.929  0.0374 -0.3154  0.3417
73930W        W74794   9.900  16.402  27.113 -0.0820 -0.0535  0.1162
73931W        W74795  15.487  18.852   7.589 -0.0608 -0.1583  0.0619
73932W        W74796  12.704  19.158  21.698  0.0916  0.0458 -0.1123
73933W        W74797   6.174   1.263  26.089 -0.1745 -0.0636 -0.0081
73934W        W74798   5.483  27.572   6.064 -0.1180 -0.0600  0.2174
73935W        W74799  18.266   3.198   0.006  0.0247  0.0544  0.0414
73936W        W74800  13.696  16.859  13.722  0.0772 -0.1264 -0.0918
73937W        W74801  21.818  14.335   9.239  0.0275 -0.0024 -0.3842
73938W        W74802   8.340  26.099  12.601  0.1454  0.2419 -0.1684
73939W        W74803  11.923  19.273  23.860  0.2837  0.0090 -0.0144
73940W        W74804  21.343  24.329  10.807 -0.0798  0.1577  0.0212
73941W        W74805   1.130  28.903   3.155 -0.0610  0.1066 -0.2790
73942W        W74806  10.055  25.722   4.829 -0.2612 -0.1831  0.1549
73943W        W74807  21.664  17.170   7.756  0.1235  0.2380  0.0238
73944W        W74808  27.515  22.516  21.523 -0.0850  0.3400 -0.1604
73945W        W74809  13.648   0.697   5.526 -0.1491 -0.0011  0.0118
73946W        W74810   9.904   6.229  28.888  0.1408  0.0346 -0.1504
73947W        W74811  25.212  20.096  14.743 -0.0074 -0.2066  0.0959
73948W        W74812  24.907  23.236   6.914 -0.0337  0.0045  0.1817
73949W        W74813   5.359  20.807  10.190  0.1016 -0.1369 -0.2607
73950W        W74814  17.659  18.309  18.372  0.1426 -0.3180  0.1329
73951W        W74815  19.367   4.064   7.196  0.0208 -0.1829 -0.0638
73952W        W74816   5.519  22.324  28.491 -0.3397  0.4361  0.0584
73953W        W74817  17.663   5.194  17.049  0.1648 -0.1380  0.2077
73954W        W74818  20.924  14.452   7.839  0.3527  0.0575  0.1623
73955W        W74819  18.399  11.487   2.934  0.0562 -0.0056  0.0881
73956W        W74820   3.385   1.742  17.534 -0.0328  0.0123  0.4719
73957W        W74821   7.194  14.494  25.063 -0.0980  0.3018 -0.1795
73958W        W74822  18.471   1.765   0.006  0.0817  0.1478  0.3111
73959W        W74823   3.252   6.054  21.720  0.2844 -0.0431  0.1574
73960W        W74824  28.886  19.989   6.792 -0.2206  0.0013  0.1699
73961W        W74825   4.211   2.089  15.640 -0.3053  0.1678 -0.1203
73962W        W74826   9.278  28.681  20.546 -0.1897 -0.0640 -0.0919
73963W        W74827  26.292  11.432   4.556  0.2147 -0.2192  0.1422
73964W        W74828   6.791   0.108  22.010 -0.0334 -0.3672  0.2507
73965W        W74829  27.965   9.852  24.316  0.1276 -0.1257 -0.0133
73966W        W74830   3.799   1.139  23.657 -0.0058 -0.0634  0.0802
73967W        W74831   7.297  25.118  12.192 -0.1526 -0.1032  0.0661
73968W        W74832   2.856  13.656   6.457  0.1468 -0.1444 -0.0388
73969W        W74833  27.455   3.224  24.140 -0.0173 -0.3489 -0.0786
73970W        W74834  16.449   2.464  25.711 -0.3663  0.0663 -0.1210
73971W        W74835  17.860   2.775  12.189  0.0805  0.3558  0.0310
73972W        W74836  17.073  26.301   3.530  0.0058 -0.0051  0.0353
73973W        W74837  16.942  22.015  26.270 -0.2516 -0.3278  0.0364
73974W        W74838   4.489   2.932  28.924  0.0847 -0.2825  0.1520
73975W        W74839   2.430  28.493   8.138  0.0081  0.0033  0.1404
73976W        W74840  18.834   6.101  15.401  0.0319  0.2605 -0.1643
73977W        W74841   9.376   0.763  28.619 -0.0102  0.1972  0.5002
73978W        W74842   0.424  23.137   9.367  0.1317  0.1193  0.0904
73979W        W74843  21.627  10.979   1.030 -0.3277  0.2665 -0.1923
73980W        W74844  11.698  10.887  20.177 -0.0983 -0.0807 -0.1206
73981W        W74845   9.060  23.755   8.382 -0.1279  0.0962 -0.0583
73982W        W74846  14.011  20.257  16.466  0.0808 -0.0780 -0.2549
73983W        W74847   1.203  17.416  12.781  0.3553 -0.1318  0.0704
73984W        W74848   3.614   7.339  20.548  0.0591 -0.2799 -0.0417
73985W        W74849  15.276  24.276   4.356 -0.0065 -0.1397 -0.1712
73986W        W74850  21.686   1.590  21.699  0.0791 -0.0543  0.0686
73987W        W74851   6.764  25.573   3.733 -0.0205 -0.4621  0.0969
73988W        W74852   2.289  22.337  23.065  0.1392  0.1269 -0.0087
73989W        W74853  10.520  15.290  22.714  0.0397 -0.4517  0.0319
73990W        W74854   2.063  11.802  26.383 -0.0621 -0.0024  0.5107
73991W        W74855  19.664  17.356  14.005  0.0499 -0.2709 -0.0066
73992W        W74856  19.135   2.368   2.352  0.0237 -0.3830  0.0054
73993W        W74857  28.580   4.030   9.348 -0.1540  0.0346  0.1423
73994W        W74858   9.814  23.884   1.175  0.1762 -0.1175  0.2362
73995W        W74859   8.573   2.853  15.498  0.1259  0.1790 -0.0410
73996W        W74860   5.641  26.179  18.522 -0.0769 -0.1167  0.0422
73997W        W74861  12.922  22.164  10.117 -0.0517 -0.1313 -0.2183
73998W        W74862  14.265   8.316  21.764  0.1814  0.0939 -0.0358
73999W        W74863  24.592   6.689  17.583 -0.1026 -0.1375  0.0410
74000W        W74864  21.936  23.833  10.978 -0.0464  0.0634  0.1973
74001W        W74865  13.318   8.697  17.973  0.0039 -0.0418  0.1965
74002W        W74866  20.408  29.099   2.050 -0.1954 -0.0244  0.1478
74003W        W74867  21.833  14.413  10.469 -0.0067  0.0588  0.2191
74004W        W74868  10.107  11.669   7.347 -0.1146 -0.0344  0.1941
74005W        W74869  13.786   0.127   3.410 -0.4236  0.2067 -0.0684
74006W        W74870  15.191  27.026  12.373 -0.0931 -0.1949  0.5642
74007W        W74871  25.173  15.097   3.082 -0.0493  0.1441 -0.1355
74008W        W74872   7.189  19.413  24.162  0.0562 -0.1869  0.0106
74009W        W74873  24.349  23.831   2.999  0.2214 -0.0517  0.1286
74010W        W74874  21.260   4.492   1.912  0.0351 -0.0414 -0.1993
74011W        W74875   2.177  21.152  15.845 -0.1717 -0.0322 -0.0023
74012W        W74876   1.691  13.161  12.786  0.1796  0.0742  0.0018
74013W        W74877   8.665  11.740  28.229  0.0810 -0.2964  0.2947
74014W        W74878  19.050   8.439   7.042 -0.1613 -0.1255 -0.2606
74015W        W74879  25.262  25.831   3.348  0.2455 -0.1772 -0.0085
74016W        W74880  12.788  17.060  27.586 -0.3035 -0.1395 -0.0266
74017W        W74881   9.060  20.591  27.625 -0.0911 -0.1112  0.1177
74018W        W74882  10.203   7.492  14.490  0.0454  0.4281  0.2316
74019W        W74883   5.116  13.831  29.019 -0.2588 -0.0725 -0.2497
74020W        W74884  13.722  11.949  22.969 -0.1141  0.3021  0.0245
74021W        W74885  16.860   4.570   5.655 -0.0465  0.4447 -0.1876
74022W        W74886   3.723  10.680  27.490 -0.1023 -0.2016  0.0637
74023W        W74887  21.974   4.321  25.878  0.4075  0.2173 -0.1209
74024W        W74888   6.320  12.066  28.285  0.1824 -0.2208  0.1461
74025W        W74889   2.856   9.637  15.823  0.0626  0.3024  0.0664
74026W        W74890  27.680  20.048  25.790  0.1209 -0.2110 -0.0005
74027W        W74891  10.864  27.578  17.540 -0.0340  0.2070  0.0036
74028W        W74892   6.428  25.807  27.027 -0.0890 -0.0054  0.0899
74029W        W74893  18.694   6.212  12.037 -0.0592 -0.0900  0.1482
74030W        W74894   2.351   1.796   1.729 -0.1159 -0.2140 -0.4704
74031W        W74895  11.162   4.870   9.144 -0.2016  0.0981 -0.0599
74032W        W74896   0.903  23.423  17.024  0.0250  0.0580 -0.0233
74033W        W74897  22.901   4.195  12.622  0.1702 -0.0783  0.0367
74034W        W74898  25.486  18.263  22.965  0.0256 -0.0718 -0.2539
74035W        W74899   3.840   3.744   4.958 -0.0639  0.1802 -0.1000
74036W        W74900  13.020   0.853  26.770  0.2538  0.0469 -0.1970
74037W        W74901  13.413  17.625  22.963 -0.0539 -0.0448  0.0835
74038W        W74902   5.461  13.614  18.015 -0.0670 -0.0604 -0.2545
74039W        W74903  18.053  19.529  13.520  0.2880  0.0949 -0.0309
74040W        W74904   1.709  10.032   6.906 -0.3428 -0.0641  0.0341
74041W        W74905  13.135   2.554  20.416 -0.0704 -0.2358 -0.1413
74042W        W74906  28.770  19.177  25.800  0.1230  0.0777  0.2106
74043W        W74907  10.180  15.881  27.827 -0.5698  0.0156 -0.3321
74044W        W74908  10.852  23.526  23.170 -0.0701 -0.2138  0.0764
74045W        W74909  17.402  27.696  28.232 -0.0800  0.1855  0.0948
74046W        W74910   6.077   8.523  11.784  0.2497  0.0326 -0.0343
74047W        W74911  23.957  15.018   3.741 -0.2142  0.1897  0.1286
74048W        W74912  22.939   4.657  18.471  0.2539  0.0061  0.2281
74049W        W74913  17.397  19.978  10.079  0.0068  0.1051 -0.0296
74050W        W74914  26.226  24.542  26.193  0.0258  0.0184  0.1201
74051W        W74915  19.724   5.995  27.816  0.2326 -0.0229 -0.0761
74052W        W74916  19.419  10.037  28.165  0.2031  0.2229 -0.0369
74053W        W74917   9.940   0.460   3.905 -0.0965 -0.0175  0.2559
74054W        W74918  11.547  25.386  28.177  0.2159  0.1409  0.1550
74055W        W74919  18.687  21.453  15.704  0.0155  0.1321  0.0256
74056W        W74920  17.455  12.072   2.055  0.0375 -0.0612  0.0492
74057W        W74921  19.983  19.502   5.360 -0.2657  0.0687  0.2370
74058W        W74922   5.256  22.464  20.724  0.1011 -0.1183 -0.2802
74059W        W74923  15.068   2.184   6.434  0.3091  0.3852 -0.0075
74060W        W74924  16.556   3.619  14.292 -0.1095 -0.3416  0.0712
74061W        W74925   1.531  20.103  16.539  0.0345  0.3117 -0.3479
74062W        W74926   2.192  27.220   3.917 -0.2227 -0.3009  0.0412
74063W        W74927  26.270  24.303   9.527 -0.2812  0.0214 -0.1636
74064W        W74928  22.336   2.540  15.492 -0.0858 -0.1905  0.1333
74065W        W74929   0.301  15.408  28.520 -0.1534 -0.0371  0.0530
74066W        W74930   2.873   4.726  13.046 -0.0396  0.0643  0.1591
74067W        W74931  28.617  19.731   2.333  0.1071 -0.0474 -0.2755
74068W        W74932  13.056   2.785  27.642 -0.0117  0.0553  0.3099
74069W        W74933  11.037  18.470   1.741  0.2016 -0.0908  0.0869
74070W        W74934  20.677  17.784  14.273 -0.0086  0.0166  0.2798
74071W        W74935   0.505  20.620   2.172 -0.0351  0.0597 -0.3204
74072W        W74936  17.113   5.927   7.808  0.0263 -0.2642  0.1084
74073W        W74937   8.921   4.701   7.595 -0.0552 -0.1987  0.1634
74074W        W74938  11.609   0.777  21.308  0.3931 -0.0122  0.0585
74075W        W74939   4.625  14.935   3.233  0.3275 -0.0698 -0.0772
74076W        W74940  17.132   8.926  27.005  0.2264  0.2054 -0.1627
74077W        W74941  13.356  28.162   6.991 -0.0184  0.0586  0.1353
74078W        W74942   9.476  25.442   8.351 -0.2262  0.1193  0.1230
74079W        W74943  23.687  20.215  28.936 -0.2583  0.1536 -0.0057
74080W        W74944  12.602   5.533  27.949 -0.1336 -0.0330 -0.0783
74081W        W74945  10.819   7.272   4.961  0.2619 -0.1135  0.2681
74082W        W74946  27.320   8.449   4.503 -0.0471 -0.0709 -0.0636
74083W        W74947  25.172   6.087  14.437 -0.2062  0.3329 -0.1318
74084W        W74948  11.058  27.461   4.942 -0.0316  0.0860 -0.1867
74085W        W74949   7.236  24.269   3.843 -0.0827  0.0072  0.0296
74086W        W74950   7.201  19.807   9.743 -0.1831 -0.0006  0.0631
74087W        W74951  11.620  28.991  21.514  0.1964 -0.1696  0.1076
74088W        W74952  28.312   3.171  10.554  0.0415 -0.0817  0.1110
74089W        W74953  28.664  19.721  19.619  0.2238  0.3002  0.1986
74090W        W74954   4.514  21.917  10.553  0.3929 -0.3066  0.2194
74091W        W74955  15.637  16.615   2.603  0.1682 -0.1847 -0.1232
74092W        W74956   9.648   7.420  23.214  0.2644  0.3877 -0.1125
74093W        W74957   9.239  28.212  17.043  0.1922 -0.1920 -0.0649
74094W        W74958   1.488  20.451   7.775  0.2941  0.0107 -0.1883
74095W        W74959  12.684   9.753  24.649  0.0959 -0.3780 -0.2706
74096W        W74960  25.848  17.363  28.402  0.1887  0.1543  0.0153
74097W        W74961  18.567  29.034  28.299 -0.1569  0.1903  0.0066
74098W        W74962  25.726   2.888  27.676  0.0709 -0.2239 -0.1970
74099W        W74963  22.030   9.222  16.938  0.0626 -0.0198 -0.0956
74100W        W74964   6.043  17.471   2.829  0.1593  0.2251  0.2915
74101W        W74965  12.079  28.994   7.816 -0.0427  0.0938 -0.3775
74102W        W74966  20.953  10.704   2.727 -0.1857  0.0576 -0.0905
74103W        W74967  18.826  18.397  11.780 -0.1935 -0.2577 -0.0899
74104W        W74968  13.437   0.147   3.963  0.0861 -0.1228 -0.1585
74105W        W74969  13.488  29.032  19.853  0.2166  0.0841  0.1211
74106W        W74970  17.597  20.844   6.516 -0.4207 -0.2171  0.1239
74107W        W74971  21.336   3.058  20.498 -0.1687  0.0453 -0.1062
74108W        W74972  26.388  27.089  22.446 -0.1273  0.1503 -0.0380
74109W        W74973  13.868  11.298   4.982  0.1683 -0.3605 -0.0534
74110W        W74974   5.074   4.347  25.958  0.2032 -0.1621 -0.0141
74111W        W74975  15.090   4.271   3.993 -0.0820 -0.2284  0.1197
74112W        W74976  15.860  25.384  25.409 -0.0616  0.0317  0.0748
74113W        W74977  15.007   6.199  14.964 -0.3725 -0.0397 -0.0335
74114W        W74978  14.331  10.957   5.605  0.1696  0.0229  0.2220
74115W        W74979   1.046  11.974  18.687  0.2998  0.2399 -0.2934
74116W        W74980  22.215  25.294  12.319 -0.0866 -0.1896 -0.0850
74117W        W74981  28.465  21.441  11.290  0.2385  0.1711  0.2653
74118W        W74982  21.602  25.177  10.701 -0.0243 -0.3650 -0.0586
74119W        W74983   9.114  28.046  13.037  0.3307 -0.0735  0.0568
74120W        W74984  22.683  28.242   0.216  0.3693  0.1991 -0.0496
74121W        W74985   0.275  19.169   2.211  0.2269 -0.1900 -0.2603
74122W        W74986   4.858  21.520  12.334 -0.2272  0.2292  0.2310
74123W        W74987   3.697  23.381  14.392 -0.1182 -0.1225  0.3046
74124W        W74988   2.539  12.165   5.496  0.3362  0.1554 -0.0914
74125W        W74989   3.614  28.808  27.127  0.0636 -0.1557 -0.0192
74126W        W74990   0.394  28.093  29.050  0.3291  0.1036 -0.0061
74127W        W74991  25.823   1.613  13.931  0.1277 -0.0564  0.0118
74128W        W74992  19.620  28.277  11.504 -0.2535  0.3749  0.0158
74129W        W74993  20.547   9.066  20.702 -0.0668  0.0006 -0.0639
74130W        W74994  24.593  23.346   5.140  0.0677  0.4051 -0.0001
74131W        W74995   2.942   8.288   4.901  0.2940 -0.2869 -0.2957
74132W        W74996  15.641   6.707  18.881 -0.0694 -0.0388 -0.0235
74133W        W74997   8.997   7.991  22.647  0.0824  0.3344  0.1831
74134W        W74998   8.336  10.224   0.670  0.0791  0.0359  0.0810
74135W        W74999   7.441  12.239   1.819 -0.1581  0.0280 -0.0956
74136W        W75000   0.439  28.405   9.434  0.2698  0.0781  0.1607
74137W        W75001  14.268   2.508   2.369  0.3025  0.0436 -0.0634
74138W        W75002  27.863   2.847   0.386  0.3316  0.2809 -0.1715
74139W        W75003  10.905  19.653  24.154 -0.1541  0.1444  0.0381
74140W        W75004  13.207  19.355  25.927  0.0341 -0.0849  0.3144
74141W        W75005   6.811   1.499   6.841  0.1371  0.1469  0.1538
74142W        W75006   0.557   0.082  26.738  0.0803  0.0311  0.0500
74143W        W75007  22.062   7.974   8.297 -0.0747 -0.2369  0.0666
74144W        W75008   6.434  11.358  19.727  0.1825  0.0747 -0.1460
74145W        W75009  10.827  12.423   2.426 -0.1106 -0.0819  0.0717
74146W        W75010   0.025  27.761  23.602 -0.0738 -0.0054 -0.1096
74147W        W75011   9.676  28.107  29.108 -0.1187 -0.5386 -0.0676
74148W        W75012   2.100   4.809  29.067 -0.0422 -0.0790 -0.1961
74149W        W75013   7.813  12.940   9.346 -0.1740 -0.0825 -0.0321
74150W        W75014  16.653  26.613  24.590  0.1127 -0.0207 -0.1873
74151W        W75015  14.617  18.363   9.417  0.0886 -0.1899  0.4007
74152W        W75016  10.701  11.197   1.572 -0.1217 -0.1164 -0.2202
74153W        W75017   5.749  27.389   3.647 -0.2523  0.2323  0.2460
74154W        W75018   1.588   2.409  27.356 -0.0133  0.2059  0.1957
74155W        W75019  25.972  19.253  21.012 -0.0853 -0.1135  0.2277
74156W        W75020  15.868  28.511  14.190  0.0012 -0.0241  0.3574
74157W        W75021  26.923   1.344  12.457  0.4149 -0.1320 -0.0327
74158W        W75022  28.185  22.273   2.972  0.0960  0.1858  0.0196
74159W        W75023  27.803  28.303  22.835  0.0383 -0.2295 -0.0564
74160W        W75024  20.992  22.140  12.050  0.0541  0.1976 -0.2281
74161W        W75025   6.933  14.319  24.505 -0.2543 -0.4176 -0.3711
74162W        W75026   9.052  27.190  14.261 -0.1239 -0.0526  0.0345
74163W        W75027  26.509   4.178  16.518 -0.0057 -0.0405 -0.0377
74164W        W75028  21.698  11.122   2.702 -0.3030  0.1654  0.0381
74165W        W75029   2.389  21.117   1.801  0.0628  0.3259 -0.2579
74166W        W75030   9.105  13.472  11.661  0.3995  0.3092  0.3722
74167W        W75031   5.539  26.014  10.116  0.1127  0.2128  0.2373
74168W        W75032  18.317   7.173  25.678  0.1806 -0.1261  0.1383
74169W        W75033  12.845  10.682  26.020 -0.2885 -0.1057  0.0545
74170W        W75034  11.805  20.538   3.465 -0.1639 -0.0227  0.0244
74171W        W75035   2.556  25.781   6.773 -0.2961  0.0456 -0.2260
74172W        W75036  22.898  11.673  20.149 -0.1025  0.0190 -0.1494
74173W        W75037  19.095  20.451  23.546 -0.0092 -0.1713 -0.0347
74174W        W75038   8.484  18.287   2.513 -0.0470  0.0961  0.1013
74175W        W75039  12.472   7.104   8.037  0.3673  0.0513 -0.0290
74176W        W75040  19.986  27.055  22.054 -0.0958 -0.0799  0.0089
74177W        W75041  10.753  25.009   4.187 -0.1482  0.1326  0.3446
74178W        W75042  22.349  10.467   1.948  0.0841 -0.1157 -0.2604
74179W        W75043  12.209   2.830   7.215  0.1256 -0.0648  0.2290
74180W        W75044   6.341   5.945   3.909 -0.2326 -0.2409 -0.0062
74181W        W75045   5.628  20.175  10.801 -0.0556 -0.2657 -0.1215
74182W        W75046  27.831   7.138   3.899 -0.4188 -0.3738  0.1176
74183W        W75047   9.139   0.531  15.617  0.0638  0.1333  0.1644
74184W        W75048   6.652  15.551   6.583  0.0074  0.1549  0.0795
74185W        W75049  23.841  13.670  26.085  0.1845 -0.2666  0.1258
74186W        W75050   9.842   0.952   1.311  0.0078  0.2978 -0.0480
74187W        W75051   4.527  12.195   6.215  0.3028  0.2757 -0.2673
74188W        W75052   6.693  12.213  25.687  0.3981  0.1389  0.1602
74189W        W75053  16.323  22.973  20.474  0.0279  0.0667  0.0720
74190W        W75054   1.095  15.179   9.380 -0.3507 -0.0873 -0.2370
74191W        W75055  13.050   4.856  20.725 -0.0973 -0.0816  0.0639
74192W        W75056  11.336  21.917   2.122 -0.3434 -0.0504 -0.2624
74193W        W75057  27.550   6.210  13.877 -0.2607 -0.1106  0.1083
74194W        W75058  21.003  26.740  10.850 -0.0191  0.0152  0.0508
74195W        W75059  14.593  27.651  24.671 -0.0515 -0.1988 -0.2130
74196W        W75060  28.487   3.276  27.387 -0.2901  0.1437  0.0397
74197W        W75061  16.163  24.760   5.763 -0.0932 -0.5929  0.1317
74198W        W75062   6.635  26.655   6.089 -0.2992  0.3088 -0.2100
74199W        W75063  11.735  20.767  26.355  0.1530 -0.2172 -0.1323
74200W        W75064  25.108   2.001  15.765  0.2188  0.1278 -0.2092
74201W        W75065  14.614  18.781   5.813  0.0025 -0.1716  0.0173
74202W        W75066   9.049  15.940   1.833  0.0024  0.1125  0.2267
74203W        W75067  14.330  13.081  24.968  0.4226  0.1455 -0.0137
74204W        W75068  21.666  11.948   9.101 -0.1632  0.3235  0.0647
74205W        W75069  24.414   2.544  18.765  0.0040  0.0094 -0.2291
74206W        W75070  24.162  21.780   7.921 -0.4780  0.1495 -0.0567
74207W        W75071  27.606   8.167  17.427  0.2300 -0.1799 -0.1570
74208W        W75072   9.694  14.757  24.573 -0.3750  0.1182  0.1988
74209W        W75073  17.790   2.712   9.827  0.0412  0.1099 -0.2047
74210W        W75074  20.772  27.238  11.978 -0.0327  0.4692 -0.0321
74211W        W75075  21.949  26.334   7.423  0.0774 -0.2299 -0.0522
74212W        W75076   2.949   0.296  19.903  0.0854 -0.1955  0.0432
74213W        W75077  11.357   2.543   9.654 -0.2094  0.0088  0.0121
74214W        W75078  10.057  24.860   5.244 -0.3681 -0.1902 -0.1009
74215W        W75079   0.054  26.829  12.326  0.3382 -0.1868  0.0332
74216W        W75080  22.492  18.932  12.676  0.1552  0.2473  0.1439
74217W        W75081  15.001  21.907  17.961 -0.0938 -0.0543 -0.2377
74218W        W75082   5.095  26.855  16.283 -0.1758  0.1448  0.0206
74219W        W75083  10.898   6.560  17.271 -0.1210 -0.1043 -0.1312
74220W        W75084  11.992  23.880  10.278 -0.1774 -0.1002 -0.1824
74221W        W75085   6.733   2.914   7.914 -0.3930 -0.2764  0.0356
74222W        W75086  18.715  17.116  27.445 -0.0872 -0.3556  0.2740
74223W        W75087  10.201   5.201  14.454  0.0516 -0.1321  0.1825
74224W        W75088  10.138  15.668  26.602  0.1451  0.1843 -0.2191
74225W        W75089  22.703  18.363  17.173 -0.2941  0.0115 -0.0516
74226W        W75090  13.830  13.368   7.953  0.2023  0.0162 -0.0064
74227W        W75091  29.094  22.038  16.860  0.2642 -0.1201 -0.3076
74228W        W75092   6.383  26.975   9.073  0.1260  0.4289 -0.0434
74229W        W75093  28.106  22.711   0.556  0.1935  0.0803 -0.0706
74230W        W75094  20.870  17.688  19.860  0.1887  0.0672 -0.1482
74231W        W75095   0.757  22.816   9.601  0.1926 -0.2415 -0.0651
74232W        W75096   9.086  24.690  13.054 -0.0276 -0.0134 -0.0622
74233W        W75097  13.144   0.484   7.524 -0.0734 -0.2228 -0.0853
74234W        W75098  20.050  25.306   8.046 -0.0840 -0.2583 -0.0534
74235W        W75099  17.481  22.679  17.800  0.1470  0.1937  0.1725
74236W        W75100   3.344  18.709   1.808  0.1281  0.0578  0.0039
74237W        W75101  21.322  14.579  25.163 -0.0142  0.0663 -0.2218
74238W        W75102  23.748  16.498  27.656 -0.0424  0.2716  0.0736
74239W        W75103   7.168  27.171  26.134 -0.2685  0.1084  0.3090
74240W        W75104   8.640  15.123  28.519 -0.1917 -0.3355  0.3137
74241W        W75105   6.349   5.988  25.786 -0.2443  0.0493 -0.0366
74242W        W75106  10.256  17.723   6.193 -0.4006  0.1892 -0.0022
74243W        W75107   5.463   9.790  10.905  0.0327 -0.3123  0.0739
74244W        W75108  14.625   2.471   9.659  0.0203  0.0617  0.0678
74245W        W75109   8.833   0.267  22.270 -0.0094 -0.0267 -0.0698
74246W        W75110  22.187  17.120   2.767 -0.3907 -0.1026  0.1609
74247W        W75111   9.272  11.235   0.696  0.0186  0.1730 -0.3050
74248W        W75112  10.011   9.388   4.626  0.1273  0.0060 -0.1825
74249W        W75113  27.266   1.928  21.378  0.2374  0.0353 -0.1400
74250W        W75114  12.269   5.215  16.689 -0.1963 -0.0754 -0.0812
74251W        W75115  26.747  17.493   5.171  0.2488 -0.0708  0.2298
74252W        W75116  21.554   4.279  15.593 -0.4379  0.0415 -0.0605
74253W        W75117  27.373   1.563  17.572  0.2301  0.0990 -0.2472
74254W        W75118  26.637  24.309   4.470  0.2168 -0.0861  0.1308
74255W        W75119   8.556  19.358   0.751  0.1937  0.0715 -0.3298
74256W        W75120  14.648  27.266   9.343  0.0596  0.1030 -0.2134
74257W        W75121  23.261  24.640  18.423 -0.2014  0.3223 -0.2562
74258W        W75122   5.355  12.187  20.190  0.2278  0.2063  0.3362
74259W        W75123  19.521   4.861   6.755  0.0917 -0.1645  0.0289
74260W        W75124   4.041  26.617   4.949  0.1808  0.0512  0.2966
74261W        W75125   8.026  16.645   9.029  0.0590  0.2732  0.0448
74262W        W75126   9.444  24.429  12.793  0.3743  0.1747 -0.0477
74263W        W75127   9.529   2.090   8.695 -0.1396  0.3318  0.1543
74264W        W75128  16.735   2.793  21.100  0.1144 -0.0163 -0.0387
74265W        W75129   1.797   1.620   1.288  0.0031  0.0839  0.0988
74266W        W75130   4.007  25.287   4.552  0.0748 -0.0474 -0.0199
74267W        W75131   5.860  22.036   3.010 -0.1955 -0.0040  0.0118
74268W        W75132  27.254  15.042   7.153  0.0603 -0.2485 -0.0759
74269W        W75133   7.801   8.197  10.124 -0.0334  0.0637  0.1145
74270W        W75134  15.201   7.226  17.433 -0.0487 -0.1342 -0.1955
74271W        W75135   9.528  15.867   9.201  0.0959 -0.2726  0.1477
74272W        W75136  23.902  27.659  16.375 -0.2667 -0.1335  0.1483
74273W        W75137  10.835  23.479  23.682 -0.0033  0.1460  0.0464
74274W        W75138  19.590   2.483  20.308  0.0968  0.0069 -0.1651
74275W        W75139  18.481  21.273  26.056 -0.2197 -0.0589  0.0407
74276W        W75140  12.675  24.852  12.726  0.1846  0.1494 -0.0654
74277W        W75141   6.321  18.104   1.537 -0.2600  0.0236  0.1139
74278W        W75142   5.846   9.710   2.503 -0.0291  0.1271 -0.2487
74279W        W75143   3.654   6.548  19.652  0.0534 -0.2625 -0.1032
74280W        W75144  28.649  17.247  19.232  0.0190  0.0344  0.4027
74281W        W75145  13.684   5.830   1.032  0.4159  0.2103 -0.2209
74282W        W75146   2.483  25.094  22.799 -0.1626 -0.1432 -0.2050
74283W        W75147   3.906   3.086   5.635 -0.1318  0.2246 -0.2290
74284W        W75148  10.465   2.989  13.176  0.0447 -0.1080  0.0669
74285W        W75149   0.771  20.388  26.583 -0.0037  0.2354  0.4010
74286W        W75150  21.972   9.829  25.335  0.1045 -0.2014  0.0580
74287W        W75151   9.867  19.708  28.197 -0.2328  0.2426  0.0196
74288W        W75152  24.804  24.180   3.343  0.0937 -0.0853  0.0799
74289W        W75153  27.833   1.019   5.332 -0.1957 -0.2144 -0.1209
74290W        W75154   0.957  27.192   3.370  0.1677 -0.2093  0.0716
74291W        W75155   8.556  17.924  28.080 -0.2214  0.0798 -0.0723
74292W        W75156   9.806  12.699  16.173 -0.0114  0.0237  0.3582
74293W        W75157   9.173   9.729  29.044 -0.2592  0.0138 -0.0474
74294W        W75158  25.856   3.460   2.113  0.0158  0.0357  0.0761
74295W        W75159   2.071   4.009  20.148 -0.1363  0.0667  0.0816
74296W        W75160  11.614  28.755   4.165  0.1169 -0.3570  0.2523
74297W        W75161   4.232  13.902   0.741  0.0650  0.0679 -0.3425
74298W        W75162   6.634  24.202   0.189  0.3384 -0.2564  0.1830
74299W        W75163   9.907  27.286   1.185 -0.2212  0.0518  0.0847
74300W        W75164  24.381  27.182   5.863  0.1344 -0.2400  0.4398
74301W        W75165  23.534   5.392   4.844  0.0573 -0.1477  0.0820
74302W        W75166   4.657   1.943  10.155 -0.1302 -0.1999 -0.3658
74303W        W75167   5.220  26.734  23.132  0.1470  0.0308  0.0491
74304W        W75168  15.947  20.109  15.238 -0.0702  0.1508  0.0401
74305W        W75169  26.160   5.569   1.784 -0.1512  0.1654  0.0013
74306W        W75170  21.192   6.881  15.353 -0.2345  0.3058  0.0464
74307W        W75171  26.821   7.363  27.314  0.0580  0.0523  0.0357
74308W        W75172  20.199   4.972  29.033 -0.2273  0.3418 -0.0224
74309W        W75173  26.951  26.110   9.486 -0.4257 -0.0143  0.2219
74310W        W75174  23.046  11.645   5.254 -0.0288 -0.0017  0.2498
74311W        W75175  16.145  10.125  12.499 -0.1728 -0.2151  0.1319
74312W        W75176  11.019  19.175  20.385 -0.1766  0.0595 -0.0200
74313W        W75177   5.975   4.772  15.999 -0.1518  0.1275 -0.0101
74314W        W75178  20.944  20.076   2.971 -0.1370 -0.0495  0.0742
74315W        W75179  22.585   7.165  27.032  0.1415  0.2784  0.3917
74316W        W75180  13.431   3.796  23.420  0.1926 -0.0061  0.2095
74317W        W75181   7.543  10.306  24.141 -0.0872 -0.0816  0.2829
74318W        W75182   3.402   5.904   8.728 -0.1313  0.1384  0.0135
74319W        W75183  24.316   2.287  11.048 -0.1896  0.3196 -0.0548
74320W        W75184  24.931  27.371   7.450 -0.0407  0.1343 -0.0523
74321W        W75185  25.234  19.919   7.946  0.0762  0.0431  0.0434
74322W        W75186   0.421  24.034  18.425  0.3226 -0.0483 -0.2119
74323W        W75187   4.806  16.088  24.273  0.0829 -0.0372 -0.1986
74324W        W75188   8.112  23.874  14.235 -0.1598  0.0911  0.0261
74325W        W75189   2.521  21.677   1.675  0.3173 -0.1722  0.4223
74326W        W75190  11.885  16.568  27.619  0.3015 -0.0869  0.0437
74327W        W75191   4.712  25.215  14.496  0.2410  0.3234 -0.2019
74328W        W75192   3.038   1.801  13.312  0.2578 -0.1372 -0.0184
74329W        W75193  24.386   3.867   1.025  0.1824 -0.0617  0.0794
74330W        W75194  23.988   4.904   8.415  0.2247 -0.0218 -0.0715
74331W        W75195  25.424  25.396  25.593 -0.1959 -0.0529 -0.1717
74332W        W75196   9.079  14.090   4.703 -0.0814 -0.2665  0.0098
74333W        W75197  28.960  21.191   3.724  0.3290  0.0160  0.3436
74334W        W75198  17.149   6.802  10.265 -0.1180 -0.1724  0.0061
74335W        W75199  24.073  12.845   9.491 -0.1566  0.0576 -0.1209
74336W        W75200   6.289  11.924   3.393 -0.0498 -0.2127  0.2572
74337W        W75201   7.692   7.691  10.335 -0.0366  0.0430 -0.0781
74338W        W75202  12.466  24.784   1.490 -0.1598  0.1030 -0.0568
74339W        W75203  13.090   4.917   3.984 -0.1609  0.0687 -0.0533
74340W        W75204  25.567  28.420  21.647 -0.1653  0.0921  0.1689
74341W        W75205  26.746  27.900   6.827 -0.1897  0.0872  0.0451
74342W        W75206  18.879   6.944  24.626  0.1704  0.0549 -0.1079
74343W        W75207   3.783  10.168  28.929  0.0580  0.2204  0.0253
74344W        W75208  11.761  25.577  25.261 -0.0156  0.0010  0.3205
74345W        W75209  23.729  25.224  25.194  0.1162  0.3440 -0.3096
74346W        W75210   9.666  13.125   3.664  0.2274  0.1620 -0.1440
74347W        W75211  13.253  24.667  18.630 -0.0532  0.0708  0.2898
74348W        W75212  13.397   7.038  27.356  0.0995  0.0048  0.0751
74349W        W75213   7.044   1.277   4.409  0.0967  0.1400 -0.0665
74350W        W75214  14.511   0.813  14.354 -0.2251  0.2400 -0.0007
74351W        W75215   7.849  21.340   7.520  0.3026 -0.5921  0.1516
74352W        W75216  25.076   0.259   8.857 -0.2200  0.1522 -0.0677
74353W        W75217  16.102   5.984  29.036  0.3000 -0.0223 -0.3860
74354W        W75218  25.820   2.376  10.962 -0.2592 -0.0551  0.0260
74355W        W75219   1.345  26.885  28.239  0.1181  0.0266 -0.0124
74356W        W75220  22.834  12.143   6.365  0.0294 -0.1228 -0.2188
74357W        W75221  29.057  23.164   7.500 -0.1575  0.0132  0.2391
74358W        W75222  27.795  24.928  14.288  0.1519  0.0547  0.4648
74359W        W75223  27.582   7.462  12.780  0.0678 -0.1836 -0.1178
74360W        W75224  28.255  28.985  22.386  0.1952 -0.2136  0.3137
74361W        W75225  10.610  24.797  19.487 -0.2526  0.4078 -0.0104
74362W        W75226  22.661  20.780  14.498  0.1663 -0.1533  0.2121
74363W        W75227  14.048  25.359   5.703  0.2027 -0.0820  0.2037
74364W        W75228  17.246   3.828  24.949 -0.0672 -0.2738 -0.2859
74365W        W75229   4.560  13.964  11.702  0.0422 -0.0541  0.1010
74366W        W75230  16.765  20.664  11.209  0.1202  0.2023  0.1446
74367W        W75231   2.034  28.836  27.829 -0.4293  0.2068  0.0869
74368W        W75232   3.260  24.223   7.234 -0.1815  0.0018  0.1468
74369W        W75233  25.781  23.980   6.280 -0.0263  0.0844 -0.0124
74370W        W75234  23.740   3.101  26.490  0.0159 -0.2572  0.0984
74371W        W75235  27.237   2.223  22.166 -0.1038  0.0263 -0.1013
74372W        W75236   7.005   2.298   4.311 -0.1136  0.1534 -0.2181
74373W        W75237  15.855   4.430  10.314  0.1569 -0.3444 -0.1529
74374W        W75238  17.495   4.260  19.785 -0.3308 -0.0962  0.0442
74375W        W75239  13.060  21.693  25.877 -0.0830 -0.3047  0.1656
74376W        W75240  11.410  21.447  19.280  0.2187  0.2827 -0.1591
74377W        W75241  12.002   5.187   5.535 -0.3013  0.2613  0.1856
74378W        W75242  14.834   4.246   0.575 -0.0008 -0.2086 -0.0020
74379W        W75243   9.041  27.321  20.605 -0.2458 -0.0772  0.0767
74380W        W75244  28.122  10.050  23.196  0.0609  0.0624 -0.1296
74381W        W75245   3.006   0.167   3.478  0.1274 -0.2011  0.1209
74382W        W75246  17.130  27.708  10.618  0.2256  0.0816 -0.3736
74383W        W75247  12.980  17.802   6.226  0.0658  0.2133  0.2803
74384W        W75248  11.684  28.031   7.946  0.0416  0.0551  0.0189
74385W        W75249   9.953   0.699   4.305 -0.0576  0.0775  0.0649
74386W        W75250   6.050  17.614  27.482  0.1074  0.1690  0.1453
74387W        W75251   6.059  16.851  14.813 -0.0533  0.2126 -0.1543
74388W        W75252  12.109   2.783   2.483  0.1142  0.3325 -0.1058
74389W        W75253  17.184  17.292  14.147 -0.0168  0.3645 -0.0321
74390W        W75254  10.034  28.709  14.231  0.0641  0.1742  0.0597
74391W        W75255  16.543  27.544  10.425 -0.0040 -0.0589 -0.0630
74392W        W75256  11.757  22.316  11.057 -0.1120 -0.0127  0.2463
74393W        W75257   4.143  11.520   6.925 -0.1096  0.0333  0.0156
74394W        W75258   0.466  28.278   5.352  0.1137 -0.1544  0.0765
74395W        W75259  10.767   6.539  25.520 -0.0724 -0.3900 -0.0803
74396W        W75260  19.989  11.293  11.215  0.1244 -0.0931  0.2754
74397W        W75261  21.557   7.651   4.393 -0.0258 -0.1038  0.1232
74398W        W75262   0.308  22.161   0.952 -0.2181  0.0136  0.1090
74399W        W75263  27.439  15.521  28.778  0.1965 -0.3329  0.1580
74400W        W75264  12.625   1.602   9.054 -0.1966 -0.1365  0.1600
74401W        W75265   6.205  15.392   7.678  0.1181  0.0272 -0.2615
74402W        W75266   4.528   5.395  26.163  0.0680 -0.2849  0.1291
74403W        W75267  18.605   5.228  14.685 -0.0363  0.0662  0.0858
74404W        W75268   2.701  19.832   1.986  0.0615 -0.2406 -0.0783
74405W        W75269   6.223   2.717  25.997 -0.2114  0.2647 -0.1092
74406W        W75270  17.395  23.902  28.269 -0.0118 -0.0329 -0.2509
74407W        W75271   4.515   0.880  22.074  0.2599  0.0806 -0.0565
74408W        W75272  12.116  26.117  10.370 -0.1895 -0.0379  0.2992
74409W        W75273   7.585  15.498  23.925  0.4784 -0.1611  0.1380
74410W        W75274  13.860  13.988  24.931  0.1317  0.0190  0.1229
74411W        W75275   9.559   4.894  19.384 -0.0059  0.0687  0.0757
74412W        W75276  20.081  21.647  13.263  0.2584  0.2803  0.0054
74413W        W75277   8.716  17.032   4.770 -0.0651  0.0737 -0.1837
74414W        W75278   2.093  20.832  13.636  0.0677 -0.2065 -0.1768
74415W        W75279   5.261  28.126  28.454 -0.1263 -0.2701 -0.0786
74416W        W75280   0.399   0.633  10.432  0.0989 -0.1636 -0.3788
74417W        W75281  21.507  10.987  16.199 -0.0429  0.7611 -0.0090
74418W        W75282   5.022  17.459   2.932  0.1584  0.0247 -0.0200
74419W        W75283  26.047  10.299  13.141 -0.1452  0.0157  0.0223
74420W        W75284   2.096   8.407  23.971  0.0165  0.2577  0.2274
74421W        W75285   5.690  14.966   0.723  0.1595  0.3038 -0.3593
74422W        W75286  21.217   5.525  13.351 -0.0336  0.0302 -0.0035
74423W        W75287   6.914   4.318  26.612  0.5165  0.0555  0.3248
74424W        W75288  28.661  25.754  21.799 -0.1664 -0.3781  0.4349
74425W        W75289  19.536   2.279  24.131 -0.0126  0.0046 -0.0509
74426W        W75290  24.662  24.139   0.084  0.0186  0.0343 -0.0940
74427W        W75291   8.824  23.055   7.740 -0.1949 -0.3737  0.2566
74428W        W75292   6.546   4.657  27.877 -0.2492 -0.2698 -0.0406
74429W        W75293  24.429  27.104  16.223  0.1935  0.4153  0.0103
74430W        W75294  21.351  14.640  17.017  0.3906 -0.0398 -0.1669
74431W        W75295  27.417  26.591  17.874 -0.2410  0.1010  0.1622
74432W        W75296  16.308   2.631   9.584 -0.2752  0.3109  0.2954
74433W        W75297   3.748  13.414   2.091  0.2550 -0.1297  0.1493
74434W        W75298   4.902   4.922   5.237 -0.0727 -0.1752  0.0031
74435W        W75299  18.419  28.037  17.219  0.3856  0.2952  0.2714
74436W        W75300  13.654  20.854  20.263  0.3525  0.0081  0.0752
74437W        W75301  28.752  28.649  27.442  0.1376 -0.0362 -0.1039
74438W        W75302   6.699  28.458  10.748 -0.0034  0.4921  0.2864
74439W        W75303   0.092  10.726   5.828 -0.0943 -0.2558  0.0076
74440W        W75304  20.773  17.819  17.246  0.1246  0.1159  0.0502
74441W        W75305  26.721  17.025  18.861  0.2265 -0.0056  0.1432
74442W        W75306  14.152  24.241  16.620 -0.1858 -0.1119 -0.1570
74443W        W75307  11.967  24.885   1.401  0.1607  0.0059  0.1955
74444W        W75308  13.460  13.677   8.905  0.1406  0.0830 -0.1189
74445W        W75309  13.845  15.370  24.729 -0.2048  0.0499  0.2578
74446W        W75310  17.349   6.405  24.002  0.1522 -0.2423 -0.1465
74447W        W75311  17.844  14.658   6.090  0.0969  0.1021 -0.1338
74448W        W75312   5.968   2.293  19.612 -0.1343 -0.5243  0.1206
74449W        W75313   1.616   8.863  23.437 -0.1874  0.0020 -0.0301
74450W        W75314   2.235   9.909  29.082 -0.0346  0.2702 -0.1016
74451W        W75315  16.767  15.010   2.703 -0.2314  0.0780 -0.1987
74452W        W75316  22.750   0.245  18.357  0.2773 -0.1163  0.0891
74453W        W75317   0.318  15.428  16.396 -0.1012 -0.2799  0.0208
74454W        W75318  16.071  21.442   5.002  0.2420 -0.0453  0.0640
74455W        W75319  18.022  12.791  16.202 -0.0491  0.0853 -0.1049
74456W        W75320  14.398  28.193   6.022 -0.0015  0.1031 -0.0123
74457W        W75321  27.074  28.551   9.210 -0.2235  0.0916  0.0685
74458W        W75322  14.150  22.558  25.835  0.0427  0.2515  0.1251
74459W        W75323  13.434  26.306   3.979  0.0782 -0.0232 -0.2611
74460W        W75324   3.736  26.075   9.871  0.0508  0.1665 -0.0091
74461W        W75325  15.297  23.794   5.143 -0.3616 -0.1411  0.1810
74462W        W75326  16.492  26.909   8.703  0.0834 -0.0561  0.1965
74463W        W75327   1.003   6.543   3.374  0.2608  0.0453 -0.0823
74464W        W75328  14.283   7.169  15.492 -0.0906  0.0737 -0.4263
74465W        W75329   4.670   3.780  26.410  0.1719  0.1023 -0.0552
74466W        W75330   1.164  21.561  18.761  0.2246 -0.0223  0.4807
74467W        W75331   6.875  16.934  28.483 -0.0039  0.0863  0.0972
74468W        W75332  11.008  25.773  17.216 -0.0975  0.2485  0.0938
74469W        W75333  20.206  19.082  18.236  0.0880  0.1547 -0.1474
74470W        W75334  13.749  22.634  29.136 -0.1381 -0.1365 -0.1146
74471W        W75335  13.737  24.208   1.825 -0.0492  0.0144  0.0666
74472W        W75336  27.548  27.569  15.296 -0.3417  0.2628 -0.0790
74473W        W75337  14.966  27.136   6.478  0.0829  0.1280  0.0454
74474W        W75338  26.265  28.588   8.947 -0.0105 -0.0950 -0.3077
74475W        W75339  26.182  27.832  29.005  0.1854  0.0491 -0.0688
74476W        W75340   6.225  10.638  29.136 -0.0226  0.1183  0.2130
74477W        W75341  27.484  16.938  10.361 -0.0947  0.0568 -0.2117
74478W        W75342   8.705  23.743   7.325 -0.2836 -0.0579  0.1280
74479W        W75343  14.995  19.902   3.097 -0.1268  0.2010 -0.1392
74480W        W75344  15.465   9.308  24.229 -0.0531 -0.0696  0.0635
74481W        W75345   3.307  12.665  27.577  0.1435  0.2691 -0.0542
74482W        W75346   9.026  19.189  22.095  0.0290  0.0086  0.0127
74483W        W75347  12.797  11.166  17.194  0.0675  0.1200  0.0196
74484W        W75348   9.605  10.149   3.028  0.0601 -0.1967 -0.2178
74485W        W75349  13.859   0.873  22.607  0.0224 -0.1260 -0.0141
74486W        W75350  23.522   3.176   9.013  0.4206 -0.2006  0.1050
74487W        W75351  10.787   0.851   2.064  0.1611 -0.2308 -0.0471
74488W        W75352  24.951   1.186  22.643  0.0222 -0.1363  0.0294
74489W        W75353   1.113   2.992  22.565  0.2113  0.0040  0.3520
74490W        W75354  28.399   0.389  22.495 -0.2241 -0.0051 -0.1309
74491W        W75355  22.251  25.374   3.827 -0.0996 -0.2298 -0.3313
74492W        W75356   4.307  19.783   5.376  0.2538  0.2419 -0.2216
74493W        W75357   3.006  24.742  14.527 -0.0687  0.2651 -0.2667
74494W        W75358   5.309  26.435  28.458 -0.2349  0.0299 -0.0269
74495W        W75359   6.890  11.297  11.168  0.2332 -0.0202  0.0276
74496W        W75360   1.335   0.333   8.958  0.3061 -0.2923  0.0033
74497W        W75361  11.281  23.068  28.833 -0.0042  0.2851 -0.0708
74498W        W75362  13.975  20.503  28.703 -0.0741  0.4235  0.2022
74499W        W75363   3.789  25.720   4.005  0.3288 -0.0529 -0.0938
74500W        W75364   7.328  23.584   3.022 -0.0425 -0.0121 -0.1787
74501W        W75365  23.594  19.506  16.247 -0.0729  0.1333 -0.1007
74502W        W75366   2.805   8.402  21.290 -0.2876 -0.0742  0.0129
74503W        W75367  20.871   0.023  13.478 -0.0496 -0.1435 -0.4074
74504W        W75368  13.515  15.515   4.176 -0.1885 -0.0692 -0.2786
74505W        W75369   8.769   9.412   3.181  0.0780 -0.0657 -0.0222
74506W        W75370   6.452  10.739  22.222 -0.0342 -0.1744 -0.1163
74507W        W75371  25.293  20.129  10.522 -0.1657  0.2464  0.4423
74508W        W75372  19.602  20.432  21.894  0.3802  0.1314 -0.0559
74509W        W75373   3.561  27.855  25.619 -0.1329  0.0672 -0.0332
74510W        W75374   0.463   4.381   2.502 -0.0084 -0.0565 -0.0138
74511W        W75375  12.316   7.851  17.830  0.4600  0.0357  0.0312
74512W        W75376  18.865  27.422  10.184 -0.0193 -0.0967 -0.0325
74513W        W75377  10.319   0.439   2.725 -0.0244 -0.0528 -0.1465
74514W        W75378  13.793  16.617   6.690  0.0193  0.3080 -0.1366
74515W        W75379  25.106  12.050  17.875  0.0470 -0.0589 -0.2903
74516W        W75380   0.557  21.300   1.434 -0.0075  0.0703  0.1271
74517W        W75381   0.410   6.122   1.079 -0.0121 -0.0164 -0.0619
74518W        W75382  27.205  18.540  28.996 -0.1312  0.2691  0.2717
74519W        W75383  11.074  20.350  10.687 -0.0257 -0.0985  0.1705
74520W        W75384   6.830   9.041   2.277 -0.1146 -0.1603 -0.0712
74521W        W75385  12.842   8.163  28.589 -0.0847  0.1035 -0.0607
74522W        W75386   2.485  15.553  12.300 -0.2868 -0.0006 -0.1268
74523W        W75387  16.575   7.021   7.825  0.0146 -0.2490  0.0422
74524W        W75388  20.066   3.689  10.400 -0.1503 -0.3054 -0.2652
74525W        W75389  14.326  21.104   8.009  0.0612 -0.1588  0.2592
74526W        W75390  17.630  25.780   6.746 -0.0546 -0.4496 -0.1857
74527W        W75391  17.805   3.895  11.836  0.2408 -0.0198  0.2180
74528W        W75392  26.452  16.349   3.787 -0.0259 -0.0231  0.0578
74529W        W75393   0.318  25.488  29.035  0.3054 -0.1343  0.1051
74530W        W75394  27.651   6.444   9.663  0.1795 -0.0921  0.2756
74531W        W75395   5.183  17.414   2.401 -0.0406 -0.1943 -0.0496
74532W        W75396   4.419   7.257  10.546  0.2638  0.1079 -0.1860
74533W        W75397   9.050  15.819   2.307  0.0838  0.1074  0.3172
74534W        W75398  15.683   3.347  13.533  0.2606 -0.2412  0.0738
74535W        W75399  15.155  28.666  12.408 -0.0536 -0.1797  0.3175
74536W        W75400  17.624   0.480   5.755  0.2039 -0.1954  0.0943
74537W        W75401   8.671  22.993  21.529 -0.0267  0.1465 -0.3511
74538W        W75402   5.815  13.456   6.658 -0.0270  0.0459  0.1711
74539W        W75403  28.147  17.105  23.356 -0.0740 -0.2764  0.0227
74540W        W75404  16.268  28.826  20.494  0.1691  0.2673  0.2279
74541W        W75405   5.258  21.432   3.414 -0.2203  0.1239  0.0233
74542W        W75406   9.063  25.525   8.700 -0.2997  0.0873  0.5351
74543W        W75407  10.365  21.583   6.424 -0.2209 -0.1625 -0.1252
74544W        W75408  19.754  25.061   6.879  0.2266 -0.1313  0.0020
74545W        W75409   8.325  25.723  21.193 -0.0171 -0.2398 -0.0485
74546W        W75410   6.673  13.613  28.564  0.0703  0.1325  0.0709
74547W        W75411  12.973   5.739  12.948 -0.0266 -0.0824  0.6373
74548W        W75412  27.322   1.861  25.686  0.0056  0.4313 -0.0379
74549W        W75413   7.853  17.815  20.356  0.0341 -0.0613 -0.1960
74550W        W75414  27.010   6.095   7.221  0.2216  0.1848 -0.0274
74551W        W75415  11.055   3.697  13.074  0.0196 -0.1136 -0.1562
74552W        W75416  21.556  28.118  16.551 -0.0416 -0.1248 -0.3224
74553W        W75417   1.521   1.283  28.080 -0.0973 -0.0140 -0.0550
74554W        W75418  29.121  14.922  25.908 -0.0216 -0.1898  0.0281
74555W        W75419  28.989   7.227  16.630 -0.0572  0.0213 -0.2805
74556W        W75420  11.543   0.502   7.110  0.0281 -0.1578 -0.1647
74557W        W75421  10.107  19.328   1.617 -0.0921 -0.2315  0.1372
74558W        W75422   3.998  21.724  26.691  0.3201  0.0312 -0.1168
74559W        W75423  24.403   7.643  20.451  0.1108  0.1201  0.1321
74560W        W75424  16.048   4.395   1.145 -0.3623  0.2249 -0.1414
74561W        W75425  10.713   3.906  19.645 -0.1156 -0.1300 -0.0964
74562W        W75426   8.641  19.068   8.059 -0.0382  0.1009  0.2438
74563W        W75427   4.229  20.642   8.917 -0.0223 -0.1657  0.3067
74564W        W75428  12.623   9.054   7.088 -0.2655 -0.1136 -0.0626
74565W        W75429   4.429  22.714   9.338 -0.0981 -0.2299 -0.3595
74566W        W75430  10.574   4.589  11.450  0.0062  0.0530  0.1773
74567W        W75431  28.084  14.570   9.208 -0.0923  0.1690 -0.1688
74568W        W75432   2.674   7.148   4.477 -0.0245  0.0836  0.0658
74569W        W75433  11.506  19.319  17.104  0.0516 -0.0279 -0.0213
74570W        W75434  14.554  17.790   3.317  0.2764  0.2169 -0.2171
74571W        W75435  13.365  28.206   9.196 -0.1511  0.0939 -0.0906
74572W        W75436  13.874  21.014   9.974  0.3068 -0.0913  0.2597
74573W        W75437   5.941  26.049  13.195  0.2274  0.1698 -0.3208
74574W        W75438   4.724  10.698   5.909  0.1062 -0.0499  0.2084
74575W        W75439   1.129   8.560   1.967 -0.2096 -0.0444 -0.1105
74576W        W75440  17.591   1.271  15.347 -0.1551  0.1175 -0.2370
74577W        W75441   7.693   9.792   7.875 -0.1364  0.0582 -0.0009
74578W        W75442   3.931  13.612  16.780 -0.1360  0.2458 -0.0982
74579W        W75443   2.313  26.435  14.127 -0.0838  0.0982 -0.0118
74580W        W75444  28.607   4.929   1.381 -0.0591 -0.1248 -0.1918
74581W        W75445   6.783   2.867  10.469  0.3229  0.0775  0.1874
74582W        W75446   3.752  12.146   1.887  0.3204 -0.0887  0.2237
74583W        W75447  12.788   6.755  14.546  0.0124 -0.1392  0.2004
74584W        W75448  28.195  25.594  13.293  0.0461  0.0337 -0.2164
74585W        W75449  13.688   2.144  26.715  0.0245  0.0803 -0.1609
74586W        W75450  18.375  19.015  26.838 -0.1895  0.1684  0.0569
74587W        W75451  20.575  28.957   7.576  0.2051  0.1288 -0.1374
74588W        W75452  28.246  25.315  19.531  0.0875  0.0766  0.1217
74589W        W75453  24.229  19.553   7.211  0.2064 -0.0833 -0.2001
74590W        W75454   6.856  17.410  18.248  0.1170  0.0010  0.1116
74591W        W75455   7.736   0.314   5.018  0.0418 -0.1552 -0.0024
74592W        W75456   2.514   3.313  20.415 -0.1347 -0.2871  0.1992
74593W        W75457   5.515  24.112  17.208 -0.0707  0.0725 -0.1145
74594W        W75458   7.501   7.441  28.838  0.0888 -0.2355  0.1104
74595W        W75459   1.298  25.087   2.764  0.0120  0.1485 -0.2251
74596W        W75460  20.063  27.271   8.823  0.0361  0.2292  0.0140
74597W        W75461   5.569   5.609   5.804  0.1035 -0.1407 -0.0857
74598W        W75462   7.436  13.768   4.826  0.0881  0.0489 -0.0447
74599W        W75463  10.578  24.167  27.810  0.0518  0.1637  0.0042
74600W        W75464   5.492  22.652   9.552 -0.0614 -0.2082  0.0709
74601W        W75465   7.205  14.903   5.515 -0.1545 -0.1224 -0.0699
74602W        W75466  19.720   1.209   2.708  0.0489  0.3801 -0.2550
74603W        W75467   7.946  20.413  17.283  0.3751  0.0058 -0.0798
74604W        W75468  16.637   5.785  12.494 -0.0844 -0.2554  0.2025
74605W        W75469   7.254  16.051  10.033  0.0252 -0.0367 -0.0590
74606W        W75470  27.181  17.152  26.448  0.1041  0.1915 -0.1169
74607W        W75471  11.181   7.814  27.105  0.3580  0.0936 -0.2402
74608W        W75472   8.266  25.715  19.728 -0.4035  0.2634 -0.2384
74609W        W75473   9.282  20.032  25.275  0.1396 -0.1018  0.2590
74610W        W75474  21.161   4.452   2.969 -0.3051 -0.0338 -0.1329
74611W        W75475  25.811  12.979  10.610 -0.1856 -0.0882  0.1257
74612W        W75476  15.535  10.229  25.620 -0.3622 -0.1496 -0.2963
74613W        W75477  10.433  20.014  12.410 -0.0487 -0.0261  0.3767
74614W        W75478  25.498  18.706   8.321  0.1602  0.3194  0.1142
74615W        W75479  28.944   2.774  20.527  0.1461  0.3079 -0.1123
74616W        W75480   8.132  15.714   4.916 -0.0449 -0.1004  0.0753
74617W        W75481  13.059  28.162  29.087 -0.1285  0.1683  0.0436
74618W        W75482  27.146  17.130   5.364  0.1552 -0.0900 -0.1418
74619W        W75483  10.929  28.859  25.291 -0.0890 -0.2457 -0.0106
74620W        W75484  27.921  26.549  17.620  0.0626  0.3758 -0.3379
74621W        W75485  12.323  18.429  12.013  0.1478  0.0699 -0.0252
74622W        W75486   5.887  24.728   0.407  0.1708  0.1585  0.1492
74623W        W75487   3.932  10.035  23.630  0.0450 -0.0478 -0.0683
74624W        W75488  28.190   4.451   0.529  0.1127 -0.1384  0.2282
74625W        W75489   0.927  24.147   9.843 -0.1874  0.0024  0.0764
74626W        W75490   4.472  10.129  11.291  0.0434  0.1298  0.0763
74627W        W75491   6.766  18.250   1.414 -0.2824  0.1170 -0.1541
74628W        W75492   0.350   8.637  17.191  0.2002 -0.0187 -0.0779
74629W        W75493   5.807   6.281  13.734 -0.2489 -0.2313 -0.0551
74630W        W75494  11.403   8.768  16.336 -0.0280 -0.0775  0.3228
74631W        W75495  12.328  18.624  15.944 -0.1108 -0.1959 -0.4229
74632W        W75496  28.292   2.999   0.012 -0.1811  0.2312 -0.2130
74633W        W75497   2.732  23.135  28.222  0.0635  0.0706 -0.1926
74634W        W75498   0.527   8.501  16.757  0.1008  0.0978 -0.1822
74635W        W75499   0.991  11.577  14.218 -0.0436  0.4551  0.1416
74636W        W75500   0.851   8.079   6.916 -0.0686  0.5045 -0.0964
74637W        W75501   5.341  16.954   2.297  0.3096  0.0044  0.2172
74638W        W75502  11.272   8.071  14.306 -0.0950  0.1159 -0.3107
74639W        W75503  18.082  11.906   9.775 -0.1780 -0.0229  0.1639
74640W        W75504   7.153  24.432   1.718 -0.0452 -0.0232 -0.0271
74641W        W75505  27.909  24.642   3.742  0.0560  0.1319  0.1509
74642W        W75506  26.667  19.772  13.284 -0.3677  0.1668  0.0635
74643W        W75507  28.159  13.780  21.823  0.1638 -0.1449 -0.1120
74644W        W75508   9.256   4.483  19.460 -0.3486  0.2586  0.0524
74645W        W75509  28.599  18.779   5.102  0.2732  0.0825 -0.2465
74646W        W75510  26.455   2.155  18.950 -0.0670  0.0050 -0.1704
74647W        W75511  25.152   9.974   6.708  0.0667 -0.3736 -0.1370
74648W        W75512  21.341   1.526  18.636  0.2034 -0.1413  0.1433
74649W        W75513  11.122  15.504  13.411  0.3182 -0.2631  0.2676
74650W        W75514  10.155  23.267  14.197  0.1987  0.0573 -0.1343
74651W        W75515  19.091   2.743   3.762  0.1076  0.4084  0.1736
74652W        W75516   1.863  14.533  16.214 -0.0950  0.1630 -0.3739
74653W        W75517  11.024  11.137   6.987  0.0542  0.0407  0.0630
74654W        W75518   6.410  22.560   0.809  0.0574 -0.3287 -0.3155
74655W        W75519  14.852  21.991   9.951  0.2312 -0.2698  0.2649
74656W        W75520  28.991   2.971  27.655  0.0869 -0.0096  0.0846
74657W        W75521  26.768   1.924  25.656 -0.0806 -0.4848 -0.2140
74658W        W75522   7.248  21.954  12.742  0.0538  0.2345  0.0788
74659W        W75523  10.136  25.236  19.647  0.0920  0.0613 -0.2395
74660W        W75524  17.478   1.421  28.894  0.1984  0.2287  0.0061
74661W        W75525   2.842  28.245   8.156 -0.4091  0.1864 -0.0223
74662W        W75526  16.895   5.480  23.133  0.0920  0.0473  0.1547
74663W        W75527   0.961  28.368  14.135  0.0494  0.1996 -0.0170
74664W        W75528   2.717   1.277  11.324  0.1432  0.4513 -0.0719
74665W        W75529  16.074   1.357   9.646 -0.0376  0.0437 -0.1449
74666W        W75530   3.786  22.951  15.776 -0.1420 -0.0010 -0.1641
74667W        W75531  16.851  16.907  17.503  0.0912  0.0056  0.1554
74668W        W75532  20.403   1.405   5.289 -0.1248  0.1893 -0.1651
74669W        W75533  13.875  24.722  14.861 -0.2198 -0.1091 -0.2036
74670W        W75534  15.449   3.079   5.715  0.1436 -0.1724  0.0359
74671W        W75535  10.511  20.597   7.224 -0.2035  0.0347 -0.1700
74672W        W75536  17.652  26.950  19.051 -0.0042 -0.1180 -0.0075
74673W        W75537   2.924  26.428  10.914 -0.2870  0.1601  0.1418
74674W        W75538   2.182  23.393  11.318 -0.0784 -0.1191 -0.0551
74675W        W75539   8.325  16.343   7.224 -0.3549  0.0872  0.1725
74676W        W75540   2.013  23.618  10.272  0.0233  0.0411 -0.1974
74677W        W75541  15.889   4.874   4.783 -0.1455  0.0936 -0.0770
74678W        W75542   9.006  26.623   8.472 -0.0106 -0.2418  0.2588
74679W        W75543  28.554  25.470   3.369 -0.0542 -0.2090 -0.3726
74680W        W75544  13.548   5.222   9.856  0.0098 -0.1577 -0.0674
74681W        W75545   6.415  21.657  14.766 -0.2389  0.0123  0.3979
74682W        W75546  15.234   0.713  23.246 -0.0761  0.0732 -0.0238
74683W        W75547   7.162  11.600  15.631 -0.0598 -0.1830 -0.1556
74684W        W75548  16.224   3.157   9.380 -0.1434 -0.2675  0.0823
74685W        W75549   0.307  13.376  14.441  0.1286 -0.1486  0.0197
74686W        W75550  21.060   8.305  13.949 -0.0912 -0.1294 -0.0008
74687W        W75551   5.653  18.337   3.790 -0.0183  0.0825  0.2283
74688W        W75552   1.851  20.130  10.311  0.2178  0.0963  0.0506
74689W        W75553  17.181   8.678   0.643 -0.1711 -0.0519 -0.0091
74690W        W75554   2.710   7.374   8.741  0.0165 -0.0995  0.2421
74691W        W75555  20.006  21.769  28.770 -0.1353 -0.0438  0.1420
74692W        W75556   2.700   1.828  11.023  0.2223 -0.2112  0.1067
74693W        W75557   9.564  27.291   8.931 -0.1110 -0.1497  0.1768
74694W        W75558  11.509   3.959   9.044 -0.0629  0.0937 -0.2057
74695W        W75559  14.576  10.426  24.730  0.0204  0.2428  0.1468
74696W        W75560  12.289  18.140  17.228  0.0588 -0.1161 -0.3367
74697W        W75561   4.526  16.473   2.600  0.0866  0.1823 -0.2748
74698W        W75562  14.519  28.340  24.726 -0.0483  0.0363  0.2253
74699W        W75563  27.399  12.484  10.443  0.1084 -0.1226  0.0069
74700W        W75564   3.849  11.389   9.953  0.0180 -0.1069  0.0010
74701W        W75565  17.056   2.672   6.489 -0.4413  0.0795  0.0297
74702W        W75566   9.894  18.654  26.987  0.0186 -0.2198 -0.1442
74703W        W75567  15.414  28.000  10.845 -0.1272  0.0198 -0.0426
74704W        W75568  16.061   3.447   9.739  0.0444 -0.0564 -0.0561
74705W        W75569  15.561  21.690   2.812 -0.0249  0.1498  0.0629
74706W        W75570  10.860   7.734  14.296  0.1089 -0.3313  0.0075
74707W        W75571  24.946  26.268  18.626  0.3366 -0.0981 -0.1331
74708W        W75572   9.952  25.311  25.777 -0.1121 -0.3207 -0.0748
74709W        W75573   3.472  14.620   9.109 -0.4675 -0.0709  0.2608
74710W        W75574  28.488  12.264   9.651  0.0639  0.1257 -0.0135
74711W        W75575   0.271  25.628  20.021  0.0805  0.1114  0.0909
74712W        W75576  13.614  17.140  11.395 -0.1924 -0.2884 -0.0760
74713W        W75577   4.577  11.269   7.135 -0.0180  0.2407 -0.3274
74714W        W75578  18.699   1.063  23.536  0.1469 -0.2510  0.0064
74715W        W75579  13.204  28.075   0.666 -0.0852  0.1351  0.0988
74716W        W75580  20.903   6.322  18.120 -0.1365 -0.1349  0.0032
74717W        W75581  27.805  18.226  22.032  0.0522  0.0583 -0.1608
74718W        W75582   8.369  13.920  10.683  0.0899 -0.0745  0.2829
74719W        W75583   2.569   4.654   7.878  0.1826 -0.3302  0.2128
74720W        W75584   3.155  11.287  14.626 -0.0196 -0.2607  0.0809
74721W        W75585  15.927   9.213  27.442 -0.2939  0.0622 -0.0521
74722W        W75586   3.941   2.694   3.146  0.0694 -0.1541 -0.0853
74723W        W75587   2.447  20.666   8.888  0.2183 -0.1048 -0.2863
74724W        W75588   9.069  27.543   5.166  0.4595  0.1005  0.1715
74725W        W75589   6.406  19.717   8.827 -0.0939  0.2044  0.0476
74726W        W75590   3.337  25.495  14.890 -0.1496  0.3597  0.0105
74727W        W75591   7.094  21.190  24.802 -0.3169  0.0066  0.1893
74728W        W75592  25.838  27.130  26.593 -0.0333 -0.3356  0.0865
74729W        W75593   5.805   3.793   1.570  0.1000  0.1140  0.0526
74730W        W75594  16.512  18.723  14.307 -0.1444  0.0305 -0.0626
74731W        W75595   9.898  21.079   9.806  0.2766  0.1164 -0.0391
74732W        W75596   2.209  16.697   8.628  0.2630  0.0421 -0.1062
74733W        W75597  28.811  10.949   5.656 -0.3775  0.3748 -0.3698
74734W        W75598  20.764  21.393   8.568  0.1299 -0.0270 -0.1012
74735W        W75599  28.028  13.813   6.472 -0.0251  0.0383  0.0993
74736W        W75600   5.058   5.219  26.958 -0.2238 -0.2976 -0.1932
74737W        W75601  19.923   6.913   1.277  0.0396  0.0122  0.2450
74738W        W75602   7.511   0.639  25.982 -0.1297  0.2164  0.0264
74739W        W75603  21.178  12.610  28.608 -0.2601  0.0788 -0.3895
74740W        W75604  28.646  15.953  12.506 -0.4095  0.0398 -0.0897
74741W        W75605  22.193   7.470   1.582 -0.1744 -0.1775  0.1461
74742W        W75606   7.959   6.063   3.113  0.1021 -0.3392 -0.0223
74743W        W75607   9.432  12.034  10.021 -0.3358  0.0861  0.0521
74744W        W75608  17.721  24.069  12.242  0.0761 -0.1322 -0.0934
74745W        W75609   5.204  22.378   9.952  0.2023 -0.0537 -0.2593
74746W        W75610  23.540  22.665   4.326 -0.0510 -0.4787 -0.2796
74747W        W75611  10.176  25.675   7.019 -0.4052  0.1822  0.0734
74748W        W75612  27.445   3.703   0.291 -0.0103 -0.3959  0.2592
74749W        W75613  18.757  15.034  14.622 -0.1723  0.0014 -0.0949
74750W        W75614  13.990  24.687  11.747 -0.0269  0.2949 -0.2018
74751W        W75615   7.208  26.175  15.550  0.0245  0.0550 -0.1122
74752W        W75616  12.354   7.626  21.835  0.0868 -0.1633 -0.2027
74753W        W75617  26.661  19.166  13.960  0.1823  0.1389  0.0279
74754W        W75618   5.994   6.049  13.245 -0.1831  0.2951  0.0802
74755W        W75619   6.118   1.775  18.458  0.2183  0.2359  0.1835
74756W        W75620   2.925  18.353   1.226 -0.2123 -0.1215  0.2924
74757W        W75621   6.729  25.548   7.616 -0.1700 -0.0702 -0.0162
74758W        W75622  24.249  11.022   5.492 -0.0111 -0.1059 -0.2171
74759W        W75623   9.834  22.195  24.480 -0.2199  0.1676  0.1587
74760W        W75624  11.334  10.036  24.340  0.0218 -0.1555 -0.2425
74761W        W75625  10.039  21.649   0.789  0.1762  0.1034 -0.2069
74762W        W75626  13.118  26.852   9.980 -0.1865  0.0162  0.0063
74763W        W75627  12.048  24.418  17.933  0.0003 -0.1114 -0.0826
74764W        W75628  25.333  15.924  20.339 -0.0907 -0.0465 -0.2020
74765W        W75629   1.932  16.309  21.684 -0.0598 -0.1342  0.1445
74766W        W75630  13.895   0.722  10.978 -0.0888  0.0206  0.0989
74767W        W75631  19.875  15.668  14.599  0.0023  0.2629 -0.1885
74768W        W75632   2.817  22.864  22.278 -0.1574 -0.2737  0.1859
74769W        W75633   1.012   7.256   1.524 -0.0484  0.2789  0.1412
74770W        W75634  27.648   4.150   9.159 -0.1903  0.0022  0.1780
74771W        W75635  15.424  22.535   5.696 -0.0159 -0.0761  0.0616
74772W        W75636  18.089   8.767   3.655 -0.1741 -0.2317 -0.2336
74773W        W75637  10.907  26.843  10.703  0.1421  0.3691  0.0890
74774W        W75638  14.799  28.872  19.175 -0.0108 -0.1599  0.2913
74775W        W75639   6.197  20.059  20.578 -0.2471 -0.1265 -0.1843
74776W        W75640   2.612   8.856  26.706 -0.0831  0.1958 -0.2418
74777W        W75641  12.605   5.180  15.912  0.3875  0.4117 -0.3088
74778W        W75642  20.787  11.656  15.250  0.1591 -0.2890  0.1383
74779W        W75643  19.098   3.530  29.043 -0.2343  0.0528 -0.1840
74780W        W75644   7.388   2.050   7.549  0.0659  0.1247  0.0613
74781W        W75645  10.987  24.426   0.451  0.1318  0.1617  0.0706
74782W        W75646  26.106   7.712   7.624 -0.0945  0.0214 -0.1605
74783W        W75647  14.627   3.528  11.732 -0.0887 -0.1121  0.3077
74784W        W75648  14.236   5.013   5.475 -0.2292 -0.1270 -0.2373
74785W        W75649  26.113   5.620   8.193 -0.2270  0.0965 -0.0774
74786W        W75650   8.287  20.794   2.413 -0.0108  0.1497 -0.0162
74787W        W75651  14.566  10.744   8.030 -0.4142 -0.2843 -0.1115
74788W        W75652  28.583  16.495  14.897  0.3249  0.2341 -0.1062
74789W        W75653  21.264   6.186  26.503 -0.3858 -0.2454  0.1088
74790W        W75654  17.921  18.685   3.063  0.1501 -0.0292  0.2026
74791W        W75655   4.788  21.741  13.265 -0.0858 -0.1147  0.1650
74792W        W75656   9.191   5.345  22.538 -0.1640  0.0208 -0.0454
74793W        W75657   5.650  28.030  14.474  0.2822  0.1571  0.0590
74794W        W75658  20.520  24.573  20.764 -0.1321 -0.0636 -0.0828
74795W        W75659  21.091  11.574  11.078  0.3205 -0.3282 -0.2300
74796W        W75660   5.443   3.061  13.299  0.0488  0.0432  0.0213
74797W        W75661  27.442  20.411   9.938  0.0823  0.0949  0.1998
74798W        W75662  16.502  17.841   7.895 -0.1917  0.0333 -0.1506
74799W        W75663   4.763  11.829   2.509 -0.2812 -0.1265  0.0945
74800W        W75664  23.504  26.502  22.296  0.0581 -0.2420 -0.0683
74801W        W75665  28.473  20.908   9.846 -0.0981 -0.1841 -0.0482
74802W        W75666   7.469  23.873  26.988 -0.0455 -0.2925  0.2577
74803W        W75667  24.109  21.409   6.339 -0.0357  0.2787 -0.3358
74804W        W75668   3.127  25.230   7.771 -0.0106 -0.0975 -0.1164
74805W        W75669  13.520   4.233   1.740  0.1226 -0.0649  0.0277
74806W        W75670  13.996  28.044  16.574  0.3022 -0.1124 -0.0051
74807W        W75671  14.007  20.475  16.983  0.1595 -0.3062 -0.1815
74808W        W75672  14.821   0.831  21.550 -0.0800  0.2672 -0.1950
74809W        W75673  28.561  23.830   6.404 -0.2104  0.0077  0.0982
74810W        W75674   9.822  26.390  15.160  0.0093 -0.0569 -0.1210
74811W        W75675   0.515  27.174   4.134 -0.1639  0.1483 -0.3965
74812W        W75676   9.771  22.375  11.476 -0.0942 -0.0825 -0.0316
74813W        W75677  12.434  23.306  13.839 -0.3583 -0.0899  0.0604
74814W        W75678  25.839  24.747   1.350  0.1234  0.3511 -0.1853
74815W        W75679   2.771  19.390  17.344 -0.0590  0.0632 -0.1116
74816W        W75680   6.680  24.985  10.587  0.1382 -0.3109 -0.1086
74817W        W75681  12.598  23.941  16.054  0.1744  0.0800  0.0121
74818W        W75682   6.498   4.864  26.654  0.1164 -0.1419 -0.1691
74819W        W75683  14.736   4.295  25.558 -0.1943  0.1498 -0.1497
74820W        W75684  17.029   7.250   9.050  0.1078  0.0637 -0.2127
74821W        W75685  15.223  13.945  17.381 -0.1315 -0.3297  0.1196
74822W        W75686   2.526   5.211   0.035 -0.1431  0.1642 -0.1091
74823W        W75687  12.603   4.700  17.429 -0.0710  0.1394 -0.3546
74824W        W75688  20.404  28.787   0.069  0.1518 -0.2618 -0.2842
74825W        W75689   0.714  27.283   8.863 -0.1656  0.1231  0.0731
74826W        W75690   4.269  15.496   0.979  0.0205 -0.3290 -0.4057
74827W        W75691   3.437   0.836  13.691  0.0022 -0.3160  0.0489
74828W        W75692  12.621  23.349  12.702  0.0096  0.1341  0.1195
74829W        W75693  21.055  21.950  14.100  0.2458  0.0632 -0.1276
74830W        W75694   6.138  14.864  18.097 -0.1269 -0.0819  0.0888
74831W        W75695  17.029   0.928   5.048  0.0038 -0.2472 -0.1098
74832W        W75696   8.398  19.881  24.788  0.1755 -0.1139  0.0239
74833W        W75697   6.815  14.316   8.295  0.0860 -0.0254 -0.1194
74834W        W75698  27.126  19.602  26.888 -0.0262  0.0216  0.1795
74835W        W75699  14.626   2.528   8.156 -0.0981 -0.0380  0.0540
74836W        W75700  11.147  29.089  17.970  0.0634  0.1582  0.0319
74837W        W75701  22.600  14.105  10.361 -0.0532 -0.1429  0.1288
74838W        W75702  26.077  26.360  28.491  0.1594 -0.2165 -0.2719
74839W        W75703   4.954  15.545  13.899 -0.2865  0.1336  0.0236
74840W        W75704   7.027   4.816   7.121  0.0500 -0.0587 -0.0857
74841W        W75705  10.658  23.314  13.801  0.3168 -0.2780 -0.1649
74842W        W75706  28.227  16.529  11.136  0.2877  0.1415 -0.0707
74843W        W75707  13.180   9.230  12.631 -0.1602 -0.1607  0.1285
74844W        W75708  12.159   0.964  19.244  0.0510  0.1110  0.3327
74845W        W75709  16.639   1.036  14.682 -0.0381 -0.0916 -0.0361
74846W        W75710  21.648   0.769  23.079 -0.1040  0.0060 -0.2031
74847W        W75711  10.042  23.640  22.650 -0.4511  0.1608  0.1812
74848W        W75712   8.422  20.885  22.803 -0.0255 -0.0793  0.1201
74849W        W75713  27.868  11.234   2.697  0.2250 -0.0567 -0.1262
74850W        W75714   5.603  26.078  19.050 -0.3179  0.2338 -0.0415
74851W        W75715   0.409  12.003  15.623  0.1408 -0.1864 -0.1356
74852W        W75716  18.458  27.603  18.176  0.1744 -0.1427 -0.1484
74853W        W75717  14.752  22.535  19.815  0.1325  0.1394 -0.1427
74854W        W75718  17.915   1.129   5.968 -0.0521  0.2257  0.1410
74855W        W75719  28.238  25.482  26.408 -0.0546 -0.0100 -0.1119
74856W        W75720  12.622   5.424  16.393  0.0320 -0.0844  0.1023
74857W        W75721   7.517  21.958  25.807 -0.2283 -0.0907  0.0611
74858W        W75722   8.219   0.500  18.402 -0.0231 -0.0950 -0.3984
74859W        W75723  11.618  14.882  14.014  0.0698  0.0457 -0.3682
74860W        W75724  27.644  17.533  11.542  0.1702 -0.2762  0.1153
74861W        W75725  27.563  17.701  19.895  0.1577 -0.2537 -0.1071
74862W        W75726   4.646   5.983  19.609  0.0746  0.0277 -0.2007
74863W        W75727  11.247  28.738  28.900  0.0661  0.0080 -0.2117
74864W        W75728   6.091   3.787   7.623  0.0847  0.1285 -0.1141
74865W        W75729  15.369  14.274  16.922 -0.2987  0.1042  0.0483
74866W        W75730  27.611  25.515  25.649 -0.2701  0.2274  0.0465
74867W        W75731   1.857  25.571  16.438 -0.2139 -0.1168 -0.2030
74868W        W75732   8.103  17.745   6.730  0.0530 -0.1045  0.0030
74869W        W75733  15.177   5.583  16.983 -0.0640 -0.0916  0.1452
74870W        W75734  11.023  25.982  28.737 -0.1091  0.1051 -0.0367
74871W        W75735   3.695  29.057   8.993  0.1103 -0.4870 -0.3307
74872W        W75736  19.930   1.516   3.098  0.2323  0.3235  0.0828
74873W        W75737  27.373  24.395   1.607  0.3280 -0.1846 -0.4851
74874W        W75738   7.261  16.967  14.004 -0.4264 -0.2245 -0.1023
74875W        W75739  14.239  16.603  17.704 -0.1513  0.0673  0.0563
74876W        W75740  24.025   1.661  29.055  0.0681  0.4799 -0.2808
74877W        W75741  17.156  16.243   7.486  0.1987 -0.0177  0.2950
74878W        W75742   0.241   8.616   3.779 -0.0770  0.3656  0.1800
74879W        W75743   2.819  27.561  18.467  0.2405 -0.0500  0.1601
74880W        W75744  10.792  21.236  11.944 -0.2729 -0.2071  0.3296
74881W        W75745   6.355  20.584   2.542  0.1361  0.2515  0.0693
74882W        W75746   7.609  25.598   9.219  0.0649 -0.4178 -0.0238
74883W        W75747  11.245  10.793  14.767  0.3029 -0.3814  0.0168
74884W        W75748  16.238   9.792   5.280  0.2663 -0.0597  0.1447
74885W        W75749  10.772  22.792  13.860 -0.2567  0.1726 -0.0959
74886W        W75750   8.495  24.195  18.634 -0.0552  0.2324  0.0442
74887W        W75751  25.223  26.075  10.191 -0.1577 -0.0348 -0.0207
74888W        W75752   7.416  11.358  23.553  0.0190 -0.0102 -0.1278
74889W        W75753   8.638  23.503  25.913 -0.0563 -0.0434 -0.0987
74890W        W75754  18.203  17.460  10.366 -0.0777  0.1107  0.1772
74891W        W75755  14.251  23.184  22.349 -0.0464 -0.1210  0.1395
74892W        W75756   4.252   3.494   5.100  0.2364  0.3015 -0.0084
74893W        W75757  29.028  28.915  10.496  0.2571 -0.2142 -0.2718
74894W        W75758  10.654  23.488  20.155 -0.0764 -0.1106  0.2444
74895W        W75759   9.075   4.760   5.429 -0.1152  0.1761  0.3076
74896W        W75760  13.394   7.935  12.155 -0.0154 -0.2448  0.4257
74897W        W75761   7.240  17.614  24.138 -0.0350  0.0935 -0.1128
74898W        W75762  14.046  17.389  11.938 -0.0943 -0.0098 -0.1963
74899W        W75763  12.827  17.269   9.781  0.0301  0.1243 -0.0322
74900W        W75764  21.646   4.307  26.330  0.1465  0.2587 -0.1889
74901W        W75765   7.611   2.900  12.462 -0.0826  0.0542  0.2032
74902W        W75766  13.095   8.595  19.944 -0.1969  0.0657 -0.2764
74903W        W75767  10.201  23.638  13.874  0.0158  0.1365 -0.1281
74904W        W75768   8.811  26.274   7.961 -0.0588  0.0783  0.1094
74905W        W75769  12.104  15.179  20.480  0.1792 -0.1886  0.1253
74906W        W75770  14.785  14.005   8.801 -0.1064  0.1395 -0.0828
74907W        W75771  19.593   4.394  17.313  0.2867  0.2124  0.0568
74908W        W75772  12.400  11.233  17.625  0.0457  0.2032  0.0815
74909W        W75773  17.338  24.050  22.655  0.2662 -0.0961  0.0476
74910W        W75774   8.900  16.271   5.916  0.1216  0.2629 -0.1508
74911W        W75775  20.456   1.347   0.273 -0.1135  0.2361 -0.0272
74912W        W75776   2.522  26.261  21.430  0.4259  0.3080  0.0442
74913W        W75777  24.804  28.369  10.047  0.0864 -0.1720 -0.1973
74914W        W75778   6.589   3.112   3.139 -0.2424 -0.0736 -0.3909
74915W        W75779  10.664  13.758   5.675  0.0506 -0.0316  0.0410
74916W        W75780   9.227   0.183  10.760  0.0693  0.4161  0.1103
74917W        W75781   8.969   6.471   7.471  0.2700 -0.2332  0.1759
74918W        W75782  25.439   7.935  26.360 -0.0003 -0.0864  0.4128
74919W        W75783  28.077  21.073   7.573 -0.0780 -0.1621  0.1020
74920W        W75784   8.174  25.399   5.093 -0.1065  0.0301 -0.1413
74921W        W75785  22.665  24.113   2.136  0.0222 -0.0602  0.2225
74922W        W75786  23.896  22.423  13.363  0.0097  0.2045  0.2586
74923W        W75787  21.849  10.731  14.837 -0.0921 -0.0372  0.0812
74924W        W75788   0.187  27.831  20.275 -0.3391 -0.2656  0.1901
74925W        W75789   5.855  21.556  17.705  0.0726  0.0811  0.3185
74926W        W75790  18.578  26.425  21.676 -0.2575  0.0680  0.0645
74927W        W75791  20.182  24.574   3.770  0.2624 -0.1352 -0.3131
74928W        W75792  21.660  24.784  16.120  0.1731  0.0943 -0.1509
74929W        W75793  19.606  25.563  14.599 -0.0352 -0.2146  0.0675
74930W        W75794   5.568  10.286   3.732 -0.2076  0.1977 -0.0252
74931W        W75795  23.098  15.895  28.171 -0.0337 -0.3087  0.2615
74932W        W75796  20.706   0.672  12.579 -0.2911  0.1052 -0.2339
74933W        W75797  20.518  26.892   8.180 -0.1922 -0.2837  0.2327
74934W        W75798   1.570   4.240   7.177 -0.2020  0.1614  0.1715
74935W        W75799  23.541  20.626  10.874 -0.0935 -0.1177 -0.0926
74936W        W75800  24.248  25.966  19.445 -0.0344 -0.0301 -0.0285
74937W        W75801  16.639   5.343  21.280  0.1810 -0.0058  0.0360
74938W        W75802  19.862   7.925  21.363  0.1964 -0.1688  0.1252
74939W        W75803  13.082   9.627   0.717  0.1243 -0.0485 -0.2247
74940W        W75804  19.771   3.389  13.111 -0.1280 -0.1361 -0.0551
74941W        W75805   9.369  17.603  10.139  0.0691 -0.2431  0.4241
74942W        W75806  15.520  22.232  10.601 -0.0813  0.0066  0.0862
74943W        W75807   1.750   4.150  26.504 -0.0879  0.0344 -0.0089
74944W        W75808  26.578   0.835   9.167 -0.0264  0.3958 -0.0884
74945W        W75809   1.369  17.777  18.936  0.5522 -0.1907  0.6224
74946W        W75810   6.204   1.107   2.082 -0.1846 -0.1056  0.1566
74947W        W75811   7.834   0.609  22.918  0.0911 -0.2023  0.0158
74948W        W75812   8.811   1.105   5.703  0.1296  0.2862  0.0856
74949W        W75813  12.519  24.660  18.029  0.1739 -0.1030  0.1643
74950W        W75814   6.469  19.852  13.064  0.1122  0.0902 -0.0600
74951W        W75815   7.894  10.616   9.438 -0.3924 -0.0460  0.2880
74952W        W75816  12.773   7.761  16.949 -0.1490  0.2520 -0.1969
74953W        W75817  17.600  23.315  28.500  0.1052  0.3803  0.1715
74954W        W75818  10.419   0.172  15.461 -0.1068 -0.1998 -0.0743
74955W        W75819   4.694   2.318   4.108  0.0036  0.1912  0.1469
74956W        W75820  13.557   3.788  14.300 -0.0726 -0.1495  0.2712
74957W        W75821  22.745   4.375  10.166 -0.2808  0.1571  0.0795
74958W        W75822  28.233   5.385   0.143  0.1273  0.3470 -0.2898
74959W        W75823   5.834  10.744  25.251 -0.0833  0.0930  0.1731
74960W        W75824  11.612  19.145  14.699  0.0079  0.0125 -0.2779
74961W        W75825  25.662  10.946  15.562  0.3249 -0.0390 -0.3107
74962W        W75826   4.690  23.420   6.231 -0.0563 -0.0728  0.1368
74963W        W75827  23.246  21.905  16.258 -0.0254  0.0871  0.0705
74964W        W75828   6.617  15.344  28.683 -0.2659  0.1045 -0.2283
74965W        W75829   4.793  21.642  22.618 -0.0362  0.0181  0.1004
74966W        W75830   2.464  25.742   8.509 -0.3375 -0.0378 -0.1037
74967W        W75831   9.817   1.933   2.589 -0.1343 -0.2463  0.1578
74968W        W75832  15.029  17.412  28.698  0.2287  0.0669  0.3248
74969W        W75833  10.308  17.121  18.575 -0.0935 -0.1759  0.1794
74970W        W75834   9.145  14.617  24.316  0.5390 -0.1897 -0.0364
74971W        W75835   7.196  11.962   8.626 -0.1904  0.3945  0.2800
74972W        W75836  14.768  27.173  16.162 -0.0341 -0.2923 -0.0106
74973W        W75837  10.602  18.600  22.133 -0.1329 -0.0969 -0.0443
74974W        W75838   5.491   4.328  26.767 -0.0558 -0.0913  0.3290
74975W        W75839   5.240   1.931  12.883 -0.1290 -0.2197  0.0292
74976W        W75840   0.716  15.886   8.833 -0.1910  0.0005  0.1124
74977W        W75841  26.913  22.036  12.799 -0.3568 -0.2754 -0.2008
74978W        W75842   9.650   1.120  24.961 -0.2996  0.0714  0.0193
74979W        W75843   5.144   1.797  21.058 -0.0345  0.0223  0.1907
74980W        W75844   9.277   0.638  19.424  0.2873 -0.0647  0.3229
74981W        W75845   8.520  19.086  26.077  0.2031 -0.0891  0.2102
74982W        W75846  17.233  28.386  20.497 -0.1105  0.2557 -0.1891
74983W        W75847   4.914  17.016   0.118  0.0564  0.4560  0.0785
74984W        W75848   1.238   8.571  14.336  0.2739 -0.0101 -0.1224
74985W        W75849   4.485   4.475  24.145  0.1389 -0.1228  0.3547
74986W        W75850   2.244  10.331  14.045 -0.2576  0.1453  0.0759
74987W        W75851  25.631  20.036   9.229  0.2152  0.2041  0.0217
74988W        W75852  16.049  16.272   5.218 -0.1015 -0.0240 -0.0726
74989W        W75853  18.149   1.743  27.390  0.2306 -0.0019  0.0484
74990W        W75854  27.900  17.144  13.352 -0.1082 -0.0892 -0.2339
74991W        W75855  15.867  28.720   8.631  0.0567  0.0613  0.0762
74992W        W75856   6.677  12.872  21.380  0.0402  0.3468  0.2401
74993W        W75857  14.543  24.731  28.436  0.0617 -0.0642 -0.3706
74994W        W75858  10.203  28.171  20.151  0.1075  0.0163 -0.0928
74995W        W75859   6.336  12.852  24.991  0.0620  0.0795 -0.3037
74996W        W75860  23.709   6.163  14.250 -0.1684 -0.0711  0.3087
74997W        W75861  24.076  20.218   3.689  0.0895 -0.2408  0.6231
74998W        W75862   3.450   3.229   8.249  0.0937 -0.1096 -0.2052
74999W        W75863  24.249  25.509  23.954  0.0106  0.1662 -0.0374
75000W        W75864  19.850  24.316  18.656 -0.1497  0.1636  0.0662
75001W        W75865  12.585   1.242  13.438 -0.1171 -0.1975 -0.1922
75002W        W75866   9.473   4.570  18.108 -0.0635 -0.0589 -0.0531
75003W        W75867  23.046  10.357  18.737  0.0179 -0.0930 -0.0579
75004W        W75868   4.677   7.648   7.119  0.2403 -0.0226  0.0058
75005W        W75869  12.807  25.718  13.816 -0.0198 -0.0354  0.4409
75006W        W75870  23.276  20.869  24.520 -0.2102  0.0570 -0.1752
75007W        W75871  22.761   3.856   9.267 -0.3845  0.0340 -0.1799
75008W        W75872  21.142  20.707   9.822  0.3603 -0.2150 -0.3081
75009W        W75873  14.099  15.841  26.138  0.0285  0.1948 -0.0814
75010W        W75874  26.788  27.475  26.494 -0.0541 -0.2257 -0.4578
75011W        W75875   9.959  28.632  28.243  0.0866  0.0041  0.0795
75012W        W75876  24.836  13.495  27.061  0.0220  0.0891 -0.2829
75013W        W75877   4.061  27.815  19.371  0.6185  0.0066  0.1561
75014W        W75878   0.237  13.056  23.102  0.0356  0.1603  0.0867
75015W        W75879   0.605  24.551  26.467  0.0811 -0.4928  0.1269
75016W        W75880   2.239  10.138  22.392 -0.0047  0.0397  0.2027
75017W        W75881   2.196  23.580   9.773  0.2345 -0.1204  0.1496
75018W        W75882  17.386   0.497   5.313 -0.0876  0.0334 -0.1810
75019W        W75883  16.159  24.965  10.295  0.2911  0.0482  0.0594
75020W        W75884   5.687   2.536   8.836  0.2225  0.0737  0.1939
75021W        W75885  13.195  22.177  15.068  0.0903 -0.0136 -0.0158
75022W        W75886  21.073  15.581   4.269 -0.2991 -0.5124 -0.1186
75023W        W75887  21.557   1.748  16.240 -0.1250  0.1712 -0.2292
75024W        W75888   6.157   6.268   5.605  0.1057 -0.0336  0.3251
75025W        W75889   1.933  16.732   0.907  0.2964  0.1425  0.0472
75026W        W75890   9.242  12.346   1.241  0.0299 -0.1808  0.0338
75027W        W75891  13.071  28.295  23.318  0.4623 -0.0972  0.1467
75028W        W75892  15.747  19.351  11.903  0.1764 -0.1428  0.1335
75029W        W75893   6.183  14.498   9.799 -0.2131  0.0737 -0.1421
75030W        W75894  19.822   4.979  13.482 -0.1019 -0.0440 -0.0959
75031W        W75895  24.887   1.120  22.129 -0.3598  0.0510  0.0096
75032W        W75896   6.283  26.408  27.598 -0.0999 -0.1507 -0.1457
75033W        W75897  14.895  27.929  10.523  0.4659 -0.0414 -0.0341
75034W        W75898   9.683  14.930   0.824 -0.2444  0.0064 -0.1953
75035W        W75899   2.681   7.656  13.742  0.1908 -0.2364  0.1118
75036W        W75900   5.356  22.724   1.198  0.1059 -0.1478 -0.2481
75037W        W75901  26.027  18.109   0.345  0.2092  0.2121  0.2913
75038W        W75902   4.415   8.930  13.681 -0.1393  0.1823 -0.1758
75039W        W75903  14.458  28.706  11.527 -0.2704 -0.1150  0.3777
75040W        W75904  13.648   4.701   0.222  0.0237  0.3060 -0.0522
75041W        W75905  11.590  20.016  22.287  0.0276 -0.1627  0.1292
75042W        W75906   9.100  20.413  11.256  0.2150  0.0804  0.1361
75043W        W75907  25.432   1.800  22.716 -0.2265  0.0236 -0.3829
75044W        W75908  28.391  19.454  23.897  0.6002  0.2646 -0.0801
75045W        W75909  14.568   4.411  16.561 -0.0082  0.0272  0.0969
75046W        W75910   2.800  12.708   6.301  0.2454  0.0054  0.0301
75047W        W75911  10.653  18.232  12.636 -0.0271 -0.1469  0.2609
75048W        W75912  11.431   2.795  20.919 -0.1203  0.3423  0.2371
75049W        W75913  12.972   3.978  10.047  0.0568  0.0275 -0.1593
75050W        W75914  22.326  15.461  10.083 -0.1760 -0.0858 -0.1101
75051W        W75915  16.193  20.721  28.875  0.3021 -0.0085 -0.2865
75052W        W75916  21.738   1.517   2.843  0.1073 -0.2462  0.0140
75053W        W75917  13.698  24.513   8.567 -0.1930 -0.0974 -0.1588
75054W        W75918  11.960  23.231  16.491 -0.3851 -0.4855 -0.0426
75055W        W75919  24.664  28.569  17.605 -0.0126 -0.0803 -0.0890
75056W        W75920   8.156  13.045  27.059  0.1871  0.3081 -0.0162
75057W        W75921  15.173  25.398  26.616  0.0357 -0.0725 -0.1167
75058W        W75922  23.708   7.883  21.239 -0.2355 -0.0444 -0.2757
75059W        W75923  12.524   4.043   3.327 -0.1708  0.2959 -0.1234
75060W        W75924   1.090  19.585  11.789 -0.0612  0.1196 -0.2623
75061W        W75925   8.508  20.639  14.169  0.0059  0.1597 -0.0545
75062W        W75926  14.270  23.366   2.647 -0.1478  0.2695 -0.1664
75063W        W75927   5.778  17.255  26.631 -0.2548  0.2948 -0.0782
75064W        W75928   2.070  11.726  10.886  0.0704 -0.1506 -0.2891
75065W        W75929  28.498  11.313   8.531 -0.0358  0.2995  0.0747
75066W        W75930   1.758   7.975   2.547  0.1759  0.0381  0.0313
75067W        W75931  18.022  13.836   6.532  0.1517 -0.1379  0.0019
75068W        W75932  28.892   6.538  26.613 -0.0912  0.0082  0.1669
75069W        W75933   9.986  25.018  14.710  0.0486 -0.0021 -0.3024
75070W        W75934   0.155  25.648  17.461 -0.4589  0.1926 -0.1545
75071W        W75935  12.538  22.228  22.385  0.1658 -0.0568 -0.0536
75072W        W75936  13.475  28.117  28.309 -0.0157  0.3141  0.2354
75073W        W75937  12.497  28.756   8.587  0.1285 -0.5357 -0.0290
75074W        W75938  27.867  26.931  15.733 -0.0062  0.3603 -0.3144
75075W        W75939  16.243   6.581  26.455 -0.1522  0.3062  0.0931
75076W        W75940   1.640  13.109  27.378 -0.1409  0.0039  0.2085
75077W        W75941  12.719   1.118  25.003 -0.0660  0.4201 -0.4583
75078W        W75942   1.494  12.221   7.421 -0.1710  0.1193  0.0541
75079W        W75943   1.867  25.540  18.936 -0.2929  0.2859 -0.1828
75080W        W75944  27.611   7.824   4.932  0.2240  0.0605 -0.2227
75081W        W75945  12.042  12.223  10.581 -0.2720  0.2619 -0.0596
75082W        W75946  27.411  18.497  26.586  0.0306 -0.0050  0.0052
75083W        W75947  19.834  17.040  25.889  0.2859  0.0919 -0.0410
75084W        W75948  28.908   9.001   6.518 -0.1213 -0.0292  0.3041
75085W        W75949   1.692   7.015   9.653 -0.0795  0.0082  0.0722
75086W        W75950  23.255   4.164  12.944  0.2276 -0.0472  0.1530
75087W        W75951  17.910  25.062  19.748 -0.1400  0.0148 -0.0283
75088W        W75952   9.373  25.778  10.069 -0.1635  0.1504  0.1725
75089W        W75953  24.266   8.327   9.722  0.0077  0.0584 -0.0282
75090W        W75954   1.695  18.467  24.751 -0.0941  0.0543  0.2033
75091W        W75955   9.800  21.416  23.679  0.0250  0.1320 -0.0132
75092W        W75956   0.707   6.788   2.286  0.0402 -0.0018 -0.1874
75093W        W75957   5.155  26.316  21.460  0.1794  0.0788  0.2553
75094W        W75958  22.505  25.336  18.564 -0.0480 -0.0755 -0.1541
75095W        W75959   3.309  13.977  25.056  0.1729  0.1305 -0.0896
75096W        W75960  24.033  17.859  13.690  0.1928 -0.0103 -0.4445
75097W        W75961  13.857  18.659  12.244  0.3071 -0.0512  0.1079
75098W        W75962  12.904  12.635  11.219 -0.0422 -0.4151  0.3025
75099W        W75963   8.931   0.784  12.293  0.2320  0.1509 -0.1289
75100W        W75964  28.206   8.308  23.485 -0.2463 -0.0195  0.0344
75101W        W75965  18.032   6.453   2.431 -0.0111 -0.0049 -0.0713
75102W        W75966  11.302  28.230   7.456 -0.0960 -0.0417 -0.1541
75103W        W75967   2.184  13.474  20.431  0.5342  0.1630  0.0976
75104W        W75968  26.562  23.271  24.731 -0.0495  0.0707 -0.2439
75105W        W75969   1.925   1.494  28.696 -0.1794 -0.0226  0.1110
75106W        W75970  18.020   2.049  25.891 -0.0007 -0.1168  0.0109
75107W        W75971  28.858   9.743   1.446  0.0330  0.0869 -0.1597
75108W        W75972   6.985   8.768  22.784 -0.1210 -0.1150  0.1873
75109W        W75973  18.442   5.439  24.324 -0.0236 -0.1388 -0.0950
75110W        W75974  22.001  12.955  16.456  0.3035  0.0601 -0.2069
75111W        W75975   5.153   1.100  26.226 -0.0240 -0.0259 -0.0373
75112W        W75976   6.425   7.754  19.518  0.3193 -0.2428 -0.1346
75113W        W75977  21.377   0.430   0.532 -0.0095  0.0309  0.1131
75114W        W75978  12.834   0.559  15.581 -0.2895 -0.0650  0.1326
75115W        W75979   1.870  27.429   6.077 -0.1350  0.1745 -0.0032
75116W        W75980  26.783  17.680  20.799  0.2821 -0.1264 -0.1782
75117W        W75981  28.309  21.279   0.735  0.0257 -0.1552  0.0433
75118W        W75982   2.579  11.534  23.936 -0.0562  0.2823  0.0933
75119W        W75983   5.028  24.920  17.335  0.3951 -0.2916  0.2064
75120W        W75984  26.609  29.106   9.787  0.0448 -0.0590 -0.1553
75121W        W75985  27.231  19.774  18.394  0.1194  0.4670 -0.1992
75122W        W75986  27.621  26.087  11.487 -0.0315 -0.2895 -0.2955
75123W        W75987  22.831  27.326  18.639  0.0491  0.3993 -0.1393
75124W        W75988  14.991  20.585  15.241 -0.0787  0.0117 -0.1227
75125W        W75989   0.945  28.572   5.596  0.0511 -0.2454  0.3556
75126W        W75990  26.716  10.542   5.494  0.1009 -0.2172 -0.2156
75127W        W75991  26.334   4.059  27.739 -0.1232 -0.0776  0.0877
75128W        W75992  28.199  11.276  20.547 -0.0232  0.1638  0.1432
75129W        W75993  15.333  14.491  23.036  0.2867 -0.0297 -0.1342
75130W        W75994  27.275  20.715  14.559 -0.2868  0.2854 -0.0281
75131W        W75995  21.033  22.929  13.857 -0.2091  0.1563  0.1647
75132W        W75996   3.806  25.746   8.846  0.2082 -0.0255  0.0487
75133W        W75997   5.914  26.967  12.759  0.0621 -0.3039  0.0831
75134W        W75998  11.734  19.866   9.220  0.3107 -0.3751 -0.1086
75135W        W75999  29.040  26.872   9.945 -0.0953  0.2131 -0.5001
75136W        W76000  18.637  24.762  13.650  0.0604 -0.1223  0.0568
75137W        W76001  15.979  22.619  14.562  0.0140  0.0207 -0.2878
75138W        W76002  10.816  25.998   0.059 -0.0525 -0.1084  0.0076
75139W        W76003  14.165  24.845  14.479  0.0455 -0.1926  0.0258
75140W        W76004   6.993   7.479  10.992  0.0920  0.0067 -0.0786
75141W        W76005   6.907  24.020  12.824  0.0982  0.1968 -0.2280
75142W        W76006   3.901  27.927  16.294 -0.1000 -0.1478  0.2135
75143W        W76007  15.963   1.045  16.312  0.0977  0.1341  0.1771
75144W        W76008   9.188  25.233   5.160  0.0400 -0.0739  0.2326
75145W        W76009  22.682   3.645   5.637  0.3516 -0.0112 -0.0815
75146W        W76010  24.312  11.089  21.152 -0.1297 -0.2480  0.1542
75147W        W76011   1.774  17.562  28.268  0.3294 -0.3126 -0.0602
75148W        W76012  13.846  17.865  22.688 -0.1306 -0.0734  0.1265
75149W        W76013  19.350   4.901  23.713  0.3171 -0.1437  0.0709
75150W        W76014   7.742   6.390  24.100  0.2917 -0.2995 -0.0123
75151W        W76015  10.613   7.867  15.234  0.0309 -0.0895 -0.2636
75152W        W76016  15.455  13.073  19.271  0.2232 -0.4014  0.2714
75153W        W76017  16.416  14.840  23.210  0.0315 -0.0075 -0.3258
75154W        W76018   9.199  14.361   7.258 -0.1408 -0.2241  0.1280
75155W        W76019  22.501  23.877  17.245  0.1648  0.0475 -0.0614
75156W        W76020  24.629   4.039   0.557 -0.1649  0.2296 -0.1584
75157W        W76021  28.123  15.844   0.545  0.0622  0.1173  0.1850
75158W        W76022   9.837  21.417  10.560 -0.1097 -0.1437 -0.3134
75159W        W76023  15.187  26.226   1.463 -0.1533  0.1462 -0.1078
75160W        W76024  10.500  20.631  18.789 -0.3451 -0.4670  0.0027
75161W        W76025  28.835   8.938   2.315  0.2640  0.0716  0.0635
75162W        W76026   5.249  25.148   3.283 -0.2348 -0.0035 -0.0455
75163W        W76027  16.106  18.627  16.836  0.0154  0.0246 -0.1626
75164W        W76028   2.669   1.507   9.182 -0.1094  0.0315  0.4175
75165W        W76029  15.912  19.512  20.053 -0.1211  0.3019  0.0724
75166W        W76030   5.051  27.317  13.561 -0.0527  0.1559 -0.1240
75167W        W76031  19.232   7.821  17.355 -0.1456  0.0749  0.1546
75168W        W76032  21.551   6.894   3.707 -0.0144  0.0236 -0.1026
75169W        W76033  24.356  25.470  11.754  0.0388  0.0260  0.0429
75170W        W76034   6.048  24.336  23.389  0.0953  0.0208  0.1453
75171W        W76035  20.147  22.469  20.924  0.1687  0.3033  0.0566
75172W        W76036   5.562  25.597  10.951  0.1599 -0.0536  0.0787
75173W        W76037  11.344  27.081  17.652  0.1157 -0.1338 -0.0382
75174W        W76038  28.289  26.346  17.960 -0.0729  0.0894  0.0197
75175W        W76039   5.931  18.675   6.122 -0.0503  0.0229 -0.0995
75176W        W76040   4.546   8.928  20.770  0.0352  0.1684 -0.2425
75177W        W76041  28.633  23.498  12.304 -0.3661  0.0287  0.1398
75178W        W76042  20.679   5.813  11.793 -0.2066 -0.1664 -0.2927
75179W        W76043  17.089   5.270   4.260  0.2065 -0.1164 -0.0601
75180W        W76044  19.807  21.224  14.980  0.1987  0.0090  0.0481
75181W        W76045   1.691  23.068  17.386  0.0919  0.1334  0.2376
75182W        W76046   6.037  23.028  16.390 -0.2866 -0.1860 -0.2081
75183W        W76047   3.412   7.678  20.136 -0.0880 -0.2728  0.0078
75184W        W76048   2.577   6.269   6.182 -0.2780  0.1687 -0.0420
75185W        W76049   1.374  27.641  12.321  0.0915 -0.0097 -0.1170
75186W        W76050   1.444   1.768  15.690 -0.0360 -0.1540  0.1711
75187W        W76051  14.634  12.982  18.279 -0.0894  0.2056  0.0749
75188W        W76052   0.788  24.135   0.442  0.0704  0.1700  0.0723
75189W        W76053  14.437   4.667   3.104 -0.0635  0.0482 -0.1484
75190W        W76054  23.215   1.881  26.280  0.1670  0.0129 -0.0800
75191W        W76055  13.847  23.658  13.168  0.0484  0.0366  0.0142
75192W        W76056   9.158   1.641  18.583  0.0350  0.3625  0.2967
75193W        W76057  27.417   4.582   4.473 -0.0369  0.1774  0.2771
75194W        W76058   6.904  14.705   6.926  0.1269  0.3482 -0.0853
75195W        W76059  11.333  22.402  23.664  0.2394 -0.0902  0.2338
75196W        W76060  13.595  11.015  21.331 -0.0866 -0.3819 -0.1861
75197W        W76061  11.150   1.861  23.450  0.0683  0.4176  0.2821
75198W        W76062  10.635  10.851  12.622 -0.0152  0.0471  0.0561
75199W        W76063  15.749   3.679   3.871 -0.0056 -0.1343 -0.0356
75200W        W76064   6.284  19.576   7.392  0.0910 -0.1200 -0.1086
75201W        W76065  26.083  21.859  16.667  0.2449 -0.2684 -0.1502
75202W        W76066   4.526  22.751   0.229 -0.0241 -0.1460  0.0335
75203W        W76067  21.246  26.859  28.070 -0.0239 -0.0488  0.0953
75204W        W76068  14.856   6.521   9.255 -0.1985  0.3807 -0.0128
75205W        W76069  15.371  22.670   1.150 -0.0216 -0.2113 -0.3906
75206W        W76070   2.610  21.023   5.475  0.0115  0.2113  0.3041
75207W        W76071  13.167   7.354  24.916  0.1105  0.1350  0.1662
75208W        W76072   1.762  11.101  22.989  0.0031  0.1042  0.1968
75209W        W76073  16.498  15.994   0.050 -0.0576  0.3165 -0.1478
75210W        W76074  15.374  27.035  20.582  0.0546  0.0761 -0.0063
75211W        W76075  24.065   4.502   9.313 -0.0615  0.3617 -0.0878
75212W        W76076  27.901  12.667  15.007 -0.0443  0.0318  0.3152
75213W        W76077  25.480  29.071   6.156  0.2621  0.3106  0.4439
75214W        W76078   8.281  26.826  18.904  0.0633  0.1442  0.0678
75215W        W76079   8.797   4.090   0.322  0.0177  0.2822  0.0153
75216W        W76080  11.558  24.108  18.110  0.4130  0.0955 -0.1547
75217W        W76081  26.408  12.116   6.319 -0.2199  0.1918 -0.0827
75218W        W76082   5.317  21.778  12.148 -0.1095 -0.2264 -0.0463
75219W        W76083   1.277  26.941   5.996 -0.2937  0.2661  0.1851
75220W        W76084  13.831  18.551  26.382  0.1152  0.2446 -0.2664
75221W        W76085   1.931  24.885  19.561  0.0603 -0.0021 -0.3439
75222W        W76086  11.449  22.176   1.294 -0.1644  0.1489 -0.1445
75223W        W76087   4.209  20.045   9.835 -0.1485 -0.0545 -0.0647
75224W        W76088  14.574   6.534  22.616 -0.0117  0.2293 -0.0755
75225W        W76089  20.849   7.800   0.364 -0.1582  0.0890 -0.2942
75226W        W76090   6.896   2.475  26.916  0.3382  0.2240  0.3042
75227W        W76091  13.993  14.302  17.681 -0.2301 -0.0051  0.1314
75228W        W76092   7.341  12.679  22.378  0.0182  0.1827  0.1641
75229W        W76093  16.499   5.826  13.932  0.1149  0.0647  0.0592
75230W        W76094  11.790   4.559  11.284 -0.1282  0.1191  0.1396
75231W        W76095  20.152   9.402  23.213 -0.0936  0.1542  0.0769
75232W        W76096   1.033  17.474  11.831 -0.1854  0.1303  0.0323
75233W        W76097  13.270   6.580   9.579  0.2749 -0.2193  0.0714
75234W        W76098   3.776  16.579   3.775  0.1657  0.3531  0.3516
75235W        W76099  16.676   6.437   3.255 -0.0690  0.1697 -0.0359
75236W        W76100  11.841  19.574  14.683  0.0873 -0.2741 -0.2103
75237W        W76101  28.826  21.547   7.620 -0.0024 -0.4348  0.0545
75238W        W76102  16.133   7.487   1.704 -0.0499 -0.0797  0.1615
75239W        W76103   3.950   2.959  28.335 -0.1653 -0.2255  0.0544
75240W        W76104  15.865   7.373   9.634 -0.1456 -0.0978  0.0166
75241W        W76105   3.701  23.110   7.722  0.1169  0.0538 -0.4305
75242W        W76106  10.527  28.134   5.156 -0.1430  0.2174  0.4921
75243W        W76107  11.109  21.397  10.300 -0.0282  0.0232 -0.1023
75244W        W76108   9.081  28.903  14.195 -0.3702 -0.2817 -0.1172
75245W        W76109  11.640   0.643  23.256 -0.1754  0.0490  0.1605
75246W        W76110  12.073   4.942   5.081  0.0917  0.2732  0.0315
75247W        W76111   5.641  16.473  22.387 -0.0951  0.5320  0.0889
75248W        W76112   5.034  12.664  19.167 -0.1348 -0.0805  0.0721
75249W        W76113  11.897  28.500  11.479 -0.2908 -0.0473 -0.4778
75250W        W76114   4.980  27.461  25.662 -0.0969  0.2226  0.3138
75251W        W76115  24.577  17.740  15.161 -0.0717 -0.1603 -0.1429
75252W        W76116   8.539  22.394  10.137 -0.1771 -0.0447 -0.1314
75253W        W76117  13.497   3.334  18.317  0.1771  0.2317 -0.0046
75254W        W76118  20.237  24.638  21.152  0.2522 -0.0122 -0.1353
75255W        W76119  27.495  24.434   0.155 -0.0360 -0.1237  0.1178
75256W        W76120  10.660   0.194  11.006  0.0669  0.1465 -0.3591
75257W        W76121  22.331   7.015   7.130  0.1868  0.0619 -0.0133
75258W        W76122  27.042   2.097   9.764  0.0620 -0.5742  0.0549
75259W        W76123   6.055   3.057   8.084 -0.2414 -0.0037  0.0035
75260W        W76124  12.403   8.051  20.956  0.1247  0.1968  0.1811
75261W        W76125   5.904  15.160  14.730  0.0686 -0.1989  0.0247
75262W        W76126   6.251   9.775   8.126 -0.0655 -0.1757  0.2152
75263W        W76127  19.441   4.248   8.383 -0.4403  0.0327 -0.0442
75264W        W76128   6.512   7.630  21.180  0.1647 -0.0763  0.0656
75265W        W76129  20.002  23.743   4.930 -0.1636 -0.0892  0.1486
75266W        W76130   0.619  25.101  28.252  0.0582 -0.1366 -0.0576
75267W        W76131  21.256   1.016  22.862 -0.1279  0.2555 -0.1274
75268W        W76132  16.223  14.648  11.604 -0.1834 -0.1434 -0.1855
75269W        W76133   6.846   3.268   3.772  0.0560 -0.1012  0.2668
75270W        W76134   6.553  13.377  24.167 -0.1521 -0.1458 -0.0723
75271W        W76135  14.349   4.706  28.437 -0.1071  0.1934 -0.1054
75272W        W76136  23.528  28.265   4.872  0.0342  0.0565  0.0585
75273W        W76137  10.058  21.256  14.697 -0.0337 -0.1829  0.1221
75274W        W76138   4.325  27.921  10.265 -0.1231 -0.0258 -0.1328
75275W        W76139   1.444  27.937  27.041 -0.2442 -0.3900  0.2399
75276W        W76140   3.305  15.102   1.896 -0.2597  0.0316 -0.0682
75277W        W76141  11.975  23.019   5.379 -0.2421  0.0476 -0.0165
75278W        W76142   8.119   7.021  28.192 -0.0290  0.3240  0.1132
75279W        W76143  27.132   4.217  25.756 -0.0480 -0.1487  0.1114
75280W        W76144   7.360  23.537   0.198  0.1952 -0.3677  0.1667
75281W        W76145  21.487  21.804   1.034  0.2441  0.0456  0.0699
75282W        W76146   6.126   7.272  17.305  0.0320 -0.0932 -0.0804
75283W        W76147  11.818   5.857   4.218  0.0182 -0.3080  0.2878
75284W        W76148  18.606  14.904   5.332  0.0216  0.1016  0.0698
75285W        W76149  25.468  15.638   3.284 -0.1738 -0.1882  0.0293
75286W        W76150  12.401  16.171   7.121 -0.1955 -0.3082  0.1739
75287W        W76151   6.200  12.500  16.179  0.0294 -0.2194  0.1470
75288W        W76152  25.296   5.758  21.660  0.0727  0.1093  0.2543
75289W        W76153  26.858  11.636  17.788 -0.0463 -0.1420 -0.0520
75290W        W76154   1.845  28.063   0.981 -0.0802 -0.0253  0.2328
75291W        W76155  15.869  27.291  22.538  0.2324  0.2079  0.1236
75292W        W76156  27.192   6.635   1.113 -0.1849 -0.1471  0.1310
75293W        W76157   1.590   2.614  28.657 -0.1025 -0.0353  0.0767
75294W        W76158  13.192  23.727  20.993  0.3018  0.0496 -0.1756
75295W        W76159   7.601  16.653  21.998  0.0431 -0.1258  0.0384
75296W        W76160   6.678  20.608  14.316 -0.0674 -0.5298 -0.3534
75297W        W76161   9.312  16.523  12.107 -0.2313  0.1902  0.2232
75298W        W76162   8.109  23.927   2.537 -0.0902 -0.0550 -0.1037
75299W        W76163  26.029  23.445   4.998 -0.3549 -0.1011  0.0837
75300W        W76164  22.868  16.006  17.777  0.0782  0.1678  0.2228
75301W        W76165  16.865  28.025   5.910  0.0759  0.2603  0.3602
75302W        W76166   2.908  18.562   9.606  0.2009  0.0418 -0.0452
75303W        W76167   8.379   0.176  12.462 -0.1924  0.1038 -0.0022
75304W        W76168   2.811  22.465   3.650  0.1917  0.1998  0.0732
75305W        W76169  11.110  23.044  27.351 -0.0174  0.3059  0.1495
75306W        W76170  14.013   1.732   1.263  0.2749  0.1168  0.0810
75307W        W76171  21.770   1.902  27.311  0.0092  0.1164 -0.1800
75308W        W76172  12.665   2.179  17.367 -0.2053 -0.2903 -0.0564
75309W        W76173  25.006   1.203  23.860  0.2718  0.0870 -0.2661
75310W        W76174  17.450  22.837  18.732 -0.1385 -0.0430 -0.1389
75311W        W76175   5.213   3.655  21.029  0.2619 -0.1276 -0.0215
75312W        W76176  16.256  14.080  21.386 -0.1310 -0.2359 -0.1800
75313W        W76177   2.394   6.177   0.076  0.1114  0.0357  0.0787
75314W        W76178  13.085  17.032  23.607 -0.0448  0.1626 -0.3417
75315W        W76179   1.221  18.189  25.432 -0.0393 -0.3164  0.1987
75316W        W76180   8.021  11.081  19.510  0.0196  0.2787  0.0385
75317W        W76181  20.894  23.239   5.962 -0.1185  0.1328  0.0048
75318W        W76182   6.348   3.033  13.166  0.0966  0.1106  0.0959
75319W        W76183   8.668  20.704  25.597 -0.0505  0.1638 -0.0431
75320W        W76184  14.609  27.656  11.511 -0.2248  0.2534  0.1512
75321W        W76185  10.490  10.165   6.224  0.2232 -0.0612 -0.1871
75322W        W76186  15.262  26.972   7.558  0.0610  0.0513  0.0944
75323W        W76187  25.579  24.574   5.382 -0.1303 -0.2425 -0.1282
75324W        W76188   3.452   0.917  24.407 -0.0853  0.2987  0.2637
75325W        W76189  10.701  20.414   6.779 -0.2083 -0.0856  0.2149
75326W        W76190  17.911  28.167  16.259 -0.1677 -0.0843  0.3439
75327W        W76191   8.420   0.513   8.593 -0.0331  0.2230 -0.1021
75328W        W76192   6.324  22.712  10.751 -0.2124  0.1559 -0.1825
75329W        W76193  12.070   8.727  23.777 -0.0445 -0.1496  0.0959
75330W        W76194   2.784   8.944   3.867 -0.0232  0.0214  0.1798
75331W        W76195  12.490   6.904  12.315 -0.0063  0.0184  0.1402
75332W        W76196  11.744  24.665  18.401  0.0495 -0.1681 -0.0542
75333W        W76197  13.627  14.583  28.985 -0.0331  0.0025 -0.0986
75334W        W76198  19.056  21.150  18.961  0.1011  0.3321 -0.0031
75335W        W76199   7.526  21.371  23.156 -0.1415  0.2255 -0.1467
75336W        W76200  10.158  13.875  16.397  0.1679  0.0909  0.2085
75337W        W76201   1.475   4.801  28.364 -0.1962  0.1020  0.0037
75338W        W76202   9.149  23.370   9.301 -0.1140  0.0524 -0.0546
75339W        W76203  13.584   9.968  13.983 -0.1058 -0.0700 -0.0436
75340W        W76204  26.538  20.605  19.274 -0.0063 -0.2174 -0.1389
75341W        W76205   4.395  14.020   7.160  0.0330  0.0042  0.0950
75342W        W76206   0.613  26.004   0.970  0.2063  0.1793  0.0978
75343W        W76207   0.668  10.877  15.085 -0.2095 -0.2354 -0.0560
75344W        W76208   1.981   2.366  12.260 -0.1889 -0.1699  0.2565
75345W        W76209   3.286  25.536   6.774  0.0182 -0.0777  0.2864
75346W        W76210   3.296  14.510  13.151 -0.2496 -0.2535  0.2331
75347W        W76211  15.378  25.854  25.996 -0.0938  0.1762 -0.0734
75348W        W76212  24.085   9.858  14.384 -0.0764 -0.0992 -0.1438
75349W        W76213  22.862   7.388  27.554 -0.0357 -0.2423 -0.0363
75350W        W76214   3.163   4.819   1.245  0.0448 -0.0031 -0.0010
75351W        W76215   7.691  14.875   3.527 -0.2002  0.0187 -0.4967
75352W        W76216   5.125  13.290   4.091 -0.1918  0.1143 -0.4628
75353W        W76217  16.234  27.521  28.397 -0.0536 -0.0199  0.1026
75354W        W76218  26.330   9.622  26.989  0.0021 -0.1205  0.3462
75355W        W76219  22.078   2.322  27.486  0.0046 -0.1574 -0.2594
75356W        W76220   2.576  20.643  23.216 -0.0622  0.3038 -0.2068
75357W        W76221  16.610   2.672  14.397  0.2199 -0.1723 -0.1215
75358W        W76222  15.510  22.784  20.827  0.4211 -0.1351  0.1148
75359W        W76223  22.664  21.723  25.075  0.2026 -0.1623  0.0312
75360W        W76224  13.135  28.972  11.654 -0.1162  0.0399 -0.1700
75361W        W76225   4.015   4.396   7.218 -0.0058  0.0481 -0.1267
75362W        W76226  21.887   1.042  25.843 -0.1668 -0.2852  0.0162
75363W        W76227  26.103  21.254   4.290  0.1647  0.1855  0.2278
75364W        W76228   9.635  25.842   3.676 -0.2841 -0.0783 -0.0072
75365W        W76229  24.538  23.761  21.987 -0.0805 -0.4295 -0.0751
75366W        W76230   7.606   3.620  14.971  0.0722 -0.2301  0.2153
75367W        W76231   1.749  22.368   9.007  0.2183  0.2375  0.1648
75368W        W76232   4.485   1.384   1.592  0.0194 -0.0740 -0.2370
75369W        W76233  14.102   2.144  20.341 -0.0063  0.0730 -0.0262
75370W        W76234   7.335   2.097  18.485 -0.4165  0.0649  0.1918
75371W        W76235  18.995   2.491   4.345  0.0366 -0.2677  0.0659
75372W        W76236  20.555  20.675  10.089  0.4929  0.0607  0.2268
75373W        W76237  16.032  21.480  13.084  0.2417 -0.0443  0.1324
75374W        W76238   3.307   2.264  25.009  0.1108  0.3798  0.2449
75375W        W76239   0.559   5.643  14.817  0.1094  0.0341  0.0154
75376W        W76240  24.898  22.765  19.026 -0.0361 -0.0370  0.2932
75377W        W76241  10.873   9.295   3.630  0.0548  0.3605 -0.4470
75378W        W76242   6.183  24.869  27.049  0.0622  0.0701 -0.2985
75379W        W76243  14.007  19.472  19.822 -0.0301 -0.1774 -0.0556
75380W        W76244   9.458  24.851   0.423  0.1528 -0.2974 -0.1063
75381W        W76245  20.033  17.464   8.034 -0.1304 -0.0195  0.1142
75382W        W76246  24.926   7.257  13.378 -0.2946  0.5184 -0.3519
75383W        W76247  20.100  16.457  16.467 -0.0467  0.1570  0.1538
75384W        W76248   9.574  22.144  19.906  0.1454  0.2246 -0.2789
75385W        W76249  13.507  26.175  24.747  0.0206 -0.1443  0.2852
75386W        W76250  13.805  19.712  13.604  0.2624 -0.0168  0.2239
75387W        W76251  21.057  11.954   9.686  0.0655  0.1422 -0.0130
75388W        W76252   0.983  21.891  21.308  0.2083 -0.2050  0.1691
75389W        W76253  12.392  28.555  22.689 -0.1163  0.1692 -0.1036
75390W        W76254  14.002   1.099  11.424  0.1002  0.1031 -0.0653
75391W        W76255   5.795  14.240  15.504 -0.0995 -0.1717 -0.1113
75392W        W76256  17.841  24.278  14.560 -0.2410  0.0845 -0.4466
75393W        W76257  21.086   9.360  20.539  0.0968 -0.0685  0.1136
75394W        W76258  26.494  21.382  26.254 -0.1712 -0.0825  0.0246
75395W        W76259   9.914  13.038  11.473  0.5695  0.1634  0.0587
75396W        W76260  26.766  25.940  23.982  0.1651 -0.0972  0.3316
75397W        W76261  28.326   2.049  25.417 -0.1031  0.1762 -0.0109
75398W        W76262  21.310   4.474  19.413  0.0180  0.0602 -0.0298
75399W        W76263   6.270   9.963  22.727  0.3338 -0.0511 -0.0540
75400W        W76264   4.989   2.894   3.987 -0.0999  0.1410  0.0650
75401W        W76265   1.700   9.598  13.603  0.0176  0.0804  0.3196
75402W        W76266  19.596  15.443  15.023  0.0976  0.0869 -0.2123
75403W        W76267   0.421   5.684  21.398  0.2790  0.1877 -0.2096
75404W        W76268  17.652  26.780   4.079 -0.0822  0.0374  0.1278
75405W        W76269  10.774  26.595   3.309 -0.0417  0.2572  0.1059
75406W        W76270  14.634   1.140  18.115  0.0260  0.2098  0.0740
75407W        W76271   2.069  22.196  17.975 -0.0435  0.0757  0.0203
75408W        W76272   3.322   5.281  15.532 -0.0475  0.0918 -0.0544
75409W        W76273  15.819   7.525   8.220 -0.0667  0.1784 -0.1071
75410W        W76274  14.784  24.313  16.127 -0.0117 -0.1417  0.3254
75411W        W76275  14.910   8.220  25.590  0.2029 -0.3019  0.5128
75412W        W76276   2.530  26.567  20.843  0.0760 -0.0562 -0.0283
75413W        W76277  14.606  10.180  21.675  0.1562  0.2418 -0.0663
75414W        W76278  21.870  25.175  12.746  0.0387  0.1555  0.0614
75415W        W76279   3.558  28.737  17.910 -0.2825  0.0380  0.0157
75416W        W76280  26.879  11.213  19.564 -0.0837  0.0198  0.0720
75417W        W76281  12.496   8.686  20.484  0.0502  0.0191 -0.0177
75418W        W76282  11.382  10.561  20.519  0.0577  0.0369 -0.4284
75419W        W76283   3.288   6.966   8.160  0.2835  0.3286  0.0579
75420W        W76284  16.450   9.461   4.967 -0.1995  0.0016  0.0361
75421W        W76285   4.563  26.398  24.286 -0.1125 -0.2611  0.0651
75422W        W76286  24.608  24.385  22.437 -0.0309 -0.3381 -0.1115
75423W        W76287  10.704   4.059  25.077 -0.1948  0.1726 -0.0622
75424W        W76288  10.808   0.302  15.158 -0.0565 -0.0860  0.1109
75425W        W76289   3.594  12.960  15.288  0.3178 -0.1454  0.0576
75426W        W76290   6.802   8.926  12.293 -0.2649 -0.1671  0.1264
75427W        W76291   9.414   0.125  15.770 -0.3009 -0.2278 -0.2967
75428W        W76292   0.733  11.437  22.303  0.0945  0.4462 -0.1824
75429W        W76293   5.256  15.154  13.785 -0.0899  0.1562 -0.0184
75430W        W76294  27.063   8.376  24.342 -0.0429 -0.0885  0.1366
75431W        W76295   9.572   3.353  15.701  0.2398  0.0768 -0.1666
75432W        W76296  13.088  15.882   0.009 -0.2089  0.0839  0.4109
75433W        W76297  19.154  22.239   1.637  0.2188  0.1008  0.1536
75434W        W76298  12.464  22.577  19.669 -0.3943 -0.3224  0.1504
75435W        W76299   5.859   6.453   6.350  0.0216  0.0596 -0.2572
75436W        W76300   1.822   2.504  14.905  0.1325  0.2179  0.0993
75437W        W76301  10.801  25.430  14.601 -0.0465  0.5960  0.1849
75438W        W76302   6.688  25.147  17.564  0.0052 -0.1572 -0.0511
75439W        W76303  27.333  29.112  29.058  0.0624  0.0578 -0.0393
75440W        W76304  16.106  26.950  28.270  0.2668 -0.1906 -0.0609
75441W        W76305   9.830  24.528   2.178  0.0459 -0.0025 -0.1874
75442W        W76306  20.835   2.706  18.307  0.1230  0.3310  0.0159
75443W        W76307  21.598  16.429  26.343  0.1266  0.0203  0.0902
75444W        W76308  16.948  13.720   1.415  0.1642  0.0488  0.0524
75445W        W76309  14.124  20.354  23.417 -0.5859  0.1329  0.1511
75446W        W76310  10.760  16.738  13.138 -0.2844 -0.0901 -0.1417
75447W        W76311  16.222  20.570  19.088 -0.0765  0.1472  0.2552
75448W        W76312  15.641  10.192  17.759  0.0434 -0.4760  0.1279
75449W        W76313  23.481   0.480  13.918  0.1449  0.0796  0.4210
75450W        W76314  12.193  11.179  15.078 -0.1033  0.0541  0.3001
75451W        W76315   6.241  28.595  20.336  0.0855  0.0728 -0.1270
75452W        W76316   4.717   3.764  19.119  0.0551  0.0388  0.1978
75453W        W76317   8.868   7.348   4.274 -0.3324  0.2529 -0.0414
75454W        W76318  27.434   9.430  14.837 -0.4591  0.1635 -0.2779
75455W        W76319   4.206  18.395  21.935 -0.0122  0.1941  0.0144
75456W        W76320  11.862   3.696  22.489  0.0857  0.3172 -0.1128
75457W        W76321  22.352   3.565  19.010  0.3284  0.5943 -0.0748
75458W        W76322  28.156   7.498  18.064  0.1947 -0.0736  0.1353
75459W        W76323   6.902   8.729  27.083 -0.1342  0.1420  0.2027
75460W        W76324  23.704   6.638  28.552  0.1222 -0.0758  0.2015
75461W        W76325  11.838   1.239   6.372  0.0636 -0.0938  0.0100
75462W        W76326   4.530  25.909   1.738  0.1925 -0.2688  0.2955
75463W        W76327  27.625   7.133  22.517 -0.0985 -0.0623  0.3183
75464W        W76328   8.587  22.719  20.715  0.1732  0.0997  0.0756
75465W        W76329  15.750  21.869  14.199  0.0838  0.0576  0.0973
75466W        W76330   3.580   1.051   0.505  0.0477  0.0247 -0.0438
75467W        W76331   2.802   2.359   4.234  0.0479 -0.3073  0.3376
75468W        W76332   7.205   0.357  14.317  0.0188  0.1505  0.2360
75469W        W76333  15.247   4.777  14.422  0.3489  0.1920  0.1194
75470W        W76334   1.363  17.308   9.719  0.1426 -0.2742  0.1217
75471W        W76335   8.720  18.200  16.956  0.1775 -0.1697  0.2116
75472W        W76336   8.061  24.400  28.139 -0.1591  0.0499 -0.1650
75473W        W76337  16.653   0.705   0.637  0.1158 -0.0426  0.1046
75474W        W76338   3.889   4.219  10.061  0.0559 -0.0138  0.1287
75475W        W76339   9.853  23.675  17.964  0.0422  0.1235  0.1369
75476W        W76340  11.348  10.420  24.021 -0.0251 -0.2056 -0.1551
75477W        W76341  15.213  24.529  14.245 -0.1182 -0.2126 -0.1312
75478W        W76342  26.143  26.725   0.132  0.0037 -0.1208 -0.1793
75479W        W76343  14.373  12.775  20.841  0.0021 -0.2558 -0.1197
75480W        W76344  24.257  16.797  18.743  0.0759 -0.0237  0.0735
75481W        W76345  19.974  11.151  24.594 -0.3007  0.0596  0.0184
75482W        W76346   4.923  20.709  27.238  0.1357 -0.0290  0.1166
75483W        W76347  17.835  14.796  25.306 -0.0289 -0.1988 -0.1433
75484W        W76348   4.036   1.810  27.858 -0.0057  0.0110 -0.2960
75485W        W76349  26.275   4.313  14.305 -0.0757  0.0294 -0.1483
75486W        W76350  28.243   6.283  13.792 -0.0717  0.2375 -0.0812
75487W        W76351  12.008   2.908   8.228  0.2136  0.2244  0.2926
75488W        W76352  27.554   8.064  27.404 -0.0062  0.3125  0.2082
75489W        W76353  23.383  10.116   0.651 -0.0769 -0.3238  0.1249
75490W        W76354  13.451   3.348  10.351 -0.1117  0.1210 -0.3991
75491W        W76355  16.500   9.025  20.828 -0.1548  0.1132  0.1406
75492W        W76356   8.058  11.058  11.369 -0.0353  0.0701 -0.2781
75493W        W76357   3.387  25.503  13.905 -0.0737  0.3090 -0.0101
75494W        W76358   7.068  12.499  17.906  0.1582  0.1401  0.0206
75495W        W76359  10.577  11.361  18.322  0.0110 -0.2623 -0.0203
75496W        W76360   5.689  16.879  17.370  0.0606  0.0533  0.0267
75497W        W76361  24.511  28.766  27.641  0.5660  0.1255 -0.0350
75498W        W76362   0.509  22.059  19.118 -0.0479  0.0015  0.1725
75499W        W76363  14.007   5.463  26.220 -0.0814 -0.1507  0.2040
75500W        W76364   7.399   1.265  25.434  0.0162  0.1302  0.1804
75501W        W76365  13.541   4.188  22.987  0.0733 -0.2617 -0.1259
75502W        W76366   8.734   6.644   2.308  0.3536 -0.1271 -0.2014
75503W        W76367  10.759  18.822   8.307  0.1154 -0.0258 -0.2574
75504W        W76368  11.575  24.241  21.832  0.0951  0.2051 -0.2843
75505W        W76369  18.787   2.658  20.215 -0.0051 -0.0344  0.1820
75506W        W76370  10.189  24.391  29.003  0.1266  0.0462 -0.0931
75507W        W76371  15.371  26.290  15.058 -0.2870 -0.0677 -0.2330
75508W        W76372  15.575  12.935  27.999  0.2117 -0.3173  0.1249
75509W        W76373  13.044   2.499  14.056  0.0740  0.0801  0.2111
75510W        W76374   9.843  22.076   6.960  0.0423  0.1152 -0.1414
75511W        W76375  15.766  27.181  17.858 -0.0515 -0.3018 -0.2814
75512W        W76376  14.410  26.594   3.828 -0.0867 -0.0782  0.1075
75513W        W76377  18.103  26.701   2.295 -0.0776 -0.0598  0.0224
75514W        W76378   1.016  11.992   4.024 -0.1725  0.0683  0.1302
75515W        W76379   4.262   3.933  13.987  0.2072 -0.1556  0.3444
75516W        W76380   6.390  13.191   7.280 -0.0490 -0.0052 -0.1628
75517W        W76381  24.292   9.248  10.899 -0.2931  0.1762 -0.4134
75518W        W76382  17.464   0.010  17.019 -0.2002 -0.1032 -0.3279
75519W        W76383   8.539   6.418  18.189  0.0423 -0.2025 -0.1519
75520W        W76384  20.702  25.950  24.737 -0.0425  0.0716  0.2089
75521W        W76385  23.291  25.744  26.616  0.2699 -0.0082  0.1573
75522W        W76386   3.398  17.314  18.294  0.1369  0.1216  0.0916
75523W        W76387   5.436   6.889  26.986 -0.1078 -0.1398 -0.0038
75524W        W76388   5.395  27.343   8.155  0.1391  0.1245  0.2057
75525W        W76389   2.252  14.028  11.529 -0.2628  0.0573 -0.4364
75526W        W76390  22.142   7.464  11.891 -0.0800 -0.1046 -0.1430
75527W        W76391   5.037   5.702  26.673  0.0906 -0.2985  0.1373
75528W        W76392  17.993  12.956  23.423 -0.0792  0.0233 -0.1912
75529W        W76393   0.721  27.885  21.862 -0.1350  0.2476 -0.0556
75530W        W76394  12.100  23.285  21.718  0.1541 -0.3437  0.2490
75531W        W76395  14.154   6.520  15.918 -0.0980 -0.0131 -0.0392
75532W        W76396  22.399   7.631  19.084  0.1264 -0.2665 -0.3738
75533W        W76397  21.704  28.481  19.688 -0.0149 -0.2248 -0.0045
75534W        W76398  16.810  28.077  11.223 -0.0233  0.0350  0.1044
75535W        W76399  24.160  18.064  15.264  0.0420 -0.5095  0.1433
75536W        W76400   9.912  16.584  26.582 -0.1125 -0.0145 -0.3627
75537W        W76401  13.856   6.493   8.382 -0.0289 -0.0674  0.1839
75538W        W76402   2.498  16.040  11.536 -0.0254  0.0370  0.0267
75539W        W76403  19.848  28.670  23.584 -0.0468  0.0065  0.2034
75540W        W76404  28.444   1.221  18.736  0.1451  0.0787  0.3451
75541W        W76405  27.976   9.062  20.791 -0.2068  0.0332  0.3616
75542W        W76406  11.464  27.492  22.304 -0.2880 -0.1951 -0.5892
75543W        W76407  26.214   3.228   3.581 -0.1213 -0.2061  0.0412
75544W        W76408   2.637  17.539  16.981 -0.0135 -0.1172 -0.0407
75545W        W76409  21.017  25.817  11.995  0.1144  0.1505 -0.1504
75546W        W76410   4.842   7.165  28.281  0.1158  0.0808 -0.2339
75547W        W76411  10.873  25.375  23.379 -0.4075  0.1017  0.2644
75548W        W76412  22.323  11.695  18.766  0.4558  0.0411  0.0537
75549W        W76413  14.169   1.399  22.580  0.0524  0.1459 -0.0745
75550W        W76414  28.706  13.184  24.550  0.1747 -0.1633 -0.1641
75551W        W76415  12.547  26.455  12.401 -0.1272 -0.2345  0.2642
75552W        W76416  27.904  26.400  18.787 -0.0147 -0.2369 -0.0397
75553W        W76417  21.340  25.201  25.072  0.0897 -0.0987  0.1189
75554W        W76418   9.016  27.332  17.512  0.0458 -0.3101 -0.3425
75555W        W76419  20.350   1.779   0.040  0.1323 -0.0452  0.3264
75556W        W76420  12.878   4.354  11.428  0.2413  0.1625  0.1503
75557W        W76421  24.168  27.099  21.908  0.0285 -0.0174  0.1919
75558W        W76422  22.892  25.699  13.492 -0.0375 -0.0267 -0.1140
75559W        W76423   1.966  15.965  17.845 -0.1686  0.0279  0.0557
75560W        W76424   6.511  23.762   1.120  0.1501 -0.1134  0.0913
75561W        W76425   2.507  16.862  12.679  0.1936 -0.1573 -0.0702
75562W        W76426  14.043  21.860  11.462  0.5113 -0.1257  0.1095
75563W        W76427   4.979   9.290   4.787  0.0409  0.2158  0.0659
75564W        W76428   6.736  24.410  11.069  0.0546 -0.0756 -0.0401
75565W        W76429   7.099  14.513  20.003 -0.1128 -0.0564 -0.3260
75566W        W76430  17.206  12.483  25.753  0.1610 -0.1213 -0.4345
75567W        W76431  10.849  18.853   5.097 -0.2076 -0.1872  0.1400
75568W        W76432  18.653   0.284  15.895  0.0857 -0.0553 -0.1094
75569W        W76433  18.497  26.735  18.598 -0.0125 -0.3743  0.2044
75570W        W76434  12.477   4.963   7.031 -0.1675  0.0197  0.2255
75571W        W76435   2.404   8.477  28.775  0.0129 -0.2157  0.0751
75572W        W76436  16.054  18.552  18.716  0.4143  0.1813  0.4451
75573W        W76437  14.963   9.128  19.475  0.3128 -0.0132 -0.1889
75574W        W76438  22.476   3.886  22.067  0.0230 -0.0227  0.3295
75575W        W76439   4.037  14.881  28.651  0.2014 -0.0025  0.1530
75576W        W76440  19.245  15.104  13.877 -0.4340 -0.1417 -0.1760
75577W        W76441  25.461  27.779  16.515  0.1017  0.2011 -0.1892
75578W        W76442   5.211  20.129  16.601 -0.0366 -0.0769  0.2047
75579W        W76443  16.166   5.912   9.084  0.0947 -0.1891  0.1297
75580W        W76444  10.983  20.343  17.959 -0.0819 -0.2011 -0.4060
75581W        W76445   1.716  20.385   0.224 -0.3692  0.0471  0.2613
75582W        W76446   7.732   9.368   2.281 -0.2157  0.4211 -0.3003
75583W        W76447  13.373  13.363  29.054 -0.0122 -0.0710  0.1681
75584W        W76448  29.069  12.316  19.748 -0.1457 -0.0343  0.0535
75585W        W76449   8.523  27.784  24.359 -0.0347 -0.0929  0.1711
75586W        W76450  21.671  10.126   3.700 -0.2472  0.0822 -0.0849
75587W        W76451  12.593   2.738  24.548  0.0176  0.1388  0.1249
75588W        W76452  24.474   4.303   7.168 -0.0519 -0.0675  0.0515
75589W        W76453  23.529  17.890  27.309  0.3438 -0.0859  0.1718
75590W        W76454  11.217  16.419   8.982  0.0431 -0.1223  0.3512
75591W        W76455   0.333   0.292  19.554 -0.1063  0.0911  0.0257
75592W        W76456   0.021  19.081   0.141  0.1702  0.0792 -0.0560
75593W        W76457  14.415  28.727  16.169 -0.0582 -0.2292 -0.3521
75594W        W76458   8.778  17.040  12.985  0.1166  0.1063  0.2051
75595W        W76459   0.624   3.941  16.836  0.0661 -0.0047 -0.1056
75596W        W76460   0.324  24.309   0.854 -0.0230  0.0900  0.2386
75597W        W76461  24.160  18.006  21.707  0.0030 -0.0326  0.0920
75598W        W76462  25.091  16.549   9.202 -0.1962 -0.2213 -0.2682
75599W        W76463   8.002   6.581  11.438 -0.0580 -0.0053  0.0513
75600W        W76464  20.658  24.967  27.426 -0.1605 -0.1695 -0.1454
75601W        W76465   0.809  28.943   0.674  0.0858 -0.1891  0.0385
75602W        W76466  12.089  26.534   5.306  0.0363 -0.0865  0.0531
75603W        W76467  12.832  16.268  23.738  0.0309  0.3715 -0.0847
75604W        W76468  20.500  27.851   0.484  0.0117  0.0357 -0.0604
75605W        W76469  18.919   7.517  12.212 -0.0137  0.1542  0.1338
75606W        W76470   6.292  28.441  21.602 -0.0346  0.1406 -0.3739
75607W        W76471   7.641  10.894  19.774 -0.0758 -0.0548  0.1866
75608W        W76472  16.868   2.505  25.380  0.3637  0.1617 -0.0913
75609W        W76473  12.736  25.790   3.555  0.2587 -0.1120 -0.2136
75610W        W76474   8.290   4.180   5.450  0.1771 -0.0603 -0.0468
75611W        W76475  19.005  14.415  15.212  0.0624 -0.0709 -0.0144
75612W        W76476   0.417   2.203  27.432 -0.2972  0.2065 -0.0993
75613W        W76477   9.749   0.530  12.053 -0.1108 -0.0621 -0.0015
75614W        W76478   3.698  14.734  26.958 -0.2308  0.1652 -0.1582
75615W        W76479  20.317   1.382   2.079  0.1566  0.1090 -0.0691
75616W        W76480  11.637  26.512  20.322 -0.0445 -0.2461  0.0202
75617W        W76481   1.965   6.209  28.981 -0.0649  0.2571  0.3887
75618W        W76482  11.938  21.776  21.368  0.0853 -0.0814 -0.1751
75619W        W76483  11.991  27.823  13.118 -0.0350 -0.1841 -0.0314
75620W        W76484  13.545  20.671   8.394  0.0755 -0.0491 -0.1461
75621W        W76485  26.868  15.648  12.226 -0.1845  0.2559 -0.0283
75622W        W76486  12.463   8.372  15.384 -0.0205  0.1437  0.0956
75623W        W76487  24.256  20.278  17.937  0.0323 -0.2258  0.2179
75624W        W76488  13.835   6.516  27.603 -0.3296 -0.0312  0.1590
75625W        W76489   6.635  24.570  19.078  0.0820 -0.0576  0.2059
75626W        W76490  16.928   5.784  11.780 -0.1927 -0.1327  0.0837
75627W        W76491  27.952  28.381  25.153  0.3944 -0.0888 -0.1054
75628W        W76492   9.235  28.398  28.498  0.4523 -0.0826 -0.0470
75629W        W76493  23.041   6.967  27.266  0.1055  0.1032  0.2706
75630W        W76494  14.541  29.036  20.885 -0.3387 -0.0933 -0.5176
75631W        W76495   5.088   1.237  25.691  0.1515  0.2986 -0.1770
75632W        W76496   6.633  14.519   5.961  0.0416 -0.0628  0.2070
75633W        W76497  28.743   1.969  15.826 -0.0275  0.2461 -0.0345
75634W        W76498  15.334  26.210   8.084 -0.0240  0.0201 -0.4006
75635W        W76499   0.279   5.724  14.297  0.1131  0.1670  0.0078
75636W        W76500  17.578  14.190  19.774  0.2113 -0.0237 -0.0021
75637W        W76501   5.666  22.065  20.528 -0.0396  0.1465 -0.0428
75638W        W76502   3.526   7.003  19.728 -0.2451  0.1928 -0.0547
75639W        W76503  14.631  12.153  15.076  0.3625 -0.1982 -0.1929
75640W        W76504   7.129  22.709   3.721 -0.1832  0.0890 -0.0284
75641W        W76505  17.148  26.510   8.754  0.4072 -0.0291  0.2375
75642W        W76506   1.716  20.055   6.977  0.2856  0.1291  0.1715
75643W        W76507   4.324   4.722  22.728 -0.2306  0.2025 -0.1645
75644W        W76508   9.891  26.797  21.456 -0.0923 -0.1926  0.2259
75645W        W76509  14.390   4.044   1.618  0.1543  0.1563 -0.0460
75646W        W76510   1.570   4.485   5.436  0.3709 -0.1310 -0.0803
75647W        W76511   6.832   2.196  19.119  0.0178  0.1501  0.1976
75648W        W76512   0.031  16.202  22.054  0.0537  0.1919  0.2592
75649W        W76513  13.065  16.550   4.272 -0.1220 -0.0298 -0.0205
75650W        W76514  18.977  20.019  23.193  0.0545  0.2275 -0.3079
75651W        W76515  28.977  23.294  12.602  0.1025  0.0356 -0.1209
75652W        W76516   4.767  27.243  16.062  0.1027 -0.2060  0.2584
75653W        W76517  16.302  22.776  13.440  0.0075  0.0904 -0.0126
75654W        W76518   3.359   1.098   8.246  0.0668  0.0953  0.0583
75655W        W76519  17.427  24.888   6.605  0.3555 -0.0092 -0.4935
75656W        W76520   7.052   0.445   7.071  0.1131 -0.0720  0.0635
75657W        W76521   4.978   7.094   7.944 -0.1695  0.2097 -0.0548
75658W        W76522  28.715  26.859  22.127  0.2098 -0.1654 -0.4376
75659W        W76523  13.097  20.879  14.834  0.1133 -0.2323  0.1512
75660W        W76524   2.933   7.925  22.037 -0.0371  0.4825 -0.1021
75661W        W76525   7.460  19.177  22.638 -0.1541 -0.1108 -0.1443
75662W        W76526   0.094  15.606  19.058 -0.0803  0.1814  0.2624
75663W        W76527  27.859  19.129  26.557 -0.0376  0.1479  0.3674
75664W        W76528  17.641  20.956  12.108 -0.0396 -0.0403 -0.0379
75665W        W76529   9.505  26.845  11.424 -0.1307  0.1420 -0.2432
75666W        W76530  14.107  13.668   2.273  0.0388 -0.0823 -0.1123
75667W        W76531  25.716   3.151  16.428  0.0184 -0.1655 -0.1739
75668W        W76532   5.929  14.780  19.681  0.1702 -0.0918  0.0477
75669W        W76533   8.587   3.955  22.368  0.0068 -0.1455 -0.1320
75670W        W76534   9.128  10.323   3.456  0.0456 -0.1492  0.0189
75671W        W76535  24.766  24.959  17.191 -0.1111  0.1455  0.3297
75672W        W76536  26.881  15.939  14.169 -0.1362  0.3357  0.2860
75673W        W76537  10.125   7.468   2.710 -0.0834  0.0218 -0.2893
75674W        W76538   8.441  27.067  18.133 -0.3104  0.1612 -0.0958
75675W        W76539  21.589   9.407   0.711  0.1065 -0.2835 -0.0117
75676W        W76540   2.032  10.990   8.540 -0.0330  0.1821 -0.1095
75677W        W76541  22.324  15.306   6.489 -0.2630  0.0772 -0.0632
75678W        W76542   7.913  26.804  13.676  0.1711 -0.0969 -0.1456
75679W        W76543  15.809   7.298  10.499 -0.0703  0.2170  0.0823
75680W        W76544   3.873  18.781  13.498 -0.1077  0.5290 -0.2014
75681W        W76545  24.912   7.451  13.865  0.0238  0.1438 -0.0062
75682W        W76546  11.222  23.621  10.525  0.0750 -0.0664 -0.1179
75683W        W76547   9.513   3.934  11.258 -0.0999  0.0877 -0.1871
75684W        W76548  22.551   0.788  21.559 -0.1174 -0.0184  0.1491
75685W        W76549   9.148   9.626   7.050 -0.1047  0.0874  0.1281
75686W        W76550   6.057   4.915  13.868  0.0594 -0.1470  0.2958
75687W        W76551   6.165   2.647  16.263 -0.3279 -0.2675 -0.0136
75688W        W76552  27.375  21.046  15.441 -0.1185  0.1420 -0.0011
75689W        W76553  10.552  24.859   2.237 -0.1102  0.0627  0.2947
75690W        W76554  12.338  19.256   7.557  0.0131 -0.1031  0.1531
75691W        W76555  15.123  27.820  18.403  0.1582 -0.0671  0.1558
75692W        W76556   5.590   1.467  19.642 -0.1474  0.3280  0.2248
75693W        W76557  16.390  11.288  17.465 -0.0583 -0.0880  0.4610
75694W        W76558  10.514  22.573   6.013  0.0909  0.0089 -0.1746
75695W        W76559  11.272   9.901   8.684 -0.0643  0.0036  0.2832
75696W        W76560  18.850   6.485  27.804  0.0238 -0.0832  0.1645
75697W        W76561  12.531   9.239   4.868 -0.4088  0.0801  0.1379
75698W        W76562  25.676  28.029  28.514 -0.0056 -0.0757 -0.2690
75699W        W76563  15.325  12.451   8.013 -0.2288 -0.4048 -0.0292
75700W        W76564  13.272   3.802  22.840  0.0118  0.0585  0.0314
75701W        W76565  27.685  23.066  20.926 -0.3177 -0.1479  0.0878
75702W        W76566  11.074   8.128  15.716 -0.1192 -0.0814 -0.2570
75703W        W76567   6.506  16.715  17.936 -0.1452 -0.0659 -0.2726
75704W        W76568  21.697   5.960  18.049  0.2345  0.2638 -0.0014
75705W        W76569  20.327  20.563  12.361  0.2215  0.1167 -0.0185
75706W        W76570   2.783  15.446  24.780  0.0744  0.0643 -0.3966
75707W        W76571  19.577   6.138  24.156 -0.0363  0.0170 -0.3444
75708W        W76572  26.941   3.311  27.565  0.0930  0.3511 -0.1689
75709W        W76573   7.356  25.470  13.219  0.3049 -0.0827 -0.1014
75710W        W76574  25.058   0.986  17.152 -0.0454 -0.1977  0.4993
75711W        W76575  27.336   8.283  12.055 -0.2081 -0.1590 -0.1847
75712W        W76576   1.740   5.191   0.459 -0.2264  0.0395 -0.2121
75713W        W76577  22.279  14.352  20.631 -0.0001  0.1834  0.1230
75714W        W76578  16.577  20.365   9.042  0.0788  0.0360  0.0681
75715W        W76579  28.587  28.295  12.648  0.2506 -0.2804 -0.0570
75716W        W76580   3.478   5.545  13.706 -0.0618  0.1606  0.3063
75717W        W76581   3.262  22.097  28.568 -0.0481 -0.0576 -0.1701
75718W        W76582   8.164  10.854  10.539 -0.0819  0.1137 -0.0390
75719W        W76583  14.933  17.285  28.058 -0.0358 -0.0902  0.0185
75720W        W76584  11.358  14.657   7.824 -0.2500  0.1089  0.1573
75721W        W76585  25.206   9.006  13.969  0.3215  0.0389 -0.0124
75722W        W76586   0.308   7.310  17.776  0.1057 -0.0748  0.2032
75723W        W76587  15.246  13.158  21.721  0.0841  0.0239  0.1689
75724W        W76588  16.437  18.059  21.073  0.0368  0.0056  0.1269
75725W        W76589   2.681  15.438   8.082  0.0467 -0.0702 -0.0065
75726W        W76590  18.374  26.047  28.778  0.0036  0.3357  0.2718
75727W        W76591   8.643  20.708  28.570 -0.3243  0.1605 -0.1102
75728W        W76592  16.121  28.102   1.893 -0.0736 -0.0663 -0.0707
75729W        W76593  25.364   6.571   1.029  0.0207  0.2547  0.1218
75730W        W76594  14.433  27.030  23.939 -0.2837 -0.0653 -0.1357
75731W        W76595  10.141   8.697  21.009  0.2778 -0.1019 -0.0748
75732W        W76596   8.047   7.213  26.941  0.0866  0.0564 -0.1131
75733W        W76597  15.492  21.119  18.939 -0.1396 -0.2473  0.1340
75734W        W76598   3.742   6.073  19.743 -0.1167 -0.2260 -0.2155
75735W        W76599  24.628  15.962  15.160  0.1589 -0.1811 -0.2014
75736W        W76600  18.690  23.027  18.529 -0.0270 -0.2906  0.4724
75737W        W76601  12.405  26.923   5.920 -0.0746 -0.1802  0.0501
75738W        W76602   1.860  16.762  14.716 -0.0304  0.0695  0.1240
75739W        W76603  26.489   4.601  21.763 -0.5078 -0.3673 -0.3937
75740W        W76604  11.730  25.739  11.018 -0.0870 -0.1053 -0.3414
75741W        W76605   2.732  10.126   1.439  0.0058 -0.3026 -0.0971
75742W        W76606   3.185   5.243   7.931 -0.0430  0.1241 -0.0805
75743W        W76607  14.093  23.118   7.807  0.2471  0.1238 -0.2085
75744W        W76608  15.642   4.980  19.408  0.1842  0.0980 -0.2975
75745W        W76609   5.059   0.765  19.893  0.2588 -0.3456  0.0494
75746W        W76610   9.716   3.348  18.650 -0.3639  0.0060 -0.2820
75747W        W76611   0.454  24.103   5.478 -0.3066  0.0216 -0.0755
75748W        W76612  15.195  27.201   2.462  0.1026  0.4084  0.0552
75749W        W76613  21.091  19.915  23.761 -0.0256  0.0242  0.0843
75750W        W76614  26.469  11.574  19.505  0.1866 -0.0323 -0.0320
75751W        W76615   9.696  20.950  14.816  0.0767 -0.2296  0.1003
75752W        W76616   3.453  26.355   6.723  0.1660  0.0783 -0.0377
75753W        W76617   1.698   8.573  12.136 -0.2363  0.0863  0.2081
75754W        W76618   7.746  24.642  17.331 -0.2646 -0.0219 -0.1531
75755W        W76619  28.285   7.011   0.488 -0.5788 -0.0485 -0.0474
75756W        W76620  20.917   7.598  27.577  0.0193  0.3176  0.1079
75757W        W76621  12.167   6.755   0.027  0.0498 -0.2065  0.0993
75758W        W76622  17.974  14.904   8.946  0.2299  0.0211 -0.0190
75759W        W76623  14.782   3.813  12.858  0.1520  0.3267  0.2781
75760W        W76624  13.488  21.620  14.594  0.0266 -0.0835  0.1938
75761W        W76625   5.922  18.095   5.483  0.0352 -0.0589 -0.0376
75762W        W76626  19.391   2.782   4.177 -0.0220  0.2697 -0.0906
75763W        W76627  28.835  12.076  19.213 -0.2379  0.0694 -0.1416
75764W        W76628  28.680  19.283  10.902 -0.2160 -0.0653  0.1504
75765W        W76629   0.178  19.230  19.239  0.2123  0.0787  0.0959
75766W        W76630  16.082  22.019  13.093 -0.1112 -0.0786  0.3338
75767W        W76631   7.193  26.268   8.787  0.0165 -0.4005  0.2628
75768W        W76632   9.594  14.291   6.970 -0.0451  0.2460  0.1016
75769W        W76633  29.001  13.532  13.675  0.0916  0.3110  0.2426
75770W        W76634  10.838   5.451  25.710 -0.1063 -0.1479  0.0754
75771W        W76635  15.183   3.942  15.859 -0.0113  0.3012 -0.0029
75772W        W76636  10.417   7.185  17.658 -0.0379  0.0461 -0.0180
75773W        W76637  11.997   5.665  28.985  0.1006  0.2027  0.4100
75774W        W76638  20.704  22.320   0.300  0.0170  0.4418 -0.3726
75775W        W76639   4.025   0.322  13.473  0.0759 -0.0200  0.0272
75776W        W76640  23.856  20.326  10.623 -0.3089  0.3523  0.0798
75777W        W76641  14.473   8.805  25.459 -0.0224 -0.0930  0.1224
75778W        W76642  28.531  23.953  22.240 -0.0578  0.0504 -0.2298
75779W        W76643   7.371  26.208   5.489 -0.1004  0.1409 -0.3598
75780W        W76644  17.351   1.775  15.279 -0.1444  0.1866 -0.2980
75781W        W76645  28.088  17.436  10.233 -0.0132 -0.0714  0.1571
75782W        W76646   8.875   6.898   4.828 -0.1266 -0.0681  0.0839
75783W        W76647   8.564  24.458  27.833 -0.1801 -0.0827  0.2257
75784W        W76648  11.667  26.980   6.222  0.1198  0.3185 -0.0250
75785W        W76649  13.507   6.032  20.027  0.1017  0.2471  0.0097
75786W        W76650   5.756  19.344   2.132  0.2695 -0.1614  0.2919
75787W        W76651   7.522   8.183   1.076 -0.1443  0.1053 -0.1816
75788W        W76652   8.697  17.708  22.587  0.1390  0.2968  0.3879
75789W        W76653  18.460   0.664   7.890 -0.2409  0.1202 -0.1971
75790W        W76654   1.085   1.355  12.460 -0.0307  0.2041  0.1515
75791W        W76655  23.124  14.191   0.951  0.0192  0.1181  0.1326
75792W        W76656  16.273  21.714  16.016 -0.0948  0.2518 -0.0271
75793W        W76657  12.342  26.773  24.736  0.3563  0.1140 -0.1503
75794W        W76658  17.508   3.114  12.076  0.1018 -0.2828 -0.0427
75795W        W76659  18.938  17.872  20.299  0.0648 -0.0996 -0.0674
75796W        W76660   5.712  26.476   7.671  0.0170 -0.1594  0.0723
75797W        W76661  17.719   2.840  15.239  0.1701  0.1059  0.1861
75798W        W76662  15.051  14.981   9.890  0.0372 -0.0324 -0.4551
75799W        W76663  11.985  19.866  15.081 -0.0406 -0.0726 -0.2759
75800W        W76664   4.006   9.569  28.592 -0.0998  0.1160  0.1741
75801W        W76665   8.011   0.965  12.801 -0.0615  0.4814 -0.1005
75802W        W76666  17.265  11.532  20.269 -0.3181  0.0755  0.2116
75803W        W76667   3.214  27.486  19.181 -0.0381 -0.1973 -0.0134
75804W        W76668   5.427  24.371   2.368  0.0578  0.3357 -0.0414
75805W        W76669  11.952  21.968  14.682 -0.4664 -0.0297 -0.3567
75806W        W76670   1.271   8.429   9.765  0.0188  0.1375 -0.2798
75807W        W76671   1.187   6.701   6.987 -0.2389  0.0047  0.0973
75808W        W76672  27.822   4.573  21.984 -0.0012 -0.1802  0.1145
75809W        W76673  10.912   3.306  20.674 -0.0648 -0.2277 -0.2565
75810W        W76674  14.399   3.415   1.849  0.0811  0.1183  0.5256
75811W        W76675   3.961   1.192  22.567  0.2415 -0.2216 -0.3034
75812W        W76676   2.745  18.113  10.908  0.3074 -0.1899  0.0608
75813W        W76677  15.522  13.922   3.049 -0.0469  0.0247  0.2544
75814W        W76678  26.531  24.140   9.974  0.3070 -0.1857 -0.2144
75815W        W76679  10.965  12.479  17.818 -0.0144 -0.2964 -0.0320
75816W        W76680  20.197   8.162   2.423  0.2621  0.2076 -0.0846
75817W        W76681   0.881  13.500   8.731  0.3711 -0.2526 -0.0349
75818W        W76682  12.949   9.926   9.621  0.2701  0.0881 -0.0662
75819W        W76683   4.381   3.975  20.724 -0.2886 -0.0979 -0.2073
75820W        W76684   5.974   0.121  28.188  0.1295  0.0318  0.0378
75821W        W76685  10.078  22.373  26.277  0.1330  0.2854 -0.2221
75822W        W76686   9.375  18.025  24.430 -0.0950 -0.1393  0.1889
75823W        W76687  13.422  16.530  24.271  0.1248  0.1881  0.0573
75824W        W76688  14.607   2.148  20.409  0.0276  0.1649 -0.0010
75825W        W76689  11.122  19.701  19.483 -0.0324 -0.4337 -0.0935
75826W        W76690  19.574  27.988  20.925  0.2561 -0.1473 -0.1180
75827W        W76691  23.314  13.904  13.906 -0.3883 -0.1465  0.0995
75828W        W76692   6.546  25.769  26.523 -0.0158 -0.3131  0.2292
75829W        W76693  28.679  26.391   2.101  0.1904  0.3699  0.3155
75830W        W76694  17.557   5.781  26.612 -0.0409 -0.1247 -0.1907
75831W        W76695  18.194  28.014  12.476  0.0656  0.3228 -0.0087
75832W        W76696   9.521  15.816   3.075  0.1542 -0.0172  0.0362
75833W        W76697  22.312  22.546  18.624 -0.0234 -0.0645  0.0673
75834W        W76698  16.358  16.210   5.795 -0.0396  0.0553  0.0586
75835W        W76699  13.880  27.412  13.868 -0.2624 -0.2309 -0.0727
75836W        W76700  11.725  10.438   9.868  0.0357  0.0494 -0.0800
75837W        W76701   8.483  18.904  22.277 -0.0874  0.2283 -0.1146
75838W        W76702   0.336  19.076  14.157 -0.0384 -0.1157 -0.2786
75839W        W76703   8.833   6.099   2.912 -0.2513 -0.2206 -0.1881
75840W        W76704  24.929  19.675  19.906 -0.1393  0.1252  0.2594
75841W        W76705  25.189  23.174  12.057 -0.0928 -0.1501  0.1474
75842W        W76706  28.404  17.456  28.369  0.1478 -0.0046  0.2865
75843W        W76707  15.752   0.048  14.837 -0.1932  0.1240  0.1467
75844W        W76708  23.113   1.494  22.585 -0.0690 -0.0082 -0.0885
75845W        W76709  10.240  17.068   1.835  0.4758  0.0314  0.2259
75846W        W76710  16.586  15.246  26.065  0.0771  0.0108  0.1263
75847W        W76711  10.427  21.733  23.356 -0.2923  0.0577 -0.1869
75848W        W76712  24.117  15.805  13.248  0.2038  0.1719 -0.0161
75849W        W76713   8.283  17.101   2.984 -0.2192 -0.0289 -0.4286
75850W        W76714  11.527  23.313   4.772 -0.1095  0.0092  0.0776
75851W        W76715  13.424  13.971  17.854  0.0218  0.4470  0.0995
75852W        W76716  12.918  19.145   2.082  0.0009  0.1674  0.0809
75853W        W76717   8.288   7.164  21.077  0.2049 -0.0621  0.1154
75854W        W76718   7.311  19.252   2.417 -0.4802  0.2488  0.1555
75855W        W76719  21.689  26.298  22.937  0.2949 -0.1875  0.1909
75856W        W76720  11.518   2.341  13.100  0.1053  0.2110  0.1394
75857W        W76721  22.579  22.782  22.422  0.1366  0.2447  0.2525
75858W        W76722  17.195  18.033  20.529 -0.1534 -0.3377  0.3455
75859W        W76723  11.774   9.211  17.740  0.0411 -0.0247 -0.0485
75860W        W76724  18.363   8.789  22.149  0.0037  0.0031 -0.0193
75861W        W76725  14.095  20.279  25.696  0.0299 -0.0968 -0.1306
75862W        W76726   9.667  10.623  18.387  0.1698 -0.1809  0.1778
75863W        W76727   7.430  24.879   7.116 -0.0097 -0.1422 -0.1371
75864W        W76728   0.106   0.924  26.696  0.0163 -0.2077  0.1057
75865W        W76729  22.211  23.545   3.290  0.1312 -0.2382  0.2251
75866W        W76730  25.392   4.706  14.000 -0.2998 -0.2317  0.1316
75867W        W76731   4.756  20.386  13.382 -0.1633  0.0385 -0.3096
75868W        W76732  27.919  11.663  25.494 -0.0184  0.1034  0.0427
75869W        W76733   2.671   9.819  14.761 -0.0577  0.0309 -0.0833
75870W        W76734   2.417  25.061  17.375 -0.0483 -0.2570 -0.2241
75871W        W76735  14.271   1.612   5.900 -0.0991  0.0169  0.0917
75872W        W76736  12.983   4.557  11.022 -0.1684 -0.2466  0.0442
75873W        W76737   4.397  10.705  24.873 -0.3012 -0.1981  0.1199
75874W        W76738  17.705   8.606  24.802 -0.0253  0.2077  0.0752
75875W        W76739  12.973  24.233  25.399 -0.0708 -0.1653 -0.0767
75876W        W76740  19.672  11.547   3.637  0.0634  0.0133  0.0702
75877W        W76741  10.628   7.766  16.942  0.2166  0.2928  0.0050
75878W        W76742   7.607  18.341  13.501 -0.0216 -0.0634  0.1358
75879W        W76743  25.762  22.836  13.859  0.0976  0.0002 -0.2153
75880W        W76744  17.791  27.492   2.970  0.0128  0.0047  0.0675
75881W        W76745  27.664  27.330   2.812 -0.1373 -0.3689  0.0540
75882W        W76746  13.031   6.026  10.895  0.0331  0.2032  0.2550
75883W        W76747   6.589   6.175   5.359  0.0868 -0.4272  0.0750
75884W        W76748   4.584   6.302  18.603 -0.0791 -0.3032  0.3852
75885W        W76749  14.657   3.785  10.097 -0.0432 -0.0331 -0.2088
75886W        W76750  11.479   6.501  19.149 -0.0421  0.0319  0.0147
75887W        W76751  25.723  11.834  16.638 -0.2092 -0.1792 -0.3616
75888W        W76752  24.126  20.793  17.700 -0.0883 -0.0945 -0.0288
75889W        W76753  15.252  21.257  21.894 -0.2667 -0.1007  0.1472
75890W        W76754  23.656  10.478  22.716 -0.0481 -0.1277  0.4368
75891W        W76755  17.016  22.050   9.730  0.0291 -0.0566 -0.1660
75892W        W76756  11.093  28.459   2.564 -0.0256  0.1231  0.0158
75893W        W76757   7.954   4.600   6.638 -0.0812  0.0141  0.1166
75894W        W76758  11.299   7.586   4.143  0.0291 -0.1859  0.1108
75895W        W76759   2.931   9.171  24.795  0.0686  0.3341  0.0479
75896W        W76760  12.360  13.924  16.337  0.0457 -0.1466  0.1523
75897W        W76761  11.334  13.099   0.591  0.0381 -0.3678 -0.0795
75898W        W76762  14.228  11.090   8.419  0.1975  0.1196 -0.0909
75899W        W76763  26.542  27.255   5.764  0.0813 -0.3748  0.1780
75900W        W76764  19.446  20.072   0.794 -0.2457 -0.1929 -0.1604
75901W        W76765  14.865  10.603  20.795 -0.1980 -0.0647 -0.0967
75902W        W76766   6.763  24.703   9.840  0.0178  0.1628 -0.1945
75903W        W76767   9.621  24.786  15.946 -0.1508 -0.1773 -0.0416
75904W        W76768  12.455  28.366   2.246 -0.1486 -0.1037  0.2708
75905W        W76769   4.919   4.402  13.964 -0.1250 -0.2604  0.0567
75906W        W76770   8.786   9.989  17.195  0.2200 -0.0799 -0.0654
75907W        W76771  18.695   2.267  27.732 -0.0395  0.0989 -0.0292
75908W        W76772   8.966  19.223   4.890 -0.1827  0.0802  0.1477
75909W        W76773   7.670  12.126  20.831 -0.0482  0.1836 -0.1644
75910W        W76774  17.268  28.102  20.971  0.0354 -0.0532 -0.0110
75911W        W76775   1.313  26.359  12.965  0.2257  0.0991  0.0400
75912W        W76776   2.532  21.570   4.544  0.0332  0.0089 -0.2700
75913W        W76777   8.783   8.501  11.540  0.1897  0.3220 -0.0008
75914W        W76778  22.102  22.153   2.010  0.0569 -0.1358 -0.1522
75915W        W76779  10.587  26.393  23.912 -0.1254  0.2097  0.1909
75916W        W76780  18.146  14.324  19.708  0.0556  0.0711  0.2565
75917W        W76781   9.650  27.694  13.675 -0.1260 -0.2456 -0.0379
75918W        W76782   2.059  27.272  14.205  0.1294  0.0378  0.1616
75919W        W76783  21.998   9.585  28.159  0.3241  0.2641  0.0275
75920W        W76784  21.260  24.538   6.450 -0.0171 -0.3682  0.0807
75921W        W76785   6.756   7.237  11.351 -0.1326  0.1008 -0.1967
75922W        W76786  17.066   4.225  20.696  0.3848 -0.0851 -0.1009
75923W        W76787  26.002   6.215  23.793 -0.0019  0.0866 -0.1206
75924W        W76788  28.618  25.152  26.618  0.0396  0.1410 -0.0300
75925W        W76789   6.821  14.078  20.483  0.2708 -0.0319 -0.3310
75926W        W76790  18.436  23.484  19.414  0.0495 -0.3004  0.0367
75927W        W76791  10.166   6.167  23.498 -0.1712  0.3977 -0.0255
75928W        W76792  14.179  10.451  12.311 -0.2411 -0.3607 -0.1133
75929W        W76793  22.672  23.680  17.747 -0.1283  0.0782 -0.1695
75930W        W76794  16.016  29.029  28.862  0.3668  0.1845  0.0151
75931W        W76795  23.718  18.390  23.367  0.0210  0.0871  0.0508
75932W        W76796  19.039  11.691  21.064  0.1877  0.0833  0.0130
75933W        W76797  27.803  22.605  13.299 -0.0836  0.1355 -0.0256
75934W        W76798  11.872   8.700   2.484 -0.2146  0.3350 -0.1226
75935W        W76799  17.969  18.332  20.255  0.1434 -0.1107  0.0885
75936W        W76800   2.605  18.727  25.440  0.0403  0.1304  0.1881
75937W        W76801  13.763  21.938   8.891 -0.3866 -0.1576  0.2013
75938W        W76802   8.710  15.826   0.487 -0.0985  0.1823 -0.3653
75939W        W76803   8.381   3.782  16.421  0.1757  0.3137  0.0507
75940W        W76804  23.003  13.692   8.521 -0.1123  0.1508  0.1764
75941W        W76805  20.045  25.343  19.148 -0.2761  0.1567  0.0817
75942W        W76806   7.512   1.444  15.670 -0.1307 -0.3624  0.0658
75943W        W76807  27.629  27.693  15.789  0.1437 -0.0143 -0.1475
75944W        W76808  27.160  24.584  25.849  0.0242  0.3030 -0.1253
75945W        W76809  22.666   5.214   3.610 -0.0709 -0.1404 -0.2332
75946W        W76810  27.969  16.923  22.862 -0.1551  0.1645  0.1385
75947W        W76811   5.928   5.407  11.185  0.0389 -0.0899  0.1120
75948W        W76812  12.767  22.673  13.370  0.1244 -0.2327 -0.0507
75949W        W76813  19.587  27.998   0.120  0.1818  0.0165  0.0722
75950W        W76814   9.237  23.279  24.136 -0.0002 -0.1607  0.0955
75951W        W76815  22.604  27.492  15.515 -0.1952  0.1574 -0.5064
75952W        W76816  12.197  11.613  10.136 -0.1112 -0.0673 -0.0871
75953W        W76817  24.187   8.832  28.322  0.0600  0.0899 -0.1889
75954W        W76818  25.681  17.758  26.816 -0.1005  0.0952 -0.2342
75955W        W76819  12.560  26.714  19.307  0.2918 -0.3167 -0.0823
75956W        W76820   9.019  26.510  24.070 -0.0280 -0.4792 -0.0020
75957W        W76821   0.852   0.914   4.363 -0.1815 -0.1874  0.1848
75958W        W76822  27.660  20.770  21.202  0.2204  0.1027 -0.0660
75959W        W76823  23.474   0.526  19.286  0.1848 -0.0191  0.1506
75960W        W76824   7.651   4.193  23.266 -0.2872 -0.0087  0.0730
75961W        W76825  25.566  25.975  13.075  0.2504 -0.0151 -0.3137
75962W        W76826  28.137  23.200  11.738  0.2153  0.1777  0.1278
75963W        W76827   0.941  25.282  24.713 -0.0183  0.1299 -0.0516
75964W        W76828   9.902   8.679  15.194  0.2418 -0.0964 -0.2548
75965W        W76829  25.283  27.121  25.802 -0.0655  0.0604 -0.2830
75966W        W76830   1.980  20.284  24.445  0.2408 -0.2577  0.0728
75967W        W76831  15.875   4.802  12.635  0.0534  0.2060  0.0776
75968W        W76832   1.344   9.844   1.083  0.0731  0.1019  0.2966
75969W        W76833   6.165  13.962  14.780  0.0961  0.0944  0.1080
75970W        W76834  21.649   8.584  18.414 -0.1395 -0.2223  0.3211
75971W        W76835  12.937  19.504   9.458 -0.0385  0.0328  0.2249
75972W        W76836  25.171  26.394  22.563  0.2687 -0.0018  0.1572
75973W        W76837   3.400  28.402  28.900  0.0464  0.0061 -0.1410
75974W        W76838  17.082   5.539  10.695 -0.1408 -0.1254  0.2023
75975W        W76839  21.029  13.474   5.469 -0.0647 -0.0318 -0.0671
75976W        W76840  28.822  27.995  28.073 -0.0073 -0.3495  0.0893
75977W        W76841  28.313  17.421  16.241  0.3701  0.2403  0.0705
75978W        W76842  19.446   7.630   2.443  0.3001  0.0453 -0.0981
75979W        W76843   0.347  16.117  10.576 -0.2379  0.1101  0.1395
75980W        W76844   9.962   3.442  22.318 -0.2483 -0.0955  0.1340
75981W        W76845  13.312  24.976   7.810  0.0816  0.1286  0.0457
75982W        W76846  21.194  28.174   1.624  0.1786  0.3156 -0.2013
75983W        W76847   7.582  22.927  27.350 -0.0825  0.0577  0.0028
75984W        W76848  17.718   0.215  14.410 -0.0620 -0.3635 -0.3812
75985W        W76849  18.467  21.490  28.066  0.0002 -0.0508  0.0808
75986W        W76850  26.623   1.024  19.562 -0.0704  0.4011  0.0547
75987W        W76851   7.306  24.467  23.996  0.1816  0.1645  0.0421
75988W        W76852  10.796  24.474   3.363  0.2682 -0.0039  0.0702
75989W        W76853   8.417  17.332  18.943  0.0333  0.3060 -0.0637
75990W        W76854  16.919  19.654   3.273  0.1446 -0.0738 -0.1454
75991W        W76855  10.375   4.808  28.255 -0.1141 -0.1174 -0.0881
75992W        W76856   8.962  12.054  26.702 -0.1032  0.1807 -0.0245
75993W        W76857   9.358   9.867  18.178  0.1157  0.1863 -0.0403
75994W        W76858  19.596  24.493  14.341 -0.0116  0.0787  0.1044
75995W        W76859   9.159   8.742  16.023 -0.1083  0.0263  0.3476
75996W        W76860   9.256  21.732  20.923 -0.1571  0.1347 -0.2291
75997W        W76861   4.853   6.929  21.711 -0.0327  0.0891  0.1967
75998W        W76862  19.330   4.250  20.268 -0.0589 -0.3527  0.1482
75999W        W76863   0.616  14.629  15.725 -0.0350 -0.0509 -0.0131
76000W        W76864  14.329   2.037   8.007 -0.1370  0.2784 -0.0261
76001W        W76865  18.872  19.574  25.116  0.1116 -0.0709 -0.1943
76002W        W76866  11.799  28.199   7.381  0.0162 -0.2747 -0.2695
76003W        W76867  18.478   4.371  11.839  0.0737 -0.0452  0.0391
76004W        W76868   6.249  21.036  22.189 -0.0230 -0.0637 -0.1807
76005W        W76869   1.884  15.746  21.718 -0.0780 -0.4186  0.1327
76006W        W76870  26.027  26.950  21.585  0.3295  0.2046  0.1556
76007W        W76871  15.758  13.627  25.973  0.1088 -0.1019 -0.2023
76008W        W76872  13.421  14.616  13.458 -0.1446  0.2021 -0.0305
76009W        W76873   2.208  28.944  19.485 -0.0505 -0.0849 -0.0189
76010W        W76874  20.771   6.099  11.392 -0.2687 -0.1256 -0.2402
76011W        W76875  27.244  23.662  10.522 -0.0281  0.1218 -0.2497
76012W        W76876   8.132   5.394  19.357 -0.2372  0.3759  0.2033
76013W        W76877  24.484   1.169  15.399  0.0653 -0.1940  0.2099
76014W        W76878  16.791  19.174  26.378 -0.1281  0.0667  0.0141
76015W        W76879  13.376   8.887  15.344 -0.1208 -0.0163  0.1023
76016W        W76880   7.346  18.632  28.038  0.0848 -0.3525 -0.0420
76017W        W76881   9.911   5.168  18.891  0.0337  0.2738  0.1117
76018W        W76882   6.562   5.040  13.184 -0.0588  0.0202 -0.0632
76019W        W76883  25.809   6.419   7.933 -0.3350 -0.1525  0.0877
76020W        W76884  10.983   4.007  17.819  0.0054 -0.2084 -0.0862
76021W        W76885  20.365  25.152   6.279  0.0096  0.1573  0.3076
76022W        W76886  11.917   1.331   4.458 -0.0959 -0.0550 -0.3410
76023W        W76887  11.756   9.621  16.363  0.3577 -0.1659  0.1185
76024W        W76888  14.087  25.724   8.779 -0.0144  0.1613 -0.0795
76025W        W76889  19.934  19.688  12.883 -0.0969  0.0268 -0.0794
76026W        W76890   3.577  14.781   0.042  0.0701  0.0245  0.4014
76027W        W76891   4.503  12.630  19.265  0.4218  0.0996 -0.1670
76028W        W76892  12.160   6.078   3.912  0.2352  0.0564 -0.1318
76029W        W76893  14.941   9.417  14.030 -0.0582 -0.3371 -0.1807
76030W        W76894  25.029  25.885  11.215  0.1100  0.1562 -0.2108
76031W        W76895   2.680  23.961  19.694 -0.3191  0.0972  0.0533
76032W        W76896  19.516  27.770  11.956 -0.0511  0.2533 -0.2352
76033W        W76897  17.082  24.413   3.292  0.0951  0.1001 -0.2401
76034W        W76898  19.478   9.459  15.010 -0.0997 -0.0920 -0.5371
76035W        W76899  14.278  21.953  22.758  0.0964  0.1035  0.0802
76036W        W76900   1.950  16.117   8.519  0.1667  0.1285 -0.1460
76037W        W76901  19.176   5.499   9.638  0.0650  0.0094 -0.1190
76038W        W76902  23.531  21.916  22.431 -0.0109 -0.1896  0.0820
76039W        W76903  15.455  25.817  13.904  0.0698  0.0993  0.2416
76040W        W76904   7.923  27.079  15.643 -0.1890  0.1382 -0.2218
76041W        W76905   6.826  13.981  15.497 -0.0911 -0.0576  0.3984
76042W        W76906  21.505  19.338  17.796 -0.0291 -0.0175 -0.1857
76043W        W76907   8.552   6.276   9.451  0.0564  0.2318 -0.2437
76044W        W76908   8.229  14.819   1.494  0.0682 -0.2868 -0.1618
76045W        W76909  28.574  22.147  29.063  0.1699 -0.1161  0.0489
76046W        W76910   4.445  24.303  20.301 -0.0743 -0.3628  0.0165
76047W        W76911   6.194   9.193  24.538 -0.2803  0.1524  0.0598
76048W        W76912  11.267   6.654  14.541  0.4442  0.1372 -0.1311
76049W        W76913   6.399  27.100   4.795 -0.1958 -0.4653 -0.1747
76050W        W76914  15.015   3.447  21.097 -0.0327  0.1441  0.0114
76051W        W76915   5.220   5.985  15.896  0.0835  0.1502  0.0422
76052W        W76916  28.143   6.930  25.710 -0.0219  0.2848  0.2456
76053W        W76917  10.333   4.431  12.950 -0.2418 -0.0858  0.0867
76054W        W76918  19.174  23.297  24.176  0.1675  0.1698  0.3019
76055W        W76919   2.800  20.922  22.401  0.4043  0.0100  0.2235
76056W        W76920   1.290  10.785  20.569 -0.1738  0.2950 -0.2670
76057W        W76921   7.050  10.668   9.465 -0.0197  0.2770 -0.0226
76058W        W76922  17.493   0.830   4.359 -0.0437 -0.0401  0.1680
76059W        W76923  17.922  14.772  15.921  0.0507 -0.0223 -0.1987
76060W        W76924   9.175   3.722  17.065  0.5093  0.0941 -0.0497
76061W        W76925   4.768  16.515  11.705  0.0290 -0.1819  0.1957
76062W        W76926  15.820   5.374  19.167 -0.0637 -0.3529  0.0025
76063W        W76927   6.409  15.152  15.052  0.0556  0.3440 -0.1061
76064W        W76928  26.437  12.948  21.478  0.3633 -0.1649 -0.1001
76065W        W76929  28.537  15.132  19.554 -0.0447 -0.2278  0.0774
76066W        W76930  26.604  24.466   6.365  0.1328  0.3335 -0.4951
76067W        W76931  13.953   0.205  14.218  0.0677  0.2575 -0.1114
76068W        W76932   4.425  14.098  15.537 -0.0106 -0.1767 -0.1972
76069W        W76933   2.555   5.261  15.028 -0.0565 -0.2386  0.0754
76070W        W76934   4.414  16.956  10.061 -0.2876 -0.0718 -0.0754
76071W        W76935   5.552   1.814  11.061 -0.1904  0.1781 -0.3186
76072W        W76936   0.235  13.096  25.994  0.0456 -0.0621 -0.3293
76073W        W76937  12.805   7.828  11.483  0.1140  0.2082 -0.0067
76074W        W76938  15.367  15.580  13.740 -0.5959 -0.3306  0.1506
76075W        W76939   1.769  23.971  23.804 -0.1563 -0.0377  0.3666
76076W        W76940   9.603  23.915  12.367  0.0745  0.2286 -0.0559
76077W        W76941  15.324  22.800   3.109  0.1325 -0.1493 -0.1392
76078W        W76942   9.691  25.163  18.502 -0.0507 -0.0092 -0.1399
76079W        W76943   7.635   9.928   4.916 -0.1970  0.3782  0.2474
76080W        W76944  26.956   8.515  26.347  0.5173 -0.0858 -0.1347
76081W        W76945   0.068   5.891  13.904 -0.0307 -0.4014  0.5729
76082W        W76946   5.666   0.755   6.219  0.0061 -0.3255 -0.4012
76083W        W76947  21.194   1.152  15.000  0.2668 -0.1978  0.0116
76084W        W76948  28.633  28.062  23.734 -0.1151 -0.2807 -0.3944
76085W        W76949  28.142   0.916  12.305 -0.2486 -0.3296  0.0660
76086W        W76950  12.076  27.530   0.176 -0.1756  0.0880 -0.1248
76087W        W76951   7.475  22.548  19.114  0.1052  0.0989 -0.0886
76088W        W76952  15.499  15.785   3.299 -0.0556  0.4241  0.0227
76089W        W76953  15.992  25.426  21.583  0.2314  0.0687 -0.0481
76090W        W76954  28.779  22.948  12.305 -0.0381 -0.0908  0.0751
76091W        W76955  28.541   0.831  17.035 -0.0320 -0.0012 -0.1326
76092W        W76956  17.576   8.161  20.517 -0.1214  0.1967  0.0185
76093W        W76957   8.438   9.680  10.449 -0.0965 -0.1932 -0.0949
76094W        W76958  17.547  15.426  18.285 -0.2141 -0.2008 -0.2035
76095W        W76959   4.214  25.509  28.370  0.3156 -0.1244 -0.3692
76096W        W76960  28.054  21.879  21.968  0.1475 -0.3855  0.1464
76097W        W76961   9.563  11.044  20.977 -0.3800  0.1353 -0.1427
76098W        W76962  11.888  27.285   9.509  0.0059 -0.3946 -0.2529
76099W        W76963  14.228   5.214   4.160 -0.1298 -0.0539  0.0751
76100W        W76964   2.425  20.736  14.753 -0.1734 -0.1348  0.0662
76101W        W76965  19.583   3.364  24.009  0.3849  0.1271 -0.1606
76102W        W76966  11.740   8.091  21.166 -0.0728  0.0488  0.0450
76103W        W76967  13.553  11.189  15.081 -0.0737 -0.0971  0.2313
76104W        W76968  22.914   5.386  26.080  0.0367 -0.1612 -0.2954
76105W        W76969   5.638  24.358  24.450 -0.1208 -0.1236 -0.0114
76106W        W76970   1.871  25.304   2.635  0.0827  0.1747  0.0758
76107W        W76971   6.058  28.150  18.851  0.2882  0.1329 -0.2076
76108W        W76972  21.232   9.577  24.687 -0.1221  0.0467  0.1249
76109W        W76973  26.561  29.114  11.763  0.0544 -0.0416  0.1815
76110W        W76974  11.160  22.731  24.557 -0.0698  0.1789 -0.0606
76111W        W76975  17.445  19.560  13.469 -0.0289  0.1963  0.1509
76112W        W76976  14.938   8.741  18.926  0.0555  0.1470  0.1011
76113W        W76977  28.169  27.446  17.167  0.1073 -0.1101  0.2941
76114W        W76978  12.273   5.730  27.520  0.0376 -0.1948 -0.1181
76115W        W76979  16.481   4.699  23.827 -0.2385 -0.4713 -0.0708
76116W        W76980  10.477  22.940   5.593 -0.0414  0.1067 -0.1463
76117W        W76981  11.275  24.889   8.773  0.0270  0.1956  0.1208
76118W        W76982  12.709  21.288  20.140  0.0143  0.0570 -0.4101
76119W        W76983  16.183  28.353  23.830 -0.3959 -0.0081  0.0726
76120W        W76984   1.232  17.963  19.570 -0.1815  0.2477 -0.1484
76121W        W76985   9.999  12.234  21.957  0.3059 -0.0649  0.1543
76122W        W76986  12.942   2.384  25.368 -0.0397  0.1268  0.0011
76123W        W76987   9.337  17.620   0.242  0.3806  0.0154  0.0547
76124W        W76988  28.497  26.517  15.909 -0.3383  0.3631 -0.1472
76125W        W76989  13.972   4.631   3.035  0.0394  0.1078 -0.5244
76126W        W76990  12.655   8.147   9.379  0.4061 -0.1449  0.1211
76127W        W76991  18.799  22.734   3.836 -0.4693 -0.0151  0.0843
76128W        W76992  11.931  13.189  16.984 -0.1204 -0.0280  0.2062
76129W        W76993   0.074   6.907  25.096 -0.2449 -0.0481  0.3332
76130W        W76994  19.695  21.049  11.507  0.0606 -0.2333 -0.0291
76131W        W76995  15.305  15.617  20.866 -0.0853  0.0312  0.0272
76132W        W76996  12.425  27.846  15.708  0.2535 -0.0076 -0.0864
76133W        W76997  26.828  17.314  21.387  0.2951  0.1223 -0.1284
76134W        W76998   3.926   1.208  20.389 -0.2986 -0.0002 -0.1055
76135W        W76999   1.720  21.570  11.440 -0.1210 -0.0456 -0.1791
76136W        W77000  14.223   1.402   0.961  0.3061  0.1453  0.1429
76137W        W77001   0.331   0.974  28.075 -0.0227 -0.1575  0.0251
76138W        W77002   7.080  27.453  27.696  0.0976 -0.0511  0.0052
76139W        W77003  15.993   3.265  16.898 -0.0057  0.1891  0.1681
76140W        W77004   2.804   9.732   7.528 -0.2601  0.1453 -0.0882
76141W        W77005   5.387   1.030  22.724  0.0476 -0.1142  0.0499
76142W        W77006  12.713  26.113   9.769 -0.1192  0.2455 -0.0473
76143W        W77007   6.158   0.484  25.417 -0.1805  0.0549 -0.0215
76144W        W77008  10.825   9.892  16.317  0.0314 -0.1640 -0.3812
76145W        W77009   1.986  26.248  21.643  0.3404 -0.2980 -0.1251
76146W        W77010  25.008   8.408   6.820 -0.1974 -0.0029  0.3629
76147W        W77011   1.972  13.006  28.223 -0.4041 -0.0841  0.1193
76148W        W77012  11.376  19.860  15.890  0.1211  0.1480 -0.1274
76149W        W77013   8.048  24.297  16.745  0.2069  0.0663  0.1759
76150W        W77014  26.940  12.859  17.519 -0.0901 -0.2304  0.0619
76151W        W77015  27.803  10.408  17.605 -0.1466 -0.1623  0.2178
76152W        W77016  25.157  25.285  27.306 -0.1405 -0.0878  0.2092
76153W        W77017   0.480  22.786  26.316 -0.0929  0.0606 -0.1180
76154W        W77018   4.765  28.357  27.757 -0.0355  0.4464 -0.1108
76155W        W77019   7.347  27.033  19.927  0.0231  0.2489 -0.0124
76156W        W77020   5.866   2.276  15.103 -0.1773 -0.2329 -0.0922
76157W        W77021  11.431  18.722   6.491  0.1626 -0.2176  0.1621
76158W        W77022  14.183  17.134  17.907 -0.1263 -0.1496  0.3539
76159W        W77023   0.866  23.975   5.260  0.0241 -0.0625 -0.1207
76160W        W77024  25.337  18.618  25.232 -0.3238  0.0581  0.0459
76161W        W77025   5.835  10.282   2.608  0.0685  0.0273 -0.2121
76162W        W77026  13.418  13.883  21.951 -0.0151  0.1361 -0.1105
76163W        W77027  12.446   2.940  21.364  0.1350 -0.1571 -0.1974
76164W        W77028  28.881  10.112  10.019  0.0196 -0.0165  0.2159
76165W        W77029  18.871   8.460  22.990  0.0599 -0.0777 -0.1042
76166W        W77030   5.531   5.332  24.991 -0.1788  0.3016 -0.2654
76167W        W77031   8.275  18.800  16.037 -0.0639 -0.3187  0.3287
76168W        W77032   2.857  15.874   4.979 -0.2293  0.1708 -0.0939
76169W        W77033   6.313   4.220   1.532 -0.0517 -0.0505  0.0294
76170W        W77034  13.757  18.558  23.217  0.0508  0.1090 -0.2842
76171W        W77035  18.973   1.517  23.655  0.0073  0.1474 -0.2401
76172W        W77036  11.747   5.176  24.241  0.0073 -0.0083 -0.0629
76173W        W77037   8.124  19.603  25.834  0.1603  0.3273 -0.2331
76174W        W77038  18.377  13.606  24.936  0.3312 -0.1039  0.2989
76175W        W77039  10.798   4.053  26.653  0.0178  0.4895 -0.0164
76176W        W77040  12.459  12.612  16.104  0.0745  0.0050  0.0245
76177W        W77041  16.625  28.951  17.245  0.0089  0.2840  0.1933
76178W        W77042  18.223  26.227   0.567  0.0770 -0.0511  0.2157
76179W        W77043  12.296  12.839  14.412 -0.0345  0.0951 -0.1766
76180W        W77044   4.385  19.651  23.739  0.1314 -0.0841 -0.1771
76181W        W77045  22.065  16.147   2.792 -0.1114 -0.1301  0.0024
76182W        W77046  21.332  24.832  27.785 -0.2126  0.0648 -0.0138
76183W        W77047   2.748  19.421  15.610  0.0011  0.0737 -0.2352
76184W        W77048  22.209  23.583  19.170 -0.3194  0.1101  0.1779
76185W        W77049   8.971  13.058   8.818 -0.1903 -0.2865 -0.1144
76186W        W77050   7.393  11.985   6.804 -0.2832  0.1634 -0.1112
76187W        W77051   1.581   4.427   1.283 -0.2471 -0.1945  0.2160
76188W        W77052  28.937  25.472  21.029 -0.0666  0.1294 -0.1077
76189W        W77053   3.146   1.007  17.208 -0.2941  0.1660 -0.0886
76190W        W77054  14.373  24.295  27.235 -0.1312 -0.1540  0.0961
76191W        W77055   1.148   6.118   3.588 -0.1446 -0.0664  0.3599
76192W        W77056   0.050  11.741   7.693 -0.1979 -0.2609 -0.3006
76193W        W77057   9.425   8.301  17.688 -0.0239  0.1003  0.3582
76194W        W77058   7.055  22.203   5.984 -0.1752  0.1362  0.1676
76195W        W77059  28.774  12.687  10.343 -0.0476  0.1920  0.3722
76196W        W77060   9.188   5.360  28.091 -0.0180 -0.0097 -0.2139
76197W        W77061   9.696   7.637  22.767 -0.1456 -0.1993  0.2396
76198W        W77062  13.249  19.311   7.824  0.0720  0.0464  0.2163
76199W        W77063   9.445  19.614  20.910  0.4111  0.1384  0.0893
76200W        W77064  25.493  16.975  27.658 -0.1607 -0.1588  0.1234
76201W        W77065  27.379   5.465  10.521  0.0654  0.2613 -0.1699
76202W        W77066  21.895   6.045   4.798 -0.0159 -0.1597  0.1261
76203W        W77067  18.085   8.832  20.821  0.0873  0.0967  0.0078
76204W        W77068   8.289  25.320   9.420 -0.3195  0.0719  0.2878
76205W        W77069  16.000   2.871  24.805 -0.1709 -0.0562 -0.0320
76206W        W77070   7.566  14.675  21.734  0.1585  0.2331 -0.0256
76207W        W77071  13.807  28.780  22.660  0.1809  0.0807 -0.0847
76208W        W77072  18.322  17.436  17.185  0.3335  0.1988 -0.0372
76209W        W77073  25.787  12.372  24.143 -0.2504 -0.2382 -0.1736
76210W        W77074  11.382  25.686   9.729 -0.4972  0.4276  0.1415
76211W        W77075   6.874  15.095  24.733 -0.1092 -0.1002  0.3739
76212W        W77076   4.683  10.770  12.969  0.1110  0.2142 -0.0058
76213W        W77077  25.787  28.528  16.775  0.0470 -0.0891  0.1031
76214W        W77078   8.310  18.717  21.365 -0.3294 -0.0521 -0.0261
76215W        W77079   1.498  12.728  26.044  0.1486 -0.2510 -0.2048
76216W        W77080   4.043   3.278  27.427  0.0678 -0.1830 -0.1550
76217W        W77081  15.826  28.595   3.208 -0.0008 -0.1349  0.0080
76218W        W77082  18.580  27.347   4.034  0.2360 -0.1327 -0.1690
76219W        W77083   1.808   4.691   0.406 -0.1821  0.2403 -0.0472
76220W        W77084  10.426  15.389  16.228  0.0263 -0.1115 -0.0376
76221W        W77085  20.200  25.288  13.464  0.2228 -0.1087  0.1583
76222W        W77086  16.353  22.025  27.963  0.0845  0.1043  0.3987
76223W        W77087  13.421  18.930   1.882 -0.2224 -0.0479  0.3318
76224W        W77088  12.574   7.557   4.774  0.0054  0.0198  0.2595
76225W        W77089   5.168   2.854   3.309 -0.1108  0.2723  0.1451
76226W        W77090  10.556  12.060   2.133  0.1682  0.0644  0.0894
76227W        W77091  29.099   6.223  11.020  0.0464  0.0369 -0.1463
76228W        W77092  21.046  14.048  21.874  0.0517  0.3941  0.0078
76229W        W77093   3.242  18.145  17.797  0.0621  0.2752 -0.1083
76230W        W77094   9.691  20.895  11.837  0.0491 -0.0625 -0.0041
76231W        W77095   0.438  20.560   4.949  0.0945  0.1230  0.1778
76232W        W77096  10.979  19.272   0.105 -0.2130  0.0100 -0.3447
76233W        W77097  15.398   9.484  19.422  0.0787 -0.2456 -0.0508
76234W        W77098  25.735  21.235  12.368 -0.1322  0.0556 -0.0634
76235W        W77099   7.384   6.148  25.651 -0.1872 -0.2852  0.1423
76236W        W77100   3.148  18.095  27.958 -0.1374  0.2821  0.0773
76237W        W77101  23.401  23.529  16.981 -0.5328 -0.0668 -0.0479
76238W        W77102  10.452  26.099  17.805 -0.2275  0.0471  0.2529
76239W        W77103  25.236  21.785  17.124  0.1136 -0.2518 -0.4280
76240W        W77104  15.495   2.525  24.112  0.0521 -0.1695 -0.0627
76241W        W77105  20.067  18.458   7.606 -0.0648  0.0853 -0.1679
76242W        W77106   7.262  18.863  18.974  0.1601  0.1019  0.1542
76243W        W77107  24.744  18.402  12.721 -0.2337  0.1286  0.3888
76244W        W77108   8.726  11.420  21.918  0.2880  0.3496  0.0783
76245W        W77109  20.993  11.341  18.989 -0.2077 -0.2671  0.0796
76246W        W77110   7.410   2.363  22.852  0.1076 -0.0097 -0.4083
76247W        W77111   5.019  21.661  13.751 -0.2272  0.4213  0.1453
76248W        W77112   9.011   1.659  22.042 -0.3097 -0.2863 -0.0939
76249W        W77113   6.312   9.855  16.200  0.1024  0.2058 -0.2689
76250W        W77114  15.145   8.278   6.962  0.0379  0.1901  0.1514
76251W        W77115   6.339   8.933   6.324  0.0516 -0.1205 -0.0537
76252W        W77116  10.584  14.406  22.520 -0.0422  0.1300 -0.1543
76253W        W77117   5.190  23.324  26.869  0.2082 -0.0089 -0.3396
76254W        W77118   2.101  21.470   7.339 -0.1535  0.1580 -0.1208
76255W        W77119  13.646   7.171  18.005 -0.0659  0.1840 -0.2938
76256W        W77120  12.037  27.148   6.528  0.3062 -0.0298 -0.2347
76257W        W77121  19.346  20.558   9.762 -0.1161  0.0997  0.0106
76258W        W77122   4.365  28.812  26.573  0.1522  0.0215 -0.4500
76259W        W77123   6.120  19.778  11.504 -0.0609  0.0309  0.1625
76260W        W77124  21.707  12.878  10.726  0.0050  0.3449 -0.3009
76261W        W77125  25.883   6.011  11.746 -0.0578 -0.0041 -0.2760
76262W        W77126  28.282  25.746  14.735 -0.1968  0.1084  0.5613
76263W        W77127  19.951   7.264   6.785  0.0837  0.2298  0.1222
76264W        W77128   2.713  27.857  25.641 -0.1034 -0.1056 -0.0736
76265W        W77129  10.324  24.412   2.184 -0.0559 -0.1576  0.1040
76266W        W77130   6.034  28.005   5.937  0.1052 -0.0420 -0.1191
76267W        W77131   4.821  12.263  20.857 -0.1334 -0.2621  0.1097
76268W        W77132   9.701   0.175   2.152 -0.0898  0.1380 -0.0217
76269W        W77133  23.939  18.985  28.539 -0.2258 -0.0950 -0.0842
76270W        W77134   9.252  23.030   1.115 -0.1444 -0.0040 -0.0116
76271W        W77135  16.192   4.760  14.455  0.0983  0.0167  0.2621
76272W        W77136  16.192  28.267   8.648  0.1144  0.1098  0.0387
76273W        W77137  10.712  27.746  25.687  0.3005  0.0641 -0.0154
76274W        W77138  13.144  19.118   6.778  0.3814 -0.0625  0.3467
76275W        W77139   3.822  15.667  28.538  0.2043  0.1211  0.1478
76276W        W77140  25.500   6.504  24.604 -0.3451 -0.4336  0.0710
76277W        W77141   9.116  21.732  24.465  0.0761 -0.2427 -0.1886
76278W        W77142   9.229  25.538   1.272 -0.0253 -0.2077 -0.0155
76279W        W77143  21.437   5.288  28.363  0.2130 -0.1614  0.2212
76280W        W77144  11.384   1.832  18.516  0.5725  0.1660  0.1488
76281W        W77145  16.046  17.023  10.024 -0.1891  0.1719 -0.0746
76282W        W77146  23.342   3.521   4.547 -0.1730  0.0797 -0.0643
76283W        W77147   3.887   5.064   2.612  0.1471  0.2198  0.0991
76284W        W77148  14.400  14.512  22.761  0.0117 -0.0263 -0.1301
76285W        W77149  17.387  24.046  21.916  0.1692  0.1209  0.0326
76286W        W77150   8.647  25.212  10.217  0.1397  0.2257  0.2374
76287W        W77151  19.181  19.884  12.945 -0.0056 -0.1655  0.1920
76288W        W77152  28.519  17.251  16.684  0.0690 -0.1042  0.2487
76289W        W77153  25.220   5.361   6.421  0.1530 -0.1175  0.1679
76290W        W77154  19.125  12.444  14.306  0.1210  0.1614  0.0283
76291W        W77155   3.865  13.400  22.477 -0.1841  0.0782  0.0667
76292W        W77156   0.707  24.377  21.735  0.3940 -0.1427 -0.2222
76293W        W77157  12.738  12.440   4.974 -0.3848  0.3067  0.0792
76294W        W77158   9.235  27.081  14.950 -0.0076  0.0277 -0.0857
76295W        W77159  25.706   7.736  18.726  0.0714  0.1660  0.3688
76296W        W77160  16.959   5.913   1.608 -0.0411  0.0511 -0.1440
76297W        W77161  13.540  16.050  24.100 -0.1997  0.2923 -0.3194
76298W        W77162  11.698  16.764   4.571  0.0842 -0.1165 -0.1957
76299W        W77163  27.582  19.060   1.787  0.3068  0.0595 -0.2048
76300W        W77164  15.733   6.231  14.400  0.1220  0.1099  0.3589
76301W        W77165   6.507   1.258  20.501 -0.3159 -0.4174  0.0545
76302W        W77166   6.767  10.781  15.051  0.2124 -0.0858  0.3090
76303W        W77167  15.386  27.593   2.807  0.0730  0.1013  0.2621
76304W        W77168   9.815  20.907  20.697 -0.0366 -0.0417  0.1866
76305W        W77169  28.582  15.200  16.617  0.3232 -0.0370 -0.1567
76306W        W77170   8.753  24.108  24.616  0.1914  0.0512 -0.2503
76307W        W77171  10.268  18.722  17.283  0.2068  0.0970  0.2161
76308W        W77172  23.927  26.689  13.649  0.0649  0.1106  0.1307
76309W        W77173   6.503   4.904  21.170  0.0809  0.3883 -0.0836
76310W        W77174  13.358   2.102   0.220 -0.0470 -0.0773 -0.1166
76311W        W77175   3.447  16.525  13.713  0.0435 -0.4846 -0.2881
76312W        W77176   3.039   1.340  26.626  0.0569 -0.0172  0.0365
76313W        W77177   8.010   7.208  16.753 -0.2734  0.2809  0.0432
76314W        W77178  21.215   6.981  27.404 -0.0041  0.2104  0.0024
76315W        W77179   3.967   4.633  10.470  0.0867 -0.1625 -0.0888
76316W        W77180  23.204   3.882   3.049 -0.0553  0.0861 -0.1834
76317W        W77181   5.439   1.120   1.679 -0.1010  0.0052  0.0142
76318W        W77182  10.967  15.661   9.086 -0.0143 -0.1184 -0.0325
76319W        W77183  11.087   8.163  18.557  0.1367  0.0367 -0.0319
76320W        W77184  14.419  15.407  27.791 -0.0290 -0.1087 -0.3790
76321W        W77185  14.207  10.305  27.327  0.3864 -0.0218 -0.1263
76322W        W77186   3.464   0.779   7.247 -0.1823  0.3211  0.0531
76323W        W77187  17.595  25.244  28.816  0.0611 -0.1232 -0.1555
76324W        W77188   1.451  24.663   4.495 -0.1629 -0.0255  0.3016
76325W        W77189  11.767   2.387  13.488  0.1018  0.0168  0.1013
76326W        W77190  28.505  23.771  19.072  0.0531  0.0060 -0.0026
76327W        W77191  27.480   0.624  14.677  0.1666  0.0989  0.2862
76328W        W77192  19.508  16.604   0.778 -0.1423  0.1260  0.0836
76329W        W77193   7.065   3.109   3.337  0.0704 -0.2324  0.3380
76330W        W77194  20.919   4.519  19.080 -0.1523  0.1907 -0.1413
76331W        W77195   1.478  26.035  17.532 -0.1682  0.1041 -0.1222
76332W        W77196  10.116   6.858  14.934  0.4957  0.1814  0.3136
76333W        W77197   8.540   8.997  28.592 -0.0064 -0.1308 -0.0826
76334W        W77198  17.441  21.905  23.244  0.0393  0.0639 -0.0239
76335W        W77199  14.388  15.539  25.504 -0.1631  0.2188  0.2925
76336W        W77200  10.227   3.069  23.216 -0.1261  0.2191  0.2480
76337W        W77201  12.092  24.621  19.391  0.2996  0.1109 -0.0596
76338W        W77202  28.424  25.633  20.986  0.0302 -0.2716  0.1445
76339W        W77203   6.132  15.402  13.837 -0.1483 -0.0414 -0.3239
76340W        W77204  15.258   1.000  26.993  0.4329 -0.0340  0.1698
76341W        W77205  23.137  28.553  21.022  0.2085  0.1287  0.0345
76342W        W77206  11.576  23.275  20.208  0.0698 -0.1965 -0.3311
76343W        W77207  14.539  22.025  14.366 -0.1622  0.0754 -0.3378
76344W        W77208  14.655   5.379  22.199 -0.1608  0.0714 -0.4108
76345W        W77209  25.894  12.559   3.886  0.3846 -0.0600 -0.1446
76346W        W77210   5.955  26.030  17.139  0.1265 -0.0121 -0.0013
76347W        W77211  12.737  21.384  25.617  0.2559  0.2499 -0.1745
76348W        W77212  18.119  17.010   3.780 -0.2036  0.0668 -0.3465
76349W        W77213   6.475  25.615   8.658 -0.0145  0.0771 -0.1803
76350W        W77214   2.433  26.639  18.317  0.1935 -0.0481 -0.2684
76351W        W77215   2.116   2.734  23.159 -0.1867 -0.0057 -0.0230
76352W        W77216  26.364  10.186   5.488 -0.1776 -0.3074  0.1592
76353W        W77217  19.486  11.985  16.678  0.1347 -0.2098  0.1597
76354W        W77218   0.673   4.055   2.176  0.1785  0.2595 -0.0075
76355W        W77219  15.186  18.796  11.600 -0.2180 -0.1772 -0.0691
76356W        W77220   8.241  21.619  10.566  0.2438  0.0126 -0.2354
76357W        W77221   6.681  22.262  19.704 -0.0079 -0.1437  0.0247
76358W        W77222  22.385  28.107  24.397  0.0205 -0.0484 -0.0606
76359W        W77223  10.244   9.188  22.358 -0.1046 -0.0849 -0.0063
76360W        W77224   3.608   1.155  25.797 -0.1769 -0.0188  0.0398
76361W        W77225   3.396   5.715  11.966 -0.1664  0.0868  0.0469
76362W        W77226  18.288   9.634  21.927  0.2045  0.0377 -0.0569
76363W        W77227  15.677  17.243  10.990 -0.0629  0.0283 -0.1067
76364W        W77228   4.773  20.031   8.316  0.1200  0.0111  0.0680
76365W        W77229  19.066   5.067  20.085  0.0422  0.0350  0.0539
76366W        W77230   9.975   7.803  27.717  0.0343  0.3317  0.0825
76367W        W77231   5.773  21.553   0.649 -0.2317  0.2782  0.0170
76368W        W77232  14.213  20.069  24.456 -0.0902  0.0296  0.0702
76369W        W77233  21.661  23.728  17.124  0.0161  0.0649 -0.1744
76370W        W77234   5.599  20.978   3.964 -0.1746 -0.2216 -0.0673
76371W        W77235  14.363   3.854  11.483 -0.1497  0.0564 -0.3393
76372W        W77236  25.156  20.704  21.861 -0.0289  0.2821 -0.2748
76373W        W77237  19.896  18.138  12.779  0.2259  0.0169 -0.2417
76374W        W77238   1.241   1.169  10.867 -0.1523  0.1552 -0.1636
76375W        W77239  18.138  22.129  20.359  0.2264 -0.0500 -0.3439
76376W        W77240   4.676  14.342   6.497 -0.1420 -0.4176  0.0796
76377W        W77241  20.786  20.598  25.637 -0.0419 -0.2195 -0.0089
76378W        W77242   4.920  24.953  23.392 -0.1914  0.3345 -0.0019
76379W        W77243  24.964   1.554  18.735 -0.6350 -0.0250 -0.0057
76380W        W77244   2.472   6.349  22.835 -0.0416 -0.3385 -0.1196
76381W        W77245   6.318   9.706   3.898 -0.1877 -0.1021 -0.2757
76382W        W77246   7.334   9.355  11.981 -0.1454  0.3202  0.0141
76383W        W77247   0.923   2.785  22.174  0.0583  0.0090  0.0166
76384W        W77248   4.935  19.211  27.107 -0.0336 -0.0086 -0.1150
76385W        W77249   7.310   3.556  16.406 -0.2628 -0.0223  0.1396
76386W        W77250  25.511   5.743  16.549 -0.1276  0.0187 -0.0581
76387W        W77251  11.231   4.115  21.906 -0.1770 -0.0092  0.0043
76388W        W77252   7.351  11.043   5.772 -0.0159  0.3089  0.0449
76389W        W77253   6.912   0.134  26.034  0.0380 -0.2408  0.0670
76390W        W77254  10.455  18.694  23.216  0.0173 -0.0474  0.0329
76391W        W77255  16.177  21.512  23.410 -0.2953  0.2037  0.2837
76392W        W77256   9.593   3.979  28.805 -0.1397  0.0387 -0.3705
76393W        W77257   0.706  22.872   8.045 -0.1619 -0.3036 -0.0383
76394W        W77258  19.353  25.811  22.103 -0.0759  0.2628 -0.1973
76395W        W77259  15.920   8.390   9.389 -0.1146 -0.1997 -0.2504
76396W        W77260  13.746  25.722  17.555 -0.0091 -0.3685 -0.1272
76397W        W77261  28.722  14.224  15.156 -0.1237 -0.1865 -0.3573
76398W        W77262  11.795  24.881  20.604  0.0988  0.1162  0.1478
76399W        W77263  10.309  17.236  20.865 -0.1710 -0.0448 -0.1134
76400W        W77264  14.724  10.120   9.504 -0.2583  0.3839  0.0735
76401W        W77265   4.898  22.591  21.484 -0.0112 -0.1303  0.2003
76402W        W77266  21.983   3.939  25.152 -0.1302 -0.2997 -0.0903
76403W        W77267   7.786   8.327   3.609  0.0058 -0.1077 -0.0360
76404W        W77268   6.575  15.190  16.742  0.6562 -0.3237 -0.2833
76405W        W77269  12.990  19.823  11.793  0.0336  0.2817  0.1496
76406W        W77270  18.634   3.466   0.184  0.1314  0.0790 -0.0168
76407W        W77271  19.026   4.712  28.259  0.2166 -0.0084  0.1764
76408W        W77272  11.825  27.857  13.570  0.1498 -0.1600  0.0303
76409W        W77273   2.882   2.578  21.745  0.0185 -0.0085 -0.2210
76410W        W77274  11.136  11.865  22.868 -0.1450 -0.0782  0.1282
76411W        W77275   5.816  17.382   9.614 -0.1248 -0.2174  0.0922
76412W        W77276   0.867  26.276  19.884  0.1469 -0.3437 -0.2693
76413W        W77277   9.571   5.895   9.121  0.2479  0.1155  0.0168
76414W        W77278  28.028  14.233   0.231  0.0117  0.0889  0.1269
76415W        W77279  13.909  16.145   6.858  0.2376 -0.3858  0.3530
76416W        W77280  14.450  25.320  24.640  0.0089  0.0907 -0.0833
76417W        W77281  11.067  28.234  15.059  0.1991  0.1747  0.0612
76418W        W77282  12.420  15.056   9.775  0.1167  0.0735  0.0484
76419W        W77283   4.126   8.919   9.219  0.0617 -0.1242  0.0317
76420W        W77284   9.837  11.918   8.096 -0.0248 -0.0278 -0.0617
76421W        W77285  15.811  10.557  14.862  0.1910  0.0510  0.1096
76422W        W77286   9.749  27.932   1.824 -0.1865  0.0112  0.0054
76423W        W77287   1.533  12.346  25.703  0.4702 -0.2720  0.0976
76424W        W77288  29.007   7.941  19.255  0.2359  0.0631  0.1242
76425W        W77289  10.517   7.601   2.410 -0.1760 -0.2526  0.0787
76426W        W77290  10.316  21.711  21.088 -0.3506 -0.1579 -0.2532
76427W        W77291  12.532  18.457   6.896  0.0804 -0.0105 -0.1210
76428W        W77292  12.625  12.656  22.466  0.1399 -0.0762 -0.3262
76429W        W77293  13.955  10.719  17.317 -0.0409 -0.3582  0.3899
76430W        W77294  11.417   6.763   2.171 -0.1894  0.1090 -0.1294
76431W        W77295  13.946  25.227   6.438  0.1893 -0.0717  0.1003
76432W        W77296  25.315  24.334  16.563  0.1937  0.1315 -0.1359
76433W        W77297   8.989  14.816  21.448  0.1128  0.0335  0.1473
76434W        W77298  22.950   5.204   8.294  0.2331  0.1033 -0.2093
76435W        W77299  28.162  26.409  19.537 -0.1600 -0.1762  0.0190
76436W        W77300  13.971  24.248   5.632  0.3301 -0.0400  0.1270
76437W        W77301  24.816  10.626  18.999 -0.0027  0.2257 -0.0264
76438W        W77302  23.035   3.304  12.894  0.0448  0.0168  0.1270
76439W        W77303  26.591   7.889  27.344  0.0036  0.1083 -0.2068
76440W        W77304  24.504  13.908  17.813 -0.0332  0.1059 -0.2484
76441W        W77305  12.589   5.165   1.768 -0.0837  0.0906 -0.1041
76442W        W77306   8.239   9.175  24.685 -0.3406  0.1790 -0.1679
76443W        W77307  23.488   0.433   7.288  0.1282 -0.0847 -0.0919
76444W        W77308   7.936  28.570   6.190 -0.2860  0.0849 -0.1538
76445W        W77309   2.815  10.203  16.671 -0.2457  0.2146 -0.2167
76446W        W77310  25.929  20.393  11.751  0.1497  0.2786 -0.2833
76447W        W77311  12.754   7.161   1.678 -0.0568  0.2539 -0.1819
76448W        W77312  11.344   7.613  17.735 -0.5614  0.2343 -0.1010
76449W        W77313  14.198   2.993   2.837  0.1343 -0.1202 -0.0094
76450W        W77314  25.974  11.849  15.481 -0.3361  0.0523  0.3141
76451W        W77315  22.439   1.299   2.847 -0.0734  0.0303 -0.1501
76452W        W77316  10.207  25.811   1.108  0.0855  0.0893 -0.2862
76453W        W77317  28.471  25.467  22.494  0.0433  0.0594 -0.1469
76454W        W77318  21.517  23.460   7.718 -0.2267  0.1709  0.1093
76455W        W77319   6.264  22.748  22.665  0.0621 -0.1316  0.1086
76456W        W77320  23.020  23.894  21.489  0.2298 -0.1390 -0.2169
76457W        W77321  26.280   2.635  10.625 -0.1570  0.0659 -0.0796
76458W        W77322   7.003  15.524   5.060  0.0350  0.3402 -0.1425
76459W        W77323  14.615   9.136  19.064  0.1467  0.0113  0.1050
76460W        W77324  15.029   1.158  13.970  0.0159 -0.0592  0.0248
76461W        W77325  11.806   1.802   1.880  0.1345 -0.3051 -0.0396
76462W        W77326  24.256   9.944   4.001 -0.0761 -0.1467 -0.4349
76463W        W77327  12.206  14.219  14.102 -0.2957  0.1669 -0.1088
76464W        W77328  28.263   0.223  10.413  0.4066  0.0509  0.3434
76465W        W77329   9.373  23.390   3.841  0.2615  0.2652 -0.0497
76466W        W77330  13.603   2.185   4.215 -0.0289  0.0581 -0.4198
76467W        W77331  16.810   8.093   8.765 -0.0061  0.0247  0.1832
76468W        W77332  27.064  24.826   0.420  0.0750 -0.0072 -0.1856
76469W        W77333   5.363  13.747  19.784  0.2953 -0.1763 -0.4205
76470W        W77334   5.266   2.194   0.508  0.2199  0.3438 -0.1721
76471W        W77335   8.294  17.687  21.814  0.0026  0.1704  0.0348
76472W        W77336  12.490  10.689  28.902 -0.0020  0.0624 -0.0189
76473W        W77337   1.442  12.598  15.556  0.1326  0.3197 -0.0488
76474W        W77338  15.514   3.634   0.882  0.1944 -0.1818  0.0482
76475W        W77339   6.491  12.977  20.586  0.2116 -0.0663  0.0619
76476W        W77340  14.922   6.404  13.232  0.1406 -0.2720  0.3547
76477W        W77341  15.675   0.079  18.234 -0.1274 -0.1326  0.0087
76478W        W77342  18.681  19.426  20.523 -0.0463 -0.1212  0.1215
76479W        W77343   9.964   0.359  27.837  0.4202 -0.2563 -0.0915
76480W        W77344  21.835   9.468  18.736  0.3926 -0.2686 -0.0602
76481W        W77345  23.522   7.657  20.343 -0.2496  0.0743 -0.1024
76482W        W77346  12.318  10.686  24.558  0.0643  0.1716  0.2428
76483W        W77347   0.011  17.673  14.193 -0.1039 -0.0806  0.0739
76484W        W77348   0.096   6.159  22.403 -0.1170  0.1484 -0.2903
76485W        W77349  27.172   2.413  22.981 -0.1476 -0.0300  0.0254
76486W        W77350  16.612   3.736  21.318  0.0609 -0.0079 -0.2938
76487W        W77351  14.740  28.935  24.897  0.1964 -0.0982  0.0079
76488W        W77352  27.714   4.190  27.398 -0.1668 -0.1450 -0.2290
76489W        W77353  11.642  14.849  23.761  0.2377 -0.0914  0.0238
76490W        W77354   8.826   6.548  28.565 -0.3318  0.1958  0.2112
76491W        W77355  11.279   1.280  16.669 -0.1554 -0.2902 -0.0090
76492W        W77356  13.330   8.400  18.709  0.0660 -0.0702 -0.1225
76493W        W77357   1.269  10.340   2.456 -0.1727 -0.0271  0.1927
76494W        W77358  22.172   5.731   2.069 -0.2789 -0.0339  0.0754
76495W        W77359   7.000  28.947   8.153  0.0163  0.1468 -0.1584
76496W        W77360   1.857   7.496  27.549  0.4446 -0.1898 -0.0299
76497W        W77361  11.345  27.016  10.150  0.0791 -0.2868 -0.1715
76498W        W77362   7.603   0.124  28.697  0.0329 -0.0213  0.1580
76499W        W77363  21.284  12.519  22.079  0.1021  0.1373  0.0954
76500W        W77364   9.104  19.030  20.312 -0.4561 -0.2316 -0.0856
76501W        W77365  25.664  10.673   1.831 -0.1123  0.0497 -0.0457
76502W        W77366  23.728  27.785  12.632 -0.0931 -0.2614  0.3705
76503W        W77367  28.379  19.254  27.108 -0.3879 -0.0986  0.2469
76504W        W77368   9.113  27.508   9.845 -0.1746  0.1787 -0.0340
76505W        W77369   9.777  20.255   4.095  0.2135  0.0922 -0.0477
76506W        W77370  22.105  26.708  18.814  0.2135  0.2323 -0.1681
76507W        W77371  10.061  19.378  13.967  0.1161 -0.2898 -0.2331
76508W        W77372   8.723  26.496  18.994 -0.0697 -0.2016 -0.0297
76509W        W77373   8.406  28.234  21.590 -0.4167 -0.0412 -0.4531
76510W        W77374  28.663   1.036  23.763  0.1309 -0.0785  0.2019
76511W        W77375  29.131  14.290  21.189  0.3390 -0.0734  0.1121
76512W        W77376  10.908  22.149  23.653  0.1171  0.0436 -0.0392
76513W        W77377  13.121  22.950   9.502  0.0090 -0.4770 -0.2812
76514W        W77378   4.455   5.497  12.703 -0.0552 -0.0370 -0.3161
76515W        W77379  15.835  26.278   7.780 -0.0132 -0.4183 -0.2719
76516W        W77380   2.614  23.542   5.707 -0.3403  0.1574  0.0193
76517W        W77381  12.587  12.832   9.486 -0.3468  0.2491 -0.0081
76518W        W77382  21.714  21.149  22.758 -0.0416  0.0336  0.1458
76519W        W77383  28.771  11.866   3.916  0.0581  0.0729 -0.1374
76520W        W77384   3.353  25.182  20.314  0.1117  0.0763 -0.1112
76521W        W77385   8.481  10.768  28.210 -0.1518 -0.0458  0.1747
76522W        W77386   7.915  22.534   2.482 -0.2788 -0.2629  0.0824
76523W        W77387   9.481  24.828   3.654 -0.0627  0.2835 -0.0042
76524W        W77388   3.543  19.037  16.074  0.2954  0.1223 -0.1074
76525W        W77389  22.765  20.458  11.680 -0.0629 -0.1994  0.1285
76526W        W77390   7.659   0.391   1.006 -0.0169  0.1771 -0.1266
76527W        W77391   4.751  16.463   7.121  0.3399  0.1811  0.1649
76528W        W77392   4.974   7.193   9.132 -0.1610  0.0509 -0.0402
76529W        W77393   8.749  25.737   2.918 -0.0131  0.0666  0.1825
76530W        W77394   7.855  25.614   1.669  0.0091  0.2141  0.0067
76531W        W77395   0.889  20.065  26.159  0.0251 -0.1960 -0.0553
76532W        W77396  24.849  27.927  22.826 -0.1226  0.3828 -0.0232
76533W        W77397  13.794  23.947   7.119  0.0780  0.0872  0.1526
76534W        W77398   3.188  22.219  18.353  0.0382 -0.1974 -0.2185
76535W        W77399   1.035  13.897   2.408 -0.1345  0.1809 -0.0477
76536W        W77400  17.887  21.788  19.766  0.4104 -0.1756 -0.1432
76537W        W77401   0.096   4.146   4.029 -0.0371 -0.1199  0.0631
76538W        W77402  19.047  23.247  27.613 -0.3187  0.2665  0.0527
76539W        W77403  20.283  25.175   4.907 -0.0002  0.1428 -0.0829
76540W        W77404   8.562  23.891   5.929 -0.1623  0.0899 -0.0839
76541W        W77405  11.094  18.888  27.459 -0.2189  0.1215 -0.1976
76542W        W77406  21.648   3.375  17.462 -0.0151  0.1456 -0.2071
76543W        W77407   2.398   4.199  23.448 -0.0489 -0.0469  0.2415
76544W        W77408  13.335   1.518  28.637 -0.2336 -0.1054 -0.1960
76545W        W77409  16.773   2.368   0.892 -0.0486  0.2164  0.0582
76546W        W77410   2.900   5.475  19.811  0.0705 -0.0601  0.2621
76547W        W77411  11.630  22.869  13.955  0.1638 -0.1238  0.3901
76548W        W77412   7.923   4.689  14.499 -0.3279 -0.2470 -0.2669
76549W        W77413  15.987   4.508  29.144 -0.1458 -0.0242 -0.1245
76550W        W77414   6.690  26.912  16.703  0.0604  0.0403  0.3156
76551W        W77415  12.472  28.457   6.901  0.1156  0.0707  0.3526
76552W        W77416   9.983  17.540  12.744 -0.1851 -0.4184  0.0878
76553W        W77417  17.802  26.757   5.319 -0.0161 -0.1093  0.1214
76554W        W77418   5.721  18.907  20.950  0.0474  0.0205 -0.0118
76555W        W77419  17.573   1.041   6.868  0.0200  0.1855 -0.1318
76556W        W77420   7.108  17.963   7.486 -0.2505  0.0579 -0.3383
76557W        W77421   0.766  26.184  20.788 -0.1501  0.1591  0.2494
76558W        W77422  15.927  15.663   6.496  0.1429 -0.1755  0.2106
76559W        W77423  14.877  22.470   0.909  0.0207 -0.0636 -0.0183
76560W        W77424  27.319  22.070  11.356 -0.1795 -0.0893  0.0599
76561W        W77425   9.255  27.150   0.838 -0.0882  0.0070  0.0113
76562W        W77426  23.564  16.025   0.283 -0.0645  0.3544  0.0058
76563W        W77427   5.969   1.381  23.513 -0.1774  0.0884  0.1854
76564W        W77428   8.746   2.145  27.569 -0.1933  0.3261  0.1038
76565W        W77429  20.525  27.860   1.025  0.2896  0.0383 -0.0268
76566W        W77430   4.342  13.477  13.457 -0.1402 -0.0070 -0.0767
76567W        W77431  14.972  12.498   1.127 -0.2953 -0.2028  0.0460
76568W        W77432  16.392   3.691   2.413  0.0126  0.2250  0.0235
76569W        W77433   9.354   3.316   2.037 -0.4163  0.1697  0.3639
76570W        W77434  10.635  21.464  27.632 -0.0547  0.0454  0.2192
76571W        W77435  27.920  16.893  18.408  0.1289  0.0807  0.0173
76572W        W77436  17.186  17.408  19.345  0.1134  0.2492  0.1651
76573W        W77437  21.286  24.819   3.819  0.1502  0.2550 -0.0235
76574W        W77438   7.925   3.518  15.899 -0.0657  0.1548  0.0861
76575W        W77439  17.994   4.456  28.511 -0.0730 -0.1024 -0.2327
76576W        W77440   5.074  23.596  18.861  0.1476  0.2182 -0.4710
76577W        W77441  22.123  19.913  11.106 -0.1240 -0.1866 -0.0464
76578W        W77442  16.485  24.537   4.827 -0.3574 -0.1628  0.2192
76579W        W77443   5.539   0.381   9.826 -0.2385  0.2005  0.3494
76580W        W77444   4.818  16.976  17.699  0.2375  0.1507 -0.0513
76581W        W77445   7.445  28.363  28.645 -0.1529 -0.0824  0.1263
76582W        W77446  27.708   3.707  27.609 -0.0560 -0.1294  0.2698
76583W        W77447  21.067  14.684   2.392 -0.4267 -0.2745 -0.2312
76584W        W77448   5.420  19.104   3.595 -0.0219 -0.3261  0.0617
76585W        W77449  25.715  28.559  25.859 -0.1635 -0.1444  0.0046
76586W        W77450   1.339   5.848  19.993  0.3431  0.1777 -0.0074
76587W        W77451  27.124   7.932   1.561  0.0464  0.1644  0.2835
76588W        W77452   7.958  23.129  27.002 -0.0158  0.1017  0.0639
76589W        W77453   7.956   6.875  25.666  0.3017 -0.1264  0.0910
76590W        W77454   0.269  18.914  10.335  0.3779 -0.2163  0.3385
76591W        W77455   7.140  24.029  24.765 -0.1936 -0.0666 -0.0080
76592W        W77456   4.867  17.116  25.208  0.2285 -0.0460 -0.0582
76593W        W77457   3.947  25.734   7.965 -0.1710  0.0269 -0.1532
76594W        W77458   6.630  21.708  17.314  0.2187  0.1372  0.1631
76595W        W77459   7.778   5.513   8.251 -0.1604  0.1136  0.0532
76596W        W77460  18.381   4.515   5.363  0.1783  0.0703 -0.0439
76597W        W77461  18.532  13.206   6.380 -0.0350 -0.0806 -0.1755
76598W        W77462  18.817  23.363  28.661  0.0032 -0.3064  0.0214
76599W        W77463   4.736   9.335  26.108  0.0690  0.3851  0.0737
76600W        W77464   5.999  28.682  22.821 -0.1008 -0.1062  0.0655
76601W        W77465   5.102  19.396  18.428 -0.1964 -0.2697 -0.0256
76602W        W77466  12.188   4.189  27.873  0.3163 -0.0924 -0.0669
76603W        W77467  13.132  12.389   4.589  0.3714 -0.2075  0.1000
76604W        W77468  17.359  19.561   5.002 -0.1618 -0.0635  0.0870
76605W        W77469  13.309  20.312  12.325  0.3998  0.3530 -0.0660
76606W        W77470  28.664   5.463  22.531  0.0358 -0.0118  0.0865
76607W        W77471  11.171  18.242  12.776  0.1696 -0.0357  0.1884
76608W        W77472  15.650   5.484   5.121  0.2166 -0.0366  0.1930
76609W        W77473  24.936  18.821  21.095  0.1989 -0.0500  0.2547
76610W        W77474  20.576  20.664  15.755 -0.0668  0.2484  0.1248
76611W        W77475   5.703   3.321  19.607 -0.1718 -0.1032  0.1192
76612W        W77476  25.311   9.146  15.597 -0.2093 -0.4817  0.1783
76613W        W77477   3.180  16.900  12.613 -0.1020 -0.2148 -0.2965
76614W        W77478   4.011   4.426  18.492  0.3384 -0.1888 -0.1301
76615W        W77479  26.229  12.155  23.857  0.1929 -0.1272 -0.0229
76616W        W77480  10.528  18.037  17.330  0.2846  0.2038  0.0809
76617W        W77481  13.026  12.972   3.509  0.0018 -0.2325 -0.2406
76618W        W77482   3.928  11.943  22.780  0.1173  0.2998 -0.0394
76619W        W77483   2.923  25.805   3.757 -0.0954 -0.1604 -0.0691
76620W        W77484  12.223  15.171  28.044 -0.0486  0.3051  0.1452
76621W        W77485  21.513   4.519   8.253  0.4568  0.2623  0.2234
76622W        W77486  28.634   5.778   1.141 -0.0703 -0.2015 -0.1689
76623W        W77487   9.029  22.555  16.794 -0.0100  0.0579  0.1734
76624W        W77488  24.055  19.257  16.433 -0.0455  0.1825  0.2431
76625W        W77489  25.363   8.391  15.723 -0.0400  0.1763 -0.0562
76626W        W77490  17.695  27.519   4.852 -0.0339  0.0431 -0.1620
76627W        W77491   7.114  12.220   9.039 -0.1959 -0.1568 -0.2796
76628W        W77492  10.080  18.824  18.868 -0.0165 -0.1929 -0.0138
76629W        W77493  21.096  18.628  18.490  0.0980  0.0634  0.2464
76630W        W77494  22.856  14.089   8.255 -0.0775 -0.3017  0.3485
76631W        W77495  25.633  20.452  28.378 -0.1594  0.1145 -0.0311
76632W        W77496  22.831  17.963  22.154  0.0089  0.3728 -0.1253
76633W        W77497  27.927  18.250  16.751  0.0432  0.1393  0.0227
76634W        W77498   1.872  12.800  12.229 -0.0777 -0.0085 -0.0808
76635W        W77499   9.994   5.714  24.203  0.0055 -0.1139 -0.0924
76636W        W77500   5.225  27.504  26.766 -0.1768 -0.1419  0.0639
76637W        W77501  17.651   1.469   7.607  0.0867  0.0260  0.1166
76638W        W77502  25.383  26.758   1.585  0.0550  0.1532 -0.0764
76639W        W77503   4.741  24.296  16.388 -0.0421  0.1657 -0.0088
76640W        W77504  13.557   3.065  27.627 -0.0453  0.2896 -0.0972
76641W        W77505   2.622   1.212   6.078 -0.5088 -0.3777  0.0312
76642W        W77506  27.669   5.351   5.514  0.1581  0.1171 -0.1779
76643W        W77507   7.723   1.131  14.738 -0.0764  0.1755  0.0869
76644W        W77508  14.912   0.167  26.065 -0.1818 -0.2706  0.0704
76645W        W77509  28.673  23.847  23.028 -0.0610  0.2681  0.1289
76646W        W77510   0.379  24.551  19.110  0.0082 -0.1156 -0.0201
76647W        W77511   2.224  26.486   0.659  0.0023  0.1475  0.2083
76648W        W77512  28.343  27.996   3.937  0.1082 -0.0035 -0.0239
76649W        W77513  11.269   1.012   0.984 -0.0429 -0.1099  0.3305
76650W        W77514  10.707   3.462  10.419 -0.2811 -0.0527  0.1345
76651W        W77515   6.235  21.976  17.149  0.4047 -0.1622 -0.2195
76652W        W77516   6.225  11.447  12.265  0.0513 -0.1766  0.0076
76653W        W77517   7.670  17.289  16.206  0.1821 -0.1941 -0.1189
76654W        W77518  23.222   8.102   0.259  0.2386  0.1475 -0.1041
76655W        W77519  25.427  24.584  27.719  0.4045 -0.0460 -0.1011
76656W        W77520  10.485  28.887  16.953 -0.0162 -0.0875 -0.2210
76657W        W77521  12.454   0.458  17.281  0.0859  0.0647  0.2174
76658W        W77522  18.810  20.557   7.630 -0.0258  0.2409  0.0507
76659W        W77523   1.330  25.879  27.390  0.3306  0.0109 -0.0384
76660W        W77524  26.079   3.174  22.975  0.1806  0.1682  0.5025
76661W        W77525  22.442  14.717  18.058 -0.2080 -0.1907 -0.1737
76662W        W77526   8.348  26.349  16.329 -0.1091 -0.0063  0.1848
76663W        W77527   2.071  25.009   1.600 -0.2887 -0.0630  0.0917
76664W        W77528  15.020   6.695  23.494  0.0264 -0.1023  0.0466
76665W        W77529  22.028  17.832  19.519  0.0745 -0.0938 -0.2368
76666W        W77530  24.197  28.523  13.710 -0.0692  0.2015 -0.1806
76667W        W77531  25.099  20.402  10.105 -0.0257  0.1904  0.0594
76668W        W77532   0.279   2.691  20.445  0.1040 -0.0341  0.0864
76669W        W77533   7.949   6.355  10.939 -0.0616  0.0091  0.2619
76670W        W77534  18.318   5.060  21.170 -0.0375  0.1229 -0.1180
76671W        W77535  18.039   6.311   1.902 -0.3309 -0.1688 -0.0024
76672W        W77536   3.615  26.792  22.409  0.1560 -0.0575 -0.3249
76673W        W77537  19.498   3.638  15.704  0.0562 -0.1748  0.2783
76674W        W77538  18.562  26.591   2.367 -0.1022  0.3959 -0.1670
76675W        W77539  25.124  25.482   9.785  0.0900  0.2995 -0.0975
76676W        W77540   1.314  18.744  20.854  0.3738 -0.1672 -0.5998
76677W        W77541  20.904   2.398  19.410  0.1008  0.3240  0.0933
76678W        W77542   2.974  25.244  22.595 -0.2508  0.0597  0.1805
76679W        W77543  27.198  28.314  28.988 -0.1042 -0.0298 -0.0250
76680W        W77544  27.833   6.281  27.782 -0.0897  0.0288 -0.4334
76681W        W77545  10.678  26.608  13.678 -0.2981 -0.3019 -0.1096
76682W        W77546   5.816   7.014  12.310 -0.0249 -0.2093 -0.3018
76683W        W77547  25.371   4.607  20.066  0.0365  0.1536  0.0100
76684W        W77548   0.908  12.631   8.853 -0.1573 -0.2299 -0.1462
76685W        W77549  10.457  26.805  21.559  0.1447  0.0328 -0.0071
76686W        W77550   7.344  25.732  18.128  0.0020  0.0132 -0.0523
76687W        W77551  26.687  21.166   9.430  0.0605 -0.2300 -0.2209
76688W        W77552  15.901  24.113  15.302  0.1403 -0.0893 -0.0062
76689W        W77553  15.551  16.027  28.180  0.4192  0.0664 -0.1596
76690W        W77554  11.785  22.090  26.038 -0.0996  0.0990  0.1425
76691W        W77555   9.626  14.997  27.699  0.0345 -0.0638 -0.0401
76692W        W77556   4.227  11.283   8.917 -0.2277  0.2783  0.1061
76693W        W77557  18.586   3.190   7.914  0.1265  0.0108 -0.2041
76694W        W77558  25.012   7.094   4.484 -0.0066 -0.2540  0.1381
76695W        W77559   9.544   4.426  12.293 -0.2022 -0.0253  0.4652
76696W        W77560   6.311   1.411  16.691 -0.0341 -0.1334 -0.2765
76697W        W77561  13.569  24.343   3.261  0.5203  0.1197  0.1619
76698W        W77562   0.029  11.407  17.512 -0.0037 -0.2021 -0.1349
76699W        W77563  18.650  13.806   1.449 -0.3014  0.0050  0.1401
76700W        W77564  16.865  27.296  25.058 -0.2017 -0.2932  0.1232
76701W        W77565   2.037  24.091  20.384  0.0272  0.1152  0.0775
76702W        W77566   5.235   3.602  25.250 -0.1606  0.0862 -0.1799
76703W        W77567  17.074  22.359  23.985  0.0377 -0.0491  0.1451
76704W        W77568   2.218   3.726  17.524 -0.0281  0.0710  0.0812
76705W        W77569   5.138  25.768  28.890 -0.0150  0.2284 -0.2235
76706W        W77570  17.444   2.968   6.783  0.0063  0.0126  0.2064
76707W        W77571   3.880  23.734  23.077 -0.1108 -0.1080  0.0018
76708W        W77572   8.348   5.927  19.455  0.1792  0.0567 -0.3039
76709W        W77573   2.721  19.616   5.203  0.3482  0.2553  0.2292
76710W        W77574   8.704   1.794  25.011 -0.1411 -0.1382 -0.0001
76711W        W77575  14.811  14.981   1.887 -0.1512  0.1999  0.0957
76712W        W77576   6.199  11.473   4.449 -0.2559 -0.0071 -0.1650
76713W        W77577  16.461   0.363  27.028  0.1856  0.3178 -0.1041
76714W        W77578  19.029  12.791  20.650  0.0937 -0.0554  0.0315
76715W        W77579  14.946   1.138  11.109 -0.1767 -0.0074  0.0157
76716W        W77580  17.387   6.299  28.551 -0.3006 -0.1442 -0.2605
76717W        W77581  12.611   2.896  13.697 -0.1947  0.0180 -0.0651
76718W        W77582   6.171  27.512   3.260 -0.0313 -0.2677  0.0025
76719W        W77583   7.007  28.008  26.942  0.1695  0.0690  0.2293
76720W        W77584   3.863  25.597   3.069  0.1536  0.1175 -0.1631
76721W        W77585   7.891   0.325  17.141 -0.1305  0.0967  0.2237
76722W        W77586  27.292   0.438   1.712  0.2220 -0.1656 -0.2125
76723W        W77587   8.527  24.889   0.042  0.1292  0.1046 -0.0885
76724W        W77588   5.926  20.449   3.632 -0.1014 -0.0594  0.3124
76725W        W77589  22.693   1.371   0.892  0.0103  0.0109  0.1422
76726W        W77590  23.124  14.575   1.411  0.0129 -0.1571 -0.1250
76727W        W77591   8.423  19.217   1.311  0.0373 -0.1409  0.3800
76728W        W77592  18.639   9.641   8.464 -0.2056 -0.0602 -0.1979
76729W        W77593   9.093  22.870  20.131 -0.2983 -0.3039  0.3209
76730W        W77594  14.329  22.382  24.546 -0.1901 -0.0453  0.0247
76731W        W77595   3.327  27.181   2.421  0.2520 -0.1928  0.0482
76732W        W77596   4.455  28.443   7.236 -0.0611  0.0798 -0.0192
76733W        W77597   3.322   2.078   0.419 -0.2516 -0.1407 -0.0871
76734W        W77598  14.389   3.895   4.829 -0.0016 -0.0022 -0.4324
76735W        W77599  13.666  22.932  26.339  0.0273 -0.2715  0.0184
76736W        W77600  21.678  25.308   8.796 -0.0775  0.1608  0.2100
76737W        W77601  16.177  10.244  26.544  0.2398  0.2133 -0.2291
76738W        W77602  12.013  17.447  12.242 -0.3930 -0.2891 -0.1718
76739W        W77603   4.397  25.518   0.216 -0.0122  0.1650  0.4142
76740W        W77604   7.158   9.841   2.707 -0.0560 -0.1998 -0.1100
76741W        W77605  22.876  20.040  22.428  0.1810  0.1946  0.3267
76742W        W77606   0.925   2.431  18.479  0.1484 -0.1817 -0.1613
76743W        W77607   8.489  28.599  17.987 -0.2195  0.4602 -0.1545
76744W        W77608  22.249   2.169  20.890 -0.1294 -0.0951  0.0754
76745W        W77609  21.656  25.356  16.988 -0.0745 -0.1667 -0.2207
76746W        W77610   8.679   9.069  25.957  0.2135 -0.1300 -0.0414
76747W        W77611   9.694  17.200   7.955 -0.0109  0.0211  0.0011
76748W        W77612  11.700  10.403  15.421  0.2948  0.2029  0.1045
76749W        W77613  19.815   8.295  22.093  0.3903  0.2008 -0.0978
76750W        W77614   8.079   3.011  16.596 -0.0207  0.0131 -0.1598
76751W        W77615  24.720   0.200  13.376  0.1211  0.0960 -0.0970
76752W        W77616  20.406  17.550   7.526  0.0430 -0.1398  0.3411
76753W        W77617   3.285  18.593  10.019 -0.0706 -0.1491  0.2205
76754W        W77618   1.280   6.654   7.910  0.1624  0.2433 -0.0210
76755W        W77619   2.063  28.440  21.009  0.0735 -0.1723  0.2982
76756W        W77620   2.057   3.497  21.964  0.0627  0.0782  0.1614
76757W        W77621  12.537  12.359  24.580  0.0868 -0.1618 -0.3449
76758W        W77622  10.994  23.438   6.005  0.0988  0.0840 -0.1746
76759W        W77623   3.350  25.764   9.655 -0.0631 -0.1180  0.2402
76760W        W77624   3.409  18.527  20.717  0.0318 -0.2695  0.1198
76761W        W77625  15.947  27.955  10.944  0.0416 -0.1351 -0.0955
76762W        W77626  13.546  25.293  24.283  0.2566  0.0454 -0.1357
76763W        W77627  26.971  10.364  10.057 -0.0201 -0.1245  0.0443
76764W        W77628  17.343   0.844   1.727 -0.3695 -0.0496 -0.2058
76765W        W77629  20.088   1.433   7.105 -0.1487 -0.2407 -0.1147
76766W        W77630   9.983  27.586   6.296  0.0070  0.1921 -0.1879
76767W        W77631   3.508   7.189  21.828 -0.0119  0.0958 -0.0740
76768W        W77632   9.401  11.475  20.212 -0.1552  0.0139  0.1341
76769W        W77633  11.476  28.908  22.828  0.1713 -0.1228 -0.2502
76770W        W77634   4.460  20.354  26.212  0.2355 -0.0538 -0.0232
76771W        W77635  12.863  28.620   3.491  0.1669  0.0012 -0.0114
76772W        W77636  12.756  27.535   4.690 -0.2709 -0.2621 -0.1217
76773W        W77637  17.090   6.107  27.056 -0.1521  0.0537  0.0066
76774W        W77638   2.462  20.034  20.860 -0.1249  0.0524 -0.0177
76775W        W77639  15.126   7.786  24.835 -0.2630  0.3687 -0.2504
76776W        W77640  20.765   2.674  27.058 -0.0808 -0.0582 -0.3337
76777W        W77641   9.246  12.862  14.342 -0.0014  0.2992  0.0259
76778W        W77642  28.884   1.355  19.017 -0.1627  0.1403  0.2291
76779W        W77643  15.013   9.309  20.250  0.0710  0.0684  0.2017
76780W        W77644   1.099  15.044  28.524 -0.3715 -0.1099 -0.2854
76781W        W77645  10.316  22.799  26.289  0.0491  0.1336  0.2246
76782W        W77646  25.234  10.433   0.668 -0.1659  0.1330 -0.2735
76783W        W77647  12.865  11.022   4.431 -0.0203  0.0077 -0.4354
76784W        W77648  13.631  10.423  12.108 -0.0928 -0.1834  0.3985
76785W        W77649  18.967  18.064  18.125 -0.0445 -0.0988 -0.1539
76786W        W77650   2.825  13.248   6.197  0.0197 -0.0460 -0.0153
76787W        W77651  17.836   8.023   0.549 -0.1240  0.1808 -0.3194
76788W        W77652  26.016  28.313   3.246 -0.0673 -0.2193 -0.2934
76789W        W77653   5.521   1.350  16.820  0.0269 -0.2531  0.0708
76790W        W77654   1.934   5.989   3.373  0.1158 -0.0388  0.0780
76791W        W77655  10.294  20.809   0.971 -0.0976 -0.1846 -0.2905
76792W        W77656   2.648  23.058  14.913  0.2209  0.0257  0.2546
76793W        W77657  14.680  21.260  23.080 -0.1555 -0.2308  0.0422
76794W        W77658   0.913  10.860  13.050 -0.0418  0.0747  0.0792
76795W        W77659  27.838   1.615   4.811 -0.0618  0.3330  0.1009
76796W        W77660   5.283  19.243  15.684  0.1470 -0.1150  0.0857
76797W        W77661  22.568  26.345  20.772 -0.2576 -0.0889  0.0819
76798W        W77662  11.715   9.293  12.392 -0.1524 -0.0541 -0.1664
76799W        W77663   4.627  11.745  18.432  0.2294 -0.1348 -0.0325
76800W        W77664  28.824  21.470  15.100  0.0078 -0.2938 -0.0293
76801W        W77665  25.823  24.816  22.548 -0.0092 -0.5188 -0.2490
76802W        W77666  22.539  26.509   5.763 -0.1663 -0.0334 -0.0579
76803W        W77667  27.936   2.797   3.353 -0.3186  0.0587 -0.0399
76804W        W77668   2.888  28.933  22.497  0.1507  0.0120  0.0303
76805W        W77669  28.849   1.315   4.226  0.4550 -0.1035  0.2447
76806W        W77670  12.562   7.834  28.265  0.0862 -0.2317 -0.1958
76807W        W77671   5.915   0.530  21.860  0.2259  0.2198 -0.0434
76808W        W77672  26.215  16.653  23.252 -0.4831 -0.2019 -0.0815
76809W        W77673   3.218   5.524  20.192 -0.0836  0.0427  0.0229
76810W        W77674  14.851  22.537  10.556 -0.0247 -0.2261  0.0181
76811W        W77675  26.327  20.711   0.535  0.2429  0.1719  0.1612
76812W        W77676  20.595   8.267  24.169 -0.1581 -0.1765 -0.1663
76813W        W77677   4.671  21.332  15.612  0.1998  0.1113  0.0504
76814W        W77678  28.564  14.561   1.971 -0.0535 -0.0553 -0.0660
76815W        W77679  11.090  11.629  15.845 -0.0280  0.1648  0.1037
76816W        W77680  22.401  18.268   1.071 -0.1427 -0.0534 -0.0146
76817W        W77681   4.558   1.474   3.470 -0.0009 -0.2179 -0.0557
76818W        W77682   7.937  18.992  26.665 -0.1784 -0.1126 -0.0887
76819W        W77683  12.743   9.469  19.874  0.0765  0.1844  0.2034
76820W        W77684   9.250  21.235  12.995 -0.1244 -0.1458 -0.2594
76821W        W77685   3.517  18.806  12.991  0.0914 -0.1298 -0.0228
76822W        W77686  14.329  25.695   5.149  0.0398  0.2562  0.0709
76823W        W77687   3.438   1.819   8.192 -0.1916 -0.1634  0.2815
76824W        W77688   7.776   6.432  28.477  0.1687 -0.2021 -0.2536
76825W        W77689  13.669  12.839  16.975  0.1061  0.3970  0.0356
76826W        W77690  16.640   8.331  26.536 -0.0799  0.0340 -0.3089
76827W        W77691  21.613  28.369  23.129  0.3641 -0.3978  0.0884
76828W        W77692   6.905   6.469  20.080  0.2682  0.1879  0.1229
76829W        W77693   3.982   3.251   0.946  0.0885 -0.2717  0.1909
76830W        W77694  11.114  28.019  17.703 -0.1547  0.0651 -0.2622
76831W        W77695  28.362  24.044   1.033  0.3965  0.0230  0.1853
76832W        W77696  19.745  19.319   4.861  0.2303 -0.3087 -0.0353
76833W        W77697  13.997  14.269  10.452  0.2510 -0.1186  0.3068
76834W        W77698  21.322  23.865  27.525  0.0352 -0.1196 -0.1264
76835W        W77699  15.727   3.356  15.341 -0.0591  0.3049 -0.1911
76836W        W77700  26.389  14.856  19.117 -0.0956 -0.2517  0.1456
76837W        W77701  20.506   8.705  26.945  0.0961 -0.1051  0.0425
76838W        W77702  14.111  24.261  19.519 -0.3374 -0.2073  0.0555
76839W        W77703  12.562  20.933   1.388  0.1046  0.0671  0.0640
76840W        W77704  11.848   4.514   5.113 -0.0246 -0.0963 -0.0351
76841W        W77705   4.609  18.645   0.490  0.0948 -0.0259 -0.1912
76842W        W77706  27.943   9.566  11.114  0.1482 -0.0241 -0.2051
76843W        W77707   2.718  28.812  22.990 -0.0378 -0.3332  0.1450
76844W        W77708  11.615  19.802  28.072 -0.2362  0.1203 -0.1661
76845W        W77709  21.938   3.520  28.738  0.0436 -0.1980  0.0162
76846W        W77710  28.473  23.819  28.487  0.2032  0.0811  0.1731
76847W        W77711   2.014   7.643  26.435 -0.3243  0.0131  0.0222
76848W        W77712   6.868  26.143   2.221  0.1209 -0.2709 -0.1748
76849W        W77713  12.680  26.189  18.237  0.0369 -0.2765  0.1388
76850W        W77714  12.546  22.892  11.292 -0.0542  0.3351  0.2649
76851W        W77715   7.683  13.586   1.818 -0.1286 -0.1619  0.3429
76852W        W77716  26.572  20.882   7.444 -0.0764  0.1057  0.3768
76853W        W77717   8.726  28.114   8.713  0.1507 -0.1678 -0.0464
76854W        W77718  23.556   2.789  23.468 -0.3800 -0.1321 -0.0828
76855W        W77719   2.875  17.502  26.808  0.2618 -0.3998  0.1685
76856W        W77720  18.842   8.440   1.027 -0.2995  0.0442  0.0212
76857W        W77721  12.510  19.318  28.907 -0.1823  0.0682 -0.2823
76858W        W77722   5.727   2.657  22.317 -0.0410 -0.0222 -0.1954
76859W        W77723  20.105   1.351   8.547 -0.0183  0.1100 -0.1145
76860W        W77724  16.957  11.883  11.690  0.1050 -0.0601  0.1307
76861W        W77725   4.701   4.068   6.719 -0.2846 -0.1228 -0.0774
76862W        W77726  12.523  20.637  11.300 -0.3543 -0.3451  0.0413
76863W        W77727   7.389  22.811  13.473  0.0262  0.1186 -0.0805
76864W        W77728  14.873  10.963   0.868 -0.3060 -0.1799  0.0151
76865W        W77729  24.654   4.255  15.974  0.1395 -0.2809  0.0226
76866W        W77730  14.003   6.280  10.460  0.0052  0.1095  0.0974
76867W        W77731   9.252  20.077  21.027 -0.1405  0.0017  0.1329
76868W        W77732   6.559  10.597  26.798 -0.3158 -0.1138  0.0056
76869W        W77733  20.600  24.862   9.389  0.0124  0.0578  0.0860
76870W        W77734   4.034   0.572  19.991  0.2263 -0.2689  0.1694
76871W        W77735   5.104  26.657  28.880 -0.1388 -0.1667 -0.3202
76872W        W77736   7.721   6.427   8.506  0.2535  0.4098 -0.1090
76873W        W77737  17.878  19.123   5.829 -0.1934 -0.0101  0.0242
76874W        W77738  21.705   4.503  13.071  0.0363  0.0647 -0.0787
76875W        W77739  15.991   1.881   3.665 -0.1946  0.2476 -0.3466
76876W        W77740  22.501  25.815   6.632  0.1652 -0.1845  0.0202
76877W        W77741   6.485   7.081  21.985  0.1710 -0.1445  0.0688
76878W        W77742  21.687   4.336  27.601  0.1742  0.0285  0.0144
76879W        W77743  10.996  28.988  16.617  0.1670 -0.0289  0.0550
76880W        W77744  11.111  18.405  15.114  0.2403 -0.2934 -0.2621
76881W        W77745  10.496  10.465  26.271  0.0675 -0.2077  0.3230
76882W        W77746   2.522   2.326  25.714 -0.2590 -0.2906 -0.1174
76883W        W77747  12.644  16.422  16.287  0.0597  0.1922 -0.0482
76884W        W77748  11.130  21.216  23.002  0.4046 -0.0715  0.1635
76885W        W77749  26.171  22.430   0.614 -0.1808  0.0251  0.1150
76886W        W77750  28.283   8.730   4.056 -0.1695 -0.2399 -0.0517
76887W        W77751  24.332  26.902  29.028 -0.3011  0.0964  0.1904
76888W        W77752  11.393  20.768  15.650  0.0411 -0.1176 -0.1762
76889W        W77753  16.103  22.207  21.603  0.3539  0.3019 -0.0234
76890W        W77754  13.265  24.996  28.796 -0.4613 -0.0310 -0.2976
76891W        W77755  20.359   0.265   7.921 -0.0358  0.2541  0.1131
76892W        W77756   7.117  10.085   0.286 -0.1966 -0.0929 -0.0858
76893W        W77757  21.658  10.442   4.979 -0.0585  0.0807 -0.0735
76894W        W77758  16.898  13.795  14.097 -0.1331  0.0982 -0.0592
76895W        W77759   4.216   1.467  12.893 -0.0782  0.0449  0.0893
76896W        W77760  15.740   6.473  15.210 -0.0761 -0.3748  0.1434
76897W        W77761  26.999  23.722  28.328  0.1359  0.0831 -0.1356
76898W        W77762   4.809  23.954  21.294 -0.2018 -0.0668  0.0163
76899W        W77763  26.935  23.420   2.189  0.1466 -0.1017  0.0838
76900W        W77764   8.439   7.317  16.959  0.0894 -0.0378 -0.0675
76901W        W77765  13.253  28.836   2.090  0.0787  0.0201  0.0202
76902W        W77766  27.767  23.911  24.044  0.0287  0.2375 -0.3713
76903W        W77767  20.914  22.103  20.642 -0.0842  0.1720  0.0989
76904W        W77768  26.330   5.422   0.508  0.1771 -0.2057  0.2797
76905W        W77769   8.625  10.123  10.289 -0.0653 -0.2519 -0.0313
76906W        W77770  15.203  28.272  12.045  0.0858  0.2525 -0.2308
76907W        W77771   8.993   4.138  20.686  0.0894 -0.0689  0.1455
76908W        W77772  11.678  26.877  24.095 -0.0243 -0.1324  0.0854
76909W        W77773   2.643  14.519  19.634 -0.2332 -0.0220  0.0336
76910W        W77774  23.034  18.942   7.367 -0.1629  0.0323 -0.0332
76911W        W77775  17.781  16.866  28.015 -0.0403 -0.1566  0.2390
76912W        W77776  27.705   1.464   1.855 -0.1491  0.1794  0.0547
76913W        W77777  11.659  26.686  27.061  0.2203  0.0222  0.1369
76914W        W77778   1.210  27.614   6.970 -0.3719 -0.1051 -0.0135
76915W        W77779   5.123  22.076  27.385 -0.1045 -0.0641 -0.1443
76916W        W77780  14.571   8.527  18.387 -0.0176 -0.1530  0.0516
76917W        W77781   5.625  28.159   6.215 -0.0739 -0.1862  0.1725
76918W        W77782   9.273   6.452   1.622  0.0079  0.1115  0.0988
76919W        W77783  24.808   3.667  23.640  0.0735  0.4463 -0.3337
76920W        W77784  13.864  15.047  12.005  0.1939  0.1607  0.0462
76921W        W77785  11.276  25.208  11.698  0.0438 -0.1903 -0.0302
76922W        W77786  11.167   3.972  18.873  0.2643 -0.2939 -0.2188
76923W        W77787   9.912  27.774  12.363  0.2589  0.2197 -0.2330
76924W        W77788  16.275   6.310  13.740 -0.3284 -0.2077 -0.1560
76925W        W77789  19.409  26.700  29.020  0.0488  0.3038  0.2118
76926W        W77790  17.701  10.434   0.720  0.0656  0.0734  0.1995
76927W        W77791   2.996  26.678  12.159 -0.2424  0.2608  0.1613
76928W        W77792  11.987  23.916  21.923 -0.2777  0.0811 -0.2799
76929W        W77793  25.895   5.503  26.202  0.0148 -0.3890  0.1858
76930W        W77794  18.556  24.030  10.480 -0.0174  0.4105  0.3343
76931W        W77795  11.902   4.223   4.240 -0.0651  0.0441  0.0864
76932W        W77796  28.429  15.190   1.185 -0.0025  0.0728  0.1213
76933W        W77797  14.902  21.682  11.131  0.2987  0.0860  0.2028
76934W        W77798  14.694  17.172  18.704  0.2152  0.2223 -0.5100
76935W        W77799  11.700  12.388  24.127  0.1307  0.2828 -0.0719
76936W        W77800   4.721   6.698  16.992  0.2199  0.1888 -0.0400
76937W        W77801   9.664   5.643  16.994  0.1126  0.0114  0.1633
76938W        W77802   3.518  15.500  25.636 -0.1255 -0.1025  0.0530
76939W        W77803  10.030   8.993  28.149  0.0480  0.4107 -0.0315
76940W        W77804   5.435  25.843  26.863 -0.0122  0.2112 -0.1810
76941W        W77805  11.330   9.395  29.002 -0.3339  0.2967  0.2700
76942W        W77806  23.782   4.789  21.416  0.1915  0.2909  0.0774
76943W        W77807  18.746  21.899  25.649  0.4096 -0.0282 -0.2171
76944W        W77808  12.108   2.919  16.776 -0.2643  0.5164 -0.0106
76945W        W77809   1.135  13.617  23.225 -0.0889  0.0068  0.1994
76946W        W77810   0.461  16.897  24.068  0.0895 -0.3587 -0.2730
76947W        W77811  19.605  11.522   6.645  0.0938  0.1189  0.0730
76948W        W77812   4.598  16.241  25.741  0.1092  0.2454 -0.2096
76949W        W77813  22.393  28.209  20.355 -0.0555  0.1923 -0.1012
76950W        W77814  16.206   0.773  13.756 -0.1361 -0.1415  0.0407
76951W        W77815  24.486   6.602   1.026 -0.0414 -0.1230 -0.0685
76952W        W77816   7.414  16.700   0.831  0.0895  0.0552  0.1005
76953W        W77817  13.702   4.532   2.642  0.3773 -0.0244  0.2017
76954W        W77818  11.761   9.885   8.435 -0.1985  0.2048 -0.0675
76955W        W77819  19.434  14.342  21.707  0.1934  0.2336  0.0286
76956W        W77820  12.367  15.964   4.269  0.0773 -0.1292  0.0837
76957W        W77821  22.914  27.756  22.908 -0.1621 -0.0936  0.2214
76958W        W77822  20.178   5.384   4.259  0.2083 -0.1278  0.2322
76959W        W77823   1.962  21.731  19.383 -0.4758 -0.4456  0.4961
76960W        W77824   5.589  12.900  22.880  0.0003 -0.0976 -0.1254
76961W        W77825   6.454  16.208  28.341 -0.2153  0.1407 -0.4147
76962W        W77826   4.036  27.952  21.430  0.0063  0.0086 -0.2145
76963W        W77827  19.945   5.042   6.080  0.1306  0.1236  0.0441
76964W        W77828  13.265  20.203  26.057  0.1080  0.0797 -0.2076
76965W        W77829   3.332   5.468  14.345 -0.0973  0.1605 -0.0206
76966W        W77830   1.478   6.182   9.538 -0.1716 -0.1555  0.1944
76967W        W77831  11.186   1.395  11.530 -0.2821  0.0366 -0.0360
76968W        W77832  15.250  22.477  26.961  0.0007 -0.2886  0.1804
76969W        W77833  10.898  18.739   3.871  0.1640 -0.1699  0.0903
76970W        W77834  14.093  26.909  14.688 -0.2445 -0.1069 -0.1952
76971W        W77835  23.626  22.217  18.729 -0.1118  0.1454  0.0469
76972W        W77836   6.382   3.368   7.831 -0.3360 -0.0216 -0.0737
76973W        W77837  24.057  18.135  25.077  0.1712 -0.0220 -0.2897
76974W        W77838  24.607  16.523  28.553  0.0006 -0.0453  0.1630
76975W        W77839   2.979   0.851   7.101 -0.0899  0.1731  0.0658
76976W        W77840  13.402   9.512  28.018 -0.1417  0.0229 -0.1512
76977W        W77841  27.062  14.161   4.348  0.3057  0.2851 -0.0443
76978W        W77842   9.945  16.018   1.102  0.0347 -0.2975  0.0869
76979W        W77843   3.202   1.162  14.048  0.3845  0.0532 -0.3074
76980W        W77844  11.894  18.500  26.419 -0.1236 -0.2376  0.1800
76981W        W77845  21.044  10.230   0.760  0.1041 -0.0159 -0.1091
76982W        W77846  21.467  11.974  29.127  0.0586  0.1280  0.0001
76983W        W77847   7.402   1.393   5.024  0.1164 -0.1954  0.1257
76984W        W77848  20.993   8.603  27.238 -0.0804  0.2478 -0.1724
76985W        W77849  10.231  22.365   9.404  0.0776 -0.0325  0.2054
76986W        W77850  10.592   2.444   6.228  0.1207  0.3103 -0.1365
76987W        W77851   4.128  25.760   4.744 -0.1970 -0.1103 -0.0589
76988W        W77852   1.942   7.191   1.933  0.0882 -0.1229 -0.1076
76989W        W77853  19.380  29.137   9.384 -0.1696 -0.1281 -0.1006
76990W        W77854  25.295  19.870  27.690  0.2857 -0.3065  0.0412
76991W        W77855  29.037   1.043  21.169 -0.1949  0.0945 -0.0321
76992W        W77856  25.741  22.276  13.714  0.1497 -0.0696 -0.0705
76993W        W77857   2.138  11.093  26.911 -0.1038 -0.0963  0.0502
76994W        W77858  14.598  24.774  26.154  0.1626  0.0661 -0.1616
76995W        W77859  17.767   3.596  25.928  0.0271 -0.3530  0.2911
76996W        W77860   3.939  17.248   3.770 -0.1789 -0.2501  0.0262
76997W        W77861  11.597  11.284   8.825 -0.3267  0.0490 -0.2919
76998W        W77862  14.446   3.183  24.472  0.0351  0.0708  0.0983
76999W        W77863  17.365   6.803  13.837  0.2893 -0.2718 -0.0147
77000W        W77864  21.085   0.615  18.075 -0.0633 -0.0379  0.2219
77001W        W77865  14.233   9.563  12.870  0.3896 -0.0951 -0.3144
77002W        W77866   5.897   3.388   5.482  0.2646 -0.1992 -0.1503
77003W        W77867  27.309  16.690  23.967 -0.0745  0.2825  0.0091
77004W        W77868  13.543  27.673  19.895 -0.0187  0.0087 -0.1025
77005W        W77869  10.587   6.530  18.417  0.0045 -0.0488 -0.2296
77006W        W77870  10.027   4.756  14.705  0.1261  0.1922  0.2448
77007W        W77871  13.727  24.764  10.937 -0.0498  0.1314  0.2983
77008W        W77872   7.970  27.853  12.688 -0.1268  0.3794  0.3601
77009W        W77873  19.472  16.371  18.489  0.1219  0.1242 -0.1513
77010W        W77874  27.651  24.367  25.340 -0.2232  0.2646 -0.0194
77011W        W77875  19.939  23.967  12.623  0.1818 -0.1511 -0.0855
77012W        W77876   4.712  18.258  20.408 -0.0726 -0.0902  0.0445
77013W        W77877   9.588   6.066   0.127  0.1246  0.0810  0.0286
77014W        W77878   9.084  21.976   2.768  0.0499  0.1050  0.0160
77015W        W77879   0.240   9.376   6.516  0.0863 -0.0200 -0.1295
77016W        W77880  13.128  11.031  21.434  0.0750 -0.0101  0.1101
77017W        W77881  12.608  12.685   0.187  0.0185  0.4392  0.0209
77018W        W77882  16.864  18.432   2.660 -0.3333  0.1203 -0.0718
77019W        W77883  11.218   5.736  25.794 -0.0855 -0.0138 -0.0115
77020W        W77884  12.195   8.445  20.210  0.1878 -0.0311 -0.1530
77021W        W77885  12.022  26.579  22.503  0.0954  0.1157 -0.0538
77022W        W77886  19.586   0.567   6.896  0.1380  0.2669 -0.1114
77023W        W77887  16.632  25.150   3.477  0.3246  0.1255 -0.0595
77024W        W77888  12.305   2.366  12.150 -0.1864 -0.1873 -0.2435
77025W        W77889   2.914  22.575  11.601 -0.0092 -0.0929  0.0895
77026W        W77890  12.816   5.868  27.556  0.0447  0.2657 -0.2015
77027W        W77891  22.279   3.471  21.909  0.2029 -0.2957 -0.2446
77028W        W77892  11.323  28.338   4.917  0.2664 -0.2236 -0.1093
77029W        W77893   5.003  10.585  22.086  0.0206  0.3639  0.0433
77030W        W77894  15.034  25.702   7.732  0.2563 -0.1772  0.0231
77031W        W77895  20.094  20.928   7.259 -0.2381  0.2148 -0.3412
77032W        W77896   6.400  22.047   0.698 -0.5325  0.3327  0.0184
77033W        W77897  25.546   7.302   1.650  0.0436 -0.4907 -0.2433
77034W        W77898  23.021   6.619  20.259  0.1309 -0.2892  0.1918
77035W        W77899   8.185  11.668  24.084 -0.2211 -0.0740  0.1217
77036W        W77900  18.414  17.259   3.503  0.2270  0.2948  0.2104
77037W        W77901   7.125  11.770  21.412  0.0277  0.0382  0.2006
77038W        W77902   4.960   7.907   1.957 -0.2173 -0.0094  0.2424
77039W        W77903  18.609   1.373  26.218  0.3129  0.0654  0.5389
77040W        W77904  13.113  21.041  24.179 -0.4078  0.4261  0.1425
77041W        W77905  21.518  12.270  28.774  0.3763 -0.1612 -0.0598
77042W        W77906  21.505   3.545  19.580  0.1322  0.5288  0.0351
77043W        W77907  18.382  24.618   3.550 -0.0877  0.0402 -0.4753
77044W        W77908  11.185   2.875   2.633  0.3032  0.0189 -0.2102
77045W        W77909  23.774  23.202   6.937  0.2347 -0.0302  0.1755
77046W        W77910  28.411   8.296  11.247  0.3929  0.2894  0.2668
77047W        W77911  21.687  14.908  20.954  0.1993  0.3055 -0.1945
77048W        W77912  12.300   2.470  26.042  0.0633  0.0142 -0.3749
77049W        W77913  22.119  19.633  22.144 -0.1352  0.0839 -0.2212
77050W        W77914  18.371   3.688   2.663  0.2686  0.1351 -0.1382
77051W        W77915  27.044   3.603  13.122 -0.0954 -0.0649  0.2819
77052W        W77916   8.843  24.029  26.215 -0.3135  0.0704 -0.3408
77053W        W77917  15.263  22.981  15.011 -0.2280  0.1620 -0.1950
77054W        W77918  19.270  19.261   8.875 -0.2682 -0.2268  0.0118
77055W        W77919  20.953  17.386  26.672  0.1457  0.2511  0.2220
77056W        W77920  17.582   7.974   9.167 -0.0071  0.5301  0.0549
77057W        W77921  16.918   4.868   9.598 -0.0131 -0.0767 -0.1956
77058W        W77922   4.517  18.917  26.781 -0.0608  0.0557 -0.1506
77059W        W77923  12.648  15.800  10.838 -0.0482 -0.2500 -0.0880
77060W        W77924  13.149  27.550  14.503  0.0851  0.2422  0.0271
77061W        W77925  23.270  16.253  20.882 -0.4577  0.0028  0.1164
77062W        W77926   5.868   5.074  20.497 -0.4468 -0.4312 -0.0152
77063W        W77927   9.426  23.051  28.890 -0.1099 -0.1000 -0.2276
77064W        W77928   3.937   5.108  22.518  0.2045  0.4815  0.1398
77065W        W77929  12.798  14.175   0.683 -0.4133 -0.3744  0.0528
77066W        W77930  24.859  27.735  26.056  0.0077  0.0453 -0.2066
77067W        W77931  24.714  10.646  25.421  0.0651  0.0566 -0.1366
77068W        W77932  17.855  26.606  23.981 -0.3240  0.3454 -0.2058
77069W        W77933  24.374  15.401  18.916 -0.3867 -0.2222 -0.0755
77070W        W77934  13.814  11.477  20.038 -0.0437 -0.1957 -0.1485
77071W        W77935  25.551  16.963  28.147  0.3610 -0.0541 -0.0959
77072W        W77936  22.924  16.388   3.375 -0.4423  0.0157  0.0104
77073W        W77937  12.387   9.854  13.236 -0.0392  0.0535  0.2225
77074W        W77938   9.136  27.198  22.925  0.1408  0.2444 -0.0045
77075W        W77939  11.993   6.073  12.329 -0.0816  0.2824 -0.0689
77076W        W77940   7.911  25.136   9.081  0.2587 -0.1523  0.1311
77077W        W77941  16.119  17.277   5.375 -0.0091  0.1114 -0.0139
77078W        W77942  17.149  21.207   3.541 -0.1063 -0.2598 -0.1165
77079W        W77943  25.286  14.194   1.734  0.0174 -0.3527 -0.2390
77080W        W77944  27.779  23.095  19.119  0.2725 -0.0747  0.0602
77081W        W77945   4.606   1.454   5.568  0.2092 -0.2667  0.1119
77082W        W77946  10.716  27.953  18.771  0.2226  0.0832 -0.0687
77083W        W77947   2.990  15.821   4.519 -0.1621 -0.2944  0.0164
77084W        W77948   4.145  26.572   7.213  0.0362 -0.1200  0.3380
77085W        W77949  10.821   4.840  11.739  0.1373 -0.4376  0.0358
77086W        W77950  23.336  25.362   8.812 -0.0132 -0.0265  0.2831
77087W        W77951  18.330  17.952   1.301  0.0766 -0.3194 -0.0904
77088W        W77952  11.620   7.053  24.462 -0.0963  0.0032 -0.0766
77089W        W77953  12.479  22.257   8.967  0.0732  0.1721  0.0092
77090W        W77954  20.513   3.465  27.219 -0.0679  0.2693  0.1112
77091W        W77955  11.308   8.908   8.545  0.1171  0.2080  0.3032
77092W        W77956   8.257  24.828  27.825  0.3468  0.0101 -0.1577
77093W        W77957   0.740   2.313   1.938 -0.1217 -0.1907 -0.0066
77094W        W77958  15.758  11.033  23.690 -0.1026  0.2345  0.2112
77095W        W77959  15.917  17.641  27.190  0.1968  0.1484  0.2537
77096W        W77960   9.333   5.217   5.311 -0.1801  0.1764  0.2253
77097W        W77961  11.140   3.117  14.774 -0.1092  0.2357 -0.0091
77098W        W77962   3.870   0.695   3.683  0.1440  0.2599  0.1126
77099W        W77963  24.890  28.395   8.925  0.4113  0.0444 -0.1019
77100W        W77964  27.903   4.210   0.902 -0.0087  0.1678 -0.4405
77101W        W77965  22.715  26.863  19.094  0.1826 -0.3091 -0.1655
77102W        W77966   0.162  26.902  23.899  0.1657 -0.1901 -0.2631
77103W        W77967  10.731   5.240  23.731 -0.1947 -0.0686  0.0551
77104W        W77968   6.166  29.021  28.600 -0.0890 -0.1722  0.0123
77105W        W77969  26.406  24.987  20.311  0.2065 -0.2158  0.0620
77106W        W77970   7.203   8.333   4.653  0.1158 -0.1661 -0.0026
77107W        W77971   8.425  24.737  10.919 -0.2233 -0.0552 -0.4198
77108W        W77972  14.925  20.918  22.406 -0.2622  0.1033 -0.0610
77109W        W77973  13.818   3.902  28.426 -0.2957 -0.2616 -0.0094
77110W        W77974   3.846  17.550  28.712  0.0439  0.1480  0.0793
77111W        W77975  13.965  17.847  28.798  0.2687  0.0085  0.3042
77112W        W77976  23.975  28.374  26.912 -0.1933 -0.3664  0.2178
77113W        W77977   3.667  23.537  21.814 -0.0164  0.1864  0.0433
77114W        W77978  12.313  13.692  24.342 -0.1152 -0.0736  0.0496
77115W        W77979  18.145   4.080  27.576 -0.0992  0.1478 -0.3557
77116W        W77980   8.517  16.576  13.309 -0.1864 -0.2107 -0.2429
77117W        W77981  22.148   3.320   9.507  0.3221 -0.0193 -0.0165
77118W        W77982  14.006  19.313   0.680  0.1916  0.0061  0.0908
77119W        W77983  29.072  26.220   9.328 -0.0244  0.0183  0.0283
77120W        W77984   6.999   5.858  15.295  0.0717  0.1789 -0.1305
77121W        W77985   7.730   0.682   0.232  0.0867  0.0770 -0.0778
77122W        W77986   9.366   9.538  21.722 -0.1401  0.2962  0.0650
77123W        W77987   1.299   7.200  11.983  0.1193  0.1396  0.0562
77124W        W77988   9.134  23.430   7.607 -0.2801 -0.2905 -0.0479
77125W        W77989  18.499  19.175  16.463 -0.0362  0.0468 -0.3232
77126W        W77990  12.202  10.040  27.570  0.0650  0.0934 -0.3015
77127W        W77991   0.468  20.933   6.708  0.0615  0.0929 -0.2313
77128W        W77992  10.486   5.520  23.337  0.1108  0.1361 -0.0930
77129W        W77993   8.877  24.708  28.672  0.2642  0.2064  0.0383
77130W        W77994  22.946  11.590  21.449 -0.0045 -0.0785 -0.4245
77131W        W77995   1.456  29.095   2.703  0.1405  0.1597  0.1269
77132W        W77996  23.283   8.523  16.280 -0.2880 -0.1605  0.3102
77133W        W77997   7.782  25.871   4.092  0.2369 -0.0979  0.3501
77134W        W77998  14.698  21.371   6.808  0.2098  0.1295  0.1636
77135W        W77999   3.957  16.536  15.018  0.2256 -0.1260 -0.1451
77136W        W78000   2.876  16.288  26.174 -0.1081 -0.2252 -0.1838
77137W        W78001   1.869   3.236  25.047  0.1561 -0.1186  0.3367
77138W        W78002  17.303  13.063  24.295  0.0043 -0.0140 -0.0017
77139W        W78003   0.904  24.927  26.745  0.1064  0.2192  0.4836
77140W        W78004  19.315   6.065  24.778 -0.0830  0.2541  0.3201
77141W        W78005   1.410   5.320   8.104  0.1907 -0.2542 -0.1660
77142W        W78006  17.578   7.878  16.665  0.2957 -0.3047  0.0927
77143W        W78007  20.649  24.132   6.103  0.0539  0.0926 -0.5188
77144W        W78008  10.261   2.689  26.269 -0.0374  0.4176 -0.3346
77145W        W78009   6.409   6.714  24.536 -0.1154 -0.0580 -0.0371
77146W        W78010   9.616   2.058  15.721  0.0324 -0.0848  0.2041
77147W        W78011   5.154  29.114  27.902  0.3030  0.1298  0.3348
77148W        W78012  27.918   4.179  18.944 -0.1180 -0.1118 -0.1836
77149W        W78013  11.897  12.308  13.434  0.0312  0.3675 -0.1239
77150W        W78014  16.832  12.600  23.455  0.0783 -0.1928  0.1830
77151W        W78015  26.881   2.374  27.085  0.2070  0.1398  0.0258
77152W        W78016   1.607  18.852  10.788 -0.2042  0.1252  0.1976
77153W        W78017   2.400  15.976  10.170  0.1896  0.1291  0.0039
77154W        W78018   3.270  27.973   8.231  0.1727  0.2256 -0.0683
77155W        W78019   9.593   1.321   1.604 -0.0122 -0.1854 -0.1729
77156W        W78020  17.351  17.355  15.432 -0.2544 -0.2307  0.0098
77157W        W78021  14.938  21.221   3.450  0.0742 -0.0574 -0.2761
77158W        W78022  11.931  28.350   4.131 -0.1249  0.0113  0.1796
77159W        W78023  18.282  29.132   5.506 -0.0643  0.1611 -0.0897
77160W        W78024  21.776   5.472   3.890  0.1043 -0.1336  0.2262
77161W        W78025  10.731   0.698  12.255 -0.0445 -0.3261  0.0794
77162W        W78026  13.371  13.129  21.177 -0.0462 -0.0068 -0.2205
77163W        W78027   6.194   8.554  13.923  0.1972  0.2333  0.3644
77164W        W78028  20.247   7.021  23.638  0.1104  0.2175 -0.1098
77165W        W78029   9.051   1.929   7.000 -0.4515  0.1011  0.1547
77166W        W78030  12.230  11.127  19.427 -0.0589 -0.2679 -0.2885
77167W        W78031  12.274   5.553   3.370 -0.2586 -0.1468  0.1288
77168W        W78032  22.687  14.845   9.172  0.3842  0.1029 -0.1291
77169W        W78033  14.383  19.112  12.541  0.0404  0.2563 -0.1921
77170W        W78034   5.740   0.111  14.984  0.0684 -0.4546 -0.2222
77171W        W78035  26.641   6.305   7.971 -0.1514  0.1240 -0.1726
77172W        W78036   9.257   3.015  13.601 -0.2322  0.3083 -0.0035
77173W        W78037  16.893  27.551   3.100 -0.2164  0.0648  0.0663
77174W        W78038  21.975   3.253  13.346  0.0850  0.2029 -0.0806
77175W        W78039  25.194  21.194  21.696 -0.1783 -0.0183 -0.0680
77176W        W78040   3.376  26.861  16.826  0.3743  0.4704 -0.1003
77177W        W78041   6.318  28.842  15.368 -0.0161 -0.0349 -0.1340
77178W        W78042  14.784  11.811   8.753 -0.1985  0.1138  0.0321
77179W        W78043   2.087  15.609  10.192 -0.0632  0.0041 -0.2964
77180W        W78044  26.470  22.667   2.593  0.0774 -0.1990  0.0691
77181W        W78045  21.209  28.926  16.247 -0.1621  0.1429  0.3609
77182W        W78046  10.785   0.489  20.613  0.1347 -0.3269  0.0086
77183W        W78047  13.533  26.737   2.110 -0.1082 -0.1185 -0.0795
77184W        W78048  15.068  16.160   6.949 -0.0479  0.1135  0.1185
77185W        W78049  18.953  20.053   9.505  0.3027  0.0579  0.0800
77186W        W78050  23.012   8.177  18.651 -0.2906 -0.3201  0.0844
77187W        W78051  15.669  25.068  16.333  0.1616 -0.0175 -0.2483
77188W        W78052  23.768  25.249   0.724 -0.1253  0.1520 -0.1418
77189W        W78053  11.112   9.826   6.412 -0.0676  0.3076 -0.1012
77190W        W78054  10.862  16.780   9.049  0.0392  0.1505 -0.3247
77191W        W78055  21.585   1.338  13.558  0.2329  0.0942 -0.1021
77192W        W78056  27.528   9.236  18.251 -0.1582  0.2184 -0.3431
77193W        W78057   1.526   2.086  12.359  0.2961  0.1455 -0.1169
77194W        W78058   0.124  26.384  13.543 -0.1952  0.1620  0.2391
77195W        W78059  18.104  25.046   7.084  0.2025  0.2243 -0.1513
77196W        W78060  28.862   5.625   4.636 -0.0016  0.1282  0.3311
77197W        W78061  20.134   0.256   5.084  0.0114 -0.2889 -0.1351
77198W        W78062  17.618   3.979  27.122  0.3458  0.2845 -0.1415
77199W        W78063   8.151   4.710   0.899  0.0340 -0.0102 -0.1342
77200W        W78064   5.382  14.128   6.985 -0.0037  0.0994 -0.0621
77201W        W78065  22.527  17.552  20.824 -0.1525  0.1074 -0.0658
77202W        W78066  17.237  23.140   2.249  0.0840  0.1397  0.1197
77203W        W78067   9.630  28.850   3.028  0.0188  0.1166 -0.3776
77204W        W78068   8.133   4.217  23.032 -0.0495  0.2020 -0.0622
77205W        W78069   6.006  27.640   6.820 -0.1876 -0.0437  0.0508
77206W        W78070   9.781   5.022   4.466 -0.0913  0.2044  0.0991
77207W        W78071   4.652   2.482  19.363 -0.4173  0.0828  0.1974
77208W        W78072   1.492   6.877  13.351  0.1450 -0.0263  0.0898
77209W        W78073  20.428  20.571   7.073 -0.2436  0.2092  0.0443
77210W        W78074   6.540   4.662  20.733 -0.2958  0.2415  0.1656
77211W        W78075  19.915   8.089   2.985 -0.0769 -0.1241 -0.2488
77212W        W78076  24.239  26.375  12.153  0.0411 -0.4366  0.2055
77213W        W78077  19.346   9.936   8.568 -0.0517  0.1474 -0.0310
77214W        W78078   9.209  17.371  19.361 -0.1158  0.0204 -0.0637
77215W        W78079  26.808  19.277  26.229 -0.0912 -0.0107  0.1520
77216W        W78080  28.580   1.515   5.026 -0.1501 -0.1245 -0.1808
77217W        W78081  17.114   5.531   0.528 -0.1120 -0.0332 -0.0377
77218W        W78082  13.194  14.914   9.192  0.1184  0.2304 -0.2353
77219W        W78083  26.828   2.195  28.869  0.0866 -0.3555  0.0560
77220W        W78084  19.376   7.519   3.747  0.1990 -0.0643 -0.0582
77221W        W78085  19.722  25.524   0.452 -0.1322 -0.0290 -0.2045
77222W        W78086  13.044  26.337   4.833  0.0568 -0.0955 -0.2685
77223W        W78087  21.336   4.834  12.356  0.0966  0.1608 -0.1634
77224W        W78088   6.423  24.957   8.665  0.0707  0.0463  0.2660
77225W        W78089  21.298   1.316   7.941 -0.1456  0.3470 -0.0264
77226W        W78090  20.787   1.045  27.601 -0.2153 -0.1621  0.0143
77227W        W78091   6.769  21.902  22.923  0.1289  0.1164  0.2131
77228W        W78092  26.151  14.804  23.965  0.0698  0.1429  0.1126
77229W        W78093   8.570   4.118   1.411  0.0878 -0.0344 -0.0582
77230W        W78094   9.238  15.553   8.304  0.0912  0.0229  0.1187
77231W        W78095  18.275  22.599  11.317 -0.1652 -0.2446 -0.0612
77232W        W78096  17.857  28.620   4.141 -0.1003  0.1937 -0.2970
77233W        W78097  12.690  21.097  11.742  0.3966 -0.3276  0.2786
77234W        W78098   3.039   2.009   4.628  0.2259  0.1057 -0.0994
77235W        W78099  12.781   0.315   5.181 -0.3950  0.1585  0.3007
77236W        W78100  17.033  25.820  23.409 -0.1572 -0.2127 -0.2138
77237W        W78101   4.420   2.378  16.307 -0.0873  0.1264  0.0448
77238W        W78102  15.439   1.428  22.065  0.0505 -0.0804 -0.0989
77239W        W78103   6.959  15.089  15.144  0.4589 -0.3387 -0.0868
77240W        W78104  24.597  16.076  11.259  0.0337 -0.0111  0.0876
77241W        W78105  12.531  25.960   5.712  0.0327 -0.2103 -0.1716
77242W        W78106   0.727  10.444   4.061 -0.0181  0.1865  0.0755
77243W        W78107  22.680   3.287   3.808  0.1451 -0.0860  0.1280
77244W        W78108  22.882  26.920  26.935  0.2127  0.1960  0.0849
77245W        W78109  18.383   1.813   9.057 -0.2491 -0.0026 -0.1737
77246W        W78110  24.188  23.622   9.102 -0.2320  0.1804  0.3824
77247W        W78111  18.268  19.076   3.765 -0.0217  0.0689  0.3404
77248W        W78112  15.474  15.397   8.536  0.0476  0.2384 -0.0388
77249W        W78113   8.284   1.467  20.859  0.1808 -0.0551  0.0249
77250W        W78114   2.745   5.788   1.288 -0.0692  0.1302 -0.2292
77251W        W78115  13.761  18.607  11.668  0.0549 -0.0345 -0.1131
77252W        W78116  25.204  27.241  14.928 -0.1530  0.1108  0.0545
77253W        W78117  23.231   3.028  16.098  0.1036  0.1479 -0.1978
77254W        W78118   8.637   4.322  25.185 -0.1199  0.1489 -0.0777
77255W        W78119   9.682  23.666  24.427 -0.4387 -0.1822  0.0368
77256W        W78120   7.690   2.057  13.555 -0.2969 -0.0445 -0.1268
77257W        W78121  18.425   8.136  26.037 -0.0262 -0.0490  0.0369
77258W        W78122  24.163   7.347   5.758 -0.2226  0.2108  0.0807
77259W        W78123  20.772   7.197  12.025 -0.1589 -0.1070 -0.0221
77260W        W78124  18.494  19.977  16.945 -0.0321 -0.0709  0.1536
77261W        W78125   5.362  25.100  16.552 -0.2485 -0.1449 -0.0408
77262W        W78126  26.464   2.063  22.615 -0.2106 -0.0227 -0.0397
77263W        W78127   0.572   8.667   4.707 -0.2637  0.0535 -0.0314
77264W        W78128  16.892  15.597  28.092  0.2275 -0.0523 -0.0059
77265W        W78129  10.642  12.478   6.460 -0.3648 -0.1977 -0.2145
77266W        W78130  12.702  11.947   7.998  0.5477  0.0402 -0.1153
77267W        W78131  18.312   8.985  12.361 -0.1482  0.2682  0.1537
77268W        W78132  13.181  11.499  17.173  0.2742  0.0498 -0.0568
77269W        W78133  15.107  19.382   3.202 -0.4278  0.0022 -0.0793
77270W        W78134   3.371   5.133   8.451  0.1123  0.1479 -0.0850
77271W        W78135   2.987   1.984   8.535  0.0235 -0.0914 -0.1100
77272W        W78136  24.367  19.379   8.334 -0.1452  0.0631 -0.1833
77273W        W78137  23.609  20.399  10.030  0.2093 -0.2414  0.0307
77274W        W78138  14.793   9.338  10.176 -0.0268  0.2239  0.0502
77275W        W78139   8.185  11.806  11.026  0.1765 -0.0366 -0.1288
77276W        W78140  13.361   1.403  10.720  0.1034  0.2042 -0.0055
77277W        W78141  10.057  10.455   8.693  0.0883 -0.1471  0.0791
77278W        W78142  20.440  24.495  25.744 -0.0788 -0.0130 -0.1344
77279W        W78143  25.841  24.698  18.004  0.0001 -0.1255 -0.0718
77280W        W78144  25.574   2.384  13.251  0.0118  0.0094  0.0659
77281W        W78145  18.232   7.369  23.958  0.1802 -0.2188  0.0431
77282W        W78146  24.975  18.536   7.218 -0.1206 -0.0465  0.1875
77283W        W78147  25.389  20.388   6.144  0.1733  0.1471  0.3420
77284W        W78148  10.852   7.510  20.243 -0.4043  0.1876 -0.3119
77285W        W78149  17.219  28.394   4.604 -0.2771  0.2551  0.0275
77286W        W78150  11.529  12.315  24.604  0.0164  0.0299  0.2525
77287W        W78151  16.932   6.888  25.716 -0.1779  0.1361 -0.0406
77288W        W78152  19.166   0.589   7.855  0.0641  0.0453  0.2777
77289W        W78153  10.252   3.398   6.432  0.1858  0.2045  0.0791
77290W        W78154  13.760  10.827  19.714 -0.3941 -0.3427  0.0175
77291W        W78155   0.553   8.730  25.111  0.1697 -0.0710 -0.5608
77292W        W78156  14.376   1.334  15.631  0.3941  0.2740  0.1901
77293W        W78157  11.419  23.493  28.654 -0.0817  0.0112 -0.1653
77294W        W78158  10.290   6.809   6.562  0.0173  0.1214  0.1984
77295W        W78159  28.370  28.076  25.322  0.0059 -0.0932 -0.0133
77296W        W78160  12.562  21.084  22.739 -0.1801  0.0134  0.2196
77297W        W78161  13.508  27.182   3.341 -0.1489 -0.1106  0.2426
77298W        W78162  23.984  11.688  24.929  0.0058  0.2924 -0.0382
77299W        W78163   1.392  23.284   7.492  0.0749 -0.0557  0.1465
77300W        W78164  17.499  17.655   2.285  0.0379 -0.0142  0.1464
77301W        W78165  11.674  15.965   1.238 -0.2633  0.0602  0.2759
77302W        W78166  26.419  19.553  23.337  0.0296  0.1141  0.5454
77303W        W78167  13.659   1.988   6.851 -0.1208  0.1357 -0.1267
77304W        W78168   2.217  17.333  19.059 -0.3608 -0.0072 -0.0064
77305W        W78169  13.300  12.536  23.067 -0.4941 -0.1102  0.4255
77306W        W78170   4.958   4.521   0.247  0.0921 -0.0483  0.1925
77307W        W78171   8.444   0.002  22.894 -0.0097 -0.1578  0.1989
77308W        W78172  12.318   0.608  10.866  0.0706 -0.2898 -0.1274
77309W        W78173  21.056  26.931  25.174 -0.2661 -0.0416  0.0715
77310W        W78174   0.477  29.021  18.624 -0.1333  0.1059  0.0421
77311W        W78175  20.461  28.079   6.844  0.1709 -0.1086 -0.4262
77312W        W78176   1.403   1.743  18.449  0.4522  0.0252 -0.0779
77313W        W78177   9.832   6.283  13.685  0.0629 -0.1501 -0.2677
77314W        W78178   8.773   7.531  24.381 -0.2825  0.2391  0.4335
77315W        W78179  17.866   9.234  26.657  0.0351  0.2126 -0.2701
77316W        W78180  20.022   9.402   3.950  0.0045  0.0875  0.0141
77317W        W78181  23.877  22.322  27.841  0.0640 -0.0641  0.1046
77318W        W78182  24.438   7.114   2.061  0.0056  0.0595 -0.0288
77319W        W78183  18.595  16.355  27.793  0.2868  0.1365  0.2278
77320W        W78184  13.214   9.967  18.831  0.1347  0.0473 -0.0158
77321W        W78185  26.768  10.185  28.171 -0.0727 -0.1072 -0.0262
77322W        W78186   0.732  26.300  28.548 -0.0646 -0.0445  0.2175
77323W        W78187  22.086   2.198  11.270 -0.1794  0.0002 -0.1953
77324W        W78188  21.854   3.605  11.206  0.1604  0.2555 -0.2278
77325W        W78189   9.217  28.813  11.765 -0.1008 -0.1963 -0.2383
77326W        W78190  27.462   2.418   2.558  0.1946 -0.0370 -0.1407
77327W        W78191  16.471  15.408  22.493 -0.3035  0.1255  0.0211
77328W        W78192   8.480  23.584   4.716  0.3305 -0.0423  0.1855
77329W        W78193  16.207  12.735   1.149 -0.0527 -0.0888  0.3709
77330W        W78194   5.475  19.272  20.765  0.2843  0.0680 -0.2031
77331W        W78195  15.868  15.691   2.770 -0.0038  0.2547  0.1081
77332W        W78196  24.726  27.490   1.774  0.0442  0.0771  0.1498
77333W        W78197  12.568  16.092   0.105 -0.0952 -0.2217  0.0072
77334W        W78198   5.295  14.929   5.741  0.0536 -0.2802 -0.0412
77335W        W78199   5.665   7.549  24.442 -0.0474  0.0055  0.0725
77336W        W78200  10.089  15.739  23.814 -0.1963  0.3096  0.1093
77337W        W78201   3.692  28.202   9.564 -0.2387 -0.1702 -0.3089
77338W        W78202  24.310   2.499  26.780 -0.0423 -0.3604  0.2878
77339W        W78203  15.776  28.123   6.890 -0.2699  0.0784 -0.1081
77340W        W78204   6.942  24.019  26.766  0.0369  0.0026  0.0842
77341W        W78205  16.714  16.538   4.473 -0.3627  0.1621  0.1644
77342W        W78206  28.204  28.082  10.894  0.3679 -0.1240  0.2098
77343W        W78207  23.255   3.008  10.582 -0.3917  0.3294  0.0633
77344W        W78208  17.562   6.701  21.887 -0.0482 -0.0189 -0.1817
77345W        W78209  13.758  26.068   9.985 -0.1811 -0.0316 -0.1842
77346W        W78210  12.639   0.823   8.645 -0.0961 -0.0455  0.0247
77347W        W78211  10.777  11.638  19.193 -0.0294 -0.0289  0.1471
77348W        W78212  23.175   3.114  22.323  0.0230 -0.0925  0.0441
77349W        W78213   8.684   4.012  26.602  0.1369  0.4633  0.1732
77350W        W78214  13.899   4.896  18.233 -0.0303 -0.1490  0.0072
77351W        W78215  18.214  23.366   3.795  0.0689 -0.1312 -0.0425
77352W        W78216  14.742  21.467  14.252 -0.1926 -0.0118 -0.0141
77353W        W78217   9.383  20.635  25.078  0.0904 -0.1912 -0.3101
77354W        W78218  13.934   0.328  18.876  0.4711  0.0744  0.1637
77355W        W78219  25.320  17.339   1.314 -0.1259  0.1057  0.2841
77356W        W78220   3.476  28.723  11.799  0.2112 -0.1212 -0.3707
77357W        W78221  21.160  22.672  12.142 -0.1131  0.1409 -0.1713
77358W        W78222   3.590  23.696  16.334  0.1426 -0.0739 -0.0877
77359W        W78223  16.391   2.536  27.083 -0.0204 -0.2206  0.1412
77360W        W78224   7.398   7.090  22.591  0.0564 -0.3421 -0.1248
77361W        W78225  12.201   0.162  28.983 -0.0565 -0.1580 -0.2088
77362W        W78226  23.520  26.819  11.712 -0.0682 -0.0283 -0.1585
77363W        W78227  12.684  16.648  15.442  0.0324 -0.3722  0.1967
77364W        W78228  21.695  14.494   0.270  0.0300 -0.0733 -0.2617
77365W        W78229  10.984  25.158  15.428 -0.1175 -0.0122 -0.0208
77366W        W78230  14.280  25.144  28.873  0.0198 -0.4431  0.0486
77367W        W78231  10.337  28.059   8.268  0.1886 -0.2954  0.4212
77368W        W78232  19.329  18.886  11.291 -0.0531  0.0363 -0.3416
77369W        W78233   7.664   8.429   8.605 -0.2283  0.1266 -0.0690
77370W        W78234   3.347  15.462   2.269 -0.2288 -0.2182  0.0585
77371W        W78235   0.776   8.563  25.946 -0.2295 -0.1373 -0.2691
77372W        W78236  20.514   0.673  26.798  0.2455  0.1628  0.3768
77373W        W78237   6.860  20.223   6.328  0.1800  0.2716  0.1666
77374W        W78238   5.499   3.408  22.380 -0.2019  0.1000  0.1960
77375W        W78239  16.797  17.523  20.315 -0.1327 -0.1958 -0.0449
77376W        W78240   6.625   7.498   1.315 -0.0945 -0.0445 -0.1247
77377W        W78241  25.289   5.198  11.724 -0.3686  0.3054 -0.2359
77378W        W78242  24.077   9.181  11.708  0.0448  0.1700 -0.0573
77379W        W78243   4.434  24.383   7.872 -0.1069 -0.0880 -0.1228
77380W        W78244  13.542   6.164  14.892 -0.1693 -0.0919 -0.0564
77381W        W78245  28.328   0.509  12.526 -0.0133 -0.3455  0.2178
77382W        W78246  22.988  13.034   6.078 -0.2272  0.0122  0.3982
77383W        W78247   8.788   9.714   9.515  0.2927 -0.1869  0.2772
77384W        W78248  18.579   6.989  27.969 -0.1105  0.2522  0.1011
77385W        W78249  21.586   5.421  25.707 -0.0120  0.2387 -0.4671
77386W        W78250  21.253  10.568  13.607  0.1702  0.3254  0.1363
77387W        W78251   0.675   9.225  26.563 -0.1557 -0.1711 -0.1417
77388W        W78252  19.644  16.700  15.658 -0.1710 -0.2427  0.1196
77389W        W78253  24.616  25.214   9.901 -0.0006 -0.3064 -0.0869
77390W        W78254  26.106  15.378   8.386 -0.2638  0.0985  0.1983
77391W        W78255  24.146   6.134   9.574 -0.0734  0.0028 -0.0520
77392W        W78256  27.782   3.358  25.119 -0.1815  0.2300  0.1061
77393W        W78257  24.153  16.566  19.186 -0.1419 -0.0472 -0.0022
77394W        W78258  16.131   5.416  10.202  0.2529  0.3454  0.0327
77395W        W78259  18.767  28.183  12.582 -0.2287 -0.2212  0.1718
77396W        W78260  11.752  27.772  14.641 -0.4904  0.3989 -0.0337
77397W        W78261   5.470   1.092   9.557 -0.1380  0.2293 -0.2188
77398W        W78262   9.407  11.533  20.983  0.1596  0.0332 -0.0504
77399W        W78263  15.383  23.841  20.722  0.1634  0.0244  0.0630
77400W        W78264  16.161  26.097   4.946  0.0764 -0.0261 -0.0653
77401W        W78265   5.113  10.643  23.956  0.1764  0.2205  0.1802
77402W        W78266  29.144   5.675  17.597 -0.0729  0.3513 -0.2193
77403W        W78267  10.925  22.619  18.236  0.2054 -0.2777 -0.0946
77404W        W78268  15.168   7.551  14.732 -0.1700  0.0907  0.2518
77405W        W78269  10.304   0.341  25.487 -0.1333  0.0360 -0.0558
77406W        W78270  18.785   0.698  10.481  0.1271  0.1341  0.1332
77407W        W78271   5.812   8.306   7.557  0.0545 -0.0225  0.0021
77408W        W78272  13.713   5.303  24.073 -0.2332  0.4085 -0.0350
77409W        W78273  18.813  28.143   2.160  0.1908  0.0842  0.1453
77410W        W78274  29.142  26.118  15.124  0.0706  0.0246  0.1640
77411W        W78275  21.791   5.593  27.015  0.2016 -0.0685 -0.3270
77412W        W78276  11.409   4.216  10.039  0.1494  0.0666 -0.1805
77413W        W78277   9.154   2.698  17.334  0.1043 -0.3077 -0.0343
77414W        W78278   9.664  10.866   0.616 -0.1184  0.1023  0.0514
77415W        W78279  27.439   4.275  20.182  0.0336  0.0281  0.2467
77416W        W78280   9.257  27.943  13.549  0.0126  0.3091  0.2140
77417W        W78281  28.856  17.349   3.469 -0.1031 -0.0300  0.2162
77418W        W78282  14.888   0.069  27.465 -0.1863 -0.0048  0.0985
77419W        W78283   7.408  21.929   4.629  0.1539 -0.0265 -0.0408
77420W        W78284   9.192  28.338   6.385  0.0267  0.2286 -0.1524
77421W        W78285  23.164  21.741   1.029  0.0042 -0.1177  0.2965
77422W        W78286  15.144   9.291  18.950  0.0517  0.0144  0.3034
77423W        W78287  16.306  28.447   3.131  0.0594 -0.0669 -0.2633
77424W        W78288  24.882  28.215   4.422  0.1333 -0.0565 -0.3028
77425W        W78289  16.550   1.542  27.003 -0.1390  0.2086  0.1658
77426W        W78290  21.840   1.223  20.712  0.3112  0.1145  0.1643
77427W        W78291  14.701   5.181  19.582  0.2157 -0.1314 -0.1170
77428W        W78292   1.728  27.318  12.907  0.4295  0.1251 -0.1382
77429W        W78293  27.258  10.298   3.891 -0.0223  0.2232 -0.0027
77430W        W78294  13.531  21.024  22.460  0.2509 -0.1764 -0.1940
77431W        W78295  24.273   0.135  23.643  0.2246 -0.1787  0.0939
77432W        W78296  11.662   3.186  14.840  0.1475  0.2250 -0.1132
77433W        W78297   3.638  23.908  10.432  0.0476 -0.2881 -0.0744
77434W        W78298  22.676   1.044   1.345  0.2020  0.1250 -0.2014
77435W        W78299  11.497   4.391  19.282 -0.1348  0.0791  0.1126
77436W        W78300  24.740   1.102  18.914 -0.2561  0.1468  0.1883
77437W        W78301   7.109  11.286  10.176 -0.1745 -0.2433 -0.0844
77438W        W78302   1.929  19.763   1.858  0.0187  0.0310  0.3007
77439W        W78303  19.184  28.615   7.781 -0.2949 -0.3552 -0.1314
77440W        W78304   4.787  26.484  26.377  0.0338  0.0338  0.0923
77441W        W78305  19.618  21.859   0.869  0.0292  0.1181 -0.0840
77442W        W78306  24.673   0.031  10.625  0.2399 -0.0488 -0.3471
77443W        W78307  12.455   1.437  28.376 -0.1598  0.0263  0.1324
77444W        W78308  17.954   4.195   5.557 -0.0981  0.2078  0.1009
77445W        W78309  19.245  19.855  14.732 -0.2763 -0.1905  0.1904
77446W        W78310  28.435  12.706  18.615  0.0105 -0.1019  0.0548
77447W        W78311  10.673   8.145  13.005 -0.0562  0.1434  0.0184
77448W        W78312   9.313   4.067  25.887  0.0349 -0.1166  0.1185
77449W        W78313  20.716   1.823  23.796 -0.2010  0.0848 -0.0663
77450W        W78314  25.595  12.335   0.003  0.1374 -0.2679 -0.1846
77451W        W78315  19.115   4.814   1.083 -0.0577  0.0009  0.1294
77452W        W78316  21.625  24.749   0.031 -0.0114 -0.0348  0.4424
77453W        W78317   3.261  15.131  16.853  0.0420 -0.1273 -0.1769
77454W        W78318  23.469  22.532  11.405 -0.1633  0.1615  0.0377
77455W        W78319  25.120  22.593  25.351 -0.0679 -0.0510  0.3197
77456W        W78320   7.397  15.002  28.072  0.0189 -0.0244 -0.2994
77457W        W78321  14.745  27.236   5.961 -0.2552 -0.0204  0.1175
77458W        W78322  23.611  24.517   6.984 -0.2956  0.4564 -0.1416
77459W        W78323  28.332   3.305  19.785  0.2056 -0.1825 -0.5467
77460W        W78324  17.517  23.759   3.565 -0.0542 -0.2670 -0.0508
77461W        W78325  12.012   2.443  10.978 -0.0804 -0.3216 -0.0298
77462W        W78326  20.888  11.255  15.594 -0.1685  0.3964  0.3169
77463W        W78327  26.876  17.517  11.793 -0.0209  0.0506 -0.0534
77464W        W78328  15.421  13.771   6.264  0.1211  0.1335 -0.3670
77465W        W78329   3.059  10.078  16.237  0.4024  0.0684  0.3590
77466W        W78330  21.253  24.056   6.153 -0.1082  0.0401 -0.3783
77467W        W78331  13.169   5.672  24.462  0.1848  0.0001 -0.0295
77468W        W78332  20.819  19.967   7.950 -0.0157  0.0080  0.2742
77469W        W78333  13.949  24.349   6.971 -0.0531  0.2067  0.0744
77470W        W78334  10.719   6.076   4.922 -0.0231  0.0652 -0.0177
77471W        W78335  18.883  25.274   8.381  0.0279  0.0168  0.1547
77472W        W78336  20.077  10.099   9.633 -0.0638  0.0754  0.0025
77473W        W78337   1.946   2.311   0.923  0.1388  0.0018 -0.2004
77474W        W78338   5.514   0.910  10.018 -0.2054  0.0886 -0.1732
77475W        W78339  14.908  28.136   8.725 -0.1945 -0.1411  0.0151
77476W        W78340  25.259  29.066  11.418  0.2321 -0.2678 -0.1504
77477W        W78341  23.146   7.625  13.865  0.0885  0.1578 -0.0191
77478W        W78342  20.074   5.967  12.406 -0.2533 -0.2288  0.1703
77479W        W78343   5.754  10.516   1.503  0.0713 -0.1666  0.0749
77480W        W78344  16.598  10.435  26.417 -0.0389 -0.0817 -0.0922
77481W        W78345  22.204  27.252  21.220 -0.3009  0.1159 -0.0178
77482W        W78346  24.845   2.533  22.485  0.1477 -0.2613  0.3293
77483W        W78347  19.124  13.110   0.800  0.0646 -0.1036 -0.2216
77484W        W78348  27.004   1.598  23.595  0.5179 -0.0603 -0.0567
77485W        W78349  18.947  17.422  19.322 -0.0799  0.0141  0.1532
77486W        W78350  11.509  17.971  26.326  0.0390  0.0260 -0.0575
77487W        W78351   2.817  16.747   7.171 -0.2950 -0.2805  0.1713
77488W        W78352  20.762  22.382   8.172  0.0371 -0.0225 -0.1641
77489W        W78353  23.400   7.771  17.746  0.4948 -0.0052 -0.1830
77490W        W78354   3.641   1.733  27.093  0.0796  0.2407  0.0719
77491W        W78355   2.193  21.764  10.994 -0.2045 -0.2278  0.0831
77492W        W78356   6.977   4.626  28.792 -0.2063 -0.0562  0.0631
77493W        W78357   6.842   0.742   1.404 -0.0594 -0.0494  0.0893
77494W        W78358  20.265  24.779   8.762 -0.1832 -0.0871 -0.0299
77495W        W78359  13.309   9.187  16.431  0.0640  0.2160 -0.1102
77496W        W78360  10.106  14.166  27.317  0.1464 -0.1928  0.1655
77497W        W78361  10.364  22.159   8.297 -0.1263  0.1373  0.1569
77498W        W78362  11.875   0.623  15.818  0.1759  0.0262 -0.2173
77499W        W78363  22.446   5.373   3.054 -0.1449 -0.0390  0.1297
77500W        W78364  17.704   3.883  24.294 -0.1600  0.0720  0.1393
77501W        W78365  18.879  11.320  17.004  0.0803 -0.1954 -0.0978
77502W        W78366  22.433  24.258   9.054 -0.2367  0.2752 -0.0644
77503W        W78367  26.081  23.581  14.461 -0.2269  0.1847  0.0631
77504W        W78368  15.464   0.181  28.711  0.0197  0.1526 -0.2036
77505W        W78369   4.942   6.971   0.670  0.1074  0.0167 -0.1894
77506W        W78370  24.237  22.334   4.031  0.0162 -0.2534 -0.3213
77507W        W78371  23.357  10.138  23.064  0.1146  0.1002  0.0332
77508W        W78372   9.588  25.385  15.820 -0.0067 -0.0853 -0.1519
77509W        W78373  18.646  16.257  12.063 -0.2741  0.0888 -0.0465
77510W        W78374  27.176  20.536  20.273 -0.2403  0.0943 -0.1075
77511W        W78375  12.391  21.136  12.541 -0.1308  0.1856 -0.2339
77512W        W78376   7.682   6.993   4.566 -0.0219  0.3508 -0.1826
77513W        W78377  23.725   8.804   1.192  0.0867  0.0355  0.1672
77514W        W78378  24.017  14.999   8.149 -0.0338 -0.1408  0.1106
77515W        W78379  20.576   2.161  23.489  0.0290 -0.2576  0.1517
77516W        W78380  25.720   8.439  11.437  0.1357  0.3098 -0.2033
77517W        W78381  16.153  21.050   2.131  0.1998 -0.0848 -0.0196
77518W        W78382  16.724  15.498  15.447  0.2580 -0.1446  0.0514
77519W        W78383  12.709   1.503   6.766 -0.0454  0.1339 -0.0126
77520W        W78384   6.337   9.487  28.192 -0.1396  0.0151  0.2992
77521W        W78385   9.370   0.693   7.747  0.1133 -0.0718  0.0352
77522W        W78386  11.821   5.066  14.913  0.0067 -0.0952  0.1425
77523W        W78387  23.539  20.586  27.425 -0.0681  0.0491 -0.0179
77524W        W78388  11.478   6.459  18.449 -0.0588  0.0478  0.3645
77525W        W78389  22.278  25.300  15.451  0.1517  0.2053  0.1999
77526W        W78390  21.111   5.117  10.110  0.1657  0.2134  0.1121
77527W        W78391   3.593  28.527   4.198  0.1356  0.0160 -0.1151
77528W        W78392   4.948  20.964   5.152 -0.0362 -0.1756 -0.0276
77529W        W78393  19.966  23.764  23.746  0.0144 -0.2668  0.1379
77530W        W78394  25.867  20.431   3.920 -0.2639  0.0091 -0.3644
77531W        W78395   6.459   8.163   3.246 -0.0250  0.0638  0.0728
77532W        W78396  16.217  24.791  11.306  0.2245 -0.1796  0.1415
77533W        W78397  23.690   3.936   2.684 -0.2316 -0.0838 -0.0373
77534W        W78398   4.002   7.913  25.329 -0.2533  0.3534  0.1528
77535W        W78399   3.848   0.565  13.984 -0.1488 -0.0366 -0.3553
77536W        W78400  13.364   0.271   5.472 -0.1612 -0.0425  0.1202
77537W        W78401  14.794  19.685  12.728 -0.2709 -0.1145 -0.0350
77538W        W78402   5.395  21.856  28.288 -0.1472 -0.1807  0.0209
77539W        W78403   0.996   2.154  11.229  0.2498  0.2513 -0.1064
77540W        W78404   2.846   1.789  16.105 -0.0256 -0.3400  0.2727
77541W        W78405   8.280   3.945  14.311 -0.2566  0.2365  0.0178
77542W        W78406  11.293   9.425   4.698  0.0396 -0.0306  0.0271
77543W        W78407  25.962  21.416  28.985 -0.0088 -0.0016  0.1357
77544W        W78408  18.615  19.112   4.602 -0.3163  0.1201  0.0295
77545W        W78409  13.126  16.463  13.184  0.2394 -0.2224 -0.1319
77546W        W78410  19.198   0.615  20.093  0.0147 -0.0013 -0.2035
77547W        W78411  23.857  23.462   0.433 -0.2228  0.1322 -0.0605
77548W        W78412   4.814  23.465  27.588  0.1089  0.0394  0.0009
77549W        W78413  23.759  10.231  20.887  0.1238 -0.2780  0.1585
77550W        W78414  19.973  28.194   8.333 -0.3281  0.1117  0.3478
77551W        W78415   3.528  18.278   2.760 -0.1699 -0.0777 -0.1031
77552W        W78416   1.749  28.033  12.944 -0.0431 -0.2328 -0.0447
77553W        W78417  10.372  14.157  19.625  0.1586  0.2255 -0.1967
77554W        W78418  10.450  11.674  15.569  0.4076  0.3782 -0.2471
77555W        W78419   9.354  14.074  25.605 -0.0705 -0.1321  0.0139
77556W        W78420  17.298  22.871  17.353 -0.2083 -0.2186 -0.0035
77557W        W78421  28.045  14.119  23.981 -0.2269  0.1206  0.3511
77558W        W78422  12.296   8.272  14.102  0.0542  0.1298  0.1204
77559W        W78423  15.513   5.684   6.016  0.2963  0.1534  0.0332
77560W        W78424   2.987   5.025  18.993  0.0163 -0.0194  0.2703
77561W        W78425  25.043  23.714  12.273 -0.0079 -0.1226 -0.3407
77562W        W78426  16.036  11.160  11.527  0.0863 -0.3087  0.1676
77563W        W78427   0.820  18.531  28.421  0.1558  0.5380  0.0223
77564W        W78428   5.533   8.417  10.221 -0.1922  0.1880 -0.3129
77565W        W78429   3.231  25.564   8.139 -0.0911 -0.4449  0.3750
77566W        W78430   4.338   2.121  10.701  0.0385  0.2887 -0.2364
77567W        W78431   4.293  25.902  11.019  0.0529 -0.0383 -0.0608
77568W        W78432   6.773  28.136  19.227  0.0089  0.4324  0.1958
77569W        W78433  13.516  28.609   5.490 -0.2857  0.1654  0.3377
77570W        W78434  12.719  20.373  19.798 -0.0312  0.0380  0.0747
77571W        W78435  24.332  26.698  21.643  0.1334  0.1854  0.0610
77572W        W78436  19.834   8.506   2.230  0.1623 -0.3321 -0.2449
77573W        W78437   0.615   3.390  16.321  0.4151 -0.1953 -0.1319
77574W        W78438  26.579  24.640  26.568  0.1726 -0.1328  0.2759
77575W        W78439  11.787  14.804   5.972  0.0596  0.1699  0.0518
77576W        W78440  10.324   3.319  23.623 -0.3795  0.1457  0.1266
77577W        W78441   7.060   8.044   9.377 -0.5539 -0.0755 -0.0758
77578W        W78442  13.534   8.055   3.688  0.0109  0.0112  0.1033
77579W        W78443  21.305  27.203  15.758  0.1395  0.0515 -0.0635
77580W        W78444   3.392  23.542   1.534  0.0749  0.0968 -0.1154
77581W        W78445  24.202  20.831   1.340  0.0675 -0.1656 -0.4750
77582W        W78446  10.692   2.669  12.850 -0.0282 -0.1093  0.0791
77583W        W78447  16.154   5.209   0.397  0.1498  0.1310 -0.2790
77584W        W78448  15.801   8.841  10.890  0.0964  0.0077 -0.0801
77585W        W78449  28.111  26.079   3.659 -0.2645 -0.1558  0.1099
77586W        W78450  25.852  18.459   4.227 -0.2076  0.0007  0.3569
77587W        W78451   5.288   8.518  14.822  0.2903 -0.0660 -0.0139
77588W        W78452  13.889  11.199   5.829 -0.0077 -0.0580  0.0977
77589W        W78453   3.599  12.319  18.375  0.0622 -0.1724  0.1009
77590W        W78454   6.226   3.513  13.092  0.1747  0.1057 -0.2390
77591W        W78455   5.314   7.376  27.186 -0.0300  0.0130 -0.2374
77592W        W78456   5.311  21.666   0.676 -0.0876  0.1218 -0.0624
77593W        W78457   7.576   7.181   9.448 -0.0095  0.2707  0.0325
77594W        W78458  11.145   9.533   7.760 -0.0616  0.0268  0.1969
77595W        W78459  16.200  16.787   3.776 -0.0467 -0.1137 -0.1834
77596W        W78460  25.042  20.660  27.137 -0.1092 -0.2256 -0.1075
77597W        W78461  21.201   1.413   3.722  0.1449 -0.0044  0.1935
77598W        W78462  14.419   7.009   6.962  0.0322  0.2506  0.3330
77599W        W78463   3.187  23.718   4.203 -0.0380 -0.0209 -0.0621
77600W        W78464  22.767  17.345  16.054  0.3813  0.0564 -0.2376
77601W        W78465  13.972  24.700   8.234  0.2598  0.1721 -0.0928
77602W        W78466  12.190  21.327  10.989  0.0205 -0.0920 -0.3929
77603W        W78467  18.740   4.992  23.329 -0.0694  0.0294  0.0300
77604W        W78468  16.202   7.028  19.779  0.0361 -0.2297 -0.1296
77605W        W78469   5.726  23.407  25.885 -0.0013  0.0972 -0.3123
77606W        W78470  21.124  15.532   9.100 -0.0572  0.2372 -0.0526
77607W        W78471  17.687   4.096  13.544 -0.1944  0.2183 -0.0934
77608W        W78472  13.258  26.796  18.864 -0.2047  0.1036 -0.1967
77609W        W78473  22.245   7.109  11.137  0.1553  0.1157  0.0359
77610W        W78474  23.257  17.571  27.977 -0.1354 -0.0481  0.2447
77611W        W78475   7.089  21.065   0.219  0.3027 -0.0757 -0.3333
77612W        W78476   9.419  26.536   6.568 -0.1736 -0.0240  0.1566
77613W        W78477   6.438   9.545   1.487 -0.1454  0.0873 -0.1154
77614W        W78478  18.530   2.090   0.699  0.0943  0.0552 -0.0442
77615W        W78479  18.031  25.194   8.499 -0.1644  0.0002  0.1815
77616W        W78480  20.457  15.195   3.811 -0.0612  0.1881 -0.0087
77617W        W78481  27.122   7.609   9.405 -0.1400  0.2528  0.0611
77618W        W78482  17.153  11.006  20.332 -0.2234 -0.0254 -0.3639
77619W        W78483  11.985  20.040  20.882  0.3639  0.1375  0.1658
77620W        W78484   2.070   4.749  25.081 -0.2005  0.2802 -0.1020
77621W        W78485   7.786  28.789  27.670  0.1355 -0.0886  0.1496
77622W        W78486   0.938  15.611   9.147 -0.0271 -0.0125  0.0944
77623W        W78487  13.914  28.879  23.170  0.2488 -0.0632  0.0860
77624W        W78488   3.760  26.662   0.915  0.1709 -0.1543  0.2500
77625W        W78489  28.291  26.258  14.013 -0.1662  0.1837  0.1558
77626W        W78490   7.539  10.073  25.147  0.0123 -0.0202 -0.1938
77627W        W78491   2.625   6.490  10.783 -0.1206  0.1184  0.3363
77628W        W78492   4.146   0.890  24.554  0.0381  0.0361 -0.1350
77629W        W78493  20.492   2.405  18.436 -0.1240 -0.2348 -0.0405
77630W        W78494   8.064   5.824   1.913  0.2940  0.1153 -0.1994
77631W        W78495   1.453  19.253   0.215  0.1697  0.1580  0.1968
77632W        W78496   6.841  11.797  26.064  0.1511 -0.0469  0.1699
77633W        W78497   7.121   6.100   1.984 -0.0131 -0.0608  0.1204
77634W        W78498  12.358   7.440  14.710  0.1000 -0.2588 -0.1416
77635W        W78499  26.222  24.506  20.522  0.0450  0.1761 -0.1971
77636W        W78500   8.025  28.767  18.576  0.0043  0.1080 -0.0684
77637W        W78501  18.131  26.313   1.183  0.2642  0.0521 -0.3404
77638W        W78502  16.364   3.054   5.609  0.3995  0.0538  0.1134
77639W        W78503  18.413  13.021  28.515  0.1036  0.3862 -0.0893
77640W        W78504  23.002   0.368   4.333 -0.1759 -0.2110 -0.1501
77641W        W78505  20.153  19.443  17.155 -0.1551 -0.1250  0.0122
77642W        W78506   4.490  11.751  26.951  0.0193  0.1481 -0.2044
77643W        W78507  28.934   4.140   7.153 -0.0471 -0.0150  0.2250
77644W        W78508   6.506   2.729   1.481 -0.0718 -0.0342 -0.3308
77645W        W78509  19.585  22.511   8.806 -0.1475  0.0137  0.0742
77646W        W78510  24.892   5.845  19.900 -0.2955 -0.0922  0.1441
77647W        W78511  10.263   4.665  12.433 -0.1229 -0.2455  0.1205
77648W        W78512  18.858  23.829  20.637 -0.1392  0.1061 -0.0141
77649W        W78513   9.960  18.714  13.190 -0.1931  0.1811 -0.0238
77650W        W78514  15.545  10.570  17.327  0.0100 -0.0897 -0.1126
77651W        W78515  17.718  17.783   1.356 -0.0086  0.2130  0.2461
77652W        W78516  17.254  25.650   8.601 -0.1997 -0.2439  0.1324
77653W        W78517  12.385  17.256  11.140 -0.0219 -0.2901  0.1160
77654W        W78518  19.766   2.425  22.940 -0.0119 -0.2394  0.1518
77655W        W78519  15.139   4.345   8.226  0.1835 -0.0018  0.0007
77656W        W78520   9.764   7.656  12.196  0.1340 -0.0704  0.0682
77657W        W78521   4.741  20.640   4.347 -0.0682  0.0208 -0.4039
77658W        W78522  17.033  16.890  12.060  0.1781 -0.0353  0.0177
77659W        W78523  16.703   1.038   0.981 -0.3091  0.0710  0.0519
77660W        W78524   9.815  27.075  25.995 -0.2213  0.0445  0.0158
77661W        W78525  24.724   7.223   8.139  0.1273 -0.2460  0.1665
77662W        W78526  25.719  11.806  10.279  0.0227 -0.0275 -0.1898
77663W        W78527  27.899  25.269  20.037 -0.1354  0.0704  0.0867
77664W        W78528   1.419  23.085  11.774  0.1308 -0.1856  0.0085
77665W        W78529   6.434   5.288   4.630  0.2746  0.0262  0.0828
77666W        W78530  19.780   5.291   0.099 -0.3883  0.1431 -0.2194
77667W        W78531  12.213   1.426  23.902 -0.1646 -0.0983 -0.0921
77668W        W78532  26.243   4.162  26.331  0.1618  0.1398 -0.0798
77669W        W78533  13.180  10.293   0.775 -0.4282  0.0112  0.2785
77670W        W78534  26.299  20.547  25.096  0.1779 -0.0714 -0.2138
77671W        W78535  26.636   9.743   3.950  0.3700  0.3829  0.0690
77672W        W78536   8.586   6.410  20.756 -0.1751 -0.1922 -0.0303
77673W        W78537  16.873  28.352  22.655 -0.2830 -0.1040  0.0555
77674W        W78538  21.460  26.699  21.489 -0.2013  0.2247  0.0353
77675W        W78539  23.189   2.473  11.987  0.0775 -0.2707 -0.2820
77676W        W78540   7.737   7.581   7.090 -0.0783 -0.1108  0.0691
77677W        W78541  16.413   3.071  26.403 -0.1689 -0.1465 -0.0511
77678W        W78542  10.700   2.126  18.950 -0.2016  0.0565  0.1579
77679W        W78543   6.677   3.699  13.806  0.0840 -0.2603 -0.0503
77680W        W78544  21.432  22.144  14.895  0.1051 -0.0842  0.0328
77681W        W78545   6.898  10.290   5.906  0.2613 -0.1569 -0.1851
77682W        W78546  16.122  18.510  27.671  0.0999  0.2342 -0.3232
77683W        W78547   2.845  19.397  19.743  0.1123  0.0916  0.0637
77684W        W78548  26.006  15.612  17.798 -0.0270 -0.2774 -0.1531
77685W        W78549   9.572   3.557  10.878 -0.0372 -0.1635 -0.1961
77686W        W78550  28.543   9.973   8.749  0.0830 -0.1363 -0.1783
77687W        W78551   1.240  22.916  17.126 -0.3909  0.2065 -0.0850
77688W        W78552  17.680   7.111  17.866  0.1659  0.2184 -0.0674
77689W        W78553  25.628   3.296  26.078 -0.1533  0.0142  0.1705
77690W        W78554   9.344   2.442  12.436  0.1133 -0.1524  0.2767
77691W        W78555   7.696  14.123   1.654 -0.0256 -0.2039 -0.1779
77692W        W78556  13.502   8.417   5.379  0.0193  0.0339  0.0871
77693W        W78557  10.750  11.279  10.999 -0.2000 -0.0521 -0.1964
77694W        W78558   4.152   0.017  20.520  0.2433 -0.0224  0.1411
77695W        W78559  13.658  23.160  23.155 -0.1907  0.0303  0.1249
77696W        W78560  23.273  22.293  17.598  0.1142  0.0377  0.0945
77697W        W78561  26.116  14.355   5.859  0.0842  0.0909 -0.0650
77698W        W78562   0.577  28.686  19.734 -0.2521 -0.0704 -0.5011
77699W        W78563  23.922   6.881  26.590 -0.0373 -0.4395  0.0708
77700W        W78564   2.434  26.922   1.400 -0.0580  0.2536  0.2323
77701W        W78565  13.151  18.736   2.273  0.1571 -0.1619  0.3039
77702W        W78566  15.166   1.641  23.350  0.0322  0.2523 -0.4527
77703W        W78567   9.637  21.743   1.633  0.1016  0.0173 -0.0146
77704W        W78568   6.008  22.135  27.176 -0.1384  0.3636 -0.0185
77705W        W78569  17.804  28.983  27.772 -0.2870  0.0675 -0.0979
77706W        W78570  12.653  13.847  11.524  0.0561  0.1088 -0.0379
77707W        W78571   4.093  18.283   7.812  0.1175 -0.0330  0.1021
77708W        W78572  24.195  17.955  10.755 -0.1987  0.1099 -0.1286
77709W        W78573  10.619   0.213  25.875  0.1583  0.1159 -0.0830
77710W        W78574  12.869  18.671  26.921 -0.0121  0.1408  0.1030
77711W        W78575  24.774   6.753  11.046  0.3496 -0.1998  0.0639
77712W        W78576  19.984  11.132   0.913 -0.1079 -0.0564  0.1595
77713W        W78577   3.870  28.862  27.568  0.0780  0.2365 -0.2224
77714W        W78578  27.619   1.023  24.635 -0.2008  0.0318 -0.1678
77715W        W78579  14.744  11.963  10.260 -0.1641  0.1802 -0.2436
77716W        W78580  15.777  24.275   1.065 -0.1754 -0.3802 -0.2599
77717W        W78581  21.618   0.759   4.593  0.0359  0.0473  0.0567
77718W        W78582   1.810   6.767  19.060 -0.0820  0.3357 -0.1494
77719W        W78583   0.661   5.959  11.495  0.1460 -0.2859  0.0651
77720W        W78584   8.470  16.829   9.857  0.0600 -0.0694  0.2843
77721W        W78585  18.278  28.417  23.020 -0.0672 -0.0214  0.2968
77722W        W78586  21.178  21.566   3.873 -0.0252 -0.2463 -0.0879
77723W        W78587  17.332  14.569  18.581 -0.1450 -0.0882  0.0079
77724W        W78588  18.716   3.266   9.060 -0.1203  0.2717  0.2607
77725W        W78589  25.387  27.954   6.126  0.0532 -0.3051  0.0342
77726W        W78590  16.719  25.284   1.101 -0.1355 -0.0891  0.2719
77727W        W78591  24.891  23.580  26.268 -0.0418 -0.1050 -0.0985
77728W        W78592  28.943  28.886  21.989  0.1124  0.0900  0.2279
77729W        W78593  10.704   2.865  20.550  0.3389 -0.0796  0.1225
77730W        W78594  20.060   8.626  26.435 -0.0279 -0.0172  0.0892
77731W        W78595   2.572   6.480  11.260 -0.0763  0.3626 -0.1031
77732W        W78596  19.900  25.791  18.569 -0.2901  0.0885  0.3507
77733W        W78597  13.874   4.420  15.888  0.0142 -0.1779  0.2147
77734W        W78598  11.242  11.775   5.973 -0.2946 -0.0776 -0.1045
77735W        W78599  13.112  16.593   8.648 -0.1195  0.2007 -0.0188
77736W        W78600  22.647  24.843   8.453 -0.0644  0.1105 -0.2425
77737W        W78601   5.191  12.348  15.896 -0.0881 -0.3655 -0.0839
77738W        W78602  21.193  27.497   8.545  0.1207  0.2006  0.1632
77739W        W78603  15.858   7.012  23.061 -0.0472  0.1287 -0.2479
77740W        W78604   5.328  15.872  14.824  0.2031  0.0779  0.1953
77741W        W78605  18.068  13.756  12.594 -0.0929  0.0759  0.0349
77742W        W78606   6.236  24.886  10.398  0.0784  0.0161  0.2484
77743W        W78607  20.317  27.129  18.255 -0.0157 -0.4074  0.1033
77744W        W78608   5.058   2.384   2.541  0.0584 -0.1600 -0.1808
77745W        W78609   2.209   2.067  20.120  0.2381  0.4536  0.1042
77746W        W78610   3.472  21.483  27.925  0.1259  0.0945 -0.1996
77747W        W78611   0.002   5.180  25.671 -0.3185 -0.3692  0.4561
77748W        W78612  12.873   3.615  17.791  0.0423 -0.0922 -0.0684
77749W        W78613  18.486  29.015  17.258 -0.1879  0.1716  0.0014
77750W        W78614  11.302   3.164  12.170 -0.1363  0.3184 -0.3116
77751W        W78615   8.360  28.586   6.685  0.0405 -0.1592 -0.0720
77752W        W78616  13.718  16.084  14.566 -0.2366 -0.1490 -0.3210
77753W        W78617   8.429  23.208  28.971 -0.0453  0.0578 -0.1096
77754W        W78618   9.697   2.147   2.999 -0.0937 -0.4220 -0.0628
77755W        W78619  10.841   0.311   5.378  0.3444  0.0404 -0.0056
77756W        W78620  20.411  19.830  21.019  0.1090  0.0320  0.2435
77757W        W78621  17.090   5.374   2.200  0.0700  0.1838 -0.3053
77758W        W78622  28.298   3.653   7.436  0.2367  0.2384 -0.0002
77759W        W78623   8.420  26.483  24.783 -0.0650  0.2241 -0.3398
77760W        W78624  22.540  21.185  14.754 -0.1499 -0.1908  0.0239
77761W        W78625  18.173  22.442   9.711  0.0367  0.3806 -0.4397
77762W        W78626  18.579   5.791  15.011  0.1220 -0.0466  0.1458
77763W        W78627   9.924  14.830  13.159  0.1161 -0.2212 -0.1436
77764W        W78628  14.490   3.304   5.632  0.1011  0.0704 -0.0373
77765W        W78629   5.506  28.686  17.218  0.3229 -0.0051  0.1984
77766W        W78630  24.710  20.822  15.643  0.1654 -0.2292 -0.3309
77767W        W78631  16.515  10.580  23.859  0.0203  0.0795 -0.2841
77768W        W78632  17.547   3.486  11.657 -0.0442  0.0081 -0.0393
77769W        W78633  19.994  15.103   2.931  0.0880  0.1895 -0.2165
77770W        W78634  18.410   3.947   4.968 -0.1599 -0.4023 -0.2520
77771W        W78635   6.163  28.160   1.835 -0.1185  0.2284 -0.1828
77772W        W78636  27.650  10.112   5.265  0.1123  0.1963  0.1033
77773W        W78637  11.883  11.020  23.585 -0.3123  0.0136  0.2046
77774W        W78638  26.944  17.488  18.932  0.1680  0.1958  0.1550
77775W        W78639  14.601   7.797  11.210  0.1515 -0.3270 -0.1082
77776W        W78640   0.525   7.445   0.985  0.0412  0.2761 -0.3066
77777W        W78641   6.428   5.864  23.224 -0.1712  0.0322  0.1188
77778W        W78642  28.191  21.331   4.430  0.0917  0.0166 -0.2622
77779W        W78643  12.508   9.516  23.996 -0.0508  0.2247  0.2360
77780W        W78644  29.013   2.954   5.190 -0.2510  0.2607  0.1131
77781W        W78645  16.163  18.158   0.501 -0.1416  0.4603  0.0740
77782W        W78646  25.032  22.684  28.360  0.0789  0.3144 -0.0876
77783W        W78647  19.680  14.202  26.315 -0.0148 -0.3268  0.0187
77784W        W78648   6.793  28.040  15.569 -0.4156  0.0484  0.0823
77785W        W78649  14.093   2.597   4.625 -0.0309 -0.1420  0.1449
77786W        W78650   3.014  23.675   8.472  0.0457  0.0959  0.0328
77787W        W78651  23.570  13.364   8.917 -0.0751  0.2698  0.0716
77788W        W78652  10.639  28.971  27.593 -0.0977  0.1204  0.1032
77789W        W78653  11.740   2.507  26.539  0.1079 -0.3057 -0.1875
77790W        W78654  20.906  18.473  25.780  0.0859 -0.1974  0.1337
77791W        W78655   5.342   5.819  25.813 -0.1093 -0.1911 -0.1733
77792W        W78656  11.209  10.103  26.583 -0.2538  0.0063 -0.3037
77793W        W78657  17.297   6.290  11.193 -0.2202  0.1473 -0.1308
77794W        W78658  13.429  21.836   1.791  0.3460  0.0904  0.0467
77795W        W78659   7.268  27.046  17.997 -0.2808 -0.1135  0.3022
77796W        W78660   4.701   2.955   3.473 -0.2630  0.1581 -0.0763
77797W        W78661  13.909   7.083  18.391  0.2224 -0.0306 -0.0248
77798W        W78662   3.017  29.021  10.674 -0.1745  0.0495  0.3458
77799W        W78663  22.947   7.277   9.122 -0.0034 -0.1099  0.2579
77800W        W78664  22.662  17.205  26.619 -0.0670  0.2518  0.0870
77801W        W78665  28.728  11.102  19.061  0.1010  0.0107 -0.0428
77802W        W78666   8.511  14.742   5.618 -0.0452 -0.0223  0.1065
77803W        W78667  24.213  27.023  20.612 -0.1246 -0.2811 -0.2608
77804W        W78668   4.379  21.386  10.489  0.0057  0.0932 -0.2708
77805W        W78669  17.645   9.636   8.512 -0.2927 -0.1372 -0.0907
77806W        W78670   3.401   0.927  23.384 -0.2043  0.0997  0.1554
77807W        W78671  11.735  19.242  22.223 -0.0348  0.3039 -0.1508
77808W        W78672  18.168  29.026  18.529 -0.0930  0.2455  0.2725
77809W        W78673   7.235   6.659  21.459 -0.0681  0.0855 -0.4515
77810W        W78674  17.598   6.798  26.075 -0.1171  0.4304 -0.0139
77811W        W78675   2.988  18.470  23.350  0.2613 -0.2950  0.0565
77812W        W78676  18.691  22.803  15.205  0.0015  0.0539  0.0320
77813W        W78677  27.654  14.424  19.126 -0.3407  0.0823 -0.1601
77814W        W78678  12.710   6.617  10.329  0.1059 -0.4070  0.2494
77815W        W78679   3.557   6.091  18.699 -0.3379 -0.2198  0.0210
77816W        W78680  18.187  23.501   9.036 -0.0751  0.0030 -0.2722
77817W        W78681  19.452  16.737   3.749  0.1685  0.1313  0.2106
77818W        W78682  25.621  10.770  14.762  0.3245 -0.3576  0.0187
77819W        W78683   6.675   4.299   3.829  0.0180 -0.0694  0.1523
77820W        W78684  11.796   1.002  25.578  0.4462  0.0418 -0.1213
77821W        W78685   2.734  20.453  14.413 -0.1710 -0.0976 -0.0150
77822W        W78686  21.591  23.531  25.556 -0.1002  0.0895 -0.0999
77823W        W78687  17.415  14.970  15.551  0.1553  0.0949 -0.2887
77824W        W78688   7.338  22.320  16.072  0.1883  0.0398 -0.0747
77825W        W78689  26.592  11.669  10.554  0.2878  0.2259 -0.1104
77826W        W78690   1.458   7.419   6.400  0.2242  0.0925 -0.0158
77827W        W78691  28.968  27.673  16.287 -0.1471  0.0400 -0.0483
77828W        W78692   4.214   9.228  10.867  0.0942  0.0820  0.0789
77829W        W78693  26.583  15.329  24.433  0.2010  0.2110 -0.1155
77830W        W78694  23.267   9.078  16.383  0.0609  0.0662 -0.2834
77831W        W78695   9.149   5.412  16.045 -0.3039  0.0352  0.1239
77832W        W78696   7.872  21.861  11.682 -0.0035 -0.1074 -0.0106
77833W        W78697   8.189  24.891  13.001 -0.3407 -0.2803 -0.0459
77834W        W78698  27.889   9.616   4.051 -0.1278 -0.3868 -0.0628
77835W        W78699   3.074  12.176  17.889  0.3042 -0.1767 -0.0252
77836W        W78700   3.923   3.347   9.779 -0.1031  0.0964 -0.1108
77837W        W78701   2.376   6.577  28.332  0.3322 -0.0937  0.1569
77838W        W78702   8.929  27.746   2.913 -0.2857  0.0231 -0.1091
77839W        W78703   4.704  13.119  10.655 -0.0075  0.0628 -0.0653
77840W        W78704  16.585   1.939  20.059 -0.2356 -0.1254 -0.2910
77841W        W78705  20.327   1.252  15.911 -0.2190  0.1370 -0.3253
77842W        W78706  19.442  24.427  11.974  0.1143  0.0437 -0.0567
77843W        W78707  15.549  28.048   6.136  0.0241  0.0688 -0.1879
77844W        W78708   7.412   4.741  26.124 -0.0121  0.0678 -0.0305
77845W        W78709  18.744  25.258  26.437 -0.2755 -0.0329  0.0129
77846W        W78710  16.237  10.764  20.101 -0.0367 -0.1456  0.0606
77847W        W78711   0.844  12.128  19.944  0.0179 -0.1682 -0.0052
77848W        W78712   6.709  23.897  12.320 -0.0242  0.1496 -0.2888
77849W        W78713  12.655   4.415   7.203  0.2723 -0.2911  0.0643
77850W        W78714   8.278  27.519   1.226  0.2341 -0.1965  0.0693
77851W        W78715   9.096   7.598  11.000 -0.0570 -0.0490 -0.0762
77852W        W78716   8.289  12.229  10.724 -0.0334  0.2058  0.1488
77853W        W78717  23.215   7.722  18.379  0.4251  0.0310 -0.0455
77854W        W78718   9.563  28.362   1.073 -0.1317 -0.1875 -0.3298
77855W        W78719  19.504   7.359   5.027  0.0835  0.3471  0.0059
77856W        W78720  23.301  11.617  11.331 -0.1001  0.3828 -0.1095
77857W        W78721  10.894   6.939   7.819  0.1530 -0.0313 -0.0983
77858W        W78722  13.118  27.964  25.990 -0.0537 -0.1486 -0.3813
77859W        W78723  16.523  28.789  28.577  0.0916 -0.0392  0.1490
77860W        W78724  23.325  27.399   2.638  0.3857  0.2608  0.1409
77861W        W78725   8.385  15.343  18.125 -0.1890 -0.0211  0.0288
77862W        W78726   2.053   5.698  17.212 -0.1584 -0.0059  0.2164
77863W        W78727  26.621   0.555  10.061 -0.1006 -0.2003 -0.1058
77864W        W78728   8.540  26.207  11.467  0.3745 -0.2314  0.2694
77865W        W78729  10.901   0.790   5.789 -0.1457  0.0430 -0.0282
77866W        W78730  15.606  10.057   6.847  0.1905  0.2947 -0.1226
77867W        W78731  20.863   8.885   0.275  0.0843 -0.0437  0.1092
77868W        W78732   8.601   8.860   3.771 -0.2539  0.1712  0.0359
77869W        W78733  15.763  19.341  23.436 -0.3664  0.2104  0.1216
77870W        W78734   3.204  28.155   3.283  0.0718  0.0902 -0.0907
77871W        W78735   8.059   1.226  24.395 -0.1637 -0.0063  0.1549
77872W        W78736   5.199   2.939  11.394  0.4553  0.1184 -0.0091
77873W        W78737  18.127  22.387  22.701  0.1483 -0.0269  0.0275
77874W        W78738   3.098   7.526  19.783 -0.2076 -0.2826  0.1194
77875W        W78739  27.134  21.995  21.661  0.0703 -0.1455  0.4502
77876W        W78740  17.546  15.891  23.816  0.0236 -0.1201  0.4241
77877W        W78741   6.622   6.488  14.443 -0.4038  0.2425  0.2469
77878W        W78742   4.195  25.595  23.805 -0.2150  0.1014  0.1823
77879W        W78743  15.198   6.892  14.470 -0.3135  0.1712  0.0733
77880W        W78744  15.830   3.023   8.439  0.1187  0.0484 -0.1694
77881W        W78745   4.688  22.218  15.048 -0.1610  0.0639  0.2462
77882W        W78746   1.679  26.607  15.903 -0.1652 -0.1148  0.1874
77883W        W78747  16.120   1.678  14.923  0.1507 -0.3095 -0.0437
77884W        W78748   3.442  12.351  13.372  0.3280  0.1963 -0.1871
77885W        W78749  11.718  25.619  23.717  0.2004 -0.1751  0.0990
77886W        W78750  24.209  20.247  23.434 -0.1681  0.0069  0.0172
77887W        W78751  18.171  21.101  27.546  0.0560  0.0830  0.0028
77888W        W78752  12.994  12.691  10.717  0.1889  0.2725 -0.1830
77889W        W78753  10.307   6.391   5.342 -0.1464  0.2584 -0.1594
77890W        W78754   3.700   3.248  24.569  0.2290 -0.3462 -0.0554
77891W        W78755   9.345  22.845  13.198 -0.2235  0.0988 -0.2239
77892W        W78756   0.904   7.077  23.691  0.2069 -0.0123  0.1047
77893W        W78757   8.537  18.339  12.912  0.0964 -0.3539  0.0039
77894W        W78758  11.176  17.028   7.230  0.1745 -0.1975  0.1151
77895W        W78759  12.577  19.460  17.506 -0.0381  0.2932 -0.1219
77896W        W78760  18.887   9.411  13.712  0.0533  0.2646 -0.0224
77897W        W78761  23.544   8.071   1.793 -0.1378 -0.2767  0.1947
77898W        W78762  22.443  11.377  23.933  0.0152 -0.1063  0.0789
77899W        W78763   2.680  21.464   6.593 -0.3600  0.0838  0.3317
77900W        W78764  17.626   4.955  14.950 -0.2038 -0.1723  0.4349
77901W        W78765  22.114   1.740  16.627  0.1494 -0.0452 -0.0228
77902W        W78766   1.229   3.122  10.553 -0.3101  0.0488  0.1346
77903W        W78767  16.899   5.561  15.329 -0.1128 -0.1022 -0.1664
77904W        W78768  18.555  15.637   6.204 -0.1191 -0.0092 -0.1906
77905W        W78769  26.132  27.531   8.343 -0.2959  0.0124 -0.1808
77906W        W78770  20.774  22.383  24.483  0.1958 -0.1813  0.2625
77907W        W78771   0.721  11.675  21.780  0.2640 -0.1096  0.2915
77908W        W78772   0.452   3.481  11.386 -0.4430 -0.1885 -0.0728
77909W        W78773  14.366  26.425   5.779 -0.1067  0.0484  0.1906
77910W        W78774   0.317  27.337  22.509 -0.3555 -0.2631  0.1879
77911W        W78775   1.888  25.011  20.177 -0.2466 -0.0171 -0.4532
77912W        W78776  26.438  11.893   3.801  0.3423  0.0707  0.1689
77913W        W78777  16.856   4.819  18.125  0.0121  0.3201 -0.4906
77914W        W78778  29.098  13.713  10.755  0.1929 -0.0042  0.0220
77915W        W78779  27.129  19.228  25.402 -0.0222  0.2672  0.0421
77916W        W78780   4.886   5.732  26.105 -0.1457  0.4040 -0.4101
77917W        W78781  25.620  17.365  13.016  0.1072  0.3253  0.3233
77918W        W78782  22.815  25.148   6.234  0.0965 -0.1092  0.0557
77919W        W78783  28.666  17.793   9.702  0.1045 -0.1840 -0.3239
77920W        W78784  23.617  27.546  27.086  0.0455  0.0307 -0.1328
77921W        W78785  28.803   1.921  12.838 -0.0377  0.0072  0.2845
77922W        W78786  16.221   9.171  15.551  0.1194  0.0675 -0.0959
77923W        W78787  12.653   2.724  20.341  0.1071  0.2065 -0.1233
77924W        W78788  18.427   1.637   6.613 -0.0770 -0.1033  0.2482
77925W        W78789  21.786  23.523   5.064  0.0609 -0.2442 -0.0487
77926W        W78790   0.485   3.254   1.556 -0.0354  0.2209 -0.0756
77927W        W78791  16.305  29.073   8.486 -0.1411  0.0431 -0.1885
77928W        W78792   0.359   6.493  24.243 -0.3655 -0.1041  0.1419
77929W        W78793   3.242  22.422   3.474 -0.2115  0.0937  0.0732
77930W        W78794   8.105  23.941   7.199 -0.1571 -0.1631  0.2797
77931W        W78795   7.807  14.141   5.174 -0.1629 -0.1428 -0.3589
77932W        W78796   9.162  10.440  27.060 -0.2469 -0.1689  0.2470
77933W        W78797   0.984   0.662   9.012  0.0014 -0.2695 -0.2838
77934W        W78798  26.882  25.380   7.400 -0.3379  0.3483 -0.0175
77935W        W78799  26.218  15.035   0.085 -0.2952  0.0157 -0.0710
77936W        W78800  16.221  27.532  14.083 -0.1532 -0.0403  0.1777
77937W        W78801  26.738  10.883  19.985  0.0702  0.2259 -0.1992
77938W        W78802   1.168  16.807  22.345 -0.0785 -0.2185 -0.1799
77939W        W78803   1.933  15.374  16.249  0.3551  0.0663  0.3159
77940W        W78804  10.892   4.391   4.280 -0.1382  0.2932 -0.2205
77941W        W78805  23.663   5.698  28.290 -0.1012 -0.0077  0.0203
77942W        W78806   3.540   1.141  15.592 -0.1454  0.0992 -0.1169
77943W        W78807   9.647  20.848  17.570  0.0191 -0.0305 -0.0782
77944W        W78808  11.188   3.086  11.710 -0.0265  0.3493  0.0293
77945W        W78809  16.401   1.933   5.719  0.2624  0.1148 -0.5241
77946W        W78810  21.002  28.565   4.929 -0.0394  0.2568  0.0028
77947W        W78811  17.330  27.485  14.189 -0.1845  0.2811  0.1390
77948W        W78812  20.537   3.011  14.590 -0.4026 -0.1396 -0.0566
77949W        W78813  25.365  11.839  21.350  0.1663  0.0669 -0.1316
77950W        W78814  21.540   6.822   5.941  0.1578 -0.0315 -0.0582
77951W        W78815   4.793   7.957  20.998 -0.1318  0.0542 -0.2796
77952W        W78816   9.288   3.860   5.063 -0.0623 -0.0709  0.1253
77953W        W78817  24.902  23.096  11.677  0.0635 -0.0706 -0.1628
77954W        W78818   8.048  28.886  19.560  0.2448 -0.2700  0.2142
77955W        W78819  25.323  20.641  13.260  0.1094  0.3377  0.0411
77956W        W78820  27.877  13.305   9.998  0.0951  0.2072 -0.2007
77957W        W78821  14.965   0.808  18.784  0.1217 -0.1233 -0.2482
77958W        W78822  13.127   8.391   8.078  0.0053  0.0247  0.2039
77959W        W78823  28.751   3.155  15.792  0.0376  0.2598 -0.1878
77960W        W78824  26.008  10.142  17.772 -0.0710  0.0891  0.0426
77961W        W78825  11.625   1.680   9.883 -0.0110  0.0170 -0.2854
77962W        W78826   9.894  15.509   2.921 -0.4627 -0.1722  0.0354
77963W        W78827  10.968   4.147  11.088  0.2639  0.0013  0.2147
77964W        W78828  17.559  25.919  25.220  0.2222  0.4677  0.0920
77965W        W78829  24.956  16.152  15.979  0.0236 -0.0458  0.0046
77966W        W78830  24.777   3.804   3.237 -0.1807 -0.0515  0.1280
77967W        W78831  12.332  14.061  13.144 -0.1181  0.0391  0.3042
77968W        W78832   6.002  28.808  27.268 -0.1647  0.2546  0.1779
77969W        W78833  11.267  12.020   8.094 -0.3150 -0.1477  0.1719
77970W        W78834   7.667  15.009  13.097 -0.0894 -0.0683 -0.0806
77971W        W78835  15.888  14.501   8.461  0.0862  0.0429  0.2530
77972W        W78836  10.925  24.547  13.164 -0.0028 -0.0079 -0.2671
77973W        W78837   9.621  10.298  24.217  0.0363  0.1071  0.1716
77974W        W78838   6.641  25.186  10.166  0.1566  0.1403  0.2332
77975W        W78839   8.067  20.758   1.913 -0.0375 -0.1036  0.1405
77976W        W78840  11.927   7.844  25.219  0.2893  0.1214  0.1770
77977W        W78841   3.618   7.045  12.536 -0.2585 -0.0574 -0.1654
77978W        W78842  25.858  25.519  11.268 -0.2371 -0.1188  0.0249
77979W        W78843   1.041  13.276  15.191 -0.0012 -0.0762 -0.0734
77980W        W78844   2.285   7.000  29.110 -0.0447 -0.1313 -0.1308
77981W        W78845  20.704   5.087  24.959 -0.1345 -0.1535 -0.2320
77982W        W78846  11.631   6.838  18.789 -0.0093  0.1999 -0.0216
77983W        W78847  25.395  24.470   6.800 -0.0594 -0.1499  0.3516
77984W        W78848  23.756  14.913   7.464  0.3140 -0.0089  0.1132
77985W        W78849   0.378  10.420   2.914 -0.0766 -0.0504 -0.3139
77986W        W78850   6.590   8.086  10.304  0.1394  0.0800 -0.0154
77987W        W78851   7.351  24.703  25.920  0.3749 -0.0787  0.0984
77988W        W78852   8.978  19.742  25.535  0.0387 -0.0802 -0.2603
77989W        W78853  21.553   9.923   1.554  0.0328 -0.0909  0.1877
77990W        W78854   1.226  28.385  16.848 -0.2261 -0.1452 -0.1791
77991W        W78855  19.764   9.986   1.098 -0.1261  0.4320  0.1171
77992W        W78856  19.106  28.607   2.388  0.3418  0.0964  0.2307
77993W        W78857  10.436  16.813  28.888 -0.2921  0.1596  0.0514
77994W        W78858  16.961  21.381   2.241 -0.0285 -0.4956  0.3682
77995W        W78859  17.231   9.921  23.152 -0.2763  0.0304 -0.0354
77996W        W78860   3.397   5.831   3.261 -0.0409 -0.1212 -0.0745
77997W        W78861  27.265   9.079  18.615  0.3110  0.2072 -0.2115
77998W        W78862  19.942   4.965   3.110  0.1719 -0.0802 -0.1846
77999W        W78863  13.283  19.572  27.069  0.0697 -0.2906 -0.1759
78000W        W78864  19.175  26.229  14.287 -0.1607  0.1470  0.0065
78001W        W78865   5.118  13.708  17.343  0.1488 -0.1953  0.1717
78002W        W78866  15.304   6.005  24.143 -0.1604  0.0297 -0.1140
78003W        W78867  12.452  10.639  11.210  0.0458  0.0231 -0.0176
78004W        W78868  12.404  23.711  10.554  0.0459 -0.2944  0.0942
78005W        W78869  28.514  20.566   5.929  0.0336 -0.0997 -0.2021
78006W        W78870  12.356  21.120   8.763  0.0531 -0.0873 -0.1425
78007W        W78871  12.434   1.572  29.018  0.1140  0.0708 -0.1151
78008W        W78872   6.877  11.955   6.609  0.2397 -0.2816  0.1234
78009W        W78873   3.975   6.195  26.262  0.0505  0.0455 -0.0222
78010W        W78874  14.409  22.758  18.335 -0.0077 -0.0444 -0.2163
78011W        W78875  18.344  13.842  25.386  0.2567 -0.0788  0.1279
78012W        W78876  13.099  28.117   6.197  0.3107  0.1506  0.0107
78013W        W78877   3.767   6.594   4.120  0.0915  0.2794  0.3098
78014W        W78878   1.609  13.590  21.926  0.1221  0.0178  0.0098
78015W        W78879  19.402  23.460   9.181 -0.0241  0.0231 -0.0920
78016W        W78880  12.104  23.652  27.672 -0.0929  0.2120  0.0700
78017W        W78881  26.050  21.806  13.149 -0.1821  0.4230  0.0243
78018W        W78882   6.106  12.074   9.786 -0.0903  0.1126  0.1699
78019W        W78883  18.175  13.524  22.804  0.0633 -0.0566  0.4882
78020W        W78884   4.033  17.625   5.694  0.5162 -0.5099 -0.0592
78021W        W78885  19.087  13.206  19.651  0.0439 -0.0347  0.2532
78022W        W78886  22.584  20.808  14.015  0.2356  0.1410  0.0553
78023W        W78887  13.876  23.667  15.475 -0.2602 -0.0274 -0.1831
78024W        W78888  12.387   3.160   9.589  0.1755  0.0317  0.1016
78025W        W78889   0.475   8.820  13.260  0.3683  0.0482  0.1364
78026W        W78890   4.367  25.356  24.584  0.1852  0.0262  0.0011
78027W        W78891  23.069  25.743  26.154 -0.1161 -0.1640  0.2462
78028W        W78892   9.482  27.904   3.176  0.0898  0.1017  0.1467
78029W        W78893  11.652  28.675   9.573 -0.1381  0.2274  0.0594
78030W        W78894  16.260  20.113   4.417  0.0261 -0.1194 -0.0250
78031W        W78895  11.799  12.624   2.655  0.0662  0.0014 -0.1211
78032W        W78896  19.225  14.782  21.956  0.1417 -0.1347 -0.1144
78033W        W78897  16.712   6.707  14.560  0.2918 -0.0243  0.0152
78034W        W78898  11.151  25.656  22.995  0.2120 -0.1843  0.0421
78035W        W78899  13.365  15.074  15.697  0.3668 -0.2284  0.2472
78036W        W78900  24.603   3.339   7.676 -0.1204  0.2185 -0.1428
78037W        W78901  17.714   5.754  18.321 -0.1380  0.0021  0.0669
78038W        W78902  14.821  28.313  12.359  0.0744 -0.2400  0.0685
78039W        W78903  27.398  13.540  13.580  0.0175  0.4139  0.0591
78040W        W78904   3.186   3.754  20.609  0.0968  0.3610  0.1354
78041W        W78905  25.003  25.559  24.011 -0.4849  0.0384  0.2772
78042W        W78906  27.344  15.206   4.270 -0.0986  0.0598  0.2306
78043W        W78907   8.936   9.850  10.504  0.1698  0.1820 -0.2671
78044W        W78908  18.236   9.120  23.141  0.2419  0.2153 -0.0343
78045W        W78909  13.969  16.512  26.107 -0.0157 -0.1862  0.4610
78046W        W78910  14.705  28.754  26.695  0.2203 -0.0085  0.0217
78047W        W78911   0.566   9.569  15.882 -0.0344 -0.1340 -0.1748
78048W        W78912  12.903  14.152  27.149  0.0877  0.0822  0.3746
78049W        W78913   8.355  29.058  13.727  0.3791 -0.1110 -0.0494
78050W        W78914  19.795  22.483  28.058 -0.2276 -0.2109 -0.2399
78051W        W78915  11.261  24.480  22.204  0.0438  0.0577 -0.1561
78052W        W78916  17.214  24.327  23.486 -0.1154  0.0640 -0.0033
78053W        W78917  12.409   4.819  17.920  0.1094  0.0266 -0.4549
78054W        W78918   3.798  23.248  14.925 -0.0381 -0.1591  0.2600
78055W        W78919  18.162   8.742   1.741 -0.1987 -0.3039 -0.2002
78056W        W78920   7.134   3.813   6.227  0.0900  0.2359 -0.0565
78057W        W78921   8.419  28.974   4.420 -0.4552 -0.2814 -0.0457
78058W        W78922   7.339   4.121  21.946  0.1482 -0.1187  0.1824
78059W        W78923  16.362   2.831   4.021  0.0369  0.0049 -0.2437
78060W        W78924  12.607  23.898  22.860 -0.0953 -0.0570  0.2015
78061W        W78925  13.737  22.879   4.233  0.1567 -0.2261 -0.0638
78062W        W78926  19.101  18.080  21.891  0.0657  0.2074 -0.4017
78063W        W78927   7.711   8.389   7.743 -0.0325  0.0603  0.1537
78064W        W78928  17.900  23.443  16.197 -0.1248 -0.1200 -0.2091
78065W        W78929  15.837   1.085   2.216  0.1430  0.0748 -0.2900
78066W        W78930  16.478  12.049  15.253 -0.0888 -0.1132 -0.0557
78067W        W78931   5.599   0.900  19.613  0.0168  0.2360 -0.2790
78068W        W78932  22.110   7.385  26.416 -0.1703 -0.1549  0.0439
78069W        W78933  16.008  12.927  11.364  0.1277  0.2290  0.0406
78070W        W78934  26.089  28.242   8.534  0.1055 -0.1700  0.2705
78071W        W78935  14.669  23.402   2.112  0.0222  0.3322 -0.1383
78072W        W78936  17.406  18.777  12.192 -0.1117 -0.1366 -0.0872
78073W        W78937  23.022  17.156  15.674  0.2234  0.0540 -0.1736
78074W        W78938   0.983  12.970  19.598 -0.0443 -0.1881  0.2318
78075W        W78939  15.173  24.596   3.884 -0.0061 -0.0285 -0.1434
78076W        W78940   4.659   3.471  15.876  0.0131 -0.1440 -0.2156
78077W        W78941  13.038   3.905   1.921  0.0776 -0.2437  0.1146
78078W        W78942  15.251   9.251  27.552  0.4758 -0.3245  0.2875
78079W        W78943  13.433   3.830  10.046 -0.0815 -0.0466 -0.3776
78080W        W78944  11.155  11.362  22.922  0.1377 -0.0697 -0.1766
78081W        W78945   2.471   4.150   7.695 -0.1152 -0.1578 -0.0772
78082W        W78946  19.823  23.860   2.786  0.0242 -0.4452 -0.1024
78083W        W78947  14.279  11.444  25.472 -0.0219  0.0815 -0.0222
78084W        W78948   6.067  12.907  16.569  0.1258  0.0559 -0.2889
78085W        W78949  27.292  14.365  26.106 -0.2055  0.0259 -0.2096
78086W        W78950  14.877  21.030   7.678 -0.4264 -0.2114  0.1024
78087W        W78951  27.900  23.784  17.859 -0.0552  0.1023 -0.0160
78088W        W78952  26.356   5.819   4.363  0.0666  0.0103  0.3050
78089W        W78953  18.685  14.749  19.074  0.0731  0.0331  0.3809
78090W        W78954   7.560  10.694  22.616 -0.3654  0.0802 -0.0705
78091W        W78955  14.233   1.523  27.100  0.0376 -0.1430 -0.1260
78092W        W78956   4.157   1.788  28.622 -0.1032  0.1449  0.0791
78093W        W78957  22.406  15.804  26.546  0.0651 -0.0952 -0.2080
78094W        W78958   0.807  27.280  28.912  0.2284 -0.1555 -0.1508
78095W        W78959  15.011  10.771   2.115 -0.1700 -0.1754 -0.0566
78096W        W78960   2.184  26.681   3.364 -0.1487  0.3210 -0.0445
78097W        W78961  10.863  15.691  21.378  0.2888 -0.2634  0.0198
78098W        W78962  18.902  28.007   6.025 -0.1119  0.0168 -0.0256
78099W        W78963  15.352  20.561  26.877  0.1593 -0.0430 -0.0430
78100W        W78964  20.645   3.576  10.211  0.1728 -0.0327  0.2071
78101W        W78965  10.110  26.215  11.364  0.1047  0.0631 -0.2972
78102W        W78966  18.302   9.354   8.055  0.0395  0.3217 -0.2626
78103W        W78967  24.933  13.021  27.305  0.0175  0.0667 -0.0871
78104W        W78968   6.631  16.236   9.840 -0.0217  0.0660 -0.2132
78105W        W78969   7.788  25.720  17.945 -0.6301 -0.1303 -0.2534
78106W        W78970  12.863  26.625  17.982  0.3322  0.0539  0.2731
78107W        W78971  16.759   1.961   8.872 -0.4108 -0.1385  0.0412
78108W        W78972  14.348  17.174   9.489 -0.0868  0.1850  0.2115
78109W        W78973  22.904   4.824  21.269  0.2038 -0.1178 -0.2611
78110W        W78974   6.603   5.358   1.638 -0.1334  0.0743  0.2700
78111W        W78975   3.834  14.475  18.805 -0.1345  0.0958 -0.0323
78112W        W78976  11.311  19.861   6.235  0.0149  0.0224 -0.0743
78113W        W78977   7.963  12.151  14.665  0.3925 -0.0622 -0.2760
78114W        W78978  25.381   3.154  26.542  0.0330 -0.0213  0.1873
78115W        W78979  14.690  27.329  12.421 -0.0466 -0.1247 -0.0565
78116W        W78980  18.216  10.009  24.091  0.1614 -0.2583  0.0145
78117W        W78981  26.022  27.209   9.547 -0.0690  0.3248 -0.0185
78118W        W78982  20.970  25.210   5.343 -0.1030  0.0350 -0.0025
78119W        W78983  15.795  12.172   3.563  0.1528  0.0800  0.0628
78120W        W78984  15.268  13.271   7.431  0.3577 -0.0079 -0.1173
78121W        W78985   8.563   5.590  20.683  0.1454 -0.0360  0.0930
78122W        W78986  27.376  28.774   7.929 -0.0135 -0.0472  0.0485
78123W        W78987  19.751  10.375  26.132  0.1928  0.1104 -0.1947
78124W        W78988   5.802  15.863  14.742 -0.2804 -0.2653 -0.1459
78125W        W78989   1.763  28.732  19.974 -0.0806 -0.0383  0.3609
78126W        W78990  27.178   6.105  29.085 -0.3797 -0.0761  0.2041
78127W        W78991  18.442   2.678  12.901 -0.0830  0.0690  0.0134
78128W        W78992  12.070   0.019  28.071 -0.3573 -0.3337 -0.4574
78129W        W78993   7.507  27.939   5.446  0.1572 -0.1123  0.1247
78130W        W78994   3.688   1.332  23.186  0.2327  0.0727 -0.1186
78131W        W78995  24.844  13.901  17.416  0.2459 -0.1322 -0.0816
78132W        W78996  20.246   2.341  17.512 -0.0834 -0.0853 -0.2203
78133W        W78997  24.297  26.230  11.598 -0.3735 -0.0286 -0.2097
78134W        W78998  13.692   8.124  26.188  0.1708  0.0813  0.0693
78135W        W78999  12.266   1.046  21.302  0.1623  0.0951  0.0491
78136W        W79000   6.641   6.220  29.083 -0.0111  0.0811  0.2544
78137W        W79001   7.497  18.940  23.575 -0.0318  0.1231 -0.0158
78138W        W79002  27.557   7.741  23.035 -0.0203  0.0281 -0.1716
78139W        W79003  24.792  15.830   9.683 -0.1304 -0.0679 -0.2844
78140W        W79004  18.519   2.030  15.758  0.1681  0.1297  0.1301
78141W        W79005  13.656  23.335  10.273  0.0481  0.1325 -0.0976
78142W        W79006  22.588   6.328  10.764  0.1282 -0.1551  0.3482
78143W        W79007   9.127  12.347  20.381  0.1595 -0.0766  0.3820
78144W        W79008  15.763   0.475   4.737  0.1988 -0.0760 -0.2932
78145W        W79009  24.031  10.814   0.955 -0.0269  0.2008 -0.0517
78146W        W79010   1.827  25.389  10.065  0.2925  0.1945 -0.0667
78147W        W79011   8.606  16.625  16.906  0.1558 -0.0314  0.2622
78148W        W79012   0.124  25.113   2.508 -0.0444  0.0119  0.1380
78149W        W79013  10.417   5.410   5.366  0.0106 -0.1516 -0.1492
78150W        W79014  24.764  14.568  21.438  0.3152  0.1819  0.0878
78151W        W79015   1.948  20.312  11.153  0.0901 -0.1721  0.1162
78152W        W79016  16.390   4.649  20.434 -0.0076  0.2932  0.0970
78153W        W79017  23.846  21.068  18.528  0.2264 -0.0932 -0.0918
78154W        W79018  28.530  25.577  25.680  0.0542 -0.0243  0.1853
78155W        W79019   8.136   6.662  19.284 -0.2864  0.0092 -0.2684
78156W        W79020  25.446   3.997  17.436  0.0964 -0.1903 -0.2471
78157W        W79021   1.236  14.443  17.088 -0.0179  0.1660 -0.1083
78158W        W79022  24.907  22.888  16.786  0.1768  0.2764  0.1063
78159W        W79023  19.447  15.459   6.507  0.0452 -0.2344 -0.0213
78160W        W79024  22.731  17.522  12.662  0.0272  0.1342 -0.0577
78161W        W79025   9.911  13.488  28.562  0.0087  0.1037 -0.1538
78162W        W79026  22.006   4.614  22.158  0.0815  0.1427 -0.0376
78163W        W79027  26.323   5.626  22.599  0.0065  0.2431 -0.1042
78164W        W79028   9.473   3.681  11.799  0.0903  0.0192  0.0294
78165W        W79029   4.326   1.154  16.642  0.3110  0.1008  0.1090
78166W        W79030  13.034   3.377  10.798  0.1557  0.3685  0.0840
78167W        W79031   0.589  16.178  16.410 -0.0873 -0.2662 -0.0644
78168W        W79032  23.426   9.301   5.206 -0.4083  0.0158  0.0471
78169W        W79033  18.633  28.464  23.365 -0.0351  0.1853  0.1337
78170W        W79034  23.926  16.450   9.641  0.0343 -0.0433  0.2202
78171W        W79035  24.213   2.141  15.218 -0.1935 -0.1400 -0.1953
78172W        W79036  17.956   7.462  18.909 -0.1795  0.3326 -0.0986
78173W        W79037  11.233   0.564  15.422  0.2164  0.2408 -0.2032
78174W        W79038  18.340   7.753  10.261  0.1029 -0.0200  0.1970
78175W        W79039  24.772   0.138   3.808 -0.1391  0.0176  0.0666
78176W        W79040   3.892  17.420   5.053 -0.0183 -0.0417 -0.1114
78177W        W79041  11.258  20.300  12.772 -0.0248  0.1678 -0.1156
78178W        W79042   8.653   2.296   8.376  0.0722  0.0834 -0.1426
78179W        W79043  24.323   0.035  23.064  0.0317  0.0327 -0.0066
78180W        W79044  21.355   1.326  13.095 -0.2234  0.1595 -0.0208
78181W        W79045  12.352   6.016  20.701  0.1169 -0.1087  0.2682
78182W        W79046  17.698   1.635  23.801  0.2318  0.4372 -0.1744
78183W        W79047  10.910   2.573  23.464 -0.1267  0.1609  0.3383
78184W        W79048  26.851   5.052  16.593 -0.4382  0.1347 -0.1653
78185W        W79049  17.004  26.295   9.420 -0.0782 -0.0989  0.3829
78186W        W79050  25.084   8.041  21.743  0.0505 -0.0220 -0.0808
78187W        W79051   3.436  23.315   2.930 -0.0844 -0.1452 -0.1469
78188W        W79052   9.512  18.219  22.920  0.1534 -0.0800  0.1740
78189W        W79053   5.929  21.011  15.977  0.0265 -0.2025 -0.3754
78190W        W79054  18.404   2.936  23.095  0.0673  0.1339 -0.1478
78191W        W79055  18.932   7.042  15.892 -0.2298 -0.2526  0.1561
78192W        W79056  14.896   0.895   2.802 -0.0889 -0.1528 -0.1376
78193W        W79057  17.271   0.083   8.936 -0.2095 -0.0503  0.1222
78194W        W79058  12.908   9.389  11.080 -0.1804  0.0840  0.0966
78195W        W79059  23.620   4.971  10.151  0.0448  0.1929  0.1295
78196W        W79060  24.444  26.315  15.733  0.2569  0.1723 -0.0324
78197W        W79061   5.854  12.410  17.274  0.0144  0.0780  0.0055
78198W        W79062  10.198  26.803  12.019  0.0864  0.2212  0.1532
78199W        W79063   8.741   8.690  19.346  0.0215 -0.4339 -0.2267
78200W        W79064  19.635  18.692  21.259 -0.1627 -0.1117  0.0952
78201W        W79065  26.334  11.250   8.403  0.1235 -0.2056  0.1515
78202W        W79066  25.349  26.708  21.409  0.0876 -0.0883 -0.1093
78203W        W79067  10.302   1.075  17.013 -0.0699 -0.0334  0.0957
78204W        W79068  20.214  21.187  18.560  0.1597  0.2662  0.2363
78205W        W79069   3.988  29.115  24.059  0.0975 -0.0425  0.0821
78206W        W79070  17.297  24.634  29.040 -0.3815  0.1262 -0.2596
78207W        W79071   6.256   7.983  13.070 -0.0997  0.0984  0.1837
78208W        W79072  20.705  12.649   5.097 -0.0904  0.0081  0.1618
78209W        W79073  13.756   7.582   6.685 -0.0278 -0.0664 -0.1293
78210W        W79074   3.821  20.299  16.157 -0.1800  0.3434 -0.2104
78211W        W79075  20.023  25.388  14.257  0.1472  0.3569 -0.1107
78212W        W79076  13.706  13.867   4.894  0.1001  0.0657  0.5705
78213W        W79077  16.631  13.029   1.911 -0.0794 -0.1603  0.0085
78214W        W79078   1.500   9.624  21.312 -0.0570  0.0838  0.4150
78215W        W79079   8.506  25.753   1.899 -0.3013 -0.0245 -0.0988
78216W        W79080  26.598  17.346  26.002  0.0664 -0.0151  0.0256
78217W        W79081  17.318  21.140  11.741 -0.1538 -0.0678 -0.2666
78218W        W79082   7.279  25.752   5.339  0.2873 -0.0983 -0.3127
78219W        W79083  20.204   3.644  23.110  0.0472  0.0110 -0.1494
78220W        W79084  20.718  18.480  28.711 -0.3574 -0.1302 -0.1639
78221W        W79085  23.430   6.093  16.797  0.0763  0.0277 -0.0045
78222W        W79086  24.689   7.381  21.320 -0.0728  0.0441 -0.0944
78223W        W79087   1.847   4.467  24.665 -0.2290  0.0314 -0.1225
78224W        W79088  23.888   0.445  19.700  0.1901 -0.1784 -0.3430
78225W        W79089  11.141  23.559   8.116 -0.1253  0.1736  0.0867
78226W        W79090  12.529  21.518  28.861 -0.1246 -0.1129  0.4251
78227W        W79091  12.564  25.961  28.284 -0.2778  0.0054 -0.2339
78228W        W79092  13.847  16.383  12.038 -0.1935  0.0267  0.0051
78229W        W79093  10.061  28.522  10.626 -0.1597 -0.2135 -0.1013
78230W        W79094  12.091  20.593  14.830 -0.1290 -0.1280 -0.2123
78231W        W79095  19.518  22.299  18.543 -0.2737 -0.2105 -0.0451
78232W        W79096  27.099  29.092  18.054  0.0068 -0.0480  0.0141
78233W        W79097  27.698  12.907   1.399  0.1839 -0.0732 -0.1426
78234W        W79098  15.414   5.126  10.695  0.2037  0.1383 -0.0046
78235W        W79099   4.185   3.024   7.752 -0.0354 -0.1632 -0.1071
78236W        W79100  24.999  21.357  22.810  0.0833  0.1824  0.0477
78237W        W79101  23.994  15.680   4.637  0.0200  0.0211 -0.1186
78238W        W79102  22.811  24.086  26.512  0.1261  0.2284  0.0021
78239W        W79103  21.994  21.798   1.103  0.0826  0.1869  0.2921
78240W        W79104  21.872  12.377  21.831 -0.2167 -0.1077  0.1180
78241W        W79105   1.844  17.453   5.038  0.2250 -0.0821 -0.2103
78242W        W79106  12.389  28.622  11.296  0.1358  0.2049 -0.1176
78243W        W79107  15.138  22.096  15.934 -0.2812  0.2985 -0.2108
78244W        W79108  15.167   4.910  12.160 -0.2357  0.2803  0.0840
78245W        W79109  11.472  11.573   1.823 -0.3239  0.1460 -0.4688
78246W        W79110  24.186   2.394   8.693  0.1606 -0.2124 -0.0605
78247W        W79111  17.954  28.308   9.745  0.1195  0.1231 -0.2404
78248W        W79112  19.049   1.294  16.577 -0.1130 -0.0303 -0.2128
78249W        W79113  26.519   5.721  20.932  0.1781  0.1059 -0.1793
78250W        W79114  12.795  16.977  19.635 -0.3913  0.1478  0.1441
78251W        W79115   4.442  20.113  24.823 -0.0894 -0.1724 -0.0688
78252W        W79116  23.177  23.446  15.041  0.0012  0.1088  0.1483
78253W        W79117  12.456  26.877  17.386 -0.2004 -0.0897  0.0541
78254W        W79118   7.915   6.911  18.294  0.0205 -0.3060  0.0391
78255W        W79119  13.187   4.583  18.750 -0.2793  0.0382  0.0455
78256W        W79120  23.863  17.139  28.664 -0.1863 -0.0547  0.2371
78257W        W79121  24.269   2.990   8.622  0.2020  0.1862 -0.0307
78258W        W79122  27.462   3.462  25.554  0.1535 -0.0267 -0.0780
78259W        W79123  25.801   2.408  15.559  0.2436 -0.3410  0.0264
78260W        W79124  25.755  13.703  13.667  0.2892 -0.2505 -0.1716
78261W        W79125   0.753   1.856  10.812 -0.1046 -0.1137 -0.0228
78262W        W79126  13.353  22.538  28.001 -0.0296 -0.2550  0.0026
78263W        W79127  17.465  27.666  16.395 -0.2308  0.0625  0.0508
78264W        W79128  15.624  10.326  12.505 -0.1474  0.0065  0.1773
78265W        W79129  19.702  21.048   6.909  0.2110  0.2095 -0.0599
78266W        W79130  20.497   8.572  16.872 -0.1464  0.2455  0.1235
78267W        W79131  27.129   7.679   5.955  0.1353 -0.2819 -0.3136
78268W        W79132  23.736  16.462  19.466 -0.1355 -0.0129 -0.2230
78269W        W79133   6.857  23.071   7.664  0.0499  0.2952 -0.1165
78270W        W79134  22.449  24.742   6.498  0.1039  0.0388  0.2161
78271W        W79135  14.192  28.562  22.340  0.0515 -0.2547 -0.2041
78272W        W79136   2.318  12.650  15.169  0.0671  0.3005  0.0097
78273W        W79137  24.048  18.917   4.769 -0.0075  0.0898 -0.0833
78274W        W79138  26.446  18.229  22.615 -0.1125 -0.0297  0.2500
78275W        W79139   9.012   6.125   5.506  0.0327 -0.3208 -0.1777
78276W        W79140  15.523  24.538  25.835 -0.2579 -0.0651  0.2075
78277W        W79141   8.862  26.647   1.928 -0.0009 -0.1114  0.0598
78278W        W79142   5.217  26.659   2.307  0.0589 -0.2397 -0.0809
78279W        W79143  24.929  24.763  11.329  0.1703 -0.0091 -0.2011
78280W        W79144  12.643  15.465  20.912  0.1286  0.0026 -0.1648
78281W        W79145   2.426  26.246  17.990 -0.1116  0.0507  0.0408
78282W        W79146   7.629  11.721  18.251 -0.1358  0.0047 -0.3191
78283W        W79147  25.807  20.684  13.504 -0.0031  0.0107 -0.2541
78284W        W79148  10.736  25.935  23.408 -0.2069  0.2321 -0.0890
78285W        W79149  14.034  17.475  19.193 -0.2623 -0.1386 -0.3548
78286W        W79150  22.314  20.097  12.494  0.0425 -0.1285  0.0151
78287W        W79151  16.767  10.799   1.750 -0.2028  0.2270 -0.0493
78288W        W79152  21.812  25.759  18.608 -0.1450  0.2650  0.1337
78289W        W79153  19.787  28.060  18.569  0.0902 -0.1765  0.0784
78290W        W79154   2.757  17.098  10.916 -0.3369  0.0105  0.0246
78291W        W79155   6.474  18.889  17.792  0.2250 -0.2365  0.1743
78292W        W79156  19.901  16.012  20.251 -0.1127  0.2267  0.2719
78293W        W79157  14.456   3.292  22.502  0.4761 -0.3611  0.1403
78294W        W79158  19.535  23.103   7.112 -0.0022  0.1978 -0.0211
78295W        W79159   7.401  27.965  15.540 -0.0048 -0.1289  0.0113
78296W        W79160   0.362   1.542  10.850 -0.1692 -0.0457  0.2839
78297W        W79161   0.432   1.120   4.030 -0.0469 -0.0571 -0.1419
78298W        W79162  26.158  14.531  27.506  0.2609  0.0380 -0.2759
78299W        W79163   9.743   7.598   4.268 -0.0940 -0.0760 -0.0200
78300W        W79164  16.953   5.133   8.625 -0.1197  0.0891 -0.4614
78301W        W79165  26.743  28.598   1.932 -0.2958 -0.0230  0.1785
78302W        W79166  22.998  26.920   8.247 -0.0217  0.0343  0.1057
78303W        W79167   1.341  23.184  18.404 -0.2048  0.0375  0.0686
78304W        W79168   7.336  10.583  20.727 -0.0651 -0.0410 -0.1189
78305W        W79169   2.276  19.452  13.815  0.1314 -0.0335  0.0219
78306W        W79170  13.042  22.499   2.441  0.0230  0.4706  0.2156
78307W        W79171   7.266   8.364  22.889 -0.1787  0.3110 -0.1303
78308W        W79172  15.279  24.185  14.632  0.0029  0.1411  0.0237
78309W        W79173   8.625  27.001   9.312  0.0363  0.0906 -0.4583
78310W        W79174  27.096  22.813  14.320 -0.0475 -0.0319 -0.0110
78311W        W79175   4.057  26.121  21.396  0.2835  0.1640  0.2784
78312W        W79176  18.712  25.485  15.472  0.1972 -0.0051 -0.1848
78313W        W79177  10.752  21.760  20.191  0.3784 -0.1502  0.2725
78314W        W79178  26.800  12.896  23.037 -0.3062  0.1102  0.1272
78315W        W79179   0.776  15.877   7.794  0.3332 -0.1512 -0.0313
78316W        W79180  16.280  18.333   4.569 -0.1467 -0.4149  0.1329
78317W        W79181  13.494   1.636   0.335 -0.0310 -0.1697  0.1104
78318W        W79182  13.232  18.738  16.549  0.0209  0.2152  0.3293
78319W        W79183  19.000   3.085   7.619  0.0778 -0.0784  0.2116
78320W        W79184   5.542  14.812  17.161 -0.0196 -0.0725  0.3207
78321W        W79185   5.727  11.358  21.880  0.0181 -0.3513  0.1854
78322W        W79186  23.590  18.360   1.987 -0.0673  0.0281 -0.0945
78323W        W79187  25.721  12.571  18.760 -0.1781 -0.0832  0.3217
78324W        W79188  19.708  26.060  19.759 -0.0242 -0.2045 -0.1340
78325W        W79189  25.022  25.643  22.098 -0.2303 -0.1935 -0.0227
78326W        W79190  11.412  22.334  12.635 -0.0049  0.2129 -0.0945
78327W        W79191  19.757  13.552  19.618  0.0168  0.1936  0.0572
78328W        W79192   8.566  21.923  10.334 -0.1388  0.3974 -0.2803
78329W        W79193  27.805  26.756  26.798  0.0913  0.1648 -0.3047
78330W        W79194  16.675  22.834  29.130 -0.0142 -0.0379 -0.1908
78331W        W79195  21.763  23.071  27.945  0.1386  0.1222  0.0240
78332W        W79196  24.532  27.105  13.466 -0.2186  0.1215  0.0356
78333W        W79197  18.643  10.644  28.881  0.1795 -0.0848 -0.1794
78334W        W79198  16.536   5.093  18.379  0.0900  0.0661  0.2465
78335W        W79199   7.595   0.769   0.680  0.4438  0.0731  0.0413
78336W        W79200  20.205  27.996   1.973  0.0023  0.0860  0.1664
78337W        W79201   7.953  16.183  15.657  0.1919  0.0135 -0.0392
78338W        W79202   2.654  23.011  15.910 -0.1502 -0.1341 -0.0307
78339W        W79203  11.911   9.974  11.940  0.1409 -0.0320  0.0465
78340W        W79204  15.063  23.576  22.634 -0.1185  0.0428 -0.0853
78341W        W79205   2.542  28.973   8.218  0.1788  0.1439  0.1046
78342W        W79206  16.519  19.490   9.135  0.0143 -0.0804 -0.0887
78343W        W79207  10.931  16.047   8.781 -0.1338 -0.0618 -0.2475
78344W        W79208  22.897   3.114   1.389 -0.1949  0.3676  0.1014
78345W        W79209   4.254  18.457  20.536  0.0589  0.0317  0.2192
78346W        W79210  15.360   3.616  11.328  0.3473 -0.0224  0.2660
78347W        W79211   2.730   5.635  26.422 -0.0433  0.1213  0.0067
78348W        W79212   2.627   0.198  23.081  0.0393 -0.0159  0.1389
78349W        W79213  13.030   9.342  12.151  0.4663 -0.0184  0.0736
78350W        W79214  20.015   8.594  16.656 -0.1438  0.0620 -0.1735
78351W        W79215  15.726   6.376   3.415  0.1324  0.3706 -0.1553
78352W        W79216  26.699   0.943  18.517  0.0957 -0.1068 -0.1516
78353W        W79217   6.387   7.522   8.182  0.1208  0.2509 -0.1499
78354W        W79218  20.449   1.198  28.835 -0.0480  0.1760  0.1981
78355W        W79219   6.981  26.481  10.721 -0.0700  0.4085 -0.1080
78356W        W79220  12.168  12.243  27.745  0.2232 -0.0113 -0.0066
78357W        W79221   2.179  19.590  14.304 -0.1557 -0.0330  0.1553
78358W        W79222  25.446  10.572   2.246  0.0622 -0.2143  0.1105
78359W        W79223  21.012  14.125  19.077 -0.2765 -0.0841  0.1414
78360W        W79224  17.577  21.852  28.492 -0.1339 -0.0212  0.1399
78361W        W79225  17.334   1.868  28.580 -0.1564  0.0604  0.1121
78362W        W79226   1.963   8.383  21.846  0.0770  0.1942  0.1200
78363W        W79227  16.014  21.035  10.616  0.0111 -0.3699  0.1033
78364W        W79228   6.025   1.308  22.215  0.1613  0.3385  0.3161
78365W        W79229   1.246   0.183  22.689 -0.0540 -0.2984  0.0968
78366W        W79230  11.029   1.385  25.981 -0.3276 -0.0808 -0.2433
78367W        W79231  19.649  24.482  20.962  0.1039 -0.1410  0.0178
78368W        W79232  28.920   6.071  24.915 -0.0405  0.1251 -0.1143
78369W        W79233  14.617  13.110   3.540 -0.1444 -0.1158  0.0643
78370W        W79234   7.007   5.675  26.329 -0.2890  0.2983  0.0915
78371W        W79235   1.991  24.343  26.467  0.1972  0.3180 -0.2738
78372W        W79236   4.985  10.207  22.453 -0.1819  0.2070 -0.0856
78373W        W79237   6.298  11.811  17.241  0.1804 -0.0461  0.0768
78374W        W79238  27.849   2.318   3.212  0.1458 -0.0241  0.0747
78375W        W79239  17.018  24.514  24.263  0.1694  0.1569  0.0913
78376W        W79240  29.118  28.852   0.430 -0.0747  0.1035  0.0865
78377W        W79241   6.680   6.898  12.189  0.2262 -0.0166  0.2415
78378W        W79242   4.317  16.942   4.344  0.1355  0.0214  0.0768
78379W        W79243  27.456  26.678  18.891  0.2318  0.0003 -0.2683
78380W        W79244   7.439  16.243  11.855  0.3201 -0.0430  0.1256
78381W        W79245   9.152  25.425  19.979  0.0460  0.1654 -0.1093
78382W        W79246  20.964   0.838  11.859  0.3342  0.2689  0.0729
78383W        W79247  24.122  15.222   7.321  0.0391  0.1996 -0.0953
78384W        W79248  20.381   1.693  18.774 -0.2626  0.1185 -0.1974
78385W        W79249   4.294  19.821  18.181  0.4513 -0.0462 -0.1981
78386W        W79250   2.541   0.642  14.612 -0.1249  0.2460  0.0186
78387W        W79251  14.987  10.484  14.228 -0.1225  0.3122  0.1302
78388W        W79252  28.930   2.745  10.311  0.0834  0.1989  0.1069
78389W        W79253  27.760   6.482  19.537  0.0271  0.0795  0.0783
78390W        W79254  16.332  24.170  10.835 -0.0326  0.0689 -0.2994
78391W        W79255  14.863   8.009  27.700  0.0244  0.0986 -0.1843
78392W        W79256   9.705  14.583   9.865  0.0423  0.2036  0.1742
78393W        W79257  20.605  19.869  21.508 -0.0172 -0.0642  0.2566
78394W        W79258  21.363  10.023  16.172  0.1809  0.2419  0.2467
78395W        W79259  26.626  11.827   5.770 -0.0563  0.1740 -0.1834
78396W        W79260   9.625  27.621   7.953  0.1252 -0.0785  0.0260
78397W        W79261   6.803  11.147  18.865  0.1557 -0.1658  0.1917
78398W        W79262  13.848   1.323  23.454 -0.1033 -0.2863  0.0652
78399W        W79263  18.873  10.524  11.056  0.2384 -0.3985  0.0996
78400W        W79264  19.003  27.109  22.937  0.2552  0.0366  0.2014
78401W        W79265  17.628   5.829  27.197 -0.2776  0.0282  0.1534
78402W        W79266  19.042  12.685  11.423  0.0451 -0.0270 -0.1316
78403W        W79267  10.541   2.388  24.027  0.0762 -0.1453  0.3611
78404W        W79268  13.490  16.783   5.743 -0.1528  0.1292  0.1083
78405W        W79269  19.483  19.029  14.202 -0.0575 -0.2660  0.0280
78406W        W79270  15.538  15.008  12.532  0.1500  0.2497  0.0513
78407W        W79271  12.068  20.359   3.933  0.0676 -0.3812  0.4138
78408W        W79272  27.597   1.842  15.541  0.0181  0.0614  0.2358
78409W        W79273  15.159  11.373  10.044  0.2621 -0.2389 -0.2304
78410W        W79274  17.471  12.978  13.693 -0.1450 -0.0821  0.0396
78411W        W79275  22.855  22.304  11.953  0.0191 -0.3528 -0.0925
78412W        W79276  16.669  25.727  25.556 -0.0763  0.0487 -0.1922
78413W        W79277  16.970   5.461  27.867 -0.1084  0.2050 -0.3578
78414W        W79278  27.786   6.188  25.215 -0.3209 -0.1287  0.3885
78415W        W79279  19.805   0.240  22.038 -0.1384  0.0401  0.0686
78416W        W79280  19.321  11.889   6.057  0.2971  0.0982 -0.0195
78417W        W79281   9.798  20.278  14.810  0.0516  0.1191 -0.0140
78418W        W79282  11.273   0.928  18.777 -0.1479  0.0620  0.0592
78419W        W79283  19.137   6.978  20.502 -0.4272  0.2484 -0.3404
78420W        W79284  15.057  10.194   0.778 -0.1381 -0.0254  0.0108
78421W        W79285   8.683  22.752  12.607 -0.1798 -0.3599 -0.0342
78422W        W79286  25.063  16.007  18.901  0.0738 -0.1354 -0.1370
78423W        W79287  25.404  13.785  11.130 -0.2558  0.3304 -0.1215
78424W        W79288  28.886  27.778  20.718 -0.3216  0.0784  0.0706
78425W        W79289   8.543  17.312   9.465 -0.0890 -0.2359 -0.2226
78426W        W79290   7.736   8.812   6.308  0.1105  0.0374 -0.2341
78427W        W79291   8.288  28.751  17.529 -0.2881 -0.0585  0.0326
78428W        W79292  26.637  22.941  15.758 -0.0637  0.0039 -0.1232
78429W        W79293  17.526  25.175  22.348  0.1721 -0.2056 -0.0740
78430W        W79294   3.096  12.604  23.242 -0.3381  0.2387  0.3346
78431W        W79295  15.733  21.542  19.169 -0.1545 -0.0128 -0.1246
78432W        W79296  11.460  17.438  13.088  0.1506 -0.0859  0.1767
78433W        W79297  17.825  23.838  21.789 -0.0882 -0.3978 -0.0437
78434W        W79298   6.376  23.436   1.537 -0.0243  0.2115  0.1574
78435W        W79299   1.079   9.423   9.241  0.1646 -0.2421  0.1767
78436W        W79300   0.788  21.596   5.330 -0.2769  0.2380  0.1378
78437W        W79301  10.643  11.477  15.092 -0.1075 -0.1315  0.1975
78438W        W79302  12.596   2.403  13.941  0.2359 -0.1400  0.0795
78439W        W79303  24.266  13.026  11.604 -0.4961  0.1225  0.2605
78440W        W79304  24.575  12.651  22.367  0.0508  0.0336  0.0476
78441W        W79305  11.007   6.221  23.680 -0.1735  0.1465 -0.1289
78442W        W79306  18.529   0.476   3.717 -0.1395  0.0399 -0.0262
78443W        W79307  11.443   4.000  20.364  0.1165 -0.1227 -0.0999
78444W        W79308  11.181  24.263  14.513 -0.2659  0.3161 -0.0899
78445W        W79309  23.898  10.628  20.637  0.0943 -0.0818  0.0960
78446W        W79310   7.086  20.483   2.913  0.2176 -0.1410  0.0060
78447W        W79311  26.834  15.082  12.775  0.0845 -0.1247  0.1346
78448W        W79312   4.517   3.340  20.770  0.1162 -0.1436 -0.1396
78449W        W79313   6.514   1.666   6.308  0.1805 -0.0264 -0.3926
78450W        W79314  22.775   1.667  15.689 -0.1179 -0.0371 -0.1678
78451W        W79315  21.717  26.162  18.294 -0.2609 -0.0426  0.0624
78452W        W79316  23.082  28.029  23.274  0.0600  0.5522  0.1097
78453W        W79317   6.973  26.753   7.199  0.0051 -0.0220  0.0640
78454W        W79318  13.238  19.532   3.554 -0.2012 -0.5088 -0.0490
78455W        W79319   3.227  26.552   0.734  0.0051  0.2140 -0.1460
78456W        W79320  15.695  17.401   1.063 -0.1497 -0.0814  0.4085
78457W        W79321   7.296  25.433  10.772  0.0340 -0.0031  0.2715
78458W        W79322   9.730  10.220   9.926  0.2909 -0.1420  0.1262
78459W        W79323  18.092  25.850  16.716 -0.0614  0.0543  0.1710
78460W        W79324  18.742  17.078  13.975 -0.1198  0.1474 -0.0497
78461W        W79325   3.523  20.861  10.615  0.0392  0.1970  0.1227
78462W        W79326   4.495  18.066  18.343 -0.1644 -0.0313 -0.1846
78463W        W79327   3.278  27.149  11.774  0.0510 -0.1359  0.1512
78464W        W79328  20.544   4.979  13.004 -0.0433 -0.1124 -0.4510
78465W        W79329  24.618  25.803  23.803 -0.1236 -0.0209  0.3481
78466W        W79330   2.498  28.833   7.142 -0.1442 -0.1104  0.3456
78467W        W79331  11.899  22.903  25.705  0.1012  0.0069 -0.2434
78468W        W79332   4.607  11.045   4.712 -0.1053 -0.1343 -0.1698
78469W        W79333   1.736  11.951  12.727  0.1747  0.4476  0.0304
78470W        W79334   7.914  21.239   8.044 -0.1440  0.0244 -0.3533
78471W        W79335   8.632  11.986   8.814  0.1061  0.0246  0.3777
78472W        W79336   3.878   4.737  17.276  0.2577  0.0041  0.2439
78473W        W79337  22.965   9.423  11.270 -0.2177 -0.2250 -0.3620
78474W        W79338   6.231   7.344  20.358  0.0919  0.0051 -0.0552
78475W        W79339   8.827   2.423   7.678 -0.1576  0.0267  0.2424
78476W        W79340  15.632  20.381  18.589 -0.1396  0.1357 -0.0647
78477W        W79341  12.982  14.178  17.533 -0.2284  0.0902 -0.2186
78478W        W79342  24.677  28.440  21.215 -0.0341 -0.0087 -0.0225
78479W        W79343   7.218  20.552   0.080  0.1802  0.0477  0.2236
78480W        W79344  15.791  27.591   5.368 -0.0365  0.0398 -0.1217
78481W        W79345   8.207   4.734  22.156 -0.1044 -0.0810  0.2827
78482W        W79346   5.096   0.264   6.992  0.1392 -0.2953  0.1455
78483W        W79347  10.575  13.715  27.559 -0.0160  0.0525  0.0627
78484W        W79348   0.577  18.289  24.441  0.0091  0.2116 -0.1517
78485W        W79349  24.713   3.379   2.893 -0.0044 -0.0378 -0.1485
78486W        W79350   1.905   6.176  14.450  0.1391 -0.0633  0.0872
78487W        W79351  17.069   5.913  13.413  0.0407  0.0073  0.0312
78488W        W79352  21.947   5.417  25.356 -0.1193  0.1241 -0.1799
78489W        W79353  11.931   5.418  15.271  0.3699 -0.2999 -0.0429
78490W        W79354  10.966   8.588  13.487 -0.3145  0.3292 -0.1002
78491W        W79355  19.678   7.056   9.972 -0.2245  0.1200  0.1571
78492W        W79356   0.858  22.659  15.814 -0.0278  0.1162  0.0604
78493W        W79357  12.196  18.853  10.633  0.5590  0.1632 -0.0236
78494W        W79358  21.091  19.284  12.057  0.0310  0.1329  0.4264
78495W        W79359  24.618   2.996  16.702 -0.2483  0.1852  0.1801
78496W        W79360  12.027  28.377  17.084 -0.1186  0.1035 -0.0666
78497W        W79361   6.786  20.081  19.401 -0.2622 -0.0421  0.3045
78498W        W79362  15.016   4.431  23.042  0.0338  0.2229  0.1692
78499W        W79363  26.897   5.384   2.767 -0.1468  0.1207  0.0624
78500W        W79364  11.575   1.471  11.825 -0.0068 -0.1106  0.1660
78501W        W79365  16.292  23.932  20.040  0.3052  0.3309  0.1842
78502W        W79366  27.712   6.884  28.011 -0.2475 -0.0592 -0.0080
78503W        W79367  12.397  19.263  20.970  0.1358 -0.0066  0.2247
78504W        W79368   1.668  20.704  10.951  0.2578  0.3173  0.0141
78505W        W79369   1.647   1.110  21.648  0.2322 -0.0249  0.5012
78506W        W79370  10.937   6.693  23.355  0.1848  0.1551 -0.3462
78507W        W79371  14.242  20.362  10.127  0.3722  0.2972  0.1309
78508W        W79372  10.771   6.234   4.111  0.1124  0.1593 -0.2261
78509W        W79373  25.205  20.376  28.797  0.1001 -0.2769 -0.2825
78510W        W79374  27.132   9.259  25.264  0.1731  0.0927  0.1610
78511W        W79375   6.115  23.084  12.392  0.0686  0.3796  0.5591
78512W        W79376  21.945  28.509  14.206  0.0342 -0.0987 -0.0058
78513W        W79377   3.453  21.112   8.707  0.1219  0.0484 -0.0354
78514W        W79378   0.084  14.036   5.099 -0.2741  0.3731  0.2417
78515W        W79379  17.098  21.928  16.275  0.1792 -0.0192  0.1952
78516W        W79380  23.107  17.474   4.516  0.0957 -0.0393  0.3366
78517W        W79381   4.838  27.910   7.130 -0.3104 -0.0561  0.1286
78518W        W79382   1.552  17.365  17.997 -0.5289  0.0505 -0.0134
78519W        W79383  12.895   1.207  16.988  0.4329 -0.1322  0.0023
78520W        W79384  25.430  24.391   0.487 -0.0710  0.1542 -0.1837
78521W        W79385  16.806  17.908  20.021 -0.3268  0.2084  0.0664
78522W        W79386   9.706   3.826   2.781  0.1822  0.1303 -0.3234
78523W        W79387   8.745   4.125   9.452 -0.3101  0.3831  0.2161
78524W        W79388  15.564  22.203  21.608 -0.2468 -0.2489 -0.0370
78525W        W79389   1.227  24.133   8.633 -0.0201  0.4094  0.0024
78526W        W79390   0.669   5.262  27.308 -0.1745 -0.0420 -0.1591
78527W        W79391  26.430   5.615   1.102 -0.0993  0.0214  0.1886
78528W        W79392  25.240  27.775  22.526 -0.0931  0.0653  0.2152
78529W        W79393  18.390   0.356  24.939  0.0842  0.0343 -0.1061
78530W        W79394  27.477   3.776   2.290  0.1996  0.1586  0.2356
78531W        W79395   6.235   3.686  20.405  0.0543  0.0472 -0.0868
78532W        W79396  14.476  25.073   8.509  0.3626 -0.0292  0.0316
78533W        W79397  17.856  11.410  11.674  0.2442 -0.1234  0.1709
78534W        W79398  20.792  11.271  11.295 -0.1278 -0.0030  0.1070
78535W        W79399  28.725  20.752  23.929 -0.1279  0.1040 -0.1544
78536W        W79400  19.505   1.028  22.717 -0.2002 -0.1663 -0.0783
78537W        W79401  15.418   4.539  10.915  0.0726  0.0693 -0.1440
78538W        W79402  19.276  14.698  27.628 -0.2185  0.1406  0.2567
78539W        W79403   0.504  18.253  16.278  0.0488  0.1038  0.0147
78540W        W79404   7.248   7.333  27.346  0.0314 -0.0750 -0.1035
78541W        W79405   1.162  12.284  20.405 -0.0332 -0.3238 -0.0733
78542W        W79406  19.999  10.395  15.541  0.0610 -0.0220 -0.1705
78543W        W79407   8.143   4.705   4.770 -0.2454 -0.1478  0.1174
78544W        W79408  25.418   2.491  12.652 -0.1403 -0.0379 -0.1641
78545W        W79409  10.459   4.543  20.392 -0.1732  0.2392 -0.2098
78546W        W79410   8.515  20.526  19.151 -0.0203 -0.2914  0.0759
78547W        W79411  15.372  17.955  14.673  0.1302  0.2422  0.1752
78548W        W79412  11.125  12.862  15.427 -0.1412  0.1743 -0.0802
78549W        W79413  10.150   5.255  12.119  0.1158 -0.1466  0.2411
78550W        W79414  25.594  28.743   3.991  0.2671  0.2449  0.0934
78551W        W79415  10.617  21.745  11.002 -0.3152 -0.0798  0.0767
78552W        W79416  24.065   2.668  21.393  0.0442 -0.2239 -0.0150
78553W        W79417  16.551  13.722  11.711 -0.1219 -0.0514 -0.3492
78554W        W79418   7.917   1.697  24.514 -0.0700  0.1606 -0.3017
78555W        W79419  21.241  29.042   4.547  0.2092  0.1523  0.0150
78556W        W79420  15.807   6.912   0.675 -0.2148 -0.2268 -0.2311
78557W        W79421  12.105  28.507   9.358 -0.1335 -0.1987 -0.0132
78558W        W79422   6.931   5.376  16.554 -0.0570  0.1567 -0.0490
78559W        W79423  15.335  28.724  17.206 -0.2995 -0.0343  0.1030
78560W        W79424  27.645   0.193  26.892 -0.0140  0.0981  0.0476
78561W        W79425  14.592  21.895  22.169 -0.1854 -0.1234  0.0462
78562W        W79426  10.563  15.466  20.387 -0.1447 -0.2017 -0.2906
78563W        W79427   5.071   1.885  21.681  0.5019 -0.1006 -0.3589
78564W        W79428  10.652   8.048  17.318  0.0478 -0.2125 -0.0960
78565W        W79429  19.087  24.252   7.434  0.0865  0.0988  0.2435
78566W        W79430   3.664  26.056  11.531  0.3273 -0.0000  0.3278
78567W        W79431  25.589  16.064  12.943  0.0698  0.1563 -0.0059
78568W        W79432  10.246  14.812  21.663 -0.0894  0.0649 -0.2417
78569W        W79433  25.895  11.900  16.120  0.2517  0.2626 -0.0504
78570W        W79434  26.283  26.077  15.298 -0.2091 -0.0172 -0.0273
78571W        W79435   1.302  18.438   0.685  0.0625 -0.1928  0.1792
78572W        W79436   3.531   6.375  11.321  0.0977  0.3672  0.0824
78573W        W79437   3.568  21.689   9.697  0.1482 -0.1007 -0.2434
78574W        W79438  20.304   4.525   6.799 -0.1148  0.0502 -0.1356
78575W        W79439  15.460   3.490   3.519  0.1251  0.0024  0.1208
78576W        W79440   0.825  17.015  12.908  0.0317 -0.2019  0.1128
78577W        W79441  23.752  13.861  12.877  0.2669  0.2194  0.2866
78578W        W79442  20.755  26.686  26.047 -0.1502 -0.0502 -0.1325
78579W        W79443  14.328  10.625  10.492 -0.2915 -0.2894  0.1440
78580W        W79444  17.486  27.835   3.185 -0.1169  0.0810  0.0579
78581W        W79445  23.545  24.774  13.095 -0.1679  0.1317  0.1975
78582W        W79446  21.895  14.622  15.087 -0.2117  0.0363  0.1726
78583W        W79447  28.645   0.539  19.834 -0.0526  0.1855  0.3085
78584W        W79448  24.670  19.601  25.937 -0.0369  0.2975  0.3707
78585W        W79449  12.375   7.442   6.102  0.1025  0.0830  0.0284
78586W        W79450   5.545  13.375  15.897  0.0747 -0.1664  0.1486
78587W        W79451  14.633   2.747  10.987 -0.2369 -0.0848 -0.0360
78588W        W79452  22.361   3.222  26.072  0.4067 -0.0530  0.0944
78589W        W79453  24.471   6.132  19.255  0.1521  0.0987  0.2612
78590W        W79454  17.332  14.419   4.201 -0.2236  0.0630 -0.1813
78591W        W79455  14.316  25.871   3.350 -0.0636  0.0951 -0.0297
78592W        W79456  20.780  22.478  20.122 -0.0835 -0.2223  0.1916
78593W        W79457   9.720  27.766  28.193  0.3228 -0.1066  0.1918
78594W        W79458  23.547   9.784   0.261 -0.2373  0.0056  0.0331
78595W        W79459  17.952  25.942  12.340  0.2141 -0.1897  0.1630
78596W        W79460   6.600  10.970  21.796 -0.2111 -0.0521  0.0728
78597W        W79461   6.181  19.065  23.198 -0.3567 -0.0292  0.2866
78598W        W79462   7.094   7.421   8.336  0.1843  0.0898  0.1501
78599W        W79463  11.052   4.681  20.444 -0.1249 -0.0508  0.2282
78600W        W79464  21.495   0.107  23.582  0.1332 -0.3599  0.0815
78601W        W79465  18.639   6.755   2.497 -0.2172  0.1281  0.0544
78602W        W79466  26.112  20.454   2.297 -0.0477 -0.1814 -0.0481
78603W        W79467  11.545   1.955   9.486  0.0848 -0.3938  0.0126
78604W        W79468   6.960   3.369   2.859  0.2260  0.0727 -0.0500
78605W        W79469  15.735   5.459   2.600 -0.1683 -0.0522 -0.1970
78606W        W79470   1.763   9.740  10.563 -0.2020 -0.1133 -0.3019
78607W        W79471  24.981  25.445   0.734  0.1532  0.0324  0.0480
78608W        W79472  18.351   2.320  17.417 -0.1753  0.0459 -0.0314
78609W        W79473   7.030   1.274  26.201  0.1075 -0.2529 -0.1619
78610W        W79474  13.929   9.293  17.589  0.0197 -0.1679 -0.0217
78611W        W79475   8.590  25.198  20.354 -0.0430 -0.0009  0.0078
78612W        W79476  21.716   8.386  12.285  0.0813  0.0501 -0.0842
78613W        W79477  17.456  27.236   6.069  0.2000 -0.0600 -0.5433
78614W        W79478  27.245  20.383  11.705  0.1136  0.2114  0.0108
78615W        W79479   8.458  11.859  19.963  0.2597  0.1229 -0.2210
78616W        W79480  27.574  27.389  12.162 -0.0397  0.1056 -0.2642
78617W        W79481   4.209  17.636   3.871  0.1765  0.0954 -0.0048
78618W        W79482   1.449  24.236   3.083  0.1654 -0.1592  0.1560
78619W        W79483  17.694  24.644   6.995  0.2863 -0.2377  0.1893
78620W        W79484  25.792  11.251   5.331  0.1066 -0.2103 -0.0539
78621W        W79485  15.255  24.606  12.433  0.1230 -0.2571  0.0436
78622W        W79486   7.144  29.096  15.080  0.1520 -0.3640 -0.1926
78623W        W79487   9.921   6.884  15.454 -0.1980  0.0325  0.1411
78624W        W79488  25.614   5.719  13.308 -0.1475  0.0749 -0.2342
78625W        W79489   3.788   4.329  16.994  0.0891 -0.1118  0.0244
78626W        W79490   3.069  14.215  11.153  0.2060 -0.1128 -0.0843
78627W        W79491   8.766   1.739  18.352  0.1822  0.1669  0.3843
78628W        W79492  18.605   9.758   9.838  0.0865 -0.2330  0.3096
78629W        W79493  12.522   9.487  16.923  0.1966  0.2766 -0.2173
78630W        W79494  15.161   5.442  25.877 -0.2872 -0.2583 -0.1633
78631W        W79495  10.919  13.579  12.753  0.1357 -0.0768  0.0210
78632W        W79496  25.872  25.912  15.562 -0.1662  0.0023 -0.0302
78633W        W79497  10.898   9.897   7.503  0.2961  0.1983  0.1280
78634W        W79498  13.299   2.021  28.044  0.1682 -0.0526 -0.0188
78635W        W79499   1.814   3.294   8.634 -0.1143 -0.1185  0.0110
78636W        W79500   8.775   1.914  11.798  0.2620 -0.0812 -0.2529
78637W        W79501  26.774  28.611  15.422  0.0683 -0.2739  0.2222
78638W        W79502   5.376  26.213  11.845 -0.1104  0.3176 -0.2097
78639W        W79503  23.552  28.254   0.567  0.0657 -0.1154 -0.1186
78640W        W79504   8.086   0.048  28.809 -0.1377  0.2268 -0.0467
78641W        W79505   5.944  27.468  14.582 -0.0871 -0.1674  0.2700
78642W        W79506  14.598   7.846  16.772 -0.1437 -0.2553 -0.2691
78643W        W79507   7.095  20.943  11.182 -0.1492  0.0976 -0.2240
78644W        W79508   1.095  27.785  26.566  0.1038  0.2753  0.2382
78645W        W79509   5.474  12.002  26.165 -0.0252  0.1437  0.0051
78646W        W79510  25.872   6.975   7.942  0.0128 -0.3080  0.0098
78647W        W79511   8.148   1.442  23.439  0.1400 -0.0589 -0.0251
78648W        W79512  10.671  25.459  26.819  0.0016  0.0263 -0.0031
78649W        W79513  24.199   9.599  27.336 -0.0613 -0.0493 -0.3121
78650W        W79514  10.956  17.483   4.049 -0.0004 -0.2652  0.0394
78651W        W79515  19.876  24.140   0.094  0.3988 -0.0977  0.1093
78652W        W79516   9.109  22.622   5.874  0.1084  0.1484 -0.0057
78653W        W79517  18.125   1.353   8.841 -0.1763  0.0628  0.1267
78654W        W79518  19.593  13.534  24.824 -0.1296  0.0726 -0.0891
78655W        W79519  14.276  26.092  12.836  0.0063 -0.2900  0.0591
78656W        W79520   1.837  16.302   3.182 -0.4040  0.1167 -0.5497
78657W        W79521  10.494  19.654   9.013  0.2899 -0.2694 -0.1081
78658W        W79522  22.531  20.313   2.064 -0.0964 -0.2049 -0.1730
78659W        W79523   5.124  28.233   2.838 -0.0243 -0.0909 -0.0271
78660W        W79524  27.184  10.858  10.496 -0.0576 -0.3681  0.0483
78661W        W79525  10.918   8.075  14.655  0.3818 -0.1068  0.0195
78662W        W79526   1.983   9.963   1.477 -0.1491  0.2190  0.0840
78663W        W79527   5.874   6.249   3.896  0.0613 -0.4143  0.0984
78664W        W79528  20.860   0.109  20.790  0.2673  0.0129 -0.2556
78665W        W79529  25.079   5.711   7.888  0.5763 -0.1359  0.2543
78666W        W79530   7.996  21.772  25.593 -0.3898  0.0185 -0.0052
78667W        W79531  27.092   4.502  20.449 -0.0518  0.1687 -0.0517
78668W        W79532  27.504  10.340  13.895 -0.2232  0.0539 -0.1001
78669W        W79533  21.538   9.122  12.791  0.1418 -0.0308 -0.0203
78670W        W79534  14.985  21.970  26.085  0.2509  0.0123  0.3174
78671W        W79535  23.762  14.674  14.447 -0.2552 -0.1140  0.0078
78672W        W79536  20.128  27.734  23.361 -0.1613 -0.0844  0.1314
78673W        W79537   5.179   8.121  14.528  0.0121 -0.2251  0.0377
78674W        W79538  10.706   1.202  22.338  0.1001 -0.2255  0.1829
78675W        W79539  17.845  13.770   3.635  0.0366 -0.0522 -0.1121
78676W        W79540   3.737   0.110  16.403 -0.0566 -0.0695 -0.0905
78677W        W79541  17.091  29.121   2.938 -0.1588  0.0073  0.0519
78678W        W79542   7.681  19.583  18.169 -0.0024  0.0801  0.4092
78679W        W79543  23.711   8.572   2.869  0.0677  0.2235  0.3981
78680W        W79544  14.325  28.766  13.430 -0.3389  0.2098 -0.0737
78681W        W79545  20.411  20.772  19.847  0.1166  0.1575 -0.0460
78682W        W79546   2.713  24.348   6.473 -0.0947 -0.0447  0.2188
78683W        W79547  10.601   3.700  18.074  0.2355 -0.1737  0.0744
78684W        W79548  23.093  22.859  21.208 -0.0081 -0.5145 -0.3110
78685W        W79549  28.501   7.451  16.537  0.0320  0.0227 -0.1140
78686W        W79550   1.227   4.595  12.232  0.0688  0.3311  0.0915
78687W        W79551  27.404   3.377   6.889  0.1810 -0.0363  0.0978
78688W        W79552  20.964   6.723   4.114  0.1094  0.1151  0.0383
78689W        W79553   5.453  26.227  24.130 -0.2293  0.1324 -0.1250
78690W        W79554  14.294  10.505  25.818  0.0970  0.6192  0.1867
78691W        W79555  17.708  14.162  28.743 -0.2060  0.3313 -0.1297
78692W        W79556  12.388  14.496   4.335 -0.1430  0.1678 -0.1048
78693W        W79557  25.163  16.019   6.626  0.2272  0.0408 -0.4029
78694W        W79558  24.536  12.402   0.353  0.2218  0.2709 -0.1019
78695W        W79559  16.980  18.857  26.859  0.3447  0.0146  0.4007
78696W        W79560  24.757   1.778  28.442 -0.0911 -0.0050 -0.1047
78697W        W79561   1.705  27.517  24.639 -0.1406  0.2219  0.2242
78698W        W79562  15.286  26.097  13.243 -0.2256 -0.1581  0.2853
78699W        W79563   9.428  21.624  18.953  0.1248  0.4142 -0.0875
78700W        W79564  27.310  28.645  12.679  0.1757 -0.0608  0.1504
78701W        W79565  18.022  11.067  22.225 -0.2373 -0.3757  0.0254
78702W        W79566  22.032   4.732  26.167 -0.2531  0.1104 -0.1293
78703W        W79567  22.088   8.751   7.104  0.4204  0.1559  0.0234
78704W        W79568  14.825  16.522  24.438  0.2052  0.1969 -0.0128
78705W        W79569   0.486   1.351  14.302  0.1684 -0.2415  0.1053
78706W        W79570   8.419  13.858  13.650 -0.3506 -0.1320 -0.1062
78707W        W79571  20.571   9.596  28.859 -0.1988 -0.1385 -0.1580
78708W        W79572   7.160  27.144  16.750 -0.0788 -0.1731  0.1567
78709W        W79573  25.324   8.020   8.298 -0.3441  0.4929 -0.1481
78710W        W79574   5.887  18.360   8.838  0.1535 -0.0516  0.3557
78711W        W79575  17.192  27.824  16.036  0.1863 -0.0457 -0.0408
78712W        W79576  25.753  12.885  22.912  0.2158  0.1334 -0.0426
78713W        W79577   9.533   1.269  27.834  0.0886 -0.0408  0.2255
78714W        W79578   9.284  26.740  20.245 -0.3067  0.1332  0.2464
78715W        W79579   3.412  17.966   4.431 -0.1037  0.0780  0.0041
78716W        W79580   7.419  14.333  20.486  0.2989  0.0687 -0.0580
78717W        W79581  14.591   5.717  20.871 -0.1318  0.1047  0.0323
78718W        W79582  14.233  16.111  23.187 -0.2848 -0.0930 -0.0350
78719W        W79583  12.988  17.693  13.051  0.1009 -0.2553  0.2445
78720W        W79584  11.454   8.000   0.801  0.0089 -0.0082  0.1792
78721W        W79585  12.047  20.533  13.076 -0.1944 -0.2885 -0.1860
78722W        W79586  17.198   2.545  16.064 -0.1998 -0.0745  0.1471
78723W        W79587  19.862  22.844   5.277 -0.0446 -0.2061 -0.0624
78724W        W79588   8.683  14.069   3.335  0.2204  0.0430 -0.0503
78725W        W79589  14.476   8.659  18.858 -0.1632  0.0179 -0.5364
78726W        W79590  16.608   7.626  27.472 -0.1560 -0.0569 -0.3317
78727W        W79591  23.468   7.435  17.259 -0.0276  0.0468  0.3061
78728W        W79592  25.435  26.727  24.049  0.3233  0.3612 -0.1672
78729W        W79593  18.195   3.480  15.514 -0.0455 -0.1142 -0.1096
78730W        W79594   4.366  27.012  24.904  0.0132  0.0948 -0.1604
78731W        W79595   7.988  28.006  15.492 -0.2084 -0.0393 -0.1224
78732W        W79596   3.276  12.746  26.323 -0.0809  0.4471 -0.1072
78733W        W79597   5.497   3.119  20.715 -0.4977 -0.0675  0.2394
78734W        W79598   0.684  27.976   1.763 -0.0670 -0.2077 -0.0971
78735W        W79599  18.802   0.515  26.474 -0.0043 -0.0591  0.0835
78736W        W79600  26.110   7.679  18.411 -0.1626 -0.0433  0.0902
78737W        W79601  11.510  19.747  18.965  0.1100  0.1511 -0.3336
78738W        W79602  18.537  22.019  21.873 -0.1549  0.1245 -0.1708
78739W        W79603  13.848   3.963  25.934 -0.0367 -0.0638 -0.1256
78740W        W79604   3.457  19.571  16.092 -0.0387 -0.1222  0.1312
78741W        W79605  18.071   5.026  11.214 -0.0698 -0.2141 -0.1307
78742W        W79606  12.817  26.924  28.675 -0.1635  0.1509  0.0090
78743W        W79607  18.836   3.186   4.739  0.1414  0.2467 -0.1623
78744W        W79608  18.058  26.505  27.032 -0.2286 -0.2119 -0.2025
78745W        W79609  22.498   7.398  23.946 -0.0362 -0.2176  0.2031
78746W        W79610  26.639  14.762  18.207  0.1615  0.0278  0.0737
78747W        W79611  27.086   2.460  19.631 -0.0361 -0.0874  0.2490
78748W        W79612  18.820  27.432   9.000  0.2278  0.1655 -0.1804
78749W        W79613  14.323   1.047  26.940  0.2261 -0.2924  0.0052
78750W        W79614   0.554  26.265   4.017  0.2099  0.1787  0.4066
78751W        W79615  16.619   4.334  19.942 -0.3759 -0.0001 -0.1268
78752W        W79616   0.912  17.388  26.104 -0.1555 -0.0725  0.1456
78753W        W79617   7.053  20.960  12.499 -0.1292  0.1211 -0.4405
78754W        W79618   6.632  12.335  23.998 -0.0103  0.1306  0.1243
78755W        W79619  13.802  14.211  21.952  0.3292 -0.1993  0.1881
78756W        W79620  27.291  23.416  13.031  0.1087 -0.2898  0.1276
78757W        W79621   3.675   2.437  22.013 -0.0404 -0.0715  0.2866
78758W        W79622  13.468   3.433  12.240  0.0409 -0.1752 -0.1563
78759W        W79623   8.004   8.958   0.137  0.0463  0.0602  0.0407
78760W        W79624   7.703  10.495   8.746  0.0941  0.0439 -0.0026
78761W        W79625   6.662   7.191  10.231 -0.0901  0.2899 -0.3446
78762W        W79626   6.576  25.606  27.439  0.4736 -0.1404 -0.0646
78763W        W79627  11.484   5.561  20.533  0.2306 -0.3277 -0.0259
78764W        W79628   8.196  21.926  27.639 -0.2998  0.1270  0.1596
78765W        W79629   8.523  15.806  10.031 -0.1153 -0.2779  0.2113
78766W        W79630   3.740   2.910  18.828 -0.3291  0.2425 -0.2681
78767W        W79631  18.521  16.450   8.338 -0.2163 -0.0234 -0.2909
78768W        W79632  25.189  10.494   9.317 -0.0183 -0.1719  0.1292
78769W        W79633  27.887  13.695  22.238 -0.0494 -0.1845  0.0193
78770W        W79634  14.855  15.435  13.502  0.2317 -0.3159  0.0026
78771W        W79635   7.214   7.543   8.896  0.0262  0.0709  0.0468
78772W        W79636  14.307  16.283  10.351 -0.2369  0.0190  0.4837
78773W        W79637  11.327  24.394  16.000  0.3011  0.0886  0.6797
78774W        W79638   2.092  27.911   6.403  0.3003 -0.0044 -0.0257
78775W        W79639  10.283  28.122  16.458  0.0001 -0.1588 -0.1154
78776W        W79640  18.172   2.094  20.175  0.0288  0.3448 -0.0824
78777W        W79641   1.492  14.331  11.722 -0.0097 -0.2380 -0.2885
78778W        W79642  10.080   8.407   9.807  0.2275  0.0725 -0.0113
78779W        W79643   7.694   9.516  20.973 -0.0189  0.0609  0.1231
78780W        W79644   9.752  26.355   3.603  0.0846  0.0833 -0.1439
78781W        W79645  12.251  18.234  14.013 -0.3159 -0.0636  0.0715
78782W        W79646   7.858  27.437  23.627 -0.1132 -0.0725  0.0817
78783W        W79647  20.121  14.133  15.108 -0.1619  0.0167  0.0160
78784W        W79648  12.023   2.818  20.081 -0.1511 -0.0452 -0.1820
78785W        W79649   4.803  21.859  27.005  0.4250 -0.1304 -0.1594
78786W        W79650  19.988   2.624  25.994 -0.0713 -0.0824 -0.0321
78787W        W79651   1.982  19.363   5.077  0.0836 -0.2682 -0.1418
78788W        W79652  23.600  25.959  15.048 -0.1284  0.4824 -0.1227
78789W        W79653   4.441  11.107  29.059  0.0548  0.4624 -0.0614
78790W        W79654  12.372  27.756  21.358  0.0274 -0.1798 -0.3156
78791W        W79655   0.511  16.366  22.807 -0.2564 -0.0751  0.1420
78792W        W79656  24.430   0.583  17.979 -0.1641 -0.1332 -0.2490
78793W        W79657  21.907  21.286  21.077 -0.2343 -0.0716 -0.1000
78794W        W79658   8.892   0.006  16.530 -0.1516  0.5255 -0.2613
78795W        W79659  13.644  12.721  19.395 -0.3137  0.2907  0.1206
78796W        W79660  23.887   7.039  11.386  0.0568  0.1825  0.2094
78797W        W79661  10.228  14.654  15.578 -0.2941 -0.0447  0.2171
78798W        W79662  12.942  24.035  20.207 -0.2309  0.2363  0.0421
78799W        W79663  16.919   0.600  14.924  0.0177  0.0710  0.1981
78800W        W79664  26.893  24.472  15.157 -0.0253  0.0583 -0.2729
78801W        W79665  10.087  26.697  26.221  0.4003 -0.1653  0.2304
78802W        W79666  15.666   9.634  11.314  0.0607 -0.0775 -0.3483
78803W        W79667   7.199   9.724  18.870  0.0858  0.3011 -0.4469
78804W        W79668   0.651  26.396   0.176  0.2660  0.1872 -0.1480
78805W        W79669  13.791  11.664  20.891  0.1498 -0.1342  0.2512
78806W        W79670  22.527  10.270  28.382 -0.1825 -0.0387  0.1324
78807W        W79671  22.089  13.281   5.353 -0.1201 -0.3213  0.0502
78808W        W79672  23.612  10.668   4.192 -0.2132  0.1479  0.0691
78809W        W79673   9.562  28.582   2.610 -0.1378  0.2683 -0.1602
78810W        W79674   4.360  12.005  11.565 -0.2189 -0.0488 -0.1976
78811W        W79675  15.221  11.498  17.532  0.0620 -0.0648 -0.1239
78812W        W79676  28.604  10.879  13.031 -0.0867 -0.0935 -0.1094
78813W        W79677  17.028  11.170   9.093 -0.4700 -0.0019 -0.0713
78814W        W79678  16.479  12.385  12.641 -0.1739  0.2686  0.3348
78815W        W79679   2.779  25.650  12.240  0.0611 -0.0204  0.0008
78816W        W79680   1.095  12.452  22.457  0.0659 -0.0910 -0.2200
78817W        W79681  23.925  17.975  16.196 -0.2033 -0.1759 -0.0946
78818W        W79682  22.865  15.478   2.956 -0.1110  0.0424 -0.2947
78819W        W79683   5.967   8.454   9.127  0.1535  0.1677  0.0487
78820W        W79684  22.768  13.205   5.635 -0.0090 -0.0345 -0.1254
78821W        W79685   0.161  13.118  13.955  0.2797 -0.1514 -0.1682
78822W        W79686  10.997  11.636  17.518  0.1144  0.3070 -0.0032
78823W        W79687   8.886  25.075  22.106 -0.0243 -0.0476 -0.0964
78824W        W79688  27.932   5.325  24.257  0.0289  0.3330  0.0184
78825W        W79689  18.043   1.719   3.598 -0.1181 -0.2934  0.2054
78826W        W79690  17.864  24.385  24.812 -0.0153  0.0706 -0.2192
78827W        W79691  27.794  20.735  13.513  0.0198 -0.2160 -0.1473
78828W        W79692   3.763  26.086   6.082  0.0955  0.5171 -0.1576
78829W        W79693  17.641   9.311  21.361  0.0360  0.0947 -0.1457
78830W        W79694  13.563  12.585  26.185 -0.1801  0.1874  0.1539
78831W        W79695   9.024   4.382   4.993 -0.0665  0.1416 -0.0431
78832W        W79696   8.419  15.068  11.965 -0.1502  0.1452  0.1638
78833W        W79697  10.440  16.627   5.872  0.3348  0.2304 -0.1601
78834W        W79698  16.096  22.961  22.190  0.1448 -0.0039  0.1471
78835W        W79699   7.720   0.374   1.969 -0.2133  0.1254  0.2552
78836W        W79700  15.857  26.892  15.133 -0.1966 -0.3947 -0.0627
78837W        W79701  18.096  10.484  11.507  0.0782 -0.0698 -0.1949
78838W        W79702  15.218   1.884  28.315 -0.0721  0.0316 -0.3696
78839W        W79703   2.876  24.673  24.545  0.1669  0.1279  0.1147
78840W        W79704  20.493  17.259  26.529 -0.1248 -0.0436 -0.2571
78841W        W79705   5.313  18.595  11.575  0.0342 -0.1938  0.1621
78842W        W79706  17.488  21.553  14.618  0.2953  0.1556 -0.1658
78843W        W79707  17.811  27.589  23.097 -0.0572  0.0959 -0.0459
78844W        W79708  14.821   2.116   7.923  0.0564  0.1239  0.1369
78845W        W79709  21.345  17.035  17.338 -0.1446 -0.6309 -0.1231
78846W        W79710   7.222   4.635  22.190 -0.2871  0.0494  0.1175
78847W        W79711  13.151  15.035  27.768  0.0738  0.3459  0.0662
78848W        W79712  10.991  15.948  12.211 -0.2392  0.2372 -0.0830
78849W        W79713   6.998  16.164   7.608 -0.1360 -0.1613  0.2655
78850W        W79714  16.460   4.761   3.506  0.1078  0.2736 -0.2114
78851W        W79715   2.755  14.051  26.618 -0.0488  0.2623  0.1678
78852W        W79716  20.127  24.376  13.167 -0.1978 -0.0306  0.0073
78853W        W79717   7.222   6.333  10.294  0.3183 -0.0963  0.2719
78854W        W79718  22.973   5.965  14.751  0.0361  0.2681  0.0259
78855W        W79719   3.039  17.405  13.714  0.1363  0.0743  0.1703
78856W        W79720  16.436  20.335  14.947 -0.1315 -0.1909  0.2043
78857W        W79721  11.157  20.547  13.205  0.2134 -0.0213  0.0336
78858W        W79722  18.012   9.139  11.369 -0.2254 -0.2194 -0.0513
78859W        W79723   2.365   2.986  24.766 -0.0873 -0.0070  0.0107
78860W        W79724  12.040  12.269   6.809  0.2773  0.0240  0.2950
78861W        W79725  10.937  28.655  24.155  0.1238 -0.2439  0.2371
78862W        W79726  25.096  27.268  23.609 -0.3185 -0.1905  0.2365
78863W        W79727  10.228   2.667  24.434  0.1061 -0.0074 -0.0763
78864W        W79728   1.255   3.091  25.894  0.0958 -0.0984  0.0160
78865W        W79729   6.864   8.265  22.095  0.0061  0.3424  0.1894
78866W        W79730   3.034   0.102  17.327  0.3181  0.1708  0.2445
78867W        W79731   5.840  26.054  13.925 -0.2682 -0.1203 -0.1358
78868W        W79732  24.541  24.049   6.492  0.0549 -0.1700  0.0870
78869W        W79733  17.006  28.306   4.089  0.0549 -0.2360  0.2254
78870W        W79734  10.363  25.782  20.334  0.2538 -0.1032  0.0362
78871W        W79735  24.985  22.654  15.670  0.0405 -0.0323 -0.0359
78872W        W79736   1.428  18.691   9.403  0.2436 -0.1070 -0.0358
78873W        W79737  18.534  12.015  22.683  0.3665  0.0854 -0.2065
78874W        W79738   9.619   9.274   8.401 -0.2661  0.0880 -0.0056
78875W        W79739  21.538  15.240  14.397  0.1410  0.1599 -0.5273
78876W        W79740   7.315  28.072  28.263 -0.0921 -0.0282  0.0093
78877W        W79741  17.729  21.264   4.236 -0.0135  0.3124 -0.1583
78878W        W79742  16.495   3.821  19.006  0.1784 -0.0323 -0.1772
78879W        W79743  19.565  19.123  28.823 -0.0165  0.1019  0.2868
78880W        W79744   5.804  12.573   9.375 -0.2776  0.2748 -0.1367
78881W        W79745   3.203  13.386  15.936  0.0974 -0.2999 -0.1993
78882W        W79746  22.183  12.231  21.356 -0.0631  0.1136 -0.1087
78883W        W79747   0.011  16.034  24.406 -0.0485  0.3611  0.1578
78884W        W79748  16.112   6.074  13.213  0.1897 -0.1654 -0.0482
78885W        W79749  29.135  21.222  25.321 -0.1071  0.0079 -0.2061
78886W        W79750  20.654  20.369  13.000  0.0699 -0.1008  0.3833
78887W        W79751  28.034  23.921   8.911 -0.0363 -0.0239  0.0102
78888W        W79752  18.328   4.311  15.955  0.2989 -0.3616 -0.1448
78889W        W79753  12.070  28.844  15.623 -0.1313 -0.2042  0.0637
78890W        W79754   9.295   6.482   9.610 -0.1463  0.0161 -0.2321
78891W        W79755  17.688  19.588  18.056 -0.2021  0.2759  0.5746
78892W        W79756   5.876   0.897  24.140  0.1797  0.3422 -0.5146
78893W        W79757  10.314   3.393  12.766 -0.0300 -0.3199 -0.1212
78894W        W79758  11.171   0.873   2.633 -0.3202 -0.0413 -0.0311
78895W        W79759  17.853  24.319  14.014  0.1541 -0.0906  0.1949
78896W        W79760  17.345  20.083  14.913 -0.1340 -0.1134  0.0019
78897W        W79761  12.625   7.617   1.339 -0.0162 -0.0680 -0.0342
78898W        W79762  24.616  13.785  14.501  0.2397  0.0442 -0.3322
78899W        W79763  16.046   5.383  25.979  0.0006 -0.1174  0.3383
78900W        W79764  21.322  12.468  10.789 -0.3419 -0.0791  0.1352
78901W        W79765  12.027  27.966  24.084  0.0695  0.1527  0.0840
78902W        W79766  13.479  20.272  24.014 -0.0759  0.0971  0.0730
78903W        W79767  21.809   0.214  13.058 -0.0928 -0.0973  0.1706
78904W        W79768  17.928  28.202  28.963  0.3404 -0.1600  0.1761
78905W        W79769   4.118  26.477  19.841  0.2812  0.1001 -0.1746
78906W        W79770  20.170  25.550  16.852  0.0909 -0.2426  0.1421
78907W        W79771   1.683  24.783  24.840 -0.1147  0.1415 -0.0442
78908W        W79772   7.342   2.701   6.507  0.2509 -0.1101 -0.1540
78909W        W79773  10.439  26.974   8.804  0.0816  0.0280 -0.0953
78910W        W79774  12.675  14.907   9.362  0.1962 -0.3500 -0.0321
78911W        W79775  12.890  24.179  13.787  0.0487 -0.1161 -0.1856
78912W        W79776  18.197  21.174  18.569  0.0931  0.1833 -0.0719
78913W        W79777  18.177  25.740   0.569 -0.1084  0.1189 -0.0091
78914W        W79778  12.572   4.367  24.665  0.2441 -0.0882  0.1179
78915W        W79779  27.211  25.774   1.908 -0.0809 -0.0879  0.2570
78916W        W79780  20.737  24.878  25.915  0.2488  0.1291 -0.1279
78917W        W79781  24.654  11.408  19.147  0.2262 -0.0392  0.0964
78918W        W79782  19.374  27.268  11.418  0.0927 -0.1204  0.0454
78919W        W79783  22.717  19.076  12.178  0.0144 -0.2399 -0.1174
78920W        W79784  13.133  18.689  24.385 -0.0548 -0.2546  0.1231
78921W        W79785  18.519   9.721  21.313  0.1774  0.1611 -0.0067
78922W        W79786   8.317  21.222   8.759  0.4498  0.1647  0.0421
78923W        W79787  22.446   6.052  28.561 -0.0937  0.0870 -0.0876
78924W        W79788  20.306   1.178  27.149 -0.0476 -0.1616  0.1248
78925W        W79789   4.481  13.055   9.958  0.1638 -0.1642 -0.0397
78926W        W79790  19.077   4.697  22.899  0.0890  0.1109 -0.1090
78927W        W79791  21.723  12.567   1.404  0.3609 -0.1672  0.0187
78928W        W79792   9.884   1.830  13.309  0.0663  0.0064 -0.1413
78929W        W79793  17.517  14.612  12.321  0.2459  0.3732  0.0493
78930W        W79794  21.259   2.624  17.381  0.0637  0.2202 -0.0099
78931W        W79795   6.119  12.512  17.760  0.0074 -0.2366  0.0921
78932W        W79796  12.522  25.446  16.664  0.0560 -0.0489  0.1571
78933W        W79797   2.600  27.864   6.020  0.0059 -0.3511 -0.1322
78934W        W79798  11.510  13.106  21.631  0.0928 -0.1812  0.0561
78935W        W79799   2.798  20.979   6.744  0.0396  0.1501  0.1137
78936W        W79800  10.845  27.116  13.512 -0.0905 -0.0142  0.0098
78937W        W79801  10.028  14.624  20.042 -0.0665 -0.2325  0.1304
78938W        W79802  16.553   9.213   5.426 -0.0180 -0.3154 -0.1030
78939W        W79803   2.164  17.235   9.457  0.2656 -0.0171 -0.3309
78940W        W79804   3.099   6.521   8.945 -0.0623 -0.0158  0.0128
78941W        W79805   4.344  21.370   7.942  0.3805  0.3167 -0.0881
78942W        W79806  22.137   2.157  22.710  0.3442  0.1390 -0.1324
78943W        W79807  13.677  22.279  15.979 -0.0343  0.0391 -0.2604
78944W        W79808  26.698  12.600   5.338  0.3559 -0.0564  0.5594
78945W        W79809   1.460  27.667   6.521 -0.0087  0.0943 -0.0956
78946W        W79810  23.304   6.728  17.340 -0.1965 -0.2120  0.0759
78947W        W79811   6.959   8.667   4.978  0.4213 -0.0555  0.2680
78948W        W79812   4.327   9.043  16.826  0.1411 -0.1222  0.1987
78949W        W79813  13.010  22.277   0.857  0.3957 -0.0874 -0.2679
78950W        W79814   5.855  12.574  12.429 -0.1349  0.1846 -0.3924
78951W        W79815  22.110  23.342   6.464  0.1000  0.1617 -0.3118
78952W        W79816   4.168   1.495  23.001  0.3676  0.0557  0.1459
78953W        W79817  14.036  14.646  10.925  0.0805  0.1855  0.2087
78954W        W79818  21.904  28.857   9.551 -0.1892 -0.1107  0.1049
78955W        W79819  28.934  22.855   0.696 -0.2080  0.2088  0.0988
78956W        W79820  22.299  27.167  20.135 -0.0189 -0.2501 -0.0115
78957W        W79821  16.333  14.794  17.278 -0.3644  0.1187 -0.1467
78958W        W79822   1.531  16.095   2.571  0.2609 -0.0042  0.3300
78959W        W79823  13.786   5.477  14.952 -0.1368  0.0567  0.0611
78960W        W79824   6.076   5.500  23.013 -0.0997 -0.0421  0.0113
78961W        W79825  27.097   9.131  26.336 -0.0125 -0.2124  0.1117
78962W        W79826   4.539  25.936  28.331 -0.1731  0.2294  0.1310
78963W        W79827   5.226   0.540   0.846  0.0803 -0.2219 -0.4927
78964W        W79828  17.989   9.702   3.599  0.0273  0.3279 -0.0750
78965W        W79829   3.522  13.916   4.425  0.0587  0.2047  0.0283
78966W        W79830  17.291   7.114  14.946 -0.3387 -0.2843 -0.1493
78967W        W79831  25.675   7.564   5.159 -0.0032  0.2019  0.0933
78968W        W79832  25.923  14.462   7.368  0.1379  0.1336  0.1988
78969W        W79833  21.084  12.070   8.228  0.2160 -0.2367 -0.0034
78970W        W79834  15.534   7.837  23.391  0.1092  0.0070  0.3575
78971W        W79835  25.305  10.434   1.138  0.1884  0.1359  0.0354
78972W        W79836  10.165  25.715  21.624  0.2701 -0.2017  0.4212
78973W        W79837  13.302  15.328  27.386 -0.3356 -0.3199  0.1037
78974W        W79838   1.317  18.867  29.030 -0.0405 -0.2115  0.1727
78975W        W79839   1.049  22.912  20.863 -0.3424  0.3041  0.3481
78976W        W79840   8.792  11.712  21.469 -0.1058  0.5042  0.1931
78977W        W79841   6.601  24.863  19.886 -0.0269  0.1074 -0.3023
78978W        W79842  21.655   3.912   4.508  0.0188  0.2126  0.0696
78979W        W79843  18.212   1.466  25.854  0.1855  0.2882 -0.2393
78980W        W79844   9.593   2.837  27.316 -0.1246  0.2413 -0.2241
78981W        W79845   6.814  26.480  15.845  0.3966 -0.1728  0.0723
78982W        W79846  26.582  12.902  13.722  0.0406 -0.2059  0.2050
78983W        W79847  16.697  22.338   2.922 -0.0071  0.0052  0.3523
78984W        W79848  21.323   0.143   4.047 -0.2035 -0.0450  0.0024
78985W        W79849  21.558  16.729  13.196 -0.0777  0.1615 -0.5691
78986W        W79850  25.230   1.036  10.859 -0.0675 -0.2283 -0.1691
78987W        W79851   4.557  24.690  23.460 -0.0871 -0.3078 -0.0508
78988W        W79852  14.175  11.338  22.074  0.2131  0.1203 -0.4209
78989W        W79853   9.621  12.470   6.991  0.2310  0.0007 -0.3551
78990W        W79854  12.465  22.501   6.945 -0.3497  0.1315  0.1697
78991W        W79855   8.402  15.417  21.053 -0.3768 -0.0157 -0.1199
78992W        W79856  14.445  15.691  13.747  0.0604  0.2634 -0.1269
78993W        W79857  18.073   4.181  11.508  0.1604  0.0516  0.2367
78994W        W79858  18.520  28.133   1.180  0.1713  0.0740 -0.0789
78995W        W79859   7.572   2.772  10.756  0.0542  0.0605 -0.0770
78996W        W79860  12.237   3.594  18.985  0.1517 -0.0011  0.1786
78997W        W79861  13.470   9.755   9.691  0.3018 -0.1446  0.0680
78998W        W79862  16.795  27.764  21.006 -0.0335 -0.1294  0.0294
78999W        W79863  14.425  21.538   0.942  0.4401  0.2888 -0.2677
79000W        W79864  10.784  16.692   1.647 -0.0436 -0.2210  0.0929
79001W        W79865   2.547  11.130   2.526  0.1464 -0.1011  0.0375
79002W        W79866  14.339  23.855   6.999 -0.1023 -0.1000 -0.0149
79003W        W79867  12.091   7.254  18.060  0.1705  0.0366 -0.0545
79004W        W79868   0.723  11.014  13.483 -0.0236 -0.0483  0.4097
79005W        W79869  10.268  13.751   9.805  0.0348 -0.1852  0.1060
79006W        W79870  14.106  12.176  12.547  0.1614  0.2310  0.1008
79007W        W79871  18.072  24.194  12.858 -0.2730  0.2423 -0.2359
79008W        W79872  24.494  28.010  13.849 -0.2950  0.0445 -0.2467
79009W        W79873  26.890  16.229   7.255 -0.1127  0.3077  0.0325
79010W        W79874   5.725   2.894  11.554  0.0588  0.0208  0.1828
79011W        W79875  13.188  16.899  15.531 -0.1717  0.0415  0.4134
79012W        W79876  12.987  28.794  28.111 -0.0317  0.2430 -0.1361
79013W        W79877  11.836  24.442  14.181 -0.0118 -0.2517  0.0397
79014W        W79878  20.499  12.487  19.442 -0.1335 -0.0964  0.2159
79015W        W79879  24.117  21.519  20.230  0.2173 -0.3303  0.1695
79016W        W79880  23.249   2.525   2.708 -0.1428  0.2871  0.1233
79017W        W79881  20.367  29.048   8.375 -0.2345 -0.4591 -0.0729
79018W        W79882   5.909   9.877   7.193 -0.1166  0.0242 -0.0942
79019W        W79883  25.991   2.864   8.553  0.1375  0.1148 -0.3879
79020W        W79884  20.959  16.472  19.277 -0.0914 -0.4795  0.0773
79021W        W79885  22.532   7.843  20.094 -0.3424  0.1391 -0.0364
79022W        W79886  13.774   4.373  18.157 -0.2832 -0.0348 -0.1480
79023W        W79887  22.558   5.418  22.509 -0.3497  0.2874  0.1454
79024W        W79888  25.132  28.348  21.446 -0.4463  0.0164 -0.0829
79025W        W79889  24.736   7.181  28.527 -0.1934 -0.1323  0.0975
79026W        W79890  10.413   2.534   4.993 -0.2280  0.3017 -0.0923
79027W        W79891  16.502   2.393   2.085 -0.0414 -0.2773 -0.2315
79028W        W79892  29.119  19.806   8.189  0.2430  0.0984  0.0129
79029W        W79893  23.951  15.935  26.534 -0.0174 -0.0874  0.0810
79030W        W79894  22.023  26.760   7.160 -0.1102 -0.1233  0.1788
79031W        W79895  26.224  28.344  23.325 -0.2146 -0.0679 -0.1157
79032W        W79896  12.063   3.106  10.374  0.0104  0.2193  0.2045
79033W        W79897   1.323  24.066  28.089 -0.1649 -0.0604 -0.0713
79034W        W79898  12.873  12.649  27.035  0.1774  0.0512  0.1665
79035W        W79899  24.125  14.010   0.647  0.0046 -0.0381 -0.0632
79036W        W79900  14.235   8.488  19.327  0.2012 -0.2616 -0.4027
79037W        W79901   3.445  17.333  24.241 -0.0167  0.0262 -0.0709
79038W        W79902  19.818   0.244   3.136  0.0439  0.1840 -0.3128
79039W        W79903  19.878  12.523  22.014 -0.1197 -0.1077  0.0749
79040W        W79904  14.350  16.467  24.681 -0.0561  0.0418  0.0203
79041W        W79905  17.064  18.419   3.113 -0.2681  0.0794  0.0070
79042W        W79906   6.947   1.926   9.588 -0.3100 -0.1673  0.0218
79043W        W79907  16.509  24.095  13.620 -0.0275  0.0303  0.2233
79044W        W79908  11.956  10.976  13.380 -0.0397  0.2303 -0.3183
79045W        W79909   6.331   6.646  22.969 -0.2588  0.0439  0.1292
79046W        W79910  24.350   3.507  23.780 -0.1026  0.0222  0.0914
79047W        W79911  11.164  13.721   7.612  0.2372 -0.1399 -0.1814
79048W        W79912   5.973  16.071  10.299  0.2025  0.0224 -0.0015
79049W        W79913  10.893  14.391  13.161 -0.0323 -0.1303 -0.2020
79050W        W79914  20.721  26.599  25.391  0.0510  0.0243 -0.1481
79051W        W79915  13.660  24.760  19.847 -0.1511  0.5194 -0.0054
79052W        W79916  28.677   6.608  19.743  0.0619  0.1008  0.3460
79053W        W79917  12.981   6.845  16.023 -0.2563 -0.1435 -0.0737
79054W        W79918  12.420   3.279  10.094 -0.1194 -0.2044  0.2022
79055W        W79919   3.708  19.847  19.886  0.0290  0.0189  0.3302
79056W        W79920  16.848  17.456   3.892 -0.0690 -0.1862 -0.3291
79057W        W79921  21.772   2.980  18.422  0.4905 -0.0383  0.1731
79058W        W79922  25.406   9.188  24.780 -0.1252 -0.1311  0.1718
79059W        W79923  16.317  19.321  20.327 -0.0426  0.0937  0.0259
79060W        W79924   1.927   0.779  25.690 -0.2449 -0.4048 -0.6354
79061W        W79925   9.418   5.146  28.538 -0.2069  0.1297 -0.0183
79062W        W79926   1.906  16.463  19.782  0.0776  0.0307  0.1659
79063W        W79927  15.688  16.201  11.094  0.0689 -0.2184 -0.0737
79064W        W79928  22.920   8.357   6.525 -0.3620  0.1427 -0.0663
79065W        W79929  14.433  15.501  21.661 -0.1577 -0.2209  0.1560
79066W        W79930  14.283   7.725  15.809 -0.1487  0.3086  0.2867
79067W        W79931   8.221  11.806   6.783  0.4046 -0.1691  0.2263
79068W        W79932   9.812   9.188   9.143 -0.0163 -0.1031  0.1051
79069W        W79933   1.892  28.919  18.573 -0.1873 -0.1124 -0.1413
79070W        W79934  24.170   2.695  24.007 -0.0494 -0.0932  0.0281
79071W        W79935  26.773  16.182  15.623  0.1524 -0.0087 -0.1622
79072W        W79936  19.573   8.087  14.859  0.1199 -0.1986  0.1466
79073W        W79937   0.904  16.432  25.371  0.1961  0.1116 -0.0309
79074W        W79938   1.031  22.889  11.538 -0.0677 -0.0523  0.1464
79075W        W79939   3.307   0.930   2.879  0.2811  0.1757  0.0072
79076W        W79940   5.124   0.949  21.735 -0.4972 -0.3860  0.1662
79077W        W79941  26.684   8.348  14.902  0.2142  0.3323 -0.3274
79078W        W79942  17.530   7.349   3.923 -0.1266  0.1785 -0.1208
79079W        W79943   8.126   6.563  22.355  0.0805  0.1589  0.1228
79080W        W79944  26.095   9.293  13.513  0.1053 -0.0038 -0.3088
79081W        W79945  10.992   5.129  14.887  0.0068 -0.0508 -0.0370
79082W        W79946  18.307  24.787  23.759 -0.0336 -0.1139 -0.0274
79083W        W79947   9.101   0.060   9.240 -0.1076  0.2667 -0.2719
79084W        W79948  24.294  19.572   5.964 -0.0250  0.1198 -0.0066
79085W        W79949  12.154   3.456  24.963  0.0947 -0.2185  0.1705
79086W        W79950  14.571  27.170  22.505 -0.0510 -0.1811 -0.0839
79087W        W79951  13.562  12.702  17.722  0.0369  0.1370 -0.0924
79088W        W79952  18.574  27.976   0.480  0.0573  0.3222 -0.0262
79089W        W79953  20.477   8.019   3.672  0.0045 -0.0215 -0.1379
79090W        W79954   3.363  26.619  13.945  0.1053 -0.2923  0.2453
79091W        W79955  12.324   7.915  23.512 -0.1135  0.0520  0.1150
79092W        W79956  19.692  18.782   3.360 -0.1946 -0.2260 -0.2121
79093W        W79957  12.201  15.935  21.403 -0.4282  0.1976  0.1166
79094W        W79958   1.782  16.036  26.926  0.0065  0.0552  0.0153
79095W        W79959   3.881   2.453   5.794 -0.3172  0.2091 -0.1029
79096W        W79960  25.221  16.560  16.399 -0.3106 -0.2095 -0.2679
79097W        W79961  21.116   3.263   5.418 -0.2366  0.1777  0.0544
79098W        W79962  14.812   1.690  27.449  0.2651 -0.1059  0.3651
79099W        W79963  16.808   0.301   7.465 -0.0693  0.1695 -0.0262
79100W        W79964   1.891  11.335   0.781 -0.2350  0.0644  0.0256
79101W        W79965  12.739  23.422   5.507  0.2424 -0.1729 -0.3363
79102W        W79966  21.503  22.319   9.451 -0.0580 -0.0081 -0.0929
79103W        W79967  16.267  13.641  20.021  0.0594  0.0601 -0.2479
79104W        W79968   2.964  19.980  28.482  0.0143 -0.1792 -0.1389
79105W        W79969   9.759  22.370   3.399 -0.0311  0.0022 -0.1170
79106W        W79970   0.184   7.911  14.660 -0.2559 -0.0870  0.2185
79107W        W79971  16.864  24.706  17.421  0.0157 -0.2962  0.2643
79108W        W79972  20.279  29.066  22.823 -0.1307 -0.2604  0.0366
79109W        W79973   4.136  19.533   7.707 -0.1066  0.0483  0.2303
79110W        W79974  22.752  12.982   9.122  0.0082 -0.0404 -0.1010
79111W        W79975  29.000  24.008  15.294 -0.1528  0.1205 -0.1077
79112W        W79976   0.059   3.751  22.859  0.0148 -0.1167 -0.1942
79113W        W79977  17.283   6.384  24.670 -0.1403  0.0933 -0.1431
79114W        W79978   2.011  28.466  24.591 -0.0410 -0.1206  0.0229
79115W        W79979  10.730   2.796   2.926 -0.1936  0.1067  0.1292
79116W        W79980  15.050  22.350  21.362 -0.2388  0.1230 -0.0841
79117W        W79981  17.187  19.706   1.034  0.2867 -0.0653  0.0619
79118W        W79982   7.769  19.908   1.360 -0.0192  0.3225 -0.0276
79119W        W79983   2.222  24.199  12.309 -0.0097  0.1804  0.3127
79120W        W79984  11.037   4.865  24.047  0.2238 -0.0918 -0.2160
79121W        W79985   9.509  10.092  14.032  0.2136  0.0014 -0.0183
79122W        W79986   7.486   7.670   8.487 -0.4115  0.0742  0.0218
79123W        W79987  27.939  21.531   7.379  0.1912  0.0511  0.0792
79124W        W79988   7.614  10.255   2.451  0.0108 -0.0546  0.0517
79125W        W79989   4.307   7.195  28.178  0.1332 -0.1113  0.2183
79126W        W79990  16.393  15.578  20.749 -0.0298  0.0025  0.0752
79127W        W79991  12.630  25.696  12.985  0.0328  0.1640 -0.0203
79128W        W79992   1.945   3.533   2.709  0.1670 -0.0408  0.1872
79129W        W79993   3.964  20.883  24.871  0.3689  0.2668  0.2414
79130W        W79994   1.034  24.215  22.161  0.3899  0.0463  0.0191
79131W        W79995  13.318   4.524  13.226 -0.2190 -0.1710  0.1589
79132W        W79996  21.473  13.161  26.696 -0.2817 -0.0421  0.3199
79133W        W79997   2.518  12.556  10.682  0.2156 -0.0115  0.0959
79134W        W79998  12.550   4.870  20.606 -0.1125 -0.2869  0.0068
79135W        W79999  28.511  15.080  16.131  0.0316  0.0343  0.0523
79136W        W80000  14.807   5.858  13.599 -0.1574  0.0444 -0.2082
79137W        W80001  12.571  23.925  19.546 -0.1567 -0.1117 -0.0962
79138W        W80002  19.509   7.690  12.229 -0.4034  0.0407  0.1149
79139W        W80003  22.222  26.434  14.246  0.0499  0.1892  0.0072
79140W        W80004  13.405  16.313   5.993 -0.0532  0.1471 -0.0154
79141W        W80005   1.382  21.622   0.956  0.0383 -0.1576 -0.1225
79142W        W80006   1.951  27.472   6.567  0.1096  0.3619  0.0112
79143W        W80007  15.319  11.138  23.870 -0.2012 -0.1419 -0.0690
79144W        W80008  10.774  21.606  21.447 -0.2248  0.2667  0.0359
79145W        W80009   7.440  22.730  17.490  0.0476  0.0440  0.0812
79146W        W80010  15.856  16.825   0.730 -0.2057  0.0828  0.0758
79147W        W80011  13.184  13.339  24.496  0.0827 -0.0583 -0.0341
79148W        W80012  10.334  25.250   1.183 -0.1822 -0.4690  0.0548
79149W        W80013   3.262  14.750   4.995  0.1434  0.2086 -0.0314
79150W        W80014   3.263  24.329  20.758 -0.1243  0.0583 -0.1443
79151W        W80015  14.385   4.071  24.619  0.0741  0.1505 -0.1168
79152W        W80016  13.033  11.214  12.165 -0.0147 -0.1203  0.0286
79153W        W80017  13.309   2.391  19.275 -0.0685  0.1223 -0.0177
79154W        W80018  11.971   9.864  12.843 -0.4350  0.0459  0.1449
79155W        W80019  27.797  25.157   4.317 -0.0458  0.0664 -0.0266
79156W        W80020  15.327  15.661  16.242  0.2482  0.0156  0.0658
79157W        W80021  14.456  24.118   7.945 -0.1389 -0.1292  0.1075
79158W        W80022   8.035   3.020  18.966  0.0346  0.2084 -0.2940
79159W        W80023   3.824  19.258  22.042 -0.0929  0.0395 -0.1917
79160W        W80024  13.864  24.786   6.650 -0.0683  0.0864 -0.0405
79161W        W80025  15.053   4.221  28.876 -0.1409 -0.1504 -0.0349
79162W        W80026  21.888   1.694  22.947  0.1376 -0.2193 -0.0230
79163W        W80027  15.860   3.247   7.132 -0.1482  0.1344 -0.0175
79164W        W80028  18.943   1.619  20.302  0.1719  0.0356 -0.0862
79165W        W80029  14.541  16.461  20.543 -0.2701  0.0818 -0.1985
79166W        W80030   7.080   0.943  28.447  0.0092 -0.0785 -0.0536
79167W        W80031  20.821   0.939   3.643 -0.0279  0.0360  0.2736
79168W        W80032  20.970   0.611   5.405  0.1127  0.0149 -0.1904
79169W        W80033  26.291  25.435  26.549  0.2118 -0.3999 -0.0025
79170W        W80034  26.597   6.173  29.138 -0.0345 -0.1137 -0.1768
79171W        W80035  11.818  13.837  12.413  0.2501  0.0687  0.1361
79172W        W80036  17.184  24.924  25.221  0.2043 -0.0468 -0.0173
79173W        W80037   8.250  26.434   8.633  0.1672  0.5158  0.3172
79174W        W80038   7.382  26.083   7.716  0.1914 -0.1027 -0.1295
79175W        W80039  24.914  13.014  22.327 -0.0434 -0.0336  0.2416
79176W        W80040  18.424   1.142  11.624  0.1768 -0.3304  0.0651
79177W        W80041  24.034  27.360   6.244 -0.2392  0.1279  0.3058
79178W        W80042   0.205   3.971  20.410  0.0073 -0.0391  0.0145
79179W        W80043  26.831  23.412  22.934  0.2358 -0.1650 -0.3109
79180W        W80044  24.694  12.954  12.047  0.0212 -0.0908  0.0225
79181W        W80045  12.469   2.267  24.476  0.0114  0.0681  0.1528
79182W        W80046   7.070  18.750  21.790  0.2383  0.2745  0.1835
79183W        W80047  26.738  27.891   9.815 -0.5506  0.4609 -0.1442
79184W        W80048   6.771  29.095  24.063  0.3050  0.1504 -0.2231
79185W        W80049   6.578   1.227   4.683 -0.0368  0.2984 -0.0097
79186W        W80050  15.585  27.255   8.672 -0.1001 -0.0238  0.0934
79187W        W80051  19.572   1.482   7.859 -0.1804 -0.1354  0.0393
79188W        W80052  25.475   8.956  26.301 -0.0470  0.0786 -0.1947
79189W        W80053  22.201  26.436   9.883 -0.2046  0.2443  0.0183
79190W        W80054  28.295   3.019  20.333  0.0504  0.1211  0.2509
79191W        W80055  21.190   0.283  26.117 -0.1634  0.0001  0.0532
79192W        W80056   4.570   1.884  16.211 -0.2888 -0.2035 -0.2014
79193W        W80057   6.637   0.505  11.890 -0.0524 -0.0416  0.1899
79194W        W80058  21.206  23.064  27.277 -0.0430  0.0419 -0.2083
79195W        W80059   2.186   3.318  19.643  0.2682 -0.2479 -0.3006
79196W        W80060   0.703  13.715  23.409  0.0207  0.0366  0.1118
79197W        W80061  16.606  10.733  20.520 -0.1325 -0.1253 -0.0891
79198W        W80062  16.063   4.393  14.145 -0.0833  0.0430 -0.2035
79199W        W80063   6.614   8.461   1.152  0.0360  0.0508  0.2352
79200W        W80064  23.946  27.926   6.402  0.1657 -0.1441 -0.1363
79201W        W80065   7.927  13.743   9.948 -0.1816 -0.3061 -0.1164
79202W        W80066  16.391  21.835  16.932  0.0700 -0.1326 -0.1093
79203W        W80067  19.827   2.526  10.550 -0.0161 -0.0375 -0.3277
79204W        W80068   9.402  15.107   2.093 -0.0101  0.0407  0.2601
79205W        W80069  22.908  16.019  20.589  0.4199 -0.0111  0.0720
79206W        W80070   8.665  28.497  15.687  0.1492  0.1338  0.2206
79207W        W80071   2.466  17.735  18.342  0.0286  0.1863 -0.1585
79208W        W80072   1.594  18.697   2.333 -0.3604 -0.2078 -0.0774
79209W        W80073  11.897  28.104  28.527 -0.0010  0.1464 -0.0408
79210W        W80074  27.607  18.636   8.184  0.2724 -0.1561  0.1128
79211W        W80075  13.888   9.055  15.141  0.1331  0.2057  0.0444
79212W        W80076   9.346   2.780   5.883 -0.0519 -0.0579  0.0605
79213W        W80077   3.575  24.155  23.018 -0.0177  0.1011 -0.2489
79214W        W80078  16.001  17.958  23.868  0.0725 -0.1258 -0.1669
79215W        W80079  18.407  19.693  22.001  0.0359  0.1149 -0.1084
79216W        W80080  28.905  16.940   0.613  0.1982  0.1998  0.1546
79217W        W80081  28.272  24.356  12.550 -0.1157 -0.2817 -0.0220
79218W        W80082   6.373   5.899  10.170 -0.0426 -0.1353 -0.1770
79219W        W80083  16.299   2.155   9.939  0.0697 -0.0738 -0.0240
79220W        W80084  18.177   5.271   1.019 -0.0468  0.5207 -0.0043
79221W        W80085   8.605  24.321   5.482 -0.1938  0.1283 -0.2803
79222W        W80086   7.291   6.622   8.730  0.1340  0.0649  0.1844
79223W        W80087  27.651   4.400  22.500  0.0279  0.1839 -0.2628
79224W        W80088  21.152  17.999   5.562 -0.1847  0.2509 -0.2386
79225W        W80089  10.952   8.464   2.304 -0.0755  0.3535 -0.3537
79226W        W80090  14.589  15.235  14.062 -0.2676  0.0922  0.2272
79227W        W80091  16.418  24.580  12.141  0.3147  0.1296  0.2493
79228W        W80092  13.233  28.586  14.350  0.2449 -0.2835  0.1364
79229W        W80093  17.516  10.908  12.619 -0.3389 -0.2484  0.3377
79230W        W80094  14.326  24.325  13.678 -0.2551 -0.1810 -0.1463
79231W        W80095  17.394   7.213   5.853  0.1352 -0.0249  0.1271
79232W        W80096   9.724   8.838   5.297  0.2584 -0.1041  0.1021
79233W        W80097  16.908   2.068   3.044 -0.1236  0.0589  0.2057
79234W        W80098   3.799   4.564   8.441 -0.2221  0.1730 -0.2116
79235W        W80099  11.102  15.050  14.917 -0.0951 -0.2840  0.0169
79236W        W80100   1.568  18.907  23.458 -0.0220  0.0402 -0.2564
79237W        W80101  11.173  23.904  24.966  0.0585  0.0560 -0.1686
79238W        W80102  24.576  27.710  12.127 -0.1176  0.1259  0.0638
79239W        W80103  15.905  22.644  17.797  0.0769  0.0375  0.1058
79240W        W80104  15.525  27.298   3.225  0.2331  0.0865 -0.1116
79241W        W80105   7.080  10.202  11.934  0.1717 -0.3066  0.0472
79242W        W80106   6.437   3.662  23.073  0.0399  0.0120 -0.0647
79243W        W80107  14.472  18.311  13.775  0.0437 -0.0588 -0.0782
79244W        W80108   4.224   0.975   6.407 -0.0528 -0.1491 -0.2346
79245W        W80109   2.012  22.500  11.168  0.3444 -0.0317  0.0699
79246W        W80110  12.186  11.876   7.107 -0.2304  0.3053 -0.0512
79247W        W80111   7.505   7.624  23.798  0.0137 -0.0979  0.0452
79248W        W80112   7.290   8.762  14.787  0.4604 -0.0796  0.2521
79249W        W80113  26.628  14.061   6.559  0.0772  0.1062  0.2240
79250W        W80114  28.176   7.324  24.617 -0.2244 -0.1168 -0.1323
79251W        W80115  16.573  16.853  26.937  0.2983  0.2201  0.0547
79252W        W80116  18.278   3.465  10.995 -0.0152 -0.0715  0.3680
79253W        W80117  19.824   5.546  18.618  0.0294  0.0138 -0.0716
79254W        W80118  11.943   0.406   0.950 -0.0611  0.3898  0.0620
79255W        W80119  11.155  29.138  23.733  0.2833 -0.1303 -0.0118
79256W        W80120  14.477  27.923  25.904 -0.1893  0.1742 -0.1766
79257W        W80121   3.924   2.596  18.427  0.2341 -0.0623 -0.0466
79258W        W80122   4.446  15.647   2.463 -0.1611 -0.0119 -0.0229
79259W        W80123   3.568  24.738  15.579  0.1875 -0.2596  0.0888
79260W        W80124   9.363   6.407  14.364  0.2712  0.0509 -0.0201
79261W        W80125  19.024  26.494  19.427 -0.1639  0.1201 -0.1023
79262W        W80126   2.871  18.237  26.413  0.3082  0.0101  0.0250
79263W        W80127  10.979   7.991  10.291  0.3525 -0.0818  0.2616
79264W        W80128  18.000  23.618  19.600 -0.1178  0.4570  0.1853
79265W        W80129  14.243  16.516  11.734 -0.0475  0.3292 -0.0039
79266W        W80130   2.633   2.470  18.117  0.0283  0.0313 -0.1385
79267W        W80131  11.058   1.076  17.750  0.1699 -0.2814  0.0183
79268W        W80132  16.553   8.213  23.888  0.0000 -0.0066 -0.1976
79269W        W80133  13.516  22.345  24.937  0.0679  0.3004 -0.1724
79270W        W80134  28.715   0.230   6.703  0.1414 -0.0951  0.0811
79271W        W80135   0.930   0.317  20.802  0.0328  0.3020 -0.2030
79272W        W80136  26.899  14.371  16.611  0.4996 -0.0247 -0.4681
79273W        W80137  19.906  26.768  28.381 -0.3252 -0.2256  0.0749
79274W        W80138  11.288  13.191   7.532 -0.1317 -0.0934 -0.0713
79275W        W80139   8.718   4.606  20.679  0.0824  0.0672  0.0833
79276W        W80140   6.872   4.094   3.269  0.2987 -0.1554 -0.3574
79277W        W80141   4.193   4.542   2.079 -0.3291  0.0912 -0.1722
79278W        W80142  28.368   3.254  16.166 -0.0959 -0.3408  0.0009
79279W        W80143  11.005  26.696  15.830  0.1278  0.1772  0.2499
79280W        W80144  16.460  23.694   4.316 -0.0251  0.0535  0.1870
79281W        W80145   6.575   1.654  26.064  0.0947 -0.2224  0.0603
79282W        W80146  14.194   6.821  21.911 -0.0939  0.4102  0.0858
79283W        W80147  11.786  22.201   6.398 -0.1847  0.0507  0.3283
79284W        W80148   2.486  18.070   7.225  0.0892  0.0516 -0.0159
79285W        W80149   8.036  20.549  22.508 -0.0517 -0.0485  0.2963
79286W        W80150  19.655  28.123  25.665  0.2442 -0.1731 -0.0866
79287W        W80151  14.325  22.401  20.640  0.0855 -0.1310  0.0463
79288W        W80152   6.040   1.836  22.246  0.3001  0.1872  0.0397
79289W        W80153  12.000  19.046  27.247  0.1447  0.0419  0.0526
79290W        W80154   5.003   9.312  22.510  0.0771 -0.2643 -0.0431
79291W        W80155  14.582   2.368  22.402  0.0025 -0.1408 -0.0039
79292W        W80156  20.727   3.619  17.689 -0.3713  0.0155  0.0873
79293W        W80157  27.671  24.745  23.616  0.2200  0.1854 -0.0816
79294W        W80158  17.228   1.973   2.289  0.1562 -0.3991  0.2776
79295W        W80159  12.918  20.949  19.101  0.0372  0.3253  0.0160
79296W        W80160  14.738  21.553  19.632  0.1979 -0.0458  0.1252
79297W        W80161  21.856  19.431  19.984  0.1052 -0.1600 -0.1689
79298W        W80162  21.933   3.755   3.437  0.1726 -0.1810 -0.0674
79299W        W80163   1.133  15.407  17.340 -0.2012 -0.1081 -0.1242
79300W        W80164  10.418   9.262  18.959  0.0694 -0.1900 -0.1381
79301W        W80165   4.087   7.687  28.472  0.0322  0.1221  0.0811
79302W        W80166  10.071  28.244  18.334 -0.2109 -0.1188  0.1018
79303W        W80167   7.944   6.076   6.113 -0.3602  0.0531 -0.0400
79304W        W80168  28.398   7.538  25.908 -0.1457 -0.1724  0.0518
79305W        W80169  19.786  17.950  12.090 -0.2215  0.0256  0.2717
79306W        W80170  22.913  10.481  14.673  0.2688 -0.3481 -0.0283
79307W        W80171   7.637  25.891   5.769  0.0189  0.0627  0.0608
79308W        W80172   7.424  11.727  15.106  0.1240 -0.1392 -0.0704
79309W        W80173   1.814   0.273  25.688  0.0315 -0.1132 -0.4318
79310W        W80174  19.141  15.890  16.156 -0.1276  0.2958  0.2573
79311W        W80175  19.266   7.277  20.086  0.1369 -0.0029 -0.3152
79312W        W80176  26.328  12.609   9.479  0.2159 -0.0358  0.1485
79313W        W80177  28.623  20.148   6.313 -0.2098 -0.0115 -0.0307
79314W        W80178  28.353  11.924   4.390  0.0637  0.0633  0.2806
79315W        W80179  19.866  20.213  28.068  0.1426  0.0070 -0.0622
79316W        W80180  11.674  11.938   5.530  0.1715  0.0886  0.0105
79317W        W80181  24.548  12.575  26.598 -0.0273 -0.1348 -0.0206
79318W        W80182   4.989  29.113   7.960  0.0605 -0.0159 -0.0548
79319W        W80183  17.333   1.782  21.059  0.1271  0.1838  0.0058
79320W        W80184   2.243  27.410  25.094  0.0458 -0.0856  0.0980
79321W        W80185  14.994   8.552   5.034  0.1218 -0.1082 -0.0071
79322W        W80186  19.459  14.638  21.325  0.0943  0.0292 -0.0396
79323W        W80187  24.276  25.903  17.940  0.1208 -0.2397 -0.2442
79324W        W80188  22.476   5.940  24.503 -0.1751  0.1606 -0.0748
79325W        W80189   9.565   9.443  23.018 -0.3004  0.0852  0.0021
79326W        W80190  20.410  24.947  19.293 -0.1098  0.1333 -0.4301
79327W        W80191  16.563   3.597  22.642  0.0779  0.0773 -0.2830
79328W        W80192   2.543  10.482  18.040  0.1315 -0.1938 -0.2646
79329W        W80193  21.374  23.103  21.673  0.0758 -0.3250 -0.1704
79330W        W80194  12.812  10.981  22.511  0.0569 -0.1335 -0.0262
79331W        W80195   5.673   8.173  19.105 -0.1598  0.1569  0.0611
79332W        W80196  13.539  21.395  24.858  0.1130 -0.2838  0.0865
79333W        W80197   3.295  13.852  15.931  0.1028  0.0961  0.1509
79334W        W80198  12.265  17.586  16.974  0.1444 -0.3666  0.1021
79335W        W80199  26.615  29.125  16.597 -0.1533 -0.0176  0.0603
79336W        W80200  15.999  11.740   6.795  0.1384  0.0590  0.0840
79337W        W80201  15.169  15.078  21.137 -0.2622 -0.4327 -0.0066
79338W        W80202  19.151   4.624   2.800 -0.1132 -0.0346  0.1629
79339W        W80203   7.318   0.746  18.856  0.1834 -0.5360  0.0456
79340W        W80204  17.571   5.760   6.871 -0.0407  0.1629  0.2454
79341W        W80205  13.693  12.026   7.650  0.1042  0.0363  0.1259
79342W        W80206  10.669  11.910  13.283 -0.0521  0.1408 -0.1237
79343W        W80207  12.248   9.731  15.298  0.1794  0.0038  0.2504
79344W        W80208  19.984   4.483  18.636 -0.1172  0.0247  0.5710
79345W        W80209  14.197   9.658  12.379  0.2142 -0.0564 -0.2144
79346W        W80210  11.665   9.807  18.548 -0.0855 -0.0998  0.1268
79347W        W80211  13.328  28.283   4.150  0.1392 -0.1079 -0.0033
79348W        W80212  14.120  12.321  20.310 -0.0326  0.0706 -0.4322
79349W        W80213  22.476  10.647   7.599  0.3227  0.0383  0.1579
79350W        W80214  17.555  22.071   9.723  0.0868  0.0062 -0.2938
79351W        W80215  15.237  18.351  10.125 -0.0781 -0.0729  0.1139
79352W        W80216  27.101   1.043  10.686 -0.0626 -0.3314 -0.0930
79353W        W80217  13.709  10.166   2.067 -0.2895  0.2607 -0.2356
79354W        W80218   2.132  28.650  17.472  0.1112  0.0184 -0.0041
79355W        W80219  27.931   9.699  25.343 -0.0134  0.3355  0.2672
79356W        W80220   0.515   2.152  21.750  0.0015 -0.0971 -0.0426
79357W        W80221   9.946  23.141  15.437  0.2576 -0.1445  0.0575
79358W        W80222  21.409   2.238  26.036  0.1123 -0.0926  0.1054
79359W        W80223   6.659  22.104  21.588 -0.1210 -0.1994  0.2761
79360W        W80224   8.630  11.881   2.987  0.0504 -0.0390  0.1535
79361W        W80225   3.692   1.489  19.366  0.0580 -0.1462  0.0540
79362W        W80226  10.923  27.496  29.095  0.1953 -0.0461  0.1288
79363W        W80227   2.303  21.395  24.696 -0.1745 -0.2120  0.0009
79364W        W80228  10.869   4.942   4.319 -0.2819  0.0620 -0.0987
79365W        W80229  13.995   7.983  23.754  0.1378 -0.0019 -0.2982
79366W        W80230  20.375  19.295  19.035 -0.4080 -0.1326  0.2023
79367W        W80231   5.507   6.471   9.170  0.1585 -0.0330  0.1984
79368W        W80232  27.102   3.169  16.716 -0.0456 -0.0661  0.3122
79369W        W80233  23.043   7.428  19.848 -0.2251 -0.1346  0.0049
79370W        W80234  22.383   7.383  18.494 -0.1585  0.1853  0.0139
79371W        W80235   2.993  14.245  15.798  0.2639 -0.4163 -0.0066
79372W        W80236  18.309  28.139   1.937 -0.0324 -0.0308  0.2322
79373W        W80237   5.416   7.739  28.761 -0.2362 -0.0327  0.1431
79374W        W80238  20.966   5.749  14.728 -0.1152 -0.1503 -0.0373
79375W        W80239   7.040  10.254   8.150  0.1624 -0.4873  0.1267
79376W        W80240   0.334  24.167  26.726  0.0269  0.0108  0.1402
79377W        W80241  13.953  15.029  23.485 -0.1332 -0.3230  0.0069
79378W        W80242  14.619   0.437   8.103 -0.2404 -0.1128 -0.0613
79379W        W80243  12.099  27.873   3.876  0.0131  0.0247  0.1415
79380W        W80244   3.805  15.125  12.198  0.2845 -0.0534  0.0635
79381W        W80245  14.030  22.626   1.954  0.1237 -0.1803  0.1931
79382W        W80246  21.527  10.997  23.911  0.0136 -0.1493 -0.2145
79383W        W80247  22.214   7.858  15.469 -0.0232  0.2435 -0.2830
79384W        W80248  20.782   0.210  20.062  0.0714  0.0894 -0.0429
79385W        W80249   8.541  14.424  19.890  0.1801 -0.1855 -0.3930
79386W        W80250  20.824  21.528  15.252 -0.2741  0.1993 -0.2440
79387W        W80251   5.889  16.468  17.812 -0.2365  0.1786  0.2191
79388W        W80252  17.767   3.977   6.939  0.0824  0.0848  0.0382
79389W        W80253  20.921  23.926  17.725  0.2406  0.0410 -0.1004
79390W        W80254  16.951   8.262  24.968  0.1404 -0.0517  0.2009
79391W        W80255  17.415  24.789  23.836 -0.2681  0.5199 -0.2591
79392W        W80256  25.868  27.106  18.991 -0.0468 -0.3248 -0.3027
79393W        W80257  20.587   2.095  18.911 -0.1295 -0.0351 -0.0416
79394W        W80258   6.684  19.967  16.637 -0.0576 -0.3116 -0.3865
79395W        W80259   2.653   8.525  18.887 -0.3012  0.0357 -0.1916
79396W        W80260   9.236   2.856   2.124  0.1719  0.1169  0.0097
79397W        W80261  11.997  16.630  15.327  0.0235 -0.0664  0.0052
79398W        W80262   6.320   2.033  16.663  0.0332  0.3121 -0.2163
79399W        W80263  28.191  23.695  23.219  0.2628  0.4522  0.4086
79400W        W80264   6.768  20.081  18.454 -0.4379 -0.0868  0.1634
79401W        W80265   5.260  17.551   3.528  0.1291  0.0974 -0.2771
79402W        W80266  13.788   2.144  21.303 -0.1207 -0.2353 -0.2020
79403W        W80267  11.301  12.287  22.276 -0.0705  0.3539  0.3192
79404W        W80268  10.047  22.182  24.025 -0.0785 -0.2308  0.0768
79405W        W80269  10.588  18.333  12.079  0.1656 -0.1272 -0.0253
79406W        W80270  21.632  18.398  23.147  0.0006 -0.1063  0.1670
79407W        W80271  16.588   8.283  12.010 -0.3988 -0.0369  0.0486
79408W        W80272   3.596  20.969  17.775  0.2392  0.1807  0.3432
79409W        W80273   1.474   7.026  21.991 -0.0229 -0.3079  0.0956
79410W        W80274  10.971   9.380  15.919  0.2254  0.0948  0.0598
79411W        W80275   9.077  19.097   7.718  0.3201 -0.1855 -0.1537
79412W        W80276  13.476  26.416  17.041  0.2805  0.0540 -0.0301
79413W        W80277  20.768  10.070  24.156  0.3733  0.1141  0.0413
79414W        W80278  22.160   8.803  17.254  0.2302  0.3807  0.1853
79415W        W80279   0.552  22.464  11.253 -0.2856  0.1182  0.1432
79416W        W80280  12.787  13.150  27.090  0.0007  0.1810 -0.0231
79417W        W80281   7.646  22.659   3.623 -0.1208 -0.2131 -0.1282
79418W        W80282  15.657   6.571  10.089  0.1838 -0.0263 -0.1198
79419W        W80283   6.920  28.000  20.810 -0.0016  0.1527  0.0812
79420W        W80284   5.761  11.650  21.447 -0.1144  0.2200 -0.1829
79421W        W80285   0.008   1.869   1.558  0.2652  0.0665  0.0389
79422W        W80286  21.735  12.071   5.007  0.1582  0.0154 -0.0668
79423W        W80287  22.366  25.584  24.207 -0.3302 -0.3346  0.2618
79424W        W80288  27.973  12.814  21.825 -0.2213 -0.1850 -0.1452
79425W        W80289  21.928   1.850  28.136  0.1398  0.0060 -0.0356
79426W        W80290  15.951  16.662   6.714  0.2089  0.2971  0.0132
79427W        W80291   8.095  21.212  17.965 -0.0565 -0.0121  0.0730
79428W        W80292  18.999  23.082   7.318  0.3728 -0.2661 -0.2414
79429W        W80293  14.684  18.970  24.051  0.0840 -0.0546 -0.1424
79430W        W80294  12.483   9.095   7.703  0.1950 -0.1709 -0.1005
79431W        W80295   5.598   0.439   2.436  0.2193 -0.1008 -0.0111
79432W        W80296  14.886   7.215   7.484 -0.0401 -0.0474 -0.0549
79433W        W80297  18.831  14.599   6.222 -0.1201  0.4340 -0.1434
79434W        W80298  16.044  20.232  11.815  0.0744  0.0402 -0.0421
79435W        W80299  13.188   2.452  23.238  0.0223  0.0464 -0.3651
79436W        W80300  14.443  10.512  21.062  0.2392 -0.2837 -0.0440
79437W        W80301  26.138  21.983  14.074  0.1465 -0.1477  0.2134
79438W        W80302  25.780  17.156  15.367 -0.1010  0.0204 -0.1941
79439W        W80303  27.538   7.457  13.390  0.1166  0.1198  0.0336
79440W        W80304  19.812   9.133   3.117  0.0431 -0.2761  0.0164
79441W        W80305  28.359  28.015  17.267 -0.0533 -0.0191 -0.1504
79442W        W80306   3.378   3.637  18.076 -0.0266 -0.2894 -0.0646
79443W        W80307  17.613  13.632  22.684  0.2086 -0.2810  0.0406
79444W        W80308  12.490  22.636  24.981  0.3020  0.5060 -0.2101
79445W        W80309   6.952   0.788  14.358  0.1476 -0.0356  0.1455
79446W        W80310  23.754  11.272  16.860 -0.1739  0.0178  0.0654
79447W        W80311  28.530  11.193  22.546 -0.2209 -0.0701 -0.0810
79448W        W80312  10.039  14.179  14.804 -0.0628 -0.1393 -0.3771
79449W        W80313   3.519  24.784   8.444  0.2349 -0.0248  0.2193
79450W        W80314   3.904  27.791   2.967 -0.2764  0.0298 -0.0894
79451W        W80315  28.528   0.483   7.062  0.1888  0.1500 -0.0555
79452W        W80316  14.229  18.434  28.059  0.0215 -0.1170  0.1547
79453W        W80317   6.670   7.508   8.630  0.0162 -0.0244  0.0126
79454W        W80318  17.395  23.228  15.188  0.1081  0.0286  0.1381
79455W        W80319  24.056   4.554  11.794 -0.1848 -0.0018 -0.2913
79456W        W80320   0.131  21.899   2.999  0.1798 -0.0106 -0.1502
79457W        W80321  21.196  27.112  20.030 -0.1436  0.2887 -0.2399
79458W        W80322   6.227  14.606  12.894  0.0463 -0.3553  0.1588
79459W        W80323  16.255  14.126  12.637 -0.0044 -0.0734  0.1621
79460W        W80324  13.480  23.248   3.501  0.1977 -0.0287 -0.1299
79461W        W80325  11.349   2.283  28.965  0.0755 -0.0298 -0.1329
79462W        W80326  14.304  23.342  23.221  0.1209  0.2965 -0.2570
79463W        W80327  24.179   6.089  26.760  0.2035 -0.0492 -0.1465
79464W        W80328  13.695  11.671  28.469  0.0230 -0.0243 -0.0362
79465W        W80329  22.355  25.153  24.914 -0.2359  0.0013  0.0780
79466W        W80330  18.399  21.392   9.117 -0.0835  0.1336  0.1233
79467W        W80331  25.443   5.882  15.629 -0.0147 -0.2559  0.1334
79468W        W80332   5.972   2.850  19.484 -0.0700 -0.0707 -0.0819
79469W        W80333   7.543   8.375  20.819 -0.2494  0.0134  0.4331
79470W        W80334  19.998  28.025  25.278  0.1630  0.1516 -0.0947
79471W        W80335  27.344  21.315  25.485  0.0380  0.0799  0.0409
79472W        W80336  21.281  22.445  27.245  0.0465  0.4245  0.2157
79473W        W80337  22.899   8.067  28.399  0.1357 -0.0377  0.0742
79474W        W80338   1.421  10.401  17.293 -0.1858 -0.2371 -0.0796
79475W        W80339  22.213   0.530  15.751  0.1283 -0.2561  0.2417
79476W        W80340  11.924  23.423   4.219  0.2330  0.2411 -0.3030
79477W        W80341  23.804   6.766   9.051  0.0517  0.1933 -0.1713
79478W        W80342  19.457  16.182  10.715 -0.0693  0.3955 -0.1644
79479W        W80343  28.415   5.374  13.768 -0.0397  0.0208  0.5476
79480W        W80344   7.053  22.426  10.110  0.0689 -0.0631 -0.0011
79481W        W80345   8.291  17.817   4.150 -0.0289 -0.0534  0.1032
79482W        W80346  12.569   6.392  10.924 -0.1466  0.2555  0.0188
79483W        W80347  19.014   3.696   5.530  0.0664 -0.0095 -0.0052
79484W        W80348   1.334  22.122   9.718 -0.1953 -0.3379 -0.0814
79485W        W80349   7.192   9.728  12.706 -0.0818  0.1534 -0.3287
79486W        W80350  13.452   7.926  19.494  0.2167  0.1684  0.0801
79487W        W80351  13.573   5.149  12.024 -0.2504 -0.1076 -0.3069
79488W        W80352   7.047  11.841  22.603 -0.0719 -0.2863 -0.3484
79489W        W80353  17.248   6.531  14.673 -0.0365 -0.5804  0.3718
79490W        W80354   6.590  12.786   6.004 -0.0955  0.1223  0.3570
79491W        W80355  23.634  14.202   2.258 -0.0029  0.0212  0.1406
79492W        W80356  12.201  13.621  21.806  0.1255 -0.0877  0.4629
79493W        W80357  14.841  27.614  23.661 -0.0881  0.2869 -0.0161
79494W        W80358   6.323   3.725  16.221 -0.1434  0.1903 -0.0143
79495W        W80359  19.413   8.158  26.935 -0.0840  0.1507 -0.2941
79496W        W80360  16.650  16.546  12.470  0.0320 -0.1276  0.2091
79497W        W80361  18.794  23.020  23.261 -0.0934 -0.1460 -0.2853
79498W        W80362  16.348  24.847  23.714  0.1480 -0.1555 -0.0708
79499W        W80363  15.798   7.969   4.395 -0.0900  0.2282 -0.1392
79500W        W80364  12.123  20.652   1.887  0.1371  0.1366  0.0082
79501W        W80365   8.849  18.084   6.786  0.0164  0.0846 -0.0318
79502W        W80366  12.055  15.527  21.801 -0.0672 -0.0398  0.1353
79503W        W80367   5.572   6.835   7.742 -0.1144  0.0566  0.2036
79504W        W80368  10.359   1.713   3.397 -0.2173 -0.2627 -0.2386
79505W        W80369  17.452  27.330  20.377  0.1947 -0.1484  0.3644
79506W        W80370  18.085  26.990  16.231  0.1476 -0.0792 -0.2147
79507W        W80371  28.880  26.575   6.111 -0.1208  0.0886 -0.1327
79508W        W80372   3.651  27.100   2.859 -0.2281 -0.0832  0.1388
79509W        W80373   5.104  21.545  11.056  0.0321  0.0080 -0.0658
79510W        W80374  18.195  21.841   9.099  0.1981  0.0251  0.2066
79511W        W80375  20.138  24.910  18.164  0.0437  0.3034 -0.1255
79512W        W80376   8.996   9.759  20.124  0.0158 -0.1913  0.0666
79513W        W80377  21.366  22.270  17.995  0.0369 -0.3139  0.0383
79514W        W80378   7.816  18.297  12.087 -0.2626 -0.0592 -0.2972
79515W        W80379  14.815   0.602   1.085 -0.0535 -0.0344  0.0630
79516W        W80380  24.298   3.753  17.035  0.0877 -0.1655 -0.1593
79517W        W80381   9.881  17.860   9.633  0.2740  0.1727  0.3992
79518W        W80382   4.838  12.989   5.081  0.1059  0.3085 -0.3334
79519W        W80383  17.656   4.789  28.402  0.2191  0.1597 -0.3682
79520W        W80384  13.615  25.492  27.357 -0.0777 -0.2094  0.0903
79521W        W80385  15.375   6.758  17.524 -0.0387 -0.1327 -0.1617
79522W        W80386  12.702  20.417  26.853 -0.2614  0.2238 -0.3028
79523W        W80387   2.583   8.834  23.114 -0.3120  0.2508  0.4138
79524W        W80388  14.577  21.950  20.632 -0.1243  0.0567  0.1011
79525W        W80389  12.739  24.203  26.599 -0.0078 -0.0595  0.1756
79526W        W80390   0.439  26.576  25.294  0.0303 -0.2443  0.1699
79527W        W80391  24.723   6.612  25.410 -0.1183 -0.3749 -0.0602
79528W        W80392   6.383  13.226  25.411 -0.1953  0.0746 -0.1521
79529W        W80393   8.780   8.694  25.093  0.1145  0.0677 -0.0802
79530W        W80394   6.587  24.982  15.204 -0.4504  0.0936 -0.0976
79531W        W80395  20.483  21.785  28.954 -0.2867 -0.1751 -0.0983
79532W        W80396  12.532  15.151  17.658  0.2798 -0.0243 -0.0464
79533W        W80397  12.622  22.369  22.899 -0.0380  0.0598 -0.1050
79534W        W80398  22.502  17.113   6.657 -0.1149  0.1910 -0.0753
79535W        W80399  28.627   6.345   5.260 -0.1602 -0.1471 -0.0794
79536W        W80400  19.465  27.417  13.638 -0.1822  0.0621  0.1499
79537W        W80401  17.325  28.997   5.605 -0.1162  0.2483  0.2124
79538W        W80402  17.467   5.901  17.878 -0.2230 -0.2815  0.0056
79539W        W80403  14.359  23.338  12.598 -0.0186 -0.0272  0.0284
79540W        W80404  10.113  16.960  13.883 -0.1610  0.0968 -0.1183
79541W        W80405  13.414   6.447   2.675  0.1282  0.0542 -0.1803
79542W        W80406  29.052   9.942   6.167  0.1232  0.0227 -0.0769
79543W        W80407  18.042   7.706   1.392  0.4431  0.1320 -0.1585
79544W        W80408  16.314   2.627  22.310 -0.2108 -0.1423  0.1279
79545W        W80409  12.564  10.186   5.288  0.0933  0.1686  0.0544
79546W        W80410   0.369   2.140  17.700 -0.2838  0.0450 -0.0115
79547W        W80411   4.730  24.688  26.984  0.0377  0.0360 -0.1527
79548W        W80412  28.984  21.795   9.407 -0.1066 -0.0621  0.0209
79549W        W80413   4.684  22.484  22.981  0.1468  0.0645  0.1197
79550W        W80414  12.626  22.463  28.455 -0.0097  0.0612 -0.0652
79551W        W80415  15.554   7.376   6.178  0.1786 -0.1307 -0.1836
79552W        W80416  27.192  25.641  18.146 -0.3779 -0.1937  0.1111
79553W        W80417  16.782   7.652  25.120 -0.0240 -0.0221  0.0824
79554W        W80418  15.712  20.858   2.334  0.0453 -0.1515  0.0778
79555W        W80419  21.115  21.253  21.101  0.1491  0.1210 -0.0530
79556W        W80420  19.943   9.682  24.244 -0.0707  0.1134  0.1711
79557W        W80421  19.032  28.314  14.464  0.0516 -0.3543  0.0388
79558W        W80422  12.312   9.652  28.654 -0.0256  0.0266  0.1291
79559W        W80423  17.379   2.693  17.928  0.2175 -0.0514  0.1319
79560W        W80424  25.833  19.722   5.553  0.0025 -0.2056 -0.0025
79561W        W80425  26.168  15.643  10.730  0.0763  0.0161  0.0846
79562W        W80426  22.773  25.086  25.270  0.2053 -0.3342  0.2110
79563W        W80427  20.644   7.498  19.289 -0.1064  0.1150 -0.0409
79564W        W80428  12.059  26.407  12.580 -0.1361  0.2549  0.0923
79565W        W80429  17.721   7.892   1.802  0.2622  0.1984  0.1837
79566W        W80430  12.646  18.022  19.738 -0.2164  0.0129  0.0256
79567W        W80431  14.904   5.653  28.023 -0.2289  0.3924 -0.1060
79568W        W80432  16.244  20.276  24.389  0.0523  0.2177 -0.1524
79569W        W80433  15.397  14.811  25.835 -0.0940  0.2871  0.1012
79570W        W80434   9.638  15.288  19.694 -0.0589  0.3149 -0.0454
79571W        W80435  18.062  11.350  21.714 -0.0774  0.1090  0.1861
79572W        W80436   3.328  18.651  24.138  0.1764 -0.0396 -0.3047
79573W        W80437  19.596   9.201   7.150  0.0914 -0.2243  0.1046
79574W        W80438   0.564   2.374  28.397 -0.1357 -0.0086  0.1911
79575W        W80439   9.371  27.133  25.635 -0.2030 -0.2107  0.0132
79576W        W80440  18.578  22.720   8.691  0.1022  0.2822 -0.4052
79577W        W80441   2.486  14.570  21.807  0.3007  0.0380 -0.0892
79578W        W80442  10.034  19.881  15.178  0.1884  0.3232 -0.0922
79579W        W80443  10.786  27.768  23.193 -0.1180  0.1397 -0.0061
79580W        W80444  13.941  14.829   0.234  0.0877 -0.1709 -0.0221
79581W        W80445  25.849   1.774  12.344 -0.1148  0.0244 -0.0280
79582W        W80446  22.051   8.376   4.255  0.4421  0.0844 -0.4083
79583W        W80447  20.922   2.827  10.725 -0.1350  0.0394 -0.1504
79584W        W80448  11.542  24.762  28.935  0.0166 -0.2437  0.2327
79585W        W80449  11.315  18.315  16.949  0.0174 -0.2124 -0.1127
79586W        W80450  12.846   7.136  22.448 -0.1196 -0.1027  0.3179
79587W        W80451  18.750  24.757  13.147  0.1316  0.0305  0.0376
79588W        W80452   7.522  26.095  13.847 -0.1044  0.1560  0.0353
79589W        W80453   3.970  25.484  24.213 -0.0635 -0.0193 -0.0667
79590W        W80454   5.827  19.165  28.717  0.3090 -0.0288  0.0553
79591W        W80455  27.123   4.375  24.693 -0.0767  0.0897 -0.1141
79592W        W80456  25.861   9.655   0.382  0.1850 -0.0687  0.0198
79593W        W80457  11.714   4.533  23.508  0.1171  0.0314  0.1930
79594W        W80458   4.435   0.836  17.568  0.3457 -0.0637 -0.0771
79595W        W80459  16.029   6.194  23.454 -0.2710  0.1974  0.1339
79596W        W80460   9.605   2.264  13.875 -0.4045  0.0120  0.2511
79597W        W80461  15.531  27.139   0.842 -0.4887 -0.1985  0.1894
79598W        W80462   1.409   7.622  18.851  0.0095 -0.0172  0.0024
79599W        W80463   2.735   6.605  18.327  0.0796  0.0943 -0.0600
79600W        W80464   8.490  26.570  23.009 -0.2380 -0.0183  0.0390
79601W        W80465  23.467  22.834   1.475 -0.0136  0.3128  0.0466
79602W        W80466  16.910   7.769   4.587  0.0023 -0.2454 -0.1315
79603W        W80467   6.892   9.398  26.438  0.1599 -0.0476  0.1280
79604W        W80468   8.716  23.444  28.140  0.0175  0.2749 -0.1618
79605W        W80469   6.756  23.343   8.486 -0.1111 -0.2655  0.1721
79606W        W80470  11.968  10.477  25.329  0.1973  0.0575  0.2114
79607W        W80471  10.215  13.416  11.358  0.3850  0.4150 -0.1195
79608W        W80472  28.789  16.484  19.524 -0.1059 -0.1007  0.2267
79609W        W80473  15.926  25.463   2.875 -0.1761  0.1235 -0.1289
79610W        W80474  12.353   4.163  13.271  0.2243  0.2642  0.3841
79611W        W80475  28.587   5.459  19.775  0.0810 -0.2681 -0.1570
79612W        W80476  11.605  10.733   3.458 -0.0757 -0.0599  0.2080
79613W        W80477   1.591  18.091  18.621 -0.1369 -0.2709 -0.0669
79614W        W80478  19.747   5.983   5.058 -0.1665 -0.0390  0.0091
79615W        W80479  11.360   1.866  13.436 -0.1274 -0.0768 -0.1821
79616W        W80480  21.205  11.741   4.134 -0.0386  0.1029 -0.0084
79617W        W80481   8.866   8.398   1.760  0.1299 -0.0825  0.2757
79618W        W80482   6.405  26.213  19.578  0.1363  0.1425  0.0039
79619W        W80483  22.642   5.199  20.550  0.0097  0.0593 -0.0684
79620W        W80484   4.988   2.746   8.154 -0.0921  0.0677 -0.1525
79621W        W80485   8.032   2.749  15.359  0.0431 -0.0458 -0.0584
79622W        W80486  27.509  25.239  26.111  0.3075 -0.0616  0.0261
79623W        W80487  15.569   1.119   0.138 -0.0702  0.1202 -0.0954
79624W        W80488  18.467  10.405   7.921  0.0563 -0.0919  0.0077
79625W        W80489   1.253  25.898  22.814  0.0954  0.0929  0.0135
79626W        W80490   2.722   3.737  15.170 -0.3943 -0.0757 -0.1812
79627W        W80491  11.078  28.961  11.010  0.3201  0.0202  0.3353
79628W        W80492  10.705   0.704  25.605  0.1702  0.1101  0.1896
79629W        W80493   2.752   1.815  25.619  0.0995  0.2226  0.0751
79630W        W80494   0.946   4.741  14.595 -0.2270 -0.0958  0.0564
79631W        W80495  26.876  26.661   4.586  0.1352  0.1475  0.2097
79632W        W80496  14.724  13.833  10.433  0.2134  0.4646 -0.5618
79633W        W80497  18.061  20.334   5.830  0.1153  0.0739  0.1017
79634W        W80498  22.141   6.378  14.581  0.0274 -0.2735  0.1511
79635W        W80499   1.204  15.572  25.289  0.1305 -0.0439  0.0162
79636W        W80500  20.939  28.849  18.656  0.1234 -0.0243 -0.2793
79637W        W80501  23.500   9.471  22.329 -0.0499 -0.2090 -0.2736
79638W        W80502  12.076  13.834  11.558 -0.2917  0.2777 -0.0621
79639W        W80503   3.138   3.256  14.360 -0.0789 -0.3272  0.3496
79640W        W80504  13.178  18.131  18.391 -0.0336  0.1547  0.6687
79641W        W80505   9.313  12.100   8.010 -0.0475  0.0909  0.1049
79642W        W80506  22.250  19.034  24.413 -0.0329  0.0220  0.0183
79643W        W80507  23.276  20.913  28.361  0.0777  0.2238 -0.0770
79644W        W80508  24.170  17.443  23.751  0.0152 -0.1154 -0.0545
79645W        W80509  18.190   8.576   7.612 -0.0999  0.1954  0.1466
79646W        W80510   5.540   8.083   4.820 -0.1330 -0.1898  0.1347
79647W        W80511  11.869  10.781   4.608 -0.0926 -0.1586  0.3169
79648W        W80512  10.313   6.651  28.118 -0.2670 -0.1601  0.0506
79649W        W80513  19.689   7.543  20.026 -0.0241  0.2035 -0.0435
79650W        W80514  10.836  27.705  14.237 -0.4283 -0.1164  0.1877
79651W        W80515   8.059  15.043  22.482 -0.3204  0.1577  0.2080
79652W        W80516   7.578  27.734  12.930 -0.1310  0.1324 -0.0142
79653W        W80517   6.772  27.606  21.182 -0.1261  0.2095  0.2692
79654W        W80518  21.738   2.060   3.929 -0.0626  0.0984  0.2108
79655W        W80519   8.102  28.503   2.882  0.1096 -0.1948  0.1752
79656W        W80520  18.140  11.381  23.524 -0.0565  0.1585 -0.1617
79657W        W80521  13.489   3.986  20.193  0.1132 -0.2921  0.2669
79658W        W80522  24.539  29.072  19.740 -0.0267  0.0087  0.1573
79659W        W80523  12.047  14.678  19.749  0.0968 -0.1762  0.0064
79660W        W80524  19.449   4.468   1.822 -0.0346  0.1067 -0.0048
79661W        W80525   9.980  24.279   2.592 -0.0105 -0.1767  0.1039
79662W        W80526  16.808  15.825  22.578  0.0739 -0.2567 -0.1389
79663W        W80527   5.684  26.226  26.578  0.0062  0.0782 -0.0449
79664W        W80528  10.449  12.204  24.524 -0.2572 -0.1141 -0.0044
79665W        W80529   4.771  24.424   1.226 -0.3051  0.1399  0.2245
79666W        W80530  17.349  18.811  16.351  0.4683 -0.0223 -0.3422
79667W        W80531   8.701   6.152  23.969  0.2351 -0.0040  0.2843
79668W        W80532   1.357  12.750  24.208  0.0329  0.0658 -0.1279
79669W        W80533  20.212   2.367  28.588  0.2297 -0.1644 -0.1652
79670W        W80534  27.593   1.461  14.218 -0.2904 -0.2800  0.0870
79671W        W80535  18.891  14.602   5.627 -0.1258  0.3470 -0.6169
79672W        W80536  27.183   8.949  23.000 -0.1122  0.0488 -0.0190
79673W        W80537   6.335  17.768  12.480  0.3497 -0.2042  0.3095
79674W        W80538  21.681   6.754  26.286  0.2431 -0.1091 -0.0241
79675W        W80539  17.839   9.826  27.010  0.1329 -0.1221  0.0252
79676W        W80540  16.779   1.084   4.229 -0.3708 -0.2456  0.1298
79677W        W80541   3.284  24.512   6.525  0.0241  0.2523  0.0300
79678W        W80542   7.211  19.063  26.515  0.3597  0.2333 -0.0658
79679W        W80543  20.276   8.881   1.458  0.1554 -0.1931 -0.5407
79680W        W80544  12.034   2.016  23.760 -0.0194 -0.1725 -0.2350
79681W        W80545  10.348   1.371  21.667 -0.2152 -0.0960 -0.1284
79682W        W80546   0.716   4.457  25.573 -0.0909 -0.0003  0.2335
79683W        W80547   0.233   6.622  22.208 -0.1866  0.4827  0.3136
79684W        W80548   6.298   0.647  23.807  0.0568 -0.0365 -0.0966
79685W        W80549  21.619   7.008  25.827 -0.0377 -0.0427  0.0093
79686W        W80550  21.187  15.725   0.336  0.3566  0.0533 -0.1585
79687W        W80551  21.583   3.974  17.750 -0.1995  0.0260 -0.2738
79688W        W80552  22.659  26.137  16.083  0.3726 -0.0810  0.0298
79689W        W80553  14.068  27.888  10.369  0.1239  0.1600 -0.2332
79690W        W80554  16.328   3.941  23.033 -0.0698 -0.0182  0.1836
79691W        W80555   3.846  23.148   1.506  0.1293 -0.1631  0.0059
79692W        W80556  16.631   7.179  26.037 -0.0169  0.0247 -0.0683
79693W        W80557   6.444  10.017  21.472  0.1920  0.0142 -0.0342
79694W        W80558  28.004   1.729  16.828  0.1590  0.0428  0.0771
79695W        W80559  26.470  26.712   3.796 -0.3858  0.0136 -0.4612
79696W        W80560  14.552   4.625  24.606  0.0278 -0.1116  0.0291
79697W        W80561  13.898  16.901  21.070  0.0592 -0.0806  0.4335
79698W        W80562  26.192   7.234  22.480 -0.2218  0.1935  0.0473
79699W        W80563   4.323  20.409   1.164  0.3939  0.1307 -0.3445
79700W        W80564   8.830  10.105  24.805 -0.0526  0.0554  0.4724
79701W        W80565   8.488   1.259  22.908 -0.0822  0.1339  0.0746
79702W        W80566  25.867   7.154  24.031 -0.1204  0.2607  0.0358
79703W        W80567   7.072   2.930  12.204 -0.0476 -0.1222 -0.0019
79704W        W80568  16.127  17.579  21.284  0.2005  0.1801 -0.1572
79705W        W80569   0.270  25.226   5.974  0.2227  0.4324 -0.2776
79706W        W80570   0.132  22.711  20.657 -0.1488 -0.1318  0.2747
79707W        W80571   2.549   9.884  16.179  0.0589 -0.0707  0.1355
79708W        W80572  27.897   7.063  27.454 -0.0080  0.2353 -0.1896
79709W        W80573  25.553  12.130  20.360 -0.1915  0.0033  0.1724
79710W        W80574   8.013  27.050   1.365 -0.1380 -0.0331 -0.0523
79711W        W80575  16.745  12.386   3.646  0.1446  0.1564  0.3916
79712W        W80576  16.006   2.372  22.838  0.1860  0.1436 -0.2272
79713W        W80577   2.351  25.878  20.076 -0.2354  0.1523 -0.0165
79714W        W80578  27.664  25.322   6.800 -0.0693  0.1537 -0.0672
79715W        W80579  10.326  27.379  24.068  0.1377  0.0547 -0.0892
79716W        W80580  21.775  23.126  14.486  0.2406  0.0800 -0.0943
79717W        W80581  23.468  18.023  13.501  0.1765 -0.0742  0.2537
79718W        W80582   5.752   6.488  16.881  0.1272 -0.2662  0.3164
79719W        W80583   2.386   2.642  27.502  0.0632  0.1969  0.2414
79720W        W80584   3.268  27.345  12.703 -0.0068 -0.1301 -0.1223
79721W        W80585  10.152  27.315  19.783 -0.2124  0.0743  0.0388
79722W        W80586   1.292   8.896   5.252 -0.0599 -0.1104 -0.2427
79723W        W80587  24.661  20.180  11.804  0.0908  0.0748  0.0693
79724W        W80588  16.150  22.061  24.854 -0.2751 -0.0341 -0.0052
79725W        W80589  27.267  27.605  27.271  0.2264 -0.0766  0.0257
79726W        W80590  12.927  15.862  14.611  0.0883  0.3598 -0.1350
79727W        W80591  26.584  24.690  24.336 -0.1280  0.1661 -0.0509
79728W        W80592  25.668   3.468   6.474  0.0483  0.1777  0.1513
79729W        W80593  12.204   1.093  24.808  0.0520 -0.1326 -0.1058
79730W        W80594  17.337   3.041  20.339 -0.0847  0.0123 -0.1470
79731W        W80595   6.347   4.559  22.160  0.0666  0.0118 -0.1216
79732W        W80596  19.580  24.194  19.558 -0.0754 -0.0952 -0.2340
79733W        W80597  28.264  20.007  26.799 -0.0632  0.1669  0.1372
79734W        W80598  27.886  26.023  27.745 -0.1898  0.2046  0.0130
79735W        W80599  15.452  24.961  15.203 -0.0323 -0.2169 -0.0999
79736W        W80600  19.302  10.249   0.988 -0.2172  0.0777  0.1103
79737W        W80601  16.604   4.819   8.406  0.1355  0.1021  0.0352
79738W        W80602   5.603  13.493  10.927  0.0311 -0.2126 -0.1290
79739W        W80603   2.992   1.414  21.124 -0.3467 -0.0897 -0.0788
79740W        W80604  12.832   1.987   8.168 -0.2010 -0.2500  0.2655
79741W        W80605   5.387   8.866  10.420  0.1765  0.0394 -0.2287
79742W        W80606  18.602  21.616   0.413  0.1095 -0.1338  0.2881
79743W        W80607  12.052  10.186  12.390 -0.0598 -0.2743 -0.1955
79744W        W80608   9.232   7.102   3.942  0.0207 -0.0632  0.0920
79745W        W80609   4.732   8.721  12.246  0.0256 -0.0098 -0.2918
79746W        W80610  18.970   0.063  23.713  0.2594 -0.0245 -0.0441
79747W        W80611  12.285  12.628  26.748 -0.3446 -0.0257 -0.0434
79748W        W80612   1.520  26.400  23.473 -0.2966 -0.0132  0.2701
79749W        W80613   9.330  10.985  18.093  0.0384  0.0289  0.1519
79750W        W80614  15.610   0.224  21.249  0.0434 -0.1417  0.0622
79751W        W80615  16.945  14.562   6.187  0.2862 -0.1970  0.1901
79752W        W80616   4.944  28.834  14.958  0.3081 -0.0839  0.0939
79753W        W80617   4.235  13.473  20.605  0.1120  0.1988  0.0279
79754W        W80618   0.783  14.126  25.893  0.0617 -0.0224 -0.0291
79755W        W80619  21.920  19.415   6.438 -0.0206 -0.1983  0.2792
79756W        W80620  24.329  28.450  28.186  0.1623  0.1180 -0.2364
79757W        W80621   8.307  28.064   1.436 -0.1094  0.1186  0.0003
79758W        W80622   6.500  13.543   8.736  0.0837  0.0515  0.0126
79759W        W80623   1.840   2.066   4.144 -0.0235  0.0898  0.0841
79760W        W80624  23.441  16.532   3.629  0.2793  0.0372  0.4147
79761W        W80625  23.687   2.805   6.473  0.1723  0.0974  0.1653
79762W        W80626  16.595  29.029  15.774 -0.2215  0.0357  0.2030
79763W        W80627   9.608   8.901   1.249  0.0135 -0.0458 -0.1330
79764W        W80628  28.754  23.630   7.615  0.0060  0.1237 -0.1504
79765W        W80629  20.296  19.415  15.830  0.1366  0.2611 -0.0752
79766W        W80630  21.876   7.447  16.409  0.1325  0.0021 -0.0640
79767W        W80631  17.178  18.384  27.018  0.1666 -0.0449  0.0676
79768W        W80632  20.991  25.896   1.332 -0.2965 -0.0442 -0.3669
79769W        W80633   7.610  26.317  17.255  0.2744 -0.1257 -0.1525
79770W        W80634  10.915   1.721   9.496  0.1071  0.2205 -0.1759
79771W        W80635   2.110  24.979  28.027 -0.1094 -0.0446 -0.1660
79772W        W80636  13.242  22.547  25.522  0.0655  0.0444  0.0120
79773W        W80637   9.499  10.403   1.791 -0.0157  0.1062 -0.1097
79774W        W80638  15.572  20.346  27.850  0.1382  0.1255  0.0320
79775W        W80639  25.561   4.415  23.651 -0.2055  0.1322  0.0337
79776W        W80640  15.044  28.982   4.900  0.0657 -0.0747 -0.0619
79777W        W80641  19.376  14.902  19.611  0.0540  0.2557 -0.0319
79778W        W80642   8.699  18.431   9.108 -0.3753 -0.0833 -0.1359
79779W        W80643  21.741   2.973  22.386 -0.3556  0.2919 -0.0927
79780W        W80644  18.897  12.247   0.225  0.1697 -0.1069 -0.0346
79781W        W80645  29.055   1.951  22.761  0.2377  0.2588  0.2305
79782W        W80646  22.446   1.466  17.513 -0.0019  0.0603 -0.0264
79783W        W80647  18.542  27.212   1.564  0.0216  0.1398 -0.1753
79784W        W80648   7.363  16.784  27.241 -0.0651 -0.4509 -0.1203
79785W        W80649   2.874  26.723   8.401 -0.2566 -0.0718  0.2346
79786W        W80650  23.491  27.563  26.574 -0.0922  0.1435  0.3086
79787W        W80651  25.551  23.323  22.721  0.0940 -0.1533 -0.1979
79788W        W80652  15.734  24.035  20.117  0.3446  0.0427 -0.1371
79789W        W80653  14.378   0.868   0.154 -0.0230 -0.0332  0.0592
79790W        W80654  10.357   8.696  18.166  0.0541  0.0804  0.1779
79791W        W80655  19.656   5.682   1.009 -0.3165 -0.4445  0.0520
79792W        W80656  19.341  24.054   7.849 -0.3758  0.2472  0.1750
79793W        W80657  13.959   3.862  15.960 -0.1675 -0.1404  0.2465
79794W        W80658  14.226  27.887   6.386 -0.3847  0.1168 -0.1055
79795W        W80659  20.938   1.894  24.310  0.0065  0.1203  0.1475
79796W        W80660  26.095   2.740  28.699 -0.1531 -0.2474  0.0022
79797W        W80661   9.593  15.926  24.079 -0.1262 -0.3765 -0.2035
79798W        W80662  28.681  17.703   0.098 -0.0144 -0.0848  0.0434
79799W        W80663  11.465  14.417   8.325 -0.3450 -0.0401 -0.2240
79800W        W80664  16.122  11.448   5.871 -0.2109 -0.2784 -0.0298
79801W        W80665   8.531  11.241   2.074  0.0146  0.0534 -0.2297
79802W        W80666  14.943   8.014  20.915 -0.2427  0.0950 -0.0500
79803W        W80667  12.369  19.409   8.204 -0.0997 -0.0343  0.2874
79804W        W80668  14.826   8.085   2.674  0.2884  0.2481  0.0167
79805W        W80669  13.915   7.798  11.928 -0.2729 -0.1167 -0.1762
79806W        W80670  23.963  18.201  12.156  0.1795  0.3814 -0.0230
79807W        W80671   4.970  15.593   2.556  0.0422 -0.3547 -0.1864
79808W        W80672   2.401  26.024  27.427  0.0582 -0.1079  0.0219
79809W        W80673  23.708   7.960  19.389  0.2642  0.0193  0.1620
79810W        W80674   5.603   4.577  17.710  0.0112 -0.1402 -0.0309
79811W        W80675   4.709  11.100  11.640  0.0558 -0.0368 -0.1844
79812W        W80676  22.887  25.699  20.823  0.2296 -0.0462  0.3789
79813W        W80677   6.437   4.643   1.186 -0.1547  0.3414  0.0893
79814W        W80678  19.405  19.908   2.508 -0.1345  0.1144 -0.1318
79815W        W80679  16.908   6.476  16.692  0.0101  0.1248  0.2859
79816W        W80680  16.682   4.391   4.246  0.0106 -0.1087 -0.1513
79817W        W80681  19.823  13.203  26.086 -0.1599 -0.2319 -0.0480
79818W        W80682  13.295  12.290  19.564  0.2924 -0.1415 -0.0686
79819W        W80683  11.109  11.516   2.621  0.0989 -0.1408 -0.1270
79820W        W80684  17.384  17.365   1.496 -0.1632 -0.1534  0.0057
79821W        W80685   0.279   2.584  21.530 -0.1216 -0.1232 -0.2314
79822W        W80686  14.369   8.838   4.570 -0.0181 -0.0259  0.0425
79823W        W80687  14.139  20.585  18.560  0.1111  0.0217  0.1587
79824W        W80688  24.460   9.779   3.185  0.0977  0.2328 -0.1192
79825W        W80689  17.500  11.993  14.503 -0.1654 -0.0727  0.1386
79826W        W80690  24.287  26.194   5.687  0.1563  0.2162  0.3690
79827W        W80691  18.928  11.711   3.070 -0.1046  0.1828  0.0756
79828W        W80692   5.792   8.632  26.088  0.2642  0.1085 -0.2625
79829W        W80693  25.091  13.988   9.759 -0.0228 -0.3111  0.1191
79830W        W80694  25.181   0.499   3.970 -0.1118 -0.0269 -0.1902
79831W        W80695  12.206  15.310   8.086 -0.1299  0.0504  0.2122
79832W        W80696  28.492  15.174  18.995  0.0572 -0.1223  0.2665
79833W        W80697  18.182  18.151  18.484  0.0661  0.0863  0.3273
79834W        W80698   7.012   0.562   5.023 -0.1322 -0.0158 -0.1692
79835W        W80699   7.635   5.653  14.478  0.1575 -0.0941  0.0039
79836W        W80700  15.614   8.473   2.420 -0.0892 -0.2205 -0.0536
79837W        W80701  26.652   3.591   2.832 -0.0691 -0.1315 -0.0525
79838W        W80702   9.329   7.555   9.617  0.1690  0.0636  0.2494
79839W        W80703  22.652   7.591   2.160 -0.1489  0.0033  0.1518
79840W        W80704   8.964  23.464  15.276  0.2730  0.2445  0.0953
79841W        W80705  21.228  28.605  25.317  0.0758  0.5581 -0.2186
79842W        W80706  11.787  24.397   1.057 -0.3306 -0.0341  0.1266
79843W        W80707  10.715   7.646  24.372  0.2697 -0.0224 -0.1008
79844W        W80708   7.129  10.921  28.825  0.2851 -0.3178 -0.0974
79845W        W80709  14.641   2.775  27.078  0.0955  0.1013 -0.2086
79846W        W80710  11.424  20.585  11.107 -0.2852 -0.2851 -0.0983
79847W        W80711  24.747   9.301   0.527  0.4871 -0.0109  0.3090
79848W        W80712  17.221  23.915   3.184 -0.0355  0.0368  0.1508
79849W        W80713  22.552   7.006   2.008 -0.1238 -0.1440 -0.1044
79850W        W80714  17.005  14.777  21.131 -0.3001 -0.0410  0.0563
79851W        W80715  28.363  16.795  18.193 -0.1031  0.3354  0.0240
79852W        W80716  20.229  22.798   8.109  0.0415 -0.0544  0.2785
79853W        W80717   5.732   4.125   3.960 -0.0572  0.0332 -0.0097
79854W        W80718  23.749  15.447  11.012  0.0643 -0.2940 -0.1707
79855W        W80719  15.569  26.226  21.006  0.0590 -0.4263  0.0201
79856W        W80720   6.588  25.222   4.165 -0.1330  0.2051  0.0568
79857W        W80721  11.556  24.863  26.624 -0.1336  0.1627  0.0730
79858W        W80722   8.964  10.211   6.354  0.0273 -0.2565 -0.3821
79859W        W80723   5.988   4.459   1.874  0.1375  0.0312  0.2549
79860W        W80724  27.601  20.414  28.896 -0.3315 -0.1237  0.4223
79861W        W80725   4.055  17.244   7.824  0.1861 -0.4766 -0.1211
79862W        W80726  17.139   9.558  16.601  0.1909  0.1932 -0.0726
79863W        W80727  12.306  25.885  27.445  0.0168 -0.1250 -0.2654
79864W        W80728  19.778  21.828  25.960  0.0987 -0.0062 -0.0388
79865W        W80729  10.071  24.403  10.539 -0.4172 -0.0418 -0.0001
79866W        W80730  24.158   0.892  23.159  0.1904  0.2410  0.1081
79867W        W80731  10.217  11.139  28.906 -0.2203 -0.3455 -0.0384
79868W        W80732  16.134  26.598   3.535 -0.1818 -0.1865  0.3340
79869W        W80733   8.368  28.999  24.455  0.1095 -0.1569 -0.2226
79870W        W80734  16.340  21.662  22.285 -0.1188  0.3988  0.1115
79871W        W80735  29.038  28.007   1.778  0.1245 -0.2944 -0.0138
79872W        W80736  14.743   3.805  25.758  0.0762  0.0609 -0.3065
79873W        W80737  18.443  26.076  25.508  0.2087 -0.3693 -0.0036
79874W        W80738  26.599  24.989   5.025  0.2634 -0.3104 -0.0071
79875W        W80739  23.646  26.114   5.171 -0.3265  0.3429 -0.2311
79876W        W80740  12.933   8.493  12.080  0.1528 -0.1157 -0.1017
79877W        W80741   2.595   1.580   3.670 -0.0762 -0.0701  0.0938
79878W        W80742  16.627   2.389   0.341  0.1866  0.3238 -0.1587
79879W        W80743  25.973   4.070  28.850  0.1799  0.2302  0.3951
79880W        W80744   0.898  21.312  21.660  0.0220  0.0176  0.1798
79881W        W80745  20.325  18.949  20.907  0.0152  0.1432 -0.1755
79882W        W80746  11.303  21.256   5.749  0.0132  0.2996  0.0911
79883W        W80747  23.319  19.728  12.283  0.1994  0.1106  0.0853
79884W        W80748   9.543   0.654  14.376  0.2337 -0.1165 -0.0096
79885W        W80749  19.239  15.682   1.653  0.2204  0.0861 -0.2366
79886W        W80750  10.387   2.166  13.482  0.3658  0.2441 -0.0536
79887W        W80751  21.989  20.565  13.217 -0.1884  0.0774 -0.0057
79888W        W80752   5.728   6.916  19.356  0.1543 -0.0600  0.0832
79889W        W80753  18.677  13.465  19.651  0.3192  0.0398  0.4129
79890W        W80754  15.957   6.039  21.514 -0.1610 -0.2895  0.1704
79891W        W80755   8.819  22.260  26.576  0.0932  0.0926 -0.1518
79892W        W80756  13.900  22.614   2.951 -0.2205  0.3546  0.0643
79893W        W80757  27.588   0.277  12.645 -0.0647  0.3402  0.1416
79894W        W80758  15.069  27.305   8.037  0.0468 -0.1593 -0.0158
79895W        W80759  23.908  24.054  26.478  0.1352  0.1193 -0.2576
79896W        W80760  21.175  11.915  21.358 -0.1428  0.0221 -0.1782
79897W        W80761  23.128   1.401   8.542  0.2410  0.2407 -0.3793
79898W        W80762  24.030  23.618  23.390 -0.1636  0.1928  0.1975
79899W        W80763  10.599   6.784  18.900 -0.0302 -0.3623 -0.1269
79900W        W80764  23.051  11.345   7.579  0.0306  0.1778 -0.1821
79901W        W80765   8.463  22.624   9.222 -0.1338 -0.1885  0.2349
79902W        W80766  23.570  18.543  11.571 -0.0848 -0.0519  0.1819
79903W        W80767  16.317   3.105  25.297  0.1799 -0.0968  0.1375
79904W        W80768   6.751   4.961   1.008  0.0914 -0.0360 -0.0774
79905W        W80769  29.016  21.794  14.694 -0.0127 -0.0371  0.2283
79906W        W80770   7.308  27.359   6.525  0.1686  0.2523 -0.0521
79907W        W80771  21.807  14.996  25.991  0.1127 -0.4125  0.1036
79908W        W80772  27.412  20.041  16.598  0.1838 -0.1783  0.0635
79909W        W80773  16.234  23.550  23.134 -0.1415  0.0031 -0.1327
79910W        W80774   0.255  16.494  13.588  0.0434  0.2267  0.1727
79911W        W80775   3.884  26.891   8.988 -0.0407 -0.0915 -0.0421
79912W        W80776   8.110  27.355   6.812 -0.1596 -0.2049 -0.0435
79913W        W80777  12.748  13.030   6.557  0.0173 -0.2476  0.1922
79914W        W80778  29.035   9.334   2.147  0.3454 -0.2699  0.0954
79915W        W80779   6.272  28.763  25.308  0.0666 -0.1482  0.0362
79916W        W80780  12.210  26.234   2.327 -0.4554  0.4046 -0.0424
79917W        W80781  24.040   0.067  24.915 -0.1842  0.0279  0.0587
79918W        W80782  10.533  16.997   3.653 -0.2073 -0.0953  0.3777
79919W        W80783  21.925   6.433  28.733 -0.1881  0.5093  0.0515
79920W        W80784  16.397  19.122   2.998  0.0014  0.0771 -0.3180
79921W        W80785  15.521   5.454  24.101 -0.2066 -0.1174 -0.3133
79922W        W80786  25.443   2.269   6.377 -0.1532  0.1062 -0.0935
79923W        W80787   1.192  13.054  27.675  0.2480 -0.0813 -0.2761
79924W        W80788  10.330  18.511   8.877 -0.1619  0.0539 -0.1566
79925W        W80789  19.593   9.676  16.519  0.1141  0.1659  0.0648
79926W        W80790  18.517   6.728   4.911 -0.3047  0.1610  0.0040
79927W        W80791  15.756  25.144  17.412  0.2780  0.0323 -0.4424
79928W        W80792   4.170   9.609   7.531 -0.0589 -0.0782  0.2558
79929W        W80793   7.496  27.453  20.218 -0.0581  0.2743  0.2018
79930W        W80794   0.254  18.058   0.572 -0.0396 -0.1361 -0.1146
79931W        W80795  18.598   5.527   5.432 -0.0826 -0.1769  0.2906
79932W        W80796   4.432  24.264  11.533 -0.1286  0.2006  0.0873
79933W        W80797  12.360   1.793   5.259 -0.0235  0.1393 -0.4918
79934W        W80798  19.467  13.330   8.136  0.1707 -0.0500 -0.1809
79935W        W80799   1.367  14.147  24.409 -0.2881 -0.4265  0.0668
79936W        W80800  22.547  24.430  13.142  0.0169 -0.2002 -0.0443
79937W        W80801  17.848  19.622  21.224  0.0906 -0.0913  0.0358
79938W        W80802   8.489   2.076  16.950 -0.0863  0.0368  0.0959
79939W        W80803   4.734  29.009  29.127 -0.2355  0.0934  0.1512
79940W        W80804  21.526   2.289  23.638  0.0949 -0.0394 -0.4480
79941W        W80805   0.894  20.435   4.566  0.0586  0.1735  0.3378
79942W        W80806  12.859  25.528  16.986  0.0436  0.3111  0.2359
79943W        W80807  16.962  27.772  22.781  0.2626  0.0528 -0.0847
79944W        W80808  23.567   0.288   9.671 -0.0766 -0.1550  0.2939
79945W        W80809  28.075   5.497  23.796 -0.3109 -0.0750  0.1162
79946W        W80810  25.589  27.277  27.551  0.0485 -0.0108  0.1639
79947W        W80811   1.557   5.292   7.228 -0.0502  0.0207  0.1144
79948W        W80812   8.465  19.301  25.618 -0.0972 -0.0150 -0.3530
79949W        W80813  23.848  18.909   1.356 -0.0042 -0.2674 -0.0768
79950W        W80814   2.830  27.852  27.264 -0.1510  0.2669 -0.0937
79951W        W80815   1.450   9.525  11.018 -0.0110 -0.0868  0.2694
79952W        W80816  19.342  20.389  14.118  0.1634  0.0037  0.1648
79953W        W80817   5.470  15.342  23.326 -0.3701 -0.0566 -0.0242
79954W        W80818   0.084  23.751  26.150  0.1070  0.0686  0.0878
79955W        W80819  14.003  11.581  21.649 -0.3405 -0.0926  0.0093
79956W        W80820  26.492   1.339   1.123  0.0571  0.1099  0.0350
79957W        W80821  10.123  22.558  26.752 -0.0608  0.1331  0.1820
79958W        W80822   7.944  21.907   1.538 -0.3472 -0.1784  0.0788
79959W        W80823  20.605   2.310  12.639  0.0602  0.1922 -0.0664
79960W        W80824   4.648  27.316   0.920 -0.1570 -0.0616 -0.1214
79961W        W80825  26.813   0.898   1.171  0.1072 -0.0523 -0.2134
79962W        W80826  18.268  15.179  22.724  0.0162 -0.0689  0.1836
79963W        W80827  19.358  25.406   0.843  0.1391 -0.1225  0.3720
79964W        W80828  18.254   3.204  19.385 -0.2325 -0.1788 -0.1088
79965W        W80829  21.159   0.405  11.732  0.0017 -0.2634  0.0209
79966W        W80830  27.654  20.124   2.988 -0.1307  0.0582 -0.1924
79967W        W80831  13.947  22.673  18.129 -0.0315  0.3772 -0.0692
79968W        W80832  13.333   4.543  16.225  0.2344  0.1649 -0.1615
79969W        W80833  13.158  20.320  10.910  0.0376 -0.0328  0.1053
79970W        W80834  27.076  19.326  20.809 -0.1639 -0.2512  0.2732
79971W        W80835  14.590  11.741  27.419  0.1980 -0.1964 -0.1292
79972W        W80836  23.493  28.995  27.409 -0.1126  0.0001 -0.4246
79973W        W80837  22.407  27.734   0.088  0.1270 -0.0388  0.1123
79974W        W80838   9.663  20.059  21.771  0.2932 -0.1157 -0.1650
79975W        W80839   0.417   7.505  19.069  0.1453 -0.1642 -0.4421
79976W        W80840  16.789  27.186  23.089  0.4000  0.0235  0.1133
79977W        W80841   4.039   0.177  23.332  0.2812 -0.2549  0.2542
79978W        W80842   1.450  11.443   4.763 -0.0490  0.1214  0.1131
79979W        W80843  10.470  10.563   3.560 -0.0650 -0.2552 -0.0740
79980W        W80844   2.157  22.400   4.300  0.0162  0.1856  0.1661
79981W        W80845   1.310   5.638  18.010 -0.1691 -0.1196  0.2418
79982W        W80846  10.117  24.876  28.933 -0.1392 -0.1057  0.4045
79983W        W80847   7.979  11.241   9.476  0.1744  0.0773  0.0163
79984W        W80848  13.679   1.121  27.787 -0.1918  0.1327 -0.0981
79985W        W80849  19.290   8.933  15.830 -0.0255  0.0806  0.1529
79986W        W80850  26.261  24.805  21.562  0.2109 -0.2551  0.0709
79987W        W80851  28.806   4.936   8.349  0.1060  0.1229  0.3768
79988W        W80852  13.903   6.294  20.667  0.1359  0.1068  0.0122
79989W        W80853  12.717  28.547  14.299 -0.1929  0.1013  0.0896
79990W        W80854  23.807   2.981  27.528  0.0631 -0.0110  0.3254
79991W        W80855  27.388  28.593  22.773  0.2731  0.2413  0.1045
79992W        W80856  16.754  13.882  20.113 -0.0031 -0.2292 -0.2540
79993W        W80857  11.562  27.519  18.273  0.0102 -0.1374 -0.0539
79994W        W80858  18.220  25.597  26.588 -0.5172  0.0803  0.0462
79995W        W80859   1.569  11.744  26.515  0.1333  0.1243 -0.2143
79996W        W80860  10.404  28.125  26.359  0.0873 -0.0240 -0.0690
79997W        W80861  20.218   4.304   2.167 -0.1971  0.2578 -0.0389
79998W        W80862  11.844  28.488   4.663 -0.1076  0.0614  0.1320
79999W        W80863  25.885  22.511  29.090  0.2218  0.3416 -0.1647
80000W        W80864  18.210  19.586   3.977 -0.0833 -0.0805  0.0989
80001W        W80865  13.041  28.956  13.687  0.1780 -0.1496 -0.1536
80002W        W80866  18.055  10.961   2.172 -0.0152 -0.0816  0.1591
80003W        W80867  23.164   0.015  14.306  0.4159  0.1559 -0.1480
80004W        W80868   2.110  25.067  23.120 -0.1068 -0.1404  0.0132
80005W        W80869  16.871  22.413   7.953  0.2945 -0.1982  0.0370
80006W        W80870   9.253  10.001  25.218  0.1861 -0.0513 -0.1687
80007W        W80871   5.179   9.122  20.418  0.0865 -0.0646  0.2514
80008W        W80872  22.575   8.220   7.720  0.0111 -0.1275 -0.2037
80009W        W80873   7.571  17.711   5.344  0.0224  0.0454  0.4254
80010W        W80874  10.994  26.136  17.516 -0.1972  0.0189 -0.2528
80011W        W80875   3.245  22.371   4.965  0.1073  0.2107 -0.1693
80012W        W80876  17.797   2.279   0.258 -0.0715  0.2292  0.2723
80013W        W80877   4.690   4.763  14.200  0.1934  0.1259 -0.0517
80014W        W80878  13.117  17.704  17.558 -0.2731  0.0797 -0.3172
80015W        W80879   9.135  19.311  28.769  0.2964 -0.1737  0.0563
80016W        W80880  14.235  13.287   1.015  0.0834  0.1039 -0.0015
80017W        W80881  16.783   8.444   5.837  0.2238 -0.2874  0.1016
80018W        W80882  12.290  25.398  22.094 -0.2101  0.2459 -0.2057
80019W        W80883   8.509  16.709  24.160  0.0617  0.2020 -0.2098
80020W        W80884   3.387  26.036  15.484 -0.2100  0.0069 -0.0150
80021W        W80885  17.603  20.255  23.575  0.0425 -0.1209 -0.0878
80022W        W80886   0.189  19.948  21.442 -0.2021  0.0297  0.1109
80023W        W80887   4.119  28.808   0.511  0.1663 -0.0383 -0.1431
80024W        W80888  27.045   6.357  25.859 -0.2188 -0.0711  0.2025
80025W        W80889   8.483   9.609  18.253  0.1462  0.1606 -0.0844
80026W        W80890  11.416  19.844   3.339  0.0899 -0.0559  0.1959
80027W        W80891  12.397  12.202  16.548 -0.0133  0.1602 -0.0447
80028W        W80892   8.147   3.378   4.810  0.0727  0.0443 -0.1090
80029W        W80893  25.904  25.520  22.732 -0.1843  0.0160 -0.0109
80030W        W80894  17.324   3.907   1.939 -0.0669  0.0658 -0.2198
80031W        W80895   0.195  27.816  24.353  0.1092 -0.4258 -0.1070
80032W        W80896  25.617   2.771  21.861 -0.0164  0.2190 -0.0058
80033W        W80897   7.165  22.502  11.484 -0.1076 -0.1624 -0.3850
80034W        W80898  14.476  21.469  13.048 -0.0487 -0.3307  0.1792
80035W        W80899   6.329   4.184  15.977 -0.0628  0.1321 -0.0048
80036W        W80900  26.401  23.840  24.894 -0.2099 -0.0623 -0.3703
80037W        W80901   9.191   4.414  15.257 -0.0212  0.1503  0.2709
80038W        W80902  19.137  20.507  11.305  0.2256  0.1737  0.2796
80039W        W80903  20.343   1.279  17.287  0.0777 -0.0623 -0.1404
80040W        W80904  28.130  13.484  26.452 -0.1990 -0.2046  0.1085
80041W        W80905  10.524   3.922  13.828 -0.0520 -0.0305 -0.2097
80042W        W80906   1.003   9.754   3.302 -0.1975 -0.0548 -0.4696
80043W        W80907  10.222   4.533   8.887 -0.2600 -0.0261 -0.1356
80044W        W80908   1.529  25.328  11.732  0.0864 -0.0073 -0.0066
80045W        W80909  22.106   8.940   0.325 -0.3269 -0.1205  0.3712
80046W        W80910  16.017  28.114  22.416 -0.0672 -0.0895 -0.1758
80047W        W80911  18.509   9.047  13.841  0.3270  0.0287  0.1832
80048W        W80912  11.091   6.633  12.222 -0.3689 -0.1650  0.1152
80049W        W80913   5.838   5.796   2.340 -0.2534  0.0529  0.0343
80050W        W80914  22.070  10.226  13.264  0.1410  0.0891 -0.0019
80051W        W80915   4.429  26.914  14.009  0.0015  0.0231 -0.0006
80052W        W80916  12.394  12.833   3.503  0.4574 -0.0869  0.2027
80053W        W80917  24.137  29.144  25.560 -0.2590  0.6917 -0.2872
80054W        W80918  23.951  19.247   0.682 -0.1601 -0.1908  0.1028
80055W        W80919  19.851   6.449  25.933  0.0018  0.2481  0.2427
80056W        W80920  12.737  23.744   4.999  0.1055  0.2633  0.1146
80057W        W80921  22.658  16.798   6.296 -0.4746  0.2871 -0.2416
80058W        W80922  28.337  29.009   9.413 -0.1361  0.1645 -0.0383
80059W        W80923   7.597  14.425  13.925 -0.1672  0.1879 -0.3883
80060W        W80924  25.745  24.826   0.622 -0.4321  0.0010 -0.1238
80061W        W80925   6.836  18.545  12.429 -0.0355  0.2971 -0.1421
80062W        W80926   6.856   1.424  25.541  0.3572 -0.1187 -0.3102
80063W        W80927  20.755  23.060  22.140 -0.1302 -0.1815 -0.0529
80064W        W80928   2.348   3.728  17.007  0.1466  0.2614 -0.1610
80065W        W80929   1.801   1.759  26.971 -0.0753  0.1332 -0.0141
80066W        W80930  17.547   5.582  28.000 -0.1531  0.1009 -0.1035
80067W        W80931  15.880  10.182  21.146 -0.0490 -0.0481  0.0945
80068W        W80932  16.462   2.576  23.642 -0.2929 -0.0376  0.1203
80069W        W80933  12.449  11.018  22.118  0.0864  0.2330  0.0197
80070W        W80934  22.023  13.954  15.212  0.0532 -0.0346 -0.0450
80071W        W80935   1.624  18.266  15.370 -0.2660  0.1637 -0.2422
80072W        W80936  21.659   8.112   5.280 -0.0733  0.1116 -0.0177
80073W        W80937  15.476  21.262  13.395 -0.0054 -0.1934 -0.4327
80074W        W80938   1.010   2.291  26.525 -0.1737  0.1823  0.0182
80075W        W80939  18.016   2.401  25.034  0.0005 -0.3159  0.1993
80076W        W80940  25.194  19.838  21.597  0.1104 -0.0232  0.0566
80077W        W80941  11.433  26.370  24.900  0.0820 -0.1256 -0.1238
80078W        W80942   8.300  25.786   6.119 -0.0909 -0.3896  0.2548
80079W        W80943   6.796  13.304   8.420  0.1514 -0.0157  0.0323
80080W        W80944   6.256   5.550   8.126 -0.0512  0.0358 -0.0927
80081W        W80945  24.614  20.428   1.238 -0.0539  0.2650 -0.3170
80082W        W80946  21.310   0.646   8.185  0.0525  0.0946 -0.1073
80083W        W80947  16.398  24.419  15.356  0.0304  0.0777 -0.0672
80084W        W80948  21.059  23.123   4.679 -0.2588 -0.1113  0.1278
80085W        W80949   8.087   6.996   7.465 -0.1855 -0.0732 -0.0510
80086W        W80950   7.994   5.483   0.408 -0.0420  0.0508 -0.4080
80087W        W80951   1.571  22.151  12.844  0.0598  0.1459  0.0393
80088W        W80952  27.055  17.991  26.258  0.0051 -0.0180  0.2234
80089W        W80953  12.416   7.143   4.023  0.1337 -0.0740 -0.2109
80090W        W80954   0.027  26.960  19.086 -0.1123  0.1200 -0.1540
80091W        W80955  12.706   1.446   2.700 -0.0494 -0.2076  0.1966
80092W        W80956  18.447  17.797  25.628 -0.2947  0.0200  0.1080
80093W        W80957   7.786   1.137  12.252  0.2291 -0.2419 -0.2147
80094W        W80958  20.284  18.573  27.167  0.2623  0.0223  0.0616
80095W        W80959  10.920  24.461  23.767 -0.0567  0.0433 -0.2549
80096W        W80960  28.211  11.697  15.152  0.3424  0.1317 -0.0844
80097W        W80961   1.406   1.410   3.785 -0.5839  0.1822 -0.1015
80098W        W80962  20.560  20.835  23.446 -0.2092 -0.2199  0.1964
80099W        W80963  26.434  10.444  21.011  0.2032  0.1244  0.0109
80100W        W80964  22.460  28.697  21.766 -0.0493  0.0226 -0.0099
80101W        W80965  13.418   0.519   0.296  0.0057  0.1252 -0.1745
80102W        W80966   6.808  17.669  27.925 -0.1228 -0.1475 -0.2329
80103W        W80967  22.225  29.003   2.400  0.0254 -0.1101 -0.1308
80104W        W80968  16.972  26.520  29.104  0.1067  0.2401  0.1566
80105W        W80969   4.057   1.021  26.869 -0.0257 -0.1085  0.1054
80106W        W80970  14.444   3.479   1.089  0.1223 -0.3813 -0.2352
80107W        W80971   7.375  20.061  14.395  0.0538 -0.1269 -0.0500
80108W        W80972   3.709  27.166   1.243  0.1538 -0.1414  0.3051
80109W        W80973  12.688   9.916  27.003  0.3283 -0.0634  0.1353
80110W        W80974   6.305   3.896  24.324 -0.2650  0.1729 -0.0287
80111W        W80975  13.618   2.428   8.361  0.4390 -0.3593 -0.0828
80112W        W80976   4.119   8.521   5.181 -0.4986  0.1397  0.3045
80113W        W80977  13.208   8.607   2.405 -0.1623 -0.1386 -0.0338
80114W        W80978   7.572  24.539  22.258  0.0720 -0.1613 -0.0680
80115W        W80979   6.584   8.691  12.702  0.3307  0.0359 -0.0283
80116W        W80980  14.656  10.288   2.088  0.0143  0.0660  0.4351
80117W        W80981  20.524  15.288   5.772 -0.0963 -0.4885  0.0980
80118W        W80982  28.567  12.625  27.036  0.0142 -0.1164 -0.1590
80119W        W80983  24.915  14.350  28.035  0.2251 -0.0250 -0.2255
80120W        W80984  14.336   9.408  18.340  0.1700 -0.0109 -0.2798
80121W        W80985  15.122  20.445   5.188  0.1703 -0.2148  0.0152
80122W        W80986  14.205  26.224  28.272  0.3062  0.1789 -0.0127
80123W        W80987  25.461   1.796  11.449 -0.1218 -0.1402  0.0672
80124W        W80988  25.048  25.393  11.452  0.1911 -0.2811 -0.0691
80125W        W80989   4.526  23.456  21.726  0.1707 -0.0191 -0.1676
80126W        W80990  18.645  28.032  24.619  0.2192 -0.0857 -0.0079
80127W        W80991  14.709  23.607   0.400 -0.0199 -0.0845  0.0038
80128W        W80992  17.699  10.068  19.312  0.3227  0.0854  0.1283
80129W        W80993   7.372  12.818  18.326 -0.1492  0.1549  0.0851
80130W        W80994  25.332  25.968   5.657 -0.1924  0.1885  0.0911
80131W        W80995  27.904  29.061   3.410 -0.1246  0.0443  0.2063
80132W        W80996  19.533   5.419  20.156  0.1556  0.1033  0.1459
80133W        W80997   8.634  18.839   5.121 -0.1633 -0.2673 -0.1155
80134W        W80998  24.235  28.462  27.310  0.1010 -0.2478  0.0314
80135W        W80999   5.222  25.371  13.099 -0.0223  0.0713 -0.0965
80136W        W81000   6.679   0.702   4.647  0.0964  0.1180  0.0673
80137W        W81001  24.495   9.435   6.871  0.2109  0.2283  0.2041
80138W        W81002   3.024   5.518   4.741 -0.2377 -0.0651 -0.2090
80139W        W81003  23.910  17.861  22.886 -0.4540 -0.3469  0.0030
80140W        W81004  24.133   6.818  22.061 -0.1080 -0.1090  0.3164
80141W        W81005   5.228   5.535  17.476 -0.0551  0.0916  0.1544
80142W        W81006  23.099  23.811   3.977  0.2462  0.0357 -0.0144
80143W        W81007  21.270  28.186   3.457  0.0385 -0.0042  0.0497
80144W        W81008   6.767   4.320   6.825 -0.1855  0.0747 -0.0812
80145W        W81009  15.265  17.990   4.866 -0.1768  0.0488 -0.0933
80146W        W81010  13.308  26.702   3.084  0.0570  0.0743 -0.0233
80147W        W81011  17.180  20.448  20.979  0.5208  0.2100  0.1012
80148W        W81012   5.524  15.546   2.342  0.0328  0.2672 -0.1142
80149W        W81013  10.483   6.512  11.277 -0.2095 -0.2398  0.2740
80150W        W81014   2.038  25.564  27.083  0.0680 -0.0158 -0.1270
80151W        W81015   9.090  15.427   3.302 -0.4327 -0.0247 -0.3500
80152W        W81016   8.477  17.823   2.270 -0.4110 -0.3212 -0.0127
80153W        W81017  22.212  18.419  26.377  0.1064  0.1467  0.0216
80154W        W81018  14.041   3.070  27.803 -0.0751 -0.2207  0.1689
80155W        W81019  20.527  24.238  23.919  0.1272  0.1613  0.1267
80156W        W81020  14.133  16.650   0.031 -0.4057  0.2528  0.1637
80157W        W81021   9.794   2.473   2.605  0.0169 -0.0763 -0.2769
80158W        W81022  17.549  18.190   2.116  0.2445  0.2604 -0.0477
80159W        W81023   6.109  18.701  20.118  0.0032  0.2965 -0.0438
80160W        W81024  24.993   5.501  15.695 -0.3197 -0.2377  0.2501
80161W        W81025  18.676   5.705   4.938  0.2079 -0.1102  0.1985
80162W        W81026   8.477   8.403  20.529  0.2095 -0.0759  0.0404
80163W        W81027  24.805  18.624   4.206  0.1264 -0.4417 -0.1318
80164W        W81028  28.165  18.209  23.111  0.1656 -0.0828  0.1986
80165W        W81029  12.024  18.773   2.088  0.0754 -0.0434 -0.0958
80166W        W81030  10.304   9.006  12.726  0.0747 -0.0768 -0.0238
80167W        W81031  14.239   2.162  17.103 -0.1344  0.3063 -0.0220
80168W        W81032  11.476  25.162  23.891  0.5052  0.2842 -0.0341
80169W        W81033   9.590   5.094  18.141  0.0516  0.0195 -0.0394
80170W        W81034  13.385  23.632   8.080 -0.2491  0.1880  0.1348
80171W        W81035  23.999   1.385  28.512  0.2674  0.1693  0.0115
80172W        W81036  26.276  28.093  10.490  0.2055 -0.4082  0.1593
80173W        W81037  21.218  19.873  24.710 -0.5072 -0.0586 -0.1524
80174W        W81038  15.720  18.170   2.994 -0.3926 -0.0127  0.0567
80175W        W81039  14.091   2.061   0.868  0.3299 -0.0655 -0.0696
80176W        W81040   3.019   0.564  16.412 -0.2852  0.2995 -0.1702
80177W        W81041   9.753   6.850  28.126 -0.1353 -0.2534  0.2144
80178W        W81042  23.633   7.144  25.976  0.1076 -0.0395 -0.2075
80179W        W81043  17.199  14.415   3.714 -0.0172  0.1250 -0.0902
80180W        W81044  25.594   7.425   3.766  0.0982 -0.0337  0.1330
80181W        W81045   6.918  28.545   2.351  0.2868 -0.1531 -0.1498
80182W        W81046  27.877  26.546   0.344  0.0711  0.0228  0.1836
80183W        W81047  25.000   7.767   3.957 -0.0029  0.0997 -0.0789
80184W        W81048  10.866  21.590  25.401 -0.2689 -0.2744 -0.0183
80185W        W81049  10.404  10.727  21.883 -0.0849  0.2439  0.2031
80186W        W81050  24.609   4.057  24.442  0.0283  0.1100  0.0863
80187W        W81051  12.953  10.052   9.076  0.3134 -0.2403 -0.0863
80188W        W81052   7.776  28.712   4.803 -0.3253 -0.0063 -0.2057
80189W        W81053   0.760  14.635  28.540  0.0063 -0.1372  0.0603
80190W        W81054  25.303   0.109  16.615 -0.2767  0.0232 -0.0094
80191W        W81055  26.045  13.136  14.381 -0.0434  0.1347 -0.0949
80192W        W81056  14.059   7.642   4.206  0.1670  0.0765 -0.0797
80193W        W81057  19.957  10.023  17.706  0.2804  0.1805  0.1370
80194W        W81058   8.794  15.641  28.310  0.1307  0.0716 -0.0635
80195W        W81059  25.499   4.989   6.607  0.1081  0.1020 -0.0731
80196W        W81060  19.676   4.429  12.224 -0.1937 -0.0331  0.0432
80197W        W81061   5.525  27.960  17.100  0.1455 -0.4133 -0.2129
80198W        W81062  11.367  12.780   9.712 -0.1219 -0.1308  0.2542
80199W        W81063  18.989   9.180   3.211  0.0406 -0.3333  0.1124
80200W        W81064  12.920   5.872  25.882 -0.0256 -0.1361  0.1388
80201W        W81065  10.532   9.720  10.215  0.1604 -0.0125  0.0018
80202W        W81066  22.640  28.974  15.791  0.0968 -0.0214  0.0228
80203W        W81067  23.016   2.859  28.879  0.1379  0.2155 -0.1455
80204W        W81068  22.298  19.771  14.891 -0.1119  0.0876  0.1548
80205W        W81069  14.734   8.334  20.625 -0.1055 -0.0579  0.0954
80206W        W81070  25.690  19.722   2.783 -0.0335  0.0869 -0.2682
80207W        W81071  17.603   2.121  11.169 -0.0757  0.1027 -0.1920
80208W        W81072  22.170   1.915  12.397  0.1038 -0.0209  0.4127
80209W        W81073   0.831   4.697   8.686  0.0439 -0.5208  0.2733
80210W        W81074  19.673  11.738   7.168  0.0923  0.3016 -0.0549
80211W        W81075  24.815   3.923   8.890  0.0496 -0.0873  0.0373
80212W        W81076  11.410  12.787   1.905  0.0338  0.0838  0.1920
80213W        W81077  19.594   1.178   0.225  0.3078  0.0274  0.1117
80214W        W81078  20.380  24.710  19.755 -0.1985 -0.0473 -0.1223
80215W        W81079   4.235   3.949   0.714  0.1251  0.2932  0.2501
80216W        W81080  21.806   4.825  18.730  0.0615  0.2167  0.4234
80217W        W81081  10.586   6.347  24.618  0.2554 -0.0467  0.1631
80218W        W81082  21.720  25.202   1.368  0.1655  0.0134 -0.0959
80219W        W81083  23.711  19.350  21.763 -0.0578  0.0575 -0.1626
80220W        W81084  17.455   3.896   5.145  0.0875 -0.0800  0.0802
80221W        W81085  22.240   7.824  18.260 -0.1129  0.1367 -0.1037
80222W        W81086   2.701  20.005  26.237 -0.0039  0.0760 -0.0361
80223W        W81087  14.676  11.965   4.975 -0.2889 -0.0501 -0.1620
80224W        W81088  10.091  10.244  23.913 -0.2456  0.0854 -0.1758
80225W        W81089  10.080  19.942  23.875 -0.0518  0.1714 -0.2352
80226W        W81090  15.708   6.055  26.235  0.2382 -0.3737  0.3708
80227W        W81091   7.774   5.520  28.677  0.2119 -0.0478  0.0835
80228W        W81092   8.343  27.615   0.216  0.0813 -0.1617  0.1246
80229W        W81093   4.309  18.077   6.661 -0.1453 -0.0790  0.0681
80230W        W81094  10.640  27.785   0.625 -0.0482 -0.0482  0.0940
80231W        W81095   5.624  15.572  26.712 -0.1703  0.1301  0.0871
80232W        W81096   3.816   7.245  28.787  0.2519 -0.1051  0.1045
80233W        W81097  25.695  26.044  23.458  0.0215 -0.1015  0.0146
80234W        W81098  25.068   0.293  26.502  0.0216  0.1171 -0.1391
80235W        W81099  13.338  28.359   8.290  0.0226 -0.1489 -0.0785
80236W        W81100  12.215  17.090  25.391 -0.2271 -0.0652 -0.2244
80237W        W81101   8.823   7.344   5.101 -0.2568 -0.0425  0.0246
80238W        W81102  21.797  21.699   0.154  0.0081  0.0707 -0.1135
80239W        W81103  22.699   3.320   9.291  0.0829  0.0762  0.1868
80240W        W81104  12.373  27.040   2.909 -0.1171 -0.2146  0.0312
80241W        W81105  25.338  20.615   5.234  0.0354 -0.0157 -0.1673
80242W        W81106  26.037  20.921  23.087 -0.1945  0.2965 -0.2261
80243W        W81107  14.408   5.557  12.859  0.0017  0.6559 -0.0762
80244W        W81108   5.992  14.914  21.478  0.0008 -0.0753 -0.1154
80245W        W81109  17.767  10.568   5.768 -0.1915  0.0308 -0.0721
80246W        W81110   2.505   8.282   7.828 -0.0743 -0.1649 -0.0333
80247W        W81111   0.003  24.049   1.290  0.0561 -0.0009  0.4624
80248W        W81112  15.451  23.330  25.008  0.2750  0.2220 -0.2280
80249W        W81113  17.547  13.262  15.694 -0.1274  0.1825  0.0510
80250W        W81114   7.652  17.287   3.558 -0.0076  0.2804  0.1442
80251W        W81115  16.794  17.623  10.055  0.2532  0.0489  0.1796
80252W        W81116  10.475  27.822   3.151  0.0016  0.1379  0.2829
80253W        W81117  21.432   8.384   6.779 -0.3217 -0.1244 -0.0246
80254W        W81118   4.272  23.350  27.608  0.1405  0.0266  0.0205
80255W        W81119  29.050   8.438   9.657  0.0057  0.0347 -0.0506
80256W        W81120  23.641  17.120   5.777  0.1443  0.1493 -0.0263
80257W        W81121  14.824   7.526   2.509 -0.0092 -0.3429  0.2172
80258W        W81122   0.492   4.349  19.825 -0.0393  0.4301 -0.0235
80259W        W81123  17.556  22.875   2.777 -0.0236  0.0530  0.0165
80260W        W81124  23.088  22.305   2.115 -0.2088  0.0746 -0.0978
80261W        W81125  15.203  12.279   4.764  0.0531  0.2304  0.0030
80262W        W81126  10.314   0.979  17.712  0.2209  0.2074  0.0535
80263W        W81127   6.526   6.218  24.641 -0.0720  0.1049  0.0501
80264W        W81128   5.391   7.898   1.629  0.2313 -0.1153 -0.2917
80265W        W81129   4.927   7.515  12.544  0.3129  0.0631  0.0806
80266W        W81130  17.438  24.086   6.253  0.1080  0.2323  0.1790
80267W        W81131   2.963  17.216  14.146 -0.0101  0.1886 -0.0183
80268W        W81132  20.530  17.657  28.970  0.1597 -0.1608 -0.3022
80269W        W81133  14.245  17.473  12.670  0.2198 -0.1845 -0.2515
80270W        W81134   7.418   8.003   2.705 -0.2178 -0.1741  0.1113
80271W        W81135  12.903  13.691   7.829 -0.0194  0.0033  0.0635
80272W        W81136  25.000  19.848  28.993  0.1190 -0.1462  0.0880
80273W        W81137  23.468  20.647   3.056 -0.2253  0.0382 -0.0612
80274W        W81138  10.546  24.728   1.705  0.2279  0.0983  0.0036
80275W        W81139  10.742  25.134  21.275  0.1117  0.2686  0.0070
80276W        W81140   7.218  28.659  13.855 -0.0436 -0.1904  0.2255
80277W        W81141  20.244  15.661  19.485 -0.0677  0.0088 -0.1726
80278W        W81142  15.609   3.393  29.002 -0.1613  0.1722 -0.0588
80279W        W81143  12.812  13.037  26.225  0.2668 -0.0818 -0.0035
80280W        W81144  24.522   5.928  14.795  0.1127 -0.2531  0.3995
80281W        W81145  22.054   7.141   1.217  0.0994  0.2593 -0.1983
80282W        W81146   5.041  26.258   9.409 -0.1177 -0.0334  0.0503
80283W        W81147   8.025  23.741   3.476 -0.0804  0.0079  0.2375
80284W        W81148  16.905  25.751   8.058 -0.1199 -0.0837  0.4037
80285W        W81149  18.028   4.877  27.598  0.2298 -0.0632  0.2213
80286W        W81150  18.056   3.654  18.196 -0.4037  0.1522 -0.1588
80287W        W81151  10.783  16.704   6.211  0.5900  0.1110 -0.0132
80288W        W81152  13.795   0.668   6.010 -0.2357  0.0720  0.0402
80289W        W81153  15.370   2.961  16.532 -0.5097 -0.0045  0.0733
80290W        W81154  24.213  15.006  13.180 -0.0207 -0.2266 -0.0293
80291W        W81155   6.143   0.627  10.064  0.1333 -0.0938  0.1779
80292W        W81156  16.025   3.960  21.901 -0.0850 -0.2852 -0.1685
80293W        W81157  20.883  20.675  11.782  0.1011 -0.4589  0.3405
80294W        W81158  26.721  21.802  12.365  0.2118  0.1894  0.1689
80295W        W81159  23.474   0.305   4.158  0.1436  0.0058  0.1237
80296W        W81160   3.362   3.985  12.376 -0.1720 -0.0753  0.0710
80297W        W81161  12.217   9.362   1.074 -0.1140  0.0912 -0.0263
80298W        W81162  28.315   9.215   2.769 -0.2748  0.0546 -0.1816
80299W        W81163  13.796  19.946   0.193 -0.0864  0.1912  0.0481
80300W        W81164  16.232   0.099  18.155 -0.0984  0.0744  0.0261
80301W        W81165  23.013   4.535   4.562  0.1396 -0.0693 -0.1058
80302W        W81166  10.151   2.071  14.883  0.1394  0.0221  0.0014
80303W        W81167  19.850  17.246  18.189 -0.0637 -0.0001 -0.0448
80304W        W81168   5.330  10.363   6.644  0.1711  0.0430  0.3319
80305W        W81169  27.634   8.187  21.747  0.1838 -0.2823  0.3039
80306W        W81170   6.653  14.326  14.582  0.3232 -0.0981 -0.0206
80307W        W81171  29.126  10.906  17.413 -0.1603 -0.2241  0.3305
80308W        W81172  25.859  18.057  24.704 -0.0798  0.2813 -0.0745
80309W        W81173  21.356  23.457  26.909 -0.3276  0.0031 -0.0087
80310W        W81174  19.797  23.807  12.190 -0.0726  0.2092 -0.0643
80311W        W81175  26.816  26.258   4.852 -0.2279 -0.2040 -0.0479
80312W        W81176  24.474   5.736  15.648 -0.1100 -0.0333  0.2889
80313W        W81177  18.322  20.834  26.871  0.1795  0.3355 -0.0905
80314W        W81178  12.434   8.612  12.203 -0.2114  0.2057 -0.0528
80315W        W81179  13.352  23.645  27.746  0.0276  0.5794  0.3018
80316W        W81180  21.697   7.483  19.713  0.0613  0.0828 -0.2368
80317W        W81181  28.018  27.287  21.295 -0.0414 -0.2029 -0.2366
80318W        W81182  14.636   5.601  12.327 -0.0764 -0.4363  0.1522
80319W        W81183  12.596   1.935   0.253 -0.2751  0.0800  0.1341
80320W        W81184  21.535  14.328   4.097  0.2607 -0.0517 -0.1070
80321W        W81185  15.377  17.833   6.713 -0.3145  0.1267 -0.2730
80322W        W81186   6.484   1.001   5.604  0.3019 -0.2914  0.4345
80323W        W81187  15.593  19.254  13.156  0.1117 -0.1584  0.2924
80324W        W81188   1.632  20.302   8.328  0.0028 -0.2810 -0.0704
80325W        W81189  21.584  19.663  22.137 -0.3130  0.0490  0.1692
80326W        W81190   6.047  15.126   3.504  0.1454  0.3404  0.2904
80327W        W81191   3.152  18.137  14.903  0.0832  0.2173  0.3278
80328W        W81192  14.790  25.117   8.938  0.1293  0.0541  0.0544
80329W        W81193  18.742   9.793  27.464  0.1838  0.0896  0.1826
80330W        W81194  28.342   0.882   7.942  0.1045 -0.0630 -0.3040
80331W        W81195  19.763  20.263   4.971 -0.2514  0.1263  0.0062
80332W        W81196   1.514  26.150  23.924  0.0136 -0.1403 -0.0798
80333W        W81197  26.059  10.987   4.888 -0.0049  0.2640 -0.2200
80334W        W81198   5.859   1.514  17.311  0.0157 -0.0817 -0.0119
80335W        W81199  10.612  18.192  16.432  0.0023  0.0308  0.0896
80336W        W81200  28.644  17.979   3.362 -0.1186  0.1264  0.1955
80337W        W81201  10.807  15.216  10.798  0.0920 -0.0446 -0.0813
80338W        W81202  26.098  27.681  14.964 -0.0396 -0.0356  0.1487
80339W        W81203   9.848   4.157   1.899  0.1804  0.1780  0.1620
80340W        W81204   1.615  18.416   9.805 -0.0053 -0.0731 -0.3141
80341W        W81205  19.530   8.532   1.388 -0.0853 -0.0436  0.0207
80342W        W81206  20.899  25.962   7.492 -0.1217 -0.0527  0.0881
80343W        W81207  28.106   9.790   9.511  0.2565  0.1759 -0.1956
80344W        W81208  23.936   5.480   1.606 -0.0272 -0.0267  0.0048
80345W        W81209  13.399  13.160   9.000 -0.1653 -0.0508  0.2788
80346W        W81210   4.428   0.170  27.067 -0.2292  0.2142 -0.1594
80347W        W81211  15.017   1.015  19.226 -0.1200 -0.1748 -0.0598
80348W        W81212  27.427  28.298  24.803 -0.3013 -0.0410 -0.0881
80349W        W81213  21.155  19.249  14.243  0.2096 -0.2078 -0.0653
80350W        W81214  19.178   9.499  25.754  0.0215  0.2506  0.0153
80351W        W81215  17.260  20.407  23.211  0.2327 -0.1104 -0.0043
80352W        W81216  24.729   3.176  25.321  0.1360  0.1194 -0.1688
80353W        W81217   2.519  13.113  28.080 -0.0777 -0.3269 -0.0900
80354W        W81218  15.361   3.044  10.428 -0.1252 -0.0316 -0.3362
80355W        W81219  12.060   4.392  26.007 -0.1714  0.0459 -0.0104
80356W        W81220  20.698   7.043  29.012  0.1358  0.2366 -0.0272
80357W        W81221  12.438  21.749  26.733  0.0010 -0.1163 -0.1269
80358W        W81222  24.436  18.132  27.459 -0.0738 -0.0413 -0.2635
80359W        W81223   9.581  18.006  20.004  0.1400 -0.0682  0.0349
80360W        W81224   7.794   1.930  29.092 -0.2370 -0.0068 -0.1822
80361W        W81225   9.804  10.954   0.131 -0.0934 -0.2380 -0.0502
80362W        W81226  20.424  15.795  13.775 -0.2372 -0.0877 -0.2115
80363W        W81227  22.712  22.663  28.277 -0.0655  0.0986 -0.3797
80364W        W81228   9.799   2.544   6.150 -0.0260  0.0437  0.0305
80365W        W81229   3.895   3.653   4.231 -0.1462  0.2940 -0.2471
80366W        W81230  21.751   1.920  15.775 -0.0865  0.0049  0.0921
80367W        W81231  22.937   7.648  28.654  0.1159 -0.0787  0.0299
80368W        W81232   5.470   3.802  22.683  0.1370  0.0933  0.0340
80369W        W81233   9.449  27.916  10.931 -0.1141  0.3513  0.0655
80370W        W81234  17.958  27.022   2.678  0.0492 -0.0801  0.1070
80371W        W81235  21.156  22.924  25.062 -0.0373  0.1412 -0.0445
80372W        W81236  28.133   6.172  28.683 -0.0403  0.0505  0.1586
80373W        W81237  14.060  11.893  28.818 -0.1171  0.3603 -0.1821
80374W        W81238   9.015   5.817  15.210 -0.3987  0.2867 -0.2469
80375W        W81239  15.057  13.178   9.408 -0.2954 -0.0009  0.0244
80376W        W81240  24.175   5.974  26.213  0.0541 -0.0162  0.1913
80377W        W81241  18.594  27.527   4.541 -0.0361  0.7009  0.2286
80378W        W81242  25.617  21.760  24.608 -0.2211 -0.0590  0.0375
80379W        W81243   2.734   0.433   5.393 -0.0278 -0.1547 -0.2098
80380W        W81244  16.956  10.952  20.923 -0.0392  0.0317 -0.1236
80381W        W81245  14.544   9.454   3.940 -0.1691 -0.0747 -0.1853
80382W        W81246  18.178   4.490   9.194 -0.1428  0.0646 -0.1856
80383W        W81247  13.465  24.449  21.027 -0.0591  0.2017 -0.2212
80384W        W81248  20.004   1.384  18.925 -0.2134 -0.0259 -0.2307
80385W        W81249  18.453   4.439  28.242  0.0667 -0.2913  0.0966
80386W        W81250  27.959  28.933  24.173  0.3812 -0.2442  0.0174
80387W        W81251  11.010  22.069  10.249 -0.6175  0.1090 -0.2048
80388W        W81252  22.316  19.376  28.131  0.1554  0.0567  0.0227
80389W        W81253   3.583  20.369   6.356  0.0976  0.1079  0.2668
80390W        W81254  20.015   4.501   3.540 -0.4706  0.0905  0.3861
80391W        W81255   6.916  27.140   9.309 -0.1972 -0.1799 -0.2770
80392W        W81256  19.624   3.922  23.247  0.2639 -0.0684 -0.2204
80393W        W81257  22.431   7.345   9.545  0.0608 -0.2264  0.3012
80394W        W81258   8.820   9.187   4.733  0.0925 -0.0031 -0.1105
80395W        W81259   4.591   9.787   2.885 -0.1419  0.2301 -0.0238
80396W        W81260   3.698   2.501  26.588  0.0221  0.0641 -0.0455
80397W        W81261   8.995  14.909  27.078  0.0509  0.0997  0.1272
80398W        W81262  21.173  18.918   4.680 -0.0530  0.1031 -0.0910
80399W        W81263  16.902  21.275   8.100 -0.1038  0.0970 -0.0822
80400W        W81264  10.266   5.901   2.573  0.1553 -0.0481  0.1260
80401W        W81265  16.575   5.088   5.287 -0.0024 -0.0772 -0.2097
80402W        W81266  25.933  23.923   0.533  0.1599  0.1730  0.1279
80403W        W81267  28.128  15.499   8.112 -0.0537 -0.0318 -0.0612
80404W        W81268  25.366   6.420  26.011 -0.1496  0.1871 -0.0078
80405W        W81269   4.761  14.764   2.648 -0.3893 -0.0134 -0.0309
80406W        W81270  15.608  20.216   2.439 -0.0831  0.1322 -0.2417
80407W        W81271   9.896   5.026  20.408  0.2243  0.2202  0.0410
80408W        W81272  12.035   7.468   2.311 -0.1876 -0.0091  0.0357
80409W        W81273   2.299   7.888  14.132  0.4933  0.2188  0.0790
80410W        W81274  28.213   9.699   7.208 -0.0073  0.0510 -0.0325
80411W        W81275  12.212   1.913  14.665 -0.1139 -0.0672  0.2316
80412W        W81276  10.557  24.692   8.415 -0.2455 -0.0104 -0.1101
80413W        W81277  12.816   1.795  14.352  0.0448 -0.0963 -0.4056
80414W        W81278  28.185   8.435  28.450  0.0489 -0.0792  0.1815
80415W        W81279   6.517  20.100  23.912 -0.0903  0.2083 -0.1097
80416W        W81280  28.019   3.398  17.761 -0.1842  0.3467 -0.2403
80417W        W81281  28.786  13.744   5.060  0.1077  0.1426 -0.0362
80418W        W81282  21.867  28.494   3.105  0.0229 -0.3688  0.1927
80419W        W81283  22.973  16.573  10.259 -0.0485  0.0890  0.0407
80420W        W81284  15.743   3.180  10.176 -0.1394 -0.4218  0.3014
80421W        W81285   9.236  17.867  27.292 -0.0682  0.0395 -0.2318
80422W        W81286   0.001   4.150  13.848  0.3081  0.0535 -0.1172
80423W        W81287  17.316  21.178  25.916 -0.0077  0.0063  0.2741
80424W        W81288  18.771   8.972  22.843 -0.2466  0.2629  0.0920
80425W        W81289  15.514  16.298  24.270 -0.0363  0.4146 -0.2971
80426W        W81290  11.131   5.249  10.276 -0.3291 -0.1346  0.0748
80427W        W81291  10.103   4.508  26.340 -0.0408 -0.1191 -0.0094
80428W        W81292   6.815  11.774  11.018 -0.2601 -0.1063 -0.0044
80429W        W81293   8.966  14.609  13.193 -0.2883  0.2492  0.1783
80430W        W81294  14.311  20.471  26.682  0.0454  0.0320  0.2684
80431W        W81295  12.738   3.542   8.790 -0.1234 -0.0190  0.0288
80432W        W81296  13.306  22.296   2.048 -0.0471  0.1016  0.2098
80433W        W81297  28.584  21.205  24.216 -0.0673 -0.0406 -0.1277
80434W        W81298   3.410  27.537   6.846  0.1050 -0.1459 -0.1181
80435W        W81299   0.305  25.603   2.167  0.4072 -0.1237  0.0907
80436W        W81300   9.621  18.502  24.942  0.2497 -0.0831  0.2589
80437W        W81301   8.159  19.189  20.460  0.0093  0.2116  0.1899
80438W        W81302   7.745   2.918   9.346 -0.0815 -0.1371  0.3185
80439W        W81303   0.914  12.964  11.313 -0.0788  0.2760 -0.0009
80440W        W81304   6.645  27.635   3.069  0.0156 -0.1860  0.0524
80441W        W81305  11.581  11.766   9.850 -0.1455 -0.0676 -0.1676
80442W        W81306   8.601  27.444  14.299  0.0689 -0.2638 -0.0166
80443W        W81307  10.776   8.883  12.498 -0.2690 -0.1250 -0.0648
80444W        W81308   8.478   5.356   6.305 -0.1918  0.0928  0.3752
80445W        W81309  14.546  19.404   2.385  0.2085  0.1802  0.1347
80446W        W81310   3.513   6.666  10.381 -0.0180 -0.0266 -0.1787
80447W        W81311   4.169   0.572  11.031 -0.0372  0.3106  0.4783
80448W        W81312   9.157  18.575   9.229  0.0579  0.1648 -0.1162
80449W        W81313   5.572  24.262   1.838 -0.1406  0.1370  0.0110
80450W        W81314  17.515   7.238  24.802 -0.0210  0.0139  0.0006
80451W        W81315  14.203   7.965  24.946  0.1676  0.0405 -0.0834
80452W        W81316  11.412   3.289  20.769 -0.2847 -0.0594  0.0027
80453W        W81317  27.827   1.030   6.281 -0.0954  0.1228  0.1484
80454W        W81318  11.870   9.969  25.170 -0.0940 -0.2160  0.2165
80455W        W81319  15.757  16.962  17.640 -0.1116  0.1185 -0.0952
80456W        W81320   2.808  10.833  28.564 -0.0101 -0.2883 -0.3116
80457W        W81321   6.767   7.554   3.192 -0.1945  0.1680  0.2873
80458W        W81322  14.048   8.197  28.754  0.2088 -0.0146  0.2047
80459W        W81323  24.961   3.368  18.814 -0.2883 -0.1700 -0.0943
80460W        W81324  24.221   1.842  18.369 -0.1426  0.1801  0.3221
80461W        W81325  27.590  23.078   8.495 -0.3367  0.3345 -0.1892
80462W        W81326   7.585   9.544  16.765  0.3648  0.4180  0.0662
80463W        W81327  12.372  28.535  12.899  0.2030 -0.3670 -0.0092
80464W        W81328   1.423  27.680  26.021 -0.1339 -0.0213  0.0582
80465W        W81329  17.001  29.095  24.064  0.0382  0.0672  0.0480
80466W        W81330   4.846   0.204  22.972 -0.2002 -0.1868  0.1499
80467W        W81331  18.938   6.989  22.298  0.2732 -0.3062 -0.0230
80468W        W81332  12.929  21.708  20.947 -0.0869 -0.1242  0.2092
80469W        W81333   8.346  13.723   7.032  0.1815 -0.1412 -0.2810
80470W        W81334  10.433  28.269   3.350 -0.3988  0.0465 -0.2047
80471W        W81335  11.376   9.287  16.284 -0.1535 -0.0613  0.1118
80472W        W81336   0.776  25.988  27.370 -0.0625 -0.1258  0.1832
80473W        W81337  11.963   4.179   9.060  0.0969 -0.4006 -0.0910
80474W        W81338  11.737  23.320  27.850  0.4800 -0.1533  0.1093
80475W        W81339   3.682  24.079  19.954 -0.1526 -0.1161 -0.0277
80476W        W81340  25.483  26.346   6.405  0.1222  0.0296 -0.1899
80477W        W81341   4.076   3.501  20.548  0.0310 -0.0630 -0.3464
80478W        W81342  23.178  28.352   0.927 -0.1476 -0.2549 -0.1519
80479W        W81343  26.141  27.874  19.329 -0.3151  0.0951 -0.0129
80480W        W81344  24.966   6.755  13.460  0.1728 -0.0061 -0.0371
80481W        W81345   1.019  24.807   8.204 -0.0409  0.2417  0.3163
80482W        W81346  22.465  12.157   0.097 -0.1604 -0.0357 -0.0399
80483W        W81347  21.025  21.707  27.820  0.1000 -0.0957  0.2841
80484W        W81348   9.139  14.093   2.907  0.1325  0.5194 -0.0236
80485W        W81349  15.662  26.508  22.787  0.1931 -0.1305 -0.2166
80486W        W81350   4.279   3.149   8.504  0.1221  0.0261 -0.0789
80487W        W81351   1.371   2.525  25.357 -0.0240  0.0926 -0.0672
80488W        W81352  14.098   3.030   7.660  0.1089 -0.0412  0.0475
80489W        W81353  11.366  26.408   2.441  0.1592 -0.1143  0.4728
80490W        W81354  11.070  10.349   7.693 -0.2102 -0.1594 -0.0568
80491W        W81355  17.375   1.805  12.685 -0.2309 -0.0037 -0.0738
80492W        W81356  19.778   5.592  23.969 -0.0886  0.3744 -0.1731
80493W        W81357  27.569  15.452   9.042 -0.1003  0.2254  0.0843
80494W        W81358  10.111  13.168  14.315 -0.1484 -0.0186 -0.0916
80495W        W81359   2.768  15.352  25.964 -0.0543 -0.0252  0.1591
80496W        W81360  13.096  25.836  26.846 -0.0428  0.0097  0.2885
80497W        W81361  10.516   1.673   5.742 -0.2439 -0.0897  0.1009
80498W        W81362  24.230  17.591   0.258  0.0676  0.1275 -0.1785
80499W        W81363  28.714  14.672   9.137 -0.1458  0.0075  0.3750
80500W        W81364   7.353  11.595  26.791  0.5391  0.1600 -0.0113
80501W        W81365  17.995  25.671  22.905 -0.1332  0.0043 -0.0761
80502W        W81366   9.713   4.371  29.116 -0.1790  0.1413  0.1297
80503W        W81367   8.266  12.550  26.417 -0.3742 -0.0956  0.1305
80504W        W81368   9.257   7.513   0.269 -0.2903  0.1957  0.1720
80505W        W81369  28.311  20.834  18.754  0.0522 -0.0116 -0.3385
80506W        W81370  14.470  16.329   0.243  0.2284  0.1912 -0.1876
80507W        W81371   7.929   3.905   9.551 -0.1511 -0.0193 -0.1757
80508W        W81372   3.626   7.750  23.992 -0.0051 -0.0378  0.2277
80509W        W81373  11.963   4.103   5.475 -0.5120 -0.0247  0.2228
80510W        W81374  20.282   9.398  27.099  0.1395  0.0092  0.1318
80511W        W81375  16.409  17.841  14.418  0.1435  0.2367  0.0135
80512W        W81376   8.032  24.220  28.849  0.0830 -0.0604 -0.1942
80513W        W81377   8.037   4.609   5.304 -0.1507 -0.1930  0.0724
80514W        W81378  18.313   6.269   4.918 -0.1403  0.2127 -0.0134
80515W        W81379  24.777   0.325  28.184 -0.0273  0.2972  0.0535
80516W        W81380   1.704  25.005  18.602  0.1189 -0.3012  0.1480
80517W        W81381  15.938   3.714  10.594  0.0480  0.0241  0.0878
80518W        W81382  15.383   5.288  15.320 -0.1926 -0.1401 -0.2180
80519W        W81383  15.264   6.746  10.965 -0.0629  0.2357 -0.0623
80520W        W81384  17.992   9.660  27.913  0.0983 -0.0059  0.1272
80521W        W81385  24.656   1.076   7.433  0.4342 -0.0170 -0.0345
80522W        W81386  21.828  18.215  27.716  0.1207  0.2599  0.1875
80523W        W81387  17.342  13.306  23.865 -0.1157  0.0200  0.0577
80524W        W81388  10.001   0.943  28.454 -0.0325 -0.0333 -0.0203
80525W        W81389  24.837  19.297   4.830  0.1509 -0.0376 -0.1694
80526W        W81390  13.582   5.552  26.978 -0.2187  0.2137  0.0804
80527W        W81391   4.767   2.005  17.868 -0.0799  0.2760 -0.1829
80528W        W81392   3.964  25.071  15.579 -0.3418  0.1731  0.1116
80529W        W81393  24.836  11.530   5.705 -0.0781 -0.2612 -0.2045
80530W        W81394  26.961  24.755   2.425  0.1327  0.0367 -0.1993
80531W        W81395   4.324   5.502  29.122 -0.1798  0.2309 -0.0203
80532W        W81396   3.531  25.900  28.124 -0.1111  0.0289  0.1202
80533W        W81397  24.380  28.771  19.385  0.1084 -0.2043  0.0589
80534W        W81398  14.277  11.445   5.896  0.2162 -0.0616 -0.2796
80535W        W81399  26.101  21.142   5.742 -0.0293  0.1282  0.0291
80536W        W81400   1.898  15.212   1.533  0.0224  0.1156  0.2267
80537W        W81401   7.891  16.462  17.513  0.0719  0.1070  0.0319
80538W        W81402  21.458  12.019  21.902 -0.2259 -0.0637 -0.1335
80539W        W81403  21.684   2.725   4.873 -0.1319 -0.2743 -0.0798
80540W        W81404  17.073  26.968  23.369  0.1375  0.0610  0.0868
80541W        W81405  18.915  22.396   6.737  0.0000  0.1196  0.1352
80542W        W81406  23.343  24.354   3.614  0.2719  0.3147  0.1193
80543W        W81407   5.941  20.395  18.125  0.0795 -0.1024 -0.1624
80544W        W81408  18.887  12.461  24.451 -0.0151  0.1471  0.3285
80545W        W81409  28.723  23.301  16.497  0.4170 -0.1068  0.2659
80546W        W81410  21.071  10.371  27.276  0.2035  0.1316  0.0140
80547W        W81411  13.565  12.826  13.266  0.3207 -0.3104 -0.1423
80548W        W81412  16.365  27.500   6.988  0.2677 -0.0202 -0.1035
80549W        W81413  17.201   2.765  14.109  0.0932 -0.0823 -0.0765
80550W        W81414   4.653   5.613  17.292 -0.1762  0.0171  0.3596
80551W        W81415  15.552   4.780  18.394  0.1594 -0.0366  0.0620
80552W        W81416  15.114  11.256   4.809  0.0815 -0.0910 -0.0860
80553W        W81417   3.534  13.361  24.052  0.0764 -0.2116 -0.0929
80554W        W81418  14.866   6.042   9.471 -0.1666 -0.3081 -0.1609
80555W        W81419  23.480  22.119   4.350 -0.0038 -0.1961  0.5404
80556W        W81420  10.803  25.168  25.113  0.1501 -0.0436 -0.0921
80557W        W81421  29.029   9.396  25.867  0.1488 -0.1059 -0.0416
80558W        W81422  25.978  17.402  17.714 -0.1163  0.0795  0.2377
80559W        W81423  17.605   6.841  10.411  0.2691 -0.0002  0.2001
80560W        W81424  24.253  16.906   6.944  0.1053 -0.0384 -0.3141
80561W        W81425  13.670  24.618   9.434  0.1058 -0.0043  0.1613
80562W        W81426   4.733  23.094  17.760 -0.0235 -0.1268 -0.3511
80563W        W81427  16.221  27.505  10.849  0.2306  0.0973  0.1507
80564W        W81428  28.384  24.394  22.488 -0.1244 -0.0527  0.1777
80565W        W81429  18.816   4.195  16.225 -0.2729 -0.0117  0.1348
80566W        W81430   2.803  25.435  15.086  0.1169  0.2187 -0.2792
80567W        W81431  12.887  29.064   3.761  0.0040  0.1714  0.2659
80568W        W81432  16.584   5.668  22.795  0.0203 -0.1414 -0.4436
80569W        W81433   0.808   6.184  24.069 -0.2329 -0.1060  0.1888
80570W        W81434  16.808  26.090  22.635 -0.0366 -0.0790 -0.0317
80571W        W81435   7.194  23.805  20.668 -0.0535 -0.3039  0.0299
80572W        W81436   9.808  13.078  22.647  0.0222  0.2082  0.0452
80573W        W81437  14.654  11.476  10.183  0.4186  0.0077  0.1910
80574W        W81438  24.557  17.642  16.643 -0.1810  0.2061 -0.0700
80575W        W81439   8.774   7.842  20.723 -0.3202  0.0701 -0.4020
80576W        W81440  13.115  19.504  24.994 -0.0668  0.2066 -0.0323
80577W        W81441   8.429   6.988   1.516 -0.1859  0.2618 -0.3593
80578W        W81442   8.539  18.121  26.389  0.3552 -0.1813  0.0754
80579W        W81443  11.426  15.416  28.274  0.0132  0.1885 -0.1456
80580W        W81444  10.894  21.664  13.647 -0.0105 -0.1855 -0.0346
80581W        W81445   2.895   7.700  14.198  0.0252 -0.2369 -0.0773
80582W        W81446  20.431  10.311   9.147  0.1740 -0.0951 -0.0730
80583W        W81447  15.866   3.142  13.943  0.2386  0.0320 -0.3740
80584W        W81448   5.975  18.201  28.101  0.0804 -0.1599 -0.3927
80585W        W81449  15.631   8.634   7.556  0.0443  0.0007  0.1514
80586W        W81450  22.598  23.306   7.205 -0.2040  0.0258 -0.0757
80587W        W81451  15.012  21.282  12.624 -0.2684 -0.0558 -0.1680
80588W        W81452  10.763   7.773   4.857 -0.1094 -0.1601 -0.1490
80589W        W81453  15.507   1.438   1.824 -0.3337  0.2758 -0.0023
80590W        W81454  25.990  20.252  27.991 -0.3027  0.1232  0.2864
80591W        W81455  20.924   6.794  28.233  0.0691  0.3030  0.0635
80592W        W81456  27.042   3.903   8.059  0.2504 -0.1708 -0.2179
80593W        W81457   6.040   3.428  24.598 -0.0064 -0.1334  0.1478
80594W        W81458  16.919   2.917   1.251 -0.4068 -0.1874  0.3006
80595W        W81459  23.358   2.081  14.366 -0.0118  0.0612 -0.0339
80596W        W81460  21.034  12.226   3.689 -0.2378  0.0512 -0.3687
80597W        W81461  18.302   9.242  16.920 -0.2228  0.1353  0.1914
80598W        W81462  16.318  21.892  21.249  0.0409  0.1870  0.0079
80599W        W81463  11.628  16.483   6.674 -0.1522 -0.0097 -0.2985
80600W        W81464  12.194  12.440   5.895 -0.0661 -0.1662  0.1020
80601W        W81465   7.505  10.794   4.357 -0.1276 -0.0434 -0.0066
80602W        W81466  18.099  20.263  16.749 -0.1554 -0.2946 -0.1648
80603W        W81467  28.162   7.208  28.102  0.2121 -0.1003  0.0967
80604W        W81468  14.263  17.850  22.944 -0.1289  0.1459  0.0024
80605W        W81469   4.090  21.893  11.842 -0.2676 -0.0394  0.2543
80606W        W81470   9.585  15.130  28.297 -0.2748 -0.1877 -0.0278
80607W        W81471  19.712  24.880   8.740 -0.0127  0.0030  0.1643
80608W        W81472  17.814  26.153   3.811 -0.2611 -0.1534 -0.0419
80609W        W81473  10.877   4.279  16.877 -0.1236 -0.0128 -0.1929
80610W        W81474  10.425  16.431   3.956 -0.1700  0.2807 -0.1004
80611W        W81475  25.384  27.867   5.197  0.0173 -0.2276  0.1242
80612W        W81476   1.714   8.921  11.613 -0.2110 -0.0516 -0.0680
80613W        W81477  18.783   5.862   2.479  0.0122  0.0109  0.2247
80614W        W81478  13.451   1.216   3.972 -0.0165  0.1354  0.3686
80615W        W81479  20.717   1.229   4.107  0.0829  0.2160  0.1019
80616W        W81480  10.767  16.880  23.804  0.0651  0.1251 -0.2009
80617W        W81481   3.857   9.266   0.931  0.3647  0.1054 -0.1485
80618W        W81482  14.329  14.100   3.858  0.0912 -0.1123  0.0991
80619W        W81483  12.061  19.758   8.367  0.2542 -0.0256 -0.0512
80620W        W81484  26.412  22.525  21.193  0.1704 -0.2522 -0.0446
80621W        W81485   6.291  13.743  11.562  0.0773 -0.1069  0.1268
80622W        W81486  12.966  12.810  28.543 -0.1136  0.0428 -0.0697
80623W        W81487  19.856   3.443   7.239  0.1256  0.0514  0.0768
80624W        W81488   7.443  27.526  16.870  0.4319 -0.0176 -0.0143
80625W        W81489   9.912  12.759   8.823 -0.0438  0.3192 -0.1491
80626W        W81490  27.126  25.603   4.472 -0.0379  0.0499 -0.3169
80627W        W81491  10.227  20.197  23.466  0.0176  0.1245  0.4178
80628W        W81492  22.862   6.190   2.259  0.3276 -0.1507  0.1919
80629W        W81493  17.824  11.900  15.473 -0.3432 -0.2944 -0.1398
80630W        W81494  18.099  13.193   8.019 -0.2811 -0.0559 -0.1010
80631W        W81495  12.111  19.865   3.808 -0.0751  0.2048 -0.0029
80632W        W81496  24.192  19.259  22.773  0.2457 -0.0723  0.0930
80633W        W81497   9.663   4.540  10.609 -0.3798  0.1427  0.4259
80634W        W81498   8.011  10.788  26.540  0.0059 -0.0160  0.0757
80635W        W81499  19.018   8.976   0.686 -0.2712 -0.1201 -0.0934
80636W        W81500   0.719  16.526  10.663  0.2018  0.2118 -0.1027
80637W        W81501  10.567  22.620  19.916  0.0094  0.1494 -0.1471
80638W        W81502   0.727  25.099   3.350 -0.4286 -0.2274  0.0372
80639W        W81503  28.982   3.878  21.258  0.3223 -0.0209 -0.4788
80640W        W81504   3.871   4.614  15.427 -0.0781 -0.5261 -0.0760
80641W        W81505  26.315   9.315   5.877 -0.2757 -0.0109  0.0896
80642W        W81506   4.220  11.698   6.428  0.0358  0.0662  0.0768
80643W        W81507   6.570   7.371  11.837 -0.3461  0.3166 -0.2624
80644W        W81508  21.453   5.895   4.953 -0.0723  0.2607 -0.2721
80645W        W81509   6.938  15.487  15.987  0.0964  0.2265 -0.1119
80646W        W81510   8.372   1.961   1.452  0.1725  0.0101  0.3291
80647W        W81511  16.752  25.284  25.985  0.2049  0.0610  0.1706
80648W        W81512  15.670  23.664  16.397 -0.2006 -0.0313 -0.2608
80649W        W81513  10.433   8.755  19.845  0.1429  0.1964 -0.1607
80650W        W81514   8.958   0.794  13.118 -0.1003 -0.2478  0.2855
80651W        W81515   9.933  26.496  10.357 -0.0735 -0.1651  0.0195
80652W        W81516  10.403   4.538   9.421  0.1009  0.0204 -0.3019
80653W        W81517  13.198  12.828   9.748  0.0656 -0.1651 -0.5050
80654W        W81518   7.809  13.871  13.267  0.1100  0.3843  0.1339
80655W        W81519   8.819   1.717   5.653 -0.0562  0.1982 -0.2966
80656W        W81520   3.758  24.184  18.621 -0.1449 -0.1260 -0.0491
80657W        W81521  15.766   4.889   8.465  0.1098  0.2233 -0.1594
80658W        W81522  10.707   8.006   2.234 -0.1187 -0.2726  0.1861
80659W        W81523  15.910   6.296   9.825  0.1375 -0.1340 -0.0321
80660W        W81524  16.233  25.782  11.332  0.2910  0.0948 -0.2403
80661W        W81525  26.385  10.333   2.266 -0.0348 -0.2631  0.3778
80662W        W81526   3.221   0.958  20.950  0.2765  0.0449  0.1194
80663W        W81527  19.490  12.332   1.710  0.0787  0.2720  0.2192
80664W        W81528  21.881   2.947   1.353 -0.3607 -0.2560 -0.0571
80665W        W81529   9.559   2.938   9.167 -0.0285  0.1530  0.0235
80666W        W81530  14.715   9.255  17.650 -0.1167  0.0872 -0.1508
80667W        W81531  24.408  27.468  20.781 -0.2135 -0.1241  0.0092
80668W        W81532  17.984   7.217   1.352 -0.0138  0.0489  0.1018
80669W        W81533  24.911  23.083   7.448 -0.0914  0.1801  0.1114
80670W        W81534  27.321  10.727  12.675  0.3018 -0.1471  0.3395
80671W        W81535  16.407  14.851   9.847 -0.0953  0.1318 -0.2555
80672W        W81536   0.833   5.969  12.340  0.0400  0.2041  0.2398
80673W        W81537   8.126  25.051   4.659  0.0357  0.4824 -0.2243
80674W        W81538   5.727   8.742   5.827 -0.2792 -0.1149  0.1024
80675W        W81539   3.280   4.200   5.480  0.1230  0.2926 -0.2947
80676W        W81540   5.249  14.258  27.604 -0.1357  0.0761 -0.2533
80677W        W81541  12.913   5.076  10.634  0.3067  0.2410  0.0247
80678W        W81542  22.453   3.460  22.771  0.1251 -0.0930  0.3048
80679W        W81543   6.084   7.326   1.259  0.0465  0.1187  0.0567
80680W        W81544  20.021  20.496  26.932 -0.1547 -0.0181 -0.2477
80681W        W81545   1.475   4.093  28.888  0.4033  0.1209  0.1295
80682W        W81546  11.092  14.720  26.370  0.0340  0.0515  0.0633
80683W        W81547  23.197   5.513  25.670 -0.1597  0.0587  0.0496
80684W        W81548  13.474  12.235  28.047 -0.1534 -0.1132  0.1704
80685W        W81549  22.947   4.296  12.088 -0.1922  0.3615  0.1373
80686W        W81550  21.466  16.746  28.871 -0.1301 -0.1820  0.0977
80687W        W81551  13.412   4.048   7.536 -0.0744 -0.1877  0.0837
80688W        W81552  10.108  13.352  18.476 -0.2091 -0.0945  0.2011
80689W        W81553  18.737  18.058  23.725  0.1488  0.0657 -0.0688
80690W        W81554   9.341  13.779  13.319 -0.1441 -0.1415  0.1170
80691W        W81555  29.034  27.025   7.664 -0.1371 -0.0721 -0.2328
80692W        W81556  22.883   7.870  14.325 -0.0388  0.0219 -0.2152
80693W        W81557  11.872   3.162   5.306 -0.1799 -0.2612 -0.2079
80694W        W81558  18.112   4.422   1.274  0.0572 -0.0567 -0.1252
80695W        W81559  14.054  21.235   4.407  0.0689 -0.2458 -0.2131
80696W        W81560  20.158   9.068  28.294  0.0211  0.2931  0.0799
80697W        W81561   6.987  13.859   5.067 -0.1336 -0.0215 -0.2238
80698W        W81562   8.740   4.174   7.262  0.1073 -0.2861  0.2197
80699W        W81563  16.830  27.445  19.511  0.1598 -0.1161 -0.1159
80700W        W81564   2.875  13.193  11.664 -0.2481  0.2136 -0.0220
80701W        W81565   0.449   5.048  21.455  0.0218 -0.0250  0.3487
80702W        W81566   8.755  23.256   5.524  0.4979 -0.0015 -0.4249
80703W        W81567   3.551  16.379   1.698  0.1515  0.0473 -0.1145
80704W        W81568   1.008  23.260  25.260 -0.1684  0.1430 -0.1186
80705W        W81569   7.715  16.180   4.605 -0.1385  0.1438  0.0868
80706W        W81570   1.522  24.433  12.839 -0.0929  0.1164  0.0314
80707W        W81571  18.013  15.232  25.600 -0.1808  0.1401  0.2295
80708W        W81572   7.930   0.995  28.997 -0.1004 -0.1706  0.1131
80709W        W81573  15.910  10.387  27.811  0.1943 -0.0978  0.0243
80710W        W81574  28.079   8.405   7.403 -0.0211 -0.0608 -0.1034
80711W        W81575   1.075   3.330  12.651 -0.2124  0.0940 -0.0125
80712W        W81576  20.815   6.578  12.840  0.2599 -0.0650  0.1967
80713W        W81577   7.590   3.491  14.509 -0.0930 -0.3471 -0.0634
80714W        W81578   9.743   7.577   0.168  0.2605  0.2142  0.0202
80715W        W81579   6.619   9.051  27.262  0.1940 -0.0499 -0.0172
80716W        W81580  15.452   4.742  22.696 -0.1737  0.0668 -0.1804
80717W        W81581  17.372  19.011  26.354 -0.4053  0.0665  0.1043
80718W        W81582  16.560  12.021  12.237  0.0888 -0.1734  0.1597
80719W        W81583   2.902  15.225   3.051 -0.2932 -0.0909  0.4964
80720W        W81584  16.645  12.476  13.937  0.2176 -0.5324  0.2208
80721W        W81585  16.369   3.677  22.225  0.0076 -0.1887 -0.0689
80722W        W81586  19.135  15.162   2.361  0.0407 -0.2845  0.2995
80723W        W81587  19.716  27.914  15.393 -0.1485 -0.1919 -0.0556
80724W        W81588  17.392   2.380   6.014  0.0249  0.0914  0.0148
80725W        W81589  13.855  21.414   8.821  0.1489  0.0128 -0.2204
80726W        W81590  19.350  11.398  28.501  0.2517 -0.0441 -0.0752
80727W        W81591   5.175  14.421  23.206 -0.1536 -0.0416 -0.0727
80728W        W81592  16.195   0.935   1.860  0.1059 -0.0478  0.1787
80729W        W81593  12.442   6.612   6.774 -0.1818 -0.4496  0.2994
80730W        W81594   6.678   8.556   6.521 -0.0619 -0.1834 -0.0734
80731W        W81595  10.010   7.017  28.512  0.1709 -0.0017  0.1892
80732W        W81596   2.954  22.796   4.994 -0.1159 -0.0093 -0.0315
80733W        W81597   6.974  12.948  17.549 -0.3870  0.0908  0.2032
80734W        W81598   6.950  22.483   6.856 -0.1499 -0.1325  0.2711
80735W        W81599  28.383   5.196   3.932 -0.3472  0.0162  0.1589
80736W        W81600  11.286   8.312  20.297  0.3304  0.1971  0.0702
80737W        W81601  28.515  15.559  26.246  0.0271 -0.0399 -0.0078
80738W        W81602  27.486  25.246  14.010 -0.1048 -0.1126  0.2946
80739W        W81603  23.363   4.411   4.970  0.0014  0.0740  0.0932
80740W        W81604  23.308   8.976   7.227  0.0702 -0.0642  0.0556
80741W        W81605   5.366   1.452   6.420 -0.0589  0.0490  0.0517
80742W        W81606   0.767   4.566  26.717  0.1160 -0.2131 -0.0384
80743W        W81607  26.182  22.489  22.861  0.2374 -0.1051 -0.2183
80744W        W81608  14.754   0.550  25.424  0.3077  0.0109 -0.1075
80745W        W81609   8.753  28.665   3.636 -0.1572 -0.1960  0.0745
80746W        W81610  25.952  22.464  11.567  0.3156  0.0499 -0.1606
80747W        W81611   7.221  16.966   3.160  0.2631 -0.0282 -0.1840
80748W        W81612  12.815   4.912   8.819  0.5053  0.4222 -0.2093
80749W        W81613   5.174  21.712  24.018 -0.1332 -0.2862 -0.2068
80750W        W81614  14.059  23.910  14.389 -0.0654 -0.2202 -0.1324
80751W        W81615   3.482   6.649  15.546  0.0925  0.1102  0.2766
80752W        W81616  16.612  11.534   4.431  0.0639 -0.0600 -0.1196
80753W        W81617  23.943   5.266   2.090  0.2377  0.2603 -0.0079
80754W        W81618  15.309  13.683   6.851  0.3223 -0.2262  0.2269
80755W        W81619  11.083   6.507   3.096 -0.0452 -0.3215 -0.3237
80756W        W81620   4.948   3.172  27.879  0.1039 -0.0051 -0.0244
80757W        W81621  11.061  17.866   6.782 -0.3028 -0.1201  0.0480
80758W        W81622   0.947   3.055   0.480 -0.2264 -0.1028 -0.0709
80759W        W81623   7.116   5.716  20.469 -0.1758 -0.0226  0.0783
80760W        W81624  16.506  13.815   9.576 -0.1330 -0.0152 -0.3011
80761W        W81625  17.541   0.539  25.263  0.0529  0.1949 -0.0005
80762W        W81626  11.352  23.052   9.440 -0.0300  0.2789 -0.0412
80763W        W81627   0.644   4.820  27.714  0.0057 -0.2146 -0.3882
80764W        W81628   0.742  28.229  13.537  0.0838  0.1868 -0.5664
80765W        W81629  25.017   9.734   9.720 -0.1201 -0.2256  0.0770
80766W        W81630   3.918   0.823  17.557  0.2522 -0.0040 -0.1155
80767W        W81631  11.905  15.775  17.421  0.2272 -0.0854 -0.2418
80768W        W81632   7.404   1.489  23.409 -0.1440 -0.2171  0.0851
80769W        W81633  14.627  28.980   8.884  0.1562  0.1420  0.0593
80770W        W81634  26.892  13.774  28.254  0.1866  0.0129 -0.2471
80771W        W81635   3.381  26.771   2.013 -0.0880  0.2218 -0.0601
80772W        W81636  18.089   4.173  21.953  0.0206 -0.1733  0.0341
80773W        W81637  21.093   6.242  25.650  0.0198 -0.1117  0.1385
80774W        W81638  22.386  25.733  16.319  0.1335  0.1019  0.1554
80775W        W81639  10.737   8.098   7.017 -0.0103 -0.2326  0.3694
80776W        W81640  22.429  27.555  11.730  0.3352 -0.1703 -0.2413
80777W        W81641  12.271   7.353  13.845 -0.0196  0.0730  0.1811
80778W        W81642  18.585  14.014   3.705  0.1144  0.0947 -0.1097
80779W        W81643   0.390   6.717   9.404 -0.1894  0.2488  0.0202
80780W        W81644  11.148   6.155  26.828  0.3751 -0.1625  0.2090
80781W        W81645  15.253   9.849  18.109  0.0519  0.1483 -0.3464
80782W        W81646  23.208  15.974  17.427  0.1701  0.0586  0.3220
80783W        W81647   3.735  22.032  21.082  0.2625 -0.1789 -0.1518
80784W        W81648  15.439  11.111   0.148 -0.1723  0.3136 -0.3319
80785W        W81649  24.130  13.600  26.514 -0.0801  0.1538  0.0564
80786W        W81650  10.315  10.739   1.303 -0.1321 -0.1637  0.0566
80787W        W81651   1.466  28.493   4.482  0.1145  0.2093  0.3608
80788W        W81652  14.484  20.401   9.570  0.0869 -0.0520  0.2152
80789W        W81653   6.749  14.467  28.670 -0.0315 -0.0953  0.0929
80790W        W81654  23.979  20.344  28.456  0.3121 -0.2072  0.0672
80791W        W81655  10.720  12.024  11.103  0.0698  0.0938 -0.2038
80792W        W81656  12.712   6.426  15.946  0.2844  0.1721 -0.0585
80793W        W81657  22.047   9.477   8.495 -0.0125 -0.3554  0.0231
80794W        W81658  16.474  20.041   7.479  0.0139 -0.1294 -0.0514
80795W        W81659   0.036  24.335   3.656 -0.2500  0.1244 -0.3133
80796W        W81660  13.168  21.353  17.481 -0.2534 -0.2633 -0.4334
80797W        W81661  21.348  28.979   5.568 -0.1413  0.3716  0.0222
80798W        W81662  12.856  24.769  22.588 -0.1270  0.1350 -0.0343
80799W        W81663   4.928  21.788   2.635 -0.1450  0.0082  0.0347
80800W        W81664   1.276  16.476  19.146 -0.3122 -0.2360  0.1165
80801W        W81665  22.504   4.198  24.897  0.1319  0.2512 -0.1579
80802W        W81666   6.562  27.620  24.569 -0.2010  0.0781  0.3253
80803W        W81667  22.158  13.731  12.228 -0.2030  0.0715  0.1688
80804W        W81668  24.421  21.353  12.768  0.1856 -0.0630 -0.1699
80805W        W81669  16.007  28.248  16.075  0.0389 -0.1333 -0.3885
80806W        W81670  18.865  28.479  28.984 -0.1285  0.0437  0.0262
80807W        W81671   8.413   9.416  28.381  0.0043 -0.0275 -0.2282
80808W        W81672  20.820  28.383  15.523  0.0360 -0.0833  0.1832
80809W        W81673  10.871   3.316  23.380 -0.0448  0.3598 -0.0501
80810W        W81674  22.119  13.657  24.274 -0.2117  0.3958 -0.0063
80811W        W81675  19.185   2.157   3.145  0.0244  0.3708 -0.0504
80812W        W81676   6.736   4.040  18.314  0.1168 -0.3027  0.1062
80813W        W81677   0.689   5.825   8.811  0.1910 -0.3517 -0.2041
80814W        W81678  28.170  20.639  27.182  0.0542  0.0579 -0.0383
80815W        W81679   7.849  11.669   3.297  0.1087 -0.4476 -0.1999
80816W        W81680  21.316   2.555  28.951  0.3137 -0.0248 -0.1097
80817W        W81681  23.819  18.942  11.395  0.2186 -0.0376 -0.0452
80818W        W81682  23.617  17.857  25.016  0.2168  0.1692  0.2564
80819W        W81683  25.390  29.122   6.860  0.2409  0.0288  0.3311
80820W        W81684  11.630   6.733   0.701 -0.2548 -0.0714 -0.1167
80821W        W81685  13.286   3.985  13.281 -0.2606  0.1357 -0.2224
80822W        W81686   5.749  25.593  19.587  0.2746  0.0382  0.2161
80823W        W81687  21.876  28.825  14.639 -0.0249  0.3728  0.0676
80824W        W81688  22.277  14.477  26.541 -0.0192 -0.0573 -0.0614
80825W        W81689  18.896   0.562  24.987 -0.2110  0.0212 -0.1502
80826W        W81690  12.196   8.316   3.301 -0.0495  0.1965 -0.0443
80827W        W81691  12.733  11.985  11.425 -0.2799  0.0534 -0.4145
80828W        W81692  14.668   1.895  21.632 -0.1720  0.1459 -0.3269
80829W        W81693  17.743   5.109  10.375 -0.0289 -0.1043 -0.0246
80830W        W81694   2.071   7.229   1.317 -0.2340  0.2374 -0.0096
80831W        W81695  17.604   5.236  26.948  0.0647  0.0259  0.1658
80832W        W81696  11.038  12.440  10.706  0.3389  0.0954  0.0048
80833W        W81697  14.758  12.423  28.717  0.0020  0.2105  0.1182
80834W        W81698   4.073  12.959  17.941  0.0754  0.3212 -0.3525
80835W        W81699  19.025   5.141   8.003  0.0051 -0.2230 -0.1966
80836W        W81700   7.658  14.491   2.336 -0.3421  0.1467 -0.3131
80837W        W81701  24.744   7.291  21.942 -0.2386 -0.2436 -0.0336
80838W        W81702   0.910   4.029   3.799  0.2109  0.1955 -0.0776
80839W        W81703  18.744  10.781  12.987 -0.0227 -0.2634 -0.1096
80840W        W81704  11.474  10.305   6.773 -0.1696 -0.1070 -0.0970
80841W        W81705   9.551   5.931  18.886 -0.1838 -0.1372 -0.1436
80842W        W81706  28.797  16.055   2.967  0.3117 -0.1805 -0.2078
80843W        W81707  28.687   8.593   8.940  0.1622 -0.1349 -0.1384
80844W        W81708   7.877  27.841   7.043  0.1833 -0.0845  0.1221
80845W        W81709  24.331  14.021  12.768 -0.2130 -0.2860 -0.1401
80846W        W81710  11.354   7.192  19.796 -0.1684  0.5865  0.3974
80847W        W81711  18.175  24.806  13.390  0.2295  0.2666 -0.2096
80848W        W81712  24.191   7.577   9.072  0.0455 -0.2507  0.1754
80849W        W81713  16.768  19.738  19.104  0.0637  0.1478 -0.1800
80850W        W81714   1.874   9.546   0.167  0.0823  0.0997 -0.0973
80851W        W81715   5.975  15.060  15.278  0.5326 -0.0084  0.2752
80852W        W81716  17.650  20.801  10.406  0.0644  0.0478 -0.1740
80853W        W81717  19.754   9.848  12.660 -0.1004 -0.1479 -0.0184
80854W        W81718  25.565   6.307  18.694  0.0957 -0.5661  0.1751
80855W        W81719   6.195  21.539  11.982 -0.2800 -0.1486 -0.1041
80856W        W81720  26.621   4.710  29.108  0.0289  0.2931 -0.1126
80857W        W81721  12.128   4.312  16.563 -0.1079  0.2598  0.0251
80858W        W81722  18.492  26.280  22.260 -0.2566 -0.1712 -0.1786
80859W        W81723   2.698   8.619   0.905 -0.1700  0.2949  0.1279
80860W        W81724   4.670  26.826   4.559  0.1111  0.0428  0.1463
80861W        W81725  17.679   2.126   7.142  0.2927  0.2459 -0.0415
80862W        W81726  28.425  12.981   6.421 -0.1592  0.0423 -0.0525
80863W        W81727  13.637  17.712   4.114 -0.3465 -0.1400  0.3909
80864W        W81728   4.444   9.292   2.953  0.1258  0.1915  0.0548
80865W        W81729  25.156   1.497  20.176  0.0184 -0.0669  0.0621
80866W        W81730  13.430  18.820   7.574  0.0342  0.1060  0.0768
80867W        W81731  10.618   1.206  11.017 -0.1959 -0.0467 -0.0722
80868W        W81732   2.817  20.831  12.294  0.0201 -0.1195 -0.0226
80869W        W81733   8.174  14.629   3.434  0.0329  0.0339  0.2211
80870W        W81734   7.966   1.492  12.555  0.0680 -0.0361  0.2744
80871W        W81735  20.183  25.646  11.578 -0.0916 -0.0299  0.0627
80872W        W81736   6.164  10.473  12.348  0.1863 -0.1978  0.1780
80873W        W81737   1.958  14.050   6.815 -0.1944  0.3075  0.1666
80874W        W81738  12.651   6.029  10.516  0.0264 -0.1015  0.0134
80875W        W81739   5.820   7.758  18.286  0.0338  0.1930 -0.0090
80876W        W81740  13.560   5.841  21.886  0.0935 -0.0904 -0.2438
80877W        W81741  19.873   7.730   6.458 -0.2222 -0.1643 -0.0840
80878W        W81742  28.788   1.305   2.859  0.1846 -0.0425 -0.1335
80879W        W81743  19.166   8.794   2.270  0.0923  0.2120 -0.2088
80880W        W81744  28.513   5.212  18.266  0.3084 -0.0013 -0.0266
80881W        W81745  10.664   4.458  12.090  0.1184  0.0521  0.1134
80882W        W81746  24.836   2.014   5.702  0.0990 -0.0044 -0.1235
80883W        W81747   0.563  26.002   7.727 -0.4700  0.1597 -0.0035
80884W        W81748  26.922  24.194  20.398 -0.3615  0.0192  0.2690
80885W        W81749  15.067  18.554   1.609  0.0536 -0.0359  0.1527
80886W        W81750   0.676  27.941  19.624 -0.0318  0.3460  0.4239
80887W        W81751   2.975  14.122   9.410  0.0617 -0.0965  0.0539
80888W        W81752   0.568  21.744   2.970  0.1224  0.0839  0.3128
80889W        W81753   0.184  28.660   7.129  0.0492 -0.2536  0.1721
80890W        W81754  15.324  29.059  11.098  0.1347 -0.0440 -0.1690
80891W        W81755  19.565  12.186   7.104  0.1935 -0.1166 -0.0966
80892W        W81756   3.490   0.940  28.919  0.1910  0.1390  0.3632
80893W        W81757  19.009  21.571   7.129 -0.1599  0.0635 -0.2092
80894W        W81758   0.533  21.220   9.330  0.0682 -0.4082  0.0688
80895W        W81759  27.270  26.470  11.000  0.0579  0.1528 -0.2546
80896W        W81760  21.243   3.511  11.449  0.0806  0.2185 -0.0125
80897W        W81761  14.085  24.477   1.444 -0.1768 -0.3008 -0.1524
80898W        W81762  12.804   0.018  21.859 -0.1899  0.1271  0.1601
80899W        W81763   5.595  14.691   1.514 -0.0697  0.2366 -0.0807
80900W        W81764   7.133  13.764   3.243  0.1437  0.1242  0.0661
80901W        W81765  17.620  24.710  19.222 -0.1075  0.1119  0.0339
80902W        W81766   5.089  19.873   2.408  0.0631 -0.0194  0.2514
80903W        W81767   4.204   0.104  19.239  0.1529 -0.0829  0.5097
80904W        W81768  21.533  24.719  10.504  0.1944 -0.3657  0.2619
80905W        W81769   8.984  15.464  24.554 -0.0109  0.0248 -0.3231
80906W        W81770   7.791   3.173  21.378 -0.1888  0.0964  0.1870
80907W        W81771  10.987   5.331  13.496 -0.1467 -0.2658 -0.0234
80908W        W81772  19.483   2.376  20.853 -0.0479 -0.3609 -0.2058
80909W        W81773  29.034   8.724  20.708  0.1699  0.1846  0.0957
80910W        W81774  20.901   5.913  26.620  0.1274  0.4331  0.2801
80911W        W81775  13.867  26.318  21.570  0.0578 -0.1222 -0.1546
80912W        W81776   1.264  17.776   2.213  0.1926 -0.1475  0.0042
80913W        W81777  12.278   8.333  28.465  0.2898  0.4530 -0.0454
80914W        W81778  16.788  26.074   2.260  0.0671  0.0312 -0.1868
80915W        W81779  20.765   4.367   7.917  0.1724  0.2622 -0.2812
80916W        W81780  28.154   4.303  16.626  0.0155 -0.0034 -0.0453
80917W        W81781   4.340   3.754  12.202  0.0239 -0.0146  0.4067
80918W        W81782   1.066  16.930  17.881  0.0081  0.1170 -0.2525
80919W        W81783  24.513  25.991  21.004  0.2791  0.0663 -0.0681
80920W        W81784  15.092  19.653   4.679 -0.1074  0.1561 -0.1239
80921W        W81785  20.161  21.818   1.851  0.2095  0.1480 -0.0760
80922W        W81786  24.000  24.973  12.199  0.2301 -0.1686  0.4028
80923W        W81787   5.826  25.645  15.375 -0.2432  0.1431  0.0654
80924W        W81788   4.892  14.457   9.942  0.0516  0.4013  0.0062
80925W        W81789   4.768  28.672  25.064  0.1296 -0.3599  0.1611
80926W        W81790   9.659  18.609   1.399 -0.4057  0.1053  0.2659
80927W        W81791  28.393  15.032   8.430 -0.0199  0.0148 -0.1851
80928W        W81792  26.725  18.249  21.031  0.0123 -0.3022  0.0714
80929W        W81793   5.312   7.273   6.124 -0.0272  0.1030 -0.2579
80930W        W81794  10.286   3.191  11.131  0.1034 -0.0893  0.1333
80931W        W81795  26.321   7.069   3.277  0.1309  0.4283  0.2616
80932W        W81796   5.946  20.534  16.871 -0.0701  0.0736  0.0842
80933W        W81797  12.578  13.868   9.382  0.3320  0.0075 -0.2424
80934W        W81798   5.598  10.142   3.190 -0.0967 -0.0826  0.0712
80935W        W81799   3.576  10.184   9.583 -0.1114 -0.1943 -0.0818
80936W        W81800  22.935  20.376  24.292  0.1928  0.2218 -0.1516
80937W        W81801   8.809  12.110   1.330 -0.0726  0.1441 -0.0238
80938W        W81802  20.514   3.592  15.917  0.0620  0.1164 -0.0445
80939W        W81803   9.865  23.188   0.545  0.3569 -0.0067  0.1944
80940W        W81804   5.508   7.071  14.112  0.0177 -0.1666 -0.0872
80941W        W81805  22.779   4.031  26.972 -0.1947 -0.1438  0.1354
80942W        W81806   6.872  10.202   9.532  0.1169 -0.2113 -0.0583
80943W        W81807  15.630   1.365   7.366 -0.0611  0.1592  0.2301
80944W        W81808   5.857   1.741   3.671 -0.2145 -0.0498  0.0596
80945W        W81809   5.612   9.574  18.494  0.1574 -0.0504  0.0645
80946W        W81810  13.462   9.730  24.382  0.0662  0.0610  0.1787
80947W        W81811  24.259  18.269  20.851 -0.1632  0.6176 -0.2227
80948W        W81812  20.973   0.721  17.587 -0.0192 -0.1363  0.2734
80949W        W81813  14.534  13.767   9.150  0.0342 -0.4474 -0.0961
80950W        W81814   7.332  21.806  24.031  0.2004 -0.0016  0.1087
80951W        W81815  13.647   8.270   8.252 -0.1677  0.2413  0.1985
80952W        W81816  24.602   1.195  26.398 -0.0696  0.1066 -0.0233
80953W        W81817   4.449  22.165  15.624 -0.0729 -0.0353 -0.0861
80954W        W81818  16.482   7.039  14.911  0.0614  0.1435 -0.1107
80955W        W81819  13.731  29.082   5.255  0.0394 -0.0223  0.0296
80956W        W81820  22.199   9.117  13.896  0.0842  0.0764  0.0045
80957W        W81821   2.914  15.018  27.956  0.1023  0.0876  0.0381
80958W        W81822  26.198  19.880  13.503 -0.0939  0.3082  0.2742
80959W        W81823  12.017  19.900  18.571 -0.0522 -0.1262 -0.0054
80960W        W81824  16.858  11.276  23.447 -0.0150 -0.1826 -0.1884
80961W        W81825   9.509  13.237   7.985  0.1647 -0.0100 -0.0131
80962W        W81826  15.453  10.214  14.430 -0.1990  0.0871 -0.1027
80963W        W81827  26.847  14.424  11.155 -0.2737  0.2544  0.3230
80964W        W81828  19.130   5.574  17.882 -0.0786 -0.2811  0.2309
80965W        W81829   9.936   9.200  12.970  0.1043  0.0200 -0.0397
80966W        W81830   0.883  16.596   5.649 -0.1660 -0.3131 -0.2588
80967W        W81831  21.748  27.881   7.757  0.1625 -0.1365 -0.1078
80968W        W81832  24.956  25.379  12.931 -0.1881 -0.0411 -0.1286
80969W        W81833  10.685   8.992  11.146  0.0997 -0.0281  0.0251
80970W        W81834  28.576  11.346  28.231 -0.2613  0.0222 -0.2728
80971W        W81835  21.214  11.083   5.846  0.0646 -0.1532 -0.2717
80972W        W81836   7.558   9.849   1.978 -0.0485 -0.0574  0.3592
80973W        W81837  17.371   6.984  16.904 -0.0420  0.2443  0.0329
80974W        W81838  16.212  11.268  16.854 -0.0871  0.1653  0.0051
80975W        W81839   9.980   5.500  26.028  0.3273 -0.2292 -0.1620
80976W        W81840  24.741  16.614  20.529  0.1554  0.0762 -0.0779
80977W        W81841   8.772  13.546   0.321 -0.1342 -0.1723 -0.2685
80978W        W81842  13.538  10.025  11.785  0.0085 -0.2959  0.0506
80979W        W81843   9.573  25.568  18.785  0.0317 -0.0517 -0.1069
80980W        W81844  17.156   6.183   9.596  0.2762 -0.3261 -0.3785
80981W        W81845  19.323  22.045   0.538  0.1589 -0.0393 -0.0636
80982W        W81846   4.024  25.984  28.155 -0.1277 -0.0819 -0.0653
80983W        W81847  27.110  13.513   5.310 -0.3658 -0.1534  0.0601
80984W        W81848  20.005   4.418  19.970  0.1055 -0.1423  0.1773
80985W        W81849  18.852   8.931  18.057 -0.0617 -0.2039  0.3869
80986W        W81850  13.730   7.170   4.092  0.1638 -0.1427  0.1069
80987W        W81851   4.201   0.796  22.447  0.0193 -0.0185 -0.1361
80988W        W81852   9.861  11.088  23.779 -0.1918  0.1113 -0.3230
80989W        W81853   5.300  10.945  11.633 -0.1517 -0.2795  0.0242
80990W        W81854  24.455  24.688   1.831 -0.0303 -0.3107  0.1392
80991W        W81855  11.105  16.958   9.607  0.1653  0.1614 -0.0886
80992W        W81856  19.734  24.372   3.404  0.3143 -0.1748 -0.0588
80993W        W81857  21.189   7.000   7.793 -0.4923 -0.1428  0.0319
80994W        W81858  12.389   9.976  18.996  0.0249  0.2649  0.0641
80995W        W81859   5.071   8.387   8.900  0.2548  0.1079 -0.0197
80996W        W81860   0.990   3.165   1.627 -0.2187 -0.0568 -0.0773
80997W        W81861  27.528  11.658  18.148 -0.0246 -0.0613 -0.1785
80998W        W81862   6.391  16.316   5.395 -0.1041  0.0196 -0.3651
80999W        W81863  25.491   5.334  27.841  0.3121 -0.1119  0.1293
81000W        W81864   7.156  24.350  22.566 -0.1334 -0.0808 -0.1261
81001W        W81865  14.111   5.983  25.924  0.1137 -0.0960  0.4755
81002W        W81866   9.416  21.587  12.660 -0.2687 -0.0173 -0.1026
81003W        W81867  23.053   6.853   9.411  0.0184  0.0398 -0.3413
81004W        W81868   7.832  28.095  26.032  0.1138  0.0896 -0.2298
81005W        W81869  17.652  11.554  16.988 -0.1352  0.2405  0.0068
81006W        W81870  18.389  13.897   5.905 -0.1190 -0.2656 -0.0368
81007W        W81871  17.311  24.283   7.995 -0.1313  0.4192 -0.1182
81008W        W81872  16.289  12.236   3.701  0.1423  0.2278 -0.1022
81009W        W81873  20.389   8.625  19.277 -0.0814 -0.3000 -0.2042
81010W        W81874   0.339   2.159  25.054  0.0321  0.1133 -0.1559
81011W        W81875   7.751  22.073  11.036 -0.0085  0.0634  0.1134
81012W        W81876  12.118   1.229  13.604 -0.1386 -0.1492 -0.2881
81013W        W81877  17.330   7.520  27.951 -0.1833 -0.3605 -0.3533
81014W        W81878   8.509  21.601  25.543 -0.0754  0.0561  0.0034
81015W        W81879  25.051   1.238  13.573 -0.0220  0.0380 -0.0372
81016W        W81880  27.815  22.339  27.857 -0.2703  0.1920 -0.3485
81017W        W81881  15.307   2.326  11.617 -0.0391 -0.0465  0.2037
81018W        W81882   8.780  10.375  17.515  0.1627 -0.0273 -0.1032
81019W        W81883  24.117  27.919  12.378 -0.0638 -0.2604 -0.0370
81020W        W81884  18.310  21.241  28.523  0.0591  0.1557 -0.0722
81021W        W81885  17.987  18.608  28.179  0.0065 -0.3057  0.1968
81022W        W81886  11.480  20.532   6.354  0.2064 -0.0522 -0.0617
81023W        W81887   2.278  16.860   8.138 -0.1767  0.2125  0.0036
81024W        W81888   5.404   0.393  13.810  0.3051  0.0571  0.1218
81025W        W81889  29.126  16.744  18.789 -0.0298 -0.0095  0.3459
81026W        W81890   4.662  22.995  17.274  0.1370 -0.1718 -0.2084
81027W        W81891  12.166   1.543   9.827 -0.2262 -0.3169 -0.1396
81028W        W81892  20.212  17.594   0.747 -0.0297 -0.0590 -0.1765
81029W        W81893  18.449   7.403   6.811 -0.4081  0.3768 -0.0656
81030W        W81894   9.187  11.103   7.270  0.0390  0.0464  0.0051
81031W        W81895   6.348   7.642  10.322  0.0856 -0.0877  0.0210
81032W        W81896  13.286   7.813  13.140 -0.1079 -0.0578 -0.0074
81033W        W81897  14.975  14.272  17.680 -0.1672 -0.2497 -0.0347
81034W        W81898   4.715  13.986  27.351  0.3095 -0.2961  0.0462
81035W        W81899   1.601  24.453  10.229 -0.0435  0.2192 -0.2477
81036W        W81900  20.997  20.082   9.897  0.0301  0.2829  0.2875
81037W        W81901  17.774   3.634  15.896 -0.1931  0.1942 -0.1400
81038W        W81902  18.885  21.672  11.244  0.0157 -0.2189  0.3942
81039W        W81903   2.166  26.423  12.160 -0.1046  0.0125 -0.1787
81040W        W81904   0.698   1.376  13.221  0.1393  0.0263 -0.1113
81041W        W81905  20.159   9.867   1.377  0.1832  0.0582 -0.1206
81042W        W81906  19.704   2.373   4.106 -0.2291 -0.1549  0.0512
81043W        W81907   0.608   4.785  25.140 -0.3071 -0.0529 -0.1940
81044W        W81908   8.928   5.706   3.993  0.0925  0.1509 -0.1796
81045W        W81909  25.818   6.478   9.193  0.0987 -0.1132 -0.2456
81046W        W81910   7.196  15.232  22.285 -0.1177  0.2848  0.1293
81047W        W81911  18.268  13.185   8.497  0.0333  0.0101 -0.0679
81048W        W81912  18.537  22.537  19.584 -0.3956 -0.0922  0.0497
81049W        W81913  11.978  27.970  20.403  0.0166  0.2215 -0.0545
81050W        W81914  18.345  23.474  15.570  0.3506  0.0934 -0.0764
81051W        W81915  11.911   1.372   9.421 -0.0552 -0.2976  0.4419
81052W        W81916  23.860   3.716   9.777 -0.1715 -0.0503 -0.0548
81053W        W81917   5.398  12.013  23.059 -0.2276  0.5016  0.4834
81054W        W81918   6.357  15.349  26.714  0.1224  0.1192 -0.2959
81055W        W81919  10.593  23.688  15.793 -0.1809 -0.1017  0.1944
81056W        W81920   9.356   0.901  22.841 -0.2307 -0.2776 -0.0693
81057W        W81921  14.043   7.696  14.784 -0.2679  0.2288  0.3742
81058W        W81922  18.433  15.705  17.898 -0.0220 -0.1921  0.1907
81059W        W81923  21.458   2.215   3.211 -0.3606 -0.3672 -0.0979
81060W        W81924   5.530  27.313   1.575  0.0719 -0.0475  0.0840
81061W        W81925  25.751  11.996   9.845  0.0553  0.0208  0.0922
81062W        W81926  11.915  15.544   1.123  0.0477  0.1585  0.1054
81063W        W81927   6.301   7.867   8.998  0.0703  0.2526  0.2918
81064W        W81928  16.539  25.096   5.198  0.1635 -0.0963  0.0630
81065W        W81929   1.012  22.966  19.313 -0.0093 -0.1806  0.1552
81066W        W81930  16.579  15.088   8.954  0.1225  0.0809 -0.2467
81067W        W81931   1.986  12.126   6.124 -0.0426 -0.1269 -0.2226
81068W        W81932  17.373   7.599  17.780  0.0164  0.0863  0.0632
81069W        W81933  10.134   4.580   3.140  0.1252  0.2868 -0.0679
81070W        W81934  13.440   3.802   4.875 -0.0769  0.0365 -0.0848
81071W        W81935  26.142  15.287   0.984 -0.1469  0.1004  0.0163
81072W        W81936  27.399  10.021  13.472 -0.0500  0.0689  0.1093
81073W        W81937  23.491  18.446  28.605  0.1207 -0.1363  0.1575
81074W        W81938  19.542   8.134   1.849 -0.0051  0.0452  0.1222
81075W        W81939  15.077   0.058  22.747 -0.2339  0.2236  0.0160
81076W        W81940  18.174  12.725   8.578 -0.0847  0.2456 -0.0905
81077W        W81941   7.774  10.908  16.712 -0.0890 -0.0996  0.0201
81078W        W81942   1.912   3.320  29.134  0.1252  0.2633  0.0481
81079W        W81943   5.517   0.965  15.783 -0.0405 -0.1724 -0.0104
81080W        W81944  21.818  13.293  18.648 -0.2488  0.0746  0.0908
81081W        W81945  28.881   0.683  20.790 -0.1866  0.1307  0.1214
81082W        W81946  20.941  12.224  12.936  0.2568 -0.3021  0.1379
81083W        W81947   2.328  17.676  28.764 -0.1446  0.0692  0.2938
81084W        W81948   8.594   9.522  11.913 -0.1885  0.0877  0.0955
81085W        W81949  16.690  10.971  10.373 -0.2616 -0.0223  0.1458
81086W        W81950  19.225  21.907  20.729  0.2096  0.3228  0.1378
81087W        W81951  26.063  21.845  20.985 -0.1149 -0.1598 -0.0244
81088W        W81952  12.921  21.428  28.470 -0.1375  0.0270  0.0093
81089W        W81953  24.960   3.209  17.176  0.1387  0.0579  0.0424
81090W        W81954   6.832  15.837   1.950 -0.1913  0.0570 -0.3228
81091W        W81955  24.640  17.189  28.311  0.1595 -0.1870  0.0976
81092W        W81956  16.063  10.476   6.009 -0.0857  0.2692 -0.1838
81093W        W81957   9.807   0.955   3.912 -0.1775  0.0626  0.1901
81094W        W81958   4.953   2.211  14.912  0.0858 -0.0690 -0.0738
81095W        W81959  10.995  25.553   2.757  0.0181 -0.0736 -0.0953
81096W        W81960  16.758   9.681   5.325 -0.1099  0.1052 -0.0655
81097W        W81961  15.974  28.935  20.001  0.0819  0.1134 -0.0326
81098W        W81962  12.971  10.700  28.931  0.0959  0.4567  0.3006
81099W        W81963  11.530   4.483   9.132 -0.2552  0.0722 -0.2021
81100W        W81964   1.129  23.498  28.860 -0.1502 -0.1897  0.0406
81101W        W81965  11.578  10.607   0.990  0.0037 -0.1621  0.0860
81102W        W81966  14.790   7.380  15.494 -0.0820  0.1701 -0.0807
81103W        W81967  22.061  12.399  28.683  0.1593  0.1786  0.0760
81104W        W81968   7.347   8.646  15.327 -0.1006  0.2998 -0.1329
81105W        W81969  18.836   7.139  18.397  0.1098  0.0715 -0.2082
81106W        W81970  15.151  25.980  23.052  0.0833  0.2430 -0.0776
81107W        W81971  16.348   3.408  25.732 -0.3351 -0.3866  0.0077
81108W        W81972  24.258  12.811   0.062  0.1764 -0.0204  0.1351
81109W        W81973   9.719   6.980  19.996  0.1047  0.0111 -0.0840
81110W        W81974   0.587   7.473  11.629  0.1194 -0.0055 -0.1571
81111W        W81975  24.069   0.614  15.690  0.0752  0.1192 -0.1639
81112W        W81976   2.514  12.591  10.114  0.3837 -0.0809  0.2265
81113W        W81977  15.411  11.266  25.998  0.1905 -0.2241 -0.0106
81114W        W81978   0.865  11.814   2.342 -0.0544  0.2591 -0.1340
81115W        W81979  17.888   8.600  20.212  0.1431  0.2111  0.1611
81116W        W81980   1.534   4.053   5.086  0.0297 -0.1097  0.0326
81117W        W81981   0.874  26.797  28.508  0.3940  0.1985 -0.0456
81118W        W81982  17.728  13.812  18.939  0.1958 -0.2843 -0.0030
81119W        W81983  18.655   9.192   7.106 -0.1795  0.0673 -0.1788
81120W        W81984  19.439  22.993  26.952  0.1337 -0.0655 -0.2363
81121W        W81985  16.942  15.648   6.397 -0.0224 -0.1541 -0.0146
81122W        W81986  11.356  10.755  23.599 -0.2214 -0.0552 -0.2083
81123W        W81987  18.174  23.824   3.023  0.2839 -0.1182  0.0061
81124W        W81988   9.110  15.073  20.445 -0.0235  0.1229 -0.2688
81125W        W81989  24.885   2.961   8.998 -0.1541 -0.0170  0.2994
81126W        W81990   8.074  25.034   0.369 -0.1549  0.1084 -0.0626
81127W        W81991  17.593   0.252  14.918 -0.1839  0.1122  0.0956
81128W        W81992  22.725  24.283   1.297 -0.1645 -0.1173  0.2029
81129W        W81993  10.508   0.858   6.633 -0.0714 -0.1117 -0.0843
81130W        W81994  10.485   9.537   3.400  0.0752  0.0291  0.1254
81131W        W81995   8.651  19.180  20.407  0.0474 -0.2292 -0.4459
81132W        W81996  11.259   2.216   8.474  0.0005 -0.0113  0.0491
81133W        W81997  14.550  29.126  15.924  0.1082 -0.1951 -0.0726
81134W        W81998  20.478  23.261  28.029 -0.0523  0.1224  0.0024
81135W        W81999   3.180  12.466  18.811  0.0786 -0.2071  0.1526
81136W        W82000   9.202  27.961   4.944 -0.0424  0.0310  0.1580
81137W        W82001   3.805   3.467  26.094  0.0006  0.0761  0.1071
81138W        W82002   6.553  22.048  16.376 -0.3257  0.3289 -0.1097
81139W        W82003  28.762  24.653  18.619 -0.1211  0.1244  0.0435
81140W        W82004  12.042   2.742  19.195  0.0311  0.2761  0.1298
81141W        W82005  10.772   7.509  24.885  0.0618  0.1831  0.7097
81142W        W82006  11.679   6.213  19.517 -0.3180 -0.0385 -0.1161
81143W        W82007   7.237  16.533  13.586  0.4914  0.0095  0.2526
81144W        W82008  12.069   6.002   5.644  0.2422 -0.0573 -0.1679
81145W        W82009  11.019   4.715   3.469 -0.2470 -0.0893 -0.0338
81146W        W82010   9.669   1.030   9.281 -0.0788  0.1860 -0.1236
81147W        W82011  17.243  16.765  14.233 -0.1313  0.1455  0.3580
81148W        W82012   8.868  16.300  14.518 -0.0612 -0.1302  0.3334
81149W        W82013   1.410   3.604  18.300  0.0714  0.1140  0.0571
81150W        W82014  10.098  15.018   1.565  0.0513 -0.0367  0.0064
81151W        W82015   7.118  17.117  28.877 -0.2669  0.0096  0.0042
81152W        W82016   4.407   9.082   6.889  0.2716 -0.0587 -0.2426
81153W        W82017  16.075  13.269  24.277 -0.2412 -0.0411 -0.1749
81154W        W82018   5.630   9.665  12.817 -0.7980 -0.1153 -0.0552
81155W        W82019   8.345  16.446   2.639 -0.0619 -0.1421  0.1644
81156W        W82020  11.779  11.619   9.270 -0.0704 -0.2794  0.1889
81157W        W82021   5.998  26.635   8.342 -0.1053  0.2625 -0.0019
81158W        W82022  18.414  12.536  15.761  0.1740  0.0386 -0.5627
81159W        W82023  22.632   7.020   0.201 -0.0396 -0.3118 -0.0637
81160W        W82024   4.321   6.276  16.722 -0.0142  0.1443 -0.2399
81161W        W82025   9.954   8.917   3.944 -0.1268 -0.1987  0.1609
81162W        W82026  18.332  26.732   2.803 -0.1217  0.1261 -0.0145
81163W        W82027   0.778  13.773  17.646  0.1050 -0.0079  0.2009
81164W        W82028   8.065  21.365  19.497 -0.1694 -0.0144 -0.1240
81165W        W82029   7.308   0.336  10.711  0.0654  0.1207  0.0644
81166W        W82030  23.911   0.420  25.295  0.2827 -0.1023 -0.0205
81167W        W82031  27.710  24.309   9.016  0.0461 -0.1792  0.3434
81168W        W82032  13.115  24.305  27.856 -0.1789  0.0507 -0.1476
81169W        W82033  18.243  22.891   4.444 -0.1217  0.2204  0.0412
81170W        W82034  23.482  24.171   9.760  0.3587  0.1987  0.0310
81171W        W82035  14.134   3.092   1.504  0.0853 -0.1549  0.2702
81172W        W82036   9.518  23.651  15.373 -0.3715 -0.3212 -0.0218
81173W        W82037  21.771   4.374   9.945 -0.2036 -0.0444  0.0759
81174W        W82038  24.961   7.195   8.871 -0.0140  0.0810 -0.0574
81175W        W82039   4.631   0.964   0.732 -0.3106  0.0664 -0.2030
81176W        W82040  13.677  14.297  11.374 -0.1066  0.0025  0.2115
81177W        W82041  11.230   1.501   6.999 -0.3782 -0.0546 -0.1677
81178W        W82042   7.248   4.887  19.502  0.0864  0.1647 -0.1430
81179W        W82043   7.208  26.723  15.868 -0.2922  0.0574  0.0339
81180W        W82044   5.674  18.655   9.276 -0.1003  0.2530 -0.1844
81181W        W82045  19.259  26.999   4.056  0.2410 -0.1208  0.0587
81182W        W82046   5.328  20.300  24.715  0.1305 -0.0287  0.0464
81183W        W82047   6.879  16.366  23.022 -0.2105 -0.0010 -0.0300
81184W        W82048  25.705  14.575  20.050 -0.0116 -0.0393 -0.5639
81185W        W82049  18.365   5.818  13.518 -0.3499 -0.4747  0.1165
81186W        W82050   1.188   0.150  18.410  0.0023 -0.2470  0.1579
81187W        W82051  15.740  11.898  21.182 -0.2696 -0.3243 -0.0582
81188W        W82052  26.449  16.879   6.916  0.2246 -0.3713  0.1510
81189W        W82053  24.855  20.908  15.138  0.1218 -0.0763 -0.0382
81190W        W82054  10.323  19.016   5.040  0.2452 -0.1319 -0.1661
81191W        W82055  11.268  23.850   5.993 -0.4350  0.1459 -0.0823
81192W        W82056  28.494  29.070  14.963  0.0046 -0.3036 -0.2239
81193W        W82057  11.232  26.947   4.965 -0.1383  0.0591  0.0664
81194W        W82058   4.117  24.314  20.712  0.2930 -0.0944  0.0484
81195W        W82059  18.199  28.875  12.534  0.0294  0.1198 -0.1187
81196W        W82060  27.042  16.499  17.994  0.3558 -0.0051 -0.0168
81197W        W82061   7.874   8.531   0.355 -0.0059  0.1671  0.1500
81198W        W82062  24.941   6.152   6.936 -0.0982 -0.2083 -0.2745
81199W        W82063  13.221  15.832   6.821 -0.0061  0.2872 -0.2248
81200W        W82064  10.910   1.525   9.045  0.0872 -0.1816 -0.0107
81201W        W82065  10.470  24.935  11.370 -0.2887 -0.1182 -0.0379
81202W        W82066  20.038   9.018  22.922  0.0989  0.1595  0.0729
81203W        W82067  16.559  23.147   0.947  0.2379 -0.1778 -0.0230
81204W        W82068  21.231  15.318   6.278  0.1340  0.2422 -0.1518
81205W        W82069  20.460  13.446  22.262  0.0367  0.0814  0.0300
81206W        W82070   9.261   2.577  11.035  0.3042  0.1985  0.2344
81207W        W82071  12.856   9.734  14.385  0.0440  0.0764  0.1061
81208W        W82072   8.495  27.789  12.841 -0.1968 -0.1820  0.2286
81209W        W82073  27.363   6.438   3.220  0.1438 -0.4242  0.3639
81210W        W82074  12.048   1.962  24.663  0.5251  0.3936  0.1198
81211W        W82075  17.402   0.780  22.344  0.0456  0.2151 -0.1735
81212W        W82076  11.980   1.483  17.260  0.2114 -0.0642 -0.5804
81213W        W82077  12.325  21.301  25.836 -0.0344 -0.1765  0.0698
81214W        W82078   6.444  25.868   3.458  0.2594  0.2688 -0.0635
81215W        W82079   1.382  18.687   7.703 -0.0009  0.1816  0.0289
81216W        W82080  28.940  22.022   7.207  0.2259 -0.2734  0.0268
81217W        W82081  17.270   7.868   5.029 -0.2153 -0.1422 -0.0130
81218W        W82082   0.303  12.482  23.058  0.0649  0.0082 -0.0250
81219W        W82083   9.700  23.990   9.883 -0.0711 -0.0366  0.2479
81220W        W82084  15.196  28.847   8.591  0.0968  0.1161 -0.1120
81221W        W82085  10.285  26.524   6.731 -0.0042 -0.3007  0.1245
81222W        W82086  20.580  18.047   3.765 -0.0820  0.0105  0.2961
81223W        W82087  24.651  15.656  24.043  0.1504  0.0047 -0.5305
81224W        W82088  11.844  16.240   6.153  0.3346  0.0082  0.2028
81225W        W82089  19.765   6.382  18.859  0.1105  0.1253 -0.1237
81226W        W82090  20.426  26.874   2.913 -0.0946 -0.1986  0.2498
81227W        W82091   9.333  26.868  18.316 -0.0503  0.0379  0.3721
81228W        W82092  15.253  27.442  18.679 -0.5413 -0.1168  0.0666
81229W        W82093  23.076  27.866   4.310 -0.2222  0.0757 -0.0974
81230W        W82094  13.448   9.919   1.724  0.2557 -0.0617 -0.0363
81231W        W82095   4.262  15.921   9.730  0.1287  0.0884 -0.1902
81232W        W82096   3.124  14.106  13.411 -0.0725 -0.0663 -0.1986
81233W        W82097  25.012  24.503  27.288  0.0144  0.2258 -0.3129
81234W        W82098   9.461  20.541  15.129  0.1325  0.2032  0.3127
81235W        W82099  21.917  26.067   6.562 -0.0902  0.0722 -0.0687
81236W        W82100  13.732   8.727  18.638 -0.1774 -0.0861  0.0288
81237W        W82101  14.161  17.910   7.400  0.0495 -0.0045  0.4461
81238W        W82102   4.439  22.288   7.039  0.3200  0.1327  0.0758
81239W        W82103  14.093  10.584   9.859 -0.1849  0.2039 -0.3918
81240W        W82104  17.502   1.886  21.489  0.2458 -0.1389 -0.1369
81241W        W82105  16.872  14.684   2.281  0.1671  0.1310  0.0928
81242W        W82106  24.023   7.849  26.796 -0.3038  0.0809 -0.2050
81243W        W82107  14.401   7.145  19.395 -0.0128  0.1598  0.0456
81244W        W82108  11.884  14.338   0.146 -0.1290  0.2295  0.1779
81245W        W82109  10.939  28.428  10.835 -0.2292 -0.1140 -0.5448
81246W        W82110  23.142   1.343   0.297  0.0161  0.0372 -0.2877
81247W        W82111  20.202  17.896   1.313 -0.1286 -0.2077  0.0928
81248W        W82112   8.033  22.601   6.603  0.0674  0.0357 -0.0810
81249W        W82113  10.558   9.328  13.136  0.2239 -0.3873 -0.0728
81250W        W82114  13.160  19.203  14.465  0.2234 -0.0227 -0.3220
81251W        W82115  12.518  13.243  22.625  0.0381  0.3864  0.2759
81252W        W82116   3.624  28.161   2.808  0.1926  0.2458 -0.2877
81253W        W82117  22.284   2.825   2.092 -0.1012  0.1412 -0.0196
81254W        W82118  20.344  26.412  28.352 -0.1142 -0.0298  0.2871
81255W        W82119  19.979   5.617  16.067 -0.3055 -0.1415  0.0607
81256W        W82120  27.918   5.925  16.207  0.2702  0.0500  0.0504
81257W        W82121   9.068   7.232  12.703 -0.0278  0.1661  0.1748
81258W        W82122  14.410   3.280   9.326 -0.0175 -0.1752  0.1758
81259W        W82123  26.050  16.842   2.342 -0.1699  0.2339 -0.1578
81260W        W82124  28.364   7.631  16.018  0.0316 -0.1549 -0.1175
81261W        W82125  24.398   8.848  21.944 -0.2782 -0.0468  0.2241
81262W        W82126  13.583   4.797  25.418 -0.3087 -0.1532 -0.1449
81263W        W82127   2.259   9.484   1.997  0.1305  0.1765  0.0013
81264W        W82128  10.537  25.008   5.884 -0.1665  0.0254  0.3609
81265W        W82129  13.813  18.537   0.348  0.0665 -0.0462 -0.2119
81266W        W82130  27.503  10.459   9.786  0.1032  0.2919  0.2280
81267W        W82131   5.611  28.176   2.928  0.1222 -0.0955  0.2504
81268W        W82132  19.026   9.226  14.944 -0.2551  0.0168  0.2470
81269W        W82133  19.437   0.073  27.039 -0.1374  0.0570 -0.1610
81270W        W82134   9.706  12.288  13.509 -0.0579 -0.2515 -0.0157
81271W        W82135  18.096  15.798  10.563 -0.1097 -0.1516  0.0668
81272W        W82136   4.706  15.339   8.473 -0.0849  0.2424 -0.1306
81273W        W82137   0.100  13.547   0.235 -0.3655 -0.1108  0.0577
81274W        W82138  25.714  18.357   7.801 -0.1985  0.0022  0.0182
81275W        W82139   9.501   0.728  10.236 -0.1116 -0.0850  0.2249
81276W        W82140  27.209  14.924  27.952 -0.0025 -0.0561 -0.0537
81277W        W82141   2.397  19.594  19.827  0.1470  0.1603  0.0065
81278W        W82142  26.545  13.521   2.546 -0.0475 -0.2081 -0.1114
81279W        W82143  18.319  20.022   3.737 -0.0069 -0.0087  0.0348
81280W        W82144  20.765  27.749  16.872 -0.0308  0.2262 -0.2111
81281W        W82145  13.740   8.958   8.509  0.1448 -0.1743 -0.0251
81282W        W82146  17.226  28.381  11.349 -0.0812  0.2496  0.1147
81283W        W82147  16.611   5.633   2.950 -0.1979 -0.0111  0.0993
81284W        W82148  10.562  11.087   5.005  0.0190  0.0496  0.3922
81285W        W82149  27.110  14.197  28.487 -0.0965 -0.1181 -0.1756
81286W        W82150  13.023  22.165   7.073  0.0948 -0.0454  0.1412
81287W        W82151   0.344   6.576  18.753 -0.1517  0.1094 -0.0320
81288W        W82152  25.132  25.890  23.587 -0.1805 -0.0478 -0.0709
81289W        W82153  25.931  22.685  19.926  0.0962 -0.1205 -0.0233
81290W        W82154  24.341   7.394  19.970 -0.2739 -0.1286  0.0770
81291W        W82155   9.976  25.451   5.492 -0.0304 -0.0215 -0.0182
81292W        W82156  23.130  27.186   9.589 -0.2185 -0.3965  0.1575
81293W        W82157  18.647  25.520  11.304  0.1689  0.0938  0.0656
81294W        W82158  20.479  11.613   1.279  0.1801 -0.2139  0.2369
81295W        W82159   8.011   2.150  28.360 -0.1125  0.0934 -0.0161
81296W        W82160  22.309   0.618   5.344 -0.1607 -0.0429  0.3755
81297W        W82161  20.977   1.773  19.571  0.1986 -0.0499 -0.4379
81298W        W82162  20.933   0.906   3.168  0.0778  0.2382 -0.0204
81299W        W82163  24.562   1.628  19.054 -0.0297  0.0081  0.0291
81300W        W82164  23.040   1.205  20.009 -0.2319 -0.0895 -0.1016
81301W        W82165   8.581  14.050  28.240 -0.1724 -0.1626 -0.0577
81302W        W82166  10.160  29.001  16.625 -0.1483 -0.2507  0.0659
81303W        W82167  19.538  21.749  12.537 -0.0057 -0.1050 -0.0788
81304W        W82168  19.966   9.633   3.243  0.1501  0.2259  0.0380
81305W        W82169  25.535  24.789   6.373 -0.0121  0.2540 -0.0241
81306W        W82170  22.769  15.200  10.035  0.1621 -0.1197  0.0958
81307W        W82171  23.465  11.539  13.076 -0.0194 -0.3086 -0.2855
81308W        W82172  17.226   9.076  27.920  0.3513 -0.0362 -0.2628
81309W        W82173  20.933  21.379   7.564  0.2538 -0.2396 -0.0177
81310W        W82174   8.812   3.564  16.232 -0.0711 -0.1364  0.1911
81311W        W82175   2.713  16.305  12.020  0.0524  0.1216 -0.0496
81312W        W82176  15.683   3.169   1.115 -0.2453  0.1553 -0.1898
81313W        W82177  15.101  10.507  22.387  0.3979 -0.2032  0.3151
81314W        W82178   7.909  16.413  26.530  0.0999 -0.1475 -0.1253
81315W        W82179  29.122  16.680   5.267 -0.1766  0.1495  0.1728
81316W        W82180   4.115  23.643   1.428 -0.1470 -0.1535 -0.0224
81317W        W82181  16.529   5.076  10.979 -0.1396 -0.1797  0.2876
81318W        W82182  24.542  26.939   3.917 -0.1884  0.1807 -0.1898
81319W        W82183  17.391   9.625  24.740 -0.0865  0.0155  0.0010
81320W        W82184   5.443  27.320  21.217  0.0345 -0.2430  0.1710
81321W        W82185   0.097  27.401  20.048 -0.1994 -0.1646 -0.2101
81322W        W82186  20.803  19.080  23.905 -0.0872  0.0593 -0.2437
81323W        W82187  24.307  17.415  21.220 -0.0687 -0.0240 -0.2798
81324W        W82188  15.029  21.225  20.104  0.1550  0.0702  0.0602
81325W        W82189   7.692  12.982  15.058  0.2977 -0.0037 -0.1060
81326W        W82190  16.479   7.423  16.964  0.1309 -0.0688  0.1118
81327W        W82191   5.192  24.907  25.819  0.3985 -0.2651  0.1448
81328W        W82192  15.491   0.025  12.620  0.3428  0.0978 -0.0390
81329W        W82193  24.807  28.489  20.238  0.1266  0.1015  0.3768
81330W        W82194  24.465   5.335   2.988  0.1508  0.0342 -0.2843
81331W        W82195  11.415   0.798   7.590  0.2556  0.2376 -0.0090
81332W        W82196  19.906  16.252  21.260 -0.2092 -0.1191  0.3422
81333W        W82197  25.500  16.019   0.700  0.2878  0.2149 -0.2126
81334W        W82198  17.310   3.855   4.017 -0.2043 -0.2683  0.0506
81335W        W82199   9.405   4.212  11.676 -0.3637  0.2479  0.1252
81336W        W82200   7.273  18.079   7.005  0.2667 -0.0740 -0.0997
81337W        W82201  15.449   8.994  19.298 -0.0270  0.2885 -0.1555
81338W        W82202  16.881   3.115  10.292 -0.2606  0.0796  0.0166
81339W        W82203  17.963  17.391  12.666 -0.0494 -0.1633  0.0046
81340W        W82204  17.861  10.426  10.102 -0.1721 -0.0351 -0.3729
81341W        W82205  13.644  24.026  23.933  0.1947  0.1151 -0.1936
81342W        W82206  18.272  12.088   6.901 -0.1345 -0.0612 -0.0196
81343W        W82207  21.584  14.098  28.975  0.4201 -0.3050 -0.3304
81344W        W82208   5.632   1.586   3.237  0.1030 -0.3530 -0.1115
81345W        W82209  12.049  11.473  26.445  0.0918 -0.3372  0.2310
81346W        W82210   6.737  15.037   5.659  0.0249 -0.1772  0.1924
81347W        W82211  15.210  19.290  21.210  0.0203  0.0083  0.0749
81348W        W82212   3.805  10.839  11.605 -0.3376 -0.2013 -0.4500
81349W        W82213  17.309  24.361  18.565  0.0243  0.1518 -0.0899
81350W        W82214   4.894  28.988   1.661 -0.2585  0.2320 -0.0233
81351W        W82215  23.911  17.079   2.606  0.2186  0.1551 -0.2930
81352W        W82216   4.824  28.655   4.854 -0.1928 -0.0162 -0.2170
81353W        W82217  11.441  13.489  27.684 -0.1203  0.2605 -0.2335
81354W        W82218  19.991   7.172  13.885 -0.1496  0.0032 -0.2030
81355W        W82219  28.718  20.248  23.250  0.1624  0.2435  0.0924
81356W        W82220   0.978   9.037   2.740  0.0160  0.2032 -0.1824
81357W        W82221  12.989  20.211  22.517 -0.0536 -0.0155 -0.1465
81358W        W82222  24.885   8.113   7.273  0.1920 -0.1769 -0.2625
81359W        W82223  26.271  29.023   2.336  0.1402 -0.2577  0.0883
81360W        W82224  20.561   7.222  14.724 -0.4505  0.3608 -0.0278
81361W        W82225  21.853   5.310   6.247  0.3412 -0.1211 -0.0058
81362W        W82226   1.018   6.745  12.641 -0.1427  0.0576 -0.2625
81363W        W82227  25.391  23.136   9.250 -0.0247 -0.0297  0.0533
81364W        W82228  11.273  10.388  15.720 -0.0476 -0.1829  0.1922
81365W        W82229   0.210  28.504   0.134 -0.1550 -0.0891  0.2896
81366W        W82230  22.242   9.942  22.611 -0.0589  0.0908 -0.5688
81367W        W82231   5.728  28.124   2.098 -0.0981 -0.2996  0.0569
81368W        W82232   4.799  10.099  12.043 -0.2563  0.3269 -0.3395
81369W        W82233  11.719  24.732   3.521  0.0404  0.0604 -0.3423
81370W        W82234   5.201  14.988   7.234 -0.2778  0.0635  0.1438
81371W        W82235  13.305   8.025  26.467  0.1270  0.2145 -0.2715
81372W        W82236   5.200   5.867  22.598 -0.0609  0.0098  0.0540
81373W        W82237   8.979   5.210   4.882  0.0936  0.2396  0.2607
81374W        W82238   7.282  25.566   4.864  0.1539  0.1187  0.0047
81375W        W82239  14.794  15.389  23.161 -0.3471  0.0420  0.0975
81376W        W82240  10.238  13.372  12.899 -0.1252 -0.1208 -0.1152
81377W        W82241  18.927   7.687  13.443 -0.0836  0.1356 -0.3121
81378W        W82242  26.665   3.219  12.849 -0.1690 -0.2832 -0.0425
81379W        W82243  15.217  15.464  21.912 -0.1445  0.2520  0.0929
81380W        W82244  10.714  10.499  18.862 -0.0833  0.1291  0.0434
81381W        W82245  13.236   9.203  13.125 -0.1643  0.1039  0.0044
81382W        W82246   8.925  26.125  23.304  0.0619  0.0424  0.2590
81383W        W82247  24.670  25.174  17.674  0.1635 -0.0154 -0.3209
81384W        W82248  28.218  22.942   3.464 -0.2003 -0.1199  0.0061
81385W        W82249  17.383   1.059  27.707  0.1688 -0.0352  0.1790
81386W        W82250   0.523  11.377  15.667  0.0085  0.0195  0.1458
81387W        W82251  15.873   7.906  17.420  0.0692 -0.1321 -0.1114
81388W        W82252  16.048   1.765   7.988 -0.0954 -0.1742 -0.2767
81389W        W82253  17.380  10.822  27.603 -0.0353 -0.2001 -0.3884
81390W        W82254  11.807  12.914  12.695 -0.1890  0.1054  0.2084
81391W        W82255  27.325   4.431  16.844 -0.2250  0.0458  0.0347
81392W        W82256   0.712  25.688  16.517 -0.0800  0.0150 -0.1257
81393W        W82257  25.137   7.903  24.197  0.1493 -0.0817 -0.0873
81394W        W82258   0.700  16.239  18.591 -0.0755  0.0412 -0.2314
81395W        W82259  22.979   7.713  14.795  0.3670 -0.1433 -0.0006
81396W        W82260  26.577   5.210  18.360 -0.2206  0.2893 -0.0062
81397W        W82261  23.971   1.369  11.658  0.1642 -0.1166  0.2201
81398W        W82262  22.179  20.327  15.734  0.2068  0.0080  0.1993
81399W        W82263   7.069   3.422  28.559 -0.3396 -0.1103  0.2564
81400W        W82264  13.438  20.818   6.329 -0.2170  0.1036 -0.0665
81401W        W82265   7.631  28.743  21.693  0.0714  0.0014  0.0563
81402W        W82266   1.268   1.013  10.286 -0.0268  0.1922 -0.1088
81403W        W82267  12.947   8.149  15.400 -0.0797  0.0478  0.0481
81404W        W82268  18.806  13.287  17.441  0.3461 -0.0703  0.0129
81405W        W82269  20.702  27.233   3.060  0.3125 -0.0466 -0.1440
81406W        W82270   2.488   0.479  16.151 -0.1534 -0.0031  0.0883
81407W        W82271  17.477   4.230   5.630  0.1457 -0.1185 -0.1683
81408W        W82272  10.109  22.185  17.920  0.0836 -0.5717  0.0798
81409W        W82273  16.401  21.042  11.868 -0.1163 -0.0647  0.0934
81410W        W82274  10.160  15.411  18.018 -0.0253  0.1368  0.1247
81411W        W82275   7.002  24.284   8.257 -0.1266 -0.0830 -0.2296
81412W        W82276   2.604  28.786  19.158  0.1904  0.1883  0.0222
81413W        W82277   2.499   2.363  10.299  0.0067 -0.0164  0.1837
81414W        W82278  27.392   1.198  18.112  0.0387  0.4997 -0.3453
81415W        W82279  18.426  25.656  11.768  0.0894 -0.0713  0.0065
81416W        W82280  17.794  28.396  22.639  0.1013 -0.0555  0.1297
81417W        W82281  13.433   6.289  17.314  0.0226 -0.0178 -0.3638
81418W        W82282   6.479  10.709  27.427 -0.1646 -0.0150  0.1281
81419W        W82283  21.187   8.663  21.350 -0.1142  0.0740  0.0784
81420W        W82284  21.930   3.454  22.716 -0.0172  0.2429 -0.0164
81421W        W82285  14.936  15.503   9.533 -0.1327  0.1233 -0.0438
81422W        W82286  19.751  12.191  17.326  0.3469 -0.2099 -0.1625
81423W        W82287  13.950   8.174   7.524 -0.1779  0.2873 -0.0181
81424W        W82288   3.588  22.048  16.193  0.3475  0.0415 -0.0805
81425W        W82289  17.977  11.206   4.434 -0.2365 -0.0147 -0.2229
81426W        W82290  17.885  21.917  17.918  0.0674  0.2256  0.1901
81427W        W82291  13.133   9.617  15.515  0.1601  0.4001 -0.1914
81428W        W82292  18.728   7.785   0.800  0.0329  0.4093  0.2150
81429W        W82293  14.119  27.068   9.110 -0.0709  0.0264  0.3489
81430W        W82294   9.835  15.525  16.874 -0.4771  0.0158 -0.0249
81431W        W82295   9.394   2.550  23.071  0.0311  0.0423 -0.0584
81432W        W82296  19.710   4.640  24.218  0.0082  0.1511  0.0175
81433W        W82297  22.929   2.889  24.513  0.0842 -0.1418 -0.0469
81434W        W82298  23.935  13.574   2.735 -0.3494 -0.3000 -0.0121
81435W        W82299  16.543   2.740  13.831 -0.0375  0.0852  0.4220
81436W        W82300   8.611  24.221  11.482  0.3298 -0.0763  0.2887
81437W        W82301  25.676  26.861  11.476  0.1487 -0.0904  0.1695
81438W        W82302  20.230   0.314  23.946 -0.0445 -0.1662 -0.0918
81439W        W82303  10.988   9.100   2.554 -0.0265 -0.0759  0.0479
81440W        W82304  16.035  12.821  23.988  0.3330  0.1587  0.0196
81441W        W82305   7.597   0.342   7.939 -0.0928 -0.1124  0.4517
81442W        W82306  18.395   3.039  15.589  0.1464 -0.0750 -0.3145
81443W        W82307   7.607   5.586   4.823 -0.0111  0.2719  0.0490
81444W        W82308  12.669   6.110  22.517 -0.0634 -0.0520 -0.1839
81445W        W82309   7.322  25.333  19.988 -0.0790 -0.1376 -0.2175
81446W        W82310   9.572  15.177  15.704 -0.1161 -0.0225 -0.0463
81447W        W82311  19.640  12.259  15.259 -0.4845 -0.0376  0.1770
81448W        W82312  12.045  28.748   6.914  0.4078  0.1176  0.0054
81449W        W82313  23.540   8.949  18.004 -0.2311 -0.1368  0.0494
81450W        W82314  12.708  16.602  27.187  0.0071  0.0607 -0.0164
81451W        W82315  18.541  26.433  27.382  0.2206  0.0408 -0.1621
81452W        W82316  11.902  26.580  15.886 -0.1745 -0.3433  0.5596
81453W        W82317  18.854   4.240  18.080  0.0358  0.2059 -0.2214
81454W        W82318   4.604  14.955  23.370  0.0875  0.2994  0.1915
81455W        W82319   2.778  26.268  11.366  0.0076 -0.0030 -0.3258
81456W        W82320  22.400   5.413   6.738 -0.0628 -0.0564  0.1443
81457W        W82321  13.038   8.996  21.944 -0.1276 -0.0989 -0.2301
81458W        W82322  16.024   2.451   2.284  0.1942  0.0328  0.0924
81459W        W82323  15.068   0.959  14.497  0.2787 -0.2159  0.0834
81460W        W82324  25.274  14.186  15.146  0.1403  0.2326 -0.2368
81461W        W82325   6.763  20.121   1.299 -0.0095  0.2182 -0.2616
81462W        W82326  14.023   2.054   2.084  0.0332  0.0428 -0.3429
81463W        W82327   8.135  16.997  14.978  0.1244  0.3000  0.2377
81464W        W82328   6.207  22.283  17.560  0.1873 -0.0291 -0.0542
81465W        W82329  21.425  21.618  16.130 -0.0833 -0.0421  0.1380
81466W        W82330  13.551   9.235  14.640  0.0134  0.1381 -0.2810
81467W        W82331  17.923   1.142   3.569 -0.2661 -0.3387 -0.3404
81468W        W82332  11.881  28.534  16.611  0.0586 -0.1441 -0.1448
81469W        W82333  16.678  16.608  28.941 -0.1728  0.1769  0.0851
81470W        W82334  22.271  21.045  14.298 -0.0554  0.1633  0.1327
81471W        W82335   2.157   4.552  21.333  0.2418  0.0082  0.1480
81472W        W82336  10.238   3.222   2.410  0.2129  0.1847 -0.0156
81473W        W82337  25.703  11.789   6.155 -0.1288  0.1407  0.0860
81474W        W82338   2.849  28.341   9.161 -0.2476 -0.1171  0.0765
81475W        W82339  15.151  28.107  27.322 -0.4865 -0.0164  0.1098
81476W        W82340  10.857  11.902  16.844 -0.0343 -0.0003  0.0613
81477W        W82341  15.716  17.665  16.986 -0.2403  0.2297  0.5423
81478W        W82342  17.362  16.164  19.633 -0.1441  0.0868 -0.0171
81479W        W82343  18.598  18.935  24.190 -0.0890 -0.0686 -0.0660
81480W        W82344  10.709   2.831  24.173  0.1273 -0.2722  0.0947
81481W        W82345  14.778  28.264  17.028 -0.1185  0.0990  0.1362
81482W        W82346  18.964   1.661  29.064  0.5011 -0.1347  0.2936
81483W        W82347  10.719   8.534  17.129 -0.2110  0.0999 -0.1103
81484W        W82348  25.810   9.497  13.073  0.2633 -0.1754  0.3984
81485W        W82349  14.938  24.904  13.662 -0.2245  0.0592  0.0482
81486W        W82350  20.365  26.803  16.972  0.1758  0.3494  0.3622
81487W        W82351  15.655  28.183  15.687  0.0409 -0.0720 -0.2885
81488W        W82352  18.431  20.078  14.397 -0.3075  0.0025 -0.1794
81489W        W82353  11.152   0.142  23.244  0.0002 -0.2144 -0.1191
81490W        W82354   0.073  15.705  17.868 -0.4428 -0.2506  0.1507
81491W        W82355   7.504   2.409   9.661 -0.0203 -0.0060 -0.2238
81492W        W82356   6.339  19.520  18.367  0.2042  0.2023 -0.0864
81493W        W82357  23.138   3.045   6.105 -0.1741  0.1561 -0.1328
81494W        W82358   1.610  26.543  24.727  0.0184  0.3448 -0.0158
81495W        W82359  19.183   5.755   1.179  0.2514  0.1047  0.0923
81496W        W82360   7.028   0.999  24.645  0.1906  0.2212 -0.0720
81497W        W82361  24.049   0.385   3.389 -0.1127 -0.0108  0.0107
81498W        W82362  11.511   8.313  15.165 -0.1036  0.2069  0.1704
81499W        W82363  17.126   2.269  12.710 -0.1941 -0.1068 -0.1866
81500W        W82364  15.212   9.218  17.567 -0.1398 -0.1358  0.0209
81501W        W82365   6.024   0.233   2.653  0.1595  0.0052  0.3217
81502W        W82366   9.854   5.699   3.603 -0.0546  0.0864  0.0798
81503W        W82367   7.771  19.479   3.851  0.0720 -0.1183 -0.1300
81504W        W82368  15.873  17.160   8.192  0.0126 -0.0883  0.0573
81505W        W82369   5.883   9.601  22.597 -0.1677  0.0468  0.1205
81506W        W82370  14.048   6.566   1.802 -0.0981  0.0635  0.0893
81507W        W82371  11.862   2.675  10.581  0.2359  0.1170 -0.2420
81508W        W82372  18.713  21.179   7.156 -0.1775  0.0514  0.1174
81509W        W82373  24.707  13.793   7.575  0.0464 -0.2168  0.0319
81510W        W82374   0.828  18.335   5.663  0.0656  0.3517  0.2065
81511W        W82375   3.567  15.452  21.901 -0.0693 -0.0503  0.3682
81512W        W82376  11.397   6.437  27.333  0.0782  0.2233  0.1309
81513W        W82377  28.948  28.714  13.889 -0.0167  0.0923  0.1548
81514W        W82378  21.489  15.242  26.366  0.3501 -0.0504  0.0528
81515W        W82379  11.304  15.013  22.652  0.0282 -0.0048  0.1812
81516W        W82380  14.798  14.711  24.291 -0.0975  0.1867  0.2226
81517W        W82381  12.798  27.448  12.233 -0.2731  0.0002  0.1577
81518W        W82382   9.165   8.782  12.064 -0.1852 -0.1130 -0.3963
81519W        W82383  11.089  26.404  27.823 -0.1587 -0.2574 -0.2222
81520W        W82384  21.431   4.116   2.163  0.0658 -0.1538 -0.1137
81521W        W82385   9.280  12.222  27.766  0.2329  0.1972  0.0007
81522W        W82386  20.010   0.867  15.176 -0.0285 -0.1573 -0.0211
81523W        W82387  12.505   9.847  26.071 -0.3028  0.2203  0.0018
81524W        W82388  17.622  14.416   8.274 -0.1303  0.1417 -0.0482
81525W        W82389  16.278  26.826  27.147 -0.4096 -0.0185 -0.1010
81526W        W82390   7.691   4.189   2.857  0.1964  0.0587  0.0383
81527W        W82391  28.921   1.756  19.419  0.0426  0.1101 -0.3563
81528W        W82392  26.514  13.722  12.403 -0.0663  0.2676  0.2944
81529W        W82393  20.340  24.543  13.555 -0.0296  0.0070  0.0348
81530W        W82394  14.822   3.019   6.334  0.1606  0.1027  0.1284
81531W        W82395  22.788   4.792  17.655 -0.0988  0.4509  0.1391
81532W        W82396  22.624   5.926   6.161  0.0123 -0.0446 -0.0359
81533W        W82397  29.105  26.539  17.353  0.3557 -0.0840  0.0817
81534W        W82398   2.117   5.451  10.118 -0.3636  0.0952  0.1347
81535W        W82399  23.260   0.969   5.617  0.1793 -0.0337  0.3610
81536W        W82400   0.753  22.974  28.178 -0.0470 -0.1614  0.2907
81537W        W82401  15.182  21.186  28.973 -0.2532 -0.2420  0.0364
81538W        W82402  12.810  10.184  14.157 -0.0549  0.0805 -0.0095
81539W        W82403  11.700  15.752  24.781  0.0098 -0.0005 -0.0182
81540W        W82404  28.152   5.554  26.809 -0.2921 -0.0249  0.0746
81541W        W82405   1.523  15.667  16.323  0.1073  0.1602 -0.2319
81542W        W82406  20.508   9.766   7.505  0.0129  0.0866 -0.1976
81543W        W82407   6.958   3.159  16.456 -0.1612 -0.1798  0.1192
81544W        W82408  16.875  12.712  27.556 -0.0660  0.0504 -0.0261
81545W        W82409  14.797  18.009  11.673  0.2972  0.1893  0.1283
81546W        W82410   9.454   8.965  26.676  0.1269  0.0864  0.0291
81547W        W82411   9.118  28.233   9.192  0.0344  0.1477 -0.0497
81548W        W82412  22.747  28.568  18.800  0.0332  0.1143 -0.0349
81549W        W82413  21.246   8.134   0.914  0.2601  0.1648 -0.0558
81550W        W82414  13.468  22.212  18.877  0.1431  0.2077  0.2491
81551W        W82415  16.472  27.205   0.116  0.5152  0.0243 -0.1101
81552W        W82416   5.171   6.449  17.115  0.0139  0.0460  0.2787
81553W        W82417   9.458   3.436  16.771  0.2038  0.1484  0.2006
81554W        W82418  13.030   8.209  12.877 -0.2010  0.2488  0.3232
81555W        W82419  20.210   7.624   7.013 -0.1719 -0.0611 -0.0416
81556W        W82420   0.417   4.884  25.818  0.1049 -0.0619  0.2611
81557W        W82421  21.224   6.659  26.528 -0.0040  0.0820  0.2891
81558W        W82422   7.533   0.678  28.469  0.1419 -0.0859 -0.1248
81559W        W82423  28.011  25.582   8.851 -0.1252  0.1081  0.0837
81560W        W82424  17.638   7.478  22.546  0.1078  0.0781  0.1285
81561W        W82425  20.632  15.603  25.977  0.1824 -0.3725  0.1445
81562W        W82426  19.204  20.206   4.889 -0.2721  0.3022 -0.1066
81563W        W82427  16.769  12.654   6.578  0.2408 -0.0311  0.3432
81564W        W82428  23.748  25.245  17.259 -0.0169  0.1112 -0.0424
81565W        W82429   6.869   3.604  10.729  0.2271  0.1429 -0.2162
81566W        W82430   7.934   8.311  15.353 -0.0610 -0.2202 -0.0996
81567W        W82431  26.331  11.613   7.897 -0.0620  0.0259 -0.3740
81568W        W82432  22.659  25.100  28.962 -0.2440 -0.1354  0.2211
81569W        W82433   7.486   2.802  12.899 -0.2515  0.1796  0.1596
81570W        W82434   7.357  25.240  24.386  0.0878  0.0102 -0.0043
81571W        W82435  11.525  23.397  16.872  0.0207  0.1188 -0.1936
81572W        W82436   2.329   4.269  24.997  0.0716 -0.1061 -0.1621
81573W        W82437   9.603   5.333  15.865 -0.1020 -0.0994  0.0377
81574W        W82438  20.930  12.400   5.432 -0.4727 -0.2661  0.1263
81575W        W82439   6.475  13.716   4.864  0.2068  0.0977  0.0478
81576W        W82440  12.358  26.109   1.070  0.0015 -0.1246  0.1581
81577W        W82441  26.728   7.949  16.269 -0.1501 -0.0718  0.0800
81578W        W82442  10.650   9.095  27.567  0.0297  0.1942 -0.0359
81579W        W82443  17.510  28.222   4.230 -0.1462  0.2074 -0.0842
81580W        W82444   9.251  20.149   8.918  0.0421 -0.0335  0.0996
81581W        W82445  24.298  23.831   1.720 -0.3329  0.2670  0.0221
81582W        W82446   7.934   1.827   8.726 -0.2869 -0.0856  0.1733
81583W        W82447  25.982  15.507  18.528  0.1475  0.0967 -0.1014
81584W        W82448   6.062   6.370  17.251 -0.2811 -0.2478  0.2239
81585W        W82449  27.742  10.914  17.593 -0.0360 -0.0286  0.0899
81586W        W82450   6.160  14.989   3.018 -0.0925 -0.0100  0.0506
81587W        W82451  18.733   3.627  10.293  0.3451  0.0105  0.2852
81588W        W82452   5.593  27.476  10.812 -0.1393  0.1589 -0.1467
81589W        W82453  26.891  21.199  25.856  0.0689 -0.0181  0.1579
81590W        W82454  25.794   2.423  13.692  0.2310  0.0706  0.1748
81591W        W82455  23.932  28.972   1.415  0.1928 -0.0931 -0.1531
81592W        W82456  15.196   3.981   7.448 -0.0836 -0.0022  0.1777
81593W        W82457  20.972  23.254   9.885 -0.2150 -0.3311 -0.2689
81594W        W82458   3.236   7.871   7.605  0.1568  0.0910  0.3375
81595W        W82459   3.454  28.313   6.161  0.1529  0.1693 -0.0123
81596W        W82460  14.490  28.790  10.408  0.1088  0.1832 -0.0279
81597W        W82461  26.664   8.486  15.493 -0.0190 -0.0284  0.1005
81598W        W82462  13.309   5.729  17.062  0.1842 -0.1974  0.0125
81599W        W82463  16.913   2.633   1.749  0.1529 -0.0218 -0.2225
81600W        W82464  18.541   1.891  13.581 -0.1438 -0.2570 -0.0874
81601W        W82465  12.883  14.966  14.400  0.1822 -0.0016 -0.0123
81602W        W82466  18.700  18.285  13.846  0.2490  0.2774  0.0716
81603W        W82467  16.727  26.264   7.383 -0.2251 -0.1419 -0.1603
81604W        W82468  10.814  25.570   8.863  0.2518 -0.0801  0.1568
81605W        W82469  12.047   9.043  14.089  0.0602  0.0412  0.0292
81606W        W82470  16.059  25.454  12.643 -0.3710  0.0457 -0.2060
81607W        W82471  14.976  27.718  12.871  0.1274 -0.1912  0.1741
81608W        W82472   2.508  11.066   7.322 -0.1087  0.1945 -0.1679
81609W        W82473   7.535  13.986   8.724  0.1700  0.0330  0.3300
81610W        W82474  27.700  22.388  22.316 -0.1291 -0.0157 -0.4491
81611W        W82475   9.064  11.958   0.358  0.2446 -0.0886  0.1999
81612W        W82476  23.281   6.097   4.699  0.0457  0.2618  0.0516
81613W        W82477  13.227   3.812  10.522  0.0088  0.0011 -0.1266
81614W        W82478  19.122  23.856   4.545 -0.1087  0.0263  0.3050
81615W        W82479   8.124   6.573   8.263  0.0073  0.0290 -0.1298
81616W        W82480  21.026  18.726  16.241 -0.0964  0.0848  0.3749
81617W        W82481  23.933   9.460   8.827 -0.0030  0.3272  0.0105
81618W        W82482   8.646   9.404  17.320 -0.0203  0.1371 -0.2291
81619W        W82483   4.463  26.109   4.087 -0.0054 -0.0235 -0.0424
81620W        W82484   1.609  26.754  11.177 -0.0725 -0.0905 -0.1260
81621W        W82485  16.262   9.439  20.781 -0.0052 -0.0815 -0.0984
81622W        W82486  13.745   1.016  10.601  0.0320 -0.1675 -0.0978
81623W        W82487  14.015  11.819   6.373  0.1636 -0.4956 -0.1203
81624W        W82488   9.887  29.141  28.350  0.0406 -0.0290 -0.1179
81625W        W82489   7.378   2.557  14.350  0.1411  0.2122 -0.0786
81626W        W82490  18.336   9.542  11.261 -0.3133  0.1619  0.1904
81627W        W82491  27.629   5.262  21.892  0.1456  0.1139  0.2901
81628W        W82492   9.593  27.897  24.143 -0.3160  0.1231 -0.3670
81629W        W82493  18.537  14.501   3.039 -0.1680 -0.1219  0.1038
81630W        W82494  23.812   3.265  28.520 -0.1868  0.1042  0.1671
81631W        W82495   8.529  12.660   7.166 -0.0533 -0.2185  0.0095
81632W        W82496   4.825  16.436  22.774 -0.0108  0.0251  0.3997
81633W        W82497  12.118  28.232   1.632  0.2211 -0.0214  0.0154
81634W        W82498  12.347   9.414  13.474  0.3063  0.1199  0.1095
81635W        W82499  19.557  14.528  14.565 -0.0878 -0.1975 -0.1471
81636W        W82500  13.537  17.380  10.687  0.1418  0.1641 -0.2826
81637W        W82501  12.014   0.556   4.992 -0.1970 -0.0578 -0.0006
81638W        W82502  13.231  13.778  22.478 -0.0780 -0.2382  0.0729
81639W        W82503   5.978  10.718   8.336 -0.1176 -0.1520  0.1685
81640W        W82504   1.202  20.877   7.969  0.2027 -0.3612  0.0592
81641W        W82505  12.190  19.462  10.466 -0.2785  0.2860 -0.0514
81642W        W82506   3.111  21.528  25.879  0.0269 -0.0960 -0.2840
81643W        W82507  17.669  15.559  16.316  0.1641 -0.2999 -0.1264
81644W        W82508  20.849   5.502  13.717 -0.0927 -0.0896  0.0980
81645W        W82509   9.466   2.953  25.903 -0.1265 -0.2165  0.0461
81646W        W82510  10.806  27.407   3.122  0.1695  0.0848  0.1412
81647W        W82511  13.806  12.633  15.179 -0.0344  0.2032 -0.0637
81648W        W82512  22.235  20.337   5.331  0.0536  0.1202  0.2544
81649W        W82513  14.956   0.647  24.334 -0.1356  0.2390  0.0437
81650W        W82514   2.782  13.367  23.900 -0.1193  0.2579 -0.0996
81651W        W82515  27.298   5.936   8.910 -0.2181  0.1678 -0.0666
81652W        W82516  24.269  24.499  16.857 -0.1182 -0.1357  0.3180
81653W        W82517  17.263  16.392   2.999 -0.3119  0.3972  0.0778
81654W        W82518  23.365  10.178  20.283 -0.1232  0.2855  0.1150
81655W        W82519  12.474  10.916   7.935  0.0850 -0.0682 -0.1753
81656W        W82520  23.038   9.393  16.681  0.0104  0.2545 -0.0008
81657W        W82521  21.506  15.124   0.825  0.0012  0.0038 -0.1925
81658W        W82522  18.564   3.011   5.169  0.1638 -0.0107 -0.1476
81659W        W82523   4.484   4.676  27.078  0.1821  0.0773  0.3465
81660W        W82524   1.452  11.603   8.108  0.0698 -0.0111  0.0882
81661W        W82525   8.581   2.890   9.110 -0.0563 -0.0497  0.0237
81662W        W82526  18.055  26.360  21.432 -0.0745  0.1870  0.1235
81663W        W82527   1.308  19.033   1.524 -0.1730  0.0585 -0.2193
81664W        W82528  12.796  10.442  21.730 -0.0534  0.1957 -0.0556
81665W        W82529  10.818  23.777   5.210  0.1233 -0.1458  0.2772
81666W        W82530  21.969   6.856  14.611  0.3380  0.2212 -0.0765
81667W        W82531  25.420  10.181  25.815 -0.2447  0.0318 -0.1045
81668W        W82532  17.276  15.694  15.684  0.0537  0.0034  0.2150
81669W        W82533   7.377   8.860  12.252  0.1528  0.2043 -0.0304
81670W        W82534   5.233  18.824  25.769 -0.2319 -0.1038  0.1027
81671W        W82535  17.067   9.282  10.027  0.0918 -0.0007  0.0043
81672W        W82536  11.511  17.211   6.344  0.5794  0.0025 -0.0437
81673W        W82537  14.597  10.473   3.002  0.1242  0.3105  0.1247
81674W        W82538  11.013  25.979   3.906  0.2070  0.3007  0.0874
81675W        W82539   1.724   1.544  13.703  0.0372  0.2148  0.0050
81676W        W82540  10.891   9.469   8.523  0.1477  0.1441 -0.1177
81677W        W82541   8.799   5.974   3.544 -0.3137 -0.0738 -0.6189
81678W        W82542   0.510  13.449  12.174  0.1508 -0.3509  0.0464
81679W        W82543   9.704  26.556   7.936  0.0956 -0.1235 -0.1538
81680W        W82544   8.719  23.854  24.198 -0.0679 -0.0601  0.1258
81681W        W82545  13.769  17.797   9.913  0.0496  0.4336 -0.2108
81682W        W82546  15.110  21.883  26.765 -0.3845 -0.1018  0.0207
81683W        W82547   0.349  26.247  10.795 -0.0848 -0.1651  0.0371
81684W        W82548  26.776   3.859  16.284  0.1632  0.3128 -0.0796
81685W        W82549   7.697   1.860  12.751 -0.1967  0.0424 -0.0339
81686W        W82550  27.568   1.785   0.389 -0.0547  0.0199  0.2213
81687W        W82551  28.830  25.587  17.610 -0.1806  0.3145 -0.0874
81688W        W82552  22.924  16.148  16.131 -0.1689  0.2465  0.1807
81689W        W82553  18.108  13.785  23.565  0.0104 -0.0943  0.1260
81690W        W82554  18.296   4.714  19.553  0.0316 -0.2608  0.1029
81691W        W82555   6.185  21.387   9.497  0.1882  0.3611  0.0374
81692W        W82556  14.092  12.100   6.830  0.0528 -0.0672  0.0252
81693W        W82557  11.370   6.282  13.363 -0.0177  0.1492 -0.1285
81694W        W82558   6.301  14.686   7.186  0.2462  0.1649 -0.2565
81695W        W82559  14.823   3.175   1.515  0.1346 -0.0920 -0.1592
81696W        W82560   5.411   1.498  21.832  0.3834  0.3312  0.1573
81697W        W82561  18.174   6.932  24.167 -0.0215  0.0417  0.0262
81698W        W82562   0.772  24.786  12.003  0.3343 -0.0794 -0.1109
81699W        W82563  15.347   7.342   0.755 -0.1978 -0.3170 -0.0692
81700W        W82564  11.109   6.678  19.571  0.0592 -0.2426 -0.0911
81701W        W82565  26.192   6.447   1.680 -0.1772 -0.0845 -0.0950
81702W        W82566  27.104  24.582  20.145 -0.1458 -0.1275  0.0853
81703W        W82567   9.890  17.166  14.453 -0.1322 -0.0048  0.0717
81704W        W82568  16.981  15.988  23.914 -0.0126 -0.0598 -0.0975
81705W        W82569  10.878   7.727  21.510  0.0728 -0.3127  0.0103
81706W        W82570  23.544   1.368  21.644  0.2487  0.1980 -0.0231
81707W        W82571  19.050  23.543   8.779  0.1771 -0.0066  0.1959
81708W        W82572  16.685  11.566  18.916 -0.0410  0.0820 -0.0546
81709W        W82573  14.065  26.504   2.574  0.1530 -0.1843 -0.0635
81710W        W82574   2.571   9.228  10.486  0.3597  0.0090 -0.1354
81711W        W82575  28.737   9.651  14.350 -0.0702 -0.0850  0.1936
81712W        W82576  16.642   5.789  18.265 -0.0829 -0.3031  0.3641
81713W        W82577   3.840  26.813   6.796  0.3270  0.1383  0.0477
81714W        W82578  19.154  13.573   2.344 -0.0110 -0.0013  0.0296
81715W        W82579  10.134  10.258   8.261  0.0752 -0.0205 -0.0792
81716W        W82580   8.365  10.867  16.666 -0.1573  0.0332  0.1830
81717W        W82581  17.451  13.165  10.582  0.0498 -0.2455 -0.1390
81718W        W82582  28.856  15.350   5.836 -0.1684  0.0081 -0.1105
81719W        W82583  14.998  23.373   1.042 -0.0357 -0.3323 -0.2766
81720W        W82584  16.834   9.170  17.816  0.3049  0.3329  0.0526
81721W        W82585  12.286  18.401   9.848  0.0892  0.0391 -0.5817
81722W        W82586   5.876   9.496   8.880 -0.0471 -0.0795  0.0279
81723W        W82587  22.105  15.613  28.322 -0.1673  0.1529  0.0011
81724W        W82588   7.956  23.044  18.567  0.1780 -0.3708 -0.0034
81725W        W82589   4.835  15.573  16.750 -0.2956 -0.1290  0.0407
81726W        W82590  19.667   9.992  11.167 -0.2655  0.1561  0.0828
81727W        W82591   6.632   9.621   5.458 -0.0418 -0.0042 -0.3413
81728W        W82592   9.795   4.927  24.822 -0.0717  0.0224 -0.0836
81729W        W82593  14.284   2.855   9.514  0.0098 -0.2419  0.2585
81730W        W82594  14.888   6.648  12.287 -0.1522 -0.0299 -0.0140
81731W        W82595   6.874  21.808  13.032  0.1206  0.0341 -0.0780
81732W        W82596   1.299  18.820   5.044  0.0838 -0.0342  0.2092
81733W        W82597  26.789   5.226  14.782  0.1304  0.1698 -0.1956
81734W        W82598  17.503   1.676  19.083 -0.2031 -0.2947 -0.0617
81735W        W82599  27.110  10.379   5.016  0.1005 -0.0178 -0.0932
81736W        W82600   9.082  23.894   7.881  0.2275 -0.1053  0.2886
81737W        W82601  28.544   8.744   1.921 -0.0504  0.4098 -0.1262
81738W        W82602  26.654  11.339  18.637  0.1967  0.0775 -0.0655
81739W        W82603  16.082   1.930  19.984  0.0040 -0.0267  0.1650
81740W        W82604   1.239   7.442  21.830  0.2892 -0.0683  0.3242
81741W        W82605   3.856   8.056  22.109 -0.1082 -0.2199 -0.1316
81742W        W82606  28.223  28.297   6.182 -0.0286 -0.2364  0.0672
81743W        W82607   9.018  12.311  18.818  0.1593  0.0173  0.1153
81744W        W82608   2.364   7.904  15.568  0.1551 -0.0400  0.1125
81745W        W82609  10.074  17.649   3.794  0.0951 -0.1785  0.0286
81746W        W82610  28.237  21.722  29.012  0.2140  0.0679 -0.1543
81747W        W82611  27.004   5.323   1.115  0.0783 -0.0162  0.0675
81748W        W82612  15.637   9.741  19.886  0.3157  0.1932  0.0649
81749W        W82613   5.037   1.886  15.315  0.2528 -0.1412  0.1544
81750W        W82614  17.004   9.095   1.698 -0.0760  0.2173 -0.0868
81751W        W82615  18.526  10.492  15.467  0.0928 -0.0190  0.1733
81752W        W82616   5.080  26.380  24.998 -0.1892  0.1566 -0.0773
81753W        W82617   1.689   5.390  13.234 -0.0822  0.2205 -0.1349
81754W        W82618  26.981  25.784  16.262  0.0056  0.0726  0.1924
81755W        W82619  25.274  11.528   1.901  0.5580  0.1051  0.2504
81756W        W82620  22.183   3.366  20.287  0.1410  0.3461  0.1626
81757W        W82621  10.303  21.780  20.373 -0.2290 -0.0068  0.0324
81758W        W82622   0.557   8.690   7.040  0.0630 -0.0356  0.0540
81759W        W82623  10.485  15.568  20.963  0.0982  0.2796 -0.0283
81760W        W82624  10.559  26.908  26.361  0.1216 -0.2553 -0.2081
81761W        W82625  21.575  27.835  13.223 -0.1745 -0.5488 -0.1152
81762W        W82626  23.734  24.893  28.988  0.0383 -0.1938  0.0018
81763W        W82627  22.923  24.601  25.130  0.0700 -0.2010 -0.2318
81764W        W82628  13.987  15.236   4.445 -0.2192 -0.0034 -0.0745
81765W        W82629   0.698   7.118  22.411  0.0619 -0.0303 -0.1349
81766W        W82630  18.218   5.623  19.822  0.4193 -0.1337 -0.2008
81767W        W82631  10.437  13.946  13.986 -0.0050 -0.0781 -0.0296
81768W        W82632   6.260   3.930  15.533 -0.0126 -0.0510  0.0516
81769W        W82633  13.957  11.790  25.650 -0.0526  0.0725 -0.3387
81770W        W82634   0.126   9.334  15.717 -0.1352 -0.1652  0.0964
81771W        W82635  14.719  13.798  13.183 -0.1086  0.2690  0.1192
81772W        W82636  13.723  16.077  10.357 -0.2908  0.1501 -0.4133
81773W        W82637   9.978  13.918  22.715  0.0524 -0.2227 -0.1205
81774W        W82638   4.496   7.714   2.142  0.0687  0.1266 -0.0723
81775W        W82639  15.151  21.628  25.642  0.0737  0.3087 -0.2267
81776W        W82640  22.441   3.498  17.874  0.1820  0.2690  0.0422
81777W        W82641  11.700   2.534   8.286  0.1933 -0.0449 -0.0648
81778W        W82642  12.743   7.462  25.144 -0.1236 -0.1031  0.0696
81779W        W82643  11.545  15.777  10.853 -0.0125  0.1434 -0.0507
81780W        W82644  14.974   5.034   2.925  0.2228  0.1728 -0.1094
81781W        W82645  10.410  21.679  25.299 -0.1709  0.1342 -0.0899
81782W        W82646  16.109  11.976  20.608  0.3256 -0.0109 -0.2631
81783W        W82647  25.260  20.621  20.815  0.1657  0.2591 -0.4900
81784W        W82648  15.421   5.159   1.595 -0.0379  0.0985 -0.2096
81785W        W82649  15.069  23.667  12.109  0.1681  0.0635 -0.0655
81786W        W82650  15.796  20.700  11.018 -0.0917 -0.0612  0.2287
81787W        W82651  10.715   7.640  27.225 -0.0375  0.3886 -0.5147
81788W        W82652   6.061  12.347  14.909 -0.0397 -0.0875  0.0707
81789W        W82653   3.295  28.996  26.601 -0.3623 -0.2264  0.0033
81790W        W82654   4.052   3.797  27.462 -0.0966 -0.0256 -0.0488
81791W        W82655  23.729  12.956  12.945 -0.0122 -0.1649  0.1764
81792W        W82656  11.642   5.845  16.465 -0.0868 -0.0259 -0.2573
81793W        W82657   2.202   7.857  16.256  0.1046  0.1092  0.0087
81794W        W82658   9.033  11.950  10.458  0.3115  0.0252 -0.2655
81795W        W82659  14.602  12.878   2.374  0.0303  0.1823  0.0791
81796W        W82660  23.563  17.073   8.656  0.2753  0.0429  0.0682
81797W        W82661  17.904  11.068  29.046  0.2159  0.0730  0.0643
81798W        W82662   5.811   3.560  15.610 -0.2065 -0.0534 -0.1750
81799W        W82663   6.569  20.911  22.601 -0.2444 -0.1072  0.3512
81800W        W82664   6.151   0.887  12.906  0.1017  0.0578  0.2002
81801W        W82665   5.205   8.353  19.240  0.1555 -0.3056 -0.3431
81802W        W82666  21.706   3.361  10.192 -0.0409 -0.2971  0.0405
81803W        W82667   1.136  28.373   8.270  0.0783  0.3336 -0.0884
81804W        W82668   2.667   9.909   2.767  0.1950  0.1483 -0.0497
81805W        W82669  16.904   1.726  24.937 -0.3109 -0.0973  0.1314
81806W        W82670  20.748  11.316  29.020 -0.2213 -0.1678 -0.1822
81807W        W82671  15.834  15.419  12.528  0.1580  0.2578 -0.1638
81808W        W82672   5.971   1.354  27.100  0.1052  0.0539 -0.1419
81809W        W82673  12.762   5.851  21.744 -0.1707 -0.0284 -0.3971
81810W        W82674  19.383  24.988  24.120  0.1948  0.2112 -0.0475
81811W        W82675  26.257  24.585  27.467  0.0845  0.0635 -0.0022
81812W        W82676  10.200  19.824   1.550 -0.0975  0.0728 -0.0095
81813W        W82677   4.146   7.486   6.712  0.0004 -0.0693  0.0394
81814W        W82678  22.229  11.307  28.884  0.0129  0.2054  0.1213
81815W        W82679  23.294  12.709   4.161  0.1664  0.0640 -0.1621
81816W        W82680  11.417  26.209   9.683 -0.1099 -0.1187 -0.2951
81817W        W82681   7.263   7.367   7.701 -0.1002  0.2541  0.2402
81818W        W82682  18.094   7.439   3.872 -0.1255  0.3145 -0.2370
81819W        W82683   6.952   2.305   5.829 -0.3007  0.3124 -0.2653
81820W        W82684   3.006  22.007  24.519 -0.2363 -0.0151  0.0903
81821W        W82685  28.309  10.187  17.001  0.1280  0.0884 -0.1696
81822W        W82686  11.469   9.298   0.417 -0.0851 -0.2898  0.1858
81823W        W82687   3.281   5.971  26.934  0.3671  0.2398  0.1067
81824W        W82688  25.653  11.937   7.817  0.1857  0.0808 -0.0464
81825W        W82689  14.853  10.551  11.005 -0.0177 -0.1975  0.1377
81826W        W82690   2.875  23.023  10.386 -0.1679 -0.2972  0.1500
81827W        W82691   9.343  14.498   8.245  0.0687  0.2877 -0.2609
81828W        W82692  14.344   0.025   7.114 -0.1738 -0.0014 -0.1584
81829W        W82693  24.653  25.986   9.329 -0.0357 -0.1399  0.0263
81830W        W82694  15.666  17.084   4.706 -0.0190 -0.1334 -0.0888
81831W        W82695   6.046   2.025   4.026 -0.2226  0.2550 -0.0185
81832W        W82696  19.857  15.882  11.438 -0.1004 -0.2376 -0.1532
81833W        W82697  16.708   7.053  17.206 -0.0644 -0.2572 -0.1424
81834W        W82698  28.117   1.182   0.430  0.1584 -0.3391  0.1523
81835W        W82699   4.325   0.195   0.870  0.0508  0.0663 -0.0540
81836W        W82700   4.298   1.975  11.695 -0.1981 -0.2983 -0.0875
81837W        W82701  27.730   5.216  24.713  0.0472  0.0248  0.1620
81838W        W82702  25.347   9.577  16.685  0.2041 -0.2057  0.0456
81839W        W82703  25.029  18.257  19.673  0.3827  0.0974  0.1068
81840W        W82704  27.668   7.632   1.553  0.1151 -0.0863  0.1979
81841W        W82705  15.272   8.498  13.062  0.1637 -0.1304  0.3056
81842W        W82706  12.435  16.305  20.710  0.2972  0.0576  0.2434
81843W        W82707  25.084  11.086  23.316  0.0101  0.1259  0.1290
81844W        W82708  26.549  11.007  27.095 -0.0674  0.0333  0.0344
81845W        W82709   8.340   7.783  13.330  0.0721 -0.0534 -0.1643
81846W        W82710   0.097  10.373   7.921  0.1170 -0.1459 -0.0662
81847W        W82711  25.337  28.556  13.103 -0.0555 -0.1377  0.1676
81848W        W82712  15.313  17.593  17.906  0.1858  0.2380 -0.0597
81849W        W82713  12.960  20.445  21.692  0.1482  0.3033 -0.1577
81850W        W82714  26.215   3.040  22.531 -0.1662  0.0366 -0.1472
81851W        W82715  16.527   4.875  13.244 -0.1984 -0.0429  0.0232
81852W        W82716  23.212   5.705  27.826 -0.2898 -0.0568 -0.0774
81853W        W82717  16.134   2.704  18.765  0.0285  0.0751  0.4057
81854W        W82718   6.104  22.546  25.329  0.0214  0.0468  0.1645
81855W        W82719  17.292   7.337  16.541  0.0331 -0.1170 -0.0189
81856W        W82720  15.521   6.574  14.126  0.1652  0.3616  0.3796
81857W        W82721  20.950   8.281  26.779 -0.0248 -0.0191  0.0114
81858W        W82722   5.554   4.221  13.341  0.0747 -0.3152 -0.0709
81859W        W82723  19.507  18.937  17.453 -0.4075  0.1876  0.0804
81860W        W82724  26.128   6.454  12.829  0.0583 -0.1256 -0.4692
81861W        W82725  14.904   5.989   7.971 -0.1316  0.0711  0.0718
81862W        W82726   9.160  11.311  14.609 -0.1065 -0.1987  0.1108
81863W        W82727  24.991  11.265  14.015  0.0680  0.2876 -0.1882
81864W        W82728   1.958   9.329  13.905  0.0400  0.0996 -0.0110
81865W        W82729   4.670  26.876  12.130  0.1347 -0.1213  0.0837
81866W        W82730  17.356  27.603   9.702  0.0415  0.3559 -0.0494
81867W        W82731  24.602   4.008  14.573 -0.1615  0.2943 -0.0077
81868W        W82732  13.857  21.286  24.400 -0.1123  0.0978  0.0325
81869W        W82733  12.148   9.537   3.180 -0.1109 -0.0121 -0.1822
81870W        W82734  12.961  19.237  25.405 -0.1099 -0.1164 -0.1919
81871W        W82735  24.357  10.751  29.071  0.2073  0.1130 -0.2983
81872W        W82736   6.899   1.729   7.306 -0.2076 -0.3027  0.2108
81873W        W82737  12.018  28.920  12.136  0.0232  0.1822 -0.3143
81874W        W82738  15.171  28.325  24.130 -0.3831 -0.1120 -0.1738
81875W        W82739  20.273   4.809   5.387 -0.0013 -0.1140 -0.1841
81876W        W82740   4.050  14.145  12.551  0.4422  0.3629  0.0308
81877W        W82741  26.681  27.760  18.112 -0.3488  0.2519  0.0570
81878W        W82742   1.004   1.621  15.851 -0.0633 -0.1055  0.2073
81879W        W82743   3.323  13.079  12.524  0.0009 -0.4949  0.1616
81880W        W82744   6.035   7.678  11.184  0.1017  0.0383  0.1585
81881W        W82745   7.754   1.250  24.770  0.0055 -0.0380 -0.1110
81882W        W82746   1.475  15.832   0.890  0.2124 -0.0543 -0.2471
81883W        W82747  20.695   4.858  10.259 -0.2286 -0.0752 -0.1092
81884W        W82748  28.789  16.921   1.420  0.2178 -0.0368 -0.0531
81885W        W82749  13.728  18.885  21.508  0.0716  0.0301 -0.3521
81886W        W82750  28.415  18.225  17.706  0.0216  0.2158 -0.2674
81887W        W82751  12.310   0.876  14.835 -0.0513  0.0398 -0.0250
81888W        W82752  19.378   1.476  24.605  0.3763  0.1012  0.1962
81889W        W82753  14.174  28.864  12.369  0.0029  0.2769  0.2942
81890W        W82754  14.022  22.399  13.944  0.0969  0.0337  0.0178
81891W        W82755  20.495  27.527  12.848  0.0542  0.0192 -0.3134
81892W        W82756  17.407  12.279  21.216 -0.4467 -0.1384  0.0573
81893W        W82757  17.109   2.084  19.906  0.0188  0.0043 -0.1644
81894W        W82758  21.096  22.790  12.802 -0.2053 -0.1219 -0.1171
81895W        W82759   3.813  23.307  16.188 -0.0282  0.0398 -0.2854
81896W        W82760  22.888   6.499  25.812  0.0459  0.4579  0.1261
81897W        W82761  10.289  10.331  14.558 -0.0765  0.2682 -0.0506
81898W        W82762  26.454   8.919  24.221  0.0997  0.2160  0.1308
81899W        W82763  21.821   3.427  19.925 -0.2244  0.1346  0.2905
81900W        W82764  14.938  12.489  14.808 -0.0759  0.0100  0.0127
81901W        W82765  18.620   2.634  15.207  0.2750  0.1013  0.0584
81902W        W82766  17.815  11.588  26.763 -0.3661  0.1128 -0.0480
81903W        W82767  22.802  18.116  21.227 -0.2509 -0.0373 -0.1103
81904W        W82768  21.540   0.303  23.091 -0.1797 -0.3484 -0.0646
81905W        W82769   0.139  24.640   2.427 -0.1230 -0.3004  0.0017
81906W        W82770  12.116  11.127  11.283  0.1595  0.0665 -0.2252
81907W        W82771   6.092  26.613  23.559 -0.0852  0.0505 -0.0026
81908W        W82772  12.733  23.480   2.194 -0.1295 -0.0998  0.0169
81909W        W82773  11.585  21.806  24.275 -0.0720 -0.0817  0.1059
81910W        W82774   5.578  28.490   9.842  0.2099  0.1789  0.2587
81911W        W82775  10.054  12.100  22.504  0.0295 -0.1847  0.0471
81912W        W82776  28.951   7.905   7.069  0.1736 -0.0258 -0.1275
81913W        W82777  17.612   3.840   9.637 -0.0189 -0.1355 -0.0469
81914W        W82778  26.858  22.392  20.825  0.3117  0.0693  0.2404
81915W        W82779  13.943  23.670   0.827  0.2547  0.3530  0.1549
81916W        W82780   0.792   7.209  28.121  0.2023 -0.3410  0.0462
81917W        W82781  13.651   0.398  15.575 -0.0544 -0.0051  0.1973
81918W        W82782   2.468   2.630  22.764  0.0785  0.0621 -0.1576
81919W        W82783  15.203  14.003  22.319 -0.0474  0.2265 -0.2410
81920W        W82784  17.471   6.089  18.845 -0.1246  0.1676 -0.3555
81921W        W82785  21.569  28.335  20.132  0.0825  0.1569  0.0900
81922W        W82786   9.202   5.559  16.890 -0.1983  0.0432  0.0900
81923W        W82787  21.966  27.455  11.902  0.1445  0.1002 -0.1097
81924W        W82788  18.058   1.243  19.098  0.1959 -0.0897 -0.0459
81925W        W82789  12.351  15.116  19.018 -0.1126  0.3053 -0.0710
81926W        W82790  15.553   9.270   6.459  0.2043  0.0095 -0.2459
81927W        W82791  14.978  25.802  16.755  0.2612  0.0101 -0.1617
81928W        W82792  28.662   6.662  24.303 -0.1795  0.2065  0.1379
81929W        W82793  17.156  28.690   3.766  0.0767  0.0012  0.1135
81930W        W82794  10.761   9.262  29.014 -0.1271 -0.3378  0.2228
81931W        W82795   4.464   1.693  17.610 -0.1374 -0.0142  0.1442
81932W        W82796   7.259  10.876   8.101  0.0850 -0.0048 -0.0863
81933W        W82797  15.796  29.008  21.733 -0.0661 -0.1206  0.3733
81934W        W82798  15.318   4.987  25.846  0.0594 -0.3095 -0.0507
81935W        W82799  16.464   1.009  16.167  0.1110  0.3936  0.1718
81936W        W82800   8.177   7.274  17.915 -0.2538  0.0713 -0.1937
81937W        W82801  19.596  23.506  18.207 -0.2446  0.4150  0.4503
81938W        W82802  24.375   7.025  13.124  0.3591 -0.1042  0.1187
81939W        W82803  26.794   4.149  27.524 -0.0878  0.0716  0.1345
81940W        W82804  13.559  24.602  21.608 -0.1099  0.0465  0.0925
81941W        W82805  17.822  22.218  21.415 -0.0692  0.3041  0.0224
81942W        W82806  19.044  27.000  28.847  0.0466  0.0975 -0.2437
81943W        W82807   3.369  15.176  15.111 -0.1888 -0.2216  0.1905
81944W        W82808  15.182  26.211  17.498 -0.0695 -0.1965 -0.3324
81945W        W82809  17.522  25.605  14.423  0.0207 -0.0680 -0.1397
81946W        W82810  27.612  17.991  26.901  0.2154  0.0260  0.0379
81947W        W82811  23.236   6.091  24.161  0.0120 -0.1653 -0.1646
81948W        W82812   3.718  21.582  15.613 -0.2006 -0.0240  0.3049
81949W        W82813  21.946  10.700  26.373  0.0961  0.2986  0.1946
81950W        W82814  13.101   1.569   9.270 -0.0188  0.0801  0.3787
81951W        W82815   3.114  15.319  21.600  0.4483 -0.3076 -0.5246
81952W        W82816  14.041  12.378   2.007  0.0506  0.1433  0.2140
81953W        W82817  10.732  17.998  20.161  0.3105 -0.2048  0.0349
81954W        W82818  21.780  10.479  13.780 -0.1893  0.1693  0.1461
81955W        W82819   4.120   1.054  14.086 -0.2696  0.0536 -0.3589
81956W        W82820  24.135   8.368  19.325  0.2892 -0.1447 -0.1548
81957W        W82821  17.576   0.829  16.236  0.2199  0.0073 -0.0194
81958W        W82822   9.579   3.342  28.341  0.0232  0.1518 -0.2523
81959W        W82823  24.354  16.970  25.789  0.2409 -0.1719  0.0952
81960W        W82824   6.557  18.695   7.508 -0.1717 -0.0748  0.1589
81961W        W82825  18.155   6.600  22.055 -0.1841  0.1261  0.0703
81962W        W82826   7.768  10.193  13.547  0.1241 -0.4178 -0.2407
81963W        W82827   1.668  27.278  29.043  0.1460 -0.1107 -0.1244
81964W        W82828  18.571  15.557  17.418  0.1175 -0.0159 -0.3391
81965W        W82829  24.916  10.538  22.832 -0.2356  0.0111 -0.1416
81966W        W82830  22.429  12.642   0.286 -0.0648 -0.2335 -0.0821
81967W        W82831  26.786   3.231   5.580  0.1969 -0.1810  0.3461
81968W        W82832  22.037  27.766  22.486 -0.2411 -0.2305 -0.1122
81969W        W82833   3.646  20.236  23.218  0.1324  0.0760  0.3761
81970W        W82834   3.428  13.478  26.927 -0.3128 -0.1363  0.0979
81971W        W82835  13.529   0.983   3.498  0.1906  0.0253 -0.1207
81972W        W82836  19.783   9.542  16.990 -0.1258  0.1413 -0.2229
81973W        W82837  10.945   0.653   7.538  0.2684  0.0441  0.1363
81974W        W82838  28.730   4.976   2.292 -0.1663  0.1790 -0.3397
81975W        W82839  25.079  19.043  23.915 -0.0742 -0.0585 -0.0705
81976W        W82840  11.739  14.463  16.516 -0.1270  0.0477 -0.0347
81977W        W82841   1.897   8.481  14.286  0.3428 -0.2160 -0.0083
81978W        W82842  12.885  20.142   2.666  0.3619  0.0230 -0.0654
81979W        W82843  26.379   6.240  20.637 -0.0419 -0.1442  0.1487
81980W        W82844  12.881  16.404  10.276 -0.0410 -0.0695  0.1602
81981W        W82845  28.427   9.455  27.754 -0.2839  0.0729 -0.2174
81982W        W82846  27.920   8.131  24.899  0.0284  0.0712 -0.1015
81983W        W82847  15.632   1.882  26.908 -0.1239 -0.1138  0.0599
81984W        W82848  20.155  10.364  12.028 -0.0645  0.2557 -0.2257
81985W        W82849  19.510   0.927  23.284  0.1224 -0.0183 -0.0795
81986W        W82850  20.231   2.096  10.536 -0.2213 -0.0766  0.0020
81987W        W82851  24.883  27.239  26.175 -0.2265 -0.3653 -0.1500
81988W        W82852  21.581   8.964  22.332  0.3266 -0.2187 -0.0736
81989W        W82853   9.080  17.539   1.369 -0.0247 -0.1748  0.1700
81990W        W82854   4.816   5.741  17.772 -0.2405 -0.4209 -0.1289
81991W        W82855   8.958   5.835  13.832  0.1951  0.2127  0.1719
81992W        W82856   4.760  25.069  26.169  0.2236  0.0313 -0.0039
81993W        W82857   7.663  10.265  20.647  0.1545 -0.1292  0.0554
81994W        W82858  16.340  23.407  12.031  0.0326 -0.0887  0.0634
81995W        W82859  12.407  24.152   8.416 -0.1440 -0.0558  0.0325
81996W        W82860  18.428  14.770   0.029 -0.1753  0.0544 -0.4934
81997W        W82861  21.623  13.486  24.083  0.1174  0.0360 -0.0668
81998W        W82862   6.063   2.633  21.289 -0.2259 -0.0623 -0.1865
81999W        W82863   0.126  26.601  26.230  0.1186 -0.1942  0.3413
82000W        W82864  20.535  13.855  27.776  0.0030  0.0468  0.1906
82001W        W82865   7.388  15.063  10.505 -0.1290 -0.1239 -0.2655
82002W        W82866  11.258  19.813  27.667 -0.1458  0.1896  0.3006
82003W        W82867  25.402   9.470  11.523 -0.3688  0.1076  0.5101
82004W        W82868  11.787  12.570  25.638  0.0029  0.1687 -0.1139
82005W        W82869  24.525   5.048   2.043  0.1511 -0.0798  0.4995
82006W        W82870  23.466   2.316  10.143  0.1289 -0.0315 -0.1111
82007W        W82871  25.432   4.125  18.394  0.3462 -0.0120 -0.0616
82008W        W82872   8.534  18.464  16.550 -0.0655  0.1283  0.1139
82009W        W82873   5.248  26.459  18.315  0.1315  0.0646  0.0358
82010W        W82874  20.008   4.321  11.868  0.3097 -0.0658 -0.0346
82011W        W82875  15.933  22.593  23.024  0.1181  0.5008  0.0833
82012W        W82876   6.889   8.523  18.329 -0.0113 -0.1494  0.2344
82013W        W82877  28.079   1.747  25.143 -0.0826 -0.0184  0.1464
82014W        W82878   0.301   1.329  26.186 -0.0772  0.0742 -0.2045
82015W        W82879  23.726   4.150  12.684  0.2894 -0.2246  0.0966
82016W        W82880  10.326  25.614  10.266 -0.3283 -0.2611  0.0016
82017W        W82881   6.363   7.372   4.013 -0.0472  0.1291 -0.0473
82018W        W82882   5.625  28.124  24.154  0.0340  0.2517 -0.2678
82019W        W82883  19.038  27.679  23.786  0.0527 -0.0032  0.1051
82020W        W82884  17.751  27.006  28.810  0.1230 -0.0847 -0.0834
82021W        W82885  18.869   8.185  17.042 -0.0855  0.3394 -0.1408
82022W        W82886  21.866   5.933   7.959  0.0437 -0.1738  0.1020
82023W        W82887  22.003   6.815  13.063 -0.3312  0.0997 -0.1354
82024W        W82888  10.307   7.829  13.202 -0.0504  0.2202  0.1199
82025W        W82889   6.930   0.459  13.925 -0.2566 -0.0288  0.0932
82026W        W82890   8.708  15.667  13.088  0.0218  0.2289 -0.3456
82027W        W82891  23.528  23.693  20.928 -0.0929  0.1315 -0.0141
82028W        W82892  20.857   1.180  14.628  0.1624 -0.1343  0.1654
82029W        W82893  28.750  23.384  20.416  0.0233  0.0592  0.0737
82030W        W82894   1.676  24.429  18.827  0.0753 -0.0070 -0.1100
82031W        W82895   8.371  23.150   6.270  0.0480 -0.2798  0.1615
82032W        W82896  24.610   9.213   2.405 -0.3338 -0.3837 -0.0612
82033W        W82897  26.047  12.447  25.148  0.0631 -0.0276  0.1272
82034W        W82898   3.538  24.472  25.762  0.1449 -0.1978 -0.1052
82035W        W82899  28.089  17.844   3.693  0.0987 -0.2952 -0.3018
82036W        W82900  17.666   6.677  12.322  0.0671  0.2340  0.2923
82037W        W82901  18.945  17.818  15.953 -0.1683 -0.0670 -0.2298
82038W        W82902  24.929   8.295  19.952  0.1015  0.2217  0.2189
82039W        W82903  13.544  24.280  15.490  0.2459  0.0625  0.0792
82040W        W82904   3.451   3.130   5.411 -0.1882 -0.1077  0.0095
82041W        W82905  27.267   5.577   9.283 -0.0664 -0.0823  0.3965
82042W        W82906  25.034   6.154  25.588 -0.1046  0.1650  0.2160
82043W        W82907  13.491   9.197   9.577  0.1903 -0.2103 -0.0172
82044W        W82908   9.084  11.602  17.424 -0.1428 -0.0596  0.3021
82045W        W82909  19.716   7.266  28.491 -0.1555  0.0611 -0.1516
82046W        W82910  12.111  17.550  22.261  0.0021  0.1747 -0.1712
82047W        W82911   7.778  16.001  17.873  0.0300  0.0868  0.0580
82048W        W82912   8.540   4.215  20.323  0.0358 -0.2288  0.2362
82049W        W82913  23.324  18.760   7.697  0.0145  0.0923 -0.1201
82050W        W82914  17.492  27.409  17.930  0.0218  0.0224 -0.0932
82051W        W82915  22.525   8.140  24.045  0.1142 -0.0625 -0.0903
82052W        W82916   6.696   9.547  27.694 -0.4223  0.5398 -0.0061
82053W        W82917  15.901  11.306  25.147  0.1018  0.0883  0.0340
82054W        W82918   5.914  19.779   2.917  0.1268  0.0636 -0.4153
82055W        W82919  21.393   7.156  23.259  0.0704  0.1631 -0.1196
82056W        W82920  20.733  21.604  19.887  0.1296 -0.2585 -0.0327
82057W        W82921  13.754  28.956  13.612  0.2889  0.0070  0.1615
82058W        W82922  21.369  20.904   3.367 -0.0440 -0.2562  0.3023
82059W        W82923  21.680  16.443  16.569 -0.1167 -0.0337 -0.4640
82060W        W82924  20.752  13.711  12.774 -0.3520  0.3276  0.1025
82061W        W82925   2.164  27.372  27.810  0.1839 -0.3793  0.0721
82062W        W82926  14.173  28.924   8.694 -0.0876  0.2747 -0.2622
82063W        W82927   9.196   7.714  25.106 -0.1837 -0.0765 -0.2636
82064W        W82928  15.910  21.595  22.526 -0.1022  0.3127 -0.1894
82065W        W82929   8.517  24.005  28.548  0.0646  0.0196  0.1061
82066W        W82930   6.682  20.365   7.188 -0.0682  0.1849  0.2555
82067W        W82931   1.499  24.050  11.544 -0.1191  0.3002  0.2705
82068W        W82932   4.287  11.203  22.304  0.1479 -0.1193  0.4063
82069W        W82933  11.023   7.197   4.040 -0.0124 -0.2756  0.0994
82070W        W82934  16.137  26.269  22.132 -0.0248 -0.0029  0.0581
82071W        W82935  16.172  19.090  25.826  0.2185  0.2015 -0.1118
82072W        W82936  18.281  18.861   6.347 -0.1145  0.0015  0.0423
82073W        W82937  16.879  17.678   9.131  0.2598  0.0546  0.2616
82074W        W82938  18.662  22.814  23.919 -0.0240  0.0569 -0.0500
82075W        W82939   9.876   6.474  10.762 -0.1652 -0.0033  0.2390
82076W        W82940  22.689  10.471  15.130 -0.3498  0.0359 -0.0051
82077W        W82941  21.115   2.513  15.149  0.1247 -0.0036 -0.2438
82078W        W82942  24.319   2.089   9.124  0.1064  0.1345  0.1290
82079W        W82943  18.694  20.945   8.000 -0.4189 -0.0053  0.5879
82080W        W82944  18.848   5.515   4.443 -0.1398  0.1541  0.0866
82081W        W82945  14.824   3.616   4.778  0.0133  0.1377 -0.0209
82082W        W82946  24.277  17.524  13.388  0.0736 -0.2818 -0.0773
82083W        W82947  26.643  12.709  28.055 -0.0570  0.0268  0.1401
82084W        W82948   6.509  18.277  20.684 -0.0425 -0.0756  0.0854
82085W        W82949  17.798  10.694  24.203 -0.2339  0.3841 -0.0001
82086W        W82950   4.530  12.313  15.892 -0.0309  0.4047  0.2210
82087W        W82951   6.487  28.678   9.920  0.0082 -0.0788 -0.0261
82088W        W82952   9.329   9.994   2.633  0.2613  0.1086 -0.3879
82089W        W82953  10.069  18.269  16.495  0.1171 -0.0752  0.1016
82090W        W82954  17.228   6.809  17.673  0.1771 -0.0482  0.1286
82091W        W82955  14.362   4.157  18.924 -0.0679 -0.1774 -0.0679
82092W        W82956  16.155  20.327  20.371 -0.0863 -0.1182  0.1197
82093W        W82957  13.845   2.832  11.815  0.0005  0.0031  0.1278
82094W        W82958  26.582   6.971  20.112  0.0625 -0.1205 -0.2892
82095W        W82959  14.744   4.824  21.026  0.2499  0.1096  0.1594
82096W        W82960   7.451  12.788  20.316  0.0542 -0.0447  0.1847
82097W        W82961  25.999  24.151  24.806  0.0001 -0.5003  0.2591
82098W        W82962  28.529   5.504  14.802  0.2088  0.0214 -0.1719
82099W        W82963  29.125   9.926  19.332 -0.1038  0.1457 -0.3061
82100W        W82964  17.858   8.775  15.143 -0.0398  0.1421  0.0629
82101W        W82965   0.241  16.978   2.454  0.0231 -0.2131 -0.0440
82102W        W82966  22.619  24.286  15.939 -0.1172  0.2722  0.3657
82103W        W82967  29.015   7.811  24.375 -0.2013 -0.1513  0.2559
82104W        W82968   9.729  11.998  17.127 -0.0079  0.0335  0.1041
82105W        W82969  20.256   1.974  12.508 -0.2593  0.0948  0.3889
82106W        W82970  11.483  27.307   3.758 -0.1487  0.2652  0.1970
82107W        W82971  18.248  18.936  24.625 -0.0417  0.1002  0.2529
82108W        W82972   0.740   9.549  28.128  0.3208 -0.3621 -0.2724
82109W        W82973  29.021   8.059  28.995  0.0574  0.2506  0.0474
82110W        W82974   2.550   4.266  12.333 -0.1828 -0.1700 -0.0844
82111W        W82975   1.642   6.210  19.967  0.0551  0.2742 -0.1427
82112W        W82976  12.300   4.554   8.726  0.2051 -0.0872 -0.3801
82113W        W82977   9.490   1.058   5.233 -0.0345 -0.0028  0.3443
82114W        W82978   2.853   1.116  14.779  0.0988 -0.0894 -0.0551
82115W        W82979   5.033   0.427   7.609 -0.3750 -0.0566 -0.1583
82116W        W82980  10.104  22.975  23.416  0.1233  0.4696 -0.1652
82117W        W82981  12.636   2.829  12.136  0.1474  0.4766 -0.0069
82118W        W82982  24.198  11.512  13.180 -0.1278  0.1577  0.0901
82119W        W82983   1.510  11.705   8.718  0.1769  0.0636 -0.0756
82120W        W82984   3.531   2.894   3.778 -0.0297  0.0644 -0.0287
82121W        W82985   3.401  10.014  19.244  0.1873 -0.0490  0.2308
82122W        W82986  11.052   7.896  26.541 -0.1122 -0.1765 -0.0159
82123W        W82987  24.031   0.013  16.998  0.1714 -0.0144  0.0064
82124W        W82988   2.131  28.351   6.626  0.1272 -0.0012  0.2124
82125W        W82989  12.640  17.583  17.872 -0.0321 -0.2312  0.0320
82126W        W82990  24.784  10.180  27.944 -0.0379  0.3307  0.1395
82127W        W82991  22.249   5.588   3.942  0.0848  0.0647  0.2727
82128W        W82992   3.046  11.246   4.437  0.1998 -0.0547  0.2176
82129W        W82993   9.989  11.769  10.647  0.1659 -0.1918  0.3075
82130W        W82994  27.309   7.760  13.687  0.2933 -0.0966 -0.3113
82131W        W82995  13.970   8.423  13.529 -0.1164 -0.0155 -0.0795
82132W        W82996   8.350  17.144  21.402  0.2878 -0.0159 -0.4156
82133W        W82997   4.989   5.155  11.104 -0.2518 -0.1999 -0.1459
82134W        W82998  12.403   0.284  13.428  0.3667  0.3688 -0.2468
82135W        W82999  20.463  12.254  18.991  0.0126 -0.5788  0.0711
82136W        W83000   3.820  10.486  14.785 -0.1166  0.0202 -0.2305
82137W        W83001  25.415  28.967   7.805  0.1532  0.1357 -0.0023
82138W        W83002  21.103  28.914  14.278 -0.0482  0.0246  0.4375
82139W        W83003   4.545  16.666   5.507  0.3087 -0.1255 -0.3445
82140W        W83004  15.576   9.600  21.381 -0.3761  0.0730 -0.3964
82141W        W83005   8.687  13.044  11.744  0.3477  0.1654 -0.2186
82142W        W83006   4.160   9.566   6.988 -0.0200 -0.0625  0.5872
82143W        W83007  18.349  10.141   8.456 -0.1078 -0.1121  0.0726
82144W        W83008   0.995  19.701   8.736  0.0920 -0.2477  0.1287
82145W        W83009  11.461   7.698  20.445  0.0560 -0.0195 -0.2002
82146W        W83010   4.059   5.245  20.764 -0.5313 -0.1757 -0.0786
82147W        W83011  23.290   0.260  20.202 -0.4610  0.1506 -0.1068
82148W        W83012  17.539  22.388  10.101 -0.2416 -0.1007 -0.0222
82149W        W83013  16.118  15.523  17.300 -0.0357 -0.2847 -0.0830
82150W        W83014  14.135   1.002  28.784 -0.0233  0.1770 -0.0543
82151W        W83015  15.734   4.868  26.248  0.0135 -0.2778 -0.0818
82152W        W83016   8.144  14.621  21.198 -0.0250  0.2755 -0.2125
82153W        W83017   7.290   9.679   8.908  0.0944 -0.0813  0.0705
82154W        W83018  22.599   5.984  25.068  0.0526 -0.1535 -0.0010
82155W        W83019  13.361   2.530  17.071 -0.2496  0.1550 -0.0880
82156W        W83020  16.643  23.251  12.756 -0.1262  0.0266 -0.0709
82157W        W83021   3.710  12.603  25.581 -0.3110 -0.0841 -0.1259
82158W        W83022  17.180  17.778  24.458  0.3152 -0.5246 -0.1602
82159W        W83023   7.943  18.330   4.794 -0.2778 -0.1095 -0.3672
82160W        W83024  19.433   9.556   5.109  0.0155 -0.0133  0.1775
82161W        W83025  18.765  28.195  26.150 -0.2250 -0.2034 -0.2724
82162W        W83026  27.499  22.604  14.913  0.0860 -0.1526  0.3186
82163W        W83027  28.746  17.725   2.492 -0.1850 -0.2397 -0.0725
82164W        W83028  22.859  27.524  25.251 -0.1547 -0.3218  0.1748
82165W        W83029   4.461   1.472   6.478 -0.0798 -0.2272  0.1875
82166W        W83030  10.877   5.630  26.150  0.0457 -0.0170 -0.1345
82167W        W83031   9.384   7.630  15.151  0.1384  0.2520 -0.1107
82168W        W83032   0.003   2.011   2.543 -0.0052 -0.1718  0.0764
82169W        W83033  24.714   1.758   9.281 -0.1909 -0.3392 -0.1208
82170W        W83034  12.681  11.011  27.014  0.1032  0.0020  0.0934
82171W        W83035  25.734  26.117  16.730 -0.1893 -0.1561 -0.3952
82172W        W83036   3.329   8.306  10.431  0.0898  0.2306  0.2187
82173W        W83037  14.475   9.083  13.088  0.0129  0.1192  0.2093
82174W        W83038  19.146  21.178   5.652  0.2007  0.1861 -0.1684
82175W        W83039  12.899  13.752  16.441  0.0853  0.5585  0.4357
82176W        W83040  22.679  14.302  17.461  0.2071 -0.0384  0.0468
82177W        W83041  13.223  24.122  24.170 -0.1405 -0.1739 -0.1434
82178W        W83042  12.706   8.525  21.861  0.0943  0.0405 -0.0402
82179W        W83043  28.286  17.216  27.909  0.1223  0.2054  0.1020
82180W        W83044  14.646   8.790   9.507  0.0300 -0.4603  0.1868
82181W        W83045  21.689   4.248  10.390 -0.1966  0.2072 -0.2905
82182W        W83046  16.210  19.225  21.380  0.1152 -0.2152  0.2501
82183W        W83047  23.320  19.103  17.089  0.1630  0.1549  0.2141
82184W        W83048  20.653   3.214  27.723 -0.3559  0.0331  0.0354
82185W        W83049  16.114  12.714  16.831  0.0405  0.3309 -0.0916
82186W        W83050  25.312  16.377   0.970  0.2177 -0.2396  0.5252
82187W        W83051   9.965  27.752  19.808  0.2642 -0.2646 -0.2625
82188W        W83052  29.045  13.448  20.184  0.2019 -0.0776 -0.0926
82189W        W83053  22.791   5.049   6.915 -0.0026  0.0362 -0.0321
82190W        W83054  20.375  28.837  16.245  0.2382 -0.2127  0.0582
82191W        W83055  13.515   8.910  21.766  0.1408 -0.3248  0.0275
82192W        W83056  23.640   0.048  14.828  0.0979  0.4002  0.2037
82193W        W83057   3.965   4.607  27.166 -0.1383 -0.2262  0.1000
82194W        W83058  26.778  25.209   5.960  0.2064 -0.0317 -0.2052
82195W        W83059  14.118   6.400  21.665 -0.0081  0.1551  0.1685
82196W        W83060   2.170   1.390   0.607 -0.2174  0.1683  0.1427
82197W        W83061  19.522  24.741   9.379  0.1484  0.0693 -0.2089
82198W        W83062  12.999   8.667  15.477 -0.0238 -0.3388 -0.2650
82199W        W83063  16.287   7.779  23.947  0.1227 -0.0574  0.0865
82200W        W83064  11.157  22.076  21.068  0.3242  0.2468 -0.0230
82201W        W83065   7.079   1.221   3.413 -0.0262 -0.3633  0.3439
82202W        W83066   8.847  25.145  12.373  0.2009  0.3148  0.0444
82203W        W83067  15.638  12.642  25.763  0.1331  0.1290  0.3089
82204W        W83068  13.073  11.079   9.855  0.0126 -0.0241  0.2635
82205W        W83069   1.585  10.082  22.400 -0.1185 -0.2997  0.2054
82206W        W83070  20.509  23.584  14.949  0.0274 -0.0212 -0.2122
82207W        W83071  26.631  25.812  28.174 -0.0165 -0.0305  0.3540
82208W        W83072  13.746  16.957   0.620  0.0010 -0.1177  0.0087
82209W        W83073  11.577   8.412   9.606  0.2392  0.0704 -0.0483
82210W        W83074  12.196   4.702  23.390 -0.2157 -0.3400 -0.1522
82211W        W83075   5.733  28.003  13.921  0.0497 -0.0425 -0.1772
82212W        W83076  16.282   0.875   2.370  0.3294  0.1658 -0.1816
82213W        W83077  18.876  28.795  18.896 -0.1560  0.0338  0.0724
82214W        W83078   9.746  26.041   8.048  0.0289  0.4188  0.0883
82215W        W83079  26.103  23.664  17.473  0.3323 -0.1706  0.0944
82216W        W83080   8.723  28.643  21.686  0.1246 -0.0217  0.1549
82217W        W83081  12.962   2.627  11.257  0.1858 -0.0123  0.0767
82218W        W83082  20.342  27.139  15.561  0.1066 -0.2284  0.0201
82219W        W83083  17.694  10.057  21.673 -0.0192 -0.2295 -0.1212
82220W        W83084  23.788   7.815  23.915 -0.1625 -0.0563  0.2564
82221W        W83085   6.949   8.426  28.059 -0.2606 -0.0443 -0.1453
82222W        W83086   8.650  25.056   1.931 -0.0517  0.0793  0.0739
82223W        W83087   9.526  12.556  20.091 -0.0499  0.0754 -0.2455
82224W        W83088  26.212   9.773  12.281  0.0833 -0.0115  0.2440
82225W        W83089  28.846   1.422  27.409 -0.0653 -0.0535 -0.0446
82226W        W83090  28.603  21.000  19.394  0.2195 -0.0121  0.3778
82227W        W83091   3.102  21.094  14.904  0.1611 -0.0126  0.0753
82228W        W83092  19.569  13.413   0.987 -0.1253  0.1888  0.1143
82229W        W83093  29.039   1.459  28.774 -0.3437 -0.3289  0.4226
82230W        W83094  25.114  23.452  11.298 -0.0446  0.2001  0.0527
82231W        W83095  20.240   9.222  28.763  0.1705  0.2918 -0.0273
82232W        W83096  15.649   2.961   6.694 -0.1418 -0.0668 -0.0958
82233W        W83097  14.422  16.212  26.795  0.2298 -0.1898  0.2510
82234W        W83098  13.855  13.575  21.844 -0.2861 -0.1314  0.0562
82235W        W83099  25.367  23.453  18.673  0.0967 -0.0877  0.3529
82236W        W83100   6.764  14.606  22.854  0.0736  0.0186  0.2324
82237W        W83101   0.774   7.985  25.151  0.1543  0.0193  0.2821
82238W        W83102  18.993  26.141  19.148 -0.0673  0.1197 -0.1435
82239W        W83103  26.915  26.824   2.624 -0.4149  0.2024  0.0320
82240W        W83104  23.881  11.728  15.321 -0.0247  0.0472 -0.0865
82241W        W83105  20.007  24.543  27.973  0.0584 -0.2161 -0.3135
82242W        W83106   2.312  24.388  23.252  0.1356 -0.3369  0.0524
82243W        W83107   6.251  20.431  10.450  0.2826  0.0805 -0.0740
82244W        W83108   5.983  14.940   8.533 -0.0278  0.1090  0.1110
82245W        W83109  21.533   8.887  20.921 -0.0733 -0.3021 -0.3770
82246W        W83110  10.805   2.400   7.133  0.2947  0.0407 -0.2463
82247W        W83111  14.484  11.918   5.899  0.1270 -0.2543 -0.4335
82248W        W83112   5.964  25.613   8.731 -0.1022 -0.0488 -0.1317
82249W        W83113   0.039  29.123  25.077 -0.0320  0.1981  0.0523
82250W        W83114   2.961  17.728  20.505  0.1283 -0.2548 -0.1520
82251W        W83115   2.817  10.910  24.482 -0.2071 -0.3661  0.1346
82252W        W83116  20.274  17.131  21.630  0.1103 -0.0566 -0.0617
82253W        W83117  17.612   9.664  15.446 -0.1900  0.3381  0.1073
82254W        W83118  28.777   1.872   2.859 -0.0758  0.1489  0.0177
82255W        W83119   2.017   3.217  27.970  0.0864 -0.1557 -0.0133
82256W        W83120   9.954   5.910  17.933 -0.0485  0.2263 -0.2428
82257W        W83121  12.297  18.262  12.963  0.1890  0.2958 -0.0833
82258W        W83122   6.250  17.600  14.250 -0.1093 -0.0696  0.0735
82259W        W83123  12.961   3.330  28.410 -0.0627  0.2119  0.3021
82260W        W83124   4.498   3.562  14.812 -0.0832 -0.1643  0.2482
82261W        W83125  17.625   8.037  16.208  0.1348 -0.2513 -0.2137
82262W        W83126  24.570  25.899  21.892 -0.0169  0.0048 -0.0424
82263W        W83127  15.469   1.200  16.455 -0.2606  0.0660  0.0637
82264W        W83128  16.913   4.437   9.250  0.2575  0.2877 -0.0153
82265W        W83129  25.348  18.601  18.818  0.1730 -0.0124  0.1256
82266W        W83130  12.344   9.870   6.300 -0.0733 -0.3259  0.5892
82267W        W83131   9.516   6.596   5.686  0.0366 -0.0076  0.0148
82268W        W83132  20.361   5.095   8.838 -0.1573  0.1103 -0.0964
82269W        W83133   7.575  23.265  17.369  0.2763 -0.1599 -0.1246
82270W        W83134  22.081   7.541  21.998  0.1336  0.2413  0.2361
82271W        W83135   6.530  21.291   2.973  0.0414  0.2986 -0.0644
82272W        W83136   2.093   4.717   8.420 -0.0659 -0.0281 -0.4431
82273W        W83137  10.902   0.143  24.163 -0.1768 -0.0224 -0.1066
82274W        W83138  10.000  10.069  18.781  0.2584 -0.0892 -0.0563
82275W        W83139   1.976  23.738  26.068 -0.1029 -0.0808  0.1432
82276W        W83140  22.205   4.987  12.292 -0.1415  0.1744  0.0178
82277W        W83141  14.966  28.744  11.876  0.1768  0.0850 -0.1166
82278W        W83142  24.924   0.140   7.587  0.1205  0.1206 -0.1105
82279W        W83143  20.876   4.383  14.995 -0.2122 -0.3258 -0.0306
82280W        W83144   4.127   4.662   9.981  0.0104  0.1018  0.1356
82281W        W83145  16.343   3.276   8.449  0.1800  0.0967  0.0569
82282W        W83146  10.212  16.748  25.982 -0.0986 -0.0027  0.1667
82283W        W83147  27.754   5.839  26.603 -0.0703 -0.1024 -0.2320
82284W        W83148  23.773  23.216   5.194 -0.0185 -0.0586  0.0627
82285W        W83149   0.647   3.237  19.478  0.0150  0.1273  0.0452
82286W        W83150  13.559  14.429   1.389  0.3540 -0.0052 -0.1348
82287W        W83151   9.981  10.819   5.667  0.1819 -0.0461  0.1598
82288W        W83152  24.647   2.112   7.735 -0.1964 -0.0542  0.2782
82289W        W83153   3.377  23.347  19.336  0.1523 -0.1730  0.2059
82290W        W83154  18.403   9.007  18.476 -0.0445  0.3330  0.2131
82291W        W83155  12.279   7.997  14.565  0.0019 -0.2386 -0.1578
82292W        W83156  20.898   3.910  28.516  0.3631  0.0003 -0.0420
82293W        W83157   2.687  19.188  23.756  0.5654  0.2494 -0.2078
82294W        W83158  15.712  17.556  19.755  0.2262  0.4310 -0.1284
82295W        W83159   4.239  15.539  15.903  0.2290  0.0559 -0.0542
82296W        W83160  26.542   9.571   1.540  0.3245 -0.0128  0.2386
82297W        W83161  12.297  20.198  12.714 -0.0732 -0.0225  0.0131
82298W        W83162  18.278   3.410  21.324 -0.1298 -0.3393  0.0926
82299W        W83163  22.327  19.551  20.277  0.0755 -0.1846  0.1991
82300W        W83164   8.749  19.456  15.588  0.0070 -0.0989  0.4375
82301W        W83165  19.193   2.800  14.385 -0.0108  0.1463 -0.2657
82302W        W83166  28.273   1.742  18.587  0.0579  0.1933 -0.1607
82303W        W83167  15.826  14.161   2.733  0.2038 -0.0012 -0.2244
82304W        W83168   6.593  23.795  27.529 -0.0830  0.2287  0.2951
82305W        W83169  19.017  11.172  28.965  0.0473  0.2360  0.0966
82306W        W83170  13.814  13.665   4.431 -0.0515  0.2376 -0.0231
82307W        W83171   1.524  11.483   3.487  0.0677 -0.1272 -0.0354
82308W        W83172   3.324  17.556  23.104 -0.2882  0.0561 -0.0343
82309W        W83173  11.843  14.774  25.275  0.0782  0.0865 -0.0795
82310W        W83174   1.039   7.972  13.827  0.0058  0.0895 -0.1441
82311W        W83175   9.491  26.860  16.490  0.0007  0.0865  0.2802
82312W        W83176  12.454  27.604  11.295 -0.1411 -0.1780 -0.3279
82313W        W83177  19.412  22.305   8.342  0.0366  0.2145 -0.0266
82314W        W83178   9.078   0.996  15.622  0.0191 -0.0830  0.0017
82315W        W83179   2.116   3.665   5.793  0.0263  0.0243  0.2037
82316W        W83180  28.607  10.450  26.266 -0.1532  0.2485  0.5084
82317W        W83181  17.513   4.763   9.995  0.1846  0.1322  0.3167
82318W        W83182  11.884   0.581   8.059  0.0389 -0.2351  0.2899
82319W        W83183  12.752  24.558  11.580 -0.0809  0.2163 -0.0772
82320W        W83184  16.797  25.551  13.260 -0.0582  0.0759  0.0304
82321W        W83185  18.041  27.817  15.555 -0.0879  0.0011 -0.0987
82322W        W83186  11.910   0.754  16.408 -0.0587 -0.3060  0.1374
82323W        W83187  17.249   8.697   3.325 -0.3025  0.0504 -0.1018
82324W        W83188   4.426  25.121  10.219  0.4523 -0.1065 -0.0203
82325W        W83189  12.635  16.125  17.945 -0.1390 -0.0761 -0.0304
82326W        W83190  28.638  14.076  27.769 -0.4170  0.1714 -0.1351
82327W        W83191   9.480   3.387   4.934 -0.4916 -0.1521 -0.1702
82328W        W83192  20.717  12.743  19.847  0.0828 -0.2687 -0.0028
82329W        W83193  10.124  16.324  20.614 -0.1638  0.0695  0.2312
82330W        W83194  19.190  11.020  20.241  0.1055 -0.0952 -0.0851
82331W        W83195  21.590  20.023  23.848  0.0211 -0.0607 -0.0270
82332W        W83196  29.084  16.955  24.190  0.1188 -0.1074 -0.0022
82333W        W83197  26.228   5.161   1.341 -0.0205  0.0490 -0.0438
82334W        W83198  10.926  17.668   2.284 -0.1906  0.1833  0.5716
82335W        W83199   7.431  25.773   7.337  0.1233  0.0042  0.0802
82336W        W83200   1.877   3.623  24.244  0.0228 -0.0831 -0.0671
82337W        W83201   4.189  16.207  12.869 -0.0261  0.0630 -0.3624
82338W        W83202  15.603   0.878  18.043 -0.1437 -0.1179 -0.0277
82339W        W83203   6.438  22.688  15.755  0.2323 -0.1315 -0.1185
82340W        W83204   9.552   1.651   2.906 -0.0923  0.0302 -0.2968
82341W        W83205  11.262   4.843   0.620  0.1044  0.0414  0.2342
82342W        W83206  26.998   0.576  26.961  0.0555  0.3146  0.1007
82343W        W83207  27.458   4.826  19.549  0.2776  0.0145 -0.4353
82344W        W83208   3.263  26.765  21.326 -0.3686  0.3648  0.2369
82345W        W83209  13.312   3.102  28.021 -0.3248 -0.0466  0.1590
82346W        W83210  10.589  25.433  17.106  0.0073  0.0132  0.0807
82347W        W83211  13.888  26.554  20.697  0.2755 -0.0548 -0.1499
82348W        W83212   0.186   3.614  24.226 -0.1375  0.1978 -0.0797
82349W        W83213  15.871   7.508  19.854  0.0386  0.1661 -0.2797
82350W        W83214  10.672  21.824   8.485  0.1841  0.0426 -0.1200
82351W        W83215  16.573   0.723   3.353  0.0773 -0.2190  0.1123
82352W        W83216  16.798  14.169   1.597  0.1010 -0.2170 -0.1567
82353W        W83217   8.332  15.327  10.134 -0.1244  0.3207 -0.2766
82354W        W83218  27.958   1.702  22.400 -0.2414 -0.0551 -0.1275
82355W        W83219  12.371   1.191  22.090  0.2003 -0.0004  0.0326
82356W        W83220  19.867   7.347  17.715  0.1007  0.2858 -0.3327
82357W        W83221   1.699  24.559  17.682  0.2867  0.1659 -0.0539
82358W        W83222  13.994  13.527  19.298 -0.0614  0.1741 -0.2723
82359W        W83223  11.264   4.586  22.071  0.1516 -0.1755 -0.2958
82360W        W83224  13.937  27.916  22.653  0.2058  0.0888 -0.0056
82361W        W83225  23.357   1.802  27.495 -0.0318 -0.2751 -0.2021
82362W        W83226   3.841  20.910  27.332  0.1676 -0.0456 -0.0876
82363W        W83227   7.763  14.060  26.198 -0.0457  0.5224  0.1253
82364W        W83228  18.548   2.523  15.694 -0.0825 -0.1229  0.1310
82365W        W83229  24.088   9.099   4.455  0.1170  0.0463 -0.2230
82366W        W83230   4.845  23.988  19.301  0.1139 -0.2824  0.2428
82367W        W83231  16.124   0.228  10.974  0.1174  0.0005 -0.0588
82368W        W83232   7.171   6.864  20.207 -0.3027 -0.0151  0.2505
82369W        W83233  18.847  13.575  24.324  0.1033 -0.2861  0.0465
82370W        W83234  11.434  24.174   4.043  0.0525  0.0597  0.0464
82371W        W83235   7.029  17.649   0.122  0.0860 -0.0147  0.1785
82372W        W83236   9.687   2.258  14.592  0.1170 -0.0617  0.1999
82373W        W83237  15.496  10.367  28.721 -0.3345 -0.0247 -0.2355
82374W        W83238   7.236   5.477  28.851 -0.0699  0.0629 -0.2865
82375W        W83239  16.907  21.171  22.965 -0.0522 -0.0112  0.2298
82376W        W83240  24.930   1.994  15.138  0.0407  0.0936  0.0783
82377W        W83241  22.006  28.608   2.089 -0.0059 -0.0609 -0.0742
82378W        W83242   0.753  19.537  16.674  0.0104  0.0874 -0.1392
82379W        W83243  15.983   0.349  27.329 -0.0476 -0.0922 -0.0609
82380W        W83244  22.640   6.843  20.525  0.1089 -0.5257 -0.1587
82381W        W83245   7.516   1.814  10.402 -0.2416  0.1482  0.2678
82382W        W83246  25.816   9.845  24.288 -0.2535  0.2118  0.0478
82383W        W83247   4.968  19.280  25.811 -0.2301 -0.1804 -0.0540
82384W        W83248  17.606  10.376  11.378 -0.1772  0.1609 -0.4041
82385W        W83249   5.289   6.077  25.343  0.0375 -0.1363  0.2143
82386W        W83250  23.367   8.575  28.604  0.1812  0.1562 -0.2133
82387W        W83251   0.281  10.688   4.283  0.0338 -0.1436  0.1106
82388W        W83252  14.488   2.219   1.136 -0.1825 -0.2606  0.0263
82389W        W83253   2.808  14.997   0.726  0.0963 -0.0600  0.2582
82390W        W83254  25.461   1.239  22.767  0.1247 -0.0724 -0.3356
82391W        W83255  22.400  13.882  17.542  0.2094 -0.3477  0.1387
82392W        W83256  16.413  21.896   2.825 -0.0537  0.4857 -0.1913
82393W        W83257  18.184  24.257  18.656  0.0574 -0.1681 -0.3013
82394W        W83258  26.059   8.740  28.389  0.1103  0.0620  0.2253
82395W        W83259   7.942  27.608  11.702 -0.1319 -0.1733 -0.0428
82396W        W83260  10.051   5.760  15.581 -0.2466  0.1100  0.0560
82397W        W83261  11.329  28.635  25.502  0.0031  0.2284 -0.0532
82398W        W83262   3.653  24.755  10.859  0.0096  0.2522 -0.3757
82399W        W83263  27.011   2.457  28.272 -0.1115 -0.2829 -0.0206
82400W        W83264  11.724  13.000  28.886 -0.2197 -0.0875 -0.1121
82401W        W83265  15.307  12.099  28.120  0.0979  0.1194 -0.0149
82402W        W83266  23.901   5.147  18.150  0.2111 -0.0131  0.0239
82403W        W83267  27.132  28.764  16.899  0.1196 -0.0456 -0.1621
82404W        W83268  11.563  20.932  28.505 -0.1193  0.0418  0.2625
82405W        W83269   1.347   1.706  28.460  0.1508 -0.2196  0.5533
82406W        W83270  17.980  17.185  22.291 -0.0094 -0.0045 -0.1102
82407W        W83271  16.109  12.162  11.502  0.1747 -0.1805 -0.0635
82408W        W83272  20.818  16.953  15.329 -0.3036  0.0199 -0.0469
82409W        W83273  25.419   2.718   3.696  0.2840  0.1165 -0.0136
82410W        W83274   1.418   4.796  20.113  0.2194 -0.0747  0.0426
82411W        W83275  24.092   9.442   4.803  0.3332 -0.1480 -0.2520
82412W        W83276   1.710  17.021   0.582  0.0205  0.0514 -0.0004
82413W        W83277   2.281   8.882  18.752 -0.0479  0.2414  0.3216
82414W        W83278  22.433  28.256  24.858  0.1262  0.0217 -0.0472
82415W        W83279  24.470  18.630  25.040 -0.1605  0.0932 -0.1880
82416W        W83280  21.084   7.974  13.464 -0.1982 -0.2494  0.2211
82417W        W83281  24.161   7.827  22.012 -0.1323  0.0405  0.1387
82418W        W83282  15.168  24.189  24.517 -0.0651  0.3951 -0.0508
82419W        W83283   1.248   2.324  13.550  0.1067 -0.1022 -0.2390
82420W        W83284  25.392  16.904  22.258 -0.0327 -0.0485 -0.0661
82421W        W83285  15.619  11.557  25.557  0.0848 -0.2428  0.2124
82422W        W83286  19.057  12.399   3.643  0.1075  0.1254  0.0557
82423W        W83287  17.315  17.871   8.844  0.1019  0.2686  0.0380
82424W        W83288   1.180   3.844  20.265  0.1858 -0.6584 -0.0264
82425W        W83289  11.574  20.294  13.163 -0.3317  0.0106 -0.1327
82426W        W83290  27.378  26.553  10.158 -0.0235  0.2169  0.1993
82427W        W83291   9.659  17.993  16.468 -0.0442  0.2439  0.1630
82428W        W83292   7.557  16.292  18.976 -0.3662  0.0727 -0.0212
82429W        W83293  15.184   7.918  27.325  0.4374  0.0706 -0.2758
82430W        W83294   8.857  12.399  24.757 -0.2394 -0.1544 -0.1370
82431W        W83295  11.096   4.457  11.857 -0.2801  0.0227  0.2085
82432W        W83296  22.645   4.884  27.485 -0.1297  0.0358 -0.2417
82433W        W83297   2.715  25.929  29.004 -0.4154  0.4753 -0.1441
82434W        W83298  27.451   9.589   0.982  0.0958  0.1479 -0.3827
82435W        W83299   9.557  16.263  23.247 -0.1240  0.1401  0.0398
82436W        W83300  16.899  28.148  23.478  0.0185 -0.1675 -0.2475
82437W        W83301  17.647  11.522   4.142 -0.3234  0.2834  0.3276
82438W        W83302   7.225  15.305  28.997 -0.2729 -0.1143  0.1901
82439W        W83303  15.815  15.510  10.902 -0.1453  0.1749  0.0411
82440W        W83304  18.243   8.579  24.643 -0.0139  0.2852 -0.2124
82441W        W83305  19.552  26.888   9.585  0.2182 -0.1748  0.1033
82442W        W83306   1.782  18.865   1.341 -0.1138 -0.3116 -0.3069
82443W        W83307  15.940   1.560  26.618 -0.0306  0.0908 -0.1791
82444W        W83308  20.306  16.137  24.391 -0.3262  0.2735  0.1394
82445W        W83309  27.824  21.481  16.638  0.2978 -0.0286 -0.1794
82446W        W83310   4.603  16.655  23.802  0.2704 -0.0030 -0.2090
82447W        W83311  24.597  26.024  20.113  0.2871 -0.2260  0.1105
82448W        W83312   4.554   7.366  26.951 -0.0934 -0.1601  0.3649
82449W        W83313   4.827   4.809  26.727  0.0427  0.4149 -0.1638
82450W        W83314  26.398  26.303   9.303 -0.1341 -0.0549  0.0472
82451W        W83315  21.649   5.189  20.397  0.1701 -0.3216 -0.3484
82452W        W83316  18.714  24.815   5.408  0.1393  0.0265 -0.1624
82453W        W83317  17.135  25.134  24.802  0.2142 -0.0132 -0.1761
82454W        W83318   8.892   7.010  22.660  0.2050 -0.0447  0.0984
82455W        W83319  22.053  11.021  11.626 -0.0816 -0.0736  0.0264
82456W        W83320  22.221   8.118  20.446 -0.0311  0.0313 -0.0077
82457W        W83321  10.265  27.632  16.546 -0.2763  0.0354 -0.1186
82458W        W83322   8.397  24.052   4.410  0.2192 -0.0352 -0.3294
82459W        W83323  16.506  28.249   5.372 -0.3354  0.0395  0.2934
82460W        W83324  13.215  27.395   4.962 -0.2174  0.1461  0.0527
82461W        W83325  12.692   8.758  17.181  0.3055 -0.0889  0.1149
82462W        W83326  25.989  13.439  17.835 -0.0964  0.0969  0.0256
82463W        W83327   0.511   6.936  24.019 -0.1590 -0.2115  0.1808
82464W        W83328   0.163   3.649  10.368 -0.0302 -0.0708 -0.2102
82465W        W83329  14.059  11.231  17.326 -0.0400 -0.0757  0.1967
82466W        W83330  29.099  13.477  24.163  0.0583 -0.1046 -0.0386
82467W        W83331   0.281   9.176  26.185  0.0259 -0.1798  0.0191
82468W        W83332   4.471  19.069   1.655 -0.3597  0.0535 -0.2437
82469W        W83333   0.859   2.835  18.160 -0.0388  0.0567 -0.0492
82470W        W83334  18.178  13.647  18.598  0.1908  0.2270  0.3571
82471W        W83335  13.054   5.400  26.310 -0.0849  0.3298  0.0858
82472W        W83336  27.007   0.264  24.023  0.3505 -0.0688  0.0063
82473W        W83337  12.776   4.249   0.183  0.3153 -0.2442  0.0155
82474W        W83338  10.884  21.189  28.543 -0.2823 -0.0787  0.0673
82475W        W83339  25.050  25.158  22.134  0.1918  0.0460  0.1034
82476W        W83340   9.320  21.375  18.533 -0.1441  0.0547  0.1789
82477W        W83341  18.699  23.108  10.999 -0.3146  0.0244  0.3265
82478W        W83342   8.970  26.295  27.406  0.1512  0.0345 -0.1254
82479W        W83343  12.294  28.277   7.891  0.1794  0.1050 -0.1851
82480W        W83344  11.448   7.059  21.260  0.0508 -0.0426 -0.0045
82481W        W83345   0.629   6.467  22.509 -0.0820  0.2678  0.2052
82482W        W83346   4.667   7.264  18.479  0.1626 -0.0099 -0.1756
82483W        W83347  26.306   7.236  18.566  0.5090 -0.2977  0.2151
82484W        W83348  18.246  26.370  19.197  0.0755 -0.0099 -0.4039
82485W        W83349  23.409  13.686  28.962 -0.0229 -0.0523 -0.1816
82486W        W83350   6.182   4.403  16.904  0.5727  0.1380 -0.1707
82487W        W83351  12.384   2.626  28.803  0.0402  0.2741  0.0008
82488W        W83352  17.242   9.801   5.267 -0.0046  0.1963 -0.0173
82489W        W83353  17.482  18.296   5.429  0.1466  0.1333  0.2485
82490W        W83354  22.372  26.649  19.867 -0.4377 -0.1752  0.0110
82491W        W83355   6.446   9.317  29.009  0.1892 -0.0510 -0.0137
82492W        W83356  18.382   2.939  24.917  0.0076 -0.1289 -0.3103
82493W        W83357  11.147  15.485  27.895 -0.0956  0.0101  0.1950
82494W        W83358  17.804  26.060  16.353 -0.3151  0.4236  0.0898
82495W        W83359  13.133   2.188  17.526  0.3642 -0.0913  0.1134
82496W        W83360  12.698  11.028   7.393  0.2170  0.0825  0.1472
82497W        W83361   2.221  26.615  19.865  0.0341 -0.0320  0.0986
82498W        W83362   7.154  13.680  22.412 -0.0430  0.3502 -0.0178
82499W        W83363   8.424   9.396  23.859 -0.0627  0.0629 -0.2706
82500W        W83364  20.879  17.051  10.226  0.1740 -0.0365  0.0340
82501W        W83365  26.612   0.230  17.985 -0.0701 -0.0948  0.1824
82502W        W83366   7.817  11.086   5.720 -0.3233 -0.2439  0.0230
82503W        W83367   5.892  13.092  12.244  0.0385 -0.3012 -0.1429
82504W        W83368   2.378  12.624  24.799 -0.0073  0.1578  0.0362
82505W        W83369   6.372   1.189  21.397  0.2347  0.1627 -0.0018
82506W        W83370  20.204  27.343  23.012 -0.1898  0.3776 -0.0481
82507W        W83371  15.188  18.261  12.509 -0.2755 -0.0427 -0.2599
82508W        W83372  22.143   7.058  22.790  0.0468 -0.1360 -0.3949
82509W        W83373   6.888   9.415  12.167  0.6439 -0.1651 -0.2693
82510W        W83374   7.670  17.569  27.240  0.3750 -0.0054 -0.0689
82511W        W83375  24.355   7.442   2.596 -0.2376 -0.2810  0.2301
82512W        W83376  15.442  15.899  20.434 -0.3689  0.3400  0.2320
82513W        W83377   8.618   9.111  24.335  0.1387 -0.3447  0.0894
82514W        W83378   3.332   5.009  26.586 -0.1564  0.2675 -0.0608
82515W        W83379  28.030  11.009   3.916 -0.1862 -0.0397  0.0627
82516W        W83380  21.171  27.895  14.294 -0.0188  0.0158  0.1847
82517W        W83381  21.943  25.084  14.183  0.1688  0.0815  0.0712
82518W        W83382   1.854   2.802  27.620 -0.1147  0.5143  0.0341
82519W        W83383  27.180  20.277  23.351 -0.4868 -0.2966 -0.0356
82520W        W83384   6.700  16.692   9.462 -0.0790 -0.1865 -0.3050
82521W        W83385  21.985  13.223  16.915 -0.2565  0.1669  0.0344
82522W        W83386   8.399  11.010  21.339 -0.0851  0.2785 -0.1924
82523W        W83387  19.257  16.866  14.584 -0.0487  0.1137 -0.0806
82524W        W83388   4.940  17.958  29.008  0.0641  0.3302  0.1485
82525W        W83389  19.038  25.790   4.249 -0.0380  0.0327 -0.0295
82526W        W83390  16.713   3.641  12.835  0.2478  0.1029 -0.2180
82527W        W83391   6.508   2.020  10.912  0.1209 -0.0812 -0.0080
82528W        W83392   0.645   8.217  24.223 -0.3434  0.1895 -0.1465
82529W        W83393  26.060   6.674  28.652  0.0187 -0.2375  0.0971
82530W        W83394  24.214  22.043  25.032 -0.2708  0.3967 -0.2753
82531W        W83395   7.380  27.395  13.476  0.0148  0.0418 -0.0985
82532W        W83396  21.708  12.316  27.812  0.5640  0.1974  0.1744
82533W        W83397   0.536  28.730  20.227 -0.0587 -0.2209 -0.1491
82534W        W83398   3.753   1.283  11.153  0.1175 -0.0228 -0.1887
82535W        W83399  25.379  28.059   8.784  0.0784 -0.1027 -0.0977
82536W        W83400  25.167  12.633  19.696  0.3334 -0.3163 -0.2612
82537W        W83401  24.635  18.472   1.988  0.0111  0.0723  0.2045
82538W        W83402  16.048  19.274  18.500  0.2099 -0.2515  0.0033
82539W        W83403   6.958   0.665  25.944 -0.2149  0.1886  0.3412
82540W        W83404  22.280  21.607  11.779 -0.4336 -0.1579  0.0031
82541W        W83405   2.965  11.864  28.994  0.0548 -0.0320  0.0112
82542W        W83406  10.573  17.662  14.903 -0.0329  0.3521  0.2717
82543W        W83407  15.912  18.711   1.215  0.1363 -0.1043 -0.3037
82544W        W83408   1.385  14.153   2.119 -0.1391  0.3274  0.3464
82545W        W83409   8.145  18.574  17.778  0.1362  0.2251 -0.1094
82546W        W83410  29.069   4.274  19.620 -0.1014  0.1191 -0.1665
82547W        W83411  26.563  20.865   6.470  0.1984  0.0128 -0.2583
82548W        W83412  19.379   2.247  12.614  0.1125 -0.2406 -0.0964
82549W        W83413   9.492   1.866  21.738  0.1029 -0.2276 -0.0140
82550W        W83414   4.016  13.810  10.975 -0.0626 -0.2652  0.1899
82551W        W83415  14.687  10.913  18.673  0.2303  0.0957 -0.0812
82552W        W83416  27.022  23.679  25.231 -0.0416 -0.0308  0.3287
82553W        W83417  26.648  26.199   5.919 -0.0089  0.1829  0.1704
82554W        W83418  19.587   9.533  20.633  0.0542 -0.2994  0.3692
82555W        W83419  16.200  13.670  11.035  0.1126 -0.1701  0.4174
82556W        W83420  11.520  23.624  28.162 -0.1420 -0.0321  0.1428
82557W        W83421  22.752   6.378  20.584 -0.0819 -0.2699  0.0129
82558W        W83422   3.924   5.744  27.688 -0.2720 -0.0690  0.0268
82559W        W83423  18.483   7.272  24.844 -0.1668 -0.3854  0.1490
82560W        W83424  28.828  27.150  12.419 -0.0245  0.2296 -0.3191
82561W        W83425  12.696  11.706  17.975 -0.0559 -0.1208 -0.2523
82562W        W83426   7.159   7.266   0.635 -0.1790 -0.1548  0.2211
82563W        W83427  12.881   9.308   8.819 -0.3283 -0.0404  0.0759
82564W        W83428  26.882   0.094  27.112 -0.1494 -0.1495  0.1449
82565W        W83429  16.636  15.618  14.044  0.0596 -0.0164 -0.3124
82566W        W83430  27.445  25.379  11.678  0.2040  0.0990 -0.2611
82567W        W83431  24.881   5.215  27.084  0.1783 -0.0345  0.2613
82568W        W83432  24.176  15.646  24.387 -0.0177 -0.0063  0.1120
82569W        W83433  27.593  27.278  27.044 -0.0440 -0.0375  0.0387
82570W        W83434  24.186  11.715  20.453 -0.0498 -0.0381  0.0661
82571W        W83435  19.310  16.540  18.013  0.2568  0.1903  0.2180
82572W        W83436  15.147  24.911  16.220 -0.1947  0.1660  0.1622
82573W        W83437   1.315   4.099   1.863  0.1480 -0.3538 -0.0318
82574W        W83438   7.688  10.778  11.526 -0.0505  0.1833 -0.0311
82575W        W83439   6.593   4.401  28.441 -0.1207 -0.0566 -0.2063
82576W        W83440  12.735  10.229  12.334  0.0684 -0.1316 -0.0128
82577W        W83441   2.250   8.078   6.273  0.0092 -0.0405 -0.0419
82578W        W83442   6.428   8.950  14.098  0.5494  0.1123 -0.1758
82579W        W83443  28.328  28.122  27.802 -0.1718 -0.1247  0.3165
82580W        W83444  21.328   1.548  27.304  0.0318 -0.2102  0.2019
82581W        W83445  28.812   4.437  28.210 -0.0694 -0.1512 -0.0074
82582W        W83446  10.452   4.744   1.930  0.0196  0.2749 -0.0022
82583W        W83447  11.592   9.203   1.778  0.1652 -0.1029 -0.1550
82584W        W83448  21.728  20.490  23.260 -0.0748 -0.0334  0.1000
82585W        W83449  21.856  25.116   3.741  0.1894 -0.0622  0.1889
82586W        W83450   4.847  24.285   3.217  0.0173  0.2480 -0.1170
82587W        W83451  11.324  27.109  25.285 -0.0108  0.1977  0.1709
82588W        W83452  10.708   1.491  20.757  0.0022  0.3588  0.0911
82589W        W83453   6.158   7.200  10.498  0.1206 -0.0788 -0.0541
82590W        W83454  21.894  11.210   1.820  0.1315  0.1894  0.0404
82591W        W83455  20.893  15.180  22.321  0.0671 -0.2641  0.0598
82592W        W83456  23.045  12.319   1.036 -0.3380 -0.2857  0.1443
82593W        W83457  24.098  13.589  23.980 -0.0730 -0.0178  0.1232
82594W        W83458  23.682  11.661   9.622 -0.1478 -0.0836  0.0803
82595W        W83459   6.428   5.482  16.793 -0.1714  0.1121 -0.0051
82596W        W83460  23.804  15.863   7.181  0.1019  0.2264  0.3040
82597W        W83461  21.984  10.143   1.701 -0.1471  0.0904  0.1065
82598W        W83462   4.132   3.743  28.637  0.1240  0.1981 -0.2471
82599W        W83463  18.295   7.322   9.867  0.0333 -0.2555  0.0102
82600W        W83464  21.803   7.473   9.639 -0.0647  0.0018  0.1912
82601W        W83465   1.922  20.077   7.980 -0.2604 -0.1267  0.0115
82602W        W83466   6.793  15.014  18.693  0.2027 -0.0373 -0.0328
82603W        W83467  14.828  14.179  28.283  0.0036  0.0977 -0.0205
82604W        W83468  24.788  20.155  28.656  0.2846  0.1577 -0.1274
82605W        W83469  12.578  23.147  13.399 -0.0410 -0.1881 -0.0192
82606W        W83470   3.907   6.482  27.542  0.0012 -0.0988  0.1902
82607W        W83471   4.506  19.480  16.863 -0.2394 -0.1358  0.1546
82608W        W83472  11.106  16.254   1.663 -0.0130 -0.0573 -0.2054
82609W        W83473  13.615   5.714   3.580 -0.1651  0.1810 -0.2335
82610W        W83474   6.464  17.016  10.403  0.0629  0.0971  0.0080
82611W        W83475   3.111   6.940  25.767 -0.1011  0.0177 -0.1156
82612W        W83476  17.373  16.523  26.271 -0.2265 -0.0689 -0.3551
82613W        W83477  19.003   8.714  20.333 -0.1672  0.1527 -0.0919
82614W        W83478  19.546   0.077   1.753  0.2879 -0.1685  0.1565
82615W        W83479   9.508   0.618   9.152  0.0022 -0.0899  0.3589
82616W        W83480  26.486  26.547  25.891  0.0631  0.1422 -0.0277
82617W        W83481  23.577  28.834  20.933 -0.1370 -0.1225  0.1831
82618W        W83482  24.643  12.271  16.054 -0.1612  0.0185  0.3488
82619W        W83483  26.362  19.830  15.848 -0.0253  0.0848 -0.1205
82620W        W83484   1.952   9.196  26.999  0.0714 -0.2206 -0.3908
82621W        W83485  23.984   9.879   0.481 -0.0271 -0.1445 -0.0308
82622W        W83486  21.460  11.307   5.220 -0.0972 -0.4117  0.0272
82623W        W83487  28.633   6.074  14.817 -0.0736 -0.3129 -0.2154
82624W        W83488  10.386  18.919  24.743  0.3719  0.1738  0.1348
82625W        W83489  21.713   1.941  18.152  0.0535 -0.2009  0.2514
82626W        W83490  16.719   5.296   6.970 -0.0224  0.1494 -0.0398
82627W        W83491   4.835   3.935  25.986 -0.0340  0.0777  0.0636
82628W        W83492  20.659  23.259   2.075  0.1032  0.1249  0.1133
82629W        W83493  21.177   1.271  16.901  0.2700  0.0264 -0.1364
82630W        W83494  14.654   1.756   5.313  0.3668  0.2667  0.1229
82631W        W83495  13.422  10.147  18.228  0.4961 -0.0164 -0.4787
82632W        W83496   7.019   6.646  20.677  0.2407  0.1281  0.0507
82633W        W83497  18.635   6.536  22.389  0.1975 -0.2366 -0.1324
82634W        W83498   1.781  13.325  12.342  0.0024  0.0326 -0.3097
82635W        W83499   9.324  27.814  26.386  0.3343 -0.2969  0.2294
82636W        W83500   5.409  11.735   6.663  0.2068  0.0416  0.2415
82637W        W83501  16.885   5.106  16.039  0.1908  0.0566  0.2705
82638W        W83502  13.524  29.132  15.819  0.2548  0.0201 -0.1112
82639W        W83503   2.749  26.025  22.896  0.1457 -0.0072 -0.0604
82640W        W83504  23.625  24.317  16.141  0.1015 -0.2294 -0.0986
82641W        W83505  28.213  13.298   8.559  0.0375 -0.0298  0.0573
82642W        W83506   9.186  15.848   8.759  0.2922 -0.3325 -0.3814
82643W        W83507  21.058  12.889  15.850  0.0448  0.2061 -0.2550
82644W        W83508  19.485   7.249  23.226 -0.0488  0.2926 -0.0443
82645W        W83509   8.115  14.712  27.428 -0.0517 -0.0811 -0.1280
82646W        W83510   7.041  16.431  10.982 -0.0636 -0.0913  0.3684
82647W        W83511  16.068  25.839  13.344 -0.0115  0.0887 -0.1101
82648W        W83512  11.202  23.466  27.738 -0.0201  0.1481 -0.0116
82649W        W83513  10.387  24.621  27.991 -0.0124  0.4260 -0.3418
82650W        W83514   2.738   7.462   4.097 -0.3940  0.1453 -0.0984
82651W        W83515  13.853  12.215  27.710 -0.0381 -0.0465  0.1027
82652W        W83516  13.462   6.420  10.071 -0.0573  0.1691 -0.2822
82653W        W83517  19.061  18.735  23.323  0.2800 -0.0534 -0.0429
82654W        W83518  20.686  23.261  19.939  0.0452 -0.3569  0.2055
82655W        W83519  25.271  13.014  23.089 -0.2458  0.2539  0.0510
82656W        W83520   2.700   4.605   5.243 -0.1444 -0.1392 -0.0279
82657W        W83521  13.096   5.115  21.716 -0.2118 -0.0708  0.1265
82658W        W83522  19.865  19.215   0.839 -0.0399  0.0570  0.3126
82659W        W83523  25.478   9.619  28.522 -0.2501  0.2167  0.0522
82660W        W83524  10.163  15.543  19.512 -0.0623 -0.0134 -0.1858
82661W        W83525  14.706  13.080  27.673  0.4146  0.1644 -0.3008
82662W        W83526  27.095  10.400  27.550 -0.2334  0.0515 -0.1471
82663W        W83527  12.473  12.428  18.628  0.1115 -0.0536  0.0413
82664W        W83528  17.945  24.833  27.884  0.1489  0.0065 -0.0907
82665W        W83529  28.550  17.826  22.525 -0.1036 -0.0312 -0.1336
82666W        W83530   7.757   1.985   3.075 -0.1259 -0.0143 -0.0595
82667W        W83531   5.295  11.304  14.275 -0.0054  0.1126  0.2050
82668W        W83532  11.713  11.426  26.818  0.0013  0.0944  0.2080
82669W        W83533   5.609  21.570  11.249 -0.0049  0.0975  0.0421
82670W        W83534  11.079  20.700  25.682 -0.0020 -0.0996  0.0068
82671W        W83535   1.798  28.262  17.532  0.2657  0.0572 -0.0794
82672W        W83536  20.436  19.401   4.257  0.1423  0.0141 -0.1960
82673W        W83537  21.671  22.032  16.295 -0.2182 -0.0654  0.2035
82674W        W83538   4.938   0.399  14.118 -0.1869 -0.0297 -0.3144
82675W        W83539  21.492   6.819   4.847  0.1087 -0.0112 -0.2740
82676W        W83540  14.985  13.295  19.451 -0.1752 -0.1044 -0.1435
82677W        W83541   5.167   5.515  24.608 -0.1608 -0.1171 -0.1191
82678W        W83542  13.968  14.644   3.495  0.0725 -0.0346  0.0189
82679W        W83543   2.014   9.761  17.291 -0.0964  0.2589  0.1351
82680W        W83544   4.094   0.489  11.625  0.0450  0.1091  0.2378
82681W        W83545   7.183   4.668  22.695  0.0496 -0.1416 -0.1828
82682W        W83546  11.751   4.673  20.981  0.0653  0.0639  0.1059
82683W        W83547   7.830   3.653  11.288  0.1716  0.0521 -0.2259
82684W        W83548  11.830  27.221  18.683 -0.1707 -0.0128 -0.1082
82685W        W83549  19.740  20.955  12.923 -0.0790  0.0335  0.3228
82686W        W83550  12.085  11.818   9.621 -0.0916  0.0757  0.1760
82687W        W83551   6.379   4.396   4.228  0.1478 -0.0507  0.0758
82688W        W83552   5.050   9.946  20.017  0.0771 -0.1572  0.0631
82689W        W83553  19.211   5.098  16.170  0.0472 -0.3437 -0.1680
82690W        W83554  16.536  17.401  14.166  0.2234 -0.1880  0.1352
82691W        W83555  24.702  10.538  21.523  0.1173  0.2586  0.1977
82692W        W83556  27.504  28.149   7.350 -0.0938 -0.3361  0.1883
82693W        W83557  15.829   6.063   5.914  0.0005  0.0951 -0.0798
82694W        W83558  12.431  20.306   4.262  0.3050  0.1577  0.0258
82695W        W83559  12.013   1.287  25.921  0.2699 -0.2562  0.3109
82696W        W83560   4.065  23.486  26.790  0.2397 -0.3047 -0.0656
82697W        W83561  16.063   1.210  14.025 -0.0903  0.1909 -0.1924
82698W        W83562  17.046   6.913   1.343  0.0405 -0.0565 -0.1222
82699W        W83563   5.654  14.718  22.472 -0.1578  0.1519 -0.0648
82700W        W83564  27.033  13.852  28.888  0.1959  0.2193 -0.0013
82701W        W83565  23.578   2.689   0.543  0.3404  0.0363 -0.2507
82702W        W83566  20.104  24.356   1.899 -0.2127  0.0230 -0.2599
82703W        W83567  27.304   3.641  22.376  0.0762 -0.2916 -0.3189
82704W        W83568  28.142   1.833   7.428  0.0379 -0.3352 -0.0018
82705W        W83569  21.211   0.937  14.304 -0.0552  0.1099  0.1131
82706W        W83570  19.273   8.893  24.134  0.0463 -0.0594  0.1110
82707W        W83571  11.246   5.358   0.218  0.3200  0.1140 -0.2046
82708W        W83572   4.434   2.642  22.107 -0.0070 -0.4124 -0.2102
82709W        W83573  21.300   2.712  13.414 -0.1717 -0.0638 -0.1156
82710W        W83574   7.514  21.916  10.466  0.0127  0.0324  0.1201
82711W        W83575  14.098   5.684  27.019 -0.0938 -0.1357  0.1094
82712W        W83576  12.820   2.744  10.325  0.0287  0.4083  0.0373
82713W        W83577   9.477  14.251  24.358  0.0181  0.1311  0.1439
82714W        W83578  18.713  22.684   8.146 -0.0556 -0.0094  0.2126
82715W        W83579  17.696  18.636   9.933 -0.0157  0.0580 -0.0418
82716W        W83580  25.625  19.622  18.550 -0.2329 -0.2513  0.2936
82717W        W83581  22.779  20.176  21.090 -0.0499 -0.0385  0.3642
82718W        W83582  21.088  14.515   9.735 -0.0029  0.0559  0.1406
82719W        W83583   0.677   1.085  16.649 -0.0233 -0.2070 -0.0382
82720W        W83584   4.826   2.558  11.537 -0.0212 -0.1499 -0.1820
82721W        W83585  16.824   0.809   6.540 -0.4351  0.0125  0.2039
82722W        W83586  13.800   8.397  25.161 -0.1171  0.1267 -0.1578
82723W        W83587   2.644   2.958  21.452 -0.1147 -0.0108  0.0597
82724W        W83588   9.624   0.520  21.289 -0.0787  0.0726 -0.0030
82725W        W83589  16.421  29.124  20.898  0.0428  0.3331 -0.0192
82726W        W83590  18.021   9.044  13.185 -0.1090 -0.3151 -0.0601
82727W        W83591   9.448  23.026  25.114  0.1375 -0.1221  0.0389
82728W        W83592  24.618  23.560  20.343  0.1930 -0.0838  0.0713
82729W        W83593  18.072   6.410  21.573 -0.0851 -0.0997  0.3455
82730W        W83594   6.371  28.694  27.714 -0.1592  0.2445 -0.0617
82731W        W83595   7.782   6.783   2.152  0.1366  0.3175 -0.2916
82732W        W83596  28.165  21.601   9.939  0.4357 -0.1405 -0.1473
82733W        W83597  13.028   1.806   0.484  0.2993 -0.0415 -0.2384
82734W        W83598  28.964   4.671  16.980  0.2080 -0.1008  0.2782
82735W        W83599  16.635  23.093  18.166  0.0907 -0.0296  0.0241
82736W        W83600   8.757  22.635  23.927  0.2682 -0.0354 -0.1692
82737W        W83601  19.388   6.137  10.344 -0.0191  0.0022 -0.2828
82738W        W83602   5.330  11.204   2.178 -0.1634  0.2200 -0.0408
82739W        W83603  10.912  15.065   0.479 -0.0305 -0.1388 -0.0684
82740W        W83604  26.061  12.348  15.502 -0.1572 -0.2067 -0.1406
82741W        W83605  24.344   4.333   0.259  0.0457  0.2468 -0.2409
82742W        W83606  17.270  18.146   4.463  0.2374  0.1168  0.0115
82743W        W83607  23.430   8.996  17.458 -0.0344 -0.1360 -0.0180
82744W        W83608   3.662  28.952   4.582  0.1398  0.0050 -0.2227
82745W        W83609   5.769  15.656  15.708  0.1291 -0.0934 -0.0463
82746W        W83610  17.973   4.357  26.239  0.1288 -0.2054 -0.2050
82747W        W83611  29.051   2.749  21.984  0.3304  0.0061 -0.0847
82748W        W83612  16.437  13.596   2.391  0.0400 -0.2779 -0.1150
82749W        W83613   3.645  28.505   4.769  0.3902 -0.0609 -0.0366
82750W        W83614  17.756  10.690   0.227 -0.1623  0.1731  0.0602
82751W        W83615   9.653   8.142  27.820  0.1017 -0.3036  0.1943
82752W        W83616   9.758  18.188   5.417 -0.1606  0.1634  0.1111
82753W        W83617   3.574  28.511  22.781 -0.3922 -0.1426  0.0872
82754W        W83618  14.927  28.017  18.006  0.3051 -0.1052 -0.1994
82755W        W83619  15.833  16.683   6.202  0.2094 -0.0298  0.0459
82756W        W83620  25.879  22.442  12.359 -0.1603  0.0991  0.0813
82757W        W83621  22.736  10.416  21.564 -0.2564  0.0280  0.1182
82758W        W83622  22.878  23.624  28.560  0.1516 -0.2108  0.0303
82759W        W83623  14.554   4.303  19.371  0.0715 -0.1002 -0.1077
82760W        W83624   6.855  14.918  27.367 -0.4213  0.0183  0.0757
82761W        W83625   1.812  20.999  23.572 -0.3323 -0.0097  0.1269
82762W        W83626  14.785  10.154   8.996 -0.0195  0.1056  0.0379
82763W        W83627  13.930  24.857   0.037 -0.0218 -0.0048  0.1658
82764W        W83628  27.418   4.182  13.601  0.0575  0.2606  0.0121
82765W        W83629  19.380  24.061  16.004  0.3140  0.1821 -0.1047
82766W        W83630   8.089  27.147   0.079  0.1548  0.1710  0.2859
82767W        W83631  10.579  29.073   8.517 -0.0724 -0.0425 -0.0617
82768W        W83632  15.735   5.791   5.491  0.0407  0.1402  0.1226
82769W        W83633   2.892   2.175   1.090  0.0944  0.0553  0.0979
82770W        W83634  19.375   2.263  10.289 -0.0066 -0.4524 -0.1243
82771W        W83635  20.515  23.578  20.360 -0.2698 -0.1307  0.0305
82772W        W83636   5.984   8.903   5.447 -0.0803 -0.4168  0.1721
82773W        W83637  27.528  24.166   0.712 -0.2120 -0.4140  0.2850
82774W        W83638  11.943   7.104   3.927 -0.0329  0.1278 -0.1231
82775W        W83639  21.278  26.870  27.366 -0.0046 -0.5960 -0.0167
82776W        W83640  15.429   4.732  16.638 -0.0238 -0.2786 -0.0600
82777W        W83641   4.637  26.804  27.984  0.4796 -0.1267 -0.1259
82778W        W83642  17.412  27.508  24.011 -0.1123 -0.1415  0.1034
82779W        W83643  18.000  14.525  21.236 -0.1023 -0.0194 -0.1509
82780W        W83644  25.656  26.466   8.855 -0.4138  0.1377 -0.1045
82781W        W83645   3.178  23.837   5.095  0.1453  0.2010  0.0321
82782W        W83646  17.125   9.478  16.068 -0.2361 -0.3214  0.1266
82783W        W83647  21.464   9.042  26.888  0.2608  0.0629  0.1382
82784W        W83648  14.821  20.344   1.321 -0.1455 -0.0585  0.3537
82785W        W83649  19.067   0.922  21.370  0.3096 -0.1830 -0.0772
82786W        W83650  10.168  28.694  13.757  0.2217 -0.0727  0.2837
82787W        W83651  23.109  14.580  16.700 -0.1447 -0.1104 -0.3185
82788W        W83652  29.113  19.663  17.481 -0.1614 -0.0554 -0.1275
82789W        W83653  27.189   6.035  15.624 -0.0253  0.2217 -0.1507
82790W        W83654  16.828   9.717  25.290 -0.2685  0.1672 -0.1414
82791W        W83655   8.832  22.797  25.897  0.1287 -0.1160 -0.1417
82792W        W83656  16.380  14.737   2.378 -0.1728 -0.6920 -0.0365
82793W        W83657   0.495  15.099  25.848 -0.2720  0.0053 -0.3318
82794W        W83658   2.712   4.221  17.866  0.1419 -0.2488 -0.3661
82795W        W83659  16.173   2.739  19.712  0.1304 -0.1619  0.2780
82796W        W83660  10.658  11.652  21.886  0.1496  0.0550 -0.2317
82797W        W83661  18.181   2.567  26.688 -0.3000  0.4899 -0.0469
82798W        W83662   8.184  10.144  10.666  0.0297  0.0209  0.2436
82799W        W83663   8.180   2.918  27.165  0.2304  0.2240  0.0892
82800W        W83664  23.177   5.353  13.979  0.0770  0.0066 -0.1386
82801W        W83665  15.267  15.296  27.579  0.2459  0.3592  0.5275
82802W        W83666   0.155   8.419   8.838  0.2493  0.1689 -0.0361
82803W        W83667  15.183  12.446  27.822 -0.2830 -0.0893 -0.1391
82804W        W83668   9.559  27.433  12.151  0.2215 -0.0791  0.0676
82805W        W83669   6.623   8.845   1.557  0.1406  0.0687  0.0420
82806W        W83670  11.377   6.059   3.373  0.0009  0.0006  0.0699
82807W        W83671  17.556   0.554  28.532 -0.0650 -0.2046  0.0247
82808W        W83672   0.039   3.876  27.828  0.2470 -0.2062  0.0888
82809W        W83673   5.212  22.922  25.209 -0.1744  0.0070 -0.0599
82810W        W83674  19.785   9.251  28.890  0.0495  0.2253 -0.0651
82811W        W83675  17.479   1.217  16.591  0.1547  0.0236 -0.2239
82812W        W83676  27.036   3.268  19.227 -0.1263  0.1257 -0.1133
82813W        W83677  18.855   8.256   3.392  0.1013 -0.0070  0.1799
82814W        W83678   0.455  13.814  24.802  0.0036 -0.2853  0.0237
82815W        W83679  17.670  19.844   5.616  0.1522 -0.0691  0.2887
82816W        W83680  21.467  28.728  18.316  0.0895  0.1798  0.0780
82817W        W83681  14.586  29.004   7.525  0.0222  0.0014 -0.1653
82818W        W83682   7.418  17.931  24.484  0.0708 -0.0051 -0.0668
82819W        W83683  14.667   7.795   3.524 -0.2137 -0.0425 -0.0643
82820W        W83684  24.701  10.162  18.739  0.0335 -0.2496 -0.1808
82821W        W83685  20.428  10.763  13.634 -0.3609  0.1641  0.1438
82822W        W83686   5.693  27.502  19.801 -0.1318  0.1766  0.1434
82823W        W83687  26.633  10.482   4.587 -0.3624 -0.1039  0.3695
82824W        W83688   1.330  23.717  20.836 -0.1299  0.0678  0.0714
82825W        W83689  22.910  26.525  12.435  0.1518  0.2176  0.1331
82826W        W83690   6.476  23.274  10.174  0.0730 -0.0371  0.4561
82827W        W83691  24.949  19.893  13.822 -0.1806  0.0191  0.0164
82828W        W83692  22.324  28.604  28.267  0.2585  0.0161 -0.2677
82829W        W83693   2.062  26.937  23.817  0.0866  0.1741  0.1308
82830W        W83694   3.301  10.909   6.117 -0.2336  0.2085 -0.3284
82831W        W83695  17.060   6.293   5.796 -0.4538  0.1847 -0.0145
82832W        W83696  22.848   3.609  22.425 -0.0032  0.2676  0.3910
82833W        W83697  11.684   3.829   6.623  0.0099  0.0170  0.1986
82834W        W83698   0.406  21.687  29.101  0.1360 -0.0736 -0.0069
82835W        W83699  14.330  12.010  11.397  0.1637  0.0175 -0.1917
82836W        W83700  15.248  13.095   4.050 -0.0980 -0.0497  0.0030
82837W        W83701  26.710  13.833  21.116 -0.0264 -0.0061  0.1539
82838W        W83702   7.177   6.260   0.562 -0.2164  0.2479  0.3186
82839W        W83703  22.271   5.972  20.690  0.1211 -0.2194 -0.0471
82840W        W83704  15.816  20.008  19.897 -0.3037  0.1647 -0.3897
82841W        W83705  19.250  21.929   6.851 -0.1856 -0.1225 -0.3285
82842W        W83706  15.854  13.432  21.093  0.0609  0.0252  0.1574
82843W        W83707  21.761  10.008   2.200  0.1398 -0.1577  0.0861
82844W        W83708  14.866   2.409  19.377 -0.0025 -0.1644 -0.3246
82845W        W83709  29.022  23.112  17.436  0.1445 -0.0923 -0.1772
82846W        W83710  18.672   2.314  27.199  0.0375  0.2881  0.0631
82847W        W83711   1.326   4.250  16.286 -0.0338  0.0791  0.0215
82848W        W83712   1.244  17.912  23.239 -0.1836  0.0322 -0.1094
82849W        W83713   4.465  21.240  25.353 -0.2273  0.2852  0.0099
82850W        W83714   0.519   7.060  23.396 -0.1204  0.0693  0.0533
82851W        W83715  24.290  22.083  15.924  0.0114  0.3165 -0.1848
82852W        W83716  15.808  12.469  25.168  0.3658  0.0138 -0.0595
82853W        W83717  20.160  21.646   9.212 -0.1199  0.1115  0.0532
82854W        W83718  13.989   0.671  25.832 -0.3926 -0.0309  0.2519
82855W        W83719   4.517   2.193  26.063 -0.2250 -0.1018 -0.0237
82856W        W83720   7.789  21.079  13.687 -0.0389 -0.0510 -0.2703
82857W        W83721  19.714  10.367  19.109  0.0689 -0.1403  0.0756
82858W        W83722   7.984  26.101  12.976  0.3944  0.0930 -0.0418
82859W        W83723   2.101   9.588  22.646  0.1176  0.0684 -0.1183
82860W        W83724  27.490  14.553  15.564 -0.3121 -0.2464 -0.0414
82861W        W83725   7.384  26.509  21.646  0.3706 -0.1906 -0.0659
82862W        W83726  23.944   2.202  28.677  0.0034 -0.0078 -0.0344
82863W        W83727   5.640   6.399  25.143 -0.0531 -0.3156 -0.1404
82864W        W83728  11.243  10.538  22.658 -0.0408 -0.0692  0.3811
82865W        W83729  22.409   0.948  27.429  0.0573  0.4071  0.1554
82866W        W83730  13.742  10.777  28.258 -0.0293  0.0311  0.3313
82867W        W83731  12.017   9.193  22.548 -0.0291 -0.1716  0.1329
82868W        W83732  27.733  25.129   5.074 -0.0900  0.1219  0.0672
82869W        W83733  24.069   8.798   6.006  0.0795  0.3671 -0.0784
82870W        W83734  19.916  16.063  10.401  0.0625  0.1817  0.3110
82871W        W83735  15.228   3.745  25.559 -0.0890 -0.3269 -0.0865
82872W        W83736   2.878  14.071   5.630  0.0420  0.0497 -0.0061
82873W        W83737  14.446  16.120   8.157  0.2756 -0.1006 -0.0762
82874W        W83738   9.244  21.104   3.199 -0.1929  0.1207 -0.0850
82875W        W83739  11.577   9.149  10.947 -0.0618  0.0788 -0.2206
82876W        W83740  25.187   7.895  12.504 -0.1494  0.0049 -0.1790
82877W        W83741  25.156  10.605   4.239  0.0129  0.0860 -0.0093
82878W        W83742  15.974  27.332  15.890  0.3728 -0.0331  0.2335
82879W        W83743  17.333   2.917   2.175  0.0921  0.2669  0.0988
82880W        W83744  22.274  20.025  19.822  0.1202  0.1162  0.1319
82881W        W83745   2.161  11.532  10.009 -0.0079  0.1433  0.0518
82882W        W83746   6.943   7.436   2.241 -0.4319 -0.1861  0.1945
82883W        W83747  13.810   2.592   2.570  0.2614  0.2094  0.0311
82884W        W83748  25.173  11.967  15.161 -0.0062  0.0463  0.0389
82885W        W83749  22.303  16.602   2.698  0.1985 -0.0743 -0.0191
82886W        W83750   7.192  13.911   1.791  0.3050 -0.1689  0.0055
82887W        W83751  10.899  25.412   5.777 -0.1529 -0.2771  0.0026
82888W        W83752   3.047  22.281  23.605  0.3280  0.0728  0.1843
82889W        W83753  26.310  27.636  20.216  0.1320  0.0808  0.1884
82890W        W83754  21.181  17.587  27.221  0.0834  0.1434 -0.1037
82891W        W83755  14.282   3.882  27.102  0.0520  0.0594 -0.1562
82892W        W83756  22.466  18.745  28.845 -0.1133 -0.1156 -0.0018
82893W        W83757  10.887  26.021  11.954  0.1520  0.4066  0.1536
82894W        W83758  24.039  14.947  16.179 -0.0798  0.1002  0.3033
82895W        W83759  13.594   4.624  11.068 -0.1968  0.3304 -0.0106
82896W        W83760   4.795   6.180  12.086 -0.1396 -0.2499 -0.1452
82897W        W83761  12.954   3.325   9.393 -0.1076 -0.3305  0.2717
82898W        W83762  14.322   3.848  17.459 -0.1916 -0.0870 -0.1505
82899W        W83763   6.084  12.632  18.239  0.0169  0.1455 -0.0663
82900W        W83764  13.103  22.014  25.018 -0.0194 -0.3465  0.2965
82901W        W83765  15.964  24.146  12.082 -0.0963  0.3463 -0.2594
82902W        W83766  16.131  25.684  15.879 -0.0238 -0.0385  0.2158
82903W        W83767   0.014  22.419   4.283 -0.3775  0.1410  0.0535
82904W        W83768  12.084  18.150  15.895 -0.3716 -0.3005 -0.1354
82905W        W83769  16.701  19.510   5.060  0.2166 -0.1445 -0.1042
82906W        W83770  11.282  20.728   5.640 -0.1643 -0.1959 -0.0685
82907W        W83771   6.502   7.254  21.532 -0.0686  0.2278  0.0674
82908W        W83772   8.145  28.427  28.810 -0.4576 -0.1995  0.0918
82909W        W83773   2.057  27.685   1.600 -0.1780  0.0821 -0.1360
82910W        W83774   7.979  16.350  25.375  0.1683  0.0410 -0.0147
82911W        W83775  11.930  21.967  27.839  0.0705 -0.0654 -0.1358
82912W        W83776  16.346  23.602  21.303 -0.1384 -0.0537 -0.0327
82913W        W83777  16.128  23.828  28.955  0.1203 -0.2396  0.2124
82914W        W83778   4.496   1.143   2.138  0.2192 -0.1308  0.3980
82915W        W83779  27.297  10.117  23.624 -0.1764 -0.1833 -0.0900
82916W        W83780   9.115  21.067   0.004 -0.0282  0.0732  0.1033
82917W        W83781  23.448   8.423  17.856  0.3030 -0.2552  0.2254
82918W        W83782  22.411  21.455  21.090  0.0836  0.0302  0.0680
82919W        W83783  24.682   0.131  27.350  0.0221 -0.1192  0.3015
82920W        W83784  18.672  26.185  16.195 -0.0440  0.3058  0.1354
82921W        W83785  21.115   8.886  12.437 -0.3520  0.1575  0.0864
82922W        W83786  10.472   3.501  22.442 -0.0449  0.2124 -0.0750
82923W        W83787  23.444  25.615   3.646  0.0006 -0.1603 -0.0595
82924W        W83788  24.028   2.841  11.257  0.1109  0.0076  0.1272
82925W        W83789  24.484   3.770   0.158 -0.0853 -0.2173  0.2524
82926W        W83790  22.746   5.537  24.858  0.1190  0.0909  0.2840
82927W        W83791  16.338   9.645   7.579  0.0366 -0.0954  0.0384
82928W        W83792  19.669  10.173  16.857 -0.2052 -0.2902  0.0321
82929W        W83793   6.707   0.936  17.256  0.0470 -0.1311 -0.2133
82930W        W83794  11.113  10.337  27.022  0.2138 -0.1090 -0.0803
82931W        W83795  23.337   0.666  28.069  0.3501 -0.2093 -0.1217
82932W        W83796   5.745   1.699   6.728  0.1324 -0.5229 -0.0549
82933W        W83797  23.435   4.731  20.578  0.2035  0.0624 -0.0509
82934W        W83798   5.387  17.849  22.048 -0.2548 -0.0569 -0.0227
82935W        W83799  19.163   3.626  20.384  0.0478  0.1396 -0.0608
82936W        W83800  12.660  10.136  13.616 -0.0374  0.2067  0.0682
82937W        W83801  20.329  25.371  28.055  0.1005  0.2149 -0.0597
82938W        W83802  21.138  16.146  14.312 -0.1840  0.2294  0.1205
82939W        W83803   3.829   9.252   6.738  0.2516 -0.0963  0.1198
82940W        W83804  25.607  15.755  10.893  0.0324  0.1121  0.0276
82941W        W83805  23.213   2.682   3.364  0.1109 -0.2315 -0.1098
82942W        W83806  22.390  10.064   8.288 -0.2076  0.0128  0.1343
82943W        W83807  16.978  17.744   5.106 -0.0419  0.1272 -0.1297
82944W        W83808   2.534  18.123  10.463 -0.2869  0.0670 -0.0005
82945W        W83809  17.950   7.988   6.370  0.2030  0.0571  0.0602
82946W        W83810  20.190  23.558  14.362 -0.0758  0.0198  0.1166
82947W        W83811  21.785  23.305   3.246  0.0753  0.0583  0.2927
82948W        W83812  17.389   4.728  28.998  0.0203 -0.0635 -0.0512
82949W        W83813  27.076  15.795   3.026 -0.0201 -0.0838  0.1297
82950W        W83814  22.929  16.898  24.078  0.0365 -0.2921  0.1269
82951W        W83815  13.683  20.899  28.650 -0.2553 -0.1950  0.3046
82952W        W83816   4.013  15.964  16.280  0.2612  0.1145  0.1436
82953W        W83817   7.666   0.937  20.067 -0.1403  0.0211 -0.1922
82954W        W83818   5.840   5.809   8.157  0.1571  0.3596 -0.0804
82955W        W83819   6.751   5.924  21.069 -0.0228 -0.0559 -0.0535
82956W        W83820   7.917  21.260   1.969 -0.2292  0.1616  0.3345
82957W        W83821  28.160  28.149   1.746 -0.2211 -0.3788 -0.2076
82958W        W83822   7.301   0.353  29.113  0.2037 -0.0362  0.1175
82959W        W83823   0.565   6.021   4.440 -0.0791  0.2269 -0.0699
82960W        W83824  21.919   6.564   4.835 -0.2111 -0.1567  0.0034
82961W        W83825   4.336  24.744  25.414 -0.0654  0.0414 -0.1603
82962W        W83826   9.358  19.863   0.452 -0.2929 -0.0714  0.3441
82963W        W83827   4.620  24.743  20.621 -0.0614 -0.0506 -0.1056
82964W        W83828   5.138  18.041   1.461  0.1819 -0.0420  0.0997
82965W        W83829  11.483   6.294  28.584 -0.5027 -0.2273  0.1891
82966W        W83830  12.008   5.772   1.220  0.3312 -0.0664  0.2223
82967W        W83831   5.769  19.739  13.722  0.0101 -0.0998 -0.2100
82968W        W83832  14.109   2.226  25.375  0.1201  0.0918  0.1111
82969W        W83833  18.050  21.712  27.234  0.0839 -0.2632  0.4172
82970W        W83834  12.203   6.248  15.227 -0.0590 -0.0313 -0.0832
82971W        W83835   1.264   8.252  25.239  0.0551  0.0777  0.6440
82972W        W83836  17.005   9.998   5.645 -0.1429  0.0207  0.2658
82973W        W83837  14.977  12.631  18.031 -0.0515  0.1397 -0.3158
82974W        W83838  13.331   1.458  17.180  0.0583 -0.1776 -0.0845
82975W        W83839  15.001   9.885   6.421  0.1376  0.0470  0.1341
82976W        W83840   0.804   3.161  20.473 -0.3055  0.2233  0.0868
82977W        W83841   1.917  23.714  24.219  0.1918 -0.0646  0.3100
82978W        W83842  11.223   6.546  10.819 -0.0956  0.3582 -0.0786
82979W        W83843  16.031   4.561  23.644 -0.3719 -0.0835 -0.1050
82980W        W83844  13.279  13.412  26.399 -0.3217 -0.0265  0.0145
82981W        W83845   4.939  29.142   0.824  0.1620 -0.0805 -0.0499
82982W        W83846  16.444   1.663  28.038 -0.1934  0.0049 -0.2024
82983W        W83847   5.906  28.687   0.745  0.2863  0.1750 -0.1191
82984W        W83848  18.046  13.397  20.841 -0.4470 -0.0623  0.0840
82985W        W83849  16.358  15.188  24.604 -0.0103 -0.0075 -0.1371
82986W        W83850  11.825  24.504  21.081 -0.0145  0.0542  0.4548
82987W        W83851  28.464   2.430  25.793  0.2844 -0.1813 -0.0510
82988W        W83852   7.877  27.817  22.639 -0.3319  0.2603 -0.0505
82989W        W83853   5.676  26.679  12.207  0.0925 -0.2040 -0.0589
82990W        W83854  28.086  27.292  28.437  0.0091  0.0397 -0.3123
82991W        W83855  16.039   3.401   3.414  0.0861  0.1941  0.1372
82992W        W83856   7.182   2.118  26.751 -0.2362  0.2163 -0.0020
82993W        W83857   4.603  14.734   0.161  0.2026  0.2491  0.1239
82994W        W83858   0.442   5.539  26.988  0.1838 -0.0697 -0.2016
82995W        W83859  14.938  20.019   0.807 -0.0785  0.0072 -0.0993
82996W        W83860  22.278   8.819   7.593  0.2681  0.0333 -0.3097
82997W        W83861  11.169   3.105  27.360  0.2298  0.0298 -0.0964
82998W        W83862  17.100   7.118  18.636 -0.0040 -0.1349  0.1754
82999W        W83863  16.098  11.382  27.107  0.1797 -0.0381  0.0776
83000W        W83864   6.830   8.166  19.247 -0.1087  0.1712  0.0667
83001W        W83865   5.205  21.125  27.205 -0.0291  0.0606 -0.0250
83002W        W83866  21.767  16.467  12.877  0.2599  0.2095 -0.1120
83003W        W83867   1.494  26.323  27.651  0.0488 -0.2897 -0.1159
83004W        W83868  27.897  14.511  13.672  0.0408  0.0555  0.1314
83005W        W83869  11.012  11.754  25.137 -0.1650  0.4806 -0.0262
83006W        W83870  21.652   7.354  26.309  0.4766 -0.0548  0.0251
83007W        W83871  22.971  14.073  26.885  0.4910  0.3133  0.0144
83008W        W83872  16.382  13.724  29.028  0.3442 -0.0585  0.1780
83009W        W83873   5.137  28.444   7.791  0.0124 -0.0252 -0.0100
83010W        W83874   5.017  25.925  22.965 -0.0253 -0.1684  0.1263
83011W        W83875  19.397  20.339  28.233 -0.0958 -0.2075 -0.0180
83012W        W83876  20.063   0.810  23.950 -0.2124  0.1846  0.0115
83013W        W83877  27.437  24.467   2.452 -0.1185  0.2698 -0.0260
83014W        W83878   0.683  26.863  25.680 -0.0877 -0.0008  0.4912
83015W        W83879  23.421   3.733   7.113 -0.0615  0.0632 -0.2117
83016W        W83880  21.397   1.421   2.445 -0.1163  0.1221 -0.0278
83017W        W83881  28.270  22.900  19.206 -0.1237  0.3538  0.0909
83018W        W83882  17.870  27.056  12.352  0.0232  0.2061  0.1642
83019W        W83883  16.960  21.922  11.237 -0.0606  0.2644  0.1588
83020W        W83884  20.420  21.232  25.221 -0.1464 -0.1193  0.0032
83021W        W83885   8.008  21.302   3.563 -0.1653 -0.3800 -0.0130
83022W        W83886   2.317  10.217  11.508 -0.4273  0.2449  0.4354
83023W        W83887   9.198  26.574  23.101  0.0305  0.1797  0.1392
83024W        W83888  28.820   0.532  12.312  0.2711 -0.0457 -0.1882
83025W        W83889   8.108  11.217  13.146 -0.1695  0.1789 -0.2054
83026W        W83890   8.999  24.657  20.796 -0.0775 -0.0095  0.3098
83027W        W83891  16.463  26.212   6.098 -0.0336 -0.0647 -0.0415
83028W        W83892  12.673   5.301  23.919 -0.2606 -0.1271  0.1228
83029W        W83893  18.428  14.203  11.065  0.0344  0.2427 -0.1627
83030W        W83894   9.111   6.550   6.275 -0.0060  0.0592  0.2355
83031W        W83895  16.777  10.939   2.387 -0.0010  0.0406 -0.0743
83032W        W83896  16.848   2.977  15.111  0.0024 -0.2253  0.0622
83033W        W83897   7.808   6.538   6.820 -0.0335  0.2299  0.1305
83034W        W83898   5.806  10.717  20.633 -0.2418 -0.0650 -0.2465
83035W        W83899  11.091   9.585  21.288  0.0784  0.0273 -0.2054
83036W        W83900  24.638  15.758  18.698  0.0800  0.1188  0.1704
83037W        W83901  21.538  16.596  17.305  0.3269 -0.0108 -0.0449
83038W        W83902  15.653   6.490   1.003 -0.2621 -0.3409  0.0038
83039W        W83903  14.881  26.720  23.408  0.1276 -0.0431 -0.0393
83040W        W83904  11.776  26.906   9.121  0.4073  0.1806  0.0565
83041W        W83905  27.114   3.441   5.087  0.0861  0.0433  0.0774
83042W        W83906   5.811  12.093  27.624  0.0465 -0.0326  0.0168
83043W        W83907   1.318  21.918  14.304 -0.1806  0.2511  0.0249
83044W        W83908   4.458   7.002  28.633  0.0804  0.4705 -0.3768
83045W        W83909  16.668   4.263  27.624  0.0761 -0.0067 -0.2814
83046W        W83910  24.073   9.209   9.453  0.0638 -0.1885  0.2888
83047W        W83911  17.354   4.978  13.712 -0.0758  0.1172 -0.3016
83048W        W83912  18.085  11.130   5.724 -0.2161  0.0924 -0.0645
83049W        W83913  14.005   8.465  16.498 -0.1874  0.0194  0.1282
83050W        W83914   2.357  20.099  19.611 -0.0767 -0.0641 -0.1322
83051W        W83915   6.063  22.998   3.182  0.2918 -0.1580 -0.3469
83052W        W83916  23.502   4.863   4.382 -0.0357 -0.3397  0.3918
83053W        W83917   9.191   4.491   9.572 -0.2554 -0.1014  0.0413
83054W        W83918  22.432  26.072  16.682 -0.0436 -0.1827  0.0720
83055W        W83919  16.099   1.737  27.640 -0.0500 -0.2158  0.0924
83056W        W83920  18.528   2.794   6.975  0.1641 -0.0910 -0.0848
83057W        W83921  28.136  11.616   2.273 -0.0173 -0.2274  0.2146
83058W        W83922  11.456   9.194   5.129 -0.0779 -0.0325 -0.1222
83059W        W83923  11.930  11.527   4.769 -0.4073  0.0123 -0.0292
83060W        W83924  23.223  16.198  29.125 -0.1427 -0.1636  0.1300
83061W        W83925  24.945  11.949  19.263  0.1999  0.1165 -0.0234
83062W        W83926   9.833  18.588   7.657 -0.1316  0.2423 -0.3131
83063W        W83927  26.617   2.762  10.947  0.3461 -0.0996  0.0579
83064W        W83928   3.741   2.733  25.687  0.2209 -0.0293  0.1768
83065W        W83929  12.187  20.160  19.613  0.1315 -0.1627 -0.2371
83066W        W83930   3.191  22.327  16.026  0.1408  0.4178 -0.0529
83067W        W83931  19.093  11.292   8.149 -0.1400 -0.1958  0.2144
83068W        W83932  17.879   6.314  21.094  0.6991 -0.0036  0.2387
83069W        W83933  18.674   2.294   6.234 -0.1221  0.1400 -0.2692
83070W        W83934  10.107   9.646   2.187  0.1512  0.1427 -0.0116
83071W        W83935  14.422  10.070  25.549  0.0771 -0.1270  0.0295
83072W        W83936  15.988  28.928  16.637 -0.2030  0.0051 -0.0864
83073W        W83937  21.197   5.090  24.162  0.1871  0.0192 -0.2707
83074W        W83938  20.181  19.697  23.893  0.1268 -0.2186  0.3467
83075W        W83939  12.626   9.974  22.420 -0.1588  0.0350 -0.1953
83076W        W83940  23.195  26.816  18.981 -0.2659  0.0395  0.0012
83077W        W83941  28.387  12.754  28.488 -0.0173 -0.0287 -0.0368
83078W        W83942  25.750   7.911   9.571 -0.1683 -0.1673  0.1779
83079W        W83943   1.461  10.487  26.643 -0.1157  0.0077  0.0801
83080W        W83944  15.409   7.136   5.805  0.0303 -0.1024  0.0289
83081W        W83945   4.538   6.829   3.928 -0.0919  0.1181 -0.1863
83082W        W83946  15.145   3.665  28.966 -0.0470 -0.0214 -0.2763
83083W        W83947  12.256  25.845  18.193 -0.0865  0.2657  0.2053
83084W        W83948   4.234  23.574   9.949  0.0034  0.0176 -0.0336
83085W        W83949  21.129  27.700  28.574  0.1776 -0.0666  0.1252
83086W        W83950  21.488   2.260  16.175 -0.1320  0.1386 -0.2165
83087W        W83951  23.534  27.145  17.869  0.0856 -0.1706 -0.2052
83088W        W83952  17.993  11.476   1.985 -0.0196  0.1520 -0.2657
83089W        W83953  17.264  23.613  26.172  0.0088  0.3397 -0.2199
83090W        W83954  17.631   7.464  16.196  0.2322  0.0983  0.1168
83091W        W83955  22.428  25.427   0.227 -0.0127  0.5532 -0.0268
83092W        W83956   5.639  29.056   0.307 -0.0309  0.0022 -0.0284
83093W        W83957   1.796   3.153   9.768 -0.3096  0.0966 -0.1781
83094W        W83958  18.038   2.167   3.227 -0.1350  0.0729 -0.2064
83095W        W83959  25.982  15.775   8.683 -0.2468  0.3284  0.1013
83096W        W83960  12.506   7.051  10.084  0.0202  0.0921 -0.1047
83097W        W83961  28.457   0.727  14.585  0.2593  0.2575 -0.1434
83098W        W83962   0.313   1.786  17.119  0.0047 -0.0533 -0.1134
83099W        W83963   2.792  19.558   3.399 -0.1279 -0.0302 -0.2514
83100W        W83964  16.220  11.928  28.823 -0.2011 -0.0117 -0.0771
83101W        W83965  13.040  22.513  24.903  0.0302 -0.1963  0.2724
83102W        W83966   6.181  25.207  23.077 -0.2296 -0.0556  0.2243
83103W        W83967  22.911   3.328  18.029  0.5238  0.2262  0.1220
83104W        W83968   2.393   0.228  23.593 -0.3414 -0.3053  0.0283
83105W        W83969  22.778  23.915   0.931 -0.0927 -0.1138  0.3600
83106W        W83970   4.694  20.380  23.075 -0.1398 -0.0090 -0.1314
83107W        W83971  24.604   8.282   2.556  0.0743 -0.1128  0.2670
83108W        W83972  10.141  10.045   9.585 -0.0460 -0.3497 -0.0511
83109W        W83973  23.537   2.675   4.704 -0.2902 -0.0694 -0.1536
83110W        W83974  22.927   4.302  17.707  0.3094  0.1141  0.2345
83111W        W83975   5.699   9.432   6.966  0.2839  0.0735  0.1216
83112W        W83976  16.106   4.031   8.182 -0.0662 -0.1039 -0.2370
83113W        W83977  18.970   5.228  24.399  0.1449  0.1723 -0.2338
83114W        W83978  22.586   3.319  23.672  0.1990  0.0844  0.0416
83115W        W83979  11.021   2.045  14.195  0.2396 -0.2926  0.0268
83116W        W83980  11.624   8.430   2.875 -0.1261 -0.2149  0.0797
83117W        W83981   8.606  20.023   4.247  0.1910 -0.0643  0.0490
83118W        W83982  25.141  12.185   0.257  0.2145 -0.0287 -0.2126
83119W        W83983  11.591  16.241  25.789 -0.0623 -0.0583 -0.1755
83120W        W83984   7.784  29.036   7.769 -0.1248  0.0412  0.0322
83121W        W83985   4.136  23.192  20.071  0.1893  0.0591  0.0852
83122W        W83986   3.507  21.178  28.627 -0.1291 -0.2291  0.3569
83123W        W83987  20.572  22.648   2.806 -0.0288  0.0386  0.0335
83124W        W83988  11.725   3.666   3.468 -0.3587  0.1431  0.2347
83125W        W83989   4.590  11.452   6.684  0.0483  0.0818 -0.1677
83126W        W83990   5.003  23.625   7.972  0.1851 -0.1922  0.0434
83127W        W83991  28.088   7.155  13.983  0.2503  0.2267 -0.1206
83128W        W83992  18.596   6.863  23.173 -0.0689  0.1363 -0.0211
83129W        W83993   8.094  11.043  23.801  0.1363 -0.2521 -0.0820
83130W        W83994   7.650  27.774   5.924  0.0325 -0.1047  0.0272
83131W        W83995   8.865   6.259   4.416 -0.2709 -0.1633 -0.1374
83132W        W83996   9.423  19.869  23.921  0.0546  0.0675 -0.1553
83133W        W83997  12.518  11.389   0.497 -0.4272 -0.1650  0.0223
83134W        W83998  26.894   8.004   3.141  0.2316 -0.0595  0.3027
83135W        W83999  17.028  24.033  13.594  0.1659  0.1256 -0.0672
83136W        W84000  18.120   4.086   8.866  0.0528 -0.3654 -0.0531
83137W        W84001  28.344   8.197  11.781  0.1136 -0.1457  0.2193
83138W        W84002  21.461  11.653  26.338  0.3040  0.3588  0.2219
83139W        W84003   9.997  25.529  20.113 -0.2777  0.2211 -0.0879
83140W        W84004   3.617   1.034   9.092  0.2044 -0.1044  0.0676
83141W        W84005  15.985   2.268   1.303  0.2760 -0.0633 -0.0067
83142W        W84006  28.781  27.037  14.468 -0.1522  0.1076  0.2344
83143W        W84007   6.791  19.446  21.629 -0.1519  0.1332  0.0996
83144W        W84008  21.100  28.959   7.694  0.2286 -0.1405 -0.0894
83145W        W84009   9.236  17.214  22.006  0.1295 -0.0258  0.1151
83146W        W84010  16.724  27.530  21.472  0.2086  0.2413 -0.3119
83147W        W84011  15.012  20.029   7.362 -0.0891 -0.0192 -0.1355
83148W        W84012   8.248  19.740  16.867 -0.0845  0.0854 -0.2959
83149W        W84013  20.378  16.180   2.120 -0.1027  0.0485  0.0851
83150W        W84014  25.311  15.575  26.773 -0.1248 -0.2301  0.1636
83151W        W84015   5.366  29.061  14.698 -0.3513 -0.0658 -0.2392
83152W        W84016  15.258  11.109  22.454 -0.1240 -0.3180  0.0421
83153W        W84017   2.759  22.663  25.570  0.0581 -0.2826  0.2498
83154W        W84018  27.557  27.076   4.843 -0.0731 -0.0406  0.0416
83155W        W84019  14.094   8.846  21.900  0.1281 -0.0718  0.0076
83156W        W84020   5.284   3.558  19.252  0.0632 -0.8420 -0.2039
83157W        W84021  11.491  13.524  21.968 -0.1856 -0.0789 -0.2836
83158W        W84022  16.995   9.419   6.277 -0.2929 -0.0704  0.2745
83159W        W84023  11.368  13.530   4.352 -0.0838  0.1887  0.0801
83160W        W84024   7.183  16.857   0.315 -0.2359 -0.4060  0.2109
83161W        W84025  25.702  28.034   3.570  0.1472 -0.0991  0.2120
83162W        W84026   7.348   0.295  22.838  0.1044 -0.0149  0.3197
83163W        W84027   9.346  24.523  28.766 -0.1200 -0.1447 -0.0992
83164W        W84028   0.963  25.813  20.057  0.0513  0.2650 -0.1526
83165W        W84029   4.000   2.758  28.804  0.3983  0.1089 -0.0136
83166W        W84030  23.876   6.563   9.779  0.2629 -0.0165  0.1716
83167W        W84031   1.270  26.834  16.046 -0.0058  0.0872  0.0308
83168W        W84032  11.169  19.632  20.562  0.2149 -0.1336  0.0265
83169W        W84033  18.515   8.625  16.195  0.0820  0.0184  0.2630
83170W        W84034  28.819   8.795  28.797  0.1419  0.1204 -0.0901
83171W        W84035  10.103  12.475  21.518  0.1368  0.1835  0.0981
83172W        W84036  15.037  13.528  19.927 -0.3740  0.4518  0.1875
83173W        W84037  26.116   3.791  25.367 -0.0337  0.1249  0.1751
83174W        W84038  10.683  28.330  21.779  0.3380 -0.0907  0.2504
83175W        W84039  20.892   5.335  22.462 -0.0427  0.0183  0.0929
83176W        W84040  16.319  14.172   9.216 -0.1920  0.1245 -0.2841
83177W        W84041   8.165   2.354  21.343 -0.1536 -0.2349  0.0001
83178W        W84042  26.692  20.431  16.004 -0.1302  0.0362  0.0569
83179W        W84043  20.264   5.393  19.923 -0.2033 -0.3094  0.1307
83180W        W84044   4.771   1.373   4.304 -0.0505  0.0258  0.1853
83181W        W84045  15.553  23.405  18.941 -0.1908  0.0225  0.0400
83182W        W84046   4.588  22.885  27.563  0.1109  0.0304 -0.1186
83183W        W84047  10.794  13.409   2.415  0.2257  0.2885 -0.0276
83184W        W84048   6.162  28.841   5.476  0.2281 -0.0782 -0.1876
83185W        W84049   6.425  28.830   0.736  0.1642 -0.3575 -0.2483
83186W        W84050  13.847  27.090  23.136 -0.1057  0.1839  0.0992
83187W        W84051  10.501   7.450  18.121 -0.3290  0.2285 -0.0789
83188W        W84052   8.523   5.480  13.982  0.1470  0.1023  0.0541
83189W        W84053   7.757  22.087   8.153  0.5898 -0.1597  0.2768
83190W        W84054   2.773  20.185  23.449  0.1110  0.1454  0.1805
83191W        W84055   8.549  27.270   8.590  0.1857 -0.0715 -0.0985
83192W        W84056  18.219  28.642   7.656 -0.1684 -0.0759  0.2186
83193W        W84057  15.309  22.095   2.521  0.2901 -0.2167  0.2400
83194W        W84058   9.527  25.915  18.375  0.2459  0.0471 -0.1046
83195W        W84059   7.942  15.724  21.406  0.0326 -0.1156  0.1134
83196W        W84060  13.174  25.694   3.175  0.0003  0.2749  0.3865
83197W        W84061  12.925  25.530   0.586 -0.1672  0.1248 -0.0128
83198W        W84062  15.027   7.102  10.110 -0.1500  0.0471 -0.0468
83199W        W84063  11.066  14.144  20.134  0.1097 -0.0540  0.0626
83200W        W84064  20.007  24.199  25.847  0.2660 -0.1783 -0.0215
83201W        W84065   3.330  20.774  13.002 -0.0818 -0.1713  0.1828
83202W        W84066  20.169  25.069  27.363  0.2703  0.1617  0.2422
83203W        W84067  15.713  10.449  19.296  0.2230 -0.1410 -0.0935
83204W        W84068  19.803   8.037  24.311  0.3908 -0.0215  0.2286
83205W        W84069   4.302   3.142  15.784 -0.1535 -0.2346 -0.1123
83206W        W84070  16.758   9.168  17.275  0.2014  0.2821 -0.0535
83207W        W84071  20.658   2.324  26.622 -0.1938 -0.0495  0.2229
83208W        W84072  20.845  19.354  15.727 -0.1368 -0.3623  0.0839
83209W        W84073   9.527  11.030  26.216  0.0090 -0.1371 -0.0523
83210W        W84074  22.072  10.199  27.196 -0.3302  0.1347  0.0719
83211W        W84075   0.842  10.413  25.823 -0.0095 -0.2116  0.0503
83212W        W84076  18.541  12.929  17.142 -0.1259  0.2039 -0.0926
83213W        W84077  13.786   8.845  17.432 -0.0829 -0.1487  0.2814
83214W        W84078  10.358   6.383   8.496 -0.0200 -0.2827 -0.0431
83215W        W84079   8.698   7.179  21.444 -0.1940 -0.2419  0.2622
83216W        W84080  26.058  13.517  16.093  0.0695 -0.2121  0.1237
83217W        W84081  11.577   5.347   1.825 -0.5127 -0.1816 -0.1349
83218W        W84082  15.959   8.483   2.934  0.0925 -0.0244  0.0478
83219W        W84083  11.801   8.715   1.006  0.0917  0.2725 -0.1481
83220W        W84084  18.892   9.221  15.520  0.0542  0.0950 -0.0416
83221W        W84085  23.169   5.308  22.533 -0.1123  0.0398  0.0321
83222W        W84086  12.051  14.144   2.136  0.0340 -0.0130  0.3554
83223W        W84087  24.792  29.062  28.594 -0.1244 -0.0297  0.0811
83224W        W84088  16.099  28.229  27.009 -0.3507  0.1397 -0.0125
83225W        W84089  22.974  20.963  14.941 -0.0155  0.0519  0.2690
83226W        W84090  27.479   6.312   6.669  0.1537 -0.1325  0.0940
83227W        W84091  11.568  27.589  26.976 -0.3353  0.0218 -0.2314
83228W        W84092  20.834  12.433  21.765 -0.2712 -0.1326  0.1050
83229W        W84093  22.946  13.279   1.233 -0.0910  0.1266 -0.0704
83230W        W84094  12.597   4.020   6.102 -0.2233  0.0898 -0.1535
83231W        W84095  16.501  20.993  19.067  0.2262 -0.2195  0.0019
83232W        W84096  10.594  27.510  19.117  0.1875  0.1380 -0.2663
83233W        W84097  18.813   3.624  21.950 -0.1976 -0.1981  0.1113
83234W        W84098  14.843   1.946  19.098 -0.1021  0.3785  0.1445
83235W        W84099  10.145  23.452  13.031 -0.0867  0.2881  0.2722
83236W        W84100  25.520   6.759  18.023  0.0832  0.1984 -0.1432
83237W        W84101  27.181  17.946  17.243 -0.1711 -0.3251 -0.1776
83238W        W84102  11.002  21.812  28.601 -0.1101 -0.0264  0.3495
83239W        W84103   9.593   0.022  25.985 -0.0053  0.1368  0.1444
83240W        W84104  18.634   1.480  10.995 -0.1203 -0.0427 -0.1631
83241W        W84105   9.026  27.277   8.793  0.0716  0.0625 -0.3159
83242W        W84106  20.696  16.345  27.398  0.1689 -0.3913  0.1297
83243W        W84107  24.856  10.335  13.182 -0.0699  0.2195 -0.2169
83244W        W84108   4.453  22.267  23.911  0.0660  0.2326 -0.1785
83245W        W84109  21.152   3.964  17.965  0.0935 -0.1828 -0.0749
83246W        W84110  25.234  10.081   6.048 -0.1780  0.1902 -0.0175
83247W        W84111  16.500   4.126  26.302  0.1488 -0.2403 -0.0510
83248W        W84112  23.936   7.215  23.919  0.2109 -0.1175  0.3346
83249W        W84113  14.347  18.580  16.061 -0.0234  0.0649  0.2488
83250W        W84114  23.419  11.290  28.656 -0.1683  0.0815 -0.1875
83251W        W84115   1.110  14.942  22.172  0.0228  0.2786  0.3047
83252W        W84116  25.283   4.141  23.122 -0.1198 -0.4456  0.0264
83253W        W84117   7.812  14.788  10.341  0.0383 -0.0118  0.0877
83254W        W84118   7.532  25.566  18.862  0.3167 -0.1439 -0.1797
83255W        W84119  27.416  28.071  24.317 -0.2764  0.0317 -0.0975
83256W        W84120   7.162   7.722   6.514  0.1107  0.1937 -0.1680
83257W        W84121   6.821   8.337   4.207 -0.1292 -0.3135  0.0832
83258W        W84122   6.554  14.105  10.049 -0.1541  0.1391  0.1478
83259W        W84123  26.777  24.599  27.640  0.3131  0.2605  0.0599
83260W        W84124  11.594  23.665  18.332  0.1001 -0.0223  0.3317
83261W        W84125  22.012  14.466   7.997 -0.1231  0.1124 -0.0557
83262W        W84126  21.938   3.961  19.091  0.0768  0.3667  0.1138
83263W        W84127   8.712   0.039   4.853  0.0179 -0.0250 -0.1399
83264W        W84128  13.032   9.843  10.581 -0.0277  0.0045  0.0448
83265W        W84129  22.641   2.016  29.049 -0.1918 -0.4511  0.1464
83266W        W84130  17.067  20.844   4.399  0.1553 -0.1364 -0.0745
83267W        W84131  16.717  11.307  24.460 -0.0625  0.1798 -0.0675
83268W        W84132  11.460  10.527  27.907 -0.0962 -0.2892 -0.2491
83269W        W84133  12.124   9.609  12.253 -0.5453 -0.1321  0.0400
83270W        W84134  14.897  19.364  22.637 -0.0734  0.0645 -0.0849
83271W        W84135   2.948   2.498   6.884 -0.1706  0.0734 -0.1348
83272W        W84136   6.639   9.038  27.864  0.0787 -0.2846  0.0769
83273W        W84137  23.320  18.612  23.134  0.3899 -0.2489 -0.3461
83274W        W84138  27.188   3.633   1.337  0.2639  0.2620 -0.1781
83275W        W84139   4.582   3.254  23.518  0.0266  0.0044  0.0700
83276W        W84140  25.312  24.198  28.573 -0.5049  0.1323  0.0510
83277W        W84141  23.047  14.682   7.000 -0.0266  0.3136  0.2394
83278W        W84142  15.911   0.202   5.157 -0.2736  0.4733  0.0908
83279W        W84143  17.123  21.910  13.717  0.1104  0.3615 -0.0584
83280W        W84144   4.447  13.011  25.012  0.2376  0.1553  0.5266
83281W        W84145  25.760   9.495   4.103  0.2532 -0.1278  0.0189
83282W        W84146  10.433   8.129  27.738  0.1568 -0.0723 -0.1253
83283W        W84147   2.726  21.704  27.637 -0.0812  0.0995  0.0216
83284W        W84148  14.731  15.266  14.911 -0.0279  0.1374 -0.2066
83285W        W84149  20.160   4.372   2.746 -0.1918 -0.1218 -0.1030
83286W        W84150  10.472   6.142  20.346 -0.2798 -0.3524  0.0101
83287W        W84151  18.599  28.335   9.982 -0.2963 -0.4627 -0.3811
83288W        W84152  25.143   1.386  20.667 -0.0305 -0.1676 -0.1097
83289W        W84153   3.346   2.336  23.946 -0.0042 -0.2164 -0.0614
83290W        W84154  27.273   4.706  28.579  0.0030  0.1514  0.1308
83291W        W84155   6.379  16.147   0.222  0.1037 -0.1649 -0.0743
83292W        W84156   1.468  13.295  16.500 -0.1159  0.0416  0.1316
83293W        W84157   2.079  29.109  28.399  0.3612 -0.0477 -0.1566
83294W        W84158   3.747  19.594  21.118  0.1992  0.1747  0.1299
83295W        W84159  21.984  21.571  24.626  0.0435 -0.2061  0.1644
83296W        W84160   0.183   7.352   2.041 -0.1388 -0.0596  0.2820
83297W        W84161  25.381  13.417   1.497  0.1756  0.1369  0.0754
83298W        W84162  21.706  23.315  19.045  0.0804 -0.3155 -0.4178
83299W        W84163   9.714  19.757   3.885 -0.5720  0.0480 -0.1196
83300W        W84164  13.707  26.130   0.804 -0.3737 -0.0780 -0.1873
83301W        W84165  10.998  17.990  17.378 -0.0802 -0.0327 -0.1872
83302W        W84166  26.195  22.090   9.498 -0.0592  0.0111 -0.1154
83303W        W84167   6.423   3.561  27.616  0.0719  0.0135  0.1354
83304W        W84168   7.449  24.629  26.444 -0.1890  0.2101 -0.0228
83305W        W84169  12.873   0.336  10.957  0.1636 -0.0597 -0.2488
83306W        W84170  20.079  13.282   1.099 -0.0776 -0.1032  0.0652
83307W        W84171   4.555  12.580  18.702 -0.0448  0.0658 -0.0621
83308W        W84172  14.460  12.726   4.970  0.2992 -0.1257 -0.0616
83309W        W84173  17.194  21.438  15.634  0.1086  0.2656 -0.0573
83310W        W84174  16.724   6.055  21.797 -0.0275 -0.0425 -0.3945
83311W        W84175   0.480   1.773  21.376  0.3596  0.0917  0.1075
83312W        W84176   0.188   2.406   6.597 -0.2940 -0.3375 -0.0916
83313W        W84177  17.378   9.239  26.420 -0.5207  0.1030 -0.2012
83314W        W84178   5.876  23.498   2.188 -0.0413 -0.1334  0.0552
83315W        W84179   3.939  27.951   7.260  0.0282 -0.0939  0.1156
83316W        W84180   7.516   3.975   0.912 -0.0269 -0.1664 -0.1089
83317W        W84181  25.302  23.621  10.736 -0.1303  0.3137  0.0729
83318W        W84182   0.858  26.141   5.765 -0.1679 -0.0227 -0.2428
83319W        W84183  16.081   6.783  15.023  0.1292  0.0659  0.3555
83320W        W84184  20.515  25.955  19.199 -0.3643 -0.2478 -0.1535
83321W        W84185  16.196   8.221  28.473 -0.1016  0.1577  0.2761
83322W        W84186  19.990   9.231  18.448  0.1849 -0.4559 -0.0833
83323W        W84187  10.855   3.549   0.112 -0.0739 -0.1324 -0.2247
83324W        W84188  25.146  19.965  11.621  0.1363 -0.3209  0.1507
83325W        W84189  24.834  25.416  26.117 -0.3427  0.1197  0.0709
83326W        W84190  13.926   7.619  24.717 -0.1304  0.1073  0.0467
83327W        W84191  25.680  16.413  25.936 -0.1062 -0.2645  0.0295
83328W        W84192  12.015  15.590  23.147  0.0225  0.0290  0.0524
83329W        W84193  23.991  18.375   4.097 -0.0685 -0.0285 -0.0915
83330W        W84194   6.796  22.015  17.667 -0.0909 -0.0274  0.2212
83331W        W84195   7.717   9.214  26.834  0.2043  0.2332  0.1254
83332W        W84196  15.029   4.712   8.710 -0.2168  0.1138  0.2630
83333W        W84197  21.195   2.960  27.696  0.0573  0.0075 -0.0147
83334W        W84198  13.207   8.515  16.117  0.1233  0.2268 -0.0754
83335W        W84199  21.909   5.914  25.594 -0.1221  0.2959  0.1820
83336W        W84200  16.364  28.804   2.419  0.0128  0.0629  0.1695
83337W        W84201  20.284  29.081  26.515  0.1024 -0.0253 -0.0767
83338W        W84202   7.312   9.173   0.963  0.1296  0.0555  0.0747
83339W        W84203   8.463   4.733  23.052 -0.1854 -0.1578  0.2750
83340W        W84204  23.820  15.266   1.714 -0.1311 -0.1031  0.0735
83341W        W84205   1.182  16.570  23.888  0.0353 -0.2995 -0.0613
83342W        W84206   2.887  10.437  17.697  0.2243  0.2076 -0.1599
83343W        W84207   2.473  28.346   8.628 -0.1061 -0.1133 -0.0171
83344W        W84208  16.231   4.067  24.478 -0.1579 -0.0495 -0.2403
83345W        W84209  16.154  23.506   3.946 -0.1241 -0.1017  0.0699
83346W        W84210  15.024  12.292  20.908 -0.0279  0.1377 -0.0495
83347W        W84211  22.445  26.153   4.140 -0.1672  0.0507 -0.2118
83348W        W84212   6.969  21.612  26.342 -0.0019  0.1188 -0.0744
83349W        W84213   5.050  24.875  20.932 -0.0646 -0.2289 -0.0168
83350W        W84214  23.897  28.989  23.285 -0.0644  0.0283  0.1359
83351W        W84215  10.286   5.663  23.784  0.1754  0.0735 -0.1820
83352W        W84216  19.620  18.207   5.604 -0.0151 -0.4156  0.2125
83353W        W84217   9.228  15.162  14.287 -0.0001  0.0740  0.1976
83354W        W84218  12.077  25.449   8.575 -0.2409 -0.0537  0.1603
83355W        W84219   3.428  11.957   9.325  0.1194  0.0751 -0.0279
83356W        W84220  10.612  23.040  14.307  0.0293  0.0357  0.0284
83357W        W84221  17.158  10.217  10.729  0.0650  0.1377  0.1032
83358W        W84222   6.481   1.221  12.594  0.1786 -0.3139 -0.0078
83359W        W84223  25.879  18.547  19.014 -0.1557 -0.0631  0.2550
83360W        W84224  26.776   0.073  13.139 -0.2707 -0.3814 -0.0285
83361W        W84225   8.955  24.822   4.979 -0.2366 -0.2075 -0.1429
83362W        W84226  19.243  25.732  21.140 -0.0821  0.0294  0.2509
83363W        W84227  14.716   5.301   4.297 -0.3058  0.3733  0.3162
83364W        W84228  16.181  20.034   7.873  0.0439  0.0630  0.1924
83365W        W84229   4.309  19.917  25.661 -0.1034 -0.0450 -0.0867
83366W        W84230   2.892  22.936   2.233 -0.3359  0.0171 -0.1413
83367W        W84231   8.202   7.171   9.677 -0.4057 -0.2758  0.0304
83368W        W84232  18.739  26.824  23.821 -0.2960 -0.0063 -0.0293
83369W        W84233  17.062   8.174  14.778 -0.2366  0.2551  0.0127
83370W        W84234  24.270  28.276  24.000 -0.0025 -0.3033  0.0749
83371W        W84235  28.704  13.278  26.415  0.0722 -0.0642 -0.2377
83372W        W84236   6.403  15.148  13.468  0.2150  0.3116  0.3692
83373W        W84237  12.391  12.084  17.982 -0.1451 -0.0020  0.0336
83374W        W84238  11.040   1.692   6.471  0.2481  0.1438 -0.0987
83375W        W84239   7.089  20.153  22.284  0.2665 -0.1034  0.0537
83376W        W84240   4.525  16.930  15.754  0.1824 -0.0126 -0.2103
83377W        W84241   1.801  17.566  24.682  0.2124  0.1168  0.0310
83378W        W84242  26.299  22.647  25.554 -0.0080  0.2422  0.0942
83379W        W84243   6.970   1.052   5.476 -0.0292 -0.2352 -0.2528
83380W        W84244  15.939   9.386   5.206 -0.3622  0.1516  0.0185
83381W        W84245  21.544  21.706  23.347  0.0239 -0.0097 -0.4080
83382W        W84246  23.714   0.143  22.921  0.0967 -0.1623 -0.0479
83383W        W84247  21.249  11.618  17.753 -0.1685 -0.2768 -0.0803
83384W        W84248   5.014   1.272  24.543 -0.4974 -0.2232  0.0605
83385W        W84249  20.135  20.618  13.437  0.2273 -0.1416 -0.1239
83386W        W84250  26.945  12.013  26.715  0.2945  0.0860  0.3785
83387W        W84251  14.797   3.980  14.517  0.0468 -0.1150 -0.0036
83388W        W84252  28.430   6.259  24.576 -0.2417  0.0190  0.1191
83389W        W84253   3.283  24.820   6.025 -0.2158  0.0216 -0.1397
83390W        W84254  25.478  24.732   2.760  0.2340  0.4271 -0.0731
83391W        W84255  21.889  11.348  24.118 -0.0988 -0.6273 -0.0665
83392W        W84256  27.112  28.870  19.357  0.2229 -0.2470  0.1657
83393W        W84257  24.921  12.755  25.809  0.1879 -0.1930 -0.1235
83394W        W84258  23.766   6.135  20.736  0.1315 -0.0425  0.1835
83395W        W84259   6.740   6.402  23.832 -0.2404 -0.1306 -0.0586
83396W        W84260  27.025  14.432  18.347  0.3278  0.1947 -0.2734
83397W        W84261  28.250  18.404   5.972  0.0074 -0.0555 -0.1732
83398W        W84262  25.696  24.478  28.276 -0.1004  0.0008  0.2813
83399W        W84263  17.928  19.734  27.250 -0.1775 -0.2012  0.2456
83400W        W84264  23.195  20.208   9.390  0.3229  0.1423 -0.0502
83401W        W84265  22.100   1.445  23.904  0.4267  0.1974 -0.0984
83402W        W84266  10.088   9.520  21.096 -0.0191  0.2539  0.2949
83403W        W84267   6.074  24.710  15.314 -0.3072  0.0490  0.2677
83404W        W84268   3.102   2.755  28.462 -0.1557 -0.1023 -0.0417
83405W        W84269  18.143   3.288   2.539 -0.1579  0.3770  0.3168
83406W        W84270  12.665  18.234  22.696  0.2924 -0.0275  0.0998
83407W        W84271  16.357   2.530  21.623 -0.0367  0.1644  0.2623
83408W        W84272   7.888   5.376   9.302  0.1654 -0.2285  0.2071
83409W        W84273   5.459  14.177   5.182  0.0584 -0.0813  0.0663
83410W        W84274  19.925  23.470  14.787  0.0145  0.0015  0.1775
83411W        W84275   8.278   5.069   9.339  0.3115  0.2251  0.2590
83412W        W84276  26.240  20.387  27.067 -0.4130  0.0972  0.6704
83413W        W84277   0.827  28.187  26.494 -0.2732  0.0360  0.1142
83414W        W84278  18.040  14.621   3.402 -0.2100  0.0667  0.1720
83415W        W84279  19.291  15.759  14.737 -0.0554 -0.0003  0.1648
83416W        W84280   8.698  29.086   0.447 -0.1568  0.0660  0.1554
83417W        W84281  14.408   0.060   2.058  0.5569 -0.2740  0.4243
83418W        W84282  19.050  11.693  12.923 -0.0011  0.0688 -0.1269
83419W        W84283  12.171   9.705   4.780 -0.1532  0.2140 -0.1240
83420W        W84284   9.718  10.583   6.554 -0.2719  0.1148 -0.0206
83421W        W84285  22.029  24.421  12.958  0.0113  0.1525 -0.0649
83422W        W84286  20.639   7.062  20.130 -0.1152  0.2060  0.0702
83423W        W84287   9.256   0.174  23.597 -0.0019 -0.0564 -0.0467
83424W        W84288   5.453  29.095  10.661  0.2120 -0.3162  0.0923
83425W        W84289  22.454   7.735   8.505 -0.0805  0.1693 -0.1740
83426W        W84290  17.221  18.772  17.815 -0.1291 -0.2765  0.0626
83427W        W84291  27.730   3.124   4.596 -0.0379  0.4411  0.1223
83428W        W84292  14.287  18.112   2.486  0.0331 -0.1169  0.0239
83429W        W84293  18.029   9.898  17.586 -0.0323 -0.1420  0.0926
83430W        W84294   3.173  28.155  14.283 -0.0620 -0.0383  0.2485
83431W        W84295  18.783  25.465  17.262  0.0022 -0.0803  0.1821
83432W        W84296  25.054   4.598  28.012  0.1746  0.0553  0.0720
83433W        W84297  12.133  25.946  27.000  0.1209  0.0169  0.0336
83434W        W84298  15.763  22.537  11.072 -0.2223 -0.1060 -0.0010
83435W        W84299   8.477   7.159  26.372 -0.0417 -0.0053  0.1395
83436W        W84300   7.732  18.035  26.038  0.3063  0.0488  0.1033
83437W        W84301  20.975   7.637  29.054 -0.1458  0.3708  0.2213
83438W        W84302  18.890  11.817  20.142  0.0279  0.1631  0.0473
83439W        W84303  15.560  28.145  25.756 -0.2302 -0.1711 -0.0341
83440W        W84304   8.974   5.816  12.449  0.3707 -0.0694  0.1501
83441W        W84305  21.891  13.428  27.788 -0.2008  0.1671 -0.3076
83442W        W84306   7.009   9.285   5.566 -0.2856  0.4031  0.1989
83443W        W84307  21.540  10.157  10.778 -0.1947  0.2838 -0.2009
83444W        W84308  25.360   0.389   5.212  0.2956  0.1099 -0.2053
83445W        W84309  18.663   9.728   8.022 -0.1072 -0.0728 -0.0557
83446W        W84310   4.800  19.300  22.112 -0.0153 -0.0912 -0.3502
83447W        W84311  28.547   9.388  17.310  0.0817  0.3501 -0.3042
83448W        W84312  21.468   8.087  18.325 -0.2618  0.1252  0.0309
83449W        W84313   0.012  16.207  19.670  0.0197  0.1806 -0.0171
83450W        W84314   8.995   4.532  11.985  0.1126  0.0639 -0.0204
83451W        W84315   0.076   3.098  15.249 -0.1223 -0.1008  0.0546
83452W        W84316   1.683  28.765  11.153  0.1626  0.2575  0.1004
83453W        W84317   9.819  27.031  18.215 -0.4180  0.2792  0.1839
83454W        W84318   5.072  20.557   1.557 -0.1203 -0.0503 -0.0781
83455W        W84319   9.448   0.993   2.035 -0.1931 -0.1582 -0.3761
83456W        W84320   3.909  14.319   2.343 -0.0969  0.1101  0.0634
83457W        W84321   8.753   4.167  15.292 -0.0244  0.1088 -0.1236
83458W        W84322   2.833  19.398  22.450 -0.0791 -0.1681 -0.1192
83459W        W84323  12.362  19.531  26.352  0.0666  0.0485 -0.0097
83460W        W84324  25.856  16.003   3.256  0.1489  0.4718  0.1837
83461W        W84325  13.669  26.056  12.607  0.1043  0.1023 -0.0783
83462W        W84326  10.923  15.268  21.105 -0.1300 -0.1850 -0.2591
83463W        W84327  10.663   3.569   3.640  0.0348  0.1178  0.1454
83464W        W84328   9.085  26.837  13.542 -0.0286  0.1084  0.3797
83465W        W84329  20.430   8.646  22.979  0.0371 -0.1070  0.0961
83466W        W84330  23.100  12.491   1.585 -0.0453 -0.2454 -0.0988
83467W        W84331   6.335   6.580  26.632  0.0001 -0.1559  0.1374
83468W        W84332  26.181  15.320   1.568 -0.4044  0.1740  0.1187
83469W        W84333  22.006  10.500   7.533  0.0620 -0.1740 -0.2664
83470W        W84334  10.751   8.594   5.592  0.0880 -0.2384 -0.1965
83471W        W84335  18.240   9.240   4.556 -0.1839  0.0547 -0.2664
83472W        W84336  21.532  18.942  19.349  0.1677  0.1238 -0.0026
83473W        W84337  16.862  18.048   1.619 -0.2275  0.2429 -0.0565
83474W        W84338  21.995  20.158  25.501 -0.3575  0.0142  0.1089
83475W        W84339   3.121  11.006  10.539 -0.1501  0.0153 -0.3592
83476W        W84340   5.946  13.790  23.864  0.0319  0.0389 -0.0129
83477W        W84341  15.000  24.776   1.792  0.1835 -0.1185  0.2006
83478W        W84342   8.918  14.147  24.336 -0.0520 -0.1409 -0.1034
83479W        W84343   3.646  27.997  26.133  0.0034  0.1104  0.2590
83480W        W84344  17.649  26.127   9.473 -0.4313  0.1252  0.0791
83481W        W84345  19.798  11.643  26.621  0.0011  0.2785  0.1147
83482W        W84346  21.599  24.011  28.035 -0.3107 -0.1716 -0.0683
83483W        W84347  12.675   8.696   0.776 -0.0283 -0.0264  0.1176
83484W        W84348  18.417  10.463  28.001  0.1404 -0.0162  0.0846
83485W        W84349  13.482  25.314   3.472  0.2876  0.2013  0.3645
83486W        W84350  17.688  13.230   6.724 -0.4357  0.1893 -0.3493
83487W        W84351  23.071  16.490   6.458 -0.0358 -0.3728  0.2141
83488W        W84352   5.670  29.090  26.987  0.3540 -0.0776  0.0132
83489W        W84353  12.704  16.937  23.268 -0.0587  0.0029 -0.0346
83490W        W84354   3.950  23.752   0.504 -0.0286 -0.0550  0.0528
83491W        W84355  21.953  16.035  13.081 -0.0553 -0.0596 -0.0508
83492W        W84356  22.913  28.926  23.566 -0.1227  0.2838 -0.2501
83493W        W84357  28.699  20.730   3.734 -0.2158  0.4666 -0.0975
83494W        W84358  16.320   8.994   0.668 -0.0401  0.0377  0.0671
83495W        W84359  27.686   2.003  25.373  0.0632 -0.0718  0.1789
83496W        W84360  11.005  20.947   7.830 -0.2258 -0.1229 -0.0955
83497W        W84361  26.514  13.073  12.610 -0.0457  0.0179  0.0865
83498W        W84362  18.269  15.177   4.839  0.0843 -0.0636 -0.0945
83499W        W84363   7.208  13.337  17.420 -0.1906  0.0311  0.0038
83500W        W84364  28.474   7.994   1.303  0.0860  0.1738  0.1524
83501W        W84365   7.499  18.950  27.025  0.3104 -0.1161  0.2455
83502W        W84366  15.335  28.031  10.340 -0.1091 -0.0545 -0.1126
83503W        W84367  10.652   8.038   5.703  0.3309 -0.0226 -0.3204
83504W        W84368   0.803   5.755  27.368 -0.2318  0.2647  0.1093
83505W        W84369  22.175  20.959   4.555  0.0001 -0.2051  0.0815
83506W        W84370  15.000   9.500  18.540 -0.2175  0.0528 -0.1373
83507W        W84371  17.044  22.377  23.020 -0.1841 -0.0842 -0.2362
83508W        W84372   3.364  19.760   2.898 -0.0014  0.1129 -0.1568
83509W        W84373   3.296  21.345   7.779  0.0938 -0.0357  0.1971
83510W        W84374  16.922  11.809  11.147 -0.0063 -0.0033  0.3267
83511W        W84375   6.253  28.644  10.961  0.4461  0.1129 -0.0246
83512W        W84376  26.422   6.757  25.091 -0.0026  0.4685 -0.0191
83513W        W84377   1.260  12.007   2.657  0.0547  0.0050 -0.1037
83514W        W84378   1.167  26.875  10.950  0.1551 -0.2781  0.2837
83515W        W84379  19.072  14.416  25.404 -0.2087  0.0281  0.1498
83516W        W84380  16.656   2.412  27.717 -0.1183 -0.0790  0.3475
83517W        W84381  11.986  20.312   9.936 -0.0256  0.1108  0.0232
83518W        W84382  20.038  12.768   2.854  0.0802 -0.1045  0.0528
83519W        W84383   3.176   8.671  19.000  0.3443 -0.0249  0.1773
83520W        W84384  21.210   5.876   1.631  0.3037 -0.2896 -0.2197
83521W        W84385   1.099   2.317  20.418  0.0855 -0.0196  0.0559
83522W        W84386  20.916   1.487  26.759  0.1881 -0.1022  0.0161
83523W        W84387  22.276   0.827   7.104  0.1679  0.1881 -0.0204
83524W        W84388  24.871   3.726  13.765 -0.3727  0.1488 -0.1370
83525W        W84389  16.489   6.702  18.588  0.1079  0.1400  0.0022
83526W        W84390   2.596   8.486   3.800  0.0992 -0.1817  0.1552
83527W        W84391  11.721  23.456  15.855  0.0900 -0.2215  0.0622
83528W        W84392  19.661  19.396  15.008 -0.1182  0.0946  0.0712
83529W        W84393   4.240  10.360   0.695  0.2168  0.1369  0.0558
83530W        W84394   7.064   8.376   2.395  0.0809 -0.0083  0.0258
83531W        W84395   6.737   4.044   6.418 -0.3525 -0.0649  0.3244
83532W        W84396  15.276  22.105  25.645 -0.1259 -0.1470 -0.2713
83533W        W84397   5.264   8.860  23.757 -0.3708  0.0844  0.0054
83534W        W84398  12.591   2.674   9.552  0.0277  0.0161 -0.1039
83535W        W84399  21.447  19.016  24.661  0.0514 -0.1801 -0.0493
83536W        W84400  21.631  20.399  25.277 -0.1005  0.2689  0.1469
83537W        W84401  13.629   1.727  26.972 -0.1911  0.0403  0.1080
83538W        W84402   0.754  24.671  15.589  0.0286  0.1893  0.0738
83539W        W84403   7.300  19.331   3.732  0.0709  0.0879  0.0723
83540W        W84404  10.397   0.902  21.863  0.1834  0.1361  0.0468
83541W        W84405  16.587   3.127  20.699  0.2603  0.1221  0.0314
83542W        W84406  18.560   1.364  16.454 -0.1958  0.0810  0.1279
83543W        W84407  20.984  18.896  27.396 -0.0098  0.2207 -0.2023
83544W        W84408   0.003   3.501  23.311 -0.1520  0.2922  0.1163
83545W        W84409   8.660  13.600  20.206  0.0738  0.1642 -0.3896
83546W        W84410  16.916  18.076  24.046  0.2216  0.1898 -0.2847
83547W        W84411   7.996  10.294   9.794 -0.2786 -0.2215 -0.1828
83548W        W84412   3.798  20.000  23.988  0.0241 -0.0955  0.0320
83549W        W84413  12.221   5.760  10.414  0.0037  0.1595  0.0566
83550W        W84414  13.033  16.974   7.724 -0.1956  0.3449 -0.0136
83551W        W84415   8.842   5.189   2.120 -0.1432 -0.1806 -0.3925
83552W        W84416  18.298   2.233  11.797  0.0759 -0.3308  0.0729
83553W        W84417   5.984   5.076  13.382  0.2037 -0.3104 -0.1199
83554W        W84418  14.967   2.096   1.251  0.1346 -0.1380 -0.0185
83555W        W84419   0.396  10.844  18.381 -0.0270  0.0690 -0.1555
83556W        W84420  20.665   2.309   7.309  0.0251  0.3051  0.2925
83557W        W84421   0.091  12.407  21.168  0.1383 -0.0728 -0.0597
83558W        W84422  14.493   6.574   0.491  0.0444  0.0475  0.4771
83559W        W84423  11.468  15.771   0.246  0.0093 -0.1684  0.0728
83560W        W84424  12.111   6.991  27.714  0.3045  0.3124 -0.0914
83561W        W84425   2.971  16.855   4.588  0.0143  0.2974  0.2701
83562W        W84426   7.867  22.950   7.009  0.1733  0.0054  0.0311
83563W        W84427  23.675  15.536  27.580  0.1116  0.0295 -0.1506
83564W        W84428  23.524  12.955   8.535  0.3529  0.0253 -0.0907
83565W        W84429   3.308  19.821   4.408  0.0581  0.2671 -0.0443
83566W        W84430  14.797   5.714  11.897  0.0442  0.1362  0.1442
83567W        W84431   5.571  24.590  26.703 -0.3147 -0.0880 -0.3986
83568W        W84432   6.480   3.978   1.923  0.1943 -0.0788  0.1724
83569W        W84433  19.622  10.628   5.860 -0.1280 -0.2379  0.0777
83570W        W84434  22.277  20.617   3.642 -0.0956 -0.1644  0.0988
83571W        W84435   2.314  16.103  26.965  0.0890 -0.1316  0.0966
83572W        W84436   8.266  11.802   1.044  0.0742 -0.2074 -0.1094
83573W        W84437  11.641   9.939  25.636  0.1287 -0.0457 -0.1228
83574W        W84438  16.330  28.924  19.002  0.2150 -0.0845 -0.4077
83575W        W84439  28.275  14.644  21.368  0.1081 -0.1185  0.1474
83576W        W84440  14.216  26.832   3.443 -0.0124  0.2648 -0.0718
83577W        W84441  13.030   0.738  28.640 -0.2361 -0.0739 -0.2617
83578W        W84442  12.133  18.072  23.165 -0.1649  0.1553  0.0772
83579W        W84443  29.016  25.525  24.464 -0.0870 -0.0817 -0.0070
83580W        W84444   8.131   7.205  18.668  0.3298  0.0623  0.3481
83581W        W84445  15.824  12.226  18.809  0.2847 -0.1445  0.0509
83582W        W84446   4.646   9.377   6.185 -0.1210 -0.0347 -0.1635
83583W        W84447  19.470  14.174  27.049 -0.2219 -0.1561  0.0781
83584W        W84448  25.287   6.672  25.026 -0.2287  0.2955 -0.1511
83585W        W84449   5.771   6.881  11.537 -0.1591  0.0627 -0.1729
83586W        W84450  13.122  21.295  26.936  0.1900 -0.0855  0.4659
83587W        W84451  18.295  19.147  28.012 -0.2814 -0.2909  0.0061
83588W        W84452  11.577  14.782   8.718  0.0013 -0.0457 -0.0688
83589W        W84453   2.237  19.470   3.440  0.2430  0.0126 -0.0471
83590W        W84454   7.606  14.324  27.567 -0.0527  0.1845  0.1318
83591W        W84455  28.155   7.517   9.556 -0.1556  0.1267  0.0653
83592W        W84456  16.516   6.760   8.375 -0.1479  0.2542  0.0575
83593W        W84457  21.661  25.648   5.776  0.0545  0.0168  0.1718
83594W        W84458   8.618   2.774   3.885 -0.2455  0.2110  0.0197
83595W        W84459   6.006   8.719  23.129 -0.0411 -0.2526  0.1087
83596W        W84460  19.118  11.721  24.964 -0.1719 -0.0067 -0.2174
83597W        W84461  10.768  27.774  24.194  0.0231 -0.2435 -0.0696
83598W        W84462   3.284  26.652   4.813  0.2612  0.4157  0.1379
83599W        W84463  16.430  12.878  24.263 -0.0917 -0.1031 -0.0726
83600W        W84464   8.171  16.828  27.129 -0.2761  0.2724  0.0850
83601W        W84465   9.448   4.211  24.234 -0.1347  0.2117 -0.1299
83602W        W84466  15.848   1.054  26.520 -0.2454  0.0160 -0.0506
83603W        W84467  13.982   0.748   3.410 -0.2887 -0.0293  0.1012
83604W        W84468  18.109   3.925  24.608  0.1038 -0.0290 -0.4008
83605W        W84469   9.658  10.187   0.852 -0.1074 -0.1711  0.1411
83606W        W84470  10.188  19.582  21.346 -0.0716 -0.1059 -0.0154
83607W        W84471   7.820   0.735  18.596 -0.0370 -0.1557 -0.0716
83608W        W84472   7.038  12.788  26.129  0.1282  0.1687 -0.1289
83609W        W84473   6.275  28.480  16.186 -0.2134  0.0609 -0.0606
83610W        W84474  15.191  27.710  24.699  0.1125  0.2452 -0.1201
83611W        W84475  10.977  14.919  28.053  0.0955  0.0003  0.1873
83612W        W84476   8.324  16.868  14.029  0.0035 -0.0369  0.0107
83613W        W84477  19.302  14.637   2.320 -0.0770  0.1070 -0.0171
83614W        W84478  24.702  12.446  27.044  0.3420 -0.0542 -0.0353
83615W        W84479   1.758   4.908  12.812 -0.0329  0.1778 -0.0768
83616W        W84480  12.134  12.506   0.814  0.0882  0.0572 -0.2956
83617W        W84481  25.579   3.875   7.744  0.0277 -0.0554  0.2354
83618W        W84482  23.154  15.057  19.389  0.2169  0.2321  0.4510
83619W        W84483  13.645  28.127   1.511 -0.0356 -0.1728  0.4235
83620W        W84484   9.219  23.380  22.721  0.2979 -0.1484 -0.2246
83621W        W84485   9.014  21.291  26.946 -0.0138  0.4001 -0.0913
83622W        W84486  25.794   4.421  14.197  0.2918  0.1296  0.0775
83623W        W84487  14.491  28.105  21.344 -0.0069 -0.0528 -0.0067
83624W        W84488  13.957  11.614   7.212 -0.2813 -0.0281  0.1390
83625W        W84489  22.281  12.554   8.973  0.1208  0.1858  0.0234
83626W        W84490   4.542  11.208  17.173 -0.0175  0.5384  0.2336
83627W        W84491  15.780   7.369   5.407  0.0716  0.0956  0.1494
83628W        W84492  24.551  13.484  12.727 -0.0244  0.0815  0.0489
83629W        W84493  20.450  10.134  20.940 -0.2186  0.1133 -0.0656
83630W        W84494  22.320   3.876  26.731  0.1739 -0.0196 -0.0008
83631W        W84495   9.147  27.235  22.076 -0.0247 -0.0593  0.1511
83632W        W84496  11.017  26.201  22.493 -0.2844 -0.1642  0.1620
83633W        W84497  19.037  26.660  23.043 -0.0169  0.2835 -0.2950
83634W        W84498  13.079  10.076  13.351 -0.2551  0.1381  0.2950
83635W        W84499   5.673  20.169   2.449  0.1417 -0.3169  0.0775
83636W        W84500   8.264  15.588  23.846 -0.0052  0.1148 -0.3354
83637W        W84501  27.602  22.694  18.861 -0.0934  0.0524  0.1023
83638W        W84502  22.947  15.604  14.415 -0.0591  0.0718 -0.3971
83639W        W84503  24.330  21.020  10.475  0.0045 -0.0737 -0.1797
83640W        W84504  28.747  17.568   6.848 -0.1221 -0.0082  0.2089
83641W        W84505   2.146  12.577   2.074 -0.2076 -0.1354 -0.1321
83642W        W84506  25.510   4.612  23.067  0.1074  0.1603  0.1455
83643W        W84507  24.339  10.258   8.924 -0.0900  0.1720  0.0500
83644W        W84508   7.972   9.347  17.124  0.3702  0.1429 -0.0486
83645W        W84509  21.765  28.237  23.630 -0.1280  0.1416 -0.1320
83646W        W84510   0.024  16.203  23.936  0.3426  0.2860  0.1103
83647W        W84511  17.186  13.815  19.822  0.2504  0.1050 -0.0154
83648W        W84512  18.636   9.060   7.657  0.3288  0.3930 -0.0130
83649W        W84513  25.768   3.929  23.104 -0.0266 -0.2121 -0.1347
83650W        W84514  12.728   5.048  21.031  0.0431 -0.3888 -0.4869
83651W        W84515   5.265  10.427  23.325 -0.0803  0.1436 -0.0992
83652W        W84516  13.469  15.744  11.662  0.4144 -0.0878 -0.0343
83653W        W84517   2.486   6.822   8.904 -0.1452  0.1761 -0.0120
83654W        W84518  22.796  18.541  23.923 -0.3436  0.1304  0.1704
83655W        W84519  11.646  11.639  28.254 -0.3297  0.0148 -0.3416
83656W        W84520  10.498  20.761  15.447 -0.0573  0.0476  0.0669
83657W        W84521  17.969  16.095   4.831 -0.1136 -0.0996 -0.3010
83658W        W84522  20.356  14.005  26.916  0.0271 -0.0740  0.1833
83659W        W84523   0.192  24.453   5.293 -0.1933 -0.5029  0.0317
83660W        W84524   5.781   6.522  11.940 -0.0129 -0.0728 -0.4470
83661W        W84525  12.254  11.940   1.654  0.0924  0.0469 -0.0656
83662W        W84526  11.745   9.154  26.206 -0.1746 -0.0442  0.1548
83663W        W84527  21.196  12.293  18.950  0.3184  0.2290  0.3822
83664W        W84528  13.159   5.392  23.468 -0.0280 -0.1434 -0.0927
83665W        W84529   8.061   4.249  14.634 -0.0053  0.1445 -0.2585
83666W        W84530   3.325   6.302  24.115  0.2638  0.5661  0.0527
83667W        W84531  14.946   9.645  19.276  0.3489  0.4204  0.0152
83668W        W84532  11.295  13.246  27.244 -0.3314  0.1101  0.0842
83669W        W84533  15.516  14.379  19.298  0.1944 -0.2808  0.0157
83670W        W84534  19.264  11.128  20.767 -0.0249  0.1010  0.3616
83671W        W84535  17.204  28.410   9.241 -0.3113 -0.0039 -0.0621
83672W        W84536  11.832   7.242   0.743  0.0617 -0.0784  0.2464
83673W        W84537  21.740  17.877   7.465  0.1434  0.1575 -0.2740
83674W        W84538   2.032  23.155  28.816  0.3066  0.0634 -0.1107
83675W        W84539   3.619   0.582  27.248 -0.0842 -0.1404  0.0669
83676W        W84540  13.560   8.982  27.264  0.0610  0.0733 -0.3258
83677W        W84541  21.641   5.847   8.439 -0.1476 -0.2153  0.2642
83678W        W84542  10.944  13.823  15.402  0.1924 -0.0357  0.0477
83679W        W84543   8.697  13.423  19.729 -0.0937 -0.1219  0.1358
83680W        W84544   4.047  16.089  19.751 -0.3100 -0.0359  0.0595
83681W        W84545   6.431  18.229  28.721 -0.1103  0.1124 -0.0806
83682W        W84546  12.459  22.873  12.763  0.3209 -0.1265 -0.0029
83683W        W84547  19.374   8.458   9.276 -0.3671  0.1971  0.2428
83684W        W84548   7.804  29.067   0.927  0.0426  0.3166 -0.2821
83685W        W84549  17.104  17.501  21.210  0.0648  0.0989  0.2038
83686W        W84550  14.048  20.687  25.239 -0.0781  0.2945  0.1992
83687W        W84551  10.507  25.566   0.261 -0.0977 -0.0736  0.0872
83688W        W84552   3.742   6.349  28.689 -0.1789  0.0499  0.5089
83689W        W84553   4.624  12.218   5.181 -0.1235  0.2643  0.1372
83690W        W84554   6.650  26.444  29.118 -0.2476 -0.0134 -0.1767
83691W        W84555  16.346   2.552   9.075 -0.0641  0.1047 -0.1554
83692W        W84556  10.684  18.297  15.471 -0.1053  0.2159 -0.1061
83693W        W84557  20.354  18.657   9.423  0.2916  0.1501 -0.2107
83694W        W84558   7.165  21.962  17.171 -0.0893 -0.2543  0.0095
83695W        W84559  19.110  15.789   8.202  0.0533 -0.1121  0.1979
83696W        W84560  16.370  11.204  26.745 -0.1024 -0.0869 -0.2151
83697W        W84561  19.184   4.774   6.402  0.0182  0.0351 -0.0263
83698W        W84562  16.679  29.035   8.061  0.0944  0.0434  0.3697
83699W        W84563  26.882  15.250  27.661  0.0080 -0.0210  0.0635
83700W        W84564   7.389  13.699  12.155  0.1026  0.2017 -0.3517
83701W        W84565   9.753  18.441  12.832 -0.0844 -0.1769 -0.0659
83702W        W84566   2.143  23.042  17.685 -0.0347  0.0767  0.3551
83703W        W84567  23.621  24.527  26.585  0.0196 -0.2767  0.1645
83704W        W84568  20.793  12.789  25.096  0.3582 -0.0851 -0.1774
83705W        W84569  16.267  16.273  28.451 -0.2051  0.0437 -0.0697
83706W        W84570  28.820  20.820  11.175  0.0670 -0.1117 -0.1465
83707W        W84571   4.227  28.486   3.550  0.1225  0.1537 -0.0917
83708W        W84572   8.928   0.217  25.232 -0.0189 -0.0893 -0.0421
83709W        W84573   5.637   8.924   5.091  0.2054 -0.0095 -0.0493
83710W        W84574  10.917   1.479  24.501  0.1909  0.1300 -0.1479
83711W        W84575  14.039   6.316   3.222 -0.2995 -0.0082  0.1636
83712W        W84576  12.918  26.957  23.428  0.1291  0.0542  0.0695
83713W        W84577   9.238  11.425  18.769  0.2695  0.0085  0.0154
83714W        W84578   5.731  19.971  11.278  0.0631 -0.0874  0.3622
83715W        W84579  28.101   3.443   0.069 -0.0783 -0.1795  0.4160
83716W        W84580   1.028   9.895  15.965  0.0178 -0.3515 -0.0382
83717W        W84581   4.544  26.726   6.221  0.0312  0.0024  0.0891
83718W        W84582  21.580  11.829  13.942  0.1987  0.0180 -0.0604
83719W        W84583  18.349   4.759   0.674 -0.3702  0.0398 -0.4093
83720W        W84584  13.989  18.747   4.929 -0.1101  0.0515 -0.3277
83721W        W84585  21.681   0.068  27.886  0.0338  0.1171  0.1873
83722W        W84586  22.369  22.064  17.677  0.1032 -0.0146 -0.0457
83723W        W84587  24.611  26.298   0.926 -0.1268  0.1464 -0.1202
83724W        W84588  13.394   5.880  16.310 -0.0340 -0.0152 -0.0847
83725W        W84589  29.066  14.485   6.221 -0.1400  0.0554 -0.3274
83726W        W84590   2.223  28.701  20.653 -0.1384  0.0599 -0.2256
83727W        W84591  25.562  28.378   2.483  0.0324  0.0412  0.2582
83728W        W84592   8.517   7.593   1.597  0.2659 -0.0299  0.0805
83729W        W84593  17.579  13.159  26.251 -0.2346 -0.1494  0.1428
83730W        W84594  26.551  14.401   1.029  0.0110  0.0921 -0.2503
83731W        W84595   6.804   0.462  26.981  0.2176  0.0230  0.1408
83732W        W84596  18.197  10.809   8.068  0.1331 -0.0117  0.1259
83733W        W84597   3.788  20.712   3.325  0.0515 -0.1469  0.0009
83734W        W84598  14.702   1.387  11.892 -0.3370 -0.2130  0.1286
83735W        W84599  17.926  15.755  25.772  0.2123  0.0184  0.4530
83736W        W84600  16.098   8.460  26.277 -0.1031  0.1078 -0.1337
83737W        W84601  15.237   5.841  26.135 -0.0379  0.0863  0.2071
83738W        W84602  27.972  15.626  17.392  0.1672 -0.2058 -0.2497
83739W        W84603  12.017  18.342  12.533  0.0898  0.0154  0.0405
83740W        W84604  19.079  29.139   3.774 -0.1241  0.0760  0.0538
83741W        W84605   2.543  12.518  14.222  0.0051  0.4539 -0.0338
83742W        W84606  11.016  13.553  14.116  0.0715 -0.1219  0.0915
83743W        W84607  16.315  20.136  22.396 -0.0065  0.3739 -0.2544
83744W        W84608  18.143  15.280   1.863 -0.0548  0.1067  0.1428
83745W        W84609  22.036  22.578  28.708 -0.3409  0.0199  0.1624
83746W        W84610  23.225  20.112  25.721 -0.2952  0.1370 -0.0246
83747W        W84611  19.100  11.218  22.527 -0.0770  0.2295 -0.0287
83748W        W84612  17.859  27.657   9.976  0.0593 -0.0408 -0.2246
83749W        W84613  14.572  15.986   1.724 -0.0776  0.0377  0.2007
83750W        W84614   6.559   6.498   7.590  0.2371 -0.0649  0.2920
83751W        W84615   3.433  10.375   2.563  0.0056  0.2215  0.1200
83752W        W84616   2.875  15.253  11.791 -0.1117 -0.1618  0.0227
83753W        W84617  18.897  23.881   7.074  0.1041  0.1993 -0.2202
83754W        W84618  23.094   7.716  11.487 -0.4056 -0.1050 -0.1269
83755W        W84619  18.270  25.743   7.054 -0.3145 -0.0738  0.0873
83756W        W84620   1.822  16.082  18.368 -0.0888  0.0695  0.1230
83757W        W84621  26.159   7.813   7.099 -0.2872  0.3590 -0.0752
83758W        W84622   7.456  13.008  27.029 -0.0289  0.0408  0.1032
83759W        W84623  15.112   4.863   4.263 -0.4213  0.2623 -0.1265
83760W        W84624  12.121  11.648  22.961  0.2094  0.1611 -0.2116
83761W        W84625  25.182  17.719  26.672 -0.4335 -0.0405  0.0665
83762W        W84626  25.079   7.557   6.277  0.1404 -0.0840  0.1085
83763W        W84627  20.536  27.518  23.623 -0.0434  0.2511  0.1871
83764W        W84628   7.491  15.095   9.846 -0.5176  0.1093  0.3880
83765W        W84629   1.611   5.454  12.682 -0.1440  0.2279 -0.1713
83766W        W84630  21.605  13.395   4.045 -0.2575 -0.1556  0.0526
83767W        W84631  10.932   6.070   2.767  0.2233 -0.3394  0.1139
83768W        W84632   8.444  27.349  18.686  0.2329 -0.1159  0.1140
83769W        W84633  12.819  25.651   7.088 -0.0358 -0.2853 -0.2547
83770W        W84634   1.258   5.259   5.526 -0.0688 -0.3747  0.1089
83771W        W84635   8.003  19.599   7.792  0.1518  0.0671 -0.0767
83772W        W84636  23.299  11.831   6.543 -0.1482 -0.1767  0.0759
83773W        W84637  19.637  23.576  22.470 -0.2733  0.4233  0.0703
83774W        W84638   3.060  27.383  12.200  0.4283 -0.2420  0.1375
83775W        W84639  17.309  27.731  13.645  0.0749 -0.3583  0.1188
83776W        W84640   4.951   3.444   9.051  0.3961  0.0305  0.0642
83777W        W84641  22.972  21.836  19.562  0.2815 -0.0610  0.1400
83778W        W84642  15.908   5.665   3.091  0.0187  0.1356 -0.1609
83779W        W84643  15.616  16.567   8.885  0.1544  0.1847  0.3111
83780W        W84644  12.956   8.424  14.974 -0.1358  0.0239 -0.0628
83781W        W84645   7.571  11.480   0.862 -0.2944 -0.1601  0.2557
83782W        W84646  19.447  21.935  26.432  0.1135  0.0484  0.0352
83783W        W84647   0.835  10.538  18.343 -0.1617  0.1466 -0.1751
83784W        W84648  28.696  24.141  24.282  0.0903 -0.0300  0.1714
83785W        W84649  16.218   5.015  15.323  0.0367 -0.2468  0.2146
83786W        W84650  13.382  11.154   6.751 -0.1083 -0.0399 -0.0548
83787W        W84651  21.446  13.745   0.769  0.1218 -0.2132 -0.3178
83788W        W84652   8.014   0.323  10.517  0.0125 -0.0467  0.1464
83789W        W84653  15.865  14.281  11.722 -0.3389 -0.4539 -0.0619
83790W        W84654  10.928   4.003   2.266  0.1159 -0.2699 -0.2664
83791W        W84655   7.996  18.142   7.307  0.1571 -0.2541  0.1294
83792W        W84656  10.476  11.730   2.785  0.1917  0.0462 -0.0926
83793W        W84657  13.952  20.240  24.045 -0.0862  0.0372 -0.0873
83794W        W84658  16.529   0.406  23.147 -0.0275  0.0457 -0.0592
83795W        W84659  15.536  28.732  26.986 -0.0557 -0.1300 -0.1967
83796W        W84660  19.283  12.001  28.656 -0.3039  0.0090 -0.1279
83797W        W84661   8.823   1.274  13.215  0.0046 -0.4497 -0.1295
83798W        W84662   0.260  15.599   6.507  0.0863  0.0780 -0.0875
83799W        W84663   4.195  28.857  27.144  0.1124 -0.1986  0.2840
83800W        W84664  20.898  20.856   7.638 -0.2406  0.1213 -0.2077
83801W        W84665  11.868   0.853   4.290  0.1326 -0.1467 -0.0172
83802W        W84666  15.967  14.148   1.285  0.1428 -0.2682 -0.1583
83803W        W84667  23.370   0.352   3.144  0.0510  0.3179 -0.0484
83804W        W84668  20.448  15.187   3.122  0.2387 -0.0233 -0.0891
83805W        W84669   0.825   6.940   9.157  0.3313  0.1889 -0.0340
83806W        W84670  13.039   7.117   5.483 -0.0632  0.1964  0.0447
83807W        W84671   8.903  26.184   6.593  0.0869 -0.2776  0.0867
83808W        W84672  13.937   1.636  22.133  0.0467  0.1581  0.1547
83809W        W84673   9.278   6.728   2.229  0.2234 -0.2878  0.0534
83810W        W84674  23.905  23.980   4.880  0.2184  0.1236 -0.0312
83811W        W84675   8.634  20.950   4.699 -0.1119 -0.0712 -0.0395
83812W        W84676  17.636  12.193   5.834  0.0905 -0.2128 -0.2832
83813W        W84677  20.598  26.847   2.482 -0.1477  0.0654  0.0871
83814W        W84678  24.251  28.965   2.192  0.0832  0.0306 -0.0128
83815W        W84679   3.083   7.263  13.954 -0.3954  0.0780 -0.2957
83816W        W84680   0.903  27.783  12.397 -0.0461  0.0476  0.2428
83817W        W84681  15.824  13.405  22.857  0.0019 -0.0228  0.0239
83818W        W84682  24.748   2.580  23.922  0.2990  0.1099 -0.2446
83819W        W84683   5.311  10.442  11.658  0.2063  0.4408 -0.0273
83820W        W84684  18.109  17.450  19.239 -0.3033  0.0065  0.0932
83821W        W84685   9.661  20.529   9.452 -0.1654 -0.3428 -0.0783
83822W        W84686   9.492  11.810   8.877 -0.2381  0.0487 -0.1516
83823W        W84687  22.832   2.144  24.031 -0.0853 -0.0595  0.3384
83824W        W84688  15.612  28.651  25.619  0.2583 -0.0903 -0.2849
83825W        W84689  19.166  16.425  27.178  0.1855  0.2704 -0.0019
83826W        W84690  21.254  22.450  29.094  0.1626  0.1392  0.0804
83827W        W84691   3.208  12.186  13.892 -0.3396  0.1619  0.2168
83828W        W84692   3.447  12.593  16.450  0.4666  0.3859  0.2628
83829W        W84693   6.413  19.109  27.745  0.2038  0.0514 -0.1569
83830W        W84694  13.129  23.524  17.430 -0.1863 -0.0929 -0.0825
83831W        W84695   5.037  12.207   6.118 -0.3636  0.0707 -0.2633
83832W        W84696  13.805  25.588   6.937 -0.2973  0.1781  0.0017
83833W        W84697   5.973  14.508  11.649 -0.0942  0.1209  0.3089
83834W        W84698   6.019  26.622  25.611  0.0409 -0.0639 -0.2384
83835W        W84699  25.307  27.207  26.933 -0.0587  0.0622 -0.2254
83836W        W84700  23.666  12.490  10.086  0.2113 -0.4037 -0.0703
83837W        W84701  23.035   3.216  25.699  0.2319 -0.3000  0.0345
83838W        W84702  22.501   1.713   8.615 -0.4748  0.0283 -0.1011
83839W        W84703  18.727   8.127   8.830  0.1135  0.0986  0.3492
83840W        W84704  12.214  22.398  18.798 -0.1192 -0.1504  0.0824
83841W        W84705   3.674  16.857   8.584  0.1199 -0.2471  0.1568
83842W        W84706  22.075   0.976  28.220 -0.0050 -0.0711 -0.1338
83843W        W84707   3.899   7.394  18.380 -0.0111  0.4961  0.1894
83844W        W84708  16.758  10.516  12.888 -0.2020 -0.1707  0.1288
83845W        W84709  10.124   0.975  18.721  0.0526  0.0738 -0.0107
83846W        W84710  21.398  12.027  27.611  0.1260 -0.0797 -0.3595
83847W        W84711  16.420  10.398  18.958  0.3138 -0.0732  0.0096
83848W        W84712  19.291  19.029  18.123  0.1616 -0.0871  0.2659
83849W        W84713  14.668   9.522  14.882 -0.0436 -0.1131 -0.1533
83850W        W84714   9.819  14.534  12.367 -0.2246 -0.0764 -0.0677
83851W        W84715  21.517  19.012  27.277  0.0214 -0.2154 -0.3103
83852W        W84716   6.369  23.117   4.434  0.1023  0.1435 -0.0617
83853W        W84717   3.187  12.475  17.130 -0.4059 -0.2811  0.0208
83854W        W84718   3.547  26.411   1.598  0.0227  0.3803 -0.0207
83855W        W84719  22.408  11.647   0.748 -0.3878  0.0334  0.1326
83856W        W84720  21.749  27.076  21.266  0.2190  0.0613  0.2571
83857W        W84721   6.093  11.733  23.286 -0.1957 -0.0709  0.1962
83858W        W84722   3.955  10.493  12.985  0.3830 -0.2335 -0.0293
83859W        W84723  15.524   6.496   8.515 -0.2508  0.0445  0.0093
83860W        W84724  12.930  15.086  22.153  0.0447  0.1516  0.1667
83861W        W84725   1.739   8.806   6.172  0.1891  0.0349  0.0194
83862W        W84726  12.268  14.768  20.184 -0.0349  0.1185  0.0029
83863W        W84727   9.255  14.348   7.780  0.1031 -0.1232  0.2605
83864W        W84728  13.405   4.685  20.041  0.0193  0.1326 -0.2458
83865W        W84729   5.724  28.984  13.496 -0.0931 -0.0311  0.2534
83866W        W84730   6.667  14.107  27.343  0.0660 -0.1106 -0.0696
83867W        W84731  25.290  10.150  12.497  0.1724 -0.2467 -0.0374
83868W        W84732  13.946   9.624  27.974 -0.0254 -0.1792 -0.2172
83869W        W84733   1.137  11.900   7.717 -0.4260 -0.0651 -0.2255
83870W        W84734  10.217   4.755  24.356 -0.1600  0.1759 -0.2019
83871W        W84735  18.395   5.597   0.669  0.0169 -0.1827  0.0410
83872W        W84736   1.061  20.237  22.097 -0.0853 -0.1069  0.1315
83873W        W84737  16.173   8.032   5.022  0.1061  0.0458  0.1401
83874W        W84738  14.743  14.722  18.900 -0.0275 -0.0130 -0.0588
83875W        W84739   1.564  15.858  10.609  0.0528  0.1531 -0.3368
83876W        W84740  11.524  13.277   1.892  0.0152  0.0429  0.1723
83877W        W84741   8.822  20.359  19.721  0.1470 -0.3981  0.0516
83878W        W84742   9.503   3.347   7.664  0.0692  0.1461 -0.1396
83879W        W84743  24.238   2.940  13.528 -0.2155 -0.0793 -0.0124
83880W        W84744  24.523  20.963  25.646  0.1135 -0.0423  0.2637
83881W        W84745   1.765   1.070   6.235 -0.2095 -0.1406  0.2931
83882W        W84746  13.255  13.782  28.759 -0.0872  0.0762 -0.2557
83883W        W84747   4.840   6.044  12.960  0.0234 -0.0337  0.1405
83884W        W84748  11.967   3.704   7.425  0.2333  0.1484  0.0996
83885W        W84749  20.522  15.924  27.632  0.2432 -0.0474 -0.2050
83886W        W84750  19.634   7.683  28.732  0.0648 -0.0769 -0.1498
83887W        W84751  17.186  21.308   1.800 -0.0650  0.2451 -0.5006
83888W        W84752  12.223   1.619  10.764 -0.2739  0.2557  0.1331
83889W        W84753  22.314   0.848   6.554  0.4345 -0.1027 -0.2334
83890W        W84754   0.502   1.927   4.118  0.0534 -0.2499  0.1416
83891W        W84755  14.787   5.420  13.156 -0.1789  0.1109  0.0396
83892W        W84756   7.026   3.221   1.885 -0.1356  0.0598  0.2863
83893W        W84757  14.540   3.501  28.214 -0.0390  0.1563  0.1718
83894W        W84758   6.868  10.502  21.412  0.1029  0.1514  0.0229
83895W        W84759  12.169  10.290  11.524 -0.1413 -0.1448  0.1492
83896W        W84760   5.928  18.734   4.764  0.0134 -0.0714 -0.1573
83897W        W84761  11.163   5.464   1.420 -0.1397 -0.0830  0.0665
83898W        W84762  20.236   4.531  15.656 -0.1786 -0.0675  0.2131
83899W        W84763   0.137  15.533   7.450 -0.2107  0.2892  0.0593
83900W        W84764  26.190   0.601  10.589 -0.0875 -0.1610  0.0211
83901W        W84765  15.005  22.812  24.293  0.0194 -0.0571 -0.2367
83902W        W84766  20.965   6.454   6.473  0.0747  0.0777 -0.0409
83903W        W84767   7.957  26.853  11.404 -0.0200  0.1898  0.1062
83904W        W84768  10.443  27.740   5.632 -0.0167  0.0724  0.3475
83905W        W84769  21.616  24.596  25.750 -0.5168  0.1462 -0.2060
83906W        W84770   2.563  21.813   5.018 -0.0798  0.0766 -0.2681
83907W        W84771   5.305  11.329   7.561  0.2078 -0.1417  0.0893
83908W        W84772  28.846   6.794  22.776  0.2365  0.3684 -0.3485
83909W        W84773   1.657   5.156   1.931  0.3072  0.0291 -0.1322
83910W        W84774   5.557  26.860   8.473  0.2010 -0.4630  0.2615
83911W        W84775   5.950  10.893  15.552  0.1755 -0.3265 -0.0466
83912W        W84776  24.633   9.415   1.941  0.0984  0.1836 -0.4148
83913W        W84777   8.023  13.805  23.668  0.0734  0.0137 -0.0571
83914W        W84778  21.554  22.576   6.262 -0.0554  0.0784 -0.2756
83915W        W84779   6.276  24.190   1.154 -0.2923  0.1364  0.0885
83916W        W84780   5.517  28.038   3.495 -0.3205 -0.1025 -0.2283
83917W        W84781  11.714   3.312  10.765  0.2262  0.1578  0.0571
83918W        W84782   4.395  12.859  13.916 -0.0027 -0.0102 -0.1395
83919W        W84783  16.797   7.272  20.426  0.0809  0.3607 -0.0750
83920W        W84784   8.332   3.703  15.761  0.0412 -0.2811 -0.0558
83921W        W84785  21.431  21.413  23.707 -0.0975  0.2017  0.2928
83922W        W84786  14.891  11.494  29.025 -0.0593  0.1251  0.1565
83923W        W84787  13.422  26.326  28.278  0.1636 -0.1141 -0.0985
83924W        W84788  18.277   8.328  19.900  0.0678  0.0218 -0.0326
83925W        W84789  28.123  15.416  22.569 -0.2869 -0.4095  0.0266
83926W        W84790  10.025  10.757   4.368 -0.0177 -0.2685  0.2683
83927W        W84791  11.037   1.844   5.730 -0.3027 -0.0275  0.2681
83928W        W84792  21.013   1.976  17.711  0.1917  0.1509 -0.1275
83929W        W84793   6.422   2.676  11.450 -0.0191 -0.1674  0.2715
83930W        W84794  15.351  15.969   1.478  0.1438  0.1646  0.1710
83931W        W84795  20.424  18.909   4.387  0.3871 -0.1794 -0.2009
83932W        W84796  21.118  15.306  18.595  0.0071  0.3470 -0.1736
83933W        W84797   8.421  26.835   2.009 -0.0796 -0.1036 -0.0655
83934W        W84798  17.131   8.477  16.559 -0.0523 -0.0507 -0.0772
83935W        W84799  19.685  21.996   1.805 -0.2966 -0.0379 -0.0008
83936W        W84800  14.408  11.178   1.580  0.1307  0.0184  0.0764
83937W        W84801   4.672  23.287  15.653 -0.2317  0.1806 -0.1776
83938W        W84802  14.275  10.643  19.691 -0.0407  0.3261 -0.1101
83939W        W84803  16.466  10.340   0.469  0.1792  0.0201  0.1103
83940W        W84804   0.111   0.225  12.409 -0.2226 -0.1156 -0.0613
83941W        W84805  19.274   1.117  15.901 -0.0247  0.0619  0.2662
83942W        W84806  26.097   1.031  19.281  0.2726 -0.0781  0.2187
83943W        W84807  13.070   7.439  14.768 -0.0296  0.0966  0.0348
83944W        W84808  11.642  23.475   1.302  0.2338  0.1122  0.0120
83945W        W84809   2.153  25.448  22.752  0.1321  0.0371 -0.3952
83946W        W84810  21.934  21.422  23.347  0.0304 -0.3822 -0.0581
83947W        W84811  10.781  20.767  12.144  0.0302 -0.0808 -0.0598
83948W        W84812  17.230   2.953   7.434 -0.0069  0.2862 -0.0406
83949W        W84813   8.522  14.193  28.841 -0.0665 -0.4433 -0.0142
83950W        W84814   1.941  11.186  23.444  0.0335  0.0708  0.0340
83951W        W84815   9.063   0.472  10.080 -0.0676 -0.1480 -0.1743
83952W        W84816  23.052  15.352  27.146 -0.0475  0.2399 -0.0743
83953W        W84817   2.033   7.720  11.968 -0.1001 -0.1391 -0.1096
83954W        W84818   4.148  17.871  25.661  0.1639  0.2659  0.2204
83955W        W84819  12.654   5.645  24.924  0.1292 -0.1011  0.2572
83956W        W84820   7.206   4.643   1.531  0.3227 -0.1283 -0.0533
83957W        W84821  14.794  15.166  20.783  0.2957 -0.1618  0.0829
83958W        W84822  11.430   6.643  23.336  0.3169  0.0166 -0.0306
83959W        W84823  11.244  22.548   9.462 -0.2578 -0.3749 -0.0742
83960W        W84824  26.854   8.577   2.285  0.0544 -0.0654  0.0235
83961W        W84825  26.107  16.560  17.581  0.0645  0.1374  0.2153
83962W        W84826   2.214   7.685  19.479 -0.0439  0.0536  0.2339
83963W        W84827  16.304  22.916   8.201 -0.2647 -0.1661 -0.2046
83964W        W84828  21.939  21.431  27.742  0.0260  0.2291  0.2546
83965W        W84829  24.856  19.003  21.740 -0.3994 -0.0465 -0.1329
83966W        W84830  20.463  11.276  15.878  0.0380  0.1367  0.2038
83967W        W84831  14.188   7.068  22.852 -0.1234 -0.1994 -0.0723
83968W        W84832  14.059  17.890   3.447  0.0108  0.3021 -0.0081
83969W        W84833  13.519   0.672   8.887  0.4374 -0.4044 -0.1202
83970W        W84834   1.668   4.245   0.792 -0.2039  0.0345  0.0094
83971W        W84835  15.926  25.909   8.872  0.2297 -0.2122 -0.3445
83972W        W84836  26.967   5.304  18.996 -0.0940  0.1671 -0.0394
83973W        W84837  17.259  27.536  20.951  0.2549  0.3563  0.2949
83974W        W84838  28.584  23.417  20.901  0.1899 -0.0461  0.1877
83975W        W84839  23.607  25.962  15.979  0.1997  0.2633 -0.1711
83976W        W84840  19.174  12.833  22.553 -0.2984  0.0334 -0.1671
83977W        W84841   5.278  12.023  18.260 -0.1178 -0.0447  0.1243
83978W        W84842  18.174  22.182  24.740  0.0488 -0.3276 -0.2519
83979W        W84843  25.321  14.246   3.948  0.1797  0.1890 -0.1396
83980W        W84844  14.619  27.228   2.546 -0.1801 -0.0116  0.0824
83981W        W84845   6.024  21.508   6.435  0.0747 -0.1961 -0.2039
83982W        W84846  16.659  20.498   4.625 -0.0178 -0.1005  0.0308
83983W        W84847  22.498  19.966   4.788  0.0356 -0.2618 -0.0506
83984W        W84848  17.730  11.514   5.607 -0.2096 -0.0236 -0.1601
83985W        W84849  24.752   6.458   7.420 -0.0045 -0.0043 -0.0019
83986W        W84850   1.313  26.296  25.791 -0.1373  0.0745 -0.0442
83987W        W84851  14.134  17.027  27.824 -0.0781  0.0607 -0.0922
83988W        W84852  14.288  16.412  23.735  0.1517 -0.0023 -0.1676
83989W        W84853  23.366   7.432  10.529 -0.2216 -0.3012 -0.2631
83990W        W84854  27.435  24.990   9.987  0.2632 -0.2621 -0.3439
83991W        W84855  14.471   1.030   8.132  0.0919  0.0880 -0.3124
83992W        W84856   6.831  28.202  28.235  0.0540  0.2904  0.3084
83993W        W84857   8.222  24.362  26.814  0.0619  0.1620 -0.0176
83994W        W84858   2.544  10.415   7.112 -0.3859  0.2906 -0.1793
83995W        W84859  22.968  14.628   8.357 -0.3007 -0.2225  0.2423
83996W        W84860  15.437  24.483   2.430  0.0652 -0.0582  0.1466
83997W        W84861  20.886  16.267   8.368  0.2152 -0.1314 -0.3535
83998W        W84862  10.677  26.374   1.772 -0.0616 -0.3192 -0.3708
83999W        W84863  11.298   0.345   3.881 -0.2352  0.2236 -0.1237
84000W        W84864  20.320   6.674  26.645 -0.3134 -0.0224  0.2336
84001W        W84865   8.245   0.694  13.530 -0.3430  0.4114 -0.0005
84002W        W84866  16.666   7.104  10.378 -0.0703  0.1618  0.0880
84003W        W84867   3.726   8.690  25.015 -0.0133 -0.1621  0.0856
84004W        W84868  12.088   4.621   3.905  0.0022  0.2165  0.2093
84005W        W84869  27.658   6.794   1.144 -0.1131  0.4230 -0.1553
84006W        W84870   5.650  10.304  12.478 -0.0976 -0.1666 -0.1119
84007W        W84871  10.081  14.857   3.965  0.0682  0.2530 -0.0692
84008W        W84872   8.855   8.700  21.921 -0.1152 -0.0924  0.3455
84009W        W84873  22.042  18.733  12.771 -0.1061  0.2497 -0.1049
84010W        W84874   6.048   5.926  12.666  0.1578  0.1545  0.3039
84011W        W84875  28.473  14.053  13.907 -0.1167 -0.1931 -0.0221
84012W        W84876  18.329   6.559  20.259 -0.2151  0.1248 -0.0780
84013W        W84877  19.572   1.926   5.383 -0.2209  0.0418  0.0824
84014W        W84878   6.311   8.632   2.211  0.0739 -0.0189  0.0269
84015W        W84879   5.835   4.455  24.740 -0.1565  0.1438 -0.0624
84016W        W84880   9.221  18.440   8.255 -0.1330 -0.3885 -0.0872
84017W        W84881  18.231  17.135  26.389 -0.1014  0.0605 -0.0955
84018W        W84882  12.223  25.757  25.017  0.0209  0.3074 -0.3887
84019W        W84883  20.329  22.852  23.638 -0.1067  0.2413  0.1319
84020W        W84884  14.635  14.763   5.456 -0.1995  0.2641  0.1675
84021W        W84885  22.233  22.093   9.827  0.2147 -0.2670  0.1899
84022W        W84886  19.536  23.079   9.599  0.1050  0.3129  0.2994
84023W        W84887  16.510  19.717   6.267  0.0088  0.0631  0.1134
84024W        W84888  15.094   1.801   7.639  0.0121 -0.0242  0.0574
84025W        W84889   5.714   9.028  24.478 -0.2362  0.0425 -0.0480
84026W        W84890   7.660  13.412   1.318  0.1617 -0.3693 -0.0480
84027W        W84891  14.907  29.110  14.142 -0.3752 -0.0414  0.1424
84028W        W84892  11.453   9.633  28.576  0.1393 -0.1099 -0.1788
84029W        W84893   2.486  26.701   6.685  0.2147 -0.6517 -0.2505
84030W        W84894  25.602  25.588   3.658  0.1672 -0.0639 -0.0961
84031W        W84895   6.540   0.498   5.477  0.0888  0.2209 -0.0376
84032W        W84896  10.577  24.277  10.409 -0.1823 -0.0122 -0.3012
84033W        W84897   0.157  21.405   2.322 -0.1574  0.1724  0.1016
84034W        W84898  20.178   5.664   6.396 -0.1025 -0.0612 -0.0390
84035W        W84899  25.817  15.256  14.333  0.0400 -0.4199  0.3878
84036W        W84900  25.270   2.142  11.872 -0.0890  0.1022  0.2938
84037W        W84901  11.894  13.050  23.170  0.2796  0.1489  0.1253
84038W        W84902  18.081  10.244  20.834  0.0396 -0.0287  0.2586
84039W        W84903  11.395   4.177  24.266 -0.0835  0.3012 -0.4732
84040W        W84904  11.909  17.076  26.331 -0.5176  0.0065 -0.1013
84041W        W84905   1.234  19.510   3.111 -0.0915  0.4034 -0.1778
84042W        W84906   6.460  17.454   1.322 -0.0390 -0.4185  0.1038
84043W        W84907   6.840  12.589   1.192 -0.0847 -0.1313 -0.1437
84044W        W84908  18.636  19.190  21.617 -0.1771  0.0677  0.1806
84045W        W84909   5.771   6.360  12.659 -0.0546  0.0160  0.1715
84046W        W84910  18.124  18.151  28.018  0.0781  0.1040  0.1425
84047W        W84911  20.025  17.509   5.526 -0.3827 -0.0331  0.1690
84048W        W84912  26.567  11.807   1.759 -0.0976  0.0161 -0.0801
84049W        W84913  18.719  11.314  17.680  0.0352  0.3349 -0.2182
84050W        W84914  23.448  20.128  15.019 -0.0174 -0.1534 -0.0184
84051W        W84915  21.476   5.418   8.655  0.0213 -0.3643  0.0017
84052W        W84916   6.343   0.716  22.864  0.0840 -0.3555 -0.4101
84053W        W84917   3.051   0.766  28.157 -0.1947 -0.1898  0.1193
84054W        W84918  22.909   8.314  13.601 -0.1229 -0.1691  0.0913
84055W        W84919  19.006  16.297   8.113  0.2866 -0.0091 -0.1145
84056W        W84920  26.231  27.038   7.029  0.1139  0.0351 -0.0175
84057W        W84921  28.662  21.309   4.586  0.0914 -0.1436 -0.0971
84058W        W84922  18.785  18.906  16.141 -0.2962 -0.2084  0.1603
84059W        W84923   6.687  23.332   1.990 -0.0999  0.1464 -0.1560
84060W        W84924  12.621   6.726   7.214 -0.0547 -0.3435  0.0650
84061W        W84925   8.023   2.707   0.488 -0.2694 -0.2978 -0.3169
84062W        W84926  25.670   8.458   4.965  0.1887  0.3442 -0.1971
84063W        W84927  27.844   6.244   5.070  0.1852  0.0840  0.3828
84064W        W84928  16.543   9.475  18.180  0.3787 -0.0954  0.3095
84065W        W84929   5.440   3.894   6.778 -0.2647  0.3095 -0.0396
84066W        W84930  14.727   7.272   3.849 -0.0601  0.0117 -0.0244
84067W        W84931  17.531   4.443  25.584 -0.1653 -0.1779 -0.2759
84068W        W84932   4.979  20.411   3.681 -0.0650 -0.1378  0.2203
84069W        W84933  14.284  13.659  18.943 -0.1050 -0.1235  0.2381
84070W        W84934   8.890   0.459   7.111 -0.1044  0.0041 -0.1214
84071W        W84935   7.102  23.264   6.526 -0.1839  0.1776 -0.0567
84072W        W84936  23.186   5.803   5.732 -0.2899  0.0978  0.3041
84073W        W84937  14.060  14.351   3.041 -0.1315  0.2313 -0.0938
84074W        W84938  26.320   7.123   7.010 -0.3520 -0.0547  0.1919
84075W        W84939  23.390  17.992  28.827 -0.0016  0.1610 -0.1858
84076W        W84940  23.307  22.138   5.573  0.3645 -0.1212  0.2157
84077W        W84941  15.359  28.030   9.826 -0.0486  0.4137 -0.0412
84078W        W84942  13.815   4.148   3.910 -0.1703 -0.0028  0.1423
84079W        W84943  26.714   9.841  17.828 -0.1462 -0.1675  0.1508
84080W        W84944   7.163  13.494  20.841  0.0920 -0.0738 -0.3248
84081W        W84945  10.773   2.017  18.447 -0.0076 -0.3030 -0.2053
84082W        W84946   2.773   0.542  26.115  0.2475  0.1508 -0.2611
84083W        W84947   0.866  18.915   6.635 -0.0811 -0.2150  0.0627
84084W        W84948  24.170  12.290  10.492  0.2580  0.5026  0.0616
84085W        W84949  19.162   7.283   5.432  0.1195  0.1234  0.0999
84086W        W84950   9.991  12.960  25.520  0.0488 -0.0269  0.2771
84087W        W84951  16.192  12.407  25.520  0.1795  0.5364 -0.1774
84088W        W84952  11.847   2.023  20.851 -0.0432 -0.0676  0.1941
84089W        W84953   7.318  26.978  28.446 -0.1710  0.0829 -0.1227
84090W        W84954  22.373  25.486  11.151  0.1991 -0.1334 -0.3787
84091W        W84955  24.709  20.200  17.964 -0.3554  0.0422 -0.0487
84092W        W84956  13.144   8.964   1.566  0.0910  0.1197 -0.1709
84093W        W84957  15.712   2.288  17.739 -0.0399 -0.0255  0.0007
84094W        W84958  18.558  12.810  21.449 -0.2794 -0.1630 -0.1906
84095W        W84959  24.026  27.139  10.188  0.1565  0.1537  0.0777
84096W        W84960   1.452  14.831  27.261  0.1383  0.0537 -0.1473
84097W        W84961   8.070  14.426   0.212 -0.0541 -0.0181  0.0530
84098W        W84962  26.179   7.928  12.150  0.0173 -0.1150  0.0127
84099W        W84963   8.560  19.021  21.790 -0.0530 -0.0576 -0.2281
84100W        W84964  14.003  23.221   8.539  0.0135  0.3796  0.0905
84101W        W84965  22.101  14.708  16.929  0.1438 -0.0973  0.1777
84102W        W84966  10.277  12.211  11.210  0.0893 -0.1901 -0.2480
84103W        W84967   4.402  15.606   7.215 -0.0141  0.1055 -0.2290
84104W        W84968  21.472   7.319   4.736  0.1356  0.0841  0.3166
84105W        W84969  17.047   0.834   7.518 -0.0387 -0.0470  0.3428
84106W        W84970  15.197   8.239  10.610  0.0400 -0.1457 -0.2268
84107W        W84971   0.319   8.126  15.050  0.0766  0.0489 -0.2269
84108W        W84972  16.850  13.430  11.364 -0.1056  0.0402  0.0609
84109W        W84973  24.841   9.566   6.220  0.0676  0.0007 -0.1581
84110W        W84974  14.869  19.744   0.414  0.1275  0.1321 -0.1516
84111W        W84975   8.551  23.852   7.874  0.0415 -0.0949 -0.0985
84112W        W84976   9.903   7.250   8.696  0.3655  0.0935 -0.1305
84113W        W84977   3.798   9.989  28.328  0.0652 -0.2132 -0.1967
84114W        W84978  11.796  19.508  27.669  0.0701 -0.2167 -0.1844
84115W        W84979  28.439  13.554  25.170 -0.3369  0.1784  0.0509
84116W        W84980  15.891   8.673   4.669  0.0373 -0.3419  0.0878
84117W        W84981  17.712   8.986  11.735 -0.1453  0.0989  0.0408
84118W        W84982   6.953   4.479  19.197  0.1506 -0.1825 -0.1717
84119W        W84983  12.886  13.181   2.781  0.0579  0.4316  0.4371
84120W        W84984  21.471  12.877   2.834 -0.2093 -0.1286 -0.0063
84121W        W84985  19.722  18.144   7.536 -0.1712 -0.2315 -0.1651
84122W        W84986  14.864   4.015  13.296  0.0575 -0.0012  0.1035
84123W        W84987  11.786  12.019   6.514 -0.2102  0.0516  0.0793
84124W        W84988  16.852   0.580  20.607 -0.0147 -0.1871  0.0902
84125W        W84989   6.293   8.256  12.540 -0.0182 -0.1312 -0.2597
84126W        W84990  14.981   7.522   9.857 -0.2155  0.0198 -0.0570
84127W        W84991   4.707  20.885  24.683  0.3007 -0.2369 -0.2388
84128W        W84992  20.614   0.833  18.308  0.1395 -0.1857  0.0627
84129W        W84993   2.035   6.214  26.765 -0.0449 -0.0167 -0.0016
84130W        W84994   4.357   4.036  26.030 -0.2415 -0.2204 -0.1229
84131W        W84995  18.470  11.660  10.460 -0.0044  0.3636  0.0782
84132W        W84996  15.759   9.972   0.679  0.3772 -0.0002  0.0887
84133W        W84997  28.944  23.494  14.082 -0.0728 -0.2250  0.1341
84134W        W84998  14.470  19.104  28.396  0.0216  0.3123 -0.2401
84135W        W84999  10.474  29.136   4.821 -0.1285 -0.0095 -0.0506
84136W        W85000  21.882   9.492  12.833  0.1248 -0.0342 -0.0886
84137W        W85001   4.946  24.688   7.216  0.0369  0.0821  0.2301
84138W        W85002  14.836  28.692  15.846 -0.0436 -0.3368  0.3895
84139W        W85003   1.634   5.864   5.484  0.0149  0.0704  0.2495
84140W        W85004   6.745  10.976  23.048  0.1892  0.1543 -0.3786
84141W        W85005   8.831   6.740   8.171 -0.2346 -0.3265 -0.3222
84142W        W85006  14.307  22.266   9.720 -0.2310 -0.0462 -0.3432
84143W        W85007  13.769  20.093   4.134 -0.1184  0.0882 -0.2162
84144W        W85008   1.573  13.692   7.562  0.1037  0.4219 -0.1714
84145W        W85009  16.947  24.290  18.110 -0.1958 -0.1495  0.1085
84146W        W85010   6.846   8.149   0.309  0.0017  0.1138 -0.0180
84147W        W85011   6.859   9.207  21.343 -0.1441  0.0789  0.4936
84148W        W85012   8.510   0.690   3.214  0.1667 -0.1656  0.0075
84149W        W85013  23.348   7.445  11.135  0.2710  0.0462  0.1693
84150W        W85014  13.601  17.604   1.958 -0.2527  0.0361 -0.0574
84151W        W85015  10.000  12.844   7.080 -0.0229  0.1475 -0.0158
84152W        W85016  22.661  17.568   0.816 -0.3449  0.2774 -0.0866
84153W        W85017  18.816  17.030  20.848  0.2539  0.1792  0.1552
84154W        W85018  26.532  16.451  22.912  0.1554 -0.2404 -0.1974
84155W        W85019  28.124  18.787  28.572  0.1230 -0.0236  0.1727
84156W        W85020  27.808  26.982  17.815  0.1747  0.2656 -0.0109
84157W        W85021   8.554  17.143   7.214 -0.3492 -0.0212 -0.1943
84158W        W85022  23.002  15.329   5.832 -0.2162  0.2749  0.0548
84159W        W85023  21.738  25.035   2.629  0.3484 -0.1295  0.0894
84160W        W85024  23.284  16.984  18.037  0.3128 -0.2916 -0.0735
84161W        W85025  17.355  11.676  13.960 -0.3677 -0.0025 -0.2481
84162W        W85026   4.806   5.552   4.414 -0.2615  0.0963  0.2470
84163W        W85027  11.540   9.288  14.132 -0.1310  0.0243  0.0608
84164W        W85028  15.593   3.667  17.620  0.0336 -0.3355 -0.2596
84165W        W85029   9.664   3.493  10.311  0.0427 -0.0990  0.1626
84166W        W85030  24.856   9.189  10.092 -0.2133  0.0542 -0.0876
84167W        W85031  22.778  18.951  17.218 -0.1005 -0.0828  0.0697
84168W        W85032  25.024   2.635   7.544 -0.1901 -0.2441  0.0383
84169W        W85033  13.628   7.323  28.164  0.0078  0.0912  0.4170
84170W        W85034  24.091  12.431  28.265 -0.0749  0.1531 -0.4617
84171W        W85035  15.494  10.446  10.412  0.1423  0.0717 -0.1033
84172W        W85036   8.727   1.627  20.454  0.0093 -0.0292  0.3262
84173W        W85037   7.502   4.214  16.828  0.1082  0.1437  0.2023
84174W        W85038   7.407  20.753  19.221  0.0286  0.0299 -0.0199
84175W        W85039   6.866   5.846  12.348 -0.0133 -0.1074 -0.0175
84176W        W85040  14.261  12.897   3.147  0.1267 -0.0743  0.0291
84177W        W85041  11.137  21.676  17.509  0.2098  0.1196  0.0543
84178W        W85042  16.806  20.663   0.627 -0.1213 -0.1531 -0.0170
84179W        W85043  20.481   3.020   6.521 -0.2203 -0.1045 -0.1115
84180W        W85044  20.856  18.056  12.154 -0.4139  0.0304 -0.1714
84181W        W85045  15.619   0.720  12.576 -0.0318 -0.2259  0.1567
84182W        W85046   5.268  15.990  13.833  0.1599 -0.0092 -0.1507
84183W        W85047   9.958   9.331   6.730  0.1023  0.2872 -0.0656
84184W        W85048  26.607   9.584  20.327 -0.0145 -0.0866  0.1813
84185W        W85049  10.468  19.167   4.375 -0.0801 -0.2369 -0.1267
84186W        W85050  23.612   6.979   0.328 -0.0034  0.2619 -0.0515
84187W        W85051  19.706   2.049  22.236 -0.1771 -0.0554  0.0748
84188W        W85052   3.836   0.595  24.811  0.0180  0.0813 -0.0365
84189W        W85053  10.518   7.062  11.276  0.1459  0.2580  0.0247
84190W        W85054  11.744  12.745  13.566 -0.0394  0.4133 -0.2934
84191W        W85055  16.385  28.683   8.812 -0.0182 -0.0250  0.0992
84192W        W85056  13.667  20.481  18.080  0.2405 -0.2050 -0.1603
84193W        W85057   6.370  26.367  12.680  0.0829  0.0951  0.1877
84194W        W85058  23.297  13.236  17.512 -0.1390  0.3683  0.0589
84195W        W85059  28.526  27.134  26.775 -0.0016 -0.0129 -0.3065
84196W        W85060  20.805   0.598   7.059  0.0314 -0.2636  0.3729
84197W        W85061   4.181  13.036  22.354  0.1057 -0.1249  0.1956
84198W        W85062   8.549   5.063  27.016  0.2108  0.2158 -0.3129
84199W        W85063  21.313  17.621   0.492 -0.0018 -0.0039  0.0959
84200W        W85064  12.108   2.252   2.092  0.0666  0.1588 -0.1912
84201W        W85065  13.296   4.236   8.301  0.0188 -0.0307  0.2750
84202W        W85066  11.877  12.522  20.713  0.3042 -0.0035  0.0025
84203W        W85067  21.149   3.751   6.598 -0.0995 -0.1263 -0.2091
84204W        W85068   4.460   9.817  15.277 -0.0690  0.1589 -0.1344
84205W        W85069  22.758  13.232  27.515  0.0841 -0.1070  0.1615
84206W        W85070  15.347  12.581   0.184  0.1750 -0.2289 -0.1871
84207W        W85071  10.252  21.055  18.812 -0.1733  0.3791 -0.2205
84208W        W85072  10.224  16.837   3.185 -0.2413 -0.1518 -0.0177
84209W        W85073  26.919  21.557  20.610  0.0517  0.2811  0.2794
84210W        W85074  11.974   4.159   2.581  0.1462  0.0749  0.0765
84211W        W85075  25.460  27.421   6.929 -0.2834  0.4566  0.1297
84212W        W85076  10.527   4.830  10.766 -0.0914  0.0867 -0.1598
84213W        W85077  24.239   2.287  22.124 -0.2199 -0.1786  0.0036
84214W        W85078  13.315  15.853   2.933  0.1041  0.0882 -0.2219
84215W        W85079   3.057   6.438  11.982  0.4397  0.3431 -0.1915
84216W        W85080  18.742  10.368  17.326 -0.1657  0.1166 -0.3807
84217W        W85081  10.841   3.498   1.795  0.1446  0.3185  0.2819
84218W        W85082  14.851   9.322  15.965 -0.0397  0.2211  0.1759
84219W        W85083  21.483   7.586  19.213  0.3390 -0.1540 -0.0272
84220W        W85084   7.322  18.043  29.131 -0.3045  0.1476  0.2228
84221W        W85085  15.071   0.268   7.860  0.1932 -0.2516 -0.0990
84222W        W85086   1.503  14.272  22.850 -0.1759 -0.3551 -0.2551
84223W        W85087  17.891  15.845  26.769  0.1142  0.2708  0.1659
84224W        W85088  23.774  24.691   2.700 -0.2587  0.0928  0.2004
84225W        W85089  14.866   3.711  16.244 -0.4262  0.0178 -0.0110
84226W        W85090   5.719  15.139  17.921 -0.0857  0.0246  0.0783
84227W        W85091  11.530   4.420   0.756 -0.0424  0.0560 -0.1329
84228W        W85092  29.036  14.748  28.178 -0.0493  0.2364 -0.0789
84229W        W85093  26.793  19.299  11.607  0.0374 -0.1834 -0.0687
84230W        W85094  16.699   6.416  25.281 -0.1369 -0.0348  0.0164
84231W        W85095  16.346   0.395  14.061 -0.1509  0.0904 -0.1918
84232W        W85096  24.639   2.754  27.571  0.1126 -0.1110 -0.3211
84233W        W85097  27.449  13.016  10.565 -0.1452  0.0015 -0.0606
84234W        W85098  21.653  16.352  18.498 -0.0218 -0.1940  0.0021
84235W        W85099  27.956  26.731   5.004  0.0658  0.0582 -0.2561
84236W        W85100  15.941  14.863   6.882  0.2137  0.2646 -0.0281
84237W        W85101  26.489  19.644   6.397  0.0856 -0.1166  0.2119
84238W        W85102   6.568   0.032   1.799 -0.0158  0.0159  0.1317
84239W        W85103  10.056  10.231   1.299  0.0250 -0.2119 -0.3107
84240W        W85104  10.788   4.836   7.847 -0.0243  0.1660  0.1206
84241W        W85105   7.765  25.412  11.521  0.1522  0.1434  0.3440
84242W        W85106   9.487  10.973   6.810  0.0479 -0.0784 -0.1764
84243W        W85107   5.240  18.616   9.820  0.2295 -0.0743  0.2164
84244W        W85108  20.278  23.564   9.204  0.3996  0.0791  0.0288
84245W        W85109   4.530  25.413  18.429  0.1063 -0.2253 -0.1100
84246W        W85110  14.643  15.422   7.361  0.3521 -0.2544  0.0013
84247W        W85111  28.223  26.871   3.690 -0.0401 -0.1710 -0.0267
84248W        W85112  23.904  25.185  12.788  0.1581  0.0455  0.0997
84249W        W85113   9.966  16.612  20.021 -0.1938 -0.0530 -0.0445
84250W        W85114  15.541  13.967  26.985 -0.0181  0.0836 -0.1550
84251W        W85115  22.977  11.092  14.762 -0.3554  0.2647 -0.0442
84252W        W85116  10.967  22.594   8.278  0.0127 -0.1266  0.1619
84253W        W85117  29.117  14.611  11.564  0.6227  0.1689 -0.0921
84254W        W85118  11.324  18.995  28.389 -0.2401  0.0766 -0.2430
84255W        W85119  25.328   1.416  22.318 -0.1422 -0.0282  0.1544
84256W        W85120   7.220   9.606  20.238 -0.2008 -0.0427  0.1857
84257W        W85121   8.728  22.484  15.544 -0.1821 -0.3165 -0.1724
84258W        W85122   2.348  10.027  25.614  0.3274  0.2041  0.1454
84259W        W85123  26.935   7.912  19.075 -0.0324 -0.0662  0.0878
84260W        W85124   1.479   6.167   6.120 -0.2022 -0.2095 -0.1255
84261W        W85125   1.709   5.803  14.221  0.0013  0.0087  0.3608
84262W        W85126   9.591   1.661  10.003  0.1435 -0.2151 -0.3153
84263W        W85127  14.271  20.595   8.228 -0.0020  0.0695 -0.2191
84264W        W85128  13.225  13.315   8.028 -0.0066  0.0642  0.1280
84265W        W85129   7.574  26.096   1.480  0.0700 -0.0818 -0.1133
84266W        W85130  23.921  21.252  13.051  0.1889  0.0225  0.1015
84267W        W85131   8.204  22.329   8.052 -0.0457 -0.0071  0.0401
84268W        W85132  23.305  25.033  16.967 -0.2534 -0.0585  0.2983
84269W        W85133  21.535  14.422  16.410  0.2843  0.0250  0.0360
84270W        W85134  19.236  11.135  28.090  0.1754 -0.1154  0.1178
84271W        W85135   5.929  13.329   5.450 -0.1779 -0.0025  0.0567
84272W        W85136   1.142  21.918  15.117 -0.0557 -0.1370  0.0692
84273W        W85137  16.190   3.915  12.468 -0.0931 -0.0798  0.1081
84274W        W85138  17.090  23.728   5.760 -0.3144 -0.1596  0.0753
84275W        W85139  20.177   1.114  12.920 -0.2090 -0.1469  0.1558
84276W        W85140  12.232  19.239   1.868  0.1566 -0.4080  0.1916
84277W        W85141  28.974   3.737  17.845  0.0104 -0.0187  0.2691
84278W        W85142  10.704  20.367  16.847  0.3592 -0.0636  0.1055
84279W        W85143   5.883  20.297   2.003 -0.2623 -0.0381 -0.2984
84280W        W85144   4.838   6.106  13.491 -0.4590  0.1861  0.1998
84281W        W85145  11.072  19.862  12.401 -0.1535  0.0220 -0.0917
84282W        W85146   1.777   8.734  28.739  0.2958 -0.0784  0.0293
84283W        W85147  12.633  18.701   2.316 -0.2997  0.2035 -0.1675
84284W        W85148  11.343   5.050   4.214  0.1569 -0.2508  0.2693
84285W        W85149  24.034   3.728  18.622 -0.2259 -0.2568  0.0307
84286W        W85150  13.892   1.496  13.950 -0.0331 -0.1308 -0.0821
84287W        W85151  27.318  16.082  15.399 -0.1932  0.1671  0.1343
84288W        W85152  22.326   7.990  21.619  0.0282 -0.0377 -0.4196
84289W        W85153  17.375  27.860   5.630 -0.0491  0.1466  0.1781
84290W        W85154   5.531  21.457  18.834 -0.1778 -0.1821  0.0416
84291W        W85155   9.711   5.144   9.646  0.2510 -0.4299 -0.0705
84292W        W85156  10.947  25.146  16.199  0.0649  0.0885  0.0943
84293W        W85157   9.106  28.236  17.959 -0.2031  0.1438 -0.4140
84294W        W85158  27.871   1.396  15.414  0.1770 -0.0753 -0.1225
84295W        W85159  21.026   6.148  17.399  0.1233 -0.3374 -0.0284
84296W        W85160  24.794   0.511   1.997  0.1847  0.0811  0.1367
84297W        W85161  11.941  11.242   0.457  0.2093 -0.1403  0.0944
84298W        W85162  25.200  21.073  14.819 -0.4461 -0.2261 -0.1365
84299W        W85163  10.113   9.024  10.550  0.0527 -0.1005  0.0868
84300W        W85164  24.685  13.954   0.124 -0.1978 -0.2904  0.0872
84301W        W85165  13.966  10.970   9.663  0.1237 -0.0129  0.3254
84302W        W85166  21.236  15.792   6.862 -0.2347 -0.0617  0.1099
84303W        W85167  27.781   2.827   2.334 -0.1950  0.0540 -0.2470
84304W        W85168   1.868   3.367   3.208  0.3198  0.1484  0.2028
84305W        W85169  20.563  12.952  15.603 -0.0359  0.1511 -0.0294
84306W        W85170  13.865  18.078   4.519  0.3239  0.0665 -0.0693
84307W        W85171  13.724  20.182   3.228  0.2429  0.1022  0.2957
84308W        W85172   3.350  14.273   0.135  0.3231 -0.0174  0.1400
84309W        W85173  22.170   4.035   9.753 -0.0301  0.1840  0.1255
84310W        W85174   2.995  20.521  16.083 -0.0208 -0.0155 -0.0282
84311W        W85175  28.103   8.287   1.040  0.1942 -0.1550  0.1465
84312W        W85176  18.414   2.880   9.781  0.2006 -0.2455 -0.0265
84313W        W85177   1.209   3.649  24.092 -0.2881  0.1053 -0.0617
84314W        W85178  26.818  12.083  13.631 -0.0943  0.0869 -0.0160
84315W        W85179   1.754  17.944   2.165  0.0572 -0.0102  0.2434
84316W        W85180  16.492  26.460  18.431 -0.1769 -0.1181  0.0344
84317W        W85181   5.997  20.263   8.606  0.1820  0.1630 -0.0331
84318W        W85182  23.880  23.542  22.883 -0.0029  0.3202 -0.1296
84319W        W85183   4.216  18.968   5.515  0.0072  0.4046  0.4222
84320W        W85184  11.498  13.712  10.720  0.0131 -0.2880 -0.0542
84321W        W85185   0.835   9.823  25.235 -0.0466  0.1216  0.0808
84322W        W85186   4.852   7.616  18.694  0.1491 -0.1751  0.4433
84323W        W85187  16.625   9.297  15.864  0.0127  0.2236  0.0938
84324W        W85188  12.231  12.345  23.241 -0.1265 -0.3862  0.0717
84325W        W85189  15.496  14.419   2.352  0.2196  0.0234 -0.0660
84326W        W85190  17.824  18.037  25.100 -0.0323  0.1811  0.1103
84327W        W85191  26.815  20.340  20.023 -0.0317  0.0508  0.3018
84328W        W85192  16.809   1.521   3.993  0.1001  0.0695  0.3462
84329W        W85193  18.215  10.980  24.229 -0.0375  0.1677  0.1432
84330W        W85194  17.125   3.045  26.079  0.0345 -0.0465  0.1496
84331W        W85195   3.981   9.043  23.983  0.1951  0.1886  0.1056
84332W        W85196  12.178  16.241   7.741  0.0489 -0.1583  0.0088
84333W        W85197  25.098   6.486  14.141  0.1931 -0.2443  0.1287
84334W        W85198  14.859  18.229  17.384  0.2468 -0.2357 -0.0123
84335W        W85199  21.987  23.402   4.498 -0.4108 -0.0918 -0.1764
84336W        W85200  22.398  12.719  14.038 -0.2304 -0.0188  0.0273
84337W        W85201  23.986   6.932  22.504  0.1326 -0.1902  0.1082
84338W        W85202  23.704  23.057  11.447 -0.0917  0.2750  0.1657
84339W        W85203  25.042  26.670  20.658  0.0139  0.2672  0.0644
84340W        W85204   5.404  27.554  28.998  0.0746  0.0866 -0.2150
84341W        W85205  10.267   6.410   6.061  0.2415  0.1200 -0.1542
84342W        W85206  14.027  16.067  10.806 -0.2481  0.0792 -0.4147
84343W        W85207  28.140  27.787  17.662 -0.2917 -0.0581 -0.0492
84344W        W85208   5.804   5.194  27.698 -0.1112 -0.0684  0.2252
84345W        W85209  17.814  12.696  26.637  0.0246 -0.0633 -0.0063
84346W        W85210   9.824   6.492  15.004 -0.3362  0.1532  0.1194
84347W        W85211   8.838  27.389   4.162 -0.1153  0.0153  0.3491
84348W        W85212  14.956  15.920   2.701  0.0260 -0.0836  0.0097
84349W        W85213  27.779  13.812  17.561 -0.0565  0.1897  0.2316
84350W        W85214  28.062   7.159  23.304 -0.1096 -0.0511  0.1708
84351W        W85215  25.361  19.713   5.316 -0.0313 -0.0250  0.0577
84352W        W85216  23.064  17.298  25.041 -0.0266  0.2046 -0.2931
84353W        W85217  27.549  24.078   7.571  0.0428 -0.0481 -0.1714
84354W        W85218   0.515  17.410  16.835 -0.2025  0.0250  0.1671
84355W        W85219  19.905  25.929   4.018 -0.0688 -0.1212 -0.3508
84356W        W85220   0.061   5.496  26.085 -0.1928 -0.0485 -0.0014
84357W        W85221   5.969   0.233   3.206 -0.0691 -0.0551  0.0675
84358W        W85222  11.304   3.060  19.643 -0.0251 -0.2215  0.0034
84359W        W85223  14.876   7.555   8.790 -0.0721  0.1728  0.0851
84360W        W85224  19.281  13.916   0.176 -0.1274  0.2829 -0.0939
84361W        W85225   8.251  15.838  21.818  0.2588  0.0892 -0.2631
84362W        W85226  16.582  27.224  12.117 -0.3636  0.0695  0.0263
84363W        W85227  14.204   4.394  25.946  0.0382 -0.0845  0.1455
84364W        W85228  24.438  13.494  10.073 -0.4535  0.4626 -0.0059
84365W        W85229   5.407  15.653  22.545 -0.2950 -0.1508  0.0484
84366W        W85230  23.538   7.429   9.188 -0.1442  0.2049 -0.1427
84367W        W85231  23.167   2.099   2.426 -0.0638 -0.1876 -0.0511
84368W        W85232  21.826  22.249   0.284 -0.2096  0.0506  0.2175
84369W        W85233   5.053   9.050  17.334  0.0711  0.1603 -0.3021
84370W        W85234  10.848   8.564   0.490  0.0014 -0.2603  0.1370
84371W        W85235  14.634  23.337  12.050  0.1356 -0.0708  0.0624
84372W        W85236  17.909  12.206   9.322 -0.0262 -0.0235 -0.4284
84373W        W85237   3.341   4.849  20.381 -0.0827  0.0301 -0.0711
84374W        W85238   9.345   7.224  16.651 -0.0511  0.0539  0.2874
84375W        W85239  18.725  19.022  12.623  0.1112 -0.1724  0.0289
84376W        W85240  17.147   8.428  21.940 -0.4270 -0.0414  0.2192
84377W        W85241  23.279  14.384  23.422  0.0599 -0.0532 -0.4476
84378W        W85242  10.154  25.002   1.948  0.0485 -0.3484  0.0081
84379W        W85243   7.753   9.004   1.200  0.0377 -0.0970 -0.1600
84380W        W85244  17.465   5.465  13.527 -0.1555  0.1385  0.0117
84381W        W85245   7.039  27.095  15.211  0.0654  0.1603  0.2526
84382W        W85246  15.160  20.803   5.913 -0.1914  0.1651  0.0635
84383W        W85247  26.812  26.968   8.602 -0.2432 -0.0268  0.1076
84384W        W85248   5.814  26.174  22.229  0.2241 -0.0485  0.2633
84385W        W85249  13.849  23.575  18.341  0.3296 -0.2309  0.0544
84386W        W85250   8.434   5.717  13.038 -0.0371 -0.1314 -0.1018
84387W        W85251   9.934   7.721  25.619  0.0692  0.0322 -0.1568
84388W        W85252  26.110  20.625   1.299 -0.2391  0.1009  0.2839
84389W        W85253  24.162   6.159  22.810  0.0678  0.1527  0.4370
84390W        W85254  14.585  11.430   8.376  0.1635 -0.0914  0.0077
84391W        W85255  23.753  13.190  23.792  0.2136 -0.2938  0.0673
84392W        W85256  17.617   7.342   9.990 -0.0334  0.1359 -0.0553
84393W        W85257   6.622   2.981   2.587 -0.3493 -0.3765  0.2148
84394W        W85258   7.605  14.226   4.717  0.0382 -0.2694  0.1602
84395W        W85259   5.817  13.963  10.646 -0.1011  0.0259  0.1228
84396W        W85260  27.213   7.566   8.503 -0.0816 -0.3786 -0.1922
84397W        W85261   9.067   7.513  20.511 -0.1930 -0.1528  0.1237
84398W        W85262  17.054   6.803  12.845 -0.0247  0.0216  0.2231
84399W        W85263  16.198   5.710  11.059 -0.0990 -0.2714  0.2877
84400W        W85264   7.392  11.544  20.007  0.1064 -0.3117 -0.1615
84401W        W85265  13.303  12.849   5.777 -0.1085  0.2077 -0.0951
84402W        W85266  12.706  21.202   6.878 -0.5196 -0.1689  0.1663
84403W        W85267  24.864   5.422   7.356  0.1041 -0.1063 -0.1758
84404W        W85268   9.939  24.873  23.007 -0.1691 -0.0993  0.0622
84405W        W85269  20.978  24.223  12.379 -0.2279 -0.2078  0.4167
84406W        W85270  29.141  14.074   7.765 -0.1703 -0.0806 -0.0543
84407W        W85271   6.169  28.329  27.167  0.0693  0.1306  0.2568
84408W        W85272  25.626  18.248   4.801  0.0930  0.1014 -0.0344
84409W        W85273  16.186  15.154   6.414 -0.1990 -0.0160 -0.0448
84410W        W85274  14.149  25.784  21.172 -0.1380 -0.1064  0.0355
84411W        W85275  19.724  28.775  16.979  0.2271 -0.0402  0.0478
84412W        W85276  18.483  28.906   8.541 -0.0276 -0.0077  0.2170
84413W        W85277  10.554  19.339   3.300  0.1547  0.1387  0.0425
84414W        W85278  16.042   6.168  26.581 -0.1646  0.1434 -0.1439
84415W        W85279  12.464  17.714  20.993 -0.3465  0.0286 -0.1589
84416W        W85280   7.363  18.294  28.586  0.1798  0.2340 -0.0933
84417W        W85281   2.190  13.220  13.685  0.1785 -0.0040  0.3058
84418W        W85282   3.214  22.895  27.119  0.1418  0.1007 -0.2189
84419W        W85283   4.593  14.213  17.842  0.1256  0.2810  0.1616
84420W        W85284  10.236   7.017  10.343 -0.0821 -0.3485 -0.3721
84421W        W85285   4.233  16.050  13.333  0.3749  0.1912  0.0490
84422W        W85286  14.290  14.863  16.035 -0.1436  0.1204  0.0067
84423W        W85287  23.920   0.164   3.926  0.2473  0.3708 -0.1829
84424W        W85288   6.414  17.197  12.494 -0.1763 -0.1536 -0.0841
84425W        W85289   9.982  26.169   4.026  0.2155 -0.3601  0.1891
84426W        W85290  23.850  17.352   3.876  0.1148 -0.1948  0.2284
84427W        W85291   1.538   5.303  13.821  0.1267 -0.1184 -0.0037
84428W        W85292  18.974   7.761   4.258 -0.0558  0.2038 -0.3726
84429W        W85293   0.227   3.902   6.029  0.0508  0.0186  0.1074
84430W        W85294  20.289   9.061  26.296 -0.0862 -0.0468  0.1438
84431W        W85295  20.800  29.086  12.985  0.1281 -0.0080 -0.1105
84432W        W85296  16.476   2.451   4.381 -0.0048 -0.0454  0.1394
84433W        W85297  15.399  18.037  24.483  0.0001 -0.1454 -0.1095
84434W        W85298   0.884  19.243  25.553 -0.3782 -0.1204  0.2169
84435W        W85299  16.477   1.800  26.584 -0.1407 -0.2255 -0.2986
84436W        W85300  20.028  16.994  19.742 -0.0243 -0.0519  0.0212
84437W        W85301  23.950   7.283   0.036 -0.5392  0.0626 -0.0740
84438W        W85302  15.589   8.873  28.755  0.1662 -0.2547 -0.1397
84439W        W85303  26.271  13.489  14.706 -0.1086  0.0272  0.1094
84440W        W85304   6.099  14.262  18.260 -0.0675  0.0215  0.1706
84441W        W85305  15.766   6.190   8.912  0.0556 -0.0369  0.0064
84442W        W85306  12.492  27.654  29.079 -0.1289  0.0432  0.2728
84443W        W85307  28.687  12.387   5.299  0.2284  0.1661 -0.1730
84444W        W85308  17.250  13.831  14.431  0.1203  0.1862 -0.0114
84445W        W85309  21.456  28.424   8.584  0.3786  0.1931  0.1635
84446W        W85310  11.257   9.079  28.528  0.2041  0.5541 -0.1170
84447W        W85311  17.100   5.330   9.287  0.1481  0.0321 -0.1135
84448W        W85312   8.437   1.216   5.422  0.1205 -0.3479 -0.2323
84449W        W85313   4.969  19.588  14.678  0.0924 -0.0093 -0.1013
84450W        W85314  26.046   9.025  16.789 -0.3780 -0.2260 -0.2146
84451W        W85315  25.821   1.394  18.983 -0.0057 -0.1625  0.0117
84452W        W85316  10.260   6.571   9.104  0.0189  0.2120 -0.1607
84453W        W85317   8.496   1.078  14.538 -0.0973  0.1413 -0.1067
84454W        W85318   7.145  22.425   8.011 -0.0999 -0.3036  0.0526
84455W        W85319  21.911   9.041  20.674  0.0457  0.2795  0.1258
84456W        W85320  12.141  26.991  25.853  0.1477  0.0027 -0.2203
84457W        W85321  26.988  15.077  25.355  0.1008  0.0537 -0.5089
84458W        W85322  22.734  22.091  14.303  0.1612  0.0426 -0.0163
84459W        W85323   9.991  13.351  17.711 -0.1013 -0.1101 -0.1559
84460W        W85324  17.093   6.940  11.813  0.1627 -0.0287  0.5594
84461W        W85325  27.314   0.389  23.017  0.0766 -0.2726 -0.1565
84462W        W85326  10.780   6.268   1.881 -0.1595 -0.0641 -0.0381
84463W        W85327   8.387   1.626   3.627 -0.1827  0.4893 -0.1028
84464W        W85328  20.534  12.332  14.871  0.1038 -0.1842 -0.0955
84465W        W85329   7.099  11.663  17.009 -0.0444  0.0804 -0.1862
84466W        W85330  17.987   6.454  16.595 -0.4380 -0.1088  0.1721
84467W        W85331  24.315  11.815  19.940  0.4934  0.0446  0.0802
84468W        W85332  22.796   6.516  19.720 -0.1793  0.3193  0.3063
84469W        W85333  20.987  14.196  25.775  0.1381  0.2741 -0.0240
84470W        W85334  26.677   6.584   6.421  0.1496 -0.0721  0.3038
84471W        W85335  13.482   4.757   9.995 -0.1813 -0.2211  0.0407
84472W        W85336  14.943  20.466  13.742  0.3408 -0.2305 -0.0086
84473W        W85337   3.504   2.473  14.346 -0.2601  0.0070  0.0415
84474W        W85338  28.504   5.361   7.101  0.1301 -0.4155 -0.3495
84475W        W85339   3.528  23.821   8.562 -0.0697 -0.0222 -0.1342
84476W        W85340  23.423  13.386  10.047  0.1266 -0.1727  0.1573
84477W        W85341   6.364  10.524  24.503  0.1294 -0.0690 -0.0693
84478W        W85342   0.241   4.574   1.007  0.2794 -0.1843  0.1706
84479W        W85343   3.201  24.207  12.149  0.2791  0.1623  0.0500
84480W        W85344  21.413  10.077   7.004  0.2280  0.2240 -0.0680
84481W        W85345  10.695  21.449  19.672 -0.0253  0.1875 -0.0174
84482W        W85346  20.545   0.649  12.035 -0.1708  0.1059  0.2870
84483W        W85347   5.170   3.762   3.853 -0.0528 -0.1973  0.0948
84484W        W85348  12.047   8.282   5.521  0.2063 -0.0784  0.3273
84485W        W85349  24.831   2.516   5.360 -0.3267 -0.3014 -0.0509
84486W        W85350   9.374   1.717   3.414 -0.0925  0.0016 -0.0310
84487W        W85351  22.261  27.137   5.142  0.3124  0.1717  0.0935
84488W        W85352  11.038  13.171   6.969  0.0033 -0.2210  0.1330
84489W        W85353   0.787   7.490  20.332  0.0121  0.2682 -0.3225
84490W        W85354  22.537   5.724   0.025 -0.1469 -0.1121 -0.0178
84491W        W85355  17.275  15.483   4.476 -0.0654  0.0792  0.2026
84492W        W85356   8.527   9.158   5.633  0.1862 -0.2601  0.1512
84493W        W85357  28.019  10.531  23.270  0.0266 -0.1493  0.1412
84494W        W85358  18.498  16.115   6.143 -0.0253 -0.2147 -0.0118
84495W        W85359  21.820   5.686  11.672  0.2072 -0.0289 -0.2404
84496W        W85360  24.079   5.405  25.500  0.1285  0.0422  0.3292
84497W        W85361   4.451   9.521  26.423  0.1242 -0.0796  0.1650
84498W        W85362   0.375  10.739  24.105 -0.1850 -0.0378  0.0754
84499W        W85363  12.779  16.156  28.752  0.1680 -0.0763 -0.1318
84500W        W85364  24.124   5.734   5.607 -0.3336 -0.0816 -0.2193
84501W        W85365  21.584   1.467  17.961 -0.2817 -0.1617  0.0668
84502W        W85366  11.191  13.198   6.339  0.0821  0.3258  0.0491
84503W        W85367  24.404   6.231   8.165  0.1349 -0.1147 -0.0757
84504W        W85368   8.738   9.484  18.676  0.0751 -0.0508 -0.0268
84505W        W85369   6.183   7.174  18.216  0.3568 -0.1162  0.0136
84506W        W85370  24.927  18.536  27.294 -0.1399  0.0159  0.2100
84507W        W85371  18.913   1.973   8.942  0.0504  0.0935 -0.0222
84508W        W85372   4.419  12.331  10.833 -0.0612 -0.0036 -0.2407
84509W        W85373  14.039  17.191   9.018  0.2005 -0.3255 -0.2422
84510W        W85374   9.434   6.254   8.655 -0.0144  0.0580  0.1217
84511W        W85375   8.521   1.974   8.730  0.1538  0.4698 -0.0286
84512W        W85376  17.977  20.607  10.876  0.1297  0.0735  0.2463
84513W        W85377  13.179  12.295  14.599  0.0067  0.0112 -0.0477
84514W        W85378  13.368  21.412  10.601 -0.0617  0.0973  0.3760
84515W        W85379   6.664  27.376   6.116 -0.1841 -0.0237  0.1808
84516W        W85380   4.719  27.189  27.615 -0.1286  0.1218 -0.0519
84517W        W85381  14.625  24.625  20.764  0.1348  0.1073 -0.2605
84518W        W85382  25.870   6.525  16.335 -0.3508  0.1221 -0.1169
84519W        W85383  18.819  26.972  17.736  0.1932  0.0101  0.3031
84520W        W85384  22.940   9.324   3.554 -0.0729 -0.0970  0.0222
84521W        W85385  15.391  16.632  26.486 -0.2785  0.2604  0.0649
84522W        W85386  15.830   9.589   7.062 -0.0877  0.0029 -0.0521
84523W        W85387  14.643   8.913  22.107 -0.0646 -0.0967  0.4138
84524W        W85388   2.065  17.128  20.299 -0.1205  0.0133  0.1157
84525W        W85389   1.080  17.682   6.302  0.2299  0.2330  0.0434
84526W        W85390   8.401  12.887  22.555 -0.1030  0.1251  0.3038
84527W        W85391  14.624   2.687   4.275  0.0852 -0.0377  0.3441
84528W        W85392   8.036   1.277   2.375  0.0614 -0.3396 -0.0748
84529W        W85393  15.558  18.014  18.073  0.0029  0.1482  0.0890
84530W        W85394  22.010  24.028  13.331 -0.0532 -0.0923  0.0870
84531W        W85395   0.530   9.765   2.075  0.0246 -0.1120  0.1273
84532W        W85396  18.555  21.411   7.810  0.2084 -0.0332  0.0235
84533W        W85397  14.747  13.037   5.211 -0.2643 -0.1586 -0.0994
84534W        W85398  12.942   5.795   4.625 -0.1912 -0.0647 -0.2511
84535W        W85399  22.750  15.798   1.418 -0.1250  0.0157 -0.1605
84536W        W85400  22.405   5.662  26.224  0.0757  0.0393  0.0059
84537W        W85401  14.948  24.239   1.652 -0.3252 -0.4401  0.1668
84538W        W85402  22.649  20.325   7.408  0.0027 -0.0621  0.1891
84539W        W85403   3.694   0.646  14.777  0.3858 -0.1246  0.3405
84540W        W85404  16.200  27.307   9.375  0.0544  0.4227 -0.1349
84541W        W85405  18.923  10.862   1.602  0.1640  0.0826 -0.0251
84542W        W85406  19.040   5.523  20.186 -0.1100  0.0860 -0.2915
84543W        W85407  15.048   9.988   7.573  0.2592  0.0824  0.0582
84544W        W85408  15.140   8.209   4.651  0.1221  0.2019 -0.1107
84545W        W85409  27.982  18.743   5.440  0.0561 -0.3575  0.1261
84546W        W85410   6.035  19.967  15.606  0.0655  0.0188  0.1991
84547W        W85411  10.708  10.390   1.993  0.3995 -0.0253 -0.2424
84548W        W85412  16.615  12.439   4.214  0.1894  0.2228 -0.0400
84549W        W85413  17.009  14.586   4.515 -0.1483  0.3716  0.1525
84550W        W85414   6.760  10.530   1.086  0.0445  0.0675  0.1892
84551W        W85415  13.944  14.553   7.719  0.2293  0.3059 -0.1802
84552W        W85416  17.400  11.509   5.208 -0.0633 -0.1386  0.0255
84553W        W85417  13.840  10.535  14.945 -0.2739  0.0795 -0.0984
84554W        W85418  18.194  18.978   2.729  0.1686  0.0414  0.0911
84555W        W85419   3.053   8.332   6.671  0.0494  0.1008  0.1955
84556W        W85420  10.958   9.638  20.822  0.1545  0.0737  0.1374
84557W        W85421  15.461   5.226   4.686 -0.0875 -0.0968  0.1750
84558W        W85422   7.269  19.861  15.147  0.2295  0.1946 -0.2517
84559W        W85423  20.518  19.949   0.681  0.3788 -0.3077 -0.1920
84560W        W85424  15.554   2.798  13.791 -0.5690 -0.2530  0.2576
84561W        W85425  28.295  10.549   8.859  0.0216 -0.3050  0.3293
84562W        W85426  19.391   6.958   0.146  0.1708  0.0419 -0.0352
84563W        W85427  15.065  23.534  17.237 -0.3277  0.1777 -0.5766
84564W        W85428   8.435  13.799  24.607  0.0471 -0.1890 -0.1197
84565W        W85429  12.308  14.860   5.936 -0.3105  0.0397 -0.0955
84566W        W85430  16.252  18.339  21.714  0.2456 -0.0333 -0.0785
84567W        W85431  14.247  12.012  24.338 -0.2297  0.3882 -0.0899
84568W        W85432  22.499   7.642  14.608 -0.0151 -0.0724  0.2270
84569W        W85433  14.972   2.004  23.736  0.1560  0.3361  0.0786
84570W        W85434   1.192   6.847  11.276  0.0329 -0.1983  0.0070
84571W        W85435   5.237  19.697  25.680  0.0959  0.2995  0.1128
84572W        W85436   7.817   7.789  26.872 -0.0920  0.2381 -0.0183
84573W        W85437  27.168   2.073  23.954  0.0531  0.1744  0.2663
84574W        W85438   6.455   1.646  11.301  0.1249 -0.0474  0.0361
84575W        W85439  24.487   4.346   8.581 -0.2839  0.1189 -0.0343
84576W        W85440  26.292  22.891  10.713 -0.0117 -0.1446  0.1639
84577W        W85441  18.508   4.765   2.054  0.0711  0.3477  0.0101
84578W        W85442  16.362   0.785  11.957  0.0469  0.0372  0.0454
84579W        W85443   2.070  11.559  16.657  0.0655  0.1231  0.3149
84580W        W85444  11.281  17.553   1.724  0.4270 -0.2203  0.0859
84581W        W85445  19.660  23.590  28.101 -0.0228 -0.0227  0.2246
84582W        W85446   6.173  13.256  22.141  0.0097  0.1134 -0.4094
84583W        W85447  17.075   1.572  20.234 -0.0270  0.0668 -0.0543
84584W        W85448   0.985   3.196  23.396 -0.0195 -0.0929 -0.0926
84585W        W85449  13.349  16.351  13.670 -0.1829  0.0755  0.2119
84586W        W85450  12.423  15.159  16.350  0.0788  0.1146  0.0142
84587W        W85451   7.881   6.940  13.437 -0.0518 -0.2279  0.0266
84588W        W85452  20.776   8.332  23.312 -0.1554  0.0556 -0.1462
84589W        W85453  23.864   9.582  13.323 -0.3264 -0.1016  0.0327
84590W        W85454   1.391   2.790   3.547  0.1566 -0.1287 -0.2322
84591W        W85455  20.261  13.281  24.365  0.1817  0.0576  0.0884
84592W        W85456  12.494  15.563  11.943  0.0020 -0.0941  0.2095
84593W        W85457  10.083  11.686   5.302 -0.1742  0.2699  0.3390
84594W        W85458   8.431   9.790   2.577 -0.0181  0.0503 -0.1381
84595W        W85459   0.946   2.442  15.082  0.1786 -0.0620 -0.2811
84596W        W85460  18.939   4.753   2.377  0.0229 -0.1157  0.0225
84597W        W85461  15.059  10.168  19.151 -0.1185 -0.1197 -0.1743
84598W        W85462  24.879  17.001   3.245 -0.1172  0.0933 -0.0830
84599W        W85463  28.892   1.273  16.669  0.2474 -0.0320 -0.1601
84600W        W85464   8.332  20.882  27.103  0.0247  0.0531 -0.2699
84601W        W85465  28.120   5.915   8.775 -0.1625 -0.2025 -0.1077
84602W        W85466   3.224   4.205   3.950  0.3815 -0.3625  0.0391
84603W        W85467   8.721  15.614  24.034  0.2406  0.2107  0.0193
84604W        W85468  28.995  28.770   0.925 -0.1025  0.1059 -0.1379
84605W        W85469   5.324   8.996  13.949 -0.0297  0.1268 -0.0728
84606W        W85470  16.265  24.134   4.091  0.0365 -0.2924  0.1380
84607W        W85471  21.047  14.314   3.355 -0.0894  0.0947 -0.0092
84608W        W85472  22.311  21.004   0.702  0.2012  0.0415  0.1543
84609W        W85473  13.563  19.782  21.664  0.0684 -0.1735 -0.1009
84610W        W85474  14.299  27.148   4.325  0.2106 -0.1714 -0.1104
84611W        W85475  17.809   4.614   4.351 -0.0398  0.0206  0.0618
84612W        W85476  11.645  25.663   7.648  0.1369  0.0182 -0.2691
84613W        W85477  13.747  20.983  18.345  0.0510 -0.1259 -0.4476
84614W        W85478  12.422   1.540  20.240  0.2217 -0.2370  0.2364
84615W        W85479  21.471   6.420  18.170  0.1262 -0.4660 -0.0299
84616W        W85480  23.276   8.164  14.572  0.1462  0.3598  0.1010
84617W        W85481  24.482   6.881  28.062  0.0945 -0.1347  0.0617
84618W        W85482  26.113   1.713  23.375  0.2058 -0.3592 -0.1064
84619W        W85483  23.323  11.114  10.475 -0.0018  0.1489  0.1875
84620W        W85484  18.388   6.911   1.209  0.0484  0.4532 -0.1699
84621W        W85485  13.417  17.528  19.973  0.0932  0.1009  0.1214
84622W        W85486   7.161  26.373  13.964 -0.0913 -0.1190 -0.2497
84623W        W85487  13.547   3.141  24.230  0.1814 -0.2199 -0.1156
84624W        W85488  18.659  18.412  24.555  0.1544  0.1829  0.0236
84625W        W85489  15.813   5.247  17.894  0.0013 -0.2453 -0.2165
84626W        W85490  13.351  26.259  13.015 -0.2491 -0.2503  0.2509
84627W        W85491  12.778  14.839  11.120  0.2926  0.3049 -0.1050
84628W        W85492  13.226  11.495  16.078 -0.0033  0.2341  0.1960
84629W        W85493  15.288  24.832  16.650 -0.2271  0.0565 -0.1087
84630W        W85494   6.671   8.225  21.222  0.1843  0.2501 -0.0907
84631W        W85495  26.206   5.258  10.572 -0.0453 -0.1081  0.1091
84632W        W85496  21.878   9.144   6.909  0.0171 -0.1170 -0.2041
84633W        W85497   8.294   7.026  14.466  0.2518  0.0895 -0.1766
84634W        W85498  15.678  20.443  13.849  0.0499  0.0964  0.1268
84635W        W85499  11.730  17.685  24.668  0.2194  0.0502 -0.1081
84636W        W85500   6.305  17.941  13.277 -0.2100 -0.0837  0.1479
84637W        W85501  12.785  27.444  13.198  0.0924 -0.1088  0.0587
84638W        W85502   8.404  11.662  13.073 -0.2062  0.2970  0.2130
84639W        W85503  11.956  19.948  13.036 -0.0670 -0.1070 -0.1432
84640W        W85504  25.722  26.988   6.984 -0.1899  0.0938 -0.2874
84641W        W85505  23.654   8.653   7.433 -0.2138 -0.0415 -0.3970
84642W        W85506  21.544   1.785  23.361 -0.0891  0.0304  0.0100
84643W        W85507   8.821   7.680   9.842  0.0797 -0.3128  0.5694
84644W        W85508  23.572  24.944  11.402  0.0017  0.1430  0.1916
84645W        W85509  28.807   5.132  16.756  0.2564  0.1000 -0.1258
84646W        W85510  18.421  25.596  14.043 -0.1553 -0.2986 -0.0002
84647W        W85511  24.873  20.729   1.588 -0.1098  0.1887 -0.0818
84648W        W85512  12.435   1.895   3.946  0.2293 -0.0077 -0.2194
84649W        W85513  25.460  27.523  11.037  0.0596  0.0332 -0.0090
84650W        W85514   0.717  10.092  14.500 -0.2962 -0.0125  0.1116
84651W        W85515  19.214   4.342  12.436  0.4024  0.0283  0.4723
84652W        W85516   6.367  11.108   7.526 -0.0504  0.0476 -0.3557
84653W        W85517  17.903  20.036  12.046  0.1844 -0.0458 -0.4369
84654W        W85518   4.030   4.952  26.816 -0.1036  0.0243  0.1629
84655W        W85519   5.363  15.479   9.730  0.4156  0.4182 -0.0856
84656W        W85520   7.795   9.013  25.869 -0.0783  0.1889 -0.1334
84657W        W85521  26.500   2.308  28.488  0.2164  0.0860 -0.0494
84658W        W85522   0.744  25.299  11.806 -0.2023  0.1589  0.1031
84659W        W85523  17.723  10.259  21.183 -0.0175  0.2305  0.5768
84660W        W85524  20.991   5.173   9.062 -0.2881  0.1827 -0.2653
84661W        W85525   0.199  25.190  11.655 -0.0047 -0.1303 -0.2032
84662W        W85526  20.974   9.724  22.103  0.0685  0.3625  0.1751
84663W        W85527   0.804   4.167   6.160 -0.1442 -0.0292  0.0807
84664W        W85528   5.732  12.175  17.683  0.0010  0.0497 -0.0582
84665W        W85529  17.838   1.713  21.119  0.1259  0.0930 -0.0947
84666W        W85530   0.008   8.252  25.620  0.2163 -0.3328 -0.3434
84667W        W85531  18.882  11.807  18.490 -0.1404 -0.0907 -0.2123
84668W        W85532  11.418  18.827  15.504  0.2704 -0.0488 -0.0769
84669W        W85533   1.997   7.263  16.220  0.2530 -0.1723  0.2003
84670W        W85534  14.918   1.956  11.526 -0.0143  0.2243  0.2102
84671W        W85535  10.965  19.109  16.814 -0.0984 -0.1728 -0.4278
84672W        W85536  10.905   5.706  21.097 -0.0021 -0.0410 -0.1586
84673W        W85537   4.119  17.774  26.681  0.0507 -0.1967 -0.2270
84674W        W85538  15.782   9.555  12.007 -0.1800  0.0965 -0.1011
84675W        W85539  24.682   5.534   0.692  0.1996  0.2867  0.0162
84676W        W85540   9.476  12.354  21.415  0.2118 -0.0863 -0.0001
84677W        W85541  27.984  14.447  10.102 -0.0413 -0.1356 -0.0527
84678W        W85542  21.661  11.076   9.546  0.1874 -0.2474 -0.0382
84679W        W85543   0.219  15.744  14.050  0.1547  0.0407  0.1412
84680W        W85544  22.216  10.228   3.880 -0.0083  0.0443 -0.4842
84681W        W85545   4.466  26.954   3.683  0.2765  0.0659 -0.1296
84682W        W85546   4.426  13.776  16.715 -0.2231  0.1746  0.4018
84683W        W85547  21.931   6.779  25.402 -0.1446  0.0298 -0.3313
84684W        W85548   6.818  22.193  26.281 -0.2246 -0.1111 -0.1053
84685W        W85549  19.721  19.121  17.877  0.1461 -0.2727  0.2728
84686W        W85550  23.453  11.700   2.786 -0.2965  0.2399  0.2706
84687W        W85551  13.854  29.086  18.025  0.1061 -0.0912 -0.1565
84688W        W85552  27.996   1.871  12.116 -0.3181  0.2692 -0.0196
84689W        W85553  24.440  26.882   7.343  0.1191  0.4484  0.1053
84690W        W85554   7.177   4.116  24.744  0.0068 -0.1388 -0.0806
84691W        W85555  14.413   5.395  14.895  0.1724 -0.2624 -0.0615
84692W        W85556   7.757   7.860  11.815 -0.1771 -0.0607 -0.0687
84693W        W85557  15.897  12.128  14.009 -0.0343 -0.1040  0.0119
84694W        W85558  19.474   8.476  13.321  0.0654 -0.0124 -0.0215
84695W        W85559  18.619   0.044   5.090 -0.1560  0.2679 -0.1543
84696W        W85560  16.022   9.072  16.175  0.0044 -0.5750  0.0453
84697W        W85561   2.964  14.841  12.941  0.2412  0.0922 -0.1744
84698W        W85562  23.620  12.144   2.378 -0.1223 -0.2986 -0.2124
84699W        W85563  16.168  13.990   6.898 -0.2399 -0.3126  0.0724
84700W        W85564  17.095  10.931  19.415 -0.0091 -0.0925  0.0066
84701W        W85565   8.540  19.695  14.613  0.0405 -0.2170 -0.0513
84702W        W85566  27.075  26.161   1.514  0.1602 -0.0842  0.0126
84703W        W85567   8.186  14.307  22.925  0.0740  0.4367  0.1318
84704W        W85568  13.640  11.704   8.053 -0.0244  0.1907 -0.1757
84705W        W85569   9.037  21.274  15.452  0.2118  0.1941 -0.0286
84706W        W85570  15.040  11.245   6.349 -0.0130  0.3272  0.0128
84707W        W85571  25.588  15.889  12.418 -0.0101 -0.3380 -0.1025
84708W        W85572   9.003   9.082   5.466  0.0043  0.0284  0.4276
84709W        W85573  10.893  12.077  20.913  0.0250  0.5517  0.1241
84710W        W85574  13.642  12.210  17.961  0.0218  0.0982  0.1771
84711W        W85575   0.055   7.354   1.152  0.3013 -0.0541  0.0855
84712W        W85576   2.148  27.781  24.553 -0.0088 -0.1592 -0.1824
84713W        W85577   2.969   8.596  16.355  0.0757 -0.1884 -0.1922
84714W        W85578   4.921   1.525   6.654  0.0714 -0.1055  0.1986
84715W        W85579   3.502  12.340  16.023  0.0187 -0.2299  0.2915
84716W        W85580  12.641   4.782  11.639 -0.1236  0.1282 -0.1841
84717W        W85581  20.336   2.686  13.510  0.0172 -0.1155 -0.1440
84718W        W85582   3.717   8.605  20.562 -0.0520  0.0810  0.3592
84719W        W85583  12.377   0.729  13.158 -0.2135  0.0002  0.1075
84720W        W85584  11.601  12.623   0.574 -0.0165  0.0061 -0.2176
84721W        W85585  18.413   7.408   4.991  0.0430  0.0959 -0.2150
84722W        W85586   7.685   0.406   9.751 -0.2611 -0.2914 -0.2203
84723W        W85587   4.501  16.700  12.113  0.0059 -0.1368 -0.1319
84724W        W85588  19.678   4.226  15.950 -0.0918 -0.1118  0.1215
84725W        W85589   9.215  26.956   3.361 -0.2107 -0.0735 -0.1481
84726W        W85590  11.034   9.218  12.788  0.4291 -0.0139 -0.0112
84727W        W85591  20.454   7.151   6.908 -0.1029 -0.0745  0.2894
84728W        W85592  11.733  12.522   7.235 -0.2348 -0.1853  0.2556
84729W        W85593  18.104   2.200  13.760  0.0410 -0.1906 -0.0572
84730W        W85594  24.573  11.603  24.621 -0.2465  0.2233  0.0081
84731W        W85595   8.134   2.761  10.651  0.1018  0.3621 -0.0151
84732W        W85596  11.264  21.136   0.606 -0.3862 -0.1828  0.0725
84733W        W85597   3.765  28.696  24.866  0.1874 -0.0247  0.0298
84734W        W85598   2.215   8.682   9.683  0.2187  0.2368 -0.2164
84735W        W85599  21.830  23.122   9.340 -0.0838 -0.1556  0.0658
84736W        W85600  27.021   0.736   0.362  0.1259  0.1264 -0.3627
84737W        W85601   9.496   0.066  22.553  0.4024 -0.0121  0.0361
84738W        W85602  25.257   1.806  19.577 -0.0465 -0.1092  0.3056
84739W        W85603  27.660   7.848  26.976 -0.0951  0.0558 -0.0301
84740W        W85604  13.573  10.138  24.775 -0.1524  0.0845 -0.0092
84741W        W85605  12.541  24.638   9.795 -0.0669 -0.1538 -0.1438
84742W        W85606  21.496   3.361  15.307  0.2254 -0.2246  0.0459
84743W        W85607  19.450   4.170   7.764 -0.2833 -0.1998 -0.1479
84744W        W85608  17.525  10.203   8.871 -0.0165 -0.3107  0.0859
84745W        W85609  28.870  12.395  14.582  0.1375  0.0213  0.0122
84746W        W85610   7.116  13.116  15.323  0.1728  0.0667  0.1329
84747W        W85611   8.745  14.526   7.470 -0.1000  0.0319 -0.2024
84748W        W85612  21.387  13.833  18.974 -0.0050  0.0071 -0.1321
84749W        W85613  16.385   0.731  25.732  0.2740 -0.0212  0.2036
84750W        W85614   4.421   2.654  18.308  0.1577 -0.2741  0.0425
84751W        W85615  27.472  16.247  21.135  0.0523  0.1453  0.1916
84752W        W85616   4.653  25.625  13.010  0.1661 -0.1671 -0.2171
84753W        W85617   6.286  25.858  22.308 -0.0480 -0.1314  0.0966
84754W        W85618   7.318   9.163  19.797  0.4956 -0.2298 -0.0223
84755W        W85619  17.249  29.072  13.213 -0.0318 -0.1080 -0.3229
84756W        W85620  21.727  27.637  27.799 -0.1221  0.0750  0.1099
84757W        W85621   2.379   8.108   1.162 -0.1555 -0.0025 -0.1727
84758W        W85622  16.381  14.826   1.847  0.1850  0.1726 -0.0425
84759W        W85623  16.563  18.960  27.184  0.0484  0.0087  0.0747
84760W        W85624  16.718  14.494   3.502 -0.2062 -0.1450  0.0310
84761W        W85625  12.299  20.821  21.354 -0.1824  0.0856 -0.3435
84762W        W85626   4.686  26.348  26.855 -0.1146  0.1433 -0.4986
84763W        W85627   8.755   9.414  22.657 -0.1262  0.0022  0.1737
84764W        W85628   4.664  26.065  21.616 -0.0520 -0.0165 -0.3400
84765W        W85629  18.967   9.708   1.600  0.0313 -0.1239  0.1340
84766W        W85630   7.144   8.335  21.133 -0.0173 -0.3995 -0.1176
84767W        W85631  21.920  13.311   9.547  0.2728  0.1770 -0.1436
84768W        W85632  18.570   9.022  15.192  0.1709 -0.0550 -0.1000
84769W        W85633  12.202  26.217   4.398 -0.1120  0.0572  0.0479
84770W        W85634  20.433   8.309  26.057  0.0812  0.0355  0.4356
84771W        W85635   6.342  16.251  28.820  0.0704  0.0026 -0.0782
84772W        W85636  27.755   8.232  17.913 -0.0142 -0.1893 -0.4473
84773W        W85637  10.861  15.377   9.784  0.2660  0.2098  0.0407
84774W        W85638  10.872   1.894  21.608  0.0344 -0.0210  0.3007
84775W        W85639  10.215   9.539   9.699 -0.1654 -0.0442 -0.1749
84776W        W85640  16.406   7.611  28.274 -0.1450 -0.2701  0.0154
84777W        W85641  16.473  24.366  18.922  0.3249  0.3236  0.0911
84778W        W85642   3.162  11.061  25.174  0.0081 -0.0339 -0.0858
84779W        W85643  19.469  24.796  13.791  0.1453 -0.0922 -0.0606
84780W        W85644  28.305   4.518  26.362 -0.4182 -0.1201  0.2065
84781W        W85645  18.626  14.314  21.706 -0.0892 -0.0006  0.2504
84782W        W85646  12.484  20.436  10.099 -0.2818  0.0425 -0.0121
84783W        W85647  15.181  11.964  25.342 -0.1128  0.0832  0.1325
84784W        W85648   6.286  28.585  17.597  0.3418  0.2208 -0.1126
84785W        W85649   8.319   4.196  15.574 -0.1430 -0.4622  0.1380
84786W        W85650  16.669   7.769  20.309  0.1175 -0.1584  0.0947
84787W        W85651  15.858  21.063  28.942 -0.0044 -0.0653  0.2082
84788W        W85652  21.126   5.537   6.249 -0.1069  0.3558 -0.0406
84789W        W85653  14.707   5.949  18.575 -0.2122 -0.1972 -0.0490
84790W        W85654  25.164  19.147  17.312 -0.2092  0.0815 -0.3070
84791W        W85655  16.490   1.298  14.235 -0.0994  0.1185  0.2649
84792W        W85656  14.053   5.475  25.236  0.2309  0.4037  0.4258
84793W        W85657  22.837  13.398   4.637 -0.1768  0.1042  0.1567
84794W        W85658  22.301  15.569  11.424  0.0674  0.1137  0.1598
84795W        W85659   1.862   8.961  23.923 -0.0208  0.1135  0.1133
84796W        W85660  20.749  22.020  20.145 -0.0401 -0.0942 -0.0864
84797W        W85661   3.287   0.428  13.237  0.0313 -0.2276 -0.0534
84798W        W85662   0.625  28.733  14.371 -0.1426  0.0502 -0.0659
84799W        W85663  24.512   1.272   6.587  0.2479  0.2803  0.1067
84800W        W85664  22.967  15.026  16.986  0.2329 -0.2238  0.2377
84801W        W85665  10.425  21.480  12.291  0.0185 -0.0682  0.1749
84802W        W85666  17.143  18.956   2.205 -0.0592 -0.2192  0.0993
84803W        W85667  11.401   7.864  15.942 -0.2207 -0.0194 -0.1288
84804W        W85668  16.676   2.899  24.097 -0.0880 -0.2802  0.2377
84805W        W85669   5.150   3.511   5.181 -0.1985  0.2776  0.0440
84806W        W85670   6.007  12.952  10.224 -0.2543 -0.0354 -0.2325
84807W        W85671  19.208  18.899   1.703 -0.0903 -0.3824  0.0732
84808W        W85672  11.936  15.378   5.364  0.0981  0.2000 -0.1305
84809W        W85673  19.954  11.751  16.497 -0.1553  0.2795  0.4109
84810W        W85674  28.132  18.985  23.971  0.1692  0.0563  0.1218
84811W        W85675  18.590   0.280  25.401  0.2113  0.1838  0.2177
84812W        W85676  29.012  28.258   7.889 -0.0118 -0.1504 -0.2564
84813W        W85677  15.634   2.509  13.301 -0.0868  0.1216  0.1347
84814W        W85678   6.624   4.186   9.724  0.0827 -0.0232 -0.1695
84815W        W85679  19.272   6.654  18.892 -0.2234 -0.0364 -0.1020
84816W        W85680   3.789   4.565   3.808 -0.4385 -0.3236 -0.1799
84817W        W85681  14.783  14.189  19.122  0.2761  0.0974 -0.2151
84818W        W85682   0.460  27.116  19.711  0.0771  0.2414 -0.0911
84819W        W85683  11.994  10.736  19.816 -0.2662 -0.0255  0.1634
84820W        W85684  20.045  13.831   8.289 -0.2970  0.0617 -0.1617
84821W        W85685  14.527   2.271  22.953  0.4698  0.2482  0.1198
84822W        W85686  17.353   4.657   7.724 -0.3033 -0.1021 -0.1149
84823W        W85687  23.578  20.787   4.343 -0.1916  0.0691 -0.0147
84824W        W85688  24.366   5.083  20.210 -0.0841 -0.2077 -0.1986
84825W        W85689  10.534  11.331   3.954  0.1867  0.1108 -0.0922
84826W        W85690  21.704  15.070  14.905  0.3660  0.0162  0.1286
84827W        W85691  18.921   2.858  18.715  0.1235  0.0344 -0.0132
84828W        W85692  16.652  19.057  21.263  0.3363  0.4506  0.1870
84829W        W85693  16.357  15.628   5.970  0.0312 -0.0051 -0.0161
84830W        W85694  13.756   0.902  10.133 -0.2805 -0.2407  0.2660
84831W        W85695  16.734   5.389   4.598  0.1337  0.1446  0.0457
84832W        W85696  10.176  22.997   2.731  0.2346 -0.3586 -0.1665
84833W        W85697  21.857   3.614  15.000  0.1971 -0.1448  0.0910
84834W        W85698   6.364   8.193   9.290 -0.2402  0.1301  0.0521
84835W        W85699  23.547  16.173  26.922 -0.0154  0.0904  0.1567
84836W        W85700  27.710   5.715  15.410 -0.0218  0.1297 -0.1731
84837W        W85701  25.007   7.566  16.777 -0.0570 -0.2482  0.2776
84838W        W85702   5.319   2.743   2.028  0.1426  0.0096  0.1153
84839W        W85703  26.922  22.313  22.123 -0.1466 -0.0851 -0.1430
84840W        W85704  20.785  12.105  27.638  0.0390  0.1168 -0.2614
84841W        W85705  10.635   7.949  26.204 -0.1304  0.0517 -0.0768
84842W        W85706  20.602   2.420  15.190 -0.0480  0.0881 -0.2805
84843W        W85707  28.509   6.982   8.009 -0.3276  0.0590  0.2528
84844W        W85708  13.633   5.031  17.801  0.2062  0.2435 -0.1549
84845W        W85709   4.739   8.223  23.431  0.1052  0.1616 -0.2792
84846W        W85710  13.961  21.280   7.692 -0.2003 -0.0398 -0.0676
84847W        W85711  11.180   8.531  21.727  0.2721 -0.1233 -0.2146
84848W        W85712   6.097  10.871  14.445  0.0254  0.0817 -0.0065
84849W        W85713  12.412   8.137  23.104  0.1781  0.0261  0.2066
84850W        W85714   6.353  28.074   8.546 -0.1639 -0.1214  0.1531
84851W        W85715   1.689   6.125  27.167 -0.1484  0.0611  0.0221
84852W        W85716  16.959  15.982  14.295 -0.0306  0.0850 -0.1910
84853W        W85717  25.801  22.411   7.491 -0.2023 -0.2630 -0.0213
84854W        W85718  27.953  22.345   3.907 -0.2057  0.2704  0.1609
84855W        W85719   9.511  23.806  22.880  0.1547 -0.0525  0.0933
84856W        W85720  20.660   5.657   2.212  0.2356  0.1247 -0.0839
84857W        W85721   7.445  20.412  26.782 -0.3788  0.0234  0.2902
84858W        W85722  26.905  19.322  22.451  0.0085  0.0634 -0.1954
84859W        W85723  22.937  26.781  14.894 -0.0303  0.0367  0.0480
84860W        W85724  17.293  11.914   9.654 -0.0887 -0.2999  0.1871
84861W        W85725  24.727  14.691   5.980 -0.0613  0.1284 -0.0597
84862W        W85726  25.422  21.685   7.243 -0.0143 -0.1092  0.2105
84863W        W85727  26.540  28.608   2.440 -0.0489  0.3316  0.0136
84864W        W85728   2.876  24.581  17.983  0.1048 -0.1578 -0.1729
84865W        W85729   8.153  28.571   2.116  0.0500 -0.0883  0.0637
84866W        W85730  26.523  11.772  25.922  0.0221  0.3464  0.0355
84867W        W85731  18.338  16.028  14.343  0.1962  0.0108 -0.3209
84868W        W85732   8.990  24.986  27.702  0.0809 -0.0948 -0.0440
84869W        W85733  12.351   0.856  10.409  0.2776 -0.1823  0.1216
84870W        W85734  23.898   2.246  28.118 -0.0811 -0.1014 -0.1582
84871W        W85735  24.858   5.129   6.791 -0.1325  0.0962  0.3461
84872W        W85736   7.290  19.570   8.011 -0.0503 -0.0288  0.0825
84873W        W85737  20.193  20.805  18.127  0.0709  0.2568  0.1089
84874W        W85738  13.326  15.948   1.213 -0.0568 -0.1656 -0.0492
84875W        W85739   3.271   7.718   4.119 -0.0346 -0.1192 -0.0102
84876W        W85740  17.225   5.337  14.817  0.0364 -0.2077  0.2318
84877W        W85741  23.478   5.215  23.783  0.1013  0.0567  0.1651
84878W        W85742  19.001  22.453  17.527  0.1009 -0.0422  0.1286
84879W        W85743  24.236  27.903  28.637 -0.0498 -0.0426  0.0103
84880W        W85744   5.331  15.981  19.105 -0.0041 -0.2152 -0.0222
84881W        W85745   3.562  24.464  19.589 -0.5248 -0.0965  0.0430
84882W        W85746  20.173  28.664  20.724 -0.0234 -0.1973 -0.2137
84883W        W85747  28.199  26.030  25.948  0.0392 -0.1653  0.1627
84884W        W85748   8.979  10.524  13.973  0.1615  0.0452  0.1500
84885W        W85749  15.812   7.139  19.122  0.0551  0.0798 -0.3351
84886W        W85750   8.594  10.256  18.981 -0.0770 -0.0129 -0.0336
84887W        W85751  21.858   9.055   9.860 -0.2046 -0.0941 -0.0833
84888W        W85752  11.253   6.602  26.256  0.0443  0.0007 -0.0054
84889W        W85753  20.432  21.972   5.844 -0.2478  0.2432 -0.1563
84890W        W85754   9.859   6.844  25.098 -0.2758  0.2604  0.0494
84891W        W85755  19.256  13.548   6.033 -0.3224  0.1180  0.1709
84892W        W85756  13.474  26.459  24.179  0.0371  0.0031 -0.1408
84893W        W85757   1.779  15.686   0.397  0.1691  0.1578 -0.1131
84894W        W85758  19.829  22.901  20.752 -0.2411  0.0654 -0.0462
84895W        W85759  21.077  15.036  26.202 -0.2597  0.0198 -0.1834
84896W        W85760  28.737   9.869  17.353  0.1100 -0.0740  0.0317
84897W        W85761   7.953  26.874   9.961  0.3097  0.0207 -0.1911
84898W        W85762  14.792   9.896  16.009  0.2284 -0.1758  0.1441
84899W        W85763   8.757  10.252  20.243 -0.2847 -0.0539  0.0582
84900W        W85764   8.240   1.317  26.478 -0.0077  0.1898  0.3783
84901W        W85765  14.654  21.964  15.882  0.1311  0.3798 -0.0076
84902W        W85766  20.219   7.736  19.455 -0.3025 -0.0133 -0.2938
84903W        W85767  27.027  22.422  14.667  0.1468 -0.0179 -0.0313
84904W        W85768  12.095   3.781   0.926 -0.4494 -0.0340  0.0973
84905W        W85769  16.915   7.752   6.609 -0.0470  0.1958 -0.1400
84906W        W85770  18.304   7.562  28.581  0.1884  0.0271  0.0166
84907W        W85771  11.707  12.354  16.483 -0.0831 -0.0336 -0.1182
84908W        W85772  14.437   5.961  10.027  0.1017  0.1142  0.2190
84909W        W85773  17.897  12.058   1.692 -0.2245 -0.1402  0.1689
84910W        W85774  10.252  14.219  10.224  0.0852 -0.0401  0.0149
84911W        W85775  14.766   3.038  11.882  0.2929  0.2395  0.3681
84912W        W85776  20.879  20.133   5.818  0.2363 -0.1134  0.0610
84913W        W85777  24.308   1.449  17.740 -0.2747 -0.1181 -0.2039
84914W        W85778  11.057   2.400   5.793 -0.0098  0.0287  0.3084
84915W        W85779  12.307  22.885   8.760  0.1914  0.0879  0.0748
84916W        W85780   3.774  10.098  16.630  0.4098  0.1866  0.0585
84917W        W85781  27.032   4.238  11.983  0.2708 -0.3328  0.2975
84918W        W85782   3.059   2.113   5.174 -0.0083 -0.0112  0.0612
84919W        W85783   3.754  24.375  26.749  0.3480  0.3878 -0.2500
84920W        W85784  19.526  11.514   8.013 -0.4077  0.0105 -0.0155
84921W        W85785  10.606  16.221  13.025  0.1849  0.3092  0.1746
84922W        W85786  17.309   1.889   8.254  0.0709  0.0481  0.0246
84923W        W85787  10.072  15.457  29.123 -0.0131 -0.1739  0.0867
84924W        W85788   9.225  16.973   4.616  0.0553  0.1935  0.2190
84925W        W85789  15.324  10.050   5.466 -0.0999  0.0477  0.0892
84926W        W85790   3.427   7.981   0.726  0.0703  0.2220 -0.1721
84927W        W85791  26.020  23.098   6.149 -0.2401 -0.4085 -0.1578
84928W        W85792  28.301  28.074   4.881 -0.0070 -0.0925  0.2122
84929W        W85793  24.491  18.234  10.026 -0.1107  0.0354 -0.0205
84930W        W85794  20.002   2.519  15.104 -0.0444  0.0042 -0.2451
84931W        W85795  15.471   2.332  27.246  0.2435  0.0317 -0.1590
84932W        W85796  15.989   8.003  12.117 -0.1628  0.0430  0.2212
84933W        W85797  10.019  12.846  15.022 -0.2297 -0.0395 -0.0550
84934W        W85798   2.075  27.773  21.564 -0.0041 -0.1077  0.0011
84935W        W85799  15.404  28.185  29.020  0.0778 -0.0660 -0.0750
84936W        W85800  18.537   1.696  28.447 -0.3117 -0.0025 -0.1303
84937W        W85801  15.034   6.958   1.396  0.0053  0.0398 -0.1819
84938W        W85802  14.252   5.578  16.813  0.0249  0.0811 -0.0125
84939W        W85803  22.363  26.314   3.615 -0.0185  0.0570 -0.0754
84940W        W85804   7.656  14.813   7.187 -0.0227  0.1217  0.1046
84941W        W85805   6.144  23.550  28.491 -0.1858 -0.0570  0.3024
84942W        W85806   4.851   1.687   8.350  0.1148 -0.4005  0.1978
84943W        W85807  16.359  25.522   2.629  0.0993 -0.3012  0.0493
84944W        W85808  12.437  10.367  21.285  0.0472  0.1787 -0.3733
84945W        W85809   9.524  11.236  14.001  0.0081  0.0155 -0.0122
84946W        W85810  18.298   9.005  27.260 -0.2213 -0.0636  0.2248
84947W        W85811  12.784  28.046  19.064  0.1067  0.0596  0.3223
84948W        W85812   8.702  11.155  12.885 -0.2195 -0.0085 -0.1480
84949W        W85813   4.149   8.582  16.513  0.1821 -0.1031 -0.2860
84950W        W85814   8.437  10.284  13.890  0.3230  0.3569 -0.0325
84951W        W85815  13.937  11.731  11.227 -0.2290 -0.0313 -0.1026
84952W        W85816   5.197  29.132  24.150  0.0103  0.2180 -0.2418
84953W        W85817  16.779   2.025  14.793  0.1215 -0.1718 -0.0965
84954W        W85818  22.965  28.544  16.887 -0.3730  0.2809 -0.1241
84955W        W85819  28.801   1.678   6.297  0.1529  0.3784  0.1869
84956W        W85820  29.132  24.381  20.134 -0.0485 -0.1343  0.0031
84957W        W85821  15.974   6.734   8.510 -0.1130 -0.1601 -0.1271
84958W        W85822  10.565   1.189  18.504 -0.0729  0.0413 -0.2309
84959W        W85823   6.279  15.985  11.559 -0.0088 -0.1335  0.0545
84960W        W85824  16.728  24.661  19.384 -0.1214  0.0014  0.2522
84961W        W85825  14.200  13.113   9.589 -0.2159  0.1136 -0.0712
84962W        W85826  17.115  14.088  26.755  0.0507 -0.0003 -0.0871
84963W        W85827   9.103   3.201  12.924  0.2651 -0.0796 -0.0060
84964W        W85828  20.399  11.415  25.272  0.2958 -0.1356  0.0084
84965W        W85829   3.082  29.063  19.347 -0.1408 -0.3348  0.0108
84966W        W85830  15.341  17.050  10.561  0.1167  0.2446 -0.0680
84967W        W85831   9.410   5.167  23.500  0.0008 -0.4433 -0.1810
84968W        W85832  19.596  28.433   2.229  0.0695 -0.4907 -0.0472
84969W        W85833  20.768   5.442  16.445 -0.0778 -0.1930 -0.0491
84970W        W85834   6.721  12.527  17.481  0.1292 -0.0719 -0.2269
84971W        W85835   5.314  13.262   2.087  0.3218 -0.0046  0.2540
84972W        W85836   0.886  29.124  14.071 -0.1143  0.1196  0.1147
84973W        W85837   4.485   3.986  13.146  0.0717 -0.1789 -0.2003
84974W        W85838  16.458  16.285  23.967  0.2441  0.2276 -0.0684
84975W        W85839   6.883   4.300  13.682 -0.1499  0.2625 -0.1836
84976W        W85840  19.076   8.493   1.545 -0.1898 -0.0286 -0.0903
84977W        W85841   9.583   3.185   1.410  0.0422 -0.0464  0.0104
84978W        W85842  13.030  16.294  21.372  0.1444  0.0199  0.0696
84979W        W85843   9.998  13.017  18.067 -0.1232  0.2819  0.2119
84980W        W85844   5.664  24.392  29.081  0.2720  0.0690  0.2136
84981W        W85845  23.755  23.903   1.270 -0.4531  0.0625 -0.1978
84982W        W85846  10.566  16.266  12.204 -0.0955  0.2581 -0.0071
84983W        W85847  20.513   5.649  20.943 -0.0116 -0.0334  0.2221
84984W        W85848  17.478   7.894   6.513  0.0627 -0.0096  0.3745
84985W        W85849  24.455  13.072  27.321 -0.0848 -0.0747  0.0055
84986W        W85850  14.674  15.537   5.157  0.2544  0.2078 -0.0119
84987W        W85851  26.681  20.296  14.473  0.3838 -0.1685  0.2408
84988W        W85852  25.196   8.778  12.800 -0.1520  0.1429  0.2240
84989W        W85853  21.439  15.812  10.002  0.1684  0.4060 -0.0431
84990W        W85854  17.710   0.295   8.251  0.0289 -0.3690  0.1536
84991W        W85855  17.613  18.492  16.670  0.1985 -0.0205  0.1535
84992W        W85856   7.799  28.532  12.194 -0.2364 -0.2668 -0.0842
84993W        W85857  10.583   7.396  21.696  0.1753  0.2018 -0.0055
84994W        W85858  20.320  17.653   5.931 -0.4331 -0.1718  0.0330
84995W        W85859  13.823  22.056  22.519  0.0723 -0.1029 -0.2330
84996W        W85860   7.206  22.015  27.744  0.0193 -0.0749  0.0306
84997W        W85861   1.813   3.448  17.486  0.0467  0.1414 -0.1538
84998W        W85862  19.446  18.204  17.153 -0.0945 -0.1759  0.3866
84999W        W85863  16.096  18.299  12.772 -0.3336  0.0790 -0.1748
85000W        W85864  10.558   4.201  16.533  0.0062 -0.3866 -0.3103
85001W        W85865  28.193  27.179  19.037 -0.2186 -0.1704 -0.1417
85002W        W85866  20.981   5.237   3.325  0.1729  0.2347  0.0464
85003W        W85867   9.788   4.789  13.988  0.2366  0.1464 -0.0805
85004W        W85868  26.247   1.903  12.708  0.2779 -0.3058  0.2611
85005W        W85869   6.816  18.464  11.915  0.0165 -0.1686 -0.1383
85006W        W85870  13.268  11.261  11.482  0.3189 -0.1378 -0.0013
85007W        W85871   3.146   9.857   5.684  0.0654 -0.0500  0.3405
85008W        W85872  18.516  27.046   6.271 -0.0449  0.1216  0.0646
85009W        W85873  10.507  10.672  14.860 -0.0542  0.2809  0.0841
85010W        W85874  26.750   0.555  24.908 -0.5024 -0.1805 -0.1600
85011W        W85875  22.676   8.580  10.790  0.3027 -0.3026  0.2275
85012W        W85876  25.307  13.524  17.889  0.0189  0.0882  0.1115
85013W        W85877  10.520   7.841  25.213 -0.0461 -0.0944 -0.2520
85014W        W85878  12.970   8.931  11.851 -0.3279  0.1551 -0.1451
85015W        W85879  23.721  13.676   2.291 -0.0730 -0.0848 -0.0560
85016W        W85880   8.903  13.739  24.956  0.1103  0.1765 -0.2300
85017W        W85881   6.824  26.830  12.377  0.0043 -0.0425 -0.0208
85018W        W85882  10.065  28.448   8.065 -0.2574  0.0019 -0.0206
85019W        W85883  19.802   0.130  22.748 -0.1628  0.1102  0.1278
85020W        W85884   1.365   6.781  28.244 -0.0227 -0.2167  0.0485
85021W        W85885  13.444  13.677  13.289 -0.1401  0.0384  0.1377
85022W        W85886   4.421  18.416   3.263  0.1640  0.2929  0.0344
85023W        W85887  23.908  14.199   9.892 -0.1126  0.2947  0.1137
85024W        W85888  10.471  15.342  25.891  0.1589  0.1891 -0.1379
85025W        W85889   8.841  23.430   8.038 -0.0451  0.1060 -0.1350
85026W        W85890  12.072  16.157   6.693  0.2295 -0.1471  0.2170
85027W        W85891  16.300   9.516  27.799  0.1686 -0.2185  0.4063
85028W        W85892  11.983  14.163  17.957 -0.1646 -0.0394 -0.1437
85029W        W85893  13.581   8.072  19.036 -0.0135 -0.1223 -0.1975
85030W        W85894   7.088   0.674   4.294  0.1402 -0.1858 -0.0054
85031W        W85895  12.898  23.520  15.314  0.0649  0.2020 -0.0511
85032W        W85896  24.028   6.563  13.221  0.1489  0.1401  0.1443
85033W        W85897  22.080  22.453  23.394 -0.1178 -0.2356  0.3555
85034W        W85898   7.238   9.213  22.804 -0.1364  0.4457  0.1776
85035W        W85899  21.510   5.269   3.486 -0.1262 -0.2250 -0.0103
85036W        W85900  28.113   4.920  17.785 -0.1517  0.0083  0.0971
85037W        W85901  19.718   6.823  18.509  0.2512  0.0997 -0.1491
85038W        W85902   1.167  28.967  28.836 -0.1674 -0.0056  0.0766
85039W        W85903   9.448  18.931  11.502 -0.0171  0.2645 -0.5061
85040W        W85904  11.235  28.954   2.703 -0.2184  0.2768  0.2995
85041W        W85905   1.765   7.306  20.077 -0.0050 -0.0839  0.1778
85042W        W85906  17.298  11.368  12.387  0.2763 -0.0635  0.0797
85043W        W85907  13.830  18.140  27.808  0.3042 -0.0315 -0.0277
85044W        W85908  14.344  23.111   9.322  0.1472 -0.0720 -0.1138
85045W        W85909  19.927  11.895  21.179 -0.3670  0.1316  0.2894
85046W        W85910   7.142   7.128  25.900 -0.3008  0.1962  0.1075
85047W        W85911  21.343  23.890   3.374 -0.0603  0.0896 -0.0768
85048W        W85912  16.000  18.259  28.808  0.2449 -0.1890 -0.1478
85049W        W85913  16.584  25.253  16.639  0.0640  0.0816  0.1821
85050W        W85914  19.057  26.812  19.913  0.1593  0.3060  0.0282
85051W        W85915  19.594  10.049  22.353  0.0546 -0.2333  0.2948
85052W        W85916  26.042  28.961  12.555 -0.0488 -0.0475 -0.1556
85053W        W85917  17.291   0.515  14.017  0.1937 -0.0730  0.2104
85054W        W85918  18.270   5.590   2.001 -0.0335  0.3824 -0.0019
85055W        W85919  17.738   0.287  16.669 -0.1211  0.3175 -0.0099
85056W        W85920  13.986   7.035  24.809 -0.4583  0.0415 -0.1275
85057W        W85921  10.160  25.435  22.378  0.0432 -0.4312 -0.3233
85058W        W85922  18.286  13.370  23.361 -0.1512  0.0708 -0.1737
85059W        W85923  11.284   7.050  22.976  0.0758 -0.0380 -0.2266
85060W        W85924   4.576  12.115  25.508 -0.1576 -0.1802 -0.5556
85061W        W85925  19.608  27.086  28.063 -0.2022  0.1349 -0.0415
85062W        W85926  14.538  15.291  17.451 -0.3734 -0.1391  0.2242
85063W        W85927   2.457  19.114   0.215 -0.1543 -0.2661 -0.1476
85064W        W85928   0.046  19.900  19.966  0.5580 -0.1703 -0.0529
85065W        W85929  19.897   9.020  17.096 -0.3657  0.0020 -0.0571
85066W        W85930  12.897   6.184   6.092  0.1643 -0.0806 -0.2859
85067W        W85931  14.425   9.091  27.527 -0.1519 -0.0937 -0.0862
85068W        W85932  26.120   7.188  20.166  0.0526 -0.0741  0.0505
85069W        W85933  16.004  21.199   9.080  0.1022 -0.1353  0.0258
85070W        W85934  27.238   5.946   3.458 -0.0077  0.1961  0.3311
85071W        W85935   8.197  20.910  27.667 -0.1344 -0.4074  0.2011
85072W        W85936  13.273  19.826  16.396 -0.0500  0.1939  0.1743
85073W        W85937  27.458   4.852  21.697  0.1878  0.3047 -0.0348
85074W        W85938   9.584  12.034   5.074 -0.2031  0.0738  0.2326
85075W        W85939  24.266   5.661   2.010  0.0958  0.2147 -0.0459
85076W        W85940  14.154  28.421   2.955 -0.2322 -0.2155  0.0374
85077W        W85941  14.634   4.244  15.176  0.3073 -0.0259  0.0797
85078W        W85942   8.939  13.563  10.572  0.1986 -0.0117  0.1687
85079W        W85943  20.426   0.317  12.378 -0.2153  0.2217  0.0280
85080W        W85944   5.704  15.590  22.920 -0.5403  0.2037  0.4354
85081W        W85945  14.908  10.302   5.349 -0.3276 -0.1515  0.2493
85082W        W85946  13.118   8.935   7.933 -0.1866 -0.1202  0.0671
85083W        W85947  16.743  25.897   4.484  0.2102  0.0211 -0.0869
85084W        W85948   6.685  20.650  26.404  0.5854  0.0546  0.3274
85085W        W85949   9.729   9.121  13.721  0.0192 -0.1616  0.2583
85086W        W85950   4.900  23.718  12.861  0.1314  0.1744  0.2816
85087W        W85951  19.324  11.506  14.845  0.0090  0.0171  0.0454
85088W        W85952  18.230  27.602   3.274 -0.1830  0.0426 -0.1755
85089W        W85953  26.665  14.679  21.013 -0.0264 -0.1571  0.1758
85090W        W85954   5.095  11.787  11.961 -0.1837  0.2828 -0.0005
85091W        W85955  11.535   5.776   5.966 -0.1104  0.0573 -0.0918
85092W        W85956  15.239   5.803   0.248  0.2778  0.1329 -0.1309
85093W        W85957  24.072   9.435   9.895 -0.0606 -0.0561  0.0359
85094W        W85958   1.164  24.306  20.251 -0.0340 -0.1314  0.1138
85095W        W85959  17.712  23.977  15.396 -0.2941 -0.2419 -0.2022
85096W        W85960  18.067  27.389  11.844 -0.0364 -0.0799  0.4342
85097W        W85961  12.700   3.540  20.705  0.2606 -0.1272 -0.1546
85098W        W85962  22.853   4.506  11.636  0.0819  0.1373  0.1340
85099W        W85963   8.403   7.441   5.319  0.0568  0.0967  0.2587
85100W        W85964  17.729   9.235  23.180  0.3989  0.2098  0.1161
85101W        W85965   3.794   3.144  17.701  0.1211  0.0400 -0.1541
85102W        W85966   1.160  25.569  11.981  0.0798 -0.1490  0.0200
85103W        W85967   1.159  13.887  24.030  0.0832  0.2986  0.2097
85104W        W85968  19.692   4.796  18.013  0.0004 -0.0415  0.1214
85105W        W85969  28.489  28.305  13.635  0.0719 -0.0510  0.0263
85106W        W85970  27.063  18.843  17.521  0.2469 -0.1399  0.1067
85107W        W85971  12.692  23.051  23.145 -0.1555  0.0181  0.1953
85108W        W85972  16.577   5.156   3.134  0.1282  0.0103  0.0534
85109W        W85973  16.340  20.636  20.654  0.0497 -0.0435 -0.3132
85110W        W85974  14.608  27.920  28.817 -0.0257  0.0720 -0.1453
85111W        W85975  12.853  22.639  10.263  0.0114 -0.3546  0.0316
85112W        W85976  24.285  15.729   9.880  0.0898 -0.2139  0.1700
85113W        W85977  13.398  23.272  18.771  0.1227  0.1458 -0.1538
85114W        W85978   7.064   8.613   8.877 -0.0657 -0.0594  0.1005
85115W        W85979  18.963   1.166  24.709 -0.2773  0.0067  0.1577
85116W        W85980  17.346   7.566  23.669 -0.0832 -0.2919  0.4621
85117W        W85981  24.965  19.022  22.265  0.0343  0.2797  0.2936
85118W        W85982  12.139  28.224  27.215  0.0134 -0.0421 -0.0213
85119W        W85983  12.172   7.945   9.835 -0.0547 -0.0242 -0.1840
85120W        W85984  17.524  25.015  23.310  0.0867 -0.1352  0.0282
85121W        W85985  10.309  19.665  17.414 -0.0437 -0.0442  0.0236
85122W        W85986   6.534   1.652  20.925 -0.0088 -0.1350 -0.0173
85123W        W85987  23.201  21.759  22.807  0.3584 -0.2375  0.2714
85124W        W85988  17.667  23.094  20.422 -0.2900 -0.0570  0.2486
85125W        W85989  18.512  28.022  10.727 -0.2926 -0.0206 -0.2148
85126W        W85990   0.275  26.654  13.173 -0.2014  0.3109 -0.0839
85127W        W85991   2.934  23.366  16.708  0.1852  0.2045  0.1392
85128W        W85992  15.255   1.541  25.354  0.1125  0.3440  0.1428
85129W        W85993  14.587  12.043  12.803  0.1214  0.1841 -0.1326
85130W        W85994  20.466   6.715   7.213 -0.1373  0.2295  0.0995
85131W        W85995  14.311   2.999  20.925 -0.3806  0.0190  0.0947
85132W        W85996  16.704  21.956   5.298 -0.0924 -0.0724 -0.1639
85133W        W85997   5.757  28.413  20.290  0.0077  0.2368 -0.1016
85134W        W85998  16.010   7.323  27.002  0.1754  0.0052 -0.5736
85135W        W85999  20.131  16.840  18.105  0.0917 -0.3062  0.0803
85136W        W86000   2.375  13.248  15.430  0.2067 -0.0291  0.2146
85137W        W86001   5.559  17.941  11.129 -0.0606  0.0966  0.0896
85138W        W86002   7.231   8.905  23.191  0.0990  0.0517  0.0030
85139W        W86003  20.650  15.162   4.341 -0.1305  0.1393 -0.1193
85140W        W86004   8.354  14.255  11.002 -0.2041  0.1863 -0.1034
85141W        W86005  10.913  24.454   1.934  0.0443 -0.3302 -0.0658
85142W        W86006  17.902  20.115  17.215  0.2034 -0.0824  0.2528
85143W        W86007  28.718   7.248   8.445  0.3407 -0.1116 -0.3316
85144W        W86008  10.587  20.694  27.931 -0.1207  0.0025 -0.1948
85145W        W86009  25.985  18.413  19.779  0.0756  0.0517 -0.1680
85146W        W86010  15.355   3.134  17.586  0.0650 -0.1489  0.1388
85147W        W86011  23.037  12.524  28.584  0.0215  0.2949 -0.0466
85148W        W86012  12.252  14.662  13.511 -0.0964  0.1392  0.0083
85149W        W86013   1.113   4.451  10.442 -0.1677 -0.0788  0.3820
85150W        W86014  28.013   6.198  19.986 -0.0398  0.0751  0.0755
85151W        W86015   6.950  25.320   1.466  0.0939  0.2207 -0.0606
85152W        W86016  26.099  28.569  24.686  0.0227  0.2550 -0.1015
85153W        W86017  18.550  10.313   5.492 -0.3217  0.1919 -0.1824
85154W        W86018  21.268  16.351  11.838 -0.1050 -0.1115  0.2573
85155W        W86019  28.709  17.632   8.877  0.1562 -0.0639 -0.3403
85156W        W86020  19.162  22.749  18.895 -0.0963 -0.1213  0.0813
85157W        W86021   6.818  18.869  26.811 -0.1019  0.0398  0.1809
85158W        W86022  11.405   7.598  19.299  0.3248  0.3895 -0.1053
85159W        W86023  22.110   0.216  21.926  0.2164 -0.2797 -0.2673
85160W        W86024   7.132  27.624  15.225 -0.0850  0.0751  0.1549
85161W        W86025  10.144   9.604   6.292 -0.3802  0.0988  0.1211
85162W        W86026  18.426  17.904  13.745 -0.1171  0.1581  0.1628
85163W        W86027  28.003  15.880  13.827 -0.0505 -0.1435 -0.2790
85164W        W86028  15.916  13.005  22.118  0.3517  0.0995 -0.0432
85165W        W86029  12.147  26.495   0.882  0.3792 -0.1255 -0.0727
85166W        W86030   4.880  11.616  21.398 -0.2284 -0.0102 -0.1458
85167W        W86031  28.743  23.779  10.228 -0.0639  0.1399  0.1425
85168W        W86032  23.515   0.203  12.260 -0.0561  0.2985  0.2373
85169W        W86033   9.782  14.981  21.561  0.2125 -0.1853 -0.0987
85170W        W86034   9.753   8.357  20.893 -0.0027 -0.3628 -0.1022
85171W        W86035   0.712  19.785  27.939  0.0351  0.2068 -0.2465
85172W        W86036  22.011   5.044  21.339 -0.0748  0.2426 -0.0939
85173W        W86037  25.868   0.261  24.892 -0.2449 -0.4965 -0.0149
85174W        W86038  16.201  20.589  23.159  0.0908 -0.0530 -0.1416
85175W        W86039  20.368   6.418   4.326 -0.1358  0.0115 -0.1441
85176W        W86040  15.346   4.188  17.389  0.0204 -0.0902 -0.0593
85177W        W86041   5.294  26.451   9.811  0.1648 -0.0922 -0.2285
85178W        W86042  23.409  28.567  11.148 -0.1074 -0.0818  0.0030
85179W        W86043   7.231   9.827  28.356 -0.0117  0.0457  0.0381
85180W        W86044  23.980  12.785  11.960  0.0896  0.0413  0.2243
85181W        W86045   2.347   4.018   0.006  0.0501  0.1370 -0.2959
85182W        W86046  14.291  24.663  12.633  0.1238  0.0558 -0.1356
85183W        W86047  22.150  25.303  19.740 -0.1309  0.3369  0.1123
85184W        W86048  18.661   5.863  20.051  0.1449  0.0561  0.0328
85185W        W86049  28.323  15.632  10.029 -0.0750 -0.3890 -0.4454
85186W        W86050   9.142  19.845   8.550 -0.2508 -0.3740  0.1173
85187W        W86051   2.741  16.277  27.089 -0.0641 -0.1580  0.1082
85188W        W86052   1.664  23.618  11.327 -0.1199 -0.1391  0.1778
85189W        W86053  13.871  19.373  25.048  0.2704 -0.0731 -0.2372
85190W        W86054  18.740   7.406  10.021 -0.2823  0.1315  0.0555
85191W        W86055  19.239   2.495  18.820 -0.1914  0.1080  0.1048
85192W        W86056  26.071   8.467  22.498  0.1018  0.1730  0.1213
85193W        W86057  20.803   5.947  22.980 -0.3932 -0.4635 -0.1485
85194W        W86058   3.490  18.320  28.310  0.0708 -0.1469 -0.2252
85195W        W86059  16.056   7.964  25.317 -0.0108  0.0697  0.2075
85196W        W86060   4.655   7.846  24.377 -0.0453 -0.0750  0.0448
85197W        W86061  15.142  28.136   4.273  0.2855  0.2721  0.0125
85198W        W86062  18.867   3.994   5.947 -0.0719  0.0439 -0.2833
85199W        W86063  14.729  14.594  26.952 -0.0200 -0.1415  0.1925
85200W        W86064  13.271  13.467  12.793  0.2599  0.1407  0.0491
85201W        W86065   6.801   2.892  23.150  0.0144 -0.0208  0.2267
85202W        W86066  24.681  23.340  22.304  0.0731 -0.2649 -0.0188
85203W        W86067   3.076   2.364   7.934 -0.1602 -0.0343 -0.2523
85204W        W86068   7.487   7.632  28.383 -0.3656 -0.1311 -0.4904
85205W        W86069  16.565  24.099  22.018  0.0593 -0.2487  0.2446
85206W        W86070  17.439  15.793  26.956 -0.1542 -0.0681  0.1065
85207W        W86071   8.731  18.966  10.840  0.0423  0.0749  0.0409
85208W        W86072  19.469  14.753  20.441 -0.1197  0.4053 -0.1848
85209W        W86073   5.153  13.211  23.691  0.1578  0.2849 -0.2053
85210W        W86074   1.228  27.209   6.546 -0.3191  0.1116 -0.0540
85211W        W86075  17.854  14.927  16.875  0.5066 -0.2413  0.0792
85212W        W86076  12.102   9.291   3.694 -0.0523 -0.1336 -0.0210
85213W        W86077   8.658   8.367  12.396  0.0149 -0.1590  0.2424
85214W        W86078  21.436   3.105  25.547  0.1329 -0.0022  0.1896
85215W        W86079  19.945   9.273   4.439  0.1725  0.1533 -0.0399
85216W        W86080   9.268   8.656   0.901  0.0819  0.3865 -0.1106
85217W        W86081  26.537   7.940  25.111 -0.3803  0.4179 -0.0781
85218W        W86082   1.048  28.818  18.402 -0.0997  0.2546 -0.2219
85219W        W86083  17.844  15.814  18.540  0.3252  0.1339 -0.0889
85220W        W86084   9.545   9.670  24.557  0.3628  0.2130  0.1673
85221W        W86085   5.634  27.986   9.651  0.1520 -0.1169 -0.3009
85222W        W86086  16.180   2.880   6.950 -0.0854  0.0606  0.2647
85223W        W86087   0.547  10.278  14.092  0.3668 -0.0904  0.2816
85224W        W86088  17.056   5.575  17.167 -0.1998  0.2108 -0.0404
85225W        W86089  15.208  23.132  21.084  0.0590  0.2753  0.3776
85226W        W86090   2.537  15.868  15.883  0.0231  0.0064  0.0841
85227W        W86091  27.461  19.843  16.072  0.1172  0.0895 -0.0707
85228W        W86092  24.608  27.580  28.724  0.0972  0.4992 -0.0024
85229W        W86093  26.685   9.057  11.636  0.0108  0.0433  0.1374
85230W        W86094  18.350   9.755   5.736  0.1589  0.3322  0.0523
85231W        W86095  20.740   5.794  16.857  0.0166  0.2908 -0.0153
85232W        W86096   2.344  20.871   0.406 -0.0767 -0.2276  0.0624
85233W        W86097   1.075  11.544  10.299  0.2470  0.0190  0.0022
85234W        W86098   7.636  15.538  26.504 -0.0186  0.3289  0.0605
85235W        W86099  22.810   6.432   9.296 -0.4415  0.0921 -0.0167
85236W        W86100   8.172  10.749   8.543  0.1335 -0.2173 -0.5226
85237W        W86101  21.617   4.318  16.881  0.1145 -0.3449  0.5735
85238W        W86102   9.906  27.291  25.553 -0.1994  0.0361 -0.0158
85239W        W86103  24.285  13.983  10.359 -0.2036 -0.0180  0.0453
85240W        W86104  21.408   1.740  24.248 -0.0363 -0.1307 -0.0496
85241W        W86105   0.035  26.867  17.797  0.0747 -0.3980 -0.1959
85242W        W86106  17.421  25.262  13.150  0.1366 -0.2048  0.1865
85243W        W86107   7.057  11.391   0.963  0.0375  0.0891  0.0307
85244W        W86108  11.643  11.311   9.712  0.1337 -0.5010 -0.0332
85245W        W86109  15.773  22.223  25.626  0.0748  0.1724 -0.1145
85246W        W86110   8.779  16.546   6.905 -0.0631  0.2765 -0.1105
85247W        W86111  20.468  24.438  24.970  0.0123 -0.1238  0.2684
85248W        W86112  11.356   7.597  12.091 -0.0675 -0.0061  0.1159
85249W        W86113   6.885   3.078  13.162  0.2490 -0.1345  0.1437
85250W        W86114   2.519  20.230  14.817 -0.1904 -0.1165 -0.0355
85251W        W86115   7.146  13.972  15.834 -0.1350  0.2750  0.1358
85252W        W86116   1.760  21.276  20.600  0.3244 -0.1563 -0.3938
85253W        W86117  16.859  16.759  12.939 -0.2826 -0.0198 -0.2164
85254W        W86118  10.178   9.735  28.215 -0.2280  0.1915  0.3687
85255W        W86119  26.736  11.840  21.935  0.0599 -0.2527 -0.2167
85256W        W86120  28.409  17.043  25.796  0.1373 -0.0566  0.0804
85257W        W86121   9.619   2.764   1.745  0.0295  0.1729 -0.0463
85258W        W86122  17.091  25.381  25.616 -0.1264  0.1076 -0.0762
85259W        W86123   7.809  12.805  27.316  0.3339 -0.0538  0.5541
85260W        W86124   1.107   6.754  11.818 -0.0283 -0.1229  0.2641
85261W        W86125  25.393  27.728   0.467 -0.1563 -0.1171 -0.1528
85262W        W86126  11.085   7.599  22.027  0.0301 -0.3241 -0.1399
85263W        W86127  20.736  12.764  11.520 -0.0463  0.3252  0.2006
85264W        W86128  10.511  17.066   0.632 -0.2068 -0.1086  0.0876
85265W        W86129  17.777  20.634  21.063  0.0496  0.3017  0.0319
85266W        W86130   4.084  22.882  16.691 -0.0724  0.0439  0.1213
85267W        W86131  25.054   3.805  12.994 -0.1361 -0.0721 -0.4513
85268W        W86132   4.373  10.430  18.757  0.2681 -0.5167  0.0302
85269W        W86133   1.791   2.964  20.272  0.0460 -0.2652 -0.1654
85270W        W86134  24.381   9.803   9.084  0.0903  0.0463  0.1186
85271W        W86135  14.543   8.619   8.420 -0.2137 -0.2139 -0.0477
85272W        W86136  19.063   9.882  13.724  0.0776  0.5410 -0.2829
85273W        W86137   0.116  28.370  18.525  0.1322  0.0752 -0.1693
85274W        W86138  22.417  15.048  17.137  0.0058 -0.1319  0.0516
85275W        W86139  14.205   0.540  24.794 -0.2428  0.1145 -0.0088
85276W        W86140   6.107  21.157   1.849  0.0623 -0.4088  0.0438
85277W        W86141   6.307  22.847   7.756 -0.2113  0.0905 -0.1289
85278W        W86142  17.355  16.248  27.142  0.1053  0.1045 -0.2752
85279W        W86143  17.139  29.054  17.784  0.0497 -0.1228  0.1660
85280W        W86144  12.683   4.491  25.165  0.0156  0.1196 -0.0967
85281W        W86145  11.176   6.181  12.447 -0.1832 -0.1616  0.0372
85282W        W86146  10.430  15.843  16.352 -0.1354 -0.3488 -0.1123
85283W        W86147  12.760  23.246  17.153 -0.2320  0.3238  0.3500
85284W        W86148  21.033   0.179  17.745  0.1118  0.3728 -0.1330
85285W        W86149  14.597  25.166  11.157 -0.2815  0.3125  0.0889
85286W        W86150  26.594   9.535  25.296 -0.0519 -0.0298  0.3433
85287W        W86151  11.157  19.981  13.334 -0.0386 -0.2252  0.0531
85288W        W86152   9.437  14.547  16.284  0.2726 -0.4349  0.0779
85289W        W86153  11.257   2.663   7.322  0.1863  0.1014  0.3147
85290W        W86154  14.319  22.679  11.723  0.2498  0.4552 -0.2996
85291W        W86155  22.762  27.417   9.925  0.1565  0.1513  0.0010
85292W        W86156  17.592  17.241  11.621 -0.1298  0.0214 -0.1398
85293W        W86157   0.933   3.208  21.040 -0.0578  0.0735 -0.0993
85294W        W86158  24.860  22.961   0.862 -0.1611  0.1704 -0.2692
85295W        W86159  25.047   8.258   8.585  0.0145  0.1848 -0.2854
85296W        W86160  18.641   6.584  19.826 -0.1284 -0.0047  0.3089
85297W        W86161  18.412  11.379  21.290 -0.1158  0.4666  0.1748
85298W        W86162  23.207  12.431  10.241  0.0202  0.0715 -0.0619
85299W        W86163  22.192  20.187  27.872  0.1196 -0.1597  0.0342
85300W        W86164  11.404  14.163  19.467  0.2112  0.1280 -0.1907
85301W        W86165  28.796   9.093  11.494 -0.3084  0.0528 -0.0457
85302W        W86166   5.598  24.369  22.624 -0.3498 -0.1470 -0.0961
85303W        W86167  10.681  21.155  12.584  0.1705 -0.3771 -0.1520
85304W        W86168   1.704   7.353   3.197 -0.0228  0.1810 -0.1260
85305W        W86169  24.089   4.619  12.628  0.0506 -0.0678  0.0902
85306W        W86170  28.429   5.779  15.311  0.1004 -0.4634  0.2423
85307W        W86171  25.362  16.876  26.191  0.2527  0.1425 -0.1041
85308W        W86172  27.941  19.711  10.595  0.2173  0.1661 -0.3335
85309W        W86173  25.080  26.631  25.463  0.1651 -0.2484 -0.0422
85310W        W86174   6.758  14.846  24.271  0.0251  0.2370 -0.1973
85311W        W86175  19.807   8.650  14.180 -0.0625 -0.1191 -0.1792
85312W        W86176  12.152   5.182  11.806 -0.1206 -0.2315  0.1274
85313W        W86177   1.208   7.182  10.347 -0.4204  0.0933 -0.2598
85314W        W86178  21.423  23.404  20.726 -0.2814  0.0728  0.2015
85315W        W86179  19.878  23.483  21.864  0.1866 -0.3069  0.0269
85316W        W86180   4.013  16.621  17.860  0.3117  0.0474 -0.3670
85317W        W86181   3.133  28.145  21.365  0.1035  0.2248  0.0001
85318W        W86182  11.967  21.335   3.670  0.1221 -0.1745 -0.0301
85319W        W86183   4.648  27.361  26.654  0.1640  0.0425  0.2542
85320W        W86184   9.200   6.735  16.936  0.0951  0.0811  0.1381
85321W        W86185  26.207  24.862  13.176  0.0394 -0.3811 -0.2123
85322W        W86186  15.974  10.384  12.085 -0.2211  0.0318 -0.0577
85323W        W86187  14.016   7.020   5.931 -0.0229 -0.0248  0.0761
85324W        W86188  22.560  24.779  16.138  0.1120 -0.0505  0.2465
85325W        W86189   9.925   3.292  27.539  0.2227  0.0868  0.0696
85326W        W86190   8.430  12.703  12.088 -0.3336  0.0912 -0.2613
85327W        W86191  22.463  15.887  25.066 -0.1026  0.1295  0.0769
85328W        W86192  23.849   5.455  21.251  0.0166 -0.0884 -0.0071
85329W        W86193  17.164  10.583  18.604 -0.2374 -0.3025  0.0514
85330W        W86194   0.920   7.306   5.409  0.0654 -0.1045  0.0728
85331W        W86195  11.664  28.464  19.522 -0.0858 -0.2235  0.4794
85332W        W86196   3.321  13.646  26.201  0.1384  0.0432 -0.0055
85333W        W86197   5.671   8.439  15.657  0.1643  0.1432  0.1563
85334W        W86198  12.374   9.276  20.912 -0.1713 -0.0458 -0.0373
85335W        W86199  14.746  13.334  21.815 -0.0175 -0.1129 -0.3624
85336W        W86200   9.602  10.921  10.979 -0.4410 -0.0949  0.2651
85337W        W86201  24.885  24.460  26.805  0.2820 -0.2360  0.2289
85338W        W86202  19.287  25.868  27.559  0.2422 -0.0388  0.1685
85339W        W86203  19.266  13.292  16.417 -0.1519  0.2389 -0.1613
85340W        W86204  15.957  25.023   0.652 -0.0669 -0.0722  0.2174
85341W        W86205  11.420   3.382   2.680 -0.0698 -0.0540 -0.0669
85342W        W86206  11.728  13.880  14.275 -0.0921 -0.1517 -0.3973
85343W        W86207  25.846   7.171   3.322  0.2559  0.0027 -0.0269
85344W        W86208   6.024  14.747  24.298 -0.1969 -0.0144  0.0785
85345W        W86209   4.105   2.470  10.367  0.0681 -0.0678  0.0086
85346W        W86210  24.383  17.902  25.609  0.0070 -0.0280  0.2908
85347W        W86211  12.377   7.891  20.356  0.1641 -0.0169 -0.4188
85348W        W86212  12.729  13.953  23.196 -0.1551  0.0216  0.3620
85349W        W86213  19.415   5.032  28.921  0.2050 -0.2521  0.0844
85350W        W86214  23.518   9.095  11.939  0.0715 -0.0032 -0.0113
85351W        W86215  16.295   5.464  19.383 -0.0694  0.1132  0.1004
85352W        W86216   8.467  22.553   5.071  0.0651 -0.2087  0.0949
85353W        W86217  13.741  15.810   5.641  0.0197  0.1424 -0.0956
85354W        W86218   9.956  15.991  16.357 -0.2410  0.1116  0.0147
85355W        W86219  21.330  11.512  15.845  0.0604  0.0752  0.0096
85356W        W86220  24.559   7.251  18.922  0.1184 -0.0771 -0.0787
85357W        W86221  15.470   7.689  28.363  0.2092 -0.1502  0.0156
85358W        W86222  21.812   3.067  25.192  0.1485  0.0579 -0.0939
85359W        W86223   8.347  23.505  26.752 -0.2007 -0.2060 -0.1732
85360W        W86224  29.124  10.684  16.072 -0.1089  0.2253  0.0126
85361W        W86225   2.827  24.839  20.928  0.1173 -0.0099  0.1856
85362W        W86226   1.545   8.592  24.980  0.1993  0.3188  0.0218
85363W        W86227  15.579  11.909  20.717 -0.0472 -0.0196 -0.1212
85364W        W86228  13.120   5.067   3.057  0.0426  0.1117 -0.0743
85365W        W86229  14.055   5.336  18.401 -0.0488  0.1579 -0.1678
85366W        W86230  24.698   6.880   1.633 -0.3203  0.1812 -0.0034
85367W        W86231  13.407  12.020   9.090 -0.0008 -0.1097  0.3993
85368W        W86232   7.501  19.432  14.855  0.1836  0.0706  0.0914
85369W        W86233   3.450  28.798   5.239  0.0266 -0.1629  0.0280
85370W        W86234  17.723   2.853   5.976 -0.0096  0.0576  0.0396
85371W        W86235  21.132  13.733  21.414  0.0451 -0.3991 -0.0117
85372W        W86236  18.470  13.199  20.585 -0.1757 -0.0347  0.0677
85373W        W86237  26.551   8.336   4.578 -0.1481  0.1900 -0.3907
85374W        W86238  17.261  10.852   3.486 -0.0219  0.1601  0.1444
85375W        W86239  22.805  16.773   6.781  0.2152  0.2167  0.2321
85376W        W86240  19.862   8.125  19.267 -0.0946 -0.0748  0.0182
85377W        W86241  25.728  17.448  27.916 -0.0353  0.2785 -0.0127
85378W        W86242  25.464  14.266   9.860 -0.2074  0.2148  0.2077
85379W        W86243   1.072  13.304  21.964  0.1218  0.2066 -0.1392
85380W        W86244   6.093   3.812   2.662  0.2981 -0.0243 -0.1674
85381W        W86245   3.714  16.407  25.902 -0.0435  0.0567  0.1227
85382W        W86246  19.650   8.399  21.543  0.0466  0.1223  0.0739
85383W        W86247   0.378  18.486   3.464 -0.1939 -0.3554  0.3607
85384W        W86248  24.786  28.757  20.843  0.3191 -0.3522 -0.0828
85385W        W86249  15.155   3.722   5.242 -0.3417 -0.0523  0.1974
85386W        W86250  16.808  28.851  14.566  0.0423  0.1597  0.2762
85387W        W86251  12.188  10.853  21.220 -0.0008  0.0964 -0.2167
85388W        W86252  19.746  26.931  16.771 -0.1817  0.0507 -0.2097
85389W        W86253   8.162  12.341   6.922  0.3418  0.2034  0.1013
85390W        W86254  23.908   0.330  16.598  0.0772 -0.1328  0.0279
85391W        W86255  16.738   2.059  24.515 -0.1193  0.1677  0.2189
85392W        W86256  20.325  26.870  25.461  0.0413 -0.3645 -0.0165
85393W        W86257  23.723  20.511  25.081  0.0144  0.0563  0.1640
85394W        W86258  24.854  26.946  17.902 -0.1474 -0.2526 -0.1459
85395W        W86259  14.492  12.471  24.228  0.0836 -0.0941 -0.0682
85396W        W86260  11.965  12.069  11.507  0.1052  0.0423 -0.0642
85397W        W86261  26.885   9.980  20.156  0.0800 -0.3875 -0.0235
85398W        W86262   9.394  12.749  18.814  0.0187 -0.0840  0.0885
85399W        W86263  17.567  13.632  14.726 -0.1397 -0.0378  0.0290
85400W        W86264  11.693   2.159  10.423  0.2595 -0.1089  0.1961
85401W        W86265  10.687  18.444  24.694 -0.3654  0.0062  0.2740
85402W        W86266  12.016  22.803  21.413 -0.0901 -0.0789  0.2031
85403W        W86267   5.191   9.878  28.713 -0.4128  0.0285 -0.0983
85404W        W86268  12.956   6.910  24.855 -0.2725  0.0890  0.1981
85405W        W86269   2.213   8.724  24.362  0.2389 -0.0093  0.0505
85406W        W86270   5.299  27.311   2.931 -0.0265 -0.1692 -0.0739
85407W        W86271   7.182  15.148  28.558  0.1810  0.1319 -0.2114
85408W        W86272  18.878   9.840  12.447  0.0204 -0.2077  0.1274
85409W        W86273  21.237   6.247  23.080  0.0078 -0.0849  0.0164
85410W        W86274  10.263  15.194   9.081  0.0740 -0.2127 -0.0428
85411W        W86275  21.119   9.195  21.003  0.0341  0.1480  0.2615
85412W        W86276  24.874  26.080   3.641 -0.1481  0.0108 -0.0825
85413W        W86277  17.334   1.560   0.639 -0.0268  0.4567 -0.0875
85414W        W86278  28.725  22.429  20.546  0.0622  0.2333  0.1605
85415W        W86279  10.070   3.198  25.143 -0.3435  0.1490 -0.2779
85416W        W86280  25.655   8.462  13.615 -0.2035  0.1121 -0.0719
85417W        W86281   8.428  11.250  24.200  0.0408  0.0333  0.1220
85418W        W86282  10.996   7.525   8.498  0.3880  0.1301 -0.5400
85419W        W86283  23.241   6.116  25.507  0.0153 -0.0893  0.1861
85420W        W86284   4.545  28.507  23.657  0.0565  0.0971  0.1104
85421W        W86285  27.432  12.496  17.356  0.1890  0.0065  0.0474
85422W        W86286  11.666   4.417  17.645 -0.0559 -0.0379 -0.1536
85423W        W86287  12.393  11.493  18.880  0.1053 -0.1276  0.0843
85424W        W86288   2.627   3.888  21.114  0.1385 -0.0466  0.0761
85425W        W86289  20.162  16.320  17.208  0.0845  0.2434  0.0173
85426W        W86290  19.823  15.463   4.573  0.3746 -0.0813  0.2861
85427W        W86291   6.180  14.306  19.859  0.0505  0.3336  0.1466
85428W        W86292  19.328   8.248  26.132 -0.3419 -0.3559 -0.0570
85429W        W86293  14.768  16.476  10.417 -0.1007  0.0503  0.3801
85430W        W86294  24.869   8.346  22.113  0.0890 -0.0060  0.0131
85431W        W86295   8.424  17.482  14.813 -0.1887 -0.4383  0.0857
85432W        W86296  10.321  14.725   4.465 -0.0605  0.1295 -0.0442
85433W        W86297   6.213  14.054  19.186  0.1193 -0.0869 -0.0651
85434W        W86298   0.403   2.301   2.768 -0.0938 -0.1541 -0.2598
85435W        W86299   2.382   7.523  18.818 -0.0181  0.1973 -0.1642
85436W        W86300  15.539  14.218  23.970 -0.2061  0.3649 -0.1662
85437W        W86301  19.077   6.013  20.622 -0.1828  0.2114 -0.0445
85438W        W86302   2.056  13.116   0.034  0.0409 -0.0789 -0.2185
85439W        W86303  17.452   5.722  11.340 -0.3009  0.5228 -0.1695
85440W        W86304  24.233  12.027  21.235 -0.0061 -0.1996  0.3084
85441W        W86305  28.654   5.938  20.045 -0.0407 -0.0989 -0.3112
85442W        W86306  11.606  15.626   6.916 -0.5364  0.1573  0.5123
85443W        W86307  27.978  28.569  18.399 -0.1436  0.0366 -0.3549
85444W        W86308  24.438  20.691  16.249  0.0028 -0.3277 -0.1239
85445W        W86309  15.342   1.809  19.898 -0.1528 -0.0003 -0.1858
85446W        W86310  11.559  20.339   9.526 -0.0509  0.0457 -0.1407
85447W        W86311   0.650   3.593  10.354 -0.1326 -0.2581  0.1821
85448W        W86312   6.891  13.139  25.626  0.2063  0.0448 -0.0517
85449W        W86313   6.163  29.007   1.145 -0.4057  0.1583 -0.0686
85450W        W86314   5.342   6.612  19.537  0.1965 -0.0314 -0.2130
85451W        W86315  15.574  14.827   2.644  0.2167  0.1483 -0.0328
85452W        W86316  23.739  27.986  21.516 -0.1390 -0.0430  0.0396
85453W        W86317  23.329  12.048  16.871  0.0206  0.2686 -0.0260
85454W        W86318   3.370   2.728  21.770 -0.0372 -0.3784  0.1075
85455W        W86319  28.245  22.475  16.225  0.2029 -0.0412  0.1616
85456W        W86320  15.649  29.139  24.613  0.1102  0.0397  0.1332
85457W        W86321  25.388  23.661  13.525  0.0415  0.2663 -0.0232
85458W        W86322   5.337   2.251   7.057  0.0106 -0.1685  0.2150
85459W        W86323  17.371  10.267   4.145  0.2816 -0.0108  0.2561
85460W        W86324  28.823   4.686  20.042 -0.0869  0.0042  0.1053
85461W        W86325   2.952  13.770  11.498 -0.0213  0.3465 -0.0373
85462W        W86326  10.847   9.680  10.752 -0.3238 -0.0017  0.0613
85463W        W86327   0.811  11.124  20.403  0.0713  0.3905 -0.1483
85464W        W86328  19.665   2.521  19.138  0.0929  0.0982 -0.3969
85465W        W86329  21.532  13.636  13.621  0.1918 -0.1714  0.1919
85466W        W86330  11.296  13.765  19.730 -0.1434  0.1444  0.0296
85467W        W86331  17.335   7.796  22.159  0.1537  0.2334  0.0983
85468W        W86332   2.268   4.193  18.188 -0.1563 -0.2318 -0.3348
85469W        W86333   5.233   6.094  20.554 -0.1176 -0.1199 -0.1377
85470W        W86334  11.354  21.809  12.327  0.0601  0.1993  0.3538
85471W        W86335  14.435  15.855   7.507  0.4220  0.0475 -0.0098
85472W        W86336   7.113  25.119   4.105 -0.1619  0.0339 -0.0540
85473W        W86337   9.712  23.186  22.638  0.1137  0.1229 -0.1898
85474W        W86338   8.872  12.567  14.123  0.2325 -0.0724 -0.1091
85475W        W86339   3.062  19.222  22.847 -0.0490 -0.0409  0.4051
85476W        W86340   8.990  18.051  24.111 -0.2782 -0.0784 -0.0882
85477W        W86341  15.386   4.982  27.222  0.0580  0.1218  0.2031
85478W        W86342  11.366  26.241   8.274 -0.1014  0.1739 -0.4249
85479W        W86343  16.353   9.214  14.652 -0.2408 -0.2817  0.2412
85480W        W86344  12.213  24.923  10.695  0.3437  0.0449  0.0003
85481W        W86345  22.382  16.640  14.975  0.1002  0.2525 -0.0242
85482W        W86346   0.989   9.993   0.732  0.1156 -0.1206 -0.0345
85483W        W86347  18.880   3.019  12.923 -0.2111 -0.0825 -0.3512
85484W        W86348  23.453  13.695  18.842  0.2321 -0.1815  0.1378
85485W        W86349  11.396   0.077  12.388 -0.2592 -0.0481 -0.0732
85486W        W86350  11.376  20.388  18.229  0.2905  0.2417 -0.0090
85487W        W86351  16.598  22.317   1.473 -0.1934 -0.0882 -0.0162
85488W        W86352   5.367   8.123  25.889 -0.0138 -0.2714  0.2023
85489W        W86353   7.858  17.239  21.185 -0.0001 -0.0535 -0.0518
85490W        W86354  24.647  12.851  12.819 -0.0630 -0.2541 -0.0477
85491W        W86355  21.589  10.851  20.937  0.0309 -0.0995 -0.1279
85492W        W86356  12.509  17.145  12.075  0.2226  0.2059 -0.0047
85493W        W86357  28.893   6.613  13.557 -0.1577  0.3489  0.1590
85494W        W86358  26.544   8.283  22.209  0.1782 -0.0755  0.1444
85495W        W86359  18.578  16.219  18.012  0.0335  0.1463  0.1065
85496W        W86360  15.211   4.717  19.875 -0.0451  0.1959 -0.4043
85497W        W86361  28.479  11.871  24.568 -0.0070 -0.3260 -0.3447
85498W        W86362  22.294   0.101   1.644 -0.2191 -0.0814  0.1594
85499W        W86363  21.954  27.392  21.689  0.1104  0.4294  0.2214
85500W        W86364   6.781   9.041  24.538 -0.0780 -0.1811  0.3163
85501W        W86365   4.858   2.956  16.859 -0.2409 -0.0629  0.1558
85502W        W86366   5.354  18.397  10.266 -0.3187  0.3021 -0.2508
85503W        W86367  19.348  22.672  17.799 -0.2349 -0.6056 -0.0279
85504W        W86368   2.643   9.150  15.636 -0.2824  0.0328  0.1845
85505W        W86369   8.315   8.249  19.545  0.1237  0.1241 -0.1473
85506W        W86370  28.310   7.408  18.825  0.0662 -0.0091  0.2491
85507W        W86371  24.560  25.919  13.305 -0.3501 -0.2984  0.1505
85508W        W86372  26.561   0.462  27.133 -0.0033  0.0822 -0.0340
85509W        W86373   6.275  20.488  22.268 -0.0626 -0.2420  0.0800
85510W        W86374   8.395  12.563   4.899 -0.2556 -0.0358 -0.0774
85511W        W86375  18.641   1.438  24.457 -0.1727  0.0891  0.0817
85512W        W86376  17.331  25.137   0.027 -0.2164 -0.2399  0.1501
85513W        W86377  24.161  26.566   1.122  0.1508  0.1287  0.0284
85514W        W86378  19.505   7.110  20.842 -0.1909  0.0225 -0.2692
85515W        W86379  17.213   4.883   0.287 -0.2450 -0.0231  0.1231
85516W        W86380  15.016  22.404  20.884 -0.5597  0.0697 -0.2219
85517W        W86381   9.269  12.411  22.004 -0.2578 -0.1018  0.2077
85518W        W86382  25.684  15.216  24.540  0.0843 -0.0628 -0.0188
85519W        W86383  19.500   2.746  15.770  0.1810  0.1811  0.0607
85520W        W86384  11.338  26.175  26.243 -0.2380  0.0639  0.3037
85521W        W86385  10.150   6.658  18.679  0.1457 -0.2250  0.1109
85522W        W86386   1.281  28.720  10.447  0.3509  0.0032 -0.0242
85523W        W86387   5.547  23.957  20.343  0.2804 -0.2598 -0.2209
85524W        W86388  22.986   8.116  15.296 -0.3606 -0.0191 -0.0765
85525W        W86389  21.844  14.195  14.760  0.1567  0.2235 -0.2180
85526W        W86390  16.507   1.345  25.798 -0.0560 -0.1425  0.0356
85527W        W86391   1.013  17.149   1.721  0.1299 -0.0487  0.1578
85528W        W86392   4.730  15.051   7.089  0.4023 -0.4975 -0.2201
85529W        W86393   8.235  13.253   4.294 -0.0659 -0.1092  0.2580
85530W        W86394  28.896  20.108   0.170  0.0714  0.1643 -0.4723
85531W        W86395  25.731  12.836  28.318 -0.2999 -0.2601 -0.0710
85532W        W86396   9.231  16.234  19.710 -0.0013  0.0648 -0.0326
85533W        W86397  18.223  13.821  28.964  0.0489  0.1363  0.4281
85534W        W86398  23.695  24.206   1.808  0.1585 -0.3163  0.1486
85535W        W86399  14.911   4.087  26.933  0.0600  0.1673  0.3803
85536W        W86400  27.664   7.238  14.919  0.1902  0.0327 -0.0347
85537W        W86401  24.939  18.152  10.769  0.4432  0.0424 -0.0650
85538W        W86402   3.472   6.486  27.321 -0.1545  0.1367 -0.0534
85539W        W86403  11.977   9.659  23.082  0.0205 -0.1200 -0.1311
85540W        W86404  13.896  28.355  26.426  0.1878  0.1591 -0.0615
85541W        W86405  18.713   3.075  19.119 -0.0363 -0.3212 -0.1353
85542W        W86406   6.135  26.175  21.847  0.0970 -0.2998  0.0028
85543W        W86407   6.783  17.732   1.539 -0.0558 -0.0718  0.0619
85544W        W86408  11.987   4.393  28.957  0.0141  0.0808  0.0153
85545W        W86409  16.571   3.711  15.185  0.1365 -0.0838 -0.1903
85546W        W86410   8.949  10.592  21.864  0.0038 -0.3092  0.0003
85547W        W86411   4.492   9.788   3.552 -0.3495 -0.1161  0.1168
85548W        W86412  24.078   7.477   3.922  0.0042  0.3106 -0.1764
85549W        W86413   6.346  21.734   4.352 -0.2147 -0.0065  0.0574
85550W        W86414   6.421   0.018  13.637  0.1367  0.0869 -0.0506
85551W        W86415  14.351  18.756   9.181 -0.4714  0.1437  0.1387
85552W        W86416   3.894  26.543   9.738  0.1159 -0.2505 -0.2361
85553W        W86417   9.690  14.149  23.888  0.2218  0.1288 -0.0211
85554W        W86418   8.962  15.594   5.267  0.1190  0.0096 -0.2546
85555W        W86419  10.696  13.385  29.130 -0.3250 -0.0550 -0.0458
85556W        W86420  24.013   6.413  28.881  0.0565 -0.1022 -0.3802
85557W        W86421   6.797   7.478   7.872  0.0178  0.2954  0.1219
85558W        W86422  26.263  15.642  10.188  0.0392  0.0802 -0.3371
85559W        W86423  16.708  25.711   0.632  0.0157 -0.0378  0.2390
85560W        W86424  17.049   8.260  28.828  0.0069  0.0319 -0.1884
85561W        W86425  11.429  27.598  12.305  0.0981 -0.1104  0.3513
85562W        W86426   7.364  19.301  17.447  0.0052  0.3766 -0.1975
85563W        W86427  15.103  28.670   2.023 -0.0374 -0.4821  0.0467
85564W        W86428   8.124   9.199   5.338  0.1448  0.0335  0.0116
85565W        W86429   7.965   1.726  26.556 -0.1139 -0.3411 -0.3390
85566W        W86430   4.391  23.807  12.386  0.1139  0.0730 -0.1975
85567W        W86431  18.762  27.314   5.354 -0.1124 -0.0332  0.0549
85568W        W86432   5.531   9.026  16.294  0.0725  0.4320 -0.2644
85569W        W86433   1.727   9.750  14.144 -0.2420  0.2472 -0.4230
85570W        W86434  22.238   5.372   0.217  0.3851 -0.1208  0.1471
85571W        W86435  25.557  18.979  20.545 -0.0242 -0.1646 -0.1051
85572W        W86436  16.545  23.407   3.292  0.0631  0.1566 -0.3934
85573W        W86437  18.489  22.314  26.160  0.2128 -0.3302 -0.0061
85574W        W86438   9.192  13.782  21.739 -0.0334 -0.2902 -0.1794
85575W        W86439  13.879   0.696   0.092  0.1114  0.1865  0.0946
85576W        W86440  16.969  21.999   1.705  0.2907  0.2298  0.2324
85577W        W86441  25.778  17.407  24.092 -0.3675  0.1735 -0.0125
85578W        W86442  14.624   3.418  22.014  0.2511  0.0547 -0.0919
85579W        W86443  16.457  13.837  28.102  0.1008 -0.0657 -0.0894
85580W        W86444   5.745  14.312  17.258 -0.0057 -0.2205  0.1867
85581W        W86445   1.201  12.311  10.624 -0.5084  0.1972 -0.1162
85582W        W86446  17.351  27.714  25.922  0.0393 -0.0562  0.0307
85583W        W86447  22.936  14.036  28.136 -0.1059  0.1939  0.0288
85584W        W86448   7.385  24.103   7.686 -0.2446  0.2550 -0.0103
85585W        W86449  21.242  10.980  29.105  0.1552 -0.1647 -0.0171
85586W        W86450  21.267  25.675  18.215 -0.0092  0.5106 -0.3574
85587W        W86451   0.896  17.949  11.515 -0.4959  0.0579  0.2790
85588W        W86452  28.331  27.676  22.089  0.2087 -0.0635  0.0181
85589W        W86453   4.442  14.063  19.083  0.4137 -0.2514  0.2112
85590W        W86454  18.928  10.931  27.621 -0.0887 -0.1907 -0.0791
85591W        W86455  17.033   6.647  17.113  0.1840 -0.0723  0.1236
85592W        W86456  16.755  10.978   5.725 -0.0923 -0.3898  0.0853
85593W        W86457   4.721  25.385  22.234 -0.1772 -0.0164 -0.0132
85594W        W86458  28.706  20.457  25.369  0.0087 -0.0341  0.0935
85595W        W86459  14.899  14.475   4.712 -0.2003 -0.1727 -0.1160
85596W        W86460   4.562  14.247  18.376  0.1023 -0.1643  0.1750
85597W        W86461  18.739  10.934   9.032 -0.0986 -0.0710 -0.4391
85598W        W86462   6.056  12.547   2.061 -0.0117  0.0375 -0.2541
85599W        W86463   6.543  15.712   9.071 -0.0226  0.1784 -0.0299
85600W        W86464  11.853  13.282   1.422 -0.0051  0.0709 -0.2125
85601W        W86465  19.979  23.422   7.312  0.2305 -0.1352 -0.4295
85602W        W86466  16.500   6.165  26.302 -0.0076 -0.0212  0.3529
85603W        W86467  17.716  12.885  19.650  0.0657  0.1097  0.0505
85604W        W86468   4.398  27.420  14.156  0.0104 -0.0129 -0.0953
85605W        W86469  28.692  27.056  17.777 -0.2849  0.0337  0.2071
85606W        W86470   7.970   4.078  21.293  0.0741  0.5294  0.0883
85607W        W86471  11.174  28.225  13.386 -0.1879 -0.0810 -0.0225
85608W        W86472  16.559   0.933  27.081 -0.1174 -0.1133  0.1212
85609W        W86473  28.130  14.586   4.445 -0.2132  0.1093 -0.1996
85610W        W86474   9.066   6.049  25.756 -0.1566 -0.0001  0.0687
85611W        W86475  10.268   8.601  22.335  0.3160 -0.1350  0.0935
85612W        W86476  27.211   1.980  19.971  0.1258 -0.5238  0.0843
85613W        W86477  18.935  28.815  17.334  0.1964  0.1035 -0.1184
85614W        W86478  14.318   5.655   7.313 -0.0116 -0.1686 -0.4124
85615W        W86479  24.497  20.158  19.127 -0.1043 -0.0845 -0.2387
85616W        W86480   6.590  10.226   8.022 -0.3211 -0.2062 -0.2887
85617W        W86481   9.676  19.157  12.348 -0.3673  0.0537  0.1601
85618W        W86482  15.921   3.141  24.307 -0.0815  0.3164  0.0269
85619W        W86483  28.549  20.148  23.732  0.1011 -0.1331  0.0043
85620W        W86484  21.902  12.431   2.945  0.0101 -0.1318 -0.1019
85621W        W86485  29.020  22.883  21.090  0.2242  0.1884  0.2505
85622W        W86486   3.718   4.429  14.352  0.2583  0.1398 -0.2420
85623W        W86487  13.591  24.854  15.246 -0.3918  0.0316  0.1476
85624W        W86488   9.506  11.557  14.968 -0.2095  0.0309  0.0018
85625W        W86489  11.960  17.095   2.767  0.1148  0.3025  0.0902
85626W        W86490  23.809  15.731   1.572 -0.2466  0.0899  0.0809
85627W        W86491   1.956  24.792   0.153  0.0105 -0.0064 -0.0473
85628W        W86492  10.912  26.838  27.865  0.0227 -0.3339 -0.1237
85629W        W86493  18.570   9.212  23.961 -0.3326  0.0697 -0.2118
85630W        W86494  10.977   9.162  21.052 -0.1292  0.1289 -0.3074
85631W        W86495   5.013   1.336  22.492  0.1308 -0.3464 -0.0670
85632W        W86496  17.809  26.336  10.947 -0.0034  0.1838  0.0185
85633W        W86497  15.561   2.391   4.198  0.0019  0.2270 -0.3526
85634W        W86498  28.357  13.621   0.528  0.0105 -0.0530 -0.0986
85635W        W86499  14.725   4.791   1.022 -0.1479 -0.1374  0.0581
85636W        W86500  20.389  26.922   0.049 -0.3468  0.0470  0.2909
85637W        W86501  11.472  10.801  13.409 -0.1033  0.2700 -0.2041
85638W        W86502  23.373  11.755   9.986  0.0445  0.1338 -0.0122
85639W        W86503   8.065   2.835  21.659  0.0199 -0.0195  0.1112
85640W        W86504  28.166   9.105   9.955  0.1282  0.0195  0.0775
85641W        W86505  23.770  22.133  17.606 -0.1602  0.3378 -0.2594
85642W        W86506  21.787  10.309  12.434  0.0243 -0.0835 -0.0537
85643W        W86507  15.202   1.429   0.203  0.2803  0.0914 -0.1664
85644W        W86508  23.177   3.013  19.863  0.2378 -0.1244 -0.1704
85645W        W86509   3.883  12.512   0.023 -0.0490  0.0048  0.1730
85646W        W86510  15.639   4.665   2.264  0.3394 -0.3446  0.1745
85647W        W86511  20.822  11.248  27.108 -0.0579 -0.0147 -0.1998
85648W        W86512   2.662  13.160  24.635  0.2028  0.2667 -0.0802
85649W        W86513  15.051  17.349  22.884  0.1280 -0.1091 -0.1240
85650W        W86514   6.411  11.407  27.713  0.0467  0.1356  0.1174
85651W        W86515  18.003  11.733  10.748  0.0364  0.1640  0.3793
85652W        W86516  14.865   6.466  15.365 -0.4210  0.2637 -0.0756
85653W        W86517  28.749   5.110  12.854 -0.1471  0.0004 -0.0924
85654W        W86518  27.571  17.022  24.240  0.2817 -0.2402 -0.3531
85655W        W86519  11.465  11.845  15.555  0.1687 -0.2403  0.1711
85656W        W86520   7.632  10.954  18.249  0.1977  0.0210  0.2806
85657W        W86521   2.129  23.431  14.072  0.0156 -0.1191 -0.0575
85658W        W86522   4.439   6.228  22.079  0.2137 -0.0308  0.4393
85659W        W86523  20.081  23.048  22.907 -0.2186  0.2258 -0.2467
85660W        W86524   1.249   8.028  28.367 -0.0190  0.0580 -0.0735
85661W        W86525  17.067  14.351  11.620  0.3309  0.2148 -0.0422
85662W        W86526   9.530  15.335  17.241 -0.2097  0.0779  0.0435
85663W        W86527   6.844   6.570  15.631  0.0430 -0.0391 -0.0193
85664W        W86528  15.776  19.046  16.734  0.1477  0.2030  0.1157
85665W        W86529   1.134  19.944  21.290  0.0281 -0.1544 -0.2745
85666W        W86530   7.896   1.201   4.828  0.1282 -0.0612  0.4019
85667W        W86531   6.692  18.884  26.213  0.1847  0.1001 -0.0012
85668W        W86532   9.132   5.477   7.091 -0.1579  0.0021  0.1289
85669W        W86533  22.409  20.762  16.044  0.0684  0.3096  0.0932
85670W        W86534  23.264  14.428   0.465 -0.0634  0.2868 -0.0983
85671W        W86535   0.897   7.979  24.660 -0.3611  0.2406 -0.0015
85672W        W86536  17.309   4.253  20.269  0.0752  0.3899 -0.2152
85673W        W86537  17.477  26.029  26.164 -0.1998 -0.3866  0.2778
85674W        W86538  19.031   6.702  19.383 -0.4030  0.1113  0.2752
85675W        W86539  11.418   6.107  18.811 -0.0757 -0.1340 -0.0794
85676W        W86540  10.307  13.989  22.302  0.1778 -0.0895 -0.0016
85677W        W86541  28.228  18.123  17.196  0.0939 -0.0958 -0.5144
85678W        W86542  18.722  22.132   4.315  0.0613 -0.1127 -0.0367
85679W        W86543   5.159  27.924   6.423  0.0487  0.3754 -0.1736
85680W        W86544  11.638  22.076   3.378  0.1025  0.0685  0.0072
85681W        W86545  28.395   0.731   3.531  0.2108  0.1689  0.0982
85682W        W86546  13.113  15.419   2.891 -0.1127  0.1040  0.1793
85683W        W86547  20.362   3.807  11.768 -0.1308 -0.1736 -0.0662
85684W        W86548  14.307  25.630   1.036 -0.2093 -0.0154  0.3391
85685W        W86549  26.207  12.652  23.887  0.2006  0.1818 -0.1730
85686W        W86550  19.654   7.611  22.060 -0.1990 -0.1415  0.0002
85687W        W86551  28.846  11.569  25.221  0.0432  0.0678 -0.1797
85688W        W86552   7.594  27.096  10.717 -0.0609  0.0171 -0.0807
85689W        W86553  11.833   9.838  28.923 -0.0875 -0.3475  0.4459
85690W        W86554   9.523  15.383  24.934 -0.0357 -0.0928  0.1333
85691W        W86555  18.063   6.049  16.285  0.0602 -0.0088 -0.0321
85692W        W86556  14.741  21.644   7.651  0.1426  0.1348 -0.0639
85693W        W86557  16.909   5.997  23.108  0.0724 -0.1483  0.3757
85694W        W86558  18.666   2.432  23.173  0.1398 -0.0968  0.2584
85695W        W86559   7.027  24.098  19.389  0.3841 -0.2279 -0.0465
85696W        W86560  11.832   6.230  10.233  0.2283  0.1017  0.0670
85697W        W86561   2.849  13.080   9.851 -0.1460  0.2494  0.0258
85698W        W86562  26.279  25.355   6.205  0.2511 -0.1213 -0.1819
85699W        W86563  27.666   3.699   8.864  0.0851  0.0386 -0.1406
85700W        W86564  28.681   8.859   1.427  0.1784  0.1311  0.2541
85701W        W86565  19.348  11.074  16.961  0.0449 -0.0332 -0.2873
85702W        W86566   7.819  11.295  18.515 -0.0440 -0.3890  0.1427
85703W        W86567  10.248  14.628   8.729  0.0233  0.1793 -0.1033
85704W        W86568   2.927   4.439   9.524 -0.3156 -0.2264  0.0866
85705W        W86569   3.471   2.014   3.473 -0.2286 -0.2037 -0.0565
85706W        W86570  17.548  27.146   9.415 -0.2807  0.0850 -0.0462
85707W        W86571  18.957   8.074  23.972 -0.0224  0.1462  0.2033
85708W        W86572  15.339  17.696  25.481 -0.2665 -0.1020  0.1794
85709W        W86573  18.599  23.361  26.820 -0.0647 -0.2510  0.0114
85710W        W86574  17.396   8.917  12.559 -0.2520  0.0496 -0.0840
85711W        W86575  26.395  13.685  26.992  0.3419 -0.0810 -0.3878
85712W        W86576  12.897  13.291  16.649  0.1878 -0.0149  0.2159
85713W        W86577  12.536   5.792  22.141 -0.0805 -0.1863 -0.3548
85714W        W86578  21.993  20.558  17.528  0.0737 -0.1137  0.0376
85715W        W86579  22.082   0.374   6.989  0.0016  0.3068 -0.2655
85716W        W86580  16.121  12.707  12.929  0.1958  0.2270  0.2424
85717W        W86581  22.376  17.647  18.001  0.6061 -0.2447 -0.2049
85718W        W86582  11.095  12.213  14.544 -0.0194 -0.2621 -0.0704
85719W        W86583  18.685   1.626  14.007 -0.1889 -0.0170 -0.0088
85720W        W86584  25.309   6.367  12.187  0.1536 -0.0746 -0.3420
85721W        W86585   1.033   5.548  22.590  0.1776 -0.1842 -0.1761
85722W        W86586  11.303  12.761  18.193 -0.0048  0.2938  0.0685
85723W        W86587  23.642  21.196  17.421 -0.2742 -0.0281 -0.0700
85724W        W86588  13.967   2.371  28.196  0.2136  0.0797  0.1187
85725W        W86589  10.649  28.086  22.544 -0.0376  0.1953 -0.0703
85726W        W86590  25.705  19.507  28.580  0.2306  0.1834  0.0257
85727W        W86591   5.545  20.069  23.234 -0.2234 -0.0330  0.2682
85728W        W86592  12.168   5.384   6.882  0.0467 -0.0172  0.1007
85729W        W86593  25.052  25.325  14.542  0.0546  0.1081  0.0109
85730W        W86594  23.021   3.339  23.935 -0.1397 -0.1970  0.1909
85731W        W86595  17.834   2.254  23.479 -0.4276 -0.0845 -0.1504
85732W        W86596  10.407  20.334  24.094 -0.0693 -0.0236 -0.2501
85733W        W86597  14.485  27.575  14.676  0.1467 -0.1974  0.1898
85734W        W86598   8.412   5.210   1.263  0.1279 -0.3184  0.1396
85735W        W86599  26.203  28.849  28.376  0.1809  0.2394  0.1127
85736W        W86600   8.636  20.710  17.310  0.0430  0.0295  0.2440
85737W        W86601  15.264   3.680  17.177 -0.0789 -0.1405  0.0568
85738W        W86602  20.869  13.512   0.793  0.0737 -0.0890  0.2530
85739W        W86603  14.830  16.242  26.368 -0.0156  0.3212 -0.2283
85740W        W86604  16.337  23.224  11.517  0.1378  0.0685  0.1798
85741W        W86605   2.988   6.316   9.528  0.0601  0.0651 -0.0304
85742W        W86606  14.332  22.807  28.238 -0.1184 -0.0707 -0.1027
85743W        W86607  28.065  11.509  24.887  0.0626 -0.0051 -0.1421
85744W        W86608   1.713  19.424  24.754 -0.0236 -0.2770  0.1853
85745W        W86609  15.150  21.898   2.952  0.1760 -0.0806  0.0068
85746W        W86610  13.550   5.187  23.272 -0.4725  0.4356  0.1356
85747W        W86611  13.489  29.042  17.636 -0.1749 -0.0905 -0.0778
85748W        W86612  21.316  15.658  27.678 -0.3248 -0.0161  0.0268
85749W        W86613  16.429  24.513  13.994  0.0494  0.0834  0.0073
85750W        W86614  28.386  12.908  26.612 -0.0035 -0.0651  0.0572
85751W        W86615  14.801  27.154  27.132 -0.2162 -0.2134 -0.0386
85752W        W86616   7.058   5.455   9.476  0.1341  0.0573 -0.2677
85753W        W86617   8.400  27.278  26.443 -0.0383 -0.0745  0.2562
85754W        W86618   0.943  25.211  28.640  0.1632  0.0530  0.0950
85755W        W86619   4.690  11.397  19.798 -0.1396 -0.1897 -0.0384
85756W        W86620  29.103  28.660  25.839  0.0025  0.1010  0.0171
85757W        W86621  10.520   6.170  26.050 -0.1080  0.0714 -0.0687
85758W        W86622  13.725   9.661  28.531 -0.2696 -0.0666  0.3012
85759W        W86623  21.922   2.729   3.833 -0.3377 -0.0025 -0.0438
85760W        W86624   5.157  19.550  17.828 -0.1289 -0.0324  0.0225
85761W        W86625  25.016  28.675   4.671  0.1499 -0.0711  0.2797
85762W        W86626   8.261  16.121  17.781 -0.2285  0.0129 -0.0749
85763W        W86627  16.154  11.260   3.202  0.1171 -0.0048  0.1110
85764W        W86628   3.060  11.098  19.022 -0.0743 -0.2584 -0.1463
85765W        W86629  26.422  18.057  20.644 -0.3100  0.1626  0.2408
85766W        W86630  24.710  21.898  14.920 -0.2279  0.1323 -0.0737
85767W        W86631  19.565   7.357  25.068 -0.0945  0.4191 -0.0979
85768W        W86632  16.397  18.595  11.127  0.2523  0.0698  0.1611
85769W        W86633  10.363   7.421  23.378 -0.1937  0.3210 -0.2760
85770W        W86634   8.969  14.952   2.253  0.0541  0.2228 -0.1990
85771W        W86635   1.049   3.613  21.960  0.0625  0.0273 -0.1261
85772W        W86636  20.496   5.306   3.329 -0.1770  0.1678  0.1947
85773W        W86637   1.597  23.386  24.379 -0.1071 -0.0474 -0.0227
85774W        W86638  20.251  14.393  19.483 -0.1354 -0.0293 -0.4172
85775W        W86639   7.584   6.187  19.846  0.0821  0.1211  0.2182
85776W        W86640  13.159  27.369   4.437 -0.1047  0.2553  0.0975
85777W        W86641  26.153  28.865   9.420 -0.1556 -0.1307  0.2245
85778W        W86642  25.868  27.751  21.011  0.1446 -0.1297  0.2110
85779W        W86643   8.059  28.806  16.468  0.2415 -0.1103  0.0907
85780W        W86644  14.101   4.853  25.242  0.1189  0.4636  0.0863
85781W        W86645  17.109   5.524  24.335 -0.0664  0.0957 -0.1850
85782W        W86646  24.018  24.970  24.337  0.6639 -0.1122 -0.0180
85783W        W86647  23.442  10.814   0.012  0.1178 -0.1660 -0.3745
85784W        W86648  23.967  15.795  22.605  0.0638 -0.2432 -0.0185
85785W        W86649  14.809   8.249  27.094  0.3092  0.0695  0.2076
85786W        W86650  28.104   4.838   3.387 -0.1193 -0.0523  0.1443
85787W        W86651  18.895  27.722   1.355 -0.3781  0.2312  0.0162
85788W        W86652   9.781  14.010  13.647  0.0565 -0.2746  0.2943
85789W        W86653  11.206   5.691   3.012 -0.2794 -0.2914  0.0048
85790W        W86654   3.182  28.229  10.833 -0.2874  0.0884  0.3619
85791W        W86655  19.781   9.171  15.853  0.0734  0.0557 -0.2182
85792W        W86656  16.536  16.268  14.891 -0.0925 -0.0798  0.1051
85793W        W86657  14.006   5.262  22.164  0.1876  0.3370  0.0393
85794W        W86658  17.479  14.257  11.244 -0.3192 -0.3092 -0.0723
85795W        W86659  18.063  29.028   8.768  0.0480 -0.0874  0.5069
85796W        W86660  17.977  15.001   5.724 -0.0364  0.2085 -0.0103
85797W        W86661  15.514  11.639   4.250  0.0158  0.0046 -0.2479
85798W        W86662  15.697  11.222   9.421 -0.0118  0.1115  0.0552
85799W        W86663   4.061  18.644  28.035 -0.0401 -0.1871  0.1176
85800W        W86664  18.481  11.643   7.532 -0.5026 -0.1758  0.0670
85801W        W86665  28.385  15.529  16.295 -0.0514 -0.2017 -0.0868
85802W        W86666  16.661   5.123  28.892 -0.0864  0.1079 -0.1406
85803W        W86667  20.207   9.781  21.319 -0.0141  0.3584  0.2828
85804W        W86668  15.341  19.059  22.611  0.0608  0.0369  0.3318
85805W        W86669  20.475   7.576  25.728  0.0147 -0.1057 -0.0098
85806W        W86670  18.131  28.799  25.959  0.5009 -0.1104  0.1247
85807W        W86671  21.424   5.337   7.238  0.1740 -0.1427  0.2591
85808W        W86672  23.660   6.135   3.973  0.0108  0.0561  0.0308
85809W        W86673  15.802   6.637  19.886  0.1315 -0.1240  0.0087
85810W        W86674   4.258  24.993  12.698  0.1689  0.0676  0.1965
85811W        W86675  15.866  12.851  14.074  0.1304  0.0610 -0.1365
85812W        W86676  19.017  15.338  11.344  0.0529 -0.0104  0.0525
85813W        W86677   2.205  12.094  19.966 -0.1891  0.0644 -0.1265
85814W        W86678   7.311   6.029   1.368  0.3640  0.0454  0.1461
85815W        W86679  27.558   1.186   4.909 -0.1160  0.1655  0.0170
85816W        W86680  17.626  12.340  27.589  0.2253  0.0409  0.1180
85817W        W86681  22.567  10.840  19.910 -0.1689 -0.0090  0.1657
85818W        W86682  16.429  20.719  14.425  0.0188 -0.4035  0.5883
85819W        W86683  11.599  11.028  16.345 -0.0882  0.2119 -0.0948
85820W        W86684  15.183  20.706  11.128 -0.4393  0.2105 -0.2982
85821W        W86685  25.437  14.423   1.307 -0.1142  0.0931  0.2354
85822W        W86686  10.787  19.103   2.602  0.0283 -0.0253  0.0311
85823W        W86687   6.161  19.133  20.829 -0.1813  0.3067 -0.0668
85824W        W86688  28.396   4.439  29.122  0.3023  0.2062  0.0418
85825W        W86689  19.544  11.933  27.268 -0.0255  0.0931 -0.2680
85826W        W86690   2.224   6.800   2.236  0.0858 -0.1054 -0.5174
85827W        W86691  15.352  15.373  14.237 -0.1621  0.4827 -0.0544
85828W        W86692  25.023  27.210  18.628 -0.1341 -0.0021 -0.2898
85829W        W86693   7.371  24.204  18.999  0.2008  0.0161 -0.0926
85830W        W86694  23.943   2.224   5.337  0.0965 -0.1137  0.1388
85831W        W86695   7.139   9.296   7.399  0.3705 -0.0580  0.3513
85832W        W86696  21.834  17.738  27.496  0.0700 -0.0608 -0.1296
85833W        W86697  10.281  13.053  18.893  0.2837 -0.0528 -0.0066
85834W        W86698  16.869  23.812   4.690  0.1947  0.0931 -0.2107
85835W        W86699  23.656  25.764  16.939 -0.1723 -0.1096 -0.0460
85836W        W86700  27.439   4.756  21.174  0.0733  0.0886  0.0122
85837W        W86701   3.588  15.668  29.105  0.1095  0.4857 -0.2242
85838W        W86702   5.913   8.999   6.902 -0.1118 -0.0072  0.2571
85839W        W86703   8.410  13.391  24.284 -0.2651 -0.1625 -0.2861
85840W        W86704  20.979   2.979  22.895  0.1979 -0.2982 -0.2316
85841W        W86705  16.408  13.053   2.427 -0.1479  0.0241 -0.2398
85842W        W86706   3.317   8.313  19.500  0.2308 -0.0760 -0.0387
85843W        W86707  10.816  12.945  17.953 -0.3290 -0.5795 -0.2298
85844W        W86708  24.024   8.422  15.253 -0.0551  0.1945 -0.1186
85845W        W86709   4.546  28.562  23.144  0.0755 -0.0465  0.2129
85846W        W86710   6.534   6.435  18.247 -0.0838  0.1365 -0.4593
85847W        W86711   9.662  15.686  23.022 -0.0942 -0.2478  0.2592
85848W        W86712   9.560  13.127  15.107  0.3857  0.1483 -0.1629
85849W        W86713  24.455   6.436  11.971 -0.0264 -0.1390  0.0104
85850W        W86714  18.632   4.900  29.098  0.3158 -0.1451  0.0240
85851W        W86715   7.778  27.526   2.060  0.1663 -0.1185  0.0095
85852W        W86716   2.844  18.932   8.859  0.1609 -0.0272  0.0452
85853W        W86717  17.706   7.622  23.216 -0.3236  0.2232  0.0684
85854W        W86718  25.308  12.652   2.650 -0.2063  0.2236  0.2317
85855W        W86719  26.194  27.257  14.178  0.0568  0.4328  0.0474
85856W        W86720  11.732  19.823   0.317 -0.1035  0.0064 -0.1861
85857W        W86721   8.930   8.738  20.677 -0.0552  0.1791 -0.4895
85858W        W86722   9.988   5.063   2.835  0.0416 -0.0659  0.0565
85859W        W86723  23.766  17.913  23.592  0.1133  0.0905 -0.0651
85860W        W86724  15.002  25.775   8.225  0.0693 -0.0481 -0.2661
85861W        W86725   3.342   7.352  21.406 -0.3086  0.1150  0.0799
85862W        W86726   1.072   9.141  26.140 -0.1102  0.1286 -0.2474
85863W        W86727  10.556  20.232  17.759 -0.1064 -0.0965 -0.1894
85864W        W86728   1.113   4.581  27.093 -0.2923 -0.1021 -0.5358
85865W        W86729  19.122  21.014  16.863  0.0497  0.0720  0.0053
85866W        W86730  26.028  23.091  23.982 -0.0102  0.1852 -0.0628
85867W        W86731  24.805  20.754  21.008  0.0256 -0.0051  0.2205
85868W        W86732   8.024   1.046   1.793 -0.1594  0.1460  0.2477
85869W        W86733   7.863  21.706  23.106 -0.4514 -0.0339  0.1363
85870W        W86734  26.737   6.074  10.128  0.3097  0.0181  0.0281
85871W        W86735   2.894  15.348   1.507 -0.0839  0.0117 -0.0758
85872W        W86736  17.825  12.809   0.186  0.2639 -0.1786  0.0613
85873W        W86737  15.958   3.496   5.059  0.1263  0.1191 -0.1123
85874W        W86738  15.483  22.197  23.130  0.0959  0.1601 -0.1261
85875W        W86739  20.294  13.591  16.289 -0.2564  0.1652 -0.3200
85876W        W86740   5.589   5.134  17.110  0.1414 -0.1903 -0.2451
85877W        W86741  14.680  10.233   0.332  0.0182  0.0164 -0.0973
85878W        W86742  28.911  21.728  27.540  0.1028 -0.0349  0.1089
85879W        W86743  24.417   9.028  21.050  0.4467  0.0395 -0.0601
85880W        W86744   5.661   0.470  14.624 -0.0520  0.0096 -0.2931
85881W        W86745  11.499   2.962  16.626 -0.1754  0.1459  0.0543
85882W        W86746  21.234  10.174  27.814 -0.2892  0.1262 -0.1029
85883W        W86747  24.064  22.107   1.382 -0.0547 -0.3101  0.1862
85884W        W86748   4.834   7.616  27.820  0.1048  0.0153  0.0875
85885W        W86749   7.919  20.330   4.893  0.0078  0.0235  0.0906
85886W        W86750   5.456  24.393  15.112  0.1137  0.1005  0.0659
85887W        W86751  27.303  20.517  10.639  0.0252 -0.1372 -0.1664
85888W        W86752  21.458   1.741  28.100  0.2184 -0.1347  0.1388
85889W        W86753  24.089   8.781   3.189  0.0663  0.4474 -0.3795
85890W        W86754  27.835   6.213   3.170 -0.0614  0.0899 -0.3002
85891W        W86755   9.291   7.790  28.520  0.0569 -0.0070  0.4153
85892W        W86756  27.641  18.412   7.058  0.1533  0.0903  0.0707
85893W        W86757  18.535  29.058  25.898 -0.1423  0.0502  0.0514
85894W        W86758  19.121   6.892  27.493 -0.1780  0.1366  0.0583
85895W        W86759  18.845  12.424   9.134 -0.2232  0.4037  0.3314
85896W        W86760  17.924  27.211   0.810  0.1864 -0.1604  0.0905
85897W        W86761  17.368   7.249  13.129 -0.4055  0.0248  0.3262
85898W        W86762   1.641  17.058  23.625  0.0293 -0.0176  0.1719
85899W        W86763   0.845   0.281  19.417  0.0433  0.1550  0.1768
85900W        W86764   7.974   8.441  24.880  0.0681 -0.0915 -0.0358
85901W        W86765   0.115  16.818   0.209  0.1065  0.4351  0.1248
85902W        W86766   4.299  12.647   6.551 -0.2319 -0.0932 -0.0538
85903W        W86767  27.665  11.931  20.472 -0.0073 -0.1351 -0.0808
85904W        W86768  18.860   8.943   2.597 -0.1546  0.1465 -0.0046
85905W        W86769  25.823  12.572   2.495 -0.2599  0.1965 -0.2145
85906W        W86770   4.593  19.756   2.340 -0.0882 -0.0297  0.0071
85907W        W86771   6.450  26.128  28.695  0.2984  0.0405  0.0045
85908W        W86772  16.433  24.338  19.578 -0.0363  0.1668  0.3428
85909W        W86773   7.306  22.524  20.863  0.0566  0.0546  0.2859
85910W        W86774  18.993   5.265  22.050  0.1401 -0.4358  0.1134
85911W        W86775  14.064   0.920  19.745  0.1736 -0.4055  0.2210
85912W        W86776  14.175  19.784   4.282  0.2985  0.2364  0.0107
85913W        W86777   4.412   4.063  14.916 -0.1656 -0.2656 -0.1494
85914W        W86778   0.442  15.561   9.117  0.2554 -0.1455  0.1171
85915W        W86779  16.564  14.356  15.328  0.0878 -0.1208 -0.0971
85916W        W86780  14.097  22.068  23.253  0.0173 -0.0761 -0.0591
85917W        W86781  14.730  28.319   4.055 -0.1976  0.1328  0.2466
85918W        W86782  12.486   5.362  11.445  0.0187  0.1143  0.1017
85919W        W86783   0.301  24.000  19.960 -0.0435  0.0591 -0.0784
85920W        W86784   0.492  17.478  14.529 -0.3150  0.0183  0.2391
85921W        W86785   3.206  14.365  20.299 -0.0217  0.3821 -0.0612
85922W        W86786  22.367  23.374   4.237  0.2035  0.2466 -0.2196
85923W        W86787   3.111   5.576  21.137  0.1541 -0.2411  0.2261
85924W        W86788  14.367  10.292  22.892  0.2029 -0.1945  0.1583
85925W        W86789  23.327   1.176   3.667  0.0075 -0.3237  0.1165
85926W        W86790  25.094  17.310  20.752  0.1117  0.0586  0.1151
85927W        W86791  22.936  23.983  26.033 -0.1214  0.0578 -0.0086
85928W        W86792   7.743  25.165   3.421  0.1598  0.2832 -0.1991
85929W        W86793  14.133  13.922  17.218 -0.0546  0.2468 -0.2786
85930W        W86794  15.445  22.097  13.831 -0.2608  0.1775 -0.0591
85931W        W86795   3.036  26.274   3.680  0.0240  0.0490 -0.0690
85932W        W86796   0.690  23.752   1.884  0.2426 -0.3575  0.1348
85933W        W86797  20.231   0.611  10.005 -0.1884  0.0700 -0.2119
85934W        W86798   6.517   5.953  16.570  0.0305  0.0643  0.0196
85935W        W86799   4.874   3.299   6.277  0.0247  0.1235  0.0285
85936W        W86800   0.687  23.799  21.926 -0.1857 -0.0933 -0.2262
85937W        W86801  19.314   4.408  27.583  0.0288  0.0667 -0.1096
85938W        W86802  15.928   6.270   1.385  0.1559 -0.2220  0.0114
85939W        W86803   0.158  23.078  13.936  0.1469 -0.1354 -0.0989
85940W        W86804  18.291  16.114  28.121  0.2441 -0.1226 -0.1144
85941W        W86805   7.560  28.485  25.953 -0.0432  0.0856  0.4159
85942W        W86806  10.946  18.623  19.305 -0.3455  0.1637 -0.3440
85943W        W86807   5.563  10.843  13.244  0.3168  0.4298  0.2750
85944W        W86808   2.118  10.061   5.163 -0.0691  0.1823 -0.2539
85945W        W86809  27.122   7.816  27.144  0.0047 -0.0709  0.1424
85946W        W86810  23.945   9.534  13.820 -0.0850  0.1459 -0.3772
85947W        W86811  23.314   9.383  26.805  0.2438 -0.1939 -0.1435
85948W        W86812  12.345   8.448  28.996  0.4943 -0.2798  0.0484
85949W        W86813   9.296  23.686  20.592 -0.1335  0.0454 -0.0047
85950W        W86814  24.807  10.043  22.666 -0.0774 -0.4579 -0.2351
85951W        W86815  21.635   4.760  23.383  0.2404  0.1606 -0.0121
85952W        W86816   0.593  25.708   5.785  0.0238  0.0904 -0.0941
85953W        W86817   2.657   2.206  26.403 -0.0313 -0.2023  0.0348
85954W        W86818   6.274   1.901  14.247 -0.1767 -0.1289  0.0335
85955W        W86819  12.115   1.665  12.619 -0.2391  0.2931  0.0994
85956W        W86820  15.504   2.679  24.817  0.1928  0.2134  0.3600
85957W        W86821   7.852  27.377  21.379 -0.0202  0.2571 -0.0897
85958W        W86822  16.084   4.804  21.838 -0.0151 -0.1631 -0.2231
85959W        W86823  21.984  24.263  24.996  0.1338  0.1438 -0.1492
85960W        W86824  22.789   4.609   0.257  0.0979 -0.1793 -0.1460
85961W        W86825  18.408  22.478   3.243 -0.2371  0.1759  0.0793
85962W        W86826   8.515   4.220  17.996  0.3078 -0.0733  0.1229
85963W        W86827   3.611   5.889   0.240 -0.3205 -0.1541  0.0319
85964W        W86828  23.080   3.946  21.062 -0.2012 -0.2563 -0.0960
85965W        W86829  13.925   2.284  19.106 -0.1824  0.2376 -0.0813
85966W        W86830  11.977   5.156   2.443 -0.0414  0.1637  0.1808
85967W        W86831   0.918   0.160   7.333  0.2774  0.2058  0.0837
85968W        W86832  25.501   1.053  24.240  0.1800 -0.0804  0.0142
85969W        W86833  25.522   4.333   9.030  0.1354 -0.0658 -0.0411
85970W        W86834  13.144   2.852  18.193 -0.0838 -0.1955 -0.4554
85971W        W86835  19.463   0.184  25.973  0.0014 -0.3360 -0.2383
85972W        W86836  21.584  28.209   0.481 -0.3381 -0.0517 -0.0993
85973W        W86837   8.408  11.072   9.638  0.2311  0.1479  0.0774
85974W        W86838  28.031  15.663  23.685  0.1847  0.1177 -0.3109
85975W        W86839   9.879  12.362   2.550  0.0598  0.2502 -0.0248
85976W        W86840  14.418  24.014  15.206  0.0682 -0.1645  0.1748
85977W        W86841  13.990  23.089   9.702 -0.1103 -0.4438  0.2506
85978W        W86842   4.847   4.541  11.181 -0.2046 -0.0180  0.2808
85979W        W86843  22.036  24.929  23.412 -0.1203 -0.0672 -0.1517
85980W        W86844   6.260  25.461  25.801  0.0537  0.2045 -0.1962
85981W        W86845  15.949   5.868   3.553 -0.0267  0.2264 -0.0208
85982W        W86846  10.464   6.922  23.790 -0.2516 -0.1925  0.1111
85983W        W86847  16.156  25.633   9.782 -0.2913 -0.2209 -0.1522
85984W        W86848   5.900   2.918  29.102  0.1528 -0.2109  0.0257
85985W        W86849  24.467  13.129  10.524 -0.1781  0.3159 -0.0639
85986W        W86850  15.199   1.830  26.182  0.1652  0.1469 -0.0661
85987W        W86851  19.965  23.969  16.694  0.0510  0.0663  0.2144
85988W        W86852  10.923   8.178  28.608  0.0351  0.1502  0.0801
85989W        W86853  13.492  18.651  29.108 -0.0385 -0.0542 -0.0260
85990W        W86854  18.621  10.658   4.271  0.0286  0.0799 -0.1162
85991W        W86855  22.552   9.352  19.289  0.2925 -0.1100 -0.2725
85992W        W86856  16.980   1.526   0.336  0.1059  0.3617  0.1334
85993W        W86857   2.490  19.506   2.960  0.0754 -0.0309  0.1734
85994W        W86858   3.534  12.301  23.352  0.1805  0.0409  0.2833
85995W        W86859  23.321  24.167  18.606 -0.1758 -0.1011  0.0418
85996W        W86860   0.156   3.938   4.841  0.2161  0.2016  0.1600
85997W        W86861   0.688   3.666  17.579  0.1245 -0.2657 -0.1576
85998W        W86862   6.594  24.156   0.770 -0.1783  0.0929  0.0493
85999W        W86863   7.899  11.654  21.903 -0.0730  0.0269 -0.2136
86000W        W86864  16.715  24.612  14.365 -0.0996  0.2038  0.1536
86001W        W86865   2.613   1.385  26.020  0.1535 -0.2213  0.2330
86002W        W86866  18.127  28.892   6.801  0.1361 -0.3306 -0.1116
86003W        W86867   7.129   9.407  23.242 -0.0278 -0.2112  0.0097
86004W        W86868  22.737  20.600  17.076  0.1045  0.0641  0.0861
86005W        W86869  24.863   8.502  18.011 -0.2710 -0.0085  0.1278
86006W        W86870   0.646  21.997   1.919  0.4116 -0.0198 -0.0619
86007W        W86871   4.103   9.853  27.430 -0.2218 -0.0833 -0.0875
86008W        W86872   0.403   9.095  27.295  0.3577 -0.3623  0.2123
86009W        W86873   4.960   8.449   8.084  0.1258 -0.2192 -0.0566
86010W        W86874   0.428  24.154   4.956 -0.2546 -0.1285  0.1715
86011W        W86875  24.851   9.927  12.379 -0.1801 -0.2773 -0.4151
86012W        W86876  24.237   3.306   5.379  0.3608  0.1100  0.0680
86013W        W86877  20.690  21.968  27.499 -0.1976  0.2547  0.1859
86014W        W86878   9.453  17.791  26.741 -0.3737 -0.0600 -0.0140
86015W        W86879  15.517  13.801  12.602  0.0808 -0.0165  0.6040
86016W        W86880  26.740  26.393  15.819 -0.1389 -0.0522 -0.3840
86017W        W86881  23.098   7.616  25.128  0.1396 -0.2483 -0.0549
86018W        W86882  10.381  16.444  27.390  0.1760  0.0467 -0.1196
86019W        W86883   3.787   1.899   0.757  0.0720 -0.0285 -0.0319
86020W        W86884  17.543  20.062  27.317 -0.1492 -0.2540  0.0587
86021W        W86885   4.218  17.151  19.682 -0.0583  0.3616  0.0310
86022W        W86886   3.909  20.172  25.409 -0.0002 -0.3656  0.4424
86023W        W86887  17.794   6.371  19.289  0.0791  0.1532  0.0294
86024W        W86888   7.341   4.355  15.747  0.0506 -0.1406  0.1543
86025W        W86889  13.136  13.705  22.952  0.1191  0.2218 -0.0509
86026W        W86890   9.362   2.507  21.506 -0.0947 -0.0340 -0.2798
86027W        W86891   2.098   9.265  24.419  0.1295  0.1733  0.1979
86028W        W86892  12.945   6.992  28.501  0.0968 -0.0880 -0.2200
86029W        W86893   4.739  23.435   2.072  0.3996  0.3225  0.0502
86030W        W86894  28.350  11.375  26.138 -0.1025  0.3438  0.2787
86031W        W86895  16.186  27.900   7.161 -0.0926 -0.1617  0.0918
86032W        W86896   2.467   6.021  22.047  0.0063 -0.1116  0.0641
86033W        W86897   8.358  28.965  13.027 -0.2725  0.1492  0.3540
86034W        W86898  21.150   3.954  12.630  0.2786  0.0118 -0.0462
86035W        W86899   1.200  25.043   0.250  0.0324 -0.0882 -0.2104
86036W        W86900  17.975  28.603  18.728  0.0233 -0.1194 -0.0246
86037W        W86901  26.613  29.108  28.155 -0.2215 -0.0052 -0.2281
86038W        W86902   8.787   6.219   6.527 -0.0213 -0.0695 -0.1576
86039W        W86903   6.286   6.418  11.901 -0.1175 -0.2575  0.1842
86040W        W86904  22.567  13.969  13.925  0.3911 -0.2109  0.2011
86041W        W86905   8.793   5.231   3.101  0.0381 -0.1347 -0.3970
86042W        W86906  17.784  12.881   2.619 -0.1332  0.0551  0.2872
86043W        W86907   9.004   9.984  25.656 -0.0981 -0.0788  0.1540
86044W        W86908  10.257  25.126  25.275 -0.0531 -0.0162  0.0247
86045W        W86909   6.316   6.926  19.877  0.0533 -0.0923 -0.0768
86046W        W86910  10.784   3.673  28.109  0.2107 -0.1039 -0.0079
86047W        W86911   1.175  16.876  26.040 -0.2363  0.1961 -0.0343
86048W        W86912  17.792  12.446   1.969 -0.2254 -0.0073 -0.0012
86049W        W86913  15.657  24.238  22.110  0.0068 -0.0099  0.1749
86050W        W86914  22.063   2.496  28.475 -0.1204 -0.2380 -0.0347
86051W        W86915  11.186   7.270   2.022  0.0041 -0.1884 -0.0740
86052W        W86916  26.049  13.034  28.667  0.1481 -0.3333  0.3118
86053W        W86917  18.254  27.885  23.259 -0.0511  0.1211  0.3403
86054W        W86918  27.033  23.564   6.655  0.2232 -0.3776  0.1116
86055W        W86919  11.449  19.137  13.628  0.0477 -0.0892  0.1125
86056W        W86920  17.973   3.544  27.725 -0.1568  0.3057  0.0642
86057W        W86921   6.348  12.534  20.996  0.0939 -0.0121  0.3016
86058W        W86922  11.576   6.341  27.855  0.2667 -0.1277  0.0500
86059W        W86923   7.475  10.039  21.523  0.0307  0.0369 -0.1782
86060W        W86924  19.507   5.275   1.530 -0.2486  0.0199 -0.1295
86061W        W86925  22.940   7.264   3.892  0.4780  0.2233  0.1311
86062W        W86926  17.484   9.590  28.523  0.0494 -0.0662 -0.2129
86063W        W86927  19.570  17.290   8.075  0.1742  0.0037  0.0520
86064W        W86928  18.200  21.249  24.934  0.0330  0.2465 -0.4826
86065W        W86929  14.847  20.393  19.079  0.2111  0.0094  0.0620
86066W        W86930  28.584  17.078  14.047 -0.0580  0.3441  0.0433
86067W        W86931  12.750  28.616  11.654  0.3057  0.2173  0.0909
86068W        W86932   3.126   6.416  17.937  0.1296  0.2023  0.1102
86069W        W86933  23.210   3.888  21.510  0.1754  0.2049 -0.2067
86070W        W86934   3.121  16.508  14.762 -0.0617  0.1138 -0.2618
86071W        W86935  22.812   1.637  22.967  0.1695  0.1004  0.2170
86072W        W86936  15.735  13.274   4.286  0.0691 -0.1133  0.2754
86073W        W86937  14.516   1.912  28.715  0.0564 -0.1694 -0.0360
86074W        W86938  20.119  23.162  14.061 -0.1948 -0.0274  0.0998
86075W        W86939   1.555   4.186   6.258 -0.2548  0.0259  0.1698
86076W        W86940   4.693   3.010  20.207 -0.2071  0.0354 -0.1690
86077W        W86941  24.705  27.272  21.175 -0.2150 -0.0098 -0.0162
86078W        W86942  28.050   4.169  26.090  0.0732  0.1884 -0.0679
86079W        W86943  12.948  10.287  19.473 -0.0137 -0.0454  0.1055
86080W        W86944   9.223  16.613   2.850 -0.0502  0.0309 -0.2291
86081W        W86945  15.626   8.597  26.085 -0.0894  0.0233  0.0069
86082W        W86946  17.903  24.029  15.918  0.3139 -0.0091  0.1723
86083W        W86947  18.946  10.257  23.404  0.3531  0.2182 -0.0879
86084W        W86948  10.075  27.988   8.802  0.1073 -0.5082 -0.1032
86085W        W86949   8.029  15.201   7.085  0.0156  0.1287  0.0166
86086W        W86950  18.902  18.148   9.395 -0.0517 -0.2232 -0.0852
86087W        W86951  13.586   7.742  10.296  0.0534  0.1144  0.0802
86088W        W86952  13.977   5.344   9.513  0.2554  0.2950  0.0379
86089W        W86953  26.146  20.356  28.432 -0.2589  0.2308  0.1232
86090W        W86954  20.923   2.648  18.891 -0.1305 -0.1310  0.0107
86091W        W86955  13.715   9.898  21.285 -0.0366 -0.1446 -0.0135
86092W        W86956  11.726  25.392  20.717  0.2071  0.2291  0.0407
86093W        W86957  17.547   7.541   7.107  0.0169 -0.3518 -0.1189
86094W        W86958  11.483  28.720   8.228 -0.1803 -0.0423 -0.2625
86095W        W86959  26.150  18.768  28.185  0.3756  0.1402  0.0366
86096W        W86960   5.761   9.609  26.088 -0.2178  0.1114 -0.6569
86097W        W86961   5.889   6.627  22.671  0.1034  0.1134  0.0148
86098W        W86962  27.706  24.232  18.028  0.1526 -0.0346 -0.3095
86099W        W86963  10.309  23.845  21.369 -0.0403  0.1847 -0.1408
86100W        W86964  24.601   1.382   5.531 -0.2833  0.0786  0.0575
86101W        W86965  26.532  17.717  21.683 -0.1617  0.1272  0.1461
86102W        W86966   2.912   7.949  24.761  0.0332  0.1119  0.1007
86103W        W86967  18.769  27.029  24.278  0.1519 -0.2265  0.2490
86104W        W86968  21.609  19.040  22.692 -0.4101 -0.0743 -0.1949
86105W        W86969  14.416  19.013   4.076  0.2221  0.0142 -0.3066
86106W        W86970   8.632  13.508  23.056  0.1071  0.1828 -0.1308
86107W        W86971  15.720   0.131  26.215 -0.4366 -0.1612 -0.3393
86108W        W86972  20.389  25.157   2.008  0.2034  0.2063 -0.1248
86109W        W86973   3.061  19.357   7.844 -0.1270 -0.0857 -0.3242
86110W        W86974  12.128  16.422  22.904  0.1211  0.2112 -0.0234
86111W        W86975  26.769   6.823  18.612 -0.2913  0.0195 -0.1528
86112W        W86976  22.637  11.163   7.760 -0.0125 -0.3969 -0.1400
86113W        W86977   5.380  20.004  17.536  0.3446 -0.1828  0.0307
86114W        W86978  19.448  17.785  16.254 -0.1816  0.1684 -0.1313
86115W        W86979  19.245   5.964   5.839 -0.4142  0.0165  0.3357
86116W        W86980  26.025   9.819   3.222 -0.2197  0.0807 -0.0965
86117W        W86981  23.808  13.315  26.887 -0.1873  0.0106  0.2383
86118W        W86982  20.700  12.925  25.608 -0.1046 -0.2363  0.1106
86119W        W86983   8.184  26.980   8.743 -0.2397  0.0480 -0.0074
86120W        W86984  16.581   0.115  22.691 -0.3353 -0.1714 -0.1075
86121W        W86985  16.972  14.340  14.971 -0.0490  0.2088 -0.2570
86122W        W86986  18.538  18.181  19.461  0.1743  0.3481  0.0171
86123W        W86987   4.839   0.285  25.874  0.0197 -0.1008  0.0229
86124W        W86988  11.246  15.607   8.075  0.0763 -0.2236 -0.0710
86125W        W86989   3.339  11.407   6.029  0.3527 -0.0409  0.2755
86126W        W86990  10.131  28.964  19.627 -0.0122 -0.0022  0.2385
86127W        W86991  21.558   7.006  25.108 -0.1671 -0.1272  0.2002
86128W        W86992  26.962   1.205   2.479 -0.1376  0.3253  0.0092
86129W        W86993  19.057   7.684  18.726 -0.0058  0.0419  0.1709
86130W        W86994  19.826  16.242  11.812 -0.1591  0.0003 -0.2371
86131W        W86995  18.832  10.108  26.163 -0.0382 -0.0857 -0.0248
86132W        W86996  16.248   2.757  15.870  0.2684  0.3413  0.1572
86133W        W86997  11.814   3.396  24.502  0.2120 -0.3155 -0.0162
86134W        W86998  27.467  27.697  14.810  0.2074 -0.0357  0.0702
86135W        W86999   4.255   2.097  20.461  0.1548  0.0937 -0.1904
86136W        W87000   3.278  17.535  21.334  0.0168  0.2188  0.0488
86137W        W87001  19.137   9.382   8.468  0.1811 -0.1337  0.2426
86138W        W87002   6.201  18.494  24.006 -0.0574 -0.2130 -0.2811
86139W        W87003  18.808  18.249   8.821  0.2251  0.0853  0.1821
86140W        W87004   2.664  29.041  11.707  0.2871  0.1347 -0.1343
86141W        W87005   9.632  13.060  28.558  0.2027 -0.0759  0.4557
86142W        W87006  28.281   5.681  20.817 -0.3704  0.0026 -0.0458
86143W        W87007  12.369   8.769  23.243  0.0486 -0.2314  0.1119
86144W        W87008  22.859  17.971   7.577  0.2144 -0.0174  0.0199
86145W        W87009  12.946  21.818  26.852  0.1209  0.1390  0.1679
86146W        W87010   1.596  11.126   4.218 -0.0087 -0.1424 -0.1119
86147W        W87011   8.542  14.095  15.107 -0.0160 -0.0958  0.4121
86148W        W87012  21.129   8.675  22.325  0.2774  0.0455 -0.3344
86149W        W87013  14.973   0.406   2.888  0.1016  0.1397  0.1428
86150W        W87014  14.076   9.685  18.699  0.0427 -0.2131 -0.0781
86151W        W87015  21.096   3.294   3.322  0.0540  0.0336 -0.1330
86152W        W87016   1.621   3.002  26.265 -0.1247  0.2559  0.3079
86153W        W87017  12.465  10.548  17.889 -0.0882 -0.1726  0.0281
86154W        W87018  15.897   5.331  20.180  0.1536  0.0867 -0.1227
86155W        W87019   2.205   3.743   3.050  0.2683 -0.4342 -0.0316
86156W        W87020  10.742  13.237  23.403 -0.1844 -0.2821 -0.3684
86157W        W87021  11.467  23.992   3.570  0.0097  0.1388 -0.1424
86158W        W87022  12.471  10.002  18.145  0.0942  0.0218  0.1055
86159W        W87023  16.342  20.051   3.387 -0.0756  0.0503  0.3303
86160W        W87024   9.428  25.681  26.535  0.1493  0.1839  0.1715
86161W        W87025  16.108   9.125   4.789  0.1633  0.0457 -0.0061
86162W        W87026   1.256  18.611  11.021  0.0937  0.0802 -0.0955
86163W        W87027  18.160   0.116   8.327  0.2275 -0.1420 -0.0248
86164W        W87028  18.332   9.385  20.044  0.1329  0.2787 -0.1909
86165W        W87029  15.339   8.347  19.789  0.0767  0.1830  0.0694
86166W        W87030  16.279   5.562   3.346 -0.1430 -0.0519 -0.1145
86167W        W87031   9.612  27.853  16.937 -0.4128 -0.1133  0.3502
86168W        W87032  19.935  12.090  21.785  0.2169  0.0748 -0.2141
86169W        W87033   1.645   2.997  15.342  0.0121 -0.0324 -0.0091
86170W        W87034  22.198  10.279  26.470  0.1854  0.2426 -0.1952
86171W        W87035  17.212  16.765   6.516 -0.1390 -0.1351  0.1012
86172W        W87036   2.479   7.485  28.092  0.0954 -0.0001  0.1812
86173W        W87037   6.103   6.732  15.131  0.2465  0.1713  0.0475
86174W        W87038   7.494  18.607  12.623  0.2129 -0.0036  0.2471
86175W        W87039  11.683   6.305   4.074 -0.0694  0.1239  0.2697
86176W        W87040  13.746  14.384  18.125 -0.1059  0.0797  0.0784
86177W        W87041  25.461  21.366   8.565 -0.0016 -0.0280  0.1834
86178W        W87042   5.409  13.421  25.330 -0.2281  0.1136  0.1294
86179W        W87043   5.243  11.965   3.373  0.0408  0.1515 -0.1525
86180W        W87044   7.737  17.496  11.542  0.0200  0.1538  0.2190
86181W        W87045  24.474   4.718  27.706  0.1382  0.1933  0.0014
86182W        W87046  22.741  18.311  29.000  0.3316  0.3576  0.0120
86183W        W87047  19.005   0.713   4.759  0.3250 -0.0890  0.1375
86184W        W87048  19.815  10.073   7.150 -0.1398 -0.0191  0.3017
86185W        W87049  13.242  16.555   7.487  0.0772  0.3052  0.1741
86186W        W87050  21.175  10.669   3.267 -0.3258  0.1356  0.1196
86187W        W87051   3.419   8.143  10.927 -0.1086  0.0470 -0.0502
86188W        W87052  22.186  11.285   5.617 -0.2898 -0.3422 -0.4439
86189W        W87053   9.451   6.713  19.616 -0.1517  0.0421 -0.5527
86190W        W87054   6.852  11.106  25.254  0.2212  0.2156 -0.1887
86191W        W87055  23.252   8.966   1.308 -0.2456  0.1606  0.0253
86192W        W87056  13.917   6.783   1.373  0.0174  0.2389  0.3060
86193W        W87057  19.027  12.149  16.854  0.1348 -0.3006  0.0375
86194W        W87058  15.607  25.924   0.081 -0.1615 -0.0338 -0.2437
86195W        W87059  25.460  26.869  13.128 -0.3377 -0.0241  0.1924
86196W        W87060  15.681  28.928  13.788  0.0384  0.0655  0.2129
86197W        W87061  10.477  15.959  10.310 -0.0313 -0.0633  0.0148
86198W        W87062   8.976   8.108  24.880  0.1388 -0.3074 -0.0357
86199W        W87063  13.053  12.248  20.983  0.1463  0.1702  0.0738
86200W        W87064  20.248   7.899   5.034  0.1178 -0.1880  0.1092
86201W        W87065   6.723   1.392   8.829  0.0778  0.2197  0.0411
86202W        W87066  22.226  17.723  27.909 -0.4088 -0.1369  0.1043
86203W        W87067   9.766  19.552  20.032 -0.2895  0.2578  0.1859
86204W        W87068  11.025  12.186   8.923  0.2605 -0.3441  0.0149
86205W        W87069   8.130   5.866   9.024 -0.0148 -0.2118 -0.1274
86206W        W87070  15.129   3.784  26.118 -0.3739 -0.1449 -0.3987
86207W        W87071  11.113  10.206  21.839  0.0260 -0.3117  0.1276
86208W        W87072  18.761  22.486   6.289  0.0760 -0.0566  0.4629
86209W        W87073  23.930  13.871  19.521  0.0362  0.0751 -0.0317
86210W        W87074   7.899   0.609   1.487 -0.1401  0.0655  0.1270
86211W        W87075   5.031  12.331  24.740  0.0137  0.0073 -0.3041
86212W        W87076   8.560  12.296  20.508 -0.0481 -0.1461 -0.2354
86213W        W87077   6.765  19.394  27.979 -0.1330  0.0763  0.1668
86214W        W87078   6.095  25.238  22.539  0.2957  0.0565 -0.0760
86215W        W87079  19.835  13.635  17.940 -0.3165  0.2026  0.1184
86216W        W87080   0.220  12.369   0.981  0.0531 -0.0792 -0.0477
86217W        W87081  28.880   0.904  26.382  0.0295  0.1059 -0.3817
86218W        W87082  10.545   4.748  22.663  0.0167  0.4015  0.1303
86219W        W87083  12.442   7.148  29.009 -0.0296  0.0213 -0.1045
86220W        W87084  21.493  22.571  10.189 -0.1564  0.1949 -0.0925
86221W        W87085   7.687  14.303  13.065  0.1442  0.1997 -0.1243
86222W        W87086  25.400  12.118   7.002  0.0213  0.0320  0.0874
86223W        W87087   3.928  19.996  18.677  0.0920 -0.1114  0.1092
86224W        W87088  27.081   4.737   0.366  0.0737  0.0070  0.3591
86225W        W87089  18.685  20.265  28.503 -0.0828 -0.0085  0.1149
86226W        W87090  15.586   3.998  26.021 -0.0660  0.0129  0.1105
86227W        W87091  18.707   6.958  18.975  0.0189 -0.1382  0.0035
86228W        W87092   5.507  12.524  22.154  0.0148 -0.0242  0.4184
86229W        W87093   0.490   8.637  18.311 -0.1400 -0.2645  0.2477
86230W        W87094   3.268  14.109  22.923 -0.2393 -0.0698  0.0145
86231W        W87095   9.331   5.233  29.097 -0.0930 -0.2742  0.2668
86232W        W87096  23.517  28.360  24.705  0.1005  0.0941  0.1233
86233W        W87097  17.689   6.252  25.719  0.1241 -0.0925 -0.3396
86234W        W87098  14.445  28.819  25.774  0.0313  0.1119 -0.2858
86235W        W87099  26.568  11.684   5.296 -0.1942 -0.0987  0.0217
86236W        W87100  14.732  13.908   4.523 -0.1212  0.1429 -0.0468
86237W        W87101  12.547   5.212  26.269  0.1189  0.0294  0.2386
86238W        W87102  18.537   8.737  23.319  0.2761  0.1164 -0.1375
86239W        W87103   7.426  13.443  14.959 -0.1082  0.0719  0.0466
86240W        W87104  26.666  27.784  25.986  0.2658 -0.3053 -0.0141
86241W        W87105  14.487   2.759  19.852  0.0479  0.3293 -0.1134
86242W        W87106   8.149  14.366  27.072 -0.0235  0.1475 -0.1308
86243W        W87107  15.341   3.017   9.172 -0.1452  0.1285  0.1457
86244W        W87108  23.916  28.090  27.493  0.0180 -0.0688 -0.0069
86245W        W87109   5.509  16.018  21.687 -0.2526 -0.0856 -0.1676
86246W        W87110  23.981  28.078  19.249  0.3450  0.2002 -0.0189
86247W        W87111  10.415   6.137  25.449 -0.1105  0.3858 -0.0743
86248W        W87112  16.282   5.272  21.683  0.3315 -0.0506  0.0086
86249W        W87113   4.345  10.107   4.315 -0.0401  0.0002  0.0294
86250W        W87114  14.537   8.261  27.974  0.2346  0.0362 -0.0486
86251W        W87115  26.032  20.300   0.620 -0.1070  0.0952  0.1349
86252W        W87116  26.515   6.103  11.419  0.2753  0.1516 -0.0200
86253W        W87117   2.595  24.923  27.440  0.1696 -0.0096 -0.2843
86254W        W87118  21.373  12.382   5.174 -0.1686 -0.0937  0.0954
86255W        W87119  10.250   8.151   1.100 -0.3776 -0.2360 -0.1318
86256W        W87120   5.286  29.110  20.328 -0.0552  0.2450  0.1100
86257W        W87121  15.973  20.040  28.040 -0.2589  0.4468 -0.1460
86258W        W87122  25.571  27.030  18.594  0.0414 -0.0367  0.0647
86259W        W87123  18.547  21.656  11.602  0.2497 -0.0539  0.1960
86260W        W87124  25.086   8.737  24.776 -0.2169  0.0693 -0.2602
86261W        W87125  16.698  10.370   2.146  0.0726  0.0479 -0.1268
86262W        W87126  23.754   8.794   0.694 -0.1845  0.0551  0.3310
86263W        W87127  12.713  10.210   8.068  0.0992 -0.2019 -0.5171
86264W        W87128  26.586   6.660  12.822  0.1878 -0.2262 -0.0771
86265W        W87129  17.110  25.308   3.464 -0.0340 -0.2895 -0.2688
86266W        W87130  21.363  10.686  28.674  0.1334  0.0643 -0.0719
86267W        W87131  16.303  19.739  28.325 -0.3134  0.2473  0.1713
86268W        W87132  17.863  20.409   0.505 -0.0257  0.0316  0.4265
86269W        W87133  16.354  19.488  28.724  0.2818 -0.2131  0.0652
86270W        W87134  20.244  20.804  29.010 -0.1827  0.2383  0.0988
86271W        W87135  14.621   4.254   1.103  0.1966  0.4151  0.0273
86272W        W87136  17.592  17.098  14.495  0.1140  0.2279  0.0677
86273W        W87137  22.449  11.120  13.317 -0.0224 -0.1034 -0.2550
86274W        W87138   3.904  11.270   6.583  0.1221  0.1825 -0.0610
86275W        W87139  15.311  26.390  21.540 -0.1555  0.1792 -0.2587
86276W        W87140  16.626   4.831  19.912 -0.0321 -0.1451  0.0246
86277W        W87141  15.080  13.314  14.959  0.3044  0.2118  0.0032
86278W        W87142  17.588  21.758  23.740 -0.0985  0.1300 -0.4095
86279W        W87143  12.307  27.019   5.408  0.1417  0.3087  0.0802
86280W        W87144  22.337  16.660  28.623  0.0337  0.2303 -0.1303
86281W        W87145  11.004   8.900  24.968 -0.0232  0.1700 -0.0760
86282W        W87146  22.844  16.932   5.853 -0.0717 -0.1556  0.0050
86283W        W87147   3.166   9.470   9.777 -0.2683 -0.0697  0.2102
86284W        W87148   8.324   2.534   2.068 -0.2330  0.1093 -0.0353
86285W        W87149   5.380   2.223  15.244  0.1764  0.0693 -0.1413
86286W        W87150  20.881  14.364  11.127 -0.0484 -0.0002  0.1274
86287W        W87151  12.370   9.520  18.913 -0.0172 -0.0889 -0.0452
86288W        W87152   2.684  17.916   1.136 -0.0843  0.1844 -0.3179
86289W        W87153  16.725  12.104  21.483  0.3785 -0.1916  0.1994
86290W        W87154  10.728  11.148  21.885  0.2224  0.1734 -0.0266
86291W        W87155  16.055  23.460  26.167  0.1001 -0.2285 -0.0723
86292W        W87156  14.838  12.095   1.927  0.1116  0.0695  0.0793
86293W        W87157  22.127   5.761   5.994 -0.1477 -0.3201 -0.0199
86294W        W87158  23.235   5.743   9.729 -0.1419 -0.2376 -0.2186
86295W        W87159  26.471  10.115  13.734  0.2196  0.0413 -0.2346
86296W        W87160  15.812  10.868  20.531 -0.2398  0.2928 -0.2458
86297W        W87161   9.513  28.469  14.249  0.1511  0.1646 -0.2307
86298W        W87162  17.322   3.414  13.455  0.3265 -0.3348 -0.3356
86299W        W87163  23.690   3.920  24.173  0.0551  0.0305  0.0263
86300W        W87164  28.287  21.611   1.866  0.1939  0.2172 -0.0887
86301W        W87165   7.795   9.868   4.410  0.0613 -0.0202 -0.0978
86302W        W87166  27.082  20.217  24.279 -0.0245 -0.0433 -0.0346
86303W        W87167  23.664   6.549  21.859 -0.1091 -0.2934 -0.0413
86304W        W87168  20.107   0.655   0.640  0.1436 -0.0750  0.0536
86305W        W87169  26.003   8.034  22.065 -0.1824 -0.0936 -0.0263
86306W        W87170  15.875   9.796   1.111  0.0558  0.0579 -0.3019
86307W        W87171  22.216   5.328  26.761 -0.3397 -0.0393  0.0647
86308W        W87172  13.336  14.548  27.782  0.1596  0.3535 -0.1152
86309W        W87173  13.740   3.258   7.979 -0.1551  0.0805  0.0571
86310W        W87174  10.605   4.995   5.595  0.0310  0.1894  0.0947
86311W        W87175   3.600  27.147  18.838  0.0293  0.0249  0.0420
86312W        W87176  11.565  16.293  10.839  0.1886 -0.1645 -0.0722
86313W        W87177   7.469  23.704  12.176  0.0896  0.1787  0.3526
86314W        W87178  24.603  23.510  26.714 -0.2757 -0.2021 -0.2103
86315W        W87179  18.109  11.526  13.262 -0.0507  0.1637 -0.2970
86316W        W87180  23.573  11.232  13.932  0.1383  0.2316  0.3881
86317W        W87181  19.432  16.390  23.618 -0.0166 -0.0985  0.2834
86318W        W87182  21.638  12.096   0.526 -0.2505 -0.0253 -0.3371
86319W        W87183   0.264   9.257  10.323 -0.0751  0.4219  0.0237
86320W        W87184   4.835   0.497  21.997  0.1703  0.1930 -0.0498
86321W        W87185  13.016   3.589  27.279  0.1005  0.0385 -0.0887
86322W        W87186  10.025   3.752  20.524 -0.0932  0.3940  0.1154
86323W        W87187  28.857   1.205  17.196  0.0433 -0.1379  0.1169
86324W        W87188  29.008   6.570   1.722 -0.0249 -0.2132 -0.0630
86325W        W87189   1.581  21.517  14.233  0.0064 -0.1300  0.1482
86326W        W87190  19.463   2.829  27.232 -0.2166  0.1012  0.1922
86327W        W87191  24.517  25.399   0.028  0.0979  0.0570  0.0605
86328W        W87192  24.664  23.431  15.788  0.0639  0.1083 -0.1146
86329W        W87193  24.766   3.405   8.877  0.1969 -0.0679 -0.2793
86330W        W87194   5.950   3.793  11.756  0.1969  0.1369 -0.2192
86331W        W87195  19.292   3.078   0.798  0.0089 -0.3962  0.1897
86332W        W87196  14.778   9.986  23.110 -0.1218  0.0179 -0.3129
86333W        W87197   6.982   4.668  11.767 -0.2155  0.1579  0.3623
86334W        W87198  10.558  28.224   2.428 -0.0977 -0.0676  0.0036
86335W        W87199  13.645   1.894  25.417 -0.0654  0.3300 -0.0176
86336W        W87200  14.981  18.636   0.989  0.1718 -0.0838  0.0980
86337W        W87201   4.369  23.050  29.006  0.1373 -0.2726  0.0630
86338W        W87202   5.183  28.024   4.242  0.0705  0.0831  0.1109
86339W        W87203  14.672   1.500  22.389  0.0081 -0.5074  0.0374
86340W        W87204  13.047  10.853  13.071  0.0180  0.1212 -0.2523
86341W        W87205  27.878  11.432  17.863  0.0703 -0.0790  0.0139
86342W        W87206  12.895  23.515   8.181 -0.2598  0.1081 -0.0195
86343W        W87207  25.375   8.519   5.367  0.0170  0.2361  0.0127
86344W        W87208   3.069  18.989  16.116 -0.1118  0.2440 -0.1736
86345W        W87209  10.260   6.436  26.419  0.1362  0.0023  0.1065
86346W        W87210  14.131   8.586  29.054  0.1734 -0.0550 -0.2703
86347W        W87211  17.614   2.393   3.988 -0.0676  0.2032 -0.4345
86348W        W87212   2.740  26.443  22.462  0.0695 -0.1883 -0.2616
86349W        W87213  10.497   5.637  25.360  0.1021  0.0560  0.2978
86350W        W87214  26.375  12.455   3.709 -0.0206 -0.0362 -0.2512
86351W        W87215  13.369  25.949  16.953 -0.0377 -0.2175  0.0772
86352W        W87216   8.371  21.851  21.883  0.0345 -0.1315  0.5550
86353W        W87217  17.523  18.405  20.420 -0.2606  0.2294  0.2842
86354W        W87218   7.581  18.509  26.675  0.2954  0.1917  0.1054
86355W        W87219  27.908   6.247  22.709 -0.1431 -0.0338 -0.0043
86356W        W87220   7.739   3.969   0.455  0.3229 -0.1503  0.0417
86357W        W87221  14.140  10.676  22.745  0.1064 -0.0156  0.1687
86358W        W87222   1.457  13.662   6.494 -0.1148 -0.0134 -0.1371
86359W        W87223  16.956   3.541   3.305 -0.0099  0.0022  0.4464
86360W        W87224  11.753  23.669   3.281 -0.1136  0.1606  0.1420
86361W        W87225  28.761  27.900   3.458  0.3623  0.0201 -0.2062
86362W        W87226   9.620  11.788  13.502 -0.1507 -0.2731 -0.1565
86363W        W87227  23.009  11.512  12.746  0.0396  0.0467  0.5058
86364W        W87228  12.020   0.624  12.145 -0.1268  0.0691 -0.1882
86365W        W87229  28.118  13.348   3.186  0.1586  0.0235 -0.2161
86366W        W87230  16.956   6.011   0.387 -0.2722  0.1430  0.0525
86367W        W87231  18.465  19.118  13.731 -0.1869 -0.1831  0.0285
86368W        W87232  21.625   2.395   4.426 -0.1018  0.2178 -0.1275
86369W        W87233  28.432  15.999  23.475  0.3168  0.1765 -0.1420
86370W        W87234   1.034  16.544  12.208  0.0268  0.3001  0.0968
86371W        W87235  29.071  26.674   0.692 -0.2335 -0.1007  0.1270
86372W        W87236   8.370  16.574  21.465 -0.1829  0.1859  0.0756
86373W        W87237   7.644   9.234  23.440  0.1121  0.3135 -0.2060
86374W        W87238  24.600  11.004   4.952  0.1303  0.1124  0.0033
86375W        W87239   3.486  21.458  10.752 -0.2773 -0.0625  0.0483
86376W        W87240  13.956  20.728  22.645 -0.2449  0.0106  0.0368
86377W        W87241  24.172   8.850  11.154  0.1214 -0.1963 -0.2188
86378W        W87242  20.027  10.348  17.304  0.1151  0.0979 -0.0260
86379W        W87243  27.340  26.460  20.057 -0.2605 -0.0511 -0.0522
86380W        W87244  25.218  29.135  23.389  0.1303  0.0759 -0.0348
86381W        W87245  27.590  21.084  25.943 -0.2073  0.2575  0.0634
86382W        W87246  20.160   9.158   1.047  0.0492 -0.1663 -0.3207
86383W        W87247   4.966  21.994  23.079 -0.5532  0.1802  0.1707
86384W        W87248  21.011  22.986  11.759 -0.4316 -0.1104  0.1003
86385W        W87249  27.429   9.339  22.203  0.1335 -0.2807 -0.1936
86386W        W87250   2.205  12.394  12.368  0.0645  0.1085  0.2794
86387W        W87251   5.147  27.773  13.342  0.2634  0.1911  0.0738
86388W        W87252   0.812  14.638  22.835 -0.1050  0.6756  0.0296
86389W        W87253   3.496  12.663   1.882 -0.3239 -0.2154 -0.2413
86390W        W87254   9.074   8.104  10.664 -0.0488 -0.3055  0.1241
86391W        W87255  14.559  19.825   3.638  0.0213 -0.1209 -0.0414
86392W        W87256  16.713   7.894  24.228 -0.1111 -0.3865  0.1813
86393W        W87257  20.932  21.796   4.484 -0.2194 -0.0073 -0.0363
86394W        W87258  12.930   6.419  14.210 -0.1057  0.0893  0.3466
86395W        W87259  27.668  24.564   6.231 -0.1407  0.1457  0.2961
86396W        W87260   3.757  17.131   3.311  0.1943  0.1646 -0.1287
86397W        W87261  28.282   8.577  10.805  0.1208 -0.0621 -0.0450
86398W        W87262  28.367  12.777   5.569  0.0309 -0.3753  0.2679
86399W        W87263  10.158  20.008  21.615 -0.2959  0.0465  0.0562
86400W        W87264  18.292  26.229  27.917 -0.0731  0.2214  0.3040
86401W        W87265   3.453  10.106  24.880  0.3364 -0.2450  0.1492
86402W        W87266   6.076  24.806  29.020  0.1608  0.2467 -0.1687
86403W        W87267  22.202  12.606  18.151 -0.1017 -0.3195 -0.0727
86404W        W87268  27.318  18.409  25.994 -0.1607 -0.0846 -0.1880
86405W        W87269   1.863   7.023  16.793  0.0710  0.3099  0.2119
86406W        W87270  28.343   1.300  27.199 -0.1815  0.2389  0.2286
86407W        W87271  21.039  26.891   0.860 -0.0244  0.1405  0.2430
86408W        W87272  23.743  10.467  23.471  0.2816 -0.0184 -0.0830
86409W        W87273  21.642   5.725   2.134 -0.1288 -0.2762  0.2359
86410W        W87274  27.715   7.954  22.406  0.0973  0.1986  0.0043
86411W        W87275  13.379  12.094  26.307 -0.0492  0.1139 -0.1753
86412W        W87276  13.110   1.182  24.086 -0.1445  0.1626 -0.0718
86413W        W87277  19.829   7.636   0.605  0.2903  0.2197  0.1359
86414W        W87278   0.533   8.676  21.430 -0.0183 -0.2326  0.0650
86415W        W87279  21.354  28.407   7.288 -0.1480  0.0116  0.1974
86416W        W87280  27.627  11.295  24.385  0.2245  0.2252 -0.1929
86417W        W87281  25.535  22.949  27.501  0.1477  0.0171  0.1151
86418W        W87282  18.178  13.219  11.537  0.1228  0.1188  0.2321
86419W        W87283   2.242  14.663  24.082 -0.2238  0.0775 -0.0318
86420W        W87284  25.102  18.456  11.157 -0.2879 -0.0883  0.0298
86421W        W87285   4.119   1.432   0.685 -0.1790 -0.1369  0.1747
86422W        W87286   3.458  15.119  11.051 -0.0999 -0.5874  0.2840
86423W        W87287  21.450   5.826   2.682 -0.0318  0.2348  0.1272
86424W        W87288   9.785  11.983  14.967 -0.3150  0.3762 -0.0230
86425W        W87289  20.033  15.951   4.632 -0.1976  0.1298  0.0315
86426W        W87290  12.858  27.035  22.171  0.1518 -0.2236  0.1226
86427W        W87291  10.820  10.818  23.604  0.0807 -0.0094  0.2095
86428W        W87292   5.893   8.034   9.298 -0.3649  0.0956  0.1338
86429W        W87293   5.609  18.492  22.719 -0.1569  0.1169  0.2717
86430W        W87294  13.725   9.134   3.458  0.0432  0.2195 -0.0170
86431W        W87295  13.684  17.911   9.051  0.1251  0.0352 -0.1638
86432W        W87296  20.202  18.316  23.057  0.1014  0.1541  0.2002
86433W        W87297  18.990   9.095   4.535  0.1880  0.0416 -0.0563
86434W        W87298  24.107   9.538  17.549 -0.0551  0.1867 -0.3885
86435W        W87299  27.635  16.902  21.971  0.0191 -0.0691  0.0950
86436W        W87300  24.537   0.213   2.430 -0.0097 -0.0706 -0.1551
86437W        W87301  17.673  17.654   9.714 -0.1669  0.2218 -0.2041
86438W        W87302   7.116  13.036   3.263  0.1450  0.0352  0.0565
86439W        W87303  27.380  27.847  28.072  0.0324  0.3108 -0.1155
86440W        W87304  11.026   3.844  24.167 -0.3894  0.0909  0.1123
86441W        W87305   2.409  19.979  23.111  0.0213 -0.3365  0.2126
86442W        W87306   3.807  19.445  19.505  0.3395  0.2047  0.2795
86443W        W87307  17.578  11.616   2.193  0.0364  0.0655  0.2013
86444W        W87308  16.217   5.512   0.045  0.0747 -0.0721  0.1917
86445W        W87309  10.949  20.047   7.107  0.1140  0.0180 -0.0162
86446W        W87310   5.496  15.771  27.248  0.0671  0.0033  0.2824
86447W        W87311  21.256  20.367  24.534 -0.1194  0.1577 -0.2986
86448W        W87312  18.156  17.759  18.182  0.4325  0.0179  0.0933
86449W        W87313  13.178   4.778   9.136  0.2048 -0.3074 -0.2599
86450W        W87314   7.596  16.878   5.123 -0.1133  0.2758 -0.1627
86451W        W87315  26.594  17.593  18.130  0.1557 -0.1137  0.0322
86452W        W87316  21.326   5.927   5.849 -0.2926  0.0058  0.1581
86453W        W87317   4.690   0.680  10.439 -0.0690  0.0286  0.0615
86454W        W87318   9.628  20.282  28.909  0.1791  0.1126  0.1838
86455W        W87319  25.157  21.821  20.519  0.1132  0.1199 -0.1093
86456W        W87320  11.564  21.832  15.000 -0.0377  0.1203 -0.0752
86457W        W87321   4.029  18.458  17.611  0.2692  0.1273 -0.0630
86458W        W87322  25.101   5.716  28.391  0.0271  0.0776 -0.0823
86459W        W87323  11.702  16.424  28.906 -0.0909  0.1074 -0.1375
86460W        W87324   9.957  17.333  26.046  0.0978 -0.1494  0.0379
86461W        W87325  29.010  17.107  26.612 -0.0780  0.0932  0.1980
86462W        W87326   6.048  20.352  16.369  0.1179 -0.0827  0.2613
86463W        W87327   5.376   2.413  28.609  0.0509 -0.2247  0.0700
86464W        W87328   0.778   7.581  22.056 -0.0971 -0.3055 -0.0228
86465W        W87329  10.582  13.731  13.132  0.0124  0.3881 -0.2863
86466W        W87330  23.699   2.460  27.447 -0.0522 -0.0909 -0.0738
86467W        W87331  23.998  13.868  20.069 -0.3604 -0.1451 -0.0204
86468W        W87332  25.545  18.847  23.674 -0.4227  0.0615  0.1139
86469W        W87333  18.873   5.511  27.278 -0.3180 -0.0121  0.0945
86470W        W87334  12.212  10.137  24.514  0.0780  0.2008 -0.0738
86471W        W87335   6.922  26.412  18.473 -0.0969  0.2349  0.3252
86472W        W87336   9.736  14.191  21.256 -0.3467  0.0185  0.1308
86473W        W87337   9.548  22.360  14.425 -0.1184 -0.1112 -0.1046
86474W        W87338  10.683  28.485  27.324  0.1494 -0.3594  0.3652
86475W        W87339  21.296   7.533   0.242 -0.0149  0.2361  0.2819
86476W        W87340  27.610  20.682  28.393 -0.1464  0.1532  0.1463
86477W        W87341   2.329  14.685  14.224  0.1330 -0.1828  0.0819
86478W        W87342  20.918  14.378  20.382  0.4841 -0.1081 -0.0345
86479W        W87343  20.107   9.946  13.411 -0.1184  0.2069 -0.2937
86480W        W87344  20.580  16.321   0.463 -0.1933 -0.1887 -0.2186
86481W        W87345  21.517  11.566   2.756  0.1187  0.3215  0.4279
86482W        W87346   1.413   4.451  26.213 -0.0039  0.0724  0.1277
86483W        W87347   2.306  13.015  13.113 -0.2137  0.0055  0.1234
86484W        W87348  24.551  26.685  20.679  0.1139  0.1148 -0.1861
86485W        W87349  12.973  26.758  20.523 -0.0760  0.0980  0.3004
86486W        W87350   9.707   7.471  11.116  0.2228  0.0111 -0.1190
86487W        W87351   6.529  14.234   1.703 -0.1383 -0.0382  0.1070
86488W        W87352   5.072   6.118  21.449  0.0583  0.1887 -0.0600
86489W        W87353  28.694   3.053  18.233 -0.0642  0.1213 -0.1989
86490W        W87354   7.210   9.825   9.372  0.1781  0.1393 -0.2891
86491W        W87355  11.511   9.285  22.693  0.2244  0.0435 -0.0759
86492W        W87356  23.094  13.514  17.944 -0.0552 -0.2485 -0.1351
86493W        W87357  10.891   8.911  10.614 -0.1328  0.0476  0.2383
86494W        W87358   0.252   4.857   5.987 -0.1616 -0.0362  0.0930
86495W        W87359  16.857  14.314   0.497  0.2199  0.0876 -0.0193
86496W        W87360  24.577   2.354   3.132 -0.2614 -0.3507 -0.3424
86497W        W87361  16.318  20.356  26.985  0.3520  0.0796 -0.1497
86498W        W87362  21.007  18.325  23.858 -0.0342  0.1040  0.0928
86499W        W87363   0.894   8.215  12.833 -0.0402 -0.1455 -0.0059
86500W        W87364  24.969   9.364   4.273  0.3486 -0.2499 -0.2651
86501W        W87365  18.561  26.158   2.592 -0.1344 -0.0463  0.1499
86502W        W87366  22.308   4.857   3.757 -0.0503 -0.3692 -0.0065
86503W        W87367  25.444  16.001  25.501  0.2783  0.0284 -0.2534
86504W        W87368  15.959   5.163  25.206  0.0575 -0.3041  0.0363
86505W        W87369  25.233   6.657  25.532  0.2769  0.2091 -0.1975
86506W        W87370  26.513   2.010  27.071 -0.0837  0.1700 -0.2123
86507W        W87371  23.739   1.153  28.158 -0.0477 -0.1003  0.2829
86508W        W87372  12.458   9.254  28.274 -0.2422  0.0779 -0.0120
86509W        W87373  22.197  11.915   0.411 -0.0610  0.0936  0.1440
86510W        W87374  18.219  28.090  15.175  0.0810 -0.0249 -0.1763
86511W        W87375  14.422   7.565  26.778 -0.0186 -0.2486 -0.0517
86512W        W87376  25.557   5.970   2.237 -0.0473 -0.1385 -0.1652
86513W        W87377  16.654   1.979   0.042  0.2509  0.1261 -0.0728
86514W        W87378   7.166  25.696   0.541 -0.1357  0.0897  0.0201
86515W        W87379  21.383  15.994  26.319 -0.0880  0.0765 -0.1294
86516W        W87380   0.072   1.922  26.768  0.2290  0.3345  0.2068
86517W        W87381   8.539   6.400  19.516  0.1571 -0.1415 -0.0521
86518W        W87382   7.899  17.131  14.126  0.0421 -0.3691 -0.2140
86519W        W87383   6.864   6.978  14.599 -0.0949  0.0107  0.0994
86520W        W87384  19.375  12.028   8.153 -0.3156 -0.0363  0.2765
86521W        W87385  17.718   1.933  26.914 -0.1371  0.2726  0.2270
86522W        W87386  17.435   0.459  27.629  0.1355 -0.1187 -0.0907
86523W        W87387   6.657  11.619   0.737  0.3886  0.1411 -0.3892
86524W        W87388   6.147  22.412   1.270 -0.1078  0.0455  0.2720
86525W        W87389  10.847  17.178  16.918 -0.0037  0.3123  0.3053
86526W        W87390   5.523  25.289  19.128 -0.0061  0.1429  0.1135
86527W        W87391   3.448  20.440  21.025 -0.1804  0.1599 -0.2543
86528W        W87392   3.245  13.265  13.408  0.1928 -0.0407 -0.0215
86529W        W87393  12.113  13.738  10.969  0.0252  0.0723 -0.3678
86530W        W87394  17.523   5.343   3.213 -0.1386 -0.1258  0.0842
86531W        W87395  28.448   4.164   1.025 -0.2703 -0.2405 -0.0764
86532W        W87396  24.500  16.750   3.566 -0.2235  0.0965 -0.1767
86533W        W87397   8.889   3.887  19.651 -0.1440 -0.1185 -0.1409
86534W        W87398  15.960  27.919  11.944  0.0789 -0.1667  0.0010
86535W        W87399   4.442  19.643  12.901  0.0302 -0.1581 -0.1042
86536W        W87400  21.872   3.823   0.872  0.0218  0.0156  0.0642
86537W        W87401  21.436   1.241   7.467  0.0727 -0.1328 -0.1738
86538W        W87402  23.846  19.425   5.657 -0.0419  0.1443 -0.0240
86539W        W87403   7.195   6.003  11.901 -0.0403  0.1469 -0.1268
86540W        W87404  19.173  25.469   5.151 -0.0717 -0.3047  0.0902
86541W        W87405  18.295   3.139   1.274  0.2723 -0.3285 -0.0624
86542W        W87406   5.467  13.913  17.047  0.2290  0.4569  0.0112
86543W        W87407  14.241  28.569  14.683  0.0194 -0.1247 -0.0936
86544W        W87408  17.095  19.191  22.973  0.0005  0.0253  0.0870
86545W        W87409   3.361  18.958   0.495  0.0567  0.1428 -0.0281
86546W        W87410  11.219   7.735  24.765  0.0105 -0.0548  0.0726
86547W        W87411  12.169  15.896   1.465 -0.3604 -0.0865 -0.1716
86548W        W87412   1.571   7.023   0.874 -0.0826  0.1159  0.2313
86549W        W87413  20.158  24.892  17.645 -0.1877 -0.2181 -0.1817
86550W        W87414   5.269  12.449  17.914  0.0024  0.0497  0.1008
86551W        W87415  13.228  13.281   0.898  0.0680  0.0403  0.0972
86552W        W87416  23.821  14.545  19.921 -0.1766 -0.0080 -0.1914
86553W        W87417  12.764  15.933  14.169 -0.2011  0.1352  0.1260
86554W        W87418   1.754  14.390   8.259 -0.1189  0.1286 -0.0618
86555W        W87419  27.657  17.048  12.532 -0.1347 -0.2738 -0.0567
86556W        W87420   7.473   6.863   6.125 -0.3650  0.1558  0.0065
86557W        W87421   6.732  14.220   0.571 -0.4360 -0.1961 -0.0354
86558W        W87422  20.529  19.766  11.706  0.3061 -0.0986  0.1661
86559W        W87423   8.489  12.800  23.422 -0.0969 -0.0528 -0.1037
86560W        W87424  19.263  23.994  19.168  0.0997 -0.1764 -0.2319
86561W        W87425   5.511  14.303  11.676  0.3509  0.2462  0.1178
86562W        W87426  20.612   1.869   8.919  0.1694 -0.0759  0.1559
86563W        W87427   6.195  21.463  21.136  0.3106  0.0722 -0.3864
86564W        W87428   6.011  25.464   6.864 -0.2620  0.0686 -0.1379
86565W        W87429   2.480  12.043  26.216 -0.0712  0.1137  0.4103
86566W        W87430   8.558  16.432  27.866 -0.1457  0.0185 -0.2624
86567W        W87431   2.425   2.374  11.387  0.3776  0.0259 -0.0693
86568W        W87432  19.027  20.405   5.852  0.0234 -0.0762  0.0861
86569W        W87433  14.110  18.243   7.028 -0.4023 -0.1063 -0.1812
86570W        W87434  14.961  20.587   4.623  0.0539 -0.3273  0.0318
86571W        W87435  24.621  12.843   1.000 -0.0099  0.0878  0.0052
86572W        W87436   6.827  16.311   9.039  0.0157  0.2693  0.0221
86573W        W87437   1.038  19.882   9.240 -0.1399  0.0943 -0.1648
86574W        W87438  11.607   0.714   3.348 -0.3146 -0.3120  0.1069
86575W        W87439   0.950   9.858   2.375 -0.0512  0.1738 -0.3895
86576W        W87440  23.542   8.355   3.433 -0.0663  0.0183 -0.2469
86577W        W87441   6.212  12.053  21.422 -0.1016 -0.0573  0.1689
86578W        W87442   1.698   3.470   1.119 -0.0606  0.1299 -0.1358
86579W        W87443   7.530   6.403   1.787  0.3374  0.0465  0.0153
86580W        W87444  29.130   2.937   8.353  0.1180  0.3099  0.0528
86581W        W87445  12.297  16.898  22.715  0.2225  0.0739  0.0147
86582W        W87446   7.977  22.564  14.241  0.1512  0.1183  0.3683
86583W        W87447   1.969   9.368  19.905 -0.1082 -0.0897  0.1594
86584W        W87448   0.891  15.895  22.068  0.0423 -0.2509  0.1605
86585W        W87449  18.346  14.085   6.898  0.3583  0.3698  0.0212
86586W        W87450  24.108  17.318   5.222  0.1298  0.2695  0.0775
86587W        W87451  12.742   0.173  19.594  0.1604 -0.2344 -0.1014
86588W        W87452   7.846  15.321   1.047  0.1040 -0.0489 -0.0797
86589W        W87453   4.929   8.410  25.732 -0.1694  0.0236 -0.3970
86590W        W87454  26.074  23.166   9.835  0.2644 -0.0103  0.0906
86591W        W87455   6.660  26.276   1.694  0.0501 -0.1178  0.0749
86592W        W87456  14.153  18.370  14.685 -0.1537 -0.1338  0.0383
86593W        W87457   0.381  21.405  18.042 -0.0237  0.2435 -0.4419
86594W        W87458   6.773   5.420  23.324 -0.1400 -0.0983 -0.2413
86595W        W87459  17.159  17.187  12.916  0.0244  0.0162 -0.0458
86596W        W87460   1.566  16.706  27.718 -0.1629  0.1541 -0.0041
86597W        W87461  27.570  11.706   8.320 -0.0167  0.2975 -0.1961
86598W        W87462  17.673  17.366  17.753  0.2232  0.0148  0.2042
86599W        W87463  10.666   1.865   5.184 -0.4102  0.1012  0.0203
86600W        W87464  15.710   2.596  15.513 -0.1700  0.1648  0.0777
86601W        W87465   0.715   4.014  20.146 -0.1466  0.1784  0.0084
86602W        W87466  18.046   4.272  12.113  0.0243  0.1891  0.0361
86603W        W87467  22.068  22.880  18.241 -0.0069  0.1793 -0.2076
86604W        W87468  13.880  22.239  28.873  0.0732  0.1502  0.0334
86605W        W87469   2.031  28.511  11.586 -0.0278 -0.2167 -0.3508
86606W        W87470   8.842   5.016  18.422  0.1336 -0.0858  0.1471
86607W        W87471  15.407  19.727  20.274 -0.2457  0.0481  0.3557
86608W        W87472  23.687  22.823  15.036 -0.1824 -0.2512 -0.3463
86609W        W87473  16.226  17.921  25.027  0.0076 -0.0117  0.1233
86610W        W87474  14.899  21.845  24.272  0.0304  0.0971  0.1561
86611W        W87475   8.516   9.005  26.583 -0.0133 -0.2605 -0.0313
86612W        W87476  15.592  17.918   1.217  0.3333 -0.1457 -0.1608
86613W        W87477   4.274   4.888  16.935  0.0723  0.1368  0.1718
86614W        W87478  20.925  19.832  25.342  0.2781  0.4750  0.1180
86615W        W87479  13.102  24.750  25.330 -0.2119 -0.0128 -0.0820
86616W        W87480   4.099  11.824  19.806  0.0158 -0.2670 -0.0960
86617W        W87481  11.915  27.851  17.360 -0.3312  0.0621  0.2369
86618W        W87482  14.541  17.421  18.286  0.1529  0.1431  0.0778
86619W        W87483  18.986  14.306  26.757 -0.3711 -0.0622  0.1636
86620W        W87484  18.318  10.609  13.162  0.2072  0.0008  0.0179
86621W        W87485   4.853  26.652  11.382 -0.2313  0.3324 -0.2581
86622W        W87486  21.658  16.171  25.414  0.0930  0.1449 -0.1873
86623W        W87487   6.446   6.949   3.655 -0.2189  0.4327 -0.1884
86624W        W87488  12.468  15.850  14.891  0.2616  0.1593 -0.3242
86625W        W87489  16.681  16.927  19.114 -0.1490 -0.2254  0.1963
86626W        W87490   0.641  21.919   8.641  0.2683 -0.0929  0.1938
86627W        W87491  13.081  15.830  27.530  0.2391 -0.2568 -0.0015
86628W        W87492  24.383  15.489   2.492 -0.2195  0.0301  0.1737
86629W        W87493   1.286  17.145  27.566 -0.3921 -0.0941 -0.1732
86630W        W87494  24.093  13.556  21.138  0.0629  0.2727 -0.2110
86631W        W87495  19.952  17.565  19.626 -0.0875 -0.2065  0.3628
86632W        W87496  12.967   3.990   5.747  0.1832  0.0119 -0.1221
86633W        W87497   5.928  20.290  24.429 -0.1207  0.0950  0.0777
86634W        W87498  19.211  12.428   7.395 -0.2174  0.3022  0.0210
86635W        W87499  20.925  18.764   5.578  0.1828 -0.0398  0.0585
86636W        W87500  10.402   5.002   0.338  0.2173  0.0264 -0.1761
86637W        W87501  20.515  15.454   7.764 -0.2374 -0.1116  0.0357
86638W        W87502  10.600  25.459   6.822  0.4034  0.1262 -0.3650
86639W        W87503   1.054  14.415  20.824 -0.1726 -0.0924 -0.0310
86640W        W87504  16.651  23.218  17.295  0.1205 -0.1255  0.1182
86641W        W87505  10.112  12.962  23.006  0.0420 -0.1350  0.2711
86642W        W87506   2.589  13.861   0.129  0.2583 -0.1859  0.1667
86643W        W87507  14.142  21.024  11.602 -0.0512  0.1000  0.4092
86644W        W87508   8.921  19.432   8.315 -0.2597  0.4599  0.1289
86645W        W87509   3.627   8.879  27.158 -0.0207  0.1009  0.0541
86646W        W87510  24.222  29.082  27.428  0.1481 -0.2054  0.3131
86647W        W87511   3.035  25.689  24.356 -0.1573 -0.0564  0.0186
86648W        W87512  13.855  10.649  24.854 -0.1049 -0.0246 -0.0711
86649W        W87513  10.713  22.442  11.404 -0.0182 -0.0553  0.2157
86650W        W87514   5.136  17.815  15.975  0.1851 -0.1248  0.1539
86651W        W87515   5.494  12.933   1.762 -0.1640  0.0706  0.1630
86652W        W87516  13.345  10.202   8.880 -0.0087  0.1256 -0.2485
86653W        W87517   5.698  17.911   5.044  0.0427  0.3029 -0.0592
86654W        W87518  18.524  18.238  26.293  0.0461  0.1976 -0.2764
86655W        W87519   8.757  20.853   6.521 -0.2674  0.3111 -0.0339
86656W        W87520  17.698  11.324  27.706  0.1204 -0.0940 -0.2091
86657W        W87521   4.700  21.676  11.795  0.0968  0.3005  0.1620
86658W        W87522  17.130  24.320  28.293 -0.1982 -0.0718 -0.0617
86659W        W87523  26.879   4.422   5.096 -0.0410  0.1271 -0.2714
86660W        W87524  16.300  16.327   1.654 -0.3313 -0.1512 -0.1771
86661W        W87525  19.338  16.010   5.867  0.2928 -0.1867  0.0385
86662W        W87526  10.937  19.904   0.093 -0.0300  0.1224  0.0390
86663W        W87527  22.101  16.364  26.140 -0.1379  0.1459 -0.0858
86664W        W87528   4.682   5.036  22.612 -0.0746 -0.0255 -0.3089
86665W        W87529   8.098   6.930  20.199 -0.1688 -0.0112  0.0250
86666W        W87530  17.795  22.851  27.911 -0.1603 -0.2824 -0.1095
86667W        W87531  27.471  17.149  22.747 -0.1166 -0.0660  0.1157
86668W        W87532  16.123   9.721  12.874 -0.0999  0.2013  0.1797
86669W        W87533  28.032   4.655   3.842  0.2341 -0.1733 -0.0792
86670W        W87534  28.271   3.737  24.316  0.1569  0.1871  0.1128
86671W        W87535  10.191  13.700  15.031 -0.1000 -0.2083 -0.1412
86672W        W87536   7.793   8.579  14.924  0.0616  0.3366  0.0794
86673W        W87537  21.391   2.771   9.716 -0.1921  0.0006  0.0301
86674W        W87538   8.451  13.711  18.836  0.1802 -0.0041  0.1287
86675W        W87539   9.526  19.270   0.497  0.0819 -0.1974 -0.1711
86676W        W87540   8.351  14.660  12.362  0.1362 -0.3057  0.1115
86677W        W87541  19.451  25.883  26.173 -0.0107  0.0771 -0.3814
86678W        W87542   3.118   8.586   8.219  0.1732  0.0485 -0.0595
86679W        W87543   0.706  18.377  14.129  0.2103 -0.2083 -0.4547
86680W        W87544   4.220  17.004   6.589 -0.0082 -0.0345 -0.0270
86681W        W87545   2.188  23.724  27.084  0.0063 -0.0530  0.2483
86682W        W87546   3.440  23.654   3.824  0.0125 -0.1860  0.5239
86683W        W87547  24.256  10.783  14.210  0.0107 -0.0089 -0.1009
86684W        W87548   2.118   8.251  27.974 -0.0933 -0.1727  0.1367
86685W        W87549  13.954   3.280   9.489  0.3084  0.2058 -0.0774
86686W        W87550  28.907   0.352  17.138  0.4299 -0.2676  0.4583
86687W        W87551  11.917   8.742  15.532  0.2813 -0.1173 -0.1328
86688W        W87552  11.646  28.421   0.418  0.0800  0.2664  0.0513
86689W        W87553  27.254   6.236  21.713 -0.0271  0.0062 -0.0161
86690W        W87554  10.808   9.916  21.460  0.0007 -0.0204  0.1330
86691W        W87555   1.176  20.691  27.038  0.0355 -0.3559 -0.2955
86692W        W87556  15.503   5.735   4.653  0.1363 -0.0372 -0.1212
86693W        W87557   1.393  27.345  25.599 -0.0675 -0.0473 -0.0453
86694W        W87558   4.547  14.339  12.904  0.0869 -0.1351 -0.1755
86695W        W87559  18.418   0.635   0.484 -0.0830 -0.2148 -0.0080
86696W        W87560  25.888  25.998  22.566 -0.0400 -0.0558  0.2774
86697W        W87561   9.915  10.944   8.584  0.0823  0.3629  0.1156
86698W        W87562  10.503  21.327  24.375 -0.0372 -0.1264 -0.2283
86699W        W87563   3.522  10.321  18.745 -0.0354  0.2071  0.1815
86700W        W87564  22.442   6.517  24.805  0.2005  0.1228 -0.2045
86701W        W87565  23.592  12.081   4.564 -0.2805  0.1308  0.0958
86702W        W87566  16.095  19.075  17.499  0.1306 -0.4759  0.1673
86703W        W87567  16.633   9.129   6.523 -0.1582 -0.4747 -0.0375
86704W        W87568  21.294  19.108   5.639  0.0414 -0.0780  0.1833
86705W        W87569   1.483  18.634  26.192 -0.0096  0.2083 -0.1137
86706W        W87570  11.569  17.260  16.169 -0.0887 -0.2922 -0.2650
86707W        W87571   5.463  10.256  21.691 -0.1333  0.1874  0.0696
86708W        W87572  11.132   9.549  15.475  0.0248 -0.3234  0.0310
86709W        W87573  20.650  12.234   2.454  0.1502 -0.0491  0.2804
86710W        W87574   7.716  10.958  23.482 -0.4692 -0.1065  0.2425
86711W        W87575   5.276  12.656  19.987 -0.1435  0.1621 -0.2796
86712W        W87576   5.649  16.213   5.467  0.1748  0.0355 -0.1528
86713W        W87577  15.258  18.029  27.729 -0.3211 -0.1264 -0.2554
86714W        W87578  23.252  15.334   2.646 -0.0310  0.2037 -0.3983
86715W        W87579  20.420   5.051  11.502 -0.1929 -0.0666  0.4212
86716W        W87580  27.437  11.813   7.390  0.0132  0.3700  0.0472
86717W        W87581  16.518  24.399  11.239 -0.0247  0.1136 -0.0930
86718W        W87582  27.428   6.829   4.678 -0.3173  0.1791  0.1759
86719W        W87583   3.301  24.674  26.780  0.1004  0.1567 -0.0859
86720W        W87584  25.874  21.216  11.798 -0.3190 -0.0548 -0.1813
86721W        W87585  14.472  16.970   4.284 -0.1009  0.3548 -0.1916
86722W        W87586   4.702  19.967   5.900  0.2597  0.2693 -0.1326
86723W        W87587   9.172  11.062  12.697  0.4105 -0.5339  0.2959
86724W        W87588  21.629   2.056   1.410  0.1027 -0.1564 -0.1044
86725W        W87589  22.455   8.044   7.003 -0.0255 -0.2300 -0.1455
86726W        W87590  11.664  28.985   8.606 -0.2360 -0.0053  0.1257
86727W        W87591  15.849   0.465  24.850  0.0764 -0.1720 -0.2785
86728W        W87592  14.570  14.166   8.303 -0.1087  0.2216  0.0556
86729W        W87593  26.177  24.470   0.415 -0.0942 -0.0500 -0.3019
86730W        W87594  24.563  15.466  15.330 -0.0066 -0.0644  0.1580
86731W        W87595  12.542   8.591  26.582 -0.0307  0.2183 -0.0418
86732W        W87596   4.648  11.062  23.397 -0.0030 -0.1270 -0.1645
86733W        W87597   9.813  17.716  23.617  0.3886  0.0827 -0.2445
86734W        W87598   6.939   3.697  24.943 -0.1427 -0.0862 -0.2781
86735W        W87599  10.388  26.812  27.781  0.1363  0.0436  0.2979
86736W        W87600  11.533   1.084  26.150 -0.2118  0.1350 -0.0241
86737W        W87601  19.323  12.347   5.777  0.0285 -0.2078  0.0514
86738W        W87602   4.722   3.797   5.119 -0.1190 -0.1283 -0.3002
86739W        W87603  10.027  10.168   6.466  0.2516  0.3153 -0.1263
86740W        W87604  27.310  14.966   5.660 -0.0472 -0.1293  0.1292
86741W        W87605  11.348  17.529  10.903 -0.3259  0.0912  0.2109
86742W        W87606  15.043   3.676  21.906  0.1748 -0.1004  0.0306
86743W        W87607   8.280  20.517  14.581 -0.0905  0.3718 -0.0880
86744W        W87608  15.901   2.922  28.411 -0.0342 -0.2183 -0.0111
86745W        W87609  14.979   2.356  20.788  0.0229 -0.2683  0.0041
86746W        W87610   6.393   8.957   7.952 -0.0065 -0.1367  0.3224
86747W        W87611   0.653  15.577   9.592  0.1292 -0.1340  0.0507
86748W        W87612  21.439  28.199   3.949 -0.2355  0.0957  0.0598
86749W        W87613  14.125  17.037  22.578 -0.1436  0.2795  0.1034
86750W        W87614  21.314   0.088  13.076 -0.0593 -0.0478  0.2027
86751W        W87615  16.529  16.656  23.513 -0.0686 -0.1055  0.2678
86752W        W87616  28.346  14.179   3.689 -0.1328  0.2877  0.0102
86753W        W87617  23.934  26.617   2.195  0.2162 -0.0793  0.1631
86754W        W87618   9.155  15.299   1.070 -0.1398 -0.0235  0.2914
86755W        W87619   7.131   1.658   0.244  0.0113  0.0553 -0.1564
86756W        W87620   2.631  25.992  24.237 -0.0774 -0.1059  0.0550
86757W        W87621  15.564  20.128  11.130  0.1891  0.1711 -0.0698
86758W        W87622  11.019   4.513  12.481 -0.1931  0.0890 -0.1309
86759W        W87623  14.184   9.237   0.525 -0.1438  0.0633  0.1248
86760W        W87624   6.873  24.709  25.361 -0.0846 -0.0564  0.1341
86761W        W87625  15.762  13.574  10.380  0.0735  0.0826  0.1821
86762W        W87626   2.417  14.053  17.781  0.2008 -0.1522 -0.0273
86763W        W87627  25.991   1.186   5.803 -0.2760  0.2103  0.1517
86764W        W87628   4.140   8.701  21.750 -0.0905 -0.0351  0.1227
86765W        W87629   2.271  10.069   6.956 -0.1772 -0.2127  0.2072
86766W        W87630  15.247  20.719  19.153  0.1095 -0.2499  0.0701
86767W        W87631  25.420   4.524   1.264  0.2872  0.1144  0.0323
86768W        W87632   5.429   8.828  19.657 -0.3407 -0.0127 -0.0912
86769W        W87633  14.576   7.556  20.943 -0.0158 -0.0688 -0.2029
86770W        W87634   8.284  17.717  11.323  0.2345  0.0325 -0.1079
86771W        W87635   3.265  23.324  12.824 -0.2381  0.1208 -0.0253
86772W        W87636   4.268   1.826  14.290  0.0266  0.8564 -0.0764
86773W        W87637  27.097  27.689  22.316 -0.2142  0.0515 -0.1953
86774W        W87638  10.978  18.428  27.623  0.0558 -0.0257 -0.0173
86775W        W87639  18.821   9.312  27.504  0.1183  0.2928 -0.0400
86776W        W87640   6.802  12.729  18.836  0.1650 -0.0313  0.0145
86777W        W87641  12.505  18.482  26.118 -0.4434 -0.0682 -0.3893
86778W        W87642  22.893   0.486  25.538  0.0077 -0.1917  0.1032
86779W        W87643  26.240   6.059   1.114 -0.1439  0.3835  0.2322
86780W        W87644  21.976   6.485  19.941  0.0613 -0.0684 -0.1610
86781W        W87645  18.335   9.923  27.155 -0.1076 -0.0504 -0.1539
86782W        W87646  13.153   3.804  19.614  0.2087  0.0455 -0.2788
86783W        W87647  27.844  13.427  20.190 -0.0147 -0.1254 -0.1224
86784W        W87648  10.808  12.110   9.424 -0.1442  0.1763 -0.0128
86785W        W87649   3.964  21.613  21.075  0.3274  0.0656 -0.0585
86786W        W87650  20.272  11.069   3.204  0.1222 -0.0818  0.1689
86787W        W87651  17.124   3.862  18.726  0.0359 -0.0256  0.0303
86788W        W87652   7.285  27.185   8.301 -0.1429  0.0005 -0.0807
86789W        W87653  25.427   3.632  13.933  0.0617  0.1631 -0.1917
86790W        W87654   7.365  13.009  12.170 -0.1812 -0.0964 -0.1376
86791W        W87655  13.412   5.220   7.131 -0.1091 -0.3814  0.0581
86792W        W87656  10.913   8.646  21.263  0.5297 -0.1707 -0.0954
86793W        W87657  23.632  20.276   3.418 -0.2067 -0.3389  0.1945
86794W        W87658  22.432   6.459  18.433  0.0764 -0.1475  0.0307
86795W        W87659   6.156  10.636  13.909 -0.0967 -0.1275  0.1896
86796W        W87660   0.773   8.669   5.202 -0.0008  0.3814 -0.2974
86797W        W87661  10.033   2.951   6.333  0.3526  0.1668  0.2013
86798W        W87662   9.923  10.301  28.580 -0.2551  0.0462 -0.2549
86799W        W87663  19.284   0.347  26.555 -0.0275 -0.2907 -0.2304
86800W        W87664  18.424  22.277  15.282  0.3550  0.1842  0.2154
86801W        W87665  12.837  21.408  26.561 -0.0165 -0.1368  0.1667
86802W        W87666  12.269  16.188  21.844  0.0115  0.1763  0.3424
86803W        W87667  12.009  15.950   7.300  0.2973 -0.0194  0.0067
86804W        W87668  22.900   9.324  26.053  0.2435  0.2223  0.1495
86805W        W87669   0.577  14.448   1.887  0.1360 -0.0927 -0.1931
86806W        W87670   6.852   2.495   6.615 -0.0541  0.2620 -0.0642
86807W        W87671  26.458  12.495   0.261  0.1939 -0.0894  0.0389
86808W        W87672   0.427  17.844  27.579  0.2703  0.0023 -0.1708
86809W        W87673   3.800  15.467   4.411  0.0557 -0.1742 -0.4129
86810W        W87674  24.487  27.779   5.034  0.5910 -0.1093  0.5284
86811W        W87675   1.397  19.958  20.763 -0.4410 -0.2627 -0.1656
86812W        W87676   9.001  10.052  20.650 -0.1908  0.0090 -0.1850
86813W        W87677  11.951  22.399  25.690  0.0560 -0.2885  0.1431
86814W        W87678   5.890  11.966   0.618 -0.2691 -0.2073  0.2706
86815W        W87679   9.177  17.706  24.797  0.0488  0.1202  0.2380
86816W        W87680   2.267  17.970   6.380  0.1062  0.0155  0.0838
86817W        W87681  11.477   5.172   8.458 -0.0093 -0.3591 -0.0147
86818W        W87682   1.069  16.698  16.819 -0.0218 -0.0629  0.3897
86819W        W87683  28.343  17.498  14.084  0.0587  0.2725  0.1531
86820W        W87684  12.301  11.425  24.428 -0.0588  0.1194 -0.2059
86821W        W87685  16.012  18.680  14.352  0.1613  0.0088 -0.1232
86822W        W87686   6.432  18.490   2.303  0.1263 -0.1664 -0.0218
86823W        W87687   7.736   7.378  10.980  0.1504  0.1648 -0.1041
86824W        W87688  12.290   5.348  27.122 -0.1483  0.0845  0.1484
86825W        W87689  16.138  12.312   4.203 -0.0718  0.0773 -0.1549
86826W        W87690  26.444  10.072   3.199  0.1440 -0.3306  0.0286
86827W        W87691   5.284  19.257  24.656 -0.1163  0.3473  0.0331
86828W        W87692  26.204  21.839   2.892  0.3210 -0.1051  0.0059
86829W        W87693   4.445  13.469  21.505  0.3527 -0.2076 -0.0160
86830W        W87694  15.539   7.553   4.445  0.1557 -0.1614  0.2108
86831W        W87695   2.394  18.676  23.201  0.0835  0.1913  0.0836
86832W        W87696  10.790  21.436   7.511 -0.2328 -0.0598  0.1423
86833W        W87697  13.875  12.866  11.912  0.2433 -0.0951 -0.3083
86834W        W87698   7.504  12.449  17.674  0.0045 -0.5250 -0.0368
86835W        W87699  10.952   5.727  11.584 -0.0901  0.1936 -0.1289
86836W        W87700   3.625   9.479  24.188  0.2274 -0.1056 -0.1182
86837W        W87701   9.722  14.107  25.929 -0.0664 -0.3444 -0.3910
86838W        W87702   7.620  20.855  22.471  0.0647  0.0666  0.2015
86839W        W87703   4.255  15.387  21.354  0.0426  0.3377 -0.1660
86840W        W87704  15.337  29.004   0.791  0.2308  0.0799 -0.2137
86841W        W87705   2.430  13.015  25.080  0.1710 -0.0359  0.0767
86842W        W87706  25.822  18.378  14.899  0.0563 -0.0297  0.2069
86843W        W87707  14.080  25.146  26.091 -0.2263  0.0153 -0.2084
86844W        W87708  24.593   7.354  24.699 -0.0773 -0.2223  0.0006
86845W        W87709  19.084  28.842  12.193 -0.1253 -0.0951  0.2273
86846W        W87710  11.048  25.073  14.820 -0.2346  0.3762 -0.1142
86847W        W87711   7.570  15.054  26.637 -0.0277 -0.0361 -0.0383
86848W        W87712  25.735  10.488  24.184  0.0314  0.1195  0.0348
86849W        W87713   0.639  14.565   7.018 -0.1892 -0.2251  0.1964
86850W        W87714  19.886   3.425   5.393 -0.3711 -0.0309  0.2181
86851W        W87715  19.504  24.432  26.234  0.0958 -0.0029  0.1766
86852W        W87716   4.516  18.271  17.485  0.2206 -0.0974 -0.0426
86853W        W87717  13.987  15.828  26.735 -0.2340  0.3638 -0.0063
86854W        W87718   6.700   4.121  10.667  0.0136  0.2468  0.1704
86855W        W87719  18.269  12.497  26.877 -0.0806 -0.1012 -0.2058
86856W        W87720   0.725  18.097  24.000 -0.0456  0.1041  0.1735
86857W        W87721  27.899  11.883   0.353 -0.0718 -0.0426 -0.0613
86858W        W87722  13.718  19.549  23.393 -0.3340  0.1265 -0.2426
86859W        W87723  16.711   8.836   0.342 -0.0483  0.2741  0.0442
86860W        W87724   8.464  20.320   8.554  0.2005  0.1919 -0.4260
86861W        W87725  26.395   9.543   2.935 -0.1906  0.0045  0.4256
86862W        W87726  15.752   1.160  21.743 -0.2335  0.0304  0.2642
86863W        W87727  14.693  15.451  23.682 -0.1383  0.1026 -0.2577
86864W        W87728   1.331   7.074  15.525 -0.5568 -0.0685  0.0507
86865W        W87729  24.203  26.597  20.149 -0.0605 -0.0054 -0.0815
86866W        W87730   6.851  27.326   0.354  0.1041 -0.0973 -0.2823
86867W        W87731   0.381   9.214   4.534  0.3757  0.1404  0.0472
86868W        W87732  14.941  13.593   6.432 -0.1278 -0.1478  0.1788
86869W        W87733   6.001   1.528  14.602 -0.1373 -0.0891 -0.2890
86870W        W87734  14.900   3.441   3.628  0.1761 -0.2452  0.1099
86871W        W87735  12.863  16.529   4.825  0.0138 -0.1002 -0.3882
86872W        W87736  16.778   1.022  25.495 -0.1438 -0.1114 -0.3725
86873W        W87737  11.948  28.314  29.114 -0.0624 -0.0437 -0.3728
86874W        W87738  13.517   8.701  14.431  0.0639  0.2326 -0.2188
86875W        W87739  17.807  24.060  20.526 -0.1460 -0.3973  0.0386
86876W        W87740  14.075  16.419  27.124 -0.0496  0.1708 -0.1493
86877W        W87741  12.780  18.228  22.182  0.4574  0.2269  0.1692
86878W        W87742  15.126  17.477  18.401  0.1567 -0.2614 -0.0895
86879W        W87743   6.202  15.385  16.466  0.2461 -0.1146  0.0427
86880W        W87744  13.030   4.356  28.974 -0.1495  0.0396  0.2355
86881W        W87745   5.150  16.528   5.145  0.0679  0.0809  0.2593
86882W        W87746   7.916  21.819   4.687 -0.0982  0.0217 -0.1795
86883W        W87747  18.771  11.219   9.592 -0.1442 -0.0755 -0.2085
86884W        W87748  22.618  27.945   1.554 -0.1205  0.0860  0.1741
86885W        W87749  26.744  14.079  25.175 -0.1167 -0.2710  0.0148
86886W        W87750  26.312  22.832  23.627 -0.1357  0.2891  0.2659
86887W        W87751  15.687  14.139   6.125 -0.0660  0.1370 -0.0370
86888W        W87752  26.890  18.636   1.255  0.0719 -0.5621  0.2106
86889W        W87753  24.219  28.695  19.929  0.0156  0.0125 -0.1146
86890W        W87754  16.344  17.908  28.411  0.1425 -0.1484 -0.1652
86891W        W87755  18.180   8.588  25.903  0.0410  0.0487  0.0747
86892W        W87756   5.375  14.912   8.119  0.1150  0.2666 -0.1796
86893W        W87757   7.238  14.385   6.230  0.0057  0.2093 -0.0247
86894W        W87758  10.009  12.126   3.622 -0.2186 -0.1933 -0.0822
86895W        W87759  17.572   9.641  25.223  0.2550  0.0012 -0.1534
86896W        W87760   5.172  16.241   1.491 -0.0225  0.1879 -0.1271
86897W        W87761  24.904  21.647   1.650 -0.1147 -0.1419 -0.1019
86898W        W87762   0.205   9.876  11.132  0.3039  0.0321 -0.0866
86899W        W87763   1.759  19.871   9.271  0.2073  0.2292 -0.0883
86900W        W87764   0.078  15.540  20.525 -0.4270 -0.2628  0.1415
86901W        W87765  20.437  21.652  22.863 -0.0487  0.0021 -0.1274
86902W        W87766  21.292  25.154  11.101 -0.3962  0.2952 -0.0456
86903W        W87767  11.309  13.737  17.859  0.0606  0.2318 -0.2128
86904W        W87768  16.824  20.663  14.881  0.1348 -0.0913 -0.0462
86905W        W87769  11.054  19.787  28.137  0.1045 -0.2356  0.1466
86906W        W87770   6.067  22.151   2.086 -0.0570  0.0649 -0.3652
86907W        W87771  12.438   8.402   5.842 -0.2864  0.2275  0.3728
86908W        W87772   8.839  18.520  11.142 -0.2375  0.0633 -0.2104
86909W        W87773  11.796  24.039   0.266 -0.2292 -0.1186  0.1079
86910W        W87774  14.493  18.284  18.147  0.0750  0.2828  0.2948
86911W        W87775  27.732  21.322   4.573  0.1513  0.3255 -0.1667
86912W        W87776  17.544  28.819  18.911 -0.0776  0.1550 -0.1655
86913W        W87777   0.073  25.693  24.992 -0.0963  0.0640  0.2150
86914W        W87778  13.196   0.714   1.203 -0.0307  0.1461  0.4170
86915W        W87779   5.722   3.852  18.218 -0.1280 -0.2580  0.1680
86916W        W87780  15.355  18.915   3.274  0.0189  0.2741 -0.1725
86917W        W87781   1.155  11.628  28.286 -0.1920  0.1480  0.0538
86918W        W87782  11.470   8.023  28.484 -0.2097 -0.1043  0.4348
86919W        W87783  11.610  24.440   6.474  0.1386  0.2713 -0.0388
86920W        W87784   0.460  18.579   1.646  0.0030  0.1651 -0.2764
86921W        W87785  18.619  13.684  25.763 -0.2502 -0.0119  0.1338
86922W        W87786  10.067  12.593  22.279  0.1412 -0.4098  0.1713
86923W        W87787   9.279  10.812  25.772  0.0562  0.0675  0.2814
86924W        W87788  13.150   1.955  18.019 -0.1859 -0.0025 -0.0268
86925W        W87789  13.087  22.251  26.504  0.0272 -0.0314 -0.1750
86926W        W87790  24.182  13.108  17.178  0.4066 -0.3163  0.0639
86927W        W87791  13.871  14.250   4.598  0.2225 -0.1820 -0.1399
86928W        W87792  22.219  11.950  24.772  0.1933  0.0346  0.0870
86929W        W87793   7.694  28.462  14.086 -0.0659 -0.2210  0.1350
86930W        W87794  23.961   5.525  26.096  0.1460 -0.0094  0.1678
86931W        W87795  23.344  10.858  27.032 -0.1048 -0.0836 -0.0457
86932W        W87796   4.096  12.116  16.943  0.2324  0.1474 -0.1329
86933W        W87797  18.137   6.954  13.445  0.0577  0.0555 -0.1085
86934W        W87798  12.318  27.773   1.556  0.0260  0.0907  0.1372
86935W        W87799  26.418   1.397  28.180 -0.0033 -0.0885 -0.0058
86936W        W87800   5.970   9.468  24.192  0.0002  0.1130  0.0593
86937W        W87801  16.287  14.231  28.347  0.3907 -0.1190 -0.0164
86938W        W87802  23.398  14.381  18.464 -0.0043  0.0506  0.0503
86939W        W87803  17.372   0.035  16.388  0.2403 -0.0561 -0.2970
86940W        W87804   3.369   6.267   6.965  0.0137 -0.0007  0.2889
86941W        W87805  19.717  12.686  25.153  0.2223  0.2289  0.3077
86942W        W87806  15.387  22.042  28.613  0.3698  0.1562  0.3570
86943W        W87807  11.191  26.231  15.182 -0.1379  0.2400 -0.2085
86944W        W87808   3.881  15.638   1.265 -0.1937 -0.1135 -0.0475
86945W        W87809   6.288  24.420   4.352 -0.0291  0.0931  0.1547
86946W        W87810  20.313   6.977  25.116 -0.4269  0.0543 -0.0372
86947W        W87811  24.727  20.197  23.632  0.4178 -0.0098 -0.0436
86948W        W87812   7.106  13.428  24.986 -0.1579  0.3979 -0.0513
86949W        W87813   1.937  23.192   4.791  0.1477 -0.0482 -0.1675
86950W        W87814  11.119  10.092  14.061  0.1319  0.3253  0.1132
86951W        W87815  16.624   4.240  15.637 -0.0514  0.0348 -0.2597
86952W        W87816  16.416   9.653  25.995 -0.2190  0.0789  0.1246
86953W        W87817   2.967   1.882  21.953 -0.0302  0.0834 -0.0176
86954W        W87818  19.112  16.423   5.389 -0.0366  0.0072 -0.3895
86955W        W87819  10.218  26.216   7.135  0.1019 -0.0614  0.1503
86956W        W87820  21.797  17.582   1.377  0.2202 -0.2300 -0.0034
86957W        W87821  22.449  17.932  24.486  0.2815  0.0160  0.0971
86958W        W87822   1.299  24.382  28.597  0.3129  0.1928  0.3255
86959W        W87823   4.657   9.426   7.664  0.1293 -0.1428  0.2123
86960W        W87824   3.708  23.928  28.572 -0.1503 -0.0145 -0.2662
86961W        W87825   8.321   4.666  19.156  0.0141 -0.0806 -0.1800
86962W        W87826  10.955   8.497   1.491 -0.0553  0.1992  0.0082
86963W        W87827   2.249  17.347   8.297  0.3962  0.2377  0.2740
86964W        W87828   9.464  16.544  27.435 -0.1354  0.4290  0.0544
86965W        W87829  18.624  28.204  27.259  0.3255 -0.2614 -0.0348
86966W        W87830  16.245  19.796   1.318 -0.2057 -0.0600  0.1227
86967W        W87831  14.477   7.389   1.931 -0.2063 -0.1537 -0.0732
86968W        W87832  17.324   2.739   3.726  0.0319 -0.2544  0.4799
86969W        W87833  19.562  22.139  25.646 -0.0293  0.1186 -0.1863
86970W        W87834  19.173  13.686  25.734 -0.2873  0.3540  0.1172
86971W        W87835  24.404  21.399  10.782  0.0521 -0.1094 -0.0903
86972W        W87836   5.524   3.266   1.430  0.0063  0.3518  0.0766
86973W        W87837  19.464   3.581  11.788 -0.1637 -0.1182 -0.3664
86974W        W87838  11.177  12.074  13.089  0.4789 -0.0298 -0.1751
86975W        W87839  18.463   9.052   9.679 -0.0760 -0.2355  0.0940
86976W        W87840   2.836  16.002  12.390  0.1909 -0.0286 -0.1492
86977W        W87841  14.005   5.522   0.789 -0.3029  0.2864 -0.0412
86978W        W87842  25.673  13.916   2.718 -0.3251  0.1694 -0.1863
86979W        W87843  13.535   3.826   6.651  0.0241  0.4478  0.2962
86980W        W87844   9.602   5.553  18.001  0.2058  0.2958  0.0168
86981W        W87845   5.553  27.089  16.222  0.0177  0.0464  0.1004
86982W        W87846  25.298   5.758  11.516  0.1450  0.0886  0.0046
86983W        W87847  15.789  22.739   0.024  0.2645  0.1585 -0.0356
86984W        W87848  11.674  16.444  10.177  0.1822 -0.3940 -0.2657
86985W        W87849  17.866   2.592  11.152 -0.2870 -0.2428  0.1075
86986W        W87850  21.654   9.809  15.211 -0.1499  0.1246 -0.1063
86987W        W87851  14.425  13.821  14.383 -0.1929  0.2993  0.1632
86988W        W87852   2.167  12.867   5.587 -0.3162  0.1478 -0.1601
86989W        W87853  18.663  15.155  21.300  0.4192 -0.0083  0.3213
86990W        W87854  18.480  28.375   9.474  0.0563  0.2788  0.0826
86991W        W87855  26.854  28.381   2.767 -0.0766 -0.0111  0.2364
86992W        W87856  27.121  13.628   1.926  0.2407 -0.2867  0.0321
86993W        W87857  15.302  24.212  28.822  0.1411 -0.1671 -0.0279
86994W        W87858   1.292  21.034   9.746  0.3282  0.1570  0.1747
86995W        W87859  20.066  24.323  20.738  0.2210 -0.0388  0.1514
86996W        W87860   3.325  11.977  26.730  0.1447  0.0155  0.1482
86997W        W87861   4.322  18.423   0.830 -0.1724 -0.1869  0.1471
86998W        W87862  10.393   4.500  16.999  0.0694 -0.2823 -0.0211
86999W        W87863  27.806  25.032  20.537 -0.1448  0.1101 -0.1209
87000W        W87864  11.522  17.353  17.562  0.1515 -0.2400  0.0663
87001W        W87865  28.085  12.942  15.524  0.0348  0.0359 -0.0405
87002W        W87866  27.718  18.551  24.194  0.0257 -0.0457  0.0605
87003W        W87867   4.020   4.574  29.089 -0.1463 -0.1140  0.0166
87004W        W87868  11.236  21.135   4.718 -0.3849 -0.3222 -0.0819
87005W        W87869  16.279  27.906  25.594  0.0929  0.1206  0.3052
87006W        W87870   8.248   3.492   8.271  0.1863  0.1431  0.3117
87007W        W87871   9.452  24.426   9.562  0.1493  0.0449  0.2384
87008W        W87872  15.435   2.355   5.047 -0.0819  0.0903 -0.1714
87009W        W87873  16.125   0.159  22.910 -0.2047  0.2452  0.0310
87010W        W87874  17.741   4.341  14.381 -0.3789  0.0398  0.1180
87011W        W87875  22.468  13.127  26.126 -0.1667 -0.3344  0.1177
87012W        W87876   9.780  12.008   7.119 -0.1834  0.3625  0.2218
87013W        W87877  12.874  24.373  10.232  0.1516 -0.1921 -0.5279
87014W        W87878  13.292  10.335  17.084 -0.3116  0.0442  0.0569
87015W        W87879   7.482  14.745  11.300 -0.0017  0.3235  0.2848
87016W        W87880  16.170  16.930  23.329 -0.1384  0.0795 -0.1038
87017W        W87881   8.680  21.226   9.595 -0.2780  0.1667 -0.0560
87018W        W87882  11.870   7.977   3.098  0.0122  0.1968  0.1813
87019W        W87883  27.521  13.738   0.287  0.2450 -0.0299 -0.0767
87020W        W87884  11.612   2.617  24.403  0.2264 -0.0737  0.0250
87021W        W87885  14.022   2.525  10.457  0.0537 -0.0931 -0.0549
87022W        W87886  27.942   4.522  17.555  0.2620 -0.1167  0.0854
87023W        W87887   2.593   3.830   8.273  0.0474  0.2003  0.0611
87024W        W87888  11.631   3.078   5.761  0.1148 -0.1576  0.1254
87025W        W87889  16.662  28.688  14.005 -0.3171 -0.1501 -0.1598
87026W        W87890  24.483  17.895   1.940 -0.2828  0.1009  0.0535
87027W        W87891  19.309   4.723   7.805 -0.1471 -0.0338 -0.1207
87028W        W87892  11.397   8.986  21.347  0.1954 -0.1036  0.1913
87029W        W87893  18.139  24.838  10.270 -0.1663  0.0295  0.1402
87030W        W87894  12.590   5.504   2.141  0.4595 -0.0498 -0.1784
87031W        W87895  25.420   7.337  24.246 -0.1282 -0.0342  0.2573
87032W        W87896   7.838  18.012   1.708 -0.1313  0.0401  0.0177
87033W        W87897  19.492  18.608   2.577  0.0014  0.2833  0.0943
87034W        W87898  23.446  26.058  29.035  0.1482 -0.0557 -0.2190
87035W        W87899  14.395  19.370  11.108  0.0095  0.0626  0.1284
87036W        W87900   0.775   7.569   9.098  0.4476 -0.4084 -0.2887
87037W        W87901  24.855  19.670   5.772 -0.0120  0.2999 -0.0974
87038W        W87902  22.949  17.883   1.510 -0.3071  0.2338  0.3034
87039W        W87903   6.526  26.542   2.106 -0.0650  0.2269 -0.4785
87040W        W87904   0.383  20.044  16.785  0.0295 -0.1549 -0.1319
87041W        W87905   4.916  19.521  22.595  0.0460  0.1086 -0.2299
87042W        W87906  28.532  19.710   3.226 -0.0941 -0.3130 -0.1306
87043W        W87907  13.947  24.462  20.100  0.2632  0.2454  0.1663
87044W        W87908  11.513  19.447  28.453 -0.0915 -0.1808 -0.3410
87045W        W87909  11.919  13.790  18.834 -0.1060  0.4020 -0.0368
87046W        W87910   9.403  11.305  17.152 -0.0222  0.0172 -0.0089
87047W        W87911  21.236   4.969   1.654  0.0045 -0.1856  0.1647
87048W        W87912   1.010  15.199   1.036  0.2425 -0.0561  0.1729
87049W        W87913  18.218  16.962   1.956 -0.2853 -0.1264 -0.1760
87050W        W87914  10.308  17.357   3.243 -0.0643 -0.3336 -0.1524
87051W        W87915  14.515   6.189   1.721 -0.1269 -0.3596 -0.1092
87052W        W87916  11.265   5.137  25.578 -0.0862  0.3863 -0.1472
87053W        W87917  13.875  17.819  10.541  0.0167  0.0566 -0.1331
87054W        W87918   7.991  14.967  15.204 -0.2505  0.0207 -0.1308
87055W        W87919   6.855   1.134  11.746  0.0701  0.2087 -0.1227
87056W        W87920   9.673  26.200  12.921 -0.0803  0.2858 -0.1594
87057W        W87921   7.072  16.388   6.000  0.4832  0.2525  0.1285
87058W        W87922  16.209  15.391  28.549 -0.3661 -0.1341 -0.0494
87059W        W87923  25.070  21.118  13.358  0.2107 -0.0061  0.0318
87060W        W87924  10.119  26.440   8.988  0.1884  0.0584 -0.0693
87061W        W87925  11.767  25.932   4.376 -0.0530 -0.4135 -0.3333
87062W        W87926  16.016  16.103  13.973  0.1989 -0.0749  0.0194
87063W        W87927  22.701  12.388  27.332 -0.0634  0.1975 -0.0690
87064W        W87928   1.210  11.823   9.094  0.0619  0.2023 -0.2288
87065W        W87929  23.821   8.946   8.682  0.0104 -0.2669  0.0985
87066W        W87930  20.461  24.662   4.263  0.2074  0.1081 -0.0752
87067W        W87931  16.562  20.802  15.918 -0.1667 -0.0142  0.0620
87068W        W87932   9.967  22.120   1.591  0.1618  0.1438 -0.2611
87069W        W87933  27.902  14.731   6.697  0.1418 -0.2389 -0.1899
87070W        W87934   9.611  13.776   8.004  0.2484 -0.0365  0.0966
87071W        W87935  16.395  11.425   9.073 -0.0897  0.1789 -0.1901
87072W        W87936  13.792  11.297  25.601  0.0067  0.0907  0.1738
87073W        W87937   7.844   5.939  22.328 -0.2922  0.0021 -0.2829
87074W        W87938  21.929  17.829   3.485  0.2723 -0.0412  0.1315
87075W        W87939   8.239   6.568   7.765 -0.0113  0.1440 -0.0542
87076W        W87940  15.612  17.523   5.580 -0.0025 -0.0518  0.1612
87077W        W87941  14.155  27.479  23.355 -0.0795 -0.1644 -0.0431
87078W        W87942  11.205  26.064  13.074 -0.2419 -0.1282  0.3346
87079W        W87943  10.545  11.227   7.830  0.2157  0.1715  0.0404
87080W        W87944   7.975  15.206  14.738 -0.4043  0.0485  0.1216
87081W        W87945  16.500  11.853   7.553 -0.0669 -0.0727  0.2728
87082W        W87946  10.478   5.815   7.573  0.2750 -0.1710  0.3297
87083W        W87947  23.714  28.171  13.510  0.1202  0.1462 -0.3222
87084W        W87948  17.683   2.405  26.793  0.1551 -0.2765  0.3879
87085W        W87949   0.636  16.561   6.123 -0.0736  0.1796  0.0910
87086W        W87950  12.193   7.028   5.405 -0.1837 -0.0337  0.1221
87087W        W87951   5.242   3.036  13.799 -0.0681  0.0206  0.1556
87088W        W87952   3.147   7.910  12.227 -0.1106 -0.1304 -0.1380
87089W        W87953  14.284  12.341  15.924  0.1238  0.0565  0.0090
87090W        W87954  16.964   9.184   3.612  0.0587 -0.1252 -0.4222
87091W        W87955  29.031  19.209   6.343  0.2514  0.1093 -0.1185
87092W        W87956  20.930  18.413   3.930 -0.0856  0.0671 -0.0202
87093W        W87957  26.924   5.414  28.358 -0.3061  0.0630 -0.0372
87094W        W87958   8.700   8.230  23.840  0.1020 -0.3113 -0.0492
87095W        W87959  14.146  14.162   5.165 -0.1634  0.1652  0.1501
87096W        W87960  22.751  11.980  25.585 -0.0014 -0.0176 -0.1605
87097W        W87961  13.757  22.212  27.941 -0.1833  0.0496  0.0741
87098W        W87962   8.429   9.038   3.314 -0.2348  0.0367  0.1684
87099W        W87963  15.239  16.486  21.135  0.0466 -0.1646  0.1342
87100W        W87964   2.187  16.596  28.528  0.1242 -0.3350 -0.4214
87101W        W87965   8.676  22.269  17.067  0.0452  0.0684 -0.0225
87102W        W87966  25.781   3.608  28.907 -0.1982 -0.0563  0.3783
87103W        W87967  11.313  11.550  12.890  0.2466  0.0940  0.4718
87104W        W87968  12.743   0.138  24.190  0.2636  0.2849 -0.1324
87105W        W87969  13.253  13.576   5.801  0.0336 -0.1972  0.0096
87106W        W87970  16.273  20.061   8.495  0.0294  0.0763 -0.2245
87107W        W87971  18.675  25.751  27.275  0.0731 -0.0756 -0.3288
87108W        W87972  19.137  13.361  22.935  0.1795  0.1646  0.0504
87109W        W87973  27.835  11.559   3.085  0.0571 -0.4823 -0.1165
87110W        W87974   5.925  18.722  26.919  0.1240  0.0501  0.2153
87111W        W87975   2.852   8.449  24.939  0.2813 -0.0998 -0.1031
87112W        W87976  23.459  12.660  18.256 -0.2949 -0.0817 -0.4149
87113W        W87977   3.065  20.259   6.448 -0.0630 -0.0549  0.0682
87114W        W87978   9.740  15.838  23.526  0.1390  0.1297 -0.1169
87115W        W87979  15.811  21.087  17.348 -0.0632  0.1140  0.0468
87116W        W87980  19.572   6.106   4.562  0.0917  0.1846  0.0646
87117W        W87981   7.110   1.706   2.140 -0.1521  0.3762 -0.0987
87118W        W87982  20.216   3.904  17.094 -0.2112 -0.0950  0.0138
87119W        W87983  24.285  28.895  14.033  0.2688 -0.0660 -0.1201
87120W        W87984   6.861  20.037   1.765 -0.0313  0.3089 -0.0429
87121W        W87985  18.540  16.053  10.300 -0.4166 -0.0325  0.0898
87122W        W87986  12.469  15.605  27.125  0.0327  0.1166 -0.0158
87123W        W87987  15.637   5.211  22.953  0.1761 -0.0606 -0.0900
87124W        W87988  14.851  19.123  17.059  0.1204  0.0181 -0.0158
87125W        W87989   3.049   6.011  16.321  0.1151 -0.2571 -0.3878
87126W        W87990  20.245  27.392   9.816  0.0067  0.0164  0.4881
87127W        W87991  16.572   6.886  13.003  0.0323 -0.0870  0.0285
87128W        W87992  15.802   8.468  25.374  0.2011  0.1549  0.0155
87129W        W87993  13.814   4.249   5.690  0.0190 -0.1051 -0.0176
87130W        W87994  25.024  10.246  15.650 -0.3686 -0.0379  0.0063
87131W        W87995  16.083  15.949  26.882  0.2043  0.4316  0.2898
87132W        W87996   2.326  18.109   3.390  0.0012 -0.1644 -0.1100
87133W        W87997  14.900  16.236   8.455 -0.0140 -0.3363 -0.0432
87134W        W87998  15.247  12.356  23.918 -0.1211  0.2583  0.1637
87135W        W87999  16.556  16.617  14.066  0.3784  0.1471 -0.1225
87136W        W88000   8.599  20.112   9.852  0.0008 -0.4273 -0.4092
87137W        W88001   5.283  13.139  10.595 -0.3091  0.1637  0.0142
87138W        W88002  17.862   5.514  13.233 -0.1076 -0.3601  0.2908
87139W        W88003  16.726   1.722  28.496 -0.2733  0.0689  0.1267
87140W        W88004  15.275   3.748   6.970  0.0652 -0.0142 -0.2896
87141W        W88005   7.759  28.581  14.766  0.0915  0.1454  0.0015
87142W        W88006   3.793   8.344  25.422 -0.0313  0.1850 -0.1700
87143W        W88007  14.859  10.791  13.814 -0.1714  0.1441 -0.0823
87144W        W88008  17.022  20.796  27.689 -0.1761 -0.1479  0.1562
87145W        W88009   7.849  25.722  21.841 -0.0718 -0.0976 -0.1300
87146W        W88010   7.905  25.099   5.711 -0.1688 -0.0257  0.1787
87147W        W88011  21.018  13.761   6.659  0.1469 -0.0695 -0.1725
87148W        W88012   8.612   2.262   1.018  0.2044 -0.2983 -0.0934
87149W        W88013   4.190  22.328   0.110  0.1492  0.0059  0.1826
87150W        W88014  26.429   0.879   5.669 -0.0331 -0.0192 -0.0948
87151W        W88015  26.319  10.664  13.280 -0.1778 -0.1503  0.1518
87152W        W88016  13.006  20.845  27.003 -0.0514 -0.2302 -0.1583
87153W        W88017   6.830  27.040   8.439  0.0178 -0.1085 -0.5515
87154W        W88018  10.939   6.979  25.340  0.0205  0.0921 -0.1905
87155W        W88019   7.448  21.021   7.632  0.1847 -0.0008  0.0600
87156W        W88020  26.284  27.346  26.701 -0.0714 -0.2499 -0.0193
87157W        W88021   9.353  12.592  22.902 -0.1642 -0.2141 -0.2028
87158W        W88022   3.325  19.414   3.375 -0.0455 -0.0351  0.0408
87159W        W88023  15.033   9.403   2.349 -0.0199 -0.3042  0.2685
87160W        W88024  26.735   9.031  18.550 -0.0198 -0.1963  0.2008
87161W        W88025  23.994   8.503  20.249  0.1298 -0.1542  0.1394
87162W        W88026   8.253  11.187   1.079 -0.0516  0.2284  0.0330
87163W        W88027  17.912  24.949  27.377 -0.0472  0.1263 -0.2599
87164W        W88028  20.935  15.385  13.680 -0.2520 -0.0607 -0.1481
87165W        W88029  14.429   8.810   0.301 -0.0306  0.1810 -0.1123
87166W        W88030  21.955   3.135  11.918  0.0764  0.1435 -0.4933
87167W        W88031   9.257  16.315   7.058 -0.1900 -0.2982  0.0363
87168W        W88032  10.357  17.524   8.996 -0.0649 -0.0801  0.2778
87169W        W88033   5.231  19.047  26.287 -0.2306  0.2717  0.1283
87170W        W88034   8.873  17.650  11.020 -0.2337  0.1409  0.0118
87171W        W88035   8.246  13.125  10.227  0.0754  0.0044  0.0815
87172W        W88036   7.421  13.123  25.281  0.0082  0.2562  0.1190
87173W        W88037  20.995  27.979   8.041 -0.2741 -0.2340 -0.2327
87174W        W88038   2.416  28.674  11.857 -0.0603 -0.0483 -0.3698
87175W        W88039   7.665  18.331   0.360  0.1140 -0.0124  0.3562
87176W        W88040   5.602   4.942   7.965  0.4674 -0.2169  0.0047
87177W        W88041   6.747  22.794  24.755  0.1934 -0.1226  0.1105
87178W        W88042  21.324   7.958   6.150 -0.3848  0.1693  0.3802
87179W        W88043  12.508   5.282  15.254 -0.1292  0.0338  0.0812
87180W        W88044   9.830  25.817  26.805  0.1345  0.2519 -0.3068
87181W        W88045  26.088  18.073   0.895  0.0125 -0.0510 -0.0563
87182W        W88046  15.425   2.089   2.418 -0.0994  0.0038  0.0487
87183W        W88047   1.836  13.162  10.246  0.0369  0.1069  0.2154
87184W        W88048   8.692  19.224   5.891  0.0542  0.1508 -0.0725
87185W        W88049  27.053  10.030  13.984  0.1757  0.0512 -0.2014
87186W        W88050  23.805  10.007  22.604 -0.0832  0.3199 -0.3676
87187W        W88051  12.233   2.589   4.613  0.2193  0.2999 -0.0695
87188W        W88052  28.722   1.374  21.452 -0.0601  0.2557  0.1179
87189W        W88053  17.036   0.538  25.439  0.1738 -0.0809  0.0844
87190W        W88054  14.516  18.068   0.992  0.2883 -0.0885 -0.0776
87191W        W88055  10.494   6.302   0.547 -0.2018  0.1652  0.1030
87192W        W88056   6.534   0.941   7.717 -0.3706 -0.0506 -0.1074
87193W        W88057  13.937  10.738   3.669 -0.1216  0.2674 -0.2408
87194W        W88058  16.540  12.180  11.182 -0.0430  0.2303 -0.0750
87195W        W88059   0.847  10.637   4.524  0.2189  0.0640 -0.0112
87196W        W88060   3.535   2.379   4.887 -0.2921 -0.1103  0.2006
87197W        W88061   1.850  11.568  11.723 -0.1918  0.1779  0.1238
87198W        W88062  20.980  14.228   5.804 -0.1782 -0.1167 -0.0125
87199W        W88063  13.804  10.838   2.248  0.0543 -0.1119 -0.5397
87200W        W88064   5.345  16.815  20.131 -0.0593  0.1287  0.1039
87201W        W88065   9.410  22.440   6.978  0.0233 -0.1489 -0.2409
87202W        W88066   8.907  16.315  17.320 -0.1107  0.0627 -0.0250
87203W        W88067  19.528  27.752  19.406  0.0696  0.2044 -0.2473
87204W        W88068  22.619  17.559   4.132 -0.0533  0.0722  0.1888
87205W        W88069  26.053  28.298   6.648  0.5302  0.2742 -0.0033
87206W        W88070   2.592   4.739  25.409 -0.0665  0.1383 -0.0636
87207W        W88071   5.480  14.258   1.766  0.1128 -0.2778  0.0021
87208W        W88072  16.364  17.247  27.852 -0.0116  0.0929 -0.1991
87209W        W88073  21.357  25.708   9.064 -0.0460 -0.0677 -0.2262
87210W        W88074  24.495  10.186  14.360 -0.1543  0.1296 -0.0790
87211W        W88075   3.661  21.943   2.634  0.1650 -0.1372 -0.2027
87212W        W88076  22.778  14.351  18.380  0.0812  0.3445  0.1509
87213W        W88077   0.128   8.448   2.598 -0.0460  0.1307  0.2322
87214W        W88078   1.354  13.857  17.562 -0.2647 -0.0337 -0.1256
87215W        W88079   9.387  19.935  25.800 -0.0919  0.0862 -0.0639
87216W        W88080  18.152  20.231  23.953 -0.0369 -0.1547 -0.1764
87217W        W88081  10.370  17.480   5.350 -0.1218  0.1290  0.4526
87218W        W88082   5.618   5.102  22.139 -0.2199  0.4495  0.0727
87219W        W88083  11.299  10.944   8.621  0.1326 -0.5943  0.0098
87220W        W88084  11.677  22.236  14.145 -0.0786  0.0123  0.0052
87221W        W88085   6.628  29.108  13.177 -0.1041 -0.1188  0.2624
87222W        W88086  24.032   1.614  25.275  0.0099 -0.2168  0.0493
87223W        W88087  15.997  11.792   5.058  0.1473 -0.0603 -0.0778
87224W        W88088  21.650  11.334  29.144  0.0544 -0.1341 -0.1287
87225W        W88089   2.755   2.109   2.471 -0.1545  0.1345 -0.0369
87226W        W88090  19.340  18.533  21.733  0.2411 -0.0787  0.1544
87227W        W88091  22.293   4.976  19.704  0.0709 -0.1793 -0.1203
87228W        W88092  10.871  12.288   8.095 -0.0848 -0.1965  0.0499
87229W        W88093  22.546   7.030  28.693  0.0884  0.0399  0.0279
87230W        W88094  21.588  21.725  13.901 -0.1857 -0.1113  0.0867
87231W        W88095   7.848   2.356  23.390  0.0108  0.2200 -0.0127
87232W        W88096  17.527  12.740   9.736 -0.0046  0.0960 -0.0064
87233W        W88097  20.362  22.003  17.701 -0.0285  0.1556  0.2395
87234W        W88098  17.281  20.818  13.525  0.0574  0.1079  0.0429
87235W        W88099   8.630  23.915   9.740  0.0646  0.0040  0.2888
87236W        W88100  19.528   7.155   2.216 -0.2978 -0.1903 -0.0895
87237W        W88101  22.227  18.903  27.273  0.0824 -0.1295  0.1222
87238W        W88102  11.211   7.337  22.483 -0.0049 -0.0632  0.0603
87239W        W88103  23.337   7.003   4.693 -0.0284  0.2726 -0.0319
87240W        W88104  27.566   9.908  11.980  0.1327  0.3245  0.1495
87241W        W88105   4.053  14.007   5.815  0.3433  0.2002  0.2527
87242W        W88106  21.461  23.029  16.618  0.0235  0.3805 -0.1115
87243W        W88107   4.101   8.245   1.120 -0.1180 -0.1047  0.0213
87244W        W88108  12.396  20.645  28.380  0.1187 -0.1487  0.1250
87245W        W88109   2.090   5.688  28.824 -0.3622 -0.1957  0.0440
87246W        W88110  10.913  17.857   0.703 -0.0497 -0.3212  0.0445
87247W        W88111  27.526  11.247  28.301  0.0693  0.0630  0.0067
87248W        W88112  13.232  19.427   4.485 -0.0476  0.1278  0.1771
87249W        W88113  16.511  21.451  21.218  0.3187 -0.2957 -0.1674
87250W        W88114  27.774  13.413  28.367 -0.1411 -0.1115 -0.2177
87251W        W88115  21.066  12.364  25.166 -0.0685  0.1554 -0.1163
87252W        W88116  18.905  13.665  16.340 -0.0888 -0.0874 -0.0137
87253W        W88117  22.001  15.830   8.843  0.0968  0.2897 -0.3368
87254W        W88118   1.669   4.979   8.358  0.5549  0.5544  0.2763
87255W        W88119  10.772   4.553  17.358 -0.1351  0.0391  0.4926
87256W        W88120   7.216  20.269  19.568  0.1783  0.0608  0.0409
87257W        W88121  19.355  26.519  21.701 -0.4068  0.3990  0.2368
87258W        W88122  15.727  18.538  28.186  0.0078 -0.0800  0.1056
87259W        W88123   7.001   8.823   7.461  0.2078  0.0113 -0.0130
87260W        W88124   9.447  22.578   1.550  0.1626 -0.0524  0.1288
87261W        W88125  18.778   2.441   2.792 -0.2095  0.0313 -0.1823
87262W        W88126  18.964  24.187   3.104  0.2516  0.3257 -0.0932
87263W        W88127  22.047   5.904  22.035  0.1870  0.1194  0.0258
87264W        W88128  10.337  24.982  22.167  0.0942  0.0045  0.3176
87265W        W88129  12.241  19.038   5.649  0.1995 -0.5994 -0.1164
87266W        W88130  16.579  26.162  10.679  0.1768  0.2402  0.1896
87267W        W88131  11.177  27.216  19.393  0.0679  0.0494 -0.2494
87268W        W88132   8.087  24.887  26.555 -0.1495 -0.0069 -0.1654
87269W        W88133  15.633   9.225  18.242 -0.0805 -0.0534  0.0931
87270W        W88134   4.831   9.830  17.706  0.1192  0.1983  0.0788
87271W        W88135  15.054  12.281  15.756  0.1348  0.1275  0.2208
87272W        W88136  12.027  15.578   7.687 -0.1471 -0.0680 -0.1759
87273W        W88137  17.382  28.828   6.470  0.0549  0.2247  0.0414
87274W        W88138  24.184   4.887  15.422 -0.0438  0.1033  0.1076
87275W        W88139  24.671  21.176  18.987 -0.1909  0.2264 -0.1356
87276W        W88140   2.153  28.269  10.537 -0.2020 -0.0400 -0.0493
87277W        W88141  18.465   4.481  10.568  0.2551  0.2243 -0.0247
87278W        W88142  27.462   5.736   1.744 -0.3569  0.0428  0.1242
87279W        W88143  11.485  17.160   9.930 -0.1683  0.0149 -0.0191
87280W        W88144   3.246   5.011   5.017 -0.1108 -0.2108 -0.0810
87281W        W88145  19.879  16.924   4.219  0.2343  0.0861 -0.0990
87282W        W88146   9.983  11.872  17.567 -0.2913 -0.1428  0.2967
87283W        W88147  11.817   0.696   2.707  0.0026  0.0523  0.0760
87284W        W88148   6.978   2.774  11.298 -0.1812  0.1542  0.0073
87285W        W88149   6.998  27.511   3.399 -0.0963  0.3153  0.0920
87286W        W88150   5.837  15.210  24.280 -0.2152  0.2428 -0.0659
87287W        W88151  23.259   6.872  23.765 -0.2362  0.0581  0.3402
87288W        W88152  13.169   8.002  10.068  0.0221  0.0518  0.1415
87289W        W88153  18.470   8.287  17.872  0.1511  0.1635  0.2317
87290W        W88154  13.939  15.149  15.441 -0.0340  0.1663  0.2017
87291W        W88155  26.737   9.164  24.946  0.0149 -0.0305  0.0488
87292W        W88156  16.084  20.530   4.179  0.0775  0.2394  0.3113
87293W        W88157  15.501   2.913  17.142  0.1410 -0.0354 -0.0398
87294W        W88158  22.808  14.246   7.687  0.2852 -0.0668  0.0037
87295W        W88159   1.718  14.829  12.361 -0.1985 -0.0725  0.0737
87296W        W88160  15.005  18.219   0.795  0.1261 -0.2629  0.0666
87297W        W88161  14.898  25.767  18.473  0.0578  0.1589  0.0006
87298W        W88162   2.652  11.600  12.232  0.0818  0.0926 -0.0297
87299W        W88163  13.695  29.028  19.306  0.5170 -0.2404 -0.0080
87300W        W88164  24.558  16.458  12.087  0.0619 -0.1967 -0.3990
87301W        W88165  16.574   9.356  28.220  0.0067  0.2178  0.2096
87302W        W88166  24.573  27.912  23.835  0.0818 -0.0924 -0.0923
87303W        W88167   4.279  15.796  27.638 -0.2004  0.0208 -0.2032
87304W        W88168   5.697  21.456  28.427 -0.1442 -0.2895 -0.4225
87305W        W88169  17.467  17.363   4.986 -0.2235  0.5345  0.1199
87306W        W88170  16.448   3.666  28.367 -0.2599 -0.2477  0.1176
87307W        W88171   4.319  18.234  24.979  0.3232  0.0605 -0.0116
87308W        W88172  26.764  22.905  22.236  0.1869 -0.2920 -0.3355
87309W        W88173  11.904  19.737  22.571 -0.1214 -0.0190 -0.0383
87310W        W88174   5.110   7.521   1.451 -0.0058  0.1879  0.1758
87311W        W88175   0.804   5.472   9.853 -0.4230  0.1430  0.0045
87312W        W88176  23.881   1.343  13.912  0.0153 -0.1136  0.1187
87313W        W88177   2.215   6.888  23.324  0.2330  0.0147  0.1172
87314W        W88178  10.369   5.738  28.241  0.0013  0.0408  0.2344
87315W        W88179  10.831   3.651  25.887 -0.1206  0.0522 -0.1391
87316W        W88180  11.055  22.171   3.655 -0.0998 -0.0793 -0.1466
87317W        W88181   8.543  21.351  19.285  0.1040  0.2557 -0.2343
87318W        W88182  27.456  18.005   7.317 -0.2177  0.2122  0.4134
87319W        W88183   6.483  28.286   2.189  0.0630  0.3973 -0.1121
87320W        W88184  24.614   2.045   9.655 -0.1437 -0.0355  0.1673
87321W        W88185   5.991   4.861  18.431 -0.0554  0.1103  0.0651
87322W        W88186   2.659  14.808   2.744 -0.1574  0.3167  0.2268
87323W        W88187   2.058  10.999   9.973  0.1170  0.0242  0.1263
87324W        W88188  15.036  21.607  15.622 -0.0064  0.0539  0.3648
87325W        W88189  21.342   5.752  14.400  0.2127  0.2401  0.0641
87326W        W88190  21.353  13.722  15.610 -0.0964 -0.1419 -0.0050
87327W        W88191  17.469  25.463  23.581 -0.1150  0.0250 -0.0215
87328W        W88192  22.411   2.375   1.944  0.0089 -0.1832 -0.1353
87329W        W88193  18.085  17.768  17.615  0.1140 -0.0216  0.1688
87330W        W88194  16.513  21.046  10.809 -0.0931 -0.0218  0.3463
87331W        W88195  11.961   4.645   5.585 -0.0309  0.0382 -0.0504
87332W        W88196   7.100  13.613  10.487  0.2626  0.2311  0.0245
87333W        W88197  26.194   2.659  27.773  0.1957  0.1403  0.0341
87334W        W88198   4.257   4.882  17.913 -0.0616  0.3914  0.3624
87335W        W88199  21.042   5.027  25.391  0.1518 -0.3139  0.1591
87336W        W88200   1.109  17.314  12.280 -0.1960 -0.2106 -0.0494
87337W        W88201   8.503  21.193  11.668 -0.0634  0.1946 -0.0819
87338W        W88202  16.171   9.853   6.084  0.2222 -0.0229 -0.1527
87339W        W88203   8.503  20.514  27.489  0.2261 -0.0101 -0.5871
87340W        W88204  16.614   8.668   9.545 -0.0245 -0.6574  0.0037
87341W        W88205  21.518  21.643  28.851 -0.0509  0.2965 -0.1787
87342W        W88206  27.776  14.194  25.768 -0.2154 -0.2067 -0.0988
87343W        W88207  15.833  13.667   0.033  0.3818  0.0424 -0.0901
87344W        W88208  20.529  28.409  20.350  0.0844 -0.1397 -0.0821
87345W        W88209  22.542  15.997   2.174 -0.0404 -0.0043  0.2100
87346W        W88210   3.645   8.742  18.130  0.1215 -0.2495 -0.0399
87347W        W88211  12.918  21.253  18.136 -0.4560 -0.0012  0.0949
87348W        W88212   8.449  17.795  10.821 -0.1283  0.0338 -0.0916
87349W        W88213  12.408  14.876  15.920 -0.2521  0.0933  0.0840
87350W        W88214  19.896   2.440  12.584 -0.0547 -0.4236 -0.1594
87351W        W88215   1.492  28.778  18.163  0.0313  0.3091 -0.0662
87352W        W88216  17.568   6.615  21.376  0.2694  0.0438 -0.0510
87353W        W88217  17.951  14.221  11.359  0.1571  0.1772  0.0282
87354W        W88218  10.537   8.851  13.356 -0.1478 -0.0396  0.1604
87355W        W88219  11.794   0.005   0.568 -0.0268 -0.1451  0.4389
87356W        W88220   6.641   2.088   9.133  0.0690  0.0551 -0.3620
87357W        W88221  22.106   4.632  28.816 -0.0964 -0.0577 -0.0015
87358W        W88222   1.233   3.385   4.851  0.0100  0.0726 -0.0494
87359W        W88223  19.838  12.374   3.075 -0.0180 -0.0167 -0.2048
87360W        W88224  28.780  10.168  18.798  0.1986 -0.2058 -0.5172
87361W        W88225  11.115   9.855  19.310 -0.0509  0.0022 -0.0223
87362W        W88226   7.334  14.113  22.603  0.1007 -0.1795 -0.3663
87363W        W88227   0.227   8.422   1.697  0.3251  0.1631 -0.1898
87364W        W88228  11.727  13.117   4.358 -0.0858  0.2163  0.1639
87365W        W88229   8.026  20.312  12.768  0.2200  0.0436 -0.0918
87366W        W88230  19.586   2.688   5.771 -0.5866  0.5837 -0.2426
87367W        W88231   3.444   6.988   0.576 -0.2677 -0.2398  0.0901
87368W        W88232   8.125  15.472  25.531 -0.0109  0.1194 -0.1073
87369W        W88233  14.634  14.106  26.501  0.0443  0.1003 -0.2294
87370W        W88234  13.973  25.522   3.525 -0.0128  0.0480  0.1409
87371W        W88235  27.823  14.192   7.250 -0.1886  0.2146 -0.2149
87372W        W88236  12.751  21.970  28.645 -0.4386  0.0044 -0.1468
87373W        W88237   7.311  19.380  15.372  0.0354 -0.0583  0.4399
87374W        W88238  10.660  25.482   7.325  0.2498  0.1694 -0.1553
87375W        W88239  17.823  16.455  19.671 -0.1379 -0.2483  0.0162
87376W        W88240  18.350  16.275  12.571 -0.1432  0.1291  0.2288
87377W        W88241  17.624  11.600   9.546  0.0236 -0.1888 -0.2428
87378W        W88242  19.482   8.484  14.542  0.0412 -0.1155  0.0233
87379W        W88243  13.929   5.697   4.350  0.0449  0.0373 -0.1660
87380W        W88244   4.545  16.474  12.584  0.2309 -0.0216 -0.0841
87381W        W88245   5.087   1.699  27.680 -0.1125 -0.2090  0.0372
87382W        W88246  22.259   9.947   2.143  0.0479 -0.1158 -0.3716
87383W        W88247  10.250  15.434   4.773  0.0051  0.0352 -0.0914
87384W        W88248   0.185  11.536  23.036  0.2392 -0.3904 -0.1021
87385W        W88249  16.008   5.039   0.843 -0.3128  0.0352 -0.0318
87386W        W88250  25.524  25.651  15.342 -0.0533  0.1385  0.0577
87387W        W88251  15.306  13.592   1.722  0.0828 -0.0451 -0.0844
87388W        W88252  14.225   4.147  15.570  0.0704 -0.0007  0.1255
87389W        W88253   8.481  13.268   3.825 -0.0005 -0.1817  0.0845
87390W        W88254  19.243  18.623   0.334  0.0920 -0.1625  0.0376
87391W        W88255  16.647   9.429  15.141  0.0616  0.0457  0.2935
87392W        W88256   0.736  23.275  27.352  0.2469 -0.1998 -0.0741
87393W        W88257  13.579  21.705   3.040 -0.0719  0.0174 -0.3892
87394W        W88258  28.704   9.015  10.983 -0.1656 -0.2225 -0.0410
87395W        W88259  15.143  17.480  10.826  0.2274 -0.0130  0.0713
87396W        W88260  21.004  14.486  15.095  0.0786  0.0416 -0.0277
87397W        W88261  10.689  11.336  13.613 -0.0229  0.1452  0.0496
87398W        W88262  18.527  15.644  14.568  0.0961 -0.1593  0.1480
87399W        W88263  25.364   7.891  17.940  0.1895  0.0024 -0.1711
87400W        W88264  15.777  16.173   1.661  0.1380 -0.0816 -0.3780
87401W        W88265  12.487   6.199  27.462  0.2286 -0.1345  0.1309
87402W        W88266  17.102   6.004   6.925  0.0398  0.0900 -0.1239
87403W        W88267  12.455  16.651  25.558  0.3488 -0.1720  0.2043
87404W        W88268  27.281  22.313   7.827  0.2217 -0.2576 -0.0753
87405W        W88269  27.187  10.502  14.227  0.1142  0.0875 -0.1164
87406W        W88270  26.861   8.586   9.441  0.3553  0.2367 -0.3959
87407W        W88271   9.169  18.781   2.824 -0.1067 -0.0751  0.0843
87408W        W88272  16.781  13.374  28.199 -0.1630 -0.0930 -0.0310
87409W        W88273  23.957  22.740  19.298 -0.2037  0.2658 -0.1500
87410W        W88274  27.848   7.461   5.318 -0.1555  0.0039  0.0539
87411W        W88275  10.551  25.712   4.766 -0.0325 -0.2014  0.0863
87412W        W88276   1.260  12.022  15.592 -0.1014  0.2815  0.0443
87413W        W88277   7.275   1.614   6.758  0.1035  0.1757  0.0086
87414W        W88278  21.501  13.416   7.044  0.1520 -0.0038 -0.1926
87415W        W88279   6.744  18.739  19.846  0.0876 -0.1148 -0.0619
87416W        W88280  15.514  27.690  15.418 -0.2678 -0.1144 -0.0421
87417W        W88281  12.422  18.077  10.355 -0.0023 -0.0986 -0.0812
87418W        W88282  23.236  28.119  14.524 -0.1564 -0.2878  0.3505
87419W        W88283  15.031  25.318  11.478 -0.1041  0.1033 -0.3657
87420W        W88284  11.610   0.468  20.855  0.2595  0.0959  0.0986
87421W        W88285   8.442  11.592  24.559 -0.0907  0.1390 -0.0558
87422W        W88286   9.385  17.998   2.646  0.1506 -0.1702 -0.0211
87423W        W88287   5.889  11.326  23.919 -0.2048 -0.2555 -0.0036
87424W        W88288   7.478   8.047   1.643 -0.1859  0.1688  0.0436
87425W        W88289  14.181  12.364  20.973 -0.0074 -0.0555 -0.0217
87426W        W88290   4.082  12.781  28.010  0.0155  0.1358 -0.2122
87427W        W88291   7.996  16.565   1.524  0.0712 -0.0204  0.0944
87428W        W88292   8.956  27.771  11.270  0.0785 -0.0764 -0.1212
87429W        W88293  18.562   5.456  23.383 -0.0564  0.2177 -0.5949
87430W        W88294  24.846  20.561   0.501  0.1802 -0.1723 -0.1058
87431W        W88295  22.636  18.553  18.032  0.0212 -0.2063 -0.0033
87432W        W88296  25.369  12.600   8.181 -0.2444  0.0079 -0.2518
87433W        W88297   1.851  12.857  15.273 -0.0843 -0.1748  0.2023
87434W        W88298  11.756  22.728  16.563  0.1530  0.4460  0.2078
87435W        W88299   0.743  27.624  15.311 -0.0291  0.0412  0.3284
87436W        W88300  29.135   1.033   7.486 -0.0206 -0.1108 -0.1582
87437W        W88301  13.677   8.277   9.218 -0.0535 -0.0432 -0.1162
87438W        W88302   6.541  11.339  25.641 -0.1483 -0.1501 -0.2646
87439W        W88303  13.030  19.192   4.905 -0.1602  0.0740 -0.4092
87440W        W88304   9.059   3.212   8.458 -0.0302 -0.1112  0.1605
87441W        W88305   3.350  14.080  21.771 -0.1534 -0.1552  0.1885
87442W        W88306   1.285  10.718   5.237 -0.1713  0.1763  0.2251
87443W        W88307  28.974  11.260   8.506  0.2736 -0.0637  0.1685
87444W        W88308   5.994   5.863  11.746 -0.0339 -0.2422  0.0024
87445W        W88309  15.376   5.477  21.323  0.0667  0.0918 -0.0114
87446W        W88310   4.990  20.543  16.845  0.1105  0.0315  0.0257
87447W        W88311  13.214   5.782   6.086 -0.0639  0.0417 -0.3132
87448W        W88312   2.654  27.890  18.135 -0.2634  0.4140 -0.4106
87449W        W88313   6.408   2.587  22.966 -0.0575  0.1955 -0.1704
87450W        W88314  16.450   3.950   1.925  0.1272  0.0347 -0.0940
87451W        W88315  13.884  21.333  13.829 -0.3625  0.1563  0.0070
87452W        W88316  16.547  20.563  27.753  0.1096  0.2186 -0.0213
87453W        W88317   4.639  15.451  19.773  0.1096 -0.2292 -0.0388
87454W        W88318  25.584   6.503   5.580 -0.2116 -0.0081 -0.1628
87455W        W88319  26.407   5.571  28.091  0.0628 -0.4988 -0.1116
87456W        W88320   6.341  26.618   4.729  0.0609  0.0689  0.2669
87457W        W88321   9.920  26.436   2.896 -0.1914 -0.3997 -0.2598
87458W        W88322  18.842  11.301  12.738 -0.2294  0.1448  0.1794
87459W        W88323  25.781  17.861  23.742  0.0160 -0.2652  0.0919
87460W        W88324  24.518  13.566   2.711  0.1295 -0.5563  0.1527
87461W        W88325   8.180  20.823  11.434  0.2895 -0.4427  0.1290
87462W        W88326  17.248   7.433  23.042 -0.3762  0.0415 -0.1017
87463W        W88327   9.328  12.111  28.605 -0.0916  0.2144 -0.0925
87464W        W88328   8.926  26.904   7.163  0.1090 -0.1677 -0.1995
87465W        W88329  16.488  29.137  27.402 -0.1687 -0.0408  0.1429
87466W        W88330  23.197  25.387  28.354 -0.0391  0.0420 -0.0947
87467W        W88331  16.693  17.952  15.410  0.0515  0.0620 -0.0171
87468W        W88332  12.145  25.008  13.370  0.0782 -0.1139  0.5724
87469W        W88333   4.278  23.086  11.189  0.1689 -0.2838 -0.0545
87470W        W88334  16.144  10.676   4.696  0.0013 -0.0497 -0.1015
87471W        W88335   1.224   4.163  10.793 -0.2660 -0.0672 -0.1674
87472W        W88336  27.914   0.249  18.960 -0.0829 -0.1433 -0.0699
87473W        W88337  15.133  23.806  10.499  0.2499  0.0108  0.0752
87474W        W88338   2.469  27.820  29.144  0.3475 -0.0102 -0.0584
87475W        W88339  14.936  16.059  24.216 -0.0629 -0.2719 -0.0665
87476W        W88340   0.059   9.145  10.873  0.3382  0.0798  0.2081
87477W        W88341   2.394  14.670   8.980 -0.0407  0.2436 -0.1562
87478W        W88342  22.121   5.292   3.476  0.1958 -0.1174 -0.4711
87479W        W88343   6.364  13.580  21.863 -0.0377 -0.0273 -0.0273
87480W        W88344  18.114   6.126   4.085  0.0607  0.2496 -0.1312
87481W        W88345  23.631  11.689  10.420  0.1602 -0.0996  0.0307
87482W        W88346  10.181   7.975  10.415  0.0998 -0.0111  0.1017
87483W        W88347   4.654  20.618  11.918  0.0908 -0.0388 -0.2824
87484W        W88348   3.189  17.066   2.543 -0.3621 -0.1574 -0.4017
87485W        W88349  19.850  15.590   9.130  0.3397  0.1221  0.0849
87486W        W88350  12.121  19.568  14.175 -0.0491  0.0870 -0.1997
87487W        W88351   4.692  12.308  22.421  0.1213 -0.2838 -0.0401
87488W        W88352  25.215  16.931  14.968 -0.0132 -0.1270  0.3953
87489W        W88353  22.678   4.099   5.705 -0.0836 -0.0365 -0.0355
87490W        W88354  12.537  10.016  19.458 -0.0132  0.0958 -0.1658
87491W        W88355  15.231  22.276  17.700  0.0777 -0.2478  0.1679
87492W        W88356  10.639   2.213   1.093  0.0470  0.2688 -0.2082
87493W        W88357  22.858   5.492   4.004  0.1517 -0.2315 -0.1204
87494W        W88358  23.406  11.058  19.279  0.1126  0.0433 -0.0086
87495W        W88359  21.046  17.771  19.261 -0.4864 -0.3042 -0.0523
87496W        W88360  11.084   6.422  10.077  0.1148  0.0254  0.3389
87497W        W88361  14.893  14.630  10.262 -0.1066  0.0280 -0.0578
87498W        W88362   5.479   7.086  23.228  0.2485 -0.0611 -0.1961
87499W        W88363  16.991  21.370  22.198  0.3826 -0.0381 -0.0959
87500W        W88364  11.181  13.613  12.293  0.2137  0.1696 -0.2173
87501W        W88365  15.902  10.981  26.837 -0.2186  0.0432  0.0941
87502W        W88366   5.287  23.776  17.980 -0.3783  0.1244 -0.1930
87503W        W88367  10.028   9.660   9.213  0.1540 -0.0210 -0.0528
87504W        W88368  24.523  21.756   3.069  0.3381  0.1251 -0.0053
87505W        W88369  23.499   8.582  19.955 -0.0832  0.0873  0.2669
87506W        W88370  28.673  14.048   3.314  0.0103 -0.1088 -0.0042
87507W        W88371  15.143   7.159   8.078  0.0028 -0.2254 -0.2458
87508W        W88372  12.323  12.288  19.489 -0.1240  0.0627  0.1042
87509W        W88373  14.713  13.043  10.983 -0.2952  0.2641 -0.0345
87510W        W88374  19.296  23.897   1.563 -0.2842 -0.0379  0.1512
87511W        W88375  21.694  10.345  16.852 -0.0137  0.1337 -0.0287
87512W        W88376   8.329   2.342   7.499  0.2614  0.0969  0.1236
87513W        W88377   6.408   8.312  13.485  0.1014  0.1038 -0.1576
87514W        W88378  14.624   4.308  12.163 -0.2007 -0.1755  0.2026
87515W        W88379  16.486  15.117  12.497 -0.1136 -0.2197  0.0096
87516W        W88380   8.705   0.386  18.631 -0.0556 -0.1004 -0.0272
87517W        W88381  12.620  14.073   7.660  0.1562 -0.1398 -0.0108
87518W        W88382   3.996  27.866  25.359  0.0154  0.0290 -0.1532
87519W        W88383  22.330  26.154   6.240 -0.0690  0.0052  0.0639
87520W        W88384   7.758   0.894   8.493 -0.3132  0.3104 -0.2593
87521W        W88385  18.605  27.749  27.514  0.0934 -0.0612  0.1120
87522W        W88386   2.407  19.171  10.993  0.1732  0.0976 -0.0179
87523W        W88387  15.924  28.823   0.283 -0.0148 -0.0638  0.0659
87524W        W88388   4.301  11.955   9.621  0.1084 -0.1021  0.2825
87525W        W88389   3.033  14.366   2.301 -0.2740 -0.1250  0.2575
87526W        W88390  11.021  28.509   0.729 -0.0870 -0.2490 -0.1651
87527W        W88391  19.665  22.930   3.746  0.1342 -0.3223 -0.1319
87528W        W88392  14.529   2.035   5.697  0.0967  0.0398  0.1640
87529W        W88393   7.702  13.595  26.265 -0.1374  0.0716  0.1413
87530W        W88394   5.905  24.484  14.860  0.1191 -0.2343 -0.2129
87531W        W88395   7.572  15.128  22.690 -0.0574  0.0827  0.1162
87532W        W88396   6.776   9.275  13.481  0.0197 -0.3804 -0.1403
87533W        W88397  14.282   9.521  19.163  0.1052  0.1038  0.3728
87534W        W88398  21.402  21.784  19.148  0.2088 -0.1138 -0.0977
87535W        W88399  11.366   7.995   4.419 -0.0041 -0.0693  0.0458
87536W        W88400  22.935  20.632  25.089  0.0636 -0.0683 -0.1497
87537W        W88401  23.315   5.619   4.260  0.1103  0.4591 -0.0093
87538W        W88402  18.452  20.158   9.681  0.0953  0.0224 -0.0139
87539W        W88403  10.121  27.868  13.697  0.2393  0.0522 -0.2586
87540W        W88404  27.733  28.329  15.218 -0.0787 -0.0505 -0.1008
87541W        W88405  14.173  14.628   5.980  0.0264  0.1836  0.0280
87542W        W88406  16.033  15.942   6.114 -0.0762 -0.0581 -0.3236
87543W        W88407  16.944  11.569  14.234  0.0599  0.0143  0.2701
87544W        W88408  11.630  20.001   3.854 -0.3364  0.0340 -0.0484
87545W        W88409   9.591  24.546  19.901 -0.0346 -0.2191  0.3084
87546W        W88410  12.213   2.811   6.704  0.1462  0.2814 -0.1148
87547W        W88411  10.921   9.566  26.653 -0.1052 -0.1429  0.1320
87548W        W88412   7.318  15.090  19.314 -0.2316 -0.0877 -0.4218
87549W        W88413  27.880  24.411  21.086  0.1938  0.1369  0.0424
87550W        W88414   9.034   2.347   5.576 -0.0123 -0.1211 -0.1607
87551W        W88415  16.711  28.965  11.753  0.2385  0.1735  0.2512
87552W        W88416  19.958   5.288   7.019 -0.2143 -0.1488  0.1531
87553W        W88417  16.333  22.490   4.258 -0.2514 -0.0386 -0.0116
87554W        W88418  23.818  26.132   6.336 -0.0847  0.0510  0.1721
87555W        W88419   5.368  10.323  14.236 -0.0707 -0.1579 -0.1700
87556W        W88420  24.062  13.144  18.932 -0.0075 -0.1167 -0.0259
87557W        W88421  23.308  18.543  10.672  0.2553  0.0987 -0.0138
87558W        W88422  11.400   9.056  19.710  0.0868  0.1568  0.2458
87559W        W88423  15.672  16.355   7.876  0.2803  0.0958  0.0401
87560W        W88424  21.906  10.528  20.578 -0.0513 -0.1415 -0.0249
87561W        W88425  12.799   8.073   7.874  0.0731 -0.1379 -0.1964
87562W        W88426  20.341   9.826   6.366 -0.0402  0.0727  0.0292
87563W        W88427  28.802  25.341  16.012  0.1276  0.1158 -0.0405
87564W        W88428  17.155  12.960   6.685 -0.1277 -0.0120  0.1098
87565W        W88429   9.970   3.524   0.425 -0.4585  0.0547 -0.2158
87566W        W88430  27.937   4.518  14.905 -0.1449  0.0161  0.0964
87567W        W88431  12.039  14.113   4.262 -0.1572 -0.2986 -0.2330
87568W        W88432  10.254   2.249   9.251 -0.2074  0.3243  0.2329
87569W        W88433  14.381   2.733  21.815 -0.1638  0.0252  0.0235
87570W        W88434  17.831  13.180   5.841  0.3246  0.0120 -0.0341
87571W        W88435  22.710   8.007   3.647  0.1514  0.1276 -0.0067
87572W        W88436  20.842   8.496   5.450  0.0488  0.1345  0.1035
87573W        W88437  13.382  23.599   9.951 -0.0474 -0.3279  0.1001
87574W        W88438   7.983   4.378   3.803  0.1038  0.0906 -0.0397
87575W        W88439   3.277  16.306  24.582 -0.1989  0.1206  0.0945
87576W        W88440   8.921  24.715  21.676  0.0227  0.2969  0.1368
87577W        W88441  18.840  24.546   3.452  0.0143  0.0061  0.1430
87578W        W88442   7.358  19.041  20.994  0.0997 -0.2984 -0.0977
87579W        W88443  26.840  26.407   3.575 -0.0380 -0.2052  0.1905
87580W        W88444  19.963   3.009  23.886 -0.3495 -0.0286  0.0675
87581W        W88445   1.493  12.096  19.202 -0.0288 -0.1567 -0.0684
87582W        W88446  21.333   3.583  20.057 -0.1741 -0.1158 -0.0461
87583W        W88447  15.962  13.227   2.449 -0.0025 -0.1820 -0.1254
87584W        W88448   4.178   3.748   3.736  0.0804 -0.4293 -0.0882
87585W        W88449   7.798  11.674  17.755  0.0887 -0.1381 -0.0965
87586W        W88450   4.612  26.655  13.172  0.2190 -0.2329 -0.0788
87587W        W88451  10.175  19.359  11.292  0.2299  0.0857 -0.1444
87588W        W88452  17.536  15.803   4.184  0.1460 -0.0966 -0.1842
87589W        W88453   7.803  18.906  15.980 -0.1570  0.2244  0.2548
87590W        W88454   4.585  18.404  26.752 -0.1005 -0.0746 -0.0892
87591W        W88455  18.001  17.881  12.421 -0.1024 -0.0684 -0.2654
87592W        W88456  15.497  16.346  25.595 -0.2018 -0.0223 -0.1378
87593W        W88457  19.054   6.774  13.749  0.0625  0.0609  0.0869
87594W        W88458   7.785  11.995  28.181 -0.1155  0.2896  0.2442
87595W        W88459  21.101   9.764  12.668  0.1550  0.1842  0.0259
87596W        W88460   6.646  14.123   2.507 -0.0659 -0.0206 -0.0896
87597W        W88461   4.155   5.389   9.922 -0.2148 -0.2325 -0.2188
87598W        W88462  15.321  22.686   2.588  0.0547  0.2184  0.1141
87599W        W88463  15.759   8.182   1.007 -0.0532  0.1578  0.0515
87600W        W88464  10.454  27.072  17.471  0.3127 -0.0979 -0.0225
87601W        W88465  11.838  13.789  19.387  0.2607 -0.1553  0.2467
87602W        W88466  12.551   4.195  26.483  0.1765  0.4183  0.1130
87603W        W88467  22.228  25.458  20.253 -0.1511 -0.1472 -0.0256
87604W        W88468   2.746  23.958  26.323 -0.1209 -0.1315  0.1768
87605W        W88469  20.476   0.496  16.400 -0.0646  0.2514 -0.3273
87606W        W88470   9.066   3.022   8.988 -0.2298 -0.1644  0.2864
87607W        W88471   3.265  24.079   3.497  0.1524 -0.3926  0.2691
87608W        W88472  17.370  23.046   7.417 -0.0398  0.1364  0.0237
87609W        W88473  28.232  20.933   5.683  0.0481  0.1169 -0.0121
87610W        W88474   4.769  21.024  19.454  0.3254 -0.1021  0.1491
87611W        W88475   0.991  13.268  21.502 -0.0686 -0.0209 -0.2484
87612W        W88476  12.398   3.700  14.719 -0.0969 -0.2788  0.0375
87613W        W88477  11.478  17.082   6.803 -0.0065 -0.1482  0.2616
87614W        W88478   3.712  11.617  10.755  0.0124  0.1683  0.2709
87615W        W88479  26.170  20.481  25.883 -0.1876  0.3781 -0.1158
87616W        W88480  16.572  18.529  24.391 -0.2726 -0.0225 -0.1638
87617W        W88481  10.407  13.978   7.069  0.0376 -0.4861  0.0524
87618W        W88482  11.863  27.814  21.445  0.0783 -0.2371  0.1945
87619W        W88483  23.115  21.887   8.722  0.1965 -0.0158  0.0838
87620W        W88484  25.921   5.473  19.176 -0.0043 -0.1172  0.0534
87621W        W88485   1.531  16.250   6.986  0.1864 -0.0048 -0.1455
87622W        W88486   7.566  16.595   9.599  0.0822  0.1294 -0.0477
87623W        W88487  15.971  13.235  19.103  0.0150 -0.0377  0.3849
87624W        W88488   3.304  14.313   4.086  0.1529  0.2560 -0.4139
87625W        W88489   9.787   8.591  26.675 -0.2057  0.1055  0.3008
87626W        W88490  16.543  23.468  15.525  0.3814 -0.3692  0.1472
87627W        W88491  25.281  21.923   5.860 -0.0347  0.2326  0.0480
87628W        W88492  29.007  23.698  16.755  0.6081 -0.1162  0.0131
87629W        W88493   4.341   6.530  22.518 -0.3581  0.1583 -0.2147
87630W        W88494   6.968  15.454   8.825  0.0690  0.1230  0.0714
87631W        W88495   5.011   4.503  24.071 -0.1592 -0.2631  0.1191
87632W        W88496  19.630  10.622  15.846  0.1272  0.1565 -0.1391
87633W        W88497  19.963   9.983   6.700  0.0017 -0.1352  0.4809
87634W        W88498  18.700  18.381   3.317  0.0310 -0.1154  0.2459
87635W        W88499  17.823  27.295  26.179 -0.0683 -0.1039 -0.2233
87636W        W88500  14.580  19.423   6.556  0.2067 -0.1252 -0.0368
87637W        W88501  12.426  14.300  27.515 -0.0230 -0.1555 -0.0030
87638W        W88502  12.702  19.531  16.333  0.0309 -0.4054 -0.2092
87639W        W88503  28.912  21.385   2.648  0.0941 -0.0527  0.1479
87640W        W88504  17.302  26.068   0.053  0.0841 -0.0124 -0.0435
87641W        W88505  19.400  28.713  17.345  0.0406  0.0820 -0.0392
87642W        W88506   4.363  27.293   3.220  0.3671  0.3602  0.1879
87643W        W88507   6.230   0.145   3.628  0.0225  0.0418  0.3345
87644W        W88508   5.671  20.924  23.585  0.0362 -0.1728  0.1204
87645W        W88509  11.881   2.903  22.837  0.2172 -0.3453  0.0081
87646W        W88510  16.369  11.746   2.829 -0.1621  0.2013 -0.1303
87647W        W88511  14.594  16.109  15.132 -0.1204 -0.0698  0.2070
87648W        W88512   2.584  21.738  15.470 -0.1573  0.1620  0.1863
87649W        W88513   9.725  13.642   3.530  0.3354  0.1188 -0.1828
87650W        W88514  28.524  24.773  20.643  0.2489 -0.0783  0.0450
87651W        W88515  21.626   0.915  13.791  0.0824 -0.1060 -0.1890
87652W        W88516   8.069   7.415  15.988 -0.0970  0.3440 -0.1889
87653W        W88517  26.231  15.783  22.112  0.1044 -0.0255 -0.0108
87654W        W88518  11.617  13.873   4.867  0.0124 -0.0640 -0.1989
87655W        W88519  28.403   0.104  28.615 -0.0805 -0.3355  0.1725
87656W        W88520  18.655   9.864  24.668 -0.0786  0.1186 -0.3118
87657W        W88521  14.862  25.557  16.257 -0.0725  0.0674  0.0036
87658W        W88522  12.216   3.985  28.739 -0.0793 -0.1356 -0.2152
87659W        W88523   8.797  24.136   3.558  0.2961 -0.0044  0.2690
87660W        W88524  14.705   2.413   5.951 -0.1103 -0.0944 -0.2701
87661W        W88525  23.064  12.914   4.990  0.1678 -0.1487  0.3019
87662W        W88526   0.866  26.258  21.379 -0.1470  0.2312  0.2025
87663W        W88527   0.010  15.187   4.616  0.1720  0.0944  0.1255
87664W        W88528   9.526  14.188  23.353 -0.2984  0.0515  0.0635
87665W        W88529  25.485  14.756  19.549  0.1227  0.6005  0.1070
87666W        W88530  16.712   0.925  11.574  0.0321  0.2131  0.0911
87667W        W88531  13.197   0.006   7.590  0.0193 -0.1690  0.1547
87668W        W88532  14.252  26.878  21.375 -0.2786  0.4342 -0.3964
87669W        W88533  12.926   0.626  22.543  0.2352 -0.1697  0.0377
87670W        W88534  23.703  19.278  19.823  0.0503 -0.1253  0.3410
87671W        W88535  15.749  18.668   4.698  0.1571 -0.2202  0.3979
87672W        W88536   6.906  20.673   8.723 -0.1544  0.1186 -0.0280
87673W        W88537   7.642  23.774  14.377 -0.0573 -0.2012  0.0130
87674W        W88538   3.139  13.432   0.606 -0.0254 -0.1380 -0.0602
87675W        W88539  27.692  11.325   2.088  0.0760  0.2117  0.0899
87676W        W88540  28.171  11.063   5.010  0.2239 -0.1853  0.0929
87677W        W88541  15.426  15.090   0.407  0.3506 -0.0051 -0.0781
87678W        W88542  25.397  11.889  15.570  0.0361 -0.0682 -0.3310
87679W        W88543   8.918  13.461  21.023 -0.2962 -0.3517  0.3211
87680W        W88544  12.931  26.193   3.882 -0.1399 -0.2015  0.1170
87681W        W88545  12.121  14.091  14.634  0.1372  0.2240 -0.4520
87682W        W88546  13.505   2.545   1.638  0.0223  0.0320  0.2479
87683W        W88547   5.633  15.069   9.938  0.0187 -0.2354 -0.0037
87684W        W88548  18.781  21.000  27.274  0.0995  0.2767 -0.5252
87685W        W88549   8.283  12.086   4.664  0.0030  0.0454 -0.0108
87686W        W88550  16.499   8.960  18.223 -0.1516  0.0311  0.0116
87687W        W88551  18.548   6.623  17.654  0.1310 -0.0102  0.0919
87688W        W88552  10.361  18.728   3.528 -0.1451 -0.0509 -0.0265
87689W        W88553  11.863  20.381  12.192  0.0160 -0.1864 -0.1927
87690W        W88554  18.775   9.823  11.099  0.1792 -0.1224 -0.4875
87691W        W88555   7.282  17.346  14.828  0.0445  0.1707 -0.0770
87692W        W88556  25.584   6.962   6.710  0.1191 -0.0933 -0.0018
87693W        W88557  17.255  17.840   9.975 -0.0339 -0.1085  0.1474
87694W        W88558  18.848   1.528   5.983 -0.0263  0.0336  0.3399
87695W        W88559  14.960   4.815  13.682 -0.0921  0.1970  0.4789
87696W        W88560   9.456   4.612  21.757 -0.2070  0.0483  0.2891
87697W        W88561   5.581   5.703  12.610 -0.1538  0.2475  0.1174
87698W        W88562  24.474  14.550   9.530 -0.1442 -0.3242  0.1246
87699W        W88563   1.830  28.109   5.645 -0.1951 -0.1451  0.0042
87700W        W88564  18.207  17.702  24.138 -0.0848  0.1988  0.0856
87701W        W88565   4.314   7.162  22.370  0.2182  0.2912  0.2095
87702W        W88566  10.350  17.700  26.894 -0.1905 -0.1549 -0.2964
87703W        W88567   1.448  15.562  21.554  0.2072 -0.1646 -0.2435
87704W        W88568  26.896   7.817  21.137 -0.3003 -0.2908 -0.1274
87705W        W88569  19.955   4.310   7.527  0.1384 -0.1046 -0.1897
87706W        W88570  13.835  16.500  28.387  0.1702  0.0240  0.0432
87707W        W88571   5.560  13.520   4.083 -0.1107 -0.0912 -0.0011
87708W        W88572  17.319   7.707  15.902 -0.0206  0.0854 -0.2703
87709W        W88573  26.079  13.909  14.854  0.0479 -0.2288 -0.0320
87710W        W88574  12.153  14.458   9.885 -0.0170 -0.1589  0.0014
87711W        W88575   2.862  20.160   6.934  0.0473  0.1974 -0.1067
87712W        W88576  25.020  24.506   2.559 -0.1896  0.2269  0.0250
87713W        W88577   6.580  12.312   3.286 -0.0296  0.1839 -0.3597
87714W        W88578  19.168  23.643   3.093  0.2258 -0.0543 -0.1473
87715W        W88579  18.155  24.921  25.182 -0.0345  0.0428  0.0624
87716W        W88580  15.891  14.796  23.396  0.0154 -0.2730 -0.0113
87717W        W88581  18.265   0.829   1.431  0.0212 -0.0009  0.1724
87718W        W88582  20.499  23.609   6.143  0.0572 -0.1385  0.2676
87719W        W88583   1.791   9.259  28.378 -0.0035 -0.4794 -0.0595
87720W        W88584   6.832  16.739   3.334  0.1756  0.1133  0.6594
87721W        W88585  10.523   6.385   3.021  0.1461  0.2721 -0.2223
87722W        W88586  10.379   5.415   0.711 -0.0107  0.1913 -0.3921
87723W        W88587  12.686  16.816   1.443  0.0074  0.0624 -0.0454
87724W        W88588   8.716  26.583   6.163 -0.1314 -0.0655 -0.1721
87725W        W88589  24.177  24.044  27.327 -0.2227  0.0615 -0.1230
87726W        W88590  11.144  28.452   9.545 -0.1693  0.0187 -0.0700
87727W        W88591   8.436   5.078   2.346  0.0218 -0.0621  0.0742
87728W        W88592   6.764  14.737  13.262 -0.2789 -0.2923  0.2097
87729W        W88593  14.080  10.949  18.291 -0.2462 -0.1459 -0.1198
87730W        W88594   4.355  19.118  19.547 -0.2407 -0.0178  0.0972
87731W        W88595  20.293   0.221  15.957  0.0807  0.3702 -0.3287
87732W        W88596  22.539  11.322  22.264  0.1117  0.2970 -0.0354
87733W        W88597  24.575   0.043  12.894  0.1439 -0.2212  0.1891
87734W        W88598  21.890  13.912  25.145  0.2309 -0.1884 -0.2293
87735W        W88599  18.955  20.520  17.173 -0.3338  0.1139  0.2286
87736W        W88600  20.844  21.685  21.613  0.0553 -0.0416  0.0687
87737W        W88601  22.394  22.511  16.410 -0.1343  0.3296  0.1549
87738W        W88602  28.857  16.614   4.063 -0.1347  0.1355 -0.0915
87739W        W88603  24.853  11.529   9.634 -0.2064 -0.0173 -0.1438
87740W        W88604   5.445  25.452   2.943 -0.1384  0.2538 -0.1613
87741W        W88605  12.380   8.337  10.758  0.1314  0.1238  0.0820
87742W        W88606  24.007   4.306   1.925 -0.1046 -0.2069  0.1058
87743W        W88607   6.075   6.379  20.198 -0.1364 -0.1193  0.0392
87744W        W88608  19.922  22.568   8.396 -0.0454 -0.3384  0.1486
87745W        W88609  12.730   8.630  17.819  0.1713 -0.0530  0.0911
87746W        W88610  27.384  27.459  16.264  0.0168 -0.0561 -0.2277
87747W        W88611   5.381   2.836  14.209  0.2418 -0.1402 -0.0521
87748W        W88612  25.054  17.967  12.721  0.1911 -0.1062  0.2455
87749W        W88613   7.055  13.810  28.889 -0.2098 -0.0266 -0.0682
87750W        W88614  10.943  20.980   1.545  0.0465  0.1556  0.2896
87751W        W88615  14.561  18.255  20.803  0.0035 -0.2610  0.1435
87752W        W88616  16.790  11.575  20.123 -0.0020 -0.0786  0.5136
87753W        W88617  15.045  11.229  18.356  0.2278 -0.0881  0.1561
87754W        W88618  10.752  13.703  13.632 -0.1149 -0.1308  0.0678
87755W        W88619   4.567   9.473  16.618 -0.0629  0.3170  0.2436
87756W        W88620  14.542   6.100  28.831  0.2235  0.1160 -0.1569
87757W        W88621  16.400  22.154   8.118 -0.0333  0.0854 -0.2504
87758W        W88622  23.255  11.346   6.697  0.2309  0.2666  0.2025
87759W        W88623  15.398  16.718  12.962  0.1149  0.0186  0.1478
87760W        W88624  19.958  15.790   6.268  0.1170 -0.0578  0.0486
87761W        W88625  14.268   9.469  28.469  0.1729 -0.1671  0.0081
87762W        W88626   5.722   6.558  19.884  0.2218 -0.0065 -0.1753
87763W        W88627  25.582  18.256  11.466 -0.2379  0.0749  0.1821
87764W        W88628  23.471  23.421   1.282  0.4141  0.3277 -0.0103
87765W        W88629   2.536  21.618  16.479  0.1721 -0.2539  0.0132
87766W        W88630  22.278   8.805  22.281 -0.1297 -0.0281  0.2962
87767W        W88631  18.371   4.434  18.996 -0.1277  0.0508  0.2403
87768W        W88632  11.796  20.194   0.602 -0.2819 -0.1175  0.3462
87769W        W88633   9.106  11.804  15.296 -0.0993  0.0637  0.2333
87770W        W88634  20.048   4.631  12.603  0.1428 -0.0438 -0.2073
87771W        W88635   8.757  11.322  12.435 -0.1673 -0.2909 -0.0925
87772W        W88636  15.248  17.084  16.145  0.3739 -0.0137  0.0408
87773W        W88637  22.774  25.464  15.209 -0.2446 -0.0288  0.3344
87774W        W88638  28.254  27.391  23.378 -0.0828 -0.2100  0.2779
87775W        W88639  20.072  24.046   5.358  0.0603  0.1816 -0.1739
87776W        W88640  16.822  16.451   9.573 -0.2937 -0.1372 -0.0664
87777W        W88641  23.366  19.935  16.702  0.1061 -0.0805  0.0818
87778W        W88642  13.765  12.929  21.441 -0.0374 -0.0184 -0.0846
87779W        W88643  22.578  25.858   7.739  0.1797  0.0123  0.1003
87780W        W88644  12.017  10.738  10.850  0.0301 -0.1080 -0.2358
87781W        W88645  18.981  26.624  11.994 -0.2932 -0.0023  0.0319
87782W        W88646  19.912  11.077  13.316  0.1792 -0.2781 -0.2295
87783W        W88647   3.962  28.792  12.051  0.0109  0.0445 -0.0199
87784W        W88648  21.865  11.761   6.413  0.0591 -0.3174  0.1160
87785W        W88649  20.942  23.976   5.285  0.1764  0.1036 -0.1949
87786W        W88650  15.252   2.028   0.046  0.2124 -0.4286  0.0663
87787W        W88651   1.212  26.971  26.826  0.2143  0.1230 -0.2883
87788W        W88652   7.484  26.221  25.297 -0.5331  0.0485 -0.1781
87789W        W88653  18.344  16.366  21.744  0.1672  0.0254 -0.1648
87790W        W88654  19.638  15.844  16.135  0.1082 -0.2133 -0.2897
87791W        W88655  17.790   9.524  18.617  0.1452  0.1104 -0.2640
87792W        W88656   3.711   2.913  15.752 -0.0484  0.0477 -0.2919
87793W        W88657   0.762   4.862  15.141  0.1093  0.1143 -0.1371
87794W        W88658  27.492  28.705   9.691  0.0323  0.0268 -0.0230
87795W        W88659  24.104   4.789  16.568 -0.1820  0.1473  0.0172
87796W        W88660  22.021   5.875  15.524  0.1182  0.1203 -0.0623
87797W        W88661  11.711  24.059  21.298 -0.1475  0.0042 -0.1045
87798W        W88662  13.778  26.947   9.719  0.1434  0.0113 -0.1129
87799W        W88663  17.523  21.797  10.618 -0.2931  0.2710 -0.2414
87800W        W88664  28.635   2.337   7.660 -0.2022  0.0857  0.1717
87801W        W88665   0.321   2.268  11.912 -0.0554  0.3873 -0.0506
87802W        W88666   7.333  27.885  24.080  0.1933 -0.2422 -0.0023
87803W        W88667  17.361  14.924  27.129  0.2992 -0.3257 -0.2103
87804W        W88668  16.953  11.265  10.793  0.0516  0.0393  0.0904
87805W        W88669  13.497  24.683   8.139  0.0487  0.2324 -0.1859
87806W        W88670  10.695  13.358  26.513  0.4543  0.1662 -0.0668
87807W        W88671  18.377  17.306  18.360 -0.0609 -0.0695 -0.1121
87808W        W88672   1.334  28.011  12.669  0.2134  0.3526 -0.3367
87809W        W88673  23.870  22.339  23.519 -0.0993 -0.0719  0.2180
87810W        W88674   3.989  26.862  27.398  0.0219  0.2505 -0.2658
87811W        W88675  28.216   3.279   4.666 -0.0663 -0.0210  0.0165
87812W        W88676  17.820   6.061  11.542 -0.0876  0.2306  0.0187
87813W        W88677  26.897  21.900  19.252 -0.1529 -0.1779 -0.2874
87814W        W88678  19.166  24.675  28.160 -0.1331  0.2365 -0.1444
87815W        W88679   6.892  17.750  12.484 -0.2214 -0.1672  0.1353
87816W        W88680  12.656  13.537  29.032 -0.0383  0.0345  0.0887
87817W        W88681   9.230   2.273   1.189  0.2332  0.0927  0.3003
87818W        W88682  12.755  25.341  16.099  0.2247  0.0401  0.0259
87819W        W88683  12.901  27.051   6.012 -0.0249  0.0624  0.2115
87820W        W88684  12.843   7.600  15.789  0.4129  0.1110  0.5489
87821W        W88685  11.030   9.162   8.921  0.1860 -0.1848  0.1361
87822W        W88686  15.707  24.733  13.419 -0.1734  0.3190  0.0887
87823W        W88687  20.079  24.507   6.548  0.0774  0.1390  0.2695
87824W        W88688  24.001  16.585  11.124  0.2901 -0.1043 -0.1288
87825W        W88689  26.621   7.126  11.017 -0.0529  0.0653 -0.2147
87826W        W88690  26.147   9.327  18.463 -0.3335  0.2393  0.2274
87827W        W88691  13.588  15.613  21.836  0.0624 -0.1021 -0.0258
87828W        W88692  23.865  10.115  14.789  0.0625  0.1406  0.0244
87829W        W88693  17.976   7.053   0.881 -0.0376  0.0190  0.1221
87830W        W88694  25.486  15.312  18.698  0.2653 -0.1445 -0.1316
87831W        W88695  20.394  16.111  12.343 -0.1542 -0.4597 -0.1785
87832W        W88696  13.029  27.240  18.764  0.0522  0.0074  0.4142
87833W        W88697  20.607   9.725  12.445 -0.0941  0.0058 -0.1837
87834W        W88698   7.306   2.869   9.528  0.1272 -0.1123 -0.2688
87835W        W88699  19.075  28.316  13.277 -0.2026  0.1734  0.3477
87836W        W88700  27.398  10.335  11.480 -0.0705 -0.4220  0.1003
87837W        W88701  20.845  16.467   1.967 -0.1537  0.2500  0.1294
87838W        W88702  21.810  11.755  25.903 -0.0151 -0.0768  0.1512
87839W        W88703  25.608   6.347  10.240  0.1325 -0.0998 -0.0690
87840W        W88704  15.422  12.707  25.326  0.0966 -0.0357 -0.2424
87841W        W88705   8.816   2.674   1.921  0.0339  0.1376  0.1448
87842W        W88706  11.205  21.437  27.488 -0.1465 -0.0590  0.1172
87843W        W88707  16.267   4.285  14.670 -0.0695 -0.0001  0.0012
87844W        W88708  10.241   7.415   3.197  0.0639  0.0892  0.1127
87845W        W88709  25.930   1.553   5.096 -0.0453 -0.2710  0.1279
87846W        W88710  10.074   3.566   8.171 -0.1158 -0.1908 -0.1303
87847W        W88711   8.710  23.295   2.962  0.0328 -0.1196 -0.1362
87848W        W88712  11.141  10.470   1.216 -0.0789 -0.0722 -0.0129
87849W        W88713  13.110  26.203  22.904  0.0634 -0.0483 -0.2832
87850W        W88714  13.969  26.812  10.453  0.0649 -0.1682 -0.0242
87851W        W88715  11.141  15.088   4.304 -0.1763  0.3875 -0.0223
87852W        W88716  13.130  14.831   9.690  0.2215 -0.4009  0.1288
87853W        W88717   0.976  17.457   5.843  0.2853 -0.2938  0.3781
87854W        W88718  27.612  26.511  26.448  0.0072  0.0602  0.0176
87855W        W88719  12.666   4.634  24.131 -0.1716  0.2029  0.1630
87856W        W88720  25.015  15.878   9.161 -0.0183  0.0955  0.2271
87857W        W88721  24.362   0.306  24.553 -0.0833 -0.1379 -0.1638
87858W        W88722  10.939   9.486  27.818  0.1769 -0.2936 -0.0075
87859W        W88723  16.540   2.855  27.809 -0.1926 -0.3360  0.1093
87860W        W88724   5.745  19.786   6.111  0.2018  0.1148 -0.1527
87861W        W88725  26.709  11.004  19.029  0.0080  0.0475  0.0052
87862W        W88726   6.073  21.648  26.780  0.2331  0.0887  0.1861
87863W        W88727  13.485  16.705   7.914 -0.5663 -0.0557 -0.1334
87864W        W88728  23.301  12.552  27.602  0.0954  0.2856 -0.0830
87865W        W88729  22.476  26.824  28.647 -0.0121 -0.0002  0.3191
87866W        W88730  28.809  19.849  16.566  0.3321 -0.1166  0.2767
87867W        W88731  22.941  17.280  14.670 -0.1325 -0.0433  0.0468
87868W        W88732  29.085  13.085  22.509 -0.1422  0.1914  0.1526
87869W        W88733   5.136  15.537   3.763 -0.1316  0.1364  0.1273
87870W        W88734  15.047  23.311  28.555 -0.1102 -0.0272 -0.2347
87871W        W88735  15.537  16.182  18.203  0.1244  0.1237 -0.1558
87872W        W88736  13.670  26.866  24.599 -0.0312  0.2196  0.0054
87873W        W88737  26.905  20.937  15.285  0.1943 -0.1934 -0.0909
87874W        W88738  14.081   4.554  18.604  0.0729 -0.0172 -0.1449
87875W        W88739  16.798  16.675   0.663 -0.0410 -0.2969  0.1516
87876W        W88740  11.804   9.903  19.078  0.0031 -0.1979 -0.3844
87877W        W88741  12.230   8.670  21.598  0.4883 -0.0093  0.3090
87878W        W88742  23.311   9.051  26.428  0.2205 -0.1366  0.2352
87879W        W88743  11.685   8.315  24.657 -0.1230  0.1572  0.0761
87880W        W88744  11.384  17.232  12.443 -0.1028 -0.0160 -0.1122
87881W        W88745  27.936  22.917  18.560  0.1840  0.0920 -0.0221
87882W        W88746   2.286   6.039   8.854  0.1264 -0.3047 -0.1380
87883W        W88747  15.974  23.538  20.042 -0.0408 -0.2409  0.5845
87884W        W88748   8.235   2.811   7.285 -0.3329 -0.3583 -0.0546
87885W        W88749  11.747  13.998  11.940  0.0200 -0.0492  0.2232
87886W        W88750  16.143   9.580   3.927 -0.3032  0.0083 -0.0517
87887W        W88751   6.066  11.160  10.563  0.2255 -0.1308  0.2922
87888W        W88752  17.562  21.409  18.324  0.1828 -0.2788 -0.1374
87889W        W88753  13.202  24.468   7.762 -0.0586 -0.1497 -0.0223
87890W        W88754  14.175  19.792  16.496  0.2960  0.0644  0.1911
87891W        W88755  13.469   0.668  20.918 -0.1732 -0.1849  0.1588
87892W        W88756   0.100   0.869  15.128 -0.1243 -0.2214 -0.0056
87893W        W88757  12.645  10.351   0.589  0.1641 -0.1111 -0.2506
87894W        W88758  17.110  16.242  11.296  0.0263 -0.0871  0.3607
87895W        W88759  27.237   9.439  27.648  0.0828  0.1889 -0.1269
87896W        W88760  11.002  12.275   2.853  0.2535  0.2206 -0.0582
87897W        W88761  24.046   5.558   4.677  0.0709 -0.2254  0.0792
87898W        W88762  20.482  14.144  14.050 -0.0753 -0.0288  0.0891
87899W        W88763   4.400  21.765  23.555 -0.0089 -0.2738 -0.0735
87900W        W88764  17.178   5.520  23.839 -0.0717  0.1005 -0.1157
87901W        W88765   4.916  28.116   8.472 -0.0280 -0.0693 -0.3396
87902W        W88766  29.020  23.942  18.470 -0.0444  0.1848 -0.1736
87903W        W88767  15.123  28.122   4.755 -0.1084  0.1793  0.0179
87904W        W88768  14.061  19.965   4.754  0.1954 -0.0911  0.1151
87905W        W88769  17.537  28.572  14.858  0.0564  0.3779  0.0261
87906W        W88770   6.273   9.619  22.290  0.1618  0.0866 -0.0528
87907W        W88771  21.782  13.186  21.420 -0.5265 -0.2663 -0.0708
87908W        W88772   6.320  11.005  27.032  0.0191  0.1623 -0.0432
87909W        W88773   3.124  16.765  28.385 -0.0355 -0.1897  0.1666
87910W        W88774  19.478   8.420  15.766 -0.0806 -0.3890  0.0844
87911W        W88775   8.564  14.822   6.156 -0.1747  0.1689  0.0615
87912W        W88776   6.559  21.505  15.557 -0.1025  0.0908 -0.1799
87913W        W88777   1.718  21.092  15.646  0.1894  0.3328 -0.2182
87914W        W88778  17.593  15.257  12.249 -0.0376  0.0933 -0.3958
87915W        W88779   7.814  22.999   0.081  0.5336  0.2762  0.4145
87916W        W88780  20.177  14.533   5.093  0.0702 -0.1072 -0.3265
87917W        W88781  13.713  27.204   2.361 -0.3725  0.0847 -0.0928
87918W        W88782  11.670  17.824   5.376  0.1197  0.0922 -0.0824
87919W        W88783  13.001   9.246  25.672 -0.0557  0.0272 -0.2695
87920W        W88784   2.563  18.434   9.965 -0.2861  0.0552 -0.0009
87921W        W88785   2.268  11.963   1.743 -0.0083  0.1152 -0.1782
87922W        W88786  17.345   9.953   6.890 -0.0767 -0.1868 -0.1659
87923W        W88787  20.935  28.987   9.077 -0.2107  0.1444 -0.2851
87924W        W88788  11.150  10.971   9.744  0.0122  0.0717 -0.0059
87925W        W88789  21.760  16.961  12.800  0.0878  0.0035 -0.2809
87926W        W88790  12.619  20.773  12.272 -0.0511 -0.0070  0.3646
87927W        W88791   5.800   5.837  20.923  0.0910 -0.1442  0.4162
87928W        W88792  19.205  22.276   5.353  0.1659 -0.2497  0.0000
87929W        W88793   2.888  22.353  28.320 -0.1995  0.2795 -0.0767
87930W        W88794  25.150   3.112  24.393  0.4416 -0.1429  0.0274
87931W        W88795  14.853  21.462   2.982 -0.2068  0.0975  0.1936
87932W        W88796  17.981  25.169   9.368 -0.0332  0.1567 -0.0525
87933W        W88797   9.351  28.268  18.572  0.0374 -0.1488  0.0899
87934W        W88798  22.180  11.360  24.944 -0.0992  0.1459 -0.1280
87935W        W88799  26.326   8.648  17.781  0.0669  0.0096 -0.3753
87936W        W88800  24.247  14.901   5.881 -0.0875 -0.1070 -0.1793
87937W        W88801  13.365   4.321  14.119 -0.2694 -0.1644 -0.0961
87938W        W88802   6.463   5.575   2.506  0.0545  0.1822 -0.1201
87939W        W88803  20.021  22.482  17.453 -0.0439 -0.0591 -0.1169
87940W        W88804   0.673  20.442  10.002 -0.3596 -0.1440 -0.0810
87941W        W88805  11.001  14.788  20.962  0.1908 -0.3113  0.1354
87942W        W88806   6.697   8.239   8.837 -0.1199 -0.0331  0.4833
87943W        W88807  22.570  11.376  12.836 -0.2245 -0.0473 -0.2991
87944W        W88808  10.625  22.537  10.284 -0.2363 -0.0767 -0.2284
87945W        W88809   7.727  11.573   6.155 -0.0226  0.0618  0.2907
87946W        W88810  11.890   6.783  24.119 -0.4201  0.2232  0.1083
87947W        W88811  21.800  11.290  15.884  0.0530 -0.0230 -0.2642
87948W        W88812  11.769  19.456  21.677 -0.2503  0.0276  0.0626
87949W        W88813  26.810  12.090   4.094  0.0971 -0.1705  0.3284
87950W        W88814  20.103  18.500   5.453  0.2225  0.0191 -0.1317
87951W        W88815  11.459  23.256   4.205  0.2647 -0.2336  0.0988
87952W        W88816  20.688   2.557   3.780  0.0106  0.1809  0.2549
87953W        W88817  20.038  25.258  18.660  0.1286  0.0157  0.0771
87954W        W88818  18.686  25.399  19.257 -0.2597  0.1410  0.0821
87955W        W88819  23.909  25.883  14.643  0.0161 -0.2252  0.2477
87956W        W88820  25.022   9.433  17.578 -0.0168  0.1881 -0.0086
87957W        W88821   9.487  11.590  15.651 -0.2971  0.2098  0.2116
87958W        W88822  16.231   7.143  26.550  0.1405  0.0718 -0.0105
87959W        W88823  17.795  20.343  11.327 -0.0256  0.0591 -0.1482
87960W        W88824   3.976  28.350  18.190 -0.0177 -0.1584 -0.0063
87961W        W88825  10.488  14.551  14.561 -0.2162  0.2541  0.0397
87962W        W88826  16.683  20.223  27.349 -0.2568 -0.0176  0.1510
87963W        W88827  18.137   9.723   9.609 -0.0047  0.2227  0.0754
87964W        W88828  12.374   8.379   9.815  0.0149  0.0499 -0.0646
87965W        W88829  19.949   7.805  16.498 -0.2365 -0.1401 -0.0934
87966W        W88830  27.914  22.424  24.313  0.1594 -0.3675 -0.2830
87967W        W88831   9.772  19.622  14.261  0.0192  0.1521  0.1305
87968W        W88832  11.416  27.829  15.035 -0.0027 -0.1964  0.1879
87969W        W88833   9.340  12.402   9.539  0.0085  0.0246 -0.2652
87970W        W88834   9.897  11.758   8.583 -0.0259 -0.2215 -0.1001
87971W        W88835  11.410  16.135   9.858 -0.3171 -0.0169  0.0629
87972W        W88836  14.814  11.493  21.277 -0.2543  0.1575  0.1300
87973W        W88837  22.517   5.889  19.257 -0.1279 -0.0328  0.1469
87974W        W88838  20.936   9.091  21.456  0.1237 -0.1598  0.2150
87975W        W88839  20.980   7.923   9.299  0.2262  0.1427 -0.0048
87976W        W88840   4.558  18.803  13.513  0.0565 -0.0379  0.0703
87977W        W88841  10.055  23.503   9.968  0.2042  0.1302 -0.0150
87978W        W88842   0.755  13.142  10.427  0.0775 -0.2068 -0.2653
87979W        W88843   6.972  16.034  18.356 -0.0505  0.1539  0.2020
87980W        W88844   0.161  13.841  22.789 -0.1042  0.1863 -0.1299
87981W        W88845  24.952   5.658   9.338  0.2869 -0.1818 -0.0440
87982W        W88846   4.499  11.777  26.012  0.2450  0.0800  0.3588
87983W        W88847  22.017  16.002  29.009  0.1098 -0.3699 -0.0316
87984W        W88848   9.967  19.827  20.426  0.1448  0.1648 -0.0652
87985W        W88849  10.296  12.734  19.631  0.0036 -0.1468 -0.0361
87986W        W88850  22.086  18.313  14.872 -0.0339  0.1686  0.0168
87987W        W88851   6.525  13.714  16.792  0.0975 -0.0321  0.1073
87988W        W88852  13.544  14.603   2.268  0.0652  0.0326 -0.0957
87989W        W88853   6.582   8.379  27.322  0.1998 -0.0658 -0.1303
87990W        W88854  18.928  28.052   0.866 -0.0901  0.1253 -0.1358
87991W        W88855  26.253   4.984  25.192  0.1851 -0.3236  0.1168
87992W        W88856  16.672  16.062  10.324  0.1680 -0.0238 -0.1505
87993W        W88857   4.263  24.870  28.421  0.1094 -0.1964  0.0531
87994W        W88858   7.063  23.678  21.316  0.1182 -0.1979 -0.0878
87995W        W88859  18.482   7.492   3.495 -0.3019 -0.1700  0.1565
87996W        W88860  15.514  28.046  22.231 -0.0541  0.0419 -0.2125
87997W        W88861  21.901  15.674  27.729 -0.4241  0.0979  0.3171
87998W        W88862  21.128  17.275  21.203  0.1219  0.1839  0.2533
87999W        W88863  17.919   7.177  27.285  0.0501  0.1228 -0.1065
88000W        W88864  22.858  26.660   0.389 -0.0144  0.0337 -0.0639
88001W        W88865  23.619   2.160   6.437  0.1708  0.1501  0.1365
88002W        W88866  14.118  12.498  11.619 -0.2225  0.0177  0.4387
88003W        W88867   8.378  15.445  14.421  0.1558 -0.1368 -0.1603
88004W        W88868  24.838  10.348   4.621 -0.0015 -0.1483 -0.1386
88005W        W88869  16.259  15.036   5.952 -0.2733  0.1318  0.0039
88006W        W88870  24.761   8.426  17.526  0.0358  0.1128  0.2399
88007W        W88871   8.735   0.409  17.571  0.2465 -0.1050  0.1132
88008W        W88872   1.279  14.528  24.037 -0.0672  0.1272 -0.0804
88009W        W88873  24.282  23.255  23.182 -0.0483  0.1637 -0.0716
88010W        W88874  15.805  26.527  18.528  0.0843 -0.0379 -0.0194
88011W        W88875   6.397   9.688   7.615  0.0369 -0.2052 -0.2403
88012W        W88876  20.524  10.856  14.087 -0.0750  0.1033  0.1679
88013W        W88877  11.649   0.471  22.131  0.0922 -0.0562 -0.2227
88014W        W88878  15.247  26.219  11.824 -0.0273 -0.1440  0.0363
88015W        W88879  18.555   8.251  15.739 -0.3434 -0.2903 -0.0738
88016W        W88880  15.372  17.799  13.837 -0.1182  0.1014 -0.0700
88017W        W88881  25.013  17.483   7.901  0.1732  0.0592 -0.0458
88018W        W88882  15.496  21.536   8.397  0.4127  0.0305 -0.1165
88019W        W88883  19.079  16.352   2.931 -0.1163  0.1106 -0.0619
88020W        W88884   8.313   4.783  28.581  0.0250 -0.1572 -0.0817
88021W        W88885  24.170   3.855  16.131 -0.3026  0.0099  0.2609
88022W        W88886  16.171  20.670  12.963 -0.1515 -0.0977 -0.2894
88023W        W88887  18.272   5.240  25.082 -0.2195 -0.2339  0.1874
88024W        W88888   8.006   0.212   3.623 -0.1264 -0.1367 -0.1209
88025W        W88889  25.668   0.236  12.290  0.1732  0.0761 -0.0086
88026W        W88890  26.186   9.065  15.180 -0.0253 -0.1388  0.3053
88027W        W88891  29.131  16.354  11.792 -0.0970 -0.3183 -0.1876
88028W        W88892  27.203   0.872  15.096 -0.2341 -0.1598 -0.0634
88029W        W88893  28.581   6.012  21.092  0.2059  0.2323  0.1979
88030W        W88894  16.238   3.736  16.788  0.0675 -0.0485 -0.2620
88031W        W88895  12.113   1.334   8.199 -0.2836 -0.0486  0.0038
88032W        W88896   5.270   7.081  19.319 -0.0119  0.0058  0.0849
88033W        W88897  17.945  21.157  20.923  0.0310 -0.2037 -0.0731
88034W        W88898  10.997   6.441  11.396 -0.2746 -0.4170  0.3354
88035W        W88899   7.492  12.609   9.282 -0.0012 -0.0699 -0.3551
88036W        W88900  18.197   8.336  20.719 -0.0435  0.2393  0.1110
88037W        W88901   5.698  11.780   2.964  0.0995  0.0273 -0.0180
88038W        W88902  27.095  17.973  18.964  0.0667 -0.2024 -0.1087
88039W        W88903   0.448  14.492   6.502 -0.1063 -0.2925  0.1164
88040W        W88904  17.422   1.907   1.639  0.0167 -0.1048  0.0051
88041W        W88905  12.408  13.313   6.815  0.0730 -0.1176  0.0845
88042W        W88906  11.214  15.113  11.894 -0.0796  0.0326  0.1316
88043W        W88907  14.094   5.683   6.259 -0.2610 -0.1954  0.0655
88044W        W88908  25.598  10.777   8.962 -0.0354 -0.0509  0.3265
88045W        W88909  15.428   2.930  22.325  0.0333  0.1560  0.2259
88046W        W88910   5.588   7.975   5.363  0.0874 -0.0485  0.0015
88047W        W88911  26.943  27.408   8.958 -0.0768 -0.2164  0.0221
88048W        W88912   6.279   7.611   5.962 -0.2792 -0.1570 -0.0235
88049W        W88913  18.201  12.618  13.344 -0.2059  0.1915  0.0295
88050W        W88914  13.976  15.631  20.348 -0.0342  0.3867 -0.0876
88051W        W88915  10.107   1.413   5.885  0.1743  0.0161 -0.2183
88052W        W88916   7.621  24.190  12.474 -0.1675  0.3111  0.2652
88053W        W88917  21.650   8.888   0.555 -0.1796  0.2304  0.4491
88054W        W88918  13.121  14.137  11.012  0.1342 -0.0001  0.2294
88055W        W88919  16.064  22.316  10.652 -0.1143  0.1400 -0.1395
88056W        W88920  19.896  12.749  13.063 -0.0186 -0.0337  0.0156
88057W        W88921  20.309   8.535  14.556  0.1510 -0.3011  0.1424
88058W        W88922  23.973  28.190   8.519  0.0453  0.0145 -0.0274
88059W        W88923   8.068  18.933  11.589  0.0621  0.3101  0.0232
88060W        W88924   4.672   2.000  23.817  0.2369 -0.1565 -0.2199
88061W        W88925   9.387  20.674  10.267  0.3677  0.0756 -0.1569
88062W        W88926  26.222  15.812   9.712 -0.0970  0.0010 -0.3145
88063W        W88927  13.287   1.641   2.560 -0.1159  0.2233 -0.0751
88064W        W88928  27.393  15.476  12.051  0.2160 -0.0359  0.2119
88065W        W88929  24.623  14.995  10.328  0.1387  0.2138 -0.1007
88066W        W88930  14.246   6.148  13.829  0.0522  0.2204  0.0068
88067W        W88931  11.022   6.400  18.729  0.4662  0.1299 -0.0634
88068W        W88932  24.608  12.610  10.212 -0.2265 -0.2025  0.2949
88069W        W88933   5.611   1.222  10.446  0.0609 -0.2684  0.3592
88070W        W88934  17.953  18.356  12.269 -0.0702  0.1475 -0.0165
88071W        W88935  21.957  19.851  21.017 -0.3695  0.1218 -0.0433
88072W        W88936  10.035   1.889  13.810 -0.2178  0.1385 -0.0290
88073W        W88937  14.194   7.510  27.358  0.0422 -0.0455  0.2097
88074W        W88938  17.785   8.487   0.306 -0.2340  0.3893  0.0804
88075W        W88939  22.866  15.789   5.571 -0.1599  0.0431 -0.4876
88076W        W88940  14.877  15.584  27.745 -0.0083  0.1851 -0.0652
88077W        W88941  11.736  18.275  25.240  0.1720  0.3731 -0.5680
88078W        W88942   3.030  25.269  24.964 -0.1254 -0.2555 -0.2315
88079W        W88943   9.409  10.878   1.979  0.0471 -0.2339  0.3884
88080W        W88944  20.504   4.196   6.506 -0.3514  0.2369 -0.2039
88081W        W88945  14.000  23.054  17.503  0.0294 -0.0684  0.1789
88082W        W88946   7.175   7.588  15.469 -0.2152  0.1470  0.2343
88083W        W88947  28.108   2.164   9.508 -0.0763 -0.2425  0.1730
88084W        W88948  15.372   8.336  25.633 -0.0809  0.0256 -0.1293
88085W        W88949  22.179   9.643  22.146  0.0954 -0.0820 -0.0928
88086W        W88950  20.836  14.530  16.145 -0.0059  0.0361  0.1950
88087W        W88951   2.977  20.741  22.887 -0.1678  0.1284 -0.0228
88088W        W88952   9.823   8.769  20.598  0.0901  0.1499 -0.0545
88089W        W88953   8.382  16.748  26.290  0.2278  0.1093 -0.0377
88090W        W88954  12.675  28.084  13.074 -0.0669 -0.0322 -0.2916
88091W        W88955  15.649  25.225  13.059  0.0950 -0.0708 -0.1511
88092W        W88956   9.744   5.158   9.134 -0.0146 -0.3743 -0.0749
88093W        W88957  13.992  10.990   1.377  0.0085 -0.0916 -0.2406
88094W        W88958   4.209  17.774   1.665  0.1775  0.1065 -0.0384
88095W        W88959  11.783  13.304   4.845  0.2242  0.0258 -0.0296
88096W        W88960  14.556  12.258  20.039 -0.0024 -0.1208 -0.0153
88097W        W88961   7.000   7.994   8.522  0.2608 -0.2023 -0.2128
88098W        W88962  27.175  11.728  21.631  0.0454 -0.3783  0.0795
88099W        W88963  18.916  10.127  15.828  0.2665  0.1460 -0.0185
88100W        W88964  12.487   1.371   1.105 -0.1471  0.3466 -0.0452
88101W        W88965  27.287   5.821  16.060  0.0014 -0.0371  0.0290
88102W        W88966  16.668  12.218  10.709 -0.2863 -0.1027 -0.4212
88103W        W88967  23.681  12.999  17.284 -0.0587  0.1001  0.3678
88104W        W88968  11.033   0.556   8.872 -0.2102  0.2241  0.3079
88105W        W88969  18.026  25.816  28.031  0.3036 -0.3698 -0.0294
88106W        W88970  22.131   3.178  25.591  0.5428 -0.0877  0.0091
88107W        W88971  10.872  19.863  16.050 -0.1268  0.0912  0.3768
88108W        W88972   3.279   4.784  19.380 -0.0315  0.0307  0.1843
88109W        W88973  27.037  27.272  23.294 -0.1450  0.0242  0.0286
88110W        W88974  11.072  15.518  11.546  0.2200 -0.0669  0.2625
88111W        W88975  14.850  20.886   5.508 -0.0495 -0.0282  0.1607
88112W        W88976   3.205   6.502   0.755 -0.2455  0.0670 -0.1069
88113W        W88977  13.402  16.031  12.085 -0.0064 -0.0865  0.0299
88114W        W88978   1.837   6.326  18.669  0.1945 -0.0152 -0.1584
88115W        W88979  11.427  22.097   3.947  0.2326  0.0346 -0.0450
88116W        W88980  26.478   1.622   5.012 -0.0619 -0.0037 -0.2765
88117W        W88981   7.050  15.018   2.810  0.1837 -0.1292  0.0060
88118W        W88982  16.134  28.949   9.834  0.0140  0.3179  0.0381
88119W        W88983   9.102   5.559  20.606 -0.1059  0.0804  0.1646
88120W        W88984  24.126  13.267  25.416 -0.1019 -0.2749  0.1171
88121W        W88985  17.479   7.057  19.668  0.5139 -0.1031 -0.0255
88122W        W88986  27.736  13.727  28.848 -0.1682 -0.0953 -0.0739
88123W        W88987  27.190   1.303  24.700  0.1170 -0.1452  0.0953
88124W        W88988  18.446  22.139   9.433  0.1672 -0.0005 -0.0572
88125W        W88989  26.680  17.281  28.960  0.2371 -0.4407  0.0729
88126W        W88990  21.683  17.535  10.407 -0.1612 -0.2818 -0.0127
88127W        W88991   3.228  20.948   3.724  0.0285  0.1339  0.1164
88128W        W88992   9.946  15.071  24.197 -0.0441  0.0276 -0.0451
88129W        W88993  16.269  14.458   4.289 -0.3007 -0.0266  0.1975
88130W        W88994  21.512  18.085  24.651  0.3650  0.1167  0.1764
88131W        W88995  15.061  17.533  14.868  0.1540 -0.2241 -0.1287
88132W        W88996  20.277  20.767  18.775  0.0188  0.0576 -0.1087
88133W        W88997   9.080   3.863  25.006  0.0761  0.0860  0.0241
88134W        W88998   6.930  13.189  18.593  0.2484  0.2001  0.1902
88135W        W88999   9.516   5.652   5.609  0.2906  0.3545 -0.0306
88136W        W89000  26.007  24.153  23.663 -0.0541  0.0550  0.1286
88137W        W89001  26.324  25.636  10.568 -0.0130  0.1223  0.1943
88138W        W89002  17.109  11.016  15.983  0.0937  0.3034  0.1974
88139W        W89003  17.163   0.077   5.026  0.1219 -0.4652 -0.1249
88140W        W89004  23.791  14.381  11.653 -0.0819 -0.2425 -0.1408
88141W        W89005  15.478  24.089  10.449  0.0516 -0.1709 -0.0453
88142W        W89006   0.935  16.761   7.871  0.0396 -0.0874 -0.4958
88143W        W89007   6.083  15.122  10.283  0.4148 -0.0357  0.2875
88144W        W89008  24.287   3.268  14.277  0.0205  0.2014 -0.0562
88145W        W89009  14.550  14.877  10.045 -0.1108  0.1234 -0.0783
88146W        W89010   8.605  13.756  19.371  0.1936 -0.0522  0.1412
88147W        W89011  14.973  15.733   3.161 -0.2267  0.1817 -0.1666
88148W        W89012  16.470  29.075   7.554 -0.0189  0.1005  0.1389
88149W        W89013  18.489   7.494  16.555 -0.0274 -0.0864  0.0368
88150W        W89014   7.878   8.105  18.105  0.3624 -0.3073 -0.2375
88151W        W89015  21.407  28.528  23.709  0.1758 -0.1788 -0.0882
88152W        W89016   7.916   7.834  23.567 -0.0764 -0.0534  0.2280
88153W        W89017   4.133  23.818  27.702 -0.0941  0.2595  0.0337
88154W        W89018  16.427   2.810  10.978  0.1804 -0.0630 -0.0768
88155W        W89019  25.278   7.713   4.408  0.3126  0.1314 -0.0797
88156W        W89020  22.624   8.745  28.207 -0.2088 -0.2270  0.2562
88157W        W89021  25.134  10.531   5.905 -0.0161 -0.0812  0.1708
88158W        W89022   2.392   4.605   7.352 -0.1588  0.3258 -0.0741
88159W        W89023  21.480  26.763  15.019  0.0766  0.5026 -0.2734
88160W        W89024   4.047  13.062   9.664  0.0388 -0.0339  0.2989
88161W        W89025  14.632  12.348   9.323 -0.0383  0.2061 -0.0040
88162W        W89026   6.823   9.761  13.790 -0.1871 -0.1219 -0.1953
88163W        W89027  25.902  19.354  27.326 -0.2432 -0.0284 -0.0524
88164W        W89028  12.850  17.553   9.154 -0.0087 -0.1160 -0.2176
88165W        W89029   0.782  17.891  23.488  0.2331  0.0591 -0.2523
88166W        W89030  24.661  14.154  21.579  0.0484  0.1921  0.0574
88167W        W89031  14.793  27.257   1.604 -0.1113  0.2784 -0.0403
88168W        W89032   9.941   6.176  17.508 -0.1144  0.0924  0.0998
88169W        W89033  21.690  12.840  12.713  0.0378 -0.1284 -0.5319
88170W        W89034  13.162   3.230  19.620  0.1485 -0.0864  0.0501
88171W        W89035  19.298  24.909  18.980  0.0865 -0.0295 -0.1452
88172W        W89036   5.088   7.802  23.637 -0.1366 -0.2287  0.0621
88173W        W89037   6.691  11.602  20.148 -0.0292  0.0948  0.0923
88174W        W89038   0.807  21.489  24.486 -0.0814 -0.1435  0.5128
88175W        W89039   2.801  28.896   9.857 -0.2941 -0.2275  0.0512
88176W        W89040  22.967   2.755  12.947 -0.1221  0.1455 -0.2038
88177W        W89041  23.325   5.282  14.491  0.2133 -0.2747 -0.0793
88178W        W89042  28.513   2.186  19.201 -0.0400  0.1909 -0.0413
88179W        W89043   5.437   5.473  12.103 -0.2710  0.1687 -0.1246
88180W        W89044   5.185   2.938  21.127  0.0675 -0.1921  0.0790
88181W        W89045  12.325  16.161   4.778 -0.1591  0.0792  0.1675
88182W        W89046  24.798  25.164  23.218 -0.0762  0.1392  0.2787
88183W        W89047  25.334  25.204  15.458 -0.0095 -0.2773 -0.0505
88184W        W89048  15.026  17.543   4.842  0.1481  0.2717  0.1756
88185W        W89049  25.767  23.726  23.285 -0.0036  0.2043  0.3158
88186W        W89050  15.348  22.959  11.600  0.0861  0.1874  0.2251
88187W        W89051  10.840   9.641   4.704  0.0257 -0.0273 -0.3176
88188W        W89052   9.999  15.879  17.722 -0.0716  0.3296 -0.2385
88189W        W89053  19.226   9.488  14.085  0.1158  0.1504 -0.1408
88190W        W89054  14.111  27.734  20.582 -0.0386  0.2701  0.0833
88191W        W89055  25.760  12.962   8.362  0.2414 -0.2562  0.4022
88192W        W89056  28.786  12.337   1.002 -0.1320 -0.2133 -0.2396
88193W        W89057  28.842  28.418   8.321 -0.1268  0.1355  0.2775
88194W        W89058  14.562   2.423  18.952  0.0328 -0.0516  0.1856
88195W        W89059  22.075  10.361  25.061  0.1246 -0.0021  0.1408
88196W        W89060  20.573  10.172  28.464 -0.6812  0.1364 -0.0793
88197W        W89061   5.572  12.325   6.143 -0.3764 -0.3558 -0.2399
88198W        W89062   7.059  16.052  16.974  0.1182 -0.0286  0.0213
88199W        W89063  15.074  26.018  17.939  0.1695  0.2582  0.1754
88200W        W89064  15.967  16.005   2.171 -0.0678 -0.0883 -0.2130
88201W        W89065  11.718  24.341  10.957  0.0359 -0.0271 -0.1156
88202W        W89066  21.735  15.668  14.523 -0.1526 -0.3321  0.0962
88203W        W89067  13.764   8.563  28.076  0.5715  0.1349 -0.3952
88204W        W89068   4.525  22.117  11.541 -0.1677 -0.1874 -0.1974
88205W        W89069  26.460  18.656  21.206  0.3059 -0.2819 -0.2541
88206W        W89070   3.649  18.732   8.370 -0.2713  0.1117 -0.0934
88207W        W89071  18.319   6.821   9.581  0.1784  0.0252  0.2275
88208W        W89072  13.525  15.238  11.669 -0.2229  0.0594 -0.1292
88209W        W89073  20.818  10.306  10.772  0.2593  0.0428 -0.1714
88210W        W89074  21.821   6.972   7.078 -0.1643 -0.0797  0.0171
88211W        W89075  24.227  11.709  17.167 -0.1885 -0.1535 -0.1651
88212W        W89076  27.675   7.872  15.487  0.1502  0.1203  0.2576
88213W        W89077  24.881   0.245  11.599 -0.1214 -0.1053  0.1818
88214W        W89078  20.989   4.418  12.383  0.2526 -0.0954  0.1761
88215W        W89079  19.376   1.662  18.637  0.0149 -0.0606  0.1571
88216W        W89080  14.582   3.320   2.668 -0.0035 -0.0444  0.5322
88217W        W89081   8.736   7.500  22.533  0.1436  0.1757  0.0929
88218W        W89082   0.785  23.679  15.144  0.1754  0.1052  0.3014
88219W        W89083  22.527  24.396   3.167  0.0776 -0.0068  0.1233
88220W        W89084  11.135  12.272  16.420 -0.1415 -0.0154 -0.1012
88221W        W89085   5.221  16.229   4.664  0.1540  0.0232  0.0548
88222W        W89086   4.429  14.557   9.118 -0.1235 -0.1944 -0.2230
88223W        W89087   7.183   9.280   0.156 -0.1618 -0.0336  0.1954
88224W        W89088   3.961  15.161  21.009  0.0116  0.2133  0.3325
88225W        W89089  18.349   2.151   7.203  0.1472  0.1974  0.4280
88226W        W89090   6.262  27.261  12.521  0.0838  0.0041 -0.2065
88227W        W89091   3.703   7.100  17.821 -0.1498 -0.1879 -0.1886
88228W        W89092   3.509   4.971  14.456 -0.1778  0.2133  0.0642
88229W        W89093  27.234  13.975  18.411 -0.0578  0.0428  0.0695
88230W        W89094  14.061  21.635   1.930 -0.2348  0.0088  0.0389
88231W        W89095  20.541  15.565   3.463  0.1985  0.0198 -0.1152
88232W        W89096   1.962  26.389  20.708  0.1904 -0.2486  0.1128
88233W        W89097  11.952   6.218   9.280  0.0439 -0.3174  0.2525
88234W        W89098   1.300  13.541  19.339  0.1715 -0.1852 -0.1333
88235W        W89099  24.624   1.566   7.537  0.4959 -0.0770 -0.2171
88236W        W89100  24.441   9.722  15.720  0.1736 -0.2783  0.1698
88237W        W89101   4.182   4.793  21.578 -0.1916  0.1591 -0.1542
88238W        W89102  10.614  11.270  14.127  0.0700  0.0409 -0.0402
88239W        W89103   5.761  22.120   7.141  0.1679 -0.1696 -0.3347
88240W        W89104   9.624   9.518   7.990  0.2424  0.0085 -0.0774
88241W        W89105   6.956   2.402  14.895  0.1178  0.2005  0.3449
88242W        W89106  10.003  18.090   4.201  0.0317 -0.0922  0.3166
88243W        W89107   6.768  20.695  24.980 -0.1501 -0.2237 -0.0550
88244W        W89108  20.365  19.839  22.950 -0.0171  0.2658 -0.0857
88245W        W89109  18.824  17.706  14.775 -0.0984  0.2585  0.1466
88246W        W89110  12.793   5.792   3.251 -0.1669  0.3982 -0.3788
88247W        W89111  23.960  13.925  13.962  0.0204  0.0942  0.3049
88248W        W89112   1.734   7.034  17.277 -0.0471 -0.1500  0.0662
88249W        W89113  23.935  25.204  15.978 -0.2476  0.1631 -0.2394
88250W        W89114   8.957  29.011  28.432 -0.0202 -0.3310  0.0476
88251W        W89115  18.859  21.167   6.296  0.3047 -0.0091 -0.0371
88252W        W89116  12.048   5.393   0.584 -0.1179 -0.2394  0.0898
88253W        W89117  14.262   4.605  16.860 -0.0728  0.1654  0.1927
88254W        W89118  13.475  22.880  20.140 -0.2195  0.0794  0.5312
88255W        W89119   1.899   2.068  15.641 -0.0177  0.0056 -0.1899
88256W        W89120   5.724   0.062   3.669 -0.0222 -0.0969 -0.0214
88257W        W89121   1.153  26.937  17.822  0.2080  0.1613 -0.1451
88258W        W89122  11.210   7.358  11.582  0.1092 -0.0576 -0.0688
88259W        W89123  11.697   3.045  11.770  0.2986  0.1684  0.2712
88260W        W89124   3.843  22.367  17.266  0.2378  0.0073  0.3590
88261W        W89125  20.388   8.912  15.421 -0.1849  0.0724 -0.3918
88262W        W89126   4.401  19.778   8.101  0.0758  0.1248 -0.1315
88263W        W89127   9.396  10.246  18.618  0.0923  0.2053 -0.2256
88264W        W89128   3.663  27.993  22.061 -0.0502  0.1261  0.0701
88265W        W89129   6.378  18.145  14.244 -0.3535  0.1107  0.0116
88266W        W89130  15.055  23.034  25.463 -0.1965  0.1831 -0.0285
88267W        W89131  22.170  20.315   0.264 -0.1150 -0.1323 -0.1813
88268W        W89132  13.572  12.660   5.410  0.1700 -0.0785 -0.0542
88269W        W89133   6.218  11.321  16.930 -0.1251 -0.1752 -0.0607
88270W        W89134  28.678   6.026   8.167 -0.3769  0.3829 -0.2251
88271W        W89135  28.461  18.178   0.127 -0.2872  0.0045 -0.0321
88272W        W89136   9.948   2.836  13.233  0.4342 -0.2297 -0.1296
88273W        W89137  19.674   5.953  28.880 -0.0194 -0.1493 -0.0295
88274W        W89138  19.562   8.788  16.702 -0.1460  0.1859  0.0688
88275W        W89139   1.791  17.976  17.054 -0.1248  0.0089  0.0366
88276W        W89140  22.027  26.969  26.243 -0.1342 -0.0152 -0.0572
88277W        W89141  19.247   5.238  20.690  0.1157 -0.1038  0.2171
88278W        W89142  26.889  10.920  22.268 -0.5436  0.2999 -0.0985
88279W        W89143  13.282  14.456  21.075  0.1252 -0.1810  0.1965
88280W        W89144   3.495   5.130  12.131  0.0179  0.1372  0.0368
88281W        W89145   4.698   6.452  28.772  0.0497  0.1284 -0.0118
88282W        W89146  15.236  26.534   9.829  0.1887 -0.4261  0.0789
88283W        W89147  12.540  14.633  18.823 -0.2177  0.3097 -0.1598
88284W        W89148  28.646  12.601  11.170  0.2763 -0.1295  0.1027
88285W        W89149   1.301  19.666  23.297 -0.0204 -0.0627  0.2211
88286W        W89150  17.870   3.711  16.522  0.1509 -0.0822 -0.2714
88287W        W89151  23.104  24.317   0.958 -0.1425 -0.1194  0.1239
88288W        W89152  17.181  23.634  23.514  0.0433 -0.1875  0.3470
88289W        W89153  18.624  28.750  10.740 -0.1008  0.0169 -0.1946
88290W        W89154   6.648  13.484  10.715 -0.0676 -0.0949  0.2411
88291W        W89155  16.122  17.199  17.212 -0.0156 -0.1500 -0.0192
88292W        W89156   7.088   2.815   5.079 -0.1819  0.0756 -0.2196
88293W        W89157  26.533  22.523  13.425  0.1762  0.0142  0.0791
88294W        W89158  16.661  20.056   1.481  0.4322 -0.0134  0.2021
88295W        W89159  25.888  13.949  12.780  0.3957  0.1257 -0.4972
88296W        W89160   4.556  15.619  14.186 -0.2735  0.0029  0.0663
88297W        W89161  13.875   2.088  15.375 -0.0154  0.0301  0.3446
88298W        W89162   3.819  14.838  12.602 -0.0526 -0.1277  0.3226
88299W        W89163  17.653   6.704   4.601 -0.0972  0.1699  0.0783
88300W        W89164  23.895  21.235  19.880  0.1291  0.2694 -0.1627
88301W        W89165   7.178  25.790   2.086  0.0320 -0.0694 -0.0030
88302W        W89166  11.792  23.384  23.278 -0.2439 -0.0255  0.1684
88303W        W89167  21.826   7.996   0.074  0.2793 -0.0428  0.0694
88304W        W89168  13.429  25.238   6.130  0.0018 -0.3598  0.0757
88305W        W89169  20.464   0.141   5.863  0.0285  0.2075  0.0109
88306W        W89170   9.265  27.776  20.354  0.2542  0.0042  0.3866
88307W        W89171  15.729   8.588   8.934  0.1136  0.1554 -0.3041
88308W        W89172   5.081  10.735  20.842  0.0276  0.3785  0.0493
88309W        W89173  12.609  11.939   3.022 -0.0541  0.1538  0.0869
88310W        W89174  23.892  24.969  16.690 -0.4235 -0.3636 -0.1492
88311W        W89175  21.036  25.785  25.891  0.2189  0.1990  0.0229
88312W        W89176   3.812  16.449  27.087 -0.0109 -0.3557 -0.0907
88313W        W89177   7.359  29.053  21.419 -0.1035 -0.3149 -0.0573
88314W        W89178  16.163  13.581   9.225  0.0063  0.0211  0.2347
88315W        W89179  23.457  27.568  22.339 -0.1483 -0.1418  0.2264
88316W        W89180   1.807  10.898  11.135 -0.0614  0.0335  0.1432
88317W        W89181   7.389  16.558   7.319 -0.0795 -0.1541  0.0506
88318W        W89182  12.352   8.075  19.555  0.1275  0.1161  0.0110
88319W        W89183  20.075  29.132  12.521 -0.0632  0.0778  0.2369
88320W        W89184  11.110  12.067   9.841 -0.4953 -0.2716 -0.2148
88321W        W89185  23.906  28.882   4.769  0.0332 -0.0611 -0.1908
88322W        W89186  12.486  24.967  15.327  0.1468  0.0366 -0.2181
88323W        W89187  15.085  17.270  25.711  0.0447  0.1142  0.2179
88324W        W89188  27.605   8.101   1.425 -0.0650  0.2319  0.3115
88325W        W89189   2.867  16.921  12.136 -0.0224  0.0886  0.0050
88326W        W89190  10.837  14.711  25.140 -0.0209 -0.1307  0.0818
88327W        W89191  12.081   3.123  17.280 -0.2221 -0.2027 -0.0911
88328W        W89192  22.005   7.165   7.533 -0.1465  0.0240  0.0983
88329W        W89193  25.693  19.524  15.383 -0.0079 -0.0141  0.2977
88330W        W89194   5.796  13.249  18.038 -0.0736 -0.4646 -0.1332
88331W        W89195  10.349  18.338  21.191  0.1017 -0.1460  0.0930
88332W        W89196   1.024  23.167  22.938 -0.1396 -0.3640 -0.2024
88333W        W89197  20.275  10.776  23.980  0.0958 -0.0082 -0.0326
88334W        W89198  19.704  18.774  10.994  0.0910 -0.0482 -0.2847
88335W        W89199  11.836   9.746   6.255 -0.0329 -0.3046 -0.0349
88336W        W89200   2.410  23.466   7.737  0.3177 -0.1222 -0.0454
88337W        W89201  22.838  18.067  12.189  0.2027 -0.3920 -0.0123
88338W        W89202  18.541  11.644  14.610 -0.1388  0.0676  0.1334
88339W        W89203  14.151  27.588  22.318 -0.1228  0.1418  0.0081
88340W        W89204  27.017   7.716  20.649  0.0106 -0.1010  0.1520
88341W        W89205  28.894   0.946  19.368  0.0127 -0.1854  0.2426
88342W        W89206   5.200  25.132   7.263  0.2017 -0.1688  0.3467
88343W        W89207   4.269   6.565  24.368  0.0574 -0.2363 -0.2888
88344W        W89208  14.703   6.176  11.439 -0.0001 -0.1338 -0.0068
88345W        W89209   9.118  16.852  18.671 -0.1059 -0.0625  0.3735
88346W        W89210  20.708  15.856   1.257 -0.4127  0.2044  0.1967
88347W        W89211   4.703   7.456  25.879  0.2107 -0.1824  0.1973
88348W        W89212  11.575  16.604   5.749  0.0658  0.1410  0.1597
88349W        W89213  26.496  22.125   8.104  0.0632 -0.1205  0.1893
88350W        W89214  16.404  19.879  20.215 -0.1347  0.1770  0.0590
88351W        W89215  28.251  19.117   5.294  0.0303  0.1722 -0.0126
88352W        W89216   7.149  21.001  26.225 -0.0858  0.0862  0.0026
88353W        W89217  27.975  14.441  19.565 -0.2375 -0.2685 -0.5103
88354W        W89218  19.777  16.371  15.998  0.1364  0.1396  0.1218
88355W        W89219   9.508  12.042   2.780 -0.0779  0.1894 -0.1444
88356W        W89220  23.980  12.788   2.422 -0.1436 -0.0514 -0.1221
88357W        W89221   1.602  26.344  18.372  0.2401  0.2329  0.2551
88358W        W89222  16.546   7.997  21.546 -0.1511  0.3511 -0.2929
88359W        W89223  21.239  11.903  14.336  0.0280  0.3884 -0.1771
88360W        W89224   6.022  17.463   4.205 -0.4077  0.0531 -0.2702
88361W        W89225  17.097  28.384  27.289  0.2752 -0.0717  0.5828
88362W        W89226   6.395  25.950  19.012  0.1832 -0.1777  0.0679
88363W        W89227   2.400   4.459  13.903 -0.0981 -0.0434 -0.1124
88364W        W89228  19.714  27.099  23.821 -0.4040 -0.0019  0.1560
88365W        W89229  26.810  26.458  21.905  0.1030 -0.1004 -0.1108
88366W        W89230  14.642   8.113  23.538  0.5312  0.2229  0.1733
88367W        W89231  12.130  10.185   3.973  0.2508 -0.1054 -0.0417
88368W        W89232  25.431  12.377  23.750  0.2435 -0.1211 -0.2397
88369W        W89233   5.420  26.878  20.831  0.0924 -0.3035  0.2977
88370W        W89234  20.048  12.276  13.394 -0.0413 -0.0086 -0.1055
88371W        W89235  25.857  29.050  13.813 -0.0463 -0.0509  0.2793
88372W        W89236  19.859   9.192  16.554  0.1194  0.1838 -0.2652
88373W        W89237  23.561   3.457  17.654 -0.1348 -0.2167  0.2852
88374W        W89238  24.200  28.276  21.265  0.2017  0.0996 -0.1676
88375W        W89239  27.233   1.894   8.041  0.1266 -0.3108 -0.3440
88376W        W89240  27.689  10.469   1.341  0.0966  0.0454  0.0016
88377W        W89241  10.332   7.375  15.063 -0.2713 -0.0831 -0.0114
88378W        W89242   3.592  14.242  12.911 -0.3159 -0.0442  0.0337
88379W        W89243  20.683  25.119  22.899  0.0881  0.0403 -0.0691
88380W        W89244  21.342  10.412   2.866  0.0007  0.1590 -0.1310
88381W        W89245   4.377  18.179  20.057 -0.0709 -0.1032  0.2841
88382W        W89246  18.658  13.752   2.008 -0.3433 -0.0920  0.1292
88383W        W89247  24.616  19.320  19.724 -0.1216 -0.3845  0.0453
88384W        W89248  13.502   6.290  27.354 -0.0852 -0.1833  0.3057
88385W        W89249  13.216   3.001  20.054  0.2072  0.1261  0.0315
88386W        W89250  15.718  28.987   7.616  0.0052  0.0264  0.0181
88387W        W89251  18.716  24.172   4.382 -0.0999 -0.0116  0.0405
88388W        W89252  17.466  11.499  24.078  0.1842  0.5155 -0.1067
88389W        W89253   8.144  24.136  19.642 -0.0448  0.2179  0.1461
88390W        W89254  10.655  14.115   9.911  0.0936 -0.0325  0.0171
88391W        W89255  28.695  11.877  10.706 -0.4477  0.0489 -0.0755
88392W        W89256   0.051   8.840   4.236  0.0066 -0.3333 -0.3973
88393W        W89257  15.756   3.541  11.710 -0.2498  0.1016  0.1322
88394W        W89258   9.965  21.892  11.610 -0.6036 -0.1306 -0.0552
88395W        W89259  19.825  20.020  25.241 -0.1036 -0.3985 -0.2131
88396W        W89260   7.025  17.986  28.293 -0.2348  0.0783  0.3663
88397W        W89261  21.151  16.424   3.484 -0.1642 -0.2547 -0.0825
88398W        W89262  10.228  21.329  24.939  0.0033  0.2816  0.0224
88399W        W89263  23.818  14.363  19.366 -0.1846  0.3383  0.0664
88400W        W89264  16.643   9.850  28.245  0.2073  0.1174  0.1340
88401W        W89265  26.846  25.406   4.872 -0.2339 -0.0435 -0.0908
88402W        W89266   9.210  12.885   5.692  0.0262 -0.1976  0.0466
88403W        W89267  23.980  26.590  20.864 -0.0155  0.2138  0.0818
88404W        W89268  16.996   3.286  24.997 -0.0101 -0.0743  0.5447
88405W        W89269  22.312  17.870  22.570  0.0066 -0.2006  0.1503
88406W        W89270  14.919   0.671  25.871 -0.0186  0.1578  0.0968
88407W        W89271  20.374  23.341  18.555 -0.1489  0.0820 -0.1489
88408W        W89272   8.592  20.108   5.961 -0.1583 -0.3673  0.1070
88409W        W89273   8.538   9.392   1.728 -0.1510 -0.0983  0.0613
88410W        W89274  15.463  23.318  25.772 -0.1250 -0.0086  0.2005
88411W        W89275   9.647  13.607   9.653 -0.1351  0.2791 -0.1524
88412W        W89276  19.247  26.644  19.050 -0.2661  0.1151  0.2922
88413W        W89277  23.967  18.572  15.561  0.0912 -0.0782  0.1553
88414W        W89278   0.822  10.555  13.682  0.1974  0.2758 -0.3043
88415W        W89279  19.381  10.828   8.344  0.0741  0.2706  0.1213
88416W        W89280  17.836   8.044  27.205 -0.2316 -0.1253 -0.1256
88417W        W89281  23.644   4.101   8.173 -0.1641  0.1795  0.2394
88418W        W89282  10.568  15.263  19.662 -0.1396 -0.0595 -0.0519
88419W        W89283  17.419  29.064  26.226 -0.0720  0.1919 -0.0769
88420W        W89284  14.169   8.867  18.399  0.3992  0.0401 -0.2229
88421W        W89285  28.684  13.774  26.395  0.0365  0.0468 -0.0778
88422W        W89286  18.528  17.499  18.951 -0.2341  0.1632 -0.5267
88423W        W89287  23.161   0.224   5.061 -0.2975  0.2828  0.0079
88424W        W89288  27.119  15.784  19.455 -0.1733 -0.1544 -0.2165
88425W        W89289  16.643  17.597   1.108  0.0174  0.1249  0.1633
88426W        W89290  26.461  15.536  17.526  0.0258 -0.2719 -0.0717
88427W        W89291  24.476  21.579  10.298  0.3330 -0.1443  0.2179
88428W        W89292   8.680   0.781  20.964  0.0771 -0.3599  0.0947
88429W        W89293  14.180  24.888  26.942 -0.1535 -0.0515  0.3615
88430W        W89294  17.018   9.686  22.154  0.1335 -0.0845 -0.3962
88431W        W89295  10.143   0.382  10.649  0.4235 -0.2936 -0.0567
88432W        W89296  24.018  15.069  18.996 -0.2396  0.4310 -0.1219
88433W        W89297  12.051   4.719   9.154  0.1391  0.2072  0.0627
88434W        W89298  21.971  15.560  12.669  0.1590 -0.3043 -0.1756
88435W        W89299  16.508  11.113  27.980 -0.3185  0.0681 -0.2517
88436W        W89300   7.125   8.739  16.328 -0.4042 -0.1955  0.2619
88437W        W89301   7.965  11.193  18.013 -0.1171 -0.0286 -0.1258
88438W        W89302  12.041  14.556  10.403  0.0164 -0.0673  0.2554
88439W        W89303   8.587  27.046  20.882  0.0432 -0.0800  0.5003
88440W        W89304  24.117   5.790  24.900 -0.2778 -0.2803 -0.1725
88441W        W89305  10.095  21.774  24.251 -0.0236  0.0209 -0.0548
88442W        W89306  28.399  16.483  23.682 -0.1396  0.2557  0.2346
88443W        W89307  19.435  19.056   2.129 -0.0136  0.0622  0.2816
88444W        W89308  21.404   0.982  25.670  0.0130 -0.3274  0.0619
88445W        W89309   4.832   4.867  10.258  0.3856  0.0656 -0.1552
88446W        W89310  11.266   3.656  12.602  0.2564  0.2557 -0.2012
88447W        W89311  16.042   4.693   9.392  0.0201  0.2247 -0.0196
88448W        W89312  24.668  16.551   4.718  0.1775 -0.1526  0.0094
88449W        W89313  13.817   9.379  18.213  0.5238  0.0069  0.0887
88450W        W89314   2.754  22.095  19.276  0.0041 -0.2060  0.0068
88451W        W89315  21.172  17.208  23.564 -0.3106  0.2242  0.2778
88452W        W89316  22.593  10.394  16.346 -0.0801  0.0520 -0.1147
88453W        W89317  19.680   3.596   2.161 -0.0255 -0.0733  0.2550
88454W        W89318  10.640   8.621  12.890  0.0235 -0.1174  0.0887
88455W        W89319   0.601  18.242  16.986  0.0201 -0.1508 -0.2761
88456W        W89320  26.755   1.165  22.566 -0.0213 -0.1606  0.0161
88457W        W89321   2.396  11.656  14.618 -0.0162 -0.0814  0.4053
88458W        W89322  14.349  28.466   1.425  0.1990 -0.0801 -0.1848
88459W        W89323   4.088  10.151   7.542 -0.2492 -0.3937 -0.1000
88460W        W89324   4.386  13.955  25.963  0.1417  0.1171  0.0818
88461W        W89325  21.845  12.814  18.825  0.1084 -0.1133  0.0725
88462W        W89326   3.358   3.647   1.137 -0.0077  0.1355 -0.2096
88463W        W89327  14.497  12.565  13.901 -0.1312  0.2296 -0.1625
88464W        W89328  26.625  10.424  12.241  0.2604  0.1552  0.0618
88465W        W89329   5.189  14.162   3.874 -0.0065  0.1011 -0.0161
88466W        W89330  14.782   8.358   2.179  0.1386 -0.1809  0.1320
88467W        W89331   9.390   1.736   6.279 -0.2353 -0.3289  0.0310
88468W        W89332  18.893  19.137  19.476 -0.0511 -0.0001 -0.1448
88469W        W89333  22.417   1.604  26.969 -0.0507  0.1000 -0.0071
88470W        W89334   8.581   5.980  20.366 -0.4765 -0.0790 -0.1936
88471W        W89335  16.419  14.893  27.309 -0.0527 -0.2187  0.0468
88472W        W89336   2.008  15.083  13.967  0.0337 -0.1971 -0.1357
88473W        W89337  15.908   8.054  28.132 -0.0571 -0.2377  0.0480
88474W        W89338  13.225   1.968  19.498 -0.0656  0.1580 -0.3125
88475W        W89339  15.382  17.383  12.112  0.1071 -0.0499 -0.0770
88476W        W89340  15.875  24.603   2.621 -0.2865 -0.0582  0.2864
88477W        W89341   7.831   4.995  24.353 -0.0785 -0.0100 -0.1046
88478W        W89342  12.265  17.422  22.710 -0.0969  0.2120 -0.0614
88479W        W89343   9.194  16.932  25.080 -0.1090 -0.0616 -0.5392
88480W        W89344  15.370  12.246  21.359 -0.5079  0.0842  0.3398
88481W        W89345   3.894  26.625  11.523 -0.0586 -0.3381  0.1490
88482W        W89346   0.484  21.895  26.933  0.2850 -0.0276 -0.2579
88483W        W89347   9.054   9.707   7.680 -0.1717  0.3398 -0.0395
88484W        W89348   9.203  20.265  28.655  0.0199 -0.0886 -0.3192
88485W        W89349  15.095  10.140  16.450 -0.1012  0.0460 -0.0896
88486W        W89350  20.194  29.071  17.603  0.0160 -0.2133 -0.1151
88487W        W89351  26.075  18.679  17.543  0.1762 -0.0147 -0.0144
88488W        W89352   9.124  24.811  15.936 -0.1896  0.0939  0.1486
88489W        W89353  14.929  22.532  15.654 -0.0326 -0.2262  0.3200
88490W        W89354   3.748   0.070   3.005 -0.1287 -0.0079  0.0530
88491W        W89355  26.562  16.391  27.275 -0.1492  0.2241  0.1849
88492W        W89356  19.649   7.640  12.840 -0.1259  0.1536 -0.0597
88493W        W89357  10.810   7.594   0.381  0.3105  0.3038 -0.0163
88494W        W89358  27.698  18.663  10.701 -0.2772 -0.0663 -0.1066
88495W        W89359   6.164   3.396  24.023 -0.0735  0.0424 -0.1260
88496W        W89360  15.907   8.815  14.868 -0.0646  0.0987  0.4635
88497W        W89361  24.444  17.396   2.497  0.0630 -0.0464  0.0619
88498W        W89362   7.456   3.860   9.739 -0.2056  0.2852 -0.3113
88499W        W89363   2.971   3.509  24.179 -0.2744  0.0085  0.0147
88500W        W89364  11.784   6.745   4.316 -0.3869  0.0592 -0.1718
88501W        W89365   2.606   8.371  24.011  0.3542  0.3479  0.0847
88502W        W89366  28.056   7.828  17.370  0.0846  0.0053  0.1233
88503W        W89367   3.655  10.498   6.091  0.2091  0.0727 -0.0423
88504W        W89368  12.391  14.388  18.410  0.2658  0.2504  0.0611
88505W        W89369   4.634   8.249  18.850  0.0919  0.4310  0.1149
88506W        W89370  13.641  20.216   2.236  0.0978  0.0127  0.0072
88507W        W89371   6.491  27.462   9.255  0.0212 -0.3619 -0.0216
88508W        W89372  23.359   8.386  19.526  0.1026  0.0305 -0.0843
88509W        W89373  16.344  25.287   7.306 -0.1724 -0.0644  0.0526
88510W        W89374  16.309   4.523   3.946  0.3549 -0.0510 -0.1562
88511W        W89375  25.026   2.809  20.327 -0.1240 -0.2325  0.0632
88512W        W89376  13.963  11.647   9.646  0.1090  0.0363 -0.0138
88513W        W89377  17.857   3.609   7.325  0.3866 -0.0494 -0.0166
88514W        W89378  24.847  21.930  17.465 -0.1999  0.0029  0.0516
88515W        W89379   7.020   7.543  12.116  0.0026 -0.3441  0.0326
88516W        W89380  16.895  10.365  24.455  0.0244 -0.0506  0.0191
88517W        W89381  19.831   9.055   0.181 -0.0902 -0.3927 -0.1027
88518W        W89382   3.258  23.710  12.187 -0.2606 -0.1655 -0.1112
88519W        W89383  18.836  11.149  23.027 -0.0495 -0.2579  0.1409
88520W        W89384   9.612  11.126  25.587 -0.0070  0.0287  0.2900
88521W        W89385   6.307  22.708  27.269 -0.0665  0.1979 -0.0172
88522W        W89386  15.506   2.789  21.874 -0.4057 -0.3120  0.0713
88523W        W89387   5.399  10.554  13.641 -0.2126  0.0284 -0.0878
88524W        W89388   0.780  26.846  18.489 -0.0795  0.3254 -0.2428
88525W        W89389  21.456  25.160  23.304 -0.1298  0.0890  0.1679
88526W        W89390  21.916   4.949   8.812 -0.0117 -0.0031 -0.1179
88527W        W89391   7.951   5.190  20.528 -0.2157  0.0637  0.2502
88528W        W89392  26.508   4.066   1.553  0.0125 -0.1477  0.1088
88529W        W89393  21.417  25.502  21.314 -0.2538 -0.3377  0.0888
88530W        W89394   6.235   1.979   9.981 -0.0847  0.3328  0.1502
88531W        W89395  16.527   6.258  14.695  0.1038 -0.1841 -0.0085
88532W        W89396  18.947  22.250  14.444  0.0781  0.2172 -0.2993
88533W        W89397  10.345  20.122   8.947  0.0480  0.3575 -0.0303
88534W        W89398  11.324  19.823  27.163  0.0104 -0.1133 -0.0362
88535W        W89399   6.269   2.612   3.306  0.1458 -0.1339 -0.0387
88536W        W89400   7.789  10.350  21.683 -0.3590 -0.0780  0.3874
88537W        W89401  19.566   9.874   2.576 -0.1651  0.2836 -0.0188
88538W        W89402  15.689   1.304  12.623 -0.0946  0.2282 -0.0051
88539W        W89403  20.956   0.609  24.424  0.0102  0.0313  0.1504
88540W        W89404   7.284   1.416  10.578  0.0137 -0.1300  0.1597
88541W        W89405  20.879  11.623  16.004 -0.0790 -0.0563 -0.0729
88542W        W89406   5.287  18.067  21.626  0.1287 -0.0381 -0.0260
88543W        W89407  19.723  22.658  11.443 -0.0039  0.0180  0.0120
88544W        W89408  13.665  15.764  29.051 -0.1105 -0.1073 -0.2312
88545W        W89409   5.092  26.779  17.927 -0.0324 -0.0310  0.0227
88546W        W89410  28.363  28.257  28.349 -0.2022  0.5736  0.2286
88547W        W89411  28.132   4.100   7.504  0.0492  0.2713 -0.1695
88548W        W89412  24.794   3.193  23.471  0.0428 -0.1619  0.1330
88549W        W89413   6.327  14.453  26.089 -0.0530  0.3971  0.1747
88550W        W89414  14.874  18.447  11.388  0.0195  0.1982 -0.2139
88551W        W89415   6.498  13.514  13.457  0.2365 -0.2474 -0.1645
88552W        W89416  11.728   4.477  14.234 -0.0216 -0.1319  0.0230
88553W        W89417  11.992   7.325  12.956 -0.1925  0.0736  0.1325
88554W        W89418  14.667   7.148  20.575 -0.1178  0.1308  0.0961
88555W        W89419  24.208  17.221   9.949 -0.3363 -0.1064  0.2534
88556W        W89420  12.663  22.133  21.044  0.1416 -0.3334 -0.0526
88557W        W89421  22.072  17.325  19.622  0.0187 -0.3047 -0.0951
88558W        W89422  15.503   3.366   5.242  0.0575 -0.1472  0.0078
88559W        W89423   5.889   6.200   8.717  0.2367 -0.1232  0.0713
88560W        W89424  16.484  12.524  12.100  0.2394  0.2358  0.0947
88561W        W89425   5.455  14.303   6.065  0.1091 -0.1228 -0.0508
88562W        W89426   6.541  15.086  21.529  0.0191  0.2917  0.2285
88563W        W89427  17.949  11.764   5.172  0.0978 -0.0952 -0.0959
88564W        W89428  12.587  26.648  20.816  0.0290  0.1151 -0.0969
88565W        W89429  11.630   4.553  19.724 -0.0102 -0.1046 -0.0805
88566W        W89430  13.152   1.172  13.518  0.0758  0.2095  0.2309
88567W        W89431  17.692   8.648  28.594  0.3328 -0.0077  0.3229
88568W        W89432  17.055  12.799   6.211 -0.2825  0.0180  0.0472
88569W        W89433  19.945  10.058   8.057  0.0591  0.0128  0.0807
88570W        W89434  16.013  13.457  20.467 -0.0994  0.2494  0.1535
88571W        W89435   3.592   5.822  25.760 -0.1512 -0.1002 -0.0610
88572W        W89436  26.080   9.859  15.496 -0.3023 -0.2128  0.1505
88573W        W89437  11.749  21.657  18.370  0.3803  0.0933  0.0337
88574W        W89438   4.930  13.079  26.808 -0.0787  0.4023  0.2974
88575W        W89439  24.563   4.853  16.784  0.2152 -0.3046 -0.0392
88576W        W89440  21.459  15.226   3.768  0.5277 -0.1197 -0.2107
88577W        W89441   9.849   3.130   8.074 -0.3102 -0.4221  0.1078
88578W        W89442  20.458  13.019  24.760 -0.0540 -0.1056 -0.3893
88579W        W89443  10.141   6.772  19.192  0.1843  0.0769 -0.1305
88580W        W89444  10.048  24.191  25.663  0.1755  0.0831 -0.0608
88581W        W89445  12.912  11.024  15.263 -0.0138 -0.0965  0.0678
88582W        W89446  13.070   8.650  14.122  0.0357  0.3595 -0.1330
88583W        W89447  23.503   2.584  28.044 -0.2167 -0.1803 -0.0786
88584W        W89448  23.991  11.728   2.707 -0.0343  0.1123 -0.3095
88585W        W89449   6.471  27.920  27.042  0.3881  0.1337 -0.0866
88586W        W89450   9.673  23.629  12.881  0.0054  0.1741  0.0298
88587W        W89451  21.450  19.760  20.018  0.0961  0.1978 -0.2354
88588W        W89452  14.942  17.473  21.914  0.2048 -0.1211  0.0713
88589W        W89453   5.910   9.002  26.790 -0.1201  0.0729  0.2039
88590W        W89454  12.382  16.620  11.843 -0.0762  0.1633 -0.1911
88591W        W89455   1.995  29.067   9.397  0.0389  0.0432 -0.1484
88592W        W89456   3.425   8.248  21.318 -0.0869 -0.0652  0.1294
88593W        W89457  12.971  12.177  19.159  0.0162 -0.1036 -0.0697
88594W        W89458  22.782   0.690  14.753  0.3031 -0.1638  0.1029
88595W        W89459   8.356  16.423  22.552 -0.1426  0.0050 -0.0103
88596W        W89460  20.249   6.229   7.085 -0.0209 -0.0133 -0.0031
88597W        W89461  18.665   5.413  19.912 -0.0053 -0.0575 -0.0696
88598W        W89462  11.714  25.499  11.704  0.0117  0.1954 -0.1567
88599W        W89463   8.429  20.343  27.033 -0.1108  0.0929 -0.0498
88600W        W89464  19.397   2.999  17.906 -0.1062  0.0993  0.0806
88601W        W89465  29.130  28.533   6.592 -0.0939  0.0983 -0.0009
88602W        W89466   2.390   9.761  23.013 -0.2246 -0.0009 -0.2325
88603W        W89467   3.538  10.036  17.284 -0.0440 -0.0390  0.1067
88604W        W89468   2.828  16.384  24.904 -0.2608  0.1626  0.1587
88605W        W89469   4.465  25.268   8.507 -0.1914 -0.1013 -0.0727
88606W        W89470   8.912  13.891  26.898  0.1320 -0.1146  0.1691
88607W        W89471   3.417  18.256  11.622  0.1144  0.1577  0.0098
88608W        W89472  16.395   8.094  27.296 -0.2373  0.0710  0.2415
88609W        W89473  10.370  19.881  26.731  0.0977 -0.4645  0.0994
88610W        W89474  13.514  21.312  20.267  0.1124 -0.0296 -0.1186
88611W        W89475  23.224  13.514  18.464  0.1921 -0.0648  0.0183
88612W        W89476  22.589  14.500   3.753  0.2934 -0.3156  0.0203
88613W        W89477   1.989  23.422  23.355 -0.1724  0.0922 -0.2092
88614W        W89478   3.485  13.871   7.792  0.3013  0.1640  0.0585
88615W        W89479  13.783  14.082   1.102  0.0416  0.2251 -0.0937
88616W        W89480   8.761   7.254  17.395 -0.1492  0.1427 -0.1088
88617W        W89481  27.976  12.448  20.682  0.1179  0.0607  0.0876
88618W        W89482   7.443  23.669   5.848 -0.0493 -0.1325 -0.1050
88619W        W89483  27.440  15.080  28.909 -0.3949 -0.0048 -0.1677
88620W        W89484   7.621   4.061  26.924  0.2702 -0.3692  0.1512
88621W        W89485  27.033   0.255  16.457 -0.0174 -0.2678 -0.0145
88622W        W89486   8.280   4.603  13.702 -0.3274  0.1299 -0.2113
88623W        W89487   3.329   3.729  14.473 -0.0718  0.0363 -0.3012
88624W        W89488   0.412  11.098  17.303 -0.0566 -0.1529 -0.0656
88625W        W89489  26.624   4.860   5.423  0.2796  0.1573 -0.1085
88626W        W89490  18.327   4.001  11.091 -0.0292 -0.4702 -0.1216
88627W        W89491  27.620   2.884   4.186  0.0322  0.0926 -0.0078
88628W        W89492  10.171  11.855  17.118  0.0814 -0.1048 -0.3749
88629W        W89493  15.340  16.891   1.863  0.1748 -0.1179  0.2202
88630W        W89494  13.656   0.821  16.381  0.2883 -0.0440 -0.1637
88631W        W89495   1.139   1.889   2.672 -0.0257 -0.3087 -0.1777
88632W        W89496  19.313  10.295  20.197  0.0174 -0.3176  0.3544
88633W        W89497  23.899   8.205  12.758  0.1923  0.1232 -0.1488
88634W        W89498  14.921  10.160  25.529 -0.1406  0.0240 -0.1082
88635W        W89499   4.447   8.388  26.162 -0.0108 -0.4164 -0.1558
88636W        W89500  23.889   3.825  25.228  0.0986 -0.0854 -0.1105
88637W        W89501  19.479  18.208  10.556  0.0480  0.0771  0.2702
88638W        W89502   8.025  16.336  24.041  0.1181 -0.1570 -0.2095
88639W        W89503  14.293   5.192   7.040  0.1324 -0.0513 -0.0801
88640W        W89504  27.108  25.085  13.349  0.2936 -0.0464  0.0581
88641W        W89505   6.251  13.040  14.275 -0.0302  0.1213  0.2844
88642W        W89506  26.356   8.290  21.244  0.1539 -0.1092  0.0096
88643W        W89507  15.815  17.068  14.022  0.0861  0.0645  0.0180
88644W        W89508  13.073  23.121   5.831 -0.0527  0.1725  0.0325
88645W        W89509  15.072  18.611  17.602 -0.0039  0.0305 -0.0668
88646W        W89510  20.147  19.263  10.205  0.3713 -0.2415  0.2474
88647W        W89511  13.281  13.309  17.013  0.1820 -0.1113 -0.2259
88648W        W89512  24.527   2.529  13.676 -0.1261  0.0824 -0.1387
88649W        W89513  21.499  23.328  27.523 -0.3202  0.1361  0.0938
88650W        W89514  21.835  16.739   0.749 -0.0192 -0.1978 -0.5068
88651W        W89515   9.676  21.093  27.505  0.0654 -0.0393 -0.0612
88652W        W89516  25.491  25.561  26.867  0.1968 -0.1412 -0.0767
88653W        W89517  26.380  13.509   3.767  0.1208 -0.0399  0.1073
88654W        W89518   4.879  14.195  19.775  0.1469  0.1301  0.0056
88655W        W89519  11.460  22.702  27.129  0.1036 -0.0905  0.0356
88656W        W89520   0.898  17.689  19.159 -0.0688 -0.1091 -0.1937
88657W        W89521  10.066   6.338  15.540 -0.1158  0.2165 -0.0559
88658W        W89522  24.522  23.557  18.363  0.0042 -0.1013  0.1555
88659W        W89523  27.254  15.455  26.848  0.0204  0.0630 -0.1789
88660W        W89524   5.768   9.494   9.779  0.1094 -0.1879  0.0634
88661W        W89525   5.660   4.795   9.311 -0.0063 -0.0691  0.0321
88662W        W89526  14.133  22.530  16.112  0.2144  0.2950 -0.3999
88663W        W89527   1.661  12.715  27.054  0.1012  0.1330 -0.0647
88664W        W89528  22.243   8.642  12.379 -0.0571 -0.2872 -0.3109
88665W        W89529   1.386  20.888  16.560  0.2464  0.2773  0.0402
88666W        W89530  28.056  17.290  24.239  0.2071 -0.0195  0.0550
88667W        W89531  25.002  11.981  22.946 -0.1773  0.0384  0.0695
88668W        W89532  16.742  14.497   7.021 -0.0907 -0.0472 -0.1737
88669W        W89533  28.769  12.382  10.725 -0.1753  0.1080  0.3945
88670W        W89534  10.234   6.082  28.543 -0.2474  0.1569  0.3504
88671W        W89535  22.763  15.594  18.474 -0.0212 -0.1406  0.0449
88672W        W89536  22.510  12.930   5.220 -0.0948 -0.2789 -0.1855
88673W        W89537  11.174   0.625  13.733 -0.0593  0.1977  0.2475
88674W        W89538   4.977  17.331   7.700 -0.0815 -0.1135 -0.0468
88675W        W89539   5.972  13.087  27.809 -0.1050 -0.1596  0.0705
88676W        W89540   7.196  20.532  14.424 -0.1692  0.2430  0.1381
88677W        W89541  21.534  12.769   0.964  0.0843 -0.2114  0.2362
88678W        W89542  10.457  28.633  12.987  0.0721  0.0434  0.0716
88679W        W89543   5.348  12.891  15.911 -0.3905 -0.0575 -0.1419
88680W        W89544  24.159  13.685   7.225 -0.0868  0.0212 -0.0447
88681W        W89545  27.663   7.563  23.980  0.0170 -0.0094 -0.1679
88682W        W89546  18.308  24.051  21.876 -0.1625 -0.0574  0.1020
88683W        W89547   5.233   9.737  19.439 -0.2874  0.0728  0.1599
88684W        W89548  10.368  12.134   6.209  0.0205  0.0249  0.0953
88685W        W89549   3.504   0.648  23.812  0.0144 -0.4605  0.0543
88686W        W89550  24.512  24.590  25.559 -0.0362 -0.2056  0.0323
88687W        W89551  28.391  16.335   3.022  0.1666 -0.1905  0.4197
88688W        W89552  16.698   4.175  23.876 -0.1400 -0.2092 -0.0950
88689W        W89553   3.158  17.173   3.247 -0.0435  0.1435 -0.1533
88690W        W89554  13.178  13.038   6.278  0.0728  0.0253  0.2123
88691W        W89555  18.821  28.748  10.189 -0.1612 -0.1431  0.1613
88692W        W89556  12.480  20.453   6.488 -0.1301 -0.4215  0.1836
88693W        W89557   3.469  12.839  19.071  0.3511  0.0900  0.0700
88694W        W89558   5.152  13.970  21.717 -0.0230  0.2573  0.1065
88695W        W89559  23.546  22.785   5.217 -0.2406 -0.1996  0.0625
88696W        W89560  19.496  16.888  13.194  0.1216  0.2375 -0.4142
88697W        W89561  25.044  15.434  11.891 -0.0111 -0.2433  0.1095
88698W        W89562   0.940  17.336  14.718  0.2857 -0.2450 -0.0897
88699W        W89563   1.439   2.010  17.067  0.3609  0.0162 -0.0519
88700W        W89564  21.255  18.119   7.234  0.1202  0.0029  0.1231
88701W        W89565  20.535  14.598   0.366  0.1687 -0.1204  0.4479
88702W        W89566  15.930  15.692   1.753  0.1362  0.0826 -0.2431
88703W        W89567  22.309   2.333   0.083 -0.1113  0.1748 -0.1176
88704W        W89568   5.967   3.875   6.785 -0.2206 -0.1014 -0.1017
88705W        W89569  18.315  11.709  11.191  0.1995 -0.0809  0.0052
88706W        W89570  24.838   9.182  21.314  0.0269  0.1213 -0.2143
88707W        W89571   2.592  14.302  27.657  0.2483  0.0080  0.2391
88708W        W89572  14.646  16.831  19.123 -0.0313 -0.1375 -0.1170
88709W        W89573  19.162  15.284  16.307 -0.2658 -0.1193 -0.0135
88710W        W89574  13.528  10.127  13.026 -0.0146 -0.1527  0.2552
88711W        W89575   2.555  11.549  26.111 -0.0417 -0.0450 -0.0106
88712W        W89576  11.678  21.250  22.242  0.1897  0.1650  0.3236
88713W        W89577  12.823   0.012  13.339 -0.0920 -0.4115  0.1709
88714W        W89578  27.979  21.920   5.208 -0.2132 -0.2153 -0.1118
88715W        W89579  13.895  21.174  21.361  0.2156  0.0835  0.0810
88716W        W89580   4.173  10.442  11.628 -0.0119 -0.2291  0.2222
88717W        W89581  20.182  12.196   8.337  0.0334  0.2692 -0.1253
88718W        W89582  20.785  13.906  16.880 -0.0612 -0.1468  0.0284
88719W        W89583  12.591  16.924   3.405  0.1648  0.2250 -0.2865
88720W        W89584  23.406  17.622  15.589 -0.1083  0.1821 -0.3794
88721W        W89585   7.538   7.310  26.837 -0.2413 -0.2762 -0.1212
88722W        W89586  27.181  10.898  21.344  0.0935  0.0134 -0.2106
88723W        W89587  19.267  10.544   9.792 -0.0824  0.1404  0.3434
88724W        W89588  13.186   4.975  27.604 -0.0738  0.0266  0.1312
88725W        W89589  18.159   3.822  16.148  0.2327  0.1939 -0.1217
88726W        W89590  26.380  21.440  13.198 -0.1199 -0.0333 -0.2113
88727W        W89591   4.408   0.021  25.787  0.0801 -0.3182  0.0205
88728W        W89592  11.392   9.855  22.871 -0.3445  0.0056  0.1778
88729W        W89593  22.613  15.179  20.596 -0.0542 -0.0439  0.0560
88730W        W89594  17.957   8.745   9.511  0.3650 -0.0834  0.1883
88731W        W89595  15.266  15.113  19.947  0.2008  0.0090  0.0488
88732W        W89596   5.555   4.060  15.585  0.0652 -0.2393  0.1568
88733W        W89597  11.805   0.897   1.516  0.1838 -0.0230  0.1823
88734W        W89598  23.736  22.124  26.361 -0.0872 -0.2272  0.2361
88735W        W89599  19.823   7.488   1.267 -0.1141 -0.2353  0.0930
88736W        W89600  28.214  13.161  18.763 -0.3820 -0.3938 -0.0052
88737W        W89601  21.324   5.704  12.537  0.0144 -0.3127  0.1323
88738W        W89602  16.814   6.088   6.342 -0.1995 -0.1904  0.0573
88739W        W89603  20.835   1.385  25.057  0.1818  0.1284  0.0434
88740W        W89604  10.047  14.867  20.671 -0.0160 -0.3616  0.2380
88741W        W89605  22.756  15.192  15.679  0.0226  0.1111  0.0664
88742W        W89606   1.779  29.051  24.038  0.2110 -0.1127 -0.0878
88743W        W89607   9.709  25.522  11.558 -0.0405  0.2409 -0.0055
88744W        W89608  15.840  10.444  13.644  0.2303 -0.0763  0.0223
88745W        W89609   4.481  10.697   6.415  0.1079 -0.2208 -0.0813
88746W        W89610  13.429  17.083  18.476  0.1155 -0.1622 -0.0427
88747W        W89611  17.719  27.444   0.038 -0.1077  0.0994  0.1183
88748W        W89612  23.749  10.994   5.518  0.2587  0.0996  0.0448
88749W        W89613   8.828   2.425  23.759 -0.0810 -0.0731 -0.3206
88750W        W89614  15.346  17.189  29.108 -0.0453 -0.1315 -0.0332
88751W        W89615  10.833   5.749  28.059 -0.0259  0.1941 -0.1317
88752W        W89616   8.130   5.115  18.293 -0.0409  0.3323 -0.1707
88753W        W89617   9.385   9.671  27.305  0.2675 -0.2359  0.0140
88754W        W89618  18.756  28.812   1.572  0.1421  0.1715 -0.2350
88755W        W89619  24.351  21.545  22.849  0.3044  0.3221  0.1035
88756W        W89620  18.896  15.624  25.298 -0.0377  0.2953  0.3809
88757W        W89621   1.967  27.144  18.020  0.0775  0.2140  0.0200
88758W        W89622  10.085  12.035  13.735 -0.1297 -0.1253  0.4537
88759W        W89623  22.044  10.816  19.162  0.0673  0.0990 -0.0800
88760W        W89624   3.908  11.164   7.574 -0.1355 -0.0384  0.3547
88761W        W89625  21.536   3.141   7.557  0.2534 -0.0318 -0.1860
88762W        W89626  23.250  14.186   8.666 -0.1429  0.0524 -0.1293
88763W        W89627  23.305  24.431  28.350 -0.1508  0.0424  0.0493
88764W        W89628  10.935   5.643  18.081  0.1788 -0.0453  0.1804
88765W        W89629   9.564  27.401  28.695 -0.0031 -0.0456  0.3134
88766W        W89630  17.966  16.004   0.680  0.2153  0.2284 -0.0193
88767W        W89631   2.127  10.158  26.958  0.1624 -0.1716  0.0019
88768W        W89632  14.952   4.486  17.341  0.1768 -0.0827  0.0600
88769W        W89633  10.295  14.575   9.212 -0.0218 -0.0329  0.0804
88770W        W89634  21.843  24.895   4.928  0.0180 -0.0922 -0.0911
88771W        W89635   9.688  28.920  20.428 -0.1026  0.1300 -0.2503
88772W        W89636   2.268  14.224  24.732 -0.0852  0.0661  0.0325
88773W        W89637  29.035  13.053  19.163 -0.1106 -0.1787 -0.0663
88774W        W89638  25.205  14.600  25.669 -0.0016  0.2695 -0.3722
88775W        W89639  19.407  15.363  22.675  0.3167  0.1025 -0.1245
88776W        W89640  21.967   9.690   9.152 -0.0686 -0.1639  0.2051
88777W        W89641  25.615  22.366  25.021 -0.0177  0.0715 -0.1370
88778W        W89642   6.070   8.792  21.818 -0.2446 -0.1163  0.1518
88779W        W89643   7.566  10.993   9.485 -0.1332  0.0031  0.0975
88780W        W89644   4.184  11.165  23.970  0.0910  0.2598 -0.0643
88781W        W89645   7.337  13.288  19.482  0.2243 -0.1604 -0.0630
88782W        W89646  10.123  17.038   9.585  0.1107  0.0872 -0.0464
88783W        W89647   7.782   5.346  24.715 -0.0520 -0.1630  0.0316
88784W        W89648   6.524   0.962  15.838  0.0445 -0.0745  0.1007
88785W        W89649   3.621   7.366   8.413  0.2818  0.0426 -0.1681
88786W        W89650  19.736  19.730  21.327 -0.1514 -0.0987  0.1760
88787W        W89651   6.930   7.916   2.890  0.0110  0.0129  0.0276
88788W        W89652  27.473   9.746   1.496  0.0649  0.3343  0.1277
88789W        W89653   0.646   0.386   1.454 -0.2691 -0.0031  0.0942
88790W        W89654  26.325   9.271  12.473  0.2221 -0.0659 -0.3126
88791W        W89655  12.386  29.136   5.697  0.1215 -0.2765 -0.0700
88792W        W89656   5.187  23.469  11.557  0.0409  0.3376 -0.1528
88793W        W89657  24.748  11.497   7.300 -0.1550 -0.3128  0.0505
88794W        W89658   0.846  21.164  23.514 -0.1577  0.1306 -0.3375
88795W        W89659   3.262   9.525  23.221  0.0017 -0.0046  0.1559
88796W        W89660   8.571  20.496  12.861  0.1147 -0.3756 -0.1442
88797W        W89661  20.712  28.584   2.177 -0.1215 -0.1837 -0.3407
88798W        W89662  11.227  25.851   2.166  0.0742  0.2036  0.1218
88799W        W89663  13.950  22.231  26.794  0.4446  0.3534 -0.0049
88800W        W89664  11.508   3.141   0.294  0.2380 -0.2123 -0.2259
88801W        W89665  11.465  19.534  24.232  0.1781  0.3341  0.1696
88802W        W89666   9.082  10.928  11.625 -0.1161 -0.1791 -0.0217
88803W        W89667   3.702  27.641  23.957  0.1444  0.0770 -0.2524
88804W        W89668   9.931  11.869   6.306 -0.1280  0.2215 -0.0493
88805W        W89669   5.615   8.215  26.288  0.2465  0.1323  0.1653
88806W        W89670  27.072  28.219  26.120  0.0073  0.1803 -0.1304
88807W        W89671  16.242  15.006  26.768  0.0064  0.1444  0.1193
88808W        W89672  28.567  22.739  17.681 -0.2535  0.4490  0.3117
88809W        W89673  20.213   7.595  14.649  0.1488  0.1613  0.3050
88810W        W89674  25.740   1.214  17.386 -0.0782  0.1101  0.0366
88811W        W89675   9.305  12.493  24.498  0.3457  0.0698  0.1037
88812W        W89676  19.552   7.840   0.065  0.0859  0.1425  0.0566
88813W        W89677   5.839  19.216   3.894 -0.0008  0.3079 -0.0484
88814W        W89678  13.722   3.310   0.122  0.1494  0.1321  0.1588
88815W        W89679  26.323  19.002  19.847  0.1036  0.2147 -0.1807
88816W        W89680  16.092  17.040  25.043 -0.1359  0.0342 -0.0663
88817W        W89681   4.714  25.614  26.309  0.1368 -0.1456  0.1095
88818W        W89682   9.250   5.161  12.813 -0.1168  0.1771 -0.1211
88819W        W89683  11.334  12.613   2.423  0.0872 -0.1633 -0.1738
88820W        W89684  17.897   0.072  19.752 -0.0142  0.4207  0.0590
88821W        W89685  14.658  15.365   3.231 -0.0384  0.3506  0.2402
88822W        W89686  13.955  19.054  27.453  0.1081  0.1724  0.0848
88823W        W89687   9.793  15.510  14.979 -0.1192  0.1250  0.0609
88824W        W89688  13.803  15.656   1.101 -0.1315 -0.0373  0.1261
88825W        W89689   9.861  16.890  25.608 -0.0288  0.0986 -0.1883
88826W        W89690  26.848   3.083   2.884 -0.0037 -0.0844 -0.2648
88827W        W89691  11.932   2.311  20.159  0.0001  0.3131  0.2472
88828W        W89692  23.693   2.868  10.795 -0.2054 -0.2532 -0.1772
88829W        W89693  13.701   0.209   6.346 -0.1111  0.0910  0.0033
88830W        W89694   7.169  20.133  17.461 -0.1259 -0.1758 -0.0757
88831W        W89695  13.032   1.140  11.768  0.1426 -0.0904  0.0146
88832W        W89696  21.757  23.689  11.488 -0.3324  0.2367  0.3018
88833W        W89697  20.454   1.105  25.307 -0.1575  0.0715 -0.1151
88834W        W89698  26.291  13.229   6.914  0.2149 -0.2719 -0.2168
88835W        W89699   8.441   5.108   3.457  0.2255  0.0190 -0.3529
88836W        W89700   1.528   0.757   9.309 -0.0194 -0.0283 -0.1339
88837W        W89701  11.367  10.918   6.232 -0.2399  0.1104 -0.1695
88838W        W89702  14.775   4.542   6.960 -0.0507 -0.2160  0.0896
88839W        W89703  14.796   9.149   8.079  0.2060  0.4426  0.1443
88840W        W89704   6.998   1.682  11.190 -0.1027 -0.0737 -0.0292
88841W        W89705   1.021   6.844   0.267  0.2992  0.2244 -0.0085
88842W        W89706   4.871   0.709  20.439 -0.1809 -0.0155 -0.0632
88843W        W89707  11.802  13.563  21.485  0.1285 -0.2341  0.0889
88844W        W89708  20.523  18.050   1.895  0.1096 -0.1220 -0.1548
88845W        W89709  23.612   6.258  20.270 -0.2663 -0.1390 -0.1043
88846W        W89710  11.696  22.569  18.484 -0.0434 -0.1204  0.1109
88847W        W89711  18.825  21.173  28.768 -0.1271  0.0608 -0.0337
88848W        W89712   0.557   7.435  20.739  0.1509 -0.2068  0.1449
88849W        W89713   9.754  11.541   1.397  0.0101  0.0191 -0.0507
88850W        W89714   7.857   2.154  18.401  0.1676 -0.0938 -0.1459
88851W        W89715  26.044   4.207   7.890 -0.1405  0.1631 -0.3453
88852W        W89716   8.299  15.913  22.835  0.0305 -0.1065  0.0467
88853W        W89717   5.732   0.728  24.617  0.0274  0.1158 -0.0510
88854W        W89718  12.157   6.274   4.332  0.2134  0.3059  0.0824
88855W        W89719   8.816  26.879  18.745 -0.0925 -0.0665 -0.3014
88856W        W89720  24.031  16.608  25.894  0.3639  0.1696  0.0899
88857W        W89721  26.797  25.323  28.168 -0.0793 -0.1746  0.3545
88858W        W89722  13.217   5.204   8.854 -0.0062  0.5078 -0.0262
88859W        W89723   3.711  13.030   2.437 -0.0525 -0.1613 -0.3780
88860W        W89724  20.079  12.839   0.063 -0.1090  0.1645  0.1883
88861W        W89725  27.388  18.247  12.550  0.1639 -0.0231  0.0557
88862W        W89726  10.011  27.102  15.773  0.0018 -0.1471 -0.0546
88863W        W89727  25.288  19.432  28.905 -0.1946  0.2980 -0.0873
88864W        W89728  15.516  12.779   1.296 -0.0941  0.4052 -0.0192
88865W        W89729  11.558  28.789  22.326  0.2315  0.1933 -0.0389
88866W        W89730   4.026  13.306  15.657  0.0524 -0.1135  0.1777
88867W        W89731  15.327  20.165   3.420  0.0907  0.1364  0.0443
88868W        W89732  28.024  16.050   6.338  0.3973 -0.2067  0.2747
88869W        W89733  12.030   9.525  15.942  0.0943  0.1097  0.1278
88870W        W89734  11.646   0.394  14.475 -0.0036 -0.2417 -0.3262
88871W        W89735  13.811  16.716  27.423  0.4287  0.0753  0.1321
88872W        W89736  25.861   9.735   9.530  0.4991  0.1331  0.1228
88873W        W89737   8.549  27.665   7.598  0.3372 -0.2010 -0.1167
88874W        W89738  26.040   2.257   8.603 -0.0577  0.1308 -0.0434
88875W        W89739  10.614  23.878  11.737  0.1865  0.2352  0.2777
88876W        W89740   1.585  17.379  12.471 -0.1892 -0.0101  0.3276
88877W        W89741  16.076  25.336  10.629 -0.0226  0.1947 -0.0724
88878W        W89742  12.477  11.375   2.707  0.0263 -0.0281  0.1932
88879W        W89743  25.722  20.287  18.939 -0.1335 -0.0996 -0.1334
88880W        W89744   7.688   7.944  23.087  0.2381 -0.0912  0.2038
88881W        W89745  12.682  14.448   6.054 -0.2316 -0.1099 -0.0594
88882W        W89746  13.877  13.033  15.455  0.0067  0.1161 -0.2497
88883W        W89747  15.531   5.052  20.059  0.0656 -0.0109 -0.0906
88884W        W89748   7.222   6.646  22.454 -0.0422  0.0818 -0.1176
88885W        W89749   7.533  15.321   5.698 -0.0499  0.0926  0.4079
88886W        W89750  12.417  25.721  14.869  0.0480  0.3084  0.1787
88887W        W89751  19.726   3.657   4.716 -0.1034 -0.0568 -0.2417
88888W        W89752  13.137  26.391  27.694 -0.1002 -0.1232 -0.3199
88889W        W89753  10.375   5.190  21.161 -0.1375 -0.0247 -0.0733
88890W        W89754  15.285   6.550  25.056 -0.2714 -0.0845  0.0451
88891W        W89755  23.263   3.476   7.526 -0.1221  0.3129 -0.0584
88892W        W89756  28.910   9.275   9.319 -0.4285  0.3155 -0.1433
88893W        W89757  20.462  27.629   8.926 -0.0089  0.2759 -0.0480
88894W        W89758  14.287   3.756  22.531 -0.2108  0.0003  0.0024
88895W        W89759  26.327  12.167  28.248 -0.2904  0.0992  0.2232
88896W        W89760  15.806  27.792  26.786 -0.2935  0.0935 -0.0310
88897W        W89761  20.812   2.647   6.371 -0.0230 -0.0235 -0.0011
88898W        W89762  12.014   4.095  17.303  0.1912  0.1420 -0.1994
88899W        W89763  15.697   9.363  20.918 -0.0392 -0.2417 -0.0130
88900W        W89764  18.715   0.688  13.751 -0.2461  0.2134  0.0781
88901W        W89765  21.230  18.883   1.047 -0.1248 -0.1640  0.2960
88902W        W89766  11.443  16.727   0.129 -0.0103 -0.2484 -0.2475
88903W        W89767   8.862  16.938  12.516 -0.2100 -0.0778 -0.0769
88904W        W89768  27.567   1.245  19.402 -0.0485 -0.1149 -0.0555
88905W        W89769  15.565   8.944   9.207 -0.3394  0.1640 -0.0796
88906W        W89770  12.952  19.094  24.802 -0.2540  0.2019 -0.1483
88907W        W89771   7.884  18.152   7.830 -0.0813  0.0151 -0.2698
88908W        W89772  11.883   7.851  15.733  0.2284  0.0145  0.1863
88909W        W89773  22.144   7.928  20.875 -0.1342 -0.0311  0.1002
88910W        W89774  10.791   7.749  22.492 -0.2310  0.0501  0.2153
88911W        W89775  23.362   4.709  16.463  0.1081  0.1111  0.1111
88912W        W89776  23.624  27.213  21.938 -0.1164  0.2268 -0.1628
88913W        W89777  18.983  16.859  26.202  0.1287 -0.1947  0.0671
88914W        W89778   2.874   3.798  26.998 -0.1689 -0.0787  0.0446
88915W        W89779   5.781   5.482  20.249 -0.0274  0.0394  0.2013
88916W        W89780   0.924  21.266  17.277 -0.0175 -0.3462 -0.0022
88917W        W89781  13.157   3.525  20.952 -0.0092 -0.1371 -0.0357
88918W        W89782  16.841  27.875  26.542 -0.2499  0.4708  0.3568
88919W        W89783  20.494  14.488  27.068  0.1694 -0.6028  0.1936
88920W        W89784   4.654   7.819  26.939 -0.1472  0.0438  0.0922
88921W        W89785   2.056  11.461   2.192 -0.1243  0.1167 -0.2187
88922W        W89786   3.091   7.957  16.516 -0.3886  0.1755  0.1723
88923W        W89787  16.203  21.174  21.631  0.1953 -0.1948  0.1919
88924W        W89788  21.531   7.640   6.506  0.1380 -0.1558 -0.4160
88925W        W89789  18.491   6.540   2.037  0.2445  0.2446  0.1252
88926W        W89790  17.684  16.116  22.590 -0.2990  0.0306  0.1505
88927W        W89791   3.661   4.008  28.968 -0.0247  0.1376 -0.0726
88928W        W89792  21.095  24.628  16.048  0.2684 -0.1143  0.0988
88929W        W89793  20.283  28.498  13.789 -0.0489 -0.1048  0.0520
88930W        W89794  13.776  13.523  12.674  0.0868 -0.0881 -0.2207
88931W        W89795   8.681  25.232  15.504  0.1412  0.1778  0.1678
88932W        W89796  13.749   3.997  17.734  0.0927  0.1416 -0.0557
88933W        W89797   9.922   7.889   3.139  0.2274  0.3323  0.1049
88934W        W89798   1.746   4.822  17.864  0.1913 -0.0732  0.1185
88935W        W89799  18.449  22.539  24.334  0.0898  0.1132 -0.1631
88936W        W89800  12.322   4.329  28.393 -0.1408 -0.1763 -0.2736
88937W        W89801  28.171  15.679  11.592 -0.0128 -0.2381  0.3871
88938W        W89802   5.273  20.445  14.215 -0.2446  0.2446 -0.1259
88939W        W89803  28.879  24.636  23.978 -0.0430 -0.3795 -0.2549
88940W        W89804  18.095   5.489   6.061  0.3061 -0.0237 -0.0629
88941W        W89805  13.583  12.337  17.147 -0.3107 -0.3016  0.1140
88942W        W89806   4.666   8.348   5.198 -0.0285 -0.1717  0.2407
88943W        W89807  26.003  10.192  16.020  0.4442 -0.0842  0.1205
88944W        W89808   8.133   3.514  21.409 -0.2092 -0.2940  0.0213
88945W        W89809  12.992  17.245  20.197 -0.0759 -0.4289 -0.0177
88946W        W89810  28.189   8.424  24.478 -0.0982 -0.2200  0.0447
88947W        W89811  14.805   2.795  23.778  0.1470 -0.0028 -0.0603
88948W        W89812  29.128  13.748  27.760 -0.1209  0.0681  0.2771
88949W        W89813   5.977   4.111  11.123 -0.2259 -0.1914  0.0466
88950W        W89814  14.980   8.373  20.140  0.0340 -0.2848 -0.3109
88951W        W89815   9.276   8.506  25.299  0.0753  0.0790 -0.3873
88952W        W89816  26.828  27.840   2.618  0.1767 -0.0878  0.1209
88953W        W89817  20.563  23.389  16.152 -0.0742  0.0788  0.0470
88954W        W89818  25.335   9.666   4.360  0.0133 -0.1030  0.1465
88955W        W89819  22.969  11.884   3.738 -0.1718  0.0040  0.0078
88956W        W89820  24.525  14.864  22.763  0.2520 -0.1409 -0.3511
88957W        W89821   7.845  15.560  25.976  0.2783  0.3230 -0.0167
88958W        W89822  17.058   6.262  21.351 -0.1704 -0.1187 -0.0184
88959W        W89823  15.210  25.125  22.724 -0.3807 -0.4498  0.1532
88960W        W89824  12.097  15.204  22.360  0.0552 -0.1569  0.1245
88961W        W89825  11.976  29.069  20.094  0.1673  0.3509 -0.0809
88962W        W89826  24.445  13.226  26.368  0.0843 -0.1841  0.0178
88963W        W89827  19.321  25.368  27.898 -0.2529  0.2232 -0.2857
88964W        W89828   3.739   8.859  16.334 -0.1896 -0.1457 -0.1471
88965W        W89829   7.652   1.302   9.951 -0.0296 -0.1226  0.0539
88966W        W89830   9.794  13.269   1.296  0.0180  0.0721 -0.0501
88967W        W89831   1.793  23.403  20.956  0.2762 -0.0085 -0.2009
88968W        W89832  20.771  17.697  20.378  0.1616  0.0731 -0.0006
88969W        W89833   3.494  12.574  20.052 -0.3489 -0.0535 -0.0795
88970W        W89834   7.930  13.318   9.059  0.1362 -0.1433 -0.0687
88971W        W89835   9.874  28.754   1.277  0.0820 -0.0391  0.4593
88972W        W89836  23.799  23.135  19.623 -0.1136 -0.1513  0.0075
88973W        W89837  19.688   8.289  26.556 -0.1868 -0.2426  0.1200
88974W        W89838  16.929  21.616  19.832 -0.1359  0.0807 -0.0190
88975W        W89839  22.581   7.533   0.410  0.0100  0.0697 -0.1752
88976W        W89840   8.349  10.544  21.605  0.0099 -0.1777  0.1957
88977W        W89841  24.598   7.552   8.792 -0.1523  0.1187  0.2833
88978W        W89842  22.908   7.378  12.968  0.1341 -0.0351  0.2186
88979W        W89843  14.977  12.595  11.337  0.2206  0.3487  0.2023
88980W        W89844   4.298  28.838   2.661  0.0361  0.0506  0.3874
88981W        W89845  23.621   3.347  26.011  0.1010  0.0139 -0.1055
88982W        W89846   8.174   8.935  14.828 -0.0476  0.1156 -0.0479
88983W        W89847   4.046  23.685  23.659  0.0045 -0.0530 -0.0723
88984W        W89848  19.494  12.050   6.624 -0.1922  0.3419 -0.0624
88985W        W89849  22.073  25.917  16.054  0.2781  0.0702 -0.4019
88986W        W89850  14.573   0.174  19.738 -0.1753 -0.0224 -0.2470
88987W        W89851   2.979  20.221   1.871 -0.3242 -0.2160 -0.1403
88988W        W89852  13.988  15.116  11.254  0.1371  0.1731 -0.1919
88989W        W89853  20.400  20.269  20.723 -0.1211  0.0915  0.0687
88990W        W89854  18.798  18.040  21.244  0.2468 -0.2805 -0.0280
88991W        W89855  11.449  13.268  22.403  0.0121 -0.1043  0.1147
88992W        W89856  14.275  20.856  28.565 -0.1142  0.2383 -0.0711
88993W        W89857  10.326  24.138   6.255  0.2557 -0.3290 -0.1384
88994W        W89858   0.835  23.663  22.828  0.0181 -0.0438  0.0617
88995W        W89859  26.823  19.039  23.931  0.0921 -0.0815 -0.1252
88996W        W89860   5.175  28.642  27.850  0.2794  0.1346  0.0679
88997W        W89861  13.569   1.684  16.808 -0.1969 -0.0031  0.0925
88998W        W89862   0.109  17.733   5.147  0.2991 -0.1817  0.0697
88999W        W89863  12.953  28.481   4.448  0.0112  0.0425  0.2738
89000W        W89864   2.578   3.549  26.721  0.0046 -0.1666 -0.0381
89001W        W89865  22.574   6.051  25.593  0.0298  0.2069  0.0753
89002W        W89866  27.840   1.932  27.313 -0.2061 -0.1569  0.1706
89003W        W89867  19.541  10.606  12.643  0.2006 -0.0495 -0.0988
89004W        W89868   6.335  20.792   7.961  0.1679 -0.3108 -0.0443
89005W        W89869  22.664  27.997  25.297 -0.2281 -0.0100  0.2618
89006W        W89870   2.059  25.369  19.889 -0.0224 -0.1025 -0.0599
89007W        W89871  18.571  11.999   9.938  0.1938  0.1581 -0.2784
89008W        W89872  24.957   6.546  28.838  0.1321  0.0604  0.0124
89009W        W89873  10.071  27.553  22.055 -0.0637 -0.3919 -0.0240
89010W        W89874  13.822  15.731  23.167  0.3032  0.1065  0.2749
89011W        W89875  17.905   8.811  21.338 -0.0814  0.1538  0.0402
89012W        W89876  22.230  17.392  12.769  0.3027  0.0419 -0.0247
89013W        W89877  15.225   6.000  20.059 -0.2509 -0.0718 -0.1984
89014W        W89878   2.884   9.360   5.988  0.0021 -0.0807 -0.1323
89015W        W89879  21.543  12.557   4.287  0.1950 -0.2867  0.0675
89016W        W89880  25.025  22.927   8.479  0.0305 -0.1151 -0.0478
89017W        W89881   9.280   9.545  27.817  0.1326 -0.0895 -0.3304
89018W        W89882  24.299  14.912   7.671 -0.0114  0.3279  0.0834
89019W        W89883  12.410   2.186  23.229  0.2023 -0.0347 -0.3733
89020W        W89884  13.659   4.345  12.456 -0.1335  0.1453 -0.0573
89021W        W89885  15.415  22.721  13.694  0.0754 -0.1081  0.1274
89022W        W89886   0.285   0.929  14.622 -0.3393  0.2879  0.0826
89023W        W89887  14.244  27.030  25.884 -0.1784  0.0078 -0.1661
89024W        W89888   9.189  11.926  17.920  0.0430 -0.1603 -0.1188
89025W        W89889  19.114   9.841  22.425 -0.1278  0.0737 -0.1512
89026W        W89890  11.844  12.648  23.454  0.1353  0.2791  0.1134
89027W        W89891  14.867  15.010   0.399 -0.0181 -0.1010  0.1787
89028W        W89892   7.403   3.318   7.190 -0.0217  0.0280 -0.2424
89029W        W89893  21.267   5.004  22.047  0.0346 -0.3453 -0.2442
89030W        W89894   2.901   0.760   1.064  0.0601  0.4377  0.1215
89031W        W89895  14.472  16.679  22.843  0.1243 -0.0017  0.0716
89032W        W89896   9.953   6.631  19.611 -0.1213 -0.0453  0.1348
89033W        W89897   3.895  27.834  28.616  0.2409 -0.0702  0.2854
89034W        W89898  10.885  17.514  28.578 -0.0021 -0.1355  0.0618
89035W        W89899  21.478  20.192  21.547  0.0529 -0.1775  0.2465
89036W        W89900   0.220   5.065  20.506  0.2529  0.2048  0.1334
89037W        W89901   0.402  18.501  23.977  0.0093 -0.0256  0.3153
89038W        W89902  16.477  12.392  17.014 -0.1878 -0.1107 -0.1685
89039W        W89903   8.774   5.296  22.753 -0.0776 -0.2931 -0.0099
89040W        W89904  21.232  24.939  26.726  0.0935  0.3814  0.0953
89041W        W89905  24.516  11.112  23.347 -0.4440 -0.2258 -0.3117
89042W        W89906  13.672  15.004  26.834  0.2761 -0.0995  0.0838
89043W        W89907   1.501  13.668  15.512  0.1664  0.0900  0.0824
89044W        W89908  22.760  27.940  26.697 -0.2181  0.1228  0.1284
89045W        W89909  22.531   3.014  13.124 -0.0872 -0.2268 -0.0848
89046W        W89910   1.386   1.912   3.138 -0.3654 -0.1452  0.1489
89047W        W89911  25.734  13.262  13.399  0.0101  0.2255  0.2254
89048W        W89912  15.029   8.951  17.147 -0.0594 -0.1475  0.0169
89049W        W89913   9.858  23.518   3.803  0.0748 -0.0915 -0.0064
89050W        W89914  19.025  28.981  13.746 -0.0963 -0.1495 -0.2066
89051W        W89915  14.982  16.999  22.036 -0.0179 -0.2792  0.2266
89052W        W89916  20.878  22.952  23.257 -0.1307 -0.2220  0.1049
89053W        W89917   4.048   1.041  21.667 -0.2126 -0.0692  0.1953
89054W        W89918  11.106  13.038  14.205  0.1737 -0.1125  0.0846
89055W        W89919  11.884  10.812  18.539  0.0104  0.0273 -0.0598
89056W        W89920  19.504   5.925  15.201 -0.1503  0.0852  0.3821
89057W        W89921  12.573  10.611   4.829  0.3433 -0.0334  0.2452
89058W        W89922  20.240  18.330   9.073 -0.2183 -0.1697 -0.0302
89059W        W89923  15.628  13.735  28.503  0.0217 -0.1760 -0.2734
89060W        W89924  26.964  13.886  10.224  0.2804  0.0098 -0.3074
89061W        W89925  25.306  21.468   0.824  0.2797  0.1315  0.0395
89062W        W89926  21.349  27.564  23.977 -0.0236 -0.0794 -0.0864
89063W        W89927   7.283  22.774  23.552  0.0549 -0.0533  0.0545
89064W        W89928   6.057  25.195  19.347 -0.0710 -0.1394 -0.2968
89065W        W89929   5.287  14.959  12.628  0.1551  0.5502  0.2852
89066W        W89930   1.838  11.275   5.102 -0.2395  0.0956 -0.0749
89067W        W89931  16.898   8.674  23.803 -0.1830 -0.0867 -0.0388
89068W        W89932   5.898   7.841  19.524  0.3156  0.0337 -0.2695
89069W        W89933  20.039  11.130  14.913  0.0517  0.4436 -0.2493
89070W        W89934  16.351   3.688  11.393  0.1423  0.1568 -0.0175
89071W        W89935  14.160  11.213  20.771 -0.1159 -0.0159 -0.2958
89072W        W89936  20.500  23.701  19.903  0.3206 -0.1783  0.1582
89073W        W89937  13.535  13.996  16.187  0.0013  0.1021  0.0375
89074W        W89938   9.127  16.120   8.386 -0.1592  0.2004  0.0059
89075W        W89939   9.895   9.294  20.660 -0.2024 -0.0433 -0.2236
89076W        W89940  19.573  17.221   2.189  0.1686  0.4105 -0.0350
89077W        W89941   0.856  19.707   5.393 -0.0749 -0.1624  0.0112
89078W        W89942  19.688   0.685  19.569 -0.2899  0.0409  0.1026
89079W        W89943  17.934  18.160  24.303 -0.1555  0.0049  0.0851
89080W        W89944   7.159  15.054  19.994 -0.1453  0.0679 -0.2287
89081W        W89945  11.741  18.209  27.689  0.0560 -0.3062  0.0382
89082W        W89946  23.299  18.173  22.035 -0.2601 -0.0332  0.2548
89083W        W89947   0.837  28.549  22.990 -0.1405 -0.1761  0.2600
89084W        W89948  28.029  17.289   0.514  0.1481 -0.2481 -0.1560
89085W        W89949  25.205  19.381  17.705 -0.1115  0.0751  0.1344
89086W        W89950  13.717  12.621  14.652  0.2605 -0.0916 -0.2591
89087W        W89951  26.817  10.056   5.430  0.0165 -0.0511  0.2886
89088W        W89952   1.533  27.546  16.276  0.0915  0.2194 -0.0058
89089W        W89953   5.959  28.267  26.258  0.0701 -0.3528  0.0730
89090W        W89954   8.710   9.542  12.491  0.2335  0.0370  0.4329
89091W        W89955   2.295   1.171  13.790 -0.0421 -0.0447 -0.1902
89092W        W89956   4.022  22.844  18.193 -0.0499 -0.2127 -0.1964
89093W        W89957   7.297   6.399   8.242 -0.2376  0.1619 -0.1798
89094W        W89958  29.132   0.665  19.755 -0.1636  0.0265 -0.1694
89095W        W89959   6.484   9.523  15.867  0.2681 -0.0429 -0.2320
89096W        W89960  28.991  11.638   6.242  0.2975  0.1866  0.0603
89097W        W89961   6.872  13.435   4.020  0.0444  0.0708 -0.1337
89098W        W89962  22.837   3.195  23.005  0.0403  0.0266  0.0271
89099W        W89963  29.072  21.323  22.351  0.1655  0.2661  0.1996
89100W        W89964   5.096  18.795  15.531 -0.1868  0.0152  0.3080
89101W        W89965   4.132   6.028  13.951  0.0798  0.3675 -0.2831
89102W        W89966  27.742  14.778  28.535 -0.1208  0.0445 -0.1020
89103W        W89967  13.055  26.196  23.944 -0.0178  0.1587  0.0731
89104W        W89968   6.046  25.710  11.122  0.1901  0.0297  0.3891
89105W        W89969  21.213   8.638  14.747 -0.0512 -0.0901  0.2177
89106W        W89970  20.556  18.588   8.180 -0.3208  0.3114 -0.1294
89107W        W89971  24.331   1.054  11.870  0.2905 -0.2006  0.0044
89108W        W89972   9.319  15.723  18.888  0.1344  0.1115 -0.2073
89109W        W89973  21.377  11.351  22.173  0.2704  0.1902  0.0764
89110W        W89974   7.306  12.725  19.777 -0.0875  0.1691 -0.1582
89111W        W89975  23.269   8.367   7.476  0.1829 -0.0609 -0.0512
89112W        W89976   6.552  16.637   1.526  0.0063 -0.3030 -0.1698
89113W        W89977   6.080  11.556  25.365  0.1678 -0.1049 -0.0087
89114W        W89978  22.353  13.468   6.677 -0.0102  0.0244  0.1422
89115W        W89979  13.813   7.922   2.318  0.0498  0.3247  0.0354
89116W        W89980   2.177   5.103  23.195  0.3279  0.1648 -0.1140
89117W        W89981  19.609  16.818  10.524 -0.1782  0.0853 -0.2186
89118W        W89982  11.726   4.039  25.847 -0.1172 -0.0077 -0.0553
89119W        W89983  13.758  16.072  27.117  0.2147  0.2438  0.0699
89120W        W89984  12.918   9.478  16.046  0.0167  0.4128  0.1774
89121W        W89985  21.346  17.346   4.400 -0.0640  0.0713  0.2952
89122W        W89986  17.212   3.361  28.874 -0.2123  0.0186 -0.0043
89123W        W89987  20.130  22.734  13.786  0.0671 -0.0582  0.1603
89124W        W89988  15.433   6.968   8.462  0.0872 -0.0015  0.0543
89125W        W89989  14.085  12.586  26.000 -0.1689  0.1679  0.1986
89126W        W89990   7.350  14.615  17.035 -0.4243 -0.3472  0.0975
89127W        W89991   9.789  24.412  28.455 -0.1312 -0.0088 -0.1764
89128W        W89992  11.993  15.651  19.575 -0.1860  0.1654 -0.1029
89129W        W89993   0.713   6.278   1.506 -0.4262 -0.1807 -0.1485
89130W        W89994  15.742  13.922  21.613  0.2097 -0.0449 -0.2325
89131W        W89995   8.811  28.460   3.186  0.1538  0.0074  0.0195
89132W        W89996  19.599   3.451  10.255  0.0400 -0.0666 -0.4194
89133W        W89997  28.566   8.973  13.117  0.0390 -0.2709 -0.3340
89134W        W89998  18.116   3.172   0.829  0.0565 -0.2487 -0.1648
89135W        W89999  24.973   2.549  15.351 -0.1219 -0.1410  0.0011
89136W        W90000  16.262  12.340  16.171 -0.3998 -0.0463  0.0699
89137W        W90001  19.107  11.718   2.222 -0.0049  0.0642  0.3705
89138W        W90002  25.101  17.106  27.369 -0.0743 -0.1831  0.1174
89139W        W90003  20.131  10.637  24.479 -0.0130  0.2768 -0.1263
89140W        W90004   1.227  11.856   0.723  0.1408  0.1132 -0.2676
89141W        W90005  21.086  15.799  11.101 -0.2605  0.2988  0.2984
89142W        W90006  23.174   9.677   8.419 -0.1567  0.2234  0.2404
89143W        W90007  20.705   5.301  19.318 -0.4234  0.5753 -0.1428
89144W        W90008  24.799  16.225   0.437  0.3395  0.0504 -0.2172
89145W        W90009   5.096  15.785  27.550 -0.1231  0.0803 -0.1738
89146W        W90010  12.474  11.352   1.802  0.0113 -0.0509  0.0209
89147W        W90011   9.410   3.532   7.020  0.1780 -0.0522 -0.3145
89148W        W90012   4.225   9.360   8.036  0.1252 -0.1673 -0.1570
89149W        W90013  11.240  17.793   2.699  0.1541  0.0704 -0.1195
89150W        W90014  28.849  23.196  19.401  0.1527  0.0689 -0.0233
89151W        W90015   6.964   5.853   6.293 -0.0783 -0.0125 -0.0114
89152W        W90016  22.276   4.880   8.433  0.0675 -0.1315  0.2193
89153W        W90017  28.552  17.782  25.342 -0.1362  0.0607  0.3951
89154W        W90018  16.128  18.022  12.367  0.1237 -0.1308 -0.2610
89155W        W90019   6.786  18.353   8.318  0.0043 -0.1143 -0.0596
89156W        W90020  26.156  12.892   8.040  0.1631 -0.0818 -0.3374
89157W        W90021  22.679  25.117  13.243 -0.2954 -0.0411  0.0795
89158W        W90022  22.032  18.886   9.070  0.1073 -0.1341 -0.2095
89159W        W90023  16.342  10.284  21.327  0.2229  0.0320 -0.4257
89160W        W90024   8.125   8.068   6.579  0.2076 -0.2476 -0.0120
89161W        W90025   9.015  13.077  10.535  0.0785  0.3089 -0.0834
89162W        W90026  10.212   2.112   6.031 -0.1315  0.0972  0.0390
89163W        W90027   0.225  17.446   4.725  0.1456 -0.0244  0.1174
89164W        W90028  23.722   9.160  20.463  0.0646 -0.1567  0.1344
89165W        W90029  25.258   0.003   8.399 -0.0833  0.0370 -0.1221
89166W        W90030  23.310  14.887  15.228 -0.0727 -0.1836  0.1978
89167W        W90031  26.976  22.840  25.969 -0.1262  0.0648 -0.6113
89168W        W90032  12.074   7.836  28.547 -0.4405 -0.0579 -0.1998
89169W        W90033  11.883   7.809  19.503 -0.0182  0.2588 -0.2956
89170W        W90034  25.578   0.171   4.040 -0.3074 -0.0309 -0.2000
89171W        W90035  26.542  12.984  11.749  0.4136  0.2535 -0.0828
89172W        W90036   2.637  22.532   6.646 -0.0424  0.0985  0.3427
89173W        W90037  18.291   4.582   3.556 -0.1881 -0.2223  0.1661
89174W        W90038   1.239   6.664  21.781 -0.1127 -0.0342  0.0907
89175W        W90039  16.294  25.174  24.669 -0.4051 -0.0284  0.0277
89176W        W90040  14.332  27.654  23.853 -0.2528  0.0526  0.0042
89177W        W90041  17.277  10.947  21.817  0.1312 -0.0195 -0.1289
89178W        W90042  15.189  27.851   0.870  0.2255  0.0103 -0.2013
89179W        W90043  14.526   8.745  20.863  0.2494  0.0702  0.1365
89180W        W90044  15.606  10.456  11.744 -0.1926  0.0578  0.1317
89181W        W90045  26.008   8.877   0.304 -0.0392  0.0888 -0.0504
89182W        W90046  27.121   3.944  19.898  0.2014 -0.0360  0.0952
89183W        W90047  21.413  11.414   4.488 -0.0313  0.0018 -0.0016
89184W        W90048   2.216  25.930   6.326 -0.0197  0.0512 -0.0456
89185W        W90049   4.815   9.041   7.356 -0.2086  0.1532  0.0286
89186W        W90050  13.287  16.823  18.915 -0.2516 -0.2996 -0.2474
89187W        W90051  10.162  17.731   7.186 -0.1303 -0.1174  0.3779
89188W        W90052  13.603  13.911  14.913  0.2099 -0.2160 -0.0093
89189W        W90053  23.039   2.789  21.963  0.1276 -0.3074  0.1323
89190W        W90054  14.677   0.054   6.766  0.1306  0.1542  0.0737
89191W        W90055  18.403  10.840  11.623  0.0367 -0.0176  0.0257
89192W        W90056  14.594  22.179  20.139  0.0486 -0.2418  0.1122
89193W        W90057  26.616   1.690  15.453 -0.4034  0.0398 -0.0940
89194W        W90058  19.793  11.090   8.175  0.0093 -0.2873  0.1848
89195W        W90059  15.124   2.768  23.315  0.0761 -0.0227  0.0441
89196W        W90060  13.897  26.817   1.249 -0.0753 -0.1376 -0.3065
89197W        W90061  24.191  24.060   0.273 -0.2061 -0.1094  0.3055
89198W        W90062  14.492   8.097   1.571  0.0835 -0.1300  0.2229
89199W        W90063  16.530   6.067   0.773  0.1340 -0.3500 -0.1169
89200W        W90064  14.493  28.090  16.681 -0.1545 -0.0059 -0.5523
89201W        W90065   8.733  17.806  24.983  0.0223 -0.1374 -0.0414
89202W        W90066   6.224   3.419  14.656  0.0198 -0.0006 -0.0075
89203W        W90067  21.199  14.786   5.584  0.0358  0.0272  0.0626
89204W        W90068   6.554  19.287  25.828  0.4332 -0.2771  0.1620
89205W        W90069  17.282  24.124   1.903 -0.1424  0.1788  0.1963
89206W        W90070  25.806  12.130   2.986  0.0698  0.3398  0.0920
89207W        W90071   2.482  12.331  13.303 -0.2086 -0.2311 -0.1351
89208W        W90072  19.349  13.166   2.980 -0.0862  0.0410  0.0174
89209W        W90073  21.774   0.223  23.960 -0.0139  0.2216  0.2618
89210W        W90074  14.161  26.130   4.357  0.2321  0.0690 -0.0134
89211W        W90075  10.309  24.243  11.843 -0.2426  0.4101  0.1389
89212W        W90076  10.797  17.570  26.699  0.2321  0.5196  0.0067
89213W        W90077   0.402  13.903  17.341  0.2510 -0.0482  0.2093
89214W        W90078  15.436   8.997   0.131 -0.0044  0.2024  0.4181
89215W        W90079  25.949  17.302  25.116 -0.4659  0.2760 -0.1564
89216W        W90080  15.019  22.005   4.955 -0.3288  0.0830 -0.0025
89217W        W90081   5.174  13.754  24.809 -0.0004 -0.2490 -0.0601
89218W        W90082  10.962  12.218  28.683  0.1386 -0.0402 -0.1560
89219W        W90083  25.430   6.065   7.696  0.0838  0.0197 -0.0528
89220W        W90084  24.827  11.826   4.844  0.1935 -0.3709 -0.0468
89221W        W90085   0.888   1.864  26.833 -0.1132 -0.0004 -0.3395
89222W        W90086   1.424  14.348  13.879  0.1619 -0.2036 -0.1465
89223W        W90087  11.357  20.193   7.472  0.1972  0.3247  0.2583
89224W        W90088   9.365  18.061  21.698  0.2442 -0.0752 -0.1280
89225W        W90089   0.168   8.437   4.598  0.0375  0.1077 -0.2679
89226W        W90090  14.131   4.009  21.708  0.0746 -0.0051 -0.3108
89227W        W90091  15.771  24.454   8.185 -0.3707  0.2154 -0.0695
89228W        W90092   1.948  20.479   2.463  0.1399 -0.1953  0.2795
89229W        W90093  12.556  17.822  27.822 -0.1543 -0.2181  0.1072
89230W        W90094  18.904  28.869   3.279 -0.2171 -0.1494 -0.0069
89231W        W90095   8.173  15.455  17.205 -0.1807 -0.1933 -0.0572
89232W        W90096   1.225   5.649  24.782  0.1006  0.1364  0.2470
89233W        W90097  21.801  28.633  28.324  0.0927 -0.0579 -0.2633
89234W        W90098  19.430  23.214  12.746 -0.1357 -0.2021 -0.0991
89235W        W90099  12.360   7.701  10.700  0.1641  0.1071  0.1292
89236W        W90100  20.806  14.295  13.194 -0.1431  0.0943 -0.0130
89237W        W90101   9.572  25.064  16.724 -0.0012  0.0036 -0.1969
89238W        W90102  21.853  27.798   0.212 -0.1756 -0.0051 -0.1436
89239W        W90103   7.733  10.024   7.454  0.0587  0.2369  0.2714
89240W        W90104  14.313  19.369   3.582  0.0861  0.3115 -0.1804
89241W        W90105   8.447   6.756  22.028  0.0915  0.1128 -0.0480
89242W        W90106  12.558  20.753  24.382  0.2614  0.0603  0.0251
89243W        W90107  14.855  22.008  13.911  0.0524  0.2527 -0.0902
89244W        W90108   6.204   3.716   2.185  0.4308  0.4184  0.0194
89245W        W90109  26.712   0.816  17.222  0.0317  0.0066 -0.1344
89246W        W90110  20.684  26.079   5.632 -0.1574  0.0630 -0.2011
89247W        W90111  10.997  13.814   8.090 -0.1276 -0.2208 -0.0298
89248W        W90112   0.498   6.166  22.909 -0.0213  0.0942 -0.2482
89249W        W90113  10.222  20.123   9.458 -0.2095 -0.2724  0.1970
89250W        W90114  21.084  13.318  12.460  0.0209 -0.0761 -0.2656
89251W        W90115  12.714  21.348   3.028  0.1002  0.0595 -0.0222
89252W        W90116   8.186   9.288  10.707 -0.0782 -0.0515  0.1492
89253W        W90117   9.372   7.502  23.654  0.1117  0.1097 -0.2404
89254W        W90118  10.601   1.360  17.913  0.2833 -0.0857  0.1130
89255W        W90119  21.030   1.368  11.954 -0.0556  0.0023 -0.0066
89256W        W90120  24.358  10.698  22.700 -0.0193  0.0394 -0.1678
89257W        W90121   3.350   1.142  27.458 -0.1185  0.0213  0.2239
89258W        W90122   6.475  19.443  17.737  0.1752  0.3192 -0.3910
89259W        W90123  18.061  19.593   2.021 -0.1753  0.0181  0.0967
89260W        W90124   1.731   0.742  25.192 -0.1064 -0.3155  0.0317
89261W        W90125   9.878   5.365  23.460 -0.2602  0.0678  0.1655
89262W        W90126   3.460   2.207  19.787 -0.2218 -0.0591  0.1892
89263W        W90127  27.833  15.449  20.144 -0.2021 -0.2212  0.2304
89264W        W90128   9.426   5.758  27.517  0.2241  0.2172  0.3442
89265W        W90129  13.420  17.766  26.605  0.1018 -0.3020 -0.4989
89266W        W90130  15.765  24.509  18.154  0.0417 -0.0014 -0.1073
89267W        W90131  26.416   3.733   3.320  0.0797  0.0650  0.3416
89268W        W90132  15.867   4.977   6.059  0.1480  0.1115 -0.0566
89269W        W90133   8.667   9.158  22.108  0.0480  0.1222  0.1962
89270W        W90134   3.452   4.314  27.908  0.0384 -0.0577 -0.1085
89271W        W90135  15.793  13.118   5.888 -0.2678 -0.0301 -0.0628
89272W        W90136  15.228   6.928  19.618 -0.2659  0.1682 -0.3049
89273W        W90137  24.919  15.758   8.387  0.2577  0.2868 -0.3034
89274W        W90138   8.561  13.311  15.766  0.0196 -0.0809 -0.2667
89275W        W90139  12.044   3.621   4.484  0.1388 -0.5222 -0.0967
89276W        W90140  28.736   6.749  12.033 -0.0163 -0.1892 -0.1296
89277W        W90141  14.248  20.919  15.575  0.1960  0.1306  0.1376
89278W        W90142  23.226  16.192  25.538  0.1576 -0.1007 -0.3697
89279W        W90143  14.462  23.229  25.785 -0.2729 -0.0185  0.1135
89280W        W90144  24.294  22.730  12.492 -0.2803 -0.1939  0.2036
89281W        W90145  14.732   1.048  10.435  0.0319 -0.0378  0.2314
89282W        W90146  21.468  12.995   8.001  0.1595 -0.0172  0.1670
89283W        W90147  10.158  14.959   1.068 -0.0265 -0.0814 -0.4990
89284W        W90148   7.655  20.453  15.931  0.3842  0.0753  0.5900
89285W        W90149   8.187  15.556  25.026 -0.0960  0.0321 -0.1089
89286W        W90150  25.767   2.303  21.912 -0.0063  0.3112 -0.1969
89287W        W90151  18.757  14.344   1.771  0.0408  0.1743 -0.2252
89288W        W90152   9.572  26.452  21.730  0.0131  0.0097  0.0939
89289W        W90153  18.034  25.380   1.527  0.1290  0.0460 -0.0739
89290W        W90154  11.376  25.564  27.634  0.1583 -0.2330  0.2225
89291W        W90155  27.803  18.223  17.664 -0.1435  0.0069 -0.1726
89292W        W90156  12.152  20.856  24.055  0.2146  0.1062 -0.0963
89293W        W90157  14.730  17.465  24.330  0.1960 -0.0760  0.0050
89294W        W90158  26.235  12.158   6.782 -0.2133 -0.1854 -0.3082
89295W        W90159   1.755   4.647  12.219  0.0614 -0.3862 -0.1102
89296W        W90160   2.905  13.311  27.072 -0.2494 -0.0509 -0.1455
89297W        W90161   7.907  22.714  13.266 -0.2105 -0.1574  0.2774
89298W        W90162  19.607  29.010  24.138 -0.2275 -0.2594 -0.2477
89299W        W90163  15.169   6.300  11.581  0.2109 -0.0367 -0.0797
89300W        W90164  14.989  24.809   9.260 -0.0480  0.1297  0.1037
89301W        W90165  23.995  22.247  12.438 -0.0727  0.2796 -0.0070
89302W        W90166  19.281  17.619   3.775 -0.1835 -0.0167 -0.1114
89303W        W90167  10.721  15.791  25.626  0.1395  0.2425  0.0816
89304W        W90168  28.569  23.167  14.092 -0.1113 -0.0707  0.0195
89305W        W90169  23.051  19.450  26.925  0.0428  0.1874  0.0641
89306W        W90170  16.969  20.322  24.401  0.1573 -0.3254 -0.2222
89307W        W90171  16.057   7.844  14.648  0.1608 -0.1265 -0.0557
89308W        W90172   9.821   3.328   9.099  0.1376 -0.1492 -0.1345
89309W        W90173   4.223   4.474  13.566  0.2458  0.2007 -0.1010
89310W        W90174  10.419  19.789  24.209 -0.0069 -0.0050  0.1218
89311W        W90175  11.411  21.898  27.409  0.0335  0.2545  0.0464
89312W        W90176   2.605  19.374   5.925 -0.6774 -0.1128 -0.0881
89313W        W90177  18.456   7.509  25.289  0.0673  0.0801  0.3044
89314W        W90178  22.259  19.768   3.145 -0.1743 -0.1796 -0.2508
89315W        W90179   2.345  20.204  22.492  0.1231  0.2644  0.0093
89316W        W90180   7.139  19.427  12.459 -0.0702 -0.0134 -0.1621
89317W        W90181   2.144  14.781  18.040  0.1771 -0.0866  0.1575
89318W        W90182  17.561  13.376  14.283  0.2169 -0.0037 -0.0595
89319W        W90183  16.760  21.225   1.549  0.1539  0.1922 -0.1577
89320W        W90184  16.565   6.087  11.877 -0.1167 -0.2342  0.4872
89321W        W90185  11.485  21.593  15.445  0.2834 -0.1843 -0.1769
89322W        W90186   5.839   9.963   7.762 -0.0949  0.1257  0.1331
89323W        W90187  16.347  19.222  27.836  0.0183 -0.1742 -0.2277
89324W        W90188   2.505  11.137   1.378 -0.1346 -0.0333 -0.2302
89325W        W90189   4.027   8.778  25.441 -0.1576  0.1209 -0.1205
89326W        W90190   0.368  11.039   1.409  0.3083 -0.2064  0.3223
89327W        W90191  28.198  14.610   0.635  0.2197 -0.1640 -0.0294
89328W        W90192  20.798  13.780  14.204 -0.1661  0.2419 -0.3361
89329W        W90193  20.371  10.737  16.635  0.1205  0.2346 -0.1537
89330W        W90194  12.650  27.373   0.935 -0.3360  0.0657  0.2065
89331W        W90195  22.016   1.513  23.394  0.1394  0.0829 -0.0967
89332W        W90196  13.502  14.064  22.859  0.2049 -0.0362  0.3563
89333W        W90197  11.722  20.027  27.621  0.0534 -0.2296  0.2363
89334W        W90198  24.457  20.939  19.933  0.0705  0.1402  0.0006
89335W        W90199  12.826  15.567  18.779  0.0166  0.1464  0.1070
89336W        W90200   5.392   6.782   9.542  0.0671  0.1272  0.1394
89337W        W90201  21.465  18.081  23.516  0.1043 -0.0502  0.3318
89338W        W90202  22.884  20.392  19.963  0.5475  0.0744 -0.0748
89339W        W90203   0.548  14.572  27.467 -0.2574 -0.1578  0.1229
89340W        W90204  10.682   3.961  23.145 -0.2845  0.0392  0.0518
89341W        W90205  18.263   0.734  21.657  0.2973 -0.0019  0.2894
89342W        W90206  26.417  10.537  28.523 -0.2040 -0.0714  0.2194
89343W        W90207   7.571  20.718  27.390 -0.0483 -0.1050 -0.1558
89344W        W90208   9.985   3.102  28.121  0.3160 -0.1361  0.2080
89345W        W90209   9.575   7.101   0.165 -0.2423  0.0441  0.1616
89346W        W90210  15.251   4.455  13.903 -0.0028 -0.0781 -0.1274
89347W        W90211   3.358  25.295  18.097 -0.1170  0.0825 -0.0566
89348W        W90212  20.285  24.644   9.710 -0.2266  0.1655  0.1399
89349W        W90213   5.247  24.275   9.222 -0.1009 -0.1206  0.0168
89350W        W90214  19.661  21.375   9.442  0.1003 -0.2849  0.0792
89351W        W90215  26.836  13.995  11.457  0.1562  0.0181 -0.1091
89352W        W90216  21.975   1.812  20.159 -0.2151 -0.2416  0.1441
89353W        W90217   6.409  15.996  22.282 -0.0972  0.2267  0.1535
89354W        W90218   3.369  20.043  19.486 -0.1965  0.2861  0.0853
89355W        W90219  18.194  11.458  24.049  0.1391  0.0575 -0.1121
89356W        W90220  15.195   3.884  27.286 -0.0571 -0.0051 -0.1020
89357W        W90221  11.056  10.192  19.678 -0.3737 -0.0812  0.0423
89358W        W90222   8.322   3.525  11.126  0.2817  0.2805  0.0087
89359W        W90223  25.576   4.023   9.366 -0.0630  0.0430 -0.0871
89360W        W90224  15.561  21.600   7.905  0.0512 -0.1461 -0.2138
89361W        W90225  15.360   5.496  12.977 -0.0399  0.0478  0.2464
89362W        W90226  23.955   3.990   9.376 -0.2654  0.0003  0.0330
89363W        W90227   1.422   9.926  20.471  0.2011 -0.0800 -0.2845
89364W        W90228   0.433  27.936  20.678 -0.0532  0.2801  0.0752
89365W        W90229   4.393   4.485  28.067 -0.2070  0.0201 -0.2881
89366W        W90230  16.244  10.557   3.719  0.0200 -0.0905 -0.3116
89367W        W90231   5.246  28.031   1.726 -0.0524 -0.2990  0.0368
89368W        W90232   6.688   9.988   3.594 -0.0845  0.1850  0.1117
89369W        W90233  14.986  10.628  23.275 -0.3381  0.1596 -0.1952
89370W        W90234  25.816   2.611  26.781 -0.0443  0.1727  0.2075
89371W        W90235   4.650  28.529  19.947  0.2951  0.0135 -0.0165
89372W        W90236   6.498  27.577  23.816 -0.0597 -0.2066 -0.3712
89373W        W90237  15.296  19.228  15.409 -0.1292  0.1076  0.2350
89374W        W90238  28.096  11.469  27.854 -0.4983 -0.3451  0.1255
89375W        W90239  20.230   7.303  12.004  0.0887 -0.0103 -0.2888
89376W        W90240  15.962  19.323  26.815 -0.2960  0.1626  0.1647
89377W        W90241   4.888  12.012  22.915  0.1349  0.3189  0.1815
89378W        W90242  18.568  24.243   8.754 -0.0108 -0.2919  0.0775
89379W        W90243  19.908  15.803  24.439 -0.1002 -0.0340 -0.1760
89380W        W90244   2.053  13.541   7.727  0.2035 -0.2331 -0.0081
89381W        W90245  17.866  25.381   3.939  0.4010  0.0259 -0.0253
89382W        W90246   8.100  14.010  17.279 -0.1684  0.0981 -0.1541
89383W        W90247   6.491   2.185  12.759  0.2156 -0.1833  0.2655
89384W        W90248   5.214   2.105   3.070 -0.0849 -0.1615  0.0668
89385W        W90249  11.463   7.181   3.827 -0.3284 -0.0818  0.6410
89386W        W90250  15.625  27.186   5.212  0.1197 -0.0069 -0.1359
89387W        W90251  25.860   5.937  25.291  0.1953  0.0162  0.0679
89388W        W90252  21.324   3.610   9.170  0.1537  0.4458  0.0373
89389W        W90253  17.035  10.478  15.070 -0.0545 -0.1168  0.3308
89390W        W90254  18.626  17.176   6.296 -0.1023  0.0130 -0.0692
89391W        W90255  18.229  21.971  27.921  0.1228  0.2399 -0.0729
89392W        W90256   0.196  10.746  15.154 -0.2303 -0.1567 -0.0629
89393W        W90257  16.643   6.917   3.138 -0.0477 -0.0147 -0.0390
89394W        W90258  23.149   5.854  28.339  0.0951 -0.0768  0.1046
89395W        W90259  12.598   2.135  26.234 -0.3038 -0.1090  0.0308
89396W        W90260  28.179   2.806  27.336 -0.1206 -0.2727 -0.1016
89397W        W90261   4.141   6.424  25.852  0.1106 -0.1633 -0.1893
89398W        W90262   6.797   5.998  24.268 -0.2270  0.4746  0.0278
89399W        W90263  15.071   8.268   3.950  0.1965 -0.3959  0.2553
89400W        W90264  14.637  18.277   2.829  0.1907  0.0565 -0.0040
89401W        W90265  13.987  19.760  22.614 -0.5146 -0.0430 -0.0858
89402W        W90266  17.606   2.138   1.188  0.2444 -0.2682  0.0321
89403W        W90267  22.982  15.996  24.089  0.0941  0.0010  0.2010
89404W        W90268   8.843  20.114  27.498 -0.5244  0.1339 -0.4237
89405W        W90269  16.222   1.119  26.180 -0.0657  0.0127 -0.4533
89406W        W90270  25.440  28.876  21.617  0.0307  0.2261  0.1430
89407W        W90271  11.388   5.078  22.810  0.1182  0.3151  0.0328
89408W        W90272  28.786  20.986   9.425 -0.0840 -0.1006 -0.0785
89409W        W90273  18.465  27.667  16.689 -0.2132  0.2243  0.2227
89410W        W90274  28.748   1.325  13.601 -0.2450 -0.1869  0.0596
89411W        W90275   0.779  13.804  22.821  0.0414  0.0551  0.0842
89412W        W90276  12.991  15.482  20.410  0.1798 -0.1128  0.0111
89413W        W90277  18.088  12.040   0.438 -0.1321 -0.1924 -0.0749
89414W        W90278   9.439  13.458   4.008  0.1686  0.1727  0.0281
89415W        W90279  21.188   7.789  21.826  0.2036  0.3124 -0.0660
89416W        W90280  23.379  27.668  19.371 -0.1067  0.0714 -0.1009
89417W        W90281  25.445  11.137  25.545 -0.2354 -0.1746 -0.2404
89418W        W90282   3.972  15.660  21.720  0.0987  0.0485 -0.0282
89419W        W90283  19.084  21.660  23.403 -0.0868  0.2246  0.3889
89420W        W90284  21.945  10.512  23.042  0.1094 -0.1769  0.1142
89421W        W90285  12.935   7.116  17.631 -0.0397  0.0752  0.1302
89422W        W90286  14.526   6.148  15.120  0.2778 -0.0003  0.0634
89423W        W90287  13.746  27.034   6.647 -0.0439 -0.0115  0.0184
89424W        W90288  21.252  11.065  27.275  0.2485 -0.0066  0.2421
89425W        W90289   3.994   4.318   2.963 -0.2006 -0.0085 -0.2341
89426W        W90290   1.501  11.202  28.144 -0.1698 -0.0299 -0.0860
89427W        W90291  15.069  15.459   6.866 -0.4098  0.2904 -0.1027
89428W        W90292  20.744  11.704  12.305 -0.1018 -0.1840 -0.0914
89429W        W90293  10.943  13.931   5.279  0.0335  0.0837  0.1893
89430W        W90294  15.602  24.425   3.414  0.0965  0.0218  0.2659
89431W        W90295  23.169  18.066  20.201  0.1516 -0.1252  0.0608
89432W        W90296  20.188   4.338   4.918 -0.0956 -0.1039  0.0911
89433W        W90297  13.252  12.874  18.515  0.3350 -0.0723  0.5074
89434W        W90298  12.070   7.390  20.331 -0.0036  0.0176  0.3371
89435W        W90299   8.163  17.325  23.846  0.1795 -0.1623  0.1668
89436W        W90300  14.764   1.471   1.824 -0.1604 -0.2767  0.0400
89437W        W90301   2.240  24.220   6.418  0.1027 -0.1377 -0.1458
89438W        W90302  18.897  11.662   4.701  0.0014  0.2497 -0.0573
89439W        W90303   9.859  11.647  17.989 -0.1412  0.0595  0.3894
89440W        W90304  18.147  18.999  25.740 -0.0364 -0.2135  0.0026
89441W        W90305  18.623  12.282  12.619  0.0891  0.4623 -0.2075
89442W        W90306   4.042  19.834  27.926  0.0917  0.0437  0.1045
89443W        W90307  14.968  23.567  18.316 -0.0757 -0.2145  0.1781
89444W        W90308  28.524  24.108   0.338 -0.0172 -0.0954 -0.1494
89445W        W90309   4.577  11.808   8.380  0.2639  0.2257  0.1878
89446W        W90310   8.610  19.406   4.594  0.1290  0.1886  0.1226
89447W        W90311   5.260   7.269  15.622  0.3241 -0.2998 -0.0958
89448W        W90312  12.577  17.981   6.961 -0.0598 -0.0351 -0.0842
89449W        W90313  24.709  17.490   7.528  0.1845  0.2557  0.0269
89450W        W90314   7.579  21.223  11.788  0.0228 -0.0081 -0.1117
89451W        W90315   6.904   9.938  15.941 -0.1160 -0.7160 -0.1839
89452W        W90316  12.735   7.231   7.002 -0.0588 -0.0275 -0.1741
89453W        W90317  17.336  28.882  19.992  0.3731 -0.4049 -0.0853
89454W        W90318  21.454  13.673   2.234  0.1050 -0.1610  0.2260
89455W        W90319  16.803   6.953  18.232 -0.3008 -0.2224 -0.0083
89456W        W90320   5.706  16.097  16.615  0.1392  0.0829  0.1837
89457W        W90321   9.709   5.057  27.135  0.3620 -0.0330  0.0042
89458W        W90322   0.675   9.857   9.716 -0.4131  0.1370 -0.0674
89459W        W90323  23.097   9.981   5.696  0.2693 -0.1382 -0.2853
89460W        W90324  20.360   3.043  20.738  0.0476  0.2818  0.2657
89461W        W90325  13.802   4.722  23.509  0.0799 -0.0560 -0.0557
89462W        W90326   0.778  15.124   7.230 -0.0709  0.0269  0.1997
89463W        W90327  16.940  16.332   5.097  0.1942  0.3349 -0.0620
89464W        W90328  26.970   3.577   7.655 -0.2493 -0.0614  0.1133
89465W        W90329  10.658  16.295   2.325 -0.1139 -0.2732 -0.1638
89466W        W90330  17.207  21.780  27.602  0.0421 -0.0410  0.2973
89467W        W90331   3.858  21.185  25.916 -0.0861 -0.2391 -0.0000
89468W        W90332  16.008  10.991   5.761 -0.1827 -0.1455 -0.1691
89469W        W90333   9.829  14.367  13.316 -0.1887  0.3402  0.3363
89470W        W90334  22.896  27.356  17.058 -0.0511  0.0668 -0.0075
89471W        W90335  13.277  23.745   5.000  0.2332 -0.1760  0.2457
89472W        W90336   4.691  19.701  26.472 -0.1818 -0.1403  0.2367
89473W        W90337  12.854   9.042  25.224  0.2651 -0.0566 -0.1511
89474W        W90338   3.471  13.730   9.817 -0.1150 -0.0625  0.0457
89475W        W90339  27.831  17.220  27.246 -0.0223  0.1409 -0.1736
89476W        W90340  14.757   2.034   0.797 -0.0804  0.1989  0.2111
89477W        W90341  11.113   8.317   3.027 -0.1966 -0.1116 -0.0561
89478W        W90342  20.209  13.771  24.112 -0.0784  0.0438  0.1241
89479W        W90343  15.518   7.749  12.002  0.3625 -0.0852 -0.3426
89480W        W90344  27.735   2.945  27.531 -0.0044  0.2282  0.3445
89481W        W90345  24.312  17.925  23.697  0.2982 -0.0012  0.0820
89482W        W90346   2.943  13.555  24.694 -0.0632 -0.3071  0.0595
89483W        W90347  24.054   8.528  16.788 -0.3155 -0.1225  0.0889
89484W        W90348  20.327  10.231   7.253 -0.0864  0.4259 -0.3013
89485W        W90349  16.121  14.221  11.012  0.0783  0.1676 -0.3241
89486W        W90350  27.846   8.292   0.625  0.0384  0.0171 -0.3401
89487W        W90351   7.348   7.030   2.036  0.0337  0.0102  0.0438
89488W        W90352   5.884  16.010   7.095  0.1246  0.0578 -0.2342
89489W        W90353  25.914   6.256  19.899 -0.3234  0.1297 -0.0352
89490W        W90354   4.645  10.530  27.963  0.1572 -0.0399 -0.0942
89491W        W90355  27.004   9.501  17.014  0.2475 -0.1010 -0.3596
89492W        W90356   0.831   0.723  20.340 -0.2195  0.0825  0.0734
89493W        W90357   0.412  21.967   5.283 -0.1370  0.0201 -0.0085
89494W        W90358  17.919  23.902  27.211  0.0935 -0.2993  0.0483
89495W        W90359  20.917  24.228  21.060 -0.2443 -0.0978  0.3640
89496W        W90360  14.045  12.525  22.249 -0.1610  0.2164  0.1731
89497W        W90361  27.481  12.291  13.910 -0.0117 -0.0334 -0.2074
89498W        W90362  11.036  23.840  26.727  0.0690  0.2555 -0.2924
89499W        W90363  23.430  20.008  18.511  0.1266  0.1609  0.1117
89500W        W90364   4.498  28.861   0.975  0.0209  0.2960 -0.0113
89501W        W90365  10.123   0.342  19.456 -0.0322 -0.3490  0.1573
89502W        W90366   0.953   1.078   2.010  0.0155 -0.1487  0.1874
89503W        W90367  11.643   6.572  22.834  0.2209  0.1079  0.3459
89504W        W90368   7.828  28.722   5.666  0.0843  0.0529  0.1221
89505W        W90369  27.278  13.473   2.863  0.0051  0.0676  0.1330
89506W        W90370  28.183  20.075   3.076  0.2239  0.0107  0.0726
89507W        W90371  10.613  20.888   3.786  0.0815 -0.0476 -0.1070
89508W        W90372  11.348  12.042   0.515  0.0663 -0.2050 -0.3473
89509W        W90373  27.983  20.274  23.099  0.0811  0.1373 -0.1504
89510W        W90374  25.694   2.008  19.723 -0.2082 -0.4398 -0.1067
89511W        W90375   8.126   9.146  23.538  0.0873  0.0991  0.1671
89512W        W90376  20.051  28.225  17.819  0.0696  0.3312 -0.0766
89513W        W90377  14.849  13.622   8.214 -0.2883 -0.1137  0.0120
89514W        W90378  13.759   5.122   0.395 -0.0894  0.0803  0.0879
89515W        W90379  23.608  23.971  11.410  0.3892 -0.1768  0.1683
89516W        W90380   6.819  16.686  14.102  0.0508 -0.2926  0.5191
89517W        W90381  11.734  20.955  14.933 -0.1756  0.0754  0.2040
89518W        W90382  15.126   6.802  15.552 -0.2464  0.1454  0.0607
89519W        W90383  11.449   0.330  22.889 -0.2160  0.3146 -0.1763
89520W        W90384  13.688  21.762  22.902 -0.1766 -0.0061 -0.0061
89521W        W90385  21.047  26.048  20.754  0.1784 -0.0657  0.1404
89522W        W90386   1.585  18.500   0.192 -0.0547  0.1502 -0.0311
89523W        W90387  22.629  12.636  19.398 -0.0331 -0.4497 -0.0373
89524W        W90388   9.459  14.577   9.331  0.0056 -0.2248  0.1254
89525W        W90389  10.490  15.104  15.194  0.0096 -0.2085  0.1272
89526W        W90390  10.387  13.075  24.632 -0.2020 -0.2973  0.0977
89527W        W90391  27.608  15.108   2.968  0.3191  0.0406  0.1723
89528W        W90392  13.515  13.453   6.190 -0.0162  0.0461  0.1305
89529W        W90393  18.472  12.916  26.475 -0.2581  0.2529 -0.3296
89530W        W90394   7.796  11.787  20.485 -0.2555  0.0093  0.0512
89531W        W90395  27.985  11.389   3.589  0.3307 -0.0532 -0.0729
89532W        W90396   4.332  27.565  20.072 -0.0383  0.1501 -0.2982
89533W        W90397  18.396  19.123  26.181 -0.1935  0.1746  0.1789
89534W        W90398  11.801  20.909   7.758 -0.1424 -0.0532 -0.2546
89535W        W90399  27.167  17.784  23.747  0.1418  0.3273  0.0049
89536W        W90400  26.571   4.537   0.527 -0.2437 -0.2326 -0.4898
89537W        W90401  28.513  18.280  15.181  0.0720  0.0176  0.1558
89538W        W90402  19.301  17.341   0.600 -0.1618  0.0970 -0.1464
89539W        W90403   1.683   2.847  22.965  0.1124 -0.0780  0.0324
89540W        W90404   6.859   9.883  18.483 -0.1435  0.0121 -0.2040
89541W        W90405  22.347   9.021   5.094  0.0089  0.1809 -0.1395
89542W        W90406  22.415  20.609  23.735 -0.1571 -0.2026 -0.0134
89543W        W90407   8.342  24.105   3.308 -0.1120 -0.0134  0.0907
89544W        W90408   0.915   8.893   3.211  0.0143 -0.0825 -0.1105
89545W        W90409  10.875  22.652  13.102 -0.0071  0.0464 -0.0072
89546W        W90410   9.675  14.947   3.057 -0.0277 -0.2116  0.0159
89547W        W90411  18.573  19.280  14.247  0.0434  0.0152  0.4471
89548W        W90412  21.424   5.991   3.714  0.2293  0.1218 -0.0199
89549W        W90413  28.273  14.111   0.664 -0.2920 -0.3382  0.1166
89550W        W90414  27.053  15.653   1.671  0.1491 -0.0910 -0.4275
89551W        W90415   1.307  21.039  24.455 -0.3588 -0.1324 -0.1418
89552W        W90416   8.588  29.111  17.745 -0.4856 -0.1347 -0.0622
89553W        W90417  25.294  10.739  18.785  0.3441 -0.1234  0.2075
89554W        W90418  21.114  18.627  20.283  0.0561  0.2555  0.2959
89555W        W90419   7.231  28.365  23.582  0.0344  0.0562 -0.0283
89556W        W90420   3.269   4.957  28.716  0.1150  0.0912  0.0507
89557W        W90421   4.143  16.085  23.023  0.0764 -0.0381 -0.0235
89558W        W90422   1.388  11.422   0.622  0.0840  0.3697 -0.2637
89559W        W90423  28.650  10.207  15.208 -0.2174  0.1409  0.2979
89560W        W90424  10.564  15.986  27.350 -0.1843  0.0164 -0.1742
89561W        W90425  12.663   7.980   5.255 -0.1767 -0.0740 -0.0961
89562W        W90426  13.677  17.640  15.853  0.2238  0.3837  0.0663
89563W        W90427   8.449  26.696  28.494  0.0680  0.2253 -0.0826
89564W        W90428   9.804  16.527  12.117  0.2504  0.2621 -0.1053
89565W        W90429  17.633  26.319   6.221 -0.2333 -0.4521  0.2725
89566W        W90430   2.138  21.286  22.903  0.1236  0.1649 -0.0584
89567W        W90431   9.621  10.175  22.589 -0.0784  0.4858 -0.0581
89568W        W90432   5.167  17.524  12.807  0.0412 -0.4154  0.2008
89569W        W90433  21.994   6.345  16.561  0.0085 -0.4593  0.3611
89570W        W90434  28.608  22.084  10.640 -0.3517  0.0434 -0.2621
89571W        W90435   6.852  18.010  28.854  0.1061  0.0357  0.1377
89572W        W90436  22.974   7.274  20.699  0.3572  0.4298  0.0028
89573W        W90437  24.642  14.898  26.281  0.0483  0.0396 -0.0816
89574W        W90438  12.407  15.260  11.098 -0.0658  0.0057 -0.2621
89575W        W90439  16.156  14.903  22.344  0.1883 -0.2432  0.1006
89576W        W90440   0.857  26.645   4.593 -0.0704  0.1065 -0.0256
89577W        W90441   9.802   3.507  23.415 -0.1524  0.0594 -0.0234
89578W        W90442  20.828   9.685  13.661  0.0425  0.1555 -0.1453
89579W        W90443  17.419  29.056   4.617  0.2918  0.0737 -0.0980
89580W        W90444   1.684  26.291  25.456  0.0290 -0.2255 -0.0291
89581W        W90445  12.571  21.652  24.551 -0.0414 -0.0823  0.2586
89582W        W90446   3.599   9.050  20.262 -0.0029 -0.1428 -0.0482
89583W        W90447  13.246  22.928  22.373  0.3932 -0.1288 -0.1601
89584W        W90448   7.617  24.596   6.332  0.2988 -0.0382 -0.1407
89585W        W90449   8.142   2.057  16.137  0.2588  0.3520 -0.1787
89586W        W90450  18.359  22.950  17.483  0.1163  0.0572  0.2483
89587W        W90451  22.362   9.502   4.836 -0.0076  0.2373 -0.1551
89588W        W90452   3.277   8.241  25.669  0.0522 -0.0745  0.5329
89589W        W90453   4.616   5.193  28.848  0.0110 -0.0263  0.0147
89590W        W90454   8.250  15.268  16.711  0.1766 -0.1887 -0.3533
89591W        W90455  26.156  12.586   2.867  0.2100 -0.0348 -0.1248
89592W        W90456   2.375  24.089  18.676  0.1936  0.0445 -0.2127
89593W        W90457  22.353   1.425   1.616  0.0021  0.1174 -0.0620
89594W        W90458   5.423   4.715  24.894  0.3247  0.1007  0.4553
89595W        W90459  19.671  22.724  22.949 -0.0997  0.3354  0.1715
89596W        W90460  25.494  15.641  24.694 -0.0619 -0.3374 -0.1443
89597W        W90461  12.034  11.344   8.039  0.1020 -0.2729  0.2659
89598W        W90462  10.781   3.377  27.237 -0.2062  0.1601  0.1494
89599W        W90463  24.427  22.075  10.226 -0.3975  0.2345 -0.0934
89600W        W90464  16.835  19.742  12.281 -0.0927  0.2455 -0.2184
89601W        W90465  18.766  20.927  25.728 -0.1336  0.1494 -0.0198
89602W        W90466   5.928  23.106  24.787  0.0784 -0.0511  0.1023
89603W        W90467  15.941   1.182  13.389  0.1556 -0.0437  0.0721
89604W        W90468   4.103   6.643   3.719  0.0647 -0.1466  0.0098
89605W        W90469   0.943  14.952   0.071 -0.0016 -0.1357 -0.0449
89606W        W90470  23.999  16.484   2.375  0.0509 -0.1890  0.1753
89607W        W90471  13.806   1.402  11.773  0.0236 -0.0438  0.1490
89608W        W90472   9.563  14.580  18.204 -0.1291  0.0132 -0.3834
89609W        W90473  21.856   3.750  24.330  0.0415 -0.1791  0.0012
89610W        W90474  15.987   8.565   4.144  0.0843 -0.2415  0.2444
89611W        W90475   7.242   7.856  14.631  0.0025  0.1941 -0.5174
89612W        W90476   0.197   5.823  15.310  0.0280  0.0763 -0.2530
89613W        W90477  16.941   4.958  14.514 -0.0435  0.0270  0.2156
89614W        W90478   4.878   0.028  14.509  0.0153  0.2470  0.2694
89615W        W90479  22.033  16.142  12.117  0.1243  0.1209 -0.0719
89616W        W90480   8.868   3.528   2.991  0.2508  0.0592  0.1452
89617W        W90481   5.577  14.803  22.958  0.1881 -0.0747  0.0092
89618W        W90482  10.426   1.945  16.277  0.1689  0.0866 -0.4188
89619W        W90483  20.915  11.942   1.228 -0.0523 -0.0593  0.1622
89620W        W90484  28.443   8.305  24.881 -0.0496  0.3516  0.0947
89621W        W90485   9.849  28.148  23.679 -0.1742 -0.0064  0.0741
89622W        W90486  13.186  11.027  15.770  0.0339  0.2511 -0.2303
89623W        W90487   4.305  24.896  27.173  0.2405 -0.0918 -0.0958
89624W        W90488  27.341  11.237  27.162  0.0716 -0.0369 -0.0508
89625W        W90489  15.185  16.750  19.416  0.3009 -0.1373 -0.0836
89626W        W90490  10.203  26.763  25.698  0.0332  0.2555  0.1462
89627W        W90491  25.873  27.641  25.098 -0.2925  0.0327 -0.2565
89628W        W90492  13.944  22.670  20.343 -0.2244 -0.2161 -0.0032
89629W        W90493  15.980   0.814  12.965 -0.0801 -0.0748  0.2880
89630W        W90494  12.518  24.456  24.683  0.2450  0.2197  0.3047
89631W        W90495  14.927  18.213   3.968 -0.2154 -0.0603 -0.0963
89632W        W90496  11.546   7.640   1.970 -0.0949  0.0410  0.0769
89633W        W90497   4.802   4.968  23.807 -0.2612  0.0054  0.3116
89634W        W90498   9.522   5.862  12.220 -0.1558 -0.0854 -0.1526
89635W        W90499  22.398  21.500   9.852  0.0169  0.2462 -0.1680
89636W        W90500  12.963  25.825   9.443  0.4047  0.1957  0.0958
89637W        W90501  24.241  22.289   7.858  0.0042  0.2016 -0.0053
89638W        W90502  15.178  14.479  15.934  0.1404 -0.1163  0.0510
89639W        W90503  14.743  12.334  23.763  0.2456  0.0027 -0.3479
89640W        W90504  15.393   3.752  22.799  0.2120  0.0107  0.0178
89641W        W90505  19.477  23.282  12.219 -0.0646  0.1177  0.2100
89642W        W90506  11.306  27.789  21.374  0.1694 -0.1455 -0.1520
89643W        W90507   9.141  28.582  24.185  0.2064 -0.1276 -0.1069
89644W        W90508   0.056  23.553   1.386  0.2496 -0.1184 -0.2814
89645W        W90509  15.723  19.579  16.857 -0.2254 -0.1205  0.3309
89646W        W90510  17.642   9.059   9.281 -0.1902  0.0814  0.0567
89647W        W90511   8.499   1.722  13.396 -0.2371  0.1210 -0.1040
89648W        W90512  19.985  27.654  14.930  0.2461 -0.0766  0.1698
89649W        W90513   1.111  25.493  12.484 -0.1040 -0.2243 -0.1437
89650W        W90514   0.507  15.236  24.599 -0.3838 -0.0045  0.0556
89651W        W90515  16.216   5.357   2.833  0.0365  0.0153 -0.5575
89652W        W90516   7.135  18.697  28.751  0.1285  0.2383  0.1364
89653W        W90517  15.627  18.145  22.207 -0.0581 -0.2225 -0.0537
89654W        W90518   6.652   5.360  26.285  0.0276  0.0948 -0.1870
89655W        W90519  18.022  17.013  28.465 -0.2152  0.1408 -0.0888
89656W        W90520  25.151  22.359  17.646 -0.0242  0.3628 -0.4392
89657W        W90521  19.427  10.185  24.271 -0.2197 -0.0989  0.0528
89658W        W90522   6.634   5.951  21.904 -0.0522  0.0653  0.1541
89659W        W90523  17.030  25.167   5.612 -0.1970  0.0969  0.0456
89660W        W90524   4.135  18.259  11.983 -0.0534  0.0526  0.0654
89661W        W90525  16.722   4.643  28.512 -0.0273 -0.3720  0.3100
89662W        W90526   9.811  12.359  28.624 -0.1097  0.2588  0.2091
89663W        W90527   0.296   5.740  22.769  0.0432 -0.0080 -0.0571
89664W        W90528  21.562  27.694  22.329  0.3958  0.3578  0.1798
89665W        W90529  19.405  15.202  18.849 -0.2070  0.1442  0.1542
89666W        W90530  12.777   1.981  25.602  0.1297 -0.0864 -0.2715
89667W        W90531  13.954  25.909   4.788  0.0216  0.3024 -0.2195
89668W        W90532   3.621   8.164   9.398  0.3820  0.0859  0.0339
89669W        W90533  25.158   2.752  27.710 -0.0940  0.1655  0.0916
89670W        W90534  11.538   8.864  12.588 -0.0277  0.2851  0.0855
89671W        W90535   3.626   9.151  15.161  0.3535 -0.1710 -0.1676
89672W        W90536  10.342   7.060   1.501 -0.1728  0.1278  0.1232
89673W        W90537  26.232  14.548   0.075  0.0888  0.0505  0.0115
89674W        W90538  27.801  27.772   7.542 -0.1789 -0.1574 -0.2204
89675W        W90539  20.679  15.312  19.414 -0.1586 -0.1192 -0.1869
89676W        W90540  25.754  11.409  12.162 -0.2584  0.1056 -0.1759
89677W        W90541   1.522  16.602  13.538  0.3242  0.0292  0.2262
89678W        W90542   0.692  21.588  19.060 -0.2031 -0.1460  0.2963
89679W        W90543   3.046  27.197   9.196  0.0082 -0.1527  0.0834
89680W        W90544  24.914   7.979  28.098  0.0687  0.1618  0.1409
89681W        W90545   4.992   8.593  18.825  0.0303  0.0684  0.2165
89682W        W90546   6.442  27.411  28.268 -0.0182  0.3434 -0.0183
89683W        W90547  20.494  25.396  17.749  0.0178 -0.1828 -0.3157
89684W        W90548   1.543  24.956  10.061 -0.0489 -0.1445  0.0729
89685W        W90549  19.674  19.293  10.206  0.2405  0.2227  0.0105
89686W        W90550   9.242  19.407   5.803 -0.1295 -0.1884 -0.2593
89687W        W90551  20.971  23.386   7.155 -0.1653 -0.2677  0.2668
89688W        W90552  11.342  15.256  21.445 -0.1569 -0.2222  0.2182
89689W        W90553  15.502  11.461   8.526  0.2677  0.2485  0.0709
89690W        W90554  17.126  21.162  19.749 -0.1798  0.1549 -0.0575
89691W        W90555  27.129   3.095  20.142  0.0959 -0.2794 -0.2463
89692W        W90556   9.165  15.339  19.976 -0.1674 -0.0839 -0.0357
89693W        W90557  19.845   2.619   0.184 -0.1487 -0.0653  0.2219
89694W        W90558  14.814  14.715  14.039  0.2734 -0.2910 -0.1740
89695W        W90559  20.062   7.886   0.950 -0.4099 -0.0005  0.1292
89696W        W90560  25.203  23.340   1.594  0.2379  0.0621 -0.3585
89697W        W90561  19.704  15.497  13.186 -0.1840 -0.0159  0.0539
89698W        W90562  21.585  10.770   7.836  0.1833  0.0280  0.4200
89699W        W90563  24.844   0.825   3.724 -0.2022 -0.0582  0.1792
89700W        W90564  10.813   1.439  16.418  0.1485 -0.1123 -0.1050
89701W        W90565  16.987  24.585   9.952  0.0855  0.3013  0.0221
89702W        W90566  14.152   7.199  26.992 -0.1500  0.0173 -0.3277
89703W        W90567  22.634  10.893  20.749 -0.0361 -0.0473  0.1170
89704W        W90568  18.466  19.547  25.990  0.0904  0.1763  0.1646
89705W        W90569  15.078  13.718   7.741 -0.1855  0.0101  0.0208
89706W        W90570   6.898   6.689  24.341  0.1114  0.1792 -0.0915
89707W        W90571  15.778  21.574  17.931  0.1720 -0.0358  0.2176
89708W        W90572  20.578  15.995  23.522  0.0454  0.3030  0.1342
89709W        W90573   8.369  16.308   3.147 -0.0907 -0.0968 -0.1297
89710W        W90574   5.436  24.008  11.669  0.0092 -0.0784 -0.0487
89711W        W90575  15.964  21.302  22.105 -0.4031 -0.1160 -0.1222
89712W        W90576  10.397   9.507  16.131  0.0841  0.0541 -0.1303
89713W        W90577  19.512  12.755  26.941 -0.1131  0.0836  0.1608
89714W        W90578  21.608  27.430  17.063 -0.0653 -0.0663  0.2464
89715W        W90579  12.405  29.009  22.935  0.0453 -0.0522 -0.0013
89716W        W90580   5.903   2.458  27.296 -0.1328 -0.0483  0.0420
89717W        W90581  22.719  19.753   0.866 -0.0696 -0.1081  0.3588
89718W        W90582  24.159   3.500  23.333  0.2115 -0.2001  0.0326
89719W        W90583  12.642  15.117  20.300 -0.0493  0.1178 -0.1318
89720W        W90584   4.569   9.911  10.262 -0.0291  0.0426  0.0152
89721W        W90585  19.951   8.867  20.134 -0.1979 -0.1115 -0.1773
89722W        W90586   2.910   6.697  26.472 -0.3260 -0.0855 -0.2348
89723W        W90587   2.367   8.937  27.277  0.3562  0.2301  0.0835
89724W        W90588   0.964  12.364  16.446 -0.2744  0.0063 -0.0459
89725W        W90589  23.725  11.219   3.986  0.1193  0.0435 -0.2693
89726W        W90590  16.916  17.948  21.266 -0.1740  0.0363  0.0714
89727W        W90591   8.203  12.944  17.206 -0.1532 -0.0761 -0.0827
89728W        W90592   7.009   9.884  13.283  0.1351  0.0538  0.0819
89729W        W90593  19.225   8.106   2.964 -0.2106  0.1302  0.0945
89730W        W90594  22.682   1.630  16.512  0.2609 -0.0869  0.0215
89731W        W90595  28.103  18.888  24.445 -0.0084  0.0175  0.1056
89732W        W90596  21.947  16.373  23.129  0.1619 -0.0292 -0.0529
89733W        W90597   8.694  13.830   9.123 -0.1628 -0.2922 -0.1788
89734W        W90598   6.773  13.174  28.386  0.0032 -0.1759  0.1537
89735W        W90599  27.766   9.858  17.511  0.1356  0.0117 -0.1908
89736W        W90600  18.207  20.350  21.339  0.3122 -0.4486 -0.1386
89737W        W90601  18.596   9.312  17.555  0.3119 -0.1612 -0.3050
89738W        W90602   1.292  28.320  25.255 -0.1907  0.0403  0.0752
89739W        W90603  16.680   9.304  24.939 -0.1456  0.0579  0.3243
89740W        W90604   2.346   1.913   6.753 -0.0642 -0.2267  0.2366
89741W        W90605  13.568   7.039  25.695  0.0937 -0.0463  0.0647
89742W        W90606  20.392  20.861  21.145  0.0481  0.1925 -0.1304
89743W        W90607   7.100  14.300  20.885 -0.2555  0.2022  0.4822
89744W        W90608  20.576  20.182  18.015 -0.1402 -0.3313  0.0135
89745W        W90609   9.603  13.182  17.301 -0.4856 -0.0482  0.3188
89746W        W90610   4.387  18.563  28.551 -0.0422  0.1658  0.2498
89747W        W90611  12.150   3.296  14.957  0.0870 -0.1083  0.2799
89748W        W90612  22.700  10.168   7.871 -0.3759 -0.0118 -0.3606
89749W        W90613  19.094  21.691   0.192 -0.0625 -0.1452 -0.1174
89750W        W90614  13.397  18.154  27.393  0.0231  0.0115 -0.1397
89751W        W90615  15.191  27.832  24.165  0.0728  0.3575 -0.0696
89752W        W90616  29.095  28.568  25.050 -0.0531  0.0825 -0.3800
89753W        W90617  15.896  24.096  28.170 -0.1196  0.0385 -0.2247
89754W        W90618   9.622   6.789  17.441  0.0763 -0.2903  0.0393
89755W        W90619  10.451  16.648  17.530 -0.0478 -0.1331 -0.0611
89756W        W90620   6.310  16.187  21.172  0.0844 -0.0534 -0.1241
89757W        W90621   2.526  26.928  25.658 -0.1109  0.1316 -0.1005
89758W        W90622   4.325   7.303   7.210 -0.0993  0.1003 -0.0035
89759W        W90623  12.196  22.496  26.505  0.1013 -0.2215  0.1383
89760W        W90624  20.136  17.924  18.291  0.3197 -0.1118 -0.1416
89761W        W90625  14.101   6.926  23.375 -0.2792  0.0581  0.1174
89762W        W90626  22.289  22.541   3.707  0.2233  0.2459 -0.1367
89763W        W90627  18.305  16.932   4.573 -0.1390  0.1044 -0.1134
89764W        W90628   1.030  27.377  27.473 -0.1019 -0.0721  0.2248
89765W        W90629  28.865  18.566  25.566 -0.0920 -0.1797  0.1533
89766W        W90630  20.780  21.344   0.415  0.1799  0.0520  0.0731
89767W        W90631  25.555  26.517   8.222  0.2727  0.1078 -0.1194
89768W        W90632  18.551   3.061  14.786  0.3760  0.2443 -0.1394
89769W        W90633   3.369   4.142  14.123 -0.3805 -0.2415  0.1883
89770W        W90634  27.990   2.441   1.300  0.1142  0.2561 -0.1039
89771W        W90635   2.078  26.801   9.152  0.3000  0.1304  0.0338
89772W        W90636   3.397  18.230  22.435  0.0231  0.0899  0.1188
89773W        W90637  21.978  13.401  26.847 -0.0502 -0.0077 -0.1648
89774W        W90638   6.597  22.403  25.272 -0.1380  0.3397  0.0313
89775W        W90639   9.639  12.375  19.102 -0.0420  0.1547  0.0926
89776W        W90640   7.846  27.286  13.614 -0.1866  0.1611  0.0689
89777W        W90641   2.687  20.560   1.579  0.0603  0.3172  0.0866
89778W        W90642  17.375   5.330  13.049  0.0206  0.2823 -0.1451
89779W        W90643   7.311  27.859   9.455  0.1321  0.0796  0.2511
89780W        W90644  18.842   5.595  22.440  0.0665  0.0653  0.1611
89781W        W90645  14.389   5.566  20.446  0.0753  0.0031  0.1371
89782W        W90646  26.040   5.390   6.116 -0.0181  0.1754 -0.0297
89783W        W90647  22.622  17.110  13.615  0.0003  0.0479  0.1250
89784W        W90648  15.895  22.272  16.814  0.0170  0.0590 -0.3087
89785W        W90649   7.687  21.227  16.485  0.1885  0.2030  0.2429
89786W        W90650  20.139   8.000  26.979  0.1735  0.0863 -0.0833
89787W        W90651   6.378  29.131  11.129  0.0418  0.2260  0.0265
89788W        W90652  19.628  25.123  15.103 -0.1437  0.1066  0.2250
89789W        W90653  15.532  22.332  14.326 -0.1162  0.0678 -0.2127
89790W        W90654   2.019  12.503  27.982 -0.0486 -0.1756  0.1447
89791W        W90655   6.430  27.720  17.705 -0.0299  0.1630 -0.2245
89792W        W90656  10.848   1.890   7.014 -0.1327 -0.1246  0.0283
89793W        W90657  19.486   9.214   9.630 -0.1853  0.1971 -0.2006
89794W        W90658   3.243  14.782  18.030  0.2560  0.3910  0.2174
89795W        W90659  13.433  24.564  27.430  0.1289 -0.2062 -0.1274
89796W        W90660  16.330  24.562   7.560 -0.0166  0.0887  0.1172
89797W        W90661   5.390   2.994   5.185  0.0975  0.2237  0.0647
89798W        W90662   5.891  19.461   7.043 -0.0439  0.0265 -0.0563
89799W        W90663  19.985  22.268   2.094 -0.0519 -0.0839 -0.2709
89800W        W90664  15.561  19.843  28.974  0.4580  0.2657 -0.0671
89801W        W90665   5.955   0.845  18.975  0.2824 -0.1045  0.6784
89802W        W90666  18.759   5.489  13.699 -0.0762 -0.1913  0.1403
89803W        W90667  22.517  22.709  19.172  0.4099  0.0989  0.0424
89804W        W90668  24.490   5.165  26.758 -0.1474  0.0179 -0.0939
89805W        W90669  18.870  17.142  25.218 -0.1719 -0.2106 -0.0145
89806W        W90670   3.931  25.037  10.126  0.0127 -0.1001 -0.1177
89807W        W90671  20.236  23.588  26.055 -0.2826  0.2214  0.2257
89808W        W90672   8.639   9.610  16.506 -0.1957  0.0491 -0.2433
89809W        W90673   4.870   0.885   3.011  0.0381  0.0007 -0.2770
89810W        W90674  18.504  25.027  21.958  0.2161 -0.0528 -0.1905
89811W        W90675   0.957  13.673   0.059  0.1675  0.3923 -0.2485
89812W        W90676  26.284   3.408   5.760  0.1504 -0.1879  0.0144
89813W        W90677   0.378  17.905  26.492 -0.0398 -0.0742 -0.0010
89814W        W90678   3.512  12.263  23.934 -0.0146  0.1745 -0.1644
89815W        W90679  10.210  27.014  12.907 -0.1232 -0.2122  0.0501
89816W        W90680  11.898  21.970  23.029  0.0697  0.2908 -0.0864
89817W        W90681   2.904  20.005   2.999 -0.1384  0.0881  0.0953
89818W        W90682  18.167  13.838  16.399 -0.2332  0.0394 -0.0002
89819W        W90683  23.215   8.309   3.028 -0.1719  0.2887  0.3167
89820W        W90684  18.914   6.754   1.101 -0.0040 -0.1425  0.1998
89821W        W90685   3.186   5.693  10.482 -0.1850 -0.0959  0.0885
89822W        W90686   0.200   5.608  29.067  0.2260  0.2657 -0.1730
89823W        W90687  16.045  25.912   6.019 -0.0833  0.0357 -0.4060
89824W        W90688  26.279  10.764  12.008 -0.1615 -0.0584 -0.0914
89825W        W90689  19.479  23.117  21.655  0.0724 -0.0480 -0.0328
89826W        W90690   9.773   8.358  22.285 -0.0826  0.0050 -0.0009
89827W        W90691   3.487   8.371  17.597  0.2648 -0.0191  0.2557
89828W        W90692  23.163   8.433  23.311  0.3058  0.0275  0.0698
89829W        W90693  10.992  19.366   3.076 -0.0518 -0.0079  0.2720
89830W        W90694  23.681   4.984   1.633 -0.2306  0.2463  0.3192
89831W        W90695   1.998   8.846  25.221  0.0890 -0.1203 -0.0820
89832W        W90696  21.242  19.973  24.241 -0.1367  0.1042 -0.0548
89833W        W90697   2.550  20.530  22.101  0.0994 -0.2233  0.1022
89834W        W90698   2.821  28.398   3.801  0.0211 -0.0092 -0.2771
89835W        W90699  16.311   5.536   8.704 -0.0169  0.1112 -0.0505
89836W        W90700  14.880   8.930   1.408  0.0304 -0.1168  0.1682
89837W        W90701  19.771  11.130  17.253  0.0579 -0.1932 -0.4153
89838W        W90702  22.801  15.781  24.706 -0.1355  0.2598 -0.1945
89839W        W90703  15.488  12.100  22.143  0.0646 -0.0361 -0.0393
89840W        W90704  22.182  16.967   2.310 -0.2018  0.3012  0.1385
89841W        W90705  10.095  13.483   4.840  0.2268 -0.3053  0.0029
89842W        W90706   5.486   0.345   3.311 -0.1583 -0.2174  0.1925
89843W        W90707   5.220  13.904  26.399  0.3158 -0.0500 -0.0439
89844W        W90708   3.661  21.005  13.330  0.1160 -0.2413 -0.3922
89845W        W90709  16.232   3.907   5.909  0.2918  0.3352  0.0665
89846W        W90710  13.031   9.361   0.008 -0.1984  0.1422 -0.2262
89847W        W90711  28.095  29.133  11.188  0.2054  0.0353  0.0627
89848W        W90712   0.033  20.152  16.397  0.2357  0.0857 -0.1516
89849W        W90713  10.592   6.529  26.939 -0.0541 -0.0115  0.1050
89850W        W90714   8.476  10.709   3.487 -0.1145 -0.0054  0.1486
89851W        W90715  16.561  15.818  24.226 -0.0017 -0.0780  0.1972
89852W        W90716   7.462  17.947  22.105 -0.1160  0.2954 -0.0373
89853W        W90717  20.896   6.851   1.478 -0.3466  0.1464 -0.2160
89854W        W90718   5.234  19.978   5.993 -0.2030  0.2561 -0.0300
89855W        W90719   2.127  26.016  23.498  0.0896 -0.0980 -0.0284
89856W        W90720  16.221  15.212   4.625 -0.1828  0.4762 -0.0269
89857W        W90721  13.073  12.668  28.083  0.0800 -0.2281 -0.0043
89858W        W90722  21.872  14.528   1.760  0.2247  0.2976 -0.0524
89859W        W90723  21.265  13.448  18.755 -0.1030  0.3906  0.1445
89860W        W90724  24.625  19.834   6.245 -0.1705  0.1866  0.0941
89861W        W90725  14.377  20.561   1.202  0.0475  0.1778 -0.1010
89862W        W90726   7.169  26.514  11.251  0.3500  0.0379  0.0519
89863W        W90727  28.917  16.916  28.013  0.1226 -0.1103  0.2865
89864W        W90728  14.404  19.811   8.639  0.1060 -0.1929  0.1221
89865W        W90729   0.526  14.050   6.778  0.0960 -0.4374  0.1205
89866W        W90730   8.607  20.187  15.552 -0.1197  0.0056  0.0837
89867W        W90731  17.143  20.300  11.198 -0.1980  0.1834 -0.0703
89868W        W90732   0.861  19.116  17.483 -0.2710  0.2782  0.0013
89869W        W90733  16.534  16.597  18.408  0.1399 -0.1159  0.1246
89870W        W90734   9.403  23.968  27.596 -0.0821 -0.1774 -0.0279
89871W        W90735  17.387  25.283  27.442 -0.0227 -0.0904  0.0803
89872W        W90736  19.873  16.045   2.159  0.0923  0.0774 -0.2565
89873W        W90737  20.985   9.198  22.323 -0.2828 -0.1137 -0.0370
89874W        W90738  14.807   2.384   5.418  0.1503  0.1231  0.2708
89875W        W90739   2.772  20.478  28.398  0.0402  0.1593  0.0718
89876W        W90740  11.997  21.589  14.314 -0.2775 -0.3449 -0.1206
89877W        W90741  10.391  14.977  10.444  0.1801 -0.2932 -0.0071
89878W        W90742  25.765   4.739  24.394  0.2121  0.0446  0.0179
89879W        W90743  16.219  22.370  22.102  0.0160 -0.1600  0.0143
89880W        W90744  18.130  20.125  28.459  0.1679  0.0869 -0.1404
89881W        W90745  14.115  28.500  24.390 -0.0305 -0.2222  0.2910
89882W        W90746   0.704  19.305  11.027 -0.0255 -0.2251  0.3553
89883W        W90747  18.143   8.797   0.628 -0.1970 -0.0043  0.0231
89884W        W90748  14.223  26.688   7.059  0.2422  0.1490  0.0742
89885W        W90749  20.377  21.874  21.794  0.1593  0.3274 -0.1949
89886W        W90750  20.456  20.712  20.471 -0.2059 -0.1754  0.0616
89887W        W90751  15.726  14.223  10.563 -0.0467 -0.0100  0.1629
89888W        W90752   3.055   8.982  11.987  0.3457 -0.0179  0.1746
89889W        W90753  19.188  13.008  28.851 -0.2070 -0.0678 -0.1301
89890W        W90754  15.670  24.378   6.588  0.0690 -0.1532 -0.1431
89891W        W90755   5.371   1.860  13.897 -0.3084 -0.0939 -0.0447
89892W        W90756   1.950   7.950  17.222  0.1008 -0.0965 -0.0053
89893W        W90757  17.038  13.869  24.706 -0.1969  0.1258  0.0390
89894W        W90758  22.737  11.783  22.635 -0.2065 -0.0946  0.2362
89895W        W90759  13.412   5.625  22.381 -0.0995  0.0654  0.2320
89896W        W90760   3.266  24.934  27.223 -0.2527 -0.0905  0.1630
89897W        W90761   6.513  12.812  26.569  0.0359  0.1740 -0.0641
89898W        W90762  28.401  28.160  25.794  0.1449 -0.0417  0.3200
89899W        W90763  28.010  13.834   4.250  0.3104 -0.1644  0.0591
89900W        W90764  17.493  11.967   1.251  0.0384 -0.1287 -0.1147
89901W        W90765   8.909   6.633  11.078  0.3483  0.2405  0.1640
89902W        W90766  24.513  28.337  16.559  0.2443  0.0849 -0.1744
89903W        W90767  10.097  11.419  24.927 -0.1683 -0.1153  0.3570
89904W        W90768  17.013  10.652  26.809 -0.2319  0.1956  0.0896
89905W        W90769  20.226  10.943   7.773  0.1828 -0.1885 -0.1888
89906W        W90770   7.137  15.622  28.570  0.0832  0.0530  0.2180
89907W        W90771   1.323   6.110  24.047 -0.1226 -0.0883  0.0124
89908W        W90772  11.154  15.378   6.834  0.1748  0.0237  0.1969
89909W        W90773  22.254  27.578  10.829  0.1080  0.1079  0.0775
89910W        W90774   1.849  23.568   3.605  0.1853 -0.0153 -0.0133
89911W        W90775  16.499  21.389   1.994 -0.1226 -0.1089  0.0128
89912W        W90776   6.418  23.676  17.334  0.0163  0.1288 -0.1480
89913W        W90777  17.352  21.147  10.660  0.0232 -0.0713  0.1881
89914W        W90778   0.888  25.704  22.543 -0.1176  0.0374 -0.3097
89915W        W90779  18.390  13.951  23.053 -0.3033  0.1231  0.0913
89916W        W90780  11.775  17.534  22.721  0.0303 -0.0100  0.2170
89917W        W90781   8.150  16.397  13.665 -0.0129 -0.1463  0.2958
89918W        W90782  11.972  18.896   7.587  0.1700  0.0034  0.4190
89919W        W90783   4.357  29.097  22.986  0.0130 -0.2472 -0.2063
89920W        W90784  11.080  23.270   0.641 -0.0138  0.0500 -0.0656
89921W        W90785   8.037  16.990   1.923 -0.3708  0.1552  0.1507
89922W        W90786  22.195  13.818   0.606 -0.0872  0.0021 -0.0333
89923W        W90787   8.058  10.049  15.650  0.2501 -0.0887  0.2997
89924W        W90788  15.538  10.422  15.785  0.3521 -0.0434 -0.1797
89925W        W90789   3.103   5.702   7.768  0.0821  0.3368 -0.0914
89926W        W90790   9.479  12.931  24.848  0.1028 -0.1567 -0.1496
89927W        W90791   7.910  28.215   2.440 -0.3096 -0.0680 -0.0810
89928W        W90792   4.928  14.295  14.027 -0.4070 -0.0412 -0.2229
89929W        W90793  12.287  22.132  28.205  0.0318  0.2918  0.2567
89930W        W90794  15.711  20.233  15.696 -0.1488 -0.1415 -0.0758
89931W        W90795   2.016  14.079   9.968 -0.0214 -0.2346  0.2058
89932W        W90796   7.266  21.574   3.725  0.0709  0.1269 -0.0795
89933W        W90797   7.277  21.095   9.006  0.2027 -0.3796 -0.2231
89934W        W90798  20.956  21.486   6.411  0.0948 -0.0502 -0.2795
89935W        W90799   7.455  17.558  19.291 -0.2393  0.0163  0.1310
89936W        W90800  13.352  12.512   7.484  0.2955  0.1104  0.2110
89937W        W90801  23.739  12.042  28.992  0.0871  0.0032 -0.2112
89938W        W90802  10.275  19.512  22.307  0.2602  0.0995 -0.2214
89939W        W90803  10.011  20.487  23.746  0.0641 -0.3601  0.0627
89940W        W90804  17.957  24.265  21.447  0.1435  0.1247 -0.0916
89941W        W90805   3.863  24.548  19.991 -0.1859 -0.2271 -0.3585
89942W        W90806   2.047   9.355  18.401  0.0391  0.0925 -0.3036
89943W        W90807  16.236  28.512   4.560 -0.2207  0.1173  0.1147
89944W        W90808  23.128   4.675   6.325  0.0091  0.0148 -0.3792
89945W        W90809  21.068  28.723   9.934 -0.3254  0.2116  0.1105
89946W        W90810   4.353  10.631   0.126  0.0873 -0.0087  0.0202
89947W        W90811   4.745   4.593   6.914  0.1108 -0.1059  0.0308
89948W        W90812   6.555  20.031   0.212 -0.2006  0.1029 -0.1217
89949W        W90813  24.356  14.511  26.187  0.0766 -0.0215  0.1366
89950W        W90814  13.785  12.565   9.677  0.1392 -0.3810  0.3100
89951W        W90815  10.808   2.281  16.089 -0.2373 -0.3545  0.2710
89952W        W90816  14.998  17.806  16.511 -0.1185 -0.1501  0.1136
89953W        W90817  16.810  18.937   8.026  0.0110  0.1960  0.0812
89954W        W90818  18.030  12.893   9.810  0.0925 -0.0509 -0.1243
89955W        W90819   9.400  23.404   0.155 -0.4295  0.1228 -0.0450
89956W        W90820   6.016  15.987   2.363  0.0619 -0.0735 -0.1598
89957W        W90821  17.212  28.792   6.973 -0.1153  0.0021 -0.1725
89958W        W90822   1.128  16.456   4.225  0.0805 -0.0756 -0.0848
89959W        W90823   7.653  16.830   6.999  0.3454 -0.2283  0.0959
89960W        W90824  18.659   9.015  14.618  0.1190  0.1075 -0.0926
89961W        W90825  28.004  10.681   5.764  0.1249  0.1404  0.1911
89962W        W90826  27.261   0.119  11.728 -0.0330 -0.2772  0.2269
89963W        W90827  15.485  18.201   9.186 -0.2146  0.4588 -0.0856
89964W        W90828   0.967  19.443  26.062 -0.1048 -0.0796  0.0213
89965W        W90829   4.369  12.208   3.416 -0.0155  0.1311 -0.2381
89966W        W90830   6.722  11.555   1.321 -0.3703 -0.0765 -0.0029
89967W        W90831  18.013  15.989   7.240  0.0217  0.0707  0.1586
89968W        W90832   3.350  25.533  22.799 -0.0547  0.2639 -0.4916
89969W        W90833  26.763  10.541   0.231 -0.1274 -0.1799  0.1000
89970W        W90834  27.613  15.663   1.645 -0.0841 -0.0438 -0.2365
89971W        W90835  19.751   0.043  24.973 -0.0601 -0.0330  0.1342
89972W        W90836  19.428  20.749   1.462 -0.1649  0.0976  0.2155
89973W        W90837  18.467  14.322  24.581 -0.0205 -0.2795  0.1167
89974W        W90838  17.016  26.945  12.192 -0.1904  0.0683  0.1426
89975W        W90839  26.149  12.908  15.355 -0.1077  0.0859  0.0717
89976W        W90840   9.919   9.255   1.837 -0.2986 -0.0836 -0.0186
89977W        W90841  10.568  27.858  28.151  0.0878 -0.1295  0.1088
89978W        W90842  25.622   9.231  25.639  0.1627  0.2427 -0.3122
89979W        W90843  18.663  10.629   0.427  0.1243 -0.4941 -0.0308
89980W        W90844   8.999  14.299  18.910  0.0362 -0.0683  0.0528
89981W        W90845  25.490  28.140  12.168 -0.2459 -0.3296 -0.0947
89982W        W90846  16.664  14.526   4.947  0.0697 -0.0728 -0.0723
89983W        W90847   3.897  12.159   3.565  0.0446 -0.0990  0.0948
89984W        W90848  11.157  25.914  19.229  0.2203  0.0728  0.0717
89985W        W90849  13.512  23.738   4.454 -0.2302  0.0912  0.0639
89986W        W90850  12.943   7.728  26.270  0.0697  0.0356  0.1766
89987W        W90851   5.529  26.494  19.680  0.1865 -0.3696  0.0930
89988W        W90852   7.308  19.209  23.224  0.4190 -0.0567 -0.1494
89989W        W90853   0.873  25.283   0.676 -0.0121  0.3225  0.1082
89990W        W90854   8.482  12.893   0.219 -0.0793  0.0291 -0.1535
89991W        W90855  24.701  26.510   8.444 -0.1968 -0.0102  0.1205
89992W        W90856  21.451  21.574   2.158 -0.2810 -0.0178  0.0637
89993W        W90857  20.963  12.611   2.271 -0.3188  0.0078 -0.0615
89994W        W90858  22.673  10.602   1.204 -0.0022 -0.0949 -0.0206
89995W        W90859  14.325  19.797   1.597  0.3132 -0.0616 -0.2015
89996W        W90860  13.304  26.748  13.796 -0.1606 -0.2319  0.0369
89997W        W90861  24.172  24.204  16.185  0.4290  0.1703 -0.2663
89998W        W90862   5.977  27.308  16.055 -0.1431 -0.2734  0.1933
89999W        W90863  25.175   5.440  13.173  0.0798 -0.3207  0.1177
90000W        W90864   8.790  17.454  28.074 -0.3572 -0.4112 -0.0517
90001W        W90865  26.732  15.717  23.035 -0.0420 -0.0325  0.0430
90002W        W90866   0.855  16.171   3.161  0.1197  0.2348  0.3904
90003W        W90867   5.127  10.578  16.822  0.0834 -0.1462  0.0615
90004W        W90868  13.682  18.881  22.010  0.0252  0.0231  0.1746
90005W        W90869  23.392  24.010   6.218  0.1423  0.3894 -0.0502
90006W        W90870  12.029  14.830  17.659  0.1173 -0.2701 -0.1506
90007W        W90871  27.701   8.670  28.054  0.0400 -0.1697 -0.1947
90008W        W90872  24.659   4.583   9.638 -0.0571  0.2373 -0.0317
90009W        W90873   3.561   7.491   0.714 -0.2904  0.0129  0.1153
90010W        W90874  25.176  27.928  17.665  0.2421  0.0576  0.0262
90011W        W90875  21.235  14.923  14.884 -0.0593  0.0362  0.2591
90012W        W90876  26.966  19.463  28.503  0.0428 -0.2385  0.0799
90013W        W90877  22.216  18.317  12.861 -0.2418  0.0276 -0.0313
90014W        W90878  20.049  21.088  24.803 -0.0429 -0.1014  0.3660
90015W        W90879   4.225  15.715  15.029  0.0698  0.0388  0.2568
90016W        W90880  28.997  22.226   1.418 -0.1594  0.1564  0.0885
90017W        W90881  23.866  28.670   0.304 -0.0416 -0.0355  0.2652
90018W        W90882   4.911  25.596  19.853  0.1019  0.2954  0.0582
90019W        W90883   8.706  16.956  11.602  0.0604 -0.0556  0.1715
90020W        W90884  20.496  16.307  25.077 -0.3124  0.1598 -0.0338
90021W        W90885  11.737  28.884  26.472  0.1545 -0.1944  0.0112
90022W        W90886  23.715   2.302  25.636  0.0182  0.2803  0.3165
90023W        W90887  16.772   1.758  16.512 -0.1105 -0.1025  0.0806
90024W        W90888   6.844  27.468  20.741 -0.3214  0.0378  0.1954
90025W        W90889  12.306  16.727  16.213 -0.0307 -0.3983  0.1181
90026W        W90890   4.706  27.663   9.686  0.0982  0.0080  0.2051
90027W        W90891  17.237  21.597   8.263  0.4655  0.0776  0.1642
90028W        W90892  15.537  26.538   8.382  0.4601  0.1612 -0.0503
90029W        W90893  23.642  27.238   0.337  0.2926  0.3273 -0.0231
90030W        W90894  18.810  18.741  22.305  0.0274 -0.0443  0.2017
90031W        W90895  18.951  15.502   6.817 -0.0341 -0.1865 -0.3662
90032W        W90896  13.347  17.866  27.833  0.1605  0.2450 -0.1440
90033W        W90897   2.697  28.800  20.722 -0.1264 -0.0044 -0.0639
90034W        W90898  25.991   5.172  25.722  0.2228  0.0700  0.4372
90035W        W90899  13.380   2.013   5.711 -0.0302 -0.1860 -0.0254
90036W        W90900  16.637   7.372  26.489 -0.1933  0.0971  0.1958
90037W        W90901   6.635   5.586  20.743  0.2820 -0.1839  0.0857
90038W        W90902  17.692   2.529   6.491  0.1703 -0.0712  0.0677
90039W        W90903   0.387   0.419  13.941 -0.2388  0.1366 -0.0381
90040W        W90904  15.054  13.107  28.888  0.1898  0.0572  0.2611
90041W        W90905  16.051  17.817   2.038  0.0299  0.1720  0.0406
90042W        W90906  23.163  14.259  10.771  0.0271  0.2156 -0.0588
90043W        W90907   1.010  10.499  15.304 -0.0455  0.2231 -0.2490
90044W        W90908  16.224  28.640   1.942 -0.1257 -0.0434 -0.2311
90045W        W90909   6.300   7.605   7.634 -0.3146  0.0143 -0.0046
90046W        W90910   3.677  20.936  21.064  0.0720 -0.1535 -0.1466
90047W        W90911  20.987   0.186   6.813  0.0500  0.1578  0.1147
90048W        W90912   3.537  10.236   7.373  0.2080  0.1449 -0.1577
90049W        W90913   7.221   4.528  27.698  0.2437  0.1094 -0.1159
90050W        W90914  18.011  10.765   6.271 -0.0445  0.2999 -0.2047
90051W        W90915   3.740  28.020   3.350 -0.0787 -0.1884 -0.0797
90052W        W90916   6.802   9.677   7.381  0.1337 -0.0958  0.0594
90053W        W90917  22.889   5.824   0.849  0.2425  0.1197  0.1113
90054W        W90918  13.646  21.105  11.676 -0.0216 -0.0322 -0.3143
90055W        W90919   2.326   8.603  22.664 -0.2752 -0.1386 -0.2844
90056W        W90920  24.188  16.368  26.636  0.0808 -0.1930 -0.2377
90057W        W90921   0.541  23.460   3.355  0.1844  0.0062 -0.1006
90058W        W90922  15.678  26.298  17.316  0.1798 -0.0521  0.2291
90059W        W90923  27.868  19.472  12.615  0.2894 -0.2143  0.2948
90060W        W90924   3.364  16.102  23.752 -0.2028 -0.1470 -0.0027
90061W        W90925  22.319  14.609  10.425 -0.1296  0.1228 -0.1983
90062W        W90926  16.626  14.024   7.072  0.0265 -0.3042  0.0199
90063W        W90927   6.438  26.079   9.476 -0.4075  0.0778 -0.2704
90064W        W90928  26.210  15.743   6.168 -0.2301  0.0517 -0.2293
90065W        W90929  28.716   3.402  24.449 -0.2717 -0.1147  0.3889
90066W        W90930  18.034  27.690  18.455  0.3950  0.0331  0.0220
90067W        W90931   2.529   3.959  23.002  0.1661  0.0824 -0.1240
90068W        W90932  10.671  25.240  19.721  0.2606  0.2292 -0.1372
90069W        W90933  12.603   6.290  14.667 -0.0928 -0.0749  0.3012
90070W        W90934  17.000  20.249   8.243 -0.0972  0.1208 -0.0344
90071W        W90935  15.704  16.280  21.382 -0.1796  0.0377  0.1294
90072W        W90936  19.683  20.703   0.039 -0.0815  0.2296  0.1940
90073W        W90937  19.909  19.027  11.523  0.1074 -0.6081  0.0927
90074W        W90938  20.531  21.249  11.317 -0.1645 -0.0588 -0.1310
90075W        W90939   9.122  27.808   4.245 -0.1096 -0.1988  0.2545
90076W        W90940   6.772  26.109  10.403  0.2607 -0.2512 -0.0040
90077W        W90941  13.619  12.652  24.040 -0.2602 -0.2752 -0.1162
90078W        W90942  10.713  14.389  25.668  0.0283 -0.2540 -0.2582
90079W        W90943   7.200   0.311   6.135  0.1708  0.0522  0.0624
90080W        W90944  10.685  27.834   3.939  0.1169 -0.1252  0.0631
90081W        W90945   0.752  25.639  28.555  0.0503  0.0551 -0.1323
90082W        W90946  26.722  19.030   7.236 -0.1480  0.2161  0.1929
90083W        W90947  24.685   8.406  14.471  0.1425  0.2217  0.1774
90084W        W90948  17.163  21.816   6.083 -0.1604 -0.2645 -0.1120
90085W        W90949  18.751   1.606  21.647 -0.2164  0.1695  0.0301
90086W        W90950   8.437  22.416   5.774 -0.0658 -0.2858 -0.0762
90087W        W90951  11.423  21.915  11.156  0.0571 -0.0162  0.3155
90088W        W90952  12.120  14.293   6.083  0.1591 -0.0771  0.2445
90089W        W90953   3.553  16.193  14.754  0.2343 -0.2530  0.1946
90090W        W90954  25.313  17.882  10.021  0.1591  0.0225 -0.0511
90091W        W90955   5.513  18.761   4.003 -0.0911  0.1514  0.0642
90092W        W90956  23.540  16.202  18.103 -0.0191 -0.1345  0.2383
90093W        W90957  21.116  12.863   6.290  0.1101  0.0147  0.0149
90094W        W90958   9.436  16.801  16.526 -0.1457 -0.0349  0.1900
90095W        W90959   9.914   8.627   2.090 -0.1895  0.0492 -0.0831
90096W        W90960  20.581   5.329  16.977 -0.0778 -0.1049 -0.2581
90097W        W90961   6.286  13.344  15.191  0.1824  0.1084  0.3913
90098W        W90962  13.224   1.665  25.657  0.0933 -0.2041 -0.0809
90099W        W90963  14.930  16.680  20.804 -0.1094 -0.0814 -0.1837
90100W        W90964  17.474  21.509  22.858  0.0342  0.2194 -0.1284
90101W        W90965  15.543  11.936  22.617  0.0476  0.1619 -0.0586
90102W        W90966  15.368   7.388  25.668  0.0952 -0.1666  0.2029
90103W        W90967   4.811   3.674   8.519  0.0243  0.0202  0.1146
90104W        W90968  18.813  20.823   0.912 -0.0694  0.0513  0.0072
90105W        W90969   5.055  23.056  21.295 -0.2659  0.3447  0.1404
90106W        W90970  15.485  26.805   0.364  0.0083 -0.0657 -0.0999
90107W        W90971   0.215   3.780  25.963 -0.3469  0.0483 -0.0571
90108W        W90972  26.806  17.114   2.640  0.0167 -0.0863  0.2393
90109W        W90973  16.456  22.394  10.944 -0.0915  0.0125  0.0533
90110W        W90974  28.519  12.658   6.040  0.2199 -0.2293  0.0735
90111W        W90975  25.503  29.038   0.091  0.0890  0.1139 -0.2789
90112W        W90976   5.012  25.025  16.861 -0.2400 -0.1642  0.1502
90113W        W90977  16.191  25.387   3.385 -0.0090  0.1823  0.3450
90114W        W90978  18.129  13.835   9.363  0.0169  0.0925 -0.1543
90115W        W90979   5.286  21.932   1.606  0.0352 -0.0370 -0.1430
90116W        W90980  17.311   9.116  13.009 -0.0050 -0.2552  0.0101
90117W        W90981  23.309  28.082   8.009 -0.2707  0.0292  0.0236
90118W        W90982  11.362   8.198  11.881 -0.2210  0.2479 -0.3532
90119W        W90983   9.122  24.147  27.154 -0.0934  0.3900 -0.1566
90120W        W90984  21.276  27.577   1.532  0.0368 -0.0202  0.2060
90121W        W90985  27.067  21.669   5.919  0.2816 -0.0048  0.0618
90122W        W90986  25.312  15.904   2.881 -0.0697 -0.0307 -0.0232
90123W        W90987  24.245  14.041  21.289  0.1125 -0.2057  0.1316
90124W        W90988  19.806  28.118  23.982 -0.0447 -0.0789 -0.1981
90125W        W90989   5.035   7.642   2.373  0.0515 -0.0906 -0.0870
90126W        W90990  20.657  12.451  17.270  0.0940  0.0013  0.0449
90127W        W90991  21.646  16.962   7.294 -0.1044 -0.3472 -0.0792
90128W        W90992  21.141  13.865  19.506  0.4757  0.0545  0.6230
90129W        W90993  27.564  23.728  10.988  0.0747 -0.1551  0.1498
90130W        W90994   9.636  19.978  26.411 -0.2819 -0.1579 -0.1496
90131W        W90995  15.459  24.239  12.759  0.0230 -0.0163  0.0473
90132W        W90996   6.658   3.087   8.865  0.1373 -0.1986  0.0344
90133W        W90997  10.702   9.986   8.748  0.2854 -0.2508 -0.0158
90134W        W90998   4.764  29.026  19.930  0.0659 -0.1795 -0.3141
90135W        W90999  14.124  13.570   5.865 -0.2115  0.0495  0.0192
90136W        W91000  23.014  18.254  28.503 -0.1137  0.0820  0.0613
90137W        W91001   3.493   5.432  21.794 -0.2158 -0.1067  0.1527
90138W        W91002   8.723  15.359   2.590  0.2122 -0.0313 -0.0996
90139W        W91003  15.658  23.401  28.641 -0.0790 -0.1867 -0.1316
90140W        W91004  13.971  18.146   5.374  0.2344 -0.0112 -0.1486
90141W        W91005   5.929  22.952  27.330  0.1452 -0.0466 -0.1513
90142W        W91006  10.582  12.759   7.832  0.0439  0.1791 -0.0320
90143W        W91007  21.815  19.517  22.589 -0.1021 -0.1965  0.3429
90144W        W91008   8.914  21.782   9.518  0.3393  0.1331 -0.0638
90145W        W91009  17.804  16.625  13.412 -0.1111  0.3613  0.1294
90146W        W91010  21.789   1.499   9.850 -0.0069  0.0744  0.1375
90147W        W91011   8.342  25.940  14.309  0.1614  0.0402 -0.0178
90148W        W91012  22.510  23.150  14.019 -0.1239 -0.0944  0.0096
90149W        W91013  10.004  13.313  11.920  0.1767 -0.0522  0.1569
90150W        W91014  27.107  25.825  10.366 -0.1579  0.2337  0.1895
90151W        W91015  14.974   4.708  25.406  0.1406  0.1365  0.1696
90152W        W91016   1.448  28.136  13.419 -0.2197  0.2156 -0.0140
90153W        W91017  16.322   9.018   1.173  0.3390 -0.1825 -0.0177
90154W        W91018  25.488  17.810   1.164  0.0370 -0.0552  0.0168
90155W        W91019  15.747  13.269  28.416  0.1456  0.1234 -0.0283
90156W        W91020  18.474   4.126   8.184 -0.0501 -0.3302 -0.0393
90157W        W91021  11.312  18.861  20.132 -0.0877 -0.0610 -0.1569
90158W        W91022  11.090   8.492   9.652 -0.0876  0.2104  0.0059
90159W        W91023  16.446  18.045   9.336 -0.2047 -0.0692  0.0443
90160W        W91024  14.855   3.705  23.784 -0.1811 -0.0291 -0.0372
90161W        W91025   7.591  23.272  11.022 -0.1850  0.1920  0.0816
90162W        W91026  21.885  11.725  24.530  0.0131  0.0073 -0.2455
90163W        W91027   9.231  15.364   9.173 -0.1691 -0.2765  0.1994
90164W        W91028  25.806   4.577   5.815  0.2940  0.1705  0.0617
90165W        W91029  26.444  18.555  12.729  0.1563  0.1638  0.2083
90166W        W91030  10.726   4.693   9.047 -0.0403  0.0973  0.1313
90167W        W91031  23.401   7.970  17.022  0.2138 -0.1903  0.0066
90168W        W91032  12.009  14.742   3.353 -0.3109  0.0458  0.1436
90169W        W91033   2.243  11.874  12.552 -0.0307  0.0975  0.2931
90170W        W91034  21.661  24.415  16.942  0.0613  0.1319  0.2163
90171W        W91035  28.374  24.195   7.028 -0.5208  0.4288 -0.2148
90172W        W91036   7.162  24.353  19.828 -0.4815 -0.1704 -0.0996
90173W        W91037  13.366  28.536  13.580 -0.0315  0.3242 -0.0321
90174W        W91038  28.714  18.526  21.905  0.1526 -0.2675  0.1454
90175W        W91039   4.166  22.345  26.571 -0.2726  0.1701  0.3205
90176W        W91040  16.638   9.801   2.275 -0.1848 -0.0122 -0.2155
90177W        W91041  13.914  17.476  24.810  0.0569 -0.1327 -0.1610
90178W        W91042  15.364   9.738   9.715 -0.1101  0.2239  0.2830
90179W        W91043  22.311   7.413  25.202 -0.2928 -0.3022 -0.4495
90180W        W91044   9.927  22.092  14.719  0.0833  0.2294  0.0370
90181W        W91045  17.442   0.056   6.079 -0.0014  0.1412 -0.0576
90182W        W91046   4.697  24.830  17.779  0.1065  0.1137 -0.1302
90183W        W91047   5.795  11.952  21.941  0.0787  0.0838 -0.0138
90184W        W91048  27.200   7.531  18.034  0.2672 -0.2152 -0.1318
90185W        W91049   2.730  23.054   5.490  0.0024  0.1439  0.0003
90186W        W91050  25.106   4.760   9.191 -0.1621  0.1706  0.4801
90187W        W91051  10.757  16.828   5.108 -0.1433  0.0935 -0.0625
90188W        W91052  22.330  21.871  22.718 -0.1103 -0.0694  0.0574
90189W        W91053  21.110  23.117  21.217  0.3813 -0.0279 -0.0684
90190W        W91054   8.361  20.681   5.104 -0.0712 -0.1115 -0.3480
90191W        W91055  26.817  25.303   3.381 -0.1548  0.0953 -0.1162
90192W        W91056  27.064  25.322   7.939 -0.2698 -0.4240  0.1250
90193W        W91057  13.470   8.305  24.314  0.1739 -0.0844  0.5127
90194W        W91058  27.929   7.237  13.125 -0.1700  0.1215 -0.0494
90195W        W91059   5.389   9.803   3.935  0.0982  0.1198  0.2288
90196W        W91060  17.372   7.138  12.448 -0.1110 -0.1905  0.3092
90197W        W91061  13.593  10.595   9.356  0.1570 -0.3833 -0.4395
90198W        W91062  14.072  13.572  16.835 -0.1153 -0.1295  0.1613
90199W        W91063   6.964  11.045  24.438  0.2139 -0.0564  0.3214
90200W        W91064  27.150  26.541   8.786 -0.2065 -0.2601 -0.0082
90201W        W91065  20.264  24.163   0.998  0.1183 -0.0919 -0.0484
90202W        W91066  18.600  17.509  20.573 -0.0663  0.0823  0.0298
90203W        W91067  12.085  18.777  22.107 -0.1399 -0.3082  0.1274
90204W        W91068  18.529   3.220   2.128  0.4755  0.0495 -0.1287
90205W        W91069  24.481   2.294  22.771 -0.1778 -0.1279  0.0228
90206W        W91070  15.179   1.460  23.809  0.0960 -0.3271  0.3164
90207W        W91071  11.131  26.903  26.916 -0.3038  0.3828 -0.0992
90208W        W91072  19.421  27.176   5.950 -0.0198  0.2566 -0.1281
90209W        W91073   2.873   6.637  21.513 -0.1487  0.0261  0.3833
90210W        W91074  26.628   7.693  12.094 -0.4101  0.0786  0.3502
90211W        W91075  24.365  12.641  20.512 -0.1258 -0.1759 -0.2477
90212W        W91076  11.581   0.954   2.387  0.1438 -0.2978  0.0623
90213W        W91077  13.527  12.427   7.929 -0.0455  0.0235 -0.4614
90214W        W91078  19.433  17.150  25.607 -0.0648  0.1936  0.1463
90215W        W91079  12.846  24.693  28.015  0.4288  0.2666  0.3719
90216W        W91080   0.515  18.699  16.608  0.2243  0.3766 -0.1982
90217W        W91081   2.409   7.213  13.604 -0.0700 -0.2025 -0.0222
90218W        W91082   4.233   5.170  25.457 -0.0311 -0.1868  0.0895
90219W        W91083   3.188  26.130   7.303  0.0285  0.0115  0.0397
90220W        W91084  27.358   7.263   4.107  0.1079  0.0495 -0.3942
90221W        W91085   8.190   1.901   0.319 -0.1088 -0.3072 -0.1032
90222W        W91086   8.029  27.799  23.371  0.0038  0.0266 -0.1014
90223W        W91087  15.134  16.260  18.583  0.1763 -0.2178 -0.3067
90224W        W91088  20.180  21.105  14.687  0.0606  0.0244 -0.1321
90225W        W91089  21.856  28.847  15.977 -0.0208  0.2429 -0.0357
90226W        W91090  12.746  22.427   1.345 -0.0436 -0.0559 -0.0451
90227W        W91091  21.929  27.411   7.980  0.0297 -0.2450 -0.5181
90228W        W91092   0.014  17.913  19.820  0.0649  0.0947  0.1528
90229W        W91093  14.127  20.335   2.549  0.2859  0.2425  0.0647
90230W        W91094  23.087  11.830  24.994  0.2110 -0.4507 -0.0072
90231W        W91095   3.598  10.486  25.173 -0.0999  0.0970 -0.1782
90232W        W91096  12.304  18.996  24.145 -0.1740  0.0706 -0.0680
90233W        W91097  11.406  26.430   1.224 -0.1541  0.0090 -0.2033
90234W        W91098  22.812  12.527   4.889 -0.1672 -0.1580  0.0069
90235W        W91099  19.302  12.615  10.915 -0.1403  0.0783  0.0379
90236W        W91100   4.911  21.279  11.445 -0.2291 -0.2057  0.0509
90237W        W91101  14.460  17.790  16.210  0.0339 -0.1986 -0.1243
90238W        W91102  25.154   0.261  12.074  0.0282 -0.0827  0.0740
90239W        W91103   9.044  23.000  18.418  0.1802  0.1401  0.0189
90240W        W91104   0.809   4.902  22.273 -0.3446  0.0220  0.1647
90241W        W91105  27.333  19.238   4.224  0.2290  0.0301 -0.0479
90242W        W91106  16.624   9.589   9.772  0.0410 -0.0048  0.3232
90243W        W91107  17.183  26.670  26.215  0.0488  0.1274  0.2036
90244W        W91108   0.402  12.390   5.793  0.1267 -0.2295  0.2717
90245W        W91109  17.180   9.800   7.354 -0.1659  0.0751 -0.1740
90246W        W91110   8.518   7.246  12.042  0.1572  0.2306  0.0448
90247W        W91111   4.767  20.354  24.430  0.1526 -0.0329 -0.0233
90248W        W91112  13.688  19.476  11.842 -0.3710  0.1950 -0.3385
90249W        W91113  15.856  13.389  22.381 -0.2617 -0.1637  0.1544
90250W        W91114   1.763   0.423   8.327 -0.0381 -0.0882 -0.2108
90251W        W91115  14.600  23.415  25.313 -0.0977 -0.0999 -0.2059
90252W        W91116  14.093   3.009   5.470  0.0727 -0.1962  0.0227
90253W        W91117   1.884   6.379  25.923 -0.2900 -0.0977 -0.2303
90254W        W91118  27.195  11.601  26.865 -0.0355 -0.0113 -0.0419
90255W        W91119   1.396   4.703  16.550  0.3073 -0.0479  0.4146
90256W        W91120   9.820  10.346  15.537 -0.1084 -0.0487 -0.0219
90257W        W91121   1.231   2.840  13.479  0.2647 -0.2013  0.2087
90258W        W91122  19.240   2.048   4.446  0.0747 -0.2015 -0.0281
90259W        W91123   9.794  16.727   3.269 -0.0093  0.0472  0.0727
90260W        W91124   4.343  20.600   2.010 -0.1508  0.1132 -0.3130
90261W        W91125  18.142   8.292  13.663 -0.1161  0.3926  0.1835
90262W        W91126   5.004   0.518   5.065 -0.1684  0.0554  0.1026
90263W        W91127  20.008  12.873   6.275  0.1088  0.0717  0.0975
90264W        W91128  20.479  10.809  16.112  0.1149 -0.0283  0.0911
90265W        W91129  24.040   6.469  12.125 -0.3834  0.1177 -0.0332
90266W        W91130  13.361  17.188   2.977 -0.2489 -0.0926  0.0524
90267W        W91131   6.235   4.865   0.792  0.0641 -0.1216 -0.0278
90268W        W91132   8.428  19.589  17.528 -0.2702 -0.2094  0.2801
90269W        W91133  15.670  19.202   6.641  0.1925  0.1874  0.0336
90270W        W91134  15.556  19.161  18.330 -0.1222 -0.2955  0.1040
90271W        W91135  18.404  17.283  28.685  0.4277 -0.0302 -0.2985
90272W        W91136  24.205  23.124   4.946 -0.0963  0.1261  0.1073
90273W        W91137   1.282   3.608  27.518  0.1029 -0.2007 -0.0377
90274W        W91138   0.990  15.999  14.807  0.2622  0.0493  0.1490
90275W        W91139  25.506  18.093   4.351 -0.1776 -0.1267 -0.1976
90276W        W91140   9.812   7.493  16.856  0.1550 -0.2021  0.0525
90277W        W91141  16.416  24.032   1.564  0.0829 -0.0212  0.1963
90278W        W91142   4.536  11.087   3.306  0.0654  0.0813  0.0540
90279W        W91143  28.019  16.325  25.240 -0.1412 -0.0396 -0.0805
90280W        W91144  15.871  25.636  25.900  0.0729  0.0425 -0.0936
90281W        W91145  21.032   4.230   6.424  0.0906  0.2933 -0.1418
90282W        W91146  15.363  10.300   6.438  0.2057 -0.3077 -0.0327
90283W        W91147   9.322  18.003   7.148 -0.1158  0.0752  0.2691
90284W        W91148  12.256   8.385  22.031  0.0039 -0.2475  0.0453
90285W        W91149   8.192  27.647  26.128  0.2239 -0.0149 -0.1802
90286W        W91150  23.580   8.323  10.453 -0.0282 -0.1094 -0.1379
90287W        W91151   5.582   5.114  18.166 -0.1309 -0.1967  0.2800
90288W        W91152   1.396  22.427  20.774 -0.5530 -0.0408  0.0173
90289W        W91153  25.921  14.952  15.609  0.1149  0.0423 -0.2463
90290W        W91154   9.070   6.588   0.645  0.3147 -0.0664 -0.0250
90291W        W91155  24.872  23.572   4.811 -0.1083  0.3135 -0.0120
90292W        W91156   0.270  15.424  14.555 -0.0789 -0.1718 -0.0630
90293W        W91157  14.126  14.316  12.292 -0.1074  0.5468  0.0401
90294W        W91158   2.172   4.586   1.235  0.0548 -0.1028 -0.2051
90295W        W91159  22.649   4.819  26.720  0.0560 -0.0037  0.0113
90296W        W91160  13.603   2.583  15.162 -0.2664 -0.0378  0.0542
90297W        W91161   0.532   3.563   2.429 -0.0123 -0.0985  0.0964
90298W        W91162  15.636  23.275  15.649 -0.2902 -0.0192 -0.3382
90299W        W91163   9.278  24.092   5.119  0.0352  0.1483  0.1351
90300W        W91164   3.941   8.309  27.867 -0.0632 -0.0550 -0.0304
90301W        W91165   6.339  13.045  15.799  0.1965 -0.1067  0.0352
90302W        W91166  23.680  26.825   5.033 -0.1005 -0.3578  0.0409
90303W        W91167   2.947   9.086  13.929  0.1803 -0.2053  0.1792
90304W        W91168   9.150   9.318  13.014  0.0171 -0.1524 -0.4292
90305W        W91169   8.125  12.662  28.956 -0.0587  0.0899 -0.2630
90306W        W91170   5.108   7.670   9.884  0.1599  0.0015  0.1052
90307W        W91171  19.851  21.184  23.930  0.0830  0.0319  0.2619
90308W        W91172  16.878  24.256  16.392 -0.0194  0.0271  0.1663
90309W        W91173  11.292   9.053  16.712  0.2155  0.2819 -0.0381
90310W        W91174  16.103  22.393  16.144 -0.2606  0.0096  0.0956
90311W        W91175  22.070  15.660  24.124  0.2223  0.0128  0.3791
90312W        W91176  21.065  24.537  18.732  0.2265 -0.3341 -0.1447
90313W        W91177  12.015  26.027  22.503 -0.0625 -0.1634 -0.0560
90314W        W91178  18.192  28.977  25.513  0.2920 -0.3738  0.2236
90315W        W91179   0.911  11.332   2.100 -0.0589  0.2138  0.4318
90316W        W91180   5.149  19.219   0.767 -0.3151 -0.2974  0.0530
90317W        W91181   2.513  28.114   3.179  0.1122  0.2410 -0.2025
90318W        W91182  20.887  11.547   1.552  0.0960 -0.2550  0.1760
90319W        W91183  24.778  13.659   8.080  0.2734 -0.1339  0.0408
90320W        W91184   8.480   2.437   0.556  0.0789  0.1498 -0.1933
90321W        W91185  13.130  25.808   7.551  0.1122  0.1426  0.3269
90322W        W91186  10.213  27.228  26.245 -0.0025 -0.0373 -0.1165
90323W        W91187  28.238   2.707   2.395 -0.1435  0.1013 -0.3886
90324W        W91188  11.234  28.905   3.263  0.1411 -0.1600  0.0731
90325W        W91189  28.504   0.746  25.960 -0.2856  0.0285 -0.0897
90326W        W91190  10.497  22.036   0.621 -0.0033 -0.1212 -0.1018
90327W        W91191  15.625   1.884  11.576  0.0957 -0.0093  0.0503
90328W        W91192  23.185  11.128  21.438 -0.1545  0.1243 -0.1902
90329W        W91193  14.349  23.632   7.829  0.0606  0.2772 -0.0198
90330W        W91194  11.504   4.047  11.986 -0.1140  0.3103 -0.1489
90331W        W91195  26.198  10.073   5.925 -0.0510 -0.0858 -0.0566
90332W        W91196  17.270  18.862   8.312  0.0196  0.2528 -0.1517
90333W        W91197  17.831  29.072  13.427  0.0547  0.2253 -0.3428
90334W        W91198  19.905  17.484  21.736 -0.3294 -0.0020 -0.1363
90335W        W91199  21.506  12.557   6.181  0.1794  0.0063 -0.0296
90336W        W91200  21.830   7.509  12.958  0.1386  0.0552 -0.0363
90337W        W91201  11.674  10.148  16.397 -0.2745 -0.3530  0.2544
90338W        W91202   7.803  17.391   7.674  0.1514 -0.1963 -0.1946
90339W        W91203   1.671   6.349   4.700  0.2306 -0.1923 -0.2509
90340W        W91204  13.997  26.704  12.138 -0.2193  0.1424 -0.1577
90341W        W91205   2.858  17.886  18.807  0.0862  0.0874 -0.0529
90342W        W91206   9.043  26.399  21.046 -0.0897  0.3255 -0.0930
90343W        W91207   5.506  19.837   1.796 -0.1391 -0.0747 -0.1181
90344W        W91208  23.858   8.114   9.988 -0.2967 -0.2495 -0.2473
90345W        W91209  22.325   4.083   3.884 -0.0483 -0.1054 -0.0843
90346W        W91210  15.185   1.041  10.122 -0.2648 -0.0406 -0.2636
90347W        W91211   7.008  15.914  11.123  0.2767  0.1170  0.0142
90348W        W91212  10.243  17.732  27.842  0.0235 -0.1265 -0.1238
90349W        W91213   0.353  24.427  15.771  0.1297 -0.1537  0.0014
90350W        W91214   7.400  26.889   9.318  0.1071 -0.3177 -0.0703
90351W        W91215  17.849  19.222  23.565 -0.2621 -0.0128 -0.0068
90352W        W91216  18.046  13.073  20.233  0.1645  0.4865  0.2036
90353W        W91217  22.175  22.405   2.471  0.1484  0.0457  0.0323
90354W        W91218  10.534  24.805  26.091 -0.2137  0.0629  0.1776
90355W        W91219   0.044   4.728  23.823  0.0955 -0.0906  0.1721
90356W        W91220  20.247  27.709   3.721  0.1011  0.0144 -0.0949
90357W        W91221   1.734  26.175  15.697 -0.0461  0.0719 -0.2350
90358W        W91222  19.881  21.360  11.154 -0.0778  0.3327 -0.1110
90359W        W91223  24.024  21.972  26.869  0.2946  0.1580 -0.2903
90360W        W91224  17.532  24.605  22.370  0.0825  0.1335 -0.1738
90361W        W91225  26.984  22.922  11.026  0.1359  0.4770 -0.1988
90362W        W91226  11.147  19.046   3.511  0.1096 -0.0293 -0.0985
90363W        W91227  10.187   1.593   5.346  0.1408 -0.2064 -0.0451
90364W        W91228  19.087   7.045   8.700 -0.1557  0.2646 -0.1400
90365W        W91229  24.572  11.424  14.844 -0.1725 -0.1499 -0.0610
90366W        W91230  24.078  21.089   6.788 -0.0628 -0.2588 -0.2332
90367W        W91231  28.375  16.549  24.723 -0.0819  0.1949  0.1165
90368W        W91232  10.592  12.627   0.429  0.0127 -0.0433  0.0868
90369W        W91233   1.191   0.654  19.393  0.0497 -0.2057 -0.0955
90370W        W91234   5.737   7.264  22.280 -0.0929  0.4307 -0.1868
90371W        W91235  11.796  18.430   2.526 -0.1073  0.0208  0.0199
90372W        W91236  10.796   1.928   1.526  0.0189  0.1035 -0.0576
90373W        W91237   9.633   9.537   2.252 -0.0324 -0.0594 -0.0864
90374W        W91238  16.270  24.230  23.593  0.1982 -0.0485  0.1669
90375W        W91239  20.242  17.212   7.099 -0.0647 -0.0692 -0.0124
90376W        W91240  10.941  19.291   4.513 -0.0908  0.0570  0.2211
90377W        W91241  16.714   0.058   2.512  0.1437 -0.0844 -0.0742
90378W        W91242  28.920  22.383   0.934  0.0649  0.1552 -0.0542
90379W        W91243  17.031  16.335  22.473  0.1285  0.0036  0.0575
90380W        W91244  12.903  23.525  10.714 -0.0014  0.0082  0.1499
90381W        W91245  25.492  18.270  19.940 -0.1568 -0.0688 -0.0261
90382W        W91246  26.942   5.414  20.694  0.1343  0.1658 -0.1685
90383W        W91247  18.119  10.358  18.497 -0.2857  0.4128 -0.0217
90384W        W91248   7.813  19.144  20.117  0.0895  0.0927 -0.2301
90385W        W91249  10.205  27.767   3.562 -0.1776  0.4991  0.3651
90386W        W91250  23.962   5.537   6.101  0.1163 -0.1341 -0.1083
90387W        W91251  26.602  19.928   5.879 -0.2878 -0.1473 -0.0130
90388W        W91252  15.136  15.874  23.711 -0.1615 -0.0260 -0.1665
90389W        W91253  14.343  10.845   5.074  0.0471  0.0071  0.0325
90390W        W91254  10.775  26.612  15.219  0.1820  0.3633 -0.1594
90391W        W91255  16.306  10.712  11.852  0.1564 -0.0799 -0.0931
90392W        W91256  19.015  16.485  10.695  0.0615  0.0657 -0.0435
90393W        W91257  11.844  24.073  12.352  0.0902 -0.1031  0.1470
90394W        W91258   9.579  21.337  24.199 -0.1172 -0.0151 -0.2778
90395W        W91259  17.643  21.085  12.732 -0.0543  0.0482  0.0731
90396W        W91260  25.323  21.937   0.930 -0.1027 -0.1618  0.0395
90397W        W91261  28.011  13.704   0.100 -0.0690  0.1141 -0.2104
90398W        W91262  11.982   8.464  26.605 -0.2386  0.1997 -0.1193
90399W        W91263  11.332  20.246  28.080 -0.2522 -0.0439 -0.3216
90400W        W91264  29.130  22.983   6.491  0.1068  0.1917 -0.3238
90401W        W91265   8.017   4.015  16.794  0.1280 -0.1269  0.1730
90402W        W91266  14.042  23.893  27.258  0.1423 -0.2312  0.0552
90403W        W91267  10.654   4.694   3.960 -0.0864 -0.0998 -0.0401
90404W        W91268  22.251  20.959  19.578  0.2809  0.0022 -0.3053
90405W        W91269  18.390  27.469   5.005  0.2229 -0.1973 -0.1711
90406W        W91270  17.993   2.954   6.860  0.0465  0.0086  0.1667
90407W        W91271   7.337  24.633  11.881  0.3242  0.0387  0.1247
90408W        W91272  18.011  12.489  10.576  0.1267  0.1160  0.1769
90409W        W91273  17.365   1.990   0.028 -0.3148 -0.0262 -0.0856
90410W        W91274  16.928  23.276  23.701 -0.2216  0.1765 -0.2242
90411W        W91275   6.917  17.868   0.688  0.2059  0.0163 -0.0348
90412W        W91276  11.807   3.268  11.260  0.0006  0.0662  0.3081
90413W        W91277   8.981  19.581   4.365 -0.1027  0.0747 -0.0310
90414W        W91278   2.029  16.378   1.390  0.0065  0.0956  0.1278
90415W        W91279  14.425   6.441  10.233 -0.1516  0.1417 -0.2070
90416W        W91280  16.848  26.466  27.749  0.1948  0.0201  0.0228
90417W        W91281  28.101  11.364  14.637  0.1835  0.1074  0.1813
90418W        W91282   4.474   8.079  18.010  0.1293  0.0801 -0.5302
90419W        W91283  19.563  28.366   0.997  0.2349  0.2302  0.2370
90420W        W91284   9.275  13.253  18.759 -0.1840  0.0558 -0.1217
90421W        W91285  11.412  28.553  21.096 -0.3053  0.0673  0.0119
90422W        W91286  11.321   3.005  22.522  0.0021  0.0292 -0.0333
90423W        W91287  11.579   5.832  12.477 -0.1200  0.0570 -0.3057
90424W        W91288  26.017   5.303   0.121  0.2847  0.3313 -0.2994
90425W        W91289  15.778   7.322   1.029  0.0197 -0.0252  0.0378
90426W        W91290   2.920  16.304   2.037  0.0854  0.1529 -0.3125
90427W        W91291  28.075  11.581  26.857 -0.0224  0.0515 -0.0918
90428W        W91292  21.810  19.873   0.143 -0.1779 -0.4718 -0.0778
90429W        W91293  15.479  25.770  17.679  0.2075  0.0021  0.3517
90430W        W91294   7.253  19.061   0.331 -0.0750 -0.1222 -0.1720
90431W        W91295  16.624   4.199  27.136  0.1515 -0.4217 -0.0469
90432W        W91296  21.232  10.682   0.412 -0.0993  0.1340  0.2224
90433W        W91297  21.605   2.840  10.151 -0.1622  0.0562 -0.1765
90434W        W91298   6.880  10.608   1.838 -0.0338 -0.1671 -0.1902
90435W        W91299  14.977  26.897  14.133 -0.6163 -0.0643 -0.2789
90436W        W91300  26.802  18.958  17.084 -0.2126 -0.2097 -0.0513
90437W        W91301  14.391   5.161   9.876  0.1198  0.0316 -0.3739
90438W        W91302  10.465   0.625   5.604 -0.3640  0.0136 -0.1112
90439W        W91303  17.537  24.945   2.017 -0.1074  0.3739  0.0260
90440W        W91304   0.885   8.778   5.697 -0.2805  0.1044 -0.1133
90441W        W91305   0.639  23.336  16.506  0.0390 -0.1483  0.1281
90442W        W91306  16.722  20.787  13.028  0.0430 -0.2312  0.3142
90443W        W91307  13.183  15.392   9.958  0.0587  0.2210  0.0007
90444W        W91308  10.870   6.752   2.638  0.1646  0.0595  0.2494
90445W        W91309  15.934  23.802  24.256  0.1994  0.0629  0.2089
90446W        W91310   3.217  19.027  26.918  0.0014  0.5170  0.1567
90447W        W91311   3.525  18.529  14.240 -0.1328  0.0398  0.0496
90448W        W91312   2.972  24.802  28.512  0.0487 -0.0175 -0.2082
90449W        W91313  19.778  26.984  11.564 -0.0788 -0.1024 -0.0655
90450W        W91314  10.302  17.419   2.749 -0.2802  0.0199  0.4173
90451W        W91315   8.874   6.002   7.300  0.0767  0.3240 -0.0077
90452W        W91316  15.805  18.928   8.444  0.0600  0.2605  0.1655
90453W        W91317   2.092   0.598  23.717 -0.1372 -0.0972  0.1274
90454W        W91318  22.193  25.918   7.460  0.1544 -0.0749  0.1220
90455W        W91319   4.274  16.914  12.594 -0.2131 -0.0582  0.0030
90456W        W91320  10.218   8.714  13.745 -0.4270 -0.0525 -0.3077
90457W        W91321  14.039  20.475   4.868  0.0521 -0.1605 -0.1440
90458W        W91322  11.144   5.593   3.534 -0.0419  0.0850 -0.3152
90459W        W91323  11.082  27.535  13.314 -0.1338  0.0479 -0.0525
90460W        W91324  11.623  11.020   2.511  0.2278 -0.1311 -0.0924
90461W        W91325  12.595  22.299  19.146 -0.0620 -0.0233  0.0734
90462W        W91326  25.985  27.529   2.792 -0.3351 -0.1192  0.0344
90463W        W91327   2.543  12.243   8.390 -0.1943  0.0036 -0.2396
90464W        W91328  13.213  19.413  11.925  0.0021 -0.3405 -0.1957
90465W        W91329  27.297   1.923  20.679 -0.2191  0.0339  0.0709
90466W        W91330  15.631  24.932  23.252 -0.2730  0.2504 -0.1415
90467W        W91331  11.520  13.824   1.835  0.1540 -0.1250 -0.0501
90468W        W91332  17.124   8.420   5.007 -0.0950 -0.1515 -0.0115
90469W        W91333  13.750  16.716  12.363  0.0212  0.0040 -0.0748
90470W        W91334  12.736  18.601  27.860  0.0500 -0.0844 -0.0277
90471W        W91335  15.376  18.491  13.890 -0.0317 -0.0612  0.4699
90472W        W91336  12.207  23.297  11.300 -0.1620 -0.2474  0.1205
90473W        W91337  27.403   3.370  14.092 -0.2083 -0.0097 -0.1262
90474W        W91338   9.210  20.419  23.155  0.0076 -0.0908  0.2310
90475W        W91339  13.338   9.635   0.271  0.0611  0.3110  0.1865
90476W        W91340   8.530  23.786   8.410 -0.3916 -0.1008 -0.0934
90477W        W91341  22.612   0.921   0.836  0.0359 -0.2503 -0.0090
90478W        W91342  11.623  28.513   2.567 -0.3990 -0.1708 -0.1485
90479W        W91343  16.321   0.180  17.613 -0.1888  0.1505 -0.0077
90480W        W91344   1.931  16.140  23.458  0.0704 -0.0081 -0.5284
90481W        W91345   1.604  27.927   6.121 -0.0240 -0.0448  0.2882
90482W        W91346  22.348  13.372   4.942 -0.1729  0.2935  0.0596
90483W        W91347   0.606  22.227  17.243  0.3191 -0.0992  0.0755
90484W        W91348   7.761  21.669  12.750 -0.3621  0.1644 -0.1294
90485W        W91349   8.912  28.839  25.969  0.2377 -0.1315  0.0844
90486W        W91350  14.639  13.108  19.875  0.0855 -0.2083  0.1488
90487W        W91351   3.164  22.234  11.374 -0.0317  0.0003 -0.0675
90488W        W91352  20.378   1.067   4.429 -0.0366  0.0372  0.0835
90489W        W91353   5.084  16.490   8.965  0.2757  0.3995 -0.1278
90490W        W91354   9.057  15.428  12.669  0.0496 -0.2155  0.0821
90491W        W91355  14.495  11.529  26.897 -0.0546  0.1781  0.2362
90492W        W91356   7.030  12.363  13.849  0.2768  0.0533  0.1396
90493W        W91357  15.710   7.497   4.939  0.0541 -0.1069 -0.1224
90494W        W91358  10.610   6.454  13.956 -0.2351 -0.2795 -0.1577
90495W        W91359  11.011  26.750  12.616 -0.1092  0.0632 -0.4181
90496W        W91360  19.581  15.624  17.563  0.1882  0.0984  0.0162
90497W        W91361  23.075  15.415   0.443  0.1237  0.2259  0.2505
90498W        W91362  12.378   4.082   4.564  0.0167  0.0962  0.3228
90499W        W91363  10.117  12.943   5.671  0.0312 -0.1251 -0.3635
90500W        W91364  28.536  19.667  28.901 -0.1325 -0.0228  0.2160
90501W        W91365  13.367  11.140  21.910 -0.0246  0.1672 -0.2035
90502W        W91366  19.326   3.471  26.547  0.5477  0.2120  0.1594
90503W        W91367  10.563  11.989   1.354  0.0128 -0.1284  0.3735
90504W        W91368  15.871  10.088  28.256 -0.1471  0.0091 -0.0362
90505W        W91369  21.682   5.206  13.626 -0.0035  0.0074 -0.0926
90506W        W91370  19.261  16.921   3.175 -0.0272 -0.2690  0.1826
90507W        W91371  15.631  15.850  10.085  0.1689 -0.3776  0.2022
90508W        W91372  25.247   7.719  18.380 -0.0494  0.0346 -0.0793
90509W        W91373  19.697  23.168  13.651  0.0932 -0.0158 -0.1425
90510W        W91374  11.599  27.364   5.584 -0.0383  0.0026  0.2739
90511W        W91375  16.956  10.157  16.985 -0.2101 -0.0845 -0.2368
90512W        W91376  18.480  11.398  20.707  0.0816 -0.2233  0.0177
90513W        W91377   2.755  24.634   4.138 -0.1703  0.0465  0.0886
90514W        W91378  24.225  28.180   5.740 -0.2545 -0.1833 -0.1917
90515W        W91379   5.199  27.085  15.848  0.2791  0.1125  0.1548
90516W        W91380  14.618   8.956  11.106  0.1373 -0.1467  0.0832
90517W        W91381  20.800  11.812  16.523 -0.0612 -0.1301  0.1154
90518W        W91382  24.459  16.502   8.766  0.1004  0.0841 -0.2958
90519W        W91383  17.001   0.226   9.590 -0.3174  0.0659  0.1179
90520W        W91384  28.681  14.557  13.686 -0.1812  0.1417  0.2427
90521W        W91385   7.751  24.539  13.918 -0.2266 -0.0228  0.2855
90522W        W91386  28.956   1.893   9.943  0.1240 -0.0952 -0.1489
90523W        W91387   5.941   6.802   3.900  0.2842  0.3626  0.2583
90524W        W91388  24.163   8.547  23.305 -0.0067  0.0736 -0.0422
90525W        W91389   0.492  27.381  27.398 -0.1625  0.2598  0.1096
90526W        W91390   5.789   9.484  11.117 -0.0984  0.0916  0.0081
90527W        W91391  28.085  11.994   7.660 -0.0985  0.2321 -0.0225
90528W        W91392  23.010  26.011   7.495 -0.0802 -0.0580  0.1044
90529W        W91393  16.646  17.124   1.822  0.2937  0.0243 -0.1800
90530W        W91394   5.288   2.744  25.569 -0.0373  0.3061  0.2909
90531W        W91395  10.332   6.129  26.773 -0.0381 -0.0076 -0.1948
90532W        W91396   2.562  13.530  21.544  0.0392  0.2090 -0.1186
90533W        W91397  26.358  11.978  18.392  0.1296  0.1766  0.1424
90534W        W91398  10.689  23.367   5.608 -0.2968  0.3111 -0.0210
90535W        W91399  20.741  26.456  26.543 -0.0925 -0.2024 -0.0667
90536W        W91400  16.446  22.636   3.286  0.0699  0.1365  0.3543
90537W        W91401  26.871  22.993   2.453  0.2479 -0.1084 -0.2269
90538W        W91402  10.681  27.126  15.132 -0.1080  0.4942 -0.0209
90539W        W91403  12.832  25.215   7.932  0.2599  0.0794  0.1980
90540W        W91404   6.752  17.630   7.674  0.2158  0.1673 -0.0555
90541W        W91405  24.025   4.242   8.445 -0.0156  0.3922  0.1409
90542W        W91406   3.757   6.755  21.621 -0.2053 -0.4439 -0.1263
90543W        W91407  20.761  23.266   8.566  0.0848 -0.0269  0.0581
90544W        W91408  14.608  11.745  24.648  0.0821  0.0863  0.0632
90545W        W91409   5.113  10.230  13.290 -0.2058  0.0559  0.3601
90546W        W91410   7.436  20.446  25.670 -0.2209 -0.1599  0.0942
90547W        W91411  13.846  14.418  20.262  0.1339  0.0464 -0.0099
90548W        W91412  13.071  19.585  16.798 -0.1791  0.2245  0.0521
90549W        W91413   0.269  24.079  28.965  0.0783  0.2136 -0.0320
90550W        W91414  14.490  23.774  16.611 -0.0001  0.0435 -0.1440
90551W        W91415   0.987  24.749   4.217  0.3266  0.5600  0.0539
90552W        W91416   8.601  16.303   0.316  0.1623  0.3119 -0.3294
90553W        W91417   7.293  24.804  28.424  0.2000 -0.1333  0.2012
90554W        W91418  10.121  24.022  19.233 -0.1466  0.3587 -0.2497
90555W        W91419   5.518  20.754   5.147 -0.0683  0.3023  0.0709
90556W        W91420  12.155  27.888   7.630 -0.2396  0.0241  0.0586
90557W        W91421   8.143  14.213   0.753  0.3605 -0.3971 -0.0838
90558W        W91422   7.936  11.492   7.090 -0.1470 -0.0780 -0.2160
90559W        W91423   2.305  20.326   5.596  0.1856  0.0441  0.0032
90560W        W91424   1.761   0.992  11.303  0.3138 -0.1072 -0.0400
90561W        W91425   1.993  16.710  28.037  0.1370  0.1812  0.1629
90562W        W91426   7.275  26.185  18.090 -0.0595 -0.0618 -0.1900
90563W        W91427   2.882   7.153  11.891 -0.0078 -0.0266 -0.0615
90564W        W91428   8.905  27.246  10.195  0.0330 -0.0248 -0.0077
90565W        W91429   8.935   5.225  26.553 -0.0476  0.1919 -0.4455
90566W        W91430  10.042  22.809  19.329  0.0301 -0.0352  0.1480
90567W        W91431   0.770  23.205  17.891 -0.0765 -0.2424  0.0220
90568W        W91432   6.095  15.907   5.432  0.0784 -0.0211 -0.0726
90569W        W91433  20.378  25.769  18.733  0.0971 -0.0395  0.2107
90570W        W91434  13.993  27.518  14.771 -0.1204  0.0004  0.0438
90571W        W91435  24.715   9.545   3.845 -0.0537  0.1266 -0.1025
90572W        W91436  12.004  25.443  18.112  0.2519 -0.0134 -0.2389
90573W        W91437   1.261   9.542   5.720  0.3998 -0.0445 -0.2217
90574W        W91438  14.225  13.322  20.094  0.1048 -0.1796 -0.4500
90575W        W91439  23.590  11.305  10.031  0.1040 -0.0664 -0.4692
90576W        W91440   5.524   7.394  19.670 -0.4212 -0.1240  0.0723
90577W        W91441   6.929  11.260   8.175 -0.1036  0.0544 -0.2620
90578W        W91442  12.559   6.155  19.757  0.3439  0.0713  0.2032
90579W        W91443  12.101  19.858  16.708 -0.1710 -0.1630 -0.0362
90580W        W91444   2.855  26.267  26.203 -0.1592  0.2555 -0.3334
90581W        W91445   9.664  12.749   3.323  0.0310 -0.1587 -0.2094
90582W        W91446  13.804   9.506   5.593  0.0899 -0.0948 -0.1609
90583W        W91447  12.712   6.419  12.728  0.0567  0.0817 -0.1336
90584W        W91448   5.643  19.934   3.678  0.2593 -0.0731 -0.1230
90585W        W91449  13.035  16.216  15.417  0.1478 -0.2975  0.1409
90586W        W91450  27.317  14.699  16.038  0.0321  0.0554 -0.3031
90587W        W91451  10.617  11.215  17.579  0.0369 -0.0031 -0.1483
90588W        W91452  18.038   8.780  16.213  0.2108 -0.0557  0.0462
90589W        W91453  16.520   7.720   1.481  0.1674  0.0171  0.1337
90590W        W91454  15.009  14.661  21.536  0.1748  0.2342 -0.0436
90591W        W91455   6.995  16.477   8.619  0.0054  0.1244 -0.1407
90592W        W91456  26.296   7.286  10.695 -0.1504  0.1412 -0.2393
90593W        W91457  27.233   6.421  17.239 -0.1874  0.0401 -0.2060
90594W        W91458   6.201  10.588   2.351 -0.0059 -0.1297 -0.0726
90595W        W91459   6.897  15.367   9.329 -0.0717  0.1139  0.1421
90596W        W91460   0.762  24.513  11.148  0.1419 -0.3008 -0.1053
90597W        W91461  12.667   6.214  28.763  0.0724 -0.0447  0.0052
90598W        W91462   8.963  18.836   0.189  0.2081 -0.1095  0.2135
90599W        W91463  23.659  19.356   1.303 -0.1112  0.1412  0.0785
90600W        W91464  22.954  18.111   4.623 -0.0165  0.1729  0.0377
90601W        W91465  24.255  26.285  26.026 -0.0987 -0.0726 -0.0411
90602W        W91466  15.330  26.543  20.691 -0.1182  0.1201  0.2853
90603W        W91467  12.260  19.479   8.880  0.2006  0.3031 -0.2280
90604W        W91468   9.470  13.057   0.363  0.1759  0.2455  0.1440
90605W        W91469  14.944  12.788  22.072  0.1618  0.1064  0.0564
90606W        W91470  17.714  25.477  26.426  0.2583 -0.0235 -0.0057
90607W        W91471   8.087  19.300  16.724  0.0143  0.1579 -0.0040
90608W        W91472  27.378   4.154   9.531 -0.1072  0.0773  0.1468
90609W        W91473  19.769   6.964  26.731  0.0108 -0.0348 -0.3400
90610W        W91474   1.446   2.464  24.327 -0.0893  0.3791  0.1178
90611W        W91475  16.605  23.925  20.421  0.0954  0.0332 -0.2073
90612W        W91476  16.601  25.595   6.711 -0.2135 -0.0586  0.2953
90613W        W91477   7.746  19.281   1.881 -0.1662 -0.0969  0.0684
90614W        W91478  13.150   4.637  27.207 -0.0864 -0.0537 -0.0924
90615W        W91479  11.977  12.750   4.626 -0.0057  0.0117 -0.0865
90616W        W91480  19.902  26.504  18.142 -0.1730 -0.4106 -0.1490
90617W        W91481  16.193  23.293  23.994 -0.1885  0.1654  0.2219
90618W        W91482   9.472  19.068   4.765  0.1293  0.0724 -0.2067
90619W        W91483  11.269  12.196  25.026 -0.0742  0.0751 -0.2651
90620W        W91484   9.594  19.911  17.294 -0.0683 -0.0806 -0.2182
90621W        W91485   7.134  20.625  21.233 -0.3795  0.1926 -0.2852
90622W        W91486   7.064  17.644   5.425 -0.1149 -0.2205  0.1088
90623W        W91487  23.045  10.024  16.555  0.0871  0.0778  0.1245
90624W        W91488  13.719  15.768   7.110  0.0095 -0.5014 -0.0557
90625W        W91489  22.700  26.129  12.648  0.2677 -0.0563  0.1663
90626W        W91490   9.852  10.627   2.802  0.1294  0.1345 -0.0974
90627W        W91491  12.580  14.317  26.133 -0.0639 -0.0847  0.1943
90628W        W91492   8.488  10.915  12.495 -0.0663  0.2528  0.1363
90629W        W91493   2.064  17.049  27.033  0.1084 -0.0051  0.0468
90630W        W91494  17.552  26.888  15.886  0.0871 -0.3288 -0.0506
90631W        W91495  22.297   9.590   8.095  0.3582 -0.0363  0.1236
90632W        W91496  25.263  21.936  25.849 -0.2828 -0.0246  0.0518
90633W        W91497   1.196   8.718  23.167 -0.0998  0.0584 -0.3824
90634W        W91498  16.510  24.464  24.037  0.1876  0.1403  0.3806
90635W        W91499  28.162  19.088  16.969 -0.0198 -0.2979  0.0319
90636W        W91500   1.086  11.953   4.965 -0.0894  0.0967  0.0873
90637W        W91501  18.138  19.795  17.949  0.0708  0.1592  0.0636
90638W        W91502  19.747  23.127  10.043 -0.1743  0.1085 -0.4599
90639W        W91503  15.646  26.097   6.577 -0.0707  0.3917  0.1393
90640W        W91504   3.003  11.010   4.871  0.1818  0.1693 -0.2775
90641W        W91505  16.310   2.918   2.983 -0.0341  0.3155  0.0549
90642W        W91506  15.357  20.315  25.416 -0.2363 -0.2091  0.1572
90643W        W91507   0.425  25.864  25.909  0.0652 -0.0888  0.2250
90644W        W91508  27.043  11.802  10.803 -0.0727 -0.3115 -0.0104
90645W        W91509  12.126   1.499   4.030 -0.1857  0.1129 -0.0726
90646W        W91510  24.428  19.862  29.004  0.0628  0.2206 -0.2733
90647W        W91511  16.690  19.823   3.684 -0.1915  0.2550  0.1742
90648W        W91512  28.976  19.678  10.658 -0.0366 -0.0121 -0.0363
90649W        W91513  28.049  11.608   5.263 -0.1030  0.0084 -0.0820
90650W        W91514  11.625   8.322   5.256 -0.1265  0.4356 -0.2562
90651W        W91515   5.824  28.949  25.601 -0.0417  0.0661  0.0307
90652W        W91516   0.623  22.204   4.340 -0.0600 -0.2618  0.1490
90653W        W91517   3.834  22.967  20.976 -0.3182 -0.3930  0.1462
90654W        W91518  14.660  12.296  12.233  0.2630  0.2549  0.1989
90655W        W91519  18.311   8.427  25.454  0.1541 -0.2557  0.2154
90656W        W91520  23.104   9.351  24.834  0.0135  0.0228  0.0005
90657W        W91521  13.576  11.425  11.081 -0.0982  0.2406  0.2621
90658W        W91522  27.677   4.948  15.088 -0.0921  0.2070  0.0497
90659W        W91523  13.376   5.496  11.686  0.1156  0.1693 -0.0238
90660W        W91524   2.121  19.548  20.300  0.1093 -0.1900 -0.1950
90661W        W91525  26.134  16.051  13.553 -0.0874  0.1185  0.2499
90662W        W91526  23.995  25.663  28.404  0.2359 -0.1248  0.1436
90663W        W91527  14.591  10.365   2.527  0.1342 -0.2661 -0.0690
90664W        W91528   8.740  17.540  13.004  0.0786 -0.1884 -0.1701
90665W        W91529   6.180  20.704  17.608 -0.2565 -0.0005 -0.1956
90666W        W91530  18.302  23.405  20.019 -0.1866 -0.0072  0.1384
90667W        W91531  16.134  28.728   6.387  0.3632 -0.1440  0.4696
90668W        W91532  23.325   2.204   5.445  0.0857 -0.3728  0.1141
90669W        W91533   9.856  23.992   4.905 -0.0293  0.1262  0.1294
90670W        W91534  10.282  14.501  16.668  0.1681 -0.0203  0.0567
90671W        W91535  16.559  25.140  13.322 -0.1929 -0.0275 -0.3243
90672W        W91536  16.681  22.275  26.712  0.2638  0.0310 -0.0473
90673W        W91537   3.795  13.691   3.700  0.1268 -0.2210 -0.0010
90674W        W91538   2.672  12.939  10.417 -0.0836  0.3295 -0.0109
90675W        W91539  21.189  28.369   2.086  0.2315 -0.2484 -0.1404
90676W        W91540  26.715   9.018   1.473 -0.3857 -0.2732 -0.0203
90677W        W91541   7.388  28.938   0.526 -0.1319  0.0904  0.0462
90678W        W91542  10.321  15.455  10.854  0.2290  0.0874 -0.1695
90679W        W91543  19.055  12.909  27.793  0.0342 -0.1123  0.0067
90680W        W91544  23.286   7.177   8.024  0.4192  0.2018  0.0707
90681W        W91545   7.389   6.982  22.094 -0.0704  0.0980  0.3313
90682W        W91546   4.961  11.842   5.289 -0.1331 -0.1294 -0.0961
90683W        W91547  25.835   8.118  13.253  0.0922  0.1612 -0.0238
90684W        W91548  22.349  27.557  25.380 -0.2357  0.1426  0.0521
90685W        W91549   9.060  28.643  18.799  0.0584  0.2527 -0.2456
90686W        W91550  29.048  17.722  17.444  0.1930 -0.2271  0.1470
90687W        W91551  17.777  13.484   2.665 -0.0324 -0.0286 -0.2519
90688W        W91552   6.539  13.438  11.938  0.1125  0.1734 -0.1068
90689W        W91553  14.795   4.651   3.795 -0.0849  0.0371 -0.0318
90690W        W91554  14.974  25.281  27.940  0.1015  0.0363  0.0223
90691W        W91555   7.115  25.630  25.327 -0.1003  0.1820  0.1460
90692W        W91556  18.794  18.664   8.517 -0.0187 -0.1776  0.1117
90693W        W91557  20.927  27.490  20.108  0.4339  0.2603  0.1260
90694W        W91558   6.410  23.588   7.590 -0.1768 -0.0578 -0.0582
90695W        W91559   3.980  10.769  10.182  0.1120 -0.0291  0.1023
90696W        W91560  13.867  26.700  22.213  0.0127  0.2437  0.1856
90697W        W91561  12.549   3.053   2.377 -0.1694 -0.1871  0.0250
90698W        W91562  23.225  22.507  15.070  0.0598 -0.0103  0.4004
90699W        W91563   9.411  17.136   1.505 -0.3994  0.1462 -0.0032
90700W        W91564  11.770  20.885  20.461 -0.1624  0.2207  0.2129
90701W        W91565  16.855   7.283  17.637  0.1029  0.1134  0.1965
90702W        W91566  27.810   1.441  19.005 -0.1965 -0.2566 -0.2597
90703W        W91567  14.245   7.326  27.838 -0.0252 -0.0206  0.2938
90704W        W91568  13.511   8.132   7.172 -0.1400 -0.0606 -0.0673
90705W        W91569  28.088  24.014   0.648 -0.3850 -0.1678 -0.0056
90706W        W91570  13.152   2.188  14.409 -0.0265  0.5343  0.0919
90707W        W91571  17.250  17.399   8.969 -0.1404 -0.2305 -0.1579
90708W        W91572  27.293   7.766   4.081  0.0765 -0.1450  0.3832
90709W        W91573  11.081   2.347  12.807  0.1775  0.0848  0.1353
90710W        W91574  17.972  13.387  15.053  0.0542 -0.2812  0.1338
90711W        W91575  17.468  21.117  15.877 -0.3670  0.3615  0.2241
90712W        W91576   6.187  25.141   7.338  0.1040 -0.0639 -0.3508
90713W        W91577  14.461  18.930  13.597 -0.0831 -0.1811 -0.0100
90714W        W91578  15.186   8.918   5.723  0.0647  0.3505  0.0554
90715W        W91579  24.753  18.495   1.166  0.0247  0.2012  0.1165
90716W        W91580  28.395  24.750   8.957 -0.0643 -0.0004 -0.3315
90717W        W91581  10.255  26.292   8.438  0.0258  0.1459 -0.0412
90718W        W91582  22.887  21.549   4.438  0.2476 -0.2718 -0.0380
90719W        W91583  27.448   2.754  13.315  0.0153 -0.2214  0.2405
90720W        W91584   1.972   9.524   8.223 -0.2333 -0.1589 -0.0329
90721W        W91585   8.343   6.513  25.290  0.3113 -0.2041  0.1709
90722W        W91586  12.019  26.140  20.409 -0.1709  0.3931 -0.3122
90723W        W91587  17.232   6.632   7.001 -0.4283  0.5311  0.1537
90724W        W91588  14.169  10.615  23.295 -0.0765 -0.0284  0.0836
90725W        W91589  20.769  24.359  13.706  0.0410 -0.1595  0.2373
90726W        W91590   7.721  19.338  14.010  0.0300  0.0332 -0.1218
90727W        W91591  20.850  19.734   1.668  0.1650 -0.0088  0.0176
90728W        W91592  23.482   2.203   3.683  0.0260  0.0711 -0.2158
90729W        W91593   3.786  25.524   8.387 -0.0719  0.2217 -0.0796
90730W        W91594  12.720  13.148  12.098 -0.1477  0.1444 -0.2418
90731W        W91595  25.342   8.709  11.685 -0.1082 -0.0484  0.1701
90732W        W91596   2.446   0.604  26.494 -0.3238  0.4025 -0.0862
90733W        W91597  11.747   6.969   0.216  0.2561 -0.1814 -0.0163
90734W        W91598   8.861  25.499   6.845  0.1134 -0.0759  0.0084
90735W        W91599   3.199  25.009  10.828  0.1982 -0.1377  0.2135
90736W        W91600  20.774  15.911  21.612 -0.0170  0.1152 -0.0369
90737W        W91601  16.692  23.393   8.972 -0.1555 -0.1704  0.5996
90738W        W91602   6.840  28.622  28.056  0.3038  0.0717  0.0633
90739W        W91603   1.833   1.038  15.085 -0.1010 -0.1082  0.1320
90740W        W91604  21.375  13.911  28.558  0.0573  0.1086 -0.0507
90741W        W91605  12.449  26.596   7.274  0.2287 -0.2382  0.4027
90742W        W91606  11.157  15.519  11.044 -0.3913  0.4555 -0.2924
90743W        W91607  15.788  12.295  12.779 -0.1505 -0.1514 -0.1290
90744W        W91608  12.862  16.349  20.370 -0.1000  0.2266 -0.2661
90745W        W91609  20.714  21.227  13.893 -0.1150 -0.2752 -0.2800
90746W        W91610   4.859  28.572   8.232  0.1287 -0.2423 -0.0619
90747W        W91611  22.801  25.292  27.896 -0.1492 -0.1734  0.1366
90748W        W91612   7.495  15.888  16.776 -0.0469 -0.3632  0.1192
90749W        W91613  28.758  24.999  23.308 -0.0908  0.1260  0.1231
90750W        W91614  22.384  21.297   3.104 -0.0036 -0.0041 -0.2915
90751W        W91615  20.883  13.979  14.994  0.2203  0.0243  0.0800
90752W        W91616   4.103  27.133  25.793  0.0496 -0.1447 -0.3286
90753W        W91617   5.348  20.167   2.087  0.4121  0.0921 -0.0660
90754W        W91618  19.166  16.248  25.929 -0.0664  0.0175  0.1028
90755W        W91619   1.961  28.159  24.213 -0.1418 -0.2828 -0.1602
90756W        W91620   8.354  12.792  20.636 -0.0390 -0.0613 -0.2068
90757W        W91621  24.553  15.061   0.997 -0.0660  0.0301 -0.2069
90758W        W91622   0.006  14.009  15.180 -0.1232  0.0660  0.0145
90759W        W91623  14.081  20.307  19.576 -0.0842 -0.1405  0.0904
90760W        W91624  20.531  28.924  14.725 -0.3140  0.1173 -0.1308
90761W        W91625   7.670  14.197   5.923  0.0614 -0.0190 -0.0688
90762W        W91626  18.459   5.609   6.835  0.1114  0.0171 -0.3550
90763W        W91627  20.985  27.086  14.293  0.1131 -0.3157 -0.3345
90764W        W91628  10.191  23.741   8.438 -0.0437  0.0430 -0.0365
90765W        W91629   5.351  11.232  23.035 -0.0121 -0.0556 -0.3895
90766W        W91630  16.430  17.341  13.491  0.1688 -0.0007  0.2495
90767W        W91631   4.796  22.121   4.400 -0.2955  0.0559  0.1910
90768W        W91632  17.708   0.208  12.276  0.1371  0.1388 -0.1465
90769W        W91633   4.606  22.754  11.632 -0.1422 -0.2328  0.1616
90770W        W91634  12.927  11.289  22.190 -0.0514  0.1864 -0.3562
90771W        W91635  14.056  26.487   0.139 -0.0696 -0.0465 -0.3562
90772W        W91636   6.210  24.812  14.762  0.3986  0.0229 -0.0017
90773W        W91637   6.409  27.702   0.199 -0.3219 -0.0178  0.0425
90774W        W91638  17.023  27.620   7.099  0.0087  0.1897  0.1248
90775W        W91639  15.975  24.332  11.134  0.1993 -0.2781 -0.1465
90776W        W91640  19.401  24.967   4.810 -0.2445  0.0630 -0.2563
90777W        W91641  16.541  11.405   5.530 -0.2344 -0.0358 -0.1607
90778W        W91642  26.791  20.733  14.745 -0.1604  0.0953  0.3233
90779W        W91643   9.412  22.013   6.599  0.1056 -0.2741 -0.2024
90780W        W91644   5.231  12.208  14.516 -0.0793 -0.0672 -0.2007
90781W        W91645  28.550  15.622   1.632  0.2295 -0.0804 -0.2031
90782W        W91646   7.818  23.241   9.471 -0.0860 -0.1498 -0.0745
90783W        W91647  15.823   7.768   1.436 -0.2364  0.1271 -0.0559
90784W        W91648   2.466  11.434  15.527  0.3548 -0.0021  0.1203
90785W        W91649   7.491   3.312  19.562 -0.0719 -0.0574 -0.1234
90786W        W91650  17.882  21.022   4.649 -0.0106  0.1690 -0.0960
90787W        W91651  18.052  28.131   4.330  0.0307  0.1841  0.2432
90788W        W91652   0.596  16.510  26.320  0.2562 -0.0791  0.1882
90789W        W91653   9.073   7.435   6.942 -0.1597 -0.0243 -0.1675
90790W        W91654   6.062  18.859   7.850  0.2199  0.2246 -0.1371
90791W        W91655  10.412   7.820   1.798  0.3316  0.0707  0.0951
90792W        W91656   7.052  13.612   1.022 -0.2499  0.1182 -0.0468
90793W        W91657  26.118   7.012  13.973  0.0745  0.3273  0.2162
90794W        W91658  18.395  19.428  24.255  0.2202 -0.2046 -0.3079
90795W        W91659  19.261   8.981  27.646 -0.2029 -0.0765 -0.0386
90796W        W91660  14.668   6.940  28.059  0.1341  0.0930  0.2116
90797W        W91661   0.509  19.819  28.438  0.0820  0.1661  0.1032
90798W        W91662  19.715  22.135  17.699  0.1762  0.1851 -0.0962
90799W        W91663   3.282   1.823  24.030  0.3045  0.1252 -0.2377
90800W        W91664   7.371  12.886  28.638 -0.0288 -0.2031  0.0170
90801W        W91665   5.816  26.685  14.527  0.0843  0.1430 -0.3623
90802W        W91666   6.635  18.702  18.418  0.1107 -0.2285  0.3501
90803W        W91667  11.571   1.634   6.528  0.2214 -0.0421  0.0339
90804W        W91668  28.366  23.974   9.839  0.1432 -0.1001  0.2126
90805W        W91669  16.240  22.222   5.237  0.2628 -0.1187  0.0461
90806W        W91670  22.074  14.775   5.330  0.0960 -0.2786  0.2863
90807W        W91671  12.186   9.344  16.446  0.0175 -0.0012 -0.1954
90808W        W91672  20.863   1.840  11.683 -0.1376  0.1077 -0.0716
90809W        W91673   1.903  17.884  27.385 -0.1236  0.0898 -0.0808
90810W        W91674  16.888  16.598  23.825  0.0113  0.1918 -0.0397
90811W        W91675   5.674  20.134  14.873  0.0373  0.0392  0.0813
90812W        W91676   2.242  11.500  17.988 -0.3239 -0.0383  0.0077
90813W        W91677  11.263  19.306  18.708  0.2317  0.2358 -0.0235
90814W        W91678  11.945   8.609  12.370 -0.3992 -0.1679  0.0061
90815W        W91679   4.374   5.921   5.757 -0.2585 -0.0547 -0.3605
90816W        W91680  10.219   2.660   5.915  0.0167  0.1526 -0.2461
90817W        W91681   6.134   6.115   1.925 -0.0206  0.0048  0.2404
90818W        W91682   9.060  17.988  22.999 -0.1822  0.1714  0.0271
90819W        W91683   7.467  17.488  22.403 -0.2509 -0.1485 -0.1754
90820W        W91684  24.620  19.483  10.298  0.2086  0.0155 -0.3298
90821W        W91685  12.635  16.461   8.606 -0.0868  0.1718  0.0063
90822W        W91686  18.092  11.779   3.249 -0.2073 -0.0543 -0.1013
90823W        W91687  28.770   9.998  21.637  0.1008  0.1964 -0.2933
90824W        W91688  19.732  22.219   3.634  0.2996  0.0110  0.1167
90825W        W91689  16.230  11.160   0.877  0.0159 -0.0520  0.0833
90826W        W91690  16.775  11.364   5.108 -0.0933 -0.0402 -0.2450
90827W        W91691  25.075  17.027  16.218  0.0484  0.0627 -0.2292
90828W        W91692   1.172  18.135   7.600 -0.0761 -0.3489 -0.3160
90829W        W91693  23.862  19.536  21.317 -0.2612 -0.0262  0.1894
90830W        W91694  25.746   2.371  17.934  0.0070 -0.1000  0.1543
90831W        W91695  25.174  19.974  17.152  0.1079  0.1347  0.4486
90832W        W91696  17.845  12.798   1.519 -0.0299  0.1120 -0.2763
90833W        W91697  11.634  10.848  22.343  0.0799 -0.1061 -0.0478
90834W        W91698   5.728   7.405  19.248 -0.1039 -0.2530  0.0259
90835W        W91699  13.291  22.038  27.972  0.0795 -0.1437 -0.3371
90836W        W91700   7.011  21.878  21.335 -0.3187  0.2373  0.0977
90837W        W91701   3.935   0.246  22.382 -0.1520  0.3197 -0.0436
90838W        W91702   4.920  17.961  25.822  0.1433  0.0744  0.0355
90839W        W91703  15.312  25.930  21.701 -0.0604  0.0602  0.0671
90840W        W91704  17.310  20.953  23.151  0.0022  0.3968  0.1302
90841W        W91705   7.195  17.610  25.259  0.1621  0.2731  0.1811
90842W        W91706   2.347  25.481  12.432 -0.1512 -0.1087 -0.0929
90843W        W91707  12.742   7.110   2.688  0.1681  0.1196 -0.2916
90844W        W91708  14.237  19.467  27.614  0.1653  0.0416  0.0924
90845W        W91709   1.870   8.145   0.902 -0.1936 -0.1892 -0.2474
90846W        W91710  12.813  21.182  26.136  0.1236  0.3668 -0.0745
90847W        W91711   8.666  25.393   6.103 -0.0108  0.0210  0.0678
90848W        W91712  14.201  13.295   6.816 -0.2079 -0.0870 -0.0111
90849W        W91713  27.848  14.730  10.846  0.0481  0.1135  0.0348
90850W        W91714   6.177  18.170   3.399 -0.0672  0.0222  0.2098
90851W        W91715   7.529   3.312  26.108  0.0228 -0.0557 -0.2604
90852W        W91716  11.244  20.599   2.201  0.1944  0.0816  0.0478
90853W        W91717  27.266  29.135   2.063  0.2173  0.0550  0.0095
90854W        W91718   3.432  13.160  18.352 -0.1028  0.0025 -0.2078
90855W        W91719  18.672   6.299  11.540 -0.4633 -0.1205  0.0129
90856W        W91720   1.925  11.806  10.427  0.0989  0.2226  0.1099
90857W        W91721   6.621   6.889  16.867  0.0221  0.1091  0.0355
90858W        W91722   1.424   7.318  11.229  0.0872  0.1819  0.1129
90859W        W91723  24.875  15.012  11.584  0.1111 -0.1777  0.0140
90860W        W91724  26.025  15.620  13.995 -0.1182 -0.0382  0.3893
90861W        W91725  19.794   9.689  21.674  0.0962 -0.2125 -0.1398
90862W        W91726  26.353  25.928   0.803 -0.2799 -0.2535  0.0602
90863W        W91727  13.925  13.532  15.047 -0.1545  0.0299 -0.0701
90864W        W91728   4.983  19.484   7.007  0.0779  0.1799  0.2799
90865W        W91729  14.724   2.302  12.278  0.0737 -0.0397  0.2428
90866W        W91730  13.408  20.180   9.269 -0.0377  0.1080 -0.1023
90867W        W91731  27.557  15.404   3.747 -0.0915 -0.0938  0.2825
90868W        W91732  14.652  23.837  21.942 -0.3327 -0.2631 -0.0194
90869W        W91733  24.134  20.417   8.627  0.0379  0.0758  0.0717
90870W        W91734  10.413  19.997   2.574 -0.2856  0.3435 -0.0614
90871W        W91735   9.931  16.956   8.312 -0.0391  0.0531  0.1403
90872W        W91736  20.331   2.400  23.097  0.2538  0.0982 -0.0303
90873W        W91737  17.316   8.696  15.291  0.1031  0.0512  0.0619
90874W        W91738  14.491   7.448   0.724  0.3750 -0.0295 -0.0963
90875W        W91739   9.122  10.792  14.495 -0.0628  0.0100  0.0124
90876W        W91740   9.873  15.188   6.636 -0.0536 -0.0040  0.2669
90877W        W91741   8.598  12.013  27.184  0.1415  0.2504 -0.0185
90878W        W91742  24.843  16.201  29.091  0.0504 -0.1562 -0.1627
90879W        W91743   2.676  17.844   5.276 -0.0774 -0.4516  0.2059
90880W        W91744  11.242  13.929   8.847  0.0627 -0.0814 -0.0214
90881W        W91745  27.872  22.918  26.461 -0.1440  0.0977  0.0882
90882W        W91746  23.215  21.698   0.076  0.1195  0.0118  0.2284
90883W        W91747  15.078  16.330  18.088 -0.1652 -0.1052  0.0227
90884W        W91748   3.660  14.404  10.969  0.1923  0.3378 -0.2407
90885W        W91749   2.232   1.206   3.936 -0.1636  0.0827  0.0210
90886W        W91750  23.473  19.688  26.940  0.3480  0.1482 -0.1286
90887W        W91751  17.289  10.856   5.751 -0.0858  0.0040  0.0886
90888W        W91752  20.744   1.813   5.154  0.0770  0.0326 -0.1383
90889W        W91753  24.983  23.103  19.894 -0.1852  0.0471  0.0738
90890W        W91754   0.013  19.986  28.902 -0.3933  0.0145  0.0325
90891W        W91755   1.678  21.211   9.247 -0.0325 -0.1871  0.1674
90892W        W91756   9.657  19.335   4.367  0.0476  0.0388  0.2174
90893W        W91757  27.484  24.119   4.174 -0.0102  0.1801 -0.1010
90894W        W91758  21.488  22.623  27.693 -0.0514 -0.0925  0.2103
90895W        W91759   3.381  27.821   4.556  0.3782 -0.1345  0.1161
90896W        W91760  23.715   8.859  16.439  0.0840 -0.1488 -0.2076
90897W        W91761  23.032  28.105  12.297 -0.3261  0.2517  0.1988
90898W        W91762   1.683  23.478  15.847 -0.2324 -0.3731 -0.0513
90899W        W91763   4.612  23.263   4.541 -0.1712  0.1869 -0.1572
90900W        W91764  13.420  20.388   4.214  0.2835 -0.2313  0.1324
90901W        W91765   7.109  20.124  13.698  0.0548  0.0979  0.1777
90902W        W91766   9.563   7.774  15.614 -0.1337  0.0350  0.2786
90903W        W91767  10.254   5.877   6.206 -0.1816 -0.2238  0.0515
90904W        W91768  18.188   1.925   0.438 -0.3064 -0.1768  0.0515
90905W        W91769  20.943  19.764  11.982  0.3439 -0.1699 -0.0312
90906W        W91770   2.259   4.954   0.362 -0.0650 -0.1092  0.2929
90907W        W91771  15.791  11.633  19.253  0.0157  0.0132  0.1778
90908W        W91772  14.451  14.909  11.150  0.2115  0.0960  0.3377
90909W        W91773   8.758  27.861  25.862 -0.4703  0.1014 -0.2144
90910W        W91774  17.833  22.854  19.968 -0.1817  0.1759 -0.2326
90911W        W91775  10.582   3.581   9.077 -0.1730  0.0098 -0.0027
90912W        W91776   8.688  14.426   8.447 -0.1014  0.2528 -0.0481
90913W        W91777   3.723  13.215  19.309 -0.2251 -0.0185 -0.0296
90914W        W91778   4.413  23.466  18.445  0.4114  0.0783 -0.2325
90915W        W91779   5.188  20.691  23.764  0.1076  0.2473 -0.3070
90916W        W91780  20.656  16.412   1.486  0.1358 -0.0418  0.0472
90917W        W91781   9.242  23.972   1.870  0.0101  0.2896  0.0690
90918W        W91782   3.250   8.115  12.756 -0.0080 -0.3707 -0.2153
90919W        W91783   1.275  27.430  28.787 -0.2375 -0.0496 -0.4670
90920W        W91784  10.163  24.394   4.185  0.0228  0.0284  0.0907
90921W        W91785  25.801  29.027  10.946 -0.0629 -0.2837 -0.2230
90922W        W91786  15.941   0.844  19.551 -0.0199 -0.3062 -0.1408
90923W        W91787  21.543  17.609  19.470 -0.1479 -0.1591 -0.1927
90924W        W91788  23.305  15.074  17.380 -0.2624  0.0402  0.1515
90925W        W91789  24.159  29.116  20.133  0.1666  0.1109  0.0878
90926W        W91790   3.398   8.067  18.965  0.0682 -0.1918 -0.0622
90927W        W91791  25.501  19.023   5.914  0.0429  0.0329 -0.3546
90928W        W91792  28.494  26.982  20.493 -0.1279  0.1305  0.0473
90929W        W91793  21.924  17.234  17.851 -0.1042  0.1347 -0.2164
90930W        W91794  26.181  23.614   6.090  0.2617  0.0566 -0.0426
90931W        W91795   6.889  14.041  10.456 -0.1361 -0.0861 -0.3276
90932W        W91796  16.240  23.455  17.594  0.0330  0.1960 -0.1268
90933W        W91797  27.450  15.824   0.442  0.5053  0.0689 -0.1200
90934W        W91798  16.870  25.291   2.987  0.1266 -0.1767 -0.1163
90935W        W91799  20.979  21.077  13.478 -0.0115  0.0276  0.1855
90936W        W91800  27.152   1.992  10.770 -0.0953 -0.0243 -0.0406
90937W        W91801   1.688   1.541  14.553 -0.0657 -0.1762  0.2129
90938W        W91802  11.590  19.244  24.668 -0.0505  0.0057  0.0263
90939W        W91803   0.802  21.521   4.372 -0.3102  0.0727  0.1736
90940W        W91804  11.844  21.001   3.284  0.0059 -0.0949  0.1711
90941W        W91805  19.409  21.966   2.186  0.1092 -0.0542 -0.1734
90942W        W91806  20.123  26.853  17.902 -0.0363 -0.2487  0.3219
90943W        W91807   2.456  13.483  19.744 -0.1109  0.0926  0.1955
90944W        W91808  13.194  23.133  15.487 -0.0037 -0.1741  0.0422
90945W        W91809  27.818  14.188   6.727 -0.0148 -0.0144  0.1675
90946W        W91810  18.708  13.605  28.184 -0.0844 -0.0438 -0.0677
90947W        W91811  13.500  12.779  27.895 -0.0455 -0.0112 -0.0735
90948W        W91812  28.906   2.352  10.725 -0.3136 -0.0251 -0.0093
90949W        W91813   0.364  15.130  16.018  0.0270  0.3100  0.1578
90950W        W91814  27.903  22.928   4.100 -0.1209  0.1158 -0.2433
90951W        W91815  16.746  28.065  28.114  0.2023 -0.1568 -0.0559
90952W        W91816  15.959  14.388  13.479 -0.2342  0.3811 -0.0981
90953W        W91817  12.725   5.247  20.256 -0.0732 -0.0750 -0.0989
90954W        W91818   5.087   9.744  22.199 -0.1543  0.0709  0.0620
90955W        W91819  18.317   9.395   5.388  0.2922  0.0182 -0.2492
90956W        W91820  22.290  28.851  14.292  0.3805 -0.0469  0.2745
90957W        W91821  16.085  14.057  14.368  0.0206 -0.2560  0.1960
90958W        W91822   5.109  10.286  19.012  0.2044 -0.0339  0.0070
90959W        W91823  28.345  19.401  10.043 -0.2913 -0.0812  0.1053
90960W        W91824   7.453  14.626   8.964  0.3776 -0.0376  0.1555
90961W        W91825   4.541  10.266   6.216  0.1160  0.2330  0.3723
90962W        W91826  24.233  16.213  28.874 -0.1670 -0.3021  0.0720
90963W        W91827   9.658  20.624   6.681 -0.1426 -0.3600  0.0355
90964W        W91828  28.107  25.065   4.747 -0.1480 -0.0482 -0.2648
90965W        W91829  10.103  14.742  10.110 -0.2411  0.0190 -0.4232
90966W        W91830  15.577   4.966  28.991  0.1147  0.0442  0.1367
90967W        W91831  12.589  16.772   8.221  0.1271  0.1167  0.2021
90968W        W91832  22.192  27.631   1.535  0.1990 -0.0002  0.1246
90969W        W91833  26.436  20.203   2.729 -0.1279 -0.1590 -0.0381
90970W        W91834  13.863   1.411   9.302 -0.3021  0.2135  0.0620
90971W        W91835  13.901  16.488  10.609  0.0237 -0.2960 -0.1123
90972W        W91836   5.741  29.044   5.215  0.0601 -0.3743  0.2481
90973W        W91837  20.460   2.288  24.398  0.0572 -0.2633 -0.2260
90974W        W91838   4.715   8.276  19.561  0.1088 -0.1459 -0.2055
90975W        W91839   4.866  15.367   7.453 -0.2050  0.0911  0.0463
90976W        W91840  27.124  18.478  18.990  0.0580  0.0706  0.0759
90977W        W91841   3.602   5.097  27.985  0.0021  0.0098  0.1221
90978W        W91842  13.618  22.582   5.016  0.1097  0.1981  0.0869
90979W        W91843  11.456  23.693   7.454  0.0874 -0.3175 -0.1055
90980W        W91844  12.594  22.257  18.544 -0.2068 -0.2542  0.0108
90981W        W91845  26.660  20.256  18.578 -0.1390  0.0506 -0.1022
90982W        W91846  19.252  19.603  13.380 -0.0844 -0.0117  0.1962
90983W        W91847  23.544   5.675  14.015 -0.0766  0.0532 -0.1076
90984W        W91848  28.193  19.887   6.183  0.4400  0.2168  0.0255
90985W        W91849  19.743   3.459  11.413  0.2143 -0.0794  0.2644
90986W        W91850  26.619  28.641  17.618  0.2522 -0.0091 -0.1795
90987W        W91851   4.641  26.195   5.900 -0.0638  0.2439 -0.2066
90988W        W91852   0.607  14.229  23.577 -0.2312  0.2703  0.0861
90989W        W91853   8.572   7.378  27.385  0.2239  0.0104 -0.2658
90990W        W91854  10.624  16.228  22.203  0.0484  0.1736  0.0373
90991W        W91855  22.820  11.274  19.154  0.1622  0.0309  0.0885
90992W        W91856  17.789   9.983  15.805  0.0560  0.1087 -0.2741
90993W        W91857  21.532  28.752   2.239 -0.1784 -0.0470  0.1487
90994W        W91858   9.721   8.509  22.767 -0.1406 -0.1948 -0.0794
90995W        W91859  23.399   2.913  19.377  0.0398  0.2056  0.4336
90996W        W91860   6.002   9.142   5.922  0.0815 -0.0829 -0.1342
90997W        W91861  14.504  29.014  17.285  0.3000  0.0102  0.1419
90998W        W91862  12.873   4.748  24.616 -0.1210 -0.1414  0.2539
90999W        W91863  15.440   8.962  14.538  0.1914  0.2735 -0.0705
91000W        W91864  11.342  22.021  26.222 -0.0152  0.1082  0.2791
91001W        W91865  12.085  28.051   4.479  0.0339 -0.2013  0.0478
91002W        W91866  12.510  21.885  23.102  0.0414 -0.2380  0.1734
91003W        W91867  22.782   7.032  27.884  0.0078  0.0328  0.0564
91004W        W91868   9.326  19.424  23.190 -0.3159 -0.0062 -0.0014
91005W        W91869  25.112  12.538  25.400  0.2053 -0.1107 -0.0148
91006W        W91870  18.101  26.710  20.519 -0.2013 -0.1128  0.0817
91007W        W91871   3.667  21.895   8.919  0.0956 -0.2196 -0.0030
91008W        W91872  28.669  20.060  16.132  0.2195 -0.0340  0.1471
91009W        W91873  18.085  26.571   6.563  0.2020  0.1101 -0.0518
91010W        W91874  13.196   9.108  14.327  0.0493 -0.2416  0.0945
91011W        W91875   6.380  10.901   5.744 -0.1592 -0.1281 -0.1611
91012W        W91876  15.276  13.434  13.801 -0.2816  0.1507  0.1841
91013W        W91877   7.942  14.016   8.410  0.1039  0.2463 -0.1160
91014W        W91878  10.139  10.865  15.131 -0.0994  0.0390 -0.1935
91015W        W91879  11.355  13.251  18.025 -0.3410 -0.1026 -0.0471
91016W        W91880  10.151   8.132   7.691 -0.0632 -0.0473 -0.0203
91017W        W91881  11.576  21.660  18.824 -0.1857 -0.0064 -0.2197
91018W        W91882  27.606  16.449  15.197 -0.1709  0.0563 -0.1579
91019W        W91883  15.168  19.629   8.670  0.1782  0.0406 -0.1371
91020W        W91884   7.404   2.225  26.286  0.3062  0.0854 -0.0652
91021W        W91885  13.268  19.764  23.332  0.3609  0.3555 -0.0526
91022W        W91886  21.390  14.476  15.909  0.0837  0.0655 -0.0817
91023W        W91887  14.240  14.741  27.045 -0.0846 -0.0622 -0.0009
91024W        W91888   4.621  16.003  19.956  0.1197  0.0280 -0.2258
91025W        W91889  16.093  19.739   8.828  0.1080 -0.0349  0.0349
91026W        W91890  17.503  22.490  14.454 -0.0247 -0.3313  0.0320
91027W        W91891  12.917   6.348  27.715  0.1074  0.0801 -0.0653
91028W        W91892   9.032  20.793  15.420  0.3026 -0.2066  0.1679
91029W        W91893  26.346   1.667  21.059 -0.2152 -0.0291 -0.0025
91030W        W91894  18.368   1.052  22.130  0.2781  0.2508  0.1042
91031W        W91895  10.999  17.269  14.074  0.1320  0.2488  0.2736
91032W        W91896   7.246  12.344   0.680  0.4005 -0.2029  0.1451
91033W        W91897  13.095  18.709  14.760 -0.2272 -0.3740 -0.1192
91034W        W91898  26.489  17.369   3.796 -0.0023 -0.0558 -0.2344
91035W        W91899  15.744   1.131  10.855  0.0211  0.4074 -0.2208
91036W        W91900  10.370  10.834  14.393 -0.0655  0.1469  0.3143
91037W        W91901   9.840  16.992   9.000  0.1971 -0.1925  0.2602
91038W        W91902  12.169  27.818   3.270 -0.2198 -0.1403 -0.3163
91039W        W91903   1.275   8.875  13.517  0.2431  0.1933 -0.2765
91040W        W91904  21.640   8.243  25.223  0.0128 -0.0219 -0.2298
91041W        W91905   6.083  23.967   0.635  0.3550  0.0330  0.2038
91042W        W91906  22.686   0.482   7.937 -0.0688 -0.0433  0.1035
91043W        W91907   7.605  24.699   9.453 -0.1998  0.2473  0.3223
91044W        W91908   7.538  10.512   1.983  0.0107  0.1801 -0.0946
91045W        W91909  26.984   1.193   7.374  0.0358  0.1147  0.1597
91046W        W91910   7.940  24.849  11.817  0.3047 -0.1998 -0.2853
91047W        W91911   1.382   3.198   5.756  0.1261  0.0532  0.0761
91048W        W91912  13.663  15.240  14.643  0.0133  0.2560  0.2049
91049W        W91913  23.121  10.919  20.542  0.2241  0.3268 -0.0683
91050W        W91914   4.407  16.745   1.852 -0.0296  0.1774  0.0823
91051W        W91915  21.673  25.544   5.222  0.0251 -0.0011 -0.3028
91052W        W91916  21.294   9.030  11.392 -0.2619  0.1804 -0.3046
91053W        W91917  16.305  18.220   7.557  0.0145 -0.0729  0.1170
91054W        W91918  21.945   9.070  27.845  0.1823 -0.0341  0.4859
91055W        W91919  18.304  10.528  16.457 -0.0660 -0.2596 -0.0594
91056W        W91920   8.958   0.082   9.828 -0.0579  0.1501  0.2994
91057W        W91921   9.056  23.321  10.066  0.3373 -0.2620 -0.0288
91058W        W91922  19.387   5.633  13.599 -0.1096  0.0834  0.1991
91059W        W91923  12.002  14.102  19.767  0.4767  0.3046  0.1097
91060W        W91924  20.651   7.010  13.866 -0.0955 -0.2011  0.5179
91061W        W91925  24.151  12.071   8.440  0.0408 -0.0630  0.0016
91062W        W91926   3.884  23.743  28.994  0.3077  0.0059 -0.2693
91063W        W91927   9.118  26.309   0.199 -0.2461 -0.0704  0.4588
91064W        W91928  14.948  28.392   6.353  0.1886  0.1441 -0.0915
91065W        W91929   2.165   4.160   3.318  0.0714 -0.3121  0.0819
91066W        W91930  16.145  19.063  16.039 -0.2008  0.3252  0.1899
91067W        W91931   4.866  11.279  24.581  0.0689  0.0102 -0.1082
91068W        W91932  27.319   7.555  22.566  0.4891 -0.4754  0.0847
91069W        W91933  14.255  26.081  16.776 -0.0071 -0.2446  0.0343
91070W        W91934   5.112   6.132   8.773 -0.0050  0.1057  0.3618
91071W        W91935  14.637   6.963   4.345 -0.0982  0.1875 -0.1408
91072W        W91936   2.768   4.965   4.053  0.2202  0.0095 -0.1091
91073W        W91937  10.896   5.740  17.568 -0.0988 -0.2582  0.1049
91074W        W91938  24.533  14.909  16.861 -0.0142 -0.2121 -0.0074
91075W        W91939  23.878   7.814  12.363 -0.0192  0.0745  0.1187
91076W        W91940  16.325  12.644  15.774  0.1422 -0.3687 -0.1165
91077W        W91941   8.251  11.306  12.312 -0.1425 -0.0537 -0.1056
91078W        W91942   5.846  24.265  15.448  0.0093 -0.2909 -0.1599
91079W        W91943  26.192  14.005  24.348 -0.0710  0.2040  0.1689
91080W        W91944  18.497  13.222   6.902  0.3214  0.1265  0.0876
91081W        W91945  12.390  21.496  13.145  0.1334 -0.1612 -0.0581
91082W        W91946   1.874   5.886   6.555  0.0172  0.0719  0.0292
91083W        W91947   7.441   2.776  13.902 -0.0205  0.2038  0.1540
91084W        W91948   2.039  15.300  20.714 -0.1179  0.2550 -0.0812
91085W        W91949  21.341  20.664   6.738  0.1071  0.0962 -0.2601
91086W        W91950  27.269  12.592  14.850  0.2012 -0.0392  0.0460
91087W        W91951  14.690   6.294  17.948  0.0194 -0.4008 -0.0588
91088W        W91952  10.910  28.428  26.860 -0.2633  0.3220  0.0089
91089W        W91953   8.997  25.705   4.960  0.0833 -0.2004 -0.2177
91090W        W91954  13.955  25.517  28.924 -0.2248 -0.2610  0.0183
91091W        W91955  24.374  10.539  24.607  0.3233 -0.2339  0.3262
91092W        W91956  18.859  28.112  16.717 -0.3446  0.1900 -0.2244
91093W        W91957  19.006  10.201  27.958  0.2085 -0.2021  0.2170
91094W        W91958  10.493  16.705   7.121 -0.2948 -0.2196 -0.0819
91095W        W91959  12.195  16.343  16.629 -0.0449 -0.0685 -0.0809
91096W        W91960   6.099  19.797   8.417  0.1336 -0.1504  0.1449
91097W        W91961  14.369  26.398  17.255  0.2312  0.1548 -0.0477
91098W        W91962  12.968  15.927   2.560 -0.3967 -0.0008 -0.0193
91099W        W91963  26.614   5.279   7.978 -0.1350  0.0272 -0.0387
91100W        W91964   1.970  15.569  27.052 -0.0287 -0.0109 -0.1249
91101W        W91965  28.341   1.620   0.679 -0.0735  0.1323 -0.1447
91102W        W91966   6.066  12.300  13.707 -0.0760 -0.3371 -0.1908
91103W        W91967  10.653   9.465  22.399 -0.1088 -0.2760 -0.3158
91104W        W91968  11.749  14.380  14.136  0.1780 -0.0197  0.4037
91105W        W91969   4.364   1.068   4.368  0.0595 -0.1967 -0.1957
91106W        W91970   4.768  10.425   6.674 -0.0428 -0.1900 -0.2306
91107W        W91971  20.451  14.775  15.807  0.1120  0.1063  0.0626
91108W        W91972  15.178   7.432   3.487  0.0227 -0.0530 -0.2267
91109W        W91973   9.735  11.371   7.503  0.0886  0.1538 -0.0965
91110W        W91974  16.939  21.502   7.199  0.2114  0.1385 -0.0732
91111W        W91975   4.294   6.852  13.286 -0.1521  0.1316  0.0291
91112W        W91976  11.545   9.905  17.388  0.0698  0.2948  0.1582
91113W        W91977  26.033  17.053  16.237  0.0427 -0.5061  0.0027
91114W        W91978   8.178  25.775   7.948 -0.0160  0.0643 -0.1602
91115W        W91979  25.083  17.194  16.686  0.0013  0.0397  0.0644
91116W        W91980  25.168  22.500  12.994  0.3608 -0.2740  0.1732
91117W        W91981  22.626  18.041   4.235  0.0486  0.2501  0.1867
91118W        W91982  24.082  14.309  17.606  0.2046  0.0259 -0.1882
91119W        W91983   5.188  28.288  10.398 -0.1485  0.1397  0.2422
91120W        W91984   6.753  26.792  25.349 -0.1714  0.0052 -0.2995
91121W        W91985  16.486   2.163   8.060 -0.2394  0.1090 -0.1922
91122W        W91986  17.519  16.823   0.745  0.1724  0.4863 -0.1174
91123W        W91987   2.781   4.295  21.855 -0.1913  0.0128 -0.0684
91124W        W91988  18.497   6.554   3.809  0.1623  0.0217  0.1098
91125W        W91989  16.851  14.777  12.529 -0.4211 -0.1743 -0.2928
91126W        W91990  22.393  16.749   4.027 -0.1228  0.0194 -0.0736
91127W        W91991  12.310  23.502  14.273 -0.0229 -0.0245 -0.0491
91128W        W91992   1.754  17.142  15.844  0.1375  0.0147 -0.0966
91129W        W91993   5.076   3.918   6.450  0.1552 -0.0852  0.1179
91130W        W91994  15.229   8.240  22.182  0.0305 -0.1060 -0.2934
91131W        W91995   7.570  14.079  28.450 -0.0153  0.0642 -0.3077
91132W        W91996  20.656   2.346  13.809  0.0124 -0.1031  0.1944
91133W        W91997  20.861  13.872  27.028  0.0976  0.2016  0.1212
91134W        W91998   3.573  19.446  26.151  0.0975 -0.1263  0.3004
91135W        W91999  11.953  26.029   9.252  0.0873  0.0809  0.3245
91136W        W92000  19.000  10.983  16.540  0.1574  0.1726  0.0023
91137W        W92001   5.438  11.157  16.333  0.0422 -0.3288  0.0269
91138W        W92002  18.268  11.496  26.942  0.0257  0.0206 -0.1401
91139W        W92003   2.832  12.658  17.873  0.0128  0.2237 -0.2070
91140W        W92004   8.836  12.496   4.042  0.1801  0.0603 -0.0096
91141W        W92005  26.031  14.301  11.754 -0.1666 -0.1082 -0.0702
91142W        W92006   5.893  10.736  18.985 -0.2763 -0.0646 -0.3194
91143W        W92007   3.472   0.507   2.084 -0.0654 -0.2852  0.3044
91144W        W92008  21.412  16.233   9.544 -0.2356 -0.2145  0.0070
91145W        W92009  22.195  12.575  12.537 -0.0764  0.2976 -0.1976
91146W        W92010  24.130  13.323   9.667  0.0787  0.2179  0.0402
91147W        W92011   1.969  23.918  11.647 -0.1490  0.2662 -0.0583
91148W        W92012   5.893   0.864  13.378 -0.1555  0.0064  0.0357
91149W        W92013  21.138  23.479   2.456  0.1208 -0.2676 -0.0732
91150W        W92014  25.541  21.828   9.032 -0.0406 -0.0953  0.0702
91151W        W92015   5.984   8.432  29.134  0.1848 -0.3339  0.0562
91152W        W92016  17.792  20.915  14.375  0.0977 -0.1732 -0.5831
91153W        W92017  13.853   9.746   0.463  0.0671  0.1244  0.0778
91154W        W92018  19.761  13.846  23.813 -0.1575 -0.2884  0.0437
91155W        W92019  17.284  26.310  23.829 -0.0070 -0.2407 -0.1127
91156W        W92020  12.298  11.701  11.557 -0.3299  0.3011  0.2195
91157W        W92021   9.650  20.093   9.227  0.0584 -0.0684  0.1261
91158W        W92022   7.341  25.077  18.882  0.0014 -0.2241 -0.2552
91159W        W92023  23.465  13.806  15.535 -0.1384  0.1054  0.0160
91160W        W92024  13.143  13.671  12.081  0.3571 -0.3497  0.0189
91161W        W92025  11.880  11.651  25.590  0.0314 -0.0093  0.0206
91162W        W92026  27.415   2.935   8.627 -0.1159  0.1632  0.2957
91163W        W92027  13.871  18.891   9.894  0.1111 -0.0544  0.1011
91164W        W92028   2.291   0.226  25.183  0.2603 -0.0441  0.0112
91165W        W92029  12.642   3.945  12.593 -0.0885  0.0544 -0.0749
91166W        W92030   7.396   6.937  10.319  0.0289  0.1770  0.1924
91167W        W92031  11.724   0.129   5.019 -0.1774 -0.2310 -0.4079
91168W        W92032  21.979  18.665  18.902  0.3117 -0.1816 -0.1140
91169W        W92033  19.956  14.154   3.192 -0.0729  0.0043  0.1476
91170W        W92034  18.460  18.101  24.199 -0.2323  0.0635 -0.2771
91171W        W92035  28.769  21.030  29.004 -0.1254 -0.1201  0.1497
91172W        W92036  15.404  17.503   2.798 -0.1231 -0.0125 -0.0591
91173W        W92037  22.661   2.576   3.099  0.1101  0.1242  0.0785
91174W        W92038  17.183  19.460  19.361  0.1972 -0.1481 -0.0528
91175W        W92039  13.677  22.464   4.427  0.2590  0.1691 -0.1998
91176W        W92040  20.369  13.463  12.965  0.0009 -0.0148 -0.0033
91177W        W92041  18.588   5.383   8.231  0.1980  0.0809 -0.0214
91178W        W92042  25.969   6.077   1.913  0.2475 -0.1003 -0.1261
91179W        W92043  20.762  27.637  10.658  0.1477  0.1996  0.1314
91180W        W92044   2.834   9.718  27.438  0.0879 -0.2862 -0.0672
91181W        W92045  12.474   0.121   3.630 -0.1403  0.2224 -0.4302
91182W        W92046  13.134  20.590  18.757  0.2031  0.2936  0.1329
91183W        W92047  12.820  13.436  27.860  0.1521  0.0753  0.1559
91184W        W92048  14.405  26.233   2.302  0.2225  0.0293  0.2401
91185W        W92049  10.433  22.824  17.310  0.0829 -0.1698  0.0629
91186W        W92050  17.169  11.192  13.806 -0.1463  0.2310  0.0841
91187W        W92051  13.024  27.907  15.285  0.0145 -0.2747  0.1428
91188W        W92052  12.696  17.814  16.820 -0.1442  0.2078 -0.3628
91189W        W92053  12.684  24.708  27.093  0.1005  0.2840 -0.3397
91190W        W92054  17.411  28.626  13.076  0.0018  0.2538  0.1247
91191W        W92055   2.070  15.851  19.525  0.0265 -0.0420  0.2549
91192W        W92056   5.246  18.363  20.504 -0.4454  0.0136  0.1338
91193W        W92057  15.757  25.909  18.063 -0.2215 -0.2029 -0.3124
91194W        W92058   7.973   9.329  15.861 -0.1453 -0.2056  0.0808
91195W        W92059   8.620  26.959  19.300  0.0804  0.1310 -0.1731
91196W        W92060  18.131  15.394  17.184 -0.1945  0.0116  0.1605
91197W        W92061   7.599  22.066   5.202  0.2394  0.0843 -0.0553
91198W        W92062  27.161  17.251  24.641 -0.0952 -0.0922 -0.3579
91199W        W92063  18.418   0.789  12.468  0.0458 -0.0922 -0.0733
91200W        W92064   9.135  25.517   9.279  0.1080  0.0202 -0.2517
91201W        W92065  12.380  17.958   6.147  0.0429  0.0447 -0.0090
91202W        W92066   7.634  13.874  25.657 -0.0279 -0.0453 -0.1582
91203W        W92067   8.352   0.904  15.912  0.1045  0.2583 -0.0992
91204W        W92068  27.109  27.233   7.467  0.1132  0.0165  0.2584
91205W        W92069  24.270  12.177  20.748  0.0271  0.2652  0.0456
91206W        W92070  26.985   9.021  16.477  0.1187 -0.0424  0.0080
91207W        W92071   0.296  25.580  28.047  0.1904  0.0773  0.1651
91208W        W92072  11.344  28.536  17.986  0.1508 -0.2599  0.1058
91209W        W92073  22.128  14.151  21.806  0.1707 -0.2551  0.1731
91210W        W92074  20.996   8.657  23.992 -0.1504  0.2088 -0.0130
91211W        W92075  17.981  16.655  20.914  0.0716 -0.0757  0.2881
91212W        W92076  12.898  23.930  21.846  0.0820  0.0385 -0.0343
91213W        W92077  14.381  18.364   0.598 -0.1848 -0.2954  0.0892
91214W        W92078  11.868  24.957  17.371  0.2162  0.0736 -0.1084
91215W        W92079  25.645   8.165  21.716 -0.2789  0.0723 -0.1167
91216W        W92080   7.446  12.851   1.114 -0.2269  0.4532  0.1087
91217W        W92081  28.271  24.832   1.445  0.0604  0.1317 -0.0422
91218W        W92082  12.478  14.403  16.116 -0.2410  0.0296  0.1435
91219W        W92083  10.204   7.206  19.454 -0.1206  0.2479  0.1861
91220W        W92084  13.678   8.460   2.477 -0.0187 -0.1708  0.2510
91221W        W92085  12.597   8.919  15.619  0.0675 -0.1379  0.1660
91222W        W92086  22.842   9.546  13.290  0.1131  0.0704  0.0563
91223W        W92087  23.011  23.907  15.915 -0.0700  0.0553  0.5058
91224W        W92088  18.587  24.138  11.485 -0.0206 -0.0487  0.0723
91225W        W92089  17.143  15.298  18.581  0.0003  0.0161 -0.0748
91226W        W92090  23.044  13.215  10.364 -0.0170 -0.0071 -0.3891
91227W        W92091  22.005  15.026  14.428  0.1766 -0.1420  0.1479
91228W        W92092  24.972  13.489  19.907  0.0507 -0.2819 -0.0705
91229W        W92093   8.788  25.049  24.295  0.0360 -0.2765  0.1375
91230W        W92094   6.685  15.984  27.425 -0.1593 -0.2688  0.0552
91231W        W92095   5.192  13.685  10.028 -0.0797 -0.2505 -0.0577
91232W        W92096  18.174   7.839   0.874 -0.2811  0.1755 -0.2776
91233W        W92097  17.193  16.232   6.682  0.0512  0.1092 -0.0091
91234W        W92098  23.768   0.560   8.193  0.0735  0.0759  0.0748
91235W        W92099   5.960  14.372  13.714 -0.0564 -0.0275  0.1420
91236W        W92100  21.436  21.878   5.203  0.1068 -0.1098 -0.0393
91237W        W92101   7.560  24.178  12.998  0.2507 -0.1093 -0.1410
91238W        W92102   5.563  21.518  24.282  0.3653  0.2625  0.0360
91239W        W92103   6.226   9.980  20.988  0.1563 -0.2904 -0.2292
91240W        W92104   3.558  17.263  12.501  0.1613  0.2854 -0.3469
91241W        W92105  23.099  11.595  17.986  0.2088 -0.2573  0.0545
91242W        W92106  13.080  17.696  10.827 -0.0731  0.0060 -0.0162
91243W        W92107  11.778  21.134  11.834 -0.1539 -0.1219 -0.1827
91244W        W92108  24.693  17.587  12.515 -0.2320 -0.0478 -0.0002
91245W        W92109   8.016   0.540  11.456 -0.0571 -0.1653 -0.0899
91246W        W92110  10.933  14.886  13.294 -0.0966 -0.1103  0.1259
91247W        W92111  27.633  18.902  15.205  0.2515 -0.0342 -0.4150
91248W        W92112  25.458  14.537   2.463  0.0020 -0.0020 -0.1242
91249W        W92113   8.819  25.715  12.659  0.0001  0.2367 -0.2383
91250W        W92114   6.918  18.483  18.944 -0.0883  0.0845 -0.0155
91251W        W92115  11.520  23.510  27.321 -0.1810  0.0527 -0.3261
91252W        W92116   8.866   2.645  27.560 -0.1404 -0.2054 -0.0643
91253W        W92117  23.749   8.476  16.055 -0.3281 -0.1117 -0.1199
91254W        W92118   3.773  10.154   0.708 -0.1140 -0.2107  0.1033
91255W        W92119   6.515  23.444   9.403  0.0290 -0.0608  0.2107
91256W        W92120  26.639  24.294  17.023 -0.1814  0.0246  0.1294
91257W        W92121  16.619  23.969  18.226  0.1241 -0.2793  0.0900
91258W        W92122  11.993  16.699   0.098 -0.1534 -0.3199 -0.2710
91259W        W92123  18.770   7.974   3.841 -0.0279 -0.1953 -0.0388
91260W        W92124  17.444  12.922  15.365 -0.1438  0.0728 -0.2049
91261W        W92125  14.503  21.692  17.854 -0.0542  0.0262  0.1466
91262W        W92126   5.400  26.022  12.722 -0.0441 -0.0476  0.0084
91263W        W92127  16.523   7.457  24.274 -0.0374  0.0398 -0.0580
91264W        W92128  25.831  11.605  11.089  0.1558  0.0289  0.1098
91265W        W92129  11.451  18.392  18.656  0.2942 -0.1181 -0.1891
91266W        W92130   8.225  23.928  24.226  0.0217  0.0787  0.2239
91267W        W92131  11.432  23.020   5.191 -0.1195 -0.3425  0.0424
91268W        W92132  15.750   6.101  17.227  0.0820  0.1046 -0.2105
91269W        W92133   1.214   0.097  10.611 -0.0187  0.1847 -0.1303
91270W        W92134   6.013  22.445  10.181 -0.2236  0.1892 -0.0872
91271W        W92135   2.842  10.411  17.169 -0.0467 -0.2656 -0.1865
91272W        W92136  18.279   7.529  11.728  0.0947  0.1916 -0.0636
91273W        W92137  17.610  13.612   9.159  0.2492  0.0508  0.1052
91274W        W92138  15.625   7.821  10.616  0.1145  0.0626  0.3729
91275W        W92139  25.779  20.305   9.720  0.1746  0.2607 -0.2135
91276W        W92140   0.176  23.099  16.999 -0.1450 -0.1344  0.0257
91277W        W92141  24.198  14.987   6.823 -0.1637  0.0736 -0.1250
91278W        W92142   3.568  15.253  26.497 -0.1633  0.0433  0.1245
91279W        W92143  27.185  22.626  16.965  0.0585  0.0248  0.2854
91280W        W92144  10.682  28.098   1.959 -0.0294 -0.0265  0.4034
91281W        W92145  20.775  24.617   9.885  0.1363 -0.0884  0.3448
91282W        W92146  10.188  14.219   7.651  0.1416 -0.0027 -0.0045
91283W        W92147   9.555  15.715  16.473  0.0390  0.0116 -0.2247
91284W        W92148  13.308   7.333  12.776  0.2238  0.0261  0.2209
91285W        W92149  23.385  21.919  18.307 -0.3075 -0.0088  0.0461
91286W        W92150  22.357  20.464  27.406  0.0926  0.4406 -0.0180
91287W        W92151  11.711  19.825  19.441  0.2043 -0.1845 -0.0029
91288W        W92152  15.377  17.802  13.062  0.0191  0.0819  0.2522
91289W        W92153  12.387  13.042  17.243 -0.0866  0.0073  0.1454
91290W        W92154  13.892   3.858  19.221 -0.0484 -0.1567  0.2264
91291W        W92155   7.948   1.510   5.701  0.0528 -0.0696  0.1866
91292W        W92156   5.790  21.204   0.304  0.1549  0.0434  0.3292
91293W        W92157  15.444  14.509   8.723  0.1328 -0.1016 -0.1003
91294W        W92158  24.072   2.971  17.344 -0.1423  0.3861 -0.0757
91295W        W92159  21.887  17.044  28.710 -0.0273  0.1844  0.0719
91296W        W92160   5.862  19.425   5.690 -0.1578 -0.2285  0.2580
91297W        W92161  17.506  27.307  21.256  0.3599  0.1716 -0.1593
91298W        W92162  16.870  16.631  10.606  0.0378  0.1416  0.0946
91299W        W92163  21.518  11.942   4.580 -0.0533 -0.0687 -0.1410
91300W        W92164  12.473  13.498  22.231  0.0064 -0.0937 -0.1937
91301W        W92165  27.539  19.473   0.753  0.1182 -0.0064  0.1775
91302W        W92166   3.384  25.046  14.543 -0.0072  0.2117  0.3357
91303W        W92167   5.525  11.190  28.899 -0.0700 -0.2906  0.1070
91304W        W92168   3.540   9.958  13.222 -0.1595 -0.4691 -0.1112
91305W        W92169  17.158  13.360  20.660 -0.0765 -0.1603  0.0797
91306W        W92170   1.724   6.063  25.532  0.0913 -0.1878 -0.0308
91307W        W92171  28.717  18.206  21.462  0.0093  0.0505  0.1476
91308W        W92172  12.901  18.056  28.138  0.0662  0.1939  0.1891
91309W        W92173   4.510  25.388  10.835  0.0738  0.1571  0.0356
91310W        W92174   4.388  18.481   5.333 -0.1383  0.1061  0.1162
91311W        W92175  12.072   0.657  29.023 -0.3442 -0.0111  0.1644
91312W        W92176  21.146   3.137  12.555  0.2439 -0.1629 -0.0449
91313W        W92177   8.345  22.976  10.347 -0.1004 -0.2968  0.0616
91314W        W92178   3.635  15.509  12.577 -0.1096  0.0209  0.1490
91315W        W92179  18.272  17.851   0.065  0.0327  0.1949 -0.3661
91316W        W92180  11.594   9.555  26.010 -0.1001 -0.1130 -0.0676
91317W        W92181  12.674   9.643  21.248 -0.0142 -0.0384  0.2716
91318W        W92182  19.131  20.106  15.640 -0.0441 -0.0641  0.0453
91319W        W92183  22.491   9.930   6.382  0.0677 -0.2943 -0.0654
91320W        W92184   2.532   5.278  23.562  0.0155 -0.1297  0.0363
91321W        W92185  10.496  12.484  17.523 -0.1716  0.1739  0.2799
91322W        W92186  26.263  20.852  20.630  0.1070 -0.0685 -0.2735
91323W        W92187   2.275  25.462  11.054 -0.0228 -0.2606 -0.0446
91324W        W92188   9.018  22.459  11.606 -0.2394  0.1205  0.2765
91325W        W92189  25.319   2.517  15.793  0.2624  0.0681  0.4393
91326W        W92190  17.854   1.193  17.987 -0.0952 -0.1096  0.1538
91327W        W92191   4.131  11.383  10.377 -0.0927 -0.1045 -0.1852
91328W        W92192  19.875  11.565  11.590  0.0914  0.3386 -0.0852
91329W        W92193   9.828   3.463  18.084  0.0390 -0.2254  0.1598
91330W        W92194  11.099  10.527  17.881  0.0015  0.2171 -0.0863
91331W        W92195   1.230  24.222  12.400  0.2879 -0.1823 -0.3455
91332W        W92196   8.339   1.947  10.935  0.2047  0.1386  0.2806
91333W        W92197   9.411  13.558   2.160  0.1225  0.1054 -0.0314
91334W        W92198  12.773  12.211  13.152  0.0019 -0.0523 -0.1258
91335W        W92199   5.081  15.352  16.326 -0.2436  0.0703 -0.1396
91336W        W92200  17.845   2.096  15.210  0.0068 -0.2554 -0.0181
91337W        W92201   7.350  24.940   2.525  0.1016 -0.2263 -0.0296
91338W        W92202  15.640  27.671   1.059  0.1442 -0.0904  0.0123
91339W        W92203  12.426  13.136   5.791 -0.1648  0.0460  0.1574
91340W        W92204  19.871   7.110  15.445 -0.1973 -0.1960 -0.0266
91341W        W92205  17.506   8.729  19.414 -0.0674 -0.1532  0.0562
91342W        W92206  21.607  11.540  16.276 -0.0373 -0.0888 -0.1305
91343W        W92207  10.969   6.044   6.771  0.1700 -0.1885  0.1958
91344W        W92208  19.250  15.732  28.847 -0.3133  0.0227 -0.0903
91345W        W92209   6.770  18.498  17.450  0.0416 -0.0047 -0.0989
91346W        W92210   0.390  13.319   9.255 -0.1270 -0.1823 -0.0099
91347W        W92211   0.737   4.327  21.063 -0.1287  0.2551 -0.3232
91348W        W92212  27.671  19.499  26.206  0.1961 -0.2765 -0.0268
91349W        W92213  10.860  13.039  21.249 -0.0628  0.0110 -0.2230
91350W        W92214  20.818  18.246  20.456 -0.0519 -0.1748 -0.1996
91351W        W92215  11.016  12.937   1.738 -0.1213 -0.1637 -0.0157
91352W        W92216  20.264  26.197  26.392  0.0086  0.0308 -0.0405
91353W        W92217  20.908  28.549  18.251 -0.1473  0.0658  0.0340
91354W        W92218  12.594  10.833  23.893  0.1620 -0.0009 -0.0926
91355W        W92219   3.251   6.405  22.306  0.1237 -0.2590  0.1712
91356W        W92220  16.389  14.451   0.397 -0.1218  0.1440  0.2111
91357W        W92221  22.725  18.641   4.493 -0.0400 -0.0720  0.2188
91358W        W92222  10.402   2.308   8.239  0.0100 -0.2002 -0.1982
91359W        W92223  10.647  17.978  14.441  0.0213  0.0366  0.0703
91360W        W92224  14.572  27.583  17.643 -0.0817 -0.1152  0.0075
91361W        W92225  14.838  18.416   0.297 -0.0240  0.0383  0.0969
91362W        W92226  22.609  15.049   8.209  0.0540 -0.0311 -0.0423
91363W        W92227   6.742  24.231  27.149 -0.0928  0.1897 -0.3908
91364W        W92228   3.535   8.113  18.080 -0.2843  0.1328  0.1756
91365W        W92229  21.630  19.572  28.438 -0.1150 -0.0959 -0.0148
91366W        W92230  16.031   9.123   8.450 -0.0808  0.0537  0.3169
91367W        W92231  15.980  18.202  25.579  0.1520 -0.0532 -0.1387
91368W        W92232  12.310   3.772  26.809 -0.0984  0.1163  0.3007
91369W        W92233  22.995  15.984  14.830 -0.4233 -0.1294 -0.1741
91370W        W92234  12.431   6.136  26.022 -0.0996 -0.0681 -0.0938
91371W        W92235   8.654  23.470   9.375  0.1564  0.1939  0.0372
91372W        W92236  29.025   7.438  25.680  0.1473  0.0419  0.2074
91373W        W92237  11.221  15.218  12.939  0.2979 -0.0676 -0.2816
91374W        W92238   8.893   7.148  22.189  0.1000  0.0010  0.0476
91375W        W92239  12.552   8.425   2.539 -0.0271 -0.0386 -0.1793
91376W        W92240   7.925  13.708  14.332 -0.0295 -0.0694  0.2230
91377W        W92241   8.135  26.055   9.990 -0.0485 -0.2130  0.1705
91378W        W92242  15.665  17.145  18.191  0.0108  0.3539 -0.1497
91379W        W92243  12.867  19.232  19.346  0.0126  0.0012  0.0262
91380W        W92244   3.247  12.551  17.604 -0.0383 -0.0285 -0.3299
91381W        W92245  12.130   8.634  13.788  0.6814 -0.3309 -0.2172
91382W        W92246  25.930   1.349  24.083  0.1580 -0.0420  0.0105
91383W        W92247   0.127  17.192  11.671 -0.5059 -0.3017 -0.1285
91384W        W92248  21.118  28.584  20.667  0.1904 -0.0013  0.2334
91385W        W92249  25.233  26.258   7.613  0.1035 -0.1910 -0.3594
91386W        W92250   3.910   2.766  22.827 -0.1117  0.2050 -0.1620
91387W        W92251  10.543  11.075  10.478 -0.0602 -0.0569  0.0839
91388W        W92252  14.902   1.741  16.171 -0.4028  0.0085 -0.1743
91389W        W92253   8.677  10.132  23.782  0.1823 -0.0909 -0.1011
91390W        W92254  12.421  23.199  20.036 -0.1634  0.0603  0.1316
91391W        W92255   0.248  14.379   7.352 -0.0140  0.0390  0.0098
91392W        W92256  10.669  28.617  11.962  0.2258 -0.1254  0.2777
91393W        W92257  10.727  16.311  27.684  0.2648 -0.0712  0.0415
91394W        W92258  12.722   5.752   5.858  0.1506 -0.3596 -0.0568
91395W        W92259  16.406  18.480  12.354 -0.0905 -0.2792 -0.2141
91396W        W92260   9.293   9.804  22.785  0.1252 -0.1951 -0.0155
91397W        W92261  18.990   9.261   7.944 -0.0197  0.2026  0.1031
91398W        W92262  22.747  15.396  25.014 -0.1574 -0.2927  0.0644
91399W        W92263  27.369  10.370  13.092  0.1646 -0.1200  0.0456
91400W        W92264  12.158  10.117   9.778  0.1480 -0.0185  0.1541
91401W        W92265   7.314  16.434   4.172 -0.1653 -0.0515  0.0638
91402W        W92266   6.673  18.868  28.135  0.1253  0.2064  0.1095
91403W        W92267  25.416  25.082  20.416  0.0263 -0.1168 -0.2890
91404W        W92268  14.033  23.782   4.136  0.0474  0.2403 -0.1228
91405W        W92269  11.579  17.752  13.562 -0.1602  0.3030 -0.1341
91406W        W92270  12.427   4.466  22.761  0.3793 -0.0512  0.2843
91407W        W92271   1.224  24.965  15.651 -0.0435  0.1445 -0.2742
91408W        W92272  17.608  14.550  20.653 -0.0848 -0.2962 -0.1599
91409W        W92273  14.713  24.679   7.218 -0.3115 -0.0803  0.1644
91410W        W92274   2.610   7.388  12.553  0.0311 -0.2603  0.2409
91411W        W92275   1.784  13.859  18.545 -0.0949 -0.0155 -0.0211
91412W        W92276   3.542   5.917  14.514 -0.1727 -0.0865 -0.1147
91413W        W92277   2.872  13.518  16.876  0.0168 -0.0464 -0.0104
91414W        W92278   7.356   3.062   0.141  0.2635  0.1334 -0.1934
91415W        W92279  21.222   6.136  19.037 -0.3374  0.0495  0.0925
91416W        W92280   8.898   4.446   3.337 -0.0181  0.2300 -0.0831
91417W        W92281  21.287   1.947  25.657  0.1530  0.0886  0.1263
91418W        W92282  17.480  24.091  14.268 -0.0471  0.0314 -0.1010
91419W        W92283   4.740  10.048  19.684 -0.0232  0.0446  0.2637
91420W        W92284  18.542  25.115  10.573 -0.0797 -0.0217  0.1385
91421W        W92285  23.825  19.198  29.064  0.0567  0.1335 -0.0583
91422W        W92286   6.091  13.779  20.166 -0.0714  0.1640 -0.2216
91423W        W92287  21.801  14.961   7.939 -0.1848  0.1439 -0.1266
91424W        W92288  21.985  21.475   2.832  0.0001 -0.0719 -0.4252
91425W        W92289  11.113   8.226  25.331 -0.1258 -0.1178  0.0055
91426W        W92290  20.298  14.422  12.379 -0.1881  0.1142  0.0357
91427W        W92291   6.621  18.319   4.088  0.0232 -0.1019  0.2180
91428W        W92292   6.033  15.886  20.009 -0.0839  0.0513  0.3087
91429W        W92293   2.100   7.874  20.857  0.2130 -0.0801  0.1908
91430W        W92294   1.622   1.805  27.964  0.0619  0.1191 -0.0844
91431W        W92295   7.759  12.405   6.672 -0.0178  0.0124 -0.3257
91432W        W92296   6.073  27.899   7.807  0.0357  0.1417  0.0321
91433W        W92297  24.257   9.389   0.044 -0.2182 -0.2649  0.2644
91434W        W92298  19.874  15.910  17.850 -0.0118 -0.2634  0.1462
91435W        W92299  13.155   5.720  13.473 -0.3524 -0.2093 -0.0112
91436W        W92300  11.589  16.393  13.714 -0.2257 -0.0799  0.1485
91437W        W92301   5.886  11.409  13.620 -0.0448  0.0286 -0.1248
91438W        W92302   6.531   7.960  20.816 -0.0391  0.0037  0.1481
91439W        W92303  21.116  15.276  17.738  0.2681  0.0292 -0.4092
91440W        W92304   7.465  22.580  12.459 -0.2574  0.1950  0.1130
91441W        W92305  20.891  16.533   6.976  0.0081  0.0508 -0.3217
91442W        W92306   6.665  12.274  16.090 -0.0964  0.1193  0.0595
91443W        W92307  12.782  28.772  22.125 -0.2141  0.3207  0.1946
91444W        W92308  27.700   3.228  11.866  0.0536 -0.1416  0.1435
91445W        W92309  13.924  20.563  12.814 -0.1348  0.1026  0.0769
91446W        W92310  23.761   2.418  15.168 -0.0197 -0.0109  0.0383
91447W        W92311  15.286  17.126  12.583  0.1611 -0.0933  0.0821
91448W        W92312   5.260   9.005  18.587  0.0616  0.2354 -0.0051
91449W        W92313  28.748   8.479   6.796  0.0127 -0.0869  0.2131
91450W        W92314  15.068   4.378   4.558 -0.1257  0.0191 -0.0091
91451W        W92315  11.686   1.827  18.891  0.0561 -0.0743 -0.3651
91452W        W92316  22.141   5.504  22.268 -0.1675 -0.4347 -0.1522
91453W        W92317   1.082   0.701  15.261  0.2198  0.0959 -0.0589
91454W        W92318   0.256   9.499   2.407 -0.3297  0.0404  0.0193
91455W        W92319  15.427  13.284  19.778 -0.0961 -0.2382  0.0391
91456W        W92320   6.720   4.707  24.460 -0.0942  0.1687  0.1531
91457W        W92321  10.622   7.232   3.495  0.1425  0.2169  0.0800
91458W        W92322   9.834  23.629  25.416 -0.0909 -0.0753  0.2202
91459W        W92323  17.661   7.791  13.637  0.3136 -0.1527 -0.1248
91460W        W92324  13.939  15.095   9.175 -0.2624 -0.3206 -0.3799
91461W        W92325  17.687   1.523  16.901  0.0843 -0.2178  0.1587
91462W        W92326  12.410   0.122  10.657  0.2076  0.2471  0.0493
91463W        W92327  21.816  16.455   5.839 -0.3277  0.0582 -0.1075
91464W        W92328  19.246   8.008   4.602 -0.1168 -0.4226 -0.0064
91465W        W92329  17.293   7.812   4.228 -0.0105  0.0293 -0.0474
91466W        W92330  24.281  21.002  25.148 -0.2193  0.2524  0.1168
91467W        W92331  22.330  11.906   6.546  0.0917 -0.1372 -0.0110
91468W        W92332  18.077  11.913  28.299 -0.0117  0.0840 -0.1794
91469W        W92333   6.127   3.346  11.415 -0.1524  0.1100  0.1808
91470W        W92334   2.821  13.127   8.920 -0.1586  0.3118 -0.0140
91471W        W92335  21.292  12.054  22.876  0.1435  0.2418 -0.0253
91472W        W92336  24.246   4.013  10.545  0.2367  0.1854  0.1843
91473W        W92337  12.053  11.742  10.653  0.0589  0.0517 -0.1010
91474W        W92338   6.653  11.984  27.914 -0.1873  0.1348 -0.0423
91475W        W92339  18.410  19.151   8.099 -0.0627 -0.3578  0.2826
91476W        W92340   0.954  13.237   4.527  0.2487 -0.1302 -0.1706
91477W        W92341   9.697  16.386  18.740 -0.2367  0.1508 -0.3409
91478W        W92342   0.072  21.751  12.720 -0.3249  0.0960 -0.0187
91479W        W92343  25.248  18.327   7.558 -0.2470 -0.3122 -0.0162
91480W        W92344  15.353  10.576  13.484 -0.2871  0.0685  0.0799
91481W        W92345  17.227   9.906  15.229  0.1552 -0.0487  0.2230
91482W        W92346   3.544  20.394  26.593 -0.2276 -0.1827 -0.2049
91483W        W92347  12.032  19.223   0.094 -0.0338 -0.0202 -0.0282
91484W        W92348   9.609  17.274  16.475 -0.1096 -0.0204 -0.1610
91485W        W92349  15.713  13.896   0.466 -0.2870  0.1742 -0.0820
91486W        W92350   4.112   4.207  22.073  0.3890 -0.4323  0.0630
91487W        W92351  13.090   9.564   6.385 -0.1212 -0.0285  0.2650
91488W        W92352  12.704  22.399  25.375 -0.3084 -0.1362  0.1090
91489W        W92353   8.994  14.078   8.613 -0.2433 -0.2920 -0.2864
91490W        W92354   8.582  16.294  27.172  0.2470  0.0691  0.0015
91491W        W92355  15.556  18.187   9.657 -0.0296 -0.3634 -0.2035
91492W        W92356  17.128   8.836  24.314 -0.0643  0.2230 -0.0341
91493W        W92357  21.450   7.262  13.875 -0.0277 -0.1545 -0.2483
91494W        W92358   5.898  14.638  10.190  0.0386  0.0671 -0.0648
91495W        W92359  13.114  15.180  24.025 -0.1178  0.2884 -0.2002
91496W        W92360  16.144  10.219  17.901  0.0834  0.2594  0.0847
91497W        W92361  28.407  17.149  20.584 -0.1032  0.1406  0.1911
91498W        W92362   3.575   4.751  10.854 -0.1262  0.0178 -0.0665
91499W        W92363   0.206  13.744  21.124  0.0917 -0.2903 -0.0975
91500W        W92364  12.451  12.624  23.589  0.0688 -0.2523  0.0915
91501W        W92365  10.283   0.784  28.000 -0.2136  0.2194  0.0263
91502W        W92366  17.453   4.978   8.471  0.3538  0.0452  0.0007
91503W        W92367  13.608  24.063  10.893  0.2955 -0.2962 -0.0915
91504W        W92368  14.868  16.195   7.752  0.0639  0.1483 -0.3691
91505W        W92369   8.739   7.066   3.040  0.1721  0.0042 -0.0495
91506W        W92370  14.530  23.905  23.774  0.1854 -0.1879  0.1039
91507W        W92371  10.426  19.127  25.176  0.0673  0.2695 -0.0864
91508W        W92372  22.579  10.231  27.200 -0.0338 -0.0292  0.1385
91509W        W92373   4.391   0.495   6.247  0.1815  0.0241  0.2162
91510W        W92374  19.347  28.813  17.915  0.1808  0.1714 -0.4451
91511W        W92375  27.348  28.210   3.742 -0.3566  0.0601  0.0694
91512W        W92376  17.373  16.697  11.469  0.5262  0.1391  0.1177
91513W        W92377  13.004  21.522  16.037  0.1748  0.0803  0.1863
91514W        W92378  23.889  14.291  16.410  0.0269  0.4981  0.1296
91515W        W92379  10.479  26.455  26.625 -0.1964 -0.1485 -0.1404
91516W        W92380  21.116   2.722   4.782 -0.3224  0.2304 -0.0150
91517W        W92381  20.375  11.992  22.808  0.1784  0.1056 -0.2331
91518W        W92382  17.636  24.436   4.332  0.2882  0.1426 -0.0646
91519W        W92383   5.895  21.665  27.245  0.1095 -0.1306 -0.0611
91520W        W92384   1.813  26.100  17.155 -0.0033 -0.2160  0.0801
91521W        W92385  21.373   8.827   6.552 -0.0079 -0.0532  0.1794
91522W        W92386   7.801  11.467  11.381 -0.0255  0.1503 -0.3610
91523W        W92387  15.726   5.522   0.197  0.1551 -0.0937 -0.1469
91524W        W92388  11.008  18.184  17.904  0.0267 -0.4933 -0.0849
91525W        W92389  25.228   3.932  28.517  0.2934  0.0285  0.0747
91526W        W92390   5.426   6.409  27.182  0.4227 -0.3159 -0.0084
91527W        W92391  18.681   3.426  24.402 -0.1372  0.0333  0.0344
91528W        W92392   8.997  12.462   6.826  0.0881  0.1153 -0.4112
91529W        W92393   6.053  18.804  23.636  0.2627  0.2318  0.2910
91530W        W92394  15.712   9.366  13.620  0.1190  0.0207 -0.5050
91531W        W92395  19.898  20.914   3.029  0.1841  0.3414  0.0388
91532W        W92396  17.451   7.978  26.103  0.0915 -0.0837  0.2260
91533W        W92397   8.002   7.233   5.436  0.1086  0.0666  0.2493
91534W        W92398   6.190  25.705  23.156  0.0692 -0.1149  0.2445
91535W        W92399  15.022  12.744  14.006 -0.2075  0.1505 -0.0000
91536W        W92400   6.414  18.367  19.939  0.1546  0.0599 -0.1773
91537W        W92401  15.962   7.876  29.064 -0.1149 -0.0978  0.0680
91538W        W92402   2.418  24.090  28.199 -0.1193  0.3523 -0.0172
91539W        W92403  10.743   9.257  13.658  0.2307  0.0662 -0.4258
91540W        W92404   0.729  27.181  10.952  0.0045  0.1046 -0.1839
91541W        W92405   3.126   5.505  12.847 -0.0350 -0.0297  0.0416
91542W        W92406   9.274   5.219   3.376  0.0350  0.0174 -0.0338
91543W        W92407   2.084  27.843   7.367  0.0064  0.1862  0.3256
91544W        W92408  16.866  17.931   9.635  0.1586 -0.1364  0.0591
91545W        W92409   7.056  21.409  19.678  0.0182 -0.1111  0.3732
91546W        W92410  23.532  27.999  19.834  0.0737  0.0369  0.0134
91547W        W92411  14.727  23.590   6.769  0.1957  0.3015 -0.0662
91548W        W92412  11.979   3.034  12.802  0.0427 -0.0558  0.0452
91549W        W92413  12.768  11.269  15.910  0.0623  0.0664  0.0398
91550W        W92414  21.773  14.398  17.241 -0.0329 -0.1881 -0.0387
91551W        W92415   6.533  12.777  25.632 -0.1158  0.3556 -0.2549
91552W        W92416   9.110   6.304  15.983 -0.3120  0.1652  0.0516
91553W        W92417  23.148   8.156   3.649  0.2118  0.3305  0.1279
91554W        W92418  17.761  24.568  10.475  0.0143 -0.3519 -0.1370
91555W        W92419  11.612   7.767  28.945  0.1249 -0.2655 -0.0723
91556W        W92420   7.847  11.491  26.859  0.0571  0.2704 -0.0881
91557W        W92421  15.997   5.298  17.009  0.1934  0.1660  0.4148
91558W        W92422   1.660   0.168   7.578  0.1989 -0.0337 -0.2861
91559W        W92423  11.468  27.474  19.736  0.0097 -0.0291  0.2641
91560W        W92424   9.418   0.057  29.022 -0.2656  0.0395 -0.6607
91561W        W92425  12.705  26.959  16.046  0.1401 -0.1998  0.3344
91562W        W92426   6.612  10.147   7.479  0.3749  0.1149  0.0404
91563W        W92427  22.199  24.893  21.422 -0.3154 -0.0834 -0.1093
91564W        W92428  17.201  13.268  24.807 -0.1253  0.1649  0.2297
91565W        W92429   9.026   6.231   0.273  0.3428  0.0543 -0.1504
91566W        W92430  23.490   2.184  28.443  0.2152 -0.3675  0.0899
91567W        W92431  15.335  17.968   7.306 -0.1807 -0.0113  0.0535
91568W        W92432  16.870  12.553  29.129 -0.0029 -0.0446 -0.2511
91569W        W92433   0.108  26.611  20.111 -0.3262  0.0473  0.1342
91570W        W92434  27.115  11.360  10.484  0.1394  0.0566 -0.0524
91571W        W92435  12.961  22.973  20.322  0.1065 -0.0443 -0.0157
91572W        W92436   3.024  23.602  17.741  0.1321  0.0001  0.0716
91573W        W92437   5.815  14.106   4.131  0.0974  0.0431  0.0362
91574W        W92438  19.011  24.728  19.834  0.2651 -0.1508  0.0122
91575W        W92439   9.321   6.411  21.842 -0.0461  0.3540  0.0055
91576W        W92440   3.522   0.579   7.751  0.1409  0.2350 -0.1216
91577W        W92441  16.887   0.572  26.883  0.2291  0.0750  0.0875
91578W        W92442  26.369  12.330  10.551 -0.1943  0.0763 -0.1233
91579W        W92443  16.132  24.785   7.200 -0.2306  0.0011  0.1660
91580W        W92444   7.774   7.038  17.297  0.1343  0.2542 -0.2469
91581W        W92445   0.804   9.001  19.885  0.0751  0.0633  0.2655
91582W        W92446   3.450  17.997  11.141  0.0359 -0.0086  0.1299
91583W        W92447  10.626  11.953  18.396 -0.2249 -0.3843 -0.1955
91584W        W92448  25.870  14.558   6.871 -0.2628 -0.0200  0.2045
91585W        W92449  13.181  20.979  11.580  0.0927  0.0970 -0.4555
91586W        W92450   8.120  11.926  21.589 -0.1263  0.2503 -0.0130
91587W        W92451  13.381  18.869  16.044 -0.1450  0.1405  0.3224
91588W        W92452   6.973  14.128  21.378  0.1386  0.2024  0.1733
91589W        W92453  23.630  19.646   0.745 -0.1445  0.1847  0.0172
91590W        W92454   4.356  17.110  27.001  0.0317 -0.2309 -0.0765
91591W        W92455  21.268  13.571  24.559  0.0813  0.2048 -0.1579
91592W        W92456  28.913  14.981  29.041  0.2232 -0.0615  0.1249
91593W        W92457   0.673  22.844  16.327 -0.0848  0.1203 -0.1167
91594W        W92458  11.596  18.546   2.006 -0.1578 -0.1101  0.2133
91595W        W92459   0.835   6.190   3.099  0.0864  0.0323 -0.1162
91596W        W92460   9.152  13.007  17.539  0.1285 -0.2227  0.3623
91597W        W92461  14.732  12.275  25.385 -0.0200  0.1657  0.1444
91598W        W92462   8.086  19.314  11.181 -0.0623  0.0657  0.0477
91599W        W92463   4.991  20.512  12.766 -0.0800 -0.0020 -0.1101
91600W        W92464  20.591   2.975  14.036 -0.1211  0.1023 -0.3816
91601W        W92465  27.966  17.750  26.205 -0.1068  0.0139 -0.0034
91602W        W92466  11.800  12.661  16.886 -0.0987 -0.3972  0.0073
91603W        W92467  16.533  14.444  13.338  0.0836  0.1125 -0.0845
91604W        W92468  11.978  21.845  11.073  0.1385 -0.2133 -0.0373
91605W        W92469  27.157  24.374  21.874  0.1014  0.0320 -0.1992
91606W        W92470   6.890  22.517  23.739  0.3117 -0.1887  0.4058
91607W        W92471   8.676   7.704  11.413  0.0205 -0.1571  0.1161
91608W        W92472   7.956  22.220   5.974 -0.1480  0.0223 -0.0831
91609W        W92473  12.443  24.784  27.534  0.3542 -0.2625  0.2684
91610W        W92474  15.173  23.318   0.595 -0.1902  0.2820  0.0092
91611W        W92475  24.889  16.888  14.052 -0.1110  0.2068  0.2222
91612W        W92476   4.654  11.127  19.317  0.0488 -0.2195 -0.1229
91613W        W92477   5.164   8.027   0.678  0.0645  0.0121  0.0092
91614W        W92478  10.210  19.549  13.506  0.3463 -0.0679 -0.2012
91615W        W92479  11.561  23.602  25.682  0.0549  0.1707  0.1900
91616W        W92480  19.453   5.704  24.343 -0.0279  0.1046 -0.0978
91617W        W92481  27.935  19.591   1.205  0.1539  0.2246  0.1479
91618W        W92482  17.962  21.568  28.756 -0.0984 -0.2683  0.0824
91619W        W92483  17.433  15.725  22.904  0.0172 -0.0167  0.1619
91620W        W92484  12.262  12.669  18.193 -0.1250  0.2780 -0.0743
91621W        W92485  12.765  14.223  16.532 -0.1246 -0.0303 -0.2911
91622W        W92486   5.936  27.264  21.071 -0.0094 -0.0608 -0.2502
91623W        W92487   7.610   4.583  23.642  0.2788  0.1348 -0.0915
91624W        W92488   5.911  18.900  24.078 -0.0738  0.2699 -0.0652
91625W        W92489  21.630   5.211  18.925 -0.2326 -0.1513 -0.0523
91626W        W92490  27.675  26.329   8.341  0.1836 -0.0960 -0.0055
91627W        W92491  15.222  12.948  10.855 -0.0885 -0.0518 -0.0049
91628W        W92492   6.332   8.657  12.220  0.0584  0.1290  0.2522
91629W        W92493  14.520   7.806   4.572 -0.0818 -0.1662 -0.0338
91630W        W92494  18.057  16.832  14.695 -0.0213 -0.4250 -0.1911
91631W        W92495   9.603  21.821  14.960 -0.0667  0.1641  0.2624
91632W        W92496  24.855   1.245  14.027  0.2614  0.0975  0.0119
91633W        W92497  24.551  14.521   7.392  0.1310  0.2186  0.1522
91634W        W92498   7.092   4.294  17.120 -0.2593 -0.2486 -0.2604
91635W        W92499  28.818  14.150   9.839  0.0254 -0.2778  0.5364
91636W        W92500  18.147   1.576  11.277  0.1732  0.0229  0.1295
91637W        W92501  21.903   1.415  12.381 -0.1522  0.0075  0.2290
91638W        W92502  26.895   4.314   9.755 -0.2104 -0.0137  0.0844
91639W        W92503  20.440  12.069  17.023 -0.1136  0.0009 -0.3542
91640W        W92504  14.130  22.127   9.275 -0.0411  0.1470 -0.0835
91641W        W92505   3.924  26.215  14.680  0.2032  0.0792 -0.1163
91642W        W92506  18.661  26.062  11.450 -0.1098 -0.0779  0.0647
91643W        W92507  15.990  17.306   5.901 -0.2044  0.2058 -0.1582
91644W        W92508  27.805   7.014  12.601  0.0514  0.2361 -0.0296
91645W        W92509  15.199   6.683  19.210 -0.0449  0.0349 -0.0872
91646W        W92510  11.689  21.283  15.729 -0.0548  0.0750  0.1764
91647W        W92511   0.286  12.987  20.084 -0.0393 -0.0042 -0.0783
91648W        W92512  19.312  13.904   7.947  0.1073 -0.0464 -0.0632
91649W        W92513  21.034   4.928  19.406  0.0693  0.0273  0.1575
91650W        W92514   9.347   3.309   5.920 -0.1336  0.3773  0.2003
91651W        W92515  14.364  11.228   7.963  0.0425 -0.0055 -0.1153
91652W        W92516  18.869  13.496  20.387 -0.1906  0.0768 -0.2012
91653W        W92517  11.028  13.952   5.960  0.3155  0.0044 -0.3003
91654W        W92518  14.925   4.215  16.256  0.2462  0.1683  0.0568
91655W        W92519   0.870  22.112   3.061 -0.2777  0.0902 -0.1564
91656W        W92520  20.974  13.700  26.111  0.1538 -0.0316 -0.1287
91657W        W92521   2.937   3.916  16.582 -0.0821 -0.0700  0.0845
91658W        W92522  21.812  26.476  24.535  0.0161  0.3280  0.0554
91659W        W92523  19.776   2.364   8.384  0.0241  0.1049  0.1360
91660W        W92524  18.633  19.995  26.771  0.0262 -0.3122 -0.3204
91661W        W92525  14.329   4.716  18.168 -0.1139 -0.1063 -0.1479
91662W        W92526  15.886  24.889   6.721 -0.3256  0.5155 -0.3032
91663W        W92527   1.563  16.609  26.874 -0.0479 -0.1726  0.2111
91664W        W92528   8.418  26.115   7.611  0.1283  0.1576 -0.0140
91665W        W92529  25.124  20.209  21.223  0.0703  0.0555  0.1787
91666W        W92530  14.264   4.813   2.400  0.2295  0.0911  0.0252
91667W        W92531   2.740  10.213  26.274  0.0620 -0.1679  0.0326
91668W        W92532  11.153   3.916  27.658 -0.1843 -0.1827  0.0407
91669W        W92533  26.112   1.325  22.987  0.0318 -0.1516 -0.0551
91670W        W92534  11.178  23.600   8.706 -0.2838 -0.0919  0.1396
91671W        W92535   9.488  24.880  24.506 -0.1688  0.1910 -0.2281
91672W        W92536   2.540  25.651  19.535  0.1805  0.0383 -0.2149
91673W        W92537   3.631  21.273  15.243  0.0407 -0.1481  0.4746
91674W        W92538   7.668   5.801   9.755  0.0990 -0.0303 -0.2675
91675W        W92539   3.955  17.947  20.135  0.0455  0.1919  0.8231
91676W        W92540  11.045  17.761   1.247 -0.0636  0.0442  0.0652
91677W        W92541  11.146  16.002  22.480  0.1105 -0.1042 -0.0082
91678W        W92542   6.559   3.539  26.897  0.3054  0.1516  0.0523
91679W        W92543  17.920   8.960  24.526  0.0886 -0.1763  0.2149
91680W        W92544   6.442   0.486  15.693  0.0457  0.0629  0.3359
91681W        W92545  21.059  16.384  23.497 -0.3266 -0.2815 -0.1118
91682W        W92546  17.702  15.005  13.100 -0.1206  0.0012 -0.0656
91683W        W92547  12.879  26.088  19.997 -0.0771 -0.2328 -0.1786
91684W        W92548  21.025  18.742  10.898 -0.2224  0.1111  0.1818
91685W        W92549  23.407  11.013  13.125  0.1747  0.2317 -0.0007
91686W        W92550   6.343  25.352  10.621  0.0472  0.1176  0.3516
91687W        W92551   7.069   1.719  12.099  0.2010 -0.2804 -0.0340
91688W        W92552  11.696  24.917   8.293  0.2067  0.2560  0.1379
91689W        W92553   0.889   2.080   3.356  0.0266  0.0908  0.1118
91690W        W92554  24.997  21.900  16.658  0.1534 -0.1872  0.2773
91691W        W92555  20.997  25.077  15.830 -0.3127  0.1972  0.0320
91692W        W92556  22.018  12.336   9.935  0.2546  0.1860  0.1231
91693W        W92557   3.796   3.261  21.010 -0.2768 -0.2763 -0.2625
91694W        W92558   9.855   9.766  16.802  0.3286  0.1061 -0.0501
91695W        W92559  27.044  14.480  10.274  0.2500 -0.0425 -0.0698
91696W        W92560   1.149  27.324  25.125 -0.3276  0.0350 -0.1288
91697W        W92561  15.696  23.773  19.359 -0.2099 -0.1069 -0.0406
91698W        W92562  22.682   6.192  11.868  0.2666  0.0897  0.0629
91699W        W92563  19.272  24.508  14.779  0.0005  0.0249  0.2687
91700W        W92564  23.600  10.031  28.926  0.0532 -0.1310 -0.0902
91701W        W92565  21.853  24.853  22.521 -0.2006  0.0774 -0.0568
91702W        W92566  24.953  16.740   8.595 -0.1685 -0.1146 -0.0013
91703W        W92567   8.415  20.521   0.017 -0.0052 -0.1122 -0.0603
91704W        W92568  12.655   4.644  10.595 -0.0128 -0.0070 -0.1322
91705W        W92569  17.851   5.357  26.313 -0.0163  0.0002 -0.1813
91706W        W92570   5.372  17.698  14.182  0.3284  0.0596 -0.3333
91707W        W92571  15.421   5.232  18.267 -0.0528  0.0784  0.0694
91708W        W92572  20.001   4.844  25.350 -0.3469  0.0354 -0.1182
91709W        W92573   6.543   4.760   0.201  0.0943 -0.3117  0.1828
91710W        W92574  12.647   9.777  11.355  0.0139  0.0475  0.0667
91711W        W92575  13.177  11.122  22.868  0.0946  0.3072 -0.0675
91712W        W92576   1.844  14.472   6.634  0.0002 -0.2554 -0.0361
91713W        W92577  15.071   3.947  23.288  0.0831  0.1379  0.0430
91714W        W92578  15.872  20.027   4.048  0.2012  0.1231  0.0183
91715W        W92579  16.661  23.091  28.566  0.2260 -0.0472  0.0707
91716W        W92580   7.508  13.130  15.866 -0.0801 -0.1709 -0.1044
91717W        W92581  17.216   7.843  24.072  0.0071  0.0613  0.0991
91718W        W92582  23.513  19.450  15.466  0.1361  0.0116  0.0415
91719W        W92583  12.785  18.242  17.112 -0.0714 -0.1396 -0.0792
91720W        W92584  19.834  11.110  25.645 -0.0053  0.2208  0.0762
91721W        W92585  15.224   0.189  24.013 -0.1945  0.0029  0.0376
91722W        W92586   6.736  23.319  24.331  0.0825  0.0570 -0.0369
91723W        W92587   7.168  15.507  10.698  0.3302 -0.3461  0.2727
91724W        W92588  19.526  18.772  19.305 -0.0073 -0.0552 -0.0589
91725W        W92589   7.458  28.991  23.213 -0.0154 -0.2494 -0.1229
91726W        W92590   6.958   3.896  16.148 -0.2740 -0.2549  0.4963
91727W        W92591   5.343  13.474  12.846  0.3255 -0.0018 -0.0769
91728W        W92592  17.066   5.606  17.679 -0.1571 -0.3157  0.0370
91729W        W92593  19.830  21.493  18.330 -0.2179  0.1709  0.1222
91730W        W92594   7.255  12.993  20.940 -0.2873  0.0003  0.0498
91731W        W92595   7.485   6.040  14.193  0.0100  0.0875 -0.0588
91732W        W92596  20.646  18.423  20.006  0.2667  0.0379  0.1369
91733W        W92597  23.199  13.176   3.402  0.0905 -0.0928  0.1615
91734W        W92598  17.879   9.714  18.105 -0.1595  0.1231 -0.0625
91735W        W92599  14.319  16.761   1.590 -0.0696 -0.1333  0.2448
91736W        W92600  28.932   3.646  20.400 -0.0387 -0.2059 -0.0449
91737W        W92601  20.368  27.891  13.729 -0.0086  0.0704  0.3052
91738W        W92602   3.389   3.553  22.734  0.0205  0.0738  0.2635
91739W        W92603   9.954   0.043  27.463  0.1623  0.1436  0.1901
91740W        W92604   5.771  21.219  17.346  0.0562 -0.0592 -0.0493
91741W        W92605   9.635  21.748  24.542 -0.0262 -0.1150  0.0444
91742W        W92606   9.220   4.965  26.949  0.0970  0.0571  0.0171
91743W        W92607   3.092  27.638   2.337 -0.0582 -0.2774  0.0032
91744W        W92608   2.130  19.443  19.444 -0.1379 -0.0168  0.1616
91745W        W92609  23.721  19.626  25.193 -0.0043  0.0712  0.0959
91746W        W92610  25.152  16.572  27.468 -0.2317  0.0858 -0.1895
91747W        W92611   3.032  20.758  17.326 -0.0780  0.0234  0.1191
91748W        W92612   6.356   2.991  24.720  0.1401  0.3177 -0.1849
91749W        W92613  18.277  18.599  13.176  0.0203  0.2866 -0.3662
91750W        W92614   6.351  21.539   8.604 -0.0216  0.0894  0.1351
91751W        W92615  16.826  12.426  21.054 -0.0970 -0.0481  0.0561
91752W        W92616  14.869   4.754  16.374  0.0263 -0.3363 -0.3701
91753W        W92617   9.327  15.873  28.240 -0.1058  0.2452  0.1556
91754W        W92618   8.661   5.590   1.738  0.0681 -0.0058 -0.0916
91755W        W92619  19.010  20.055  13.931 -0.4401  0.1257  0.0259
91756W        W92620   0.324  11.327  15.161  0.0850  0.0134  0.1230
91757W        W92621   5.792  10.468   2.093  0.2215  0.4590  0.0702
91758W        W92622  15.375  20.013  18.403  0.0581 -0.0204  0.3682
91759W        W92623  23.366  19.170  15.895 -0.1309 -0.0402 -0.5124
91760W        W92624   7.287  18.604   6.994 -0.2702  0.0087  0.0445
91761W        W92625  13.861  14.522  22.415 -0.0421  0.1727 -0.0658
91762W        W92626  20.440  10.356   5.009 -0.1641  0.1058 -0.0315
91763W        W92627  17.378  19.840   4.495 -0.0905  0.3106  0.0104
91764W        W92628  17.049  14.421  11.045  0.1535  0.0564  0.0272
91765W        W92629  19.920  27.298  13.066 -0.1723 -0.2044  0.1694
91766W        W92630  10.090  10.427  26.638  0.4140 -0.1748  0.2911
91767W        W92631  16.178   9.999  16.896 -0.0073  0.0784  0.0006
91768W        W92632   6.117   9.310  14.214 -0.0509 -0.2568  0.0532
91769W        W92633   0.224  19.576  28.005 -0.0501 -0.1223 -0.1954
91770W        W92634  24.196   8.042  22.981  0.0729  0.0918  0.2195
91771W        W92635   2.058  27.979  26.385 -0.0413  0.0015 -0.0006
91772W        W92636   6.976   9.455  14.662  0.0034  0.1329 -0.1173
91773W        W92637   6.112  13.312  18.481  0.1910 -0.1633 -0.2131
91774W        W92638   3.061   8.910  23.837 -0.0577 -0.0386 -0.0108
91775W        W92639   0.933   1.810   4.491 -0.1835 -0.1200  0.0686
91776W        W92640  11.744  23.225   7.298 -0.2559 -0.1282 -0.0024
91777W        W92641   1.611  14.199  23.901  0.0861 -0.2196 -0.3756
91778W        W92642  13.088  27.256  23.841 -0.0562 -0.1068  0.1488
91779W        W92643   3.853  11.307  16.470 -0.0223 -0.0491 -0.1633
91780W        W92644  10.993  28.116  22.116 -0.3194 -0.0779  0.2024
91781W        W92645   4.749   3.306  18.875 -0.3159 -0.0375 -0.2545
91782W        W92646  12.021  18.762  11.711 -0.1888 -0.0912 -0.1447
91783W        W92647  17.741  22.150   6.955 -0.0010 -0.2631  0.0771
91784W        W92648   3.261  13.445   1.440 -0.0469 -0.2342  0.1699
91785W        W92649  19.532   3.855  23.852  0.1601 -0.1041 -0.0465
91786W        W92650  17.903  17.914  21.577  0.2193 -0.3095  0.0880
91787W        W92651  27.323  14.541  17.549 -0.1775  0.0592 -0.1194
91788W        W92652  16.925  24.751  20.800 -0.0844  0.1683  0.0603
91789W        W92653   8.668  10.125  21.652 -0.0221 -0.1011 -0.0860
91790W        W92654  11.042  17.854  11.339 -0.0102  0.0220 -0.0812
91791W        W92655  24.617  11.140   6.887 -0.0475  0.0764 -0.0643
91792W        W92656   3.590  12.867  24.243 -0.1730  0.1353 -0.1680
91793W        W92657  24.074  23.717  14.124  0.0704 -0.0479 -0.0626
91794W        W92658   6.253   5.607  14.862 -0.0805  0.4877  0.0250
91795W        W92659   2.562  10.487  19.025 -0.1126  0.1367 -0.0163
91796W        W92660  11.805  22.898  20.853 -0.1514 -0.1470  0.0343
91797W        W92661   8.995   2.179  17.834  0.1427  0.1151  0.1808
91798W        W92662  29.004   1.914   5.911  0.0134 -0.0843  0.0091
91799W        W92663  13.053  24.322  18.301  0.3102 -0.2517 -0.1736
91800W        W92664  18.634   4.043  23.632 -0.0275 -0.0531  0.1668
91801W        W92665   2.915  12.766  25.924 -0.0333  0.0705  0.2395
91802W        W92666  26.655  13.606   0.104  0.1785 -0.1005 -0.1807
91803W        W92667   3.098  16.335   0.598  0.0907  0.0468 -0.0396
91804W        W92668  21.531   3.395  22.253 -0.0316  0.1432  0.1623
91805W        W92669  14.027  25.016  12.359 -0.0829 -0.0260 -0.1307
91806W        W92670   7.434   2.402  19.361 -0.0143 -0.1211  0.2145
91807W        W92671  16.690  10.390  11.448 -0.0372 -0.2303 -0.0228
91808W        W92672  10.072  26.425  22.366  0.3601  0.0516  0.2228
91809W        W92673  26.083   2.708  18.215 -0.0352 -0.0100 -0.1539
91810W        W92674  25.286  27.036  14.029  0.0537 -0.1595  0.2536
91811W        W92675   4.767   8.093   7.670 -0.2246 -0.1009 -0.2619
91812W        W92676  22.619   0.855  16.634 -0.0642 -0.2924 -0.1029
91813W        W92677   9.219  20.964   3.930  0.1272  0.2631  0.1860
91814W        W92678   6.362  19.350  19.486 -0.0544  0.1286  0.1095
91815W        W92679  17.656  15.103   5.352 -0.2064 -0.0215 -0.1373
91816W        W92680  19.214  13.880   1.909 -0.0910 -0.0375 -0.0860
91817W        W92681   2.594   1.022  13.160  0.0485 -0.0005  0.1059
91818W        W92682   4.698   9.263  15.368 -0.3321 -0.2933  0.1257
91819W        W92683   8.371   6.214  11.250 -0.0430 -0.0109  0.2446
91820W        W92684   8.759  19.510   6.867  0.0432  0.1014 -0.2571
91821W        W92685  27.571  21.859  19.388 -0.2477  0.1819  0.1246
91822W        W92686  20.181  15.103  23.374  0.0291 -0.0354 -0.0847
91823W        W92687  24.690  26.352  19.709 -0.0813 -0.1586  0.0604
91824W        W92688   9.102  15.237  19.018 -0.1280  0.0818 -0.1297
91825W        W92689  17.183  23.492  22.472 -0.1386  0.1680 -0.2794
91826W        W92690  16.384   0.034  13.020  0.2232 -0.1301 -0.2978
91827W        W92691  15.682  15.721  21.185 -0.3961  0.0930 -0.0182
91828W        W92692   3.255   1.825  22.349  0.0893  0.0129 -0.1302
91829W        W92693  21.796   8.367  10.630  0.3265 -0.3150  0.0293
91830W        W92694   8.821  16.634  11.218 -0.2951 -0.0387  0.1436
91831W        W92695  16.369  13.161  19.428  0.0167 -0.2592  0.2115
91832W        W92696  20.853   9.830  11.508 -0.3141 -0.1826 -0.0213
91833W        W92697   8.310  24.479   8.146 -0.2546  0.2670  0.4857
91834W        W92698  15.037   0.562   6.942 -0.0702 -0.2061  0.0384
91835W        W92699  19.960  27.103  13.674  0.2554 -0.1833 -0.2584
91836W        W92700  26.876  10.777  11.837 -0.0579 -0.0034  0.0955
91837W        W92701  21.003   9.568  25.492  0.1318 -0.3890 -0.3150
91838W        W92702  10.427  25.888   3.880 -0.1401  0.0321  0.2812
91839W        W92703  24.087  12.008  22.738  0.1026  0.2514 -0.0940
91840W        W92704  22.787  14.613  10.655  0.1967 -0.0019 -0.0632
91841W        W92705  13.458   5.646  19.671  0.0777 -0.0896 -0.0843
91842W        W92706  28.059   9.904  22.405  0.0755 -0.0085  0.1456
91843W        W92707  22.595   3.912  14.256 -0.0105  0.0835  0.3689
91844W        W92708  20.184  16.574  17.720  0.0349  0.1625 -0.0436
91845W        W92709  11.213  21.983  25.324  0.1028  0.2395  0.2927
91846W        W92710  16.385  16.473   8.612 -0.0426  0.0024 -0.1780
91847W        W92711  15.996  24.543  21.517 -0.2645  0.0177 -0.0912
91848W        W92712  10.341  22.610  20.887  0.1128 -0.1513  0.3635
91849W        W92713  10.898   1.954  16.464 -0.0242  0.1558  0.1558
91850W        W92714   8.352  17.771   0.141  0.1887  0.1399 -0.0042
91851W        W92715  15.302  14.378  26.151 -0.5586  0.0105 -0.0576
91852W        W92716  15.715  21.612  18.672  0.0387  0.1052  0.1004
91853W        W92717  13.397  13.226   1.833 -0.1115 -0.1699  0.1041
91854W        W92718  22.823  24.495  18.269  0.5253 -0.0055 -0.5073
91855W        W92719  18.280   2.437  23.567 -0.0722 -0.0941 -0.1867
91856W        W92720   6.773  12.166  28.522 -0.1160  0.0032 -0.1511
91857W        W92721   9.537  26.966  15.962  0.1298 -0.2101  0.1242
91858W        W92722  13.007  14.466   8.371 -0.0454 -0.3924  0.1416
91859W        W92723  23.386  26.262  28.525  0.1931  0.1724 -0.0363
91860W        W92724  15.351   9.143  25.196 -0.1648  0.0507  0.2103
91861W        W92725   1.892  10.553  12.718 -0.0258  0.2072 -0.3393
91862W        W92726   5.603  17.591  13.693 -0.1184  0.1974 -0.0346
91863W        W92727  25.132   2.747   1.718  0.1226  0.0064  0.3014
91864W        W92728  19.750   7.528  10.301  0.1456 -0.0744 -0.1586
91865W        W92729  11.954  23.516   2.398  0.0100  0.1768 -0.1833
91866W        W92730  24.740  19.178  10.871 -0.3305 -0.3296  0.1321
91867W        W92731  17.282  20.713  23.616  0.0032  0.2250 -0.2496
91868W        W92732   5.482  10.682   4.886 -0.2557 -0.1274  0.2469
91869W        W92733  11.321   3.622  14.901 -0.3984  0.0342 -0.1420
91870W        W92734   5.608  13.453  27.819 -0.0954  0.0116  0.0303
91871W        W92735  16.362  23.960  10.401  0.3006 -0.0900 -0.0811
91872W        W92736  21.833  16.381   8.276 -0.0835  0.0072  0.0622
91873W        W92737   8.081  14.853  13.812 -0.1284 -0.0524 -0.1341
91874W        W92738  21.647  27.797  14.511  0.3008 -0.1908  0.2328
91875W        W92739  27.815  28.774  11.426 -0.0779 -0.0863  0.1849
91876W        W92740  19.322  10.963  18.461  0.4103  0.3721 -0.0457
91877W        W92741  12.657  15.753  26.618 -0.4076 -0.2105 -0.0140
91878W        W92742   3.618  27.602   1.484  0.0659 -0.0531 -0.0748
91879W        W92743  19.053   8.661  26.125  0.0625  0.1227 -0.2186
91880W        W92744  24.801   8.668  13.703 -0.0301 -0.1367 -0.0916
91881W        W92745  27.732  11.313  16.532 -0.2636 -0.0635 -0.0345
91882W        W92746  19.138   6.886   0.644  0.0864  0.0732 -0.0232
91883W        W92747  26.971   9.238  19.508  0.1371  0.2596  0.0548
91884W        W92748  18.391  28.181  15.765 -0.2074  0.0363  0.2131
91885W        W92749  13.308  21.399   4.906  0.4112 -0.0271  0.2505
91886W        W92750  14.975  15.636  15.376 -0.0512  0.1527  0.2463
91887W        W92751  28.448  25.824   6.205  0.2161  0.0270  0.0467
91888W        W92752   8.331  13.629  15.080 -0.0532 -0.1387 -0.0204
91889W        W92753   6.056  27.543  16.589  0.1043  0.1802  0.0819
91890W        W92754  13.244   1.316  27.754 -0.2458 -0.1137 -0.0211
91891W        W92755  23.273  15.655   9.663 -0.1011 -0.1525  0.0896
91892W        W92756  27.849  13.985   2.962 -0.4302  0.0491  0.0565
91893W        W92757  27.412  23.425  13.994 -0.0303  0.0866  0.0763
91894W        W92758   7.470  24.293  28.858  0.1634  0.1854 -0.1720
91895W        W92759   7.356  28.392  18.149  0.0326 -0.2152  0.0853
91896W        W92760  24.729  23.110  11.191 -0.0137 -0.1111 -0.1799
91897W        W92761   2.448   4.797   9.658 -0.2414  0.3540 -0.2137
91898W        W92762   8.388  18.378  25.591 -0.0563  0.0762 -0.1528
91899W        W92763   9.996   3.162   0.026  0.1781  0.2394 -0.0564
91900W        W92764   5.449  22.647  27.618 -0.3161  0.2604 -0.1277
91901W        W92765   4.189  14.572  17.828  0.0041 -0.0774  0.1142
91902W        W92766   1.946   7.128  18.193  0.0392 -0.1579 -0.1514
91903W        W92767  19.848  19.931  24.415 -0.0431 -0.2628 -0.0404
91904W        W92768   9.825  18.234  21.906 -0.3172  0.0555  0.0491
91905W        W92769   6.019   5.152  21.581  0.2894  0.0068 -0.1809
91906W        W92770  14.609  17.533   5.625 -0.0632 -0.4104 -0.2559
91907W        W92771   7.733   3.107  27.033  0.1673 -0.1615 -0.0645
91908W        W92772   7.212   9.303  22.322 -0.0611  0.1149  0.3126
91909W        W92773  26.436   2.965   8.298 -0.1182 -0.0938 -0.1429
91910W        W92774  14.856   2.437  11.818 -0.0288 -0.0683  0.1148
91911W        W92775  10.454  24.510   2.839 -0.0949 -0.0545 -0.1462
91912W        W92776  23.584  17.556   2.680  0.0574  0.1932  0.0814
91913W        W92777   6.236  16.216   9.115  0.1647  0.2049 -0.0494
91914W        W92778  18.423  21.135  21.706  0.2659 -0.1700  0.1209
91915W        W92779   1.976  16.036  15.660 -0.0849 -0.1705 -0.0940
91916W        W92780  21.475  13.525  18.297 -0.0406  0.1840 -0.0120
91917W        W92781  22.351  15.928  26.071  0.3537  0.0271 -0.1173
91918W        W92782  18.537  12.767  15.289 -0.2883  0.2972  0.0355
91919W        W92783  12.828  22.615   9.173 -0.3926 -0.1113 -0.3850
91920W        W92784   0.630  14.512   5.996 -0.0768 -0.3813 -0.3205
91921W        W92785  24.243   9.201  17.960 -0.0616  0.4518 -0.1628
91922W        W92786   4.479   8.885  15.702 -0.1638  0.1304 -0.1610
91923W        W92787   9.349  18.254   7.582  0.1306  0.1098  0.1044
91924W        W92788   5.274  14.668  11.344 -0.2888  0.2601  0.1115
91925W        W92789  19.831  16.853  10.933 -0.0058  0.1255  0.1220
91926W        W92790  19.205  18.948   8.470 -0.0641 -0.1387 -0.2029
91927W        W92791   3.573  28.453  16.053  0.0559  0.1991 -0.3384
91928W        W92792  26.147   0.525   4.196 -0.0603 -0.2457  0.1370
91929W        W92793  16.256  13.329   9.671 -0.1681  0.1445 -0.2704
91930W        W92794   5.643   4.155  17.421 -0.1485  0.1110  0.0866
91931W        W92795   7.026   6.102  28.721 -0.0961  0.2526 -0.0210
91932W        W92796   0.591  14.492  20.878 -0.0101  0.3659  0.0229
91933W        W92797  20.899   2.586  16.996  0.2986 -0.1214 -0.0278
91934W        W92798  16.088  15.111   2.154 -0.1301  0.2357  0.1542
91935W        W92799  22.733  18.653   8.598 -0.1942 -0.0380 -0.2999
91936W        W92800   8.845  22.630  11.159 -0.0504 -0.0912 -0.0874
91937W        W92801   6.479   9.380   1.034 -0.0384 -0.0917  0.3066
91938W        W92802  23.835   6.559   2.135 -0.2090  0.2385  0.1723
91939W        W92803  15.715  21.232  16.711 -0.1666 -0.1213  0.0308
91940W        W92804  23.400  26.864   6.514 -0.2453 -0.0988  0.0962
91941W        W92805  24.001  14.052   2.590 -0.0747  0.0368  0.1717
91942W        W92806  16.490  17.545  15.195 -0.0315 -0.2010 -0.1095
91943W        W92807  19.430  10.810  26.525  0.1874 -0.1111 -0.2864
91944W        W92808  23.634  17.288  11.098 -0.0109 -0.1708 -0.1231
91945W        W92809  18.134  20.860  21.391  0.1128  0.3025 -0.2347
91946W        W92810  26.638   2.779  21.847  0.3915  0.0963 -0.1060
91947W        W92811  20.029  22.705  23.288 -0.1994  0.0793  0.1802
91948W        W92812  13.103  25.495  28.593  0.1115  0.0796  0.1820
91949W        W92813  19.176  19.284  15.412  0.1000 -0.3489 -0.0785
91950W        W92814  19.526   8.892  23.073 -0.2453 -0.0389 -0.0296
91951W        W92815   8.764  12.169  28.516  0.6354 -0.2413  0.0758
91952W        W92816  20.128  24.469  19.268  0.0277 -0.0141 -0.1287
91953W        W92817  25.670  23.387  28.803  0.1429 -0.2130 -0.1244
91954W        W92818  20.975  20.048  15.627  0.0197 -0.0682  0.0807
91955W        W92819   3.215  26.960  17.728  0.1799 -0.3486  0.2159
91956W        W92820  16.770  13.047  19.795  0.1622 -0.0086 -0.0260
91957W        W92821  20.827  14.676  21.303 -0.1309 -0.3438 -0.0076
91958W        W92822  13.730   0.986   2.206 -0.3605  0.1689  0.1680
91959W        W92823  16.338  16.828  22.052  0.3042 -0.1415  0.0092
91960W        W92824  11.641  10.306  18.709 -0.0084  0.4227 -0.0391
91961W        W92825   0.561   3.166   8.984 -0.0575 -0.1350 -0.0206
91962W        W92826  17.875  28.613   3.293  0.0739  0.0403 -0.0173
91963W        W92827   3.376  16.152   0.135  0.2029  0.0849  0.2085
91964W        W92828   4.823  14.941  11.258  0.4021 -0.1733  0.1809
91965W        W92829   6.174  20.074  16.818 -0.2546  0.0896  0.1264
91966W        W92830   4.334  10.511  21.302 -0.0575 -0.1515  0.3738
91967W        W92831  25.003  19.337   5.275 -0.1991  0.2437  0.3748
91968W        W92832   9.283  10.225  23.030 -0.0014 -0.2071  0.1723
91969W        W92833  27.624  12.026  11.572  0.0774  0.1897  0.1904
91970W        W92834   4.891   4.913  11.558 -0.0739  0.0376 -0.0150
91971W        W92835  18.505  25.846  19.222  0.0415  0.0315  0.0255
91972W        W92836  15.687   4.066  11.015  0.1468  0.1426  0.0273
91973W        W92837  24.947   1.288  28.697 -0.0569 -0.0703  0.1470
91974W        W92838  20.873   9.254  13.345 -0.1783 -0.2188 -0.0927
91975W        W92839  12.442  13.052  20.116 -0.1281 -0.0664 -0.0277
91976W        W92840  13.363  25.078   9.437 -0.1492  0.0979  0.1301
91977W        W92841   7.085  10.709  18.835 -0.0819  0.0637  0.0225
91978W        W92842  10.199   6.476  11.688 -0.0910 -0.0152  0.0064
91979W        W92843  19.674   2.537  16.244  0.0707 -0.2504 -0.0008
91980W        W92844  13.501  24.593   6.945  0.3274 -0.1316  0.0475
91981W        W92845  26.863  22.256  21.325 -0.2326 -0.0991 -0.0744
91982W        W92846   5.765  18.771  15.540 -0.0641  0.3058  0.0164
91983W        W92847  24.737  28.448  27.346 -0.0323 -0.0353  0.0281
91984W        W92848  27.407  20.751  27.937 -0.2019 -0.1322 -0.1744
91985W        W92849  15.638   0.881   7.433  0.1296  0.3797 -0.3907
91986W        W92850  21.618  11.463  17.391  0.1428 -0.0705  0.0660
91987W        W92851  25.948  12.232   5.116  0.1890  0.0482 -0.0104
91988W        W92852  17.974  10.040  13.020 -0.2064  0.0242 -0.2492
91989W        W92853  25.019  17.652  13.841 -0.1335 -0.0356 -0.3234
91990W        W92854  13.549  16.121   2.557 -0.0726  0.1499  0.1241
91991W        W92855   0.643  21.532  12.615  0.1449  0.0268 -0.0422
91992W        W92856   2.902  16.064   0.246 -0.1421  0.0592  0.4209
91993W        W92857  20.862  25.799   0.014 -0.0698 -0.0019  0.2446
91994W        W92858  25.958   9.076   1.106 -0.4202  0.1925 -0.1754
91995W        W92859  13.801   5.461  16.468 -0.1826 -0.0469  0.2099
91996W        W92860  19.261  24.349  13.712 -0.1352  0.1357  0.1017
91997W        W92861  12.762  15.598  24.762  0.1996 -0.1624 -0.1176
91998W        W92862   2.378  12.620  18.106  0.6674 -0.1878  0.1771
91999W        W92863  13.733  23.668   3.142 -0.1221 -0.0305 -0.1289
92000W        W92864  27.233   5.282  22.194 -0.5604 -0.1539  0.2389
92001W        W92865   5.747  14.716  14.859  0.0901 -0.0047 -0.0706
92002W        W92866  15.763  19.963  13.752  0.2214 -0.1790  0.2503
92003W        W92867  11.779  24.646  25.831 -0.0900 -0.0021  0.1002
92004W        W92868  21.065   5.745  27.807  0.4391 -0.1223  0.5209
92005W        W92869  24.344  20.753  24.271 -0.1402 -0.0366  0.0016
92006W        W92870  21.831   9.467   3.151  0.2328  0.1726  0.0674
92007W        W92871  12.223  26.233  26.575  0.3478 -0.0600 -0.0565
92008W        W92872  16.387   8.441  17.421  0.2727  0.0162  0.0151
92009W        W92873   7.841  22.684  26.030  0.1110  0.2203  0.0602
92010W        W92874  20.342   7.005   4.897  0.2188 -0.0740  0.2852
92011W        W92875  29.018  10.156   6.982  0.3161 -0.3996 -0.0214
92012W        W92876  20.075  12.631  14.133  0.0373  0.0772  0.2473
92013W        W92877   8.997  10.613   4.708 -0.2151 -0.0560  0.2490
92014W        W92878  12.499  28.158  20.452 -0.0313 -0.1607 -0.1614
92015W        W92879  19.431   3.733  14.247  0.0532  0.0626 -0.1381
92016W        W92880  20.329   6.606   6.742  0.2164  0.1359  0.1701
92017W        W92881  25.846   2.494   1.855 -0.1643 -0.0515  0.1404
92018W        W92882  26.322  15.269  28.743  0.0530  0.0870 -0.2560
92019W        W92883   0.344  12.836  13.609  0.2432 -0.0027 -0.0336
92020W        W92884   4.239   4.097  16.844 -0.0927  0.2243 -0.0394
92021W        W92885  26.644  17.970  27.172 -0.0691  0.1779 -0.2375
92022W        W92886  23.632   9.836  24.437  0.2749 -0.1033 -0.2946
92023W        W92887  21.540  18.513   8.757  0.1230 -0.1357  0.4018
92024W        W92888  17.139   1.279  22.248  0.0389  0.0490 -0.0914
92025W        W92889  11.036  16.955  25.452  0.4065  0.0233  0.2977
92026W        W92890  18.046   9.917  26.123 -0.0420 -0.2733  0.1228
92027W        W92891  17.063  14.815   0.849 -0.1871  0.1795  0.0685
92028W        W92892  27.867  24.094  28.158  0.1017  0.1330  0.1278
92029W        W92893   3.054  28.450  22.724 -0.0078 -0.1139 -0.0246
92030W        W92894  12.923  14.639   3.445  0.2481  0.0329  0.2222
92031W        W92895   0.920   9.276   3.521  0.0808  0.0216 -0.1264
92032W        W92896  26.131  15.501  29.141 -0.0962 -0.0109 -0.0918
92033W        W92897  14.216  16.901  16.985 -0.3105  0.2223  0.4206
92034W        W92898   8.968  18.675  16.655  0.4096  0.1783 -0.1252
92035W        W92899  19.909  21.293  11.975 -0.1565 -0.2337  0.1521
92036W        W92900  20.742  16.421  21.323  0.0385  0.0246 -0.1852
92037W        W92901  14.354   2.056  28.200 -0.4121 -0.1830  0.0358
92038W        W92902   8.935   1.029  23.030 -0.2038  0.1491  0.2297
92039W        W92903  29.081  18.365   4.369  0.0051  0.1159 -0.0498
92040W        W92904   3.509   3.929  19.589 -0.1056  0.0644 -0.0413
92041W        W92905  10.684  15.286  13.497  0.0037  0.2162  0.2276
92042W        W92906  26.444  18.448  23.841 -0.3331  0.0468 -0.1468
92043W        W92907  13.107   0.290  20.676  0.1590  0.0262 -0.0011
92044W        W92908   5.485  18.889  24.383  0.0492  0.0813  0.2478
92045W        W92909   3.216   2.090  17.053  0.0277 -0.0685 -0.0974
92046W        W92910  22.229  16.860  25.837  0.2185 -0.1563 -0.2451
92047W        W92911  11.183  10.582  18.701 -0.0788 -0.1093 -0.0471
92048W        W92912   4.272  28.132   7.605 -0.2815 -0.3454  0.1372
92049W        W92913   9.496   7.116   2.675 -0.0950 -0.2785  0.1183
92050W        W92914  14.395  20.535  14.375 -0.1579  0.1583 -0.0917
92051W        W92915   2.989  14.149  19.867  0.0447 -0.0371 -0.1631
92052W        W92916  12.392  16.542  17.775 -0.1805  0.3009 -0.0685
92053W        W92917   1.940  27.759   0.042 -0.2906 -0.0626 -0.2288
92054W        W92918  26.991   8.266  20.020 -0.0558 -0.0096 -0.2062
92055W        W92919   6.831  16.325  25.241  0.0901  0.1905 -0.1765
92056W        W92920   9.389   3.551  22.924  0.2145  0.1052  0.2333
92057W        W92921  20.802  18.642  24.124 -0.0091 -0.0274  0.1240
92058W        W92922   1.627  22.666  23.106 -0.2589  0.1933  0.0663
92059W        W92923  14.670  20.113  20.428  0.3121 -0.0907 -0.1658
92060W        W92924  16.910  22.071  25.229  0.3372 -0.0940 -0.1259
92061W        W92925  22.801  18.558  22.329 -0.0142  0.0181 -0.0179
92062W        W92926  16.751   1.208  24.948 -0.2723 -0.2911 -0.0619
92063W        W92927  19.918   2.086   2.612 -0.4322 -0.0987  0.0446
92064W        W92928  29.135  17.889  10.002  0.4071  0.2027 -0.2711
92065W        W92929  23.269  17.271  15.188 -0.0671 -0.2840 -0.0010
92066W        W92930  17.728   1.732   4.415 -0.0219 -0.1789 -0.0151
92067W        W92931  27.611   0.647  28.380  0.4335 -0.1310  0.1155
92068W        W92932   6.351  12.810  27.576 -0.0423 -0.0611 -0.0511
92069W        W92933  11.576   4.964  11.283  0.2537 -0.1750  0.3305
92070W        W92934   5.078  27.089   0.740 -0.0999 -0.1059 -0.0250
92071W        W92935   3.155   3.800   6.920  0.0050  0.2703  0.0534
92072W        W92936   6.881  12.944  25.158 -0.1076  0.1496 -0.1996
92073W        W92937   3.728  27.292  18.044 -0.2702  0.1080  0.0230
92074W        W92938   8.889   5.559  12.884  0.0843 -0.2518 -0.1202
92075W        W92939  18.812  16.196  13.416 -0.0937 -0.4792  0.0799
92076W        W92940  14.299   6.589  21.148 -0.1079  0.3885 -0.3504
92077W        W92941   9.330   5.213   2.881 -0.0874  0.0139 -0.0714
92078W        W92942   1.495  21.310   6.111 -0.1375  0.1738  0.1322
92079W        W92943   3.340  15.109   9.482  0.0122 -0.1599 -0.1033
92080W        W92944  10.628  12.113  25.974 -0.1782 -0.2340 -0.0145
92081W        W92945  12.948   6.439  16.417  0.2367 -0.1412 -0.3156
92082W        W92946   3.626  24.278  28.914 -0.2666  0.1614 -0.1951
92083W        W92947  14.450  10.902  16.696 -0.1301  0.1399  0.2007
92084W        W92948   8.786  11.303  16.026  0.3526  0.1023 -0.1818
92085W        W92949  18.439  19.699  14.012 -0.1783 -0.1090  0.0680
92086W        W92950  22.329   7.470  23.092  0.0933  0.1144  0.0418
92087W        W92951  20.665  20.835  13.174 -0.2140 -0.3375 -0.0642
92088W        W92952  25.224  12.571  11.540 -0.3710  0.0995  0.1294
92089W        W92953   9.575   9.048   2.196 -0.1110 -0.2783 -0.1511
92090W        W92954  27.694  28.833  21.133  0.2198  0.1805 -0.0169
92091W        W92955  14.678  24.787  15.997  0.2674  0.0970 -0.3397
92092W        W92956  26.301  24.554   3.131 -0.1273 -0.2099  0.0225
92093W        W92957  23.992  18.975  21.380 -0.0857  0.1366 -0.3393
92094W        W92958   4.050  15.458  16.388 -0.1665 -0.1539 -0.2005
92095W        W92959  15.060  10.901   3.830  0.0867  0.2760  0.0819
92096W        W92960   4.027  25.204  25.303 -0.0518  0.4262  0.2159
92097W        W92961  26.315   8.488  11.991  0.4804  0.0971 -0.0173
92098W        W92962  12.593   7.129   1.228 -0.0904 -0.1460  0.0032
92099W        W92963  11.586   8.500  26.883 -0.0096 -0.0032  0.4234
92100W        W92964  23.874  15.388  28.973 -0.0822 -0.2417 -0.2186
92101W        W92965  26.031   9.556  14.538 -0.2928  0.0236 -0.0972
92102W        W92966  15.035  19.632  18.192  0.2867  0.0992 -0.0321
92103W        W92967  28.425   1.300  23.295 -0.3172  0.1803 -0.1426
92104W        W92968   3.968   1.747   4.766 -0.0049 -0.0067 -0.3103
92105W        W92969   0.988  19.944  28.710 -0.2748 -0.2262 -0.0334
92106W        W92970  25.208  11.394  17.191 -0.2174  0.2997 -0.2645
92107W        W92971   9.128  23.932  15.635 -0.0734 -0.0359  0.2001
92108W        W92972  24.638   9.667  22.118 -0.0578  0.0774  0.0272
92109W        W92973  15.520  17.854   2.246  0.0359  0.1148  0.0389
92110W        W92974  25.372   8.744  10.562 -0.2441  0.0585  0.2444
92111W        W92975  12.354  20.092  18.247  0.1393 -0.0832  0.0758
92112W        W92976   3.879   1.426  26.176 -0.0459 -0.2584 -0.0489
92113W        W92977   7.600  14.693  23.626  0.1430 -0.1102  0.0623
92114W        W92978  27.719  13.863  20.909  0.2469  0.3108  0.2550
92115W        W92979   9.101   0.499   4.551  0.3579 -0.2986 -0.4048
92116W        W92980   8.898   9.933  27.822  0.2003 -0.0388  0.1084
92117W        W92981  11.324   5.952  24.944  0.0366  0.0934  0.0648
92118W        W92982  19.550  14.313  13.630 -0.2096 -0.0303  0.0784
92119W        W92983   5.535   7.786  26.906 -0.2871 -0.3419  0.0633
92120W        W92984   5.398  19.757  18.802 -0.2620  0.4318  0.3496
92121W        W92985  21.357   2.638  18.555 -0.2333  0.2574 -0.0043
92122W        W92986  19.614  28.515  24.308  0.0726  0.0562 -0.0372
92123W        W92987  10.329  10.419  18.524  0.0301 -0.1720 -0.1090
92124W        W92988   9.236  21.471  20.463  0.0996 -0.0800 -0.3397
92125W        W92989  10.231   2.236   0.156 -0.0767 -0.1451  0.0134
92126W        W92990   5.739  16.846  19.779 -0.2999 -0.1899 -0.0807
92127W        W92991  15.318  11.249  21.500 -0.1040 -0.0073 -0.0401
92128W        W92992  10.514  19.490  20.474 -0.0019 -0.0024  0.1901
92129W        W92993  24.811  11.848  15.908  0.1990 -0.0949  0.0211
92130W        W92994  17.606  15.949   2.780 -0.4351 -0.0582  0.2320
92131W        W92995  19.058  25.623   9.696  0.4784 -0.0247  0.1042
92132W        W92996   2.467  10.556   3.899  0.0593  0.0089 -0.0528
92133W        W92997  25.483   7.772  28.236  0.3804 -0.0406  0.0534
92134W        W92998  20.567  16.297  21.893 -0.0651 -0.0271 -0.0463
92135W        W92999   8.295   6.502   1.350  0.0381  0.2514  0.2362
92136W        W93000   6.304  13.291  28.484 -0.2133  0.0418  0.0610
92137W        W93001  10.445  12.858  14.667 -0.1909 -0.1222 -0.2271
92138W        W93002   9.161  14.905  16.528  0.1556 -0.4625 -0.0865
92139W        W93003   5.825  15.580   9.804 -0.1596  0.2662 -0.0980
92140W        W93004  26.003  16.927  27.242 -0.0328 -0.3385 -0.0397
92141W        W93005  11.857  21.100  12.758  0.0154 -0.1255  0.2062
92142W        W93006  22.984  26.174  20.530 -0.2830 -0.1607  0.2020
92143W        W93007  18.305  19.620  14.529 -0.0746  0.1970  0.2187
92144W        W93008  14.613  15.814  26.413  0.1112  0.0502  0.0664
92145W        W93009  18.745   9.123  25.254  0.1101 -0.4898 -0.3210
92146W        W93010  24.450  17.005  24.861 -0.0978 -0.0235  0.0101
92147W        W93011  19.820   6.417  27.541 -0.1458  0.1723 -0.0214
92148W        W93012  24.674  22.749   3.266  0.0077  0.0198  0.1781
92149W        W93013  13.621   9.402  10.083  0.3091  0.2000  0.0528
92150W        W93014  17.097   1.232  25.980  0.0927 -0.0897 -0.2247
92151W        W93015  15.335  11.430   1.993  0.0593 -0.1113  0.0753
92152W        W93016  28.218  24.517  20.061  0.0868  0.0118  0.1031
92153W        W93017   7.269  25.042   3.170  0.1847 -0.1024  0.2552
92154W        W93018  23.917  11.171  12.942  0.0122  0.1079 -0.0444
92155W        W93019  24.086   1.096  27.272 -0.1733 -0.0160  0.0614
92156W        W93020   5.351  21.335  13.978 -0.0693  0.1100  0.1136
92157W        W93021  11.014  28.042  24.862 -0.0585 -0.0419 -0.1624
92158W        W93022   7.493  11.517   5.729  0.0401  0.1757 -0.1182
92159W        W93023  12.853  22.733  25.714  0.3613  0.1791 -0.1778
92160W        W93024  28.213  11.180  24.023  0.3880 -0.0002 -0.0404
92161W        W93025  13.689   0.653  12.792  0.1347 -0.1829 -0.2156
92162W        W93026  27.657  12.792  20.825  0.0717 -0.5525  0.0219
92163W        W93027   8.644   9.744  25.917  0.0974 -0.0987 -0.1558
92164W        W93028  24.583  26.985  14.457 -0.1137  0.0010 -0.0568
92165W        W93029  28.229   8.831  11.321  0.0964 -0.1399 -0.0624
92166W        W93030  11.707  13.534   2.839 -0.0393 -0.0806 -0.1058
92167W        W93031  24.521   7.402   0.345  0.0870 -0.1819 -0.1845
92168W        W93032   4.795  12.113  18.731 -0.0100  0.1082  0.0210
92169W        W93033  13.341  12.433   5.044  0.2414  0.1838  0.2807
92170W        W93034   2.364  24.405  20.296 -0.0835  0.0131 -0.2010
92171W        W93035  21.605  12.057   4.041 -0.0854 -0.3159  0.2637
92172W        W93036  10.380   5.789  16.866 -0.2221  0.0477  0.2733
92173W        W93037   5.744  27.205  21.704 -0.2446  0.1151 -0.0064
92174W        W93038   1.919  17.724  18.704  0.1107  0.0057 -0.2688
92175W        W93039   1.024   1.141  21.759 -0.0083  0.3249 -0.0150
92176W        W93040   9.692   7.773  24.080  0.0123 -0.1925  0.1464
92177W        W93041  14.971   6.289  26.077  0.0790  0.0691  0.0440
92178W        W93042  12.441  20.889  15.674  0.2961  0.1450  0.2280
92179W        W93043   9.417  15.620  26.955  0.2416  0.3908 -0.1440
92180W        W93044  27.726   8.935   5.733 -0.0480 -0.0984  0.0449
92181W        W93045   8.736  17.651  24.485 -0.1030 -0.2497 -0.1765
92182W        W93046  17.012  24.157  25.285  0.0818 -0.0375  0.2027
92183W        W93047  16.068   4.215  18.181 -0.0400 -0.0412 -0.0239
92184W        W93048  20.851  23.762   2.099  0.0626 -0.2390  0.2291
92185W        W93049   2.113  27.119   2.507 -0.0593 -0.0203 -0.0715
92186W        W93050  14.787  19.098  12.813 -0.0806  0.1221  0.0085
92187W        W93051   5.008  28.408  23.412  0.0994 -0.1917  0.1722
92188W        W93052   7.309   7.310  11.328 -0.3106 -0.0426 -0.1601
92189W        W93053  13.408  26.822  27.009  0.2922  0.0071  0.3816
92190W        W93054  16.754   2.439  19.943 -0.1552  0.2914 -0.0035
92191W        W93055   3.833   7.845   8.281  0.1167  0.1115 -0.0592
92192W        W93056   8.450  14.935  22.895 -0.0175 -0.0275 -0.1706
92193W        W93057   2.900  21.477  10.769  0.2053 -0.2988 -0.1236
92194W        W93058  18.433  23.637  21.000 -0.2319  0.1313 -0.1685
92195W        W93059   2.461  18.154  19.162 -0.0758 -0.1656  0.2272
92196W        W93060  29.000  24.700  28.174  0.0499 -0.0733  0.1963
92197W        W93061  19.061  21.324  16.449  0.0490 -0.0464  0.3173
92198W        W93062  15.442   9.503  15.404  0.0398  0.1162 -0.4941
92199W        W93063   2.908  27.127  24.499 -0.0535  0.1569 -0.1391
92200W        W93064   0.492  26.951   0.136  0.2247  0.0779  0.0671
92201W        W93065  12.607   9.339  12.452 -0.0860  0.1702  0.1564
92202W        W93066   9.103   9.686  24.823 -0.0687  0.1534  0.0258
92203W        W93067  12.985   9.860  18.422  0.1340 -0.0933  0.3034
92204W        W93068   6.481  21.730  23.794  0.0979 -0.0120 -0.0322
92205W        W93069  13.511  16.765   0.082 -0.0903 -0.0670  0.1413
92206W        W93070   8.786   1.841  13.041  0.0383  0.1412  0.1514
92207W        W93071  16.676   9.710  19.542  0.2041 -0.1659  0.1517
92208W        W93072  14.169  27.991  14.701 -0.1437  0.2093 -0.0008
92209W        W93073  28.861  23.824  28.136  0.1820 -0.1703  0.1158
92210W        W93074  20.161   0.094  25.243 -0.0886 -0.0912 -0.3378
92211W        W93075  20.648  20.891   0.684 -0.2272  0.1347  0.1532
92212W        W93076  18.683   6.469  18.977 -0.1989  0.0589 -0.0208
92213W        W93077   1.549   3.962  26.078  0.0900  0.2562  0.1411
92214W        W93078  16.144  13.947  12.064 -0.0117  0.0944 -0.0799
92215W        W93079   0.360   8.541  20.847 -0.1578  0.0117  0.1051
92216W        W93080   7.344   6.578  24.777  0.0872  0.2128 -0.1877
92217W        W93081  15.934   9.264  25.613 -0.0757 -0.0437 -0.0346
92218W        W93082  12.598  23.464   6.789  0.0012  0.0574 -0.2796
92219W        W93083  21.378  11.818  10.035 -0.3102  0.1539  0.0019
92220W        W93084   6.768   6.572   1.387  0.0520 -0.0766 -0.1153
92221W        W93085  11.389  15.551  21.038  0.1798  0.0612  0.0243
92222W        W93086  19.919  15.580  25.015  0.0637 -0.2402  0.0859
92223W        W93087  18.068  18.265  19.332 -0.1842 -0.0259 -0.2081
92224W        W93088   5.914   2.145  27.756  0.1615  0.1366 -0.1355
92225W        W93089  10.394  10.749  27.128  0.0009 -0.0150  0.2152
92226W        W93090  18.830   0.951  26.051 -0.2600 -0.1930 -0.1027
92227W        W93091   8.034  12.350  11.172  0.0666  0.0394  0.1790
92228W        W93092  14.824  28.631  17.411 -0.3117 -0.1616 -0.1241
92229W        W93093   8.838  20.444  22.180  0.0955  0.2033  0.0877
92230W        W93094  13.718  14.888   0.657  0.0448 -0.2503  0.0043
92231W        W93095  28.756  22.186  14.267 -0.3649  0.4200  0.2121
92232W        W93096  13.760   7.616  19.266  0.1669 -0.1060  0.1475
92233W        W93097  26.475  15.303  15.806  0.0155 -0.2217 -0.0171
92234W        W93098  17.558  28.838   3.550 -0.1153  0.3092 -0.2481
92235W        W93099  22.869  22.323   4.256 -0.0833  0.3127 -0.1391
92236W        W93100  15.862   6.743  20.752  0.0429  0.0771 -0.4243
92237W        W93101   8.922   7.767   5.945 -0.1070  0.1897  0.1121
92238W        W93102   6.209  17.782  21.326 -0.3584 -0.0742  0.4323
92239W        W93103  23.440   1.434   7.357 -0.2494  0.0871 -0.0701
92240W        W93104  24.457  14.321   0.402 -0.1185 -0.4246 -0.1456
92241W        W93105  23.661   4.575   9.848  0.0037 -0.2573 -0.0503
92242W        W93106  21.318   3.126   5.830 -0.1905 -0.1443 -0.1029
92243W        W93107  26.398   3.113  18.875  0.2970 -0.1265  0.0253
92244W        W93108  10.808  17.820   8.929  0.1997 -0.0607 -0.1090
92245W        W93109  10.750  15.258  25.483  0.0721 -0.1751  0.1219
92246W        W93110  11.785  17.506  17.038 -0.0826  0.0472  0.0472
92247W        W93111  21.277  24.781   1.935  0.2193 -0.2753 -0.1045
92248W        W93112  11.384  10.644  23.096 -0.2868  0.0887 -0.1204
92249W        W93113   0.996  13.140  18.330  0.3589 -0.2101  0.0279
92250W        W93114   5.188   9.524   6.356  0.1939  0.1633 -0.1521
92251W        W93115   5.641  25.406  24.237  0.0288  0.2126 -0.1393
92252W        W93116  19.351  13.418   0.466  0.0354  0.1561 -0.0614
92253W        W93117  13.993  17.140   0.086  0.1701  0.2401  0.2464
92254W        W93118  16.665  27.711   4.833  0.0496 -0.1362  0.2317
92255W        W93119  21.291   7.550  24.074  0.2484 -0.4171 -0.0513
92256W        W93120  13.662  12.596   4.501 -0.3811  0.0003 -0.0603
92257W        W93121  16.112  21.780  21.860 -0.0440  0.1303 -0.1641
92258W        W93122  26.444  11.012  10.599  0.0419  0.2047 -0.1670
92259W        W93123   9.886  28.541  27.165 -0.1085 -0.1351  0.1286
92260W        W93124  21.897  22.631  13.861  0.0624 -0.1168 -0.0689
92261W        W93125  26.118   5.804  26.766  0.2134 -0.0271  0.2140
92262W        W93126  17.003   5.701  11.195 -0.0027 -0.1904  0.3434
92263W        W93127   6.218  18.712  22.828  0.3571 -0.1433 -0.1981
92264W        W93128  15.858   7.470  10.984  0.2812 -0.3456 -0.0245
92265W        W93129  16.156   2.051  12.249  0.1893 -0.2836  0.2945
92266W        W93130  19.722  17.263  13.430 -0.3199 -0.2811  0.0730
92267W        W93131  25.784  21.071  21.193  0.1285 -0.4085 -0.0314
92268W        W93132  16.197  27.749  16.007  0.3606 -0.2217 -0.1574
92269W        W93133  27.028   4.904  13.791  0.0399 -0.3720  0.1087
92270W        W93134  20.926  16.153  18.183 -0.1048  0.0619  0.1984
92271W        W93135  23.967   7.695   3.007 -0.1466 -0.2222  0.1158
92272W        W93136  14.659   8.406   4.644  0.0866  0.2155  0.1975
92273W        W93137  26.293  16.153   7.389 -0.1578  0.0470  0.3774
92274W        W93138   6.040  15.263  24.740  0.2365 -0.1694  0.0346
92275W        W93139  22.762  15.319  24.520  0.3054  0.2221 -0.1872
92276W        W93140  25.994  22.382  28.623  0.2340 -0.0169 -0.4994
92277W        W93141  10.277  23.001  28.626  0.1920 -0.0616  0.0065
92278W        W93142   1.606  28.839  24.514  0.0458 -0.3362 -0.1832
92279W        W93143  16.763  16.552  15.253 -0.2346  0.0954 -0.0855
92280W        W93144  12.900  26.046  11.003 -0.2676  0.0811  0.0174
92281W        W93145   7.835   5.878  17.653 -0.1845 -0.0474 -0.2504
92282W        W93146  15.188   2.756  25.167 -0.1169 -0.1436  0.0756
92283W        W93147  25.001  14.801   7.128 -0.1484 -0.0768  0.4580
92284W        W93148  10.690  17.743   4.471  0.1127 -0.0657  0.3693
92285W        W93149  26.386   7.561  11.145 -0.3559 -0.3400  0.1790
92286W        W93150  15.240  24.180  20.334  0.2345  0.0446 -0.6319
92287W        W93151   9.432  15.282  10.873 -0.1667  0.1140 -0.2600
92288W        W93152  22.674   3.021  10.446 -0.3102  0.3474  0.2045
92289W        W93153   8.646   9.967   3.012  0.0844 -0.1588  0.0792
92290W        W93154  21.793  18.075   8.952  0.2712 -0.0621  0.3095
92291W        W93155   2.487   7.103  14.648 -0.3053 -0.1579 -0.0216
92292W        W93156  26.949  12.085  16.962  0.1195 -0.2136 -0.2812
92293W        W93157  23.262  15.225  22.416 -0.2528 -0.1698  0.0869
92294W        W93158  20.604  12.442  25.441 -0.1690  0.2789  0.1442
92295W        W93159   2.863  14.931  21.884  0.2548 -0.0585 -0.0125
92296W        W93160  16.455  22.361  20.481 -0.1892  0.0090 -0.1057
92297W        W93161  18.442  13.769  12.961 -0.2513 -0.2767  0.1381
92298W        W93162   0.650   4.242  16.481 -0.1439 -0.0751 -0.1969
92299W        W93163  10.377  19.307   5.853 -0.0428 -0.1777  0.0274
92300W        W93164   2.737  23.494  11.945 -0.1900 -0.1301 -0.0915
92301W        W93165  15.336   5.835   7.644  0.1208 -0.1401 -0.1406
92302W        W93166  18.412  12.489   4.794  0.0441 -0.2721  0.3107
92303W        W93167   9.292  12.202   8.984  0.1982  0.1775 -0.0003
92304W        W93168  20.083  10.967  20.568 -0.0863 -0.0929 -0.0982
92305W        W93169   9.196   3.424  18.644  0.3680  0.1751  0.1923
92306W        W93170   4.350   4.543   9.229 -0.0860  0.1533  0.4246
92307W        W93171   2.619  15.769   1.604  0.2535  0.1095  0.2151
92308W        W93172  15.134   5.815  20.934 -0.1974 -0.0101  0.1328
92309W        W93173   6.725  24.354   6.969 -0.0174  0.0827 -0.1905
92310W        W93174  25.546  21.555   8.072 -0.1700  0.0728  0.0724
92311W        W93175  14.960  10.316  13.653 -0.2109 -0.2244 -0.1304
92312W        W93176   6.878  11.962  19.299  0.2397  0.0663  0.4272
92313W        W93177   0.363  19.530  24.011  0.0177  0.0111  0.0331
92314W        W93178   9.746   8.766   4.470 -0.2929 -0.0592  0.0495
92315W        W93179   3.789   4.300  24.498 -0.0429 -0.1731  0.0421
92316W        W93180   0.629  26.234  15.739 -0.0542 -0.1700 -0.0547
92317W        W93181  24.060   3.860  20.131  0.3205 -0.1331  0.1653
92318W        W93182  23.936   7.050  21.676 -0.0778 -0.1042 -0.1534
92319W        W93183  13.229  27.290   6.517  0.1355 -0.0388 -0.3282
92320W        W93184   8.827  21.339   3.005  0.3241 -0.1549 -0.0927
92321W        W93185  24.990  23.709   0.160 -0.1546 -0.1131  0.1805
92322W        W93186  15.840  17.952  13.010 -0.2234  0.0874  0.0923
92323W        W93187  17.380  12.243   7.527 -0.2195 -0.1076 -0.1268
92324W        W93188   6.655  24.926  21.305  0.1910 -0.0429 -0.1211
92325W        W93189  24.456  28.881  13.503  0.0240 -0.0797  0.1632
92326W        W93190   3.728  13.258  10.895  0.2281 -0.1094 -0.1680
92327W        W93191  10.205   7.267  25.756  0.0582 -0.0418  0.0367
92328W        W93192  10.938  17.726   7.584  0.0171  0.1251 -0.2167
92329W        W93193  24.539  26.810  18.834  0.2544 -0.0792 -0.2240
92330W        W93194  18.244  13.453  27.999 -0.0388 -0.0044 -0.1678
92331W        W93195  15.000  12.835  16.978 -0.2641  0.1093 -0.0561
92332W        W93196   1.539  15.391  20.114 -0.3273 -0.2111 -0.2525
92333W        W93197  18.356   1.161  12.817 -0.0972  0.1654 -0.1327
92334W        W93198   2.440  23.677  15.846 -0.0888  0.3518  0.0541
92335W        W93199   9.411   0.644  25.890 -0.1460  0.0219  0.1249
92336W        W93200   5.409   9.656   3.456 -0.1864 -0.3139  0.3231
92337W        W93201  10.565   4.508  23.226 -0.1278  0.0799 -0.1474
92338W        W93202  18.789   4.740  20.909 -0.1646  0.3066 -0.3176
92339W        W93203   5.573  15.679  26.159  0.0331  0.1527  0.0758
92340W        W93204  15.190   2.295  17.294  0.0321 -0.1680 -0.0161
92341W        W93205  20.610   2.187   4.271  0.0908 -0.0434  0.1569
92342W        W93206  27.605  12.752  16.942  0.1115  0.0497 -0.0653
92343W        W93207   4.271  17.219  26.142  0.0028 -0.2878  0.2895
92344W        W93208  19.064   4.475   9.325  0.2050  0.2758 -0.0009
92345W        W93209  27.371  24.421   3.808  0.4682 -0.1007 -0.2547
92346W        W93210  13.097  20.205   0.806  0.2914 -0.1542 -0.0274
92347W        W93211  24.877  28.481  16.094  0.1789  0.0075 -0.1698
92348W        W93212  22.407  23.004  20.167 -0.2241  0.1742 -0.1577
92349W        W93213  27.309   3.495   3.659 -0.2194  0.2288 -0.1742
92350W        W93214  17.047  15.164  20.126  0.1739  0.0812  0.0877
92351W        W93215  22.221  21.652  10.697  0.1230  0.0152  0.0862
92352W        W93216  15.267  22.676   0.121  0.4697 -0.1497 -0.3246
92353W        W93217   3.752  18.359   8.655  0.1190 -0.1829  0.4300
92354W        W93218  24.805  15.049   7.690 -0.1797  0.1131  0.0005
92355W        W93219  20.954  20.713  17.022 -0.1396  0.0622 -0.0885
92356W        W93220  10.471  13.838  23.999 -0.0562  0.1901 -0.1333
92357W        W93221   1.016  18.206  21.753  0.0593 -0.0267  0.0486
92358W        W93222  22.059  26.488  27.464  0.0039  0.1176 -0.2657
92359W        W93223   0.474  11.113   0.943  0.0764  0.0365 -0.0591
92360W        W93224  11.358  17.384  24.840 -0.0838  0.1470 -0.0171
92361W        W93225  27.531  16.437  28.506 -0.0360  0.0133 -0.0857
92362W        W93226   3.638   6.917  19.267 -0.0984  0.1945  0.1697
92363W        W93227   0.310  15.213  17.705 -0.2791 -0.0350 -0.2256
92364W        W93228  22.320  12.544   2.706  0.3596  0.3298  0.1043
92365W        W93229  10.232  20.570   2.858 -0.0085 -0.0545  0.0841
92366W        W93230  23.429  11.621  25.244 -0.0140 -0.0942 -0.0893
92367W        W93231  28.669  17.204  21.020  0.2146  0.0609  0.0938
92368W        W93232   6.518  21.862  11.762  0.0718  0.0350 -0.1491
92369W        W93233  27.518  20.492  26.623  0.2714  0.0176 -0.0603
92370W        W93234   4.422  10.993   2.121  0.0099  0.0446 -0.0831
92371W        W93235  25.286  16.387  18.620  0.2690 -0.0082 -0.0744
92372W        W93236   4.140  22.908  16.110 -0.3055  0.0719 -0.0464
92373W        W93237   3.712  13.756  26.549 -0.1183  0.0857  0.1199
92374W        W93238  12.657  26.342  26.299 -0.0518 -0.2610 -0.2314
92375W        W93239  24.171  13.069  22.507  0.2550  0.2266  0.1003
92376W        W93240   5.741  17.824   8.889 -0.3616  0.2757 -0.0106
92377W        W93241   2.246   4.809  17.679 -0.1119  0.2395 -0.0582
92378W        W93242  13.195  28.618  23.694  0.0272  0.1361 -0.0889
92379W        W93243  19.853   3.949   7.172  0.1256  0.3251 -0.1138
92380W        W93244   0.175  19.443   3.469  0.0515 -0.1076  0.1843
92381W        W93245  24.935  17.701  19.627 -0.2522  0.0990  0.0624
92382W        W93246  24.600  17.750   3.343  0.1428 -0.3310 -0.2336
92383W        W93247   7.691   9.670  15.478  0.0089  0.1775 -0.4373
92384W        W93248   5.812   8.805  14.158  0.3001 -0.1167 -0.1609
92385W        W93249  26.020  14.339  20.454 -0.4884  0.0054 -0.4000
92386W        W93250   5.834  12.676  23.561 -0.1149  0.0166  0.0496
92387W        W93251   3.446  23.336  25.699  0.0112  0.2321  0.0078
92388W        W93252  12.758   7.917  23.840  0.2699  0.3690  0.0819
92389W        W93253  23.455  11.907  18.678 -0.1418 -0.0423 -0.0073
92390W        W93254   1.083   1.783  14.934  0.3424 -0.3178  0.0310
92391W        W93255  17.187  10.985  26.081  0.0215 -0.0485  0.2157
92392W        W93256  19.966  18.177  26.666 -0.2799  0.1570  0.0767
92393W        W93257  21.309   2.772  20.988  0.1076 -0.1092 -0.0175
92394W        W93258  19.985  24.709  24.845 -0.0150 -0.4169 -0.1714
92395W        W93259   6.858  27.284   3.835 -0.0001  0.0960  0.0274
92396W        W93260  10.219  14.317  13.726  0.0265  0.0462  0.0517
92397W        W93261   5.236  27.447   3.461 -0.4415  0.1116 -0.3172
92398W        W93262  19.692   4.044  16.860  0.0720 -0.0937  0.2894
92399W        W93263  11.972   0.334   1.446 -0.1232 -0.1451  0.0065
92400W        W93264  25.606  17.658  25.054 -0.0920  0.2295 -0.0003
92401W        W93265  14.402  22.882  17.134  0.0843 -0.1097 -0.1189
92402W        W93266   9.714  13.875  15.016 -0.0906  0.2202  0.3156
92403W        W93267  27.028  22.424  23.001 -0.1859  0.0133 -0.0853
92404W        W93268   6.985   2.501  19.487  0.1460  0.0030  0.0700
92405W        W93269  24.725   5.459  16.133  0.0560  0.0412 -0.2816
92406W        W93270   5.997  19.104  10.066 -0.0947 -0.1766  0.1130
92407W        W93271  15.006  15.801  19.002  0.1837  0.0572  0.3171
92408W        W93272   4.218   9.763  28.094 -0.1896  0.1740 -0.1235
92409W        W93273  11.641  23.570  25.179 -0.1884 -0.2794 -0.1772
92410W        W93274  22.842   0.591  20.241 -0.0237 -0.1279 -0.2479
92411W        W93275  16.881   7.812   9.672 -0.1378  0.1170 -0.0502
92412W        W93276  13.687  14.359  23.381  0.1265  0.0067 -0.1917
92413W        W93277   3.270  24.259  23.589  0.0185 -0.0390 -0.2421
92414W        W93278   0.218  13.284  20.555 -0.1292 -0.0202 -0.0022
92415W        W93279   2.888   1.879  18.733  0.0153 -0.0496  0.2664
92416W        W93280  16.238   5.395  14.582 -0.1331 -0.0878  0.0578
92417W        W93281  18.428  13.586   7.809  0.0756 -0.0694 -0.0227
92418W        W93282   9.730  14.259   8.055  0.2209  0.0259  0.0195
92419W        W93283  12.166   0.694  22.070 -0.2437 -0.1357  0.3320
92420W        W93284  20.965   5.827   9.626  0.1508 -0.1018  0.3053
92421W        W93285   2.318  21.508  21.980 -0.0651 -0.0647  0.2085
92422W        W93286  12.255   9.568  24.419  0.1017 -0.0016 -0.1154
92423W        W93287  20.383  23.101  25.897 -0.4449 -0.2206  0.2607
92424W        W93288  18.547  25.795  16.464  0.0766 -0.0020 -0.2479
92425W        W93289  17.591  28.327  21.986 -0.0506 -0.2537  0.2077
92426W        W93290   5.104  23.589   0.643  0.0327 -0.0557 -0.1344
92427W        W93291  13.632  13.886  23.303 -0.1113  0.0565 -0.5043
92428W        W93292  15.114  10.967  24.404 -0.1926 -0.0247 -0.1861
92429W        W93293   4.473  24.491  27.420  0.2557 -0.0577  0.2210
92430W        W93294   6.971   3.955   7.740 -0.0586 -0.1588 -0.2198
92431W        W93295  13.954  12.720  15.844  0.0979 -0.1819  0.0271
92432W        W93296   9.151  13.819  12.702 -0.2365  0.5463  0.0655
92433W        W93297  11.502   0.358  13.264 -0.2006  0.0181  0.0360
92434W        W93298  17.457  23.273  24.405 -0.0629 -0.1090  0.0809
92435W        W93299  23.343   9.717  17.554 -0.1437 -0.1261  0.3011
92436W        W93300   7.589  11.439  25.960  0.2937  0.1503 -0.2580
92437W        W93301  13.733  13.052   0.100  0.3264 -0.4061 -0.0069
92438W        W93302  14.139  23.829  21.096  0.2701 -0.0064 -0.0351
92439W        W93303   2.127  17.001  22.679  0.0903  0.0982  0.1149
92440W        W93304  14.816  12.222  26.260 -0.0405  0.1480 -0.0316
92441W        W93305  25.906  15.695  24.423 -0.0945 -0.4872  0.1407
92442W        W93306  26.930  21.202   5.259 -0.0617 -0.1780 -0.1142
92443W        W93307  26.869  26.027  19.113 -0.2175 -0.1138 -0.1408
92444W        W93308  12.834  22.079   9.257  0.1406 -0.0271 -0.0725
92445W        W93309  10.345   9.886  23.611  0.2714  0.1459  0.3074
92446W        W93310   9.043  11.114  14.129 -0.0372 -0.0904  0.0592
92447W        W93311  21.958  15.016   8.773  0.3933  0.0013 -0.0754
92448W        W93312   6.034  23.792   7.406 -0.0305 -0.2543 -0.0466
92449W        W93313   2.072   8.875  11.252 -0.0955  0.0246 -0.3128
92450W        W93314  22.134   6.983   8.006  0.1117  0.1440  0.1289
92451W        W93315  13.572  26.943  22.728  0.0548 -0.2185  0.0796
92452W        W93316  19.541   6.040  13.354  0.1014  0.0466  0.1812
92453W        W93317   5.215  26.665  28.003 -0.0111  0.1003  0.1705
92454W        W93318   1.725   7.351  25.548 -0.0525  0.0625 -0.3292
92455W        W93319   7.392   7.482  21.820 -0.0722  0.2697 -0.0921
92456W        W93320  13.460  22.753  14.050 -0.1670  0.1228 -0.1854
92457W        W93321  23.061  14.556  28.179  0.0583  0.0239  0.0637
92458W        W93322  26.989  17.254  28.418 -0.0340  0.0956 -0.2294
92459W        W93323  18.727   0.604  20.300  0.2420  0.2255  0.0295
92460W        W93324  13.665   6.341  19.042 -0.2047  0.2119  0.1014
92461W        W93325  12.525  22.625  16.801  0.0483  0.1675  0.1897
92462W        W93326  23.313  12.036  21.649  0.3381 -0.0457  0.0097
92463W        W93327  14.778  20.571  26.483 -0.0713 -0.0987 -0.0452
92464W        W93328   0.402  11.508  16.610 -0.1412 -0.1091  0.1008
92465W        W93329   5.736  15.643  20.938 -0.1687  0.0749 -0.1590
92466W        W93330  26.749  12.189   0.633 -0.1118 -0.3137  0.0992
92467W        W93331  13.494  25.193  16.515 -0.1399 -0.0641  0.0871
92468W        W93332   6.681  20.306  28.057 -0.3895  0.4192 -0.1690
92469W        W93333  21.776  20.455  20.770  0.1459  0.1605 -0.2635
92470W        W93334   0.617   9.254  12.976  0.1750  0.0195  0.0156
92471W        W93335   6.615   8.250   2.239 -0.0106  0.0406 -0.0269
92472W        W93336  19.180  28.987  22.053  0.0148 -0.0013  0.1106
92473W        W93337   3.696   6.599   6.538 -0.3426  0.1284 -0.1744
92474W        W93338  10.670   8.579  26.955 -0.0902 -0.1072  0.0402
92475W        W93339  16.719  12.370  25.512  0.0087 -0.1979  0.0508
92476W        W93340  27.672  12.284  18.686  0.1917  0.0224 -0.2177
92477W        W93341  18.995  20.013  24.945  0.2389  0.1090  0.3167
92478W        W93342  21.783  10.226  14.905  0.0778  0.1802 -0.0223
92479W        W93343   5.076  12.980  20.436  0.2458 -0.3166  0.0252
92480W        W93344   6.767   3.651  25.402  0.1033  0.3446 -0.3292
92481W        W93345   6.491  18.902  13.643 -0.0777  0.1981  0.2349
92482W        W93346   7.756   6.444  16.566  0.1259  0.0800  0.0153
92483W        W93347   6.384  24.806  23.585 -0.2137 -0.0102 -0.0483
92484W        W93348  15.399  19.361  20.725 -0.1450 -0.0161 -0.1517
92485W        W93349   7.666  11.760  23.242 -0.0440 -0.0980  0.0758
92486W        W93350  23.095  29.113   1.268  0.0348 -0.1477  0.0170
92487W        W93351  23.871   9.547  26.498 -0.2002 -0.0296 -0.1233
92488W        W93352   0.107  26.295  16.027 -0.0215 -0.1600  0.1486
92489W        W93353  16.059  18.079   1.609  0.1672 -0.0747  0.1270
92490W        W93354   5.020   9.732  13.028  0.0669 -0.2797  0.1732
92491W        W93355  21.674   5.353   0.312 -0.0506  0.1894  0.4165
92492W        W93356  14.320  28.183  28.435 -0.2976  0.1301  0.2256
92493W        W93357  14.286  28.044  20.239  0.0181  0.3483  0.1073
92494W        W93358  10.892  19.114   1.034  0.0395  0.2809  0.0017
92495W        W93359  13.506  20.936  26.855  0.1422 -0.1172  0.2031
92496W        W93360  12.369  17.793   3.954 -0.1340 -0.2685 -0.1367
92497W        W93361   7.431  13.360  18.119  0.0980  0.1333 -0.1011
92498W        W93362  25.907  19.008  28.659 -0.1685  0.0601 -0.2014
92499W        W93363  21.955  22.860  22.985  0.0489  0.2284 -0.1391
92500W        W93364  12.076   5.618  16.315 -0.1077 -0.1983 -0.0390
92501W        W93365  17.714  26.803  21.457 -0.0690  0.0492 -0.2220
92502W        W93366  10.798   7.116  24.159  0.1691 -0.1333 -0.1686
92503W        W93367   6.475  21.738  27.903  0.1138 -0.0010  0.0437
92504W        W93368  17.165   1.395  20.733 -0.2160 -0.0220  0.1008
92505W        W93369   4.170   6.615  23.418  0.1663 -0.0185 -0.0969
92506W        W93370  12.967  16.477  27.688  0.3177 -0.0394  0.1964
92507W        W93371  26.386  13.769   1.710  0.2558  0.0687  0.0578
92508W        W93372  18.776  13.133  16.541  0.0254 -0.3483 -0.0437
92509W        W93373  26.402   7.566   7.987 -0.3695  0.1287  0.2063
92510W        W93374   6.736  13.226  19.630 -0.1105 -0.0409  0.4237
92511W        W93375  12.197  16.108  19.623 -0.2168  0.3615 -0.1550
92512W        W93376   4.515  25.906  16.382 -0.0988 -0.0897 -0.1289
92513W        W93377  14.279  14.310  13.160 -0.2668  0.0329  0.0547
92514W        W93378   6.371  17.692  14.859  0.0245 -0.0184 -0.1452
92515W        W93379  14.346  15.078  21.469 -0.0552  0.3414 -0.0451
92516W        W93380  12.128  20.267  22.032  0.6322  0.3148  0.0892
92517W        W93381  19.375  16.721  15.142 -0.0327  0.0512  0.1266
92518W        W93382  28.411  10.867  25.369 -0.2855  0.3024 -0.0943
92519W        W93383  22.521   6.562   3.999  0.1807  0.0148 -0.2771
92520W        W93384  19.442  23.699  19.554 -0.1084 -0.0941  0.0981
92521W        W93385  21.555  16.168  24.911  0.2631 -0.4996 -0.2749
92522W        W93386   0.900  14.069   1.975  0.1749  0.0602  0.2915
92523W        W93387  28.372  25.923   6.684  0.0381 -0.3257  0.3445
92524W        W93388  12.429   2.503  27.566  0.0548  0.1197  0.1940
92525W        W93389   3.244  17.510  18.716 -0.0204  0.2733 -0.1401
92526W        W93390  13.030  24.032  11.308  0.0392  0.0415 -0.2045
92527W        W93391   8.818  21.505  21.162 -0.1143 -0.0841  0.2666
92528W        W93392   6.568  18.308  25.017 -0.2766  0.2381 -0.0878
92529W        W93393   3.569  22.268  24.509  0.0045  0.1916  0.3320
92530W        W93394   9.885  21.657  16.683  0.0634 -0.0999 -0.0365
92531W        W93395  11.172  13.091  23.768 -0.0017 -0.2034 -0.3097
92532W        W93396   8.019  14.634  15.667 -0.0765  0.0464  0.0282
92533W        W93397   2.848   2.532   2.104  0.0487 -0.0941  0.1828
92534W        W93398  26.745  17.454  27.267 -0.4062 -0.2033 -0.1137
92535W        W93399  25.290  15.708  12.774  0.0547 -0.0647 -0.3957
92536W        W93400  25.741  11.611  24.730  0.1702  0.0693  0.1506
92537W        W93401  23.478  10.116  18.857 -0.0198 -0.0475  0.2581
92538W        W93402  16.087  25.183   6.054 -0.1426  0.0585 -0.2228
92539W        W93403  17.636  20.044  20.396 -0.0389  0.2340  0.3000
92540W        W93404  13.136   1.936   9.626 -0.1575  0.2030  0.3359
92541W        W93405  12.746   9.139  27.457 -0.0972  0.1647 -0.1072
92542W        W93406  23.784  22.468  10.455  0.0097 -0.0559 -0.0403
92543W        W93407   5.256   1.092   7.563 -0.0677  0.0906 -0.0059
92544W        W93408   4.233  10.924  19.928 -0.0051  0.1058 -0.1039
92545W        W93409   8.437  23.420   4.067 -0.3148 -0.1207  0.2050
92546W        W93410  29.090  22.255  27.423  0.0623 -0.2165 -0.0883
92547W        W93411  12.988  27.291  25.369  0.1315 -0.1756 -0.1762
92548W        W93412  13.502   3.866   2.104  0.2921  0.2668  0.0427
92549W        W93413   1.293  19.591  28.883  0.1341 -0.1745 -0.0651
92550W        W93414  28.374   5.853  13.529  0.2810  0.0229 -0.1623
92551W        W93415   9.835   7.016  17.912  0.1831  0.1120 -0.1473
92552W        W93416  28.448   2.496  27.032  0.3535 -0.3131 -0.0666
92553W        W93417  19.469   7.388  15.295  0.1092  0.2493 -0.0082
92554W        W93418  14.137  13.923  25.379  0.3215  0.4799  0.2517
92555W        W93419  14.933  18.591  15.264  0.1064 -0.3017  0.2375
92556W        W93420  20.261  23.744   0.649  0.1086 -0.0350  0.1820
92557W        W93421  22.927  10.303  15.953  0.0920 -0.0096 -0.0679
92558W        W93422  28.601  27.557  18.690  0.1262  0.0785 -0.2048
92559W        W93423  12.805   6.802  21.968 -0.0026 -0.2657 -0.0088
92560W        W93424  16.984  27.573  13.300 -0.1100  0.2134 -0.2912
92561W        W93425  11.258  15.558   9.453  0.0772 -0.1569 -0.0125
92562W        W93426   8.449   6.318  27.365  0.1049  0.2828 -0.0788
92563W        W93427  16.695  19.793   4.518 -0.1269  0.0347 -0.1371
92564W        W93428  18.775   5.825   3.529  0.1027  0.0498 -0.3003
92565W        W93429   3.891  24.122  23.382  0.1877 -0.0816 -0.3752
92566W        W93430   1.391  11.060   2.819 -0.0730 -0.1187  0.0351
92567W        W93431  11.154  17.759  13.846  0.0202 -0.0611  0.2058
92568W        W93432  21.745  18.691  12.074 -0.1201  0.3292  0.4191
92569W        W93433  16.581  11.611  11.441  0.2488  0.1053  0.2470
92570W        W93434  12.389   9.334   0.012  0.0570 -0.1448 -0.1606
92571W        W93435   4.785  19.592  27.886  0.1198  0.0726 -0.1035
92572W        W93436  13.973  26.810  15.139  0.1639  0.2291 -0.0664
92573W        W93437   3.797  18.623   7.899 -0.2255 -0.1593  0.0652
92574W        W93438  27.376  23.517   1.936  0.0181 -0.0536 -0.1423
92575W        W93439  19.996  25.470  17.351 -0.0137 -0.2396  0.2807
92576W        W93440  20.444   9.379   6.972  0.0444  0.3387  0.0430
92577W        W93441  17.742  27.289  14.489 -0.1723  0.0145 -0.2048
92578W        W93442   4.434   9.700  23.564 -0.1250  0.1330  0.0880
92579W        W93443  18.854  19.611  19.302  0.2112 -0.2245 -0.2022
92580W        W93444   7.385  17.137   7.282  0.1640 -0.1965  0.3940
92581W        W93445  19.075  21.312  26.765  0.1942  0.1015 -0.1168
92582W        W93446  12.733  20.332  22.101 -0.1496  0.4277 -0.1667
92583W        W93447   3.541  15.939  20.619  0.0834  0.1816 -0.0226
92584W        W93448  26.898  18.259   0.911 -0.1465  0.1997  0.1845
92585W        W93449  14.269  15.749   9.116 -0.0669 -0.2117  0.0226
92586W        W93450  17.889  28.305   5.826  0.2201 -0.2272  0.0212
92587W        W93451   3.986  16.889  26.716 -0.1325  0.2588  0.1727
92588W        W93452  10.636  19.477   6.253  0.2327  0.2265  0.1447
92589W        W93453  24.352   7.682  21.167 -0.1672  0.0588 -0.0884
92590W        W93454  11.048  19.078  13.095  0.3305  0.0151  0.2216
92591W        W93455   1.697  11.703   2.401 -0.2246 -0.0560 -0.1210
92592W        W93456  10.357  14.380  23.508  0.0585 -0.3056  0.0702
92593W        W93457   8.240  16.108  14.934 -0.0405 -0.0727 -0.0791
92594W        W93458   8.833  21.623  29.102  0.2821  0.0599  0.0073
92595W        W93459  25.876  26.526  21.670  0.0562  0.1450  0.0519
92596W        W93460  21.197  14.287  24.747  0.0065 -0.0868 -0.2448
92597W        W93461  23.809   4.698  24.587 -0.0099  0.1157  0.0789
92598W        W93462   1.895  20.107   4.401  0.0631  0.0033  0.1079
92599W        W93463  13.720  12.418  21.400 -0.1297  0.0435 -0.0914
92600W        W93464  19.950  14.169  23.426  0.1019  0.0274  0.0605
92601W        W93465  16.128   7.036   5.131  0.1333 -0.1483 -0.1060
92602W        W93466   5.543  25.144  10.780  0.1043  0.2595  0.1458
92603W        W93467  27.920  20.874  23.585 -0.1130  0.0717  0.0608
92604W        W93468  11.245   7.696  25.323 -0.1717  0.0881  0.1958
92605W        W93469  11.298  12.580  15.971 -0.1569  0.0346 -0.0964
92606W        W93470  21.537  13.285   5.052 -0.2672 -0.0119  0.4437
92607W        W93471  14.747  16.211  22.912 -0.3071  0.0393 -0.0861
92608W        W93472  13.719   7.977   1.175  0.0435 -0.0923  0.0974
92609W        W93473   5.539  17.972  27.966 -0.0337  0.0514  0.1018
92610W        W93474   1.213   5.497  21.242 -0.0290  0.2287  0.0825
92611W        W93475  22.068  21.726   8.945  0.1197 -0.2484  0.1334
92612W        W93476   8.869  17.862   1.874 -0.1570  0.1490  0.1025
92613W        W93477  23.221  23.900   1.167 -0.0420 -0.1963  0.1049
92614W        W93478   7.885  20.029   4.443 -0.3098  0.0108 -0.0343
92615W        W93479   8.957   0.009  12.022  0.0193 -0.0225 -0.1873
92616W        W93480   3.903   3.604  18.168 -0.1135 -0.1538 -0.1109
92617W        W93481  18.708  14.334   1.254 -0.1547 -0.0413 -0.0326
92618W        W93482  21.357  18.696  22.432 -0.0924  0.1367 -0.0447
92619W        W93483   4.033  21.428   0.826 -0.3772  0.3237  0.3447
92620W        W93484  11.253  20.932  24.332 -0.0738  0.1995 -0.1155
92621W        W93485  18.663   6.914  27.503  0.0692  0.2481  0.1860
92622W        W93486  11.562  21.685   1.510  0.2172 -0.0147  0.1471
92623W        W93487  20.855  11.112   3.355  0.0081  0.2098  0.2131
92624W        W93488  11.348  20.519   5.124  0.2730 -0.0761  0.0617
92625W        W93489  17.376  18.084  20.071  0.2295  0.2322  0.1758
92626W        W93490  12.845   4.212   8.095 -0.2826 -0.1813 -0.0187
92627W        W93491   8.916  13.240   4.066  0.2394 -0.1404 -0.0219
92628W        W93492  12.397  19.045   1.362  0.2685 -0.1415 -0.2089
92629W        W93493  14.820  16.606  11.670  0.0853  0.1016 -0.1491
92630W        W93494   6.587  11.311   3.051  0.2761 -0.1226 -0.0224
92631W        W93495  11.032  18.625  24.212  0.0165  0.0483  0.1162
92632W        W93496  18.293  23.339   1.730  0.0173 -0.1664  0.1067
92633W        W93497  13.600  15.783   6.130 -0.0140 -0.0405  0.1274
92634W        W93498   5.075  11.622   1.992 -0.1275  0.0750  0.1900
92635W        W93499  20.380   1.503  12.654  0.0865 -0.2583 -0.3960
92636W        W93500   9.337  19.148  17.306 -0.0816  0.0948 -0.0615
92637W        W93501  10.056  16.643  15.883 -0.1339 -0.1015  0.1059
92638W        W93502  16.007  16.592  20.288 -0.2586  0.0790  0.1641
92639W        W93503   9.907   3.494  14.870  0.1353  0.1358  0.1769
92640W        W93504   0.870  10.896  24.161  0.0992  0.0597  0.0460
92641W        W93505  18.203   8.226   8.708 -0.2027 -0.0027 -0.1137
92642W        W93506  28.838  23.257   2.218  0.1896  0.1490  0.0732
92643W        W93507   9.986  27.008  12.413 -0.1852 -0.0463  0.0788
92644W        W93508   3.256  28.882  13.068  0.3637  0.1670  0.0169
92645W        W93509   9.793  14.560  13.848  0.4750  0.0633  0.1038
92646W        W93510  20.341   5.264  21.256  0.1404  0.1591  0.2324
92647W        W93511   9.743   5.640   4.660  0.2224 -0.2034 -0.1122
92648W        W93512   2.545  12.020  23.815  0.1086 -0.1139  0.2103
92649W        W93513  16.355   2.340   6.576  0.0614  0.0689  0.1436
92650W        W93514   9.026  18.146  19.992 -0.0793  0.1764  0.2007
92651W        W93515  15.169  26.235  15.532 -0.2128  0.0452 -0.2684
92652W        W93516   9.974   9.957   7.430  0.1538 -0.1327  0.0138
92653W        W93517  17.617   9.437   1.858  0.0094  0.2317  0.0479
92654W        W93518   6.747  20.855  27.955 -0.0339  0.1325  0.0357
92655W        W93519  18.827  21.499  27.177  0.3863  0.0047  0.0539
92656W        W93520  26.064  19.324  24.047  0.2351  0.2109 -0.2012
92657W        W93521  26.895   6.044  19.505 -0.0534 -0.0036 -0.2114
92658W        W93522  24.991  14.405   2.629 -0.7857 -0.0357 -0.1397
92659W        W93523  13.516   3.040  19.252 -0.1952 -0.0659  0.0038
92660W        W93524  26.517  18.455  28.336 -0.0194 -0.0985 -0.1926
92661W        W93525  26.948   6.830  28.672 -0.0206  0.1254 -0.1168
92662W        W93526   9.597  22.798  25.523 -0.0923  0.0575  0.0916
92663W        W93527  10.529   9.582  21.810 -0.2017  0.3609 -0.2763
92664W        W93528  23.531  17.675  25.918  0.0905 -0.0100 -0.0048
92665W        W93529  19.540  10.860   2.745  0.1338  0.1298  0.3930
92666W        W93530  14.250   2.990  18.309  0.0797  0.0164 -0.0957
92667W        W93531   5.682   5.077   6.531 -0.2237  0.0755 -0.4952
92668W        W93532  16.658   9.900   0.723  0.0233 -0.1676 -0.0055
92669W        W93533   3.156  22.603  21.350 -0.1763  0.0246  0.3129
92670W        W93534  15.941  22.986  28.458 -0.0057 -0.1524 -0.2408
92671W        W93535   6.699  15.678  13.815 -0.2142  0.1390  0.1511
92672W        W93536   1.863  26.289  25.900 -0.2043 -0.2426  0.3951
92673W        W93537  13.890  10.190   6.186 -0.0996  0.1243  0.1542
92674W        W93538  10.958  12.239  27.847  0.2470 -0.0659  0.1801
92675W        W93539  24.488  11.118   5.908 -0.1673 -0.0335 -0.3114
92676W        W93540   1.340  27.661  13.208  0.1557  0.0058 -0.0302
92677W        W93541  24.191  19.753  25.219  0.0509 -0.0391  0.0420
92678W        W93542  21.889  18.122  26.134 -0.0486  0.2158  0.0190
92679W        W93543  14.438  11.524  24.191  0.3167 -0.2003  0.2810
92680W        W93544  10.477  22.698   9.107  0.1382 -0.1732  0.0374
92681W        W93545   7.403  13.667  19.890 -0.2055  0.3017 -0.3998
92682W        W93546  16.211  27.863  17.371 -0.0667 -0.2596 -0.1080
92683W        W93547  25.826  14.557  12.200 -0.0128  0.1402 -0.0737
92684W        W93548   8.994   4.282  22.462  0.0059 -0.3864  0.0596
92685W        W93549   5.688   2.811  13.651  0.2425  0.0194  0.0842
92686W        W93550  23.008   3.408  16.890  0.0609  0.2448 -0.1231
92687W        W93551  19.568   5.259   9.391  0.2932  0.1435  0.0395
92688W        W93552  26.099  16.971   7.895 -0.1437  0.0576 -0.1091
92689W        W93553  12.279   5.786  24.542 -0.2717  0.0288  0.0768
92690W        W93554  28.051  15.200  10.821  0.2093 -0.1792 -0.2313
92691W        W93555  18.985  11.400  20.490  0.0011 -0.2760  0.2737
92692W        W93556  19.309  16.868   8.008 -0.1648  0.0949 -0.0786
92693W        W93557  11.751  14.025  24.712  0.0416 -0.0832  0.2679
92694W        W93558   8.052  11.956  26.812 -0.1952 -0.1100 -0.0959
92695W        W93559  15.946  16.878  11.173  0.1694 -0.0446  0.1056
92696W        W93560   7.497   4.425  19.398  0.1575 -0.0299  0.1588
92697W        W93561  12.739  22.233  10.583  0.0545 -0.2181 -0.2986
92698W        W93562  14.723  10.507   3.624 -0.1275  0.0280 -0.3737
92699W        W93563  19.015  16.954  28.684  0.1967  0.1634  0.0997
92700W        W93564  11.326  20.392  16.396 -0.0034 -0.0189 -0.3103
92701W        W93565  12.341   4.793  15.708  0.0676  0.0829  0.1917
92702W        W93566  10.045   4.359   0.832  0.0318 -0.2579 -0.1312
92703W        W93567   0.570  26.977  12.297  0.0433 -0.1295 -0.1623
92704W        W93568  11.185  14.572   1.141 -0.0052 -0.0565  0.0606
92705W        W93569  21.398  28.793  19.896  0.0737 -0.0646 -0.0499
92706W        W93570  28.265  24.476  15.544  0.0227  0.0852  0.1355
92707W        W93571  19.210   9.600   9.376 -0.1252  0.0794  0.4084
92708W        W93572  25.757  12.829  23.972  0.1988  0.1096 -0.2288
92709W        W93573  10.074  25.555   3.691 -0.0741 -0.0150  0.1090
92710W        W93574   7.839  15.443   3.451  0.0607 -0.0466 -0.3957
92711W        W93575   8.806  28.958  21.135 -0.0688  0.2160 -0.2754
92712W        W93576   5.361  28.685  20.635 -0.1139  0.1655  0.1763
92713W        W93577  23.311  15.946   7.320 -0.0098  0.0146  0.0868
92714W        W93578  21.652   4.717   9.230 -0.2127 -0.0255  0.1420
92715W        W93579  21.486   9.826   2.632  0.1253 -0.3404 -0.0437
92716W        W93580  27.937  18.023   6.133  0.1730  0.1798 -0.0858
92717W        W93581   7.564  16.670   4.631 -0.2753  0.1822  0.3041
92718W        W93582  26.437  20.755  15.560 -0.4763  0.0099  0.1567
92719W        W93583   3.364  21.753   6.143  0.2003  0.0128  0.0232
92720W        W93584  11.550  26.372  22.404 -0.4279  0.3935  0.0550
92721W        W93585   7.681  18.489  23.627  0.0851 -0.1917  0.0112
92722W        W93586   5.945  28.053  27.920 -0.1841  0.4171  0.0436
92723W        W93587  20.540   6.428  28.272  0.1973 -0.2685  0.1832
92724W        W93588  11.389  19.394   4.503  0.0395  0.1486  0.1873
92725W        W93589   0.612  16.197  24.966 -0.0463 -0.1958 -0.0982
92726W        W93590  17.221  20.867   2.186 -0.2986  0.4192  0.0462
92727W        W93591   2.081  25.290  24.889  0.3977  0.0455  0.2130
92728W        W93592  14.168  21.006  20.291 -0.2373 -0.1073 -0.0295
92729W        W93593  21.085  19.459   3.392 -0.1194 -0.1503  0.2166
92730W        W93594  15.974   6.798  23.988  0.0544 -0.2145  0.0033
92731W        W93595   1.914   9.796  25.784 -0.1467 -0.2558  0.2064
92732W        W93596  16.305  17.486  24.798  0.2273 -0.2200  0.1508
92733W        W93597  20.381  12.784   1.218  0.0100  0.0397  0.2097
92734W        W93598   2.402  23.189  26.423  0.1047 -0.2877  0.3823
92735W        W93599   0.113  24.709  13.919 -0.2197 -0.3317  0.0127
92736W        W93600   7.983  28.307   3.763 -0.1546 -0.2120 -0.0491
92737W        W93601  21.275  17.219   0.197 -0.0225  0.0393 -0.0317
92738W        W93602  14.251   7.015  21.423  0.1268  0.1321 -0.3384
92739W        W93603   6.694  14.129  19.051 -0.2115  0.0735  0.0793
92740W        W93604   2.703  20.966  10.638  0.0001  0.0203 -0.1354
92741W        W93605  26.980  12.393  17.775  0.3198 -0.3221  0.0820
92742W        W93606   0.887   6.965  13.591  0.4318 -0.1540  0.2694
92743W        W93607   1.832  27.661   5.480 -0.0180 -0.1392 -0.0187
92744W        W93608  23.857  21.934  14.464 -0.1852 -0.2098  0.0928
92745W        W93609   3.468  28.614  15.073  0.0096 -0.0060 -0.0227
92746W        W93610   6.276  21.161   2.544  0.1914  0.2420 -0.2675
92747W        W93611  15.919  26.834  10.542 -0.0630  0.1331  0.0045
92748W        W93612  26.666   4.256  18.617 -0.0771 -0.0228  0.0295
92749W        W93613  14.671   3.361   6.066  0.2422  0.2448  0.2527
92750W        W93614  22.113  20.534  16.809  0.1190 -0.2514 -0.1322
92751W        W93615  14.136  10.124  24.766 -0.0075 -0.2054 -0.0858
92752W        W93616   0.390   3.076   2.495  0.0146 -0.1998 -0.0347
92753W        W93617   1.432  11.009  12.054 -0.1074 -0.0457 -0.1149
92754W        W93618   0.309  28.272   3.077 -0.3157 -0.0825 -0.2657
92755W        W93619  11.724  18.626   5.610 -0.0805  0.0826 -0.3585
92756W        W93620  24.583  24.256   1.444 -0.0311  0.2894  0.2899
92757W        W93621   2.217  20.765  16.907 -0.1873 -0.0053 -0.0419
92758W        W93622   4.550  12.425   4.356  0.0816  0.2014 -0.0897
92759W        W93623  26.793  22.642  10.597 -0.0893 -0.0796  0.0715
92760W        W93624  16.355  16.302   8.110 -0.1277 -0.1275  0.0732
92761W        W93625   9.933   0.005   3.674 -0.0226  0.1005 -0.1153
92762W        W93626   9.673   9.933  23.111 -0.2580 -0.1817 -0.1263
92763W        W93627   1.564   9.203  20.293 -0.2270 -0.2598  0.2532
92764W        W93628  26.085  17.758  27.757 -0.0805  0.2052 -0.0412
92765W        W93629  13.759  19.901  16.235  0.0578 -0.0307 -0.0522
92766W        W93630  26.440  17.835   7.859  0.2149  0.0666  0.0343
92767W        W93631   3.044   8.453   3.618 -0.0592  0.1128 -0.3427
92768W        W93632  27.506   4.337  26.025 -0.0422  0.2172 -0.0211
92769W        W93633  18.302  16.927  23.400 -0.0793  0.0341  0.1335
92770W        W93634  13.890   6.974   2.566  0.1996  0.0023  0.0144
92771W        W93635   5.475  13.959  23.835  0.1457 -0.0252  0.3645
92772W        W93636  11.557   0.601   1.245 -0.1983  0.2653  0.2766
92773W        W93637  10.117  11.291  23.216 -0.0121 -0.0105 -0.0376
92774W        W93638   7.651  19.215  18.974  0.1641  0.2129 -0.2389
92775W        W93639   5.326  15.668   6.153 -0.0247 -0.1909  0.2035
92776W        W93640  20.668  17.391  19.394  0.1823  0.3294  0.2084
92777W        W93641  25.088  16.665  13.572 -0.1003 -0.0187  0.0769
92778W        W93642  22.852  16.216   4.650 -0.0403 -0.0626  0.2211
92779W        W93643  19.569   5.704   8.252 -0.2168  0.1436  0.1330
92780W        W93644  16.108   2.919   3.469  0.0934  0.1868 -0.2212
92781W        W93645  10.162   7.294   6.720 -0.0801 -0.0235  0.2223
92782W        W93646  21.067  28.232  10.131 -0.0478  0.3001 -0.2700
92783W        W93647   6.024  21.343  23.425  0.1090  0.0916  0.2109
92784W        W93648  11.931   0.024   3.282  0.2954  0.2594 -0.0768
92785W        W93649   7.911   0.960  21.368 -0.4229  0.0049 -0.0919
92786W        W93650  14.884   1.113  24.182 -0.3754 -0.2829  0.1211
92787W        W93651  24.972  19.837  26.596 -0.1180 -0.0953 -0.2124
92788W        W93652   9.145   7.550  17.162  0.2313 -0.1740  0.3000
92789W        W93653  24.077  17.278  26.811 -0.4097  0.1470  0.0757
92790W        W93654  14.133  24.380   2.887 -0.0514 -0.0180 -0.0861
92791W        W93655  18.293  16.844  13.214 -0.0049  0.1780 -0.1165
92792W        W93656  27.960  20.438  11.220 -0.0524  0.1251  0.1389
92793W        W93657  11.316  24.945  21.879  0.0584 -0.0830 -0.2388
92794W        W93658   8.221   4.204   2.628 -0.0064 -0.0628  0.0619
92795W        W93659  17.473  12.099  28.250  0.3615 -0.0778 -0.1417
92796W        W93660  18.815  21.320   4.967  0.1109 -0.0062  0.1767
92797W        W93661  18.480   0.662  28.297 -0.2867 -0.0810 -0.0200
92798W        W93662  20.672  22.311   1.427  0.2412  0.1057  0.4720
92799W        W93663   5.237  17.999   0.335  0.0178  0.1587 -0.2466
92800W        W93664  21.644   4.188   6.939  0.0614 -0.0870 -0.0845
92801W        W93665  13.611  12.550  12.824  0.0916  0.2615 -0.0337
92802W        W93666  23.557  12.943  14.403 -0.1829  0.1098  0.1533
92803W        W93667  19.794  19.179  25.811 -0.1208 -0.2016 -0.2728
92804W        W93668  28.080  16.487   1.841 -0.0351 -0.0396 -0.0053
92805W        W93669  24.031   0.795  16.878 -0.0891 -0.0550 -0.0551
92806W        W93670   1.103  13.982   7.278  0.2171 -0.2354  0.2426
92807W        W93671   3.358  23.539  14.879  0.0977 -0.0771 -0.1464
92808W        W93672  18.218  25.744   6.021  0.0844 -0.1400 -0.0258
92809W        W93673  23.727  22.478  25.027 -0.0955  0.4474 -0.5224
92810W        W93674  25.205  11.716   2.396 -0.2200 -0.0554  0.0630
92811W        W93675  12.762  15.607  28.731  0.1120  0.0981  0.0339
92812W        W93676  11.848   7.398   7.462  0.2862  0.0851 -0.0229
92813W        W93677   4.694   1.998   2.717 -0.1108 -0.0635  0.0525
92814W        W93678  17.836  12.015   8.250  0.2590  0.0996 -0.1545
92815W        W93679  12.769  28.249  21.282 -0.0167 -0.1068 -0.0690
92816W        W93680  26.856  28.988   3.341  0.3350 -0.0602 -0.0219
92817W        W93681  17.252  17.011   1.150  0.1340  0.0206  0.0077
92818W        W93682   0.632  22.948   1.369 -0.0270 -0.0603  0.0826
92819W        W93683  15.943   3.618  24.647 -0.2571  0.2402 -0.0935
92820W        W93684   4.065  22.348  12.282 -0.0023 -0.5426  0.1198
92821W        W93685   7.345   7.477  10.609 -0.1403  0.3921  0.0604
92822W        W93686  18.633   6.901  16.752  0.1021 -0.3974  0.0215
92823W        W93687  24.922  20.124   9.727  0.2356  0.1121  0.0687
92824W        W93688  16.211   9.745  24.098 -0.2184  0.1133  0.0830
92825W        W93689  11.030  22.486   5.100 -0.0214  0.2963  0.1917
92826W        W93690   9.894  14.928   3.544  0.0260  0.0152  0.2331
92827W        W93691  18.874  24.040   1.229  0.0035 -0.1463 -0.2086
92828W        W93692  13.698   5.346  27.961  0.2389  0.0707 -0.0271
92829W        W93693  12.686   3.884  20.391  0.1363  0.2818 -0.1291
92830W        W93694  28.475  14.382  28.686 -0.0016  0.1628  0.1196
92831W        W93695   2.891   2.885  22.900  0.0604 -0.1235  0.2859
92832W        W93696  13.648  23.079  24.184 -0.0588  0.0289  0.0065
92833W        W93697   8.509  16.307  28.905 -0.1060 -0.0470 -0.0398
92834W        W93698  15.458   3.900  18.613 -0.2326 -0.1490  0.4560
92835W        W93699  17.282  13.017   5.703  0.2689 -0.1239 -0.1030
92836W        W93700  12.287  18.126   4.394 -0.5156  0.0524  0.2006
92837W        W93701  25.194  11.278   2.723  0.5153 -0.1667 -0.0950
92838W        W93702  22.234  19.763  12.143 -0.2297  0.4086  0.2050
92839W        W93703  19.426   0.665   5.015 -0.4303  0.0446  0.2790
92840W        W93704  25.153  20.160  26.168 -0.0594 -0.0067  0.0132
92841W        W93705  25.588  26.888  14.814 -0.0184  0.2190 -0.2873
92842W        W93706  23.276  22.294  25.944  0.0042 -0.0198 -0.0179
92843W        W93707   4.497   3.344   2.377 -0.0729 -0.3746 -0.1281
92844W        W93708   0.333  16.920  21.905  0.2375  0.1024 -0.1149
92845W        W93709  26.864  11.814  24.185  0.0963  0.1062  0.4320
92846W        W93710  24.767  20.783  25.180  0.1739  0.0268  0.0218
92847W        W93711  25.885  28.418   4.749 -0.0028 -0.0802  0.3070
92848W        W93712  28.005  19.682  19.572 -0.1567 -0.0892 -0.2629
92849W        W93713  11.662  12.529   8.697 -0.2128  0.1056  0.0448
92850W        W93714  23.839  12.474  26.931  0.2599 -0.1597 -0.0876
92851W        W93715  26.748  11.738   4.699  0.1852 -0.0724  0.3450
92852W        W93716   5.041   9.056  23.256  0.0410 -0.2670  0.1692
92853W        W93717  16.044  18.637   3.033  0.1081 -0.0513  0.0137
92854W        W93718  15.304   8.823  26.540  0.0800 -0.2901  0.1107
92855W        W93719  10.753  23.341   1.585 -0.1846  0.0730 -0.0744
92856W        W93720   6.262   4.745  11.884  0.1523 -0.1250  0.2322
92857W        W93721  12.251  28.904   9.031 -0.2023  0.3394 -0.0446
92858W        W93722  10.843  15.511  24.010 -0.1411  0.0921 -0.1396
92859W        W93723  28.751  26.168   7.986  0.3232 -0.2043 -0.0382
92860W        W93724   2.397  24.689  21.115 -0.0279  0.1967  0.2307
92861W        W93725   3.192  21.819  25.453  0.0125 -0.1212 -0.3037
92862W        W93726  11.282  15.402  23.014  0.0614 -0.2589  0.0710
92863W        W93727  26.978  25.505  25.663 -0.1755 -0.0504  0.0961
92864W        W93728  20.321   9.127  27.716 -0.0114  0.0327 -0.1717
92865W        W93729  10.408  27.720   2.270 -0.1531  0.2526 -0.0123
92866W        W93730   0.152   4.273  21.367  0.1512 -0.0458  0.0593
92867W        W93731   1.252   2.462   8.247  0.3133 -0.1179 -0.0072
92868W        W93732   1.096  12.518   9.684  0.4911  0.2789 -0.2060
92869W        W93733   5.829  25.160  16.796 -0.0598  0.1367 -0.2029
92870W        W93734   2.436  21.863  10.011 -0.0452 -0.2843 -0.2875
92871W        W93735  20.707   6.040  20.325 -0.2907 -0.1218  0.1725
92872W        W93736   8.819  23.018   9.661  0.3641 -0.1981  0.2924
92873W        W93737  26.621   3.607  14.475  0.0105 -0.0813 -0.0415
92874W        W93738  16.310  26.657   0.939 -0.1115 -0.1192 -0.0580
92875W        W93739  28.127   7.974  24.231 -0.0969 -0.2032  0.0673
92876W        W93740   8.635  24.692   6.079  0.1719  0.3019  0.0142
92877W        W93741   9.492   5.654  25.445 -0.3834  0.0242  0.0865
92878W        W93742   1.533   1.622   0.894  0.0753  0.0317 -0.1016
92879W        W93743  23.644  27.330  23.848 -0.1241  0.0547  0.2134
92880W        W93744  11.562  17.885  16.826 -0.1271 -0.0685  0.3610
92881W        W93745  18.805  21.480   5.869  0.1333  0.0103 -0.0703
92882W        W93746  20.191  16.076   7.665 -0.2143  0.0557  0.0347
92883W        W93747  10.861   6.479  19.164 -0.1556 -0.2205 -0.0030
92884W        W93748   9.275   4.415  28.820  0.2686 -0.0156  0.0787
92885W        W93749   8.175   0.243  26.701  0.3379  0.2523 -0.1480
92886W        W93750  17.387  15.424  28.092 -0.0461 -0.0380  0.2252
92887W        W93751  25.215  16.789  20.703  0.1169 -0.2689 -0.1166
92888W        W93752  29.090  15.617  10.852 -0.1842  0.0569  0.5010
92889W        W93753  16.365  13.278  17.737 -0.1278  0.0861  0.0178
92890W        W93754   3.751  13.643  24.431 -0.1588 -0.0745  0.1523
92891W        W93755  12.506  19.727   7.320  0.0582 -0.0532  0.0532
92892W        W93756   4.576   4.405  10.290 -0.1331 -0.3225 -0.0141
92893W        W93757  23.251  18.707  25.479  0.0673  0.0258 -0.0055
92894W        W93758  14.323  20.114   3.977  0.0727 -0.0651  0.0207
92895W        W93759  24.116  26.122   2.181 -0.0389  0.0268  0.0522
92896W        W93760  14.061  21.425   1.291 -0.0361 -0.0920  0.2206
92897W        W93761  17.817   0.106  28.637  0.2388 -0.0698 -0.1672
92898W        W93762   8.819  11.979  19.594  0.1182 -0.0912 -0.0231
92899W        W93763  12.257  11.532  18.056 -0.2802 -0.0239  0.1116
92900W        W93764  10.086  14.561  18.581 -0.3857 -0.0092 -0.3015
92901W        W93765  18.616   5.466  23.875 -0.1448 -0.1155  0.3287
92902W        W93766  21.693  21.356  18.405  0.2014 -0.0783 -0.1050
92903W        W93767   1.483   1.762  16.601 -0.3668  0.1055 -0.1893
92904W        W93768   4.165  10.892  17.355 -0.0993  0.2192  0.2268
92905W        W93769  12.565  14.183  24.603  0.1968 -0.2066 -0.1004
92906W        W93770  19.494  21.082  15.566  0.0028 -0.1625 -0.1302
92907W        W93771  15.240  18.264  22.544  0.3592 -0.1020  0.2663
92908W        W93772  13.172  17.191  13.241  0.1311 -0.1340  0.0753
92909W        W93773  11.032  18.766  23.031 -0.0850  0.3617  0.1693
92910W        W93774   1.992  28.366   7.690  0.3294  0.3298  0.1924
92911W        W93775  26.859  17.397  13.128 -0.0262  0.2472  0.4277
92912W        W93776  23.701   8.373   8.954 -0.3238 -0.1179  0.0728
92913W        W93777  17.824  10.273   7.140  0.0647  0.1213  0.0817
92914W        W93778   0.349  19.722  20.642 -0.1344  0.1575 -0.2465
92915W        W93779   1.866  25.366   3.658 -0.1135  0.0059  0.0548
92916W        W93780  22.749  24.218  21.325  0.1696 -0.0629  0.2996
92917W        W93781   9.274  28.102  14.737 -0.2807 -0.1913 -0.0582
92918W        W93782   9.636  28.608   5.262  0.0006  0.0886  0.1182
92919W        W93783  26.586   5.477   1.525  0.1735 -0.0499  0.1452
92920W        W93784   0.740  10.452  28.841  0.2050 -0.2096  0.0278
92921W        W93785   6.100  16.018  23.085 -0.0577  0.0644  0.1847
92922W        W93786  17.960  10.439  16.748 -0.0732  0.0001 -0.1639
92923W        W93787   6.300  26.952  25.372 -0.1255 -0.1082 -0.2377
92924W        W93788   5.329  15.295  19.045  0.2909  0.2322  0.1751
92925W        W93789  28.001  12.236   8.972 -0.0192 -0.1730 -0.3496
92926W        W93790  12.938   1.555  22.976  0.0205 -0.0456 -0.1138
92927W        W93791  21.184  27.621  25.736 -0.3119 -0.0210 -0.5811
92928W        W93792  10.487  29.051  25.525  0.0875  0.2550  0.2474
92929W        W93793  13.066   4.603   2.591  0.2411 -0.0495 -0.3417
92930W        W93794  23.469  24.010  26.164  0.2673  0.3547  0.3842
92931W        W93795   7.989  17.034  25.707  0.1670  0.0956  0.1533
92932W        W93796  15.448  11.024   2.300  0.0995 -0.0391 -0.1049
92933W        W93797  23.802  16.991  20.501 -0.3066 -0.2190 -0.3734
92934W        W93798  16.965   7.471   3.348  0.0085 -0.1844 -0.0701
92935W        W93799   9.770   0.901  13.419 -0.0334  0.1886 -0.1094
92936W        W93800  12.201   1.760   9.265 -0.1341 -0.2539  0.1661
92937W        W93801  20.734  18.568  10.006 -0.3549 -0.0917 -0.2143
92938W        W93802  26.128   3.937   5.107 -0.0225 -0.1137  0.0450
92939W        W93803   8.208   3.033   1.747 -0.3119 -0.1207  0.1128
92940W        W93804  15.866  24.487  24.888 -0.3125 -0.1202 -0.0693
92941W        W93805   8.788  22.747  26.392 -0.1533  0.2675 -0.2272
92942W        W93806  10.667  22.229  14.735  0.1336 -0.1933 -0.3502
92943W        W93807  14.554  11.987  16.872  0.2402 -0.0753  0.0288
92944W        W93808  26.385  13.629  10.880 -0.2582 -0.1876 -0.2317
92945W        W93809  23.323  15.024   1.837 -0.2487 -0.0945  0.1043
92946W        W93810  21.488  21.578   6.106 -0.2783 -0.3927 -0.0927
92947W        W93811   3.230  21.402  10.033  0.0057 -0.4285  0.4273
92948W        W93812   1.287  22.128   9.095  0.1681  0.1999  0.1581
92949W        W93813   6.104  16.489  23.225 -0.2047  0.0801 -0.0088
92950W        W93814   4.896  26.481   1.956  0.2107 -0.0938 -0.0322
92951W        W93815  25.713  23.199   4.103  0.0657 -0.1966 -0.0814
92952W        W93816   7.855  25.909  11.464 -0.3803  0.0651  0.1645
92953W        W93817  19.995   4.056  13.830 -0.1290  0.0785  0.3215
92954W        W93818  27.056  11.968  24.601 -0.1747 -0.4764  0.4578
92955W        W93819  16.431   8.713   5.544 -0.0458 -0.1545 -0.1348
92956W        W93820  12.583  16.753   1.930 -0.0648 -0.3376 -0.1727
92957W        W93821  21.546  11.438  11.940  0.3372  0.0789 -0.1860
92958W        W93822  13.824  22.348  24.534  0.0103 -0.1475 -0.1927
92959W        W93823  23.161  24.916   2.090 -0.1754 -0.1097  0.0509
92960W        W93824  28.642   1.869   1.480  0.3711  0.0288 -0.0354
92961W        W93825  15.739   6.248  20.774 -0.2417  0.1440  0.3241
92962W        W93826  11.401  23.735   4.348 -0.1837 -0.2157 -0.1929
92963W        W93827   9.663  10.606  24.627  0.1737  0.0710  0.0621
92964W        W93828  24.347  27.053  23.219  0.1164 -0.0981  0.1285
92965W        W93829  12.197  11.372  23.409 -0.0057 -0.1061 -0.0349
92966W        W93830  10.184   8.732  27.154 -0.1888  0.1005  0.1683
92967W        W93831   2.983  27.589   8.493  0.1799 -0.2498  0.3598
92968W        W93832   2.287  24.253   6.962 -0.0261  0.2065 -0.2750
92969W        W93833   9.380   4.759  16.715 -0.0391 -0.2011  0.3655
92970W        W93834  20.058  15.586   7.698 -0.3361  0.1758 -0.0935
92971W        W93835  12.845  20.993   9.012  0.0574  0.1113  0.0629
92972W        W93836  27.944  25.814   7.557  0.0038 -0.0276 -0.1548
92973W        W93837  26.272   3.476   7.246  0.0636 -0.1791  0.0102
92974W        W93838  17.046   4.864  18.998  0.0298  0.1605  0.4489
92975W        W93839   0.953  13.763  21.711  0.1312 -0.2544  0.1680
92976W        W93840   4.109  14.448   7.539 -0.0526  0.0522 -0.1530
92977W        W93841  10.314  12.787  16.376  0.3041  0.0620 -0.0594
92978W        W93842  19.728  25.619   5.431 -0.0433  0.1368 -0.1088
92979W        W93843  22.654   6.536   9.733 -0.0239  0.1340 -0.0190
92980W        W93844  10.699  16.075  20.990 -0.0434 -0.0287  0.0498
92981W        W93845   8.901  11.585  20.895 -0.0478 -0.2711 -0.0487
92982W        W93846   3.831   4.568   9.610  0.1125  0.0887  0.0616
92983W        W93847  21.161  29.080   8.462 -0.1805  0.3046 -0.1938
92984W        W93848  21.154   2.051  26.505  0.1126  0.1672 -0.0065
92985W        W93849   2.520  26.495  21.962  0.1857  0.0328  0.0407
92986W        W93850  19.719   6.328   3.638 -0.2051 -0.0159 -0.1573
92987W        W93851  15.161  19.997  15.334 -0.4441 -0.1699  0.2123
92988W        W93852  22.973   7.434  26.836  0.1458  0.0976 -0.1182
92989W        W93853   0.158   7.268   0.704  0.0983  0.0200 -0.0578
92990W        W93854  21.580   5.319  22.427  0.0994  0.2229  0.0654
92991W        W93855   1.877  26.850   8.595 -0.3427  0.1969 -0.1705
92992W        W93856  11.628  24.434   6.998 -0.0285  0.2407 -0.0355
92993W        W93857   4.345   8.744   2.318 -0.1881  0.0869  0.1792
92994W        W93858  10.081   6.018   9.279 -0.2284 -0.1282 -0.1509
92995W        W93859  12.225  18.816  12.793  0.1610  0.0363  0.4615
92996W        W93860   9.643  25.481   7.034 -0.1886 -0.2929 -0.2941
92997W        W93861   6.711  24.369  21.550  0.2203  0.1951  0.0868
92998W        W93862  19.050  26.429  20.335  0.1016 -0.1414 -0.1559
92999W        W93863  11.550  17.407  10.472  0.0257 -0.3462 -0.0218
93000W        W93864   7.512   2.911  21.767 -0.1334 -0.0171 -0.0203
93001W        W93865  17.805   1.912  17.240  0.1382 -0.0008 -0.0490
93002W        W93866   5.079  15.797   8.309 -0.1730  0.0732  0.0076
93003W        W93867  12.741  20.939  16.744 -0.0584 -0.1239  0.1214
93004W        W93868  19.801  20.097  27.104 -0.0919  0.4062  0.1781
93005W        W93869   2.730  15.552  13.609 -0.0511 -0.0672  0.1717
93006W        W93870   1.603  15.717   1.812 -0.1200  0.0133 -0.1484
93007W        W93871   8.376  16.524  14.637  0.1463 -0.1983 -0.3658
93008W        W93872  14.213  24.704   5.219 -0.0864 -0.0302 -0.0442
93009W        W93873  23.991  26.896   2.801  0.0581 -0.1574 -0.0156
93010W        W93874  22.715   4.368  27.313 -0.3267  0.2835  0.1703
93011W        W93875  24.956  20.767  16.129  0.1849  0.1071  0.1625
93012W        W93876  21.130  10.924   4.636  0.0578  0.0309  0.0961
93013W        W93877  18.972  17.037  24.636 -0.0622  0.4196  0.1972
93014W        W93878  16.889  20.141  10.227  0.1188 -0.1395  0.0811
93015W        W93879  15.158  20.647   3.581  0.0472 -0.0643  0.0812
93016W        W93880   6.806  13.862  20.974  0.1219  0.0514  0.1583
93017W        W93881  14.660  28.822   2.370 -0.0933  0.0076 -0.2891
93018W        W93882  11.521  28.187  28.831 -0.1980 -0.0787 -0.1838
93019W        W93883  12.405   1.362   2.236  0.0564 -0.3172 -0.1572
93020W        W93884  19.947  28.468   1.339  0.1926 -0.1893 -0.2545
93021W        W93885  13.266  10.309   2.607 -0.0017  0.0163 -0.0793
93022W        W93886   1.961   3.288  23.088 -0.0308  0.0943  0.1576
93023W        W93887  14.514   8.111  20.000 -0.3716  0.1468 -0.0635
93024W        W93888   5.341  16.641  21.927 -0.2125 -0.3007  0.2988
93025W        W93889  18.280  20.872   7.520 -0.0290  0.1219 -0.0626
93026W        W93890  13.424  17.381  24.710  0.3723 -0.0818  0.0101
93027W        W93891  18.977  25.771   2.512 -0.0737 -0.0301  0.0088
93028W        W93892  26.894  14.264  23.037  0.0969 -0.2538 -0.0508
93029W        W93893  12.831  28.372  20.800  0.3122 -0.0880  0.0600
93030W        W93894  14.739  11.595   7.885  0.0084 -0.2409  0.0421
93031W        W93895  23.206  22.672  17.270  0.1112  0.3599 -0.0925
93032W        W93896  23.905  18.345  27.092  0.1938 -0.2592 -0.3359
93033W        W93897  16.687  14.294  20.499 -0.0451  0.0611 -0.1084
93034W        W93898   7.005  21.608   8.384  0.0670  0.1247  0.0450
93035W        W93899   0.539  12.746   5.168 -0.0527 -0.0101  0.0565
93036W        W93900  24.744   3.163  14.537  0.0893  0.3268 -0.3696
93037W        W93901  19.291  11.862  26.816 -0.2626  0.1996  0.0818
93038W        W93902  23.011  10.428  12.301  0.1746 -0.3397  0.1622
93039W        W93903   7.415  23.248  28.328 -0.1324  0.2194  0.1360
93040W        W93904   2.006  27.738  27.539 -0.0146 -0.2259 -0.1241
93041W        W93905  26.963   9.862  26.808 -0.2512 -0.1160  0.0248
93042W        W93906   6.540   6.833  20.925  0.0943 -0.1174 -0.3862
93043W        W93907   5.453   4.554  24.398 -0.3512  0.2255 -0.1069
93044W        W93908   3.326  20.074  16.135  0.1582  0.0019  0.0745
93045W        W93909   6.496  13.066  16.802 -0.0531 -0.2604  0.2266
93046W        W93910  24.298   3.616   9.544  0.0848 -0.0539 -0.0646
93047W        W93911  13.446  13.926  10.587 -0.1081  0.0658  0.0741
93048W        W93912  19.890  15.381  22.543  0.2248  0.1714  0.1876
93049W        W93913  17.422   2.083  15.638  0.3089  0.0970  0.2315
93050W        W93914   5.891  10.708  24.615 -0.0893 -0.1736 -0.0515
93051W        W93915  11.983  19.713   1.759 -0.0930 -0.2976  0.0326
93052W        W93916   0.384  16.125  12.771 -0.1359 -0.1716 -0.0573
93053W        W93917   7.157   8.473  13.218  0.0455 -0.0374  0.0680
93054W        W93918  18.445  13.703  20.636  0.0112 -0.4290 -0.1142
93055W        W93919  19.360   3.155  25.046 -0.0646 -0.4565  0.2049
93056W        W93920  25.743  12.360  13.298  0.1456  0.1062 -0.1564
93057W        W93921   8.675  14.698  28.169  0.0090  0.0007 -0.1485
93058W        W93922   7.761  25.450   4.777 -0.0464 -0.1423 -0.0691
93059W        W93923  17.485   7.199  14.041  0.2024 -0.0056 -0.2892
93060W        W93924  18.662  14.255  15.583  0.2392  0.1884  0.1291
93061W        W93925  21.227  19.393  10.167  0.0264 -0.2685  0.2670
93062W        W93926   6.836  20.053  25.517  0.0793 -0.1153  0.0217
93063W        W93927   8.446   3.797   4.809  0.0941 -0.0484 -0.1719
93064W        W93928   5.635  24.144  21.219  0.0361  0.0209 -0.0219
93065W        W93929  12.595  22.424   6.207  0.0594  0.2503 -0.0847
93066W        W93930   9.960  17.617  16.678  0.0105  0.2877  0.1377
93067W        W93931  15.001   2.664  28.727 -0.0250 -0.2794  0.0487
93068W        W93932  23.402   7.068  16.851  0.0316 -0.1341  0.0804
93069W        W93933  24.354  13.817  13.556 -0.1634 -0.0129  0.1208
93070W        W93934  21.563  27.232  28.042  0.0139  0.0323  0.2221
93071W        W93935  19.178  19.702   3.951 -0.1622  0.0584  0.0544
93072W        W93936  18.574   9.670  16.094  0.0707 -0.1113  0.1474
93073W        W93937  22.414  15.663  23.775 -0.1270  0.3207 -0.1847
93074W        W93938  10.306   4.705  22.214  0.1775 -0.3275 -0.0977
93075W        W93939  12.652  26.527   1.336 -0.1896 -0.1157 -0.5424
93076W        W93940  23.864  27.399  25.694 -0.1969  0.1687  0.2475
93077W        W93941  28.456  16.880   6.035 -0.3516  0.0658  0.3641
93078W        W93942  10.510  17.044  27.479  0.0882 -0.1526 -0.0308
93079W        W93943  14.332   0.465  11.028 -0.0941 -0.2282 -0.3008
93080W        W93944  15.493  18.185  25.343  0.0010 -0.2159 -0.0122
93081W        W93945  20.467  27.929  14.964 -0.0381  0.3868  0.1073
93082W        W93946   4.241  15.558   8.888 -0.1814  0.0400 -0.0765
93083W        W93947  26.710  24.269  25.777 -0.2995  0.0551  0.3310
93084W        W93948   7.364  27.153   5.058  0.1434  0.0287 -0.0305
93085W        W93949   0.189  15.878   0.658 -0.1305 -0.4450  0.0426
93086W        W93950   5.145  21.444   7.370  0.1754 -0.0777  0.2037
93087W        W93951  16.479  20.578   8.499 -0.1081 -0.1542 -0.1708
93088W        W93952  26.279  16.134  28.135  0.2908  0.2519  0.0634
93089W        W93953  20.999  27.989   6.195 -0.0699  0.1462 -0.0077
93090W        W93954  15.127  22.543  22.357  0.1916 -0.0980  0.0827
93091W        W93955  10.186  18.454   7.245  0.3395 -0.1121  0.0623
93092W        W93956  13.344  26.277   2.076  0.1455 -0.1364  0.0985
93093W        W93957  24.608   5.951  25.824  0.2404  0.0353 -0.1857
93094W        W93958  10.629  19.628  22.742  0.1444  0.0983 -0.0319
93095W        W93959  11.657  14.458   6.839 -0.0288 -0.1939  0.1661
93096W        W93960  16.627  16.070  12.104  0.0143  0.0425 -0.2843
93097W        W93961   2.264  21.502   6.878  0.1155  0.1785 -0.0491
93098W        W93962  16.849  19.165   1.850 -0.1613 -0.5381 -0.0615
93099W        W93963   2.435  21.671  13.790  0.0450  0.2475 -0.0768
93100W        W93964   2.816  24.004   5.532 -0.0096  0.0176  0.3379
93101W        W93965  25.458   6.297   1.393  0.2508 -0.0820 -0.0203
93102W        W93966   7.752  16.510   0.557  0.0915  0.1664 -0.2075
93103W        W93967  17.497  20.046  27.824 -0.1179 -0.0036  0.1718
93104W        W93968   8.703  15.918   2.583  0.0449  0.0895 -0.2047
93105W        W93969  14.122  10.171  20.853 -0.0119 -0.0392  0.2152
93106W        W93970  14.019  18.218  12.520  0.0356 -0.2471  0.1492
93107W        W93971  16.030   2.451   2.838  0.0661  0.1152 -0.2618
93108W        W93972  11.611  15.775  12.430  0.1486 -0.0929 -0.1568
93109W        W93973  20.657   3.837  15.033 -0.0070  0.1177  0.1498
93110W        W93974   2.876  18.095  15.493  0.2922 -0.2751 -0.0651
93111W        W93975   3.546   6.555   9.807  0.1052  0.0622 -0.5134
93112W        W93976  17.637  22.142   0.630 -0.1072  0.3257  0.2041
93113W        W93977  13.879  25.348   2.458  0.1402 -0.0048  0.1326
93114W        W93978   9.302  19.040   5.220  0.1411  0.0008 -0.3615
93115W        W93979  27.559   9.322   3.714  0.1923  0.3198  0.1100
93116W        W93980  13.891  20.275   3.656  0.0279  0.2702 -0.2057
93117W        W93981   9.771  28.114  16.554  0.0769 -0.0923  0.3549
93118W        W93982  15.055   2.710   1.230  0.0161 -0.3261  0.3633
93119W        W93983   2.702  14.711  13.852  0.0702 -0.0178 -0.1582
93120W        W93984  24.270   1.107  10.221  0.0157  0.0497  0.1638
93121W        W93985   4.495  19.952  27.630 -0.2176  0.0120 -0.1325
93122W        W93986  25.688   1.848  22.198 -0.1904 -0.2521 -0.2267
93123W        W93987  10.325  24.603  16.624  0.1331  0.3102 -0.1098
93124W        W93988   0.188  27.654   2.412 -0.0430  0.1195  0.0614
93125W        W93989   4.329   9.999  20.053  0.0194 -0.3724  0.0474
93126W        W93990  19.542  29.106   7.295  0.0020  0.1921  0.2330
93127W        W93991   6.330  22.710   4.772  0.2838  0.1818  0.1542
93128W        W93992  13.606   8.667   4.395  0.1020  0.0232  0.4209
93129W        W93993  15.932   0.195  10.460  0.1090 -0.2082 -0.0167
93130W        W93994  20.158  19.103   3.933 -0.1535 -0.0775 -0.4714
93131W        W93995  23.514   9.996  11.312 -0.0017 -0.2352 -0.0979
93132W        W93996   4.391  20.979   4.308  0.2640 -0.2865  0.2826
93133W        W93997   6.761   9.532  20.033 -0.1407 -0.1236 -0.0122
93134W        W93998  27.082   0.310  14.886 -0.0857  0.1221  0.0027
93135W        W93999  20.564  24.417   6.988  0.0606 -0.3005 -0.0709
93136W        W94000  14.695  17.687  18.665 -0.1828 -0.1863  0.1221
93137W        W94001  25.167  19.804   8.436 -0.0220  0.0069  0.1474
93138W        W94002  26.044   3.947  14.694 -0.0907 -0.1281  0.0058
93139W        W94003  28.833  15.868  20.806  0.4892  0.2490  0.1410
93140W        W94004   9.174  11.556  24.451  0.2279 -0.0705  0.2423
93141W        W94005  27.467   4.755   8.430  0.0733  0.2229 -0.0797
93142W        W94006  12.903  17.575  27.505 -0.3336 -0.2469  0.0302
93143W        W94007   2.496  10.115   4.523  0.1913  0.2206 -0.1393
93144W        W94008   8.245   9.775  15.256  0.5209  0.0426 -0.4574
93145W        W94009  27.322   4.297   0.126  0.1756 -0.0534  0.3509
93146W        W94010  10.108  20.800  27.393 -0.1097  0.0028  0.1184
93147W        W94011  10.965  18.371   5.066 -0.1578  0.0570 -0.0697
93148W        W94012   4.626  23.164  11.905 -0.2344 -0.0384  0.0979
93149W        W94013  10.603  20.356  15.876 -0.1715 -0.1777  0.0316
93150W        W94014   5.425  26.202  23.149 -0.3033 -0.2467 -0.1769
93151W        W94015  17.123   9.472  17.575  0.0827  0.1766 -0.0413
93152W        W94016   3.131  28.186   6.518 -0.2713 -0.1762 -0.1771
93153W        W94017  27.414  16.775   6.624  0.3466 -0.1366  0.1508
93154W        W94018  10.979   8.107   8.348 -0.1543  0.0074 -0.1021
93155W        W94019  19.628  16.501   5.490 -0.3928 -0.2703 -0.1047
93156W        W94020  23.404   0.225   3.653 -0.3141  0.0177 -0.1835
93157W        W94021  18.285  18.605  22.828 -0.1465  0.3064 -0.0043
93158W        W94022  19.894   7.295  23.503 -0.1095  0.0615  0.2216
93159W        W94023   8.295  23.311   5.745 -0.2640 -0.4040  0.0584
93160W        W94024  16.376   6.407   6.253 -0.6179  0.0943  0.0096
93161W        W94025  15.661  14.664   9.386  0.0645  0.0204 -0.2611
93162W        W94026  14.182   1.177  21.183  0.3481  0.2791  0.2618
93163W        W94027  17.002  11.374   0.741  0.2560 -0.1140  0.0090
93164W        W94028   9.508  12.034  23.609  0.2840 -0.0140 -0.0104
93165W        W94029  15.422  15.312  25.137 -0.2391  0.3439  0.0689
93166W        W94030   4.905  19.535  24.510 -0.1136  0.0625  0.0778
93167W        W94031  15.712  28.036  19.220  0.1931  0.2005  0.0114
93168W        W94032  11.933  18.080   4.087 -0.1295  0.0966 -0.2264
93169W        W94033   9.585  22.949  18.412  0.3525 -0.2630  0.2115
93170W        W94034  13.114  19.289   7.230 -0.1566 -0.0912 -0.0311
93171W        W94035  23.423  12.679  24.991 -0.0031  0.2917  0.0983
93172W        W94036   9.558  22.482   0.498  0.2748 -0.0917 -0.0031
93173W        W94037  10.133   0.737   4.796 -0.0049 -0.2173 -0.0297
93174W        W94038   0.948   5.390  24.426 -0.2118 -0.4446  0.1150
93175W        W94039   8.487  22.329  19.449  0.0263  0.1290  0.0273
93176W        W94040   9.408  21.433   4.076  0.2701 -0.0996 -0.2254
93177W        W94041   2.284  13.629   5.001 -0.1889  0.0780  0.1610
93178W        W94042   3.516  11.262  12.353  0.2471 -0.1884 -0.0147
93179W        W94043  14.144  19.778   6.536 -0.2435  0.0016 -0.2706
93180W        W94044   0.068  27.784  25.720  0.3289  0.2095 -0.1690
93181W        W94045  19.188  22.297  28.508  0.1300 -0.5064  0.0934
93182W        W94046  14.413  24.951  22.231  0.4764 -0.0676  0.0131
93183W        W94047  12.791  25.525   5.064 -0.2250 -0.5926  0.0566
93184W        W94048  10.739  28.592   1.112  0.1813  0.0034 -0.2487
93185W        W94049  28.495  11.691  20.630  0.0136 -0.3383  0.0990
93186W        W94050  21.082   8.898  17.408  0.1039  0.0097  0.2129
93187W        W94051  16.759  17.474  18.279  0.0434  0.0128 -0.1072
93188W        W94052   3.860  19.789  20.415 -0.1747 -0.2702 -0.2664
93189W        W94053  22.266  21.266  15.643  0.0870 -0.1893 -0.0853
93190W        W94054   4.674   6.907   1.969  0.2979 -0.4477  0.2860
93191W        W94055   5.389  17.149  14.060  0.0671 -0.2661 -0.1448
93192W        W94056   3.181   4.498  25.129 -0.2028  0.3694 -0.0280
93193W        W94057  18.218  11.946  28.820  0.0312 -0.0641 -0.1672
93194W        W94058   0.210   4.903   3.628  0.0972 -0.0981 -0.1539
93195W        W94059  15.583  13.628  25.504 -0.4794 -0.2903 -0.0009
93196W        W94060  10.101  19.154  26.670  0.4929  0.0633 -0.0983
93197W        W94061   9.471  20.211   3.736  0.0429  0.0384 -0.0418
93198W        W94062   9.870  26.565  13.931  0.1967 -0.2429  0.3941
93199W        W94063  27.537  24.936   4.636  0.2879  0.0884  0.0078
93200W        W94064   5.938  12.207   3.912  0.1164 -0.0239  0.1381
93201W        W94065   8.855  25.161  23.827 -0.2088 -0.1505  0.1133
93202W        W94066   6.892  12.184   1.598  0.2228  0.0427 -0.0772
93203W        W94067   6.389  24.023  18.775  0.3405  0.4798 -0.0243
93204W        W94068  12.299   1.510  15.624  0.0720 -0.0038  0.4332
93205W        W94069   3.061  12.907  22.701 -0.0594  0.0512  0.0544
93206W        W94070  17.888   5.510  19.447  0.1181  0.0069  0.2134
93207W        W94071   9.705  15.879  24.817  0.3787  0.0109 -0.2750
93208W        W94072  18.573   4.881  10.054  0.1407  0.0502 -0.0825
93209W        W94073  22.678  29.064  17.980 -0.0046  0.1253  0.2294
93210W        W94074  11.168  10.064  18.816  0.0226  0.1832  0.0778
93211W        W94075  10.614  19.428  17.059  0.0437 -0.0052 -0.0873
93212W        W94076  20.646  14.083   2.141  0.1054  0.1029 -0.2066
93213W        W94077   5.336   6.760  13.436  0.0536 -0.1875 -0.1438
93214W        W94078  23.149  14.574  16.172 -0.0112 -0.1870  0.2068
93215W        W94079  11.272  26.683  21.688  0.0580  0.0997 -0.1350
93216W        W94080  10.370  24.439  26.568 -0.0439 -0.1069  0.2962
93217W        W94081  10.226  21.744   6.916 -0.0339  0.0114 -0.3568
93218W        W94082  14.443  10.953   3.707 -0.0100  0.3278 -0.0461
93219W        W94083  14.061  20.304   1.983 -0.1179 -0.2356 -0.1002
93220W        W94084  11.526   3.095   2.181 -0.0960  0.2729  0.1201
93221W        W94085  11.675   2.834  17.937 -0.0152 -0.0570 -0.1341
93222W        W94086  16.911  22.945  16.361  0.0718  0.2206  0.2470
93223W        W94087   9.153  18.435  29.006  0.1843  0.0282  0.0187
93224W        W94088  12.592  26.734  29.048  0.1400 -0.1462  0.2326
93225W        W94089  12.240  11.817   1.138  0.0681  0.0885 -0.0969
93226W        W94090   0.616  24.063  24.337  0.0754 -0.2341 -0.1279
93227W        W94091  13.906  23.465   7.351 -0.1138 -0.0883 -0.1101
93228W        W94092   6.521  26.820  28.095 -0.1222  0.0739  0.1641
93229W        W94093  10.152  22.597  20.389  0.2402  0.3319 -0.1473
93230W        W94094  28.245  11.175  11.879  0.0817  0.3024 -0.0008
93231W        W94095  21.784   2.667  18.952  0.1909 -0.1078  0.3832
93232W        W94096  19.324  22.664   0.284  0.0756  0.1718 -0.1326
93233W        W94097   1.727  10.718  18.183 -0.0757  0.0584 -0.1345
93234W        W94098   8.215   5.698  28.425  0.0039 -0.2679  0.0091
93235W        W94099  14.490   9.874  22.686  0.0583 -0.2931 -0.0022
93236W        W94100   6.955   9.742   5.897 -0.0944 -0.1553  0.0130
93237W        W94101  15.236   6.880  28.016 -0.1735  0.0512  0.0672
93238W        W94102   7.829  21.256  17.555 -0.5590  0.0232 -0.4163
93239W        W94103  17.165  14.638  20.471 -0.0898  0.1188 -0.0321
93240W        W94104  28.759  22.019   5.451 -0.0842  0.0312 -0.2241
93241W        W94105   5.825  19.173  22.422  0.0133  0.0482 -0.0809
93242W        W94106   7.828  17.659  27.756  0.0622 -0.0937 -0.3986
93243W        W94107   2.408  26.026   8.925  0.0109 -0.2115 -0.1606
93244W        W94108  27.011  18.515  27.994 -0.1386 -0.0474  0.1538
93245W        W94109   5.005   9.843  28.237  0.0528 -0.2167 -0.1594
93246W        W94110  24.776   9.365  28.682  0.1652  0.2700  0.0648
93247W        W94111  19.194   1.207   8.607  0.0564 -0.0295 -0.0274
93248W        W94112  12.603  15.765  25.667  0.2984  0.0696  0.1180
93249W        W94113  13.014  24.814   3.555  0.1325 -0.6578 -0.0622
93250W        W94114  16.752   3.065   8.194 -0.1937 -0.1966 -0.5408
93251W        W94115  20.737  24.305   2.568 -0.0840 -0.0188  0.2089
93252W        W94116  24.541   1.717   5.957  0.0339  0.0865 -0.0937
93253W        W94117  24.442   8.102  10.624  0.0470 -0.0048  0.1426
93254W        W94118   4.297   2.797   1.026  0.2132  0.0730  0.0259
93255W        W94119   3.695   6.789  24.140 -0.0883  0.0263 -0.1420
93256W        W94120   2.638  26.268   8.583 -0.0238  0.3031  0.0239
93257W        W94121  14.105  19.371  19.399  0.1722  0.1880  0.1761
93258W        W94122  13.809  25.951  28.215  0.0878  0.2283 -0.0285
93259W        W94123  26.272   9.699   6.824 -0.2152  0.4023  0.0235
93260W        W94124  26.937  25.527  27.311  0.3083 -0.1106 -0.2381
93261W        W94125  11.563   1.233  25.196 -0.0295 -0.1385  0.1712
93262W        W94126  22.925  28.734   4.620 -0.0664 -0.2153  0.0395
93263W        W94127   1.247  28.105  12.111 -0.0269 -0.2454  0.1651
93264W        W94128  22.879  17.211  20.815  0.0343 -0.1817 -0.0627
93265W        W94129  20.149  22.858  10.245  0.1761  0.3087 -0.0713
93266W        W94130   5.082  23.406   9.685  0.0136 -0.3805  0.0239
93267W        W94131  21.697  17.739  15.421 -0.1310  0.1934  0.2488
93268W        W94132  10.959   1.378   0.818  0.0053 -0.0335  0.0455
93269W        W94133  17.556  11.362  24.846  0.0180 -0.0658 -0.1396
93270W        W94134   3.789  28.136  23.091 -0.1120  0.1806  0.1150
93271W        W94135   8.057  20.723   6.391 -0.0193 -0.1128 -0.0524
93272W        W94136  11.948  11.692   0.739  0.1750  0.1304  0.1430
93273W        W94137   9.751  25.122   2.764  0.0556 -0.1575  0.2323
93274W        W94138  27.552  25.905   2.925 -0.0243 -0.0823  0.0328
93275W        W94139  11.944  21.856   6.027 -0.0235  0.0286  0.1184
93276W        W94140   7.705  18.738   4.825 -0.2176  0.1009  0.2533
93277W        W94141  28.484  17.960  20.313 -0.1159  0.0484  0.1931
93278W        W94142   8.981  22.732   1.407 -0.0957 -0.0776 -0.0484
93279W        W94143  12.424  20.433   7.080  0.1672  0.0513 -0.1046
93280W        W94144  15.817  28.440  26.623  0.1590 -0.1370  0.0982
93281W        W94145  15.888  19.636  14.096  0.0270 -0.2608  0.2462
93282W        W94146  23.580   3.809  28.636  0.4422 -0.4443  0.0862
93283W        W94147  28.952  11.252   4.024 -0.1195  0.0561 -0.0520
93284W        W94148  19.745   7.372  11.909  0.0261  0.1931 -0.2227
93285W        W94149  11.480  14.005  21.075  0.3551 -0.0795 -0.2311
93286W        W94150  17.966   3.371  26.309  0.0510  0.1740  0.0516
93287W        W94151   2.481  18.904   5.850 -0.1068 -0.1057  0.0650
93288W        W94152  19.654   8.403  23.954  0.0058  0.0342 -0.0017
93289W        W94153   1.490   9.890   9.225 -0.0996 -0.0933  0.0995
93290W        W94154  10.385   9.339   1.683  0.2954 -0.0912 -0.2640
93291W        W94155   5.290   3.571  11.228 -0.1728 -0.1045 -0.1131
93292W        W94156  11.923  17.276   6.715  0.0381  0.0144 -0.0545
93293W        W94157  12.028  23.082   0.345  0.2797  0.1672 -0.1343
93294W        W94158  19.613  27.424   8.501  0.0660 -0.3627 -0.0873
93295W        W94159  11.927  10.826  16.704 -0.3441 -0.0404 -0.0183
93296W        W94160  28.229  24.143  20.534 -0.0685 -0.0876  0.1030
93297W        W94161   9.493  20.573  14.508 -0.0129  0.2983 -0.2703
93298W        W94162  21.173   5.349  28.884  0.0394  0.0972 -0.1123
93299W        W94163  14.166  12.278  23.880 -0.1075  0.1283  0.2342
93300W        W94164  18.530  25.039   8.615  0.1032 -0.0546 -0.3272
93301W        W94165  25.755  26.645  21.182  0.2111 -0.1321 -0.4493
93302W        W94166  24.486  20.277  12.864  0.1403 -0.1531 -0.1017
93303W        W94167  23.149  22.604   6.079  0.2806 -0.0155 -0.0464
93304W        W94168   7.495  17.102  26.396 -0.1685  0.2774  0.2039
93305W        W94169  22.867  25.551  17.806  0.0879  0.1827 -0.2454
93306W        W94170  15.388   8.208  13.848  0.0634 -0.2341 -0.3027
93307W        W94171  23.889  17.253  17.336  0.1607  0.2053 -0.1905
93308W        W94172   6.317  10.519  22.638  0.2735 -0.2271 -0.1948
93309W        W94173  22.913  20.415  27.230  0.5002 -0.1675 -0.1182
93310W        W94174  17.732  18.843  10.837 -0.1644  0.2567  0.0207
93311W        W94175   6.317   7.996   7.970 -0.1952 -0.0168  0.1019
93312W        W94176  20.503  19.022  26.506 -0.2033  0.1333 -0.0780
93313W        W94177  28.215  10.018  15.028 -0.1277 -0.0986  0.1587
93314W        W94178   7.007   3.489  19.425  0.0494 -0.0806 -0.2770
93315W        W94179  27.304  28.241  11.874  0.1443 -0.2082 -0.2110
93316W        W94180   0.547  27.578   4.604 -0.1209 -0.2761 -0.0782
93317W        W94181  16.158  27.533   3.140 -0.0364 -0.0276 -0.1065
93318W        W94182   2.054  22.567   7.759 -0.0633  0.0733  0.2766
93319W        W94183  25.087  27.987  25.339  0.1512 -0.0943  0.1562
93320W        W94184   1.550   2.095   0.691  0.1149 -0.4416 -0.0523
93321W        W94185  11.634  14.005  22.929  0.0510  0.0518 -0.2301
93322W        W94186  21.695   1.585   3.810  0.0112 -0.1335  0.0424
93323W        W94187   6.528  17.504  10.792  0.0282  0.3036 -0.0853
93324W        W94188   8.390  14.044   8.695  0.0023 -0.3774 -0.1225
93325W        W94189  21.253  23.063  10.191  0.1066 -0.0266  0.0203
93326W        W94190  24.865  18.525  28.341  0.0529 -0.2435 -0.1043
93327W        W94191  15.769  16.045   1.188 -0.0979  0.0783  0.0089
93328W        W94192   4.152   9.486  15.138  0.0912 -0.0748  0.0643
93329W        W94193   6.520  15.887  11.062  0.1028 -0.1357 -0.0636
93330W        W94194  27.516   9.139  20.273  0.1899 -0.0679 -0.1329
93331W        W94195   5.446  16.960   5.052  0.0507 -0.2809  0.2088
93332W        W94196  14.848  26.066  21.757  0.1454 -0.2117  0.0390
93333W        W94197  28.725  22.105  23.064 -0.0249  0.0157 -0.1306
93334W        W94198  28.333   7.143   6.928 -0.1531 -0.1170 -0.0359
93335W        W94199  20.793   3.737  26.821  0.1635 -0.1587  0.0231
93336W        W94200   7.516  28.173   6.815  0.1202 -0.0366 -0.2199
93337W        W94201  20.366  28.468  25.005 -0.0375  0.1021  0.0370
93338W        W94202  14.289  25.848  18.902  0.1349  0.0585  0.1065
93339W        W94203   2.971  29.024  27.820  0.1474  0.2096  0.0211
93340W        W94204  10.889   5.542   6.876 -0.2860 -0.2704 -0.0262
93341W        W94205   4.379  26.215  12.609  0.4399 -0.0850 -0.3508
93342W        W94206  18.292  17.426  22.617  0.1419 -0.0938 -0.0200
93343W        W94207  15.304   4.086   2.835 -0.3330  0.2819 -0.2989
93344W        W94208   1.193  11.937  21.565 -0.1501 -0.3621 -0.1977
93345W        W94209   5.437  23.977   2.660  0.1296 -0.0596 -0.1769
93346W        W94210  10.269   2.200   1.854 -0.0516  0.0882 -0.1692
93347W        W94211  18.994  10.958   4.038 -0.0553  0.3064  0.0099
93348W        W94212  22.485  19.618  12.969 -0.1041  0.1540  0.0715
93349W        W94213  11.203  14.811   1.842  0.1887  0.1087 -0.0302
93350W        W94214   9.669  16.840  27.051 -0.0717  0.0678  0.2218
93351W        W94215  18.688   6.704  28.854  0.4619 -0.1419 -0.0037
93352W        W94216   1.420   8.308  28.801  0.0941  0.2804 -0.1610
93353W        W94217   5.377  20.160   6.446  0.0025 -0.1405 -0.0552
93354W        W94218  12.979  16.263   0.321  0.1770 -0.2030  0.2869
93355W        W94219   8.765  20.960   6.998  0.0771  0.2492  0.0169
93356W        W94220  26.518  24.341   3.561 -0.2086  0.1439  0.1121
93357W        W94221  19.502  21.466  28.038 -0.0725  0.2143  0.0321
93358W        W94222  28.057  16.140  17.355 -0.4024  0.1230 -0.1786
93359W        W94223  10.471  12.316  22.194  0.1397  0.1259  0.0491
93360W        W94224   4.343  20.464  23.590 -0.0082 -0.2786  0.0758
93361W        W94225  18.651   2.202  28.334 -0.2362  0.1528  0.1867
93362W        W94226  14.972  25.563  12.555 -0.0472  0.0441 -0.0114
93363W        W94227   8.104  12.846  21.470  0.1165 -0.2200 -0.0974
93364W        W94228  23.675  29.109  13.104  0.0691  0.1304 -0.0141
93365W        W94229  19.956   7.691   5.414 -0.1122 -0.2781  0.0649
93366W        W94230  15.101  10.221   2.378  0.0509  0.0500 -0.0218
93367W        W94231  16.039  15.078  10.675 -0.3167  0.0375  0.2133
93368W        W94232   6.962  21.646  27.969  0.2368 -0.0750 -0.1161
93369W        W94233  23.173  10.872  28.678  0.2176 -0.2476  0.2218
93370W        W94234  12.926   8.401   9.791  0.2200  0.0113  0.0772
93371W        W94235   6.036   2.853  20.690 -0.1661 -0.0198  0.2111
93372W        W94236  18.225   0.617   1.998 -0.2921 -0.0830  0.0327
93373W        W94237   6.509   6.924  24.091  0.1887 -0.0978 -0.0033
93374W        W94238  16.477   2.353   8.615 -0.0659 -0.1583  0.0966
93375W        W94239  21.934  25.976   8.358  0.1170 -0.1857  0.2194
93376W        W94240  25.767   6.748   0.793 -0.2509  0.1886  0.0111
93377W        W94241  13.831  12.503  19.879 -0.0481 -0.0163 -0.0710
93378W        W94242   6.073  24.476  28.200 -0.0396 -0.4009 -0.1235
93379W        W94243  17.246  19.859   7.477  0.0728 -0.3127 -0.2126
93380W        W94244  12.960   5.219   8.378  0.0507  0.3341 -0.1796
93381W        W94245   0.209  18.789   8.354  0.2395  0.3891 -0.2686
93382W        W94246   6.507   4.205  19.084 -0.0821  0.3104 -0.0900
93383W        W94247   1.885   0.742   5.340  0.1332 -0.4403 -0.0184
93384W        W94248  17.032   6.711   7.422 -0.0788  0.1254  0.0940
93385W        W94249  16.542  23.452   4.887 -0.1450 -0.0226 -0.0217
93386W        W94250   6.458   4.250   0.333  0.0473 -0.0357  0.0371
93387W        W94251  21.408  10.113  25.887  0.0213  0.0466  0.1125
93388W        W94252  15.565  18.588  10.458  0.2547 -0.1801  0.0372
93389W        W94253  10.153  14.140   8.996 -0.2309  0.0291 -0.0035
93390W        W94254   1.120  12.359  19.487  0.0671 -0.0872 -0.1110
93391W        W94255  27.193  16.568  11.867  0.0277 -0.1276  0.1814
93392W        W94256  11.105  13.966   2.376  0.5171 -0.1665  0.3245
93393W        W94257  13.638   1.579   6.567  0.1634 -0.2568  0.2620
93394W        W94258  11.465  21.375  12.649 -0.0568  0.0651 -0.2039
93395W        W94259  17.964  23.241   5.626  0.0863  0.3789  0.3948
93396W        W94260  20.526  27.375   0.325 -0.2147 -0.3365 -0.0137
93397W        W94261  11.914  19.258   4.279 -0.0422  0.1072  0.0305
93398W        W94262  10.258  24.027   9.689 -0.1274  0.1906  0.2647
93399W        W94263   7.869  28.911  27.124 -0.0227 -0.2461  0.5118
93400W        W94264  23.949   0.249   9.261  0.0056  0.1059  0.1347
93401W        W94265   2.223  22.992  24.991  0.1676  0.0758 -0.0792
93402W        W94266  26.217  19.526  15.338 -0.0641 -0.2012 -0.0646
93403W        W94267  13.317  25.749  19.768  0.3610 -0.1940  0.3956
93404W        W94268  21.842  10.526   3.931 -0.2226 -0.0818 -0.2850
93405W        W94269   2.884   6.894   1.056 -0.1357  0.2021  0.1851
93406W        W94270  23.316   4.089  14.601 -0.1237  0.0029 -0.5109
93407W        W94271  12.214  12.026   3.238 -0.0893 -0.2448  0.0005
93408W        W94272  14.165  28.703  20.890  0.0081  0.0520  0.3294
93409W        W94273  16.345  15.714  13.679  0.1146  0.3426  0.2562
93410W        W94274   9.350   0.777  16.113  0.1682  0.1459  0.1343
93411W        W94275  18.745  13.180   1.155 -0.1297  0.1482 -0.0852
93412W        W94276   2.068   2.570  27.102  0.0787  0.2225  0.2521
93413W        W94277  15.026   5.295  17.961 -0.0072  0.0814 -0.1596
93414W        W94278  20.320  12.920  25.267 -0.1016 -0.3363  0.2120
93415W        W94279  12.451  22.502   4.913  0.0027  0.2146  0.1269
93416W        W94280  18.090  10.374   7.601  0.2606  0.1325  0.1874
93417W        W94281   5.597  12.417   2.101  0.1268  0.1199 -0.1279
93418W        W94282  25.912   1.927   8.141 -0.0194  0.0057  0.2478
93419W        W94283  13.314   8.818   5.897 -0.1914  0.0836 -0.1304
93420W        W94284  14.804  27.785  17.195 -0.0069  0.2450 -0.3189
93421W        W94285   5.765  18.966  22.859  0.1882  0.1380  0.1752
93422W        W94286  24.028   3.509  24.152  0.0954 -0.3227 -0.1727
93423W        W94287  17.205  27.013   7.827  0.2771  0.0812 -0.0812
93424W        W94288  13.297   9.632  22.737  0.2322  0.1303  0.3252
93425W        W94289  12.536   8.723  14.136 -0.1701 -0.1232  0.1027
93426W        W94290  28.108   7.712   9.007 -0.0468  0.2501  0.0417
93427W        W94291  16.454  18.669  24.929 -0.0303  0.0120  0.1171
93428W        W94292  23.451  26.548  14.879 -0.0831  0.0540  0.2401
93429W        W94293   3.277   6.985  27.150  0.0390 -0.0310  0.1063
93430W        W94294  18.790  16.602  19.910 -0.1361 -0.2912 -0.1327
93431W        W94295  14.734  12.683   6.462 -0.0950  0.0901  0.1903
93432W        W94296  21.439  22.614   8.629 -0.2616  0.4063  0.2195
93433W        W94297  25.783  15.246  28.697  0.1724 -0.2930 -0.2097
93434W        W94298   7.088  26.681  19.698 -0.0319  0.3552 -0.1985
93435W        W94299  21.605  13.763  13.149 -0.1694  0.0577 -0.1695
93436W        W94300   7.932   6.027  28.682  0.0559 -0.1174 -0.0437
93437W        W94301  11.870  18.835  28.593 -0.2173  0.1572  0.3556
93438W        W94302  18.049   6.258   5.493  0.1279 -0.2031 -0.0543
93439W        W94303  18.506  28.569  11.595 -0.1156  0.0214 -0.4025
93440W        W94304  27.645   3.475   1.872  0.3838  0.0338  0.5101
93441W        W94305   7.848  19.283  24.182  0.1480  0.0619  0.3265
93442W        W94306   6.656  20.591  11.301 -0.2089 -0.0213  0.0594
93443W        W94307  10.121  28.766   6.465  0.1866  0.1908 -0.0577
93444W        W94308  21.355  19.535   5.394  0.1719  0.0192 -0.1305
93445W        W94309  18.565  15.668  24.910  0.0176  0.0636 -0.1233
93446W        W94310  28.311  23.949  27.978 -0.2672 -0.2165 -0.1902
93447W        W94311  17.628   1.560   6.685  0.2593 -0.1043  0.2933
93448W        W94312  11.027  12.082  13.562  0.0484 -0.0966 -0.2090
93449W        W94313  13.665  26.899   8.300  0.2614  0.3234 -0.0690
93450W        W94314  22.986  16.131   9.979  0.0177 -0.2357  0.1168
93451W        W94315  23.296  24.285   1.467  0.0917  0.3530 -0.3934
93452W        W94316   5.799  13.739  15.519  0.1035 -0.1819 -0.0040
93453W        W94317   4.769  12.290  28.466 -0.0989  0.1887 -0.0654
93454W        W94318  11.203  11.134  15.863  0.0193  0.1487 -0.3812
93455W        W94319  12.348   5.062  10.905 -0.1491  0.0330 -0.1178
93456W        W94320  12.797  12.523   6.564 -0.4200 -0.0827  0.1093
93457W        W94321   9.627  16.127  28.589  0.0904 -0.1446 -0.3323
93458W        W94322  16.865   7.102  22.898 -0.0823  0.0592 -0.2332
93459W        W94323  24.692  14.643  23.233  0.1419 -0.0822  0.1569
93460W        W94324   2.902  12.645   8.931 -0.1963 -0.2237  0.0375
93461W        W94325   7.839   2.461  10.293 -0.0720 -0.1089 -0.4425
93462W        W94326  16.098  15.482  29.057  0.0900 -0.0777  0.3109
93463W        W94327   4.491  26.178   0.325  0.2972  0.1001  0.4399
93464W        W94328   0.205  18.356   7.395 -0.1689  0.1860 -0.2413
93465W        W94329  16.523  13.845   4.246  0.0780  0.1344 -0.0993
93466W        W94330  11.123   3.397  18.542  0.1912 -0.0346  0.0332
93467W        W94331   6.914  22.320  15.042  0.0963  0.2021 -0.2261
93468W        W94332  22.735  16.418   8.674 -0.2933 -0.1428  0.3143
93469W        W94333  21.736  28.170  10.469  0.2031 -0.2632  0.1747
93470W        W94334  17.409  12.267  12.374  0.0643  0.4027  0.0127
93471W        W94335  23.121   0.912  11.091  0.1058 -0.0886  0.0750
93472W        W94336  19.500   4.389   5.293 -0.1719 -0.0700  0.2636
93473W        W94337  26.154  22.575  12.827 -0.3633  0.1887  0.2616
93474W        W94338  27.821  17.409  22.034 -0.4473 -0.0581  0.2316
93475W        W94339   8.898  13.085   0.584  0.1376 -0.1232 -0.1929
93476W        W94340  11.279  16.972   8.067  0.1127  0.4181 -0.2242
93477W        W94341  17.753  21.375   8.224 -0.0145  0.0003  0.0906
93478W        W94342  11.855  14.484  11.027 -0.0382  0.0361  0.1254
93479W        W94343  14.402  10.103  10.609  0.1066  0.1851  0.1001
93480W        W94344  13.874  26.452   9.104  0.0273 -0.0235 -0.1504
93481W        W94345  18.582   3.293   9.560 -0.0180 -0.0028  0.0443
93482W        W94346  22.467  25.759  15.796  0.0769  0.4294  0.4383
93483W        W94347  14.501  29.031   5.748 -0.0724 -0.1254 -0.2362
93484W        W94348  20.429  22.833  18.468  0.0370  0.3327 -0.2693
93485W        W94349  24.772  16.545  24.976  0.0730 -0.0398  0.1438
93486W        W94350  16.741   4.046   6.653  0.0805 -0.0182  0.0166
93487W        W94351   6.486  15.997  10.228 -0.0149  0.0134 -0.0127
93488W        W94352   4.949   5.191  17.190 -0.0398 -0.0108  0.3550
93489W        W94353   4.597   5.321   5.195 -0.3305  0.3135 -0.1305
93490W        W94354  19.807  23.615   5.451  0.1184  0.0885  0.3391
93491W        W94355   2.585  11.589  27.622 -0.0951 -0.1332  0.0392
93492W        W94356  27.354  26.696   9.280  0.1003 -0.3097  0.0179
93493W        W94357  10.024   6.099  18.825 -0.1481 -0.2513  0.1626
93494W        W94358   1.452  10.002  25.193 -0.2171  0.1181  0.2085
93495W        W94359  18.535  17.780   8.746 -0.1999 -0.0478  0.0221
93496W        W94360  15.282  10.255   3.722 -0.3219  0.1282  0.0909
93497W        W94361  10.135  14.869  13.577 -0.1002  0.2781 -0.2399
93498W        W94362  27.927   0.598  26.813  0.2907 -0.1822 -0.0768
93499W        W94363   9.397  27.139   4.136 -0.1318  0.0820 -0.0539
93500W        W94364  18.583  16.717  26.425 -0.0453  0.0091 -0.0913
93501W        W94365  18.019  12.752  15.052 -0.2955  0.2659  0.0827
93502W        W94366   6.629   6.529   2.759  0.0411 -0.2324 -0.0074
93503W        W94367  26.550   9.476  13.508  0.2222  0.0003 -0.1573
93504W        W94368   4.805  25.983  11.937  0.2402 -0.2999 -0.0132
93505W        W94369  20.400   8.246  12.614 -0.1691  0.2623  0.1346
93506W        W94370   3.485  23.792  22.175  0.2456 -0.0757  0.0135
93507W        W94371   8.100   5.904  21.472  0.2747  0.2280  0.3113
93508W        W94372   4.023  14.073   5.310 -0.1768  0.0480 -0.0877
93509W        W94373   8.166  16.786   3.404  0.2558 -0.0419  0.1478
93510W        W94374  10.128  16.215  17.363  0.0680 -0.1763  0.0806
93511W        W94375  15.918  28.051   4.633  0.2377 -0.0388  0.3053
93512W        W94376  13.811  23.203  25.128 -0.0465  0.1130 -0.2258
93513W        W94377   8.742  11.093   5.598  0.0179  0.1329 -0.1947
93514W        W94378  11.182  19.953   0.942  0.0367 -0.0314 -0.1298
93515W        W94379   6.519  26.959  15.201 -0.1757  0.1702  0.0391
93516W        W94380  26.077  13.981  23.298 -0.1658 -0.0758 -0.1888
93517W        W94381   5.964  23.178   6.136 -0.0907 -0.3914  0.0645
93518W        W94382  19.877  23.274   6.768  0.2317  0.2446  0.0128
93519W        W94383   2.087   8.524  17.314 -0.1084 -0.0931  0.0398
93520W        W94384   9.700  23.074  10.249 -0.1789 -0.1823  0.1631
93521W        W94385  23.227  16.718  17.269  0.2078  0.1384  0.0384
93522W        W94386   0.939  28.278  10.876 -0.0948 -0.1009  0.0116
93523W        W94387  11.038  16.485  28.141 -0.2176  0.1740  0.2706
93524W        W94388   0.503  17.676  26.045  0.1958 -0.1575  0.1077
93525W        W94389  13.720  23.576  19.764  0.0433  0.2543  0.0179
93526W        W94390  18.976  12.880   7.522  0.4403  0.3900  0.0443
93527W        W94391  10.287  17.543  26.395  0.1041  0.1266 -0.3506
93528W        W94392  25.275  26.406   2.941  0.2500 -0.0482 -0.0637
93529W        W94393  25.886  15.419   2.432  0.3825 -0.0212  0.3248
93530W        W94394   0.423  21.252  24.712  0.1144 -0.3260 -0.1594
93531W        W94395  25.171  21.468  24.214 -0.1473 -0.0253 -0.2016
93532W        W94396   3.664  12.031  24.330 -0.0931 -0.2892 -0.2030
93533W        W94397  18.209  28.452   4.658  0.3483 -0.2649 -0.4924
93534W        W94398  18.760   2.968   6.081 -0.1386  0.0907  0.0198
93535W        W94399  18.561  15.492  23.851 -0.3160 -0.1661 -0.0185
93536W        W94400   4.025   7.268  12.285  0.0191 -0.0031 -0.2545
93537W        W94401  19.607  21.768  12.060 -0.2936  0.1079  0.0147
93538W        W94402   4.294  15.892  28.609  0.2277  0.0982 -0.1289
93539W        W94403   1.676  21.140  23.117  0.4845  0.2108 -0.0770
93540W        W94404  20.195  13.665  13.373 -0.0816  0.0271 -0.3212
93541W        W94405  10.548  13.616  21.421  0.2568 -0.1704 -0.1054
93542W        W94406  11.977  13.847   3.158  0.0565 -0.1854 -0.2720
93543W        W94407  13.043  19.584  28.282 -0.1283 -0.2941 -0.3999
93544W        W94408  14.456  23.587   0.831 -0.0604 -0.0110 -0.0479
93545W        W94409  16.575  19.433  18.118 -0.0776 -0.1732  0.0352
93546W        W94410   0.785   6.261  24.545 -0.0804  0.2438  0.2608
93547W        W94411  22.692  27.848  27.212  0.1616 -0.0694  0.0957
93548W        W94412   3.362   1.320  18.525  0.0719  0.2231 -0.3682
93549W        W94413  10.694   9.471   7.976  0.0904 -0.6206 -0.1817
93550W        W94414  18.070  16.038   5.813  0.1410 -0.2672 -0.0948
93551W        W94415  17.296  25.328  28.423  0.0024  0.2678  0.4664
93552W        W94416   9.218   0.774   4.916  0.2654  0.0375 -0.1980
93553W        W94417  17.177  14.494  27.953 -0.0500  0.0674  0.5358
93554W        W94418  27.186  11.320  14.222  0.3407  0.0031 -0.0348
93555W        W94419  24.791   5.517   1.943 -0.0327  0.1699 -0.2731
93556W        W94420  10.592   9.756   7.036  0.0941 -0.0407 -0.1422
93557W        W94421  29.088  20.214  10.566 -0.0110  0.0014 -0.0162
93558W        W94422   5.730  12.930   8.087 -0.0316 -0.0219 -0.0799
93559W        W94423  27.767  14.211   1.621  0.2945  0.0428 -0.2340
93560W        W94424  16.492  22.598  16.409 -0.3316 -0.1045  0.2170
93561W        W94425  11.599  25.463  14.745  0.1050  0.1828 -0.0456
93562W        W94426  27.784  13.793   8.528  0.1581 -0.0759 -0.1508
93563W        W94427  16.835  14.481  19.090 -0.2348 -0.2004 -0.2476
93564W        W94428  27.513  20.095  22.507  0.1366 -0.2840  0.0938
93565W        W94429   2.830   9.878  11.484 -0.1065  0.2766  0.0092
93566W        W94430  13.071  26.800  29.079 -0.1217 -0.2103 -0.0608
93567W        W94431  17.212  26.242  15.118  0.0672 -0.0558  0.2531
93568W        W94432   0.905  20.955   8.980  0.1732  0.0749  0.1657
93569W        W94433   5.571  27.811  24.844 -0.1825 -0.0412 -0.3097
93570W        W94434   6.608  25.744  19.812 -0.0964 -0.1257  0.2189
93571W        W94435  22.505   8.199  14.486  0.0966 -0.1092 -0.2110
93572W        W94436   5.881  21.684  12.952  0.1026 -0.0780 -0.4028
93573W        W94437  11.551   0.826  27.911  0.1591 -0.1062  0.2255
93574W        W94438  15.449   0.576   1.584  0.1964  0.2035  0.3403
93575W        W94439  20.271  19.165  25.073  0.0549  0.3538 -0.1296
93576W        W94440   1.340  15.288  15.946  0.1056  0.0090 -0.2829
93577W        W94441  16.054  19.171  25.295 -0.1025 -0.2957 -0.1716
93578W        W94442  14.354  20.767   9.891 -0.0732 -0.0469 -0.0058
93579W        W94443   1.917   0.449  15.534  0.2203 -0.1332 -0.1712
93580W        W94444  22.712  27.360   2.707  0.0760 -0.1027 -0.0605
93581W        W94445   7.636  28.069  26.926  0.1257 -0.0866 -0.4674
93582W        W94446  29.075  14.100  11.770  0.1728  0.0666  0.2377
93583W        W94447   0.474   4.252  14.126  0.0772 -0.2862  0.2523
93584W        W94448  10.934   1.945  24.260 -0.0326 -0.2523  0.1472
93585W        W94449  20.933  24.032  25.714  0.1815 -0.0641 -0.0870
93586W        W94450  22.207  19.249  18.126 -0.0918 -0.1133  0.2506
93587W        W94451   6.300  19.287  12.961  0.0059  0.0971 -0.0978
93588W        W94452  15.263  27.655   7.795 -0.0824  0.0009  0.0973
93589W        W94453  16.802   6.430   6.705 -0.0074  0.1390  0.0381
93590W        W94454   6.199  17.372  18.463 -0.0833 -0.3603  0.2013
93591W        W94455   2.649  18.535  15.478 -0.1409  0.2800 -0.0811
93592W        W94456  15.952   7.664   3.199 -0.0487  0.0643 -0.3020
93593W        W94457   8.959  15.408   4.576 -0.0959  0.1282 -0.0049
93594W        W94458  28.004   3.821   5.941 -0.2233 -0.0093 -0.0987
93595W        W94459  23.743   1.556   3.600  0.0176 -0.2007 -0.0043
93596W        W94460  25.141   3.631  22.270 -0.0897 -0.1455  0.0870
93597W        W94461  13.802  13.653  27.556  0.0411 -0.0111  0.4143
93598W        W94462  24.183   8.368  17.476 -0.1032 -0.2041  0.0096
93599W        W94463  11.972  10.309  16.788 -0.1594 -0.0407 -0.0836
93600W        W94464   2.627  20.048  24.842 -0.0523  0.1280 -0.2013
93601W        W94465   8.616   5.484   7.275 -0.0053 -0.1548 -0.0917
93602W        W94466  23.930   7.745  24.823 -0.2715  0.0499 -0.0240
93603W        W94467   2.759   6.775  15.106 -0.0069 -0.4188  0.0209
93604W        W94468  26.501  28.343  29.037  0.1406 -0.0494  0.1139
93605W        W94469  23.406  10.822  11.958 -0.3759 -0.0158  0.1446
93606W        W94470  11.469  25.013  13.991 -0.0403 -0.2128 -0.1094
93607W        W94471   8.834  12.918  15.632 -0.2394  0.1177  0.2431
93608W        W94472   2.117  22.723  10.678  0.1141 -0.1770  0.0498
93609W        W94473   2.393  22.535   2.542 -0.1440 -0.0367 -0.0588
93610W        W94474  13.786  24.337   4.560 -0.0888  0.0678  0.0423
93611W        W94475   8.695  17.392   8.950  0.2362  0.0148  0.2026
93612W        W94476  13.221  17.381  12.736  0.1245  0.4580  0.1536
93613W        W94477  13.142  21.129   7.180 -0.2526 -0.0076 -0.0401
93614W        W94478  27.675  14.935   3.865 -0.1859  0.2528 -0.1822
93615W        W94479   8.600  12.279   1.846  0.2100 -0.1967  0.2217
93616W        W94480  19.128   5.329   4.073  0.1220  0.4878  0.0521
93617W        W94481  16.111   9.590  17.817 -0.0650 -0.0252 -0.1511
93618W        W94482   9.031   2.605   9.213  0.0887 -0.1130 -0.0610
93619W        W94483  24.179  15.450  18.387  0.1451  0.0401  0.1066
93620W        W94484   1.928  22.382   5.113 -0.2866 -0.1245  0.0576
93621W        W94485  14.120  21.716  13.364 -0.1687  0.2085 -0.1345
93622W        W94486  15.086  13.924  26.550  0.1345  0.0028  0.0240
93623W        W94487  25.594  23.518   8.429  0.1107  0.2996 -0.0612
93624W        W94488   6.068   8.419   3.082 -0.3089 -0.0392  0.2454
93625W        W94489  12.622   5.245  14.123  0.0211 -0.0112  0.1266
93626W        W94490  27.607  25.399   6.288 -0.0124  0.0065  0.0525
93627W        W94491  14.186  14.916  24.083  0.1647 -0.1395  0.1816
93628W        W94492  20.868  21.044   2.714  0.1802 -0.1541 -0.1847
93629W        W94493   9.404   8.890   0.466 -0.1498 -0.0773 -0.2359
93630W        W94494   1.820  16.282  11.686  0.0694 -0.1628  0.2066
93631W        W94495  15.380  14.805  27.616  0.0103 -0.3395  0.0648
93632W        W94496  24.219  21.718   9.135 -0.1299 -0.4875 -0.0614
93633W        W94497  17.022  26.766  13.684  0.0404 -0.2570  0.0249
93634W        W94498   0.760  12.828   0.477  0.0783 -0.2426  0.0365
93635W        W94499   1.334  16.864  23.224 -0.0910  0.0000  0.4172
93636W        W94500  15.223   2.340   0.829  0.2518 -0.0364 -0.0130
93637W        W94501   4.950   9.432   2.174  0.0971  0.0457 -0.0198
93638W        W94502  17.417   9.520  12.582 -0.1425  0.1349  0.0328
93639W        W94503  23.129  15.969  11.115 -0.0472  0.1421 -0.1115
93640W        W94504  10.531  28.311   8.977 -0.4142 -0.1531  0.0388
93641W        W94505  16.918   4.595  23.660  0.0938  0.0168  0.0720
93642W        W94506  22.094  16.250   5.493 -0.0858 -0.0635 -0.1497
93643W        W94507  10.008   4.203  20.277 -0.0162  0.0401  0.0385
93644W        W94508   6.785   3.346  12.232 -0.1819  0.1855  0.0310
93645W        W94509   1.818   4.734  11.174  0.0826 -0.0061 -0.0820
93646W        W94510   8.127   1.541   5.234  0.2462  0.3016 -0.0661
93647W        W94511  15.130  26.217  10.736 -0.2426  0.1091  0.1229
93648W        W94512  26.627  20.306   2.252  0.2473  0.3618  0.0217
93649W        W94513  11.888  11.598  13.145 -0.1622  0.0690 -0.1717
93650W        W94514   3.774   7.593   8.830 -0.0918 -0.1394  0.3255
93651W        W94515  16.629  12.333  19.252 -0.1839  0.3353  0.1738
93652W        W94516  18.638   3.541  28.018 -0.5868 -0.1965  0.0436
93653W        W94517  14.007  19.502   3.097 -0.0714  0.2317  0.1926
93654W        W94518   2.206  20.792   5.537 -0.0777 -0.1107 -0.2472
93655W        W94519   4.427  28.084  10.968 -0.1228 -0.5557  0.2228
93656W        W94520  20.464  21.743  16.491 -0.0595 -0.0412  0.1304
93657W        W94521  11.584  27.372  22.752 -0.0616 -0.0100  0.3450
93658W        W94522  11.584  20.277   4.736 -0.1286  0.0655 -0.0957
93659W        W94523   1.371  25.058  23.792 -0.0749  0.2879 -0.2017
93660W        W94524  18.065  27.113   1.670 -0.0725  0.2225  0.5091
93661W        W94525   7.518  17.634  26.249 -0.2196 -0.1596 -0.5172
93662W        W94526  25.150  25.726  23.035  0.2714  0.0437  0.0394
93663W        W94527  11.305  24.733  24.578  0.0633 -0.0767 -0.2552
93664W        W94528  19.815   8.966   6.657 -0.4359  0.3957 -0.3476
93665W        W94529  22.857   1.422  22.083  0.0568  0.1257 -0.0465
93666W        W94530  17.837  16.268   9.356  0.0135  0.2092  0.2401
93667W        W94531  23.033  23.142  10.402 -0.0564 -0.1652 -0.1066
93668W        W94532  13.936  22.339  19.144 -0.1508 -0.0061  0.1034
93669W        W94533   2.755  16.943  25.007  0.0974 -0.0426 -0.1263
93670W        W94534   1.618  12.552   7.998  0.1154  0.0565  0.1095
93671W        W94535  11.955   7.064  27.179  0.1610 -0.0413 -0.1616
93672W        W94536  14.778   8.241  26.198 -0.2621  0.0959  0.1163
93673W        W94537  25.094   3.250   9.381  0.2253  0.1106 -0.0146
93674W        W94538   2.024  15.948   2.446  0.2934 -0.2204  0.0960
93675W        W94539  18.684  26.386   0.896  0.0696 -0.0816  0.5069
93676W        W94540   4.092  20.436  28.922  0.2314 -0.0663  0.0235
93677W        W94541   4.337  28.533  11.723 -0.1020  0.1825  0.2160
93678W        W94542   0.711  22.767  27.209 -0.2624  0.1815  0.1654
93679W        W94543  19.168   1.024   6.149  0.0555  0.0171 -0.3376
93680W        W94544   4.394  23.072  28.019  0.2802 -0.0576 -0.0485
93681W        W94545   0.091  12.714   8.132 -0.2208 -0.2229  0.0401
93682W        W94546  28.976  25.234   3.466 -0.1806  0.0567  0.1907
93683W        W94547  27.941  18.742   7.302  0.0346 -0.2134  0.2196
93684W        W94548  28.208  13.861   3.293  0.2815  0.1219 -0.1050
93685W        W94549  16.597  16.657  25.088 -0.2261 -0.1473  0.0012
93686W        W94550  19.638  16.566   8.463 -0.0157 -0.1100  0.0243
93687W        W94551   9.727   9.075   4.855 -0.1143 -0.2184 -0.2022
93688W        W94552  13.305   0.628   8.043 -0.3281 -0.0041 -0.0269
93689W        W94553  26.798  16.671  15.522 -0.1881 -0.0141 -0.0605
93690W        W94554  13.037  23.378  13.431 -0.0845  0.0270 -0.1512
93691W        W94555  19.462  23.250   8.651  0.1985  0.0191  0.1407
93692W        W94556  10.005  15.366  15.416 -0.0508  0.2060 -0.0059
93693W        W94557   5.272   7.785  11.497  0.0117 -0.1495 -0.1549
93694W        W94558  24.110   6.044   4.659 -0.3668  0.1201  0.0552
93695W        W94559   4.823  23.611  15.227 -0.0310  0.0225 -0.1556
93696W        W94560  22.598  23.007   6.775  0.1568  0.1678 -0.1898
93697W        W94561   1.907  16.124  10.168 -0.0581 -0.0913 -0.0482
93698W        W94562  22.928  27.589   2.290  0.3174  0.0800  0.1900
93699W        W94563  17.984   1.244  18.493  0.3082  0.0798  0.0966
93700W        W94564   6.676  11.188  16.388  0.0873 -0.0103 -0.0638
93701W        W94565   4.711  25.183   3.364 -0.2712  0.0393 -0.0130
93702W        W94566  14.591  22.926   4.670  0.2901 -0.1353  0.3403
93703W        W94567  20.752  10.077  21.771 -0.0452  0.0625  0.0846
93704W        W94568  18.782   6.297   0.015 -0.2968  0.1093 -0.0473
93705W        W94569   1.367   7.183  25.928 -0.3343 -0.3692  0.1035
93706W        W94570   2.511  26.305   2.209 -0.3174 -0.0722 -0.0610
93707W        W94571  25.993  17.049  17.322 -0.1839  0.3760  0.0730
93708W        W94572  10.016   0.609  24.053  0.0195 -0.1755  0.3536
93709W        W94573   8.956  26.900  12.504  0.2641 -0.0454  0.3055
93710W        W94574   3.619  26.399  28.180  0.0289  0.0037 -0.0183
93711W        W94575  20.033  13.568   9.324  0.0475 -0.2495  0.3693
93712W        W94576   4.700  25.222  28.162 -0.0862 -0.2073  0.3416
93713W        W94577   4.430  27.434  23.449  0.0540  0.3343  0.1975
93714W        W94578   0.415  18.590   8.808  0.3758  0.0504 -0.0136
93715W        W94579  12.566  27.512  14.247 -0.0938 -0.0327 -0.0021
93716W        W94580  16.181  25.258  14.951  0.1531  0.0817 -0.1447
93717W        W94581  18.116  16.366  19.260  0.2733 -0.2324 -0.3131
93718W        W94582   2.627  15.854  28.928 -0.0511 -0.0913  0.0737
93719W        W94583  23.954  16.583  11.637  0.0365  0.0619 -0.0595
93720W        W94584  21.815  19.238  13.354 -0.0980 -0.0655 -0.1439
93721W        W94585  10.588  27.438   3.592  0.2853 -0.0574  0.2899
93722W        W94586  12.320  24.214   5.184 -0.1030 -0.1252 -0.0509
93723W        W94587  21.206  15.616  14.254 -0.4869 -0.1666  0.0548
93724W        W94588   3.319   2.531  10.032  0.2634 -0.0538 -0.2564
93725W        W94589  25.621  20.830  21.618  0.1747 -0.1459 -0.0636
93726W        W94590  24.989  23.702  28.014 -0.1616 -0.5640  0.1454
93727W        W94591   7.494  27.851  23.534 -0.2339  0.2186  0.0980
93728W        W94592   2.674  11.597   4.667 -0.4175  0.3989  0.0196
93729W        W94593   6.356  17.984   0.523 -0.1564 -0.2567 -0.1394
93730W        W94594   7.654  24.836  11.445  0.0865  0.3623  0.0543
93731W        W94595  12.657  19.132  10.344  0.2028  0.2337  0.1793
93732W        W94596   0.924  15.742  20.602  0.1703  0.1563 -0.1618
93733W        W94597  17.750   2.454  14.906 -0.0097 -0.2921 -0.2258
93734W        W94598  15.361  21.183   5.720  0.1011  0.1251 -0.1499
93735W        W94599   8.494  14.904  10.990  0.1111  0.0003 -0.0276
93736W        W94600   2.613   8.065  27.892  0.0823 -0.1003 -0.0599
93737W        W94601  23.248  17.128  28.598 -0.1060  0.1179  0.3943
93738W        W94602  28.121  12.311  18.433 -0.1786  0.2874 -0.2302
93739W        W94603  15.879  23.191  28.009  0.2220 -0.1098  0.0877
93740W        W94604   0.058  14.279  17.956 -0.1430 -0.0358  0.0036
93741W        W94605  25.128  20.563  14.946 -0.0140 -0.2806  0.5090
93742W        W94606   7.943   2.035  11.306  0.3168  0.2351 -0.1127
93743W        W94607  19.061   2.864   9.099  0.2271  0.1551  0.3537
93744W        W94608   0.937  19.104  16.043  0.0170  0.1890 -0.2917
93745W        W94609  23.372  11.048   6.124  0.2909 -0.0900 -0.4331
93746W        W94610  28.586  22.768  18.168 -0.0084 -0.1163 -0.1944
93747W        W94611  18.845  28.041   9.656  0.0156 -0.1105 -0.2387
93748W        W94612   7.615  10.690  13.863 -0.2736  0.0645 -0.2548
93749W        W94613  18.549  14.114   7.565 -0.0428  0.0772 -0.1813
93750W        W94614   5.007  16.725   1.181 -0.1159  0.0670 -0.2162
93751W        W94615   5.515  28.923  27.590 -0.1724  0.0635 -0.1725
93752W        W94616  17.420   8.012  12.157 -0.2605  0.1142  0.2107
93753W        W94617  27.707   1.408  15.914 -0.2491 -0.2167  0.2940
93754W        W94618  23.563  20.967  11.687  0.3641 -0.1149  0.1713
93755W        W94619  15.224   5.687  23.733  0.1047 -0.3940 -0.1084
93756W        W94620   9.752   6.931  16.756 -0.0928  0.3477  0.0834
93757W        W94621  20.845  22.498  22.983  0.0876 -0.1926 -0.2428
93758W        W94622  15.019   7.433  26.637 -0.1423 -0.0254  0.1757
93759W        W94623   9.695  11.079  24.972 -0.1231 -0.1794 -0.3061
93760W        W94624   3.607  25.193  10.481  0.0509 -0.2341  0.3566
93761W        W94625  18.974   4.298   8.055 -0.0867  0.4846 -0.0316
93762W        W94626  10.486  28.752  21.934  0.0402  0.0474 -0.1002
93763W        W94627  18.297   9.483   7.570 -0.2912 -0.0999  0.2626
93764W        W94628   0.950   7.388  13.897 -0.0187  0.2943 -0.0651
93765W        W94629  19.776   2.612  11.457 -0.2033 -0.1614  0.1642
93766W        W94630  23.607  29.008  25.307 -0.1557 -0.0377 -0.1760
93767W        W94631   1.959  13.935   3.409  0.1286 -0.1869 -0.0901
93768W        W94632  13.204  18.377  27.819  0.2775 -0.0144  0.2269
93769W        W94633  17.433  27.791  13.143 -0.0511  0.1552 -0.1086
93770W        W94634  11.554   7.046  12.886 -0.1219 -0.2076 -0.0176
93771W        W94635  23.274   6.194  21.536  0.2584 -0.1086 -0.1061
93772W        W94636  16.533   3.252   3.456 -0.0914 -0.2551 -0.0643
93773W        W94637  11.703  11.678  19.051 -0.1104  0.0217 -0.0078
93774W        W94638  20.173   9.933  23.481 -0.2548  0.0773  0.1039
93775W        W94639  17.027  19.131  24.182 -0.3069 -0.2207 -0.2536
93776W        W94640  10.489  14.288   1.800 -0.1479  0.1320  0.2143
93777W        W94641  17.498  24.606  25.985 -0.0260 -0.1949 -0.2058
93778W        W94642  17.239  27.091  22.098 -0.0660  0.1123  0.1891
93779W        W94643   4.116  22.569  24.831 -0.2844 -0.1626  0.1278
93780W        W94644  16.938  12.199  12.547  0.0122  0.1746  0.1811
93781W        W94645  28.035   4.250   3.139 -0.0593  0.2673  0.0600
93782W        W94646  28.791  26.906  20.019  0.0372  0.0793  0.1456
93783W        W94647  24.884  14.924  17.232  0.3050  0.1972  0.0294
93784W        W94648  17.723  19.656   9.152  0.0331 -0.0567 -0.0677
93785W        W94649  22.597   9.687   8.541  0.4201 -0.1480  0.2188
93786W        W94650   5.684  21.981  15.658  0.0244 -0.4150 -0.1418
93787W        W94651  22.986  27.230   0.392  0.0169  0.0006  0.0963
93788W        W94652  26.521  26.236  14.850  0.0290  0.0399 -0.0433
93789W        W94653   7.753  22.800  10.823 -0.1500 -0.2572 -0.1486
93790W        W94654   6.862  21.074  12.989  0.1793  0.2046  0.0518
93791W        W94655  17.300  15.411   5.636  0.0845 -0.1022  0.0906
93792W        W94656  12.421  15.451  21.410 -0.1273 -0.0252  0.0134
93793W        W94657  25.368  16.346  13.834 -0.0376  0.1612  0.2626
93794W        W94658  13.916  24.836  21.274 -0.0003  0.0064 -0.2590
93795W        W94659  12.820   2.380  28.119 -0.1075  0.2334 -0.3027
93796W        W94660  18.592  12.606  12.171 -0.0789  0.4142 -0.0159
93797W        W94661   1.269   0.021   0.712  0.3880 -0.4122  0.0517
93798W        W94662  21.493  28.036  28.515 -0.1055  0.3313  0.2628
93799W        W94663  21.118  19.735  16.328 -0.0880 -0.2640  0.1853
93800W        W94664  15.051  19.009   5.946  0.1419  0.2339  0.0197
93801W        W94665  16.347  22.602  15.749 -0.1737 -0.0861  0.0462
93802W        W94666  25.330  17.061   8.475 -0.3686  0.1894  0.2503
93803W        W94667  18.795  21.788   7.671 -0.1761  0.0491 -0.2676
93804W        W94668   7.466  21.197  27.180 -0.0693 -0.0825 -0.1773
93805W        W94669  16.254  13.581  18.259 -0.0950 -0.1667  0.0266
93806W        W94670   3.860   1.944  17.686  0.1899  0.0746 -0.1971
93807W        W94671  18.709   5.052  22.419  0.2579 -0.1306 -0.1269
93808W        W94672   8.681   9.855  28.297  0.2532  0.0904  0.1961
93809W        W94673  13.488  21.156  23.707 -0.0799 -0.3542  0.1961
93810W        W94674  11.472  20.991  27.453 -0.2050 -0.1325  0.0514
93811W        W94675  11.441   7.978  10.988 -0.2835  0.1499 -0.0203
93812W        W94676   3.049  18.707  14.072 -0.2814  0.0225  0.1243
93813W        W94677  19.273  27.605   3.854 -0.1864  0.4405 -0.1457
93814W        W94678  26.838  20.123  12.419  0.2130  0.1579  0.1961
93815W        W94679  19.425  14.827   4.145 -0.3201 -0.2089  0.0024
93816W        W94680  23.856  16.728  10.103  0.1270  0.1019  0.1567
93817W        W94681  16.655  21.484  25.613  0.3168  0.1235  0.1729
93818W        W94682  18.423  19.364  27.193  0.0238  0.0317 -0.1367
93819W        W94683  16.448  22.577   7.814 -0.1133 -0.0631  0.0819
93820W        W94684  13.138   8.008   7.495 -0.0920  0.1044 -0.0449
93821W        W94685  15.882  23.119   3.640  0.1372 -0.0590 -0.0602
93822W        W94686   6.568  19.144   7.149 -0.1982  0.1309  0.0119
93823W        W94687  19.216  10.266  11.276  0.0367 -0.1610 -0.1279
93824W        W94688   0.476  11.204  21.797 -0.2927  0.0727 -0.0078
93825W        W94689  18.356  27.135  15.780 -0.3073  0.1548 -0.0001
93826W        W94690  23.110  18.996  19.716 -0.0556  0.1802 -0.0414
93827W        W94691   4.089  16.547  26.350  0.0081  0.1070  0.0099
93828W        W94692  18.818   0.809  22.293 -0.1870  0.0545 -0.0156
93829W        W94693  15.174  23.202  14.456  0.3913  0.1468  0.1094
93830W        W94694   9.105   2.665  14.590  0.0320 -0.1906 -0.0690
93831W        W94695   2.944  19.889   7.353 -0.0321  0.0974 -0.1188
93832W        W94696  14.182  13.561  25.020 -0.0156 -0.2462  0.1644
93833W        W94697  13.967   1.931  21.708  0.1117  0.1702 -0.1467
93834W        W94698  23.653  14.001  10.416  0.0923  0.1378  0.1819
93835W        W94699  12.116   5.384   1.980 -0.0443 -0.1778 -0.1409
93836W        W94700  17.019  24.794  23.321 -0.2351  0.0243  0.2644
93837W        W94701  19.028  28.003  18.878 -0.0897  0.1696  0.1642
93838W        W94702   6.698  20.550  15.741  0.2340  0.0004 -0.1818
93839W        W94703   2.563  28.340  20.886 -0.0029 -0.0076  0.1029
93840W        W94704   6.259   8.146  11.389 -0.5027  0.3347 -0.3054
93841W        W94705   8.417  21.217   5.249  0.1081 -0.1100  0.4300
93842W        W94706  15.322  20.068  19.876  0.1158  0.2617  0.2266
93843W        W94707  21.837  28.593   7.164 -0.1569 -0.1225  0.1092
93844W        W94708   5.073  13.845  25.353  0.2792 -0.0900  0.1415
93845W        W94709  10.401  11.175   2.193 -0.1746  0.1770 -0.0715
93846W        W94710  15.542  19.803  24.839 -0.2896  0.2061 -0.1099
93847W        W94711  13.003  22.441   4.479  0.4899 -0.1927  0.1904
93848W        W94712  10.190  21.526  14.295  0.7377 -0.0562  0.4964
93849W        W94713  17.882  12.256  15.834 -0.0576 -0.0550 -0.0083
93850W        W94714  18.564  22.359  26.691 -0.2734  0.2013 -0.0999
93851W        W94715   3.968  22.055  28.520 -0.3244  0.1095  0.0060
93852W        W94716  10.616  20.805  21.987  0.0298  0.1083 -0.0387
93853W        W94717  11.289   1.688  14.288  0.3157 -0.0833  0.1945
93854W        W94718  21.221  14.134   2.272 -0.2422  0.0989 -0.1539
93855W        W94719   7.880  13.842   7.325  0.1783 -0.2135 -0.2489
93856W        W94720   6.930   7.915  11.192  0.1387  0.1614  0.3455
93857W        W94721  24.868  24.841  14.650 -0.0749  0.1544 -0.2204
93858W        W94722  11.925  18.117  13.289 -0.0917 -0.1965 -0.1688
93859W        W94723   5.997  24.816   8.323 -0.1204 -0.2311  0.0558
93860W        W94724   8.450   3.524   6.684 -0.0731  0.0270  0.0127
93861W        W94725  26.803  19.745   8.453  0.0189  0.0203 -0.1196
93862W        W94726   7.475  28.320  13.597 -0.1994 -0.1331  0.0634
93863W        W94727   0.608  27.663  14.755 -0.2145 -0.0826 -0.0438
93864W        W94728  13.209  10.984  14.808 -0.1004 -0.0972  0.1585
93865W        W94729   8.816   9.791   6.745 -0.2268  0.3783  0.0467
93866W        W94730  10.596  21.521   0.895  0.0725 -0.2285 -0.1710
93867W        W94731   8.156  21.427  26.045  0.5866 -0.0915  0.2622
93868W        W94732   2.739  13.656  28.023  0.1628 -0.1046  0.2721
93869W        W94733  20.120  16.469  26.211 -0.1254  0.2330 -0.3493
93870W        W94734   2.354  28.617  18.737 -0.1326 -0.0809 -0.0775
93871W        W94735   5.034  24.980  28.987  0.2134 -0.4576 -0.0399
93872W        W94736  14.316  18.861  13.054  0.0222  0.0503 -0.0801
93873W        W94737  21.464  17.527   1.002 -0.0817 -0.2639 -0.0689
93874W        W94738  25.444  15.051  11.954  0.1276 -0.2827 -0.0910
93875W        W94739  19.585  24.986  26.656  0.2515  0.2667 -0.1515
93876W        W94740  10.739   1.288   6.820  0.0176 -0.1224 -0.0576
93877W        W94741   8.245  22.951   7.967  0.2116  0.2273  0.5469
93878W        W94742   1.699   2.258  14.469 -0.1249  0.1184 -0.0972
93879W        W94743   1.866  11.244  18.278 -0.0318 -0.1594  0.1815
93880W        W94744  18.237  19.267  21.980  0.2936  0.1221 -0.0474
93881W        W94745  18.560   1.343  27.122 -0.2203  0.1953  0.0597
93882W        W94746   4.406  10.381  18.292 -0.1300  0.2339 -0.0580
93883W        W94747   5.596   7.647   6.361 -0.1369 -0.0992 -0.3336
93884W        W94748  12.179   3.728   3.600 -0.0936  0.1782  0.3234
93885W        W94749  15.205  26.154   5.123  0.1984  0.1595 -0.1138
93886W        W94750   2.385  23.394  27.370  0.3487 -0.3138  0.3590
93887W        W94751   3.164   1.655   2.241  0.3806  0.0867  0.1308
93888W        W94752   8.401  11.712   4.304 -0.0741 -0.0716  0.0083
93889W        W94753   8.894  28.872   8.037 -0.0049 -0.1182 -0.2157
93890W        W94754   6.299  26.343   8.590 -0.1054  0.1465  0.0007
93891W        W94755   2.411  13.235   4.618  0.0396 -0.0693 -0.1043
93892W        W94756  14.866   3.639  28.524  0.2944  0.0680  0.0800
93893W        W94757  26.934  24.637  18.245  0.0406 -0.1565 -0.2010
93894W        W94758   2.343   9.669   3.422  0.3331  0.1699  0.0873
93895W        W94759   9.983  20.638  15.231  0.1050  0.0541  0.1352
93896W        W94760  21.688  16.226  21.239 -0.1429 -0.0489 -0.0325
93897W        W94761   6.533  18.091  12.117  0.3503 -0.1366 -0.1235
93898W        W94762   7.781   5.873  18.606 -0.0923 -0.0603  0.0932
93899W        W94763  19.429  19.866   6.159  0.0090  0.3438  0.1197
93900W        W94764   9.653  27.312   6.556  0.0329  0.2149 -0.0408
93901W        W94765  12.647   3.631  11.098 -0.1467 -0.2509 -0.2937
93902W        W94766  23.048  17.917  25.873  0.1892  0.1521 -0.3501
93903W        W94767  20.197   0.102   0.236 -0.3128  0.0689 -0.1220
93904W        W94768   9.724  18.415  11.114  0.1228 -0.0677 -0.3812
93905W        W94769  13.464  16.616  15.899  0.2057 -0.1102 -0.1137
93906W        W94770   6.285  14.727  14.749  0.2910 -0.4163  0.1126
93907W        W94771  12.679  20.408  23.588 -0.1255 -0.0439  0.2655
93908W        W94772   7.515  18.404  11.058 -0.1481  0.3876  0.5883
93909W        W94773  18.229  23.899  19.128  0.0338  0.1347  0.0578
93910W        W94774   9.715  18.444  16.775  0.1121 -0.0725 -0.2471
93911W        W94775   5.861   9.944   6.090 -0.2320 -0.2642 -0.0063
93912W        W94776   6.793  27.828  11.030 -0.0102 -0.0324  0.0218
93913W        W94777  28.574  28.829   6.735 -0.0705 -0.1141 -0.0467
93914W        W94778   2.334  21.624   8.536 -0.0149 -0.0223 -0.1397
93915W        W94779   4.660  13.453   6.342  0.0023 -0.1430  0.0178
93916W        W94780   7.548  20.863  24.078  0.0364 -0.0349  0.2366
93917W        W94781  18.051   5.939  18.690  0.3127  0.0141  0.1169
93918W        W94782  26.422  20.531  13.080 -0.0029  0.2742  0.1647
93919W        W94783  12.505  17.205   3.961 -0.0357  0.0674  0.0834
93920W        W94784   2.693  24.336  16.563  0.1704 -0.3787  0.0183
93921W        W94785   1.219   9.824   7.571  0.2434 -0.0279 -0.0251
93922W        W94786   0.101  21.704   8.450 -0.1090 -0.0410 -0.0979
93923W        W94787   3.731   9.342   9.251  0.0848  0.1741  0.0065
93924W        W94788  16.984  27.266   5.005  0.0966  0.0902  0.1288
93925W        W94789  21.986   0.651   5.687  0.1149 -0.1887  0.1813
93926W        W94790   6.357   3.676  22.007 -0.1195  0.1104  0.0897
93927W        W94791  11.049  11.108  11.420  0.0485  0.2276  0.0606
93928W        W94792  18.877  27.847  12.117  0.1506  0.2914 -0.0885
93929W        W94793  22.667  27.867   5.566 -0.0637 -0.3923 -0.1630
93930W        W94794  29.120  26.214   3.289 -0.0436  0.1604  0.0844
93931W        W94795  14.933  24.274  26.699 -0.2472 -0.0781  0.1929
93932W        W94796  18.798   3.855   3.913  0.0209  0.4200 -0.2530
93933W        W94797   8.333   1.065  21.859  0.1483 -0.0154 -0.2476
93934W        W94798  15.358  26.292  27.390  0.1004  0.2246 -0.0803
93935W        W94799  19.496   9.207   1.978  0.1490  0.3615 -0.1679
93936W        W94800  12.246  23.315  28.026 -0.0990 -0.0632 -0.0894
93937W        W94801  25.117  21.710   8.815 -0.2560  0.0775 -0.1459
93938W        W94802  19.980  17.923   3.035  0.1761  0.2047  0.2353
93939W        W94803  20.807  17.280  13.040 -0.1963  0.0543  0.1646
93940W        W94804   3.386  16.120   4.572 -0.1194  0.0119  0.2715
93941W        W94805  23.673  11.313  11.545  0.0579 -0.2065 -0.3225
93942W        W94806  14.322  23.003   2.118 -0.2201  0.0708 -0.0478
93943W        W94807  19.866  21.650   2.449 -0.2760  0.1004 -0.0435
93944W        W94808  15.483   3.333  24.128 -0.0664 -0.0091 -0.1317
93945W        W94809  14.294  21.571   7.442  0.3959 -0.0033  0.2401
93946W        W94810  16.606   7.368   1.094  0.0608 -0.1137  0.0099
93947W        W94811  12.402  10.508   1.103 -0.0040  0.1860  0.3228
93948W        W94812  24.499   5.564  27.523 -0.1137  0.0090  0.1614
93949W        W94813   8.957  25.881   1.668 -0.1071 -0.1190  0.1804
93950W        W94814  18.149   8.133  27.668  0.1453 -0.3658 -0.6112
93951W        W94815   7.158  25.797  19.703 -0.0866  0.1390 -0.0830
93952W        W94816   9.778  27.803  25.732 -0.2314  0.0996  0.1787
93953W        W94817  20.345  16.564  14.521 -0.2081 -0.2986  0.0657
93954W        W94818  21.782   9.618   7.047 -0.3342 -0.0482 -0.2370
93955W        W94819  17.671  18.677  20.059 -0.3105 -0.2649  0.0368
93956W        W94820  20.782  19.339  13.425 -0.0337 -0.5483 -0.0905
93957W        W94821   9.993   4.304  12.566 -0.0824  0.0771  0.0421
93958W        W94822  25.582  22.171  17.136 -0.3112  0.0480 -0.3843
93959W        W94823  24.481  18.781  14.238 -0.1094 -0.1083 -0.1858
93960W        W94824  19.334  20.563  12.679  0.1588  0.2783  0.1288
93961W        W94825   9.725  15.847  19.809 -0.3047  0.0091 -0.1003
93962W        W94826   9.192  25.963   8.994 -0.2011  0.3300 -0.0474
93963W        W94827  16.434  17.595   8.410  0.2416  0.2373 -0.2461
93964W        W94828  10.986   0.291   7.993  0.0514  0.3151  0.0171
93965W        W94829  13.468  19.477  22.081  0.3217 -0.1312  0.2333
93966W        W94830  11.114   6.263   8.984 -0.1064 -0.3015 -0.2515
93967W        W94831  11.049  21.855  15.817  0.0785  0.0053 -0.0894
93968W        W94832   5.373  17.404  15.219  0.1428 -0.0692  0.0111
93969W        W94833  18.514  18.742  12.130 -0.0565 -0.4081 -0.0647
93970W        W94834  26.057  11.469   0.509 -0.1806  0.0218 -0.0469
93971W        W94835   4.627  20.495   2.445  0.0790 -0.0211 -0.0960
93972W        W94836  12.768   1.677   7.296 -0.0207  0.0199  0.2569
93973W        W94837  10.273   8.716  20.418  0.1399 -0.0877 -0.0599
93974W        W94838  21.065   1.946   8.578  0.3319  0.1500  0.2614
93975W        W94839   9.087  25.273  26.243 -0.1886 -0.1468 -0.1382
93976W        W94840  15.819  11.680  27.620 -0.0514 -0.2256 -0.0613
93977W        W94841   9.790  11.606  10.192 -0.0721 -0.0063 -0.3138
93978W        W94842  25.072  24.384  15.824  0.2995  0.4282  0.0870
93979W        W94843   5.173  26.806   1.624  0.1043 -0.0539  0.2804
93980W        W94844  15.701   7.610  15.136  0.0179 -0.2283  0.1656
93981W        W94845  16.325  27.432  23.518 -0.0344  0.0697 -0.2159
93982W        W94846  16.749  27.584  10.919 -0.0505 -0.0133  0.0853
93983W        W94847  15.571   2.876   5.082  0.2988  0.1653 -0.1936
93984W        W94848  15.638  26.807  11.045 -0.3034  0.1832  0.0248
93985W        W94849  13.405  24.779  24.501  0.0707  0.1805  0.3064
93986W        W94850   0.705  17.546  22.183  0.1821 -0.2740 -0.1676
93987W        W94851  20.091   8.681   9.839 -0.2514  0.1385  0.1294
93988W        W94852  17.277  11.576  16.616 -0.4219  0.2415 -0.1846
93989W        W94853  23.235  20.406  20.352 -0.2211 -0.0274 -0.1441
93990W        W94854   3.501  28.482  11.361 -0.0532  0.0255 -0.1236
93991W        W94855   7.243  28.192  11.656 -0.0893  0.0842 -0.1473
93992W        W94856   5.611  24.189  26.358  0.5208 -0.2566  0.1602
93993W        W94857  15.000  12.004   5.456 -0.0028  0.2150  0.0851
93994W        W94858   8.756  22.163  28.796 -0.0140 -0.3217  0.2938
93995W        W94859  16.496  12.046   1.752  0.3059 -0.1063 -0.0191
93996W        W94860  13.410  15.844   4.596  0.0154 -0.0306  0.0832
93997W        W94861   5.355  21.249   9.527  0.3262  0.1701  0.0668
93998W        W94862  20.420  24.395  14.058  0.0578 -0.1588  0.3805
93999W        W94863  13.212  26.954  25.021 -0.0140  0.0294  0.0788
94000W        W94864  10.002  17.883  13.169 -0.0981 -0.1721 -0.0985
94001W        W94865  15.217  26.067   1.012 -0.0002 -0.2411 -0.1719
94002W        W94866   6.703  17.088   6.973 -0.2856  0.1280  0.5237
94003W        W94867   9.056  22.282   4.029 -0.0626  0.1478  0.0120
94004W        W94868  25.586  13.373  11.875  0.0267  0.1124 -0.2802
94005W        W94869   6.289  13.977  12.576 -0.0127  0.1537 -0.0452
94006W        W94870  17.119  18.227  12.867 -0.0361 -0.1800 -0.0236
94007W        W94871  21.185  14.967  13.590  0.1644  0.3814  0.1292
94008W        W94872  17.861  15.277  26.665  0.1158 -0.1574 -0.1213
94009W        W94873   9.917  16.996  12.463 -0.1235  0.1346 -0.0936
94010W        W94874  23.584  23.831  10.202  0.0522 -0.2128 -0.3886
94011W        W94875   1.315   2.954   7.926  0.0543  0.1802 -0.0232
94012W        W94876   2.022  18.184   0.122 -0.1645 -0.2582 -0.1204
94013W        W94877  13.736   3.027   1.843 -0.2049 -0.0314  0.0458
94014W        W94878  23.417  26.570  12.811  0.0904  0.2190  0.0192
94015W        W94879  16.651   1.406  24.056 -0.1017 -0.1603 -0.1467
94016W        W94880  19.285   7.311   7.216  0.1200  0.0673  0.1303
94017W        W94881  21.443  28.522  14.987 -0.0247 -0.1564  0.1762
94018W        W94882   4.828   8.692  11.597  0.0089  0.0908 -0.1653
94019W        W94883  28.609  26.735  28.521 -0.3623 -0.0795  0.3176
94020W        W94884   7.215   5.408   5.224  0.5158  0.0015 -0.0686
94021W        W94885   5.214  11.304  20.983 -0.3622 -0.3257  0.3188
94022W        W94886  21.025  15.121  24.211 -0.2341  0.0799 -0.0698
94023W        W94887   1.744  16.512   4.103  0.1885 -0.0724 -0.0530
94024W        W94888   2.736   3.477  23.339  0.1394 -0.2146  0.0806
94025W        W94889  21.620  10.872  21.852  0.1965 -0.0695  0.0188
94026W        W94890   9.930  20.217  11.179 -0.0483 -0.3198  0.0822
94027W        W94891   7.262  12.991   2.795 -0.4979 -0.0996 -0.0337
94028W        W94892  16.761   0.814  18.782 -0.0186 -0.0382 -0.0082
94029W        W94893   4.450   0.643  26.797  0.0002  0.1377 -0.3460
94030W        W94894  15.856  10.722   3.386 -0.0633 -0.2192  0.0709
94031W        W94895  18.441  23.457  22.668 -0.0211 -0.2929 -0.0457
94032W        W94896  13.032   2.978  26.612 -0.3669  0.0706 -0.1730
94033W        W94897   6.977  18.755  27.716  0.1376  0.4493  0.1969
94034W        W94898   7.370  15.171  11.570  0.0284 -0.3840 -0.3714
94035W        W94899  20.039  15.803   8.203 -0.1420 -0.0303 -0.0963
94036W        W94900  23.613  26.958   6.937  0.3640  0.0497  0.0792
94037W        W94901   8.585  17.939  21.065  0.2439  0.1795  0.0109
94038W        W94902  22.237  20.106  12.998  0.0387 -0.0921 -0.0303
94039W        W94903   8.698  26.829   4.095 -0.0965 -0.0309  0.1953
94040W        W94904  24.219   0.697  15.194  0.0749  0.2363 -0.3511
94041W        W94905   5.021  13.525   4.790 -0.1776 -0.0353  0.2327
94042W        W94906  19.735  20.779  25.762 -0.4385 -0.0483 -0.2260
94043W        W94907  28.404  25.309  10.910 -0.2766 -0.2915  0.1747
94044W        W94908   1.280   9.684  12.579 -0.4266 -0.0401 -0.2849
94045W        W94909  25.560  21.330  24.980 -0.1548  0.0398 -0.2742
94046W        W94910   1.250  15.409  19.098  0.0717 -0.2396  0.2154
94047W        W94911  18.062  17.166   7.882 -0.2343  0.0932  0.0427
94048W        W94912   3.761  10.218  15.669  0.0104 -0.0057 -0.0529
94049W        W94913   9.806  19.273  21.054 -0.0637  0.0828  0.2271
94050W        W94914  23.212   0.301   6.795 -0.1528  0.0510  0.0978
94051W        W94915  17.538  25.509  27.962  0.3383 -0.0713  0.1557
94052W        W94916   2.745   4.275  25.292  0.1299 -0.0987  0.1039
94053W        W94917   4.720  27.707  12.480  0.1829 -0.2364  0.2116
94054W        W94918  19.542  17.735   2.235  0.2285 -0.1053  0.0289
94055W        W94919   3.497  21.901  11.694  0.0304 -0.0453 -0.2310
94056W        W94920  27.787  27.913  11.044  0.0389 -0.0970  0.2919
94057W        W94921  15.914  26.491  27.487  0.0169 -0.1397 -0.1029
94058W        W94922   8.162  23.387   1.220 -0.1602 -0.2248  0.0181
94059W        W94923   2.829   0.359  28.546  0.0657 -0.1638 -0.1270
94060W        W94924  27.143   9.691  12.606 -0.3196 -0.0386 -0.2213
94061W        W94925  14.923  15.669  13.964  0.0894 -0.2791 -0.1584
94062W        W94926  18.991  15.956   0.760  0.0305 -0.1320 -0.0946
94063W        W94927  26.143   1.018  26.291 -0.0488  0.1729  0.0356
94064W        W94928   5.927   8.117  19.969 -0.0123  0.2945  0.0021
94065W        W94929  17.475   6.059  14.285  0.2188  0.1600  0.1973
94066W        W94930   2.316  19.084   4.184  0.0091 -0.3156 -0.2762
94067W        W94931  21.958   2.057  11.803 -0.1636 -0.3704 -0.2543
94068W        W94932   8.905   1.915  19.881  0.2828  0.2225  0.0900
94069W        W94933   3.877  15.944  15.836  0.0094 -0.1691  0.0723
94070W        W94934  11.543   5.304   9.331 -0.1745  0.3794  0.0568
94071W        W94935   4.378  16.489  27.760  0.0414  0.2280  0.2072
94072W        W94936   5.958  11.290  10.025 -0.0713 -0.0805  0.0331
94073W        W94937  17.356  25.423   2.971 -0.1283  0.2623 -0.0674
94074W        W94938   5.678  27.150  14.311 -0.2334 -0.1865  0.0702
94075W        W94939   9.572  22.105  12.482 -0.0752  0.1233  0.3945
94076W        W94940  15.362   1.734  20.890  0.1909 -0.2180  0.3870
94077W        W94941  15.208   5.503  11.187 -0.1117  0.0261 -0.1372
94078W        W94942   2.824  18.274   0.706 -0.0640 -0.2085 -0.0389
94079W        W94943  17.573   7.629  27.277 -0.3016 -0.1033  0.2038
94080W        W94944  27.370   2.454  13.797 -0.0001  0.1468 -0.0105
94081W        W94945  15.189  24.694  13.253 -0.0923 -0.0177  0.0203
94082W        W94946  12.472  20.390  13.819  0.0419  0.2667 -0.1379
94083W        W94947  20.138  16.588   8.385  0.0052  0.2684 -0.1561
94084W        W94948   0.597  21.099  27.169 -0.0642 -0.2771 -0.1590
94085W        W94949  17.140  25.952   9.838  0.2377  0.1758 -0.0892
94086W        W94950   1.855   5.357  21.746 -0.1056 -0.3432 -0.0041
94087W        W94951   8.195   9.838   8.796  0.0261 -0.1433 -0.0116
94088W        W94952   4.109  19.725  26.635 -0.2227  0.0310 -0.1650
94089W        W94953  16.117  27.004  16.218  0.0559 -0.2162  0.0496
94090W        W94954  21.330   8.259  28.229 -0.1859  0.1180  0.1665
94091W        W94955  25.396  26.661   4.304  0.0384 -0.0911  0.1989
94092W        W94956  13.125  28.976  26.710 -0.0294  0.2689  0.0502
94093W        W94957  18.940  16.360  10.158  0.0954 -0.0641  0.4182
94094W        W94958  29.000   4.019   6.325 -0.3637 -0.1103  0.2496
94095W        W94959  10.853  25.719  24.857 -0.2213 -0.0447 -0.2286
94096W        W94960  28.887  28.819   7.995 -0.1830 -0.0117 -0.2076
94097W        W94961   0.638   9.851  13.050  0.1084 -0.0960  0.0135
94098W        W94962   8.765  26.907  27.281  0.0923  0.0702 -0.3274
94099W        W94963  12.263  22.770   9.245 -0.1317 -0.2040 -0.2583
94100W        W94964   6.030  11.237  27.353 -0.3005 -0.0350  0.0336
94101W        W94965  27.372  12.494  18.352 -0.0657 -0.1468  0.1819
94102W        W94966  20.940   3.614   1.253 -0.0846  0.5843  0.0008
94103W        W94967   7.529  11.841  27.236  0.2634  0.0502 -0.0447
94104W        W94968  15.522   2.354  15.952 -0.0357 -0.2754  0.3241
94105W        W94969   0.403  14.391  22.528  0.1658 -0.0000 -0.0575
94106W        W94970   4.549   9.077  14.247 -0.1958  0.0095 -0.0663
94107W        W94971  15.308  11.655   6.119  0.2021 -0.0614 -0.0667
94108W        W94972  16.298   3.984   1.383  0.1789  0.4661  0.0854
94109W        W94973   8.888   3.688  11.586 -0.1393 -0.0322  0.2458
94110W        W94974  12.795  10.070  20.976  0.0765 -0.2355 -0.0470
94111W        W94975  16.686   7.129   3.867  0.1248 -0.0795  0.1517
94112W        W94976  17.827   9.296   8.202  0.2398 -0.2347  0.1539
94113W        W94977  13.630  24.897  20.900 -0.2801  0.1052  0.0242
94114W        W94978  15.260  12.043   1.017 -0.2467 -0.0153 -0.1683
94115W        W94979   0.210  28.461   8.239 -0.3337 -0.4142  0.0306
94116W        W94980  23.187   0.823  23.976  0.3284 -0.0953 -0.1030
94117W        W94981   2.383  13.274   8.724  0.0926 -0.0032  0.1717
94118W        W94982  14.733  24.027   3.495 -0.3366  0.1546  0.0814
94119W        W94983  19.660  27.244  19.386 -0.1729 -0.1230  0.1014
94120W        W94984  15.545  26.999   9.707 -0.1164 -0.0909  0.1579
94121W        W94985  10.528   0.824   4.473  0.1190 -0.1256 -0.2225
94122W        W94986  20.249   2.627  27.549  0.1842  0.1299 -0.1818
94123W        W94987   8.043  25.457   0.767  0.0948  0.0093 -0.1719
94124W        W94988  12.434  26.259   6.304  0.3612  0.2746  0.1090
94125W        W94989  26.805  18.537  26.961 -0.0678 -0.1358 -0.1821
94126W        W94990  23.991   4.905  20.523  0.1351 -0.0329 -0.0905
94127W        W94991  26.678   8.584   1.241 -0.1151 -0.0581 -0.0405
94128W        W94992   1.597  12.869  27.883  0.0469  0.2079 -0.0689
94129W        W94993   5.589  21.890  27.524  0.2407 -0.1560  0.1248
94130W        W94994   8.133  10.887  28.524  0.0298  0.1445 -0.1301
94131W        W94995   2.620  23.773  22.819  0.4400  0.2963  0.0934
94132W        W94996   3.661   2.712   5.267  0.1597  0.0310 -0.0189
94133W        W94997  15.450   1.830  10.609  0.0382 -0.1243 -0.1558
94134W        W94998  19.396   9.042  12.022  0.0104 -0.1503  0.0590
94135W        W94999  16.555  17.263   4.462  0.2306  0.2228 -0.0839
94136W        W95000  27.826  27.503   9.252 -0.1536 -0.2402  0.1313
94137W        W95001  25.092  24.130  12.537 -0.2221 -0.1576  0.1910
94138W        W95002  14.356  24.618  16.885 -0.3163 -0.0051 -0.0109
94139W        W95003  25.740  15.242  25.138  0.0518 -0.0900 -0.2845
94140W        W95004   6.205  10.316   1.227  0.0635  0.0123 -0.3419
94141W        W95005  17.000  16.381   2.248  0.0398 -0.1135  0.2612
94142W        W95006   2.736  13.698  21.099 -0.1781 -0.1559  0.0161
94143W        W95007   3.322   1.355  13.603  0.1621  0.0108  0.1868
94144W        W95008   5.673  18.987   8.098  0.1280  0.0156 -0.2005
94145W        W95009  12.971  19.240   3.270 -0.1509  0.2040 -0.2358
94146W        W95010  17.130  14.309  22.978 -0.2797 -0.2591 -0.0474
94147W        W95011  19.980   3.545  18.880  0.2277 -0.0508  0.2136
94148W        W95012  21.359   3.452  14.761  0.2461 -0.0697  0.4749
94149W        W95013   5.482   2.835  24.447  0.0972  0.1808 -0.0551
94150W        W95014  18.422   6.971  15.775  0.2403  0.1205 -0.1332
94151W        W95015  12.960  21.398  28.941 -0.1002  0.0868  0.0379
94152W        W95016  22.380  28.181   9.576 -0.1840 -0.1665  0.2813
94153W        W95017  10.947  15.367   7.661 -0.0556  0.0947  0.1559
94154W        W95018   7.875  16.494   7.310  0.0459  0.1593  0.1517
94155W        W95019  13.914   1.933   8.245  0.1866  0.1247 -0.2044
94156W        W95020   2.958  22.854  12.463  0.1094 -0.0266 -0.1129
94157W        W95021   4.624   1.684  21.783 -0.0765  0.1830 -0.0766
94158W        W95022   9.420  16.397   5.805  0.2108 -0.2757 -0.1617
94159W        W95023  21.122   4.195   1.234 -0.0895  0.2962 -0.1152
94160W        W95024  17.210   0.739  27.275  0.1443  0.0754  0.1128
94161W        W95025   7.204  27.774  11.412  0.0787  0.3280 -0.1235
94162W        W95026  28.844  12.057   6.405  0.1012 -0.1531  0.1277
94163W        W95027   0.902   0.057  14.600 -0.0900 -0.2312 -0.4016
94164W        W95028  14.573  23.285   9.945  0.0858  0.1638  0.2685
94165W        W95029  25.472  12.425   5.301 -0.1424  0.3137 -0.0906
94166W        W95030  25.628  18.269   9.453 -0.1986  0.1970  0.1387
94167W        W95031  14.127   8.572   9.252 -0.0745 -0.0111 -0.0061
94168W        W95032   9.770  21.113  22.409 -0.1194  0.1981 -0.2412
94169W        W95033   2.164   9.611   5.379 -0.0900 -0.2562 -0.0202
94170W        W95034  16.854   6.898  15.886  0.0793  0.3602  0.0091
94171W        W95035   7.923  26.236   4.508  0.2401  0.0677 -0.0452
94172W        W95036  12.980  19.571  13.200  0.3299  0.0644 -0.1666
94173W        W95037   4.327  11.544  13.788  0.0701 -0.3665 -0.1534
94174W        W95038  22.096  29.072   9.110  0.3111 -0.0185  0.2302
94175W        W95039  25.938   7.448  28.185 -0.1039  0.0611 -0.0535
94176W        W95040  26.132  12.959   7.391  0.1073  0.0273  0.0557
94177W        W95041  25.967   5.857  22.873 -0.0919  0.1687 -0.0927
94178W        W95042   9.805   1.389  10.904  0.3329 -0.0111 -0.4084
94179W        W95043  25.137  10.446  17.505  0.0641 -0.1464 -0.0272
94180W        W95044  10.384   4.317   1.636 -0.1519  0.1545 -0.0724
94181W        W95045   3.895   4.918   2.123  0.0275  0.0197 -0.1045
94182W        W95046  13.713  14.252   6.610  0.0511 -0.1117 -0.2092
94183W        W95047   0.175  23.595  28.898 -0.1801  0.1487  0.0502
94184W        W95048   2.689  22.709  17.013 -0.0599 -0.1808 -0.1086
94185W        W95049  16.130  12.525  11.072 -0.1634 -0.3728 -0.0332
94186W        W95050  10.153  17.995  25.526  0.1455 -0.0088 -0.1206
94187W        W95051   7.958  27.765   1.647 -0.1061  0.2213 -0.0549
94188W        W95052  11.262  12.886  18.833 -0.0045 -0.1028 -0.3770
94189W        W95053   1.092  24.161  16.171 -0.1332 -0.0145 -0.0945
94190W        W95054  17.282  11.981  16.852 -0.5307  0.0973  0.1100
94191W        W95055  10.760  18.736  17.075  0.2329  0.3610 -0.0484
94192W        W95056  17.739  11.000  15.394 -0.2906  0.5418 -0.0585
94193W        W95057  12.098   1.408  19.895  0.1241  0.0873 -0.2570
94194W        W95058  13.630  26.448   6.343  0.0733  0.1882 -0.2028
94195W        W95059  25.911  25.914  21.353  0.2756  0.2002  0.3984
94196W        W95060  15.297   4.776   1.926  0.1120 -0.2361  0.3247
94197W        W95061  12.310  14.232   0.424 -0.0367  0.0330  0.0965
94198W        W95062  21.947  19.365  17.106  0.2324 -0.1714 -0.0069
94199W        W95063  15.024  17.577  27.581  0.0100  0.0680 -0.0250
94200W        W95064  19.125   0.620  11.947 -0.1410  0.0106 -0.0808
94201W        W95065   2.704  18.931  15.742  0.0232 -0.1741 -0.0771
94202W        W95066  12.179   0.317  16.127 -0.2407  0.1020 -0.4405
94203W        W95067   9.462  14.222  21.794  0.0444  0.1150  0.4569
94204W        W95068  26.166  24.675  12.637  0.1786 -0.2599  0.0068
94205W        W95069  16.159   0.994  14.890  0.1136 -0.1952 -0.2586
94206W        W95070   5.396  29.035   8.720  0.0082 -0.1289  0.1394
94207W        W95071   7.970  21.781   3.177 -0.2266 -0.0356 -0.0436
94208W        W95072  21.280  15.521  26.039 -0.1951 -0.1983  0.0046
94209W        W95073  27.776  12.567  13.005 -0.0004  0.3275  0.0627
94210W        W95074  17.207  19.460  13.987  0.0459 -0.0411 -0.1392
94211W        W95075  24.898  14.315   6.890  0.1961  0.2784 -0.0952
94212W        W95076  10.984  27.733  10.232 -0.0469 -0.3050 -0.0309
94213W        W95077  15.668  18.442  19.529 -0.2627 -0.0356 -0.2860
94214W        W95078   4.677  25.714  12.341  0.0502  0.0095 -0.0321
94215W        W95079   9.706   4.326   6.338  0.2374 -0.0834 -0.0226
94216W        W95080  11.489  12.096   8.553 -0.1057 -0.0009  0.1009
94217W        W95081  16.520  17.627  15.831  0.3241  0.0700  0.0819
94218W        W95082  27.724  22.799   3.627  0.1588 -0.1320 -0.0098
94219W        W95083  17.454  27.324  18.693 -0.0314  0.0226 -0.0149
94220W        W95084  25.135  20.159  27.321  0.0449 -0.2837  0.1808
94221W        W95085   3.991  12.818  10.931  0.0404 -0.1163 -0.0842
94222W        W95086  13.534  27.989   8.648  0.0951 -0.4764 -0.0291
94223W        W95087   6.248  24.321   5.851 -0.3507 -0.0002  0.3880
94224W        W95088   6.486  19.298  10.902  0.3109  0.1981  0.0567
94225W        W95089   5.146  18.356  14.685  0.1552  0.2277 -0.2391
94226W        W95090   7.516   0.748  11.774 -0.0097  0.0428 -0.0861
94227W        W95091   8.391   3.863   9.273 -0.0215 -0.2009 -0.1391
94228W        W95092  13.796   6.220  12.845  0.0065  0.0702 -0.1610
94229W        W95093  15.964   4.484   7.720 -0.0348 -0.0642  0.0228
94230W        W95094  17.073  25.053   6.226  0.3133  0.0359  0.2916
94231W        W95095   6.926   7.919   5.666 -0.0703  0.0228 -0.1103
94232W        W95096   0.190  29.023   7.833 -0.0196 -0.0874 -0.2186
94233W        W95097  11.413  26.807  19.921 -0.2022 -0.0636  0.1475
94234W        W95098  23.405  18.053   8.276 -0.1420  0.2441  0.1679
94235W        W95099  11.183  29.022  26.265  0.2727 -0.0024  0.0311
94236W        W95100   9.792  26.791   2.241  0.2906  0.0128  0.0398
94237W        W95101  27.379  23.960  20.332 -0.0743  0.0904 -0.2538
94238W        W95102  27.221  26.700  12.214  0.4274 -0.6470  0.0329
94239W        W95103   7.710   6.619  20.204  0.1015 -0.0180 -0.1664
94240W        W95104  22.967  25.708   3.536  0.1557 -0.2341  0.0720
94241W        W95105  24.341   4.019  15.676 -0.0209  0.1357 -0.2291
94242W        W95106  18.833   4.382   1.458  0.0248  0.2993  0.1693
94243W        W95107  16.033  21.634  14.664 -0.1546 -0.0071 -0.0268
94244W        W95108   1.919  16.896  14.107 -0.0872 -0.0686 -0.0784
94245W        W95109  18.270  22.247  12.235 -0.1147 -0.0160 -0.1157
94246W        W95110   8.730   5.372   6.792 -0.0648 -0.2059 -0.0009
94247W        W95111  12.466   1.807  10.186 -0.0477  0.0759 -0.2330
94248W        W95112  13.291   7.692   5.811 -0.0105 -0.2505 -0.1765
94249W        W95113   2.010   6.636  15.481  0.0508  0.2883 -0.0616
94250W        W95114   3.796   2.005  26.683  0.3513 -0.0624  0.0460
94251W        W95115   2.242  26.864  27.909  0.0225  0.2743  0.3783
94252W        W95116   9.255  11.689  16.873  0.0706  0.0702 -0.0504
94253W        W95117   0.299  21.670  10.463 -0.2413  0.0369  0.1977
94254W        W95118  22.805  21.775  12.363 -0.1548 -0.0341 -0.0960
94255W        W95119   9.817   2.526  29.103  0.1355 -0.0275 -0.0157
94256W        W95120   0.173   9.900  10.042 -0.3002  0.1902 -0.1093
94257W        W95121  12.513  17.484   7.402 -0.5743 -0.1886 -0.2889
94258W        W95122  26.402   9.703   5.481  0.0710 -0.1115  0.1848
94259W        W95123   9.778  10.952   1.441  0.1214 -0.1735  0.2385
94260W        W95124  17.867  20.855   7.853  0.3381 -0.2330  0.1640
94261W        W95125  23.575  17.197  20.138 -0.1514 -0.0046  0.2100
94262W        W95126  16.946  14.755  23.005  0.3238 -0.0199 -0.1066
94263W        W95127   3.936  11.668   2.671 -0.0726 -0.2228 -0.2056
94264W        W95128   5.746  19.803  25.819 -0.0891 -0.1314  0.1123
94265W        W95129  10.859   3.927   6.493  0.0992  0.2354 -0.0676
94266W        W95130  27.184   4.251  14.897  0.1621  0.1332  0.1394
94267W        W95131  25.295  24.212   0.023  0.2798 -0.0171 -0.0031
94268W        W95132  14.408  25.952  20.715  0.0634  0.0169 -0.0588
94269W        W95133   2.518  20.392   7.918  0.2106  0.1349  0.3836
94270W        W95134   6.008  26.295   6.439 -0.0742 -0.3165  0.1673
94271W        W95135  27.616  11.792   4.020  0.0089 -0.0090 -0.1905
94272W        W95136  18.295  26.318  17.237 -0.0238 -0.2018 -0.0196
94273W        W95137   9.305  15.434  28.003 -0.2692  0.0070  0.1591
94274W        W95138  26.509  25.727  15.518 -0.1775  0.1196 -0.0086
94275W        W95139   2.660  21.370  25.562  0.0543 -0.2052  0.1605
94276W        W95140  14.381  14.617   2.772 -0.1361 -0.0990  0.0281
94277W        W95141   1.319   0.092  25.738  0.0993 -0.2887 -0.2272
94278W        W95142  11.255  18.682  21.510  0.2246 -0.0786  0.0437
94279W        W95143   0.276  27.051  28.867 -0.2582  0.2362  0.2954
94280W        W95144  26.055  20.970   2.430 -0.2894 -0.2644 -0.0547
94281W        W95145  14.265  20.716   6.464  0.0037  0.0650 -0.1731
94282W        W95146   7.219  22.766  10.725  0.0719  0.1580 -0.1849
94283W        W95147  16.988  23.582   3.756 -0.0872 -0.0752 -0.0448
94284W        W95148  10.441  28.376  11.031  0.1537 -0.0799 -0.0262
94285W        W95149   7.901  24.131  13.460  0.1912  0.0558  0.2336
94286W        W95150  11.988  28.344  22.530 -0.3235 -0.1309 -0.0910
94287W        W95151   5.619  25.917   2.703  0.2442  0.1410  0.0262
94288W        W95152  20.630  13.236  19.911  0.1499 -0.0075  0.0951
94289W        W95153   8.690  18.345  22.210  0.0340  0.1976 -0.0797
94290W        W95154   4.233  22.760  23.927  0.0586  0.2232  0.2144
94291W        W95155   5.136  25.273   9.067 -0.0861 -0.0206 -0.3927
94292W        W95156  11.678  22.900  22.438 -0.0150  0.1750 -0.3663
94293W        W95157  21.173  21.206   4.366 -0.2261  0.0620 -0.2117
94294W        W95158   4.912   6.966  20.861 -0.2107  0.4412 -0.3561
94295W        W95159   1.844  13.936  26.692  0.0777 -0.2620 -0.2301
94296W        W95160  23.226   1.196   9.758  0.0565  0.0473  0.0079
94297W        W95161  25.659  14.513  15.523  0.0161 -0.2304 -0.2867
94298W        W95162   2.507  14.900  10.255 -0.2905  0.0344  0.0400
94299W        W95163  10.927  23.046  26.196  0.1721 -0.1281 -0.2065
94300W        W95164  19.662   9.650  15.814  0.0919  0.3044 -0.1419
94301W        W95165   2.844  11.820  21.153 -0.4643 -0.0656  0.0252
94302W        W95166  26.259   8.135   6.165 -0.1433  0.0027  0.2062
94303W        W95167  11.024  20.011  18.775  0.0885 -0.0617 -0.1644
94304W        W95168   0.368  16.805  11.473 -0.1453  0.0712  0.2668
94305W        W95169   1.322  24.828  16.843  0.0095 -0.0443  0.0077
94306W        W95170   1.356  10.911   0.430  0.1854 -0.0651  0.0962
94307W        W95171  19.413   5.682  10.065  0.0590 -0.0636 -0.0919
94308W        W95172  27.003  22.174  22.588 -0.1013 -0.0432 -0.2617
94309W        W95173   4.245  17.253  11.101 -0.0102  0.3662  0.0200
94310W        W95174   4.759  11.033  15.075 -0.0627  0.1565 -0.1948
94311W        W95175  19.019   8.939  14.014  0.0268 -0.3773 -0.2773
94312W        W95176   5.364  13.165   6.083  0.2682 -0.1153  0.0565
94313W        W95177  20.655  15.792  12.740 -0.0007  0.0622 -0.0135
94314W        W95178  12.985  17.737   9.802  0.1306  0.0685  0.3629
94315W        W95179  20.635  25.457  13.107 -0.0730 -0.2402  0.1963
94316W        W95180   5.155  18.630  20.084  0.1598 -0.0665  0.0766
94317W        W95181  19.291  29.050  19.157  0.2628 -0.0912 -0.3374
94318W        W95182  12.329   2.443  23.659  0.0195  0.0014 -0.2374
94319W        W95183  16.748  20.401  26.336 -0.1141 -0.1871  0.3479
94320W        W95184   7.932   6.897  15.298 -0.2425 -0.0238  0.2429
94321W        W95185   6.240  10.142   3.359  0.1447  0.3194 -0.1187
94322W        W95186   8.139   7.719  12.713  0.0163  0.0113  0.2859
94323W        W95187  19.829  24.739   7.263  0.1802  0.1093  0.1852
94324W        W95188   9.865   7.424  15.368  0.2325 -0.1719  0.3816
94325W        W95189  14.769  10.846   0.044 -0.0070  0.0316  0.3027
94326W        W95190  12.028  16.320  25.435  0.1011 -0.0120 -0.1466
94327W        W95191  15.281  17.735   9.088  0.0931 -0.0789  0.2184
94328W        W95192   6.774  20.246  12.107  0.1929 -0.0608  0.0032
94329W        W95193  10.623   8.044  18.630  0.0216  0.2493  0.0511
94330W        W95194   7.481   2.229   4.531  0.0087 -0.2348  0.1881
94331W        W95195  21.123  16.509  22.572 -0.0406  0.1205 -0.1580
94332W        W95196   6.194   4.509  15.203 -0.0721 -0.0402  0.2647
94333W        W95197   8.414  16.897   4.339  0.4027  0.3144  0.0126
94334W        W95198  14.283   9.199   9.228 -0.0704  0.0099  0.1413
94335W        W95199  12.187   4.512   9.774 -0.0392 -0.0392  0.1962
94336W        W95200  15.922  25.240   7.063  0.0989 -0.1325 -0.2634
94337W        W95201  27.888  22.035  14.165 -0.3413 -0.1618  0.1161
94338W        W95202   9.973   3.634  17.546 -0.0025 -0.1942  0.1911
94339W        W95203  12.080  10.451  22.311 -0.2511 -0.1738  0.0052
94340W        W95204  11.391  20.730  18.612 -0.2532 -0.0668  0.0937
94341W        W95205   9.669   2.114  26.900 -0.1442  0.3693  0.1691
94342W        W95206  22.023  27.371  16.790 -0.4384  0.0856  0.1215
94343W        W95207   8.783   3.657  27.874 -0.2307 -0.2284 -0.1561
94344W        W95208  10.337  15.841  18.590 -0.1844  0.0234 -0.0053
94345W        W95209  20.391  25.684  28.951 -0.1719 -0.2661 -0.1404
94346W        W95210  22.619   1.008  11.424  0.2475 -0.1345 -0.0753
94347W        W95211  19.569  28.400   4.578 -0.0991 -0.0464  0.2506
94348W        W95212   1.350  19.680  15.291  0.1599  0.1373  0.2254
94349W        W95213  23.715   7.048  13.782  0.0222 -0.3106 -0.0471
94350W        W95214  10.971   9.058  28.065 -0.1385 -0.1475  0.1660
94351W        W95215  14.665  27.644   8.855 -0.1094 -0.0670 -0.2121
94352W        W95216   6.319   5.152   7.248 -0.0138  0.2851 -0.3953
94353W        W95217   3.024  13.440  22.835 -0.0417 -0.0641 -0.2419
94354W        W95218   1.261   5.146  22.479 -0.0879 -0.1736 -0.2721
94355W        W95219  11.557  18.917   5.207  0.0538 -0.2757 -0.3034
94356W        W95220  10.889  19.213  16.246 -0.1812 -0.0689  0.2794
94357W        W95221  22.873   4.649  15.621  0.0505 -0.4025 -0.5149
94358W        W95222  27.941  19.057  15.693  0.3191  0.0441  0.4395
94359W        W95223  16.706  10.039   7.448  0.1934  0.1037  0.1540
94360W        W95224   2.974  28.049   1.486  0.0323 -0.0739  0.0927
94361W        W95225   6.001   8.718  17.939 -0.1480 -0.3972 -0.0207
94362W        W95226  20.053  26.447   4.977 -0.1590  0.0235 -0.0587
94363W        W95227  17.226  21.152   8.505  0.1548 -0.0407  0.1061
94364W        W95228  12.845  26.568   6.160 -0.0177 -0.1036 -0.0762
94365W        W95229  13.182   7.685  21.099 -0.0202 -0.1600  0.0599
94366W        W95230  13.581   4.874  27.195 -0.0695 -0.2185 -0.1085
94367W        W95231  13.223  23.346  23.504  0.2702 -0.1596  0.1558
94368W        W95232  26.722  25.865   4.588 -0.4054 -0.0226 -0.0941
94369W        W95233  12.083   3.398  22.796  0.0801 -0.0705  0.1686
94370W        W95234   0.572  10.322  11.042  0.0077 -0.4397 -0.2972
94371W        W95235  26.157  13.570   9.651 -0.0545  0.1072 -0.3147
94372W        W95236   2.596  17.218  14.461  0.1205 -0.2803 -0.1875
94373W        W95237  14.570   2.220   2.698 -0.2301 -0.1246 -0.0059
94374W        W95238  28.346  19.363  27.971 -0.2007  0.0739 -0.0149
94375W        W95239  13.437   1.800  17.640 -0.0250 -0.2053  0.0565
94376W        W95240  15.648  23.521   5.441 -0.1420 -0.0005 -0.0960
94377W        W95241  14.672  11.592   5.493 -0.1431 -0.2659  0.0044
94378W        W95242  18.890   6.327   3.335  0.0316 -0.0762  0.4551
94379W        W95243   4.099  15.865  10.557  0.0156  0.1913  0.0902
94380W        W95244   4.128  22.622  25.317  0.5509  0.0408 -0.2608
94381W        W95245  20.790  15.274   4.892  0.2581  0.1369 -0.0961
94382W        W95246   3.068  18.453  14.469  0.1953 -0.1801  0.0383
94383W        W95247  16.641  11.524  17.883  0.2088 -0.2361 -0.0622
94384W        W95248   6.035  23.079  15.889 -0.4978  0.0549 -0.0703
94385W        W95249  15.416  19.347   3.835 -0.1525 -0.1484  0.1900
94386W        W95250  24.318  24.530   5.900 -0.0731  0.1361  0.1107
94387W        W95251  15.375   8.710   7.040  0.2267  0.2677  0.1998
94388W        W95252  28.484  19.616  10.602  0.1907  0.0144 -0.2532
94389W        W95253  11.119   0.636  19.245 -0.1246  0.0973 -0.0525
94390W        W95254   5.793  20.207   8.191  0.1783 -0.0771  0.1965
94391W        W95255   4.981  20.291   5.652  0.2526 -0.1085 -0.1010
94392W        W95256  21.482   8.181   7.652  0.1337 -0.2590  0.1963
94393W        W95257  17.656  27.264   7.998  0.0384 -0.0047 -0.3487
94394W        W95258  10.748   4.332  14.386  0.1269  0.1694 -0.1575
94395W        W95259  24.058  16.010  17.306 -0.1806 -0.0236 -0.2256
94396W        W95260   1.038  14.069  10.089  0.1694 -0.2963 -0.0008
94397W        W95261  23.159  24.747  20.530  0.0452 -0.0996 -0.1311
94398W        W95262   9.213  20.760   7.193  0.1942 -0.1743  0.1475
94399W        W95263   9.496   0.656  22.197 -0.1404 -0.1208  0.2383
94400W        W95264  26.607  25.992   1.332 -0.0232 -0.0589 -0.1364
94401W        W95265  10.722  16.732  27.032  0.2869  0.0958 -0.1574
94402W        W95266  21.922   3.491   2.777 -0.4353  0.0649 -0.1944
94403W        W95267  18.276   3.672  23.476  0.0917  0.2791 -0.0301
94404W        W95268  21.394  20.617   8.415 -0.1839  0.1110  0.0081
94405W        W95269   3.000  10.188  14.783  0.1858 -0.1571 -0.0051
94406W        W95270   2.184   2.235  22.018  0.0635 -0.0654 -0.0279
94407W        W95271  23.542  17.133  28.132  0.2167 -0.0819 -0.0445
94408W        W95272   2.237   3.688  15.301  0.0380  0.1504 -0.1827
94409W        W95273   2.548  15.978  24.771 -0.0405 -0.0741  0.0180
94410W        W95274  17.395  26.853   2.782  0.1226 -0.0988  0.0310
94411W        W95275  15.719  13.944  14.955 -0.0263  0.1872 -0.1889
94412W        W95276   0.590  15.860  27.206 -0.2015  0.0627 -0.0686
94413W        W95277   9.236  16.297   2.129 -0.1073  0.1790 -0.1777
94414W        W95278  19.237  18.996  12.348  0.1821 -0.1443 -0.3099
94415W        W95279   5.354  16.076  18.548 -0.3496  0.0350 -0.2583
94416W        W95280   9.363  20.006  15.123 -0.1277  0.1520 -0.2160
94417W        W95281   1.981   8.092   8.734  0.1636  0.2061 -0.0434
94418W        W95282  26.205  11.904  10.320 -0.1799 -0.0774  0.0608
94419W        W95283  12.952  18.084  15.369 -0.0001  0.1139 -0.0102
94420W        W95284   6.153  20.856  13.259  0.1398  0.1664  0.0022
94421W        W95285  14.271  25.770  28.099  0.1978 -0.2802  0.0388
94422W        W95286  28.739  13.649  15.138 -0.1072  0.3361  0.2188
94423W        W95287   0.289   3.526   1.008  0.0272  0.7258 -0.2763
94424W        W95288   3.463  24.925  24.636  0.0705 -0.1728  0.1793
94425W        W95289  10.215  26.302  18.491 -0.3369  0.1463 -0.2150
94426W        W95290  23.541  15.000  21.464 -0.1009 -0.3342  0.0057
94427W        W95291  20.234  24.308  11.500 -0.1243  0.3899  0.0765
94428W        W95292  12.391  19.998  10.681  0.1914  0.2310 -0.1198
94429W        W95293  28.970  27.099   6.056 -0.2280  0.1001 -0.0007
94430W        W95294  11.953  28.032   2.575  0.0481 -0.1781 -0.2732
94431W        W95295   1.498  19.737  10.520  0.0175  0.0840 -0.1543
94432W        W95296  18.327   0.152  16.840 -0.2158 -0.1366  0.2286
94433W        W95297  16.329  15.336  19.736 -0.0552  0.0004  0.0015
94434W        W95298  26.580   6.650  11.431 -0.1939  0.1143 -0.0408
94435W        W95299  25.275  19.426  28.316 -0.0926  0.4406 -0.1478
94436W        W95300  21.206  12.700   9.463  0.2603 -0.0580 -0.0619
94437W        W95301  26.932  14.459   6.468 -0.1159 -0.0484 -0.0512
94438W        W95302  24.943  18.170  12.246  0.0008 -0.2576 -0.3078
94439W        W95303  11.187  19.409  26.966  0.1212  0.1851 -0.2081
94440W        W95304   7.337  17.592  20.489 -0.0178  0.1161  0.4272
94441W        W95305  18.906  24.495  25.644  0.0801  0.0238 -0.2382
94442W        W95306  12.839   0.323   1.552  0.1386 -0.3055  0.1544
94443W        W95307   9.835  21.897  14.110 -0.0606  0.0263  0.1610
94444W        W95308   9.461  19.326  27.375  0.0591 -0.4162  0.1203
94445W        W95309  17.403  21.158  14.143  0.0663 -0.2539 -0.0733
94446W        W95310  10.391  19.476   7.200  0.1613 -0.0951  0.0904
94447W        W95311  14.071  17.728  13.107  0.1406  0.0260  0.0980
94448W        W95312  26.789  27.096  27.880 -0.4241 -0.2986 -0.1882
94449W        W95313   0.887  19.543   7.148  0.0908  0.0952  0.1448
94450W        W95314  20.824  10.847  13.399  0.1395  0.2684 -0.0050
94451W        W95315  28.345   1.521   4.150 -0.0151  0.0832  0.2596
94452W        W95316  22.790  19.399  28.074 -0.0506 -0.0250  0.0463
94453W        W95317  20.528   5.840   8.443 -0.0947  0.2471 -0.1381
94454W        W95318   5.516   6.811   2.493  0.1042  0.1316 -0.1346
94455W        W95319   3.465  19.010  17.846  0.2161 -0.2189 -0.3852
94456W        W95320  18.802  12.116  24.096  0.0195 -0.2532  0.3087
94457W        W95321  22.509  17.965   0.168 -0.2228  0.1852  0.3832
94458W        W95322   5.578  21.083   8.461 -0.2160  0.0302  0.1039
94459W        W95323  27.026  21.851   5.468 -0.0936  0.0763  0.1494
94460W        W95324  28.297   3.787  11.699  0.1281 -0.1337 -0.2980
94461W        W95325  28.732   3.803  14.363  0.1712  0.2815  0.0116
94462W        W95326  11.539  24.089  19.468  0.3583 -0.0189 -0.0152
94463W        W95327  16.285  18.023   6.411  0.0557  0.1166 -0.0022
94464W        W95328  23.066  27.490   0.829 -0.2165 -0.1599  0.0956
94465W        W95329  15.411  18.576  28.706 -0.1966  0.1101 -0.1509
94466W        W95330  24.392   8.544  20.933  0.0759 -0.0829 -0.0137
94467W        W95331  14.230  29.004   1.589 -0.3900 -0.1139 -0.2498
94468W        W95332  15.639   2.908   2.038 -0.0873  0.0003  0.1512
94469W        W95333  20.900  23.705  17.004  0.2781 -0.0899  0.2183
94470W        W95334   2.110  26.230  10.567 -0.0886 -0.1606 -0.0817
94471W        W95335  27.622   3.918  10.333 -0.1330  0.0688 -0.2939
94472W        W95336  10.414  13.522  24.822 -0.3193  0.0904 -0.1672
94473W        W95337   3.706  19.537  13.771 -0.3683  0.0825  0.1083
94474W        W95338  11.852  27.625  28.412 -0.0944  0.0787 -0.2748
94475W        W95339  16.141  20.487   4.696 -0.1600  0.0453  0.2308
94476W        W95340   0.596  23.058  20.760 -0.0017 -0.2618 -0.0518
94477W        W95341   6.668  28.208  16.874  0.0987 -0.2797  0.2522
94478W        W95342  15.529  10.097  13.365  0.0518 -0.0393 -0.1729
94479W        W95343  22.986   8.854  10.447  0.0793  0.1621  0.0422
94480W        W95344  18.941  26.942   4.475  0.0806  0.0162  0.1184
94481W        W95345   3.023  28.056   9.618 -0.4213 -0.2989  0.2268
94482W        W95346  21.896  18.564  15.800  0.0704  0.0666 -0.0964
94483W        W95347  13.540  10.957  18.635 -0.0290  0.3086  0.1251
94484W        W95348  16.283   0.108  11.666 -0.1149 -0.0157  0.1987
94485W        W95349  19.828  11.235  20.148 -0.0775 -0.0410  0.0027
94486W        W95350  27.396  18.393  11.470 -0.1520 -0.1379  0.2243
94487W        W95351  17.739   4.256  15.104  0.2986  0.2877  0.1529
94488W        W95352   8.550  10.537   7.458  0.0587 -0.0953 -0.2413
94489W        W95353   7.434   7.924   3.562  0.2407  0.1225 -0.1954
94490W        W95354  19.013  10.981  19.374  0.0488  0.0023 -0.1724
94491W        W95355  10.949  22.850   5.363  0.3051 -0.2693 -0.0780
94492W        W95356  25.655   3.424  11.813  0.0535  0.2814 -0.0941
94493W        W95357  24.934  15.389   3.894 -0.1854 -0.1409  0.2272
94494W        W95358  12.994  12.813  14.990 -0.0605  0.0636 -0.1722
94495W        W95359  17.939  21.437  28.251  0.0347  0.0307 -0.2948
94496W        W95360  10.168   4.448  10.638 -0.1605 -0.2828 -0.1690
94497W        W95361  14.763  22.393  11.565 -0.3215 -0.1838 -0.1909
94498W        W95362  17.609  11.414   4.712  0.1649 -0.1417  0.1124
94499W        W95363  18.132  10.047   1.540  0.1893  0.5462  0.0876
94500W        W95364  15.650   4.524  25.126 -0.0129  0.2565  0.1115
94501W        W95365  17.556   3.289   7.648  0.0663 -0.2922  0.3175
94502W        W95366  27.690  23.897   2.583 -0.0448  0.1282  0.2358
94503W        W95367  11.742   6.324   5.279  0.1998  0.4176 -0.0906
94504W        W95368   7.297  25.605   1.599  0.0854 -0.3181 -0.1214
94505W        W95369  13.204   0.992  16.283 -0.0036 -0.0659 -0.1553
94506W        W95370   1.028   5.102  26.448  0.1723 -0.2188  0.0512
94507W        W95371   1.354  27.153  27.763  0.1713 -0.0987  0.0699
94508W        W95372  18.298  19.867  17.442 -0.1547  0.0228  0.0828
94509W        W95373  15.266  15.732  18.220 -0.2144  0.0018 -0.0987
94510W        W95374  14.815  13.968   5.469 -0.0541  0.2684  0.2736
94511W        W95375  21.054  19.432  24.850  0.1342 -0.0792  0.1438
94512W        W95376  17.109   4.587   0.889 -0.0869  0.0908 -0.0671
94513W        W95377   2.623   3.546  10.591  0.2230  0.0255  0.1930
94514W        W95378  10.592  18.056   6.011 -0.0007 -0.0760  0.0293
94515W        W95379  20.180  15.603   2.020  0.2706  0.2241 -0.1144
94516W        W95380  21.325  17.585  23.291  0.0547 -0.0691 -0.0317
94517W        W95381  24.237  22.297   5.385  0.0313  0.0713 -0.2741
94518W        W95382  14.494  15.858  21.993 -0.0076  0.3066 -0.0870
94519W        W95383  15.377  11.030  17.454  0.1018 -0.1386  0.2154
94520W        W95384  10.825  11.716  10.232  0.2190  0.0140 -0.0505
94521W        W95385  18.100  25.303  10.399 -0.0307 -0.0383 -0.2885
94522W        W95386  25.014  20.745   1.032 -0.2351  0.1806 -0.0350
94523W        W95387  24.906  22.343  11.192  0.2045 -0.1645  0.1578
94524W        W95388  14.307  19.573  10.124  0.1160  0.1504  0.1789
94525W        W95389  26.481  20.778  28.499 -0.2648 -0.2853  0.0207
94526W        W95390   8.888  12.912  22.534  0.0751 -0.1882 -0.4328
94527W        W95391   6.206  23.650  11.232  0.0989 -0.2384 -0.0592
94528W        W95392  12.967   1.256  12.649 -0.3327 -0.1879 -0.1160
94529W        W95393  23.898  22.949  16.839 -0.0902  0.3663 -0.2116
94530W        W95394  18.070  26.298  19.716 -0.0337 -0.1028  0.1654
94531W        W95395   6.642  24.728  16.746  0.3026  0.1571  0.1527
94532W        W95396  25.020  11.343   8.414  0.1347 -0.2822  0.1155
94533W        W95397  16.906  22.732   7.509  0.0075  0.1513  0.0278
94534W        W95398   2.594  24.441  18.960  0.0828  0.1803 -0.2141
94535W        W95399  23.312  11.711  22.037  0.0606 -0.4042  0.0262
94536W        W95400  12.704   5.558   2.663 -0.0518  0.1786 -0.0579
94537W        W95401   0.709   3.618  12.891 -0.0940 -0.2310  0.1235
94538W        W95402   1.258  21.300  20.380 -0.3619 -0.1635  0.0558
94539W        W95403  22.262  20.393  20.983 -0.0883 -0.0565 -0.0476
94540W        W95404  21.700  18.401  10.989 -0.0689  0.1997  0.3190
94541W        W95405  12.203   4.321   8.277 -0.0926 -0.0523 -0.0814
94542W        W95406  13.924  13.960  15.887 -0.1548 -0.2954  0.0002
94543W        W95407   7.819  20.461   9.973 -0.2475  0.0133  0.2772
94544W        W95408   4.886  12.627  19.646 -0.3293  0.0973  0.0297
94545W        W95409  25.817   6.725  18.474 -0.1348 -0.3994  0.2330
94546W        W95410  22.084   1.741   6.998 -0.0387  0.0405 -0.0382
94547W        W95411   5.150   3.281  17.107  0.1499 -0.0724  0.0540
94548W        W95412   7.563  26.198  23.224 -0.0037 -0.3204  0.0949
94549W        W95413   7.445  18.540  20.869  0.3716  0.0148  0.1884
94550W        W95414  18.141   8.283  11.076  0.4063 -0.1679  0.2421
94551W        W95415   5.360  20.883  12.131  0.0413  0.0264 -0.2080
94552W        W95416  23.770  17.027  22.465 -0.0519  0.2549  0.0115
94553W        W95417  13.750  24.503   5.131  0.0048  0.1363  0.0564
94554W        W95418   4.361  20.084   2.002  0.4091  0.1384  0.1424
94555W        W95419  25.118  15.327  15.569  0.0427  0.2793  0.0318
94556W        W95420  13.815  18.606  23.765  0.3657 -0.0621  0.0827
94557W        W95421  14.111   2.412  14.318  0.1845  0.0859  0.1275
94558W        W95422  28.858   2.637   8.714  0.1161 -0.0025 -0.2723
94559W        W95423  17.773  28.134  14.836  0.2244 -0.2756  0.1447
94560W        W95424  22.511   3.879   7.726  0.1433 -0.1151 -0.2900
94561W        W95425  16.381  14.371   2.013  0.2346 -0.1562  0.0875
94562W        W95426  14.890  23.168  26.572  0.0027  0.0920  0.0160
94563W        W95427  14.277   3.592  24.806 -0.1579 -0.2723  0.0064
94564W        W95428  14.610  24.897  22.804  0.2254 -0.1415 -0.0354
94565W        W95429   3.562   1.299  17.259 -0.0269 -0.1152  0.0561
94566W        W95430  16.618  25.008  22.076 -0.1199  0.0803  0.0473
94567W        W95431  20.288  24.137   3.469  0.0246 -0.1604  0.2378
94568W        W95432   7.710   4.951   5.557  0.0712 -0.1800 -0.2326
94569W        W95433  15.172   3.042  13.550  0.4424 -0.2344 -0.0399
94570W        W95434   7.008  23.802  20.175 -0.1304 -0.1374  0.0029
94571W        W95435   7.418   4.030  17.426 -0.0408 -0.0932  0.0612
94572W        W95436   2.692   9.592  19.983  0.0831  0.5073 -0.0492
94573W        W95437   0.047   7.871  15.453  0.0969  0.0932  0.0511
94574W        W95438   1.245  20.951  16.038 -0.0214  0.0693 -0.1094
94575W        W95439  13.388  20.172  19.495 -0.0284  0.4167 -0.2331
94576W        W95440  13.892   1.971   0.399 -0.0989  0.0071  0.0733
94577W        W95441  20.077   7.945  26.418 -0.2249 -0.4175 -0.0322
94578W        W95442   7.965  25.123  24.045  0.0904 -0.1873 -0.1927
94579W        W95443  10.070  16.046  12.185 -0.0127  0.2587 -0.0636
94580W        W95444   5.268  27.604   6.855  0.1778  0.3657 -0.0604
94581W        W95445  16.524  21.249  12.838  0.1111 -0.1896 -0.1300
94582W        W95446  25.139  20.911   4.291  0.1378  0.0350 -0.0673
94583W        W95447   0.997  16.678   0.578  0.0386 -0.1101 -0.0256
94584W        W95448  19.227  11.864  18.850  0.0268 -0.1359 -0.0257
94585W        W95449  23.149  22.254  25.064 -0.1146 -0.0002 -0.1854
94586W        W95450  14.536   2.514  13.424  0.1217 -0.2030  0.1181
94587W        W95451  15.274  12.722  11.817  0.2458 -0.0634 -0.1726
94588W        W95452   5.500  20.719  23.123 -0.3338  0.2028 -0.3331
94589W        W95453  19.489  19.734   9.069 -0.1029  0.2165  0.0297
94590W        W95454  24.504  21.906  13.602 -0.4189 -0.1168 -0.0696
94591W        W95455  26.608  23.365  22.049 -0.1578 -0.2144 -0.1317
94592W        W95456   0.982   5.285  27.777  0.1770 -0.0765  0.1527
94593W        W95457   3.781  25.510   2.264  0.1963 -0.0667 -0.0266
94594W        W95458  15.594  17.527  14.180  0.2637 -0.0612 -0.3190
94595W        W95459   1.650  10.201   5.079  0.0310 -0.2261  0.0394
94596W        W95460   2.628  15.852  14.975  0.0637 -0.0691  0.1119
94597W        W95461  15.647  13.495   4.862  0.4367 -0.4186 -0.2267
94598W        W95462   2.907  15.493   8.573 -0.0660 -0.2506 -0.1428
94599W        W95463   7.103   3.907   8.896 -0.0328 -0.1812 -0.1254
94600W        W95464   2.276  14.011   8.392  0.1986 -0.1438  0.1229
94601W        W95465  16.286  17.278   1.342  0.0135  0.1482 -0.0740
94602W        W95466  11.561  16.711   8.758 -0.1234  0.1295 -0.1516
94603W        W95467  28.359   6.299   6.842 -0.1199 -0.2215  0.0109
94604W        W95468   7.094  18.495   7.428 -0.1195 -0.0933 -0.1267
94605W        W95469   2.064   8.468  19.659 -0.1280 -0.1372  0.0426
94606W        W95470   5.933   3.288   3.858 -0.0797  0.1134 -0.0527
94607W        W95471  16.929   9.643  26.495  0.1952 -0.0656  0.2396
94608W        W95472  12.333  21.699   8.920  0.0608  0.1322  0.0346
94609W        W95473  10.068  18.962  23.040  0.0691 -0.0139 -0.3519
94610W        W95474   5.684   1.109   8.000  0.2509 -0.1392 -0.0386
94611W        W95475   8.031  20.597  24.050  0.2047 -0.1060  0.0946
94612W        W95476   8.305  25.785  17.160 -0.0476  0.0048 -0.1246
94613W        W95477  26.743   0.014  25.827 -0.1405  0.3090 -0.0615
94614W        W95478   0.393  11.538  17.086 -0.1008  0.1338  0.3336
94615W        W95479  15.678   0.084   0.065  0.1684  0.0789 -0.3990
94616W        W95480   5.049  21.717   1.139  0.3857  0.1040 -0.0566
94617W        W95481  24.191   8.528   0.991  0.2609 -0.0624 -0.2616
94618W        W95482  19.989  21.776  17.881 -0.3631  0.2078 -0.2434
94619W        W95483  26.982  17.143  14.625  0.0672  0.0341 -0.4533
94620W        W95484  19.401   4.635   5.787 -0.2716 -0.0476 -0.0525
94621W        W95485  26.224  20.573  26.566 -0.0128 -0.2814  0.1904
94622W        W95486  29.047  20.387   7.069  0.0144  0.3338 -0.2332
94623W        W95487   8.828   1.003   5.223  0.0577  0.2707  0.0716
94624W        W95488   7.599   6.918  28.602 -0.2653  0.0615  0.0283
94625W        W95489  23.161  26.315   2.431  0.2624 -0.1723 -0.2419
94626W        W95490   1.817  22.150  16.837 -0.2333 -0.0484 -0.1491
94627W        W95491  18.610  27.417  15.466 -0.2817  0.0166 -0.0055
94628W        W95492   7.464   8.050   9.760  0.0072 -0.0002 -0.0273
94629W        W95493  22.218  21.532   0.678 -0.2275  0.0270  0.2783
94630W        W95494  10.590   8.126  10.965 -0.0573 -0.1115  0.0417
94631W        W95495  16.380   1.391  28.458 -0.0367 -0.0992 -0.0422
94632W        W95496  12.604  23.726   0.024  0.1262  0.0404 -0.2677
94633W        W95497  12.141   8.378   2.166  0.2859  0.0444 -0.1094
94634W        W95498   9.218  22.934  26.655 -0.2819  0.0428  0.3809
94635W        W95499  25.720   5.162  27.448  0.0629 -0.2039  0.0564
94636W        W95500   5.926  13.781  12.843  0.3308  0.0014 -0.0549
94637W        W95501  18.006  13.507  25.256  0.2415 -0.2423  0.1991
94638W        W95502  11.948  22.860  23.144  0.0989  0.1753  0.1815
94639W        W95503   4.419  21.085  12.663  0.2203  0.1255  0.0631
94640W        W95504   8.904  13.270  25.873  0.2108 -0.0974  0.3403
94641W        W95505   9.640   2.628  12.830 -0.0693 -0.0138  0.1249
94642W        W95506   5.513  15.314  11.693 -0.0855  0.1489  0.0846
94643W        W95507  15.887   7.566  22.243  0.0767  0.1529  0.0344
94644W        W95508  18.471   0.784  23.212 -0.1067  0.3079  0.2876
94645W        W95509  14.949  28.654  14.663 -0.0443 -0.0979  0.2201
94646W        W95510  13.826  25.863  19.834  0.3931 -0.1442  0.3098
94647W        W95511  13.064  16.809  10.538 -0.0689  0.0556  0.1726
94648W        W95512   3.133  15.832   3.779 -0.1761 -0.2332 -0.1496
94649W        W95513   1.078  19.609  11.272 -0.2562  0.1553 -0.2182
94650W        W95514   6.622  14.149   4.744  0.1162  0.1095  0.3789
94651W        W95515   0.566  13.347  15.434 -0.3525 -0.0810 -0.2864
94652W        W95516  19.067  21.800  18.964  0.1214 -0.4100  0.2161
94653W        W95517  18.343   7.287   4.387 -0.1760  0.0612 -0.1892
94654W        W95518  21.045  12.146  12.421 -0.3716 -0.1097  0.0286
94655W        W95519  13.401  18.798   9.603  0.0904  0.0268 -0.0976
94656W        W95520  13.130   4.192  12.319  0.0978 -0.0015 -0.4412
94657W        W95521   8.372  25.146  23.597  0.1387 -0.2199  0.0641
94658W        W95522  17.324   9.804  17.068  0.0165  0.0889  0.0672
94659W        W95523   7.341  14.777  11.914 -0.2931  0.0650  0.0072
94660W        W95524  20.958  22.252   4.619  0.1272  0.0665 -0.2697
94661W        W95525  28.837  17.249  26.056 -0.3846 -0.2474  0.2016
94662W        W95526  19.449   4.858  14.185  0.2665 -0.0569  0.2414
94663W        W95527  16.580  27.988   1.829  0.2375 -0.1333 -0.0259
94664W        W95528  21.312   6.199  11.339  0.0649  0.0405 -0.0745
94665W        W95529  22.577   8.654  27.501  0.1439 -0.1440 -0.0627
94666W        W95530   4.335  16.592   1.188 -0.2216 -0.1018 -0.0741
94667W        W95531  18.759   4.954  19.665 -0.4603 -0.0721  0.1762
94668W        W95532   9.089  23.080   6.854  0.0475 -0.4489  0.0193
94669W        W95533  12.242  12.886   1.278 -0.1770  0.0558  0.0864
94670W        W95534  15.044   9.338  25.968 -0.0184  0.0297  0.1226
94671W        W95535   8.868  24.855  23.359 -0.1196  0.1726  0.1758
94672W        W95536   9.230  16.244  18.773 -0.1737  0.0895 -0.4040
94673W        W95537   0.177  25.679  13.906  0.2825 -0.0077  0.0130
94674W        W95538  10.192   5.999  19.342  0.3059 -0.0264  0.3077
94675W        W95539  29.040  17.129   4.398  0.1227  0.1033 -0.0990
94676W        W95540  17.861  17.655  22.527 -0.0011  0.0844 -0.0989
94677W        W95541  26.492  21.446  19.728  0.1814 -0.0506  0.0092
94678W        W95542  15.228  23.796  17.943  0.1238 -0.3056 -0.1292
94679W        W95543  26.482   3.392  24.256  0.1903  0.1196 -0.2531
94680W        W95544  17.960  21.385   5.150 -0.0562  0.0472  0.0236
94681W        W95545  27.207  25.075  20.634  0.1331 -0.2261 -0.1151
94682W        W95546   9.587   1.643  16.009 -0.0776  0.0128  0.0789
94683W        W95547  19.433   4.541   8.864 -0.0430  0.1540  0.1886
94684W        W95548   6.744  10.315   8.568 -0.0333 -0.1909 -0.0562
94685W        W95549   1.374  20.721  28.775  0.0503 -0.0131 -0.4216
94686W        W95550   1.549   9.953   4.588 -0.0294  0.1616 -0.0519
94687W        W95551  11.324   9.499  17.550  0.1264  0.2009 -0.1760
94688W        W95552   2.039  22.310  20.288  0.1412  0.1553  0.0160
94689W        W95553   1.065  17.055  17.241 -0.0461 -0.0931  0.0042
94690W        W95554  17.100  16.077   6.156  0.0168  0.0395  0.1849
94691W        W95555  15.011  22.291  12.574  0.1049 -0.1201 -0.1775
94692W        W95556  19.825  16.330   7.369  0.0798 -0.1009  0.1594
94693W        W95557   8.964  27.169   8.213 -0.2846  0.0748 -0.3472
94694W        W95558   4.617  25.484  13.913  0.1393 -0.0833 -0.0788
94695W        W95559  24.449  28.230   3.069 -0.2433 -0.1672 -0.3818
94696W        W95560   8.289  20.646  16.696  0.1477 -0.2069  0.0666
94697W        W95561   8.422  14.973  12.744  0.1320  0.0206  0.2665
94698W        W95562   7.027   2.163  14.378  0.0040  0.1670  0.0527
94699W        W95563  23.009  19.743   0.279 -0.3376  0.0350 -0.1023
94700W        W95564   9.676   4.693  24.367  0.0785 -0.2500  0.0366
94701W        W95565  13.257  10.248  10.573  0.1118  0.0165  0.0413
94702W        W95566   1.179  21.046  15.404 -0.2492  0.2322 -0.1535
94703W        W95567  13.542  18.315  18.742 -0.2341 -0.1937  0.0959
94704W        W95568  15.045  27.278  11.984  0.2287 -0.0747  0.0237
94705W        W95569  18.616   3.891  24.100  0.0606 -0.2759 -0.0414
94706W        W95570  25.555  14.589   1.870  0.2367 -0.0202  0.0018
94707W        W95571  24.047  18.467   5.742 -0.1402  0.0268 -0.1915
94708W        W95572   9.871  26.533  20.357 -0.1934  0.2088  0.1572
94709W        W95573  25.097  21.786  27.598  0.2006 -0.1056 -0.1098
94710W        W95574  18.000  17.986  11.966 -0.2497  0.0876 -0.1143
94711W        W95575  13.635   6.876  19.858  0.0152 -0.0413 -0.0108
94712W        W95576  14.232  20.344  10.644  0.0225 -0.0182  0.0723
94713W        W95577   3.904  13.138   8.169  0.2740 -0.0203 -0.2227
94714W        W95578  20.306  18.778  19.127  0.0493  0.0943 -0.2405
94715W        W95579   2.674   5.348   7.904 -0.1510 -0.2030  0.3193
94716W        W95580   0.452   1.047   7.536 -0.1170 -0.2885  0.1510
94717W        W95581   8.886   7.138  16.885  0.1011  0.0715 -0.0349
94718W        W95582   2.240  21.947  17.309 -0.1268 -0.2041 -0.1575
94719W        W95583   7.120  21.050  14.352  0.0297 -0.0156 -0.2052
94720W        W95584  20.411  11.947   2.021  0.2520 -0.1273  0.3317
94721W        W95585   2.942  13.989  22.506  0.2649 -0.1941 -0.5850
94722W        W95586   1.762   9.459   5.732 -0.1830 -0.0412 -0.0569
94723W        W95587   8.774   9.648  24.122  0.0381 -0.1286 -0.1182
94724W        W95588   9.533  22.314  28.327 -0.0807 -0.1503  0.0589
94725W        W95589  25.985  24.091   9.977 -0.1558  0.2104  0.3553
94726W        W95590  23.446  23.984  21.737  0.1787 -0.0686  0.0219
94727W        W95591  13.192  18.918  27.809 -0.3763 -0.3468  0.0504
94728W        W95592  14.771  15.764   8.656 -0.2514 -0.0914  0.1641
94729W        W95593  25.461   3.618  14.485 -0.1545 -0.1170 -0.0823
94730W        W95594  15.910  28.196  13.342  0.0288  0.3463  0.0494
94731W        W95595  25.131  21.210  25.265 -0.1006 -0.1557 -0.0793
94732W        W95596   3.166  24.263  13.501  0.0114  0.0802 -0.2167
94733W        W95597  15.075   7.787  22.212 -0.0202  0.1831 -0.0420
94734W        W95598  28.459   8.972  27.695 -0.0630  0.1388  0.0809
94735W        W95599  12.873  29.123  24.706  0.4020  0.0722 -0.1501
94736W        W95600   3.364   1.741   8.865  0.0300 -0.3168  0.0273
94737W        W95601  20.677  21.190  27.159 -0.0335  0.0415 -0.0320
94738W        W95602  22.214   0.875  11.758 -0.0592 -0.0581 -0.0487
94739W        W95603   9.066  19.742  18.800 -0.1523 -0.0769  0.2151
94740W        W95604   4.650  13.787   1.722 -0.0989 -0.0305 -0.0579
94741W        W95605  17.628  19.851  25.496 -0.1463  0.0762  0.0203
94742W        W95606  23.558   1.867   4.554 -0.1496 -0.2736  0.0554
94743W        W95607  19.246  19.335  21.828  0.1968 -0.0352  0.2948
94744W        W95608  13.690  23.154  28.784 -0.1637 -0.2010  0.1655
94745W        W95609  15.332   0.719   8.371 -0.0613 -0.0634  0.0513
94746W        W95610  16.213  28.098   1.028 -0.1205 -0.0380  0.1483
94747W        W95611  12.771  12.820  14.189 -0.0302 -0.1039  0.0982
94748W        W95612   3.970   2.146  19.826 -0.0233  0.2493 -0.1281
94749W        W95613   2.656  24.990   2.736  0.1852 -0.2294 -0.2756
94750W        W95614  25.303  25.794  16.323 -0.0162 -0.0127  0.0180
94751W        W95615  16.350   0.306  20.535  0.0550 -0.0038 -0.0395
94752W        W95616   6.439  15.442   3.456 -0.0109  0.1449 -0.2222
94753W        W95617   3.103   6.171   8.399  0.0659  0.1614 -0.1909
94754W        W95618   9.809   8.036   7.373 -0.2644  0.1244 -0.4590
94755W        W95619  17.044   9.448  19.784 -0.0229  0.2825 -0.0160
94756W        W95620   1.066  16.434   7.060  0.1626  0.2305 -0.0242
94757W        W95621  20.517  10.440   4.494 -0.0370 -0.0547  0.0432
94758W        W95622  11.783   6.601   7.513  0.0694  0.0255 -0.0545
94759W        W95623  13.954   8.002  24.337  0.0665 -0.0449  0.1673
94760W        W95624   7.668  15.667  13.889  0.1446 -0.0530  0.0324
94761W        W95625  16.025  28.570  13.705  0.0204  0.2041 -0.4253
94762W        W95626  27.473  17.461  14.161  0.2357 -0.1103  0.0644
94763W        W95627  27.412   9.116  15.276  0.1995 -0.0353  0.1866
94764W        W95628  17.658  13.190  25.187 -0.0092  0.1594  0.1336
94765W        W95629   5.798  11.628  24.769 -0.0771 -0.1080 -0.1801
94766W        W95630  18.111  15.562  12.821 -0.1601 -0.2323  0.2906
94767W        W95631   9.172   2.275  22.584 -0.0976 -0.1196 -0.0461
94768W        W95632  23.370  25.874  20.878  0.3132 -0.0386  0.4236
94769W        W95633  22.028   4.203  21.208 -0.2762  0.1124 -0.0326
94770W        W95634   8.151  20.414  22.952 -0.0735 -0.3712  0.0869
94771W        W95635  10.806   7.466  25.499 -0.0656  0.4356 -0.0010
94772W        W95636  10.997   0.829   4.624 -0.2760  0.0503 -0.0345
94773W        W95637   7.274   2.396  15.549 -0.1574 -0.0472 -0.1677
94774W        W95638  24.417  13.160  19.591  0.4324 -0.1225  0.1935
94775W        W95639   8.679  15.251  26.393  0.1339 -0.2140 -0.0768
94776W        W95640  24.788  21.805  10.559 -0.2654  0.1828  0.0701
94777W        W95641   6.216  21.435  17.185  0.0396  0.0043 -0.1153
94778W        W95642  24.251  10.406  15.127  0.1833  0.0293  0.0517
94779W        W95643   6.943  17.928   8.046  0.0421 -0.0046  0.0317
94780W        W95644  26.774  21.774  22.670  0.2029 -0.0751 -0.0289
94781W        W95645   3.745  20.323  20.593 -0.1918 -0.0143 -0.2106
94782W        W95646   0.827   0.917  10.119 -0.0442  0.1502 -0.0550
94783W        W95647  14.789  20.229   3.466  0.1705  0.3300 -0.0408
94784W        W95648  15.859  14.367  16.331 -0.1465 -0.2742 -0.3309
94785W        W95649   7.463   7.091   2.640  0.0988  0.0503  0.0590
94786W        W95650  21.026  15.342   1.594  0.1683 -0.1200 -0.0291
94787W        W95651  28.706   4.005  11.583 -0.2049 -0.4134  0.3842
94788W        W95652  14.304  19.567  25.962  0.0695 -0.0979 -0.0666
94789W        W95653  13.931  11.414  16.527  0.0467 -0.1708 -0.0134
94790W        W95654  14.069   4.178  12.857 -0.0885  0.2618 -0.3774
94791W        W95655  18.488  23.677   9.459 -0.6180  0.0276  0.1865
94792W        W95656   4.396  21.655  18.682  0.0683 -0.0047  0.2747
94793W        W95657   2.089  22.968  12.409  0.1210  0.0205  0.3473
94794W        W95658   3.170  24.437  23.058  0.0689  0.0516 -0.0536
94795W        W95659  10.148   9.199  13.445 -0.0860  0.0539 -0.3599
94796W        W95660   8.237  16.422  12.182  0.0582 -0.0530 -0.1240
94797W        W95661  20.739  18.599  23.128 -0.0495 -0.0391  0.0075
94798W        W95662  13.868  26.063   5.997  0.2243  0.0304  0.2072
94799W        W95663   7.479  24.532  18.615  0.1527 -0.3021  0.1162
94800W        W95664   6.544  21.107  15.115  0.1315  0.1336 -0.0233
94801W        W95665   0.284  27.303   1.390  0.1106  0.1715  0.2262
94802W        W95666   6.142  11.509   5.055  0.1942 -0.1683 -0.0752
94803W        W95667   9.054  25.200  17.680 -0.1249  0.1028  0.0210
94804W        W95668   0.382  25.851  16.053  0.0204 -0.1282  0.3325
94805W        W95669   6.144  26.990  14.374 -0.0236 -0.0491 -0.0754
94806W        W95670   2.489  15.629   4.628 -0.2656 -0.1057  0.1888
94807W        W95671  14.620  27.013  27.562 -0.1080  0.1029  0.3161
94808W        W95672  20.201   8.346   3.375  0.1606  0.2707  0.0389
94809W        W95673   1.231  22.692  14.826 -0.1413 -0.1920  0.2059
94810W        W95674  20.079  26.391   3.804  0.4609 -0.0000  0.1278
94811W        W95675   3.890   6.252   9.375  0.1062 -0.0269 -0.1866
94812W        W95676   8.201   8.356  22.482  0.1332 -0.2965 -0.0787
94813W        W95677  25.441  28.246  15.248  0.1128  0.1403 -0.1756
94814W        W95678  28.561  16.367  19.069 -0.1176 -0.0385  0.2372
94815W        W95679  18.214  10.137  24.656  0.1780  0.0636 -0.3841
94816W        W95680  17.149  20.082  18.881 -0.2086 -0.0571 -0.1341
94817W        W95681   2.714   9.321  23.080 -0.1176 -0.0475  0.0031
94818W        W95682  18.576  22.260   8.476  0.2075  0.1657 -0.0533
94819W        W95683  19.632  21.339  24.698  0.0844  0.0319 -0.0174
94820W        W95684  13.478   2.894  26.375  0.0468 -0.2491 -0.0390
94821W        W95685  14.268  21.356  14.157  0.0956 -0.0321 -0.0553
94822W        W95686   0.637  28.616   2.938 -0.0965  0.0055 -0.1183
94823W        W95687   8.449   4.261  10.417  0.0957  0.2545 -0.0551
94824W        W95688  17.598   5.575  10.416  0.0807  0.3832 -0.0688
94825W        W95689   5.773  26.529  15.179  0.0057  0.2775  0.5206
94826W        W95690   3.888  22.043   6.328 -0.1478 -0.3214  0.1145
94827W        W95691   4.291  11.357  20.584  0.1527  0.0288  0.2040
94828W        W95692  12.853  11.691  25.093  0.0781 -0.0973  0.1285
94829W        W95693   9.539  19.678  16.029  0.3772  0.1094  0.2554
94830W        W95694  11.746  14.902   0.466  0.0331 -0.1961 -0.0661
94831W        W95695  12.235   5.655  20.333  0.1431  0.3654 -0.2817
94832W        W95696   4.882   1.715  19.169  0.1542 -0.0224  0.1299
94833W        W95697  15.947   7.035  22.003  0.2482 -0.1144 -0.4610
94834W        W95698  18.396  14.837  13.420 -0.1189  0.2639  0.1307
94835W        W95699   5.045  19.860  23.214 -0.2908 -0.2174 -0.1864
94836W        W95700  27.407  13.327  24.087  0.1624 -0.0644 -0.1525
94837W        W95701   2.263  13.648  23.963 -0.0630  0.3740  0.1883
94838W        W95702   1.912  13.365  19.511 -0.1557  0.0514  0.2932
94839W        W95703  17.055  25.185  19.990  0.0275 -0.2850 -0.3624
94840W        W95704   8.211   9.287  25.962  0.0209 -0.0897  0.1782
94841W        W95705  23.124   1.096   0.903  0.1822 -0.0156  0.1517
94842W        W95706  23.763  23.815  13.631 -0.2951 -0.2051 -0.0334
94843W        W95707  12.543  27.557  16.121  0.0230 -0.0663 -0.0315
94844W        W95708  22.196  23.123  22.385 -0.2352  0.2757  0.1305
94845W        W95709  21.592  18.457  19.211  0.0698  0.1268 -0.1784
94846W        W95710  12.242  12.418   9.551 -0.1753 -0.1091  0.2718
94847W        W95711  20.304   9.262  12.112 -0.0112  0.2129  0.0565
94848W        W95712  23.442   2.521  15.861 -0.4433  0.1180 -0.4159
94849W        W95713  25.791  27.010  16.677 -0.0389 -0.0467  0.3112
94850W        W95714  10.233  17.527  23.024 -0.1199 -0.1352  0.1953
94851W        W95715  17.510  28.754  10.501 -0.0334  0.2865  0.2007
94852W        W95716  17.565  24.305   0.956  0.1619  0.1197  0.2933
94853W        W95717   7.819  11.921   6.500 -0.0218 -0.0433 -0.1559
94854W        W95718   1.240   2.110   8.604 -0.0428 -0.4066 -0.2154
94855W        W95719  11.790  21.246  17.732 -0.1223  0.2578 -0.2941
94856W        W95720  19.039   0.303  10.677  0.2332 -0.3359 -0.2436
94857W        W95721  26.217  18.046  28.491 -0.1415 -0.5056  0.0473
94858W        W95722  10.413   1.116  16.283  0.0155 -0.0920  0.0462
94859W        W95723  15.998  17.816  15.578  0.1658  0.2931 -0.0743
94860W        W95724   1.864   4.034  16.409  0.1134 -0.0083  0.1021
94861W        W95725   2.111  21.829  24.524  0.0365  0.0429  0.1911
94862W        W95726  15.983  27.579  18.451  0.3141 -0.3829 -0.1998
94863W        W95727  28.056  24.618  11.860 -0.0414  0.0393 -0.1589
94864W        W95728  18.620  28.403   2.518  0.1564 -0.0552  0.0068
94865W        W95729  19.100  28.707  16.888 -0.1425 -0.2745  0.0535
94866W        W95730   9.328  28.009   0.882  0.1227  0.4574 -0.1003
94867W        W95731  14.469  10.353  11.909 -0.1492 -0.2048  0.0303
94868W        W95732  13.570  16.884   4.414 -0.3748 -0.0909 -0.2162
94869W        W95733  11.010  28.467   8.440  0.3007 -0.1557 -0.1151
94870W        W95734   8.577  24.992   6.559  0.0880  0.1600  0.2451
94871W        W95735  13.866  10.812   6.676 -0.3389 -0.2531 -0.1986
94872W        W95736   8.556  26.753  11.360  0.2197  0.0374  0.1853
94873W        W95737  19.017   3.884   1.422 -0.0523  0.1833 -0.1174
94874W        W95738  28.626  15.306   6.769 -0.0757 -0.0145  0.4914
94875W        W95739   8.120  13.866  18.468 -0.1719 -0.0927 -0.1990
94876W        W95740   1.369   0.234  24.429  0.1467  0.2233  0.1065
94877W        W95741  15.276   2.751  20.598 -0.1766 -0.1110 -0.1033
94878W        W95742   9.017  27.980  19.547 -0.2547  0.2015 -0.1212
94879W        W95743  20.721   3.486  14.056 -0.1563 -0.1646 -0.0901
94880W        W95744  17.128  12.122  27.491 -0.1897 -0.0377  0.2058
94881W        W95745  13.296  21.135  14.466  0.0628 -0.1411 -0.0523
94882W        W95746  17.750  24.991   7.784  0.3201 -0.0170  0.0313
94883W        W95747  10.912  25.740  15.819 -0.3290  0.0110  0.1562
94884W        W95748  14.563  20.317  27.078 -0.0236 -0.2602 -0.3059
94885W        W95749  10.580  20.825  13.540  0.1862  0.1124 -0.3099
94886W        W95750  26.488   3.485   7.729 -0.2736 -0.0892  0.1864
94887W        W95751  15.347  20.642   2.672  0.0160 -0.0626  0.1577
94888W        W95752  17.769  19.569   8.675  0.1256 -0.2101  0.2609
94889W        W95753  26.494   5.209  21.703 -0.2391  0.2006 -0.1653
94890W        W95754  22.625   7.616   6.440 -0.0450  0.0674  0.0965
94891W        W95755  27.124  18.510   8.163 -0.1365  0.0632 -0.0079
94892W        W95756  17.940  26.802  20.971  0.5124  0.3040 -0.0227
94893W        W95757   9.160  20.018  18.374  0.1872  0.1530  0.2074
94894W        W95758   2.112  13.895  27.088 -0.1315 -0.1074  0.4131
94895W        W95759  26.376  21.798  23.929  0.0431  0.2747  0.0149
94896W        W95760  11.811  19.457  12.899  0.5346  0.4194  0.3371
94897W        W95761  26.553  10.548  27.288 -0.0420  0.1222  0.0158
94898W        W95762   7.818  15.663  17.466 -0.1075 -0.1237  0.1048
94899W        W95763   2.915  16.106  24.326  0.2480  0.0123 -0.2198
94900W        W95764  11.853  16.065   4.004 -0.2290  0.1138  0.1612
94901W        W95765  20.782   6.565  11.038  0.0034  0.3891  0.2133
94902W        W95766   8.529  23.375  25.059  0.0280  0.5131 -0.1060
94903W        W95767  24.918  27.380  10.088 -0.0695 -0.3003  0.3336
94904W        W95768  11.114  28.369  17.360 -0.1100 -0.0310 -0.0309
94905W        W95769   0.460  17.534  23.378 -0.1959 -0.1429  0.1230
94906W        W95770  21.278   4.122  16.481 -0.0790  0.0640 -0.0666
94907W        W95771  20.482  10.199  12.409 -0.2994  0.2119 -0.0747
94908W        W95772  23.954  16.197   1.949 -0.5269 -0.0800  0.1917
94909W        W95773  20.663  18.555  15.565  0.1778 -0.1281 -0.0414
94910W        W95774  16.468  11.591  19.692  0.2632  0.0991 -0.1327
94911W        W95775   1.411  25.441  26.107  0.1276 -0.1400 -0.1406
94912W        W95776   3.998  21.558  19.043  0.4270  0.1448  0.0668
94913W        W95777  20.040   3.315   8.248  0.0492  0.3089  0.1257
94914W        W95778   9.295  16.159  17.151 -0.0618 -0.0523  0.0213
94915W        W95779  25.458  16.814  15.918 -0.2688  0.2076 -0.1308
94916W        W95780  18.160  15.506  27.550 -0.3822  0.1395 -0.1505
94917W        W95781   0.807  15.772  24.522 -0.2977 -0.0348  0.1047
94918W        W95782   8.051  17.617  12.945  0.2504  0.0096  0.0962
94919W        W95783  28.342   5.006  14.518  0.0571  0.2462 -0.0710
94920W        W95784   6.113   4.855  22.519 -0.0819 -0.0347  0.1944
94921W        W95785  25.996   4.870  23.097 -0.1085  0.0230 -0.0297
94922W        W95786  21.065   3.459  21.338 -0.1870 -0.1685 -0.0975
94923W        W95787  14.975  27.303  17.518  0.3049 -0.2894 -0.0178
94924W        W95788   8.279  13.505  13.970 -0.1943  0.0982  0.0814
94925W        W95789   6.643  22.788   3.672 -0.0278 -0.2622  0.0304
94926W        W95790  13.514  20.759  24.318  0.1843  0.2631  0.2621
94927W        W95791   2.961   4.030  14.509  0.2393 -0.3502  0.0098
94928W        W95792   4.960  15.978  20.314  0.2723  0.0779  0.1008
94929W        W95793  27.692  14.959   5.316 -0.1438  0.1936 -0.3777
94930W        W95794  17.284  14.716  14.584  0.3046 -0.1307 -0.1854
94931W        W95795  25.905  20.962  10.145  0.1158  0.1251 -0.0157
94932W        W95796  10.389   9.261  19.697  0.0285 -0.2895 -0.1489
94933W        W95797  20.674  21.185  22.125  0.2497  0.1582  0.1643
94934W        W95798  26.639  24.640   0.241  0.0017  0.2878 -0.0551
94935W        W95799  28.919  20.225  14.530  0.0888 -0.1416  0.2359
94936W        W95800   3.600   9.881  14.396  0.0849  0.1083  0.0062
94937W        W95801   7.277  20.368  20.844  0.2064 -0.0882  0.1016
94938W        W95802  17.666  13.725  10.045  0.1840 -0.0362 -0.0102
94939W        W95803   1.352   9.457  28.218  0.2882 -0.0058 -0.0394
94940W        W95804   1.648  24.475  28.242  0.0911  0.0421 -0.4983
94941W        W95805  10.401  28.399  25.928 -0.3090  0.2404  0.3528
94942W        W95806  13.583   5.415  18.614  0.2286  0.1636  0.1660
94943W        W95807   7.949   9.619  18.945 -0.1355 -0.0724  0.0166
94944W        W95808   8.001  25.182   7.823 -0.0198  0.0021  0.3223
94945W        W95809  14.815   2.459   3.210 -0.1883 -0.1400 -0.0591
94946W        W95810  12.078  19.768  12.598 -0.1974 -0.1599 -0.0427
94947W        W95811   1.570  17.552  22.183 -0.1669  0.2385  0.1765
94948W        W95812  18.840  26.824  25.007 -0.0684  0.0776 -0.1961
94949W        W95813  21.182  20.390  26.865 -0.0857 -0.0900  0.0064
94950W        W95814   5.663  27.457  23.572 -0.2452  0.0380 -0.1810
94951W        W95815   5.328  21.857   4.685  0.4061  0.0007 -0.1160
94952W        W95816   2.465   2.599  28.359 -0.0445 -0.0070  0.0234
94953W        W95817  22.973  25.075  24.360  0.0732 -0.1335 -0.0348
94954W        W95818  12.502  27.796  20.101 -0.0712  0.1262  0.3272
94955W        W95819  18.559  10.028  15.324 -0.1018 -0.3825 -0.0218
94956W        W95820  27.884   2.033  23.181  0.1214 -0.2039 -0.2429
94957W        W95821  22.052  25.325  26.829  0.1366 -0.0817  0.0143
94958W        W95822  13.864  20.166  11.970 -0.1576  0.2530 -0.1687
94959W        W95823  12.103  19.920   5.543 -0.1061 -0.2895  0.4612
94960W        W95824  15.902  23.113  20.901  0.3901  0.5019 -0.0097
94961W        W95825   9.359   7.602   3.960  0.0175  0.1772  0.2944
94962W        W95826   6.198  17.290  20.456 -0.1230 -0.1833 -0.0118
94963W        W95827  14.612   4.501  13.463  0.2412  0.1278  0.2916
94964W        W95828  26.643   2.038   0.261  0.0019 -0.2042 -0.1676
94965W        W95829  14.893  13.831  16.106 -0.1330  0.1403 -0.0117
94966W        W95830  15.791   0.393   8.108  0.1470  0.0261  0.1265
94967W        W95831  20.415  12.197  17.809  0.1238 -0.1609  0.3080
94968W        W95832  11.689  26.210  11.227 -0.3109  0.0766 -0.0471
94969W        W95833  13.087  28.220  16.173 -0.1496 -0.1740 -0.0916
94970W        W95834   2.111  12.603  22.548 -0.2587  0.2940 -0.2155
94971W        W95835   9.001  21.852  25.909  0.1576  0.0414  0.0620
94972W        W95836  25.837  25.187  25.906  0.0367 -0.0124 -0.0605
94973W        W95837  10.140  15.335  20.672 -0.2644  0.3035  0.4604
94974W        W95838   7.978  17.426   2.745  0.3173  0.1403 -0.3126
94975W        W95839  18.428  17.797   6.877  0.2565 -0.0339  0.0186
94976W        W95840   5.892  11.144   0.789 -0.1058  0.1959  0.1526
94977W        W95841  20.440  23.617  21.508 -0.0387  0.1721 -0.1139
94978W        W95842  14.922   7.632  21.726 -0.0566 -0.0263 -0.1844
94979W        W95843   8.463  25.020  21.831 -0.1013 -0.0104  0.2513
94980W        W95844  13.938  24.939  17.666 -0.1702  0.1609  0.0072
94981W        W95845  25.566  22.341  15.061 -0.0829 -0.1487 -0.2987
94982W        W95846  26.717  11.361  11.029  0.0891  0.0322  0.0566
94983W        W95847  24.979  13.891   2.746  0.0017  0.1729  0.1543
94984W        W95848  11.322   4.484  18.827 -0.2547 -0.3742  0.0266
94985W        W95849   8.345  25.636  26.831 -0.0957 -0.0101 -0.2790
94986W        W95850   7.194  10.093  28.951  0.0540 -0.2141  0.0395
94987W        W95851  14.240   2.627  21.205 -0.3473 -0.2779  0.1112
94988W        W95852  16.576  13.952  13.731 -0.1233 -0.1614 -0.3250
94989W        W95853   9.442  13.469  17.642  0.3430 -0.0755  0.1198
94990W        W95854   4.706  28.318  14.624 -0.0503 -0.0468  0.3183
94991W        W95855  23.472   4.147  13.719 -0.2568 -0.3977 -0.0506
94992W        W95856   8.701  16.158  21.712 -0.1876 -0.1783  0.0205
94993W        W95857  28.975  20.569  14.891  0.2357  0.3275  0.0497
94994W        W95858  16.782  28.409  16.554  0.0208 -0.2104  0.1661
94995W        W95859   8.390  16.936  24.561 -0.1161  0.0403 -0.1939
94996W        W95860   8.429  19.327   8.544  0.0745 -0.3724 -0.0181
94997W        W95861   4.969   0.214  22.407  0.2166 -0.1619  0.1504
94998W        W95862  11.427  18.306  14.637  0.2329  0.1936 -0.0856
94999W        W95863  27.862  19.571  23.772 -0.1729  0.1473  0.0478
95000W        W95864   8.390  16.766  12.759  0.3771  0.2512 -0.0097
95001W        W95865  13.661   0.869  21.581  0.0480  0.2248  0.0645
95002W        W95866  16.906  24.408  21.934 -0.2490  0.1619 -0.2064
95003W        W95867  20.655   2.564  20.249  0.1319  0.2251 -0.0351
95004W        W95868   7.762   1.574  23.071 -0.3095 -0.2152  0.0974
95005W        W95869   3.655  20.904   9.151 -0.1416  0.0873 -0.2135
95006W        W95870   2.926  16.780  21.461  0.1326 -0.0229 -0.0078
95007W        W95871   6.361  29.010  10.501 -0.2458 -0.2965  0.0849
95008W        W95872   6.815  21.918   7.970  0.1491 -0.2190  0.0859
95009W        W95873  13.657   6.607  26.063 -0.0120 -0.2203  0.0153
95010W        W95874  12.223  14.434  22.290 -0.0010  0.2577 -0.0410
95011W        W95875  20.553  16.020   9.944  0.1495  0.4824 -0.2166
95012W        W95876   1.308  25.907  25.389 -0.2068 -0.3555  0.2722
95013W        W95877  15.557  23.511   6.983 -0.2900  0.2921 -0.1080
95014W        W95878   6.591  22.366   1.933 -0.1179  0.0219  0.1218
95015W        W95879  18.150  24.548   5.120 -0.0588 -0.4068  0.0639
95016W        W95880   7.975   6.552   3.331 -0.4433  0.1949  0.1556
95017W        W95881  11.278  27.873  17.295  0.0432  0.0710  0.0041
95018W        W95882   9.546   6.865  26.090 -0.1612 -0.1393 -0.1861
95019W        W95883  19.983   9.316  21.968 -0.0721 -0.0805  0.0788
95020W        W95884   7.829   9.567  14.953 -0.1037  0.0563 -0.0452
95021W        W95885  17.972  21.594  24.599  0.1529 -0.0920 -0.0302
95022W        W95886   9.979  23.979   4.457 -0.0933  0.2888  0.0758
95023W        W95887  11.945   7.833  23.149  0.1504 -0.1729 -0.1298
95024W        W95888   8.313  11.442  10.573  0.3226 -0.2938  0.2280
95025W        W95889  24.043  13.310  24.905  0.1260 -0.0002  0.2555
95026W        W95890   5.306  11.920   0.994 -0.0450 -0.1947 -0.0476
95027W        W95891  11.488  15.979  17.756 -0.1501  0.0237 -0.3142
95028W        W95892   4.101  14.108  11.370 -0.1455 -0.1962 -0.3218
95029W        W95893   9.199   8.754  21.531  0.0879 -0.2819 -0.1784
95030W        W95894   7.919   4.913   7.005  0.3240  0.2299 -0.1172
95031W        W95895   9.458   9.299  24.870 -0.2327 -0.1415  0.2473
95032W        W95896   8.295  26.169  17.799 -0.0900  0.1965  0.2449
95033W        W95897  11.173  23.217   1.144 -0.0022 -0.1071 -0.2396
95034W        W95898  23.561  15.941   6.327 -0.2789  0.2264 -0.1023
95035W        W95899  14.287  11.064  10.038 -0.1158  0.3332  0.2352
95036W        W95900  26.082  13.836  15.445 -0.2849 -0.1042  0.1127
95037W        W95901   5.831  24.035  12.492 -0.1048 -0.0681 -0.0701
95038W        W95902   1.875  27.600  25.503  0.1395  0.0273  0.0151
95039W        W95903   4.537  27.803  19.634  0.0015 -0.4257 -0.2098
95040W        W95904   1.383   5.432  10.577  0.0573  0.1855 -0.1941
95041W        W95905   5.178  28.538  21.450 -0.1780  0.0174 -0.3879
95042W        W95906   5.682  17.751  24.175  0.1189 -0.1484  0.0577
95043W        W95907   0.577  26.623  23.687 -0.2905  0.1494  0.0805
95044W        W95908   4.208  12.095  24.494  0.1059  0.2642  0.1333
95045W        W95909  15.313  11.584   1.062  0.0183  0.3264  0.0659
95046W        W95910  17.918   6.102  24.826  0.2748 -0.0378 -0.1007
95047W        W95911  10.596  17.182  14.710 -0.2047 -0.0063  0.0157
95048W        W95912  12.457  11.983  27.367 -0.0637 -0.1460 -0.3233
95049W        W95913  18.304  25.814   2.977 -0.2376 -0.1585 -0.3347
95050W        W95914   3.262  22.092   8.601  0.0700  0.1560 -0.1361
95051W        W95915  26.205   5.858   0.628 -0.3181  0.0154  0.2325
95052W        W95916   5.931  18.021  16.250 -0.0218 -0.1894  0.1461
95053W        W95917  25.665  20.566  22.133 -0.0731  0.1691 -0.1468
95054W        W95918  12.208  19.438  16.475  0.0923  0.1059 -0.2529
95055W        W95919  10.771   7.002  18.110 -0.0561  0.0548  0.1086
95056W        W95920  23.864   5.001  21.006 -0.0472 -0.0530  0.1123
95057W        W95921  12.547   3.198  12.492  0.1049  0.0938  0.1109
95058W        W95922   4.962  25.150   8.582  0.0646 -0.1210 -0.0182
95059W        W95923  24.701  21.137   1.266 -0.1030  0.0884 -0.1480
95060W        W95924  27.294  14.662  28.703  0.4451  0.4057 -0.1093
95061W        W95925   9.741  23.079  26.733  0.0239  0.0698  0.0005
95062W        W95926  23.044   7.736   0.568 -0.3398 -0.4530  0.3083
95063W        W95927  11.127  13.380  21.486 -0.2481  0.2967 -0.0041
95064W        W95928  13.235  11.051  10.707 -0.0314  0.1566  0.1230
95065W        W95929   8.912  21.636  12.633 -0.2930  0.0342  0.1136
95066W        W95930   9.964  18.813  16.578 -0.0329 -0.1015  0.0665
95067W        W95931   3.454   1.982  23.049 -0.2871  0.4036  0.0951
95068W        W95932  11.139  12.647  28.108  0.0734  0.1206  0.1050
95069W        W95933  15.990  21.844  23.825 -0.0295 -0.0088  0.1819
95070W        W95934   7.646  26.405  23.674  0.0093 -0.2356 -0.3099
95071W        W95935   7.063   2.316  17.312 -0.1711  0.2105  0.1025
95072W        W95936   3.067  16.970  19.614  0.0302 -0.0500 -0.1249
95073W        W95937  18.215  12.834   1.934  0.0378  0.0051 -0.0431
95074W        W95938  10.648  27.749   7.627 -0.3455  0.1434 -0.0431
95075W        W95939   9.321   4.256  25.265  0.0303  0.0848 -0.1155
95076W        W95940  20.526   4.857  19.179  0.2420  0.0995 -0.0115
95077W        W95941   9.756   9.348  26.424  0.0170  0.0007  0.0178
95078W        W95942  16.200  28.341  24.402  0.0600  0.3563 -0.0144
95079W        W95943   1.291  12.073  18.160 -0.1179 -0.3155  0.1701
95080W        W95944  15.485  12.960   9.501 -0.0057  0.3917  0.0285
95081W        W95945   4.209  28.654  25.098 -0.1645 -0.1346  0.0974
95082W        W95946  11.532  16.669  18.753 -0.2279 -0.2216  0.4120
95083W        W95947   9.294  10.329  15.620 -0.1731  0.5188 -0.2252
95084W        W95948  21.796  12.462  16.568  0.1353 -0.0841  0.2615
95085W        W95949  28.230  26.137  13.222 -0.1040  0.2977 -0.2292
95086W        W95950  26.835  18.451  26.445  0.1308 -0.2531  0.1605
95087W        W95951  21.602  28.676  16.386  0.3299  0.2508 -0.0838
95088W        W95952  14.346  12.890  10.602  0.0129 -0.1149  0.0111
95089W        W95953  20.885  15.207  28.174 -0.0224 -0.1893  0.1166
95090W        W95954  10.735  17.770   2.957  0.0617  0.0964 -0.1462
95091W        W95955  21.711  10.609   9.336 -0.1053 -0.1542  0.0887
95092W        W95956  18.096   4.173  23.500 -0.0232 -0.2320 -0.0038
95093W        W95957  14.614   9.806  28.692  0.0681  0.2331  0.1207
95094W        W95958  21.913   0.313  15.273 -0.3768 -0.0720 -0.0311
95095W        W95959  16.184   0.722  26.851  0.0121 -0.0628 -0.1195
95096W        W95960   5.307   3.054  18.496  0.1498 -0.1709  0.3579
95097W        W95961   1.053  15.560  25.906 -0.5185 -0.0491 -0.0635
95098W        W95962  18.403  10.466  14.198  0.1925 -0.3122  0.0794
95099W        W95963   8.167  23.844  27.657 -0.2160 -0.0111  0.4890
95100W        W95964  14.147   3.124  16.775 -0.1789  0.1774 -0.1335
95101W        W95965   1.426  18.262  12.195 -0.0846  0.1739  0.0334
95102W        W95966  10.478  17.017  21.889 -0.0445 -0.0569 -0.1418
95103W        W95967  15.165   4.959  22.334  0.1750  0.0554 -0.3852
95104W        W95968  24.050  14.291  22.042  0.0308  0.2575  0.0668
95105W        W95969  28.750  11.755  12.820  0.1693  0.0061  0.0068
95106W        W95970  13.955  21.003  13.192  0.2243  0.2200 -0.0595
95107W        W95971  13.365  27.465  11.058 -0.4971  0.1928  0.0778
95108W        W95972  12.080  21.640  16.562  0.1339  0.1935  0.3525
95109W        W95973   9.491  20.154  15.901  0.1814  0.1317 -0.1808
95110W        W95974   5.791   9.401   5.487 -0.2073 -0.3463 -0.0543
95111W        W95975  18.563  18.134   6.479  0.1556 -0.1350  0.3885
95112W        W95976  12.287  13.087  12.825  0.0686 -0.0597 -0.0852
95113W        W95977  12.463  22.679   9.665  0.4429 -0.1423 -0.1241
95114W        W95978  22.274   8.344   7.351 -0.3455 -0.3010  0.1283
95115W        W95979  22.273   7.696  13.711  0.3234  0.0497  0.0108
95116W        W95980   2.044   5.444  19.513 -0.0710 -0.0867  0.3339
95117W        W95981   6.493   2.725  17.871 -0.2384  0.5184 -0.0839
95118W        W95982  21.274  21.310  23.041  0.3581  0.1249  0.0585
95119W        W95983   9.251  23.762  11.982 -0.2893 -0.1047 -0.2060
95120W        W95984   9.354  20.738  28.860  0.0671 -0.0957  0.0100
95121W        W95985   9.144  13.896  22.365  0.0963  0.1447 -0.2319
95122W        W95986  14.783   6.654  16.617 -0.2266 -0.0363 -0.0577
95123W        W95987   7.053  11.145   4.789 -0.2560 -0.0661  0.1990
95124W        W95988   3.303  11.998  20.153  0.1371 -0.0644  0.1711
95125W        W95989   1.162  28.251  15.829  0.0218 -0.2522 -0.0858
95126W        W95990  15.404  12.604  14.669 -0.4131  0.1144  0.0803
95127W        W95991  28.563  16.200  27.030  0.0952 -0.8116 -0.0251
95128W        W95992   0.999   8.983   1.698 -0.2800  0.0936  0.2414
95129W        W95993   1.396  15.208   3.052 -0.2103  0.1271  0.1795
95130W        W95994  14.821  11.790  17.763 -0.1247 -0.2237 -0.2266
95131W        W95995  12.093   6.863   3.223  0.0104  0.1831  0.3035
95132W        W95996  12.543  15.831  28.343  0.0716 -0.3754  0.2860
95133W        W95997  23.456  20.174   5.133 -0.2036 -0.0503 -0.0342
95134W        W95998  16.625  16.104  28.721 -0.3376 -0.1042  0.0194
95135W        W95999   7.711   8.579  18.153 -0.0454 -0.1078 -0.2754
95136W        W96000  18.482  14.143  23.711 -0.1025 -0.0576 -0.1682
95137W        W96001   3.773  19.133  12.521  0.1532 -0.0669  0.2297
95138W        W96002   4.841  26.688  15.818  0.0499  0.1835  0.1954
95139W        W96003  12.962   1.939  16.289 -0.6371  0.0788  0.1937
95140W        W96004   4.289  14.254  17.438  0.0194  0.0984  0.0297
95141W        W96005  10.187  26.805   8.277 -0.0694  0.0180 -0.0501
95142W        W96006  13.507   0.414  19.085 -0.1059 -0.1735  0.1416
95143W        W96007   8.777  24.675   1.098 -0.1107  0.1997 -0.2359
95144W        W96008  25.567   6.722  15.904 -0.0076  0.1047 -0.2319
95145W        W96009  24.804   6.752  24.009 -0.0517 -0.3380  0.1257
95146W        W96010   5.123   0.114  12.151  0.1750 -0.0638  0.0402
95147W        W96011  20.506   8.086  26.640 -0.1000 -0.3011 -0.1089
95148W        W96012   9.661  27.828  15.527 -0.2424  0.0852  0.0546
95149W        W96013  27.134  26.102  12.232 -0.1562 -0.2868  0.0257
95150W        W96014  23.322   8.965  23.458  0.0407 -0.1923  0.0112
95151W        W96015   3.156   8.466  14.817 -0.1235 -0.0435  0.1372
95152W        W96016   4.424  16.501  21.739  0.1055  0.0239 -0.1281
95153W        W96017   4.403  11.164   1.540  0.1632  0.3738 -0.0394
95154W        W96018  24.826  12.795  15.408 -0.0730 -0.2219 -0.0164
95155W        W96019  25.692  11.407  17.309 -0.2409  0.2497 -0.1767
95156W        W96020  19.426  19.991   8.432 -0.0298  0.2896 -0.0856
95157W        W96021  28.398   2.062  18.270  0.2262  0.0540 -0.2274
95158W        W96022  22.593  21.588  15.986 -0.2781  0.2876 -0.0604
95159W        W96023  21.361  19.799   9.627  0.4352  0.2629 -0.0641
95160W        W96024   1.708  13.944  28.911  0.1743 -0.0651 -0.1585
95161W        W96025  18.619   2.360   2.290  0.2911  0.0111  0.2457
95162W        W96026   5.018  20.119   8.784 -0.1153  0.1298  0.1496
95163W        W96027  14.279  10.391   9.336  0.0854  0.1424 -0.3662
95164W        W96028  10.833  29.101  12.698  0.0262  0.1706 -0.2759
95165W        W96029  19.866   4.093  14.710  0.0520 -0.0589 -0.1727
95166W        W96030  26.992   6.397  24.196 -0.1310  0.2412 -0.0951
95167W        W96031   3.231   0.043  20.279 -0.0738  0.1203 -0.1405
95168W        W96032  17.192  13.459  26.016  0.0193  0.0121 -0.2898
95169W        W96033   3.191  13.467  17.393 -0.1499  0.1557  0.0825
95170W        W96034  24.891  21.029   2.953  0.3050 -0.2283 -0.1521
95171W        W96035   5.304  21.501  25.972 -0.1406 -0.2126  0.0044
95172W        W96036   0.047  22.230  13.858  0.0030 -0.0560  0.1280
95173W        W96037  19.180  21.308  20.159 -0.3252  0.0423 -0.0608
95174W        W96038   1.533   3.562   9.788  0.4668  0.2259 -0.0986
95175W        W96039   7.162  16.587  29.045 -0.4425 -0.0793  0.1427
95176W        W96040  11.130  23.874  28.962 -0.2552 -0.3169  0.1042
95177W        W96041   1.961   4.115  22.232 -0.2062  0.0077 -0.0338
95178W        W96042   4.278   5.558  22.511  0.0590 -0.2890  0.2344
95179W        W96043  19.354   6.449  27.735  0.0564 -0.0632 -0.0148
95180W        W96044   4.646   9.270  23.360  0.3807 -0.2379 -0.0664
95181W        W96045  14.519  22.844  24.620 -0.2466 -0.1640  0.2201
95182W        W96046  14.721  18.830   8.163  0.0515 -0.0529 -0.1841
95183W        W96047  23.188  25.502  16.965 -0.0554  0.1675  0.1783
95184W        W96048  10.203  19.370  15.064  0.1199  0.1747  0.1476
95185W        W96049  27.071   7.135  23.625 -0.1458  0.0968  0.3145
95186W        W96050  18.166  23.399  11.104 -0.0818 -0.1063 -0.1458
95187W        W96051  28.641   2.022  23.890  0.0737 -0.0302 -0.0183
95188W        W96052  15.590  26.207  19.029 -0.1705  0.2352 -0.0975
95189W        W96053  13.006   9.731  17.188 -0.0602 -0.1290 -0.1566
95190W        W96054   6.749  19.485  12.925 -0.2524  0.0151  0.1159
95191W        W96055  14.341  16.407  19.168 -0.3139 -0.0217  0.1699
95192W        W96056  10.163  21.212   5.589  0.2186 -0.2511 -0.1394
95193W        W96057   3.431   2.922  24.123 -0.0773  0.3974  0.1985
95194W        W96058  28.544  13.144  17.769 -0.1678  0.0959  0.2286
95195W        W96059   3.886  13.843  26.974  0.1694 -0.1089 -0.0353
95196W        W96060  27.412  12.799   3.988 -0.0034 -0.0616 -0.3054
95197W        W96061  18.351  25.144  25.616 -0.2173  0.0256  0.1482
95198W        W96062  18.575  11.308  20.180 -0.1897 -0.2084  0.3726
95199W        W96063  19.816   9.402  19.340  0.2563 -0.2167  0.0435
95200W        W96064  26.865  16.244  14.580  0.0422 -0.0361 -0.0792
95201W        W96065   0.389  17.340   5.563  0.0962 -0.3440  0.1248
95202W        W96066  10.134   2.339   7.574  0.1092 -0.0690 -0.1637
95203W        W96067   7.690   4.355   5.060 -0.0256  0.1612 -0.0550
95204W        W96068  26.843  21.217  26.691  0.0043 -0.0830  0.0490
95205W        W96069   3.762  10.805  24.137  0.1078 -0.0014  0.0224
95206W        W96070   7.603  20.485   2.994  0.1025  0.0988 -0.1800
95207W        W96071  27.559  16.420  22.071  0.1984  0.0121  0.0907
95208W        W96072   8.038  23.699  25.255  0.2256 -0.0278 -0.2857
95209W        W96073   7.839  22.931  17.711 -0.0238 -0.1709  0.1221
95210W        W96074  23.055  14.949  10.471 -0.2436 -0.2656  0.2984
95211W        W96075  18.847   4.659   0.547  0.1474  0.3227  0.0877
95212W        W96076   0.992  14.249  22.606 -0.3864  0.1449 -0.0559
95213W        W96077  11.639  25.082  12.646 -0.0085  0.2910  0.1115
95214W        W96078   0.089  14.174  24.867 -0.0704  0.1562 -0.0402
95215W        W96079  26.905  25.493  17.157  0.2276  0.2909  0.0443
95216W        W96080  12.731   3.681  17.179  0.0137  0.1034 -0.2424
95217W        W96081  10.775  18.252  16.976 -0.0795 -0.1943 -0.1609
95218W        W96082   9.091  22.812  20.707  0.0853  0.0361  0.1025
95219W        W96083  10.688   8.117  19.122 -0.0711  0.1966  0.1895
95220W        W96084  11.982  27.247  14.375  0.2434 -0.1721  0.1649
95221W        W96085  21.451   5.811  21.153  0.1805 -0.0458  0.2247
95222W        W96086   6.833  22.579  21.514  0.0469  0.0975  0.2748
95223W        W96087  15.567  19.359  10.710  0.0126 -0.2455 -0.2079
95224W        W96088  20.280  13.221   4.213 -0.4230 -0.1645  0.0027
95225W        W96089  14.355   6.713   9.054 -0.1301 -0.2019 -0.0969
95226W        W96090  21.867   9.896   8.311 -0.0186 -0.1913  0.0434
95227W        W96091  21.321   6.344  14.148 -0.0869  0.0526  0.0530
95228W        W96092  13.180  11.720   1.232  0.0338 -0.3156 -0.0518
95229W        W96093   1.584   3.386  28.248 -0.1764  0.1980 -0.0679
95230W        W96094  22.008  19.566  16.080 -0.2332  0.0770  0.1102
95231W        W96095  22.480   1.485   3.514  0.1798 -0.0042 -0.2104
95232W        W96096  14.054  11.941  19.971 -0.1697 -0.1582  0.2931
95233W        W96097   0.666  20.953  12.863 -0.1153  0.1480 -0.3248
95234W        W96098  14.996   6.137   1.661  0.2348  0.1605  0.1073
95235W        W96099  21.897  18.392  17.848 -0.5078  0.0874 -0.2542
95236W        W96100  24.741  26.170  27.155 -0.1849  0.1687  0.2334
95237W        W96101  21.985   0.533  10.059 -0.0038  0.0662 -0.0885
95238W        W96102   8.450  17.700  12.043 -0.0822  0.0281 -0.3066
95239W        W96103   5.759  22.199   2.546  0.2864 -0.1432  0.1812
95240W        W96104  10.962  27.632  28.460 -0.0037 -0.0527  0.3399
95241W        W96105   7.661   4.335  18.422  0.0578  0.1028  0.0860
95242W        W96106  17.428  23.550  16.632  0.1312 -0.1487  0.1473
95243W        W96107  24.806   0.181  23.544  0.0242  0.3213  0.3731
95244W        W96108  12.670  17.631  28.320 -0.2143 -0.0176 -0.1828
95245W        W96109   2.266  24.458  15.164 -0.0204  0.2106 -0.4683
95246W        W96110   7.076  11.270  12.352  0.1523 -0.4884  0.1716
95247W        W96111  18.162   1.983  14.790  0.0222  0.1625  0.0915
95248W        W96112  14.059  21.484  12.428 -0.0908  0.3128  0.0404
95249W        W96113   6.561  21.049  25.701  0.2831 -0.3555 -0.1873
95250W        W96114  11.458  27.958  22.889  0.0233 -0.0293  0.2161
95251W        W96115   3.466  18.197   5.059 -0.0651  0.0730  0.2572
95252W        W96116  27.175  13.261   3.332 -0.5400 -0.2113  0.0671
95253W        W96117   3.047  25.940  16.095  0.1135 -0.0672  0.2551
95254W        W96118  14.463  24.389   6.913 -0.0596  0.2337  0.2620
95255W        W96119   6.881  23.105  25.311  0.1515 -0.2513 -0.0810
95256W        W96120  12.803  14.188  11.846  0.0020  0.0236  0.2949
95257W        W96121  23.270  16.508  21.388  0.0097 -0.1014 -0.3918
95258W        W96122   7.318  17.070  20.169  0.4756  0.0867 -0.1842
95259W        W96123   6.768   3.046  21.608 -0.1546 -0.0059  0.1792
95260W        W96124  14.133  23.108  12.045  0.0472 -0.0330 -0.2118
95261W        W96125  22.477  20.677  12.032  0.2846 -0.1661 -0.2914
95262W        W96126   9.600  26.193   9.870  0.2378 -0.0526  0.2260
95263W        W96127  26.738  25.417  13.545 -0.0734  0.0128 -0.0322
95264W        W96128  12.475  11.610   3.841  0.1190 -0.2838 -0.0749
95265W        W96129  15.442  27.100  26.525 -0.0053  0.1956 -0.1933
95266W        W96130  25.383  22.171   0.460 -0.0939 -0.0793 -0.2562
95267W        W96131  25.935   2.085  19.262  0.2123  0.2229 -0.2476
95268W        W96132   8.116   9.573  20.769 -0.0403 -0.0273  0.0223
95269W        W96133  18.289  27.352  25.968  0.1132 -0.1870 -0.1444
95270W        W96134   9.444  24.442  27.334 -0.1274 -0.0475 -0.4653
95271W        W96135  27.270  19.982   9.125  0.1148  0.0533  0.0661
95272W        W96136  27.599   3.985   7.359 -0.2543  0.0630 -0.0414
95273W        W96137   5.373  25.330  15.135  0.3757 -0.0102  0.2067
95274W        W96138  20.498  17.346  18.864 -0.1985 -0.0634 -0.0322
95275W        W96139  10.394   9.840  14.543  0.1191  0.0852 -0.0606
95276W        W96140  21.713  24.511  26.317  0.2002 -0.3667 -0.0559
95277W        W96141   2.269  19.935  13.600  0.2271 -0.3969  0.0776
95278W        W96142  21.691  21.331  14.783 -0.1381  0.1231 -0.1090
95279W        W96143  10.183   0.289   1.940 -0.1110  0.0463 -0.1027
95280W        W96144   4.579  15.297  10.176 -0.1432  0.1395 -0.3218
95281W        W96145  26.723   3.151  20.455 -0.1695 -0.0048 -0.1790
95282W        W96146  11.780   1.691  22.571  0.2193 -0.1923  0.4151
95283W        W96147   4.786   6.264  18.096  0.0854  0.1215 -0.0610
95284W        W96148  26.266   3.013   5.452  0.1091  0.0717 -0.2564
95285W        W96149   4.282  17.697  23.939  0.0919 -0.0674  0.0800
95286W        W96150  14.600  25.634   2.765 -0.0128  0.0910  0.0690
95287W        W96151   5.392  24.880  23.452  0.2023 -0.2090  0.0854
95288W        W96152  25.429  10.655  23.048  0.1630 -0.1738 -0.1279
95289W        W96153  15.406  23.675   9.355  0.2536 -0.1305 -0.0074
95290W        W96154  10.850  19.357  18.066  0.1425  0.1149 -0.3707
95291W        W96155   6.156  25.312  21.110 -0.1134  0.3236 -0.1766
95292W        W96156   3.549  16.295  22.270  0.1844  0.1808  0.1244
95293W        W96157  11.196  10.238  21.319  0.0573  0.2084 -0.2161
95294W        W96158  16.025  21.160  14.581  0.0691  0.0549  0.0729
95295W        W96159   3.491  14.760  12.214 -0.0344  0.1755 -0.0124
95296W        W96160  21.832   0.788  17.345 -0.1778 -0.4055 -0.1227
95297W        W96161   1.827   7.832  25.730  0.3043  0.1298 -0.1157
95298W        W96162  15.310  27.426   9.657  0.1693 -0.3565  0.1378
95299W        W96163   0.713  25.123  25.620 -0.1794 -0.1538  0.0377
95300W        W96164  16.702   5.278  17.527  0.0266 -0.2042 -0.2033
95301W        W96165  21.565   4.593  20.668 -0.0771 -0.1581 -0.1401
95302W        W96166  13.120  20.530  21.179 -0.3354  0.0350 -0.2189
95303W        W96167   5.592  26.989  22.104 -0.2721  0.0136  0.1452
95304W        W96168  23.884  19.999  25.509  0.0740 -0.1920 -0.4850
95305W        W96169  20.205   6.402  21.569  0.1443 -0.0561  0.1556
95306W        W96170   3.872  19.114   3.148  0.1343  0.1379  0.0996
95307W        W96171  20.579  13.283  13.459  0.1823  0.1739  0.1553
95308W        W96172  13.579  22.640  23.214 -0.1434  0.0484  0.0044
95309W        W96173  11.297  27.623   6.776  0.1655  0.1410  0.0485
95310W        W96174  13.105  11.597   9.713 -0.1705  0.1651 -0.2017
95311W        W96175   8.277  22.707  19.233  0.3575 -0.2215 -0.5614
95312W        W96176  20.451   6.392  26.984 -0.0578 -0.1003 -0.4574
95313W        W96177   4.501  23.787   6.541  0.1396  0.0835 -0.1057
95314W        W96178  17.720  20.798   5.638 -0.2184  0.0944  0.2186
95315W        W96179  29.005  22.173  21.686  0.1745 -0.0792 -0.0850
95316W        W96180  13.890  14.394  14.878  0.1353 -0.0393 -0.1751
95317W        W96181  16.452  12.611  13.296  0.0287 -0.3135 -0.0541
95318W        W96182   5.875   5.150   4.760  0.4514  0.2171 -0.4729
95319W        W96183   8.047   3.016  20.906  0.0139 -0.0285 -0.0940
95320W        W96184  15.542  15.450  20.232 -0.0637  0.0096 -0.2001
95321W        W96185   1.776  18.599  11.279  0.0634  0.3199  0.1968
95322W        W96186  10.495   1.497   0.603 -0.2423 -0.2388  0.4266
95323W        W96187   5.370   9.510  11.743 -0.2731 -0.2473  0.1654
95324W        W96188   4.957   7.587   4.124 -0.0750  0.1335  0.0234
95325W        W96189  17.268  25.877  22.482 -0.0644 -0.1419 -0.1536
95326W        W96190  24.862  25.770  26.750  0.2743 -0.1083  0.0238
95327W        W96191  14.489  21.561  28.934  0.3009 -0.1363 -0.0028
95328W        W96192  13.427  20.461  14.854 -0.0484 -0.4344 -0.3541
95329W        W96193  28.116  17.792   3.191 -0.0659  0.3386 -0.1364
95330W        W96194  28.202  22.381   9.383  0.1492  0.0896 -0.1466
95331W        W96195  20.473  29.021  13.747 -0.1188  0.0528  0.0600
95332W        W96196   7.905  25.785  13.934  0.0758 -0.2274 -0.2159
95333W        W96197  28.469   1.922  22.649  0.2662  0.1735  0.1712
95334W        W96198  26.378  23.014  13.313 -0.0392  0.1653 -0.1781
95335W        W96199  26.643   1.574  20.662 -0.0143 -0.0967 -0.0873
95336W        W96200   9.010  26.928  11.043 -0.0522  0.2783 -0.0268
95337W        W96201  27.004   4.720   6.861  0.0234  0.2409  0.1449
95338W        W96202   9.132   9.580  13.467 -0.2152 -0.2926 -0.4027
95339W        W96203  11.159  15.793  27.453 -0.0016  0.0700  0.0480
95340W        W96204  12.464   6.094  24.977 -0.3289 -0.4836  0.1078
95341W        W96205  29.062  24.956   4.337  0.0402 -0.1290 -0.0200
95342W        W96206  17.453  24.073  14.804 -0.0200 -0.0886  0.2191
95343W        W96207  15.260  10.349   9.616  0.0781 -0.1512 -0.1512
95344W        W96208  15.995  27.220   0.623 -0.1813 -0.1347  0.3365
95345W        W96209  15.192  27.358  24.309 -0.1860  0.0778 -0.2520
95346W        W96210  24.113  11.731  24.429 -0.2640 -0.1306  0.0929
95347W        W96211  14.887  16.186   2.285 -0.0177 -0.0781 -0.1746
95348W        W96212  14.007  21.482  24.812  0.1127  0.1752  0.3395
95349W        W96213  25.234  10.639  14.439 -0.2527  0.1178 -0.1420
95350W        W96214  14.175  20.289   4.395  0.1075 -0.3626 -0.1044
95351W        W96215  26.499  14.407   7.257 -0.1614  0.2806 -0.1061
95352W        W96216  23.830  29.101  18.633  0.1933 -0.2754 -0.1689
95353W        W96217  14.847   6.594  14.648  0.0102 -0.0099 -0.1007
95354W        W96218  13.221   2.667  13.602 -0.4972 -0.0843  0.3771
95355W        W96219  14.184  15.781  24.585 -0.1505  0.0312 -0.0627
95356W        W96220  28.687   7.708   2.732  0.2527 -0.1966  0.3205
95357W        W96221  12.101   2.362  15.916 -0.0985  0.0815 -0.1427
95358W        W96222  17.011   2.362  11.665  0.1423  0.0046 -0.2166
95359W        W96223   4.562  10.119  28.264 -0.1330  0.0220  0.2063
95360W        W96224   8.775  25.480  28.548  0.2729 -0.3671  0.1007
95361W        W96225  20.134   3.057  26.391  0.2154 -0.4999 -0.1418
95362W        W96226   7.681   7.263  20.893 -0.0529  0.0554  0.3478
95363W        W96227  19.561  20.510   0.498  0.0227  0.1094  0.0380
95364W        W96228  14.869   7.833   5.644 -0.0186  0.2008 -0.0117
95365W        W96229   2.561  21.180   3.147 -0.0582 -0.1079  0.1036
95366W        W96230  19.036  17.889  13.706  0.3112 -0.5702  0.2682
95367W        W96231  17.971  26.664   0.733 -0.0924  0.1256 -0.1288
95368W        W96232  18.101  20.887  10.466 -0.3878 -0.2091  0.1186
95369W        W96233   0.381   9.796  16.812 -0.1585  0.1106  0.0868
95370W        W96234  16.729  22.864  14.608 -0.1104 -0.1064  0.0818
95371W        W96235  15.411  14.395  18.781 -0.0381 -0.1261 -0.1817
95372W        W96236  14.578  22.713  16.263 -0.1080 -0.1272 -0.2595
95373W        W96237  18.595   5.462   9.901 -0.0276 -0.2201  0.0802
95374W        W96238  24.752  25.785  21.394  0.0095 -0.0951  0.2817
95375W        W96239   0.694  18.006  20.432  0.0799  0.1174 -0.0387
95376W        W96240   8.482  18.463  14.124 -0.2719  0.1117  0.0013
95377W        W96241  17.163  17.802   1.288  0.1044  0.3409 -0.0332
95378W        W96242  13.853  29.007   3.828 -0.2782 -0.0430 -0.2293
95379W        W96243  27.028  21.440  24.731  0.1165 -0.0991  0.0115
95380W        W96244  19.463  25.856   1.147 -0.0304 -0.2055  0.4111
95381W        W96245  11.729  19.706  15.487 -0.1028  0.0216  0.0124
95382W        W96246  13.569  25.385  22.464  0.0458  0.1792 -0.2377
95383W        W96247  20.116  22.995   9.735  0.4402 -0.0632 -0.2238
95384W        W96248  14.804  25.003  28.759  0.1193 -0.2680  0.1357
95385W        W96249   1.259   4.105  12.380 -0.1328 -0.4235  0.0526
95386W        W96250   2.677  12.193  12.249  0.3611 -0.1487  0.2702
95387W        W96251   1.330  26.596  14.851 -0.3179  0.2844 -0.0134
95388W        W96252  18.197  28.629  16.292 -0.1047  0.1928 -0.5859
95389W        W96253   4.839  21.546  21.647 -0.0196  0.0992  0.0595
95390W        W96254  17.757  22.259  23.033 -0.0121  0.0019 -0.1505
95391W        W96255  20.584   3.178  12.307  0.0419  0.0440 -0.0960
95392W        W96256  17.243  21.044  18.467 -0.0540  0.3186  0.0589
95393W        W96257  17.022  18.850  15.555  0.1770  0.3852  0.2400
95394W        W96258   6.305  25.874   4.996  0.0955  0.1827  0.4247
95395W        W96259  14.460   9.640  14.031  0.0376  0.0943  0.0781
95396W        W96260   4.837   0.420   6.605  0.0464  0.0201  0.1654
95397W        W96261  10.490   1.006   5.979  0.2574 -0.1806  0.1281
95398W        W96262  11.499  10.993  20.939  0.0327 -0.0432 -0.1663
95399W        W96263   6.794  23.657  26.370  0.0522 -0.0425 -0.1494
95400W        W96264   4.186   5.761  26.197 -0.2133  0.1449 -0.0652
95401W        W96265  23.022  23.838  24.035  0.1380  0.0110 -0.0863
95402W        W96266  25.338  25.247  24.296 -0.1061 -0.0838 -0.0272
95403W        W96267   5.272   9.706  26.071  0.5558 -0.0464  0.0298
95404W        W96268  19.322  14.366   1.813  0.1300  0.0859 -0.0757
95405W        W96269   7.382  10.983   6.764 -0.2170  0.2146  0.3251
95406W        W96270   1.606   2.243   4.918  0.1130  0.2303  0.4515
95407W        W96271  27.687  28.042   3.256 -0.0723 -0.2945 -0.2893
95408W        W96272  28.105   8.453   3.696 -0.0102  0.1936  0.2771
95409W        W96273  10.087  15.985   2.794 -0.1066  0.2502  0.0747
95410W        W96274  19.151  18.122  25.672  0.1257 -0.2303  0.0017
95411W        W96275   8.894   3.342  23.682  0.0438 -0.0814 -0.5224
95412W        W96276  18.035  22.348  14.088  0.2216 -0.0556 -0.0762
95413W        W96277  23.195  22.577  21.767 -0.2633 -0.1533  0.2296
95414W        W96278   8.825  17.466   0.043  0.3511 -0.0579 -0.3732
95415W        W96279   9.466  28.857  28.294  0.0681 -0.0137  0.1630
95416W        W96280   8.233  22.509  24.127 -0.2648  0.2283  0.2035
95417W        W96281  11.210  17.877  25.238 -0.2841 -0.2876 -0.0744
95418W        W96282   5.911  16.903   0.491 -0.0318 -0.1462  0.1273
95419W        W96283  13.282  27.157  28.770 -0.0573  0.1406  0.1826
95420W        W96284   8.683  16.808  26.941 -0.2765 -0.0491 -0.1093
95421W        W96285   9.821  18.570  16.128  0.2083 -0.0424  0.3428
95422W        W96286  24.021   7.867   7.902  0.3652 -0.4031 -0.0322
95423W        W96287  22.989  27.364   5.861  0.2430  0.0615  0.1069
95424W        W96288  11.243   7.146   2.504  0.1038 -0.0066 -0.0117
95425W        W96289  13.003  16.142  22.349 -0.1883 -0.1101 -0.3650
95426W        W96290  11.400  24.878   1.790  0.1224 -0.3984  0.0833
95427W        W96291  28.389  26.040  15.824  0.0247  0.0820 -0.1884
95428W        W96292   8.852  18.889  21.379  0.0301  0.0126  0.1601
95429W        W96293  13.533  26.607   2.620  0.0910  0.4968 -0.0215
95430W        W96294  12.367  25.209  18.822  0.1447 -0.0810  0.1264
95431W        W96295  17.321  19.309  25.554  0.2821 -0.0789 -0.1218
95432W        W96296  18.549   0.111  22.041  0.2655 -0.0097  0.0626
95433W        W96297   4.193   9.995  15.687  0.2098 -0.1544  0.2571
95434W        W96298   5.853   0.558   4.420 -0.2038  0.0339  0.0134
95435W        W96299  17.132   7.114  26.679 -0.2431 -0.2672 -0.1748
95436W        W96300  25.181  22.766  22.023 -0.0175  0.2694  0.2522
95437W        W96301  10.278  24.188  28.234  0.0112  0.1012 -0.1511
95438W        W96302  15.300  16.756   8.595  0.0461  0.0887 -0.0428
95439W        W96303  14.804  21.028  21.058  0.0967  0.2080  0.0440
95440W        W96304  17.980   8.350  10.090  0.0676  0.0560 -0.2132
95441W        W96305  25.442  12.675   0.372  0.1751  0.0368  0.1604
95442W        W96306  17.410  24.770  21.020 -0.0629  0.0082  0.2784
95443W        W96307  19.893   0.860  27.241 -0.0157  0.2302  0.0383
95444W        W96308  10.716  22.544  18.700 -0.0540 -0.2257 -0.1719
95445W        W96309  28.769   8.406  10.897 -0.0066 -0.0875 -0.2889
95446W        W96310   0.267  16.108  28.017  0.0177  0.1952  0.0261
95447W        W96311   3.036  11.660  20.411  0.1082 -0.0846 -0.0258
95448W        W96312  13.411   0.155  10.827  0.2093  0.1213 -0.1544
95449W        W96313  13.094  20.810   8.667  0.0931  0.0807  0.1816
95450W        W96314  12.311  24.201  11.506 -0.1663  0.0442  0.1824
95451W        W96315  10.340  27.358  20.827 -0.1206 -0.0285  0.2041
95452W        W96316   8.752  20.565  16.697 -0.0731  0.0945 -0.2624
95453W        W96317  28.714  24.544   3.864  0.0511 -0.0452  0.3995
95454W        W96318  14.971  28.866  25.760 -0.2298  0.2318  0.0122
95455W        W96319  10.600   7.826  13.905  0.0275  0.0687 -0.0144
95456W        W96320   9.845  23.193  19.064  0.1445 -0.0530  0.2702
95457W        W96321   3.695  11.581   6.282 -0.2903 -0.0209  0.1860
95458W        W96322  17.043  21.066  28.493  0.0032  0.0377 -0.1505
95459W        W96323  20.892  26.904  13.835 -0.3341  0.0994  0.0093
95460W        W96324  17.673  12.363   0.389 -0.1437  0.1634 -0.1054
95461W        W96325  17.688   7.735  20.689  0.4233 -0.0380 -0.0637
95462W        W96326  27.452   8.738  26.391 -0.0710  0.3218  0.1365
95463W        W96327  15.405   5.867  20.478  0.3948  0.1527 -0.0239
95464W        W96328   7.787  26.233   2.468  0.1908 -0.4746 -0.1899
95465W        W96329  21.705  22.289  24.062 -0.0507 -0.1008  0.1556
95466W        W96330   3.056  23.787  13.733  0.0679  0.4628  0.1590
95467W        W96331  11.099  27.724  16.362 -0.0055  0.0145 -0.0538
95468W        W96332   1.785   9.485   6.698 -0.1245 -0.0751 -0.0981
95469W        W96333  11.639  15.278  13.158  0.1044  0.1149 -0.1592
95470W        W96334  12.515  24.637  21.722 -0.0853 -0.0627 -0.1006
95471W        W96335  19.144   8.602  27.047  0.0625  0.0003  0.3168
95472W        W96336   6.417  22.541  23.274 -0.1582  0.1517  0.1117
95473W        W96337   1.904  14.207  22.510  0.2082  0.0091  0.2825
95474W        W96338  22.916  19.419  24.737 -0.1324 -0.1694  0.0578
95475W        W96339   1.510  20.514   8.837 -0.1408 -0.0396  0.1433
95476W        W96340  14.643  12.228  18.050  0.0764 -0.1986  0.1697
95477W        W96341  27.766  22.238  18.635 -0.0836  0.3715 -0.1297
95478W        W96342  17.270  26.006  20.134 -0.1956  0.0805  0.0805
95479W        W96343  12.908   2.275   0.048 -0.2508 -0.2835 -0.0034
95480W        W96344   5.611  13.342  19.401  0.2443  0.0726 -0.0267
95481W        W96345  10.220  25.181  26.174 -0.2319  0.1192 -0.2925
95482W        W96346  21.136  16.359  26.569 -0.0876 -0.1518  0.0658
95483W        W96347  15.981   1.622   1.944 -0.1189 -0.0136 -0.0296
95484W        W96348  10.042  17.049   2.301  0.1414  0.2218 -0.1567
95485W        W96349  14.001  11.769   3.013 -0.1534  0.0638  0.0437
95486W        W96350  28.763  14.561  14.193 -0.0906  0.0648  0.4090
95487W        W96351  18.894  18.524  25.107  0.1526 -0.0666 -0.5029
95488W        W96352   1.413  28.368  14.381 -0.2732 -0.1217  0.1972
95489W        W96353  15.925  21.958   0.194 -0.0228  0.0697  0.1626
95490W        W96354   5.379   0.632   6.636 -0.0662 -0.0121  0.2023
95491W        W96355  24.573   0.430  16.126  0.5090 -0.1072 -0.1156
95492W        W96356   0.115   1.810  23.203  0.0589  0.0555 -0.1864
95493W        W96357  14.508  11.611  22.308  0.0145  0.0390 -0.0148
95494W        W96358  26.483  22.068   4.816  0.1643 -0.0565  0.0783
95495W        W96359  22.973  13.836   8.995 -0.0146 -0.0794 -0.2435
95496W        W96360  21.533  16.416   0.551  0.0275 -0.1083 -0.1016
95497W        W96361   9.828  19.307   2.617  0.1682 -0.0212  0.0766
95498W        W96362  21.559   8.145  18.822 -0.0057  0.1748  0.2450
95499W        W96363  13.968  16.586   7.186  0.0708 -0.0214  0.1057
95500W        W96364  24.879   6.097  11.256  0.0694 -0.0087 -0.1979
95501W        W96365  26.373  27.503   0.243 -0.1217 -0.0039  0.0864
95502W        W96366  20.252  15.906  25.287 -0.1987  0.0055 -0.2854
95503W        W96367  25.773  15.836   5.890 -0.2165  0.5874  0.3528
95504W        W96368  20.338  19.241  24.147 -0.4007  0.0457  0.4287
95505W        W96369  11.865  17.057  22.891 -0.1703 -0.1532  0.4712
95506W        W96370  23.305  12.263  16.039 -0.5008  0.2912 -0.0528
95507W        W96371   1.262  23.261  27.387  0.1785  0.2032  0.0108
95508W        W96372  14.607  16.738  21.299 -0.1188  0.1494  0.2297
95509W        W96373  28.255  16.329  19.555 -0.3241 -0.0529  0.0434
95510W        W96374   1.542  11.138  27.046  0.3005 -0.2100  0.4684
95511W        W96375  17.835  21.614   1.519  0.1407 -0.0818  0.0295
95512W        W96376  18.531  13.440  18.236 -0.1817  0.1379 -0.2133
95513W        W96377   4.857  17.045   5.562  0.3218  0.0291  0.2054
95514W        W96378   6.580  17.494  13.429  0.1666 -0.2490 -0.0690
95515W        W96379   8.215   1.917  21.986 -0.2146  0.4134 -0.3139
95516W        W96380  20.024   6.547  24.878  0.0775  0.2502 -0.0410
95517W        W96381  20.120   4.309  12.981 -0.2902 -0.1362  0.2215
95518W        W96382  23.075   4.246  23.749  0.1809  0.1612  0.0108
95519W        W96383   7.458   8.871  22.246 -0.2787 -0.3296 -0.2790
95520W        W96384   7.339  25.488   2.912 -0.0625 -0.1336 -0.1461
95521W        W96385   0.020  20.711  16.268 -0.2384 -0.1613 -0.2884
95522W        W96386   4.148   0.184  21.669 -0.1124 -0.0781  0.1884
95523W        W96387   7.322  16.078  19.364  0.1914  0.1489 -0.1610
95524W        W96388  23.198  28.504  22.479  0.1450 -0.0636 -0.0473
95525W        W96389  16.062   4.418   5.906  0.1698  0.2193 -0.0817
95526W        W96390   8.010   2.753  17.675 -0.1890  0.0785  0.1321
95527W        W96391   1.934   4.585  26.565 -0.0065 -0.0630  0.2254
95528W        W96392   9.195  14.399  23.054  0.1409  0.1263 -0.1401
95529W        W96393   7.177  18.583  20.096  0.0125 -0.0004  0.3282
95530W        W96394  19.703  14.887  27.227  0.0686 -0.1297 -0.1899
95531W        W96395   2.837  14.124  15.310  0.0154 -0.1681  0.0409
95532W        W96396   8.197  24.989  19.042  0.0022  0.0969 -0.3019
95533W        W96397   3.826  22.317   5.567  0.0483  0.4245 -0.0031
95534W        W96398  18.774  22.864  27.958 -0.3009  0.2429  0.3174
95535W        W96399  11.356  12.358  15.434  0.1446 -0.1935 -0.2858
95536W        W96400  14.885  24.156  16.613  0.0478  0.0167 -0.0525
95537W        W96401   0.081  12.317  14.992  0.1302  0.0676  0.0291
95538W        W96402  23.515  22.856   2.862  0.1688  0.1340 -0.0156
95539W        W96403  25.151   9.624  25.433  0.1370 -0.0205  0.0386
95540W        W96404   1.706  25.717  22.734 -0.2856  0.3472  0.1707
95541W        W96405   2.520   4.164  16.927 -0.0846 -0.0381  0.2333
95542W        W96406  14.157  16.427   3.689  0.1625 -0.0864 -0.1871
95543W        W96407  23.214   0.285  28.499  0.1582  0.1282  0.2364
95544W        W96408  18.809   2.936   6.584  0.0843 -0.0312  0.0358
95545W        W96409   5.147  10.391  28.037  0.2405 -0.0350  0.1930
95546W        W96410  22.386  18.802  19.223 -0.0057  0.1597  0.0020
95547W        W96411  15.198  15.931  17.804  0.3479 -0.2163  0.1726
95548W        W96412  16.546   0.833  23.476  0.2256 -0.1503 -0.1764
95549W        W96413   5.460  16.643  13.549  0.2036  0.0213  0.1225
95550W        W96414  20.682  21.755  23.853 -0.2150 -0.0197 -0.2246
95551W        W96415   8.274  15.461  22.685  0.1229  0.1764  0.1070
95552W        W96416   2.188  18.093  19.883  0.0996 -0.2759  0.1828
95553W        W96417   7.623  13.690  11.664  0.2144 -0.2381 -0.0612
95554W        W96418  16.049  11.436  28.084 -0.5348 -0.0164 -0.1506
95555W        W96419  23.128  21.794  27.773 -0.0483  0.2622 -0.2358
95556W        W96420   3.845   1.190   3.303  0.1748  0.0600 -0.3407
95557W        W96421  10.886  19.329  20.890  0.0140 -0.2105 -0.1714
95558W        W96422  21.415  15.533  19.658  0.1585 -0.1087 -0.0725
95559W        W96423   7.287  15.859   1.715  0.2309  0.2093  0.0158
95560W        W96424  24.552  18.701   3.357  0.1057 -0.0511  0.3912
95561W        W96425  27.256  24.156   5.940 -0.2326 -0.1501 -0.1051
95562W        W96426   9.506  11.912   9.374  0.0962 -0.3800 -0.1892
95563W        W96427  23.858   4.280  28.674 -0.0673  0.1115 -0.2145
95564W        W96428   4.846  23.236  28.071 -0.0454 -0.0738  0.0744
95565W        W96429   1.924  10.260  25.424  0.0168  0.1152  0.0111
95566W        W96430   0.571  14.001  16.389 -0.0183 -0.0296  0.0092
95567W        W96431  28.360   0.178  26.892  0.3587 -0.0289 -0.1612
95568W        W96432  27.862  12.394  22.559  0.3776  0.0511 -0.2219
95569W        W96433  28.488  19.763  22.667 -0.1459  0.1735 -0.2529
95570W        W96434  19.698   2.894  25.344 -0.1807 -0.0197  0.2138
95571W        W96435   6.944  21.347  16.039 -0.1121 -0.1279  0.0246
95572W        W96436  21.254  11.672   0.327  0.2130 -0.0146 -0.0183
95573W        W96437  13.533  28.394   5.010  0.0648  0.0770 -0.1324
95574W        W96438  17.346  24.461  20.015 -0.1438 -0.1978  0.4271
95575W        W96439  13.879   5.495   8.599  0.0253  0.1726  0.2748
95576W        W96440  24.478  21.267  24.768 -0.1647 -0.1944 -0.3442
95577W        W96441   9.133  25.404  22.970  0.1309  0.0837  0.2114
95578W        W96442  19.143   6.681  11.411 -0.4570  0.1635 -0.3714
95579W        W96443  19.395  12.125   2.171  0.0726  0.0431  0.0474
95580W        W96444   8.319  27.254  21.655  0.0885 -0.1253  0.0405
95581W        W96445  19.366  23.616   6.571  0.1699 -0.3607 -0.1685
95582W        W96446  14.232  20.950   7.406  0.1280  0.2860 -0.0728
95583W        W96447  26.261  16.892   0.109 -0.2536  0.0307 -0.0339
95584W        W96448  24.203   8.954  22.941 -0.0661 -0.2511 -0.1973
95585W        W96449  18.817  19.224   5.759 -0.0623  0.1653  0.1298
95586W        W96450  22.848  14.966  11.900  0.1789  0.1898  0.0647
95587W        W96451  12.053  13.318  26.094  0.0612  0.0120 -0.1576
95588W        W96452  19.572  14.130  20.753 -0.1225 -0.0026 -0.1844
95589W        W96453   0.506  27.948  16.865 -0.1616  0.2807  0.0419
95590W        W96454  10.410  11.183  23.679  0.3620  0.2326 -0.3005
95591W        W96455   0.587  20.765  11.373 -0.5157  0.3204  0.1379
95592W        W96456   6.177  17.850  16.652  0.3931  0.1578  0.0188
95593W        W96457  17.795  17.526  15.874  0.0948  0.1050  0.1365
95594W        W96458  14.751  14.505   7.007  0.0993 -0.1988 -0.1482
95595W        W96459  23.887  25.797  11.600  0.1505  0.3053 -0.0130
95596W        W96460  18.669  19.453  17.548 -0.2484  0.1896 -0.3273
95597W        W96461  22.935  14.542  11.219 -0.0962 -0.3213  0.0944
95598W        W96462   4.606  21.120  24.201  0.2300  0.1032  0.1803
95599W        W96463   5.672  13.846  10.070 -0.0748 -0.0243  0.1159
95600W        W96464   9.414  15.562  11.757  0.3140  0.3243  0.1206
95601W        W96465   0.038  25.255  17.932  0.0512  0.0645  0.2297
95602W        W96466  20.947   8.150   1.797 -0.1199  0.0166 -0.1152
95603W        W96467   8.957  11.963   7.659 -0.1727  0.0231 -0.0780
95604W        W96468  28.525   5.214  20.921  0.2127 -0.1301 -0.0693
95605W        W96469  19.506   2.694  14.842 -0.0107 -0.0926  0.3755
95606W        W96470  22.196  12.008   9.125 -0.3045  0.0702  0.1337
95607W        W96471  10.576  16.261   1.789 -0.0884 -0.1903  0.0608
95608W        W96472   7.593  12.712  23.428 -0.1505  0.2272 -0.3175
95609W        W96473  27.177  15.495   0.090 -0.1906 -0.2116 -0.0695
95610W        W96474  24.080  18.093  10.293  0.1134 -0.0008  0.2713
95611W        W96475  17.647   4.256  10.975 -0.1840 -0.0837 -0.0267
95612W        W96476   1.321  11.118  24.536 -0.1272 -0.0727 -0.2359
95613W        W96477  10.176  24.166  23.542 -0.2958 -0.0826 -0.1614
95614W        W96478  15.880   7.712  10.134  0.0408 -0.0136  0.0678
95615W        W96479   3.115  10.144   0.095  0.1400  0.0879 -0.1737
95616W        W96480   7.956  11.822  12.914 -0.3847  0.1085  0.0694
95617W        W96481   6.948  16.384  15.256 -0.2325  0.1066 -0.1197
95618W        W96482  16.298  28.794  12.034 -0.1443 -0.0024 -0.0962
95619W        W96483   7.436  19.172   5.581  0.0114 -0.2436 -0.1265
95620W        W96484   5.157  19.195   9.802 -0.1361  0.0035 -0.1634
95621W        W96485  15.292   4.262   1.861 -0.1999  0.1729  0.2394
95622W        W96486  12.252   6.901   8.413  0.2170 -0.4038 -0.0580
95623W        W96487   9.825  22.284   0.048 -0.1189 -0.2808 -0.0920
95624W        W96488  10.494  25.452  11.451  0.1729  0.0096 -0.2032
95625W        W96489   9.104  25.459  11.150 -0.2163  0.0138 -0.1917
95626W        W96490   6.903   1.006  12.885 -0.0335 -0.0061 -0.2765
95627W        W96491  26.923   0.581  19.408  0.0159 -0.1587 -0.2208
95628W        W96492  12.383  23.190   1.946 -0.0194  0.0299 -0.1777
95629W        W96493  19.566  28.501  20.944 -0.2894 -0.1877 -0.1578
95630W        W96494  26.205  17.590   6.430 -0.1497 -0.2435 -0.0953
95631W        W96495  14.048   5.461  27.537  0.1327 -0.2919 -0.2653
95632W        W96496   9.396  26.031  13.336  0.3776  0.1135 -0.2258
95633W        W96497   4.244   2.258  23.739 -0.0404  0.3673 -0.1826
95634W        W96498  12.178  19.016  23.005 -0.0661 -0.1159  0.1121
95635W        W96499   8.456  22.745  15.100 -0.0719 -0.2756 -0.0049
95636W        W96500   3.101   8.304  11.396 -0.1222  0.1623 -0.0121
95637W        W96501   5.193  25.736  25.391  0.1217 -0.0425  0.0436
95638W        W96502   9.373  18.446  26.774  0.2162 -0.0626  0.0400
95639W        W96503   8.863   0.851  19.756 -0.0526  0.0004 -0.2689
95640W        W96504   3.520   4.150  24.941 -0.2459  0.0688 -0.0915
95641W        W96505   4.700   4.729   1.973  0.0083 -0.1746 -0.3805
95642W        W96506   7.718  23.262  14.712 -0.0266 -0.0080 -0.1238
95643W        W96507  28.746   6.300   3.655 -0.1457 -0.1385  0.1080
95644W        W96508  16.087   2.257  21.217 -0.2346 -0.3097  0.0094
95645W        W96509  22.537   3.657  23.339 -0.2006  0.0774  0.1334
95646W        W96510  17.459   8.801  23.854  0.1568  0.0951  0.1503
95647W        W96511  15.013  24.031  23.890  0.0143  0.0501 -0.0302
95648W        W96512   3.864  12.435   7.318  0.0743 -0.1509  0.1385
95649W        W96513  26.049  18.247  25.148  0.1574  0.0263  0.1464
95650W        W96514  18.723  15.336  19.949 -0.3570 -0.2839  0.0345
95651W        W96515   0.719  11.888  21.261 -0.0469  0.2755 -0.0604
95652W        W96516   1.717  17.000  24.488 -0.2748 -0.0345  0.0687
95653W        W96517   9.509  23.790   7.630  0.0038  0.2032 -0.1154
95654W        W96518  10.858  28.546   9.916  0.2065 -0.2290 -0.2157
95655W        W96519  16.140   2.424  17.390 -0.0592  0.2428  0.2694
95656W        W96520  18.837  19.552   7.655  0.2340  0.3910 -0.1212
95657W        W96521  14.177   7.943   0.765  0.4640 -0.2140 -0.0410
95658W        W96522  20.536  17.532  26.991 -0.3198  0.2119 -0.1121
95659W        W96523   8.041  19.975  17.448 -0.0052 -0.0712 -0.1049
95660W        W96524   9.319  25.794  20.270  0.1418  0.0316 -0.2705
95661W        W96525   9.839   3.278  13.523 -0.2317  0.2489  0.0920
95662W        W96526  14.182   6.704  18.300  0.1401 -0.0323  0.1735
95663W        W96527   4.808  26.504  10.073 -0.2193  0.0123 -0.0588
95664W        W96528  26.300  26.489  27.067 -0.2036 -0.2422  0.0243
95665W        W96529  14.867   2.873   9.860  0.1538  0.0908  0.0603
95666W        W96530  12.089  22.886  11.579  0.1552 -0.0305 -0.1344
95667W        W96531   8.450  23.746   1.554  0.1014  0.1284  0.1604
95668W        W96532   6.986   9.875  10.298 -0.2769 -0.0058 -0.0279
95669W        W96533  10.470  20.698  27.077 -0.0565  0.0101  0.1178
95670W        W96534   0.546  13.784  13.149 -0.0283  0.0180  0.3087
95671W        W96535  16.415   4.941  17.874  0.0956 -0.0941 -0.3003
95672W        W96536   1.062   3.658   2.069  0.0945 -0.1256  0.1525
95673W        W96537   0.101  22.101  17.328 -0.1144 -0.2439 -0.2600
95674W        W96538  21.183  11.960   6.047 -0.2626 -0.0571 -0.2322
95675W        W96539  17.883  22.315  11.699  0.0874  0.1379 -0.0412
95676W        W96540  12.917  15.594  10.413  0.0967  0.2311  0.2716
95677W        W96541   4.552  19.416  24.192 -0.0681 -0.2557 -0.2975
95678W        W96542   5.916   4.672  26.789 -0.0661 -0.0782  0.1428
95679W        W96543  12.214  22.680  13.221  0.4182  0.0196  0.0594
95680W        W96544  11.125  21.011  12.452 -0.0947 -0.0488  0.0871
95681W        W96545  22.830  10.415  13.351 -0.0914 -0.0325 -0.1075
95682W        W96546   3.664  24.891   0.546  0.1577 -0.4171  0.1483
95683W        W96547  14.871  14.678  28.593 -0.0643 -0.0748  0.0931
95684W        W96548  23.803  18.823  24.482  0.1730 -0.1922  0.0006
95685W        W96549  21.186  13.124   1.863  0.2867 -0.0222 -0.1989
95686W        W96550   8.009  27.800   8.235  0.0017 -0.4540  0.0542
95687W        W96551  13.600  25.355  19.634  0.2715 -0.2922 -0.3332
95688W        W96552  23.697   7.010  19.500 -0.3046  0.0344  0.3370
95689W        W96553  22.395  14.165  19.856 -0.0229 -0.1229 -0.1375
95690W        W96554  25.584  12.251  14.255 -0.0709 -0.0623  0.1827
95691W        W96555   0.833   0.606  17.336 -0.1742  0.0819  0.1974
95692W        W96556   0.611  24.474  14.822  0.0971  0.0940 -0.2334
95693W        W96557  16.968   1.771  23.464 -0.3634  0.1796  0.2147
95694W        W96558  20.901   9.653  18.360  0.1931 -0.1734  0.3170
95695W        W96559  19.816   1.248  23.614  0.1080  0.0504 -0.1471
95696W        W96560  19.210  14.147   5.415  0.4305 -0.3105 -0.2064
95697W        W96561  14.351  27.532   0.711 -0.2310  0.0058  0.2242
95698W        W96562  11.871  14.650  24.189  0.3274  0.1792  0.0930
95699W        W96563  22.234  18.930   7.145  0.1780 -0.0294 -0.3151
95700W        W96564   5.886  22.778  21.292  0.3667  0.0578  0.1072
95701W        W96565   0.542  11.531  27.354 -0.2023  0.0039  0.0549
95702W        W96566  10.161   8.634  25.148  0.0190 -0.0316  0.0487
95703W        W96567   8.185   0.362   2.340 -0.1857  0.1021  0.1863
95704W        W96568   6.823   3.525  11.748  0.2216  0.3324  0.0897
95705W        W96569   5.968  20.734  21.876  0.1917 -0.0066 -0.0584
95706W        W96570  26.553  14.504  11.594 -0.2071  0.0893  0.0885
95707W        W96571  13.267   2.993   5.634  0.3233 -0.0738  0.1971
95708W        W96572   4.902  18.586  24.452  0.1190 -0.3468  0.0567
95709W        W96573  18.569  10.029   3.453 -0.1507 -0.1028  0.3410
95710W        W96574  21.470  24.900  14.486 -0.3033 -0.0563 -0.0964
95711W        W96575  28.974  21.884  19.375 -0.1116 -0.3635  0.0167
95712W        W96576  14.448  13.265  11.339 -0.3542  0.3460  0.0031
95713W        W96577  14.340   9.110  15.253  0.0150 -0.1379 -0.1803
95714W        W96578  26.197  11.810   4.216  0.3365 -0.1941  0.1996
95715W        W96579  23.683  19.174  13.013  0.1493 -0.0593  0.4203
95716W        W96580  24.221   9.279  15.673 -0.2057 -0.3004 -0.0137
95717W        W96581  22.917  19.910  28.250  0.0084  0.1281 -0.1211
95718W        W96582  21.425  11.170   0.460 -0.1465 -0.1187 -0.1055
95719W        W96583   6.322  20.486   0.013 -0.1094 -0.1049 -0.2997
95720W        W96584  20.324  22.215  10.866 -0.2405 -0.0520 -0.2486
95721W        W96585  12.950  15.920  26.224  0.1534  0.2541 -0.1137
95722W        W96586  24.639  17.036   2.064 -0.2468  0.0261 -0.2150
95723W        W96587  19.072  24.097  21.959 -0.0867 -0.1013  0.1042
95724W        W96588   0.162   0.267   0.154  0.0345  0.2680  0.0155
95725W        W96589   8.222  26.261  18.740  0.0801 -0.1749  0.1658
95726W        W96590   5.391  18.041  22.509  0.1292 -0.2734 -0.0235
95727W        W96591  10.535   1.875  13.947 -0.0883 -0.1026  0.0578
95728W        W96592  11.860  17.945  17.972  0.0794 -0.3454 -0.1469
95729W        W96593   7.048   2.805   5.606 -0.2538 -0.0665  0.3454
95730W        W96594  22.429  17.829  19.252 -0.2552 -0.1247 -0.0261
95731W        W96595  23.566  22.984  19.169  0.1836  0.0250  0.3130
95732W        W96596  18.332   3.367  16.039 -0.0085 -0.0893  0.3551
95733W        W96597   6.666   1.256  28.653  0.1898 -0.1026 -0.3015
95734W        W96598  25.656  11.026   3.937 -0.1787  0.2639 -0.3943
95735W        W96599   5.092   8.135  22.561  0.0058 -0.0428  0.3223
95736W        W96600  18.577  13.086  19.188  0.3663  0.0137  0.1781
95737W        W96601   8.884  25.791  26.416  0.0211 -0.3859 -0.1257
95738W        W96602  16.320  18.788  25.443  0.0755  0.1791 -0.0854
95739W        W96603  19.762   5.363   6.450 -0.0974  0.2774 -0.2009
95740W        W96604  14.604  16.329  16.429  0.0620 -0.2639 -0.0403
95741W        W96605  27.156   6.032  28.274  0.3685 -0.0816 -0.0589
95742W        W96606  25.370  27.233   1.434  0.2580  0.1179  0.4066
95743W        W96607  24.724  14.643  25.827 -0.1964 -0.2978 -0.1250
95744W        W96608   0.861  24.429   7.781 -0.1848 -0.1556 -0.0447
95745W        W96609   2.912  14.398  18.368 -0.1195 -0.2262 -0.1097
95746W        W96610   8.473  16.240  14.142 -0.0686 -0.0624  0.0027
95747W        W96611  10.507  17.529  12.564  0.0925  0.1429 -0.0349
95748W        W96612   4.179  26.224   9.421  0.1620 -0.2279  0.0924
95749W        W96613   4.252  11.350  23.487 -0.0485 -0.1527  0.0730
95750W        W96614   7.881  17.558  15.636  0.1885  0.2285 -0.0307
95751W        W96615   9.925  11.275  11.054 -0.1460  0.2168 -0.1245
95752W        W96616   9.842  12.547  22.789  0.1819 -0.1453  0.0747
95753W        W96617  28.182   2.670  21.299  0.0501  0.1328  0.0663
95754W        W96618   4.509   3.860   2.501 -0.1269 -0.0223  0.0744
95755W        W96619  13.334  24.125  21.292  0.2185  0.0343  0.0115
95756W        W96620  10.015  22.011   8.636  0.1342 -0.0942  0.0857
95757W        W96621  11.676  20.060  28.505 -0.3094 -0.1954  0.0170
95758W        W96622  12.564   0.957   3.452 -0.0010 -0.1915 -0.0389
95759W        W96623  27.422  20.027  24.561  0.2876  0.1031  0.2110
95760W        W96624  27.178  22.317  10.919 -0.1088  0.0142 -0.2114
95761W        W96625  17.924   2.624  23.910  0.0448 -0.0101 -0.0253
95762W        W96626   2.611  28.293   0.147  0.0065 -0.0331  0.0781
95763W        W96627   1.038  18.981  10.769  0.4215  0.1489 -0.0167
95764W        W96628  13.183   4.414   7.794  0.1816  0.1352 -0.3850
95765W        W96629  11.674   7.541  24.870  0.1348  0.0109 -0.1709
95766W        W96630   5.111   1.248  24.038 -0.0065 -0.1819 -0.2685
95767W        W96631  13.922   4.443  29.047  0.0383  0.1517 -0.0252
95768W        W96632  26.329  24.215  11.893 -0.0431 -0.0981  0.2739
95769W        W96633  22.537  14.977  23.803 -0.2483  0.2312  0.0585
95770W        W96634  12.172   1.869  27.073  0.2871 -0.1921  0.0720
95771W        W96635   7.586  14.354   1.054  0.2500 -0.0157  0.1795
95772W        W96636  27.926  17.497   5.432 -0.1558  0.0227 -0.0273
95773W        W96637   2.717   8.933  21.575 -0.0219 -0.3695  0.1362
95774W        W96638  13.963  15.919  11.862 -0.1193  0.0228  0.0005
95775W        W96639  12.921   7.121  23.968  0.1472  0.1576  0.0612
95776W        W96640  24.041  15.839  22.064 -0.0337 -0.0983 -0.1093
95777W        W96641  14.656  15.017  13.607 -0.0089 -0.2699  0.0465
95778W        W96642  19.777  28.728  21.405  0.2372 -0.2152 -0.0806
95779W        W96643   3.337  18.284  19.181 -0.1361 -0.0846 -0.2359
95780W        W96644  16.964  17.657  12.892  0.1099  0.3707 -0.0034
95781W        W96645   8.254   4.619   8.540  0.2466  0.3273  0.2163
95782W        W96646   9.905  10.705   3.884  0.1950  0.3068 -0.0698
95783W        W96647  12.945  15.437   8.370 -0.3692  0.0142  0.0003
95784W        W96648  19.329  13.686  18.481 -0.0483 -0.0351  0.1065
95785W        W96649   8.651  22.702   2.240 -0.0160  0.2323  0.1525
95786W        W96650  14.448  17.802  25.340  0.1128  0.2186 -0.0051
95787W        W96651  10.972  26.015  14.406  0.0446  0.4581 -0.0689
95788W        W96652  23.635   9.612   8.023  0.0139  0.2229 -0.2379
95789W        W96653   6.490  25.343  11.881 -0.2494 -0.1478  0.1906
95790W        W96654   3.535  26.506  20.455 -0.0074  0.1025 -0.2393
95791W        W96655   9.641  11.584  26.737 -0.0604  0.4074  0.0215
95792W        W96656  16.196  28.550  27.721 -0.4484  0.1667  0.2057
95793W        W96657  24.369  10.671  12.009  0.0740 -0.0370 -0.2946
95794W        W96658   2.954  28.506   7.178  0.1371 -0.1111 -0.2435
95795W        W96659  11.549  17.562  18.052  0.1292 -0.1030  0.0367
95796W        W96660   5.404   5.688   8.320 -0.0587  0.0708  0.1201
95797W        W96661  28.895  18.721  15.766  0.1583 -0.0174  0.0678
95798W        W96662  14.508   5.300  25.295 -0.1189  0.1279 -0.0684
95799W        W96663  24.742  16.188  27.138  0.2578  0.2749  0.1412
95800W        W96664  26.963  18.914  12.972  0.0484  0.0758  0.1046
95801W        W96665  15.764   9.533   9.955 -0.0500  0.5494  0.1015
95802W        W96666   7.974   7.362  20.505 -0.0471  0.2296 -0.1260
95803W        W96667  14.688  14.069  14.827  0.0634  0.2046 -0.3190
95804W        W96668   6.670  28.329  19.965  0.4089 -0.1830 -0.1013
95805W        W96669  16.665  11.834  19.318  0.0801 -0.3618 -0.0293
95806W        W96670   4.982   1.529   3.804  0.1591  0.1083 -0.1048
95807W        W96671  26.885   2.212  24.834 -0.2949  0.0219 -0.1898
95808W        W96672  20.654   3.510  16.949  0.1643 -0.0835  0.0386
95809W        W96673  10.475  25.142   8.190 -0.0815  0.0046 -0.0366
95810W        W96674  23.723  20.713  13.194  0.0592 -0.1218  0.1606
95811W        W96675  16.708   8.604   7.835 -0.0261  0.0960 -0.3527
95812W        W96676  12.036  19.647   7.396 -0.1672  0.2682 -0.1070
95813W        W96677  12.594   6.804   3.154 -0.3087  0.0475  0.2393
95814W        W96678  16.303  28.860  24.468 -0.2347 -0.2794  0.0299
95815W        W96679   9.228  26.208  26.209 -0.1766  0.1149 -0.1120
95816W        W96680  16.666  10.827  13.601  0.0283  0.1700  0.0886
95817W        W96681  13.056   0.316  13.602  0.0854 -0.1424 -0.0811
95818W        W96682  15.174  28.081   2.668  0.1654  0.1110  0.4027
95819W        W96683  22.017   1.499   4.213 -0.2651 -0.2857 -0.1256
95820W        W96684   6.273  17.530   8.877  0.0370  0.0418 -0.1063
95821W        W96685  15.776   0.536   0.796  0.0121  0.0144 -0.2491
95822W        W96686   3.498  15.981  25.468 -0.1899 -0.2862 -0.0101
95823W        W96687   9.944  19.290  25.038  0.0493 -0.0416  0.2414
95824W        W96688  14.246  23.858  19.758 -0.4769  0.2852 -0.1930
95825W        W96689  13.522  19.388  19.950 -0.0927 -0.0980 -0.2448
95826W        W96690  10.280  18.909  25.610  0.1580 -0.2387  0.1188
95827W        W96691   9.481  28.220  26.739  0.3035 -0.2364 -0.0851
95828W        W96692  12.913  15.087  20.692  0.0552  0.0229 -0.3192
95829W        W96693  21.868  25.118   0.822 -0.1953 -0.1669 -0.0377
95830W        W96694  11.148  27.487   8.871  0.1009  0.2294 -0.4239
95831W        W96695   9.622  10.057  23.676 -0.0027 -0.1048 -0.5032
95832W        W96696  10.570   3.623  11.778 -0.4970 -0.0652 -0.0893
95833W        W96697   2.843   1.371  28.444  0.0934  0.0062  0.0069
95834W        W96698   9.007  16.551  13.383 -0.2279 -0.0273  0.4086
95835W        W96699  13.706  24.731  25.578 -0.0695 -0.0381  0.0528
95836W        W96700  10.665   1.322  12.277  0.0638 -0.0508 -0.1307
95837W        W96701   7.363  10.156   7.784 -0.2198 -0.0538  0.1892
95838W        W96702  10.214   7.541   8.964 -0.2491  0.2740  0.3085
95839W        W96703  22.630  24.355  24.442 -0.2569 -0.0726 -0.0188
95840W        W96704  22.390  22.140  15.252 -0.2419  0.0736  0.1088
95841W        W96705  26.528   3.914  26.680  0.2431 -0.0744  0.1355
95842W        W96706   2.827  20.609   0.888  0.1406 -0.4088 -0.0287
95843W        W96707  17.103   1.147  26.542  0.0556 -0.1156 -0.3467
95844W        W96708   1.862   5.183   3.608 -0.0249 -0.3808  0.0794
95845W        W96709   7.971  16.501  14.232 -0.0956  0.4634 -0.0027
95846W        W96710   9.709  15.333   1.710  0.0333 -0.0800 -0.0336
95847W        W96711  27.568  23.088  18.172  0.1543  0.0102  0.0173
95848W        W96712  16.366  27.149  12.573 -0.0924 -0.2355 -0.0813
95849W        W96713   8.425  21.082   2.043 -0.1865 -0.0994  0.2799
95850W        W96714  14.626  11.734  11.697  0.0757 -0.0715 -0.2660
95851W        W96715   9.111  14.982  14.705 -0.0070  0.1516 -0.0137
95852W        W96716   9.763   2.657   6.846 -0.0347 -0.3510  0.0812
95853W        W96717   8.534   0.250   6.792  0.0489  0.1694  0.0898
95854W        W96718  24.005  25.934   9.388  0.0862  0.0640 -0.0272
95855W        W96719  14.336   5.152  17.128 -0.3090 -0.0743  0.1728
95856W        W96720  22.257   3.928  16.775 -0.1345 -0.1951 -0.0112
95857W        W96721  12.066   1.564   4.906  0.2564  0.1147 -0.1499
95858W        W96722  21.707   1.009   7.901  0.2353 -0.2450  0.1693
95859W        W96723  15.491  17.674  27.464 -0.0556  0.0131  0.0457
95860W        W96724  23.800  11.573  22.079  0.3582  0.3024 -0.0807
95861W        W96725   8.587  24.710  13.329  0.0983 -0.1360 -0.1036
95862W        W96726   5.775   5.761  27.188  0.1353 -0.3276  0.1576
95863W        W96727  13.957  14.342   0.147 -0.3358 -0.0254 -0.0402
95864W        W96728   5.430  16.781  18.721  0.0047 -0.1928  0.0184
95865W        W96729  16.131  12.715  25.942  0.2943  0.0120  0.5194
95866W        W96730  10.702   3.549   2.299 -0.0205  0.1706  0.2968
95867W        W96731  19.445  23.804  20.493  0.3190  0.1891 -0.0178
95868W        W96732   1.526  11.004   6.721  0.1708  0.0201 -0.2034
95869W        W96733  24.583   3.495  15.020 -0.1489 -0.3435 -0.0072
95870W        W96734   1.163   8.155   4.220  0.3203 -0.1523 -0.0962
95871W        W96735  16.976  28.938  16.883  0.2536  0.0148  0.1724
95872W        W96736  19.718  24.295   2.419  0.0778 -0.0125  0.1444
95873W        W96737  23.212   8.542  24.508  0.0210  0.3046  0.0994
95874W        W96738   9.288  22.713  23.800  0.0319 -0.2474 -0.0562
95875W        W96739   7.873  16.744  26.112  0.1706 -0.1059 -0.1127
95876W        W96740   5.381  14.169  19.567  0.1087  0.1461 -0.0555
95877W        W96741   4.076  25.922  23.432 -0.0055  0.0278  0.1978
95878W        W96742  11.973  21.861  15.292  0.2202  0.2300  0.0885
95879W        W96743   7.552  21.119   5.182  0.1042 -0.2681  0.0902
95880W        W96744  19.724  15.775  22.811 -0.0643  0.0244 -0.2605
95881W        W96745   3.390   1.096  24.939 -0.2727  0.0190 -0.0217
95882W        W96746  16.845  12.224  23.856  0.0944 -0.2379 -0.0569
95883W        W96747   2.518  26.281  23.255  0.1155 -0.0481 -0.1186
95884W        W96748   9.220  22.808  22.744 -0.1711  0.1829 -0.2658
95885W        W96749   7.434   6.177  27.256  0.0335 -0.1767  0.1009
95886W        W96750   9.944  28.243   3.529  0.2258  0.0478  0.0447
95887W        W96751  10.292  18.339   7.735 -0.0626  0.1029  0.2332
95888W        W96752   2.814   8.056  28.329  0.2322  0.0405 -0.2077
95889W        W96753  21.635  25.082  13.273 -0.0199  0.3151  0.1578
95890W        W96754   3.101  26.005  15.016  0.0266 -0.2011  0.0898
95891W        W96755  23.634  22.329  14.226  0.3158 -0.0524 -0.1109
95892W        W96756  24.966  15.961  21.065 -0.2055 -0.2112  0.0673
95893W        W96757   5.512   2.287  25.469  0.3006 -0.0056 -0.1149
95894W        W96758   8.913   3.812  13.527  0.0716  0.0730  0.0928
95895W        W96759  14.956  26.665  27.166 -0.0259 -0.0048 -0.1432
95896W        W96760  20.374  22.193  12.654 -0.0579 -0.1582  0.0853
95897W        W96761  11.120   1.002  12.167  0.1169 -0.1672 -0.0813
95898W        W96762  25.474  17.686  21.728  0.0602  0.1781  0.1389
95899W        W96763  13.546   9.417  14.114 -0.2174  0.1317  0.2097
95900W        W96764   4.185   7.644  27.927 -0.2452  0.0387 -0.1505
95901W        W96765  19.212  24.528  20.357 -0.0863 -0.0315 -0.0468
95902W        W96766   3.277   9.473  20.105  0.2924 -0.5516 -0.0668
95903W        W96767  26.246   6.375   0.755 -0.7071  0.2750  0.0614
95904W        W96768  12.151  13.224   2.321 -0.2042  0.0553  0.2172
95905W        W96769  20.641  18.150   7.633  0.3138 -0.0419 -0.1764
95906W        W96770  21.778  18.255  10.417  0.0922 -0.0996 -0.1940
95907W        W96771   6.804   2.641  18.230  0.1941 -0.0668  0.1770
95908W        W96772  11.614  22.973  18.860 -0.0874 -0.2630 -0.2329
95909W        W96773   4.599  23.173   8.099  0.2117  0.0577 -0.3341
95910W        W96774  25.367  11.802   6.544  0.0770 -0.1854 -0.0195
95911W        W96775   8.817  23.112  22.464  0.1998 -0.0695  0.1478
95912W        W96776  10.703   6.793   0.680 -0.1345  0.0177  0.1486
95913W        W96777  22.952   2.199   0.378 -0.1685 -0.1349  0.0071
95914W        W96778  21.991  10.557  22.068 -0.2384  0.0681 -0.0149
95915W        W96779  24.725  19.495  14.164 -0.4161  0.1702  0.0616
95916W        W96780  18.659  12.832  17.659  0.3084  0.0210 -0.0802
95917W        W96781   8.869  28.488  18.333  0.1017  0.1315  0.1648
95918W        W96782  28.714  20.402  17.775 -0.1550 -0.0761  0.0109
95919W        W96783  20.706  16.580  18.339  0.4123  0.2879 -0.1531
95920W        W96784  17.900  23.745  14.566  0.2867 -0.0889 -0.0767
95921W        W96785  19.817   4.850   8.604 -0.3452  0.0784 -0.1746
95922W        W96786  23.156  26.121  14.232  0.5355 -0.2214  0.0579
95923W        W96787  12.007  21.683   2.224 -0.0680  0.3217 -0.1042
95924W        W96788  19.809  27.803  21.815 -0.3519  0.1021 -0.0821
95925W        W96789  12.629  16.054  21.187 -0.0099 -0.0016 -0.0645
95926W        W96790   9.751  21.514  16.226  0.0254  0.1152 -0.1197
95927W        W96791  20.241  16.649  21.302  0.2827 -0.1573  0.0080
95928W        W96792   9.337  15.725  16.981 -0.0746  0.0920  0.1774
95929W        W96793   0.589  28.376   2.023 -0.1159  0.1814  0.0417
95930W        W96794  24.118  23.667   5.298 -0.1910 -0.0191 -0.0314
95931W        W96795   4.161  12.647   4.614 -0.1517 -0.0817 -0.0558
95932W        W96796  10.959  11.459  24.712  0.0516  0.0622  0.4414
95933W        W96797  14.687  25.744   1.976  0.1764  0.0003  0.2482
95934W        W96798  21.067  21.375  28.682  0.0735 -0.0752 -0.0905
95935W        W96799  15.110  26.166   4.214 -0.1549 -0.3264 -0.3708
95936W        W96800  17.049  23.330   1.794  0.1607 -0.1634 -0.1911
95937W        W96801  10.658  27.725   8.105 -0.3144  0.3462 -0.1418
95938W        W96802  15.716  19.965  22.544 -0.1304  0.2578 -0.0994
95939W        W96803   5.220   9.407  18.173  0.1500  0.5025 -0.0396
95940W        W96804  24.782  20.998   3.832  0.1096  0.0063  0.0127
95941W        W96805  10.137  15.624  23.280  0.0274 -0.3558 -0.0932
95942W        W96806  26.769  11.682  15.022 -0.1832 -0.2979 -0.0482
95943W        W96807  16.639  24.207   5.743 -0.0334 -0.0779  0.0162
95944W        W96808  12.269  18.681   5.248  0.0814 -0.0700  0.0441
95945W        W96809  10.540  19.300  13.247 -0.2683 -0.1019 -0.1512
95946W        W96810  25.711   2.099   7.681 -0.1416 -0.3205 -0.1788
95947W        W96811  27.182  15.860  10.948  0.3087  0.1736  0.0542
95948W        W96812   7.600  21.362   3.348 -0.1234  0.3976  0.0284
95949W        W96813  15.907  17.889   4.318 -0.1722 -0.0243 -0.0074
95950W        W96814  20.180  20.443   9.811  0.0409  0.3978  0.1885
95951W        W96815  11.379   1.335  26.559 -0.0105 -0.0362  0.2333
95952W        W96816   2.392  26.241   6.624 -0.0640  0.1183 -0.0721
95953W        W96817  10.752  25.843  21.733  0.3094 -0.4313  0.0712
95954W        W96818   8.173  17.682  17.893 -0.2109 -0.0968 -0.2233
95955W        W96819  11.690   6.918  24.995 -0.2505  0.0521 -0.0514
95956W        W96820  23.213  17.806   0.544  0.0464 -0.0180 -0.0754
95957W        W96821   3.130  12.482  18.305 -0.0875 -0.1763 -0.1421
95958W        W96822  21.636  18.059   9.458  0.0750  0.5224 -0.0779
95959W        W96823  25.954  22.756   8.265  0.0515 -0.0086 -0.1399
95960W        W96824  12.874  19.972   8.992 -0.3055 -0.0674  0.0364
95961W        W96825   4.489  17.431  15.465 -0.2462 -0.0141 -0.1684
95962W        W96826  23.246  15.011   4.454 -0.0791 -0.3162 -0.1927
95963W        W96827  17.428   1.960   7.771 -0.1809  0.0711 -0.0659
95964W        W96828   1.827   4.203  24.158 -0.0707 -0.5317  0.2902
95965W        W96829   5.838  22.816   0.985 -0.2409  0.1371  0.0236
95966W        W96830  11.164  23.365  14.947  0.0311 -0.2121 -0.2669
95967W        W96831   8.207   1.049   2.988  0.0189  0.0216 -0.0463
95968W        W96832   9.465   1.890  17.067  0.0201 -0.2168  0.0007
95969W        W96833  12.980  17.287  26.115  0.0266  0.2069  0.0916
95970W        W96834  14.626  18.090   6.518 -0.0398  0.4166  0.5230
95971W        W96835   0.731  18.282   0.821  0.0059  0.1607  0.1309
95972W        W96836   3.260  23.133  28.519 -0.1345 -0.1354  0.1015
95973W        W96837  28.811  12.792  22.173  0.0742  0.1096 -0.2271
95974W        W96838  16.613   7.841  14.740  0.0019 -0.0468 -0.0572
95975W        W96839   2.417  15.702  27.250  0.1528 -0.1733  0.0620
95976W        W96840  26.121  20.347  22.813 -0.1169 -0.1728 -0.0045
95977W        W96841  27.740  18.462  18.231  0.0152  0.1079 -0.0463
95978W        W96842  20.547  12.207  28.765 -0.0928 -0.0335 -0.0105
95979W        W96843  23.131  21.124  22.855 -0.2207  0.1272  0.0599
95980W        W96844   6.809   8.014   7.695  0.1586 -0.0649  0.2255
95981W        W96845  21.612  15.399  27.379  0.3605 -0.1065 -0.2056
95982W        W96846  23.255  19.108   1.602  0.3100  0.0582  0.1339
95983W        W96847  16.432  19.346  20.850  0.1214  0.2135  0.2663
95984W        W96848  19.931  25.339  24.938  0.2399 -0.2798 -0.0561
95985W        W96849  18.994  26.603  26.998 -0.2739  0.0255  0.1702
95986W        W96850  11.337  22.668  28.544  0.0675 -0.3614 -0.1757
95987W        W96851  14.664  20.299  13.356 -0.0884 -0.0099  0.0488
95988W        W96852   5.094  17.866   4.903  0.1508 -0.1318 -0.1176
95989W        W96853  18.599   2.886  15.994  0.2940  0.1613 -0.0333
95990W        W96854  15.239  14.409  25.557 -0.0311  0.1625  0.3651
95991W        W96855  19.085   6.183   3.864 -0.2573  0.2006  0.1128
95992W        W96856   0.945  22.920  20.281 -0.1156 -0.1728  0.1094
95993W        W96857   1.967  25.402   4.857  0.1702 -0.1079  0.1609
95994W        W96858  22.482  27.046   6.414  0.1342 -0.0789 -0.0806
95995W        W96859   5.920  28.270  23.715  0.0152 -0.0057 -0.1373
95996W        W96860  25.923  23.538  13.930 -0.0445  0.4670 -0.0988
95997W        W96861   7.760  17.617  23.384 -0.1061 -0.0811 -0.0695
95998W        W96862   7.750  14.406  22.648 -0.0412  0.0752 -0.0283
95999W        W96863  12.877   7.958   2.600  0.1699 -0.3312  0.0006
96000W        W96864  19.143  19.625  27.670 -0.1293 -0.1935 -0.3579
96001W        W96865  22.341  24.764  11.619  0.1517 -0.0148 -0.0922
96002W        W96866  23.421  28.056  11.340  0.0594  0.1109  0.1255
96003W        W96867   6.238  18.494   0.603 -0.1502  0.2373  0.1676
96004W        W96868  19.205  23.287   4.742  0.0420 -0.3506 -0.1116
96005W        W96869  13.245  25.514  16.115  0.1356 -0.1771 -0.1548
96006W        W96870   1.601   5.317  28.612  0.2633 -0.2300  0.0325
96007W        W96871  11.933  27.851  22.702  0.2002  0.0788 -0.2325
96008W        W96872   7.033  15.979  22.539 -0.0714  0.1996  0.0274
96009W        W96873   2.368  18.836   9.542  0.0236 -0.2530 -0.3611
96010W        W96874  27.323  15.547  16.627 -0.0019 -0.1362 -0.1016
96011W        W96875  25.276  24.936   9.728 -0.0457 -0.0489  0.0101
96012W        W96876  23.188  22.603  16.184  0.1252 -0.2423 -0.0029
96013W        W96877  26.668  15.253   2.066 -0.1421  0.0729  0.2851
96014W        W96878   8.057  16.870   2.493  0.0156  0.1333  0.0018
96015W        W96879  14.559   6.721  20.285 -0.1064 -0.0940  0.3618
96016W        W96880   9.678  11.531   2.673  0.0289  0.1538  0.2056
96017W        W96881   5.246  19.753  27.814 -0.2683 -0.2831  0.1409
96018W        W96882  23.792  20.959   8.812 -0.1031  0.2160 -0.1391
96019W        W96883  16.871  20.010   0.229 -0.3290  0.0296  0.0606
96020W        W96884   8.771  23.272  26.926  0.2027  0.2859  0.0397
96021W        W96885  15.311  21.211  21.270  0.1492 -0.2875 -0.0386
96022W        W96886   1.062  23.003   1.993  0.0001 -0.2845 -0.0037
96023W        W96887  23.076  15.640   9.155  0.2107 -0.3606  0.3377
96024W        W96888   3.838  18.597  16.425 -0.3285  0.1510  0.0546
96025W        W96889   8.007  23.235  18.092 -0.2236 -0.4006 -0.0077
96026W        W96890   9.015  26.349  27.957 -0.1713  0.1376  0.4688
96027W        W96891  25.014  18.585   1.619 -0.0218  0.2069  0.2733
96028W        W96892  11.010  22.285  26.663  0.1291 -0.0424  0.3251
96029W        W96893  28.315  13.296  26.996 -0.1890 -0.1230 -0.2180
96030W        W96894  28.213  21.092  16.476 -0.2037 -0.1128  0.1204
96031W        W96895  22.267   9.380   8.966  0.2102 -0.0925  0.0103
96032W        W96896  14.891  26.849  25.025  0.1686 -0.0399 -0.1863
96033W        W96897   0.534  19.126   1.453  0.1273  0.2098 -0.0846
96034W        W96898   3.697  22.016  12.153 -0.1448 -0.1440 -0.0894
96035W        W96899  13.935  12.496   3.387 -0.0299  0.1298 -0.2399
96036W        W96900   5.064   7.518  16.506 -0.1981  0.1955  0.0832
96037W        W96901   7.880  25.748  21.246  0.2852 -0.0146 -0.1721
96038W        W96902   7.949  27.293  20.387 -0.2375  0.0487  0.2470
96039W        W96903  22.250  22.111   0.452 -0.2120 -0.0090  0.1105
96040W        W96904   6.035  16.387  22.039  0.0115  0.1314  0.0367
96041W        W96905  16.078  23.774  11.760  0.1734 -0.0738  0.1047
96042W        W96906  16.732  12.967  28.436 -0.0264 -0.1656 -0.0834
96043W        W96907  18.230   8.169  10.543 -0.0181 -0.1104 -0.0910
96044W        W96908  24.551  24.929  10.294 -0.1053 -0.0605  0.1913
96045W        W96909  23.943  14.108   1.113  0.1211 -0.3034  0.0383
96046W        W96910  19.681  23.919  20.931 -0.2825  0.3362 -0.1529
96047W        W96911  14.108   4.664  10.796 -0.1145  0.1317 -0.0678
96048W        W96912  22.869   4.545  16.459  0.2475  0.2928  0.1805
96049W        W96913   4.490   1.443  14.053 -0.2091  0.0047 -0.2584
96050W        W96914  19.093  12.812  23.057  0.0160  0.0090 -0.2036
96051W        W96915  19.096   8.394   0.612 -0.0223  0.1966 -0.3193
96052W        W96916  14.698  17.928   4.873 -0.0618 -0.3459 -0.2194
96053W        W96917  25.856  19.834  27.686 -0.0374  0.0189 -0.0213
96054W        W96918   4.396  20.081  21.850  0.0173  0.0691  0.0215
96055W        W96919   8.453  28.017   5.675 -0.0727  0.2686 -0.1165
96056W        W96920  12.048   6.324   0.210  0.0200  0.0635  0.1104
96057W        W96921  16.008   2.076   4.217 -0.0896  0.0403 -0.0573
96058W        W96922   9.310  18.623  20.059  0.1717  0.1982  0.2461
96059W        W96923  14.595  14.851   4.885 -0.0571  0.1772  0.2933
96060W        W96924  10.372  27.729  11.920 -0.3597 -0.1014 -0.1314
96061W        W96925  14.885   1.181  16.630 -0.0245 -0.2306  0.5506
96062W        W96926   8.878  27.263   7.706  0.1394  0.4324  0.2455
96063W        W96927  14.117   3.403  10.723 -0.0975  0.0740 -0.0339
96064W        W96928  24.085  20.047  12.723  0.2923  0.0946 -0.0648
96065W        W96929  14.365  14.567  12.703 -0.1764 -0.3996  0.2631
96066W        W96930   8.088  15.783  20.935 -0.0324 -0.0149  0.0259
96067W        W96931  16.369   6.484  23.108  0.1630 -0.0280  0.3920
96068W        W96932  28.661  16.406  15.404  0.5008  0.2573  0.1001
96069W        W96933  18.062   9.325  10.917 -0.0936 -0.1202 -0.3850
96070W        W96934  19.086  12.525  28.995  0.0152  0.3003 -0.1201
96071W        W96935   2.376  17.050  27.828  0.4483 -0.0753 -0.0655
96072W        W96936   1.735  15.820  26.439  0.3159  0.1761 -0.2541
96073W        W96937  10.995  16.518   2.055 -0.0261  0.0592  0.1102
96074W        W96938  18.157  22.803  15.014 -0.0060  0.3131  0.2505
96075W        W96939  20.338  21.521  10.950 -0.1582 -0.3319  0.0541
96076W        W96940  11.023  22.638  21.833  0.3962 -0.1340 -0.2550
96077W        W96941  16.654   2.790  17.908  0.0957 -0.1934 -0.0694
96078W        W96942   0.874  25.004  19.582  0.1554  0.0796 -0.2888
96079W        W96943  25.847   7.851  23.564 -0.0811  0.3051  0.0516
96080W        W96944  11.918  14.384  12.287  0.0029  0.0442 -0.0734
96081W        W96945   7.116   8.497  16.783 -0.2146 -0.2538  0.0281
96082W        W96946  12.626   5.733  11.726 -0.1698 -0.1176  0.1230
96083W        W96947   1.081  24.713  17.263 -0.0704  0.1214 -0.3362
96084W        W96948   3.520  12.620  12.054  0.1308 -0.1319  0.0768
96085W        W96949   4.632  16.827   7.443 -0.2120  0.1646  0.1012
96086W        W96950  20.966  25.745  23.360 -0.1951  0.3323 -0.1333
96087W        W96951  20.834   9.305   8.718  0.0310 -0.3019 -0.2212
96088W        W96952  27.355   3.228  20.937  0.2128  0.4428 -0.1309
96089W        W96953  24.265  10.524  25.160 -0.0762  0.0368 -0.1434
96090W        W96954  18.110  13.173   2.330 -0.0263  0.1063  0.1056
96091W        W96955  16.286  26.181  15.036 -0.3010  0.4674  0.3332
96092W        W96956  13.435  27.390   6.042 -0.1931  0.0862  0.0125
96093W        W96957   3.731  27.407  20.765 -0.0894  0.4268 -0.0396
96094W        W96958  19.427  24.988   7.260  0.0389 -0.0390  0.2360
96095W        W96959  16.210  21.376  17.566 -0.0168 -0.2292  0.0225
96096W        W96960  14.419   5.178   4.684 -0.0567  0.2233 -0.1236
96097W        W96961  23.944   1.545   4.684  0.0291 -0.0942  0.0271
96098W        W96962   5.530   5.891  16.297 -0.0804 -0.1772  0.2007
96099W        W96963  12.542  27.620   8.153  0.0933 -0.0579  0.1061
96100W        W96964  21.456  27.221   7.857  0.4418  0.1961  0.2500
96101W        W96965   6.703   2.146  10.035 -0.2047  0.0220  0.1699
96102W        W96966   5.465  18.081   7.002  0.2071  0.0485 -0.0157
96103W        W96967   7.867  24.267  22.565 -0.1816  0.3250  0.1384
96104W        W96968  21.580   8.424  26.194 -0.1748 -0.1198 -0.0170
96105W        W96969  15.864  18.387  27.262  0.0298 -0.1416 -0.0067
96106W        W96970  25.629   1.206  12.095 -0.3015 -0.1606 -0.0724
96107W        W96971  25.028   9.548  28.287  0.2153 -0.5057  0.0649
96108W        W96972  19.853  12.816  17.112 -0.1155  0.0882 -0.0374
96109W        W96973  10.377  16.720  19.630 -0.0075 -0.4160  0.3650
96110W        W96974  20.504  17.449  11.554 -0.1917  0.1235 -0.1001
96111W        W96975   9.894  20.094  25.865 -0.1937 -0.0535  0.1790
96112W        W96976  19.856  22.081   8.051 -0.1484  0.0666 -0.0147
96113W        W96977  14.220   3.551  23.558  0.3504  0.0519 -0.2325
96114W        W96978  19.824  13.367  16.180 -0.0930 -0.5541 -0.2125
96115W        W96979  18.752  20.946   5.791 -0.0124 -0.2733  0.0857
96116W        W96980   9.760  24.201  18.069 -0.1350 -0.1292 -0.3211
96117W        W96981   9.094  22.934   7.340 -0.3119 -0.0944  0.4318
96118W        W96982   9.483  21.687  21.587 -0.1864 -0.2215 -0.1441
96119W        W96983  18.798   9.053  12.960 -0.0508 -0.4634 -0.1058
96120W        W96984  20.371  10.246  15.243 -0.1273 -0.1097  0.0762
96121W        W96985   9.854   9.920  22.202  0.0350 -0.1831 -0.2363
96122W        W96986  17.281   2.957  25.628  0.1725 -0.0627 -0.0377
96123W        W96987  14.257  18.384   8.228  0.0844  0.3713  0.1389
96124W        W96988   7.124   9.891  20.669 -0.2523 -0.1520  0.3571
96125W        W96989  14.903  19.756   6.434  0.1328 -0.1800  0.2788
96126W        W96990  22.288   9.671  10.345 -0.2121 -0.2488 -0.1673
96127W        W96991  20.369  15.510   9.214  0.2192 -0.1042 -0.0120
96128W        W96992   2.638   6.062  25.666  0.1350 -0.3035  0.1485
96129W        W96993  29.136  11.848  13.166 -0.1322 -0.2304  0.3352
96130W        W96994  19.909  28.274  28.336  0.1323 -0.0091 -0.3170
96131W        W96995   5.206  28.810   2.896  0.2943  0.1113 -0.0561
96132W        W96996   3.957  18.862  19.636 -0.1394 -0.0022  0.0773
96133W        W96997   6.725  14.681   1.694 -0.0106  0.1469  0.0450
96134W        W96998  24.173   8.005   2.650  0.4312  0.0406 -0.1629
96135W        W96999   8.056  21.685  27.204  0.2293 -0.0007 -0.0162
96136W        W97000   9.467   4.601  14.300  0.0838  0.0435  0.2637
96137W        W97001  14.715  14.679  16.286  0.1430  0.0112 -0.0215
96138W        W97002  15.049  24.661  22.876 -0.3091  0.2912  0.0384
96139W        W97003  14.838  25.147   4.503 -0.2078 -0.0958 -0.0227
96140W        W97004  13.215   5.473  25.839 -0.2647 -0.1438  0.1388
96141W        W97005   1.861  17.429  17.222  0.2605  0.1039  0.1579
96142W        W97006  10.296   3.530  28.998  0.2000 -0.1803  0.0332
96143W        W97007  18.436   0.131   6.806  0.0744  0.0049 -0.1514
96144W        W97008  28.251  25.324  16.069 -0.2506  0.1765  0.0643
96145W        W97009  19.067  27.755   5.296  0.0302 -0.0252 -0.0395
96146W        W97010  19.350  28.055   0.645  0.3071  0.0632  0.0397
96147W        W97011   6.246  21.231  28.634  0.0139  0.1176 -0.0025
96148W        W97012  20.286  26.678   9.331 -0.2730  0.0339 -0.1507
96149W        W97013  28.131  20.375   4.500 -0.0073  0.1152  0.0958
96150W        W97014  18.484  15.836   5.567 -0.0103 -0.1258  0.0117
96151W        W97015  13.922  28.473   2.440 -0.0404 -0.0710  0.0899
96152W        W97016  10.768  19.809  27.721 -0.2427 -0.0147  0.1318
96153W        W97017  14.935  23.837  21.020  0.0635  0.0844  0.0619
96154W        W97018  16.348  29.121  23.970  0.2645  0.3303  0.1063
96155W        W97019  13.261  28.628  21.779 -0.0584  0.1252 -0.0914
96156W        W97020  15.664   5.527  17.358  0.0614 -0.0035 -0.1166
96157W        W97021  10.092  23.815  26.907  0.1212  0.0759 -0.0466
96158W        W97022  18.989  20.990  15.647 -0.1057 -0.0272 -0.0749
96159W        W97023  18.968  17.151   6.632 -0.4204  0.0129  0.0807
96160W        W97024  14.811  14.266   3.669  0.0211 -0.1894  0.1284
96161W        W97025   5.829  23.885  25.215  0.2009  0.2149 -0.2528
96162W        W97026  23.324   0.708  24.498  0.2056 -0.2498  0.0874
96163W        W97027  10.842   4.730   4.907 -0.1311 -0.2713 -0.0324
96164W        W97028  18.785  23.332  14.113 -0.0210 -0.2204  0.4014
96165W        W97029  28.031   3.419  17.071  0.1307 -0.0306 -0.0433
96166W        W97030  15.595   3.627   9.749 -0.1652  0.1413 -0.2912
96167W        W97031  28.759   7.494  15.606  0.0512  0.2280  0.0586
96168W        W97032   8.696  16.073  26.791  0.2999 -0.0471  0.0227
96169W        W97033  20.281  14.894   8.651  0.0264  0.2144 -0.0382
96170W        W97034  27.531  29.072   1.606  0.1747 -0.0735  0.1884
96171W        W97035  13.657  20.268  20.243 -0.0641  0.1300 -0.0643
96172W        W97036  24.894  14.253  25.455  0.1381  0.1996  0.0251
96173W        W97037  27.162  14.582   0.384  0.1359  0.1178  0.0182
96174W        W97038  11.332  20.148  20.833 -0.2949  0.1746  0.0107
96175W        W97039  13.929  21.221  25.255 -0.2152  0.0643  0.2900
96176W        W97040   6.286  22.440  12.976 -0.2388 -0.1165  0.3450
96177W        W97041  12.133  18.522  24.476 -0.1656 -0.1531  0.1294
96178W        W97042   7.273  22.856   7.784  0.2228  0.0829  0.5030
96179W        W97043   0.756  20.463   0.566  0.0303  0.0673  0.4197
96180W        W97044  17.618  23.225  26.035 -0.1832 -0.0641 -0.2113
96181W        W97045  19.004  12.699   7.032 -0.5299 -0.1162  0.2166
96182W        W97046  26.174   9.695  12.830 -0.3785  0.1396 -0.1819
96183W        W97047   7.582  21.797   5.625 -0.0541  0.0771  0.1784
96184W        W97048   7.912   0.785   2.203  0.0213  0.1536  0.1231
96185W        W97049  13.742  27.597  11.868  0.1692  0.2165  0.0970
96186W        W97050  11.869  23.331  28.408 -0.1495 -0.1903  0.0866
96187W        W97051  27.025  27.853   1.479 -0.2217 -0.0259  0.1257
96188W        W97052   2.559  23.401   7.255  0.1950  0.2969 -0.0915
96189W        W97053   3.851  26.573   1.996 -0.1015  0.0836  0.0701
96190W        W97054  11.333   0.259  17.198  0.1627 -0.1475  0.0537
96191W        W97055  18.891  29.084  14.248  0.3018  0.2499 -0.1343
96192W        W97056  14.243   2.909  28.340  0.1393 -0.0621 -0.0719
96193W        W97057  26.050   6.481  10.486  0.4143  0.0315 -0.4312
96194W        W97058  27.493  22.176  22.734  0.3111 -0.1109  0.1973
96195W        W97059  15.392  23.163   2.611 -0.0323 -0.1329  0.2598
96196W        W97060  10.237  24.440  22.226  0.0017  0.1031  0.1536
96197W        W97061  27.619  23.310   1.040  0.0954 -0.0165 -0.3438
96198W        W97062   7.108   3.380   7.587  0.0580 -0.0375  0.1334
96199W        W97063   9.964  20.978   4.537  0.0803 -0.2807  0.1767
96200W        W97064  13.079  24.818  16.946  0.0134  0.0869 -0.3500
96201W        W97065   8.995  28.397  14.357 -0.0329  0.2177  0.1274
96202W        W97066   9.974  27.276  11.920 -0.0061 -0.3242  0.0400
96203W        W97067   0.201  27.444   8.577  0.3292 -0.1167 -0.1017
96204W        W97068  17.822  10.010  28.253 -0.1063  0.4575  0.0746
96205W        W97069   3.830  28.460   0.094 -0.0361 -0.1614 -0.0439
96206W        W97070  14.449   8.932  23.602 -0.0370 -0.1655  0.0896
96207W        W97071   5.554   0.347  11.028 -0.2219 -0.0117 -0.2741
96208W        W97072  20.681  24.500   0.027 -0.0717  0.0086 -0.2049
96209W        W97073  22.603  21.195  26.295 -0.0432 -0.0533  0.0739
96210W        W97074   6.233   6.139   0.236 -0.1731 -0.1581 -0.1248
96211W        W97075  11.761  21.860  12.583 -0.1271  0.1869  0.3875
96212W        W97076  18.117  22.458  27.718 -0.1574 -0.2159 -0.0289
96213W        W97077  24.353  22.082  15.388 -0.3157  0.2326  0.2190
96214W        W97078   6.214  24.213   9.129 -0.0974  0.1955 -0.1055
96215W        W97079  24.099   6.307   5.727  0.1173  0.4026 -0.0343
96216W        W97080  18.235   5.707   7.814 -0.1020  0.1492 -0.1594
96217W        W97081  13.985  18.602   2.458 -0.2372 -0.1841  0.0393
96218W        W97082   6.934  24.342  14.159  0.0465  0.4218  0.1100
96219W        W97083  27.083  20.000  28.570 -0.0299  0.1757 -0.1373
96220W        W97084  11.442   3.222   3.175  0.2388  0.0874  0.2330
96221W        W97085  12.785  24.021  23.725  0.2372  0.2289  0.2820
96222W        W97086  25.165  22.097  26.635  0.1047  0.3847  0.0807
96223W        W97087  14.485  23.035  27.808 -0.2329  0.0308  0.1352
96224W        W97088   1.772   1.339  18.296 -0.2289  0.0390 -0.0626
96225W        W97089   5.813   0.366   7.896 -0.0979 -0.0612 -0.1495
96226W        W97090  14.678  24.372   4.552  0.0062 -0.2022 -0.4517
96227W        W97091   2.842  24.996  23.967 -0.3584  0.0111 -0.3299
96228W        W97092   3.730  20.066  28.787 -0.0253 -0.1468  0.1125
96229W        W97093  23.571  20.730  21.828  0.0659 -0.0737  0.3102
96230W        W97094  11.915  12.608   7.711  0.2367  0.1381 -0.1316
96231W        W97095   4.651   0.981  12.402 -0.1130  0.3290 -0.0959
96232W        W97096   9.068  16.143  18.062 -0.1734 -0.1902 -0.0385
96233W        W97097   5.391  27.730   4.929 -0.0301 -0.2242  0.0729
96234W        W97098  18.199   6.174  14.920  0.0338  0.0703  0.1583
96235W        W97099  25.044  21.127   3.425  0.3628 -0.0346 -0.1206
96236W        W97100  10.809  23.424  14.568 -0.2060  0.1404 -0.0785
96237W        W97101   7.202   7.814   1.241 -0.1458 -0.1239  0.0917
96238W        W97102  16.549   2.011  25.576  0.0070  0.1276  0.1725
96239W        W97103  15.101   2.598  16.821  0.1117 -0.1510  0.0220
96240W        W97104  20.236  22.695  16.927 -0.0385 -0.0998  0.0684
96241W        W97105  24.349   3.605   1.484  0.0767  0.0256 -0.0965
96242W        W97106  11.707  13.206  15.949  0.1588 -0.2258  0.0151
96243W        W97107  23.215   7.940  27.269 -0.1976 -0.0625 -0.4494
96244W        W97108  17.829   2.942  14.668 -0.2625  0.1158 -0.0471
96245W        W97109   0.178  13.429  15.932  0.1073  0.0717 -0.0413
96246W        W97110   8.217   2.975  27.965 -0.1382  0.1521 -0.1164
96247W        W97111   4.013  28.416   6.976 -0.1999 -0.2352 -0.0663
96248W        W97112  15.976  26.542  11.331 -0.1421  0.1236 -0.3242
96249W        W97113  12.164   4.304   5.949  0.2433  0.0090  0.1130
96250W        W97114   1.395  15.114  10.186  0.0342 -0.3113  0.2778
96251W        W97115  16.991  13.778   2.341 -0.0372  0.0252  0.2014
96252W        W97116  16.289   1.338  27.436 -0.0475 -0.1535 -0.1654
96253W        W97117   6.199  17.986   2.206  0.4429 -0.2426  0.1476
96254W        W97118   1.497  12.686  10.274 -0.1558  0.0981 -0.0418
96255W        W97119  18.279  28.382   5.518 -0.2505 -0.1465  0.0059
96256W        W97120  15.373  11.881  24.073 -0.2569 -0.3332  0.0846
96257W        W97121  26.087   5.552  27.157  0.0265  0.2266 -0.0122
96258W        W97122   8.547  26.487  27.130 -0.0049 -0.0277 -0.1669
96259W        W97123  18.157  10.036  22.324  0.1123  0.1341  0.1973
96260W        W97124  20.724   5.024  13.533 -0.4596  0.0773 -0.2142
96261W        W97125   7.421  19.894  11.277 -0.1286 -0.2716  0.1293
96262W        W97126  11.189  13.936   3.157  0.0639  0.0288  0.0021
96263W        W97127  10.264   4.909  11.173  0.5913  0.1513 -0.0291
96264W        W97128   4.578  17.437  28.385 -0.4632  0.0593  0.0676
96265W        W97129   1.947  22.562  24.929 -0.2752 -0.1709  0.1591
96266W        W97130  14.901   4.335   7.729 -0.2129 -0.0242 -0.0423
96267W        W97131  17.557   0.592   1.173 -0.1554  0.2166 -0.0499
96268W        W97132  15.844  11.395  14.542 -0.1009 -0.0703  0.1213
96269W        W97133   8.451  27.604  12.388 -0.0464  0.0940 -0.0917
96270W        W97134   1.006  12.113  14.545 -0.2460 -0.0905 -0.0137
96271W        W97135   6.107   3.108   6.822 -0.0586 -0.3802  0.3049
96272W        W97136  22.414   9.209   6.708 -0.0386  0.0605 -0.0988
96273W        W97137  19.111  19.052  28.976 -0.0986  0.2164  0.2977
96274W        W97138  11.854   2.262  22.018 -0.1826 -0.0041 -0.1846
96275W        W97139  19.520  20.246  23.355  0.1719  0.2609  0.0468
96276W        W97140  20.481  16.090  13.058  0.2244 -0.1825 -0.2166
96277W        W97141  23.304  22.940   4.706  0.2812 -0.1259 -0.0735
96278W        W97142   4.342   2.479  22.741  0.0718  0.0518  0.1028
96279W        W97143  13.792   2.684  22.716 -0.1215  0.1795 -0.0325
96280W        W97144  13.988  16.937  25.493  0.2569 -0.1367  0.0112
96281W        W97145  11.198  13.874  20.641  0.2493 -0.0948 -0.0638
96282W        W97146  10.673   6.772   6.064 -0.2490  0.0145 -0.0591
96283W        W97147   8.227  26.800   4.842  0.0791 -0.1799  0.1931
96284W        W97148  14.089   1.220   4.564  0.1960  0.1173 -0.0405
96285W        W97149  14.240   4.606  21.671 -0.2988  0.0078 -0.0871
96286W        W97150  12.285   9.227   9.643 -0.4216 -0.0560 -0.0750
96287W        W97151  14.490  11.791   6.968 -0.0838 -0.1985  0.0955
96288W        W97152  13.603   6.690   6.018  0.3299  0.0447 -0.0943
96289W        W97153  27.317  18.425  27.108 -0.2289 -0.3126  0.3537
96290W        W97154  11.439  24.236   0.691  0.3474  0.0524  0.1753
96291W        W97155  14.776   0.785  10.009 -0.0199 -0.1799 -0.1123
96292W        W97156   4.506  22.954  22.768  0.1358  0.0507 -0.0055
96293W        W97157   9.983  22.495   7.845 -0.3355  0.1313 -0.0193
96294W        W97158  27.220  22.965  12.665 -0.0926 -0.2060  0.0717
96295W        W97159  28.671  12.395   4.279  0.0410  0.0389  0.0361
96296W        W97160  27.563  26.890   1.019 -0.0129  0.0628 -0.1359
96297W        W97161   0.503  20.522  21.928 -0.2060 -0.1189 -0.0947
96298W        W97162   1.243   4.582  26.628  0.0391 -0.2203 -0.1753
96299W        W97163  25.301  18.048  23.400 -0.0923 -0.2092  0.0007
96300W        W97164   9.946  24.822   7.335 -0.1207  0.1390  0.1099
96301W        W97165   2.938  19.395   1.292 -0.2673 -0.0834  0.0988
96302W        W97166   2.696  25.507  22.921 -0.0070 -0.0331  0.0469
96303W        W97167   5.992   0.270   2.067  0.1380 -0.2526 -0.1663
96304W        W97168  16.789  25.435   6.053  0.4082 -0.0109 -0.2203
96305W        W97169  22.394  27.631  26.665  0.2753  0.1000  0.0264
96306W        W97170   8.869  20.495   8.988  0.2129  0.0308  0.1994
96307W        W97171  12.687  23.753   8.546 -0.0986  0.0847 -0.0414
96308W        W97172  18.270  15.654  28.021  0.3534  0.1470  0.2105
96309W        W97173   1.275  21.637   5.391 -0.0985  0.0652 -0.0786
96310W        W97174   0.944  21.523  27.943  0.0201 -0.1719 -0.0239
96311W        W97175   8.514   3.273  14.719  0.2686  0.2634 -0.0452
96312W        W97176  13.612  13.046  12.704 -0.2994 -0.2455 -0.0472
96313W        W97177  12.048  20.992   5.687  0.0443 -0.1293 -0.0947
96314W        W97178   9.431  23.686   2.895 -0.2125 -0.1854  0.0930
96315W        W97179  19.052   1.911  25.777  0.4050  0.1060 -0.0324
96316W        W97180  18.570  15.509  27.234  0.3681  0.3221  0.2180
96317W        W97181  27.232  28.391  14.502  0.0955  0.0510 -0.0767
96318W        W97182  17.657  27.161  19.799 -0.2549 -0.0367 -0.0039
96319W        W97183   7.084  22.028   3.641  0.0682 -0.0366  0.0494
96320W        W97184  20.285  26.417   2.531  0.0972  0.5545  0.2774
96321W        W97185  11.467   7.533   7.080 -0.1415  0.0402 -0.1009
96322W        W97186  28.566  18.886   7.362  0.3789  0.2113  0.0383
96323W        W97187   6.381  28.771  19.891 -0.2274  0.1969 -0.1389
96324W        W97188   0.144  13.618  10.252  0.0994 -0.2159  0.0125
96325W        W97189  25.987  19.851  22.629 -0.0968 -0.2285  0.1461
96326W        W97190   2.166   4.829  12.025  0.0438  0.1253  0.3949
96327W        W97191   7.778  10.264  11.574 -0.0688 -0.0496 -0.0986
96328W        W97192   6.550   9.128   0.369  0.0287  0.0833 -0.1504
96329W        W97193  14.909  22.014  25.248 -0.1984  0.1682  0.1554
96330W        W97194   3.402  23.184  17.626  0.0755  0.3252 -0.0667
96331W        W97195  25.049  25.354  19.538 -0.0191  0.1314 -0.0500
96332W        W97196   2.523   3.602   9.660  0.2103  0.0251 -0.0879
96333W        W97197   2.631   6.727  13.264  0.2003  0.0925 -0.0819
96334W        W97198   8.549  13.803  12.292  0.2773  0.0170 -0.0025
96335W        W97199   0.421  28.122   3.885  0.0120 -0.0319 -0.2171
96336W        W97200   3.567   3.543  28.586 -0.2570 -0.0089  0.1802
96337W        W97201   5.628  26.765  26.900 -0.0922 -0.0506  0.1667
96338W        W97202   9.785   5.799  10.094  0.2062  0.2261 -0.1160
96339W        W97203   9.783  20.819  21.254 -0.0954 -0.0037 -0.1925
96340W        W97204  13.992  20.797   8.627 -0.0293 -0.1315  0.0642
96341W        W97205   4.537  24.391  15.117  0.3079  0.0558 -0.2693
96342W        W97206  17.301  11.317  23.609 -0.0736 -0.1645  0.1001
96343W        W97207   1.100  13.108  20.053 -0.0655  0.0509  0.0533
96344W        W97208   0.818   5.593  17.108  0.0608 -0.0831  0.1151
96345W        W97209  10.944  15.953   6.850 -0.1544 -0.1771  0.0733
96346W        W97210  23.304  25.916   1.648  0.0118  0.2014 -0.1451
96347W        W97211  22.221  17.429  23.800  0.1155 -0.1076  0.3655
96348W        W97212  16.633   0.674  24.295 -0.0429  0.0836 -0.3722
96349W        W97213  22.835  23.831  16.398  0.0165 -0.0348 -0.0877
96350W        W97214  19.490  21.607  14.072 -0.0791  0.3312 -0.2914
96351W        W97215  15.871  25.197  15.440  0.1776 -0.1110  0.1242
96352W        W97216   3.505  29.037   1.989  0.2516  0.3535  0.0310
96353W        W97217  25.478  15.171  14.741  0.0630 -0.1371 -0.1269
96354W        W97218  20.339   2.773   4.081 -0.0358  0.0413 -0.1879
96355W        W97219  10.135   4.758  20.088 -0.0580  0.1017  0.0055
96356W        W97220  18.072   2.790  17.059 -0.0512 -0.1875  0.2574
96357W        W97221  14.163   6.134   4.481  0.0464  0.1820 -0.1037
96358W        W97222   3.762   3.156  22.562 -0.3457  0.1221  0.1530
96359W        W97223   0.405   7.562  21.191  0.4094 -0.2226 -0.1974
96360W        W97224  10.511  25.156  10.089 -0.1748  0.2500 -0.0384
96361W        W97225   9.772   7.022  22.622 -0.1985  0.2730 -0.0513
96362W        W97226  24.018  23.236  27.860 -0.0731  0.0189  0.1995
96363W        W97227   4.360  26.583  27.592  0.0616  0.3536  0.1598
96364W        W97228  13.078  23.440  25.970 -0.0009  0.0681 -0.0003
96365W        W97229   1.020  27.538   0.252 -0.4064  0.2592 -0.2656
96366W        W97230  16.347  26.251   2.044  0.0341  0.0363 -0.1120
96367W        W97231  13.024   5.085   1.606 -0.0617 -0.6587 -0.2696
96368W        W97232   2.434   4.124  21.544  0.1910  0.0633  0.1650
96369W        W97233  24.404   2.727  16.152 -0.0499 -0.1298  0.1497
96370W        W97234   8.473   3.901  19.944 -0.1798  0.1871  0.2226
96371W        W97235  14.937   1.700  10.484  0.1119 -0.1404  0.1230
96372W        W97236  26.377  21.277  11.700 -0.1016  0.0468 -0.2683
96373W        W97237  16.765  16.710  28.444 -0.0967  0.2456 -0.1279
96374W        W97238  13.323  28.935   8.616 -0.1376 -0.0929  0.2972
96375W        W97239  15.849  19.176   5.976 -0.1643 -0.0346  0.0542
96376W        W97240   4.322   9.467  27.126  0.0162  0.2400  0.0528
96377W        W97241   4.590  10.547  12.216 -0.2380  0.2655  0.3451
96378W        W97242  21.688  28.515   9.264  0.0230  0.4690 -0.0853
96379W        W97243  23.792   4.690  23.036 -0.1424 -0.0431 -0.0734
96380W        W97244  10.016   2.072   4.309  0.1461 -0.3284  0.0358
96381W        W97245  18.621  10.660  25.843  0.2817  0.0916 -0.1751
96382W        W97246  12.923   1.378   0.142 -0.1674  0.0758  0.1407
96383W        W97247   8.001  27.108  11.001  0.0115 -0.0002  0.0466
96384W        W97248  15.381  19.675  11.058  0.1536  0.1215 -0.3050
96385W        W97249  12.884  23.890  16.998  0.0224 -0.0064  0.2268
96386W        W97250  15.929  27.200   2.857  0.1598  0.1055  0.2729
96387W        W97251  18.974  28.790  16.244 -0.3044  0.0256  0.0453
96388W        W97252  20.343   1.192   3.460 -0.1004  0.1257 -0.0708
96389W        W97253   6.564   1.785   3.843  0.5305  0.0534  0.2235
96390W        W97254   9.926  23.441   7.604 -0.1674  0.1130  0.1296
96391W        W97255  26.463  17.565   3.367  0.0557  0.1319 -0.2262
96392W        W97256   8.894   7.856  23.557  0.3164  0.2384  0.1973
96393W        W97257  19.079   8.513  25.431 -0.1439 -0.0472 -0.2794
96394W        W97258   0.805  10.047  22.047  0.0209  0.1139 -0.0472
96395W        W97259  13.600  18.383  17.977 -0.0192 -0.0708 -0.1254
96396W        W97260  11.201  17.893  22.988  0.1275  0.0161 -0.0395
96397W        W97261  22.824  13.766  12.571  0.1430  0.0906  0.1447
96398W        W97262   9.954  12.765  24.591 -0.0489  0.0512 -0.2467
96399W        W97263  22.448   3.029  21.832  0.2077 -0.2789 -0.2654
96400W        W97264  11.347   5.998   1.114 -0.1438  0.1491 -0.0149
96401W        W97265   0.741   1.277   9.655  0.3098  0.0968  0.0419
96402W        W97266   6.256  21.357   3.421 -0.1887 -0.2592 -0.1397
96403W        W97267  13.884   8.387  11.052 -0.0440  0.0184 -0.0610
96404W        W97268  18.557   7.231   2.565 -0.1209 -0.2126  0.2213
96405W        W97269  28.042   9.191  26.001 -0.0513 -0.0062  0.3181
96406W        W97270  16.513  28.434  17.273  0.1487  0.2627  0.1108
96407W        W97271  13.922  10.099  10.853  0.1133 -0.3029 -0.1022
96408W        W97272  24.147  21.353  25.593 -0.1042  0.3290 -0.2049
96409W        W97273  18.423   1.437  27.748 -0.3470 -0.1262  0.1976
96410W        W97274  17.167  10.403  29.118 -0.1457  0.1245 -0.2305
96411W        W97275  21.169  11.516  14.012 -0.3223 -0.0645 -0.0539
96412W        W97276   0.372   3.965  24.596 -0.2936  0.0174 -0.2532
96413W        W97277  16.979   5.006  21.142 -0.0924  0.0773  0.0396
96414W        W97278  16.651  23.063   1.493 -0.0105  0.1197 -0.1982
96415W        W97279  14.397   5.582   5.904 -0.2371  0.4542  0.0668
96416W        W97280   6.105  16.417  28.068 -0.0855 -0.0925 -0.0686
96417W        W97281  28.060  16.940   3.656  0.3352  0.1727 -0.4040
96418W        W97282  10.750  14.829   2.830 -0.0150  0.1113 -0.1757
96419W        W97283  13.101  18.831   4.519  0.4721 -0.2580 -0.0984
96420W        W97284   9.040   6.631  23.754 -0.2506 -0.0765  0.0050
96421W        W97285   7.863   2.283  10.842  0.0306 -0.0974 -0.0182
96422W        W97286  13.212  24.297   5.818 -0.0686  0.2985  0.2388
96423W        W97287  10.609   7.573  26.576  0.2304  0.0450  0.0159
96424W        W97288  12.539  27.688   3.573  0.2246  0.0676 -0.1788
96425W        W97289  11.221  16.644   9.998  0.1489 -0.0406  0.1173
96426W        W97290   7.462  19.188   4.236  0.0556 -0.1542 -0.2111
96427W        W97291  13.187   0.959  25.174 -0.2521 -0.0017  0.0248
96428W        W97292   9.845  22.247  19.188  0.1063 -0.0369 -0.1161
96429W        W97293  12.431  28.299  14.863 -0.0039 -0.0815  0.1201
96430W        W97294  16.000  13.740   7.407  0.0024 -0.0454 -0.1272
96431W        W97295  28.728  24.648  19.531  0.3939 -0.1213 -0.0542
96432W        W97296   8.136  24.520   4.658  0.2389 -0.0154 -0.1645
96433W        W97297   0.871   5.882   1.827  0.3713  0.0720  0.1434
96434W        W97298  15.107  13.535  12.335 -0.0142 -0.1067  0.0738
96435W        W97299  10.574  26.250   2.965 -0.0863  0.0715 -0.0499
96436W        W97300  20.879  23.145  13.100 -0.0233 -0.0381 -0.0217
96437W        W97301   7.640  19.902   1.944 -0.0023  0.2539  0.1138
96438W        W97302  24.264  13.334  10.908  0.0422  0.0497 -0.1207
96439W        W97303   8.502  18.961  19.543 -0.0250  0.0616  0.2585
96440W        W97304  16.908  25.418  14.544 -0.2715 -0.2900  0.2594
96441W        W97305  12.554  24.596  25.203  0.1126  0.0287  0.0703
96442W        W97306   7.390  25.572  13.952  0.0961 -0.1367 -0.1577
96443W        W97307  25.358  16.536  19.400  0.0385  0.0638 -0.2975
96444W        W97308   1.035  27.350   2.487 -0.0820 -0.1895  0.1176
96445W        W97309  17.213  14.942  13.117 -0.0611  0.0206  0.2855
96446W        W97310  24.428   1.401   7.054  0.4216  0.0269 -0.1302
96447W        W97311   8.977  19.294  27.106 -0.3965  0.0564  0.0263
96448W        W97312   7.631  24.611  16.791 -0.1746  0.0280 -0.1902
96449W        W97313  14.046   5.132   3.126 -0.2819 -0.1331 -0.1897
96450W        W97314  27.310  15.380  23.293  0.1143 -0.1734 -0.0076
96451W        W97315   5.728   8.131  21.309  0.1736 -0.0837 -0.0664
96452W        W97316  19.692   1.736  19.772 -0.2054  0.2089 -0.1865
96453W        W97317  14.109   9.470   2.431 -0.0615 -0.1604 -0.0653
96454W        W97318  17.572  12.506   2.918  0.1252  0.1400  0.1550
96455W        W97319  25.194  21.173  19.100 -0.1146 -0.1087 -0.0086
96456W        W97320  22.799  15.212  21.688  0.0373  0.0662 -0.1603
96457W        W97321  17.349   1.740  22.369 -0.0499  0.2436 -0.1386
96458W        W97322   3.352  27.207  20.063  0.2181 -0.0013 -0.1557
96459W        W97323  10.145   4.781  17.379 -0.0163 -0.0757  0.0899
96460W        W97324  11.735  21.433  21.642  0.0431 -0.0526  0.3138
96461W        W97325  11.685   1.576  16.295  0.3861 -0.2559  0.0577
96462W        W97326   7.623  22.937  21.635  0.0513  0.2421 -0.2591
96463W        W97327   1.359   9.083   6.970  0.3041  0.1451 -0.0259
96464W        W97328  20.850  13.424  19.495 -0.2139  0.0272 -0.2177
96465W        W97329   7.236  16.063   2.783  0.1132  0.0744  0.2900
96466W        W97330  22.979  28.916   5.887 -0.0914  0.0433 -0.1426
96467W        W97331   2.336  26.314   7.441 -0.0827 -0.1424 -0.0808
96468W        W97332  10.449  16.193  25.909 -0.2046  0.1252  0.0157
96469W        W97333   0.691  17.266  13.610  0.2271  0.1022 -0.1130
96470W        W97334   8.756  19.843  10.707 -0.1878 -0.1992  0.0845
96471W        W97335  19.208  15.500  15.811  0.1881 -0.0242  0.0260
96472W        W97336  21.219  20.069   1.674 -0.1635 -0.1682  0.0312
96473W        W97337  21.856  15.120  26.937 -0.4123  0.3493  0.3537
96474W        W97338  13.670  27.769  10.721 -0.0512 -0.0892 -0.1976
96475W        W97339   1.910  10.406  21.115 -0.1206 -0.1638  0.3775
96476W        W97340  20.461  20.277   8.192 -0.0189 -0.0432 -0.3259
96477W        W97341   2.595  27.494  17.719 -0.3893  0.0626  0.1540
96478W        W97342   3.266  17.789  11.595  0.1867  0.1710  0.0189
96479W        W97343   1.528   6.574   2.511  0.2886 -0.1577 -0.0219
96480W        W97344   7.872   2.237   0.530 -0.2049  0.1634  0.1380
96481W        W97345   8.653  19.171  27.597 -0.1608 -0.1208  0.2114
96482W        W97346  28.110  21.297  22.799 -0.0415  0.2645  0.1086
96483W        W97347  13.378  20.293  23.513  0.2151 -0.2692  0.2756
96484W        W97348  25.010  17.602  10.374  0.0448 -0.2173 -0.1028
96485W        W97349  18.309   4.591  12.463  0.1425  0.0618 -0.2327
96486W        W97350   2.852   6.209   6.855 -0.0278  0.3736  0.1696
96487W        W97351  14.833  26.423  17.128  0.0566  0.0428 -0.1372
96488W        W97352   3.205  16.045  21.025  0.0567  0.3387 -0.1272
96489W        W97353  20.504  25.171  25.537 -0.2819 -0.0640  0.1417
96490W        W97354   8.505  13.835   0.711  0.0476  0.2605 -0.1174
96491W        W97355  20.638  20.647   5.843 -0.0645 -0.2620 -0.0830
96492W        W97356  16.184  12.507  13.860  0.1131 -0.2034 -0.2861
96493W        W97357   8.526  25.261   3.034 -0.0992  0.0789 -0.0236
96494W        W97358  11.049   2.969   3.222 -0.2084  0.1297 -0.1803
96495W        W97359  20.773  10.758   8.512 -0.2390  0.2355 -0.3296
96496W        W97360   8.275   9.335  28.905 -0.1337 -0.1337  0.0642
96497W        W97361   0.309  14.633  25.636 -0.0019  0.0253  0.2867
96498W        W97362  22.885   6.649  26.332  0.4978 -0.2629  0.1447
96499W        W97363   9.743  10.578  23.603  0.1496 -0.1232 -0.4476
96500W        W97364   1.143  16.550  11.625  0.0838  0.0800  0.1105
96501W        W97365   5.407  25.869  14.085 -0.1736 -0.2192  0.2710
96502W        W97366   2.469  23.547  22.184  0.3440 -0.0495 -0.0319
96503W        W97367  18.170  16.158  20.001  0.2171  0.0363  0.1825
96504W        W97368  14.770   3.268  24.024  0.0344  0.2523  0.0925
96505W        W97369   6.417  13.055   1.725 -0.0384  0.3485 -0.2702
96506W        W97370  28.835   3.348  21.183  0.3390  0.2976  0.0058
96507W        W97371  16.354  12.789  14.235 -0.1593  0.3946  0.0564
96508W        W97372  14.204  27.916   7.406 -0.2607 -0.3688 -0.0545
96509W        W97373   0.432  17.411   2.624  0.0853  0.1203 -0.0351
96510W        W97374  10.601  27.184  22.225 -0.0850 -0.2712  0.2296
96511W        W97375  25.206   9.770  16.123  0.0151  0.0777  0.1333
96512W        W97376  16.574  19.294  21.742 -0.1812  0.2505 -0.1533
96513W        W97377   0.527  17.596   6.940 -0.1315 -0.0666  0.0202
96514W        W97378  25.234  20.562   5.704  0.2468 -0.1096 -0.0080
96515W        W97379  12.274   6.488  26.360  0.5808 -0.1272  0.2130
96516W        W97380  15.628   7.972  22.007 -0.0764 -0.2239 -0.0041
96517W        W97381  17.563  27.189  16.360  0.2161  0.3228  0.1938
96518W        W97382  25.034   1.267  19.731  0.3862 -0.1696  0.2757
96519W        W97383  11.683  21.532  27.706  0.1507 -0.0610  0.0969
96520W        W97384   4.079  21.872   2.937 -0.2124 -0.1049  0.1101
96521W        W97385  13.997  12.031   1.190 -0.1899  0.3205  0.0092
96522W        W97386   4.006  23.799  21.986  0.2694  0.0365  0.1265
96523W        W97387  26.000  18.129  28.987  0.1248 -0.0715 -0.0519
96524W        W97388  19.871   5.182   2.222 -0.0284  0.2127  0.1861
96525W        W97389  22.018  22.921  20.440  0.1906 -0.1702  0.1464
96526W        W97390  16.219  25.362  11.952 -0.1522 -0.2344 -0.2596
96527W        W97391   7.158   6.710  27.311  0.0561  0.0772  0.0481
96528W        W97392  17.062  23.216  10.898 -0.3111  0.0713  0.3093
96529W        W97393   9.025   8.397  16.411 -0.0397  0.2214 -0.1418
96530W        W97394  10.014   5.008  26.465  0.2066 -0.0773  0.0940
96531W        W97395  24.098  12.043   6.739 -0.0919 -0.0182  0.0697
96532W        W97396   4.044   4.567   7.675  0.0659 -0.0786 -0.1112
96533W        W97397   3.600  28.780  24.400 -0.2162 -0.2243  0.1630
96534W        W97398   4.985  27.336  26.189 -0.2504  0.0011  0.2259
96535W        W97399  15.284  20.515  18.036  0.0467 -0.0596 -0.0794
96536W        W97400  10.804  20.594   1.949  0.1772  0.1046 -0.2122
96537W        W97401   6.454   6.280  26.997 -0.1248  0.1369 -0.1140
96538W        W97402   5.751  12.545   9.879 -0.0320 -0.1443 -0.0778
96539W        W97403  22.299  15.560  17.091 -0.6011  0.0805  0.0793
96540W        W97404   6.820  28.680  16.844  0.0986 -0.1606  0.2530
96541W        W97405  22.676  26.861   9.656 -0.0148 -0.0835 -0.1634
96542W        W97406  13.357  16.070   4.162 -0.2786  0.0119 -0.1133
96543W        W97407   5.868  22.140  25.641 -0.0406  0.2315  0.0703
96544W        W97408   5.543   0.577  19.032  0.2336  0.3126  0.0140
96545W        W97409   7.409  17.188  28.457 -0.0320 -0.0427 -0.0561
96546W        W97410  17.349  25.773  27.198 -0.0638 -0.0157 -0.2635
96547W        W97411   2.403  10.541  21.026 -0.1383  0.2099  0.0860
96548W        W97412  25.622  14.940  16.208 -0.1501 -0.2888  0.0324
96549W        W97413  14.060   7.288   8.219  0.1139  0.1087 -0.0985
96550W        W97414   3.847   7.857  10.933  0.0567  0.2805  0.0690
96551W        W97415  20.727  12.246  13.534 -0.0552  0.2077 -0.0166
96552W        W97416  15.869  26.196  15.818  0.0963  0.2175  0.0864
96553W        W97417  25.371   4.906   9.669 -0.1105  0.1319  0.1669
96554W        W97418   5.904   8.166  23.951 -0.1237 -0.0275  0.2511
96555W        W97419  28.048  15.449  14.700  0.0864  0.3159  0.0121
96556W        W97420  22.315  28.534   5.798 -0.0153  0.1212  0.0836
96557W        W97421  15.065  20.957  17.799 -0.0223 -0.0312 -0.0475
96558W        W97422  13.218   6.244  15.969 -0.2121  0.0788  0.1578
96559W        W97423   4.981  20.615  22.132  0.1424  0.0480  0.0595
96560W        W97424  21.010  25.200  24.124 -0.3828 -0.3752  0.0699
96561W        W97425  13.314   8.816  10.486  0.1290 -0.1558  0.2767
96562W        W97426   1.736  28.199   3.605  0.2923 -0.1552  0.0337
96563W        W97427  18.925   1.193   9.576 -0.1273  0.2952 -0.1078
96564W        W97428  10.007   0.086  20.060 -0.0596  0.1157  0.0900
96565W        W97429  13.091  22.076   0.421  0.0011  0.0587 -0.0943
96566W        W97430   5.282  23.811  24.993 -0.0778 -0.1519 -0.0514
96567W        W97431   5.623  19.997  24.146  0.1702  0.1664 -0.1375
96568W        W97432  10.316  18.652  16.205 -0.1154 -0.3596  0.1751
96569W        W97433   9.168  10.031  16.003 -0.3772  0.0601  0.1567
96570W        W97434   6.643  21.607   0.609  0.1561 -0.1715  0.3779
96571W        W97435  12.701  15.595  16.111 -0.0917  0.3133 -0.1211
96572W        W97436   7.900  19.186  11.998 -0.3641  0.1325  0.0526
96573W        W97437   1.720  17.939   0.874 -0.0589  0.1686  0.2049
96574W        W97438  15.963   7.106  15.788  0.1935 -0.2330 -0.1168
96575W        W97439  10.088  25.311  16.078  0.3514 -0.0180  0.0702
96576W        W97440  22.031   5.466  10.877 -0.1100  0.2968  0.0565
96577W        W97441   1.302  11.899  15.132  0.0422 -0.0066 -0.1235
96578W        W97442  10.292  27.283  27.939 -0.0568  0.0121  0.3043
96579W        W97443  20.685  21.930  22.151  0.1938  0.1316  0.1047
96580W        W97444  24.122  13.203  25.992 -0.0556  0.2857 -0.0168
96581W        W97445  12.363  11.140  29.098  0.1663  0.2806 -0.0852
96582W        W97446  13.884  15.541  28.678  0.0126  0.0378  0.1291
96583W        W97447  13.933  25.813  12.963  0.3410  0.0712 -0.0513
96584W        W97448   2.927  25.446  20.323 -0.1089 -0.2569  0.0661
96585W        W97449  17.899  22.304  12.686  0.1456 -0.0269  0.1806
96586W        W97450  16.595  24.875  25.040 -0.0665  0.0032  0.1780
96587W        W97451  27.515  28.474  20.667  0.1108 -0.2063 -0.0956
96588W        W97452   4.563  16.608  16.156  0.0667 -0.2496  0.0434
96589W        W97453  11.338  11.158  11.026 -0.0187  0.1365 -0.1116
96590W        W97454  19.637   3.344   1.045 -0.0180  0.3509  0.2775
96591W        W97455  24.463  23.995   7.808 -0.3067 -0.1982  0.0599
96592W        W97456  19.735   4.050  26.259  0.1332  0.3195 -0.0530
96593W        W97457   2.135  17.654  20.150  0.0755  0.1631 -0.2433
96594W        W97458  28.608  12.233  27.523 -0.1301  0.0260 -0.6072
96595W        W97459   7.252   5.847  11.386  0.2340  0.1389  0.0067
96596W        W97460   5.366   3.588  20.565 -0.3070  0.0067 -0.1888
96597W        W97461   8.416  15.271   5.775 -0.1312 -0.0535 -0.0079
96598W        W97462  17.874  25.544  11.768 -0.1949 -0.1151 -0.1299
96599W        W97463  17.795  24.629   5.754 -0.1244 -0.1840  0.0984
96600W        W97464   8.136  27.499  19.963  0.1040  0.1655  0.3090
96601W        W97465  12.605  11.993  20.002  0.1484  0.3739 -0.2079
96602W        W97466  11.392  21.871  22.239  0.0838  0.1102  0.0817
96603W        W97467  13.839   4.243   0.818  0.2437  0.2341 -0.0436
96604W        W97468  12.702  23.433   3.610  0.0461  0.2300 -0.1833
96605W        W97469  18.123   1.863  23.769 -0.1609  0.0466 -0.0816
96606W        W97470  15.900  23.599  15.962 -0.1628  0.1599 -0.1830
96607W        W97471  13.251   0.937  22.276 -0.0372  0.1414 -0.0384
96608W        W97472  11.245  14.489   7.163  0.0735 -0.0864  0.0518
96609W        W97473  20.462  25.502  10.116  0.3339  0.0604  0.0942
96610W        W97474  10.580  15.756   0.553 -0.2411  0.3408  0.0422
96611W        W97475  17.876   4.876   1.360  0.2326  0.2784  0.0076
96612W        W97476  13.529   1.648  21.603  0.1708 -0.1934  0.1965
96613W        W97477  10.372  27.017  10.672  0.0702 -0.2817  0.0522
96614W        W97478  15.117   7.248  16.912  0.0303 -0.1692  0.1297
96615W        W97479  12.755   8.256   8.681  0.2097 -0.2321  0.0914
96616W        W97480  12.053  23.353  27.205  0.1392 -0.1701  0.0949
96617W        W97481   6.035  23.776   8.972 -0.1442 -0.1467 -0.1816
96618W        W97482  12.730   6.128  23.592  0.3966 -0.1215 -0.0910
96619W        W97483  19.673  15.665  12.595 -0.2651 -0.0966 -0.0013
96620W        W97484  15.329   5.599  10.149 -0.0409 -0.0292  0.2413
96621W        W97485   9.497  28.382  16.190  0.0691 -0.1333  0.2392
96622W        W97486  11.250  23.182  13.165  0.2088  0.0198  0.0313
96623W        W97487  17.473  28.189   8.891 -0.0026 -0.0040  0.1136
96624W        W97488   9.772  15.769  13.199  0.0439 -0.0380 -0.1238
96625W        W97489  15.862  17.170   3.901  0.2112 -0.0978 -0.0313
96626W        W97490   1.673  12.665  14.133  0.1267 -0.3547  0.0694
96627W        W97491  10.730   5.786   6.429 -0.0877  0.2294 -0.1214
96628W        W97492  12.577  28.609   5.610  0.2038  0.2401  0.1555
96629W        W97493  11.650  17.543  20.670  0.2263 -0.1212 -0.1931
96630W        W97494   8.889  15.715  10.881  0.0955 -0.0284  0.2372
96631W        W97495  20.363  26.512   0.309 -0.4607  0.1482 -0.0654
96632W        W97496  16.839   6.650   2.640 -0.3881  0.4086 -0.3058
96633W        W97497  28.018  11.343  13.689 -0.1016 -0.2138  0.3384
96634W        W97498  18.930  14.485  23.729  0.1937  0.1544  0.2905
96635W        W97499   3.707   4.225   5.223 -0.0080  0.2357  0.0448
96636W        W97500   1.559  21.883   3.253  0.0750  0.3013  0.1153
96637W        W97501  20.155   4.048  26.498 -0.1449  0.0056 -0.1897
96638W        W97502  27.961   9.549   6.539 -0.1944  0.1560  0.2027
96639W        W97503  10.415  15.971   6.654 -0.1355  0.2532 -0.2577
96640W        W97504  27.290  17.138  23.701 -0.4932 -0.1180  0.2529
96641W        W97505  10.618  10.738  11.509  0.1419  0.0630  0.0557
96642W        W97506  12.224  21.681  13.871 -0.1421 -0.1168 -0.1615
96643W        W97507   6.902   1.786   1.101  0.3450 -0.4112  0.1252
96644W        W97508  10.616  16.026  28.632  0.4286 -0.0518 -0.0221
96645W        W97509  23.193  10.880  27.487  0.1925 -0.0956 -0.0881
96646W        W97510   7.280  14.715  22.752 -0.0406  0.2511  0.2747
96647W        W97511  12.638   2.794   3.204  0.1463 -0.2690  0.2024
96648W        W97512  14.695  28.060  25.277  0.2977  0.0591 -0.0823
96649W        W97513   0.506   5.917  10.905 -0.3527  0.2234 -0.2880
96650W        W97514  13.690  28.254  10.853  0.1459 -0.0452  0.1155
96651W        W97515  22.082  22.751  10.342 -0.2877  0.1597  0.0822
96652W        W97516   4.650  25.999   7.535 -0.0800 -0.2812 -0.2530
96653W        W97517   4.218   8.322  19.689 -0.0201  0.0308 -0.1901
96654W        W97518   3.820   9.898  15.268  0.0185  0.3003 -0.0366
96655W        W97519   7.761   1.588   0.417 -0.2401  0.1123 -0.2849
96656W        W97520   9.023  14.232  22.003 -0.1356  0.2237  0.0067
96657W        W97521  12.403  15.221   2.176  0.0626  0.1037 -0.2839
96658W        W97522  21.169  23.671  13.200  0.1387 -0.1256  0.1845
96659W        W97523   3.448  18.451   1.175 -0.0855 -0.0518  0.0155
96660W        W97524  25.084  11.132   7.056  0.2307 -0.3264  0.0786
96661W        W97525  12.657  20.031  25.675  0.0135  0.1382  0.0561
96662W        W97526  24.496  26.292  14.102 -0.0641  0.1913  0.1466
96663W        W97527  11.991  16.586   7.264  0.1182  0.3216  0.0991
96664W        W97528  15.104  26.874  20.972 -0.2222 -0.4420 -0.2178
96665W        W97529  11.771  19.829   4.762 -0.2447 -0.1553 -0.1379
96666W        W97530  12.444  11.971  14.682  0.1752 -0.0493  0.2350
96667W        W97531  15.492   1.279  27.344  0.0694  0.0296 -0.0563
96668W        W97532  23.729  23.272   0.007  0.0721  0.3941 -0.3761
96669W        W97533   6.069  14.078   4.853  0.0557 -0.2927 -0.2554
96670W        W97534   2.300  22.155  26.127 -0.1767 -0.1849 -0.2893
96671W        W97535   6.262  27.907   9.504  0.1995 -0.2250  0.2694
96672W        W97536  19.834  18.121  13.267 -0.1341 -0.2327 -0.3129
96673W        W97537  18.130  17.466   2.128 -0.2436 -0.2373  0.0393
96674W        W97538   4.937   8.651  27.423 -0.0932 -0.3476  0.0276
96675W        W97539  12.977   5.334   6.192 -0.1049 -0.4551 -0.1603
96676W        W97540  23.266  11.294  26.515  0.3275 -0.2137  0.1136
96677W        W97541  17.684  13.568   8.332  0.1389 -0.1483 -0.3401
96678W        W97542  16.250  10.138  29.067  0.1402  0.2441  0.2969
96679W        W97543   5.011   7.143  23.075 -0.1744 -0.3049  0.2577
96680W        W97544   6.642  15.532   5.749  0.2760 -0.1164 -0.1429
96681W        W97545   2.117   2.356   5.053  0.1312 -0.2884  0.1174
96682W        W97546  25.104  14.499  27.634  0.0240  0.0928  0.0477
96683W        W97547   8.419  24.023   4.918  0.2726  0.0779 -0.3282
96684W        W97548  16.599   0.390  15.344  0.3334  0.0289  0.0197
96685W        W97549   6.083  12.233  10.999  0.2498  0.1462 -0.1790
96686W        W97550   9.383  11.317  11.221  0.2766  0.2304 -0.2369
96687W        W97551  13.553  27.743   9.064  0.0438 -0.0373  0.1081
96688W        W97552   3.221  12.567   4.071  0.1456  0.1215  0.2021
96689W        W97553  20.105  25.445   4.355 -0.0081 -0.2321  0.1359
96690W        W97554   3.703   0.796  22.460  0.1347  0.0707 -0.4132
96691W        W97555  10.182  28.825   8.398 -0.0479 -0.0658  0.0819
96692W        W97556   5.530   0.388  21.049  0.0083 -0.3609 -0.0688
96693W        W97557  23.312   8.853  26.912  0.1796 -0.0004  0.3166
96694W        W97558  27.697  16.246   6.021 -0.1785  0.2140 -0.0662
96695W        W97559   7.934  10.721  22.967 -0.1734 -0.3547  0.2485
96696W        W97560  21.308  17.287  17.913 -0.1034 -0.1114  0.0720
96697W        W97561  11.093  20.199  21.315  0.1205 -0.0427 -0.2292
96698W        W97562   7.087  27.783   4.236  0.1332 -0.2971 -0.0170
96699W        W97563  14.402  10.666  15.522  0.0797  0.0551 -0.1798
96700W        W97564  17.165  14.334  21.777 -0.1037 -0.2283 -0.3691
96701W        W97565  14.465  19.798   6.081 -0.1405  0.3301 -0.2288
96702W        W97566  22.383  21.098   2.633 -0.2604 -0.0975 -0.0951
96703W        W97567  11.052  18.879  27.957 -0.3092 -0.1788 -0.0690
96704W        W97568   2.933  25.304  17.223 -0.2614 -0.1070  0.0020
96705W        W97569  14.087  25.420  11.507 -0.1126 -0.2193  0.1216
96706W        W97570   4.342  16.695   6.972 -0.0977 -0.3935 -0.0591
96707W        W97571   7.821  15.682   2.305  0.2256 -0.0058  0.4097
96708W        W97572  25.605   4.791  11.476 -0.4955  0.0834  0.1938
96709W        W97573   3.493  10.426  27.048  0.2611 -0.0012  0.1926
96710W        W97574  15.278  18.300   6.462  0.0505  0.3872 -0.2023
96711W        W97575  18.949  21.806  18.144  0.0005 -0.1212  0.0095
96712W        W97576  18.379  19.751  19.345  0.1362  0.3969  0.0940
96713W        W97577   9.727  22.699  20.630 -0.0587 -0.0277 -0.0760
96714W        W97578   0.556  19.668   9.467  0.1152 -0.0188  0.2704
96715W        W97579  11.123   7.067  28.299 -0.3428 -0.0693  0.0271
96716W        W97580   9.552  26.819  24.890 -0.1237  0.0890  0.3351
96717W        W97581  14.075   7.936   6.567 -0.0146  0.2708  0.0803
96718W        W97582  17.403   4.529   9.495  0.1056  0.0190 -0.1606
96719W        W97583  15.176   7.628  27.729  0.1634  0.0243 -0.1885
96720W        W97584  20.786   2.985   2.738 -0.0991  0.0245  0.0753
96721W        W97585  10.653  15.286   5.097 -0.0218  0.0662  0.1592
96722W        W97586   4.933   1.936   9.196  0.0390  0.0096  0.1909
96723W        W97587   5.197  24.565   0.922 -0.0829 -0.1805 -0.5105
96724W        W97588  11.537  15.071   5.505 -0.0132  0.3013 -0.0782
96725W        W97589  19.663  25.554  21.792  0.0248  0.1229  0.2182
96726W        W97590  24.448  28.376  23.539  0.0263  0.0237 -0.1126
96727W        W97591  20.362  27.601   4.713 -0.1167 -0.1262 -0.2924
96728W        W97592   3.874  12.453  22.847 -0.1131  0.2526  0.0827
96729W        W97593   5.097  22.014   8.881 -0.5142  0.2246 -0.1460
96730W        W97594  21.659  20.149   7.547 -0.0748 -0.2147 -0.1478
96731W        W97595  21.966   1.874  29.114 -0.1236  0.2245  0.2201
96732W        W97596  21.702   3.188   4.045 -0.1001  0.3167 -0.2329
96733W        W97597  14.701  12.967  27.176  0.0258 -0.0413  0.0872
96734W        W97598  25.274  18.219  28.093  0.0854 -0.0307 -0.0381
96735W        W97599   9.016   7.243   8.020 -0.0071 -0.0514 -0.1700
96736W        W97600   9.275  26.278   9.344 -0.2618  0.1166  0.1682
96737W        W97601  19.028  24.002  16.559  0.0261 -0.0825  0.1969
96738W        W97602  28.068  27.634  14.104  0.0857  0.1095 -0.1539
96739W        W97603  27.813  10.354  12.105 -0.0768  0.0197  0.0546
96740W        W97604   1.485  19.639  17.321 -0.0431 -0.1545 -0.0277
96741W        W97605   6.589  25.880  11.902 -0.2946  0.0304 -0.0344
96742W        W97606  14.661   5.346  26.237 -0.0831 -0.0499 -0.1044
96743W        W97607  22.972  27.105  28.728  0.0637 -0.0687  0.0933
96744W        W97608  27.997   5.744  28.938 -0.0503 -0.0217 -0.4123
96745W        W97609  20.577  19.796  16.410  0.1197 -0.4748 -0.0223
96746W        W97610  24.675  28.623  12.113 -0.2224 -0.2557  0.1247
96747W        W97611  28.394  17.621  24.905  0.2167 -0.2947 -0.0079
96748W        W97612  16.051  24.197   7.856 -0.3148  0.0939 -0.0387
96749W        W97613   7.080  21.346   6.481 -0.1904 -0.1137  0.2340
96750W        W97614  16.910   1.011  24.007  0.3840  0.0304  0.2948
96751W        W97615  11.661  26.591   4.994 -0.1674 -0.1104  0.0003
96752W        W97616   5.954  18.605   7.455 -0.3425 -0.2649 -0.0119
96753W        W97617  15.386   8.992   0.663 -0.0226  0.1486 -0.0844
96754W        W97618  13.833   2.034  10.225 -0.1816 -0.0216  0.0965
96755W        W97619  26.991   1.129  17.672  0.0776 -0.2003 -0.2197
96756W        W97620  28.754   0.519   7.981 -0.1238 -0.4642  0.3280
96757W        W97621   7.582  21.904  16.904 -0.0901  0.2361  0.1775
96758W        W97622  11.101  28.209  24.343 -0.1287 -0.1114 -0.1790
96759W        W97623   3.326  22.374  12.384 -0.0433 -0.2327  0.3279
96760W        W97624  12.971   2.373   9.422  0.0681  0.2306  0.0025
96761W        W97625  12.205  10.350   7.322  0.0198 -0.1847  0.0217
96762W        W97626  11.420  19.196   6.288  0.1811 -0.1751 -0.0702
96763W        W97627  23.692   0.264   0.920 -0.0078 -0.3144 -0.0059
96764W        W97628   9.273  22.172  17.834 -0.0842  0.0613  0.2258
96765W        W97629  19.676  25.139  24.558 -0.3325  0.1635  0.2519
96766W        W97630  14.348  14.193  26.891  0.0990  0.1230 -0.1476
96767W        W97631  25.933   2.099  24.498 -0.1429 -0.2662 -0.1651
96768W        W97632   9.798  18.102  20.521  0.1225  0.2373 -0.2995
96769W        W97633  15.715   5.143  16.672 -0.1547  0.0344  0.0657
96770W        W97634   7.769  19.386   3.330 -0.0673 -0.0598 -0.2285
96771W        W97635  11.594  14.354   4.839  0.1471 -0.2094 -0.0702
96772W        W97636   5.327  21.906   6.069 -0.1855 -0.2676 -0.2094
96773W        W97637   4.938   4.370   7.390  0.0707 -0.1986 -0.0042
96774W        W97638  14.462   3.123  25.634 -0.0152  0.0039 -0.0260
96775W        W97639   0.215  25.881   5.399  0.0198  0.1659  0.2252
96776W        W97640  11.592  23.218   0.795 -0.3556  0.0204  0.0418
96777W        W97641  20.148  12.779   4.022  0.4716  0.0325 -0.2164
96778W        W97642  18.011  27.024  27.049  0.0848 -0.2785  0.2135
96779W        W97643  12.290  17.652  25.457 -0.0094 -0.1049  0.0421
96780W        W97644   6.825  23.377   1.417  0.4756  0.0903 -0.1236
96781W        W97645  13.794  13.894   8.040 -0.1215 -0.1159  0.1679
96782W        W97646  27.503  25.382   4.716 -0.2738 -0.0459  0.1290
96783W        W97647   4.563   1.106   2.736  0.0321  0.1165  0.2909
96784W        W97648   6.929  24.161  11.485 -0.2889  0.2491 -0.1876
96785W        W97649   7.409  22.495  25.726 -0.0542  0.0145 -0.1271
96786W        W97650   8.762   9.722  25.246 -0.1236  0.0129 -0.2273
96787W        W97651   4.128  17.329   6.965 -0.0811  0.2594 -0.1416
96788W        W97652   7.426  17.165  25.853 -0.0536  0.0249  0.0846
96789W        W97653  16.694  16.066  22.103  0.3210  0.1550 -0.0255
96790W        W97654  13.823  26.578  13.805  0.0601  0.0349  0.2145
96791W        W97655  12.634  26.030  13.472  0.3528  0.1318  0.0165
96792W        W97656  22.028   1.747   7.548  0.0405  0.0123 -0.0128
96793W        W97657  12.329  19.664   7.815 -0.0007 -0.2889  0.1451
96794W        W97658  18.474  10.160   0.428  0.2041  0.2571 -0.1275
96795W        W97659  25.656  25.508   6.099 -0.1262 -0.3177  0.2370
96796W        W97660  21.302  26.660   6.109 -0.0802 -0.3841 -0.3176
96797W        W97661  26.446  28.342   0.693 -0.0673 -0.3869  0.1034
96798W        W97662  12.060   1.747   2.301  0.1498 -0.1428 -0.0452
96799W        W97663   9.051  16.068  23.984 -0.0763 -0.1027  0.0014
96800W        W97664   1.121  27.984   6.658  0.0020  0.1423  0.0450
96801W        W97665  13.358  10.700  26.203 -0.1669  0.1004 -0.0410
96802W        W97666   7.731   8.937   8.614 -0.2242 -0.0177 -0.1731
96803W        W97667   6.449   8.867   6.875 -0.1223  0.0147  0.0191
96804W        W97668   7.972   4.948   1.381 -0.1006  0.0046 -0.2523
96805W        W97669   6.415  17.939  23.535  0.0146 -0.0443  0.2689
96806W        W97670  22.162  15.947   6.021  0.2214 -0.0720  0.2570
96807W        W97671   5.393  11.995   3.840 -0.0175 -0.3253 -0.0682
96808W        W97672   6.330  26.719   3.237 -0.3337 -0.0881  0.0453
96809W        W97673  11.724  22.460   3.799  0.2029  0.1419  0.1219
96810W        W97674   9.063  19.456   0.146 -0.2457 -0.0333  0.1359
96811W        W97675   9.003   6.229  19.612 -0.1597  0.2856  0.0284
96812W        W97676  12.900   1.901  14.873  0.2686 -0.1010 -0.0294
96813W        W97677  10.798   5.933  12.092 -0.3082  0.1030  0.0978
96814W        W97678  24.961  18.037  21.198  0.1824  0.2043 -0.1704
96815W        W97679   0.025   1.301   3.257 -0.1421  0.0244  0.3512
96816W        W97680  17.857   0.468  20.005 -0.3416 -0.2461 -0.0670
96817W        W97681   6.854  22.485  15.884  0.2554 -0.1586 -0.0640
96818W        W97682  11.141  22.642  28.051 -0.1661  0.0163 -0.1199
96819W        W97683  10.339  12.323   1.770 -0.0295 -0.2393 -0.0737
96820W        W97684  14.379  10.583  19.052  0.2626  0.0633 -0.1423
96821W        W97685   2.843  20.960   2.786  0.0223  0.1204 -0.1476
96822W        W97686  11.403  25.380  15.799 -0.1377 -0.2630  0.3823
96823W        W97687  27.750  21.785  12.696  0.3017 -0.1612  0.1573
96824W        W97688  25.275   1.221  15.411 -0.0729 -0.0090  0.2695
96825W        W97689  14.477  25.264  27.023 -0.2948  0.1751 -0.0035
96826W        W97690  13.436  25.506   8.601 -0.1194  0.1012  0.0735
96827W        W97691   4.413  29.137   3.337 -0.1056  0.0203 -0.1374
96828W        W97692  21.364  12.553   6.670 -0.0504  0.0217  0.0835
96829W        W97693   3.420  22.928  10.875  0.0985  0.0528  0.1693
96830W        W97694   4.255   0.821   3.927  0.5178  0.0067  0.2009
96831W        W97695   5.505  20.750   0.977  0.1457 -0.2036 -0.0918
96832W        W97696  27.032  13.791  20.575  0.2813 -0.0575 -0.2849
96833W        W97697   8.690  12.772   6.542 -0.1319 -0.3728 -0.1665
96834W        W97698  25.571  22.650  16.860  0.0887  0.1690  0.1738
96835W        W97699   0.745  21.434   0.304  0.3141  0.1775 -0.1371
96836W        W97700  11.594  26.709   0.881  0.0146 -0.3128 -0.1604
96837W        W97701  11.470  15.596  28.819  0.2294 -0.2337  0.3507
96838W        W97702   5.963  21.484   7.641 -0.0376  0.1076 -0.2654
96839W        W97703   1.069  13.278   6.586  0.1100  0.1783  0.4411
96840W        W97704  21.010  14.167   4.046 -0.1064 -0.2351 -0.1485
96841W        W97705   3.759  19.823   9.045 -0.0285 -0.1953  0.1079
96842W        W97706  25.048   7.181  12.815 -0.0176 -0.3843  0.1370
96843W        W97707  11.501  12.445  11.895  0.1338  0.1209 -0.1973
96844W        W97708  20.637   1.202  24.603 -0.1259  0.1300 -0.1402
96845W        W97709   2.092  28.896   9.932  0.1803 -0.1866 -0.0407
96846W        W97710   9.677  17.607  16.056 -0.3609 -0.1226  0.2674
96847W        W97711   9.178   0.395  16.875 -0.1035 -0.1623 -0.2207
96848W        W97712  27.388  10.615  17.898 -0.4378  0.0423 -0.2323
96849W        W97713  10.696  15.772  24.609  0.1203  0.2761 -0.0702
96850W        W97714   9.585  24.414  25.263 -0.2721  0.1490  0.2860
96851W        W97715  11.731  17.311   8.874  0.2072 -0.1657 -0.0092
96852W        W97716  14.805   2.112  18.594 -0.0095  0.2436 -0.1850
96853W        W97717  13.820  10.114  24.284  0.3291  0.0401 -0.1514
96854W        W97718   7.859   9.966   1.051 -0.2626  0.2632  0.0754
96855W        W97719   3.969   4.185  19.759 -0.1282  0.0596 -0.2138
96856W        W97720  11.869   9.705  27.357  0.0593 -0.2124  0.2677
96857W        W97721  27.383  15.557  24.035 -0.1017  0.3503 -0.3038
96858W        W97722  28.057  17.696   1.920 -0.2094 -0.1657 -0.1960
96859W        W97723  13.392   1.524  13.150 -0.1530  0.0584 -0.4107
96860W        W97724  16.537  15.785  14.550  0.1166 -0.0868 -0.0340
96861W        W97725  19.859  28.412  10.146  0.2036  0.2284 -0.1462
96862W        W97726  12.472  23.318   8.436  0.2339  0.3072  0.1982
96863W        W97727  14.632   3.323   6.887 -0.0983  0.1955  0.0941
96864W        W97728   3.648  27.986  21.011 -0.1067 -0.0529 -0.0860
96865W        W97729  11.552  16.564  28.342 -0.1216 -0.1307 -0.1148
96866W        W97730  16.146   6.314  18.826 -0.0999  0.0748  0.0700
96867W        W97731  25.140  11.729  20.155 -0.3172 -0.0663 -0.1241
96868W        W97732   3.862  22.586  14.006 -0.1044  0.0104 -0.3042
96869W        W97733   1.122  16.141  10.634 -0.4783 -0.0022  0.0377
96870W        W97734  25.713  27.595  24.575 -0.0462  0.0595 -0.0198
96871W        W97735   1.582  10.412  17.776  0.1825  0.3383 -0.0685
96872W        W97736   6.493  15.455   4.784 -0.0286  0.0321  0.0484
96873W        W97737  19.835  24.011   6.679 -0.2584 -0.0517 -0.3121
96874W        W97738   7.590  13.189   8.105  0.0543 -0.0718  0.1093
96875W        W97739  14.778  28.376  28.183 -0.4250  0.4128  0.1195
96876W        W97740  24.508  19.546  27.419  0.0466  0.1548 -0.1960
96877W        W97741   8.094  14.710  25.207  0.3692 -0.0741 -0.2602
96878W        W97742   3.258   3.997  27.357 -0.2187 -0.1396 -0.0242
96879W        W97743  28.453   2.313   8.640 -0.1539 -0.1557 -0.0869
96880W        W97744   3.947   2.065  14.586  0.1824  0.1189  0.2826
96881W        W97745   7.825  18.588   8.398 -0.0386  0.2609  0.0085
96882W        W97746  14.663  21.018  15.293 -0.0121 -0.0024  0.0729
96883W        W97747   3.525  24.376   0.606 -0.4535  0.0495 -0.1879
96884W        W97748   3.984  25.900  26.611  0.0070 -0.1790  0.0951
96885W        W97749   3.563  24.737  11.396 -0.0265 -0.0770 -0.5503
96886W        W97750  14.067   9.279  23.291  0.0077 -0.0421 -0.0599
96887W        W97751  18.985  20.569  18.368  0.0049 -0.1274 -0.1313
96888W        W97752  16.288   7.688   9.594 -0.1087  0.0919 -0.0115
96889W        W97753  28.454  20.170  27.344 -0.1426  0.2269 -0.0368
96890W        W97754   5.692  24.136  21.725  0.1726  0.1012 -0.0667
96891W        W97755  13.606  22.542   2.350  0.0257 -0.1895 -0.1799
96892W        W97756  25.288   9.590  13.052  0.0380 -0.0865 -0.0306
96893W        W97757  20.906  16.927   2.318  0.1125 -0.0314  0.4147
96894W        W97758   0.513  26.448  16.274  0.0558  0.1729  0.0051
96895W        W97759   9.347  25.130  17.223 -0.0941 -0.4112  0.0512
96896W        W97760  23.751   2.980  21.651 -0.0832  0.0863  0.1663
96897W        W97761  15.055  12.318  19.367  0.0233  0.1535  0.2929
96898W        W97762  17.121  12.000  20.203 -0.0331  0.3045  0.0533
96899W        W97763  23.964  26.353  14.909  0.4277  0.2242  0.2044
96900W        W97764   8.992  14.988   2.772  0.2342  0.0171  0.2751
96901W        W97765  18.005  11.492  28.606  0.4085 -0.0617 -0.2032
96902W        W97766  14.176  25.504  25.627  0.0870  0.3864 -0.0617
96903W        W97767   3.263  27.467   0.680  0.0244  0.1282 -0.1707
96904W        W97768  26.573  24.472   2.244 -0.2400  0.1517 -0.0600
96905W        W97769   2.832   1.717   1.855 -0.1521 -0.1748 -0.1133
96906W        W97770  11.007  25.139  24.331 -0.2091  0.3078 -0.0740
96907W        W97771  18.340   1.954   6.130  0.3351  0.1458 -0.1366
96908W        W97772  11.331   9.487  11.482 -0.1817 -0.1409  0.0904
96909W        W97773  15.979  11.822  25.835 -0.1718 -0.0431  0.2593
96910W        W97774  11.320  12.468  17.353 -0.1956 -0.1507 -0.0295
96911W        W97775  12.285  20.288  28.001 -0.4856 -0.1124 -0.2288
96912W        W97776   2.823   3.207   7.042 -0.2960 -0.1036 -0.0288
96913W        W97777  14.536   2.507  28.534  0.2568 -0.1134 -0.0089
96914W        W97778   2.021   1.390  10.686 -0.0224 -0.0991 -0.3229
96915W        W97779  10.233  24.200   8.157  0.3904  0.0282 -0.1448
96916W        W97780  10.211   7.000  11.658  0.1698  0.1059  0.2672
96917W        W97781  13.363  17.451   9.629  0.2876  0.0515 -0.0733
96918W        W97782  20.744  10.218  25.025  0.1861  0.2139  0.0565
96919W        W97783  13.482   5.725   8.109  0.0517 -0.2315  0.1352
96920W        W97784  21.469  28.323   6.330 -0.1528 -0.1925  0.1514
96921W        W97785   2.104  19.922  23.485  0.1012 -0.0023  0.1753
96922W        W97786  19.229  23.058   2.526  0.1744  0.0336  0.2429
96923W        W97787  27.365  26.024   2.392 -0.0907  0.3458  0.2550
96924W        W97788  27.825  20.239  16.783  0.2077  0.4120  0.3478
96925W        W97789  17.453  25.514  19.995 -0.0240  0.0288  0.3446
96926W        W97790  26.463  16.881  27.243 -0.1602 -0.0997 -0.0718
96927W        W97791  19.599  14.943  22.813 -0.0907 -0.0858  0.3210
96928W        W97792  23.337  16.616  11.706 -0.0820  0.0730  0.0942
96929W        W97793  20.272  23.721  10.213  0.0644  0.0869 -0.0820
96930W        W97794  11.643   5.533   3.203  0.2552 -0.1510 -0.0556
96931W        W97795  13.326  13.556  18.625 -0.3025 -0.0832 -0.1919
96932W        W97796   5.465  17.675   1.833 -0.0823  0.1495 -0.0959
96933W        W97797  24.635  12.485  10.740  0.1706 -0.0691  0.1582
96934W        W97798  10.674   7.571   4.027 -0.3581  0.1448 -0.0169
96935W        W97799   5.103  17.286  28.595 -0.1466 -0.3220 -0.1749
96936W        W97800  15.995  20.354   2.070 -0.1309  0.0541 -0.0168
96937W        W97801  20.545  12.761  22.612 -0.0999 -0.1497  0.3416
96938W        W97802  14.953   6.071   8.952  0.4691  0.0089 -0.0057
96939W        W97803  27.044  25.362  21.942  0.0229 -0.1417  0.1430
96940W        W97804  12.824  17.770  11.697 -0.2185  0.0905 -0.0238
96941W        W97805  15.802  26.952  26.174 -0.0506  0.1409  0.1870
96942W        W97806  27.073   9.962  12.990 -0.1406  0.0711  0.2632
96943W        W97807  15.128   9.712   8.864  0.1349  0.2276 -0.1624
96944W        W97808  16.532  11.818   5.098 -0.0334  0.1396 -0.1017
96945W        W97809  28.729  23.073  27.942 -0.0301  0.1738  0.1149
96946W        W97810   4.043  26.715   5.471 -0.1814  0.3958  0.0766
96947W        W97811  13.909  21.931   5.674  0.1108  0.4903  0.0238
96948W        W97812   0.592   9.542   9.244  0.0599 -0.1966  0.3158
96949W        W97813   6.595  20.617  13.081  0.1526  0.0994 -0.2018
96950W        W97814  13.148  15.047  23.082  0.1274 -0.1680  0.1752
96951W        W97815  23.123   0.426  18.721  0.4313 -0.1556 -0.2401
96952W        W97816   7.183  23.346  27.897 -0.1232 -0.0716 -0.2728
96953W        W97817  22.643  18.083  17.826 -0.0886 -0.4231  0.1428
96954W        W97818  19.116  18.641  14.408  0.1497  0.0737  0.2096
96955W        W97819   3.202  21.584   2.169 -0.1585 -0.0099  0.1135
96956W        W97820  25.773  17.773  17.961  0.0629 -0.3337 -0.1379
96957W        W97821  12.008  23.997   8.142  0.0462  0.1085 -0.0373
96958W        W97822  12.466   3.770   8.352 -0.0685 -0.0406 -0.1117
96959W        W97823  24.745  25.796   4.592 -0.3636  0.3541 -0.0314
96960W        W97824   6.451   9.812   1.880  0.0204  0.0324  0.1502
96961W        W97825   6.995   2.772  17.805 -0.1593  0.0157 -0.1372
96962W        W97826   1.470  27.369   4.625 -0.2390 -0.0351 -0.0554
96963W        W97827   9.500   0.186  20.162  0.0479 -0.4632 -0.1042
96964W        W97828  21.082   7.054   3.738 -0.1101 -0.0668 -0.0348
96965W        W97829  27.258  19.526   9.853 -0.0992  0.2452 -0.1848
96966W        W97830  16.398  17.271  26.021  0.1370  0.1730  0.1229
96967W        W97831  18.465   6.912   7.041  0.0297  0.0436 -0.0956
96968W        W97832  17.739  24.920  12.179 -0.0643 -0.0913 -0.0347
96969W        W97833  21.138  24.580   9.569  0.0237  0.0476 -0.2614
96970W        W97834   3.050  15.197  18.983  0.0768  0.3232  0.0634
96971W        W97835  10.199   1.865   0.924 -0.0751  0.0324 -0.1790
96972W        W97836  20.234  25.704   0.714  0.0469  0.0461 -0.1406
96973W        W97837   1.377   8.791  29.073  0.0727 -0.0474 -0.2588
96974W        W97838   1.209   7.494   5.870  0.2329  0.1441 -0.3047
96975W        W97839   4.533   8.905   7.761  0.1716  0.0046  0.0389
96976W        W97840  19.885  26.615  25.810  0.0338 -0.0506  0.3474
96977W        W97841  26.778  10.609  18.130  0.2263 -0.1769  0.0673
96978W        W97842  16.180  26.129  13.809  0.0198 -0.0384  0.1633
96979W        W97843  19.270   9.084   1.576 -0.1908  0.0022 -0.2478
96980W        W97844  22.802  23.404   4.036  0.1533 -0.3369 -0.1241
96981W        W97845  28.177  28.296   4.395  0.1360  0.2525 -0.0261
96982W        W97846  16.178  28.430   0.686 -0.1173 -0.2114 -0.1061
96983W        W97847  12.714   7.317   9.066  0.0536  0.1102 -0.0448
96984W        W97848  11.285  11.788  10.216  0.0274 -0.2315  0.0753
96985W        W97849   7.374  16.691   5.549  0.1101 -0.1516  0.0252
96986W        W97850   5.525  26.852   9.688 -0.0539  0.1501 -0.0312
96987W        W97851  19.997  25.881   2.451 -0.3299 -0.1199  0.2815
96988W        W97852   4.258  28.411  26.277  0.2185  0.5679 -0.0193
96989W        W97853  11.680  24.127  28.122  0.2088  0.2401 -0.2864
96990W        W97854  16.745  12.583   7.430 -0.2647  0.0803  0.2596
96991W        W97855  25.339  21.993  12.914  0.0132 -0.0502  0.1111
96992W        W97856  19.567  25.330   1.898  0.1756  0.2334 -0.1996
96993W        W97857  12.086  13.935  22.491 -0.2441 -0.4246  0.0250
96994W        W97858  13.839  25.613  14.125  0.0369  0.1666 -0.0340
96995W        W97859  15.230  15.707  28.958  0.2223 -0.2178 -0.0940
96996W        W97860  15.274  16.473  19.808  0.1726  0.0607 -0.2839
96997W        W97861  26.465  22.682  11.969  0.1541 -0.2982 -0.4194
96998W        W97862   8.308  16.214  16.787  0.0493  0.1066 -0.0078
96999W        W97863  24.502  26.985  20.243 -0.1132  0.0531 -0.2628
97000W        W97864   5.946   0.217  22.318 -0.0125 -0.2575 -0.2377
97001W        W97865  12.603  20.114   0.803  0.0644 -0.0366 -0.0933
97002W        W97866   2.880  18.325  18.122 -0.0894 -0.1504 -0.0545
97003W        W97867  18.898  11.919  14.035  0.1647 -0.0261 -0.1241
97004W        W97868  24.463  16.807   7.542  0.3681 -0.2118  0.0106
97005W        W97869  11.258   8.547   3.748  0.0423  0.1424 -0.1807
97006W        W97870   7.189   4.808   5.704 -0.0593  0.0297 -0.0271
97007W        W97871  24.005  10.208   5.946 -0.0938 -0.2553  0.1038
97008W        W97872   9.717  25.697  14.236 -0.2965  0.0381  0.1210
97009W        W97873  11.421  16.882  17.677  0.0180  0.2514  0.1295
97010W        W97874   6.812  19.653  13.748  0.1864 -0.2346 -0.3044
97011W        W97875  27.300   4.705  25.630 -0.0436 -0.1360 -0.1129
97012W        W97876   6.954  24.484  18.436  0.1348  0.0508 -0.0155
97013W        W97877   9.031  11.118   8.697  0.3852  0.0718 -0.1900
97014W        W97878  20.951  20.650   7.142 -0.1723  0.1100 -0.0937
97015W        W97879  25.705   1.968   2.239  0.0368 -0.0459  0.1396
97016W        W97880  14.555   6.973  13.530  0.1424 -0.0624  0.1879
97017W        W97881  27.496  15.152   9.573  0.0293 -0.0745 -0.3071
97018W        W97882  13.074  25.922   5.234 -0.0288 -0.2719 -0.0624
97019W        W97883  16.430  11.876  22.996  0.0576  0.0363  0.1868
97020W        W97884  20.573  24.821  28.153  0.2074  0.0123  0.1407
97021W        W97885  24.362  12.830  11.105 -0.2492  0.1167 -0.0620
97022W        W97886  12.311  26.004  19.717 -0.2063 -0.1883  0.1502
97023W        W97887  10.829  14.686   4.223  0.2035 -0.1507  0.3329
97024W        W97888   8.158   2.123  10.499 -0.0449 -0.0280 -0.1263
97025W        W97889  12.086  19.563  24.891 -0.2088 -0.1279 -0.0621
97026W        W97890  21.842   1.941  25.860  0.2575  0.2190 -0.0188
97027W        W97891   2.845   8.220  10.887 -0.1650  0.1933  0.1346
97028W        W97892  12.529   8.032   0.172  0.3004 -0.1054 -0.1059
97029W        W97893  14.621  18.520  13.264  0.1556 -0.0595  0.1989
97030W        W97894   4.681  27.137   9.899  0.1971 -0.1346  0.2365
97031W        W97895   9.606  19.387   6.165 -0.0758  0.0524 -0.1030
97032W        W97896  11.892   1.206   2.749  0.2272 -0.0091 -0.0277
97033W        W97897  24.299  26.903   8.363 -0.0521 -0.3280  0.0238
97034W        W97898  26.597  12.027  17.950 -0.1111  0.0446 -0.2055
97035W        W97899   8.602  22.718   6.368  0.0894 -0.1121  0.0745
97036W        W97900  14.344  26.583   9.030 -0.1880  0.3207 -0.0870
97037W        W97901   1.685   5.276  15.476 -0.1150  0.2371 -0.0328
97038W        W97902  11.588   3.965   3.009  0.0889  0.2957  0.0356
97039W        W97903  14.614   0.176   6.159 -0.1030  0.3967  0.0869
97040W        W97904  14.232   6.619  17.099 -0.1577 -0.0540 -0.1131
97041W        W97905   7.110  21.069  11.957  0.0264 -0.3720  0.0600
97042W        W97906   1.872  26.112  12.503 -0.0041  0.0511 -0.0479
97043W        W97907  13.175   6.532  19.792 -0.0263  0.1325 -0.2221
97044W        W97908  14.396   6.252  25.185  0.1018 -0.1667 -0.1920
97045W        W97909  24.766  15.532  12.720  0.0116 -0.1441 -0.2433
97046W        W97910  15.298  27.645   4.659 -0.1304  0.0714  0.1884
97047W        W97911  18.439   3.491   4.772 -0.1688  0.0325  0.2194
97048W        W97912   2.833  11.952   1.755 -0.0860  0.1378  0.2576
97049W        W97913   6.307   0.568   3.463  0.0370  0.2247  0.1820
97050W        W97914  10.619  26.498   5.963  0.0839  0.1868  0.0356
97051W        W97915   4.635   9.407  20.648  0.3760 -0.2021  0.0328
97052W        W97916  14.888  22.017  11.898 -0.1313  0.1364 -0.0769
97053W        W97917  24.426  27.833  19.919 -0.0952  0.0709  0.1972
97054W        W97918   9.200   7.363  27.626  0.1907  0.3442 -0.2923
97055W        W97919  24.585  12.381  21.402 -0.1341  0.0117 -0.1488
97056W        W97920  17.013  26.675  14.630 -0.1158 -0.2701  0.0541
97057W        W97921   0.432  24.729  25.458  0.0425  0.2585  0.1020
97058W        W97922  10.295  10.959   9.585  0.2645  0.0918  0.3325
97059W        W97923  23.278  22.494   6.520 -0.0794  0.2873  0.0382
97060W        W97924  22.663  18.185  27.132 -0.0272 -0.0601  0.0466
97061W        W97925  13.839  18.290  10.202 -0.2412  0.1656 -0.0487
97062W        W97926  11.814  22.950  10.269 -0.3565 -0.0681 -0.1111
97063W        W97927  14.099  28.820  21.788 -0.5135  0.1912  0.1363
97064W        W97928  24.411  26.824   8.817  0.2723  0.0752 -0.3674
97065W        W97929  15.687  23.157   3.107 -0.1541 -0.1743 -0.1460
97066W        W97930   2.726   7.694   9.100 -0.1978 -0.1558  0.1155
97067W        W97931  28.469  27.288  22.932 -0.1126  0.1928 -0.1618
97068W        W97932  20.024   3.148  12.274 -0.0067 -0.1986 -0.0607
97069W        W97933  23.788   2.267  14.108  0.0656 -0.4069 -0.0560
97070W        W97934   6.971   0.075  27.316  0.0790  0.0247 -0.0951
97071W        W97935  22.289   7.643  12.368  0.3255  0.1685 -0.0852
97072W        W97936  12.350   2.054  11.040 -0.2151  0.0632 -0.1219
97073W        W97937  10.120  15.288   3.312  0.1322 -0.3118 -0.0207
97074W        W97938  13.402   2.879   6.484 -0.1932  0.1985  0.1290
97075W        W97939  18.244  24.495  16.330 -0.2533  0.2520 -0.1002
97076W        W97940   9.177  28.515   6.864  0.3127  0.4052  0.0963
97077W        W97941   3.100  11.177  16.160 -0.0627  0.0015 -0.1294
97078W        W97942  11.462  25.017  18.182  0.2889  0.2127  0.0978
97079W        W97943  23.953  24.795   3.912 -0.0770 -0.4909 -0.1648
97080W        W97944  25.305  26.316   3.466 -0.0156 -0.3317 -0.1972
97081W        W97945   9.982  17.849  18.711  0.1120 -0.0108  0.0265
97082W        W97946  17.993   4.643  10.159 -0.0868 -0.2851  0.2792
97083W        W97947  20.583  22.109  28.457 -0.0336 -0.0093 -0.3101
97084W        W97948   6.020  13.683   3.988 -0.3380  0.0937  0.0922
97085W        W97949  13.089  14.928   2.170  0.3612  0.0079 -0.4048
97086W        W97950  18.574  19.991   7.753  0.2866 -0.3581 -0.0860
97087W        W97951   9.783  26.554   1.772 -0.0137 -0.3014  0.0329
97088W        W97952  10.233  13.343  23.265 -0.3982 -0.0897 -0.2240
97089W        W97953   2.929  27.900  17.698  0.0298  0.1041 -0.0345
97090W        W97954   0.798  12.408   5.456  0.2336 -0.1921  0.0169
97091W        W97955  21.390  28.507  10.345 -0.0647 -0.0906 -0.2219
97092W        W97956   8.825  13.345  18.679 -0.1046 -0.0685 -0.2934
97093W        W97957  25.848  25.321  24.026  0.1528  0.2580  0.2755
97094W        W97958  17.000   1.648  15.649  0.1234 -0.0441 -0.4424
97095W        W97959   5.342   0.648   7.959  0.1426 -0.1932 -0.2813
97096W        W97960   7.645  27.483  18.203  0.1514 -0.0090  0.3778
97097W        W97961   7.284  28.518   8.368 -0.0514  0.1747 -0.1178
97098W        W97962   0.331   3.078   3.020  0.0393 -0.1537  0.0076
97099W        W97963  13.003  11.083  16.436  0.1176  0.0461  0.0769
97100W        W97964  28.091  18.884   5.926 -0.0486 -0.1231  0.1156
97101W        W97965   3.407  20.992  28.153 -0.1405 -0.2272  0.1763
97102W        W97966   7.104   2.584  16.478  0.1897 -0.0712 -0.2933
97103W        W97967   1.701  17.514  10.997 -0.2086 -0.1597 -0.0422
97104W        W97968  11.968   4.762   8.257 -0.1187  0.0742  0.0233
97105W        W97969  14.048  14.237  25.772 -0.1564  0.0926  0.1935
97106W        W97970  25.058  23.736  13.136  0.0917  0.1716  0.1167
97107W        W97971   9.738  23.276   2.740  0.0412 -0.1548 -0.0954
97108W        W97972   1.227  20.692  26.449  0.0098 -0.0852  0.0310
97109W        W97973  12.485   1.721  22.916  0.3253  0.0642 -0.0019
97110W        W97974   7.086  28.867   4.458  0.0262  0.1936  0.0842
97111W        W97975   3.375   1.914  12.788  0.0435 -0.0012  0.1136
97112W        W97976  16.052   8.582   1.144  0.0764 -0.0746 -0.0418
97113W        W97977  16.431   8.787   3.925  0.0749  0.2196  0.0565
97114W        W97978  12.978  22.833  28.206 -0.1118 -0.0649  0.1445
97115W        W97979   8.934  21.440  13.650  0.3254 -0.0584  0.0993
97116W        W97980   3.641  17.755  23.466  0.0684  0.0514  0.2727
97117W        W97981   6.857   1.463  16.708  0.0441  0.0161  0.0962
97118W        W97982  21.732  28.984  19.587 -0.1379  0.2705 -0.2662
97119W        W97983  27.702   8.793   4.572 -0.1044 -0.5335  0.0252
97120W        W97984  12.281  17.701  19.764  0.0283 -0.1492 -0.0607
97121W        W97985   8.675  25.358  19.746 -0.2457  0.1755 -0.0305
97122W        W97986   8.693   7.628  12.393  0.0222 -0.0120  0.1101
97123W        W97987   9.960   7.703   0.820  0.1104  0.1794  0.1366
97124W        W97988   3.748  16.020  12.407  0.1890  0.2931 -0.1289
97125W        W97989  14.830  28.801  10.831 -0.2025  0.0712 -0.3290
97126W        W97990  16.552   6.304   9.152 -0.3092 -0.0345 -0.1793
97127W        W97991   3.544  13.825   4.982 -0.1147 -0.2525 -0.2252
97128W        W97992   4.645   3.877   3.822  0.0865 -0.0144  0.0757
97129W        W97993   7.474  12.626  21.856  0.0663 -0.0180 -0.2599
97130W        W97994   2.097  18.623  11.754 -0.1452  0.0467  0.1809
97131W        W97995  21.094   0.533  20.893  0.0765  0.0075 -0.2635
97132W        W97996   7.246   1.320  18.874 -0.1674  0.0319  0.1096
97133W        W97997  20.577   1.587  14.194  0.1517  0.0287  0.0918
97134W        W97998   9.911  11.604  15.256 -0.2219  0.0644 -0.1883
97135W        W97999   4.080  24.689   1.881  0.1982 -0.0310 -0.4453
97136W        W98000  22.331   1.616   0.194  0.0304 -0.0911 -0.0780
97137W        W98001  18.619  19.015  11.153 -0.1934 -0.0043  0.2048
97138W        W98002  20.136   7.343  11.174 -0.0987  0.0842  0.2505
97139W        W98003   0.930  23.283   2.372 -0.2120  0.1902  0.1090
97140W        W98004  11.317  12.456  21.760  0.2825  0.2236 -0.0597
97141W        W98005  13.998  21.353   0.200  0.1812  0.2593  0.3757
97142W        W98006   7.744  25.041  13.013 -0.1072 -0.1157  0.1545
97143W        W98007   5.873  21.531   8.571 -0.0896  0.0054  0.2660
97144W        W98008   3.989  15.808  19.332 -0.0263  0.0012 -0.0361
97145W        W98009   6.425   0.152  26.206  0.1634 -0.1680 -0.0241
97146W        W98010   6.723  13.109   5.654 -0.1354  0.1047  0.1779
97147W        W98011   0.867  24.637   1.679 -0.0594  0.1417  0.0363
97148W        W98012   8.648  18.408  21.211 -0.0311 -0.1681 -0.0538
97149W        W98013   4.317   6.076  27.598  0.1755 -0.1501  0.1027
97150W        W98014  14.181   1.016   6.070  0.0425 -0.1030  0.2951
97151W        W98015   6.737   4.537  16.896  0.0196 -0.2461  0.0196
97152W        W98016   9.089  21.148   4.860 -0.2971  0.1871  0.1038
97153W        W98017  21.892  16.569  12.417 -0.1799  0.2211 -0.3770
97154W        W98018   3.877  28.919   5.029  0.0234 -0.0639  0.0775
97155W        W98019  10.482  15.406  18.371  0.1661  0.0127  0.0218
97156W        W98020  12.436  26.600  12.898  0.3496  0.2402  0.0153
97157W        W98021  21.333  11.789  25.276  0.2031 -0.0329 -0.2157
97158W        W98022  13.387  19.401  26.509  0.3465  0.0392  0.3801
97159W        W98023  11.773  17.146   0.018  0.2694  0.1090 -0.2030
97160W        W98024  13.709  18.710  11.015  0.4680 -0.2566 -0.3352
97161W        W98025  13.660   4.169   7.943  0.2094 -0.1791  0.0861
97162W        W98026  23.222   2.679   5.612 -0.3207  0.0179 -0.3141
97163W        W98027   8.122  28.736  24.760  0.0615 -0.0590 -0.2654
97164W        W98028  19.070   5.509   5.955  0.0136  0.2440 -0.1672
97165W        W98029   1.556   3.782  19.519  0.2150  0.0769 -0.2268
97166W        W98030  21.064   8.237  15.790 -0.0533  0.1462 -0.1836
97167W        W98031  10.318  26.347   3.735 -0.0314  0.0416  0.2647
97168W        W98032  11.378  21.316  11.572 -0.3004 -0.4219 -0.1546
97169W        W98033  14.311   6.841  10.484  0.0650  0.0001 -0.1501
97170W        W98034  12.127  13.051  11.898  0.1480  0.0496 -0.2328
97171W        W98035  22.126  23.953   0.150 -0.0752  0.3945 -0.1225
97172W        W98036   7.191  17.087  16.940  0.0099  0.0101 -0.3188
97173W        W98037   1.158  19.121  11.692  0.1348  0.0406 -0.0714
97174W        W98038   8.276  28.026  25.121 -0.0943  0.0005  0.1761
97175W        W98039  17.449   3.119  10.130  0.0986  0.0243  0.2645
97176W        W98040  18.214  24.035  15.575  0.0804 -0.0378 -0.4294
97177W        W98041  10.106  27.958   7.361  0.2918  0.3718 -0.1214
97178W        W98042  16.234   0.006  14.787 -0.0400  0.1664  0.0159
97179W        W98043   1.823  12.294  25.293 -0.0887  0.2791  0.1069
97180W        W98044   8.737  17.435   2.059  0.3603  0.0139 -0.1856
97181W        W98045   6.488  27.469  13.013  0.0660 -0.2345 -0.4678
97182W        W98046   9.408  26.616  13.825  0.0004 -0.5228 -0.1281
97183W        W98047  25.755   3.929  11.731  0.2481 -0.1174  0.1709
97184W        W98048  21.037   0.651   9.658 -0.1807 -0.1634  0.0707
97185W        W98049  26.904   7.933  10.860 -0.2010  0.1200  0.1030
97186W        W98050  13.312  19.731  14.670 -0.0478 -0.0300 -0.0421
97187W        W98051  17.919   3.003  26.612 -0.0027  0.1878  0.1311
97188W        W98052  11.343  27.137  21.968 -0.3636 -0.1813 -0.0851
97189W        W98053   3.737   1.865  10.407 -0.1348  0.0566  0.0482
97190W        W98054   5.531  24.627  28.246 -0.1550 -0.0758  0.2381
97191W        W98055  13.726   6.373   1.176 -0.1010  0.3773  0.0630
97192W        W98056   1.941   3.694  13.458  0.0975 -0.1063 -0.0210
97193W        W98057   6.921  18.055  11.495  0.1859 -0.2551 -0.0223
97194W        W98058   8.908  19.326  14.609 -0.1660  0.0105 -0.1741
97195W        W98059  12.357  13.893   6.845 -0.1112 -0.0729 -0.1091
97196W        W98060  10.093   0.695   3.444 -0.0243  0.4219  0.0581
97197W        W98061   1.986   5.157  11.076  0.0397  0.1127  0.1789
97198W        W98062  17.960  20.111   9.900  0.3002  0.2678  0.2154
97199W        W98063   3.971  12.396  13.285  0.1210 -0.3115 -0.1743
97200W        W98064  11.537   0.345  16.497  0.1509  0.0429 -0.1013
97201W        W98065  13.238  22.575  26.153 -0.1604 -0.2963  0.0138
97202W        W98066   5.457  20.264   1.177 -0.0108 -0.1530  0.1299
97203W        W98067  20.847  15.601  27.825  0.1102 -0.2193 -0.0052
97204W        W98068   3.617   9.495  16.449 -0.0677  0.1330  0.0933
97205W        W98069  12.438   3.937  25.303  0.0734  0.1972 -0.4800
97206W        W98070  17.695  12.298   9.758 -0.1293 -0.2927  0.2635
97207W        W98071  10.544  20.381   3.968  0.0343  0.0872  0.2030
97208W        W98072   6.905   4.800  17.348  0.0093  0.0616  0.2043
97209W        W98073   7.649  29.108   3.863 -0.2279 -0.3313  0.1850
97210W        W98074  16.270  13.646  12.911 -0.3280 -0.1582  0.1005
97211W        W98075   8.705   9.067  14.597  0.0366 -0.1008 -0.0369
97212W        W98076  22.911  24.068   8.890  0.3677 -0.1334 -0.0439
97213W        W98077   9.805  14.653   1.185 -0.1530 -0.3928 -0.1423
97214W        W98078   2.865   0.114  13.109  0.0078  0.0558 -0.2142
97215W        W98079  16.994  18.503  12.215  0.3728  0.1440  0.0852
97216W        W98080   2.252   6.285   0.572 -0.0729  0.3160  0.1226
97217W        W98081  27.965  23.292  17.129 -0.1623  0.0892  0.0600
97218W        W98082  21.655   3.228  11.461 -0.1641  0.0743  0.0659
97219W        W98083   1.492   6.356  28.645  0.0414 -0.0736  0.2031
97220W        W98084   5.259  24.046   8.364 -0.1630 -0.0826  0.0005
97221W        W98085   2.351  26.642  26.695  0.0681 -0.0958  0.0019
97222W        W98086  15.256  23.451  15.397  0.2393 -0.0927 -0.2250
97223W        W98087   7.447  24.840   5.937  0.0813 -0.1836  0.1334
97224W        W98088  16.371  28.745   1.086  0.2456  0.0316  0.0048
97225W        W98089  26.401   2.014  24.613  0.1898  0.0846 -0.0622
97226W        W98090  28.218   2.135  16.695 -0.0682  0.1755  0.0698
97227W        W98091  16.367  28.845   6.844 -0.0624  0.1510 -0.0727
97228W        W98092  12.906  28.190   6.638  0.0826  0.1293  0.3729
97229W        W98093  22.786  16.397  15.708 -0.1297 -0.1266 -0.3266
97230W        W98094  23.724  15.086   6.980  0.0240 -0.3357 -0.0559
97231W        W98095   8.926   9.657  26.972 -0.0410 -0.1882  0.0708
97232W        W98096  13.653  23.471   1.328 -0.2345 -0.2655 -0.1045
97233W        W98097   9.502  24.709   5.515  0.1784  0.1259 -0.0013
97234W        W98098  20.736  22.755  14.681  0.0321 -0.0667 -0.1563
97235W        W98099  10.278  24.103   9.055  0.2349 -0.0896 -0.1430
97236W        W98100  10.876  23.407  28.983  0.0912 -0.1586 -0.0525
97237W        W98101  11.216  17.950   0.355 -0.0492  0.4166  0.3168
97238W        W98102  17.485  16.305   2.431  0.0725  0.0942 -0.0200
97239W        W98103   3.023   6.482   7.227 -0.3815 -0.0691  0.3260
97240W        W98104   9.847   9.565  16.343 -0.0564  0.2634 -0.1432
97241W        W98105   7.878  21.899  26.828  0.2402 -0.0411 -0.1112
97242W        W98106  13.258   2.387  18.337  0.1385  0.3509  0.0406
97243W        W98107  13.142  13.181  12.427 -0.0100 -0.0679  0.1358
97244W        W98108  27.629  23.622  19.310 -0.1229  0.2175 -0.2407
97245W        W98109  18.103  17.684   7.599  0.1840 -0.5832 -0.0261
97246W        W98110  19.360  25.879  11.214 -0.3234  0.3847 -0.2675
97247W        W98111  12.666  24.345  11.108  0.1786  0.0559  0.1243
97248W        W98112   3.679  21.668   7.707  0.0847  0.0431 -0.0430
97249W        W98113  16.573  21.906  12.950 -0.1026  0.1004  0.1180
97250W        W98114  13.812   4.042  27.880 -0.1553  0.4203  0.1801
97251W        W98115  17.319   2.101  17.110  0.0323 -0.1351  0.1436
97252W        W98116  13.428  28.572  14.831  0.1837 -0.0178 -0.1526
97253W        W98117  28.146  27.416  28.977  0.1314 -0.0575  0.0454
97254W        W98118   3.275  28.287  28.029 -0.0149  0.1853 -0.1145
97255W        W98119   2.926   1.747   0.141  0.2256 -0.0209 -0.1076
97256W        W98120  12.004   3.272  15.445 -0.1390  0.0288 -0.2144
97257W        W98121  12.458  26.485   5.653 -0.3872  0.0293  0.0433
97258W        W98122  21.440  19.043  14.626 -0.0053 -0.0444 -0.0106
97259W        W98123  15.392  16.935  15.496  0.1075  0.1400 -0.3634
97260W        W98124  25.246  24.159  13.550  0.0110 -0.0124  0.0048
97261W        W98125  26.973  15.290  10.513 -0.0478 -0.1430 -0.0826
97262W        W98126   3.905   1.889  12.972  0.2763  0.0597 -0.0416
97263W        W98127  25.613   3.164  25.617 -0.1147 -0.1989 -0.0653
97264W        W98128  15.044  23.195  13.912 -0.1597  0.1107  0.0027
97265W        W98129  20.250  23.359  25.461 -0.0451  0.1325 -0.1612
97266W        W98130   9.228   1.366   4.915  0.2513  0.1106  0.1725
97267W        W98131  23.914  18.533  18.326  0.2030 -0.0514  0.1725
97268W        W98132   2.019  22.870   8.893 -0.1112  0.1396 -0.1139
97269W        W98133  18.655   9.793  28.303 -0.0325 -0.0607 -0.1068
97270W        W98134   4.858  13.759  24.374  0.1137 -0.0442 -0.0440
97271W        W98135   0.976  12.200  13.041  0.1663  0.1709  0.3443
97272W        W98136   4.427  21.653   8.824  0.0432  0.4292 -0.2200
97273W        W98137   0.575   4.310   7.579  0.0113  0.0072 -0.2761
97274W        W98138  28.044  18.108  15.438  0.0008  0.1098 -0.1422
97275W        W98139  24.263   5.513  17.030  0.1305 -0.0076 -0.4593
97276W        W98140  10.250   7.385  13.003  0.0315  0.1210 -0.0262
97277W        W98141  28.967  20.353  21.302  0.1031 -0.0293  0.3231
97278W        W98142  25.499   5.129  13.380 -0.1576  0.0607  0.0721
97279W        W98143   0.818   7.630  21.572 -0.0619  0.1614  0.0797
97280W        W98144   7.670   6.874   8.303  0.0013 -0.3303 -0.2063
97281W        W98145  15.906  27.390  15.306  0.1331 -0.0274 -0.4296
97282W        W98146  20.443  12.155  16.435  0.0936  0.0270 -0.1524
97283W        W98147  14.521  18.651  11.133  0.0591  0.1048  0.3415
97284W        W98148  23.048   4.810  25.142  0.1782 -0.3577 -0.2657
97285W        W98149  10.947  25.204   9.164 -0.0973  0.0686  0.0582
97286W        W98150  13.023  28.008  14.137  0.0474 -0.0018 -0.0325
97287W        W98151   9.435  14.434  17.371  0.0463 -0.4797  0.0668
97288W        W98152  11.868  21.158   9.575 -0.1876  0.1996 -0.1246
97289W        W98153   8.354  23.420  20.425  0.2045  0.0938 -0.0605
97290W        W98154   1.515   7.497   9.598  0.1229  0.0908 -0.2759
97291W        W98155   7.992  23.613  18.576  0.0332  0.1427 -0.3119
97292W        W98156   9.405  18.196  25.897 -0.1235 -0.1020 -0.0238
97293W        W98157   3.044  13.431  18.614  0.1366  0.1027  0.1831
97294W        W98158  11.277  27.260  16.577 -0.0791 -0.3271 -0.1799
97295W        W98159   2.742  22.031   2.674 -0.0510  0.0911 -0.2293
97296W        W98160  13.368  14.856  22.278  0.0702  0.2008 -0.0217
97297W        W98161  23.326  28.619  18.075  0.3069  0.1462 -0.0204
97298W        W98162   2.099  16.288  26.436  0.1194  0.0536 -0.0977
97299W        W98163  16.178  13.461   4.220 -0.3191 -0.5276  0.1441
97300W        W98164  13.508   3.329  28.429 -0.0146 -0.1647  0.0623
97301W        W98165  24.806   8.175   9.814  0.0467 -0.0648  0.0365
97302W        W98166   0.278   5.610  16.191  0.0485 -0.4296 -0.2248
97303W        W98167  16.967   1.236   5.491  0.3089  0.0925 -0.2922
97304W        W98168   8.068  14.468  10.634  0.3612 -0.2447 -0.0937
97305W        W98169  11.275  25.307  13.338  0.1739 -0.0779 -0.4894
97306W        W98170  18.316  16.215  21.106 -0.3589  0.2709  0.0389
97307W        W98171   3.959  25.791  19.186  0.0099 -0.1236 -0.3070
97308W        W98172  24.419  24.740  28.762 -0.1262  0.0879  0.3523
97309W        W98173   3.898  18.906   4.823 -0.0128 -0.1001 -0.1081
97310W        W98174   1.070   8.126  22.906 -0.2548  0.0173  0.1263
97311W        W98175  12.313  28.198   7.278  0.1710 -0.2011  0.2116
97312W        W98176   2.181  26.550   0.015  0.0774 -0.0844  0.0727
97313W        W98177  16.651  25.545   5.299 -0.0036 -0.0877 -0.0690
97314W        W98178   6.637   9.734   9.377 -0.1314  0.1899  0.1135
97315W        W98179  12.720  14.776  19.322 -0.1290 -0.0516  0.0982
97316W        W98180  19.727  21.426  28.540  0.0771 -0.0236  0.0596
97317W        W98181  27.793  18.691  26.288  0.0912 -0.0989  0.1441
97318W        W98182  18.349   1.145  19.989  0.0053  0.2139  0.0729
97319W        W98183  12.740  12.451  12.696  0.2833 -0.0477 -0.1489
97320W        W98184  23.981  23.997  25.966  0.0064 -0.0262 -0.2129
97321W        W98185  18.947   0.740   0.555 -0.3726 -0.1008  0.1839
97322W        W98186  29.055   6.075  19.107 -0.0392  0.0459 -0.2339
97323W        W98187  16.526  21.958   4.307 -0.2567 -0.1305 -0.4351
97324W        W98188   9.148  20.786  28.360 -0.0348  0.2995 -0.3849
97325W        W98189  12.332  18.965   6.653  0.0932 -0.2792  0.1885
97326W        W98190   5.069   0.462  17.948 -0.0775  0.4169  0.4388
97327W        W98191  18.212   6.190  23.297  0.0158  0.3840  0.3416
97328W        W98192   3.616  15.302  17.271 -0.1634 -0.0852  0.1179
97329W        W98193  13.634  18.475  13.402  0.2094 -0.0982 -0.0649
97330W        W98194  26.218  21.055   3.754 -0.2605  0.1554  0.0227
97331W        W98195   4.524  21.842   0.078 -0.1296 -0.2588  0.1239
97332W        W98196   7.988  22.016  14.229  0.0381  0.3567  0.2457
97333W        W98197  19.752   4.395   0.509 -0.1406  0.2211 -0.0831
97334W        W98198  21.024   7.541  20.499 -0.2154  0.2141  0.2761
97335W        W98199   7.558  23.695   7.308 -0.3198 -0.0360  0.1974
97336W        W98200   3.479   8.077  13.358  0.1181  0.3625 -0.1021
97337W        W98201   6.720  20.173  23.070 -0.0786 -0.1928  0.2436
97338W        W98202  28.954   8.907   7.084 -0.1195  0.0076  0.2646
97339W        W98203   9.464  23.820  14.431  0.0740 -0.0440 -0.0452
97340W        W98204  13.182  28.293  18.248 -0.0731 -0.0162  0.0662
97341W        W98205   0.984  24.305  14.301 -0.0439 -0.3404 -0.0212
97342W        W98206  10.591  25.780  17.499 -0.1053  0.0371 -0.2697
97343W        W98207  20.707  21.262  23.647 -0.2408 -0.0341  0.1056
97344W        W98208  19.638  17.070   6.416 -0.1633  0.1211  0.0285
97345W        W98209  17.855  14.023   4.202 -0.0129 -0.0509  0.1583
97346W        W98210   2.354  25.458  22.269  0.0796 -0.1975  0.2923
97347W        W98211  20.461  15.169  24.296  0.3441 -0.0904  0.2254
97348W        W98212  11.960  28.355  10.985 -0.3143  0.0901  0.1121
97349W        W98213   2.371   8.814  17.596 -0.0876 -0.0353 -0.2426
97350W        W98214   5.048  13.693  23.852  0.0980  0.0739 -0.0245
97351W        W98215  15.937  28.645  14.762 -0.6366  0.4621  0.0380
97352W        W98216  16.627  21.458  13.327  0.0193  0.0165 -0.1216
97353W        W98217  10.258  20.371  22.036  0.1602  0.0720  0.3729
97354W        W98218  18.761  12.013  24.817 -0.1608 -0.3486  0.1608
97355W        W98219  14.336  25.174  15.367 -0.3791 -0.1705 -0.0077
97356W        W98220   6.002   5.187  14.349  0.0340  0.0738 -0.0265
97357W        W98221  11.429  27.626  13.751 -0.0581  0.0010 -0.0628
97358W        W98222   6.544  17.266  11.334  0.1803 -0.0861 -0.0913
97359W        W98223  28.263  20.882  13.152  0.4441  0.1975 -0.0847
97360W        W98224  15.917  11.130  11.057 -0.0234  0.2466 -0.2431
97361W        W98225  13.637  25.065  14.030 -0.0731  0.2732  0.0797
97362W        W98226  14.531   3.859  12.409 -0.1579 -0.3481 -0.1774
97363W        W98227  18.394  21.741   5.824 -0.0341 -0.1992 -0.1826
97364W        W98228   0.922  28.473  10.186  0.1914 -0.1273  0.0996
97365W        W98229  22.840  24.776  12.894  0.1526 -0.1273 -0.0263
97366W        W98230  17.610  11.372  10.045  0.2019  0.2650 -0.0082
97367W        W98231  24.611  23.163  13.694 -0.0192  0.0625 -0.2932
97368W        W98232   3.489  19.739  10.583 -0.2347  0.1055 -0.0484
97369W        W98233  20.235  27.633  16.594  0.1652 -0.1167  0.1814
97370W        W98234  15.478  26.470   3.053 -0.1860  0.0898  0.1185
97371W        W98235  22.927  19.364  18.846 -0.1884  0.1222  0.0464
97372W        W98236  18.910  11.110  13.654  0.3421 -0.0012 -0.0775
97373W        W98237  16.018  22.197   8.783  0.0849  0.0087  0.0952
97374W        W98238  11.227  23.767  16.721  0.0752  0.2661  0.1402
97375W        W98239  16.324   1.321   3.858  0.0734  0.0251 -0.2874
97376W        W98240  14.988  17.097   1.398  0.0162  0.0583 -0.2243
97377W        W98241  23.834  16.814  15.846  0.1142  0.2014  0.5355
97378W        W98242   4.195  27.315  20.575  0.0099  0.0738  0.1069
97379W        W98243  15.722  21.959   5.927 -0.0842  0.1272  0.1186
97380W        W98244  25.302   5.545  17.424  0.0443  0.1594  0.2080
97381W        W98245  10.745  24.713  26.976 -0.0964  0.0434  0.3687
97382W        W98246  13.116   2.925  23.426 -0.1531  0.1414  0.1195
97383W        W98247  27.942  22.075  28.271  0.3091  0.0260  0.1930
97384W        W98248  11.274  22.272  19.787 -0.2908 -0.1779 -0.1569
97385W        W98249  15.820  20.025   9.563 -0.1052  0.0932 -0.0660
97386W        W98250  26.662   1.999   9.478 -0.0341  0.1335  0.1163
97387W        W98251  19.442   5.409  11.395 -0.2291  0.3532 -0.1480
97388W        W98252  14.595   8.645  13.233 -0.1135 -0.0084  0.0478
97389W        W98253   1.657  13.716  27.172  0.0607 -0.2175 -0.1467
97390W        W98254  11.637  23.502   9.435 -0.0618  0.0340  0.1866
97391W        W98255  15.219  13.227   5.067 -0.0898 -0.4264  0.3383
97392W        W98256  25.029  10.808   8.155 -0.3758 -0.0991 -0.1414
97393W        W98257  10.480  22.093   6.310 -0.0960  0.2535  0.1367
97394W        W98258  19.715   2.557   2.351  0.1048 -0.1959 -0.1038
97395W        W98259  20.628  13.973  19.405 -0.3098 -0.0646 -0.1453
97396W        W98260  10.782  16.697  28.525  0.2951  0.0418  0.2863
97397W        W98261  12.206  24.109  15.031  0.0580  0.2177  0.2511
97398W        W98262  14.475  28.512  13.813 -0.0791  0.0453 -0.0135
97399W        W98263   9.297  19.542   7.536  0.0563  0.0609 -0.2350
97400W        W98264  24.105  14.652   7.217  0.0712  0.1786 -0.2898
97401W        W98265  23.617  11.604  18.161 -0.0575 -0.0579  0.1301
97402W        W98266  15.644  10.699   7.572 -0.3396  0.0407 -0.0726
97403W        W98267   3.287  19.578  19.829 -0.0530  0.0346 -0.3217
97404W        W98268  24.553  24.397   8.754 -0.0728  0.3578 -0.2438
97405W        W98269  17.482  19.540  14.360 -0.4184  0.1483  0.0142
97406W        W98270   6.213  28.488   4.914 -0.0003  0.1270 -0.1566
97407W        W98271   9.252  24.539  20.306  0.0678  0.0020  0.1115
97408W        W98272  22.986  28.459   6.445 -0.0277  0.2180  0.0746
97409W        W98273   7.224  13.671   9.487  0.3047 -0.0261 -0.0746
97410W        W98274  25.680  10.858  11.845  0.1051 -0.2134 -0.1610
97411W        W98275  24.170   1.739  26.122  0.0099  0.2006 -0.4582
97412W        W98276  11.365   0.042   5.366  0.2840  0.3471 -0.1183
97413W        W98277  24.500   7.105  23.096 -0.2891  0.0744  0.1050
97414W        W98278   8.736  21.877   4.359 -0.1785 -0.2640  0.0602
97415W        W98279  17.708   2.701   1.946  0.1725 -0.0326  0.0017
97416W        W98280  23.807   2.172  13.338  0.0031  0.1172  0.0465
97417W        W98281   5.944   4.989  19.034  0.0064 -0.2187 -0.1369
97418W        W98282   3.836  17.310  13.352  0.1305  0.1359 -0.4785
97419W        W98283  11.063  23.615   6.513 -0.1394  0.1514  0.0203
97420W        W98284   2.848  17.234  12.782  0.0871  0.0797  0.0022
97421W        W98285  19.240   1.219  10.509 -0.2908  0.3124 -0.0991
97422W        W98286  19.404  28.890   8.377 -0.0638 -0.2428 -0.2236
97423W        W98287   7.316   6.003  20.848 -0.0013  0.1411  0.0336
97424W        W98288  20.882  24.533  21.436  0.1192  0.0610  0.1167
97425W        W98289   7.951  22.381  27.585 -0.0681 -0.0516 -0.1738
97426W        W98290   9.006  21.252  25.990 -0.1063 -0.2462  0.1429
97427W        W98291  20.272  26.268   0.727 -0.0679 -0.5063 -0.2719
97428W        W98292  25.273   5.769  26.462 -0.0047 -0.1252 -0.2188
97429W        W98293  14.658  20.615   0.275 -0.0922 -0.0830 -0.0481
97430W        W98294   9.723   6.464   7.004 -0.4524 -0.2429 -0.2423
97431W        W98295   9.510  24.068  25.743 -0.0398 -0.1611  0.1687
97432W        W98296  16.998   9.703  17.991  0.1243  0.0130 -0.0388
97433W        W98297  11.130  18.375   8.329 -0.2197 -0.1671  0.0195
97434W        W98298   6.692  20.720  22.125 -0.1071 -0.1093  0.1386
97435W        W98299   0.291  20.270   1.352  0.1396 -0.1475 -0.2397
97436W        W98300   0.753   9.945  18.814 -0.1537 -0.3172  0.2531
97437W        W98301  17.089  28.839   9.790  0.0572  0.2337 -0.0970
97438W        W98302  14.549  27.914  21.897  0.2041  0.1436 -0.1445
97439W        W98303  15.403   7.270  11.807  0.0613  0.3864  0.0876
97440W        W98304   4.070  19.231   2.017  0.0690 -0.1057  0.1421
97441W        W98305   7.489  16.210   6.286  0.1298  0.0958  0.0312
97442W        W98306  12.301   3.664   0.423 -0.0097  0.0124  0.0912
97443W        W98307  18.415  26.616  18.115 -0.0198  0.2409  0.0474
97444W        W98308  22.308  15.349  25.283  0.0520 -0.1888 -0.0701
97445W        W98309   5.854  25.950   1.932 -0.0907  0.2229 -0.0310
97446W        W98310  25.966  24.038  12.379 -0.2166 -0.1088  0.2771
97447W        W98311  11.401  25.496  10.259  0.2611  0.1291 -0.1507
97448W        W98312   2.229   2.740  18.418 -0.1365  0.0862 -0.0559
97449W        W98313  14.639  28.310   7.324  0.4257  0.2897 -0.0277
97450W        W98314  20.895  19.773  20.190 -0.1057  0.1527 -0.2717
97451W        W98315  11.826  16.649  15.799 -0.0791 -0.0338  0.0025
97452W        W98316   6.332   3.440   3.595  0.0178 -0.2340 -0.0623
97453W        W98317  21.213  15.054  10.068 -0.0685  0.3747 -0.2219
97454W        W98318  26.603  24.633  12.185 -0.2090  0.1268  0.0916
97455W        W98319   7.411  22.849  18.662  0.0994 -0.4483 -0.0320
97456W        W98320  27.469  23.162  20.387  0.2343  0.0928 -0.0807
97457W        W98321   5.100   3.885  20.079 -0.0850  0.1096 -0.0507
97458W        W98322  27.540  26.915  17.341  0.0119  0.1624  0.1074
97459W        W98323  25.726  20.011  13.614  0.3598 -0.0887  0.0744
97460W        W98324   9.963  24.401  24.030  0.0947  0.0111  0.1992
97461W        W98325  15.249  23.695  14.960 -0.0688 -0.0696  0.0484
97462W        W98326  17.308  26.444  22.630  0.0396  0.3181 -0.0222
97463W        W98327   7.631  27.076   0.285 -0.1360 -0.0038  0.0522
97464W        W98328  19.015  23.468   5.784 -0.3067  0.4787  0.2072
97465W        W98329  16.973  20.751  14.400  0.0014 -0.0892  0.0182
97466W        W98330  12.984  27.368   0.483  0.3408 -0.2686 -0.1087
97467W        W98331  17.113  25.610   0.268  0.2155 -0.1264  0.2124
97468W        W98332  27.992  21.925  19.079  0.1435  0.0063 -0.1961
97469W        W98333   8.779   2.312   0.112 -0.3956 -0.1297 -0.1063
97470W        W98334  15.799  18.532   7.294  0.2667  0.1092 -0.1576
97471W        W98335  21.409  28.949  14.660  0.0325 -0.3991 -0.0387
97472W        W98336  13.346  10.449  11.072  0.0688 -0.2353 -0.0433
97473W        W98337  20.385  26.772  13.730  0.2825 -0.2469  0.1915
97474W        W98338  22.475   9.282  18.685 -0.1395 -0.3166  0.0817
97475W        W98339   2.584   2.869  10.263 -0.2868 -0.2654 -0.1632
97476W        W98340   3.329  18.999   6.452 -0.2250 -0.2185 -0.0874
97477W        W98341   2.025  27.187  18.496  0.2443 -0.1857 -0.1286
97478W        W98342  11.694  18.886   0.581  0.1678 -0.0468 -0.3176
97479W        W98343  28.205  14.998  26.311  0.0309 -0.0458  0.0117
97480W        W98344   9.784   1.296   5.496 -0.0916  0.0083  0.2118
97481W        W98345  15.764  28.531  22.432  0.0934  0.1186  0.0318
97482W        W98346  23.698   5.686   7.636 -0.1430 -0.1892 -0.2399
97483W        W98347  15.148  14.225   8.449 -0.1757 -0.1752 -0.0788
97484W        W98348  28.997   1.667  13.324  0.2152  0.1586 -0.0259
97485W        W98349   8.622  24.045  23.039 -0.0990 -0.0160  0.2428
97486W        W98350  12.453   3.309  17.994 -0.2009 -0.1136 -0.1593
97487W        W98351  15.986  10.602  25.947 -0.2250  0.0543 -0.0463
97488W        W98352  10.905  15.461   1.941 -0.1073 -0.0035  0.2003
97489W        W98353  20.437   4.523   9.670  0.2323 -0.0409  0.0740
97490W        W98354  28.921   7.461  14.511 -0.1617 -0.2654 -0.0689
97491W        W98355   8.084  25.697   9.243 -0.0750 -0.3176 -0.3314
97492W        W98356  19.997   8.490  26.946 -0.1822 -0.1902 -0.2420
97493W        W98357  14.424  11.263  16.295  0.4808 -0.2466 -0.0290
97494W        W98358   9.793   5.304  28.855  0.3933  0.2604  0.2601
97495W        W98359  20.259   8.221  19.568  0.1246  0.1720 -0.2899
97496W        W98360  16.306  18.239  13.720 -0.0114  0.1399 -0.0129
97497W        W98361  13.580  29.140  11.340 -0.0902  0.0421 -0.2310
97498W        W98362  16.221  24.837  11.782  0.1011  0.1022 -0.3784
97499W        W98363   5.995   2.740   3.768 -0.0265 -0.0082 -0.2180
97500W        W98364  19.523  19.674  24.938 -0.0209  0.0330 -0.2037
97501W        W98365  11.677  14.483  14.604 -0.2093 -0.0247  0.0910
97502W        W98366   0.626  24.592  18.492  0.0157 -0.1382 -0.0411
97503W        W98367  14.596  23.220  16.350  0.0761 -0.0617 -0.5194
97504W        W98368  12.011  22.008   9.746  0.3140 -0.2178 -0.0744
97505W        W98369  21.378   5.832  25.519 -0.1810  0.0371 -0.4823
97506W        W98370   0.330   0.692  22.398  0.2881  0.4734  0.0904
97507W        W98371  25.698   2.381  15.049 -0.0454  0.0930 -0.0663
97508W        W98372  16.859  23.663   2.938 -0.1856  0.3329  0.2202
97509W        W98373  23.123  16.246  13.929 -0.0456 -0.1162  0.2712
97510W        W98374  11.901  19.664   6.811  0.0495 -0.1799  0.0431
97511W        W98375  25.136  13.872   4.710 -0.1057  0.2641 -0.4015
97512W        W98376   7.266  21.056  25.725 -0.1146 -0.0056  0.0234
97513W        W98377   5.948   4.641  14.256  0.3068  0.1621  0.1280
97514W        W98378   5.641  13.832   4.842 -0.2874 -0.3303  0.1708
97515W        W98379  23.954  11.048  11.060  0.0436 -0.1694  0.1583
97516W        W98380   5.151   4.407  10.109  0.2030  0.3392  0.1503
97517W        W98381   8.522  12.574  16.406 -0.3022 -0.3329  0.4565
97518W        W98382   8.222   1.556  10.568  0.3800 -0.0333  0.0443
97519W        W98383  22.213  24.399  16.940 -0.0755  0.1513 -0.2164
97520W        W98384   8.857  10.985  14.992 -0.0086  0.1226  0.0526
97521W        W98385  25.433  12.685  24.481 -0.0172 -0.0171  0.1632
97522W        W98386  15.478  20.491  20.047 -0.0059  0.2379  0.1088
97523W        W98387  21.767  18.983  11.638 -0.2965  0.0848  0.2742
97524W        W98388  14.582   9.045   3.627  0.0319 -0.0313 -0.2515
97525W        W98389  10.284   8.961   5.665 -0.0908  0.1200  0.1189
97526W        W98390  15.698   7.459  17.629 -0.0271 -0.2810 -0.4467
97527W        W98391   9.791  19.294  16.776 -0.1722  0.0699 -0.0485
97528W        W98392  14.611  13.825  21.204  0.0868  0.1427  0.2554
97529W        W98393  13.201  25.115   8.917  0.2167  0.0690  0.0110
97530W        W98394  19.092   0.500   5.473 -0.1276  0.1923  0.0992
97531W        W98395  17.901  14.409   8.658  0.0265 -0.1172  0.1356
97532W        W98396  24.342  17.200  10.568 -0.2692  0.0647 -0.0610
97533W        W98397  13.093  18.873  11.850 -0.1696 -0.0914  0.0029
97534W        W98398  16.602  22.142  15.892  0.0294  0.1874 -0.0361
97535W        W98399  19.199  16.521  13.746 -0.1777  0.1027  0.0167
97536W        W98400  10.345  22.153   2.826  0.0985  0.1860  0.1214
97537W        W98401   9.998  19.180   0.754  0.1847  0.0540  0.1129
97538W        W98402   3.374   8.406  14.383  0.3605 -0.1055  0.0057
97539W        W98403  13.592  28.043  26.156 -0.2821  0.2064 -0.0823
97540W        W98404  28.924  19.940  22.905 -0.2533  0.0832 -0.3440
97541W        W98405   0.086   2.452  24.790 -0.1232  0.1037  0.1039
97542W        W98406   9.690  22.002   4.793 -0.0429  0.0270 -0.2793
97543W        W98407   0.079  27.245  15.033 -0.5193  0.1304  0.0766
97544W        W98408   1.337   4.795  22.006 -0.2316 -0.0533  0.1982
97545W        W98409  18.434  12.001  26.267  0.2000  0.0187 -0.1011
97546W        W98410  11.917   2.414  28.780  0.1546 -0.2370  0.0014
97547W        W98411   2.168   4.432   9.916  0.4009 -0.0200 -0.0891
97548W        W98412  24.168   4.394  16.278 -0.0677  0.2334  0.0603
97549W        W98413   5.240  14.070   9.755 -0.0427 -0.0927  0.1492
97550W        W98414  10.398   3.136   2.869  0.1888  0.0940  0.0306
97551W        W98415   5.291  16.647  10.251  0.0312  0.1316 -0.0845
97552W        W98416  28.689   1.985  26.527 -0.2709  0.0268  0.0844
97553W        W98417  26.388  26.362  23.303 -0.2259  0.1664 -0.2500
97554W        W98418  11.410  27.408  15.903 -0.1116  0.0850 -0.1988
97555W        W98419  23.335  13.287   0.969  0.0357  0.3814 -0.0491
97556W        W98420  20.267   4.205   3.958 -0.2233 -0.0089 -0.0900
97557W        W98421   5.957  13.188  13.850 -0.1713 -0.2737  0.0306
97558W        W98422  28.540   3.277  17.791  0.0959 -0.0346 -0.1687
97559W        W98423  11.370  28.875  19.186  0.0532  0.2332 -0.0728
97560W        W98424  11.893  13.841  23.942 -0.4344 -0.0733 -0.3156
97561W        W98425  22.925  17.266   3.766 -0.3281  0.2490  0.3370
97562W        W98426   2.737  27.884  12.254  0.0747  0.2934 -0.1097
97563W        W98427  14.666   0.820   6.045 -0.3181  0.0073 -0.2329
97564W        W98428  23.916  16.151  13.609  0.3401 -0.0743  0.4935
97565W        W98429   8.898  28.162  17.380 -0.0220 -0.0539 -0.0487
97566W        W98430   8.918  28.911  18.037  0.0005  0.1166 -0.0455
97567W        W98431  11.465  17.056  25.786  0.1929 -0.0345  0.1855
97568W        W98432  26.497   1.797  11.042  0.1986  0.0874 -0.0772
97569W        W98433  11.475  24.747  27.340  0.0721  0.0869 -0.1856
97570W        W98434  16.692   1.499  21.715 -0.2330 -0.1342 -0.0491
97571W        W98435  25.219  20.850   7.609  0.0551  0.3177 -0.1688
97572W        W98436   6.782  19.859  23.517  0.2334 -0.0554 -0.1203
97573W        W98437  23.795  17.339  14.261 -0.2729  0.1893  0.3788
97574W        W98438  11.487   9.785   0.161 -0.0206 -0.1217 -0.0007
97575W        W98439   4.749  10.220   2.697  0.0453  0.1499  0.1882
97576W        W98440   5.633  15.603  13.089 -0.0240  0.0694  0.1907
97577W        W98441   3.817  16.063  28.929 -0.4344  0.5386 -0.2444
97578W        W98442   9.991  22.094  23.173 -0.2153  0.2020 -0.0302
97579W        W98443  26.417   6.667  16.151  0.3339  0.1777  0.1008
97580W        W98444  22.988   0.688   1.474 -0.2358 -0.1784 -0.2386
97581W        W98445   3.218   5.681   9.361 -0.1182 -0.0675 -0.0675
97582W        W98446   5.858   2.136  21.417  0.2578 -0.4123  0.0925
97583W        W98447  17.716  26.326  13.191  0.0856 -0.0376 -0.0953
97584W        W98448  26.999   1.824  13.456 -0.3715  0.0610 -0.0173
97585W        W98449  20.432  20.307  28.761  0.0009  0.0962 -0.1961
97586W        W98450  28.460  28.487  13.175  0.1404 -0.3327  0.3317
97587W        W98451   6.769  16.099  21.080 -0.0035  0.2212 -0.2869
97588W        W98452  15.159  26.903  18.482 -0.0077  0.0574  0.3137
97589W        W98453  24.694  22.307   5.142  0.1356 -0.2957  0.2708
97590W        W98454   1.177  27.908  24.231 -0.0156 -0.1312 -0.0695
97591W        W98455   5.223   2.069   7.625 -0.0695 -0.3185  0.4827
97592W        W98456   1.655  18.547  20.146 -0.1326 -0.0638 -0.0251
97593W        W98457   5.263   9.855  26.821  0.2035  0.4208 -0.3690
97594W        W98458  28.225   1.208  19.175  0.0424 -0.1375 -0.0945
97595W        W98459  16.320   5.406   2.209 -0.0209  0.0532 -0.0793
97596W        W98460   4.259  10.969  16.704  0.3317  0.3543 -0.0105
97597W        W98461  10.583   3.954   7.358  0.3249 -0.0456 -0.0923
97598W        W98462  16.631   0.423   5.779 -0.1192 -0.1325 -0.3274
97599W        W98463  19.174   4.645   9.929  0.2296 -0.0401  0.3651
97600W        W98464   3.672   1.146  12.713 -0.1967  0.0581  0.0157
97601W        W98465  11.419  21.146  15.304 -0.0853  0.2046 -0.1418
97602W        W98466  21.086  28.709  22.858  0.0689 -0.2131 -0.4977
97603W        W98467   5.138   4.659  16.515  0.2746 -0.2219 -0.4979
97604W        W98468  12.506  22.854   5.233 -0.2109  0.1484  0.3160
97605W        W98469  23.447  26.488   9.109 -0.0195  0.0979 -0.2608
97606W        W98470   5.814  24.869  16.386  0.0056  0.0938 -0.0752
97607W        W98471   6.867  20.292  24.271 -0.1605  0.0010 -0.2114
97608W        W98472  23.896  25.624   7.337  0.1214  0.1457 -0.1154
97609W        W98473  26.201  14.417  19.930 -0.1025  0.4893 -0.0369
97610W        W98474  15.785  10.417   5.497 -0.0435  0.0317 -0.1298
97611W        W98475   4.862  20.898  12.344  0.0251 -0.1199  0.0275
97612W        W98476  23.352  23.536  11.507  0.1925 -0.0288  0.1387
97613W        W98477  21.843  19.546  14.796  0.0845  0.0918 -0.0519
97614W        W98478  15.964  16.746  17.021 -0.2911  0.0132  0.0074
97615W        W98479  20.051  14.386  19.959  0.0791 -0.2850  0.2759
97616W        W98480   7.195  20.970  10.653 -0.3127 -0.0293  0.1800
97617W        W98481   6.354  28.188  12.211  0.0246 -0.4080 -0.1787
97618W        W98482  21.934  28.351  26.942 -0.2524  0.3543  0.0348
97619W        W98483   5.741   6.520  10.117  0.2682 -0.3267  0.3295
97620W        W98484   0.163  16.847  13.244 -0.0365 -0.2294  0.3159
97621W        W98485  21.806  21.786  20.595  0.0815  0.0820 -0.2162
97622W        W98486  19.808  13.531   4.397 -0.4161  0.3286  0.0449
97623W        W98487  18.382  17.301   8.705 -0.2605 -0.0684  0.0297
97624W        W98488  15.633  20.199   7.814  0.0805  0.3228 -0.0442
97625W        W98489  11.366  11.052  15.368 -0.2563 -0.5589  0.2741
97626W        W98490  27.792  15.468   6.517  0.0627 -0.0599 -0.0645
97627W        W98491  16.657  28.671  19.409 -0.1140  0.2546  0.0137
97628W        W98492  13.913   7.445  21.038  0.2325 -0.0304  0.4382
97629W        W98493   7.817  20.279   3.995 -0.4903 -0.0222  0.2246
97630W        W98494  19.917   5.808  10.008 -0.0316  0.0817  0.5931
97631W        W98495   4.825  16.894  28.278  0.1087 -0.1296 -0.1194
97632W        W98496  15.463  27.537  21.342  0.0077 -0.0109 -0.0799
97633W        W98497   1.393  23.284   4.987  0.2355  0.1183  0.0458
97634W        W98498  23.179  28.496  15.116 -0.1902  0.2671 -0.3881
97635W        W98499  22.695  10.644  11.208 -0.0439 -0.1696  0.1145
97636W        W98500  23.281  28.535  17.354  0.0414 -0.3291 -0.0084
97637W        W98501  27.817  14.613   2.854 -0.1779 -0.1249 -0.4813
97638W        W98502  17.556  21.829   3.705 -0.1358  0.1968 -0.1550
97639W        W98503   9.277  25.128   9.002  0.5140  0.0048  0.0211
97640W        W98504  14.473  21.039  21.403 -0.0148  0.1606 -0.1879
97641W        W98505   8.740  25.101  18.451  0.1272 -0.2932 -0.0367
97642W        W98506  17.354  15.178  22.817  0.1307  0.0438 -0.0684
97643W        W98507  11.767  14.836   9.997  0.0943  0.2466 -0.1261
97644W        W98508   1.169  27.366  20.493  0.0409  0.0683  0.0551
97645W        W98509   5.943  12.817  12.861  0.0671  0.0977 -0.0423
97646W        W98510  16.435  22.689  21.787 -0.2051 -0.0816  0.0770
97647W        W98511  11.914   7.979   2.531  0.0334 -0.2023  0.1685
97648W        W98512   4.052  17.276   2.901  0.0608  0.2903  0.0523
97649W        W98513   3.653  21.333  20.643  0.1935 -0.1253  0.3358
97650W        W98514   0.643  27.148   1.744  0.0521 -0.1219 -0.1638
97651W        W98515   7.003  28.949  12.413  0.1062 -0.1482 -0.3290
97652W        W98516  24.288   7.231   8.404  0.0545 -0.0382 -0.0931
97653W        W98517   4.708  19.118  10.039 -0.1631 -0.0097 -0.2453
97654W        W98518  25.842   6.432  21.865  0.1450  0.0053  0.2577
97655W        W98519   0.929  21.516   1.050  0.2785  0.0478  0.0119
97656W        W98520  15.008  13.839  11.824  0.2387  0.0481  0.0522
97657W        W98521  13.373  21.454  14.117  0.0028 -0.1082  0.1510
97658W        W98522  12.093  18.731   1.588 -0.0031  0.1499  0.1591
97659W        W98523   9.915   1.455   9.701  0.0510  0.1483  0.1069
97660W        W98524  15.746  28.438   1.775  0.0903  0.1168 -0.0553
97661W        W98525  21.097  28.545   5.435  0.0814 -0.1908  0.4110
97662W        W98526   9.837  26.183  14.284  0.1744 -0.1261 -0.0301
97663W        W98527  13.483  16.405  21.540  0.0038 -0.2858 -0.0469
97664W        W98528   5.294   4.127  16.946 -0.0408 -0.0255  0.1623
97665W        W98529   7.641  27.908  17.853 -0.5027 -0.3683 -0.2171
97666W        W98530   0.865  24.987  22.716 -0.1684 -0.0646 -0.1924
97667W        W98531  18.171   5.766   4.929  0.1050  0.0107  0.2463
97668W        W98532  20.138   4.776   4.039 -0.3854  0.1445  0.1558
97669W        W98533   1.270   5.369   0.538 -0.2359  0.1955 -0.0459
97670W        W98534  23.685   8.320  23.179 -0.1955  0.1491 -0.2538
97671W        W98535  28.042   1.713  24.638 -0.2339 -0.1307 -0.0464
97672W        W98536   8.266  26.839  15.001 -0.1640 -0.0663 -0.0533
97673W        W98537  24.515  18.310  20.426 -0.0382 -0.1662  0.1449
97674W        W98538   4.716   7.577   5.158  0.1946 -0.2349 -0.1702
97675W        W98539  16.538   0.429  23.804  0.1317 -0.1514 -0.1108
97676W        W98540  25.746  11.674  18.961  0.1278  0.0689  0.3414
97677W        W98541   5.692  23.084  19.143  0.0419 -0.0011  0.0638
97678W        W98542   7.828  26.453   6.443  0.0911 -0.0823  0.0136
97679W        W98543  18.070   6.925  10.033  0.1160  0.1051 -0.2234
97680W        W98544   9.183  23.808  24.630  0.3823 -0.0776  0.1085
97681W        W98545  21.379  26.258   5.760  0.0049 -0.0777 -0.1678
97682W        W98546   6.767  11.036  19.401  0.2480  0.1598 -0.0175
97683W        W98547   0.743  15.194  14.862 -0.1620  0.3336  0.0086
97684W        W98548   2.599  15.802   6.561  0.1322  0.1799 -0.1579
97685W        W98549  18.652   6.488  23.506 -0.4656 -0.2014  0.0364
97686W        W98550  27.771  21.906  16.052  0.1817 -0.0285  0.1626
97687W        W98551  15.519  16.822  12.240  0.0242  0.0291 -0.0685
97688W        W98552   3.894  21.773   5.418  0.1828 -0.0735  0.1226
97689W        W98553  14.371  20.553  20.542 -0.1459 -0.1715  0.0961
97690W        W98554  26.725  21.779  13.939 -0.2046 -0.3273 -0.1289
97691W        W98555  11.530   0.239  17.743 -0.3609  0.1218 -0.1364
97692W        W98556   4.469  28.162  24.884  0.0937 -0.0784 -0.1621
97693W        W98557  12.694  25.509   9.784  0.2822 -0.1472  0.1572
97694W        W98558  28.546  28.649  23.553 -0.2632 -0.0557  0.0419
97695W        W98559   7.030   2.042   7.932  0.0886  0.1978 -0.1721
97696W        W98560  15.015  27.810  20.074 -0.1172  0.2166  0.0071
97697W        W98561  18.684  26.420  11.110  0.0489  0.0575  0.2194
97698W        W98562   2.289   4.075   1.940 -0.1377 -0.1127 -0.0846
97699W        W98563  24.516  16.956   6.363  0.3533 -0.0519  0.5041
97700W        W98564  24.607  21.623  17.947  0.1083 -0.2329  0.2954
97701W        W98565   6.397  22.764  13.433 -0.1007 -0.1012  0.0127
97702W        W98566  14.329  11.728  10.578 -0.1410 -0.1910  0.0562
97703W        W98567   1.073  27.546  16.552 -0.0705 -0.2334  0.2391
97704W        W98568  17.057   0.433   6.040 -0.0534  0.1546  0.0102
97705W        W98569   7.495  14.027  11.331 -0.1256  0.2089  0.4936
97706W        W98570  23.022  23.129  24.306 -0.0281  0.1478  0.1242
97707W        W98571  13.554  28.519   1.003  0.0429  0.0323 -0.1014
97708W        W98572  19.021   4.593  25.198  0.1453  0.0312  0.1003
97709W        W98573  28.448  20.585   7.373 -0.0829 -0.1695 -0.1509
97710W        W98574  26.351  26.114  17.897  0.0991 -0.2451 -0.0741
97711W        W98575   4.101  24.472  12.957  0.1788 -0.2501  0.2010
97712W        W98576   6.489   0.916  19.016 -0.1210 -0.1245 -0.0331
97713W        W98577   2.440  24.389   8.925  0.4470 -0.4621  0.1882
97714W        W98578   8.383  24.890   9.097 -0.2344 -0.0218  0.0115
97715W        W98579  10.547   7.011  24.913 -0.0810  0.1828  0.1561
97716W        W98580   4.336  27.368  19.591 -0.0126 -0.1535 -0.2396
97717W        W98581  18.321   9.971  20.378  0.1868  0.4602 -0.1866
97718W        W98582  12.472  12.507  14.038  0.0490  0.0617 -0.2086
97719W        W98583  21.835   1.458  11.806 -0.1016 -0.0600 -0.0037
97720W        W98584  16.677  26.884  25.451 -0.2081 -0.1416 -0.0490
97721W        W98585   4.946   6.400  26.509 -0.1939  0.1503 -0.0590
97722W        W98586   5.629  19.999  17.959  0.0370  0.3378  0.2621
97723W        W98587  11.729   2.161  18.341 -0.0636  0.0241 -0.1491
97724W        W98588   1.303   3.887  11.193  0.2534 -0.2010 -0.0113
97725W        W98589   4.075  17.277  16.675  0.1635 -0.2199  0.2564
97726W        W98590   8.250   2.367   5.759 -0.0761  0.0427 -0.3092
97727W        W98591   2.838   7.607  10.928  0.1010 -0.0739  0.2193
97728W        W98592  20.349  16.062  17.696  0.0827  0.1884 -0.1984
97729W        W98593  28.736  23.926  17.229 -0.1123 -0.3400  0.2085
97730W        W98594  18.635   4.432  19.818  0.2178  0.0216  0.2494
97731W        W98595   2.906  11.915  12.602  0.2653  0.2167  0.2453
97732W        W98596  19.421  12.806  23.438 -0.2059 -0.0596  0.0510
97733W        W98597   4.691   2.918   7.671  0.1833 -0.1528 -0.1675
97734W        W98598  14.742  18.219   3.512 -0.1289 -0.3773  0.1583
97735W        W98599  23.453  24.003   2.186 -0.1199 -0.3044  0.0821
97736W        W98600   6.761  26.541  20.823  0.1794  0.0613 -0.4354
97737W        W98601  21.490  14.211  26.012  0.4027  0.1195  0.0420
97738W        W98602   8.988  28.926   3.273 -0.1324  0.0782 -0.2292
97739W        W98603  24.406   0.255  18.374  0.0065 -0.2564 -0.1790
97740W        W98604  12.790  28.451  28.748 -0.0931 -0.0899 -0.2047
97741W        W98605  22.371   3.436   7.961 -0.2061  0.0161  0.2666
97742W        W98606   7.760   3.446  20.928 -0.1445 -0.1542  0.4432
97743W        W98607   2.329  19.845  12.625 -0.4201 -0.4639  0.0497
97744W        W98608   3.869   4.093   8.733  0.0963  0.1168 -0.0274
97745W        W98609  11.782   1.154  15.034  0.2209  0.1484  0.1053
97746W        W98610  18.199  13.262  19.530  0.0568 -0.1462  0.2165
97747W        W98611   2.547  22.992  24.057 -0.2462  0.0377 -0.0416
97748W        W98612  20.312   9.759   9.249 -0.0568  0.0266 -0.0982
97749W        W98613   7.324   3.116  26.721  0.0536  0.3188 -0.0460
97750W        W98614  21.139   2.567  12.949 -0.1871  0.0285 -0.0483
97751W        W98615  24.135  28.344   8.035  0.2188 -0.4172  0.0262
97752W        W98616  17.268   4.442  13.649 -0.0550 -0.0469 -0.1161
97753W        W98617  22.195  13.410  17.686  0.1718 -0.1741 -0.1261
97754W        W98618  28.468   0.376  20.294 -0.1173 -0.2968  0.2807
97755W        W98619  16.956  23.960  28.606  0.1797  0.2281 -0.0218
97756W        W98620   8.867  10.855  13.618  0.0756 -0.1099  0.1053
97757W        W98621   8.738  12.198  27.990 -0.0606  0.3034 -0.0250
97758W        W98622   2.140  16.097   7.700 -0.1662 -0.0352  0.0766
97759W        W98623  21.537  19.477  18.928  0.1042 -0.0941 -0.1975
97760W        W98624  22.126  13.549  14.420 -0.2821  0.0935  0.3316
97761W        W98625  15.585  28.431  15.237  0.0235  0.1873 -0.0626
97762W        W98626   9.626  19.397  20.467  0.0327 -0.2167 -0.0791
97763W        W98627  24.108  11.541  27.963 -0.2900  0.2922  0.2852
97764W        W98628  20.275  18.346  21.793 -0.0797  0.1286  0.0587
97765W        W98629   5.040  26.389  24.494 -0.1604 -0.0606  0.1078
97766W        W98630   4.147  14.005  20.590 -0.1937  0.0259  0.0496
97767W        W98631  28.350   6.738  16.446  0.0572  0.2042 -0.0574
97768W        W98632   5.054   1.433  28.713  0.2222  0.1940 -0.0128
97769W        W98633   9.263  14.625   6.253  0.0127 -0.2166 -0.0687
97770W        W98634  16.266  23.341   0.562 -0.2625 -0.0006 -0.1418
97771W        W98635   1.394  19.501   9.197  0.4064 -0.0923  0.2302
97772W        W98636   0.419  10.114  23.766 -0.1564  0.3314 -0.1967
97773W        W98637  27.448  28.845  17.783 -0.2224  0.2261 -0.1926
97774W        W98638  25.043  23.335  17.476 -0.0285  0.1547  0.1116
97775W        W98639  15.466  27.283  27.897  0.2239  0.0763 -0.0962
97776W        W98640   3.764   9.449  15.513  0.0222 -0.1272  0.3003
97777W        W98641   9.075  17.937  19.472 -0.0651  0.1671 -0.2957
97778W        W98642  21.918  20.280   3.571  0.0233  0.1194 -0.0140
97779W        W98643  22.325  11.747  25.837  0.0942  0.0763  0.0852
97780W        W98644  10.008  23.544  12.458  0.1440 -0.1672 -0.2760
97781W        W98645  10.647   2.932   8.481  0.0162  0.0773  0.0585
97782W        W98646  23.162  13.155  24.251  0.0508  0.0314  0.0400
97783W        W98647  20.745  11.046  23.808  0.2842  0.0983  0.3177
97784W        W98648   9.620  21.104   8.861 -0.1621 -0.1950  0.2093
97785W        W98649  14.131  11.213   7.514 -0.0899  0.0491  0.1514
97786W        W98650  26.534   2.580  16.572 -0.3204  0.0922 -0.1759
97787W        W98651   4.097  26.021   2.937  0.1313  0.1280 -0.0054
97788W        W98652  11.580  22.645  21.215  0.2387 -0.0676  0.0100
97789W        W98653   9.081  18.373  19.055 -0.0121 -0.0918 -0.4038
97790W        W98654   6.129  14.556  22.351 -0.0581 -0.4423 -0.2783
97791W        W98655   7.678  20.632   5.150  0.3042 -0.2639 -0.1940
97792W        W98656  13.583   8.731   1.584 -0.3113  0.2245  0.0539
97793W        W98657   6.687  14.046  17.510  0.0937 -0.1318  0.0115
97794W        W98658   5.651  15.819  24.133  0.0116 -0.0681  0.0902
97795W        W98659   7.268  27.778  27.300 -0.1905  0.3713 -0.0691
97796W        W98660   6.934  15.593  16.749 -0.0277  0.1992 -0.2772
97797W        W98661   3.541   9.715  13.791  0.2237  0.0256 -0.0207
97798W        W98662  26.323  21.189  15.966 -0.3346 -0.1010  0.1240
97799W        W98663  23.230  12.066   4.980 -0.1672  0.0380 -0.0175
97800W        W98664  17.574   9.726   2.778 -0.1373  0.0531 -0.0783
97801W        W98665  21.883  12.008   1.393 -0.0040 -0.2219 -0.2161
97802W        W98666  29.122   1.358  15.073  0.1939 -0.0064  0.0066
97803W        W98667   9.797  22.399  13.372 -0.1839  0.1576 -0.0160
97804W        W98668  26.654  13.090  15.265 -0.0283 -0.0295  0.2844
97805W        W98669   2.273  19.236  11.998  0.2642  0.0270  0.0736
97806W        W98670  20.587  26.855  13.125 -0.0436  0.2283  0.0635
97807W        W98671   7.039   0.167  23.230 -0.0523  0.1447 -0.1380
97808W        W98672   6.011  20.400  27.436 -0.3198 -0.1481 -0.1177
97809W        W98673  20.362  13.230  22.821  0.0573 -0.0936  0.0325
97810W        W98674   9.121  14.314  18.369 -0.1538  0.4759 -0.0532
97811W        W98675  27.562  12.593  22.868 -0.1916 -0.1015  0.3039
97812W        W98676  26.938   5.780   4.565  0.0354  0.0937 -0.1540
97813W        W98677  25.625  15.564  20.419  0.2550 -0.3940 -0.1487
97814W        W98678  15.514   2.075  28.653  0.2904  0.0171  0.1287
97815W        W98679  11.732  22.411  10.190 -0.0058 -0.0800  0.1884
97816W        W98680   3.439   0.366   5.835 -0.1570  0.0329  0.0144
97817W        W98681  13.214   5.862   5.058  0.2751 -0.2950 -0.3320
97818W        W98682   5.897  15.640   7.999 -0.0492 -0.3361 -0.2446
97819W        W98683  22.065  21.678   9.527  0.1528  0.1875 -0.1075
97820W        W98684   5.571  16.497  26.638 -0.1711 -0.2597 -0.0573
97821W        W98685  14.450  23.938  19.268  0.1793 -0.2627 -0.0985
97822W        W98686  25.113  12.931  13.805 -0.0145  0.1027 -0.2257
97823W        W98687   2.529   9.286   3.633 -0.0122  0.1796  0.0744
97824W        W98688  22.955   9.187  18.607 -0.0088  0.0417 -0.0135
97825W        W98689  23.259  19.151  21.916  0.1271 -0.1661  0.2727
97826W        W98690  14.887  24.762  12.835  0.1998  0.1193  0.0381
97827W        W98691  28.535   8.344   6.304  0.2241 -0.2458 -0.3147
97828W        W98692   4.812  12.396  17.794 -0.1601  0.1903  0.0518
97829W        W98693   9.796   7.052  21.909  0.2717 -0.0570 -0.2356
97830W        W98694  14.100   5.990   9.500  0.2071  0.0907 -0.0236
97831W        W98695  23.644   2.352  23.861  0.3367 -0.1620  0.2206
97832W        W98696  17.998  23.336  13.134  0.1269 -0.0276  0.1845
97833W        W98697   2.924   5.870  22.055  0.1832 -0.0510 -0.1556
97834W        W98698   7.398  15.216  12.132  0.2028 -0.0337 -0.2306
97835W        W98699  28.928  14.477  25.757 -0.3667  0.2178 -0.1911
97836W        W98700  12.451   4.294  20.686  0.0105 -0.1662 -0.1486
97837W        W98701  19.156  23.075  19.919 -0.2550 -0.3953 -0.1150
97838W        W98702   1.728  22.868   7.588 -0.2005 -0.0374  0.0804
97839W        W98703  27.986  22.619  27.454  0.2707 -0.2047 -0.1143
97840W        W98704   0.942  11.610  12.586  0.0105 -0.1709  0.1512
97841W        W98705   5.200  27.379  20.406 -0.3754 -0.0653 -0.0395
97842W        W98706   1.099  13.397  18.803  0.0602  0.0526  0.4051
97843W        W98707  20.389   5.290  10.203 -0.0868 -0.2007 -0.1282
97844W        W98708  26.810  23.275  20.051  0.0702 -0.3560  0.0091
97845W        W98709  12.241  22.671  20.573  0.3919  0.0645 -0.0379
97846W        W98710  15.629   1.037  17.303  0.0171  0.3086  0.1173
97847W        W98711  24.496   2.055   4.094 -0.1433 -0.0224  0.1433
97848W        W98712  27.606  27.006   2.122 -0.2473  0.1049 -0.0593
97849W        W98713   1.815  23.428  27.051 -0.1213  0.2283 -0.0723
97850W        W98714  17.861  17.217  25.427  0.0334  0.1342  0.0958
97851W        W98715   7.845  21.223  18.486 -0.0036  0.3138 -0.1379
97852W        W98716   9.617  24.359  17.627 -0.1981  0.1831 -0.0291
97853W        W98717   1.126  29.062   5.172  0.1593  0.0555  0.0745
97854W        W98718   2.458  16.707   3.648  0.0368 -0.0961  0.2402
97855W        W98719  12.038  27.845  27.514  0.1126  0.0564 -0.1051
97856W        W98720   5.071  27.650  17.856 -0.3183 -0.3400 -0.0089
97857W        W98721  22.765  19.858  12.404 -0.1033 -0.1056  0.0855
97858W        W98722  23.120  24.008   4.435 -0.1125  0.1314  0.0465
97859W        W98723  10.832  17.125   2.927 -0.0380 -0.1990 -0.1487
97860W        W98724   0.610  25.728  24.187  0.0095  0.0794  0.0862
97861W        W98725  13.481  22.759  12.292  0.1843  0.1191 -0.0388
97862W        W98726  12.575  18.818  19.242 -0.1101  0.2691 -0.2787
97863W        W98727  26.180  18.782   7.525 -0.0085 -0.1772 -0.2791
97864W        W98728  15.573  26.447   4.189  0.0346 -0.4029 -0.1751
97865W        W98729  17.115  26.205   5.394 -0.2899 -0.0969 -0.0923
97866W        W98730  17.411   3.839  23.263 -0.1147 -0.1937 -0.3545
97867W        W98731  21.438  11.517  16.823  0.1017 -0.1813  0.1362
97868W        W98732  27.576  15.464  17.089 -0.2386 -0.0579 -0.0319
97869W        W98733   9.533   3.555  20.675 -0.0478 -0.0781  0.0600
97870W        W98734  21.133  14.412  24.302 -0.3313  0.0694 -0.1624
97871W        W98735  22.521  16.572  18.930  0.1398 -0.3003 -0.0215
97872W        W98736  22.523   1.668  13.894 -0.1250  0.0567 -0.1826
97873W        W98737  11.757  10.865  15.174  0.1926  0.1494 -0.1621
97874W        W98738   6.534  16.712   2.107 -0.0616  0.0290 -0.2321
97875W        W98739  15.365  18.437   4.185 -0.3232  0.0025  0.0113
97876W        W98740  20.693  20.973   6.231  0.1824 -0.4077 -0.0119
97877W        W98741  10.758  28.672  21.368  0.2488  0.0641  0.4103
97878W        W98742   5.515  17.090  21.090 -0.2193  0.1401 -0.0735
97879W        W98743  12.718   3.651   0.106 -0.3762  0.1330 -0.1271
97880W        W98744  11.394   4.549  18.136  0.0205 -0.1097 -0.0919
97881W        W98745  13.112  27.648  19.049  0.0471 -0.1091 -0.0306
97882W        W98746  24.227   2.446   0.971  0.0204 -0.2155  0.0171
97883W        W98747  16.835  12.839   1.306 -0.2359  0.0135 -0.1160
97884W        W98748   5.147   1.749   2.652  0.1233  0.0552  0.3284
97885W        W98749   8.430   0.648  12.610 -0.0419 -0.1579  0.1936
97886W        W98750   8.363  14.276   6.132 -0.2337  0.3414 -0.2541
97887W        W98751  18.890  21.323   9.487 -0.1323 -0.0953 -0.0917
97888W        W98752  18.515  14.012  16.090 -0.0195 -0.1925 -0.0171
97889W        W98753   2.516  24.269  17.111  0.3342  0.1777  0.1835
97890W        W98754  23.549  14.684  24.970 -0.2702  0.0736 -0.4706
97891W        W98755  25.098  21.480  18.211 -0.3510  0.2690  0.2562
97892W        W98756   3.765  25.681  17.999 -0.0636 -0.1658  0.3134
97893W        W98757  26.571  26.517  22.854  0.0749 -0.1453  0.1905
97894W        W98758  11.881  15.421   0.448  0.0414  0.1727 -0.1206
97895W        W98759   2.520  22.941  25.899  0.0194 -0.0670  0.1824
97896W        W98760   1.563  16.897  15.432  0.2689  0.1723 -0.3829
97897W        W98761  24.177  10.694   5.808 -0.2038  0.0619  0.0462
97898W        W98762  20.037  19.017  18.749  0.4489 -0.1595  0.1133
97899W        W98763  28.261  25.744   0.464  0.3261  0.1452  0.1839
97900W        W98764   0.998  27.945  17.007 -0.0533  0.0907  0.2798
97901W        W98765  24.417  22.642  10.232 -0.1962 -0.2975  0.1804
97902W        W98766  26.417  11.628  22.272  0.1029  0.0008  0.1162
97903W        W98767   5.777  11.587  15.598  0.1228  0.3013 -0.1300
97904W        W98768   1.852  18.092  11.047  0.1911 -0.0188 -0.1008
97905W        W98769  10.015   4.631  16.168 -0.2117 -0.2175 -0.3249
97906W        W98770  18.109  23.353  14.768 -0.0914  0.1323 -0.1458
97907W        W98771  10.481  16.580   0.712 -0.1113  0.0256 -0.2821
97908W        W98772  24.753   6.955  21.048 -0.0812  0.1573  0.0916
97909W        W98773   9.564  28.321  15.660  0.1246 -0.0116 -0.0605
97910W        W98774   0.880  26.090  18.658  0.2062  0.2777  0.0711
97911W        W98775   6.684  27.206   7.401 -0.1039  0.1171  0.0687
97912W        W98776  11.379  13.165  13.525 -0.3048  0.2351  0.1558
97913W        W98777  20.108  11.455  17.457 -0.3377  0.0706 -0.0019
97914W        W98778  13.767  25.447   9.592  0.3352 -0.0916 -0.1000
97915W        W98779  11.663  20.545  14.122  0.0822 -0.1202  0.2902
97916W        W98780  27.312   4.647  22.144 -0.1969  0.3253 -0.0260
97917W        W98781  15.453  12.547   2.624  0.2639  0.0695  0.1839
97918W        W98782  16.370  10.218  14.808 -0.1839 -0.0751  0.0450
97919W        W98783   9.944   5.254   5.347 -0.1434 -0.0075 -0.0072
97920W        W98784  28.104  25.097  22.722 -0.1697  0.2794  0.3495
97921W        W98785   4.154   8.089   7.571  0.1142  0.1399 -0.0383
97922W        W98786   5.628  22.544  22.535 -0.0490 -0.2539 -0.0066
97923W        W98787  15.028  26.826  17.259  0.2367 -0.2087  0.0962
97924W        W98788   7.655   4.309  14.329  0.3740 -0.1215  0.0105
97925W        W98789   7.938  13.763  16.252 -0.2129 -0.2527 -0.2673
97926W        W98790   8.241  22.985   2.332 -0.0642 -0.1198  0.1127
97927W        W98791  24.998   9.251  25.056 -0.2316  0.1852 -0.3457
97928W        W98792   0.731   1.607  15.267 -0.4417 -0.0127  0.1210
97929W        W98793  16.972   3.073   3.248 -0.3718 -0.0026 -0.0449
97930W        W98794  15.251  26.283   9.299 -0.2374  0.0489 -0.1041
97931W        W98795   2.089   7.146  10.453  0.0261 -0.0510 -0.0224
97932W        W98796  17.431   3.691   9.194 -0.2940 -0.1343  0.0973
97933W        W98797  15.438   5.232  23.615 -0.0740  0.0978  0.3796
97934W        W98798   5.973  26.213  23.224 -0.1792  0.0857 -0.2221
97935W        W98799  19.919  20.019   6.278  0.0991  0.4593  0.0946
97936W        W98800  11.844  19.718   2.460 -0.0087 -0.0129 -0.3446
97937W        W98801  18.904  19.731  17.931 -0.0877 -0.1643  0.0615
97938W        W98802  16.085  25.807  21.851 -0.1905 -0.1794  0.1322
97939W        W98803   4.729  16.943  20.480  0.0252 -0.0661  0.0591
97940W        W98804  14.632   0.262   0.647  0.0498  0.2886  0.1569
97941W        W98805  26.398  15.736  23.546  0.1157 -0.1733 -0.2066
97942W        W98806  10.866  19.722  22.328 -0.0636  0.0136 -0.3867
97943W        W98807  12.573   6.602   7.887  0.0020  0.0018 -0.1457
97944W        W98808  23.818  27.264  18.538  0.1291  0.0399  0.0287
97945W        W98809  11.687   1.823  28.381 -0.0720 -0.0974 -0.1307
97946W        W98810  26.084   8.789  26.346  0.1001 -0.1014  0.1736
97947W        W98811  13.399  22.036   8.111  0.1328 -0.2125  0.4334
97948W        W98812   5.631   8.882  20.523  0.1460  0.0765  0.0593
97949W        W98813  18.217  10.351   4.532 -0.3274 -0.0844  0.0758
97950W        W98814   8.323  15.879  12.331  0.0721 -0.1391 -0.1226
97951W        W98815  19.528   3.033  10.591  0.1016 -0.3031  0.1223
97952W        W98816  20.759  20.224  10.960 -0.1510 -0.1548 -0.0916
97953W        W98817  11.202   2.537   6.846  0.0316 -0.0781 -0.0288
97954W        W98818  18.489   1.115  25.617 -0.0181 -0.2083  0.0458
97955W        W98819   3.969  16.294   1.948 -0.4163 -0.0704 -0.0766
97956W        W98820   2.136   3.762  23.316  0.1588  0.0332 -0.2554
97957W        W98821  11.436  11.562   7.389 -0.1342 -0.0481  0.1270
97958W        W98822   5.785   0.484  25.041  0.1262  0.0079 -0.2413
97959W        W98823  26.878  20.238   6.296  0.1061 -0.1072  0.0340
97960W        W98824  23.793  27.291  28.195 -0.0039 -0.0396  0.0182
97961W        W98825   2.384  13.666  26.096 -0.0812  0.0134  0.0093
97962W        W98826  27.837  20.819  15.513  0.2359  0.0697  0.1146
97963W        W98827   2.047   4.568  22.376  0.1507 -0.0153  0.0249
97964W        W98828   6.661   3.592  17.775  0.0709 -0.1058 -0.2322
97965W        W98829  19.971   2.111   3.158  0.0899 -0.0534  0.0439
97966W        W98830   9.755  17.637   2.783 -0.1081 -0.1439 -0.0304
97967W        W98831  17.051  24.608   6.395  0.0009 -0.0109  0.1456
97968W        W98832  12.763  17.960  15.816 -0.0252  0.0858 -0.0416
97969W        W98833  18.212  25.804  24.621 -0.1381 -0.2041  0.0321
97970W        W98834   2.626   0.586  24.390 -0.1162  0.3345  0.3457
97971W        W98835  24.854   3.942   2.755  0.1164  0.0322  0.1629
97972W        W98836   4.012  23.985  18.207  0.0351 -0.2782  0.2977
97973W        W98837  21.002  25.703  20.029  0.1020 -0.1670 -0.0797
97974W        W98838  27.686  26.093  19.674 -0.1817  0.0351  0.2943
97975W        W98839   2.447  22.818   0.448 -0.2829  0.0295  0.1430
97976W        W98840  29.095  18.555  12.051  0.0092  0.1832 -0.2348
97977W        W98841  14.374  22.819   9.841 -0.1585  0.1204 -0.1482
97978W        W98842  20.714   1.013   5.246  0.1919  0.1090  0.0396
97979W        W98843   9.873  29.135   5.577 -0.0306 -0.0550 -0.0204
97980W        W98844  28.828  12.276  26.621  0.0759  0.1647 -0.1201
97981W        W98845  19.001  18.919  18.554  0.2320  0.0991 -0.1961
97982W        W98846  18.454  24.276  15.955  0.0642  0.1109 -0.0029
97983W        W98847  14.683  26.537  14.199  0.0868  0.2395 -0.1390
97984W        W98848  21.542  29.067   9.303  0.0746 -0.0692  0.3249
97985W        W98849   7.265   5.747  25.920  0.0203  0.0342 -0.0112
97986W        W98850  15.371  23.132   9.337 -0.1214 -0.0477  0.1933
97987W        W98851  21.103  14.044  26.437 -0.3596  0.1413 -0.1101
97988W        W98852  10.533   0.165  12.264 -0.2391 -0.0545  0.1090
97989W        W98853  10.790  23.802  13.781  0.1498 -0.3497 -0.3751
97990W        W98854  13.323   1.563  11.942 -0.1979  0.1409  0.1098
97991W        W98855  20.347  14.190  27.488 -0.1223 -0.0300  0.2495
97992W        W98856  14.736  14.388  25.415  0.1648  0.0018  0.0333
97993W        W98857   5.145   4.298   6.875  0.0155  0.2030  0.0746
97994W        W98858  19.212   9.153  10.124  0.2609  0.1177 -0.2735
97995W        W98859   9.166   1.148  23.794  0.3088 -0.0923  0.0953
97996W        W98860   2.474  14.175  23.460 -0.0118 -0.0405  0.3263
97997W        W98861  27.752  16.338   6.981 -0.1351  0.0908  0.3807
97998W        W98862   4.850  21.291   1.350  0.2388 -0.3776  0.0543
97999W        W98863   3.256   6.122   1.140 -0.0501  0.0556 -0.1126
98000W        W98864  20.694   7.727   6.757  0.2322 -0.0871 -0.1270
98001W        W98865  23.734  18.139  18.036 -0.0986 -0.1147  0.1495
98002W        W98866  23.204   0.060  13.126 -0.1635  0.0488 -0.1058
98003W        W98867  15.595   1.394  16.014  0.0722  0.1696  0.2755
98004W        W98868  12.473  16.219  15.317 -0.3082 -0.0414 -0.3510
98005W        W98869  17.825  24.133  22.531 -0.1187  0.2348  0.0570
98006W        W98870  21.351  11.921   0.929  0.2862 -0.1389 -0.1486
98007W        W98871  24.217   5.112  15.002  0.3119 -0.1603 -0.0201
98008W        W98872  10.758  22.657  15.796 -0.0577  0.1442 -0.0178
98009W        W98873  24.616  28.330  12.515 -0.1604 -0.1099  0.0643
98010W        W98874  19.377  22.719  16.307  0.2806 -0.0430 -0.1294
98011W        W98875   5.037  21.435   1.802 -0.1407 -0.1112  0.0589
98012W        W98876   8.656  28.694   7.592  0.1750  0.2647  0.1349
98013W        W98877  12.915  28.505  13.330 -0.4418 -0.0901 -0.1367
98014W        W98878  15.602  25.265  14.069 -0.1737 -0.1197 -0.2727
98015W        W98879  11.609  23.836  17.161 -0.3221 -0.1133  0.0160
98016W        W98880  13.165  27.140  12.102  0.3748  0.0610 -0.1149
98017W        W98881  25.888  14.780  14.489  0.0815 -0.0329 -0.0296
98018W        W98882   0.914  21.070   6.228  0.0448 -0.0861  0.0659
98019W        W98883  19.478  13.802   3.899 -0.0002  0.2726  0.2556
98020W        W98884   7.131   2.883   9.067 -0.0612 -0.2440  0.0376
98021W        W98885   1.246  11.154  19.538 -0.1761 -0.2454 -0.3108
98022W        W98886  20.325   6.473   8.131  0.0690  0.1077  0.3557
98023W        W98887  16.806  25.912  29.101  0.2164  0.2985  0.4782
98024W        W98888  28.426  20.552   9.309 -0.1658  0.0460 -0.0450
98025W        W98889   6.598  27.023  21.710 -0.0326 -0.0089 -0.4031
98026W        W98890  13.393  23.553  14.609  0.0410 -0.1493  0.0167
98027W        W98891   7.445   0.504   4.671  0.1256  0.3514  0.0689
98028W        W98892  23.654   6.026  23.846 -0.0223 -0.1684  0.1997
98029W        W98893  16.572   1.345  22.204  0.0776  0.0431 -0.1296
98030W        W98894   6.712   1.635  14.266  0.0563  0.1722 -0.1111
98031W        W98895   3.840  26.848  13.926 -0.1306 -0.3146 -0.1394
98032W        W98896  29.074  17.271  18.978 -0.3932 -0.0679 -0.2318
98033W        W98897  20.746  11.425  13.629 -0.0988  0.0100  0.2773
98034W        W98898  15.443  28.813   1.636 -0.0090  0.0909  0.1288
98035W        W98899   8.545   8.305   2.753  0.1428 -0.1569  0.3872
98036W        W98900   9.552  20.962  28.021  0.0030 -0.1026 -0.1177
98037W        W98901  15.993  24.767  17.156  0.2316  0.0874  0.0489
98038W        W98902  12.706   4.123   9.674  0.1226 -0.1312 -0.0070
98039W        W98903  12.874   6.371  25.945  0.1798 -0.1221 -0.0556
98040W        W98904   9.224  20.925   6.739 -0.0959  0.2032 -0.2232
98041W        W98905  28.634   2.762   2.052  0.2456  0.0277 -0.2145
98042W        W98906  10.726  19.890  10.402 -0.1335 -0.2002  0.1272
98043W        W98907   8.256   0.360   1.061  0.1745 -0.0738 -0.0811
98044W        W98908   8.884   6.224  19.116 -0.1255 -0.1672 -0.0889
98045W        W98909  17.041  20.146  16.160  0.0656  0.0174  0.0325
98046W        W98910   6.873  11.536  10.554  0.0631  0.0787 -0.1470
98047W        W98911   1.266  19.075  12.625  0.0823  0.0643 -0.1120
98048W        W98912   0.968   2.565   1.404 -0.1384 -0.0850  0.0586
98049W        W98913   9.147  23.163  23.485 -0.0772  0.2847 -0.1595
98050W        W98914   5.694  15.229   7.866 -0.1514  0.0729 -0.1635
98051W        W98915   6.799  19.709   0.477  0.0465  0.1577  0.0539
98052W        W98916  15.056  14.408   1.550 -0.2696 -0.0331 -0.1586
98053W        W98917   6.443  13.083   8.900  0.2033 -0.0807 -0.1019
98054W        W98918   7.484   2.337   0.835  0.1666 -0.1315  0.0882
98055W        W98919  17.957  28.008  11.944 -0.0060  0.3065 -0.0161
98056W        W98920  14.333   1.668   8.446  0.0862 -0.0008  0.0292
98057W        W98921  12.641  25.624  17.821  0.1194  0.0085 -0.1025
98058W        W98922  18.784  21.982  15.716 -0.1682 -0.0263 -0.0091
98059W        W98923   7.629   5.466  26.788  0.3603  0.0101 -0.2525
98060W        W98924   4.500  15.598  21.751  0.0017 -0.1673  0.2118
98061W        W98925  10.000  25.581  27.260 -0.0153  0.2972  0.2515
98062W        W98926   4.501  26.070   3.279  0.3832 -0.1156  0.1786
98063W        W98927  24.928  21.278  20.721  0.2029  0.0721  0.2734
98064W        W98928   7.195  15.454   2.051  0.0269  0.1191 -0.2645
98065W        W98929  25.084   8.246  18.948  0.1510  0.1847  0.0208
98066W        W98930  13.673   0.857  13.934 -0.1617 -0.1180  0.0031
98067W        W98931  23.824  24.869  18.530 -0.2965 -0.1851 -0.0484
98068W        W98932   7.656  24.791  24.375  0.3734 -0.1782 -0.0127
98069W        W98933  18.880  11.878  15.009  0.0592  0.0532  0.1159
98070W        W98934  13.688  11.816  10.078  0.0760  0.1526  0.1268
98071W        W98935  19.611   6.148  21.819  0.0246  0.3332  0.0061
98072W        W98936  21.791  26.935  12.143 -0.0025  0.2178  0.0903
98073W        W98937  28.366  15.239  15.428 -0.1083 -0.0677 -0.4557
98074W        W98938  14.146  25.497  23.630  0.0342 -0.5098  0.1136
98075W        W98939  14.774  26.173   3.791 -0.1138 -0.0549 -0.0984
98076W        W98940  26.988  11.003  11.380  0.2777 -0.4199 -0.0528
98077W        W98941   8.787  28.075  24.984 -0.0263 -0.4086  0.1683
98078W        W98942  20.502   4.499  12.732 -0.5289 -0.0954 -0.0001
98079W        W98943  17.530   9.972   3.195 -0.0986  0.4060 -0.1544
98080W        W98944   4.466  14.169  20.228 -0.0019 -0.0640 -0.0748
98081W        W98945   4.242   2.242  17.843  0.1368 -0.2614  0.2580
98082W        W98946  17.514  23.301  15.866 -0.1704  0.2089  0.0992
98083W        W98947  19.824  16.302  27.996  0.1621 -0.1241 -0.0540
98084W        W98948   9.879  28.180  28.538 -0.1197 -0.0793  0.0544
98085W        W98949  22.096  20.065  20.600 -0.0578 -0.0005  0.4482
98086W        W98950  23.718   6.308  10.465 -0.1033  0.3886 -0.0044
98087W        W98951  11.211  13.165  15.830 -0.0613 -0.1755  0.1580
98088W        W98952   8.922   0.486  23.350 -0.1095 -0.1126  0.1779
98089W        W98953   8.836  10.582  23.788 -0.1693 -0.1298 -0.3678
98090W        W98954   8.295   7.456  10.061 -0.1526 -0.2714  0.0440
98091W        W98955  20.757   0.877   1.213 -0.1836  0.0392  0.3373
98092W        W98956  12.593   2.735   6.340 -0.2241  0.0351 -0.0392
98093W        W98957  14.098   5.929  21.973 -0.0613  0.1000 -0.2078
98094W        W98958  19.567   2.360   7.369  0.1821  0.4850 -0.1415
98095W        W98959   1.529  16.072  21.727 -0.0655 -0.1063 -0.4152
98096W        W98960  12.676  16.151  16.757 -0.1240 -0.1277  0.0535
98097W        W98961  26.986  18.618  25.027 -0.3687  0.0905  0.0102
98098W        W98962   1.568  24.758  22.946 -0.4423  0.1479 -0.0640
98099W        W98963   5.501  20.941   6.004  0.1007  0.4607 -0.2599
98100W        W98964   6.192   6.443  10.869 -0.2328 -0.0224 -0.0451
98101W        W98965  10.535  27.058  11.704 -0.1363 -0.3970 -0.0190
98102W        W98966   3.632  17.948  25.646  0.1767 -0.2120  0.2846
98103W        W98967   1.922  22.101  25.818  0.3005 -0.0498 -0.2115
98104W        W98968  22.342  23.901  18.093  0.0499  0.0208 -0.0861
98105W        W98969  17.900   0.914  20.696  0.0001  0.2723 -0.4876
98106W        W98970   5.809  27.594  12.665 -0.1241  0.1324 -0.0090
98107W        W98971   8.210  13.708   4.475  0.2291 -0.2941  0.1896
98108W        W98972  19.991  12.421   7.153 -0.0127  0.2547 -0.1018
98109W        W98973  24.105  23.278  22.024  0.1254 -0.1623  0.0320
98110W        W98974   4.221  28.355  24.451  0.0204  0.1447  0.3622
98111W        W98975   7.252  27.068   8.836 -0.2318  0.0446  0.3341
98112W        W98976   5.581  26.050   6.199  0.1783  0.0317 -0.0180
98113W        W98977  21.059  26.433  13.632  0.0893 -0.1577  0.1264
98114W        W98978  14.785   2.872  20.735 -0.0283  0.0740  0.0615
98115W        W98979  25.665   3.329  13.505  0.0925  0.1237 -0.3236
98116W        W98980  18.722  22.833   6.596  0.0804  0.0253  0.0384
98117W        W98981  15.937  23.035  19.155  0.1981 -0.1649 -0.1886
98118W        W98982  25.793  18.577  14.305  0.2065 -0.5932  0.0918
98119W        W98983  19.419  21.056   1.991 -0.1093  0.1407  0.1283
98120W        W98984  20.116   2.239   6.733  0.0284 -0.0685  0.0035
98121W        W98985  19.631  10.902  28.435 -0.2788 -0.3386  0.1629
98122W        W98986  21.133   7.727   7.005 -0.2377 -0.2394 -0.1075
98123W        W98987  22.070   3.636   4.466  0.2081 -0.2551  0.0098
98124W        W98988  28.876  20.281  12.877  0.3034  0.0299 -0.0756
98125W        W98989   5.506  11.066  19.182 -0.4687  0.1752 -0.1172
98126W        W98990   9.593  17.479  12.444  0.0632  0.1003 -0.0838
98127W        W98991  28.028  22.849  25.258 -0.3058  0.1679 -0.1850
98128W        W98992  21.903  21.113  23.809  0.2719  0.0814  0.0675
98129W        W98993   8.149  20.250   7.058 -0.1521  0.3126 -0.2489
98130W        W98994   0.322  12.050  16.646  0.0251 -0.0866 -0.0269
98131W        W98995  18.685  23.833  15.128  0.1791 -0.0740 -0.0717
98132W        W98996   4.837  22.622  28.468  0.2442 -0.1496  0.2181
98133W        W98997   9.011  23.185  26.153  0.1213 -0.0394 -0.2207
98134W        W98998  18.095  21.146   9.492  0.0640  0.5372  0.0140
98135W        W98999  14.108   9.353  26.350  0.2604 -0.0267 -0.1633
98136W        W99000   9.674  14.556  20.923 -0.2789  0.4714 -0.4086
98137W        W99001  21.874  22.820   8.899 -0.1213  0.0471  0.1956
98138W        W99002   0.397  15.584   7.908  0.1527 -0.1108 -0.0537
98139W        W99003  10.107  17.266  20.331  0.3615 -0.3336 -0.0405
98140W        W99004   4.241   9.275  21.374 -0.1238 -0.1612  0.3507
98141W        W99005  12.309  24.808  20.883  0.1189 -0.1708 -0.1759
98142W        W99006  22.964   3.102  14.755 -0.0302  0.0179  0.3355
98143W        W99007  10.681  19.198   7.537 -0.0771 -0.1153 -0.0710
98144W        W99008  11.450  26.581  25.369 -0.1448 -0.2925 -0.0217
98145W        W99009  13.757   9.071  10.452 -0.1650 -0.1620 -0.0086
98146W        W99010   3.706  21.183  23.141 -0.1355  0.1609  0.0636
98147W        W99011  24.904   5.588  25.517 -0.0124 -0.1603  0.0166
98148W        W99012   9.552   6.998  13.945 -0.1297 -0.0414 -0.0907
98149W        W99013  16.295  16.779   1.978 -0.1371 -0.0701 -0.0841
98150W        W99014   1.271  27.999  21.052 -0.0289 -0.1959  0.0427
98151W        W99015  11.804  19.898  17.134  0.0824 -0.0587 -0.0169
98152W        W99016  13.791   2.091  11.244  0.1316 -0.1870  0.2572
98153W        W99017   7.990  22.676  10.121 -0.2066 -0.3639 -0.0448
98154W        W99018   7.399  17.176  24.412  0.0266  0.0312 -0.1168
98155W        W99019   1.895   0.208  12.383 -0.0004 -0.0226  0.0395
98156W        W99020  27.653  25.805   8.498 -0.0002 -0.0620 -0.0226
98157W        W99021  20.849  25.473  24.634 -0.2415 -0.2959 -0.1959
98158W        W99022  14.925  26.057  24.644  0.1317  0.4314  0.0732
98159W        W99023  26.832  17.243   7.180  0.0531 -0.2113 -0.1720
98160W        W99024  17.094  27.824   1.300 -0.2699  0.0611  0.0194
98161W        W99025   1.558  22.962   9.644 -0.0427  0.1986 -0.2614
98162W        W99026   7.917  24.831  20.940  0.2914  0.1847 -0.0532
98163W        W99027  20.797  12.131  20.532  0.2566 -0.0266 -0.1917
98164W        W99028   2.984   4.903   2.624  0.0568  0.0659  0.0428
98165W        W99029   6.217  15.047  17.648 -0.2607 -0.1460 -0.1757
98166W        W99030   0.722   5.290  13.641  0.1047  0.0089 -0.4665
98167W        W99031  14.797   0.863   9.078 -0.2609 -0.2335 -0.0954
98168W        W99032   3.972  24.553  23.685 -0.3754 -0.2172  0.1308
98169W        W99033  18.391   2.697  24.004 -0.3019  0.0277  0.3740
98170W        W99034  18.508  18.931  18.240 -0.0223 -0.1733 -0.2118
98171W        W99035   8.511  14.183  18.997  0.0643 -0.1806  0.1263
98172W        W99036   9.229  15.057  11.537  0.1539  0.2697 -0.1356
98173W        W99037   3.236   8.137   3.257  0.2692  0.2446  0.2386
98174W        W99038  21.923  14.069  20.511  0.1531 -0.0501 -0.1169
98175W        W99039  19.925  21.885  19.587 -0.1845  0.0662  0.0679
98176W        W99040   8.104   1.513  29.098 -0.0776  0.1255  0.0837
98177W        W99041   5.407  28.575   2.497 -0.1936  0.0638 -0.0141
98178W        W99042  19.123  14.509  18.783 -0.0547 -0.3142  0.1938
98179W        W99043   4.115  28.096   8.810 -0.1319 -0.0506  0.2426
98180W        W99044  11.939   6.627   2.642  0.2441 -0.1513 -0.0864
98181W        W99045  27.461   5.451  18.369  0.2359 -0.1362 -0.2659
98182W        W99046  25.927  13.707   7.769  0.2540 -0.0915 -0.0930
98183W        W99047  13.585   4.367   5.284 -0.0802 -0.2502 -0.3722
98184W        W99048  12.633   2.174  22.197 -0.0113  0.0153 -0.0660
98185W        W99049   1.390   0.114  18.880  0.0057  0.1723 -0.1840
98186W        W99050  26.117   3.278   3.085 -0.0957  0.1316 -0.0641
98187W        W99051  22.078  22.337  22.354 -0.1186  0.0939  0.1848
98188W        W99052  13.812  15.484  26.426 -0.2014  0.0055 -0.2014
98189W        W99053  10.534  10.062   3.525  0.0154  0.1764 -0.2906
98190W        W99054  12.961  24.299   0.703  0.0872 -0.1151 -0.1261
98191W        W99055   5.749  10.157  26.100  0.0466  0.1268 -0.1072
98192W        W99056  10.539  19.681  21.036 -0.1536 -0.0604 -0.2281
98193W        W99057  21.929   2.531   8.138  0.2198 -0.3989 -0.0976
98194W        W99058  14.239  26.962  27.049 -0.0162  0.2480 -0.0306
98195W        W99059   7.807  18.525  20.005  0.0608  0.1352 -0.0989
98196W        W99060   9.300  21.037  22.650 -0.0039 -0.1875  0.0016
98197W        W99061  18.403   3.011  10.408  0.1352 -0.2052 -0.0707
98198W        W99062  20.184   5.906  28.011 -0.1039  0.3404  0.3414
98199W        W99063  10.729  14.784  16.469 -0.3637 -0.1959  0.1427
98200W        W99064  29.088  24.841  15.842 -0.0296 -0.2192  0.2466
98201W        W99065  22.131  25.087   8.762 -0.1752  0.1674  0.1967
98202W        W99066   5.353  23.611  28.624  0.3849  0.2887  0.1422
98203W        W99067  10.599  23.729  19.227 -0.2221 -0.0693 -0.1829
98204W        W99068  15.027  10.296  28.310  0.0691 -0.0364  0.1267
98205W        W99069  10.144  22.073  27.080  0.2882 -0.1836 -0.2855
98206W        W99070  19.075  23.461   4.278 -0.0342 -0.3538 -0.2653
98207W        W99071  16.450  14.179  14.798  0.1150 -0.1437 -0.1167
98208W        W99072  26.372   2.445  29.050 -0.2091  0.1080 -0.1375
98209W        W99073  14.500   0.218  25.001 -0.3796 -0.0160 -0.0619
98210W        W99074   2.526  22.266  20.382  0.2379  0.1820  0.2517
98211W        W99075  11.930  16.868  14.855 -0.2237 -0.0608  0.0491
98212W        W99076   9.891  26.359  11.831 -0.0529 -0.2736 -0.1811
98213W        W99077  24.364  16.340  11.696  0.2651  0.2537  0.0011
98214W        W99078  17.838   5.690   6.453 -0.1425 -0.0665  0.2218
98215W        W99079   3.183  15.128   4.138 -0.0159  0.0905  0.3467
98216W        W99080  21.807   6.284  21.869 -0.3909 -0.1634  0.3996
98217W        W99081  28.417  23.190   3.046 -0.0178 -0.2802 -0.3969
98218W        W99082  21.076  27.044  16.366  0.4433  0.1586  0.0200
98219W        W99083  19.362  22.216  24.414  0.1557 -0.1983  0.2803
98220W        W99084  12.199  27.611   2.811  0.0284  0.0149  0.0417
98221W        W99085   7.004  27.017  18.479  0.1565  0.1302 -0.0664
98222W        W99086   0.006  24.424  14.401  0.0458  0.0903 -0.0596
98223W        W99087  23.756  26.813  12.602 -0.1982 -0.1897 -0.1753
98224W        W99088   6.716   7.484  26.624 -0.0168 -0.0337  0.3449
98225W        W99089  27.178  17.838  10.469  0.0314  0.0956  0.0816
98226W        W99090   7.578  22.502   6.459  0.0488  0.0342  0.1645
98227W        W99091  24.406  17.300  12.172  0.0742  0.1263  0.0332
98228W        W99092  18.844  21.951  13.679  0.0453  0.2403  0.0825
98229W        W99093  14.461  19.840  24.952 -0.1315 -0.0086 -0.2053
98230W        W99094   3.938   1.522  26.652  0.1009 -0.0121  0.1533
98231W        W99095   7.530  13.830  10.296 -0.3431  0.0086  0.0605
98232W        W99096  17.875  27.503   1.255  0.1008  0.0985  0.2177
98233W        W99097  12.762  20.810  15.283  0.0370  0.1895  0.0652
98234W        W99098   6.113  19.748  12.574 -0.2298  0.0267  0.1423
98235W        W99099  28.445   4.250   4.980  0.0122 -0.6041  0.2105
98236W        W99100  13.263  28.263  17.379  0.3879  0.3801  0.0540
98237W        W99101  18.890   4.602  10.318 -0.1844  0.0568  0.3057
98238W        W99102  22.633  24.882  23.536  0.1858 -0.2904 -0.0129
98239W        W99103   8.604   4.464  14.122  0.1180  0.1695 -0.0858
98240W        W99104  27.551  17.842  25.870  0.2699  0.6795  0.3087
98241W        W99105  12.171  15.009  12.485  0.0116 -0.1197  0.0422
98242W        W99106   8.973  22.075   7.764 -0.2706  0.0874  0.1677
98243W        W99107  10.776  21.456  18.454  0.0616 -0.0829 -0.1531
98244W        W99108  10.685   0.490   9.945 -0.0173  0.0513 -0.1287
98245W        W99109  24.070   7.107  15.127 -0.2149 -0.0156  0.1669
98246W        W99110   3.101  14.530   2.784 -0.1146 -0.1092  0.1144
98247W        W99111  14.747  26.512  24.728  0.0052  0.0133  0.0754
98248W        W99112  11.097  14.316  24.381 -0.0435 -0.1127 -0.2195
98249W        W99113  13.860  20.556  26.955 -0.0443 -0.0418 -0.0516
98250W        W99114   9.386  16.253  24.936 -0.0703 -0.0940  0.0157
98251W        W99115  19.526   9.396  24.922 -0.0555 -0.0170 -0.1037
98252W        W99116  23.119  27.410  10.561 -0.0772 -0.1334  0.1387
98253W        W99117   1.265  22.790  28.224 -0.0808  0.1180  0.2659
98254W        W99118  20.191   4.142  12.331 -0.0369  0.1207  0.0695
98255W        W99119  15.179  24.098  22.810  0.0670  0.0839 -0.2180
98256W        W99120  16.932  22.736   8.900  0.0827  0.0375  0.0350
98257W        W99121   5.426  10.659   2.373 -0.2995  0.3698  0.0454
98258W        W99122  16.966  28.959  15.422 -0.2167  0.0615 -0.0124
98259W        W99123   1.528   5.765  15.731  0.1968  0.2105 -0.0818
98260W        W99124  21.748  25.357  13.736 -0.0987  0.1328 -0.0009
98261W        W99125  10.404   8.944  11.580 -0.3714 -0.0126  0.1944
98262W        W99126   5.744   2.468  24.005 -0.0880  0.1238  0.0294
98263W        W99127  11.889   1.604  20.397  0.1115  0.3306  0.0753
98264W        W99128  23.058  26.253  21.055 -0.0145  0.4025  0.0900
98265W        W99129  25.964  26.332  17.648  0.2339 -0.0123  0.0233
98266W        W99130   6.991  20.848  24.004  0.2748 -0.0288 -0.2422
98267W        W99131  20.767   1.192  12.736 -0.2774 -0.1528  0.2130
98268W        W99132   2.832  27.572  16.898 -0.0035 -0.2361 -0.0237
98269W        W99133  16.913  13.294   6.021  0.0335  0.0123  0.2658
98270W        W99134  20.174   1.244  14.130  0.2733  0.0241 -0.2497
98271W        W99135   8.120   5.541   4.987 -0.0962 -0.1940  0.0981
98272W        W99136   4.852   7.664  18.152  0.3234  0.0548 -0.2924
98273W        W99137   0.017  11.069  23.822 -0.1762 -0.0290  0.0187
98274W        W99138  28.398  25.769  11.721  0.2169  0.0429 -0.1258
98275W        W99139  13.498   1.063  12.089  0.0778  0.0237 -0.1055
98276W        W99140  28.155  17.666  15.486  0.3577  0.2158  0.0653
98277W        W99141  26.045  26.646  25.417  0.1890  0.1119 -0.1339
98278W        W99142   6.253  12.019  14.571  0.0476 -0.2346  0.1599
98279W        W99143  11.240  10.874  12.044 -0.0979  0.1767 -0.5116
98280W        W99144  17.454  17.914  21.083  0.2040 -0.3445 -0.0510
98281W        W99145  23.544  21.908  19.551 -0.0037  0.2022  0.0893
98282W        W99146  10.025  13.362   7.146  0.0306  0.0227 -0.0278
98283W        W99147   4.489  15.210  16.311 -0.1886 -0.0161  0.1345
98284W        W99148   2.074  17.314  19.535 -0.0282  0.0882 -0.1073
98285W        W99149   9.416   0.111  13.895  0.2425 -0.0241  0.1060
98286W        W99150  13.012  25.295  16.563  0.3857 -0.1488  0.1443
98287W        W99151  19.319   6.465  16.980  0.0849 -0.1690 -0.0249
98288W        W99152  27.760  22.639   6.780  0.0673 -0.1595  0.0869
98289W        W99153  15.089  18.077  12.064  0.0593 -0.1434  0.0482
98290W        W99154  27.529   4.478  18.620 -0.0754  0.0343 -0.0365
98291W        W99155   5.080   3.705  17.974  0.1315  0.0612  0.0029
98292W        W99156  13.900  21.873   1.455  0.0105 -0.1408 -0.1589
98293W        W99157   5.153   8.165  14.007 -0.1630 -0.2527 -0.2072
98294W        W99158  15.180   1.553  14.352 -0.0467 -0.1717 -0.1918
98295W        W99159  26.165  19.480  13.162  0.1180  0.0745 -0.0667
98296W        W99160  13.329  17.408  21.351  0.1620  0.0275  0.1137
98297W        W99161  21.897  27.434   2.339 -0.0729 -0.0177  0.1975
98298W        W99162  10.400  16.335  20.055 -0.4214 -0.0118 -0.1248
98299W        W99163   3.386  23.986  13.092  0.5512  0.1324 -0.1805
98300W        W99164  22.266  23.660  10.605  0.1038 -0.0958 -0.1990
98301W        W99165  11.119  23.634  25.821 -0.2154 -0.0643 -0.2088
98302W        W99166   3.206  25.810   2.347 -0.0864 -0.2773  0.0921
98303W        W99167  26.696  26.744  25.456  0.2708  0.1646  0.2853
98304W        W99168   6.134  14.117  22.529  0.2185  0.2519 -0.2180
98305W        W99169  11.440   5.242  17.188  0.1393 -0.2032  0.1813
98306W        W99170  26.245  18.482  22.278  0.1820  0.0569 -0.0375
98307W        W99171   4.618  22.347  23.440  0.0171 -0.1046 -0.0761
98308W        W99172  17.123  28.248  26.788  0.4880 -0.4265 -0.0429
98309W        W99173   8.332  17.744  20.169  0.0148  0.3397 -0.2718
98310W        W99174  28.391  26.142   0.944 -0.0851 -0.3985 -0.2118
98311W        W99175  11.777  26.988  14.828 -0.1456  0.2465  0.0908
98312W        W99176   4.627  25.213   0.549  0.0643  0.1822 -0.0458
98313W        W99177  12.213   0.511  27.420 -0.1645  0.1423 -0.0152
98314W        W99178  21.330   7.473   7.876  0.0407  0.0722 -0.0668
98315W        W99179  25.505  23.011  20.724 -0.2764 -0.4467  0.1550
98316W        W99180  10.281  13.108   5.205 -0.0017  0.2841 -0.1745
98317W        W99181   9.488   7.248  12.362  0.2950 -0.0321 -0.2272
98318W        W99182  10.640   3.895   2.645  0.1654  0.0173 -0.0212
98319W        W99183  20.302   2.660   3.410  0.2896 -0.0850  0.0559
98320W        W99184   4.864   7.000  26.062  0.2108  0.0644  0.4480
98321W        W99185  16.163  28.726   3.654  0.0483 -0.1539 -0.3728
98322W        W99186   3.850  19.899  19.348  0.0872  0.3153 -0.1487
98323W        W99187  14.084   6.306  28.974 -0.0286  0.0141  0.0256
98324W        W99188  27.158   9.652  12.138  0.0945 -0.1952  0.0815
98325W        W99189  25.938  21.681  17.459  0.2874 -0.0072 -0.0379
98326W        W99190  24.310  17.344   4.716 -0.1460  0.1251 -0.1813
98327W        W99191   5.586  26.982   4.434 -0.0330  0.2114 -0.0225
98328W        W99192   3.202   8.547  25.302  0.1707  0.3826 -0.0346
98329W        W99193   6.471  21.860  28.390  0.2945 -0.1773 -0.1571
98330W        W99194  24.411  15.530  12.302  0.2041 -0.1778 -0.0946
98331W        W99195  25.104   7.415  27.024 -0.0729  0.0501  0.0061
98332W        W99196  17.668  11.194   8.572 -0.1982 -0.3564 -0.0154
98333W        W99197  20.139  25.970  25.002  0.4153  0.0641 -0.1012
98334W        W99198  15.658  16.545   5.354 -0.2785 -0.2878 -0.2670
98335W        W99199   6.860   1.939   6.530  0.1927  0.0464  0.1860
98336W        W99200  15.432  12.539  15.478  0.2822  0.1336 -0.1069
98337W        W99201   3.108  15.777  21.805  0.2536  0.2558 -0.0047
98338W        W99202  25.127  16.497  22.458  0.2274  0.1265  0.3105
98339W        W99203   8.463   2.351  15.799 -0.1787 -0.3184  0.0695
98340W        W99204  25.276   7.741  11.957 -0.2294  0.0903 -0.0361
98341W        W99205  21.299  16.283  24.090  0.0338  0.0292 -0.0187
98342W        W99206   1.912  19.727  17.887 -0.0598 -0.2905 -0.1715
98343W        W99207  21.303  16.249   6.651  0.0499 -0.3306 -0.3317
98344W        W99208  11.851  19.482  13.430  0.1652  0.0940  0.1702
98345W        W99209   9.992  23.118  17.425  0.3939  0.0916  0.3110
98346W        W99210   2.299  23.995  21.810 -0.0221 -0.1635 -0.0878
98347W        W99211  14.366  20.092  21.938  0.1839  0.0578 -0.1570
98348W        W99212  14.741   6.052  26.514  0.1483 -0.0463 -0.0919
98349W        W99213   3.618  15.886   6.440 -0.0376  0.0464  0.2314
98350W        W99214  16.180  23.412  21.858  0.2512  0.0441  0.0208
98351W        W99215   2.621   0.974  18.523 -0.2103  0.0357 -0.0879
98352W        W99216   2.946  20.059  13.187  0.0378 -0.0378  0.2078
98353W        W99217  14.043   6.227  15.037  0.2898 -0.0839 -0.0498
98354W        W99218  12.516   6.304  21.491  0.1742 -0.0554  0.2471
98355W        W99219  19.518   0.506   3.438 -0.2987 -0.1022  0.1291
98356W        W99220  23.609   3.122  22.158 -0.3115 -0.1190 -0.3898
98357W        W99221   3.316  28.709  10.933 -0.0690  0.1545 -0.0570
98358W        W99222   3.146  26.369  28.943 -0.0699 -0.1314 -0.1493
98359W        W99223  23.654  25.652  24.867 -0.0301 -0.1222 -0.0118
98360W        W99224  17.587   2.525  19.302  0.1601  0.2072  0.1134
98361W        W99225  17.451   0.791  24.061 -0.0625 -0.0069 -0.0698
98362W        W99226  20.890  14.702  23.903 -0.2810  0.0436 -0.3539
98363W        W99227  26.736  13.450  18.250 -0.1386  0.0333 -0.1396
98364W        W99228  27.237  28.088  16.500 -0.0998 -0.0199 -0.1581
98365W        W99229  15.272   6.310  20.624  0.1457 -0.1091  0.0060
98366W        W99230   4.645  24.645  26.467 -0.0029 -0.2283  0.0150
98367W        W99231  11.779  22.021  19.928 -0.0932 -0.0149 -0.0404
98368W        W99232  23.533   3.066  11.794 -0.2565 -0.0817 -0.0604
98369W        W99233  18.310  23.968  17.655  0.0466  0.0037  0.2820
98370W        W99234  15.957  27.285   6.054 -0.2188 -0.2925  0.1690
98371W        W99235   1.638   2.921  10.211  0.1052 -0.1495  0.1542
98372W        W99236  15.756   5.268  14.394  0.0614  0.3754  0.0426
98373W        W99237  19.520   9.270  23.833  0.1613  0.1043  0.0764
98374W        W99238   7.791   3.669   2.736  0.1965  0.3192 -0.2423
98375W        W99239  24.089  27.803  20.568  0.2042  0.0758  0.2612
98376W        W99240   4.145  19.956   0.699  0.1927 -0.0393 -0.1384
98377W        W99241  27.195  12.166  20.592 -0.1110  0.1568  0.1799
98378W        W99242  16.101  14.972  12.181  0.2990  0.1356  0.1756
98379W        W99243   8.266  23.858  18.906 -0.1758  0.0434 -0.1447
98380W        W99244  27.633  12.891   9.722 -0.2512  0.3648 -0.0970
98381W        W99245  23.138  17.587  20.507 -0.2097  0.1097 -0.3770
98382W        W99246  10.022   5.658  12.437  0.0984  0.2190  0.0151
98383W        W99247   2.964   5.992   9.030  0.0292  0.0823  0.0113
98384W        W99248   8.547  21.724   8.720 -0.1271  0.0391 -0.0910
98385W        W99249  27.771  28.139  16.629  0.1257 -0.0606  0.2379
98386W        W99250   5.476  10.623  24.905  0.2953  0.2257  0.0269
98387W        W99251  19.828  16.290  28.988  0.0195  0.2560  0.0673
98388W        W99252  16.815  23.184  20.641  0.1437  0.1171 -0.3517
98389W        W99253  11.838  25.317   8.102  0.1548  0.0073  0.3611
98390W        W99254   3.325  17.322  11.252 -0.1507  0.6615 -0.1326
98391W        W99255  10.227  11.231  22.673 -0.2389 -0.1807 -0.2565
98392W        W99256  17.233  13.269  25.405  0.0632  0.0354 -0.1952
98393W        W99257   7.303  22.578  26.624 -0.1165 -0.2215 -0.2209
98394W        W99258  10.639  19.139  17.523  0.1355  0.1269 -0.0035
98395W        W99259  17.974  16.006  21.541 -0.0114  0.2555  0.1296
98396W        W99260   2.892  17.950   4.417  0.0219  0.0718 -0.1347
98397W        W99261   2.529  11.161  18.874  0.0795 -0.0908  0.4615
98398W        W99262   1.087  17.631  28.724 -0.0620  0.2971 -0.1864
98399W        W99263  19.416  20.668  24.683 -0.0032 -0.1367 -0.2490
98400W        W99264  28.882  18.010  17.869  0.1352 -0.1752 -0.0816
98401W        W99265   3.289  22.895  20.038 -0.3365  0.2192  0.0136
98402W        W99266   7.939  26.596  22.346  0.2371 -0.3091 -0.1473
98403W        W99267  26.141   1.925   4.784 -0.3042  0.0567  0.1713
98404W        W99268   6.780  25.121  16.402  0.0574  0.0373  0.1230
98405W        W99269  13.776  19.826  24.414  0.2694 -0.1052 -0.0857
98406W        W99270  14.177  28.998  19.117  0.0321  0.0778 -0.2741
98407W        W99271  12.913  28.466  13.860 -0.3857 -0.3210  0.1429
98408W        W99272  17.218  22.191   3.909 -0.0550  0.0064 -0.1291
98409W        W99273  21.323  22.201   0.687 -0.2014  0.1049 -0.1142
98410W        W99274   5.404   5.537   7.823  0.2077 -0.2610 -0.1666
98411W        W99275  14.473   3.344  10.140 -0.0684  0.2732 -0.0544
98412W        W99276  27.144   8.831  20.167 -0.3311  0.1455 -0.2055
98413W        W99277  10.730   6.237  16.533 -0.1359  0.1259  0.1651
98414W        W99278   9.097  25.902  28.835  0.3534  0.0035 -0.1636
98415W        W99279  19.518  22.316   6.689  0.1667 -0.1181 -0.2305
98416W        W99280  18.862  21.116   0.164 -0.0016  0.0365  0.1762
98417W        W99281   1.478  25.334  10.382  0.1105 -0.1184  0.0210
98418W        W99282  23.467   0.334  17.887 -0.0674 -0.1817 -0.1364
98419W        W99283  20.818  22.768  28.982  0.0855 -0.1392 -0.0449
98420W        W99284  12.785  24.306   9.384 -0.5828 -0.1848  0.1585
98421W        W99285  10.644  10.594  25.786  0.0357  0.1292 -0.0007
98422W        W99286  12.887  21.093   1.881  0.1860  0.3334 -0.0841
98423W        W99287  15.242  21.341  24.430 -0.1205  0.0914 -0.2563
98424W        W99288  11.873  18.997  16.368 -0.1790 -0.0118  0.1250
98425W        W99289  12.230  11.974  24.062 -0.2288  0.3404  0.2807
98426W        W99290   4.854   3.357  19.359 -0.3858 -0.1980 -0.1602
98427W        W99291   8.892   4.528  22.963 -0.1931 -0.1608  0.2397
98428W        W99292  16.742   4.930  16.515  0.1781  0.1668 -0.0124
98429W        W99293  13.559  14.685  11.681 -0.0562 -0.1627  0.1367
98430W        W99294   6.004  13.861   7.439 -0.0091 -0.2177 -0.0899
98431W        W99295  11.843  12.613  22.928  0.1090 -0.2977 -0.1171
98432W        W99296  26.831  16.401  26.427 -0.2170  0.1495  0.1340
98433W        W99297   9.646  21.157   6.766  0.1494  0.0534  0.1138
98434W        W99298   9.503  28.509  12.066  0.0083 -0.0924  0.0021
98435W        W99299  14.101  18.277  25.545  0.0987  0.2695 -0.0392
98436W        W99300  11.541  27.563  21.732  0.1228 -0.0343 -0.0919
98437W        W99301  18.626  26.201  26.914  0.1671 -0.2619 -0.1618
98438W        W99302  27.857   9.037   6.692 -0.0209  0.0795  0.0081
98439W        W99303  21.944  21.970  14.216 -0.1594  0.4568 -0.1237
98440W        W99304   1.717  23.793   8.665  0.2491  0.0474  0.1274
98441W        W99305  18.929  25.508  12.555 -0.3027  0.2511 -0.2310
98442W        W99306   8.740  15.411  20.212 -0.0472  0.0960  0.2686
98443W        W99307  22.065  28.267  19.981  0.4356 -0.1415  0.1183
98444W        W99308   7.536   8.824   7.569 -0.0019 -0.1289  0.0724
98445W        W99309   8.774  23.402  12.796 -0.2867 -0.4227  0.1761
98446W        W99310   1.173  20.599  28.345 -0.1062 -0.0546  0.0066
98447W        W99311  16.358  27.475  17.052 -0.0615  0.1419  0.4146
98448W        W99312  15.955   5.960  15.299  0.3821  0.1036  0.1480
98449W        W99313   4.276  23.387  22.692  0.1331 -0.3782  0.1247
98450W        W99314  18.996  26.969  18.651  0.1346 -0.1355  0.2239
98451W        W99315  14.394  11.537  19.939  0.0225  0.1272 -0.0471
98452W        W99316  26.612   5.055   9.836  0.1523  0.0386 -0.0741
98453W        W99317  16.418   1.442  16.452  0.2324  0.3658  0.2680
98454W        W99318  10.109  20.666   9.577  0.0233  0.1056  0.2285
98455W        W99319   1.627  20.604  24.304 -0.0446 -0.0009 -0.0617
98456W        W99320  27.528   7.279  24.869 -0.1325 -0.1785 -0.2208
98457W        W99321   1.068  28.538   7.459 -0.0132 -0.0859  0.0347
98458W        W99322  24.916  20.606  12.143  0.0087  0.0185  0.3138
98459W        W99323  29.034   2.475  17.752  0.1581  0.1607 -0.2394
98460W        W99324   1.423  19.428   2.117 -0.0247  0.1175 -0.1727
98461W        W99325  16.322   4.826   2.830 -0.1000 -0.0689  0.0377
98462W        W99326  11.801  17.037  18.613 -0.1778 -0.4418  0.0407
98463W        W99327  19.674  14.002   1.662 -0.1360 -0.1005 -0.0628
98464W        W99328   3.405   1.174  19.084 -0.0554 -0.2364 -0.1059
98465W        W99329  21.785  14.909  16.041 -0.0079  0.1138 -0.1949
98466W        W99330  15.985  28.609  21.455  0.0158  0.0883 -0.1037
98467W        W99331  11.090   2.247   4.415  0.1652 -0.0948  0.1331
98468W        W99332  28.740  17.669  23.070 -0.1668 -0.2415  0.1049
98469W        W99333  12.975  22.631  14.106  0.2301  0.1585  0.5313
98470W        W99334  17.600  27.378  16.876 -0.3626 -0.1187 -0.1413
98471W        W99335  12.480   5.363   6.064  0.1818 -0.2627  0.1531
98472W        W99336  19.328   5.213  18.706  0.1310  0.0922  0.3943
98473W        W99337   3.424  28.881  29.130 -0.0236 -0.0096 -0.0808
98474W        W99338  21.794  12.658   0.562 -0.1972  0.2069  0.1166
98475W        W99339  16.855  10.292  22.145  0.0362  0.0944 -0.1619
98476W        W99340  25.484  11.560  18.530 -0.1071 -0.1779  0.1466
98477W        W99341  21.559   6.061  24.158 -0.2166 -0.2440 -0.1263
98478W        W99342   6.325  14.421  17.869 -0.0614  0.0136 -0.0274
98479W        W99343  13.439  11.435   0.068  0.0515 -0.1428  0.4732
98480W        W99344  11.196  23.300  15.896 -0.0794  0.1775 -0.1792
98481W        W99345   9.703  12.815   2.806 -0.1857  0.1083  0.0852
98482W        W99346   9.646  19.933  17.975  0.0122 -0.0109 -0.1915
98483W        W99347   4.106  12.650  20.307  0.0744 -0.0856 -0.1210
98484W        W99348  28.968  23.161  17.955 -0.0555  0.0196 -0.1782
98485W        W99349  17.493   1.461  13.959  0.1003 -0.2609  0.2765
98486W        W99350  27.244  20.874   7.170 -0.2341 -0.1250  0.2394
98487W        W99351  15.366  26.809  14.937  0.0825 -0.3580 -0.1893
98488W        W99352  20.598  19.652   6.985  0.0907 -0.4409  0.1768
98489W        W99353  19.561  19.004  21.616  0.3278 -0.0442  0.1743
98490W        W99354  17.176   3.869   2.939 -0.1514 -0.2310  0.2559
98491W        W99355  17.478  28.469   5.535  0.1545  0.2923  0.1078
98492W        W99356  13.115  14.732  25.061 -0.1014  0.0426 -0.1103
98493W        W99357  27.418  16.017  29.017 -0.0165  0.2521  0.1092
98494W        W99358  23.892  22.592  26.323 -0.0662  0.3064 -0.1759
98495W        W99359  20.631   3.602   2.605  0.2517  0.3937  0.1395
98496W        W99360  12.440   9.093  13.815  0.0545 -0.0556 -0.0177
98497W        W99361   3.334  20.869   2.856  0.1370 -0.3704  0.1157
98498W        W99362   2.554  26.846   2.403  0.1267  0.0042  0.1601
98499W        W99363  18.564  21.167  17.598  0.2207 -0.0784 -0.1642
98500W        W99364   5.081  11.485  23.353 -0.1767  0.1742 -0.1042
98501W        W99365  22.708  20.111   2.482 -0.0770  0.2903 -0.1616
98502W        W99366   9.649  23.639  27.879 -0.0615 -0.1863  0.1289
98503W        W99367  21.011  19.432  23.424 -0.2131  0.1053  0.0235
98504W        W99368  20.895  28.232  16.753 -0.1315 -0.1355  0.2133
98505W        W99369  26.637  16.664  11.928  0.1946 -0.1465 -0.0981
98506W        W99370  15.682   7.892  22.875 -0.2112 -0.0880  0.3262
98507W        W99371  11.234   2.060  26.084 -0.0442  0.0044 -0.0564
98508W        W99372  19.926  26.159   9.850  0.0012  0.1842 -0.2288
98509W        W99373  13.549  17.160  10.124  0.1283 -0.1798 -0.0808
98510W        W99374  22.444  20.102  10.316  0.0804  0.0958 -0.2819
98511W        W99375  11.252  16.321   2.430 -0.1871 -0.0886  0.0836
98512W        W99376  20.611  20.490   2.071 -0.1335 -0.0957  0.0227
98513W        W99377  23.953  28.880  15.640 -0.1280 -0.0536 -0.0137
98514W        W99378  23.569  26.621  10.021 -0.1740  0.2859  0.0258
98515W        W99379  24.599   0.507  26.733 -0.0448  0.0573 -0.1241
98516W        W99380   0.934  11.506   5.092  0.1695 -0.1352  0.2201
98517W        W99381   6.318  19.484  10.260  0.1171 -0.0557  0.0115
98518W        W99382  17.750  26.766  27.902  0.2106  0.0864 -0.3276
98519W        W99383   5.292  17.449   0.035 -0.0695 -0.1730  0.3622
98520W        W99384   4.508   3.996  28.208 -0.2883  0.0502 -0.1069
98521W        W99385  10.127  22.799   1.231  0.0538 -0.1847  0.2310
98522W        W99386  24.876  16.059   1.715 -0.0761 -0.1610  0.0526
98523W        W99387   3.772   0.449  16.793  0.0833 -0.0115  0.0160
98524W        W99388  13.666  24.792  16.086  0.1328 -0.4702 -0.0996
98525W        W99389  13.361  23.694  16.210  0.2343  0.0291 -0.1226
98526W        W99390  12.302  26.046  12.875 -0.2304 -0.1775  0.4293
98527W        W99391  28.469  20.833   4.623  0.1563  0.1575  0.1146
98528W        W99392   0.249   5.857   2.223 -0.2717  0.0582 -0.2011
98529W        W99393  11.337  22.426   1.822  0.0157 -0.0996  0.2429
98530W        W99394   3.894  15.809  27.373 -0.0358 -0.1297  0.2066
98531W        W99395  24.833   1.181  23.230  0.2254  0.2046  0.2024
98532W        W99396  11.225   5.093   4.757 -0.1915 -0.0049  0.2706
98533W        W99397  15.523  10.335  24.210 -0.2512  0.0806  0.0360
98534W        W99398   8.050  26.053   8.891  0.1003 -0.1460  0.0253
98535W        W99399  11.281  28.077  14.209  0.1266 -0.1659 -0.2200
98536W        W99400  19.017  26.433  18.608 -0.1167  0.1450 -0.0567
98537W        W99401  23.904   1.995  24.252 -0.2458  0.0144  0.0081
98538W        W99402   9.468  17.561  16.911 -0.2766  0.2024  0.1313
98539W        W99403  20.458  21.028  17.753  0.0033  0.0080  0.0417
98540W        W99404  13.925  19.476   1.521 -0.3436 -0.0597 -0.0126
98541W        W99405   8.070  27.129  22.408 -0.1140  0.0403 -0.1940
98542W        W99406  25.854  16.882   2.983 -0.1242  0.1535  0.2859
98543W        W99407  18.810  15.605   2.193 -0.0517  0.1139  0.0913
98544W        W99408  11.655  21.917   0.564 -0.2513  0.1085 -0.2065
98545W        W99409   6.471  27.612  14.424 -0.3622 -0.2099  0.0494
98546W        W99410   5.888  25.434  16.337  0.2961  0.0151 -0.3520
98547W        W99411   7.180  27.194  25.326 -0.0048 -0.0978  0.0777
98548W        W99412   9.588  24.905  20.497 -0.1548  0.2342 -0.1628
98549W        W99413   8.594  19.618  18.490  0.2931 -0.2129 -0.2143
98550W        W99414  20.397  14.018  13.089  0.0822 -0.1300 -0.2125
98551W        W99415  18.338  21.579   9.559  0.1651  0.0085  0.1776
98552W        W99416  28.617  19.456   3.635 -0.0010 -0.1123 -0.1200
98553W        W99417  25.157  22.448   4.938  0.2784 -0.2623 -0.0068
98554W        W99418   5.166   7.515  25.233  0.0767  0.2379  0.0997
98555W        W99419  19.299   4.357   4.199  0.0682 -0.0686 -0.1977
98556W        W99420   8.749  25.611  14.449 -0.1384 -0.0590  0.0158
98557W        W99421  27.292   9.731  24.697  0.2863 -0.2059 -0.2663
98558W        W99422   8.884   7.686  10.442 -0.1950 -0.2709 -0.0798
98559W        W99423  11.150  26.125   7.044  0.1160 -0.3293  0.0157
98560W        W99424  13.761   4.416  16.417 -0.0123  0.0119  0.0223
98561W        W99425  22.685  18.646  27.406 -0.1226 -0.0927  0.1451
98562W        W99426  10.782  23.107  13.332  0.0254  0.1897 -0.1179
98563W        W99427  18.386   2.184  22.700 -0.2780 -0.1170 -0.2913
98564W        W99428  18.930  12.768  28.520 -0.0061 -0.1868  0.1280
98565W        W99429  24.841  27.922  27.439 -0.2117 -0.1865 -0.0151
98566W        W99430  27.328  21.265  24.220 -0.2020 -0.0770  0.1359
98567W        W99431   9.729   1.443  23.655  0.1850  0.0541 -0.0917
98568W        W99432   2.910   0.370  15.888  0.0802  0.3881 -0.2637
98569W        W99433   8.140  17.332  18.221 -0.0208  0.1544  0.2592
98570W        W99434  22.651   8.091   2.318 -0.3055 -0.0295  0.0929
98571W        W99435   0.302   9.081  23.994  0.2834 -0.0626  0.1112
98572W        W99436   6.395  19.953  18.715  0.0241 -0.1712  0.0127
98573W        W99437  11.057  17.080  17.356  0.2778 -0.2385  0.0790
98574W        W99438  10.671  21.065   1.079 -0.1556 -0.0223  0.0173
98575W        W99439  15.719  24.062  14.368  0.0297 -0.3509 -0.1025
98576W        W99440  13.473   3.995   8.765 -0.0496  0.3776  0.2367
98577W        W99441   0.068  16.392  25.507  0.0548 -0.1081  0.1008
98578W        W99442  20.299  20.135  26.243  0.0432  0.1927  0.2083
98579W        W99443   9.571  26.350   0.484  0.1776  0.2109  0.0483
98580W        W99444  19.214  15.468  19.830 -0.1154  0.0847  0.2226
98581W        W99445  28.832  13.670   1.821  0.1388  0.1606  0.1605
98582W        W99446   3.368  24.292  22.585  0.0318  0.1166 -0.1289
98583W        W99447  28.712  12.575  27.932 -0.0155 -0.0242  0.0834
98584W        W99448   8.382  22.149   2.343  0.0026 -0.4342 -0.0704
98585W        W99449   2.359  11.333   6.603  0.1162  0.2959  0.3943
98586W        W99450  13.197  16.463  21.960  0.0731  0.0206 -0.0221
98587W        W99451  16.004  22.934  23.390 -0.1227 -0.0305  0.0740
98588W        W99452  18.694  28.824  14.682 -0.0816  0.4233 -0.3116
98589W        W99453  13.980   7.209  26.111 -0.0212 -0.2105 -0.0754
98590W        W99454   7.025  24.381  10.652 -0.1051  0.2766 -0.1005
98591W        W99455  25.525   4.872   8.893 -0.0847  0.0400  0.0040
98592W        W99456   9.888  14.268  18.950 -0.0372  0.0178  0.1602
98593W        W99457  19.999  23.934   2.198  0.0474 -0.0077  0.0674
98594W        W99458   5.995  14.936  23.807  0.0765  0.0474  0.0993
98595W        W99459  15.937   8.222  13.593 -0.2488 -0.0184 -0.2123
98596W        W99460  14.418   3.688  15.919  0.0769  0.0494 -0.2310
98597W        W99461   8.582  18.296  24.987  0.0213 -0.1308 -0.2497
98598W        W99462   8.802  23.137  21.038  0.4349 -0.1293  0.1962
98599W        W99463  28.570   2.791  17.587 -0.0199 -0.3458  0.1753
98600W        W99464   1.387  18.846   4.079  0.0946  0.1723 -0.0336
98601W        W99465  27.494  22.576  23.488 -0.0586  0.0554 -0.1150
98602W        W99466  15.651  19.097   9.309  0.1205  0.1480 -0.1320
98603W        W99467  16.250  28.067  18.324  0.0681  0.1238 -0.2008
98604W        W99468  14.563   1.954   8.996  0.0275 -0.2025 -0.2169
98605W        W99469  23.038   5.655  18.125 -0.1464 -0.1433 -0.0325
98606W        W99470  18.531  22.781  13.246  0.2738 -0.3191 -0.0247
98607W        W99471   2.936  27.599  26.872 -0.2088  0.2724  0.1192
98608W        W99472  14.016   9.724  13.813  0.0448  0.0058 -0.2188
98609W        W99473   2.650  18.295   6.123 -0.0977 -0.0572  0.0055
98610W        W99474  10.302   3.534   7.181 -0.1938  0.0652 -0.2426
98611W        W99475  17.052  27.284   1.266 -0.1536 -0.2414 -0.3028
98612W        W99476   7.870  15.741  11.032 -0.0235  0.2826 -0.2609
98613W        W99477  19.039  20.892  23.762  0.0962 -0.1523 -0.1699
98614W        W99478  11.571   9.440  17.092  0.0537  0.1575 -0.1913
98615W        W99479   6.507  26.741  22.560 -0.0798 -0.4894  0.2164
98616W        W99480  12.757  24.686  18.573 -0.3902 -0.3073 -0.0597
98617W        W99481  22.698  18.828  20.127  0.3654 -0.0030  0.1099
98618W        W99482  25.634  13.725  15.159 -0.3969  0.0247  0.2414
98619W        W99483   4.604  13.871  22.415  0.0785 -0.0397 -0.0263
98620W        W99484  19.329  27.761  25.936  0.1848 -0.1234 -0.1584
98621W        W99485  18.800  24.036   2.124  0.1390  0.0200 -0.1622
98622W        W99486   5.469   1.357  17.559 -0.0534  0.1055 -0.0089
98623W        W99487   4.475   0.718   1.589 -0.1500 -0.2447  0.1266
98624W        W99488  21.489  13.844   4.200  0.0433  0.0945  0.2423
98625W        W99489  28.037  26.816  28.472 -0.2313  0.0158  0.1591
98626W        W99490   4.227   2.515   6.217 -0.0244  0.0912  0.5028
98627W        W99491  11.167   0.199  26.771  0.0365 -0.3171  0.1622
98628W        W99492  15.819  20.225  26.779  0.3164 -0.1753 -0.0823
98629W        W99493  24.320  23.769  17.820  0.0988 -0.0327  0.0356
98630W        W99494   3.923  17.521  10.659 -0.2061 -0.0999 -0.1419
98631W        W99495   0.163  23.703  26.675 -0.0456  0.2305 -0.2748
98632W        W99496   4.616   8.094  13.972  0.1231 -0.0531 -0.0887
98633W        W99497  10.192  17.425  18.977 -0.2863 -0.0610 -0.0522
98634W        W99498  24.420  12.042   5.833 -0.1418  0.1052  0.4464
98635W        W99499  18.415  28.351  26.775 -0.1695 -0.0092 -0.2196
98636W        W99500   5.932  23.717   1.686 -0.0629  0.0413 -0.0370
98637W        W99501  12.470   6.713   2.621 -0.0425  0.1663  0.1504
98638W        W99502  17.590  23.334  17.288  0.1663  0.0204 -0.3463
98639W        W99503  20.825  12.291  18.164  0.1787 -0.1361  0.3175
98640W        W99504  22.627  18.520  12.044  0.0157 -0.1197  0.1922
98641W        W99505   2.249  17.382  15.889 -0.1796  0.1559 -0.1979
98642W        W99506  12.352  13.998  22.099 -0.3451 -0.0083  0.3850
98643W        W99507  10.532  28.042   1.135  0.0477  0.0662 -0.6006
98644W        W99508   4.793   0.238   6.031  0.0646 -0.4200 -0.2564
98645W        W99509  26.179  17.254  13.021  0.2100  0.0756  0.1398
98646W        W99510  25.745  16.473  19.716 -0.2852 -0.3333  0.0468
98647W        W99511  22.803  19.082  19.208  0.1510 -0.0812 -0.0080
98648W        W99512  25.397   2.405  22.826  0.1017 -0.1079 -0.1250
98649W        W99513   3.815   9.372  22.311  0.1159 -0.0206 -0.0175
98650W        W99514   2.564  27.387  29.110  0.1789 -0.1773 -0.1056
98651W        W99515   7.539   8.240  27.251  0.0527 -0.2439 -0.2034
98652W        W99516  12.583   4.471   2.526 -0.0279  0.1704 -0.2813
98653W        W99517   6.100  20.445   7.102 -0.0600  0.0320  0.1378
98654W        W99518  26.397   8.697  27.829 -0.2688 -0.0966  0.0004
98655W        W99519  20.994  26.843  21.390  0.0882 -0.3481 -0.0401
98656W        W99520   6.773  27.747  28.005  0.1514 -0.0706  0.3242
98657W        W99521   9.611   1.991  15.034  0.2409  0.1219  0.1605
98658W        W99522  20.179   5.117  23.608  0.0300 -0.1905  0.0961
98659W        W99523  21.587  22.462  11.099  0.2045  0.2405  0.0109
98660W        W99524  23.435  17.895  25.471  0.2269  0.2181  0.0427
98661W        W99525  28.503  12.022   4.933  0.1388 -0.1718  0.0089
98662W        W99526   7.496  17.544  24.831  0.0219 -0.4223  0.0058
98663W        W99527   7.062  26.284   2.659  0.0582 -0.0241  0.3267
98664W        W99528  15.025  12.842   2.733  0.1914 -0.3112  0.1396
98665W        W99529  23.840   6.389  12.623 -0.0179  0.0950  0.2486
98666W        W99530  26.956   6.176  10.649  0.0572  0.0685 -0.1228
98667W        W99531  16.233  27.235  22.233  0.3070 -0.0254 -0.1906
98668W        W99532  28.263   0.768  20.123 -0.0425 -0.0694  0.1107
98669W        W99533   3.304  27.624  15.033 -0.2438 -0.0491  0.0236
98670W        W99534   8.633  22.924  27.819 -0.1513 -0.0060 -0.0156
98671W        W99535  11.768  18.314  22.873  0.2113 -0.0468  0.1216
98672W        W99536   1.655  17.906   1.516  0.1478 -0.2612 -0.1113
98673W        W99537  25.638  19.519   4.524  0.2145  0.1414  0.2166
98674W        W99538  27.533  12.940   8.591 -0.0972 -0.2002 -0.1622
98675W        W99539  21.954  12.823  19.770 -0.0416 -0.0397  0.1214
98676W        W99540  20.150  25.131  11.824 -0.2201  0.2918  0.4442
98677W        W99541   8.832  22.106  24.634 -0.3407 -0.0160 -0.0428
98678W        W99542  11.474  21.025   3.638 -0.2206  0.0413  0.0927
98679W        W99543  19.986  13.408  21.969 -0.0520 -0.0856  0.3003
98680W        W99544   8.895  20.272   3.954 -0.3725  0.1043  0.0990
98681W        W99545  17.940   4.151   7.439  0.0431 -0.1790 -0.0535
98682W        W99546   5.603   9.820  10.184  0.2119 -0.3200  0.1390
98683W        W99547  14.507   0.292  25.801 -0.1762 -0.1093 -0.0606
98684W        W99548  15.049   2.331  16.187 -0.1099  0.0610  0.2118
98685W        W99549  18.635  16.152  11.351 -0.2537  0.0947 -0.0576
98686W        W99550  17.912   2.503  10.603 -0.0789  0.0999  0.1037
98687W        W99551   3.911  24.485   8.111  0.1647 -0.0260 -0.0567
98688W        W99552  25.964  19.102  15.371  0.0271 -0.0803 -0.1069
98689W        W99553  23.020  14.124  22.481  0.3556  0.1301 -0.0525
98690W        W99554  14.189  21.060  12.112 -0.1090  0.0790 -0.0234
98691W        W99555  20.070   6.757   8.472 -0.4118 -0.1022 -0.3279
98692W        W99556   3.995   1.682  16.887 -0.4058  0.0314 -0.2627
98693W        W99557   9.981  25.106  12.817 -0.1787 -0.2129 -0.0056
98694W        W99558  12.678   6.361   4.437 -0.0920 -0.0324  0.3055
98695W        W99559  10.894  27.267  24.036 -0.0640 -0.0165  0.0277
98696W        W99560  11.362  27.932  15.976 -0.1051  0.1214 -0.1135
98697W        W99561   1.299  17.593   1.283  0.0349 -0.0539 -0.1752
98698W        W99562  10.763  12.859  12.625 -0.1260  0.1078  0.2538
98699W        W99563  26.695   7.264  28.847 -0.1403  0.1003  0.1516
98700W        W99564   6.503   1.382  18.641  0.1213 -0.1474 -0.0786
98701W        W99565  26.946  26.963  18.985 -0.2136 -0.2670  0.0843
98702W        W99566   4.098  14.896  21.415 -0.1834 -0.0737  0.0875
98703W        W99567  15.714  24.738  26.836 -0.1973  0.0855 -0.2532
98704W        W99568   1.293  13.524  11.073  0.2185  0.3064  0.3040
98705W        W99569  12.138   1.500  27.361 -0.1872  0.2851 -0.1373
98706W        W99570  24.222  17.438  24.710 -0.1181 -0.0489  0.3468
98707W        W99571  19.208  17.962   0.871 -0.2995 -0.1165 -0.0060
98708W        W99572   5.998  22.141  26.635 -0.0687  0.0261  0.1844
98709W        W99573  17.706  24.932  11.187 -0.3689  0.1804 -0.0600
98710W        W99574  17.165   9.349  25.133 -0.0936 -0.1995 -0.0580
98711W        W99575   5.416  29.090  23.301 -0.0990  0.2061 -0.0228
98712W        W99576   5.210  28.871   5.978 -0.1902 -0.2962 -0.0333
98713W        W99577   7.870  21.666  20.290 -0.3199 -0.0301 -0.0808
98714W        W99578  14.832  18.873  16.561  0.2241 -0.0099 -0.0977
98715W        W99579  20.015  11.229   4.990  0.0108  0.4210  0.3396
98716W        W99580   9.535  29.084   5.168 -0.0161 -0.1692 -0.1010
98717W        W99581  14.323   4.202  14.347  0.2088  0.0923 -0.0842
98718W        W99582  18.815  15.039   0.352  0.1157  0.2172 -0.3252
98719W        W99583  18.849  27.647  26.193  0.1406 -0.2377  0.2139
98720W        W99584   7.166   3.040  20.441  0.1004 -0.2333 -0.0058
98721W        W99585  12.925   7.736  18.743 -0.1371 -0.0084  0.0629
98722W        W99586   5.309  22.439  25.297  0.0127 -0.0024  0.0719
98723W        W99587  19.885  21.595  20.036 -0.1868 -0.2546 -0.0926
98724W        W99588   0.481   4.428   6.623  0.1594 -0.0759 -0.1465
98725W        W99589  22.911  28.096   2.142 -0.0781  0.0939  0.0690
98726W        W99590  12.547  20.624  18.862 -0.1414 -0.1041 -0.2152
98727W        W99591  12.835  26.210  17.721  0.1518 -0.2301  0.2101
98728W        W99592  14.584  11.508  20.708  0.1756  0.2086 -0.1273
98729W        W99593   9.719  16.498   6.983 -0.0509 -0.2351 -0.2198
98730W        W99594  25.493  26.274  19.492 -0.1704  0.2154  0.0357
98731W        W99595   4.542  13.388   4.950 -0.0673 -0.2827 -0.2370
98732W        W99596  14.855  25.199   7.658 -0.0488 -0.2295  0.1751
98733W        W99597  21.012  28.400  14.163 -0.1878  0.0072 -0.1956
98734W        W99598  12.852   4.029   4.247 -0.0166 -0.0599 -0.1634
98735W        W99599   4.735  15.467   4.593 -0.3559  0.0770  0.1067
98736W        W99600   8.911  25.230   0.979  0.0706  0.0165 -0.1045
98737W        W99601  19.225   6.792  25.893  0.1428  0.1036  0.0484
98738W        W99602   5.308  25.758   8.780  0.2135  0.1650  0.0265
98739W        W99603  12.076  21.425  18.080  0.0446 -0.0942 -0.0384
98740W        W99604  24.315   5.934  19.738 -0.1085 -0.1911 -0.1309
98741W        W99605  15.064   2.797   0.618  0.0341 -0.0967 -0.0679
98742W        W99606  15.698   3.562  18.837  0.0385 -0.2038  0.1962
98743W        W99607   2.846   3.944   4.168 -0.2656 -0.3000 -0.0311
98744W        W99608   9.669  21.323  19.844  0.1148  0.3376  0.3113
98745W        W99609   2.601  17.580   9.586  0.1315 -0.0779 -0.1426
98746W        W99610   7.914  22.105   6.439 -0.1101 -0.1446  0.0935
98747W        W99611  12.890  16.027   1.685  0.1928  0.0761 -0.0318
98748W        W99612  14.615  27.147  20.974 -0.0705  0.2377  0.0588
98749W        W99613   8.268  11.237   5.533 -0.2856 -0.1207  0.3854
98750W        W99614  11.749   3.268  16.926 -0.0284 -0.1640  0.1652
98751W        W99615  18.692  10.841  12.055  0.0434  0.1362  0.2207
98752W        W99616   9.991  20.690   0.560 -0.3156  0.1737 -0.2871
98753W        W99617  10.411  11.581  18.861 -0.1852  0.2647  0.0609
98754W        W99618  23.643   5.922   9.493 -0.1534 -0.1219  0.0671
98755W        W99619  10.054  11.691  16.523 -0.2210  0.0171 -0.0109
98756W        W99620  15.300  21.615   5.465 -0.2410  0.1527 -0.0296
98757W        W99621   8.101  16.992  28.460  0.0886  0.0599  0.1163
98758W        W99622  23.629   8.995   6.121  0.0546 -0.2650  0.0162
98759W        W99623   1.372  23.948  14.611 -0.0000  0.1909 -0.0288
98760W        W99624   7.291  14.048   9.133  0.2523 -0.3510  0.1528
98761W        W99625   6.838   2.752  20.723 -0.1732 -0.0083  0.1018
98762W        W99626   7.550   1.574  18.564  0.2441 -0.0805  0.2778
98763W        W99627  12.463  11.866  24.549 -0.1803  0.0498  0.1031
98764W        W99628  17.939  19.648   5.035 -0.0292 -0.1298  0.0540
98765W        W99629  10.383   1.193  28.755 -0.0789 -0.2901 -0.1607
98766W        W99630  12.325  15.149  22.939  0.0037  0.2479  0.2429
98767W        W99631  13.312  22.161  22.159  0.0235 -0.2572  0.1816
98768W        W99632   7.202  18.624   0.161  0.3299 -0.0705 -0.0764
98769W        W99633  11.900  16.518  20.503 -0.0112  0.1007 -0.1224
98770W        W99634   6.483  26.099   6.553 -0.0496  0.0272 -0.3450
98771W        W99635   3.631  28.395  17.428  0.0474  0.0266  0.1873
98772W        W99636  11.697  10.920  21.377  0.1108  0.2391  0.1013
98773W        W99637  10.616  15.819  22.478  0.0722  0.0651  0.3156
98774W        W99638   6.487  15.947   9.492 -0.0225 -0.2022 -0.0000
98775W        W99639  11.466   7.099  25.394 -0.0479 -0.3637  0.1634
98776W        W99640  15.408  22.655  21.342 -0.0004  0.2907 -0.0742
98777W        W99641  28.578  16.808  17.670 -0.1295  0.7826  0.1985
98778W        W99642  11.789   3.723  23.125 -0.0551  0.0780  0.0308
98779W        W99643  27.638  14.258   2.130 -0.1074  0.0951  0.0138
98780W        W99644   3.701  26.181  21.732  0.0674  0.3419  0.2716
98781W        W99645  25.558  28.148  20.309 -0.0138  0.1537 -0.2195
98782W        W99646  12.376  25.417   3.427 -0.0115 -0.2110 -0.0725
98783W        W99647  26.255  21.966  21.421  0.0369 -0.0067 -0.1358
98784W        W99648   8.443   9.184   0.661  0.0542  0.1568  0.2302
98785W        W99649  28.499   3.423  22.470 -0.0716  0.0336  0.0532
98786W        W99650  16.169  20.853   6.279  0.2004  0.3011 -0.0666
98787W        W99651  22.764  21.208  24.351  0.1212 -0.0178  0.1021
98788W        W99652   7.140  22.130   1.236  0.0824 -0.0864 -0.3309
98789W        W99653  11.538  15.773  22.784  0.0206 -0.0757  0.0298
98790W        W99654  18.702  19.101  20.015 -0.3213 -0.3102  0.1665
98791W        W99655  20.981  10.923  15.943  0.3633  0.0697  0.1188
98792W        W99656  15.162  18.624   9.601  0.0345 -0.0729  0.2620
98793W        W99657  14.597  10.903   0.461 -0.3703  0.0094  0.0103
98794W        W99658  26.743  19.661   3.421 -0.0268 -0.1581 -0.0805
98795W        W99659   2.435   6.175  23.863 -0.1919 -0.0954 -0.1325
98796W        W99660  11.021  17.683   6.270 -0.1765 -0.0782 -0.0847
98797W        W99661  14.250  22.538   0.032 -0.1932  0.0196  0.0472
98798W        W99662   4.136  13.586  14.673  0.1769 -0.1019 -0.0649
98799W        W99663   3.407   2.810   1.483 -0.3045 -0.1793  0.2081
98800W        W99664   9.581   4.176  15.009  0.1284  0.2725  0.0941
98801W        W99665   5.092   1.940   1.315  0.0765  0.1347  0.0106
98802W        W99666  12.270   5.614  18.484  0.3315 -0.0228  0.1227
98803W        W99667   8.840   7.226  13.163 -0.1540 -0.2636 -0.3200
98804W        W99668   1.097  22.632  22.449 -0.6085  0.1441 -0.1685
98805W        W99669   8.550  15.780  27.158 -0.0320 -0.0299 -0.2164
98806W        W99670  14.212  24.542  24.477  0.0400  0.2307 -0.1305
98807W        W99671  12.770  20.232  18.470  0.1714  0.2629 -0.0914
98808W        W99672   8.270   5.450  16.341  0.2629 -0.2269 -0.3532
98809W        W99673  12.416  26.568  17.830 -0.0009 -0.1478  0.2787
98810W        W99674  18.012  18.318  18.023 -0.2817  0.1869  0.2151
98811W        W99675  22.725  22.892  15.968  0.0768  0.0645  0.2316
98812W        W99676  11.061  24.601   1.504 -0.2445 -0.0412 -0.2562
98813W        W99677  17.682  27.560  28.631  0.1583  0.0479 -0.3463
98814W        W99678  24.012  19.223  24.809 -0.0094 -0.2054 -0.1041
98815W        W99679  22.524  14.970  14.855  0.2885  0.0880  0.0395
98816W        W99680  11.644  20.394  19.548 -0.0028 -0.2147  0.1940
98817W        W99681   9.505  21.178  10.168  0.0417 -0.1243 -0.3866
98818W        W99682  16.475  27.454  19.840 -0.3503 -0.3390 -0.4399
98819W        W99683  10.868   0.338  28.122 -0.1203  0.0606 -0.1926
98820W        W99684  25.402  28.308  13.977  0.3256  0.0887  0.4268
98821W        W99685   6.248  28.753   3.465 -0.2755  0.1899 -0.0213
98822W        W99686   5.375  16.647   9.324  0.1120 -0.2295 -0.0543
98823W        W99687  17.709   8.280  13.366  0.1310  0.0366 -0.1039
98824W        W99688  26.224  14.196  22.728  0.1925  0.3525 -0.0863
98825W        W99689   1.523   1.777  13.324  0.1268  0.1369 -0.0701
98826W        W99690  18.795  24.436  26.810  0.0346 -0.0295 -0.0312
98827W        W99691   1.125  23.046   1.140  0.3821  0.0595  0.1071
98828W        W99692  23.655  23.010  28.703 -0.3657 -0.1171  0.0294
98829W        W99693  11.251  26.096  11.083 -0.1670  0.0822 -0.1691
98830W        W99694  21.503  25.286   1.903 -0.1619  0.0089  0.2536
98831W        W99695  28.650  17.406  18.413  0.1937 -0.0659  0.2240
98832W        W99696   4.404  26.478  21.304 -0.2325 -0.0655  0.0178
98833W        W99697   0.711   8.193   1.934  0.0950  0.1507  0.1963
98834W        W99698  12.244  16.372  14.895  0.2379 -0.1064  0.1943
98835W        W99699  26.383  27.809  17.604 -0.0669  0.0815 -0.1571
98836W        W99700  16.000   8.982   3.793 -0.0023 -0.1482 -0.1453
98837W        W99701  13.849   1.351  17.146 -0.0635  0.2345 -0.0506
98838W        W99702  19.232   0.015   7.660  0.0476  0.1093 -0.1920
98839W        W99703   7.910   5.289  18.657 -0.0868 -0.1237 -0.1466
98840W        W99704   7.927   0.172   0.128 -0.1959 -0.0126  0.1320
98841W        W99705  11.101   3.084  25.073  0.1421  0.2955 -0.1204
98842W        W99706   6.749   5.822  27.206  0.4116 -0.0929  0.0193
98843W        W99707  17.758   8.742  14.618  0.0166 -0.3310 -0.2595
98844W        W99708  17.200  23.680  13.959  0.1224  0.2189 -0.0405
98845W        W99709  25.307   4.219   6.803 -0.1376  0.0103  0.3895
98846W        W99710  12.562   3.931  23.582 -0.1666  0.3064  0.0373
98847W        W99711  21.121  13.175  13.434  0.1471  0.1911  0.3160
98848W        W99712  10.536  25.982  27.808 -0.0065  0.1384 -0.1481
98849W        W99713  13.684   3.116  19.757  0.1194  0.1324 -0.0686
98850W        W99714  21.208  23.396  13.766 -0.3228 -0.1025 -0.0892
98851W        W99715   2.187  17.070   5.338  0.1782  0.2107  0.1621
98852W        W99716   6.565   3.798  28.830  0.1987  0.0267  0.2516
98853W        W99717  23.350  27.940   7.260  0.3449  0.0105 -0.2826
98854W        W99718  10.181  19.529  27.144  0.6663 -0.0531 -0.2538
98855W        W99719  25.661  20.673   7.400  0.2031 -0.0199 -0.2353
98856W        W99720   3.184  19.356  21.906 -0.2991  0.2892  0.1397
98857W        W99721   9.854  26.246   9.459 -0.1935  0.1325  0.1068
98858W        W99722  23.134   1.052   6.206  0.3986  0.1815  0.2142
98859W        W99723   7.349  10.646   3.097 -0.0926  0.1257  0.2896
98860W        W99724  17.176  24.429  17.700 -0.1852 -0.2596 -0.2648
98861W        W99725  12.528  18.862  18.441  0.1503  0.2184  0.0697
98862W        W99726  17.306  17.057   6.907  0.0508  0.5591  0.0275
98863W        W99727   3.070   9.149  10.627 -0.1440 -0.0838 -0.0844
98864W        W99728   6.092   7.653  27.044 -0.0210  0.2195  0.2576
98865W        W99729   4.454   2.231  27.218 -0.0347  0.0499 -0.4752
98866W        W99730  20.244  17.949   5.444 -0.4315  0.2651  0.0946
98867W        W99731  10.779   4.729  16.719  0.2544  0.1851 -0.0286
98868W        W99732  19.289  14.555   8.171 -0.0652  0.0195 -0.2776
98869W        W99733  13.717  14.846  25.284  0.0706  0.1314 -0.2546
98870W        W99734   3.849  15.227  28.927 -0.0334  0.2580  0.1179
98871W        W99735   7.371  18.428  24.209  0.3049  0.1828 -0.3688
98872W        W99736   4.038  12.076   5.295 -0.3605  0.3434  0.0008
98873W        W99737   8.044   0.673  25.353  0.0232 -0.1005  0.1708
98874W        W99738  19.737  23.827  14.446  0.0131 -0.2429 -0.1722
98875W        W99739  17.376  27.503   5.259 -0.0345  0.2027 -0.0856
98876W        W99740  11.769   4.516  16.253 -0.2238 -0.4101 -0.1079
98877W        W99741  24.255  22.535   1.250  0.1126  0.1117 -0.3085
98878W        W99742  18.667   0.641  25.715  0.0118  0.0062 -0.0480
98879W        W99743   9.576   1.753  13.735  0.2538 -0.1333 -0.1116
98880W        W99744   5.905  24.807   4.222 -0.2031  0.0723 -0.0055
98881W        W99745  23.164  10.763  27.987 -0.2205 -0.0640  0.0718
98882W        W99746  25.737  15.413  21.366 -0.0796  0.1343  0.0033
98883W        W99747  21.642  27.936  26.225 -0.0763  0.0438 -0.0850
98884W        W99748  14.813   6.201  24.216 -0.1682 -0.2185 -0.3985
98885W        W99749   3.634  20.292  18.030 -0.1062  0.0792 -0.3484
98886W        W99750  14.183  21.896  28.053  0.1239  0.0959 -0.1470
98887W        W99751   3.767  22.185  12.633 -0.1291  0.1556 -0.3300
98888W        W99752   2.378   6.172   7.751  0.0630 -0.1143  0.4361
98889W        W99753  11.854  14.132   1.636 -0.3119  0.0537  0.4214
98890W        W99754  16.542  11.864  18.537 -0.3985  0.1183  0.2525
98891W        W99755  20.572  13.681   8.542 -0.2490  0.0579  0.1248
98892W        W99756   5.146   2.456   6.080  0.0298 -0.0968  0.2755
98893W        W99757  21.563   6.591  24.300 -0.2263  0.0086 -0.1352
98894W        W99758  25.742  21.709  16.971 -0.1842  0.0888 -0.0696
98895W        W99759   8.577  27.636  16.544 -0.2706 -0.4283 -0.2527
98896W        W99760  17.988  22.348  15.210  0.2809 -0.0198 -0.0076
98897W        W99761   8.962  26.027  11.972 -0.1975  0.1984 -0.0482
98898W        W99762  27.382   7.749   8.060  0.0652 -0.5769  0.2282
98899W        W99763  12.049   2.253  17.224  0.0487  0.0443 -0.0536
98900W        W99764  12.396  26.292   1.851 -0.3213  0.1605 -0.0084
98901W        W99765  12.243  21.371  11.915  0.2855  0.0552  0.2025
98902W        W99766  24.365  22.290  11.608 -0.1518  0.0348 -0.0569
98903W        W99767  15.680  25.361  14.979 -0.1127  0.1700 -0.0442
98904W        W99768  19.505  16.125   4.582  0.1065 -0.1407 -0.2193
98905W        W99769   3.888   4.026  23.321  0.0705  0.1538  0.3508
98906W        W99770  19.769  19.223  24.948  0.2807  0.2660  0.0411
98907W        W99771  15.448  16.538  13.944 -0.1743 -0.0096  0.1078
98908W        W99772  28.464  11.299  23.217  0.1480  0.1925 -0.1349
98909W        W99773  26.720  18.121  18.186 -0.3177  0.0352 -0.1418
98910W        W99774  24.080   0.950  18.240 -0.2074 -0.1575  0.1836
98911W        W99775   0.050  15.365  25.662  0.4440 -0.2484  0.1814
98912W        W99776   7.760   2.313  15.281  0.0661  0.2741 -0.0727
98913W        W99777  13.067  11.681  11.125 -0.1771 -0.0943  0.0793
98914W        W99778  26.314   3.165  21.829 -0.2187  0.0146 -0.1030
98915W        W99779  28.979   8.652  19.831  0.1650 -0.0359  0.2421
98916W        W99780  16.574  21.275   3.587 -0.0339 -0.1613 -0.2585
98917W        W99781  11.149   0.784   1.565 -0.1539  0.0554  0.0831
98918W        W99782  12.531  11.671  13.840 -0.1676 -0.0177 -0.0595
98919W        W99783  13.011   2.481  11.690  0.0425  0.1262 -0.1755
98920W        W99784  17.362  23.434   0.325  0.1853  0.0195  0.1487
98921W        W99785  13.986  26.433  26.574  0.1620 -0.1422  0.1071
98922W        W99786  13.655  18.997   5.708 -0.1235  0.1537 -0.2231
98923W        W99787   1.846  27.955  25.869  0.3901 -0.0319 -0.2065
98924W        W99788  11.243  25.886  21.513 -0.1036  0.0023 -0.3612
98925W        W99789   1.447  23.852   3.437 -0.0602 -0.2830 -0.0893
98926W        W99790  28.902  22.947  16.831 -0.3086 -0.3154 -0.0702
98927W        W99791  11.727   2.674  21.276  0.0759 -0.1877 -0.0920
98928W        W99792  23.859  21.152   3.487  0.0569  0.0526  0.0503
98929W        W99793  28.799  18.039  19.005  0.1779  0.1438  0.1466
98930W        W99794   4.008  22.603   6.026  0.0049 -0.2056  0.0402
98931W        W99795  14.564   3.724  15.391 -0.1476  0.0268 -0.1601
98932W        W99796   2.112  19.551  28.602  0.2527 -0.0205  0.0697
98933W        W99797  19.567   3.752   6.056 -0.1041  0.0458 -0.2665
98934W        W99798  28.073   1.257   1.516  0.1806  0.0695  0.0937
98935W        W99799  12.324  12.850   7.482  0.0774  0.0457 -0.0556
98936W        W99800   3.824  22.803  11.495 -0.3581  0.0672  0.0898
98937W        W99801  20.213   6.096   0.820  0.0075 -0.2221  0.3321
98938W        W99802  26.035  11.325   6.248 -0.0295 -0.1171  0.1028
98939W        W99803  16.689  14.693  29.140 -0.1543  0.2110  0.1401
98940W        W99804   5.271   4.913  17.501 -0.1365  0.0277  0.1123
98941W        W99805  12.907  13.199  23.730  0.3096  0.1036  0.0446
98942W        W99806  18.484  20.584   1.343 -0.0920 -0.0972  0.0852
98943W        W99807  22.375  26.768  23.275 -0.0696  0.2650 -0.2918
98944W        W99808  16.554  26.268   0.206 -0.1519 -0.0654 -0.1296
98945W        W99809  17.872  22.621  16.004  0.1045  0.2722 -0.2001
98946W        W99810  12.072  22.304  27.394  0.1205  0.0604  0.1359
98947W        W99811  20.488   1.024   5.680  0.3797 -0.1097 -0.2562
98948W        W99812   7.493  14.052   9.756  0.2087  0.3243  0.0036
98949W        W99813  10.075   1.355   3.940 -0.1433  0.0237 -0.0522
98950W        W99814  25.836  16.086  10.517 -0.0834 -0.1796  0.0684
98951W        W99815  25.315  19.950   5.759  0.1333 -0.2980  0.3518
98952W        W99816  22.097   5.009  16.273 -0.4115  0.3427 -0.0515
98953W        W99817  15.878  28.244  28.826  0.0243  0.0509 -0.2802
98954W        W99818  18.037  26.540   0.156  0.1793  0.0318 -0.0343
98955W        W99819  18.974  23.637  10.267  0.0538 -0.2005 -0.2241
98956W        W99820   4.109  14.526  20.076 -0.1953 -0.1069  0.1419
98957W        W99821  23.590   8.221  10.967 -0.0517  0.1396  0.1146
98958W        W99822  10.301  21.792  22.363  0.0619  0.0143 -0.1504
98959W        W99823  10.841   3.368   9.569 -0.0930  0.0062 -0.0194
98960W        W99824  20.967   3.477  25.380 -0.1845 -0.2395 -0.1815
98961W        W99825  21.169  25.003  29.120  0.0890  0.1239  0.1345
98962W        W99826   1.950  15.737  16.596  0.0749  0.1791  0.0242
98963W        W99827  20.257  14.618  26.069 -0.2022 -0.4500  0.2267
98964W        W99828  29.019  21.903  28.904 -0.3934  0.0031 -0.0021
98965W        W99829   2.658   2.793  15.285 -0.2670 -0.0541  0.1518
98966W        W99830  12.530   0.467   0.176  0.1782 -0.0963 -0.1294
98967W        W99831  20.769  26.512  16.165  0.2212  0.1060  0.3168
98968W        W99832   4.777  17.631   3.918 -0.0685 -0.1376  0.0463
98969W        W99833   3.971  23.195   2.804 -0.0617  0.5925  0.5651
98970W        W99834  11.959   9.204  23.581 -0.2358 -0.0947 -0.0128
98971W        W99835  13.621   6.040   6.567 -0.2530  0.0592 -0.0645
98972W        W99836  14.643  28.266  10.702  0.0327  0.1178  0.1147
98973W        W99837   9.659  18.198  26.399  0.1674 -0.1268  0.2318
98974W        W99838  23.546  24.003  16.807  0.1458  0.3440 -0.1462
98975W        W99839  26.463   3.954  27.199 -0.1825 -0.1439  0.1436
98976W        W99840   2.005  26.481   5.543 -0.0514 -0.4239 -0.6642
98977W        W99841  15.118   4.787  23.585 -0.1855  0.4497  0.0154
98978W        W99842  19.064  19.574   2.209 -0.0558 -0.1495 -0.0756
98979W        W99843  26.967   6.283   8.862 -0.1740  0.2782  0.1314
98980W        W99844  17.088  16.887   1.706  0.2333  0.1035 -0.1554
98981W        W99845   9.714  21.068  13.494 -0.2107  0.0560 -0.1430
98982W        W99846   7.344  19.719   2.585 -0.0069 -0.0932  0.2054
98983W        W99847  18.284   4.237  22.886 -0.0321  0.2032  0.0794
98984W        W99848  12.284  20.668  22.357 -0.2025  0.2590 -0.2510
98985W        W99849  28.284   2.885  20.833 -0.0473  0.4378  0.1367
98986W        W99850  24.744  23.556   3.919  0.1098  0.1277  0.0717
98987W        W99851  20.661   4.734  28.237  0.0468  0.0709  0.0149
98988W        W99852   8.483   0.619  22.100  0.1285  0.1679  0.1858
98989W        W99853   2.933   0.314   0.767  0.0093 -0.0360  0.3024
98990W        W99854  23.138  22.598  24.433  0.1238  0.0670 -0.2566
98991W        W99855   6.267  29.139  25.766 -0.0330 -0.0657  0.0781
98992W        W99856  15.865   1.420  22.945  0.0379  0.0074 -0.1812
98993W        W99857  14.487  13.257  28.145 -0.2745  0.2756 -0.1868
98994W        W99858   4.696  22.568   2.619 -0.0619  0.1967  0.0755
98995W        W99859  19.433  28.897   0.186  0.3366  0.1580  0.0580
98996W        W99860  13.887  26.353  11.627  0.3218 -0.0689 -0.2053
98997W        W99861   1.743   4.687  25.891  0.1906  0.1182  0.0833
98998W        W99862  16.063   3.229  28.839 -0.0265 -0.0141 -0.1869
98999W        W99863  12.485   3.924  21.880 -0.1967 -0.0267 -0.0871
99000W        W99864   8.624  24.746  19.343  0.2696  0.1168  0.1827
99001W        W99865   2.075  21.462  14.427  0.2533 -0.0970  0.2076
99002W        W99866   9.957  22.652  17.114  0.0428 -0.0255  0.1736
99003W        W99867  22.092  22.672   0.342  0.0658  0.2904 -0.0148
99004W        W99868  26.159  28.749   0.592  0.3670  0.0695 -0.1217
99005W        W99869   4.163   2.254  25.672  0.1146 -0.1970 -0.0933
99006W        W99870   0.606   6.881  27.684  0.0637  0.2675 -0.1922
99007W        W99871  18.913   5.600  11.356 -0.3323  0.0654  0.1520
99008W        W99872  15.693  19.985   9.040 -0.1047 -0.2975 -0.0523
99009W        W99873  10.746  24.679  28.386  0.0606 -0.3893 -0.1181
99010W        W99874  14.154  26.871  27.562 -0.1242 -0.0394 -0.0495
99011W        W99875  18.475  11.739  19.297 -0.0916  0.1424  0.0743
99012W        W99876  20.901   9.388   0.103 -0.1786 -0.0682 -0.1294
99013W        W99877  20.602   8.309  13.618  0.2833 -0.2084 -0.0449
99014W        W99878  11.269  29.112   4.191 -0.1177 -0.1536  0.0176
99015W        W99879   9.485  11.508   9.628  0.0834  0.0754 -0.1000
99016W        W99880  22.003   3.586  11.699  0.0003 -0.1496  0.2667
99017W        W99881  20.939  19.593  28.500  0.1315 -0.4080  0.2550
99018W        W99882  26.151  14.631  22.834 -0.1479  0.1504  0.1365
99019W        W99883   7.637  25.691  25.548  0.0297  0.0295  0.2251
99020W        W99884  26.251   6.831   0.949  0.0490 -0.0945 -0.0563
99021W        W99885  19.192   0.946   1.012 -0.4107  0.0870 -0.1816
99022W        W99886  20.664  16.478  17.773 -0.2500  0.2113 -0.1964
99023W        W99887  22.316  18.390  17.648 -0.0088 -0.4286 -0.4132
99024W        W99888  19.842  17.143  22.558 -0.1190 -0.0018 -0.1986
99025W        W99889  16.262   9.982  22.495  0.2642 -0.0289  0.2565
99026W        W99890   0.746   3.336  22.258 -0.1687  0.1654  0.0530
99027W        W99891   7.271  21.593  25.565  0.3735  0.0439  0.0531
99028W        W99892  10.438  23.154   1.173  0.3659 -0.1567  0.4631
99029W        W99893  22.295   2.560   7.209 -0.0470 -0.1469 -0.0106
99030W        W99894  26.097   8.798  26.880 -0.1333 -0.0245  0.0546
99031W        W99895   0.393   0.643  20.547  0.3188 -0.0236  0.1670
99032W        W99896  12.947  22.827   0.069 -0.2893 -0.2897 -0.0008
99033W        W99897  16.762   3.065   6.009  0.2740  0.0394 -0.3656
99034W        W99898  17.729   9.688  26.568 -0.2106 -0.0805  0.1505
99035W        W99899  14.287  20.871  27.809  0.0089 -0.3794  0.3438
99036W        W99900  17.382   2.680  12.729 -0.2206  0.0632  0.1260
99037W        W99901  15.536  24.920   4.199  0.1561 -0.0737 -0.0246
99038W        W99902   7.411  27.210  23.488  0.0212  0.1498 -0.1085
99039W        W99903   0.968  15.101  25.980 -0.0693  0.0491 -0.0665
99040W        W99904  25.844  15.584  13.103 -0.0873 -0.1292  0.0820
99041W        W99905  10.575   2.215   4.276 -0.0995 -0.1718  0.0277
99042W        W99906   9.362   2.137  18.400  0.0028 -0.0641  0.1780
99043W        W99907  10.542  25.343  21.881 -0.2156  0.4181 -0.0155
99044W        W99908   1.680  24.575  12.386  0.0540  0.0071  0.2288
99045W        W99909  19.522  24.650  15.219 -0.1936  0.0376  0.0377
99046W        W99910  24.557   7.376  14.496 -0.1281 -0.0514 -0.0615
99047W        W99911   1.462  13.908  28.207  0.0321  0.3653 -0.0171
99048W        W99912  15.049  19.205   8.400 -0.0137 -0.1194  0.1759
99049W        W99913  17.522  19.178  12.729  0.0440 -0.2275 -0.0302
99050W        W99914   0.113   2.284   7.702  0.0314 -0.0845 -0.1612
99051W        W99915   8.215   1.305  16.734 -0.1160  0.0622  0.1244
99052W        W99916  18.303  23.038  24.228  0.0132 -0.4374  0.2798
99053W        W99917  27.640  16.405  23.596 -0.1476  0.0754  0.0442
99054W        W99918  20.817  16.466  24.473 -0.1273 -0.0307  0.1205
99055W        W99919  26.541  28.221  21.007  0.1626  0.1253  0.1493
99056W        W99920  21.227   2.770  27.273 -0.0181  0.1164 -0.2868
99057W        W99921   2.365  25.750  13.264  0.0570  0.0739  0.0879
99058W        W99922  28.680  24.693   7.874 -0.0930  0.0230  0.2007
99059W        W99923  16.625   3.574   8.123 -0.0126 -0.1870 -0.2316
99060W        W99924  11.397  23.231   5.604  0.1047 -0.1121 -0.1897
99061W        W99925  17.165  20.331  24.986 -0.0398  0.1771 -0.0543
99062W        W99926  12.867   9.289   2.421  0.1222 -0.1797  0.1105
99063W        W99927   8.315  16.074  23.440  0.2013  0.2776 -0.0323
99064W        W99928  12.876   4.046   1.000 -0.2316 -0.1485 -0.0404
99065W        W99929   8.595  27.797  27.183 -0.1038  0.0967  0.3507
99066W        W99930  12.535   5.579  12.764  0.4245  0.2004  0.1381
99067W        W99931  24.489  21.777   7.534 -0.2644  0.0120  0.0908
99068W        W99932   6.811   6.318  28.095 -0.0681 -0.0711 -0.1913
99069W        W99933  26.670  25.097  26.428 -0.2428 -0.1487 -0.0508
99070W        W99934  23.985  20.641   9.766  0.2061  0.0308  0.0689
99071W        W99935  20.056  27.306  16.869 -0.3587 -0.0406  0.1543
99072W        W99936   7.324  16.346  22.367  0.1867  0.0215 -0.0287
99073W        W99937   4.336  22.008   3.338 -0.0545 -0.1159  0.3039
99074W        W99938   7.023   1.070   4.911  0.1477 -0.0627  0.3009
99075W        W99939   1.693  25.846   3.365 -0.1708 -0.1059 -0.2453
99076W        W99940   6.950  19.091   4.464  0.1633 -0.0515 -0.1095
99077W        W99941   6.589  29.095  25.141 -0.1087  0.2261  0.1322
99078W        W99942   5.212  23.975   4.606 -0.1418  0.2325  0.5684
99079W        W99943   6.356   5.481  25.833  0.1499  0.0835  0.1915
99080W        W99944  20.611  13.067  20.576 -0.3388  0.1383  0.1326
99081W        W99945  14.259  18.945   2.252  0.1264 -0.0107  0.0718
99082W        W99946  16.042  26.867   2.409 -0.1401  0.2716  0.2677
99083W        W99947  25.222  13.881  15.940  0.0133  0.0554 -0.0708
99084W        W99948   7.466   0.656  12.288 -0.0327 -0.0527  0.0090
99085W        W99949  15.013   5.997  17.726  0.0147 -0.2396 -0.0909
99086W        W99950   9.130  23.308  28.336  0.0746 -0.0897  0.0254
99087W        W99951   4.321  26.106  23.859  0.0963 -0.0806 -0.0758
99088W        W99952  24.999  28.284  18.514  0.0794 -0.0875  0.1538
99089W        W99953  17.062   6.356   9.129 -0.2964 -0.1600  0.0832
99090W        W99954  19.625  22.134   1.364  0.1346 -0.2139  0.4127
99091W        W99955  15.330  17.018  23.180 -0.0963  0.0823 -0.0333
99092W        W99956  28.616  15.369   7.918 -0.2642  0.2910 -0.1081
99093W        W99957   3.385   0.650  19.143  0.2617 -0.0931 -0.1695
99094W        W99958   9.759   4.094  19.719  0.1995 -0.0283  0.2033
99095W        W99959  23.643  22.897  28.234  0.0285 -0.1231 -0.2518
99096W        W99960   7.466  24.508  16.161 -0.2290  0.0147 -0.1677
99097W        W99961  10.948  15.993   2.048 -0.1659  0.2372  0.2932
99098W        W99962  14.209  14.113   9.092  0.1210  0.0322  0.0049
99099W        W99963   5.064  11.572  10.416  0.0899  0.1436 -0.1773
99100W        W99964   4.044  21.932  29.007 -0.1115  0.2523  0.1982
99101W        W99965  25.179  18.988  28.082 -0.0248  0.2844 -0.1140
99102W        W99966   1.575  23.750  15.405  0.1355  0.0936 -0.1263
99103W        W99967  13.971   4.574  27.214 -0.1365 -0.2006  0.0139
99104W        W99968  10.783  15.016  14.376  0.0767 -0.2729 -0.1363
99105W        W99969  23.817  19.587  27.275 -0.0147  0.5212  0.0220
99106W        W99970   8.906  25.800   5.605  0.1971  0.1321  0.0821
99107W        W99971   1.174   2.306   7.664  0.1013 -0.2164 -0.1126
99108W        W99972  16.207  17.766   1.150  0.3003 -0.2857 -0.0009
99109W        W99973  14.753   6.680  25.886  0.2433  0.1592 -0.0790
99110W        W99974  21.711   8.213   5.795 -0.0455 -0.0527 -0.0346
99111W        W99975   6.808   0.864   8.698  0.0813  0.0482 -0.0548
99112W        W99976  25.117   1.773   1.739 -0.0795 -0.1628  0.0445
99113W        W99977   4.942   8.592  10.367  0.0114  0.0632  0.0821
99114W        W99978   6.339  28.730  16.652  0.2386  0.3247  0.0815
99115W        W99979   2.258  22.397  17.007 -0.2531  0.2024  0.2457
99116W        W99980  20.190   4.009  24.903  0.2214  0.3226  0.1305
99117W        W99981  18.331   7.934  16.048  0.0270  0.0436  0.0622
99118W        W99982  15.387  27.914  13.141  0.0559 -0.1390 -0.2768
99119W        W99983   1.680  22.387   6.561 -0.1415  0.1243 -0.2992
99120W        W99984  15.559   4.260  15.682 -0.0515  0.2288 -0.0243
99121W        W99985  17.248   7.678   1.132 -0.1116  0.0161 -0.0173
99122W        W99986  21.627  25.610  10.356 -0.0633  0.1485  0.0015
99123W        W99987   5.567  19.324  19.083  0.0588  0.2526 -0.5083
99124W        W99988  19.041  24.865  17.760 -0.2025 -0.1489  0.0519
99125W        W99989  10.189   1.321   7.552 -0.3373 -0.0994 -0.2291
99126W        W99990  19.525  24.956  11.960 -0.0519 -0.1821 -0.0505
99127W        W99991  10.298  22.808  16.552 -0.4232  0.2192  0.1327
99128W        W99992  13.068  23.610   5.908 -0.1823 -0.2181  0.2364
99129W        W99993   7.461  18.944   9.565 -0.0421  0.5144  0.0710
99130W        W99994   7.736  21.889   8.620 -0.1514  0.0184  0.2614
99131W        W99995   6.553  21.316  28.260 -0.0228 -0.2728  0.3112
99132W        W99996   9.123   2.574  13.687 -0.1580  0.0151 -0.1928
99133W        W99997  11.292  16.604  19.881  0.1932 -0.2036 -0.3712
99134W        W99998  10.486   9.027  21.935  0.1425  0.3154 -0.2461
99135W        W99999  20.669  23.737  24.534 -0.0807  0.1186 -0.1608
99136W        W    0  19.851  19.741   8.214  0.1249 -0.0382  0.2289
99137W        W    1  24.582   2.569  14.530 -0.0385  0.2797  0.3160
99138W        W    2  18.249   2.135  18.801  0.1307 -0.0667  0.0110
99139W        W    3  22.463  26.776  22.777 -0.1148  0.2301  0.2171
99140W        W    4  11.462  18.650  10.398 -0.0421 -0.0820  0.1128
99141W        W    5   4.461  12.730   2.045  0.2545 -0.1090 -0.4113
99142W        W    6   6.871  23.441   0.959 -0.1866 -0.1599  0.2008
99143W        W    7  17.489  18.452  22.179  0.3584 -0.0128 -0.0115
99144W        W    8  23.330  27.895   8.460 -0.1267  0.1213 -0.1564
99145W        W    9   9.278  13.350  22.182 -0.3207  0.1013 -0.0323
99146W        W   10   1.875  17.107  10.042 -0.0088 -0.1465  0.0113
99147W        W   11  13.659  17.241  27.239  0.0256  0.0557  0.1971
99148W        W   12  16.602  23.381   8.010  0.1939  0.0551 -0.0502
99149W        W   13  15.809  25.510   5.814 -0.0460 -0.1011 -0.2338
99150W        W   14   4.943  17.440   1.034  0.2194 -0.2090  0.0968
99151W        W   15  15.518  13.026   6.881 -0.0064 -0.1449  0.3278
99152W        W   16  10.775  23.234   9.056  0.2081  0.0036 -0.0034
99153W        W   17   9.487  13.178   8.924 -0.1475 -0.3760  0.0959
99154W        W   18   7.841  24.994  12.532 -0.2414 -0.0188 -0.1320
99155W        W   19   2.757  17.057   2.262 -0.3245  0.1144 -0.0379
99156W        W   20   8.767  27.399   7.199  0.2661 -0.1433  0.1471
99157W        W   21   0.470  13.527  29.035 -0.0291 -0.0090 -0.1725
99158W        W   22  17.588  28.865  12.328  0.0357 -0.0237  0.1445
99159W        W   23  15.038  19.051  12.004  0.1619 -0.2780  0.1442
99160W        W   24  17.120  15.375   8.276  0.1509 -0.0632  0.1025
99161W        W   25  28.002  12.894  25.710 -0.1351 -0.0568  0.0111
99162W        W   26   5.422  12.228   9.439  0.1765  0.2025  0.1612
99163W        W   27  19.801  14.660  23.922  0.2219  0.0191  0.0179
99164W        W   28  28.056   5.548  28.091 -0.1874  0.1828 -0.1275
99165W        W   29   7.951  26.503  23.249  0.0943 -0.3293 -0.1857
99166W        W   30  18.132  19.371  17.512  0.0194 -0.3388 -0.3091
99167W        W   31  13.759  27.865  18.407  0.0176 -0.0312  0.3864
99168W        W   32  10.298  11.238  21.653 -0.0022  0.0469 -0.0363
99169W        W   33  15.898  27.557   3.605 -0.1953 -0.1119  0.2847
99170W        W   34  16.846  12.428  20.528 -0.3124 -0.0505 -0.1019
99171W        W   35   0.284   4.139  20.901 -0.0463  0.2348 -0.1781
99172W        W   36  20.962  19.290  26.661  0.0312 -0.1552  0.1777
99173W        W   37   8.481  18.573   7.371  0.1502  0.1258 -0.1834
99174W        W   38  13.387   6.003   7.036 -0.1425  0.0651  0.1026
99175W        W   39   9.997  15.666   9.182  0.1715  0.0535  0.0396
99176W        W   40  11.160  10.869   4.917 -0.0694  0.3314  0.6959
99177W        W   41  15.046  21.490  22.348  0.0724  0.0485  0.2821
99178W        W   42  13.794   3.936   6.155 -0.0856 -0.0522 -0.0226
99179W        W   43  23.269  12.137   5.616  0.4188 -0.4916  0.0264
99180W        W   44   1.563   2.221  18.374  0.1069  0.1878  0.1070
99181W        W   45  14.603   5.457  18.218 -0.2272 -0.2908  0.2185
99182W        W   46   1.752  18.666   5.977  0.0441 -0.1679  0.0389
99183W        W   47  26.940   1.645  24.219  0.4511 -0.0507  0.2763
99184W        W   48   0.904  19.096   5.289 -0.1289  0.0540  0.1428
99185W        W   49  11.741  19.235  25.743  0.0925 -0.0446 -0.3665
99186W        W   50  27.503  13.493  10.861  0.0130  0.4035 -0.0362
99187W        W   51   6.617  21.906  24.707  0.0748 -0.2455  0.1229
99188W        W   52  27.055   2.175  23.472  0.0975  0.0393 -0.1032
99189W        W   53  14.140  18.794  24.189 -0.0053 -0.1114 -0.0308
99190W        W   54   4.427  13.441   0.343 -0.0626  0.1142  0.0770
99191W        W   55   8.458   1.045  29.106 -0.5164  0.1285 -0.1239
99192W        W   56  22.795  14.389  15.592  0.1492 -0.1209  0.0213
99193W        W   57  11.641   1.254   4.041  0.0702 -0.2739  0.0828
99194W        W   58   5.899  21.981  28.351 -0.0000 -0.3911  0.1214
99195W        W   59  23.147  27.768  25.778  0.0170  0.2657 -0.1727
99196W        W   60  13.409  24.198  28.617 -0.0653  0.2299  0.2265
99197W        W   61  28.209  21.435  28.251  0.3638 -0.0519 -0.1645
99198W        W   62  22.668   3.097  27.143 -0.3372 -0.0055  0.0083
99199W        W   63  18.059  19.069  25.153  0.0565  0.0744 -0.0078
99200W        W   64  26.596  13.079  14.489  0.2206 -0.2168  0.1422
99201W        W   65  11.448  25.314   9.022 -0.0214  0.0637 -0.3054
99202W        W   66   1.167  26.631  19.998 -0.1411  0.0903 -0.0693
99203W        W   67  27.932  28.761   0.706  0.1054  0.2269  0.0386
99204W        W   68   3.495   0.613  25.739 -0.0651 -0.2406  0.0591
99205W        W   69  20.410  16.643  19.496  0.2277 -0.1174 -0.0143
99206W        W   70   4.220  25.864  13.179 -0.1753  0.4874 -0.0742
99207W        W   71  13.957  20.102  17.708  0.1262  0.2293  0.1489
99208W        W   72  10.537   2.484   1.492 -0.1458 -0.0656  0.1911
99209W        W   73  16.474  14.101   8.342 -0.0169  0.2558  0.0712
99210W        W   74  28.155  27.883  20.750  0.1633  0.4132 -0.1550
99211W        W   75   8.756   6.021  16.670  0.2567 -0.0009 -0.1700
99212W        W   76  25.445  11.360  16.488  0.1044 -0.2115  0.0548
99213W        W   77   9.453   1.257  21.311 -0.3309 -0.2107 -0.1341
99214W        W   78  28.446   1.694  28.231 -0.1670 -0.0445 -0.0662
99215W        W   79  25.660  21.345  18.896  0.1447  0.0562  0.1286
99216W        W   80   0.589  28.173  12.748 -0.2360 -0.0480  0.1674
99217W        W   81   6.941   3.316  19.902  0.0604 -0.1051  0.3046
99218W        W   82  17.023  27.556  20.020  0.4256  0.2114  0.0982
99219W        W   83  16.426  28.857  23.041  0.3726  0.0811  0.0289
99220W        W   84   8.294   4.398  19.633 -0.0555 -0.0962  0.2945
99221W        W   85  21.899  25.542  28.008  0.5155 -0.2276 -0.1449
99222W        W   86   7.345   4.843  14.533 -0.0726 -0.1946 -0.0469
99223W        W   87   2.454  23.856   4.414  0.1359  0.1133  0.1123
99224W        W   88   9.642   5.189  23.938 -0.3249  0.1272  0.0708
99225W        W   89  28.868  22.389  11.771  0.2357  0.1803  0.0962
99226W        W   90   9.740   0.189   7.080  0.1843  0.1319 -0.1504
99227W        W   91  26.548  15.248   0.416 -0.1329  0.1361 -0.1160
99228W        W   92  14.593   7.342   1.345  0.1868  0.1441  0.0975
99229W        W   93   8.583   0.446   0.507  0.0781  0.0175 -0.0199
99230W        W   94   0.977  23.314   3.229 -0.0024 -0.2459  0.0374
99231W        W   95  11.145   9.414   1.734  0.2267  0.1139 -0.0164
99232W        W   96  18.763   8.790  10.034  0.1726 -0.0536 -0.2121
99233W        W   97   6.654  15.724   7.161 -0.0872  0.5099 -0.1323
99234W        W   98   7.609  28.297   5.811 -0.0572 -0.2362 -0.0201
99235W        W   99   7.623  24.602  27.288  0.0671 -0.0283  0.0206
99236W        W  100  25.311  18.343  26.251  0.2117  0.0765 -0.0960
99237W        W  101   2.483   5.279  13.619 -0.1302 -0.0022 -0.2980
99238W        W  102  24.962  26.094  15.834 -0.2914  0.0076  0.2440
99239W        W  103  22.497   9.642  27.738  0.1630  0.0431  0.3035
99240W        W  104   8.973  13.854   5.193  0.0742  0.5864 -0.0058
99241W        W  105  23.143  27.804  10.901  0.0980  0.2967 -0.2563
99242W        W  106  22.915  24.614   1.649 -0.1246 -0.0881  0.2427
99243W        W  107  28.066  25.659   1.665 -0.0979  0.0905  0.1923
99244W        W  108  26.136   4.276   1.211 -0.0662 -0.1002 -0.3786
99245W        W  109   5.588   8.215   0.152  0.2551  0.0699 -0.2903
99246W        W  110  17.549   5.621  15.766 -0.1198 -0.0137 -0.1167
99247W        W  111   6.781   0.664  26.407 -0.3546 -0.3504 -0.1803
99248W        W  112   6.760   0.814   6.962  0.0957 -0.1330 -0.0425
99249W        W  113   1.148  10.205   5.304 -0.2674 -0.2303  0.2704
99250W        W  114  28.116  27.830  15.863  0.0202  0.1509  0.0971
99251W        W  115   3.885  28.013   1.938  0.2736  0.2334  0.1477
99252W        W  116  20.554   5.474  26.646 -0.3324 -0.0730 -0.0205
99253W        W  117  13.114  24.460   9.710 -0.1352  0.1107  0.2003
99254W        W  118  26.378   2.949  14.442 -0.4063 -0.2256  0.0512
99255W        W  119   4.172   0.846  26.454 -0.0052  0.1624  0.1369
99256W        W  120   4.546   2.715  12.821 -0.1210  0.1579  0.0879
99257W        W  121  13.617  28.904  28.587 -0.0314 -0.0473 -0.1433
99258W        W  122  10.898  24.092  16.364 -0.0627  0.1712  0.2333
99259W        W  123  21.746  25.443  12.364 -0.0976  0.2023 -0.1928
99260W        W  124  25.457  24.134   5.861  0.0488  0.2417  0.3447
99261W        W  125  10.567  25.744  25.896 -0.0987  0.1479 -0.2308
99262W        W  126  11.476  22.946  23.459 -0.0560  0.1772  0.3579
99263W        W  127  24.068   4.790  10.358  0.1657  0.0089 -0.2601
99264W        W  128  10.687   4.697  26.405 -0.0408 -0.0588  0.1543
99265W        W  129  15.930  27.267   8.303 -0.1465  0.3017 -0.0355
99266W        W  130   7.316  24.387   2.536 -0.0109  0.0272  0.2031
99267W        W  131   8.689  26.118  21.840 -0.0989 -0.0065 -0.0273
99268W        W  132  15.062  22.874  27.923  0.1563  0.0743 -0.2211
99269W        W  133  28.014  18.427  23.573 -0.2524 -0.0023 -0.1206
99270W        W  134   5.186  19.139  19.888  0.1774 -0.0293 -0.3250
99271W        W  135   4.354  23.222   3.159 -0.3947  0.0186  0.2449
99272W        W  136   5.487   9.817  27.358  0.0476 -0.0992 -0.0905
99273W        W  137  27.401  16.212   4.339  0.0821  0.0846  0.1622
99274W        W  138  16.101  20.522  28.081 -0.1075  0.2068  0.1070
99275W        W  139   0.335   0.265  24.256  0.3328  0.0337 -0.0647
99276W        W  140  11.710  29.103  14.231 -0.1159  0.3597 -0.1909
99277W        W  141  12.110  27.882  23.501  0.2716 -0.2142 -0.0583
99278W        W  142  17.871  13.252   5.222 -0.1788  0.2989  0.0503
99279W        W  143  23.841  18.730  23.030  0.0454  0.0198  0.2589
99280W        W  144  27.850   5.027  20.916  0.1154  0.0637 -0.2582
99281W        W  145   0.204  28.009  21.936  0.0388  0.2837 -0.0743
99282W        W  146  15.431   2.236  20.587  0.1417 -0.0287 -0.1241
99283W        W  147   6.593  19.516  14.420  0.1582 -0.2866  0.0229
99284W        W  148   7.659  10.757  17.227 -0.3295 -0.0406 -0.1206
99285W        W  149   5.274  21.291   5.344 -0.0401  0.0362 -0.0487
99286W        W  150   8.551  19.025   7.573 -0.1751 -0.1437  0.4086
99287W        W  151  19.530   0.168   3.808 -0.1043  0.0530 -0.3291
99288W        W  152  22.036   0.608  14.369  0.0831  0.2895 -0.1740
99289W        W  153   3.033  25.508   1.524 -0.1678  0.2647  0.1285
99290W        W  154  22.466  19.483  11.149 -0.0070 -0.0809  0.1454
99291W        W  155  15.451   2.630  26.432 -0.0512 -0.0427  0.3877
99292W        W  156  20.081   4.018   4.511 -0.1391 -0.0585 -0.2123
99293W        W  157  10.535  28.992   5.948 -0.3078  0.0510 -0.1752
99294W        W  158  11.051  14.607  22.829  0.1237 -0.3929  0.1024
99295W        W  159  18.363  13.029  18.184 -0.0703  0.0596  0.2795
99296W        W  160  15.129   8.285  24.877  0.3001 -0.1383 -0.2229
99297W        W  161  17.396  24.061  27.288  0.0354 -0.1150 -0.0877
99298W        W  162   5.523  28.811  22.896  0.1901 -0.1597  0.0521
99299W        W  163  20.630  15.622  12.060  0.1259  0.2667  0.1599
99300W        W  164  14.221   3.070   7.105  0.0625  0.3700 -0.0957
99301W        W  165  13.463  22.379  13.279 -0.1916  0.3219  0.0926
99302W        W  166  11.931  20.265  22.555 -0.0083 -0.0952 -0.0187
99303W        W  167  14.534  25.775  26.784 -0.0295 -0.0790  0.1326
99304W        W  168   3.044  20.436   8.041 -0.0116  0.0879  0.0252
99305W        W  169  20.998  10.537   7.199 -0.0522 -0.0322 -0.1610
99306W        W  170   1.462   4.839  22.904  0.1495 -0.0038 -0.2405
99307W        W  171  13.636   0.275  27.792  0.2701 -0.0080  0.0294
99308W        W  172   4.412  24.975   2.520  0.0585  0.0760 -0.4073
99309W        W  173  28.872  22.778   4.166  0.1093 -0.1559 -0.3140
99310W        W  174   3.931  19.192   2.497  0.1296 -0.2185 -0.1427
99311W        W  175   6.428  14.155   7.370  0.0513 -0.2307  0.0887
99312W        W  176  11.043  18.753  16.136  0.1537  0.2673  0.0215
99313W        W  177   4.608  22.995   1.761  0.1735  0.1431  0.0960
99314W        W  178   2.041   2.550   1.500  0.1944  0.0135  0.1240
99315W        W  179  24.245  22.093  26.370 -0.2153 -0.0769  0.0421
99316W        W  180  19.477  28.369   7.196 -0.0213  0.0195 -0.1303
99317W        W  181  20.291  23.315   8.373  0.1794 -0.1665 -0.0584
99318W        W  182  13.473   6.393  14.356  0.1266 -0.0121  0.2697
99319W        W  183   6.472  25.977  24.462  0.1284  0.1806 -0.2936
99320W        W  184  16.322   0.233   4.766 -0.0961  0.2221 -0.0145
99321W        W  185  15.437   9.314  14.184  0.3175 -0.1328 -0.0028
99322W        W  186   2.181  19.104  22.902 -0.3020 -0.0917  0.1971
99323W        W  187  12.890   8.610   5.702  0.3778 -0.0723 -0.1110
99324W        W  188  21.163  28.534  15.875 -0.1384 -0.1082  0.0956
99325W        W  189  21.093  15.023  23.566 -0.3191  0.2614 -0.2180
99326W        W  190  13.515   0.578   4.578 -0.0802 -0.4690 -0.2099
99327W        W  191  20.479   9.573   3.300 -0.2043 -0.0159  0.0311
99328W        W  192  10.918   3.845   9.337  0.2636  0.1018 -0.0446
99329W        W  193  10.945   3.379   5.085  0.0135  0.0770 -0.1320
99330W        W  194  25.309  11.890  10.766 -0.0227  0.3150  0.0177
99331W        W  195  26.968  25.119  22.920 -0.1402  0.2124  0.1125
99332W        W  196  25.002  14.504   9.634  0.2877 -0.1567  0.3906
99333W        W  197  21.351   1.186  16.307  0.2847 -0.2209 -0.1555
99334W        W  198   9.032  28.684   9.987  0.1381 -0.1044 -0.0086
99335W        W  199  15.246  23.653   0.282  0.1937  0.2373 -0.0876
99336W        W  200  25.173   8.378  13.831  0.3937  0.0631  0.0720
99337W        W  201  15.470   2.482   6.650 -0.2117  0.0310  0.1156
99338W        W  202   5.939  10.137  19.067  0.2657  0.1652  0.1308
99339W        W  203   7.077  15.613   2.993 -0.1652 -0.0669 -0.0913
99340W        W  204  20.217   4.653  28.466 -0.0805  0.0639  0.1622
99341W        W  205  13.096  26.600   1.172 -0.0074  0.0608 -0.1023
99342W        W  206  20.226  18.554  17.163  0.0364 -0.1865  0.0741
99343W        W  207  25.185   6.422   2.932  0.3328  0.1186  0.3727
99344W        W  208  27.691   0.551  24.543  0.0709  0.2750 -0.1063
99345W        W  209  11.990  27.042  23.717 -0.4599 -0.0511 -0.2042
99346W        W  210   9.427  22.042   3.232  0.0971  0.3153 -0.0500
99347W        W  211  20.766  19.423  13.923  0.2511  0.2526  0.1769
99348W        W  212   8.215  14.644  23.796 -0.0938 -0.1190 -0.4465
99349W        W  213   6.027   0.410   1.065  0.0251  0.0165  0.1157
99350W        W  214  12.723   3.386  14.932 -0.0266 -0.3915  0.0151
99351W        W  215  16.498  24.084   6.846 -0.1202  0.2243  0.4014
99352W        W  216  21.160  28.457  19.061  0.0476 -0.3547  0.1361
99353W        W  217   6.521   4.621   2.336 -0.3572 -0.1319 -0.2011
99354W        W  218   8.035   0.460   0.604  0.0596 -0.1413  0.2429
99355W        W  219  11.690  26.175  26.931  0.0096  0.0734  0.0358
99356W        W  220  26.335  12.878  10.399  0.0228 -0.0134  0.2728
99357W        W  221   9.006   5.859  10.969 -0.2112 -0.1989  0.0560
99358W        W  222   9.715   2.622   4.251  0.0701  0.1536  0.0438
99359W        W  223  23.605   2.176  29.054 -0.1304 -0.2224 -0.0267
99360W        W  224   0.115  19.371   0.998  0.1797 -0.0989 -0.1919
99361W        W  225   5.905   5.920  23.447  0.1142 -0.0293 -0.3287
99362W        W  226  22.763  27.050   7.140  0.0473  0.0159  0.2505
99363W        W  227  11.655   1.051  12.244 -0.3318  0.0672  0.0761
99364W        W  228  23.011  14.697   2.907  0.1332  0.0530 -0.2133
99365W        W  229   4.747   3.543   6.737  0.0252  0.1198 -0.0888
99366W        W  230   7.418  23.619  21.941 -0.2338 -0.0904 -0.2572
99367W        W  231  12.904  22.086  20.517 -0.0153  0.1853 -0.2974
99368W        W  232  18.966  26.503   9.765  0.1512  0.1810 -0.0544
99369W        W  233  27.404  11.117  12.989  0.1337  0.2613 -0.1554
99370W        W  234  12.569  27.449  13.717  0.1120  0.1136 -0.0053
99371W        W  235  16.983  25.922  12.285 -0.1329 -0.1439 -0.0006
99372W        W  236  28.405  27.950  23.290  0.0638  0.0575 -0.1626
99373W        W  237  26.450  20.457  12.270 -0.1189  0.3060 -0.2633
99374W        W  238  15.681  24.456   6.003  0.0846  0.1308 -0.0226
99375W        W  239   7.311  11.696   6.440  0.2574  0.4098 -0.0940
99376W        W  240   0.074  27.645   3.827  0.1130 -0.1767 -0.5015
99377W        W  241  12.504  19.632   2.795 -0.3149  0.2500 -0.3628
99378W        W  242  20.848  23.513  29.005 -0.1545  0.0908 -0.0914
99379W        W  243  15.406  15.972   0.223  0.0387  0.0784 -0.1158
99380W        W  244  13.013   8.766  24.188 -0.0281  0.2638 -0.1959
99381W        W  245  20.753  27.203  24.048  0.0693 -0.0999 -0.0268
99382W        W  246   8.930   4.200  17.052 -0.1763  0.0296  0.1136
99383W        W  247  17.712  26.440  25.228 -0.2364 -0.0189 -0.1481
99384W        W  248  12.823   3.284  23.733 -0.0053  0.0259  0.2821
99385W        W  249   4.068  23.485  16.649  0.1270  0.0191  0.0108
99386W        W  250   9.222  27.418  27.075 -0.2132 -0.2223  0.0522
99387W        W  251   6.145  22.921  18.319  0.3205  0.1562 -0.0580
99388W        W  252  10.435   4.011   3.253  0.2361 -0.1425 -0.3700
99389W        W  253  22.808  24.256   5.955  0.3179  0.2035  0.3386
99390W        W  254  18.678   7.688   4.689  0.3084 -0.2766  0.1461
99391W        W  255  11.702  15.233  24.050 -0.2077  0.0923 -0.3705
99392W        W  256  21.520  26.639   1.815 -0.1296  0.0865  0.1669
99393W        W  257  14.768   0.467   2.106  0.0446  0.1125  0.1490
99394W        W  258  10.728   6.636   6.562 -0.0621 -0.0330  0.0359
99395W        W  259  14.617  23.913  12.961 -0.0474 -0.0754 -0.2437
99396W        W  260  23.566  24.479  21.398  0.2341 -0.1362 -0.0521
99397W        W  261   7.734  24.483   3.948  0.4201  0.1360 -0.1254
99398W        W  262  12.442  24.721  19.000 -0.0048  0.0102 -0.3123
99399W        W  263   3.657   1.346   1.621  0.0286  0.0322 -0.1410
99400W        W  264  16.109  16.735   5.335  0.0790 -0.1354 -0.3671
99401W        W  265  19.955  11.996   5.046 -0.1543  0.2968  0.1197
99402W        W  266  11.485  18.067   0.800  0.3849  0.0604  0.0317
99403W        W  267  11.091  21.905   1.461  0.1377 -0.1618  0.3463
99404W        W  268  14.302  17.168   2.081 -0.0652  0.3462  0.2033
99405W        W  269  21.619  25.399  19.005  0.0839  0.2013 -0.0537
99406W        W  270   6.574   4.869   7.566 -0.0692 -0.0112  0.0260
99407W        W  271  11.610  12.152  22.686  0.3842  0.2155  0.1536
99408W        W  272   6.609  22.882   8.653  0.0826  0.3670  0.2930
99409W        W  273  15.734  14.010   7.066 -0.1510  0.1114 -0.4148
99410W        W  274   9.133   1.699  23.592 -0.1674  0.4034 -0.1175
99411W        W  275  17.310  17.690  27.700 -0.3271  0.3956  0.0992
99412W        W  276   4.258   3.764  15.762 -0.1618  0.1681  0.1304
99413W        W  277  24.871  24.893   8.230  0.2325  0.0859 -0.1567
99414W        W  278   2.576  13.298   1.021  0.0688 -0.0513  0.0323
99415W        W  279  12.974   4.124  27.301 -0.0956  0.3471 -0.5193
99416W        W  280  20.683   2.978   5.395 -0.0571 -0.2125 -0.0800
99417W        W  281   7.952  20.410   0.815 -0.0966 -0.1699  0.2332
99418W        W  282  10.882  28.967  11.655  0.1605 -0.4390  0.3723
99419W        W  283   8.827  27.387  27.442 -0.1696 -0.1154  0.0646
99420W        W  284  17.819  14.990  27.545 -0.0702  0.1400 -0.1262
99421W        W  285  15.335  15.203  27.103 -0.0134  0.1145 -0.3039
99422W        W  286  10.267  17.906   2.976  0.0706 -0.1279 -0.3673
99423W        W  287  20.629  22.153   5.352 -0.3520  0.6555  0.1544
99424W        W  288   8.399  17.439  20.986 -0.0431 -0.1713 -0.2154
99425W        W  289   5.533   7.646  14.874  0.0207 -0.2346  0.0413
99426W        W  290   9.631   5.982   6.738 -0.1375 -0.4941  0.0918
99427W        W  291  25.297  23.788   1.335 -0.0393  0.0863 -0.0262
99428W        W  292  10.093  19.709  28.969 -0.0704  0.0468  0.1273
99429W        W  293   7.431  25.649  12.270 -0.1155 -0.2985 -0.0335
99430W        W  294  18.221  23.212  11.974  0.1166  0.3908  0.2067
99431W        W  295   6.373  25.031   0.253 -0.2322 -0.0461 -0.0957
99432W        W  296  19.663   8.626   5.461 -0.2348 -0.0032 -0.2108
99433W        W  297   2.435  19.714  14.804 -0.0271 -0.0192 -0.2343
99434W        W  298  13.578  14.737   6.419 -0.3521 -0.0737 -0.0318
99435W        W  299  24.861  26.680  14.179  0.1953 -0.0160  0.0899
99436W        W  300   4.758  12.892   4.176 -0.1213 -0.1026  0.2607
99437W        W  301  11.859   8.230  27.712 -0.0379  0.2016  0.1776
99438W        W  302  18.071  10.476  11.009  0.0307  0.1696  0.0140
99439W        W  303  23.378   0.196  17.409 -0.1498  0.1015 -0.1999
99440W        W  304  23.372   9.306   3.281 -0.1672 -0.0128 -0.0721
99441W        W  305   2.095  19.790  21.541  0.0093  0.0600  0.1311
99442W        W  306  29.082  28.747   3.734  0.0364  0.3542 -0.1102
99443W        W  307  23.551  10.936  12.427  0.2382  0.0645  0.2150
99444W        W  308   7.831  25.853  28.527  0.1602  0.1341 -0.2211
99445W        W  309   0.412  24.271  25.617  0.0492  0.2738  0.2570
99446W        W  310   3.624  22.713   3.077  0.0752 -0.1974 -0.1510
99447W        W  311  16.119  26.040   0.538  0.1458 -0.0970 -0.3613
99448W        W  312   9.857  16.038  22.591 -0.0968  0.0362  0.1688
99449W        W  313  23.500   4.941  24.883 -0.1953  0.3612  0.1379
99450W        W  314  14.575  24.123   3.052 -0.1667  0.3267  0.0807
99451W        W  315   3.438  18.389  24.621  0.2819 -0.0326  0.1919
99452W        W  316  21.320   3.696  16.210 -0.2914 -0.2080 -0.1328
99453W        W  317  20.702  27.306  20.935 -0.3165  0.0406 -0.0908
99454W        W  318  17.047  15.894  15.268  0.0020 -0.0538  0.0062
99455W        W  319  18.753  19.071  20.928  0.0564 -0.1515 -0.2815
99456W        W  320   8.051   4.352   7.273 -0.0853  0.1590 -0.0752
99457W        W  321  22.056  12.873  26.981 -0.0698 -0.2866 -0.0431
99458W        W  322   4.657  21.004   8.192  0.1355  0.1359 -0.1053
99459W        W  323  12.327  24.910  22.771  0.2377  0.1902  0.0719
99460W        W  324  11.888   3.313   3.822  0.2410 -0.1582  0.1197
99461W        W  325   7.131   7.349  16.416 -0.2339 -0.0279  0.0574
99462W        W  326  15.270   9.895   0.007  0.3307  0.2322  0.1469
99463W        W  327  18.870   7.552  19.911 -0.0683  0.0869 -0.1634
99464W        W  328  15.501  27.863  19.933 -0.2940 -0.1166 -0.0405
99465W        W  329   3.323  24.462  24.680  0.2773 -0.0506  0.2598
99466W        W  330  20.088   9.468   0.631 -0.2829 -0.2958 -0.0446
99467W        W  331  11.865  23.692  12.751 -0.0958  0.2351 -0.2157
99468W        W  332  25.241   6.907   3.711 -0.0786  0.2151  0.0257
99469W        W  333  16.620  14.996  19.261  0.0814  0.4404  0.3150
99470W        W  334   7.487  15.121   6.842  0.1847  0.0724  0.3480
99471W        W  335  19.252  12.825   1.703 -0.0061 -0.0416 -0.1454
99472W        W  336  10.338  17.367  10.921 -0.0298  0.1865  0.4218
99473W        W  337  14.058  16.045   0.834 -0.0581 -0.2153  0.0511
99474W        W  338  22.885  26.317   7.858  0.0743  0.1892  0.2120
99475W        W  339  10.353   6.906   7.698  0.0855  0.1932  0.4165
99476W        W  340  20.970  19.315   6.933 -0.1493  0.0678  0.1374
99477W        W  341   0.754  20.242  22.795  0.1642  0.0882 -0.1356
99478W        W  342  26.451  12.209   7.718  0.1022  0.0762 -0.0195
99479W        W  343  24.770  14.197  13.662  0.2590  0.2922  0.2088
99480W        W  344  10.151  26.248  16.445  0.1315 -0.2729 -0.0321
99481W        W  345  28.437  25.992   5.617 -0.0475  0.0362 -0.0583
99482W        W  346   4.734   8.851   5.976 -0.1075 -0.0580 -0.1394
99483W        W  347   7.472  27.704  11.883 -0.0262  0.1538 -0.1132
99484W        W  348   4.885  25.737  15.811 -0.2496 -0.2642  0.2203
99485W        W  349   4.714  23.016   2.382  0.0218 -0.2441  0.0378
99486W        W  350  24.355  19.260   5.598 -0.0070  0.1425  0.1042
99487W        W  351   7.564  23.941   5.413  0.0523  0.0612 -0.1273
99488W        W  352  23.307   4.961  22.122  0.0596  0.1875  0.2029
99489W        W  353  16.057  16.574  14.667 -0.0407 -0.0974 -0.4186
99490W        W  354   0.438   3.584  20.187  0.0084 -0.0619  0.3423
99491W        W  355  20.803  19.865  26.750 -0.1286 -0.1807 -0.0195
99492W        W  356  21.773   9.080   5.286 -0.1181  0.2128 -0.0719
99493W        W  357   9.012   7.036   2.616  0.1442 -0.0275  0.2587
99494W        W  358  13.475   6.146  11.120  0.1465 -0.0032 -0.1878
99495W        W  359  18.681  19.259  14.754 -0.0434  0.0887  0.1672
99496W        W  360  27.778   0.883  28.806 -0.0839 -0.3080 -0.2397
99497W        W  361  26.862   1.445   3.662  0.0772 -0.2565  0.1052
99498W        W  362   3.944  26.210   1.004  0.1291  0.1124 -0.2982
99499W        W  363  13.284   3.035   6.971 -0.1911 -0.1594  0.2736
99500W        W  364  21.097  18.161  18.435  0.0153  0.0188 -0.3914
99501W        W  365   4.320   3.483  11.255 -0.1907  0.0671  0.1548
99502W        W  366  10.643   6.905  21.528  0.3500 -0.0546 -0.0210
99503W        W  367   3.036  20.597   5.394  0.1188 -0.0110  0.0639
99504W        W  368   6.183  19.782   5.866 -0.2125 -0.3237 -0.3316
99505W        W  369  13.597   4.720   1.701  0.2482 -0.2246 -0.1329
99506W        W  370  16.365   3.237   0.631 -0.0833  0.0619  0.1946
99507W        W  371  11.561  21.480  23.104 -0.0912  0.2478  0.1689
99508W        W  372  13.330  26.601  15.457 -0.0838  0.1091 -0.4272
99509W        W  373   2.628  28.471   4.347 -0.0822 -0.0634 -0.2238
99510W        W  374   4.658   0.886  15.776  0.0254 -0.3346 -0.2054
99511W        W  375   4.160  14.688   1.598 -0.0449  0.0059  0.0754
99512W        W  376   6.993  15.073  14.113  0.0896  0.3016  0.0158
99513W        W  377  21.637   7.225   4.119  0.0856  0.3098 -0.0279
99514W        W  378   7.943   7.559   9.394 -0.4511 -0.5856 -0.0045
99515W        W  379  18.337   2.302   5.753 -0.0867 -0.0724 -0.2185
99516W        W  380  12.027  17.325   9.911 -0.1460 -0.1231  0.2127
99517W        W  381  12.641  28.052   1.914  0.2947 -0.2119 -0.0929
99518W        W  382  15.815  17.954  20.956 -0.2546  0.0684  0.2382
99519W        W  383  21.138  20.337  18.922 -0.0407  0.1917  0.0850
99520W        W  384  27.771  15.071  26.543 -0.3284 -0.1653  0.0434
99521W        W  385  22.536  12.619   4.060 -0.0519 -0.0688  0.1618
99522W        W  386  12.890  11.690   0.303  0.1024  0.3829 -0.0074
99523W        W  387   8.667   5.587  10.704 -0.2499 -0.0423  0.1712
99524W        W  388   9.702  11.503   3.220  0.4210 -0.0156 -0.0616
99525W        W  389  28.900   1.811  12.348  0.0727  0.0368  0.2699
99526W        W  390  28.526  14.867  22.766 -0.1301 -0.1843  0.2097
99527W        W  391  19.787   1.715   4.952  0.0340 -0.3041  0.0610
99528W        W  392  16.871  14.912  25.798 -0.0281  0.0139 -0.1787
99529W        W  393  11.623  21.718   5.602  0.1438  0.2530  0.1498
99530W        W  394   2.459  25.356   1.951 -0.2763  0.0978 -0.1719
99531W        W  395   9.054   0.152  18.972  0.2455 -0.0685  0.0709
99532W        W  396  26.619  26.285  13.617  0.1138  0.1660  0.0267
99533W        W  397   2.081  28.838   6.913  0.3440 -0.0805  0.2558
99534W        W  398  13.675  20.527  10.380  0.0460 -0.2297 -0.3294
99535W        W  399  15.441  25.146   4.817 -0.0768 -0.2643  0.0114
99536W        W  400   0.113  26.304   5.671  0.1799 -0.3811  0.1749
99537W        W  401  11.272   9.726  16.225  0.1522  0.2248 -0.5846
99538W        W  402  17.816  22.600   0.427 -0.0671  0.0911 -0.0915
99539W        W  403  11.366  27.067  11.022  0.2308  0.2321 -0.0321
99540W        W  404   9.718  24.272  13.609 -0.0392 -0.2392  0.1140
99541W        W  405  10.508   6.196  20.924 -0.2334 -0.0189 -0.1268
99542W        W  406  15.296  21.502  26.204  0.1981 -0.1013 -0.0421
99543W        W  407  17.255   1.348   8.396 -0.1021  0.0594 -0.0756
99544W        W  408  18.673  26.285  15.215 -0.0042 -0.0020  0.1446
99545W        W  409   4.114   7.982  14.848  0.0777 -0.0018  0.2039
99546W        W  410  12.619  26.792   8.556  0.1769  0.0556  0.0914
99547W        W  411   6.849   1.370   3.847  0.1269  0.3394 -0.1931
99548W        W  412  12.416  13.545  12.986 -0.0214 -0.2401 -0.1459
99549W        W  413  18.813   0.663   1.499  0.1326 -0.1194  0.0024
99550W        W  414  17.105   0.101   6.439  0.1715  0.3874  0.0045
99551W        W  415   4.637   1.895  28.490  0.0038 -0.0704  0.1670
99552W        W  416  17.176   6.507  14.185 -0.0326  0.1926 -0.2955
99553W        W  417   8.833  23.516  21.340 -0.2532  0.0497  0.0898
99554W        W  418   6.192  12.999   0.605  0.1839  0.2358 -0.0535
99555W        W  419   0.979   0.539  21.695 -0.0694  0.3814 -0.0238
99556W        W  420  16.540  27.968  10.715  0.2223 -0.1346 -0.0437
99557W        W  421  11.201  21.137  18.370  0.1666 -0.0582 -0.0602
99558W        W  422  28.850   8.696   3.935 -0.0517 -0.0123  0.0406
99559W        W  423   9.996  15.684   7.359 -0.1313  0.0342  0.2202
99560W        W  424   6.950  19.773   3.828 -0.1329  0.1403 -0.0997
99561W        W  425   9.367   2.275  11.482 -0.1945  0.0278 -0.0363
99562W        W  426  22.659  14.932  13.536 -0.1748 -0.1491  0.0248
99563W        W  427  13.173  22.817  27.134  0.2519 -0.1907 -0.0287
99564W        W  428  15.117  12.096   5.893  0.2077  0.0968 -0.2260
99565W        W  429  15.468  28.041  17.819  0.0425  0.2548 -0.0098
99566W        W  430  23.307  22.182  11.719  0.0371  0.0116  0.0918
99567W        W  431   9.829  10.927  18.026  0.1891 -0.1208 -0.1118
99568W        W  432  16.215   3.503   8.912 -0.1532 -0.1942  0.0385
99569W        W  433  23.237   2.034  25.047  0.2119 -0.2000 -0.2086
99570W        W  434   8.884  22.934  13.039  0.5977 -0.1007 -0.2684
99571W        W  435   4.758  27.116   5.538 -0.0759 -0.1002 -0.1047
99572W        W  436  22.786  26.118   3.778 -0.0547 -0.0468 -0.2777
99573W        W  437  17.032   3.520  19.635  0.0731 -0.2907 -0.0578
99574W        W  438   1.784  25.781  14.375 -0.0326  0.3842  0.2722
99575W        W  439  15.826  23.942   1.899 -0.0578  0.1979  0.4257
99576W        W  440  16.960   8.158  12.365  0.1276 -0.1860 -0.2537
99577W        W  441   2.928  23.607  11.094  0.2663  0.0180  0.1318
99578W        W  442  14.415  26.589   1.483  0.1818 -0.2425  0.0583
99579W        W  443  11.019   0.611  25.010 -0.0035 -0.0907 -0.1845
99580W        W  444  17.128   0.149   3.840 -0.1083 -0.4311 -0.1474
99581W        W  445  21.920  11.291  19.050 -0.0262 -0.2726 -0.1247
99582W        W  446   4.457  27.371  12.230 -0.0010  0.0336  0.2245
99583W        W  447  21.518  21.903   5.740  0.1280 -0.1156 -0.1199
99584W        W  448   6.980  28.595   7.140  0.3756  0.1985  0.1610
99585W        W  449   3.033   5.027  23.414  0.1027 -0.0857  0.0628
99586W        W  450  16.014   0.265   7.557  0.0695 -0.0408 -0.1110
99587W        W  451  17.347  26.963   3.683 -0.1230 -0.0870 -0.0405
99588W        W  452  21.325   6.587  28.999 -0.0108  0.2512  0.0811
99589W        W  453  11.958  17.389   2.224 -0.1196 -0.0758  0.1465
99590W        W  454  22.136   8.909  23.665 -0.2092 -0.1159 -0.4906
99591W        W  455  25.997  26.980  24.765  0.0617 -0.2404  0.0145
99592W        W  456  13.113   3.727  11.960 -0.1407 -0.2559 -0.0713
99593W        W  457   7.435   1.889  11.396 -0.2704 -0.3255 -0.1093
99594W        W  458  24.586  11.869  17.456 -0.1930  0.2280  0.1052
99595W        W  459   0.445   7.586  28.034  0.0237 -0.0624  0.0186
99596W        W  460   2.161   0.305  13.476  0.0284  0.0309  0.0931
99597W        W  461   4.281  12.201  25.895  0.3185 -0.1120 -0.0316
99598W        W  462   5.650  27.770   2.585  0.1238  0.1239  0.0466
99599W        W  463   4.111  24.151   4.328 -0.3754 -0.1759  0.2149
99600W        W  464   4.547   2.922  27.950 -0.1799 -0.0185 -0.1722
99601W        W  465   9.601  22.841  15.173 -0.0924 -0.2549 -0.3766
99602W        W  466   8.254  13.279  18.538  0.0860  0.1188 -0.3222
99603W        W  467   2.638  28.250  21.441 -0.1879  0.0496  0.1820
99604W        W  468  21.578  23.680  15.125  0.2093  0.2862  0.0463
99605W        W  469  20.669  27.205  26.192 -0.4746  0.0999 -0.2277
99606W        W  470   3.961  22.787   9.078  0.0063 -0.2968  0.0287
99607W        W  471  12.770   4.453  23.548  0.3420  0.3713  0.0600
99608W        W  472   5.349  28.885  12.518 -0.0954  0.3092 -0.1865
99609W        W  473  28.425  22.564   6.204 -0.0915 -0.0613  0.1149
99610W        W  474  13.422  25.870   1.083 -0.0962 -0.2932 -0.1928
99611W        W  475  21.903  11.782  29.111 -0.2556  0.1706 -0.3720
99612W        W  476  16.813  12.489  28.223 -0.0310 -0.2207 -0.0178
99613W        W  477  16.565   1.537  28.987 -0.2051 -0.1542 -0.0466
99614W        W  478  20.807  26.960  15.870  0.2478 -0.1208  0.2389
99615W        W  479   9.167   2.185  26.829 -0.0316 -0.1436  0.0409
99616W        W  480  10.238   8.208  12.770 -0.1072  0.2747  0.0430
99617W        W  481   2.008   2.024  14.791  0.0239 -0.0612 -0.1225
99618W        W  482   3.924  12.389  16.537 -0.1190  0.1660  0.2454
99619W        W  483  24.781   5.961  25.111 -0.0795 -0.3159 -0.3098
99620W        W  484  14.913  23.839  19.422 -0.0369  0.1137 -0.3584
99621W        W  485  26.481  16.489   1.950  0.0999  0.2408 -0.0288
99622W        W  486   9.586  18.178  27.099  0.1490 -0.1687 -0.2414
99623W        W  487  23.216  26.459   1.542 -0.1406 -0.1234 -0.1257
99624W        W  488  10.237   1.607  14.436 -0.1375 -0.3722 -0.1577
99625W        W  489  13.303   0.056  28.059  0.0182 -0.0194  0.0545
99626W        W  490  13.058   7.759  18.250 -0.0081 -0.1033  0.2277
99627W        W  491  16.860  10.935   3.827 -0.0771  0.3556 -0.3910
99628W        W  492  23.941  20.695  22.756 -0.1003 -0.1640 -0.2143
99629W        W  493  18.871   5.634  10.841  0.1134 -0.2171  0.1266
99630W        W  494  20.170  22.487  26.422 -0.1361 -0.0125 -0.3362
99631W        W  495  16.832   3.408  25.846 -0.1682 -0.0534 -0.0929
99632W        W  496  11.288  22.026   0.230  0.0569  0.0093  0.2789
99633W        W  497  24.867   5.603   3.365  0.1067 -0.3733 -0.0883
99634W        W  498  13.370   0.653  28.010  0.1290  0.0152  0.0467
99635W        W  499  14.214   9.909  28.299  0.5025 -0.0398  0.1505
99636W        W  500  12.321  24.303  13.847 -0.1013 -0.0161  0.1922
99637W        W  501  11.635  18.187  16.097  0.0534 -0.3418 -0.0792
99638W        W  502  21.864  18.110   4.220  0.0022 -0.3019 -0.2357
99639W        W  503  21.803   2.387   9.666 -0.0586  0.1378 -0.3068
99640W        W  504   7.661  12.210   8.841 -0.0967  0.1535  0.0562
99641W        W  505   0.494  27.240  18.288 -0.1208 -0.0334  0.0542
99642W        W  506  22.762  27.928   7.687 -0.1921 -0.0945  0.0249
99643W        W  507  15.170   4.349  28.207 -0.1292 -0.1623  0.1093
99644W        W  508  12.411  13.003  16.755  0.1263 -0.1273  0.0823
99645W        W  509  27.712  26.479  28.183 -0.3090 -0.3020 -0.0234
99646W        W  510  24.628  13.680  22.352  0.0340  0.4443 -0.0295
99647W        W  511   8.912   4.203   6.293 -0.1006  0.0496 -0.0661
99648W        W  512  12.978  26.896  10.590  0.2722  0.0176  0.2152
99649W        W  513  14.709  27.362  14.204  0.0518 -0.0533  0.1097
99650W        W  514  25.519   0.128   0.596 -0.1915 -0.0743 -0.3330
99651W        W  515  28.137  11.550   4.717 -0.1465  0.1447  0.0160
99652W        W  516  22.081   1.238   3.747  0.0457 -0.0686  0.1293
99653W        W  517  10.672  10.576   4.899 -0.2928  0.1351  0.0028
99654W        W  518  26.552  11.554   1.276  0.0771 -0.1135  0.0183
99655W        W  519   5.021   5.688  12.670 -0.0285 -0.0442 -0.0715
99656W        W  520  22.657  26.573   4.530 -0.0853  0.0274 -0.1830
99657W        W  521  28.366  29.067  29.054  0.1545 -0.0816  0.1915
99658W        W  522  15.765   0.090   0.536  0.2686  0.1628  0.0005
99659W        W  523  21.605   3.679   8.318 -0.1259  0.2583 -0.0694
99660W        W  524   8.853   3.575   7.089  0.0859  0.1607  0.1925
99661W        W  525   8.582  20.546   3.459  0.0292  0.5383 -0.0314
99662W        W  526  18.366  23.688   7.885 -0.1424  0.2129  0.2484
99663W        W  527   9.687  25.777  21.036 -0.3125 -0.1422 -0.1367
99664W        W  528   7.726   5.838   5.774 -0.1660 -0.2067  0.2206
99665W        W  529  13.439  20.836  10.886 -0.1669  0.3111  0.0633
99666W        W  530  26.903   7.139   1.887  0.0340  0.0503  0.2462
99667W        W  531   5.959  28.446  15.192 -0.2700  0.3440 -0.1170
99668W        W  532  16.918  25.716  12.792 -0.0825  0.1627  0.2117
99669W        W  533  14.961  15.197   1.447  0.0528 -0.2812 -0.0144
99670W        W  534  22.474   6.484  12.995 -0.0086  0.0282 -0.1275
99671W        W  535  23.414  27.228  17.346 -0.1314 -0.0055 -0.2554
99672W        W  536  28.022  25.457  11.723  0.0227  0.0018  0.3952
99673W        W  537  13.274  26.979   2.491 -0.0056  0.2375 -0.0301
99674W        W  538  15.249  28.591  27.395  0.0117  0.0915  0.2141
99675W        W  539   8.651   7.522   7.101  0.1408  0.1491 -0.0410
99676W        W  540   0.241   8.433  23.351 -0.3259  0.0758  0.4957
99677W        W  541  24.542  14.533  28.308  0.0137 -0.1692 -0.0684
99678W        W  542  15.195   5.384   9.226 -0.1420  0.0904  0.0429
99679W        W  543  16.605   7.495   4.234 -0.2687  0.0894  0.0369
99680W        W  544   5.143  24.455  23.622 -0.0393  0.1342 -0.2402
99681W        W  545   7.567  15.384   8.884  0.0663  0.0810 -0.1711
99682W        W  546  27.631   6.275   1.032 -0.0436  0.0352  0.0153
99683W        W  547   7.458  20.880  28.235  0.0467  0.1141  0.1618
99684W        W  548   8.829  15.827  20.039  0.1985  0.0359 -0.0442
99685W        W  549   7.414   3.527  20.564  0.2561 -0.0500 -0.1287
99686W        W  550  24.198  24.489  12.075  0.2017  0.2185  0.1098
99687W        W  551   9.902  23.090  20.265  0.1918  0.3253 -0.2787
99688W        W  552  14.304  27.815  25.091 -0.0145 -0.0602 -0.0045
99689W        W  553  24.856   0.469  29.071  0.0842  0.1030 -0.0158
99690W        W  554   6.888  25.762  22.074  0.0506  0.1737  0.0302
99691W        W  555  27.349  11.559   1.747 -0.0088  0.0005  0.1827
99692W        W  556  23.918  28.165  13.947 -0.0950  0.2472 -0.2049
99693W        W  557   4.319  14.078  25.414 -0.0239 -0.0861 -0.2445
99694W        W  558  13.687  28.466  25.950  0.2704 -0.1800 -0.2873
99695W        W  559   3.580   8.498   4.474 -0.2169  0.1477  0.0668
99696W        W  560  16.921   3.676  13.386  0.0171  0.1361 -0.1475
99697W        W  561   8.400   3.780   7.144  0.1949 -0.3775 -0.1289
99698W        W  562   6.940  23.902   4.949  0.0242 -0.2695 -0.0829
99699W        W  563  17.454  20.152   8.473 -0.0710  0.1642  0.2367
99700W        W  564  11.084   4.804  18.419  0.1393 -0.0300  0.2227
99701W        W  565  10.360  24.436  10.907  0.0837 -0.4354  0.0876
99702W        W  566  22.569   7.032  26.502 -0.4485  0.0834  0.2090
99703W        W  567  24.097  23.484   6.262 -0.2223  0.1968 -0.0802
99704W        W  568  15.143  17.820   6.220  0.0363 -0.3388  0.0835
99705W        W  569  29.037   1.857   3.499 -0.0667 -0.0050 -0.3365
99706W        W  570  17.404   5.218  16.137  0.1462  0.0155  0.1484
99707W        W  571  10.980  15.365   5.543 -0.0095 -0.0845 -0.2699
99708W        W  572   8.453  25.260  11.900  0.3295  0.0539  0.4588
99709W        W  573   8.587  25.931  18.823 -0.2916  0.0979  0.1030
99710W        W  574  22.347  13.690  13.012 -0.0075 -0.1126 -0.5409
99711W        W  575  25.930   5.473   5.595  0.2022 -0.0851  0.3948
99712W        W  576  22.743  28.927   3.379 -0.0848 -0.0468  0.1540
99713W        W  577  23.763  27.355   4.853  0.3522  0.0252 -0.2624
99714W        W  578   5.161   1.707  11.446 -0.0450 -0.0858  0.1619
99715W        W  579  21.803  23.861  10.447 -0.0225 -0.0660  0.3163
99716W        W  580  26.473  26.761  11.879  0.0975 -0.0530 -0.1380
99717W        W  581  14.538  10.889  25.160  0.0345  0.0837  0.3593
99718W        W  582  17.356  12.530   5.579  0.0442 -0.1263  0.1159
99719W        W  583  18.701  20.622  10.574 -0.1826 -0.2938  0.2165
99720W        W  584   5.690  15.611  24.657  0.0325 -0.0783  0.0925
99721W        W  585  10.408  10.763  24.047  0.3241  0.0287  0.2987
99722W        W  586  24.315  13.812  11.103  0.0773 -0.0379  0.0451
99723W        W  587  10.122   8.972   0.411 -0.1063 -0.0308 -0.3211
99724W        W  588  22.707   2.500  15.193  0.2180 -0.1096 -0.0605
99725W        W  589   9.447   1.392   2.362 -0.0632 -0.3273 -0.2211
99726W        W  590  28.194  25.839  18.704 -0.0635  0.1134  0.0393
99727W        W  591  13.495  23.526   0.041 -0.1782  0.1163 -0.1432
99728W        W  592  10.074  18.336  19.122  0.1970 -0.0077 -0.1128
99729W        W  593  19.254  19.141  27.544  0.0540  0.2615  0.0645
99730W        W  594  20.587   0.952   9.984 -0.1533 -0.1916 -0.0026
99731W        W  595   9.661  27.791  22.290  0.0875  0.1020  0.1196
99732W        W  596   7.111  21.808   0.857 -0.3094  0.1154  0.0893
99733W        W  597  25.921  21.711  12.499  0.1721  0.0986  0.2386
99734W        W  598  20.722  28.829   5.275 -0.0118 -0.2643  0.2465
99735W        W  599  25.793  16.737  20.572 -0.1317  0.1366 -0.1159
99736W        W  600  18.799  15.333   5.188 -0.2609 -0.0921  0.1441
99737W        W  601  15.908  20.948   4.871  0.0854  0.1662 -0.0064
99738W        W  602  11.521  26.105   4.879 -0.1458  0.4293  0.0135
99739W        W  603   3.663   7.828  15.986  0.0378  0.4389  0.1774
99740W        W  604  13.386   9.100   4.257 -0.1615 -0.1776  0.0362
99741W        W  605   9.739   0.998  25.926 -0.0095  0.0208  0.3699
99742W        W  606  14.764   5.129  24.557  0.1084  0.0357 -0.2068
99743W        W  607   2.153  24.666  17.521 -0.2268 -0.2566 -0.1561
99744W        W  608   2.074   6.536  23.675 -0.0715 -0.0996  0.0318
99745W        W  609   1.599   4.539  23.308 -0.2569  0.0772 -0.0263
99746W        W  610   8.649   9.765  13.471 -0.0252 -0.3616 -0.1369
99747W        W  611  11.665   8.199  11.485  0.2965  0.0283 -0.0908
99748W        W  612  12.485  11.770  16.749 -0.0880 -0.0864  0.1163
99749W        W  613  25.114   2.184   8.564  0.0626  0.0603  0.0447
99750W        W  614  18.829  28.316  19.724 -0.0391 -0.0471 -0.0746
99751W        W  615  26.218  24.213  13.888  0.5361  0.1899 -0.0492
99752W        W  616  16.317  18.124   4.131 -0.0555 -0.1285  0.1286
99753W        W  617  14.719  24.642  18.057  0.0718  0.1815 -0.0871
99754W        W  618   9.311   2.087  10.077 -0.1160  0.1986  0.1065
99755W        W  619  18.456   3.782   6.247  0.0543 -0.1708 -0.1519
99756W        W  620  23.743   5.047  14.672 -0.2573 -0.2642  0.2151
99757W        W  621   1.009  17.296   2.237 -0.1479 -0.4981  0.0018
99758W        W  622  19.909   8.723   1.126  0.3722 -0.3463 -0.3719
99759W        W  623  15.020   6.802  22.974  0.2364 -0.2195  0.2323
99760W        W  624  12.087  27.051  13.552  0.1866 -0.2019  0.2052
99761W        W  625  24.125   1.338   8.227 -0.1688 -0.1151  0.1123
99762W        W  626  20.354  26.043  26.865  0.1650 -0.0023 -0.1521
99763W        W  627  17.173  24.085   8.419 -0.2762 -0.2604  0.1950
99764W        W  628  12.271  26.999  22.423 -0.0077  0.3031 -0.0561
99765W        W  629  23.058   7.358   2.313 -0.3569  0.0662  0.2682
99766W        W  630  15.612  13.610   5.808  0.1334 -0.1873 -0.1974
99767W        W  631   9.677  13.812  16.870 -0.2657 -0.0154  0.0878
99768W        W  632  12.898  13.153   5.893 -0.2038  0.0963 -0.0274
99769W        W  633   9.951   2.590   7.990 -0.0781  0.1998  0.2168
99770W        W  634  15.823   4.322  28.166 -0.2477 -0.2663 -0.0631
99771W        W  635  10.919  14.083   8.496  0.1686  0.0464  0.0500
99772W        W  636  14.136  18.300  15.578 -0.0495  0.0034 -0.1844
99773W        W  637   9.089  11.995   3.321 -0.1179 -0.2969 -0.1348
99774W        W  638  25.195   0.719  10.073 -0.0286 -0.2262 -0.0174
99775W        W  639   3.154  23.983   0.964  0.0969  0.0235 -0.1186
99776W        W  640  21.162  21.023  23.527 -0.3486  0.0036 -0.3790
99777W        W  641   9.324   0.886   1.514 -0.0536  0.1908 -0.2220
99778W        W  642   1.338  12.817  15.097 -0.0183  0.0508  0.1788
99779W        W  643  13.539  15.287   3.211  0.1079  0.1202 -0.0941
99780W        W  644  24.250   0.421  28.211 -0.1736 -0.0539  0.2946
99781W        W  645  22.918  26.752  21.227  0.1972  0.0362 -0.1349
99782W        W  646  14.458  18.279  23.095  0.1947  0.2205  0.0278
99783W        W  647  11.587  15.956  13.335 -0.1519 -0.2309  0.1336
99784W        W  648  25.789  26.188   1.225 -0.0114  0.2921 -0.1055
99785W        W  649  19.060   7.057   2.444  0.3296 -0.1103  0.1892
99786W        W  650   4.898  13.950   0.335 -0.1090  0.2404  0.2151
99787W        W  651   6.430  24.508  18.596 -0.3227  0.2041  0.0251
99788W        W  652  21.852  25.099  28.678  0.0547 -0.1282  0.1911
99789W        W  653  15.534   6.785   7.976  0.0041 -0.1643 -0.1861
99790W        W  654   5.945  26.433   9.005  0.1150 -0.0451 -0.1945
99791W        W  655  19.643  24.253  17.637  0.0643  0.0573  0.1810
99792W        W  656  12.552  19.972   8.138  0.2445  0.1107 -0.2395
99793W        W  657   4.263  25.320  21.298  0.1575 -0.2100  0.2305
99794W        W  658   7.259  24.034  18.486  0.1851 -0.0380 -0.1108
99795W        W  659  17.148  26.416  13.323  0.2057  0.1020  0.0862
99796W        W  660  26.945  10.087  24.757 -0.1825  0.2796  0.2552
99797W        W  661   2.797   8.161  25.353  0.2025 -0.1873  0.1983
99798W        W  662  18.395  25.172  18.010 -0.0311  0.1986  0.0457
99799W        W  663  17.446   1.495   3.743  0.3083 -0.2371 -0.2986
99800W        W  664   6.490   8.580  27.823 -0.1274 -0.0353 -0.3156
99801W        W  665   3.035  22.163  17.804  0.2977 -0.1505  0.2775
99802W        W  666  22.311  13.458  15.784 -0.0229 -0.0952 -0.1077
99803W        W  667  16.135  10.696  19.192  0.2322  0.0662  0.2820
99804W        W  668  11.815  20.152   1.138 -0.0672 -0.1484  0.3051
99805W        W  669   5.776  11.892  11.211  0.0040  0.4521 -0.2115
99806W        W  670  13.129  18.550  11.006 -0.1950 -0.0378  0.3000
99807W        W  671  12.230  18.425   0.590  0.1287  0.0311 -0.4430
99808W        W  672  13.783  26.992  19.358  0.1424  0.0096  0.0276
99809W        W  673  28.622   6.440  17.397 -0.3236  0.0232  0.1385
99810W        W  674   4.008  24.514   4.623  0.0712 -0.0488  0.2058
99811W        W  675   6.522  15.351  10.250  0.1391 -0.0555  0.1563
99812W        W  676   6.400   7.771   0.298  0.0198 -0.1578 -0.1117
99813W        W  677  24.239   5.186   0.803  0.0576  0.0707 -0.1338
99814W        W  678   2.694  22.947   6.968 -0.1418 -0.0965  0.0746
99815W        W  679  23.277  18.603   8.261  0.1252 -0.3960 -0.1223
99816W        W  680  17.658  24.983  10.176  0.4946 -0.0961 -0.0065
99817W        W  681  21.850  24.833  25.171 -0.0154  0.4539 -0.1949
99818W        W  682   7.633   6.623  19.332 -0.0731  0.0094  0.1207
99819W        W  683   3.205   2.375   3.731  0.0994  0.3085  0.0038
99820W        W  684   0.441  22.968  20.256 -0.0172  0.4301 -0.0734
99821W        W  685  23.977  27.342   9.687 -0.1256 -0.0789  0.0877
99822W        W  686  12.606   0.837  24.625  0.1844  0.0262  0.1120
99823W        W  687  16.576  14.129   1.108  0.0920 -0.0669 -0.3018
99824W        W  688   8.108   9.459  16.640  0.2538 -0.2112 -0.0746
99825W        W  689  25.050   3.568   4.193  0.0665 -0.0564 -0.1133
99826W        W  690  28.572   3.372  23.380 -0.0980  0.1090 -0.0609
99827W        W  691  17.719  25.080  21.160 -0.1293  0.0486 -0.4423
99828W        W  692   6.430  28.461   9.462 -0.0863  0.0913 -0.0346
99829W        W  693  16.394  28.983   4.021 -0.3052  0.1140  0.5171
99830W        W  694  14.568   1.627  27.987  0.0863  0.0981  0.1889
99831W        W  695   3.139   4.850  27.021 -0.0675 -0.0150 -0.3415
99832W        W  696  11.629  17.241  11.495  0.1039 -0.1322 -0.0772
99833W        W  697   6.306  18.938  19.166  0.2206  0.0628 -0.0185
99834W        W  698  25.988  19.606  23.073 -0.1585  0.1720  0.0174
99835W        W  699  21.433  17.280  12.613  0.2896 -0.1896  0.1757
99836W        W  700  28.399   3.876  13.132  0.1102  0.1329  0.0524
99837W        W  701   7.820   5.666  13.933 -0.2276  0.1990  0.0574
99838W        W  702   6.744  20.726  12.137 -0.0764  0.1089 -0.2920
99839W        W  703   8.403  23.927  24.956 -0.3272  0.0864  0.6099
99840W        W  704  18.347  27.986  13.442  0.1416 -0.1114  0.0914
99841W        W  705  12.897   2.340  27.494 -0.0309  0.1495 -0.1871
99842W        W  706   5.342  20.682  22.559 -0.0594 -0.1041 -0.1648
99843W        W  707  19.025   2.714  15.659  0.5415  0.2256 -0.2835
99844W        W  708   7.912  25.573   8.796 -0.0325  0.3068  0.2220
99845W        W  709  14.861  16.374  19.020 -0.0994  0.2468  0.1746
99846W        W  710  14.916  13.191   3.150 -0.0672  0.1440  0.1602
99847W        W  711  11.502  25.576  20.302 -0.0012  0.0088 -0.1300
99848W        W  712  17.941  26.306  16.769 -0.0823 -0.1619  0.0569
99849W        W  713  12.899  28.265  21.998  0.0848  0.3419  0.5298
99850W        W  714   2.355   0.926  25.947 -0.1073  0.1697  0.5421
99851W        W  715   7.125  22.299  18.911  0.1558 -0.0677 -0.4124
99852W        W  716   6.008   0.939  10.725 -0.1152  0.0123  0.2220
99853W        W  717   6.720  16.445  19.851  0.0123 -0.0483  0.2217
99854W        W  718  15.453   2.758   0.898  0.0524 -0.1488  0.1089
99855W        W  719   6.798  28.013   7.572 -0.2458  0.0423 -0.1296
99856W        W  720  25.152  24.294  17.577 -0.1863 -0.0660 -0.0684
99857W        W  721  13.217  24.706   8.567 -0.2705  0.1325 -0.0621
99858W        W  722  23.325  27.145  26.842 -0.1991  0.0368 -0.0556
99859W        W  723  13.429  26.958   1.258 -0.2102 -0.1566 -0.2924
99860W        W  724  10.022   8.575  16.145  0.1919  0.2235 -0.1821
99861W        W  725  10.226   3.224   3.740  0.0686 -0.0692 -0.1601
99862W        W  726  13.919  18.337  13.824 -0.1718  0.2147 -0.0985
99863W        W  727   2.305  28.222   4.704  0.0652 -0.3657  0.1105
99864W        W  728   2.238  25.441  10.582  0.1539 -0.0482  0.0449
99865W        W  729  21.590  21.889   3.090 -0.0148  0.0494  0.1736
99866W        W  730   3.459  12.087  17.328 -0.1421 -0.0228  0.0451
99867W        W  731  12.972   1.096   8.138  0.0716  0.0835  0.0154
99868W        W  732  14.152   5.038  22.741  0.1259  0.1113  0.0306
99869W        W  733  10.328   8.961  24.785  0.1249 -0.2939  0.0363
99870W        W  734  12.584   4.136   6.581  0.0374  0.1763 -0.2297
99871W        W  735  19.641   3.300  22.338  0.0710  0.0972  0.3199
99872W        W  736  25.334  17.361  24.800 -0.0837  0.1816 -0.2527
99873W        W  737  16.236   6.447  28.340  0.1420  0.0540 -0.1718
99874W        W  738   9.376   6.363   3.105 -0.0921 -0.0124  0.0593
99875W        W  739   4.076   6.252  13.413 -0.1097  0.0745  0.1123
99876W        W  740   3.049   1.483  25.084 -0.2708  0.0148 -0.0319
99877W        W  741   4.626  28.213  12.341 -0.1953 -0.2919  0.2057
99878W        W  742   2.849  22.922   6.411  0.0465  0.2209 -0.0888
99879W        W  743  13.226  27.150   1.745  0.2265 -0.2124 -0.2516
99880W        W  744   4.746  22.798  26.347 -0.1678 -0.1851 -0.0141
99881W        W  745  27.873   5.647  21.734 -0.0250  0.2453 -0.3840
99882W        W  746  27.325   7.950  12.906  0.0783 -0.0333  0.1576
99883W        W  747  21.935   4.069  12.921  0.0647 -0.1801 -0.0220
99884W        W  748   3.000  28.963   7.027  0.1681 -0.0104 -0.1371
99885W        W  749  11.854  20.908   0.969 -0.0563 -0.1347 -0.2002
99886W        W  750  18.356   0.565  15.255 -0.3442 -0.1587  0.0497
99887W        W  751   4.544  19.507  12.227  0.2447 -0.1931  0.0143
99888W        W  752  25.819  10.541   4.737 -0.1398  0.0256  0.1102
99889W        W  753  19.829   3.785  28.471  0.0597 -0.1699 -0.1516
99890W        W  754   2.862  25.990  20.150  0.0176 -0.0100  0.1409
99891W        W  755  17.049  13.894   4.999  0.1035 -0.0428 -0.1207
99892W        W  756  17.939   7.190   5.250 -0.2258 -0.2583  0.0634
99893W        W  757   5.397  22.485  13.312 -0.0791 -0.2137  0.1808
99894W        W  758   5.666   6.937  21.817 -0.0633 -0.3359  0.0499
99895W        W  759  18.520  14.580  15.987 -0.1642 -0.0760  0.0981
99896W        W  760  15.634  23.756  22.878  0.1653  0.2186  0.2666
99897W        W  761  18.853   0.100  11.097  0.1456  0.1977  0.1606
99898W        W  762   7.162   8.347   7.888 -0.2267 -0.0159  0.0152
99899W        W  763   9.912  17.147   4.065  0.4032 -0.0077  0.2472
99900W        W  764  23.716  17.466  24.778  0.1045 -0.1841  0.0947
99901W        W  765   7.791  12.669  18.052  0.4038  0.3408 -0.2640
99902W        W  766   9.146  23.720   2.420 -0.0349  0.2756 -0.1103
99903W        W  767  21.292  21.554  12.738 -0.4170 -0.1275  0.0785
99904W        W  768  17.037  12.768   0.801  0.0698  0.2610 -0.1802
99905W        W  769  20.312  28.495  19.809  0.0008  0.1689 -0.2325
99906W        W  770  11.856   0.926   5.575 -0.2401  0.1668  0.1331
99907W        W  771  20.205  22.185  16.082 -0.1667  0.0744 -0.0127
99908W        W  772   5.314   6.125   0.044  0.1109 -0.0322 -0.2815
99909W        W  773  13.868  24.266  22.465  0.0398 -0.0389 -0.1161
99910W        W  774  15.828  26.518  25.037  0.1055  0.3746  0.0099
99911W        W  775   6.086   7.455  24.823  0.2829 -0.3949  0.1450
99912W        W  776  11.450  28.387  16.119 -0.0348  0.2856  0.1382
99913W        W  777  16.686   4.062  22.728  0.1751 -0.3879 -0.0401
99914W        W  778  28.337  20.978   0.247  0.2602  0.1054  0.1506
99915W        W  779  12.422  16.133  11.714 -0.0378  0.0187 -0.2467
99916W        W  780   6.773   1.464  26.886 -0.0529  0.0648 -0.0849
99917W        W  781  13.381   1.220  16.747  0.1738  0.0749  0.2001
99918W        W  782   0.351   2.695   1.417  0.0090  0.2343 -0.1717
99919W        W  783  11.980  10.462   9.302 -0.1182  0.2909 -0.0630
99920W        W  784  12.727   3.857  10.527 -0.2675 -0.0816 -0.0066
99921W        W  785  25.291  13.036   8.532  0.1280  0.0006 -0.0127
99922W        W  786  25.750   8.348  23.535 -0.2532  0.2308 -0.0728
99923W        W  787  21.070  16.232   1.258  0.3617  0.0596  0.2312
99924W        W  788  19.839   2.841   4.344  0.1189 -0.1301  0.4606
99925W        W  789  19.715   3.833   4.168 -0.0542  0.1553 -0.3407
99926W        W  790   9.474   5.343  19.555  0.4497 -0.2324 -0.0182
99927W        W  791  19.735   7.964  27.297  0.1153  0.2128 -0.3847
99928W        W  792  16.554   9.049  16.459  0.3336  0.0174  0.0777
99929W        W  793   0.302  15.854   2.583  0.1071 -0.0056 -0.0174
99930W        W  794  17.615  27.291   2.418 -0.1203  0.0799 -0.1366
99931W        W  795   2.774   3.134  29.079 -0.0770 -0.2320 -0.0270
99932W        W  796   9.821  24.897  12.059  0.1368 -0.1377  0.1708
99933W        W  797   3.520  20.033  28.338  0.1122 -0.1255 -0.1271
99934W        W  798  13.519  13.510   1.358  0.1287  0.1889 -0.0559
99935W        W  799  21.902  28.048  25.755  0.1181 -0.0511  0.3021
99936W        W  800   1.330  19.161   6.465  0.0462 -0.1870  0.2069
99937W        W  801  13.040  22.234   6.058 -0.0913 -0.0954 -0.2431
99938W        W  802   6.767   8.847  14.453  0.0223 -0.1576 -0.0013
99939W        W  803   5.636   3.394   8.393 -0.0693 -0.2440 -0.0111
99940W        W  804   0.389  26.081   8.599 -0.1156 -0.2772 -0.0295
99941W        W  805  15.536  17.634   4.679  0.3578  0.0946 -0.2210
99942W        W  806  19.216  19.521  26.567  0.0445  0.0276 -0.1517
99943W        W  807   2.067  23.474  16.228 -0.0202 -0.1297 -0.1139
99944W        W  808  12.935   0.158  11.963  0.1052 -0.3511 -0.0056
99945W        W  809  15.096   8.275  17.421 -0.1282 -0.0266  0.1676
99946W        W  810  15.890  16.967  20.635 -0.1045 -0.0200 -0.0785
99947W        W  811   5.041   2.435  12.123 -0.1800  0.0396  0.0205
99948W        W  812  27.490  24.775  21.836  0.3325 -0.1363 -0.1818
99949W        W  813  21.957  14.449  15.930 -0.1793  0.3861 -0.1889
99950W        W  814   7.093  27.467   9.647 -0.2912 -0.2096 -0.2444
99951W        W  815   4.178  11.244  11.442  0.1844  0.0454  0.0604
99952W        W  816  26.434   4.835   6.830 -0.0595  0.3273 -0.0224
99953W        W  817  15.452  22.433  25.235  0.1073  0.2201 -0.3311
99954W        W  818  19.877  18.238  28.407  0.3602 -0.0806  0.6703
99955W        W  819   6.495   3.859   3.017  0.0700 -0.1537 -0.1879
99956W        W  820   9.593  28.573   6.174  0.1283 -0.2090  0.0177
99957W        W  821  10.114  15.583   0.665  0.3127 -0.0423 -0.2741
99958W        W  822  16.144  20.811   7.870  0.1430  0.0228 -0.2269
99959W        W  823   3.152  25.041  25.480  0.0048 -0.0748  0.1758
99960W        W  824   8.483   2.103   7.899 -0.0852 -0.1111 -0.0964
99961W        W  825  15.965  13.422  27.700  0.2323 -0.0356  0.1439
99962W        W  826  11.476   1.094  17.157  0.0991  0.0529 -0.0186
99963W        W  827  12.032   8.391   1.399  0.1225 -0.2849  0.0450
99964W        W  828  13.247  27.369  23.230  0.0123  0.1830 -0.1358
99965W        W  829  19.379  21.346  17.137  0.0240 -0.1595  0.3660
99966W        W  830  11.222   3.384   9.253  0.2683 -0.0358  0.0999
99967W        W  831  24.935  21.654  11.998  0.1543 -0.2210 -0.0725
99968W        W  832  16.983   2.489  21.477  0.0878 -0.1008 -0.1539
99969W        W  833  17.591  25.849   7.242 -0.3662 -0.0179 -0.1455
99970W        W  834  16.807   1.200  13.136 -0.2893  0.2225  0.1000
99971W        W  835   3.812   3.114  25.340 -0.1335  0.0280  0.1647
99972W        W  836  10.796  13.230   2.902 -0.1659  0.0311  0.0580
99973W        W  837  11.292   7.082   1.035 -0.3413 -0.2893  0.1007
99974W        W  838  19.782  27.158  25.583 -0.0768 -0.1716  0.3085
99975W        W  839   5.535  25.881  11.397  0.3101  0.0270 -0.2807
99976W        W  840  24.434  22.628  20.279 -0.2198 -0.0086 -0.1357
99977W        W  841   9.690   0.410   8.007 -0.2359  0.2107  0.0290
99978W        W  842   2.254  28.073   4.144 -0.1559 -0.1874 -0.0514
99979W        W  843  13.705  14.924  27.975  0.0323 -0.1651 -0.0440
99980W        W  844   7.261  25.685   1.062 -0.1546  0.1194  0.0764
99981W        W  845  12.797   7.338   6.487  0.1076 -0.1857 -0.0775
99982W        W  846  13.859   8.713   1.166 -0.1654  0.0412  0.1412
99983W        W  847  18.342  17.085   0.445 -0.0791 -0.0361  0.3229
99984W        W  848   4.408  21.447   1.600  0.1939  0.1348 -0.0094
99985W        W  849  16.742  23.675  10.285 -0.1598 -0.1050  0.2905
99986W        W  850  23.748   5.973   5.906 -0.1126  0.0923  0.1115
99987W        W  851  24.858  15.566  11.418  0.1599  0.0273 -0.1512
99988W        W  852  20.325  25.091  26.226 -0.1002  0.0838  0.1236
99989W        W  853   2.455  25.092  14.944 -0.1753  0.1416 -0.2101
99990W        W  854  17.588  18.290   3.399 -0.1296  0.2540 -0.2264
99991W        W  855  14.050   8.136   8.473 -0.0031 -0.0374 -0.0646
99992W        W  856  28.836   1.457   3.733  0.1235  0.3347  0.0819
99993W        W  857  12.170  23.536  22.664 -0.0420  0.0194  0.0782
99994W        W  858   3.953   4.921  21.167  0.2370  0.0860  0.1644
99995W        W  859   8.647  28.260  22.056  0.0864  0.1807 -0.0992
99996W        W  860  26.048  13.788  11.217  0.0533 -0.1027  0.0562
99997W        W  861  19.374  10.476   5.087 -0.0583 -0.0272 -0.1042
99998W        W  862  13.061   3.001  12.353 -0.1798 -0.2220 -0.0431
99999W        W  863  19.068   7.151  23.455  0.1908  0.2151  0.0548
    0W        W  864  27.517   5.922   9.564 -0.0398  0.0210  0.1274
    1W        W  865  27.096   2.015   6.272 -0.2422 -0.1962 -0.0139
    2W        W  866  17.419  20.047  24.649 -0.0524  0.0112 -0.1021
    3W        W  867   3.996  24.209  24.020  0.1547 -0.0904 -0.1054
    4W        W  868  26.563  19.471   9.323  0.1596  0.1326 -0.0210
    5W        W  869   9.564   3.183  14.476 -0.0369 -0.4354 -0.1395
    6W        W  870  21.806   8.642   7.599  0.0228 -0.1457 -0.0129
    7W        W  871  17.442  25.909  28.388  0.1282  0.0333  0.1187
    8W        W  872   2.718  15.684  26.868  0.2286 -0.1316 -0.3064
    9W        W  873  14.504  10.819  14.213 -0.0716  0.3146  0.0720
   10W        W  874  17.492  24.644  16.857  0.2079  0.1976  0.4289
   11W        W  875   6.377  21.232   7.702 -0.0329  0.0769 -0.1345
   12W        W  876   3.320  22.703  12.040  0.1508 -0.0217  0.2394
   13W        W  877  20.313   2.547  17.096  0.0181 -0.3216 -0.2300
   14W        W  878  15.567  26.786   2.236  0.2963 -0.3455  0.0859
   15W        W  879   8.337  23.494  16.075 -0.0636 -0.0698 -0.2612
   16W        W  880  10.425  17.091   8.657 -0.1484 -0.4087 -0.0847
   17W        W  881  14.678   0.956  28.700 -0.1826  0.1874  0.0265
   18W        W  882  25.571  11.525  20.405 -0.3271  0.0827  0.1672
   19W        W  883   4.931  22.244   7.888 -0.1827 -0.3326 -0.1816
   20W        W  884  13.029   9.143   4.579 -0.0645 -0.2241 -0.0378
   21W        W  885  21.716   7.964  19.571  0.1572  0.1884  0.0231
   22W        W  886  17.888  28.258  14.322  0.0192 -0.2341  0.2226
   23W        W  887  10.128   6.866   8.440  0.0039 -0.1447  0.1877
   24W        W  888   5.867  11.610  27.668  0.0359  0.0236 -0.0942
   25W        W  889  15.509   0.198   4.484 -0.0029 -0.2026  0.2852
   26W        W  890  20.109  15.996   8.997  0.1572 -0.0174 -0.3567
   27W        W  891   0.423  19.717   2.260  0.0880  0.1101 -0.3989
   28W        W  892  10.277   0.302  28.226 -0.1864  0.1415 -0.1284
   29W        W  893  11.632  23.537   8.854 -0.0171 -0.1735  0.1809
   30W        W  894  19.203   3.811  10.194 -0.1875  0.0936 -0.1674
   31W        W  895   3.659   5.013   4.162  0.0253  0.2315  0.0985
   32W        W  896  13.503   1.746  12.713 -0.1479  0.0610  0.0400
   33W        W  897   8.438   5.820  12.032 -0.0196 -0.0946 -0.1781
   34W        W  898   9.856   2.897   3.771  0.1250 -0.0930 -0.0611
   35W        W  899  15.678   7.028  21.242 -0.1103 -0.0248 -0.0655
   36W        W  900  25.527  20.873  17.152 -0.2246 -0.0824  0.1089
   37W        W  901  25.186  21.793  28.529  0.0657  0.2804 -0.0403
   38W        W  902  12.786   0.900   0.437  0.0000  0.2318 -0.3390
   39W        W  903  13.752  27.493   4.709  0.1313 -0.0252 -0.1640
   40W        W  904  28.895  18.517  14.883 -0.2955  0.0930 -0.0590
   41W        W  905  19.415  21.316  24.228 -0.0500 -0.0649  0.0158
   42W        W  906   0.170  15.524  12.198 -0.1084 -0.0155 -0.1150
   43W        W  907  12.614  22.200  20.076  0.1773  0.3974 -0.4071
   44W        W  908   7.201   1.372   8.589  0.0686 -0.0090 -0.4086
   45W        W  909  16.387  11.002   6.572  0.0818  0.2463 -0.0022
   46W        W  910  16.217   5.586   5.480 -0.3836  0.3848 -0.0746
   47W        W  911  27.137  17.616   1.527  0.2253  0.0294 -0.0194
   48W        W  912   8.810  20.660  12.378 -0.3417 -0.3497 -0.4574
   49W        W  913   8.661   0.799  21.564 -0.1568  0.4084  0.2687
   50W        W  914  15.430  27.110  17.345  0.0350  0.3275 -0.3325
   51W        W  915   4.855  28.034  23.750  0.1189 -0.2161 -0.0727
   52W        W  916  16.109  21.782  11.653 -0.0344  0.1522 -0.1445
   53W        W  917  25.957   0.131   5.638 -0.0306 -0.0136 -0.1589
   54W        W  918  27.166   3.834  14.514  0.1884  0.1290  0.0443
   55W        W  919  25.408  22.348  12.534 -0.1638 -0.2594  0.0648
   56W        W  920   6.262  12.240  24.794 -0.0700 -0.0363  0.0963
   57W        W  921   6.867  12.565   4.105 -0.0076  0.2990 -0.2435
   58W        W  922   4.229   4.712  28.540 -0.0843 -0.2658  0.3679
   59W        W  923  23.178  21.789  24.818  0.2013  0.0340 -0.1836
   60W        W  924  13.751  23.596  21.832 -0.3035  0.0408  0.4314
   61W        W  925  26.487  23.353  23.739 -0.3869  0.1002  0.0188
   62W        W  926  11.349  12.010   1.688  0.1821 -0.1171  0.0929
   63W        W  927  14.973  22.438   2.401  0.3339  0.0688  0.1889
   64W        W  928   5.641  24.191  18.985 -0.3237 -0.1308  0.0927
   65W        W  929  24.660  23.170  18.723 -0.0711  0.1054  0.0478
   66W        W  930  16.681   2.547  16.898  0.1225  0.2215 -0.0531
   67W        W  931  25.090  15.774  28.932  0.0225  0.0978  0.0567
   68W        W  932  11.503  11.087  10.551 -0.2132  0.2081 -0.2183
   69W        W  933   9.852  21.798  26.344 -0.0070  0.0971 -0.3514
   70W        W  934  27.865  27.621  25.601 -0.0679 -0.0325 -0.2112
   71W        W  935  12.071  12.023  12.659 -0.1639 -0.3632 -0.0827
   72W        W  936   0.963   0.619   7.019  0.1340  0.2167  0.2345
   73W        W  937   9.604  25.495  18.102  0.0346  0.4459 -0.0202
   74W        W  938  22.154  27.257   7.125 -0.2445  0.0813 -0.0727
   75W        W  939   6.512  13.334  27.716  0.4637 -0.3501 -0.1228
   76W        W  940   8.254  27.255  16.662  0.3013 -0.2624 -0.1750
   77W        W  941   7.310  23.124   3.361 -0.0604 -0.0841  0.0785
   78W        W  942  27.249  27.609  17.884  0.1183 -0.0479  0.0215
   79W        W  943  24.338  19.899  10.441 -0.1473  0.1136  0.1507
   80W        W  944   1.365   3.166  25.034  0.4120 -0.0502 -0.1710
   81W        W  945  18.283   0.119  28.904  0.0186  0.4016  0.1885
   82W        W  946  23.889   0.068   7.065  0.1059  0.1207 -0.0605
   83W        W  947   0.044  19.500  15.164 -0.1435 -0.0575 -0.2839
   84W        W  948  28.813  21.911   2.624  0.0194 -0.0630  0.0147
   85W        W  949   3.367  12.197   4.916 -0.6238  0.0295  0.0110
   86W        W  950  16.231  21.545   3.126  0.1534 -0.2289  0.1917
   87W        W  951  12.290  13.452  21.373 -0.0428  0.1392 -0.0342
   88W        W  952  14.301   0.632   0.925 -0.5266 -0.0660  0.0958
   89W        W  953   1.298  22.915  24.990  0.2035 -0.2223 -0.0975
   90W        W  954  26.100  16.548  10.471  0.2869  0.0634 -0.0137
   91W        W  955   9.930  22.553   5.072  0.3084 -0.4020 -0.3697
   92W        W  956  17.637  10.597  23.772  0.1019  0.2985 -0.0030
   93W        W  957   0.113  16.347  26.402 -0.1201 -0.3251  0.0109
   94W        W  958   8.747  24.445  20.356  0.2861  0.0891 -0.1685
   95W        W  959  11.904   0.385   5.458 -0.1049  0.0752  0.0158
   96W        W  960  14.062  20.724  16.385  0.4080  0.1494  0.0232
   97W        W  961  16.899  10.140   9.844  0.2905 -0.0223  0.2020
   98W        W  962  11.448   9.601  18.016  0.3572  0.1672  0.0227
   99W        W  963   7.899   3.856  16.264 -0.0030  0.2117 -0.0044
  100W        W  964  18.116   8.256   1.560 -0.0102  0.0760 -0.3599
  101W        W  965   9.676   8.653  11.123  0.1998  0.5186 -0.0509
  102W        W  966   5.005   3.906   7.117  0.0695 -0.1021  0.0903
  103W        W  967   5.924   0.441   6.618  0.2715 -0.2158 -0.0842
  104W        W  968  13.661   4.829   7.232 -0.1318  0.2349  0.0941
  105W        W  969   2.153   5.448  20.964 -0.1702 -0.2577 -0.1806
  106W        W  970  22.714  22.849  16.423  0.1325 -0.2919  0.1993
  107W        W  971  24.586   1.568   8.427  0.2229  0.0234  0.0205
  108W        W  972  24.770  25.176  28.754  0.1140 -0.0579 -0.1729
  109W        W  973   9.841   9.555  21.505  0.4782  0.1746 -0.2709
  110W        W  974  18.676  16.751   0.243  0.0301  0.2377 -0.0841
  111W        W  975   1.424  24.686  29.101 -0.2539  0.0692  0.4626
  112W        W  976   2.866  25.794  21.648 -0.0175 -0.1391 -0.0634
  113W        W  977  13.446  17.850   8.569 -0.0990  0.3958  0.2450
  114W        W  978  17.551   8.533  17.955 -0.1188  0.0226 -0.0509
  115W        W  979  16.055   4.655  24.126  0.1668 -0.1241 -0.1768
  116W        W  980  10.609   1.750  21.970 -0.0726 -0.4186  0.0740
  117W        W  981   1.184  18.363  17.091  0.1836  0.0001  0.0074
  118W        W  982  21.836   3.850   1.395  0.1045  0.0004 -0.0488
  119W        W  983  12.539   5.619  19.464 -0.2282 -0.0632  0.0616
  120W        W  984  15.734   0.469  23.172 -0.2392 -0.0170 -0.0142
  121W        W  985  17.515  13.921   0.993  0.3388  0.1628  0.1781
  122W        W  986   2.891  25.723   9.366  0.1305 -0.0346 -0.2694
  123W        W  987  26.527   2.938  11.814  0.1863  0.1156  0.0546
  124W        W  988   6.365  26.279   6.110  0.1186 -0.0034 -0.1352
  125W        W  989  22.221   3.615  24.807 -0.1044  0.1558  0.0809
  126W        W  990  11.140  22.190   3.109  0.0155  0.1635  0.0615
  127W        W  991  24.438  21.785  27.269  0.2769  0.0014 -0.1649
  128W        W  992  12.470  10.353  14.837 -0.1998 -0.0937 -0.3129
  129W        W  993  24.404  14.228   2.088  0.0297 -0.1005 -0.0748
  130W        W  994  12.554  20.030  23.799  0.1166  0.1413 -0.1850
  131W        W  995  28.903  11.931  14.756 -0.0504 -0.0163  0.0173
  132W        W  996  16.589  26.211  12.038  0.2201  0.1093  0.1434
  133W        W  997   9.642   0.651  24.693  0.1074  0.0673 -0.2051
  134W        W  998  15.716   1.780  25.988  0.1368  0.3013  0.2713
  135W        W  999   5.856   2.639  27.753 -0.0310  0.0715 -0.3588
  136W        W 1000   9.848  11.539  16.962  0.1679  0.3574  0.2414
  137W        W 1001  14.878  19.207  11.274 -0.0075 -0.0601 -0.2646
  138W        W 1002  15.521  28.933   6.618  0.2482  0.3630  0.2268
  139W        W 1003  15.240  14.432  28.843 -0.0856 -0.0387 -0.1603
  140W        W 1004  12.545  23.926   4.576  0.1066  0.0856 -0.0194
  141W        W 1005  20.889  18.342  13.472 -0.0209 -0.0489  0.0390
  142W        W 1006  21.546  16.823  28.386  0.0289  0.0497 -0.3607
  143W        W 1007  24.159   5.405  15.351  0.2303  0.0147  0.0235
  144W        W 1008  18.467   3.756  22.279  0.2442 -0.2511  0.1539
  145W        W 1009  16.559  25.748  24.275 -0.4213 -0.3238  0.0222
  146W        W 1010  11.221  12.873  17.656  0.0291 -0.1180 -0.1587
  147W        W 1011  22.618  17.666   7.064  0.2544  0.2005 -0.0314
  148W        W 1012  11.002  13.612  16.861 -0.5178 -0.1007 -0.0832
  149W        W 1013  16.019  17.827  11.189 -0.2013 -0.1147 -0.0379
  150W        W 1014  20.783  17.880   0.518 -0.2034 -0.4166  0.0680
  151W        W 1015   6.881  25.648  28.001 -0.0500 -0.1272 -0.3076
  152W        W 1016  11.008  23.176  10.698  0.0895 -0.1734 -0.0422
  153W        W 1017  20.079   2.210   0.427  0.0046  0.1344  0.1664
  154W        W 1018   6.255  10.112  11.577 -0.1403 -0.2100  0.0378
  155W        W 1019   9.755   7.957  19.509  0.1176 -0.1106 -0.1753
  156W        W 1020  25.428  12.713   6.334 -0.1675  0.0423 -0.0892
  157W        W 1021  11.016  25.993   6.206 -0.2569  0.0612 -0.1749
  158W        W 1022  11.196   2.828  12.994  0.1987 -0.1576  0.1089
  159W        W 1023  16.315   2.319   3.861 -0.1447  0.0309 -0.0473
  160W        W 1024  11.675  21.203   6.063 -0.2687 -0.0787  0.0851
  161W        W 1025  18.698  20.470  11.059 -0.1876 -0.2270 -0.0832
  162W        W 1026  15.482  24.552  24.592 -0.3652 -0.1223 -0.2214
  163W        W 1027  17.417   9.087  24.715  0.1356  0.1735 -0.0800
  164W        W 1028   0.653   7.470   3.204 -0.1331 -0.0730  0.3038
  165W        W 1029   2.299  11.786  11.520  0.0087  0.1613  0.0140
  166W        W 1030  13.876  19.896  24.901  0.2363  0.0777  0.3438
  167W        W 1031   5.569   0.430   1.196  0.1877  0.2003 -0.4119
  168W        W 1032   9.867  22.167  27.721  0.1027 -0.0491  0.0845
  169W        W 1033  10.798  22.117  21.493  0.2007 -0.1223  0.2428
  170W        W 1034   7.853  20.781   7.651 -0.2145  0.1017  0.2591
  171W        W 1035  25.554   0.494  21.172  0.1157 -0.0539 -0.0075
  172W        W 1036  21.944   2.191  20.500 -0.0020  0.2214 -0.1246
  173W        W 1037  24.703   8.148  14.037  0.2300 -0.1912  0.0173
  174W        W 1038  20.728  17.785   5.351 -0.1952 -0.0245  0.1132
  175W        W 1039   4.398  24.305   9.002 -0.2098  0.0935  0.1580
  176W        W 1040  13.534  11.918  10.935  0.0440  0.0043 -0.1584
  177W        W 1041   5.147   8.500  12.158 -0.1903 -0.0489  0.1403
  178W        W 1042  15.285  10.105  24.646 -0.0525 -0.0967 -0.2462
  179W        W 1043   8.652  17.531   8.448  0.0331 -0.0459  0.2198
  180W        W 1044   5.171  28.950  27.068  0.0354  0.0023  0.0077
  181W        W 1045   3.058   2.760   3.327 -0.2227  0.1572 -0.0904
  182W        W 1046  21.834  17.742  22.592 -0.1424  0.0882 -0.0064
  183W        W 1047  11.320   5.419  14.543  0.0957  0.1736  0.0580
  184W        W 1048  17.400  16.774   7.463  0.1322  0.2958 -0.2239
  185W        W 1049  25.164  28.831  25.249 -0.0138  0.0493 -0.0093
  186W        W 1050  26.451  19.786  17.625 -0.1757  0.0110 -0.0349
  187W        W 1051  15.584   8.716  24.950  0.0976 -0.0873 -0.2680
  188W        W 1052  10.451  23.773  16.264 -0.0337  0.0863 -0.0426
  189W        W 1053  20.701   3.317  15.426  0.1821 -0.2099  0.3802
  190W        W 1054  19.433   5.822  25.227 -0.0192  0.5046 -0.3001
  191W        W 1055  26.084  13.949   8.184  0.0618 -0.2569 -0.0701
  192W        W 1056   0.497   3.157  19.974 -0.2461 -0.1815 -0.1544
  193W        W 1057  17.176  19.103   5.148 -0.0015 -0.3098 -0.1058
  194W        W 1058   3.593  13.971   0.668 -0.0731 -0.2200 -0.0599
  195W        W 1059   4.292  18.746  12.483  0.0910 -0.2495  0.0908
  196W        W 1060   7.048  26.605  27.223  0.1959 -0.0281  0.0714
  197W        W 1061   5.576  17.446  20.595 -0.0364 -0.1295  0.3792
  198W        W 1062   5.436   2.548   5.465  0.0382 -0.2124  0.2511
  199W        W 1063  17.679  24.149   8.509 -0.1123 -0.2266  0.0567
  200W        W 1064  18.177   1.884  28.669  0.2859  0.0836  0.3348
  201W        W 1065  18.174  25.449  16.392 -0.0594  0.4826  0.0440
  202W        W 1066  11.698  26.506  20.833 -0.2001  0.1821  0.1250
  203W        W 1067  24.222  19.165  12.998 -0.0577  0.1603 -0.1273
  204W        W 1068   8.137  28.345  19.546 -0.2424 -0.3055 -0.2021
  205W        W 1069  12.787  21.833  28.174 -0.0306 -0.1257 -0.1382
  206W        W 1070  23.722  14.184  13.624 -0.0002  0.0541 -0.0341
  207W        W 1071   4.472   6.381  13.721 -0.4286  0.2734  0.0294
  208W        W 1072  17.079  28.152   8.619  0.1680 -0.0370  0.2255
  209W        W 1073  26.898  17.049  26.996  0.2145  0.0268  0.0450
  210W        W 1074   9.844  28.409   0.494 -0.1557  0.1168 -0.0114
  211W        W 1075  16.976  28.603  21.514  0.1127  0.3823 -0.1541
  212W        W 1076  15.965  26.580   6.722  0.0267  0.1488  0.0430
  213W        W 1077   1.957  17.832  15.825  0.2218 -0.0201  0.0033
  214W        W 1078  19.368   9.783  16.932 -0.4268 -0.1731  0.1987
  215W        W 1079   6.727  25.288   5.943 -0.1895  0.1811  0.0153
  216W        W 1080  11.932   5.703   9.229  0.0143  0.2078 -0.0388
  217W        W 1081  14.647  28.923  22.384  0.3225  0.0868  0.0620
  218W        W 1082   5.666   4.733  28.729  0.2969 -0.1148 -0.1013
  219W        W 1083   1.925   0.521   5.881  0.1019 -0.0593 -0.3386
  220W        W 1084  18.622   8.477   3.752  0.2347  0.1774  0.1111
  221W        W 1085   5.895  25.182   0.175 -0.0558 -0.0797 -0.1606
  222W        W 1086   3.659  14.221  13.405 -0.1161  0.1311  0.1773
  223W        W 1087  18.116  24.744   4.051 -0.2858 -0.0319  0.1300
  224W        W 1088  13.694  24.421   9.872  0.1567 -0.2911  0.0316
  225W        W 1089  28.986  26.412  27.507 -0.0411  0.0701  0.2107
  226W        W 1090  27.332  22.506  25.684  0.2937  0.1525 -0.0020
  227W        W 1091  25.452  25.906  15.851  0.1057  0.1540  0.1510
  228W        W 1092  27.142  26.842  14.680  0.0328  0.0189 -0.1278
  229W        W 1093  20.880  27.745   7.145  0.1063 -0.2366  0.1794
  230W        W 1094  28.120  21.975  11.317  0.0614 -0.1522 -0.0454
  231W        W 1095  15.061   1.071  22.422 -0.2564  0.1313  0.0429
  232W        W 1096   7.809   0.510  15.597 -0.1368 -0.0594 -0.2467
  233W        W 1097   9.582   4.654  14.838 -0.0327 -0.3398 -0.0656
  234W        W 1098  11.849   5.223  14.347  0.1992 -0.1668 -0.1068
  235W        W 1099  12.153  13.898   8.936 -0.0423 -0.2440  0.0359
  236W        W 1100  13.656  28.536   2.910  0.1218  0.0489 -0.0241
  237W        W 1101  25.078   8.841  17.670  0.3637 -0.0055 -0.3980
  238W        W 1102   8.255  13.694  19.996  0.2663 -0.1493 -0.0196
  239W        W 1103  28.524  19.805   9.811 -0.3553  0.0776 -0.0778
  240W        W 1104   9.424  15.102   6.397 -0.1790  0.2657  0.0891
  241W        W 1105  13.413  28.617  24.137  0.0033  0.2463 -0.3610
  242W        W 1106  23.710  25.621   9.082 -0.2345 -0.0304  0.1783
  243W        W 1107  18.584  16.196   0.861 -0.1755  0.0006 -0.1864
  244W        W 1108  11.861  27.912  25.701 -0.4009 -0.0291  0.1944
  245W        W 1109  21.981  16.386  21.609  0.3338  0.2065 -0.1740
  246W        W 1110  26.850  10.814  25.724  0.0878 -0.0738  0.0668
  247W        W 1111  20.991  23.011  26.753 -0.3018 -0.1278  0.0777
  248W        W 1112   8.992   1.646   9.874  0.0811  0.1808  0.0297
  249W        W 1113  23.182   6.847  18.308 -0.0685 -0.5654 -0.1349
  250W        W 1114  18.627  28.659  15.911  0.1244 -0.2153 -0.1170
  251W        W 1115  18.392  18.549   6.800 -0.0539 -0.0353 -0.0748
  252W        W 1116  14.256   6.384  19.964 -0.4749  0.1660 -0.0564
  253W        W 1117  24.672   6.158  14.240  0.1464  0.1726 -0.1276
  254W        W 1118  10.244  13.449  24.278  0.1994  0.2746 -0.3188
  255W        W 1119  14.053   7.633   1.111  0.0200  0.3613 -0.1389
  256W        W 1120  12.265   0.990  27.509  0.1913 -0.0844 -0.0586
  257W        W 1121   7.241  16.054  12.337 -0.0108 -0.1945  0.0524
  258W        W 1122   8.836  12.506  24.286  0.0590  0.0153 -0.0588
  259W        W 1123   3.264  16.076  17.647 -0.2908 -0.0684  0.0559
  260W        W 1124   0.052   0.234  15.640 -0.3942  0.0070  0.1590
  261W        W 1125   4.459  24.705  12.137  0.0716 -0.0569 -0.0605
  262W        W 1126   5.899  26.076  19.445  0.0333  0.3129  0.1255
  263W        W 1127   5.565  11.517   8.124 -0.2211  0.0777  0.0489
  264W        W 1128   9.546  28.329  28.084  0.0463  0.1528 -0.2472
  265W        W 1129   0.211  14.089  15.999 -0.0485  0.2981 -0.2371
  266W        W 1130  23.334  26.830  24.073  0.0299 -0.0482 -0.1645
  267W        W 1131  21.732  27.470   5.981  0.0671 -0.0660  0.1535
  268W        W 1132  24.087  23.908   4.437 -0.0938 -0.0118  0.1033
  269W        W 1133   2.270   4.678  14.383 -0.0890  0.2920  0.0736
  270W        W 1134  20.288  20.143   2.299  0.2035 -0.0009  0.1425
  271W        W 1135  12.437  14.076  13.674  0.2499 -0.1061 -0.5567
  272W        W 1136   1.978  19.110   8.263 -0.0459 -0.0777  0.0506
  273W        W 1137  13.129  20.500  24.972 -0.2477 -0.1082 -0.0825
  274W        W 1138  12.575  25.900  25.986 -0.2511  0.1186 -0.2712
  275W        W 1139  23.876   2.377   4.017 -0.3404  0.2777  0.1659
  276W        W 1140   4.253  28.670   7.639  0.1773 -0.2558  0.1168
  277W        W 1141  11.873   1.379  10.274 -0.1016  0.0492  0.2675
  278W        W 1142  11.271   8.161   7.743  0.3121 -0.0156  0.1369
  279W        W 1143  16.645  21.991  10.108 -0.3730 -0.0219 -0.0747
  280W        W 1144   4.424  11.306   8.447  0.3654  0.0737  0.0605
  281W        W 1145  20.793   1.793   9.556  0.1642 -0.0873 -0.1170
  282W        W 1146  20.089  24.117  10.770 -0.1070  0.0713 -0.1375
  283W        W 1147   2.084  22.655  28.499 -0.1822 -0.0831  0.2900
  284W        W 1148  10.131   1.007   9.617 -0.1002  0.2267  0.0636
  285W        W 1149  12.549  21.317  16.534  0.1618 -0.2600 -0.0560
  286W        W 1150   3.482   9.384   5.737  0.2068  0.2401  0.1671
  287W        W 1151  12.315  23.319   9.058  0.3134  0.5192 -0.0047
  288W        W 1152  24.471  11.663  12.354 -0.0072 -0.1625  0.0902
  289W        W 1153  22.744   0.914  21.128  0.3154  0.1864 -0.2061
  290W        W 1154  25.596   9.819  14.892 -0.2133  0.0800  0.1696
  291W        W 1155   7.890   8.335  16.030  0.1955  0.1313 -0.0100
  292W        W 1156  10.756  15.899  15.058  0.2697 -0.1228 -0.0502
  293W        W 1157   1.997  15.119  22.530 -0.0919  0.1380 -0.0753
  294W        W 1158   1.867   2.532   9.085 -0.1845 -0.3571 -0.1617
  295W        W 1159  14.358  21.187  19.469  0.1362 -0.0123 -0.1110
  296W        W 1160  11.247   8.010   4.957 -0.1444  0.0499  0.0660
  297W        W 1161   5.009  15.565  25.422  0.0149 -0.1945 -0.0000
  298W        W 1162  14.972  24.128   0.495 -0.0240  0.0656 -0.0954
  299W        W 1163  13.894  18.768  25.705 -0.2271 -0.1209 -0.1645
  300W        W 1164   9.449   8.059  11.088 -0.2889 -0.0074 -0.2041
  301W        W 1165   1.194  25.931  22.150  0.1866 -0.0314  0.0193
  302W        W 1166  10.282  16.639  13.049  0.1975 -0.0634 -0.6108
  303W        W 1167  23.176  19.734   5.319 -0.2285 -0.2174 -0.1559
  304W        W 1168   1.412   0.813   7.345  0.1199  0.2102 -0.0199
  305W        W 1169   5.458  28.549  27.252 -0.4131 -0.1379  0.4758
  306W        W 1170   9.122  14.510   0.412  0.0017  0.4984  0.0016
  307W        W 1171  22.347  22.044  12.107 -0.1914  0.0844  0.0910
  308W        W 1172   5.743  22.178  13.654 -0.3184 -0.1359 -0.0339
  309W        W 1173   1.831  21.556  22.057 -0.2943 -0.0533 -0.0237
  310W        W 1174   3.431   6.937   8.647 -0.0470 -0.1977  0.1599
  311W        W 1175  10.959   4.645   7.183 -0.2850 -0.1287 -0.0251
  312W        W 1176  13.889  27.841  13.082 -0.0378 -0.0108  0.0182
  313W        W 1177  26.235  25.568  26.037 -0.1274 -0.2060  0.0190
  314W        W 1178  22.543  18.361   7.477  0.0286  0.0516 -0.1196
  315W        W 1179  19.082  29.006   0.467 -0.0128 -0.1496  0.0425
  316W        W 1180  16.284   5.834   6.431 -0.0903 -0.0503 -0.2495
  317W        W 1181  14.395   4.835  10.416 -0.4656  0.1233  0.2464
  318W        W 1182  15.033   7.419  14.276  0.1832  0.0139 -0.2546
  319W        W 1183  26.056  26.864   0.616 -0.2481 -0.0687  0.1263
  320W        W 1184  16.943  18.809  19.575  0.0905 -0.0201  0.1761
  321W        W 1185  14.654  25.958  17.074 -0.0294 -0.2008 -0.2203
  322W        W 1186   9.627   8.112  19.034  0.0803  0.0184 -0.1729
  323W        W 1187   4.109  26.494   5.978 -0.0124  0.1270  0.1768
  324W        W 1188  24.625  16.412  14.663 -0.3973 -0.1634 -0.1064
  325W        W 1189  27.110  14.013  13.569  0.3557  0.0708 -0.1670
  326W        W 1190  20.463  26.681  17.523  0.2215 -0.2487  0.0066
  327W        W 1191  21.123   4.403  20.987 -0.0667  0.1254  0.3999
  328W        W 1192  17.132   1.304  25.212 -0.1438 -0.2732  0.1079
  329W        W 1193  19.066  21.357   2.021 -0.2275  0.3061 -0.0201
  330W        W 1194   8.133   8.451  11.423  0.0987 -0.1632  0.0441
  331W        W 1195  12.652  14.362  12.793 -0.0520 -0.0336 -0.0807
  332W        W 1196   3.152  23.926   0.382 -0.0058 -0.2738  0.2172
  333W        W 1197  18.153   6.747   1.680  0.2342 -0.1618 -0.2903
  334W        W 1198  19.097  23.052  18.012 -0.0351  0.4390 -0.1564
  335W        W 1199  26.571  26.838  15.692  0.0967  0.0830 -0.2163
  336W        W 1200   5.263   0.052  10.191  0.0210 -0.0667 -0.1641
  337W        W 1201  12.413   3.760  19.946 -0.0565  0.1058  0.0821
  338W        W 1202   9.745  14.234   5.761  0.0511 -0.0915 -0.2417
  339W        W 1203   4.161  21.720  14.037  0.1032  0.2449  0.2408
  340W        W 1204  20.711  26.162  17.517 -0.1658 -0.1083 -0.2885
  341W        W 1205  16.016   5.264  22.106 -0.1218 -0.2725  0.2503
  342W        W 1206   6.582   0.478  18.829  0.1519  0.0967 -0.3638
  343W        W 1207   4.901  19.596  15.772 -0.2030  0.0664  0.1959
  344W        W 1208  25.718   3.867   4.780  0.0836  0.0046 -0.0496
  345W        W 1209  13.806   2.685  26.814 -0.0207  0.1057 -0.0847
  346W        W 1210  26.090  27.921   8.098  0.3827  0.1492  0.0896
  347W        W 1211  19.532   0.830  15.024  0.0846  0.0579 -0.1410
  348W        W 1212   0.117   8.545   0.179  0.1362  0.2374 -0.1833
  349W        W 1213  10.874  15.471  12.026 -0.3919  0.1122 -0.1178
  350W        W 1214  27.104  18.255  15.822  0.3377 -0.0958 -0.2746
  351W        W 1215  18.664  11.317   5.103  0.2741  0.0466  0.2036
  352W        W 1216  10.034   5.780  23.245 -0.1343 -0.0669 -0.0821
  353W        W 1217   3.618   9.257   3.765  0.0920  0.0443 -0.0530
  354W        W 1218  12.319   8.410   4.357  0.1985  0.1478 -0.4429
  355W        W 1219  10.212   3.743  13.488  0.2718  0.2355 -0.1177
  356W        W 1220  13.623   4.548  17.516 -0.0115 -0.3518  0.1098
  357W        W 1221  23.257  26.242   0.305 -0.0887  0.0529 -0.2788
  358W        W 1222  11.740  21.896  10.616  0.4118  0.1535  0.2206
  359W        W 1223  14.488  22.422   8.157  0.2081  0.0327 -0.0956
  360W        W 1224  21.183  20.128   6.596 -0.2209 -0.2973  0.1062
  361W        W 1225  10.184   3.039  21.343  0.1991 -0.0010  0.1030
  362W        W 1226   1.412  17.801   7.357 -0.1864  0.0736 -0.1382
  363W        W 1227  10.323  18.869  18.387 -0.0696 -0.2055  0.0157
  364W        W 1228   8.265  27.354  12.031 -0.0391 -0.0457  0.2602
  365W        W 1229  15.949  24.626  23.440 -0.2202 -0.2665  0.0726
  366W        W 1230   3.216   2.418  21.238  0.1014  0.1280 -0.1136
  367W        W 1231  22.662  15.880   7.780  0.2808  0.2260  0.1578
  368W        W 1232  28.493  20.836  10.350  0.0232  0.3117  0.1925
  369W        W 1233  19.096  25.191  20.056 -0.0636 -0.0495  0.0013
  370W        W 1234  28.986  17.183  12.177 -0.1847 -0.0305 -0.0408
  371W        W 1235  17.675   3.707   1.666  0.2598  0.0138 -0.2881
  372W        W 1236   2.419  25.261   8.340 -0.0558 -0.2336  0.2017
  373W        W 1237  14.052  19.766   3.801  0.0835  0.3661 -0.0187
  374W        W 1238  10.090  28.924   7.833  0.4041  0.1149  0.1885
  375W        W 1239  19.951  18.405   0.209 -0.2219 -0.2318 -0.1191
  376W        W 1240  19.354   5.044  10.540 -0.1484 -0.0306  0.2588
  377W        W 1241  27.299   8.591  18.813 -0.1143  0.1640  0.2081
  378W        W 1242   7.796  27.099   7.956  0.1119 -0.0022 -0.0650
  379W        W 1243  18.912  24.666   1.521 -0.1382 -0.3722  0.0484
  380W        W 1244  26.221  11.272   0.024  0.0549 -0.0628 -0.3063
  381W        W 1245   6.136  26.909   2.027  0.1756  0.0303  0.0674
  382W        W 1246  14.030  28.067   2.209  0.1420 -0.0940 -0.1288
  383W        W 1247  17.221  27.118  15.465 -0.0769  0.4024 -0.1090
  384W        W 1248   8.419  20.897  21.771  0.1599 -0.3629  0.0090
  385W        W 1249  15.757  25.892  27.702  0.3041  0.1899 -0.1075
  386W        W 1250  10.973  18.746   7.757 -0.1087  0.0034  0.1542
  387W        W 1251   7.458   0.790  24.524 -0.1748  0.0272  0.1537
  388W        W 1252  15.249  14.363  24.493  0.3215  0.1013  0.0231
  389W        W 1253  28.631  11.851   5.396  0.0993  0.1803 -0.0113
  390W        W 1254  26.862  21.166  18.461 -0.1801 -0.0061  0.1023
  391W        W 1255  17.072   0.953  16.170  0.1004 -0.0240  0.0170
  392W        W 1256  11.538   4.923  23.792 -0.0683 -0.2730  0.0942
  393W        W 1257  20.714  19.579   8.972  0.0168  0.0014 -0.0164
  394W        W 1258   5.505   2.093   6.364 -0.1338  0.4370 -0.2310
  395W        W 1259  17.832  15.766   1.136 -0.1099 -0.1873  0.1015
  396W        W 1260   9.678   7.955  17.001  0.2543  0.0337  0.0432
  397W        W 1261  24.658   3.189  15.445  0.2627  0.2974  0.2193
  398W        W 1262  27.143   5.650  14.823 -0.0373  0.2976 -0.1213
  399W        W 1263  16.433   4.245  16.652 -0.1816  0.0296  0.0640
  400W        W 1264  21.460   2.201  12.473  0.0082  0.1528  0.2745
  401W        W 1265  15.082   2.572   9.216 -0.0096  0.0769 -0.1074
  402W        W 1266  17.151  27.553   7.850 -0.0642 -0.0742  0.1604
  403W        W 1267  26.751   4.383  10.240  0.2074  0.3237  0.3336
  404W        W 1268  15.964   9.337   1.886  0.2625  0.0031 -0.0009
  405W        W 1269  20.521  10.647   6.987  0.0398  0.1259 -0.1925
  406W        W 1270   7.183  10.168   7.319  0.0636  0.0459  0.2468
  407W        W 1271   6.995  15.487   6.110 -0.0755 -0.0203  0.0404
  408W        W 1272  26.608  28.194  24.679 -0.2741 -0.1952  0.2064
  409W        W 1273  16.105   1.069   4.827  0.2074  0.2871  0.0443
  410W        W 1274  27.163  16.169  24.475 -0.1858 -0.0902  0.0012
  411W        W 1275  14.850  26.611  21.623  0.0048 -0.2407  0.0970
  412W        W 1276   6.215  15.998  14.512 -0.1267  0.1138  0.1410
  413W        W 1277  19.745  17.903  19.360  0.1650  0.1711 -0.2358
  414W        W 1278  17.502   4.414  18.779 -0.1215  0.1278 -0.2218
  415W        W 1279   3.223  22.295  26.312 -0.2493 -0.0180  0.1976
  416W        W 1280  14.800  22.643   4.232  0.1576  0.0825  0.2709
  417W        W 1281   2.378  21.011   5.953  0.1360  0.4514 -0.2144
  418W        W 1282  11.174  27.887  26.905  0.0218  0.0044  0.2122
  419W        W 1283   4.429  23.706  21.163 -0.0070  0.1519 -0.1602
  420W        W 1284   5.139   1.436  11.864 -0.0598 -0.3005 -0.3018
  421W        W 1285  17.313  12.631   2.145  0.1083  0.1528  0.1364
  422W        W 1286  19.632   6.008  27.172  0.3446 -0.1451  0.0588
  423W        W 1287  16.009   2.645  13.898  0.1732  0.0620  0.1030
  424W        W 1288  20.179   2.277  12.125 -0.3682  0.0589 -0.0516
  425W        W 1289   7.549  17.683   7.353  0.1864 -0.2932  0.1594
  426W        W 1290  12.800  17.690  16.300  0.0899  0.2368  0.1464
  427W        W 1291   6.083   2.656  15.340 -0.2205 -0.0980 -0.0226
  428W        W 1292  25.488  23.081   8.113 -0.1367  0.0100  0.1855
  429W        W 1293  14.899   2.405   0.369  0.0665  0.2292  0.3423
  430W        W 1294   3.609   2.963  10.877 -0.2176 -0.0653 -0.0877
  431W        W 1295   5.616   2.867   4.672 -0.0091  0.0164  0.2433
  432W        W 1296   7.622   0.733  15.099 -0.1085  0.3623  0.1493
  433W        W 1297  23.352  17.334  12.027  0.0270 -0.0167 -0.1179
  434W        W 1298   1.264  14.650  12.221 -0.0018  0.1789  0.0128
  435W        W 1299  25.411   4.482  26.488  0.0425 -0.1514  0.2462
  436W        W 1300  14.188  27.282  24.840 -0.5261  0.0883 -0.0241
  437W        W 1301  25.540  28.627  11.885  0.1315 -0.0514 -0.1754
  438W        W 1302   3.724   2.232   1.636 -0.2201  0.2509 -0.1128
  439W        W 1303   2.803   6.958   3.984  0.2911  0.0919 -0.2078
  440W        W 1304   5.720  18.135  24.586 -0.3165 -0.0901  0.1340
  441W        W 1305  10.598   5.041   9.962 -0.0119  0.1287  0.0646
  442W        W 1306  25.435   9.024   2.345 -0.1193 -0.0158 -0.0483
  443W        W 1307  12.932  12.486   7.051  0.0233  0.0656 -0.0965
  444W        W 1308  25.478  28.520  29.071 -0.1243  0.2857  0.0674
  445W        W 1309  23.067  25.938  28.685  0.0463 -0.2086  0.0274
  446W        W 1310  16.960   2.455   2.240  0.2475  0.0938  0.0242
  447W        W 1311  28.206   1.336  20.559  0.1110  0.3823 -0.2265
  448W        W 1312   4.066  10.944  13.673 -0.0242  0.0640 -0.1240
  449W        W 1313   9.982  23.142  26.266  0.1493  0.0829  0.0962
  450W        W 1314  18.741   1.162   0.785  0.1689  0.3999 -0.0597
  451W        W 1315  10.268  25.287   5.019  0.3248  0.2511  0.1018
  452W        W 1316  10.570  16.810   7.630 -0.1276  0.0351  0.1744
  453W        W 1317  25.700   5.225   7.041 -0.3771  0.0340 -0.0453
  454W        W 1318  18.365  27.127  12.206  0.2886  0.0538  0.3326
  455W        W 1319  11.536   8.955  29.134  0.0807  0.0275  0.0145
  456W        W 1320   7.442  11.632  19.474 -0.1955 -0.1454  0.2479
  457W        W 1321   8.453   1.401   2.623  0.2394 -0.1224  0.2193
  458W        W 1322   7.771  10.518  27.040 -0.1989 -0.1829 -0.2107
  459W        W 1323  17.343   8.678  20.398  0.0251 -0.2309  0.4064
  460W        W 1324   4.597   4.345  14.557 -0.2424 -0.2063 -0.3668
  461W        W 1325   3.981   0.659   8.886  0.0213  0.1395 -0.0013
  462W        W 1326   3.553  25.394  27.335  0.1371 -0.1469  0.2442
  463W        W 1327  17.014  25.874  10.753  0.2013 -0.1208  0.2429
  464W        W 1328   9.087  17.374  22.970  0.0754  0.0901 -0.4836
  465W        W 1329  19.536  23.297  24.859  0.4583 -0.1946  0.0348
  466W        W 1330  13.816  17.153  19.875 -0.3416 -0.2790  0.0059
  467W        W 1331   0.203  14.493  27.054 -0.0922 -0.0446 -0.2694
  468W        W 1332  20.324   2.068  13.578 -0.0365  0.2045 -0.1477
  469W        W 1333   8.417  19.658  28.359 -0.0869  0.0694 -0.1495
  470W        W 1334   9.378  10.701   9.907  0.4253 -0.0501  0.0713
  471W        W 1335  16.544  19.374   7.950 -0.0654  0.1050  0.0403
  472W        W 1336   9.712   8.227  15.432  0.1771 -0.0892  0.3796
  473W        W 1337  18.973  16.489  29.083 -0.4511  0.0856  0.0806
  474W        W 1338  18.387  10.776   9.800  0.0810 -0.1735  0.0503
  475W        W 1339  11.675   8.419   3.465  0.3139  0.1716 -0.2252
  476W        W 1340  12.031  18.135  25.614 -0.1049  0.2670 -0.1983
  477W        W 1341  15.121   1.662   2.144 -0.3706 -0.1591 -0.1190
  478W        W 1342  20.054  17.995  26.191  0.1466 -0.0744  0.2709
  479W        W 1343  27.351  23.905   4.831 -0.0138  0.2536 -0.0831
  480W        W 1344  28.457  18.048   7.597  0.1105  0.1829 -0.2719
  481W        W 1345  19.342   6.231   1.283  0.0044  0.2881 -0.2704
  482W        W 1346  11.946  21.768  26.429 -0.0942  0.3773 -0.2102
  483W        W 1347   1.540  13.472   2.790 -0.3143  0.1409  0.1761
  484W        W 1348  22.934  18.442   7.955 -0.0937  0.3351  0.2460
  485W        W 1349   4.753  17.408  11.206 -0.0745  0.0016 -0.1168
  486W        W 1350   1.112   7.527  24.489 -0.2888  0.0278  0.0179
  487W        W 1351  21.160   3.777   4.469  0.2656  0.0213 -0.1590
  488W        W 1352  13.647  28.205  16.980  0.1757  0.3918 -0.2491
  489W        W 1353  20.046   5.405   3.013  0.3371  0.0939 -0.1139
  490W        W 1354   7.872   8.919  28.755  0.2166  0.0446  0.1649
  491W        W 1355  22.344   9.979   4.336 -0.1608  0.0132 -0.1784
  492W        W 1356  19.331  26.945  27.143 -0.1156 -0.2881  0.0330
  493W        W 1357  29.116   3.396   3.270  0.2988  0.2437  0.0139
  494W        W 1358  23.977   7.714  17.422  0.0458  0.0495 -0.0264
  495W        W 1359  28.086   4.604   8.912 -0.0715  0.2257  0.1953
  496W        W 1360   8.454   4.290   4.940 -0.2030 -0.0805  0.0422
  497W        W 1361  19.601  23.585  11.395 -0.0528  0.0067  0.0319
  498W        W 1362  21.122  18.846  26.870  0.2448  0.1796  0.0519
  499W        W 1363  20.115  21.375  21.186  0.1806 -0.0005  0.0982
  500W        W 1364  20.520   9.054  10.137  0.1307 -0.2364  0.0753
  501W        W 1365   2.001   9.713  15.344 -0.2895 -0.1002  0.0326
  502W        W 1366   9.591   8.312   8.966  0.0807  0.0673  0.1666
  503W        W 1367   9.605  27.492   1.584  0.2600 -0.0511 -0.2524
  504W        W 1368  21.266   2.046  17.154 -0.0847  0.5163  0.5358
  505W        W 1369  20.227  14.273   3.910  0.0785  0.2711  0.0907
  506W        W 1370  15.324  16.141   5.645  0.1896  0.1114 -0.3102
  507W        W 1371  22.498   9.061  18.029 -0.0832  0.0778  0.0886
  508W        W 1372  13.487   0.900  26.031  0.0051 -0.3174  0.0078
  509W        W 1373   8.891  19.921   0.883  0.0141 -0.1120  0.2039
  510W        W 1374  26.737  28.012  26.418  0.0190  0.0148  0.0824
  511W        W 1375  14.817  22.094  19.673 -0.2563  0.0779  0.4043
  512W        W 1376  22.652  26.982  17.765 -0.0788 -0.1263 -0.0804
  513W        W 1377   2.597   3.404  16.071  0.1823 -0.2370  0.0585
  514W        W 1378  22.685  16.249  24.508 -0.3033 -0.0836  0.0015
  515W        W 1379  22.760  27.231  22.894 -0.2356 -0.0838 -0.2241
  516W        W 1380   5.991   3.568   8.043  0.1379 -0.0728 -0.0589
  517W        W 1381  19.736  10.159   0.027  0.1169 -0.3851 -0.3952
  518W        W 1382   5.501  19.453   8.831 -0.1180  0.1186  0.1346
  519W        W 1383   5.644  18.536   5.616 -0.0106 -0.1805 -0.1752
  520W        W 1384   6.189  18.502  12.727 -0.0438 -0.1712 -0.2475
  521W        W 1385  14.963  28.546  18.219  0.3518  0.0113 -0.1361
  522W        W 1386  29.010   3.973  24.547 -0.0639  0.2293 -0.1687
  523W        W 1387  27.127  25.794   7.030 -0.0941 -0.1040 -0.2400
  524W        W 1388  10.900   2.731  15.098 -0.0392  0.0420 -0.0956
  525W        W 1389  14.992  19.263  16.181  0.0103 -0.0284 -0.1636
  526W        W 1390  14.527  28.024   7.718 -0.4127 -0.0478 -0.0924
  527W        W 1391  17.570  14.339   2.650 -0.0886 -0.1166  0.0704
  528W        W 1392   9.938   3.708  20.021 -0.1992 -0.4327  0.1920
  529W        W 1393  20.933  24.163  12.862 -0.3544  0.0293  0.2214
  530W        W 1394  16.851  17.580   8.137 -0.1761  0.2775 -0.2116
  531W        W 1395  25.797  25.614  12.713  0.0455 -0.2034 -0.2989
  532W        W 1396   7.600   6.057  15.332  0.2319 -0.1217 -0.5081
  533W        W 1397   8.119  18.276  26.666 -0.0069 -0.0297 -0.1871
  534W        W 1398   3.000   0.465  13.786 -0.1082 -0.2141 -0.2112
  535W        W 1399  10.571  14.026  14.496  0.0985 -0.3354  0.0656
  536W        W 1400   0.457  11.311  18.505  0.3921  0.1555  0.0382
  537W        W 1401  18.981   0.066  21.586  0.1995 -0.1478  0.3910
  538W        W 1402   8.620  24.989  17.577  0.0836  0.3285 -0.3202
  539W        W 1403   8.821  10.380  15.817 -0.0237  0.1079 -0.3068
  540W        W 1404   2.427   2.013  24.204  0.1067  0.1618  0.3093
  541W        W 1405  15.335  19.264  16.594  0.0822 -0.0014 -0.3134
  542W        W 1406   7.515   8.941   0.365  0.1644  0.0455 -0.3193
  543W        W 1407  27.026   0.209   2.466  0.2303 -0.0444 -0.0850
  544W        W 1408  20.544  10.486  13.205  0.1353 -0.2237 -0.0695
  545W        W 1409   6.725  14.254  23.483 -0.2491  0.1475 -0.0833
  546W        W 1410  19.937   8.323   8.188 -0.0405 -0.1043 -0.3556
  547W        W 1411  27.212  26.206  21.721  0.0479  0.1321  0.2030
  548W        W 1412   6.822  23.632  17.607 -0.3069 -0.0661  0.0316
  549W        W 1413   4.113  17.594  13.680 -0.2953  0.0032 -0.2586
  550W        W 1414  21.596  24.290   7.889 -0.0371 -0.1732 -0.0428
  551W        W 1415  19.668   0.691  21.824 -0.1820  0.1160 -0.0781
  552W        W 1416   7.198   2.062  10.056 -0.0667  0.0102  0.0651
  553W        W 1417   6.244  23.077  25.590 -0.0411  0.1038 -0.0861
  554W        W 1418   2.000   6.388  15.891  0.1263 -0.3169 -0.2125
  555W        W 1419  25.027  17.901  13.201  0.2284 -0.1877 -0.1247
  556W        W 1420  27.478   0.745  13.538  0.0692  0.4576 -0.1596
  557W        W 1421  12.140   7.401   1.198 -0.1560 -0.0768 -0.0822
  558W        W 1422   0.458  13.888  18.123  0.1580 -0.5736 -0.1789
  559W        W 1423  24.396   0.303  26.353 -0.2047 -0.0805  0.2251
  560W        W 1424  15.239  21.739  23.108  0.2284 -0.0322 -0.0075
  561W        W 1425   4.715   0.105  19.246 -0.0115  0.1490  0.1251
  562W        W 1426   6.635   3.694  13.247  0.2272 -0.0158  0.2093
  563W        W 1427   2.894   6.500  18.844 -0.0791  0.2528 -0.0241
  564W        W 1428  24.569  18.179   5.675 -0.3647  0.3078  0.0708
  565W        W 1429   2.513  14.773   6.303  0.1713  0.1033 -0.1210
  566W        W 1430  17.287   4.792  23.129  0.3138 -0.0046 -0.2356
  567W        W 1431   6.181   6.061   7.825 -0.3444 -0.0653  0.4990
  568W        W 1432   1.476  24.259  26.705  0.3342  0.1424 -0.1469
  569W        W 1433  14.297  21.130  22.728 -0.0335  0.0729  0.0422
  570W        W 1434  11.178  21.644   6.812  0.0031 -0.0767 -0.0745
  571W        W 1435   2.037  25.111  22.380  0.2358  0.0930  0.2114
  572W        W 1436   9.180   6.766  15.710 -0.0816  0.0586 -0.5390
  573W        W 1437  13.416  16.249   1.669  0.0290 -0.0798 -0.0873
  574W        W 1438  22.106  16.841  29.116  0.1137 -0.3791  0.0737
  575W        W 1439   3.908  10.369  13.487 -0.0153  0.3422 -0.0136
  576W        W 1440  21.372  12.681   7.568  0.0414 -0.2509 -0.0861
  577W        W 1441  16.348   3.618  18.275  0.0166 -0.1654 -0.0639
  578W        W 1442   8.785  22.439  13.797 -0.0391 -0.1046  0.1033
  579W        W 1443   6.447  24.034  11.190 -0.0635  0.0711  0.0736
  580W        W 1444   9.209  12.059   4.354 -0.0307  0.0512  0.0304
  581W        W 1445  19.332  23.289  15.716 -0.1117  0.2825  0.2753
  582W        W 1446  10.039   0.199   3.254 -0.1370  0.2123 -0.2297
  583W        W 1447  14.400  16.012   3.953 -0.1839 -0.1985 -0.3458
  584W        W 1448  10.613   0.105  20.948  0.1110  0.1545  0.2600
  585W        W 1449  23.291  13.214  13.051 -0.3973  0.1262  0.2286
  586W        W 1450  26.969   9.998  17.395 -0.0253 -0.4323 -0.0568
  587W        W 1451  10.526  23.593  24.065 -0.2700  0.0076  0.0384
  588W        W 1452  12.065  18.431  10.299 -0.2623 -0.1360  0.0834
  589W        W 1453  14.572  13.309  10.357 -0.4585  0.1901 -0.3939
  590W        W 1454  15.495  21.261  15.775 -0.3599  0.1975  0.2724
  591W        W 1455   8.322   3.204  21.847  0.2670 -0.0843 -0.0306
  592W        W 1456   8.560  24.686   3.029 -0.0196 -0.0371  0.0087
  593W        W 1457  15.248   0.956  17.619 -0.2008  0.1958 -0.0027
  594W        W 1458   2.109   4.274  17.680 -0.0113  0.1114 -0.0486
  595W        W 1459  13.822   2.020  16.541 -0.0945  0.0346  0.5073
  596W        W 1460  15.450  20.432  19.545  0.0350 -0.0558  0.1907
  597W        W 1461   6.352   9.493  18.472  0.1098  0.2547 -0.0030
  598W        W 1462  18.946  15.405  14.842  0.1331 -0.1695 -0.3436
  599W        W 1463   8.318   3.933  10.778  0.1661 -0.0778 -0.2909
  600W        W 1464  19.492  17.267   3.418 -0.0770  0.0717  0.2603
  601W        W 1465  13.097  23.921   9.616 -0.2245  0.0650 -0.1864
  602W        W 1466  24.238  21.895  10.656  0.1532 -0.2541 -0.0714
  603W        W 1467  18.906  11.234   4.432  0.0440  0.1898 -0.0720
  604W        W 1468  17.654   5.162  15.589 -0.1448 -0.0109  0.1267
  605W        W 1469   7.368  28.744   7.434 -0.0014  0.0752  0.2036
  606W        W 1470   8.420  12.466  14.228 -0.3851  0.5753 -0.1429
  607W        W 1471   8.643   8.699  27.528  0.0227  0.0811 -0.1572
  608W        W 1472  21.493  27.507  11.310 -0.0323 -0.0619  0.0506
  609W        W 1473   1.241  19.081  15.215 -0.0147  0.1107  0.3890
  610W        W 1474  19.502  15.460   7.530 -0.0033  0.0767 -0.0208
  611W        W 1475  22.197  21.207  16.148  0.1769 -0.0050  0.0808
  612W        W 1476   3.282  15.666  16.157  0.2784  0.0080 -0.0203
  613W        W 1477   5.737   1.636   9.164  0.0135  0.0308 -0.2541
  614W        W 1478  17.970  27.953   2.839  0.0019 -0.0804  0.0801
  615W        W 1479   2.067  28.461  11.045 -0.0115 -0.0194 -0.0442
  616W        W 1480   3.208  29.018  19.814 -0.0778 -0.1849  0.2165
  617W        W 1481  20.452   0.243   2.504 -0.1539  0.0962 -0.1061
  618W        W 1482  10.168   8.400   7.264 -0.0589  0.1181 -0.1686
  619W        W 1483  23.699  28.593  26.319 -0.0360  0.2792  0.0823
  620W        W 1484  22.166  12.484  18.668  0.1405  0.2555  0.2954
  621W        W 1485  12.117  16.788  13.409 -0.0977 -0.1620 -0.0703
  622W        W 1486  12.972   2.638   2.442  0.1803 -0.0418  0.2452
  623W        W 1487  28.011   2.365  26.233  0.1093  0.0839  0.1574
  624W        W 1488  28.198  21.945  23.232  0.0271  0.2678 -0.1564
  625W        W 1489  27.987  15.871  19.804 -0.0872 -0.0817  0.2831
  626W        W 1490   8.471  24.835   0.639 -0.0328 -0.1477  0.1583
  627W        W 1491   6.521   5.815  15.297 -0.5034 -0.0172  0.0428
  628W        W 1492  16.934   5.968  27.833  0.2459 -0.1272  0.1470
  629W        W 1493  13.397   5.538  28.812  0.0707 -0.1463 -0.0722
  630W        W 1494   7.986  25.532  22.300 -0.1603  0.0976  0.3816
  631W        W 1495  15.059   1.431   3.602 -0.0346  0.1741  0.0454
  632W        W 1496   4.232  11.397   2.938 -0.0677  0.1815 -0.0715
  633W        W 1497   3.012  28.845  16.618  0.0806  0.0604  0.2659
  634W        W 1498  11.460  12.199  18.185  0.0880  0.0790  0.0921
  635W        W 1499  18.222  19.833   8.603  0.1569 -0.4514 -0.2089
  636W        W 1500  21.243   5.742  23.089  0.0300  0.0423  0.0615
  637W        W 1501   6.127   3.396  21.109  0.1672 -0.1657 -0.1439
  638W        W 1502  13.042   5.828  17.461  0.0220  0.0357  0.1848
  639W        W 1503   7.975  19.923   0.155 -0.3291 -0.3034  0.1620
  640W        W 1504  14.836   4.134   4.932  0.2886  0.2253 -0.0024
  641W        W 1505  24.683   5.990  28.497 -0.2741  0.0034  0.3914
  642W        W 1506  13.036  24.053  10.769 -0.1651  0.1727 -0.0673
  643W        W 1507   5.386  26.406  11.304 -0.0868  0.3672  0.0414
  644W        W 1508   4.525  15.907  17.000 -0.0336  0.1629 -0.0388
  645W        W 1509  22.201   7.949   6.548  0.3504  0.4843 -0.1582
  646W        W 1510   6.208  25.386  10.092  0.2189  0.0827 -0.1009
  647W        W 1511  14.959  22.865  18.248 -0.0004  0.2614  0.0915
  648W        W 1512  12.163  27.592  21.835  0.1051 -0.1683  0.0949
  649W        W 1513  24.940  28.425  22.537  0.0725 -0.0379  0.3067
  650W        W 1514  12.842  17.729   2.213  0.1881  0.2860  0.1706
  651W        W 1515  21.922  26.845  16.419 -0.1462  0.1028 -0.0303
  652W        W 1516  14.101  12.784   8.707  0.0071  0.2133  0.3706
  653W        W 1517  27.067  24.672  12.142 -0.3036  0.2304 -0.1152
  654W        W 1518   1.827  11.319   9.656 -0.1063 -0.1236  0.0822
  655W        W 1519   9.209  25.859  19.686 -0.0265 -0.3509  0.1348
  656W        W 1520   7.353  26.289  11.657 -0.0051  0.0311  0.0537
  657W        W 1521   7.685  23.471  22.329 -0.2042  0.0795  0.1586
  658W        W 1522  16.401   9.322  28.769  0.2230 -0.5353  0.2326
  659W        W 1523  18.491   8.660  21.083 -0.0855  0.2261  0.1474
  660W        W 1524  15.455  10.717  12.217  0.1831 -0.0332  0.0690
  661W        W 1525   1.941  15.084  20.285 -0.0550 -0.0765  0.0522
  662W        W 1526  22.774  20.031   9.650  0.2425 -0.0478  0.1784
  663W        W 1527  13.698  14.349  20.726  0.0098  0.1477  0.2190
  664W        W 1528  14.415  20.687  19.388  0.0961 -0.0823 -0.0477
  665W        W 1529   4.221   1.391   2.472  0.0937 -0.0558  0.2238
  666W        W 1530  12.479   2.284   7.938 -0.0296  0.0368  0.1520
  667W        W 1531  15.423  15.607  11.764 -0.0542  0.0723 -0.0930
  668W        W 1532   1.966   6.308  11.341 -0.1322 -0.1532 -0.0969
  669W        W 1533  16.775   1.226   2.913  0.0102 -0.0007 -0.0992
  670W        W 1534   4.430   0.548  24.843 -0.2537  0.2423 -0.3339
  671W        W 1535  10.590   9.754  25.327 -0.1762  0.2762  0.0102
  672W        W 1536  25.712   7.482  25.071 -0.2469 -0.1617  0.0096
  673W        W 1537  24.740  20.105  16.382  0.0312 -0.1098 -0.0974
  674W        W 1538   5.190  24.948   6.774  0.2647  0.0530 -0.2651
  675W        W 1539  15.532   1.683  12.200  0.1940  0.2272  0.1996
  676W        W 1540   7.564  25.346   0.727  0.0959  0.1203  0.3912
  677W        W 1541   1.594  11.518  17.965  0.0672  0.3905  0.0979
  678W        W 1542  27.058  13.008   0.754  0.1808 -0.0559  0.0776
  679W        W 1543  27.634  27.395  18.096  0.0108  0.1671 -0.1617
  680W        W 1544  26.184   7.829  11.658 -0.3139 -0.0758 -0.4042
  681W        W 1545  14.518  16.848  15.263  0.0978 -0.1343 -0.0429
  682W        W 1546   8.427  15.564  11.842 -0.5539 -0.0530  0.4080
  683W        W 1547   6.949   6.754  10.288  0.0017  0.0516  0.2710
  684W        W 1548   3.415   9.584  15.136 -0.2217 -0.1172  0.0922
  685W        W 1549  28.788  11.827  28.451 -0.1247  0.0575  0.1348
  686W        W 1550  19.699   2.787  18.756  0.0581  0.1327 -0.1834
  687W        W 1551  14.350   7.090  12.992  0.1801  0.0309 -0.2647
  688W        W 1552   9.300  28.801   8.307  0.1781  0.0054  0.1984
  689W        W 1553  17.051  26.565  16.770  0.3508 -0.0036 -0.0201
  690W        W 1554  23.865  16.463   5.046  0.0312  0.0511 -0.0651
  691W        W 1555  23.214  26.057  22.475 -0.0172 -0.1848 -0.1499
  692W        W 1556  14.638  24.917  13.251 -0.2771 -0.0529 -0.1549
  693W        W 1557  11.656  11.797  22.069  0.0856  0.0136 -0.2465
  694W        W 1558  18.162  20.565  15.319  0.3256  0.1420  0.1799
  695W        W 1559   5.548   1.708  14.384  0.0658  0.3825  0.0439
  696W        W 1560  17.675   8.951   0.383 -0.2390  0.0587 -0.2147
  697W        W 1561  18.885  20.191   3.739 -0.0846  0.0487 -0.0452
  698W        W 1562  14.880  23.563  11.498 -0.1704  0.1349  0.0593
  699W        W 1563  13.818  24.836  26.551  0.0592 -0.0883  0.1456
  700W        W 1564   1.629   0.068  13.753  0.0327 -0.1341 -0.6182
  701W        W 1565  11.657  15.270   0.032 -0.0069 -0.1609  0.0144
  702W        W 1566  11.845  16.274   9.655 -0.0762 -0.2557 -0.0729
  703W        W 1567  11.172  27.544   0.911 -0.2231 -0.0350 -0.0800
  704W        W 1568  10.899   7.223   1.548  0.2659  0.0252  0.2652
  705W        W 1569  11.248   8.474   6.870  0.3475  0.0086  0.1729
  706W        W 1570  17.939  19.269  14.645  0.1942 -0.2387  0.2496
  707W        W 1571  15.539  27.841   4.184 -0.0992  0.0809 -0.1005
  708W        W 1572  24.366  27.265  17.814  0.2001 -0.0598  0.0789
  709W        W 1573  13.726  19.305   9.092  0.4201 -0.3117  0.1688
  710W        W 1574  25.327  21.525  10.710  0.0015  0.0874  0.3092
  711W        W 1575  21.293  24.990  16.329  0.1411 -0.2757  0.1096
  712W        W 1576  12.722   3.989  13.575 -0.0180 -0.4294 -0.2860
  713W        W 1577  12.887   2.086  19.132 -0.0171  0.0254  0.0255
  714W        W 1578  24.863   0.206   7.074 -0.1218 -0.0211 -0.1380
  715W        W 1579  27.862  27.207  26.050 -0.0171  0.0911  0.0475
  716W        W 1580  19.649   0.237  16.285  0.0613  0.2171 -0.0656
  717W        W 1581   5.757  25.245   8.258  0.0674  0.1594  0.0338
  718W        W 1582  19.161   3.062  23.736 -0.2924  0.0193  0.2051
  719W        W 1583   0.140  27.182  10.253  0.1190 -0.0697 -0.0003
  720W        W 1584  21.554   3.836  18.705 -0.4371 -0.2156  0.1675
  721W        W 1585  22.821  20.353   8.139  0.4406 -0.1023 -0.1763
  722W        W 1586  24.938   5.148  11.407  0.2320  0.3359 -0.1227
  723W        W 1587  20.489  13.678   9.549  0.1556  0.1739  0.1127
  724W        W 1588  14.881  27.254   3.913  0.1185  0.1624  0.0871
  725W        W 1589   8.741  24.954   2.641 -0.0906  0.1216  0.1389
  726W        W 1590  29.139  23.019  21.628 -0.0055  0.1565 -0.1016
  727W        W 1591  24.628   7.657  22.391  0.2022  0.0783 -0.1256
  728W        W 1592  19.940  13.297   3.859 -0.1651  0.0066  0.1459
  729W        W 1593  26.496  20.039  25.966 -0.1784  0.1867  0.1963
  730W        W 1594  19.706   7.939  11.856  0.0643 -0.0497  0.1272
  731W        W 1595  25.339   0.718  17.587 -0.0179 -0.0425  0.0143
  732W        W 1596   5.022  24.709  12.167  0.0575  0.2183  0.1232
  733W        W 1597   8.634  15.539  16.908  0.4277 -0.0221  0.0514
  734W        W 1598  19.100   3.482  12.086  0.2269 -0.1246  0.0344
  735W        W 1599   2.024  23.790  22.159  0.1856  0.3720  0.1109
  736W        W 1600  22.014  26.028  17.799  0.1469 -0.2399  0.0467
  737W        W 1601  17.453   8.378   5.439 -0.0692 -0.1041  0.1253
  738W        W 1602  17.742  27.412  13.843 -0.1764  0.1947 -0.0475
  739W        W 1603  15.434   2.056  22.447  0.0253 -0.1099  0.1305
  740W        W 1604  20.191  21.911   5.430  0.1455 -0.1644  0.0102
  741W        W 1605   8.654   5.368  15.893 -0.2470  0.0071 -0.0927
  742W        W 1606  12.716  23.013  23.690  0.0203  0.0463 -0.0347
  743W        W 1607   5.931   5.760  19.401  0.0429  0.1704 -0.0971
  744W        W 1608  15.742  28.813  19.419 -0.1668 -0.1691 -0.3796
  745W        W 1609  19.420  17.251  24.691 -0.1048 -0.0504 -0.1233
  746W        W 1610  22.144   7.506  22.621 -0.1297 -0.0527  0.0480
  747W        W 1611   0.167  27.976  12.986 -0.3284 -0.0570 -0.0054
  748W        W 1612   5.834   4.629  21.959 -0.1156 -0.0703  0.1855
  749W        W 1613  26.012   1.027  18.310 -0.3647  0.3310 -0.1589
  750W        W 1614  16.279   3.252  15.010  0.0534  0.3296 -0.0379
  751W        W 1615  20.957   8.828  23.127  0.1695 -0.0742 -0.0697
  752W        W 1616   5.538   8.815  13.400  0.2619  0.2560  0.1076
  753W        W 1617  16.488  18.899  24.050 -0.3231 -0.0028 -0.1848
  754W        W 1618   9.214   3.109  11.011  0.0166  0.4958  0.1245
  755W        W 1619   0.437  23.381  11.166 -0.1730 -0.0319  0.1249
  756W        W 1620  28.294  25.058   6.883  0.0626 -0.1879  0.2015
  757W        W 1621  21.535  19.037   8.916  0.1137  0.2633 -0.1015
  758W        W 1622   4.120  24.782  24.914 -0.5701  0.1032  0.0334
  759W        W 1623  11.143   4.673  13.494  0.0802  0.4592  0.1719
  760W        W 1624  13.539  17.190  20.923  0.3106 -0.1508 -0.2851
  761W        W 1625  24.450  14.566   6.907  0.2154  0.0305  0.0742
  762W        W 1626   6.193  17.795   9.396 -0.1228  0.0377 -0.0932
  763W        W 1627  17.586  28.002   1.123 -0.0169  0.0514 -0.0550
  764W        W 1628  10.891  22.001  13.193  0.0613 -0.2665 -0.0461
  765W        W 1629   6.068   0.815   7.835 -0.0920 -0.1706 -0.3266
  766W        W 1630  18.638  20.632  16.360 -0.2124 -0.4463 -0.1612
  767W        W 1631  22.856  27.920   8.182  0.1627 -0.1810  0.1020
  768W        W 1632  20.109   7.380  20.264  0.1476 -0.3148  0.0113
  769W        W 1633  14.948   9.470  17.144 -0.0679 -0.0214  0.0578
  770W        W 1634  25.073  12.574   1.087  0.3117  0.2144  0.4501
  771W        W 1635  13.025   7.224   4.865  0.0970 -0.1463 -0.0845
  772W        W 1636  19.089  16.715  22.033  0.1724 -0.1940 -0.1122
  773W        W 1637  22.238  25.250   2.995 -0.3039  0.2526 -0.0194
  774W        W 1638   3.385   9.549  21.574  0.1463  0.0198 -0.3019
  775W        W 1639  18.779  20.630  22.999 -0.2015 -0.0921  0.2929
  776W        W 1640  14.381   8.672  12.792  0.0326 -0.1321  0.3181
  777W        W 1641   0.127  23.313   6.838  0.0153 -0.1953 -0.2006
  778W        W 1642   9.015  10.659  20.516 -0.0981  0.0322 -0.0619
  779W        W 1643  15.531  17.095  17.138 -0.0754  0.0293  0.0349
  780W        W 1644  14.854   1.678  11.026 -0.2120 -0.1764 -0.0983
  781W        W 1645   4.822  11.315  13.942 -0.0066  0.2476 -0.0716
  782W        W 1646   5.967  13.808  17.188  0.0783  0.2316  0.1850
  783W        W 1647  23.217   7.126  14.004 -0.0181  0.2033  0.0829
  784W        W 1648  12.295  20.888   6.780 -0.1254 -0.1901  0.0092
  785W        W 1649  28.389  20.505  15.219  0.3540 -0.5565  0.0099
  786W        W 1650  14.901  12.737  15.827 -0.3063 -0.1002 -0.0871
  787W        W 1651  19.874  27.654  25.672  0.1026  0.1183  0.0293
  788W        W 1652   9.084  20.997  13.357 -0.4938 -0.2356  0.3355
  789W        W 1653  15.954   3.414  19.250  0.1271  0.2450 -0.3088
  790W        W 1654  26.509  24.569  20.062  0.1131 -0.1631  0.1863
  791W        W 1655  10.021  24.748   3.778  0.0320 -0.3427  0.1077
  792W        W 1656  22.274  13.667  10.245 -0.0603  0.0935 -0.1428
  793W        W 1657  24.403   9.157  12.496  0.0857  0.0732  0.2217
  794W        W 1658  11.432  12.880   8.380  0.0030 -0.1934 -0.0680
  795W        W 1659   6.308   4.299   2.740  0.2538  0.0032  0.2953
  796W        W 1660   8.008   2.366   8.227 -0.0926 -0.0725  0.1416
  797W        W 1661   2.822  21.822   8.385  0.1045  0.0764  0.0048
  798W        W 1662  15.159   4.107  25.223  0.2001 -0.0490 -0.1918
  799W        W 1663   7.546  15.095   7.588 -0.0569 -0.0355 -0.3626
  800W        W 1664  14.961  25.493  22.941 -0.2125  0.0374  0.0596
  801W        W 1665  12.749  20.940   5.054 -0.2599 -0.1401  0.4312
  802W        W 1666  17.121  28.253   3.569 -0.1102 -0.0819 -0.1649
  803W        W 1667   8.698   5.828   9.200 -0.0309 -0.0679 -0.1159
  804W        W 1668  14.452   7.737  22.952  0.1260 -0.0182 -0.2148
  805W        W 1669  18.531   8.026   1.239  0.0548  0.1502 -0.1321
  806W        W 1670  11.191  14.663  11.711  0.0044 -0.3611  0.0105
  807W        W 1671  15.144   0.252  16.976 -0.1363 -0.3307 -0.0191
  808W        W 1672  24.010  16.973   8.973  0.2975 -0.0674 -0.1495
  809W        W 1673   4.237  24.239  16.861  0.0846 -0.1513 -0.0161
  810W        W 1674   0.780   0.172  25.780  0.5424 -0.1239  0.3100
  811W        W 1675  16.178  26.072  18.419  0.3706  0.0356 -0.0294
  812W        W 1676  24.356   0.258  19.327 -0.0060 -0.2461 -0.0243
  813W        W 1677  13.347  13.220  20.138  0.3766  0.0712 -0.1783
  814W        W 1678   8.338  12.341  23.430 -0.1314  0.0960  0.1117
  815W        W 1679  25.665   6.197  21.330  0.2438  0.0227 -0.1219
  816W        W 1680   4.451   5.201  23.463  0.1726 -0.0127 -0.2792
  817W        W 1681   6.535  25.124  14.266 -0.0009  0.1038 -0.1859
  818W        W 1682   3.480   7.444   2.502 -0.2401  0.1078 -0.0147
  819W        W 1683  27.374  29.003   3.368  0.2555 -0.1561 -0.2659
  820W        W 1684   1.021  27.421  13.882  0.1379  0.2116  0.3799
  821W        W 1685  10.364  19.756  17.921 -0.0349 -0.2087 -0.1617
  822W        W 1686   9.438   5.952  17.299  0.0998 -0.0512 -0.2140
  823W        W 1687   0.513   7.279  18.293 -0.0201  0.0782 -0.0883
  824W        W 1688  14.291  13.263  27.118 -0.2419  0.0652 -0.2622
  825W        W 1689  17.546  28.071  13.970 -0.0995 -0.0395 -0.1352
  826W        W 1690  24.743  23.073  20.338  0.0448  0.1769  0.0633
  827W        W 1691  10.943   4.637  10.861 -0.0063 -0.0628 -0.5011
  828W        W 1692   5.683   7.422   0.855  0.0444 -0.1293 -0.1264
  829W        W 1693  19.734  22.889   0.665  0.1171  0.1439 -0.1238
  830W        W 1694  27.796  25.448   5.796  0.1614 -0.0813  0.2176
  831W        W 1695  27.989  27.189  14.054  0.1054  0.0545 -0.2155
  832W        W 1696  13.275  16.181   5.095 -0.1084 -0.0233  0.1776
  833W        W 1697  21.474   0.824  19.653 -0.1110  0.0677  0.0977
  834W        W 1698  23.289   6.301  26.172  0.1197  0.0855 -0.0182
  835W        W 1699   3.912  11.408  21.994 -0.0734  0.2948 -0.2604
  836W        W 1700  25.805   3.406  20.328  0.2205  0.2003 -0.0318
  837W        W 1701   5.832  13.271  12.758  0.0455  0.1158  0.1662
  838W        W 1702  21.584  28.372  17.716  0.2544 -0.1773  0.0577
  839W        W 1703  24.351  20.315  16.577 -0.1278 -0.2384 -0.0069
  840W        W 1704  23.841  11.654  15.911 -0.3593  0.3157  0.0611
  841W        W 1705  23.776   0.297  27.183 -0.1961 -0.1603  0.1094
  842W        W 1706   0.072   3.352  28.880  0.1614 -0.2066 -0.0828
  843W        W 1707  21.975   1.104  13.407  0.1154 -0.1674  0.3059
  844W        W 1708  21.284  12.800  24.906  0.1348  0.0022 -0.3054
  845W        W 1709   2.530  12.946  10.968 -0.0455 -0.1807  0.3861
  846W        W 1710   2.420   0.552   6.036  0.1167  0.0225  0.0294
  847W        W 1711   9.652   5.885  14.910 -0.0454 -0.0014 -0.2380
  848W        W 1712  13.650  25.569   0.255 -0.2998 -0.0321 -0.0454
  849W        W 1713   7.872   6.752   9.622 -0.3203 -0.3583 -0.0175
  850W        W 1714   1.689   4.771   9.371  0.1399  0.0784 -0.3334
  851W        W 1715  19.097   4.077   5.191 -0.0320  0.1793 -0.0428
  852W        W 1716  20.486  15.985  15.803 -0.1832 -0.0274 -0.2412
  853W        W 1717  16.382   1.639  17.355 -0.3089  0.1049 -0.2171
  854W        W 1718   7.003   5.773  22.509  0.0115 -0.2429  0.0333
  855W        W 1719  25.171  29.016   3.962  0.1010 -0.2003 -0.1607
  856W        W 1720  12.072  23.982  10.826 -0.1635  0.0006 -0.0706
  857W        W 1721   7.811  15.992  12.332 -0.0301  0.3547 -0.3545
  858W        W 1722   8.238   9.526  12.413  0.1697  0.5303 -0.1111
  859W        W 1723  13.134   2.002  22.454  0.3440  0.3372  0.4129
  860W        W 1724   3.852   7.324  19.541  0.3047 -0.0767  0.2077
  861W        W 1725  28.729   1.021   3.340  0.2040  0.0529 -0.0208
  862W        W 1726  22.039  22.758   6.134  0.1241  0.0914 -0.0086
  863W        W 1727  26.881   9.475   5.531  0.0859 -0.0006 -0.0031
  864W        W 1728   9.737  23.946  11.863 -0.1424  0.1447 -0.0802
  865W        W 1729  14.470  11.854   3.703  0.2745 -0.0065  0.2716
  866W        W 1730  22.067  27.341   8.509  0.0238 -0.0433 -0.1020
  867W        W 1731   7.855   3.018  28.507 -0.1193 -0.2042  0.2082
  868W        W 1732   9.577   5.857   7.943  0.3073 -0.2775 -0.0449
  869W        W 1733   3.979  24.043  20.309 -0.0940  0.0130 -0.2168
  870W        W 1734  23.818  17.500  16.913 -0.2828 -0.2883 -0.1988
  871W        W 1735  27.487   4.807  18.987  0.0652 -0.0602  0.1056
  872W        W 1736  28.859   1.566   6.827  0.2055  0.0228 -0.1992
  873W        W 1737  28.248  27.717   6.294  0.0049 -0.0672  0.0997
  874W        W 1738  13.464   0.469  25.545  0.2184 -0.2945  0.0578
  875W        W 1739   9.606  22.833  17.424  0.0996  0.0474 -0.0351
  876W        W 1740   5.813  21.788   4.575 -0.1663  0.2411 -0.1225
  877W        W 1741  23.682   1.865  26.998  0.2518  0.1671 -0.2126
  878W        W 1742  10.452   5.521  19.562  0.0839 -0.3176  0.3922
  879W        W 1743  15.084  25.825  24.070  0.1752 -0.0215  0.3858
  880W        W 1744  26.707   2.289  19.395 -0.1640  0.1075  0.2451
  881W        W 1745   4.124  23.028  13.901  0.4260 -0.1151  0.0776
  882W        W 1746   5.685  21.698  10.195  0.0548  0.0650  0.0025
  883W        W 1747  15.504  22.777   4.841  0.1940  0.1435  0.0019
  884W        W 1748   1.599  25.968  28.629 -0.2223 -0.1648 -0.0933
  885W        W 1749   6.733  17.397  24.164 -0.3225 -0.2182  0.1583
  886W        W 1750   6.777  10.091   6.917 -0.0425  0.2654 -0.1479
  887W        W 1751  20.149   5.716   9.378  0.1327  0.2461  0.0345
  888W        W 1752   6.476  26.139  23.879  0.0604 -0.1717 -0.1815
  889W        W 1753  13.877  14.148   4.154 -0.0495  0.1406  0.1455
  890W        W 1754   2.071  27.083  21.501 -0.0206  0.1994  0.2229
  891W        W 1755   0.556   0.375  14.915  0.0696 -0.0314 -0.2781
  892W        W 1756  22.067  25.243  18.268  0.1734  0.4703  0.0120
  893W        W 1757  15.571  18.665  18.567 -0.1255  0.3343  0.0960
  894W        W 1758  24.990  16.255  12.008  0.1769 -0.0651 -0.1182
  895W        W 1759  11.659   8.204  12.348 -0.2833 -0.0433  0.0720
  896W        W 1760  28.857  18.886  19.317 -0.0981 -0.0642 -0.0594
  897W        W 1761   9.047   5.497  23.482 -0.0800 -0.0156  0.0402
  898W        W 1762  17.001   0.462  21.083  0.0370 -0.0527 -0.0950
  899W        W 1763  26.852   4.497  19.973 -0.0233 -0.3818  0.2171
  900W        W 1764  11.505  16.251  12.286 -0.0298 -0.2352  0.1503
  901W        W 1765  13.622  18.130   1.244  0.0572  0.4748 -0.2033
  902W        W 1766  18.031   0.038   3.447  0.3429 -0.2204 -0.1304
  903W        W 1767  16.801  22.819  16.873  0.1120 -0.0787  0.3122
  904W        W 1768   9.139  22.186   9.371 -0.0107 -0.0262 -0.1872
  905W        W 1769  14.896  11.316  11.507 -0.0525  0.0211 -0.0619
  906W        W 1770  16.330   2.079   4.695  0.0833 -0.2636 -0.0715
  907W        W 1771  18.655   7.263  14.733  0.1003 -0.2297  0.3424
  908W        W 1772  15.200   9.263   4.269  0.0543  0.0133  0.0386
  909W        W 1773  10.389  17.932  16.787 -0.2031 -0.2341  0.0513
  910W        W 1774   3.725  14.209  18.285 -0.0751 -0.0719  0.0512
  911W        W 1775   6.317  10.187  22.224  0.4466 -0.0842 -0.0515
  912W        W 1776   0.475  10.872   3.117 -0.0830 -0.1662 -0.2036
  913W        W 1777  18.047  17.247  15.034  0.3557 -0.0897 -0.1111
  914W        W 1778  29.108   0.442  10.960  0.1293  0.0497 -0.0639
  915W        W 1779  15.272  11.164   5.818 -0.1811  0.3763 -0.0054
  916W        W 1780  16.646  24.570  13.462 -0.0435  0.0202 -0.0632
  917W        W 1781   3.525  12.975  14.802  0.0176  0.0121  0.0693
  918W        W 1782  19.670   4.310  10.666 -0.1770 -0.3956  0.2645
  919W        W 1783  16.874  20.125  15.091 -0.0469 -0.0492 -0.1033
  920W        W 1784   6.835   7.416   1.748 -0.0878  0.2999  0.2920
  921W        W 1785   3.216  11.654  27.634 -0.1375  0.3068  0.1206
  922W        W 1786   5.490  21.532   1.439  0.0806  0.4137  0.2708
  923W        W 1787  16.855   4.648  16.956 -0.0605  0.3188 -0.2624
  924W        W 1788   3.071  18.120  22.049 -0.0429 -0.0183  0.3972
  925W        W 1789   2.889  13.920  27.606 -0.0342 -0.3037  0.2361
  926W        W 1790  20.645  19.034   2.636  0.2713  0.0294 -0.0118
  927W        W 1791  16.631  22.493  13.108 -0.0638 -0.1859 -0.1236
  928W        W 1792   6.353  21.680  18.400  0.2891 -0.2478  0.1520
  929W        W 1793   0.136  27.938  21.097 -0.1352 -0.0515  0.0659
  930W        W 1794  16.825  23.909  15.486 -0.1224 -0.2312  0.1892
  931W        W 1795  21.543  12.027  26.964 -0.1021 -0.2205  0.1367
  932W        W 1796  22.211  28.057  15.708  0.1864 -0.0027  0.1246
  933W        W 1797  13.507  15.988  13.286 -0.1211  0.2593  0.0426
  934W        W 1798  13.646   9.491   7.557  0.0178  0.0426  0.1431
  935W        W 1799   3.510  18.461   3.684  0.0989 -0.2442  0.1376
  936W        W 1800  14.686  13.327  17.656 -0.0654 -0.1876  0.0311
  937W        W 1801   8.185  25.401   6.447 -0.1186 -0.2605  0.1441
  938W        W 1802  15.504  19.879  22.026  0.1983 -0.1072 -0.1689
  939W        W 1803  18.314   2.318   9.178 -0.0593  0.0883  0.2183
  940W        W 1804  19.232   6.745   1.573  0.1557  0.4725  0.4734
  941W        W 1805  28.776   0.199   9.444  0.4083  0.0177 -0.1702
  942W        W 1806   6.263  24.212  14.602  0.1418  0.0595 -0.1741
  943W        W 1807  13.010  27.736  24.509  0.0350  0.0678 -0.1069
  944W        W 1808  22.671   3.692  16.643 -0.0572  0.1811 -0.0496
  945W        W 1809   0.130   1.710   1.105  0.0368 -0.2463  0.3719
  946W        W 1810  28.657   5.935  22.708 -0.1457  0.0879 -0.1307
  947W        W 1811  12.093  15.198  25.272 -0.0335  0.1124  0.0374
  948W        W 1812  25.988   4.929  21.771  0.4351  0.3695 -0.0039
  949W        W 1813  19.241  19.950  26.832  0.0805 -0.2041 -0.0340
  950W        W 1814  14.428  26.391  18.619 -0.0776  0.1405  0.2636
  951W        W 1815  22.173  22.040  26.351  0.1868 -0.3145  0.1368
  952W        W 1816   7.824  24.721  22.637  0.3535  0.0048  0.1121
  953W        W 1817  22.513   6.360  17.287 -0.1362 -0.1647  0.0542
  954W        W 1818  19.871  28.238  27.250 -0.3563  0.1677  0.2015
  955W        W 1819  13.611  20.794   5.285 -0.3656 -0.0378  0.3652
  956W        W 1820  11.764  25.262  21.958 -0.0752  0.1785  0.3121
  957W        W 1821   6.864  17.860  22.819 -0.1557  0.1497 -0.2342
  958W        W 1822   4.305   4.973   1.845  0.2643 -0.0110 -0.1934
  959W        W 1823  19.226  15.672  19.017  0.0001 -0.1301  0.1415
  960W        W 1824   4.682   0.720  24.134 -0.0616 -0.1510 -0.0138
  961W        W 1825  12.499  28.740  16.762  0.3213 -0.1286 -0.1131
  962W        W 1826  15.730   4.629  19.761 -0.1615  0.0149 -0.4170
  963W        W 1827   6.825  12.723  20.910  0.3011  0.3488  0.2483
  964W        W 1828  17.854  19.503   7.490 -0.0627 -0.3668 -0.0833
  965W        W 1829   6.382  12.517  20.501  0.0206  0.1326 -0.4224
  966W        W 1830  14.430  25.201   7.064  0.1343 -0.2375  0.1763
  967W        W 1831  25.494  23.973  15.160  0.2417 -0.0464  0.1480
  968W        W 1832   4.974  23.527  20.371  0.0925 -0.2482 -0.1677
  969W        W 1833  17.900  28.982  16.838 -0.1135 -0.1739 -0.2572
  970W        W 1834  14.656   5.621   2.867 -0.1353 -0.1120  0.0089
  971W        W 1835  10.019  26.474  24.064 -0.0819  0.0174 -0.2291
  972W        W 1836  18.698  22.829  12.687 -0.0040  0.2432 -0.2008
  973W        W 1837  10.596   7.473  19.572  0.1549 -0.2955  0.0379
  974W        W 1838  24.508  15.876  20.110 -0.0959 -0.1404 -0.0136
  975W        W 1839  13.913  13.292   2.043 -0.0114 -0.0886  0.0769
  976W        W 1840  16.855   8.756  21.701 -0.3115 -0.2030 -0.0823
  977W        W 1841   9.565  25.492  19.710 -0.2322 -0.0168  0.0126
  978W        W 1842  19.719  27.066   4.224 -0.1127  0.3876  0.1764
  979W        W 1843   2.140  13.977  18.832  0.0025  0.1514 -0.4354
  980W        W 1844   1.317  16.352  17.100 -0.0788 -0.2274  0.1342
  981W        W 1845   0.248  26.659   6.093 -0.3851  0.0627 -0.0984
  982W        W 1846  26.456  11.535  18.054  0.1780  0.1774 -0.1039
  983W        W 1847   1.145  26.883  15.550 -0.2262  0.0019 -0.2941
  984W        W 1848  13.169  28.121  21.613  0.0524  0.0038  0.0319
  985W        W 1849   4.025  13.644  18.767 -0.1830  0.1308  0.2602
  986W        W 1850   9.935  25.128  17.963 -0.2163  0.0024  0.0653
  987W        W 1851   4.567  24.689  17.285 -0.0308 -0.1067 -0.1367
  988W        W 1852  14.200   8.316  16.937 -0.0838 -0.0823  0.0993
  989W        W 1853  13.004  26.533  16.811 -0.1788 -0.1182  0.0469
  990W        W 1854   8.802   2.016  23.383 -0.1805  0.0803 -0.1950
  991W        W 1855  25.013   9.209  12.024 -0.1839  0.0715  0.2151
  992W        W 1856  23.324  16.817  27.797 -0.0327  0.0626 -0.2179
  993W        W 1857  11.965   6.425   3.552 -0.0554 -0.2185  0.1202
  994W        W 1858   8.741  11.661  17.895 -0.1416  0.0854 -0.1704
  995W        W 1859  17.661  26.187  19.042  0.1855 -0.4504  0.0658
  996W        W 1860   5.703  20.360  15.373 -0.1412  0.0027 -0.1069
  997W        W 1861  18.119   0.854  18.772 -0.1798  0.1320  0.0478
  998W        W 1862  14.842   9.242   5.655 -0.2436 -0.2789  0.2894
  999W        W 1863  17.877  20.264  28.011  0.1222  0.1627  0.0183
 1000W        W 1864  11.510  16.639  24.822 -0.0839 -0.1415  0.0608
 1001W        W 1865  11.341  25.476  21.032 -0.0163  0.3331  0.1120
 1002W        W 1866   6.813  24.402   7.454  0.2621  0.0628  0.0021
 1003W        W 1867   6.887  16.242  27.065  0.1452  0.1435 -0.1221
 1004W        W 1868  17.238  13.722  25.588  0.0602 -0.0131  0.0978
 1005W        W 1869   9.483  28.902  16.222 -0.0187  0.0017 -0.2251
 1006W        W 1870  11.071  10.821  10.772  0.0414 -0.2179  0.1621
 1007W        W 1871   9.118   1.287  17.923 -0.0667 -0.0057  0.1454
 1008W        W 1872   9.163  23.796  17.120 -0.0874  0.2719  0.1924
 1009W        W 1873  15.346   3.958  22.312  0.0435 -0.1074  0.0643
 1010W        W 1874   3.846  22.604  23.056 -0.0538 -0.1561  0.1256
 1011W        W 1875  23.351   7.314   3.242  0.0517  0.0418  0.0829
 1012W        W 1876  27.284   6.403  27.202 -0.4013  0.1319  0.0596
 1013W        W 1877  25.413  21.578  22.558  0.0428 -0.1465 -0.0509
 1014W        W 1878   2.363  28.622  28.363 -0.0804 -0.0373 -0.0099
 1015W        W 1879  15.129  16.762  21.552 -0.2642  0.1269 -0.0796
 1016W        W 1880   4.039  22.511  23.533 -0.2653  0.0440  0.2854
 1017W        W 1881  12.069   8.168   9.403 -0.1748  0.4102 -0.0936
 1018W        W 1882   6.638   0.923   3.118  0.0282  0.5013 -0.1651
 1019W        W 1883  23.553  23.663  23.313 -0.1929  0.1248  0.3443
 1020W        W 1884   9.891  15.743   4.314 -0.2705  0.1033  0.4311
 1021W        W 1885  10.245  28.723  18.864 -0.2182 -0.1281 -0.0453
 1022W        W 1886   3.719  12.966  20.318  0.1236 -0.0160  0.2025
 1023W        W 1887  17.683  21.715  16.351 -0.1914 -0.2154 -0.0942
 1024W        W 1888   2.809  17.263  21.174  0.3092 -0.0993  0.0568
 1025W        W 1889   4.194  22.837  17.249 -0.1291  0.1639 -0.2275
 1026W        W 1890  17.674   8.699  17.472  0.2104 -0.0067 -0.1167
 1027W        W 1891  17.557  11.950  10.526  0.0180  0.2202  0.1368
 1028W        W 1892   9.734  15.548  20.879  0.1976  0.1968  0.2394
 1029W        W 1893  16.326   3.592  16.280  0.1190 -0.2303  0.3287
 1030W        W 1894  17.596  26.521   3.452  0.1612  0.1299  0.1266
 1031W        W 1895  18.897   4.986  14.345  0.2279 -0.1884 -0.2690
 1032W        W 1896  21.455  20.140   4.599  0.3268  0.1479 -0.1146
 1033W        W 1897  23.359  25.576   8.276 -0.2348 -0.0134  0.1127
 1034W        W 1898   8.884  16.166  27.575  0.0584 -0.2939  0.2386
 1035W        W 1899  20.623  22.583  21.225  0.0492 -0.0309 -0.3557
 1036W        W 1900   7.961  28.886  13.310 -0.1761  0.1437 -0.2360
 1037W        W 1901  13.375  29.045   3.442  0.1271 -0.1823  0.3007
 1038W        W 1902   9.681  28.719  17.464  0.2411  0.0439 -0.1470
 1039W        W 1903   5.443  16.616  11.333  0.1047  0.1789  0.0786
 1040W        W 1904  16.046   8.519  16.116 -0.0995  0.1968  0.0600
 1041W        W 1905  18.823   1.409  12.000 -0.0036 -0.0722 -0.1810
 1042W        W 1906  21.156  18.462  23.353  0.0061 -0.1526 -0.0723
 1043W        W 1907   1.554  22.035  28.588 -0.0030 -0.0970 -0.2260
 1044W        W 1908  26.960   1.286   8.551  0.0491 -0.1142  0.4775
 1045W        W 1909   6.194  19.905   7.854  0.0870 -0.1845  0.1312
 1046W        W 1910   9.138  25.975  17.538  0.3557 -0.1259  0.2316
 1047W        W 1911  15.859   2.920  26.565  0.2787  0.2988  0.1613
 1048W        W 1912  23.182   5.531   0.089 -0.1637 -0.1275  0.0115
 1049W        W 1913   6.993  18.872   8.383 -0.1866  0.1490 -0.0117
 1050W        W 1914  14.468  21.724  26.141  0.1438  0.4075  0.2765
 1051W        W 1915   8.354  15.710  13.559 -0.0536  0.3364  0.1023
 1052W        W 1916  14.597  27.184   0.272  0.0776  0.0076  0.1616
 1053W        W 1917   0.433   1.220  17.871 -0.0736  0.1515  0.1226
 1054W        W 1918   3.633  24.567   7.355 -0.0219  0.3099  0.0817
 1055W        W 1919  28.412   6.708  22.577  0.2547  0.0658 -0.0862
 1056W        W 1920  14.497  20.559  25.391 -0.1069  0.1632 -0.3911
 1057W        W 1921   6.115  26.473  28.894 -0.2933 -0.2242  0.1833
 1058W        W 1922  19.634   5.469   5.773  0.3019 -0.0691  0.2738
 1059W        W 1923  17.743   6.679   6.792  0.0467 -0.1827 -0.0651
 1060W        W 1924  22.253  25.679  19.394  0.1916  0.0059 -0.1961
 1061W        W 1925  13.997  21.734  17.697 -0.1517 -0.0671 -0.4465
 1062W        W 1926   5.638   4.236   4.824 -0.0445  0.2505  0.1562
 1063W        W 1927  22.263  21.911  14.706 -0.0495  0.0706 -0.0394
 1064W        W 1928   0.199   0.578  21.006 -0.0324 -0.3807  0.1787
 1065W        W 1929  22.337   0.759  22.599 -0.0312 -0.1681  0.1931
 1066W        W 1930  20.452   4.000  24.245 -0.0133 -0.1132 -0.0539
 1067W        W 1931   6.801  25.543  25.966 -0.1238  0.3200 -0.3546
 1068W        W 1932   6.790  25.362   8.968 -0.2447  0.0897 -0.0095
 1069W        W 1933  24.782  10.408  24.973  0.0737  0.4372 -0.0431
 1070W        W 1934   7.303  21.526   5.965  0.2489 -0.1288  0.1359
 1071W        W 1935  23.265  10.253  28.096  0.3109  0.2123 -0.1441
 1072W        W 1936  26.745  22.988  25.593 -0.1138  0.0596  0.1457
 1073W        W 1937  23.273   1.495   2.595  0.0365 -0.1758  0.1171
 1074W        W 1938   4.322  21.698   8.324 -0.1121  0.2922 -0.0817
 1075W        W 1939   5.865  21.851  19.134 -0.0675 -0.0043 -0.3198
 1076W        W 1940  22.075  12.730  14.994 -0.0384 -0.0680  0.2009
 1077W        W 1941   4.383  17.044  25.395 -0.4315  0.3263 -0.1962
 1078W        W 1942   8.996  20.145  12.459 -0.0328 -0.0423  0.0945
 1079W        W 1943  23.214  17.589  12.926 -0.1725  0.0276  0.2134
 1080W        W 1944  20.019  17.968  20.931  0.1275  0.1728 -0.1890
 1081W        W 1945  14.183  26.850  18.675 -0.0616 -0.3113  0.0961
 1082W        W 1946   6.684  18.566   5.076 -0.0377 -0.1497  0.0494
 1083W        W 1947  18.339   7.287  18.516 -0.1268 -0.0573 -0.2521
 1084W        W 1948  22.538  26.676  13.299  0.3512  0.0063  0.0775
 1085W        W 1949  22.516   9.035  27.801  0.3382 -0.0099 -0.0709
 1086W        W 1950   7.238  26.639  16.729 -0.1486  0.0365 -0.4733
 1087W        W 1951  10.081  13.704  19.662  0.4144 -0.0108 -0.2578
 1088W        W 1952  26.104   5.235  12.206 -0.1389  0.2937  0.1133
 1089W        W 1953  18.376   1.720  20.347  0.0746  0.2843  0.1126
 1090W        W 1954  14.066  22.796  23.336 -0.0013 -0.2049  0.1591
 1091W        W 1955   9.861   9.662  17.247 -0.4631 -0.4437  0.0612
 1092W        W 1956   5.910  18.315   6.992 -0.1581  0.1008  0.2964
 1093W        W 1957  28.208  18.701  10.570  0.0279 -0.0211 -0.1616
 1094W        W 1958  18.533   9.424  18.701 -0.0610  0.2865 -0.0950
 1095W        W 1959   7.944  18.685  12.436  0.2467 -0.2414 -0.1669
 1096W        W 1960   4.244  27.793  17.655  0.0038  0.1245 -0.3707
 1097W        W 1961   4.547   6.216  27.075  0.1213  0.0590  0.2314
 1098W        W 1962  11.444  17.906  15.247  0.2160  0.2639 -0.0972
 1099W        W 1963  24.408  20.391   3.290  0.2926 -0.3468 -0.1479
 1100W        W 1964  14.287   1.743   0.572 -0.3163  0.1020 -0.1375
 1101W        W 1965   2.577  17.541  11.142  0.4168 -0.0412  0.2936
 1102W        W 1966  24.199  24.866   2.481  0.2098  0.0186 -0.0079
 1103W        W 1967  19.951   1.888  28.383  0.1584  0.3287  0.0472
 1104W        W 1968   1.405  13.141  14.423  0.2201 -0.2909 -0.1519
 1105W        W 1969   7.631  25.480   3.839 -0.0347 -0.2089  0.0284
 1106W        W 1970  13.912   9.919  18.307 -0.1046  0.2646 -0.1660
 1107W        W 1971  22.300  23.364  21.237  0.0222 -0.0610 -0.0337
 1108W        W 1972  23.710   5.480  12.664  0.0299  0.1136  0.0699
 1109W        W 1973  24.702  22.929  12.110 -0.0085 -0.0346  0.0046
 1110W        W 1974   1.640  17.854   0.343  0.0704 -0.0448  0.0697
 1111W        W 1975  10.348   4.750  11.876  0.1040  0.0640 -0.1418
 1112W        W 1976  12.216  17.829  14.645 -0.7018  0.0755 -0.3414
 1113W        W 1977   7.414  11.720  16.145  0.1554 -0.2740  0.3492
 1114W        W 1978  22.765  11.047  27.771 -0.1814 -0.2453  0.0661
 1115W        W 1979   2.269  17.142  26.118  0.0889  0.0701 -0.2622
 1116W        W 1980  28.524   9.688   4.044  0.1845  0.0624  0.1382
 1117W        W 1981  22.179  17.358  27.443 -0.2181 -0.1685  0.0227
 1118W        W 1982  19.091  24.279   1.790  0.0803 -0.0355  0.0576
 1119W        W 1983   9.637  27.789   8.968  0.4808  0.0497 -0.1270
 1120W        W 1984  26.336   5.835  23.846 -0.0169  0.3514 -0.3104
 1121W        W 1985   7.623   3.282   4.720  0.0864 -0.0643  0.1499
 1122W        W 1986   2.352   1.251   5.588  0.3483 -0.1335 -0.2036
 1123W        W 1987  15.981   3.466  12.305 -0.0310  0.2618 -0.1774
 1124W        W 1988   3.010  25.243   6.135  0.0733 -0.0649 -0.0440
 1125W        W 1989  27.008  27.631  24.125 -0.0984 -0.0529 -0.1698
 1126W        W 1990   3.669   5.687  12.472  0.1379  0.2556  0.1237
 1127W        W 1991  17.599  13.618  20.868 -0.0992  0.0731  0.1914
 1128W        W 1992  16.915  15.159  23.401  0.5014 -0.1336 -0.1029
 1129W        W 1993   4.465  15.456  15.472  0.2409  0.3834  0.0541
 1130W        W 1994   2.977  18.332  28.343  0.0203 -0.0183 -0.0746
 1131W        W 1995  13.610  24.263   6.472 -0.1046  0.4294 -0.0061
 1132W        W 1996  28.124  28.586   3.432 -0.1690  0.2024  0.1459
 1133W        W 1997  13.426  24.005  17.434 -0.0216  0.3989 -0.3711
 1134W        W 1998   9.926  23.768  27.483 -0.0326 -0.1688  0.1761
 1135W        W 1999  25.802  24.055  16.513  0.0188 -0.1851  0.0682
 1136W        W 2000  18.387   2.424   8.716 -0.2207 -0.1095 -0.2025
 1137W        W 2001  21.728   6.491  10.364 -0.1431 -0.0435  0.0162
 1138W        W 2002   5.941   8.985   8.117 -0.2137  0.3572 -0.1195
 1139W        W 2003   1.958   0.697   0.756  0.0414  0.1690  0.0729
 1140W        W 2004   6.126  12.735  11.186 -0.0310  0.0339  0.0217
 1141W        W 2005  16.445  27.054  24.978  0.1813  0.0240 -0.0605
 1142W        W 2006  22.868   0.622  28.650 -0.1076 -0.2224  0.1281
 1143W        W 2007  13.335  11.536  10.667  0.3211  0.1002 -0.2419
 1144W        W 2008   3.989  27.854  23.642 -0.6113 -0.0460  0.4410
 1145W        W 2009  12.409  24.759   2.377  0.0629  0.1151  0.0280
 1146W        W 2010  17.128  16.527   3.971  0.1158  0.1494  0.1170
 1147W        W 2011   6.484   0.051  27.431 -0.2828  0.1005 -0.1201
 1148W        W 2012   5.753  10.261  11.495 -0.0262 -0.3053  0.0616
 1149W        W 2013   8.218  25.530  11.445  0.1267  0.0372 -0.0238
 1150W        W 2014  14.782  26.015  18.902 -0.0385  0.0507  0.1697
 1151W        W 2015   7.189   5.452  25.511 -0.3855 -0.0213 -0.1163
 1152W        W 2016   6.241   0.853  26.412 -0.0517  0.0590 -0.3622
 1153W        W 2017   4.428   4.349   2.565  0.1911  0.4818 -0.2359
 1154W        W 2018  22.499  17.347  19.366 -0.2264 -0.1134 -0.4058
 1155W        W 2019  11.173  24.188  10.026  0.0704 -0.0929  0.1534
 1156W        W 2020   7.475  18.311   2.141 -0.2637 -0.0744 -0.1521
 1157W        W 2021  16.140  16.090  25.890 -0.0469  0.0019  0.1089
 1158W        W 2022  20.550  15.669  28.931 -0.5516 -0.2096  0.4347
 1159W        W 2023  14.636   2.825   2.430  0.2172 -0.1519  0.0231
 1160W        W 2024  10.560  13.063   8.656  0.1829  0.2192 -0.1847
 1161W        W 2025  20.293   2.905   2.515  0.2603  0.0031  0.3197
 1162W        W 2026  24.122  20.130  22.933  0.4807 -0.4214 -0.1270
 1163W        W 2027  15.406  17.988  17.372 -0.0436 -0.2534  0.1617
 1164W        W 2028  29.055  23.457  27.869 -0.2103 -0.2836  0.1209
 1165W        W 2029  24.215  16.513   9.193  0.4453 -0.2260  0.0043
 1166W        W 2030   8.628   2.651  13.599  0.1828 -0.0797  0.0662
 1167W        W 2031   0.236  25.853  23.620 -0.1023  0.0739 -0.1708
 1168W        W 2032  15.953  16.729  11.853  0.0381 -0.0364 -0.0731
 1169W        W 2033   4.278  13.296  16.568 -0.1144 -0.0502  0.0808
 1170W        W 2034  12.403  25.570   5.447 -0.0056  0.0766 -0.3801
 1171W        W 2035  11.630  19.967  16.329  0.1782  0.0514 -0.3257
 1172W        W 2036  14.660  26.877  26.334  0.0366 -0.0798  0.1535
 1173W        W 2037  14.715  11.056  22.220 -0.2238  0.0609  0.1518
 1174W        W 2038  11.133  28.091  27.509  0.0814  0.1853 -0.0465
 1175W        W 2039  11.948   5.225  26.213 -0.0130  0.0251 -0.2751
 1176W        W 2040  16.963  10.019   4.466 -0.1159  0.1023 -0.2135
 1177W        W 2041  14.670   1.298  14.544  0.0844 -0.1433  0.2751
 1178W        W 2042  12.892  21.583  24.181 -0.0229  0.0508 -0.1588
 1179W        W 2043   8.159  22.858  27.614 -0.0017  0.1052 -0.1779
 1180W        W 2044  15.510  28.054   7.921 -0.1496 -0.4039  0.1128
 1181W        W 2045   5.964  20.466   6.576  0.1784  0.2652 -0.0938
 1182W        W 2046   9.862   6.202  11.273 -0.0185  0.0222  0.0363
 1183W        W 2047  11.286  14.871  23.151 -0.2397  0.1999  0.0947
 1184W        W 2048  16.545  24.378  27.196  0.1410 -0.2001 -0.0141
 1185W        W 2049   3.899  26.041  13.636 -0.0145 -0.1869  0.1545
 1186W        W 2050  28.240  24.655  23.414  0.2347 -0.2463 -0.1783
 1187W        W 2051  21.815   3.190   8.442  0.1059 -0.0290 -0.0409
 1188W        W 2052  14.596  15.383  21.188  0.2458  0.1879 -0.1424
 1189W        W 2053  21.112  10.709  19.919 -0.2354  0.1272 -0.0767
 1190W        W 2054   2.801  19.496   8.655 -0.0676  0.2157  0.0860
 1191W        W 2055   4.551  24.238   6.345 -0.0765 -0.0217  0.0485
 1192W        W 2056   4.362  28.191  17.452 -0.0025 -0.0584 -0.0785
 1193W        W 2057   4.327  14.275  10.022  0.3334  0.0263  0.3080
 1194W        W 2058  22.439  12.073  17.377 -0.0103  0.1927 -0.0031
 1195W        W 2059  17.542  12.939  18.281 -0.1501 -0.1122 -0.1851
 1196W        W 2060   5.078   0.446  18.929  0.1164 -0.1643 -0.0888
 1197W        W 2061  13.068   9.321  28.396  0.0875  0.0942 -0.2626
 1198W        W 2062  20.808   0.119   5.480  0.3708  0.4075  0.0196
 1199W        W 2063  26.404   5.916  19.775  0.0476  0.3009  0.2037
 1200W        W 2064  12.470  20.912  14.512 -0.1921  0.0031  0.0655
 1201W        W 2065   7.161   1.489  19.920 -0.2314 -0.1127 -0.0738
 1202W        W 2066   8.960   9.173  23.003 -0.1416  0.2047  0.0192
 1203W        W 2067  20.640  28.642  24.071 -0.0147 -0.3403  0.0186
 1204W        W 2068   9.125  20.924  24.776 -0.1790  0.1015  0.1348
 1205W        W 2069   8.210  13.355  20.601 -0.0177  0.1644 -0.1242
 1206W        W 2070  24.808   5.177  25.246 -0.0545  0.0680 -0.1898
 1207W        W 2071   5.926  23.094   4.169  0.1277  0.0404 -0.0422
 1208W        W 2072   4.637   4.787   8.928 -0.0462 -0.1457 -0.1938
 1209W        W 2073  14.829   6.266   3.893  0.1751  0.3010 -0.0510
 1210W        W 2074   7.532   8.937  13.280 -0.3326 -0.1278  0.0444
 1211W        W 2075  10.879  14.911  24.168 -0.0870 -0.0497 -0.1761
 1212W        W 2076  14.374  26.233  21.588  0.0559  0.0179  0.0856
 1213W        W 2077  13.015  14.177  10.486  0.0909  0.0436 -0.0835
 1214W        W 2078   9.831   4.008  13.172 -0.1886 -0.2041  0.0809
 1215W        W 2079  19.403  23.997  11.593 -0.1093  0.0411 -0.0119
 1216W        W 2080  17.984   8.307  26.370  0.1307  0.1461 -0.1327
 1217W        W 2081  27.411   7.226  20.382  0.1263 -0.0882  0.1730
 1218W        W 2082   3.765  19.547  11.544 -0.2108 -0.1293 -0.1216
 1219W        W 2083  11.655  24.452  20.333 -0.1064 -0.1022  0.0775
 1220W        W 2084   6.976  24.576  20.697  0.1956  0.0113  0.1551
 1221W        W 2085   8.308  13.169   7.208  0.0631 -0.0661 -0.2094
 1222W        W 2086  14.180  14.245   1.977  0.4706 -0.2274 -0.0669
 1223W        W 2087   0.971  26.267   1.108  0.2846 -0.0560 -0.1660
 1224W        W 2088   1.871   2.012  19.344  0.2031 -0.2075  0.2042
 1225W        W 2089  20.941  16.368  20.229 -0.0780  0.1471 -0.2809
 1226W        W 2090  16.600  21.728  28.447  0.1533  0.2540 -0.3562
 1227W        W 2091  14.963  16.707   6.961  0.1929 -0.1833 -0.0917
 1228W        W 2092  19.088  13.278  14.491  0.0419  0.0772 -0.0623
 1229W        W 2093  28.948  14.160   5.498  0.1227 -0.0957  0.1069
 1230W        W 2094  20.571  25.617  22.937 -0.0022 -0.1606  0.0958
 1231W        W 2095  13.024  27.194  21.461 -0.1564 -0.1162  0.0278
 1232W        W 2096  17.692  15.407  24.703  0.2269 -0.0411 -0.1014
 1233W        W 2097  15.501   2.375  19.322 -0.1794  0.1483  0.0738
 1234W        W 2098   4.010  10.944  14.701  0.4234 -0.1479 -0.0402
 1235W        W 2099  15.859  22.086  14.642 -0.0750 -0.0927 -0.2495
 1236W        W 2100  18.553  28.617  20.714 -0.1389 -0.3277  0.1736
 1237W        W 2101  12.803  27.498  20.484  0.1316 -0.2203  0.2056
 1238W        W 2102  19.910   2.097  17.121 -0.1486 -0.1508 -0.0040
 1239W        W 2103   6.056   5.313  28.211 -0.1352  0.0652  0.0358
 1240W        W 2104   2.589  13.286  20.132 -0.2675  0.0124  0.1629
 1241W        W 2105   2.585  19.619  24.553  0.2154  0.4494 -0.0295
 1242W        W 2106   5.879  22.461   3.269  0.2770 -0.0400  0.0368
 1243W        W 2107  21.217  15.733  15.460 -0.0891  0.0037  0.0239
 1244W        W 2108   8.382  12.918   8.895  0.0153  0.1225 -0.0102
 1245W        W 2109  13.170  21.329  13.485  0.0967  0.2057  0.0625
 1246W        W 2110  14.232   8.589  25.001  0.1511  0.0608  0.1469
 1247W        W 2111  24.660  18.573  13.777 -0.2968 -0.0628 -0.1228
 1248W        W 2112   4.386  25.554   3.258  0.1610  0.0087 -0.1580
 1249W        W 2113   8.965  19.229  25.350 -0.1408 -0.0170 -0.2504
 1250W        W 2114  12.054  27.685  27.021  0.0318 -0.0764 -0.0447
 1251W        W 2115   3.379  10.241  12.847  0.0537 -0.0363 -0.0018
 1252W        W 2116   1.248  22.276  21.612  0.0417 -0.0227  0.1552
 1253W        W 2117   9.066   8.146  22.135  0.0889  0.0565 -0.0414
 1254W        W 2118  17.736   8.947  10.797  0.1721  0.2641  0.0310
 1255W        W 2119  10.889   7.162  19.914 -0.0341  0.2282  0.1865
 1256W        W 2120  15.508   1.491   3.238  0.4273 -0.0941  0.1423
 1257W        W 2121   2.486   1.195  27.063 -0.0202 -0.0698 -0.2080
 1258W        W 2122  18.699   5.399   3.750  0.1320  0.2007  0.0659
 1259W        W 2123   4.472   2.037  22.896  0.0369 -0.1285 -0.0475
 1260W        W 2124   5.881  27.522   0.104  0.0537 -0.0705 -0.3375
 1261W        W 2125  25.080   8.855   8.574 -0.1611  0.2302  0.0817
 1262W        W 2126   5.464  23.499   9.393  0.0766 -0.1457  0.0601
 1263W        W 2127  24.376  19.972   2.862 -0.1243 -0.1318  0.0217
 1264W        W 2128   2.191   8.693  12.296  0.0099  0.2028 -0.3738
 1265W        W 2129  16.010  12.634   2.524 -0.0096  0.2931  0.0036
 1266W        W 2130   3.252  25.270  13.478 -0.0039  0.1459 -0.0098
 1267W        W 2131  15.722  24.584  28.080  0.2292 -0.2044 -0.0287
 1268W        W 2132  18.951   4.465   5.499 -0.1798 -0.1192 -0.1142
 1269W        W 2133   2.731   7.131  21.762 -0.0385 -0.0163  0.0485
 1270W        W 2134   9.401  17.901  23.354 -0.0422 -0.1940  0.1188
 1271W        W 2135  12.113  10.729  14.746  0.0198 -0.4377 -0.2709
 1272W        W 2136   3.806   1.159   0.056  0.0840 -0.0230 -0.1667
 1273W        W 2137   4.901  25.570  28.540 -0.2409 -0.1004  0.1774
 1274W        W 2138  18.078   5.584  17.379 -0.0642 -0.0905  0.0660
 1275W        W 2139  16.277   0.233  15.794 -0.1531 -0.0396 -0.1891
 1276W        W 2140  26.709  28.052  13.732  0.0049  0.0230 -0.2524
 1277W        W 2141  24.557  15.041  28.366  0.2034  0.0166  0.2184
 1278W        W 2142  26.265   6.948   6.095 -0.2129 -0.0621  0.1622
 1279W        W 2143  12.836  16.444  17.334  0.1448  0.0042  0.0393
 1280W        W 2144  12.210  24.005  22.423  0.2526  0.0773  0.0713
 1281W        W 2145   8.639  27.742   2.328 -0.1957 -0.2170  0.0206
 1282W        W 2146   6.344   5.404  21.225 -0.0679 -0.1004 -0.0233
 1283W        W 2147  19.436  25.304  18.739 -0.1552  0.0750  0.0337
 1284W        W 2148  23.915   8.773   9.188  0.3543  0.0334  0.2221
 1285W        W 2149  21.326  14.186   9.378  0.0628 -0.0168 -0.1528
 1286W        W 2150   6.821   0.106   6.338 -0.2007 -0.1325  0.2835
 1287W        W 2151  16.991  25.388  15.529  0.0249 -0.0066 -0.0909
 1288W        W 2152   9.548  25.884  17.827 -0.2304 -0.0068  0.3059
 1289W        W 2153  22.279   9.743  12.969  0.1100 -0.1169 -0.2290
 1290W        W 2154  16.459   8.450  16.859 -0.0827  0.2797 -0.2114
 1291W        W 2155   5.674   4.616  22.454  0.2750  0.1972  0.1239
 1292W        W 2156  26.840  19.579   1.519  0.5517  0.1889  0.2457
 1293W        W 2157   0.227  12.591  17.400 -0.0808 -0.4103  0.0818
 1294W        W 2158   7.709  18.538   1.672  0.0174 -0.0808 -0.2614
 1295W        W 2159  11.160  24.051   2.182  0.3733  0.0273  0.1232
 1296W        W 2160  20.407  22.518  18.886  0.3396  0.2040 -0.1251
 1297W        W 2161  10.484  10.266   7.420 -0.2376  0.1726 -0.2105
 1298W        W 2162   2.742  24.450   9.547 -0.1680  0.0482  0.0707
 1299W        W 2163  23.413   4.590  25.707 -0.3737 -0.0922 -0.2717
 1300W        W 2164   2.930   1.604  11.720 -0.0540 -0.1768 -0.0602
 1301W        W 2165   2.825  15.382  23.219 -0.0805  0.0241  0.0458
 1302W        W 2166  19.689  28.829  10.659 -0.0267  0.1676  0.0765
 1303W        W 2167  19.774   2.196  26.807 -0.0752 -0.2303 -0.0024
 1304W        W 2168   3.141   5.773  26.068  0.2386  0.0957  0.0832
 1305W        W 2169  13.059   8.466  27.829 -0.0183  0.2213 -0.1119
 1306W        W 2170   6.539  21.928  14.245  0.0059  0.2763 -0.0953
 1307W        W 2171  21.690  28.085  22.064 -0.0625 -0.0955 -0.0632
 1308W        W 2172  18.116  27.780  13.830 -0.1451 -0.0380 -0.3688
 1309W        W 2173  23.946   9.966  27.417  0.0679  0.0054 -0.1391
 1310W        W 2174  12.601  28.953  25.087 -0.3455 -0.2298 -0.1698
 1311W        W 2175  16.390  19.844  23.942  0.1281  0.0488  0.0401
 1312W        W 2176  19.824  19.609   8.688 -0.2103  0.1593  0.0693
 1313W        W 2177  27.526  18.597  23.589  0.1922  0.1183 -0.1685
 1314W        W 2178   6.692  25.060   4.817  0.3713 -0.0272  0.1471
 1315W        W 2179  13.393  28.625   6.776 -0.2427 -0.0114  0.1638
 1316W        W 2180   6.871  22.372  25.815 -0.0579  0.0530  0.3344
 1317W        W 2181  28.212  18.926   6.448 -0.1922 -0.1980 -0.3226
 1318W        W 2182  10.025  25.460   8.814 -0.1358  0.1603  0.0934
 1319W        W 2183  13.683  20.546   1.773 -0.0401  0.0171 -0.0964
 1320W        W 2184  15.029   9.431  23.975  0.2139 -0.1104 -0.1566
 1321W        W 2185  23.582  10.797  11.482 -0.2613 -0.1962 -0.0103
 1322W        W 2186   1.673   8.330   9.456 -0.1505  0.0896 -0.1256
 1323W        W 2187   4.226  22.926  12.211  0.2073  0.2845  0.0093
 1324W        W 2188  11.352  22.829  20.420  0.2328 -0.1152  0.3149
 1325W        W 2189   7.913   9.887   0.517  0.1375 -0.0023 -0.0210
 1326W        W 2190  12.252  21.516  25.373  0.0559  0.0030  0.0703
 1327W        W 2191  11.193   8.583  25.727 -0.1347  0.3183  0.1472
 1328W        W 2192  23.700   0.949  19.016 -0.1044  0.2689  0.1479
 1329W        W 2193  21.653  21.636  13.067  0.1284  0.0998 -0.1156
 1330W        W 2194  13.284  23.901  13.998 -0.0793  0.0734  0.0358
 1331W        W 2195  26.495   3.234  15.390 -0.1729 -0.0075 -0.2749
 1332W        W 2196  24.297  16.778   9.750  0.1494 -0.1996 -0.5013
 1333W        W 2197   9.314  13.282  23.690  0.0021  0.1753 -0.2189
 1334W        W 2198   4.470  24.502  15.880 -0.0567 -0.0719 -0.1033
 1335W        W 2199   5.962  26.080   7.582 -0.1944  0.1171 -0.0563
 1336W        W 2200   3.148  17.896  16.747 -0.1388 -0.2558 -0.2329
 1337W        W 2201  16.326  25.490  25.198  0.1150  0.0518  0.0417
 1338W        W 2202  25.016   0.361  15.169  0.1175  0.0889  0.2085
 1339W        W 2203  19.713   3.756   2.658  0.0642  0.0494  0.2116
 1340W        W 2204  12.140   1.961  18.234  0.3467  0.0779  0.1994
 1341W        W 2205  10.537   6.700  13.215  0.0068  0.4759  0.3652
 1342W        W 2206  18.713   9.636   6.232  0.0036 -0.3453 -0.3392
 1343W        W 2207   3.892   1.091  14.644 -0.3815  0.1125 -0.0211
 1344W        W 2208  12.775   5.492  22.997  0.0325 -0.1806 -0.1713
 1345W        W 2209   1.677  28.527   1.160 -0.0485 -0.2337 -0.1038
 1346W        W 2210   9.071  23.123  27.874 -0.0739  0.0855  0.0853
 1347W        W 2211  21.647   6.813   7.966 -0.0030  0.0282  0.2482
 1348W        W 2212  15.491   6.712  20.396 -0.1764  0.3124 -0.2531
 1349W        W 2213  16.212   2.584  10.152  0.2064 -0.0271  0.2222
 1350W        W 2214   2.561  27.117  18.072  0.3671  0.0199 -0.1276
 1351W        W 2215   1.734   8.441   0.013  0.0159 -0.2727  0.2091
 1352W        W 2216  16.771   8.925  12.963  0.1706 -0.0201  0.1273
 1353W        W 2217   4.885   6.335  13.961 -0.1331  0.2458  0.1332
 1354W        W 2218  15.778  13.810   1.679  0.0621  0.0286 -0.1064
 1355W        W 2219   6.381  22.993   5.828  0.0635  0.4921  0.0834
 1356W        W 2220  18.926  28.810  18.294  0.1973  0.1991 -0.1133
 1357W        W 2221  20.345  18.228  28.948 -0.0803 -0.2522 -0.1597
 1358W        W 2222  18.120  14.451   8.138  0.2088 -0.0881 -0.1426
 1359W        W 2223  13.636  21.133   4.614 -0.0184 -0.0633 -0.2291
 1360W        W 2224  19.269   6.413   0.297  0.0533 -0.2096  0.2175
 1361W        W 2225  29.038  14.992  27.643 -0.1686  0.1760 -0.0382
 1362W        W 2226  25.815   6.543  22.881  0.0428 -0.4864  0.0869
 1363W        W 2227  27.576   2.483  21.476 -0.2290 -0.1589 -0.2363
 1364W        W 2228  15.160  25.997   6.419  0.0256  0.0518  0.3106
 1365W        W 2229  21.378  23.929  28.503  0.1282  0.4460  0.2893
 1366W        W 2230  22.366  25.293   9.280 -0.1247  0.2018  0.0077
 1367W        W 2231  17.912   3.291  16.239 -0.1911  0.0660 -0.0536
 1368W        W 2232  11.660   3.997  23.811 -0.1177  0.0891 -0.0793
 1369W        W 2233   0.770   8.579  23.368  0.4656 -0.4216  0.0410
 1370W        W 2234  27.761   7.610   4.125 -0.0197  0.1674 -0.0544
 1371W        W 2235  21.456  25.162  20.958 -0.1301 -0.0554  0.5072
 1372W        W 2236  10.301   1.911  25.594  0.0698 -0.0846 -0.1458
 1373W        W 2237  26.440   6.193  10.622  0.1785 -0.0320  0.0071
 1374W        W 2238   9.294  26.395   8.820 -0.1341  0.2191 -0.1522
 1375W        W 2239   7.319   4.969  17.590  0.1088  0.0285  0.2316
 1376W        W 2240  26.715   9.390  14.429 -0.0933 -0.1029  0.0768
 1377W        W 2241   4.417  15.639  23.021  0.1071 -0.1097  0.0348
 1378W        W 2242  10.475   0.618  14.548  0.1305  0.4118  0.0159
 1379W        W 2243   4.776  22.217   9.720 -0.2318  0.0970 -0.1746
 1380W        W 2244  10.945  21.735   6.361 -0.0339 -0.0433  0.0939
 1381W        W 2245   7.651  24.223   8.091 -0.0808  0.0056 -0.2049
 1382W        W 2246   4.050  10.680  11.133  0.0726 -0.0682 -0.0068
 1383W        W 2247  22.661   3.460  26.413  0.1051  0.0677  0.2616
 1384W        W 2248   9.513  25.877   9.516  0.0833  0.1209 -0.2790
 1385W        W 2249   7.195  12.532  17.282 -0.0181  0.0692 -0.3590
 1386W        W 2250   3.033  24.744  23.599  0.1162  0.1946  0.0979
 1387W        W 2251   9.401   0.055  17.249 -0.2126  0.0337 -0.2485
 1388W        W 2252  18.493  28.797  22.264  0.0714 -0.1738  0.1165
 1389W        W 2253  13.432   0.412  21.739  0.2055  0.1806  0.0515
 1390W        W 2254  12.859  25.503  25.899 -0.1526  0.0808  0.0061
 1391W        W 2255  17.244   1.299  22.730  0.3117  0.3119 -0.0504
 1392W        W 2256  14.461   2.692   1.328 -0.1116 -0.0814 -0.2687
 1393W        W 2257  27.445   5.591  21.075  0.2781  0.0245 -0.0341
 1394W        W 2258  11.930  25.333   0.562  0.1302  0.2387 -0.1542
 1395W        W 2259  27.982  11.827   9.876 -0.2479 -0.4736  0.2578
 1396W        W 2260   9.404   4.006  16.161 -0.1909 -0.0312 -0.2670
 1397W        W 2261  26.196  14.685  27.035 -0.1906  0.1067 -0.0714
 1398W        W 2262  15.303   5.495  22.741 -0.1089  0.1576 -0.1589
 1399W        W 2263  12.424   9.478  21.717 -0.2498  0.1317  0.1137
 1400W        W 2264  15.146  19.399  12.996  0.0234  0.1678  0.0817
 1401W        W 2265  18.667  20.192  24.110 -0.1378  0.0322  0.2279
 1402W        W 2266  10.000  23.292   0.044  0.3426  0.1557  0.2079
 1403W        W 2267   2.185   6.132   9.959 -0.1419  0.1514  0.3550
 1404W        W 2268   9.798  10.738  28.804 -0.1607  0.2375 -0.2547
 1405W        W 2269   3.071  18.671   0.845 -0.0710  0.0688 -0.1066
 1406W        W 2270  21.469  27.818  12.589 -0.3336 -0.1942 -0.2405
 1407W        W 2271  13.570  25.042  18.811  0.1380  0.4298 -0.1479
 1408W        W 2272  13.399  10.767  12.471  0.0250 -0.1271 -0.1337
 1409W        W 2273   7.143  12.412  14.539 -0.0589 -0.1220 -0.0923
 1410W        W 2274  16.927  14.160   4.080 -0.2194 -0.2070 -0.2618
 1411W        W 2275  10.560  21.395  18.991  0.1709 -0.1759 -0.3867
 1412W        W 2276  25.615  25.260  18.721 -0.2563  0.0291  0.0027
 1413W        W 2277   6.173   8.904   2.946  0.0456 -0.1485 -0.0143
 1414W        W 2278  16.892   2.134   5.702  0.1896  0.2664  0.2873
 1415W        W 2279  22.758  27.063  15.252 -0.1231  0.1805  0.1556
 1416W        W 2280  22.848  13.895   1.817 -0.3474  0.0176 -0.1460
 1417W        W 2281  24.847   5.589  20.888 -0.2148 -0.0673  0.0988
 1418W        W 2282  19.084  24.298  29.052 -0.3203  0.0555 -0.0617
 1419W        W 2283  10.399  13.445  13.976 -0.3090 -0.0179  0.1148
 1420W        W 2284  15.744   4.947  24.824 -0.0144  0.0711  0.1391
 1421W        W 2285  17.296   3.330  13.987 -0.0112  0.1537 -0.0222
 1422W        W 2286  10.165  26.531   6.237  0.1364 -0.2739 -0.0796
 1423W        W 2287  15.676   3.265  22.681 -0.1616 -0.4512 -0.0731
 1424W        W 2288  13.982  20.874  23.463 -0.2149 -0.0902  0.3198
 1425W        W 2289  12.705  27.363  23.331 -0.0023  0.2685 -0.0860
 1426W        W 2290  10.697  11.598  17.912 -0.0393 -0.3953  0.0886
 1427W        W 2291  24.389   8.182   7.129  0.0025 -0.1975  0.2083
 1428W        W 2292  17.317  12.134  11.238  0.0669  0.3014  0.0461
 1429W        W 2293  15.420   0.286  21.751 -0.2270  0.0990  0.1258
 1430W        W 2294  14.380  10.505   6.063 -0.3941 -0.0365  0.0390
 1431W        W 2295  12.862  15.113  16.618  0.1387  0.0003  0.3607
 1432W        W 2296  10.552  15.995  17.578  0.0577 -0.2679  0.1923
 1433W        W 2297  24.524  28.847  12.564 -0.3323 -0.0027  0.3197
 1434W        W 2298   5.457  17.577   5.889  0.0434  0.0303  0.2151
 1435W        W 2299  10.404  15.064  27.813 -0.1533  0.0783  0.1701
 1436W        W 2300   4.009   8.808  11.717 -0.0217  0.0192  0.0541
 1437W        W 2301  28.313  27.760  28.645 -0.0244 -0.1270 -0.2595
 1438W        W 2302  10.241  14.229  21.341  0.0475  0.1524 -0.0415
 1439W        W 2303  16.211  27.875  10.200  0.0163 -0.2301 -0.0551
 1440W        W 2304   8.991  16.615   7.758 -0.0870  0.2908  0.0399
 1441W        W 2305  18.423   6.347   8.274  0.0159  0.0770  0.1501
 1442W        W 2306  14.376  27.197   9.905 -0.1684  0.3824 -0.0684
 1443W        W 2307  19.312  27.895  16.642  0.4621 -0.0629 -0.2710
 1444W        W 2308  12.976  10.466  16.076  0.1612  0.0433  0.0603
 1445W        W 2309   5.095  18.938   7.827 -0.0575 -0.0625  0.2862
 1446W        W 2310   2.251  13.668   4.356 -0.0890  0.2379 -0.1791
 1447W        W 2311   6.769  27.129  13.793 -0.1785 -0.2931 -0.2321
 1448W        W 2312  25.805  21.167  18.416 -0.0661 -0.1985  0.1807
 1449W        W 2313  22.163  26.210  20.126 -0.0870 -0.1345 -0.1088
 1450W        W 2314  12.020   9.737   2.707  0.1398 -0.1260 -0.1971
 1451W        W 2315  14.905   7.742  17.168  0.1943  0.1891 -0.1102
 1452W        W 2316  14.400   5.054  13.048 -0.0075 -0.1251  0.1534
 1453W        W 2317   8.873   3.171   5.811  0.2340 -0.1385  0.0638
 1454W        W 2318   8.450  24.569  28.504  0.1380 -0.0421 -0.2962
 1455W        W 2319  25.669  28.067  17.639 -0.0088 -0.0045  0.3102
 1456W        W 2320  18.693   5.996  23.338  0.0434 -0.1523 -0.1526
 1457W        W 2321   9.722  19.629   1.428  0.2875  0.1548  0.1957
 1458W        W 2322  19.772  16.022  25.323  0.1312  0.0467  0.2119
 1459W        W 2323  25.973   8.069  19.716  0.0737 -0.3030 -0.1161
 1460W        W 2324   8.950  24.648   3.358 -0.2564 -0.2636  0.0627
 1461W        W 2325   3.454   9.923   4.660  0.3931 -0.1894 -0.3126
 1462W        W 2326   1.423  25.546   7.055 -0.1008 -0.0377  0.2923
 1463W        W 2327  25.560  16.927  10.390 -0.2271 -0.2252  0.1846
 1464W        W 2328  25.415  14.875   8.463  0.0036 -0.0089 -0.2325
 1465W        W 2329   9.614  22.236  17.365  0.0335  0.4113 -0.1936
 1466W        W 2330   4.196  13.607  26.287  0.3056  0.2191  0.0929
 1467W        W 2331   8.470  20.730  16.214  0.1756  0.2852  0.2531
 1468W        W 2332  10.031   9.563  10.480 -0.1868 -0.2076  0.0385
 1469W        W 2333  14.790  15.032  16.615 -0.1115 -0.0575  0.1995
 1470W        W 2334  17.116  18.684   3.615 -0.1294 -0.3170  0.3973
 1471W        W 2335   8.880  24.132  21.647 -0.0618  0.1552  0.1555
 1472W        W 2336  26.491  14.982   8.363 -0.2430  0.2245  0.0803
 1473W        W 2337   7.294  18.099  14.463  0.1704 -0.1339  0.1488
 1474W        W 2338  26.468  28.884  21.844  0.0384 -0.1313 -0.0538
 1475W        W 2339  13.867   9.771  19.268  0.1686  0.2266 -0.0441
 1476W        W 2340  12.232   2.344  21.276 -0.0912  0.0504  0.1467
 1477W        W 2341   9.436  17.068   4.166  0.2921  0.4407 -0.0675
 1478W        W 2342   6.544  11.583  15.995 -0.0224 -0.0748 -0.3573
 1479W        W 2343  26.592   0.429  16.252  0.4150 -0.1170 -0.1094
 1480W        W 2344  23.782  13.147  14.033 -0.2145  0.2216  0.0424
 1481W        W 2345  18.431  28.870   6.385  0.2642  0.0914 -0.0970
 1482W        W 2346   4.536  23.830  28.435 -0.0173 -0.1978  0.1040
 1483W        W 2347   8.046  21.241  20.016  0.0412 -0.0600  0.1289
 1484W        W 2348   6.757   3.627   9.331 -0.1242 -0.3791  0.1610
 1485W        W 2349  18.825  11.182  18.575  0.1013 -0.1563 -0.1447
 1486W        W 2350   8.636   8.716  23.562 -0.0146  0.1491  0.0500
 1487W        W 2351  17.579  27.468  10.824  0.0071  0.1215  0.0527
 1488W        W 2352  15.593   6.951  22.307 -0.0494  0.0260  0.0512
 1489W        W 2353   6.641  22.133  12.647 -0.3362  0.1883  0.0326
 1490W        W 2354   4.617   8.479  22.492 -0.3138 -0.1676  0.0017
 1491W        W 2355  29.040   0.439  11.465  0.2231  0.1054  0.0407
 1492W        W 2356  19.468  19.788   4.858 -0.0318 -0.3973 -0.1941
 1493W        W 2357  19.063  21.454  13.310 -0.0943  0.1901 -0.2611
 1494W        W 2358  25.536  28.046  16.050  0.4387  0.2688 -0.2103
 1495W        W 2359  22.128  21.692   1.930 -0.0037 -0.1862  0.2225
 1496W        W 2360  18.116  23.990   3.567 -0.0472  0.1754 -0.0451
 1497W        W 2361  11.389   8.851  15.757  0.1290 -0.2070  0.2207
 1498W        W 2362   6.697  23.823   2.918  0.1002  0.2363  0.1079
 1499W        W 2363  14.870  14.982  17.772  0.1638  0.0686 -0.0238
 1500W        W 2364  18.875   1.168  19.385 -0.0375  0.1180  0.1020
 1501W        W 2365  15.572  26.323  10.177 -0.0039  0.1985  0.1516
 1502W        W 2366  16.511  20.234  12.080 -0.0248 -0.0767  0.3149
 1503W        W 2367  22.482   1.466  23.515  0.0350  0.1060  0.1861
 1504W        W 2368   7.110  26.427   1.231 -0.0226 -0.2241 -0.0767
 1505W        W 2369  10.630   4.248  23.705  0.1220 -0.1296  0.3146
 1506W        W 2370  16.714   1.795  17.857  0.3340  0.1031 -0.1811
 1507W        W 2371   2.051  21.191  17.178 -0.0513  0.1139 -0.0054
 1508W        W 2372  21.420   1.843  13.784  0.4440  0.2624 -0.1949
 1509W        W 2373   3.372  14.725   1.533 -0.1547 -0.0447 -0.0172
 1510W        W 2374  10.554  27.911  15.710  0.1168  0.1800  0.0313
 1511W        W 2375   6.493  23.765  16.791 -0.1843 -0.0574 -0.0086
 1512W        W 2376  24.759   1.152  29.135  0.0706  0.0534 -0.0696
 1513W        W 2377   8.649  19.553  27.922 -0.2969 -0.2990 -0.1520
 1514W        W 2378   1.136   4.512  17.324 -0.3355 -0.2786  0.1146
 1515W        W 2379  24.098   4.635   8.834 -0.0965  0.1588  0.0874
 1516W        W 2380  19.967   0.723  27.705  0.1056 -0.0405 -0.0034
 1517W        W 2381  28.682  23.429  16.968 -0.0340  0.2618 -0.0109
 1518W        W 2382  28.514  14.823  10.697  0.0927  0.1473 -0.1996
 1519W        W 2383   0.159   2.613   5.030  0.0573  0.0173 -0.0647
 1520W        W 2384  11.089  19.682   1.395 -0.1409 -0.0383  0.0232
 1521W        W 2385   3.694  22.752   3.632  0.1061 -0.2026  0.1087
 1522W        W 2386   9.828   1.545   3.347  0.0358 -0.0418  0.1424
 1523W        W 2387  15.696   9.017  20.213  0.2131  0.1469  0.1953
 1524W        W 2388  10.741  19.914  24.594 -0.1748 -0.0196  0.0042
 1525W        W 2389  18.948  23.041  11.407  0.1366  0.2307  0.1854
 1526W        W 2390  17.156  21.651   1.430 -0.0485  0.1004  0.1322
 1527W        W 2391  22.254   0.567  16.401 -0.0152  0.0566  0.1914
 1528W        W 2392  27.233  21.497  19.217  0.5100  0.1588 -0.1181
 1529W        W 2393  23.854  25.401   0.214 -0.1976 -0.0567  0.0933
 1530W        W 2394   5.585  17.241  21.788 -0.1913  0.1408 -0.3338
 1531W        W 2395  11.586  15.070  22.134  0.2765  0.2647 -0.2238
 1532W        W 2396  20.321  27.677  21.740 -0.2294 -0.0001  0.1432
 1533W        W 2397  18.432  27.062   4.482 -0.1999 -0.0849  0.0809
 1534W        W 2398  11.763  17.395  12.701  0.2011  0.1480  0.5009
 1535W        W 2399   5.973  26.037  20.345 -0.0757 -0.0523  0.0307
 1536W        W 2400   7.911   3.588   3.991 -0.1974 -0.0038 -0.2206
 1537W        W 2401  13.416  10.005  19.362  0.1547  0.5364  0.0969
 1538W        W 2402   3.431  14.337  25.463 -0.1843 -0.0134  0.1976
 1539W        W 2403  27.234   0.563  19.785  0.1022  0.1430  0.0350
 1540W        W 2404   8.026  20.851   4.801  0.2065  0.3039 -0.0825
 1541W        W 2405  25.932  15.417   5.207  0.0946 -0.0714  0.1435
 1542W        W 2406  27.040  28.529  12.251  0.0880  0.1493 -0.1996
 1543W        W 2407   1.177   6.625   6.397  0.0990 -0.3127 -0.0356
 1544W        W 2408  17.001   7.848  24.653  0.2110  0.0067 -0.4410
 1545W        W 2409  21.370   6.286  27.212 -0.2627  0.0949  0.0638
 1546W        W 2410   1.396   5.111   9.115  0.1366  0.0468 -0.1823
 1547W        W 2411  14.048  19.513  20.305  0.1794 -0.1424  0.1371
 1548W        W 2412  24.363   2.015  16.810  0.2720  0.2584  0.4201
 1549W        W 2413  21.171  20.509   4.734 -0.2159  0.4079 -0.0850
 1550W        W 2414   9.809   2.902  22.666 -0.1165  0.1185 -0.1999
 1551W        W 2415  28.315  21.890  26.921  0.1761  0.0103 -0.0943
 1552W        W 2416  22.950   1.208  23.753 -0.0160  0.1344  0.0137
 1553W        W 2417  29.051  12.589   1.810  0.2101  0.2863 -0.1743
 1554W        W 2418  11.888   7.013  19.950 -0.0292  0.1573 -0.1230
 1555W        W 2419   7.387  18.251  25.606 -0.2200  0.0561  0.1132
 1556W        W 2420   1.332  24.442   8.290 -0.2114  0.1324  0.1908
 1557W        W 2421   9.999   9.209   2.475  0.0545  0.1607 -0.1117
 1558W        W 2422  19.529   1.572  25.555  0.1315  0.2133 -0.4609
 1559W        W 2423  11.363   3.473  19.079 -0.1094 -0.0155  0.1302
 1560W        W 2424  19.351  26.689  23.977  0.1200 -0.0247  0.1040
 1561W        W 2425  14.990  15.899  16.809 -0.3310  0.1942 -0.2910
 1562W        W 2426   1.367  24.278   7.809  0.2743 -0.0943 -0.1598
 1563W        W 2427   3.976  11.416  28.256  0.2411  0.0710  0.1375
 1564W        W 2428  10.700  15.398  22.249  0.0059 -0.1031  0.1810
 1565W        W 2429  18.503   0.354  14.138 -0.2289  0.2187  0.1178
 1566W        W 2430   1.032  23.610  19.745  0.3676  0.2190  0.3332
 1567W        W 2431  25.546  26.723  27.666  0.1027 -0.0586 -0.1856
 1568W        W 2432   6.254   5.195  12.302  0.0333 -0.0545  0.2326
 1569W        W 2433  16.829  24.396   0.225  0.0069 -0.1658  0.0983
 1570W        W 2434  22.816  25.108   8.115 -0.0456 -0.1705 -0.0330
 1571W        W 2435  12.087  10.223  15.119 -0.2447 -0.0685  0.1803
 1572W        W 2436  21.367   3.266  22.959  0.0788 -0.1277 -0.2592
 1573W        W 2437  28.632  24.457  10.663 -0.0144 -0.0571 -0.0550
 1574W        W 2438  20.885   6.165  18.661  0.0649  0.3140 -0.1412
 1575W        W 2439  16.065  12.258  10.137 -0.0081 -0.1754  0.1007
 1576W        W 2440  24.496   1.296  19.864  0.0846 -0.0465  0.1289
 1577W        W 2441  27.852   5.943   7.594 -0.1735  0.4511 -0.0730
 1578W        W 2442  10.242  16.162  15.947 -0.1498  0.2936  0.0297
 1579W        W 2443   3.760  21.435  18.126  0.2817  0.1770  0.0829
 1580W        W 2444  14.816  14.668  25.845 -0.3005 -0.1700  0.1437
 1581W        W 2445  10.779   4.224  20.078 -0.0357 -0.0096  0.2533
 1582W        W 2446  23.684   0.450  18.826  0.0943  0.1231 -0.0694
 1583W        W 2447  19.208  28.209  12.225 -0.1099 -0.3276  0.1592
 1584W        W 2448  26.471  22.145  22.410 -0.2641  0.0660  0.1722
 1585W        W 2449  25.407   7.735  22.882  0.0281 -0.3605  0.6011
 1586W        W 2450  23.575  22.664  25.849 -0.1213  0.2014  0.0936
 1587W        W 2451  26.723  19.888  19.961 -0.0407 -0.0448  0.0891
 1588W        W 2452  27.044   5.529  27.020 -0.0122  0.0051  0.1629
 1589W        W 2453  22.368  24.746   0.305  0.1712 -0.4257  0.1806
 1590W        W 2454  23.114   0.691  25.071 -0.0445  0.0663 -0.2175
 1591W        W 2455  12.381  17.520  16.513 -0.0570  0.0855 -0.0492
 1592W        W 2456   4.361  15.061  19.127 -0.3731  0.1298 -0.0518
 1593W        W 2457  19.912  22.528  14.802 -0.0717 -0.1566  0.0764
 1594W        W 2458   8.882   5.543  21.785 -0.0603  0.2897  0.0844
 1595W        W 2459   4.947   4.466   6.446 -0.0937  0.1771 -0.1031
 1596W        W 2460  19.246  27.179   1.203 -0.2602 -0.0541  0.2330
 1597W        W 2461  12.111  24.848  16.671  0.4962 -0.2677  0.1756
 1598W        W 2462  28.677   8.728  27.306 -0.0745  0.0821  0.1652
 1599W        W 2463   0.569  25.309  10.686  0.1159 -0.1293 -0.2542
 1600W        W 2464  16.929  23.778  14.572 -0.0196 -0.0558 -0.1427
 1601W        W 2465  26.650  21.747  27.220 -0.0713  0.1396 -0.1654
 1602W        W 2466   9.444   4.123   5.956 -0.1212 -0.3337  0.0083
 1603W        W 2467  17.593  28.934   5.155  0.2152 -0.0300 -0.0389
 1604W        W 2468  10.077  16.647   7.419 -0.2224  0.2762 -0.0684
 1605W        W 2469  15.224  23.795  24.836  0.0908 -0.3734  0.1684
 1606W        W 2470  21.508   4.043  12.221  0.2799 -0.2172 -0.0303
 1607W        W 2471  27.865  18.431   7.789 -0.2492  0.0563 -0.0162
 1608W        W 2472   4.880  28.209  18.417 -0.1217  0.1073 -0.1389
 1609W        W 2473  28.883  21.285  26.785 -0.0983 -0.0420  0.1252
 1610W        W 2474  17.904  28.181  26.601  0.0468 -0.0589  0.2235
 1611W        W 2475   9.890   6.092  12.756 -0.2094 -0.0679  0.1878
 1612W        W 2476  13.563  20.566   4.738 -0.1553 -0.2567  0.1713
 1613W        W 2477  18.370  28.170  19.573  0.1198 -0.0732  0.2067
 1614W        W 2478   5.021   5.608  13.657 -0.0648  0.1798 -0.2839
 1615W        W 2479  22.139  28.642  19.552 -0.0817  0.3966 -0.0734
 1616W        W 2480  11.377   6.604   2.733  0.2013 -0.1073  0.1677
 1617W        W 2481   9.495   2.327  20.372 -0.1271 -0.1159  0.2795
 1618W        W 2482   0.424   1.907   6.876  0.0607 -0.0348  0.2520
 1619W        W 2483  16.676  20.856  16.788  0.0824  0.2345  0.1214
 1620W        W 2484   7.382  26.173  24.480 -0.2112 -0.4000 -0.1951
 1621W        W 2485  18.505   9.306  13.374 -0.1998  0.2450 -0.0945
 1622W        W 2486  16.237   2.033   0.469  0.5898 -0.1124  0.2736
 1623W        W 2487   1.275  27.004   7.131 -0.2236  0.0281 -0.0249
 1624W        W 2488  23.490   3.543  25.005 -0.2698 -0.1474  0.2427
 1625W        W 2489  17.736  16.663  15.494  0.1719 -0.0491  0.0092
 1626W        W 2490  19.310  14.300  14.152 -0.2664  0.1190  0.4075
 1627W        W 2491  15.180   0.058  14.594 -0.1934  0.2621 -0.3000
 1628W        W 2492  18.065  17.585  18.660 -0.2456 -0.2126 -0.1594
 1629W        W 2493   4.283   4.303  24.590  0.3395 -0.0263  0.2510
 1630W        W 2494  11.031  14.233  10.204  0.0613 -0.0469  0.0255
 1631W        W 2495  13.033   3.349  22.791  0.0799  0.0082 -0.1463
 1632W        W 2496  25.309  28.491  11.447 -0.1205  0.2448 -0.3481
 1633W        W 2497  20.673   3.343   7.541 -0.1205 -0.0715  0.1097
 1634W        W 2498  23.730   1.245  26.775 -0.0248 -0.0175  0.0294
 1635W        W 2499  17.192  13.687  28.258 -0.1282 -0.0651  0.2188
 1636W        W 2500  19.248  25.303  20.826  0.2094 -0.1484 -0.2487
 1637W        W 2501   4.729  10.625  25.324  0.1667  0.0986  0.0334
 1638W        W 2502  12.101   3.292   5.814 -0.0722 -0.3340  0.1754
 1639W        W 2503   9.367  25.559  29.052 -0.2019  0.1431 -0.5197
 1640W        W 2504  28.964   8.974   0.130  0.1131 -0.1237 -0.2037
 1641W        W 2505  17.378  18.975   0.601  0.0699 -0.2563  0.2148
 1642W        W 2506  11.470  28.308  23.997 -0.1423  0.1168 -0.1797
 1643W        W 2507  24.108  21.024  20.333 -0.0154  0.1654  0.2750
 1644W        W 2508  17.635   3.982  11.349  0.0963  0.1552 -0.0164
 1645W        W 2509  12.488   5.054   1.244  0.2679 -0.0996 -0.0145
 1646W        W 2510  13.227  17.323   4.987  0.1502  0.3058  0.0370
 1647W        W 2511   2.670   8.273   4.495  0.0297  0.0996 -0.2254
 1648W        W 2512   6.963  17.985  24.296  0.0983 -0.0643 -0.2795
 1649W        W 2513  15.366   2.373  13.686 -0.0719 -0.0211  0.1606
 1650W        W 2514   0.655   8.184  10.294 -0.1132 -0.0279 -0.1389
 1651W        W 2515   0.780  23.612  13.450 -0.2077 -0.0438 -0.0926
 1652W        W 2516  24.290  20.972  11.299  0.0633 -0.0192 -0.0564
 1653W        W 2517  11.837  10.260  20.077 -0.1193 -0.1380  0.0458
 1654W        W 2518  12.714  25.913  12.074 -0.4719  0.0738  0.0651
 1655W        W 2519   9.713  28.591  15.284 -0.1963 -0.0424 -0.3459
 1656W        W 2520  22.301  20.076   2.769 -0.2431 -0.0920 -0.1081
 1657W        W 2521  21.360   7.435  27.748 -0.0811  0.0819 -0.0871
 1658W        W 2522  21.809   0.272   6.592  0.0897 -0.1358  0.1909
 1659W        W 2523  19.051   9.004   8.769  0.0868  0.0321 -0.3405
 1660W        W 2524   4.128   2.496  19.465  0.0634  0.0912  0.1479
 1661W        W 2525  22.139  23.635   2.783  0.0411  0.1542  0.0234
 1662W        W 2526  28.443  24.682  27.437  0.3780  0.0531  0.3757
 1663W        W 2527  23.601  10.814  10.168  0.1427 -0.1290 -0.1059
 1664W        W 2528   1.141   1.231  20.747 -0.1026 -0.0663 -0.1225
 1665W        W 2529  21.609  20.535  18.870  0.0258 -0.1134  0.0601
 1666W        W 2530  10.665  22.633   2.802  0.1289 -0.3481 -0.1373
 1667W        W 2531  21.783  17.658  13.432 -0.1361  0.0747 -0.0276
 1668W        W 2532   7.627   3.975  14.667 -0.1518 -0.0967 -0.5256
 1669W        W 2533  17.348   4.531   9.014 -0.2647  0.2055  0.0741
 1670W        W 2534  10.016  28.557  21.901  0.3637 -0.2349  0.1530
 1671W        W 2535  14.503   0.817   5.066 -0.1437 -0.2975 -0.2238
 1672W        W 2536  24.625   5.528  19.528  0.0789 -0.2116  0.0257
 1673W        W 2537  23.254  26.307  27.965  0.0612 -0.1366 -0.0370
 1674W        W 2538  17.450  13.686  26.950 -0.1927 -0.2368 -0.1392
 1675W        W 2539  22.991   8.235  25.405  0.0594 -0.1087  0.0242
 1676W        W 2540  11.190  23.793  19.115 -0.0177  0.0440 -0.3352
 1677W        W 2541  13.260  21.708  21.778 -0.1692  0.0533  0.3785
 1678W        W 2542  12.125   3.755   9.249  0.1656 -0.1561  0.2500
 1679W        W 2543  24.718  21.714  15.401  0.1719  0.0764  0.2910
 1680W        W 2544  14.899  13.349   2.627  0.0576  0.1482  0.0074
 1681W        W 2545  13.838  17.478   3.751 -0.2799 -0.0072  0.2735
 1682W        W 2546  22.702   6.903  24.441 -0.1795  0.1194 -0.0213
 1683W        W 2547  10.416  20.237  19.810 -0.1036 -0.0339 -0.0823
 1684W        W 2548  25.375   3.241  20.136 -0.0076  0.1860 -0.1844
 1685W        W 2549   6.500  21.540  23.304  0.0663 -0.0960  0.0366
 1686W        W 2550  11.189   8.032   5.485 -0.0373 -0.1127  0.0487
 1687W        W 2551  19.749  25.245  18.281 -0.0960 -0.1516 -0.2189
 1688W        W 2552   8.472   0.491  11.473 -0.3721  0.1970 -0.0937
 1689W        W 2553  17.155   2.573   4.394  0.1641  0.1562  0.1953
 1690W        W 2554  19.846   7.627  15.118 -0.0272 -0.0929 -0.0678
 1691W        W 2555  14.491   1.893   7.042  0.3989 -0.2298  0.0543
 1692W        W 2556  13.235  22.122  21.241  0.0171  0.1918  0.0226
 1693W        W 2557  17.547  18.530  14.375  0.0041 -0.0731 -0.0299
 1694W        W 2558  24.188  27.542  18.314  0.1830  0.1447 -0.0165
 1695W        W 2559   8.260   0.640  21.304 -0.1352  0.0976 -0.2193
 1696W        W 2560   8.525   3.434  11.985  0.0285 -0.2506  0.0359
 1697W        W 2561  14.709   7.728  27.159  0.1651  0.0862  0.0637
 1698W        W 2562  14.910   4.741   3.352 -0.2145 -0.2836  0.3074
 1699W        W 2563   8.933   2.507  15.517  0.0651  0.0211  0.2034
 1700W        W 2564   8.950   7.108  15.995  0.1228  0.0592  0.1441
 1701W        W 2565   6.405   4.943  26.137 -0.3710  0.1170 -0.0201
 1702W        W 2566   6.788  10.720   8.219  0.1531  0.0267  0.0465
 1703W        W 2567  15.171   6.758   2.922 -0.3887 -0.3441  0.3481
 1704W        W 2568   6.398  12.453   6.348 -0.4241 -0.0381 -0.0205
 1705W        W 2569   5.519   5.960  26.648 -0.3098  0.1690 -0.1629
 1706W        W 2570  18.437   6.745  18.602  0.2381 -0.2063  0.1039
 1707W        W 2571  26.914   2.206   8.327 -0.0469  0.3013 -0.3274
 1708W        W 2572  27.060   4.493  21.653 -0.2021  0.1395  0.3116
 1709W        W 2573   9.281   9.304   5.034  0.3313 -0.1387 -0.2198
 1710W        W 2574   0.635  29.067  16.882 -0.0899 -0.4337 -0.0435
 1711W        W 2575   6.562  16.060  20.621 -0.1271  0.3254 -0.2305
 1712W        W 2576  10.887  28.949  19.118 -0.0168  0.1578  0.0009
 1713W        W 2577  12.839  23.726  24.151  0.1447  0.1913  0.0105
 1714W        W 2578   4.366  18.308  14.787 -0.1359 -0.1810 -0.4030
 1715W        W 2579   6.393  13.309   6.791 -0.0477 -0.2163 -0.2744
 1716W        W 2580   9.474  17.002   6.942  0.0362  0.0490 -0.1181
 1717W        W 2581  16.089  21.194  26.889  0.2013 -0.2039  0.0004
 1718W        W 2582   2.032  15.985  13.624 -0.2445 -0.2700 -0.1197
 1719W        W 2583   9.658  10.217  25.519 -0.0749  0.2095  0.2263
 1720W        W 2584   1.696   7.626  24.636  0.1725  0.1317  0.0196
 1721W        W 2585  19.912  18.341   2.713  0.1643 -0.0835  0.0201
 1722W        W 2586   5.695  25.061  20.223  0.2103 -0.1087  0.2512
 1723W        W 2587   1.500  12.326   0.351 -0.3339 -0.1498  0.3144
 1724W        W 2588   3.121  27.466  19.680 -0.1725  0.0939  0.3410
 1725W        W 2589  11.609  28.745  20.034  0.0361  0.0916  0.0069
 1726W        W 2590  11.197  12.489  25.945  0.1786 -0.0259 -0.2743
 1727W        W 2591   8.247  10.614  11.646 -0.0322 -0.0029  0.0619
 1728W        W 2592  25.518  23.477   7.792 -0.3516  0.0022  0.0295
 1729W        W 2593   5.564  23.666  15.694  0.0204 -0.2005  0.0924
 1730W        W 2594  21.459   3.046   4.469  0.1698  0.3396  0.1905
 1731W        W 2595  13.914  26.069   0.371  0.0767  0.0575  0.3840
 1732W        W 2596  11.110  21.737  25.835 -0.1349  0.1518  0.0106
 1733W        W 2597  12.618   2.892  27.341  0.2189 -0.1575 -0.2109
 1734W        W 2598  15.752   9.454  21.861 -0.0041  0.2079 -0.2436
 1735W        W 2599   0.144  12.113  25.750 -0.3264  0.2549 -0.3084
 1736W        W 2600  27.399  12.057   5.241 -0.2374  0.0662  0.1438
 1737W        W 2601  16.278  26.005  22.693 -0.1600 -0.2345 -0.1371
 1738W        W 2602  14.993   1.525   5.649  0.0052  0.0178  0.2714
 1739W        W 2603   6.390   2.034  12.313 -0.1088 -0.2680  0.0056
 1740W        W 2604  25.204   9.733  19.976  0.0080 -0.0342 -0.0152
 1741W        W 2605  22.570   7.075  23.051 -0.1602  0.2358 -0.1356
 1742W        W 2606  26.581   2.932  23.985 -0.0280  0.0566 -0.1462
 1743W        W 2607  15.391   2.089  13.156 -0.0933 -0.0048  0.0622
 1744W        W 2608  17.290   1.746   8.742 -0.0840  0.0307 -0.1933
 1745W        W 2609  13.220  21.082  26.445 -0.1317 -0.1253 -0.2681
 1746W        W 2610  18.067   8.589   4.604 -0.2523 -0.0362  0.2428
 1747W        W 2611   9.790  27.852  20.486  0.3218  0.0061  0.0253
 1748W        W 2612  20.691  17.916   3.215 -0.3093 -0.2204  0.0186
 1749W        W 2613   4.036   3.929   2.651  0.4181 -0.1315  0.0550
 1750W        W 2614  25.764   3.271   9.869  0.0384  0.0250 -0.2850
 1751W        W 2615  24.835   3.736  20.607 -0.2057 -0.2900  0.1032
 1752W        W 2616  28.229  23.720  18.554 -0.1044  0.1471  0.2516
 1753W        W 2617  10.129   0.870  29.031  0.2993 -0.0587 -0.0009
 1754W        W 2618  11.724  21.881  20.397 -0.0766 -0.3260  0.0420
 1755W        W 2619  10.340  25.097  22.782  0.1450 -0.2114  0.1565
 1756W        W 2620  24.995   9.517   1.206  0.1345 -0.0357 -0.1185
 1757W        W 2621   3.194  12.456  20.979  0.1831 -0.0415 -0.2114
 1758W        W 2622  19.557   4.717  18.522  0.1473 -0.0130  0.3228
 1759W        W 2623  13.716  16.217  16.204  0.0111  0.1425  0.0136
 1760W        W 2624  27.412   8.141  19.088  0.0837  0.1695 -0.0007
 1761W        W 2625   7.871  13.436  19.692  0.0695  0.2366  0.0526
 1762W        W 2626   6.913   7.108  15.549  0.2268 -0.3160 -0.1609
 1763W        W 2627   9.727  21.009  24.934  0.1377  0.1047  0.2571
 1764W        W 2628  17.670  16.485  14.929  0.2291  0.1252  0.0396
 1765W        W 2629   6.520   5.743   0.146 -0.0973  0.0585  0.0052
 1766W        W 2630  16.872   6.548  23.038  0.0021 -0.0627  0.2157
 1767W        W 2631  22.306   0.275  24.744  0.1619  0.0300  0.0604
 1768W        W 2632  24.999  11.499  21.136  0.1655  0.0931 -0.1114
 1769W        W 2633  27.301  26.205  28.450  0.1506  0.0335  0.1688
 1770W        W 2634  21.181   7.278  15.684 -0.0084  0.3094  0.0958
 1771W        W 2635  23.981  17.226  15.509  0.1681  0.3151  0.2874
 1772W        W 2636   6.450   1.594   1.364 -0.0057  0.3010  0.1933
 1773W        W 2637   1.861  25.001   8.743 -0.1562 -0.2122  0.3286
 1774W        W 2638  17.966  27.712   5.673 -0.1525  0.0554 -0.0993
 1775W        W 2639  20.944  14.849   0.073  0.0183  0.1927  0.0916
 1776W        W 2640  27.090   9.442   3.890  0.3108  0.2233 -0.3483
 1777W        W 2641  23.156  12.794  14.714 -0.2195  0.2031 -0.1323
 1778W        W 2642  22.421  28.948  18.728 -0.3153 -0.0959 -0.1063
 1779W        W 2643   7.451   1.153  21.554  0.0328  0.0085 -0.3328
 1780W        W 2644  12.200   0.858  23.840  0.2707  0.0771  0.3068
 1781W        W 2645  14.874   1.079  15.438  0.2308  0.0860 -0.1645
 1782W        W 2646  15.349  21.686   0.791 -0.1986 -0.0030  0.0379
 1783W        W 2647  15.091  23.640   8.607 -0.1618  0.1244  0.0181
 1784W        W 2648  10.113  15.364  22.399 -0.1662  0.4560  0.0813
 1785W        W 2649   5.828  15.153  26.777  0.1383  0.0407 -0.1936
 1786W        W 2650   5.801  20.781  22.365 -0.1795  0.2724  0.1594
 1787W        W 2651   5.908  16.862  15.881  0.0030 -0.3077 -0.3227
 1788W        W 2652  22.723  21.051   6.633  0.2052 -0.3145  0.3047
 1789W        W 2653  12.553  28.451  28.255  0.1210  0.0336 -0.0190
 1790W        W 2654  17.233  10.693  11.164 -0.0489  0.3333  0.0308
 1791W        W 2655   2.040   2.052   3.658 -0.1614 -0.3489  0.3327
 1792W        W 2656  21.879  20.310  11.339  0.1740  0.1018  0.0021
 1793W        W 2657  21.513  10.471  26.314 -0.0947  0.1123  0.0483
 1794W        W 2658   7.041  14.103  28.351 -0.0973  0.2023 -0.0424
 1795W        W 2659   2.222  11.226  19.461 -0.1893  0.0376 -0.2908
 1796W        W 2660  11.587   1.459  28.708  0.0682 -0.1585 -0.3132
 1797W        W 2661  16.021   5.141   9.734  0.6111 -0.0058 -0.0112
 1798W        W 2662  25.021  21.288  27.504  0.1099 -0.0394  0.0143
 1799W        W 2663  27.826  24.380  26.235 -0.1447  0.1104 -0.1903
 1800W        W 2664   1.615  20.034  14.767 -0.0820 -0.0903 -0.0290
 1801W        W 2665  26.302   1.647   7.331  0.1406  0.0506  0.0755
 1802W        W 2666  21.487   1.271  19.466 -0.2372  0.0786  0.2065
 1803W        W 2667  27.043   2.580  26.678 -0.0798  0.1954 -0.1148
 1804W        W 2668   6.537   3.417  24.482 -0.0988  0.2335 -0.4211
 1805W        W 2669  23.195  19.653  13.717  0.1005  0.2978 -0.2069
 1806W        W 2670   4.052  26.461  16.189  0.2924 -0.0592 -0.1252
 1807W        W 2671  25.894  18.868  19.564 -0.0800  0.2708  0.2135
 1808W        W 2672   3.035  15.411  19.464 -0.1930  0.0988  0.2099
 1809W        W 2673  26.151  28.804  16.756  0.0537 -0.0459  0.3493
 1810W        W 2674  14.196  28.623  20.369 -0.3774  0.0850 -0.0643
 1811W        W 2675   6.011  11.707  18.985 -0.1569 -0.0152  0.2470
 1812W        W 2676  10.841  19.375  25.372 -0.0666 -0.0354 -0.1280
 1813W        W 2677  19.816  23.607  25.244  0.2412 -0.1447 -0.1124
 1814W        W 2678  26.218  21.952  18.348 -0.2124  0.2365 -0.2557
 1815W        W 2679  18.564   0.740  16.792 -0.3690 -0.2218 -0.4876
 1816W        W 2680  13.594  17.134   1.145  0.1254 -0.1217 -0.3233
 1817W        W 2681  23.886   7.357  10.360  0.2012 -0.0211  0.1379
 1818W        W 2682  23.023  11.960  23.010  0.1159  0.3401 -0.3615
 1819W        W 2683  27.141   3.840  27.767  0.1366  0.1555  0.0263
 1820W        W 2684  11.204   5.511  16.354  0.2109  0.0007 -0.1447
 1821W        W 2685  15.374   6.252  11.014 -0.1153 -0.1056  0.1453
 1822W        W 2686  20.036  24.529  22.994 -0.1338  0.2223 -0.0219
 1823W        W 2687  24.453  25.620  26.433 -0.1323  0.1850  0.0724
 1824W        W 2688   4.926   6.725  24.520  0.0752 -0.3095  0.0641
 1825W        W 2689  15.767  27.148  13.506  0.5000 -0.1868  0.2702
 1826W        W 2690  21.987  20.611   6.179  0.2911  0.0917  0.0148
 1827W        W 2691  16.942  21.353  14.320  0.0214  0.1190 -0.1326
 1828W        W 2692  18.051   4.732  18.041  0.4828 -0.2057 -0.1288
 1829W        W 2693   4.335   6.368  12.281 -0.0234  0.0442 -0.1327
 1830W        W 2694   8.717  27.428  19.587 -0.0125 -0.0923 -0.0269
 1831W        W 2695  12.095  20.721   4.312  0.1808 -0.2259 -0.2003
 1832W        W 2696  17.172   6.137  16.951 -0.1362 -0.2475 -0.1406
 1833W        W 2697   5.951  16.993  21.433  0.2261  0.0348  0.0401
 1834W        W 2698  19.856  16.848  24.830 -0.1448 -0.0613 -0.1617
 1835W        W 2699  25.470  24.781  28.711 -0.1310 -0.2890  0.3676
 1836W        W 2700   0.044   0.280  20.338 -0.1050  0.1447 -0.0978
 1837W        W 2701  22.604   3.841  20.198 -0.0674  0.0475  0.2536
 1838W        W 2702  25.563  15.048  15.281 -0.1312 -0.1177 -0.0549
 1839W        W 2703  10.574  19.969  21.977 -0.2572 -0.3857 -0.4133
 1840W        W 2704   1.757   7.170   5.396 -0.0973  0.0976 -0.0488
 1841W        W 2705  20.849  25.642  14.696  0.2450  0.1952 -0.1737
 1842W        W 2706  11.377  21.990  23.242 -0.0913  0.0267 -0.1216
 1843W        W 2707   8.021  20.486  27.385 -0.1622 -0.0062  0.2368
 1844W        W 2708   3.121  13.141  24.323  0.1346  0.0214  0.1340
 1845W        W 2709   5.310  18.749  23.063 -0.4050 -0.3760 -0.0688
 1846W        W 2710   5.842  12.015  25.052 -0.0190 -0.1104 -0.2402
 1847W        W 2711  14.159  20.828  18.059  0.1292  0.1735 -0.0326
 1848W        W 2712  23.362  21.544   4.760 -0.0499 -0.2767 -0.0369
 1849W        W 2713  12.792  25.150  22.995 -0.0537 -0.1729  0.3681
 1850W        W 2714   6.548   5.103  24.135 -0.2192  0.3138  0.2819
 1851W        W 2715  14.082   2.519  27.255 -0.2321  0.3458 -0.2686
 1852W        W 2716  10.137   9.060  20.131  0.1673 -0.1313  0.0860
 1853W        W 2717   2.768   1.872  12.793  0.1692 -0.1982  0.4017
 1854W        W 2718  12.585   5.724   0.399  0.2370  0.0154  0.2100
 1855W        W 2719  19.549   6.299  28.546 -0.0472  0.0190 -0.3312
 1856W        W 2720  19.707  23.071   1.769 -0.0361 -0.1522  0.0243
 1857W        W 2721  20.252   3.949  25.457  0.0130  0.0780 -0.1654
 1858W        W 2722  24.312  14.958   2.592  0.1632 -0.0930  0.3152
 1859W        W 2723  18.850  19.576  23.428  0.2453 -0.4028 -0.1303
 1860W        W 2724  23.181   1.685  21.777  0.0583 -0.2313  0.1324
 1861W        W 2725  14.182   0.204  29.124  0.2462  0.0889  0.2310
 1862W        W 2726   6.445  18.488   9.147 -0.0477 -0.0672 -0.0792
 1863W        W 2727  14.648   4.686  19.946  0.0399  0.4730  0.3604
 1864W        W 2728  14.183   7.000  11.720 -0.2429  0.0486 -0.0706
 1865W        W 2729   1.518  17.411  11.802  0.0193  0.2121  0.0802
 1866W        W 2730  25.398  21.318  27.915 -0.2730  0.0727  0.0116
 1867W        W 2731   0.360   6.481  25.441  0.0775  0.2075  0.1275
 1868W        W 2732   4.144   6.124  23.242  0.0728 -0.4925  0.1407
 1869W        W 2733  22.964  19.347  17.508 -0.1647 -0.0390 -0.3776
 1870W        W 2734  14.052   0.983   1.241  0.3293  0.1651 -0.1200
 1871W        W 2735  27.432  11.368  23.055  0.2743 -0.2279 -0.0154
 1872W        W 2736  20.786   1.961  18.280  0.3246 -0.0794 -0.0958
 1873W        W 2737   1.612  25.249   1.514  0.1366 -0.2477  0.2972
 1874W        W 2738  17.589   5.121  23.531 -0.1931  0.0043  0.0688
 1875W        W 2739   9.944  13.786  11.623  0.2644  0.2047 -0.0365
 1876W        W 2740  28.670  20.784  21.103  0.0913  0.0954 -0.0903
 1877W        W 2741  24.309  13.293  26.920  0.2322  0.2979 -0.2318
 1878W        W 2742  24.763   5.583  22.837  0.2523 -0.0371 -0.1921
 1879W        W 2743  10.375   4.360  26.727  0.0359 -0.1911  0.0357
 1880W        W 2744   6.447   0.988  10.428 -0.0935 -0.1108  0.3287
 1881W        W 2745  19.002   0.875  20.618 -0.0474 -0.0359 -0.1664
 1882W        W 2746  13.585  26.524  25.658 -0.2026 -0.2314 -0.0547
 1883W        W 2747  13.656  15.616  17.032 -0.0813 -0.0993  0.2364
 1884W        W 2748   7.674  13.269  26.652  0.3400  0.0493 -0.1672
 1885W        W 2749   1.528  26.731   6.745 -0.3034  0.1224 -0.0251
 1886W        W 2750  19.592  13.958   1.154 -0.0714 -0.2336 -0.0312
 1887W        W 2751  23.295  22.060  16.723 -0.2179  0.1195 -0.0730
 1888W        W 2752   7.179  26.969   4.634 -0.0567  0.3140  0.2823
 1889W        W 2753  18.062  27.412  24.832  0.0625  0.0885 -0.0179
 1890W        W 2754  22.929  15.031  28.008  0.0372 -0.2730  0.0057
 1891W        W 2755  26.510  13.000  28.518  0.0844 -0.0358  0.2392
 1892W        W 2756  10.929   7.040   5.380  0.0234 -0.2734  0.1942
 1893W        W 2757  28.992   1.920   7.902  0.1849  0.0131  0.1085
 1894W        W 2758   6.784   5.809   9.858  0.0601  0.2352 -0.0379
 1895W        W 2759  26.905  17.661  15.040  0.1193 -0.1504 -0.2293
 1896W        W 2760   2.126   2.930  28.374 -0.1983 -0.2763  0.0505
 1897W        W 2761  15.345  12.318  15.029 -0.2200  0.0657 -0.0837
 1898W        W 2762  19.648  19.471  22.242 -0.3700  0.2838  0.3320
 1899W        W 2763   0.435  11.643   2.765  0.0172  0.0815 -0.1285
 1900W        W 2764  23.768   7.425   0.515 -0.0256 -0.0205 -0.2565
 1901W        W 2765  16.004  10.386  17.377  0.3433  0.1145 -0.2107
 1902W        W 2766  12.287   6.972  23.345 -0.0586  0.1014  0.1718
 1903W        W 2767  24.562  28.624   9.233  0.1467  0.0417 -0.6503
 1904W        W 2768  17.824  19.009   1.087 -0.0255  0.0633 -0.2341
 1905W        W 2769   1.716  16.574   2.723  0.1609 -0.1224  0.1693
 1906W        W 2770   8.005  15.587  17.873 -0.1566 -0.1594 -0.1124
 1907W        W 2771   5.159   7.583  15.205 -0.2765  0.2283  0.0416
 1908W        W 2772  28.488   1.668  17.962 -0.1385 -0.1987 -0.2081
 1909W        W 2773   8.359   2.238  17.401  0.2433  0.2214 -0.2900
 1910W        W 2774  16.356   8.996  21.624  0.1244 -0.1542 -0.0097
 1911W        W 2775  16.577   3.495  23.149  0.2178 -0.2454 -0.4240
 1912W        W 2776  18.811  24.749  27.258 -0.0683 -0.2175 -0.0249
 1913W        W 2777   7.906  19.283  23.458 -0.0000 -0.2233  0.2459
 1914W        W 2778  17.262   5.175  17.723 -0.0566  0.2151 -0.1159
 1915W        W 2779  20.138  19.447  27.628  0.2487 -0.1745 -0.3529
 1916W        W 2780   0.899  19.935   4.523 -0.0347 -0.1474  0.0716
 1917W        W 2781  27.032  25.059  18.969  0.1709 -0.0662 -0.2998
 1918W        W 2782   7.695  19.547  25.476  0.2150 -0.1367  0.4087
 1919W        W 2783  14.480  13.860  20.581  0.0505  0.1337 -0.2118
 1920W        W 2784  22.990   1.194  23.259 -0.1694  0.0348 -0.2771
 1921W        W 2785  10.085  22.665   4.366  0.0638 -0.0283  0.2535
 1922W        W 2786  21.066  17.134  24.476  0.0308  0.2550  0.0403
 1923W        W 2787  25.251  14.856   7.983 -0.0257 -0.1881  0.2386
 1924W        W 2788  19.361  20.488  18.080  0.1152 -0.1020 -0.0934
 1925W        W 2789  16.668  12.286  27.767 -0.1066 -0.2499  0.1745
 1926W        W 2790   5.086  16.933   9.773 -0.0582 -0.3020 -0.2548
 1927W        W 2791  21.174  27.030   1.310  0.2869  0.1259  0.2204
 1928W        W 2792   0.349   7.731   7.885  0.0392  0.0724  0.1243
 1929W        W 2793  16.808   0.507  15.934  0.0072  0.1604  0.0987
 1930W        W 2794  16.067   9.207   5.671  0.2442 -0.2373 -0.0637
 1931W        W 2795  18.756  12.000   3.552 -0.3176 -0.1020  0.1095
 1932W        W 2796  14.764  23.187   3.365  0.3028 -0.1813 -0.0912
 1933W        W 2797  12.621  20.679  24.904 -0.1503  0.1126 -0.2353
 1934W        W 2798  18.716  24.105  21.613  0.0373 -0.3878 -0.2117
 1935W        W 2799  15.531  18.083   0.675  0.1748  0.2416 -0.0946
 1936W        W 2800  10.814  26.742   6.680  0.5204  0.0677 -0.0384
 1937W        W 2801  22.272  24.332   0.428  0.1431  0.1716 -0.1864
 1938W        W 2802  18.895   0.606  19.233 -0.0760  0.2304 -0.1614
 1939W        W 2803  29.105  13.385  14.839 -0.0807  0.0014 -0.3369
 1940W        W 2804  27.151   8.707   7.973  0.3207 -0.2323 -0.1670
 1941W        W 2805   9.316   3.491   4.106 -0.1223  0.1015  0.2409
 1942W        W 2806   7.263   2.805   2.043 -0.0603  0.2799  0.1484
 1943W        W 2807  11.437  27.567   4.645 -0.5773 -0.0216  0.1642
 1944W        W 2808  14.376  13.198   7.328  0.4705 -0.0311  0.0993
 1945W        W 2809  11.605  14.351  25.110  0.0999  0.0932 -0.0558
 1946W        W 2810   3.304  18.682   9.301  0.0421  0.2105  0.1879
 1947W        W 2811  21.180  17.440  16.596  0.1638 -0.0162  0.1123
 1948W        W 2812   8.039  14.194  28.464  0.3041  0.1227 -0.1300
 1949W        W 2813   2.282  27.960  22.813  0.0325  0.0100  0.1075
 1950W        W 2814  24.198  25.748  20.457 -0.3380 -0.0234  0.3331
 1951W        W 2815  11.546   8.017  22.891  0.1940  0.3321 -0.0580
 1952W        W 2816  20.825  19.175  20.166  0.0453  0.0826  0.0308
 1953W        W 2817   4.967   0.844  23.691  0.0145 -0.4161  0.2237
 1954W        W 2818   0.828  26.118  25.878 -0.0155 -0.0239 -0.0336
 1955W        W 2819   1.102  13.795   3.092  0.2653  0.0542  0.2308
 1956W        W 2820  21.526  10.169  25.397 -0.0493 -0.2303  0.0610
 1957W        W 2821   4.442  28.777   8.072 -0.0183 -0.0563 -0.0378
 1958W        W 2822  10.374   0.608  23.739 -0.2776  0.0570 -0.1445
 1959W        W 2823  18.255  19.685   0.059  0.2174 -0.3436  0.0004
 1960W        W 2824   0.176  25.830   1.249 -0.2184 -0.1866 -0.3945
 1961W        W 2825  12.724  22.416   7.406 -0.2140  0.0269 -0.1531
 1962W        W 2826  12.221  27.479  15.469  0.1779 -0.0631 -0.0344
 1963W        W 2827  20.229   3.955  18.562 -0.0887 -0.3584 -0.0667
 1964W        W 2828  12.173  21.712  19.971  0.1248  0.1779 -0.0423
 1965W        W 2829  25.354  22.556   0.017 -0.2316  0.2750  0.3770
 1966W        W 2830   3.532   4.475  27.440 -0.1883  0.1183  0.1593
 1967W        W 2831   0.176  25.932  24.441 -0.2575  0.1903  0.0007
 1968W        W 2832  24.294   0.183  11.809 -0.0374 -0.0821 -0.1007
 1969W        W 2833   3.265  20.288  15.673 -0.3096 -0.3634 -0.1035
 1970W        W 2834  10.038  23.750  14.448  0.0999  0.1857 -0.2816
 1971W        W 2835   7.630  22.093  18.885  0.0229 -0.2513 -0.0005
 1972W        W 2836  21.438  20.204  27.868 -0.1025  0.2970 -0.2648
 1973W        W 2837  20.269  22.000  18.936 -0.0824  0.2519 -0.1688
 1974W        W 2838  27.129  27.696   0.944 -0.0534 -0.0072  0.0224
 1975W        W 2839   1.467  20.487   1.789  0.1323  0.2260 -0.0800
 1976W        W 2840  17.140   9.531  21.099  0.0342 -0.3719 -0.0744
 1977W        W 2841  16.116  17.728  10.296 -0.0950  0.0238 -0.2966
 1978W        W 2842   4.043  19.501  25.996 -0.1883  0.0059 -0.1470
 1979W        W 2843  18.798  11.430  16.404  0.0728 -0.2202 -0.1597
 1980W        W 2844  21.365  24.141   2.735 -0.2241 -0.0003 -0.4268
 1981W        W 2845  21.737  17.218   3.613  0.1761  0.0679  0.2507
 1982W        W 2846  25.751  27.708   3.951  0.2666 -0.0145 -0.2870
 1983W        W 2847   8.656  10.042  16.206  0.1430 -0.0368 -0.1602
 1984W        W 2848  17.324   5.695  16.764  0.0572 -0.0864  0.0706
 1985W        W 2849   2.110  15.778  14.785  0.5841 -0.1975  0.2183
 1986W        W 2850  10.338  23.851  10.568  0.0004 -0.2289  0.1311
 1987W        W 2851   0.372   7.753  18.036  0.0757 -0.0623  0.3240
 1988W        W 2852   0.206  19.208   4.791  0.1149  0.1560  0.0440
 1989W        W 2853  18.197  15.932   9.115 -0.0156  0.0087 -0.1285
 1990W        W 2854  11.160  26.895  14.819  0.0483 -0.2889  0.1321
 1991W        W 2855  16.274   7.360   0.296  0.0993  0.0566 -0.0047
 1992W        W 2856  18.427   7.221  27.182  0.0165  0.0925  0.1125
 1993W        W 2857  27.899  10.301   8.197 -0.2386 -0.3639 -0.1295
 1994W        W 2858  15.364  25.363  24.680 -0.3731 -0.0434 -0.0066
 1995W        W 2859  21.028   8.384  21.728  0.1296 -0.2362  0.1885
 1996W        W 2860  14.614  26.695   6.136 -0.1805 -0.1798  0.2058
 1997W        W 2861   7.298  23.610  19.819  0.1238  0.3070  0.1642
 1998W        W 2862   2.584  25.106   3.950  0.0149  0.2278 -0.1147
 1999W        W 2863   7.214   8.893  17.102  0.1268 -0.2845  0.0691
 2000W        W 2864   8.555   2.462   8.886 -0.1538  0.3088  0.1532
 2001W        W 2865  16.129   5.640   9.543  0.3037 -0.2698 -0.2215
 2002W        W 2866  14.657  20.470  25.998  0.0872 -0.3082 -0.2130
 2003W        W 2867  19.476  10.303  21.040  0.0631  0.1525 -0.1718
 2004W        W 2868  19.095  25.366   1.246  0.2565  0.3372  0.2594
 2005W        W 2869  22.124  21.767  13.077  0.3958  0.1177 -0.1748
 2006W        W 2870  27.234  29.081  26.163  0.0475  0.2638 -0.0049
 2007W        W 2871   7.185  12.129  16.893  0.4263 -0.1907 -0.2548
 2008W        W 2872   3.710  20.021   2.667  0.1789 -0.1209 -0.0584
 2009W        W 2873  25.348   8.837  12.162  0.1890 -0.0087  0.0768
 2010W        W 2874   8.916   1.240  22.555  0.2776 -0.2180 -0.0020
 2011W        W 2875  18.933   9.621  25.296  0.0362  0.1558 -0.0686
 2012W        W 2876  16.448   1.680  11.826  0.0531  0.1468  0.1661
 2013W        W 2877   7.767  13.710  20.748  0.2882  0.1409  0.1059
 2014W        W 2878  26.723   2.351   1.610  0.1421 -0.1845 -0.0580
 2015W        W 2879  25.303   0.469  24.791  0.3131  0.2340  0.2013
 2016W        W 2880  25.818   6.496   4.452  0.2228 -0.3141  0.2091
 2017W        W 2881  12.288  17.943   1.345  0.0299  0.0623  0.0139
 2018W        W 2882  16.200  23.139  21.396  0.0784  0.0236 -0.0132
 2019W        W 2883  28.259  20.444  12.867 -0.0458  0.1085  0.3216
 2020W        W 2884  19.306   2.701  24.954  0.2886 -0.3190  0.1973
 2021W        W 2885   0.654   1.577  16.662  0.1661  0.1180 -0.1494
 2022W        W 2886  12.266  28.953  20.560 -0.0046 -0.1281 -0.2032
 2023W        W 2887   4.697   6.321  15.248 -0.0638 -0.1411 -0.0958
 2024W        W 2888   7.844  20.091  24.652  0.1630 -0.1329  0.1204
 2025W        W 2889  21.834  27.056  24.992  0.2213 -0.0547  0.2523
 2026W        W 2890   5.006   9.801  13.538 -0.1190 -0.0577  0.1556
 2027W        W 2891  14.279  22.022  26.508  0.0832 -0.2465 -0.0891
 2028W        W 2892   8.127   6.078  27.850 -0.0729  0.3770 -0.0290
 2029W        W 2893  11.706   2.374   6.902  0.1436  0.2660  0.0266
 2030W        W 2894  18.093  21.454  25.695  0.0109 -0.0376  0.0633
 2031W        W 2895   1.885  27.004  22.092 -0.4265  0.0972 -0.2317
 2032W        W 2896  14.248   6.985   6.409 -0.1134  0.2972  0.2141
 2033W        W 2897   8.481   0.520  10.674  0.1656  0.5116 -0.2954
 2034W        W 2898   0.040  26.286  23.700 -0.0496  0.0789  0.1802
 2035W        W 2899  26.924  26.640  24.964 -0.1213 -0.1508  0.0826
 2036W        W 2900  15.061  19.683  20.600  0.2253 -0.1277  0.2839
 2037W        W 2901  21.472   6.878  19.724 -0.4163 -0.1600 -0.2364
 2038W        W 2902  29.057  11.045  18.350  0.0532  0.1115 -0.0436
 2039W        W 2903  24.733   6.278  17.788  0.1152 -0.3447  0.2319
 2040W        W 2904  22.223  17.083  15.008 -0.1695 -0.0638  0.1710
 2041W        W 2905  27.858  23.354   0.571  0.0195 -0.2670 -0.2801
 2042W        W 2906  26.468  28.850   0.212  0.2183 -0.1399 -0.2591
 2043W        W 2907   0.734  24.186  22.601  0.0451 -0.3148  0.1994
 2044W        W 2908  20.706  28.442  27.117 -0.0095 -0.2922 -0.2213
 2045W        W 2909   6.851  20.988   1.141  0.0456  0.0562 -0.0018
 2046W        W 2910  21.172   8.420  23.040 -0.0435 -0.1880 -0.1429
 2047W        W 2911  16.268  19.891  13.863 -0.1905  0.3658 -0.2401
 2048W        W 2912  25.412  23.520  15.933 -0.0577 -0.2496  0.2593
 2049W        W 2913   4.505  18.768  12.975 -0.1129 -0.4606  0.2415
 2050W        W 2914  26.076  26.031  20.473  0.1747 -0.1992 -0.0586
 2051W        W 2915  11.640  23.817   4.857  0.0708 -0.1391 -0.1717
 2052W        W 2916  15.814   1.543   9.997 -0.1355 -0.2478 -0.2584
 2053W        W 2917  12.020   0.729  18.289  0.1610 -0.1992  0.2741
 2054W        W 2918  20.624   8.422  14.185 -0.0530 -0.0288  0.1757
 2055W        W 2919   9.145   1.578  20.840  0.3116  0.2339  0.0169
 2056W        W 2920  25.059  26.737   3.763 -0.4662 -0.1780  0.0245
 2057W        W 2921   7.330  22.078  24.920 -0.2997 -0.2849 -0.0047
 2058W        W 2922   7.378   9.688  15.874  0.0788 -0.0254  0.1954
 2059W        W 2923  12.835  25.532  20.939 -0.3768  0.0478  0.1359
 2060W        W 2924   2.905   5.925  28.686 -0.0357 -0.0684 -0.0106
 2061W        W 2925   0.709  20.015  20.238  0.0394  0.0707  0.3793
 2062W        W 2926  14.111   6.691   7.308 -0.0446 -0.2978 -0.1239
 2063W        W 2927  25.999  25.033  21.202  0.0634 -0.1043 -0.2681
 2064W        W 2928   4.557  16.328   3.930  0.0724  0.0645 -0.2550
 2065W        W 2929   7.756   3.741   3.211 -0.3075  0.1826  0.0200
 2066W        W 2930   7.924  10.999  15.797 -0.4175  0.0778  0.2432
 2067W        W 2931   6.110  23.501   9.958  0.0974 -0.0343 -0.3410
 2068W        W 2932  21.374  10.657  23.127  0.1258  0.1900  0.1650
 2069W        W 2933   9.937  25.684  15.068  0.3555 -0.0457 -0.2112
 2070W        W 2934  18.841   3.112  21.164  0.0668  0.2178  0.0197
 2071W        W 2935  16.351  13.220  21.095  0.1178 -0.1598  0.0117
 2072W        W 2936   0.495   9.399  15.306 -0.0579  0.2440 -0.0190
 2073W        W 2937  21.358   7.913  27.520  0.0156 -0.1036  0.1373
 2074W        W 2938   7.076   8.344  14.527 -0.0435 -0.4474 -0.0234
 2075W        W 2939  11.816   1.420  16.796 -0.1674 -0.3462  0.1645
 2076W        W 2940   0.995  24.372   2.931 -0.1027  0.2777 -0.2387
 2077W        W 2941  22.195   6.147  21.509  0.0058  0.0813 -0.0912
 2078W        W 2942  22.445   9.457  25.872 -0.0297  0.0405 -0.0681
 2079W        W 2943  16.488   2.151  17.180 -0.0557  0.3823 -0.1559
 2080W        W 2944  12.805   6.718  18.624 -0.2547  0.1639  0.0283
 2081W        W 2945  18.792   1.484  12.544  0.1266  0.1566  0.1121
 2082W        W 2946   4.827  24.384  21.563  0.2847  0.0095 -0.0723
 2083W        W 2947  12.739  14.613  20.311  0.0677  0.1650  0.2429
 2084W        W 2948   3.849  16.730  25.136  0.2675  0.2152  0.0303
 2085W        W 2949  11.949  21.647  22.175  0.0159  0.1962  0.1487
 2086W        W 2950  16.507  14.351   7.457 -0.1240 -0.1760  0.0241
 2087W        W 2951   6.278  13.842   7.906  0.2239  0.1206 -0.0880
 2088W        W 2952  17.005  18.649  24.168  0.0620  0.0200  0.5558
 2089W        W 2953   6.433  28.168   0.054 -0.0159  0.2055  0.2178
 2090W        W 2954  19.244  26.624  15.340  0.0335  0.0199  0.1210
 2091W        W 2955  17.446   2.513  23.891 -0.0454  0.1403 -0.1537
 2092W        W 2956  29.032   4.835  11.091 -0.2002 -0.1794 -0.3875
 2093W        W 2957  22.729  24.902  10.855  0.1716 -0.2127  0.0147
 2094W        W 2958   2.287   2.344  23.867 -0.2049  0.1661  0.1251
 2095W        W 2959  14.835  10.986  12.859  0.1108 -0.0576  0.0002
 2096W        W 2960  17.219  27.913  11.512 -0.1257 -0.1679 -0.2087
 2097W        W 2961   9.873   9.860  10.860 -0.0019  0.2619 -0.0783
 2098W        W 2962  14.368  17.471  17.621 -0.0464 -0.0130 -0.2124
 2099W        W 2963   3.519  19.974  14.596  0.0660 -0.2454 -0.0628
 2100W        W 2964  18.699   8.030   2.182  0.1353 -0.3087  0.0225
 2101W        W 2965  21.698  20.428   5.538  0.2945  0.0261 -0.1681
 2102W        W 2966   9.691  25.269   9.304 -0.2647  0.3016  0.1423
 2103W        W 2967   4.366  27.172  10.758  0.0008 -0.3281 -0.0022
 2104W        W 2968   2.895  20.919   0.477 -0.1881 -0.1452 -0.1486
 2105W        W 2969  21.184  17.144  22.165  0.1624 -0.0996  0.1132
 2106W        W 2970  20.211  15.451   8.758  0.3141 -0.1257  0.1266
 2107W        W 2971  17.362   3.123  14.452 -0.1930  0.3677  0.2446
 2108W        W 2972  11.676  27.544   8.915 -0.0386 -0.0448 -0.5591
 2109W        W 2973  16.780  12.723  10.119 -0.1516  0.0680  0.2962
 2110W        W 2974   1.318  20.051  25.547 -0.4146  0.2893  0.2224
 2111W        W 2975  11.189  16.440  22.970  0.2128 -0.3025  0.0883
 2112W        W 2976  18.160  28.145   8.173  0.0731  0.2727 -0.1018
 2113W        W 2977  28.026  18.287   8.280 -0.0367  0.0026 -0.2003
 2114W        W 2978   5.434   1.491  28.410  0.0494 -0.0522  0.0316
 2115W        W 2979   8.881  25.658  23.918 -0.0534  0.0075 -0.0404
 2116W        W 2980  13.279  28.258   3.525  0.0786 -0.1960 -0.3144
 2117W        W 2981   6.959   7.759   0.626 -0.2322 -0.0679 -0.1191
 2118W        W 2982  22.394  19.426  24.700 -0.1811  0.2772  0.1044
 2119W        W 2983  26.909  18.854   6.715  0.0988  0.4425  0.0054
 2120W        W 2984  25.719   5.355  16.999 -0.1580 -0.0521  0.0951
 2121W        W 2985  20.178  26.439  21.356  0.2909  0.2634  0.2506
 2122W        W 2986  12.307  27.173  11.510  0.0790  0.4642  0.1072
 2123W        W 2987  22.481  25.855   0.585  0.0577 -0.1619 -0.0444
 2124W        W 2988  21.922   2.197  26.422 -0.0036 -0.4879 -0.1448
 2125W        W 2989  12.641  29.038  18.175 -0.0619 -0.0851  0.0554
 2126W        W 2990   3.017  19.073  23.382 -0.1364  0.3546 -0.0055
 2127W        W 2991  11.727  24.341   5.006 -0.1135  0.2496 -0.1461
 2128W        W 2992  26.542  17.719  27.588 -0.3401  0.0438 -0.0770
 2129W        W 2993  28.499   7.247  20.845 -0.0658  0.1404 -0.3301
 2130W        W 2994   6.934   3.814  17.416 -0.0112  0.0688 -0.4411
 2131W        W 2995  18.325  25.657  25.814 -0.0480 -0.1994  0.0443
 2132W        W 2996  20.021   7.944  10.204 -0.2845 -0.0828 -0.0573
 2133W        W 2997  24.648   2.106  22.348  0.0030 -0.1629  0.1295
 2134W        W 2998  18.889  10.584  12.449  0.2341 -0.0421 -0.2049
 2135W        W 2999  18.993   5.616   6.910 -0.1604  0.2189 -0.1758
 2136W        W 3000   3.383  22.933   1.812  0.1021  0.1087 -0.0822
 2137W        W 3001   8.224   4.021   4.025 -0.0996 -0.1108  0.2107
 2138W        W 3002  20.200   5.693   5.564 -0.0371  0.0015 -0.0075
 2139W        W 3003  12.647  27.730  11.790 -0.2195  0.0567  0.1647
 2140W        W 3004  10.966   8.691  16.091  0.4237 -0.0977  0.1150
 2141W        W 3005  20.540   9.097   7.367  0.1151  0.0368 -0.1126
 2142W        W 3006  14.953  27.394   7.344 -0.0395  0.0215 -0.0753
 2143W        W 3007   1.828   9.353   2.307  0.1346  0.0188 -0.3365
 2144W        W 3008  23.769   9.806   8.525  0.0395  0.0076  0.1737
 2145W        W 3009   4.585  25.577  21.779 -0.1329 -0.0987 -0.3224
 2146W        W 3010   7.204   9.997  19.799 -0.1076  0.0478 -0.1831
 2147W        W 3011  25.472   1.873  25.641  0.2261  0.0115 -0.2805
 2148W        W 3012  13.036  27.822   2.186 -0.2272  0.3216  0.2773
 2149W        W 3013   3.047  21.825   1.183  0.0654  0.0672  0.2237
 2150W        W 3014   5.748   0.078   4.664  0.0141 -0.2436  0.1607
 2151W        W 3015  18.426  22.373  29.020 -0.0579 -0.0877 -0.1506
 2152W        W 3016  19.073   8.770  21.431 -0.0668  0.0046  0.4317
 2153W        W 3017  18.042   6.563   3.664 -0.1278 -0.1738 -0.4122
 2154W        W 3018  18.072  15.195   2.859 -0.0517  0.1887  0.0320
 2155W        W 3019   5.290  24.147  19.437 -0.1332 -0.1452 -0.0480
 2156W        W 3020  11.786  21.818   0.081 -0.1591  0.1529 -0.0524
 2157W        W 3021  11.335   8.365   6.310  0.3080  0.1476  0.1010
 2158W        W 3022   3.461   5.778  27.823 -0.2048 -0.0216 -0.1029
 2159W        W 3023  11.685  26.123  24.402 -0.0492  0.0181 -0.1167
 2160W        W 3024  10.466  27.736   1.627 -0.2969 -0.2039 -0.0693
 2161W        W 3025  18.188  20.034  19.005 -0.1817  0.2331 -0.0965
 2162W        W 3026   6.002  28.673   2.433 -0.0642 -0.1667 -0.2388
 2163W        W 3027   6.237  21.911   1.216 -0.0227 -0.0121 -0.1087
 2164W        W 3028  13.523  19.761   3.207  0.0734 -0.2180  0.0026
 2165W        W 3029  18.013   6.837  15.589  0.1865 -0.2448 -0.2594
 2166W        W 3030  28.266   8.041  20.756  0.0418 -0.0001  0.1587
 2167W        W 3031  18.609   0.231  26.915 -0.2071  0.1302  0.1040
 2168W        W 3032  18.481  23.952  28.625 -0.1482  0.3425 -0.1354
 2169W        W 3033  16.008  18.267   1.072  0.0795  0.1173 -0.1049
 2170W        W 3034  17.033   2.441  15.597 -0.0172 -0.2443 -0.2560
 2171W        W 3035  10.466  26.849  23.234 -0.2884 -0.0276 -0.1685
 2172W        W 3036  15.778   5.840  25.765  0.0732  0.0700 -0.2179
 2173W        W 3037  22.427  29.023  15.311  0.1153 -0.1461  0.0126
 2174W        W 3038  18.931  17.794  22.600 -0.2595 -0.1084  0.0309
 2175W        W 3039   1.391  22.931  22.740  0.0591  0.0864 -0.2804
 2176W        W 3040  22.622  25.885   7.100 -0.1120 -0.1382  0.0908
 2177W        W 3041  22.445  26.710  25.099 -0.0162  0.0629  0.4150
 2178W        W 3042  21.921  27.882  26.632 -0.1396  0.0010  0.0263
 2179W        W 3043  11.066  27.382   9.963  0.0006  0.0471 -0.1896
 2180W        W 3044  26.656  19.592  17.145 -0.0326  0.1408 -0.1304
 2181W        W 3045  10.843  10.402  28.057  0.1858  0.0079  0.1358
 2182W        W 3046  11.435  27.554  11.231  0.1591 -0.1036  0.1219
 2183W        W 3047  28.159   8.550  26.234 -0.2224  0.0269 -0.0486
 2184W        W 3048   5.875   6.227  23.055  0.0965  0.2439  0.0387
 2185W        W 3049  13.899  26.278  18.858  0.2075 -0.1208  0.0781
 2186W        W 3050  10.108  25.993  13.041 -0.1595  0.3475  0.0995
 2187W        W 3051  26.106  22.820   7.205  0.0817  0.1644  0.2348
 2188W        W 3052   7.234   1.436   1.226  0.1055 -0.4054 -0.0428
 2189W        W 3053  16.312   3.198  22.469 -0.0114 -0.2037 -0.0443
 2190W        W 3054  16.966  22.523  27.502  0.2860 -0.1080  0.1934
 2191W        W 3055  16.242  17.175  11.772 -0.1084 -0.1760 -0.1768
 2192W        W 3056  25.566  29.049  23.036  0.2551 -0.0475  0.0453
 2193W        W 3057  12.072  19.572  23.006 -0.2029  0.4037 -0.0255
 2194W        W 3058  12.975   9.360   6.897 -0.3152 -0.0755  0.0805
 2195W        W 3059  17.066  12.382  13.676 -0.2072 -0.2766  0.2432
 2196W        W 3060  26.179   8.835  13.744  0.0213 -0.0673  0.1241
 2197W        W 3061  28.941  26.817   2.142  0.0860 -0.2743 -0.1725
 2198W        W 3062   7.818   1.143  15.308  0.1340 -0.0709 -0.1302
 2199W        W 3063  27.495   0.763   3.581  0.0940 -0.1112  0.0517
 2200W        W 3064  22.409  12.344   5.612  0.0164 -0.0233  0.1258
 2201W        W 3065  18.154  10.676  28.755  0.1463 -0.1778  0.1300
 2202W        W 3066  18.212  25.475  19.133  0.2719 -0.2569  0.1971
 2203W        W 3067  26.639  16.507  10.043 -0.1589 -0.1027 -0.0764
 2204W        W 3068  13.408   3.508  20.009  0.1911  0.1104  0.1749
 2205W        W 3069   9.610   4.009  24.813 -0.0151 -0.0034 -0.0697
 2206W        W 3070   1.232  25.250   5.590 -0.2170  0.0294  0.2684
 2207W        W 3071  18.377  20.836   2.444  0.0312  0.0829 -0.1790
 2208W        W 3072  15.119  26.123  10.101  0.2635  0.1843  0.2311
 2209W        W 3073  27.740  24.347  21.674 -0.1937 -0.0120  0.0264
 2210W        W 3074  27.889   2.687  25.864 -0.1801 -0.0313  0.0867
 2211W        W 3075   6.183  23.891  13.844  0.0900 -0.1457 -0.0684
 2212W        W 3076  28.932  15.799  13.087 -0.0893  0.1019 -0.0979
 2213W        W 3077  13.440  27.337   9.804 -0.1487 -0.0958 -0.2569
 2214W        W 3078  19.126  23.675  23.820  0.2158 -0.0779  0.2883
 2215W        W 3079  20.118  18.058  24.666 -0.2065 -0.0399  0.0752
 2216W        W 3080  23.401  10.187   3.946 -0.1868  0.0890  0.0040
 2217W        W 3081  18.720   4.380   5.005  0.0891 -0.2621 -0.3759
 2218W        W 3082  17.935  24.336  19.302  0.0009 -0.0725 -0.2957
 2219W        W 3083  21.562  25.859   9.586 -0.1191 -0.3341 -0.0227
 2220W        W 3084   2.390  28.633   0.504  0.0182  0.2006 -0.0208
 2221W        W 3085  24.242   8.466   2.793 -0.1261  0.0133  0.2268
 2222W        W 3086   5.023   1.314  20.921  0.0943  0.3456  0.0937
 2223W        W 3087  11.528  11.348  18.715  0.1465 -0.2975  0.1630
 2224W        W 3088   1.505  19.387  28.092 -0.0125  0.1055 -0.0941
 2225W        W 3089   5.773  15.284   9.448  0.4148  0.3113 -0.3406
 2226W        W 3090   2.457   2.230   1.969 -0.1361  0.1044 -0.5079
 2227W        W 3091  10.775  27.239  28.142  0.0128 -0.1154 -0.2540
 2228W        W 3092  20.880  24.811  28.756 -0.1891 -0.1575 -0.1763
 2229W        W 3093  17.672  16.759  26.867 -0.1430  0.0592 -0.3122
 2230W        W 3094  15.365   8.408   7.956 -0.0513 -0.0368  0.0998
 2231W        W 3095  24.348   4.612  25.693  0.2911 -0.0875  0.1116
 2232W        W 3096  18.402  14.808  25.646 -0.1102 -0.3245 -0.0737
 2233W        W 3097  18.864   2.000  26.303  0.1319  0.0891 -0.0495
 2234W        W 3098  16.844  20.250  10.740 -0.0607  0.1389 -0.2085
 2235W        W 3099  10.578  22.995   3.659 -0.0059 -0.0937  0.0375
 2236W        W 3100  12.212  20.873   9.217 -0.0090 -0.1688  0.0881
 2237W        W 3101  13.802  25.365  26.439 -0.0853 -0.1246  0.0438
 2238W        W 3102  25.437  20.019   1.782  0.1486 -0.0196  0.3271
 2239W        W 3103  14.252  28.989   4.913  0.2879  0.0787 -0.1168
 2240W        W 3104  22.852  14.787  27.489  0.1710 -0.2084  0.1019
 2241W        W 3105  14.330  16.028  22.713  0.3530 -0.2275 -0.0283
 2242W        W 3106  11.255  24.512  27.003  0.1874  0.3123 -0.0892
 2243W        W 3107  22.582   6.490  26.709 -0.0972 -0.1524  0.2318
 2244W        W 3108  25.945   8.655   6.133 -0.2004  0.1498  0.0285
 2245W        W 3109  18.669  20.896  17.077  0.1939  0.1962  0.3028
 2246W        W 3110  23.608  14.247  24.611 -0.0815 -0.0269 -0.0998
 2247W        W 3111  25.442  11.306   9.631 -0.1513  0.0389 -0.0242
 2248W        W 3112   1.961   1.013   8.928  0.1235 -0.0219 -0.1802
 2249W        W 3113  14.958  11.102  11.047  0.1740 -0.2266  0.0521
 2250W        W 3114  20.126  10.185   2.060  0.0364 -0.2077  0.0453
 2251W        W 3115  13.584  22.077  21.673 -0.1396 -0.0302 -0.0884
 2252W        W 3116  18.629  26.795   3.209  0.1426  0.1000  0.0793
 2253W        W 3117  23.629  16.825  10.942  0.2200 -0.2578 -0.0322
 2254W        W 3118  16.572   4.762  14.778  0.0401  0.2384  0.2197
 2255W        W 3119   7.806  24.066   0.096  0.2189 -0.2016 -0.2148
 2256W        W 3120  11.383   1.208  25.674  0.1258  0.0228  0.1153
 2257W        W 3121  17.432  14.661  27.555 -0.3949 -0.2970  0.2986
 2258W        W 3122   0.454  15.576   3.165  0.0795 -0.4694 -0.1756
 2259W        W 3123   5.378  14.443  14.434 -0.0732 -0.1725  0.2325
 2260W        W 3124   9.471  28.814  26.785 -0.2570 -0.0662  0.0868
 2261W        W 3125  25.089   2.220  16.188 -0.2787  0.1305 -0.0171
 2262W        W 3126  13.389  22.532   9.365 -0.3318  0.0525  0.0388
 2263W        W 3127  11.363   5.734  17.349  0.1965 -0.0420 -0.0357
 2264W        W 3128   0.099  27.778   9.900  0.1381  0.2336  0.1371
 2265W        W 3129  19.253  28.330   1.712  0.0314 -0.1515  0.1931
 2266W        W 3130   9.143   5.503  28.672  0.0814  0.0622 -0.0364
 2267W        W 3131  20.872   0.525  27.158 -0.0497  0.1970  0.2314
 2268W        W 3132  27.746   0.344  23.312 -0.2025 -0.2002 -0.1998
 2269W        W 3133   4.965  24.397   4.576 -0.3443  0.0804 -0.0019
 2270W        W 3134  24.815  18.261  15.105  0.2492 -0.1757 -0.3040
 2271W        W 3135  14.773   1.241  17.569 -0.0456 -0.1129  0.1802
 2272W        W 3136   3.971   5.637  27.159 -0.2721 -0.1127  0.0636
 2273W        W 3137   0.594   8.034   2.511  0.2172 -0.3027 -0.0137
 2274W        W 3138   7.714  27.781  27.962  0.1666  0.4478 -0.4142
 2275W        W 3139  28.588   4.533  15.828 -0.2978 -0.1724 -0.1758
 2276W        W 3140  12.257  22.768  16.435  0.5572  0.3089  0.2481
 2277W        W 3141  14.070   0.565  27.779 -0.0925 -0.0603 -0.1176
 2278W        W 3142   6.529  25.984   0.185  0.2318 -0.0735 -0.1063
 2279W        W 3143  13.626   3.645   2.739 -0.0709 -0.2745 -0.0413
 2280W        W 3144   9.463   2.898  29.086 -0.2307  0.1766  0.0689
 2281W        W 3145  14.916  25.708   1.541 -0.0625  0.1571  0.0851
 2282W        W 3146   5.582  21.216  10.350  0.1525 -0.0532  0.1183
 2283W        W 3147  26.736  27.981  22.689 -0.3116  0.1554 -0.2076
 2284W        W 3148  11.272  21.383  28.384  0.0003  0.2304 -0.0232
 2285W        W 3149  15.020  28.991   2.802  0.3834  0.0966  0.0383
 2286W        W 3150  17.972   0.330   0.375  0.1447 -0.1432  0.1758
 2287W        W 3151  13.384   8.129  26.940 -0.0470  0.3566  0.0368
 2288W        W 3152  27.970  15.917  26.118 -0.3380 -0.0544  0.1271
 2289W        W 3153  15.448  11.012   1.108  0.0772  0.0228 -0.2184
 2290W        W 3154  15.954  28.713   4.125 -0.0135  0.0107  0.1587
 2291W        W 3155  12.295   0.675  18.681 -0.1429  0.1137  0.2456
 2292W        W 3156   4.847  21.940   8.427 -0.2724 -0.2313  0.1603
 2293W        W 3157  13.195  23.056  17.326 -0.1993  0.1344 -0.1829
 2294W        W 3158   1.028  24.151  20.856 -0.1582 -0.3144  0.0960
 2295W        W 3159  10.655  28.057  12.197 -0.2229 -0.0043 -0.0891
 2296W        W 3160  14.705  24.515  17.277 -0.1110 -0.0187 -0.1481
 2297W        W 3161  23.665   0.052  15.322 -0.2472  0.0269 -0.1396
 2298W        W 3162   9.114  25.211  16.762  0.4050 -0.2124  0.0903
 2299W        W 3163  22.926  26.844  22.556 -0.3705  0.0381  0.1031
 2300W        W 3164   2.785   4.335  27.968 -0.2562 -0.2222  0.0422
 2301W        W 3165  18.910  20.398  26.754 -0.0811  0.1779  0.0153
 2302W        W 3166   5.914   3.990   3.117  0.1386 -0.2096 -0.3139
 2303W        W 3167  19.713  18.722   5.640 -0.3075 -0.1943 -0.1848
 2304W        W 3168   4.185   7.457  18.762  0.0264 -0.0318  0.0867
 2305W        W 3169  12.912  28.631   6.980 -0.1094 -0.0304 -0.0133
 2306W        W 3170  29.080   5.869  21.094 -0.0746 -0.1190  0.0809
 2307W        W 3171   5.706   7.599  25.957 -0.3566  0.2178 -0.1776
 2308W        W 3172   7.765  16.980  24.727 -0.1260 -0.2547  0.0099
 2309W        W 3173  28.495   8.729   0.968  0.1022  0.1351  0.0286
 2310W        W 3174  17.826   4.522  27.919 -0.1779  0.0337  0.2043
 2311W        W 3175   3.519  16.162   7.373 -0.1079  0.0873 -0.1823
 2312W        W 3176   7.252   0.544  26.824 -0.2904 -0.2227 -0.3849
 2313W        W 3177   1.858  29.013   8.343  0.1370  0.2268 -0.4086
 2314W        W 3178  12.409  15.705  22.781 -0.0148 -0.0923 -0.0535
 2315W        W 3179  19.555  24.182   9.144 -0.4775  0.0327  0.1095
 2316W        W 3180   5.196  12.092   2.239  0.1813 -0.0905  0.0779
 2317W        W 3181  25.426   5.814  27.949  0.1137  0.0097  0.1509
 2318W        W 3182  16.860   2.128  27.409  0.2804 -0.2365  0.0279
 2319W        W 3183   0.505  24.555  24.426 -0.0436  0.0117 -0.0575
 2320W        W 3184  13.534  15.643  14.899  0.0446 -0.1835 -0.1994
 2321W        W 3185   1.588  22.250  18.077  0.2184  0.0635 -0.1677
 2322W        W 3186   9.326  27.123  13.860  0.0437  0.2830  0.1720
 2323W        W 3187  15.901   2.549  23.763 -0.0043  0.1162  0.1462
 2324W        W 3188   0.678  20.753  23.806 -0.1701 -0.1907  0.0542
 2325W        W 3189  22.038   5.223  23.638 -0.1479 -0.4107  0.0005
 2326W        W 3190  29.053  21.621   5.562 -0.1459 -0.0840 -0.0303
 2327W        W 3191   9.287   1.695   3.920  0.0572  0.2264 -0.1765
 2328W        W 3192   1.456   4.692   1.675 -0.0610 -0.1426  0.1647
 2329W        W 3193  17.356   9.760  18.823 -0.1192 -0.0258 -0.0054
 2330W        W 3194   5.931   1.612  14.013  0.2665 -0.0066 -0.1075
 2331W        W 3195  14.360  13.526  19.655 -0.2455 -0.2901 -0.2093
 2332W        W 3196  11.148  25.034  28.730  0.3761 -0.1658  0.1949
 2333W        W 3197   4.814   4.073   3.358  0.1071  0.1740  0.1414
 2334W        W 3198   2.817  16.248   3.702 -0.1899  0.2003 -0.0219
 2335W        W 3199  26.290  12.547  15.096  0.1568  0.2850  0.1748
 2336W        W 3200  10.036  13.170   8.513  0.1330  0.0604  0.0550
 2337W        W 3201  13.704  22.938   9.317  0.0762  0.0950 -0.0763
 2338W        W 3202   4.719   1.537  13.519 -0.2017 -0.1849  0.0261
 2339W        W 3203  16.285  12.812   0.546  0.0309  0.1937 -0.0143
 2340W        W 3204  11.962   1.025   3.190 -0.0805  0.1097 -0.0203
 2341W        W 3205  11.063   0.692   9.574 -0.0478 -0.2404 -0.2662
 2342W        W 3206  15.624  18.856   4.268  0.2714  0.0820  0.1327
 2343W        W 3207  14.561  24.240  25.906  0.0449 -0.3416  0.1006
 2344W        W 3208  28.338  12.835   7.829  0.0628 -0.0569 -0.1965
 2345W        W 3209   4.702   0.827   5.327 -0.0370  0.2481 -0.2276
 2346W        W 3210   5.312  22.706   8.614 -0.2096 -0.1594 -0.1335
 2347W        W 3211  23.063  11.250   1.066 -0.3832  0.0498  0.0711
 2348W        W 3212   9.314  12.902  21.064 -0.0823 -0.0752  0.0382
 2349W        W 3213  19.249  22.209  23.321  0.2218  0.0779 -0.3501
 2350W        W 3214  28.743  11.165  25.743 -0.2042  0.1335 -0.2010
 2351W        W 3215  25.268  11.536  19.043  0.0380  0.1141 -0.1577
 2352W        W 3216  27.829   4.947  19.849  0.1144  0.1016  0.1243
 2353W        W 3217  22.525  10.730  22.791 -0.0095  0.0129 -0.2284
 2354W        W 3218   9.516  16.689   0.353  0.1341 -0.0698 -0.0102
 2355W        W 3219  11.506  18.717   3.285 -0.0662 -0.0483  0.1201
 2356W        W 3220  14.630  21.731  28.483  0.1050  0.2501  0.1357
 2357W        W 3221   0.746   0.480  24.858 -0.2276  0.2060 -0.2056
 2358W        W 3222  25.748   6.705   1.713 -0.0332 -0.1945  0.1536
 2359W        W 3223  11.927  16.586  18.448 -0.1451  0.1209 -0.0654
 2360W        W 3224  24.823  18.627  25.473 -0.0852 -0.1650 -0.0276
 2361W        W 3225   4.992   5.775  19.259  0.1997 -0.0245  0.0104
 2362W        W 3226  11.096  11.451   9.717  0.1023  0.3045  0.0681
 2363W        W 3227  21.413   9.667  22.922 -0.0020  0.0802 -0.1861
 2364W        W 3228  14.081  20.919   2.749  0.1119  0.2178  0.0403
 2365W        W 3229  15.188  19.742   2.164  0.0481 -0.2263  0.1804
 2366W        W 3230  19.938   1.327  19.949 -0.1367  0.2520  0.0711
 2367W        W 3231  18.289  25.236   6.345 -0.0459  0.2770  0.1908
 2368W        W 3232  14.701   8.900   9.987 -0.0326  0.0141  0.1310
 2369W        W 3233  27.487  28.023  23.191  0.0926  0.1085 -0.1883
 2370W        W 3234   7.286  13.858  27.489 -0.0265 -0.0623  0.0584
 2371W        W 3235  14.217   9.804   6.994 -0.1327 -0.0922  0.0109
 2372W        W 3236  17.431   1.926   5.678 -0.0114 -0.0855  0.2758
 2373W        W 3237   4.178   5.973   8.414  0.2356 -0.0639 -0.1624
 2374W        W 3238  10.970   7.649  18.481 -0.3545 -0.0383  0.0640
 2375W        W 3239  15.854   3.647  13.841  0.0559  0.2773 -0.2645
 2376W        W 3240   6.464   2.305   8.763  0.0583 -0.0576 -0.1236
 2377W        W 3241  19.227  11.854  24.000  0.0989 -0.1117 -0.0543
 2378W        W 3242   2.294   0.014  13.082 -0.2503  0.1899  0.1149
 2379W        W 3243   5.789   8.762   1.117 -0.0272  0.0560  0.1018
 2380W        W 3244   8.347  25.769   3.212  0.0473 -0.1502  0.1240
 2381W        W 3245  13.830  13.807   9.381 -0.0313  0.0272 -0.1346
 2382W        W 3246  15.303   7.503  19.739 -0.3215 -0.2668  0.0675
 2383W        W 3247   1.247   5.278  21.981 -0.2893 -0.0539  0.1442
 2384W        W 3248  24.035   0.452  28.705 -0.1086  0.1060  0.0658
 2385W        W 3249  27.015   4.781  28.208 -0.0756 -0.2181  0.0446
 2386W        W 3250  23.627   2.208  23.214 -0.2448 -0.1025 -0.2300
 2387W        W 3251  20.912   6.681   7.500  0.0922 -0.1658 -0.0205
 2388W        W 3252  25.997  21.807  27.716  0.1309 -0.0272 -0.2506
 2389W        W 3253  13.161  10.737  22.195  0.1504  0.2576  0.3625
 2390W        W 3254   0.494  21.482  17.409 -0.1716 -0.0413  0.2266
 2391W        W 3255  12.052   1.410  14.632 -0.2449  0.1610 -0.3012
 2392W        W 3256  17.855  27.741   8.159 -0.2145 -0.0178  0.0419
 2393W        W 3257  16.890  21.897  16.757 -0.1915 -0.0327  0.0993
 2394W        W 3258  10.706  13.671  16.386 -0.1490  0.0078  0.0129
 2395W        W 3259   3.478  23.140  27.941  0.0297 -0.4376  0.0737
 2396W        W 3260   8.146  28.358  10.346 -0.2767  0.1236  0.3319
 2397W        W 3261  14.848   2.813  25.586  0.1591  0.1083  0.0064
 2398W        W 3262  15.573  25.962  10.482  0.1414  0.1347 -0.1863
 2399W        W 3263  21.297  29.004  11.415  0.1384  0.2921 -0.2263
 2400W        W 3264  20.012   5.726  25.457 -0.1525 -0.0037 -0.0092
 2401W        W 3265   8.967   5.350   7.625  0.0966  0.1706 -0.1359
 2402W        W 3266  20.372  21.367  15.091 -0.2443 -0.0274  0.0232
 2403W        W 3267   5.127   6.835  23.493  0.2333  0.0150 -0.1862
 2404W        W 3268  12.288   1.117   1.534 -0.0147 -0.2409  0.1972
 2405W        W 3269  23.609  14.510   2.642  0.3252  0.1133 -0.0913
 2406W        W 3270   7.533  22.620  24.638  0.0204 -0.0125  0.1091
 2407W        W 3271  27.523  13.428  24.564 -0.2316  0.2532  0.0381
 2408W        W 3272  18.891  28.512   2.929  0.1716 -0.0222  0.2701
 2409W        W 3273  10.729  24.462  11.380  0.0466 -0.3149 -0.0897
 2410W        W 3274   6.281  11.655   8.886  0.0031  0.1606 -0.1386
 2411W        W 3275   8.250  25.054  22.413  0.0313  0.1386 -0.1051
 2412W        W 3276   0.218  19.791   0.191  0.0407 -0.0572  0.2406
 2413W        W 3277   7.429   2.488  11.130  0.0601  0.4288 -0.3990
 2414W        W 3278   4.104  21.877  24.133 -0.1902  0.0385  0.1518
 2415W        W 3279   9.074  17.912  29.018 -0.1187  0.0091 -0.4104
 2416W        W 3280  12.007   1.944  22.969 -0.0461  0.2434 -0.0249
 2417W        W 3281  17.907  21.721   4.129  0.4104 -0.0825 -0.0262
 2418W        W 3282  15.240  12.604  28.347  0.1026 -0.0814 -0.0480
 2419W        W 3283  21.698  19.631   4.630 -0.1509 -0.1225 -0.2086
 2420W        W 3284  22.862  26.179  15.629  0.5050 -0.2415 -0.2179
 2421W        W 3285   4.696   2.742  24.367  0.2179 -0.2498  0.1653
 2422W        W 3286  25.510  27.280   2.414 -0.2588  0.0091 -0.1733
 2423W        W 3287  16.419  17.800   0.731 -0.0129  0.2223 -0.2170
 2424W        W 3288  16.370   2.240  19.632  0.1047  0.0422 -0.1184
 2425W        W 3289  24.725   3.319   0.048  0.2354 -0.2646  0.1705
 2426W        W 3290  28.342  10.251  11.768  0.3701  0.3006  0.6301
 2427W        W 3291  16.033   5.926  28.576 -0.0673  0.1093  0.0477
 2428W        W 3292  14.962   9.031  25.551 -0.1262  0.0902 -0.0541
 2429W        W 3293   6.371  23.798   2.547  0.1105  0.1593  0.0975
 2430W        W 3294   6.890   7.538  27.632  0.2151  0.0511  0.0254
 2431W        W 3295  23.896   8.050  28.645  0.0504  0.2084 -0.2195
 2432W        W 3296  27.049  17.269   5.861 -0.0903  0.4256 -0.2161
 2433W        W 3297  20.969   5.310  23.627 -0.1989 -0.0920  0.1629
 2434W        W 3298  28.479  22.173  16.504  0.1155  0.0017 -0.5263
 2435W        W 3299  25.527  26.886  20.075  0.4555  0.1314 -0.1695
 2436W        W 3300   7.527  28.912  20.557  0.2350  0.2177  0.0157
 2437W        W 3301   6.725   1.472   7.702 -0.0314  0.2234 -0.2848
 2438W        W 3302  23.430  28.878   3.698  0.2828 -0.0731  0.1296
 2439W        W 3303  22.477  24.913  26.262  0.1797  0.1970  0.0886
 2440W        W 3304  12.228  12.569   1.822 -0.1252  0.3019  0.1000
 2441W        W 3305  29.106   1.418  20.279  0.0094  0.2710 -0.2152
 2442W        W 3306  21.336  24.422  13.747 -0.1863 -0.3225 -0.1262
 2443W        W 3307  14.829  14.847  15.847  0.1621 -0.0901  0.0525
 2444W        W 3308   6.120   0.110   4.174 -0.1623  0.0328 -0.1491
 2445W        W 3309   9.268   2.331   9.651 -0.1296  0.1166 -0.0456
 2446W        W 3310   3.607  19.907  24.509 -0.0593  0.0280  0.1240
 2447W        W 3311  19.313   5.627  10.536 -0.1711 -0.0315 -0.5527
 2448W        W 3312  13.071   5.163  12.704 -0.1321 -0.0330 -0.0167
 2449W        W 3313  11.568  24.095  20.821 -0.0654 -0.0122  0.0233
 2450W        W 3314   3.988   8.991  14.851  0.0066  0.0355  0.0384
 2451W        W 3315  15.701  20.168  23.457  0.1549  0.2174 -0.1575
 2452W        W 3316  11.133   8.692   8.130 -0.0737 -0.0594 -0.0379
 2453W        W 3317  15.799   3.477  20.870 -0.1068 -0.1161  0.0880
 2454W        W 3318  17.930  15.179  13.996  0.0300  0.2196 -0.1241
 2455W        W 3319  10.387   1.035  20.762  0.2760 -0.0954  0.3398
 2456W        W 3320   6.341  19.374   4.106 -0.3062  0.0118 -0.0854
 2457W        W 3321  19.290  24.697  28.663  0.0969  0.0192 -0.4203
 2458W        W 3322  20.460  18.215  22.583  0.1626 -0.0983 -0.1494
 2459W        W 3323   5.203  25.318  26.161 -0.2027 -0.0768 -0.1387
 2460W        W 3324   9.899   0.843  16.287 -0.1465  0.3050 -0.0595
 2461W        W 3325  23.079  10.419  27.147 -0.5284  0.5333 -0.2291
 2462W        W 3326  27.906  26.974  27.510 -0.1825  0.2245  0.3100
 2463W        W 3327  15.231   7.182  15.147  0.2135  0.1963 -0.0188
 2464W        W 3328   3.063   9.603   2.191 -0.1202 -0.0205  0.2260
 2465W        W 3329  13.498  22.560  23.962 -0.1231  0.3412  0.3054
 2466W        W 3330  10.880  26.185  26.553 -0.0870  0.0059 -0.2765
 2467W        W 3331  23.386  24.775   8.954 -0.2149  0.0841  0.1869
 2468W        W 3332   0.656   8.100  13.384  0.1849 -0.0007  0.2806
 2469W        W 3333  23.498  19.503   1.818 -0.2746 -0.0112 -0.1228
 2470W        W 3334  26.812   7.849  17.306  0.2369 -0.1396 -0.1335
 2471W        W 3335  15.700  27.482   1.578 -0.0607  0.0310 -0.0373
 2472W        W 3336   9.999   0.037  24.182  0.0121  0.1048  0.1255
 2473W        W 3337  25.782  24.820  10.626 -0.3342  0.1666  0.2719
 2474W        W 3338   4.186  25.494  17.080 -0.2665  0.0502 -0.2394
 2475W        W 3339  25.960  23.915   8.228 -0.4321 -0.0750 -0.2013
 2476W        W 3340  11.671  19.753  24.681 -0.3670  0.1767 -0.1456
 2477W        W 3341   0.042   2.334  18.693 -0.1768 -0.0749 -0.0093
 2478W        W 3342  12.229  20.127  28.457 -0.0354 -0.1306  0.0240
 2479W        W 3343  27.786  16.908  15.198 -0.0164  0.0139 -0.0536
 2480W        W 3344   3.850  13.161  28.266 -0.1748  0.0857 -0.1383
 2481W        W 3345  25.088  24.380   9.659  0.2219  0.0115 -0.1788
 2482W        W 3346  19.277   3.872   4.514  0.0186  0.2692 -0.0921
 2483W        W 3347  14.319   1.904  22.356  0.0886  0.0886 -0.1668
 2484W        W 3348  14.078   7.434  19.649 -0.2223 -0.3277 -0.1448
 2485W        W 3349   2.005  21.792  25.220  0.5722  0.1442  0.0626
 2486W        W 3350  22.389  13.438  24.664  0.2163 -0.0166  0.2161
 2487W        W 3351  24.639   2.106  13.824 -0.0065  0.0800  0.1678
 2488W        W 3352   7.745  14.723   4.886 -0.0185 -0.0775 -0.2175
 2489W        W 3353   9.465   0.284   9.882  0.1062 -0.1095  0.3242
 2490W        W 3354  27.508   7.463   3.203  0.0217  0.4672 -0.1238
 2491W        W 3355  23.793  28.983  12.556  0.3222 -0.0351  0.0198
 2492W        W 3356  15.239  14.722  11.822 -0.0890  0.1012  0.0888
 2493W        W 3357  12.698   7.155  14.926  0.0917  0.4495 -0.1086
 2494W        W 3358  28.870  16.016   3.487  0.1113 -0.1059  0.0124
 2495W        W 3359   0.752  16.761  26.935  0.0747  0.0341 -0.0412
 2496W        W 3360   7.217   2.135   3.385 -0.0178 -0.0288 -0.0967
 2497W        W 3361   5.533  24.271  28.556 -0.0761 -0.2401 -0.1431
 2498W        W 3362  12.989   7.936   4.869  0.0883  0.0091 -0.3656
 2499W        W 3363  21.610  27.676  21.343 -0.0264 -0.0763  0.3095
 2500W        W 3364  21.260   3.263   9.606 -0.1491  0.2348 -0.3050
 2501W        W 3365   9.378   8.462  13.933 -0.4662  0.2038  0.0927
 2502W        W 3366  20.146  27.606  15.411 -0.0296 -0.3819  0.1689
 2503W        W 3367  21.058   8.505   9.281 -0.2027 -0.0217 -0.3024
 2504W        W 3368   3.358   5.782  24.311 -0.1128 -0.1714  0.1786
 2505W        W 3369  13.634   4.303  26.311  0.2533 -0.2595 -0.0609
 2506W        W 3370  11.775  22.251  13.551  0.1715 -0.2293  0.0958
 2507W        W 3371  27.982   5.073  11.138  0.1910 -0.0325 -0.3727
 2508W        W 3372  22.800  26.880  20.188  0.0799 -0.4759 -0.0571
 2509W        W 3373  20.524  12.957  23.198 -0.1899 -0.0443 -0.2563
 2510W        W 3374   3.942   6.378   2.500 -0.1117 -0.0913 -0.1818
 2511W        W 3375  17.055  23.900  17.852 -0.3852 -0.1232  0.2572
 2512W        W 3376   5.220  26.449  20.619 -0.3102 -0.3443 -0.0265
 2513W        W 3377   3.011  11.496   2.214 -0.1786 -0.1990  0.2608
 2514W        W 3378  16.703  23.909   8.955  0.1738 -0.1506 -0.0229
 2515W        W 3379   7.295  10.354  28.550 -0.1304  0.3499  0.2763
 2516W        W 3380   8.559  28.346  20.420 -0.1781  0.0946  0.0339
 2517W        W 3381  10.906  29.041   5.060 -0.0496 -0.2366 -0.1546
 2518W        W 3382  29.135  26.062   7.685 -0.1240  0.2898  0.0135
 2519W        W 3383   1.766  28.146  18.685  0.0496  0.0499 -0.0537
 2520W        W 3384  12.087   7.076  13.367 -0.2709 -0.0157  0.0632
 2521W        W 3385  28.976  13.066  14.373 -0.0275 -0.0543 -0.0536
 2522W        W 3386   2.103  18.322  28.001  0.3321  0.1679  0.1976
 2523W        W 3387   8.512   3.541   5.651 -0.0376 -0.1295  0.2352
 2524W        W 3388   9.585   1.493   9.216  0.0811 -0.3501  0.0160
 2525W        W 3389  21.256   6.069  10.894  0.0067 -0.0897 -0.1258
 2526W        W 3390   9.127  28.267   1.290 -0.0456 -0.0994  0.0002
 2527W        W 3391  15.878   2.019   3.249  0.0765 -0.2689  0.2652
 2528W        W 3392  26.423   4.510   9.925 -0.2760  0.5271 -0.1012
 2529W        W 3393   0.783   6.150   3.996  0.2419 -0.0828  0.0742
 2530W        W 3394  20.010   4.831   9.684 -0.0299  0.0189  0.0662
 2531W        W 3395  10.235  14.812  28.563 -0.1410  0.0349 -0.0048
 2532W        W 3396   2.893   3.880  10.309  0.0948  0.0152  0.0384
 2533W        W 3397   0.514  24.194  27.783 -0.1982 -0.1007 -0.0201
 2534W        W 3398  28.222  23.478   8.596  0.4014  0.2784  0.3017
 2535W        W 3399  12.825   6.299  18.839 -0.0101  0.1627  0.0498
 2536W        W 3400   2.738   6.220  13.453 -0.0108  0.1238  0.0990
 2537W        W 3401  11.333   0.017   7.099  0.0088 -0.0068 -0.0220
 2538W        W 3402  17.378  26.575  17.640  0.2480 -0.1748  0.1180
 2539W        W 3403   2.354   7.310  25.234 -0.2165  0.2302  0.1429
 2540W        W 3404  13.787  15.443   8.784  0.2488  0.1436  0.0769
 2541W        W 3405  19.394   9.101  19.005 -0.2406 -0.1235  0.1493
 2542W        W 3406  13.044  10.055  17.958 -0.2552  0.3594  0.1025
 2543W        W 3407  14.412   4.425   3.576 -0.1881 -0.0033 -0.2044
 2544W        W 3408  14.076  15.168  28.924  0.0040  0.3218  0.1825
 2545W        W 3409   9.764   0.646   1.921  0.2428 -0.0244  0.0857
 2546W        W 3410  28.129  26.082   9.162 -0.0707  0.3711 -0.0991
 2547W        W 3411   1.518  22.739  16.665 -0.0696  0.1240  0.2208
 2548W        W 3412  14.276   9.562  28.996  0.1920  0.0571 -0.1562
 2549W        W 3413  19.107   4.114   1.847  0.1144  0.0558 -0.2668
 2550W        W 3414   9.046  14.134  15.344  0.3091  0.0396 -0.0531
 2551W        W 3415  17.083  13.089   9.679  0.1477 -0.0904 -0.3283
 2552W        W 3416  14.186   6.864   8.514 -0.0799  0.2497  0.0152
 2553W        W 3417   6.727   0.059  17.702 -0.4202 -0.0552 -0.2249
 2554W        W 3418   9.864  14.256  25.407 -0.1595 -0.0351  0.1913
 2555W        W 3419  15.034  10.132  14.696  0.1406 -0.1156  0.0976
 2556W        W 3420  25.961  28.420   3.737  0.0633  0.0658  0.1104
 2557W        W 3421  13.669  28.522  16.564  0.1092  0.4200  0.2090
 2558W        W 3422  22.820  24.297  19.670 -0.0692  0.0740  0.0703
 2559W        W 3423  23.748   5.089   0.760 -0.0214  0.2733  0.0416
 2560W        W 3424  26.413  21.681  25.893 -0.1689  0.3238  0.0051
 2561W        W 3425  18.440  19.947   2.745 -0.0281 -0.0388  0.1433
 2562W        W 3426   3.981   3.533  25.615 -0.1632 -0.0371 -0.2073
 2563W        W 3427  24.160   2.434  15.791  0.0874 -0.1443  0.0640
 2564W        W 3428  12.092   9.662   2.215 -0.3382 -0.2424 -0.2230
 2565W        W 3429  15.604  13.304   5.404 -0.0188  0.1133 -0.0599
 2566W        W 3430  27.207  28.796   4.428  0.2943 -0.0631  0.1123
 2567W        W 3431  13.834   6.331  24.374 -0.0548  0.0898  0.3277
 2568W        W 3432   9.222   2.774   7.659 -0.1233  0.0044 -0.0734
 2569W        W 3433  11.294  15.296   7.288  0.1610  0.1058 -0.2026
 2570W        W 3434  22.900   8.149  26.860  0.1015  0.1400  0.0334
 2571W        W 3435  21.706  10.499   1.327 -0.3295 -0.0881  0.0616
 2572W        W 3436  27.501  26.858  27.851 -0.0802  0.1855  0.0605
 2573W        W 3437   4.713   4.020  23.901  0.1006 -0.0998  0.1864
 2574W        W 3438   8.370   9.306  12.820  0.0789  0.0932 -0.1599
 2575W        W 3439  22.044  23.536  28.046 -0.0210 -0.0608 -0.3318
 2576W        W 3440  21.583  21.320  20.725 -0.0984 -0.0977  0.1889
 2577W        W 3441  15.337   2.587  20.175  0.0931  0.2094  0.1562
 2578W        W 3442  25.304   5.486   3.205 -0.0371 -0.0479  0.1804
 2579W        W 3443  26.700   6.547  10.345 -0.2093  0.0731 -0.3995
 2580W        W 3444   9.754  21.573  27.599  0.0996 -0.2066 -0.0983
 2581W        W 3445  12.635  17.033  21.572  0.3026 -0.1866  0.0709
 2582W        W 3446  23.789   1.278   0.277  0.1086  0.1704 -0.1439
 2583W        W 3447   5.438   0.394  11.764  0.0307 -0.0846  0.0765
 2584W        W 3448   0.075  18.645  13.000  0.3612 -0.1361  0.0573
 2585W        W 3449  10.080   5.417   6.237  0.0678  0.0595  0.2151
 2586W        W 3450  20.036  24.775   1.593 -0.0308  0.0408 -0.0615
 2587W        W 3451  21.123  23.409  25.602 -0.0594 -0.2402  0.0548
 2588W        W 3452   6.931   2.857  28.436  0.1843  0.2389 -0.1967
 2589W        W 3453   7.320  27.683   2.363 -0.2081  0.2110 -0.0181
 2590W        W 3454  19.877   0.079   2.626 -0.5151 -0.0213  0.0141
 2591W        W 3455   8.388   1.606  19.973  0.0078 -0.1744  0.0095
 2592W        W 3456  12.052   8.375   8.308  0.1853 -0.0863 -0.1091
 2593W        W 3457  18.137  18.076  15.505 -0.0764 -0.1727  0.1432
 2594W        W 3458  10.123   6.876   1.926 -0.3083  0.4753  0.0319
 2595W        W 3459  10.342  23.434  28.867 -0.0190 -0.2052 -0.3150
 2596W        W 3460  28.158  13.891   8.806  0.1939  0.0178 -0.0503
 2597W        W 3461   6.649  12.697  10.739 -0.1504  0.3679  0.2806
 2598W        W 3462  13.925  27.672  15.671 -0.2124 -0.0073 -0.0268
 2599W        W 3463   2.780  12.429  25.593 -0.0329  0.0308 -0.0624
 2600W        W 3464  15.679  24.689   8.999  0.1403  0.3039  0.0462
 2601W        W 3465  26.990  12.321  25.540  0.0593  0.0369  0.2622
 2602W        W 3466  28.423   0.495   6.416  0.0061 -0.0461 -0.1469
 2603W        W 3467  20.751   8.415   0.886  0.0900 -0.0055 -0.0478
 2604W        W 3468  13.657   6.351  17.809 -0.1210 -0.1936  0.0622
 2605W        W 3469  21.351  12.255  12.052 -0.0079  0.0025 -0.0394
 2606W        W 3470   0.972  27.978  22.342  0.2720  0.1127  0.0245
 2607W        W 3471  20.817  14.455  17.492 -0.0509  0.2220  0.0859
 2608W        W 3472  13.677   8.203  16.235  0.0326  0.0175 -0.1543
 2609W        W 3473  15.175  18.922   5.075 -0.0517  0.1980  0.0139
 2610W        W 3474  22.833   6.681   3.675  0.0400 -0.0276  0.0186
 2611W        W 3475  14.384   1.648   4.513 -0.0892 -0.0447  0.2573
 2612W        W 3476  22.877  22.735   9.639  0.0094 -0.0618  0.0949
 2613W        W 3477  22.940   7.288  10.861 -0.1455  0.1449 -0.1213
 2614W        W 3478   6.621   2.914   1.926 -0.1730  0.1093 -0.4100
 2615W        W 3479   2.527   3.544   0.625 -0.0422 -0.2464 -0.0501
 2616W        W 3480   8.905  27.602  23.732  0.1441  0.2293 -0.2437
 2617W        W 3481   4.908  12.333   2.590 -0.1772  0.1759  0.1302
 2618W        W 3482  25.337  13.600  13.272  0.2207  0.0276 -0.3042
 2619W        W 3483  20.175  26.363  21.861  0.0313 -0.1335 -0.0580
 2620W        W 3484  21.116  15.570   2.166 -0.1153 -0.0067  0.0810
 2621W        W 3485  22.775  26.585   0.990 -0.1192  0.0245  0.2228
 2622W        W 3486  28.079  28.753  14.470 -0.0255 -0.0125 -0.0021
 2623W        W 3487  22.812  28.331  20.645  0.1116  0.1423  0.2190
 2624W        W 3488  10.254   0.664  15.518  0.1184 -0.1599 -0.1775
 2625W        W 3489  18.681  27.029  10.523  0.0208  0.1150  0.1850
 2626W        W 3490   7.953   1.711   3.410  0.0872 -0.2857 -0.1962
 2627W        W 3491  18.018  22.599  16.723  0.1050  0.0429  0.1315
 2628W        W 3492   5.950   3.798   4.947 -0.2204 -0.3965  0.0800
 2629W        W 3493   8.487   0.903  14.013 -0.2299  0.0210  0.2171
 2630W        W 3494  27.708  24.014   8.553  0.1023 -0.0183 -0.0974
 2631W        W 3495  17.894  21.563  14.972  0.0937  0.0864  0.1061
 2632W        W 3496  11.223  11.824   2.135  0.1823 -0.1002 -0.1419
 2633W        W 3497  13.960  26.573   4.964  0.2232 -0.0292  0.0520
 2634W        W 3498  20.214  27.062  12.726  0.2160  0.2554 -0.1501
 2635W        W 3499   1.402  14.536   4.347 -0.0913  0.3081 -0.0948
 2636W        W 3500  25.599   9.723   4.830  0.1799 -0.0447  0.0981
 2637W        W 3501  25.542  27.784   2.478 -0.1369  0.2775 -0.2198
 2638W        W 3502  28.121  28.548  26.275  0.1494 -0.1785  0.0710
 2639W        W 3503  13.980   3.204   1.037  0.0435  0.0982  0.1725
 2640W        W 3504  17.979  27.086   7.650 -0.1458  0.0156 -0.2666
 2641W        W 3505  15.970  11.815  12.942 -0.0080 -0.1768 -0.2656
 2642W        W 3506  12.369  18.495  18.091 -0.2462 -0.1756 -0.1058
 2643W        W 3507  18.182  20.075   4.705  0.1000  0.0118 -0.3949
 2644W        W 3508  26.994  21.185   7.449 -0.2270 -0.1769 -0.1168
 2645W        W 3509  15.785  25.784  12.930  0.0042  0.1478  0.0713
 2646W        W 3510  16.697  21.900  13.433 -0.1881  0.1069 -0.0382
 2647W        W 3511  14.458   7.458  16.467 -0.1602 -0.2862  0.0562
 2648W        W 3512  24.475  25.231  11.212 -0.1016 -0.0323  0.1568
 2649W        W 3513  20.182  27.189   3.862  0.0539  0.2826  0.1428
 2650W        W 3514  15.041  16.696  12.513 -0.2554 -0.3384  0.0140
 2651W        W 3515  10.190  10.782   4.847 -0.1307  0.3200 -0.0326
 2652W        W 3516  20.133  21.482   3.760  0.1949 -0.0540  0.2203
 2653W        W 3517  19.366  12.544  15.792  0.0019  0.0855 -0.3376
 2654W        W 3518   9.107   4.640  28.257  0.3621 -0.0194  0.0374
 2655W        W 3519  19.632  17.792  17.489 -0.0604  0.1205  0.0735
 2656W        W 3520  11.730   9.625   5.006  0.3101 -0.1130 -0.1451
 2657W        W 3521  15.041   0.294   6.495 -0.1895  0.1657  0.1714
 2658W        W 3522  19.010  17.376  28.472  0.0663  0.1247  0.0232
 2659W        W 3523  22.640  19.635   6.583 -0.1873 -0.2092  0.1747
 2660W        W 3524  10.913  11.374  26.194 -0.0732 -0.2622  0.2244
 2661W        W 3525   8.933  15.595  26.690  0.1547  0.0704  0.1027
 2662W        W 3526  23.013   8.244   5.218  0.1710 -0.3011  0.2470
 2663W        W 3527   6.383   2.470  26.903  0.0999 -0.1860 -0.0477
 2664W        W 3528   7.456   6.392   6.352  0.0038  0.2279 -0.3113
 2665W        W 3529   3.022  26.768  11.517  0.1087 -0.1368 -0.0146
 2666W        W 3530   3.784   4.406   6.753  0.0366  0.1507 -0.0729
 2667W        W 3531  26.129  17.526  18.213  0.1379  0.0100 -0.0459
 2668W        W 3532  14.300  15.777   1.215 -0.4133 -0.1954 -0.3588
 2669W        W 3533   8.177  26.710  27.926 -0.0260  0.1095 -0.1509
 2670W        W 3534   7.935  11.118  14.115 -0.2305 -0.2616  0.0299
 2671W        W 3535  27.875  28.273  28.582  0.1916  0.0394  0.0025
 2672W        W 3536   3.852   5.546  28.129 -0.1302 -0.0209 -0.0644
 2673W        W 3537  15.275   4.632   9.624 -0.0288 -0.1997 -0.4084
 2674W        W 3538  21.532   9.214  17.658  0.2569 -0.0265 -0.2003
 2675W        W 3539  22.328   0.719  17.532  0.0813 -0.1770 -0.1236
 2676W        W 3540  21.704  24.837  23.065  0.0388 -0.0917 -0.1769
 2677W        W 3541   8.540   3.430   5.108  0.0846  0.0838 -0.1601
 2678W        W 3542  19.310   9.491   8.917 -0.2830  0.1170 -0.1218
 2679W        W 3543  16.959  19.820  21.576 -0.0276  0.1274 -0.2217
 2680W        W 3544   5.371   2.213  14.268  0.0606 -0.1830 -0.1755
 2681W        W 3545  11.972   5.796   1.711 -0.2032  0.1935 -0.1117
 2682W        W 3546  23.701  12.576   3.869 -0.0879  0.0362 -0.1788
 2683W        W 3547  28.339   9.169   5.399  0.0701 -0.0762 -0.0653
 2684W        W 3548  28.587   1.354   1.701  0.1365 -0.0613 -0.0553
 2685W        W 3549  18.982  24.895  27.700  0.0457  0.0480 -0.0564
 2686W        W 3550  25.127   1.616  27.158 -0.1025  0.3363 -0.0896
 2687W        W 3551  13.742   4.379   7.401 -0.0864  0.0798 -0.1407
 2688W        W 3552   8.418  23.766  12.323  0.0015  0.1115 -0.0398
 2689W        W 3553  11.203   9.020  12.267 -0.1308  0.3852 -0.0650
 2690W        W 3554  16.821  20.415   5.114  0.0086  0.0387 -0.3245
 2691W        W 3555  27.938   1.954   6.051  0.0176  0.2111 -0.1296
 2692W        W 3556  22.384  24.698  25.317  0.1269  0.0075 -0.0427
 2693W        W 3557  21.921   4.224   6.153 -0.2168  0.2284  0.0432
 2694W        W 3558   4.604   1.500   0.582  0.0032  0.4234  0.0084
 2695W        W 3559   9.337  25.272   2.100  0.0060  0.2192  0.1295
 2696W        W 3560  22.033  13.277  12.847  0.2290  0.0035  0.2047
 2697W        W 3561  13.910  20.235   8.907 -0.2647 -0.1880 -0.0323
 2698W        W 3562   1.168   4.100  27.307  0.1622  0.0545  0.0513
 2699W        W 3563   4.576  11.574  11.699  0.0189 -0.4094  0.1269
 2700W        W 3564  28.141  16.960   0.133  0.4207  0.1130  0.0968
 2701W        W 3565  22.367  18.312   5.235  0.1898  0.4345  0.1245
 2702W        W 3566  11.104   1.476   5.182  0.1484 -0.1037 -0.2525
 2703W        W 3567  15.058  12.189   4.281  0.1257 -0.1347  0.0684
 2704W        W 3568   7.354  19.971  25.512  0.1009 -0.1298  0.3623
 2705W        W 3569  21.492   2.725  13.894  0.1070  0.0024 -0.2485
 2706W        W 3570  18.061   2.060  17.751 -0.2913 -0.0086 -0.4075
 2707W        W 3571  17.005  27.441  11.962 -0.1317  0.0102 -0.0021
 2708W        W 3572  17.376  10.937  23.989  0.1897  0.0134  0.0658
 2709W        W 3573   5.932  24.282  12.919  0.0000  0.1005  0.0651
 2710W        W 3574  25.608  19.751  20.266  0.1982 -0.1810  0.1868
 2711W        W 3575  19.647   5.605  16.457 -0.0711 -0.0383 -0.0071
 2712W        W 3576   8.467  25.313   7.893 -0.1892  0.4677 -0.3883
 2713W        W 3577  11.797   9.968  20.655 -0.0447  0.0284 -0.2229
 2714W        W 3578  22.128  25.121  22.865 -0.0974  0.0799  0.1696
 2715W        W 3579  12.528   7.043   9.534  0.1603  0.1834 -0.0316
 2716W        W 3580  21.978   0.821   8.834 -0.1176 -0.3314 -0.0787
 2717W        W 3581   7.776   3.012  26.450 -0.1461  0.0313 -0.1598
 2718W        W 3582  26.990   0.303  12.688  0.3042 -0.3476 -0.0267
 2719W        W 3583  12.167   8.113  10.326  0.1544 -0.2810  0.0125
 2720W        W 3584  23.020  15.950   2.978  0.2591 -0.1184  0.1134
 2721W        W 3585  15.491  28.609   9.308 -0.1330 -0.1745  0.1116
 2722W        W 3586   0.805  21.350  17.794 -0.2011 -0.0079 -0.2502
 2723W        W 3587  12.664   5.372  25.797  0.2086  0.1255  0.2328
 2724W        W 3588  19.405  26.778   0.611 -0.0018 -0.1075  0.0518
 2725W        W 3589  19.970  19.016  28.555 -0.0212 -0.1918 -0.1375
 2726W        W 3590  25.283   2.587  24.319  0.3281 -0.1153  0.2162
 2727W        W 3591   9.012   2.081  20.834  0.1064 -0.0268 -0.0577
 2728W        W 3592  15.280   2.516   8.104 -0.2932 -0.0470  0.0113
 2729W        W 3593   6.566  24.376  21.051 -0.2354 -0.1528  0.0698
 2730W        W 3594  18.810  11.235  11.785  0.1402 -0.0168 -0.0154
 2731W        W 3595  11.636   6.955   3.421 -0.1140 -0.1088 -0.2063
 2732W        W 3596  12.822  22.248   2.814 -0.1144 -0.2323 -0.0456
 2733W        W 3597  28.142   0.566   5.983 -0.1093 -0.1640  0.0201
 2734W        W 3598   1.699   7.521  23.549 -0.0009  0.1350  0.3328
 2735W        W 3599  21.567  14.743   5.195  0.3128  0.0603 -0.0626
 2736W        W 3600  28.430  16.789   9.970 -0.0304  0.1281 -0.0285
 2737W        W 3601  22.361   1.633   1.194 -0.0980  0.1641  0.3050
 2738W        W 3602   8.215  17.373   8.603 -0.1533  0.0907 -0.0519
 2739W        W 3603  21.054  25.303   7.905 -0.0021 -0.0182  0.0092
 2740W        W 3604  18.793  19.642  13.005  0.1964  0.0163 -0.0389
 2741W        W 3605   9.977  18.159   0.069  0.1934 -0.3678  0.1644
 2742W        W 3606   0.507  16.685   3.372 -0.2728  0.0560 -0.1304
 2743W        W 3607  21.823   2.408  25.116  0.3208  0.1174 -0.1189
 2744W        W 3608   5.254  25.342  28.105 -0.3764  0.2381  0.6109
 2745W        W 3609  16.458  26.006   3.988  0.2112 -0.0955 -0.0891
 2746W        W 3610  28.311   8.140  12.315  0.1943  0.0330 -0.0094
 2747W        W 3611  23.998   4.975   9.295  0.1519 -0.2698 -0.2472
 2748W        W 3612  25.374  14.752  22.291  0.1205  0.0076 -0.0357
 2749W        W 3613   6.576  14.037  28.875  0.0384 -0.0615  0.3148
 2750W        W 3614   7.573  24.426  25.552 -0.0497  0.1551 -0.2016
 2751W        W 3615   2.245  15.258  28.834  0.0975 -0.3196  0.1278
 2752W        W 3616  15.483  21.713  14.637  0.0901 -0.2262  0.0981
 2753W        W 3617   9.172  17.127  27.879 -0.0433  0.0437 -0.1736
 2754W        W 3618  15.724  10.789   1.959 -0.1194 -0.0753 -0.0056
 2755W        W 3619  27.968   5.116   7.189 -0.5039  0.0854 -0.0069
 2756W        W 3620  19.446  13.585   1.475  0.2916  0.2095 -0.0291
 2757W        W 3621  24.237   5.747   8.432  0.0654  0.0013  0.4187
 2758W        W 3622  21.088  28.079  27.979  0.0519  0.1387  0.0628
 2759W        W 3623  12.159  22.014  25.447 -0.4515  0.1054  0.0561
 2760W        W 3624   8.179  19.246   4.143 -0.0075 -0.0023  0.1965
 2761W        W 3625   3.505  23.842  22.634 -0.3126 -0.0996  0.1511
 2762W        W 3626   5.101  26.912  18.506  0.0056 -0.0840 -0.0758
 2763W        W 3627  13.018   1.823  24.695 -0.1673 -0.0059  0.0227
 2764W        W 3628   8.172  27.870  10.622  0.2805  0.0971 -0.0125
 2765W        W 3629  10.161   7.645   7.460 -0.0776 -0.2337 -0.1629
 2766W        W 3630   6.673  15.971  24.925  0.2543  0.2480  0.1900
 2767W        W 3631  26.250  22.005  27.332  0.2367 -0.0142  0.1075
 2768W        W 3632  10.741  13.743   0.931  0.0057 -0.0023  0.1435
 2769W        W 3633   5.371  14.072  12.646 -0.1423 -0.0594  0.0325
 2770W        W 3634  16.157  18.926   6.721  0.2542 -0.1203  0.1065
 2771W        W 3635   3.493  10.681  21.340 -0.4333 -0.3000 -0.0483
 2772W        W 3636   5.708   4.609   0.747  0.0289 -0.1873 -0.1537
 2773W        W 3637  12.158  11.214   3.840  0.2017 -0.0139  0.3612
 2774W        W 3638  13.533  26.373  23.698  0.2574  0.1327  0.1578
 2775W        W 3639   5.723  22.557   0.398  0.1436 -0.0497  0.3010
 2776W        W 3640   9.790  11.930  24.894 -0.1735 -0.0864 -0.2543
 2777W        W 3641   8.179   4.600  15.017  0.0836  0.2316 -0.2094
 2778W        W 3642  13.310  23.682  11.001 -0.2834 -0.0144 -0.1417
 2779W        W 3643  14.398  18.357   4.049 -0.0753 -0.0471 -0.1648
 2780W        W 3644   6.833  26.690   2.535  0.3322 -0.0281 -0.2379
 2781W        W 3645   6.191   3.078  27.773 -0.0140  0.0966  0.0173
 2782W        W 3646  25.626   6.178  23.131  0.1818  0.0050  0.0256
 2783W        W 3647   1.110  23.521   7.859 -0.2805 -0.2759  0.3113
 2784W        W 3648  11.226  19.950  25.345  0.1662 -0.2989 -0.1532
 2785W        W 3649  12.102   5.121  25.066  0.3213 -0.0804  0.0331
 2786W        W 3650   5.873  16.852  18.932  0.2300  0.2187  0.0752
 2787W        W 3651  23.391  17.407  27.532  0.0550 -0.0681  0.2425
 2788W        W 3652  13.773  26.001   3.772  0.1925 -0.4121  0.2339
 2789W        W 3653  10.261   9.112   9.363 -0.0126 -0.0167  0.0211
 2790W        W 3654   0.053  22.066  23.100  0.3292 -0.0650 -0.1938
 2791W        W 3655   2.862  23.100  21.662 -0.2030 -0.0751  0.1511
 2792W        W 3656  12.464  19.491  23.952  0.3587  0.0285  0.3445
 2793W        W 3657   8.446  16.079  20.831  0.0661 -0.2587 -0.2209
 2794W        W 3658   0.250   5.307  27.612 -0.4390 -0.2642 -0.3000
 2795W        W 3659  24.049  10.659  11.427  0.0791 -0.2798  0.4021
 2796W        W 3660  28.767   9.897  25.898 -0.1149  0.0992  0.0079
 2797W        W 3661  15.198  28.343   1.587 -0.1657  0.0653 -0.2292
 2798W        W 3662  20.749   2.241  17.317 -0.1253  0.0092 -0.3558
 2799W        W 3663  11.952   8.503  10.152  0.2471 -0.0854  0.2266
 2800W        W 3664  15.362   1.756  16.459  0.0075 -0.1065 -0.1079
 2801W        W 3665  21.848  20.036   3.139 -0.1575  0.2013 -0.2935
 2802W        W 3666  23.310   1.603  21.230 -0.0306  0.0611  0.0758
 2803W        W 3667  24.934   1.003   8.693 -0.0002  0.0157 -0.1971
 2804W        W 3668  26.918  10.326   2.875  0.0158  0.0957 -0.3121
 2805W        W 3669  18.236   7.282  28.151 -0.1204  0.2530 -0.0079
 2806W        W 3670  26.369  24.269  12.430 -0.0051 -0.0115 -0.0984
 2807W        W 3671   8.096  21.478  24.594 -0.2987  0.1292 -0.0061
 2808W        W 3672   3.200  11.128  19.616  0.2376 -0.0297  0.2213
 2809W        W 3673   4.134   5.417   6.967 -0.0907  0.0909 -0.1698
 2810W        W 3674   7.926  14.856  20.523  0.0897  0.0052  0.2472
 2811W        W 3675   6.352   7.883  15.906  0.4237  0.0422  0.3735
 2812W        W 3676  27.564  10.051   8.473 -0.0996  0.2720 -0.1907
 2813W        W 3677   8.338   3.741  17.066 -0.4192 -0.1583  0.1016
 2814W        W 3678  12.848  19.585   8.111  0.0567 -0.2266  0.2902
 2815W        W 3679  25.784   6.063   0.943  0.0121  0.0178  0.0520
 2816W        W 3680  28.875   7.679   4.664 -0.0837 -0.0129 -0.0054
 2817W        W 3681  15.422   7.963  21.207  0.3004 -0.0053  0.0435
 2818W        W 3682   8.130  24.575  12.586 -0.1001  0.2428  0.1546
 2819W        W 3683   0.745  18.142  24.910 -0.1506  0.1852  0.1280
 2820W        W 3684  25.405   2.094  24.268 -0.1646 -0.1479 -0.2572
 2821W        W 3685  18.746   1.852  17.357  0.1334 -0.0345  0.3471
 2822W        W 3686  12.601  21.824  13.555 -0.1289  0.0304 -0.0835
 2823W        W 3687  28.112  24.180   2.269  0.3609  0.0110 -0.2162
 2824W        W 3688  14.650  22.884  25.099  0.1034 -0.0349  0.0576
 2825W        W 3689   6.483   6.841  16.394  0.1694  0.2663  0.4021
 2826W        W 3690  21.712  26.154  29.034 -0.0896 -0.1597 -0.1332
 2827W        W 3691  14.218   2.362  26.689 -0.0985  0.2683  0.0649
 2828W        W 3692  16.338  26.454  23.608 -0.2056  0.0849  0.2755
 2829W        W 3693  22.051   5.120  14.822  0.1225 -0.2603  0.2396
 2830W        W 3694  18.927  26.100   5.855  0.1992  0.1777 -0.0065
 2831W        W 3695  27.049   5.323   6.757 -0.1969  0.2210  0.0077
 2832W        W 3696  14.927   4.241   8.676 -0.0214  0.0106  0.2305
 2833W        W 3697   8.742  10.014   8.160  0.1945 -0.1196 -0.1072
 2834W        W 3698   2.537  26.054  23.738 -0.0917 -0.1020  0.0805
 2835W        W 3699  15.332  11.425  14.170 -0.0927  0.2297 -0.2411
 2836W        W 3700  12.643  20.428  21.240  0.2783 -0.1417 -0.0132
 2837W        W 3701   5.968  13.713   5.844  0.2763 -0.2494  0.0021
 2838W        W 3702  25.197   1.494   9.236  0.0151 -0.0104  0.1341
 2839W        W 3703  25.937  10.973  24.674  0.0514  0.1862  0.0767
 2840W        W 3704   0.082   7.472   5.498 -0.5335  0.1198  0.0631
 2841W        W 3705  17.561   3.508  22.846  0.1990 -0.0611  0.0151
 2842W        W 3706   6.707   7.050   1.104 -0.1264 -0.1287 -0.1455
 2843W        W 3707  18.207  16.823  15.334 -0.0121  0.1638  0.1814
 2844W        W 3708   8.159  23.954   1.049 -0.0489 -0.1654  0.0829
 2845W        W 3709  19.305   9.969  25.430 -0.1208  0.0842 -0.1807
 2846W        W 3710  11.525  15.712  23.328 -0.0432  0.0734  0.1824
 2847W        W 3711   8.259  29.102  23.808  0.0470  0.1045 -0.1007
 2848W        W 3712   7.877  24.631   8.448 -0.0507  0.2680 -0.0630
 2849W        W 3713  16.273  18.988  11.493  0.3567  0.1196  0.0400
 2850W        W 3714  15.955  18.607  22.828 -0.1089  0.0261 -0.2221
 2851W        W 3715   1.334   0.612  27.801 -0.0640 -0.1851 -0.1322
 2852W        W 3716  25.732   7.771   1.797 -0.0808 -0.0930 -0.1216
 2853W        W 3717  12.178  12.628  16.556 -0.3298  0.1257  0.0532
 2854W        W 3718  27.398  28.603  25.269  0.0011  0.1273  0.0203
 2855W        W 3719  10.649  11.835  25.565 -0.0019 -0.3014  0.2043
 2856W        W 3720  22.330   8.442  21.313 -0.1071  0.1277 -0.0319
 2857W        W 3721   3.200   0.543  11.645 -0.1331  0.0364 -0.1259
 2858W        W 3722  15.966  21.340  19.642 -0.2335  0.0490 -0.0440
 2859W        W 3723  12.376  27.842  24.925  0.1559 -0.0563 -0.2212
 2860W        W 3724  22.021   8.309   6.826 -0.1051  0.1290  0.0596
 2861W        W 3725  16.941  11.648   4.085  0.0721  0.3791 -0.0391
 2862W        W 3726  28.311  26.423  23.536  0.2562  0.1243 -0.2111
 2863W        W 3727  25.722  27.660   5.980 -0.0099 -0.1311 -0.0977
 2864W        W 3728  13.886   7.931  21.765 -0.0247  0.0043 -0.1537
 2865W        W 3729  10.253  22.554   3.098  0.0602  0.1480 -0.0567
 2866W        W 3730  25.734  13.600  28.453  0.0668 -0.1832  0.0350
 2867W        W 3731  18.441  23.242  24.629  0.0891  0.0504 -0.0637
 2868W        W 3732  26.930  10.997   2.121  0.0841  0.0053  0.1131
 2869W        W 3733  25.908  28.095  27.059  0.1090 -0.0314 -0.0568
 2870W        W 3734  20.110  27.815  27.183 -0.1698  0.1031  0.0009
 2871W        W 3735  16.173  23.565  19.074  0.0433 -0.0684 -0.1678
 2872W        W 3736  12.863  28.399   8.179 -0.1827  0.2519 -0.2581
 2873W        W 3737  21.061  26.193  24.516 -0.2039  0.2512 -0.3400
 2874W        W 3738  27.569   2.057   4.261  0.0412  0.0604 -0.0706
 2875W        W 3739  17.304  19.180  13.187 -0.1292  0.0368 -0.0822
 2876W        W 3740  12.298   0.475   2.841  0.1880 -0.0637 -0.1598
 2877W        W 3741  17.860   1.088  28.458  0.0615 -0.0800  0.1624
 2878W        W 3742  25.718  15.538  17.344 -0.0077  0.1647 -0.0387
 2879W        W 3743  28.300   6.859  21.905 -0.2995  0.0467  0.0822
 2880W        W 3744  12.284  13.330  27.998 -0.1706 -0.2801  0.1196
 2881W        W 3745  19.267  10.390   1.959  0.3452  0.1673  0.2685
 2882W        W 3746  24.181   8.391  14.679  0.0784  0.0919 -0.1136
 2883W        W 3747  25.759   8.939   7.976 -0.2897 -0.2335 -0.1208
 2884W        W 3748  16.330  25.284  18.029 -0.0762 -0.0718  0.0709
 2885W        W 3749  13.087   8.337  23.978 -0.1388  0.1424  0.5126
 2886W        W 3750  12.811  10.166  10.954 -0.1450 -0.1089  0.2680
 2887W        W 3751  14.924  22.449   4.701  0.1077  0.1813  0.2127
 2888W        W 3752  24.626   0.645   8.532  0.0025  0.1979  0.1001
 2889W        W 3753  22.420  19.413   0.653 -0.0297  0.0859 -0.1461
 2890W        W 3754  26.910  10.906  14.112  0.0914 -0.1119  0.2455
 2891W        W 3755  17.203   9.787  10.961  0.0849 -0.0308 -0.2330
 2892W        W 3756  21.908   1.541   1.859  0.0855 -0.0667  0.1457
 2893W        W 3757  28.388   2.101  21.714 -0.1331  0.0927  0.4115
 2894W        W 3758   8.229  18.232  11.033  0.1616 -0.2333 -0.1245
 2895W        W 3759   8.662   3.773   4.268 -0.0292 -0.5084 -0.0475
 2896W        W 3760   1.449   9.769  14.645 -0.2103 -0.1600 -0.0190
 2897W        W 3761  27.287  15.136   1.543  0.0288  0.0750  0.3333
 2898W        W 3762   5.179   1.934  13.383 -0.1506  0.0707 -0.0498
 2899W        W 3763  15.906  18.951  27.855  0.0522  0.2665  0.2915
 2900W        W 3764  23.911   8.870  21.214 -0.1312 -0.0028  0.3958
 2901W        W 3765  16.130   6.749   4.684  0.1066 -0.0087 -0.2068
 2902W        W 3766  26.210  25.517  20.478  0.3742 -0.0276 -0.1132
 2903W        W 3767  22.184  14.717  21.063  0.0655  0.2306  0.2447
 2904W        W 3768  16.252   4.415  22.796  0.1056  0.2953 -0.1275
 2905W        W 3769  20.805   4.130  13.583  0.0706  0.3376  0.2957
 2906W        W 3770  13.518  28.813  13.971  0.1069  0.1165  0.0396
 2907W        W 3771  15.784  16.835  22.995 -0.0391  0.1241 -0.1122
 2908W        W 3772  23.953   9.530  12.738  0.0705 -0.2286 -0.0164
 2909W        W 3773  23.655   8.096  13.210 -0.1553 -0.2980 -0.2863
 2910W        W 3774  13.239  14.235   6.940  0.0463  0.1478  0.0234
 2911W        W 3775  11.616  11.254  19.346  0.0773  0.1473 -0.0739
 2912W        W 3776   3.265   6.748   0.128  0.0072  0.1174 -0.0573
 2913W        W 3777  23.120   1.233  24.305 -0.1785 -0.0387  0.0976
 2914W        W 3778  28.653  13.998  28.251  0.2915  0.3232  0.0610
 2915W        W 3779  25.963   4.546   0.729 -0.0196  0.1117 -0.0593
 2916W        W 3780   3.309   2.449   1.820  0.2952  0.1726  0.1713
 2917W        W 3781  23.454  19.633   6.050  0.1609  0.0162  0.0983
 2918W        W 3782  26.499  22.484  15.968 -0.0419  0.0527 -0.2138
 2919W        W 3783  22.365  15.432   5.059  0.0301 -0.1744 -0.0573
 2920W        W 3784  27.509   5.539  24.396 -0.3945 -0.1401 -0.1686
 2921W        W 3785   9.588  14.032   3.138 -0.2749 -0.0988 -0.0142
 2922W        W 3786   9.417  27.289   5.490  0.3640  0.0041 -0.1887
 2923W        W 3787   3.261  27.425  16.786 -0.1610 -0.0904  0.3356
 2924W        W 3788  13.310  27.784  20.367  0.1741  0.0959 -0.1167
 2925W        W 3789  18.621   3.762  18.054 -0.0594 -0.1140 -0.0566
 2926W        W 3790   2.590   2.582  16.975  0.1489 -0.0698 -0.0290
 2927W        W 3791  18.553  25.108  23.499 -0.0948 -0.1072 -0.1874
 2928W        W 3792  26.007   2.716   2.792  0.0973 -0.2595  0.1114
 2929W        W 3793  17.993  14.506   2.916 -0.1070 -0.0399 -0.2026
 2930W        W 3794  11.544   9.049  19.132 -0.1988 -0.0739  0.0472
 2931W        W 3795  16.210   3.147  23.037  0.0648  0.0150  0.0834
 2932W        W 3796   9.806  12.337   1.608  0.2122 -0.0261 -0.0771
 2933W        W 3797  23.827   4.103  11.603 -0.1022 -0.0073  0.1370
 2934W        W 3798  19.747  28.028   6.853 -0.2640  0.0167 -0.4426
 2935W        W 3799   9.583   5.117   6.433 -0.1916  0.1430 -0.1294
 2936W        W 3800  15.522  16.590  17.268  0.0733  0.0022 -0.2842
 2937W        W 3801  13.420   4.562  20.527 -0.0763 -0.0991  0.0412
 2938W        W 3802  21.275   6.684  10.201 -0.1034  0.3450  0.2263
 2939W        W 3803  21.719  19.409   5.092 -0.1171  0.1049  0.1963
 2940W        W 3804  27.111  27.705  26.198  0.1190 -0.1042  0.1813
 2941W        W 3805  26.690  20.713   0.923  0.1759  0.1419  0.0234
 2942W        W 3806   9.691  26.248  27.906  0.1470  0.2036 -0.2842
 2943W        W 3807   3.403  24.995   3.550  0.1664 -0.1536  0.2283
 2944W        W 3808   4.659   5.174   9.898 -0.0475  0.2590 -0.0511
 2945W        W 3809  26.687   1.693   5.449  0.1451 -0.1383  0.4138
 2946W        W 3810  27.918   1.152  20.134  0.0487 -0.5032  0.2632
 2947W        W 3811   6.262  10.200  15.245 -0.0104  0.0963 -0.0141
 2948W        W 3812  22.349  16.005  16.808 -0.2426  0.0788  0.1893
 2949W        W 3813  15.353  13.498  11.638  0.0446 -0.4289  0.0769
 2950W        W 3814  19.522   7.878  27.779  0.2711  0.0223 -0.1362
 2951W        W 3815  12.926  15.117  24.567  0.2900 -0.2214 -0.1342
 2952W        W 3816   7.230  20.459  23.900  0.0156 -0.1902  0.1558
 2953W        W 3817  13.163  27.493  22.398 -0.1146  0.0925  0.1703
 2954W        W 3818  21.278  15.775   9.530 -0.0344  0.0085  0.0598
 2955W        W 3819  23.067  21.732  26.095 -0.0699 -0.1469  0.1897
 2956W        W 3820  16.851   4.131  12.794 -0.1722 -0.3525 -0.0384
 2957W        W 3821   2.706  11.133  27.762 -0.0590 -0.2491 -0.3494
 2958W        W 3822  13.664  25.096  14.556  0.0077  0.0954 -0.2515
 2959W        W 3823  12.522  11.589  28.955 -0.2693 -0.2828 -0.0768
 2960W        W 3824  13.051  22.011  24.481 -0.1942  0.0435 -0.1627
 2961W        W 3825  24.820   5.421   8.166  0.1503 -0.0988  0.0407
 2962W        W 3826  10.065   3.887  27.437 -0.4651 -0.1070 -0.2307
 2963W        W 3827  16.081  13.585   5.602 -0.1498 -0.0789  0.0424
 2964W        W 3828  12.019   5.522  22.162  0.0973  0.0382  0.0731
 2965W        W 3829  25.013   9.505   6.807 -0.0340 -0.0603 -0.0714
 2966W        W 3830  21.305  26.847   3.191 -0.0560 -0.1877 -0.4100
 2967W        W 3831  10.127  25.405  23.934  0.3098 -0.0034  0.0724
 2968W        W 3832   5.346   2.617  11.764 -0.3517  0.2741 -0.0125
 2969W        W 3833  17.329   1.049  15.689 -0.0495  0.3908  0.1835
 2970W        W 3834  14.208  15.457  10.045 -0.0640 -0.0454 -0.4417
 2971W        W 3835   3.810   5.309   0.267  0.2238  0.0648 -0.0070
 2972W        W 3836  17.532   2.026  18.308 -0.0181 -0.2071  0.1220
 2973W        W 3837   0.907   5.194   8.188 -0.0901  0.1202  0.1800
 2974W        W 3838  27.554   1.684  12.306 -0.0895 -0.0872  0.0017
 2975W        W 3839   5.192   9.049   1.511 -0.1660  0.0863 -0.1066
 2976W        W 3840   5.158  27.693  17.258  0.0884 -0.2500  0.0082
 2977W        W 3841  18.558   6.548   6.727  0.1578 -0.1610 -0.0164
 2978W        W 3842  27.957   9.878  23.848  0.0325 -0.1213  0.3430
 2979W        W 3843  22.785  20.332   0.849  0.0188 -0.0297 -0.0439
 2980W        W 3844  15.496   3.174   2.469 -0.0581  0.2056  0.0714
 2981W        W 3845  13.250  25.549  27.684  0.1303  0.1669 -0.0443
 2982W        W 3846   7.029  23.443  26.782  0.0398  0.2704  0.4392
 2983W        W 3847   0.880  17.195   6.574 -0.1368  0.0379  0.0827
 2984W        W 3848   5.915   8.071  13.994 -0.0353  0.4487 -0.0804
 2985W        W 3849  14.303  19.133  21.803  0.2145  0.2935  0.2712
 2986W        W 3850  13.737  16.162  26.370  0.1621  0.0810  0.1310
 2987W        W 3851  21.513   6.083  11.791 -0.0149 -0.0962 -0.3022
 2988W        W 3852  15.710  17.054   5.237  0.1738  0.3255 -0.0954
 2989W        W 3853  26.811  23.686   7.147 -0.0118  0.1018 -0.0519
 2990W        W 3854   9.321   5.801   2.242 -0.2245 -0.2916 -0.1125
 2991W        W 3855  26.659  12.672  12.226 -0.4453 -0.1757  0.3759
 2992W        W 3856   3.484  20.764  23.076 -0.2513 -0.2213 -0.0328
 2993W        W 3857   8.413   8.392  17.707 -0.1161  0.3763 -0.2632
 2994W        W 3858   1.696  10.566   8.959  0.1247 -0.0793  0.1085
 2995W        W 3859  14.915  24.750   8.562  0.0500  0.0748  0.0262
 2996W        W 3860  22.235   7.822  14.212 -0.1084 -0.0154 -0.0129
 2997W        W 3861  28.608  22.440   3.501  0.0029 -0.1466 -0.0218
 2998W        W 3862  24.344  19.078  12.415 -0.0109 -0.1534 -0.2523
 2999W        W 3863   1.114  28.579  13.321 -0.1124  0.0109  0.0564
 3000W        W 3864  18.717   9.543  26.603  0.0522  0.0199  0.1659
 3001W        W 3865  10.111  29.021   6.917 -0.0398 -0.4949  0.2898
 3002W        W 3866  18.463  27.595  18.752  0.1624  0.3576 -0.0621
 3003W        W 3867  10.540  20.469  27.501  0.6277  0.0730  0.1908
 3004W        W 3868  13.621   5.492   6.285 -0.1215 -0.0609  0.0551
 3005W        W 3869   6.130  26.347   0.381 -0.1095  0.2237  0.1274
 3006W        W 3870   9.319  21.419  28.262 -0.1120 -0.2349  0.0376
 3007W        W 3871  24.251  13.588  15.110 -0.1900  0.2152 -0.3101
 3008W        W 3872  18.420   0.844   3.191  0.1919 -0.0025  0.3209
 3009W        W 3873   4.323  28.648  20.513  0.0570 -0.0058 -0.2122
 3010W        W 3874   9.629  14.383   6.496 -0.0781  0.1057 -0.0036
 3011W        W 3875   3.423   0.953  11.799  0.1525 -0.0055 -0.0221
 3012W        W 3876   2.852  11.219   6.505 -0.1149 -0.1743 -0.3419
 3013W        W 3877   5.623  11.195  24.997  0.0362  0.2061  0.0513
 3014W        W 3878   4.928  10.220  26.776  0.0130 -0.0111 -0.1236
 3015W        W 3879  21.508  20.282  19.962  0.2789  0.1447 -0.0419
 3016W        W 3880  11.135   3.363  23.844 -0.0511  0.2579  0.0611
 3017W        W 3881  25.372   1.884   0.181 -0.3257 -0.1497  0.2928
 3018W        W 3882  28.212   1.857   8.211 -0.0523  0.1689  0.1986
 3019W        W 3883  21.415   1.144   5.950 -0.1807 -0.1200 -0.0427
 3020W        W 3884  18.507   1.010  22.685 -0.1638  0.1324 -0.0929
 3021W        W 3885  25.450  10.588  18.299  0.0283 -0.0997  0.3160
 3022W        W 3886  25.008  17.681   1.048 -0.0703  0.0236  0.1049
 3023W        W 3887   6.019  10.461  17.875  0.1799 -0.3857 -0.2683
 3024W        W 3888   5.968   9.632  18.883 -0.0617 -0.2811 -0.2013
 3025W        W 3889   9.173  26.649   7.914 -0.1411  0.1933  0.0088
 3026W        W 3890   3.214  22.739   4.543  0.1493 -0.1787 -0.0256
 3027W        W 3891  29.053  10.589   1.596  0.1864  0.3606 -0.1242
 3028W        W 3892   5.719   7.368  11.432  0.0109  0.0166 -0.3299
 3029W        W 3893   8.780  12.210  14.484  0.0248 -0.0965 -0.1893
 3030W        W 3894  11.372   5.952  20.298  0.0375 -0.1289  0.0891
 3031W        W 3895  14.485   5.709   9.571 -0.0724 -0.0884 -0.0742
 3032W        W 3896  21.466  27.870   6.103  0.0620  0.0196  0.1539
 3033W        W 3897  18.495  21.852  10.914  0.0680  0.0171  0.3710
 3034W        W 3898   5.264   9.364   3.111 -0.1080  0.1233  0.0842
 3035W        W 3899  28.229  21.066  22.343  0.3209  0.2613  0.0911
 3036W        W 3900  11.952   0.857   0.359  0.0830 -0.0317 -0.0789
 3037W        W 3901  24.987  28.675  12.740  0.2160 -0.1181  0.1878
 3038W        W 3902  12.141   4.109  11.146  0.1950 -0.0117 -0.1430
 3039W        W 3903  15.253   8.094   0.198 -0.1413 -0.1968  0.2871
 3040W        W 3904  14.541  17.748  10.969 -0.0825  0.0464 -0.1175
 3041W        W 3905  11.201  24.439  10.926  0.0923  0.0136  0.1143
 3042W        W 3906  13.133  21.563   7.748  0.0297  0.2206  0.0591
 3043W        W 3907  19.261   7.524   6.343 -0.1829 -0.3292  0.1487
 3044W        W 3908  17.592   8.624   1.326 -0.0684 -0.1916 -0.1287
 3045W        W 3909   2.130  23.434   5.804 -0.3256 -0.0675 -0.0036
 3046W        W 3910  10.304  16.080   8.676  0.2612 -0.1196 -0.2157
 3047W        W 3911  13.993   6.135   5.661  0.1135  0.0792 -0.0014
 3048W        W 3912  13.391   8.605  11.799  0.1819  0.1200  0.2468
 3049W        W 3913  26.984   1.806   3.134  0.0242 -0.0750  0.1778
 3050W        W 3914  11.560  28.228   0.953 -0.2840  0.3433  0.2337
 3051W        W 3915  19.179   0.698  24.620  0.0345 -0.1018  0.0320
 3052W        W 3916   2.433  10.545  16.020 -0.2197 -0.1901  0.2714
 3053W        W 3917  22.983   7.026   1.271  0.1404 -0.2803 -0.3653
 3054W        W 3918  22.747  27.652  24.337 -0.1276 -0.2155  0.1064
 3055W        W 3919   3.519  11.909   1.294 -0.2120  0.1270  0.0739
 3056W        W 3920  15.782   2.250  12.549 -0.1504 -0.0384  0.1846
 3057W        W 3921  15.162  21.300  25.153 -0.0459  0.0276  0.0544
 3058W        W 3922  10.230   8.091   5.464  0.1653 -0.1702  0.0757
 3059W        W 3923  10.873   1.687   1.966 -0.0932 -0.1566 -0.0315
 3060W        W 3924   7.797   7.196   1.840  0.0164 -0.2311 -0.0210
 3061W        W 3925  16.827  28.213  21.285  0.2341 -0.4320 -0.0646
 3062W        W 3926   1.876   3.868   8.861 -0.1057 -0.0591  0.0101
 3063W        W 3927  10.561  13.099  25.135  0.0870 -0.0172  0.0930
 3064W        W 3928   8.830  13.565   3.674 -0.0659 -0.2606  0.1023
 3065W        W 3929  22.216   7.742  17.143  0.0172  0.0471 -0.2719
 3066W        W 3930  20.053  24.851   5.935  0.1364 -0.3121 -0.1368
 3067W        W 3931  15.137  29.140  12.178 -0.2278 -0.0334 -0.2323
 3068W        W 3932   3.001  12.334  26.301  0.2749  0.1264  0.2950
 3069W        W 3933  10.030  23.566  26.471  0.0705  0.3523 -0.1780
 3070W        W 3934  15.821  19.948  13.219  0.2442 -0.0232  0.4345
 3071W        W 3935  19.230   1.121  24.194  0.1758 -0.1795 -0.1087
 3072W        W 3936  28.529  12.466   0.115 -0.1116  0.2800 -0.2929
 3073W        W 3937  13.320   8.484  21.646 -0.1268 -0.1174  0.0768
 3074W        W 3938   0.628  21.246  14.228  0.1058 -0.2992  0.0514
 3075W        W 3939  12.411  26.275  17.426 -0.2663 -0.0835  0.0001
 3076W        W 3940   2.554  16.611   1.428  0.0811  0.0807  0.0564
 3077W        W 3941   9.002   1.684  23.028 -0.1591  0.2137 -0.0322
 3078W        W 3942  13.320  26.953  22.069  0.2661  0.1443 -0.3311
 3079W        W 3943   8.719  23.267   7.239  0.2827 -0.1590  0.4701
 3080W        W 3944  13.337  28.928  29.053  0.2118  0.5475 -0.0298
 3081W        W 3945  22.529  18.505   5.711 -0.1075 -0.0771 -0.1185
 3082W        W 3946   5.919  26.451  22.701 -0.0684  0.1550 -0.2228
 3083W        W 3947  16.479  18.721  15.656 -0.1195  0.3045 -0.0767
 3084W        W 3948  11.300  16.627   4.199  0.0303 -0.4197  0.5644
 3085W        W 3949   9.647   0.582  13.848  0.0597 -0.1003  0.1931
 3086W        W 3950   4.761  28.840   3.093 -0.2022 -0.1007 -0.0294
 3087W        W 3951  21.552  14.183  25.396 -0.1297 -0.1114  0.1047
 3088W        W 3952  13.378  28.366   2.121  0.1632 -0.2913 -0.2655
 3089W        W 3953   9.526  15.496   7.458  0.1664  0.1036  0.0035
 3090W        W 3954  25.194  25.291  27.936  0.0986 -0.0148 -0.1046
 3091W        W 3955   7.285  26.707  18.749  0.1703  0.1565 -0.4729
 3092W        W 3956  17.300  25.878  16.390  0.0906 -0.0373 -0.1166
 3093W        W 3957  14.787  14.768  22.398 -0.2884 -0.0993  0.0622
 3094W        W 3958  11.052  22.278  12.271 -0.0308  0.1127  0.1662
 3095W        W 3959   7.701  20.141   8.711  0.2142  0.0611  0.3993
 3096W        W 3960  20.176   4.329  27.928 -0.0263  0.0883 -0.2643
 3097W        W 3961  18.002   5.753  17.850 -0.0127 -0.1074 -0.0219
 3098W        W 3962  15.897  16.433  11.430  0.1332 -0.1540  0.0957
 3099W        W 3963  27.891  26.160   6.464  0.1032 -0.1306 -0.1164
 3100W        W 3964  24.117   6.982  24.453 -0.0079  0.3328  0.2654
 3101W        W 3965   4.193  26.710  28.814 -0.2553 -0.5088  0.2273
 3102W        W 3966  19.331  15.259  14.573  0.0088 -0.0614  0.0387
 3103W        W 3967   6.011   9.867  25.308  0.1980  0.2550  0.1728
 3104W        W 3968  28.089  15.329   1.620 -0.0391 -0.1934 -0.1810
 3105W        W 3969  16.954  21.013  13.923 -0.0412 -0.1529 -0.0226
 3106W        W 3970  18.649   2.825   4.478 -0.2135 -0.0509  0.1887
 3107W        W 3971   2.033  12.644   3.748  0.0323  0.1286  0.0350
 3108W        W 3972  22.146  13.242   8.713  0.0805  0.0887 -0.0066
 3109W        W 3973  14.417  24.609   7.985  0.0213  0.0214 -0.0160
 3110W        W 3974   9.266  19.971   6.233 -0.1969 -0.1757  0.1852
 3111W        W 3975   9.658   1.773   4.209 -0.0441 -0.3139 -0.3253
 3112W        W 3976  17.997  19.957  25.855  0.0040  0.1182 -0.1379
 3113W        W 3977  18.822  20.160   1.530  0.0229  0.0947 -0.2454
 3114W        W 3978  19.222   0.622  25.563 -0.3506 -0.0239  0.3689
 3115W        W 3979  19.828  21.522  13.721 -0.1273  0.2849 -0.0206
 3116W        W 3980  21.816  26.534  21.060 -0.0069  0.0210 -0.1480
 3117W        W 3981  19.086  16.482  28.517  0.0545 -0.1394 -0.1760
 3118W        W 3982  18.228   9.590   2.727 -0.0483  0.1023 -0.0137
 3119W        W 3983   0.002   7.198  28.848  0.0930 -0.1467 -0.0508
 3120W        W 3984  19.802   0.563  23.552 -0.2378 -0.1005  0.1209
 3121W        W 3985  12.666  18.631  14.490 -0.1718  0.2085 -0.0270
 3122W        W 3986  25.670   9.062  13.570 -0.1031 -0.1168 -0.5706
 3123W        W 3987   4.142  10.037  28.669  0.3678  0.0197 -0.2574
 3124W        W 3988   5.624  15.996   9.704 -0.1047  0.0639  0.0609
 3125W        W 3989  22.583   3.340   2.591 -0.1071  0.0092 -0.0495
 3126W        W 3990  14.729   2.961  13.210  0.3061  0.2685 -0.1052
 3127W        W 3991  23.909   3.994   6.099  0.0047  0.0113  0.1488
 3128W        W 3992  19.602  15.490   0.037  0.1417  0.2742  0.0505
 3129W        W 3993   7.300  12.973  11.127 -0.2878 -0.0502  0.1202
 3130W        W 3994  20.314   6.224  19.515 -0.0410  0.2964  0.3254
 3131W        W 3995  28.572   4.352   8.914  0.0419  0.4240 -0.2172
 3132W        W 3996  10.848   4.329   1.893 -0.0381  0.0403 -0.0325
 3133W        W 3997   7.159   4.780  16.792  0.0137  0.0602  0.1592
 3134W        W 3998   4.990   0.799   0.435  0.1715 -0.1260  0.0867
 3135W        W 3999  12.831  15.282   1.884  0.2438  0.0991 -0.2071
 3136W        W 4000   9.550   3.021   6.328  0.1140  0.1585  0.0443
 3137W        W 4001  17.178  28.288  11.841  0.2138  0.0423  0.1136
 3138W        W 4002  28.250  21.273   9.581 -0.3194 -0.0711  0.1505
 3139W        W 4003   3.446  26.896  13.189 -0.0257  0.0940 -0.1057
 3140W        W 4004  16.906  20.906  19.408 -0.2212  0.0522 -0.2000
 3141W        W 4005  11.729  15.728  15.122 -0.3140  0.0525 -0.3621
 3142W        W 4006  18.131  13.711  14.670 -0.0049  0.0557 -0.0232
 3143W        W 4007  15.938   9.667   6.581 -0.3355  0.0113 -0.2267
 3144W        W 4008   4.937  16.264   2.999  0.2563  0.2123  0.1688
 3145W        W 4009  11.408  25.826  17.646 -0.0129  0.0858  0.1029
 3146W        W 4010  12.023  17.550   7.584  0.0402 -0.1456 -0.2981
 3147W        W 4011  13.750  14.047   8.995  0.3562 -0.1042 -0.0549
 3148W        W 4012  21.607   1.330  26.134  0.2120 -0.1398  0.0836
 3149W        W 4013   9.852   4.077   3.254  0.2152  0.0193 -0.0393
 3150W        W 4014  23.235   5.304  17.146  0.0888  0.0762 -0.0899
 3151W        W 4015  27.930   2.943  23.294 -0.0254 -0.4624 -0.0129
 3152W        W 4016  10.612  14.564   6.369 -0.0009 -0.1730  0.0667
 3153W        W 4017  27.641  14.440  10.489  0.0949 -0.2547  0.0556
 3154W        W 4018  12.568  23.785  27.692 -0.0718 -0.1640 -0.1104
 3155W        W 4019  18.060  26.826  23.559  0.0721 -0.2589  0.2065
 3156W        W 4020  21.892   6.448  25.913 -0.1758  0.4797  0.1389
 3157W        W 4021   5.425  20.511   7.947  0.0283  0.0376 -0.0558
 3158W        W 4022  15.328   0.782  10.935  0.1847  0.1067  0.1112
 3159W        W 4023   6.441   1.606  18.120 -0.0327 -0.1003  0.0481
 3160W        W 4024  13.923  28.579  27.894  0.0135 -0.0566  0.0647
 3161W        W 4025  23.216   4.419  16.818  0.1240  0.0238 -0.1262
 3162W        W 4026  24.259  12.608  27.449  0.0235  0.1447 -0.3499
 3163W        W 4027  18.834  18.856  24.788 -0.0095 -0.4220  0.2809
 3164W        W 4028   8.323   3.644   8.816  0.0012 -0.2749  0.3852
 3165W        W 4029   8.103  15.559  27.516  0.0066  0.3048  0.0716
 3166W        W 4030  13.762  18.960  20.957  0.0957  0.2400 -0.2608
 3167W        W 4031   1.201   7.898  17.918 -0.0620 -0.3575 -0.4605
 3168W        W 4032  12.621   4.459   4.791 -0.1773  0.3103  0.0563
 3169W        W 4033  20.552  12.656   2.830  0.1342 -0.0151  0.1692
 3170W        W 4034  18.492  15.660  13.437 -0.1453 -0.1216  0.0594
 3171W        W 4035  23.265   3.913  23.084  0.0959 -0.1049 -0.3889
 3172W        W 4036  17.177  26.946  27.540  0.0277  0.0900  0.1439
 3173W        W 4037   8.601   7.034  20.096 -0.1008  0.0068 -0.1143
 3174W        W 4038  10.627   3.390  18.445 -0.1210  0.0035  0.2606
 3175W        W 4039  14.219  10.071   4.320 -0.1638  0.2531  0.0108
 3176W        W 4040  11.684   2.813  23.374  0.0108 -0.1516  0.0204
 3177W        W 4041   0.117   5.544  12.142 -0.1968  0.1981 -0.2068
 3178W        W 4042   9.608  25.485  23.262  0.0611 -0.2950  0.0808
 3179W        W 4043  25.048   1.620  17.208  0.2932 -0.1516  0.6110
 3180W        W 4044  22.355   5.204   1.935  0.2991  0.1480  0.0678
 3181W        W 4045  17.115   6.934  27.354  0.2941 -0.0992 -0.0604
 3182W        W 4046  19.570   8.967   4.677  0.2929  0.0715  0.0732
 3183W        W 4047  23.280  18.741  19.148 -0.1632 -0.0877  0.1538
 3184W        W 4048  20.251  24.325  28.973 -0.1240  0.1384 -0.0662
 3185W        W 4049   3.191   2.490  26.398 -0.2982  0.1705 -0.0673
 3186W        W 4050   1.365   3.321   0.715  0.0913 -0.1694  0.0227
 3187W        W 4051  20.743   7.380  22.796 -0.1665 -0.0849 -0.3155
 3188W        W 4052  18.581  10.913  18.921  0.1928  0.0915 -0.5181
 3189W        W 4053  10.477  19.751   5.698 -0.0848  0.0097  0.1319
 3190W        W 4054  26.445  18.754   3.755 -0.1479 -0.0708  0.4005
 3191W        W 4055   8.274  27.328   9.220  0.1280 -0.0582  0.0161
 3192W        W 4056  14.010  23.788  14.932  0.1084  0.0613 -0.0352
 3193W        W 4057  13.785   9.803  11.408 -0.0456 -0.0020 -0.2732
 3194W        W 4058   6.316   9.090  20.033 -0.0320 -0.2399 -0.1928
 3195W        W 4059  19.656  27.531   6.756  0.1329 -0.1993  0.0544
 3196W        W 4060  27.659  19.215   1.215 -0.1929  0.0099  0.2214
 3197W        W 4061  25.260   9.621  18.773  0.0747  0.0179  0.1558
 3198W        W 4062  19.646   1.514  22.361  0.0782 -0.0717 -0.1572
 3199W        W 4063   0.048  21.969  13.235 -0.1650  0.0848  0.2089
 3200W        W 4064   2.768  27.266  28.667 -0.0428  0.0260 -0.0861
 3201W        W 4065  18.897   2.535  14.083  0.0916  0.2179 -0.1818
 3202W        W 4066  29.135  28.267   7.378 -0.0730  0.0811  0.1204
 3203W        W 4067  17.251  11.705   7.484  0.1939  0.1270  0.0284
 3204W        W 4068   8.582   7.661  18.335  0.1222 -0.0040  0.0451
 3205W        W 4069  23.845  26.038   7.673  0.0343  0.0628 -0.0149
 3206W        W 4070  10.904  21.391  11.431  0.1768  0.0680 -0.0460
 3207W        W 4071  25.230  18.561  12.542 -0.0988 -0.1216  0.0286
 3208W        W 4072  10.499  12.482  23.603  0.1227  0.3332  0.1667
 3209W        W 4073  16.589   7.221   5.291  0.1342  0.0783 -0.0834
 3210W        W 4074   0.034   5.876  27.494  0.0718 -0.0356  0.0532
 3211W        W 4075  17.880  28.359   2.076 -0.1440  0.1126  0.1905
 3212W        W 4076  11.407  16.479  27.791 -0.1124  0.0165  0.2104
 3213W        W 4077  19.981   9.880  23.026 -0.1534  0.0394 -0.1786
 3214W        W 4078   1.287  16.103   3.474 -0.1543 -0.0456 -0.0242
 3215W        W 4079   9.198  28.694  15.221 -0.3023 -0.0691 -0.0049
 3216W        W 4080   1.037   7.627  28.012 -0.2038  0.1781  0.1468
 3217W        W 4081  25.772  28.007  27.860  0.2889 -0.0180  0.2017
 3218W        W 4082  16.786   4.196  24.552 -0.0908 -0.1873  0.0926
 3219W        W 4083   8.280   6.185   8.473  0.2363  0.0636  0.0196
 3220W        W 4084  18.377   3.642  17.042 -0.2027  0.2006  0.0437
 3221W        W 4085   3.276  23.311  16.329 -0.0212 -0.1874 -0.0948
 3222W        W 4086  19.140   2.482   9.416 -0.3972  0.0837  0.0517
 3223W        W 4087  16.446  22.213  28.379  0.2432 -0.1207 -0.4258
 3224W        W 4088  13.522  26.167  11.339  0.0683 -0.0411  0.0777
 3225W        W 4089   1.835  21.624   2.742 -0.2401 -0.1500  0.0961
 3226W        W 4090  27.521  20.821   8.644  0.1434  0.0458 -0.2539
 3227W        W 4091  22.544   1.822   7.323 -0.0167  0.1048 -0.1462
 3228W        W 4092  27.254   8.265   4.028 -0.0160 -0.3004  0.2512
 3229W        W 4093  21.474  16.822  11.938 -0.1003  0.5386  0.0409
 3230W        W 4094   4.330  27.883  26.059 -0.1281  0.0714 -0.0255
 3231W        W 4095   9.843   2.548   3.417 -0.3525 -0.0682  0.0743
 3232W        W 4096  28.781  25.032   1.071  0.0930  0.2529 -0.0881
 3233W        W 4097   6.997  13.390   2.942 -0.0232  0.0358  0.3083
 3234W        W 4098  15.299   6.205   4.711 -0.0541 -0.0536 -0.0746
 3235W        W 4099  21.534  13.369  11.515  0.2885  0.1793 -0.0997
 3236W        W 4100  11.070  18.430   6.700  0.1240 -0.0786 -0.2464
 3237W        W 4101  16.233  24.376  11.639 -0.1664 -0.1786  0.0536
 3238W        W 4102   5.240  16.913  28.889  0.2238 -0.1825  0.0399
 3239W        W 4103   9.088   3.135   6.760 -0.1627 -0.0536 -0.0406
 3240W        W 4104  23.860  10.837  17.996 -0.1248 -0.0198 -0.0440
 3241W        W 4105   6.217   9.914  11.116  0.0120  0.1928 -0.2568
 3242W        W 4106  19.698   0.958   5.903 -0.1939  0.0190 -0.0989
 3243W        W 4107  25.648  10.290  23.440  0.2477  0.0651 -0.1506
 3244W        W 4108  14.458  13.704  27.752 -0.0855  0.0823  0.2293
 3245W        W 4109   9.845  16.869  19.575  0.4275 -0.2296  0.2131
 3246W        W 4110   2.900  28.852   5.234 -0.1285 -0.0912 -0.1150
 3247W        W 4111  10.218  23.570  23.522  0.1983 -0.0402 -0.0960
 3248W        W 4112  22.473   4.954   0.434 -0.2279  0.1732 -0.3745
 3249W        W 4113  14.600  24.564   2.020  0.1951 -0.2633 -0.1565
 3250W        W 4114  21.693   7.250  22.339 -0.1755  0.1866 -0.0278
 3251W        W 4115  21.119  11.274  16.420 -0.1009 -0.1326  0.0344
 3252W        W 4116  25.638  28.047   9.676 -0.0156 -0.0442  0.0644
 3253W        W 4117  28.244  23.558   0.811 -0.1989 -0.0185 -0.0875
 3254W        W 4118   4.980   3.931  15.647  0.4632  0.0800 -0.1044
 3255W        W 4119  28.621   4.200  10.500  0.0422 -0.2889 -0.0056
 3256W        W 4120  16.908  21.902   2.188 -0.0781  0.0795 -0.5081
 3257W        W 4121  12.139  13.509  20.237  0.0216 -0.1486 -0.0827
 3258W        W 4122   7.096   7.091  26.895  0.1481  0.1713 -0.1355
 3259W        W 4123  21.959  23.104   1.448  0.0343 -0.1742  0.0882
 3260W        W 4124  11.930  18.935  13.614 -0.1954  0.0195  0.1042
 3261W        W 4125  18.724  17.274  26.385  0.1699  0.2809 -0.1066
 3262W        W 4126  20.594   4.986  19.696 -0.0952 -0.0660 -0.1029
 3263W        W 4127  10.828  10.463  18.306 -0.0902 -0.1515 -0.1102
 3264W        W 4128  11.949  21.732   7.064  0.0164  0.1198 -0.1103
 3265W        W 4129  25.681   5.394   3.980  0.1970  0.1561 -0.0823
 3266W        W 4130  19.278   1.852  20.058 -0.2128  0.0613  0.0424
 3267W        W 4131  19.087   4.907   0.148 -0.3757 -0.0860 -0.2440
 3268W        W 4132  23.448  28.782   0.070  0.3592 -0.0051 -0.0122
 3269W        W 4133  25.033  14.195  22.496  0.1158  0.1110 -0.1946
 3270W        W 4134  27.597   5.789   8.089 -0.0854  0.0045  0.1160
 3271W        W 4135  17.278   0.743  25.889  0.0314 -0.1808  0.1274
 3272W        W 4136  25.165   8.155   6.171  0.0645  0.0489 -0.1920
 3273W        W 4137  19.770  14.096  22.014  0.1891 -0.3715 -0.0892
 3274W        W 4138   3.501  20.087  27.699 -0.4256  0.0040 -0.0109
 3275W        W 4139  21.205  27.311  13.863  0.0510 -0.2269 -0.0422
 3276W        W 4140  12.411  12.157  11.895 -0.1083 -0.5517 -0.0339
 3277W        W 4141  19.995  26.727  20.564  0.1084 -0.1448  0.0299
 3278W        W 4142  11.982  15.531  26.890 -0.0227  0.3006 -0.0662
 3279W        W 4143  11.988  28.711   3.840  0.0601  0.2415 -0.0087
 3280W        W 4144  20.646   1.062  23.645 -0.2325  0.1519  0.1777
 3281W        W 4145   6.945   7.121  13.584  0.0814 -0.0424 -0.0067
 3282W        W 4146  25.171  23.016   0.080 -0.1733 -0.0372 -0.1179
 3283W        W 4147  14.166  14.965   6.331 -0.1913 -0.1519 -0.0691
 3284W        W 4148   6.561   0.805  25.482  0.1223  0.0942 -0.1473
 3285W        W 4149  15.283   2.346  28.114  0.1306  0.2695  0.0260
 3286W        W 4150   2.270   3.982  26.527  0.1418  0.0677 -0.1032
 3287W        W 4151  21.982   2.991  28.770  0.0787 -0.0736 -0.0936
 3288W        W 4152  22.442   9.120  14.444  0.1118 -0.1854 -0.2760
 3289W        W 4153  13.683  21.595   9.350 -0.3073 -0.2956 -0.2470
 3290W        W 4154  11.006   2.930  21.889  0.1097  0.0705  0.0443
 3291W        W 4155  23.579  15.337  27.126  0.1686  0.0296  0.2081
 3292W        W 4156  22.462  22.454  27.914  0.2795  0.0529  0.0244
 3293W        W 4157  15.600  13.289  16.845  0.2901  0.1190 -0.4726
 3294W        W 4158  11.964  11.672  18.401 -0.0228  0.1287  0.1278
 3295W        W 4159  28.093  22.991  27.018  0.0987 -0.0315 -0.1031
 3296W        W 4160  17.846  10.490   5.274  0.3132 -0.2891  0.1266
 3297W        W 4161  10.892   3.161  21.217 -0.1907  0.0900 -0.0273
 3298W        W 4162   2.961   0.950   8.633  0.1338  0.0648  0.0832
 3299W        W 4163   1.414  16.352   6.463  0.0758 -0.2642 -0.2213
 3300W        W 4164  26.751   8.218   0.248 -0.1067  0.0463  0.2808
 3301W        W 4165  12.556  12.548  20.841  0.0745 -0.2164 -0.0555
 3302W        W 4166  16.942   0.057  16.169 -0.0485  0.0979  0.0079
 3303W        W 4167  18.055   3.605   6.638 -0.0546  0.0571  0.2195
 3304W        W 4168   3.889   7.278   6.221 -0.2168 -0.2015  0.1887
 3305W        W 4169   5.988  12.367  15.564  0.3790 -0.0787  0.1859
 3306W        W 4170  11.797  11.486  21.623  0.1342 -0.3706  0.2812
 3307W        W 4171  27.775   6.165  12.546 -0.0366 -0.0301  0.1529
 3308W        W 4172   6.327   4.652  19.916 -0.5264  0.1369 -0.0091
 3309W        W 4173  22.005  25.762  21.452  0.0676  0.0165  0.1385
 3310W        W 4174  23.458  28.407  10.521 -0.1185  0.1605  0.1517
 3311W        W 4175   8.464   3.936  11.831 -0.3582 -0.1566 -0.0879
 3312W        W 4176  21.789  22.490  24.948  0.1622  0.0244  0.0321
 3313W        W 4177  17.926   3.706   9.249  0.0402 -0.3094  0.3033
 3314W        W 4178  11.779  26.494  26.064  0.0933  0.0370  0.2059
 3315W        W 4179   5.010   9.059  24.798  0.0921 -0.2854  0.1043
 3316W        W 4180  11.727   9.827  11.472  0.3772 -0.0980  0.1147
 3317W        W 4181  17.254   8.929   2.691  0.0521 -0.2393  0.0669
 3318W        W 4182  16.907  20.424  15.756 -0.1236 -0.0898  0.1256
 3319W        W 4183  14.854  10.612  28.733  0.0660 -0.0804  0.1100
 3320W        W 4184   1.511  27.541   9.364  0.1699 -0.0010  0.1080
 3321W        W 4185  18.651  11.543   8.100 -0.2500  0.0150 -0.2118
 3322W        W 4186  10.883  19.284   8.174  0.2561  0.0545  0.1789
 3323W        W 4187   3.730  19.785   8.590 -0.0738 -0.1917  0.2331
 3324W        W 4188  25.985  15.455  15.640  0.0559 -0.0281 -0.2075
 3325W        W 4189  25.768   9.508  12.296  0.1162 -0.2075 -0.2030
 3326W        W 4190  24.700   8.867  14.705 -0.0581  0.0662  0.1876
 3327W        W 4191  17.726   6.902  15.199 -0.0283 -0.0441  0.0044
 3328W        W 4192  24.960  20.403  27.957  0.0366 -0.1044 -0.1185
 3329W        W 4193  26.051  12.561  27.489 -0.0615 -0.1131 -0.0305
 3330W        W 4194  11.113   3.679  18.144 -0.2635  0.1593  0.3860
 3331W        W 4195  18.490  11.087   4.219 -0.3612  0.0534 -0.0466
 3332W        W 4196  24.204  24.409  24.352 -0.1158 -0.3353  0.1421
 3333W        W 4197   9.460  13.365  10.758 -0.0880 -0.0257 -0.0071
 3334W        W 4198  16.527  25.485  12.367  0.0818 -0.0738 -0.0177
 3335W        W 4199  25.826   7.399  10.410  0.2750 -0.1049 -0.2397
 3336W        W 4200   6.048  15.604  11.741 -0.2829 -0.1136 -0.3080
 3337W        W 4201  20.014  26.893  10.734  0.1992  0.3348  0.1548
 3338W        W 4202  20.066   5.327  20.831 -0.0998  0.0994 -0.4321
 3339W        W 4203  14.013  27.987  21.536  0.2325 -0.3619  0.5895
 3340W        W 4204  12.688  25.095  13.219  0.1626  0.0389  0.0163
 3341W        W 4205   7.490   5.315  24.136 -0.0935 -0.1495 -0.1994
 3342W        W 4206   6.218   0.092  19.602  0.0870  0.0372 -0.0565
 3343W        W 4207  13.103   7.352  11.474  0.3594  0.0211  0.0998
 3344W        W 4208  15.759  10.609  13.024  0.1547  0.0947 -0.1343
 3345W        W 4209  22.841   3.936  11.719 -0.1345 -0.0583 -0.0755
 3346W        W 4210  15.707  15.641  17.882 -0.0400  0.1561 -0.1644
 3347W        W 4211  14.552   1.761   7.621 -0.1095  0.0833 -0.0413
 3348W        W 4212  27.829  25.729  28.325 -0.1477  0.1648 -0.0419
 3349W        W 4213  11.770  26.752  15.313 -0.4220  0.1446  0.1334
 3350W        W 4214  26.263  19.870  24.644 -0.2066 -0.1603 -0.1417
 3351W        W 4215  15.955  10.365   0.463  0.1060 -0.3295  0.3508
 3352W        W 4216  20.389  10.649   4.026  0.1895  0.0589 -0.3513
 3353W        W 4217   3.707  15.314  21.449 -0.0096 -0.0248 -0.0727
 3354W        W 4218   5.415   8.308  12.540 -0.0504  0.0755  0.0385
 3355W        W 4219   9.149   4.640  17.133 -0.1215  0.1654  0.0976
 3356W        W 4220   9.553   8.451   2.415  0.3391 -0.0184  0.0202
 3357W        W 4221  16.968  20.304  27.883 -0.1360 -0.1370 -0.1458
 3358W        W 4222  25.935  11.351   1.370  0.0030  0.1428 -0.0981
 3359W        W 4223  11.794   3.052  13.616  0.0668  0.1701 -0.0497
 3360W        W 4224  14.003  15.708   4.518  0.2288  0.2534 -0.1330
 3361W        W 4225  15.057  15.582  11.429  0.1263  0.4301 -0.0183
 3362W        W 4226   3.146  25.493  16.237  0.0796 -0.0549 -0.0397
 3363W        W 4227   9.663  15.666   0.188  0.2197  0.0053  0.2841
 3364W        W 4228   5.929  17.443   8.466 -0.0147  0.2457 -0.0729
 3365W        W 4229  23.825  22.089   3.194 -0.1288  0.0051  0.0878
 3366W        W 4230  22.997  26.711  15.496  0.2617 -0.1481  0.0543
 3367W        W 4231  14.889  26.596  15.717  0.0431  0.0707 -0.1815
 3368W        W 4232  14.938  13.242  14.181 -0.0784  0.0122  0.1819
 3369W        W 4233  10.789  28.180   8.104  0.0263 -0.0221 -0.0934
 3370W        W 4234  18.220   3.618  19.848 -0.0333 -0.4013  0.0474
 3371W        W 4235  27.925   2.035  20.480 -0.2734 -0.0033  0.0963
 3372W        W 4236  12.934  22.983  20.855 -0.1509  0.3403  0.1571
 3373W        W 4237   6.804   6.307   2.282  0.1701 -0.3580  0.0194
 3374W        W 4238   0.884  15.383   8.018  0.2610  0.0778  0.0948
 3375W        W 4239  22.149  29.004   6.277 -0.0250 -0.2388 -0.4762
 3376W        W 4240   4.657   5.004   3.713 -0.1352 -0.1453  0.0006
 3377W        W 4241  13.415   5.017   0.734 -0.3030 -0.0685 -0.1789
 3378W        W 4242  13.901  17.117   9.752 -0.2815 -0.0146 -0.5200
 3379W        W 4243   3.696  16.952  16.680  0.1320  0.3478 -0.1148
 3380W        W 4244  19.618   0.222   5.111 -0.2866  0.2402  0.0236
 3381W        W 4245  24.925  21.388   5.006  0.4103  0.0302 -0.0463
 3382W        W 4246   0.995  14.322  17.567 -0.5823  0.1599  0.3825
 3383W        W 4247  17.827   5.512   4.592 -0.1571  0.2966  0.1062
 3384W        W 4248  28.432  20.922  17.411 -0.2520 -0.1349 -0.0843
 3385W        W 4249  10.920   2.081  22.090  0.0655 -0.1359  0.2225
 3386W        W 4250   5.027  25.796  21.508 -0.2547 -0.1473  0.2165
 3387W        W 4251   4.594  24.834   7.703 -0.0899  0.0365 -0.0210
 3388W        W 4252  16.125   5.621  13.602  0.1566  0.3277  0.1992
 3389W        W 4253   0.704  18.904   9.023  0.3022  0.0246  0.1196
 3390W        W 4254  18.427  18.138  15.121  0.1456  0.0059  0.0259
 3391W        W 4255   2.537   2.827   8.443 -0.0691 -0.4505 -0.2541
 3392W        W 4256  26.672   1.552   7.699  0.0264  0.3651  0.1908
 3393W        W 4257   4.253   4.405   5.266 -0.2291  0.1847 -0.1558
 3394W        W 4258  23.785  16.330  16.789 -0.4082 -0.0234  0.0007
 3395W        W 4259   2.115   2.724  13.640  0.2087  0.1579 -0.0737
 3396W        W 4260  24.343  18.083  28.442 -0.0767 -0.2073  0.1330
 3397W        W 4261   3.346   7.202  11.444 -0.1707 -0.0096 -0.0877
 3398W        W 4262   0.519   2.733  10.162  0.2518 -0.0697 -0.1743
 3399W        W 4263  11.895   9.273  18.255 -0.1064 -0.1340  0.0775
 3400W        W 4264  17.792  12.140  24.146  0.1885  0.3535 -0.0057
 3401W        W 4265  12.358   6.486  18.696 -0.0244  0.1824  0.0557
 3402W        W 4266  19.521  23.565   5.867  0.0475 -0.3805 -0.0566
 3403W        W 4267   9.900  23.763   8.887 -0.0493  0.1975 -0.2006
 3404W        W 4268  15.961  11.205  10.000  0.2564  0.2128  0.2868
 3405W        W 4269  22.776  19.553  13.407 -0.0434  0.2304 -0.0027
 3406W        W 4270   2.953   5.426  11.448  0.1220  0.0562  0.0844
 3407W        W 4271  28.436  20.394  24.139  0.0875 -0.1566  0.0491
 3408W        W 4272  13.139   0.682  18.161 -0.1047 -0.0721 -0.0480
 3409W        W 4273  24.920  16.850  26.460 -0.1403 -0.0430  0.0189
 3410W        W 4274  20.386  12.412   3.228  0.1605 -0.3375 -0.1841
 3411W        W 4275  13.351  14.963  20.942 -0.0872  0.0080 -0.1392
 3412W        W 4276  19.288   1.671   8.791  0.0817  0.0547 -0.2037
 3413W        W 4277   1.255  25.449  15.431  0.1342  0.1247 -0.2116
 3414W        W 4278  16.351  26.875   2.909  0.0117  0.1095  0.0567
 3415W        W 4279  28.809  15.386  13.637  0.1765 -0.0918  0.1548
 3416W        W 4280   9.129   9.358  24.370 -0.0015  0.0037 -0.0675
 3417W        W 4281  16.922   3.861  19.214 -0.0110 -0.0586  0.1234
 3418W        W 4282  27.249   8.578  16.557 -0.1042 -0.2768  0.0146
 3419W        W 4283  14.348  27.464  13.813 -0.1617 -0.0599 -0.0904
 3420W        W 4284  15.894  17.619   1.557 -0.0034  0.0137 -0.6149
 3421W        W 4285   6.750   2.673   3.517  0.0089 -0.1686 -0.2900
 3422W        W 4286   4.298   5.048  10.285 -0.2115 -0.3785  0.1220
 3423W        W 4287   5.723  14.600   7.167 -0.1781 -0.0338  0.0646
 3424W        W 4288  17.284   5.843   3.812  0.1322 -0.0565  0.3410
 3425W        W 4289  18.189   0.819  18.198  0.0548  0.0153 -0.3826
 3426W        W 4290   8.074   3.023  14.641  0.0045 -0.2297 -0.0568
 3427W        W 4291  13.281  20.797   0.535 -0.0251 -0.1291  0.1772
 3428W        W 4292  22.587  28.391   3.348 -0.4161 -0.4291 -0.4699
 3429W        W 4293   1.280   3.103  16.889  0.0717 -0.0723  0.1388
 3430W        W 4294  27.591   3.738  28.052  0.2021  0.0742 -0.2601
 3431W        W 4295  17.400  22.476   5.572  0.1164  0.2388  0.1029
 3432W        W 4296  16.734   7.222   8.239 -0.2288 -0.1291  0.0578
 3433W        W 4297   8.392  17.088  15.473  0.1415 -0.0398 -0.1480
 3434W        W 4298  24.909  22.317  13.760 -0.1480  0.0238 -0.2966
 3435W        W 4299   5.680  28.756   9.321 -0.0265 -0.1166  0.1886
 3436W        W 4300  26.626   4.752  20.337 -0.1255 -0.0723 -0.1399
 3437W        W 4301   8.977   3.384  14.032 -0.0015  0.0092  0.1663
 3438W        W 4302  16.572  17.281  12.964  0.0525  0.1794  0.3145
 3439W        W 4303  21.243   5.956  21.779  0.1715  0.1790  0.2229
 3440W        W 4304  22.230  10.826  17.942 -0.0238  0.1221 -0.1077
 3441W        W 4305  26.842  18.888   5.934  0.0789 -0.0490 -0.0740
 3442W        W 4306   2.383  24.591   5.984  0.0311  0.1597  0.1773
 3443W        W 4307  17.160   8.080  12.846  0.2564 -0.2304 -0.0159
 3444W        W 4308  23.691   3.093   0.960 -0.2207  0.2075  0.3438
 3445W        W 4309  18.177   9.818   4.337  0.0017 -0.0811  0.3760
 3446W        W 4310   8.196   0.068   9.128 -0.0724  0.1386  0.0399
 3447W        W 4311  23.131   1.961   5.048 -0.0925 -0.0427 -0.0586
 3448W        W 4312  27.819  20.185  10.393 -0.0092  0.2026  0.1180
 3449W        W 4313   8.999  26.791  11.540  0.3938 -0.0728  0.0193
 3450W        W 4314   2.561  10.922  17.052 -0.1301 -0.2285  0.1024
 3451W        W 4315  16.196   5.880  18.543  0.0433  0.1438  0.0073
 3452W        W 4316  23.668  18.102  10.757  0.0008 -0.0468 -0.3029
 3453W        W 4317  22.060  24.497   9.754  0.0377 -0.0418  0.1301
 3454W        W 4318   8.287  24.494   0.199  0.0266 -0.3660 -0.0073
 3455W        W 4319  14.581  27.586   3.981  0.0179  0.0755 -0.1005
 3456W        W 4320  10.858  18.083  21.596 -0.1290  0.0005 -0.1659
 3457W        W 4321  13.920   0.193  11.659  0.3018  0.3500  0.0097
 3458W        W 4322  12.485  24.741  13.586  0.3780  0.3476  0.1715
 3459W        W 4323   3.576  18.035   7.847 -0.0769  0.1628  0.0083
 3460W        W 4324   1.756  22.635  12.150  0.1859 -0.0010  0.1212
 3461W        W 4325  28.672  26.631  11.413  0.0149 -0.2097 -0.1700
 3462W        W 4326  15.520   2.917  15.212  0.2504  0.1868  0.3174
 3463W        W 4327   9.032  12.800  18.476  0.0861 -0.1708  0.0117
 3464W        W 4328  20.918   7.065  14.341  0.3003 -0.1444  0.1328
 3465W        W 4329  13.389   3.409   3.425 -0.0824 -0.2342  0.0663
 3466W        W 4330   8.888  17.786  23.428  0.1666  0.0469 -0.0294
 3467W        W 4331  21.620  24.713   9.500  0.0103 -0.1472 -0.1730
 3468W        W 4332  24.904  17.435   3.704  0.1682 -0.2876  0.0228
 3469W        W 4333  27.577  28.789  25.996 -0.1561  0.1064 -0.2452
 3470W        W 4334   8.690   6.253   7.891 -0.2769 -0.0265  0.0259
 3471W        W 4335  22.494   0.235  17.474 -0.0905 -0.1010  0.3038
 3472W        W 4336  12.138  26.433  27.039 -0.2070 -0.2152 -0.1946
 3473W        W 4337  11.426  26.354  15.743 -0.0183 -0.0965 -0.1533
 3474W        W 4338  13.720  11.967  27.058 -0.1245 -0.2523 -0.1744
 3475W        W 4339   5.988  18.514  15.894  0.1675  0.2832  0.0568
 3476W        W 4340  28.799  25.364  23.616  0.0143 -0.0628  0.0070
 3477W        W 4341  24.326  11.530  15.307 -0.0156  0.0510  0.1050
 3478W        W 4342  10.596  26.020  11.503 -0.1925 -0.1106 -0.1188
 3479W        W 4343  17.825   9.276  14.561 -0.0055 -0.1671 -0.1660
 3480W        W 4344   3.664  21.359  10.272  0.5952 -0.0386 -0.1933
 3481W        W 4345  25.753   4.061   0.135  0.2666 -0.2891 -0.1256
 3482W        W 4346   5.710  19.524  25.390 -0.0005  0.1481  0.0902
 3483W        W 4347   9.508   8.217  21.354 -0.3548  0.0380  0.3125
 3484W        W 4348   4.934   3.032   5.467 -0.2363 -0.1925 -0.3070
 3485W        W 4349  26.861  24.176   3.909 -0.1250 -0.2260  0.0953
 3486W        W 4350  14.483  19.335  16.747  0.0765  0.0580  0.3270
 3487W        W 4351  12.713  22.070   3.428  0.5621 -0.1529  0.2454
 3488W        W 4352  15.801   0.914   4.354 -0.1676  0.0628 -0.1836
 3489W        W 4353   9.588  18.460  12.357 -0.1281  0.3443  0.1157
 3490W        W 4354  26.109  15.367  24.804 -0.0953  0.0974  0.2897
 3491W        W 4355  24.522  24.757  10.890  0.2895 -0.0774  0.1177
 3492W        W 4356  28.247  21.704  17.352  0.0976 -0.5868  0.2638
 3493W        W 4357  11.226  21.332   6.437 -0.3607  0.0520  0.2688
 3494W        W 4358   6.489  11.206   8.436  0.0760  0.0960  0.1075
 3495W        W 4359  16.787  14.879  21.642  0.1538 -0.2105  0.3457
 3496W        W 4360   2.060   2.970  15.663 -0.2787  0.1210  0.2107
 3497W        W 4361   3.775  11.128   7.067 -0.0005 -0.1111  0.0216
 3498W        W 4362  14.188  12.110  23.011  0.0787  0.2308 -0.0337
 3499W        W 4363   6.854   6.023   1.516 -0.3298 -0.2730 -0.2909
 3500W        W 4364  28.556   6.372   3.167  0.1443  0.1943  0.1287
 3501W        W 4365  16.369  25.408  28.856  0.1468 -0.2791  0.2110
 3502W        W 4366   1.284   8.880   3.931 -0.0408 -0.0307 -0.0169
 3503W        W 4367   7.852   2.918  13.226  0.0089 -0.1472 -0.2081
 3504W        W 4368  19.145  27.649   7.924 -0.2627  0.1427  0.0531
 3505W        W 4369  16.713  25.023  12.482  0.1207 -0.1074  0.0843
 3506W        W 4370  28.354   0.873   7.300 -0.0858  0.3056 -0.1638
 3507W        W 4371  10.379   2.784  14.156 -0.0399 -0.1068  0.2185
 3508W        W 4372  18.886   6.296  14.381  0.2672  0.2705  0.1450
 3509W        W 4373   5.457  12.265  28.441 -0.2282 -0.1564  0.2991
 3510W        W 4374  28.871   3.220  28.435  0.0654  0.3109  0.0940
 3511W        W 4375  14.073   4.066  17.019 -0.1372  0.2975 -0.0422
 3512W        W 4376  18.135  28.196  28.249 -0.0513  0.0290  0.1925
 3513W        W 4377  13.963   0.758  15.973  0.0520  0.0377 -0.1163
 3514W        W 4378  12.633  24.307  27.712 -0.2836  0.0242  0.1699
 3515W        W 4379  23.085  18.287  27.393 -0.1283 -0.1807 -0.0977
 3516W        W 4380  17.907   4.110   9.952  0.1090  0.0849  0.1497
 3517W        W 4381  18.572   8.749  17.114  0.2239 -0.2205 -0.1476
 3518W        W 4382  14.067  26.999  13.703  0.0898 -0.2480  0.2572
 3519W        W 4383  24.131   0.393   7.875  0.1500  0.1908  0.1418
 3520W        W 4384  23.276   5.908   7.923 -0.0807  0.1263 -0.1970
 3521W        W 4385   7.729   8.249  19.289 -0.0181 -0.2874 -0.0396
 3522W        W 4386  27.348  27.228   9.276 -0.1330  0.1607  0.0521
 3523W        W 4387  17.607   7.157   4.864 -0.2307  0.0482  0.0256
 3524W        W 4388   0.373   5.313   5.706 -0.0383  0.0939  0.2983
 3525W        W 4389  19.569  25.810  23.098  0.0988  0.0849 -0.1924
 3526W        W 4390  16.838  13.404  21.825  0.2055 -0.2079 -0.0151
 3527W        W 4391  15.220   1.651   7.181 -0.0383 -0.0920 -0.0774
 3528W        W 4392  25.146  18.336   8.506  0.0029  0.3632  0.1727
 3529W        W 4393   3.048   1.480   6.119  0.2745 -0.0987 -0.2153
 3530W        W 4394   8.150   4.830  26.726  0.2529 -0.1685 -0.1499
 3531W        W 4395  18.122  10.760   7.221  0.0267  0.3991 -0.0818
 3532W        W 4396  17.692   5.394   8.524  0.2845 -0.2223 -0.0636
 3533W        W 4397  20.900  28.095  17.288  0.2358  0.1131  0.2312
 3534W        W 4398   6.179   3.103  25.161 -0.4440  0.0560 -0.5020
 3535W        W 4399  17.956  18.472  24.755 -0.2000 -0.0332  0.1198
 3536W        W 4400   3.525   8.816  14.023 -0.0448 -0.2168  0.0067
 3537W        W 4401   2.534   7.870   0.212  0.1047  0.0482  0.0347
 3538W        W 4402  16.544  26.060   5.502  0.1502  0.0514  0.2894
 3539W        W 4403   9.533  17.160   5.842 -0.1544 -0.0928 -0.0801
 3540W        W 4404  23.036  21.020  11.679  0.2149  0.2758 -0.1001
 3541W        W 4405  16.195   8.058  11.319  0.1262 -0.1128 -0.0233
 3542W        W 4406  11.748   3.636  21.114  0.0552 -0.2628 -0.3167
 3543W        W 4407  17.753   5.635   2.653 -0.0325  0.2211  0.0007
 3544W        W 4408   2.299  11.492   9.152 -0.1270  0.0483 -0.0080
 3545W        W 4409   0.349  24.819  12.521  0.0451  0.1855 -0.1291
 3546W        W 4410  23.800   6.651  18.734 -0.6595 -0.0960 -0.2321
 3547W        W 4411  24.791  24.929   2.092  0.1163  0.0501 -0.1014
 3548W        W 4412   2.393   2.177   2.799  0.1164 -0.1813  0.1023
 3549W        W 4413  28.702   0.881   6.879  0.0862  0.1498 -0.0790
 3550W        W 4414   8.489   0.901  24.573  0.2553 -0.1321 -0.2029
 3551W        W 4415  20.004  21.615  12.346 -0.1139  0.0196  0.0918
 3552W        W 4416  21.186  11.810  18.990 -0.1234  0.0425 -0.1712
 3553W        W 4417  15.084  20.240  21.983  0.1812  0.2726  0.1095
 3554W        W 4418   4.708   9.898   4.036 -0.1178  0.0411 -0.1166
 3555W        W 4419  20.062  16.292  13.198  0.2293  0.1129 -0.0777
 3556W        W 4420  19.919  17.602   3.977 -0.0175 -0.1339 -0.0276
 3557W        W 4421  13.800  27.956  17.806  0.1258 -0.0971  0.0516
 3558W        W 4422  16.298  27.949   3.822  0.2490  0.1677 -0.3244
 3559W        W 4423   8.600   1.043   7.768 -0.0718 -0.0909  0.0325
 3560W        W 4424  11.444  28.526   8.739 -0.2577  0.0093  0.4380
 3561W        W 4425  18.191  25.382  10.982  0.0101  0.1803  0.0280
 3562W        W 4426   5.873  10.218  20.260 -0.0992  0.0765 -0.1572
 3563W        W 4427   0.348  25.383  18.880  0.2112 -0.4940 -0.3354
 3564W        W 4428  12.927   2.711  25.013  0.1411 -0.1785 -0.0005
 3565W        W 4429  25.071  13.522   8.697 -0.0982  0.3847  0.1304
 3566W        W 4430   8.238  18.230   5.613 -0.2512  0.2915  0.2129
 3567W        W 4431   1.943   7.162  13.347 -0.1432 -0.2821  0.2528
 3568W        W 4432  27.968  25.920   8.053  0.0196  0.0272 -0.0397
 3569W        W 4433   8.520  18.970   4.489 -0.1784 -0.1218 -0.0481
 3570W        W 4434   7.716  19.846  14.653  0.0407 -0.2841 -0.0938
 3571W        W 4435  19.897  12.004   2.039  0.1268  0.0286 -0.0017
 3572W        W 4436   7.504  20.119  28.668  0.2191  0.2417  0.0060
 3573W        W 4437  10.660   4.630   8.361 -0.0842 -0.1656  0.2556
 3574W        W 4438   5.668   6.054  23.966  0.2303 -0.1903 -0.1341
 3575W        W 4439  22.858  12.949  17.447  0.1905  0.1891 -0.2201
 3576W        W 4440   8.716   0.227  11.011  0.1865  0.2299  0.0509
 3577W        W 4441   6.196  28.284   0.917 -0.1513  0.1897 -0.0903
 3578W        W 4442  15.113  17.490   2.337  0.2052 -0.4399 -0.0935
 3579W        W 4443  10.952  23.493   2.956 -0.2281 -0.1647  0.0317
 3580W        W 4444  13.791   1.533  11.246 -0.3994 -0.1781 -0.1014
 3581W        W 4445  16.725   7.964   6.188  0.2285 -0.0134  0.0526
 3582W        W 4446  14.968  17.991  13.405  0.0858  0.2616 -0.2154
 3583W        W 4447   5.629  27.569  16.876  0.0871  0.2648  0.1206
 3584W        W 4448  20.403  21.021   3.842 -0.1658 -0.0317 -0.0057
 3585W        W 4449  18.602  21.670  17.374 -0.2238  0.0621 -0.0295
 3586W        W 4450   1.022  12.468   6.279 -0.1792  0.2829 -0.4022
 3587W        W 4451  11.256   1.749   8.469  0.1335 -0.0062  0.2291
 3588W        W 4452  15.360  25.101  28.862 -0.0517 -0.2286 -0.2393
 3589W        W 4453   6.794  23.984  23.613  0.0456 -0.1073  0.0343
 3590W        W 4454  16.658  26.385   1.194 -0.0009  0.2567  0.0834
 3591W        W 4455  17.155  23.878  24.915  0.2598 -0.1151  0.0645
 3592W        W 4456  15.860   0.884   8.292  0.2975 -0.2539 -0.0748
 3593W        W 4457  11.573  23.380  14.077 -0.0519  0.0504 -0.0981
 3594W        W 4458  11.046  27.346  21.612  0.1418 -0.0622  0.0374
 3595W        W 4459   1.268  28.238   2.485  0.0429  0.0396  0.1945
 3596W        W 4460  25.587   6.524   6.920 -0.1456 -0.0283  0.0097
 3597W        W 4461  16.467  16.671  11.972 -0.1117  0.2202  0.0615
 3598W        W 4462  27.804  19.394  11.615  0.1197  0.0253  0.3205
 3599W        W 4463  11.280  26.644   5.361  0.0135 -0.0462  0.1777
 3600W        W 4464  12.096  14.538  12.668  0.1207 -0.1111 -0.3105
 3601W        W 4465  18.939  13.111  13.424 -0.0310 -0.0285  0.1535
 3602W        W 4466  25.849   8.024   6.635  0.2144  0.1078  0.1012
 3603W        W 4467  14.288   7.767  12.329  0.1231 -0.0714  0.2903
 3604W        W 4468   2.690  10.065  19.213 -0.1018  0.2965 -0.0619
 3605W        W 4469  27.074   1.829  27.054  0.1086  0.1565  0.2443
 3606W        W 4470  19.689   9.161  10.374 -0.1289 -0.4537 -0.1467
 3607W        W 4471  28.098   5.431   6.787  0.1246  0.1084 -0.0151
 3608W        W 4472  16.279  12.462  28.350  0.1565  0.1913 -0.1388
 3609W        W 4473  25.522  11.328   6.233  0.1275  0.3381  0.0814
 3610W        W 4474  16.963   3.039  17.043  0.0733  0.1525 -0.0077
 3611W        W 4475  20.813   2.621  14.742  0.2311  0.3019 -0.3953
 3612W        W 4476  17.001   8.993  15.655 -0.0146  0.0747  0.1585
 3613W        W 4477   5.860  17.692  14.637  0.1229  0.0704 -0.1969
 3614W        W 4478   8.674  11.447  20.456  0.2653  0.1161 -0.1468
 3615W        W 4479  18.594  20.214  18.623 -0.1055  0.2662 -0.1383
 3616W        W 4480  19.409  28.271  22.416  0.0624 -0.2245  0.2136
 3617W        W 4481  12.336   1.630  18.582 -0.2842  0.2551  0.0004
 3618W        W 4482  19.796   5.956  19.935 -0.2503 -0.1870  0.0877
 3619W        W 4483  11.529   3.855  13.026 -0.0753  0.0706  0.0915
 3620W        W 4484  14.101   3.152   5.979 -0.0853  0.0268  0.1947
 3621W        W 4485   4.247  21.242  27.354 -0.4276 -0.1804 -0.0582
 3622W        W 4486  18.684  24.464  14.389  0.1360 -0.0158 -0.3610
 3623W        W 4487   7.955  17.037  19.718 -0.1637 -0.1999  0.0349
 3624W        W 4488  23.428   7.433  21.371  0.0518  0.2415  0.1275
 3625W        W 4489  18.931  29.033   6.537  0.5118 -0.0341  0.0960
 3626W        W 4490  24.335   6.352  11.096 -0.0080 -0.2054  0.1867
 3627W        W 4491  21.967  28.878  21.863  0.0649 -0.0313 -0.1164
 3628W        W 4492  16.033  28.896   1.462  0.3106 -0.2371  0.0474
 3629W        W 4493  10.420  13.581   7.385  0.0719  0.4217 -0.1195
 3630W        W 4494  15.250   1.407  13.492 -0.0698  0.0551 -0.0063
 3631W        W 4495  21.960  21.331  14.024 -0.0917 -0.2264 -0.1784
 3632W        W 4496  24.313   2.108  10.551 -0.0937  0.3162 -0.2088
 3633W        W 4497  17.981  15.288  15.704  0.0700 -0.2981  0.0361
 3634W        W 4498   9.560   3.518  12.248  0.0029  0.2478  0.2151
 3635W        W 4499  20.703   2.851  13.235  0.1609 -0.3143 -0.1834
 3636W        W 4500   5.703   3.406  20.135 -0.0555  0.2545  0.0137
 3637W        W 4501  20.330  19.791   8.069 -0.1204  0.0151  0.1394
 3638W        W 4502  14.690   8.244   7.159  0.0288  0.0486  0.1184
 3639W        W 4503   4.572  13.452  27.611  0.5184 -0.1321  0.1908
 3640W        W 4504   5.392   0.483  23.247 -0.0133 -0.2671  0.0390
 3641W        W 4505  14.883   3.505  12.290  0.2832  0.0810  0.1313
 3642W        W 4506  14.902  26.044   8.630  0.1922 -0.0682 -0.0594
 3643W        W 4507  20.833  22.942   5.524  0.0773  0.0210 -0.0623
 3644W        W 4508   5.409  16.374  14.740  0.0361  0.4209 -0.1917
 3645W        W 4509  20.970  21.308  16.102 -0.3195 -0.3024  0.0683
 3646W        W 4510   1.804  20.829   8.005  0.3268  0.0187  0.0686
 3647W        W 4511  12.016   2.027   7.785 -0.1102  0.1133  0.0823
 3648W        W 4512  17.875   3.305  25.589 -0.2852  0.0032 -0.2378
 3649W        W 4513  12.054  21.117  13.244 -0.2304 -0.2123 -0.1321
 3650W        W 4514  26.165   4.417   6.591 -0.0853 -0.1196 -0.0771
 3651W        W 4515   4.124  11.400  26.798  0.1398  0.0887 -0.0036
 3652W        W 4516  23.085  12.739  25.721 -0.1476  0.1173 -0.0080
 3653W        W 4517  12.184  12.831   5.562 -0.0243 -0.0961  0.1218
 3654W        W 4518  18.004  24.164  10.302 -0.0767  0.2172 -0.1681
 3655W        W 4519   6.295   3.365  15.618 -0.1817  0.0690 -0.3196
 3656W        W 4520  15.700   3.909   8.907 -0.4195 -0.0208  0.1015
 3657W        W 4521   4.445  18.725  27.687 -0.1249  0.0128 -0.1721
 3658W        W 4522  19.777  26.632  27.316 -0.3778 -0.1384  0.1489
 3659W        W 4523   5.295   4.754  28.177  0.0301 -0.0697 -0.1646
 3660W        W 4524  18.579  24.603  20.161  0.3022 -0.5272 -0.0616
 3661W        W 4525   2.500  21.638   7.554  0.1678 -0.2060 -0.1421
 3662W        W 4526  20.628   3.032  22.533 -0.0980 -0.0504 -0.1286
 3663W        W 4527  17.765   5.484  16.582  0.1261  0.2171  0.1312
 3664W        W 4528  22.951  21.886  11.302 -0.3509 -0.0852  0.4867
 3665W        W 4529   2.751  19.133  14.009  0.0613 -0.3261  0.1091
 3666W        W 4530  10.658   5.215  17.796 -0.0537 -0.2232 -0.3578
 3667W        W 4531  12.708   3.948   9.225  0.0885 -0.2762  0.4916
 3668W        W 4532  25.440  16.590   5.220 -0.1942  0.0109 -0.0986
 3669W        W 4533  23.802  27.582  14.240 -0.1717 -0.3374 -0.0549
 3670W        W 4534  16.204  14.800   4.872 -0.0536 -0.1098 -0.0613
 3671W        W 4535  21.413  21.887  11.012  0.0309 -0.0213 -0.3500
 3672W        W 4536  25.832   9.362  29.054 -0.0134  0.0985 -0.0636
 3673W        W 4537  22.635   4.791  12.088  0.0073 -0.0517 -0.0050
 3674W        W 4538  20.872   2.987  20.573 -0.1473 -0.1498  0.0573
 3675W        W 4539   4.991  22.008  10.775  0.2309  0.2744  0.1486
 3676W        W 4540  14.078   0.637   9.223 -0.2386  0.1851  0.0547
 3677W        W 4541  17.343   1.707  14.426  0.0058  0.0424 -0.0155
 3678W        W 4542   6.093   2.813  22.697  0.1228  0.0632 -0.2521
 3679W        W 4543  20.299  25.571  11.038  0.0289  0.1057 -0.2447
 3680W        W 4544  17.769  12.171  13.169 -0.1049  0.0852 -0.5489
 3681W        W 4545  16.403   2.365   5.521  0.3564 -0.1563  0.0973
 3682W        W 4546   8.525   0.731   6.860 -0.0533 -0.0455 -0.0018
 3683W        W 4547  23.460  13.135  21.683  0.1596  0.1325  0.0235
 3684W        W 4548   9.450   6.329  12.505 -0.1678  0.0233 -0.0214
 3685W        W 4549  12.447   1.409   3.693  0.1289 -0.1511  0.2062
 3686W        W 4550  26.652  28.610  25.529  0.1913 -0.0546 -0.0274
 3687W        W 4551   7.647  26.557   1.344 -0.1808  0.1132  0.1004
 3688W        W 4552  17.174   0.479  16.371 -0.0851 -0.2662 -0.0389
 3689W        W 4553   7.562  17.775  12.699  0.0802  0.0011  0.1270
 3690W        W 4554  12.912   6.131  13.835 -0.0714 -0.2282  0.1531
 3691W        W 4555  16.779  13.815  14.618 -0.0527 -0.0520 -0.2084
 3692W        W 4556  14.738   4.111  28.343  0.1344  0.0171 -0.1122
 3693W        W 4557  18.740  28.807   4.335  0.0786 -0.0288 -0.1124
 3694W        W 4558   6.347  16.484  10.303 -0.1354 -0.0460 -0.1525
 3695W        W 4559  18.545   7.695  19.427  0.0708 -0.1600 -0.1992
 3696W        W 4560  26.824  14.426   9.758  0.1206  0.1724 -0.1197
 3697W        W 4561  12.323   0.020  23.441  0.2809 -0.1395  0.0175
 3698W        W 4562  20.934   7.603  12.683  0.1454  0.0939 -0.1104
 3699W        W 4563  26.456   2.955   1.369  0.3512 -0.0526 -0.4393
 3700W        W 4564  28.382  27.437   4.138  0.2230 -0.0934  0.0257
 3701W        W 4565  17.190   3.899  12.473  0.0316  0.0321  0.1054
 3702W        W 4566  23.337  23.768  25.415  0.1192 -0.2480  0.1178
 3703W        W 4567  18.643  13.693  13.933 -0.0835  0.1029 -0.0173
 3704W        W 4568   7.347   7.005  14.851 -0.1321 -0.0614  0.1625
 3705W        W 4569   7.370   8.088  23.467 -0.1093  0.0156 -0.1763
 3706W        W 4570  27.726  28.082  19.127 -0.2533  0.1325  0.0469
 3707W        W 4571  12.303   9.297   6.196  0.1554  0.1113  0.5229
 3708W        W 4572  23.329  23.297  25.161 -0.0575 -0.2208 -0.2300
 3709W        W 4573  12.099  11.095  27.740 -0.0429 -0.2928 -0.3844
 3710W        W 4574  22.338  16.620   0.875  0.0378  0.1403  0.0671
 3711W        W 4575   8.620   2.225  20.150 -0.0123 -0.3986  0.0638
 3712W        W 4576  19.500  23.711  10.116 -0.2627  0.3230 -0.1142
 3713W        W 4577   3.014   0.025  20.704 -0.2962  0.3054 -0.1122
 3714W        W 4578  20.197  15.878  21.043 -0.1136  0.2971 -0.1172
 3715W        W 4579  18.742   6.373  13.921  0.2938 -0.1955 -0.1690
 3716W        W 4580  12.218   9.258  15.537  0.1373 -0.0430  0.1202
 3717W        W 4581  16.380   0.688  19.652  0.0347  0.0257 -0.0411
 3718W        W 4582   6.337  28.960   5.953 -0.0117 -0.0417 -0.1654
 3719W        W 4583   1.417  25.354  15.920 -0.1448 -0.0250 -0.2019
 3720W        W 4584  14.369  27.125  10.819  0.1478  0.0676  0.0118
 3721W        W 4585  10.464  17.150   4.669  0.0900  0.0486 -0.0066
 3722W        W 4586  12.256  26.010  12.331  0.0019  0.1754 -0.3044
 3723W        W 4587   9.934   0.187  15.651 -0.0784 -0.2966 -0.0092
 3724W        W 4588   6.682   5.165   6.802  0.1579  0.1672 -0.2199
 3725W        W 4589  15.604  22.930  27.203  0.1663 -0.1781 -0.0846
 3726W        W 4590  17.487   5.782  12.972  0.2533 -0.3091  0.4082
 3727W        W 4591  18.920  26.987  19.305 -0.0498 -0.0190 -0.0324
 3728W        W 4592  12.695   3.204  23.201  0.2056  0.2778  0.0308
 3729W        W 4593  27.534  24.344  16.129  0.0294 -0.0917  0.2013
 3730W        W 4594  27.928  26.099  21.709  0.1069  0.1899  0.0713
 3731W        W 4595   3.561  24.506  21.660 -0.1856 -0.0387  0.0338
 3732W        W 4596  26.485   8.840  13.322 -0.2324  0.2759 -0.0147
 3733W        W 4597   5.413   4.708  14.987 -0.0662  0.0439  0.1153
 3734W        W 4598  20.352  27.415  25.689 -0.1382  0.0215 -0.2039
 3735W        W 4599  10.162   4.795   5.445  0.0681  0.1636 -0.0085
 3736W        W 4600  26.025  11.784  20.733 -0.2397 -0.0153 -0.2278
 3737W        W 4601   2.772  28.137  10.209 -0.0236 -0.0007  0.2574
 3738W        W 4602  11.315   8.513  22.756  0.0084 -0.0550 -0.0265
 3739W        W 4603  25.971  19.840  14.943 -0.1321  0.5366 -0.2258
 3740W        W 4604  24.059   2.031   6.620 -0.1209 -0.0895 -0.0624
 3741W        W 4605  26.789  17.533   9.620  0.1407 -0.1900  0.1955
 3742W        W 4606  20.454   7.191   8.784  0.1895  0.3188  0.2293
 3743W        W 4607   6.628   1.931  24.697 -0.0209  0.3360 -0.0157
 3744W        W 4608   4.050   5.795   6.590  0.0108 -0.2332  0.1343
 3745W        W 4609  18.352  25.765  22.272 -0.0744 -0.2157 -0.0490
 3746W        W 4610  20.459   5.729  19.239 -0.0432 -0.0392  0.0726
 3747W        W 4611   2.301   4.142   2.482 -0.1508 -0.2927 -0.0550
 3748W        W 4612   6.552  17.393  20.024  0.0235 -0.0060  0.1419
 3749W        W 4613   6.924   7.878  15.046  0.3522  0.0238  0.1455
 3750W        W 4614  14.541  25.154  16.258  0.1397  0.0645  0.4456
 3751W        W 4615  25.462   0.692   7.715 -0.5692 -0.1962  0.0637
 3752W        W 4616   7.688   3.259  16.989 -0.1280  0.0323 -0.1498
 3753W        W 4617   0.604  25.050   0.241 -0.3685 -0.0588  0.0661
 3754W        W 4618  21.635  22.825  10.625 -0.1180  0.2054  0.2005
 3755W        W 4619   7.609   5.321  10.133  0.0008 -0.1991 -0.1582
 3756W        W 4620  23.612   5.369  11.641  0.1349 -0.0723 -0.1328
 3757W        W 4621  16.123  19.803  12.703  0.4197  0.1839  0.1532
 3758W        W 4622  11.971   0.755  10.073 -0.0311  0.1227 -0.1015
 3759W        W 4623  10.261   2.987  19.672  0.0957  0.0825 -0.1774
 3760W        W 4624  22.281  26.802  19.335  0.0221  0.1528 -0.1938
 3761W        W 4625   3.676   2.808   9.848 -0.1148 -0.1265 -0.0477
 3762W        W 4626  27.474   4.518  13.973 -0.3687  0.0191  0.2339
 3763W        W 4627  13.540  10.052  27.091  0.2562 -0.3365 -0.0292
 3764W        W 4628   6.029  10.868   0.391  0.0085  0.0344  0.3959
 3765W        W 4629   7.455   0.987   4.566 -0.0388 -0.4112  0.2543
 3766W        W 4630  16.851  10.217  25.902 -0.1115  0.1481 -0.1087
 3767W        W 4631  16.514  21.351  17.019  0.2626  0.0939 -0.1800
 3768W        W 4632  13.144  25.311  23.838  0.0627  0.1553 -0.0708
 3769W        W 4633  15.436  11.300  10.809 -0.4877  0.0297 -0.0706
 3770W        W 4634   2.869  27.613  10.390 -0.1803 -0.0899  0.1595
 3771W        W 4635  22.058  19.013  27.884  0.1048 -0.0359  0.1331
 3772W        W 4636   7.195   2.051  16.777 -0.0829  0.1048 -0.0870
 3773W        W 4637  14.671   6.474   8.696 -0.2618  0.0920 -0.3085
 3774W        W 4638  23.481   3.272  13.358  0.0909 -0.4156  0.1147
 3775W        W 4639   5.435  24.399  12.984 -0.4491 -0.0645  0.0614
 3776W        W 4640   2.255   1.605  27.350  0.0578  0.2580 -0.1759
 3777W        W 4641  15.994  28.201  10.538 -0.0651 -0.0670  0.1146
 3778W        W 4642  24.260   0.097  16.368  0.0451 -0.0661 -0.1900
 3779W        W 4643  26.930  23.407  10.170 -0.0120  0.0160  0.3321
 3780W        W 4644   2.085  10.475  20.651 -0.0251  0.2945 -0.3244
 3781W        W 4645  17.578   5.504  21.525 -0.1577  0.1513 -0.0289
 3782W        W 4646  18.721   9.065  20.116  0.1017 -0.0875 -0.0701
 3783W        W 4647  14.420   7.727  17.896  0.0307 -0.1470 -0.0051
 3784W        W 4648  11.563   2.836  14.394  0.1885 -0.0548 -0.0163
 3785W        W 4649  16.877   3.352  23.996  0.0644 -0.0311  0.1908
 3786W        W 4650  23.902   1.453   8.624  0.0286  0.1085  0.2557
 3787W        W 4651  11.049  21.418  17.954  0.1045  0.0531 -0.2728
 3788W        W 4652   6.972   0.369   1.065 -0.0457 -0.3187 -0.2700
 3789W        W 4653  16.656  17.116  27.446 -0.2842  0.2721  0.0184
 3790W        W 4654  19.771  27.764  10.841 -0.1635 -0.4455  0.0155
 3791W        W 4655  10.495   4.605  15.085 -0.0112 -0.1197  0.1998
 3792W        W 4656  19.388   6.558  15.904  0.3886 -0.3004 -0.2641
 3793W        W 4657   1.858   1.806   6.695 -0.0654  0.0717 -0.0591
 3794W        W 4658  20.158  21.211  26.569 -0.1083 -0.3297 -0.4356
 3795W        W 4659  21.788  26.279  16.558 -0.1003  0.1602  0.1784
 3796W        W 4660   8.440   0.878  17.298  0.0976  0.0542  0.1086
 3797W        W 4661  24.340   3.233  22.384 -0.2452  0.0972 -0.2042
 3798W        W 4662  18.529  23.758  12.727  0.0219 -0.1363  0.0688
 3799W        W 4663  17.291  22.328  23.517  0.1769  0.0498 -0.0006
 3800W        W 4664  11.024  14.467  16.134 -0.0318  0.0664 -0.1291
 3801W        W 4665  11.505  14.584   1.523  0.0506  0.1718  0.3254
 3802W        W 4666  11.235   2.827  21.396 -0.1012  0.0161 -0.1519
 3803W        W 4667  24.498  10.716  15.659  0.0425  0.1578  0.1222
 3804W        W 4668  27.693   9.191  13.259 -0.1063 -0.0293  0.1311
 3805W        W 4669  26.787  26.166  13.099  0.0239 -0.2810  0.0935
 3806W        W 4670  10.933  29.110  10.072 -0.2535 -0.2464 -0.1433
 3807W        W 4671  13.877  16.958  23.062  0.0604  0.1307 -0.2550
 3808W        W 4672   1.848  12.380  24.740  0.1660 -0.0122  0.1978
 3809W        W 4673  21.169  10.334  23.486  0.2570  0.0636 -0.1336
 3810W        W 4674   7.219   8.323  17.256 -0.2886 -0.0487  0.2177
 3811W        W 4675  22.756   8.994   1.411 -0.0100  0.0516  0.2115
 3812W        W 4676  15.270   5.264   0.266 -0.0206 -0.0069 -0.0534
 3813W        W 4677   4.305   4.459   8.098  0.1406 -0.2207 -0.2739
 3814W        W 4678  12.840  18.270  19.367  0.2357 -0.0903 -0.1965
 3815W        W 4679  20.632  27.273   3.593  0.2500 -0.0276 -0.2081
 3816W        W 4680  22.503  16.569   7.240  0.1086  0.0160  0.1499
 3817W        W 4681  12.489   6.305   5.765 -0.4497  0.1814 -0.0292
 3818W        W 4682  16.272  11.256  13.359 -0.1055  0.0129 -0.3037
 3819W        W 4683  28.333   2.209  23.173  0.0396  0.2772 -0.0223
 3820W        W 4684  21.336   2.225  20.941  0.1114 -0.5595  0.3013
 3821W        W 4685  21.073  16.836  11.481 -0.1550 -0.0532 -0.1446
 3822W        W 4686   8.441  22.062  13.911  0.2480  0.0875  0.0888
 3823W        W 4687   6.784   9.819  19.240 -0.0724  0.0680  0.1432
 3824W        W 4688   7.939   4.886  18.944 -0.0895 -0.1789  0.1973
 3825W        W 4689  15.892   5.232  15.032 -0.0490 -0.0713 -0.0199
 3826W        W 4690  26.710   5.980  25.839 -0.0900  0.2327 -0.2418
 3827W        W 4691   9.395  24.659   1.871 -0.1873 -0.1069 -0.3777
 3828W        W 4692  21.561  19.378  12.958 -0.0571 -0.2702  0.0696
 3829W        W 4693  24.040   9.590  24.626 -0.1854 -0.2546 -0.1901
 3830W        W 4694  24.808   4.104  22.244  0.0884  0.1043 -0.0058
 3831W        W 4695   0.817   0.218  22.985 -0.0237 -0.0323  0.3560
 3832W        W 4696  10.642  23.098  12.214  0.1580 -0.2760 -0.0130
 3833W        W 4697  22.083   0.338   8.537 -0.0361  0.0215  0.1953
 3834W        W 4698  13.438  26.910   6.266  0.1176  0.0807 -0.3299
 3835W        W 4699   9.288  25.703   3.411 -0.3070  0.1186  0.1363
 3836W        W 4700  15.144   1.898  18.289  0.0736 -0.0261 -0.3110
 3837W        W 4701   8.571   5.526  26.805 -0.1479  0.1503 -0.0177
 3838W        W 4702  20.047   5.524   5.987  0.2437  0.1007 -0.0934
 3839W        W 4703  23.080  21.065   9.762 -0.3413  0.2037  0.1067
 3840W        W 4704  19.721  22.799  26.095 -0.1978  0.0072  0.1221
 3841W        W 4705  13.893  27.792  15.202 -0.2853  0.0074  0.0387
 3842W        W 4706  10.400   5.338  10.937 -0.1098 -0.0390  0.0612
 3843W        W 4707  25.690  23.211  25.771 -0.0109 -0.2973  0.4250
 3844W        W 4708  18.626  15.978  16.080  0.1670 -0.0588  0.0872
 3845W        W 4709  21.815  21.617  26.079 -0.3576 -0.0641 -0.0049
 3846W        W 4710  19.716   0.401  25.371  0.0757  0.0344 -0.2379
 3847W        W 4711  16.907   8.278   7.507  0.0630 -0.4082  0.2707
 3848W        W 4712  20.122  28.961  14.213  0.0063  0.1019 -0.3070
 3849W        W 4713  15.084  10.852  21.287  0.0074  0.0496 -0.2736
 3850W        W 4714  21.739  23.531  24.592 -0.2461  0.1137 -0.2372
 3851W        W 4715  18.894   6.605  15.634 -0.0291  0.0684  0.2600
 3852W        W 4716  11.311   3.045  13.716  0.2258 -0.0328 -0.1800
 3853W        W 4717   6.613  22.438  11.974  0.2767  0.0223 -0.1564
 3854W        W 4718  28.431  24.906  15.206  0.2766  0.0508  0.5767
 3855W        W 4719   6.014  11.581  28.187  0.1489 -0.1353 -0.0049
 3856W        W 4720  17.789   3.208   8.462  0.1580  0.4414  0.0055
 3857W        W 4721  10.428   6.377  17.373 -0.2872 -0.1049  0.0841
 3858W        W 4722   8.765  18.278  27.252  0.0654 -0.3924  0.0486
 3859W        W 4723  17.310   3.659  16.116  0.0821 -0.1624 -0.0939
 3860W        W 4724   8.595  12.951  24.385  0.4669  0.1675 -0.1327
 3861W        W 4725  13.919  12.297  17.577 -0.3266  0.0957 -0.4868
 3862W        W 4726  12.717  14.262  17.053 -0.0050  0.0662  0.2516
 3863W        W 4727  20.977  19.310   6.239 -0.1233  0.1962 -0.0654
 3864W        W 4728  16.586  28.533  11.502 -0.0378  0.0872  0.1529
 3865W        W 4729   7.182  10.884   2.097  0.0864 -0.0603 -0.0428
 3866W        W 4730   9.194  12.940  28.363 -0.0388  0.1112 -0.0775
 3867W        W 4731   9.476   1.033  10.675  0.0806  0.0524 -0.1658
 3868W        W 4732   5.698  21.513  14.705  0.0430  0.1017 -0.0572
 3869W        W 4733  15.047  23.355   5.675  0.1879 -0.0832 -0.0468
 3870W        W 4734  25.649  22.924  24.845 -0.2295 -0.2091 -0.4012
 3871W        W 4735  17.500   8.474  12.440 -0.0285  0.0031  0.2868
 3872W        W 4736  15.480  28.779  12.003  0.0783  0.0030 -0.3132
 3873W        W 4737  27.605  22.338  16.832  0.0147  0.1261 -0.0656
 3874W        W 4738  15.585   1.752  25.027 -0.0894  0.0223  0.5294
 3875W        W 4739  21.142  24.187  13.289  0.0687  0.1729  0.0363
 3876W        W 4740  23.257  24.811  15.318 -0.2429 -0.0665  0.0672
 3877W        W 4741   8.008   2.555  19.131 -0.1678  0.3316 -0.1289
 3878W        W 4742  10.323   2.022   4.883 -0.1869 -0.2733 -0.0923
 3879W        W 4743  16.299  22.032   7.619  0.0691  0.1900  0.0552
 3880W        W 4744  13.799   7.103  15.856 -0.0653 -0.0909  0.0059
 3881W        W 4745  10.286   6.305   9.600  0.2776 -0.1979 -0.1115
 3882W        W 4746  22.991  26.121  26.971  0.3634  0.2092  0.2133
 3883W        W 4747  25.011  27.956  13.833 -0.1976 -0.1619  0.2399
 3884W        W 4748  27.911  27.114   7.029  0.1584  0.2385 -0.0447
 3885W        W 4749  18.757  13.546  25.220  0.1522  0.4986 -0.0265
 3886W        W 4750  11.499  18.918   7.802 -0.1817  0.1797  0.2661
 3887W        W 4751   1.415   9.635  19.502  0.1825  0.2377 -0.0061
 3888W        W 4752   9.704  13.974  22.262  0.0713 -0.0788  0.2281
 3889W        W 4753  19.539  25.576   4.337  0.0544  0.4026 -0.1457
 3890W        W 4754  14.387   3.365   8.686  0.1743 -0.0792 -0.2362
 3891W        W 4755  22.788  17.466  13.167 -0.1814 -0.1687  0.1204
 3892W        W 4756  18.202   1.701  16.679  0.0795 -0.1781  0.0252
 3893W        W 4757   1.474  16.121  13.580 -0.0664 -0.1451 -0.1506
 3894W        W 4758  21.738  22.040   6.188  0.1461  0.1874  0.1822
 3895W        W 4759  11.626  25.786  18.930  0.2685 -0.2393  0.0713
 3896W        W 4760   3.222  21.291   4.158  0.2801  0.0497  0.4037
 3897W        W 4761  24.953  11.567  15.536 -0.1481 -0.1053  0.1423
 3898W        W 4762  27.964  12.179   5.054 -0.3664  0.2584  0.2525
 3899W        W 4763  13.368  12.371   4.114 -0.2834  0.0443 -0.0211
 3900W        W 4764  13.155  12.496  18.171 -0.4156 -0.0075  0.2011
 3901W        W 4765  12.644  13.864  15.917 -0.3712 -0.0044 -0.3593
 3902W        W 4766  19.200   4.459  15.367 -0.2254  0.3473  0.0241
 3903W        W 4767  19.196   6.217  23.574 -0.3787  0.2179 -0.3009
 3904W        W 4768  15.332   0.771  19.536  0.2859  0.0510 -0.0702
 3905W        W 4769  25.967  10.270   4.019 -0.2114 -0.3588 -0.1264
 3906W        W 4770  13.295  24.116   4.627  0.0707  0.1113  0.0032
 3907W        W 4771   4.625   0.617  27.609  0.2392 -0.1323 -0.3493
 3908W        W 4772  17.377  24.039  16.714 -0.0119  0.2685 -0.0571
 3909W        W 4773  25.391   5.632  14.303  0.2607 -0.2113  0.2302
 3910W        W 4774  17.634  11.293  20.535 -0.1207  0.0145 -0.0939
 3911W        W 4775  26.720  24.553  18.841  0.0307 -0.0225 -0.0509
 3912W        W 4776   8.713   6.904  12.349 -0.0594 -0.0735  0.3092
 3913W        W 4777  26.124  19.091  27.720  0.0147  0.0365  0.0745
 3914W        W 4778  13.245  18.080   9.988 -0.1366 -0.2126 -0.2073
 3915W        W 4779   6.564  28.951   8.455 -0.0322 -0.1834  0.0127
 3916W        W 4780  26.826  22.199   7.172 -0.0254  0.1806  0.1050
 3917W        W 4781  23.966   9.895  11.344  0.4785 -0.2695  0.1273
 3918W        W 4782  17.563  26.308   7.821 -0.3109  0.3533 -0.4444
 3919W        W 4783  15.574  14.334  22.629 -0.3291 -0.0836  0.0199
 3920W        W 4784  27.497  10.491  18.952  0.3509 -0.0662  0.0412
 3921W        W 4785  23.407   9.507  13.989 -0.1437 -0.2462 -0.0318
 3922W        W 4786   7.056  23.929  11.014 -0.0957 -0.3306 -0.0708
 3923W        W 4787   9.525   0.416  23.960  0.2368 -0.1006 -0.0500
 3924W        W 4788  21.454  24.257  14.560  0.0145 -0.1591 -0.0093
 3925W        W 4789  28.495  21.806   9.615  0.2864 -0.1121 -0.0301
 3926W        W 4790  12.137  28.215  13.907  0.5085  0.1539  0.1120
 3927W        W 4791  10.943   1.835   8.081  0.0545 -0.0256 -0.1910
 3928W        W 4792  15.489   3.586  15.794 -0.1833  0.0002 -0.1064
 3929W        W 4793   5.322   3.536  15.625  0.2034  0.1603 -0.1856
 3930W        W 4794  13.454   7.329  10.616  0.2472  0.0414  0.1143
 3931W        W 4795  15.894  27.002   7.500 -0.2196  0.0426 -0.0825
 3932W        W 4796   7.515  21.891  13.866  0.0011  0.2105  0.2122
 3933W        W 4797  27.180  25.226  24.327  0.1642  0.0374 -0.1148
 3934W        W 4798   7.524   4.496   5.835  0.1467 -0.1081 -0.0709
 3935W        W 4799  26.032  23.083  26.140  0.1375 -0.3751 -0.0128
 3936W        W 4800  11.886  27.915   1.184 -0.2252  0.0522  0.2104
 3937W        W 4801  20.048   9.399  25.932  0.1153  0.1529 -0.1397
 3938W        W 4802  27.890   2.352  23.823  0.1844  0.3735 -0.2985
 3939W        W 4803  24.531  27.106  10.931  0.1350 -0.0585 -0.0472
 3940W        W 4804  16.506  25.039   6.326 -0.0235 -0.0027 -0.1602
 3941W        W 4805  27.352  19.677   5.799  0.0400 -0.0148  0.2177
 3942W        W 4806  27.040   4.960  11.112 -0.2402  0.1495 -0.0043
 3943W        W 4807  28.878  22.531  12.541 -0.2757  0.2034  0.0583
 3944W        W 4808  21.883  17.214   1.030  0.2316  0.0891 -0.4636
 3945W        W 4809  18.217  11.386  17.614  0.0112 -0.0216 -0.2968
 3946W        W 4810   8.780   8.442  22.481 -0.0304 -0.0720  0.0179
 3947W        W 4811  15.405   2.378  15.089  0.1859  0.2036  0.3915
 3948W        W 4812  18.358  21.872  15.972 -0.1202 -0.0218 -0.0239
 3949W        W 4813  11.828  20.334  15.226 -0.3142  0.1798 -0.0943
 3950W        W 4814  10.394  15.149  28.903  0.1374 -0.2457  0.1965
 3951W        W 4815  18.582  13.427  14.404 -0.1199  0.1643 -0.0326
 3952W        W 4816  21.874   4.876  15.875 -0.1278  0.0027 -0.2056
 3953W        W 4817  15.019   7.745   4.438 -0.1290  0.0756  0.0751
 3954W        W 4818   5.483  10.339  18.099  0.0682 -0.3985  0.0651
 3955W        W 4819  26.167  24.968   7.035 -0.0545 -0.0234  0.2626
 3956W        W 4820  12.416   7.948   2.349 -0.0796 -0.4922  0.1073
 3957W        W 4821  16.084  10.179   4.548  0.0811  0.0725 -0.1735
 3958W        W 4822  28.641  19.538  21.795 -0.0863  0.0083 -0.1335
 3959W        W 4823   8.282   6.877   3.086  0.1997  0.1675  0.0936
 3960W        W 4824  22.193  28.111  10.821  0.0779  0.1863  0.1457
 3961W        W 4825   4.890  28.557  10.871 -0.0664 -0.1616 -0.4342
 3962W        W 4826  28.088   0.614   8.714 -0.2918 -0.2251  0.2403
 3963W        W 4827  21.233   1.175   1.306 -0.0533 -0.0064  0.1164
 3964W        W 4828   9.349  24.128  20.755  0.1128  0.0217 -0.0590
 3965W        W 4829  18.212  26.223  20.145 -0.2520  0.1349  0.2689
 3966W        W 4830   9.181   6.511   2.652 -0.1742 -0.0189 -0.4056
 3967W        W 4831   2.504  27.673  16.411 -0.0803  0.1135 -0.2308
 3968W        W 4832  20.741  10.860  12.900  0.0287  0.1832 -0.0269
 3969W        W 4833  17.358   3.781  28.602  0.1048  0.0698 -0.4106
 3970W        W 4834   9.452   6.659  15.324 -0.0467  0.2250 -0.2191
 3971W        W 4835  13.137   9.878   4.715  0.1084 -0.3207 -0.0311
 3972W        W 4836  27.800  13.024  19.767 -0.0203 -0.0816 -0.0798
 3973W        W 4837   7.310  29.007  20.073  0.0696 -0.5834  0.2393
 3974W        W 4838  21.014  24.704  13.487  0.1152 -0.1357  0.1177
 3975W        W 4839  19.947   6.711  14.150 -0.0174  0.1073  0.4051
 3976W        W 4840   0.685  28.480  15.073 -0.0005  0.1265  0.1442
 3977W        W 4841  25.647  22.757  12.827 -0.0025 -0.1269  0.1072
 3978W        W 4842   7.486  13.955   3.614 -0.0394 -0.1092  0.2737
 3979W        W 4843  12.711   8.735  23.830  0.2729  0.1340 -0.0632
 3980W        W 4844  17.946  12.446  19.146  0.2617  0.0076 -0.0375
 3981W        W 4845   3.123  16.023  16.475  0.2631 -0.3045 -0.2440
 3982W        W 4846   6.192   5.730   1.553  0.2258 -0.0003 -0.0491
 3983W        W 4847  22.873   7.745   4.041  0.2047  0.0549 -0.1558
 3984W        W 4848   6.819  20.366  16.981  0.0402 -0.0404 -0.3380
 3985W        W 4849  24.348  21.007  18.618  0.0316  0.1902 -0.1933
 3986W        W 4850  25.354  13.186  12.400  0.2991 -0.0302 -0.0198
 3987W        W 4851   6.899  28.384  22.745 -0.0894 -0.1685 -0.0994
 3988W        W 4852  14.790  10.518  12.332  0.0563  0.1200  0.0474
 3989W        W 4853  17.235  26.719  27.988  0.1834  0.2278 -0.0095
 3990W        W 4854   9.785  19.636  19.410 -0.0333 -0.2031  0.0149
 3991W        W 4855   3.641   1.349  14.997 -0.2132 -0.1944 -0.0344
 3992W        W 4856  26.685  21.740  20.160 -0.2064  0.0202 -0.2312
 3993W        W 4857  24.410  25.063  21.328 -0.2333 -0.0728 -0.3413
 3994W        W 4858  13.085  20.500  24.483 -0.2399  0.0287  0.0911
 3995W        W 4859  13.116   5.910   5.559 -0.1049  0.0864  0.1015
 3996W        W 4860  17.288  24.722  11.770  0.1709 -0.1534  0.0860
 3997W        W 4861  17.705   7.398   8.047 -0.0719 -0.0005  0.1534
 3998W        W 4862  21.704  11.624  13.460  0.1233  0.3421  0.1002
 3999W        W 4863  24.388  29.125  20.710  0.3443  0.0065 -0.0527
 4000W        W 4864  20.749  20.658  18.855 -0.0810 -0.2267 -0.0142
 4001W        W 4865  26.173  21.724   0.258 -0.0705 -0.1096  0.0264
 4002W        W 4866   0.988  16.969  23.620  0.0483  0.0019  0.1559
 4003W        W 4867   0.161   8.288   1.101 -0.1362 -0.3953  0.2016
 4004W        W 4868   2.612  20.827  11.122 -0.1349 -0.0004 -0.0375
 4005W        W 4869  11.354  21.011  22.592 -0.4021  0.3794  0.3830
 4006W        W 4870  14.209   7.944  19.576  0.3764 -0.0740  0.3405
 4007W        W 4871  21.928  27.784   6.320 -0.1171  0.0257  0.5195
 4008W        W 4872  18.282   1.294  14.182  0.1434 -0.1913 -0.1913
 4009W        W 4873  12.657   9.926  20.001  0.0164 -0.1496  0.1247
 4010W        W 4874  10.005   2.676  20.172  0.3077  0.2053 -0.3720
 4011W        W 4875  24.806  15.737  23.496  0.1036 -0.3298 -0.2689
 4012W        W 4876  10.503   2.362  17.555 -0.3440 -0.1576 -0.2461
 4013W        W 4877  14.669  20.756   1.562  0.3100  0.2295 -0.0554
 4014W        W 4878  10.033  26.824   9.969  0.1138  0.1101  0.1584
 4015W        W 4879  22.384  16.819  26.774 -0.2808  0.2703  0.0395
 4016W        W 4880   8.072  15.872  28.882 -0.1055  0.0304  0.0557
 4017W        W 4881  16.882  10.064  14.765 -0.0555 -0.1314 -0.0660
 4018W        W 4882  27.567  11.299  24.859  0.1487 -0.0653 -0.1357
 4019W        W 4883  17.004  22.851   5.266  0.4860  0.2174  0.0775
 4020W        W 4884  18.638  15.352  12.729 -0.2392 -0.1242 -0.0371
 4021W        W 4885   1.933  12.376  19.064 -0.1603 -0.1512 -0.0267
 4022W        W 4886  11.850  11.656   6.827 -0.3862  0.1395  0.0724
 4023W        W 4887   0.546  22.913  11.551 -0.1803 -0.2383 -0.1106
 4024W        W 4888   5.455  10.146  22.192  0.1714 -0.2258  0.2150
 4025W        W 4889   9.695   4.854  26.047  0.0632  0.2021  0.1747
 4026W        W 4890   6.689  27.637  28.681 -0.0264  0.3659  0.1832
 4027W        W 4891  19.211   5.840  15.594 -0.0152  0.0694  0.1825
 4028W        W 4892  13.276  21.305   3.797 -0.4348 -0.1611 -0.3405
 4029W        W 4893  24.437  29.058   6.843 -0.0999 -0.1750 -0.2371
 4030W        W 4894  24.571   5.113  18.165  0.1632  0.0174 -0.0305
 4031W        W 4895  22.883  10.912  13.551  0.1507  0.0523 -0.0876
 4032W        W 4896   7.903  20.774   6.924  0.5432 -0.0417 -0.1120
 4033W        W 4897  23.262   2.943  24.091  0.4148  0.2756 -0.1976
 4034W        W 4898  25.627   9.286  17.050 -0.0221  0.1661  0.0288
 4035W        W 4899  19.769  14.991   6.466  0.2049 -0.1750  0.0047
 4036W        W 4900  14.730   0.088  24.534  0.1083 -0.3637 -0.0140
 4037W        W 4901   1.328   2.118   4.194  0.3160  0.4035  0.1836
 4038W        W 4902  21.232  12.874   8.469  0.1110 -0.1371  0.0651
 4039W        W 4903   6.165  27.820  13.588  0.0759  0.1398  0.1357
 4040W        W 4904   1.904  16.248  15.043  0.0171 -0.1506  0.2832
 4041W        W 4905  24.798   7.730  18.762  0.0553  0.1572  0.1025
 4042W        W 4906  14.643  25.189  17.961  0.1528  0.0194  0.2582
 4043W        W 4907   6.599  21.713  28.887 -0.1243 -0.3237  0.2452
 4044W        W 4908  18.382  21.425  12.106 -0.2242  0.4446  0.2652
 4045W        W 4909   1.334  18.677  28.534 -0.1000  0.1032  0.1347
 4046W        W 4910   4.180  24.676  26.752  0.1689 -0.0153  0.1104
 4047W        W 4911  16.840  16.459   7.842 -0.0007 -0.2884 -0.2903
 4048W        W 4912  26.696  23.429   8.578 -0.0843 -0.1130 -0.1174
 4049W        W 4913  16.393  11.522  23.810  0.0724 -0.2201 -0.0766
 4050W        W 4914  10.912   3.830   9.836  0.0380 -0.2789 -0.2484
 4051W        W 4915  18.822  18.844   3.116  0.1597 -0.1329  0.1406
 4052W        W 4916  22.292   2.461  19.789 -0.1136  0.3484  0.0391
 4053W        W 4917  13.047  13.905   8.626 -0.1141  0.1189 -0.0183
 4054W        W 4918   9.363   3.076  20.681 -0.3574  0.0420 -0.0020
 4055W        W 4919   7.350  29.132   5.511  0.0136 -0.1089  0.1615
 4056W        W 4920  13.262  25.454   4.371 -0.0021 -0.1660  0.1146
 4057W        W 4921  27.077  24.181  16.736 -0.0613  0.2084  0.0030
 4058W        W 4922  25.774   2.151   9.064  0.5193 -0.0196 -0.0342
 4059W        W 4923   5.659  25.677  12.413  0.2688 -0.0950 -0.0386
 4060W        W 4924   1.593  20.138  23.543 -0.0548 -0.0539  0.0384
 4061W        W 4925  11.874   6.617  13.080  0.0279  0.1112  0.0927
 4062W        W 4926   9.004  21.756   6.638  0.2530 -0.0318  0.2676
 4063W        W 4927  13.896  15.717  15.970 -0.2445 -0.0471 -0.0192
 4064W        W 4928  13.380   6.298  11.574  0.0322  0.1524  0.3188
 4065W        W 4929   4.436  13.849  13.048 -0.1765 -0.1135  0.1193
 4066W        W 4930  11.199  26.338   6.520  0.0391 -0.3054 -0.3584
 4067W        W 4931  14.467  15.495   6.326  0.2512 -0.0291  0.1515
 4068W        W 4932  14.592  10.005  25.118 -0.1964 -0.1297  0.3449
 4069W        W 4933  12.030  20.383   5.698 -0.2340  0.1300 -0.0547
 4070W        W 4934  26.733  28.126  16.238 -0.1635 -0.2043 -0.0058
 4071W        W 4935   3.317  23.061   5.248  0.0338  0.0220 -0.0166
 4072W        W 4936  13.253  12.812  14.539  0.0567  0.1986  0.0645
 4073W        W 4937  13.755  17.756  12.576 -0.0295  0.0273 -0.1491
 4074W        W 4938  10.044   8.200  23.674  0.2895  0.0726 -0.2392
 4075W        W 4939  15.709  27.199  28.421  0.1807  0.3386 -0.0572
 4076W        W 4940  26.098   1.171  15.333  0.3123  0.1556  0.0995
 4077W        W 4941  24.189  11.494  19.345  0.0529  0.3964  0.0215
 4078W        W 4942   8.647  26.913  16.849  0.0304 -0.1744 -0.1395
 4079W        W 4943  25.476   0.274   6.476 -0.3695  0.0989  0.2096
 4080W        W 4944  26.019   8.536  17.363 -0.0558 -0.1726  0.1995
 4081W        W 4945   6.856  17.093  24.553  0.0571 -0.2292 -0.1258
 4082W        W 4946  27.836  18.646   6.654 -0.2046  0.0437  0.5557
 4083W        W 4947  13.571   0.608   2.587 -0.1172 -0.3335 -0.2579
 4084W        W 4948  10.750   2.710  26.183  0.0628  0.1334  0.2286
 4085W        W 4949  19.915  12.823   5.355 -0.2260 -0.0500  0.1463
 4086W        W 4950   0.385   7.578   9.924 -0.0684 -0.1377  0.2805
 4087W        W 4951   7.180  14.340  13.146 -0.0177 -0.5051  0.0249
 4088W        W 4952   9.970   0.400  23.581  0.4929 -0.0895 -0.2689
 4089W        W 4953  16.779  10.929  11.127  0.0736  0.2042  0.1007
 4090W        W 4954  13.186   9.995  11.421  0.0194  0.0477  0.0477
 4091W        W 4955  24.208  19.662   4.374  0.0459  0.1052 -0.3224
 4092W        W 4956  19.459  14.001  19.363 -0.0841  0.0078 -0.1080
 4093W        W 4957  25.487  15.263   4.987 -0.1456  0.1120  0.1132
 4094W        W 4958  10.312   1.431  22.194 -0.0687  0.1584 -0.0235
 4095W        W 4959  17.480  10.771  22.864 -0.1413 -0.3705 -0.0781
 4096W        W 4960  14.389  14.361  11.122  0.1102  0.1240  0.0523
 4097W        W 4961  12.230  10.681  15.236 -0.1125 -0.0692  0.2558
 4098W        W 4962  27.659   1.713  17.228  0.2090 -0.0721  0.0158
 4099W        W 4963  19.751  13.674  13.103  0.0622 -0.0114  0.1593
 4100W        W 4964  29.122   2.631   2.716 -0.0425 -0.1489  0.1982
 4101W        W 4965   9.915   8.269  18.081 -0.1883 -0.3054  0.4250
 4102W        W 4966  11.909  10.396   8.712  0.1137  0.0128 -0.0290
 4103W        W 4967  22.204   6.392  28.221 -0.1209  0.2188  0.1847
 4104W        W 4968  14.108  14.039  27.753 -0.2235 -0.0775  0.1183
 4105W        W 4969   1.743  23.113   5.826 -0.0704 -0.3599 -0.5373
 4106W        W 4970  26.885  13.202  13.470  0.1517  0.3052 -0.0898
 4107W        W 4971  10.197  20.788   1.503  0.1080 -0.0919 -0.0150
 4108W        W 4972   9.366  26.546   0.908 -0.0241 -0.1377  0.1307
 4109W        W 4973   7.862  12.278  12.083  0.0450 -0.3905 -0.0640
 4110W        W 4974   5.532   2.974   8.092  0.0102 -0.4190 -0.0865
 4111W        W 4975  25.355  17.530  21.194  0.0559 -0.0928  0.2001
 4112W        W 4976  13.709   9.290  23.679 -0.1809 -0.3034 -0.1757
 4113W        W 4977   9.867   4.718   6.019 -0.0257  0.2331  0.0087
 4114W        W 4978  28.273  12.170  20.221 -0.2384 -0.1459 -0.1180
 4115W        W 4979  13.558  13.008  26.515 -0.2075  0.4181 -0.3196
 4116W        W 4980  24.824  29.018  23.119  0.1065 -0.1665 -0.0811
 4117W        W 4981  22.694   5.131  13.877  0.0653 -0.1344  0.0472
 4118W        W 4982  17.910  21.534  25.217  0.0847  0.0291 -0.0118
 4119W        W 4983   5.586   0.760  27.614 -0.2931  0.1939  0.2052
 4120W        W 4984   9.253  11.427  13.568 -0.1669  0.1137 -0.0375
 4121W        W 4985   9.192   8.412  11.772  0.0977  0.1281  0.1224
 4122W        W 4986   6.676  22.349   1.340  0.2022  0.1661  0.0895
 4123W        W 4987  26.048  22.620  18.988 -0.0447 -0.1249 -0.3717
 4124W        W 4988  20.289  17.932  12.410  0.2350  0.2275  0.0627
 4125W        W 4989  21.982  29.027  24.272  0.0844 -0.1149  0.0292
 4126W        W 4990  27.336   5.854  11.799  0.2794  0.1663 -0.0010
 4127W        W 4991  22.672   4.022  20.696  0.0292  0.0813 -0.4037
 4128W        W 4992  17.215  21.123  26.497  0.1945  0.0555 -0.1260
 4129W        W 4993  19.284  27.488  12.318 -0.1482  0.0239  0.2966
 4130W        W 4994   9.365   2.571  28.720  0.0021 -0.0039 -0.0538
 4131W        W 4995  11.790   5.872  15.200 -0.0730  0.1481  0.0593
 4132W        W 4996  26.509   6.430  20.142  0.0866 -0.0912  0.1287
 4133W        W 4997  24.029  26.045  20.881  0.2596  0.1509  0.0560
 4134W        W 4998  25.117  13.091  17.752  0.0762  0.1531 -0.2001
 4135W        W 4999   6.314   1.044   8.765  0.3596  0.1243 -0.1688
 4136W        W 5000  24.041  13.952   8.376  0.0119 -0.0307 -0.0530
 4137W        W 5001   8.300   4.770  29.070  0.2265 -0.1415  0.0715
 4138W        W 5002  21.528  28.475   5.123  0.0584 -0.2594  0.0481
 4139W        W 5003  24.454  19.416  17.026  0.1002 -0.4561 -0.1544
 4140W        W 5004   5.325  12.992   3.218 -0.1401 -0.0963  0.1951
 4141W        W 5005  18.934   2.377  12.755  0.0158 -0.6480  0.1841
 4142W        W 5006   7.324   6.058  14.710 -0.0145  0.0473 -0.0643
 4143W        W 5007  24.370  22.258  21.774  0.0703  0.0321  0.0982
 4144W        W 5008  26.382  26.547  10.582  0.3422 -0.0263 -0.0913
 4145W        W 5009   8.712  15.552  19.642 -0.2322 -0.1529  0.1783
 4146W        W 5010  11.234   6.578  13.714 -0.0640 -0.0605 -0.0750
 4147W        W 5011   7.532  23.755  16.960  0.0299  0.1112  0.1271
 4148W        W 5012   7.484  24.036   1.857 -0.0076  0.0296 -0.0111
 4149W        W 5013  12.134  22.043   5.564 -0.1392  0.1613 -0.0003
 4150W        W 5014  10.908  12.138  17.384  0.0251 -0.2052  0.1844
 4151W        W 5015  15.213   5.900   4.138  0.3060 -0.0328 -0.0578
 4152W        W 5016  19.592  26.381  11.918  0.1166  0.6829  0.1782
 4153W        W 5017  24.491  26.861  17.097  0.1374  0.0701 -0.1168
 4154W        W 5018   0.208   4.980  23.436 -0.0625 -0.2150 -0.0892
 4155W        W 5019  18.797  29.141  24.978 -0.0298 -0.0522  0.0124
 4156W        W 5020  21.607  23.902  18.098 -0.0720 -0.0434 -0.0257
 4157W        W 5021  18.304  25.562   0.072 -0.1556 -0.2429 -0.1964
 4158W        W 5022  21.583  23.979  16.555  0.0889 -0.1197 -0.3046
 4159W        W 5023   3.216  10.586   9.624  0.0456 -0.1901  0.1060
 4160W        W 5024  10.666  14.259  26.585 -0.0093  0.1249 -0.2294
 4161W        W 5025   4.629   4.210  13.617 -0.1840 -0.1459  0.0080
 4162W        W 5026  23.873  18.534  10.467  0.0505  0.0625  0.0595
 4163W        W 5027  17.249  11.209  24.406 -0.3117 -0.0244  0.3069
 4164W        W 5028  13.038  12.245  23.396  0.1801 -0.0493  0.0488
 4165W        W 5029  16.172   3.470  10.239  0.2001  0.5517 -0.0533
 4166W        W 5030   3.681  27.057   5.560  0.1026 -0.0168 -0.1062
 4167W        W 5031   9.426  20.325  16.792  0.0783 -0.2703  0.0352
 4168W        W 5032   1.777  14.441   7.176  0.1046  0.1448  0.3151
 4169W        W 5033  27.249  14.947  24.265 -0.1328 -0.0185 -0.1156
 4170W        W 5034  17.246   7.847  17.379 -0.1383 -0.0203 -0.3135
 4171W        W 5035  16.910  28.374   6.355 -0.4015 -0.0872  0.2467
 4172W        W 5036  24.277   9.942  19.832 -0.2221 -0.1871 -0.1715
 4173W        W 5037  14.560   4.804   4.267  0.2764  0.1768  0.0984
 4174W        W 5038  16.371  15.770  11.781 -0.0754 -0.2624 -0.0261
 4175W        W 5039   0.201   1.056  19.892  0.2132 -0.0238 -0.0196
 4176W        W 5040  25.716  11.213  12.697 -0.1859 -0.1582  0.0558
 4177W        W 5041  26.222   4.682   7.692 -0.0983  0.2965  0.1214
 4178W        W 5042  11.753  27.797   9.315  0.0920  0.0674 -0.3201
 4179W        W 5043  22.155   9.451   2.296 -0.0485 -0.2582 -0.0417
 4180W        W 5044   5.341  23.620  19.834 -0.0396  0.0733  0.2470
 4181W        W 5045  27.748  16.916  21.464  0.0249  0.0402 -0.0319
 4182W        W 5046  15.334  27.186  27.223  0.0072 -0.4145 -0.1514
 4183W        W 5047  22.809   7.499   1.668  0.1971  0.0512  0.0514
 4184W        W 5048  25.169   2.041  10.465 -0.3063 -0.1003  0.2963
 4185W        W 5049  17.170  20.490   3.292 -0.1026 -0.0119 -0.2499
 4186W        W 5050  19.336  13.439  14.095  0.1508 -0.0862 -0.2376
 4187W        W 5051  10.914   5.260  18.486  0.1165  0.0304 -0.1325
 4188W        W 5052  26.956  27.641  10.394  0.1487 -0.0559 -0.0904
 4189W        W 5053   8.422  28.099  23.796  0.0173 -0.2161 -0.1789
 4190W        W 5054  27.612   3.357   2.834 -0.0419  0.0859  0.2694
 4191W        W 5055  11.284  12.474  22.868 -0.0420 -0.1163 -0.4084
 4192W        W 5056  13.352  10.896  20.548  0.2066  0.2601 -0.2725
 4193W        W 5057  17.352   0.819  13.547  0.2671 -0.0631 -0.3276
 4194W        W 5058  22.014   8.852  23.174  0.1451  0.1936  0.0825
 4195W        W 5059   8.375  19.699  15.783 -0.2544 -0.4907  0.1610
 4196W        W 5060   3.399  25.225  26.781 -0.1393  0.2892  0.1057
 4197W        W 5061  18.803  16.012  14.948  0.1493 -0.0170 -0.0026
 4198W        W 5062   2.219  22.185   9.367  0.0185 -0.6331  0.3596
 4199W        W 5063  10.515   9.881   9.206 -0.1716 -0.2266 -0.2495
 4200W        W 5064  25.859  24.837  15.834 -0.3185  0.0029  0.0297
 4201W        W 5065   5.003  15.063   5.363  0.1400  0.1353 -0.1132
 4202W        W 5066  21.226  12.588   1.841 -0.0570 -0.0800 -0.0091
 4203W        W 5067   5.900  24.513  27.162 -0.1109 -0.2850 -0.0178
 4204W        W 5068  17.912  28.193  25.080  0.1079 -0.1858 -0.1540
 4205W        W 5069  11.648  10.050  27.649  0.0517 -0.2987 -0.0789
 4206W        W 5070  10.554  15.858   2.596  0.2027  0.2563  0.1361
 4207W        W 5071  17.336   7.815   0.125 -0.1069 -0.2292  0.0136
 4208W        W 5072  14.771   4.706   6.453  0.2110  0.1237 -0.0299
 4209W        W 5073   0.015  21.361  29.102 -0.0156 -0.2443  0.2298
 4210W        W 5074  18.425   0.774  25.221  0.1812  0.0846  0.0220
 4211W        W 5075  22.135   6.382  10.017 -0.0974 -0.3118  0.0744
 4212W        W 5076  21.733   3.049   0.533 -0.0339 -0.0097 -0.2173
 4213W        W 5077  17.387  22.627   2.404 -0.0763  0.1048 -0.1228
 4214W        W 5078  15.775   7.766   9.334  0.4891  0.0092  0.3388
 4215W        W 5079  24.433  22.967  16.683  0.2093 -0.1290 -0.2309
 4216W        W 5080  26.734  28.503  13.953 -0.1039 -0.0758 -0.1235
 4217W        W 5081  11.843   5.011  10.369  0.0212  0.2248 -0.2068
 4218W        W 5082  15.802  22.143   9.872 -0.1319  0.0350  0.2784
 4219W        W 5083  19.317  11.399  23.911 -0.0069 -0.2857  0.3766
 4220W        W 5084   9.139  24.410  25.488  0.0634 -0.0004 -0.2542
 4221W        W 5085  25.474   6.353   1.921  0.2169 -0.0850 -0.0877
 4222W        W 5086   0.707   5.836   9.489  0.3509  0.1525  0.1020
 4223W        W 5087  23.325   6.041   7.417 -0.0963 -0.0175 -0.1817
 4224W        W 5088   9.209  16.380  10.914  0.1164  0.3100 -0.0363
 4225W        W 5089   4.610   4.547  11.842  0.3075  0.1241  0.3162
 4226W        W 5090  17.164  19.846  22.342  0.0397  0.0433 -0.1688
 4227W        W 5091  14.422  12.750   9.088  0.0993 -0.1124  0.0246
 4228W        W 5092  17.476   1.551   2.007 -0.5069 -0.1907 -0.0608
 4229W        W 5093  20.248  19.438  18.588  0.1025  0.0415 -0.0538
 4230W        W 5094   8.120   4.611   5.807 -0.0233  0.2106 -0.2503
 4231W        W 5095  19.438   6.835  23.581 -0.1070 -0.1034 -0.2304
 4232W        W 5096   0.926   0.533  16.734 -0.3734 -0.5327  0.0144
 4233W        W 5097  21.978  16.918  28.197  0.0145 -0.1938  0.2035
 4234W        W 5098  20.121  14.352   0.448 -0.0138 -0.2384 -0.0595
 4235W        W 5099  14.689  24.385  28.801 -0.1427  0.0649  0.0576
 4236W        W 5100  20.012  27.969  10.484 -0.1360  0.3668 -0.0648
 4237W        W 5101   6.264  11.651  22.632 -0.0173 -0.0526 -0.1033
 4238W        W 5102   6.837   5.623  11.818  0.0755 -0.0868 -0.0412
 4239W        W 5103   1.121  13.389   8.043 -0.0234 -0.0786  0.3176
 4240W        W 5104  29.035  15.586   9.023  0.2672  0.0250  0.0785
 4241W        W 5105   0.351  20.701  28.314  0.0558  0.3239  0.0570
 4242W        W 5106  14.301   7.568   9.193 -0.1618  0.3797 -0.0438
 4243W        W 5107  25.369   8.496  20.921  0.0737 -0.1772 -0.0455
 4244W        W 5108  21.976  18.250   7.908 -0.2926  0.0679  0.0310
 4245W        W 5109  25.461  14.372  11.878  0.1003  0.1768  0.4375
 4246W        W 5110  24.750  24.753  15.547 -0.0952  0.1867 -0.1458
 4247W        W 5111  24.686   4.753  27.037 -0.3094 -0.1847 -0.0615
 4248W        W 5112  14.811  19.299  12.349 -0.1110 -0.1123  0.1560
 4249W        W 5113   1.921  12.616  20.560  0.3389  0.2882 -0.0771
 4250W        W 5114  28.136   6.765  26.959 -0.0570 -0.3446 -0.1114
 4251W        W 5115   1.452  15.228  24.976  0.0558  0.2082  0.2560
 4252W        W 5116  21.584  28.834   7.988 -0.0078 -0.2328 -0.2893
 4253W        W 5117   9.908  17.154  15.659  0.1580  0.2503 -0.0185
 4254W        W 5118  13.321  14.974   5.592 -0.1365  0.2439 -0.2090
 4255W        W 5119  12.167   2.786  11.950  0.3083 -0.0650  0.1543
 4256W        W 5120  28.186  10.996  17.843 -0.0439 -0.2094 -0.1672
 4257W        W 5121  16.551  24.738  29.141 -0.0438  0.0314  0.2106
 4258W        W 5122   8.004  18.286  14.434 -0.1510  0.2492 -0.3454
 4259W        W 5123  19.081  23.319  25.553 -0.0799 -0.0442  0.0111
 4260W        W 5124   2.596  18.402  22.816 -0.2969  0.1191 -0.0739
 4261W        W 5125  13.691  22.651  18.674 -0.2421 -0.6394  0.0138
 4262W        W 5126  23.738  10.802   3.156  0.1325 -0.1246  0.1345
 4263W        W 5127  25.496   6.947  26.199 -0.1587  0.2316 -0.0733
 4264W        W 5128  11.373   6.106  15.167  0.0670 -0.1485 -0.1365
 4265W        W 5129  20.553  26.669  11.703  0.2435 -0.1352  0.1237
 4266W        W 5130  12.166  10.158  23.452  0.2772 -0.1598  0.0845
 4267W        W 5131  22.072  20.521  12.312  0.2311 -0.1238  0.0566
 4268W        W 5132  23.300  22.597  25.396  0.1158 -0.0680  0.3882
 4269W        W 5133  14.779  15.742   0.010  0.1241  0.0215  0.1926
 4270W        W 5134  25.993   4.555  12.721  0.4543 -0.1494 -0.2946
 4271W        W 5135  21.230   1.782  21.820  0.3681 -0.2452 -0.1733
 4272W        W 5136  24.221  24.627   2.918  0.0147 -0.3430 -0.0056
 4273W        W 5137   2.651   3.968  17.462 -0.1025  0.0595  0.0601
 4274W        W 5138  17.176   6.889  23.245 -0.1066  0.3753  0.0869
 4275W        W 5139  18.130  16.881  23.988  0.1281 -0.1722  0.0302
 4276W        W 5140  13.434  11.529   0.814 -0.1321 -0.2284  0.0588
 4277W        W 5141  15.275  15.037   4.762  0.0079 -0.1644  0.2357
 4278W        W 5142  20.493  18.882   5.281 -0.0269 -0.0963 -0.3524
 4279W        W 5143  24.109  16.096  27.889  0.1092  0.2268 -0.0037
 4280W        W 5144  18.225  11.167   3.296  0.0413  0.0255  0.2725
 4281W        W 5145   1.841  24.800   9.195  0.1644 -0.1191  0.2316
 4282W        W 5146  15.959  12.757  23.091 -0.2094 -0.2894  0.0767
 4283W        W 5147  23.508   4.666   3.945  0.1426 -0.0106 -0.1649
 4284W        W 5148  18.424  18.126   9.175 -0.0836 -0.3221  0.1070
 4285W        W 5149   6.779  13.176  14.276  0.1764  0.0581  0.1538
 4286W        W 5150  17.270   7.778  18.291  0.0288  0.0004  0.2450
 4287W        W 5151  17.064  15.419  22.533  0.2203 -0.1488  0.1079
 4288W        W 5152  14.530   7.619  19.738  0.1799  0.0110  0.5586
 4289W        W 5153   9.196  22.700  24.844 -0.3169  0.4641 -0.0582
 4290W        W 5154  18.893  20.325  12.857 -0.1539 -0.2638  0.3215
 4291W        W 5155   9.528  16.669  24.696  0.3979 -0.3396 -0.1839
 4292W        W 5156  10.776  15.576  28.823  0.0569  0.2316 -0.2292
 4293W        W 5157  12.196   6.123  21.847 -0.1388  0.0810 -0.1451
 4294W        W 5158  24.261  25.306  10.291 -0.3058  0.0042 -0.2398
 4295W        W 5159   2.320  14.193  13.960 -0.2064 -0.1879 -0.4187
 4296W        W 5160  12.531  20.690  12.882 -0.3060  0.2185 -0.0227
 4297W        W 5161  13.032   6.961  20.028 -0.0719 -0.3009  0.2404
 4298W        W 5162  28.755  28.824   1.387  0.2594 -0.0445  0.0135
 4299W        W 5163  23.911  28.370  21.756 -0.0353  0.0979  0.4055
 4300W        W 5164   6.528  27.137  22.992 -0.1051  0.4372 -0.1714
 4301W        W 5165  20.794   0.754  13.726 -0.1415  0.1277 -0.3437
 4302W        W 5166  11.874  14.499  15.932  0.2291  0.0332 -0.2932
 4303W        W 5167  14.670   8.906   7.485 -0.1067 -0.0526  0.1719
 4304W        W 5168  18.604   7.730  25.798 -0.1038  0.3023  0.0543
 4305W        W 5169   8.670  28.149  26.819  0.0664  0.0813  0.0226
 4306W        W 5170  27.440  12.202   4.289 -0.0075  0.1155 -0.0372
 4307W        W 5171   6.033  20.768  19.446  0.0887 -0.1961  0.1024
 4308W        W 5172  26.154  26.869  11.371  0.0059 -0.2168  0.1339
 4309W        W 5173  12.565  28.733  17.651  0.0453 -0.1435 -0.2612
 4310W        W 5174  20.653  13.163  12.663 -0.0833 -0.2521  0.3069
 4311W        W 5175  14.878  19.678  23.726 -0.0140 -0.1083 -0.0858
 4312W        W 5176  21.139   7.881  28.489  0.1175 -0.1849  0.0500
 4313W        W 5177  20.164  18.372  14.287  0.1077  0.0775 -0.0488
 4314W        W 5178  29.009  27.657  10.482  0.2178  0.0066 -0.2192
 4315W        W 5179  29.032   5.945   3.830  0.1901 -0.2429  0.3397
 4316W        W 5180  11.748  17.195  24.509  0.1218 -0.0968  0.1434
 4317W        W 5181  16.781  22.358   9.339 -0.1092  0.2384 -0.0757
 4318W        W 5182   4.224  16.391   3.476 -0.1895  0.2659  0.2522
 4319W        W 5183   1.110  25.130  12.943 -0.0246  0.2170 -0.0030
 4320W        W 5184  22.683  27.174  21.090  0.0580 -0.0666 -0.1133
 4321W        W 5185  11.907  15.792  14.211  0.0988 -0.0717 -0.1625
 4322W        W 5186  13.101   0.356  28.397 -0.0420 -0.0298  0.0465
 4323W        W 5187   7.712   3.982   5.431 -0.2376  0.0128  0.0469
 4324W        W 5188   4.846   7.901  25.906  0.0513 -0.4770  0.0004
 4325W        W 5189  10.037  12.509  13.773 -0.2830 -0.3752 -0.3146
 4326W        W 5190  23.245   5.747  12.767  0.1556  0.3988 -0.2220
 4327W        W 5191  16.066   6.851  13.368 -0.0036  0.0891 -0.2244
 4328W        W 5192  15.975   6.279  10.351  0.1363 -0.0118 -0.0469
 4329W        W 5193  21.914  14.660   9.865  0.1859 -0.1420 -0.2027
 4330W        W 5194  28.512  25.353  25.197  0.0388  0.2834 -0.0398
 4331W        W 5195   4.060   5.949  22.226  0.3774  0.0442  0.0331
 4332W        W 5196  27.747   5.957  19.534  0.0027 -0.1942 -0.1610
 4333W        W 5197   8.795   1.847   2.373  0.0834  0.2759  0.5957
 4334W        W 5198   5.852   6.134  21.371  0.0095  0.1940 -0.3074
 4335W        W 5199  20.531  24.169   2.036  0.0069 -0.1119  0.1919
 4336W        W 5200  27.213   5.700  19.753  0.3411  0.2029  0.1165
 4337W        W 5201  21.143   2.600  21.893  0.0677  0.1898  0.3121
 4338W        W 5202  22.383  24.790  15.638  0.1259 -0.1172  0.3986
 4339W        W 5203  19.363   1.387  18.162 -0.0564  0.4029  0.2117
 4340W        W 5204  20.561   9.721  23.032 -0.2099 -0.2453 -0.0562
 4341W        W 5205  18.712  20.283   4.494 -0.0693 -0.0662 -0.1879
 4342W        W 5206   2.020  23.960  16.007  0.5209 -0.2254  0.4724
 4343W        W 5207  12.218   2.054  20.437  0.6355 -0.0481 -0.1220
 4344W        W 5208  13.577   2.376  11.843 -0.3944  0.3762  0.0428
 4345W        W 5209  10.656   5.705   1.695  0.1053 -0.1486  0.2863
 4346W        W 5210  12.866  26.844  27.053 -0.3262  0.1497  0.2898
 4347W        W 5211  11.806  28.545  25.467  0.1817 -0.0949 -0.0465
 4348W        W 5212  20.381   1.909  13.006  0.1173  0.1832  0.0208
 4349W        W 5213  13.235  18.314  23.435  0.0273 -0.2589  0.2029
 4350W        W 5214  19.682  26.214   6.606 -0.0517  0.3345  0.1438
 4351W        W 5215  19.459   8.138   7.200  0.0009  0.1242  0.0677
 4352W        W 5216   7.296  28.308  10.558  0.0136  0.0424 -0.1011
 4353W        W 5217  24.493  18.542   6.020 -0.1183 -0.0947  0.1184
 4354W        W 5218  11.995  12.612  29.065 -0.0834 -0.1551 -0.0934
 4355W        W 5219  20.371  15.625   1.507 -0.0578  0.1780 -0.0804
 4356W        W 5220  18.131   1.968   2.421 -0.0446 -0.2524  0.1759
 4357W        W 5221  21.255  16.433  28.051 -0.1620  0.0034  0.0320
 4358W        W 5222  26.313   9.313  13.090  0.3113 -0.0435 -0.0582
 4359W        W 5223  13.338  21.738  10.138 -0.1448 -0.1359 -0.0894
 4360W        W 5224   3.892   2.647  15.340  0.0204 -0.2545  0.3161
 4361W        W 5225  21.064   2.761  14.291  0.2566  0.1056  0.0513
 4362W        W 5226  13.009  26.016  28.512  0.0836  0.0539 -0.2501
 4363W        W 5227   3.573  28.115  23.764  0.1958  0.5144  0.1722
 4364W        W 5228  20.171  12.257   4.333 -0.0159 -0.2007 -0.0888
 4365W        W 5229  14.895  14.129   9.314  0.1083 -0.3659  0.0026
 4366W        W 5230  10.126   8.597  28.496 -0.0054  0.3569 -0.0478
 4367W        W 5231  26.767  10.445  20.275 -0.2849  0.0937  0.0558
 4368W        W 5232  16.821   9.177  25.478  0.0651 -0.0032  0.0609
 4369W        W 5233  15.996  15.956  26.344 -0.0453 -0.1454  0.0923
 4370W        W 5234  23.384  26.291  22.877  0.2718 -0.0904  0.5302
 4371W        W 5235  14.957  19.719  25.234  0.0531 -0.1857 -0.1310
 4372W        W 5236   1.008  11.384  16.817 -0.1168  0.1759  0.0718
 4373W        W 5237  10.440  25.840  13.398  0.2264 -0.0953 -0.0002
 4374W        W 5238   6.878  20.845   9.206  0.0856 -0.0194 -0.0568
 4375W        W 5239  21.025  27.762  27.131 -0.1748  0.1417  0.2483
 4376W        W 5240  21.958  18.904   3.375  0.3878 -0.0405  0.0966
 4377W        W 5241  27.512   9.784   2.978 -0.0113 -0.0480  0.1301
 4378W        W 5242   6.156  19.620   5.389  0.2470  0.2532 -0.0448
 4379W        W 5243  17.676  19.364  18.656 -0.1417  0.0959  0.2442
 4380W        W 5244  20.711  27.771  19.775  0.4047  0.1345  0.1901
 4381W        W 5245  15.947  29.135   2.420  0.0282  0.1229  0.2122
 4382W        W 5246  13.531   4.806  16.695 -0.1613 -0.2759  0.0358
 4383W        W 5247  22.116  20.763  26.143 -0.1261  0.0611 -0.7127
 4384W        W 5248   3.538   2.956  21.320  0.1486  0.2762 -0.3083
 4385W        W 5249  17.557  10.830  13.855  0.0077  0.1051  0.1711
 4386W        W 5250  26.561  12.775  13.046 -0.0526  0.2435  0.0381
 4387W        W 5251  18.678   7.443  18.909  0.4170 -0.1599  0.0227
 4388W        W 5252   1.702  27.801   2.488 -0.0126 -0.0453 -0.0220
 4389W        W 5253  15.004   6.815   9.711 -0.0480 -0.0986  0.2916
 4390W        W 5254  14.761  12.110   0.850 -0.0094 -0.1258 -0.2209
 4391W        W 5255  12.241  23.176   1.382 -0.3262  0.0734  0.2700
 4392W        W 5256  11.191   6.775  20.087 -0.4609  0.0132  0.2382
 4393W        W 5257   3.742   2.179  23.548  0.0149 -0.0432 -0.5079
 4394W        W 5258  23.815  28.824   9.261  0.2202 -0.0850 -0.0323
 4395W        W 5259  12.229   9.848  22.195 -0.1395 -0.1274  0.1713
 4396W        W 5260  12.078   2.199   8.861 -0.0086  0.1800  0.0522
 4397W        W 5261  22.184  22.894  17.246 -0.3224 -0.2273 -0.2091
 4398W        W 5262  19.958  26.122  23.294  0.0431  0.2139 -0.0216
 4399W        W 5263  22.831  26.082  22.206 -0.0726 -0.2719  0.0878
 4400W        W 5264  17.196  21.980  19.563  0.0709  0.2195 -0.2910
 4401W        W 5265  26.588  21.927  17.382  0.2774  0.0161  0.0941
 4402W        W 5266  13.741  23.184  13.346 -0.2567  0.0101 -0.1908
 4403W        W 5267  27.813  28.235  21.435  0.1015 -0.2035  0.4271
 4404W        W 5268  20.751   6.091   0.373  0.2201  0.0456  0.1748
 4405W        W 5269  13.880  24.397  13.467  0.1754 -0.0446  0.0259
 4406W        W 5270  24.040  20.634  18.176  0.0855  0.0982  0.1011
 4407W        W 5271  25.081  26.178  24.844 -0.2052 -0.4025 -0.1729
 4408W        W 5272  26.015  20.296  13.264  0.1234 -0.3843  0.2364
 4409W        W 5273  17.734   8.179   2.203  0.1338  0.0079 -0.0993
 4410W        W 5274  26.999  19.286  10.213 -0.0532 -0.5193  0.0541
 4411W        W 5275   6.886  28.768  19.864  0.3099 -0.1082 -0.3871
 4412W        W 5276   7.570  20.450  22.011 -0.3865  0.2158 -0.2070
 4413W        W 5277  27.886   3.352  10.983 -0.0188  0.1336  0.0732
 4414W        W 5278  13.805  13.332  13.181  0.3932 -0.0766 -0.0235
 4415W        W 5279   3.279  16.803   8.888 -0.3390  0.0695  0.1347
 4416W        W 5280  13.064  11.855  23.701 -0.0549  0.0640  0.1530
 4417W        W 5281  11.774   4.470  21.994 -0.0753  0.0353 -0.1976
 4418W        W 5282  18.119   1.058  27.953 -0.1131 -0.3079 -0.3792
 4419W        W 5283   8.009  17.398  20.612 -0.0115  0.0661  0.2740
 4420W        W 5284  28.702  11.501  14.705 -0.0630  0.2957  0.2814
 4421W        W 5285  19.412   1.602   7.230  0.3935 -0.1981  0.0308
 4422W        W 5286   8.771   3.052  16.355 -0.2496 -0.1132 -0.1994
 4423W        W 5287  25.870  12.331  14.845 -0.2432 -0.0372 -0.3366
 4424W        W 5288  21.327  23.663   2.886 -0.0854 -0.1178 -0.0904
 4425W        W 5289   2.988  27.876  20.326 -0.1728 -0.2917  0.2441
 4426W        W 5290   9.523   9.507  17.743  0.0863  0.0847 -0.1822
 4427W        W 5291  10.785   2.027  27.106  0.1032 -0.0311 -0.4797
 4428W        W 5292  11.140  22.381  15.646  0.0705  0.0545 -0.2266
 4429W        W 5293  19.139   4.971  24.836 -0.0283 -0.0226 -0.1823
 4430W        W 5294  18.872  13.647  15.829  0.1980  0.0936  0.1563
 4431W        W 5295  14.152  28.600  15.228  0.2331  0.1385 -0.1727
 4432W        W 5296   2.732   8.145  27.386  0.0379  0.3300  0.0464
 4433W        W 5297   7.052  11.451  16.503 -0.0977  0.0655 -0.0537
 4434W        W 5298  17.018  23.126   4.001 -0.2071  0.1945  0.3165
 4435W        W 5299  10.379   1.889  21.523 -0.1213  0.1500  0.2709
 4436W        W 5300  12.137   1.828  28.211  0.2050  0.2376  0.0291
 4437W        W 5301  17.558   0.838  19.762 -0.2392  0.1306  0.0771
 4438W        W 5302  19.038  10.576   4.635  0.1868 -0.2119  0.2087
 4439W        W 5303  18.190   3.147  22.127  0.2552  0.3421 -0.5209
 4440W        W 5304   5.697  11.134  27.795 -0.0323  0.4032  0.0145
 4441W        W 5305  14.621   3.884  10.608  0.1984 -0.0987  0.1151
 4442W        W 5306  21.141  19.180  16.059  0.2740 -0.0753  0.1575
 4443W        W 5307   3.069  13.805  14.464  0.1427  0.5787  0.1537
 4444W        W 5308   1.727  15.445  19.213  0.1619 -0.1573 -0.0583
 4445W        W 5309  11.390   4.964  15.170  0.4140  0.1720  0.2854
 4446W        W 5310   5.304  25.912  23.597 -0.2420 -0.1606 -0.0624
 4447W        W 5311  15.717   8.278  20.958 -0.3819 -0.0501 -0.1404
 4448W        W 5312  23.293   3.110   3.563  0.0421 -0.3226  0.1003
 4449W        W 5313  17.630  12.938  12.597 -0.0477 -0.1698 -0.0377
 4450W        W 5314  21.150   2.190  14.736  0.2636  0.0525 -0.2208
 4451W        W 5315  14.029  19.761  21.801 -0.0866 -0.0654  0.0375
 4452W        W 5316  19.170  26.537   4.188  0.0958  0.2111  0.0965
 4453W        W 5317  17.104  22.307   5.960 -0.3197  0.3818 -0.0790
 4454W        W 5318  12.753  11.105  24.316  0.2509 -0.1364 -0.0652
 4455W        W 5319  26.017   8.769   1.951  0.1420 -0.2486  0.0653
 4456W        W 5320  24.561   8.796  17.762 -0.0669 -0.1414  0.0074
 4457W        W 5321   9.127  22.172  14.172 -0.0942 -0.0526 -0.1396
 4458W        W 5322  14.917   0.543  15.246 -0.2040 -0.1867 -0.0092
 4459W        W 5323   3.339  12.856  13.109  0.1432  0.1412 -0.0577
 4460W        W 5324  14.311  22.211   5.658 -0.0927 -0.0409 -0.4290
 4461W        W 5325   2.118  18.947   5.508 -0.0728  0.1098 -0.0444
 4462W        W 5326  15.955  28.187   2.952  0.2231 -0.2523  0.4360
 4463W        W 5327  22.505  16.877  20.669  0.0511  0.0934  0.2594
 4464W        W 5328  16.040  27.011  10.036 -0.1466  0.0912 -0.0934
 4465W        W 5329  21.552  25.635  20.845  0.1690  0.0173 -0.0927
 4466W        W 5330  21.462   6.171  17.708  0.0122  0.0892 -0.1246
 4467W        W 5331  18.203   5.443   8.657  0.0922  0.2363 -0.0706
 4468W        W 5332  13.545   3.649  24.247  0.2472 -0.0929  0.2298
 4469W        W 5333  17.853   6.087  19.680 -0.0353 -0.0856 -0.1548
 4470W        W 5334   3.364  19.787  20.327 -0.3704 -0.2390  0.2733
 4471W        W 5335  25.366   7.976  10.938 -0.1646 -0.1622  0.1187
 4472W        W 5336  17.010  23.122  17.646  0.1600  0.1148 -0.0316
 4473W        W 5337   9.281   3.851   3.234 -0.1881 -0.0429 -0.0494
 4474W        W 5338  21.006  26.788  19.637  0.0153  0.0495  0.0045
 4475W        W 5339   4.474   3.550  15.354 -0.0015 -0.0881 -0.3115
 4476W        W 5340  19.436  21.115  17.704  0.2908 -0.2339  0.0438
 4477W        W 5341  19.010  15.954  10.544  0.0203  0.0707  0.1742
 4478W        W 5342  12.241   0.292  18.043 -0.1237 -0.1052 -0.1820
 4479W        W 5343  16.576   1.553  10.867 -0.1102 -0.0431  0.1324
 4480W        W 5344  23.843  13.007  19.403 -0.0262 -0.0119  0.1364
 4481W        W 5345  15.473   2.608  14.683 -0.0284  0.0744 -0.1004
 4482W        W 5346   8.047  27.313  15.163 -0.0845  0.1632  0.2110
 4483W        W 5347  11.748  29.082  13.551  0.1576  0.0426  0.0491
 4484W        W 5348  15.769   4.256   1.934 -0.0564 -0.0638  0.0450
 4485W        W 5349  18.229   2.484  14.944  0.1904  0.2241  0.0188
 4486W        W 5350  11.408   5.812  15.546 -0.2552 -0.2344  0.0530
 4487W        W 5351  14.381  26.698   2.016  0.2231 -0.0491 -0.0184
 4488W        W 5352   9.358   5.252  21.030 -0.0101 -0.0471  0.0792
 4489W        W 5353  12.566   5.487  18.882  0.0018  0.1060  0.1524
 4490W        W 5354  25.540  21.334  17.453 -0.1849  0.2546 -0.0851
 4491W        W 5355  11.598  16.205  19.090 -0.1517  0.0163 -0.3654
 4492W        W 5356   0.015   7.611  11.349 -0.3280  0.0838 -0.0797
 4493W        W 5357  21.751  25.156   6.759 -0.2283 -0.0649  0.2526
 4494W        W 5358  21.788   1.948  12.782 -0.0196  0.1198  0.2260
 4495W        W 5359  25.540   1.145  26.309 -0.2437  0.0249  0.0113
 4496W        W 5360  17.069  12.216  19.524 -0.1008 -0.0927  0.1262
 4497W        W 5361  20.961  22.538  10.299  0.2105  0.2173  0.0122
 4498W        W 5362   3.245  18.622  10.675  0.0463 -0.1112 -0.4144
 4499W        W 5363  17.297   2.660  21.971  0.0993  0.0609 -0.1548
 4500W        W 5364  24.369   1.891   3.327 -0.0389 -0.1798  0.0915
 4501W        W 5365  11.889  18.589  18.471  0.0702  0.1785 -0.0890
 4502W        W 5366  18.830  18.731   1.271 -0.0960  0.0792  0.0322
 4503W        W 5367  15.956   5.620  23.200 -0.2079  0.0339  0.1322
 4504W        W 5368  13.772   8.533  22.067 -0.0665  0.2938 -0.1444
 4505W        W 5369   6.883   4.389  16.040  0.6133 -0.1766  0.2705
 4506W        W 5370  22.609   2.117  14.838 -0.2751  0.0104  0.0370
 4507W        W 5371   8.103   2.791   4.134  0.1091 -0.0986  0.1851
 4508W        W 5372  15.003  26.571   3.900  0.1043 -0.1084  0.1901
 4509W        W 5373   0.392  12.402  12.385 -0.1779 -0.0616 -0.0588
 4510W        W 5374  14.160  12.863   1.307  0.0146 -0.2570  0.1124
 4511W        W 5375  20.463   0.247  21.788  0.1022  0.2986 -0.0847
 4512W        W 5376  24.844  24.437   7.462 -0.1981 -0.1465  0.3197
 4513W        W 5377  16.242  21.807  10.018  0.2045  0.0771  0.0144
 4514W        W 5378  27.294   6.447  13.190  0.1370  0.2132  0.0616
 4515W        W 5379  17.881  14.349   9.227 -0.0034 -0.3553  0.0170
 4516W        W 5380   0.291   0.680  25.645 -0.1623 -0.1072  0.3552
 4517W        W 5381  28.254  15.446  19.878  0.3133 -0.1559 -0.1572
 4518W        W 5382  22.872   2.556  12.438 -0.0519  0.0433 -0.1691
 4519W        W 5383   0.144   1.743  11.379 -0.1104 -0.2258  0.3107
 4520W        W 5384  16.509   4.646  14.107  0.1233  0.1229  0.1229
 4521W        W 5385   7.197  20.276  25.185  0.3859 -0.1251 -0.1102
 4522W        W 5386  12.381   1.386  16.971  0.2413  0.0364 -0.0603
 4523W        W 5387  28.491  23.089  21.282 -0.2436 -0.1598 -0.2177
 4524W        W 5388  16.846   4.854   4.889  0.4212 -0.1183 -0.0134
 4525W        W 5389  17.538  16.913  18.185  0.0995 -0.1855  0.1076
 4526W        W 5390   3.839   7.665  24.910  0.0042 -0.4134  0.0272
 4527W        W 5391  11.387   1.307  13.946  0.1218  0.4303  0.1598
 4528W        W 5392  10.014  10.748  11.222  0.0094  0.1803  0.3235
 4529W        W 5393   3.707  16.360  14.273 -0.1725  0.1378  0.2164
 4530W        W 5394  25.511  12.785  21.081  0.4769 -0.2607 -0.1008
 4531W        W 5395   9.054  27.196  19.195 -0.0486 -0.0994  0.0992
 4532W        W 5396  23.619  19.942  13.540  0.0908 -0.0814 -0.0643
 4533W        W 5397  24.696  21.289  27.070 -0.0175  0.0254  0.0266
 4534W        W 5398  15.167  27.281  16.385  0.0652 -0.0839 -0.0684
 4535W        W 5399  28.170  22.489  21.388  0.1766 -0.1843  0.3816
 4536W        W 5400  26.692   0.527  24.346  0.0628 -0.2638  0.1838
 4537W        W 5401  26.763   8.281   9.879 -0.0845  0.0354 -0.1430
 4538W        W 5402  27.767   5.095   2.022 -0.0921  0.3489  0.1182
 4539W        W 5403   5.557   6.143   0.868  0.1906  0.0521 -0.1577
 4540W        W 5404  17.791  20.965  18.429  0.0175 -0.0226 -0.0597
 4541W        W 5405  16.998  29.008  26.978 -0.1263 -0.1993  0.3093
 4542W        W 5406  14.399   5.932  27.359  0.0814 -0.2798  0.0958
 4543W        W 5407  12.604  24.125  28.174  0.1228  0.0727  0.0073
 4544W        W 5408  23.129   5.283  26.687  0.1555  0.1370  0.0754
 4545W        W 5409  25.515  12.471  26.788  0.0680  0.1326  0.4003
 4546W        W 5410  19.421  24.678  15.977  0.0257 -0.2423 -0.1295
 4547W        W 5411   8.859   1.623   3.391 -0.1439  0.1308 -0.0802
 4548W        W 5412  18.105  23.681  18.634 -0.3671  0.1848  0.0220
 4549W        W 5413   5.819   2.327   4.882 -0.0622 -0.0900 -0.3833
 4550W        W 5414  17.070   2.368  19.189  0.1769  0.2091  0.0956
 4551W        W 5415  19.988   1.400   9.379  0.2303 -0.0620 -0.5432
 4552W        W 5416   9.318  19.180  22.529 -0.2108  0.0845  0.0461
 4553W        W 5417  16.989   1.930  17.501  0.1470  0.2979  0.1898
 4554W        W 5418  10.660   2.907  16.404  0.1388 -0.0738  0.0919
 4555W        W 5419  13.866  14.931  22.093  0.1494  0.2574  0.1626
 4556W        W 5420  13.689  13.889  18.307  0.2747  0.1670 -0.1080
 4557W        W 5421  10.096  20.177  18.051  0.0302 -0.0265  0.1219
 4558W        W 5422   0.732  18.601  19.784 -0.1288 -0.0179  0.0726
 4559W        W 5423  15.779   7.994   8.300  0.0093  0.2712 -0.1723
 4560W        W 5424   2.697  26.555  29.113  0.0097 -0.0906  0.0572
 4561W        W 5425  27.691   5.764  16.680 -0.0044 -0.2018 -0.1738
 4562W        W 5426   5.711  19.955  12.884  0.0930  0.1901  0.1311
 4563W        W 5427  11.384  17.166  18.776  0.2324  0.1197 -0.3167
 4564W        W 5428  22.889  16.546  25.418  0.1364 -0.0290  0.2566
 4565W        W 5429  27.830  18.366   0.814  0.0214  0.1851 -0.0825
 4566W        W 5430  19.122  10.194  18.892 -0.2750 -0.2388 -0.0386
 4567W        W 5431  12.488   6.752  27.397 -0.0497 -0.1060 -0.1363
 4568W        W 5432   3.448   3.761  26.431  0.2068 -0.1090 -0.1029
 4569W        W 5433  26.470   2.586  11.470 -0.0437  0.1112  0.0528
 4570W        W 5434  10.681   3.181  14.993  0.0243  0.1507 -0.0080
 4571W        W 5435  22.468   8.425   9.606  0.2147 -0.3585 -0.3975
 4572W        W 5436  18.599  12.681  18.556  0.2610  0.0565 -0.0083
 4573W        W 5437   9.462   1.239  11.165  0.1119 -0.0677 -0.0895
 4574W        W 5438   4.198  21.307  15.332 -0.1733 -0.1064  0.2618
 4575W        W 5439   9.796   1.755   5.671 -0.1429  0.1905 -0.2282
 4576W        W 5440  23.654  23.467  20.435 -0.2423 -0.1229  0.0313
 4577W        W 5441   1.650  22.006  15.103 -0.1194  0.1638 -0.1242
 4578W        W 5442  19.982  27.993   2.520 -0.1444  0.1085 -0.2334
 4579W        W 5443   4.898  18.418   2.407 -0.0817 -0.1240 -0.3349
 4580W        W 5444   5.334   7.779  17.407  0.1780  0.5855 -0.0866
 4581W        W 5445   9.385   5.805  22.470  0.0116  0.1373 -0.1758
 4582W        W 5446  13.540  26.713   0.774 -0.0601  0.2526 -0.0125
 4583W        W 5447   9.366   5.569  23.844  0.0966  0.1297 -0.1231
 4584W        W 5448  23.501   1.694  24.470 -0.1746 -0.0600  0.2420
 4585W        W 5449   3.955  19.436  27.040  0.5594  0.3351  0.1223
 4586W        W 5450  25.822  28.444  16.183  0.3476 -0.2012 -0.0518
 4587W        W 5451  21.181  26.003  11.524  0.1085  0.3871  0.2568
 4588W        W 5452  24.426  15.841  22.731  0.0868 -0.4170  0.1838
 4589W        W 5453  19.381  12.267  25.181  0.1192  0.2516  0.1353
 4590W        W 5454  25.229   3.555   3.280  0.3012  0.0733  0.0552
 4591W        W 5455   5.698  14.008  11.279 -0.2206  0.2373  0.2504
 4592W        W 5456  20.251  17.775  18.754 -0.0667  0.1316  0.1954
 4593W        W 5457  23.045   4.494  19.651  0.1571  0.1531 -0.0229
 4594W        W 5458  15.540  16.677  16.262 -0.0458 -0.0087  0.2878
 4595W        W 5459  12.928  25.670  18.341 -0.0455  0.3508  0.0049
 4596W        W 5460  11.302  22.558   3.422  0.1144  0.1135 -0.0196
 4597W        W 5461  19.365  28.565  10.993 -0.2801  0.2617  0.0228
 4598W        W 5462  13.440   6.253  23.088 -0.1941  0.3265  0.1261
 4599W        W 5463  17.275  24.830  27.177  0.0093  0.1762 -0.2180
 4600W        W 5464   8.445   7.733  23.904 -0.2656  0.4174  0.1572
 4601W        W 5465  17.938  16.869  20.418 -0.1016 -0.0790 -0.1348
 4602W        W 5466   9.187  21.667  25.028  0.0647 -0.1106 -0.1011
 4603W        W 5467  23.949  24.157  21.193  0.1440 -0.3143 -0.0747
 4604W        W 5468   4.421  19.079  16.167  0.0730 -0.1217  0.3566
 4605W        W 5469  26.476  21.421   3.958 -0.0775  0.0409  0.0839
 4606W        W 5470  12.791  19.102  23.660  0.3081 -0.0948 -0.0541
 4607W        W 5471   8.242   0.577   0.148 -0.3274  0.1492  0.1628
 4608W        W 5472  10.521   0.292  27.789 -0.1434 -0.0331  0.1966
 4609W        W 5473  20.718  26.481  23.060 -0.0174  0.0255 -0.0659
 4610W        W 5474  11.561   4.912   0.987  0.0809  0.0766  0.1136
 4611W        W 5475   9.868  11.213  17.604  0.1292  0.0228  0.1641
 4612W        W 5476   6.092  16.510  24.502  0.2254  0.1393 -0.3046
 4613W        W 5477  21.437   1.186   0.046  0.2206 -0.0151  0.3314
 4614W        W 5478  21.732  24.118  15.334  0.0202  0.0754  0.1722
 4615W        W 5479  13.655  27.567  10.241  0.2772  0.1189  0.0885
 4616W        W 5480  20.568  17.337  17.575  0.0127  0.2028  0.1610
 4617W        W 5481   3.276   4.126  24.447  0.0214 -0.2415 -0.0727
 4618W        W 5482  21.075  22.159  19.008 -0.1093 -0.3182  0.1383
 4619W        W 5483  19.755  20.608   5.329  0.2604  0.0436 -0.1254
 4620W        W 5484  13.809  11.717  19.532  0.1994  0.0163  0.0731
 4621W        W 5485  20.061  16.285  15.038 -0.3134  0.0695 -0.1635
 4622W        W 5486  25.700  22.314  17.683 -0.2030 -0.2153  0.0476
 4623W        W 5487  19.013  27.548  20.135 -0.0725  0.4034  0.1030
 4624W        W 5488  17.014  11.687  21.782 -0.0783 -0.2490  0.0545
 4625W        W 5489  22.524  25.602   1.156  0.0650  0.0282  0.5628
 4626W        W 5490  14.386  22.083  13.620 -0.1344  0.0658  0.0801
 4627W        W 5491  17.436  18.117  12.137 -0.0842 -0.0444 -0.0380
 4628W        W 5492   3.136   8.507  23.607  0.0437  0.1458  0.0897
 4629W        W 5493   8.794   0.965  27.901  0.1462  0.0147  0.1575
 4630W        W 5494  19.955  15.934  23.602  0.1093  0.1934  0.1383
 4631W        W 5495   0.424   3.745  25.081  0.2273 -0.0296 -0.4634
 4632W        W 5496   8.410   8.986  15.641 -0.3498  0.0284  0.2826
 4633W        W 5497   9.642   2.207  16.619  0.2263 -0.1799 -0.0418
 4634W        W 5498  13.329   0.346  22.545  0.4397  0.0965  0.0480
 4635W        W 5499  27.686   0.277   2.889  0.2509 -0.1905 -0.0209
 4636W        W 5500  22.606   1.878  20.576  0.0603  0.1439  0.0596
 4637W        W 5501   7.342   5.647   6.725  0.4393 -0.0865  0.4247
 4638W        W 5502  11.830   9.875  14.845  0.1562  0.0435  0.1061
 4639W        W 5503  26.292   3.966   7.579 -0.0650 -0.1141  0.6231
 4640W        W 5504  15.177  27.254  28.341 -0.2353  0.2973 -0.0564
 4641W        W 5505  14.832   5.637  25.531 -0.0350  0.0525  0.2430
 4642W        W 5506  22.614  28.962  12.244 -0.1276 -0.1054  0.4551
 4643W        W 5507  19.136  26.177  15.970  0.0227  0.4118 -0.0536
 4644W        W 5508  21.862  13.402   1.017  0.1454  0.2619 -0.0691
 4645W        W 5509   0.365  27.003  20.254  0.2002 -0.2200  0.2388
 4646W        W 5510   2.675  27.347  25.972 -0.0263  0.1433  0.1500
 4647W        W 5511  24.893   9.992   3.196 -0.2692  0.0755  0.3137
 4648W        W 5512  17.506   5.843   0.315  0.3328 -0.0780  0.1496
 4649W        W 5513  12.595   2.594  21.955  0.1480 -0.0714  0.3963
 4650W        W 5514  23.575  25.429  14.279 -0.0764  0.0570  0.0419
 4651W        W 5515   5.359  21.039  24.636  0.0572  0.1825  0.0374
 4652W        W 5516   9.677  18.368  17.294  0.0579  0.3186 -0.0785
 4653W        W 5517  28.180  17.155  15.770 -0.0431 -0.0524  0.1065
 4654W        W 5518   0.663  22.467  20.073 -0.1243 -0.1531 -0.0393
 4655W        W 5519  10.936  17.505  20.158  0.0044 -0.0053  0.2689
 4656W        W 5520  13.355  10.733  16.268  0.0062 -0.1355  0.0361
 4657W        W 5521  26.562  19.364   2.568  0.2115 -0.6037  0.1066
 4658W        W 5522  21.610  12.907  16.815  0.1280  0.1191  0.2205
 4659W        W 5523  11.323  16.910  23.045 -0.3275  0.1931  0.1338
 4660W        W 5524  20.057  14.204   1.246  0.1499 -0.1862  0.2046
 4661W        W 5525  15.754   6.480  13.179  0.0099 -0.3845  0.1164
 4662W        W 5526  16.582  26.491  19.753 -0.3857  0.1489 -0.3162
 4663W        W 5527   3.923   2.890  24.872 -0.3405  0.2930  0.1271
 4664W        W 5528  13.236  25.218  25.187 -0.1165  0.1463  0.1783
 4665W        W 5529   2.722  28.584  26.319 -0.0334 -0.4842 -0.4200
 4666W        W 5530  14.947   5.267  10.795  0.3672  0.4559  0.1692
 4667W        W 5531   0.025  26.693  24.950 -0.0408 -0.0911 -0.1081
 4668W        W 5532  28.794  15.543  18.808 -0.0152 -0.0542 -0.1361
 4669W        W 5533  17.005  13.831   4.519 -0.0296  0.3189  0.1067
 4670W        W 5534  26.702  15.176  17.252  0.1396 -0.1621  0.3280
 4671W        W 5535  16.962   9.462   5.713  0.0331 -0.1404  0.2132
 4672W        W 5536  13.640   0.219  29.111 -0.3041  0.3715  0.3798
 4673W        W 5537  19.631  21.344  13.252  0.1194 -0.0507 -0.1148
 4674W        W 5538  19.654  12.615  17.536  0.0212  0.2779 -0.0017
 4675W        W 5539  26.508   1.023   0.346  0.2980  0.1060 -0.0224
 4676W        W 5540  13.291  10.140  21.957  0.1627  0.1196 -0.0367
 4677W        W 5541  11.796   1.217  27.587 -0.2092  0.2331 -0.0886
 4678W        W 5542  17.564  26.641  23.550 -0.0552 -0.1767  0.0368
 4679W        W 5543  26.009   0.461  15.636 -0.1294 -0.1165 -0.0511
 4680W        W 5544  12.579  15.316  12.450 -0.2527 -0.3293 -0.0526
 4681W        W 5545  23.337   3.936   3.740 -0.0427 -0.0316 -0.1547
 4682W        W 5546  25.917  28.027  15.281 -0.2449 -0.0702 -0.0616
 4683W        W 5547   5.800   4.124  19.625 -0.0082 -0.2466  0.0379
 4684W        W 5548   2.710  18.533  24.209  0.1571 -0.0108 -0.0988
 4685W        W 5549   1.949   1.394  22.968  0.1274  0.0117  0.1800
 4686W        W 5550  21.439   0.187  24.876  0.0640  0.1842  0.0926
 4687W        W 5551  10.799  23.397  25.069 -0.3137  0.1814  0.2287
 4688W        W 5552   1.525   1.168  28.623 -0.2998  0.0676  0.1206
 4689W        W 5553   9.674  15.823  17.347  0.1802  0.3768 -0.1953
 4690W        W 5554   7.994   5.386  13.158 -0.1158 -0.0822 -0.3159
 4691W        W 5555  10.209   4.991  16.928  0.3032  0.0264 -0.0225
 4692W        W 5556  28.915  27.023  27.805  0.0735  0.0941 -0.0625
 4693W        W 5557  18.434   7.436   2.104 -0.0155  0.2751  0.0255
 4694W        W 5558  18.998   8.402  19.402 -0.2515 -0.0000 -0.1989
 4695W        W 5559  16.949   6.806  19.468 -0.0316 -0.2966 -0.3512
 4696W        W 5560  20.897  16.758  20.937 -0.2854 -0.0053  0.0943
 4697W        W 5561  18.471  13.166   9.541 -0.1636  0.1335  0.1777
 4698W        W 5562   0.178  14.203  23.900  0.0758  0.1595  0.1053
 4699W        W 5563  23.973  15.352   2.936  0.1212  0.1229 -0.0494
 4700W        W 5564   1.038   4.414  12.772 -0.2665 -0.0920  0.1671
 4701W        W 5565   3.637  13.713  19.241 -0.1170 -0.3759  0.3024
 4702W        W 5566  18.942  23.444  12.919  0.2314 -0.4713 -0.1517
 4703W        W 5567   7.517   2.519  13.441  0.0187 -0.0083 -0.0012
 4704W        W 5568  25.213  22.893  11.189  0.0013  0.1577  0.0695
 4705W        W 5569  26.574  15.107  16.228 -0.0473 -0.0137  0.0267
 4706W        W 5570  15.536  28.003   3.017  0.0992  0.1105  0.3885
 4707W        W 5571  24.708   5.406   6.302  0.2355  0.0226  0.0856
 4708W        W 5572  28.485   7.587  28.222  0.2091 -0.1444 -0.0154
 4709W        W 5573   1.811  22.010  11.270 -0.2493  0.2395  0.2884
 4710W        W 5574   3.653   4.630  14.861 -0.1360  0.2116 -0.0497
 4711W        W 5575  25.970  27.496  22.545 -0.0045 -0.1078 -0.3288
 4712W        W 5576   6.282   5.985   9.610  0.1742  0.2843 -0.0404
 4713W        W 5577  14.452   6.968  10.983  0.3603 -0.2924  0.1581
 4714W        W 5578  13.032  16.701  18.429  0.1479  0.0349 -0.1790
 4715W        W 5579  28.192  27.104  10.413 -0.0725 -0.0432  0.2059
 4716W        W 5580   2.136  27.534   8.110 -0.4499  0.0554 -0.0619
 4717W        W 5581  20.075   7.853  27.819  0.3703  0.1498  0.1222
 4718W        W 5582  16.823  24.832   3.174 -0.1305 -0.0739 -0.2984
 4719W        W 5583  11.933  25.110  21.152  0.0756  0.0835  0.2792
 4720W        W 5584  21.252  26.130  18.370 -0.0402  0.2432  0.0363
 4721W        W 5585   8.788   1.446  24.646  0.1198 -0.0664 -0.0524
 4722W        W 5586  21.812  27.357  13.346  0.2030 -0.0746  0.2237
 4723W        W 5587  23.997  28.591  24.221  0.1061 -0.4531  0.4204
 4724W        W 5588   8.778  11.498   7.826 -0.0485 -0.2034 -0.0522
 4725W        W 5589   5.569   4.607   3.638 -0.1919  0.0088 -0.0072
 4726W        W 5590  23.264   3.551  18.513  0.3654 -0.2917  0.4327
 4727W        W 5591  15.395  25.994  20.345  0.0803  0.3633 -0.1734
 4728W        W 5592   3.463   0.601  21.911 -0.1092 -0.1363 -0.0665
 4729W        W 5593   9.954   8.141   9.386  0.0781  0.0702  0.0639
 4730W        W 5594  12.721   6.393  18.161 -0.0540  0.2178  0.2850
 4731W        W 5595  24.740   3.096   2.187 -0.1050  0.1869 -0.0879
 4732W        W 5596  23.115  25.106   1.568 -0.3440  0.1474 -0.0300
 4733W        W 5597  10.517  22.937  22.585 -0.1739 -0.1405  0.0533
 4734W        W 5598  21.079  26.098   2.304 -0.0265  0.0725  0.1081
 4735W        W 5599  23.745   0.953  20.650  0.0683  0.0497  0.0046
 4736W        W 5600  27.568  11.777  21.182 -0.0684  0.1737 -0.1818
 4737W        W 5601  19.351  24.539  23.916  0.6982 -0.0514 -0.0236
 4738W        W 5602  13.178  21.416   3.207  0.3493 -0.0369 -0.1369
 4739W        W 5603  18.047   8.538  21.789 -0.0391 -0.2216  0.4111
 4740W        W 5604  16.749  10.175  19.325  0.1961 -0.0041  0.3197
 4741W        W 5605  18.975   8.626  13.103  0.0112  0.0309  0.2052
 4742W        W 5606  10.318   4.671  16.506 -0.0349  0.4819  0.2606
 4743W        W 5607  15.279  15.669  10.498  0.0687 -0.0013  0.2367
 4744W        W 5608  19.190   9.729  11.852 -0.0358  0.1210 -0.0715
 4745W        W 5609  16.925   4.569  24.893 -0.2168  0.2043  0.0137
 4746W        W 5610  11.820  10.042  18.125  0.1665  0.0366  0.1487
 4747W        W 5611  16.336  14.033  22.341 -0.2579 -0.1721  0.0590
 4748W        W 5612   1.167   8.520   2.786 -0.1766 -0.0624  0.0155
 4749W        W 5613  26.145  24.386  17.183 -0.2753  0.0386  0.1713
 4750W        W 5614   5.103  17.982  15.093  0.2028  0.1289 -0.1542
 4751W        W 5615  27.528   7.115  11.195  0.0349 -0.1568 -0.0203
 4752W        W 5616  23.511  10.193  10.791  0.1724  0.0497 -0.0491
 4753W        W 5617   5.320   9.381  12.216 -0.1441  0.0724 -0.0815
 4754W        W 5618  18.701  18.640  16.569  0.2731 -0.1450  0.0843
 4755W        W 5619   3.296   9.417  16.830 -0.0587  0.4456 -0.1279
 4756W        W 5620  23.769   4.418  21.970  0.2476 -0.0533  0.1424
 4757W        W 5621  11.080  26.227  21.897 -0.1969  0.1040  0.1911
 4758W        W 5622  21.134  19.239  18.668  0.2860 -0.0106 -0.1932
 4759W        W 5623  28.741   2.114  18.775  0.0406  0.1738 -0.0484
 4760W        W 5624   6.231   7.571  26.151 -0.0673 -0.0149 -0.0520
 4761W        W 5625  25.147   9.704  14.713 -0.1537  0.1414 -0.0379
 4762W        W 5626  17.113  19.072  25.927 -0.0691 -0.2712 -0.1861
 4763W        W 5627  12.425  19.989  21.172  0.4092 -0.1680  0.1105
 4764W        W 5628  16.275  24.769  27.433  0.3548  0.1065  0.0016
 4765W        W 5629   1.771   6.546  17.336 -0.1079 -0.2811 -0.2342
 4766W        W 5630  16.566   5.034  10.205 -0.2363 -0.1164  0.0560
 4767W        W 5631   1.604  19.281   1.181 -0.1475 -0.1397  0.3294
 4768W        W 5632  29.079   5.120   2.629 -0.1115  0.0772 -0.1643
 4769W        W 5633  15.228  26.940  15.891  0.6201  0.0111  0.2187
 4770W        W 5634   4.358  24.256  11.039 -0.0754 -0.2982 -0.1698
 4771W        W 5635  19.327  28.451  29.101 -0.1353 -0.1178 -0.0709
 4772W        W 5636  20.130   1.541  14.959 -0.1336 -0.3291  0.1921
 4773W        W 5637  12.606  23.614  25.987  0.1879 -0.1865  0.1779
 4774W        W 5638   6.279  10.916   8.012  0.0318  0.3628 -0.0611
 4775W        W 5639   6.366  24.543  27.461  0.2124  0.1581 -0.2417
 4776W        W 5640  11.318  26.378  10.503  0.1307  0.0331  0.3472
 4777W        W 5641   4.330   3.963   4.204 -0.1105  0.0238  0.2099
 4778W        W 5642   8.786  10.925  18.281 -0.1118 -0.1233 -0.1938
 4779W        W 5643  24.946  11.930   7.125  0.2307  0.3237 -0.0163
 4780W        W 5644  26.937  25.539   3.979  0.0249  0.0511  0.2858
 4781W        W 5645  22.453   9.039  16.148  0.1640  0.1046  0.1742
 4782W        W 5646   3.746  15.481  15.981  0.0611  0.2612  0.0833
 4783W        W 5647   2.958   3.208  11.609  0.1100  0.1272 -0.1602
 4784W        W 5648  18.099  14.710  23.825 -0.0026  0.2731  0.0920
 4785W        W 5649   1.834   5.726  19.128  0.1134 -0.1757 -0.0529
 4786W        W 5650  28.441   9.163  28.771 -0.0749  0.0733 -0.0990
 4787W        W 5651  28.338  18.994  12.911 -0.0270  0.0983 -0.0821
 4788W        W 5652  14.910   2.930  27.488  0.2199  0.0414 -0.2786
 4789W        W 5653   3.163  24.686  20.012 -0.2538  0.1062  0.0584
 4790W        W 5654  25.706  16.117  24.605 -0.2186  0.1434 -0.0447
 4791W        W 5655   8.832  23.165  18.038 -0.0948  0.0943  0.1371
 4792W        W 5656  14.344  23.225  11.592 -0.1772 -0.0354  0.1184
 4793W        W 5657  23.076  23.199  17.316  0.0158 -0.2769 -0.1263
 4794W        W 5658  16.806  17.102  15.152  0.0983 -0.0115  0.0192
 4795W        W 5659  17.333  22.140  19.030 -0.2587  0.1418  0.0773
 4796W        W 5660  25.291   7.882   6.952  0.2606 -0.1589  0.0059
 4797W        W 5661  13.949  10.244   8.443 -0.0998 -0.1576  0.1384
 4798W        W 5662  19.918   3.594   3.223 -0.1873 -0.0627  0.0342
 4799W        W 5663  23.171   2.167  26.725  0.3897 -0.2505  0.1949
 4800W        W 5664  25.146   9.790  14.239 -0.0685  0.2919  0.2893
 4801W        W 5665  14.942  18.563  25.252  0.0337 -0.0608 -0.0942
 4802W        W 5666  22.409  25.611  14.892 -0.0420 -0.1456  0.0811
 4803W        W 5667  24.864  14.210  16.034  0.4283  0.1867 -0.0329
 4804W        W 5668  13.971  24.790   7.683 -0.3571  0.0015 -0.2782
 4805W        W 5669  15.644   3.915   8.285 -0.1417 -0.0110  0.2164
 4806W        W 5670  12.890  13.074  24.806  0.1725  0.0653 -0.3153
 4807W        W 5671  27.477  20.413  16.298 -0.2610  0.0267 -0.0687
 4808W        W 5672   9.214   5.610  22.951 -0.2521 -0.0509  0.3539
 4809W        W 5673   7.307  19.549  22.324 -0.0562  0.0729  0.2235
 4810W        W 5674  21.626  11.373   2.218 -0.0084 -0.1721 -0.0023
 4811W        W 5675  19.177  11.650   6.907 -0.3742 -0.2365 -0.0724
 4812W        W 5676  27.758   7.009   2.677 -0.0775  0.0494 -0.1557
 4813W        W 5677  13.073  27.479  16.609 -0.3139  0.2761  0.0292
 4814W        W 5678  28.697  13.861   6.355  0.3495 -0.2420 -0.2836
 4815W        W 5679  14.852  23.840  25.646  0.2860 -0.0211  0.1273
 4816W        W 5680   3.005  24.289  13.022 -0.0391 -0.1259 -0.1810
 4817W        W 5681  15.905   6.473  21.190  0.0672  0.0407  0.2122
 4818W        W 5682  15.106  18.191   3.112  0.1471  0.0604  0.0801
 4819W        W 5683   9.538  13.373  11.788 -0.3357  0.0327 -0.0817
 4820W        W 5684   0.456  26.604  19.746 -0.1878  0.1214 -0.0385
 4821W        W 5685  10.650  26.317  22.235  0.2842  0.0057 -0.0561
 4822W        W 5686  28.123  17.184   6.278 -0.0725  0.0215  0.0947
 4823W        W 5687  17.228   6.314  13.661 -0.0997  0.1772 -0.2671
 4824W        W 5688  26.452   9.222  17.684 -0.0783  0.1088  0.0804
 4825W        W 5689   3.140   0.637  20.231  0.0750  0.2211  0.2852
 4826W        W 5690  15.777   4.519  19.179 -0.1661 -0.2940  0.1814
 4827W        W 5691  20.200  11.392   2.755  0.0676  0.0493  0.0989
 4828W        W 5692  13.688   6.606  18.211  0.1101 -0.1874  0.0147
 4829W        W 5693  25.653  25.270  17.158 -0.1586  0.0216 -0.0142
 4830W        W 5694  10.821  28.954  28.983  0.0674  0.0362  0.2610
 4831W        W 5695  23.006  21.411  25.262  0.0364  0.1285 -0.0257
 4832W        W 5696   3.136  26.613  19.575 -0.0187  0.1717  0.0870
 4833W        W 5697   0.583  23.014   1.894 -0.0609  0.0977 -0.1018
 4834W        W 5698  12.461  12.061  12.400 -0.0517 -0.1748 -0.2244
 4835W        W 5699  11.208  10.016  12.263  0.0777 -0.0049  0.3898
 4836W        W 5700  25.008  23.094  27.373 -0.1043  0.3704  0.2341
 4837W        W 5701   1.648  27.003  21.224 -0.1677  0.0962 -0.0908
 4838W        W 5702   3.815   4.728  18.931  0.1531 -0.1453  0.1604
 4839W        W 5703  23.972  28.007   9.864  0.2546 -0.1251 -0.2145
 4840W        W 5704  26.368   0.487   5.393 -0.0811  0.4057 -0.2181
 4841W        W 5705  17.066  27.696  18.099 -0.2340  0.0205 -0.3646
 4842W        W 5706  11.205   6.705  22.475  0.1913  0.2538 -0.5618
 4843W        W 5707   1.324  14.849  27.818 -0.0475  0.0744  0.2679
 4844W        W 5708  22.097   3.377  18.272  0.1119 -0.2289  0.1218
 4845W        W 5709  10.677   0.593  11.364  0.1446  0.0867  0.3432
 4846W        W 5710  26.978  26.786  13.792 -0.1320 -0.0201 -0.0621
 4847W        W 5711  21.116   8.440  16.274  0.0400 -0.1913 -0.1886
 4848W        W 5712   2.262   3.650  21.504  0.1693 -0.1409  0.2205
 4849W        W 5713  14.639  28.286  23.111 -0.1993  0.3009  0.1652
 4850W        W 5714  25.137   0.603  26.918 -0.1670  0.1203  0.0024
 4851W        W 5715  17.071   5.230   3.460 -0.1840  0.2537  0.0311
 4852W        W 5716  24.722  19.165   4.322  0.1069  0.0050  0.1322
 4853W        W 5717  21.387  21.403  22.391 -0.1501 -0.2515 -0.0288
 4854W        W 5718  26.338  21.615  22.793 -0.0361  0.0656 -0.0811
 4855W        W 5719  23.990   6.207  19.088 -0.3139 -0.0682  0.1804
 4856W        W 5720  19.246  12.778  19.810  0.0587 -0.3983 -0.1018
 4857W        W 5721  14.695  20.199  27.627 -0.5247 -0.2024 -0.0799
 4858W        W 5722  16.548  23.136  22.117 -0.1530  0.2953 -0.2401
 4859W        W 5723  18.210  18.222   9.613  0.0518  0.0955  0.2355
 4860W        W 5724  11.047  16.655   4.687 -0.0490 -0.1089  0.0689
 4861W        W 5725  21.991   7.904  19.985  0.0529  0.0445  0.2326
 4862W        W 5726  18.994  13.520  21.342  0.0214  0.0487  0.0674
 4863W        W 5727   6.097   4.959   9.012  0.2000 -0.1997 -0.1884
 4864W        W 5728   5.499   0.087  15.422 -0.1939 -0.0571 -0.1311
 4865W        W 5729  25.118  24.763   4.049  0.0302 -0.1315 -0.2136
 4866W        W 5730  17.479  28.776  21.958 -0.1617 -0.0086  0.1526
 4867W        W 5731   6.090   4.458  17.484  0.0963  0.2023 -0.1765
 4868W        W 5732  27.709   1.260  28.282  0.0545  0.0583 -0.1621
 4869W        W 5733  25.047   2.456  25.683 -0.0541  0.1176 -0.0175
 4870W        W 5734  11.433   2.585  12.151 -0.2616 -0.0098 -0.1182
 4871W        W 5735  20.228   0.136  11.926  0.2731  0.0411  0.2159
 4872W        W 5736   8.380   3.983   5.903 -0.0144 -0.1451  0.2401
 4873W        W 5737   9.047  25.453   7.735 -0.0839  0.1836 -0.3038
 4874W        W 5738   5.172  12.807   6.771  0.1141  0.1821  0.0635
 4875W        W 5739  10.982  26.926  21.302  0.1662 -0.2836 -0.3955
 4876W        W 5740   1.954  28.380   6.116 -0.2590  0.1355 -0.1843
 4877W        W 5741  20.572  17.868   4.874  0.1759 -0.2350 -0.0046
 4878W        W 5742  25.226  15.064   1.739  0.3535 -0.0104  0.1204
 4879W        W 5743   9.989  22.296   0.667 -0.0908  0.1658  0.0244
 4880W        W 5744   8.028  13.725  28.675 -0.2611  0.0125 -0.0465
 4881W        W 5745  15.628  28.118   5.568  0.0084  0.0581 -0.0086
 4882W        W 5746  24.324  22.864   6.666  0.1581 -0.3073 -0.1186
 4883W        W 5747  28.364  10.925  23.570  0.0607 -0.2659  0.2497
 4884W        W 5748  22.402  20.962  29.045 -0.1052 -0.0100  0.0172
 4885W        W 5749   7.532   6.772  13.025  0.0954 -0.0151 -0.0669
 4886W        W 5750  15.007  24.048  23.321 -0.0515 -0.0253 -0.0218
 4887W        W 5751  18.053   4.223  10.436 -0.2506  0.1471  0.1949
 4888W        W 5752  12.054   4.138  13.948 -0.1874  0.0503 -0.0770
 4889W        W 5753  27.348   6.934  28.373 -0.1769  0.0621  0.1070
 4890W        W 5754  23.148  21.640  28.709 -0.2118 -0.0173  0.0013
 4891W        W 5755  23.064   5.261   5.084 -0.2208  0.2415  0.0001
 4892W        W 5756  21.040  10.076  25.411 -0.1094  0.1908  0.0583
 4893W        W 5757  10.084   6.752   9.752 -0.0846  0.0060 -0.2002
 4894W        W 5758  21.545  11.955  10.789 -0.0824 -0.3063 -0.2779
 4895W        W 5759  16.036  28.203  25.932  0.3058 -0.0508  0.2949
 4896W        W 5760  10.897  11.991  24.684 -0.0889  0.0958 -0.1760
 4897W        W 5761   3.820  17.451  17.220  0.0117 -0.1222 -0.0634
 4898W        W 5762  26.653  27.048   3.027  0.1480  0.0057  0.3307
 4899W        W 5763   3.433  17.459  28.141 -0.1168  0.3050 -0.2446
 4900W        W 5764   6.924   3.244  27.690 -0.1799 -0.1563  0.1146
 4901W        W 5765   6.598   8.220  28.281  0.1961 -0.1299 -0.0282
 4902W        W 5766  13.599   7.185  10.157 -0.0842  0.1361  0.3455
 4903W        W 5767  22.440  23.022   8.712 -0.2023  0.1507 -0.1894
 4904W        W 5768  13.741   9.838  16.284 -0.1394 -0.2340  0.3369
 4905W        W 5769  27.850  21.330  25.340  0.0885 -0.0596  0.1050
 4906W        W 5770   0.971   4.253  28.073  0.1448  0.0268 -0.2147
 4907W        W 5771  24.794  14.656  11.243  0.0790  0.2841 -0.1369
 4908W        W 5772  25.844  27.074  11.964  0.2621  0.2182 -0.0615
 4909W        W 5773   9.355   2.176  23.534  0.2607 -0.0987 -0.2835
 4910W        W 5774  23.895  11.390   3.194 -0.3445  0.0546  0.0333
 4911W        W 5775  10.162   2.216   2.319 -0.0124  0.0366 -0.2067
 4912W        W 5776  18.803  21.313   2.582  0.0437  0.2112  0.1322
 4913W        W 5777  22.782  20.777   7.065 -0.1169 -0.0548  0.0133
 4914W        W 5778  16.269  20.147  23.412 -0.1515 -0.0315  0.0422
 4915W        W 5779  20.863  22.535   3.974 -0.0411 -0.0596 -0.0828
 4916W        W 5780  26.292  10.809  21.764  0.6114 -0.1679 -0.0598
 4917W        W 5781  15.954   1.453  10.516 -0.0816  0.2040 -0.1062
 4918W        W 5782   3.771  25.294  14.831 -0.0706 -0.3592  0.4709
 4919W        W 5783  10.140   8.471  10.418  0.1750  0.1495 -0.0324
 4920W        W 5784  22.270  19.408  20.973 -0.3852 -0.1603 -0.0100
 4921W        W 5785   4.336  22.870   2.753 -0.2686 -0.1650 -0.1921
 4922W        W 5786  24.675  13.932  27.589 -0.0347 -0.1768 -0.1963
 4923W        W 5787  16.857   4.300  18.330  0.0694  0.0291 -0.1721
 4924W        W 5788  18.468  13.492   5.632 -0.0672  0.0514  0.2022
 4925W        W 5789  17.376  23.044   4.986  0.1809 -0.0767  0.0385
 4926W        W 5790   9.042  28.951  24.969  0.1642 -0.3531  0.2446
 4927W        W 5791   9.034   8.410   5.245  0.0699  0.1638 -0.2636
 4928W        W 5792  18.107  25.978  18.865 -0.1885 -0.0600 -0.1308
 4929W        W 5793  14.123   5.900  20.971 -0.3078  0.0736 -0.0827
 4930W        W 5794  21.572  24.699  26.930 -0.1515  0.2637 -0.0546
 4931W        W 5795   0.641  23.396  24.820 -0.3108 -0.2547  0.0824
 4932W        W 5796   2.677  27.901   3.931  0.0382 -0.0890  0.2591
 4933W        W 5797  20.284  11.921  28.456  0.0295  0.0982 -0.0147
 4934W        W 5798   0.485  20.122   2.713 -0.0353  0.1888 -0.0433
 4935W        W 5799  10.103  25.294  11.779 -0.0922  0.0429  0.0081
 4936W        W 5800  24.647   6.135   9.868  0.2213  0.1921  0.0148
 4937W        W 5801   0.497  12.131   3.121  0.3323  0.0576 -0.2956
 4938W        W 5802  22.761   9.854  25.791  0.0067  0.0174  0.1187
 4939W        W 5803   9.664   4.331  18.676  0.1028 -0.0048 -0.2231
 4940W        W 5804  21.437  28.686  26.711 -0.1268 -0.0547  0.1406
 4941W        W 5805  12.915   9.993  16.140  0.0912 -0.0506  0.1372
 4942W        W 5806  21.780  22.544   8.099  0.4792  0.1386  0.0905
 4943W        W 5807  13.115   2.469  22.706 -0.1810  0.2252 -0.1143
 4944W        W 5808  27.536   2.655  26.850  0.1571  0.1011 -0.0355
 4945W        W 5809  15.983  16.383  20.755  0.0695 -0.0439 -0.0697
 4946W        W 5810   4.155   7.843   5.798  0.1819 -0.2628 -0.1239
 4947W        W 5811  23.135  18.842  20.835 -0.1486 -0.1128  0.3061
 4948W        W 5812  15.593   7.781  18.445 -0.0711  0.0674  0.0166
 4949W        W 5813  11.814  20.085  19.938  0.1402  0.1308 -0.2971
 4950W        W 5814  14.693  23.159  20.340 -0.0792 -0.1185  0.1883
 4951W        W 5815  29.042  23.354  23.606 -0.0632  0.0834  0.1408
 4952W        W 5816  28.503  16.908  24.348  0.1546  0.0306  0.3023
 4953W        W 5817   7.060  21.670  22.402  0.3208  0.1549  0.2454
 4954W        W 5818  18.165  25.409   2.668 -0.2144  0.3998  0.0166
 4955W        W 5819   9.134   3.977   9.172 -0.2127  0.0802 -0.0358
 4956W        W 5820  17.979   3.389   4.936 -0.3352  0.0743  0.4215
 4957W        W 5821  23.230   8.822   8.250 -0.1932 -0.1067 -0.3731
 4958W        W 5822  10.391  12.594  22.761 -0.1060 -0.1774  0.1983
 4959W        W 5823  17.648  23.426   9.006  0.4589 -0.0747 -0.2318
 4960W        W 5824  13.755  17.711  14.729  0.1499  0.0415 -0.0586
 4961W        W 5825  26.302   5.552   8.930  0.0708 -0.2335  0.3745
 4962W        W 5826   3.643  27.296  25.623  0.0982  0.0257 -0.1199
 4963W        W 5827  18.177   3.947  26.130  0.0883 -0.1280  0.0072
 4964W        W 5828  19.401  25.977  21.569 -0.0502 -0.3522 -0.0253
 4965W        W 5829   2.012  27.632  14.961 -0.3070 -0.0361  0.0677
 4966W        W 5830  20.508  24.787  24.610  0.1069  0.2779  0.1310
 4967W        W 5831  10.800   4.015   1.526 -0.0007  0.2649 -0.0433
 4968W        W 5832   1.435   1.520  23.162  0.4298 -0.1446 -0.0068
 4969W        W 5833  13.242  29.044  22.100  0.5427 -0.1065 -0.3631
 4970W        W 5834  20.320   7.555  18.117 -0.0636 -0.2342 -0.1500
 4971W        W 5835  14.978  21.305  23.989 -0.0473  0.1005  0.0592
 4972W        W 5836  19.697  23.255  27.507 -0.5231  0.3052 -0.0465
 4973W        W 5837  11.928   2.530   0.787  0.0431  0.2288  0.1615
 4974W        W 5838   4.793   8.200  11.669 -0.0930  0.0341 -0.1046
 4975W        W 5839  16.640  24.752   0.975 -0.0239 -0.0048 -0.1031
 4976W        W 5840   1.053  27.502  19.757 -0.3295  0.0298 -0.0929
 4977W        W 5841  28.765  21.624   2.047  0.0057 -0.1336  0.1380
 4978W        W 5842  27.808   6.744  23.974  0.1488 -0.1672 -0.0637
 4979W        W 5843  14.059   7.676  16.897  0.0440 -0.0349 -0.2769
 4980W        W 5844  18.490   5.626  17.098  0.1929 -0.0446  0.1300
 4981W        W 5845   0.592  28.537  18.217 -0.2833 -0.0719 -0.0272
 4982W        W 5846  23.034  18.991  22.398  0.1146 -0.0472 -0.2217
 4983W        W 5847  23.875   4.293  12.159  0.2934  0.1510  0.1160
 4984W        W 5848  22.868   0.580  19.251  0.0455 -0.1083 -0.0796
 4985W        W 5849  10.598  13.016  16.056  0.2916 -0.3513 -0.0083
 4986W        W 5850  20.280   4.108   0.151  0.1704  0.0115 -0.1411
 4987W        W 5851   9.937  21.308  24.528  0.1133 -0.1459 -0.0434
 4988W        W 5852  21.303   0.643  10.814  0.1752 -0.0087  0.2797
 4989W        W 5853   1.126   0.122   2.322 -0.3205  0.0158 -0.0675
 4990W        W 5854  11.902  16.800  13.869 -0.1118 -0.1588 -0.1731
 4991W        W 5855  14.240  23.494  26.889 -0.0541  0.1502  0.1396
 4992W        W 5856  10.137   2.403   1.181 -0.1612  0.0644 -0.0311
 4993W        W 5857  10.665  10.865  19.211 -0.1339 -0.1653  0.2035
 4994W        W 5858   8.891  12.966   7.069  0.0788 -0.2928  0.1032
 4995W        W 5859  28.317   3.734  15.323 -0.0677  0.2120  0.2395
 4996W        W 5860   3.911   8.744  17.692  0.1280 -0.1324  0.1058
 4997W        W 5861  11.337   6.106  21.595  0.0277 -0.2132 -0.2975
 4998W        W 5862   9.229   1.758  18.079 -0.2940  0.0407  0.3982
 4999W        W 5863  24.292   3.102  26.774 -0.0416 -0.1018  0.0988
 5000W        W 5864  28.872  12.561  15.928  0.0512 -0.3901  0.0851
 5001W        W 5865  17.046   4.966   6.819 -0.0053  0.1290 -0.0211
 5002W        W 5866  21.552  13.354  12.755 -0.0594 -0.0825  0.2168
 5003W        W 5867   7.850   2.990  19.545 -0.2038 -0.0194  0.1175
 5004W        W 5868  18.318   5.984  21.813 -0.1206 -0.1802 -0.1163
 5005W        W 5869  13.519  13.389  23.242  0.0375 -0.2516 -0.0232
 5006W        W 5870  14.715   5.130  10.235 -0.0962  0.0086 -0.3002
 5007W        W 5871  11.130  24.975  23.545  0.0988 -0.0649  0.1713
 5008W        W 5872   4.883  13.186  26.335 -0.0797  0.0401 -0.1444
 5009W        W 5873  20.593  25.590  11.911 -0.1029 -0.1473 -0.3199
 5010W        W 5874   0.819  13.039  20.987  0.0248  0.1017  0.1210
 5011W        W 5875  22.847   1.189   4.620 -0.1115  0.4547  0.1040
 5012W        W 5876  15.431  11.382  20.432 -0.0375 -0.1727 -0.2128
 5013W        W 5877  20.544  21.842  27.936 -0.0279 -0.2205  0.2478
 5014W        W 5878  24.802  22.153  21.291 -0.1508 -0.0499  0.0303
 5015W        W 5879  22.413   5.458  20.982 -0.1314  0.0559  0.0928
 5016W        W 5880  17.814   0.857  27.598 -0.1433 -0.1599  0.1524
 5017W        W 5881  16.728  11.258  29.126  0.1067  0.1265 -0.0530
 5018W        W 5882  17.354  28.870  25.776  0.0089  0.1379 -0.1344
 5019W        W 5883  15.026  19.142   1.562 -0.0603  0.0444  0.2220
 5020W        W 5884  19.794  23.537  13.319 -0.0513 -0.0551 -0.2264
 5021W        W 5885  23.203  19.871   0.749  0.2810  0.3372 -0.1358
 5022W        W 5886  24.073  12.034  22.236  0.0421  0.0216 -0.1470
 5023W        W 5887   4.645  26.813  27.246 -0.1907 -0.1744  0.0977
 5024W        W 5888  19.867  24.650  25.820 -0.1973  0.3608  0.3445
 5025W        W 5889   9.146  27.990  28.149  0.0596  0.1860 -0.0939
 5026W        W 5890  22.422   1.247  18.006 -0.0364 -0.1663  0.1211
 5027W        W 5891  16.204  22.145  14.334 -0.0037 -0.1664 -0.1074
 5028W        W 5892  13.460  14.126  11.841 -0.0102  0.1660 -0.1765
 5029W        W 5893   5.518  24.561   3.820  0.1236  0.0952 -0.0753
 5030W        W 5894  25.418   0.674  14.571 -0.1092 -0.2379  0.2144
 5031W        W 5895   2.655   8.295  20.127 -0.2174 -0.2272 -0.5381
 5032W        W 5896  11.479  23.314  15.450  0.2575  0.4244  0.2023
 5033W        W 5897  13.006   6.596  10.710 -0.1916  0.4146  0.1099
 5034W        W 5898   4.753   3.532  13.182  0.2487 -0.1460 -0.2434
 5035W        W 5899  24.198   5.842  14.374  0.2300  0.0700  0.1462
 5036W        W 5900   9.936   7.647  23.638 -0.1555  0.1990 -0.0564
 5037W        W 5901   3.241   4.846  25.748 -0.0139 -0.1235 -0.3803
 5038W        W 5902  12.933  26.597  21.266 -0.0782 -0.1966  0.0101
 5039W        W 5903  12.638   1.053  15.621  0.1020  0.0105 -0.0097
 5040W        W 5904   8.353  12.533  24.820 -0.1678 -0.2599  0.0358
 5041W        W 5905  13.487   9.528  20.305  0.1405  0.0153 -0.0103
 5042W        W 5906   5.137  20.043   7.161 -0.0405 -0.2736 -0.0966
 5043W        W 5907  18.195  25.815   4.574 -0.1759  0.0902  0.2010
 5044W        W 5908   2.459   4.021  25.657 -0.0592 -0.1358 -0.1699
 5045W        W 5909   7.299  16.521   3.573  0.1210 -0.2460  0.0690
 5046W        W 5910  26.774  25.250  27.689  0.1008 -0.1377 -0.5502
 5047W        W 5911   0.499   3.454  20.801  0.1913  0.0896  0.1178
 5048W        W 5912   5.686  18.279  26.279 -0.0200  0.4551  0.0018
 5049W        W 5913  11.923  10.601  17.163 -0.2540  0.2409 -0.3520
 5050W        W 5914  19.479  26.572  28.178  0.1840 -0.2247 -0.0475
 5051W        W 5915  27.638   4.094   4.412  0.0904 -0.1147 -0.0911
 5052W        W 5916   9.936   3.056  10.592 -0.5036 -0.0048 -0.2374
 5053W        W 5917  18.424  16.809  27.739 -0.2631  0.2246  0.2201
 5054W        W 5918   1.827  24.477   6.722 -0.2434 -0.0703 -0.0059
 5055W        W 5919  17.053  10.171   3.166 -0.2393 -0.0257 -0.2079
 5056W        W 5920   8.042   7.087  24.452 -0.1605  0.0892  0.0150
 5057W        W 5921  11.537  25.364  19.887  0.3998 -0.0315  0.1131
 5058W        W 5922  26.716  15.481  25.464 -0.3175 -0.0312  0.2267
 5059W        W 5923   7.363  24.784  29.019 -0.0212  0.1197  0.0314
 5060W        W 5924  11.172  28.082   3.853  0.0875 -0.2961  0.0789
 5061W        W 5925  18.801  20.194  27.617 -0.0419 -0.0794 -0.2220
 5062W        W 5926  22.139  27.236   2.768 -0.0417 -0.0525  0.4441
 5063W        W 5927  15.173   2.070  15.380 -0.0666 -0.0493  0.0244
 5064W        W 5928  21.059  11.405  28.335 -0.1269 -0.0227  0.0732
 5065W        W 5929  26.015  11.787  22.631  0.0290  0.2425  0.2416
 5066W        W 5930  23.794   5.577  22.694  0.2334  0.0175 -0.2357
 5067W        W 5931  13.805  28.358   1.873 -0.3480 -0.3944 -0.0680
 5068W        W 5932   8.554  21.884  21.358 -0.0637 -0.3094  0.0408
 5069W        W 5933  14.348   9.356  22.026  0.0218  0.2374  0.1660
 5070W        W 5934  19.388  26.188   9.622 -0.1528 -0.1193  0.0895
 5071W        W 5935  20.532  12.425  20.257  0.0059 -0.1577  0.2407
 5072W        W 5936  13.910   4.500   9.717  0.0784  0.0755  0.2405
 5073W        W 5937  15.654  14.054  28.007  0.3333  0.1169  0.0565
 5074W        W 5938  24.858   1.742  29.091  0.0339 -0.0772  0.0185
 5075W        W 5939  24.957   5.300  17.667  0.0347 -0.0727 -0.0751
 5076W        W 5940  16.572  11.681  22.047 -0.0166 -0.0428  0.0888
 5077W        W 5941   7.762   2.262  23.864  0.0013 -0.1495  0.0743
 5078W        W 5942   1.235   6.955   5.615 -0.0975  0.2731  0.1024
 5079W        W 5943   5.068  22.671  17.079  0.4830  0.0826  0.0608
 5080W        W 5944  10.676  27.313   0.903  0.0829  0.0837  0.0709
 5081W        W 5945  12.642   3.989  27.740  0.0682  0.1020  0.1366
 5082W        W 5946   0.368  16.060  18.122 -0.1966  0.1752  0.0306
 5083W        W 5947  15.746  19.555  25.239  0.3876 -0.0577 -0.2478
 5084W        W 5948   0.450  22.659   2.786 -0.2084  0.0423 -0.2974
 5085W        W 5949  17.041   3.209   9.798  0.0363 -0.2466 -0.1186
 5086W        W 5950   9.397   8.472  24.050  0.1593  0.1307  0.2213
 5087W        W 5951   3.441  11.354   1.355 -0.0908 -0.1279 -0.1195
 5088W        W 5952  29.025  24.196  15.948  0.3288  0.0934  0.1838
 5089W        W 5953   4.594   6.354  24.734  0.2540 -0.1350 -0.1057
 5090W        W 5954  27.180  16.861   2.817  0.2962 -0.0217 -0.4556
 5091W        W 5955   5.374   4.127  18.027  0.1920  0.1676 -0.1349
 5092W        W 5956  28.666   4.040  15.653  0.0431 -0.0364 -0.1932
 5093W        W 5957  26.273   5.380   9.667  0.0558  0.1239  0.0363
 5094W        W 5958  18.556  22.303  23.839 -0.0476 -0.1232  0.0503
 5095W        W 5959  23.775  22.984  20.612  0.0422 -0.3491 -0.2327
 5096W        W 5960  17.128   2.466   7.499 -0.1567  0.0140 -0.2337
 5097W        W 5961  19.054   7.582  19.421 -0.0905 -0.0763 -0.1209
 5098W        W 5962  19.215   1.897  26.625  0.0164 -0.3432 -0.0964
 5099W        W 5963   1.393   3.801  16.166  0.2876 -0.1303  0.3150
 5100W        W 5964  15.211  23.313  27.434 -0.0082  0.2347 -0.1185
 5101W        W 5965   5.491   7.758   4.015 -0.0975 -0.0242  0.0598
 5102W        W 5966  19.575  12.002  22.953  0.0768 -0.4317  0.0826
 5103W        W 5967   2.747  17.872  28.618 -0.1957 -0.2605  0.0501
 5104W        W 5968  21.548  28.304  20.663  0.0892 -0.0908  0.2934
 5105W        W 5969  15.319  26.730  16.326 -0.0563  0.0850  0.1896
 5106W        W 5970  22.562  20.292  16.749  0.0732 -0.0670 -0.1016
 5107W        W 5971  26.943   3.544  20.145  0.0235  0.0225 -0.1083
 5108W        W 5972  25.102  14.287  17.158 -0.0181  0.2063 -0.0161
 5109W        W 5973  25.127  27.291  18.155  0.1514  0.0310 -0.1301
 5110W        W 5974  19.566  29.111   1.247  0.0648 -0.0711  0.0226
 5111W        W 5975  24.273   9.279   6.302 -0.1364 -0.2842  0.2683
 5112W        W 5976   6.478  24.946  22.662 -0.0008  0.1692  0.1461
 5113W        W 5977  25.116  25.304   7.962  0.0381  0.0243 -0.0472
 5114W        W 5978  19.072   6.888  27.961 -0.1294  0.1224 -0.0894
 5115W        W 5979  13.161   1.706   6.078  0.2270  0.1165 -0.0671
 5116W        W 5980  10.295  17.477  19.480  0.3363 -0.0637  0.2203
 5117W        W 5981  11.472  19.569  15.058  0.0007  0.2347 -0.0915
 5118W        W 5982  18.727  18.748  28.864 -0.0152 -0.3315  0.1165
 5119W        W 5983   8.793   1.808   3.896 -0.2722 -0.0319  0.4758
 5120W        W 5984   3.332   7.544  26.935 -0.0041 -0.0561 -0.0444
 5121W        W 5985   0.342  22.351  27.164 -0.2570 -0.0586 -0.0362
 5122W        W 5986  21.048  20.921  28.434  0.2170  0.0129 -0.0504
 5123W        W 5987   0.193  12.270   6.563  0.1759  0.0635  0.0530
 5124W        W 5988  11.014  19.559  26.397 -0.1232  0.2500 -0.0613
 5125W        W 5989   0.668  23.284   6.911  0.1549  0.1305 -0.1251
 5126W        W 5990   6.163   7.145  27.514 -0.1861  0.0169  0.2205
 5127W        W 5991  26.085   7.446   0.197  0.0136 -0.1248 -0.1569
 5128W        W 5992  25.990  19.998  11.429 -0.0503  0.1375 -0.3113
 5129W        W 5993  21.624  15.376  20.941 -0.2630 -0.1417  0.0351
 5130W        W 5994  28.301  10.783  20.771 -0.2015  0.1488 -0.1005
 5131W        W 5995  13.941  24.227   7.965  0.0899 -0.1090  0.0149
 5132W        W 5996   4.573  25.753  14.882  0.0556 -0.1018  0.1101
 5133W        W 5997  12.256   3.132  27.753 -0.2283 -0.0547 -0.0409
 5134W        W 5998  20.418  12.048  18.315  0.0191 -0.1414  0.1096
 5135W        W 5999  16.426  11.529  15.296  0.1239 -0.1069 -0.0142
 5136W        W 6000   2.063  26.048  28.963 -0.0884  0.1358  0.2508
 5137W        W 6001  16.016  10.734  22.030  0.3058 -0.1598 -0.2489
 5138W        W 6002   4.094   5.979  25.596  0.1423 -0.1339 -0.1739
 5139W        W 6003  10.961  24.660  16.394  0.2992  0.2479  0.1706
 5140W        W 6004   0.442   2.864   4.037 -0.1092  0.3132 -0.0102
 5141W        W 6005  25.190  25.360  18.488 -0.0077  0.2823  0.1273
 5142W        W 6006   4.516   7.875  12.639  0.0163  0.0179  0.1389
 5143W        W 6007  15.681  20.377  19.078 -0.0842 -0.2177  0.0411
 5144W        W 6008  14.823   5.094  14.072  0.1063 -0.0324  0.1830
 5145W        W 6009  22.835  20.884  20.334  0.1400 -0.0910  0.2948
 5146W        W 6010   3.770  14.128  24.527  0.1310  0.0249 -0.1912
 5147W        W 6011   0.981  13.015   3.590 -0.3200 -0.0728 -0.2139
 5148W        W 6012  20.524  27.583  24.229  0.0811  0.1095  0.0474
 5149W        W 6013   9.682  21.912  12.016  0.3438 -0.1307  0.1431
 5150W        W 6014  19.049   1.500   0.948  0.1132 -0.3513 -0.0136
 5151W        W 6015   9.201  21.923  26.374  0.2249  0.2211 -0.1707
 5152W        W 6016  19.224   2.209  22.516 -0.1191  0.0937  0.1607
 5153W        W 6017   1.203  24.626  14.763 -0.1436  0.1966  0.1317
 5154W        W 6018  13.627   6.247  21.597 -0.0495  0.1372 -0.2630
 5155W        W 6019  18.849   3.056  28.168  0.3101  0.2682 -0.1580
 5156W        W 6020  27.771  14.097  10.881 -0.0558  0.2663  0.1314
 5157W        W 6021   4.788  19.884  15.309 -0.1252  0.2485  0.1030
 5158W        W 6022   8.889  26.939  19.735 -0.0336 -0.0099  0.0391
 5159W        W 6023  21.073   7.134  13.522  0.1147 -0.2413  0.0713
 5160W        W 6024  21.062   6.848  24.231  0.1159  0.0917 -0.0233
 5161W        W 6025  21.649  27.432  12.853  0.0406  0.2484 -0.0106
 5162W        W 6026  22.593   6.194  10.261  0.0182  0.1053 -0.0107
 5163W        W 6027   0.486  13.574   3.646 -0.4478  0.0812 -0.0491
 5164W        W 6028  12.287  21.801  11.614 -0.0694  0.1674 -0.3502
 5165W        W 6029   0.390  18.623  24.971 -0.0899  0.1822  0.2082
 5166W        W 6030  21.767   0.498  18.244 -0.2072 -0.2144 -0.0958
 5167W        W 6031   0.788  14.028   8.737 -0.0696 -0.0958 -0.2567
 5168W        W 6032  11.173  21.307  15.762  0.0094 -0.3455 -0.2506
 5169W        W 6033  17.338  13.488  11.411  0.2193  0.1606  0.2188
 5170W        W 6034  19.543   2.190  23.302  0.0851 -0.3804 -0.0673
 5171W        W 6035  15.384   5.067  17.111 -0.1421 -0.2165  0.3189
 5172W        W 6036  14.932  26.139  27.528  0.1298  0.0888 -0.2763
 5173W        W 6037   4.910  17.490  14.963  0.1166  0.1102 -0.2172
 5174W        W 6038   2.375  29.137  21.650  0.3159 -0.0082  0.2844
 5175W        W 6039  18.078   2.160   7.921 -0.0493  0.1240 -0.2311
 5176W        W 6040   0.886  20.610  18.596  0.0049 -0.2292 -0.0664
 5177W        W 6041   6.985   4.382  21.509 -0.0145  0.0285 -0.1048
 5178W        W 6042  13.411  20.428  17.123 -0.3215 -0.2029  0.0009
 5179W        W 6043  19.222  24.148  20.826 -0.1347 -0.4487  0.0206
 5180W        W 6044  19.387   9.077  20.497  0.0630 -0.0326 -0.0457
 5181W        W 6045   4.924  22.104  23.746  0.0804  0.0472  0.0929
 5182W        W 6046  10.632  26.903  26.893 -0.0076 -0.0080 -0.2397
 5183W        W 6047   9.325  17.910  11.723 -0.1293 -0.0741 -0.0636
 5184W        W 6048  19.552   6.745  19.291  0.0734  0.2440 -0.2106
 5185W        W 6049  27.862  26.077  18.321  0.1600 -0.1564 -0.0142
 5186W        W 6050  16.951   3.382  20.141  0.4054  0.0453 -0.0129
 5187W        W 6051  26.831  27.054   9.581 -0.4002 -0.2239  0.0350
 5188W        W 6052  18.537  28.963   0.747 -0.0676 -0.1082  0.0865
 5189W        W 6053  24.748   3.188  10.903 -0.1407 -0.1747  0.0976
 5190W        W 6054  15.181  19.905   9.198  0.3772 -0.1662  0.0329
 5191W        W 6055  18.617   9.196   0.399 -0.0221 -0.1321  0.3377
 5192W        W 6056  29.066   9.009  23.660 -0.0225  0.4962 -0.0942
 5193W        W 6057  28.646  23.653  23.489  0.1185 -0.3378  0.0555
 5194W        W 6058  10.455  22.818   6.927 -0.0094 -0.3071 -0.2423
 5195W        W 6059  26.934  20.282  28.965  0.1527 -0.0357 -0.1098
 5196W        W 6060  22.256   1.268  16.529  0.0610 -0.0008  0.0000
 5197W        W 6061  15.760   3.875  26.881 -0.1929 -0.1145 -0.2096
 5198W        W 6062  10.814  23.117  22.195 -0.0086  0.1441 -0.2795
 5199W        W 6063  13.496   0.800   3.017  0.3620  0.1115 -0.0522
 5200W        W 6064  14.583   4.899  15.036 -0.1324  0.1827 -0.1008
 5201W        W 6065  21.055  18.436  22.765  0.1590 -0.0811 -0.2295
 5202W        W 6066   5.054   5.104  28.582  0.0451  0.1485  0.0807
 5203W        W 6067  11.204  27.194  18.223  0.0794  0.1832 -0.1651
 5204W        W 6068  20.401  24.679  27.034 -0.1219 -0.3660  0.1289
 5205W        W 6069  27.945   4.346  10.175 -0.2080 -0.0414  0.2158
 5206W        W 6070  20.196   7.178  28.664  0.0331 -0.1086  0.0918
 5207W        W 6071   0.169  20.064  14.348  0.4673 -0.0311  0.0644
 5208W        W 6072  26.760  11.496   6.645 -0.1525 -0.1635 -0.0199
 5209W        W 6073  19.402  28.228  21.361 -0.0887  0.1924 -0.1774
 5210W        W 6074  23.327  24.094  21.173 -0.0931 -0.2390 -0.2940
 5211W        W 6075  26.312   9.867  24.018 -0.0798  0.1980 -0.1138
 5212W        W 6076  24.072   1.636   0.675  0.2476 -0.2051 -0.0043
 5213W        W 6077  20.583  13.488  26.834 -0.0084 -0.3040  0.3466
 5214W        W 6078  17.865  18.191  14.816 -0.1103 -0.1157  0.1147
 5215W        W 6079  22.448   9.984  21.632 -0.0451 -0.1906  0.0450
 5216W        W 6080  14.861  27.453   6.845  0.0364 -0.2038  0.1187
 5217W        W 6081  15.814   8.441  27.179  0.1273 -0.1293 -0.1694
 5218W        W 6082  18.348   4.760   4.941  0.1086 -0.4999 -0.2374
 5219W        W 6083  22.011  27.633  14.915  0.3783  0.1670  0.0824
 5220W        W 6084  10.333  12.353  20.625  0.1517 -0.0465 -0.1973
 5221W        W 6085   9.210   6.865   6.951  0.0842  0.0686  0.1557
 5222W        W 6086   4.757   4.483  22.970  0.3039  0.2186  0.1787
 5223W        W 6087  21.997  12.335  23.831  0.1965  0.0149  0.0841
 5224W        W 6088   6.871   9.047  28.941  0.2310 -0.0711  0.1035
 5225W        W 6089   4.834   9.194  12.906 -0.0588 -0.3184  0.0259
 5226W        W 6090  12.394  13.752  28.691 -0.0273  0.1642 -0.0621
 5227W        W 6091  26.690  23.340  17.336 -0.0352 -0.0247  0.2055
 5228W        W 6092  11.486  22.284   8.185 -0.0585  0.1673  0.0560
 5229W        W 6093   7.572  25.187  20.932 -0.0728  0.1184 -0.0948
 5230W        W 6094  18.878  15.615  21.220 -0.2049 -0.1291 -0.1140
 5231W        W 6095  23.337   0.024  22.420  0.0856  0.1813 -0.1376
 5232W        W 6096  24.040  28.089  18.241 -0.1480 -0.0353  0.1860
 5233W        W 6097  12.761   9.029  26.679  0.4456  0.2199 -0.0632
 5234W        W 6098  14.460  26.582  15.306  0.2293  0.0133  0.0025
 5235W        W 6099  10.234  25.387   2.501  0.2786 -0.0667  0.0738
 5236W        W 6100  15.373   6.447  22.191  0.1322 -0.1665  0.0055
 5237W        W 6101  12.386   0.549  27.905  0.2336  0.3611 -0.0754
 5238W        W 6102  18.449  18.570  28.423 -0.0969 -0.0226  0.3231
 5239W        W 6103   8.771   2.130  24.657  0.1048 -0.0305 -0.1080
 5240W        W 6104  20.429  21.382  18.116  0.3241  0.1429  0.0389
 5241W        W 6105   5.236   4.319  25.137 -0.1224 -0.1399 -0.2474
 5242W        W 6106  12.613  23.924  28.657 -0.0696  0.1150 -0.1870
 5243W        W 6107  24.460  18.610  22.677  0.0063  0.0819 -0.0130
 5244W        W 6108   8.421  21.356   0.042 -0.1399  0.3464  0.2387
 5245W        W 6109   3.458   6.205  15.717 -0.3376 -0.2240  0.1735
 5246W        W 6110  17.649  15.408  27.189  0.0148  0.3081 -0.1865
 5247W        W 6111  24.701  16.029   5.054 -0.1805  0.2507 -0.1331
 5248W        W 6112  15.418   7.119   9.647  0.0191 -0.1535 -0.1690
 5249W        W 6113   0.312  18.841  12.435 -0.0108  0.0955 -0.0757
 5250W        W 6114  24.391  16.409  15.127 -0.1458  0.1945 -0.1872
 5251W        W 6115   8.906  13.009  21.972 -0.0399  0.2833  0.0530
 5252W        W 6116  16.319  19.767   5.337  0.4558 -0.4416  0.0825
 5253W        W 6117   3.698  25.421  16.941 -0.2665  0.0460 -0.1128
 5254W        W 6118  25.514  17.559  13.879  0.1105 -0.0652 -0.1317
 5255W        W 6119  15.856   6.141  19.736  0.0040  0.1505 -0.4040
 5256W        W 6120   4.115  17.554   6.499 -0.2780 -0.0523  0.1239
 5257W        W 6121  11.102  16.622  20.444 -0.1989 -0.0521 -0.2289
 5258W        W 6122  24.172   2.995  28.315  0.0261  0.4504 -0.0049
 5259W        W 6123   3.619  17.588  19.882  0.0298 -0.0199  0.1989
 5260W        W 6124  14.049  11.707  14.481 -0.0660  0.1120 -0.0300
 5261W        W 6125   5.173   8.200  25.005 -0.2762 -0.0027 -0.2208
 5262W        W 6126   9.669  20.033  20.056 -0.2775 -0.3041 -0.1792
 5263W        W 6127  17.580  13.381  18.043  0.1428 -0.1529 -0.1058
 5264W        W 6128  24.797  12.586  13.725 -0.0902  0.0873  0.1478
 5265W        W 6129  21.103  20.044   8.942  0.0710  0.2639 -0.2806
 5266W        W 6130  16.006  19.593  17.288 -0.0374  0.5190 -0.1294
 5267W        W 6131  15.127  22.438  15.067  0.2027  0.0715  0.1562
 5268W        W 6132  19.902  21.956   4.073 -0.1275  0.0955  0.2594
 5269W        W 6133  12.740   2.360  10.780 -0.1797  0.0949  0.3476
 5270W        W 6134  14.928  20.000  26.253  0.1070  0.0437  0.0780
 5271W        W 6135   5.887  16.281  25.066  0.1111 -0.1170  0.0247
 5272W        W 6136  10.388   1.572   7.127  0.0679 -0.0701  0.0128
 5273W        W 6137   8.219   8.863  13.860 -0.2074  0.1704 -0.1064
 5274W        W 6138   5.071  26.359  16.402  0.0868  0.2492 -0.3610
 5275W        W 6139   1.202   5.742   5.260 -0.1007 -0.1375 -0.2355
 5276W        W 6140  24.957  20.262   0.887  0.1657  0.0282 -0.4091
 5277W        W 6141  22.362  21.882   2.457 -0.0310 -0.2234 -0.0705
 5278W        W 6142  12.699  13.686  15.429  0.1628  0.2127  0.0992
 5279W        W 6143  22.554  25.797  26.100  0.3410 -0.1597  0.1300
 5280W        W 6144  20.597   4.398  20.796  0.2427 -0.0211 -0.0672
 5281W        W 6145   1.958  10.556  15.773  0.1926  0.3325 -0.3909
 5282W        W 6146  25.548   9.898  18.374  0.2474  0.1323 -0.1320
 5283W        W 6147  11.549   1.541  13.049 -0.1495 -0.2372  0.4289
 5284W        W 6148  21.841  15.758  16.921 -0.2825  0.2665  0.1794
 5285W        W 6149  14.057  11.901  13.579  0.0526  0.2156  0.0785
 5286W        W 6150  27.717  12.795  25.342  0.0672 -0.1379  0.1312
 5287W        W 6151  28.200  23.838   1.440  0.2717  0.1213  0.0432
 5288W        W 6152  23.918   0.021   1.928 -0.1273 -0.0650 -0.0722
 5289W        W 6153   1.432  17.040   2.174 -0.3136 -0.0512 -0.1630
 5290W        W 6154   7.390   0.615  16.247 -0.1837  0.6345 -0.1971
 5291W        W 6155   6.798  19.912  27.236 -0.0862 -0.1475 -0.0322
 5292W        W 6156  15.240  14.630  19.956 -0.4686 -0.0917 -0.1875
 5293W        W 6157  13.789   3.123  11.278  0.1472  0.0781 -0.1516
 5294W        W 6158  25.534   5.782  27.216 -0.0856  0.1316  0.2233
 5295W        W 6159  14.718  12.007  19.611  0.1187 -0.0432 -0.2512
 5296W        W 6160  14.314  23.546  16.104 -0.0739 -0.0029 -0.2003
 5297W        W 6161  15.984  28.142   5.213 -0.1084  0.0680 -0.1230
 5298W        W 6162  20.446  12.857   4.642 -0.0894 -0.2125  0.3565
 5299W        W 6163  13.180   2.032  12.110 -0.2434 -0.0924 -0.2343
 5300W        W 6164  26.315  11.157  15.811 -0.1746  0.2678 -0.2988
 5301W        W 6165  17.001  16.360  20.895 -0.0170  0.2880  0.0377
 5302W        W 6166  17.605   6.051  21.704  0.1262 -0.0382  0.1682
 5303W        W 6167  22.504   5.577  20.240 -0.0091 -0.2655  0.0486
 5304W        W 6168  18.899   1.839  25.274  0.1490 -0.1774 -0.0524
 5305W        W 6169   2.132  23.237   6.849  0.5645  0.0195 -0.5642
 5306W        W 6170  22.857  25.664   3.073  0.0051  0.0432 -0.0473
 5307W        W 6171  19.056  24.903  16.287  0.1581 -0.1203 -0.1962
 5308W        W 6172   7.574  14.471  23.170 -0.0853  0.2373  0.2060
 5309W        W 6173  14.188  13.619  26.727  0.0105  0.1225 -0.0971
 5310W        W 6174   2.200  18.629  22.621  0.1680 -0.1473 -0.3568
 5311W        W 6175  24.291   4.129  25.048  0.0317 -0.0536 -0.0842
 5312W        W 6176  16.031   1.706   5.176  0.0980  0.2116 -0.1506
 5313W        W 6177  24.940   3.364  20.975  0.0016 -0.1277  0.2183
 5314W        W 6178  14.093   1.331   4.075  0.1710 -0.2270 -0.0817
 5315W        W 6179  10.303  22.661  23.941 -0.1662 -0.1004  0.3555
 5316W        W 6180  12.211   5.997   5.156 -0.2197  0.1357  0.1511
 5317W        W 6181  24.908  22.200   0.676  0.2625  0.1944 -0.0808
 5318W        W 6182  20.903   0.848  16.327  0.2155  0.1000 -0.1956
 5319W        W 6183  13.691   2.555  28.625 -0.0195 -0.1146  0.3825
 5320W        W 6184  23.808  18.722  17.876 -0.2228  0.0528 -0.0510
 5321W        W 6185   4.597  10.142   4.753 -0.1356 -0.2911 -0.1672
 5322W        W 6186  19.932  13.020  24.818 -0.2134  0.0293  0.0147
 5323W        W 6187   6.414   3.348  13.603 -0.1368  0.2323 -0.0328
 5324W        W 6188  24.149   4.349  23.779  0.1836  0.0418  0.0876
 5325W        W 6189   9.669   6.008  22.854 -0.2835 -0.0549  0.1431
 5326W        W 6190  17.488  21.541  24.492  0.4313 -0.3136  0.0895
 5327W        W 6191  26.663  28.000   7.873 -0.0640 -0.0766  0.0348
 5328W        W 6192  28.184   0.251   9.680  0.0046 -0.4307 -0.2128
 5329W        W 6193  12.698  12.945  15.833 -0.0348  0.1325 -0.1580
 5330W        W 6194  24.690  24.317  11.815  0.0128  0.3894 -0.2017
 5331W        W 6195  13.187  15.655  26.542 -0.1889 -0.0335  0.3363
 5332W        W 6196   3.117  15.748  23.042  0.0653 -0.1343 -0.2125
 5333W        W 6197  11.532   0.040   1.525 -0.0775 -0.0885 -0.1414
 5334W        W 6198  24.422   0.814  20.144 -0.1347  0.1109 -0.1141
 5335W        W 6199  21.214   1.764   9.926 -0.1566  0.0455  0.1705
 5336W        W 6200  20.430  23.283  28.971 -0.1366  0.0096 -0.2096
 5337W        W 6201  28.941   8.477   2.122 -0.1713  0.1008  0.0577
 5338W        W 6202   8.681  20.342  10.879 -0.0320 -0.2891  0.1296
 5339W        W 6203  26.461  26.272  14.182 -0.2420  0.1256 -0.0993
 5340W        W 6204   3.481  26.277  23.986  0.0658 -0.3105 -0.0201
 5341W        W 6205  11.080  29.001  25.752  0.0103 -0.1098 -0.3047
 5342W        W 6206  26.725  28.517   6.130 -0.0016 -0.0717  0.3845
 5343W        W 6207  22.023  18.531   5.872 -0.0865  0.3062 -0.1975
 5344W        W 6208  10.733  23.008   2.047  0.0046  0.0439 -0.1542
 5345W        W 6209  14.150   8.793  10.190 -0.2877  0.2713 -0.2507
 5346W        W 6210   8.561   4.149  21.876 -0.1963  0.0282  0.1126
 5347W        W 6211  11.491   2.398  10.801  0.1193  0.1897 -0.1876
 5348W        W 6212  15.170  18.978  12.508  0.0361  0.1986  0.2586
 5349W        W 6213  10.485   0.098  22.349  0.0201  0.0458 -0.2510
 5350W        W 6214   6.299  27.182   8.158  0.0098 -0.2726  0.1451
 5351W        W 6215  23.205  21.886   1.925 -0.2137  0.2121 -0.1440
 5352W        W 6216   6.359   4.752  21.719  0.0025  0.1941 -0.1004
 5353W        W 6217  11.727  27.755  14.131 -0.2972 -0.1588 -0.0452
 5354W        W 6218  13.445  26.306  13.963  0.1485 -0.1863 -0.1358
 5355W        W 6219  12.947   0.039   3.246  0.1031 -0.0955 -0.1081
 5356W        W 6220  22.955  10.191  19.244 -0.0077  0.3251  0.0047
 5357W        W 6221  28.516   7.267  15.200  0.4414  0.1486 -0.2175
 5358W        W 6222  15.437  10.729  26.929 -0.0735  0.2005  0.2025
 5359W        W 6223  19.981   3.163  24.342  0.1121  0.1960 -0.1718
 5360W        W 6224  17.643   1.205  22.314  0.1388 -0.0234  0.1737
 5361W        W 6225  10.644   4.012   4.010 -0.0000  0.1850  0.0380
 5362W        W 6226   1.152  24.670   8.784 -0.0425  0.2937  0.1458
 5363W        W 6227   7.409   9.166   6.524 -0.0532 -0.1215 -0.0664
 5364W        W 6228   0.975  24.965  10.557  0.2278  0.1265  0.0985
 5365W        W 6229  26.868   0.126  24.596  0.0126 -0.0124  0.3730
 5366W        W 6230   4.745   6.833  26.495 -0.1944  0.0587 -0.0152
 5367W        W 6231  11.925  25.119  18.534  0.1003 -0.0275 -0.2816
 5368W        W 6232   7.691  19.827  22.531 -0.0228  0.0636  0.0236
 5369W        W 6233   7.384  18.010  20.725 -0.0829 -0.0279  0.3121
 5370W        W 6234  23.427  27.763  23.938  0.0363  0.1503 -0.0099
 5371W        W 6235   7.748  24.106  20.528 -0.0913  0.0467 -0.0872
 5372W        W 6236  26.928  20.537  15.627  0.2331  0.1930 -0.0753
 5373W        W 6237  19.327  11.955  14.337 -0.0367 -0.4746  0.0668
 5374W        W 6238  21.025  25.549   2.479  0.1049  0.1392 -0.0135
 5375W        W 6239   2.101   7.584  24.293 -0.2453  0.0263  0.0985
 5376W        W 6240  10.180  22.933  14.531 -0.0207  0.1656  0.0682
 5377W        W 6241  16.756  28.341  14.401  0.0121  0.1533  0.1152
 5378W        W 6242  19.720  12.842  19.879  0.0003  0.1731 -0.0107
 5379W        W 6243   6.746  24.226  16.698  0.0491 -0.1747  0.0765
 5380W        W 6244  24.847  24.459  20.807 -0.0238  0.2274 -0.0885
 5381W        W 6245  17.620   4.501   1.088 -0.0357  0.1312  0.1857
 5382W        W 6246  14.658  11.503  12.909  0.0339  0.1807  0.0535
 5383W        W 6247   0.713   6.044  26.236 -0.0392  0.0807 -0.2257
 5384W        W 6248  28.331  11.999   0.141 -0.1148 -0.1174  0.2557
 5385W        W 6249  27.562   5.694  13.818 -0.1189 -0.2401  0.0913
 5386W        W 6250  16.775  20.013  22.006  0.1536  0.3429  0.1419
 5387W        W 6251  13.313  12.051   8.153 -0.2896  0.1789 -0.2423
 5388W        W 6252   6.051   3.174   9.718 -0.1496  0.0390 -0.0485
 5389W        W 6253   3.543   5.454  28.935 -0.1927 -0.2739  0.3545
 5390W        W 6254  16.317   5.719   5.000 -0.1180  0.1489  0.0638
 5391W        W 6255  23.251  27.735   7.675  0.1123  0.4549 -0.0965
 5392W        W 6256  22.926   5.263   9.702  0.2411 -0.0750  0.0003
 5393W        W 6257  22.129   5.109  10.469 -0.2562 -0.1984  0.1572
 5394W        W 6258  11.532  28.421   3.831 -0.2218 -0.0375 -0.0981
 5395W        W 6259   4.969  27.116   3.832 -0.2063 -0.1246 -0.1155
 5396W        W 6260  10.113   1.999   6.506 -0.0423 -0.1540 -0.0586
 5397W        W 6261  11.609   9.467  19.503  0.2633  0.2016  0.2735
 5398W        W 6262  15.820  12.494  15.085  0.1996 -0.0459  0.0286
 5399W        W 6263   8.081   5.584  10.296 -0.0626 -0.0298  0.3945
 5400W        W 6264   3.073   4.939  11.745  0.0958  0.1168 -0.0292
 5401W        W 6265  12.563  19.172  22.759 -0.2414 -0.1001 -0.2181
 5402W        W 6266  26.845  16.931  28.085  0.1264 -0.1884 -0.1389
 5403W        W 6267  20.265   0.420  26.273 -0.0980 -0.3408  0.0382
 5404W        W 6268  20.691  13.726   0.358  0.0689  0.0809 -0.1211
 5405W        W 6269   1.462  16.517  25.319  0.1451  0.3160  0.0498
 5406W        W 6270  26.686   4.829  27.034 -0.3135 -0.1515 -0.1347
 5407W        W 6271   0.183  11.684  28.721  0.4898  0.2062  0.0376
 5408W        W 6272  16.107   9.506  12.393  0.2115  0.0615  0.0698
 5409W        W 6273  28.564   1.833   5.428 -0.0271 -0.0832  0.0214
 5410W        W 6274  12.262  14.329  23.281 -0.0739 -0.1533 -0.0295
 5411W        W 6275  17.592   7.171  23.305 -0.2153 -0.0121 -0.0402
 5412W        W 6276  19.538   7.994  20.842 -0.0812  0.2301  0.2265
 5413W        W 6277   6.151  21.158  26.817  0.1120  0.0738 -0.1160
 5414W        W 6278  17.042   3.169   6.542  0.2277 -0.2456  0.1004
 5415W        W 6279   6.413  14.852  27.911  0.1965 -0.0063 -0.0557
 5416W        W 6280  23.925   3.667   1.867 -0.1156 -0.2180 -0.1522
 5417W        W 6281  11.228   6.003   3.984  0.3549 -0.3046 -0.0191
 5418W        W 6282  22.960  16.253  21.790  0.1770  0.3931 -0.2963
 5419W        W 6283   8.629  21.283  22.049 -0.1887 -0.0019 -0.1349
 5420W        W 6284   5.041  10.885   8.870  0.0503 -0.1238  0.3661
 5421W        W 6285  20.423   7.480  13.841  0.0430  0.2956 -0.4158
 5422W        W 6286  19.438  18.918  18.826  0.3810 -0.1665  0.1694
 5423W        W 6287  14.088  18.181  23.936  0.1726  0.0036 -0.2064
 5424W        W 6288  19.336  27.254  19.781  0.1060  0.0724  0.1983
 5425W        W 6289   0.732   2.416  25.247 -0.0397  0.1167  0.2804
 5426W        W 6290   4.005  12.091   1.436 -0.4593  0.1924  0.0260
 5427W        W 6291  21.756  23.819   3.061  0.1691 -0.0473  0.1283
 5428W        W 6292  26.356  17.265   4.414 -0.1450  0.1658 -0.1184
 5429W        W 6293  18.852  25.814   1.284 -0.0565  0.0840 -0.0113
 5430W        W 6294  20.671  15.020   0.514 -0.1580  0.0495  0.0400
 5431W        W 6295  20.876   0.345  21.265 -0.2628 -0.1415 -0.1577
 5432W        W 6296  28.754  21.045   1.113 -0.0973  0.2085 -0.0233
 5433W        W 6297  27.491   2.634  11.944  0.1579  0.1420  0.1446
 5434W        W 6298   1.555   0.454   2.671 -0.0557  0.0244 -0.2264
 5435W        W 6299  24.540   0.930  11.480  0.2634 -0.3280  0.0311
 5436W        W 6300  20.399  27.297  16.044 -0.1081  0.0666  0.0777
 5437W        W 6301  24.952  22.531  24.440  0.1625  0.2121 -0.1879
 5438W        W 6302  13.376  19.580  27.952  0.1140 -0.0239 -0.1062
 5439W        W 6303  19.096  18.803  15.547  0.2414  0.0145  0.0213
 5440W        W 6304  27.740   8.795  17.639 -0.1829 -0.4649  0.2793
 5441W        W 6305   1.946   0.414  19.675 -0.1839 -0.1858  0.1531
 5442W        W 6306  21.024   2.678  23.736 -0.0524  0.0183 -0.1318
 5443W        W 6307  24.674  22.790   8.053  0.1356 -0.1161 -0.1903
 5444W        W 6308  20.024   9.645  24.737  0.0141  0.1772 -0.1814
 5445W        W 6309  15.049  23.600   3.596 -0.0925 -0.0693 -0.0579
 5446W        W 6310  22.712   0.206  15.097 -0.3119  0.0781 -0.0732
 5447W        W 6311  12.789  10.273   2.478  0.0860  0.1345 -0.2363
 5448W        W 6312  28.355   9.382  16.758  0.2900  0.1000  0.0845
 5449W        W 6313  20.481  11.162  24.848  0.1521 -0.2977  0.2196
 5450W        W 6314  19.367   4.466  26.330 -0.0046  0.2965 -0.4021
 5451W        W 6315   7.966  26.896  21.432  0.0588  0.3119  0.0763
 5452W        W 6316  14.599  19.821  11.253  0.1103 -0.2366  0.2201
 5453W        W 6317   3.707  18.311  17.246  0.4375  0.0217 -0.1496
 5454W        W 6318   6.123  16.287  22.509 -0.0849 -0.0607 -0.0730
 5455W        W 6319  13.478  16.183   0.204 -0.3500 -0.2434  0.1489
 5456W        W 6320   1.872   6.762  16.268  0.1584  0.0645 -0.0725
 5457W        W 6321  20.013   9.403  17.934 -0.0698 -0.0545 -0.0103
 5458W        W 6322  13.621   5.994  21.153 -0.0372  0.1697 -0.1405
 5459W        W 6323   5.066   4.104  16.434 -0.2596 -0.1022 -0.0907
 5460W        W 6324  19.061   1.753  16.386 -0.2486  0.2060 -0.1732
 5461W        W 6325  26.733  14.110   3.534 -0.0481 -0.3352 -0.0779
 5462W        W 6326  19.675   2.035   1.639 -0.0618  0.0184  0.1099
 5463W        W 6327  15.680   6.727  12.647  0.2058 -0.1785 -0.0752
 5464W        W 6328  18.835   5.336  19.325 -0.1302  0.2941  0.1249
 5465W        W 6329  23.212  26.270  26.184 -0.2728 -0.3364  0.1177
 5466W        W 6330  25.842   6.682   6.407  0.2162  0.1938 -0.1813
 5467W        W 6331  15.145  22.836  28.459  0.0315 -0.0140 -0.1970
 5468W        W 6332   3.402  19.071   8.055  0.1064  0.0405 -0.1256
 5469W        W 6333  22.469  15.890  27.807  0.0043  0.3481  0.1222
 5470W        W 6334   7.866  24.322   1.093  0.0466  0.0105 -0.0845
 5471W        W 6335  10.321   1.726   2.029  0.0601 -0.4158  0.4066
 5472W        W 6336  17.746  21.809  10.173  0.0039  0.0469  0.1417
 5473W        W 6337  20.887  25.382  16.314  0.0324  0.3616  0.2354
 5474W        W 6338  11.265  25.838  10.586  0.0714  0.1146  0.0959
 5475W        W 6339  20.583  26.957  16.435 -0.3103 -0.1047 -0.0753
 5476W        W 6340  27.534  26.998   1.579 -0.0618 -0.0595 -0.0665
 5477W        W 6341   7.946  27.975  13.169 -0.3697 -0.0530  0.0748
 5478W        W 6342  28.714   7.772  23.962  0.0703 -0.0405 -0.0027
 5479W        W 6343  11.035   2.936   2.043 -0.2104  0.3131 -0.1434
 5480W        W 6344  25.493   0.972   6.027  0.2202  0.2787 -0.0290
 5481W        W 6345   0.019  17.036  28.902  0.2009  0.0416  0.0025
 5482W        W 6346  26.415   2.807  17.245  0.1158  0.1584 -0.2008
 5483W        W 6347   5.320   0.021  21.379 -0.1568 -0.0758 -0.0492
 5484W        W 6348  10.341  20.178  26.233 -0.2160 -0.1887  0.1861
 5485W        W 6349   4.531   4.743   6.412 -0.1739  0.0078 -0.1576
 5486W        W 6350   9.484  20.920  18.310 -0.2407  0.0168  0.0132
 5487W        W 6351  23.851  21.051  16.322 -0.1810 -0.1000  0.0909
 5488W        W 6352  17.582  18.166  28.386 -0.0041  0.2861 -0.0420
 5489W        W 6353  20.308   3.891  19.047  0.2405  0.0166 -0.2027
 5490W        W 6354  13.863  27.779  28.439 -0.1906 -0.0313  0.1976
 5491W        W 6355  26.145   2.671   0.828  0.0809 -0.0812 -0.2199
 5492W        W 6356  15.437  18.683  25.094  0.1291 -0.2348 -0.0159
 5493W        W 6357   1.913  22.513   1.968 -0.0472  0.0591  0.0396
 5494W        W 6358  18.211  15.555   3.673  0.2220  0.2400 -0.0902
 5495W        W 6359  17.895   3.073  21.255  0.2654  0.1269  0.3627
 5496W        W 6360   0.874   6.224   0.786 -0.1980  0.1810  0.1973
 5497W        W 6361   8.444   5.876  27.535  0.1853 -0.0550 -0.0089
 5498W        W 6362  19.152   6.866  26.946  0.0147  0.1535 -0.1318
 5499W        W 6363   0.773   5.742  24.865 -0.0106  0.0495 -0.4223
 5500W        W 6364  28.427  10.999  24.912  0.0393 -0.2390  0.1616
 5501W        W 6365  23.018   6.217  18.932  0.2760 -0.1474 -0.2044
 5502W        W 6366   8.045  26.764  17.170 -0.0515 -0.0928  0.1534
 5503W        W 6367   6.518  26.847  12.798  0.1184  0.0671  0.0785
 5504W        W 6368  23.230   6.841  19.795  0.2243  0.0296 -0.3145
 5505W        W 6369  19.531  25.070  28.450 -0.0589 -0.2956  0.0050
 5506W        W 6370  21.058  10.991  19.383  0.2660 -0.0425  0.2399
 5507W        W 6371  16.174   5.809  14.858  0.2905  0.0998  0.2552
 5508W        W 6372  23.753  26.561   7.270 -0.0877 -0.0756 -0.0996
 5509W        W 6373  21.549  12.986  24.034 -0.2285 -0.4075  0.1273
 5510W        W 6374  23.204  23.608  25.884 -0.2695 -0.1555  0.0577
 5511W        W 6375  16.661  25.685   9.788  0.1232 -0.5090  0.2026
 5512W        W 6376   2.971   0.327   9.083  0.1263 -0.2497  0.1961
 5513W        W 6377   6.249  15.618  27.409  0.0766 -0.2493 -0.2029
 5514W        W 6378  11.159   3.342   8.447 -0.2320  0.2699 -0.1732
 5515W        W 6379   0.028   2.678  11.663 -0.0877  0.2018  0.0701
 5516W        W 6380  15.581   0.251  22.624 -0.1751  0.1334 -0.1827
 5517W        W 6381  18.272  27.547   2.751  0.0280 -0.1018  0.0830
 5518W        W 6382  22.566  28.933   1.377  0.2292 -0.0704 -0.1330
 5519W        W 6383  12.528  27.415   5.170  0.1566 -0.0053 -0.1774
 5520W        W 6384  25.195  14.926   5.693 -0.0274  0.1626 -0.0577
 5521W        W 6385  16.045  22.797  16.582 -0.0684  0.2989  0.0502
 5522W        W 6386   8.838   5.658   4.491  0.3945 -0.0136  0.1559
 5523W        W 6387  20.712   5.063   6.195 -0.1911 -0.4003  0.0333
 5524W        W 6388  25.554   2.011   0.677 -0.1949  0.0689 -0.1707
 5525W        W 6389  25.043   0.049   0.276 -0.4238  0.0212  0.2247
 5526W        W 6390  20.865  12.330  11.732 -0.1892 -0.1120  0.1274
 5527W        W 6391   3.286   0.190  26.181 -0.3104  0.0603  0.1595
 5528W        W 6392   8.269  20.005  27.390 -0.1086  0.0989 -0.1156
 5529W        W 6393  15.105  24.588  15.818  0.2376 -0.2090  0.0802
 5530W        W 6394  13.741  19.795   1.967 -0.1649  0.2318  0.0776
 5531W        W 6395   6.183  26.096   5.486  0.2857  0.0078  0.1986
 5532W        W 6396  16.161   6.655  23.535 -0.2875  0.0825  0.2387
 5533W        W 6397   1.225  25.449   9.901  0.1769  0.2255 -0.3572
 5534W        W 6398  26.221   1.017   3.209 -0.0463 -0.0859 -0.2012
 5535W        W 6399  15.413   7.987  16.501 -0.0021  0.0953  0.5926
 5536W        W 6400  27.718  20.226  28.270  0.2356  0.0174 -0.0723
 5537W        W 6401  26.316   6.034   9.839  0.1653 -0.1458 -0.2777
 5538W        W 6402  18.692   0.539  10.928  0.2799 -0.0311 -0.0719
 5539W        W 6403  13.294   7.654   3.400  0.2545  0.1234 -0.0613
 5540W        W 6404  28.713  10.747  27.637  0.2157  0.0392  0.4072
 5541W        W 6405  17.093   4.488   8.592 -0.1253  0.0022  0.1043
 5542W        W 6406  13.520  26.480  22.969 -0.1624 -0.1972 -0.1157
 5543W        W 6407  19.262   5.371  21.608  0.2464 -0.4797 -0.1746
 5544W        W 6408   4.077  23.570  14.038 -0.1074 -0.2206  0.1703
 5545W        W 6409  24.294  27.714  14.200 -0.1400  0.3244 -0.1413
 5546W        W 6410  11.378   2.396   2.717  0.1072 -0.0059  0.1014
 5547W        W 6411   6.770   1.447   3.027 -0.0197 -0.0891  0.0090
 5548W        W 6412  18.409   0.529   0.002  0.3891 -0.1338  0.0561
 5549W        W 6413  17.470  20.655  22.246  0.0331  0.2002  0.2445
 5550W        W 6414  26.373  13.888  20.120  0.1435 -0.0370  0.2985
 5551W        W 6415  20.941  23.635  12.289 -0.2054 -0.1800  0.0092
 5552W        W 6416   0.154  17.691  29.019 -0.4571  0.0128  0.1713
 5553W        W 6417  20.008  22.531   0.176 -0.1995  0.0257  0.2697
 5554W        W 6418  12.354   9.147  19.730  0.1078  0.0634 -0.2782
 5555W        W 6419  23.084  23.029   1.167  0.0868 -0.0514  0.2602
 5556W        W 6420  29.096  23.666   8.936 -0.0221  0.1259 -0.0497
 5557W        W 6421   5.439  27.579  25.810  0.0049  0.0279  0.1651
 5558W        W 6422  17.352   4.376  21.265 -0.1511 -0.1288 -0.0293
 5559W        W 6423  25.892   2.028  25.907 -0.0385 -0.0108  0.3278
 5560W        W 6424   2.848  24.165  24.709 -0.1426  0.0822  0.2433
 5561W        W 6425   2.222   0.781  15.834  0.1550  0.3883 -0.0825
 5562W        W 6426   4.001   4.653  24.223 -0.0383 -0.1871 -0.2526
 5563W        W 6427  22.173  12.764   3.660 -0.0448 -0.1482  0.1191
 5564W        W 6428  20.896  22.898   3.163  0.0444 -0.0441 -0.1920
 5565W        W 6429  22.764   7.276  11.357  0.2324  0.1863  0.1727
 5566W        W 6430   5.702  27.119  24.311  0.0254  0.3363  0.2284
 5567W        W 6431   5.745   6.408   5.174 -0.0422  0.0884  0.1823
 5568W        W 6432   0.136  21.301   9.668 -0.0936  0.2958 -0.0623
 5569W        W 6433  17.926  14.900  12.684 -0.1953  0.0244 -0.0161
 5570W        W 6434  10.199  17.880  19.221  0.0035 -0.2110  0.3390
 5571W        W 6435  16.845  12.935  24.586  0.0488  0.1742  0.0997
 5572W        W 6436   6.606  17.093  17.036 -0.0528 -0.0730 -0.1312
 5573W        W 6437  17.465   2.536  16.547  0.1498 -0.0186 -0.2316
 5574W        W 6438   0.785  11.679   0.987  0.2297 -0.0129 -0.1752
 5575W        W 6439  19.812  14.287  10.907 -0.2494  0.0168  0.0723
 5576W        W 6440  24.462  27.963  25.038  0.1616  0.1655  0.0333
 5577W        W 6441  24.631   1.094   5.139  0.0846 -0.1665 -0.1753
 5578W        W 6442  24.262   2.703   6.518 -0.4149 -0.0665  0.0090
 5579W        W 6443  17.859   8.451  19.182 -0.1399  0.1922  0.0036
 5580W        W 6444  27.820  28.168  17.530  0.3330 -0.0090 -0.4464
 5581W        W 6445  16.258  18.853   4.863 -0.2774  0.3304 -0.1976
 5582W        W 6446  15.353   6.947   1.819  0.1100  0.1262  0.1800
 5583W        W 6447  15.583  28.465  21.109  0.1798 -0.1698  0.0840
 5584W        W 6448   6.617  27.160  19.580 -0.2770  0.2021  0.0284
 5585W        W 6449   3.342  17.306   0.426  0.1893  0.0681 -0.0172
 5586W        W 6450   3.647   4.977  20.767 -0.0276  0.0886 -0.0538
 5587W        W 6451   9.801  24.193  14.479  0.2815 -0.0939  0.1113
 5588W        W 6452  25.576  16.740   7.191  0.2637  0.1098 -0.0031
 5589W        W 6453  10.601  29.131  22.896 -0.0049 -0.1613  0.0542
 5590W        W 6454  13.737  24.803  18.364 -0.1940 -0.1438  0.1148
 5591W        W 6455   1.874  21.669  27.517 -0.1337 -0.0320 -0.1173
 5592W        W 6456   5.430  27.592   2.092 -0.2009 -0.0123  0.0271
 5593W        W 6457  23.561  19.918  11.276 -0.0665  0.0840  0.0756
 5594W        W 6458  14.591  25.512  23.416 -0.0433  0.0140  0.4125
 5595W        W 6459   5.142  23.058  27.647 -0.0148  0.2150  0.0204
 5596W        W 6460  24.538   2.818  20.187  0.1135 -0.1101  0.1469
 5597W        W 6461   7.202   5.705  26.960  0.1369 -0.0340 -0.0026
 5598W        W 6462  20.800  19.588   2.971 -0.2970 -0.0076 -0.0704
 5599W        W 6463   8.084  24.034  12.123  0.1117 -0.1589  0.0214
 5600W        W 6464  23.108   4.641   3.078  0.0267  0.2332  0.2227
 5601W        W 6465  19.958  11.535   1.962  0.0344 -0.0609  0.0357
 5602W        W 6466  27.162   4.136  16.487  0.2571 -0.1230  0.1405
 5603W        W 6467   2.526  23.951  19.198 -0.0843 -0.2178 -0.1469
 5604W        W 6468  16.676   9.806  16.712  0.1577  0.2819 -0.0719
 5605W        W 6469  26.511  23.824  28.165 -0.3024 -0.2180  0.0392
 5606W        W 6470   0.191  12.634  18.411  0.2432 -0.3747  0.0739
 5607W        W 6471  22.361  20.329  16.260 -0.1335 -0.4255 -0.0691
 5608W        W 6472  16.217  28.869  11.324 -0.3932  0.1897  0.1626
 5609W        W 6473   3.006  28.812   0.635 -0.0053  0.0597  0.1054
 5610W        W 6474  25.282   9.304  23.266  0.1248  0.0306 -0.0710
 5611W        W 6475  19.172   6.955  10.903 -0.1372  0.0110 -0.1026
 5612W        W 6476   3.370  24.831  12.361 -0.0679 -0.0301 -0.2832
 5613W        W 6477   1.931   4.211   5.383 -0.1460  0.1222 -0.0160
 5614W        W 6478   0.815  10.086  21.098 -0.0477 -0.3266  0.0566
 5615W        W 6479  15.784  19.829  28.498 -0.0711 -0.1466 -0.0214
 5616W        W 6480   2.165   2.612   8.108 -0.0579  0.2007 -0.1588
 5617W        W 6481  10.309  10.418   5.793  0.0127 -0.1594 -0.1011
 5618W        W 6482  26.846   1.529  10.750 -0.0468 -0.0731  0.0304
 5619W        W 6483  21.366   3.009  21.939 -0.2319 -0.2399 -0.2596
 5620W        W 6484  28.851   7.170  18.971 -0.0228  0.3649 -0.1227
 5621W        W 6485   9.938   1.268   8.142 -0.3308  0.2508  0.0098
 5622W        W 6486   5.621  26.821   1.903  0.2047 -0.1100  0.1682
 5623W        W 6487  21.630  21.630  17.876  0.4458 -0.0691 -0.0560
 5624W        W 6488  10.775  22.167  19.118  0.3151  0.2783 -0.1115
 5625W        W 6489  26.750  27.068  28.867 -0.1406  0.1013 -0.3424
 5626W        W 6490   6.007  26.874   9.335 -0.1803 -0.1218  0.0392
 5627W        W 6491   5.448  21.397   4.377 -0.0095 -0.1808 -0.1305
 5628W        W 6492   5.753  14.086  16.099 -0.1170 -0.0465  0.3174
 5629W        W 6493  20.846   2.271  24.721  0.0704  0.1194  0.0067
 5630W        W 6494  20.004   3.439  18.269 -0.1548  0.1015 -0.0358
 5631W        W 6495  12.618  13.440  17.058 -0.2361  0.0268 -0.4783
 5632W        W 6496  28.906   1.006  24.983  0.0525 -0.2044 -0.0215
 5633W        W 6497   4.510  11.562  28.096  0.4374  0.0985  0.4406
 5634W        W 6498  11.999  24.705  28.760 -0.1429 -0.2696  0.0920
 5635W        W 6499  10.506   6.951   4.707 -0.0296 -0.0319  0.3163
 5636W        W 6500  15.620  19.134  12.691  0.0311  0.0138  0.2513
 5637W        W 6501   2.199   1.574   3.341  0.0342  0.0584  0.2115
 5638W        W 6502   7.375  27.465  24.640 -0.3028 -0.0278  0.0430
 5639W        W 6503  27.542  26.571  14.738 -0.0155 -0.0820  0.2333
 5640W        W 6504  24.084   1.079  24.001 -0.0681 -0.2423  0.0071
 5641W        W 6505  15.722  12.377  20.966  0.3207 -0.1962 -0.2296
 5642W        W 6506  24.820   2.993   6.258 -0.1317 -0.4001  0.2131
 5643W        W 6507  26.581   9.775   1.105 -0.1168 -0.0606 -0.1723
 5644W        W 6508   3.688  22.199   3.665 -0.0397  0.0968 -0.2245
 5645W        W 6509  15.322   3.623  20.764  0.0611  0.0050  0.0001
 5646W        W 6510  22.759  18.157   5.955 -0.1660 -0.3560  0.1601
 5647W        W 6511  16.071  19.726  21.431  0.2388 -0.2997 -0.0809
 5648W        W 6512  24.730   0.691  22.393  0.1029 -0.0336 -0.0549
 5649W        W 6513  16.489   7.907   9.991 -0.2105 -0.2187  0.0357
 5650W        W 6514   1.698  19.334   2.873 -0.1771  0.2410 -0.1575
 5651W        W 6515  27.727   6.253   8.743  0.0193  0.2005  0.0323
 5652W        W 6516   0.755   0.936  18.153  0.2974 -0.0198  0.0509
 5653W        W 6517   7.538  18.650  16.333 -0.1506  0.2094  0.0416
 5654W        W 6518  11.055   0.615  27.173  0.0404  0.1131 -0.1533
 5655W        W 6519   2.724  25.572   4.195  0.2162 -0.0119 -0.1086
 5656W        W 6520  18.630  21.001  12.334  0.0030 -0.1120  0.1136
 5657W        W 6521  22.940   4.611  23.241 -0.1579  0.0950  0.0688
 5658W        W 6522   7.545   5.056   1.619  0.0955 -0.2767 -0.0907
 5659W        W 6523  18.639  10.562   3.333  0.1448 -0.1356 -0.2246
 5660W        W 6524   0.208  23.968  17.993  0.1722 -0.0010 -0.0174
 5661W        W 6525  14.706   0.628  18.323 -0.1293 -0.1993  0.2578
 5662W        W 6526  26.690  19.109  27.595 -0.0307  0.3270  0.1851
 5663W        W 6527  17.706  19.466   2.355 -0.0738 -0.1591 -0.0137
 5664W        W 6528  26.513   0.581   6.316  0.1172  0.1038  0.0635
 5665W        W 6529  11.593   4.070   7.628  0.2292 -0.0094  0.0238
 5666W        W 6530  16.618   2.672  18.917 -0.1380 -0.0618 -0.0040
 5667W        W 6531  13.864   1.277  26.123  0.0768 -0.1210  0.1599
 5668W        W 6532   3.980  23.605  19.868  0.0085  0.0733 -0.0404
 5669W        W 6533   4.115   9.240  23.274  0.2365  0.2937 -0.0875
 5670W        W 6534  12.442  18.293   2.855  0.0236 -0.2224 -0.2233
 5671W        W 6535  27.937   6.911   1.634 -0.1721  0.0995 -0.2233
 5672W        W 6536  19.099   8.701  12.084 -0.0775 -0.0453 -0.2597
 5673W        W 6537  12.116   3.836   6.864 -0.0263 -0.2366 -0.0618
 5674W        W 6538  17.427  17.775   1.793 -0.1464  0.0073 -0.0725
 5675W        W 6539  14.713  27.903  27.802  0.0930  0.0694  0.1904
 5676W        W 6540  28.987  15.087  15.149 -0.1534  0.1323 -0.1121
 5677W        W 6541   6.761  18.089  27.023 -0.1302  0.3771  0.0719
 5678W        W 6542  28.069  24.675   5.132  0.0987  0.1781 -0.0983
 5679W        W 6543  10.855  22.323  24.496  0.1017 -0.0534  0.2018
 5680W        W 6544  20.156  15.931  22.569  0.5374  0.0447 -0.4287
 5681W        W 6545  14.319   3.040  17.711  0.0255  0.2749 -0.1692
 5682W        W 6546  17.490  20.890  28.684  0.3090 -0.0969 -0.1460
 5683W        W 6547   8.234  24.663   1.058 -0.1208  0.0344  0.3432
 5684W        W 6548  13.610  28.284  16.095 -0.2943 -0.0627 -0.1853
 5685W        W 6549  17.273  14.768   8.358  0.1642 -0.1555 -0.2518
 5686W        W 6550  27.088  29.004  15.227  0.1702  0.3220 -0.2469
 5687W        W 6551  16.057  18.157   7.986 -0.2814  0.1357  0.1486
 5688W        W 6552   2.008  13.456  27.322 -0.0042  0.1077 -0.1235
 5689W        W 6553   2.110  23.554  13.591 -0.0526  0.1960 -0.0575
 5690W        W 6554  20.397   8.443  22.119  0.1884  0.0472  0.2195
 5691W        W 6555   7.003  27.928   4.728 -0.2046 -0.1447 -0.0582
 5692W        W 6556  11.714  20.717   5.914 -0.3627 -0.1574 -0.1463
 5693W        W 6557   6.814  23.090  19.417 -0.1355 -0.1450 -0.1231
 5694W        W 6558  15.159  25.558   6.613  0.2518  0.1361 -0.3232
 5695W        W 6559   2.637   3.024  28.541  0.0553 -0.1106  0.1566
 5696W        W 6560   0.910   1.828   0.125 -0.0227  0.1619  0.1996
 5697W        W 6561  10.326   5.987  24.897  0.1201  0.2708  0.2693
 5698W        W 6562  24.986   8.497  23.256 -0.2887  0.1912 -0.1741
 5699W        W 6563  15.247   5.828  11.547 -0.0072 -0.2015  0.0552
 5700W        W 6564   6.921   3.081  29.014  0.1493  0.0463  0.0048
 5701W        W 6565  10.142  28.926  22.911 -0.1862  0.1918 -0.0854
 5702W        W 6566   5.747  24.252   0.443 -0.0536  0.3211 -0.0955
 5703W        W 6567  23.713  21.550   2.021  0.1341 -0.2526  0.1007
 5704W        W 6568  15.265   1.929   3.409 -0.0697 -0.1820 -0.1113
 5705W        W 6569   5.452  11.062  28.251  0.0216 -0.1191  0.0080
 5706W        W 6570   7.750  22.321  20.810  0.0202  0.1173  0.2563
 5707W        W 6571  23.066  25.253  14.215 -0.2867 -0.2271  0.1510
 5708W        W 6572  20.484   8.514   6.473 -0.3240 -0.0688  0.2743
 5709W        W 6573   8.665   6.887  12.854  0.3402  0.0273  0.0921
 5710W        W 6574  11.570  27.807   7.424  0.0058  0.1815 -0.0276
 5711W        W 6575  12.511   5.032  24.376 -0.2953  0.0471  0.0901
 5712W        W 6576   8.990  21.260  23.471 -0.2167 -0.0566 -0.1443
 5713W        W 6577  13.671   1.082   0.519 -0.1243  0.0961 -0.1623
 5714W        W 6578   2.758  27.263  16.352  0.0837  0.1743 -0.0478
 5715W        W 6579  27.368  27.197   0.224  0.0216 -0.0392  0.0946
 5716W        W 6580   2.866   7.007  21.118 -0.0587 -0.4421  0.0925
 5717W        W 6581  21.483  22.441  15.682  0.0084  0.0055 -0.0971
 5718W        W 6582  13.302  23.720  22.143 -0.2632  0.3684  0.1112
 5719W        W 6583  25.200  27.135   9.029 -0.0378 -0.1584 -0.0056
 5720W        W 6584   6.985   5.324  21.832 -0.0123  0.0706  0.3034
 5721W        W 6585   8.103  23.650   7.573 -0.0248  0.2220 -0.0042
 5722W        W 6586  19.405   3.910  17.379 -0.0743  0.0393  0.2154
 5723W        W 6587  19.119   8.393  11.302  0.0838 -0.3331 -0.1078
 5724W        W 6588   6.078   7.879  24.568  0.3490 -0.1367 -0.1217
 5725W        W 6589  28.052  11.873  18.867 -0.2199 -0.0830  0.3761
 5726W        W 6590  16.101  19.834  10.565 -0.2380  0.1992 -0.3907
 5727W        W 6591  12.262   4.881  28.110  0.0440  0.0400 -0.0552
 5728W        W 6592  10.851   9.909  24.944 -0.0693  0.0680 -0.0987
 5729W        W 6593  20.038  15.483   3.386  0.2801 -0.1263  0.0949
 5730W        W 6594  19.638  26.460   9.001 -0.1841 -0.0722  0.0050
 5731W        W 6595   0.010   1.026  17.604 -0.1019  0.2029  0.2529
 5732W        W 6596  23.547  20.881  14.654  0.1283 -0.0670 -0.0507
 5733W        W 6597   2.865  28.934   3.738  0.2055 -0.0512  0.1167
 5734W        W 6598   5.606   3.306  21.852  0.1642  0.1969  0.0249
 5735W        W 6599  24.910  11.837   8.810 -0.0171  0.2152 -0.1101
 5736W        W 6600  20.874   5.460   8.118  0.1945 -0.1175  0.0218
 5737W        W 6601  10.597  25.071   0.120  0.0890  0.0545 -0.0299
 5738W        W 6602  21.499  27.142  26.401  0.1369  0.0124 -0.0272
 5739W        W 6603  14.971  10.453  10.386 -0.1857 -0.1368 -0.2358
 5740W        W 6604   7.327  11.409   8.609  0.2353 -0.0697 -0.0492
 5741W        W 6605  11.325  25.473   0.940 -0.6025  0.0065  0.0712
 5742W        W 6606  15.224  14.926   8.612  0.0083 -0.1022 -0.0910
 5743W        W 6607  18.833   3.564   7.348 -0.0416  0.0473  0.2566
 5744W        W 6608   7.865  17.881   9.110  0.1291 -0.0383  0.0571
 5745W        W 6609  26.078   4.474  21.572 -0.0196 -0.1688 -0.3861
 5746W        W 6610  22.047   3.324   5.334 -0.1316 -0.2032  0.4047
 5747W        W 6611   9.899  22.210  25.814  0.0530 -0.4788  0.3849
 5748W        W 6612  16.078  15.184   7.285 -0.1754 -0.1944  0.2717
 5749W        W 6613  24.629  17.545  18.811 -0.0469 -0.2104 -0.0374
 5750W        W 6614  21.473   3.954  19.299 -0.1645 -0.0510  0.1447
 5751W        W 6615  11.770   8.878   3.694 -0.1120 -0.3192 -0.0013
 5752W        W 6616   9.666   6.154  11.730 -0.2047 -0.1882 -0.0774
 5753W        W 6617   8.765  22.828   8.690  0.0393  0.1010 -0.2773
 5754W        W 6618  13.463  24.951   4.524 -0.3350 -0.0279  0.4761
 5755W        W 6619   1.769   9.865  17.717  0.1158 -0.2056 -0.1495
 5756W        W 6620   8.280  28.419   8.983 -0.3150 -0.2931 -0.0450
 5757W        W 6621  22.842   4.237  13.875 -0.0087  0.0775 -0.3919
 5758W        W 6622   4.236  26.896  23.485  0.3631  0.0295  0.1661
 5759W        W 6623  21.276  14.022   6.270  0.1442  0.3042 -0.2732
 5760W        W 6624  21.355  16.576  18.950  0.1914  0.1851  0.0487
 5761W        W 6625  17.868  18.592   5.778 -0.0680  0.2682 -0.1644
 5762W        W 6626  16.581  19.265  26.816  0.0678  0.1460 -0.1765
 5763W        W 6627  16.395   4.433  17.768 -0.0635 -0.2238 -0.0214
 5764W        W 6628  28.712   8.855  18.418 -0.3938  0.0911 -0.0094
 5765W        W 6629   7.244   8.292  16.009  0.0037 -0.0138  0.3478
 5766W        W 6630   3.649  25.971  22.576 -0.2871  0.0048 -0.0386
 5767W        W 6631  22.910  18.664   1.535  0.0365 -0.0647  0.0528
 5768W        W 6632  26.037   6.329  26.838 -0.1210  0.1087  0.0116
 5769W        W 6633  14.484  19.755   5.105 -0.2006 -0.1903  0.0348
 5770W        W 6634  14.954  11.299   8.659 -0.2271 -0.0617 -0.1671
 5771W        W 6635  16.876  24.222  18.631 -0.0565 -0.1095  0.4403
 5772W        W 6636  14.229  14.033  22.615 -0.0744 -0.0587  0.0452
 5773W        W 6637   8.649  28.449   2.123 -0.0477  0.1668  0.0209
 5774W        W 6638  25.473  28.239   6.528  0.1556  0.1999 -0.2864
 5775W        W 6639  12.961  24.626  19.055  0.0892 -0.0020  0.0317
 5776W        W 6640  23.871  21.905  16.066  0.0288  0.2573  0.2667
 5777W        W 6641  14.842  15.198  11.711  0.1096  0.1939 -0.1442
 5778W        W 6642  10.219   1.308  28.052 -0.0726  0.1406 -0.1457
 5779W        W 6643  22.336  28.607  14.717  0.0399  0.2988  0.2955
 5780W        W 6644   6.772   5.563  19.113 -0.0151  0.3012 -0.0845
 5781W        W 6645  23.333  27.088  15.130  0.0836  0.0566 -0.1636
 5782W        W 6646  25.698  16.283   7.260  0.0123  0.3237 -0.1122
 5783W        W 6647   9.437  28.508   3.339  0.0534  0.0497  0.0734
 5784W        W 6648  21.427   2.379  24.823  0.1987 -0.1532 -0.0542
 5785W        W 6649  15.680  13.670  12.063  0.1453 -0.1953  0.1240
 5786W        W 6650  22.348  11.611  20.233 -0.1136  0.0950  0.1838
 5787W        W 6651   0.188  10.035   4.475  0.0381  0.1045  0.1214
 5788W        W 6652   6.493   0.552  19.599 -0.0948  0.1384  0.3143
 5789W        W 6653   9.421   3.367   2.762 -0.0210  0.0339  0.3306
 5790W        W 6654  20.966   8.892   9.555 -0.2362  0.1992 -0.2573
 5791W        W 6655   1.472  12.265  28.274 -0.0643 -0.0848  0.3328
 5792W        W 6656  10.202   2.965   4.698  0.4242 -0.0644  0.1756
 5793W        W 6657  12.778  28.880  22.682 -0.1003 -0.1091  0.3062
 5794W        W 6658  26.946  27.672   8.149 -0.3127 -0.7319 -0.0523
 5795W        W 6659  28.956  23.153  27.495 -0.0466  0.1185 -0.2586
 5796W        W 6660  14.661   4.075   8.077  0.1835  0.1996  0.2411
 5797W        W 6661  18.431   5.569  26.942  0.0997  0.1377  0.1903
 5798W        W 6662  11.427   6.289   7.784 -0.3017  0.0403 -0.0973
 5799W        W 6663  20.691   0.984  10.982 -0.0106  0.2231 -0.1050
 5800W        W 6664  15.990  17.730  28.698  0.3143  0.2466 -0.0426
 5801W        W 6665  21.972  11.147  27.971  0.0989  0.0370 -0.1966
 5802W        W 6666  19.325   9.669  21.879 -0.0074  0.0668 -0.3489
 5803W        W 6667  21.206  24.994  20.502 -0.0158  0.1285  0.1205
 5804W        W 6668  19.244  13.576   4.914  0.0267 -0.1691  0.2544
 5805W        W 6669   8.921  19.895   9.469  0.2468 -0.3311  0.1015
 5806W        W 6670   9.097  11.322   5.266  0.0528  0.0515 -0.0324
 5807W        W 6671  27.686   7.159  10.099 -0.0327  0.1851 -0.0083
 5808W        W 6672  25.310   9.481  13.922  0.0742  0.1895  0.1111
 5809W        W 6673  10.426  17.966  19.665  0.0774 -0.1823 -0.3810
 5810W        W 6674  19.478  26.613  14.148 -0.1919 -0.0305 -0.1132
 5811W        W 6675  12.810  25.117  15.630  0.0240  0.0415  0.0073
 5812W        W 6676  14.281  22.788  10.733  0.2233 -0.1642 -0.2148
 5813W        W 6677  20.345   2.215  27.051  0.0831  0.0825 -0.0233
 5814W        W 6678  22.845   6.087   0.293  0.0614  0.0032  0.1275
 5815W        W 6679  12.680   7.791  27.478 -0.0615  0.0476 -0.0959
 5816W        W 6680  22.956   0.262  23.427  0.3103 -0.0951  0.2011
 5817W        W 6681  11.776   8.447  16.583  0.2714 -0.4284 -0.1889
 5818W        W 6682  21.093   2.760   5.257  0.4329  0.1878  0.0989
 5819W        W 6683   7.904  20.651  26.901  0.2653 -0.0313  0.0766
 5820W        W 6684  22.449  11.920   8.624  0.1891  0.3187  0.1230
 5821W        W 6685  23.484  15.753   4.940  0.1056 -0.2514 -0.0136
 5822W        W 6686  27.035  23.020   2.922  0.1991  0.1415  0.2657
 5823W        W 6687  21.488  18.935   1.925 -0.0233  0.0165 -0.1197
 5824W        W 6688   8.552  21.184  10.608 -0.0700 -0.0969 -0.1297
 5825W        W 6689  29.116  10.283  26.270  0.1768  0.1392 -0.1207
 5826W        W 6690  26.446   1.210   3.996 -0.1893  0.3071 -0.1269
 5827W        W 6691  10.342   1.946  23.853 -0.0093  0.0054  0.1837
 5828W        W 6692   1.199  10.582   2.877  0.0128  0.4500  0.2680
 5829W        W 6693  25.928  21.473  10.964  0.2329 -0.0798 -0.3673
 5830W        W 6694  10.492  17.794   3.412  0.0207  0.2846 -0.0057
 5831W        W 6695   8.985   6.054  17.577  0.1170 -0.3043 -0.0201
 5832W        W 6696  21.604  23.781   1.085  0.3822  0.0877  0.2766
 5833W        W 6697  23.835   7.153  13.233  0.2061 -0.0981 -0.1923
 5834W        W 6698  19.154  12.681   4.031 -0.1956 -0.1535 -0.2013
 5835W        W 6699  13.964  12.873  20.380 -0.1387  0.1519 -0.1274
 5836W        W 6700   8.022  27.037  16.241 -0.0777 -0.2226 -0.2692
 5837W        W 6701  21.513  26.140  28.425  0.0623 -0.0270  0.1539
 5838W        W 6702  22.605  23.004  27.882  0.0007 -0.1630 -0.5076
 5839W        W 6703  13.835  18.049  21.570 -0.2168  0.0422 -0.1827
 5840W        W 6704  28.586  23.050  13.450  0.1691  0.0405 -0.0982
 5841W        W 6705  15.842  12.791   0.831 -0.1762  0.0560 -0.0578
 5842W        W 6706  14.567  12.282  20.582 -0.1697  0.1376 -0.0255
 5843W        W 6707  13.759  24.116   3.958 -0.0897  0.0306 -0.3390
 5844W        W 6708  23.400   1.469  27.936 -0.1499  0.1701 -0.0347
 5845W        W 6709  21.924   8.596   3.410 -0.0146 -0.0881  0.0635
 5846W        W 6710   9.390   6.301  19.903 -0.1834  0.0723  0.0323
 5847W        W 6711  11.781   1.513  25.522 -0.1568  0.0401 -0.0163
 5848W        W 6712  25.701  22.680   6.971  0.1407  0.3375 -0.2884
 5849W        W 6713  13.139   3.917  28.611  0.1553 -0.1705 -0.1779
 5850W        W 6714  12.052  17.094   6.279 -0.2128  0.0835 -0.1170
 5851W        W 6715  27.731  16.721  26.872 -0.2041  0.1774  0.2576
 5852W        W 6716  21.619  24.797  12.303  0.0349  0.1321  0.0339
 5853W        W 6717  28.999   0.401   3.224 -0.0926  0.1658  0.2727
 5854W        W 6718  12.681   0.086  21.334  0.0699  0.2082  0.0689
 5855W        W 6719  20.996   9.588   2.972 -0.2123 -0.0196 -0.0738
 5856W        W 6720   4.386  10.158  29.111  0.0582 -0.0204 -0.1712
 5857W        W 6721   5.668   9.431   6.479 -0.2312 -0.1042  0.1048
 5858W        W 6722  15.714  12.809  12.682  0.4860  0.1851  0.2054
 5859W        W 6723  19.557  12.578  19.500 -0.0217  0.0214  0.1348
 5860W        W 6724  12.215   5.574   6.447  0.1329 -0.1239  0.2913
 5861W        W 6725  21.692   7.415  28.237 -0.0091 -0.3015 -0.0339
 5862W        W 6726  17.162   4.327  23.044 -0.0948  0.0040  0.2576
 5863W        W 6727  23.428  19.150   0.820  0.1346  0.0067  0.1028
 5864W        W 6728   2.723  22.553   0.077 -0.0405 -0.0862  0.2055
 5865W        W 6729  11.989  13.546  26.573  0.1967 -0.0480 -0.1518
 5866W        W 6730  14.228  25.660   4.509 -0.2800  0.1940  0.0408
 5867W        W 6731  15.778  29.086   6.023 -0.0023 -0.4589 -0.0292
 5868W        W 6732   7.243  24.469  21.730  0.0786 -0.1675 -0.2933
 5869W        W 6733   6.892   8.630  27.605  0.0642 -0.1641  0.1424
 5870W        W 6734  23.170   3.454  24.597  0.0422 -0.1620 -0.3699
 5871W        W 6735   0.771  24.295   8.796  0.1374 -0.0546  0.2630
 5872W        W 6736   4.861   8.685  20.443 -0.2092 -0.0384 -0.2653
 5873W        W 6737  20.978  22.715   7.807  0.0739  0.0091  0.0766
 5874W        W 6738   1.753  22.472   3.433 -0.0181  0.0062  0.0254
 5875W        W 6739  13.346   8.402   4.864 -0.0581  0.1286  0.2062
 5876W        W 6740  10.940   8.812  24.354 -0.0293  0.1945  0.1760
 5877W        W 6741   6.613  19.927   8.294  0.1474 -0.1856 -0.2915
 5878W        W 6742  12.752  12.122  20.555 -0.0017  0.0096  0.0335
 5879W        W 6743   5.712   9.434  25.460  0.0789 -0.0462  0.1573
 5880W        W 6744  27.450   9.986  26.810 -0.4730 -0.0577 -0.4303
 5881W        W 6745  19.114  26.895  27.958  0.0960  0.1406  0.0126
 5882W        W 6746  11.011  15.837  23.550  0.0586  0.0174  0.0838
 5883W        W 6747  20.950   1.408  15.899  0.4531  0.1038  0.0537
 5884W        W 6748  22.843   1.692   2.656  0.1122  0.1280 -0.2821
 5885W        W 6749  13.973  14.688  16.775 -0.4429 -0.4056 -0.3489
 5886W        W 6750   0.044   2.254  14.894 -0.1945  0.0356  0.1893
 5887W        W 6751  23.438  22.961  10.556 -0.0372 -0.2564 -0.0014
 5888W        W 6752  26.459  28.718  10.979  0.0918 -0.0978  0.0690
 5889W        W 6753  20.955   5.385  21.956 -0.2987  0.1066  0.1169
 5890W        W 6754  10.446  16.197   4.421  0.0585 -0.0579  0.2129
 5891W        W 6755  15.186  11.738   5.083  0.0390 -0.2487 -0.0319
 5892W        W 6756  21.779   0.010  11.649  0.2289 -0.0522  0.2178
 5893W        W 6757  16.427  19.544  12.445 -0.1353  0.0385 -0.0929
 5894W        W 6758  21.890  22.036  13.670  0.2553  0.0204  0.3615
 5895W        W 6759  19.498   0.254   9.885  0.4873 -0.3353  0.1297
 5896W        W 6760  15.330   2.900  22.834  0.0797 -0.2753  0.1527
 5897W        W 6761  11.182   4.638  22.580  0.0949 -0.3023  0.3554
 5898W        W 6762  26.063  26.438   2.914 -0.0456  0.0258  0.0090
 5899W        W 6763  13.847   5.479  29.130 -0.3256 -0.3971  0.1888
 5900W        W 6764  15.989  20.219  19.484  0.0103 -0.0096 -0.2489
 5901W        W 6765  14.356   9.873   2.721 -0.0553 -0.3253 -0.0974
 5902W        W 6766  11.566   0.830   6.720 -0.0746 -0.0071 -0.0206
 5903W        W 6767  15.239  25.756  19.383 -0.1317 -0.0328  0.2938
 5904W        W 6768   5.455   5.676   5.219  0.1583  0.0412 -0.3184
 5905W        W 6769  12.867  25.977  21.804 -0.3945 -0.0726 -0.1926
 5906W        W 6770  28.320  27.991  13.255  0.1076 -0.0340 -0.3231
 5907W        W 6771  23.169  28.792  26.993 -0.1776  0.0194  0.1149
 5908W        W 6772  23.570   9.548  10.195 -0.4281 -0.0161 -0.4541
 5909W        W 6773   2.300   1.498  24.015 -0.2500 -0.1383 -0.0484
 5910W        W 6774  22.547  21.868   4.617 -0.1331  0.1542  0.1907
 5911W        W 6775   2.076  23.077  26.766 -0.1335  0.0597 -0.0719
 5912W        W 6776  19.723   4.596  16.876 -0.0869  0.1001  0.2134
 5913W        W 6777  21.767  18.590   9.938 -0.2006  0.1165  0.1077
 5914W        W 6778  27.701   5.862  26.134 -0.0686 -0.1194 -0.0189
 5915W        W 6779  29.043   7.706  21.307  0.0277 -0.1032  0.3714
 5916W        W 6780  12.925  11.537  24.608 -0.0280 -0.0910  0.0299
 5917W        W 6781   7.521  15.662  27.105 -0.0695  0.2335  0.2226
 5918W        W 6782  25.022   2.621   2.201 -0.1062 -0.0577  0.0797
 5919W        W 6783   3.891   6.830  24.619 -0.0825 -0.2105 -0.1255
 5920W        W 6784  19.621   2.414   5.375 -0.0660 -0.2037  0.1895
 5921W        W 6785  15.964  12.388  18.281 -0.3330 -0.0282  0.0514
 5922W        W 6786  17.090  14.250   2.014 -0.1328 -0.0622 -0.2916
 5923W        W 6787  16.178  19.485  11.563  0.1799  0.3997  0.2667
 5924W        W 6788  19.871   8.543   0.316 -0.1058  0.1325 -0.1507
 5925W        W 6789  13.083  23.547   3.965  0.1102 -0.1547  0.1752
 5926W        W 6790  18.487  26.718  19.635  0.1197  0.0445  0.3668
 5927W        W 6791  15.454   1.736  22.872  0.0075 -0.2806  0.0676
 5928W        W 6792  23.758  13.132   0.465 -0.1215  0.2409  0.4191
 5929W        W 6793  22.276   6.283  12.578  0.3036  0.4848  0.0567
 5930W        W 6794  12.372  18.288  27.735 -0.0941  0.1515  0.2020
 5931W        W 6795  16.680  22.227   3.872 -0.0849 -0.0029 -0.0956
 5932W        W 6796  17.470   9.465  22.276  0.3335  0.1279 -0.4969
 5933W        W 6797  21.784  23.783   1.982  0.1235 -0.0269 -0.1111
 5934W        W 6798  16.099  22.119  26.816  0.3301  0.0806 -0.1641
 5935W        W 6799   2.099   7.379  24.760 -0.0856 -0.0780 -0.1045
 5936W        W 6800  16.492   6.830   6.494  0.2616  0.1983 -0.2949
 5937W        W 6801  25.360   0.930   8.375  0.2921 -0.3678 -0.0147
 5938W        W 6802   7.748   7.780   7.943  0.0348  0.0657 -0.1261
 5939W        W 6803  11.206  16.015  18.195 -0.4323  0.3627 -0.2899
 5940W        W 6804  13.798   7.118  27.688 -0.1099 -0.0586  0.0418
 5941W        W 6805  16.557   4.552  21.916 -0.0548  0.2924 -0.0624
 5942W        W 6806   4.070  15.278  26.286 -0.0025  0.0197 -0.1721
 5943W        W 6807  23.331  20.856   7.299  0.1890  0.1524  0.1289
 5944W        W 6808  28.765   7.156   0.372  0.0547  0.2796 -0.2649
 5945W        W 6809   1.118  12.434  18.464 -0.0356 -0.0967 -0.2214
 5946W        W 6810  26.114  25.915  12.409  0.1026 -0.1360 -0.1411
 5947W        W 6811  11.292   3.605  13.966  0.2252  0.0432  0.0304
 5948W        W 6812  15.878  19.203   9.780  0.1448 -0.0469 -0.2422
 5949W        W 6813  15.551  28.011  23.224  0.0951 -0.2866 -0.0037
 5950W        W 6814   6.543   9.990  17.205 -0.0567 -0.1534  0.2562
 5951W        W 6815  19.486   9.723  24.041 -0.2402  0.2220  0.0342
 5952W        W 6816  17.125  28.568  19.289 -0.0261 -0.1027 -0.0477
 5953W        W 6817  15.446   0.881  28.498  0.0601 -0.1201 -0.3272
 5954W        W 6818  22.182  13.867   1.158  0.0996 -0.0248  0.0691
 5955W        W 6819  14.184  10.048  23.860  0.1696 -0.0334 -0.2406
 5956W        W 6820  20.118   6.607  18.200  0.0746 -0.0552 -0.0680
 5957W        W 6821   5.790  25.370   4.295 -0.3549  0.0817 -0.2072
 5958W        W 6822  19.799   1.761   8.465 -0.1146 -0.0205  0.2912
 5959W        W 6823  18.143   6.490   4.466  0.0052  0.0452  0.1116
 5960W        W 6824   6.774  13.288  21.803 -0.0528  0.3046 -0.0087
 5961W        W 6825  29.080  21.269  22.822  0.0814 -0.1739  0.0658
 5962W        W 6826  13.002  20.378  25.716  0.1951 -0.1136 -0.0141
 5963W        W 6827  15.314  23.135  22.823 -0.1185 -0.1086 -0.1228
 5964W        W 6828  19.792   8.814  22.109  0.1863 -0.0985  0.0291
 5965W        W 6829   6.523  15.385   5.267  0.1140 -0.1883 -0.0773
 5966W        W 6830  28.080   3.285   1.223  0.4300 -0.0032  0.1862
 5967W        W 6831  10.547  20.187   3.049  0.2789 -0.1150  0.1060
 5968W        W 6832  16.574  20.635  15.418  0.0495 -0.2881 -0.3573
 5969W        W 6833   0.881   9.104  11.773 -0.2144  0.1990 -0.1930
 5970W        W 6834  23.391  13.406   8.319 -0.0002 -0.0183 -0.1510
 5971W        W 6835   7.887   8.171  17.573 -0.1981  0.1762  0.1946
 5972W        W 6836  10.850   1.128   2.961 -0.0804  0.4389 -0.0035
 5973W        W 6837   6.383  12.010  23.034 -0.4032 -0.0458 -0.1572
 5974W        W 6838   4.807  26.212  22.618 -0.3386 -0.0603 -0.0361
 5975W        W 6839  19.588  16.139   8.882  0.3889  0.0346 -0.2542
 5976W        W 6840   2.074   0.142   7.220  0.0813  0.1079  0.0553
 5977W        W 6841   2.528  23.681  24.639  0.3052 -0.0517 -0.0374
 5978W        W 6842  28.420   8.920   6.760  0.1830 -0.1518 -0.0963
 5979W        W 6843   2.669   4.901  26.808 -0.1389 -0.0803 -0.1195
 5980W        W 6844  23.512  10.072   9.498  0.3152 -0.0612 -0.2104
 5981W        W 6845  23.255  20.236  13.783  0.0933 -0.1892  0.0945
 5982W        W 6846  28.442   2.730  16.378  0.1130 -0.0698  0.1086
 5983W        W 6847  19.254  17.277  16.906 -0.5288  0.3095  0.1564
 5984W        W 6848  19.932  24.558   8.289  0.1417 -0.0127 -0.0858
 5985W        W 6849  27.749   5.189   1.109 -0.0533 -0.1558 -0.3886
 5986W        W 6850  24.215  23.946  18.635  0.4431 -0.0433  0.2343
 5987W        W 6851  24.455  10.255  23.959 -0.1138 -0.0865  0.1489
 5988W        W 6852  25.746   7.996   7.339  0.2198  0.0880 -0.1650
 5989W        W 6853  19.122   4.869   4.131 -0.0887 -0.2486 -0.3417
 5990W        W 6854  22.941  27.942   6.048 -0.3301  0.0639 -0.3230
 5991W        W 6855   6.929  21.357  27.167 -0.0414 -0.0408  0.0108
 5992W        W 6856  11.835   0.385   3.659 -0.1311  0.1317  0.4732
 5993W        W 6857  25.757   4.525  29.062 -0.0165  0.1792  0.0234
 5994W        W 6858  22.259  14.432  22.678  0.1387  0.1415 -0.1773
 5995W        W 6859   5.418  28.150  11.935 -0.0493 -0.0552 -0.1426
 5996W        W 6860   8.752  11.589  14.351 -0.2238  0.1259  0.1984
 5997W        W 6861  18.110  27.925  22.749 -0.0462  0.3178 -0.1145
 5998W        W 6862   7.775  11.416   8.425 -0.0352  0.1856  0.1476
 5999W        W 6863  12.896   4.683   1.057 -0.2147  0.4160 -0.0319
 6000W        W 6864  10.009  20.938  28.882 -0.0355 -0.2852 -0.0418
 6001W        W 6865   9.545  26.969  15.378 -0.2077 -0.1384  0.3204
 6002W        W 6866  16.411   0.520   0.180 -0.4223 -0.1688 -0.2086
 6003W        W 6867  17.164  18.489  23.690  0.0196 -0.2870  0.0054
 6004W        W 6868  10.398  28.522  27.946  0.2199  0.1578 -0.2189
 6005W        W 6869  28.438   3.769  26.198 -0.2130  0.0827 -0.1376
 6006W        W 6870  14.401  21.735   5.720  0.0284 -0.0282  0.0278
 6007W        W 6871   3.881   2.651   8.387  0.0585  0.0641 -0.2167
 6008W        W 6872  20.486   7.729  10.226  0.2487 -0.1075 -0.2410
 6009W        W 6873  12.184  21.302   7.056 -0.2055 -0.0099 -0.2676
 6010W        W 6874  26.957   9.055  26.786 -0.0384 -0.1549 -0.3093
 6011W        W 6875  18.659  19.759  22.879  0.0053  0.0717 -0.0278
 6012W        W 6876  15.702  22.152  18.675  0.2143  0.1778 -0.0378
 6013W        W 6877  21.007   9.476  27.538 -0.3084  0.2485 -0.0494
 6014W        W 6878  23.946   0.330  14.126 -0.2218 -0.0774 -0.3586
 6015W        W 6879  16.905  12.079  18.907  0.0974  0.3733  0.2412
 6016W        W 6880  20.804   5.007   4.776 -0.0087 -0.2529 -0.0652
 6017W        W 6881   0.137  11.538   5.812 -0.1470  0.0627 -0.2698
 6018W        W 6882  10.873  14.853   8.027 -0.1050  0.0366 -0.0138
 6019W        W 6883  20.198   9.200   3.554 -0.2618  0.0852 -0.2227
 6020W        W 6884  19.298  27.863  28.880  0.0189  0.1576  0.0094
 6021W        W 6885  13.455   2.241   7.215 -0.2404  0.0368 -0.0829
 6022W        W 6886   0.049   2.355   5.627 -0.0547 -0.0693 -0.1953
 6023W        W 6887  19.278   6.099   6.869  0.1639  0.2368  0.0441
 6024W        W 6888  17.093  26.044   9.014 -0.2257  0.2437 -0.0398
 6025W        W 6889  24.552   3.677  17.640  0.0115 -0.0565  0.0772
 6026W        W 6890  12.660   1.388   5.171  0.0447 -0.0924 -0.3452
 6027W        W 6891  19.539  16.529  21.899  0.0127 -0.0418  0.1813
 6028W        W 6892   1.482   5.181  18.881  0.0900 -0.1407  0.0856
 6029W        W 6893   9.592  20.983   0.310  0.1319  0.0455 -0.4758
 6030W        W 6894   2.052   2.845  10.572  0.0116  0.2593 -0.0087
 6031W        W 6895   5.889  18.658  22.340 -0.0193 -0.0759 -0.0038
 6032W        W 6896   6.522   0.195  14.095  0.1462  0.2560 -0.0856
 6033W        W 6897  11.841  15.618  18.956  0.0722  0.1364  0.1875
 6034W        W 6898   3.813   0.898   8.096  0.0845  0.2503  0.1181
 6035W        W 6899   7.238  28.512  20.115  0.0061  0.2658  0.2645
 6036W        W 6900  21.771  28.072   2.821 -0.1995 -0.0461 -0.1206
 6037W        W 6901  23.113   6.963  11.168  0.3030 -0.0907 -0.2508
 6038W        W 6902  16.501   7.413  28.692  0.2098 -0.1749  0.1214
 6039W        W 6903  13.795   9.677   2.033  0.1467  0.1292 -0.0314
 6040W        W 6904  15.121  28.428  17.747 -0.1292 -0.1487  0.2613
 6041W        W 6905  13.070   2.033  22.949  0.0443 -0.2842 -0.0001
 6042W        W 6906   9.964  26.045  22.031 -0.0289 -0.0675 -0.3366
 6043W        W 6907  13.328  23.023   2.116 -0.0470 -0.1582  0.1040
 6044W        W 6908  22.009  14.299   3.598  0.1069 -0.1132 -0.3309
 6045W        W 6909  26.053  25.750   0.354 -0.2786 -0.0099  0.0740
 6046W        W 6910  18.488  12.755  10.801 -0.2357  0.0834  0.0719
 6047W        W 6911  20.318   1.926   7.172 -0.3306  0.1978 -0.0611
 6048W        W 6912  23.465   4.156  29.022 -0.1090 -0.3122 -0.1200
 6049W        W 6913   3.050  16.196  11.698 -0.1795  0.1682  0.0824
 6050W        W 6914   7.223   1.039  23.157  0.3801  0.0317 -0.0895
 6051W        W 6915   3.108  20.841   1.411  0.2125  0.0925  0.1640
 6052W        W 6916  19.271  20.318  11.837  0.2867 -0.0221  0.1907
 6053W        W 6917   0.773   4.662  26.118  0.0644  0.2313 -0.0868
 6054W        W 6918  11.210  15.050  26.685 -0.1530 -0.0657 -0.2765
 6055W        W 6919  18.183  10.886  28.060  0.0034  0.3281  0.1189
 6056W        W 6920  13.418   4.594  12.142  0.4614 -0.1549  0.1321
 6057W        W 6921  10.550  28.466  18.324 -0.2935 -0.2969  0.0183
 6058W        W 6922  22.845  19.504  20.539 -0.0777 -0.0834  0.3420
 6059W        W 6923  21.161   6.529  16.761  0.0577  0.0253  0.0776
 6060W        W 6924  17.783   4.770  10.786 -0.0142  0.4042  0.0331
 6061W        W 6925  26.997  28.407  19.467 -0.0506 -0.2419  0.2011
 6062W        W 6926  20.841   7.561   7.956 -0.1430  0.1701  0.2368
 6063W        W 6927  11.005  10.867  28.063 -0.2189 -0.2617  0.2012
 6064W        W 6928  14.186  24.809  18.068  0.3019  0.0045  0.1242
 6065W        W 6929  12.197  14.791   7.981  0.3603 -0.0711  0.0135
 6066W        W 6930  14.511   2.865   8.496 -0.0582 -0.2892  0.1547
 6067W        W 6931   0.859  27.744   0.820 -0.2564 -0.0652  0.0803
 6068W        W 6932  16.422   6.905   0.484  0.1035 -0.2107  0.0069
 6069W        W 6933  22.577   0.261  18.899  0.0106  0.1922 -0.2239
 6070W        W 6934  20.337  26.669   7.000  0.0043  0.1755  0.0359
 6071W        W 6935   9.399  26.893   1.747 -0.4294 -0.4305  0.0166
 6072W        W 6936   1.035  24.067  27.658 -0.1645 -0.1519 -0.0168
 6073W        W 6937   6.672   5.711  26.764  0.2405  0.1306  0.1955
 6074W        W 6938  12.813  12.577  21.862 -0.0643 -0.0529  0.1897
 6075W        W 6939  20.242   3.215   1.762  0.0634  0.0551 -0.2943
 6076W        W 6940  22.082  11.332  17.265  0.1124 -0.0147  0.0422
 6077W        W 6941  21.309  28.450   7.772  0.0884  0.2450  0.0533
 6078W        W 6942  12.295  19.936  24.243  0.0571 -0.1200  0.0891
 6079W        W 6943   3.272  29.140   9.749  0.2466  0.0122 -0.1485
 6080W        W 6944  18.356   5.478   0.074 -0.0914  0.3240  0.0490
 6081W        W 6945  27.260   3.508   6.372 -0.2720  0.0929  0.0035
 6082W        W 6946  28.745   5.364   5.300  0.1078 -0.0360  0.2914
 6083W        W 6947  27.302  26.825  16.943 -0.1255  0.1613 -0.0043
 6084W        W 6948  20.012   7.899   8.499  0.1627  0.0624  0.0862
 6085W        W 6949   6.147  16.630   7.836 -0.2815 -0.1229 -0.1183
 6086W        W 6950  19.698   5.195  25.522 -0.2814  0.2223 -0.1117
 6087W        W 6951  18.647  12.295  17.649  0.2320 -0.0396 -0.0492
 6088W        W 6952   3.497  27.891   6.406 -0.0958 -0.1101  0.1381
 6089W        W 6953  25.263  24.369   7.861  0.0780 -0.0527 -0.2331
 6090W        W 6954  16.522   2.242  13.689  0.0856  0.0650  0.0310
 6091W        W 6955   0.630   4.654   7.161 -0.0681 -0.5621 -0.2404
 6092W        W 6956   8.579   1.663  25.788  0.0672 -0.2454 -0.0152
 6093W        W 6957  14.295   7.701   8.401 -0.0882 -0.2670  0.0053
 6094W        W 6958  27.356  23.572  14.647  0.1738 -0.1589  0.0162
 6095W        W 6959  24.716   5.639  13.045  0.0362 -0.1446 -0.0376
 6096W        W 6960  24.071  29.139   5.998 -0.0672  0.1673  0.2143
 6097W        W 6961  18.170  12.413  23.262  0.0312  0.1186 -0.0812
 6098W        W 6962   1.018   0.242  15.652 -0.3904  0.0517  0.2854
 6099W        W 6963  29.029   7.681  27.309  0.1271 -0.3650  0.0874
 6100W        W 6964  14.981  14.066   0.122  0.1290  0.0543 -0.2914
 6101W        W 6965   1.431   2.877   4.621 -0.1312 -0.3202 -0.2653
 6102W        W 6966  22.010  16.483  20.399  0.1185  0.2535  0.1440
 6103W        W 6967  13.589  22.178   3.180 -0.1395  0.0029  0.2867
 6104W        W 6968  27.952  24.696  22.158 -0.3644  0.3041  0.0846
 6105W        W 6969  16.549  11.516   0.606 -0.0780  0.1900 -0.0407
 6106W        W 6970  25.403  13.391   5.973 -0.1772 -0.0241  0.1755
 6107W        W 6971  23.131  12.240  13.736 -0.0823  0.0513 -0.3462
 6108W        W 6972  14.216   4.565   1.058  0.0675 -0.0680 -0.0270
 6109W        W 6973  19.411   0.001  11.892 -0.4311 -0.1735  0.1335
 6110W        W 6974   5.554  10.026  11.861 -0.2139 -0.0025 -0.0266
 6111W        W 6975  23.177  16.416  26.021  0.0772 -0.0910  0.1437
 6112W        W 6976  27.619  24.125   6.383 -0.1223  0.0952  0.0756
 6113W        W 6977  28.981  25.658  29.034 -0.0342  0.0022  0.0567
 6114W        W 6978   7.861  18.497  17.253 -0.0855 -0.4124 -0.3349
 6115W        W 6979  25.019  10.357   7.915  0.0337  0.0877  0.0177
 6116W        W 6980   0.761  17.698   2.382 -0.0337 -0.0857 -0.2301
 6117W        W 6981  24.489  27.302   9.690 -0.0188 -0.1866 -0.1150
 6118W        W 6982  22.600  14.063   4.962 -0.0829 -0.0092 -0.1883
 6119W        W 6983  26.365   1.387  10.763 -0.0697  0.2160 -0.1239
 6120W        W 6984  20.939   4.673   9.853  0.0333  0.0742 -0.0028
 6121W        W 6985   1.389   9.273  21.758 -0.0948  0.1075  0.0199
 6122W        W 6986  18.722  22.969   6.112  0.0889 -0.0915  0.1237
 6123W        W 6987  21.009   3.090   7.899  0.0482 -0.2069 -0.1691
 6124W        W 6988   5.975   9.849  28.269 -0.1440 -0.0973  0.1537
 6125W        W 6989   3.740  20.476   7.373  0.2858  0.1410  0.0786
 6126W        W 6990  17.885  17.577   5.754 -0.2248  0.3460  0.0470
 6127W        W 6991   9.178  22.311  10.951  0.3199  0.1970 -0.0513
 6128W        W 6992  12.525  16.251  26.276 -0.0867  0.0305  0.0788
 6129W        W 6993  26.988  15.884   6.943 -0.1762 -0.4580  0.0530
 6130W        W 6994  13.549   0.255  28.552  0.0500  0.3055 -0.1969
 6131W        W 6995  23.827  13.046  13.540  0.3985  0.2690 -0.0002
 6132W        W 6996  23.368  22.027  28.113 -0.0330 -0.1597 -0.1296
 6133W        W 6997  25.774  22.464  15.576  0.1181  0.0177 -0.3086
 6134W        W 6998  12.386   6.869  11.225  0.1265 -0.2657  0.1297
 6135W        W 6999   1.278  21.561   0.163 -0.3521 -0.2593  0.2132
 6136W        W 7000  29.005  18.962  22.484  0.0256 -0.0709 -0.2232
 6137W        W 7001  18.673  12.717   8.715  0.2654 -0.3148 -0.1499
 6138W        W 7002  17.629  28.311   3.730  0.2741  0.0146  0.0902
 6139W        W 7003  24.578  19.041   7.946 -0.0462 -0.0722  0.2283
 6140W        W 7004  11.253   2.326  18.467  0.1456  0.0944  0.0072
 6141W        W 7005   7.863  15.322   8.535  0.0602 -0.1337  0.1330
 6142W        W 7006  13.985  10.502   5.225  0.0625 -0.1584  0.1892
 6143W        W 7007  22.771  14.686  10.117 -0.1077 -0.1043 -0.3395
 6144W        W 7008  28.217   9.510   5.732 -0.1716  0.2770 -0.1081
 6145W        W 7009  24.723  11.754   2.801  0.1977 -0.2225  0.2211
 6146W        W 7010   8.887   2.821  15.893 -0.0293 -0.0354  0.1850
 6147W        W 7011   0.122  22.078   5.674 -0.0527  0.0597  0.1091
 6148W        W 7012  11.648  20.828  23.973 -0.0827  0.1418  0.0727
 6149W        W 7013  13.982  10.804  19.277  0.2652  0.1544 -0.3408
 6150W        W 7014  23.016  13.798  23.260 -0.4318 -0.0146 -0.2145
 6151W        W 7015   2.404  21.331   3.611 -0.1747 -0.1462 -0.0032
 6152W        W 7016   4.687   2.316   0.537  0.1887  0.1951 -0.0570
 6153W        W 7017   7.343  27.507   3.836 -0.2193 -0.0449 -0.0846
 6154W        W 7018  18.325  17.476   6.523  0.0451  0.2610 -0.1823
 6155W        W 7019  10.042  10.189   5.484  0.1882  0.1724  0.1458
 6156W        W 7020  16.055   3.626   5.508 -0.2187 -0.0424 -0.1933
 6157W        W 7021  27.837   8.397  10.543 -0.1110 -0.0609 -0.2615
 6158W        W 7022  11.944   9.708  27.878  0.2967  0.1129  0.0348
 6159W        W 7023   8.123  15.733  12.750 -0.0157  0.1748  0.1955
 6160W        W 7024  18.088  13.438  14.284  0.1178  0.0337  0.0464
 6161W        W 7025   4.781  12.761   9.653  0.2643 -0.2431  0.0869
 6162W        W 7026  20.778  14.572  17.992 -0.1120  0.1604  0.0377
 6163W        W 7027  25.950  14.835  19.325 -0.0284  0.0705  0.0180
 6164W        W 7028  16.428   6.988  14.250  0.0615  0.1352  0.0277
 6165W        W 7029   5.793  23.029  22.513  0.0544 -0.0071  0.1560
 6166W        W 7030  27.340   7.564  15.731 -0.0380 -0.1705  0.1306
 6167W        W 7031  25.901  13.645   1.493 -0.3368  0.0498  0.1204
 6168W        W 7032  10.791  10.447  10.504  0.1234  0.2595 -0.2138
 6169W        W 7033  21.354   4.838  19.001 -0.0252  0.0198 -0.0803
 6170W        W 7034  18.379   8.055   5.577 -0.1647  0.0029  0.2004
 6171W        W 7035  13.686   3.840   4.347  0.0015 -0.1349 -0.1962
 6172W        W 7036  21.752  24.546  17.920  0.0987  0.1622  0.1228
 6173W        W 7037   6.057   5.993  24.345 -0.0235  0.1490  0.1430
 6174W        W 7038  23.375  17.520  18.040  0.1073 -0.0110 -0.1309
 6175W        W 7039   0.902   5.364  25.156  0.1229  0.2979  0.0645
 6176W        W 7040  25.996   7.018  25.413  0.0286  0.0351 -0.1601
 6177W        W 7041   5.376  16.099  11.041  0.1152  0.1403  0.1333
 6178W        W 7042   9.895  28.258   1.454  0.0766  0.1307  0.2041
 6179W        W 7043   7.309  17.380  11.258  0.1557 -0.3460 -0.1280
 6180W        W 7044  24.341   0.656  16.527 -0.1205  0.3086 -0.1486
 6181W        W 7045  20.858   0.027   2.339  0.1683  0.0457  0.0954
 6182W        W 7046  19.206  24.765   0.033  0.0511  0.4242  0.1612
 6183W        W 7047  11.614  19.541  11.203  0.3949 -0.0519 -0.1194
 6184W        W 7048   8.583  21.451  26.561 -0.2530  0.0394 -0.1193
 6185W        W 7049   8.778   2.082  27.074 -0.1698  0.1092  0.0522
 6186W        W 7050  18.573  18.485  18.356  0.1661  0.1493 -0.0926
 6187W        W 7051  21.058  27.386  17.117 -0.1230 -0.1949  0.0018
 6188W        W 7052  16.565   6.210   2.827 -0.2153 -0.0859  0.0282
 6189W        W 7053   4.041  10.896   8.423 -0.2615 -0.2185  0.1183
 6190W        W 7054  13.352  12.914  27.291 -0.1840 -0.1896 -0.2699
 6191W        W 7055   8.480  18.864  28.573 -0.1333  0.0341  0.0683
 6192W        W 7056  19.683   0.074  18.791 -0.1133 -0.0499 -0.3807
 6193W        W 7057  16.805  28.376  26.413 -0.3018 -0.0888 -0.1256
 6194W        W 7058  12.515   9.741  16.172  0.1395  0.0647  0.0558
 6195W        W 7059  15.082  26.269   5.619  0.3356 -0.1510  0.0650
 6196W        W 7060  15.425  20.499  12.856  0.0205 -0.2699 -0.0290
 6197W        W 7061  26.060  25.444  10.181 -0.3354 -0.0983 -0.1985
 6198W        W 7062  15.753  27.300  26.983 -0.2457 -0.2305  0.2459
 6199W        W 7063   4.574   3.100  10.651  0.0786 -0.1443 -0.0321
 6200W        W 7064  22.203  26.493   6.558 -0.3461  0.3496  0.0030
 6201W        W 7065   2.516  13.705  15.289  0.0250 -0.1073  0.0478
 6202W        W 7066  16.111   0.986  20.024  0.1647  0.2325  0.0545
 6203W        W 7067  14.581   1.457  18.807 -0.1003  0.1558  0.1195
 6204W        W 7068  22.531   0.193  16.113  0.3280  0.2131 -0.1729
 6205W        W 7069  20.117  19.967  18.066  0.2042 -0.0418 -0.1394
 6206W        W 7070  17.103  14.547  27.130 -0.0502 -0.1936 -0.1665
 6207W        W 7071  15.736   0.931  14.586 -0.1391  0.2100 -0.0901
 6208W        W 7072  21.558   3.652  27.604  0.3044  0.0297  0.3289
 6209W        W 7073  10.278  22.174   7.161  0.2023 -0.0859 -0.2044
 6210W        W 7074  19.787   5.824  10.575 -0.2431  0.0652 -0.1274
 6211W        W 7075  11.654  26.813  13.785 -0.1487 -0.0274 -0.0269
 6212W        W 7076   9.404   5.354  19.032 -0.2151 -0.0265  0.2072
 6213W        W 7077  12.543   9.712  13.894 -0.2295  0.2435 -0.2838
 6214W        W 7078  18.530   0.848  14.323  0.0732  0.0167  0.1889
 6215W        W 7079  22.335   4.809   7.578  0.0822  0.2338 -0.0094
 6216W        W 7080   5.247   3.280  25.621 -0.1578 -0.0936  0.1444
 6217W        W 7081  20.842   4.739  26.657 -0.1522  0.0900  0.1191
 6218W        W 7082  16.932   8.391  18.685 -0.1861 -0.0035 -0.4128
 6219W        W 7083  21.146  20.868   9.362 -0.1109 -0.1244 -0.1584
 6220W        W 7084  24.017  20.047  28.071  0.1108 -0.0072 -0.1058
 6221W        W 7085  13.947  14.034  15.303  0.1443  0.1816  0.2789
 6222W        W 7086  21.517  21.498   7.230 -0.0338  0.2589 -0.0014
 6223W        W 7087   8.096  16.344   0.224 -0.0407  0.5541 -0.2290
 6224W        W 7088  12.962   8.098  21.698 -0.0921 -0.0116  0.1297
 6225W        W 7089  21.851   4.975  10.832 -0.2501 -0.1368 -0.2483
 6226W        W 7090  24.772   3.906  28.204  0.0885  0.1407  0.0463
 6227W        W 7091  28.441  10.488   0.947  0.0261 -0.0318  0.0494
 6228W        W 7092  21.389  20.216   5.949  0.1558  0.1784  0.2061
 6229W        W 7093   0.371   5.053  13.891 -0.0490  0.0544  0.0391
 6230W        W 7094   2.562  23.428  26.896 -0.0441  0.0366  0.1208
 6231W        W 7095  13.225   7.739   6.615 -0.1920 -0.0298  0.0978
 6232W        W 7096  16.010  18.016   2.532  0.0761  0.0365  0.1295
 6233W        W 7097   4.316   5.260  18.858 -0.0771  0.0261 -0.1187
 6234W        W 7098  17.679   1.157   2.228  0.0654 -0.0548  0.1406
 6235W        W 7099  17.251  28.472   2.819  0.1715 -0.0716 -0.0756
 6236W        W 7100  26.099   6.334   3.495  0.3687 -0.1651  0.2361
 6237W        W 7101  11.847  20.862  15.447 -0.1067  0.0691  0.0580
 6238W        W 7102   3.681  25.754   4.573  0.2280  0.3274  0.0743
 6239W        W 7103  12.776   6.133  12.159  0.0833 -0.1896  0.1653
 6240W        W 7104  11.194  12.129  14.022 -0.2727  0.0973 -0.2141
 6241W        W 7105   8.940   9.343  19.224 -0.1740 -0.0188 -0.0906
 6242W        W 7106  23.324   8.024  16.107  0.0049  0.1805 -0.3486
 6243W        W 7107   8.192   9.951  20.228 -0.0296 -0.1761 -0.0474
 6244W        W 7108  10.353  23.954  20.265  0.0405 -0.2536 -0.2784
 6245W        W 7109   6.278   8.917   1.284  0.3089 -0.3691 -0.2895
 6246W        W 7110  22.690  14.418  13.732  0.0545 -0.0759  0.1716
 6247W        W 7111   5.040   9.871   7.919 -0.1442 -0.0003  0.2879
 6248W        W 7112  10.376   0.699   1.649  0.1439  0.0969  0.0550
 6249W        W 7113  11.063  18.399  11.924 -0.1329  0.1008  0.2461
 6250W        W 7114  15.288  17.955   2.711 -0.0879 -0.3089  0.3272
 6251W        W 7115  28.948   4.960   7.840  0.1102 -0.0943  0.1295
 6252W        W 7116  13.414  23.177  21.970 -0.1882 -0.3569 -0.0994
 6253W        W 7117  12.645  29.018   7.725  0.1200  0.0166  0.1476
 6254W        W 7118  15.166   6.291  16.381 -0.1005  0.0347  0.0221
 6255W        W 7119   7.748  20.281   7.534  0.2580 -0.1673  0.1120
 6256W        W 7120   5.493   6.622  10.548 -0.1186 -0.2925 -0.1644
 6257W        W 7121  22.648  12.927   9.721  0.2243 -0.0945  0.1046
 6258W        W 7122   1.023  12.233  17.354  0.2673 -0.2417  0.0115
 6259W        W 7123  26.367  12.069  19.442  0.0128 -0.0670 -0.1141
 6260W        W 7124  12.814  24.525  25.778  0.0794  0.0889 -0.2014
 6261W        W 7125   6.072  24.093   8.414 -0.3473 -0.2013 -0.0990
 6262W        W 7126  21.859  15.711   4.039  0.1555 -0.2445 -0.2249
 6263W        W 7127  20.175  14.984  12.532 -0.0266 -0.0121 -0.1376
 6264W        W 7128  20.675   6.121  27.854  0.3659  0.2779  0.0833
 6265W        W 7129  19.008   0.906   5.705 -0.2410 -0.0658  0.0392
 6266W        W 7130   8.644  10.734  14.350 -0.2115 -0.2271 -0.2629
 6267W        W 7131  16.275  10.118   6.796  0.0235 -0.2052  0.0793
 6268W        W 7132  15.299  21.916   9.118  0.0534  0.1473 -0.0235
 6269W        W 7133  11.931  10.774  29.058 -0.3008  0.3008 -0.3976
 6270W        W 7134  24.329   2.392  14.119  0.2257 -0.2081 -0.0979
 6271W        W 7135   2.735  27.422   3.867  0.1841  0.0328 -0.2553
 6272W        W 7136  13.806  11.319  26.379  0.1245 -0.1458  0.0923
 6273W        W 7137   8.306  22.514   0.767 -0.0041  0.0933  0.3516
 6274W        W 7138  17.061  26.645   4.224 -0.2867 -0.0768  0.0053
 6275W        W 7139   9.058  14.375  27.056 -0.0037  0.0995 -0.0895
 6276W        W 7140  21.653  17.180  13.595 -0.0072 -0.0375 -0.1381
 6277W        W 7141  16.132  17.568   9.403  0.0836  0.1264  0.1647
 6278W        W 7142   1.659  26.317  16.690  0.1387  0.0421  0.0886
 6279W        W 7143  29.094  29.142   1.668  0.0549 -0.1653  0.0540
 6280W        W 7144  22.214   6.987  20.307  0.3784 -0.0636 -0.1882
 6281W        W 7145  23.219  10.699  17.471 -0.3879 -0.2118  0.2561
 6282W        W 7146  23.227   3.688  10.758  0.0345  0.0584  0.2109
 6283W        W 7147   5.033   9.702  16.741  0.3266 -0.0287  0.1535
 6284W        W 7148  16.667   0.216   0.427  0.0149  0.2911  0.0325
 6285W        W 7149  11.137  19.255  22.852  0.1302  0.3322 -0.2051
 6286W        W 7150  25.798   5.012  14.897 -0.0432  0.1050  0.0815
 6287W        W 7151  27.906   6.953  24.839  0.3941 -0.2349 -0.1823
 6288W        W 7152  20.601   3.189   1.423  0.0017  0.0075 -0.1135
 6289W        W 7153  14.009  19.774   5.259 -0.2670 -0.0539  0.0296
 6290W        W 7154   0.120  21.045  23.196 -0.1470  0.1013 -0.0233
 6291W        W 7155  15.570   5.425   1.141  0.1547 -0.3239 -0.1692
 6292W        W 7156  13.207  11.432  14.581  0.1436  0.2648  0.1731
 6293W        W 7157  19.727  11.777  11.161 -0.2128  0.3318  0.1009
 6294W        W 7158  11.675   4.766  22.453 -0.3261 -0.0814 -0.0630
 6295W        W 7159  21.142  22.716   6.552 -0.0199  0.1997 -0.1785
 6296W        W 7160  22.462  17.593   6.626  0.2936  0.1571 -0.0618
 6297W        W 7161  15.103   2.839   6.736  0.1348 -0.3240 -0.2808
 6298W        W 7162   3.860  28.807  26.625 -0.0069 -0.0650  0.2475
 6299W        W 7163  22.412  23.945   1.307 -0.0821 -0.2686 -0.0584
 6300W        W 7164   5.834  14.663   4.388 -0.0834 -0.0177 -0.0198
 6301W        W 7165   2.572   5.765  24.389 -0.0821  0.1611  0.0617
 6302W        W 7166  13.030  12.159   3.274  0.1315 -0.2883  0.2439
 6303W        W 7167  16.334  17.056   8.528  0.0546  0.0789  0.1457
 6304W        W 7168  10.490  21.018  18.338  0.2536  0.0108  0.1400
 6305W        W 7169   6.686   6.165   4.210  0.2207 -0.0527  0.2538
 6306W        W 7170  16.761   0.892   5.943  0.3606  0.3121  0.0374
 6307W        W 7171  12.163  13.964  10.172  0.1225  0.0749  0.2277
 6308W        W 7172   5.197  28.829   4.103  0.1144  0.1019 -0.2935
 6309W        W 7173   8.724   6.374  25.590 -0.0719  0.0930  0.0465
 6310W        W 7174  11.384  26.884   5.799 -0.2329  0.0233  0.2188
 6311W        W 7175  23.765  10.451   2.612 -0.1782  0.1515  0.1975
 6312W        W 7176   0.695   4.923  15.895 -0.0184  0.0224 -0.3675
 6313W        W 7177  21.965   1.696  22.453 -0.0796 -0.2692 -0.0755
 6314W        W 7178   7.495  10.531  26.417 -0.2091 -0.1038 -0.0492
 6315W        W 7179  14.952  27.568   0.551  0.2697 -0.2061  0.2947
 6316W        W 7180  19.077  27.403   0.086  0.2225  0.0403 -0.2503
 6317W        W 7181  11.088   4.655   8.666 -0.1807  0.1404  0.3278
 6318W        W 7182  17.253  22.525  19.693  0.1688  0.0350 -0.3527
 6319W        W 7183  10.603  11.702   7.543 -0.1600  0.3850 -0.2298
 6320W        W 7184  20.020  23.790  27.219 -0.2998  0.1963  0.1794
 6321W        W 7185  16.424  21.127  27.300 -0.0410  0.2287 -0.1564
 6322W        W 7186  22.259  28.848   3.050  0.0434 -0.4737 -0.0811
 6323W        W 7187   9.603  26.810   6.217  0.0959 -0.0162 -0.0568
 6324W        W 7188  24.945  23.186   3.288 -0.1116 -0.0722  0.3669
 6325W        W 7189  21.774  10.992  12.963  0.1059 -0.2466  0.0800
 6326W        W 7190  13.100  25.024   0.586 -0.0327 -0.2695 -0.0867
 6327W        W 7191   3.814  17.852  12.200  0.1255 -0.0012  0.0540
 6328W        W 7192   9.587  12.754   4.671  0.2299  0.1769  0.1505
 6329W        W 7193  29.012   3.683   7.275 -0.0730 -0.4933 -0.4057
 6330W        W 7194   1.913   0.222   2.923 -0.2336  0.4485  0.1188
 6331W        W 7195  11.614  28.194   9.656  0.3839 -0.1152  0.0119
 6332W        W 7196   3.042  29.116  28.881  0.2461 -0.0487  0.0208
 6333W        W 7197  19.726   9.433  18.849  0.1815 -0.3049 -0.3227
 6334W        W 7198   5.830   8.671  20.072 -0.1795  0.0777  0.0472
 6335W        W 7199  19.372   7.230  19.601 -0.0387  0.0314 -0.0074
 6336W        W 7200  21.455  10.032  19.842  0.1655 -0.1368 -0.2366
 6337W        W 7201   1.200  15.083  16.839 -0.1548  0.0853  0.0377
 6338W        W 7202  16.860   4.952  28.151  0.0481 -0.0083  0.0004
 6339W        W 7203  17.467  24.508  10.929  0.0491  0.2182 -0.1389
 6340W        W 7204  26.733  26.537  27.984 -0.1185 -0.0699 -0.0739
 6341W        W 7205  27.284  24.245   8.711  0.0178 -0.0627  0.1754
 6342W        W 7206  21.149   1.895   6.579 -0.2618  0.3675  0.1242
 6343W        W 7207   9.524  28.240   8.804  0.0345 -0.0596 -0.0736
 6344W        W 7208  21.492   8.506   0.073  0.0650  0.1053 -0.3058
 6345W        W 7209  11.485  10.235   3.227 -0.0265  0.2474 -0.0734
 6346W        W 7210  15.179  12.602  28.832  0.0840  0.3289 -0.0866
 6347W        W 7211  21.298  10.933  12.069 -0.1080 -0.1727 -0.1083
 6348W        W 7212  26.742   4.655   3.532  0.1454  0.2747 -0.3236
 6349W        W 7213  18.862   7.760   3.357 -0.0522  0.0160  0.1497
 6350W        W 7214  22.720  14.302   2.629 -0.0190 -0.0888  0.4242
 6351W        W 7215  13.010   7.016  26.342  0.0854 -0.1775  0.1717
 6352W        W 7216   8.177  20.024  14.755  0.0701 -0.3274  0.5181
 6353W        W 7217  11.952  23.041  15.336 -0.0284  0.2451 -0.0418
 6354W        W 7218  23.297   4.256   6.823  0.0052  0.0243 -0.0213
 6355W        W 7219  24.969  16.299  16.915  0.0543  0.1694 -0.0265
 6356W        W 7220   5.117  13.101   8.206  0.0166 -0.0308 -0.0145
 6357W        W 7221  18.695   7.036   9.066  0.0981 -0.0649 -0.0254
 6358W        W 7222  12.460  27.303  20.195  0.0724 -0.0288  0.0043
 6359W        W 7223  23.656   2.156   2.174 -0.3678 -0.1464  0.1205
 6360W        W 7224  17.659  23.273  12.788 -0.2967  0.0449 -0.1156
 6361W        W 7225  10.233  11.642  11.177 -0.2523  0.2268  0.1725
 6362W        W 7226  28.145  10.941  11.019 -0.0713  0.1232 -0.0076
 6363W        W 7227  14.857  22.946   0.285  0.0979  0.0184  0.3099
 6364W        W 7228  27.352   9.032  17.826  0.3088 -0.0314  0.0725
 6365W        W 7229   1.407   1.910   3.685 -0.1677  0.0933 -0.2024
 6366W        W 7230  12.288  17.931   5.312 -0.0295 -0.1355 -0.3874
 6367W        W 7231  17.596   5.403  27.476 -0.0858 -0.0168  0.0982
 6368W        W 7232  17.292   5.663   7.411 -0.2637 -0.3886 -0.0468
 6369W        W 7233  13.044  20.396   0.300  0.3702  0.0469  0.2983
 6370W        W 7234  19.179  24.361   4.234  0.1801 -0.2727 -0.0174
 6371W        W 7235  14.872   8.547  24.438 -0.0244 -0.1237  0.0863
 6372W        W 7236   9.973  12.209  20.081  0.4786  0.2841  0.1701
 6373W        W 7237  20.603  23.210   4.581  0.1060  0.0057  0.0223
 6374W        W 7238   1.193   7.376  13.463 -0.3738  0.3264 -0.0357
 6375W        W 7239   2.144  20.861   0.853 -0.1325 -0.3819 -0.0248
 6376W        W 7240  18.855   6.843   7.906 -0.1985 -0.4152 -0.0632
 6377W        W 7241  22.452   5.317  27.729 -0.0245 -0.1142  0.1484
 6378W        W 7242  21.353   8.873  21.826 -0.2449  0.0929  0.1009
 6379W        W 7243  18.353   8.863  24.293 -0.0753 -0.1897  0.2530
 6380W        W 7244  26.695   8.945   8.173  0.2730  0.0822 -0.4646
 6381W        W 7245  17.243   5.016   1.281  0.0452 -0.3380  0.2380
 6382W        W 7246   7.068  11.733  28.232  0.1369 -0.3035  0.0946
 6383W        W 7247  20.099  11.445   6.358  0.3107  0.0223 -0.1287
 6384W        W 7248  11.792  18.014  18.513 -0.0154 -0.0671 -0.1998
 6385W        W 7249  17.250  20.791  12.984 -0.0976  0.0056  0.3396
 6386W        W 7250  23.067  18.766  28.777 -0.0129  0.2197  0.1085
 6387W        W 7251  13.606  15.370  27.778 -0.1013 -0.0859  0.2471
 6388W        W 7252  24.460  25.048  20.206  0.1332  0.0864 -0.0277
 6389W        W 7253  16.816  17.132  23.846 -0.1058  0.1876 -0.0504
 6390W        W 7254  15.089  11.734   6.960 -0.3231 -0.1334  0.1795
 6391W        W 7255  15.481  18.581   5.580 -0.2402  0.2144  0.0477
 6392W        W 7256  12.797   7.006  26.919 -0.1089 -0.0408  0.0731
 6393W        W 7257  27.595   5.430  15.020 -0.2838 -0.1076 -0.0546
 6394W        W 7258  24.093  19.675  19.658  0.0827  0.3633 -0.1671
 6395W        W 7259   5.902  12.727  24.114 -0.0939  0.1866  0.1452
 6396W        W 7260   0.751  17.689   1.367 -0.0743 -0.2967 -0.0796
 6397W        W 7261  19.886  11.460  21.550 -0.2151  0.0039  0.0131
 6398W        W 7262  24.984   0.956   5.947  0.0841 -0.0311 -0.0236
 6399W        W 7263  10.399  21.585   3.196 -0.2834 -0.0216  0.0520
 6400W        W 7264   3.919  20.253   5.905  0.2257 -0.1626 -0.1497
 6401W        W 7265  15.881  19.447  12.413 -0.1379 -0.0433 -0.3381
 6402W        W 7266  21.496  10.929   1.539 -0.0349 -0.3155 -0.2526
 6403W        W 7267   8.225  18.430  10.558  0.0433 -0.2305 -0.3335
 6404W        W 7268  19.107  15.680  20.267 -0.1255 -0.0388  0.1295
 6405W        W 7269  14.672  28.817  12.420  0.2207 -0.2281 -0.0044
 6406W        W 7270   3.751   1.895   5.825 -0.2407  0.1396 -0.2198
 6407W        W 7271  15.871   9.800  16.316 -0.1716  0.0192  0.0454
 6408W        W 7272  22.282  26.752  28.166 -0.1488 -0.0030  0.1642
 6409W        W 7273   9.020   6.002  22.021 -0.1438  0.1789 -0.3202
 6410W        W 7274   9.328  14.650  21.949 -0.0879 -0.1092  0.1900
 6411W        W 7275  26.479  27.093  19.786 -0.1534 -0.1452 -0.1834
 6412W        W 7276  25.606   1.221   8.053 -0.0888  0.0989 -0.0226
 6413W        W 7277  17.526   5.885  22.197  0.2764 -0.0972  0.0659
 6414W        W 7278  20.591  28.621  15.134  0.2613  0.0129 -0.2137
 6415W        W 7279  11.625   2.040  20.400 -0.1956 -0.2884  0.2579
 6416W        W 7280   3.657   4.175   1.697 -0.0617  0.2154 -0.1229
 6417W        W 7281   5.435  20.211  15.716 -0.0218  0.0332 -0.1585
 6418W        W 7282   8.282   8.645   2.421  0.1341 -0.5180  0.3031
 6419W        W 7283  27.626   8.877   8.127  0.1812 -0.0680 -0.0425
 6420W        W 7284  25.811  10.458  28.781 -0.0010  0.0840 -0.1540
 6421W        W 7285   9.632  28.243   4.218  0.0370 -0.1356  0.1875
 6422W        W 7286  25.829   9.450  16.510 -0.0380  0.3365  0.1932
 6423W        W 7287  11.118   7.213  16.574  0.0910  0.2048 -0.3310
 6424W        W 7288   9.209   8.894   6.949 -0.0817 -0.0858 -0.0510
 6425W        W 7289  23.000  13.997  15.415 -0.1081 -0.0365 -0.1718
 6426W        W 7290   9.089  27.624   7.995 -0.0665  0.1197 -0.2200
 6427W        W 7291  11.215  17.969   4.870 -0.1396 -0.2879 -0.0316
 6428W        W 7292  25.916  15.091  12.345  0.0722 -0.3336  0.0837
 6429W        W 7293   6.164  14.723   2.612  0.0977  0.1812  0.0856
 6430W        W 7294  26.078  22.019  11.155 -0.1413  0.1888 -0.0444
 6431W        W 7295  27.432  18.684  13.094  0.1272 -0.0271  0.1092
 6432W        W 7296  17.986   2.438   6.864  0.1021  0.3443  0.0772
 6433W        W 7297  25.164   3.711   6.434 -0.3158  0.0730  0.4014
 6434W        W 7298  20.247   1.579   7.558  0.0233  0.0378 -0.1786
 6435W        W 7299  20.698  16.581  11.238  0.2381 -0.2242 -0.0432
 6436W        W 7300  17.221  18.820   0.120  0.1850 -0.0838 -0.0144
 6437W        W 7301  25.682  23.367  22.046 -0.0262  0.6025  0.2428
 6438W        W 7302   0.417   6.431   5.378 -0.0485 -0.0119  0.1995
 6439W        W 7303   2.567  25.432   1.252 -0.2698  0.0477 -0.0493
 6440W        W 7304   8.869  25.670   4.359  0.0431 -0.1530 -0.0534
 6441W        W 7305  22.456  16.378  28.156 -0.0947  0.1815  0.0832
 6442W        W 7306  14.736   5.343  13.666 -0.1573 -0.1459  0.2591
 6443W        W 7307  27.739  26.183   8.814  0.2280 -0.2173 -0.0759
 6444W        W 7308  27.683  13.022  11.031 -0.2513  0.5048  0.2797
 6445W        W 7309  21.057   4.503   2.483  0.0954  0.2474  0.4319
 6446W        W 7310  27.105  16.589   4.440  0.1662 -0.1284 -0.4896
 6447W        W 7311  21.379   1.961   0.471 -0.0006  0.1144  0.2593
 6448W        W 7312  12.398   1.910  16.866 -0.0568 -0.0706 -0.0684
 6449W        W 7313  23.372  22.760  24.919 -0.0322  0.1524 -0.0016
 6450W        W 7314  16.573   1.071   4.729 -0.3604 -0.0953  0.0548
 6451W        W 7315  18.962   7.442   6.780  0.1764  0.2899 -0.2793
 6452W        W 7316  17.046  17.435  10.489 -0.1123  0.1469  0.1091
 6453W        W 7317  16.206   8.807   6.543 -0.1511  0.0643  0.0550
 6454W        W 7318  12.818  10.739  18.695  0.0994 -0.2916  0.0230
 6455W        W 7319  16.699  13.355  16.939  0.0275  0.0546 -0.2996
 6456W        W 7320  12.908   0.551   5.586 -0.1036  0.0196  0.1233
 6457W        W 7321  13.870   8.741  12.589  0.1609 -0.3577  0.0773
 6458W        W 7322  19.746  22.820  14.175  0.1636  0.1497  0.2327
 6459W        W 7323   2.425  21.566  17.044 -0.1346  0.0546  0.1147
 6460W        W 7324  26.387  21.875  24.612 -0.2569  0.0774  0.0582
 6461W        W 7325  19.195   6.641  10.503  0.0880 -0.1942 -0.1225
 6462W        W 7326   3.490  23.692  19.695  0.0064 -0.0197  0.0618
 6463W        W 7327  14.271  28.422   0.519 -0.1066 -0.0465  0.1250
 6464W        W 7328  22.155  27.715  15.406  0.2893 -0.0160  0.2052
 6465W        W 7329  27.099  15.190   3.020 -0.0168 -0.2046  0.2230
 6466W        W 7330  14.110   8.291  14.998 -0.3332  0.3460 -0.2796
 6467W        W 7331  21.896   0.886   5.190 -0.0210 -0.0620  0.0852
 6468W        W 7332  10.241   9.978   4.685  0.1483  0.0106  0.0119
 6469W        W 7333   0.134   0.802   4.860 -0.0526 -0.1652 -0.1333
 6470W        W 7334   9.532  20.874  24.447 -0.2884  0.2700  0.1215
 6471W        W 7335   6.941   9.335  21.855  0.0818  0.4133 -0.2948
 6472W        W 7336  22.263  26.485   8.498  0.0074  0.0938  0.0058
 6473W        W 7337   5.685   6.892   4.416  0.1603 -0.1228  0.1214
 6474W        W 7338  15.632  27.046  24.801 -0.2379  0.2744 -0.0295
 6475W        W 7339  25.154  13.923  27.892  0.2262 -0.1013  0.3357
 6476W        W 7340  26.059  10.157   9.937 -0.0262 -0.1665 -0.1433
 6477W        W 7341  22.897   6.753   8.838  0.0835  0.3203  0.1879
 6478W        W 7342   5.138  28.125   4.693  0.0512 -0.2167 -0.0549
 6479W        W 7343  21.112  27.998  20.072 -0.3104  0.0819  0.0512
 6480W        W 7344  27.887  29.044   9.900 -0.0042  0.1344  0.0458
 6481W        W 7345  16.717   9.640  20.806 -0.0406 -0.2002 -0.0577
 6482W        W 7346  19.031  23.595   2.417 -0.2302 -0.0024  0.1623
 6483W        W 7347   6.771  16.853  25.321  0.1124 -0.0074  0.1781
 6484W        W 7348   7.834  17.051   1.497  0.1337 -0.0034 -0.4566
 6485W        W 7349   1.160  19.446   8.375 -0.0059  0.0421 -0.1356
 6486W        W 7350  17.199  17.028  16.544  0.2962  0.2716  0.2047
 6487W        W 7351  24.343  10.461  26.326  0.3238 -0.2565 -0.0694
 6488W        W 7352   9.833  25.779   2.065  0.0874 -0.0667 -0.2716
 6489W        W 7353  19.787  10.932   1.329 -0.1500  0.3687  0.0717
 6490W        W 7354   9.062   7.274  10.627 -0.0463  0.1511  0.1614
 6491W        W 7355  11.703  26.167  12.174 -0.0047  0.0389  0.1042
 6492W        W 7356  16.571   5.431  25.611  0.0085 -0.0164 -0.0561
 6493W        W 7357  17.051   1.657   1.827 -0.1475  0.0140 -0.3606
 6494W        W 7358  27.619  13.193  27.860  0.1117 -0.0949  0.1091
 6495W        W 7359  20.103   5.878   4.626  0.3421  0.3352 -0.0601
 6496W        W 7360   2.471   2.266   4.610 -0.0235  0.0245  0.1824
 6497W        W 7361  13.900   9.091  15.759 -0.0896  0.2031  0.3098
 6498W        W 7362  28.270   3.653  25.154  0.0992  0.0520 -0.0274
 6499W        W 7363  28.067  25.920   0.005  0.1853 -0.2064  0.1961
 6500W        W 7364  17.610  11.253  21.573  0.1390  0.0458 -0.0813
 6501W        W 7365  21.313  16.512   3.980 -0.0655 -0.0851 -0.1356
 6502W        W 7366   4.570   2.239  12.498 -0.0216  0.1944 -0.2065
 6503W        W 7367  27.069  11.619  12.271 -0.1727 -0.4267  0.1242
 6504W        W 7368   0.940  22.402   5.305 -0.2134 -0.1592  0.4664
 6505W        W 7369  16.294   4.137   6.352  0.0578 -0.1814  0.0636
 6506W        W 7370   2.383  25.887  10.802 -0.1426  0.0059 -0.1284
 6507W        W 7371  19.430  21.591  25.066 -0.0826 -0.1650 -0.2690
 6508W        W 7372  17.421  25.063   9.390 -0.2267 -0.2349  0.1168
 6509W        W 7373  16.988  23.903   7.997  0.1868 -0.0851 -0.0268
 6510W        W 7374  13.936  24.588  10.477  0.2587  0.3206  0.2485
 6511W        W 7375   0.964   9.562  12.102 -0.0515 -0.3212 -0.3726
 6512W        W 7376  26.917  16.773   6.971 -0.1860  0.0024  0.1100
 6513W        W 7377  17.261  25.054  13.838  0.0600  0.0180  0.0135
 6514W        W 7378  14.590  24.119  20.649 -0.4367 -0.2267  0.0454
 6515W        W 7379  27.082   4.177  12.616 -0.0590  0.3417  0.0752
 6516W        W 7380  24.088  24.935  11.301  0.4466  0.1434 -0.0288
 6517W        W 7381  19.478  26.736  18.596 -0.3441 -0.0355  0.0568
 6518W        W 7382  15.140   1.368  12.115 -0.0508 -0.1378  0.0212
 6519W        W 7383  26.864  13.223   8.033  0.0747 -0.1400 -0.0939
 6520W        W 7384  18.268  13.335  17.772 -0.3925 -0.0560 -0.0164
 6521W        W 7385  18.741  28.770  24.459  0.0883 -0.1540 -0.0178
 6522W        W 7386   4.954  26.993  14.889  0.2557  0.0991  0.0321
 6523W        W 7387  24.994  25.559   5.888  0.2294  0.1502  0.0829
 6524W        W 7388   0.636  13.901   3.193 -0.1578  0.1054 -0.0673
 6525W        W 7389   3.607  23.740  18.450  0.4218  0.0121 -0.2889
 6526W        W 7390  23.796   9.384  14.334  0.2864  0.2039 -0.0372
 6527W        W 7391   0.069  15.723   1.561 -0.2518 -0.0495 -0.0216
 6528W        W 7392   9.208  23.247  11.801 -0.1281 -0.4178 -0.4233
 6529W        W 7393   5.982   8.145   6.899 -0.0051  0.1516  0.3865
 6530W        W 7394  14.088  11.526   4.351  0.0738 -0.2855  0.1409
 6531W        W 7395   0.485  25.660   8.882 -0.1011  0.1594  0.2202
 6532W        W 7396  12.194   9.074  12.300  0.0362  0.1563  0.1739
 6533W        W 7397  13.293  25.178  11.169  0.1922 -0.2677  0.2148
 6534W        W 7398  23.905   5.470  20.718 -0.0159  0.0422 -0.2225
 6535W        W 7399  15.647  23.010   8.914 -0.1637 -0.0457 -0.0185
 6536W        W 7400   1.338   6.048   1.634  0.1327  0.3274  0.1728
 6537W        W 7401  20.344   1.772  22.245 -0.0951  0.2757  0.2178
 6538W        W 7402   5.543  10.667  16.484 -0.0250  0.1136 -0.0023
 6539W        W 7403   7.678  15.721  16.333 -0.0485 -0.2880 -0.2005
 6540W        W 7404  21.382  12.408  12.638  0.5463 -0.0233  0.0503
 6541W        W 7405  14.093   8.728  26.782  0.0610  0.0073 -0.3130
 6542W        W 7406  28.357  26.911   6.781  0.0887  0.2211 -0.3039
 6543W        W 7407  24.429  22.274  12.704 -0.1204 -0.1884 -0.0001
 6544W        W 7408  16.250  18.141  17.091 -0.0284 -0.2261  0.2657
 6545W        W 7409  17.309   2.910   1.620  0.0388  0.0483  0.0642
 6546W        W 7410   6.579  14.682  18.331 -0.0132 -0.1377  0.0716
 6547W        W 7411  19.120  18.969   2.500 -0.0256 -0.0308 -0.0859
 6548W        W 7412  24.103   5.429  12.384  0.3379  0.0482 -0.1666
 6549W        W 7413  26.708   9.010  13.699  0.3725 -0.2672 -0.3512
 6550W        W 7414  18.415  20.334   1.772  0.1044 -0.0995  0.2570
 6551W        W 7415  26.090  21.704   3.382  0.1751 -0.0158  0.2618
 6552W        W 7416  17.562   2.853  28.117 -0.0298  0.2007 -0.0502
 6553W        W 7417  14.788  26.432  20.723 -0.1431  0.0102  0.2404
 6554W        W 7418  16.930   9.056   4.107  0.0807 -0.0662  0.3686
 6555W        W 7419  19.012  12.333   9.995  0.2089 -0.1054 -0.1297
 6556W        W 7420  24.668  27.946   1.439 -0.1981 -0.2598  0.1938
 6557W        W 7421  23.384   6.620  10.110 -0.1167 -0.0728  0.3089
 6558W        W 7422  21.521   6.585   0.350  0.0560  0.2654  0.1170
 6559W        W 7423  22.120  12.378  25.121 -0.1583 -0.0011  0.0615
 6560W        W 7424  19.112   6.981  21.483 -0.0106 -0.2699 -0.0931
 6561W        W 7425  27.237   5.588   5.290  0.2088 -0.0004  0.3968
 6562W        W 7426   9.144  15.387  18.452 -0.0284  0.3146 -0.0480
 6563W        W 7427  22.282  11.968  10.252  0.1886 -0.1834 -0.0152
 6564W        W 7428  28.678  17.550  12.514 -0.1111  0.1696  0.0876
 6565W        W 7429  22.822   2.143  26.339  0.0376 -0.0697  0.2781
 6566W        W 7430  27.128   6.444   4.282 -0.2087  0.0579 -0.3229
 6567W        W 7431  27.737  15.878   8.057 -0.3555 -0.0286 -0.2843
 6568W        W 7432  21.031   0.362  22.898 -0.3666 -0.2434 -0.0228
 6569W        W 7433   8.695  17.710  16.460 -0.3135 -0.0702 -0.0379
 6570W        W 7434   8.904  19.391  17.477  0.1503 -0.1691 -0.3068
 6571W        W 7435  11.247  14.791   5.816  0.0166 -0.0341  0.1341
 6572W        W 7436   5.474   6.040  19.169 -0.1666  0.1032 -0.3965
 6573W        W 7437  12.861   3.029  12.837  0.1420 -0.1514 -0.1314
 6574W        W 7438  24.884  19.640  13.142 -0.1443 -0.3463 -0.1267
 6575W        W 7439  16.783  16.571  13.396 -0.0381 -0.2561 -0.0193
 6576W        W 7440  20.290  21.010   5.963  0.2373  0.0604  0.0617
 6577W        W 7441  21.989   1.731  17.219 -0.0971  0.2320  0.2150
 6578W        W 7442  12.075  27.590  12.724 -0.1279  0.0192  0.2397
 6579W        W 7443  21.452  17.779  22.291 -0.1703  0.0302  0.2739
 6580W        W 7444  11.777   8.008  18.597  0.1413 -0.0597 -0.0532
 6581W        W 7445   7.432  11.594   4.823  0.0411  0.3264  0.2322
 6582W        W 7446  20.699  18.516   6.431 -0.1054  0.4460  0.0584
 6583W        W 7447  16.923  23.895   0.354  0.0218 -0.0721  0.4039
 6584W        W 7448   1.169  18.516  27.974  0.0334 -0.0614  0.1063
 6585W        W 7449  20.753  11.772   3.905  0.0513 -0.0482  0.1971
 6586W        W 7450  17.120   7.371  19.527  0.1530  0.2051 -0.0493
 6587W        W 7451  14.421   9.132   8.378 -0.2288 -0.1672 -0.0370
 6588W        W 7452  18.675   7.885   7.957  0.0633  0.0444 -0.4044
 6589W        W 7453  16.499   1.234  10.454  0.0727  0.1140 -0.2148
 6590W        W 7454  13.708   3.449  27.950 -0.1522 -0.1540  0.1165
 6591W        W 7455  27.766   7.945  16.924  0.0634 -0.0281  0.0616
 6592W        W 7456  17.504   4.068   8.156 -0.2593 -0.0864 -0.1990
 6593W        W 7457  16.050  20.429  11.297  0.0384 -0.2072  0.0127
 6594W        W 7458  18.053   2.811   1.597  0.0746 -0.1563  0.1283
 6595W        W 7459  27.227   1.834  11.663  0.1471  0.0639  0.0403
 6596W        W 7460  18.344   6.804  21.467 -0.0916  0.1129  0.1068
 6597W        W 7461   0.060   3.716   1.504 -0.1870  0.0133  0.0848
 6598W        W 7462  18.684  19.695  18.797  0.2400 -0.3365  0.0613
 6599W        W 7463  23.471  12.270   2.824  0.1762 -0.6302 -0.1796
 6600W        W 7464  17.175   7.667  12.577  0.0441  0.0920  0.2578
 6601W        W 7465   1.398  14.192  18.482 -0.0974  0.1970 -0.0614
 6602W        W 7466  16.370  22.311  12.679  0.2717 -0.0118  0.3544
 6603W        W 7467  24.669  11.666  10.067  0.1933 -0.0116 -0.0022
 6604W        W 7468  21.040   1.790  10.744  0.1042  0.2118 -0.0717
 6605W        W 7469  14.797   8.039   4.996 -0.1385  0.0600  0.0938
 6606W        W 7470  19.874   9.356   4.991  0.0765 -0.1370 -0.1410
 6607W        W 7471  13.853  19.307  24.302 -0.0486  0.2207  0.1301
 6608W        W 7472  29.122  20.625   1.044  0.1697  0.0049  0.1026
 6609W        W 7473   0.569  21.100  25.818 -0.1681 -0.0148 -0.3038
 6610W        W 7474   4.890  23.002   6.624 -0.0372 -0.1192 -0.7361
 6611W        W 7475   7.055  28.475  26.594  0.1436 -0.0520 -0.1417
 6612W        W 7476   8.784  13.545   7.238 -0.0243 -0.2280  0.1930
 6613W        W 7477   6.672  18.293   0.779  0.2163 -0.0630  0.0980
 6614W        W 7478  18.477   4.558  23.322 -0.0290 -0.0968  0.1850
 6615W        W 7479  25.056  22.417   4.157 -0.1910  0.1751  0.2057
 6616W        W 7480  23.510  18.793   8.754 -0.1272  0.0130  0.0467
 6617W        W 7481  23.479  20.728   0.744 -0.1105 -0.2937  0.1254
 6618W        W 7482  18.040  10.949  12.514 -0.3726  0.0124  0.1486
 6619W        W 7483  10.674  26.113   3.449  0.3974  0.3438  0.1483
 6620W        W 7484  13.135   9.236   1.046 -0.1394  0.1349  0.2182
 6621W        W 7485  22.470   6.754  25.262  0.1325 -0.0113  0.0619
 6622W        W 7486  26.538   6.073   7.410 -0.2967  0.0929 -0.4394
 6623W        W 7487   8.011  17.659  26.806 -0.3575 -0.2100  0.2778
 6624W        W 7488  11.841  15.485  15.589 -0.1770 -0.2436  0.1755
 6625W        W 7489  15.821  11.940  27.144  0.0413  0.0494 -0.1240
 6626W        W 7490  18.932  14.729  12.594 -0.0048 -0.0291  0.0714
 6627W        W 7491  22.831  22.093   7.360 -0.0870  0.1387  0.3030
 6628W        W 7492  11.096   4.793   5.406 -0.3884 -0.3320 -0.0417
 6629W        W 7493  18.835  13.512  10.041 -0.2286  0.0033  0.0824
 6630W        W 7494  23.632   8.689  13.205  0.0957 -0.3851  0.3153
 6631W        W 7495   6.451  20.278  28.481  0.4372 -0.1719  0.0568
 6632W        W 7496  29.087  26.647   9.048 -0.0876 -0.2805  0.1158
 6633W        W 7497  16.496  16.257   2.118  0.1813 -0.1036 -0.1614
 6634W        W 7498  28.122  12.474  27.355  0.1683 -0.0046 -0.1287
 6635W        W 7499  14.214  19.741  17.422 -0.0939 -0.3497  0.1760
 6636W        W 7500   3.252   2.724   9.603  0.3177  0.3262  0.1748
 6637W        W 7501  24.842  10.615  23.344  0.1437  0.1288  0.1621
 6638W        W 7502  17.841  21.142  10.802  0.0602  0.2244  0.0326
 6639W        W 7503  12.284  10.093   5.800 -0.0530 -0.1121 -0.2953
 6640W        W 7504  14.246   2.937   3.819 -0.3264  0.2050 -0.2502
 6641W        W 7505  11.391  15.740  11.903 -0.1435 -0.2010  0.1870
 6642W        W 7506   3.941  21.369  28.250 -0.0638  0.0360  0.1007
 6643W        W 7507   0.488  27.581   7.440 -0.1063 -0.1583  0.1044
 6644W        W 7508  27.568  25.950   3.424 -0.1262  0.1763  0.1872
 6645W        W 7509  11.343   5.439  12.209 -0.2844 -0.1779  0.0295
 6646W        W 7510  11.778   1.825  27.825 -0.1891  0.1422 -0.3635
 6647W        W 7511  20.664  25.404   9.258  0.2387  0.0516  0.0994
 6648W        W 7512  26.148  18.886  25.813  0.0449  0.0026 -0.1452
 6649W        W 7513  27.962  27.711  27.960  0.1740  0.1707  0.0955
 6650W        W 7514  18.541  24.418   7.239 -0.2522 -0.2545 -0.4121
 6651W        W 7515  10.114  13.866  18.480  0.2859 -0.1420  0.1951
 6652W        W 7516  17.079  11.155  18.018 -0.4784  0.0821 -0.0290
 6653W        W 7517  10.215  11.414   9.914  0.1842  0.0706  0.1760
 6654W        W 7518  22.058  27.012  11.733  0.2328  0.2079 -0.0581
 6655W        W 7519   5.231   8.943  11.377 -0.0061  0.0608  0.0357
 6656W        W 7520  20.335  18.349  16.226 -0.1240 -0.1252  0.0171
 6657W        W 7521   2.757  21.746  19.683 -0.0307 -0.1579  0.0282
 6658W        W 7522  13.550  19.052  25.488  0.3238 -0.0555  0.0476
 6659W        W 7523  13.092   7.826  10.523 -0.0270 -0.0219  0.1559
 6660W        W 7524  10.780   6.042  28.531 -0.0914 -0.0155 -0.1724
 6661W        W 7525  19.380   0.007   8.881 -0.1173  0.0043  0.0804
 6662W        W 7526   5.953   7.480  14.413 -0.1493 -0.0770 -0.0920
 6663W        W 7527   3.606  26.214  27.725  0.1009  0.0291  0.3021
 6664W        W 7528  15.939  11.347  20.755 -0.0263 -0.0249  0.0024
 6665W        W 7529  24.568   6.392   3.993 -0.1392  0.2181  0.3039
 6666W        W 7530   7.056   7.094  11.766 -0.0448 -0.1313 -0.0906
 6667W        W 7531  28.516  23.607  15.558  0.0959 -0.3031 -0.3059
 6668W        W 7532   1.056  24.559  15.220  0.1489 -0.2216  0.5841
 6669W        W 7533  17.693  24.330  20.960 -0.0211  0.0229  0.0052
 6670W        W 7534   1.326  18.883  22.960 -0.2083 -0.1940 -0.1930
 6671W        W 7535  27.390  10.238  17.295 -0.1998  0.0575 -0.0574
 6672W        W 7536  21.984  23.842  16.139  0.1550 -0.1912  0.1373
 6673W        W 7537   6.433  26.997   9.591  0.0469 -0.0711 -0.2448
 6674W        W 7538  11.319   3.278  11.258 -0.2556 -0.0607 -0.0917
 6675W        W 7539  21.444  21.843  19.670  0.0290 -0.1712 -0.2706
 6676W        W 7540  28.838   6.512  15.653 -0.3582 -0.3641 -0.3837
 6677W        W 7541  26.543   8.925  28.277  0.1679 -0.1076 -0.0768
 6678W        W 7542   7.414   8.365  13.674  0.1035 -0.1520 -0.1436
 6679W        W 7543  19.419  24.155   7.009 -0.0876  0.0847 -0.1138
 6680W        W 7544   8.807  17.576  10.399 -0.2808 -0.2141 -0.3001
 6681W        W 7545  19.472  19.598   6.831  0.2397 -0.2880  0.0372
 6682W        W 7546   8.917  24.405  15.743  0.1542 -0.2351 -0.1648
 6683W        W 7547  27.227   6.714  11.210 -0.0019  0.2129 -0.1384
 6684W        W 7548   6.458  18.183  15.590 -0.0141  0.0124  0.1667
 6685W        W 7549  20.251   4.600   0.381  0.4889 -0.1520 -0.1933
 6686W        W 7550   0.837   1.402   4.243  0.3233 -0.2411  0.1610
 6687W        W 7551   4.096   0.137  13.922  0.1969  0.0146  0.1606
 6688W        W 7552  21.481   8.121  26.561 -0.1498 -0.1262 -0.0646
 6689W        W 7553  22.926   2.351  19.255 -0.2212  0.1750  0.2963
 6690W        W 7554   5.154  27.506  27.315 -0.2086 -0.2542  0.3638
 6691W        W 7555   4.496  22.412   6.031  0.1897 -0.0014 -0.1296
 6692W        W 7556  17.998  28.545  22.164 -0.2731  0.0712  0.1540
 6693W        W 7557  19.521  27.154  26.671  0.0400  0.2810  0.2569
 6694W        W 7558  18.330   0.465  10.394 -0.0210  0.0609  0.0689
 6695W        W 7559  14.350  26.918  28.702  0.0717  0.1209  0.0719
 6696W        W 7560   8.888   2.894   5.343 -0.2311  0.0407 -0.2113
 6697W        W 7561  22.354  15.284   0.688 -0.4405  0.0855 -0.0779
 6698W        W 7562   5.882  27.760  11.084  0.0767 -0.0229 -0.2560
 6699W        W 7563  15.767   6.310  22.642 -0.1862 -0.0917 -0.1379
 6700W        W 7564  21.244   3.255   3.907 -0.0337 -0.1054  0.3272
 6701W        W 7565   0.274  11.218  27.081  0.2015  0.2195  0.1437
 6702W        W 7566  28.441   4.874   7.391 -0.0817 -0.1374 -0.0310
 6703W        W 7567  18.465   5.294   7.747 -0.0967  0.0496 -0.0586
 6704W        W 7568  17.938   7.293  10.380 -0.1704  0.1164 -0.1123
 6705W        W 7569  16.011  14.878  16.366 -0.1778  0.2458  0.4255
 6706W        W 7570  25.845   3.151  18.282  0.0474 -0.0743  0.2668
 6707W        W 7571  16.659   5.929  10.345 -0.0100  0.2057 -0.0439
 6708W        W 7572  15.080   9.978   7.027 -0.2734  0.0100 -0.0358
 6709W        W 7573  17.658   7.423   0.141 -0.0046  0.2621  0.3457
 6710W        W 7574  10.262   2.432  16.106 -0.0997  0.2229 -0.2741
 6711W        W 7575  24.547   3.686   6.411  0.1065  0.0011  0.1479
 6712W        W 7576   1.604   6.864  25.623  0.2733  0.1541  0.2877
 6713W        W 7577  17.986  15.330   7.393 -0.1654 -0.1762 -0.0306
 6714W        W 7578  26.896  28.407  10.007  0.0921 -0.1255 -0.2138
 6715W        W 7579  16.167   4.797  20.891  0.1834  0.1251 -0.1154
 6716W        W 7580  14.433   0.345  17.531 -0.0601  0.1157  0.2625
 6717W        W 7581   4.188  26.441  19.294  0.0084  0.6158 -0.1090
 6718W        W 7582  20.890  12.867  14.176  0.2622 -0.4042 -0.0560
 6719W        W 7583   8.123   5.716  21.010  0.1000  0.1073 -0.0138
 6720W        W 7584  16.073  19.157  14.907 -0.0993 -0.0017  0.0421
 6721W        W 7585  23.020  26.864  18.089  0.0240 -0.0149 -0.0899
 6722W        W 7586   2.546  13.379  12.760 -0.2432 -0.0454 -0.3736
 6723W        W 7587  26.240   8.694   3.302  0.0813  0.1611  0.0037
 6724W        W 7588  13.719  19.715   0.677 -0.0951 -0.0860 -0.1471
 6725W        W 7589  24.175  23.393  25.470 -0.1189 -0.0078  0.1467
 6726W        W 7590   5.871   7.762  22.313 -0.0158  0.2466  0.1756
 6727W        W 7591  24.690  28.771  22.242  0.1169 -0.0634  0.1093
 6728W        W 7592   8.636  11.509  18.411  0.1961  0.0430 -0.1017
 6729W        W 7593  16.262  11.294   2.698 -0.3104  0.0650  0.1395
 6730W        W 7594  17.471   9.198   4.255 -0.3979 -0.2507 -0.0183
 6731W        W 7595  12.775   1.879  11.840 -0.2410  0.1432  0.1525
 6732W        W 7596  13.037  17.615   8.186  0.1967  0.2088 -0.0232
 6733W        W 7597  16.124  27.265   5.131  0.2666 -0.0149  0.1837
 6734W        W 7598  26.102   8.919   2.846 -0.0037 -0.0240 -0.0616
 6735W        W 7599   8.368   9.499  11.498 -0.0950 -0.0602 -0.2366
 6736W        W 7600   7.540   8.651   8.148  0.1208 -0.2475 -0.2178
 6737W        W 7601  13.971  16.178  24.362 -0.1926  0.0303 -0.1918
 6738W        W 7602  26.063   0.597  22.999 -0.1309 -0.0108 -0.3324
 6739W        W 7603  22.785   3.346  12.225  0.2223 -0.0848 -0.2551
 6740W        W 7604  28.919   3.540  13.891 -0.0468 -0.0610  0.0887
 6741W        W 7605   7.438  15.334  16.069 -0.1312 -0.1220 -0.0590
 6742W        W 7606  25.885  13.445  12.267 -0.1759  0.1223 -0.1435
 6743W        W 7607  27.091   9.847   7.086 -0.0530 -0.1086 -0.1763
 6744W        W 7608  21.033  21.740   2.417 -0.0232 -0.2864  0.1310
 6745W        W 7609  20.379   4.653   8.285  0.1227 -0.1360 -0.2396
 6746W        W 7610  20.184   3.961  21.509 -0.3155 -0.0093 -0.1887
 6747W        W 7611   4.172  24.070   9.375  0.3036 -0.1966 -0.0410
 6748W        W 7612   9.213  12.963   3.179  0.0384  0.0462  0.4975
 6749W        W 7613  18.232  19.438   6.516  0.1692 -0.4354 -0.0031
 6750W        W 7614  23.098  24.672   5.047 -0.0223  0.1725  0.0920
 6751W        W 7615  26.708   9.934  11.889 -0.6073 -0.0825  0.0754
 6752W        W 7616  28.799  24.271  10.217 -0.0581 -0.2762  0.0332
 6753W        W 7617  12.217   7.207   7.200  0.2603  0.2060  0.1350
 6754W        W 7618  24.135  24.120  19.615  0.1461  0.0145  0.1945
 6755W        W 7619  11.663  19.685  11.726 -0.0063 -0.3103 -0.5752
 6756W        W 7620  28.569  17.507   3.071 -0.1697 -0.0091  0.1521
 6757W        W 7621  20.956  26.866   2.886 -0.0932 -0.0861  0.0223
 6758W        W 7622  17.359  16.718   2.663 -0.2044 -0.1302  0.1016
 6759W        W 7623   4.851   3.533   5.873  0.3074 -0.1014  0.0775
 6760W        W 7624  10.951   5.405  21.919 -0.2941  0.0317  0.2713
 6761W        W 7625  22.958   8.721  17.754 -0.0264  0.1684  0.1005
 6762W        W 7626  14.337  11.927  13.194  0.0633  0.2948 -0.2230
 6763W        W 7627  28.445   9.169  27.207 -0.2920 -0.1410 -0.1430
 6764W        W 7628  13.968  11.351  14.796 -0.0937 -0.0486 -0.1761
 6765W        W 7629  17.737   3.918   6.422 -0.0254  0.2792 -0.0094
 6766W        W 7630   0.559  25.454   4.648 -0.2030  0.0969  0.1284
 6767W        W 7631   5.653  15.730  18.707 -0.0921  0.0118  0.2519
 6768W        W 7632  25.697   8.409  10.889 -0.1800  0.1506 -0.1397
 6769W        W 7633   2.566   9.029  25.739 -0.1734 -0.0385 -0.0111
 6770W        W 7634  23.179   4.809  12.222  0.3674 -0.1491  0.0434
 6771W        W 7635  25.805  16.551  23.661 -0.0588 -0.1623 -0.1804
 6772W        W 7636  10.343  13.145   7.553 -0.0513 -0.0206 -0.1758
 6773W        W 7637  22.845  28.493  12.598  0.0451 -0.5046  0.4220
 6774W        W 7638  28.789  21.374   0.416  0.0860  0.0810  0.0438
 6775W        W 7639  18.817  27.988  25.674  0.0444 -0.0585  0.0896
 6776W        W 7640  12.129  12.833   9.248 -0.1132  0.0869  0.0360
 6777W        W 7641   5.423   4.066  18.565 -0.0736  0.2010  0.0074
 6778W        W 7642  23.846  27.769  20.116 -0.0121  0.1050  0.2383
 6779W        W 7643   5.754  19.497  24.849 -0.1363  0.0784  0.0418
 6780W        W 7644   4.974  14.595  17.822  0.3659 -0.0878  0.0011
 6781W        W 7645   5.044  21.748  26.413 -0.0431  0.1842 -0.1803
 6782W        W 7646   8.829   3.339  21.438 -0.0819  0.3210 -0.0543
 6783W        W 7647  14.067  12.391  13.747  0.2274 -0.0649 -0.0887
 6784W        W 7648   9.714  25.942  12.504  0.1686  0.0477 -0.2165
 6785W        W 7649  14.311  12.629   9.670  0.1564  0.0304  0.0862
 6786W        W 7650   4.836  17.441   5.135 -0.0799 -0.0015  0.0600
 6787W        W 7651  13.760   6.632   2.219  0.4165  0.4703  0.1720
 6788W        W 7652  19.251  24.524  26.645 -0.1013  0.0047 -0.0898
 6789W        W 7653  21.597  23.512  12.502 -0.0912  0.1273  0.0137
 6790W        W 7654  17.409  10.724   1.576  0.0656 -0.2705  0.0326
 6791W        W 7655   9.027   6.093  27.518  0.1811 -0.0427  0.2004
 6792W        W 7656  20.585  29.027  17.322 -0.2216 -0.3285 -0.0414
 6793W        W 7657  13.695  19.763  12.725 -0.0436 -0.0746  0.0121
 6794W        W 7658  13.846   4.550   6.874  0.1286  0.1751 -0.1577
 6795W        W 7659  12.727  26.981  12.361  0.0972  0.0870 -0.0628
 6796W        W 7660  18.292  28.954  25.018  0.2054  0.0265  0.0200
 6797W        W 7661   3.388  14.755  27.315  0.0736 -0.0332  0.1536
 6798W        W 7662   0.357   4.165   9.413  0.1737 -0.0525 -0.1305
 6799W        W 7663  15.827   9.978  11.739  0.2571 -0.1913  0.3676
 6800W        W 7664   1.739  22.333  24.528  0.2361  0.1409  0.0233
 6801W        W 7665  28.641  15.864  16.568 -0.1403 -0.2103 -0.1356
 6802W        W 7666   7.709   6.904  14.124 -0.3081  0.2924 -0.3123
 6803W        W 7667   0.148   2.582   3.764 -0.0044  0.0677 -0.1399
 6804W        W 7668  22.743  27.117   3.912  0.1732  0.0284  0.1886
 6805W        W 7669  12.390   0.680   5.518  0.0567 -0.1168 -0.3492
 6806W        W 7670  17.330   8.207   0.461 -0.0364 -0.2316  0.0975
 6807W        W 7671   8.012  12.032  20.055  0.0154  0.6175 -0.0459
 6808W        W 7672   6.694   7.411  15.887  0.0473  0.1200 -0.1197
 6809W        W 7673  17.465  25.244  11.893 -0.1632  0.3367 -0.0921
 6810W        W 7674  21.801  13.712  26.331  0.2013  0.0578  0.0519
 6811W        W 7675  17.783   3.589   2.179 -0.0511  0.2613 -0.0982
 6812W        W 7676   8.274  28.731  14.744 -0.0283 -0.0247  0.0197
 6813W        W 7677   8.843  19.460  19.956 -0.1242  0.0834  0.1107
 6814W        W 7678   7.969  14.183  26.659 -0.2117  0.1744  0.2402
 6815W        W 7679  15.690   5.663  15.044 -0.2915 -0.1295 -0.1990
 6816W        W 7680  22.576  28.696   3.811 -0.0808 -0.2205 -0.3557
 6817W        W 7681  17.818  14.038  27.019  0.0272 -0.2699 -0.1323
 6818W        W 7682   6.604  22.836   2.039  0.3384  0.2458 -0.1117
 6819W        W 7683   9.655  24.479  22.292 -0.0811 -0.1224  0.2627
 6820W        W 7684  18.510   6.026   2.077 -0.2011 -0.0206  0.0997
 6821W        W 7685  13.831  18.386   4.052 -0.2577  0.0939 -0.0301
 6822W        W 7686  16.703   8.881  14.328 -0.0258  0.0703  0.1292
 6823W        W 7687  13.492   8.290  13.253 -0.1386 -0.2438  0.1573
 6824W        W 7688   4.767  15.829   5.521  0.0187 -0.1054  0.1725
 6825W        W 7689   1.824   3.024  11.210  0.0782 -0.0606 -0.0519
 6826W        W 7690   2.747   4.808  27.348  0.0019  0.0978  0.2619
 6827W        W 7691  17.861  13.674   5.828 -0.1129  0.1586  0.1051
 6828W        W 7692  15.084   2.246  12.734  0.0458 -0.3820 -0.0123
 6829W        W 7693   9.007   3.932   1.346 -0.0326 -0.3034  0.0551
 6830W        W 7694  10.916  25.485   6.416 -0.1156  0.0157 -0.0063
 6831W        W 7695   3.802   5.515  14.608  0.0917 -0.2167 -0.1583
 6832W        W 7696  14.467   2.400  15.006 -0.2268 -0.0797 -0.2833
 6833W        W 7697  10.603   3.182  11.895  0.1572  0.1738 -0.0925
 6834W        W 7698  22.774  11.700  11.489 -0.0049 -0.3228 -0.0501
 6835W        W 7699  11.896  13.080  16.494 -0.1977  0.1275  0.0161
 6836W        W 7700  16.949  20.448   2.258  0.1364 -0.1323 -0.1536
 6837W        W 7701  22.045   6.619   6.813 -0.2580 -0.0813  0.1146
 6838W        W 7702  13.630  11.366   2.444  0.0608  0.0824  0.0647
 6839W        W 7703   2.856  16.051   5.579  0.0609 -0.0324  0.0187
 6840W        W 7704  28.551   4.130   6.623 -0.1896  0.1695 -0.1555
 6841W        W 7705  16.977   6.170  23.740 -0.2039 -0.0102 -0.0916
 6842W        W 7706   4.255  11.534   0.706  0.2537  0.1157 -0.6345
 6843W        W 7707  11.724  27.534  16.447  0.0646  0.1523  0.0217
 6844W        W 7708  27.128   3.456  25.089 -0.2412 -0.4179 -0.4450
 6845W        W 7709   8.017   6.177  11.704 -0.2066  0.1167 -0.0689
 6846W        W 7710  17.266  28.562  10.903  0.1641 -0.4100 -0.0883
 6847W        W 7711  17.287  22.658   7.816 -0.0088  0.2502 -0.1697
 6848W        W 7712  15.381  16.554  10.347  0.1148 -0.1499 -0.0139
 6849W        W 7713  15.778  16.239   6.902  0.2134 -0.1698 -0.0885
 6850W        W 7714  14.856  11.500   0.745 -0.1809  0.3136 -0.1616
 6851W        W 7715   3.506  16.506   9.831  0.0533  0.1407  0.0382
 6852W        W 7716   7.690  10.321   4.071 -0.1394  0.0882  0.0897
 6853W        W 7717  21.369  18.819   9.748 -0.1370 -0.1380 -0.0243
 6854W        W 7718  10.462  23.986  18.064 -0.0309 -0.0328  0.0322
 6855W        W 7719   8.709  19.205   9.907  0.0452 -0.1312  0.1640
 6856W        W 7720   7.700   9.313  20.485  0.0616  0.1128  0.1881
 6857W        W 7721   7.024   0.009  15.694  0.0485  0.0163  0.0671
 6858W        W 7722  16.269  14.779  24.933 -0.2460 -0.1335  0.1686
 6859W        W 7723  20.816   0.174  28.107  0.0518 -0.1465  0.0007
 6860W        W 7724  28.209  27.683   2.610  0.0301  0.3541 -0.4488
 6861W        W 7725  14.393  17.011  13.097 -0.0748  0.0922  0.1171
 6862W        W 7726  10.491  19.582   1.895 -0.0319  0.2585 -0.4186
 6863W        W 7727   1.123  19.245  12.188 -0.1486  0.0527 -0.2162
 6864W        W 7728  15.383  23.142   0.191  0.0118 -0.0940 -0.0532
 6865W        W 7729  18.974   8.505  22.524  0.2349  0.0671 -0.0133
 6866W        W 7730  21.076   5.804  12.956  0.4141 -0.0289 -0.1873
 6867W        W 7731  17.239   5.705   4.502  0.3436  0.0975 -0.1471
 6868W        W 7732  19.603   9.136  25.890  0.0503 -0.1485  0.0421
 6869W        W 7733  11.700   8.288  10.553  0.1750 -0.3322  0.3820
 6870W        W 7734  12.931   4.093   8.670  0.0440  0.1151  0.1819
 6871W        W 7735  28.401   3.548   6.975 -0.0167  0.0079  0.3019
 6872W        W 7736  16.837   2.365  14.064  0.1902  0.0746 -0.2935
 6873W        W 7737  21.592  11.317  13.848 -0.0328 -0.1261 -0.1075
 6874W        W 7738  26.875   5.693   0.011  0.0429  0.1107 -0.2367
 6875W        W 7739  17.574  11.403  17.738 -0.0674 -0.1836 -0.0064
 6876W        W 7740   9.850  18.625  11.542  0.0996 -0.1055  0.0866
 6877W        W 7741   3.267  22.100   9.670 -0.1282 -0.0140  0.1891
 6878W        W 7742   4.535  13.224  29.031  0.0466 -0.2914 -0.1318
 6879W        W 7743   5.223  10.220  19.529 -0.2598 -0.0936 -0.1001
 6880W        W 7744  13.403   1.034  13.086 -0.0123  0.1346  0.4034
 6881W        W 7745  23.490   6.507   7.292 -0.1192  0.0941 -0.0193
 6882W        W 7746   7.485  21.493  13.601  0.1800 -0.5595 -0.0842
 6883W        W 7747  12.747  14.890  24.155 -0.0303 -0.1252 -0.2283
 6884W        W 7748   0.518  11.855  25.476 -0.0427 -0.0554 -0.0603
 6885W        W 7749  11.236  14.084   0.887 -0.3950  0.1769 -0.1734
 6886W        W 7750   0.667  22.517  10.709  0.2779 -0.1629 -0.1741
 6887W        W 7751   4.343   2.716  18.939 -0.2215 -0.0905  0.1623
 6888W        W 7752  18.642  25.081  18.474  0.1171  0.1041 -0.0010
 6889W        W 7753   0.099  28.837  21.014 -0.1059  0.2499 -0.2950
 6890W        W 7754  14.758  10.625  15.138  0.2674  0.0552  0.1778
 6891W        W 7755   7.307  16.451   5.054 -0.0726 -0.1894 -0.1866
 6892W        W 7756   6.906  19.530  16.739 -0.1701 -0.0477  0.2022
 6893W        W 7757  16.649  22.288  11.440 -0.0325  0.0703  0.1385
 6894W        W 7758  16.503  28.920   4.578  0.1188 -0.0580  0.2663
 6895W        W 7759  20.775   5.910  10.687  0.0086  0.1924  0.4035
 6896W        W 7760   9.785  28.251  17.206  0.0257 -0.0154 -0.0213
 6897W        W 7761   0.145  20.109   7.392 -0.1226  0.3096 -0.0844
 6898W        W 7762   7.612  14.478  12.459 -0.1394  0.1795  0.0838
 6899W        W 7763   9.863   1.234  19.976 -0.1602  0.1346 -0.1406
 6900W        W 7764   6.612   2.147   6.948 -0.0330  0.0055  0.2898
 6901W        W 7765  13.906  22.419   8.934  0.0595  0.0727 -0.2216
 6902W        W 7766  28.456  27.113  28.086 -0.0358 -0.1552 -0.0932
 6903W        W 7767  15.949   3.133   1.618 -0.4142 -0.0724  0.0032
 6904W        W 7768  18.569   3.199  21.789  0.3335 -0.0314 -0.1926
 6905W        W 7769  17.306   0.585   9.454  0.1172  0.0488  0.0461
 6906W        W 7770  18.489  23.538  18.880 -0.0081  0.1290 -0.3415
 6907W        W 7771   2.887   7.987  18.772  0.0904  0.3672  0.0319
 6908W        W 7772   3.745  27.424  13.817  0.0511 -0.0648 -0.2644
 6909W        W 7773  15.878  11.626  23.994  0.3031 -0.2782  0.4830
 6910W        W 7774   6.399  27.597  16.206 -0.1921  0.0350 -0.0200
 6911W        W 7775  10.831   6.171  19.596 -0.0436  0.0801 -0.0055
 6912W        W 7776  26.587  23.259  11.123 -0.0659  0.0614 -0.3944
 6913W        W 7777  21.440  10.604   3.648 -0.2053  0.1325  0.0347
 6914W        W 7778  11.816   7.966   8.475 -0.0180 -0.2382 -0.0056
 6915W        W 7779   6.924   6.569  28.676  0.0031  0.1481 -0.0695
 6916W        W 7780   5.303  11.063   4.108 -0.1146  0.2232  0.0332
 6917W        W 7781  19.404   8.161  16.995  0.0499  0.0609  0.0419
 6918W        W 7782  12.942   1.410  10.326  0.0666 -0.1645  0.0502
 6919W        W 7783   0.726   1.987  27.782 -0.1215 -0.1165 -0.0391
 6920W        W 7784  14.634   0.806  23.420  0.0621  0.2532 -0.0387
 6921W        W 7785   9.611  11.914  16.571 -0.1012 -0.2566 -0.1687
 6922W        W 7786  19.942   2.093   2.072  0.0832 -0.1509  0.4280
 6923W        W 7787  20.776  15.841  14.497 -0.3239 -0.0178  0.0904
 6924W        W 7788   1.436  19.422   3.826 -0.1161  0.1102  0.2410
 6925W        W 7789  23.705  28.351  16.430 -0.1370 -0.2549  0.0532
 6926W        W 7790  28.819  10.565  25.466  0.2737  0.2645  0.5078
 6927W        W 7791   0.081   7.355  26.479  0.2014 -0.1752  0.2977
 6928W        W 7792  13.069  25.617   3.926  0.1549  0.1128 -0.2864
 6929W        W 7793  13.479  16.019  11.009  0.2400 -0.3567 -0.0034
 6930W        W 7794   8.305   8.477  16.233 -0.1322  0.0430  0.1122
 6931W        W 7795  19.194   0.921   7.449 -0.0372 -0.0897  0.1752
 6932W        W 7796  23.435   9.347   7.560 -0.2520 -0.1029 -0.1096
 6933W        W 7797  21.483  20.951  10.676  0.0001 -0.2191 -0.2136
 6934W        W 7798  25.229   4.168  19.216  0.1927 -0.1084  0.0483
 6935W        W 7799  26.682  22.769   5.755 -0.1424  0.0753  0.1515
 6936W        W 7800   0.024  16.634   7.721  0.0815 -0.4063 -0.2880
 6937W        W 7801  18.987  10.099  28.541  0.0150 -0.1344 -0.2540
 6938W        W 7802   9.631   8.443   3.978 -0.0096 -0.2487  0.0036
 6939W        W 7803  28.227   1.302  22.308  0.1281 -0.0555  0.3278
 6940W        W 7804  23.917   2.438  20.975  0.0871  0.0843 -0.2570
 6941W        W 7805   8.936  20.921  26.573 -0.1177  0.2957  0.2081
 6942W        W 7806  16.076  20.151  12.372 -0.3472 -0.1068  0.1853
 6943W        W 7807  19.334  11.210   2.431 -0.0202 -0.2118 -0.1528
 6944W        W 7808  18.654  18.521   0.856 -0.0605  0.1268 -0.1695
 6945W        W 7809  18.322  22.311  28.258  0.0798  0.0941  0.2445
 6946W        W 7810   8.170  10.860  15.396  0.0926  0.0461  0.0390
 6947W        W 7811  19.240   4.555  18.912  0.1659  0.0435 -0.1184
 6948W        W 7812  23.605  10.273   7.950 -0.2248 -0.3296 -0.2745
 6949W        W 7813   7.151  10.964  24.877  0.0251 -0.3081 -0.1627
 6950W        W 7814  13.447  11.755  22.518 -0.0039 -0.3055 -0.2849
 6951W        W 7815  15.654  19.955  10.703  0.1675 -0.1678  0.3599
 6952W        W 7816  27.573   1.930  23.601  0.0422  0.1984  0.0218
 6953W        W 7817   5.380  24.322   1.333  0.2798  0.0320  0.0329
 6954W        W 7818  13.427  26.413  15.947 -0.0984 -0.1140 -0.0377
 6955W        W 7819   1.650   1.874   8.632  0.1627 -0.0270  0.3241
 6956W        W 7820   9.059  24.601  13.579  0.0339  0.3307 -0.1699
 6957W        W 7821   3.208  17.146  24.753  0.0822  0.1377  0.0066
 6958W        W 7822  13.022   7.857  14.998  0.0055 -0.0068 -0.2309
 6959W        W 7823   4.907  16.285   5.575  0.2264  0.0985 -0.1479
 6960W        W 7824  26.434  10.597   3.714 -0.2258  0.3011  0.0310
 6961W        W 7825   4.879   0.128  11.666  0.0968  0.0628  0.0745
 6962W        W 7826   7.371  19.703  13.721  0.1450 -0.1987  0.1626
 6963W        W 7827  21.245  27.633  26.284  0.0797  0.0935 -0.1144
 6964W        W 7828  14.314   7.208  14.978  0.0469  0.0495  0.3564
 6965W        W 7829  27.746  24.283  20.192  0.3285 -0.0312 -0.2104
 6966W        W 7830  10.180   7.591   0.329  0.1533 -0.1632 -0.2007
 6967W        W 7831   5.373  12.598   2.688  0.4829 -0.3024  0.0898
 6968W        W 7832   3.663  25.089   5.855  0.0984 -0.2228 -0.1225
 6969W        W 7833   3.817   6.931   8.330 -0.1317  0.0337 -0.2295
 6970W        W 7834   2.631  14.845  20.873  0.1902 -0.1030 -0.2490
 6971W        W 7835  16.045  16.582  14.076 -0.1238 -0.1130 -0.1091
 6972W        W 7836  10.637   0.549  16.291  0.2586 -0.0007  0.0874
 6973W        W 7837   7.628  10.990   7.210  0.0855 -0.1539  0.1257
 6974W        W 7838   2.936   3.597  13.208  0.2110 -0.0713 -0.1157
 6975W        W 7839  15.987  19.893   2.528  0.1663  0.2407 -0.1037
 6976W        W 7840  19.974  13.897  25.227  0.0832 -0.4659 -0.1799
 6977W        W 7841  23.869  17.462   1.744 -0.0757  0.0444  0.0401
 6978W        W 7842   3.535  12.789   7.584 -0.0619  0.1940 -0.1650
 6979W        W 7843  15.322   4.222  14.397  0.0753  0.0435 -0.2946
 6980W        W 7844  10.103   3.778  23.850  0.0800 -0.2726 -0.0216
 6981W        W 7845  15.664  18.073  18.569 -0.3119  0.0079 -0.1124
 6982W        W 7846  17.475  11.306  15.683  0.2231  0.0663  0.0025
 6983W        W 7847   7.684  19.769  20.289 -0.1756 -0.4695  0.0001
 6984W        W 7848  26.794  18.128   1.438  0.2003  0.2560  0.0417
 6985W        W 7849   8.231  26.827   7.824  0.3319 -0.1490 -0.0574
 6986W        W 7850  12.994  24.948  12.221  0.2675  0.2610 -0.0283
 6987W        W 7851  26.242   7.327  11.872  0.0588 -0.2896  0.1291
 6988W        W 7852  16.744   7.679  19.502 -0.2337 -0.2865 -0.1401
 6989W        W 7853  18.901  12.102  14.549 -0.1511 -0.1119  0.0316
 6990W        W 7854  14.982   3.304   5.427 -0.6270 -0.2577  0.0029
 6991W        W 7855  22.743  22.348  16.010  0.2493 -0.2043 -0.0594
 6992W        W 7856  10.738   9.027   0.642 -0.1835 -0.0380  0.1591
 6993W        W 7857  12.684  16.787  20.617 -0.1939  0.0918 -0.0636
 6994W        W 7858  19.662  26.972  21.717  0.0117  0.2706  0.0109
 6995W        W 7859  16.348  24.362  16.376 -0.0080  0.1116  0.0817
 6996W        W 7860  21.928  12.633   7.397  0.2261 -0.1537 -0.2070
 6997W        W 7861  14.009  26.780   8.687  0.0891  0.3024  0.0977
 6998W        W 7862  22.754   5.479  14.393 -0.0272 -0.2827  0.1050
 6999W        W 7863  28.051  11.194  10.518  0.0060 -0.0216 -0.1203
 7000W        W 7864  15.008  20.450  28.584  0.1982 -0.1384 -0.1065
 7001W        W 7865   7.786   0.814   3.256 -0.1921 -0.0695 -0.1521
 7002W        W 7866   7.880  17.358  21.679  0.0465 -0.2227 -0.1295
 7003W        W 7867   2.843  29.129   1.511  0.2145  0.0319  0.0604
 7004W        W 7868  21.229   4.472  21.479  0.1076  0.2164 -0.1818
 7005W        W 7869  11.138   2.104   0.257 -0.0536 -0.0906  0.0199
 7006W        W 7870   8.638   2.964  12.200  0.1156 -0.1956 -0.0726
 7007W        W 7871   8.482   4.746  17.998  0.0560  0.1546  0.0943
 7008W        W 7872  25.415   4.267  10.044 -0.2081 -0.1187  0.0459
 7009W        W 7873  17.023  17.395  24.773  0.1427 -0.1053  0.1502
 7010W        W 7874   5.696  24.003   8.049  0.0678  0.3274  0.1394
 7011W        W 7875  23.838   8.788  22.397  0.3638 -0.3598 -0.2145
 7012W        W 7876   8.207  23.599  11.192  0.1825 -0.0301 -0.2367
 7013W        W 7877  17.269  10.762  15.480 -0.2827 -0.0173  0.0293
 7014W        W 7878   8.108  24.646  19.412 -0.0837  0.1876  0.1778
 7015W        W 7879  18.190  20.935   8.992 -0.0598  0.2371  0.1956
 7016W        W 7880  17.226   7.891   3.546 -0.0434  0.0025  0.1500
 7017W        W 7881   7.903  13.912  21.751  0.2487 -0.1984  0.0745
 7018W        W 7882  17.126   2.820  11.263 -0.0746  0.1023 -0.1393
 7019W        W 7883  10.199   3.104  28.716  0.0107 -0.1148 -0.2027
 7020W        W 7884   3.798  24.384  19.082  0.1757 -0.0841 -0.1902
 7021W        W 7885  21.172   8.456   8.791 -0.0915 -0.1584 -0.0959
 7022W        W 7886  15.277   6.408   3.709  0.0876  0.2818  0.2077
 7023W        W 7887  21.871  24.957   5.908 -0.0475 -0.3864  0.1896
 7024W        W 7888  16.050  11.871   9.794 -0.0801 -0.1885  0.0474
 7025W        W 7889  14.902  28.857  18.562  0.4184  0.0471 -0.1288
 7026W        W 7890   6.814   0.847  27.279 -0.1527  0.0500  0.1755
 7027W        W 7891   4.251   2.800   9.911  0.3547  0.0119 -0.1794
 7028W        W 7892  28.113  16.722   7.868  0.0245 -0.0273 -0.1558
 7029W        W 7893  13.739   2.935  28.175 -0.3009 -0.1289  0.0161
 7030W        W 7894  24.417   0.445   5.979  0.2277  0.2414 -0.0936
 7031W        W 7895  15.842   3.221  23.784  0.1117 -0.0780 -0.2554
 7032W        W 7896   2.233  28.769   5.861 -0.4933  0.1056  0.0575
 7033W        W 7897  19.502   9.635  18.462 -0.3138 -0.1772 -0.0232
 7034W        W 7898   5.096   2.170  22.128 -0.0307 -0.1416  0.3884
 7035W        W 7899  20.301   1.370  17.865 -0.1553 -0.1603  0.0643
 7036W        W 7900  14.343  19.501   7.968  0.0751 -0.0664  0.0686
 7037W        W 7901  25.764  22.198   5.544 -0.0856 -0.0133 -0.1375
 7038W        W 7902   7.383  23.191   8.119  0.0273  0.3092 -0.1388
 7039W        W 7903  12.918  15.386   2.348  0.2379 -0.1616 -0.2871
 7040W        W 7904  22.713  28.721  27.380  0.2151 -0.1666  0.3365
 7041W        W 7905   9.487  16.690  13.300 -0.1204 -0.0107 -0.0119
 7042W        W 7906  10.166   3.894  17.984  0.0535 -0.1035  0.1615
 7043W        W 7907  17.590  19.351   6.821  0.2982  0.2108 -0.1360
 7044W        W 7908  23.926  22.997  15.631  0.1090 -0.0063 -0.1096
 7045W        W 7909  23.258   4.454  21.926  0.1237 -0.1575  0.1255
 7046W        W 7910   3.155  10.931   0.457 -0.0646  0.1882  0.6679
 7047W        W 7911  19.502   0.170  10.503 -0.0074 -0.0653 -0.1160
 7048W        W 7912  10.982   9.126  13.265 -0.2470  0.3030  0.1224
 7049W        W 7913  11.460   5.558  13.762  0.5319 -0.1297  0.0748
 7050W        W 7914  19.497   2.845   9.602 -0.1411  0.2988 -0.0141
 7051W        W 7915  23.360  18.328  25.814 -0.0652 -0.0073  0.1251
 7052W        W 7916  18.996   6.068   9.570 -0.1644 -0.1544  0.1738
 7053W        W 7917  22.480  16.162  25.458 -0.0143 -0.0173 -0.3283
 7054W        W 7918   9.134   3.551   5.445 -0.3137 -0.2600  0.4949
 7055W        W 7919  21.650   8.902   1.907  0.3137 -0.0403  0.1079
 7056W        W 7920  11.800   6.816  23.624  0.2813 -0.1662  0.0531
 7057W        W 7921   4.080   0.083   1.305  0.1013 -0.1120  0.0218
 7058W        W 7922  14.368  26.355   7.381 -0.0442  0.0952  0.0228
 7059W        W 7923   2.964  21.691   4.320 -0.1534 -0.0712  0.2318
 7060W        W 7924  15.943  13.647  17.549 -0.0721 -0.1101  0.1703
 7061W        W 7925  15.352  27.733  27.639  0.1384  0.1493  0.0371
 7062W        W 7926  27.036  26.663   9.679  0.0574  0.4573 -0.2141
 7063W        W 7927  22.581  22.140   8.311 -0.3384 -0.1226  0.2070
 7064W        W 7928  20.292  24.996  10.966  0.3164  0.1154 -0.4246
 7065W        W 7929  11.355  24.157  22.806 -0.0726 -0.0407 -0.0823
 7066W        W 7930  16.819  16.060   5.724 -0.1869 -0.1521 -0.0461
 7067W        W 7931  21.358   6.163  10.388 -0.2595 -0.1932  0.0617
 7068W        W 7932   3.144  28.646   9.557  0.3469  0.1056  0.0103
 7069W        W 7933  18.153   9.443  27.025 -0.1351  0.0286 -0.0065
 7070W        W 7934  15.258   6.131  12.940 -0.1077  0.0245  0.1017
 7071W        W 7935   6.954  21.535   2.291  0.4036 -0.0969 -0.2598
 7072W        W 7936  27.067   1.665   5.096  0.2379 -0.1855  0.2975
 7073W        W 7937   8.969  19.508  21.731  0.1295  0.0617 -0.1005
 7074W        W 7938  15.599   6.568  17.109  0.1973 -0.0769  0.2677
 7075W        W 7939   7.911   1.735  18.122 -0.2441 -0.0928 -0.0752
 7076W        W 7940   6.506  15.914  19.025  0.2093  0.2510  0.6298
 7077W        W 7941   8.880   8.327  15.130  0.0825 -0.1855  0.2954
 7078W        W 7942   2.329   9.529  25.520  0.0182 -0.2297 -0.2100
 7079W        W 7943   7.811  11.293  28.500  0.2368 -0.0070 -0.3354
 7080W        W 7944  13.536  15.262   6.305 -0.0043  0.0601  0.3244
 7081W        W 7945  17.950  11.663  17.898  0.2782  0.0476 -0.2777
 7082W        W 7946  12.698  17.522  18.882 -0.2774  0.3434 -0.2128
 7083W        W 7947  12.346  16.866  27.613  0.1785  0.3270 -0.2046
 7084W        W 7948   0.531   8.204   0.108 -0.1756 -0.0326  0.1183
 7085W        W 7949   1.105   6.715  24.763  0.0076  0.0736  0.0974
 7086W        W 7950  17.403  15.828  18.823  0.1489 -0.1627 -0.1679
 7087W        W 7951  13.477  28.278  14.074 -0.1717  0.0982  0.1728
 7088W        W 7952  24.498  28.315  20.769  0.3401 -0.1417 -0.0425
 7089W        W 7953  17.816  28.669  25.572 -0.0503  0.4695  0.1533
 7090W        W 7954   8.002   0.690  25.867  0.0823  0.2711 -0.0379
 7091W        W 7955  25.827  15.001   1.716  0.3069  0.1164 -0.0614
 7092W        W 7956  24.170   6.845  14.112 -0.1894  0.1175  0.3036
 7093W        W 7957  25.103  26.055  20.251  0.0055  0.2511  0.0355
 7094W        W 7958  13.908  12.984  28.768  0.1499  0.0006 -0.1990
 7095W        W 7959  10.461   6.274   7.361  0.1724  0.1839 -0.3528
 7096W        W 7960  15.518   1.032   6.615 -0.2560  0.0661  0.2274
 7097W        W 7961  24.115   2.258  18.019 -0.0702 -0.1020  0.1861
 7098W        W 7962   6.490  24.178   8.644  0.2922 -0.2118 -0.0668
 7099W        W 7963  12.991  23.824  26.298  0.1358  0.0564  0.0222
 7100W        W 7964  14.484   5.226  28.367 -0.1215 -0.0838 -0.1404
 7101W        W 7965   9.176  26.132  10.836  0.0007 -0.0020 -0.1911
 7102W        W 7966  28.652  10.010   0.054  0.0413 -0.0678 -0.0004
 7103W        W 7967  26.524   0.903  10.983  0.2858 -0.1337 -0.1250
 7104W        W 7968  18.614   4.799   7.175  0.0453  0.0105 -0.0338
 7105W        W 7969   9.599  24.169  11.265  0.0976  0.1054  0.2772
 7106W        W 7970  12.808  15.817  17.177 -0.2557 -0.0764  0.0619
 7107W        W 7971  10.981  15.122  15.465 -0.0713  0.0859 -0.1506
 7108W        W 7972  22.975  12.229  12.174 -0.0925  0.2353 -0.1430
 7109W        W 7973  28.430   8.975  10.482 -0.1430  0.2227  0.1818
 7110W        W 7974  14.381  26.440  11.407  0.0275  0.0741  0.0872
 7111W        W 7975   8.836  18.801  16.106 -0.0993  0.0253 -0.0058
 7112W        W 7976  17.472   7.282   1.975  0.0958 -0.3469  0.0688
 7113W        W 7977   5.402  15.905  20.642  0.1598  0.1232 -0.2336
 7114W        W 7978  19.390  20.048  13.621 -0.2692 -0.2422  0.5290
 7115W        W 7979  10.610  25.166  20.807  0.0908  0.4197  0.0333
 7116W        W 7980  28.121  23.062   0.895 -0.1382 -0.1064  0.0488
 7117W        W 7981  28.374  10.491  17.837  0.4962 -0.0052 -0.0501
 7118W        W 7982  27.402  28.425  21.231  0.0610 -0.2568 -0.1904
 7119W        W 7983  24.331  25.499   9.271  0.1526  0.3748 -0.1465
 7120W        W 7984  20.745   1.147  22.210 -0.1481  0.0461  0.0779
 7121W        W 7985  28.280   3.371  18.266 -0.2205  0.1545  0.1152
 7122W        W 7986  20.532  20.718  17.361 -0.1531 -0.1205 -0.0912
 7123W        W 7987  18.135  12.155   8.652  0.0237  0.0420  0.0382
 7124W        W 7988  18.731   3.229   5.657  0.2168 -0.2234 -0.1723
 7125W        W 7989  15.925   6.892  14.100 -0.1629 -0.0162 -0.1819
 7126W        W 7990   0.613   0.156  22.488 -0.1776  0.1335 -0.0649
 7127W        W 7991   4.088  22.005  11.307  0.0560 -0.1507  0.2147
 7128W        W 7992   1.434   0.743   8.175 -0.1368  0.1104  0.1668
 7129W        W 7993  18.787  26.594   5.908  0.2985  0.1395 -0.0016
 7130W        W 7994  15.853  19.887  20.366 -0.0640 -0.0590  0.1812
 7131W        W 7995  18.683  23.337  22.228  0.0783  0.0762 -0.1299
 7132W        W 7996  14.635  22.575  15.201 -0.1203  0.0683  0.0679
 7133W        W 7997  10.742  14.676  21.896 -0.0637  0.1278  0.2794
 7134W        W 7998  11.038   2.635  26.656 -0.0853  0.4486 -0.0107
 7135W        W 7999   9.922  11.883  27.920  0.0401 -0.0216 -0.0358
 7136W        W 8000  12.954  17.019  26.512  0.0024 -0.3113  0.0058
 7137W        W 8001   0.413   5.979   9.855  0.0330  0.2468 -0.0590
 7138W        W 8002  15.392   3.389  14.036  0.2087  0.3089  0.1499
 7139W        W 8003  26.987  17.210   2.137 -0.2646 -0.1707  0.0377
 7140W        W 8004   9.794   3.231  17.101  0.2385 -0.1632 -0.2320
 7141W        W 8005   1.753  13.314   8.575  0.1398 -0.0362  0.0890
 7142W        W 8006  29.075  10.109  16.095  0.0670 -0.1969 -0.2485
 7143W        W 8007  20.787  15.025   5.329 -0.1239 -0.0970  0.0329
 7144W        W 8008   8.497   3.298  25.915 -0.1246  0.2121 -0.2015
 7145W        W 8009  25.989   3.538   7.938  0.3330 -0.0967 -0.2645
 7146W        W 8010  13.815  23.330   6.395  0.0831  0.0667 -0.3261
 7147W        W 8011  28.866  12.746  11.752 -0.1480  0.2279 -0.1771
 7148W        W 8012  15.395   8.963  13.267 -0.0074 -0.1790 -0.0937
 7149W        W 8013  24.022  13.698  27.069 -0.1976 -0.0797  0.1595
 7150W        W 8014  16.337  15.872  22.340 -0.2125 -0.0161  0.5190
 7151W        W 8015   4.983   6.255   9.313 -0.0765  0.1454 -0.0469
 7152W        W 8016  17.617   3.422  23.366 -0.1382  0.0284 -0.3340
 7153W        W 8017   2.147  15.226  19.452 -0.1559 -0.1005 -0.0393
 7154W        W 8018  19.999   7.279   8.372 -0.0638 -0.1534  0.1386
 7155W        W 8019  11.975  28.704  21.594  0.0462  0.4344 -0.0694
 7156W        W 8020  19.456   5.665   0.281 -0.0350  0.3223  0.0763
 7157W        W 8021   8.623   2.663  27.990 -0.2343  0.2953  0.0615
 7158W        W 8022  16.421   7.718   0.648  0.0131  0.3879 -0.1868
 7159W        W 8023  24.462   4.987  11.368  0.3533 -0.0637  0.1764
 7160W        W 8024  11.976   1.116  11.816  0.3681  0.0585  0.0855
 7161W        W 8025  27.020  12.745  11.795 -0.3166 -0.3530  0.0873
 7162W        W 8026  24.306  28.092   9.002  0.1220 -0.0027 -0.0630
 7163W        W 8027  23.934  12.949  12.457  0.3527  0.1535  0.0493
 7164W        W 8028  17.110   0.437  17.978  0.3017  0.0094 -0.2404
 7165W        W 8029  19.772   1.331  26.976  0.0496 -0.0404 -0.2009
 7166W        W 8030  15.969   3.312   2.848 -0.0116 -0.2369  0.0054
 7167W        W 8031   7.315   3.875   2.984  0.0067 -0.0495 -0.0672
 7168W        W 8032  14.501  16.059  28.957 -0.2444 -0.1315 -0.0650
 7169W        W 8033  17.959  16.305  13.790 -0.2344  0.0866 -0.0343
 7170W        W 8034  17.834  22.503   4.797  0.0277 -0.0096 -0.1680
 7171W        W 8035   5.186  16.968  13.018 -0.2891 -0.1210 -0.2160
 7172W        W 8036   4.308  26.367  21.790 -0.0973 -0.1426 -0.1303
 7173W        W 8037   6.618   1.688  16.257  0.1418  0.2511  0.1851
 7174W        W 8038  25.039  24.783  16.706  0.1957 -0.2244  0.0651
 7175W        W 8039  11.038   3.550  17.561 -0.1185  0.2410  0.0329
 7176W        W 8040  12.928  23.074   4.316 -0.1486 -0.1857 -0.0624
 7177W        W 8041  16.092  13.146  15.041 -0.2550  0.0258 -0.3544
 7178W        W 8042  10.915   1.102  21.799 -0.0023 -0.1896 -0.0887
 7179W        W 8043  27.441   0.037  14.099 -0.0231  0.3342  0.1835
 7180W        W 8044   8.310  15.585   6.770 -0.0819 -0.1873 -0.0661
 7181W        W 8045  24.629  27.716  18.514 -0.1481  0.0740 -0.0793
 7182W        W 8046   0.561  25.983  28.260 -0.2555  0.1870 -0.1760
 7183W        W 8047  23.423  25.855  28.103 -0.1243 -0.0364 -0.2270
 7184W        W 8048  26.124   1.145   9.600  0.0773 -0.0519  0.0763
 7185W        W 8049   4.101   6.804   1.084 -0.1220  0.0902 -0.3260
 7186W        W 8050   4.584  13.809  20.882  0.2129 -0.2622  0.0431
 7187W        W 8051   2.310  28.414  10.042 -0.0591  0.0096  0.3043
 7188W        W 8052  27.624   4.758   9.895 -0.3764  0.3787  0.0274
 7189W        W 8053  19.316  24.858   1.133  0.3459  0.2877  0.0455
 7190W        W 8054  20.954  26.857   4.942 -0.1354 -0.1095 -0.0102
 7191W        W 8055  17.636   4.344  23.518 -0.0070  0.1082  0.0782
 7192W        W 8056  16.765   0.566   4.405  0.2621  0.0170 -0.0312
 7193W        W 8057  13.773  12.956   3.529 -0.1070  0.1460 -0.1857
 7194W        W 8058  19.683   3.254   4.993 -0.1079 -0.2079  0.0775
 7195W        W 8059  22.717  24.391  20.370  0.2258 -0.2414  0.1682
 7196W        W 8060  14.846  25.664  14.023  0.0269 -0.2945 -0.0572
 7197W        W 8061  19.963  18.147   8.606 -0.1508  0.1850  0.1873
 7198W        W 8062   8.621  21.496  18.643 -0.2596  0.0292  0.0342
 7199W        W 8063  25.547  11.563   0.447 -0.1445  0.0491  0.1968
 7200W        W 8064  27.246  22.306   2.139 -0.0418  0.3138 -0.1769
 7201W        W 8065   3.807  10.480  12.017 -0.3679 -0.0467 -0.2417
 7202W        W 8066  27.265  22.036  17.252  0.1238 -0.2643  0.2303
 7203W        W 8067   4.068   1.835  25.411 -0.1819  0.2048 -0.1290
 7204W        W 8068   8.892  20.732   5.174  0.1479  0.0752 -0.2216
 7205W        W 8069  12.824   4.383  28.504  0.0637  0.0129  0.0114
 7206W        W 8070  28.741  14.208  17.289 -0.2435 -0.1219 -0.1086
 7207W        W 8071  15.599  14.019   4.742 -0.3159  0.0282  0.0259
 7208W        W 8072  16.653  17.865  13.219 -0.0388  0.0973 -0.3802
 7209W        W 8073   9.367  28.686  17.833  0.2752 -0.2381  0.2308
 7210W        W 8074  16.182  14.492  12.986  0.2243 -0.0423 -0.0831
 7211W        W 8075  22.659  21.552   7.528 -0.0639 -0.1428  0.5020
 7212W        W 8076  10.976   9.614   5.466 -0.1890 -0.0158  0.0769
 7213W        W 8077  27.278   7.332  24.397  0.0960  0.2481  0.0135
 7214W        W 8078  15.712   0.861  24.537 -0.0713  0.1398  0.0124
 7215W        W 8079  13.677  10.580  22.519 -0.0108  0.0687 -0.0489
 7216W        W 8080   0.813  28.026  16.484  0.2381 -0.3900 -0.2759
 7217W        W 8081   9.036  10.709   8.374 -0.2139 -0.0150  0.1923
 7218W        W 8082  10.628   6.741  26.297 -0.1692  0.2090  0.0608
 7219W        W 8083  22.634  23.800  22.343  0.2827 -0.1875  0.1080
 7220W        W 8084   4.237  17.875   2.687  0.0773  0.1100 -0.3044
 7221W        W 8085   9.592  22.266  26.239 -0.2270 -0.0036 -0.0806
 7222W        W 8086  16.160   7.391   9.092 -0.0871 -0.0040 -0.1297
 7223W        W 8087  27.842   4.430   2.230 -0.0337 -0.4637 -0.0874
 7224W        W 8088   8.994   2.326   2.295 -0.1637  0.1089  0.1605
 7225W        W 8089  28.487   3.790   5.207 -0.0813 -0.2845 -0.1668
 7226W        W 8090   2.197  19.195  26.914 -0.0986 -0.1491  0.0939
 7227W        W 8091   7.434  26.787   2.294  0.2927 -0.0112 -0.1044
 7228W        W 8092  11.778   3.788  19.331 -0.3117  0.2760  0.1500
 7229W        W 8093  13.019   4.712  10.224  0.2452 -0.0964 -0.0186
 7230W        W 8094   8.603   9.397   4.196 -0.1205  0.2201 -0.1731
 7231W        W 8095   3.149  23.673  11.540 -0.1321 -0.1029 -0.4353
 7232W        W 8096  22.010  26.654   2.001 -0.3159  0.0979 -0.2721
 7233W        W 8097   1.565  25.283   9.178  0.5087  0.0135  0.2199
 7234W        W 8098  23.429   3.432  12.159 -0.2176  0.0277  0.0695
 7235W        W 8099  25.782  27.199   3.141 -0.2180  0.0890 -0.3837
 7236W        W 8100   5.614   3.634   4.020 -0.3138 -0.0470 -0.3080
 7237W        W 8101  21.936   9.126   9.346  0.1966 -0.0490  0.2936
 7238W        W 8102  25.794   8.651  11.929 -0.1034 -0.2008 -0.0005
 7239W        W 8103  28.234  13.416  15.417  0.1179  0.4381  0.0542
 7240W        W 8104  18.194   8.967   5.629  0.0465  0.1408 -0.1264
 7241W        W 8105  20.619  19.346  11.981 -0.1940 -0.0676 -0.1369
 7242W        W 8106  16.166  25.865  11.916  0.2993  0.3026 -0.2208
 7243W        W 8107  23.012  19.398  15.618  0.1441 -0.1925  0.1067
 7244W        W 8108   4.284   8.319   2.997 -0.3780  0.1361 -0.1099
 7245W        W 8109  22.180  13.066  10.590  0.0432 -0.0930 -0.2568
 7246W        W 8110  18.539   4.470  28.814  0.0700  0.0775 -0.1800
 7247W        W 8111   2.446  15.415  16.144  0.2400 -0.3151 -0.0132
 7248W        W 8112   9.650   1.897  11.756  0.3469  0.0110  0.2371
 7249W        W 8113  21.729  26.931  15.405 -0.1693  0.0721  0.0922
 7250W        W 8114  12.503  27.294  25.782 -0.2413 -0.0318 -0.1815
 7251W        W 8115  21.660  14.454  17.740 -0.1049  0.1349 -0.1592
 7252W        W 8116  13.344   6.615   6.762  0.0425 -0.2788  0.0055
 7253W        W 8117   2.355  23.307   2.362 -0.1337  0.0390 -0.1401
 7254W        W 8118  19.961   5.729  24.396  0.1825  0.1016 -0.1050
 7255W        W 8119  19.466  18.688  10.381  0.1245  0.1744 -0.3679
 7256W        W 8120  16.680  23.214  10.488 -0.2942  0.0690 -0.4346
 7257W        W 8121   5.155  13.173  17.269 -0.3631  0.1396 -0.3987
 7258W        W 8122   7.793   7.422   7.579  0.0825 -0.0660  0.1715
 7259W        W 8123   1.105   0.628  18.276  0.0303  0.0898  0.0493
 7260W        W 8124  20.341   5.807  10.314  0.0116 -0.1781  0.0567
 7261W        W 8125  21.167   2.824   3.128 -0.2364 -0.1042  0.1939
 7262W        W 8126  14.496  16.717  22.287 -0.0729  0.0556  0.0341
 7263W        W 8127   6.449   1.244  27.273 -0.1925 -0.1353 -0.2519
 7264W        W 8128   0.710  10.402   9.571  0.3266  0.6269 -0.1692
 7265W        W 8129  24.361  12.743  18.693 -0.1032 -0.1899 -0.2809
 7266W        W 8130  26.965   7.676   2.747 -0.0354  0.2379  0.3062
 7267W        W 8131  19.279   2.050   9.365  0.0751  0.1044  0.2338
 7268W        W 8132   3.157  21.763  26.308  0.1853 -0.0040  0.1423
 7269W        W 8133  11.977  28.109   0.691 -0.1537  0.3979  0.0739
 7270W        W 8134  12.776  15.237   4.779  0.1593  0.1579  0.0918
 7271W        W 8135   9.596  11.442  24.069  0.2300  0.0001 -0.1298
 7272W        W 8136  15.822  15.157  19.763  0.2869 -0.1468  0.1824
 7273W        W 8137   9.873  22.953   6.673 -0.2890 -0.0636  0.1754
 7274W        W 8138   2.831   5.781   6.547 -0.0298  0.0171 -0.0039
 7275W        W 8139  20.966   4.294  17.610  0.0722 -0.2398  0.0385
 7276W        W 8140  16.968   0.447  24.030  0.1618 -0.2507  0.0543
 7277W        W 8141  12.981  26.971   0.826 -0.2621  0.1244 -0.0460
 7278W        W 8142  11.608  25.529  22.889 -0.2637  0.0992  0.2633
 7279W        W 8143   7.874  11.472  16.002  0.0119  0.1363  0.1958
 7280W        W 8144  15.724  20.356   1.527  0.0367 -0.1769 -0.0817
 7281W        W 8145  26.706   9.632  12.771  0.2259 -0.0435  0.0362
 7282W        W 8146   6.463  28.392  25.055  0.2982 -0.0951  0.1794
 7283W        W 8147  28.875  25.618   5.403  0.0888 -0.0120 -0.0112
 7284W        W 8148  26.568  28.730  15.826 -0.0618 -0.0890  0.2055
 7285W        W 8149  16.200   7.640  17.719  0.0845  0.3606 -0.0444
 7286W        W 8150   0.940  10.397  27.339  0.2620 -0.0071 -0.0738
 7287W        W 8151  28.449   5.716   8.410 -0.0340 -0.4114 -0.1146
 7288W        W 8152  18.968  12.656   1.241  0.1933 -0.1636 -0.1959
 7289W        W 8153  14.244  19.561   9.535  0.0641 -0.0538 -0.4230
 7290W        W 8154  26.460  14.552   6.680 -0.1928  0.1754 -0.0868
 7291W        W 8155  18.454  11.302  27.726  0.1410 -0.1071  0.0751
 7292W        W 8156   9.860   6.899   1.039  0.0016 -0.0153 -0.1186
 7293W        W 8157  25.473  20.904   6.908 -0.1690 -0.2018  0.2560
 7294W        W 8158  16.499   7.001  23.885  0.3441  0.1101  0.1055
 7295W        W 8159  23.420   2.489   7.704  0.1194  0.0862 -0.2898
 7296W        W 8160  20.964  28.942  12.486  0.0893 -0.0288  0.0573
 7297W        W 8161  15.274  18.304   3.618  0.3125 -0.0320  0.0655
 7298W        W 8162  23.371   5.088  21.175 -0.4398 -0.1184 -0.1793
 7299W        W 8163   8.372  28.313  15.299  0.0498  0.0324  0.0918
 7300W        W 8164  23.889   8.950  15.287 -0.2619  0.1616  0.4663
 7301W        W 8165  20.664  10.553   8.007 -0.0809 -0.3585 -0.1829
 7302W        W 8166  20.626  10.037   9.595  0.0979 -0.0493 -0.1621
 7303W        W 8167   9.102  19.920  26.443  0.2542 -0.0511  0.0775
 7304W        W 8168  14.610  11.057  28.606  0.1301  0.1772 -0.3443
 7305W        W 8169  23.273  20.894  13.536 -0.1701  0.2375  0.1564
 7306W        W 8170  10.115  19.664   8.112  0.0832 -0.0899  0.2404
 7307W        W 8171  16.724   5.676  26.993 -0.0427 -0.1710 -0.1677
 7308W        W 8172  19.174   3.854  13.861 -0.2454 -0.3313 -0.2134
 7309W        W 8173  28.911   0.984   2.374  0.3656 -0.1941 -0.2091
 7310W        W 8174  16.465  25.840  16.162 -0.3868  0.2557  0.0484
 7311W        W 8175  26.263   3.770  16.135  0.1488 -0.0762 -0.2562
 7312W        W 8176   8.855  22.339  14.664  0.1618  0.2526  0.1913
 7313W        W 8177  12.369  20.672   5.972  0.4149 -0.2707  0.0481
 7314W        W 8178  21.431   8.803  28.517  0.0187  0.2185 -0.0296
 7315W        W 8179  12.028  18.000   0.919 -0.2676  0.4995 -0.1989
 7316W        W 8180  15.260  10.448   9.058  0.0729 -0.0982 -0.1282
 7317W        W 8181  10.075   9.068  16.161 -0.2886 -0.3412 -0.1198
 7318W        W 8182  19.918  21.842  27.313 -0.0895  0.1234 -0.1896
 7319W        W 8183   7.644  29.123  17.964  0.1309  0.2304  0.0594
 7320W        W 8184   8.129   1.021  11.462 -0.0097  0.1042 -0.1122
 7321W        W 8185  20.824  22.064   8.799 -0.1617  0.1125  0.1542
 7322W        W 8186  23.523   4.849  26.583 -0.0190  0.0257 -0.2643
 7323W        W 8187  28.872  24.125  21.840 -0.0087  0.2211 -0.1831
 7324W        W 8188   3.759  23.089   9.510 -0.0064  0.1781 -0.0107
 7325W        W 8189  16.759   8.679   6.703  0.2624  0.1338 -0.0083
 7326W        W 8190   9.655  16.955  20.247  0.1915  0.0280 -0.0088
 7327W        W 8191  11.978  24.580  23.641 -0.1630  0.1084 -0.1019
 7328W        W 8192  23.074   6.521  13.740 -0.0213  0.1347  0.0748
 7329W        W 8193   9.236   3.786  28.539 -0.3823  0.1085  0.2203
 7330W        W 8194  11.227   2.529  22.300  0.1442 -0.1047 -0.0543
 7331W        W 8195   6.090  15.855  24.945 -0.1202 -0.0633 -0.1388
 7332W        W 8196  15.675  17.632  13.461 -0.0938 -0.1754  0.1105
 7333W        W 8197  15.366  26.067  12.751 -0.1080 -0.3921 -0.3096
 7334W        W 8198  17.162  11.113  22.659  0.0350 -0.3926 -0.2756
 7335W        W 8199  26.035   2.846   6.756  0.2569  0.2668  0.1521
 7336W        W 8200   6.739   5.767   8.646 -0.2228 -0.1280 -0.2208
 7337W        W 8201  10.792   0.076   0.312  0.2876  0.0120 -0.0504
 7338W        W 8202  16.723  14.406  28.648  0.0293 -0.1060  0.2341
 7339W        W 8203   0.061   9.711  21.677  0.0773 -0.1654 -0.0566
 7340W        W 8204   9.572   9.926  18.965  0.0401  0.0248 -0.0662
 7341W        W 8205  25.497   4.060  14.238 -0.0374  0.3128  0.1199
 7342W        W 8206   1.963  26.257  20.125 -0.2040  0.0360 -0.1222
 7343W        W 8207   6.370  26.514  16.607  0.0949 -0.1253  0.3769
 7344W        W 8208   1.209  14.873   0.721  0.3282 -0.5653 -0.0243
 7345W        W 8209  22.015  28.855  26.963 -0.1377  0.0214  0.1390
 7346W        W 8210   1.717   0.438  23.950 -0.0062  0.0391  0.1531
 7347W        W 8211  11.531  14.241  27.047 -0.0509 -0.1174  0.0239
 7348W        W 8212   0.771  13.829  11.851  0.1024  0.0767 -0.1967
 7349W        W 8213  12.024   7.856   2.028 -0.0779 -0.0359 -0.0573
 7350W        W 8214  18.170   9.020  11.863  0.3946 -0.2164  0.1914
 7351W        W 8215   3.842  28.687  20.501  0.0682  0.0170  0.2244
 7352W        W 8216   1.609   2.923  27.185 -0.1672 -0.0981  0.0616
 7353W        W 8217   1.893  16.612  11.316  0.0030 -0.0852  0.2405
 7354W        W 8218  14.399   3.728   7.205 -0.3133  0.1039  0.1642
 7355W        W 8219  19.342  13.727  16.620  0.4416  0.1355  0.0270
 7356W        W 8220   4.946  20.686   6.445 -0.2337  0.0572  0.1217
 7357W        W 8221  24.211   3.961   6.812 -0.0831  0.2621 -0.0385
 7358W        W 8222  19.186   3.520  19.892  0.3209 -0.1112  0.1433
 7359W        W 8223   5.045  26.891  20.352 -0.0867  0.0056 -0.0359
 7360W        W 8224  19.421  26.730  25.675 -0.0016  0.0790 -0.1205
 7361W        W 8225   7.361  25.689  11.729 -0.0695  0.1631  0.1864
 7362W        W 8226  10.725   7.685  20.945  0.2078 -0.0292 -0.1762
 7363W        W 8227  14.871  26.914   4.974 -0.0696 -0.1528  0.0067
 7364W        W 8228   0.241   8.315  20.305 -0.0461  0.0901 -0.0116
 7365W        W 8229  17.049  28.889  22.300 -0.2619 -0.2929 -0.1278
 7366W        W 8230   5.625  13.706   5.291 -0.4279  0.0686  0.2531
 7367W        W 8231   9.363   1.660  12.152  0.0135 -0.0711  0.0981
 7368W        W 8232  28.508  17.980  16.053  0.0971 -0.0849 -0.0657
 7369W        W 8233   1.156  28.211  23.307 -0.0365  0.2028  0.0952
 7370W        W 8234  20.081   8.343   0.759 -0.1306  0.2846 -0.0360
 7371W        W 8235  18.601   8.608   0.442  0.1552  0.2452 -0.0365
 7372W        W 8236   8.925   9.529  27.447 -0.1066  0.0109  0.4076
 7373W        W 8237  13.912   9.115  13.094 -0.0947 -0.3033  0.2032
 7374W        W 8238   8.887  12.432   6.281  0.1307  0.0663  0.0490
 7375W        W 8239  27.991   5.855   5.973 -0.0242  0.4278 -0.1802
 7376W        W 8240  16.894   4.261  17.745 -0.1487 -0.3445  0.0047
 7377W        W 8241  22.951  25.078  18.454 -0.1502  0.4605 -0.1087
 7378W        W 8242  15.454  12.980   0.527 -0.2207 -0.0074  0.0830
 7379W        W 8243   1.777   7.631   0.923  0.1393  0.0604  0.3440
 7380W        W 8244  20.855  15.947   3.569 -0.0398  0.0552 -0.1057
 7381W        W 8245  20.599   0.676  11.458  0.1556  0.0427 -0.2909
 7382W        W 8246  23.091   8.671  15.090 -0.1153  0.0657  0.1769
 7383W        W 8247  12.734  21.370   5.362  0.3547 -0.0729 -0.0740
 7384W        W 8248   7.851  20.736  10.361  0.1536 -0.1696 -0.0814
 7385W        W 8249  22.874  18.718  26.492  0.2658 -0.3721  0.2567
 7386W        W 8250  20.114  25.766  22.149  0.0674 -0.1092 -0.0570
 7387W        W 8251   8.268   7.674  24.434 -0.2453 -0.2742  0.1368
 7388W        W 8252  19.686   1.424  10.292 -0.1776  0.2228 -0.3925
 7389W        W 8253   9.835   4.918  16.571  0.1106 -0.0848  0.4396
 7390W        W 8254   9.010   9.046  21.085 -0.2665  0.1186 -0.1493
 7391W        W 8255  19.867  10.801  18.080  0.3431  0.2774 -0.2832
 7392W        W 8256   9.007  28.221  15.963  0.4559  0.0987 -0.0558
 7393W        W 8257  21.899  24.624  28.629 -0.1310  0.3377 -0.0666
 7394W        W 8258  14.963  23.504   7.243 -0.0317  0.4388 -0.0683
 7395W        W 8259  19.820   2.115  18.302  0.1271 -0.1860  0.0151
 7396W        W 8260  15.983  15.453  16.370  0.2619 -0.0699 -0.1573
 7397W        W 8261  24.503   2.730  11.016  0.2650 -0.0431 -0.1882
 7398W        W 8262  25.360   1.370  27.600  0.2167 -0.0615  0.2061
 7399W        W 8263  23.293   9.077  10.882  0.0796  0.1195 -0.1195
 7400W        W 8264  21.830   9.809   5.139  0.0611 -0.0281 -0.5301
 7401W        W 8265   9.713  25.709  27.711  0.3076 -0.1910  0.0209
 7402W        W 8266  25.969  23.401  15.734  0.0429 -0.0882  0.2404
 7403W        W 8267  27.298  28.825   6.829  0.0987  0.2977 -0.1321
 7404W        W 8268  26.629   5.713  18.087  0.2280 -0.1808  0.1835
 7405W        W 8269  10.586  26.130   4.988 -0.1247 -0.1795  0.4932
 7406W        W 8270  17.118  18.865  21.512  0.1727  0.2046  0.1247
 7407W        W 8271   2.551  22.300  26.886  0.0667 -0.1777  0.0291
 7408W        W 8272  18.297  27.597  15.116 -0.1360  0.1900 -0.1309
 7409W        W 8273  22.458   3.207   5.519  0.1221  0.0836 -0.1514
 7410W        W 8274  24.279  24.531   5.307 -0.0039  0.2370  0.2158
 7411W        W 8275  18.956  16.452   1.731  0.0234 -0.1286  0.0442
 7412W        W 8276  12.219  14.919  25.633 -0.4700 -0.0423 -0.0303
 7413W        W 8277  24.550  23.610  19.018 -0.0771 -0.1336 -0.0939
 7414W        W 8278   2.325  11.020   4.998 -0.1769 -0.0862 -0.4095
 7415W        W 8279  12.094   9.115  11.064  0.0637 -0.1730 -0.0710
 7416W        W 8280  13.550  10.908  11.077  0.1097 -0.3287  0.1250
 7417W        W 8281   8.263  14.529  15.200  0.0412 -0.2809 -0.1489
 7418W        W 8282  18.697  13.501  10.555  0.0863  0.3596 -0.1889
 7419W        W 8283   8.897   3.538  24.557 -0.0520 -0.1650 -0.0248
 7420W        W 8284  18.320  28.341  22.521  0.2258 -0.1306  0.3757
 7421W        W 8285  20.206   6.633   5.724 -0.1713 -0.1030  0.1946
 7422W        W 8286   9.061  23.684  13.176  0.2348  0.0427 -0.0191
 7423W        W 8287  26.899   9.299   2.484  0.0410  0.0787  0.0313
 7424W        W 8288  26.462  13.581  23.983  0.2649 -0.0557  0.0685
 7425W        W 8289  22.905  20.619   1.800 -0.1971 -0.0108 -0.3011
 7426W        W 8290  19.527   3.848  10.573  0.2686 -0.0411  0.2466
 7427W        W 8291  23.319   3.575  19.902 -0.1882  0.0424 -0.1241
 7428W        W 8292  14.124  28.356  25.883  0.1259  0.1092 -0.0455
 7429W        W 8293  14.067  13.500  14.531  0.0188 -0.2448 -0.2358
 7430W        W 8294   3.292  27.597  21.039 -0.1252 -0.2709  0.2817
 7431W        W 8295   1.178  16.821  13.187 -0.0146  0.2510 -0.0746
 7432W        W 8296   8.043  24.467  15.159  0.1658 -0.2451  0.1738
 7433W        W 8297  20.881  19.032  28.504  0.3008  0.0207 -0.0632
 7434W        W 8298  18.220   2.300  22.176 -0.2743  0.0538  0.0154
 7435W        W 8299  18.686  12.482  13.096 -0.1069  0.2125  0.1084
 7436W        W 8300  17.423   1.678  19.840  0.0080  0.0653  0.1298
 7437W        W 8301   9.960   3.891  29.084  0.0759 -0.1383 -0.1224
 7438W        W 8302   9.295  17.818  14.594  0.1572 -0.1924 -0.3988
 7439W        W 8303  14.507   4.226  22.547 -0.0806  0.3190  0.4262
 7440W        W 8304  25.632   5.318  21.846 -0.0824  0.2250 -0.0498
 7441W        W 8305  18.952  12.955  18.744  0.0161 -0.1794 -0.2501
 7442W        W 8306  24.569  14.431  15.641  0.2412 -0.0653  0.0327
 7443W        W 8307  20.661  26.733  18.899 -0.2939  0.0450  0.0669
 7444W        W 8308  21.295  20.156   0.733 -0.3466 -0.4888 -0.0584
 7445W        W 8309  12.191  13.642   9.643 -0.0364  0.0588 -0.2055
 7446W        W 8310  16.960  26.805   4.778  0.1612  0.1764  0.0555
 7447W        W 8311   3.923  20.713   5.567 -0.0497  0.3413 -0.3661
 7448W        W 8312  24.953   6.136  26.192 -0.0774  0.1181  0.1217
 7449W        W 8313   1.408  20.151  24.018 -0.1887 -0.0795  0.3286
 7450W        W 8314   5.196  28.549  13.832 -0.2986  0.1041  0.1140
 7451W        W 8315  23.461   0.989  23.314  0.0309  0.1384  0.2501
 7452W        W 8316   0.053  10.435  11.143  0.1858 -0.0726 -0.3838
 7453W        W 8317   2.566   0.960  16.192  0.1387  0.1288  0.3991
 7454W        W 8318  27.250   7.802  17.087 -0.1168  0.1737  0.0852
 7455W        W 8319   7.394  18.798   8.723 -0.0531  0.2457  0.0731
 7456W        W 8320  16.928  28.114  20.074 -0.2983 -0.0418  0.3208
 7457W        W 8321  21.690  24.968   8.455 -0.4183  0.1581  0.0340
 7458W        W 8322  14.749   5.468   5.570  0.1254 -0.1322 -0.4104
 7459W        W 8323   9.894   1.537  22.843 -0.1002 -0.0389  0.2914
 7460W        W 8324  22.193   7.703   3.176 -0.1282  0.2787  0.2037
 7461W        W 8325  27.075   7.807  23.091 -0.3328 -0.1897 -0.1385
 7462W        W 8326  16.457   4.640   9.081  0.2412  0.1446  0.0401
 7463W        W 8327  17.124   7.747  27.567  0.2376 -0.3419 -0.1727
 7464W        W 8328   6.464  19.623   3.668 -0.1755  0.1142  0.4357
 7465W        W 8329  16.488   4.368  12.550  0.2253  0.0558 -0.0811
 7466W        W 8330   5.395   9.364   0.854  0.0207 -0.1894 -0.1426
 7467W        W 8331  10.898  16.042  17.184 -0.2556  0.1718 -0.0222
 7468W        W 8332  24.113   9.064  23.458  0.4148  0.2179  0.0992
 7469W        W 8333   5.213   8.201   4.177 -0.1440 -0.1462  0.2723
 7470W        W 8334  20.487  26.389  12.207 -0.0111 -0.1947 -0.2093
 7471W        W 8335   0.970   6.904  28.584  0.0085 -0.3512 -0.0921
 7472W        W 8336  21.420  11.465  13.049  0.0654 -0.1126  0.1699
 7473W        W 8337  15.435  26.635  17.032  0.1482 -0.2338  0.0077
 7474W        W 8338   4.193  22.911  24.413 -0.0701 -0.2587  0.1423
 7475W        W 8339   7.995  16.181  11.735  0.0458  0.0955  0.1452
 7476W        W 8340  19.207   3.643  22.972 -0.1283 -0.0027  0.1867
 7477W        W 8341  17.387  12.369  20.433  0.1972 -0.1005  0.0041
 7478W        W 8342  15.188   3.368  11.811  0.0315 -0.1240  0.0163
 7479W        W 8343  11.168  22.302  22.170 -0.1144 -0.2412  0.2649
 7480W        W 8344  20.866  14.086   7.054  0.2228  0.0748  0.0580
 7481W        W 8345  20.964   7.573  13.202  0.3265 -0.4576 -0.1244
 7482W        W 8346   4.041  25.990  17.684 -0.1440  0.1535  0.1738
 7483W        W 8347   2.881   3.120  23.752 -0.1438 -0.1448 -0.0534
 7484W        W 8348  13.268   9.583   2.095 -0.0200 -0.4774 -0.3836
 7485W        W 8349   9.757   8.755  14.635  0.3166  0.1549 -0.1324
 7486W        W 8350   9.688  19.208  16.299 -0.2664  0.0743  0.2131
 7487W        W 8351  17.736  24.428  29.138 -0.0713  0.0295 -0.4886
 7488W        W 8352   9.449   4.427   0.911 -0.1381 -0.0336  0.1716
 7489W        W 8353  23.700  17.099   6.791 -0.0974  0.0874  0.2950
 7490W        W 8354  24.733  27.110  13.959  0.2268 -0.6623 -0.0667
 7491W        W 8355   9.484   9.268  16.477  0.0824 -0.0481 -0.2063
 7492W        W 8356  12.889  21.123   4.194  0.2195  0.1327 -0.1498
 7493W        W 8357  13.014   7.773   9.609 -0.2156  0.1011 -0.1936
 7494W        W 8358  13.388   0.775  28.968 -0.2773 -0.0754  0.0688
 7495W        W 8359   3.319   1.239  10.047 -0.0682 -0.0325 -0.0908
 7496W        W 8360   8.283  23.467  12.785 -0.0455  0.0337 -0.2889
 7497W        W 8361   9.357  17.376  23.387 -0.0226 -0.0331  0.2328
 7498W        W 8362  15.542  15.731  26.411  0.1667  0.1035 -0.1165
 7499W        W 8363   6.486   1.920  10.404  0.4866 -0.1576 -0.1110
 7500W        W 8364  26.666  15.695   6.088 -0.1426 -0.1631 -0.3683
 7501W        W 8365  20.877   8.294   9.755  0.3217 -0.0472 -0.2864
 7502W        W 8366   5.912  11.598   6.768 -0.1929  0.0750  0.0165
 7503W        W 8367  13.453  13.538  25.849  0.0693  0.3970  0.0278
 7504W        W 8368  16.449   6.193   7.254 -0.3002 -0.1792  0.1824
 7505W        W 8369  10.042  12.574   4.824 -0.0523 -0.2117 -0.1972
 7506W        W 8370  23.234   7.660   1.840  0.0982  0.0865  0.2137
 7507W        W 8371  22.791  23.935  20.560  0.2016  0.0530 -0.2181
 7508W        W 8372   9.143  25.042   8.426  0.0316  0.1121 -0.1298
 7509W        W 8373  26.929  18.122  20.526 -0.2619 -0.0527  0.2712
 7510W        W 8374  24.040  13.318  10.294 -0.3047 -0.2244 -0.1015
 7511W        W 8375  25.512  13.416  19.095 -0.3200 -0.1317 -0.1045
 7512W        W 8376  15.351  18.658  26.571 -0.1572 -0.0212 -0.2464
 7513W        W 8377  11.740  15.494  22.305  0.0717 -0.1296  0.0734
 7514W        W 8378   3.590  26.564  24.886  0.0635 -0.1908 -0.2326
 7515W        W 8379  22.934   7.767  25.585 -0.2223  0.0015 -0.3502
 7516W        W 8380  10.414  18.347   8.379  0.1819 -0.0665  0.0865
 7517W        W 8381  18.851   3.333  17.765 -0.0587  0.1346  0.0493
 7518W        W 8382  12.168  17.130   4.683 -0.0788 -0.0644 -0.2360
 7519W        W 8383   0.658  25.689  20.553 -0.1558  0.0739  0.3265
 7520W        W 8384  28.955   5.769  16.121 -0.1961 -0.0446  0.0485
 7521W        W 8385  27.598  11.749  28.136 -0.1108 -0.3076  0.1504
 7522W        W 8386  27.463   5.616   3.868 -0.1911 -0.1678  0.0114
 7523W        W 8387  12.807  23.109   2.619 -0.1258  0.0557 -0.0229
 7524W        W 8388  13.355   1.850   4.501  0.0087  0.1017  0.2163
 7525W        W 8389  23.244   8.685  10.036 -0.2104 -0.0950  0.2267
 7526W        W 8390  13.376  24.050  16.859  0.1985 -0.1158  0.2424
 7527W        W 8391   2.181  17.774   0.284  0.3211  0.0171 -0.5232
 7528W        W 8392  26.255  19.004  12.700 -0.2160  0.0817 -0.1008
 7529W        W 8393  18.772  23.020   4.861 -0.0431 -0.1280  0.2129
 7530W        W 8394   2.595  15.016   5.343 -0.0905  0.0554  0.1668
 7531W        W 8395  21.644  12.414  13.090 -0.0453  0.0673  0.0046
 7532W        W 8396  17.293   7.489  16.996 -0.0381 -0.4384 -0.1179
 7533W        W 8397  19.561   1.033  21.460  0.3400  0.1505 -0.1839
 7534W        W 8398  24.695  11.199   5.380 -0.2138  0.3138 -0.1817
 7535W        W 8399  26.619   5.956  17.624  0.2197 -0.1883  0.1736
 7536W        W 8400  25.327   5.166  10.607 -0.2231  0.0588 -0.0998
 7537W        W 8401  20.318  27.657  17.165  0.0601 -0.1668 -0.1446
 7538W        W 8402  21.179  23.349  22.076  0.0028 -0.1607 -0.4347
 7539W        W 8403  28.306   6.050  12.666  0.2172 -0.1923  0.3203
 7540W        W 8404   0.539   5.067  26.749 -0.0079  0.1084  0.1287
 7541W        W 8405  19.422  10.623   3.994  0.0555  0.3759 -0.1893
 7542W        W 8406   5.175  12.813   7.260 -0.2702  0.0653  0.0560
 7543W        W 8407  24.679  15.893  10.814 -0.1701  0.1800 -0.1939
 7544W        W 8408  13.792  22.787  14.603 -0.0833 -0.1740  0.0155
 7545W        W 8409  11.228   8.438  12.600  0.1853 -0.0847 -0.1370
 7546W        W 8410  18.154   7.117  11.980  0.0409 -0.1908  0.0660
 7547W        W 8411  20.460   5.540  16.003  0.1362 -0.2248 -0.0671
 7548W        W 8412   6.147   5.195  25.456  0.0177  0.3560  0.1454
 7549W        W 8413   1.274  10.518   6.746  0.0705 -0.4024  0.0010
 7550W        W 8414  14.881  15.274  22.509  0.0853  0.0273  0.1752
 7551W        W 8415   2.468  28.946  27.636  0.3916  0.1245 -0.5796
 7552W        W 8416  11.677   3.921  12.522 -0.3259 -0.3469  0.2821
 7553W        W 8417   6.498   4.069  17.789 -0.0386 -0.3298  0.1198
 7554W        W 8418  11.052  12.515  21.245 -0.0834 -0.1515  0.2631
 7555W        W 8419  12.891  12.987   4.659  0.0485 -0.0170  0.0147
 7556W        W 8420  25.676  24.837   9.160  0.0806 -0.0364  0.0166
 7557W        W 8421  17.855   5.012  18.427 -0.0602  0.1752  0.1246
 7558W        W 8422  19.893  23.616  26.653  0.2185  0.0154  0.3015
 7559W        W 8423   9.359   7.663   0.938  0.3032 -0.0640 -0.0348
 7560W        W 8424   9.252  27.479   3.828  0.1023  0.0382 -0.2907
 7561W        W 8425  11.970  19.146  10.931 -0.0717  0.2027  0.0026
 7562W        W 8426   9.067  10.081  13.103  0.1059 -0.0923  0.1925
 7563W        W 8427   5.003   1.865  10.705 -0.1579  0.0200 -0.1296
 7564W        W 8428  24.962  12.460  11.939 -0.0142  0.3512  0.0632
 7565W        W 8429  16.498   8.092  22.983 -0.0246  0.3803 -0.1026
 7566W        W 8430  26.587   5.521  25.713 -0.0278  0.0982 -0.3914
 7567W        W 8431  15.138  14.931  12.801 -0.2252 -0.0524 -0.2933
 7568W        W 8432   8.016   9.842  11.396 -0.1371 -0.1254  0.0207
 7569W        W 8433   4.949   6.934   6.395 -0.4457 -0.0936 -0.4042
 7570W        W 8434   9.828   6.926  18.397  0.0779 -0.2798 -0.3038
 7571W        W 8435  28.799  27.947  14.758 -0.0295 -0.2264  0.1022
 7572W        W 8436  15.515   8.374   8.441  0.0406 -0.0152 -0.0066
 7573W        W 8437  27.353  22.067   3.168 -0.1437  0.2123  0.1768
 7574W        W 8438  23.340  27.686  28.006  0.0638  0.0455  0.0673
 7575W        W 8439   4.594   0.451  11.958 -0.1572  0.0502 -0.0978
 7576W        W 8440   6.789  24.364  22.071  0.0686 -0.0640 -0.0321
 7577W        W 8441  13.888  15.234  21.176  0.2923 -0.0285 -0.0533
 7578W        W 8442  11.429   9.228   6.805 -0.0066 -0.1724 -0.0737
 7579W        W 8443  17.550   6.888   5.338  0.1749 -0.0767 -0.1265
 7580W        W 8444  12.565  13.832  16.777  0.0345  0.2630 -0.0349
 7581W        W 8445  15.765  10.746  10.060  0.0060  0.4627  0.0357
 7582W        W 8446  10.505   7.067  14.691  0.1315  0.1737  0.1606
 7583W        W 8447  16.981  17.469  21.709 -0.1216  0.1247 -0.0065
 7584W        W 8448  12.332   2.022  15.644  0.0302 -0.2163  0.2007
 7585W        W 8449  16.466  13.859  21.764 -0.0179 -0.1001  0.1464
 7586W        W 8450  27.996   6.123  17.344  0.0326  0.0933 -0.3297
 7587W        W 8451  13.215  14.033   8.103  0.1807 -0.0521  0.0585
 7588W        W 8452  14.901  22.862   1.243  0.0414 -0.1436 -0.3898
 7589W        W 8453   1.679   1.474   8.293  0.0083 -0.1907  0.2943
 7590W        W 8454  21.238   9.029  23.505  0.2775 -0.0677 -0.1447
 7591W        W 8455  17.508  12.773  20.154 -0.1381 -0.0218 -0.3826
 7592W        W 8456  17.154  25.648   5.389 -0.1636 -0.0124 -0.0478
 7593W        W 8457  19.462   6.145   8.059  0.3711 -0.0810 -0.1432
 7594W        W 8458   4.245   0.038   6.735  0.3352  0.0643  0.3416
 7595W        W 8459  16.506   0.648  22.676  0.3387  0.2561 -0.1370
 7596W        W 8460  15.972   6.797  22.648 -0.0828 -0.1835 -0.4489
 7597W        W 8461  27.225   9.484   0.038 -0.2173 -0.3603  0.0308
 7598W        W 8462  12.260  20.459  20.031  0.1320  0.3263 -0.3197
 7599W        W 8463  15.282   3.284   6.956 -0.1329 -0.2800  0.0626
 7600W        W 8464   1.314   0.610  17.141 -0.3102 -0.0865  0.1162
 7601W        W 8465   8.866  14.541  20.653 -0.0631 -0.0872 -0.0490
 7602W        W 8466  10.907  15.302  24.508  0.1580  0.1809  0.0478
 7603W        W 8467   8.288   8.351  13.946  0.4225 -0.3123 -0.1956
 7604W        W 8468   8.703  17.707  18.581 -0.0314  0.1028 -0.1962
 7605W        W 8469   9.458  13.438  26.675 -0.1625 -0.1371 -0.2055
 7606W        W 8470  26.027  19.926   8.407  0.0398  0.0828  0.1039
 7607W        W 8471  14.134  24.134  28.849 -0.1663 -0.1911  0.2929
 7608W        W 8472  13.781  27.120   7.776 -0.2829  0.2195 -0.0400
 7609W        W 8473   8.301  19.951  20.784  0.1649 -0.1937  0.0118
 7610W        W 8474  11.709   8.868  18.611 -0.1516  0.0382 -0.1523
 7611W        W 8475  27.700   7.832  26.058 -0.0261 -0.2001 -0.1042
 7612W        W 8476   7.869  28.078  19.142  0.2401  0.2597 -0.3196
 7613W        W 8477  25.347  10.744  19.846  0.1387  0.1463  0.1614
 7614W        W 8478  12.982   2.398   3.048  0.1321 -0.0003 -0.2143
 7615W        W 8479  14.696  14.940  12.545 -0.2954 -0.1816 -0.0168
 7616W        W 8480  10.721  10.351  26.714 -0.0183  0.1675 -0.0457
 7617W        W 8481   5.985  28.791  18.151 -0.1516  0.0286 -0.0370
 7618W        W 8482  22.715   2.451  21.863 -0.0101  0.3253 -0.1577
 7619W        W 8483  13.372   8.122  15.133 -0.2245  0.1549  0.0723
 7620W        W 8484  19.691   8.550  17.167 -0.0945 -0.1538  0.1632
 7621W        W 8485  14.705  11.945  21.493 -0.1584  0.2152  0.0596
 7622W        W 8486   9.922   1.727  24.106 -0.2350 -0.1279  0.1461
 7623W        W 8487   1.324  23.593   2.732 -0.3030  0.2339 -0.1005
 7624W        W 8488  28.942  20.314  22.543 -0.0739 -0.2178 -0.1308
 7625W        W 8489   5.150  21.012  17.328 -0.1082  0.0907 -0.0678
 7626W        W 8490  13.510   2.226   9.831  0.2377  0.0228 -0.0920
 7627W        W 8491  15.976   2.911  20.147  0.3956 -0.1469 -0.5123
 7628W        W 8492   0.157   3.445  18.925  0.0102 -0.1319 -0.1535
 7629W        W 8493   9.623   7.263  10.359  0.1019  0.1543  0.3112
 7630W        W 8494  23.978  22.928  10.388  0.3031 -0.1794 -0.0529
 7631W        W 8495  14.219  19.191  17.720 -0.1093  0.0226  0.0182
 7632W        W 8496  14.462  23.410   8.326  0.1346 -0.0186 -0.0873
 7633W        W 8497   2.334  11.512  19.870  0.1185 -0.0933 -0.0122
 7634W        W 8498  14.428  24.973   7.554 -0.0400 -0.1111  0.2383
 7635W        W 8499  12.214  18.576  14.350  0.2497  0.1447  0.3102
 7636W        W 8500  27.061   3.952  18.888  0.2442 -0.1852  0.2739
 7637W        W 8501  14.199  22.996   7.326 -0.0848  0.1835  0.0687
 7638W        W 8502  16.353  17.358  23.528  0.0457 -0.1920 -0.1685
 7639W        W 8503   0.524  27.555  27.898 -0.2866  0.3551  0.1710
 7640W        W 8504   8.676  10.021   0.108  0.4662 -0.0232  0.0033
 7641W        W 8505  10.410  16.314   2.720  0.4075 -0.1052 -0.2151
 7642W        W 8506   2.486   4.590  19.594  0.3181 -0.0162 -0.1173
 7643W        W 8507  22.202   7.008   0.760  0.2319  0.0867 -0.2192
 7644W        W 8508  23.536   6.168  13.773  0.4555 -0.1880  0.0870
 7645W        W 8509  28.253   5.189  19.543 -0.2987 -0.1681 -0.2161
 7646W        W 8510  16.385   7.771  11.773  0.1114  0.0346  0.2015
 7647W        W 8511   7.045  14.321   3.142  0.0950  0.3054  0.0168
 7648W        W 8512   0.729  10.586  23.588  0.3250 -0.1243  0.0049
 7649W        W 8513  20.059   1.492  20.606  0.1146  0.3572  0.2526
 7650W        W 8514  10.273  24.131  14.211 -0.0466 -0.0949 -0.0065
 7651W        W 8515  16.031  19.339   7.024 -0.1946  0.1917 -0.0003
 7652W        W 8516  21.968  22.077  20.278 -0.0592 -0.1505  0.2229
 7653W        W 8517  20.190   3.598  13.855 -0.1881  0.0998  0.3377
 7654W        W 8518   9.578   1.869  10.447 -0.0607 -0.1283  0.1758
 7655W        W 8519  28.371  17.311  28.950  0.0852 -0.0835  0.0373
 7656W        W 8520  13.734   5.002  14.676  0.0406 -0.2116  0.0690
 7657W        W 8521  17.081   2.787  18.701  0.2006  0.3036 -0.4818
 7658W        W 8522  28.240  10.137   9.862 -0.1476 -0.2657  0.0998
 7659W        W 8523  25.883  27.977  24.150  0.0595  0.0236 -0.0186
 7660W        W 8524  16.098  17.231  13.039 -0.0107  0.2858  0.4061
 7661W        W 8525  18.244  16.015  27.536  0.0301  0.0392  0.0762
 7662W        W 8526   8.464  16.059   8.617  0.0967  0.1479  0.0607
 7663W        W 8527  13.932   5.258   1.871 -0.4276 -0.0511 -0.0187
 7664W        W 8528   3.953   6.275   6.989 -0.2729  0.5112 -0.1071
 7665W        W 8529  18.281   7.555  12.803 -0.1588 -0.0470 -0.0839
 7666W        W 8530  22.122  14.217  18.830  0.2441 -0.2027  0.4242
 7667W        W 8531   0.661  20.187  27.641 -0.1874  0.3122  0.1414
 7668W        W 8532  14.858  10.319   9.923  0.1641  0.0172 -0.0109
 7669W        W 8533  25.625   6.710  21.244 -0.0750  0.2174  0.2142
 7670W        W 8534   5.812   0.371  27.270  0.1787 -0.2071 -0.0400
 7671W        W 8535  26.139  27.226  10.261  0.3526 -0.0753 -0.0642
 7672W        W 8536   1.239   9.406  23.315 -0.0315 -0.1897 -0.0214
 7673W        W 8537  19.681  12.894  19.058  0.0075  0.1496  0.0967
 7674W        W 8538  20.828  15.168  25.730 -0.0512 -0.1964 -0.0874
 7675W        W 8539  16.746  12.706  18.833 -0.2917 -0.2731 -0.0068
 7676W        W 8540   8.442  18.185  24.307  0.6149  0.3656 -0.0067
 7677W        W 8541  11.684   7.367  18.934  0.1917 -0.2906  0.1117
 7678W        W 8542  16.876  24.764  23.800 -0.2497 -0.0259 -0.0801
 7679W        W 8543   5.829   9.003  16.778  0.1602  0.0043  0.1475
 7680W        W 8544   2.405   4.973   1.473 -0.3090 -0.2306 -0.2814
 7681W        W 8545   2.507   2.171  22.570 -0.0759  0.1106 -0.0511
 7682W        W 8546  21.715  23.890   0.623  0.2559  0.1737 -0.1176
 7683W        W 8547  17.325  16.637  21.749  0.1025  0.0490 -0.1271
 7684W        W 8548  14.299  25.142   3.679  0.0125  0.0801  0.3323
 7685W        W 8549  12.975   3.860   6.588 -0.2342 -0.2077  0.1171
 7686W        W 8550  21.028  13.793   1.407  0.4019 -0.0325  0.2991
 7687W        W 8551  23.231  26.284  10.936  0.0680 -0.2950 -0.4823
 7688W        W 8552   9.456  21.910  19.510 -0.1804  0.2878  0.1525
 7689W        W 8553   8.173  16.642   3.930 -0.0119  0.4487 -0.0126
 7690W        W 8554  24.830  19.199   5.777 -0.0356 -0.0875 -0.4233
 7691W        W 8555   2.489  14.395  25.504  0.3224 -0.0104 -0.0377
 7692W        W 8556  15.310  27.067  13.327 -0.0625 -0.0160  0.0843
 7693W        W 8557  19.859  19.299  11.021  0.0746  0.0076 -0.0813
 7694W        W 8558  24.278   5.524  29.142  0.0807 -0.0356 -0.1170
 7695W        W 8559  12.651   0.225  16.092 -0.3162  0.0556 -0.2991
 7696W        W 8560  18.582   4.940  16.200 -0.1006  0.2108  0.0014
 7697W        W 8561  23.861   9.243  22.604 -0.0091  0.1727 -0.3132
 7698W        W 8562  12.170  12.245  22.731  0.0314 -0.0529  0.0479
 7699W        W 8563  16.252  26.438  26.558  0.3565 -0.2015  0.0068
 7700W        W 8564  14.163  20.062  26.926  0.0314 -0.1376 -0.2244
 7701W        W 8565  15.438  23.754   9.922  0.4112  0.3277  0.1539
 7702W        W 8566  15.384  10.695   3.486 -0.0141  0.3747  0.2280
 7703W        W 8567  15.737  21.069   1.375 -0.4029 -0.0845 -0.0878
 7704W        W 8568  16.713  28.172  10.180  0.3422  0.1290  0.0755
 7705W        W 8569  26.926   2.144  20.373  0.0149 -0.2272 -0.0217
 7706W        W 8570   6.651   0.282  23.674 -0.2055  0.0349 -0.1150
 7707W        W 8571  17.226  26.839  16.291 -0.1390 -0.0999  0.0575
 7708W        W 8572  17.038   9.227  22.490  0.1235  0.2701 -0.0598
 7709W        W 8573  18.919  21.921  27.646 -0.0106 -0.0216 -0.0383
 7710W        W 8574   9.248  17.718   9.673  0.2257 -0.0412  0.0738
 7711W        W 8575  16.467  25.774  21.542  0.1603 -0.2543 -0.1720
 7712W        W 8576  19.013  20.162   0.062  0.2476  0.1508 -0.0170
 7713W        W 8577  17.707   4.492  20.657  0.2198 -0.0985 -0.0493
 7714W        W 8578  22.205   6.023   8.856 -0.0044  0.2557  0.1763
 7715W        W 8579   3.203   9.096   2.472 -0.1874  0.1939  0.0493
 7716W        W 8580  27.700  28.250   9.719 -0.0364 -0.1317  0.1670
 7717W        W 8581   1.541   8.581  18.082 -0.1019  0.2212 -0.1507
 7718W        W 8582  28.685  24.088  19.474  0.0767 -0.0351  0.0869
 7719W        W 8583  26.445  23.780   0.762 -0.1486  0.0077  0.0366
 7720W        W 8584   4.603  23.407   7.623  0.0827 -0.1589 -0.1362
 7721W        W 8585   2.484  24.491  18.449  0.0630 -0.1678 -0.2271
 7722W        W 8586   6.886  17.331   3.324 -0.1182  0.0945 -0.0373
 7723W        W 8587  28.621  12.823  14.656  0.0921 -0.1658  0.1074
 7724W        W 8588   7.361   2.040  21.750 -0.1455  0.0173 -0.3614
 7725W        W 8589   4.186  11.483  16.089  0.3113  0.2233 -0.1357
 7726W        W 8590  24.931   6.477   1.216 -0.1015  0.2479  0.0212
 7727W        W 8591  24.122  12.446   9.859 -0.0339 -0.1771 -0.2950
 7728W        W 8592  12.091  16.090  19.052 -0.0272  0.2118 -0.0280
 7729W        W 8593  25.803   1.004  22.206 -0.0151 -0.1389 -0.0437
 7730W        W 8594  17.272  22.810  23.691 -0.1366  0.1148 -0.1945
 7731W        W 8595  17.913   1.775  20.644  0.1737  0.5887 -0.1786
 7732W        W 8596  23.925   0.887  20.168  0.3136  0.1189  0.2425
 7733W        W 8597  20.101   5.519  11.218  0.1174 -0.2820 -0.2192
 7734W        W 8598  13.837   9.986   9.285 -0.0073 -0.2192  0.0002
 7735W        W 8599  17.195  15.225   3.027 -0.0637 -0.2664  0.1056
 7736W        W 8600  24.238  22.937  14.187  0.0013  0.6028  0.2353
 7737W        W 8601  10.559  12.515  18.668 -0.4271 -0.0169  0.1218
 7738W        W 8602  16.590   5.750  28.807  0.1994 -0.0267  0.2133
 7739W        W 8603  22.788   4.639  14.165 -0.2002  0.1537 -0.0995
 7740W        W 8604  22.963  24.795  17.325  0.0606  0.1082 -0.0105
 7741W        W 8605  18.835  15.520   4.540  0.0530 -0.0534  0.1624
 7742W        W 8606  20.018  12.093  23.219 -0.0442 -0.1251 -0.0921
 7743W        W 8607  27.389  25.984   4.167 -0.0908 -0.0201 -0.2761
 7744W        W 8608   5.348  15.290  25.131  0.2018 -0.0645 -0.1616
 7745W        W 8609  17.796   0.470   9.337 -0.0335 -0.1205  0.1429
 7746W        W 8610  14.811   6.536  28.249  0.1120 -0.1920 -0.3516
 7747W        W 8611   9.570  21.344   1.197  0.1312  0.0252  0.0696
 7748W        W 8612  18.205   1.598  24.749  0.3948  0.3386  0.7792
 7749W        W 8613  16.607   3.795  17.097 -0.1434 -0.0053 -0.1116
 7750W        W 8614  15.045   9.674  19.943 -0.1211  0.0246  0.1213
 7751W        W 8615  25.037   3.593  27.368  0.0116 -0.4894 -0.0698
 7752W        W 8616  15.942  25.163  13.669  0.1552 -0.0669 -0.1119
 7753W        W 8617   8.539  21.235  16.176 -0.0244 -0.0257  0.1444
 7754W        W 8618  11.365   6.890  27.095  0.2189  0.0095 -0.1253
 7755W        W 8619   0.316  12.681  22.423 -0.3042 -0.2305 -0.1416
 7756W        W 8620   4.523  10.288   3.751  0.0630  0.0526  0.0714
 7757W        W 8621  28.291  10.692   9.341 -0.2077  0.2679  0.0509
 7758W        W 8622  14.876  26.269  18.447  0.3242 -0.2108 -0.0740
 7759W        W 8623  21.725  21.298  17.520  0.1840  0.0589  0.1255
 7760W        W 8624  15.389  22.894  18.543 -0.0052  0.0304 -0.1855
 7761W        W 8625   6.936   8.749  10.951  0.2298  0.0173  0.3990
 7762W        W 8626   1.031  18.203  19.085  0.1931 -0.2068  0.0878
 7763W        W 8627  21.556  26.639   4.212  0.2856  0.0901  0.4495
 7764W        W 8628  20.067   7.532   8.855 -0.1946  0.1829  0.2501
 7765W        W 8629   2.458   3.096  26.503 -0.0200  0.0948  0.0192
 7766W        W 8630  13.149   4.504  25.251 -0.0895  0.0165 -0.1244
 7767W        W 8631  14.988  18.735   3.620  0.1831 -0.0500  0.1338
 7768W        W 8632   4.315  25.458  17.945  0.0279 -0.0512 -0.1310
 7769W        W 8633  21.702  11.407  22.575 -0.1990 -0.0985  0.2068
 7770W        W 8634  20.886  28.655   0.511  0.0457 -0.0573  0.1223
 7771W        W 8635   7.259  29.130   7.736  0.1223  0.5609 -0.1645
 7772W        W 8636  16.478   5.443  25.124  0.1358 -0.0780 -0.1011
 7773W        W 8637  10.352   0.541   6.216 -0.0740  0.1149 -0.0231
 7774W        W 8638   7.455  13.071   8.936 -0.1300  0.1537  0.0775
 7775W        W 8639   4.232  13.052  21.694 -0.0003  0.0050  0.3287
 7776W        W 8640  20.939   2.920   6.805  0.1655 -0.2659 -0.2626
 7777W        W 8641   1.968   7.541  28.036  0.1364 -0.0944  0.4115
 7778W        W 8642   6.984   7.297  22.114  0.2016  0.1032 -0.0841
 7779W        W 8643  13.524  28.839  27.612  0.2203 -0.0421  0.0175
 7780W        W 8644  11.661  21.606  17.412 -0.1165 -0.1061 -0.1148
 7781W        W 8645  20.207   8.238  13.988  0.3914 -0.2055 -0.0451
 7782W        W 8646  10.331   4.000  14.305  0.2442  0.4761  0.0989
 7783W        W 8647  19.530  24.440   5.032  0.1213  0.0118 -0.2314
 7784W        W 8648   7.761   0.765  19.133 -0.0251  0.1841 -0.2405
 7785W        W 8649   5.520  28.750  29.038 -0.1571  0.0356 -0.1451
 7786W        W 8650  19.194  28.208  20.077  0.3782  0.0421  0.2859
 7787W        W 8651  26.272  28.823  28.897  0.0775 -0.0955 -0.2129
 7788W        W 8652  13.544  17.944  16.220  0.2096  0.0475 -0.2820
 7789W        W 8653   4.167  10.788   7.890 -0.0037 -0.0429  0.3260
 7790W        W 8654  16.596   8.610  15.448 -0.1686 -0.1135  0.4145
 7791W        W 8655  25.441   6.404  13.729 -0.0505 -0.0905 -0.3779
 7792W        W 8656  15.111  13.949  24.704 -0.2757 -0.0993  0.3235
 7793W        W 8657   9.732  21.825   7.765 -0.2608 -0.0700 -0.5234
 7794W        W 8658  28.309  20.126  19.645  0.0902  0.0532  0.0958
 7795W        W 8659  26.203   3.198  10.735  0.0135 -0.0254  0.0775
 7796W        W 8660  20.648   7.016  18.970  0.1802  0.5840  0.0312
 7797W        W 8661  11.131   3.012  26.094 -0.1794 -0.2635  0.0692
 7798W        W 8662  27.489  20.238  18.291  0.0632 -0.1426 -0.2164
 7799W        W 8663   1.762  16.594  16.314  0.2620 -0.0777 -0.1421
 7800W        W 8664  14.456  16.919  25.509  0.1207 -0.0616 -0.0042
 7801W        W 8665   6.012   0.150  11.954 -0.0264 -0.0806  0.2372
 7802W        W 8666  15.694  18.982  26.578 -0.3275  0.0877 -0.3928
 7803W        W 8667  23.549  11.767  24.734  0.1327 -0.1955 -0.0501
 7804W        W 8668   5.378   1.175  20.010  0.2803 -0.1476  0.3102
 7805W        W 8669  24.780   2.908  11.507 -0.1907 -0.1059  0.2497
 7806W        W 8670   0.637   1.249  12.636 -0.1887  0.2766 -0.1728
 7807W        W 8671  18.864   4.360  14.532  0.1910 -0.0376 -0.2139
 7808W        W 8672   5.529  16.065   0.851 -0.0934  0.3980 -0.0654
 7809W        W 8673  11.403   4.576   1.903  0.1013  0.2345 -0.0039
 7810W        W 8674  23.175  15.589  12.926  0.2755 -0.3203  0.1364
 7811W        W 8675  17.575  10.283   2.196 -0.1129 -0.0355 -0.1621
 7812W        W 8676   9.722   0.993  18.374  0.2712  0.3003 -0.1450
 7813W        W 8677   0.759  19.426  14.042  0.4059  0.1190 -0.2077
 7814W        W 8678  20.918  14.787  13.205 -0.0656 -0.2150 -0.1292
 7815W        W 8679  12.624  18.368  20.958  0.0978  0.1872  0.0030
 7816W        W 8680  19.174  11.471  13.828  0.0420 -0.0185 -0.2493
 7817W        W 8681  23.690   6.797  12.293 -0.0650  0.1353 -0.1848
 7818W        W 8682  13.847  19.097   6.970  0.4898  0.4142 -0.0373
 7819W        W 8683  10.584  16.542   3.452  0.1172 -0.1874 -0.0283
 7820W        W 8684  26.138   5.293  26.730  0.0055  0.0967  0.0738
 7821W        W 8685  23.208   9.293   4.359 -0.1711 -0.0634  0.2627
 7822W        W 8686   5.017  28.037  24.211 -0.2392  0.2794 -0.0914
 7823W        W 8687  18.449   8.886   2.193 -0.0752 -0.0504 -0.0352
 7824W        W 8688  26.412   5.274  22.993 -0.2863 -0.0907  0.2395
 7825W        W 8689  20.144  10.805  26.341  0.1336 -0.0185 -0.0005
 7826W        W 8690  16.577   7.710  25.885 -0.4147 -0.0106  0.2163
 7827W        W 8691  24.606  15.363  20.365  0.1309  0.0253  0.1052
 7828W        W 8692  26.140   5.625  24.279  0.0504 -0.0053  0.1506
 7829W        W 8693   2.136  19.186  19.922 -0.2655  0.1628  0.2865
 7830W        W 8694   1.621   0.385  10.750  0.0062  0.2992 -0.1518
 7831W        W 8695  23.929   8.080  17.896 -0.1014 -0.0001  0.2892
 7832W        W 8696   9.870  20.232  22.652 -0.0811  0.0218 -0.0348
 7833W        W 8697  22.070  15.400   3.385 -0.2176 -0.4014 -0.0788
 7834W        W 8698  18.242  10.878  18.583 -0.0402  0.1420  0.2041
 7835W        W 8699  15.854   2.851  22.754  0.1423 -0.2676 -0.2223
 7836W        W 8700  18.871   5.644  17.472 -0.0438  0.0194  0.1461
 7837W        W 8701  20.742  10.670   1.298 -0.2736 -0.1682  0.0794
 7838W        W 8702   5.973  16.390  12.663 -0.2396  0.1744 -0.1301
 7839W        W 8703   8.622   4.802  11.614 -0.0511 -0.0436 -0.2410
 7840W        W 8704  11.139  22.524   0.276 -0.0158  0.1169 -0.1314
 7841W        W 8705  29.139  21.608   4.716  0.1260  0.1324 -0.1301
 7842W        W 8706  23.736  23.694  14.461  0.0379  0.2752  0.0805
 7843W        W 8707  16.867  22.317  13.764 -0.1198  0.1470 -0.1577
 7844W        W 8708   9.962   9.327  28.512  0.0675  0.0044  0.2060
 7845W        W 8709   1.181   1.868   5.692  0.2251 -0.0240 -0.0568
 7846W        W 8710  15.060  20.986   6.730  0.1662  0.3416  0.1631
 7847W        W 8711  22.770  25.675  25.133 -0.1767  0.0139  0.0092
 7848W        W 8712  12.813  14.070   4.385 -0.3235  0.1410 -0.1980
 7849W        W 8713  13.449  19.853  12.036  0.0077 -0.0581 -0.0793
 7850W        W 8714  12.455   8.301  23.957  0.0048  0.3497  0.0643
 7851W        W 8715  16.904   9.684  24.732  0.2548 -0.2654 -0.1144
 7852W        W 8716  11.950   9.152  17.158  0.1604 -0.2902  0.0059
 7853W        W 8717  17.120  14.224   2.521  0.1139 -0.0850 -0.0309
 7854W        W 8718  23.250  17.539  24.655  0.0650  0.1142 -0.0600
 7855W        W 8719  16.042  19.455  13.251  0.3872 -0.0619 -0.2306
 7856W        W 8720   1.288   6.999  27.031  0.0883  0.5671  0.2288
 7857W        W 8721  14.770   8.755  20.390 -0.0815  0.0061  0.2288
 7858W        W 8722  14.750  11.331  16.644  0.0253 -0.0336  0.1185
 7859W        W 8723   8.838   8.048  28.060 -0.0988 -0.1441 -0.2077
 7860W        W 8724   5.494  28.262  25.069 -0.1816  0.2500  0.2806
 7861W        W 8725  19.264  11.852  28.207 -0.2995 -0.1720 -0.1827
 7862W        W 8726   6.475   2.660   0.869 -0.2269  0.2375 -0.0012
 7863W        W 8727   4.021   2.223   4.778  0.2741  0.2195  0.1514
 7864W        W 8728  21.135   5.851   4.074 -0.4538 -0.0298 -0.0194
 7865W        W 8729  10.444  14.160  15.504 -0.0958  0.1474 -0.0829
 7866W        W 8730  11.773   4.916  15.896  0.2663  0.1427  0.0197
 7867W        W 8731   7.444  23.046  19.911 -0.1949  0.3372 -0.1065
 7868W        W 8732   5.507   8.460   5.507 -0.0370  0.0318  0.0440
 7869W        W 8733  11.161  15.457  10.443  0.0098 -0.0429  0.2628
 7870W        W 8734   6.340   9.090   2.458 -0.3431  0.0896 -0.2464
 7871W        W 8735  27.599   0.545  18.771  0.2228  0.1979 -0.0422
 7872W        W 8736   8.595  28.805   9.813  0.1873 -0.0955  0.1957
 7873W        W 8737  19.787   5.426  19.704 -0.1614 -0.0222 -0.1021
 7874W        W 8738   2.444  27.575   4.246 -0.2940 -0.2420  0.3325
 7875W        W 8739  13.498   8.301  20.276  0.0257  0.1671  0.0918
 7876W        W 8740  20.127  26.963   5.021 -0.0882 -0.1546 -0.1908
 7877W        W 8741  13.805   4.697  25.852  0.2593  0.1729 -0.2601
 7878W        W 8742  21.964   0.601  23.408 -0.1350 -0.0151  0.0064
 7879W        W 8743  10.239  14.416   9.750  0.2266 -0.2128 -0.0510
 7880W        W 8744   2.666  27.182  17.244 -0.0040 -0.1898 -0.1312
 7881W        W 8745  28.379  11.902  19.299  0.0706  0.1867  0.0790
 7882W        W 8746  26.584  13.145  18.769  0.1689 -0.2043 -0.0108
 7883W        W 8747   4.193  29.041  16.264  0.4322 -0.0607  0.0905
 7884W        W 8748  28.941  28.699   7.541  0.0719  0.1904  0.0598
 7885W        W 8749  27.672   8.473  22.430  0.4815  0.1817  0.0979
 7886W        W 8750   5.037  25.964  10.300 -0.3443  0.3268 -0.0944
 7887W        W 8751  28.704  24.394  13.527  0.0322 -0.3782  0.1112
 7888W        W 8752  11.359  19.027  16.525  0.0824 -0.0308 -0.1699
 7889W        W 8753   1.122  10.739  21.816  0.0520  0.2222  0.3783
 7890W        W 8754  15.692   2.608   3.343  0.1044  0.2045 -0.1143
 7891W        W 8755  24.212   7.407   7.103  0.0330 -0.0991 -0.1705
 7892W        W 8756   3.897  17.950  15.562 -0.1161  0.0894  0.1667
 7893W        W 8757   1.234  28.603  11.892  0.1796  0.2985 -0.2308
 7894W        W 8758  21.540   5.140  23.768 -0.1645 -0.3204 -0.0397
 7895W        W 8759  13.048  20.020  27.925  0.0920  0.2637 -0.2392
 7896W        W 8760   0.650  16.330  19.637  0.2485  0.0087  0.1713
 7897W        W 8761  15.873  27.785  25.295 -0.1318  0.1132 -0.1310
 7898W        W 8762   7.636   2.076  24.629 -0.3253 -0.1009 -0.3006
 7899W        W 8763  12.999  29.117  17.838  0.0665  0.0696  0.0471
 7900W        W 8764   8.335  28.580   3.331  0.0626 -0.0603 -0.0304
 7901W        W 8765   4.536   5.661   2.949  0.0683 -0.1065  0.2563
 7902W        W 8766   4.178  11.484  18.596 -0.0542  0.1906  0.0214
 7903W        W 8767   5.483   9.836   0.734  0.3330  0.2154  0.1480
 7904W        W 8768   2.998  19.048   3.455 -0.3173 -0.0586 -0.0681
 7905W        W 8769  19.728  20.658   9.989  0.2905  0.1132  0.0076
 7906W        W 8770  11.996  14.524   8.383 -0.1278  0.1608 -0.1511
 7907W        W 8771   8.151  17.870  23.061 -0.0981 -0.0241 -0.0750
 7908W        W 8772  22.071  26.862   1.548 -0.1662  0.0457  0.2333
 7909W        W 8773  16.641  10.693  16.228  0.0240  0.3868  0.0694
 7910W        W 8774  15.753   3.725   3.150 -0.0639  0.3782 -0.2565
 7911W        W 8775   5.739  23.264  26.379 -0.1764 -0.1241 -0.1156
 7912W        W 8776  15.833  11.477  26.728  0.0667  0.0023  0.1969
 7913W        W 8777  21.252  16.322  16.880 -0.3243  0.0696 -0.0460
 7914W        W 8778  18.931   2.452  18.197 -0.2238 -0.3741  0.4670
 7915W        W 8779   8.045   3.609   0.275 -0.1561  0.0675  0.2878
 7916W        W 8780   4.379  26.837   1.414  0.2243 -0.0948  0.0485
 7917W        W 8781   9.473   8.153  20.385 -0.1016  0.1854  0.0653
 7918W        W 8782  17.652  12.574  28.925  0.0031  0.3397 -0.2694
 7919W        W 8783  21.145   7.543  17.426 -0.0879 -0.0115  0.0570
 7920W        W 8784  20.547  13.268  19.021  0.0591 -0.2130 -0.0018
 7921W        W 8785  15.859   4.563  22.992 -0.3694  0.3050 -0.2627
 7922W        W 8786  11.445  23.723  26.215 -0.1658  0.1348  0.2717
 7923W        W 8787  21.018  22.456  14.060  0.1430 -0.1196 -0.3547
 7924W        W 8788  25.204   6.905  20.275  0.0332 -0.0148  0.0432
 7925W        W 8789  20.339   3.303  19.141 -0.1862  0.0383  0.1681
 7926W        W 8790  19.965   4.965  18.858  0.1957  0.0469 -0.0737
 7927W        W 8791  18.979   7.534  23.764 -0.0853  0.0346  0.1445
 7928W        W 8792   1.170  24.625  28.161  0.0223 -0.0526 -0.2089
 7929W        W 8793   7.309   1.346   9.548  0.3687 -0.0759 -0.0450
 7930W        W 8794  24.633   4.479   9.081 -0.1675 -0.0372 -0.0510
 7931W        W 8795  14.144   4.683   1.954 -0.0584 -0.1094  0.2634
 7932W        W 8796  23.941  28.060  15.129  0.0730  0.0652 -0.1430
 7933W        W 8797   8.916  19.001  24.294 -0.2738 -0.2363  0.1158
 7934W        W 8798   8.795  19.489  15.066  0.3927  0.0888  0.2626
 7935W        W 8799  17.302  22.449   7.335  0.3147  0.2424 -0.0469
 7936W        W 8800  11.749  18.848  21.670 -0.0348 -0.0292 -0.0998
 7937W        W 8801  14.087  19.866   8.229 -0.0908  0.1357 -0.2908
 7938W        W 8802  11.402   5.744  27.150 -0.0428 -0.0710  0.0304
 7939W        W 8803  28.596  13.566  13.931  0.0286  0.0631 -0.3761
 7940W        W 8804  20.498   3.570  22.408  0.2257  0.0009 -0.0698
 7941W        W 8805   9.040  28.845   0.687 -0.1900 -0.0234 -0.0153
 7942W        W 8806  23.264  26.665  27.101  0.1127 -0.0082  0.1780
 7943W        W 8807  17.193  11.866   2.521 -0.1806 -0.0620 -0.2469
 7944W        W 8808  20.115  26.206  15.042  0.0618  0.1179 -0.0547
 7945W        W 8809   7.098   3.355  16.910 -0.0546  0.2194  0.3485
 7946W        W 8810  10.638  12.655  16.706 -0.0686 -0.1857  0.3989
 7947W        W 8811  23.688   4.527  13.900  0.0091  0.0858  0.2074
 7948W        W 8812   2.209   7.590   8.677  0.0340  0.0327  0.0426
 7949W        W 8813  17.461  27.466   0.965  0.3461  0.2042 -0.1971
 7950W        W 8814   4.897  14.238  17.415  0.0536  0.3544 -0.0508
 7951W        W 8815  20.632   2.332  17.918 -0.1838  0.2267 -0.0597
 7952W        W 8816  25.455  15.765   8.223 -0.2097  0.3241 -0.1163
 7953W        W 8817  28.543  10.887  17.509  0.0217 -0.0500  0.0358
 7954W        W 8818   0.309   7.020   9.879  0.0816  0.0756  0.0075
 7955W        W 8819  19.280   8.209  22.181  0.2458 -0.0245  0.1239
 7956W        W 8820   9.705   9.147   6.244  0.0740  0.2833 -0.0048
 7957W        W 8821  28.457  12.383  19.324 -0.1115  0.2553  0.0978
 7958W        W 8822   2.319   8.513   8.743 -0.4456  0.0004 -0.1252
 7959W        W 8823   1.299   4.270   8.348  0.0045 -0.2388 -0.2940
 7960W        W 8824   1.517  11.280  15.944 -0.0998  0.2149 -0.0096
 7961W        W 8825  20.471  11.005   1.863  0.2342 -0.0873 -0.0963
 7962W        W 8826  19.223  28.587  19.276 -0.0629  0.2311 -0.1741
 7963W        W 8827   5.183  26.507  26.665 -0.2579  0.1918 -0.3492
 7964W        W 8828   3.348  24.621  26.240  0.3390 -0.1001 -0.2656
 7965W        W 8829  20.388   2.789  18.026 -0.0420  0.2252 -0.0579
 7966W        W 8830  17.371   1.515  10.021  0.2558  0.0209 -0.2344
 7967W        W 8831  10.547   4.714  27.305  0.0258  0.0097 -0.0227
 7968W        W 8832  10.819  20.836  26.734 -0.0692 -0.1843 -0.0190
 7969W        W 8833  13.492   1.844  22.115 -0.3573 -0.2572  0.1506
 7970W        W 8834  28.854   1.218   4.740  0.3377 -0.1676  0.1424
 7971W        W 8835  19.007  19.092  17.219 -0.1401 -0.0091  0.1855
 7972W        W 8836  24.009  15.411  20.328  0.1874 -0.0428 -0.1629
 7973W        W 8837  20.837  10.290   8.412 -0.1210  0.0148  0.2177
 7974W        W 8838  26.410  18.042   7.021 -0.1826 -0.1184  0.1715
 7975W        W 8839   2.515  22.976  18.149 -0.1954 -0.2295  0.1624
 7976W        W 8840  25.351  10.246   4.622  0.0498  0.0754 -0.1433
 7977W        W 8841   2.199  27.707  15.470 -0.1743 -0.0825  0.2220
 7978W        W 8842  11.931  10.718  28.088 -0.2707  0.1421 -0.0713
 7979W        W 8843  23.360  27.068   7.966 -0.3364  0.1731  0.2966
 7980W        W 8844  14.315  10.413  11.088 -0.3851 -0.0478  0.0672
 7981W        W 8845   3.152  19.525  26.788  0.0429 -0.2386 -0.0543
 7982W        W 8846   8.407   4.358  28.212  0.0027  0.0451 -0.1113
 7983W        W 8847  11.864  24.493  19.816 -0.1397 -0.1253  0.1045
 7984W        W 8848  11.455  22.714  24.982 -0.1317  0.3519  0.0064
 7985W        W 8849  16.186   7.088  18.426  0.0719  0.0380  0.2519
 7986W        W 8850   9.920   1.098  21.988 -0.0377  0.0095  0.0390
 7987W        W 8851  24.094   1.793   9.504  0.2084  0.1419 -0.0221
 7988W        W 8852  15.585   8.747  16.011  0.0109  0.0134 -0.2403
 7989W        W 8853  23.555   7.752  27.601 -0.0623  0.1029  0.2320
 7990W        W 8854  22.927   6.846  14.734  0.1272  0.0278 -0.0052
 7991W        W 8855  22.464  13.535  22.364 -0.0749  0.1764 -0.0475
 7992W        W 8856  24.585   8.620   8.502  0.3789 -0.0733 -0.1754
 7993W        W 8857  17.425   6.516  16.735  0.1412 -0.0006 -0.1849
 7994W        W 8858   8.278   0.104  19.815  0.0111  0.0060 -0.3216
 7995W        W 8859   1.538  25.584   7.529 -0.1636  0.1918 -0.0658
 7996W        W 8860  15.455   2.853  26.915 -0.2084 -0.0965 -0.0767
 7997W        W 8861  14.981   6.987  11.347 -0.0556 -0.1990  0.0850
 7998W        W 8862  20.780   9.325  15.100 -0.0395 -0.3878  0.1309
 7999W        W 8863  26.213  12.113  17.198  0.1561 -0.1028  0.3099
 8000W        W 8864   0.208   2.925  19.533 -0.0474  0.0720 -0.1340
 8001W        W 8865  10.439   9.882  21.029  0.1541 -0.1294  0.2747
 8002W        W 8866  13.461  10.430  25.286  0.2640 -0.0120 -0.1876
 8003W        W 8867  16.757   9.743  13.824 -0.1277  0.4552  0.0090
 8004W        W 8868  21.012  13.757   1.970  0.1732 -0.0620 -0.0779
 8005W        W 8869  25.667  14.956  17.023  0.2979 -0.1236 -0.2868
 8006W        W 8870  23.329  28.977   3.196 -0.4071  0.1571  0.0127
 8007W        W 8871  20.957   8.299  21.080 -0.0569 -0.1249 -0.0514
 8008W        W 8872   6.258  23.863  22.183  0.0012  0.0390  0.0732
 8009W        W 8873  23.082   7.926  17.425  0.0024  0.0429 -0.0722
 8010W        W 8874  24.366  29.024  15.898 -0.1514 -0.1079 -0.0144
 8011W        W 8875   7.125   0.026  19.540  0.0530  0.0959 -0.2101
 8012W        W 8876   4.819  25.767  19.401 -0.0731  0.1758 -0.0766
 8013W        W 8877   9.423   2.920   9.688 -0.1483 -0.2660 -0.0707
 8014W        W 8878  24.778  23.902   1.984 -0.4270 -0.1454  0.0977
 8015W        W 8879  26.962   7.035  21.424  0.0189  0.1144  0.0391
 8016W        W 8880  10.500  24.380  17.486 -0.2854  0.2532 -0.5217
 8017W        W 8881  19.733  20.911   0.759  0.0243 -0.0352  0.3154
 8018W        W 8882  21.129   1.449  10.357  0.4472 -0.0728 -0.0877
 8019W        W 8883   3.288   4.448   8.673  0.0706 -0.0113  0.0021
 8020W        W 8884  15.306   8.260  24.202  0.1111 -0.2862 -0.1394
 8021W        W 8885  28.448  17.287  12.133  0.3504 -0.2180  0.1574
 8022W        W 8886  11.639   7.191   4.883  0.0701  0.2319  0.0449
 8023W        W 8887  18.529   9.682   7.129  0.0731  0.1787 -0.1690
 8024W        W 8888  26.119   1.051   2.145  0.1715  0.1028 -0.0748
 8025W        W 8889  18.873  17.706  10.917  0.0836 -0.4090 -0.2470
 8026W        W 8890  13.798  27.009  25.671  0.1268  0.1357 -0.2231
 8027W        W 8891  15.863   7.592   2.631 -0.0168 -0.2451  0.2647
 8028W        W 8892  24.715  15.239  15.892 -0.1953  0.0185 -0.0430
 8029W        W 8893   6.224  21.566  12.526  0.0047  0.1563  0.0975
 8030W        W 8894   3.494  28.118  16.467 -0.0427  0.3135  0.0489
 8031W        W 8895  18.059   8.169  18.766  0.1143 -0.0808 -0.2285
 8032W        W 8896   3.324  22.188  28.045  0.0650  0.1703 -0.0193
 8033W        W 8897  28.113  28.763   8.007  0.0836  0.0867 -0.0760
 8034W        W 8898   6.662   7.724  20.345  0.3698 -0.0352  0.2161
 8035W        W 8899   6.688   2.905  25.068  0.0439 -0.0113 -0.2120
 8036W        W 8900  19.914  16.796  24.350  0.4581 -0.4341  0.0917
 8037W        W 8901  18.002  23.333  21.490 -0.1015 -0.1411  0.2765
 8038W        W 8902  15.877  12.604  20.534  0.1267  0.1093  0.0114
 8039W        W 8903  18.129   9.490   8.816  0.0384 -0.1245 -0.2056
 8040W        W 8904   4.022  28.985  22.078  0.0870 -0.2761 -0.0977
 8041W        W 8905  24.503   4.229  17.219 -0.0586 -0.1045  0.0720
 8042W        W 8906  25.768  15.158   4.131 -0.1263 -0.4648 -0.1137
 8043W        W 8907  16.479   9.874   1.316 -0.0858  0.2125  0.0093
 8044W        W 8908  13.944   1.456   0.278 -0.0808 -0.0207  0.0177
 8045W        W 8909  19.756  11.721  28.702 -0.1820  0.4942 -0.0441
 8046W        W 8910  10.992   6.049  12.892  0.1023  0.3703  0.0189
 8047W        W 8911  11.786  10.362  25.790 -0.0601  0.1221  0.1215
 8048W        W 8912   0.750   8.593   7.565 -0.1280  0.2346  0.0731
 8049W        W 8913  18.839   3.982  21.593 -0.2236 -0.0185 -0.1361
 8050W        W 8914   3.503   5.192  21.230 -0.1267 -0.1059  0.2433
 8051W        W 8915   1.843   9.217  15.263  0.3930  0.0621 -0.5542
 8052W        W 8916   8.107  10.631  21.031 -0.0811 -0.1667 -0.2733
 8053W        W 8917  21.891  11.955   6.895 -0.0829  0.3116 -0.0887
 8054W        W 8918  17.311  12.835  26.871  0.1762  0.0719 -0.0067
 8055W        W 8919  14.281  25.399  21.905 -0.1961 -0.0540 -0.0597
 8056W        W 8920  16.030  15.955  24.144  0.0388 -0.4082 -0.0261
 8057W        W 8921  25.992   3.543  10.955 -0.0747 -0.2314 -0.1549
 8058W        W 8922  27.144   5.131  26.547  0.1515  0.0375  0.3021
 8059W        W 8923  24.016  23.887   6.522  0.0303  0.1672  0.2046
 8060W        W 8924  19.380  26.719  11.630  0.0659 -0.1734  0.2722
 8061W        W 8925   4.049  18.883   8.595 -0.2740 -0.2173  0.2815
 8062W        W 8926   6.137   1.381   7.841  0.1143  0.0126  0.2089
 8063W        W 8927  17.264  15.131  27.648 -0.1793  0.0632  0.2679
 8064W        W 8928  18.778  17.208   9.174 -0.3469  0.0270 -0.1677
 8065W        W 8929  14.750  27.807  19.293  0.1736 -0.2699 -0.0037
 8066W        W 8930  18.734  26.620  26.566 -0.0924  0.0156 -0.2206
 8067W        W 8931  28.181  13.113  11.102  0.0608  0.0525 -0.1598
 8068W        W 8932  27.636  22.047   1.922  0.1255 -0.1633  0.2491
 8069W        W 8933  27.070  28.651  27.698  0.1285  0.0169  0.3745
 8070W        W 8934  10.015   8.824  17.099  0.2600  0.0270  0.1240
 8071W        W 8935  23.929   4.257  19.830  0.0411 -0.1546 -0.2017
 8072W        W 8936  25.511  21.949   7.749 -0.0416  0.3250  0.1489
 8073W        W 8937   6.943   4.821   7.900  0.0257  0.1027 -0.1733
 8074W        W 8938  20.096  23.550  17.365 -0.1797 -0.1011 -0.0365
 8075W        W 8939  21.138  21.788  10.622  0.0703  0.0869 -0.0186
 8076W        W 8940  24.599  28.973  11.594  0.0222 -0.1612  0.1264
 8077W        W 8941   7.456   0.146  20.973 -0.0682  0.0149 -0.2122
 8078W        W 8942   3.447  17.278  12.973  0.3143 -0.2017 -0.0379
 8079W        W 8943  11.653  22.722  13.398  0.1020  0.2144 -0.2740
 8080W        W 8944  10.453   5.543  22.800 -0.1993 -0.2974 -0.1040
 8081W        W 8945  16.505   5.322  13.692  0.0691 -0.0153 -0.0781
 8082W        W 8946  23.807  28.951  16.625  0.0718 -0.0465 -0.1901
 8083W        W 8947  28.285  15.535  16.796  0.2981 -0.0354 -0.0260
 8084W        W 8948  24.206   0.227  12.506 -0.1736  0.2100 -0.2463
 8085W        W 8949  19.251   3.096  20.825 -0.0142 -0.3555 -0.0874
 8086W        W 8950  10.317  11.430   9.370  0.0695 -0.0648  0.2994
 8087W        W 8951  25.781  28.631   6.339  0.1679 -0.1606  0.1581
 8088W        W 8952  25.316  13.334  27.197 -0.1432 -0.0858 -0.2257
 8089W        W 8953  16.569  27.218  28.168 -0.1368 -0.3055  0.0136
 8090W        W 8954  18.475  18.928  17.012 -0.1493 -0.0225  0.0813
 8091W        W 8955  13.604   8.286  14.203  0.1916  0.0402 -0.0276
 8092W        W 8956  27.304  26.050   0.556  0.0403 -0.0707 -0.2256
 8093W        W 8957  12.637  12.033   7.321  0.2548 -0.2641 -0.0448
 8094W        W 8958   8.304  15.409  28.021 -0.0920  0.0036  0.1548
 8095W        W 8959   9.266  19.666  20.165  0.0942 -0.2091  0.0031
 8096W        W 8960  11.261  11.511  24.178 -0.1653  0.0059  0.0291
 8097W        W 8961  20.115  23.912  13.418  0.0548  0.3741 -0.1722
 8098W        W 8962  15.183  17.392  15.600 -0.1579  0.2915 -0.1970
 8099W        W 8963  10.880   6.235  23.205 -0.2261 -0.0959  0.2740
 8100W        W 8964  16.324  20.178  12.949  0.0446 -0.0047 -0.2830
 8101W        W 8965   4.963  23.828  16.503  0.0397 -0.0060 -0.1422
 8102W        W 8966  25.696  22.997  16.185  0.0788  0.2418 -0.1966
 8103W        W 8967  21.501  13.085   9.386  0.0492 -0.0005 -0.0087
 8104W        W 8968   3.517   4.247  22.138 -0.0988 -0.0030 -0.1875
 8105W        W 8969   8.874   9.621  15.923  0.2981  0.0052  0.0250
 8106W        W 8970  20.982   0.404   7.862 -0.1714  0.1704  0.1304
 8107W        W 8971  15.438  11.324  14.774  0.0171  0.1544 -0.0192
 8108W        W 8972  18.235  18.630  26.564 -0.1701  0.1127  0.0604
 8109W        W 8973  18.705   2.086  14.839  0.0675  0.4079  0.1751
 8110W        W 8974  27.312  13.153   4.329 -0.0745 -0.2499  0.0683
 8111W        W 8975  23.422  22.933  24.035 -0.1768 -0.2709 -0.2227
 8112W        W 8976   1.738  25.711  23.607  0.0110  0.0684  0.3671
 8113W        W 8977  17.545  11.457  26.218 -0.0576  0.0134 -0.2974
 8114W        W 8978  15.898   5.634  22.708 -0.2994  0.2405 -0.0954
 8115W        W 8979   8.544  11.121  25.828 -0.1358 -0.1588 -0.2155
 8116W        W 8980  21.083  24.362   4.266 -0.1364 -0.1152  0.2744
 8117W        W 8981   6.200   5.835   8.624  0.0992  0.1204 -0.1697
 8118W        W 8982   9.143  15.949  23.166 -0.0307  0.2181  0.3271
 8119W        W 8983  12.738   5.392  26.848 -0.1257 -0.0462 -0.1354
 8120W        W 8984  20.411  18.515  19.566  0.0494  0.2367  0.4178
 8121W        W 8985   0.415  19.930  13.922 -0.0935 -0.0113  0.3728
 8122W        W 8986  24.918   4.343  20.165 -0.2130 -0.2290  0.0065
 8123W        W 8987  11.593   0.101  19.794  0.1094 -0.0377 -0.3734
 8124W        W 8988  10.001  24.931  14.189  0.1673  0.1908 -0.0710
 8125W        W 8989  20.117  10.868  28.580  0.0660 -0.1205  0.3577
 8126W        W 8990   8.192  11.644   5.218  0.1291  0.1593 -0.2793
 8127W        W 8991   9.583  12.715  14.835 -0.1129 -0.2158 -0.3210
 8128W        W 8992  19.980   7.741  17.263 -0.0774  0.0953  0.2079
 8129W        W 8993   5.024  25.458   6.905  0.0841  0.2849  0.0814
 8130W        W 8994   1.004  24.174  14.899 -0.0546 -0.0147  0.0019
 8131W        W 8995   7.898   9.255  25.436 -0.0143  0.1133  0.0375
 8132W        W 8996   5.477  26.531  22.283 -0.1786  0.1887 -0.0861
 8133W        W 8997  10.879  21.264   6.013 -0.1121 -0.0974 -0.2006
 8134W        W 8998  28.221  15.455   0.267  0.1949  0.0209  0.1325
 8135W        W 8999  15.222   9.556  28.047  0.0892  0.0614  0.0246
 8136W        W 9000  15.681   9.462  22.908 -0.0493  0.2626 -0.1979
 8137W        W 9001  26.541   9.362  23.933  0.0237 -0.2568  0.0024
 8138W        W 9002   9.926  22.048   9.827 -0.3386 -0.0340 -0.0067
 8139W        W 9003  24.284   0.657  14.006  0.0806 -0.1757 -0.0230
 8140W        W 9004  25.754   9.189   1.743 -0.0800 -0.0356 -0.1551
 8141W        W 9005  24.277  15.940  15.474  0.0239 -0.1787  0.0174
 8142W        W 9006  23.546  18.035   1.402  0.2722  0.0898 -0.0094
 8143W        W 9007  22.520  23.380  19.817  0.3742  0.1162 -0.1030
 8144W        W 9008  12.081  16.392  22.380  0.0439  0.1510  0.0850
 8145W        W 9009  16.890  13.151  24.033  0.2181 -0.0873 -0.2391
 8146W        W 9010  12.632   4.002   3.768  0.0028 -0.0834  0.1528
 8147W        W 9011   2.192  12.063  19.339  0.2279  0.0620  0.0149
 8148W        W 9012  29.066   6.310  27.994 -0.1363 -0.1298  0.0033
 8149W        W 9013  28.848   5.607  11.498  0.1081 -0.3455  0.2103
 8150W        W 9014  27.279  26.834  25.371  0.0603 -0.4000  0.1426
 8151W        W 9015  21.302  24.102  19.992 -0.0737 -0.0881  0.0281
 8152W        W 9016  19.092   0.068   1.476 -0.0325  0.0233 -0.0260
 8153W        W 9017  17.215  16.567   6.024 -0.0063  0.3300  0.1347
 8154W        W 9018  17.142   2.508  27.871 -0.0413 -0.2396 -0.1467
 8155W        W 9019  14.562  26.755   2.534  0.1029  0.0201  0.1717
 8156W        W 9020  20.597  22.252   4.256  0.1368 -0.0916  0.1307
 8157W        W 9021  28.134   1.667  20.242  0.1601  0.1057  0.2085
 8158W        W 9022   7.474   8.803  27.441  0.1013 -0.1755 -0.2129
 8159W        W 9023  20.017  19.271  28.087 -0.2299  0.3367  0.1800
 8160W        W 9024  27.591   8.384   7.758  0.0065  0.0731 -0.5514
 8161W        W 9025  10.510   8.243  16.842 -0.0935  0.0121  0.0435
 8162W        W 9026   9.932   6.517   0.361  0.0465 -0.1354  0.1633
 8163W        W 9027   6.867   9.379  25.945 -0.0531  0.0558  0.0762
 8164W        W 9028  13.614   4.773  28.462 -0.1052  0.0008  0.0327
 8165W        W 9029  20.996   2.835   1.401  0.0787 -0.0450  0.0535
 8166W        W 9030  24.956  12.522  22.050  0.0682  0.1062  0.2581
 8167W        W 9031  27.351  10.568  15.891  0.1489  0.0677 -0.0306
 8168W        W 9032  24.282  17.715  25.135 -0.1439  0.2474 -0.0414
 8169W        W 9033  11.258   4.154  22.818  0.2046 -0.1180 -0.0669
 8170W        W 9034  22.009  17.348  22.351  0.2839  0.2034 -0.1080
 8171W        W 9035  12.900   4.903  26.008 -0.1204 -0.0396  0.1124
 8172W        W 9036  10.173  16.036   2.321  0.2092  0.0104 -0.0364
 8173W        W 9037  25.009  24.035  10.433 -0.0015 -0.4637 -0.0412
 8174W        W 9038  21.246   2.875  14.818  0.0773  0.1987 -0.0034
 8175W        W 9039   9.612  26.536  22.243 -0.0037  0.1660 -0.3203
 8176W        W 9040  22.579  23.163  18.884  0.0022 -0.0613 -0.1013
 8177W        W 9041  22.222  18.914  15.056 -0.3866  0.0353  0.0150
 8178W        W 9042   7.808  25.216  17.353  0.0363  0.1722 -0.1630
 8179W        W 9043  24.236  14.134  29.053 -0.0668 -0.1960 -0.2093
 8180W        W 9044  17.988  26.958  13.982  0.0827 -0.1859  0.0575
 8181W        W 9045  12.692   0.739  27.553  0.0732  0.5657  0.1153
 8182W        W 9046   2.225   8.031  19.820 -0.2319 -0.2131  0.1429
 8183W        W 9047  20.380  26.781  26.357  0.2281 -0.1970  0.1146
 8184W        W 9048   0.041   8.863  19.104 -0.1629 -0.2082 -0.2183
 8185W        W 9049  17.494  24.015  21.303  0.0618 -0.0561  0.2447
 8186W        W 9050   9.294  18.924  18.947 -0.0148  0.0925 -0.3661
 8187W        W 9051  26.286  11.292   5.263 -0.1780 -0.2641  0.5448
 8188W        W 9052   6.855  11.176  16.987  0.0045  0.2235  0.1299
 8189W        W 9053  25.631  14.666  14.877 -0.3386 -0.0498 -0.0376
 8190W        W 9054  11.640   2.387  11.307  0.1020  0.0559 -0.1063
 8191W        W 9055   8.727   1.859  21.736  0.2347  0.1432 -0.0984
 8192W        W 9056  18.753  29.086  27.266  0.4517  0.1180  0.2410
 8193W        W 9057   0.882  18.825  17.011  0.1662  0.2385 -0.1900
 8194W        W 9058  25.843  13.497   2.463 -0.0609  0.0237  0.0780
 8195W        W 9059   1.865   8.758  22.294  0.0231 -0.2336  0.3004
 8196W        W 9060  16.375  17.877  23.448  0.0341 -0.3072  0.0071
 8197W        W 9061  29.112   5.841  26.896  0.3929 -0.0141  0.3398
 8198W        W 9062  21.924   9.145  13.202 -0.0316 -0.1045  0.3338
 8199W        W 9063  11.868   6.176   7.143 -0.6856 -0.0726 -0.1329
 8200W        W 9064   1.948  20.538  23.442 -0.2975 -0.2703  0.0727
 8201W        W 9065   3.144  24.178  21.993  0.0322 -0.0159  0.1120
 8202W        W 9066   4.779   4.480  19.981 -0.0810  0.2097  0.3006
 8203W        W 9067  23.304   6.791   5.698 -0.2456 -0.0696 -0.1910
 8204W        W 9068  18.263   7.956  25.500  0.2316  0.1439  0.1656
 8205W        W 9069  10.657   5.124  16.388  0.2239  0.0021  0.1193
 8206W        W 9070   8.081  28.437  14.407 -0.5703  0.1735  0.0382
 8207W        W 9071  13.940  19.980  19.945 -0.4344  0.0536  0.2176
 8208W        W 9072  19.097  23.789  22.335 -0.2610  0.0861 -0.0967
 8209W        W 9073  23.954   8.864   8.266 -0.0430  0.0570  0.1097
 8210W        W 9074  25.375  12.504  25.814  0.1081  0.1665 -0.1407
 8211W        W 9075  13.295  22.771  24.419  0.0802  0.1564  0.0650
 8212W        W 9076  24.629   2.162  15.462 -0.1935  0.2333  0.1916
 8213W        W 9077   2.903   6.292   7.745  0.0217  0.0781  0.1797
 8214W        W 9078   8.355   7.720  27.044 -0.1888 -0.1265  0.1891
 8215W        W 9079  18.019  10.877  16.967  0.4399  0.0969  0.0288
 8216W        W 9080  24.960  20.689   0.046  0.0845 -0.0257 -0.0840
 8217W        W 9081  15.174  11.593  16.627 -0.1601 -0.1102 -0.2097
 8218W        W 9082  28.135  16.652  20.663  0.3065 -0.0844 -0.1734
 8219W        W 9083  18.756  28.472  12.960 -0.0856  0.1920 -0.2179
 8220W        W 9084   6.733  28.963   4.837  0.2864  0.0624 -0.0066
 8221W        W 9085  13.132   9.221  19.776 -0.0947  0.0749 -0.0101
 8222W        W 9086  13.150  13.626  16.010 -0.0789 -0.1206  0.1208
 8223W        W 9087  16.385   1.733   4.298 -0.0075  0.3740 -0.0631
 8224W        W 9088   6.252  10.932  18.636 -0.4520 -0.2724  0.1122
 8225W        W 9089  19.556   9.239  21.637 -0.1796  0.1067  0.0315
 8226W        W 9090   2.299   7.789  22.226  0.3071  0.0083  0.3268
 8227W        W 9091   0.755   5.734   6.297  0.3544  0.0265 -0.2430
 8228W        W 9092  11.440  18.049  29.043 -0.2947 -0.1176  0.0539
 8229W        W 9093  22.956  26.467  25.048  0.2108 -0.1227 -0.0515
 8230W        W 9094  14.648  28.027   9.236 -0.1083  0.0814 -0.2220
 8231W        W 9095   8.328   9.739  26.311 -0.1720 -0.0906 -0.0728
 8232W        W 9096  12.804   8.279   2.151 -0.0161 -0.0669  0.1031
 8233W        W 9097  26.929   0.842   5.897 -0.0852 -0.1242  0.1399
 8234W        W 9098  25.264  23.491   7.309  0.1068 -0.2177 -0.1012
 8235W        W 9099  15.233  24.560   6.387  0.3382 -0.0713  0.2630
 8236W        W 9100   2.086   2.330  18.158 -0.4257 -0.0411 -0.0650
 8237W        W 9101  14.424  16.772  10.162  0.4309 -0.1535  0.0375
 8238W        W 9102  13.175   7.975   5.378  0.0913 -0.0397 -0.0234
 8239W        W 9103  10.962   9.841  20.337  0.3025  0.0066  0.0861
 8240W        W 9104   8.620   3.287  15.853 -0.0365  0.3447  0.0566
 8241W        W 9105  16.770  29.089  10.644  0.2233 -0.2013  0.6047
 8242W        W 9106  11.226  24.790   7.363 -0.1217 -0.0140 -0.0243
 8243W        W 9107  17.113  13.829   8.752  0.0437 -0.0481 -0.0616
 8244W        W 9108  16.481   5.505  18.728 -0.1056 -0.2221  0.0305
 8245W        W 9109  17.877  19.609  15.812 -0.0121  0.0431 -0.2138
 8246W        W 9110  11.504  12.174   7.657  0.1019  0.1373  0.0009
 8247W        W 9111  11.333   4.591  25.642 -0.0759 -0.0309  0.3151
 8248W        W 9112  21.342  10.330   4.079 -0.2384 -0.1232 -0.3127
 8249W        W 9113  23.158  28.698   1.633 -0.0118  0.0087 -0.2397
 8250W        W 9114  27.112   0.205  20.611  0.0478 -0.0597 -0.0948
 8251W        W 9115  20.361  14.339  25.284  0.2392  0.0477  0.1293
 8252W        W 9116   7.520  14.330  24.673  0.1926 -0.4024 -0.2976
 8253W        W 9117  13.854   1.441   4.997 -0.1664  0.0989  0.0188
 8254W        W 9118  25.167  16.604   2.735 -0.0442  0.0201 -0.2439
 8255W        W 9119  21.284   5.908  16.444  0.1667 -0.0738 -0.0372
 8256W        W 9120   1.791   6.799  20.136 -0.0870  0.1925  0.2664
 8257W        W 9121  21.554   4.858   0.426  0.1882 -0.1141  0.2682
 8258W        W 9122  28.090  16.464  10.102  0.0829 -0.3451 -0.2283
 8259W        W 9123  27.050  17.800  19.782 -0.1308  0.0705  0.0212
 8260W        W 9124  12.811  18.806   6.618  0.0875  0.2939  0.3273
 8261W        W 9125  12.467   9.801   1.354  0.1983  0.0207 -0.1014
 8262W        W 9126  17.416   3.769  29.094 -0.1809 -0.2707  0.2877
 8263W        W 9127  17.297   9.516   3.865  0.5447 -0.0672 -0.3421
 8264W        W 9128   0.032  14.892   4.168  0.1006 -0.2831 -0.2961
 8265W        W 9129  24.221  11.846   3.290  0.1158 -0.2200 -0.1531
 8266W        W 9130  26.113   2.568  20.564  0.4422 -0.2346 -0.0487
 8267W        W 9131  14.033  15.982  13.990  0.0998  0.2192 -0.3240
 8268W        W 9132  10.992  11.556  13.322  0.0042 -0.1408 -0.1329
 8269W        W 9133   6.916   5.258  20.462  0.0165 -0.2782 -0.0323
 8270W        W 9134  28.035  21.748   4.624  0.3742 -0.0749  0.0405
 8271W        W 9135   0.096  12.498   5.326 -0.3862  0.1380  0.0001
 8272W        W 9136   1.393  20.253  24.581 -0.3630 -0.5606 -0.0064
 8273W        W 9137   7.589   6.031  21.825  0.0082 -0.1453 -0.1316
 8274W        W 9138  18.313  24.156  14.154 -0.2580  0.0599 -0.0703
 8275W        W 9139   9.961   7.834  14.976 -0.1807  0.1413 -0.3567
 8276W        W 9140   8.952  27.276  18.033 -0.0775  0.3466 -0.1442
 8277W        W 9141  11.051  23.244   4.533  0.1110  0.2992 -0.0107
 8278W        W 9142  10.699   1.810   2.929  0.1386 -0.0507 -0.3469
 8279W        W 9143  21.815   4.504   6.577  0.1264 -0.0457 -0.1178
 8280W        W 9144  14.403   5.597  16.276  0.2214  0.3039 -0.2728
 8281W        W 9145  12.163  22.669  19.266 -0.0254  0.1040  0.0633
 8282W        W 9146  24.126  19.791  13.467  0.2317 -0.0351  0.0988
 8283W        W 9147  25.727  10.746  26.620  0.0486  0.2620  0.1609
 8284W        W 9148   1.204   1.167  27.239  0.0753 -0.0081 -0.1461
 8285W        W 9149  15.974  21.987  28.816 -0.2590 -0.0492 -0.3001
 8286W        W 9150  20.250   1.816  23.605  0.1239 -0.3252 -0.0182
 8287W        W 9151  18.630  21.896  20.450  0.2442  0.2289  0.1676
 8288W        W 9152  16.046  18.795  26.877  0.0967  0.1633  0.0530
 8289W        W 9153  12.108   8.242  24.885  0.0181  0.2596  0.0303
 8290W        W 9154  15.527   5.867  21.575  0.1792  0.1385 -0.1142
 8291W        W 9155  10.482   8.074  22.293 -0.1145 -0.1292 -0.0371
 8292W        W 9156   3.802   1.962  22.264  0.2203 -0.0680 -0.0840
 8293W        W 9157  24.010  26.375  16.739 -0.2436  0.2149 -0.3716
 8294W        W 9158  25.275  14.813   5.076  0.3578 -0.0238  0.2563
 8295W        W 9159  23.225  18.679  22.052 -0.0332  0.0438 -0.0097
 8296W        W 9160   0.210  12.132  17.107  0.0066  0.0996  0.0379
 8297W        W 9161  16.319  28.715  12.954  0.0529  0.1171 -0.2351
 8298W        W 9162  26.267  28.669   5.072 -0.1269  0.1928 -0.3017
 8299W        W 9163   0.431   8.903  23.534 -0.2270  0.1659  0.1692
 8300W        W 9164  17.713   9.258  23.741  0.0336  0.1134 -0.0928
 8301W        W 9165  12.879  23.981  24.577  0.0590 -0.0973 -0.2040
 8302W        W 9166  15.246   7.052  13.939 -0.1383 -0.1315  0.2056
 8303W        W 9167   3.049  28.626   6.222  0.3476  0.0706 -0.2407
 8304W        W 9168  12.803  28.374  22.450  0.1916 -0.2349  0.0064
 8305W        W 9169  15.126  14.249  26.899 -0.1210 -0.1363 -0.0601
 8306W        W 9170  16.176  26.486   5.286  0.1829 -0.2095  0.1303
 8307W        W 9171   4.374   3.998  10.068  0.2237 -0.3532  0.1383
 8308W        W 9172   8.188   9.570  24.340 -0.1559 -0.0508 -0.0216
 8309W        W 9173   1.072  28.054   4.722  0.0625 -0.1903 -0.1118
 8310W        W 9174  23.833  15.972  27.415 -0.2128 -0.2248 -0.1831
 8311W        W 9175  18.840  14.531   2.541  0.0246 -0.2025 -0.2269
 8312W        W 9176  25.190   7.204  26.511 -0.3305 -0.0851 -0.2840
 8313W        W 9177   2.531   3.074  19.307  0.0665  0.2227 -0.0553
 8314W        W 9178  15.799  19.970   4.574  0.0764 -0.2645  0.1678
 8315W        W 9179  11.491   3.922  26.308 -0.0390 -0.0823  0.0956
 8316W        W 9180   4.358   5.572   0.974  0.2795  0.0728 -0.0414
 8317W        W 9181   5.694   5.802  13.594  0.3794 -0.1902 -0.0559
 8318W        W 9182  16.067  19.723  12.025  0.0023 -0.1844 -0.4179
 8319W        W 9183  20.159   9.511  22.681 -0.0638  0.1678  0.0793
 8320W        W 9184   4.934  26.859   2.898 -0.0394  0.1470  0.1763
 8321W        W 9185  19.380  24.992  20.438 -0.2879  0.0559 -0.1740
 8322W        W 9186  14.903   6.367  17.457 -0.0682 -0.4711 -0.1236
 8323W        W 9187   9.589  16.557   2.419 -0.3373 -0.3350  0.0608
 8324W        W 9188   1.290  19.193  22.520 -0.5377 -0.0056 -0.2637
 8325W        W 9189  18.191  14.417   5.459  0.0808  0.1248 -0.1986
 8326W        W 9190  25.262   2.687   9.870 -0.1420  0.2761  0.1073
 8327W        W 9191  16.022  13.765  22.045  0.3991 -0.0723 -0.0187
 8328W        W 9192  10.006  23.039  25.327 -0.1890 -0.4224 -0.1366
 8329W        W 9193  28.668  17.255  23.290  0.0934 -0.0400  0.0617
 8330W        W 9194  19.133  22.597  12.073  0.1200  0.2038 -0.0701
 8331W        W 9195   9.037   4.222  18.851  0.0706  0.3551  0.4497
 8332W        W 9196  26.104  11.876   7.563  0.0141 -0.0057  0.1169
 8333W        W 9197   5.984  17.500  26.073  0.0753  0.0294 -0.1154
 8334W        W 9198   1.781  22.517  13.161 -0.3380  0.0034  0.0274
 8335W        W 9199   7.627  16.758  22.515  0.1652  0.0023  0.0994
 8336W        W 9200  11.523   7.967  26.839 -0.0496  0.1731  0.5377
 8337W        W 9201  25.208  21.563   9.622  0.2898  0.0539  0.2557
 8338W        W 9202   5.897  22.523  20.698  0.4205 -0.0035  0.1645
 8339W        W 9203  13.274   2.374  21.356 -0.1394 -0.0510  0.1861
 8340W        W 9204  21.901  23.108  25.822  0.1636 -0.1077 -0.2034
 8341W        W 9205  26.364   7.509  27.594 -0.3399  0.0082 -0.1206
 8342W        W 9206  22.380  28.736  13.340  0.0157 -0.2683 -0.0011
 8343W        W 9207  13.335  10.775   4.288  0.0933 -0.3502  0.0355
 8344W        W 9208  14.639   5.711  23.904 -0.4071  0.1358 -0.0497
 8345W        W 9209  18.338  17.019  20.668 -0.1602  0.4498 -0.3122
 8346W        W 9210  25.160   9.189   0.760  0.3608  0.1498  0.0757
 8347W        W 9211  23.234   5.881   6.792 -0.2705 -0.1175 -0.3464
 8348W        W 9212  18.825   1.940   1.583  0.2278 -0.2695  0.3379
 8349W        W 9213   5.859  11.551  25.840 -0.1589 -0.0324 -0.5033
 8350W        W 9214  18.002  28.180  25.626  0.0286 -0.0675 -0.0838
 8351W        W 9215   4.264  22.315   1.984 -0.0023 -0.0967 -0.1733
 8352W        W 9216  19.828   9.963   1.732 -0.0879  0.2178  0.0088
 8353W        W 9217  16.643  11.163  18.217 -0.0105 -0.1769 -0.5417
 8354W        W 9218  24.195  18.564   6.590  0.2830 -0.2267 -0.0903
 8355W        W 9219  21.832   8.133   0.992  0.0157  0.0913 -0.1872
 8356W        W 9220  27.279   7.099   8.661  0.2393  0.1482  0.0968
 8357W        W 9221  24.634  20.835   9.351  0.1982 -0.1882  0.1292
 8358W        W 9222  28.159  10.862  18.367 -0.5560  0.0401 -0.0946
 8359W        W 9223   8.693   1.344  15.826  0.1230 -0.1973  0.0629
 8360W        W 9224  19.850  28.090  26.618 -0.0167  0.2169  0.0224
 8361W        W 9225   7.331  12.060  19.038 -0.1530 -0.0988 -0.0799
 8362W        W 9226  17.483  20.590  22.709 -0.3535  0.3390 -0.1177
 8363W        W 9227  26.558  14.114   4.137  0.0711  0.0811  0.1054
 8364W        W 9228   9.921  13.906   5.148 -0.1081  0.0532  0.2364
 8365W        W 9229  16.311   1.791  14.400 -0.2817  0.0973 -0.2121
 8366W        W 9230  18.927   8.923  13.513 -0.0858  0.1174  0.2391
 8367W        W 9231   6.716  19.141  12.569 -0.2820  0.0084 -0.1508
 8368W        W 9232   3.938  13.131  18.565 -0.0022  0.2497  0.1753
 8369W        W 9233  10.942  23.924   5.674  0.1695 -0.0749 -0.0797
 8370W        W 9234  21.914   4.522  27.203  0.1433  0.0833 -0.0330
 8371W        W 9235  21.431  24.852  15.649  0.0666  0.1360  0.2026
 8372W        W 9236  21.176   2.417   0.329 -0.0224  0.3047 -0.0370
 8373W        W 9237  16.376  26.439   8.717  0.0162 -0.1422  0.0643
 8374W        W 9238  23.298   8.499  17.315 -0.0175 -0.2554  0.0201
 8375W        W 9239  14.512   5.135   2.727  0.0663  0.2856 -0.1713
 8376W        W 9240  17.688  19.771  22.724  0.1443 -0.2007 -0.0462
 8377W        W 9241  11.316   6.692   4.014  0.0358  0.2536  0.2566
 8378W        W 9242   8.275   2.788  10.147  0.1380  0.0719 -0.1136
 8379W        W 9243  11.948  15.155  17.147 -0.4326  0.3490 -0.1948
 8380W        W 9244   9.962   8.179   0.611  0.1352  0.1165  0.1121
 8381W        W 9245  14.116  25.916  21.950 -0.0226  0.2685 -0.4087
 8382W        W 9246  15.250  27.914  23.646  0.3158  0.0642  0.0679
 8383W        W 9247  25.649  16.496  15.566  0.0835 -0.0022  0.2817
 8384W        W 9248  17.642   8.964  25.142 -0.2118  0.0303 -0.0558
 8385W        W 9249  17.987   1.342  11.732  0.0385 -0.0637  0.1000
 8386W        W 9250  17.236  22.632  27.073  0.3257 -0.1246 -0.0115
 8387W        W 9251   5.406   1.897   3.870  0.1221  0.0176  0.0306
 8388W        W 9252  19.200  20.398   7.907 -0.0143  0.1658  0.2547
 8389W        W 9253  28.252   9.654  19.380  0.1171  0.1049  0.3529
 8390W        W 9254  28.252  28.426  17.476 -0.2563 -0.0648 -0.1560
 8391W        W 9255  25.778  27.036  22.899  0.2698  0.0658 -0.1577
 8392W        W 9256  17.540   5.067   9.566  0.0734 -0.0787  0.0033
 8393W        W 9257   4.451  17.423  26.535 -0.2425  0.0200 -0.1820
 8394W        W 9258   5.863  11.217  18.935 -0.1122 -0.0212 -0.3448
 8395W        W 9259  14.315  16.575   6.827  0.0462 -0.1469 -0.3568
 8396W        W 9260  25.930  12.414  18.247  0.4068 -0.1811  0.0584
 8397W        W 9261  19.653  16.448  13.414 -0.1233 -0.2518 -0.0882
 8398W        W 9262   3.843  28.672  28.076  0.2393  0.0265 -0.0533
 8399W        W 9263  16.004  24.401   4.864 -0.0567 -0.1763 -0.2927
 8400W        W 9264  11.838  23.146  23.763  0.1374  0.0098  0.2200
 8401W        W 9265  15.658  26.758  19.709 -0.0829 -0.0201 -0.0378
 8402W        W 9266  25.728  14.376  17.017  0.3351 -0.0552  0.2412
 8403W        W 9267  21.579   5.656  16.755  0.1088 -0.1595 -0.0267
 8404W        W 9268   8.311  20.203  17.081 -0.0541  0.1479  0.2216
 8405W        W 9269  16.799  22.710  24.924  0.2205 -0.0296  0.0407
 8406W        W 9270  19.730  10.713  17.590 -0.2905  0.0117 -0.1427
 8407W        W 9271  13.836   1.199   3.131 -0.0466 -0.2207 -0.0501
 8408W        W 9272  14.800  26.434  11.754 -0.2644  0.0832 -0.3055
 8409W        W 9273  19.780   8.055   1.364 -0.1605 -0.0101  0.0726
 8410W        W 9274  27.954   0.937  21.952  0.1013  0.0854  0.1348
 8411W        W 9275  14.074   9.873  26.429 -0.0481 -0.1690  0.0538
 8412W        W 9276   4.798   0.435   8.121 -0.0642 -0.2059 -0.2318
 8413W        W 9277   7.734   8.410   4.517 -0.0309 -0.1921 -0.1182
 8414W        W 9278  18.473  13.023  19.933 -0.1018 -0.2273 -0.1281
 8415W        W 9279  19.971  11.248  14.203 -0.1540  0.1026  0.0633
 8416W        W 9280  28.192  26.638  12.182 -0.1399 -0.1757 -0.0955
 8417W        W 9281  14.085   0.819   9.751  0.1930  0.0669  0.0779
 8418W        W 9282   3.935  17.543  19.103  0.4345 -0.1522 -0.0323
 8419W        W 9283  21.423  26.853  22.947  0.0684 -0.2981  0.1239
 8420W        W 9284  20.223  20.357  25.436  0.5878 -0.0436  0.3322
 8421W        W 9285  19.656  24.168  21.366  0.4348  0.2958  0.1875
 8422W        W 9286  10.661  17.993   4.977  0.1066  0.4596 -0.1748
 8423W        W 9287   2.953  22.121  20.571 -0.2492  0.0362  0.1072
 8424W        W 9288  14.359  25.972  23.560  0.2797 -0.0422  0.0553
 8425W        W 9289  13.642  14.214  23.962  0.2566 -0.1345 -0.0025
 8426W        W 9290   6.033   9.769  14.455 -0.1038 -0.0057  0.0992
 8427W        W 9291  18.354  15.256  25.949 -0.0205 -0.0178 -0.2346
 8428W        W 9292  27.142   2.109  26.586 -0.1248 -0.4570 -0.3511
 8429W        W 9293  23.144  12.360  27.170 -0.0576  0.0611 -0.1507
 8430W        W 9294  13.979  28.279  20.699  0.1251  0.0570  0.0240
 8431W        W 9295  10.075  10.485  13.180  0.2481 -0.1439 -0.0596
 8432W        W 9296  22.153  16.245   3.967  0.2074 -0.3455  0.1489
 8433W        W 9297  21.675  13.181   8.441 -0.0808  0.1010 -0.1316
 8434W        W 9298   2.692  21.416  22.244  0.0306 -0.1941 -0.0450
 8435W        W 9299   2.178  22.073   1.672  0.2640  0.0689  0.4102
 8436W        W 9300  17.428  28.728  28.092 -0.1095 -0.0575 -0.1373
 8437W        W 9301  28.113   6.311   5.954 -0.0622 -0.2755 -0.0873
 8438W        W 9302  25.819  13.757  21.304  0.3195  0.1253 -0.2079
 8439W        W 9303  22.758   3.306   0.587  0.0812 -0.0622 -0.1267
 8440W        W 9304  27.204  25.005  10.492 -0.1385  0.2773 -0.0233
 8441W        W 9305  16.469  28.832  13.411  0.0925  0.0270  0.1695
 8442W        W 9306   1.060  28.088   7.800 -0.3443  0.0702  0.1242
 8443W        W 9307  10.885   0.624  26.701 -0.1784  0.0335  0.3436
 8444W        W 9308  16.961   9.986   1.312  0.3886 -0.2432  0.0337
 8445W        W 9309  20.940  23.895   5.785  0.1018  0.0711 -0.1222
 8446W        W 9310   3.287   4.572  23.589 -0.0127 -0.0020 -0.1652
 8447W        W 9311   9.431   5.987  13.815 -0.4274 -0.1099 -0.2874
 8448W        W 9312   9.891  17.174  17.003 -0.0506 -0.2563 -0.2560
 8449W        W 9313  26.092  11.531  12.900  0.3399 -0.0187  0.1360
 8450W        W 9314  25.649   7.124  19.864 -0.0170 -0.0009  0.1586
 8451W        W 9315  18.212   3.467   1.660 -0.1016 -0.3475  0.0923
 8452W        W 9316  28.225  27.845  23.724  0.0552  0.2377 -0.0866
 8453W        W 9317  14.210   5.465  19.948  0.1080  0.0786 -0.2414
 8454W        W 9318  26.849  16.131  29.014  0.0866  0.0693  0.0421
 8455W        W 9319   8.891  23.301  16.248  0.0868 -0.4871 -0.0817
 8456W        W 9320   3.823   5.106  28.471  0.0472  0.3246 -0.1644
 8457W        W 9321  15.127  15.463   3.755  0.3630 -0.3440 -0.1115
 8458W        W 9322  27.908  23.326  11.035 -0.2676 -0.2420  0.2051
 8459W        W 9323  19.483  17.285  28.764 -0.2055 -0.1499 -0.1181
 8460W        W 9324  17.029  25.237   4.348  0.0034  0.2293  0.3845
 8461W        W 9325  15.104  16.700  13.653 -0.1676 -0.0143 -0.0779
 8462W        W 9326  18.249   7.892  18.092  0.0213 -0.0505 -0.2098
 8463W        W 9327  14.322   5.908  14.286  0.3973  0.1515 -0.0222
 8464W        W 9328  16.318  23.996  28.469  0.0197  0.0104  0.1430
 8465W        W 9329   0.810  11.160   3.597 -0.3497  0.0865 -0.1101
 8466W        W 9330  15.649  26.615  26.486  0.0997  0.0094  0.1438
 8467W        W 9331  12.431   7.139  25.222  0.1874  0.1176  0.1345
 8468W        W 9332   6.745  20.387  10.352 -0.3875 -0.1883 -0.0645
 8469W        W 9333  27.766  29.057  21.959 -0.1819  0.2640 -0.1017
 8470W        W 9334  10.468  13.561   7.935 -0.1380 -0.0264 -0.0579
 8471W        W 9335  20.383  28.799   6.184 -0.3634 -0.1580  0.0158
 8472W        W 9336   9.337   1.933  25.876  0.1763  0.0015  0.2248
 8473W        W 9337  23.091   7.149  22.785  0.0986 -0.1920 -0.0170
 8474W        W 9338  26.165  23.966  22.332  0.1754 -0.2632  0.4796
 8475W        W 9339   7.111  11.917  26.504 -0.0089  0.0135  0.0728
 8476W        W 9340  10.210  27.164  21.301  0.1369 -0.1249  0.2775
 8477W        W 9341  22.386  26.892  15.502 -0.3071 -0.0518 -0.1380
 8478W        W 9342   4.834   5.521  25.027  0.0411 -0.4127  0.0507
 8479W        W 9343  12.406   1.512  24.977 -0.0595  0.0140  0.3002
 8480W        W 9344  17.283  21.135  24.612 -0.0033  0.0340 -0.0755
 8481W        W 9345  11.902  10.361  21.345 -0.1259  0.0587 -0.0914
 8482W        W 9346   7.970   0.275  11.837  0.0886  0.1193 -0.0873
 8483W        W 9347   7.510   6.089  22.878 -0.2260  0.0996  0.2183
 8484W        W 9348  25.750  23.933  28.481  0.2378  0.2304  0.0237
 8485W        W 9349  23.839   0.679  22.428  0.2658 -0.1615 -0.0754
 8486W        W 9350   6.745  11.763  25.551 -0.0742 -0.0857  0.0519
 8487W        W 9351  17.170  20.221  21.417 -0.1123 -0.4718  0.0560
 8488W        W 9352  20.907   4.043   1.664  0.2654  0.0277  0.3222
 8489W        W 9353  28.946   5.812   8.626 -0.0336  0.3974  0.2458
 8490W        W 9354  20.572   7.152  13.362 -0.1803 -0.1548  0.2759
 8491W        W 9355  28.024  21.725   0.591  0.1331  0.0700  0.3096
 8492W        W 9356  19.497   8.465  19.192 -0.0328 -0.0753 -0.0517
 8493W        W 9357  14.513  28.931   6.402  0.1968 -0.0554 -0.0325
 8494W        W 9358   2.221   7.318  22.472  0.1155  0.1773 -0.0659
 8495W        W 9359  21.201   7.264  19.591 -0.5020 -0.1628  0.0138
 8496W        W 9360  18.291  13.648   2.652  0.0595 -0.2173  0.0946
 8497W        W 9361   5.793   7.135  21.343 -0.2766  0.1749  0.0036
 8498W        W 9362   7.846   1.129  22.521  0.0835  0.0009 -0.1785
 8499W        W 9363  17.710   9.826  23.118 -0.1572 -0.0156  0.0015
 8500W        W 9364  26.152  24.159   2.357 -0.0288 -0.1100  0.0905
 8501W        W 9365  28.647   4.595  10.112 -0.1901  0.0061  0.0146
 8502W        W 9366   8.442   1.743  26.778  0.1076  0.1188  0.2356
 8503W        W 9367  11.748   7.156   1.911  0.0720 -0.1544 -0.0393
 8504W        W 9368   1.451   0.240  12.825 -0.0831  0.0364  0.1527
 8505W        W 9369  28.158  13.489   5.635  0.2164 -0.2435 -0.0929
 8506W        W 9370   9.551   0.533   1.144 -0.2240 -0.1231 -0.5039
 8507W        W 9371  18.263  28.740  21.124 -0.1441 -0.2991 -0.1323
 8508W        W 9372  15.614  28.001  14.310  0.4163  0.1345 -0.1835
 8509W        W 9373  14.164  24.665  23.619  0.1948  0.0838 -0.4969
 8510W        W 9374   9.871  24.949  11.574 -0.0480 -0.0651  0.2194
 8511W        W 9375   6.014  14.347   1.705 -0.0091 -0.0689  0.2253
 8512W        W 9376  17.793  15.598   0.234 -0.2672 -0.2264 -0.0081
 8513W        W 9377  23.696  28.613  13.811 -0.1350  0.0565  0.0844
 8514W        W 9378  26.242   1.095  11.648  0.2430 -0.0183 -0.2228
 8515W        W 9379   7.306   7.890  13.235 -0.3794 -0.0344  0.2513
 8516W        W 9380   9.113  26.153   5.235  0.1244 -0.0247 -0.0844
 8517W        W 9381   7.132  16.880   6.079  0.3045 -0.0104  0.2011
 8518W        W 9382  26.959   2.307  15.436  0.1732 -0.1880  0.1205
 8519W        W 9383  21.802  21.308  10.523  0.2188  0.1281  0.4471
 8520W        W 9384  10.442  24.664   7.237  0.3487  0.2108  0.0600
 8521W        W 9385  20.912   7.434  26.212 -0.2324  0.0689  0.3516
 8522W        W 9386  13.018   2.941  17.231 -0.2239  0.0679  0.0885
 8523W        W 9387   4.902   1.995   0.826 -0.1445  0.1915 -0.1264
 8524W        W 9388  18.866   2.397  25.950  0.1413  0.2527 -0.0577
 8525W        W 9389  20.247  13.283   0.280 -0.2662 -0.0953 -0.1918
 8526W        W 9390  19.845   0.540  20.178 -0.5210  0.2700  0.1033
 8527W        W 9391  12.106  26.041  27.862 -0.2100  0.0740 -0.1875
 8528W        W 9392  27.827  14.579   4.900 -0.2497 -0.0392 -0.3056
 8529W        W 9393  25.293  21.488   5.357 -0.2207 -0.0996  0.1540
 8530W        W 9394  18.807   7.751  24.922 -0.1567  0.1213  0.2165
 8531W        W 9395   4.993  14.811  28.971 -0.2627  0.3271  0.2547
 8532W        W 9396  25.851  24.648   2.328  0.1399  0.0728 -0.1639
 8533W        W 9397  20.900   2.018  15.186  0.0844 -0.1712  0.1261
 8534W        W 9398  10.503   9.427  22.865  0.0181 -0.0179  0.2594
 8535W        W 9399  26.004  21.557  24.820  0.0535  0.0579 -0.3783
 8536W        W 9400   5.338  27.815  15.419  0.1868  0.0482  0.2114
 8537W        W 9401  21.045  27.149  23.650 -0.1200 -0.2424  0.1480
 8538W        W 9402   3.226   0.667  26.348 -0.0254  0.2180  0.0134
 8539W        W 9403  14.523   0.659   2.521 -0.0934  0.1393  0.2935
 8540W        W 9404   6.301   5.578  22.120 -0.0754  0.0774  0.0190
 8541W        W 9405  18.308  11.880  24.966 -0.2362  0.1836  0.0658
 8542W        W 9406   1.922  16.975   3.795 -0.0324  0.0788 -0.0879
 8543W        W 9407   9.761   8.893   5.778  0.1231  0.0922 -0.3263
 8544W        W 9408  13.079  15.951  25.732 -0.4750 -0.1142 -0.1545
 8545W        W 9409  17.141  27.817  21.367  0.0912  0.0641  0.0059
 8546W        W 9410   6.060   9.754   1.226 -0.0196 -0.1222  0.2158
 8547W        W 9411  26.888  25.286   2.359 -0.0590 -0.4108 -0.2126
 8548W        W 9412  20.544   6.827  28.538 -0.1462  0.0413 -0.0122
 8549W        W 9413  20.524   1.423   9.262 -0.1085  0.1038  0.1164
 8550W        W 9414   1.033   3.421  11.256 -0.4162 -0.1674 -0.0511
 8551W        W 9415   4.504  15.725  20.375 -0.1099  0.1662 -0.0127
 8552W        W 9416   1.281  20.340  25.078  0.0224  0.0434 -0.0060
 8553W        W 9417  22.015   6.634  15.018  0.4384  0.1765  0.0338
 8554W        W 9418  18.090  26.216  17.963  0.0537 -0.1892 -0.3523
 8555W        W 9419  20.603   0.784   0.726  0.0445 -0.2339  0.4269
 8556W        W 9420  21.559   3.823  22.495  0.1596 -0.2785  0.0848
 8557W        W 9421   7.018  18.202  25.298  0.1915  0.0561 -0.0412
 8558W        W 9422   0.293   8.724  17.865 -0.0128  0.2546 -0.0468
 8559W        W 9423  27.549   0.106   6.073 -0.0231 -0.1216  0.3089
 8560W        W 9424  22.718   7.896  13.824 -0.1977 -0.0209 -0.0211
 8561W        W 9425  11.431   6.505   3.572 -0.1364  0.1074 -0.0496
 8562W        W 9426   7.599  26.249   7.241 -0.3087 -0.0558  0.2134
 8563W        W 9427  23.633  14.412  16.881  0.1832 -0.0865 -0.0185
 8564W        W 9428  20.183   7.506  25.163 -0.1201 -0.2209 -0.2597
 8565W        W 9429  16.316   8.810   6.031  0.1797 -0.3082  0.0366
 8566W        W 9430   3.359   4.787  15.697  0.0022 -0.1100 -0.0075
 8567W        W 9431   2.639   8.281  18.407  0.0866 -0.0998  0.0055
 8568W        W 9432  24.152  23.112  11.260 -0.0801 -0.1012  0.0922
 8569W        W 9433  14.946   8.807   3.891 -0.1233  0.4385 -0.2561
 8570W        W 9434  18.568   5.206   4.808 -0.2715 -0.1635 -0.0372
 8571W        W 9435   1.866   2.546  23.623 -0.0562 -0.0035 -0.1800
 8572W        W 9436  12.770  18.491  13.565  0.1825 -0.1604  0.0918
 8573W        W 9437  14.320   6.678  24.929 -0.0874 -0.0798 -0.1496
 8574W        W 9438   3.941  19.824   1.947 -0.3023  0.2670 -0.1804
 8575W        W 9439  16.156  16.243   0.782  0.1729 -0.1133  0.1931
 8576W        W 9440  16.227  14.401  20.375 -0.1642 -0.2686 -0.0091
 8577W        W 9441  12.294   5.422   4.509 -0.3041 -0.1404  0.1380
 8578W        W 9442  20.050   7.868  15.607  0.0810 -0.2461 -0.1873
 8579W        W 9443  14.723  27.891  28.325 -0.0933  0.5481 -0.0684
 8580W        W 9444   5.666   2.706   0.416  0.1510  0.0668 -0.0021
 8581W        W 9445  15.731   4.644   8.936  0.1516 -0.4143 -0.0359
 8582W        W 9446  10.380  14.785   5.003  0.0602  0.0085 -0.1048
 8583W        W 9447  26.697  10.096  20.666 -0.0964  0.0179  0.0712
 8584W        W 9448  16.131  28.922   4.926  0.0177  0.2378 -0.2197
 8585W        W 9449  27.341  14.972   2.560  0.1305  0.1053 -0.2201
 8586W        W 9450   9.416   7.232  17.650 -0.1353  0.1369  0.0355
 8587W        W 9451   9.884  13.923   4.586 -0.1357  0.1525 -0.1152
 8588W        W 9452   3.265   2.922   0.062 -0.1396  0.0720  0.2447
 8589W        W 9453  28.210  23.119  20.555 -0.2213  0.4439 -0.0584
 8590W        W 9454   8.510  28.605  19.347  0.1437  0.2812  0.1701
 8591W        W 9455  15.956  23.134  25.742 -0.2878 -0.0802 -0.0873
 8592W        W 9456  12.359   0.864   7.355  0.1912  0.1399 -0.1078
 8593W        W 9457  15.704  18.011  15.048 -0.0080  0.2042 -0.0412
 8594W        W 9458  14.614   0.405   5.703 -0.0036  0.1599  0.1861
 8595W        W 9459  15.347   8.152   7.518 -0.0674 -0.1509 -0.1444
 8596W        W 9460  10.517   7.852  11.619 -0.1610 -0.0495  0.0364
 8597W        W 9461  23.345   9.456   1.468 -0.3501 -0.2352 -0.1667
 8598W        W 9462  20.326  11.032   4.370  0.2668  0.0292  0.1411
 8599W        W 9463  24.341  15.061  25.919  0.2501  0.0918 -0.1523
 8600W        W 9464  14.760  27.661   1.087  0.1132 -0.0022  0.1365
 8601W        W 9465   9.888   1.451   2.636 -0.2043 -0.1757  0.0351
 8602W        W 9466  16.221  19.485  16.655 -0.1633  0.3154  0.4878
 8603W        W 9467  12.281  13.916  23.598  0.1856  0.0268  0.2905
 8604W        W 9468  25.003  13.643  26.201 -0.2673 -0.0738 -0.2793
 8605W        W 9469  19.454  20.151  10.701 -0.2079 -0.3852 -0.0287
 8606W        W 9470   5.806  25.109   2.203 -0.0220  0.0291 -0.0990
 8607W        W 9471  24.475   6.052  13.706  0.3196  0.2104 -0.0312
 8608W        W 9472  12.855  14.571  28.398  0.1086 -0.4057  0.2904
 8609W        W 9473  19.185  22.476  19.459  0.1853  0.2047  0.0274
 8610W        W 9474  18.917   8.545  27.811 -0.0407  0.2318 -0.1852
 8611W        W 9475  25.048   8.275  12.891 -0.0782 -0.1666  0.1787
 8612W        W 9476  18.822   5.934  27.526 -0.0286 -0.3341  0.0282
 8613W        W 9477  19.072   0.816   9.269  0.2420  0.0207 -0.0963
 8614W        W 9478   7.931  20.772  16.208  0.0712 -0.0076  0.0806
 8615W        W 9479   8.533  23.275   8.432  0.1619 -0.1708 -0.0715
 8616W        W 9480   9.189  20.182  17.794 -0.0734  0.1577  0.1751
 8617W        W 9481  26.931   6.005  26.885  0.0951 -0.3605  0.2567
 8618W        W 9482   9.108  22.667   2.000 -0.0741  0.1210 -0.1771
 8619W        W 9483  14.022  18.491  22.322  0.0372  0.0598 -0.1260
 8620W        W 9484  14.294   4.331  24.211 -0.1528  0.2343 -0.1870
 8621W        W 9485  24.536  12.979   0.512  0.1747 -0.1097  0.0200
 8622W        W 9486   4.883  19.063  15.967  0.1759 -0.0055 -0.0659
 8623W        W 9487  26.713  26.924  18.469  0.0191 -0.3311 -0.1715
 8624W        W 9488  12.208  19.577  18.272 -0.2077  0.1301  0.0289
 8625W        W 9489   2.755   8.441   3.027  0.0963 -0.0230 -0.1475
 8626W        W 9490  11.551   5.870  19.185 -0.0423  0.3547 -0.1127
 8627W        W 9491   4.783  25.282   7.686 -0.0019  0.1002 -0.1612
 8628W        W 9492   9.361  22.311  25.738 -0.1274  0.3431 -0.0830
 8629W        W 9493  15.638  29.079  25.087 -0.3124  0.1394  0.0492
 8630W        W 9494  22.943   4.209   2.793 -0.1887  0.1740  0.1187
 8631W        W 9495   4.059  16.884  28.706 -0.0456  0.1049  0.4040
 8632W        W 9496  22.648  12.460  13.674  0.1147  0.0826 -0.1406
 8633W        W 9497  19.974  26.856  17.351 -0.0829  0.3551  0.2733
 8634W        W 9498   1.656  22.129   4.269  0.1328 -0.1564  0.0859
 8635W        W 9499  11.627  11.365  28.713  0.0023 -0.0216  0.3000
 8636W        W 9500  20.487  11.473   4.669  0.1989 -0.1823  0.0080
 8637W        W 9501   9.186  23.982  11.006 -0.0395 -0.2101  0.0953
 8638W        W 9502  13.306   5.755  28.308 -0.1834 -0.2804 -0.1407
 8639W        W 9503   3.252   0.938   5.958 -0.3870 -0.1126 -0.3442
 8640W        W 9504  10.327  20.311   1.237  0.1416 -0.0057 -0.2159
 8641W        W 9505   0.722   1.947  24.580 -0.0313  0.1133  0.0650
 8642W        W 9506  26.328   5.737  28.919 -0.3465  0.0290  0.3614
 8643W        W 9507  28.883  20.657  23.051  0.0459 -0.0111  0.4234
 8644W        W 9508  28.746  25.414  27.732  0.1635 -0.0276 -0.2446
 8645W        W 9509  14.046  15.412   1.460  0.0181 -0.1167  0.1068
 8646W        W 9510  17.428  17.833  27.198 -0.1239 -0.1062  0.1847
 8647W        W 9511  24.854   4.157  15.485  0.0255  0.0935  0.0761
 8648W        W 9512   9.545  22.362   4.329 -0.0031 -0.1917 -0.0399
 8649W        W 9513  10.457  26.697  12.497 -0.1309  0.1196 -0.2254
 8650W        W 9514   3.033  27.184   2.029 -0.0438  0.0894 -0.0573
 8651W        W 9515  27.802  15.181   2.505 -0.2300  0.1598  0.0462
 8652W        W 9516   5.533  10.243  10.579  0.3449  0.0656 -0.0695
 8653W        W 9517  28.185  18.253  28.839 -0.0231 -0.1702  0.2103
 8654W        W 9518   7.797   5.417  28.041  0.0153 -0.0616 -0.0772
 8655W        W 9519   0.370   8.124   3.644 -0.0736  0.0448 -0.2276
 8656W        W 9520  14.375  14.409   8.704 -0.1007 -0.0367 -0.2424
 8657W        W 9521  22.721  23.812  19.428  0.0963  0.1665 -0.2475
 8658W        W 9522  28.288  15.972  24.364  0.0536 -0.1552 -0.1897
 8659W        W 9523  19.040   8.105  15.672 -0.0252 -0.1752 -0.1463
 8660W        W 9524  28.165   6.742  26.434  0.1754 -0.2978  0.1615
 8661W        W 9525  21.476   0.302  11.173  0.1397 -0.0504 -0.0039
 8662W        W 9526  28.147  18.153   1.743 -0.0118 -0.1252  0.0752
 8663W        W 9527  17.169  13.094   2.026  0.1505 -0.2701 -0.0745
 8664W        W 9528   8.488  13.754  17.654  0.1385 -0.0727 -0.0484
 8665W        W 9529   2.420  25.160   3.421  0.2974  0.2234 -0.1222
 8666W        W 9530  15.292   9.301  11.477  0.1391 -0.1506 -0.0975
 8667W        W 9531  20.712   3.395   8.201  0.1990 -0.0792 -0.0847
 8668W        W 9532  17.284  17.421   7.852 -0.0236  0.0247  0.1875
 8669W        W 9533  13.048   2.023   7.616  0.3809  0.0071  0.2079
 8670W        W 9534  13.201   7.961  16.385  0.2531 -0.0023  0.0247
 8671W        W 9535  13.455   7.658  14.977  0.0478 -0.0261  0.0322
 8672W        W 9536  18.281  24.557  14.718 -0.0513 -0.2884  0.0627
 8673W        W 9537   5.024   2.938  27.415 -0.1658 -0.0041  0.1818
 8674W        W 9538   9.837   7.887  20.917 -0.0198 -0.1913 -0.3108
 8675W        W 9539  15.643   5.893  13.656 -0.2086 -0.0093 -0.0660
 8676W        W 9540  29.047  28.314   0.644 -0.1534  0.1931  0.1542
 8677W        W 9541  16.663  20.934  26.207  0.0554 -0.0075  0.0700
 8678W        W 9542  12.796  16.794  20.116  0.2679  0.0164  0.0997
 8679W        W 9543   7.854   4.174  19.602  0.0812 -0.2630  0.0318
 8680W        W 9544   8.966  29.042   3.784 -0.2517  0.0394 -0.2822
 8681W        W 9545  24.807   8.887   8.152  0.0263  0.0623  0.0973
 8682W        W 9546  16.553   9.046   8.040 -0.2959 -0.1139  0.2061
 8683W        W 9547  21.064  17.171  11.892 -0.2569  0.5493  0.1022
 8684W        W 9548   5.082  22.058  11.794 -0.0065 -0.1353 -0.0132
 8685W        W 9549  24.230  26.866  26.920  0.1605 -0.1319 -0.2193
 8686W        W 9550  23.082   9.573  12.723  0.2627  0.5996 -0.0059
 8687W        W 9551   3.822   7.148  24.973  0.0072 -0.3331  0.3317
 8688W        W 9552  18.912   7.068   4.483  0.1477 -0.4772 -0.0707
 8689W        W 9553  23.496   1.455  29.089  0.0842 -0.1159 -0.0909
 8690W        W 9554   0.501   8.645  27.459  0.0062  0.3140 -0.1161
 8691W        W 9555  28.154  16.514  14.082  0.0885  0.0111  0.1004
 8692W        W 9556  10.359   1.949   3.888  0.1614 -0.0415 -0.1414
 8693W        W 9557  20.840  16.054  28.949  0.0619  0.0993  0.0065
 8694W        W 9558   3.356   7.685  13.724  0.2132  0.2111  0.0434
 8695W        W 9559  21.269  27.467  17.637 -0.1213 -0.0836 -0.2473
 8696W        W 9560  10.423  12.150  15.730 -0.0491  0.1094 -0.1690
 8697W        W 9561  29.143  27.614  27.825  0.2588 -0.1387  0.3153
 8698W        W 9562  16.480  24.869  28.636 -0.0767  0.2049  0.0873
 8699W        W 9563  13.646  13.060  10.087  0.1933 -0.1252  0.0005
 8700W        W 9564  25.990   7.509  22.103 -0.2539  0.0843  0.0597
 8701W        W 9565  22.436  14.908   7.727  0.2863 -0.2570  0.1889
 8702W        W 9566  15.640  25.699  19.672 -0.2376  0.2401  0.1440
 8703W        W 9567  27.563  15.900   2.971 -0.3571  0.0143  0.2189
 8704W        W 9568   4.061  11.768  25.774  0.0555 -0.1108 -0.0911
 8705W        W 9569  23.488   6.964  27.017 -0.1338  0.2717 -0.2521
 8706W        W 9570  15.892   2.026  20.572 -0.0865 -0.1636 -0.1442
 8707W        W 9571  27.658  10.540  14.329  0.0815  0.0630  0.1398
 8708W        W 9572  23.179   3.890  16.773 -0.2544  0.2991 -0.0057
 8709W        W 9573  11.915  11.432   7.285  0.0044 -0.2601 -0.2119
 8710W        W 9574   8.992   0.720  22.088 -0.2032  0.0666  0.2465
 8711W        W 9575  18.848   0.772   0.047 -0.1127 -0.1452 -0.0129
 8712W        W 9576  28.243   8.307   3.201 -0.3367 -0.0727 -0.0669
 8713W        W 9577  10.543   9.750  17.911  0.2062 -0.2291  0.0435
 8714W        W 9578  28.697   4.681   5.966  0.1251 -0.0953  0.0377
 8715W        W 9579  11.387   5.636   6.962  0.0413  0.1238 -0.2195
 8716W        W 9580  28.512  22.589  10.667  0.1433  0.0373  0.2328
 8717W        W 9581  16.027  18.709  19.317 -0.1238 -0.1151  0.0756
 8718W        W 9582  16.824   2.758  26.326 -0.1067 -0.0906  0.1944
 8719W        W 9583  20.103  13.466   7.012 -0.1111 -0.2802 -0.2116
 8720W        W 9584   8.742   7.327   5.701 -0.0132 -0.1634  0.1085
 8721W        W 9585  16.361  13.149   8.985  0.2539  0.0064 -0.1163
 8722W        W 9586   7.985  23.875  26.722 -0.1653  0.2492  0.3509
 8723W        W 9587  22.706   9.761   2.090  0.3845 -0.1345  0.2205
 8724W        W 9588  28.629  16.088  23.919  0.4722 -0.0506 -0.1388
 8725W        W 9589   7.281  13.803  25.980 -0.2294 -0.1159 -0.1815
 8726W        W 9590   3.945  27.685  15.596 -0.1334  0.1553 -0.1019
 8727W        W 9591  21.898  29.083   3.326  0.0722  0.2766 -0.1259
 8728W        W 9592  14.605   1.646   3.358 -0.3344  0.1757 -0.3420
 8729W        W 9593   8.757   3.435  10.299  0.0534 -0.0078 -0.2761
 8730W        W 9594  15.613   4.827   7.521  0.0689  0.4182  0.0668
 8731W        W 9595  19.891  28.840  19.661  0.1957  0.0975  0.0187
 8732W        W 9596   9.880   3.164   2.759 -0.0146 -0.1992 -0.3688
 8733W        W 9597  13.131   5.740  27.159 -0.2650 -0.0093 -0.0106
 8734W        W 9598  14.382  16.048  27.733 -0.0068 -0.2187 -0.1366
 8735W        W 9599   4.171   4.942   4.580 -0.0346 -0.1051  0.0715
 8736W        W 9600   8.787   0.427   5.941  0.1672 -0.0397  0.2847
 8737W        W 9601  27.626  27.996   0.604 -0.0066  0.3016 -0.2667
 8738W        W 9602  22.560  15.227  27.327  0.0696  0.2545 -0.2765
 8739W        W 9603  19.050   9.992  23.996  0.4626 -0.5241 -0.0386
 8740W        W 9604  24.633   7.183  10.795  0.0182  0.0059  0.4963
 8741W        W 9605   7.170  18.705  25.332  0.1548  0.0757  0.0093
 8742W        W 9606   1.381  27.650   7.756  0.2295 -0.1359 -0.1589
 8743W        W 9607  20.065  25.617  27.031  0.0862 -0.0755  0.0379
 8744W        W 9608  26.586   2.578  20.408  0.1405 -0.0792 -0.0875
 8745W        W 9609   3.001   6.887   9.612 -0.0751 -0.1202  0.4667
 8746W        W 9610  23.396  10.152  17.272 -0.0216  0.0602 -0.3764
 8747W        W 9611  15.858   4.869  11.533  0.0701 -0.3677 -0.0598
 8748W        W 9612  22.536   9.228   2.720 -0.2014  0.2294  0.1054
 8749W        W 9613  20.783   9.373   7.785  0.0257 -0.0212  0.1501
 8750W        W 9614  19.342  11.413  12.610  0.1065  0.0098  0.0270
 8751W        W 9615   9.863   7.799  25.107  0.3210  0.1616 -0.2828
 8752W        W 9616  11.462  17.578  18.521 -0.0051  0.0098  0.1517
 8753W        W 9617  14.050  20.172  18.246  0.1198 -0.0843  0.2028
 8754W        W 9618  15.418  27.312   4.346 -0.0428 -0.0785  0.3208
 8755W        W 9619  13.654  28.272  19.156 -0.0966  0.0760 -0.3214
 8756W        W 9620  19.015  27.748   2.280  0.1363  0.3138  0.1516
 8757W        W 9621   1.701   7.643  26.847  0.2181 -0.1814 -0.1044
 8758W        W 9622  20.979  11.826   6.592  0.0016 -0.2240  0.0528
 8759W        W 9623  17.046  11.845  21.195  0.1287 -0.7246 -0.2105
 8760W        W 9624  16.896   6.634  22.541  0.1410 -0.0530  0.0103
 8761W        W 9625  27.225   9.810  28.830  0.0147  0.1877  0.1223
 8762W        W 9626   3.567   6.409  25.873  0.0883  0.0452  0.3835
 8763W        W 9627   8.177   3.219  22.997 -0.0201 -0.2919  0.2114
 8764W        W 9628  19.338   2.268  11.353 -0.0832  0.0118 -0.1715
 8765W        W 9629  24.740  12.967   4.145  0.1391 -0.0756  0.1072
 8766W        W 9630  24.587  25.798  15.646 -0.0596 -0.0368 -0.0376
 8767W        W 9631  24.451  27.400   0.064  0.1845 -0.0055 -0.0364
 8768W        W 9632  19.444   8.732  11.077 -0.0828 -0.1239 -0.0455
 8769W        W 9633  22.588  10.022   2.939  0.4758  0.0267 -0.1531
 8770W        W 9634  22.393  16.913   1.763 -0.0051  0.1260 -0.2208
 8771W        W 9635  15.375  11.658   0.586  0.1272 -0.1680  0.2380
 8772W        W 9636   5.658  27.212   5.318 -0.2548  0.3240 -0.0456
 8773W        W 9637  14.015  10.486  23.902  0.0580 -0.1935 -0.1018
 8774W        W 9638  17.834  14.282  19.290  0.0730  0.0067  0.0803
 8775W        W 9639  13.737  17.666   7.653  0.0127  0.2429 -0.1369
 8776W        W 9640  14.686   0.739  23.939 -0.0503  0.1742  0.2817
 8777W        W 9641   2.527   6.735  24.507 -0.1804  0.0410  0.0809
 8778W        W 9642  18.119   9.668   1.221  0.3748  0.3576 -0.1715
 8779W        W 9643  17.222   2.506   5.533 -0.2739  0.2499 -0.1423
 8780W        W 9644   0.017  13.735  20.606  0.0262 -0.4176  0.1485
 8781W        W 9645   3.288  12.796  20.503 -0.4290  0.2360  0.0852
 8782W        W 9646  18.637   0.949  27.784 -0.2752  0.1322 -0.0609
 8783W        W 9647   7.769   3.594  27.967 -0.0329  0.2720  0.2354
 8784W        W 9648  22.410  27.909  19.882 -0.1053  0.3163 -0.2035
 8785W        W 9649  11.781  10.156  23.072  0.1791  0.2131 -0.0225
 8786W        W 9650  21.712  20.410  29.055  0.2934  0.2285 -0.1194
 8787W        W 9651  14.368  14.895   3.241  0.3084 -0.0718 -0.0574
 8788W        W 9652  19.306   1.698   0.251  0.0159 -0.4253  0.1660
 8789W        W 9653  19.311   7.600  24.209 -0.0291 -0.1330 -0.0275
 8790W        W 9654  14.225  20.015  15.520  0.1301 -0.0862 -0.0204
 8791W        W 9655  22.003  22.629  12.640 -0.2211 -0.0837  0.4215
 8792W        W 9656  27.776  11.873  15.413 -0.0729 -0.2020 -0.0065
 8793W        W 9657   5.430  16.466  17.560  0.2187 -0.0560 -0.0241
 8794W        W 9658  21.936  23.127  26.727  0.1311 -0.0925  0.1509
 8795W        W 9659  25.930   0.969   5.194  0.0158  0.2197 -0.0911
 8796W        W 9660   8.735   3.875   5.265 -0.0899  0.1842 -0.1996
 8797W        W 9661  22.774  22.682  24.104  0.1921 -0.0617  0.0908
 8798W        W 9662   0.853   5.004  25.643  0.0164  0.0593 -0.2357
 8799W        W 9663   7.548  28.786  15.564  0.0562 -0.0238  0.3052
 8800W        W 9664   1.336  20.103  10.198  0.0317 -0.3841  0.3448
 8801W        W 9665  12.106  15.102  18.038  0.0656  0.1937 -0.2644
 8802W        W 9666  16.139  24.851  18.327  0.1478 -0.1421 -0.3005
 8803W        W 9667  18.681   4.676  27.045 -0.0798  0.0016 -0.0726
 8804W        W 9668  20.018   2.274  23.456  0.2108  0.0357 -0.0562
 8805W        W 9669  14.064   1.776  25.614 -0.2392  0.0406  0.1522
 8806W        W 9670  21.003   7.624   2.154 -0.1251  0.0710 -0.0434
 8807W        W 9671  10.463  28.870  27.012 -0.2877  0.0273  0.1124
 8808W        W 9672  16.200   7.539   5.142  0.1043 -0.1268 -0.2874
 8809W        W 9673   3.669  22.299  28.820 -0.0862  0.1627 -0.1552
 8810W        W 9674  23.673  12.437  21.280  0.0086  0.5832  0.3685
 8811W        W 9675  27.265  18.385  10.450  0.0800 -0.2158 -0.0339
 8812W        W 9676  21.927   7.789   1.823 -0.1110 -0.0025 -0.0730
 8813W        W 9677  23.978   8.339   7.997 -0.2242 -0.1508 -0.0442
 8814W        W 9678  15.791   8.772  18.259  0.2309  0.2725 -0.0665
 8815W        W 9679  13.845  13.787  26.046 -0.1298  0.1637  0.1570
 8816W        W 9680   3.449  23.877  18.028 -0.0607 -0.0876  0.3200
 8817W        W 9681  18.310  26.740  22.226 -0.0356  0.0281  0.0118
 8818W        W 9682  10.847  24.409  26.145 -0.1834  0.2300  0.0587
 8819W        W 9683  19.186  25.838  20.652  0.0295 -0.0708 -0.3054
 8820W        W 9684   8.344  24.458  26.338 -0.0658  0.0631 -0.0633
 8821W        W 9685  27.600  24.612  24.456 -0.0523 -0.0495  0.2029
 8822W        W 9686  22.886   8.144   9.586  0.1530  0.0294 -0.0569
 8823W        W 9687  26.877  27.352  23.763 -0.4015 -0.0040  0.0642
 8824W        W 9688  15.026  14.400  22.106  0.0126  0.4196 -0.0485
 8825W        W 9689   6.124  24.475   0.756  0.0042  0.1705 -0.0721
 8826W        W 9690  23.116   0.013   0.250  0.0655  0.2493  0.3833
 8827W        W 9691  15.343  11.191  24.855  0.0087 -0.0771  0.0416
 8828W        W 9692  19.577   4.530  22.592  0.1703 -0.0770 -0.0778
 8829W        W 9693  21.557   2.416   3.641 -0.3621 -0.0100 -0.0447
 8830W        W 9694  11.294   5.371  19.377 -0.0816  0.1620  0.1229
 8831W        W 9695  13.939   1.573  24.550  0.0176 -0.1388  0.2849
 8832W        W 9696  15.367  20.210  13.385 -0.2276  0.2871  0.0165
 8833W        W 9697  13.537  21.525  17.140  0.2064 -0.0666 -0.0444
 8834W        W 9698   4.317  16.910   8.714 -0.1104  0.0780  0.2218
 8835W        W 9699   3.500  28.872  17.415 -0.1704  0.0913  0.1066
 8836W        W 9700  28.777  10.960  24.567  0.0217 -0.1216 -0.0274
 8837W        W 9701  11.811  18.545   3.657 -0.1388  0.0476 -0.0568
 8838W        W 9702  16.793   0.489  19.170  0.2124 -0.0278 -0.2379
 8839W        W 9703  14.495   7.331  14.453  0.1926  0.0447 -0.0670
 8840W        W 9704  28.026   3.563  16.471 -0.0440 -0.1526  0.0978
 8841W        W 9705   3.575   0.228  29.043  0.1476 -0.1115 -0.1217
 8842W        W 9706  15.639  10.958  14.476  0.1031  0.1472  0.3206
 8843W        W 9707  22.628  15.657   0.359  0.1420 -0.1693 -0.0821
 8844W        W 9708  10.172  13.071   3.642 -0.0433  0.2818  0.0598
 8845W        W 9709  11.633   3.245  14.130  0.1684 -0.0553  0.2510
 8846W        W 9710   9.789   3.862   4.820 -0.0654 -0.3273  0.1477
 8847W        W 9711  22.649  23.865  19.979  0.0135  0.2943 -0.4840
 8848W        W 9712   1.510  10.575  15.531  0.2393 -0.1142  0.2632
 8849W        W 9713   5.502   3.130  17.518  0.2839  0.1209 -0.0418
 8850W        W 9714   8.631  27.685  17.368 -0.1186 -0.1542  0.1246
 8851W        W 9715  20.769  14.248  26.751 -0.4724  0.0496  0.0390
 8852W        W 9716  15.528   4.930  25.377  0.0133  0.2295  0.1148
 8853W        W 9717  15.120   4.351  12.831  0.0519 -0.2038  0.1558
 8854W        W 9718  21.716  22.474  20.464 -0.1372  0.1402 -0.3779
 8855W        W 9719  23.088  14.295   6.625 -0.1427 -0.1070  0.1105
 8856W        W 9720   1.170   9.262  24.678  0.3287  0.2392 -0.1415
 8857W        W 9721   5.755   6.608  14.256 -0.1134  0.1427 -0.0816
 8858W        W 9722   2.427   0.803  21.639  0.0302 -0.2117  0.4031
 8859W        W 9723   1.778  24.892  21.157  0.5694  0.0364 -0.2153
 8860W        W 9724   0.740  16.868  12.382 -0.1278  0.2309  0.1527
 8861W        W 9725  19.072  27.848  28.470  0.0080 -0.2372 -0.0960
 8862W        W 9726  10.557  12.763  28.620  0.1133  0.0104 -0.1609
 8863W        W 9727  15.951   6.109  10.945 -0.1103 -0.0014  0.3639
 8864W        W 9728  13.300  27.542  18.191 -0.1028 -0.1680  0.1536
 8865W        W 9729  14.885   4.662   5.465  0.0219  0.2331 -0.0046
 8866W        W 9730  22.644   5.884   1.279 -0.0090 -0.0634  0.1800
 8867W        W 9731   8.998   1.138  13.649  0.1206  0.0153  0.3014
 8868W        W 9732  25.220  28.542   1.049  0.0425 -0.1022  0.1183
 8869W        W 9733  10.499   9.882  26.768 -0.1489  0.0259  0.1444
 8870W        W 9734  24.749   0.234  22.153 -0.1501 -0.2046  0.0988
 8871W        W 9735  13.032   5.501   0.613 -0.0279 -0.1313  0.0631
 8872W        W 9736  26.937  12.598  16.890  0.0001 -0.1470  0.0989
 8873W        W 9737   2.261  28.786  26.010 -0.2272 -0.1888  0.2724
 8874W        W 9738  11.462   4.936  26.382 -0.2187  0.0209  0.0635
 8875W        W 9739   8.449  28.546  27.021  0.1733 -0.0780  0.0803
 8876W        W 9740  21.245  16.714   7.589  0.1091  0.1158  0.3642
 8877W        W 9741  23.881  18.790   0.843  0.0861  0.1761  0.1528
 8878W        W 9742  16.705  12.196  25.048 -0.0146  0.0595 -0.0502
 8879W        W 9743  20.780   3.714   9.643 -0.1447 -0.1314  0.1867
 8880W        W 9744  14.439   6.181  24.698  0.1383 -0.2196  0.0414
 8881W        W 9745  26.332  27.175  28.051 -0.0701  0.0021  0.0754
 8882W        W 9746   7.557   1.221  26.227 -0.0780  0.0843  0.0019
 8883W        W 9747  26.311   7.527   8.543  0.1152 -0.0621  0.0520
 8884W        W 9748  23.689  10.556   5.992  0.3378  0.1774 -0.0444
 8885W        W 9749  15.883  28.646   6.813 -0.2622  0.2476 -0.2352
 8886W        W 9750  13.320  12.469  28.610  0.1341 -0.0199  0.2479
 8887W        W 9751  11.653   3.713  11.175 -0.1007  0.1544  0.1970
 8888W        W 9752  17.387  13.548   1.339  0.0824  0.0709 -0.0201
 8889W        W 9753   8.146  18.905   1.798  0.0932  0.1771 -0.2859
 8890W        W 9754  26.883   3.092  18.799 -0.0702  0.1914 -0.0836
 8891W        W 9755   7.630  19.480   6.457 -0.0030  0.2336 -0.1545
 8892W        W 9756  18.937  27.446  18.835  0.2295  0.0326 -0.0722
 8893W        W 9757  18.351   8.211  27.182  0.2175  0.0502 -0.1384
 8894W        W 9758   3.991  19.517  12.281  0.1420  0.0357  0.1273
 8895W        W 9759  23.192  12.764  21.353  0.1071  0.2164 -0.3554
 8896W        W 9760  16.146   3.616  20.084  0.1877  0.1650  0.0268
 8897W        W 9761  13.819  24.479  24.763  0.0953  0.3250  0.1782
 8898W        W 9762   1.313  28.555  28.520  0.1377  0.2736  0.2564
 8899W        W 9763  14.147  23.648  28.411  0.1094  0.0609  0.1554
 8900W        W 9764  23.306  25.331   0.551  0.0026 -0.1554 -0.1466
 8901W        W 9765   6.518   9.059  15.704 -0.2293 -0.1976  0.2240
 8902W        W 9766   8.808  24.149  22.517  0.2766 -0.3146  0.0903
 8903W        W 9767  26.495   1.472  12.174  0.1411  0.0832 -0.2410
 8904W        W 9768  21.336  17.257   3.234  0.1717  0.1610 -0.1053
 8905W        W 9769  14.168  11.410   6.742 -0.2565 -0.1515 -0.0036
 8906W        W 9770  18.427   5.635  27.471  0.2349  0.0188 -0.0456
 8907W        W 9771  18.975   8.711  15.548 -0.1747 -0.2391  0.1163
 8908W        W 9772  19.215  13.409  14.968  0.0467 -0.0790 -0.1040
 8909W        W 9773   6.498  21.987  26.611  0.1159 -0.3460  0.3395
 8910W        W 9774  11.241   3.507  14.454 -0.2060 -0.0038 -0.2368
 8911W        W 9775   8.154   6.481  20.381  0.0052 -0.1520 -0.2237
 8912W        W 9776  25.715  10.360  27.054 -0.0303 -0.4034 -0.0139
 8913W        W 9777   0.983  25.215  20.460 -0.0161 -0.0367  0.0067
 8914W        W 9778   5.843   3.900   4.434 -0.0940 -0.0459  0.0787
 8915W        W 9779  27.284  20.210  25.051 -0.2883  0.1266 -0.3502
 8916W        W 9780   9.428  21.979   0.316 -0.2520 -0.1686  0.1606
 8917W        W 9781   0.990  27.624  25.812  0.4003 -0.1135 -0.0719
 8918W        W 9782   7.123   2.139  27.422 -0.1764  0.0259  0.0453
 8919W        W 9783  11.894  10.620  22.768 -0.1266  0.1977  0.1503
 8920W        W 9784  18.468  14.953  21.991 -0.1389 -0.0512  0.0913
 8921W        W 9785  10.426   3.672  24.978 -0.1846  0.0394 -0.1482
 8922W        W 9786  23.943  21.036  12.072 -0.3708 -0.3098 -0.0049
 8923W        W 9787   2.190   2.767  11.649  0.0363 -0.3510  0.0865
 8924W        W 9788  13.193  15.803   0.508 -0.2578 -0.0221 -0.0598
 8925W        W 9789  28.232  24.650   2.020 -0.0095 -0.1490 -0.2373
 8926W        W 9790  19.174   9.826  24.892  0.1861 -0.2122 -0.0920
 8927W        W 9791   2.244  28.067  18.353 -0.1760 -0.2988 -0.1604
 8928W        W 9792  13.967  26.335  19.746  0.0143 -0.0770  0.0118
 8929W        W 9793  13.250  23.324  20.616 -0.0480 -0.2485  0.1484
 8930W        W 9794  13.534  19.106  11.504  0.0629 -0.3458  0.1485
 8931W        W 9795  22.147  10.016   7.848 -0.5012  0.1771  0.1654
 8932W        W 9796   5.254  14.868   9.087 -0.1622 -0.2381 -0.2842
 8933W        W 9797  29.076   6.437  10.544 -0.1830 -0.0823 -0.0653
 8934W        W 9798  13.325  11.420  25.508  0.1392  0.3964  0.0160
 8935W        W 9799  22.922   9.807  17.421  0.0830  0.1481  0.2762
 8936W        W 9800   9.689  20.129  27.741  0.0485  0.2543 -0.0679
 8937W        W 9801  22.808  13.365   6.994  0.3537  0.2716 -0.4463
 8938W        W 9802   0.752   6.675   0.618  0.2415 -0.0546 -0.0899
 8939W        W 9803  20.943  14.698  22.255 -0.1200  0.0604  0.0454
 8940W        W 9804  27.462   3.896   2.842  0.1539 -0.3117 -0.0723
 8941W        W 9805  18.272   2.555  17.897 -0.0943  0.0029  0.0070
 8942W        W 9806   3.636   6.059   8.336  0.0450  0.0041  0.2368
 8943W        W 9807  12.695   7.846  19.953 -0.1756 -0.0618 -0.1226
 8944W        W 9808  10.104   1.255   4.425  0.0814 -0.3817  0.1398
 8945W        W 9809   8.470  10.425  12.274  0.1845 -0.3749 -0.1034
 8946W        W 9810  11.595  26.277  19.841 -0.3909  0.0197  0.0725
 8947W        W 9811  11.506   6.314  20.580 -0.1776  0.1708 -0.0810
 8948W        W 9812   4.927   4.899  20.918 -0.1116  0.0731 -0.1051
 8949W        W 9813  28.347  21.084   9.162  0.1448 -0.1364 -0.0914
 8950W        W 9814  20.974  19.331  27.165 -0.3016  0.1953  0.2562
 8951W        W 9815  27.368   5.957   2.333  0.0972 -0.1749 -0.1872
 8952W        W 9816  25.843  27.003  20.439  0.0749  0.0771 -0.2094
 8953W        W 9817  19.762  25.224  27.648  0.4127 -0.1747 -0.4228
 8954W        W 9818  11.710   5.299  17.672  0.0338 -0.0160  0.0503
 8955W        W 9819  14.605   4.490  14.699  0.2583 -0.0975 -0.2013
 8956W        W 9820   3.008  10.826  22.221 -0.2632  0.1095 -0.2194
 8957W        W 9821  11.611   7.024  10.892  0.1014  0.3860 -0.3365
 8958W        W 9822  21.619  11.494   3.975 -0.3939  0.0974 -0.1622
 8959W        W 9823  13.385  27.515  25.934 -0.1212  0.2801 -0.0494
 8960W        W 9824  12.793  14.829   0.260 -0.1566  0.1580  0.1090
 8961W        W 9825  11.112   0.140  20.656 -0.5486 -0.1228 -0.0829
 8962W        W 9826   9.378  23.381  18.084  0.1014 -0.0634 -0.0513
 8963W        W 9827  18.002   4.481   1.779 -0.2483  0.1319 -0.2708
 8964W        W 9828  24.940  13.292  25.388  0.0555 -0.0426  0.1339
 8965W        W 9829  28.091   3.605  20.145 -0.1455  0.1000  0.0383
 8966W        W 9830  12.889  24.233   4.941  0.0433  0.5342 -0.0333
 8967W        W 9831  23.453   8.051  28.407  0.0212  0.3583  0.0146
 8968W        W 9832  14.165  10.011  20.369  0.0624 -0.0248  0.0846
 8969W        W 9833   4.847  23.086  25.520 -0.2084 -0.0466  0.2165
 8970W        W 9834  11.716  18.588  19.963  0.0907  0.2342 -0.2212
 8971W        W 9835  18.819  23.338   3.335 -0.3661  0.0100  0.0470
 8972W        W 9836  14.495   2.182  14.552  0.5046 -0.0202  0.2862
 8973W        W 9837  23.410   7.271   1.483  0.0282 -0.3490 -0.1173
 8974W        W 9838  19.986  26.887   1.493 -0.3449 -0.1468  0.2752
 8975W        W 9839  11.141   9.282   0.823 -0.4554 -0.2381 -0.2340
 8976W        W 9840  15.669  12.657  19.044  0.3985  0.1151  0.2130
 8977W        W 9841  27.541  13.962  14.869 -0.1623 -0.1763 -0.1253
 8978W        W 9842  20.734   0.906  16.836  0.0252 -0.1011  0.0598
 8979W        W 9843   6.499  17.667   6.687  0.1047  0.0375 -0.1913
 8980W        W 9844  28.026  15.488   9.174 -0.1972 -0.2926  0.2119
 8981W        W 9845  27.407  27.207   5.336  0.4138 -0.0199 -0.1552
 8982W        W 9846   6.974  19.823  13.272  0.0383  0.0307 -0.0939
 8983W        W 9847  18.976  19.984   9.983 -0.0279  0.3693 -0.0731
 8984W        W 9848   9.413  12.754  12.407 -0.1007  0.1822  0.3755
 8985W        W 9849   6.155  17.043   2.417 -0.1982  0.0559 -0.0402
 8986W        W 9850  11.091  13.082  12.020 -0.1068  0.0442 -0.3194
 8987W        W 9851   6.280   6.297  16.816 -0.1430  0.0792 -0.1580
 8988W        W 9852   3.357  15.107  12.599  0.0377 -0.4101 -0.0944
 8989W        W 9853  22.797  11.654  21.951 -0.1372  0.0231 -0.1632
 8990W        W 9854  21.866   2.835  24.020  0.1432  0.0675  0.0233
 8991W        W 9855   6.982  10.420  19.430  0.0870  0.3733  0.0867
 8992W        W 9856  12.895   8.268  13.832  0.1255 -0.0969  0.1531
 8993W        W 9857   2.945  10.266   2.447 -0.3363  0.3018 -0.0981
 8994W        W 9858  23.644   7.174  18.475  0.0819 -0.1541 -0.2193
 8995W        W 9859  25.869  17.927   5.217 -0.0046 -0.1286  0.0526
 8996W        W 9860   9.693  26.043   3.140  0.3031 -0.0373  0.2815
 8997W        W 9861   1.662   4.535   8.629 -0.0415  0.1021 -0.0777
 8998W        W 9862   3.866  11.638   7.794  0.1210 -0.4218 -0.0034
 8999W        W 9863  14.955  11.193  26.274 -0.0012 -0.0331 -0.0641
 9000W        W 9864  19.339  17.357  14.468 -0.0803 -0.2079 -0.3721
 9001W        W 9865  17.915   8.369   2.969 -0.0636  0.0021 -0.1679
 9002W        W 9866  24.187  14.923   0.533  0.1576 -0.0395  0.1505
 9003W        W 9867  27.494   7.668   7.188 -0.1143 -0.1939 -0.1242
 9004W        W 9868  21.280  14.293  27.650 -0.1937 -0.0251  0.1274
 9005W        W 9869   2.057  10.015   9.796 -0.1484 -0.1238  0.1003
 9006W        W 9870  13.913   7.179  10.654  0.0597 -0.1324 -0.1145
 9007W        W 9871  19.982  21.353  25.710 -0.1754 -0.2144  0.0121
 9008W        W 9872  17.465   6.934   0.202  0.0539  0.0265  0.2470
 9009W        W 9873  22.351  19.918  15.942  0.1501  0.3066  0.4135
 9010W        W 9874  27.590   1.341  16.910 -0.0847  0.0119  0.0113
 9011W        W 9875  15.429  28.797   8.067  0.1918  0.2712  0.2486
 9012W        W 9876  16.388  21.218  24.891 -0.0932 -0.1020 -0.1949
 9013W        W 9877  11.630  19.100  10.232  0.1257 -0.0214  0.3369
 9014W        W 9878   4.154   0.915  28.335  0.0804  0.2556 -0.0688
 9015W        W 9879   4.131   5.446   8.034  0.2123  0.1097 -0.0088
 9016W        W 9880   1.688   1.988  23.577 -0.2149 -0.1830  0.1454
 9017W        W 9881  23.431   2.107  27.907  0.0532  0.0857  0.3264
 9018W        W 9882   4.827  10.616  18.116  0.0709  0.3048  0.4046
 9019W        W 9883   5.745  25.566   9.831  0.2290  0.2571 -0.0326
 9020W        W 9884  23.919  13.589   4.040 -0.0002 -0.3141 -0.0899
 9021W        W 9885  20.105   0.277   3.540  0.1387 -0.0945 -0.1427
 9022W        W 9886  20.252  28.373  27.829 -0.0462 -0.1701  0.2309
 9023W        W 9887  11.820  11.256  10.886  0.2713  0.0377 -0.2729
 9024W        W 9888  22.016  21.767  21.060  0.1793 -0.0655  0.3105
 9025W        W 9889  24.450  12.106   7.931 -0.0251  0.1281 -0.0144
 9026W        W 9890  20.399   4.089  23.164 -0.1356 -0.0362 -0.1306
 9027W        W 9891  25.195  13.797  19.117  0.1901  0.2418 -0.0675
 9028W        W 9892  20.737  28.362   7.841 -0.0079 -0.0004  0.0179
 9029W        W 9893   1.808  14.084  16.577 -0.3227  0.0436  0.4439
 9030W        W 9894  23.872  14.892  20.866 -0.2189  0.3154  0.0829
 9031W        W 9895  25.179   4.126  27.322  0.4180 -0.1489 -0.1172
 9032W        W 9896  10.080  13.675   2.432  0.0859  0.0627 -0.0714
 9033W        W 9897   6.504  17.201  21.542 -0.1148 -0.1998  0.2318
 9034W        W 9898  20.064  10.420  23.647 -0.2248 -0.0790  0.1612
 9035W        W 9899  23.013  12.184  24.170 -0.2353 -0.0339 -0.0631
 9036W        W 9900   4.560   6.090   1.741  0.0643  0.0497 -0.1933
 9037W        W 9901  24.647   8.602  27.460 -0.0320 -0.1684  0.1250
 9038W        W 9902  11.768  22.515  11.517  0.0190  0.1777  0.3199
 9039W        W 9903   6.881  19.201   1.117  0.1420  0.1807  0.4377
 9040W        W 9904   6.695  22.692  24.154  0.4315 -0.4038  0.0090
 9041W        W 9905  11.000  15.330  23.422 -0.2554  0.1952 -0.2934
 9042W        W 9906   3.446   2.227   5.453  0.1143  0.2570  0.1807
 9043W        W 9907   5.154   8.852  28.336 -0.1198 -0.2438 -0.0861
 9044W        W 9908  12.076   0.419  26.473  0.2915 -0.1938 -0.3426
 9045W        W 9909  25.251   2.225   3.834  0.4960  0.3792  0.1132
 9046W        W 9910  13.538   2.296  22.497  0.0090  0.0775 -0.2362
 9047W        W 9911  26.416   9.854  25.603  0.0369 -0.0465  0.1735
 9048W        W 9912  10.691  11.023  16.719  0.0801  0.2764 -0.1882
 9049W        W 9913  18.960  22.676  26.838 -0.0695  0.0523 -0.2131
 9050W        W 9914  18.134   4.684   9.659  0.1345  0.0502  0.3109
 9051W        W 9915  20.224  27.432  28.859  0.0320  0.1343  0.1399
 9052W        W 9916  27.751   4.486  13.305  0.0018  0.0347 -0.1774
 9053W        W 9917  13.521  17.090   5.334 -0.0934 -0.3729 -0.1252
 9054W        W 9918  15.111   7.789  25.403 -0.1669  0.1148 -0.0879
 9055W        W 9919  15.659  11.433   5.727 -0.0562 -0.1427  0.0171
 9056W        W 9920  14.963  21.766   3.410 -0.0781  0.0648 -0.1133
 9057W        W 9921  18.257  22.716   4.905  0.1059 -0.5257 -0.1574
 9058W        W 9922  11.359   7.002   5.646 -0.1384  0.0048 -0.1557
 9059W        W 9923  20.525   6.975  11.117 -0.1265 -0.1931 -0.0957
 9060W        W 9924  25.038   3.113  28.783  0.0268 -0.0475  0.3100
 9061W        W 9925   2.806   7.974   7.382 -0.1842 -0.2202 -0.3010
 9062W        W 9926  24.999  12.404   4.785  0.1236 -0.3403 -0.0738
 9063W        W 9927   0.209  26.706  10.435 -0.2391  0.1558 -0.0905
 9064W        W 9928   9.977  21.464  13.747  0.1771  0.2327 -0.1700
 9065W        W 9929  18.558   1.819  16.258  0.0186 -0.2541  0.2187
 9066W        W 9930  26.796   1.948   3.598  0.2698  0.0333  0.0820
 9067W        W 9931  11.681  28.266  21.347 -0.0186  0.1309 -0.1620
 9068W        W 9932  22.684  29.050  13.183 -0.1297 -0.0134  0.2235
 9069W        W 9933  12.947   7.109  10.550 -0.2422  0.2198  0.0768
 9070W        W 9934   0.200   8.534   5.668 -0.1105  0.0241  0.1561
 9071W        W 9935  16.345  14.759  23.689  0.0090  0.0924  0.2700
 9072W        W 9936  15.778   0.645  14.073 -0.1888  0.0643 -0.1016
 9073W        W 9937   2.671   4.841  10.520  0.1409  0.1263  0.2703
 9074W        W 9938   5.088   1.738  14.729  0.2089  0.1314  0.0370
 9075W        W 9939  17.697   5.756   1.303 -0.3211 -0.1978  0.2608
 9076W        W 9940  14.388  20.691  22.333  0.1656  0.1633  0.0714
 9077W        W 9941   0.291  13.207   1.200  0.1438 -0.0891 -0.2827
 9078W        W 9942  12.314  18.324   4.917  0.2940  0.2519  0.0654
 9079W        W 9943   7.559  27.959  18.418  0.3490 -0.1043  0.0127
 9080W        W 9944  16.970   3.983  21.648  0.0598 -0.2495 -0.1111
 9081W        W 9945   7.781  16.256   9.264  0.0452  0.1360 -0.2141
 9082W        W 9946  14.125  12.243   3.006 -0.4254 -0.0982 -0.0161
 9083W        W 9947  26.883   4.221   7.440  0.3385  0.1218 -0.0283
 9084W        W 9948   1.445   5.554   2.328 -0.2525 -0.2762 -0.2204
 9085W        W 9949  18.517  12.981  13.141  0.1090 -0.1371 -0.1345
 9086W        W 9950  18.663  24.875  25.989 -0.1104 -0.1004 -0.1385
 9087W        W 9951  15.241   3.462   8.791 -0.0498 -0.0166  0.1302
 9088W        W 9952  16.468  28.193   8.190  0.1977  0.2236  0.2206
 9089W        W 9953   3.655  12.095  25.426 -0.0704  0.3530  0.1212
 9090W        W 9954   9.586   5.050  21.874  0.0864 -0.1635  0.2972
 9091W        W 9955  24.328  24.463  12.535  0.0247  0.0668  0.0925
 9092W        W 9956  28.118  13.302   9.048  0.2855 -0.3440  0.3762
 9093W        W 9957   5.442  12.383  25.863 -0.1872 -0.1889  0.2765
 9094W        W 9958   8.430  15.578  17.636 -0.0842 -0.1802  0.2185
 9095W        W 9959  24.027  24.810  18.117 -0.0376 -0.0458  0.1967
 9096W        W 9960  21.914   4.931  14.066  0.2300 -0.1168 -0.1849
 9097W        W 9961  20.973  19.583   4.321  0.0444  0.2833  0.2094
 9098W        W 9962  11.626  25.573  24.691  0.4109  0.4266  0.0401
 9099W        W 9963   9.155  28.392  24.638 -0.0897  0.2202 -0.1144
 9100W        W 9964  24.245   3.060   7.876  0.0499  0.4248 -0.2985
 9101W        W 9965  16.530  23.102  14.195  0.1003  0.1371  0.2300
 9102W        W 9966   2.547   2.317  27.916  0.1130  0.4480 -0.2081
 9103W        W 9967   3.380  27.633  26.671  0.0297  0.0203 -0.0671
 9104W        W 9968  20.430   0.994  16.350 -0.0008 -0.1026 -0.0242
 9105W        W 9969   3.334  28.292  13.799 -0.0980 -0.2274 -0.0889
 9106W        W 9970  15.622   3.303  21.999 -0.0307 -0.2632 -0.0308
 9107W        W 9971  27.070  27.243  26.851 -0.1157  0.0128  0.0364
 9108W        W 9972  19.077   5.797   5.419  0.1135 -0.0059  0.0746
 9109W        W 9973  26.685  11.578   4.179  0.0093 -0.0489 -0.0359
 9110W        W 9974  27.058  15.193  14.534  0.0093  0.2143 -0.0258
 9111W        W 9975   6.635  26.065  15.405 -0.0803 -0.0843  0.0933
 9112W        W 9976   3.448  12.771  18.027  0.1170 -0.0879  0.1807
 9113W        W 9977  19.465   2.866   7.560  0.0153 -0.1658 -0.1538
 9114W        W 9978  22.054  28.412  18.068  0.3673  0.0105  0.1992
 9115W        W 9979  27.938  17.327  22.526 -0.0304  0.0542  0.0898
 9116W        W 9980   5.775  14.952   2.311  0.2251  0.2122 -0.3629
 9117W        W 9981  21.528  27.226  16.277 -0.2792 -0.2686  0.3246
 9118W        W 9982  12.807   4.906  15.500 -0.1917 -0.1677 -0.1812
 9119W        W 9983  18.755   7.550   9.157  0.0924  0.0036  0.1159
 9120W        W 9984   2.485  12.997  22.057  0.2423 -0.0020 -0.2989
 9121W        W 9985  19.172  18.457  19.543 -0.2360 -0.4205 -0.4416
 9122W        W 9986  19.423  12.122  17.947  0.0265  0.0507 -0.0059
 9123W        W 9987   7.377  25.847  22.268 -0.1382  0.0783  0.0703
 9124W        W 9988   8.163  25.706  25.575  0.2851 -0.3491  0.1802
 9125W        W 9989  20.307  20.223   4.550 -0.0432 -0.1042 -0.1356
 9126W        W 9990  14.115   5.970  20.318 -0.0255  0.1281  0.1145
 9127W        W 9991  15.137   4.671  21.874 -0.0378  0.1112  0.0129
 9128W        W 9992  10.252   1.997  12.799  0.2396 -0.0545 -0.0094
 9129W        W 9993  13.641  24.514  28.908  0.2623  0.0098 -0.1631
 9130W        W 9994  15.535   0.312   9.159  0.0298 -0.1247 -0.2999
 9131W        W 9995   1.109  26.769  12.764  0.0837 -0.0266  0.0661
 9132W        W 9996  16.955   6.040  26.093 -0.2072  0.1503 -0.3090
 9133W        W 9997  16.428   1.046  28.845  0.1939  0.3863  0.1223
 9134W        W 9998  21.726   9.346   8.927 -0.1271  0.1301  0.1868
 9135W        W 9999  11.839   2.335  11.875 -0.2813  0.1130  0.4323
 9136W        W10000  10.940  21.787   3.240 -0.0311  0.4371  0.0412
 9137W        W10001  26.916  23.787   8.070 -0.1682  0.1723 -0.1180
 9138W        W10002   4.407  14.839   6.194 -0.2778  0.0566  0.2317
 9139W        W10003   9.281  10.506  17.403 -0.1875 -0.2512  0.5531
 9140W        W10004   0.264  10.821   7.271  0.1531 -0.1644 -0.2401
 9141W        W10005  11.683  24.673  12.288 -0.0477 -0.5320  0.1087
 9142W        W10006  26.711  11.290  20.946 -0.1497 -0.0623 -0.1098
 9143W        W10007   1.987  11.088   6.022 -0.1244  0.2312 -0.0527
 9144W        W10008  10.357  20.719  11.232  0.0328  0.1649  0.1683
 9145W        W10009  16.677  10.195  12.525  0.1778 -0.2538  0.5715
 9146W        W10010   5.738  13.966  15.082 -0.0470 -0.2025 -0.3008
 9147W        W10011  16.986  10.579   1.381 -0.0868  0.0249  0.1995
 9148W        W10012  17.635  20.793   6.992  0.1212  0.0237  0.1804
 9149W        W10013   8.419   4.687   3.699  0.4088  0.2645 -0.3506
 9150W        W10014   3.584  10.016  18.342 -0.1866 -0.1231 -0.0286
 9151W        W10015  23.307  15.442   8.595  0.3188  0.1383  0.1337
 9152W        W10016  18.090   8.476  28.347  0.1964 -0.0364 -0.1603
 9153W        W10017  17.749   0.338  19.321  0.0268 -0.2043  0.0104
 9154W        W10018  11.053  27.488  12.741 -0.0669  0.1193 -0.4661
 9155W        W10019  15.342  12.685  21.107  0.1757 -0.1585  0.1921
 9156W        W10020  18.020  23.992   9.765  0.1032  0.0488 -0.1187
 9157W        W10021  24.845   5.141  23.772  0.3096  0.1648 -0.2545
 9158W        W10022  14.466   6.501  24.148  0.0817 -0.4805  0.1623
 9159W        W10023  29.131   6.951  13.985  0.0768  0.0713 -0.1818
 9160W        W10024  24.837  14.532   7.813 -0.0598 -0.2841  0.2248
 9161W        W10025  17.702  26.790  26.275 -0.2575  0.1296 -0.0837
 9162W        W10026   4.382  23.418   5.829  0.1187  0.3039 -0.0262
 9163W        W10027   2.921   9.693   1.694  0.0009  0.1728  0.1169
 9164W        W10028  19.098   1.523  22.713 -0.0157 -0.0158 -0.2870
 9165W        W10029  21.899  11.223  24.594 -0.0764 -0.1195 -0.1540
 9166W        W10030  19.469  18.646   4.160  0.2140 -0.0021  0.1676
 9167W        W10031  23.678   0.877  21.981 -0.2866  0.1562  0.0931
 9168W        W10032  23.440  10.348  17.748 -0.0393 -0.0103 -0.2376
 9169W        W10033  16.487  14.325  25.107  0.1582 -0.0050 -0.1547
 9170W        W10034   9.132   5.476  25.745 -0.0258 -0.2119  0.3051
 9171W        W10035  16.057   0.858  28.532  0.3358 -0.2234  0.2358
 9172W        W10036  20.860  14.523  28.415 -0.1991  0.2010 -0.0088
 9173W        W10037  26.758   4.712  22.448 -0.1028  0.0087 -0.0374
 9174W        W10038  26.354  17.168  21.468  0.0098 -0.0735 -0.3219
 9175W        W10039  15.264  16.405   3.385  0.0046 -0.0702  0.4114
 9176W        W10040  16.478  26.781  15.906  0.2239 -0.2970 -0.0518
 9177W        W10041  21.530   4.814  27.560  0.1021 -0.1218 -0.1253
 9178W        W10042  11.239  26.738  27.449  0.0013  0.0482 -0.1943
 9179W        W10043  28.468  11.787   7.327  0.0376  0.0313  0.0850
 9180W        W10044   1.469  23.456  24.862 -0.1304 -0.1627 -0.0754
 9181W        W10045  15.483   7.972  14.853 -0.0108  0.1310 -0.1258
 9182W        W10046  25.474   7.146  23.672  0.1142 -0.1779 -0.0335
 9183W        W10047  12.309  24.643   7.578  0.1914  0.0932 -0.3281
 9184W        W10048  18.936   0.844  28.287  0.2694  0.2149  0.3373
 9185W        W10049   3.390  10.547   0.194 -0.2114  0.1241  0.0225
 9186W        W10050  11.319  19.679  22.567 -0.6095  0.1867 -0.1296
 9187W        W10051  13.107   0.276  21.185 -0.3832  0.0583  0.2314
 9188W        W10052  19.383  19.792  28.119 -0.1350  0.1724 -0.0520
 9189W        W10053  25.758  13.097   2.182  0.1048 -0.1672  0.1265
 9190W        W10054   1.236   2.594  28.303 -0.1509  0.0477  0.0949
 9191W        W10055   7.249   7.380   4.720 -0.1193  0.0904  0.0582
 9192W        W10056   0.238  13.476  19.335  0.3625  0.0688 -0.2931
 9193W        W10057   8.908   7.620   9.337 -0.0758 -0.0098 -0.0208
 9194W        W10058  17.680  15.550   3.093 -0.1520  0.0791 -0.2123
 9195W        W10059  11.405   2.314  17.954  0.2338  0.0655  0.1366
 9196W        W10060  12.710   5.708   6.379  0.1612  0.0052 -0.0046
 9197W        W10061  12.793  10.712   8.752 -0.0931  0.1264  0.3887
 9198W        W10062  14.715  17.973  26.556 -0.0816  0.2928  0.4106
 9199W        W10063   0.191   0.183  10.557  0.0696 -0.1287  0.3662
 9200W        W10064  21.173  19.790  27.052  0.3086 -0.2583  0.1749
 9201W        W10065  11.472   9.606   5.483 -0.2453 -0.1721 -0.0202
 9202W        W10066   0.277   6.203   8.118 -0.1489  0.2611 -0.1867
 9203W        W10067  24.372  24.829  27.742 -0.1115 -0.1207  0.0446
 9204W        W10068   6.882   7.020  22.520  0.0981 -0.0518 -0.0385
 9205W        W10069   3.955  17.130   6.086  0.0839  0.2230 -0.0861
 9206W        W10070   1.108   0.688   1.704  0.2590  0.2927  0.1383
 9207W        W10071  11.467  21.952  10.160 -0.2494 -0.1035 -0.0882
 9208W        W10072  26.358  24.589   1.795 -0.0996 -0.0125 -0.0285
 9209W        W10073   9.829  14.107   2.365  0.0421 -0.1129 -0.1565
 9210W        W10074  19.163   1.451  10.058 -0.0426 -0.0211 -0.0640
 9211W        W10075  29.078  12.258  16.323  0.1798 -0.2338 -0.2168
 9212W        W10076  22.204  12.838  21.514  0.0964 -0.1706 -0.2920
 9213W        W10077   2.472   7.139  13.028 -0.0517 -0.0198  0.0285
 9214W        W10078   4.242   1.296  12.420 -0.1225 -0.0086  0.0810
 9215W        W10079   7.761   4.851   9.435  0.0313 -0.0457  0.0163
 9216W        W10080   0.645  22.587  20.681 -0.0543  0.2608 -0.0045
 9217W        W10081  20.896   1.863   3.262  0.1841 -0.1194 -0.2291
 9218W        W10082  20.838   5.050   1.311  0.3565  0.1590 -0.2025
 9219W        W10083  20.212  25.576  26.177  0.2993  0.1469  0.0931
 9220W        W10084  24.816  26.263  15.418 -0.0068 -0.0417 -0.0061
 9221W        W10085   3.967   6.487  11.925 -0.0784  0.3360  0.1242
 9222W        W10086  11.357  25.309   8.038 -0.1619  0.0708  0.2754
 9223W        W10087  27.254  17.295  28.000 -0.2097 -0.2248 -0.0185
 9224W        W10088  18.147   5.487   1.461 -0.0856 -0.2700  0.2727
 9225W        W10089  14.793   9.758   0.565 -0.3168  0.0777  0.0086
 9226W        W10090   2.787  27.564   3.320  0.0574 -0.4513 -0.0724
 9227W        W10091  26.139   0.809  20.337 -0.0194 -0.1121 -0.1462
 9228W        W10092  14.751   7.594  20.248 -0.1720  0.1327 -0.3910
 9229W        W10093  20.009  18.959  22.007  0.0975  0.3106 -0.1196
 9230W        W10094   2.169   3.325   3.661  0.1112 -0.3852 -0.0877
 9231W        W10095   0.253  27.183  23.435  0.2724 -0.0002 -0.1412
 9232W        W10096  22.654  23.445  26.177  0.1528 -0.1681 -0.1700
 9233W        W10097  10.661  15.165  11.240 -0.3282 -0.0599 -0.0928
 9234W        W10098  19.112  24.561  22.396  0.1925  0.0147  0.0755
 9235W        W10099  16.025   8.471  24.373  0.0780 -0.3025 -0.0775
 9236W        W10100   8.976  22.139   6.974  0.2037 -0.0373 -0.0496
 9237W        W10101  12.169  21.405  22.958  0.0232  0.0269  0.1057
 9238W        W10102  25.402   8.200  27.837  0.0816  0.0111 -0.2377
 9239W        W10103  19.780  27.622  29.019 -0.0267 -0.1513 -0.0493
 9240W        W10104  16.463   1.974   0.941  0.0546 -0.0723  0.1230
 9241W        W10105  28.057   0.726   2.871  0.0409 -0.0694 -0.3424
 9242W        W10106  21.721  12.163   5.967 -0.0777 -0.1066  0.1019
 9243W        W10107  25.647   5.389   8.725  0.2519 -0.1242 -0.0704
 9244W        W10108  11.653  18.914   2.369  0.1881 -0.2455  0.0237
 9245W        W10109   7.258  12.205  16.021 -0.0908 -0.0973  0.1583
 9246W        W10110   6.278  11.962   4.262 -0.1901 -0.1188 -0.1153
 9247W        W10111  28.899  26.687  13.767  0.1015  0.2814 -0.3519
 9248W        W10112  21.365   2.023   6.039 -0.0065  0.0757  0.1834
 9249W        W10113  22.460  18.397   1.566  0.4136 -0.1198  0.1042
 9250W        W10114  10.710  16.995  11.720 -0.2913  0.0389  0.1023
 9251W        W10115   2.954  21.626  12.597  0.1992 -0.2107  0.1098
 9252W        W10116   0.690   9.802  11.014  0.0093 -0.3494 -0.1910
 9253W        W10117  14.432  18.247   8.711  0.0847 -0.5103  0.1680
 9254W        W10118  18.122   0.457  12.118 -0.1423 -0.0152  0.1221
 9255W        W10119  18.924  18.012   4.937 -0.0519 -0.3009  0.1696
 9256W        W10120  21.750   0.068   7.161 -0.2164 -0.1457 -0.1491
 9257W        W10121  17.529  12.846  25.572 -0.3016  0.0280  0.4628
 9258W        W10122   2.364  21.139   6.407  0.0998 -0.1330  0.0472
 9259W        W10123  27.894  25.193  10.180  0.2724  0.1401 -0.3749
 9260W        W10124   1.756   3.695  17.947 -0.0910 -0.0074  0.0768
 9261W        W10125  11.351  22.805  12.819  0.1605 -0.0738 -0.2420
 9262W        W10126  24.067   5.406   5.159 -0.0597  0.0600  0.1921
 9263W        W10127   5.864  18.076  25.489  0.1640 -0.1313 -0.1218
 9264W        W10128  17.286  27.244  26.057 -0.2034  0.3616 -0.0120
 9265W        W10129  14.118  28.967  14.370  0.1258 -0.2344  0.0533
 9266W        W10130   1.213  15.687  20.994 -0.0161 -0.1124  0.4754
 9267W        W10131  17.559   8.625  22.974  0.2551 -0.2149 -0.2387
 9268W        W10132   1.460  14.826   9.098 -0.1293 -0.0560 -0.0284
 9269W        W10133  22.800  19.310   8.297 -0.1750 -0.0327 -0.0008
 9270W        W10134  23.811  25.855  10.277  0.1223  0.1283  0.2240
 9271W        W10135  21.168   2.509  22.795 -0.0903 -0.1913 -0.1412
 9272W        W10136   3.552   7.380  13.092 -0.3010 -0.0553 -0.0215
 9273W        W10137  20.693  12.561  15.945 -0.0253 -0.1977 -0.4052
 9274W        W10138  20.491  27.974  25.028 -0.0493  0.3245  0.0765
 9275W        W10139  27.276   7.925  20.308  0.0594 -0.0120  0.2275
 9276W        W10140   9.982  19.678   9.261 -0.0393 -0.1081  0.1295
 9277W        W10141  25.536  26.167  26.082  0.0928 -0.1234 -0.0751
 9278W        W10142   6.531  24.285  28.664  0.3987  0.0750  0.2088
 9279W        W10143   4.423  28.990   4.763 -0.1804 -0.0247 -0.1900
 9280W        W10144  26.724   7.869  20.212  0.1853  0.0479  0.1411
 9281W        W10145  20.750  21.677  17.785  0.4218  0.1786  0.1978
 9282W        W10146   9.180  17.393   7.911 -0.1905 -0.2033  0.0084
 9283W        W10147  16.420   9.613  15.520 -0.6473  0.1441 -0.0919
 9284W        W10148  20.325  17.720   6.960 -0.0959  0.1189 -0.0495
 9285W        W10149  13.273  20.053   7.030  0.1100  0.0587  0.0224
 9286W        W10150  28.734  16.979  19.730 -0.0095 -0.0563  0.2517
 9287W        W10151  25.724  17.734  17.440 -0.2944 -0.0742  0.1497
 9288W        W10152  26.483   5.361  28.627  0.1046  0.0500  0.2461
 9289W        W10153  12.138   4.712   2.543 -0.0092  0.1538 -0.0953
 9290W        W10154   7.772  13.220  17.147 -0.0881  0.0256 -0.0702
 9291W        W10155  16.148   0.342  16.664 -0.0672  0.1625 -0.1454
 9292W        W10156  17.100   1.159   4.625  0.3508 -0.2361 -0.0352
 9293W        W10157  20.098  23.612  10.926  0.1811  0.2427  0.1367
 9294W        W10158  28.816   6.548  11.477 -0.2081  0.1218  0.0684
 9295W        W10159  12.869  23.506   9.868  0.3136 -0.1880  0.0170
 9296W        W10160  22.680  27.322   9.324 -0.2598 -0.2959 -0.2031
 9297W        W10161  18.267  14.671  10.954 -0.2168 -0.0019  0.0138
 9298W        W10162   9.934  20.018  16.037  0.0395  0.0813  0.5168
 9299W        W10163  29.079  25.815   3.590  0.2927 -0.0041  0.1448
 9300W        W10164  24.289  25.513  19.947 -0.1215  0.1066  0.0496
 9301W        W10165  19.532   8.700  23.551 -0.2227 -0.1649 -0.2411
 9302W        W10166  17.199  25.930   7.699  0.3083  0.0985  0.3818
 9303W        W10167   0.013   3.976  14.738  0.2029  0.2111 -0.0071
 9304W        W10168   6.603  16.879   6.031  0.1526 -0.2621  0.0084
 9305W        W10169   5.820   9.832  22.187 -0.2144  0.2674 -0.3278
 9306W        W10170  24.000   5.546   7.283 -0.0678  0.1182 -0.1185
 9307W        W10171  11.758  16.717   0.604  0.2376  0.1260  0.2541
 9308W        W10172   9.755  28.664   3.844  0.0733  0.1391  0.1726
 9309W        W10173   8.336   5.634  22.365 -0.1442 -0.0671  0.2346
 9310W        W10174  13.623   9.808   4.326 -0.1571 -0.1638 -0.1614
 9311W        W10175  18.033   5.732   0.325 -0.0435  0.0856 -0.1145
 9312W        W10176   8.098  27.609  28.912  0.2379 -0.2804  0.1483
 9313W        W10177  21.210   2.931  22.462  0.1849  0.1937 -0.0427
 9314W        W10178  24.122   6.157   6.671  0.0052 -0.1421 -0.1329
 9315W        W10179   2.233  22.249  24.106 -0.2360 -0.0021 -0.1398
 9316W        W10180  21.631  10.682   4.375 -0.0235  0.1631  0.1399
 9317W        W10181   3.498  12.806  21.117 -0.2280  0.0101  0.0439
 9318W        W10182   5.475   4.609   4.210  0.1115 -0.4752  0.3298
 9319W        W10183  16.116  20.963  24.104 -0.1078  0.2696 -0.2842
 9320W        W10184  24.730  26.413  13.218  0.2635  0.0729  0.2532
 9321W        W10185   7.919   3.006  22.154 -0.0111 -0.0163 -0.0912
 9322W        W10186  22.154  19.146  23.366 -0.4806 -0.1089  0.1155
 9323W        W10187   9.358   9.331  18.221  0.0103 -0.2194  0.0135
 9324W        W10188  13.379  17.688  26.093  0.1509 -0.1349  0.2296
 9325W        W10189   6.009  22.676  25.813 -0.0368 -0.3009 -0.1523
 9326W        W10190  16.674  11.413   7.798  0.0317 -0.0152  0.1002
 9327W        W10191  19.354   5.720   9.215  0.1022 -0.5243 -0.0565
 9328W        W10192  10.264   5.831   9.735  0.1627 -0.2062 -0.2861
 9329W        W10193  15.549  16.397  28.898 -0.3357  0.0602  0.0210
 9330W        W10194  14.362   9.484  17.865  0.0196  0.1550  0.0453
 9331W        W10195  28.663  28.335   2.077 -0.0746  0.0460 -0.0016
 9332W        W10196  16.532   0.567  17.931  0.1393 -0.1199  0.1811
 9333W        W10197  17.782  14.935  11.581 -0.0741 -0.1118 -0.3717
 9334W        W10198  16.006  18.798  10.132 -0.1513  0.0241  0.1679
 9335W        W10199  29.023  16.443  21.105  0.2445  0.0306  0.1254
 9336W        W10200  22.027  19.328   0.283  0.2809  0.1449  0.2380
 9337W        W10201   7.267  14.451  28.701 -0.0889  0.3554 -0.0729
 9338W        W10202  28.453  11.743  11.890  0.0203  0.1585  0.1745
 9339W        W10203  20.299   4.851  17.558  0.2796  0.2195 -0.1860
 9340W        W10204  14.594  10.068  14.886  0.0583 -0.0435 -0.2034
 9341W        W10205   2.609  23.890   8.724  0.4410 -0.3052  0.0864
 9342W        W10206  14.486  21.009   0.846 -0.0160 -0.0824  0.2440
 9343W        W10207  22.404  10.811  14.256 -0.0639  0.1583 -0.3281
 9344W        W10208  18.455  16.884   5.797  0.1120 -0.2094  0.0616
 9345W        W10209  18.926   7.192   0.004 -0.0669 -0.3113  0.0152
 9346W        W10210   0.649  13.219  13.879 -0.0243 -0.0816 -0.3223
 9347W        W10211  20.823   4.457  19.574 -0.0867  0.0972 -0.1668
 9348W        W10212   1.203  17.789  13.378  0.1457 -0.0146 -0.0836
 9349W        W10213  18.663   3.960  14.852 -0.0456 -0.2695 -0.2189
 9350W        W10214  22.238   1.278  12.051  0.0651  0.1217  0.2185
 9351W        W10215  10.047  25.471   0.724  0.0046 -0.0657  0.1820
 9352W        W10216   6.797  12.562  27.546  0.1589  0.0500  0.3257
 9353W        W10217  25.223  11.275   0.727  0.2053 -0.0786  0.0676
 9354W        W10218   3.137  10.163  27.275 -0.0953  0.1557 -0.1287
 9355W        W10219   0.032  24.694  11.685  0.3956  0.3269 -0.2302
 9356W        W10220  14.369   5.770  26.400  0.0132 -0.1862  0.2555
 9357W        W10221  18.985  25.245  10.308  0.0574 -0.2841 -0.2330
 9358W        W10222   8.504  16.473  19.410  0.0143 -0.0446  0.0938
 9359W        W10223  26.144  15.709  27.871  0.0077  0.0623 -0.1831
 9360W        W10224   3.591   0.768  10.333  0.0670 -0.0054  0.1109
 9361W        W10225  12.187  20.523   0.915 -0.1101  0.2081  0.1102
 9362W        W10226   5.742  22.364  26.254 -0.2008 -0.0522 -0.1218
 9363W        W10227  26.340  23.546  17.892 -0.1325  0.1041 -0.0360
 9364W        W10228  18.189  15.857  17.302  0.0553 -0.0735 -0.0994
 9365W        W10229   9.695   5.714  19.300  0.2431  0.4606 -0.0936
 9366W        W10230   8.264  27.771   5.132 -0.4086 -0.0608 -0.0759
 9367W        W10231  20.161  27.591  14.118 -0.0752 -0.4601  0.0007
 9368W        W10232  20.918   3.336   6.353  0.0607  0.3612 -0.1025
 9369W        W10233  25.876  10.365   1.104  0.2347 -0.1721 -0.1143
 9370W        W10234  15.975  17.454   8.589 -0.2954  0.0959 -0.2050
 9371W        W10235   3.902   7.770  20.479  0.1186 -0.0862  0.0306
 9372W        W10236  22.163   8.395   5.615 -0.0404  0.0702  0.2008
 9373W        W10237  23.167   9.780  22.080  0.2300 -0.2904  0.1394
 9374W        W10238   2.191   7.645   5.024  0.1110  0.1063 -0.0314
 9375W        W10239  13.527  17.668  17.297 -0.0235  0.0088  0.2276
 9376W        W10240   9.181  14.973  10.577 -0.0538  0.0555 -0.2864
 9377W        W10241  21.653  11.259  27.089 -0.2315  0.0429  0.3313
 9378W        W10242   9.148  27.615  11.858 -0.3609 -0.2090 -0.0233
 9379W        W10243  17.713   4.914   0.217  0.0897  0.1972 -0.0315
 9380W        W10244   9.177  17.999  16.557 -0.3067 -0.2602 -0.0334
 9381W        W10245  12.954  10.091  15.637  0.0767 -0.3429 -0.2291
 9382W        W10246  21.820  11.753  14.927  0.1960 -0.1327  0.1620
 9383W        W10247  27.475  26.802  10.577 -0.0076 -0.0257 -0.2265
 9384W        W10248  21.359  15.943  14.741 -0.1328 -0.0250  0.1206
 9385W        W10249  28.164   5.658   7.979 -0.0635 -0.3318 -0.3354
 9386W        W10250  10.099  13.882  12.934 -0.3048 -0.1304  0.0185
 9387W        W10251  10.333  22.605   7.434 -0.1164  0.1158  0.1398
 9388W        W10252  20.468  11.728   8.439 -0.3830 -0.1273 -0.4494
 9389W        W10253  27.917  26.287  26.767 -0.2287  0.0628  0.0315
 9390W        W10254  25.016   3.969   2.122 -0.0892 -0.0969  0.1645
 9391W        W10255  16.091   3.613   1.741 -0.0209 -0.1386  0.1385
 9392W        W10256   7.762   7.758  21.680  0.3785  0.2046  0.2346
 9393W        W10257  25.445   6.768  14.383  0.1415 -0.2141 -0.0728
 9394W        W10258  28.302  16.738  15.360 -0.1231 -0.0049 -0.0034
 9395W        W10259  22.800   3.863   5.128 -0.0273  0.0451 -0.0953
 9396W        W10260  26.738  14.010   9.312  0.1235 -0.0918  0.0994
 9397W        W10261  23.717  28.490  16.912  0.2540  0.0691  0.0425
 9398W        W10262   3.910   7.921  27.545  0.0881 -0.1586 -0.1653
 9399W        W10263  13.142  20.717  16.538 -0.2521 -0.1789 -0.2705
 9400W        W10264  12.392   5.124  10.388 -0.0944  0.2414  0.3297
 9401W        W10265   3.443  24.281  11.684 -0.0801 -0.0350 -0.2032
 9402W        W10266   5.937  25.639  22.684 -0.0042 -0.3095  0.1661
 9403W        W10267   6.348   2.142  18.072 -0.0658  0.0997  0.2948
 9404W        W10268   4.876   1.249  15.990  0.1119  0.4720 -0.1566
 9405W        W10269  15.132  14.050  19.989  0.1686  0.1183  0.1275
 9406W        W10270  18.755  27.612  23.124 -0.2049 -0.0239  0.0733
 9407W        W10271   8.981  21.763  26.787 -0.0282 -0.5142  0.1169
 9408W        W10272  13.511   3.257  22.664 -0.1977  0.0128 -0.0923
 9409W        W10273  16.675   8.967  27.929 -0.1330 -0.2518 -0.1747
 9410W        W10274  17.717  19.527  16.577  0.1408 -0.0680 -0.0737
 9411W        W10275   1.254  10.378  29.081  0.0672  0.0936 -0.2409
 9412W        W10276  17.564  10.709  20.370  0.2036  0.2793 -0.2930
 9413W        W10277  17.526  23.033   8.022 -0.1273 -0.0898 -0.0643
 9414W        W10278   8.749   4.266  11.604  0.2568 -0.0062 -0.1672
 9415W        W10279  18.878   3.721   4.940  0.1539 -0.1535  0.2565
 9416W        W10280  28.840  28.550  24.021  0.1598  0.0026 -0.0456
 9417W        W10281  12.817   4.824   6.578 -0.0430  0.1753 -0.3672
 9418W        W10282  23.124  19.397   7.593 -0.3723 -0.0286 -0.0911
 9419W        W10283   1.630   8.308  10.149  0.1452 -0.0583  0.0128
 9420W        W10284  14.958   1.221  13.116  0.0580 -0.6037 -0.1333
 9421W        W10285   1.837   1.484  23.472  0.2141  0.2022  0.1554
 9422W        W10286  13.665  19.263  10.565 -0.2640  0.0068 -0.1775
 9423W        W10287  15.541   6.262  28.755  0.0057  0.0910  0.0153
 9424W        W10288  20.044  11.530  22.218 -0.0186 -0.0195 -0.2849
 9425W        W10289   7.256  17.431  27.947  0.0138 -0.0024 -0.0080
 9426W        W10290  18.921   1.294   5.043  0.0048 -0.1544  0.2101
 9427W        W10291   0.178  27.892  28.224  0.1137 -0.4222 -0.1866
 9428W        W10292  26.614  11.781  17.183  0.1241  0.1102 -0.0132
 9429W        W10293  10.999  28.990  20.034  0.1705  0.2784 -0.1048
 9430W        W10294   9.925  20.911   8.341  0.1793 -0.0173  0.0411
 9431W        W10295   9.075  15.932  27.110  0.3045 -0.3071 -0.1612
 9432W        W10296  11.704  26.401  28.619 -0.1999 -0.0729  0.0668
 9433W        W10297  28.679  10.405   7.804 -0.1149  0.1736  0.0787
 9434W        W10298   0.148   0.748  12.877  0.1137 -0.0463  0.0435
 9435W        W10299  16.641  14.683  26.912  0.1150 -0.1376 -0.2183
 9436W        W10300  12.165  25.577   4.280  0.0213  0.1790  0.0826
 9437W        W10301  18.535   7.906  20.094 -0.1063 -0.5035  0.0070
 9438W        W10302  28.623  21.280  16.643  0.0015 -0.1429  0.1511
 9439W        W10303  18.717  17.225   7.603  0.2364 -0.4894  0.0706
 9440W        W10304  25.464   2.715  25.401  0.2049 -0.0451  0.0543
 9441W        W10305   5.978  25.861  16.540 -0.6431  0.1979  0.1332
 9442W        W10306  14.772   9.476  11.048  0.2632  0.1424  0.1001
 9443W        W10307  25.876   1.972   7.146 -0.2698  0.2005  0.0578
 9444W        W10308  28.444   1.403  17.008  0.3732 -0.0840 -0.0086
 9445W        W10309   5.063   8.814  21.640  0.0284 -0.1611 -0.4129
 9446W        W10310  13.613  26.621  16.474 -0.1585 -0.0722 -0.1252
 9447W        W10311  13.361  14.950  12.090 -0.0907  0.0020  0.0081
 9448W        W10312   9.173  25.562   7.232 -0.2232 -0.0668 -0.1429
 9449W        W10313   4.534   1.580  14.783  0.1120 -0.0621 -0.0482
 9450W        W10314   0.666   7.699  14.723  0.1950 -0.0281 -0.0107
 9451W        W10315  28.283  17.612   2.595  0.0484 -0.0203 -0.2859
 9452W        W10316  21.830  26.040  22.453  0.0631  0.1025 -0.0419
 9453W        W10317  25.696  29.114   5.169 -0.0863 -0.1851  0.0156
 9454W        W10318  13.467  25.370   0.665 -0.5131  0.0437 -0.1079
 9455W        W10319   9.713   7.413  19.656 -0.3065  0.0489  0.0844
 9456W        W10320  17.974   3.835   5.240  0.1782 -0.2091 -0.2230
 9457W        W10321  23.938   3.741   5.208  0.1754 -0.0500  0.0023
 9458W        W10322  20.819   3.974   0.271  0.0559  0.0946  0.1754
 9459W        W10323   7.234  13.383   3.619  0.0142  0.0771 -0.1024
 9460W        W10324  27.801  10.771  12.423  0.0638 -0.1754  0.0178
 9461W        W10325   5.303   8.781   8.580 -0.3230 -0.2290 -0.0486
 9462W        W10326  24.249   1.900   7.515 -0.1939  0.2455 -0.0583
 9463W        W10327   0.558  16.175  25.680  0.1362 -0.0300 -0.3324
 9464W        W10328  15.608  24.181  26.150 -0.1252  0.0157 -0.1035
 9465W        W10329  27.354   0.420  22.492  0.2377 -0.4806  0.3606
 9466W        W10330  25.328   8.715  25.766 -0.0293  0.0001  0.2165
 9467W        W10331  21.406   6.102  23.606 -0.0241  0.0322  0.0749
 9468W        W10332   1.427   1.299  17.740 -0.0516 -0.1464  0.2034
 9469W        W10333   1.602  13.498  13.673  0.2172  0.2130  0.2085
 9470W        W10334  21.514  21.430  12.301 -0.0584  0.2919 -0.0118
 9471W        W10335  17.712   7.642  11.368  0.3714 -0.2051  0.0500
 9472W        W10336  21.860  19.583   0.728  0.4705 -0.1298  0.3122
 9473W        W10337  12.107   5.391  28.061 -0.2698 -0.3043 -0.1532
 9474W        W10338  21.582   0.302   4.868  0.0495  0.0638 -0.0796
 9475W        W10339  24.777  17.736  27.599  0.3230 -0.0217 -0.3296
 9476W        W10340   6.583  16.804   9.943 -0.0579  0.0838 -0.0199
 9477W        W10341  28.014   1.059   4.783 -0.0440 -0.2101 -0.0618
 9478W        W10342  28.889  10.360  24.505 -0.2335 -0.1151 -0.1166
 9479W        W10343  24.297  11.163   9.291 -0.1123  0.1126 -0.0640
 9480W        W10344  11.568  27.434   0.215 -0.1977 -0.1882 -0.1714
 9481W        W10345  17.901   9.971  10.183 -0.1352 -0.3348 -0.1660
 9482W        W10346  19.867   6.415   8.875 -0.0418 -0.0720  0.1082
 9483W        W10347   3.783   6.045   2.178 -0.0365  0.1853 -0.1221
 9484W        W10348   2.918   0.171  16.795 -0.1091  0.0544 -0.2359
 9485W        W10349   9.236   1.400   7.052 -0.0621 -0.2455  0.0434
 9486W        W10350  25.685  15.912  15.001 -0.0009  0.1983 -0.1722
 9487W        W10351  18.601  15.893  20.791 -0.2179  0.4359  0.1165
 9488W        W10352  17.074  22.443   1.474 -0.2029  0.2299 -0.1218
 9489W        W10353  27.204   4.181  22.477 -0.2104 -0.0743 -0.0946
 9490W        W10354  19.799  10.910   7.603  0.0205  0.0963  0.0585
 9491W        W10355  26.347   1.150  20.665  0.4602  0.0295 -0.1509
 9492W        W10356  23.698   9.342  10.650 -0.0841  0.1302  0.1667
 9493W        W10357  15.458  26.322  11.233 -0.1146  0.1072 -0.1261
 9494W        W10358  20.287   3.894  28.182 -0.1933  0.0644  0.3365
 9495W        W10359  14.869   8.709   7.030 -0.0866 -0.0840 -0.0014
 9496W        W10360  17.941  17.450  12.040 -0.2653  0.0459 -0.1076
 9497W        W10361  20.197   5.443  27.772  0.1152 -0.4277  0.3293
 9498W        W10362   9.531   4.702  11.837  0.0630  0.1784  0.2155
 9499W        W10363  19.149  17.597  23.087  0.1143 -0.0809 -0.0655
 9500W        W10364  16.212   7.433  26.121 -0.0274  0.0342  0.2029
 9501W        W10365  18.047   0.957  27.024 -0.2345 -0.1344  0.0117
 9502W        W10366  27.347  25.093  12.173  0.0090 -0.1717 -0.0745
 9503W        W10367  16.864   0.334   0.847  0.0261  0.0327 -0.4476
 9504W        W10368  19.080  15.044   5.487  0.1041 -0.0709  0.3625
 9505W        W10369   8.246  25.991  21.642  0.2656  0.1123  0.0308
 9506W        W10370  25.650  13.485  17.530  0.0583  0.0038  0.1049
 9507W        W10371  21.512   6.696  22.068  0.0990 -0.3764  0.1994
 9508W        W10372   6.315  11.877  11.190 -0.1542 -0.1656 -0.0316
 9509W        W10373  27.149   4.421  17.391 -0.2018 -0.0741  0.0135
 9510W        W10374  12.693  24.155  15.093  0.0779  0.0051 -0.1111
 9511W        W10375  10.128  21.667   8.201  0.0101  0.1110 -0.2191
 9512W        W10376  20.006  17.864  28.059  0.1033 -0.2372 -0.0054
 9513W        W10377  10.297   7.911   8.647 -0.0176  0.2870 -0.1995
 9514W        W10378   4.890  21.329   0.838  0.1222  0.1133 -0.3103
 9515W        W10379  14.771  18.249  22.272  0.0374 -0.0981  0.0989
 9516W        W10380  19.498   1.978  24.669 -0.0102 -0.1144 -0.2683
 9517W        W10381  10.673   9.721  23.954  0.1574 -0.3595 -0.1298
 9518W        W10382   6.791   8.718  21.261  0.1786 -0.0221 -0.0206
 9519W        W10383  18.585  20.268  10.149  0.2043  0.1183 -0.3073
 9520W        W10384  21.304  14.648   0.944  0.1483  0.2061  0.1490
 9521W        W10385  11.107  12.428   7.119  0.1205  0.1036  0.2784
 9522W        W10386  12.720  23.069   9.025 -0.1819  0.1026 -0.1610
 9523W        W10387  19.794  13.836  28.357  0.2971 -0.2350 -0.1751
 9524W        W10388  19.585  18.124  26.297  0.1037 -0.0232  0.1059
 9525W        W10389   4.802  24.569   9.130  0.1906  0.1636  0.0085
 9526W        W10390  14.998  13.601  25.014 -0.1547 -0.1269  0.0191
 9527W        W10391  19.710  22.581   7.947  0.0444 -0.3467 -0.0985
 9528W        W10392  19.773  15.731   3.742  0.2072 -0.4510  0.2046
 9529W        W10393  24.054  17.600   3.414 -0.0870  0.1205 -0.1389
 9530W        W10394  23.571  27.316  12.860 -0.0940  0.0512 -0.0520
 9531W        W10395   5.397  11.741  21.131 -0.2042  0.2269 -0.2263
 9532W        W10396  17.294  18.250  11.664 -0.0337  0.1792 -0.0920
 9533W        W10397  16.645   4.636  12.070 -0.2124  0.0367 -0.0176
 9534W        W10398   1.574  27.601   8.522 -0.0537  0.0603  0.0708
 9535W        W10399  11.153  15.580  26.464 -0.1201  0.1936 -0.1224
 9536W        W10400  13.063  18.654   8.100  0.1927  0.0637  0.1577
 9537W        W10401   9.296  17.416   4.864  0.1059  0.3525  0.0179
 9538W        W10402   1.951  22.580  18.972  0.3404 -0.2522  0.0205
 9539W        W10403  14.551  25.429   4.813 -0.0074 -0.1041  0.3214
 9540W        W10404   4.387  28.075  23.939 -0.3032  0.0487 -0.0408
 9541W        W10405  20.641   1.598  12.158  0.1239 -0.1755 -0.0132
 9542W        W10406  21.317  28.754  19.407  0.0468  0.1825 -0.1128
 9543W        W10407  13.302  19.809  13.598 -0.0685 -0.0242  0.0854
 9544W        W10408   3.713  18.790   8.951 -0.2131  0.0665 -0.0765
 9545W        W10409  12.483  23.252   7.918  0.1502  0.3389  0.2654
 9546W        W10410  26.044  18.749  26.353 -0.4116 -0.0808  0.0699
 9547W        W10411  12.139   8.941   8.281 -0.5740  0.0459  0.1935
 9548W        W10412  20.812  13.233   8.948  0.1239 -0.1304 -0.2596
 9549W        W10413   8.442   9.252   7.377 -0.1734  0.1023  0.0807
 9550W        W10414   8.599   2.724   5.828 -0.2470 -0.2948 -0.3137
 9551W        W10415  14.988   1.890   2.575  0.1458 -0.0474  0.2851
 9552W        W10416  17.851   8.135  28.656  0.2330 -0.0876  0.0419
 9553W        W10417  17.652   2.500  18.777  0.0771  0.0669  0.0553
 9554W        W10418  13.113  16.895  10.015 -0.1409  0.4185  0.0723
 9555W        W10419  23.042  12.476  18.414  0.1243  0.0016  0.0243
 9556W        W10420  28.162   5.190  22.457  0.2239  0.0268 -0.3113
 9557W        W10421   9.886  11.201  12.013 -0.2413  0.1434 -0.0115
 9558W        W10422  22.755   6.255   3.365  0.0207  0.2133 -0.1010
 9559W        W10423  12.918  21.958  27.442  0.0558 -0.1235  0.1493
 9560W        W10424  21.216   6.930   6.409 -0.1105 -0.2685 -0.1051
 9561W        W10425  27.907  15.841  24.678  0.4635  0.4930  0.0408
 9562W        W10426  11.602  16.928  28.749  0.3157  0.2345 -0.1654
 9563W        W10427  22.045  27.752  28.733 -0.1252  0.0333 -0.2048
 9564W        W10428  16.798  26.996  19.723 -0.0274 -0.1708 -0.1691
 9565W        W10429  18.508  12.862  11.296 -0.0094 -0.2284 -0.0952
 9566W        W10430  19.390  26.423  10.996 -0.2097 -0.0175  0.1221
 9567W        W10431  10.253  16.672   4.768  0.0392 -0.1793 -0.0319
 9568W        W10432  19.295   3.294   7.202  0.0804  0.1030  0.0114
 9569W        W10433  19.266  27.299   6.428 -0.4729  0.1516  0.0872
 9570W        W10434  16.094  10.364   9.309 -0.1757  0.0951 -0.1692
 9571W        W10435  19.153  14.933  22.455 -0.0463  0.1172  0.0135
 9572W        W10436  15.415   3.565  28.541  0.2924  0.2596 -0.2193
 9573W        W10437  23.640  27.140  11.268  0.0148 -0.3848  0.0915
 9574W        W10438   3.420   5.197   2.543 -0.2826 -0.2580  0.2352
 9575W        W10439   4.637  21.361   4.120  0.0455  0.0688  0.0595
 9576W        W10440   6.851   9.408  26.915  0.1490 -0.1990  0.1162
 9577W        W10441  11.173  19.958  28.604 -0.2143 -0.3869  0.4394
 9578W        W10442  25.931   0.318   2.587  0.2482 -0.3614  0.0954
 9579W        W10443   0.367   5.495  18.105 -0.2162  0.2255  0.0510
 9580W        W10444   6.653  10.406  11.449 -0.1554 -0.0186  0.1332
 9581W        W10445   1.387  15.497   7.824 -0.2052 -0.0443 -0.1433
 9582W        W10446  22.607  15.433  26.208  0.0911  0.1172 -0.1053
 9583W        W10447  18.362  22.902   2.434  0.0957  0.0414  0.0357
 9584W        W10448  19.538  12.741   2.575  0.1981  0.0314  0.0301
 9585W        W10449   8.998   1.044  20.273  0.2697  0.2279  0.0991
 9586W        W10450  25.180  28.444  27.598  0.3181  0.5679  0.0704
 9587W        W10451  18.806   1.445  17.645 -0.0912  0.3798 -0.1183
 9588W        W10452  18.914  27.643  16.866  0.3191  0.1475  0.0176
 9589W        W10453  22.337   4.014   5.231  0.2445 -0.1695 -0.3847
 9590W        W10454  24.888  14.476  10.134 -0.0398 -0.2720 -0.0090
 9591W        W10455  10.309  19.744  18.421 -0.0610  0.0882  0.1287
 9592W        W10456  15.047  15.872   1.824 -0.0458  0.0591 -0.0510
 9593W        W10457  14.238   9.601  11.488  0.0998 -0.0507  0.0691
 9594W        W10458   2.556   7.528  11.862 -0.0166 -0.1546  0.3054
 9595W        W10459  19.195  27.246   0.697  0.1118  0.1612  0.1994
 9596W        W10460  17.180  17.476  11.517  0.0727  0.2139 -0.2491
 9597W        W10461   5.302   4.626   5.091 -0.1074 -0.0626  0.0025
 9598W        W10462   3.492  18.116  15.929 -0.1680 -0.0228 -0.3534
 9599W        W10463  12.750  23.016  24.227 -0.0875 -0.0919  0.0431
 9600W        W10464   4.838  10.741  26.566 -0.0930  0.2173  0.0023
 9601W        W10465  17.136   3.925   4.742 -0.0147 -0.1360 -0.0569
 9602W        W10466  14.054  28.948  10.570  0.1116 -0.1351  0.3374
 9603W        W10467  11.354   3.050   9.729 -0.1034 -0.1624  0.1458
 9604W        W10468  22.278  10.748  15.183 -0.1221 -0.3075 -0.2015
 9605W        W10469  14.037   7.599   2.880  0.1079 -0.1366 -0.1661
 9606W        W10470  19.728   8.246  16.394  0.1043  0.0167  0.0920
 9607W        W10471  19.224   0.065  15.238 -0.2603 -0.0074  0.0261
 9608W        W10472   0.650  12.282  11.982  0.0801 -0.0646 -0.0736
 9609W        W10473  13.646   5.807   5.276 -0.1054  0.2222  0.0437
 9610W        W10474  19.512  26.889  10.960 -0.1018 -0.3752 -0.1727
 9611W        W10475  22.157   4.535  12.067 -0.0666  0.0312  0.0306
 9612W        W10476  16.328   9.781  20.432  0.1481  0.3246 -0.1610
 9613W        W10477   8.759   5.444   8.769 -0.4017 -0.1659 -0.4372
 9614W        W10478  18.018  13.315  15.972  0.1000 -0.2255 -0.4106
 9615W        W10479  14.866  16.432  26.892 -0.1435 -0.1026  0.1890
 9616W        W10480  17.274   9.284   0.657 -0.0773 -0.3555 -0.1041
 9617W        W10481  24.372   1.710   4.481  0.0147 -0.0332 -0.0787
 9618W        W10482   2.677  20.158  19.157 -0.1155  0.2016 -0.0777
 9619W        W10483   9.269  17.559   5.928 -0.1473 -0.1774  0.1849
 9620W        W10484  17.435   8.125   7.422  0.1656 -0.0776  0.0206
 9621W        W10485  26.881   4.475   6.038 -0.0179  0.0667  0.0103
 9622W        W10486  16.197  23.335   4.579  0.1197 -0.0525 -0.2631
 9623W        W10487  26.284   3.525  10.008  0.0802  0.0574 -0.2374
 9624W        W10488  10.789   8.218   1.824  0.1283 -0.0398  0.0560
 9625W        W10489  12.090   4.069  22.160  0.0782 -0.0530  0.1395
 9626W        W10490  17.662   1.765   2.507 -0.1198 -0.1539 -0.1399
 9627W        W10491   7.992  28.602  23.871  0.0536  0.2319  0.1078
 9628W        W10492  15.360  22.740  15.460 -0.3837  0.0704 -0.2180
 9629W        W10493  24.587  10.763  19.804  0.0230 -0.0694 -0.1360
 9630W        W10494  14.839  15.320  26.504  0.0098  0.1104 -0.0686
 9631W        W10495   5.661   7.994  16.961 -0.4347 -0.0042  0.1900
 9632W        W10496   0.447  24.622  22.632 -0.1902  0.0841 -0.0040
 9633W        W10497  16.415  26.203  25.857 -0.3334  0.0364  0.2829
 9634W        W10498  25.701  19.486  13.435  0.0335  0.0883 -0.3878
 9635W        W10499  16.327   8.433  25.393 -0.1077  0.1378  0.1620
 9636W        W10500   8.063  16.167  19.690 -0.0189  0.0893  0.2780
 9637W        W10501   9.072   7.237   0.824 -0.0569  0.0630 -0.1775
 9638W        W10502  21.975  13.697   4.226 -0.1305 -0.1245 -0.0270
 9639W        W10503   7.121  22.117  25.495 -0.2701 -0.2377  0.1332
 9640W        W10504  14.047   7.947  25.507  0.2411  0.0526 -0.0417
 9641W        W10505   8.189   9.166  17.586  0.0247 -0.2479 -0.0421
 9642W        W10506   4.315   6.003  13.047  0.0755 -0.0521  0.0205
 9643W        W10507  15.048  26.370  12.327 -0.1062  0.1861  0.1109
 9644W        W10508   8.689  18.429   1.309 -0.0372 -0.2694  0.0282
 9645W        W10509  16.026  14.470   5.773 -0.0239  0.0713  0.1443
 9646W        W10510  16.890   5.798   5.876 -0.0309 -0.2258 -0.1019
 9647W        W10511  22.424   3.309  28.745  0.0874 -0.0017 -0.0227
 9648W        W10512  20.749   7.505   8.487 -0.0170  0.1236  0.1211
 9649W        W10513   3.494  21.796  27.129  0.1389  0.0126  0.0936
 9650W        W10514   5.987   5.389  15.353 -0.2875  0.0637 -0.0071
 9651W        W10515   0.899   3.616   9.861  0.0784 -0.1689 -0.0342
 9652W        W10516  25.821  29.143  15.574 -0.0415 -0.0606 -0.1427
 9653W        W10517  11.873  10.381   1.314  0.4574  0.2459  0.0252
 9654W        W10518  22.997  13.667  16.245 -0.2372  0.0079 -0.4159
 9655W        W10519  19.244  27.252   5.307  0.1251 -0.0356 -0.0499
 9656W        W10520  11.439  29.042  20.894 -0.2058 -0.0259 -0.3147
 9657W        W10521   7.137  10.861  16.346 -0.0354  0.1824  0.0403
 9658W        W10522  14.596  29.102  12.056  0.1054 -0.2040 -0.1673
 9659W        W10523   4.305  28.929   3.840  0.0303 -0.1156  0.2250
 9660W        W10524  25.661  14.726  18.088 -0.0902 -0.1076  0.0889
 9661W        W10525  19.745  17.700   8.466 -0.0169 -0.0443  0.1275
 9662W        W10526  16.999  10.910  11.626  0.1908  0.0894 -0.1543
 9663W        W10527  22.693  15.494  16.748 -0.0314  0.0784  0.1362
 9664W        W10528   3.967   7.541  17.790 -0.1480 -0.1595  0.3783
 9665W        W10529  13.889  17.241   7.904  0.1617  0.0402  0.0294
 9666W        W10530  24.640   4.858  28.175 -0.0797 -0.3191 -0.1967
 9667W        W10531  28.353  20.550  19.223  0.1721 -0.2815 -0.2358
 9668W        W10532  10.263  18.025   4.580  0.0882 -0.1218  0.3257
 9669W        W10533  15.432  16.682  14.839  0.1625 -0.2891 -0.1771
 9670W        W10534  21.197  26.214  27.457  0.0211  0.1579 -0.2017
 9671W        W10535   4.190  17.130  21.508  0.2672  0.0927 -0.1087
 9672W        W10536   8.187   7.938  19.150 -0.2488 -0.0358  0.0105
 9673W        W10537   1.146  10.228  18.629  0.0637  0.0512 -0.3883
 9674W        W10538  22.933  15.384   1.573  0.0920  0.0105  0.0988
 9675W        W10539  17.682  11.539   8.152  0.1752 -0.0622  0.3223
 9676W        W10540  24.557  10.652   9.094 -0.0868  0.0795 -0.1063
 9677W        W10541   1.604  12.567  22.343  0.0031 -0.2122  0.0169
 9678W        W10542   8.367  13.852   9.571  0.0558 -0.1105  0.0325
 9679W        W10543   1.153  28.542   2.013  0.1801 -0.1988  0.0700
 9680W        W10544  15.965   9.177  28.494  0.2422  0.1649  0.1137
 9681W        W10545  14.373  11.164  29.143 -0.0251 -0.0308  0.2214
 9682W        W10546  16.535   6.734   3.643 -0.0986  0.0002 -0.0705
 9683W        W10547  24.007  15.899  20.169 -0.2235  0.2344 -0.0130
 9684W        W10548  13.271   5.949   0.683 -0.2080  0.0904 -0.1588
 9685W        W10549  15.060  27.914  20.654 -0.1376 -0.2697 -0.4542
 9686W        W10550  24.302  20.241  25.702 -0.1480  0.0108 -0.1982
 9687W        W10551  19.464  19.340   2.583 -0.2505  0.0903 -0.1809
 9688W        W10552  19.554   9.130  25.375  0.1224 -0.3829 -0.3021
 9689W        W10553   4.861  28.283  11.801 -0.0401  0.1734  0.3877
 9690W        W10554  25.449   3.654  11.290  0.1007 -0.3047  0.1233
 9691W        W10555  27.133   7.366  28.611  0.0031  0.2186 -0.1112
 9692W        W10556  19.147  27.716  22.667 -0.1499  0.1261  0.2082
 9693W        W10557  15.160  24.901  18.815  0.2381 -0.0401 -0.1974
 9694W        W10558  27.110   0.272   5.080  0.0149 -0.1669  0.1858
 9695W        W10559  26.853  25.114   1.301 -0.1665 -0.1189 -0.0617
 9696W        W10560   8.939  18.082  10.195 -0.0188 -0.1782 -0.0436
 9697W        W10561  12.077  17.116   3.282 -0.1364  0.3879 -0.0312
 9698W        W10562  11.767   2.001  19.778  0.0067  0.2244  0.2623
 9699W        W10563   8.326  21.503  12.074  0.2073 -0.1090  0.1249
 9700W        W10564  16.709   8.886  28.874  0.0581 -0.3368 -0.0813
 9701W        W10565  22.898  24.346  14.627 -0.1082 -0.2221 -0.1612
 9702W        W10566  17.398  10.983  18.506 -0.3214 -0.1689  0.0520
 9703W        W10567  24.260   6.413   2.454 -0.0978  0.0363  0.2864
 9704W        W10568  24.938  24.548  13.412 -0.2207 -0.0921 -0.0665
 9705W        W10569   0.923  24.643  25.730  0.2306 -0.0998  0.3103
 9706W        W10570  21.145   1.904  18.988 -0.0539  0.1056 -0.0388
 9707W        W10571  28.707  13.574  18.024 -0.0279 -0.0501  0.0695
 9708W        W10572  23.761   8.346  19.042 -0.0932  0.2259  0.3591
 9709W        W10573   7.735  21.589  11.265  0.3679  0.3100 -0.2486
 9710W        W10574  21.718   6.709  16.818  0.0332 -0.2499 -0.3746
 9711W        W10575   4.032   3.878  26.326  0.2666 -0.0299  0.2396
 9712W        W10576  15.807   7.034  10.038  0.2210 -0.0014  0.1126
 9713W        W10577  13.994  18.114   0.940 -0.0916 -0.1030  0.1328
 9714W        W10578  17.220  24.914  15.347 -0.0137 -0.0067 -0.0955
 9715W        W10579  15.020  20.611   9.088 -0.0216 -0.2347  0.0842
 9716W        W10580  27.148   1.143  23.616  0.0249  0.0838  0.0455
 9717W        W10581   3.922   5.032  14.765 -0.3624 -0.3833  0.1230
 9718W        W10582   1.078  26.491  18.870 -0.0181 -0.2690 -0.0471
 9719W        W10583  14.734   7.388  17.653 -0.1186 -0.3269 -0.1147
 9720W        W10584  18.896   7.009   6.512  0.3000  0.0773  0.0080
 9721W        W10585   0.871  17.203  23.204  0.3126  0.3186  0.3887
 9722W        W10586  19.049  21.527  18.550  0.1714 -0.1170  0.0135
 9723W        W10587   2.141   3.790  28.083 -0.0504 -0.1397 -0.2896
 9724W        W10588  14.806  12.404   9.768 -0.2000  0.1763 -0.0270
 9725W        W10589  16.243  14.249  26.904  0.0204  0.0357 -0.0405
 9726W        W10590  10.736  20.303  10.077  0.0430  0.0712  0.0402
 9727W        W10591  17.888   2.689  13.674 -0.2258  0.3061  0.0277
 9728W        W10592   4.838  15.053   4.373  0.0549 -0.1119  0.2651
 9729W        W10593  25.691  22.823  11.240 -0.1375 -0.1073  0.4033
 9730W        W10594   3.206  22.275  14.296 -0.0496  0.0496 -0.0370
 9731W        W10595  26.560   9.552  28.481 -0.0729  0.0431  0.0995
 9732W        W10596  11.104   5.020  16.255 -0.0027  0.3242  0.0210
 9733W        W10597  17.518   3.338  21.458 -0.0765  0.0105 -0.0741
 9734W        W10598  26.103  24.365   4.250 -0.3589 -0.1422 -0.0161
 9735W        W10599  14.842  23.077   1.730 -0.1748  0.3306  0.4462
 9736W        W10600  21.091   5.867   4.645  0.1478  0.1576 -0.0768
 9737W        W10601   0.230  13.704   7.434  0.0543 -0.1193 -0.4902
 9738W        W10602  18.022   5.250   0.503 -0.1447 -0.0808 -0.1836
 9739W        W10603  28.526  24.344  23.838  0.0177  0.0247  0.0944
 9740W        W10604  13.034  20.843  13.523  0.0983 -0.0795  0.0279
 9741W        W10605  22.470  19.446  12.501  0.5351 -0.1425 -0.0289
 9742W        W10606  26.061  27.436   9.029 -0.0858 -0.1001 -0.1149
 9743W        W10607  18.875  10.746   9.544  0.0872  0.0400  0.2036
 9744W        W10608  23.502  11.691   5.381 -0.0424 -0.0216  0.0806
 9745W        W10609  20.242  12.792   9.752 -0.3917  0.0460 -0.1720
 9746W        W10610  11.731  25.650  21.227 -0.1144 -0.0293 -0.0235
 9747W        W10611  19.669   4.720  24.863 -0.1151  0.1132 -0.1994
 9748W        W10612   8.285  21.920  16.862  0.0290  0.0041 -0.2107
 9749W        W10613  18.311  12.523   1.467  0.2028 -0.1783 -0.2481
 9750W        W10614  11.110  18.422  10.154  0.0854  0.2752  0.2234
 9751W        W10615  28.871   1.402   1.284 -0.0431 -0.1350 -0.1282
 9752W        W10616  12.283   7.138  15.334 -0.1099 -0.1093 -0.2066
 9753W        W10617  13.999   9.043   4.965 -0.1769  0.1648 -0.1057
 9754W        W10618  14.045   3.426  21.127 -0.2149 -0.1829 -0.2318
 9755W        W10619  16.806   3.702  16.092 -0.0324  0.2649  0.1004
 9756W        W10620  27.699  23.978  19.678  0.0920  0.0754  0.2176
 9757W        W10621  27.654  11.065  19.931 -0.0249 -0.0409  0.0670
 9758W        W10622  12.625  14.257  15.596  0.4549  0.1258 -0.1594
 9759W        W10623  16.305  13.517  10.532  0.0215  0.1277 -0.0345
 9760W        W10624  28.857  15.439  11.290  0.0173  0.1452 -0.4285
 9761W        W10625   8.322  12.345   0.767  0.0044  0.2039 -0.0135
 9762W        W10626  22.247  13.400  26.461 -0.1248 -0.0277  0.0665
 9763W        W10627  16.442   3.470   5.868 -0.0344  0.1584 -0.0920
 9764W        W10628  13.559   8.755   8.072 -0.2804  0.1620 -0.0307
 9765W        W10629   5.463   3.592   3.481  0.0749 -0.0158 -0.0715
 9766W        W10630  26.133   9.433  10.292 -0.1168 -0.2995 -0.0300
 9767W        W10631  18.862   1.538  18.542 -0.0044 -0.0858  0.2902
 9768W        W10632  10.341  28.122   7.735 -0.2526 -0.3870  0.2905
 9769W        W10633   8.393  21.555  12.581  0.0908  0.2536 -0.0336
 9770W        W10634  25.300  29.125  15.542 -0.2008  0.1227 -0.1771
 9771W        W10635  12.761   9.879  15.178 -0.0076 -0.0099 -0.1378
 9772W        W10636   0.968  17.453   7.221  0.1797  0.0389  0.1785
 9773W        W10637  14.420   9.465  23.647 -0.0890 -0.1042 -0.1869
 9774W        W10638  16.758  21.106  21.433  0.0980  0.0375  0.0488
 9775W        W10639  28.522  11.424  23.695 -0.0600  0.2417  0.7103
 9776W        W10640  13.488   8.007  18.016 -0.1254  0.0667 -0.1362
 9777W        W10641  25.050  19.927  16.023  0.1341 -0.1576 -0.1991
 9778W        W10642  14.495   3.788   5.811  0.0388  0.1376  0.0787
 9779W        W10643  14.522  11.344   1.113  0.3561 -0.3295 -0.1521
 9780W        W10644  11.645  12.293  12.431  0.3303  0.0992 -0.2464
 9781W        W10645  27.174   4.439  10.456  0.0332 -0.1932 -0.2654
 9782W        W10646  18.071  11.117   0.356 -0.1151  0.2747  0.0886
 9783W        W10647  16.019   2.764   1.182  0.1439 -0.1123 -0.1434
 9784W        W10648   9.115  16.305  23.516  0.0491  0.0137 -0.0512
 9785W        W10649   0.632  12.150  27.561  0.2321 -0.2518  0.3970
 9786W        W10650  23.473   7.484  19.498 -0.1276 -0.2299  0.2100
 9787W        W10651   4.802   7.706   3.235  0.2223  0.1124  0.2717
 9788W        W10652  20.439  25.438  14.994 -0.0091 -0.0935 -0.1761
 9789W        W10653  22.848   8.251   7.253 -0.2735 -0.0050  0.0068
 9790W        W10654   6.131   7.246  19.488  0.1264  0.1694  0.1257
 9791W        W10655   0.847  20.655  15.816 -0.1926 -0.1539  0.1241
 9792W        W10656   3.410  12.376   1.451 -0.4366  0.0473  0.0025
 9793W        W10657   8.359  13.246  19.020  0.0947 -0.1027 -0.1313
 9794W        W10658  14.757  16.374   7.269 -0.0210  0.1476  0.1322
 9795W        W10659  22.055  10.095  21.396 -0.1915 -0.1912 -0.1846
 9796W        W10660  27.894  12.323  11.287  0.3071 -0.1518 -0.0031
 9797W        W10661  11.880   3.471  12.602  0.0329 -0.2434 -0.2143
 9798W        W10662  18.153  25.301   4.326 -0.0590 -0.1277 -0.0247
 9799W        W10663  14.015  15.650  14.520 -0.1071 -0.0405 -0.0557
 9800W        W10664  11.843   5.392  21.600  0.1238 -0.0139 -0.0236
 9801W        W10665  22.731  23.443   5.731 -0.2198  0.1535  0.0864
 9802W        W10666  26.035  27.518   2.188  0.1943  0.2478  0.3217
 9803W        W10667   6.045  13.684  11.017 -0.0650 -0.1639  0.1946
 9804W        W10668  20.496   4.680  20.195 -0.1181  0.0406 -0.0135
 9805W        W10669  28.464  11.222  19.782  0.3686  0.0228 -0.0219
 9806W        W10670  23.736   8.442   6.156  0.1226  0.0917 -0.0265
 9807W        W10671   8.733  16.064  19.548 -0.0044 -0.3062 -0.1980
 9808W        W10672  13.592  23.447  25.719  0.3845 -0.1890 -0.0733
 9809W        W10673  24.889   1.560   7.107  0.2822 -0.2548 -0.0409
 9810W        W10674  15.903  12.634   1.609 -0.0081 -0.2097 -0.0309
 9811W        W10675  12.463  10.875   3.654 -0.0296 -0.2363 -0.0439
 9812W        W10676  12.290  23.211  25.824  0.2483 -0.0258 -0.1246
 9813W        W10677  13.681  18.163   7.431  0.1339 -0.0495 -0.1504
 9814W        W10678  16.284   7.201  25.690 -0.1231  0.1942  0.2595
 9815W        W10679  26.229   3.377  17.127 -0.3562 -0.0775 -0.2344
 9816W        W10680   3.929   8.367  10.929 -0.1068  0.0365  0.0298
 9817W        W10681  17.916  21.011  15.699 -0.0374  0.2119  0.2753
 9818W        W10682   5.641   9.562   8.013  0.1323 -0.2247 -0.2609
 9819W        W10683  22.396  25.394   5.259 -0.0652  0.1629  0.3179
 9820W        W10684  28.188  19.982  10.115  0.0992 -0.0454  0.2236
 9821W        W10685  23.638   7.958   0.443 -0.2707  0.1758  0.4309
 9822W        W10686  20.094   8.962   7.117 -0.0770  0.0223  0.0899
 9823W        W10687  19.556  26.862   2.245 -0.1711  0.1682 -0.0857
 9824W        W10688  16.060   3.541  22.831  0.0334  0.2447 -0.0265
 9825W        W10689  10.268  20.131  22.942 -0.0139 -0.0762 -0.1085
 9826W        W10690  18.295  19.478   3.473  0.2949  0.0129 -0.2498
 9827W        W10691  23.470  23.768   0.080  0.0712 -0.0544  0.3293
 9828W        W10692  14.885  13.201  26.293  0.1469  0.0578  0.0336
 9829W        W10693   8.834  12.152   4.979  0.2529 -0.1539  0.0703
 9830W        W10694  18.697   0.213  13.599  0.3331 -0.1655 -0.0646
 9831W        W10695   5.591  11.369  20.146  0.2311 -0.5105  0.1806
 9832W        W10696   2.768   2.028  10.005  0.2951 -0.2112  0.0987
 9833W        W10697   8.590  14.620   0.314 -0.2625 -0.0184  0.1084
 9834W        W10698  17.717   0.031  18.564  0.1353  0.1833 -0.0036
 9835W        W10699  16.484  25.618  10.773 -0.0191 -0.0368 -0.0749
 9836W        W10700  16.544  18.515  15.182 -0.2050 -0.0963  0.1985
 9837W        W10701  27.881   6.246  19.101 -0.1973 -0.1920 -0.1202
 9838W        W10702  11.702  12.305   4.614  0.0069 -0.0112  0.0609
 9839W        W10703  25.949  10.004  10.371  0.3400  0.1514 -0.3277
 9840W        W10704  26.347  29.060   5.816 -0.0831  0.0392 -0.2551
 9841W        W10705  15.595  28.172  27.056  0.0271 -0.0539 -0.1204
 9842W        W10706  25.571  17.525   7.217  0.1488 -0.0612  0.1979
 9843W        W10707  11.903   8.023   3.685 -0.1466  0.0439 -0.2070
 9844W        W10708  20.536  11.164  28.447 -0.3120 -0.1318  0.0913
 9845W        W10709  16.998   3.206  13.124 -0.1316 -0.1531 -0.2869
 9846W        W10710  24.793   4.310  28.495 -0.0552  0.0592 -0.2194
 9847W        W10711  27.288  18.167   3.840 -0.0027  0.3217  0.1735
 9848W        W10712  22.139  20.457  11.757 -0.0948  0.0463  0.0232
 9849W        W10713   9.990   5.633   8.093  0.1724  0.0647 -0.1229
 9850W        W10714  14.659  20.848   9.478  0.0009 -0.2496  0.0828
 9851W        W10715  12.930   7.212   7.982 -0.1689 -0.1793  0.0156
 9852W        W10716  17.557  14.008   8.630  0.0308 -0.0748  0.1628
 9853W        W10717  18.238  11.155   7.672  0.0650  0.2248 -0.0204
 9854W        W10718  10.378  15.208   8.474 -0.1123 -0.0537  0.1567
 9855W        W10719  10.092  26.684   9.451 -0.1050 -0.2640 -0.0633
 9856W        W10720  17.460  13.779  24.071  0.1261  0.1665 -0.1156
 9857W        W10721  12.830  10.910  11.666 -0.0436 -0.0262  0.5916
 9858W        W10722  10.895  11.948  22.169  0.2056 -0.4067  0.1275
 9859W        W10723  13.077   2.002  18.550 -0.2594 -0.2049 -0.3519
 9860W        W10724  14.538  28.433   0.961  0.1574 -0.3028 -0.1827
 9861W        W10725   7.203   6.619  11.967 -0.0233  0.1194  0.1466
 9862W        W10726   8.504   6.900  13.446  0.0834 -0.2163  0.4762
 9863W        W10727  13.308   2.884  11.665 -0.2134  0.1045 -0.0365
 9864W        W10728  24.518   6.017  11.610  0.0414  0.3539 -0.1519
 9865W        W10729  16.613  26.233  12.930  0.2553 -0.2038 -0.0359
 9866W        W10730  22.136  24.582   9.261 -0.1026 -0.1011 -0.1690
 9867W        W10731  22.800  15.528  26.717  0.0053  0.0749 -0.3212
 9868W        W10732  20.854  13.259   5.958 -0.1259  0.0381 -0.1801
 9869W        W10733   8.873  10.432  16.437  0.0563  0.2553  0.0009
 9870W        W10734  24.808   6.612  22.829  0.1078 -0.3182 -0.1166
 9871W        W10735  14.603  27.437  22.079 -0.1663  0.2501  0.0522
 9872W        W10736  18.048   9.535  15.988  0.0745 -0.0040 -0.2485
 9873W        W10737   6.173  12.608   2.999  0.0021  0.0329  0.0967
 9874W        W10738   6.355  16.435  13.177 -0.0240  0.1615  0.0888
 9875W        W10739  25.281  19.807   0.920 -0.0172 -0.0715 -0.0714
 9876W        W10740  17.194   2.359   2.707 -0.2704  0.1685 -0.1473
 9877W        W10741  18.919  25.208  18.878  0.0794 -0.1732  0.1481
 9878W        W10742  19.970  28.582  12.604  0.0973  0.4507  0.0471
 9879W        W10743  20.016  14.636  10.051  0.0393  0.0974 -0.3162
 9880W        W10744  25.646  18.478   1.796  0.0129  0.0326  0.1020
 9881W        W10745   7.511  22.696   8.828  0.0726 -0.0611 -0.2236
 9882W        W10746  23.341  13.346  20.554  0.2079 -0.1798 -0.3450
 9883W        W10747  23.011  11.038  25.915 -0.0703  0.5630  0.2186
 9884W        W10748  17.581   7.639  25.740 -0.1695 -0.0559  0.0220
 9885W        W10749  20.651   1.130  12.187 -0.0407  0.1792 -0.0378
 9886W        W10750  21.282  12.596  18.070  0.0800  0.0686 -0.1855
 9887W        W10751   2.709   8.450   7.381 -0.1320 -0.2722 -0.3242
 9888W        W10752  24.197  24.549  27.378 -0.0521 -0.0252 -0.1890
 9889W        W10753   9.125   1.332   6.021  0.1086 -0.0472  0.2193
 9890W        W10754   2.222  26.105  14.524 -0.1673  0.1686  0.0046
 9891W        W10755  13.552  26.433   1.159 -0.0861  0.0464  0.0313
 9892W        W10756   5.907  12.875   5.047  0.2358  0.1801  0.1578
 9893W        W10757  12.815   1.502  25.372  0.1606  0.5166 -0.1219
 9894W        W10758   8.200  22.136  10.842 -0.2295  0.1082 -0.3245
 9895W        W10759  12.139   4.063   9.605  0.1254 -0.0435 -0.0470
 9896W        W10760   9.772  27.634  16.408 -0.1969  0.0545 -0.1074
 9897W        W10761  24.725  10.253  19.772  0.1169 -0.3461  0.0940
 9898W        W10762  19.661  25.493  15.458  0.0024 -0.1155  0.1042
 9899W        W10763  28.695  25.925  13.159 -0.1869  0.1362  0.0209
 9900W        W10764   2.803   2.508   9.898  0.0489 -0.1282  0.2037
 9901W        W10765  15.014  19.366  10.224  0.0793 -0.0205  0.1113
 9902W        W10766  15.834  10.721   1.023 -0.0784  0.0572 -0.0724
 9903W        W10767  20.128  20.066  14.517 -0.3059  0.0901 -0.1394
 9904W        W10768  24.964   7.541   7.200 -0.2106 -0.1535 -0.0026
 9905W        W10769  18.930  25.018  24.330 -0.2039 -0.1916  0.3769
 9906W        W10770  15.646  24.004   6.978 -0.0566  0.0895  0.2313
 9907W        W10771   9.878  20.071   2.912  0.3473  0.0881  0.1266
 9908W        W10772   5.996  12.705  26.376  0.0836 -0.0285 -0.1638
 9909W        W10773   1.112  19.770  15.766 -0.1108  0.0241 -0.0285
 9910W        W10774  24.803   9.515  26.393 -0.0174  0.0934 -0.0933
 9911W        W10775  21.053  10.136   9.305  0.0223  0.0464  0.0849
 9912W        W10776  28.819  12.538   7.162  0.1224  0.3911 -0.2795
 9913W        W10777  23.750   8.765  10.914 -0.0150 -0.2928 -0.0180
 9914W        W10778  15.719  12.431  28.140 -0.0396 -0.1659  0.2639
 9915W        W10779  19.492  24.969  13.239  0.1487 -0.0493 -0.2605
 9916W        W10780  16.861  26.597  23.780 -0.2270 -0.0017  0.1700
 9917W        W10781   6.918   2.281  12.280 -0.0404  0.2164 -0.2223
 9918W        W10782  21.263  11.335  26.801 -0.1620 -0.1658  0.1885
 9919W        W10783  21.802  23.902   4.041 -0.1028 -0.2957  0.1375
 9920W        W10784  15.938  24.789  13.958 -0.2168  0.1885 -0.1472
 9921W        W10785  24.121   2.812  19.561  0.0762  0.0309 -0.3402
 9922W        W10786  14.326   9.796  11.037  0.2817 -0.3042 -0.0946
 9923W        W10787  11.454  15.162  15.339 -0.0515  0.0716 -0.0265
 9924W        W10788  23.119   7.552  10.025  0.0510  0.1427 -0.0074
 9925W        W10789   5.410   9.120   9.666  0.0635  0.2575  0.0359
 9926W        W10790  11.887  25.657   5.049  0.3347  0.1467 -0.0629
 9927W        W10791   2.021   5.755  13.012 -0.2058 -0.0947 -0.1586
 9928W        W10792  27.305  28.131   1.012  0.0816  0.3080  0.0042
 9929W        W10793  10.379  13.240  21.147  0.0892 -0.0650  0.2632
 9930W        W10794  13.742   7.385  27.244  0.3130  0.1824  0.0484
 9931W        W10795   5.673  23.113   1.780  0.3437 -0.0772  0.1167
 9932W        W10796  24.408   5.283   7.069 -0.0280 -0.1222 -0.1313
 9933W        W10797  19.734   3.806  18.513 -0.0645  0.2070  0.1292
 9934W        W10798  18.710  14.406  13.492  0.1205 -0.0993  0.0043
 9935W        W10799  11.006  14.334   7.636  0.3822  0.1066  0.4880
 9936W        W10800  19.974   6.218   4.203  0.0535  0.2156  0.1559
 9937W        W10801  16.837  11.583  25.584  0.2074  0.1496  0.1198
 9938W        W10802   2.690  17.104   4.228 -0.1248 -0.0429  0.0740
 9939W        W10803  12.546  12.519  20.361 -0.1184 -0.3287 -0.0376
 9940W        W10804   4.739  10.566  15.871  0.0581 -0.2161 -0.1882
 9941W        W10805  18.356  22.557  25.310 -0.0096  0.2034  0.0047
 9942W        W10806  25.973  12.335   5.724 -0.1425  0.0175 -0.0792
 9943W        W10807  18.839   3.468   3.095 -0.0297 -0.1082 -0.0094
 9944W        W10808  11.372  23.702  19.735 -0.0799 -0.0746  0.1144
 9945W        W10809  17.378   8.266  10.080  0.0987 -0.0823 -0.0803
 9946W        W10810   5.224  26.560   3.181 -0.1162  0.3191 -0.1550
 9947W        W10811  14.037  19.362  16.371 -0.0144 -0.2240  0.1712
 9948W        W10812  14.304   2.173  16.618 -0.1870  0.1988  0.0059
 9949W        W10813   2.565   7.305   5.817 -0.0675  0.1055 -0.2096
 9950W        W10814  18.089   3.713   3.338  0.1871  0.1219 -0.0902
 9951W        W10815   2.329  23.000  13.566  0.1219  0.0904  0.3412
 9952W        W10816   1.605  26.219   6.378 -0.1487  0.1015 -0.1428
 9953W        W10817  18.836   1.186   7.194 -0.2927  0.0602 -0.3134
 9954W        W10818  12.779   8.036   5.828  0.1297 -0.0217 -0.1123
 9955W        W10819  18.637   3.840   8.662 -0.1291 -0.2849  0.1191
 9956W        W10820  18.355   5.377  20.803  0.0038 -0.1601 -0.0481
 9957W        W10821  26.704  15.682  11.292  0.0056  0.0048 -0.0056
 9958W        W10822  27.245   9.543  25.890 -0.2923 -0.3773  0.0842
 9959W        W10823  16.469  12.211   8.407  0.0760  0.2291  0.0326
 9960W        W10824   6.571  15.203  15.492  0.3554  0.2654  0.3091
 9961W        W10825   0.979  21.230   9.439 -0.1519  0.2626  0.4329
 9962W        W10826  19.590  24.558   7.963 -0.1418  0.2368 -0.0280
 9963W        W10827  24.204   3.443   8.290  0.1239  0.0320  0.1505
 9964W        W10828  13.752  20.946   9.048 -0.0224  0.3633 -0.2740
 9965W        W10829   5.656   3.403   6.925 -0.0716 -0.1038 -0.0151
 9966W        W10830  16.332   6.100   0.340  0.0431 -0.2505 -0.2166
 9967W        W10831  17.856   5.371  25.419  0.3047  0.0019  0.0207
 9968W        W10832  22.433  27.339  27.112  0.2229 -0.0209 -0.2448
 9969W        W10833  10.594  13.820  18.455 -0.3954 -0.1245  0.1167
 9970W        W10834   3.568  22.487   7.060  0.1344 -0.0277 -0.2611
 9971W        W10835  13.055   5.735  16.574  0.1557 -0.1440 -0.0470
 9972W        W10836  22.376  11.464  10.478  0.1877 -0.2275 -0.0108
 9973W        W10837  18.501  21.592  22.799 -0.2866  0.3197 -0.1466
 9974W        W10838  27.091  13.282   2.362  0.1783  0.1795  0.3144
 9975W        W10839  25.968   5.049  20.830  0.0711  0.1058  0.1507
 9976W        W10840  19.446  26.085   5.594 -0.2354  0.1150  0.2245
 9977W        W10841  17.086   8.743  26.464 -0.1222  0.2689 -0.1868
 9978W        W10842  17.349  12.451  10.263  0.3299  0.1907  0.1186
 9979W        W10843  15.966  15.260  11.448 -0.3639 -0.0182 -0.0513
 9980W        W10844  17.611  22.624  15.009  0.1194 -0.1025 -0.1381
 9981W        W10845   3.739  23.809  13.646 -0.2052  0.0618 -0.0855
 9982W        W10846  18.622  28.181   3.837  0.4480 -0.3624 -0.3805
 9983W        W10847   2.267   6.900  16.559  0.2966  0.0322  0.1309
 9984W        W10848   9.211  23.570  19.481 -0.0264 -0.0773  0.0369
 9985W        W10849  18.656   8.770   5.592 -0.3135 -0.1512  0.1836
 9986W        W10850  21.079   9.707  26.087  0.0974  0.1333  0.0086
 9987W        W10851  18.993  15.719  21.986  0.0068  0.0924  0.0801
 9988W        W10852   8.273   7.995  10.097  0.0442  0.1075  0.0797
 9989W        W10853  14.058  23.250  19.650  0.1824  0.1925 -0.0672
 9990W        W10854  22.933  17.645  15.372  0.0061 -0.1377 -0.0067
 9991W        W10855  24.169  10.170   2.486 -0.4398  0.2058 -0.3141
 9992W        W10856   4.638  13.265  23.485  0.2235  0.2382 -0.0140
 9993W        W10857  15.025   7.604  11.935 -0.1854 -0.0433  0.2873
 9994W        W10858   8.349  10.461   3.930 -0.1681  0.0722 -0.0784
 9995W        W10859  10.644  14.149  24.333 -0.0095  0.0355  0.1012
 9996W        W10860   7.887  12.747  25.215 -0.0555 -0.2838 -0.3097
 9997W        W10861   8.698   8.704   8.598  0.0299 -0.2063 -0.0564
 9998W        W10862  11.384  16.191  16.893  0.1474  0.1205 -0.0329
 9999W        W10863  16.160  28.334  12.109 -0.1255  0.0978 -0.2281
10000W        W10864  20.869  11.969  22.566 -0.2206 -0.1947 -0.2753
10001W        W10865  20.491   7.512  13.006  0.1587 -0.1777 -0.0968
10002W        W10866  23.826  22.573  13.851  0.2089  0.0682 -0.1077
10003W        W10867  16.241   7.385  10.313 -0.0853 -0.0923  0.0084
10004W        W10868   0.720  28.140  17.900  0.1861 -0.0265 -0.1388
10005W        W10869   1.425  20.126   5.407 -0.2016 -0.1759  0.0966
10006W        W10870  12.463   9.822  23.040 -0.0245 -0.2551  0.0715
10007W        W10871  13.478  18.190  26.847  0.0207  0.0107  0.1210
10008W        W10872  13.611  22.601   1.620  0.0072  0.0534  0.1534
10009W        W10873  24.917   4.831   7.306  0.2087 -0.0763 -0.0893
10010W        W10874   5.008   2.845  19.770 -0.0286  0.0546  0.0742
10011W        W10875  20.701  16.452  15.511 -0.0532 -0.1837  0.0338
10012W        W10876   8.652  13.095   7.575 -0.0631 -0.0477 -0.0203
10013W        W10877  27.180   0.072   2.927 -0.0142  0.2471 -0.2257
10014W        W10878  15.306  27.042  25.812  0.1615  0.2218  0.2037
10015W        W10879  14.523   7.432  13.356  0.2715  0.1512  0.3298
10016W        W10880  14.725  23.130  15.334 -0.0079 -0.0736  0.0453
10017W        W10881   2.244   6.502  14.421 -0.0349  0.3980  0.4340
10018W        W10882  10.287  18.015  11.751 -0.1706 -0.0501  0.0842
10019W        W10883  14.687  27.051   1.157 -0.2000 -0.1204 -0.1735
10020W        W10884  27.042   5.564  13.851 -0.2296 -0.2156  0.1520
10021W        W10885  11.716   6.071  29.016 -0.1921 -0.0124 -0.0112
10022W        W10886  23.535  10.086  14.139 -0.1023  0.1219 -0.0091
10023W        W10887  15.483   7.213   7.224 -0.0700  0.1389  0.3437
10024W        W10888  15.911  16.665  22.422 -0.1705  0.1443 -0.2155
10025W        W10889   7.061  16.338   6.503  0.1087  0.0453 -0.0164
10026W        W10890   5.594   7.481  21.736  0.1600 -0.0275 -0.1194
10027W        W10891  22.962   4.771  28.918 -0.1656  0.0459  0.0735
10028W        W10892  17.621  21.912  12.311 -0.0666 -0.0263 -0.1775
10029W        W10893   6.669  28.360   3.528 -0.1170 -0.1547  0.0259
10030W        W10894  10.127  28.969  16.120  0.0446  0.1943 -0.2694
10031W        W10895  23.929  23.204   2.828 -0.0726  0.1454 -0.0458
10032W        W10896   5.515  13.580   2.394  0.2846 -0.3473 -0.2388
10033W        W10897  29.138  17.835  27.304  0.1912  0.2497  0.1362
10034W        W10898   4.557  19.716   8.648 -0.0913 -0.2364 -0.2754
10035W        W10899  25.453  24.382  26.000  0.1404  0.2675  0.1446
10036W        W10900  27.372   8.392  27.801  0.0222  0.0373  0.1081
10037W        W10901  24.201  24.182  22.214 -0.0760 -0.2728  0.1761
10038W        W10902   1.373   3.769   0.855  0.0865  0.1246  0.0243
10039W        W10903   9.332   7.837   6.676 -0.2647 -0.1623 -0.2176
10040W        W10904  28.149   8.829   4.977 -0.3421  0.0301 -0.0918
10041W        W10905  21.264  26.949  17.247 -0.1394 -0.3148  0.3633
10042W        W10906   1.784   7.642   8.940 -0.0830 -0.0127 -0.1145
10043W        W10907  13.942  12.865  17.427  0.1488  0.3064  0.1886
10044W        W10908  14.454   2.805   6.000  0.2305 -0.0681  0.0119
10045W        W10909  13.914  22.372  15.458 -0.2149  0.1964 -0.0863
10046W        W10910  26.899   1.266   1.469  0.0183  0.1921 -0.2151
10047W        W10911  10.433  16.888  15.655  0.0037  0.1027  0.0958
10048W        W10912   3.273   9.676  25.645  0.0736 -0.1483 -0.0684
10049W        W10913   4.828  12.225  19.388  0.3592  0.0573  0.1299
10050W        W10914  15.461  11.843  25.984  0.0598 -0.2195 -0.2230
10051W        W10915  10.549   1.882   0.150 -0.0984 -0.1637 -0.0066
10052W        W10916  20.386  28.620  18.708 -0.1112 -0.0853  0.1398
10053W        W10917  17.306  24.077  26.058 -0.1376  0.0844  0.3015
10054W        W10918  11.914  15.699  11.661 -0.0486  0.0440  0.1251
10055W        W10919  10.095  16.219   1.867  0.1584  0.0279 -0.0459
10056W        W10920  24.176  19.422  27.985  0.2002  0.2638 -0.2454
10057W        W10921  10.788  26.837   4.752  0.0267  0.0585  0.0379
10058W        W10922   8.007   0.698  27.973 -0.4894 -0.0070 -0.1856
10059W        W10923  11.183  16.944  20.777  0.0026 -0.0512  0.1840
10060W        W10924  20.742   4.100   3.821 -0.5824 -0.0459  0.1044
10061W        W10925  13.491   7.444  12.069  0.1506 -0.2114 -0.1261
10062W        W10926  19.642  10.109  13.536 -0.0004 -0.0456  0.0429
10063W        W10927  14.784  26.187   2.661 -0.4184 -0.0172  0.3007
10064W        W10928   4.847  10.570   1.817  0.0841  0.0974  0.0399
10065W        W10929  22.010   8.932   8.811 -0.2672 -0.1197 -0.0204
10066W        W10930   9.427  11.407   1.737  0.0860 -0.2128  0.1884
10067W        W10931  12.810   1.512   1.435 -0.0503 -0.2053  0.1651
10068W        W10932  14.411  21.022  18.549 -0.2377 -0.1915  0.0773
10069W        W10933  15.075   8.004  16.013  0.2017  0.0581  0.1200
10070W        W10934  16.950  13.338  11.889 -0.3592  0.1597 -0.1109
10071W        W10935   2.142   1.327  11.219  0.2828  0.0914 -0.0775
10072W        W10936  10.437  10.978  15.828  0.0446  0.2112 -0.0125
10073W        W10937  22.922  12.924  15.398  0.0011 -0.2405 -0.0229
10074W        W10938  19.928   2.631  21.921 -0.1091 -0.1624  0.1155
10075W        W10939  14.414  23.340   6.418 -0.1126  0.1074  0.1338
10076W        W10940  14.455   7.525  18.895 -0.1076 -0.2366  0.0221
10077W        W10941  23.375  25.804  11.361 -0.0846 -0.3387  0.1347
10078W        W10942  28.094   6.034  23.920  0.0830 -0.0361 -0.1001
10079W        W10943  22.641  12.517  25.911  0.3087  0.1390 -0.2351
10080W        W10944   1.044   3.529  10.761 -0.3100  0.0932 -0.1914
10081W        W10945  25.800   8.779   3.458 -0.0164  0.1677  0.1557
10082W        W10946   9.697  12.470  10.589 -0.0359  0.1402  0.2877
10083W        W10947  16.447   4.023   3.950  0.2451  0.1371  0.3519
10084W        W10948  13.546   5.367   4.964  0.1159 -0.0495 -0.0432
10085W        W10949  19.622   8.193   5.676  0.0820 -0.0786  0.0945
10086W        W10950  20.392  24.057   1.527  0.1213 -0.0919  0.2725
10087W        W10951  28.499  19.109  10.465 -0.0093 -0.1150  0.1507
10088W        W10952  24.160  13.475  22.200  0.3675  0.3588 -0.0776
10089W        W10953  16.753   3.950   9.378  0.0592  0.0881  0.2249
10090W        W10954  20.569  23.974  16.689 -0.0193  0.0846  0.2186
10091W        W10955  12.921  11.986   8.438 -0.1663  0.0900 -0.0493
10092W        W10956  23.985   9.615  15.941  0.1183  0.0073 -0.1492
10093W        W10957  19.977  25.945  14.172 -0.4273  0.3977  0.1427
10094W        W10958  14.971  13.033   8.927  0.0337 -0.0871  0.0307
10095W        W10959  12.294  27.370  21.095  0.2442 -0.3763  0.1874
10096W        W10960  13.127  16.326   9.810 -0.1043 -0.0145  0.1555
10097W        W10961   1.727   1.840  14.137 -0.2117  0.1472  0.1719
10098W        W10962  15.348  15.594  22.426  0.0719  0.2311 -0.1420
10099W        W10963  13.226   0.784  14.834 -0.0577  0.1833  0.1493
10100W        W10964  15.096   4.238   3.419  0.1413 -0.5004 -0.0287
10101W        W10965  24.724  24.046   2.417  0.2649 -0.0356  0.1942
10102W        W10966  26.017   1.577   9.379 -0.1047  0.1252  0.0065
10103W        W10967   9.661   6.774  20.603 -0.0950  0.2120  0.0618
10104W        W10968  15.252  22.628  10.922  0.0083  0.1393 -0.1088
10105W        W10969  17.401  21.866  15.924 -0.2201 -0.1790  0.0253
10106W        W10970  18.204   8.840  10.999  0.1805 -0.2980  0.1996
10107W        W10971  26.400   6.880  18.196  0.1672  0.2392  0.0043
10108W        W10972   8.075  21.909   5.499  0.0440 -0.0351 -0.0888
10109W        W10973   0.327   2.646  14.833  0.0210  0.0296 -0.0893
10110W        W10974   7.135  15.066  25.599 -0.2067  0.0872  0.2777
10111W        W10975  15.851  27.636  21.626 -0.1336 -0.2960 -0.0951
10112W        W10976  18.718  25.968  14.533  0.1319 -0.1801  0.0641
10113W        W10977  11.006  23.726   9.817 -0.1650 -0.0767 -0.0829
10114W        W10978  26.817  21.214  14.608 -0.2519  0.1028  0.1745
10115W        W10979  15.422  23.965   8.819 -0.0254  0.1470  0.2085
10116W        W10980   5.562  22.724  12.026  0.0199  0.1072 -0.0490
10117W        W10981  17.020  27.565  27.904 -0.4227  0.0749  0.0018
10118W        W10982  15.089  12.970  12.502 -0.2572  0.0883  0.1844
10119W        W10983  21.529  13.279  20.215  0.1818 -0.2552 -0.3060
10120W        W10984   4.377   8.014   8.115 -0.2879  0.0631 -0.2336
10121W        W10985   7.901  18.166  17.961  0.0759 -0.1973 -0.0134
10122W        W10986  17.382   3.405  15.609 -0.2508  0.0837  0.0823
10123W        W10987   7.078   4.347  12.207  0.0143  0.0692  0.0228
10124W        W10988   4.575  25.016  21.600 -0.1114 -0.4075 -0.1754
10125W        W10989  14.126  17.643   1.734 -0.1368 -0.1549  0.2822
10126W        W10990  16.553   7.512  14.323  0.0531  0.0273  0.0555
10127W        W10991  22.813   0.037  20.306 -0.0402  0.2946  0.1291
10128W        W10992  24.658  28.111  21.582 -0.4371  0.1481  0.0349
10129W        W10993  21.635  25.060  21.468 -0.2262 -0.0649  0.1283
10130W        W10994  12.894  13.421  11.624  0.1796  0.1623  0.1813
10131W        W10995   1.996  11.091   2.822 -0.5367  0.3831  0.1077
10132W        W10996  15.155   6.317   3.226 -0.0552 -0.1792 -0.0803
10133W        W10997  17.536  23.084  16.422 -0.1364  0.0174 -0.1147
10134W        W10998  23.390   0.967  15.342 -0.0240  0.0317 -0.1810
10135W        W10999  23.360   6.130  11.309  0.0623 -0.3628 -0.0298
10136W        W11000  13.241  10.218   4.303 -0.2368  0.0946 -0.2614
10137W        W11001  25.484   4.603   7.138  0.3090 -0.1460  0.1746
10138W        W11002  12.878   7.532   6.005 -0.0320 -0.0472 -0.2232
10139W        W11003   6.238  21.990  13.885  0.1169 -0.3132  0.3370
10140W        W11004   8.257   6.946  19.715 -0.1124 -0.0279 -0.1926
10141W        W11005  25.988   2.902  17.777 -0.2156  0.1157 -0.3098
10142W        W11006   0.291  24.923  22.099 -0.1951  0.5621 -0.2231
10143W        W11007  28.851   8.092  20.530 -0.0860  0.2718  0.2235
10144W        W11008  25.263   1.686  15.433 -0.0237  0.0767  0.1387
10145W        W11009   2.423  28.545  15.302 -0.2263  0.0018  0.3017
10146W        W11010  24.223  10.266  20.689  0.0755  0.3065  0.0394
10147W        W11011  12.543  24.884  24.387  0.0138 -0.3699 -0.3930
10148W        W11012  24.694  28.159   9.357  0.2002 -0.1627  0.0323
10149W        W11013  15.735  11.148  22.031 -0.1690 -0.0212  0.0191
10150W        W11014  19.713  24.575  28.436  0.4923 -0.1555  0.1736
10151W        W11015   4.859   4.641  25.068 -0.2924  0.0482 -0.3644
10152W        W11016   1.590  23.352   8.186  0.1291 -0.1286 -0.2390
10153W        W11017  18.434   8.978   4.041  0.2623 -0.0365  0.0357
10154W        W11018   1.600   1.577  20.092  0.0259  0.0787  0.0434
10155W        W11019   6.123  20.079   9.538 -0.0180 -0.2669 -0.0573
10156W        W11020   7.270   4.351  24.099  0.3418  0.0433 -0.2743
10157W        W11021  21.621  26.009  21.247 -0.0307  0.0546 -0.2192
10158W        W11022   9.374  14.957  22.417 -0.0018  0.3836 -0.0727
10159W        W11023   9.161   3.735  10.163 -0.4111  0.0989 -0.3102
10160W        W11024  22.849   1.280  15.403  0.1859  0.1563  0.0186
10161W        W11025  21.297  28.199  14.694 -0.3005  0.0405 -0.0605
10162W        W11026  13.090  22.923  18.489 -0.0411  0.2581  0.2730
10163W        W11027   4.344  17.532   5.305  0.0938 -0.1055  0.1469
10164W        W11028  15.738  14.581  12.680 -0.0286  0.0121  0.0012
10165W        W11029  25.907  20.188   7.334  0.0100 -0.1578 -0.2804
10166W        W11030  19.278   5.623   8.734 -0.0288 -0.1143  0.2346
10167W        W11031  19.825   5.114  11.493  0.0409  0.0369  0.0371
10168W        W11032  14.133  11.009   4.071  0.2051  0.2785 -0.0943
10169W        W11033  17.203  12.701   9.326  0.0797 -0.0374  0.0504
10170W        W11034  21.752   4.454  14.134  0.0944 -0.0141 -0.0222
10171W        W11035   5.125   9.331  16.443  0.0110  0.5069  0.1554
10172W        W11036   2.969  19.821   4.805 -0.5356  0.0802 -0.0015
10173W        W11037  15.216  27.045   6.057  0.0343  0.1141  0.0243
10174W        W11038   8.969  18.072  18.147  0.2439  0.1520  0.0213
10175W        W11039  17.089  28.127  27.745  0.2512  0.1654  0.1290
10176W        W11040  24.588  13.186  15.094 -0.0831 -0.0682  0.1756
10177W        W11041  16.616  15.609  28.863 -0.1576 -0.0116 -0.0298
10178W        W11042   6.677  13.010  13.366  0.0563 -0.2084 -0.0289
10179W        W11043  23.342   9.596  20.199  0.3158 -0.0334  0.3767
10180W        W11044   7.426   0.840  22.763  0.1759  0.5228 -0.1328
10181W        W11045  23.193  16.568   0.332 -0.0409 -0.0030 -0.0783
10182W        W11046   4.100  21.325   4.010  0.1487 -0.0416  0.0700
10183W        W11047  22.725   1.120   1.845 -0.1433 -0.1078  0.1660
10184W        W11048   9.224  24.731   0.914  0.0416 -0.0374  0.2040
10185W        W11049  11.338  19.043  18.246 -0.0064 -0.2684  0.2924
10186W        W11050  12.516  16.208  14.518  0.1146 -0.1241  0.0620
10187W        W11051  28.959   5.513   3.534 -0.2657  0.0534  0.0027
10188W        W11052  12.832   8.791   1.227  0.3405 -0.0115  0.1393
10189W        W11053   6.347   4.091   5.982 -0.2090 -0.0800 -0.2760
10190W        W11054  17.228   0.709  10.701  0.0181  0.0670 -0.0466
10191W        W11055  19.173   2.175  11.810  0.4249  0.1823  0.1580
10192W        W11056  10.283  20.663  19.513 -0.0692  0.1072  0.0273
10193W        W11057  26.979  20.348   0.758  0.0955 -0.0976  0.1798
10194W        W11058  21.352  14.199  21.462 -0.0658 -0.0977  0.4378
10195W        W11059  13.041  11.795  20.139  0.1443  0.3170 -0.1292
10196W        W11060   5.501   4.512  11.744 -0.3594  0.0059  0.1978
10197W        W11061  19.123   1.800  22.183 -0.2992 -0.2522  0.0477
10198W        W11062   9.383  27.793  23.637 -0.3097  0.1284 -0.0197
10199W        W11063  16.492   7.319   4.704  0.0611  0.0863 -0.3172
10200W        W11064   3.830   6.476  16.313 -0.3664  0.0494 -0.0369
10201W        W11065  23.314   8.676   9.141  0.1567  0.1378  0.0015
10202W        W11066  21.758  14.577  20.520  0.0553 -0.0011 -0.1312
10203W        W11067  18.209  14.518  27.630  0.0169  0.0378  0.0539
10204W        W11068  13.062  12.203   7.755  0.4118  0.0716 -0.0478
10205W        W11069  10.391  25.892  16.872  0.2510  0.0039  0.0104
10206W        W11070  14.044   7.163  13.413  0.2054 -0.1608 -0.0693
10207W        W11071   6.652   1.937  15.721 -0.0357 -0.5375 -0.1204
10208W        W11072   6.026  14.932   7.556 -0.1024  0.1685  0.0036
10209W        W11073  27.587  19.625  29.071  0.0781  0.1665  0.0864
10210W        W11074  24.401   9.372  13.625  0.2360  0.0732  0.1586
10211W        W11075   1.943  15.669  13.228 -0.1346 -0.1014 -0.0366
10212W        W11076  16.137   0.055  24.898 -0.2064  0.1129  0.2122
10213W        W11077   8.123  10.953  19.994  0.1165  0.1412 -0.0304
10214W        W11078  23.077  17.803  27.547 -0.2969 -0.2329  0.1220
10215W        W11079   5.401  22.712   4.804  0.1533 -0.0925  0.0562
10216W        W11080  22.227  27.237  22.793  0.0922  0.0206 -0.0220
10217W        W11081  18.407   9.838   5.218  0.0568  0.1203 -0.0412
10218W        W11082  21.691   9.983  17.907  0.0139 -0.0794  0.0092
10219W        W11083  17.608  21.735  21.505 -0.0583 -0.1986 -0.3299
10220W        W11084  12.754  13.394  16.119  0.1281  0.0066 -0.0684
10221W        W11085  17.079   8.520   1.118  0.0028  0.0405  0.1053
10222W        W11086   7.983  11.118   6.287 -0.4230  0.3523 -0.0078
10223W        W11087  14.582  10.390  23.385  0.1807 -0.1944  0.1823
10224W        W11088   7.644  18.922  18.564  0.0766  0.0989  0.1188
10225W        W11089  20.026   4.348  10.324 -0.2668 -0.2451  0.1650
10226W        W11090  26.139  21.337   2.763 -0.0083  0.2988 -0.1962
10227W        W11091  22.039   6.376  27.081 -0.1816 -0.1466  0.1157
10228W        W11092  13.124   0.707   6.761  0.0071  0.0371 -0.0004
10229W        W11093  22.178  23.471  23.796  0.0575  0.3539 -0.1975
10230W        W11094  24.552  19.148  13.858  0.1367 -0.0879 -0.2123
10231W        W11095   8.979  17.182   6.819  0.1216  0.3083  0.2164
10232W        W11096  20.347  22.159   6.657 -0.2307  0.3330  0.1019
10233W        W11097  19.015  16.457  12.418  0.2793  0.2163 -0.2462
10234W        W11098   6.333   6.674  15.676  0.0794 -0.0379 -0.2744
10235W        W11099  12.409  16.467  19.275 -0.0257  0.0479 -0.1652
10236W        W11100  26.410  12.403   4.949  0.0533 -0.3702  0.1023
10237W        W11101   3.837  10.469  17.207 -0.2276  0.0540 -0.1378
10238W        W11102   0.782   6.495  13.574 -0.3750 -0.1772 -0.1437
10239W        W11103  23.928  12.778  23.306  0.0487 -0.1739 -0.1820
10240W        W11104  28.342  19.654  11.613 -0.0400 -0.2118 -0.3090
10241W        W11105   5.458  11.435  13.339 -0.1265 -0.0046  0.0500
10242W        W11106  26.364  27.868  13.303  0.1020  0.5108  0.2818
10243W        W11107  14.227  19.615  26.556  0.0236 -0.0823  0.3846
10244W        W11108   5.289   4.383   5.986  0.1115 -0.3411 -0.1159
10245W        W11109  17.379  28.253   5.940  0.2005  0.0550 -0.0552
10246W        W11110  22.805  25.720  14.537 -0.0195  0.2741  0.1104
10247W        W11111  19.925  13.380  19.202 -0.0868  0.0132 -0.0267
10248W        W11112  22.219   6.052  25.931 -0.2240  0.0870  0.0600
10249W        W11113  11.045   4.488  13.024  0.2524 -0.1065  0.1199
10250W        W11114  12.425  13.426   2.758  0.0162 -0.0129 -0.1310
10251W        W11115  17.733  21.560  12.678 -0.1451  0.1048  0.0760
10252W        W11116  22.415   8.579  19.471  0.1777  0.0346  0.2152
10253W        W11117  24.315  21.994  19.224 -0.0728  0.0600 -0.0583
10254W        W11118  27.996  13.507   9.507 -0.0544 -0.1385 -0.1534
10255W        W11119  22.479  16.302  11.139 -0.0958  0.1947  0.2036
10256W        W11120  10.653  14.236   8.961 -0.0883 -0.1037  0.0077
10257W        W11121  17.888  17.308  23.417 -0.0774 -0.2757 -0.1273
10258W        W11122  13.642   5.962  15.449 -0.1750 -0.0187  0.0224
10259W        W11123   8.019  24.794  16.600  0.3486  0.2441 -0.2988
10260W        W11124  14.797   8.551   7.884  0.0293  0.2129  0.1539
10261W        W11125  11.017  16.805  18.983 -0.0287  0.2073 -0.0841
10262W        W11126  19.055  14.615  28.116  0.0157  0.1201 -0.1403
10263W        W11127  12.172   4.616  19.921  0.3046 -0.0921  0.0398
10264W        W11128   7.806   4.484   8.825  0.0981 -0.0192 -0.1286
10265W        W11129  15.650  18.026  16.620 -0.1490 -0.2011 -0.1574
10266W        W11130   3.310   6.817  13.956 -0.0462  0.1422  0.0229
10267W        W11131  20.537  25.646  15.462 -0.0405 -0.0671 -0.1560
10268W        W11132   9.292  21.693  28.941  0.1732  0.1022  0.0913
10269W        W11133   0.947   6.752  21.344  0.2436  0.1289 -0.0813
10270W        W11134   0.205  11.054   8.237 -0.1636  0.1607  0.0843
10271W        W11135  17.601  22.562  25.327 -0.1843  0.0940  0.1807
10272W        W11136   6.860   1.398   0.634  0.0641 -0.0732  0.1400
10273W        W11137   4.168   9.373   9.047 -0.1596  0.1880  0.2053
10274W        W11138  15.916   8.736  23.906 -0.3384  0.3960  0.0769
10275W        W11139  22.035  10.734  25.884  0.0324  0.3613  0.1700
10276W        W11140  20.549  15.107   7.356 -0.0471  0.0277  0.0731
10277W        W11141   2.987   8.032   2.856 -0.2735  0.2719  0.4204
10278W        W11142  23.502  27.305  13.342 -0.1011  0.1345 -0.0426
10279W        W11143  21.015   6.532  16.230  0.0104 -0.3921 -0.0364
10280W        W11144  17.739  14.491   9.724  0.1610 -0.3567 -0.0889
10281W        W11145   3.049  13.278  10.551  0.3302 -0.0069 -0.1131
10282W        W11146  24.145  25.691  24.785  0.2757 -0.1142 -0.1199
10283W        W11147  18.731  27.402   8.506 -0.2522  0.3394  0.2861
10284W        W11148   3.895  17.859   8.644  0.0478  0.1609 -0.2222
10285W        W11149  11.316   4.061  16.897  0.1122  0.2602  0.2614
10286W        W11150  14.763  10.536  17.719  0.0378  0.0406 -0.3160
10287W        W11151  26.471   8.299   6.988  0.0400  0.0467 -0.1597
10288W        W11152   0.809  10.652  28.013 -0.0721 -0.3013  0.0432
10289W        W11153  23.781  15.421  13.167  0.1843  0.2417 -0.1071
10290W        W11154  10.962  25.610  12.241  0.0770  0.1970 -0.2616
10291W        W11155  16.426  16.023   4.930 -0.0249 -0.0233  0.1710
10292W        W11156  19.383  26.317  13.468 -0.0062 -0.0545 -0.1316
10293W        W11157  14.637  12.800   8.569 -0.1556  0.0903  0.1207
10294W        W11158   3.032   8.491   2.246  0.1952  0.0316 -0.1618
10295W        W11159  21.506   9.124  10.376  0.2454  0.0651  0.0541
10296W        W11160  25.459  23.711  27.124  0.1460  0.0431  0.0344
10297W        W11161  26.935  14.084   6.180 -0.2802 -0.2105 -0.0128
10298W        W11162   7.468   2.454  24.915 -0.2388 -0.1050  0.1078
10299W        W11163  20.910  21.783  16.270 -0.3520  0.0162  0.0188
10300W        W11164  14.776  10.361   5.830 -0.0051 -0.2675  0.0448
10301W        W11165  19.795  19.682  13.787 -0.0592  0.1084 -0.0478
10302W        W11166   6.414  21.372  13.078  0.0633 -0.0105 -0.0502
10303W        W11167   6.618  12.998  15.279  0.1129 -0.1870 -0.1234
10304W        W11168  18.205  15.009   0.903  0.0335  0.2787 -0.0019
10305W        W11169  19.838   6.931  15.970 -0.0895  0.2763 -0.0485
10306W        W11170  17.989   6.395  15.329  0.0921 -0.2234  0.1173
10307W        W11171   5.207  18.373  27.155  0.3751  0.4141 -0.1672
10308W        W11172  13.578  23.705  25.281 -0.3593  0.1093 -0.4026
10309W        W11173  12.617  11.772  15.098  0.0545 -0.0418 -0.0421
10310W        W11174  18.368   8.018  23.876 -0.0845 -0.0975 -0.1644
10311W        W11175  14.997  16.004   9.674  0.3309 -0.0188 -0.1096
10312W        W11176  23.713  14.214  23.254  0.0068  0.1793  0.0146
10313W        W11177  16.998  18.607   7.352 -0.1364  0.1748 -0.0803
10314W        W11178   4.475   7.068  19.485 -0.2137 -0.1193 -0.0468
10315W        W11179  16.231  20.361   1.599 -0.1167 -0.0665 -0.2378
10316W        W11180  28.652  14.080  16.285 -0.2530  0.1357 -0.0270
10317W        W11181   9.788  13.767  11.140 -0.2539 -0.0349  0.3155
10318W        W11182  28.053  20.585  14.615 -0.3866 -0.0536  0.0894
10319W        W11183  11.099  10.380  19.179  0.3505 -0.1942  0.3271
10320W        W11184   8.335  12.687   2.791  0.1838 -0.0116  0.4143
10321W        W11185   9.196  16.729   6.500 -0.0279 -0.0159  0.0921
10322W        W11186   6.946  13.159  19.106 -0.1056 -0.0805  0.1809
10323W        W11187  14.839  11.132   9.781 -0.2313  0.2925  0.1795
10324W        W11188  12.907  12.086  24.780 -0.1682 -0.1447  0.0597
10325W        W11189  10.732  10.031  18.609  0.0495 -0.0868  0.1414
10326W        W11190  12.870  21.086   3.659  0.0512  0.2764 -0.3607
10327W        W11191   1.507   9.351  12.279  0.3893 -0.1387  0.2277
10328W        W11192  17.699   5.659  18.982 -0.1261  0.1683 -0.3150
10329W        W11193  22.189   3.276  20.822 -0.3452 -0.1322  0.0021
10330W        W11194   1.889  16.993   8.396 -0.2718  0.1518  0.1831
10331W        W11195  12.649  21.410  27.072  0.1987  0.0727 -0.2748
10332W        W11196   5.501  12.139  14.948  0.0795  0.5391 -0.3047
10333W        W11197  23.744   4.254  24.840 -0.0841  0.0084  0.2628
10334W        W11198   4.755  21.419  27.324 -0.1361 -0.1660 -0.2552
10335W        W11199  26.266   9.405   9.318  0.1652 -0.1261  0.0562
10336W        W11200  21.558   6.497  13.171 -0.2507 -0.1830  0.0063
10337W        W11201   5.045  17.932  23.355  0.2504 -0.1979 -0.2267
10338W        W11202  21.468  22.587   7.288  0.0693 -0.0095  0.2973
10339W        W11203  11.885  20.588  28.740  0.5171 -0.1341 -0.2151
10340W        W11204  16.833  13.288   2.314 -0.2965 -0.0640 -0.2655
10341W        W11205   5.376  28.076   8.817 -0.0679 -0.4046 -0.1201
10342W        W11206  16.808   3.086  28.157 -0.0534 -0.0518  0.1650
10343W        W11207  19.034  12.142  13.268  0.0107 -0.5372 -0.0483
10344W        W11208  24.453  16.349  12.742  0.1697  0.2065  0.1564
10345W        W11209  14.453  10.486   5.431 -0.2518 -0.1886 -0.0214
10346W        W11210   1.728  23.861   0.550  0.1732 -0.1032 -0.1852
10347W        W11211  20.392  15.348  11.038 -0.0101  0.2306 -0.0507
10348W        W11212   5.700   6.401  16.393 -0.3242  0.0589 -0.0766
10349W        W11213  28.960   5.838  27.938 -0.2766 -0.0028  0.0366
10350W        W11214   5.439  13.812   6.570  0.1652 -0.0100  0.3124
10351W        W11215  17.302  22.344  11.470 -0.1830 -0.3454 -0.3101
10352W        W11216   5.001  18.424  18.706 -0.0536  0.0833  0.0361
10353W        W11217   9.402   8.864  19.658  0.2228  0.2401 -0.2848
10354W        W11218  28.271  18.588  14.155 -0.4270 -0.1800 -0.0954
10355W        W11219   7.360  11.960  13.580 -0.1241 -0.1946  0.0730
10356W        W11220  12.914   8.381   6.171  0.1263  0.1783  0.0855
10357W        W11221  22.045   3.052  14.356  0.0056 -0.0838 -0.0281
10358W        W11222   9.210   0.700   6.577  0.1375  0.1850  0.2894
10359W        W11223  15.866   3.080  18.916 -0.0725  0.1719 -0.0761
10360W        W11224  15.937  10.544  10.780  0.0961 -0.0070  0.1176
10361W        W11225   4.747  13.940   9.823  0.1711  0.0851  0.0234
10362W        W11226  15.740  20.190   2.896  0.1367  0.3583 -0.0803
10363W        W11227   5.125  27.329  19.045 -0.2791 -0.0993 -0.2118
10364W        W11228   7.043   0.201   0.514  0.1303 -0.1179  0.1309
10365W        W11229   0.782  10.355   4.994 -0.1867 -0.1050  0.0541
10366W        W11230  17.981  15.477  26.193 -0.0226  0.1589  0.2244
10367W        W11231  13.104  13.758  21.540 -0.0136  0.0846  0.0757
10368W        W11232   3.048  15.665  17.827 -0.0466  0.0751  0.1105
10369W        W11233  27.533  11.407   5.269  0.2755 -0.1112  0.0007
10370W        W11234  16.187  10.801  26.455 -0.5170  0.0998 -0.0353
10371W        W11235  21.777   0.714   7.241 -0.1131  0.0118 -0.3166
10372W        W11236  11.337   7.956   3.301  0.0490  0.1090  0.1172
10373W        W11237  20.142  27.723  17.651 -0.1009 -0.2771  0.1412
10374W        W11238  10.081   9.648  19.724 -0.3547  0.4131  0.2132
10375W        W11239   6.189   4.597  10.976 -0.0548  0.0044 -0.0865
10376W        W11240  21.035   7.972   6.517  0.3320 -0.0307 -0.0494
10377W        W11241  20.019  16.511   8.849 -0.0021  0.2265 -0.1532
10378W        W11242   6.633   6.208  14.029 -0.1089 -0.3113  0.2233
10379W        W11243  20.082   1.644  14.426 -0.3141  0.0699  0.1482
10380W        W11244  14.464  15.126  19.125 -0.1410  0.1781  0.0210
10381W        W11245  12.211   9.209  25.267  0.0816 -0.2452 -0.1469
10382W        W11246  12.524  15.261  19.460 -0.0624  0.1482  0.2382
10383W        W11247   8.856  22.191   6.352  0.0964 -0.3215  0.0653
10384W        W11248  16.043   9.494   0.636 -0.3619 -0.1199 -0.0643
10385W        W11249  12.375  17.084  16.702  0.2940 -0.0774  0.2390
10386W        W11250  20.220   6.470  12.212 -0.0965  0.0071  0.0249
10387W        W11251   3.521  27.886  10.729 -0.0219 -0.1014 -0.3300
10388W        W11252  21.118  13.655  16.540  0.0082  0.1342 -0.1008
10389W        W11253   8.002  19.563  19.889  0.0835 -0.1282  0.1224
10390W        W11254   8.810   8.865  11.165 -0.0511 -0.3496  0.2725
10391W        W11255  12.513   4.654   7.928  0.1003  0.1718  0.3326
10392W        W11256  16.543  25.789   7.156 -0.0789 -0.4392  0.1405
10393W        W11257   0.782   5.206   0.651 -0.0731  0.1561  0.0708
10394W        W11258  13.148   8.515   7.424  0.1116 -0.0873  0.0496
10395W        W11259  19.447  19.239  10.637  0.0634 -0.1471 -0.1148
10396W        W11260  19.556  13.616   2.719 -0.0806 -0.1739 -0.0007
10397W        W11261   7.150   5.617  23.747  0.0454  0.1345 -0.4341
10398W        W11262  13.688   9.181  19.877  0.1034 -0.0472 -0.1350
10399W        W11263   4.276  26.964   6.942 -0.2137 -0.0923 -0.0041
10400W        W11264  14.608   9.284  11.515  0.2473  0.2486  0.0786
10401W        W11265  18.369  27.879  25.871  0.4258  0.1205  0.1301
10402W        W11266   6.437  23.732  22.794  0.0384  0.0167  0.2369
10403W        W11267  23.491   7.231  19.946 -0.0493  0.1576  0.1133
10404W        W11268  14.149  12.534  28.694 -0.4644 -0.1507  0.2028
10405W        W11269  18.023   2.557   2.338 -0.1456 -0.0587  0.1317
10406W        W11270  19.812  18.482  22.306  0.0924  0.1270 -0.0716
10407W        W11271  17.460  20.878   7.502 -0.1001 -0.2011  0.1626
10408W        W11272   3.302   5.743  19.502 -0.0248 -0.1154 -0.1625
10409W        W11273  15.843  13.145  26.729 -0.0791 -0.2207 -0.0440
10410W        W11274  28.908  15.844   6.054  0.2044 -0.0427  0.0286
10411W        W11275  19.414  17.973  18.650 -0.0092  0.1138 -0.1070
10412W        W11276  13.662  17.313  25.329 -0.1845  0.0804 -0.0104
10413W        W11277   8.982  15.021   0.288  0.0658  0.2542  0.2502
10414W        W11278  19.752   6.634   4.375  0.4076  0.1250  0.0125
10415W        W11279  26.446   4.030  19.141 -0.1877 -0.2282 -0.3497
10416W        W11280   0.867   4.478  21.926 -0.0806  0.0814 -0.0964
10417W        W11281  20.726   9.443  16.838  0.1539 -0.0184  0.0070
10418W        W11282  17.532  10.940   4.985 -0.0086 -0.2684 -0.1367
10419W        W11283  18.517  25.008  21.428 -0.0589  0.0304  0.2140
10420W        W11284   7.316  28.104   0.029 -0.0243 -0.1974 -0.0580
10421W        W11285  16.602   7.653  10.479 -0.0197  0.0736  0.0478
10422W        W11286   3.658   8.592  23.815  0.1050 -0.1440  0.2571
10423W        W11287  23.819   7.176  16.542 -0.3936 -0.0371  0.2966
10424W        W11288  17.585  17.318  28.143  0.1788  0.3023  0.1843
10425W        W11289   0.476  28.404  16.441 -0.2846 -0.0789 -0.0091
10426W        W11290  23.202  14.640  26.688 -0.0803 -0.0559 -0.2319
10427W        W11291  28.789  23.051  22.290 -0.1876  0.3140  0.1019
10428W        W11292  15.910   3.324  18.419 -0.0792  0.2276 -0.2158
10429W        W11293  16.108   1.078  22.617 -0.0258 -0.0260  0.3295
10430W        W11294  19.731  10.272  13.026  0.2348  0.1832 -0.0458
10431W        W11295  17.911  25.268  17.227 -0.1147  0.0161 -0.1457
10432W        W11296  26.794   7.168  12.020  0.0199  0.1269  0.0338
10433W        W11297   2.834   1.145  10.362 -0.2978  0.1453 -0.3167
10434W        W11298  12.676   7.105   2.161 -0.0376 -0.0291 -0.1815
10435W        W11299   2.596   9.083  18.395  0.0099 -0.2100  0.1082
10436W        W11300  27.506   3.747   9.814  0.0312  0.0887  0.0957
10437W        W11301  16.290   5.428  22.513 -0.0269 -0.5108 -0.1194
10438W        W11302  23.587   2.312   3.153 -0.1219 -0.4114 -0.2859
10439W        W11303   3.892   7.199  23.981  0.1037  0.0324  0.0179
10440W        W11304  21.341   3.347  16.565  0.0988 -0.0662 -0.1300
10441W        W11305   9.992  28.704  12.283  0.0270  0.0160  0.2272
10442W        W11306   9.833   5.078   0.260  0.0350 -0.2123 -0.1677
10443W        W11307   1.871  11.581  22.838 -0.1348  0.0261  0.2798
10444W        W11308  17.931  25.192  20.239  0.1012  0.0873 -0.1518
10445W        W11309  22.383  17.145   0.839  0.3770  0.2149 -0.0489
10446W        W11310   4.273  22.515  15.230 -0.0744  0.2234 -0.0791
10447W        W11311   0.500   5.470   1.127  0.0710  0.1229 -0.2213
10448W        W11312   2.710  11.045  25.983 -0.0044  0.2103 -0.0240
10449W        W11313   7.765  24.026  18.709 -0.0008  0.1739  0.0532
10450W        W11314  26.568  14.418  27.242 -0.2701  0.1127  0.0330
10451W        W11315  17.708  24.831   9.036  0.1493 -0.1562  0.4461
10452W        W11316  18.579  16.088   7.931 -0.0115  0.0366  0.1310
10453W        W11317  19.703  12.188   8.607  0.2757 -0.0765 -0.0725
10454W        W11318  28.351  11.942  25.047  0.0295  0.0226 -0.2111
10455W        W11319  12.529  20.964  20.514  0.2693  0.2914  0.0768
10456W        W11320  24.875  14.410  24.204  0.1007  0.0851 -0.2164
10457W        W11321  13.768  17.434  18.454 -0.0542  0.1282  0.1341
10458W        W11322  26.607  18.389  14.189  0.1337 -0.2059 -0.0331
10459W        W11323  15.185   4.891  18.712  0.0291  0.2739 -0.1200
10460W        W11324   4.802   1.667  24.239 -0.0462 -0.1432 -0.3618
10461W        W11325   9.709   5.563  27.161 -0.0490  0.0136  0.1316
10462W        W11326  14.882  12.319   0.424  0.0511 -0.0269 -0.4611
10463W        W11327  17.375  20.117   0.178 -0.0985  0.0617  0.2450
10464W        W11328  25.548  10.902  16.976  0.0447 -0.0495 -0.3806
10465W        W11329  28.065   9.826  16.687  0.3884  0.2108 -0.4183
10466W        W11330  20.242  23.857  16.266  0.2007  0.0581 -0.0478
10467W        W11331  18.781  18.456  14.905 -0.2890 -0.2681  0.1372
10468W        W11332  18.685   8.126  11.207  0.1246 -0.0415 -0.1060
10469W        W11333   4.579  11.108  13.472 -0.0170 -0.1192 -0.0393
10470W        W11334   6.369   7.263  17.745  0.1978  0.0626  0.3563
10471W        W11335   7.819  22.047  23.919  0.1639  0.0521 -0.0286
10472W        W11336  23.729  11.587  26.209 -0.0115  0.2297  0.0144
10473W        W11337  18.829  17.500   5.036 -0.3091  0.1663 -0.2406
10474W        W11338  21.804   1.142   5.591 -0.1158 -0.1421 -0.0663
10475W        W11339  19.313   1.678  15.969  0.0962 -0.0360  0.2056
10476W        W11340  15.520   7.505  21.185 -0.1586  0.0382  0.2933
10477W        W11341  27.495  13.714  19.172  0.1024  0.0143 -0.1139
10478W        W11342  15.117  19.696  11.491  0.2335 -0.2119  0.0725
10479W        W11343  16.035   4.561  25.567 -0.1437  0.0289  0.2494
10480W        W11344  21.719   1.261   3.384  0.3474  0.1614 -0.3013
10481W        W11345  10.665  11.521  28.273  0.0148 -0.3505 -0.1388
10482W        W11346  25.914  19.583  10.077  0.1663 -0.2344  0.0798
10483W        W11347  10.266  21.860  12.068  0.0704  0.3557  0.3509
10484W        W11348  21.366  20.193  18.384  0.3474 -0.0282 -0.3248
10485W        W11349  24.540   6.046   1.141 -0.0334 -0.1085  0.1291
10486W        W11350  14.006   1.273  15.180 -0.1409  0.0243 -0.2226
10487W        W11351   1.071  23.529   1.099 -0.0683 -0.1158 -0.0267
10488W        W11352  27.391  13.932  23.505 -0.0040 -0.0676  0.0130
10489W        W11353  17.350  15.294  10.156  0.0357  0.0851  0.0092
10490W        W11354   2.729  10.765   5.910  0.0786 -0.0086  0.0196
10491W        W11355  18.268   8.719   2.726 -0.2615  0.1568 -0.0594
10492W        W11356  27.361  11.083  16.202 -0.1346  0.3137  0.2103
10493W        W11357   2.252   3.424  16.511 -0.2387 -0.0436 -0.1081
10494W        W11358  20.651   8.219   9.005 -0.1002  0.1019  0.0243
10495W        W11359  18.925   8.161  17.557 -0.2381 -0.1562 -0.0717
10496W        W11360  27.096   7.430   4.945  0.0315  0.0482  0.1449
10497W        W11361  21.806   7.447  10.467  0.1024  0.1065 -0.0725
10498W        W11362  13.585   4.244  23.517 -0.1129  0.0341  0.1247
10499W        W11363  20.176  15.654  23.016 -0.2518  0.1603 -0.1841
10500W        W11364  13.127   0.301   7.055  0.3131 -0.0946 -0.2821
10501W        W11365  10.426  25.274   9.055 -0.3693 -0.1288  0.1223
10502W        W11366   0.647  21.034   7.263 -0.2344  0.4888  0.1016
10503W        W11367   1.807  12.058  22.721 -0.3887 -0.0716 -0.1716
10504W        W11368  16.745  14.386  21.272  0.1979 -0.1643 -0.2402
10505W        W11369   8.161   2.278   8.713  0.1068 -0.3356 -0.1206
10506W        W11370  12.429  24.086  18.326  0.1283  0.1421  0.1576
10507W        W11371  10.500   1.418  17.318 -0.2159  0.2904 -0.1769
10508W        W11372  24.234  27.461  12.436 -0.0617  0.2905 -0.1454
10509W        W11373  25.975  11.393  19.813 -0.1126 -0.0321 -0.0181
10510W        W11374  20.342  12.494  24.959 -0.0883  0.1343  0.1763
10511W        W11375  18.780  10.061  11.563 -0.0347 -0.1226  0.0305
10512W        W11376   1.752   9.959  20.920 -0.3498 -0.0980 -0.1857
10513W        W11377  12.729   1.992  13.362  0.0646 -0.0205  0.0176
10514W        W11378  20.622   3.663  19.825  0.0505  0.0794 -0.0866
10515W        W11379  11.511  18.853  16.045 -0.5127 -0.0951 -0.0221
10516W        W11380  27.306   1.356  13.574  0.0689 -0.3211 -0.0355
10517W        W11381  24.074  16.659  22.695 -0.0442  0.2648  0.0138
10518W        W11382  26.115  19.578  18.461  0.0247  0.0221  0.5471
10519W        W11383  15.323   9.221  20.619 -0.0291  0.0506 -0.0306
10520W        W11384   1.885  26.880  28.878  0.0073  0.1753 -0.0760
10521W        W11385  16.429  17.204   5.756 -0.1699 -0.1678  0.0296
10522W        W11386  16.752  13.203  14.081 -0.2210 -0.0857  0.0674
10523W        W11387  16.520  15.920  27.195  0.0898  0.3994 -0.2236
10524W        W11388  12.916  14.365   5.578  0.4143 -0.0528  0.0789
10525W        W11389  11.769  15.046   1.579  0.0675  0.1709  0.2704
10526W        W11390  13.978   3.728  14.621 -0.1814  0.0613 -0.0548
10527W        W11391  22.521  26.276   9.425  0.0699 -0.3751  0.1139
10528W        W11392  13.186  10.145  12.130 -0.0459  0.2793 -0.0268
10529W        W11393  13.359  14.927  16.217  0.2349  0.2670  0.1362
10530W        W11394   4.744  23.364   9.076  0.2953 -0.2455 -0.2386
10531W        W11395   8.457  23.874  25.555  0.2125 -0.0692  0.1787
10532W        W11396  25.396  14.579   7.616  0.1168 -0.3193  0.2258
10533W        W11397  27.868  26.255   9.802  0.2249  0.0588 -0.1127
10534W        W11398  27.092  16.508  15.118  0.1550  0.0735  0.0662
10535W        W11399  20.835   9.002   6.334  0.0489 -0.0653  0.1400
10536W        W11400   1.224   5.957  25.349 -0.0455  0.2149  0.3015
10537W        W11401  12.038  24.501   9.236  0.0841 -0.1966 -0.1147
10538W        W11402  26.180  11.339   7.388 -0.3149  0.1155  0.1307
10539W        W11403   7.099  26.928  10.963  0.1054 -0.0828  0.0758
10540W        W11404  24.784  25.825  14.130  0.0225 -0.1253  0.0634
10541W        W11405  22.982  28.237  18.073  0.0815 -0.1656 -0.0696
10542W        W11406   0.999  23.285   6.534  0.0010  0.1427 -0.0165
10543W        W11407  17.732  10.056   5.109 -0.3331  0.0639 -0.3276
10544W        W11408   5.406   8.829   9.094 -0.2210 -0.2220 -0.0820
10545W        W11409  14.247  10.597  12.910  0.0993  0.0313 -0.0623
10546W        W11410   7.878   2.748  27.674 -0.0979 -0.0380 -0.2321
10547W        W11411  20.185   8.656  12.861 -0.0563 -0.5066  0.1153
10548W        W11412  18.910   5.578  26.525 -0.0231 -0.2627 -0.1147
10549W        W11413  16.602  11.162  11.583 -0.0084  0.0656 -0.2592
10550W        W11414  17.799   3.189  13.412 -0.0194  0.1863 -0.1339
10551W        W11415  28.373   2.474  17.107  0.0020  0.0002  0.0065
10552W        W11416  22.528  11.259   6.015 -0.0995  0.0323 -0.0315
10553W        W11417  11.374   6.864  22.067  0.2603 -0.1606 -0.0490
10554W        W11418  23.198  18.286  25.194 -0.1377  0.3156 -0.0188
10555W        W11419  26.447   5.821   9.428  0.1727 -0.0210  0.3450
10556W        W11420  11.946  11.309  21.069  0.2448 -0.0358 -0.2682
10557W        W11421  26.086  15.130  21.601  0.0271 -0.2166  0.0075
10558W        W11422  13.059   2.930   7.856 -0.1713  0.0704  0.0454
10559W        W11423   0.567  28.663  26.473  0.1696 -0.0957  0.0249
10560W        W11424  14.119   9.753  22.355  0.3629  0.0206  0.1626
10561W        W11425  17.124   6.045  24.277 -0.0895  0.1393 -0.1251
10562W        W11426  20.342   6.674  11.458 -0.2208 -0.1579 -0.0068
10563W        W11427  17.294  26.559   5.064 -0.2351 -0.3413 -0.2385
10564W        W11428  12.393  16.304  17.103  0.1123 -0.2309  0.0301
10565W        W11429  24.877  21.562   5.718 -0.1074 -0.0145  0.0615
10566W        W11430  11.926   7.780  20.701  0.0309 -0.1648 -0.0834
10567W        W11431  22.654  19.344  15.133  0.0882  0.2040  0.1261
10568W        W11432   8.056  20.868  18.875 -0.1784  0.1349  0.2688
10569W        W11433  16.548   6.728  16.822  0.1013 -0.0097  0.2824
10570W        W11434   9.909  11.985  20.535 -0.0016  0.1618 -0.2434
10571W        W11435   9.948  16.400   5.922  0.0041 -0.2552  0.1812
10572W        W11436  11.146  11.496  12.311  0.1884 -0.1647 -0.2239
10573W        W11437  14.410   2.968   0.891 -0.3136 -0.0710 -0.0471
10574W        W11438  18.320  12.242  24.606 -0.0214 -0.1563 -0.1075
10575W        W11439  10.097  14.242  11.515  0.0253 -0.0403  0.1817
10576W        W11440  28.380   1.814  19.620 -0.2467 -0.3567  0.2135
10577W        W11441   0.581  13.545   5.132 -0.0220  0.1044  0.2314
10578W        W11442  25.186   1.739   3.721 -0.0793 -0.0158  0.1184
10579W        W11443  16.984  28.839  27.431 -0.2710  0.1131  0.0172
10580W        W11444   2.860  13.250  15.385 -0.1260  0.0059 -0.0243
10581W        W11445   3.113   9.963  18.504  0.1147 -0.1096 -0.0245
10582W        W11446  26.365  26.348  11.469 -0.0662 -0.0501 -0.2500
10583W        W11447  17.722   6.023  16.698  0.1383  0.1093  0.1876
10584W        W11448   2.705  21.392   5.108  0.0091 -0.1950 -0.1213
10585W        W11449  25.411  27.829  24.238 -0.0259 -0.0105 -0.0876
10586W        W11450  18.295  14.144   8.572  0.1718 -0.1793 -0.0900
10587W        W11451   1.829   4.813   7.782 -0.2439 -0.3280  0.2066
10588W        W11452  10.461   6.078   8.925 -0.0585 -0.0149  0.0546
10589W        W11453  22.678   7.448   2.950 -0.0705  0.0291 -0.1430
10590W        W11454   7.425  12.525  26.052 -0.0966  0.5176  0.1461
10591W        W11455  22.148   7.595  21.220  0.3108  0.0200  0.0138
10592W        W11456  17.525   1.306  18.794 -0.1728 -0.2687 -0.3648
10593W        W11457  11.468  13.070  14.538  0.3213 -0.1291  0.0353
10594W        W11458  17.780  12.979  20.734  0.3886  0.2324  0.1259
10595W        W11459  18.458   7.498  14.324 -0.2404  0.0472 -0.1655
10596W        W11460   3.050   1.365  25.710 -0.0678  0.2113 -0.1807
10597W        W11461  11.310  15.778  21.508 -0.1351 -0.1010 -0.1956
10598W        W11462  24.278  22.311  11.107  0.1057 -0.0949  0.0359
10599W        W11463   5.296  20.111  27.073 -0.0992  0.3072 -0.3750
10600W        W11464  10.439   3.787  26.907 -0.0431 -0.2865 -0.0122
10601W        W11465  25.763  16.528   8.977  0.0773 -0.0984  0.1137
10602W        W11466  26.892  16.932  17.753 -0.0892 -0.0863  0.0099
10603W        W11467  11.455  12.029  11.486 -0.1515  0.0316 -0.3668
10604W        W11468  25.859  26.860  18.012 -0.0179 -0.1507 -0.0292
10605W        W11469  28.389  20.503  18.371  0.2976 -0.1040 -0.4345
10606W        W11470  26.376   3.981   6.650  0.0743 -0.0705  0.1925
10607W        W11471  23.121   1.689  12.008  0.1367  0.0763 -0.2218
10608W        W11472  16.889  10.073  21.002 -0.0067 -0.1226 -0.1528
10609W        W11473  17.518  15.122   6.917 -0.0420  0.1532 -0.1574
10610W        W11474  25.718  22.288   8.794  0.0121 -0.0066  0.1053
10611W        W11475  28.436  28.412  20.790 -0.1702  0.0118 -0.4956
10612W        W11476  28.391  11.973   9.210  0.2859  0.1745 -0.1573
10613W        W11477  15.914   5.754  17.746  0.2250  0.0162 -0.1573
10614W        W11478   5.612  11.950   8.635  0.0509 -0.3039 -0.2037
10615W        W11479   9.042  19.576  22.797 -0.0136 -0.0211  0.1597
10616W        W11480  25.565   3.341  15.225 -0.1706  0.0152 -0.0929
10617W        W11481  11.319   9.060   3.633  0.0661 -0.2907 -0.0902
10618W        W11482  16.716  15.229   1.624 -0.3460 -0.0606  0.0990
10619W        W11483  20.569   9.856   6.974  0.0234 -0.0927  0.2571
10620W        W11484   9.874  21.130  10.941  0.0256  0.3169  0.4494
10621W        W11485   2.424  20.803  25.333 -0.4066  0.0115 -0.1672
10622W        W11486  10.285   9.842  11.121  0.1678 -0.2820 -0.1015
10623W        W11487  28.571   7.642  19.191 -0.2402  0.0685 -0.4309
10624W        W11488  10.314   1.268  11.911 -0.2178  0.2269  0.1513
10625W        W11489   6.712   4.944  22.064 -0.2829  0.0191  0.1040
10626W        W11490  25.134  13.726  14.381  0.4329  0.0602  0.0150
10627W        W11491  19.858  11.246  19.553  0.2958 -0.0915 -0.4291
10628W        W11492  12.495   8.686  24.393  0.0150  0.3152 -0.0764
10629W        W11493   8.572  24.952   1.431  0.0051  0.0050  0.2108
10630W        W11494   0.933   3.485  16.771 -0.0358  0.1987 -0.0512
10631W        W11495  24.158   4.820  24.310 -0.2043 -0.0427 -0.2897
10632W        W11496  21.457   4.274  27.150 -0.0447 -0.2618 -0.0258
10633W        W11497  21.336   0.947   7.002 -0.2042  0.2301 -0.0617
10634W        W11498  15.475   8.248   9.550  0.1238  0.3276 -0.0158
10635W        W11499   2.910   4.866  17.371 -0.1962  0.3876 -0.0066
10636W        W11500  22.114   0.575  26.676  0.0689 -0.0124 -0.1435
10637W        W11501  10.442  23.185   5.986  0.2190  0.0167  0.0699
10638W        W11502  19.354  25.864  19.372  0.0582  0.2096 -0.0193
10639W        W11503   9.308  20.485  12.228  0.0508  0.0855  0.4591
10640W        W11504  18.209  11.402  26.431  0.3227  0.0937  0.0171
10641W        W11505  19.418  10.712  27.807  0.1244  0.3939  0.0656
10642W        W11506  14.247  11.571  15.649 -0.1927  0.4811 -0.1101
10643W        W11507  19.578  12.514  24.676  0.1691  0.1913  0.0831
10644W        W11508  27.791   5.763  27.670  0.0538  0.2025 -0.0611
10645W        W11509  14.576   8.782  14.417  0.1184  0.2193 -0.1201
10646W        W11510   2.713  27.313  20.431  0.2483  0.1069 -0.0726
10647W        W11511  27.494  28.577  13.257 -0.0088 -0.0295  0.2780
10648W        W11512  11.454  20.454  10.129 -0.0523  0.2240  0.0057
10649W        W11513  24.219  27.502  13.305 -0.1397 -0.1013 -0.0637
10650W        W11514   5.866  13.523  11.464  0.0834 -0.2367  0.0055
10651W        W11515  16.293  22.216  29.129  0.1979 -0.1947  0.1810
10652W        W11516  23.016   2.079  18.434 -0.0936  0.0252 -0.0561
10653W        W11517  26.351  28.287  15.440  0.0534 -0.0219  0.0630
10654W        W11518  22.755  26.947  21.970  0.1308 -0.0537 -0.0390
10655W        W11519  23.093  10.530  15.444 -0.0628 -0.1289 -0.2049
10656W        W11520  17.144  24.620  11.332 -0.1604 -0.2137  0.3621
10657W        W11521  18.050   4.170  16.466 -0.1648 -0.2150  0.1080
10658W        W11522   2.497  12.228  11.715 -0.0704  0.1200  0.1176
10659W        W11523  10.760   0.903   0.701  0.0417 -0.1289  0.0410
10660W        W11524  19.776   7.181   0.325 -0.1298 -0.0677  0.0694
10661W        W11525  23.246  24.818  26.706 -0.0212  0.1656  0.0682
10662W        W11526   0.849  14.118  25.011  0.0397 -0.0380 -0.1706
10663W        W11527  15.931   8.547  20.137  0.0243  0.3157 -0.1063
10664W        W11528  28.291  17.862  10.548 -0.1440  0.0954 -0.1489
10665W        W11529  18.207  14.180  26.654  0.1793 -0.2561  0.1668
10666W        W11530  16.151  10.324  27.377 -0.0890 -0.2065  0.0172
10667W        W11531  13.479  26.405   0.378  0.0954  0.0791 -0.2542
10668W        W11532  21.843   6.567  12.633 -0.2615 -0.0915 -0.2752
10669W        W11533   4.220   8.538  24.632  0.1973  0.0666  0.2272
10670W        W11534  19.037  13.709   3.638 -0.0250 -0.1001  0.2575
10671W        W11535  21.380  24.094  18.972 -0.4784  0.1836 -0.1449
10672W        W11536  17.142   5.254   9.847  0.1338 -0.1427  0.0827
10673W        W11537  21.677  28.543  15.673 -0.1334 -0.3772  0.1227
10674W        W11538   4.984  17.251  16.700 -0.0898 -0.0764 -0.1650
10675W        W11539  21.119   9.821   7.757 -0.0087 -0.0151 -0.0987
10676W        W11540  28.261  14.394  27.550  0.1775  0.1058  0.0274
10677W        W11541  10.358   6.402  27.666  0.1114 -0.0111 -0.1289
10678W        W11542  10.488   4.036  28.345  0.0338  0.1228 -0.1440
10679W        W11543  11.966  24.778   0.182 -0.1539  0.1956 -0.1600
10680W        W11544   3.908   5.974  15.859 -0.0416  0.0847 -0.1033
10681W        W11545  20.861  15.342  16.358 -0.1132 -0.1063 -0.2103
10682W        W11546   7.469   5.833   6.232  0.2591  0.1871  0.1150
10683W        W11547  18.042   8.630  10.547 -0.0343  0.4320  0.1267
10684W        W11548  13.521  14.800  19.503  0.1854  0.1803  0.1240
10685W        W11549  11.301   9.317  13.597  0.3143  0.0648  0.0384
10686W        W11550  25.298  21.411   9.165  0.0852 -0.2924  0.1086
10687W        W11551  12.822  17.906   7.423 -0.0365  0.0001 -0.0245
10688W        W11552  19.990   0.981  11.670  0.1987  0.0545 -0.3071
10689W        W11553  26.791  17.605   2.393 -0.6993 -0.1029  0.0066
10690W        W11554  27.777  18.865   4.044  0.0654  0.1398 -0.1563
10691W        W11555  16.754   4.583  20.942 -0.1698  0.0723  0.0379
10692W        W11556   8.320   5.516  13.512  0.0986  0.1720  0.2492
10693W        W11557  23.090  13.786   4.862  0.1549 -0.0869 -0.2518
10694W        W11558   0.397   6.810  17.928  0.0188  0.0033 -0.0408
10695W        W11559   3.798   2.610  11.249  0.1011  0.3965 -0.1301
10696W        W11560  16.846   2.584   3.906  0.1093 -0.0126  0.0945
10697W        W11561  25.529   8.404  14.529 -0.1289 -0.1677  0.1327
10698W        W11562  24.900  14.367  19.667 -0.3250  0.1723 -0.0071
10699W        W11563  28.753   4.190  16.195  0.1654  0.0191  0.4008
10700W        W11564  19.017  10.176  15.321  0.3432  0.0397  0.0269
10701W        W11565   8.746  20.820  10.919 -0.1965  0.0371  0.1884
10702W        W11566  15.352  13.441  16.411 -0.2479  0.0501 -0.1901
10703W        W11567   0.870  21.741  17.174 -0.1223 -0.0229  0.0571
10704W        W11568  22.876  10.532  24.215  0.2820  0.3335 -0.0523
10705W        W11569  17.907   1.611   9.910 -0.1575  0.1574  0.0942
10706W        W11570  14.375  18.581  12.589  0.1207  0.0160  0.1280
10707W        W11571  19.103   3.183  26.970 -0.1790  0.1423 -0.1233
10708W        W11572  20.076   3.605   5.884 -0.0632 -0.0205 -0.0773
10709W        W11573  19.029  24.215  23.951  0.1226  0.1247  0.1326
10710W        W11574   9.630  24.283   9.007 -0.0581  0.1557 -0.1070
10711W        W11575  26.513   5.124  16.944 -0.0277 -0.0549  0.1389
10712W        W11576  18.718   3.146  15.238 -0.2821  0.1294 -0.1913
10713W        W11577   2.514   1.260  28.817 -0.0022 -0.1693  0.2520
10714W        W11578  10.723  14.869  19.358  0.0215 -0.2175  0.1968
10715W        W11579  11.145   8.759  12.967 -0.2341  0.1709 -0.1196
10716W        W11580  21.875  27.879   5.667  0.2987  0.1548 -0.0338
10717W        W11581   4.447  18.329   0.062 -0.4445 -0.0681  0.0492
10718W        W11582  11.145  10.228  17.422 -0.0537 -0.1225  0.3989
10719W        W11583  27.903  21.274   0.431 -0.0764  0.2743  0.1508
10720W        W11584   8.743  24.331  10.023  0.2788 -0.0001 -0.2450
10721W        W11585   7.663  11.802  21.379  0.1286 -0.0628 -0.0768
10722W        W11586  17.043   1.128  19.154 -0.0140 -0.0207  0.2716
10723W        W11587   5.809  19.100  15.997  0.0219 -0.0650  0.2733
10724W        W11588  12.639  14.301  25.076 -0.1021 -0.0790  0.0881
10725W        W11589  11.995   7.910  13.165  0.0643 -0.1370 -0.0697
10726W        W11590  18.436   6.966   5.894  0.0263  0.4028  0.0020
10727W        W11591   3.254  28.469  25.118 -0.1324 -0.3277  0.0151
10728W        W11592  26.781  24.816  19.291 -0.3152 -0.0345  0.1194
10729W        W11593   2.747  15.613  19.067  0.2204 -0.0447  0.0742
10730W        W11594  22.457  22.868  28.692 -0.0308 -0.0791  0.2368
10731W        W11595   4.561  18.899  25.046  0.0788  0.0386 -0.0732
10732W        W11596   8.854  15.636  17.357 -0.0970 -0.0597 -0.1700
10733W        W11597  11.416  28.113   2.711 -0.1574  0.1824  0.1760
10734W        W11598  22.391  19.360  27.630 -0.0892  0.1167 -0.0538
10735W        W11599  15.402  10.074  22.446 -0.0902 -0.1036  0.1227
10736W        W11600  23.561  12.176  25.073 -0.2303 -0.1638  0.0113
10737W        W11601  15.310  15.321  26.612 -0.0118 -0.0896 -0.3068
10738W        W11602  14.956   5.587  27.322  0.0081  0.0508 -0.0683
10739W        W11603  19.687  22.789   6.730 -0.0822  0.4171  0.0610
10740W        W11604   8.268   3.145  13.457  0.0311 -0.0510 -0.3438
10741W        W11605   7.371   6.172  22.422  0.2261 -0.1574  0.0624
10742W        W11606   3.839   2.604   7.000  0.0667 -0.3344 -0.2140
10743W        W11607   6.499   3.894   7.902  0.1425 -0.0347  0.2416
10744W        W11608  16.228   7.221   7.376 -0.3325 -0.3912  0.1385
10745W        W11609   2.874  12.588  21.467 -0.2391  0.0832 -0.1138
10746W        W11610  27.549  10.319   4.786  0.0426  0.3972  0.0154
10747W        W11611  11.495   0.778   8.786  0.1586 -0.3462 -0.0089
10748W        W11612  10.899  25.023  14.241  0.0833 -0.0794 -0.2309
10749W        W11613   9.436   6.624   0.183 -0.1686  0.3399 -0.0677
10750W        W11614  26.504  24.517  12.959  0.2980  0.0901 -0.1674
10751W        W11615   6.139  11.582  14.395  0.0794  0.0629  0.0256
10752W        W11616   0.144  21.502  13.389  0.0746 -0.1279  0.0408
10753W        W11617  29.124  15.386   0.910 -0.2643  0.1141  0.2539
10754W        W11618   1.802  15.624   8.634  0.0884  0.1709  0.1517
10755W        W11619  12.710   6.262   2.843 -0.1460  0.2350 -0.0371
10756W        W11620   7.218  20.769  24.447 -0.0397  0.2897  0.0274
10757W        W11621  20.204  25.233   7.556 -0.0890 -0.0666 -0.1729
10758W        W11622   9.597   2.135   3.511  0.0401  0.0901 -0.0144
10759W        W11623  24.151  19.820   5.461 -0.3543 -0.0518 -0.1057
10760W        W11624  11.658  10.436  17.596 -0.2060 -0.1215 -0.1254
10761W        W11625  26.132  10.147  15.036  0.1308  0.0108 -0.0715
10762W        W11626   4.596  20.818  25.158 -0.1051 -0.0609 -0.0759
10763W        W11627  21.586  15.258  17.666  0.3583  0.0934 -0.2336
10764W        W11628  18.926  11.447  19.409 -0.0429  0.1124  0.3513
10765W        W11629   4.391   5.401  21.101  0.0601 -0.0612 -0.1330
10766W        W11630   7.443  26.497  13.543  0.0461  0.1778 -0.0746
10767W        W11631   3.775  14.846   8.638  0.0365 -0.0633  0.1134
10768W        W11632  17.276  27.883  16.871 -0.2197 -0.0196 -0.0054
10769W        W11633  25.052  24.584  22.196  0.0588 -0.0036  0.0594
10770W        W11634  20.607  10.825  26.143  0.2264  0.0733 -0.0981
10771W        W11635  12.988   1.053  27.277 -0.0801 -0.0530 -0.0452
10772W        W11636   3.776  12.992  16.558 -0.1131  0.0870  0.0473
10773W        W11637  26.013   7.534   5.467 -0.1921 -0.0766  0.1856
10774W        W11638   3.415  26.193   8.941 -0.3151  0.0928  0.1639
10775W        W11639   4.029  25.487  13.896  0.1829  0.2967  0.3249
10776W        W11640  26.878   8.564   4.297  0.2940 -0.1015  0.2783
10777W        W11641  16.047   3.086  26.943  0.0039 -0.0944  0.1221
10778W        W11642  10.920   9.301  23.033 -0.0350  0.1340 -0.2190
10779W        W11643  28.343  11.573  21.141  0.3008  0.2982  0.0328
10780W        W11644  24.548  28.036   0.762  0.1555  0.0786  0.2043
10781W        W11645  11.914  18.030   7.779 -0.0694 -0.4755  0.4819
10782W        W11646  18.080   2.549   7.379 -0.0607  0.2332  0.0211
10783W        W11647  25.062   6.083  11.833 -0.0779 -0.0616 -0.0962
10784W        W11648  28.071   6.603  10.693  0.0048 -0.0416 -0.0099
10785W        W11649  20.106  13.737  24.779  0.0642 -0.2222  0.1666
10786W        W11650   8.576  26.837   0.823  0.0952 -0.0076  0.0827
10787W        W11651  12.167   3.564  14.034 -0.1671 -0.1046  0.2248
10788W        W11652   9.211   9.498   3.831  0.1423 -0.1519 -0.0573
10789W        W11653  16.022   3.809  26.202  0.0739 -0.0473 -0.0531
10790W        W11654  28.877   3.595  15.598 -0.2782 -0.3450  0.0936
10791W        W11655  15.679  20.646  24.023 -0.2290  0.1600  0.0527
10792W        W11656  14.135  18.706   5.434  0.0154  0.0363 -0.0565
10793W        W11657  22.287  18.133  18.192 -0.0855 -0.1424  0.0372
10794W        W11658   6.080   9.553  10.260  0.0548 -0.1088 -0.0949
10795W        W11659  17.174   8.627  20.905  0.0185 -0.1643  0.2106
10796W        W11660  17.445   9.187  19.648  0.0065 -0.0361 -0.0203
10797W        W11661   9.408   2.942  19.336 -0.1352 -0.2989  0.0498
10798W        W11662   9.761  16.048  26.751  0.1350 -0.2236  0.1163
10799W        W11663   8.879  18.781  12.774 -0.0297  0.0347 -0.0694
10800W        W11664  16.431  21.856  14.870 -0.1231  0.2879  0.1629
10801W        W11665  13.744  24.037  12.353 -0.0898 -0.2880  0.2655
10802W        W11666  20.686   4.414   9.127  0.1223 -0.1136 -0.1387
10803W        W11667  25.766  19.243  15.777 -0.2884 -0.2869  0.0813
10804W        W11668  13.269  16.734   2.805  0.1002 -0.2121  0.2931
10805W        W11669  27.973  27.348  14.552 -0.0274 -0.0150  0.0482
10806W        W11670   8.968   2.713  28.976 -0.1372 -0.2488  0.0141
10807W        W11671   8.551  11.026  11.484  0.1079  0.1377  0.1655
10808W        W11672  22.477  11.355   3.061  0.1294  0.6253 -0.0158
10809W        W11673   6.902  25.946  14.927  0.2672 -0.3222 -0.1187
10810W        W11674  21.804  12.817   3.260 -0.1337 -0.0255  0.2416
10811W        W11675   3.550   4.110  15.193 -0.0976 -0.1491  0.1467
10812W        W11676  15.013  24.861   2.383  0.1708 -0.0325 -0.1508
10813W        W11677   3.153   3.294   1.512 -0.2154 -0.1518 -0.0041
10814W        W11678  10.293  25.801   5.225 -0.3098 -0.2505  0.0572
10815W        W11679   2.389  21.021  23.555  0.2678 -0.0721  0.3602
10816W        W11680   6.678  28.843  16.294 -0.0290 -0.3402  0.2170
10817W        W11681  13.317  10.215  21.040 -0.0440  0.0520 -0.0492
10818W        W11682  24.577  26.274  21.567 -0.1593 -0.0581  0.2818
10819W        W11683   9.435  23.150  20.365  0.0777 -0.2130  0.2645
10820W        W11684  23.931  27.349  21.034  0.0632 -0.1488  0.3101
10821W        W11685   8.652  28.014  15.594  0.3678 -0.4949  0.0334
10822W        W11686  21.384  24.129  10.260 -0.0926 -0.3618 -0.2051
10823W        W11687  23.344  27.744  16.361  0.0635  0.2815 -0.4856
10824W        W11688  27.362  27.133  23.820  0.1404 -0.2514 -0.1788
10825W        W11689  11.225  12.681   9.001 -0.2780 -0.0239 -0.4399
10826W        W11690  10.060   5.289  13.201  0.3891  0.2081 -0.0640
10827W        W11691  28.068  10.555   6.868  0.0360 -0.0177 -0.1631
10828W        W11692  23.267   3.052  26.288 -0.0284  0.2551 -0.0809
10829W        W11693  17.091  28.986  24.573  0.3142 -0.0829 -0.2279
10830W        W11694   1.618  25.873  19.417  0.0784  0.0876 -0.0796
10831W        W11695  10.547   6.079   5.804 -0.2669 -0.1475 -0.4282
10832W        W11696  27.324   0.433  15.320 -0.1806 -0.2579 -0.0610
10833W        W11697  17.845   8.211  18.186  0.0400  0.0902  0.4129
10834W        W11698   9.185  10.814   1.546 -0.0146  0.0239  0.0212
10835W        W11699  15.938   2.491  21.900 -0.0254  0.4460 -0.1400
10836W        W11700   6.444  17.656   4.614 -0.1103  0.0315 -0.3322
10837W        W11701  11.599  28.660  15.702 -0.0464  0.0423  0.1989
10838W        W11702  18.684  10.841  22.638 -0.1519 -0.1582  0.0524
10839W        W11703  26.863   9.388   4.319 -0.3077  0.1809 -0.2146
10840W        W11704  18.022  14.906   1.520 -0.1294 -0.2525 -0.1708
10841W        W11705  15.092   1.952  25.721  0.0668  0.3700 -0.0603
10842W        W11706  20.645  15.110  23.766 -0.0326  0.0321  0.1650
10843W        W11707   8.545   4.096  20.867  0.2012 -0.1048  0.2209
10844W        W11708   5.892   9.168  22.863  0.0786 -0.0245 -0.2069
10845W        W11709   6.333  21.377  29.131  0.2426 -0.0656 -0.0209
10846W        W11710  29.006  10.068  15.488 -0.0906  0.1799 -0.0526
10847W        W11711  12.628  10.357   9.420  0.0048  0.0963  0.2959
10848W        W11712  19.013   1.264  28.692  0.0652  0.0612 -0.0720
10849W        W11713  11.520  22.813  22.925  0.2149 -0.0586  0.1168
10850W        W11714  27.448   2.614  15.576  0.0039 -0.2858 -0.3175
10851W        W11715  17.042   8.443  19.983 -0.2014  0.0113 -0.0096
10852W        W11716  14.787  20.907  24.208 -0.3735 -0.1175  0.1699
10853W        W11717  23.407   9.986  14.670  0.1785 -0.1759  0.5502
10854W        W11718  13.201   1.904  26.770 -0.0374 -0.1235  0.0049
10855W        W11719  27.916  27.611  12.450 -0.0788  0.3490 -0.0035
10856W        W11720  18.931  18.716   9.012 -0.2181  0.2670  0.4001
10857W        W11721  18.547  29.106   5.925  0.0908 -0.0713  0.1277
10858W        W11722  23.634  14.029   6.102 -0.2190 -0.1096 -0.1526
10859W        W11723  15.026   9.936  14.123 -0.2133 -0.2939  0.0465
10860W        W11724  12.305   6.093  11.881  0.2008 -0.0127 -0.1010
10861W        W11725  18.520   2.197   7.657  0.0430 -0.2257  0.1962
10862W        W11726   8.098  14.224  20.051 -0.2997  0.0200  0.0646
10863W        W11727   8.694  16.205   2.169  0.0811 -0.2542  0.1709
10864W        W11728  13.170   1.590  24.292  0.0660 -0.0320  0.3328
10865W        W11729  21.896   1.225   7.391  0.0080  0.3183  0.1469
10866W        W11730  23.917  23.327   8.822  0.1158 -0.0903  0.0757
10867W        W11731  14.431   2.547  17.873  0.0068 -0.3380 -0.0362
10868W        W11732   0.345  25.788  27.038  0.1015 -0.3304  0.0703
10869W        W11733  27.933  13.025  26.384  0.0124  0.0131 -0.0029
10870W        W11734  27.622  11.350  14.535  0.2360  0.1956  0.0502
10871W        W11735   1.543   3.045   5.237  0.1740  0.2355 -0.1635
10872W        W11736  24.666  28.310   4.838  0.2802  0.0815 -0.2535
10873W        W11737   4.857   7.099  10.391 -0.1870 -0.2239 -0.4217
10874W        W11738  18.703  24.353  20.555  0.2301  0.0259 -0.2687
10875W        W11739  26.004  28.859   1.380 -0.0530  0.0380 -0.1773
10876W        W11740   1.763   7.746  15.308 -0.1193 -0.2726 -0.0027
10877W        W11741  20.922  28.224  28.460 -0.1526 -0.2518  0.1312
10878W        W11742   0.372  17.541  13.900  0.0839 -0.0408 -0.0198
10879W        W11743  21.954   5.613  13.805 -0.2334  0.1938 -0.1233
10880W        W11744   1.154  25.311  17.892 -0.0709 -0.2895 -0.0491
10881W        W11745   7.224  25.705  28.374 -0.1502  0.0021  0.0413
10882W        W11746   9.743   3.583   1.822  0.0157  0.1217 -0.1325
10883W        W11747  29.030  26.965   8.551 -0.1994  0.0216 -0.0233
10884W        W11748   7.483  17.769  17.924 -0.1229  0.0956 -0.1531
10885W        W11749  14.984  27.512  17.978  0.3047 -0.2338  0.1069
10886W        W11750  24.043  27.075  20.038 -0.0162  0.1136 -0.1851
10887W        W11751   9.843   5.995  26.863  0.0876  0.1280  0.2322
10888W        W11752  18.073   7.781  22.895  0.0104  0.0258 -0.1935
10889W        W11753  12.009   6.164  19.156  0.0097 -0.0433 -0.2393
10890W        W11754  23.025  25.288  10.643 -0.2860  0.1904 -0.0320
10891W        W11755  24.889  12.663   2.444  0.2036  0.2095 -0.2681
10892W        W11756  11.425   9.211  24.925  0.0306  0.0922 -0.3407
10893W        W11757  16.319  22.602  24.947  0.0570  0.2157  0.0558
10894W        W11758   1.299  15.657   5.283  0.0618 -0.0962  0.1245
10895W        W11759  14.827  11.535  16.168  0.1280 -0.2355  0.0925
10896W        W11760  10.723  15.686  27.800  0.0703 -0.2420 -0.1347
10897W        W11761  16.883   7.725   0.462 -0.1413 -0.2495 -0.0549
10898W        W11762   3.630  19.478   1.804  0.0100 -0.1994  0.1354
10899W        W11763  19.366  18.483  15.138 -0.1209  0.0760  0.1841
10900W        W11764  27.285  25.108   8.761 -0.0348  0.0783 -0.0261
10901W        W11765  18.772  28.774  21.860 -0.0493  0.1049 -0.2238
10902W        W11766   2.752  20.012  12.368 -0.3634  0.1827  0.1316
10903W        W11767  12.452  18.590  25.623  0.0668  0.0469 -0.0767
10904W        W11768  26.396  14.901   1.768  0.0898 -0.2717  0.1491
10905W        W11769   3.152  10.227  19.582  0.0560  0.2968  0.1532
10906W        W11770  23.928  21.585  13.753  0.2972  0.2357 -0.1740
10907W        W11771  17.261   6.767   4.904 -0.1098  0.2403 -0.3991
10908W        W11772  16.225  13.775   8.063  0.1247 -0.2169 -0.1139
10909W        W11773  24.088  12.698  23.834 -0.1123 -0.0829  0.0973
10910W        W11774  18.239   4.186   3.140 -0.1981  0.1621  0.0182
10911W        W11775  12.800  15.127  12.854  0.0919  0.1721  0.2214
10912W        W11776  29.093   1.491   1.865  0.0553 -0.1141 -0.2989
10913W        W11777  24.148  10.756   4.085 -0.0033  0.0359  0.0201
10914W        W11778  27.212   2.006  17.700  0.0712 -0.1796 -0.1886
10915W        W11779   8.219   9.617  19.789  0.1068  0.0082 -0.0876
10916W        W11780  11.725   4.868   9.515  0.1186 -0.1188  0.1166
10917W        W11781   9.925   2.876  15.925  0.3294  0.0279  0.1908
10918W        W11782   8.016   9.591  11.898 -0.1833 -0.1829 -0.3148
10919W        W11783   8.328   2.673  19.580  0.1803 -0.1272  0.0315
10920W        W11784  13.719  24.239   9.070  0.0284 -0.1486  0.0234
10921W        W11785  12.626  25.449  19.255 -0.1440  0.0337  0.0156
10922W        W11786  21.611  28.858  29.040 -0.0823  0.1451 -0.1722
10923W        W11787  12.881   2.895  22.839 -0.2499 -0.0008 -0.4378
10924W        W11788  21.352   0.272  14.430 -0.3886 -0.0009  0.0215
10925W        W11789  26.293  18.419  14.629 -0.1461 -0.0750  0.1239
10926W        W11790  11.309  12.231  19.518  0.1804  0.1366 -0.2101
10927W        W11791  23.928  10.755  24.457  0.0849 -0.1762 -0.0297
10928W        W11792  17.056  17.415  27.323 -0.2287 -0.2604  0.2508
10929W        W11793  12.048   4.911  19.519 -0.1170 -0.2450 -0.0562
10930W        W11794  22.218   5.793  12.898  0.4854  0.1005  0.2854
10931W        W11795   8.684  24.818  14.502 -0.0502 -0.0179 -0.1734
10932W        W11796   2.230   0.140   5.559  0.2098 -0.1017  0.0033
10933W        W11797   8.900  25.683   0.336  0.0281  0.1210  0.0878
10934W        W11798  15.478   1.913  23.700 -0.0118  0.2278  0.0597
10935W        W11799  17.753   6.467   4.170  0.1383  0.3944 -0.0523
10936W        W11800  19.813   1.261  26.388  0.4001 -0.1089 -0.3079
10937W        W11801   3.489  20.231  16.608 -0.1421 -0.0744  0.2532
10938W        W11802  15.867  15.697  15.906 -0.2575  0.0784  0.0421
10939W        W11803  20.939   7.123  27.819 -0.0644 -0.2216 -0.1693
10940W        W11804   7.562  10.043  12.685 -0.0374 -0.1388  0.1470
10941W        W11805   8.398   2.313  23.207  0.2950  0.0679  0.2439
10942W        W11806  10.307   8.200  24.969 -0.1788  0.0349  0.2623
10943W        W11807  22.201  21.569   3.727 -0.1216 -0.2264  0.0496
10944W        W11808  14.450  17.291  12.249 -0.1434 -0.0119  0.3107
10945W        W11809  26.838   1.056  24.380 -0.0925  0.1506 -0.1056
10946W        W11810  23.813   7.357  26.883 -0.1833  0.1101 -0.1431
10947W        W11811  25.119  16.666  15.527  0.1028  0.1560 -0.1800
10948W        W11812  21.889  27.335  22.193 -0.1819 -0.0560 -0.2253
10949W        W11813  11.139  28.835  21.655  0.1454 -0.2741 -0.2384
10950W        W11814  26.178   5.584  16.943 -0.1909  0.1922 -0.2804
10951W        W11815  20.395   6.890  20.805 -0.0620  0.3384  0.0006
10952W        W11816  22.057   7.127  21.701  0.1642 -0.1623 -0.0287
10953W        W11817  25.269  13.384  16.449 -0.1256 -0.2041 -0.0860
10954W        W11818   2.886   8.184   9.148 -0.0678 -0.0989  0.1741
10955W        W11819  16.078   8.341  18.307  0.0295  0.0801 -0.1111
10956W        W11820  29.073  10.283   2.605 -0.0192 -0.3334  0.0840
10957W        W11821   4.430  12.193  14.054  0.1720 -0.0432 -0.4136
10958W        W11822   6.137  26.040  26.329 -0.0637  0.1618 -0.1223
10959W        W11823  28.553  19.184  22.725 -0.1304 -0.1477 -0.1333
10960W        W11824  19.016  16.112   3.487 -0.0627  0.0200  0.0270
10961W        W11825  25.211  16.173  15.502  0.0240 -0.0418 -0.0726
10962W        W11826   3.600   4.105  18.304 -0.0782 -0.0891  0.1131
10963W        W11827  15.638  14.775  23.882  0.1348  0.2013  0.0544
10964W        W11828  16.927   6.222  10.686 -0.0374 -0.0085 -0.2265
10965W        W11829  21.199  14.478  20.008  0.0692 -0.0339 -0.1768
10966W        W11830  23.089  24.145  16.728 -0.0467  0.1475 -0.2253
10967W        W11831   2.901  25.492   8.586  0.2006  0.1702  0.4544
10968W        W11832  16.810  15.240   4.579 -0.1869 -0.0378 -0.0612
10969W        W11833  14.962  12.481   5.616 -0.2710 -0.0780 -0.0947
10970W        W11834   5.693  10.850  22.786 -0.0278 -0.1320  0.2446
10971W        W11835  10.209   7.539  20.885 -0.2708 -0.2942  0.2322
10972W        W11836  11.313   4.589  16.072  0.1799 -0.0001 -0.4464
10973W        W11837   5.912  11.158  21.479  0.1523  0.0577  0.0683
10974W        W11838  21.954   1.421  18.553  0.2018 -0.1465  0.0359
10975W        W11839  13.435  25.817   1.718 -0.2513 -0.2826 -0.4962
10976W        W11840  13.183  13.769   4.751  0.1330 -0.0446  0.1370
10977W        W11841  26.155  27.783  22.160  0.0116  0.0011 -0.1472
10978W        W11842  18.887  14.031  20.286 -0.2138 -0.0683 -0.3646
10979W        W11843   3.059  14.472   7.986  0.0106  0.0015  0.0906
10980W        W11844  22.220   2.604  16.366 -0.0561  0.2725 -0.1502
10981W        W11845  21.213  10.088  24.955 -0.2027  0.2102  0.1268
10982W        W11846   1.955  25.982   0.396 -0.2958 -0.0358  0.0062
10983W        W11847  18.991  19.457  25.594 -0.0689 -0.2663 -0.1649
10984W        W11848  11.801   3.894  24.869  0.0180  0.1877  0.2013
10985W        W11849  15.652   6.813   8.913 -0.1412 -0.0074 -0.2753
10986W        W11850  16.086  18.886  27.377 -0.1619 -0.0197  0.1672
10987W        W11851  19.241   4.922   0.624 -0.1923 -0.0800  0.2476
10988W        W11852  18.713   5.276  27.699  0.0348  0.0752 -0.0289
10989W        W11853  11.428  27.605   2.028  0.1156  0.1998 -0.1671
10990W        W11854   6.236  19.595  20.633  0.4329 -0.2109 -0.0666
10991W        W11855  19.757   1.196  17.942  0.1274  0.1374  0.0071
10992W        W11856   0.886  22.955   5.046  0.1707 -0.0891  0.1532
10993W        W11857  13.257   3.872  12.643 -0.0902 -0.1987 -0.2073
10994W        W11858  15.170   3.379   7.798 -0.0042  0.2721 -0.1073
10995W        W11859  18.093   4.109   9.522  0.0969  0.4031  0.1520
10996W        W11860  15.040   8.407   9.280 -0.0899  0.0062 -0.0847
10997W        W11861   1.296   7.724   3.114  0.0818  0.0822 -0.4609
10998W        W11862  25.578   3.591  26.747  0.0954 -0.3567 -0.0686
10999W        W11863  27.327  25.757  28.754  0.1882 -0.1424 -0.0465
11000W        W11864  26.840  14.446   3.847 -0.2899  0.3891  0.2263
11001W        W11865  14.707   0.237  19.174  0.2817  0.0029 -0.1673
11002W        W11866  23.437  25.711  19.533  0.1991  0.0895 -0.0178
11003W        W11867  16.586   6.346  19.156 -0.2765  0.0933  0.1445
11004W        W11868  23.916  22.817  21.129  0.0148  0.0167 -0.1508
11005W        W11869   2.239  27.273  28.377 -0.0713 -0.1849  0.0214
11006W        W11870   1.498  25.328  20.366  0.1865 -0.2869 -0.0671
11007W        W11871  12.281   3.701  13.592  0.0069 -0.2309 -0.1640
11008W        W11872  23.113  20.389   0.530 -0.2788  0.3236  0.1513
11009W        W11873  13.570   9.160  28.393 -0.2325 -0.0817 -0.0411
11010W        W11874  19.075  24.832   4.466  0.1314 -0.1707  0.1112
11011W        W11875  20.692  22.571  25.988 -0.0686  0.1367  0.1532
11012W        W11876   2.279  25.640  27.735  0.2414  0.0230 -0.4284
11013W        W11877   5.146  16.078  22.745 -0.1271 -0.3361 -0.1885
11014W        W11878  11.087  14.830  24.656 -0.2588  0.2589 -0.0346
11015W        W11879  23.724  16.241  28.817  0.1215 -0.0734 -0.3286
11016W        W11880  25.292   6.855  12.203 -0.2094 -0.1571  0.2625
11017W        W11881   4.105  16.905  16.182  0.1364  0.0989 -0.0676
11018W        W11882  16.312   2.618  18.298  0.0990 -0.0820 -0.1078
11019W        W11883  11.687   7.280   5.327 -0.4210 -0.0905 -0.1416
11020W        W11884  16.035  15.983   9.177 -0.0308  0.0468  0.1020
11021W        W11885  21.378  11.272  25.319 -0.0327 -0.4489 -0.0265
11022W        W11886  14.922  22.482  26.143 -0.1997 -0.0376 -0.0710
11023W        W11887  22.055   1.299  21.601  0.0431 -0.1995 -0.0012
11024W        W11888  16.001  26.361   5.809  0.0331 -0.0546  0.0273
11025W        W11889  10.393  15.596  12.938 -0.0903  0.0365  0.1994
11026W        W11890  22.573   9.405  16.616  0.0102  0.0171  0.4065
11027W        W11891  16.094  14.781  18.075  0.1351  0.1941  0.3751
11028W        W11892   8.109   6.149  18.106  0.0785  0.0723  0.2952
11029W        W11893  23.096  18.244  11.526  0.1343  0.0379 -0.0104
11030W        W11894  28.462  16.155  21.685 -0.2877 -0.1580  0.0837
11031W        W11895   1.619   1.504  11.113  0.0648 -0.0034  0.1615
11032W        W11896  13.005   8.216  13.365  0.0155  0.3308 -0.0896
11033W        W11897  24.438   1.417  24.819 -0.1082  0.1240  0.2906
11034W        W11898   3.292  12.417  19.392  0.0525  0.0960 -0.0221
11035W        W11899   2.116  26.646  15.473  0.1980  0.0477  0.1300
11036W        W11900   3.873  11.707  25.208 -0.1072 -0.5583  0.1487
11037W        W11901  14.459  23.644  20.188  0.4661 -0.1565 -0.0836
11038W        W11902  22.722   4.213   4.364 -0.0890  0.1731  0.3195
11039W        W11903   7.778   2.354   4.076  0.1988  0.1230 -0.0602
11040W        W11904   4.494  16.093  29.097  0.1168 -0.1854 -0.1107
11041W        W11905  13.190  19.077  26.782  0.1613  0.2380 -0.0043
11042W        W11906  11.329   0.331   6.710 -0.0589  0.1404 -0.0147
11043W        W11907  17.983   8.759   9.021  0.1021 -0.4038  0.0085
11044W        W11908   5.394  15.208   0.412  0.1048  0.0797 -0.0768
11045W        W11909   6.901  15.158  13.597 -0.1566 -0.1090  0.3554
11046W        W11910  14.545  11.204  15.786  0.0529  0.1226  0.1594
11047W        W11911  23.722  15.961  12.246 -0.2705 -0.0850  0.0587
11048W        W11912   6.521   9.877  25.053  0.4733 -0.1528  0.1486
11049W        W11913   9.436  25.810   0.349  0.1599 -0.4216 -0.1741
11050W        W11914  13.552   6.685   4.836  0.1234  0.0317  0.1283
11051W        W11915   0.761   2.916  13.347  0.0385  0.1740  0.0369
11052W        W11916  12.135  15.142   0.799  0.1061  0.0127 -0.0278
11053W        W11917  18.433  17.785   5.107 -0.0202  0.0311 -0.1283
11054W        W11918  22.962  26.020  23.046  0.0157 -0.0615  0.1516
11055W        W11919  18.884   0.944  18.855  0.2163 -0.0157  0.0406
11056W        W11920  20.097   4.445  10.933  0.1708 -0.0959 -0.3239
11057W        W11921  20.753  15.120  11.954  0.0645  0.0427 -0.0010
11058W        W11922  11.487  23.777  21.932  0.2757  0.2435 -0.0119
11059W        W11923  27.909  27.964   5.927  0.0657  0.1683  0.2035
11060W        W11924  18.971  27.856  10.401  0.0068 -0.2654 -0.3237
11061W        W11925  10.219  12.869  11.937  0.0652 -0.2964 -0.1897
11062W        W11926  28.728   6.163   0.149 -0.1635 -0.1000 -0.1404
11063W        W11927  15.353  15.487  15.696  0.2824  0.0806  0.0920
11064W        W11928  20.483   2.661   2.903  0.3538 -0.1628 -0.1181
11065W        W11929  26.215  19.718   3.359  0.1778 -0.1580 -0.2825
11066W        W11930  20.960   0.498  19.031  0.1294  0.2728 -0.3994
11067W        W11931  25.512  23.122   4.525  0.1618  0.0467 -0.0320
11068W        W11932  17.019   7.603  13.119  0.1915  0.1589 -0.1906
11069W        W11933  10.045  11.966   2.810  0.0397  0.0704 -0.1399
11070W        W11934   0.077   3.054   3.619 -0.1422 -0.1215  0.0457
11071W        W11935  19.410  16.389   3.355 -0.4275  0.2293 -0.1076
11072W        W11936  18.396  12.332  23.803  0.0519 -0.2313  0.1304
11073W        W11937   2.766  13.443  13.687  0.2288 -0.2204  0.0272
11074W        W11938   2.467   4.198   1.458 -0.2145  0.0795  0.4114
11075W        W11939   2.521  13.855  16.518  0.0186  0.4380 -0.1583
11076W        W11940   2.178  25.148  20.967  0.0448 -0.0607  0.1109
11077W        W11941  14.322   9.211   6.286  0.0493  0.2697  0.0503
11078W        W11942  11.900  28.284  20.832 -0.1930  0.2576 -0.0460
11079W        W11943  15.472   5.607   3.822 -0.1884 -0.1784 -0.1484
11080W        W11944  28.816  11.578   0.223 -0.1721  0.1382 -0.1142
11081W        W11945  17.645  27.884   6.051 -0.1627  0.2641  0.0175
11082W        W11946  11.329   5.884  12.013 -0.1002 -0.0783 -0.1836
11083W        W11947   2.764  11.544  15.949  0.0272 -0.0805  0.1585
11084W        W11948   2.077   9.092  12.605 -0.1698  0.0691 -0.1629
11085W        W11949  17.755   9.577  17.161  0.0870 -0.3091 -0.1528
11086W        W11950   0.624  13.253   1.641  0.0292 -0.0446 -0.0906
11087W        W11951   8.685   5.765   7.678  0.0644 -0.0153 -0.0542
11088W        W11952   7.840   9.028   9.240  0.3129  0.2400  0.1940
11089W        W11953   7.339  22.608  22.826  0.0177  0.0826  0.0534
11090W        W11954  20.827  21.653  27.153  0.0314 -0.0784  0.0010
11091W        W11955  10.698  13.768  17.664  0.0426  0.0479  0.2094
11092W        W11956  14.591   8.911  16.326  0.0164 -0.0238 -0.2876
11093W        W11957  20.366  27.470  19.970 -0.2744  0.0398 -0.0228
11094W        W11958  13.639  11.966   0.838 -0.0139  0.0816  0.0355
11095W        W11959  23.436   0.233  18.409  0.0490 -0.2321 -0.1153
11096W        W11960   8.481   5.968  25.304  0.1318  0.2213 -0.4205
11097W        W11961  14.060   3.334  28.253 -0.1069 -0.3439  0.0210
11098W        W11962  13.463  26.057  25.824 -0.2069 -0.1609  0.0237
11099W        W11963  10.130   3.641  25.407  0.0294 -0.1401  0.0194
11100W        W11964  21.169   6.088  15.469  0.0878  0.0524 -0.0186
11101W        W11965  26.568   4.650  27.841  0.0382  0.0474 -0.1351
11102W        W11966  23.596   1.327  24.074  0.0680 -0.3099 -0.1756
11103W        W11967   7.806   7.746   5.242  0.1087 -0.0918  0.2816
11104W        W11968  26.360  19.712  26.853 -0.0966 -0.1145 -0.2528
11105W        W11969  22.912  24.220   8.408 -0.1064  0.2739  0.0557
11106W        W11970  23.595   9.078  22.016  0.2819  0.1188 -0.0684
11107W        W11971  13.516  24.832  17.928  0.2637 -0.1367 -0.2266
11108W        W11972  12.177   1.167  18.423  0.0379 -0.1369 -0.1423
11109W        W11973  20.055   6.130   6.651  0.2685  0.2938  0.0928
11110W        W11974  18.540  17.103  19.388 -0.0623  0.1509 -0.2058
11111W        W11975  18.219   7.968   2.128 -0.1788 -0.0822  0.2033
11112W        W11976  23.312  11.334  13.535  0.1387 -0.0716  0.2377
11113W        W11977  17.192   3.887  27.892 -0.2065 -0.2226 -0.1143
11114W        W11978  21.798  17.454  12.949  0.1864 -0.2799  0.2028
11115W        W11979  29.050  15.064  16.843 -0.4685 -0.0961  0.1383
11116W        W11980  20.824   0.026  22.130  0.1714 -0.0828 -0.1750
11117W        W11981   6.532  20.341   8.587 -0.0910  0.0136  0.1025
11118W        W11982  11.824  19.227  23.262  0.1923 -0.0042  0.1935
11119W        W11983  26.849  22.050  11.514 -0.0773 -0.0432  0.2332
11120W        W11984   6.481   6.151  25.243  0.1677 -0.0999 -0.2325
11121W        W11985   6.645   4.185  23.061 -0.0182  0.1248 -0.1343
11122W        W11986   0.669  13.318  23.111  0.0153  0.0555  0.0236
11123W        W11987  23.306  17.503  20.968 -0.1812 -0.0784  0.0332
11124W        W11988  27.969  12.354  11.782  0.4166 -0.1907 -0.1037
11125W        W11989   7.662  28.372  18.748  0.0135  0.3875  0.0273
11126W        W11990  22.729  12.866  16.414 -0.0354 -0.1005  0.1022
11127W        W11991   7.017  15.672   3.944  0.4053 -0.0456 -0.0146
11128W        W11992  27.398  17.265  19.686 -0.1296  0.1757  0.2044
11129W        W11993  13.877  19.793  27.785 -0.0373 -0.1512  0.1849
11130W        W11994   7.647  11.311   9.911 -0.0234 -0.0224  0.0925
11131W        W11995  14.522   5.276  24.078 -0.0091 -0.1007  0.1110
11132W        W11996   8.225   4.587   2.314 -0.0097 -0.2885 -0.2114
11133W        W11997  14.791   7.572   7.047 -0.3035 -0.0042 -0.0782
11134W        W11998   2.635   9.495  24.536 -0.2461  0.0112  0.0120
11135W        W11999  23.226   8.626   0.947 -0.2420  0.0812 -0.2791
11136W        W12000   0.068  26.170  18.439  0.0201 -0.2368 -0.4634
11137W        W12001  21.283   4.071   5.447 -0.0934  0.1664 -0.0713
11138W        W12002  17.618   5.685  28.954 -0.3083 -0.2518  0.0214
11139W        W12003  20.608  28.479  23.135  0.2003 -0.0618 -0.2001
11140W        W12004   0.875   2.405  23.340 -0.0311 -0.0168  0.0486
11141W        W12005   9.175   1.830  15.764  0.0071  0.3045 -0.0639
11142W        W12006  16.806  14.391  20.040 -0.2805  0.1640 -0.0966
11143W        W12007  11.788  15.944  29.055 -0.0633  0.1543  0.0379
11144W        W12008  11.432   1.005   4.531 -0.0574  0.0716  0.0365
11145W        W12009   3.597  11.496   1.788 -0.0274  0.2598  0.4960
11146W        W12010  10.363   7.397  25.238 -0.1087 -0.1957 -0.2231
11147W        W12011  22.051   2.456  23.696 -0.2484 -0.0127  0.0570
11148W        W12012  26.377  15.644   5.240 -0.0222  0.1213 -0.2655
11149W        W12013  21.741  12.679  23.043  0.0509  0.0523  0.1949
11150W        W12014  25.835  21.104  13.816  0.1174  0.0444 -0.0824
11151W        W12015  16.555   7.590   7.099  0.2036 -0.1831 -0.2006
11152W        W12016  17.657   8.767  10.260 -0.0529 -0.0204 -0.0966
11153W        W12017   3.116  15.436  26.747  0.1758 -0.3741 -0.0343
11154W        W12018  13.558  26.913  20.686  0.2693 -0.0012 -0.1198
11155W        W12019  19.729  12.520  23.074  0.0006 -0.1139  0.4120
11156W        W12020  10.714  17.360  25.638 -0.1416  0.1861  0.0494
11157W        W12021  25.622   5.323  16.100  0.1085 -0.0930  0.1404
11158W        W12022  17.968  14.639  16.433 -0.0917  0.1502 -0.0235
11159W        W12023  15.269   1.248   7.714 -0.1603  0.1461  0.1549
11160W        W12024  23.184   7.310  18.745  0.0411  0.0584  0.2039
11161W        W12025  13.586  28.293  27.583  0.0097 -0.0888  0.0506
11162W        W12026  20.862   8.558  25.804 -0.0974 -0.1785  0.2450
11163W        W12027   0.693  20.350  17.062  0.2438  0.0961 -0.0062
11164W        W12028   0.604  14.022  19.280 -0.2160 -0.1827  0.0366
11165W        W12029  22.764  12.767  23.822 -0.1270  0.0141 -0.2872
11166W        W12030  18.639  17.637  27.068 -0.0647 -0.0592 -0.0872
11167W        W12031  21.422   5.802  17.269 -0.0502 -0.2371 -0.0869
11168W        W12032   0.489   3.070  14.726 -0.0159 -0.0788  0.2633
11169W        W12033  16.894  20.127  17.031 -0.1162 -0.0921 -0.1370
11170W        W12034  15.096  10.968  25.713  0.2073  0.0611 -0.1351
11171W        W12035  14.044   0.574  20.435 -0.0885 -0.1135 -0.0151
11172W        W12036   1.257   7.092  12.942  0.0375 -0.1613 -0.1122
11173W        W12037  14.534   7.907  16.195  0.0891  0.0387  0.0841
11174W        W12038   2.943  17.073  26.497 -0.3326  0.0373 -0.0902
11175W        W12039  26.844  15.738  14.654  0.3464 -0.2730  0.3051
11176W        W12040  14.488  22.433  16.768  0.1161 -0.0128 -0.1069
11177W        W12041   9.092   0.222  24.128  0.0450  0.2734  0.2768
11178W        W12042  14.492  19.466  21.036  0.1776 -0.2194  0.0554
11179W        W12043  24.659  14.190  24.981 -0.2166  0.0968  0.0356
11180W        W12044  18.082  17.619  28.308 -0.1266 -0.0282 -0.1105
11181W        W12045  16.937   5.528  13.815 -0.0237 -0.1881  0.1710
11182W        W12046  17.319  24.211  24.451 -0.0483  0.0481 -0.2937
11183W        W12047  27.340  26.643  12.757 -0.2063  0.3871 -0.0537
11184W        W12048  21.809   7.780  21.571  0.0773  0.0318 -0.2668
11185W        W12049  12.198   5.467  13.966  0.0779 -0.0410  0.0307
11186W        W12050  19.939  22.302  10.418 -0.0640 -0.0294 -0.0425
11187W        W12051  11.441  14.118   5.323  0.0298 -0.0410 -0.1749
11188W        W12052  14.916  22.565  20.437  0.0101  0.1770 -0.0336
11189W        W12053  15.012   8.355   5.626  0.0912 -0.2233  0.2083
11190W        W12054  17.921   6.907  13.993  0.4351  0.3198  0.0778
11191W        W12055   7.001  14.955  16.735  0.0892 -0.1162  0.1358
11192W        W12056  17.511  23.913   5.146 -0.2072  0.2126 -0.0447
11193W        W12057   0.418   1.780   4.552 -0.3380 -0.0141  0.0505
11194W        W12058  21.505   4.841  11.448 -0.0707 -0.0698  0.2833
11195W        W12059  25.424  13.078  22.513  0.1050 -0.0829 -0.1277
11196W        W12060   7.124  14.259  23.082  0.1395 -0.1625 -0.1925
11197W        W12061  16.988   5.138  18.561 -0.0168 -0.0191 -0.1833
11198W        W12062  10.157  28.182  28.987  0.1928 -0.0454  0.4353
11199W        W12063  13.428   7.322  22.856  0.1053 -0.1619 -0.1137
11200W        W12064  27.481  18.264  22.404 -0.3455  0.0769 -0.2397
11201W        W12065   9.418   4.770   3.688 -0.2067  0.0282  0.2058
11202W        W12066  19.314   1.592  13.389  0.0894  0.0017 -0.1785
11203W        W12067  24.530   8.828  18.357 -0.0276  0.1775  0.0515
11204W        W12068  17.525  20.383  26.466 -0.3543 -0.2961  0.0884
11205W        W12069  22.258   9.325  26.581  0.1740 -0.1150 -0.2779
11206W        W12070   6.296  18.231   8.156 -0.2774 -0.0808  0.0310
11207W        W12071  16.057  28.196  18.882 -0.0085  0.0252  0.1414
11208W        W12072  17.737  19.791   0.082  0.1058  0.3709  0.2630
11209W        W12073  26.863   8.108  26.077 -0.1558 -0.0068  0.2467
11210W        W12074  21.565   5.834   4.414 -0.2720  0.2030 -0.3292
11211W        W12075  14.197  22.886  15.446  0.2158  0.0704 -0.0625
11212W        W12076  28.099  19.275  24.851  0.0913  0.0756 -0.0762
11213W        W12077  24.783   9.672  19.015 -0.0704  0.1403 -0.3182
11214W        W12078  15.370   6.234   0.099  0.0341 -0.2310 -0.1679
11215W        W12079   7.283   4.915  10.453 -0.1974  0.0622 -0.3089
11216W        W12080  21.955   6.403  18.002 -0.2042 -0.0260 -0.0461
11217W        W12081   1.519   6.769  27.590  0.0435  0.0840 -0.1276
11218W        W12082  11.112   7.116  12.140  0.0253  0.0504 -0.3749
11219W        W12083   8.143  18.253   3.918  0.1105 -0.2306 -0.2502
11220W        W12084  19.361  24.672   2.585  0.2913 -0.1570 -0.0016
11221W        W12085   4.437  12.194  12.398 -0.0171  0.2760  0.1410
11222W        W12086  11.019   0.205   2.335  0.1792 -0.1697  0.0580
11223W        W12087  23.504   6.320   0.312 -0.1520 -0.0873  0.1759
11224W        W12088  16.388  14.195   3.826  0.2261 -0.1301  0.1239
11225W        W12089   5.268  17.456  18.412  0.0722 -0.1817 -0.1512
11226W        W12090   0.414  21.269  28.717 -0.1941  0.2190 -0.0393
11227W        W12091  19.139   8.348   4.157  0.0709  0.1604 -0.0590
11228W        W12092  17.044  23.046  12.343 -0.2430  0.3628 -0.0859
11229W        W12093  21.853  12.664  21.273 -0.0779  0.2446  0.1930
11230W        W12094  22.596  10.486  25.041 -0.0425 -0.0953  0.2037
11231W        W12095  12.092   1.401  16.075  0.1184  0.0800 -0.1136
11232W        W12096  19.583   0.612   5.511  0.0891 -0.1529  0.0135
11233W        W12097  14.933   9.291  13.289  0.2221  0.4089 -0.1786
11234W        W12098  10.210   8.103  25.913  0.0933 -0.1913  0.1095
11235W        W12099  15.779  26.790  17.505  0.3216 -0.0839  0.2553
11236W        W12100   9.468   6.176  15.349 -0.0778  0.0996  0.0519
11237W        W12101   4.148  27.407   8.990 -0.1324 -0.0416 -0.1686
11238W        W12102   2.679   6.524  14.684  0.0635  0.0783 -0.0691
11239W        W12103   4.665  17.841  17.316  0.0526  0.1873  0.1664
11240W        W12104  12.703   7.766  16.412 -0.0520 -0.0225  0.0847
11241W        W12105  15.604  12.145  17.120  0.3110 -0.2749  0.2858
11242W        W12106  16.919  20.394   5.956  0.0525 -0.2645  0.3140
11243W        W12107  17.801   6.597  13.451  0.0293 -0.2507  0.2210
11244W        W12108   6.725   8.245   8.141 -0.1118 -0.1410  0.0979
11245W        W12109  20.080   6.211  22.123  0.2154  0.0493  0.2592
11246W        W12110   7.824   7.501  24.503 -0.2515 -0.0919 -0.2339
11247W        W12111   9.527   3.922  26.849  0.0789  0.4755  0.0632
11248W        W12112  26.608   0.312   4.992 -0.1672  0.3955  0.0609
11249W        W12113  16.051   8.142  23.735  0.0168 -0.1879 -0.0056
11250W        W12114  25.618   7.832  12.362 -0.2696  0.0688  0.1078
11251W        W12115   3.196  12.007  28.207 -0.3770 -0.0163 -0.1961
11252W        W12116   9.792  29.049  10.154  0.4467 -0.0906 -0.1893
11253W        W12117  25.240   1.402  10.464 -0.1305 -0.1371 -0.0917
11254W        W12118   9.373  10.550   8.053  0.2795 -0.0072  0.0255
11255W        W12119   5.289   8.486  18.383 -0.0909 -0.0458  0.0064
11256W        W12120  10.966   4.101  28.152 -0.4049 -0.1760  0.0465
11257W        W12121  26.883   5.082  26.001 -0.1502 -0.3512  0.0115
11258W        W12122  11.728  28.541  17.437  0.1677  0.0062  0.1240
11259W        W12123  15.979   4.113  23.342  0.3048  0.0621 -0.0547
11260W        W12124  28.548   3.048  19.107  0.0596 -0.2549 -0.1251
11261W        W12125   0.464  19.752   7.322 -0.0733  0.0094  0.1422
11262W        W12126  10.919   5.657  14.719 -0.1254  0.0821 -0.3107
11263W        W12127  25.958  26.504  17.092  0.0255  0.4165 -0.0527
11264W        W12128   6.236   6.678   6.553 -0.2203  0.0343 -0.2372
11265W        W12129  15.661   8.403  12.691 -0.2365 -0.1199 -0.1648
11266W        W12130  27.582  26.704   8.771 -0.3600  0.0715  0.1677
11267W        W12131  20.877  15.570  25.076 -0.1742  0.3414  0.0975
11268W        W12132   7.297  16.390   9.123 -0.0452 -0.0082  0.0727
11269W        W12133  26.246  14.000   3.604  0.3633 -0.0315  0.5294
11270W        W12134  25.827   3.492  17.518 -0.0040 -0.0476  0.2021
11271W        W12135   4.596   1.637  19.992  0.2372  0.0253 -0.1736
11272W        W12136  14.070  15.401   8.319  0.1487 -0.0302  0.1097
11273W        W12137  12.019   8.377  22.971 -0.1111 -0.1111  0.2236
11274W        W12138  13.330  22.933   2.661  0.2014 -0.0083 -0.1782
11275W        W12139  17.958  12.735   9.319 -0.0023  0.2392 -0.0447
11276W        W12140  13.317   9.473  19.057 -0.1084 -0.1199 -0.0016
11277W        W12141   6.627   4.437  18.611  0.1888  0.0709  0.3071
11278W        W12142   9.842  11.417  11.546  0.0509  0.2160  0.3010
11279W        W12143  20.411   2.039  14.344  0.0710  0.1640  0.1146
11280W        W12144   0.335   7.512  22.285 -0.1795 -0.1404  0.2914
11281W        W12145   9.964   3.587  24.812 -0.1586 -0.1943  0.0747
11282W        W12146   9.551  20.688   1.658  0.0108 -0.1410 -0.0666
11283W        W12147   9.871   7.121  23.548 -0.2081 -0.2400 -0.2014
11284W        W12148  15.120  11.782  24.574  0.0679  0.4256  0.1498
11285W        W12149  22.479   2.973  26.565  0.2139  0.2361 -0.0881
11286W        W12150   5.467   7.642  20.553 -0.1210  0.1989  0.1332
11287W        W12151  29.112  21.248  16.294  0.2320 -0.2574  0.0414
11288W        W12152  18.402  17.281  17.847  0.0231  0.1504 -0.0127
11289W        W12153  23.816  12.316  23.020  0.1346 -0.2244  0.0875
11290W        W12154   8.039   4.379  20.085 -0.0015 -0.2178 -0.2721
11291W        W12155  14.563  14.623  19.395  0.1864 -0.1852  0.4247
11292W        W12156  10.145  25.730  16.420 -0.2066  0.1478  0.0749
11293W        W12157  16.965   0.384  23.456 -0.1402 -0.0197 -0.2293
11294W        W12158  19.459  11.422  20.307 -0.1226 -0.2872 -0.1795
11295W        W12159  17.163  12.213   5.118  0.0814 -0.3109 -0.0733
11296W        W12160   7.866   5.008   8.953  0.0099 -0.2649 -0.0366
11297W        W12161  15.744  28.183  12.874  0.2337  0.2879 -0.3055
11298W        W12162  25.506  17.608  16.862  0.2848 -0.2618 -0.3635
11299W        W12163  12.924   3.875  14.900 -0.0356  0.0020 -0.4228
11300W        W12164  21.564   2.108  21.807  0.2439  0.0518 -0.1409
11301W        W12165   8.686   4.527  16.099 -0.0020  0.2122  0.1522
11302W        W12166  28.347  14.714  14.396 -0.0680  0.0991 -0.1866
11303W        W12167   9.298  13.616  16.143 -0.0376 -0.0758 -0.0884
11304W        W12168  21.235   7.833  26.115  0.1825 -0.0791 -0.1237
11305W        W12169  18.364  14.131  25.838 -0.0381  0.0530 -0.3297
11306W        W12170   9.089   6.784  17.469 -0.3247 -0.0707 -0.0321
11307W        W12171  27.135  19.755   3.097  0.1775 -0.1239  0.0883
11308W        W12172  23.090  28.438  28.154  0.1416  0.1234  0.1472
11309W        W12173   7.595  16.050  21.384 -0.1947 -0.0267 -0.0850
11310W        W12174  19.861  26.192  29.049 -0.0475 -0.3840 -0.0002
11311W        W12175  19.872   9.473  28.309 -0.2079  0.0656  0.1203
11312W        W12176  19.087  18.304  22.674 -0.4270  0.1423 -0.1742
11313W        W12177  20.594   5.648   3.706 -0.2381 -0.1826 -0.1827
11314W        W12178  19.076   7.718   5.072  0.0295  0.2134 -0.1415
11315W        W12179   9.977  13.322  15.397  0.1730 -0.2825 -0.0655
11316W        W12180  20.162  12.425  15.188 -0.0684  0.0371  0.0560
11317W        W12181  24.657  26.123  27.773  0.2105  0.0028 -0.1596
11318W        W12182   9.723  10.198   3.758  0.3336 -0.2229  0.1746
11319W        W12183  21.064  17.212   5.818  0.2674  0.0842 -0.0351
11320W        W12184  24.374  23.236   4.077  0.0018  0.0477 -0.1345
11321W        W12185  26.704  19.101   1.736  0.0119  0.0636  0.0732
11322W        W12186  21.986  15.348  23.122  0.1621 -0.0391 -0.0449
11323W        W12187  17.462   1.322  19.474 -0.2277 -0.1045  0.1557
11324W        W12188   2.205   1.918   1.296  0.0231 -0.1733  0.3477
11325W        W12189  23.568  11.381  14.412 -0.4113 -0.1747 -0.2717
11326W        W12190  17.601   8.687  25.894 -0.0081 -0.2303 -0.0441
11327W        W12191  14.797   8.426  16.104  0.0291  0.4407  0.2860
11328W        W12192   9.426   2.834  21.132 -0.0735 -0.0525 -0.2506
11329W        W12193  12.334  28.118  11.124  0.0329  0.0366  0.1222
11330W        W12194  18.731   7.048   2.073 -0.0976 -0.1675  0.0434
11331W        W12195   9.745  20.907  25.920  0.1121 -0.2506 -0.1591
11332W        W12196   9.077  14.848   9.160 -0.0361 -0.1354  0.1961
11333W        W12197   0.477   2.661  19.907 -0.0543 -0.1128  0.0211
11334W        W12198  10.112  18.562  27.396 -0.1586 -0.0310  0.1902
11335W        W12199  13.320   9.383  21.957 -0.3120  0.0320 -0.2899
11336W        W12200  20.393  16.507   6.041  0.4112 -0.2700 -0.0598
11337W        W12201  13.645  13.159   0.584 -0.0583  0.0918 -0.1146
11338W        W12202  11.633  28.899   2.959 -0.1082 -0.1257  0.2768
11339W        W12203  27.987  13.401  22.676 -0.1551  0.0713 -0.1926
11340W        W12204   9.815  16.675   1.911 -0.1014 -0.4237 -0.0702
11341W        W12205  20.096  14.115  26.077  0.0108  0.2506  0.2680
11342W        W12206   4.008   1.989  27.385  0.2421 -0.0316  0.1352
11343W        W12207  21.848  19.832   9.805 -0.0103  0.1029  0.0903
11344W        W12208   3.270  26.267   2.668  0.0071 -0.0125  0.2525
11345W        W12209   1.844   3.959   6.718 -0.1525  0.0727 -0.1544
11346W        W12210  16.100  20.324  18.629  0.3786 -0.0749 -0.1904
11347W        W12211  18.019  13.318   1.859 -0.1871 -0.0795  0.0657
11348W        W12212  15.195   7.728   7.367  0.0974 -0.0504 -0.2268
11349W        W12213  22.713  13.193  19.833  0.1885  0.1074  0.0745
11350W        W12214  16.258  12.755   4.856 -0.0926  0.0057 -0.0446
11351W        W12215  16.626  12.887  16.787 -0.1311  0.2020  0.0060
11352W        W12216   1.425   2.927   1.327 -0.2558 -0.0718 -0.2037
11353W        W12217  28.473   7.703   1.793 -0.0025  0.1703  0.0830
11354W        W12218   9.324   5.540   6.502  0.1382  0.1283 -0.0042
11355W        W12219  27.917  22.063  18.202  0.0663  0.2968  0.0560
11356W        W12220  13.512  27.364  21.718 -0.2592 -0.3673 -0.2612
11357W        W12221  19.134  20.216  25.863  0.1754  0.1575 -0.0502
11358W        W12222  23.030   2.236   3.922  0.1038 -0.0624 -0.3504
11359W        W12223  17.349  22.723  12.138  0.0780 -0.0330 -0.3001
11360W        W12224  23.434   0.062  18.927  0.5555  0.0110 -0.1687
11361W        W12225   3.506   4.950  24.402 -0.0774  0.1651  0.0147
11362W        W12226   6.382  14.518  29.077  0.1693  0.2016  0.0864
11363W        W12227  16.072  14.031  10.134 -0.0588  0.0089  0.2404
11364W        W12228  13.311  18.493  19.713 -0.0152 -0.1596 -0.2107
11365W        W12229  20.048   0.901  23.336 -0.1056  0.0058 -0.1273
11366W        W12230   4.563   2.713  27.520  0.2821 -0.0521  0.5771
11367W        W12231  15.001  11.489  22.087  0.3980  0.1644  0.0756
11368W        W12232  12.792   5.081  16.812 -0.0284 -0.0172 -0.4717
11369W        W12233  20.992  17.205   1.288 -0.0660  0.1502  0.1968
11370W        W12234  27.082  15.116  20.266  0.0483  0.0529 -0.0252
11371W        W12235  26.493   8.588   6.513  0.2017 -0.0793  0.0667
11372W        W12236   6.320   0.631   5.986 -0.2050 -0.1747  0.1277
11373W        W12237  24.860   7.977   4.800  0.0765  0.0204  0.0284
11374W        W12238  21.815   2.774  27.363  0.0080 -0.1834  0.0037
11375W        W12239  24.563  10.069   7.818 -0.0541 -0.1787  0.1387
11376W        W12240  19.192  19.446   5.478  0.2338  0.0571 -0.0372
11377W        W12241   5.136   3.233  10.928  0.0623 -0.1392  0.0636
11378W        W12242  14.161  13.072  23.622 -0.3748  0.0821  0.0485
11379W        W12243   7.101   6.813  11.323 -0.1277 -0.0339 -0.1046
11380W        W12244  22.713  22.546   8.031 -0.1519 -0.1525 -0.4770
11381W        W12245  17.088   7.297   0.865 -0.0354 -0.3797  0.1257
11382W        W12246  16.029  24.882  20.694 -0.3105  0.0601  0.1575
11383W        W12247  15.476   7.903  28.872  0.0591  0.3043 -0.2194
11384W        W12248  10.872  18.372  21.162  0.3975  0.1547  0.0051
11385W        W12249  18.891  23.552  12.364 -0.2108 -0.0098 -0.1083
11386W        W12250  19.449  14.590  17.210 -0.0452  0.0064  0.0802
11387W        W12251   1.274  20.496  20.736  0.1287 -0.0262  0.0056
11388W        W12252  22.000  14.857  22.901  0.0720  0.2818 -0.0819
11389W        W12253  15.362  28.043   0.437 -0.0879 -0.3454  0.3159
11390W        W12254  10.579  10.226  24.199 -0.1015  0.2028  0.1316
11391W        W12255  18.315  29.139   2.196 -0.3788 -0.0745  0.0989
11392W        W12256   7.490  10.351   9.549 -0.1684 -0.1646  0.0691
11393W        W12257  18.667  12.648  24.071  0.1022  0.0262 -0.2813
11394W        W12258  12.168  17.100   1.774 -0.0265 -0.1269 -0.1099
11395W        W12259  23.044  15.929   0.476  0.1931 -0.2990 -0.2669
11396W        W12260  23.484  21.486  26.273  0.1693 -0.1562 -0.1150
11397W        W12261  19.707   9.895  11.685 -0.0974  0.1188 -0.1736
11398W        W12262   3.956  28.763  19.634 -0.0461  0.2189  0.1352
11399W        W12263  17.569  20.765  15.380 -0.0018  0.1076  0.2304
11400W        W12264  17.701  26.105  27.243  0.1835  0.0818 -0.0404
11401W        W12265  28.827   4.053  23.084 -0.0853  0.4850 -0.0393
11402W        W12266   8.846   1.133   0.660 -0.1556  0.0464  0.1529
11403W        W12267  15.209  13.939  19.123  0.2044  0.0848 -0.0896
11404W        W12268  26.744   3.572  18.936 -0.1519 -0.2862 -0.0978
11405W        W12269  15.308   4.143  26.526  0.2967 -0.0470  0.2220
11406W        W12270   7.938  22.766   5.074 -0.0270 -0.1139  0.3416
11407W        W12271   2.556   8.844  10.804  0.1445  0.1834 -0.0603
11408W        W12272  13.292   3.350   2.946  0.0325  0.1648 -0.2636
11409W        W12273  26.476   9.239   1.097  0.1294 -0.0495  0.0068
11410W        W12274  18.631   6.030  22.245 -0.2251 -0.4157 -0.0096
11411W        W12275   4.347  12.386  26.754  0.1215  0.1940 -0.2262
11412W        W12276  26.936  28.342  15.773 -0.0657  0.2403 -0.2361
11413W        W12277   3.854  26.311  18.125  0.2984 -0.0585  0.0086
11414W        W12278  28.554  13.165  18.333 -0.1840 -0.0709  0.0640
11415W        W12279  17.665  23.550  21.071 -0.3248 -0.2355 -0.0710
11416W        W12280   8.100   1.898  25.164 -0.0955  0.4141 -0.1508
11417W        W12281  14.264   0.398  26.260  0.0436  0.0276 -0.4777
11418W        W12282   5.752  14.143   0.891 -0.3025 -0.0027 -0.2899
11419W        W12283  20.655  14.970  27.142 -0.1597  0.4279  0.1615
11420W        W12284   8.177   1.644  27.642  0.4068 -0.0381 -0.1768
11421W        W12285  27.111   8.172  18.660 -0.0006  0.2631 -0.1267
11422W        W12286  10.894  13.639  25.131  0.0509  0.1561 -0.1042
11423W        W12287  10.873   4.858  25.624  0.1910  0.1538  0.0678
11424W        W12288   3.676  13.879  21.445  0.1242  0.0005  0.1373
11425W        W12289   2.688  21.792  25.850 -0.2769 -0.1129 -0.0293
11426W        W12290  11.483   9.932  22.021  0.0775  0.0476  0.2176
11427W        W12291  21.820  19.227  26.745 -0.2864 -0.3198  0.0638
11428W        W12292  28.234   4.264  20.701  0.0169  0.0210  0.0705
11429W        W12293  21.344  23.998  14.142  0.0594  0.1511  0.0315
11430W        W12294  25.795  14.713  10.850 -0.1205 -0.0035  0.1967
11431W        W12295  18.998  26.687  13.322  0.1454 -0.3037 -0.2101
11432W        W12296   4.419  16.187  15.135 -0.1845  0.2390 -0.0146
11433W        W12297  19.868  15.933  17.241  0.1845 -0.0509  0.0136
11434W        W12298  24.757  20.300  24.256  0.0839 -0.0250 -0.0515
11435W        W12299  27.523  19.658   2.784  0.4499 -0.3304  0.0808
11436W        W12300  12.158  28.531   0.353  0.1090 -0.0048 -0.1658
11437W        W12301   8.537  18.528  19.200 -0.0625  0.0340 -0.2040
11438W        W12302  28.670   5.539  16.426 -0.0556  0.0176  0.2813
11439W        W12303   4.918  20.001   0.566 -0.3158 -0.0075 -0.0404
11440W        W12304  27.059   5.926  16.536 -0.1871 -0.2329  0.1527
11441W        W12305  17.114  18.141  14.602  0.0647 -0.1142  0.1525
11442W        W12306  19.206  12.357  23.830 -0.2832 -0.0037  0.1957
11443W        W12307   8.175  28.505  13.866  0.0668  0.1795 -0.1425
11444W        W12308  10.619  11.257   2.651  0.2251 -0.0492 -0.4366
11445W        W12309   5.875  24.622  21.733  0.1347 -0.1169 -0.1016
11446W        W12310  24.464   8.751  10.632  0.2899  0.0536 -0.2357
11447W        W12311  17.309   6.068   1.314 -0.4967 -0.0685 -0.2550
11448W        W12312  24.137  12.579  12.823  0.0364  0.0757 -0.1972
11449W        W12313  26.627  27.362   2.604  0.0157 -0.1121 -0.2176
11450W        W12314  26.804   4.010  15.626 -0.2186 -0.1257 -0.0552
11451W        W12315  21.609  25.522  26.982  0.1856 -0.1518 -0.2049
11452W        W12316  13.615   3.575   1.081  0.1499  0.0502 -0.0294
11453W        W12317  17.480  15.028  16.501 -0.0210  0.3101  0.0697
11454W        W12318  17.263   1.685  16.775 -0.1162  0.2828  0.1255
11455W        W12319   1.795  14.860   6.909 -0.0201  0.0215 -0.0651
11456W        W12320  17.246  10.429  21.107  0.0989  0.0698 -0.0043
11457W        W12321   6.478  27.870   6.761 -0.0351  0.0303  0.1812
11458W        W12322  22.187  16.460   2.191  0.1436  0.2244 -0.0561
11459W        W12323  10.746   7.559  14.826  0.0600 -0.3142  0.0452
11460W        W12324   4.222  12.098  22.396  0.1601 -0.1922 -0.0060
11461W        W12325  21.502  18.038   3.807  0.2547 -0.1966  0.1033
11462W        W12326   6.112   7.745  16.345  0.0606 -0.1109 -0.2571
11463W        W12327  27.700  23.678  27.055  0.1151  0.1187 -0.1244
11464W        W12328  27.513   8.673   0.659  0.1612  0.0394  0.1101
11465W        W12329  13.992  27.398  27.758  0.0710 -0.1723 -0.0536
11466W        W12330   8.493  10.968   4.069  0.0158  0.0179 -0.1123
11467W        W12331  17.756   8.158  11.399 -0.1454  0.3780 -0.4412
11468W        W12332   2.182   4.385  25.475 -0.2730  0.1446  0.2223
11469W        W12333  13.121   9.710   8.678  0.1056 -0.0568 -0.0140
11470W        W12334   0.496  25.157  26.453 -0.2299  0.1532  0.0400
11471W        W12335  22.566  11.971  16.221 -0.0269 -0.0618  0.0414
11472W        W12336   5.019   9.439  21.696 -0.3725 -0.1100  0.0694
11473W        W12337  22.407   9.913  23.805  0.1294 -0.1000  0.3144
11474W        W12338  13.834  14.815   7.248  0.1072 -0.1122 -0.1730
11475W        W12339  17.417   7.307  20.112  0.2134 -0.2592  0.1632
11476W        W12340  10.547   9.355  28.091 -0.0593  0.0071  0.2238
11477W        W12341  20.037  10.612   4.377 -0.0337  0.2734  0.0206
11478W        W12342   1.788   1.931  27.453 -0.0468  0.0094 -0.0857
11479W        W12343  14.392  13.368   2.011 -0.0450 -0.2167  0.1501
11480W        W12344  19.411   8.803  28.983  0.2388 -0.1904  0.1811
11481W        W12345  22.170   4.442  18.904 -0.0481 -0.1795 -0.4249
11482W        W12346  19.236  10.653  20.577  0.0337  0.1195 -0.0677
11483W        W12347  17.692  17.318  20.268 -0.3485  0.2262  0.0629
11484W        W12348  21.946   8.754  24.165  0.0703  0.2919  0.1554
11485W        W12349   9.190   0.061   1.335  0.1282  0.0959  0.2046
11486W        W12350  21.660   0.634  15.671  0.1371  0.1151  0.4008
11487W        W12351  13.646  17.211  25.969 -0.1480  0.0464  0.1757
11488W        W12352  12.502  19.079  25.539 -0.1349 -0.2073 -0.1053
11489W        W12353   2.605   6.813  19.045 -0.1134 -0.1530 -0.3528
11490W        W12354  24.517  14.599  13.411  0.1074  0.1779  0.1394
11491W        W12355  23.912   0.792   0.008 -0.0800 -0.2135  0.0604
11492W        W12356  22.879  13.662  22.648 -0.2716 -0.2484  0.0508
11493W        W12357  22.607   0.380  27.534 -0.0791  0.4254 -0.0325
11494W        W12358  16.823  29.043   5.844  0.1930 -0.0368 -0.0210
11495W        W12359   9.827  27.040   0.402 -0.1204  0.1983 -0.0770
11496W        W12360  22.275  14.976  26.093 -0.0981  0.1149 -0.1315
11497W        W12361  14.898  26.723   1.542  0.0281 -0.2778 -0.2466
11498W        W12362   1.457   7.190   6.910 -0.3196 -0.1422  0.0031
11499W        W12363  25.458   6.996  17.549  0.0668 -0.0499 -0.2709
11500W        W12364  25.226  17.081   0.067 -0.0484 -0.1083 -0.0854
11501W        W12365  21.651  14.559  23.231  0.3228 -0.0449 -0.2902
11502W        W12366   4.894  12.356  18.286  0.1472 -0.0523  0.4952
11503W        W12367  19.653  28.463  16.231 -0.1068  0.0614 -0.0917
11504W        W12368  24.091  10.129   3.580 -0.0361 -0.2697  0.0535
11505W        W12369   7.690  22.509  27.093  0.0967 -0.0893 -0.0587
11506W        W12370  20.467  13.992  10.470  0.4795  0.1874 -0.2711
11507W        W12371   1.053   5.071  26.993 -0.0405 -0.0399  0.1609
11508W        W12372   0.067  22.963   2.029 -0.0070 -0.1380 -0.2392
11509W        W12373   5.054  23.161   2.733  0.2160 -0.2206  0.0960
11510W        W12374   0.837   8.312  16.430  0.0791 -0.1844 -0.1236
11511W        W12375  26.764   8.499  25.771  0.1366  0.0182  0.0518
11512W        W12376  24.503   2.329   4.622 -0.1009  0.1983 -0.1047
11513W        W12377  25.704  12.202  25.506  0.0153 -0.1933  0.2066
11514W        W12378   0.535  10.451  14.807 -0.1585  0.3701  0.4501
11515W        W12379  19.815  15.496  10.330 -0.1215  0.1602 -0.0860
11516W        W12380  15.868   4.044  14.882  0.1336  0.1613 -0.0988
11517W        W12381  12.842  28.973   7.275  0.0963  0.0343  0.1621
11518W        W12382  18.718  21.076  16.633  0.3596 -0.0801  0.0132
11519W        W12383  10.736   2.332  21.282  0.0271  0.2492  0.1093
11520W        W12384  20.515  12.000   6.499 -0.1635  0.4138 -0.2512
11521W        W12385  10.602  20.518  24.910  0.0471  0.1813 -0.1409
11522W        W12386  15.748   4.030  20.113  0.1227  0.0237 -0.2386
11523W        W12387  15.421   2.618  12.851  0.0649  0.1101  0.0323
11524W        W12388   1.755  15.119  27.567 -0.1730 -0.0593 -0.2255
11525W        W12389  20.288   5.494   0.837  0.2194  0.0888  0.4501
11526W        W12390  21.080   7.483   9.004  0.2348 -0.0481 -0.3178
11527W        W12391  20.146   0.850  25.671 -0.2551 -0.0846  0.2464
11528W        W12392  14.091   2.316  22.589 -0.0034 -0.0449 -0.1662
11529W        W12393  11.970   3.370   1.215 -0.0959 -0.0020  0.0103
11530W        W12394  13.209   3.910  24.626 -0.3263 -0.5593 -0.1139
11531W        W12395  20.073   6.949  13.361 -0.0182  0.4840  0.0891
11532W        W12396  19.701  27.660   6.168 -0.2077 -0.2687 -0.0307
11533W        W12397  19.482   8.966  14.230  0.1769  0.2695 -0.2946
11534W        W12398  12.419  24.990  24.846 -0.0385  0.0037  0.1050
11535W        W12399  19.570  17.240   1.484 -0.1159  0.1250 -0.0023
11536W        W12400  15.471  19.675   0.297  0.3629 -0.3716  0.1137
11537W        W12401   7.202   9.127  23.662  0.1509 -0.2241  0.2563
11538W        W12402  29.045  24.147   8.973 -0.1932 -0.0940 -0.0810
11539W        W12403  20.716  28.971  23.069  0.1963 -0.0535 -0.1918
11540W        W12404   1.008  18.669  26.164  0.1677  0.3181  0.2104
11541W        W12405   4.516  12.461   8.808  0.0956  0.0598 -0.0972
11542W        W12406  21.684  25.728  14.056  0.0716  0.3296 -0.1368
11543W        W12407  17.150  11.381  21.393 -0.0173 -0.0234  0.0149
11544W        W12408  23.017  14.762  18.334 -0.2801  0.0614 -0.1652
11545W        W12409  18.456  27.526  24.515  0.2236 -0.4097 -0.2926
11546W        W12410   7.910  16.042  17.100  0.1376  0.1403  0.1496
11547W        W12411  20.423   3.669   1.560 -0.0551  0.0214  0.2964
11548W        W12412  16.243   8.164   0.879 -0.0461  0.2659 -0.0504
11549W        W12413   8.916   4.945   3.498  0.1253  0.1918 -0.0154
11550W        W12414  10.241   3.322  19.975 -0.0373 -0.0021 -0.2223
11551W        W12415  23.146   5.432  18.603 -0.1319  0.2640  0.3650
11552W        W12416  13.415  14.852   2.849  0.0269 -0.2723  0.0758
11553W        W12417   8.472   2.479  26.981 -0.0568  0.2038 -0.1915
11554W        W12418  13.549  11.165  16.265  0.1520  0.1429 -0.0711
11555W        W12419  24.468  14.536  24.630 -0.0489 -0.1928  0.1670
11556W        W12420   6.790  13.368  22.839  0.0604  0.0430  0.2881
11557W        W12421   7.401  10.608  21.605 -0.1450 -0.1028 -0.0382
11558W        W12422   0.762  15.081  22.548 -0.0504 -0.0845 -0.1224
11559W        W12423  22.915  18.185  14.763  0.1337 -0.2907 -0.0500
11560W        W12424  24.503  15.026  26.818  0.1753 -0.3098  0.1664
11561W        W12425  26.993  24.605   4.217 -0.1602  0.0640 -0.0179
11562W        W12426  13.703  10.216   9.730  0.1500  0.1006 -0.0956
11563W        W12427  25.473  11.981  13.479 -0.1532 -0.1711  0.2816
11564W        W12428  13.103  23.994  15.363  0.0134  0.2322  0.0391
11565W        W12429  10.633  12.816  13.589  0.0877 -0.0539  0.1599
11566W        W12430  20.176   2.715  15.607  0.1165  0.1409 -0.2437
11567W        W12431  25.492   2.787  25.920 -0.1309 -0.0110  0.1840
11568W        W12432   4.048   5.464  18.354  0.2650  0.0162 -0.1526
11569W        W12433  17.373  10.965  21.266 -0.0681 -0.1960 -0.1911
11570W        W12434  25.181  10.573  25.972  0.0214  0.2282 -0.0195
11571W        W12435  27.274  10.494  24.852 -0.0633  0.1326 -0.0203
11572W        W12436  10.768  23.779  21.102  0.1913 -0.2483  0.1397
11573W        W12437   4.813  13.683  22.897 -0.0995  0.1009 -0.1480
11574W        W12438  16.962  10.615  12.391 -0.0267  0.2156 -0.2105
11575W        W12439  12.779  15.837   7.065 -0.2067 -0.0218  0.2219
11576W        W12440  19.087  10.535   9.109 -0.0277  0.3503 -0.2012
11577W        W12441  22.342   2.691  11.531 -0.1144  0.1642  0.3419
11578W        W12442  17.185  11.368  26.515 -0.0141 -0.0297  0.1640
11579W        W12443  19.443   8.907  14.876  0.0998 -0.2698 -0.0049
11580W        W12444  21.182  12.124   2.239  0.1859 -0.0334  0.1670
11581W        W12445  16.669  19.501   1.208 -0.2152 -0.0134  0.0023
11582W        W12446  20.536  10.232  17.470 -0.1684  0.3290  0.0078
11583W        W12447  21.618  13.797   8.881 -0.0755  0.0868  0.2675
11584W        W12448  18.756   2.095   6.801  0.1644  0.0368 -0.1779
11585W        W12449  29.036  20.508   8.251 -0.2041 -0.1052  0.0145
11586W        W12450  24.297   6.266  25.313  0.0774  0.0480 -0.2286
11587W        W12451   6.479  24.863   1.481  0.4524  0.1572 -0.1394
11588W        W12452   0.523  14.221  13.350  0.1297 -0.3980  0.0949
11589W        W12453   3.423   3.405  13.178 -0.1727 -0.2756 -0.0802
11590W        W12454   6.777  15.420  20.102  0.2419 -0.2315  0.1027
11591W        W12455  22.299  15.018  21.782 -0.0197 -0.3561  0.0128
11592W        W12456  25.813  20.518  29.003 -0.2166 -0.0514  0.0678
11593W        W12457   6.731  13.003   2.776  0.0010  0.1073  0.1693
11594W        W12458  28.762  11.952   5.907  0.0765  0.1523  0.0815
11595W        W12459  22.786   4.482  27.826  0.0835 -0.0262  0.0637
11596W        W12460  25.044   5.994   1.393 -0.3907 -0.0388 -0.1522
11597W        W12461  19.970  27.765  28.589 -0.2874  0.3768 -0.1083
11598W        W12462  13.829  19.989  19.263 -0.1449 -0.2883  0.0074
11599W        W12463  24.224  11.925   2.200  0.0176 -0.2148 -0.0002
11600W        W12464  17.805   9.739  23.852 -0.3627 -0.0880 -0.0154
11601W        W12465   4.439   5.167  20.306 -0.3214  0.1487 -0.1734
11602W        W12466   4.020  13.843  13.391 -0.2240  0.2296 -0.4613
11603W        W12467  27.577  15.753  18.091  0.1856 -0.0681  0.0771
11604W        W12468  26.528  23.863  11.259  0.0257 -0.1686  0.1472
11605W        W12469  25.411  24.722   1.717  0.2431  0.2369  0.0079
11606W        W12470  22.622  25.172  18.109 -0.0224  0.1252  0.1277
11607W        W12471  21.313   9.199  25.459  0.0391 -0.0605  0.2302
11608W        W12472  26.068  25.148   2.266 -0.2257  0.0417 -0.1824
11609W        W12473  20.633  14.050  16.374 -0.1252  0.1729 -0.1758
11610W        W12474  26.483   8.085  28.447 -0.0894 -0.3615  0.2808
11611W        W12475  13.030  17.110   9.244 -0.3572  0.2273 -0.1687
11612W        W12476  10.111   6.850  27.692 -0.0008 -0.1410 -0.0252
11613W        W12477  15.977  29.024  22.527 -0.1283  0.0440 -0.0804
11614W        W12478   4.488   7.264  23.839  0.1343  0.1034 -0.0224
11615W        W12479  13.479  21.743   5.872  0.1518 -0.0655  0.2456
11616W        W12480  12.320  23.802   6.530 -0.3199 -0.2225 -0.1718
11617W        W12481   7.394   8.346  17.747 -0.0252 -0.1277 -0.1664
11618W        W12482   4.676   2.289   6.156 -0.0250 -0.1684 -0.1417
11619W        W12483  11.139  14.420   6.185  0.0216  0.0088  0.0374
11620W        W12484  16.058   2.146   1.853  0.3886  0.3012 -0.1184
11621W        W12485  10.373  26.608   2.704 -0.0430  0.0464  0.1257
11622W        W12486  11.802   0.416  28.104  0.0223  0.2515  0.2545
11623W        W12487  21.771  11.083  12.143  0.2758 -0.2280  0.2536
11624W        W12488   8.369  12.306   4.252  0.1318  0.0967 -0.0510
11625W        W12489   2.252  26.928   5.252  0.2066  0.1774  0.1673
11626W        W12490   1.245  22.480  23.732  0.2746  0.1742 -0.2300
11627W        W12491   1.478  28.340   7.927 -0.0483 -0.2359  0.0259
11628W        W12492   6.618  19.342  26.991  0.0218  0.1693  0.0959
11629W        W12493  27.777  14.399  27.738 -0.2421  0.3513  0.0415
11630W        W12494  15.596   6.817  13.671 -0.1402  0.1447  0.3565
11631W        W12495  10.769  24.622  20.678 -0.1591 -0.0318  0.1460
11632W        W12496  18.254   5.699  16.627 -0.0010  0.2001 -0.0244
11633W        W12497  19.189  10.753  22.696  0.1832 -0.1822 -0.0736
11634W        W12498   6.702   1.114  23.016 -0.0719 -0.2729  0.3104
11635W        W12499  12.100   4.140  15.424  0.1495 -0.1764  0.2837
11636W        W12500  18.772  14.668  13.121 -0.0267 -0.1085 -0.3437
11637W        W12501  16.444  18.467  26.300  0.1723 -0.2532 -0.1043
11638W        W12502  16.839   2.120  19.520  0.1969  0.0965 -0.0329
11639W        W12503   7.733   1.399   8.611 -0.0110 -0.2386  0.2121
11640W        W12504  13.622  22.826  17.284 -0.0859 -0.1604  0.2849
11641W        W12505   0.645  12.340  24.731  0.0319 -0.1312 -0.1311
11642W        W12506  27.506  23.325  11.352  0.2510  0.1808 -0.0799
11643W        W12507  14.750   5.097  25.758 -0.1205  0.2645 -0.2378
11644W        W12508  27.148  10.276   5.802 -0.3798  0.0225  0.0885
11645W        W12509  10.276   9.389  14.505 -0.0996 -0.1239 -0.0919
11646W        W12510  28.444  20.316  22.787  0.4808  0.1951  0.1230
11647W        W12511  24.412  21.786  21.421 -0.3223 -0.0759  0.3405
11648W        W12512  14.817  23.610   7.733 -0.2164  0.1832 -0.2070
11649W        W12513   4.739  17.374  22.744 -0.0892  0.0007 -0.1151
11650W        W12514  12.006  12.963   6.041  0.0860  0.0775  0.0681
11651W        W12515  24.328  20.677   0.013  0.1277 -0.1189 -0.0442
11652W        W12516  19.332   3.357  27.403  0.2665  0.1732 -0.2739
11653W        W12517  15.352   6.770  13.072  0.0910  0.1241 -0.0919
11654W        W12518  14.512   3.934  18.499  0.3370 -0.1589 -0.2108
11655W        W12519  15.920  17.288  26.777 -0.2078  0.0568  0.1444
11656W        W12520   9.606  23.006  12.185  0.1209 -0.0991  0.2058
11657W        W12521  11.730   5.302  16.637 -0.0441  0.1280  0.1361
11658W        W12522   6.832  21.090  26.685 -0.0800  0.2153  0.2199
11659W        W12523  18.912  24.366  10.761 -0.0483  0.0776  0.1094
11660W        W12524  20.011  21.853  17.382  0.0799 -0.4394  0.1075
11661W        W12525   6.743   0.677  17.828 -0.2414 -0.1912 -0.0297
11662W        W12526  11.946   4.569  13.671  0.2489  0.3634 -0.0319
11663W        W12527   0.837  20.685  17.676  0.0695 -0.2111  0.3141
11664W        W12528  26.112  28.646  22.212 -0.1403 -0.2347 -0.0886
11665W        W12529  18.309  21.190  23.120 -0.1853 -0.0685 -0.0960
11666W        W12530  13.510   7.055  26.219  0.4502 -0.2792  0.4180
11667W        W12531  21.812  19.350   4.190  0.0278 -0.1290 -0.1793
11668W        W12532   8.714  14.898  16.799 -0.1160  0.1327  0.3686
11669W        W12533  16.727   8.201   3.619 -0.1280  0.2313 -0.2554
11670W        W12534  15.747  14.738   2.112  0.2109 -0.2773  0.0604
11671W        W12535  27.537  12.046  22.146  0.0407 -0.1785  0.0219
11672W        W12536  20.181   2.477  13.982 -0.1572  0.0695 -0.1169
11673W        W12537  15.246  10.967  27.450 -0.0540 -0.1558  0.0370
11674W        W12538  21.938  18.466  25.229 -0.2281  0.0220 -0.1191
11675W        W12539  10.179  17.021   7.863 -0.0521 -0.0959 -0.0618
11676W        W12540  16.236  19.388  23.818  0.1146 -0.0819  0.2378
11677W        W12541   4.080   3.016   4.367 -0.1484  0.1756  0.0850
11678W        W12542  25.689  24.043  26.775 -0.2028 -0.3541  0.0936
11679W        W12543  12.887  14.804  13.439  0.1411  0.2961  0.1463
11680W        W12544  23.928   0.821  12.780 -0.0593 -0.1452 -0.0928
11681W        W12545  16.112   7.295  23.960 -0.0807 -0.2416  0.2035
11682W        W12546  19.135  23.905   9.125  0.1882  0.1064 -0.2176
11683W        W12547   1.125  12.651   0.161 -0.0321 -0.0448  0.0277
11684W        W12548  12.576   2.888  11.594  0.1148 -0.2091  0.1382
11685W        W12549   1.981   5.285  16.555 -0.0294 -0.1171 -0.2195
11686W        W12550  12.966  21.069   0.192  0.2130  0.3083 -0.0222
11687W        W12551  15.404  13.436  10.872  0.0960  0.0615  0.3141
11688W        W12552  25.428   8.235  24.523 -0.1830 -0.1908  0.1593
11689W        W12553  28.944   2.286   9.595  0.2297  0.0053  0.1407
11690W        W12554   4.016   5.949  29.051  0.0226 -0.1374 -0.1987
11691W        W12555   0.547  19.191   2.645  0.0833 -0.1239 -0.1891
11692W        W12556   2.308  25.561  21.345  0.0604  0.1437 -0.0241
11693W        W12557  12.739  18.549  16.576 -0.0067 -0.0980 -0.0659
11694W        W12558  16.378  10.366  23.287  0.2760 -0.2201 -0.0749
11695W        W12559  23.246  23.983  19.648  0.0970  0.0024 -0.2187
11696W        W12560  14.195  18.678  20.853  0.0717  0.1580 -0.0239
11697W        W12561   6.450  16.730   7.247  0.1051 -0.0747 -0.1943
11698W        W12562  13.362  18.236   5.343  0.1132 -0.1399 -0.1360
11699W        W12563  21.486  14.613  10.137  0.0298  0.2573 -0.1008
11700W        W12564  26.648   0.826  10.488  0.0081  0.0664 -0.0191
11701W        W12565  18.211  21.970   6.684  0.3882 -0.3422  0.1638
11702W        W12566  10.268   5.246  25.103  0.2469 -0.1730 -0.0261
11703W        W12567   7.862   9.897  24.475  0.0254 -0.1075  0.3672
11704W        W12568  22.993   3.761  21.953 -0.4663  0.1341  0.1604
11705W        W12569   9.227   9.733  23.906  0.0385  0.0044 -0.2586
11706W        W12570  17.623   8.486  20.885  0.1355 -0.3477 -0.1241
11707W        W12571  18.445  11.068   0.080  0.0308 -0.0827  0.2650
11708W        W12572  21.383  22.231  26.703  0.1101 -0.0893  0.0757
11709W        W12573  20.810   4.130  27.195 -0.1766  0.1345 -0.1479
11710W        W12574  10.699  10.327  27.280 -0.0928 -0.2418 -0.1027
11711W        W12575  13.642  16.786  20.606 -0.1063  0.0320 -0.1038
11712W        W12576  23.948  24.210   2.893 -0.1525  0.1685  0.1905
11713W        W12577   1.725  25.383  19.478 -0.0378 -0.0847 -0.0607
11714W        W12578   4.720  28.364  28.276  0.2210 -0.3307  0.1725
11715W        W12579   2.259  17.373  27.371 -0.3271 -0.2736 -0.4097
11716W        W12580  17.920   6.882  21.149  0.1012 -0.0077  0.1263
11717W        W12581   4.993  19.211   8.819  0.1819  0.2813  0.2520
11718W        W12582  19.965   7.394  12.409 -0.0209  0.3983  0.0053
11719W        W12583  16.653   6.608  26.072  0.2279  0.0698  0.0820
11720W        W12584   4.936   3.706  21.487  0.0419  0.1398  0.2030
11721W        W12585   2.834   9.504  17.152  0.0217  0.0898  0.2014
11722W        W12586  11.710   9.203  15.449 -0.1318 -0.1260  0.1938
11723W        W12587   3.398  14.220  14.316  0.0959 -0.1597 -0.0914
11724W        W12588  27.212  10.908  27.518 -0.1106 -0.0611 -0.0461
11725W        W12589  16.804  21.567  15.141  0.3807  0.2184 -0.1300
11726W        W12590   2.406   3.933   4.508  0.0824  0.1838  0.1344
11727W        W12591  15.384  27.623  26.555  0.0155 -0.1493  0.1518
11728W        W12592  22.165  23.786  15.164 -0.2176  0.0908  0.0600
11729W        W12593  12.419   9.114  21.412  0.1246 -0.1128  0.0759
11730W        W12594  14.898  11.166  21.752 -0.0470  0.0281  0.0621
11731W        W12595  20.128  13.836   4.673 -0.0393  0.0123 -0.3378
11732W        W12596  20.079  25.212  11.339 -0.1599 -0.1248  0.1971
11733W        W12597  10.441   0.541   8.985  0.0576  0.0916 -0.0360
11734W        W12598  12.289   2.745  19.695  0.0645 -0.4244  0.1372
11735W        W12599   4.323  17.796   2.187  0.3675  0.3586  0.2700
11736W        W12600  23.926   8.805  25.735 -0.1363 -0.0332  0.0113
11737W        W12601  22.583  10.077  18.370  0.0744  0.1016  0.0750
11738W        W12602   7.033   9.844  15.407 -0.2174  0.3110  0.0639
11739W        W12603  14.221  12.421  14.363 -0.6097  0.1056  0.3110
11740W        W12604  12.275   8.677  11.197 -0.1195  0.1000  0.1278
11741W        W12605   2.934  13.659  24.255 -0.0311 -0.1246 -0.2495
11742W        W12606  14.519   1.423  10.671 -0.1466 -0.0194 -0.0861
11743W        W12607   3.135  16.028   9.140  0.1930  0.0018  0.3140
11744W        W12608  17.960   3.383  21.708 -0.1432 -0.0225  0.1168
11745W        W12609   3.536  15.673   7.289  0.1523 -0.0355  0.3587
11746W        W12610  23.615  17.127   5.247  0.0216 -0.1241 -0.1293
11747W        W12611  24.740  11.052   8.682  0.0481  0.0009  0.3332
11748W        W12612   8.895   2.722  22.732  0.2031 -0.1307 -0.1892
11749W        W12613  11.246   8.552  14.039 -0.1857 -0.0424  0.2594
11750W        W12614   5.640   8.426  22.963 -0.1857 -0.0298 -0.0165
11751W        W12615   9.115   3.135   3.212  0.2917 -0.4555  0.4415
11752W        W12616  25.618   6.413  25.308  0.2127  0.0083  0.1780
11753W        W12617   7.179  11.161  13.121  0.0670 -0.3046 -0.3208
11754W        W12618  17.114   1.530  23.861 -0.2070  0.1113  0.3271
11755W        W12619  21.430  10.734  12.626 -0.1181 -0.4271 -0.1016
11756W        W12620   3.402  20.853  21.452 -0.2631  0.0109 -0.2482
11757W        W12621  22.099   1.889   1.532 -0.1060 -0.1693 -0.1001
11758W        W12622   4.485   8.567  27.216  0.5474 -0.1898 -0.0010
11759W        W12623   5.699  13.024  16.862 -0.0891 -0.0244 -0.3066
11760W        W12624  18.617   4.845  25.055  0.5570  0.1620  0.1940
11761W        W12625  21.098   6.668   5.249  0.1625 -0.1302 -0.0850
11762W        W12626  16.901   5.703   3.546 -0.2007  0.0204 -0.3079
11763W        W12627  18.953  21.676  19.485 -0.0870 -0.0467 -0.0908
11764W        W12628  19.010   0.677  26.938  0.1320 -0.4337  0.2066
11765W        W12629   8.896  21.499   0.959  0.0651  0.0288  0.0176
11766W        W12630   2.143  22.204  23.566 -0.0913 -0.0061  0.0651
11767W        W12631   3.907  20.837  22.780  0.3460 -0.0103  0.0074
11768W        W12632  17.825  24.033  24.496  0.1286 -0.0573 -0.2859
11769W        W12633  13.181   9.560  17.597  0.1182 -0.2696 -0.3450
11770W        W12634  21.312  14.337  28.109 -0.3842 -0.0059 -0.0188
11771W        W12635  21.084   7.938   8.792 -0.2091  0.2185  0.0422
11772W        W12636  17.655   4.067   3.222 -0.0380 -0.1329  0.2545
11773W        W12637   5.657   8.929   0.662 -0.1489 -0.1455  0.2068
11774W        W12638   9.608   8.176  25.543  0.0080  0.2352 -0.0468
11775W        W12639  21.490  23.317   9.707  0.0203 -0.1078  0.0766
11776W        W12640  13.846   5.248   4.550 -0.0448  0.0645  0.2130
11777W        W12641   5.560  13.370  10.123  0.1292 -0.0256  0.1468
11778W        W12642  27.978  14.616  16.771 -0.0477  0.1230  0.1616
11779W        W12643   8.227  14.396   1.819 -0.3984  0.0034 -0.0799
11780W        W12644   5.834  25.334  27.998  0.1323  0.3240  0.3261
11781W        W12645  21.414   7.089  26.691 -0.1151  0.0352  0.3018
11782W        W12646   7.319   4.265   0.543 -0.0652  0.4122 -0.0025
11783W        W12647  25.672  18.103  21.975  0.1744  0.2098  0.1814
11784W        W12648   9.110  23.025   2.388 -0.2006 -0.0457 -0.2794
11785W        W12649  27.495   2.951  20.466 -0.2550 -0.2134  0.0801
11786W        W12650  12.001   4.422  19.353 -0.2024 -0.1479 -0.2043
11787W        W12651  25.151   9.953  13.397  0.0293  0.2447  0.3918
11788W        W12652   0.594  11.159  20.003 -0.0176  0.1554 -0.1702
11789W        W12653  15.108  21.050   7.241 -0.1460  0.0093  0.0260
11790W        W12654  27.867  23.179   6.900  0.2413 -0.0803  0.2448
11791W        W12655   5.711  16.140  15.127 -0.1505 -0.0458  0.1081
11792W        W12656  26.613   6.403  26.086  0.0431  0.1013  0.3226
11793W        W12657  13.146  27.639  11.914  0.1569 -0.1090  0.2088
11794W        W12658  17.919  23.494   1.399 -0.1600 -0.0376 -0.2469
11795W        W12659  12.238   2.749   5.849 -0.1434  0.0671 -0.1502
11796W        W12660  20.646   9.962  28.006 -0.0332  0.1178  0.1217
11797W        W12661   0.359  18.379  28.222  0.0684  0.0464  0.1645
11798W        W12662  19.668   9.919  14.170  0.2059  0.1026  0.0387
11799W        W12663  18.861  26.217   2.205  0.1430 -0.0841  0.1845
11800W        W12664  11.157  17.578  24.443  0.0462 -0.1924 -0.2020
11801W        W12665  23.126  15.298  18.731 -0.0959  0.0758 -0.3008
11802W        W12666   8.308   9.979  12.638 -0.0705  0.2056  0.1288
11803W        W12667   1.949  23.598  24.723  0.2547 -0.2277  0.0775
11804W        W12668  14.903  29.025  10.334  0.1852  0.1096  0.4037
11805W        W12669   2.297  18.145   0.796  0.0299 -0.0392  0.0878
11806W        W12670   5.916   4.675   3.992 -0.4592 -0.2974  0.1441
11807W        W12671  14.022  10.575   5.713 -0.0326 -0.1168 -0.1731
11808W        W12672  25.916  25.746   2.331 -0.2384 -0.0319  0.3000
11809W        W12673  16.593   8.653  13.852  0.1670 -0.0483  0.1076
11810W        W12674  21.325  24.235   5.701 -0.1459 -0.3677 -0.1766
11811W        W12675  16.043   7.425  17.238 -0.0577 -0.0456 -0.0019
11812W        W12676  25.241  23.276   0.539 -0.0060  0.0121 -0.1601
11813W        W12677  20.920   2.632  10.247 -0.3930  0.4832  0.3191
11814W        W12678  20.374  28.959   9.073  0.1349  0.2793 -0.1235
11815W        W12679  16.210  26.725   1.888  0.2594 -0.1980  0.1031
11816W        W12680  22.001  16.785   3.695  0.0568 -0.1439  0.1840
11817W        W12681   8.522   4.264  14.758 -0.1984  0.4817  0.1824
11818W        W12682  12.804   6.676  23.655 -0.1612 -0.0411 -0.1464
11819W        W12683  23.273  25.356  14.823  0.0692 -0.1953  0.0699
11820W        W12684  17.572  25.595  17.053 -0.0587 -0.1798 -0.0194
11821W        W12685  23.750   0.677   3.716  0.0878 -0.0547  0.1165
11822W        W12686  21.990   1.467  16.132 -0.0604  0.0922 -0.0013
11823W        W12687  14.700  24.836  15.436 -0.3987  0.3423 -0.1389
11824W        W12688  28.216  19.412  23.404  0.0866  0.2828 -0.0755
11825W        W12689  22.954  10.060  20.731 -0.3293 -0.0299  0.0225
11826W        W12690  20.657  22.748   0.678  0.1087 -0.1605  0.4759
11827W        W12691   5.544   4.114  22.249  0.2173  0.5737 -0.3694
11828W        W12692   1.744  22.170  27.753  0.1796  0.0524 -0.0647
11829W        W12693  17.773  22.443  12.244  0.1466  0.1130  0.1366
11830W        W12694  23.489   2.626  21.886 -0.1758  0.2375 -0.0889
11831W        W12695   2.111   3.388  20.113  0.0304  0.0366 -0.0154
11832W        W12696  17.761  28.223   7.659  0.2188 -0.3186  0.0914
11833W        W12697  19.505   5.326  17.630  0.0217 -0.1212 -0.1424
11834W        W12698  23.455   4.556   5.527  0.0824 -0.0937  0.1513
11835W        W12699  11.708   6.696  15.800 -0.1638 -0.0105 -0.2020
11836W        W12700   9.851  26.839  17.664 -0.0865 -0.2385  0.0234
11837W        W12701   0.219   6.849  26.620  0.0638  0.0043 -0.0549
11838W        W12702  17.171  12.091  20.788  0.1058  0.2652  0.2993
11839W        W12703   6.568  28.066   5.078 -0.0051 -0.0615 -0.1641
11840W        W12704   7.810  18.998   1.429  0.1420  0.1847  0.2587
11841W        W12705   9.088  21.781   6.124  0.0335 -0.2379 -0.2703
11842W        W12706  21.299  10.664  11.674  0.3327  0.0026  0.6125
11843W        W12707  15.473   4.258  22.836  0.2696 -0.0738  0.1355
11844W        W12708   4.828  20.568  14.968  0.3166  0.0398  0.0987
11845W        W12709  21.914  17.834  23.874  0.0013  0.1042 -0.0416
11846W        W12710  12.086  25.384   9.056  0.1938  0.0178  0.2795
11847W        W12711  17.820   9.747  22.022 -0.1736 -0.1616 -0.0922
11848W        W12712  23.997  24.814  26.024  0.3515  0.1964  0.0781
11849W        W12713   1.557  22.829   1.408  0.0709 -0.0160 -0.1553
11850W        W12714  28.004   2.135  22.705 -0.0127  0.1017 -0.1550
11851W        W12715  22.832   7.739  23.945  0.3359 -0.1921 -0.1380
11852W        W12716  17.832  22.117  16.595  0.0138 -0.2337 -0.2707
11853W        W12717   2.470  13.950  10.641 -0.0715 -0.1106 -0.0425
11854W        W12718  23.321  15.181  26.703  0.2386 -0.1077  0.2333
11855W        W12719  13.978   5.935  19.800  0.1257 -0.0220 -0.1524
11856W        W12720   5.394   8.941   1.998 -0.1193  0.2367 -0.0571
11857W        W12721  26.446  10.007  22.305 -0.0607 -0.0851 -0.2727
11858W        W12722  18.557  23.650   3.641  0.0393 -0.1476 -0.0749
11859W        W12723  13.535   7.638  26.847  0.1304  0.3215 -0.1556
11860W        W12724  14.080  13.607  20.802  0.1861 -0.1207  0.3390
11861W        W12725  18.714  11.359   6.776 -0.2761  0.0011  0.2150
11862W        W12726  15.902  23.994  23.778 -0.3420  0.2105 -0.0835
11863W        W12727  19.079  24.449   7.940  0.0104 -0.1150 -0.1964
11864W        W12728   6.371  21.007  20.321  0.0211 -0.0099 -0.0728
11865W        W12729  17.821   2.757  25.373 -0.0430 -0.2434  0.1757
11866W        W12730  19.572  12.964  22.958  0.0799  0.0206  0.0200
11867W        W12731  25.011  27.210   2.066 -0.1378 -0.1305 -0.0850
11868W        W12732  11.676   8.061  24.210  0.0868  0.1762  0.1846
11869W        W12733  21.790  18.286   0.451  0.0284  0.0185  0.0010
11870W        W12734  16.555  16.517  15.754 -0.1423  0.1272 -0.0233
11871W        W12735  18.814  11.974  26.607 -0.0323  0.1413  0.1046
11872W        W12736  21.797   7.288  25.448  0.2396  0.1329  0.3106
11873W        W12737   1.927   0.840   9.816 -0.2350 -0.0798  0.2520
11874W        W12738   6.903   6.315  27.424  0.3091 -0.0602  0.0754
11875W        W12739  19.671  14.562  13.218 -0.0859 -0.0082 -0.0232
11876W        W12740  20.674  19.474  19.372  0.0974  0.3520 -0.0159
11877W        W12741  27.201  12.738  21.835  0.0754 -0.2826  0.1784
11878W        W12742  24.226  12.428   6.038  0.0663 -0.1201 -0.0695
11879W        W12743  13.608   6.078  22.301  0.0227 -0.0837 -0.0135
11880W        W12744   5.885   5.957   6.039 -0.1933  0.2827  0.0238
11881W        W12745   9.172   9.922   9.351  0.3348  0.1991 -0.1391
11882W        W12746  19.422   6.336  19.737 -0.0715  0.2085  0.1671
11883W        W12747  11.319   5.875   8.654  0.3188 -0.0676  0.1105
11884W        W12748  18.366  14.991   9.231  0.2222 -0.3468  0.1873
11885W        W12749  10.783  28.779   8.912 -0.0500  0.1122 -0.0241
11886W        W12750  18.908   4.393   0.008 -0.0932  0.2188 -0.0925
11887W        W12751  22.299  23.060  21.869 -0.0996  0.2100 -0.0856
11888W        W12752   3.352  19.533  27.625 -0.2540  0.1552 -0.2794
11889W        W12753  11.826  19.383   0.567  0.3248  0.0920  0.0179
11890W        W12754   8.511  24.215  10.972  0.0860 -0.0658 -0.0633
11891W        W12755  18.462  25.951   1.015 -0.1870 -0.0898 -0.0094
11892W        W12756   4.802   8.650  14.815  0.0793  0.0095  0.0853
11893W        W12757  16.239   7.265   0.800  0.0889  0.3879 -0.1183
11894W        W12758  22.648  11.572  21.019 -0.1913  0.0659  0.2053
11895W        W12759   7.697  13.400  17.686  0.2749  0.1162  0.2547
11896W        W12760  10.966   4.589  14.802  0.1835  0.3647  0.1501
11897W        W12761  20.662  28.549  27.595  0.0521  0.0835 -0.0872
11898W        W12762  13.431  21.461  20.829  0.0271 -0.1375 -0.4033
11899W        W12763   9.017   6.848   4.358  0.1494  0.2564 -0.0697
11900W        W12764  12.566   4.492  27.478  0.4951  0.0099  0.4045
11901W        W12765  18.549  12.479   2.827  0.2355 -0.2029 -0.1536
11902W        W12766  25.120   6.020   1.875  0.0231  0.0018 -0.0910
11903W        W12767  18.364  16.423  24.163  0.5588  0.0114  0.0500
11904W        W12768   2.792  14.099  28.640  0.0261  0.0201 -0.0089
11905W        W12769   2.497   2.634   1.719  0.3734 -0.0711  0.1773
11906W        W12770  16.685  14.970  10.233  0.0257  0.0834 -0.0589
11907W        W12771  19.122  10.741  13.279  0.0141 -0.0409 -0.0576
11908W        W12772  28.584  14.960  25.250  0.2172  0.1652  0.1956
11909W        W12773  26.537   5.627  23.363  0.2539 -0.0401  0.2529
11910W        W12774  15.281  14.105  27.426 -0.3431 -0.1845  0.0746
11911W        W12775  12.973  14.048   6.577 -0.2034 -0.0494  0.0405
11912W        W12776  22.469   8.468  27.057 -0.0044  0.0761 -0.0897
11913W        W12777  14.347  19.059  25.107 -0.1133 -0.1047 -0.1423
11914W        W12778  28.917   9.953  27.183  0.1082 -0.2432  0.0656
11915W        W12779  26.951  11.090  28.630  0.1659  0.1752  0.1033
11916W        W12780  23.448   8.089  11.680  0.3870  0.2441 -0.0712
11917W        W12781  28.379  25.627   0.981 -0.0426  0.0536  0.3320
11918W        W12782   5.930  25.351  18.743  0.1369  0.0070  0.2165
11919W        W12783   6.812   5.942   6.725 -0.3004 -0.0212  0.3231
11920W        W12784  10.019  14.451   1.651 -0.0721 -0.2173 -0.0583
11921W        W12785  10.166  26.951  25.158 -0.0524  0.0596  0.1200
11922W        W12786   4.963  13.183  25.199 -0.2948  0.0262 -0.1815
11923W        W12787  22.197  17.592  15.133 -0.3374 -0.0252 -0.1728
11924W        W12788  13.609  22.510  28.519  0.2519  0.2212 -0.3452
11925W        W12789  27.173  10.851   1.621 -0.2278  0.1703 -0.0706
11926W        W12790   1.334   7.935  24.288  0.0814  0.1581  0.0041
11927W        W12791  26.996   2.386  13.191  0.0964 -0.0514  0.1739
11928W        W12792  24.296  20.454   6.740  0.0637 -0.0740 -0.3711
11929W        W12793   9.628  16.814  15.411  0.0753  0.0782 -0.0657
11930W        W12794  19.683  15.196   8.760 -0.0724  0.1339 -0.1454
11931W        W12795  12.592   9.521  18.350  0.1100 -0.1246  0.1139
11932W        W12796   7.202  13.262   5.462 -0.0883 -0.2124  0.0250
11933W        W12797  27.690   8.795   5.152 -0.2767  0.3541  0.1344
11934W        W12798  26.763   4.908   2.785  0.2338 -0.3912  0.1966
11935W        W12799  11.214  10.063   5.565 -0.0168  0.2190  0.0073
11936W        W12800  13.428   6.221  18.527  0.0851 -0.3094 -0.3883
11937W        W12801   3.391  25.649   1.053 -0.1033 -0.0171 -0.0343
11938W        W12802  17.208   5.667   2.606  0.0355 -0.3335  0.0385
11939W        W12803  12.629  14.970   8.115  0.0134  0.0179 -0.0924
11940W        W12804  17.788   0.377  17.666  0.0975 -0.1243  0.3245
11941W        W12805  23.308  14.976   0.309 -0.0074  0.1699 -0.0248
11942W        W12806  13.407  21.710  27.290 -0.0282  0.1564  0.1487
11943W        W12807  13.504  25.610  26.857 -0.0881  0.1101 -0.1470
11944W        W12808  16.440  11.712  13.275 -0.2135 -0.0060 -0.0269
11945W        W12809   8.071   8.625  24.226  0.0262  0.3627 -0.0723
11946W        W12810  12.935  19.137  11.330 -0.1556 -0.0875 -0.2769
11947W        W12811   9.837  12.470  20.602  0.1850 -0.3252  0.1910
11948W        W12812  16.611  13.645  19.166  0.0532  0.3083 -0.0459
11949W        W12813  15.048  24.407   2.091 -0.1512 -0.3765 -0.1658
11950W        W12814  19.299  29.116  10.969 -0.2165 -0.4533  0.1676
11951W        W12815   1.035  22.634   0.776 -0.1739  0.0691 -0.1364
11952W        W12816  17.957  14.190   5.851 -0.0251  0.0106 -0.1150
11953W        W12817  10.578  17.521   6.460 -0.0510 -0.2044 -0.1062
11954W        W12818   1.814   8.485   2.719 -0.0486 -0.2246  0.0838
11955W        W12819   7.158  19.779  15.826  0.1747  0.2650 -0.3993
11956W        W12820   6.393   6.869  22.493 -0.0823  0.1515  0.0213
11957W        W12821  20.838  20.695  28.018 -0.0914  0.2657  0.0165
11958W        W12822  22.060   2.731  23.177  0.1535 -0.0025  0.1079
11959W        W12823  15.491  14.265   8.107 -0.2559  0.0667 -0.0568
11960W        W12824  21.151  16.709   4.663  0.1438  0.2578 -0.1200
11961W        W12825  14.741   2.006  17.970  0.0408  0.0633  0.3437
11962W        W12826  17.300  22.017  28.058  0.1741  0.3349  0.1003
11963W        W12827  17.095  16.919   7.817  0.0501 -0.2013  0.2221
11964W        W12828  18.189  16.961   9.826 -0.1488 -0.0703  0.1132
11965W        W12829   9.242   2.331   8.368 -0.0442  0.0662  0.4156
11966W        W12830  20.600   3.080   0.936  0.1730 -0.0930 -0.2928
11967W        W12831  10.458   9.394   5.950 -0.0875  0.2470 -0.0934
11968W        W12832  19.526  10.086   6.403 -0.1621 -0.1063  0.0595
11969W        W12833  17.453  23.462   4.415  0.0130  0.0944  0.0012
11970W        W12834  21.459  15.368  22.370 -0.0487  0.0761  0.5079
11971W        W12835  22.175  19.022   0.752 -0.0276 -0.2728 -0.2668
11972W        W12836   6.887  13.906  24.230 -0.4025  0.1879 -0.0488
11973W        W12837  28.734  20.223   5.649 -0.3374  0.1667 -0.0798
11974W        W12838   2.623   3.060  24.210 -0.0610 -0.4262  0.1134
11975W        W12839  11.376  23.352  18.685 -0.2009  0.2564  0.0416
11976W        W12840   0.102  10.893  23.127  0.0580  0.2025  0.2453
11977W        W12841  24.212   5.895   1.522 -0.1476  0.2200  0.0334
11978W        W12842   9.284  28.454  27.238  0.1021 -0.0141 -0.2131
11979W        W12843  19.594  21.657   9.869  0.2186 -0.1713 -0.1075
11980W        W12844   7.206  16.009  25.113  0.2230  0.0840  0.1585
11981W        W12845  23.849  18.104   7.206 -0.0558 -0.0073  0.0528
11982W        W12846  15.972  12.830  19.512  0.1037 -0.2893 -0.1588
11983W        W12847  22.694   6.272  22.598 -0.1376 -0.1442  0.1244
11984W        W12848  19.307   8.534   2.639  0.2278  0.2978  0.1035
11985W        W12849   3.415   3.383   3.761  0.2434 -0.0693  0.0484
11986W        W12850  27.022   4.310   2.955 -0.0282 -0.0705  0.3343
11987W        W12851   6.597  23.194   6.341  0.2009 -0.1157  0.1819
11988W        W12852  16.529   5.945  25.173  0.0062  0.3238 -0.0867
11989W        W12853  13.791   6.796  22.984  0.2864 -0.2056 -0.0290
11990W        W12854   2.256  13.751   5.542 -0.0121 -0.1880 -0.0478
11991W        W12855   7.272  28.528  22.979  0.1441  0.3077 -0.1512
11992W        W12856   3.614   8.130  12.183  0.1257 -0.0777  0.0439
11993W        W12857  16.496  13.615   3.235  0.0223  0.1571  0.1273
11994W        W12858  26.776  24.636  21.606 -0.1760  0.1908 -0.2794
11995W        W12859  26.467   5.105  19.275  0.2548 -0.1131  0.0160
11996W        W12860  18.690   9.036   9.229 -0.0600  0.1358 -0.0506
11997W        W12861  26.446  12.576   4.502 -0.0049 -0.1504 -0.0258
11998W        W12862  12.026   5.719  18.978 -0.2015 -0.2536  0.0817
11999W        W12863  20.694  14.728  20.778  0.0564  0.0494 -0.1534
12000W        W12864   9.245  28.981  24.507  0.2007  0.1931 -0.1377
12001W        W12865  15.361  11.478   2.503  0.0818 -0.3116  0.0822
12002W        W12866  19.168  13.609  26.704  0.0860 -0.0685 -0.2100
12003W        W12867  20.238   4.592   8.764 -0.2240 -0.1144  0.3150
12004W        W12868   6.745  16.768  16.709  0.2228  0.1681  0.0949
12005W        W12869  19.978  28.504  23.089 -0.2383 -0.1729 -0.0591
12006W        W12870  16.945  15.949   8.909 -0.2183  0.1052  0.0211
12007W        W12871  25.050   0.194  23.949  0.0344 -0.0704 -0.1486
12008W        W12872  22.761   6.029  15.255 -0.0321 -0.2150 -0.0552
12009W        W12873  23.695   5.906   4.405  0.4184  0.1139  0.2319
12010W        W12874  15.154   1.552   5.145 -0.0751  0.0886  0.1455
12011W        W12875  14.931   4.548  11.234  0.2086  0.2032  0.1776
12012W        W12876  15.609  18.795  10.882 -0.0739 -0.3165 -0.2615
12013W        W12877   2.373  15.335  11.040  0.0952  0.1145 -0.0650
12014W        W12878  27.619   3.858  19.947 -0.0012  0.4045 -0.0226
12015W        W12879  17.594  18.161   6.300  0.0039  0.3042  0.2585
12016W        W12880  17.907  19.953   2.378 -0.2256  0.1186 -0.0595
12017W        W12881  28.374  14.163  22.206  0.1300  0.2233  0.0016
12018W        W12882   4.385   8.903  16.235 -0.0560 -0.0447 -0.0409
12019W        W12883   0.043  15.425  11.705  0.6567 -0.1781  0.1497
12020W        W12884  26.527   9.296  17.023 -0.0543  0.0151 -0.0698
12021W        W12885  10.465   0.416  19.823  0.0681  0.1992 -0.2756
12022W        W12886   5.094  13.429   1.214  0.1362  0.0298 -0.1844
12023W        W12887  26.001  26.659   6.713 -0.0238  0.1996  0.1981
12024W        W12888  16.716  26.937  21.934  0.1127  0.0592 -0.0149
12025W        W12889  22.970  14.474  13.260  0.0574 -0.3642 -0.0661
12026W        W12890  24.339  11.827   1.404 -0.0806 -0.0599 -0.2604
12027W        W12891  19.167   1.259  23.158 -0.1415 -0.2098  0.3238
12028W        W12892  16.456   8.481  28.022 -0.0099  0.0750 -0.2103
12029W        W12893  20.492  25.839  27.843  0.0851  0.0019 -0.0266
12030W        W12894  15.935  24.283  27.166  0.1888  0.1689 -0.2968
12031W        W12895  23.872  20.034  24.312  0.2578  0.0884  0.3928
12032W        W12896  20.727  28.827   9.551  0.1757  0.2507  0.1176
12033W        W12897  16.165  11.730  17.619  0.1231  0.2826 -0.0638
12034W        W12898  19.736  11.301  23.049 -0.2396 -0.0566 -0.1049
12035W        W12899  27.789  15.639  25.742 -0.0254  0.0598  0.0570
12036W        W12900   9.652  26.381  19.427  0.1271 -0.0058  0.0345
12037W        W12901  27.796  12.934  23.179 -0.0714  0.1245  0.2108
12038W        W12902   9.293   0.268   6.828  0.3500  0.1088 -0.0506
12039W        W12903  22.529   5.350  19.438  0.0294 -0.0436  0.1568
12040W        W12904   3.526   8.998  20.858 -0.1910 -0.0938  0.0311
12041W        W12905  16.936  25.235  15.048 -0.1575  0.1844  0.1012
12042W        W12906  26.287   7.268  24.316  0.0313  0.1960  0.0813
12043W        W12907  16.104  12.728  22.506 -0.0650  0.3653 -0.0773
12044W        W12908  20.121  21.868  11.242 -0.1498 -0.1173  0.1603
12045W        W12909  26.195  26.843  12.322  0.2061  0.3883  0.2840
12046W        W12910  21.689  19.783   7.251 -0.0373 -0.1029  0.0670
12047W        W12911  11.914  22.689   2.563 -0.6188  0.1485  0.1363
12048W        W12912  19.586  14.626  22.280  0.0318 -0.0004 -0.1385
12049W        W12913  13.775   1.759  23.179 -0.0795 -0.0265 -0.4874
12050W        W12914  15.750  16.990  15.849 -0.0808 -0.0872  0.0264
12051W        W12915  26.456  16.386   1.439  0.1485 -0.1440 -0.0089
12052W        W12916  25.975  12.438   7.751  0.1726 -0.2109 -0.0182
12053W        W12917  23.268  14.977  23.345 -0.0652  0.1633  0.0776
12054W        W12918   7.667   7.695  19.348 -0.0705 -0.1519  0.1871
12055W        W12919  15.595  17.131  24.736  0.0953  0.1242 -0.0655
12056W        W12920  16.571  15.428   0.137 -0.1612  0.1161 -0.0699
12057W        W12921  10.836   8.791  16.656  0.0727 -0.2853 -0.0047
12058W        W12922  12.153  22.944   8.205 -0.0498  0.0325 -0.0510
12059W        W12923  17.133  23.348   5.371  0.4169  0.0526  0.3002
12060W        W12924   7.012   9.186  27.548 -0.0819 -0.0974 -0.3866
12061W        W12925  28.482  22.311  24.874 -0.0246  0.3765  0.0924
12062W        W12926  20.650  13.480   2.795 -0.0996 -0.1055 -0.2887
12063W        W12927   1.687  10.043  29.078  0.1457  0.1734 -0.3337
12064W        W12928  22.766   0.614   6.356 -0.1569 -0.2120  0.2812
12065W        W12929   7.945   1.761   2.690  0.1131  0.2233  0.4194
12066W        W12930  22.202   5.697  22.851 -0.2166  0.0328  0.2598
12067W        W12931  25.243  25.246  16.458 -0.1966 -0.0893  0.0105
12068W        W12932  20.547   0.671   6.632  0.1056  0.1940 -0.0349
12069W        W12933  26.323   5.105  24.323 -0.1907 -0.1573 -0.0093
12070W        W12934   6.961  10.502   7.645  0.2307 -0.0859 -0.3230
12071W        W12935   1.965  18.382   4.688 -0.2649 -0.1549  0.0004
12072W        W12936  16.038  20.777  11.669 -0.1573  0.1468  0.1966
12073W        W12937  10.249   6.391  12.583  0.2289  0.0959 -0.1733
12074W        W12938  14.629  13.775  26.843 -0.2543 -0.2149 -0.1751
12075W        W12939  11.463   7.047  26.614  0.3137 -0.1759  0.2629
12076W        W12940  17.569   6.104   2.610  0.1987 -0.1287  0.1037
12077W        W12941  19.913  14.396   6.885  0.1013  0.1301 -0.0935
12078W        W12942  18.109   0.948  12.033  0.3443  0.0812 -0.0618
12079W        W12943   4.387  12.246  19.586 -0.3128 -0.2898 -0.0835
12080W        W12944  21.333   0.517   0.024  0.0911 -0.1284  0.0117
12081W        W12945  10.865  25.314   7.724 -0.0060 -0.0738  0.1029
12082W        W12946  23.915  11.214  28.313 -0.1485 -0.2685  0.0871
12083W        W12947  28.382   5.057  20.156 -0.0542  0.1368  0.0350
12084W        W12948  19.718   5.265  15.781  0.1565 -0.2527 -0.0088
12085W        W12949  12.728   4.469   8.997 -0.1367 -0.2492 -0.0729
12086W        W12950  20.224  26.697  24.432  0.0226 -0.0292  0.1108
12087W        W12951   7.316   3.639   8.122  0.0226  0.3675 -0.0674
12088W        W12952  27.736   1.214  17.395  0.2066  0.1878 -0.1917
12089W        W12953   1.952   0.427  26.574 -0.0144 -0.0337  0.2533
12090W        W12954  24.339   2.551  28.448 -0.0208 -0.0975  0.2025
12091W        W12955  14.190  10.032   0.719  0.0429  0.1433  0.0164
12092W        W12956  15.127   2.382   7.060 -0.0916  0.2205 -0.0013
12093W        W12957  15.643  23.412   0.512  0.0491 -0.1162  0.1588
12094W        W12958  14.656  10.412   4.895 -0.0873  0.0086 -0.0978
12095W        W12959   8.834   8.953  19.754 -0.0736  0.0320 -0.1261
12096W        W12960   1.719   5.443   2.686 -0.2697 -0.2352  0.0469
12097W        W12961  17.645   8.259  22.066 -0.0327 -0.2252 -0.0626
12098W        W12962   0.923  27.490  20.910 -0.0662 -0.0316 -0.1288
12099W        W12963  26.282  15.834  18.194 -0.1482  0.2852  0.0103
12100W        W12964  19.405  15.045   8.164  0.0010  0.2533 -0.1711
12101W        W12965   0.700  15.371   1.339 -0.1651 -0.1981  0.2422
12102W        W12966  14.247  14.506  25.342 -0.1016 -0.2477  0.1135
12103W        W12967  14.985   7.478  10.430  0.1458 -0.0862  0.1960
12104W        W12968  26.951  25.709   2.890 -0.0574  0.0960  0.2770
12105W        W12969  21.775   0.164  26.035 -0.0188 -0.3298 -0.1040
12106W        W12970  17.648   2.810  24.319  0.4363  0.2170 -0.1982
12107W        W12971  26.479  26.938  27.482 -0.1183  0.1629 -0.0458
12108W        W12972  22.610   4.230  25.527  0.0630 -0.2738 -0.0279
12109W        W12973   0.779   9.307   9.661 -0.0442  0.0573  0.0564
12110W        W12974  12.862   3.940  26.813  0.0548 -0.0446  0.1006
12111W        W12975  11.483  19.885  26.105  0.1738 -0.0675  0.2072
12112W        W12976  19.060  26.398   5.404  0.1872 -0.1356  0.3497
12113W        W12977  22.124   7.002  19.138  0.0316  0.0037 -0.2645
12114W        W12978  20.290  28.015   3.358  0.0505  0.0162  0.1943
12115W        W12979  16.276  25.342  20.502 -0.3175 -0.0931  0.1696
12116W        W12980   6.965   0.266   4.554 -0.1861 -0.2453  0.1079
12117W        W12981  14.788  23.305   2.649 -0.0734 -0.0517 -0.0018
12118W        W12982  28.569   7.568   9.856 -0.1746  0.0427  0.2957
12119W        W12983   6.503  19.865   4.793  0.1188 -0.0232  0.4814
12120W        W12984  28.993  28.689  17.120  0.3402  0.2540  0.1353
12121W        W12985  12.828  24.629   0.298 -0.1420 -0.0906  0.1959
12122W        W12986  26.676   9.540   9.582  0.2727  0.1092  0.0221
12123W        W12987  22.390   8.452   6.532  0.0642  0.0415 -0.2592
12124W        W12988   1.748  19.765  28.965 -0.2520  0.0521  0.2733
12125W        W12989  12.175   9.238   4.509  0.2000 -0.3216  0.2104
12126W        W12990   4.775  22.099  13.807  0.1436 -0.5030  0.0838
12127W        W12991   8.773  20.523  23.851 -0.0571 -0.1423 -0.2087
12128W        W12992   6.116   8.184  27.354  0.0467  0.0578  0.0578
12129W        W12993   6.617  20.896   0.012 -0.1738  0.0850  0.3162
12130W        W12994   5.139   9.105  29.064  0.1833 -0.0692 -0.0596
12131W        W12995  16.340  17.643  19.948 -0.0267 -0.1737 -0.0123
12132W        W12996  13.395  19.714  28.911  0.0724  0.1162  0.0345
12133W        W12997  12.628  17.352   8.394  0.0967 -0.2420 -0.2366
12134W        W12998  13.735  14.345  25.308 -0.0986  0.0543 -0.3918
12135W        W12999   4.641   3.082  15.100  0.1700  0.1099 -0.1952
12136W        W13000  28.110  18.087  25.168 -0.0297  0.1745  0.2510
12137W        W13001  21.430  28.706  12.847  0.2072 -0.0552 -0.0191
12138W        W13002  20.334   0.426  18.461 -0.1353 -0.1337 -0.0917
12139W        W13003  24.366  10.019   4.667 -0.1093 -0.1583  0.1175
12140W        W13004  22.399   0.752  13.448 -0.3680 -0.0172 -0.1412
12141W        W13005  15.365  19.166  23.664 -0.1839 -0.2414  0.4865
12142W        W13006   3.567   5.628  18.491 -0.2495  0.0687  0.2821
12143W        W13007  14.237  18.391  26.769  0.1492  0.3102  0.0394
12144W        W13008   7.266  25.420  10.266 -0.1916  0.0999 -0.1569
12145W        W13009  20.401  13.346  26.292 -0.2268 -0.2813 -0.2158
12146W        W13010   4.006   7.656  28.990  0.0297  0.0324 -0.0656
12147W        W13011  27.033  25.542  11.215 -0.1417 -0.0957 -0.2189
12148W        W13012   4.041  28.139   4.895  0.3302 -0.1204 -0.0579
12149W        W13013  17.341   8.573  10.593  0.1632 -0.2842  0.0075
12150W        W13014  26.668  22.473  14.244 -0.0662 -0.1281 -0.2371
12151W        W13015  21.909  13.942  26.790  0.0682 -0.0417  0.0675
12152W        W13016  10.988   7.301  21.277  0.3179  0.1473 -0.2141
12153W        W13017  11.630   5.933   5.030 -0.0004  0.2731  0.0015
12154W        W13018   1.643   2.149  28.377 -0.3848  0.0275  0.0066
12155W        W13019  11.075  20.208  24.901  0.0263  0.2974 -0.2276
12156W        W13020   9.702  26.455  25.893  0.0970 -0.0996  0.2500
12157W        W13021   5.923  20.892  27.719 -0.0015  0.1308  0.0903
12158W        W13022  20.809  21.525  18.438 -0.1618  0.1653 -0.0367
12159W        W13023  12.710  17.069   4.507 -0.2542  0.1130 -0.1104
12160W        W13024  16.491  12.887  25.620 -0.3565  0.2420  0.1906
12161W        W13025  11.283   4.661  26.843 -0.0417  0.0857 -0.1008
12162W        W13026   9.871  22.680  14.747  0.0083  0.3791 -0.0236
12163W        W13027  14.329  22.118  11.854  0.2230  0.0749  0.0729
12164W        W13028  20.631  12.533   3.716  0.0646 -0.1494  0.0946
12165W        W13029   8.529  19.838  10.275 -0.0183  0.0294 -0.0725
12166W        W13030  20.940   0.484  15.022 -0.1621 -0.2158  0.2638
12167W        W13031  18.917  19.111  16.741 -0.0423  0.2669  0.0545
12168W        W13032  15.632   2.653  23.281  0.2177 -0.1552 -0.1565
12169W        W13033   8.667  28.956   6.656 -0.0940 -0.0507 -0.2138
12170W        W13034  17.523   9.300  15.866  0.2728  0.0555  0.1113
12171W        W13035   4.271  13.219   9.227  0.1925 -0.0497 -0.1113
12172W        W13036  25.712  20.570   0.382 -0.0815  0.0537  0.1608
12173W        W13037   4.818  11.376  23.800 -0.0602 -0.1744  0.2580
12174W        W13038   5.447  18.408   2.488 -0.1478  0.1505 -0.2214
12175W        W13039  19.975  11.368   9.856  0.1227  0.0107  0.1213
12176W        W13040  14.771  15.386  20.023  0.1272  0.0367 -0.2217
12177W        W13041  17.464   8.062  24.930 -0.1097 -0.0909 -0.0152
12178W        W13042   4.263   0.883  23.827 -0.0630  0.0737  0.1730
12179W        W13043  18.566  24.383   2.855 -0.0720  0.1390  0.3075
12180W        W13044  21.859  26.871  27.209 -0.0358  0.0347  0.2179
12181W        W13045  20.217  12.280  26.951  0.0527  0.1218  0.0784
12182W        W13046  10.108  23.950  12.210 -0.1526 -0.0995 -0.2506
12183W        W13047  11.312  19.660  14.576  0.1409 -0.1149 -0.1591
12184W        W13048  17.464  18.217   1.560  0.1200 -0.2260 -0.0494
12185W        W13049  23.839  14.983  10.865  0.0742 -0.0892 -0.5428
12186W        W13050  26.419  11.933  19.945  0.2227 -0.0156 -0.2568
12187W        W13051   7.608  17.711  18.838 -0.1767  0.1349 -0.1984
12188W        W13052  18.701  25.694  26.762  0.3851  0.2418 -0.0251
12189W        W13053  23.174  23.739  17.617 -0.2066 -0.1375 -0.2012
12190W        W13054  16.242  14.063   6.287  0.0189 -0.1074  0.0674
12191W        W13055  22.201   4.236   5.736 -0.1256  0.0476 -0.1418
12192W        W13056   2.672  12.333  28.556 -0.0855  0.1757 -0.0812
12193W        W13057  28.794   7.077  26.528 -0.1917 -0.1377  0.2065
12194W        W13058  18.585  16.604  10.507  0.0928 -0.4711  0.1924
12195W        W13059  23.600   7.409   3.748  0.2769  0.0804 -0.2162
12196W        W13060   1.111   9.435   4.959  0.1132  0.0333 -0.1860
12197W        W13061  19.478   0.691  20.536  0.0797  0.0817  0.0216
12198W        W13062   3.473  20.239  20.069 -0.1498 -0.0761 -0.2022
12199W        W13063  22.720  20.661  27.680 -0.0377 -0.2551  0.0301
12200W        W13064   5.789  15.062  27.790  0.1352  0.0039 -0.0127
12201W        W13065  14.998  22.291   9.171  0.1573 -0.0205 -0.0442
12202W        W13066  19.871   1.049  20.865 -0.0032 -0.0262  0.2059
12203W        W13067  17.410   8.939  22.410  0.2493  0.3562 -0.0154
12204W        W13068   4.967  19.870  24.843 -0.1295 -0.2055  0.0431
12205W        W13069  15.418  24.069   0.135 -0.1364  0.0157 -0.2673
12206W        W13070  29.132   2.566  14.505  0.0172  0.2332 -0.3717
12207W        W13071   9.497  19.626  10.074 -0.1306  0.1133  0.0919
12208W        W13072  25.706   2.209  29.113 -0.0506  0.1210 -0.2149
12209W        W13073   9.479  23.081  23.060  0.1148 -0.0595 -0.0561
12210W        W13074  16.811  12.703  12.440  0.0184 -0.0210  0.0566
12211W        W13075  15.096   7.377  28.222 -0.1841  0.0330  0.0252
12212W        W13076   6.403  17.012   0.547 -0.0677  0.1229 -0.3509
12213W        W13077  26.569   5.224  21.105 -0.0648 -0.1745  0.0234
12214W        W13078  14.916  13.988  28.695  0.1054  0.1858 -0.1592
12215W        W13079  24.815   1.440  15.150  0.4619 -0.5004  0.2164
12216W        W13080  24.622  21.800   5.078  0.2304 -0.0356  0.0806
12217W        W13081  21.445  16.672  25.171 -0.1482  0.4881 -0.0592
12218W        W13082  23.519  19.769  21.049  0.1964  0.0913 -0.2682
12219W        W13083   2.980  12.693  10.797  0.0131 -0.4723  0.2874
12220W        W13084  17.885   9.982   1.971 -0.4090 -0.1377 -0.2130
12221W        W13085   8.364   7.598  18.807  0.0610 -0.1669  0.0684
12222W        W13086  15.765  14.173   8.822  0.0395 -0.2909  0.0297
12223W        W13087  13.181  14.497   0.020  0.2108  0.3301  0.1047
12224W        W13088   0.884  20.625  15.238 -0.3342  0.1342  0.1468
12225W        W13089  10.955  12.164   0.269  0.1206 -0.1284 -0.0126
12226W        W13090  23.383   8.974  22.457 -0.0018  0.1266 -0.1602
12227W        W13091  10.838   2.124  27.902 -0.0955  0.0504 -0.0358
12228W        W13092  18.193  19.430  28.411  0.2184  0.0179  0.0750
12229W        W13093  20.318  27.441   5.338  0.1415 -0.0056 -0.3822
12230W        W13094  20.615   6.460   0.727 -0.1285 -0.1115 -0.2660
12231W        W13095   9.024  14.644   6.878 -0.0158  0.1243  0.0357
12232W        W13096  21.355   4.505   5.173  0.1467 -0.1421 -0.3331
12233W        W13097  21.606   5.895  13.046  0.0672 -0.3220 -0.1139
12234W        W13098   7.586  21.175  10.468 -0.1202  0.0105  0.1913
12235W        W13099  16.746  13.390  25.660 -0.1114 -0.1529  0.0806
12236W        W13100  23.264  23.162   9.698 -0.2478 -0.3654 -0.1021
12237W        W13101  25.763   8.806   5.317 -0.0248  0.0710 -0.1689
12238W        W13102  17.123  19.467  18.197  0.2324 -0.0971  0.1248
12239W        W13103   1.644   9.194  21.118  0.4010 -0.0829 -0.0719
12240W        W13104   1.816  14.337  19.398 -0.1070 -0.1886 -0.0859
12241W        W13105  23.545  16.022   2.893  0.0989  0.1818 -0.2738
12242W        W13106   8.302   3.590  24.593  0.1841 -0.4464 -0.2111
12243W        W13107   0.285  29.133  22.149  0.4717  0.0183  0.2254
12244W        W13108  25.332   3.495   5.698 -0.0598  0.1648 -0.0637
12245W        W13109   5.204  11.111  24.146  0.2281  0.0878 -0.0774
12246W        W13110  21.879   9.503   4.475 -0.0175 -0.0407  0.4287
12247W        W13111  14.083   8.836  16.123  0.2351 -0.0967  0.0415
12248W        W13112  23.514  27.782   4.004 -0.0322  0.1135  0.3271
12249W        W13113   6.408  21.824   0.197  0.3673 -0.0950  0.0140
12250W        W13114  10.012  23.866  11.411  0.1327 -0.0291 -0.0282
12251W        W13115  13.187   8.874   3.323  0.1959 -0.3443  0.3972
12252W        W13116  14.024  12.044   3.498 -0.2199 -0.2445  0.0790
12253W        W13117  18.123   5.261   2.819  0.0239 -0.0586  0.1392
12254W        W13118   5.239  24.200   5.827 -0.2628  0.2190  0.0530
12255W        W13119   9.682  13.594  16.408  0.0468  0.1398  0.0178
12256W        W13120   7.252   9.114   8.859  0.1260  0.0053  0.1903
12257W        W13121  28.635  24.087  18.112 -0.2020  0.0912  0.2936
12258W        W13122  12.279  18.203  23.632 -0.1361  0.1439  0.0133
12259W        W13123  17.013   4.676   3.501  0.1360 -0.1117 -0.2398
12260W        W13124  17.157  16.420   4.624  0.0799  0.0655  0.0775
12261W        W13125  18.665   8.624  25.199 -0.0247 -0.0572  0.0294
12262W        W13126  12.878   7.208   3.259  0.1704 -0.4086  0.1163
12263W        W13127   2.450   6.352   5.462 -0.4573 -0.2658  0.2629
12264W        W13128  18.096  19.686   3.086 -0.2153  0.0097  0.2835
12265W        W13129   0.160  23.758  10.966  0.1282  0.0931  0.3127
12266W        W13130  15.126  13.570  28.500 -0.2133 -0.0358 -0.2345
12267W        W13131   2.584  16.835  26.341  0.1091  0.1615 -0.3617
12268W        W13132  16.457   1.145  17.536 -0.1481 -0.1945  0.1424
12269W        W13133   7.463   8.896  16.618  0.1213  0.1154 -0.0149
12270W        W13134  12.104  14.394  24.964  0.0746 -0.1613  0.0060
12271W        W13135  22.644   0.652  24.896  0.1184 -0.1733  0.1335
12272W        W13136  11.140  26.659  18.112 -0.2430  0.3825 -0.3333
12273W        W13137  28.841  20.663  10.702  0.0069 -0.0860  0.1500
12274W        W13138   1.100  16.059  16.562 -0.0017 -0.0915  0.1179
12275W        W13139  17.372  14.015  27.901 -0.3126 -0.3492  0.1169
12276W        W13140  23.054  16.159  24.867  0.1422  0.0709  0.0036
12277W        W13141   2.494  16.418  24.422  0.0897  0.1005 -0.2290
12278W        W13142   7.054  19.559  25.650 -0.2391  0.0076  0.1393
12279W        W13143  19.826  18.307  18.395  0.0478 -0.0791  0.0067
12280W        W13144  13.296  23.541   3.024 -0.2143 -0.1216  0.2915
12281W        W13145  20.847  23.976  23.215 -0.1061  0.0778 -0.1009
12282W        W13146  14.540   1.108   4.478  0.0363  0.2094  0.0535
12283W        W13147   2.367  10.303  20.141 -0.0908  0.1292  0.0970
12284W        W13148  29.091   5.319  13.216 -0.2136 -0.0920  0.1282
12285W        W13149  14.081  18.985  10.831 -0.3163 -0.1715 -0.4735
12286W        W13150  14.930   8.072  21.411 -0.1349 -0.1270  0.0667
12287W        W13151   4.470   9.469   4.159 -0.0423  0.1510  0.0369
12288W        W13152   2.524  13.239   4.105  0.2236 -0.1217  0.0684
12289W        W13153  12.523   9.179  22.935 -0.1717  0.1294 -0.0963
12290W        W13154  17.827  22.835   7.620 -0.2105  0.2460  0.0089
12291W        W13155  15.439   0.585  29.046  0.0660  0.0466  0.1147
12292W        W13156  12.811  15.712  15.301  0.1284  0.0333 -0.2069
12293W        W13157   9.986  20.314  26.648  0.2264 -0.0049 -0.2022
12294W        W13158  17.302   6.736   5.842  0.0310 -0.0380 -0.3501
12295W        W13159  10.025   6.306   2.793  0.1651 -0.3039  0.0213
12296W        W13160  25.697   4.864  27.891 -0.1532  0.2277 -0.4774
12297W        W13161  17.263   7.107   8.237  0.1003  0.0535  0.2907
12298W        W13162  28.634   4.914   2.753 -0.0717 -0.0885  0.1606
12299W        W13163  20.152   0.550  11.689  0.0802 -0.0215 -0.1573
12300W        W13164  19.665  12.246  10.817  0.0415  0.4628 -0.1845
12301W        W13165  14.879  12.161   6.726  0.1001 -0.1177  0.0872
12302W        W13166   8.521  22.374  26.193  0.0452 -0.0704 -0.1731
12303W        W13167  19.166   3.334   9.338 -0.0632  0.1228 -0.0099
12304W        W13168   8.421  19.594   5.941  0.0596  0.0137  0.0546
12305W        W13169   0.318   3.332   8.483 -0.3501 -0.0141 -0.0303
12306W        W13170  21.942  14.486  26.137  0.2232  0.0531 -0.0478
12307W        W13171   8.529   4.347  25.631 -0.1464  0.0570 -0.4964
12308W        W13172   2.783  23.540  14.646  0.4548 -0.0486  0.1279
12309W        W13173  17.592  21.124  23.839  0.3302 -0.0352  0.2093
12310W        W13174  10.827  19.757   2.802  0.0228  0.1631  0.1437
12311W        W13175   7.753  12.665   2.060 -0.1821  0.1543  0.1443
12312W        W13176  26.919  16.447  16.028  0.0079 -0.0851  0.0871
12313W        W13177  19.639   0.343  24.069  0.2840  0.0385  0.1568
12314W        W13178   8.283  20.292   2.150 -0.1021 -0.1077 -0.4197
12315W        W13179  15.372  24.631  14.848  0.1187  0.1332  0.1977
12316W        W13180  10.880  24.096  18.901  0.0015 -0.0679 -0.2000
12317W        W13181   1.334   2.786  15.769 -0.0255  0.0032  0.0520
12318W        W13182   0.655  23.673  26.849 -0.2046  0.1197  0.3057
12319W        W13183  28.354   2.970  22.460 -0.1043 -0.0115  0.0471
12320W        W13184  21.263  14.540   1.686  0.1057  0.1002 -0.3993
12321W        W13185  13.232  14.624   5.255 -0.0208  0.0986 -0.0821
12322W        W13186  18.533  16.399  28.506  0.2771  0.0058  0.0463
12323W        W13187   7.941   2.003   5.772 -0.0694 -0.1775 -0.0086
12324W        W13188  28.779  25.539  26.369  0.3923 -0.1573  0.0972
12325W        W13189   2.362  28.172   3.656 -0.2192  0.0326 -0.0431
12326W        W13190  25.625  13.793   9.894  0.2175 -0.0234  0.0998
12327W        W13191  15.049   4.861   6.038  0.0678 -0.2256 -0.0701
12328W        W13192  29.131  19.485  13.276 -0.0174 -0.0496 -0.0779
12329W        W13193   1.669   8.154  10.898  0.1435 -0.2141 -0.0420
12330W        W13194   0.015   6.725  28.225  0.1303 -0.1360  0.1245
12331W        W13195   3.908  19.612   0.387  0.0121  0.2732  0.1797
12332W        W13196  13.953   5.109  25.637  0.2171 -0.2451  0.1672
12333W        W13197  25.085  18.773   3.810 -0.1410 -0.1693  0.0442
12334W        W13198  12.586  13.254  19.499  0.0926  0.0022  0.1021
12335W        W13199  22.011   8.268  14.489  0.0265 -0.0980 -0.1416
12336W        W13200  13.247  27.355   3.864  0.1806  0.0746  0.2358
12337W        W13201  26.390   0.216   9.202  0.0434  0.0521  0.2554
12338W        W13202  16.380  12.903   0.050  0.0102  0.0934  0.0568
12339W        W13203   2.960  17.101  22.325  0.2720  0.0207  0.0111
12340W        W13204   3.529   6.448   4.597 -0.1605  0.0510  0.2087
12341W        W13205   2.875   9.561  13.905  0.0218 -0.1017  0.0547
12342W        W13206  20.148  22.084  14.624 -0.0840 -0.1717 -0.0744
12343W        W13207  19.301  28.318  25.985  0.1926  0.0983 -0.3830
12344W        W13208   4.698   6.719  15.914 -0.0256 -0.4731 -0.1976
12345W        W13209  26.869  21.652  26.035  0.2293 -0.1785  0.0822
12346W        W13210   1.241  20.529  14.406 -0.1026 -0.0997 -0.1988
12347W        W13211  13.621  19.781   6.184  0.0482 -0.0186 -0.0150
12348W        W13212  27.747   5.827  18.545  0.0377  0.1482  0.0886
12349W        W13213   2.251  14.055  15.059  0.1229  0.2820 -0.1357
12350W        W13214  13.210   4.135  14.569  0.0211  0.1842 -0.0221
12351W        W13215  10.725  24.116   2.902 -0.1803  0.2252 -0.0371
12352W        W13216  11.302   3.595  27.231  0.0615 -0.1123  0.0228
12353W        W13217  13.575  11.031  25.079 -0.2792  0.1980 -0.0228
12354W        W13218  11.356  25.638   4.187 -0.2759 -0.0168 -0.1867
12355W        W13219   3.502  23.555   6.332  0.0583  0.2718 -0.0376
12356W        W13220  15.897  26.228  23.735 -0.0586 -0.1321  0.3531
12357W        W13221  21.276  20.130  11.262  0.3476  0.2504  0.0615
12358W        W13222  20.823   8.010   4.002 -0.0210  0.1737 -0.1812
12359W        W13223  17.808  27.682  27.307  0.3605 -0.0227 -0.3577
12360W        W13224  26.418   7.159  25.698 -0.1969  0.3380  0.0722
12361W        W13225   5.888   1.426   0.060  0.1024 -0.2937  0.2515
12362W        W13226  11.484  16.362  22.151  0.1535 -0.0151 -0.0492
12363W        W13227  11.488  28.473  11.227 -0.1445 -0.0013  0.1927
12364W        W13228   2.479  15.114  12.088 -0.0462  0.2220 -0.0629
12365W        W13229  12.642   1.830   9.562 -0.1525  0.0883 -0.1810
12366W        W13230   2.460  19.083  16.321  0.1996 -0.0751  0.0639
12367W        W13231  13.084  13.073  11.132  0.1144  0.3056 -0.0661
12368W        W13232  16.402   3.266  23.743 -0.0475  0.4994 -0.0980
12369W        W13233  28.313   1.623   2.763  0.2155 -0.1181 -0.0715
12370W        W13234   3.677  18.328  21.959 -0.1521  0.1569 -0.4452
12371W        W13235  23.584  15.903  28.383  0.1989  0.2288 -0.2560
12372W        W13236  26.514  10.619  13.754 -0.1190 -0.1558 -0.0279
12373W        W13237  14.953  16.150  25.641  0.0765  0.3005 -0.3804
12374W        W13238  17.133  17.008   9.736 -0.3069  0.0169 -0.1147
12375W        W13239  18.217   1.713  19.175  0.1830 -0.1955 -0.1390
12376W        W13240  24.008  14.934  12.550  0.1625  0.1081 -0.5028
12377W        W13241   2.648  29.065   4.206  0.0338  0.0846  0.4495
12378W        W13242   6.890  17.426   4.336 -0.0174  0.2081  0.0275
12379W        W13243   6.372  14.102  20.822  0.3174  0.1695  0.1021
12380W        W13244  17.589  21.466  21.031  0.0583 -0.0724  0.1779
12381W        W13245   1.856  10.394  28.232 -0.0969  0.0941  0.1301
12382W        W13246  15.005  24.238  12.179 -0.2451 -0.0738 -0.3513
12383W        W13247  13.794  23.968  10.142 -0.1682  0.1087  0.1729
12384W        W13248  28.232  24.326  28.356  0.0147  0.2497  0.0908
12385W        W13249  13.319  25.072   1.517 -0.2367  0.0651  0.0834
12386W        W13250  11.270   2.104  22.587  0.0434 -0.0446  0.1269
12387W        W13251  15.158  18.514   7.354  0.2090  0.0419 -0.1520
12388W        W13252   9.956   7.429  18.337  0.1501  0.1430  0.0242
12389W        W13253   5.673  12.600   7.595  0.3302 -0.1196  0.0961
12390W        W13254  11.064  18.185   6.110 -0.2790 -0.0036  0.0499
12391W        W13255  26.886  23.946   3.001 -0.0165  0.1862 -0.0129
12392W        W13256  14.676  21.953  18.344  0.0424  0.0263 -0.0424
12393W        W13257  26.604   4.214   7.877  0.1366 -0.2688  0.2516
12394W        W13258  15.520   8.851  20.929 -0.1508 -0.0233 -0.2015
12395W        W13259   6.349  11.270   1.518  0.0183  0.0861 -0.2904
12396W        W13260  10.985   4.928   0.121 -0.2323  0.0524  0.1845
12397W        W13261  25.341  20.728   3.208 -0.3117  0.1008  0.2831
12398W        W13262  19.183   1.416  21.348 -0.0057 -0.0490  0.1230
12399W        W13263  13.945   7.759   7.198  0.1072 -0.0471 -0.0084
12400W        W13264  21.974  22.370   6.480  0.0546 -0.0757 -0.2112
12401W        W13265  17.970   5.862  25.680  0.0287  0.3364  0.2057
12402W        W13266   9.077  15.344  26.110  0.2533  0.3212  0.2945
12403W        W13267  11.023   7.575  17.297 -0.2634  0.0739 -0.0663
12404W        W13268  26.967  13.681   6.709 -0.1226  0.2387  0.2244
12405W        W13269  25.027   8.468  19.440  0.1300 -0.1870  0.0842
12406W        W13270  17.832  16.415  28.242 -0.1574  0.0590 -0.0188
12407W        W13271  23.609   8.635  14.980  0.2021  0.2009  0.0525
12408W        W13272   3.647  16.550   9.226 -0.0935 -0.3559 -0.0111
12409W        W13273   4.574  21.344   4.752 -0.1484 -0.4020  0.2486
12410W        W13274  19.908   1.159   1.540 -0.1082 -0.1606 -0.4365
12411W        W13275  10.013  17.721  17.886  0.0101 -0.1370  0.2696
12412W        W13276   0.241  18.685  17.074 -0.0293  0.1408 -0.0787
12413W        W13277  23.412   8.872  20.964 -0.0516 -0.3361 -0.1410
12414W        W13278  17.256   1.861  25.246 -0.3668 -0.2523  0.0254
12415W        W13279  27.391  13.421   0.715  0.0255  0.1876  0.1641
12416W        W13280  12.883  20.706   2.251  0.0768  0.1697 -0.0057
12417W        W13281  21.914  26.642  13.898  0.2153 -0.2319  0.0906
12418W        W13282   9.261  13.254   2.515 -0.0641  0.0749 -0.2411
12419W        W13283  27.414  19.389   6.597 -0.1463 -0.0979 -0.0119
12420W        W13284  14.099  15.896   6.444 -0.0967  0.3475  0.0544
12421W        W13285  12.124  11.762  12.127 -0.3389  0.2135  0.0477
12422W        W13286  15.095   2.406   3.659  0.1522 -0.3064 -0.2617
12423W        W13287  14.753  18.236   1.889  0.1611 -0.1863 -0.0207
12424W        W13288  12.902  13.774  12.993 -0.0103  0.0783  0.0753
12425W        W13289  12.173  11.886  23.464 -0.2208 -0.0328 -0.0264
12426W        W13290   9.131  22.191  25.078  0.1410  0.1644 -0.0779
12427W        W13291  26.608  21.367   6.720 -0.0616 -0.0794  0.0083
12428W        W13292  17.708   6.957  11.925 -0.1710 -0.1339 -0.1889
12429W        W13293   7.029  10.848  15.515 -0.3582 -0.1591 -0.0374
12430W        W13294   2.269  19.565   0.615  0.1205 -0.1244  0.1648
12431W        W13295  10.394  20.428  12.146  0.2346  0.2501 -0.5776
12432W        W13296  18.725  28.758   3.770  0.1139 -0.0419 -0.0396
12433W        W13297  19.005  11.538  10.642 -0.1915 -0.0034  0.0682
12434W        W13298  13.094  17.404   8.643  0.2057 -0.0669  0.0766
12435W        W13299  20.239  11.160  25.980 -0.0752 -0.0108  0.1004
12436W        W13300   1.999  10.494  25.867  0.1151 -0.1751 -0.2027
12437W        W13301  11.474  19.880   2.750 -0.1197  0.0061 -0.1397
12438W        W13302  22.961  19.118   4.707 -0.1791  0.2012 -0.0385
12439W        W13303  23.568   9.064  28.489  0.1494 -0.0738 -0.1392
12440W        W13304  28.998   8.948  24.193 -0.1338  0.0453  0.0347
12441W        W13305  19.068  14.300  14.658 -0.2402  0.1550 -0.1695
12442W        W13306   1.058  24.724  26.280  0.0828  0.1138  0.1828
12443W        W13307  15.888  21.404  25.141  0.1027  0.1403 -0.3888
12444W        W13308  27.831  12.530  15.529  0.1230  0.0694 -0.3906
12445W        W13309  17.300   7.124   7.289 -0.2171 -0.0776  0.0225
12446W        W13310  20.275   3.226  13.534  0.0564  0.2515  0.0956
12447W        W13311  15.168   2.855   1.851 -0.0500 -0.2009 -0.2677
12448W        W13312  14.372   5.935  12.010  0.0158 -0.2043 -0.1245
12449W        W13313  20.576  27.219   0.831 -0.1722 -0.0684 -0.0827
12450W        W13314  10.555   9.589  26.304 -0.2105  0.0112 -0.1152
12451W        W13315   5.345  22.538  11.456 -0.3275  0.4188 -0.1320
12452W        W13316  16.414  20.099  26.553  0.0073 -0.1751  0.0462
12453W        W13317   8.382  26.187  22.681 -0.2023  0.2534  0.0839
12454W        W13318  14.532  27.199  26.683  0.2622  0.1999 -0.2079
12455W        W13319  20.012  17.923  21.687  0.3520 -0.1346 -0.4001
12456W        W13320   3.273  21.328  24.494 -0.2485 -0.0769  0.3111
12457W        W13321  22.194  20.348  23.185 -0.2024 -0.3513 -0.1826
12458W        W13322  10.931   2.638  27.691 -0.2786 -0.2157 -0.1233
12459W        W13323  23.605   8.601  18.375  0.2150 -0.1359 -0.0498
12460W        W13324  22.523  25.770  23.109  0.0598 -0.1172  0.0693
12461W        W13325   6.403  13.629  10.132  0.0755  0.1150  0.2488
12462W        W13326   8.634   9.959  15.635  0.0521  0.0354 -0.1287
12463W        W13327   8.164  10.048  21.597  0.2306 -0.2386  0.0094
12464W        W13328  14.536  23.352  16.942 -0.0645  0.3105  0.0739
12465W        W13329  16.668  13.894  22.769  0.0211 -0.0491 -0.1235
12466W        W13330  17.436   6.626  22.944  0.1664  0.2793  0.2692
12467W        W13331  22.957   0.719  27.030  0.0784  0.1052  0.0457
12468W        W13332  23.716   9.746  21.180  0.2803 -0.2209 -0.1168
12469W        W13333  25.464   3.532   5.035 -0.1478  0.2605  0.1761
12470W        W13334  12.171   9.882  26.408 -0.0340 -0.1875  0.0530
12471W        W13335   7.821  26.202   3.603  0.0342  0.1097 -0.4094
12472W        W13336  25.198   3.159  11.259 -0.2544  0.1393 -0.1686
12473W        W13337  19.950  11.369  15.557  0.3537 -0.1693  0.1595
12474W        W13338  14.211  27.213   2.177  0.2805  0.1244 -0.1776
12475W        W13339  11.606  17.448  26.696  0.1295 -0.0003  0.0512
12476W        W13340  17.626  15.694  13.200  0.0586  0.0747  0.3270
12477W        W13341   8.867  19.397   7.327 -0.1189 -0.0663 -0.2311
12478W        W13342   2.141   6.002  20.050 -0.0318  0.0742  0.0929
12479W        W13343  18.217  13.304  21.569 -0.0295 -0.1878 -0.0955
12480W        W13344   9.259   9.184   8.031  0.0345  0.1846 -0.1612
12481W        W13345  18.432  24.546   5.739 -0.1614  0.2446  0.1742
12482W        W13346   5.544   3.446   7.858 -0.1559 -0.0110 -0.3576
12483W        W13347   4.883   6.734  27.819  0.1422  0.1819  0.2628
12484W        W13348  12.025  16.380   1.335  0.1735  0.1164 -0.2830
12485W        W13349  10.675  13.600   0.432 -0.1289 -0.0865 -0.1791
12486W        W13350   0.519   6.590   3.248  0.2779 -0.0549  0.3745
12487W        W13351  22.163   9.505   3.535 -0.1477 -0.0928 -0.1310
12488W        W13352  13.282  24.117   8.197  0.0873 -0.1673 -0.0900
12489W        W13353  21.571  17.836  15.897 -0.3287 -0.1502  0.1040
12490W        W13354  14.223  26.476  28.764  0.3264 -0.0261  0.1152
12491W        W13355  26.731  15.036   5.349  0.1301  0.2688  0.0648
12492W        W13356  12.969  10.821   2.843 -0.2962  0.1930 -0.2010
12493W        W13357  18.453  14.068  12.542 -0.1425 -0.0081  0.0446
12494W        W13358   4.609  20.948   8.750  0.0256  0.2137  0.4086
12495W        W13359  19.693  19.683  26.828 -0.1454  0.0155  0.0381
12496W        W13360  11.939  20.538   8.869 -0.1412  0.1809  0.0395
12497W        W13361  19.641  19.415  27.801  0.1076  0.2328  0.6301
12498W        W13362  12.957   8.813  24.783  0.3448 -0.0806 -0.0500
12499W        W13363  14.814  20.792  10.825  0.0733  0.0360 -0.0790
12500W        W13364  14.092   8.771  19.874 -0.0466  0.2220 -0.0270
12501W        W13365  22.439  12.011   5.174  0.0005  0.0082 -0.2340
12502W        W13366  24.678  19.066  16.071 -0.4826  0.2738 -0.1826
12503W        W13367  21.957  12.615  22.609  0.0259 -0.4615 -0.1719
12504W        W13368   4.258  27.466  10.022  0.0036  0.2246  0.3948
12505W        W13369  16.299   4.503  26.928 -0.0116  0.2486  0.1743
12506W        W13370  17.127  11.994   3.487  0.2529 -0.1264  0.0084
12507W        W13371   5.169  16.927  25.916 -0.0396  0.1826  0.4198
12508W        W13372  21.736  24.039  23.138 -0.0592 -0.0736  0.2502
12509W        W13373  18.908  13.542  22.040  0.0653 -0.0220  0.0226
12510W        W13374  27.787  15.003   9.177  0.0337  0.3039  0.0837
12511W        W13375  14.729  17.750  27.931  0.1157  0.4042 -0.1272
12512W        W13376  15.120   5.992  25.690  0.2136 -0.1774  0.3203
12513W        W13377  20.895  23.594   4.397  0.1538  0.0761  0.2072
12514W        W13378   3.888  23.082   5.250  0.0777 -0.0101 -0.3139
12515W        W13379  19.366  12.173  10.349  0.2223  0.0237 -0.0877
12516W        W13380   9.979  27.929   3.132  0.0457  0.2769  0.0144
12517W        W13381  28.073  15.189  15.987  0.1085  0.0209 -0.1472
12518W        W13382  15.692   8.328  10.776  0.1776  0.2173 -0.0498
12519W        W13383  17.926   4.305   8.404  0.1409 -0.0533  0.0920
12520W        W13384  22.674  22.445  18.233  0.2274 -0.1525 -0.0485
12521W        W13385   6.775  11.618   6.285 -0.0179  0.1275  0.1108
12522W        W13386  10.624  26.260   9.962  0.0578  0.2572 -0.1371
12523W        W13387   7.124  16.914  12.150  0.3741  0.0228 -0.0185
12524W        W13388  13.852  13.479  19.779  0.1334  0.6029  0.0630
12525W        W13389  16.934   8.453  10.339  0.0251 -0.1131  0.0623
12526W        W13390  20.033  12.448  11.964  0.0400 -0.0902 -0.1820
12527W        W13391   2.609  11.831  24.368  0.2625  0.0126 -0.0799
12528W        W13392  17.794  18.678   2.485  0.0423 -0.2288 -0.0160
12529W        W13393  17.588   6.031  10.108 -0.0011  0.1322  0.3252
12530W        W13394  27.127  11.598  28.081 -0.0411 -0.0784  0.3539
12531W        W13395  27.251   2.753  27.255  0.2786 -0.2204  0.0586
12532W        W13396  21.384  12.603  10.302  0.3441 -0.0549  0.2248
12533W        W13397   8.855   4.075  16.341  0.1777  0.2404 -0.2565
12534W        W13398  21.814   1.513  10.414  0.1915  0.3093  0.1000
12535W        W13399  29.005  19.655   3.031  0.0172  0.0813 -0.0092
12536W        W13400   4.393  26.461   2.770  0.1264 -0.0822 -0.0260
12537W        W13401  24.824  11.864   1.209  0.1030  0.1698  0.0539
12538W        W13402  23.859   5.668  18.130  0.2642  0.0302 -0.1913
12539W        W13403   2.230  15.864   8.132  0.0087 -0.1166 -0.2093
12540W        W13404  19.809   8.877  19.308  0.4054 -0.2866 -0.1375
12541W        W13405  17.831   9.141   9.837 -0.0223 -0.3667 -0.2442
12542W        W13406  22.405  18.242  22.189 -0.3887  0.4479 -0.2035
12543W        W13407  10.367  15.730   3.870  0.1301 -0.4300 -0.2496
12544W        W13408   6.412  19.897  21.481 -0.2524 -0.2467  0.1710
12545W        W13409  28.790   9.715   3.605  0.0050  0.1685 -0.2376
12546W        W13410   3.702  20.706   6.013 -0.0644 -0.1477  0.1074
12547W        W13411   9.472  27.874  19.698  0.0471 -0.0369  0.2585
12548W        W13412  11.870   7.301  14.311 -0.4227  0.2089 -0.0564
12549W        W13413  23.708  26.674  26.643  0.1560 -0.1325 -0.1632
12550W        W13414  20.657  26.318   8.922  0.1984  0.1352  0.0197
12551W        W13415  17.153   4.967   1.807  0.2190  0.1396  0.3080
12552W        W13416  14.392  21.105   5.380  0.1784  0.1015  0.0933
12553W        W13417  27.952   9.395  18.842  0.1159  0.1528 -0.1746
12554W        W13418  19.006  17.267   7.978  0.2522  0.0055 -0.3168
12555W        W13419  25.756   5.991  26.243 -0.0388  0.1178 -0.1883
12556W        W13420  11.477  27.990  24.813  0.0191 -0.1203  0.0495
12557W        W13421   2.373  12.671  21.416 -0.2536  0.1364 -0.0909
12558W        W13422  24.835  11.809   1.751  0.4170  0.1137 -0.1357
12559W        W13423  19.420  16.778  24.556 -0.1150 -0.1038 -0.1614
12560W        W13424  23.612  23.757  12.132 -0.0520 -0.1351  0.3919
12561W        W13425   5.068  16.361   6.386  0.2805 -0.1404 -0.1000
12562W        W13426   1.334  28.036  11.060 -0.2941  0.0079  0.2347
12563W        W13427  26.630   8.588  26.985  0.3144 -0.1166 -0.1406
12564W        W13428   6.072  10.780  27.681 -0.0480  0.0091  0.1053
12565W        W13429  23.971   6.931  19.970 -0.2964  0.0463 -0.0301
12566W        W13430  16.026  26.257  10.367  0.0431  0.0104  0.0898
12567W        W13431  20.816  10.315   4.123  0.0441 -0.0912 -0.1200
12568W        W13432   0.777   2.861  24.424 -0.1684 -0.1455  0.0773
12569W        W13433  20.890   8.979   5.540 -0.0969 -0.3116  0.1889
12570W        W13434  21.182   6.559  20.984 -0.2020  0.0735  0.1966
12571W        W13435   6.186   6.194  14.292  0.1787  0.1839  0.0927
12572W        W13436  24.561  24.808   7.657 -0.0816  0.3496  0.3565
12573W        W13437   2.480   3.954   8.740 -0.2697 -0.0601 -0.0208
12574W        W13438  16.575  10.138   5.392 -0.1300  0.0075  0.1091
12575W        W13439  13.406  12.540   6.425  0.0345 -0.0865  0.0115
12576W        W13440   9.419   6.480  13.864  0.1048  0.0826  0.1612
12577W        W13441  21.168  17.149   9.800  0.2219 -0.0712 -0.1104
12578W        W13442  13.574  21.005  10.404  0.0580  0.0981 -0.3418
12579W        W13443   3.083  16.157  27.701  0.3811 -0.0023 -0.0545
12580W        W13444  12.869   8.890   2.726 -0.1150 -0.1676 -0.1361
12581W        W13445  23.186  15.040  12.314  0.0780  0.0538 -0.0569
12582W        W13446   0.423   0.784   9.399  0.0939  0.0115 -0.2838
12583W        W13447  14.637  17.204  26.528 -0.1841  0.0929 -0.3277
12584W        W13448  17.485   8.725  14.189  0.1950 -0.1662 -0.0967
12585W        W13449  11.383   3.869   0.362 -0.0654 -0.0057  0.1263
12586W        W13450  13.228  12.424  24.957 -0.0188 -0.1268 -0.2484
12587W        W13451  12.419  24.526  16.401 -0.2908  0.0603  0.1576
12588W        W13452  28.070   7.806  20.320 -0.0283  0.0019 -0.2929
12589W        W13453  24.168  16.167  10.467 -0.1323 -0.0165 -0.0824
12590W        W13454  14.563  24.688  25.629  0.1126 -0.1525 -0.0630
12591W        W13455  28.025  28.301  17.067 -0.0360 -0.3307 -0.0985
12592W        W13456  25.912  21.740  23.746 -0.2354 -0.0160 -0.0726
12593W        W13457   8.864  12.455   7.521 -0.2142  0.1909 -0.2397
12594W        W13458  23.281  25.618  20.236 -0.0614 -0.1393 -0.0272
12595W        W13459   5.956  26.805   5.409  0.3076 -0.0735  0.1634
12596W        W13460   4.298   3.256   3.784 -0.0182 -0.1535 -0.0514
12597W        W13461  28.192  20.442  17.664 -0.1190  0.3734 -0.1080
12598W        W13462  20.347  11.929  14.632  0.1929 -0.1452  0.3405
12599W        W13463   8.819   8.591   0.699  0.0007 -0.3694  0.1915
12600W        W13464  20.424   6.402  25.132 -0.2242 -0.0718 -0.0365
12601W        W13465  17.472  25.159  12.564 -0.1604 -0.2461 -0.0212
12602W        W13466  14.048   1.262  10.893 -0.1015 -0.0854 -0.1133
12603W        W13467  17.406  27.477  22.856  0.0738  0.1719 -0.1293
12604W        W13468  25.242   5.009   3.002 -0.0530 -0.0322 -0.2227
12605W        W13469  10.855  13.091  16.794 -0.3810  0.0641  0.1798
12606W        W13470  13.993  24.888   2.777  0.0584 -0.0285 -0.2608
12607W        W13471  13.351  10.778   0.753 -0.1789  0.1280  0.1602
12608W        W13472  19.323  22.333  10.742  0.3211  0.5922  0.2342
12609W        W13473  22.415   4.561  23.196  0.0549 -0.2020  0.3428
12610W        W13474  12.242  12.332  25.477 -0.0989  0.1831  0.1906
12611W        W13475  28.896  13.934  15.705 -0.0274  0.1869 -0.0906
12612W        W13476   2.530  21.656  21.128 -0.0392  0.4798  0.1544
12613W        W13477   8.565  12.917  19.759  0.1349  0.1529  0.0339
12614W        W13478  24.272   4.947   6.029  0.2679 -0.1049  0.2170
12615W        W13479  22.527   8.265  20.822 -0.0285  0.5106 -0.0653
12616W        W13480  21.672  11.304   7.485  0.0049  0.1801  0.0473
12617W        W13481  19.711  15.948  12.179 -0.2279  0.2455 -0.2587
12618W        W13482  27.361  10.083  17.781  0.0878 -0.1157 -0.0844
12619W        W13483  16.142  17.397  11.345 -0.0087  0.1210 -0.1582
12620W        W13484  18.686  11.785   7.130  0.0971  0.0321 -0.2461
12621W        W13485  12.994  20.421  17.467 -0.0802 -0.1183 -0.0911
12622W        W13486  18.980  13.243  23.405 -0.0279 -0.3457 -0.1036
12623W        W13487  16.573  24.161  14.554 -0.0465  0.1302  0.0655
12624W        W13488  20.792   5.300   4.114 -0.2680 -0.1805  0.2995
12625W        W13489  15.786  19.507  22.933 -0.2525  0.0562 -0.1900
12626W        W13490  18.551   1.391  18.989  0.2765  0.3841 -0.0175
12627W        W13491   7.700  10.779  22.136 -0.2698  0.1014  0.0259
12628W        W13492   4.273   4.191  11.970 -0.2437  0.0849  0.0508
12629W        W13493  27.810  16.548   6.414  0.3167 -0.2268  0.0910
12630W        W13494  18.783   4.663  21.451  0.3068 -0.2852  0.0012
12631W        W13495  17.848  16.049   5.338 -0.1169  0.0059 -0.0510
12632W        W13496  19.230  17.008   1.034  0.0537  0.2222 -0.0923
12633W        W13497  11.805  12.732  24.482 -0.2382 -0.0604 -0.0152
12634W        W13498  15.331  10.712  14.043  0.0827 -0.0422 -0.0106
12635W        W13499   8.782   8.441   1.178 -0.0325  0.1159  0.3156
12636W        W13500  24.882  20.789   7.995  0.0975  0.1277 -0.0368
12637W        W13501   6.467   0.464   7.741 -0.3539  0.0591  0.0564
12638W        W13502  17.905   6.756   8.735 -0.0038  0.1253 -0.0766
12639W        W13503   0.713   5.887  12.864 -0.0733  0.2765 -0.1080
12640W        W13504   7.471  14.125  16.198 -0.0494  0.3871 -0.1209
12641W        W13505   5.105  21.107   8.672  0.0772 -0.2615 -0.0744
12642W        W13506  12.793  24.893  16.359  0.0351 -0.2913  0.1989
12643W        W13507  17.139  10.081  26.374 -0.0949  0.2415  0.0230
12644W        W13508  20.895   7.216  10.721  0.2887 -0.0601  0.1062
12645W        W13509  20.454  14.443  10.205  0.0612  0.2546 -0.1101
12646W        W13510   6.877  27.215   1.868 -0.4233  0.1635  0.1096
12647W        W13511   0.629  11.719  10.372  0.0917 -0.1813  0.1349
12648W        W13512  16.563  16.551  25.608  0.0735  0.0319 -0.2776
12649W        W13513   8.087   7.560  18.321 -0.2100 -0.0676  0.2038
12650W        W13514   7.397   6.225   5.877 -0.0608 -0.0605 -0.2202
12651W        W13515   3.454   1.513  28.317 -0.0953 -0.2769 -0.0205
12652W        W13516  24.636  14.897   9.845 -0.1487 -0.1542  0.1511
12653W        W13517  26.478  28.089  14.967 -0.2464  0.1349 -0.1197
12654W        W13518  16.483  14.435  10.165 -0.0439  0.0168 -0.2191
12655W        W13519  11.684   4.925   4.732  0.3621 -0.3068  0.1647
12656W        W13520   3.760  12.679   8.274  0.2511  0.0233  0.1478
12657W        W13521  17.954  13.474  22.302  0.0024  0.0558 -0.0372
12658W        W13522  15.234  11.381  12.700  0.2705  0.1049 -0.0636
12659W        W13523   9.388  11.522  27.731 -0.0413 -0.0656 -0.1524
12660W        W13524  20.732  11.017  21.813  0.3339 -0.1276  0.1862
12661W        W13525  10.085  23.925   3.973 -0.3808  0.2535 -0.0753
12662W        W13526  17.142   4.376   0.415 -0.0019  0.0541 -0.2052
12663W        W13527   4.194   1.518   9.496 -0.0748 -0.0443  0.0015
12664W        W13528  11.457  18.988  27.058 -0.2924 -0.0069  0.1659
12665W        W13529  20.266  12.775   8.218  0.1023  0.0944 -0.0913
12666W        W13530  19.791  26.024  21.895 -0.0169  0.0063  0.4206
12667W        W13531  22.709  12.522   9.362 -0.3170 -0.0810  0.0614
12668W        W13532  12.733   0.001   1.198  0.0778  0.0602 -0.1469
12669W        W13533  16.635  20.853   5.490  0.3225  0.0117  0.0012
12670W        W13534  19.582  24.036   6.272  0.1063 -0.2610 -0.1344
12671W        W13535  26.725  27.876  15.800 -0.0460 -0.2185  0.0016
12672W        W13536  10.682  11.704   9.069 -0.3205 -0.4089 -0.0744
12673W        W13537   1.614   0.563  13.490 -0.3962  0.0399 -0.0542
12674W        W13538  20.256   8.639  15.881 -0.1410  0.2087 -0.2271
12675W        W13539  28.860  16.483   6.539 -0.4299 -0.1499  0.0204
12676W        W13540  13.473  11.496  26.985  0.2167  0.1210 -0.0205
12677W        W13541  23.622   4.596   7.013 -0.2271  0.0055 -0.2308
12678W        W13542  13.428   9.921   7.279  0.0579 -0.0154 -0.1739
12679W        W13543   6.506  16.149   2.294  0.0800 -0.1612 -0.1532
12680W        W13544   9.667  19.148   5.708 -0.0429 -0.0583 -0.1545
12681W        W13545   4.927  10.762  12.461 -0.0926 -0.0526  0.0262
12682W        W13546   8.405  18.072   0.539  0.0645 -0.0258 -0.1213
12683W        W13547  11.569  25.417  28.707  0.3769 -0.1382 -0.4159
12684W        W13548   6.219  22.744  11.253 -0.0064 -0.1156  0.1521
12685W        W13549   4.229  22.227  23.160 -0.2567  0.1167  0.0921
12686W        W13550  20.896  13.661  19.051  0.2379  0.1186  0.1805
12687W        W13551  18.759  17.792  14.130 -0.0274  0.0485  0.1382
12688W        W13552  12.701  13.784  17.409  0.0945 -0.0849  0.1657
12689W        W13553  15.353  12.922  26.927  0.3327 -0.2875  0.1810
12690W        W13554  20.636  29.022   1.577  0.0835 -0.2885 -0.0112
12691W        W13555   6.385  20.497  16.671 -0.0368  0.1682  0.1323
12692W        W13556  12.750   2.564  20.942  0.1930  0.0142  0.5577
12693W        W13557  18.741  20.959   9.137  0.1629  0.0411 -0.0016
12694W        W13558   8.599  12.079  26.243 -0.0792 -0.1394 -0.0188
12695W        W13559   8.460  21.330  27.168  0.2551 -0.0452 -0.0454
12696W        W13560  12.315  26.003   8.229  0.0462 -0.5370 -0.3175
12697W        W13561  28.452  12.717  24.387  0.1943  0.0831 -0.0010
12698W        W13562   2.813  20.717  12.795 -0.2005 -0.2131  0.1678
12699W        W13563  16.300  15.809   3.019 -0.0924 -0.0637 -0.0563
12700W        W13564   5.568  22.215  11.855  0.0369 -0.3488  0.2187
12701W        W13565   2.151  27.289   0.176  0.0087 -0.3071  0.1840
12702W        W13566  23.843   9.449  15.306  0.4509  0.3516  0.1357
12703W        W13567  20.939  22.488   5.644  0.2041  0.1378 -0.1463
12704W        W13568  19.396  20.665   4.958  0.4446  0.0436  0.1248
12705W        W13569   7.963  18.490   2.701  0.1384 -0.1422  0.0475
12706W        W13570  27.699  18.082   2.052 -0.0711  0.1233  0.1548
12707W        W13571  14.582  16.594  17.286 -0.1657  0.0730 -0.1216
12708W        W13572  12.242  20.252   8.522  0.0453 -0.1387  0.3565
12709W        W13573  21.198  26.125  20.230 -0.3127  0.2033  0.0348
12710W        W13574  16.415  15.108  18.466  0.0423  0.1415 -0.0624
12711W        W13575  21.536  12.438   2.455 -0.0520 -0.0835  0.1615
12712W        W13576   5.952  17.980  23.329  0.1047 -0.4739  0.1599
12713W        W13577  20.605  24.499   6.407 -0.2226 -0.0371  0.0504
12714W        W13578  15.926  17.196   9.023 -0.0037  0.0584  0.0472
12715W        W13579   0.199  15.757  20.022  0.1263  0.1467 -0.1945
12716W        W13580  17.441  10.029  26.765  0.1047  0.0593 -0.0542
12717W        W13581   7.404  21.064  18.790  0.2311 -0.0082  0.0512
12718W        W13582  13.357  23.455  15.159 -0.0899 -0.0388 -0.1406
12719W        W13583  18.040  15.610  14.374 -0.0150  0.0104 -0.1465
12720W        W13584  16.886  21.202  12.071 -0.2229  0.0534  0.0112
12721W        W13585  23.955  11.633  21.493  0.1661  0.2089  0.0993
12722W        W13586  18.802  26.358   6.757 -0.0042 -0.0684 -0.0138
12723W        W13587   9.050  18.941  15.660 -0.0979 -0.1312  0.0402
12724W        W13588  15.748  23.864  14.869  0.0772  0.3196 -0.3600
12725W        W13589   1.138  16.358  24.509 -0.0065 -0.0768 -0.1131
12726W        W13590   8.840  18.076  10.736 -0.2414 -0.3142  0.2169
12727W        W13591  15.616  22.722   3.823  0.0375 -0.2633 -0.1521
12728W        W13592  28.433  15.228  28.959 -0.1803 -0.0823 -0.2903
12729W        W13593   7.555  22.237  14.311 -0.1082  0.0588  0.2031
12730W        W13594  18.655  22.688  21.179 -0.0811 -0.0738 -0.1086
12731W        W13595  12.950  28.455   1.989  0.2850 -0.0446  0.3030
12732W        W13596   1.450   4.042   2.754  0.0557  0.3242  0.2669
12733W        W13597  17.817   7.923   6.880  0.1599  0.0543  0.1988
12734W        W13598  26.798  18.818   5.375 -0.0100 -0.0316 -0.0166
12735W        W13599  14.695  26.097  17.544 -0.0881  0.1755  0.1455
12736W        W13600  26.674  28.798  28.592 -0.0653 -0.2179 -0.1184
12737W        W13601  28.824  14.287  23.506  0.1679  0.0157 -0.0853
12738W        W13602  21.790   0.347   5.313  0.1069  0.3417 -0.1455
12739W        W13603  17.818  25.376   4.665 -0.1229  0.0250 -0.2442
12740W        W13604   7.548  13.643  28.796 -0.2151 -0.1135 -0.0404
12741W        W13605  12.859  21.709   2.603 -0.1477 -0.2806 -0.0499
12742W        W13606  15.284  23.060   3.549  0.0859  0.1085 -0.1030
12743W        W13607  16.758   2.008   2.428  0.0078 -0.1374 -0.1849
12744W        W13608  18.407  21.328  23.635  0.3265 -0.1296 -0.0098
12745W        W13609  25.454  18.839  16.509 -0.1418 -0.1671  0.2870
12746W        W13610  18.679  15.974   8.410 -0.2043 -0.1167 -0.0655
12747W        W13611  16.782  11.528   2.584  0.2446  0.0240  0.1267
12748W        W13612  13.412  20.161  14.012 -0.1542 -0.0642  0.0340
12749W        W13613  10.249  14.005   0.851  0.1039  0.2236 -0.1262
12750W        W13614  15.246   0.755  14.899 -0.0197  0.0711  0.0853
12751W        W13615  12.673   3.850  15.340 -0.1123 -0.0389  0.1826
12752W        W13616  21.663  27.155   7.279  0.0546  0.3305 -0.1959
12753W        W13617  24.878  21.043  12.418 -0.5198  0.0006 -0.0090
12754W        W13618  12.970  11.455   9.262  0.1913 -0.6981  0.2602
12755W        W13619   7.530   0.124  13.031 -0.1294  0.2090  0.3298
12756W        W13620  25.467   7.454   9.467  0.0367 -0.0156  0.1527
12757W        W13621   7.178   5.719   7.627  0.0923  0.4626 -0.0246
12758W        W13622  18.535  27.336  26.707  0.4207 -0.0334  0.2408
12759W        W13623  27.590  21.889  19.961 -0.1216  0.0225  0.4041
12760W        W13624  17.565   5.168  28.735  0.1320 -0.0573  0.3724
12761W        W13625   8.646  21.781  17.312  0.0676 -0.0393  0.3580
12762W        W13626  15.832  17.559  24.897  0.1670  0.0777  0.1788
12763W        W13627   1.115   6.513  18.172 -0.3416 -0.1262 -0.2670
12764W        W13628  21.361  19.858   4.988 -0.0066  0.0667 -0.1798
12765W        W13629  16.405  16.677  27.516 -0.1698 -0.1178 -0.2309
12766W        W13630  22.151   3.605   8.374  0.1054  0.2150 -0.0256
12767W        W13631  11.888   6.572  28.465  0.1552 -0.0864 -0.0428
12768W        W13632  21.881  21.250  27.276 -0.1779  0.4488 -0.2030
12769W        W13633  21.865  12.298   6.416 -0.0349  0.5270  0.0259
12770W        W13634   1.753  14.153  24.795  0.0501 -0.3155  0.1474
12771W        W13635  21.054  13.927  20.653  0.2559  0.1186  0.2396
12772W        W13636   5.288  26.458  22.737 -0.0246  0.0495  0.1172
12773W        W13637  11.681   9.986   9.648 -0.1522  0.1119 -0.1460
12774W        W13638   3.281  12.567  25.356  0.0480 -0.2797  0.0406
12775W        W13639  23.205   9.369  21.753  0.1345 -0.1741  0.0914
12776W        W13640  26.364  15.367   6.923  0.0804 -0.4061  0.0668
12777W        W13641  23.603  11.310  23.538  0.0177 -0.0337 -0.2946
12778W        W13642  12.634  20.641   8.718 -0.3539  0.3214 -0.6468
12779W        W13643   8.213  15.198  11.474 -0.0966  0.3186 -0.4345
12780W        W13644  10.573  26.389   8.841  0.2680  0.1408 -0.1219
12781W        W13645  22.568  17.600  25.800 -0.0997 -0.0750  0.2151
12782W        W13646  18.431  20.592  12.048 -0.1708 -0.5797 -0.0149
12783W        W13647   5.385  15.318   2.733 -0.0917 -0.0584  0.1119
12784W        W13648  15.635  13.000   2.783 -0.1265  0.0535  0.0697
12785W        W13649  10.868  26.463  21.475  0.0361 -0.1473 -0.2713
12786W        W13650   7.182  19.229   6.426  0.0748 -0.2060  0.2729
12787W        W13651   5.296   0.109  29.121  0.1605 -0.1051  0.1224
12788W        W13652   3.451  25.663  10.950  0.0042 -0.0202 -0.2449
12789W        W13653  16.179   9.908  11.298 -0.1808 -0.0637  0.2379
12790W        W13654  23.809  22.218  11.198  0.0671  0.0213  0.1743
12791W        W13655  17.117   0.633  12.205 -0.1745 -0.0386 -0.1922
12792W        W13656  14.503  24.011   5.905 -0.1354 -0.0318  0.0853
12793W        W13657  19.330   5.443   1.964  0.1097  0.2913  0.1865
12794W        W13658  10.115  15.591   6.871  0.1448 -0.3199  0.0804
12795W        W13659   7.675  19.925   9.832  0.0477  0.2199 -0.2529
12796W        W13660  10.562  21.949  19.761 -0.0022  0.0391 -0.1389
12797W        W13661  16.085  28.443  12.584 -0.0464 -0.0201  0.1653
12798W        W13662  11.656  11.020   5.056 -0.0473  0.0907 -0.2862
12799W        W13663   1.713  21.058  22.008 -0.3370  0.0992 -0.1715
12800W        W13664   2.184  21.488  26.433  0.1831 -0.0300  0.1711
12801W        W13665  18.054   5.962  19.176 -0.0149 -0.1283  0.0432
12802W        W13666  27.957  11.114   6.053  0.0483  0.0828  0.0701
12803W        W13667  19.275   6.878  25.076 -0.2182 -0.3635  0.1590
12804W        W13668  23.845  11.142   5.998 -0.0375 -0.0661 -0.0598
12805W        W13669  17.624   0.676   2.627 -0.0764 -0.2524 -0.2078
12806W        W13670   9.340  28.384   9.716 -0.0213 -0.0345 -0.1852
12807W        W13671  11.121   6.338  14.197  0.2079  0.2050 -0.3617
12808W        W13672  19.372  22.347  23.953  0.2805 -0.0044 -0.4937
12809W        W13673   4.095  20.989  22.009  0.0118 -0.2557  0.2316
12810W        W13674  11.807  12.862  11.199 -0.1858  0.3655  0.0936
12811W        W13675   9.805  10.647  10.322 -0.1843 -0.2009  0.3664
12812W        W13676  15.338   9.264  15.870 -0.5590  0.2862  0.5116
12813W        W13677   4.581   1.343  21.154 -0.2099 -0.2929  0.2522
12814W        W13678  20.587  22.786  14.058  0.3373 -0.0099 -0.1051
12815W        W13679   0.275   9.267  22.759 -0.1770 -0.3795 -0.0480
12816W        W13680   8.109  10.065   3.726 -0.1145 -0.3242  0.0753
12817W        W13681  13.461   4.746  21.809  0.0275 -0.1435  0.1265
12818W        W13682  20.090  10.757   2.208  0.4249 -0.0222  0.1118
12819W        W13683  15.151  24.523  26.240  0.0282 -0.1257  0.2692
12820W        W13684   4.584  25.055  15.119 -0.0427 -0.0301 -0.1496
12821W        W13685  23.876  23.602  11.199  0.0477  0.2406 -0.1433
12822W        W13686  18.382  18.008  28.477 -0.3469  0.2064 -0.3333
12823W        W13687   2.278  25.818  16.675  0.2524  0.0808 -0.0657
12824W        W13688   6.645  16.117  14.832  0.4587  0.0441 -0.0105
12825W        W13689  22.904   6.869  15.248 -0.2219 -0.0088  0.0475
12826W        W13690  13.870   5.169  13.106 -0.3480 -0.1671 -0.2062
12827W        W13691  12.314  27.112   7.349  0.1630  0.2003 -0.0297
12828W        W13692  23.033  20.293  26.143  0.0398  0.1846  0.0132
12829W        W13693   7.236   8.335   7.410  0.1526 -0.3203 -0.0216
12830W        W13694  18.292  28.685   9.776 -0.5301  0.2273 -0.1912
12831W        W13695   3.617   8.815  15.634  0.0445 -0.0742 -0.1729
12832W        W13696   2.547  12.873   7.111 -0.0565 -0.1970  0.0830
12833W        W13697  18.437  13.270  15.384  0.1991 -0.0727 -0.1241
12834W        W13698  12.010  23.599  17.291  0.0070  0.0855  0.0919
12835W        W13699  17.447  24.192   7.154  0.1382 -0.0977  0.0639
12836W        W13700  13.235   1.971  26.287 -0.1322 -0.0303 -0.1805
12837W        W13701  28.124   5.536  18.301 -0.1897  0.0100  0.0085
12838W        W13702  14.497  28.615   7.818  0.1246  0.0590  0.2432
12839W        W13703   6.698  22.967  27.901  0.2167  0.0556  0.0247
12840W        W13704   8.065   8.760  27.326  0.1969  0.1692  0.1662
12841W        W13705   3.692   8.651   6.062 -0.0530  0.0602 -0.1034
12842W        W13706  20.128  18.629   8.593  0.0456  0.1942  0.3615
12843W        W13707  14.953   8.876   0.271 -0.0478 -0.0645  0.1350
12844W        W13708  22.324   9.526  28.625 -0.0249 -0.0088 -0.0805
12845W        W13709  22.553  11.329  16.212  0.2676 -0.1992  0.0453
12846W        W13710   9.550  17.396   8.479  0.1499 -0.0145 -0.2575
12847W        W13711   6.565  16.383  25.760 -0.4764  0.0570  0.0384
12848W        W13712   0.391  17.944  23.090 -0.2125  0.2189 -0.0601
12849W        W13713   5.886  12.519  21.417  0.1317 -0.2783 -0.0861
12850W        W13714  26.799   0.193  11.353  0.1751 -0.0848  0.0727
12851W        W13715  12.696   9.814   2.119  0.0861 -0.0097 -0.1839
12852W        W13716  10.331   4.503  27.685  0.2101 -0.1797 -0.1333
12853W        W13717  22.232  14.083   6.773  0.3039  0.1799 -0.1195
12854W        W13718  20.359   4.077   7.721  0.0023 -0.0309 -0.0612
12855W        W13719   9.675  25.397  14.770  0.2166  0.0360 -0.0031
12856W        W13720   0.844  18.147  23.044 -0.0332 -0.2516  0.3151
12857W        W13721   9.023   8.432   6.876  0.0147  0.3123  0.1092
12858W        W13722   5.898  10.627  26.234 -0.1574  0.2002  0.0677
12859W        W13723  17.674  21.113  19.828  0.0997 -0.2648 -0.0009
12860W        W13724   5.118  15.043   8.503  0.0973  0.0557 -0.0872
12861W        W13725  24.683  23.687   9.965 -0.2473  0.1165 -0.1668
12862W        W13726   5.245  27.187  28.665  0.0001 -0.0614 -0.1315
12863W        W13727  25.654  10.187   5.065 -0.3304 -0.2494 -0.0447
12864W        W13728   9.368   6.104  26.566  0.0728  0.0130  0.1546
12865W        W13729   6.325   3.108   9.278 -0.1553 -0.0453  0.2248
12866W        W13730   4.575  13.111  22.071  0.3228  0.2496  0.2575
12867W        W13731  11.950  13.657   1.845  0.2000 -0.0368 -0.1001
12868W        W13732  20.141  16.989   9.272  0.0718  0.1018  0.2514
12869W        W13733  26.810  12.696   4.857  0.0423 -0.0120  0.0719
12870W        W13734  27.349  27.707  18.512  0.3995 -0.3262 -0.0583
12871W        W13735  23.290  13.820   6.404  0.0127 -0.5286 -0.0855
12872W        W13736  25.748   7.622   8.537  0.1308  0.2391 -0.1611
12873W        W13737  28.727  14.022  14.328 -0.1219 -0.3339 -0.1426
12874W        W13738  25.625   1.096  14.302  0.0962  0.1267 -0.2110
12875W        W13739  19.806  16.825  22.935 -0.2418  0.1719  0.0201
12876W        W13740  10.944  13.801  26.491 -0.1983  0.0300  0.2339
12877W        W13741  22.234   4.039   3.107  0.0975  0.2524  0.0446
12878W        W13742   6.270  13.854  18.715 -0.0031  0.3038 -0.0873
12879W        W13743  19.600  15.386  27.819  0.1100  0.0519 -0.1594
12880W        W13744  14.419  23.612  18.422  0.1782 -0.0909  0.0344
12881W        W13745  19.787  14.808   5.232  0.0625  0.0431  0.1419
12882W        W13746  11.426  13.383  10.357 -0.3733  0.3119 -0.1112
12883W        W13747  12.666  29.126  11.551  0.0143 -0.1335 -0.3070
12884W        W13748  25.737  23.036  10.801 -0.0370 -0.0547 -0.2277
12885W        W13749  19.426  23.681  25.556  0.0285  0.3054 -0.0657
12886W        W13750  25.831  27.111   3.797 -0.0895 -0.2061  0.4502
12887W        W13751   8.843  16.407  18.414  0.1147  0.1622 -0.2281
12888W        W13752  13.022  15.206  12.412  0.1725 -0.4136 -0.0720
12889W        W13753  20.816   3.904   5.367 -0.3905  0.1815 -0.2072
12890W        W13754   1.514   8.367  21.642 -0.0119  0.0343  0.0108
12891W        W13755  16.922   9.282  12.661 -0.1628 -0.1744 -0.1601
12892W        W13756  17.198   4.338   1.319 -0.0422  0.0547  0.1097
12893W        W13757  26.490  23.393   5.402 -0.0061  0.0330  0.1209
12894W        W13758   8.237  15.041   5.278 -0.0878  0.4692 -0.1718
12895W        W13759   4.115  19.206  13.662  0.1262 -0.3503  0.0502
12896W        W13760  26.633  28.622  16.719 -0.2201 -0.0571  0.1108
12897W        W13761  10.017   2.435  25.833 -0.1066  0.1913  0.1859
12898W        W13762   9.003  12.327  23.858  0.0732  0.0111 -0.1639
12899W        W13763   2.321   5.119  22.646  0.0716 -0.6930 -0.0019
12900W        W13764   1.583  15.311  12.242  0.0243 -0.2236 -0.0056
12901W        W13765  22.066  11.865  11.155  0.2462  0.3432 -0.1896
12902W        W13766   3.851  17.407  14.765 -0.0064  0.2208  0.0487
12903W        W13767   7.494   8.118  28.168 -0.1416  0.1543 -0.2330
12904W        W13768  17.761  19.894  24.974  0.1480  0.0342 -0.1653
12905W        W13769  27.590  24.761  20.928 -0.0273  0.1729  0.1090
12906W        W13770  14.908   4.192   9.863 -0.0751 -0.2840 -0.2766
12907W        W13771  22.928  27.827  21.451 -0.0416 -0.1664  0.1671
12908W        W13772  17.419  12.326   1.641 -0.0049  0.0067 -0.0104
12909W        W13773  17.825  19.989  26.430  0.1686 -0.1225  0.0864
12910W        W13774  11.068   2.651  16.767  0.0405  0.1826 -0.3011
12911W        W13775   9.684  14.903  28.785 -0.1532  0.0361 -0.0589
12912W        W13776  22.153   7.061  16.647  0.0996  0.1308 -0.0850
12913W        W13777  10.956   5.230   8.251 -0.2307  0.0944 -0.0531
12914W        W13778  25.325  27.080   4.561  0.0971 -0.0903 -0.0269
12915W        W13779  10.036  27.466   8.754 -0.0786 -0.2308 -0.1159
12916W        W13780  23.026  19.464  17.995 -0.0640 -0.0093  0.3105
12917W        W13781  10.644   1.713  10.679 -0.0600 -0.0169 -0.1718
12918W        W13782   1.717  23.727   9.384  0.2236  0.3499  0.2849
12919W        W13783  13.229   3.639   4.307  0.0568 -0.0909 -0.3435
12920W        W13784  19.510  10.786  18.903  0.0606 -0.5273  0.2539
12921W        W13785   5.018  25.276  23.785  0.0530  0.1364 -0.0979
12922W        W13786  13.004   6.746   2.896 -0.1648 -0.1731  0.2731
12923W        W13787   0.470  24.454   5.844  0.3723  0.0503 -0.0645
12924W        W13788  21.253  21.717  20.575 -0.0359 -0.3148 -0.0351
12925W        W13789   7.904   7.973  13.199 -0.0009 -0.1297  0.1137
12926W        W13790  13.262   0.712  15.371 -0.1136  0.0132  0.0666
12927W        W13791  22.472  21.657  14.096  0.0092 -0.2425 -0.1492
12928W        W13792   4.563   7.134   6.013  0.1150  0.0390  0.0025
12929W        W13793   9.924  23.459  10.463  0.0183 -0.0287 -0.2501
12930W        W13794   8.605  11.669  26.630 -0.0590  0.1377 -0.0814
12931W        W13795  15.942  19.011  18.909 -0.1474 -0.0595  0.0792
12932W        W13796   6.555  12.960  22.190  0.0519 -0.0638  0.1537
12933W        W13797  12.492   2.127   1.826  0.2660  0.1194 -0.2179
12934W        W13798   4.182  24.723  19.078  0.1555  0.0112 -0.1813
12935W        W13799   9.931  17.248  22.672 -0.1354  0.0245  0.0368
12936W        W13800   0.698  21.683  15.114 -0.0628 -0.0993 -0.0192
12937W        W13801  10.889  24.124   1.403  0.1734 -0.3816 -0.1244
12938W        W13802   9.683  17.365  24.199 -0.1361 -0.5476 -0.3031
12939W        W13803  12.417  11.440  10.516 -0.1764 -0.4458  0.2137
12940W        W13804   6.324  14.088   5.907  0.0521 -0.0380  0.0345
12941W        W13805   3.357  16.104   5.050  0.0493  0.0137 -0.2144
12942W        W13806  15.856   1.488  17.286 -0.0518  0.0300 -0.0174
12943W        W13807  11.795   4.467   2.255 -0.0828 -0.0466 -0.0127
12944W        W13808   1.595  10.102   4.119  0.2288  0.0688  0.2081
12945W        W13809  15.450   9.833   3.990  0.1516 -0.2403  0.4272
12946W        W13810  11.128   7.332   8.033 -0.0904 -0.0179 -0.0219
12947W        W13811  10.036   6.826  11.182 -0.3391 -0.2279  0.2733
12948W        W13812  24.516   1.355  18.456  0.0441 -0.1059  0.1675
12949W        W13813  16.870  16.979  20.336  0.0243  0.0484  0.4612
12950W        W13814  13.459  19.932  27.592  0.0661 -0.0335  0.3661
12951W        W13815   2.973   4.106  12.017 -0.3968 -0.0394  0.1332
12952W        W13816  16.382  10.665   5.637 -0.0319  0.1676 -0.2575
12953W        W13817  18.562  22.485   5.710 -0.0018 -0.0462  0.1371
12954W        W13818  22.551  13.863  19.431 -0.0166 -0.2198  0.3555
12955W        W13819   1.226   9.094  11.071 -0.0897  0.1027  0.0559
12956W        W13820  15.181  11.614   5.644  0.0646  0.0716 -0.1254
12957W        W13821   8.318  27.775  15.133  0.3371  0.2608 -0.0854
12958W        W13822  24.468   2.311  18.327 -0.0168 -0.2498 -0.1064
12959W        W13823   4.997  20.458   3.032  0.1187  0.0221 -0.0033
12960W        W13824  16.020  27.999  19.919 -0.0085 -0.1381  0.0593
12961W        W13825   4.187  17.365  24.858  0.0113  0.2563 -0.0332
12962W        W13826  13.254  19.887   0.393  0.0052 -0.0206  0.0353
12963W        W13827  12.673   7.297  21.903  0.0448  0.1290 -0.0151
12964W        W13828  10.558  10.249  10.097  0.4468 -0.2188  0.1515
12965W        W13829   4.419   7.367  19.897  0.0735 -0.0611  0.0660
12966W        W13830  28.769   1.390  14.123  0.0439 -0.0874  0.2185
12967W        W13831   9.197  13.359   5.930  0.1800  0.2921  0.2987
12968W        W13832  14.632  21.457   9.267  0.2250 -0.3419 -0.1394
12969W        W13833  18.195  10.850  25.190 -0.3704 -0.0074 -0.0232
12970W        W13834  25.048  11.101  18.989 -0.1164 -0.1680 -0.2077
12971W        W13835   0.944  15.209   4.302 -0.1300  0.1041 -0.0688
12972W        W13836  29.052  19.362  18.321 -0.0539 -0.3504  0.2338
12973W        W13837  21.636  21.616  25.070  0.2769 -0.0562 -0.1311
12974W        W13838  22.579  18.318   3.834 -0.0389  0.2691  0.1558
12975W        W13839  28.141  12.338  28.882  0.1040 -0.1394 -0.1954
12976W        W13840   5.137  27.018   4.368  0.2396  0.0827  0.0101
12977W        W13841   4.190  20.334   3.313 -0.1463  0.0009 -0.0791
12978W        W13842  15.686  18.493   3.365 -0.3172  0.0092 -0.3227
12979W        W13843  22.681  26.297  26.365 -0.3099 -0.1417  0.1194
12980W        W13844  24.252   1.849  21.681 -0.2062 -0.4116 -0.0390
12981W        W13845  13.862   0.797  12.331  0.0270 -0.1413  0.3640
12982W        W13846  24.305  23.076  15.981 -0.2564  0.0179  0.2414
12983W        W13847  14.777  27.754  13.782 -0.0463 -0.1557 -0.0102
12984W        W13848  16.560  22.548   6.473 -0.0300  0.1086  0.0555
12985W        W13849  10.921  28.564  16.943 -0.0558 -0.0369 -0.0841
12986W        W13850  15.116  21.353  22.830 -0.1182  0.0122  0.1552
12987W        W13851   5.338  18.161   4.165  0.1747  0.1404 -0.0907
12988W        W13852  19.113  15.250  27.551  0.2289 -0.1488 -0.1206
12989W        W13853  28.918  15.880  20.262 -0.3676 -0.1790 -0.4188
12990W        W13854  14.103   0.108   9.079 -0.2555 -0.0093  0.1033
12991W        W13855  16.146   1.887   0.018 -0.0796  0.2910 -0.2106
12992W        W13856  28.329   8.950  24.662  0.0228  0.2641 -0.0411
12993W        W13857  16.296  21.426  11.372  0.0843 -0.0384 -0.1025
12994W        W13858   3.398   7.712   5.917  0.1143 -0.1018 -0.1048
12995W        W13859  22.822  16.716  22.060 -0.0540 -0.1735 -0.0088
12996W        W13860   4.038   3.260   9.347 -0.2520 -0.1442  0.1049
12997W        W13861  26.618  10.266   5.953  0.3973  0.0797 -0.3146
12998W        W13862  19.414  25.674  18.423 -0.4131 -0.0274 -0.0854
12999W        W13863  21.636  18.028  17.656 -0.1249 -0.1937  0.2376
13000W        W13864  15.815   1.510   6.228  0.2307  0.2064 -0.0280
13001W        W13865  14.611  14.027  24.625  0.1459 -0.1002  0.1622
13002W        W13866   9.854  13.393   6.123  0.1772 -0.0799 -0.2382
13003W        W13867  19.240   4.928  22.356 -0.0530  0.1975  0.0793
13004W        W13868  25.240  19.838  13.431  0.2794  0.0337  0.0738
13005W        W13869  28.171   1.545  16.137 -0.1864 -0.1693  0.0022
13006W        W13870   6.965  19.134  25.206 -0.0766 -0.0580 -0.1291
13007W        W13871   7.238   8.805  20.675  0.3135 -0.1968  0.0284
13008W        W13872  17.828  19.285  12.289 -0.1002 -0.1942 -0.1266
13009W        W13873  14.410  23.974   6.461  0.1580  0.0856 -0.2097
13010W        W13874  13.221  13.732  17.378 -0.0319 -0.3749 -0.1899
13011W        W13875   6.979  16.708  24.923  0.1145 -0.4004 -0.0361
13012W        W13876   7.391  10.651   9.056  0.0236 -0.2068 -0.2021
13013W        W13877  23.182  20.343   3.735  0.1092 -0.0243 -0.1969
13014W        W13878  14.916   9.787   9.855  0.1503  0.2926 -0.0085
13015W        W13879   0.165  26.396  18.013 -0.1336 -0.2181 -0.0883
13016W        W13880  28.436   8.824  15.823  0.0830 -0.0383  0.3597
13017W        W13881  18.236  12.118  10.918 -0.0242  0.1736  0.2331
13018W        W13882   5.966  13.545  24.408  0.1396  0.1305 -0.3223
13019W        W13883  11.315  11.313   4.136  0.1108 -0.0602  0.0983
13020W        W13884  21.620   7.821  21.089 -0.1792 -0.2664  0.2234
13021W        W13885  19.102  24.664   5.084  0.2818 -0.0450  0.2467
13022W        W13886   5.514  19.857  19.262 -0.0301  0.2616  0.1484
13023W        W13887  10.863   1.631  23.895  0.3637  0.1754  0.2302
13024W        W13888  15.052  15.759  26.671  0.2761 -0.0534  0.2015
13025W        W13889  13.793  25.002  28.752 -0.0332 -0.1368  0.2182
13026W        W13890   9.215  17.332   1.915 -0.3621  0.0434  0.2722
13027W        W13891   9.258  11.222   0.114  0.3038  0.0139 -0.3718
13028W        W13892  10.245  25.541   2.970  0.4414 -0.0867 -0.0031
13029W        W13893   4.629  15.792  13.499 -0.1884  0.1121 -0.2591
13030W        W13894  11.155  23.704   1.371  0.0011  0.3237  0.3454
13031W        W13895  13.813  20.432  16.074  0.2846  0.2034  0.1178
13032W        W13896  24.503   9.738  10.746  0.1151 -0.2839 -0.0465
13033W        W13897   9.147  12.787  27.456 -0.0812  0.0523 -0.0496
13034W        W13898  10.069  15.272   9.575  0.0635 -0.1063 -0.0975
13035W        W13899  27.761  17.589  18.457 -0.0841  0.2656  0.2122
13036W        W13900  25.179  14.911   2.581 -0.0545 -0.0710  0.0333
13037W        W13901   0.789  17.918   0.440  0.0352  0.0376 -0.2139
13038W        W13902   6.353   8.572   8.753  0.1893 -0.0781 -0.2617
13039W        W13903   4.329  27.853  16.555  0.2860 -0.1225  0.2495
13040W        W13904   2.527  12.490  26.521 -0.0053 -0.0778  0.1282
13041W        W13905  17.820   3.209   2.979  0.1406  0.2663 -0.1170
13042W        W13906  18.355   1.602   8.445  0.3612  0.1979 -0.1214
13043W        W13907  12.866  17.108  17.647 -0.2488 -0.2172 -0.0713
13044W        W13908  14.848  20.799  16.795 -0.1454  0.1512 -0.1298
13045W        W13909   4.040  13.530  29.075 -0.0411  0.3518 -0.1128
13046W        W13910  15.730  16.210  12.975  0.1000 -0.1339 -0.1946
13047W        W13911  24.006  16.298  13.016 -0.3156  0.1815 -0.1677
13048W        W13912  26.118  20.749  17.279  0.3032  0.2624  0.0023
13049W        W13913  10.530   8.992  25.290  0.3229  0.4869  0.2329
13050W        W13914   5.094   0.977  27.640  0.0410 -0.0494  0.1295
13051W        W13915  28.240   7.919  22.590 -0.1395  0.1586  0.5712
13052W        W13916  15.702  24.857  19.657  0.1600 -0.0600 -0.2376
13053W        W13917  16.928   4.506   6.860  0.0848 -0.0666 -0.0290
13054W        W13918  13.238   6.545  26.317  0.3813 -0.0811  0.2743
13055W        W13919   7.490  18.806  10.044 -0.0626 -0.5820  0.0848
13056W        W13920  22.785  10.394  23.321 -0.2340 -0.2439  0.2372
13057W        W13921   6.975  18.178  24.796 -0.0743 -0.1937  0.0253
13058W        W13922  14.090  16.767   8.140  0.3112  0.0777  0.1748
13059W        W13923   7.593   9.882  17.440 -0.3941 -0.0721 -0.0879
13060W        W13924  18.168  24.816  18.237 -0.0897 -0.2757  0.3430
13061W        W13925  14.325   6.537  15.402 -0.0217  0.0490 -0.2764
13062W        W13926   1.629  18.708  13.684  0.1000 -0.0690 -0.1696
13063W        W13927  20.882  10.792  18.877 -0.5450 -0.2979  0.1281
13064W        W13928  19.448  16.289  19.104  0.0246  0.0056  0.0833
13065W        W13929  18.657   8.805   6.808  0.0038 -0.1034 -0.1366
13066W        W13930  12.593  27.346  28.217 -0.3467 -0.1417 -0.2454
13067W        W13931  20.167  21.866   6.969 -0.0541 -0.0650 -0.0296
13068W        W13932  25.976  18.739   7.952 -0.1115 -0.0019  0.1215
13069W        W13933  19.762   6.069   3.212 -0.1759  0.3077  0.0288
13070W        W13934  23.465  14.011  23.722 -0.1781  0.0271  0.1030
13071W        W13935  13.736  13.566  26.489 -0.0365 -0.0327 -0.0057
13072W        W13936  18.292  27.871   6.836 -0.0788 -0.0890 -0.1860
13073W        W13937  10.115   8.337   3.020 -0.0638 -0.1548 -0.1435
13074W        W13938  12.492  17.459  21.979 -0.1115 -0.2075  0.0311
13075W        W13939  22.329   2.778  27.349  0.0268 -0.0223  0.0585
13076W        W13940  11.379   9.969  27.272 -0.1688  0.0381  0.0968
13077W        W13941  19.325  28.258  28.581  0.0342 -0.0808  0.2321
13078W        W13942  13.123  19.101   8.362 -0.0781 -0.0588  0.0733
13079W        W13943  22.001  17.474   9.206  0.1233 -0.3507  0.2381
13080W        W13944  13.267   9.655  21.073 -0.1383 -0.0336  0.1335
13081W        W13945  19.935  16.550  25.714  0.3204  0.0287 -0.4578
13082W        W13946  13.405  22.068  25.981 -0.0077 -0.0340 -0.1043
13083W        W13947   7.519  17.656  17.042  0.1052 -0.4259  0.2498
13084W        W13948  24.770   7.290  27.952 -0.2389 -0.0728 -0.1082
13085W        W13949  17.086  21.229  13.205 -0.6450 -0.2684  0.0790
13086W        W13950  16.122  14.940  28.257 -0.3395  0.1132  0.2302
13087W        W13951  10.047  12.863   2.389  0.2877  0.0787 -0.0138
13088W        W13952  28.137  26.536  21.388  0.0504  0.1837 -0.1089
13089W        W13953   6.652  17.194  13.021  0.0086  0.2151  0.0367
13090W        W13954   7.931  17.566   8.125 -0.1269  0.0351  0.0871
13091W        W13955  18.881  14.175   3.328  0.0535 -0.3620  0.1444
13092W        W13956  15.526   4.231  23.327 -0.0987 -0.1610  0.0267
13093W        W13957  18.533  17.167  10.195 -0.0775 -0.1100  0.0584
13094W        W13958  28.739  15.679  23.238 -0.0415  0.0786 -0.0821
13095W        W13959  26.576   2.020   9.958  0.0753  0.1600 -0.1387
13096W        W13960   0.474   7.949  21.989  0.1974  0.0789 -0.1472
13097W        W13961  11.437  21.958  19.207  0.1727 -0.0156 -0.0369
13098W        W13962  20.696  25.782   2.156  0.3932 -0.0802  0.2697
13099W        W13963   9.614  20.595   8.124  0.0937  0.0380  0.4682
13100W        W13964  14.129   1.293  10.425 -0.1986  0.2710  0.1802
13101W        W13965   9.954  19.178   8.110  0.3953  0.0797 -0.0589
13102W        W13966   3.974   6.178   1.708  0.0200 -0.3013 -0.2104
13103W        W13967  26.913   3.746   8.511 -0.3020  0.0426 -0.1152
13104W        W13968  22.324  20.811  17.164 -0.1314 -0.0917 -0.2517
13105W        W13969  15.309  28.750   3.123  0.0736  0.2068  0.2367
13106W        W13970  10.030   3.430  22.915  0.2308  0.0721  0.4822
13107W        W13971   1.468  10.172   0.752  0.0098  0.2609 -0.2598
13108W        W13972  15.260  26.264   6.849 -0.0013 -0.1578  0.1929
13109W        W13973   1.075  23.159  24.585 -0.0647  0.2716  0.1563
13110W        W13974  28.516   2.507  18.602 -0.0689  0.2049 -0.1866
13111W        W13975  12.455  22.714  10.665 -0.0732 -0.1292 -0.1488
13112W        W13976  15.392  13.568   3.827 -0.0945 -0.1688  0.0979
13113W        W13977  12.078  19.267  28.594  0.1996  0.2291  0.2631
13114W        W13978  16.449  11.535  14.405 -0.2106 -0.0628  0.2208
13115W        W13979   6.854  25.148  13.478  0.0566 -0.1418 -0.0089
13116W        W13980   9.983   6.673   7.970 -0.0000  0.0536  0.4005
13117W        W13981   9.180   9.433  25.239 -0.2593 -0.2226 -0.4500
13118W        W13982   3.744  14.321  27.233 -0.0700 -0.4624  0.1527
13119W        W13983  13.155  11.605  25.924 -0.1243  0.1059  0.0676
13120W        W13984   9.443  14.730   5.058  0.1099 -0.1609 -0.1417
13121W        W13985  10.394  22.193  27.544 -0.0092  0.3506 -0.0813
13122W        W13986  14.054  13.464  25.707  0.1236 -0.2101 -0.1997
13123W        W13987  17.625  15.736  25.192  0.0877  0.3173  0.1078
13124W        W13988  24.292  16.055  14.790  0.0907  0.0238  0.1509
13125W        W13989  16.567  20.303   1.938  0.0691 -0.1589 -0.2693
13126W        W13990  18.573   8.854   0.933  0.0637 -0.1502  0.1948
13127W        W13991  20.656  26.162  24.255  0.1787 -0.1445 -0.0159
13128W        W13992  22.519  12.785  28.675  0.1324 -0.1605  0.1225
13129W        W13993   4.343   1.859   5.061  0.2385  0.0685  0.1646
13130W        W13994  28.263   0.909  18.001 -0.0077  0.0669 -0.0768
13131W        W13995  19.719   8.409   4.146  0.2936 -0.2911  0.0657
13132W        W13996  23.885  12.300  25.864  0.2695 -0.2181 -0.3525
13133W        W13997  13.728  11.096   9.219 -0.1988  0.0171 -0.0963
13134W        W13998  24.575  15.698   4.663  0.0007  0.1379  0.2949
13135W        W13999  17.956   2.306  20.587  0.0513  0.0058 -0.0935
13136W        W14000   0.847  19.893  19.434 -0.2661 -0.0745 -0.1262
13137W        W14001   4.203  19.276   0.165 -0.0516 -0.0806 -0.1304
13138W        W14002   8.887  11.658  28.681 -0.0417  0.3531 -0.2776
13139W        W14003  15.244  22.253   8.650 -0.1411  0.0816 -0.0364
13140W        W14004  18.215   8.187   2.572  0.2903  0.0177  0.0191
13141W        W14005  19.135  28.152   8.081  0.1796  0.2593 -0.1134
13142W        W14006  17.380  13.833  18.088 -0.1557  0.1439 -0.0573
13143W        W14007   1.067  10.079  22.713 -0.0496 -0.0761 -0.0815
13144W        W14008   3.880  12.685  17.577  0.1780  0.0938  0.1480
13145W        W14009  13.477   1.357  27.298  0.0563  0.1660 -0.0647
13146W        W14010  24.876   7.998  15.759  0.4448  0.0588  0.1213
13147W        W14011  17.544  23.660  20.305  0.3651 -0.2035 -0.3704
13148W        W14012  25.840   6.501  26.131  0.0996  0.2039 -0.0808
13149W        W14013  20.422  28.203   3.847  0.1414  0.1663 -0.1726
13150W        W14014   7.617  14.962  24.438 -0.3265 -0.0592 -0.3132
13151W        W14015   8.457   8.448  22.914 -0.1646  0.3988 -0.0076
13152W        W14016  13.307   6.238   4.467 -0.0893 -0.3133 -0.1926
13153W        W14017  21.453  17.039  22.584 -0.0849  0.0289  0.1931
13154W        W14018  13.305  25.483   7.903  0.1095  0.0587  0.1625
13155W        W14019   2.574   3.226   1.680  0.1174 -0.1624  0.1401
13156W        W14020  14.468  26.387  15.878  0.0484 -0.0528 -0.1834
13157W        W14021  23.531   9.366  16.721 -0.0496 -0.0556  0.1886
13158W        W14022  26.154  24.882   0.929  0.1028 -0.0458  0.2411
13159W        W14023  20.312   8.713   4.389 -0.2415 -0.0215  0.3229
13160W        W14024  26.407  17.622  22.119  0.1448  0.3630  0.0451
13161W        W14025   3.314   9.270  13.646 -0.1503  0.0824 -0.3075
13162W        W14026  17.679  20.161  21.089 -0.0309  0.5060  0.2575
13163W        W14027   9.038  16.045  13.036 -0.2287 -0.2488  0.0374
13164W        W14028  10.765  18.729  14.966 -0.0825  0.0008 -0.1042
13165W        W14029  15.687  16.228   4.859 -0.4102  0.1747 -0.1892
13166W        W14030  24.248  10.301   9.859 -0.2278 -0.1386 -0.0423
13167W        W14031  17.705   6.077   9.597 -0.0020  0.2604  0.1950
13168W        W14032  27.580   0.534  14.029 -0.1179 -0.2290  0.0341
13169W        W14033  27.708   4.608  18.151 -0.2880 -0.2103 -0.0213
13170W        W14034   7.745  17.289  28.105 -0.2197  0.3765  0.0187
13171W        W14035  13.185   1.815   6.702 -0.3677  0.2877 -0.0747
13172W        W14036  23.917   0.644  27.530 -0.1335  0.3012 -0.0250
13173W        W14037   8.748  15.126  12.342 -0.2918  0.2502 -0.0549
13174W        W14038   9.740  24.468   5.949 -0.1644  0.0699  0.0318
13175W        W14039  27.748  28.719   8.375 -0.0328  0.1500 -0.3739
13176W        W14040   2.681   9.658  22.133 -0.2229  0.1852 -0.0324
13177W        W14041   7.678  12.018  11.134 -0.0573 -0.2005  0.1154
13178W        W14042  11.285   6.512  16.956  0.2384 -0.1931  0.1146
13179W        W14043   0.542   8.951   8.491  0.1485  0.0920  0.0420
13180W        W14044  19.512   8.245  12.239 -0.0030 -0.0072 -0.0208
13181W        W14045  16.586  11.859  24.696  0.1511  0.1308 -0.2562
13182W        W14046  18.852  24.896  24.844  0.0986 -0.1529 -0.0528
13183W        W14047   1.964   3.308  15.070  0.0566  0.0816 -0.0053
13184W        W14048  21.048   9.788  10.990  0.1441  0.2943 -0.0626
13185W        W14049  18.708  21.486  19.935 -0.1280 -0.1025 -0.0159
13186W        W14050   3.786  26.573   3.995  0.1121 -0.0694  0.0881
13187W        W14051  13.308  17.113  13.876 -0.1606  0.0883  0.1509
13188W        W14052  13.668  26.024  14.913  0.1584 -0.1710  0.0264
13189W        W14053  20.721  28.038  22.192 -0.2001 -0.1614 -0.0674
13190W        W14054  13.073   4.849  28.731  0.3628 -0.0020 -0.0107
13191W        W14055  26.547   9.027  10.904  0.0228  0.0592 -0.0762
13192W        W14056  25.434  19.290   6.811 -0.2181 -0.3380 -0.0374
13193W        W14057   9.375  18.331  25.389 -0.2424  0.0077  0.1047
13194W        W14058   6.636   8.369   6.077  0.3434 -0.0125 -0.3134
13195W        W14059  21.954   9.153  16.238 -0.0157  0.2971 -0.3105
13196W        W14060  13.437   5.956  13.084 -0.1974  0.1689 -0.0941
13197W        W14061  10.546   8.518  16.315 -0.1715 -0.5056 -0.0916
13198W        W14062  12.809  11.408  16.814 -0.1742 -0.1047 -0.0805
13199W        W14063  16.009  18.734   5.746 -0.0079 -0.0854  0.3815
13200W        W14064  13.611   2.635  13.983 -0.0435 -0.1494 -0.1498
13201W        W14065  13.158  11.749   7.827 -0.1818  0.0030  0.0988
13202W        W14066  16.901  13.683   0.124 -0.0822  0.1220 -0.0199
13203W        W14067   6.718   9.032  16.160 -0.1953  0.2614  0.2788
13204W        W14068  26.180  16.120   1.777  0.3766 -0.1574  0.0337
13205W        W14069  26.790   8.946  14.222  0.3084  0.2856  0.2474
13206W        W14070  15.869   3.623  11.151 -0.2681 -0.1254 -0.0983
13207W        W14071   9.686  22.672  23.153 -0.3010  0.0084  0.0857
13208W        W14072  15.373  10.067  17.313 -0.1224 -0.0088 -0.3157
13209W        W14073  15.241  16.303  14.584 -0.3714 -0.0353  0.2182
13210W        W14074   7.107  20.080  10.690  0.0179  0.0881  0.1719
13211W        W14075  10.272  14.578  27.567  0.2393 -0.2211 -0.2570
13212W        W14076  18.294   8.149  12.873  0.0940 -0.1571  0.0774
13213W        W14077  15.127  10.495  11.892 -0.0551 -0.0889 -0.2631
13214W        W14078   2.693  18.908  19.894 -0.1465  0.0181 -0.1082
13215W        W14079  27.309  11.578  20.601  0.4013 -0.0959  0.0973
13216W        W14080  16.699  28.318   2.147  0.2988 -0.2491  0.1927
13217W        W14081  28.854  15.641  22.070 -0.2980  0.1808  0.0763
13218W        W14082  28.944  16.313  14.596  0.5033  0.0140  0.1314
13219W        W14083  17.089   5.820   9.248 -0.5116 -0.1274 -0.1039
13220W        W14084  12.142  27.881  11.863  0.4289 -0.1189  0.0144
13221W        W14085  23.387  12.118   7.329 -0.1021  0.1083  0.0909
13222W        W14086  18.636  22.721  12.174 -0.2824 -0.0837  0.2023
13223W        W14087   4.426  29.031  14.860 -0.0354  0.1980  0.3497
13224W        W14088  20.280  27.211   4.382  0.0854 -0.3527  0.1492
13225W        W14089  18.546   4.002  12.186 -0.0432 -0.1042 -0.1301
13226W        W14090   6.477  12.207   7.960 -0.0440  0.0680  0.1208
13227W        W14091   0.970  14.689   9.360 -0.3280 -0.3088  0.0027
13228W        W14092  12.111  24.701  21.374 -0.0338  0.2900 -0.3694
13229W        W14093  13.413  20.264   9.952 -0.0660 -0.1914  0.0602
13230W        W14094  21.197  11.122   2.923  0.1790  0.1294  0.0674
13231W        W14095  14.572  20.907   6.905 -0.0391  0.0232 -0.1253
13232W        W14096  11.162  17.227  19.212 -0.3285  0.0140 -0.0640
13233W        W14097  22.043  23.820  25.530  0.1723 -0.2088  0.2591
13234W        W14098   9.555  14.364  20.027  0.0736  0.1100  0.1150
13235W        W14099   8.789   4.624  17.590 -0.1053  0.1099  0.0412
13236W        W14100  18.301  20.426   6.548 -0.0076  0.0172 -0.1667
13237W        W14101  15.684  16.363   0.340 -0.1550  0.1127  0.0423
13238W        W14102   0.825  10.414  16.042  0.1611 -0.0393 -0.0251
13239W        W14103  14.892  19.747  14.157  0.2374  0.2698  0.5081
13240W        W14104  14.537   1.852  25.809 -0.3598 -0.3167  0.3039
13241W        W14105  18.284  15.178   6.162  0.1584 -0.1655  0.0062
13242W        W14106  20.118  19.790   4.212  0.0188 -0.0155 -0.0411
13243W        W14107  22.947  19.111   3.294 -0.1357 -0.2774  0.4416
13244W        W14108  22.440   3.207  14.068  0.2283  0.0565  0.2327
13245W        W14109  24.838   4.714  25.092  0.1949  0.1674  0.0605
13246W        W14110  23.797  26.044   7.129  0.0295  0.4540 -0.0307
13247W        W14111  27.598  25.759  27.303 -0.0767  0.0648  0.0889
13248W        W14112   2.083  15.945  10.668  0.6506 -0.1872  0.1270
13249W        W14113  12.656  13.870  10.255 -0.0060 -0.2054  0.2010
13250W        W14114  18.202  23.107   6.883  0.0487 -0.1436 -0.3194
13251W        W14115   4.457  14.583   0.716 -0.1618  0.2249  0.1601
13252W        W14116  10.424   0.876  24.242 -0.1753 -0.1815  0.0712
13253W        W14117  22.274   3.159   9.046 -0.0170  0.0730 -0.3528
13254W        W14118  16.332  18.446  18.113  0.2188  0.2007  0.0421
13255W        W14119  21.269  26.098  27.012 -0.0652 -0.1748 -0.0037
13256W        W14120   1.196   9.677   9.745  0.3270  0.1199  0.1317
13257W        W14121  14.736  16.627   6.123  0.0712 -0.2526 -0.0967
13258W        W14122   4.431   7.290   8.888  0.2112  0.4364  0.1560
13259W        W14123   0.367   9.364  23.297  0.3291 -0.2011 -0.0844
13260W        W14124  12.965  17.708  22.281  0.1527 -0.0215 -0.2176
13261W        W14125  27.432  13.985  16.839  0.1931  0.1734  0.3158
13262W        W14126  19.697  14.435   0.780 -0.4114  0.0373  0.1811
13263W        W14127  21.224  27.399  29.020 -0.2462  0.1879  0.0765
13264W        W14128  16.532  12.145  26.525 -0.0883 -0.2703  0.0544
13265W        W14129  15.189  10.839   9.557 -0.0480 -0.1759  0.0537
13266W        W14130   8.783  13.426  10.144 -0.0765  0.0457  0.3344
13267W        W14131  27.333  23.286   2.583 -0.2107 -0.0069 -0.4141
13268W        W14132  12.362   8.804   2.219 -0.0412 -0.2877 -0.0595
13269W        W14133  14.082  25.878  14.499 -0.1857  0.0509 -0.0734
13270W        W14134   4.753  11.177  28.582 -0.0680 -0.0604  0.1280
13271W        W14135  27.675   5.964  28.190 -0.0079  0.0369 -0.0893
13272W        W14136   0.237   6.534  24.826 -0.2590  0.1653  0.2877
13273W        W14137  29.008  11.472  10.536  0.2019 -0.1801  0.3402
13274W        W14138   2.572   6.432   8.147  0.0108  0.0416 -0.0656
13275W        W14139   6.682   7.206  28.977 -0.2004  0.0515 -0.3423
13276W        W14140   5.392  17.717  24.581 -0.0922  0.0165  0.2180
13277W        W14141  12.417  24.562  26.693 -0.0130  0.0043 -0.1613
13278W        W14142  23.663  12.522   6.170  0.1661  0.0890 -0.1589
13279W        W14143   1.886  27.169   5.615  0.0822 -0.0944  0.2888
13280W        W14144  10.896   8.852   3.446 -0.0136  0.1931  0.1454
13281W        W14145   7.122  10.885   1.168 -0.0576  0.0447 -0.0661
13282W        W14146  17.444   1.008   5.483  0.2041 -0.3097 -0.0167
13283W        W14147  18.456  20.992  13.282  0.0369 -0.2678 -0.0368
13284W        W14148  29.135   2.415  20.089  0.1861  0.1978  0.1104
13285W        W14149   5.583   7.122  18.835 -0.1242  0.1579  0.0065
13286W        W14150  19.668  28.356  16.719  0.0010  0.1287  0.0233
13287W        W14151  25.763   4.280   7.451 -0.0002  0.0378  0.1843
13288W        W14152  27.672  23.602  20.634  0.1440 -0.0024 -0.3612
13289W        W14153  18.418  12.072   9.330  0.0109 -0.1206  0.0136
13290W        W14154   4.236  11.624  21.238 -0.1865  0.0959  0.2056
13291W        W14155  16.463  28.548  28.140  0.0333  0.0452 -0.1474
13292W        W14156   8.498  19.381  24.671  0.1502 -0.2379  0.2089
13293W        W14157   8.286   3.746  22.684  0.2494  0.1644 -0.0813
13294W        W14158  22.422  24.538  11.144 -0.2500 -0.2073 -0.0858
13295W        W14159  17.877  16.968  27.556  0.0043 -0.0773  0.1091
13296W        W14160  19.972   0.491   8.930 -0.3828 -0.1451  0.2527
13297W        W14161  23.811  19.378  25.805  0.4292 -0.0051 -0.0642
13298W        W14162  13.536  23.902  15.116 -0.3170  0.2635  0.1516
13299W        W14163  12.675  12.190   5.775  0.3360 -0.3540  0.3160
13300W        W14164  25.940  21.414  13.450 -0.0940  0.1776  0.1080
13301W        W14165  17.826   7.880  14.235 -0.0605 -0.3262  0.0121
13302W        W14166   1.264  22.688  29.119  0.3077 -0.1624  0.0535
13303W        W14167   4.551   6.978   6.880 -0.1185  0.3546  0.1420
13304W        W14168   3.333  19.846  10.087 -0.1138 -0.1940  0.3324
13305W        W14169  25.013  26.747  18.978  0.1125  0.2529  0.1413
13306W        W14170  12.761  27.269  14.679 -0.0267  0.1630 -0.0720
13307W        W14171  23.314  10.619  14.929 -0.1625  0.0798 -0.1310
13308W        W14172  15.587  24.731   9.525  0.0840  0.2952 -0.3298
13309W        W14173  26.971   3.898  22.768  0.0155  0.2862  0.1329
13310W        W14174   0.583  20.592   0.067 -0.0978 -0.0046 -0.1294
13311W        W14175   6.787  18.934   9.294  0.2507  0.0809  0.1424
13312W        W14176   0.491  13.188  19.677  0.0652  0.2069 -0.1784
13313W        W14177  23.637  24.758   0.874 -0.0033  0.0912  0.1134
13314W        W14178  26.055  23.799  12.849 -0.0480  0.1521  0.0118
13315W        W14179  25.172  15.100  24.649  0.0781 -0.0298 -0.0379
13316W        W14180  26.841   9.830  10.908  0.1346 -0.0812 -0.0049
13317W        W14181  17.433  13.836   8.028  0.0319 -0.2018 -0.1676
13318W        W14182   1.288  15.672  13.449 -0.2544  0.1493 -0.0959
13319W        W14183  23.561  24.873   4.764  0.0021 -0.1362  0.3421
13320W        W14184   4.767   3.473  16.743 -0.0600  0.1423  0.0903
13321W        W14185   2.173  25.400  15.824 -0.0035 -0.2664 -0.0570
13322W        W14186  12.109  25.829   7.817  0.0191 -0.1063 -0.1125
13323W        W14187  11.103  19.111  15.192 -0.0162 -0.0503  0.0095
13324W        W14188  21.022  23.537  15.757 -0.1267  0.4390 -0.0739
13325W        W14189   1.973   4.366  11.450 -0.0003  0.0286  0.0955
13326W        W14190  20.105  20.824   4.189 -0.0567 -0.1429 -0.0181
13327W        W14191  12.406   2.221   5.986  0.1184  0.0067  0.0083
13328W        W14192  20.214  17.706  16.959  0.0877 -0.2918 -0.0783
13329W        W14193  15.167   6.982  25.498 -0.3049 -0.0998 -0.1945
13330W        W14194  11.389   2.178  13.820  0.1271  0.2213 -0.1454
13331W        W14195  13.247  27.358  17.641  0.0782 -0.3602  0.3699
13332W        W14196  25.463  27.572   2.902 -0.1513  0.2250 -0.2222
13333W        W14197  22.807  22.697  10.404 -0.2988  0.0403  0.0424
13334W        W14198  23.051  21.176  15.372  0.2689 -0.1350  0.2217
13335W        W14199  23.147  11.817   4.344 -0.2080  0.0459 -0.0166
13336W        W14200  23.732   2.426  11.049 -0.1441 -0.1542  0.1140
13337W        W14201  11.462  10.567  16.560  0.1822 -0.2723 -0.1060
13338W        W14202  23.292   0.892   7.205  0.1507 -0.0880 -0.4329
13339W        W14203  28.087  18.170  14.381  0.4599 -0.2129 -0.1805
13340W        W14204  16.198  23.403  12.788 -0.0926  0.1197 -0.0689
13341W        W14205  17.797  10.963   3.453 -0.2960  0.3368 -0.2035
13342W        W14206  13.061  25.824  10.063 -0.2232  0.1305 -0.2590
13343W        W14207  23.987   7.647  20.763 -0.2586  0.1134  0.1344
13344W        W14208   3.816   9.176   7.504 -0.0042 -0.0706  0.2177
13345W        W14209  15.400  24.452  19.695  0.0937  0.2559  0.0104
13346W        W14210   8.869   7.421  24.889 -0.2785  0.0314  0.0698
13347W        W14211  27.691  18.416  13.541  0.1287 -0.0073 -0.4322
13348W        W14212  25.707  16.413  20.904 -0.1583  0.2366 -0.3382
13349W        W14213  14.791  11.934   7.553 -0.0473 -0.0275  0.0466
13350W        W14214   1.089  11.474  21.215 -0.1014 -0.2429  0.0855
13351W        W14215   6.671  10.968  13.055 -0.2031 -0.3390  0.0622
13352W        W14216  25.046  12.726  17.388 -0.2265 -0.3322  0.0220
13353W        W14217   1.404   4.218  28.257  0.0922  0.1420  0.0279
13354W        W14218   7.057  19.845  11.667 -0.1427 -0.1951  0.2419
13355W        W14219  22.377   2.082  20.196  0.1229  0.0681  0.3968
13356W        W14220  20.319  26.123  12.614  0.0286 -0.0074 -0.4046
13357W        W14221  10.049  13.744  21.092  0.1118  0.0404 -0.0741
13358W        W14222  11.414  10.023   3.697  0.4906 -0.0048 -0.0153
13359W        W14223   3.437  24.775  28.194 -0.0192  0.3152  0.0406
13360W        W14224  23.822   7.745   4.254 -0.3894  0.0858 -0.1187
13361W        W14225  11.143  19.101  15.798 -0.0933 -0.0226 -0.0664
13362W        W14226   7.718  10.023  23.757  0.0520  0.2249 -0.2651
13363W        W14227  24.098   8.433  10.740 -0.1147  0.1784 -0.0968
13364W        W14228  23.073  12.139  28.280  0.1715  0.1959  0.0105
13365W        W14229  26.348  19.736   7.052 -0.0968 -0.1167 -0.0381
13366W        W14230  21.088  11.134  12.691 -0.4879  0.0070  0.0965
13367W        W14231  21.694   3.041  19.377  0.2643  0.1045 -0.0577
13368W        W14232  16.529   9.444  18.659  0.1557  0.3690 -0.1083
13369W        W14233  22.612   4.619  25.204  0.0553 -0.0458 -0.3049
13370W        W14234  11.114  17.371  16.066  0.2435  0.0275  0.0044
13371W        W14235   6.312   5.970  23.794  0.0161  0.3521  0.1282
13372W        W14236  15.309   7.018  12.636  0.1050  0.1088  0.1384
13373W        W14237   8.845   1.146  12.686 -0.2136 -0.0942  0.1686
13374W        W14238  20.951  17.607  14.649  0.1103 -0.1628 -0.0480
13375W        W14239  16.257   5.835  19.080  0.0099 -0.3037  0.1693
13376W        W14240   8.153  25.863  15.573 -0.1856  0.3848  0.1974
13377W        W14241   4.462   7.383  14.625  0.1121  0.1584 -0.0985
13378W        W14242  16.453   4.843  21.249 -0.1672  0.1501 -0.1095
13379W        W14243   2.906   1.234  23.310  0.1193 -0.0897 -0.2707
13380W        W14244  13.936   3.676   4.822  0.0885  0.0816  0.2672
13381W        W14245   0.475   1.908  25.484  0.0852 -0.1087  0.1226
13382W        W14246  23.867  10.635   9.791  0.2340  0.1025  0.4917
13383W        W14247  17.881   7.957  11.910  0.0794 -0.0426  0.1813
13384W        W14248  11.663  17.711  10.079 -0.2353 -0.0168 -0.0502
13385W        W14249  16.271  16.036   3.583 -0.0608  0.2109  0.0800
13386W        W14250   1.382  15.184  19.555  0.1385 -0.1625 -0.2747
13387W        W14251  26.778  11.437  22.500 -0.2684  0.0134 -0.1648
13388W        W14252  14.023  20.003  28.273  0.0093  0.0209  0.2709
13389W        W14253  11.584  15.520  13.761  0.1953 -0.0518 -0.2970
13390W        W14254  16.654  23.670  23.958  0.2776  0.0134 -0.2294
13391W        W14255  14.341   3.443  27.764 -0.0480  0.1036  0.1939
13392W        W14256  23.000   1.963   7.038 -0.0865  0.0063  0.0183
13393W        W14257  21.492  10.587  24.320 -0.0608  0.0988 -0.3221
13394W        W14258  19.436  11.625  17.097 -0.1300  0.1768 -0.3071
13395W        W14259   5.278  10.667   8.438 -0.0247  0.1412  0.3506
13396W        W14260  19.126  16.296  15.276  0.0873  0.0501  0.0419
13397W        W14261  18.365  15.960  27.024  0.3031  0.0471 -0.0863
13398W        W14262  21.622  18.563   1.157 -0.0613  0.0041  0.1451
13399W        W14263  17.341  17.022   5.732 -0.2723 -0.0788 -0.0897
13400W        W14264  28.221  12.522  17.148 -0.2248  0.2401 -0.0235
13401W        W14265  17.523  13.643   6.529  0.0540  0.3876  0.2759
13402W        W14266  26.176   0.548  27.513  0.2052  0.1328  0.0393
13403W        W14267  21.530  18.231  16.915 -0.0999 -0.1323 -0.0033
13404W        W14268  22.751  16.312  15.090 -0.1187  0.0973 -0.3026
13405W        W14269  24.766  20.659  13.130  0.0091  0.1678 -0.2153
13406W        W14270  25.077  19.129  26.025 -0.1096 -0.0949  0.3047
13407W        W14271  18.899   2.781  24.645 -0.1377 -0.2056 -0.0475
13408W        W14272  25.950  11.390  13.562 -0.0307  0.2075  0.2604
13409W        W14273  13.409  21.285  11.220  0.1534 -0.0393  0.0224
13410W        W14274   5.895  14.762   8.072  0.0613  0.2967  0.0684
13411W        W14275  13.181  14.335  21.575 -0.0148 -0.0681  0.0803
13412W        W14276  25.158   2.836  10.644  0.1712 -0.0982  0.2896
13413W        W14277  14.728  24.888   9.741 -0.2989 -0.0435  0.1070
13414W        W14278  17.478  16.850  16.943  0.0098 -0.3405 -0.1791
13415W        W14279  11.154  26.748   3.746  0.1021  0.0563  0.1375
13416W        W14280  10.160  15.650   5.343  0.1991  0.0981  0.1613
13417W        W14281   0.541  17.328   8.201  0.0790  0.0359  0.0063
13418W        W14282   1.697  23.368  19.630 -0.1071  0.0220 -0.1151
13419W        W14283  23.610  21.623   0.441  0.1162  0.2224 -0.3837
13420W        W14284  17.484   5.782  12.424  0.0226  0.0573  0.0324
13421W        W14285  27.059   6.975   0.257 -0.0327 -0.1158  0.0383
13422W        W14286  17.449  21.051  17.985 -0.3007 -0.0964 -0.1191
13423W        W14287  22.719   8.820  18.414  0.0542 -0.0979  0.0996
13424W        W14288   1.140   2.365   3.762  0.0321 -0.0375  0.0027
13425W        W14289  22.839  11.106  18.626 -0.0915  0.4726  0.0089
13426W        W14290  22.806  28.275  26.259  0.0646 -0.0403 -0.4618
13427W        W14291  14.097  20.075  20.446 -0.0981 -0.0107  0.1870
13428W        W14292  20.400  26.274  18.786  0.1243 -0.2379  0.0518
13429W        W14293   2.810   9.679   8.005  0.0768 -0.2307 -0.2297
13430W        W14294  23.011   0.777  11.601 -0.1157 -0.0113 -0.2723
13431W        W14295   4.755  10.337  10.084  0.2661  0.2777 -0.2029
13432W        W14296  14.689  25.720  11.081  0.0323 -0.2856 -0.0652
13433W        W14297  25.891  23.657  15.269 -0.1284  0.1341 -0.1271
13434W        W14298   5.990   6.470  24.583  0.3832  0.1313 -0.4235
13435W        W14299   8.704  23.541  11.587 -0.0972  0.3208  0.1035
13436W        W14300   4.052  26.898   3.079 -0.1596 -0.1894 -0.2255
13437W        W14301  20.845  24.205  10.879  0.3431  0.1369 -0.0207
13438W        W14302  28.178  18.411   9.628 -0.3374  0.3253  0.2404
13439W        W14303  13.353  14.360  14.914  0.0186 -0.1200 -0.0602
13440W        W14304  27.028  26.328  10.492 -0.0761  0.1664  0.2370
13441W        W14305  16.859   6.175   3.731 -0.0206  0.0852 -0.2308
13442W        W14306   7.767  22.597  22.454 -0.0925  0.2626  0.2277
13443W        W14307  12.251  24.673  18.532  0.1628 -0.2476  0.0142
13444W        W14308   8.943  27.636   1.966 -0.0984  0.0222  0.0875
13445W        W14309  13.368  11.148  12.847 -0.1457  0.1811 -0.1077
13446W        W14310  18.540  12.015   7.905  0.0312 -0.0686  0.0991
13447W        W14311   8.474  14.145   0.325  0.1056 -0.0504 -0.0653
13448W        W14312  10.719  12.703  20.382 -0.1100  0.3753 -0.0104
13449W        W14313  22.651  14.001   3.261  0.1262 -0.2831 -0.2913
13450W        W14314  19.181  24.607   0.565 -0.1939  0.0028  0.3246
13451W        W14315   0.904   2.364  19.912  0.2499 -0.1892  0.1658
13452W        W14316   7.726   8.978  14.642 -0.2268  0.3079 -0.4245
13453W        W14317  26.941  25.338   9.681 -0.1543 -0.2031  0.1615
13454W        W14318   9.463  27.860  15.965  0.0693  0.0318 -0.1849
13455W        W14319  13.455  14.601  17.005 -0.2179  0.1840  0.2719
13456W        W14320  16.814  24.143  19.309 -0.3502 -0.2527  0.2515
13457W        W14321   7.303  11.107  17.186  0.2358  0.3043  0.2229
13458W        W14322  23.800  16.072  15.310 -0.1244  0.2028  0.1048
13459W        W14323   9.174  19.623   9.201 -0.0003 -0.0013  0.1230
13460W        W14324   9.002  26.721  16.510  0.0434  0.0338 -0.1904
13461W        W14325  16.865  11.910  18.112  0.2620  0.3227  0.0928
13462W        W14326   0.186  10.273  19.034  0.0448  0.0178  0.2414
13463W        W14327   0.455  12.623  14.828 -0.0011 -0.4938 -0.2527
13464W        W14328  27.872   6.459  16.505  0.2867 -0.2597 -0.0546
13465W        W14329   1.640   2.354  17.877  0.0041  0.2941  0.0292
13466W        W14330  13.513   9.548  12.246 -0.2829  0.0445 -0.1114
13467W        W14331  17.213   3.066   8.770 -0.4862  0.1400  0.0175
13468W        W14332  20.768  23.155   7.637 -0.3718 -0.1522  0.1516
13469W        W14333   9.689   7.826  14.421 -0.4499  0.2899 -0.0263
13470W        W14334  18.731  23.613  17.844 -0.0829 -0.2766 -0.0451
13471W        W14335  16.378  19.544  26.456  0.2945  0.0034 -0.2216
13472W        W14336   8.519   4.255  23.826  0.1917 -0.3557 -0.0442
13473W        W14337  17.847  12.576   4.295  0.2206  0.3305  0.0110
13474W        W14338  17.318   5.494   5.240  0.1894  0.1022 -0.2904
13475W        W14339  16.262   6.601  27.501 -0.3346  0.1185 -0.0085
13476W        W14340  17.433  15.500  28.551  0.0626 -0.1023 -0.2892
13477W        W14341   8.623   0.114  27.420 -0.0792 -0.1682  0.0877
13478W        W14342  14.782  21.546  21.879  0.0993  0.0530 -0.0786
13479W        W14343   9.842  20.043   9.758  0.0377 -0.4480  0.1780
13480W        W14344  15.065  10.344  26.278 -0.2480 -0.2054  0.0996
13481W        W14345   2.016  10.894  21.104 -0.0346  0.3354  0.0645
13482W        W14346  20.416  11.365  12.067 -0.0493 -0.1639  0.0298
13483W        W14347  19.620   6.878  17.781 -0.3071  0.2026 -0.1585
13484W        W14348   6.113  19.082   7.337 -0.1798  0.2167 -0.1173
13485W        W14349  13.785  25.549  14.691 -0.0639  0.1022 -0.0585
13486W        W14350  16.402  10.832  10.818 -0.3346  0.0221 -0.2267
13487W        W14351   2.802  21.244  17.294  0.5457  0.0248 -0.2150
13488W        W14352  14.205  12.288  19.633  0.2360  0.0141  0.3020
13489W        W14353  12.697  22.586  23.430 -0.0369 -0.4040 -0.1046
13490W        W14354  26.777   8.537  12.549 -0.0737 -0.2640 -0.0946
13491W        W14355  13.144   3.659   9.101  0.0711  0.1828 -0.1214
13492W        W14356  18.312  10.017  15.840 -0.0300 -0.0348 -0.0328
13493W        W14357  19.825  11.392  20.724  0.2840 -0.2638  0.1950
13494W        W14358  19.250   4.321  16.928 -0.2051  0.2392 -0.2721
13495W        W14359   2.590   1.625  17.239 -0.2708 -0.0846  0.3625
13496W        W14360  13.777   8.328  27.146  0.0073 -0.0602  0.0087
13497W        W14361  28.812   1.698   4.586  0.0138 -0.2585  0.0174
13498W        W14362  27.376  25.481  17.260  0.0114  0.1814 -0.2035
13499W        W14363  21.950  15.535   6.297  0.2015  0.0442  0.1291
13500W        W14364   4.762  11.310  22.369  0.2114  0.1470  0.2898
13501W        W14365  15.175  13.643  27.158 -0.1479  0.3630  0.2964
13502W        W14366  11.734  14.907   1.063  0.1020  0.1107  0.0654
13503W        W14367  14.629  25.919  23.146 -0.0649 -0.1717 -0.1821
13504W        W14368   7.043  12.777   9.676  0.0523  0.0559  0.0061
13505W        W14369   5.059  11.659  12.858  0.1962  0.0723  0.0461
13506W        W14370   6.930   1.502   5.094 -0.3566  0.1345 -0.0011
13507W        W14371   7.733  28.887  13.833 -0.1092 -0.0877  0.0700
13508W        W14372   9.695  19.136  19.090 -0.1432  0.0069  0.0515
13509W        W14373   2.579  21.055   4.776 -0.2693 -0.1780 -0.0899
13510W        W14374  15.331  19.179  11.139  0.1964 -0.1354 -0.1835
13511W        W14375  22.003   7.700  15.922  0.0728  0.0997  0.2138
13512W        W14376  17.013  19.385  15.589 -0.2236  0.3712 -0.0301
13513W        W14377   3.397  18.569  13.717 -0.1826  0.0747  0.0695
13514W        W14378  16.723  27.082  14.533 -0.1265 -0.1180 -0.0744
13515W        W14379   5.575   4.186   3.393 -0.0827  0.3548 -0.1039
13516W        W14380  11.504  16.355  21.309 -0.0554  0.1074  0.1304
13517W        W14381  12.196  16.906  23.369 -0.2051  0.0284  0.1105
13518W        W14382  27.642  21.016  24.528 -0.1784  0.2890  0.0874
13519W        W14383  21.256  10.541  16.083 -0.0667 -0.1348 -0.0628
13520W        W14384  11.228  15.738  19.352 -0.1089  0.0673 -0.1122
13521W        W14385   2.909  18.182  23.773  0.2692  0.3213 -0.0252
13522W        W14386  23.011   7.982  19.918  0.3044 -0.0174  0.0520
13523W        W14387   0.004  11.856   1.151  0.0516 -0.2275 -0.0011
13524W        W14388  16.997  17.490  19.799 -0.1109 -0.3183  0.0332
13525W        W14389  15.775  12.839  15.712  0.0998  0.0801 -0.1367
13526W        W14390  12.048  27.684  15.985  0.1496  0.0376  0.2435
13527W        W14391  15.624  19.035  17.675 -0.0434  0.0741  0.2256
13528W        W14392  21.359  11.942  23.371  0.0291  0.2484 -0.0009
13529W        W14393  12.069  17.494   5.008 -0.2502  0.0381 -0.0248
13530W        W14394  12.224  14.097  17.188 -0.1947 -0.2301 -0.2105
13531W        W14395  21.066  16.288  21.734 -0.0565 -0.0254  0.0887
13532W        W14396  19.376  19.833  22.474  0.0045  0.1519  0.2238
13533W        W14397   8.878  22.495  20.406 -0.1687  0.2632 -0.1116
13534W        W14398  15.399  17.705  22.630 -0.0920  0.0477 -0.0311
13535W        W14399  22.295   8.937   6.306 -0.1048 -0.2512  0.3145
13536W        W14400  25.871  22.739   9.995 -0.0541 -0.1422 -0.0908
13537W        W14401  25.002   8.032  28.716  0.0087  0.5343  0.3377
13538W        W14402  20.108  25.636   9.278 -0.1057 -0.1324  0.0164
13539W        W14403  14.608   1.560  12.406 -0.2202  0.1248 -0.2270
13540W        W14404  10.412   3.516   5.225 -0.1969  0.0835  0.1489
13541W        W14405  29.115  20.706   3.002  0.0913  0.0948 -0.5340
13542W        W14406  17.932  24.882   6.578  0.0322 -0.2132  0.0824
13543W        W14407  13.958  27.258  15.908  0.1188  0.0515 -0.1126
13544W        W14408  28.017  17.348   9.431  0.1550  0.1154  0.0330
13545W        W14409  10.977   8.792  26.148  0.1228  0.1166  0.1244
13546W        W14410   3.469   5.002   6.287  0.3844 -0.1178 -0.1058
13547W        W14411  28.519   7.651  13.081  0.2834 -0.2563  0.5160
13548W        W14412  15.313  22.274  23.625 -0.0504  0.4041  0.2208
13549W        W14413  25.584  14.676  24.764 -0.1999  0.1411 -0.0644
13550W        W14414   7.006  26.933  23.158 -0.2405 -0.0280  0.0879
13551W        W14415   9.469  25.205  25.792  0.0374 -0.1757  0.2106
13552W        W14416  10.028  20.039  17.521  0.0267  0.0867 -0.0163
13553W        W14417  16.408  14.065  13.092  0.0674 -0.0529 -0.1538
13554W        W14418  26.953  15.614  12.740 -0.0373  0.2025  0.2361
13555W        W14419   7.688   5.444  25.903  0.1413  0.2351  0.2884
13556W        W14420  16.095   8.921   9.461  0.0347  0.1506 -0.2128
13557W        W14421  13.303  27.496   8.515  0.0129  0.1160  0.1570
13558W        W14422   4.376  16.582  13.596  0.0108  0.0808 -0.0718
13559W        W14423  19.612   7.243  17.196  0.0515 -0.1646  0.2151
13560W        W14424   6.860   3.504  18.291 -0.0148  0.2115 -0.4040
13561W        W14425  18.148  15.244  17.691  0.0141 -0.1766  0.0712
13562W        W14426  19.990  18.213   4.972  0.0772  0.0154  0.0971
13563W        W14427   4.965   1.371  13.900 -0.2877 -0.0782 -0.0822
13564W        W14428  17.708  20.320  15.173 -0.0631  0.1729 -0.0523
13565W        W14429  10.883   3.154  12.733  0.0823 -0.1714  0.0339
13566W        W14430  20.943  10.535  12.500 -0.1321  0.1345 -0.4078
13567W        W14431  12.824   4.347  15.521 -0.3400  0.1432 -0.4467
13568W        W14432  25.772   3.337   8.800  0.0654 -0.3046 -0.0829
13569W        W14433  11.495  19.298   0.170 -0.1090  0.1938 -0.1595
13570W        W14434  20.533  17.096   9.682 -0.0179  0.0958  0.4062
13571W        W14435  19.062   4.728  12.734 -0.1762 -0.1590  0.1395
13572W        W14436   5.853  12.186   4.544 -0.1413  0.0086  0.0527
13573W        W14437   5.464  27.886  10.114 -0.2328  0.3697 -0.2276
13574W        W14438   2.618   1.986  26.873 -0.1080  0.1661 -0.3621
13575W        W14439  20.093  15.241  15.092  0.0815 -0.0686  0.1534
13576W        W14440  24.858  22.677  19.585 -0.0535  0.1110  0.2364
13577W        W14441  21.304  20.079  21.120  0.0975 -0.2416  0.2860
13578W        W14442  11.920  13.825  21.078  0.0405  0.4566 -0.0522
13579W        W14443   5.159   1.951  18.788  0.2164  0.1601  0.0564
13580W        W14444   4.496  10.121  17.911 -0.1001  0.0347 -0.0081
13581W        W14445   9.037  28.293   7.268  0.1384  0.3387  0.0274
13582W        W14446  18.890  13.453  12.950  0.0506 -0.1712  0.0050
13583W        W14447  28.634  10.531  10.308 -0.0846 -0.3424 -0.2968
13584W        W14448  16.753   4.064   7.900 -0.1833 -0.2897 -0.0897
13585W        W14449  13.305   4.065  26.581  0.1547 -0.0811 -0.0867
13586W        W14450  13.115  16.317  27.221 -0.1661 -0.1871  0.1257
13587W        W14451  18.772  21.421  20.447 -0.0642 -0.1626 -0.0265
13588W        W14452  18.781  19.162  13.100  0.0420  0.1678  0.0021
13589W        W14453   1.932  10.212  16.945  0.2049  0.3382 -0.1179
13590W        W14454   3.162  19.752  22.177 -0.1603  0.2306  0.0436
13591W        W14455  18.286  25.482  12.430  0.2322 -0.1748  0.2457
13592W        W14456  10.112   8.276   8.954  0.2855  0.2366  0.0925
13593W        W14457  21.439  13.407  27.565 -0.0453  0.3391  0.1841
13594W        W14458  13.888  17.296   3.076  0.0324 -0.0153  0.0171
13595W        W14459  13.778   5.109  24.979  0.0596 -0.2647  0.0035
13596W        W14460  11.558  14.624   9.601  0.1473 -0.1657 -0.0623
13597W        W14461   9.149  24.223  13.164  0.0996 -0.1055 -0.1307
13598W        W14462   4.629   3.234   1.059  0.1807  0.0162 -0.1748
13599W        W14463  15.582  19.611  26.708 -0.0581 -0.2063 -0.0655
13600W        W14464  23.433  23.412  26.643  0.0388  0.1648 -0.5554
13601W        W14465  16.248   8.419   6.883 -0.0362  0.0765 -0.2020
13602W        W14466   3.961  21.718  10.528  0.0071 -0.1600  0.3537
13603W        W14467   7.546  29.043   8.230  0.3190 -0.1817  0.0748
13604W        W14468   7.855  22.267   3.382  0.2146  0.0207  0.1093
13605W        W14469   5.425  15.960   3.712  0.2405 -0.0064 -0.0901
13606W        W14470  12.450  14.344  28.010 -0.0708 -0.5155  0.0427
13607W        W14471  23.459  15.684  15.363  0.0904  0.2209  0.1200
13608W        W14472  18.279  25.388   4.861 -0.0134 -0.1788 -0.0961
13609W        W14473   6.957  17.129   8.000 -0.0944  0.0292 -0.1926
13610W        W14474   4.202  20.139   2.495 -0.2970 -0.1141  0.0764
13611W        W14475   4.313  14.663  15.577 -0.1524 -0.2050  0.2205
13612W        W14476   0.684  17.717  15.032 -0.2630  0.4975  0.1566
13613W        W14477  28.849  16.576  10.301  0.0438  0.2240 -0.0000
13614W        W14478  23.075  14.007  18.589 -0.1240  0.0038 -0.2702
13615W        W14479   7.608  23.073  27.784  0.0595 -0.2271 -0.0769
13616W        W14480   6.092  28.730  28.159  0.2953  0.4141 -0.2060
13617W        W14481  13.375   2.114   2.945  0.0189 -0.0724  0.0270
13618W        W14482   7.355  22.797   4.625 -0.1348  0.0398 -0.0374
13619W        W14483  23.658   6.488   5.991 -0.0793 -0.1044 -0.1998
13620W        W14484  20.994  26.866   9.675  0.0234 -0.4458  0.0118
13621W        W14485  21.061   4.901  28.569 -0.0541  0.1222 -0.0559
13622W        W14486  14.274  18.039  27.106 -0.1789 -0.0340  0.0820
13623W        W14487  10.763  14.912  22.463 -0.2806  0.0973 -0.3950
13624W        W14488   9.332   4.368   3.466  0.0137  0.1108  0.3373
13625W        W14489  26.208   5.954  14.650  0.2920  0.0898 -0.0567
13626W        W14490  21.102  15.715  12.896 -0.0405 -0.0816 -0.1998
13627W        W14491  19.918  10.840   9.245  0.1473 -0.0829 -0.0788
13628W        W14492  13.007  16.137   4.552 -0.1639 -0.2357 -0.1353
13629W        W14493  22.590   2.839  24.994 -0.0848  0.0825 -0.4208
13630W        W14494   9.027  21.749  13.218 -0.2298  0.0089 -0.4904
13631W        W14495  26.274  22.671   1.330  0.1024 -0.0531 -0.0473
13632W        W14496  15.693  13.392  11.251  0.2620 -0.0775  0.1135
13633W        W14497  19.142  27.176  20.401  0.1785 -0.2069  0.0769
13634W        W14498  16.635   9.856  11.588 -0.0305  0.2008 -0.2152
13635W        W14499  10.907  22.123  18.390  0.0304  0.0376  0.0865
13636W        W14500  18.174  18.178  23.206  0.2530 -0.0619  0.1369
13637W        W14501   3.695  26.559  16.618 -0.0795  0.0203 -0.4043
13638W        W14502  26.544  16.847  25.748 -0.1974 -0.4027 -0.1531
13639W        W14503  25.285  27.459   7.896 -0.0156 -0.0943 -0.4478
13640W        W14504  22.413  24.050  19.038  0.0679 -0.1953  0.0269
13641W        W14505   6.156  22.327  19.711 -0.0769 -0.0243  0.0263
13642W        W14506  18.264  16.521  14.268  0.3581  0.1395 -0.2244
13643W        W14507   1.442  13.692   4.689  0.2236  0.1118 -0.2967
13644W        W14508  16.624  22.255  17.749  0.0938 -0.1049 -0.2630
13645W        W14509  21.138   2.281   1.311 -0.1351 -0.1363  0.0440
13646W        W14510  23.928  19.384   3.688  0.0886 -0.3613 -0.4009
13647W        W14511  19.370  16.040  17.786 -0.0709 -0.2055  0.0816
13648W        W14512  10.921  18.882   0.553  0.0203  0.0675 -0.0585
13649W        W14513   4.649  18.780  25.753 -0.0214  0.1651  0.1493
13650W        W14514  14.422  18.812  16.909  0.0611  0.0233  0.2238
13651W        W14515  18.515  23.543  10.758  0.1956 -0.2828 -0.1447
13652W        W14516  12.121  20.282  10.395  0.1024 -0.0833 -0.0104
13653W        W14517   7.198  27.357   2.933  0.1393  0.1308 -0.0532
13654W        W14518   3.343  10.244  10.846  0.2300  0.0278 -0.0323
13655W        W14519   7.886   7.718   9.874  0.0313 -0.2398  0.1315
13656W        W14520  22.411  13.438  12.536  0.0872 -0.0681  0.0058
13657W        W14521  23.670  11.182   7.903  0.1734  0.3906 -0.0323
13658W        W14522  11.513   8.880   2.184 -0.0734  0.2422 -0.2738
13659W        W14523  23.181  27.589  28.839 -0.0877  0.2698 -0.0704
13660W        W14524  27.938   9.244  14.096  0.1731 -0.1716  0.2998
13661W        W14525  24.899  15.867  22.954  0.1206 -0.0411  0.1705
13662W        W14526   5.888  24.221  19.400  0.0131 -0.0304  0.3010
13663W        W14527  22.940   1.493   7.449 -0.1855 -0.0522 -0.1449
13664W        W14528  15.210  27.924  15.812 -0.1612 -0.1664 -0.0747
13665W        W14529  23.083   8.456  16.834  0.0018 -0.0932  0.0745
13666W        W14530   6.413  28.055  11.238  0.0541  0.2496 -0.0310
13667W        W14531   8.071  13.522  10.760  0.1234  0.2230  0.0275
13668W        W14532  26.509  14.625   5.638  0.0200  0.1700 -0.2129
13669W        W14533  20.461  27.190  14.016 -0.3950 -0.0721 -0.1487
13670W        W14534   7.679   6.056   8.179 -0.1136 -0.0083  0.1109
13671W        W14535  19.577  22.073  16.562 -0.0303  0.1294 -0.1187
13672W        W14536   8.499  25.120  28.687 -0.0103 -0.2230 -0.0042
13673W        W14537  10.223   5.425   8.566 -0.2803 -0.0107 -0.0018
13674W        W14538  14.139  16.939   3.956 -0.4773 -0.0948 -0.2138
13675W        W14539   8.429  27.981   4.174 -0.0018 -0.0498 -0.1050
13676W        W14540  11.893  27.614  26.564 -0.1321 -0.0530 -0.1094
13677W        W14541  23.512  19.365   5.139  0.2871 -0.0858 -0.1422
13678W        W14542  27.019  20.120   2.663 -0.0280 -0.0681 -0.0238
13679W        W14543  14.100  14.802  10.331 -0.0833  0.1311  0.0252
13680W        W14544  13.295  10.475  18.709  0.2959 -0.0857  0.3476
13681W        W14545  14.777  22.358   5.708 -0.1143 -0.1847 -0.3589
13682W        W14546  15.014  10.811   6.084  0.0338 -0.0495  0.2204
13683W        W14547   4.757  12.859  13.362 -0.2007 -0.0111 -0.0308
13684W        W14548  21.184  21.186  15.275 -0.1445  0.0129  0.2140
13685W        W14549  17.477  28.719  16.791  0.0639 -0.1479  0.2401
13686W        W14550   6.048   8.197  18.109  0.0220  0.3261 -0.3586
13687W        W14551   2.830   3.822  21.549 -0.1091  0.0709 -0.1047
13688W        W14552   9.144  17.700   3.859 -0.3943 -0.0951 -0.0004
13689W        W14553  17.010   5.178   7.335  0.0596 -0.1758 -0.1653
13690W        W14554   7.765  17.107  22.115  0.3349 -0.0204  0.0403
13691W        W14555   9.161   8.495  17.233  0.1409  0.1310 -0.0518
13692W        W14556   5.303  25.709   6.543 -0.1643 -0.1784  0.0713
13693W        W14557  20.564  28.685  28.625 -0.2703 -0.0001 -0.2880
13694W        W14558   1.132   7.659  14.288 -0.4823 -0.0377  0.3629
13695W        W14559  13.950  10.326  19.955 -0.3306 -0.1071  0.0192
13696W        W14560   5.303   6.925  12.064 -0.0269  0.1420  0.0236
13697W        W14561  26.686  19.684  15.219  0.1309  0.1187 -0.3623
13698W        W14562   5.854  10.016  21.404 -0.1351 -0.1353 -0.0502
13699W        W14563  24.392   8.940  12.044  0.1232 -0.3460  0.1033
13700W        W14564  26.237  18.234   1.382 -0.1992 -0.0495 -0.1689
13701W        W14565   9.860  18.745   3.633  0.2936  0.0720 -0.0308
13702W        W14566   4.992   8.637  19.948  0.2751  0.2742 -0.1013
13703W        W14567  11.070  17.937  16.759 -0.2100 -0.1023  0.0870
13704W        W14568   5.026  28.746  16.987  0.0369 -0.1083 -0.1226
13705W        W14569   2.114  19.745   6.946  0.4888  0.0527 -0.2434
13706W        W14570  27.705   8.855  25.953  0.1576  0.0800  0.2146
13707W        W14571  20.239  19.773  16.820  0.3575  0.0633  0.1959
13708W        W14572  17.912  14.186  12.296  0.2877 -0.1519 -0.0930
13709W        W14573  20.098  23.459  27.778  0.1705 -0.0344 -0.0337
13710W        W14574   5.872  11.829  20.768  0.2651  0.0779  0.0125
13711W        W14575  19.928  16.484   1.943 -0.1607  0.0749  0.0721
13712W        W14576   1.817   2.955  17.633 -0.0484 -0.0067 -0.0980
13713W        W14577  23.197  22.320   3.361 -0.1174  0.2338 -0.0007
13714W        W14578  11.510  26.686   9.513 -0.1223  0.4930  0.0276
13715W        W14579  16.661  20.464  25.858  0.0409  0.0236 -0.3708
13716W        W14580  19.941  23.560  24.254  0.1317  0.2376 -0.0521
13717W        W14581  25.586  11.682  12.563  0.1243  0.1094  0.0804
13718W        W14582  10.333   5.101  14.001  0.1905 -0.1277 -0.0321
13719W        W14583   7.032   0.408  18.529  0.1598  0.0690  0.1504
13720W        W14584   4.732  21.667  10.161  0.1095 -0.4831 -0.2377
13721W        W14585  13.244  19.973  17.213  0.1476 -0.5106  0.1495
13722W        W14586   6.843   8.013  22.525  0.0424 -0.1656 -0.0563
13723W        W14587   8.062   5.313  26.966 -0.0507 -0.0366  0.3324
13724W        W14588  16.597  10.979   2.890  0.1611 -0.1494  0.0487
13725W        W14589  13.226   8.556   2.912 -0.0873 -0.1916 -0.0622
13726W        W14590  12.835   3.825  19.197  0.0224 -0.3576 -0.0515
13727W        W14591  21.376  28.833   1.659 -0.5128 -0.2602  0.3695
13728W        W14592  23.282   2.067  23.637 -0.5111 -0.1424 -0.0232
13729W        W14593   7.828  21.021   4.373  0.1814 -0.2484 -0.1465
13730W        W14594  15.479  13.380  13.333  0.4298 -0.2100 -0.0775
13731W        W14595   3.498  27.862  11.269 -0.0629  0.2994  0.0109
13732W        W14596  17.670   9.191  21.854  0.1080  0.0411  0.0206
13733W        W14597  20.900  24.865  21.950 -0.2626 -0.0652 -0.0659
13734W        W14598  22.606   8.962  26.995 -0.0278 -0.0754  0.5638
13735W        W14599  13.924  13.539   5.207 -0.1748  0.0851 -0.2882
13736W        W14600   2.852  17.449  10.075 -0.1067 -0.0819 -0.3802
13737W        W14601   1.234   8.383  16.129 -0.1100  0.2865 -0.1411
13738W        W14602  24.582  25.263  19.625 -0.1215 -0.0869  0.0572
13739W        W14603   1.129  20.454   9.589  0.1559 -0.0567 -0.0466
13740W        W14604  17.986  27.147  13.436  0.0866 -0.1002  0.0811
13741W        W14605  18.327  12.268   3.325  0.4302 -0.1893 -0.2619
13742W        W14606  22.598   3.042  20.574 -0.3603 -0.0907  0.2337
13743W        W14607  21.163  22.798   6.059 -0.1198 -0.1916 -0.3035
13744W        W14608  19.515  15.096   4.602  0.1494  0.2307  0.1120
13745W        W14609   7.523  14.721  14.503 -0.0973  0.1603 -0.0262
13746W        W14610   3.026  10.551   5.149 -0.1180  0.2180 -0.1654
13747W        W14611   7.417   7.604   2.261  0.0135  0.1311 -0.1284
13748W        W14612  22.825   8.352  21.271 -0.0836  0.1134 -0.1420
13749W        W14613  20.660   2.331  13.290  0.1289  0.0431  0.3500
13750W        W14614   0.614  21.866  18.124  0.4570 -0.4098 -0.1682
13751W        W14615  18.511  16.549  23.126 -0.0412  0.3078 -0.0470
13752W        W14616  28.663   7.922  23.475  0.3747 -0.3392  0.0865
13753W        W14617  10.041  19.963  10.218 -0.0934  0.0499 -0.1509
13754W        W14618  19.623   6.591  21.011  0.4092 -0.0296  0.3127
13755W        W14619  27.552   6.636   7.263 -0.1138 -0.2923 -0.0806
13756W        W14620   6.004  10.062   0.841  0.0621  0.0446 -0.1301
13757W        W14621  17.246  27.110   9.873 -0.3021 -0.1057  0.0286
13758W        W14622   2.097  20.755  23.943  0.0436 -0.2613  0.1594
13759W        W14623  17.070  17.607  25.930  0.1902 -0.2695  0.2474
13760W        W14624  17.899  19.048  19.804 -0.3767 -0.2300  0.0332
13761W        W14625  27.990  20.790   1.967 -0.1429  0.0457 -0.3121
13762W        W14626  12.142  11.362  15.982  0.1340  0.0205  0.0400
13763W        W14627  24.847  19.929  18.879 -0.1939  0.0535 -0.0779
13764W        W14628   5.972  27.302  18.837 -0.0850  0.1978 -0.1002
13765W        W14629  18.071  20.018  13.875  0.1478  0.0160 -0.1770
13766W        W14630  23.133   8.186  20.517 -0.0200 -0.1279 -0.0290
13767W        W14631   6.247  23.227   8.978  0.1002 -0.0240 -0.1701
13768W        W14632   4.859  16.001   6.603  0.0526  0.0557 -0.0421
13769W        W14633  20.008  14.232  24.858 -0.0353  0.0470  0.2851
13770W        W14634   6.829   6.925  16.010 -0.1240  0.0252  0.2038
13771W        W14635  25.007  15.968   7.952  0.0655 -0.2602 -0.0705
13772W        W14636  14.314  11.934  21.933  0.0506  0.2339  0.2766
13773W        W14637   5.646  12.241  10.818  0.2140 -0.0994  0.3043
13774W        W14638  13.672   7.227  11.596 -0.0088 -0.4903 -0.1614
13775W        W14639  21.532   3.897  29.120 -0.0379 -0.0077 -0.2829
13776W        W14640   8.746  12.873  17.170  0.0800  0.0115 -0.1111
13777W        W14641  10.077   4.029   9.809  0.0443  0.0893  0.1931
13778W        W14642  22.144   7.118  29.134 -0.1124  0.2746  0.2113
13779W        W14643  10.143  14.153  12.015  0.2349 -0.3224  0.1578
13780W        W14644  18.792   0.291  28.161  0.4417  0.0776 -0.2738
13781W        W14645   3.987   0.323  20.903  0.1950  0.3298  0.1201
13782W        W14646  18.344   6.524  21.054 -0.2208  0.1537  0.1517
13783W        W14647   7.738  10.094   6.544  0.2933  0.1337  0.0964
13784W        W14648  24.574   5.862  26.474 -0.1903 -0.0201  0.0651
13785W        W14649  13.291  22.537   0.212 -0.0514  0.1702 -0.2864
13786W        W14650  13.087   0.121   9.349 -0.1767  0.0530  0.1280
13787W        W14651  12.735  20.936   6.466  0.1171  0.1844  0.4566
13788W        W14652  22.657  17.901  28.764 -0.2552  0.1283 -0.3931
13789W        W14653   5.025   2.337  10.463  0.0163 -0.1595  0.1653
13790W        W14654  10.568   6.650   1.579  0.0894 -0.0662 -0.3059
13791W        W14655  23.341  22.410  23.897 -0.0424 -0.0564  0.0016
13792W        W14656  14.408   8.021  14.138 -0.2112 -0.0578 -0.5017
13793W        W14657  16.891  23.910   1.595  0.3397 -0.0231  0.1103
13794W        W14658   2.652  16.044   4.244  0.1084  0.3271  0.1216
13795W        W14659  12.204  12.981  20.534 -0.0207  0.1241 -0.1627
13796W        W14660   8.636  25.802   9.224 -0.1130 -0.0299 -0.1433
13797W        W14661   3.734  19.227  18.181 -0.0692 -0.0262  0.0023
13798W        W14662   1.016   4.900   2.999 -0.1183  0.0500  0.1958
13799W        W14663  11.052  11.180   0.416 -0.0958 -0.1860 -0.0842
13800W        W14664  12.507  20.245  24.633 -0.1747 -0.2524 -0.0279
13801W        W14665   7.562  21.590  21.245 -0.0574 -0.2074 -0.0514
13802W        W14666   6.777   9.010  23.584  0.3138  0.0294 -0.3642
13803W        W14667   4.059   5.230  19.848 -0.1296  0.0671  0.0378
13804W        W14668   4.891  11.441   9.636 -0.0737 -0.1843 -0.1042
13805W        W14669  21.671  17.874  23.083  0.1526 -0.1363 -0.1074
13806W        W14670  12.759  18.782  17.046  0.2526  0.2207 -0.0731
13807W        W14671  14.303  20.486   5.989  0.0425  0.0568  0.1787
13808W        W14672   6.444  28.533  11.849 -0.0919  0.2094 -0.0318
13809W        W14673  21.216  19.098  20.785 -0.0400  0.2038  0.1454
13810W        W14674  16.054  16.234  19.427 -0.1446  0.1240 -0.3653
13811W        W14675  11.523  22.531   5.283  0.0409 -0.3123 -0.2310
13812W        W14676   7.976  21.485  28.966 -0.4758  0.0102 -0.0987
13813W        W14677   5.523   5.905  21.687  0.0397  0.2461 -0.2193
13814W        W14678   0.079   8.024  12.129  0.0181 -0.0818 -0.0539
13815W        W14679  17.576   9.442  10.845 -0.0470  0.0255  0.2761
13816W        W14680   8.981  24.008  25.672 -0.0434 -0.0821  0.0651
13817W        W14681  19.318  23.994  14.684  0.2507  0.1112 -0.2243
13818W        W14682  24.237  18.450   1.115  0.0932 -0.0037 -0.1405
13819W        W14683  28.147  23.361  13.334  0.0648 -0.0189  0.0288
13820W        W14684  25.301   1.314  11.651 -0.1061  0.2462 -0.1078
13821W        W14685  10.708   7.213  11.746 -0.1914 -0.1553 -0.0917
13822W        W14686  10.901  17.034  26.461 -0.4153 -0.1634 -0.0413
13823W        W14687  15.209  28.463   0.202 -0.0437  0.0392 -0.2461
13824W        W14688   2.084  10.399  13.120 -0.1484 -0.1857 -0.0647
13825W        W14689  15.184   1.290  10.695  0.0652  0.2013  0.1627
13826W        W14690   1.194   4.834   1.235  0.0520  0.1376 -0.0187
13827W        W14691  16.506   7.454  13.055  0.3555 -0.1788 -0.0810
13828W        W14692  23.616  19.431  28.638  0.0333  0.0557  0.0776
13829W        W14693  12.013  14.865  26.515  0.0312 -0.0032 -0.1311
13830W        W14694   9.478  14.550  18.842  0.0897 -0.1007 -0.0843
13831W        W14695  23.935  18.680  16.541 -0.1987  0.2191  0.1676
13832W        W14696   5.955   1.902  23.377  0.1796 -0.0093  0.0333
13833W        W14697   8.510  26.778  17.352  0.0254  0.2070  0.0472
13834W        W14698   4.133   7.082  23.533  0.0300  0.1803 -0.2930
13835W        W14699  25.206  22.956  18.459  0.0224 -0.1511  0.1538
13836W        W14700  19.023  17.430  11.356 -0.0469  0.2295  0.3257
13837W        W14701  15.563  12.546  18.532  0.0188  0.0784  0.0504
13838W        W14702  20.867   6.375  15.776  0.0898  0.1866 -0.1832
13839W        W14703  13.568  15.228   1.518  0.1204 -0.0082 -0.3238
13840W        W14704  28.168  25.440   2.132 -0.2152 -0.0627  0.3830
13841W        W14705  17.915  27.160   5.787  0.1670 -0.0363  0.2535
13842W        W14706  18.204   8.489  11.947  0.0308  0.3344  0.1668
13843W        W14707  14.797  27.654  18.817  0.2802  0.0130  0.0144
13844W        W14708  25.503   7.770  22.339  0.0687  0.0242 -0.0016
13845W        W14709   8.862   1.705   6.213  0.1455 -0.3701  0.3237
13846W        W14710  18.747  25.272  20.853 -0.2258 -0.1766  0.1997
13847W        W14711  11.708  10.822  12.262 -0.1921  0.2296  0.0101
13848W        W14712  16.564   1.990  26.094 -0.0227 -0.2147 -0.1898
13849W        W14713  24.140  15.060  21.267 -0.0729  0.5631  0.2240
13850W        W14714  28.754   3.232  20.705  0.0280  0.0349 -0.2068
13851W        W14715  11.620   6.215   2.412 -0.0714  0.0314 -0.0320
13852W        W14716   7.274  13.046  16.988  0.3250 -0.1362 -0.2050
13853W        W14717   5.435  16.545  27.653  0.5058  0.2095  0.2860
13854W        W14718  25.935   9.073  24.992 -0.0407  0.1852  0.0153
13855W        W14719  17.884  14.405  15.027  0.0920  0.0105 -0.2486
13856W        W14720  14.352  15.650  17.813 -0.2051  0.0378  0.1002
13857W        W14721   0.688   7.641  23.547  0.1719 -0.2962  0.0801
13858W        W14722   0.393   9.792  22.961 -0.2339  0.3327  0.1289
13859W        W14723   0.200   3.150  10.259  0.1139 -0.1582  0.1716
13860W        W14724  17.850  13.816  19.889 -0.2329 -0.2423 -0.0005
13861W        W14725  26.375   2.342  12.466 -0.0341 -0.0372  0.1182
13862W        W14726  10.554   5.525   5.963 -0.0152  0.0459  0.4857
13863W        W14727  21.986  11.702   8.782  0.1369 -0.0535 -0.0579
13864W        W14728  24.996  22.852  17.617 -0.2053  0.1872 -0.2055
13865W        W14729  11.741  13.943   9.810 -0.0931  0.0258 -0.1004
13866W        W14730  27.929  26.786  25.155 -0.0930  0.3029  0.0716
13867W        W14731  23.868  12.465  12.330 -0.0091  0.0589  0.0848
13868W        W14732  13.027  26.921  17.600  0.0020 -0.0881  0.4454
13869W        W14733  18.827  25.633   7.338 -0.2179  0.1817  0.1300
13870W        W14734  17.203   9.079  21.858  0.0781 -0.2871  0.0467
13871W        W14735   4.520   6.314  20.007  0.1402 -0.0451  0.1872
13872W        W14736  11.773  25.893  17.943  0.2846  0.2944 -0.1401
13873W        W14737  27.925   4.434  19.821  0.2392 -0.1387 -0.2189
13874W        W14738  13.139   7.517   7.512  0.0933 -0.1112  0.0442
13875W        W14739  21.501  10.225   9.122 -0.0534 -0.1734  0.0887
13876W        W14740  19.465   1.070  10.036 -0.3844 -0.0340  0.1820
13877W        W14741  18.764  20.366  20.058 -0.0174  0.2510 -0.1775
13878W        W14742  22.501   8.013  18.702  0.0289 -0.2097 -0.0861
13879W        W14743  14.963  13.385  28.062 -0.2178 -0.1448  0.1579
13880W        W14744   8.252   3.268   4.237 -0.3172  0.0780 -0.1760
13881W        W14745   7.844   9.498  23.834 -0.2469 -0.0218  0.2785
13882W        W14746  20.487  16.870  15.717  0.0541  0.1723 -0.1436
13883W        W14747  17.600  26.197  17.978 -0.0004 -0.3298  0.0640
13884W        W14748  11.759  24.395  26.728 -0.2658  0.0435 -0.1075
13885W        W14749  22.242  14.289  24.203  0.0587  0.1308  0.0970
13886W        W14750  28.636   7.040  15.752  0.1194  0.1080  0.0636
13887W        W14751  18.172   9.776  20.881 -0.2908 -0.2993 -0.0006
13888W        W14752  12.700   8.692  22.781 -0.0810 -0.0475 -0.1400
13889W        W14753  14.206  20.540  11.338 -0.1000  0.0103  0.4163
13890W        W14754   8.350   4.464  21.118  0.0325  0.2060 -0.1668
13891W        W14755  20.766  23.769  15.366 -0.0887  0.0036 -0.1693
13892W        W14756  20.737   4.581  21.591 -0.0047 -0.0724  0.1371
13893W        W14757  15.964  19.040   0.795  0.0218 -0.0932  0.3533
13894W        W14758   9.543  10.056   2.126 -0.2249  0.3832 -0.1833
13895W        W14759  17.793  21.496  12.161 -0.1725  0.0749  0.1900
13896W        W14760  13.339   5.381  10.777 -0.1947 -0.0535  0.1167
13897W        W14761   6.245  26.543  15.121 -0.0273  0.2166  0.0376
13898W        W14762  11.909   6.086  28.485 -0.2081 -0.0504 -0.2022
13899W        W14763  17.812  17.223   0.696 -0.0931 -0.2632  0.0146
13900W        W14764  15.834  14.912  17.198  0.0553 -0.0406  0.0347
13901W        W14765   3.474  12.282  20.586  0.2173 -0.1329  0.3793
13902W        W14766  16.955  15.185  17.625 -0.2507  0.0033 -0.1070
13903W        W14767  11.313  12.006  19.934  0.3801  0.1613  0.1381
13904W        W14768  26.449  19.399   4.803  0.1070  0.1008  0.1358
13905W        W14769  14.904  25.063  15.020  0.1354 -0.2139 -0.1387
13906W        W14770  15.955  24.387  26.629  0.1085  0.0876 -0.0761
13907W        W14771  24.233  10.704  22.170 -0.0563  0.2176  0.3564
13908W        W14772  19.444   5.713   2.460 -0.0248 -0.0217  0.2243
13909W        W14773   4.483  19.184  13.936  0.1817 -0.0906 -0.4670
13910W        W14774  17.520   4.576  22.731  0.3150 -0.1420 -0.2166
13911W        W14775  24.095  19.055  25.927 -0.1879  0.0391 -0.0670
13912W        W14776  23.592  12.353  24.105 -0.0177  0.0130 -0.2342
13913W        W14777   1.996  27.249  23.347  0.1244 -0.1296 -0.0849
13914W        W14778  18.315  25.974  23.340 -0.0534 -0.0350  0.3051
13915W        W14779  23.968  24.081  23.112 -0.1594 -0.0858 -0.0028
13916W        W14780  21.196  22.579  25.816 -0.3498  0.1107 -0.3032
13917W        W14781   9.657  21.886  10.688  0.0921  0.3095  0.1441
13918W        W14782  13.912  11.162  22.746  0.1816 -0.1947 -0.0586
13919W        W14783  27.501  11.521  13.516 -0.0234 -0.1334 -0.0253
13920W        W14784  22.345   1.580   9.080 -0.1686 -0.1985 -0.0017
13921W        W14785   7.194  17.471   7.728 -0.1613  0.2195  0.1106
13922W        W14786  10.059   8.255  13.650  0.2494 -0.0157 -0.0576
13923W        W14787  19.363  14.053  17.126  0.0770 -0.1356 -0.2068
13924W        W14788  24.040   6.402  13.702  0.3442 -0.1173  0.0792
13925W        W14789  17.502  22.902  25.660  0.1382 -0.3385  0.2178
13926W        W14790  13.088  19.326  22.570 -0.0569  0.2291  0.2788
13927W        W14791  19.227   5.804   4.294  0.1567  0.1674  0.2163
13928W        W14792  11.468  11.224  20.470 -0.1306 -0.1348 -0.1447
13929W        W14793  18.050  25.078   9.859  0.2155 -0.0789  0.0396
13930W        W14794   3.375   4.296  25.644 -0.1420 -0.0176 -0.0686
13931W        W14795   1.640  17.251  14.510  0.3365 -0.0964  0.4545
13932W        W14796  17.155  25.487   6.471 -0.0281  0.0664 -0.2426
13933W        W14797  27.994   4.070   8.788  0.1148 -0.0084  0.0385
13934W        W14798  25.701  26.364  13.357  0.0727  0.0065 -0.0220
13935W        W14799  23.987  10.948  24.946  0.1063  0.0116 -0.2186
13936W        W14800   9.171   3.704   4.572  0.0606  0.0482  0.0117
13937W        W14801  23.403   6.478   9.610  0.0501 -0.5235  0.0853
13938W        W14802  21.233   5.006   3.867 -0.2051 -0.1246  0.1367
13939W        W14803  10.655  23.738  27.027  0.0574 -0.2459 -0.1831
13940W        W14804   8.078  14.221  16.039  0.2578  0.0077  0.2130
13941W        W14805   3.629  10.860   2.439 -0.1731 -0.1307 -0.3465
13942W        W14806   2.253   8.816   3.558  0.0843  0.0729  0.1444
13943W        W14807  24.293  20.244  24.547  0.4345 -0.2614  0.1118
13944W        W14808  13.426   2.870   8.408  0.0096 -0.1937 -0.0463
13945W        W14809   8.280  14.241   2.454 -0.0855  0.0432 -0.1252
13946W        W14810   2.868  26.137  19.604  0.2989 -0.1006 -0.0075
13947W        W14811   7.298   5.573  12.160 -0.0943  0.0619 -0.1551
13948W        W14812  12.465   8.525  18.420 -0.0078 -0.0763  0.3082
13949W        W14813  29.143  19.639   7.207  0.1050  0.0915  0.2805
13950W        W14814  11.608  14.882  21.701 -0.1232  0.0420 -0.4132
13951W        W14815  18.110  10.009  23.484 -0.2423 -0.1969  0.1786
13952W        W14816  11.678  10.223  22.506 -0.0955 -0.0657 -0.3779
13953W        W14817   9.100  11.622  26.917  0.0196 -0.1180 -0.2373
13954W        W14818  18.227  23.572   5.272  0.2240 -0.0361  0.2091
13955W        W14819  19.752  12.983  13.960 -0.2336  0.2935  0.0592
13956W        W14820   5.002  18.516   3.896 -0.0136  0.2215 -0.0233
13957W        W14821  17.489   9.971  12.813 -0.2719  0.2717  0.0345
13958W        W14822   7.929  22.173  23.441  0.0010  0.1346  0.0823
13959W        W14823   7.222  21.399  11.466  0.0157  0.4318  0.3148
13960W        W14824  16.315  13.184   3.541  0.0074 -0.1219  0.2654
13961W        W14825  25.909   5.925   6.026 -0.1611  0.0092 -0.3324
13962W        W14826  24.281  19.258  20.966  0.5498  0.0764  0.1174
13963W        W14827  14.559  18.029  16.689  0.1156  0.4677  0.1516
13964W        W14828  26.329  14.304  16.717 -0.1452 -0.1176  0.1893
13965W        W14829  26.426  16.489  14.376 -0.2260  0.0320 -0.0904
13966W        W14830  17.469  28.659  27.061  0.2097  0.1147  0.0996
13967W        W14831   8.723  13.929  21.708 -0.1953  0.0823 -0.0869
13968W        W14832  18.219  12.879  23.854  0.1255  0.1448 -0.2183
13969W        W14833  26.765  16.436  27.779  0.0070 -0.0832 -0.1599
13970W        W14834  22.841  11.727  23.993 -0.1507  0.1929  0.1010
13971W        W14835  25.449   4.290  21.825  0.0129 -0.1324 -0.0632
13972W        W14836   0.903  11.257  17.314 -0.1914  0.0215  0.0179
13973W        W14837  23.642  27.625  25.259 -0.1518  0.2729  0.2987
13974W        W14838   3.514  12.302   5.354  0.0565  0.0489  0.2229
13975W        W14839   6.154  11.204  11.859  0.1666 -0.1157  0.1986
13976W        W14840   8.455  19.712  24.227 -0.0832  0.2392 -0.0515
13977W        W14841  18.002  13.414  18.980 -0.2788  0.5349 -0.0611
13978W        W14842   9.888  27.533   9.301 -0.0221 -0.1567 -0.1536
13979W        W14843  21.567  20.621  11.099  0.2956 -0.0536  0.0525
13980W        W14844  14.201   9.103  29.098 -0.1240 -0.3042 -0.2971
13981W        W14845   4.330  24.779   7.292 -0.0917  0.0271  0.1789
13982W        W14846  22.383  17.931  23.938 -0.4666 -0.2949  0.0782
13983W        W14847  26.617  26.636  24.566 -0.5154  0.0533  0.0804
13984W        W14848  14.136   9.878  13.336  0.1187  0.0384  0.1663
13985W        W14849   9.443   4.447  24.802  0.0172 -0.0165  0.0434
13986W        W14850   8.573  15.826  16.502  0.0604  0.1088  0.1164
13987W        W14851   9.291  10.749  28.869 -0.0683 -0.0479  0.1066
13988W        W14852   3.821  13.325  13.321  0.0212  0.0929  0.0977
13989W        W14853  22.440   6.901  28.253 -0.1044  0.1622 -0.0098
13990W        W14854  16.266  10.576  12.864  0.0840  0.2275 -0.0881
13991W        W14855  23.562  15.586  21.637  0.0266  0.1727  0.2271
13992W        W14856  25.104  27.856   5.702 -0.0627  0.0203 -0.1975
13993W        W14857  14.310   2.495  19.422  0.0766 -0.2168  0.2418
13994W        W14858  21.417  18.623   0.233 -0.1341 -0.2351  0.2059
13995W        W14859  19.561  24.334   7.401  0.2797  0.2859 -0.1654
13996W        W14860  16.121  14.735  11.090 -0.2230 -0.0723  0.1135
13997W        W14861  19.238  12.601   2.150 -0.0907 -0.4189 -0.0962
13998W        W14862   3.777   5.624  22.582 -0.0239  0.0751 -0.1407
13999W        W14863  20.494   8.068   0.607 -0.0492 -0.0187  0.0641
14000W        W14864   0.701  23.862   8.377 -0.5094 -0.2571 -0.0155
14001W        W14865  13.227   6.875   6.338  0.2231 -0.1217  0.2212
14002W        W14866  17.630  16.020  20.025  0.1840 -0.1483 -0.5705
14003W        W14867  26.693  25.549  25.149  0.1139 -0.2587 -0.3906
14004W        W14868  28.087  17.817  17.678 -0.0848 -0.1508 -0.1805
14005W        W14869  17.008  20.640  16.264 -0.2002  0.0830  0.2067
14006W        W14870   2.969  13.237  19.718 -0.0353 -0.1104 -0.2818
14007W        W14871  23.979  28.539  27.771 -0.2840  0.2457  0.3384
14008W        W14872  11.733   2.504  23.878 -0.1228  0.1871  0.0153
14009W        W14873  18.433   3.704  25.557  0.1117 -0.4479  0.1083
14010W        W14874   7.873   3.356  24.933 -0.3715  0.1037 -0.0618
14011W        W14875  21.689   3.496  19.101 -0.1766 -0.1930  0.2010
14012W        W14876  22.424  27.414   2.348  0.1458  0.1598  0.4079
14013W        W14877  14.423  18.704  22.125 -0.0985  0.0875  0.0122
14014W        W14878  14.105   3.771   2.277  0.2288 -0.2514 -0.2895
14015W        W14879  28.281   9.692  13.984 -0.0105 -0.1520  0.1717
14016W        W14880  17.700  23.566  14.989 -0.1119  0.0055 -0.4270
14017W        W14881  12.206  10.117  22.715  0.0594  0.0014  0.0560
14018W        W14882   1.020  18.627  21.438 -0.0243 -0.1827 -0.0214
14019W        W14883  10.593  15.047  12.307  0.1684  0.0995  0.0624
14020W        W14884   6.615   9.040   8.924 -0.2542 -0.0639 -0.1557
14021W        W14885  24.201  20.023   6.445  0.1049 -0.0278 -0.0358
14022W        W14886   6.512  21.684   9.079 -0.1978  0.1924 -0.2818
14023W        W14887   8.257   8.986   2.030  0.0543  0.2577 -0.0834
14024W        W14888  25.521  14.525  13.132 -0.1066 -0.0078 -0.1414
14025W        W14889  29.021  18.646  24.928  0.0841 -0.0123 -0.2296
14026W        W14890  20.928  28.313   6.926 -0.3219 -0.1006 -0.0658
14027W        W14891  19.630  16.845   9.586  0.1116 -0.0549  0.0898
14028W        W14892  21.618  19.063   3.804  0.0553 -0.0286 -0.0285
14029W        W14893  13.329   2.544  28.104  0.0056 -0.2067  0.0084
14030W        W14894   7.491   3.517  27.072  0.1406 -0.4323 -0.2947
14031W        W14895  16.096  18.740   1.926 -0.0822  0.1338  0.4978
14032W        W14896  13.301  16.197  28.811 -0.2117 -0.0085  0.1694
14033W        W14897  14.716   6.780  24.564  0.1888  0.0898  0.0872
14034W        W14898  22.697  12.915  21.698  0.2057 -0.1058  0.1614
14035W        W14899  14.278   3.539  20.313  0.0207  0.1755 -0.1789
14036W        W14900  19.539  22.317  11.798  0.1382  0.0207 -0.0479
14037W        W14901   1.769  25.237   7.820  0.0306 -0.0155  0.4361
14038W        W14902  21.352  17.552  14.986  0.1693  0.1450 -0.2156
14039W        W14903  11.248   7.465  26.436 -0.0417 -0.2501 -0.2195
14040W        W14904  28.935  25.207  18.889 -0.0943  0.0046  0.0824
14041W        W14905  23.778  20.087   6.752 -0.0030 -0.5767  0.2833
14042W        W14906  19.683  15.540   1.850 -0.1273  0.1389  0.2334
14043W        W14907  16.803  13.180  19.048 -0.0006  0.1500 -0.3628
14044W        W14908  16.333   1.931  11.077  0.2092  0.3293 -0.1994
14045W        W14909  24.431   9.621  26.788 -0.0204 -0.0297 -0.0984
14046W        W14910  19.665  11.985  25.514  0.5164 -0.0164 -0.1192
14047W        W14911  28.603  24.501  11.859  0.3278 -0.2212 -0.0340
14048W        W14912  15.873  15.588  11.847 -0.0666 -0.1346  0.3466
14049W        W14913  27.822  13.937  14.409  0.0504 -0.1837  0.2070
14050W        W14914  13.108  10.991  17.787  0.3094  0.0808  0.1854
14051W        W14915  27.261  11.068  23.413  0.1566  0.3522  0.0844
14052W        W14916  21.075   4.126  16.984  0.1142 -0.0954 -0.0985
14053W        W14917   8.711  15.852   8.242 -0.1298 -0.1658 -0.0404
14054W        W14918  14.929  22.289  21.932 -0.0007 -0.0617  0.0988
14055W        W14919  15.721  10.103  10.814 -0.0443 -0.2188 -0.4220
14056W        W14920   1.669  18.933  18.058  0.1947 -0.1410 -0.0718
14057W        W14921  13.237   9.884  28.344  0.2502 -0.2603  0.0963
14058W        W14922  13.315   6.942  22.483  0.1631 -0.0990 -0.3465
14059W        W14923  16.289   9.193  12.741 -0.3290  0.0638 -0.1760
14060W        W14924  12.736  23.131  15.618 -0.0906  0.1230  0.0156
14061W        W14925   9.648  10.699  13.316 -0.1048  0.0934 -0.2457
14062W        W14926   8.857   0.757  19.164 -0.0214  0.2451  0.0173
14063W        W14927   1.006  13.088  28.164 -0.2630 -0.0060  0.0587
14064W        W14928  26.840   0.820   8.279 -0.0175  0.0310 -0.0985
14065W        W14929  18.819   9.874  21.701  0.2176  0.1664 -0.3858
14066W        W14930  12.085   4.072  27.303 -0.0445 -0.0185 -0.2023
14067W        W14931  15.024   8.632  14.554 -0.4092  0.2154  0.1862
14068W        W14932  25.517   2.311  25.947  0.5402  0.0965  0.2996
14069W        W14933   3.522  11.217  15.435 -0.1323 -0.0706  0.1203
14070W        W14934  25.591  11.096  23.308  0.0799  0.1033 -0.3380
14071W        W14935  16.139   7.950  20.033 -0.3100  0.2576 -0.5812
14072W        W14936  26.125  18.853   5.480  0.2355  0.1305 -0.1345
14073W        W14937  23.620  17.428  22.799 -0.0374 -0.2663 -0.1008
14074W        W14938   4.866  16.052  18.450 -0.1330  0.2825  0.1883
14075W        W14939  19.460  16.149  11.244 -0.0554 -0.1182 -0.1110
14076W        W14940  18.131   6.062  17.059 -0.2257 -0.4168 -0.0103
14077W        W14941  15.141  21.563  10.034 -0.1820 -0.0502 -0.0415
14078W        W14942   9.864  26.956  14.161  0.2624 -0.0411 -0.1157
14079W        W14943   3.569   8.710  14.740  0.2668 -0.2089 -0.0708
14080W        W14944  22.774  23.195  28.362  0.1218  0.0428  0.1927
14081W        W14945  24.673  18.048  22.336 -0.0618  0.2043 -0.1690
14082W        W14946  17.109  21.923  15.509  0.2473 -0.0286 -0.1968
14083W        W14947  16.537  20.248  14.274  0.0348 -0.2611 -0.0967
14084W        W14948  16.502  17.841  21.523  0.3171  0.0237  0.1660
14085W        W14949  22.218   0.389  13.820 -0.0121  0.3339  0.1743
14086W        W14950  16.361  19.862  13.420 -0.2154  0.2649  0.1600
14087W        W14951  17.933  19.529  21.719 -0.0331 -0.0974 -0.2550
14088W        W14952  16.346  20.884  14.954 -0.1119  0.1214 -0.2303
14089W        W14953  11.323   3.828  21.428 -0.1614  0.1645  0.0482
14090W        W14954   1.873  15.079  11.049 -0.2337 -0.2123 -0.0656
14091W        W14955  14.123   7.853  20.853 -0.2271 -0.0419  0.0320
14092W        W14956  11.339  16.843  21.241 -0.1153 -0.4278  0.0122
14093W        W14957  20.390  21.788  19.430  0.0534  0.1148  0.1076
14094W        W14958   2.942  14.189  21.101 -0.1323  0.0141 -0.2447
14095W        W14959  21.309   4.722  16.561  0.0301  0.0812  0.0968
14096W        W14960  18.373  27.110   8.633  0.0359 -0.1454 -0.1384
14097W        W14961  15.709  14.012  17.292 -0.3308  0.0555 -0.2493
14098W        W14962   9.417   7.244   7.264 -0.4157 -0.0179  0.0075
14099W        W14963  24.734  12.834  22.808  0.2260 -0.2782  0.1995
14100W        W14964  22.529  25.963   9.937 -0.5033  0.0667  0.1820
14101W        W14965  18.035  22.723  23.169  0.1363  0.0187  0.2091
14102W        W14966  24.102  10.770   2.290  0.3402 -0.1491  0.0516
14103W        W14967   8.023  27.045  18.495 -0.1834  0.3009 -0.0677
14104W        W14968   2.173   2.852  15.158  0.0081 -0.0880 -0.1376
14105W        W14969  24.298  12.338  28.993 -0.3301 -0.1052  0.2997
14106W        W14970  22.455  25.094  10.481  0.2581 -0.4586 -0.3079
14107W        W14971   1.855  25.763  10.438  0.1174  0.2399 -0.1112
14108W        W14972  27.793   8.419  20.591  0.0412 -0.0293 -0.1446
14109W        W14973  25.213  10.085  28.206 -0.0141 -0.1623 -0.3648
14110W        W14974  15.245   2.095  17.780  0.0362  0.3481  0.0119
14111W        W14975  13.457   5.480  13.904  0.0996 -0.1311 -0.3566
14112W        W14976  20.143  10.779   7.265  0.0488 -0.2536  0.2554
14113W        W14977  15.840  15.022  25.228 -0.0732  0.0136  0.0475
14114W        W14978  14.500   0.613   4.596 -0.0673  0.0156  0.1608
14115W        W14979  17.522   8.688  15.740  0.1259  0.2056 -0.2140
14116W        W14980  20.170  12.152  20.613 -0.0057 -0.0842 -0.2960
14117W        W14981  28.814   6.796   4.321  0.0254  0.1459  0.0386
14118W        W14982  16.209  25.858   1.672 -0.0396  0.0430 -0.2750
14119W        W14983   6.591  18.220  26.037  0.2048 -0.0195 -0.2067
14120W        W14984   4.300  22.762  27.126  0.0891  0.0264  0.2545
14121W        W14985   1.814  22.406  26.317  0.0724  0.0025 -0.3728
14122W        W14986  10.284   5.709  27.149 -0.0691 -0.4155 -0.4210
14123W        W14987  22.164  22.031  10.298 -0.1140 -0.0966 -0.0966
14124W        W14988  19.510   1.253   4.939 -0.2313  0.0932  0.1266
14125W        W14989   4.102  21.030  17.012 -0.0813 -0.0994 -0.0468
14126W        W14990  18.462   2.359  19.806 -0.0434  0.1393  0.0173
14127W        W14991   2.472  10.537  25.521 -0.2159  0.1148  0.2637
14128W        W14992   0.863  18.203   9.633 -0.0373 -0.0235 -0.1534
14129W        W14993  17.594   4.835  26.171 -0.1098 -0.1752  0.0730
14130W        W14994   0.199   6.100  16.226  0.4797  0.2051 -0.0006
14131W        W14995  25.810  22.114   2.661  0.4370 -0.0138 -0.0561
14132W        W14996  18.217  13.800   1.745 -0.2231 -0.0380  0.0907
14133W        W14997  16.693  28.547  26.861  0.2897 -0.2003  0.0717
14134W        W14998   4.740   4.116  22.090  0.0970 -0.0098  0.0916
14135W        W14999   7.351   7.573  27.890  0.0233  0.2234  0.0794
14136W        W15000  17.658   6.134  24.333 -0.0810 -0.1167  0.1941
14137W        W15001  21.852  15.374  25.621  0.0713  0.3633  0.1316
14138W        W15002  23.393  26.459  16.721 -0.0157  0.0397 -0.2674
14139W        W15003  16.503  21.142  22.362  0.1060  0.2552  0.0511
14140W        W15004  23.797   8.668  17.304  0.1792  0.1708  0.2314
14141W        W15005  18.898  17.021  12.613 -0.0443 -0.2317  0.1925
14142W        W15006  11.626  18.255  15.590  0.0025 -0.1771  0.0331
14143W        W15007   2.454   5.448  23.042 -0.0013 -0.0231 -0.0463
14144W        W15008  20.682  22.285  21.680  0.0617  0.0607 -0.0788
14145W        W15009   2.199   0.413  26.056  0.1593  0.0348 -0.1115
14146W        W15010  21.989  27.972  18.330 -0.2138  0.0197  0.0710
14147W        W15011  12.070  20.467  15.676 -0.0120  0.0923  0.0136
14148W        W15012   0.740   3.884   8.196 -0.0504 -0.0191  0.1629
14149W        W15013   2.035  28.130   2.336 -0.2222  0.0955 -0.0223
14150W        W15014   1.863   3.531  20.975 -0.0907 -0.1243  0.1339
14151W        W15015   9.015  23.179  24.981 -0.0181  0.1149  0.0271
14152W        W15016   5.220   3.430  23.794  0.0274 -0.0268  0.0598
14153W        W15017   8.776  21.665   3.446 -0.0075  0.0216 -0.2347
14154W        W15018  23.336  20.474  21.491  0.2747 -0.0381 -0.0211
14155W        W15019  12.933  11.032   6.468 -0.1694 -0.0384 -0.0520
14156W        W15020  19.938  14.808  20.261 -0.2080 -0.0216 -0.0896
14157W        W15021  17.128  11.802  25.153 -0.0985  0.2267  0.0139
14158W        W15022   3.135   4.853  14.798  0.0690  0.3138 -0.0547
14159W        W15023  18.232  12.768  18.923 -0.1600  0.1155 -0.1186
14160W        W15024  11.988   4.304   7.840  0.1346  0.1227 -0.0916
14161W        W15025   9.965  11.778   9.195 -0.2015 -0.1350  0.1091
14162W        W15026   8.018   0.703  10.023 -0.1653 -0.3507 -0.1062
14163W        W15027  23.579  26.599   2.623 -0.2462  0.2505  0.0153
14164W        W15028  19.340   5.393  19.136  0.1661  0.1238 -0.2761
14165W        W15029  11.017  14.310  21.082  0.0860 -0.1206  0.0767
14166W        W15030  13.646  20.112  15.790  0.0076 -0.0323  0.1615
14167W        W15031  14.080  18.851  17.262  0.1255  0.1939  0.0733
14168W        W15032  19.718  10.492  14.173  0.0235  0.1128 -0.1385
14169W        W15033  11.115   8.471   8.688 -0.0105 -0.1807  0.3550
14170W        W15034   8.895  24.938  21.210 -0.2001  0.2106  0.0904
14171W        W15035  20.332  12.590  16.953 -0.2139 -0.0999  0.2874
14172W        W15036  17.918  14.727  15.399 -0.2962  0.0441  0.2695
14173W        W15037  25.377   9.999   7.709 -0.0908  0.0423  0.1047
14174W        W15038   6.276   7.220  16.771 -0.0913 -0.1271 -0.3398
14175W        W15039  22.082   3.477  15.920 -0.0874 -0.1063 -0.0617
14176W        W15040  20.283  27.465   3.218 -0.0842  0.0093 -0.2129
14177W        W15041   1.314   6.706  25.202 -0.0885  0.2356  0.1763
14178W        W15042  20.567   3.303  22.946  0.1503  0.0234  0.0043
14179W        W15043   7.629  20.855   1.716 -0.0779 -0.1546 -0.0195
14180W        W15044   1.694  22.874  23.620  0.1261 -0.0191 -0.1627
14181W        W15045  12.377  21.260  13.614 -0.0716  0.0549  0.0276
14182W        W15046  18.356  10.795  26.350  0.1254  0.1448  0.4976
14183W        W15047  11.265   4.543  16.618 -0.0092  0.1790 -0.0907
14184W        W15048  17.395   0.141  23.791  0.1959  0.1833  0.1783
14185W        W15049   5.534  15.488  19.957 -0.2485  0.0079 -0.1523
14186W        W15050  18.035   1.361  22.554  0.0352  0.1180  0.0505
14187W        W15051  18.438   4.728   1.553  0.0428  0.0528 -0.1472
14188W        W15052  15.431  18.095  27.273  0.0703  0.1930  0.0824
14189W        W15053  10.414   5.663  21.088 -0.4517 -0.1579 -0.0405
14190W        W15054   5.176  12.550  26.771  0.2278 -0.1472  0.4439
14191W        W15055   6.371  25.325  13.697 -0.0859 -0.1692  0.0367
14192W        W15056   6.561   8.080  14.679 -0.1898  0.1995  0.0382
14193W        W15057   4.884  28.920  23.227 -0.0951  0.0603 -0.0854
14194W        W15058   1.264  12.879   2.316 -0.0707 -0.3331  0.1742
14195W        W15059   0.057  21.038  18.180  0.0358 -0.1903 -0.1835
14196W        W15060   3.662  14.034  10.646  0.3129 -0.1764  0.1335
14197W        W15061  20.579   3.694  24.667  0.0473  0.2737  0.1028
14198W        W15062  11.165  10.614   3.267 -0.0570 -0.0114 -0.0985
14199W        W15063  24.297  17.084  22.105  0.1515  0.1320  0.0277
14200W        W15064  26.049  14.095  14.026  0.1651 -0.4443  0.4627
14201W        W15065   2.640   6.408  21.136  0.0727 -0.0433  0.2077
14202W        W15066  21.323  14.548  18.133  0.2034 -0.2461 -0.1510
14203W        W15067  14.915  15.143  14.451 -0.0216 -0.0675  0.2509
14204W        W15068   2.319  11.853   8.732 -0.0620  0.0248  0.0157
14205W        W15069  20.575  10.214  23.254  0.1463 -0.2550 -0.1912
14206W        W15070  26.111  17.998  26.772  0.2359 -0.1350  0.1740
14207W        W15071   0.332  21.034  22.692 -0.3637 -0.1341 -0.1701
14208W        W15072  21.989  18.062  23.432  0.0827  0.3039  0.1083
14209W        W15073  21.252  13.964  23.262 -0.1618 -0.0557  0.1209
14210W        W15074  13.720   1.821  23.672  0.1852 -0.2603 -0.2809
14211W        W15075  15.613  22.997  14.698  0.1606  0.0045 -0.4102
14212W        W15076  12.392  14.270  20.102  0.1473 -0.0934  0.0882
14213W        W15077  22.197  10.591  20.190  0.1929 -0.0209 -0.2663
14214W        W15078   3.455  13.769  22.587 -0.1409 -0.1255 -0.0036
14215W        W15079  24.245  14.114  26.433 -0.1030 -0.0660 -0.2936
14216W        W15080  21.506   3.387   8.776  0.0689  0.3588  0.0774
14217W        W15081   0.097  18.860   1.280 -0.3237 -0.1525  0.0673
14218W        W15082   1.387   8.182  13.044 -0.2373  0.2206  0.2709
14219W        W15083   7.496   2.471   7.006  0.0437  0.2823  0.0281
14220W        W15084  13.359   0.603  26.444 -0.1833 -0.0611  0.2179
14221W        W15085  12.159   0.976   2.430 -0.3720  0.2083  0.0003
14222W        W15086  15.628   4.873  15.255  0.0082 -0.0969 -0.1735
14223W        W15087  24.664  26.360   8.952  0.1565  0.1924 -0.1146
14224W        W15088  26.986  27.461  12.814 -0.0967 -0.0485  0.2573
14225W        W15089  19.834  21.060   5.594  0.0454  0.0897 -0.3760
14226W        W15090  16.298  27.897   7.640 -0.0006 -0.1071 -0.0692
14227W        W15091  16.467  11.594  27.776 -0.0776  0.4144 -0.3006
14228W        W15092   9.488   8.524  24.758 -0.1816 -0.4298  0.1271
14229W        W15093  11.000  16.136  24.412 -0.1499  0.0635 -0.1850
14230W        W15094  14.734   5.940  13.046 -0.0760 -0.0594 -0.0345
14231W        W15095  21.076  21.431   1.818 -0.0406  0.2698 -0.3978
14232W        W15096  28.875  12.637   5.659 -0.0490 -0.1279  0.0226
14233W        W15097  11.604   7.326  13.363 -0.2089  0.1328  0.0938
14234W        W15098  24.351  20.102  24.021  0.0982 -0.1824 -0.0135
14235W        W15099  22.830   2.602  14.730  0.0484 -0.1780 -0.0444
14236W        W15100  23.607   3.974  21.147  0.1034  0.1262 -0.0544
14237W        W15101  25.658  21.124  10.787 -0.0373  0.2193 -0.0672
14238W        W15102   3.979  19.378  21.599 -0.0122 -0.0517  0.2354
14239W        W15103  21.410  23.980  26.914  0.2686 -0.2356 -0.1851
14240W        W15104  10.296   0.528  28.747 -0.0096 -0.0013  0.1005
14241W        W15105  23.982   8.972  28.756  0.0209 -0.0008 -0.1797
14242W        W15106  19.971   0.231   9.778 -0.2036  0.2206 -0.1807
14243W        W15107  26.127  22.863  19.453 -0.1663 -0.2854 -0.0157
14244W        W15108   5.528  24.221  10.130  0.2489 -0.1482 -0.2042
14245W        W15109  10.479  10.789  26.661  0.0271  0.0507 -0.3455
14246W        W15110   4.764  28.791  18.619  0.3774  0.1258 -0.3571
14247W        W15111  18.742  18.495  25.865  0.0870  0.1396 -0.1774
14248W        W15112   6.060  19.309  10.666 -0.0864 -0.2138  0.1321
14249W        W15113  28.056  21.160  11.051  0.1804 -0.0286  0.0350
14250W        W15114  15.122  11.780  13.874  0.1762  0.1510  0.0354
14251W        W15115   5.280  20.383   0.692 -0.0114 -0.0591  0.0939
14252W        W15116  17.289  26.324   2.443 -0.0876 -0.0108  0.0494
14253W        W15117  17.854  14.237  21.991 -0.0761  0.1995 -0.0055
14254W        W15118  10.715  14.714  23.241  0.0837 -0.1925  0.0234
14255W        W15119  13.343   9.631  18.104  0.0962 -0.5541 -0.0838
14256W        W15120  14.826  14.823  13.154 -0.0790 -0.0800  0.0327
14257W        W15121  19.168   1.447  13.997  0.0273 -0.0236  0.0607
14258W        W15122  14.226  24.022   2.401 -0.3954  0.1684 -0.1640
14259W        W15123   1.931  11.825  21.399  0.0602  0.0773 -0.1149
14260W        W15124  10.670   2.065  13.086 -0.2597 -0.0667  0.0436
14261W        W15125  24.802  20.948  18.099  0.0686 -0.0060  0.0332
14262W        W15126  12.098  13.230   5.306 -0.0625  0.0579 -0.1391
14263W        W15127  21.577   5.799   7.265  0.3313 -0.1324  0.0389
14264W        W15128  13.371   4.751  18.239  0.2854  0.0796  0.1046
14265W        W15129  20.267  20.606   3.624  0.1582 -0.0058 -0.0285
14266W        W15130   8.263   5.609   4.334  0.0963 -0.0697  0.0301
14267W        W15131  10.057  25.355  18.807 -0.2207 -0.3782 -0.0967
14268W        W15132  23.314   7.961  25.849 -0.1070  0.2184  0.0215
14269W        W15133  11.628  22.170  21.271  0.1039 -0.2413  0.0492
14270W        W15134  17.280  27.736  24.435 -0.1625 -0.0026  0.1451
14271W        W15135  16.152  11.563   1.441 -0.1753 -0.1435  0.0007
14272W        W15136  19.071   0.094  19.912 -0.0654  0.0270 -0.1364
14273W        W15137  22.210  24.531  18.858  0.1025 -0.0649 -0.4062
14274W        W15138   9.571   9.543  20.945  0.2034 -0.1687  0.3265
14275W        W15139   9.997  11.580  20.103  0.0700 -0.1588  0.3726
14276W        W15140  26.823  28.132  15.355 -0.3600  0.0440 -0.1689
14277W        W15141  11.722  16.301  19.546 -0.1300 -0.0769  0.3853
14278W        W15142   6.374  13.081  17.361  0.1863 -0.0220 -0.1172
14279W        W15143  20.047  11.716  19.797  0.1889 -0.1808 -0.0012
14280W        W15144  23.260   2.160   9.762  0.4004 -0.0359  0.1757
14281W        W15145  14.127  11.215  19.653 -0.0062 -0.1426  0.0824
14282W        W15146  23.404   8.574   5.784  0.2709  0.0697  0.0095
14283W        W15147  15.149  13.623  27.646  0.2836 -0.0745 -0.0217
14284W        W15148   7.278  28.177  21.039  0.1609 -0.4009  0.2105
14285W        W15149   5.743  16.504  10.974  0.0285  0.1529 -0.0545
14286W        W15150  14.812   6.281  20.192 -0.0424  0.0363  0.2399
14287W        W15151  20.160  19.106  27.166  0.0287  0.0249 -0.2299
14288W        W15152  16.033   8.444  23.232  0.2400 -0.1404  0.2102
14289W        W15153  10.403  11.280  22.184 -0.1994 -0.0345  0.0176
14290W        W15154   6.739   3.529   8.599  0.3193  0.1708  0.1937
14291W        W15155   2.368  26.181   5.455  0.3277 -0.1261  0.3036
14292W        W15156  24.015   3.095  10.378  0.3158  0.4078  0.0031
14293W        W15157   5.151   4.521  14.423  0.3552 -0.2992  0.0142
14294W        W15158  22.883   9.383  16.199  0.2689 -0.1008 -0.0091
14295W        W15159  24.710  13.214  13.695 -0.0014  0.4463  0.2448
14296W        W15160  13.899   8.774   0.333  0.0854 -0.2988  0.1117
14297W        W15161  12.890  16.953  25.313  0.0378 -0.0023  0.0433
14298W        W15162  21.455  12.036  24.695  0.1103 -0.3592 -0.0857
14299W        W15163  13.971  11.329   0.995 -0.0164  0.3152  0.0653
14300W        W15164  25.883  24.924  19.182 -0.1561  0.0382  0.0911
14301W        W15165  24.509  14.540  19.356  0.0824 -0.0795 -0.0269
14302W        W15166  11.391  23.145  28.313  0.0434 -0.2432  0.1337
14303W        W15167  22.417  15.883  12.886  0.0862  0.0130 -0.0883
14304W        W15168  22.402  25.260  15.987  0.0582  0.1170  0.1541
14305W        W15169  20.020  27.802   9.661  0.2269  0.0205 -0.1572
14306W        W15170  20.864   1.632   1.559  0.2945  0.1310  0.2542
14307W        W15171   6.451  12.792  23.924 -0.4784  0.0735 -0.0611
14308W        W15172   4.488  11.440  15.280  0.3256 -0.2752  0.0334
14309W        W15173   5.884   8.121  12.777  0.1469 -0.2597 -0.1114
14310W        W15174  12.767   4.654  15.894 -0.0284  0.0392 -0.1236
14311W        W15175  15.681   9.371  16.427 -0.0150 -0.2596  0.0918
14312W        W15176  15.042  25.789   3.863  0.1952  0.4488 -0.1101
14313W        W15177  12.853  20.250  12.075  0.1147 -0.0746  0.1728
14314W        W15178  25.920  13.822   3.291 -0.2815  0.1949  0.1027
14315W        W15179  25.877   4.636  23.955 -0.1543  0.0498 -0.2633
14316W        W15180  26.271  23.103  28.382  0.0810  0.3325  0.1142
14317W        W15181  20.272  15.179  12.055 -0.2292  0.2665 -0.0538
14318W        W15182  21.255  14.883  23.098 -0.2978  0.0206  0.0401
14319W        W15183  14.549   1.464   2.300  0.3457 -0.2395 -0.1791
14320W        W15184  12.347   9.841  20.906  0.1915  0.1486 -0.1071
14321W        W15185  13.989  18.580   8.651 -0.1055 -0.1079 -0.0422
14322W        W15186  27.027  17.751   0.947  0.1720  0.0485 -0.2049
14323W        W15187  27.921   6.091  25.775  0.1208 -0.0893  0.3541
14324W        W15188  13.604  21.347  19.369 -0.2674  0.1578  0.2978
14325W        W15189  11.293   9.746   0.746 -0.0006 -0.1889  0.0669
14326W        W15190  20.181   2.043  24.869 -0.0750 -0.3615 -0.1664
14327W        W15191  12.265  23.225  23.064  0.0608 -0.1110  0.1008
14328W        W15192  21.233  17.935  20.441  0.2109 -0.1272 -0.0933
14329W        W15193  11.916  25.573  25.744  0.0696 -0.0200  0.0639
14330W        W15194  20.921  17.490  22.479 -0.0149  0.0440  0.0963
14331W        W15195  21.272   4.790   3.342  0.0125  0.1126 -0.0769
14332W        W15196   6.595  10.660  16.398  0.0258 -0.0065  0.0934
14333W        W15197   8.066  22.594   4.040  0.0155  0.0547  0.1330
14334W        W15198  22.229  10.346  18.220 -0.0636  0.2957  0.1555
14335W        W15199  28.805  10.403  11.407 -0.0133 -0.0306 -0.2642
14336W        W15200  24.505  26.501  21.128 -0.0273  0.2186  0.6264
14337W        W15201  28.640  25.578   1.886  0.1774 -0.2376  0.2289
14338W        W15202  10.329  12.535  19.107 -0.1104 -0.1245 -0.1584
14339W        W15203  18.291  13.002   1.462  0.2393 -0.1740  0.0092
14340W        W15204  12.984  11.848  14.719  0.1191 -0.0587  0.1345
14341W        W15205  18.546  14.632  24.072  0.1651 -0.0364 -0.1558
14342W        W15206   3.655  13.407   1.032 -0.1268 -0.0294  0.0305
14343W        W15207  13.227  19.866   9.619  0.1840  0.2572 -0.0164
14344W        W15208  11.943   5.263   8.295  0.3842 -0.3306 -0.2504
14345W        W15209   2.715  27.975  14.286  0.0005 -0.3422 -0.0300
14346W        W15210   7.780  11.284  20.329 -0.0278  0.3668  0.1023
14347W        W15211  14.071   1.554  12.576 -0.0176  0.2536 -0.1063
14348W        W15212   7.255   7.720   7.050 -0.0004 -0.0103 -0.1368
14349W        W15213   3.077   9.012  22.893  0.2810  0.0478 -0.2980
14350W        W15214   7.844  17.092  11.246  0.1766  0.0588  0.2553
14351W        W15215  16.670  15.492  19.374 -0.1968 -0.0098 -0.3358
14352W        W15216   4.001  21.390  23.532 -0.2251  0.0022  0.1096
14353W        W15217  26.615  28.612   3.725  0.1239  0.0270 -0.0020
14354W        W15218  15.073  13.702  20.971  0.1076  0.1472  0.1130
14355W        W15219  19.685  10.739  24.649 -0.0004 -0.1966  0.0393
14356W        W15220  10.826  16.702  20.039  0.3899  0.0300  0.1923
14357W        W15221  21.244   9.008  27.355 -0.3912  0.0342  0.1726
14358W        W15222  13.044   6.381  29.077  0.0173  0.3911 -0.0210
14359W        W15223  16.079   9.109  16.896  0.0299  0.0291  0.0778
14360W        W15224  28.335   1.582  26.600 -0.0305 -0.2550 -0.0416
14361W        W15225  23.561  14.638  16.466 -0.1376 -0.3214  0.2362
14362W        W15226   4.600   4.066  21.455  0.1322 -0.0089  0.2251
14363W        W15227  23.489  17.747  23.161  0.0183  0.3306 -0.0072
14364W        W15228  11.201  11.995  21.752 -0.1058 -0.0951 -0.0419
14365W        W15229  28.001  14.656   2.387  0.0244 -0.0307  0.0565
14366W        W15230  15.266  10.265  10.842  0.1449  0.1845  0.2475
14367W        W15231  25.788  15.062  20.997 -0.2277 -0.0459  0.1168
14368W        W15232  26.705   3.765   7.210 -0.0469 -0.0775 -0.0901
14369W        W15233   2.594  22.028  16.895  0.2543  0.1600  0.4963
14370W        W15234  20.362   9.541   4.655  0.1849  0.1779 -0.0633
14371W        W15235  21.823  22.170   8.465 -0.1647 -0.0107 -0.2528
14372W        W15236  26.101  13.592  23.014  0.0008 -0.0444  0.0351
14373W        W15237  13.541  27.086  21.269  0.0034 -0.1967  0.3687
14374W        W15238   2.427  27.597  17.245 -0.0809  0.3135  0.1746
14375W        W15239  26.836  26.907  20.060  0.0414  0.0734 -0.0216
14376W        W15240  20.910  16.760  18.828 -0.0728 -0.4018  0.0442
14377W        W15241  11.432   5.919   7.410  0.0183  0.0248 -0.1488
14378W        W15242   0.833   7.730  21.021  0.0005  0.2049 -0.0102
14379W        W15243   3.741  24.102   0.238 -0.1325  0.1784 -0.3321
14380W        W15244  11.752   7.901  11.948  0.1944 -0.0336 -0.3629
14381W        W15245  26.329  16.059  10.448 -0.0169  0.0665 -0.0483
14382W        W15246  12.401  13.511  26.869  0.1780  0.0522 -0.1764
14383W        W15247  16.803   3.287  21.071 -0.1759 -0.1307 -0.0619
14384W        W15248   0.594  20.365  20.602 -0.0920  0.0114  0.0902
14385W        W15249  13.425   6.579  24.587  0.0953 -0.0739 -0.3522
14386W        W15250   5.979  11.276  15.197  0.0836  0.0695 -0.2108
14387W        W15251   7.837   7.458  13.549  0.5103  0.0248  0.2598
14388W        W15252  10.424   0.742   1.161 -0.1852 -0.2191 -0.2838
14389W        W15253   4.799   4.492  22.394 -0.2131 -0.0985  0.1465
14390W        W15254   7.831  25.041  23.429 -0.2334  0.0153 -0.1201
14391W        W15255   2.363  22.804   2.093  0.1429  0.2546 -0.0789
14392W        W15256  19.695  20.816   6.041 -0.2483  0.4394 -0.1255
14393W        W15257  13.548   1.697   9.587 -0.0744 -0.2546  0.2591
14394W        W15258  19.869  13.639  20.089  0.1318  0.2612 -0.2580
14395W        W15259  13.712  16.686  19.640  0.0033  0.1889  0.0462
14396W        W15260   2.832  13.245   1.593 -0.0682 -0.3243 -0.0900
14397W        W15261  22.033  24.812  17.031 -0.0541 -0.2804  0.0787
14398W        W15262  28.451  26.466  24.284 -0.1009  0.2487  0.0304
14399W        W15263  16.949  22.626  11.698 -0.0246 -0.0201  0.2088
14400W        W15264  21.159  14.622   3.860  0.3266 -0.1822  0.2687
14401W        W15265  13.018   4.082  20.010 -0.3373 -0.1014  0.2838
14402W        W15266  23.107  19.042  20.383  0.3880  0.4540 -0.0572
14403W        W15267  10.508  21.707  23.861  0.1797 -0.0365  0.2475
14404W        W15268  18.388   6.132  10.361 -0.2012  0.2139  0.0220
14405W        W15269  19.765  10.483  24.059 -0.1923 -0.0752 -0.0114
14406W        W15270   7.013  10.217  16.958 -0.0630 -0.3077 -0.1004
14407W        W15271  24.899  19.500  25.034 -0.1211  0.0998  0.0605
14408W        W15272  26.457  10.392  22.703  0.0452 -0.0103  0.0187
14409W        W15273  23.860   7.339  16.078 -0.1466 -0.0026 -0.2812
14410W        W15274  14.579  21.888   8.055  0.0680 -0.0412  0.0918
14411W        W15275  23.767   3.724  27.350 -0.0620 -0.0943  0.3836
14412W        W15276  22.449   8.328  25.222 -0.3935 -0.1711  0.0008
14413W        W15277   3.925   2.059  18.279 -0.0362 -0.2991 -0.2513
14414W        W15278  12.958  22.574  19.946 -0.2858  0.0912 -0.0211
14415W        W15279   0.834  10.900  16.414 -0.0400  0.1842 -0.1438
14416W        W15280  27.478   7.772  28.962  0.1094 -0.3140 -0.0682
14417W        W15281   9.926  21.289   4.109  0.1214  0.0785  0.1173
14418W        W15282   7.824  13.387  18.686 -0.0799 -0.3127  0.1429
14419W        W15283  14.091  12.625  10.175 -0.1837  0.1098 -0.1748
14420W        W15284  24.358  27.682   6.599 -0.2148 -0.3756  0.0302
14421W        W15285   4.427  23.043  25.233 -0.0050 -0.1927 -0.0038
14422W        W15286  10.182  10.434  11.825 -0.0398  0.2157  0.1247
14423W        W15287  11.820  10.580  23.837 -0.1081  0.1146  0.0534
14424W        W15288  21.584  23.008   1.886  0.1575 -0.0505 -0.1930
14425W        W15289  14.360  17.839  19.113 -0.0393 -0.0177  0.0493
14426W        W15290  13.961   9.894  10.011 -0.0885  0.2970 -0.0698
14427W        W15291   8.212   8.112  24.060  0.2523  0.3843 -0.2250
14428W        W15292  16.874   3.862   4.319  0.0249  0.2910  0.3573
14429W        W15293  21.850  10.486  26.800  0.0623 -0.2191  0.0248
14430W        W15294  13.685   0.389  23.977  0.0689  0.1442 -0.3714
14431W        W15295  19.939  17.746   9.116 -0.0335 -0.0954 -0.2101
14432W        W15296  14.469  20.209  18.512 -0.3552 -0.0114 -0.1144
14433W        W15297   6.793  16.939  18.783  0.2469  0.0063 -0.1348
14434W        W15298  17.167   4.399  24.073  0.0032 -0.1450  0.0230
14435W        W15299  19.039   7.613  26.873  0.0466 -0.1150  0.1235
14436W        W15300  14.124  15.528   0.736  0.0249 -0.1823  0.0886
14437W        W15301   8.618  19.147  22.700  0.2845 -0.0180  0.1246
14438W        W15302  12.901  15.318  11.028 -0.1982 -0.1745  0.0200
14439W        W15303   3.090  28.417   2.321  0.1954 -0.0053 -0.1255
14440W        W15304  28.728   8.066  26.963  0.0725 -0.0065  0.1523
14441W        W15305   1.027   7.132  18.423 -0.0537 -0.0279  0.0088
14442W        W15306  24.692  27.080   0.445  0.1031 -0.0499 -0.0153
14443W        W15307   8.043   6.676  27.154  0.0068  0.0414  0.0759
14444W        W15308  18.548  14.189  17.535 -0.0598  0.3028  0.2798
14445W        W15309   9.009   0.943   9.967  0.0966  0.0077 -0.2872
14446W        W15310   9.935  15.146  10.831  0.1862 -0.1087 -0.1251
14447W        W15311  17.165  23.068  26.157 -0.0380 -0.0168  0.1840
14448W        W15312  12.900   3.505  18.761 -0.0217 -0.3881 -0.1472
14449W        W15313  13.495  10.589  17.537  0.3031  0.0974  0.3908
14450W        W15314  23.054  21.049   3.426  0.0280 -0.1432  0.2706
14451W        W15315   4.513  11.691  24.672  0.1054  0.0034 -0.2500
14452W        W15316  26.478  15.226  23.003  0.0057  0.1196 -0.0206
14453W        W15317  20.190  10.531  17.751 -0.0251 -0.1913  0.0672
14454W        W15318  29.064  15.280  15.619 -0.0570  0.0386 -0.2204
14455W        W15319  12.135   3.114   2.054  0.0598 -0.3400 -0.0502
14456W        W15320  11.582  14.216   6.416 -0.0004  0.1609  0.3722
14457W        W15321   7.795  12.126   3.500  0.1164 -0.3106 -0.0972
14458W        W15322  17.766  10.384  14.621  0.1518 -0.3065  0.1587
14459W        W15323  20.746  13.445   9.946  0.2027  0.1131  0.0616
14460W        W15324  25.282  18.413   5.799  0.3440  0.0027  0.0106
14461W        W15325  11.608  16.747  11.708  0.0241 -0.0256  0.0235
14462W        W15326  11.545  14.526  22.809  0.0853  0.1883  0.4982
14463W        W15327   0.493   0.932   8.510  0.1362 -0.0585 -0.1365
14464W        W15328  28.075  21.365  12.958  0.3718 -0.0935 -0.1480
14465W        W15329  28.945  12.978  26.761 -0.2964 -0.0551  0.0381
14466W        W15330   9.724  11.836  16.080  0.1851 -0.0952 -0.0970
14467W        W15331  15.052   7.359  23.992  0.3559 -0.0400  0.1057
14468W        W15332  16.317  27.912   2.384  0.2118 -0.0189  0.1295
14469W        W15333  15.316  12.560  16.154 -0.0640 -0.1782 -0.0834
14470W        W15334  20.935  17.352   9.412 -0.0266 -0.1193 -0.0803
14471W        W15335   6.874  12.156  18.785 -0.0641  0.0287 -0.0317
14472W        W15336   2.500  19.443  18.975  0.0548 -0.2306  0.4008
14473W        W15337   5.575   2.399  26.858  0.1932 -0.0334  0.0413
14474W        W15338   1.766   2.366   8.363  0.3964  0.0977 -0.0673
14475W        W15339  11.998  18.103  19.914  0.0580 -0.1765  0.0496
14476W        W15340   0.145  20.431   2.587 -0.0419 -0.0039  0.2153
14477W        W15341   3.876  13.375  27.181  0.5317  0.3354 -0.1362
14478W        W15342  23.841  12.679  15.066 -0.2081 -0.0082  0.0205
14479W        W15343   5.996  21.739  20.260 -0.2384 -0.1366 -0.1950
14480W        W15344  14.859   5.528   7.868  0.0350 -0.0453 -0.2324
14481W        W15345   7.392  23.792   6.745  0.1213  0.0677 -0.1576
14482W        W15346  12.479  17.762  23.405  0.0946 -0.4351  0.0467
14483W        W15347  14.820  11.788   0.277 -0.0076 -0.0278  0.3625
14484W        W15348   7.172  11.772  23.477  0.0433 -0.0750  0.1695
14485W        W15349   4.455   8.123  25.718 -0.2027 -0.2029 -0.0509
14486W        W15350  21.361  14.664  15.335  0.1958 -0.4874 -0.0337
14487W        W15351  20.177   4.819  24.385  0.1172 -0.2552  0.0701
14488W        W15352   2.243  18.707  15.853  0.2579 -0.1169 -0.1117
14489W        W15353   0.474  27.812  21.434  0.1993  0.0720 -0.3703
14490W        W15354  15.706  12.603  26.256 -0.1580  0.0195 -0.0281
14491W        W15355  10.795  26.339  11.137 -0.2234  0.0477 -0.1348
14492W        W15356  22.978   8.726   0.420 -0.0529  0.2983 -0.1006
14493W        W15357  24.788  16.128   4.472 -0.2008 -0.0121 -0.0710
14494W        W15358  24.668  11.401  16.403 -0.0458 -0.0895  0.2526
14495W        W15359  15.958  23.480   1.789 -0.1869 -0.5453 -0.2303
14496W        W15360  23.308  14.142  19.973 -0.0306  0.4356 -0.1047
14497W        W15361   7.528   8.690  19.977 -0.0882 -0.0633 -0.2767
14498W        W15362  14.355   8.049  10.137  0.0765  0.1817  0.2032
14499W        W15363   1.534   8.817  21.856  0.1470 -0.0356 -0.0536
14500W        W15364   3.408  13.221  26.448  0.0315  0.0658  0.1643
14501W        W15365   5.267  23.062  22.287  0.0091 -0.1714  0.1936
14502W        W15366  24.469  16.297  17.078  0.0818  0.4235 -0.0414
14503W        W15367  20.217   0.754  10.525 -0.1273 -0.0164 -0.1852
14504W        W15368  19.036   2.169  20.497  0.1678 -0.1399  0.3002
14505W        W15369  18.731  26.368   9.188 -0.2127 -0.2419  0.1786
14506W        W15370  18.759  23.496   7.531 -0.2576  0.2094  0.2738
14507W        W15371   8.298  17.192  11.216 -0.4135  0.1285  0.2510
14508W        W15372   5.131  13.097  22.131 -0.0633 -0.1448 -0.1369
14509W        W15373  26.957  15.708   1.117  0.1593 -0.1639  0.3275
14510W        W15374  23.513  27.676   0.620  0.1969  0.2724  0.2363
14511W        W15375   0.125  21.491  11.555  0.1272  0.2826 -0.1588
14512W        W15376  11.247  18.223  19.425  0.0791  0.1037  0.3665
14513W        W15377  21.879  10.460   3.398  0.0033  0.0104 -0.1239
14514W        W15378   2.681   3.770   2.055 -0.2543  0.0119  0.1505
14515W        W15379  17.258  18.614  18.309 -0.1091 -0.1303  0.1493
14516W        W15380   4.802  21.158  20.028  0.1906  0.2958  0.0643
14517W        W15381  14.107  16.025  19.005 -0.0566  0.1001  0.2405
14518W        W15382  17.947   1.544   0.733  0.1908 -0.0595 -0.1023
14519W        W15383  22.989  10.327  22.857  0.1919  0.4033 -0.1213
14520W        W15384  19.743  24.389  20.379  0.0279 -0.0124 -0.0177
14521W        W15385   5.901  15.927   8.873  0.0139  0.0690 -0.0428
14522W        W15386   5.777  17.156  16.950  0.2732 -0.1870 -0.3762
14523W        W15387   2.530   2.713  28.873 -0.0607 -0.1510  0.3615
14524W        W15388   4.898  14.155   7.128 -0.0629  0.0531  0.0863
14525W        W15389  23.463   8.338   4.885 -0.1136  0.1848 -0.1358
14526W        W15390  25.440   8.710  28.171  0.1133  0.0266  0.0499
14527W        W15391  22.696  11.154   0.466 -0.4178 -0.1326  0.2250
14528W        W15392   2.320  12.584   8.065  0.0339 -0.1722 -0.0731
14529W        W15393   8.610  10.377  19.570  0.0306  0.2370  0.0919
14530W        W15394   0.900  19.313  22.010  0.1357 -0.1487  0.0940
14531W        W15395   6.469  12.814  27.031  0.2491 -0.1524 -0.0377
14532W        W15396   1.675  28.515  24.945  0.1194  0.0423 -0.0663
14533W        W15397  15.175   3.732  13.655  0.3546  0.3477 -0.1073
14534W        W15398  24.837   8.529   8.972  0.0628 -0.0527  0.2743
14535W        W15399   4.177   6.300  15.206  0.1565  0.4139  0.2524
14536W        W15400  14.221   8.938   8.772  0.2451 -0.0883  0.1079
14537W        W15401   6.629  12.553   9.002  0.2056 -0.1080 -0.1079
14538W        W15402   4.115   5.465  17.143  0.0455 -0.2949  0.4988
14539W        W15403  18.791   4.462  12.220  0.1212 -0.0634 -0.1342
14540W        W15404   7.554  18.227  21.191  0.1822  0.2634 -0.0109
14541W        W15405  18.845  24.628  21.569 -0.0169  0.3276  0.0044
14542W        W15406  20.050  16.122  24.882  0.1556  0.0169 -0.0257
14543W        W15407  13.758  28.823  20.556  0.4115  0.1273 -0.1943
14544W        W15408   3.379   9.594  17.337 -0.0661  0.0561  0.0959
14545W        W15409  18.705  13.026  11.786 -0.2123  0.1799 -0.0469
14546W        W15410  28.393   6.435   8.118 -0.1566  0.0303 -0.0421
14547W        W15411  10.892  16.640  16.296  0.1957  0.6734 -0.0477
14548W        W15412   7.987  17.739   2.125  0.0056 -0.0828  0.2505
14549W        W15413  27.493  25.351  22.151 -0.4051  0.0113 -0.1833
14550W        W15414  17.566  22.825  26.441  0.4123  0.0707  0.1256
14551W        W15415  15.345   9.760  10.712 -0.2328 -0.3862 -0.3095
14552W        W15416  26.302  11.249  19.149  0.3775  0.1771 -0.1665
14553W        W15417  20.697  22.376  27.845 -0.2295  0.0706 -0.0769
14554W        W15418  19.721   3.101   3.373  0.1355  0.0797 -0.3074
14555W        W15419  28.209  14.955  22.407 -0.1518 -0.0373 -0.2964
14556W        W15420  17.857  18.227   3.842 -0.1344 -0.3065 -0.2801
14557W        W15421  28.234   4.330  13.490 -0.2316  0.0487 -0.1973
14558W        W15422  17.427  11.734  27.399  0.0997  0.1844  0.1254
14559W        W15423  16.434  21.920  13.905  0.0544 -0.1199 -0.2917
14560W        W15424  18.849  14.774   2.071 -0.0791  0.1620  0.3117
14561W        W15425  20.531   9.022  25.857 -0.0779  0.3638 -0.0049
14562W        W15426  15.309  23.716   1.212  0.0359  0.0998 -0.1028
14563W        W15427  10.554  14.811   3.743  0.2762 -0.1961 -0.2568
14564W        W15428   8.099   0.860  24.917 -0.3050  0.0390 -0.1028
14565W        W15429  11.247  18.338  22.345  0.1081  0.3517  0.0618
14566W        W15430  15.669  17.025  19.723  0.0305  0.0256  0.1302
14567W        W15431  24.545  18.203   4.718  0.0811 -0.1032  0.1747
14568W        W15432  14.497   0.528  28.843  0.0313 -0.0002  0.1022
14569W        W15433  13.491  27.863  16.574  0.3187  0.2255  0.0393
14570W        W15434  29.140   6.709  21.259 -0.0761 -0.3264 -0.1522
14571W        W15435  17.379  22.696  22.077  0.0032 -0.1885 -0.4417
14572W        W15436  15.569  21.806  23.451 -0.0774 -0.1346  0.0551
14573W        W15437  24.539  22.542  28.523  0.2113 -0.2398 -0.2401
14574W        W15438  12.519   5.605   1.110  0.0129 -0.0955  0.2828
14575W        W15439  12.789  21.599   0.235 -0.3891  0.3699 -0.0027
14576W        W15440   2.605  19.651   2.497  0.2096 -0.1262  0.0103
14577W        W15441  18.385  10.813  20.156 -0.1815 -0.0662 -0.3107
14578W        W15442  15.267  25.284  21.924  0.0076 -0.0737 -0.1396
14579W        W15443  19.326  19.755  19.093  0.1154 -0.4197  0.1449
14580W        W15444   4.494   4.563   0.795 -0.2104  0.2212 -0.1177
14581W        W15445  21.866  16.979  11.685 -0.3403  0.1377 -0.1934
14582W        W15446   6.086   7.310  24.365 -0.0147 -0.2497 -0.2615
14583W        W15447   9.959   6.416  21.547 -0.2143 -0.2654  0.3838
14584W        W15448   7.758  12.610   7.782 -0.3426  0.3265  0.2281
14585W        W15449  15.364  24.309   0.785 -0.3565 -0.0870  0.2973
14586W        W15450  24.255  23.428   9.542 -0.1857  0.0435 -0.1533
14587W        W15451  18.790  23.605  26.378  0.0581  0.1935  0.0469
14588W        W15452  26.950  23.168   5.726 -0.0746 -0.2770 -0.0370
14589W        W15453  11.510  28.884  26.912  0.0505  0.2524  0.0596
14590W        W15454  14.865  27.167  20.040 -0.1094  0.1630 -0.2232
14591W        W15455  27.019  17.250  11.141  0.1014  0.1467 -0.2309
14592W        W15456  10.079  17.648  15.083  0.1071 -0.0862  0.1328
14593W        W15457  19.149  11.198  18.937 -0.0793 -0.1956 -0.3294
14594W        W15458  20.360  10.897   0.398  0.1099 -0.0940 -0.0396
14595W        W15459  21.401   7.376   3.556  0.0433 -0.1416 -0.2351
14596W        W15460  18.168  18.529  21.592  0.0822 -0.4789 -0.3458
14597W        W15461  10.993  18.235  25.007 -0.0551  0.0407 -0.0165
14598W        W15462  27.129   2.390  21.605 -0.1117  0.2091 -0.0102
14599W        W15463   9.404  16.477  26.793  0.0934  0.2896 -0.0172
14600W        W15464   1.004   2.336  21.996 -0.0317  0.0364 -0.2381
14601W        W15465   6.780   4.311   1.447 -0.0933 -0.4414  0.1268
14602W        W15466   7.225  11.513  13.757 -0.0631  0.1147  0.0097
14603W        W15467   9.209  26.751  19.320  0.1162  0.0132 -0.1828
14604W        W15468  25.934  13.532  17.123 -0.1681 -0.0394 -0.1132
14605W        W15469  11.593  22.260   8.686  0.0132 -0.1420 -0.2254
14606W        W15470  21.558  16.242  23.704  0.1768  0.1061  0.1651
14607W        W15471  26.877  25.620  24.333 -0.0645  0.2707 -0.4694
14608W        W15472   7.354  10.818  23.121 -0.0673 -0.1444  0.0814
14609W        W15473   0.007  26.650  21.780 -0.1835 -0.0293 -0.2313
14610W        W15474  14.217   0.144  21.583 -0.0339  0.0790  0.2179
14611W        W15475   0.791  11.279   2.631 -0.3505 -0.1909  0.1873
14612W        W15476  11.775  20.895  21.301 -0.0632  0.1447  0.0589
14613W        W15477   1.293  14.537   8.211 -0.0302 -0.0394 -0.1609
14614W        W15478   5.079  18.775   2.128 -0.0707 -0.1832 -0.0925
14615W        W15479   8.190  16.002   8.232  0.2140 -0.2141  0.0175
14616W        W15480  26.409   4.595  16.791  0.0477  0.0900  0.0592
14617W        W15481  22.348  16.380  29.060 -0.3074  0.0337  0.1348
14618W        W15482  10.344   1.132  20.223  0.1635  0.0065 -0.3137
14619W        W15483  18.269  17.707  26.680 -0.0296  0.2397  0.6249
14620W        W15484  20.529   0.302   0.631  0.0233 -0.1701  0.2399
14621W        W15485  11.159  17.566  14.921  0.1343  0.2373  0.0808
14622W        W15486  21.263  20.823  26.622 -0.1636 -0.0732  0.1003
14623W        W15487  10.601  13.419  18.726  0.1215  0.0332 -0.0070
14624W        W15488   8.845   1.069  17.586  0.1070 -0.0334 -0.2974
14625W        W15489   3.308   5.155  18.621 -0.1487 -0.1901  0.0346
14626W        W15490   0.255   8.002  21.571 -0.0408 -0.0266  0.0684
14627W        W15491  26.001  28.399  22.655 -0.1743  0.1347 -0.1187
14628W        W15492  26.442  26.176  20.154 -0.1316 -0.0656  0.0554
14629W        W15493  27.024  13.262  25.713 -0.1386  0.3022  0.0336
14630W        W15494   7.294  15.011  25.133 -0.2851 -0.0287 -0.0174
14631W        W15495   2.884  11.746  14.831 -0.3070  0.0759  0.1396
14632W        W15496   5.784   4.144  12.037 -0.3188  0.1528 -0.0239
14633W        W15497  21.526   7.931  23.026 -0.0318 -0.1503  0.0028
14634W        W15498   9.145  15.594   3.810  0.0031  0.1041  0.0245
14635W        W15499  14.348  21.259  25.960 -0.3113 -0.0491  0.2935
14636W        W15500   2.659  12.188   8.888 -0.0715  0.0707 -0.3151
14637W        W15501  10.428   4.261  21.947 -0.2852 -0.1085  0.1727
14638W        W15502  21.100  13.451  19.943  0.4274  0.1507 -0.1155
14639W        W15503  21.338   4.388  18.648 -0.0500 -0.1544 -0.0889
14640W        W15504   3.430   8.738  10.871  0.0661 -0.4233 -0.1217
14641W        W15505  14.071  18.536  21.660 -0.2817  0.1067 -0.0343
14642W        W15506  26.006  23.424  12.550  0.2237  0.1513 -0.1274
14643W        W15507  13.718  20.058  28.716  0.2400  0.1713  0.1634
14644W        W15508  11.836  28.185  15.820 -0.3049 -0.3068 -0.2221
14645W        W15509  25.439  10.162  14.503  0.0588  0.1123  0.0176
14646W        W15510   4.576   7.817  19.676 -0.0553  0.1401  0.0384
14647W        W15511  17.754  22.998  19.086  0.0243 -0.0156 -0.1441
14648W        W15512  21.210  18.083  23.066 -0.0970 -0.0283 -0.3187
14649W        W15513  12.107  16.689  23.863 -0.3022 -0.4205  0.0896
14650W        W15514  24.122   3.645  15.341  0.1533  0.2418 -0.0225
14651W        W15515  14.231  18.961  21.301 -0.2802 -0.0680  0.1463
14652W        W15516  24.791  11.024  22.931  0.4297  0.4456  0.3917
14653W        W15517  21.388  13.229  15.543  0.2381  0.3451  0.4022
14654W        W15518  24.133  11.425   7.058 -0.1210 -0.0084 -0.2942
14655W        W15519   7.388  24.924  10.656 -0.0679 -0.0355 -0.0334
14656W        W15520  23.765  19.647   4.179 -0.1828 -0.0277 -0.0787
14657W        W15521   4.481  15.355  24.660  0.2604  0.2276 -0.0427
14658W        W15522  13.936   8.059  28.247  0.1247  0.2175  0.0226
14659W        W15523  10.745  13.915  24.728 -0.4465 -0.3045 -0.1230
14660W        W15524  25.971   4.131  16.177  0.0504 -0.2816 -0.3961
14661W        W15525   7.210  11.124  20.126  0.0120  0.3662  0.0712
14662W        W15526  13.821   3.253  14.200  0.0230 -0.1777 -0.3182
14663W        W15527   1.113   0.299  20.338 -0.1262  0.0519 -0.1820
14664W        W15528  25.079  15.234  28.416 -0.0031 -0.1722  0.3446
14665W        W15529  13.281  16.851  26.132  0.1155  0.3139  0.2660
14666W        W15530  13.146  15.548  22.153 -0.2512 -0.0012 -0.0039
14667W        W15531  28.071   3.239   0.696  0.0090  0.2265 -0.1226
14668W        W15532  28.372  10.979   0.897 -0.1009 -0.2147  0.1363
14669W        W15533   3.695  29.140  25.992 -0.1635 -0.2161 -0.0385
14670W        W15534  25.500   7.135  26.876  0.2463  0.1152 -0.1282
14671W        W15535  14.649  16.550   5.559 -0.4761  0.0193  0.1184
14672W        W15536  12.554  16.526  18.249 -0.2465  0.0262  0.1132
14673W        W15537   9.238   9.833  17.394  0.1877 -0.3237 -0.0176
14674W        W15538  12.054   2.210   8.327  0.4974  0.1641  0.1600
14675W        W15539  19.204   5.513   0.688  0.0718 -0.2355 -0.1181
14676W        W15540  17.744   2.991   1.218  0.0453  0.1303  0.0287
14677W        W15541  26.418  15.995   8.634  0.3063  0.1566  0.1985
14678W        W15542  18.347  16.215  22.606  0.0081 -0.1437  0.0608
14679W        W15543  13.073  16.156   0.849  0.0352 -0.1328 -0.0216
14680W        W15544  14.175   2.717   6.446 -0.1088 -0.1045 -0.0334
14681W        W15545  25.808  26.047   8.049  0.0488  0.0917  0.0985
14682W        W15546  27.709  21.941   2.831 -0.2389 -0.2501  0.2336
14683W        W15547  17.992  24.486  15.750 -0.3291  0.1274 -0.0724
14684W        W15548  20.480  19.093  13.753  0.0228 -0.0930 -0.2381
14685W        W15549  15.820  25.927  20.075  0.0398 -0.0385  0.1106
14686W        W15550   5.281   6.103   3.152  0.0938  0.2950 -0.1095
14687W        W15551  16.354  17.408   3.959 -0.1269 -0.2043  0.3324
14688W        W15552  27.333   7.488  14.637 -0.2664 -0.0751 -0.2039
14689W        W15553  20.388  27.439   1.262 -0.0262 -0.2887 -0.0521
14690W        W15554  25.196  17.016  18.419 -0.0178  0.2335 -0.0908
14691W        W15555  22.952  28.949  21.755  0.1964 -0.0221  0.0477
14692W        W15556  18.599  22.605   4.233  0.4241 -0.1154 -0.2467
14693W        W15557  10.397  12.879  28.113 -0.4631 -0.1738  0.2023
14694W        W15558  25.112  15.058  11.058  0.3047 -0.2145 -0.0437
14695W        W15559   7.970   9.173  13.151  0.0929 -0.1906  0.1641
14696W        W15560   0.106  28.990  29.073 -0.0499  0.1516 -0.0644
14697W        W15561   2.427  11.387   6.030  0.1598  0.0883 -0.1908
14698W        W15562  16.073  19.765  18.318  0.1819  0.2381 -0.0025
14699W        W15563  18.991  18.864  27.881 -0.1136 -0.0502 -0.2873
14700W        W15564  17.121  24.869  22.116 -0.1621 -0.1339  0.1333
14701W        W15565   1.535  14.467  23.410 -0.1167 -0.0222  0.1453
14702W        W15566  22.763  27.662  28.073  0.1401 -0.0496  0.1043
14703W        W15567  17.986  22.856  26.066  0.1372 -0.3773  0.0499
14704W        W15568  21.520   8.279   1.386  0.2162 -0.0708 -0.0439
14705W        W15569  28.358   3.314  12.540 -0.0193  0.1457  0.0687
14706W        W15570   0.119   7.557  11.953  0.3057  0.0831 -0.0280
14707W        W15571  15.952   6.113   0.789  0.0374  0.0251  0.1134
14708W        W15572   9.722   4.599   4.697 -0.0335 -0.3462  0.2138
14709W        W15573  17.962  19.938  19.474  0.0500 -0.2785  0.1204
14710W        W15574  19.245  10.253  22.690 -0.2496  0.3229  0.1302
14711W        W15575   5.762   3.033  12.036  0.1857 -0.1136  0.1747
14712W        W15576  28.649  15.008  12.460 -0.0677  0.1796 -0.4308
14713W        W15577  27.019   9.193  18.205  0.1415 -0.1911 -0.3304
14714W        W15578  28.440  10.332  25.768 -0.1410 -0.0715 -0.0080
14715W        W15579   0.161   8.702   0.785 -0.0578  0.1187  0.0358
14716W        W15580   5.967  15.709  16.855  0.3019 -0.2137 -0.1373
14717W        W15581  14.857   2.518   8.704  0.0027  0.0007 -0.0490
14718W        W15582  20.711  18.167   9.161 -0.0073  0.1455  0.1125
14719W        W15583   8.842  23.946   9.267 -0.0232 -0.0142 -0.0063
14720W        W15584  28.660   3.297   2.149 -0.0142  0.0095 -0.2775
14721W        W15585  24.877  20.860  14.041  0.0503 -0.0887 -0.0777
14722W        W15586   2.386  11.439   0.881 -0.0184 -0.2635 -0.0089
14723W        W15587   6.056  24.038  19.912 -0.0304  0.2438  0.2311
14724W        W15588  20.456  23.724  19.415  0.0438  0.2277  0.2802
14725W        W15589  25.019  17.780  21.991  0.0619 -0.1400  0.0866
14726W        W15590  20.586  21.222  26.293 -0.2818  0.1573 -0.2751
14727W        W15591   4.928  16.539  11.136  0.0413  0.0445 -0.1793
14728W        W15592  24.599  23.856  25.148  0.0641 -0.0683 -0.1921
14729W        W15593  13.742   8.052   4.174 -0.0958 -0.1937 -0.1120
14730W        W15594  13.024  17.418  23.236  0.0675  0.2706  0.0513
14731W        W15595  26.596  23.015  27.706  0.1767  0.1036  0.1914
14732W        W15596  14.342  26.422  25.070  0.1892 -0.0679  0.4829
14733W        W15597  27.405  28.547   5.037  0.2811 -0.0293 -0.1510
14734W        W15598  14.812   9.556  26.782  0.1857 -0.1501  0.1273
14735W        W15599  17.897  28.734   5.542  0.0189 -0.1303 -0.0315
14736W        W15600  10.987   6.825  14.131 -0.1892 -0.0532 -0.0803
14737W        W15601  15.616   9.825  23.334 -0.0808  0.2126  0.1319
14738W        W15602  26.901   5.710  27.951 -0.1864 -0.1203  0.1445
14739W        W15603  27.945  14.963   0.320  0.0675 -0.0524 -0.3879
14740W        W15604  24.761  11.236   0.473 -0.0405  0.2123  0.1258
14741W        W15605  16.064   0.319  25.887 -0.0159 -0.1016 -0.0893
14742W        W15606  18.651  19.457   4.194  0.1672  0.1074 -0.0538
14743W        W15607  21.950  11.845   3.712 -0.1185  0.0195 -0.1889
14744W        W15608  24.055   1.387  25.781 -0.0144  0.0970 -0.0740
14745W        W15609  18.635   7.712  24.134 -0.2681  0.2338 -0.0004
14746W        W15610   7.243   8.475   0.315  0.1213 -0.2701  0.0428
14747W        W15611  17.344   8.097  27.297  0.2770  0.3895 -0.2952
14748W        W15612  28.087   2.588  22.992 -0.0249 -0.0303 -0.1899
14749W        W15613   5.431  20.445  25.230  0.0710 -0.0069 -0.0158
14750W        W15614  16.066  26.277  18.875 -0.1446 -0.0159 -0.2195
14751W        W15615  25.183  15.623  16.657  0.1793  0.0446 -0.0233
14752W        W15616  24.138   7.747  13.261 -0.1311 -0.0183  0.1288
14753W        W15617  10.448   7.786  17.669 -0.1219  0.2681 -0.2326
14754W        W15618  10.418  11.527   1.831 -0.2487 -0.1251 -0.0822
14755W        W15619  22.552  13.455  18.053  0.2155 -0.5628 -0.2130
14756W        W15620  14.766   0.570  26.443 -0.0202  0.0601 -0.1619
14757W        W15621  25.526  15.526   0.444 -0.2366  0.1172  0.0798
14758W        W15622   4.015  18.320   5.669  0.0258  0.0340 -0.0095
14759W        W15623   0.289  13.880   0.622 -0.0736 -0.1956 -0.0779
14760W        W15624   4.089  27.515   7.655  0.1198  0.1220  0.0457
14761W        W15625  28.633  11.524   2.448 -0.3748 -0.0268  0.0012
14762W        W15626  21.359  17.210  15.397 -0.0509 -0.0339 -0.1160
14763W        W15627   7.013  20.650   4.463  0.1941 -0.1350  0.0816
14764W        W15628  28.825  22.503  26.477  0.3998  0.3373  0.1150
14765W        W15629   3.235  27.366   1.201  0.3123  0.0482 -0.3067
14766W        W15630  28.529  23.488  13.733  0.1295 -0.0309  0.2379
14767W        W15631  10.865  26.772  23.010  0.0699 -0.1651  0.0684
14768W        W15632   6.542  20.146  20.964  0.2761  0.1074  0.0486
14769W        W15633  14.334  12.621  12.102  0.0702 -0.1034  0.2109
14770W        W15634  16.106  15.293  18.131 -0.1896  0.3257 -0.1814
14771W        W15635  18.096   7.260  29.028  0.2595 -0.2279 -0.2262
14772W        W15636  18.148   6.844  11.088  0.1687  0.2266 -0.1053
14773W        W15637   2.621   5.425  21.112 -0.2816  0.0980 -0.0168
14774W        W15638  15.283  18.409  24.180  0.2687 -0.3308  0.3910
14775W        W15639  27.336   6.247  10.970 -0.1005 -0.1082 -0.0603
14776W        W15640  10.249  16.673  20.955 -0.1617  0.1225  0.0454
14777W        W15641  21.555  10.270   0.330 -0.2763  0.3461  0.0694
14778W        W15642  16.225  15.944  18.074  0.0899  0.2734 -0.1190
14779W        W15643   7.994   7.095   2.689  0.0110  0.1546  0.1876
14780W        W15644  19.876  18.611  23.211 -0.0488  0.1109 -0.0852
14781W        W15645  19.592  10.528  15.289  0.1363  0.3805 -0.3320
14782W        W15646  24.326  12.745  16.799 -0.0384 -0.0898  0.1192
14783W        W15647  21.956   9.647   2.680 -0.3503  0.1671  0.0830
14784W        W15648  16.948  13.575  25.080 -0.1243 -0.1190  0.1856
14785W        W15649  14.202  23.663  18.856 -0.2177 -0.1723 -0.0494
14786W        W15650   8.406   6.570  12.504 -0.0194  0.0748  0.3061
14787W        W15651   1.100  12.652   7.565  0.1460 -0.1612 -0.1697
14788W        W15652   2.449  26.811   3.812 -0.3501 -0.2901  0.2254
14789W        W15653   4.888   3.060  26.912  0.0881  0.0168  0.2052
14790W        W15654  14.052  10.992   0.371  0.0093  0.0635 -0.1142
14791W        W15655   1.119  16.496   4.812  0.0498  0.0773 -0.2749
14792W        W15656  15.831  17.573  21.679 -0.1928 -0.2637  0.2231
14793W        W15657   5.244  22.309   0.275  0.2457  0.2456  0.1923
14794W        W15658   9.389  13.858  25.169 -0.1035 -0.0885  0.2013
14795W        W15659  16.587  15.985  26.503 -0.2354 -0.0415  0.0415
14796W        W15660  16.357  18.964  16.454  0.2148 -0.0624 -0.2321
14797W        W15661  11.817   8.058  20.238 -0.4046  0.1542  0.1064
14798W        W15662   3.746  12.669  20.722 -0.1237  0.1590  0.0800
14799W        W15663   9.629  17.646  21.835 -0.0099  0.3284 -0.2422
14800W        W15664  15.905   8.782  14.377  0.1542  0.0718 -0.1010
14801W        W15665   6.500   9.490  24.246  0.4256 -0.1316 -0.2665
14802W        W15666  20.180  16.617   9.684  0.0809  0.1977 -0.0053
14803W        W15667  24.373  18.141   7.849 -0.1903  0.1092 -0.0411
14804W        W15668   0.381  26.265  21.117 -0.0471 -0.0515  0.1648
14805W        W15669  25.808   5.427   2.663  0.1654 -0.4097  0.0745
14806W        W15670  17.804   2.879  24.828 -0.2032  0.0494 -0.0765
14807W        W15671  19.304  27.175  25.370  0.3006 -0.0419  0.0608
14808W        W15672   0.052  23.959  20.453 -0.0361  0.2170 -0.0361
14809W        W15673  18.071   2.560  21.264 -0.1956  0.0725  0.0643
14810W        W15674  13.255  18.192  20.703 -0.2148 -0.1086  0.0962
14811W        W15675   2.929   8.732  18.451  0.0802 -0.1586 -0.3656
14812W        W15676   2.524  16.565   4.492  0.0286  0.4772  0.0647
14813W        W15677  10.837  20.554  16.386  0.0407  0.1624  0.2486
14814W        W15678   1.713   7.955  21.903  0.1491 -0.0368  0.2546
14815W        W15679  21.355  16.735   2.482 -0.0214  0.1005 -0.1508
14816W        W15680   5.795  11.450  19.556 -0.1936  0.0257  0.0179
14817W        W15681  28.086  22.382  15.752 -0.1736 -0.0411 -0.1302
14818W        W15682  15.928  15.020   0.140  0.1845 -0.0095 -0.2407
14819W        W15683  19.270  26.917  13.676  0.0711 -0.2244  0.0700
14820W        W15684  20.645  24.872   5.494 -0.0074  0.0642 -0.0911
14821W        W15685  14.304  20.200  17.356  0.2641 -0.0596  0.0371
14822W        W15686  16.337  13.454  17.257  0.0945  0.5399 -0.0003
14823W        W15687  22.153   8.919  10.857  0.0905  0.1536 -0.0416
14824W        W15688  19.235  12.160  17.419 -0.2845  0.1705  0.2281
14825W        W15689  14.830  15.880  12.765  0.1144  0.0612  0.3151
14826W        W15690   8.581   8.981  18.918 -0.0675  0.0259  0.3512
14827W        W15691  18.164  15.781  22.435 -0.2302  0.1313 -0.3391
14828W        W15692  14.058  10.988  18.779 -0.0237 -0.2011 -0.1330
14829W        W15693   1.850  24.032   1.887  0.1537 -0.2071  0.0589
14830W        W15694  17.741  15.291   4.377 -0.1946 -0.1830  0.0047
14831W        W15695   1.438   8.930   2.621 -0.2886  0.0264 -0.1384
14832W        W15696  20.569   6.781   3.787  0.0272 -0.1310 -0.0257
14833W        W15697  10.202  24.422  18.088  0.0085 -0.3103  0.0541
14834W        W15698  18.523   7.572  29.081 -0.0539 -0.1329  0.0549
14835W        W15699  20.718   6.192   3.937 -0.4867 -0.1655 -0.0239
14836W        W15700   5.423  24.365  27.817 -0.0932  0.0332  0.1352
14837W        W15701  17.693  17.808  24.043 -0.3814 -0.1192  0.0799
14838W        W15702   6.263  24.643  19.434 -0.1194  0.1214  0.5209
14839W        W15703   1.435  16.012   3.942 -0.1236  0.0507  0.0012
14840W        W15704  18.536  14.525   0.784  0.0360 -0.1619 -0.1618
14841W        W15705  16.403  24.734  23.223  0.1768  0.1983  0.0281
14842W        W15706  10.908  17.395   6.817  0.0006 -0.0876 -0.1030
14843W        W15707  20.826  14.643   9.250  0.1840 -0.2328 -0.0610
14844W        W15708  14.974   3.737   5.693 -0.1421  0.0160  0.3398
14845W        W15709  19.501   8.550   0.849  0.0167  0.0260 -0.2047
14846W        W15710  11.031  10.124  20.768  0.3110 -0.4017 -0.1017
14847W        W15711  24.771   7.606  16.083 -0.0205 -0.0488 -0.0145
14848W        W15712  16.048  14.961   2.684  0.0668 -0.4893  0.0168
14849W        W15713  18.496   8.029  16.681 -0.4029  0.1672  0.1977
14850W        W15714  10.810   0.874  23.389  0.2057  0.1758  0.0064
14851W        W15715  21.654   7.698  17.819 -0.0330 -0.0501 -0.3368
14852W        W15716   7.608  27.311  25.029  0.3656  0.2120  0.1673
14853W        W15717  24.759  14.976  13.129 -0.0405  0.4065  0.3605
14854W        W15718   6.724   7.224  25.109  0.0290  0.1462 -0.0812
14855W        W15719  19.754  21.290  21.500  0.0794  0.2624  0.0220
14856W        W15720  11.206  17.903  20.481  0.1970  0.1618  0.1689
14857W        W15721  17.401   8.380  23.371 -0.0016  0.0211  0.1152
14858W        W15722  17.288   5.181  14.259  0.3993 -0.1102 -0.0266
14859W        W15723   9.717  23.483  27.056 -0.1353  0.0701  0.3242
14860W        W15724  22.171  13.985  26.263  0.2099 -0.1070  0.0269
14861W        W15725  20.971  23.985  24.815 -0.1457  0.2304 -0.1264
14862W        W15726   7.566  12.233  23.589 -0.0213  0.2311 -0.1788
14863W        W15727   0.464   6.532   2.787 -0.0054  0.0291 -0.3004
14864W        W15728  27.402  10.798  28.006  0.2162 -0.1971  0.0744
14865W        W15729   5.976   1.932  10.452  0.1637 -0.2440 -0.1401
14866W        W15730  11.601   8.932   9.628 -0.3320  0.1391  0.1422
14867W        W15731  26.101   1.559   6.169  0.0726  0.0085  0.2236
14868W        W15732   8.124   1.296  17.305 -0.1755 -0.2362 -0.0195
14869W        W15733  28.009   9.772   2.095  0.2898 -0.1985  0.0904
14870W        W15734   9.071  13.339  28.619 -0.1689 -0.0590  0.0388
14871W        W15735  24.654  12.270   7.495  0.1254  0.3121 -0.1492
14872W        W15736  21.917  23.404  15.386  0.1194 -0.1171  0.1881
14873W        W15737  17.192  25.630  26.512  0.0574  0.1078  0.0656
14874W        W15738  12.986  13.614   6.327  0.0829  0.1576 -0.2701
14875W        W15739  12.097   1.027  12.661  0.0566 -0.2168  0.1804
14876W        W15740  12.328  16.926   2.403 -0.1026  0.2360 -0.2384
14877W        W15741  28.201  17.370  12.569  0.1607 -0.0413 -0.1791
14878W        W15742  23.037  26.876  10.027 -0.1387 -0.0830  0.2312
14879W        W15743  13.417  14.045   0.028  0.0338  0.2019  0.3546
14880W        W15744  13.011  20.204  14.451  0.0465 -0.1516 -0.0855
14881W        W15745   6.697  12.387  26.636  0.0235  0.0513 -0.0674
14882W        W15746  18.931  15.332   3.245  0.0328 -0.1686 -0.0662
14883W        W15747  15.030   4.442  21.360 -0.0066  0.2593 -0.0599
14884W        W15748   1.045  21.419  21.147 -0.0855  0.1775  0.0647
14885W        W15749  10.331  27.292   1.416  0.0925  0.1833  0.1128
14886W        W15750  10.944   0.309  22.701  0.3173 -0.1100 -0.0046
14887W        W15751  18.389  25.525  27.851 -0.0167  0.0615  0.2428
14888W        W15752  24.209   6.287  20.517  0.0779 -0.0599  0.0312
14889W        W15753   2.584  24.938  25.047  0.2126  0.0796  0.5100
14890W        W15754   1.581  28.565   3.863 -0.0339  0.0533  0.0874
14891W        W15755  18.121  15.610  28.972  0.0188 -0.0272 -0.0753
14892W        W15756  19.344  15.946  18.244 -0.2191  0.4114  0.1812
14893W        W15757  16.124   7.309   6.391  0.2185 -0.2830  0.1547
14894W        W15758   3.629  28.897  12.744 -0.0178 -0.0433  0.6229
14895W        W15759  26.814  15.117   4.164 -0.1387 -0.2043 -0.1977
14896W        W15760   1.376  20.555   2.869 -0.0172 -0.0095  0.1710
14897W        W15761  21.301   1.029   2.174  0.3442 -0.0387  0.3909
14898W        W15762  22.453  25.795   9.288 -0.0657 -0.6483  0.0022
14899W        W15763  13.840  10.119  16.809 -0.0159  0.0088  0.2650
14900W        W15764  23.198  15.435  21.354 -0.0591  0.0168  0.0352
14901W        W15765  19.994  26.927   9.828 -0.2478  0.0126  0.0535
14902W        W15766  12.337  20.991  15.099  0.1680 -0.4195 -0.0895
14903W        W15767  21.616   5.688   1.385 -0.1496 -0.2110  0.0268
14904W        W15768  28.479  14.920   0.232  0.0802 -0.1328  0.0829
14905W        W15769   7.044  10.031   5.419 -0.3202 -0.0549  0.2090
14906W        W15770  16.510   3.762   3.517 -0.4281  0.2324  0.1079
14907W        W15771  21.270  10.003   5.181 -0.4090 -0.3608  0.0183
14908W        W15772  14.759   3.904  21.584  0.0467  0.1139 -0.0957
14909W        W15773  28.064  13.939  14.843  0.2459 -0.1496 -0.2496
14910W        W15774  14.759  15.834  19.730  0.0933 -0.3040 -0.0465
14911W        W15775  13.885  20.797  27.448  0.0471 -0.4171 -0.2390
14912W        W15776   6.013  21.938  16.027  0.0390  0.3661  0.1015
14913W        W15777  17.180  15.550  24.006  0.1686  0.1182 -0.0845
14914W        W15778  17.010  23.130  24.690 -0.0735 -0.1127 -0.0850
14915W        W15779  17.032  15.309   2.385 -0.1451  0.0367 -0.0123
14916W        W15780  18.367  22.779  15.980  0.0377 -0.3323  0.1189
14917W        W15781   7.953  13.877  12.770  0.1085  0.0541  0.0477
14918W        W15782  19.337   7.127  25.499 -0.0864 -0.1364  0.0825
14919W        W15783  17.959  21.979   4.900  0.0110 -0.1142 -0.1302
14920W        W15784  25.673   7.847   4.154 -0.0869 -0.0135  0.0150
14921W        W15785   0.664  11.819  18.425 -0.5142 -0.0241  0.0309
14922W        W15786   5.854  27.303   0.561  0.2436  0.7011 -0.0036
14923W        W15787  24.006  12.227  15.399 -0.0339 -0.3040 -0.0677
14924W        W15788  11.749  10.279   5.902  0.2919  0.0764 -0.0807
14925W        W15789   3.430   1.945  19.370  0.0573  0.0779 -0.3336
14926W        W15790   2.791  24.337  23.400 -0.3804  0.0204 -0.1685
14927W        W15791   5.938  15.379  26.366 -0.0626 -0.2757  0.1043
14928W        W15792  22.795  27.395  24.732 -0.3923 -0.0078 -0.4804
14929W        W15793  16.836  24.867  15.745  0.3840 -0.0062 -0.1835
14930W        W15794   2.440   9.097  24.745  0.0166  0.0877  0.2478
14931W        W15795  26.573   9.737   2.102 -0.1294  0.1200  0.0457
14932W        W15796   2.143  27.034   9.989 -0.0747 -0.0710 -0.0636
14933W        W15797   2.304   8.517   2.838  0.1136 -0.0621 -0.3049
14934W        W15798  13.900   2.733  12.878 -0.0376 -0.2139 -0.0478
14935W        W15799  17.184  18.844  16.954 -0.0023  0.0452  0.3833
14936W        W15800  24.905   7.857  21.185 -0.2578 -0.1026 -0.1107
14937W        W15801   9.022   9.956  13.859 -0.2368 -0.3489  0.0114
14938W        W15802   3.722   2.025  28.267  0.1627  0.2022  0.1648
14939W        W15803  10.659  27.533   8.696  0.1590  0.4031  0.2477
14940W        W15804  17.055  21.827  17.682  0.0896  0.3054 -0.1156
14941W        W15805  19.787   9.634   5.437  0.0702 -0.0433  0.2429
14942W        W15806   6.156   1.582  19.735  0.1292  0.0501 -0.0980
14943W        W15807  20.628  17.318  15.004  0.2763  0.0163  0.0381
14944W        W15808   3.065   7.906   3.661 -0.1385  0.1971 -0.1650
14945W        W15809  18.831  28.669  26.058  0.0301  0.1430  0.2052
14946W        W15810  21.192  18.520   2.512  0.0099 -0.0871 -0.0652
14947W        W15811   5.908  24.761  21.064 -0.1129 -0.3548  0.0558
14948W        W15812   9.277   0.355  24.883  0.0190 -0.0594 -0.2398
14949W        W15813  23.762  18.475  22.180  0.0867  0.1132  0.0591
14950W        W15814  21.898  13.314   1.511 -0.0392  0.0669  0.2777
14951W        W15815   3.291  21.222   0.381  0.1187  0.2617  0.0602
14952W        W15816  28.345   6.750  24.705  0.2334  0.0081 -0.0341
14953W        W15817   2.510   8.905   5.753 -0.2294  0.0783  0.3950
14954W        W15818  10.362  12.695  25.375 -0.0894 -0.0247  0.0726
14955W        W15819  12.788   1.369  24.535  0.2293  0.1439  0.2308
14956W        W15820  14.824  19.835   1.294  0.1603  0.3780  0.1955
14957W        W15821   0.063   7.814   5.047 -0.0187 -0.0342  0.0342
14958W        W15822  18.429  27.116  11.668 -0.1531 -0.3939 -0.2740
14959W        W15823   5.784   7.123   8.726 -0.0382  0.1132 -0.1445
14960W        W15824   0.547  23.595   9.510 -0.3350  0.1038  0.0575
14961W        W15825  16.656  11.837   2.178  0.3331  0.1660 -0.0314
14962W        W15826   9.620  12.645  28.259 -0.1760 -0.0545 -0.1230
14963W        W15827  20.879   1.004   6.716 -0.0316 -0.0902 -0.0570
14964W        W15828   7.710   0.095   9.302 -0.1338  0.0579  0.0976
14965W        W15829  26.593  23.510  28.599  0.2269  0.1432 -0.1601
14966W        W15830   4.225  28.181  12.030  0.1482  0.0766  0.2299
14967W        W15831  22.824  10.757  26.910  0.0449 -0.1148  0.3021
14968W        W15832   8.835  20.428  15.181  0.0211 -0.0661  0.1148
14969W        W15833  26.095  10.519  10.393  0.0066  0.0079 -0.1160
14970W        W15834   2.159  13.816  18.203  0.0865  0.1468  0.0872
14971W        W15835  29.036  18.975   4.402 -0.1160  0.2118  0.1674
14972W        W15836  14.463   0.759  25.960  0.4379  0.1815 -0.0842
14973W        W15837  21.684  12.329  15.718 -0.0641  0.1525  0.4719
14974W        W15838  23.455  24.869  17.567 -0.2431  0.2546  0.1205
14975W        W15839  19.993  25.775  28.026  0.1465  0.4820 -0.2990
14976W        W15840   2.082  19.428   9.853  0.1203 -0.1308 -0.0848
14977W        W15841  20.303   4.825   4.932  0.0360  0.1843  0.1143
14978W        W15842  21.098  25.537   3.261  0.4459 -0.2877 -0.0217
14979W        W15843  23.797  11.621  17.334  0.1503 -0.2177  0.2462
14980W        W15844  21.114   3.795  13.900 -0.0366  0.0961  0.0266
14981W        W15845   3.445  12.272   4.435 -0.0884  0.1286 -0.1089
14982W        W15846   1.598  14.547  26.443  0.0481 -0.1537  0.4748
14983W        W15847  25.582  22.182   1.301 -0.0167 -0.2802 -0.0071
14984W        W15848  25.548  22.932   0.803  0.0764 -0.1591  0.3049
14985W        W15849  25.824  25.266  20.671 -0.3350 -0.0050 -0.4546
14986W        W15850  22.533  12.429   4.532 -0.0354 -0.0108 -0.1639
14987W        W15851   4.496  10.462  19.980  0.0018  0.1230  0.0666
14988W        W15852   1.238  17.066  22.760  0.0262 -0.0622  0.0250
14989W        W15853  25.253   4.454   2.215  0.2418  0.0484 -0.1789
14990W        W15854   3.761   0.409   1.135 -0.2210 -0.2083 -0.0152
14991W        W15855  27.223  16.510  28.951 -0.1479  0.2408 -0.1731
14992W        W15856  18.724   8.041  25.372 -0.1132 -0.0568  0.0149
14993W        W15857  18.433  11.493  18.365  0.3665 -0.2196  0.0862
14994W        W15858  15.271  11.705  11.522 -0.0092  0.1637 -0.0109
14995W        W15859  25.211  16.280  26.963 -0.1773  0.0765  0.2435
14996W        W15860  16.338  14.461  19.928  0.1365 -0.1183 -0.2217
14997W        W15861  13.877   4.243   0.323  0.0217  0.1201 -0.2806
14998W        W15862   8.465   7.474  20.629 -0.0599 -0.1645  0.0994
14999W        W15863   6.516  25.328  21.527  0.0693 -0.1622  0.0948
15000W        W15864   8.853  15.473   0.154 -0.1770  0.0210 -0.3038
15001W        W15865   7.809  19.691   5.754 -0.2268  0.0669 -0.1093
15002W        W15866   4.494   5.974  25.838 -0.0351 -0.2584 -0.2870
15003W        W15867   8.018  11.237   0.158  0.0353 -0.3657 -0.1025
15004W        W15868  14.994  22.405   2.981  0.0092  0.0639  0.2017
15005W        W15869   4.016  22.117   7.431  0.1331  0.0369 -0.1530
15006W        W15870  22.990   0.006   3.883 -0.5680  0.3017  0.1919
15007W        W15871  17.259  12.666   0.305 -0.1662 -0.1653 -0.2568
15008W        W15872  29.125  17.196  18.462  0.0996  0.0423  0.0983
15009W        W15873   9.905   4.845  12.745  0.1490  0.3728  0.0077
15010W        W15874  20.165   3.004   7.180  0.2154 -0.0029  0.0413
15011W        W15875  22.239  28.584   9.268  0.0640  0.0041 -0.0088
15012W        W15876  15.926  16.482   9.534 -0.1166  0.3008 -0.0207
15013W        W15877   8.219  26.726   6.680 -0.2996 -0.0666  0.2983
15014W        W15878  19.296  19.690   1.345  0.2257 -0.0779 -0.0681
15015W        W15879  23.480  17.170  24.385  0.0652 -0.0430 -0.1292
15016W        W15880  23.385  26.305   7.394 -0.1384 -0.1045  0.1599
15017W        W15881  13.311  26.851   5.139  0.0546  0.0741 -0.0540
15018W        W15882   7.497  14.315  25.801  0.0378  0.0061 -0.1324
15019W        W15883  11.403  10.078  20.267  0.2207 -0.0403 -0.0940
15020W        W15884  10.163   5.626  28.683  0.0830 -0.2761 -0.1756
15021W        W15885  14.668   3.913  20.046  0.0035 -0.1261  0.2006
15022W        W15886  11.536  23.007   3.013 -0.0954  0.0351  0.3275
15023W        W15887  20.043   9.032   2.074  0.0514 -0.3483 -0.1688
15024W        W15888   6.009  19.691   3.914 -0.0834 -0.0119 -0.2272
15025W        W15889  13.380  22.235   9.827 -0.0905 -0.1796 -0.1868
15026W        W15890   5.282  14.933  13.300  0.0493  0.1819  0.0513
15027W        W15891  28.241   3.920  10.197 -0.0007 -0.1476  0.0765
15028W        W15892   4.654  12.903  25.908  0.1045 -0.1380 -0.1906
15029W        W15893   1.547   6.946   6.514  0.0908 -0.1742  0.0320
15030W        W15894  14.862  28.835  24.073  0.5070 -0.0492 -0.0059
15031W        W15895  12.306  27.082   8.277  0.1878 -0.2889 -0.0511
15032W        W15896  21.549  26.053   0.588  0.0884  0.0610  0.0105
15033W        W15897  11.098  11.525  25.628 -0.1165 -0.0946  0.0048
15034W        W15898   1.435  18.850  14.275 -0.0325 -0.0205  0.0517
15035W        W15899  18.323   9.003  25.407  0.0793 -0.0096  0.2826
15036W        W15900   6.816   2.977  26.824 -0.1485  0.3246  0.1807
15037W        W15901  22.942  26.591   3.588  0.0917 -0.1876 -0.1482
15038W        W15902  20.496  28.589   7.065  0.2900 -0.0316 -0.1945
15039W        W15903  14.121   8.146   1.922 -0.1697  0.3127 -0.2445
15040W        W15904  23.860  17.282   0.147 -0.2503  0.2459 -0.1318
15041W        W15905  10.795  15.451   4.642  0.0679 -0.2614  0.2228
15042W        W15906  17.004  14.137  27.588  0.0853 -0.0835  0.0272
15043W        W15907   2.031  25.561   1.825 -0.0359 -0.0160  0.0144
15044W        W15908  23.467  22.017  28.649  0.4313  0.1921 -0.0339
15045W        W15909   4.933  16.471   9.443 -0.2458 -0.0108 -0.2425
15046W        W15910  22.436   6.995   3.751  0.0412 -0.1776  0.2984
15047W        W15911  16.329  25.426   1.417 -0.2701 -0.0598  0.2133
15048W        W15912   9.105   4.144  17.587 -0.1340  0.0037 -0.0386
15049W        W15913   0.019   7.120  23.042 -0.1075  0.2781 -0.0645
15050W        W15914  21.693  12.293  13.875 -0.0573  0.1508 -0.1407
15051W        W15915  29.010  10.234  25.121  0.5148 -0.0072 -0.0809
15052W        W15916   8.535  22.684  13.367 -0.1481 -0.0002 -0.1236
15053W        W15917  14.188  13.450   3.553 -0.1810 -0.1512 -0.0168
15054W        W15918   4.888  21.366  28.617 -0.3538 -0.1812 -0.1210
15055W        W15919   8.855  20.465  21.598 -0.0778 -0.2035  0.0846
15056W        W15920  14.825   7.811  14.528  0.0561  0.1382  0.2344
15057W        W15921  23.316  21.456  22.432 -0.0822 -0.0443 -0.2242
15058W        W15922  10.087  27.017  17.095 -0.2495 -0.1067  0.1269
15059W        W15923  10.608  12.068  18.865  0.0527  0.1819  0.1838
15060W        W15924  16.558   9.980   4.878 -0.1607 -0.0331  0.3696
15061W        W15925  12.428   6.517  14.186  0.0310 -0.2895  0.3748
15062W        W15926  25.557  10.521  15.901 -0.0564 -0.0766  0.0318
15063W        W15927  24.770   4.619   0.205 -0.2064  0.3660  0.2370
15064W        W15928  26.121   3.185  21.133 -0.2191  0.0768  0.1506
15065W        W15929  13.521  21.090   7.527 -0.1395  0.0562 -0.2636
15066W        W15930   3.761  10.969  28.588  0.1504  0.1072 -0.1008
15067W        W15931  18.127   2.589  10.143 -0.1000  0.0206 -0.0710
15068W        W15932  13.291   7.442  27.721 -0.0644  0.2103  0.0685
15069W        W15933  10.041   8.632  11.503 -0.0156 -0.0497 -0.0477
15070W        W15934  27.708  27.877  25.167  0.0290 -0.2271  0.1992
15071W        W15935  18.083  11.171  25.613 -0.0074  0.1387  0.0235
15072W        W15936  19.094  20.667  27.591 -0.0642 -0.2933 -0.2120
15073W        W15937  17.571  10.224  19.774  0.2417  0.1010 -0.0308
15074W        W15938  17.638   1.983   3.516  0.0496  0.1410 -0.1854
15075W        W15939  17.011   0.351  10.946 -0.0655  0.1433  0.1409
15076W        W15940   0.537   8.329  24.668  0.0470  0.1294 -0.0875
15077W        W15941  12.044   4.707  20.542  0.2692 -0.1866 -0.0684
15078W        W15942  28.127  22.938  17.543  0.0850  0.3663 -0.2858
15079W        W15943  17.051  23.571  15.792  0.2577  0.0782 -0.3486
15080W        W15944  23.045  24.312   3.992  0.0441 -0.1660 -0.1258
15081W        W15945   9.280  11.118  19.769  0.2025  0.1173 -0.0225
15082W        W15946   6.418   0.106   0.247  0.2960  0.2553 -0.0622
15083W        W15947  10.989   1.233   1.746 -0.0456 -0.1432  0.3175
15084W        W15948  27.129  20.508   5.338 -0.1508 -0.1672  0.1894
15085W        W15949  20.529  25.464  26.580 -0.0967 -0.0003 -0.1653
15086W        W15950  17.636  12.387   2.410 -0.1114 -0.1928  0.1830
15087W        W15951  14.827   1.486   4.788  0.0623 -0.3089  0.0235
15088W        W15952  15.481   6.000   0.738 -0.0785 -0.0773 -0.0925
15089W        W15953  28.963   3.631  22.451 -0.1334 -0.2922 -0.1651
15090W        W15954   2.369  13.153  23.493  0.0265  0.0131 -0.0187
15091W        W15955  16.400  22.711   9.455 -0.3011 -0.1188 -0.0694
15092W        W15956  18.100   3.191  27.026  0.3026  0.3477 -0.0882
15093W        W15957  20.579  14.119  20.736  0.0931 -0.5064  0.1862
15094W        W15958  28.502   7.046  16.844  0.2327 -0.2361  0.3352
15095W        W15959  13.323  24.583   4.833  0.2353  0.0946 -0.3064
15096W        W15960   1.042  13.047  17.807  0.2156  0.0123  0.2756
15097W        W15961   9.767   7.238  16.358  0.1272  0.0599  0.0695
15098W        W15962  28.821  14.064   0.937  0.2591  0.0951  0.0160
15099W        W15963  27.718  16.624   1.580  0.0697  0.2692  0.1799
15100W        W15964  26.599  13.489  21.487  0.0900  0.1188  0.2485
15101W        W15965   8.957  22.646  22.390 -0.2562 -0.3267  0.1428
15102W        W15966  13.055  11.478   8.304 -0.2461  0.0117  0.1055
15103W        W15967  21.993   2.623   6.152 -0.1761 -0.1535 -0.1185
15104W        W15968  28.772  14.043   4.589 -0.0880  0.0098  0.2542
15105W        W15969  17.876  11.406   3.027 -0.0972  0.2591 -0.1102
15106W        W15970  15.856  19.749   0.968  0.3590 -0.1758 -0.0565
15107W        W15971  10.977  11.969  15.322  0.1415 -0.3443  0.4117
15108W        W15972  26.457  21.370  12.684  0.0719  0.2619  0.0120
15109W        W15973  15.780   8.066  24.137 -0.1986  0.0771 -0.0614
15110W        W15974  20.083   1.089  10.930  0.2939 -0.1076  0.2775
15111W        W15975  23.416   2.017  24.097 -0.2110  0.1821  0.1967
15112W        W15976  26.678  12.811  27.391 -0.0099  0.2782  0.1938
15113W        W15977   9.407   3.860  19.499  0.0491 -0.2165 -0.2680
15114W        W15978  21.025  10.675   5.572 -0.0898 -0.0795 -0.1676
15115W        W15979   7.037  20.748   7.326 -0.0537 -0.1479 -0.2528
15116W        W15980  19.236  14.010  26.419 -0.0796  0.0733 -0.0783
15117W        W15981  21.447  16.678  20.470 -0.1569 -0.1735 -0.0962
15118W        W15982   1.993  12.777  25.172 -0.1664  0.1042  0.1585
15119W        W15983   5.050   3.756  28.923 -0.3233 -0.0263  0.1264
15120W        W15984   9.207  16.914  19.394 -0.0234  0.1728  0.2134
15121W        W15985  11.779   6.585  24.575 -0.0170  0.1785 -0.3223
15122W        W15986   0.193  13.772  18.581 -0.0578 -0.0364 -0.0683
15123W        W15987   5.179  12.157  13.744 -0.0952  0.3787 -0.2203
15124W        W15988  28.281  22.405  23.910  0.1990  0.2675  0.3671
15125W        W15989  13.349  25.609  25.553 -0.0922  0.1146 -0.2130
15126W        W15990  10.012  16.412  19.250  0.0919 -0.1761 -0.1447
15127W        W15991  17.537  14.186  25.386  0.1796  0.0017  0.2959
15128W        W15992  16.774   1.548   2.251  0.0569 -0.0062 -0.0730
15129W        W15993   5.074  13.729   3.774 -0.1088  0.1607  0.0496
15130W        W15994  12.192   3.710  16.362  0.0910 -0.0741  0.2362
15131W        W15995  21.132  16.521  13.210  0.2283 -0.2901 -0.0810
15132W        W15996  20.503  16.788   4.730 -0.3251 -0.1811  0.0139
15133W        W15997  24.066  25.519  28.947  0.1162  0.0495  0.2238
15134W        W15998   7.894   9.801   2.538  0.1941 -0.3996 -0.0171
15135W        W15999  12.738  25.115  10.675 -0.1068 -0.2465  0.0342
15136W        W16000  20.842   3.619  24.239 -0.0259  0.2342  0.0766
15137W        W16001  23.282  24.392  25.879 -0.0001 -0.0376  0.1293
15138W        W16002  18.339   9.607  23.792 -0.4724  0.2519  0.0978
15139W        W16003  21.620   0.842  26.735  0.2508 -0.0887 -0.1630
15140W        W16004   6.914   5.144  28.592 -0.0369 -0.4274 -0.2855
15141W        W16005  21.841   0.474  19.716 -0.0516 -0.1024  0.0450
15142W        W16006   7.984   9.002  16.783  0.0630 -0.3733  0.0100
15143W        W16007  22.423   1.458   2.197 -0.0936 -0.1158 -0.0870
15144W        W16008  25.569  14.202  21.366 -0.2089 -0.3900 -0.0634
15145W        W16009   7.116   2.829  23.549  0.1527 -0.1357 -0.2066
15146W        W16010  20.354  24.661   2.845 -0.1126 -0.2009 -0.2372
15147W        W16011  16.217  11.260  10.476  0.1610  0.0171 -0.0191
15148W        W16012   6.671  18.217  16.826  0.2637  0.1126 -0.4188
15149W        W16013  19.357  19.577  28.830  0.2635 -0.1225  0.2507
15150W        W16014  16.221   5.146  24.733  0.0986 -0.1079  0.0385
15151W        W16015  23.607   7.140  22.790  0.2809  0.1331 -0.0633
15152W        W16016  21.521  14.780  27.823  0.0787  0.0559  0.3054
15153W        W16017  16.330  14.211   3.338 -0.0959  0.1571  0.1279
15154W        W16018  13.584  15.319  23.309  0.3123  0.0099  0.3335
15155W        W16019  15.187  22.651   7.387 -0.0567 -0.1547  0.3189
15156W        W16020  12.443  23.666  15.117 -0.0567  0.0966 -0.4605
15157W        W16021  15.358  20.155  23.980  0.0251  0.0950 -0.1141
15158W        W16022  13.096  10.196  27.374 -0.3760 -0.1745 -0.3155
15159W        W16023   3.501  28.014   2.336  0.0869  0.1486  0.0989
15160W        W16024  18.193  19.984  20.946  0.4757  0.2504 -0.0878
15161W        W16025  21.192  20.862  19.131 -0.1001 -0.0986  0.0272
15162W        W16026  28.179   5.999  24.970  0.2256 -0.3743  0.4318
15163W        W16027   3.636  19.578  28.211  0.0645 -0.1766  0.1576
15164W        W16028  21.126  22.922   8.359 -0.1827  0.1288 -0.0481
15165W        W16029   2.759   9.316  13.432  0.1823 -0.2340  0.1799
15166W        W16030   8.265  17.255  22.237 -0.0411 -0.0285 -0.1058
15167W        W16031  18.637  26.020   6.326  0.0742  0.0319 -0.0066
15168W        W16032  24.127   2.905  12.127 -0.0275 -0.2124  0.3671
15169W        W16033  20.606   9.028   2.305 -0.3238 -0.3031 -0.1516
15170W        W16034  23.869   9.251  28.101  0.1220 -0.0291  0.2407
15171W        W16035   4.123  15.371  17.210  0.3100 -0.1815  0.0496
15172W        W16036  20.831  24.188  17.204 -0.1137  0.0814 -0.0312
15173W        W16037   7.079  10.268   2.287  0.1465  0.3131 -0.3777
15174W        W16038  11.222   6.767  15.975  0.0292 -0.0187 -0.0445
15175W        W16039  26.305  12.343   0.711  0.1004  0.1043 -0.0212
15176W        W16040  12.680   9.559   6.053  0.4087 -0.0947 -0.0002
15177W        W16041   7.712  11.595   7.507 -0.0098 -0.1837 -0.3250
15178W        W16042  22.665  12.063  19.658  0.1186  0.0565 -0.1710
15179W        W16043  12.186   9.942  11.215 -0.3049  0.0244 -0.1886
15180W        W16044  29.014  15.178   0.375  0.0162  0.2653  0.0676
15181W        W16045  21.848   8.988  18.660 -0.0482  0.1204  0.0516
15182W        W16046  25.792   0.588   0.543 -0.1460  0.1491 -0.0557
15183W        W16047   9.576  19.690   8.889 -0.1826 -0.0263  0.0798
15184W        W16048   3.684  19.246  23.375  0.1767 -0.0576  0.1067
15185W        W16049  28.820   3.311  26.941  0.1658 -0.0107 -0.0724
15186W        W16050  11.520   0.429   0.463 -0.1814  0.0643 -0.2484
15187W        W16051   0.556  15.085  17.284 -0.6323 -0.0479  0.1545
15188W        W16052  25.243   5.693  21.173 -0.0880 -0.1981 -0.0405
15189W        W16053  21.528   7.693  20.284 -0.1977 -0.2181  0.2767
15190W        W16054  22.379   7.121  11.632 -0.1215 -0.0281  0.0703
15191W        W16055  10.563  24.233  21.208 -0.2003 -0.2080 -0.3016
15192W        W16056   2.498   9.470   9.021  0.2551  0.1513 -0.0900
15193W        W16057  20.896   1.601   2.768 -0.0384  0.1932  0.0286
15194W        W16058  22.054   1.812  21.469 -0.0590  0.2251  0.2708
15195W        W16059  18.854  23.725   6.535 -0.2241  0.1210  0.0524
15196W        W16060   3.505  27.075   7.897  0.0449  0.1282  0.1299
15197W        W16061  24.215  27.819  21.527  0.0329 -0.1806  0.1175
15198W        W16062   4.681   1.815  21.322  0.1348  0.0277  0.4612
15199W        W16063  20.432  10.299  16.427  0.1378 -0.2253 -0.0768
15200W        W16064  23.653  19.641  24.107  0.0822  0.1846  0.2232
15201W        W16065   0.653   9.397  19.547 -0.1207  0.0588  0.1831
15202W        W16066  10.288   2.609  27.240  0.0502 -0.3723 -0.0546
15203W        W16067  26.068  24.081  23.147  0.0924 -0.1567 -0.0332
15204W        W16068   6.220   9.015  28.639  0.0845 -0.2961  0.4164
15205W        W16069  25.248  13.127  21.928 -0.0470 -0.0086 -0.0601
15206W        W16070  12.350  15.056  13.809 -0.0676  0.1574 -0.1251
15207W        W16071  22.837  16.828   1.161  0.2615 -0.1882  0.0733
15208W        W16072  24.968  20.603  17.220  0.0848 -0.0152 -0.3305
15209W        W16073  12.381  22.624  24.054  0.1182  0.2116 -0.2881
15210W        W16074  24.488  21.195   2.343  0.1273 -0.1406  0.1404
15211W        W16075  21.232   5.960  24.918 -0.1426  0.1351 -0.1880
15212W        W16076   7.472   1.502   4.480  0.1503  0.2140 -0.3375
15213W        W16077   6.336  25.310  26.960  0.0822  0.1409 -0.0310
15214W        W16078   2.881  11.916  22.702  0.0934 -0.0289  0.1285
15215W        W16079  10.936  21.101  21.661  0.0424  0.0215 -0.0354
15216W        W16080  14.381  19.194  24.456 -0.0979 -0.1602 -0.1107
15217W        W16081   3.313  10.217   1.020 -0.1782 -0.0056 -0.0369
15218W        W16082  16.725   6.143  29.083 -0.0700  0.0560 -0.1341
15219W        W16083  13.513  23.245  21.514  0.2987  0.1083  0.0811
15220W        W16084  10.547  14.209  12.855 -0.0092  0.1085 -0.3271
15221W        W16085   9.371   5.474  24.738 -0.1291  0.0420 -0.0471
15222W        W16086  10.674   7.117  10.585  0.2091  0.2584  0.3201
15223W        W16087   6.124   5.325  24.454  0.0318 -0.0981  0.0270
15224W        W16088  14.231  22.837   2.554  0.0989  0.1636 -0.2178
15225W        W16089  14.831  25.857   3.322  0.0906 -0.2460 -0.1333
15226W        W16090  14.960  23.473  16.696  0.0148 -0.0068 -0.1328
15227W        W16091  25.915   7.418   8.101  0.1345 -0.0332  0.1545
15228W        W16092  11.772   7.755  14.458  0.0718 -0.0934  0.1004
15229W        W16093   6.407   2.751  23.488 -0.0435  0.1241 -0.2093
15230W        W16094  26.517  13.532   4.557  0.0323 -0.5189  0.1886
15231W        W16095  24.110   7.601  26.010  0.1722  0.3049 -0.1999
15232W        W16096  21.318  20.019  26.331  0.0281  0.2261 -0.1434
15233W        W16097   4.063  10.663   1.315  0.2839  0.4292  0.1659
15234W        W16098   7.383   6.557  18.892 -0.0538  0.1094 -0.2233
15235W        W16099   5.310  11.979  24.980 -0.2333  0.0332 -0.2676
15236W        W16100   6.014  19.890  14.574  0.1376 -0.1379 -0.0998
15237W        W16101   3.568  23.424   6.847 -0.3399  0.3659 -0.0380
15238W        W16102  19.826  15.904   2.636 -0.0796  0.1151 -0.2348
15239W        W16103   2.447  16.628  25.252 -0.0124 -0.2554 -0.0069
15240W        W16104  22.936   3.337  18.934 -0.2230 -0.0033  0.0525
15241W        W16105  10.352  21.136  26.740 -0.3190  0.2979  0.1113
15242W        W16106  15.294  28.429  26.022 -0.0577  0.3151  0.1242
15243W        W16107   1.568  26.954   0.837 -0.1226 -0.1347 -0.2412
15244W        W16108  21.922  20.917   1.548 -0.0520  0.0962 -0.4631
15245W        W16109   7.932  26.937  24.881 -0.0581 -0.1450 -0.3724
15246W        W16110  12.447   3.828   1.338 -0.0404 -0.0379 -0.0405
15247W        W16111  13.756  22.819  15.200  0.0324  0.1209 -0.2598
15248W        W16112  27.876  11.073  16.952 -0.0360  0.1012 -0.0886
15249W        W16113  15.148   2.276  18.977  0.0607  0.1345 -0.1029
15250W        W16114  14.085  11.602  13.966 -0.1864  0.1122 -0.1405
15251W        W16115  15.474  19.146  27.958  0.0840 -0.1943 -0.0780
15252W        W16116  17.388  14.744  18.097  0.0218  0.1330  0.1143
15253W        W16117  18.321  11.773  18.747 -0.2612  0.1017 -0.0550
15254W        W16118  22.436  25.409  26.488  0.0552  0.2041  0.1733
15255W        W16119  13.898  18.838  18.462  0.0400 -0.0406 -0.2121
15256W        W16120  26.104  19.322  26.568  0.0096 -0.0826 -0.0124
15257W        W16121  24.741  10.548  15.273 -0.2679 -0.1050 -0.2610
15258W        W16122  28.704   8.221  27.452  0.1757 -0.2843  0.2098
15259W        W16123  20.148  22.894  28.993  0.1419 -0.5727 -0.1468
15260W        W16124  26.219   3.313   6.365  0.0911  0.0588  0.0695
15261W        W16125  15.742  21.704  12.554 -0.1127 -0.0756 -0.1122
15262W        W16126  22.733  16.215   0.212 -0.0088  0.0989 -0.0720
15263W        W16127   8.776   8.160  14.272  0.0530  0.0479  0.2484
15264W        W16128  20.417  19.300  22.872 -0.0737 -0.1510 -0.0462
15265W        W16129  23.423   4.884   6.658  0.0682  0.0347  0.3519
15266W        W16130  22.582  20.607  28.572  0.3904 -0.0548  0.3612
15267W        W16131   7.541  27.537  26.320 -0.2269 -0.0252 -0.0036
15268W        W16132   2.493   8.317   5.810 -0.4642  0.0211 -0.1087
15269W        W16133   7.477   9.995  26.636 -0.3169 -0.1544  0.1609
15270W        W16134   4.842   9.672  12.490  0.1097 -0.2227  0.2842
15271W        W16135  11.111  11.590  14.857  0.0870  0.0077  0.1232
15272W        W16136  22.706   6.256  23.215 -0.1937 -0.2679  0.1390
15273W        W16137  14.123  28.507  17.811  0.0607 -0.0614  0.0986
15274W        W16138  20.703  28.234  19.901  0.0973 -0.1557 -0.0680
15275W        W16139  20.190  10.158  27.588 -0.1486 -0.1611 -0.0957
15276W        W16140  20.803  12.440  24.023 -0.0159  0.2147 -0.1377
15277W        W16141  18.649  18.119  28.005  0.2392 -0.2096  0.0987
15278W        W16142  17.367  21.129  22.636 -0.0630 -0.1721 -0.2404
15279W        W16143   8.836  24.157  10.504 -0.1390  0.1259  0.0247
15280W        W16144  11.238  27.207  27.692  0.0143 -0.2053 -0.0611
15281W        W16145  20.855  23.417   9.041  0.0130 -0.0161  0.0307
15282W        W16146   5.360  10.794   7.579 -0.1197 -0.3812 -0.1928
15283W        W16147  23.375   4.971  18.369  0.1097 -0.0978 -0.1367
15284W        W16148   0.345   6.480  20.871  0.1189 -0.0973 -0.3098
15285W        W16149  22.093  18.836  23.879 -0.0728 -0.2598 -0.0554
15286W        W16150   9.075   9.389  15.335  0.0686  0.1153 -0.0361
15287W        W16151   0.790   7.390  17.691  0.0123 -0.1405  0.1388
15288W        W16152   9.567  20.713   2.441 -0.1315 -0.1993 -0.0098
15289W        W16153  24.030  19.868  12.156 -0.1792 -0.1274 -0.2168
15290W        W16154  22.861  22.874  12.480 -0.0344  0.0855  0.2763
15291W        W16155  14.839  12.082  24.953 -0.6142  0.0646  0.1277
15292W        W16156  21.056   0.193  24.196  0.2718  0.1275 -0.0276
15293W        W16157   9.013   2.883  10.442 -0.1436 -0.0025  0.0644
15294W        W16158   9.539  17.541  27.472  0.0236 -0.0632  0.0892
15295W        W16159  19.700  11.309   2.814  0.4819  0.4759 -0.1437
15296W        W16160  27.846  20.521   1.597  0.1668 -0.0165 -0.0607
15297W        W16161  15.520  22.236  26.041  0.0056 -0.2368  0.0583
15298W        W16162  14.221  27.090   8.125 -0.0861 -0.2330 -0.0804
15299W        W16163  11.769  27.147  16.771 -0.1951  0.0941 -0.2048
15300W        W16164   2.638  28.417   2.123  0.4315 -0.3253  0.0594
15301W        W16165   0.026   5.258  11.439 -0.1486  0.2907 -0.0408
15302W        W16166  12.606  26.683  13.619 -0.0162 -0.0492 -0.2275
15303W        W16167   5.590   8.623  28.088  0.0053 -0.3114 -0.1189
15304W        W16168  18.464  19.292   1.726  0.2852 -0.0141  0.0429
15305W        W16169  20.188   7.885  25.938  0.1756 -0.2704 -0.0160
15306W        W16170  16.681   4.091  22.104 -0.1468 -0.0952 -0.1531
15307W        W16171  22.273  25.573   9.764  0.1372 -0.0433 -0.0295
15308W        W16172   1.118   9.788  24.772  0.1023  0.1641  0.0722
15309W        W16173  24.121   5.402  13.885 -0.2153 -0.0392 -0.1734
15310W        W16174   1.917  10.817  26.469 -0.0512 -0.0394 -0.1037
15311W        W16175  10.254  17.831  23.950  0.2684  0.3568  0.0668
15312W        W16176  20.869  20.186   0.420 -0.2250 -0.1121 -0.0904
15313W        W16177   6.875  26.842  14.598  0.1903 -0.0373 -0.3282
15314W        W16178  10.930  20.118  27.330  0.0371 -0.0703  0.0091
15315W        W16179  17.185  15.380  15.283 -0.0126 -0.0783  0.0789
15316W        W16180   5.440  20.061  26.149  0.1223 -0.0246 -0.0844
15317W        W16181  15.694  26.597  28.363  0.0915  0.1592  0.0271
15318W        W16182  20.983  12.404   7.461  0.3173  0.2632 -0.3396
15319W        W16183   7.765  21.761   2.412  0.0254  0.1111  0.0543
15320W        W16184  15.438  20.960  24.789  0.0162 -0.0289  0.1383
15321W        W16185  15.094   3.681   9.886  0.0359  0.0059 -0.1298
15322W        W16186  11.822  14.886  12.077 -0.1201  0.0026 -0.1160
15323W        W16187  13.435  15.704  24.553 -0.4677 -0.1558  0.2469
15324W        W16188  21.356  13.518  28.999  0.1662 -0.1247  0.1495
15325W        W16189  24.621  10.619   1.803  0.1044  0.4019 -0.3646
15326W        W16190  22.607   2.117  12.349 -0.2117 -0.1250 -0.1582
15327W        W16191  14.220  16.560  19.814 -0.2047  0.0800  0.1627
15328W        W16192   7.575   6.977  27.217 -0.0220  0.1661 -0.0192
15329W        W16193  11.733  21.738   3.789 -0.2535 -0.0096  0.1230
15330W        W16194  17.199   9.562   1.479  0.3519  0.0479 -0.0063
15331W        W16195  28.439   8.052  12.809  0.1191 -0.0695 -0.2725
15332W        W16196  28.213  16.726   2.736  0.2765 -0.1980  0.1634
15333W        W16197  20.395  29.071  26.053 -0.0564  0.1529 -0.1281
15334W        W16198   0.563  28.919   5.936 -0.0760  0.1305  0.0636
15335W        W16199  26.383  20.057  28.916  0.0803  0.1136 -0.0977
15336W        W16200  16.633   5.710  26.198  0.0300  0.4305  0.0467
15337W        W16201  13.799  27.301  19.865  0.0934 -0.0614 -0.0266
15338W        W16202  26.311  14.730  17.860 -0.0147  0.0021  0.3074
15339W        W16203   8.812   2.231  14.313  0.0133  0.0731  0.1336
15340W        W16204  13.011   3.102  27.110  0.0415  0.0341 -0.2368
15341W        W16205   7.938  26.256  13.607  0.0541 -0.2165  0.0979
15342W        W16206  17.556   7.669   8.475 -0.0227  0.2828  0.1713
15343W        W16207   6.377   4.362  28.959  0.2158 -0.0514  0.2194
15344W        W16208  12.541  22.581   2.595 -0.3067 -0.2203 -0.0736
15345W        W16209   2.325  24.805  13.450 -0.0492  0.0375 -0.0839
15346W        W16210  10.940  26.988  17.360  0.0718 -0.0422  0.0995
15347W        W16211   6.428  17.946  16.028 -0.1016 -0.2490 -0.1036
15348W        W16212  15.307  14.140  20.744  0.1588 -0.0521 -0.0260
15349W        W16213  18.167  26.939  10.048  0.4967 -0.1430  0.1252
15350W        W16214  15.373  25.403   1.667 -0.3062  0.0825 -0.2303
15351W        W16215  11.250  18.039   5.379 -0.0855 -0.1263  0.1700
15352W        W16216   3.836  14.954   1.084 -0.1311  0.0823  0.0195
15353W        W16217   6.777  25.217   0.473 -0.3260 -0.0669 -0.1543
15354W        W16218  26.545  21.982   7.596  0.1543  0.0616  0.2462
15355W        W16219  25.917  17.962  25.508  0.0403 -0.2083  0.1664
15356W        W16220   8.663   4.471   2.657 -0.1653 -0.1210 -0.0049
15357W        W16221   1.652   7.250  22.553  0.0735 -0.1396  0.1489
15358W        W16222  10.946   3.891  28.612  0.1579  0.0230 -0.0205
15359W        W16223   9.238  18.675  23.992 -0.2284 -0.3102  0.3083
15360W        W16224  13.789  15.798  16.544 -0.2421 -0.0281 -0.2968
15361W        W16225  27.538  19.496  16.389  0.2641  0.3513  0.1413
15362W        W16226  22.036  26.049   3.356 -0.1859  0.0574  0.0668
15363W        W16227  22.559   0.403  12.329  0.0526 -0.6128 -0.0877
15364W        W16228  16.192  17.918   9.768  0.2233 -0.0504 -0.2657
15365W        W16229  25.826  11.575  23.241 -0.2219  0.1482 -0.0972
15366W        W16230  16.553  21.515  10.417  0.2199  0.0680 -0.0476
15367W        W16231  21.611  28.470  25.702  0.0884  0.5055 -0.1248
15368W        W16232   4.374   5.205   2.740 -0.2761 -0.2279 -0.0367
15369W        W16233  16.103   4.600  24.645  0.0800 -0.0265  0.0368
15370W        W16234   0.021  18.712   3.091 -0.0163 -0.0731 -0.0794
15371W        W16235  26.058   2.511  14.810  0.1303 -0.3020  0.1563
15372W        W16236  15.295  14.631  17.899 -0.0210 -0.3665 -0.0725
15373W        W16237  29.128   4.589   1.956 -0.3071 -0.1431 -0.2669
15374W        W16238   6.706  18.579   7.016  0.0391  0.1383 -0.2316
15375W        W16239  22.076  25.094   9.644 -0.1279 -0.0546  0.0654
15376W        W16240   6.301  17.347  16.613  0.5438 -0.1914 -0.0232
15377W        W16241   0.339  14.581   4.446 -0.1638 -0.2815  0.0386
15378W        W16242  14.577   8.096  17.406 -0.0908  0.3549 -0.2034
15379W        W16243  10.587  18.493  18.084  0.2489 -0.0370 -0.0805
15380W        W16244   8.892  18.753   9.870 -0.1640  0.1277  0.0705
15381W        W16245  21.658  12.974   4.512 -0.3424  0.3918  0.2522
15382W        W16246  29.126  23.265  11.595 -0.1986 -0.1718 -0.0878
15383W        W16247   7.925   4.529  20.855 -0.0673  0.0279  0.0563
15384W        W16248  26.511   6.945   9.882 -0.0800  0.4189 -0.1601
15385W        W16249  10.157  13.074   4.139 -0.2585 -0.0906 -0.0239
15386W        W16250  12.196  27.404  17.432  0.1343 -0.0976 -0.0303
15387W        W16251  17.829   6.322   0.425 -0.0900 -0.2372  0.1200
15388W        W16252   5.729  15.815   1.949 -0.2266  0.1212  0.1621
15389W        W16253   5.892   4.395   4.406 -0.0928  0.0668  0.3339
15390W        W16254  11.149  13.051   2.268 -0.0078 -0.1918  0.0924
15391W        W16255  25.846  14.264   2.175 -0.0721 -0.0894 -0.1751
15392W        W16256  23.797  27.914  22.518 -0.1615  0.0433 -0.0124
15393W        W16257  18.021   7.729  16.445 -0.1686  0.0996  0.0654
15394W        W16258   2.427  14.563  17.631 -0.1027 -0.2563  0.0845
15395W        W16259   9.454  13.785  23.662  0.2441  0.0871 -0.2440
15396W        W16260  11.267   9.084  27.642 -0.5390 -0.3338  0.2621
15397W        W16261  12.752  20.641  22.698  0.1779 -0.0808  0.2539
15398W        W16262  15.020  14.631   0.717 -0.1289  0.1418  0.0959
15399W        W16263  15.230  22.412  18.287 -0.2159 -0.0796  0.0541
15400W        W16264  16.067  10.632   8.586  0.0838  0.0987 -0.0504
15401W        W16265   8.768  15.794  14.101  0.1564  0.2761 -0.2415
15402W        W16266  16.897  10.900  28.358 -0.1064 -0.1653  0.0835
15403W        W16267  16.002  17.855   5.937  0.1449  0.2784  0.2700
15404W        W16268   7.190  22.907  24.913 -0.3389 -0.4180 -0.0105
15405W        W16269  17.269  25.330   9.037 -0.0610 -0.1871 -0.0983
15406W        W16270  28.591   9.240  14.060 -0.0326 -0.0598  0.1294
15407W        W16271  25.617  19.937  28.193 -0.0648  0.1414 -0.1179
15408W        W16272  14.351  15.484   2.693  0.0594 -0.0775 -0.0176
15409W        W16273  16.789  15.972  11.620  0.1633 -0.0386  0.1442
15410W        W16274   6.059  24.854  26.070 -0.0717  0.1585  0.0980
15411W        W16275   2.643  16.720  15.346 -0.4633  0.0675 -0.0822
15412W        W16276  10.811  10.946   2.012  0.1475 -0.3419  0.4288
15413W        W16277   6.994   9.848   6.384  0.0002 -0.0606  0.2213
15414W        W16278  10.471   4.969  26.794 -0.0232 -0.0295  0.0416
15415W        W16279  11.058  11.807  26.025  0.0619  0.0910  0.1842
15416W        W16280   3.129  16.715  15.923 -0.1982 -0.0869  0.4459
15417W        W16281   3.739  15.368   2.978 -0.1283  0.1839  0.2808
15418W        W16282  25.717   9.278   4.994 -0.3078  0.1338 -0.0208
15419W        W16283  28.850  10.696   6.682  0.1043 -0.0408  0.1290
15420W        W16284  13.943  10.019   1.662 -0.0796 -0.1413  0.0622
15421W        W16285  13.192   1.246   6.405 -0.1677  0.0546 -0.0081
15422W        W16286   9.835  25.441  28.945  0.1714 -0.0786  0.2311
15423W        W16287   0.843   5.546  17.797  0.1528 -0.0915  0.1541
15424W        W16288  13.483  10.713  15.234 -0.2820  0.1421 -0.2731
15425W        W16289   0.348   8.599  16.320  0.0140 -0.1120  0.2723
15426W        W16290  23.960  19.183   2.262 -0.1317 -0.1174 -0.1774
15427W        W16291  17.154  27.328  19.120 -0.1889  0.0616 -0.1607
15428W        W16292   8.507   3.907  24.239 -0.0267  0.0867 -0.1910
15429W        W16293  16.367   5.282   1.660  0.0420  0.0417  0.0357
15430W        W16294   8.973  26.745  14.098 -0.1374 -0.0422 -0.2684
15431W        W16295  27.236  21.823  10.883 -0.1585 -0.1175 -0.0540
15432W        W16296   8.294  22.990  21.096 -0.0996 -0.1222 -0.0444
15433W        W16297  22.372  20.252  11.382  0.1341 -0.2118 -0.0211
15434W        W16298  27.988  14.913  25.161 -0.0311  0.0310  0.0702
15435W        W16299  24.942  18.461   5.431 -0.0115 -0.1630  0.1514
15436W        W16300  11.455   9.547  23.817  0.0764  0.1059 -0.1863
15437W        W16301  22.450  26.846   7.441 -0.1030 -0.1839 -0.1576
15438W        W16302  15.076  24.516   0.038 -0.0511 -0.0685 -0.0680
15439W        W16303   1.828   4.146  23.518 -0.4859  0.3469 -0.0325
15440W        W16304   3.360   9.760  28.368  0.6011  0.0158 -0.0265
15441W        W16305   7.745   2.617  18.150  0.2746 -0.0044  0.2166
15442W        W16306  11.672  20.801   9.298  0.1694 -0.2827 -0.0370
15443W        W16307  12.059  24.474  10.571 -0.1926  0.0139 -0.3278
15444W        W16308  13.061  18.915  22.911 -0.1171 -0.2042 -0.2800
15445W        W16309  10.020  15.381  13.997 -0.0947  0.0660 -0.0376
15446W        W16310  22.058  26.498  22.078 -0.0479 -0.0109 -0.1016
15447W        W16311   3.919  26.333  22.556 -0.1756  0.0345 -0.1173
15448W        W16312   6.685  14.423  22.374  0.0497 -0.0728 -0.3738
15449W        W16313  27.124   7.408   0.006 -0.1122  0.1939  0.1698
15450W        W16314  16.288  11.480  18.310  0.0767 -0.0017 -0.2428
15451W        W16315   5.741  10.412  10.960  0.0572 -0.0497  0.1875
15452W        W16316   0.351   6.357   0.591  0.0967  0.4126 -0.1507
15453W        W16317   6.280  17.228  15.871  0.0278  0.0133 -0.1437
15454W        W16318   0.838  14.238  13.747  0.1980 -0.3837  0.0046
15455W        W16319  10.727   6.226   6.266  0.0496 -0.0531 -0.2310
15456W        W16320  22.206   0.251   7.744 -0.0671 -0.4241 -0.0138
15457W        W16321  24.591   1.240   3.066  0.0981 -0.1474 -0.0439
15458W        W16322  13.390   2.080   1.484  0.0710  0.1507  0.1114
15459W        W16323   6.487  10.907   2.808  0.0899  0.0158 -0.1479
15460W        W16324   3.402  20.884   4.520  0.0916  0.1824  0.0996
15461W        W16325  25.749   6.106   3.673  0.1337 -0.0306  0.1705
15462W        W16326   0.389  16.132  22.360 -0.0765 -0.2624  0.0420
15463W        W16327  11.986  24.740  26.422 -0.2757  0.0121 -0.1579
15464W        W16328   2.869  12.192   6.204 -0.2884  0.0279  0.0022
15465W        W16329  16.398  20.568  23.648 -0.2718 -0.3279  0.0169
15466W        W16330  18.238  20.781  20.847 -0.5361 -0.0202  0.3648
15467W        W16331  24.955  12.716  13.178 -0.2115  0.0123 -0.1044
15468W        W16332   2.592  18.347   5.080  0.0467 -0.2961 -0.0414
15469W        W16333  12.873  14.340  19.940  0.1753  0.1914 -0.0703
15470W        W16334  14.814   1.988   1.728  0.2529  0.2895 -0.3926
15471W        W16335  18.783  12.368   3.220 -0.3376  0.0447  0.0556
15472W        W16336   2.702  15.480   7.493  0.0949 -0.1396 -0.2360
15473W        W16337  15.210   9.510   5.530  0.4471 -0.1391  0.2519
15474W        W16338  19.634   9.405   5.829 -0.0508 -0.1584 -0.3678
15475W        W16339  11.930  12.839   3.917 -0.0776 -0.0027  0.2837
15476W        W16340  12.721  27.068  10.958 -0.0661 -0.1003  0.0644
15477W        W16341  15.514  10.499  27.402 -0.2794  0.1479 -0.0252
15478W        W16342   3.710  14.256  25.013 -0.2303 -0.3700 -0.0868
15479W        W16343   0.286  19.100  27.221 -0.0622  0.0371  0.0363
15480W        W16344  21.812  27.491   5.117 -0.0177  0.3815  0.0813
15481W        W16345  19.961  14.587   4.219  0.2743  0.1187 -0.1745
15482W        W16346   1.956  15.257  25.877  0.4106  0.2020  0.0861
15483W        W16347   9.311  19.782   8.040  0.0018 -0.0137  0.3720
15484W        W16348  16.623   5.850   6.751 -0.0347 -0.1583 -0.1310
15485W        W16349  20.968  23.201  17.385  0.0340  0.0068  0.3954
15486W        W16350  26.798   8.600  29.059 -0.5012 -0.0990  0.2261
15487W        W16351  24.495   7.004   5.995 -0.2920  0.0111 -0.3007
15488W        W16352   8.300  26.787  23.485  0.0259  0.0349 -0.1405
15489W        W16353  12.135  21.515  27.979  0.0463 -0.1425  0.0115
15490W        W16354  18.599  10.068  16.483 -0.2117  0.1316  0.0621
15491W        W16355   9.965   5.778  11.943 -0.1114  0.0651  0.2010
15492W        W16356  15.115  14.103   3.283  0.0397 -0.0640  0.1562
15493W        W16357   4.016  27.316  23.687 -0.0107  0.2779  0.1503
15494W        W16358   8.474  22.523  11.640 -0.1524 -0.0695 -0.0207
15495W        W16359  15.331  21.251  17.489  0.1064 -0.1844  0.1264
15496W        W16360  15.098   6.925  28.578 -0.1173 -0.1089  0.0390
15497W        W16361  10.264  17.126   7.352 -0.0015  0.1138  0.0871
15498W        W16362  14.846  15.944  18.328  0.2439  0.0957  0.2816
15499W        W16363  10.634   0.887  18.098 -0.1564  0.0547  0.4022
15500W        W16364  16.084  10.260   3.291  0.2803 -0.0091 -0.0355
15501W        W16365  24.940  13.650  18.250 -0.1067  0.2424 -0.0782
15502W        W16366  17.775  17.159  14.027  0.2078 -0.0183 -0.0927
15503W        W16367  25.586  11.095   4.921  0.0463 -0.2355 -0.2824
15504W        W16368   3.227  12.838  11.659 -0.0601  0.1268  0.0897
15505W        W16369  18.182   2.077  20.945  0.0429 -0.0282 -0.2417
15506W        W16370  14.538  15.454  12.607  0.2442 -0.1966  0.1298
15507W        W16371  13.323  15.657  28.733  0.1608 -0.1748  0.2359
15508W        W16372   0.539  17.788   0.858  0.1459  0.0861  0.3763
15509W        W16373  24.493  23.108  14.625  0.1175  0.0913 -0.3873
15510W        W16374  11.884  15.662  18.008  0.0644 -0.5215 -0.0153
15511W        W16375  25.962   9.164  17.383 -0.1040 -0.0708 -0.2848
15512W        W16376   2.987  12.834   1.848  0.0549 -0.1191  0.0303
15513W        W16377  21.424   0.755  11.395  0.0796  0.0773 -0.0279
15514W        W16378   9.630  19.488  21.461 -0.1819 -0.0815 -0.0753
15515W        W16379   1.262  26.406  21.863 -0.2048 -0.1497 -0.0794
15516W        W16380   1.796  12.281  20.228 -0.2049  0.0475  0.2764
15517W        W16381  14.787   7.004  26.307 -0.0723 -0.3056  0.0883
15518W        W16382  28.710   1.665  16.185  0.2736  0.0357  0.0686
15519W        W16383   8.693  22.213  27.105  0.0208 -0.0518 -0.0281
15520W        W16384  27.842  19.818   9.145 -0.2078 -0.3634 -0.2303
15521W        W16385  14.564  20.285   2.220 -0.0829  0.0077 -0.0858
15522W        W16386   5.855  11.216  12.965  0.2514  0.2764  0.3020
15523W        W16387  23.995  25.209   6.573  0.0376 -0.1712 -0.0173
15524W        W16388   6.482   8.245  26.829  0.0985  0.1644 -0.0774
15525W        W16389  13.824  24.955   3.658  0.0002  0.2870  0.1284
15526W        W16390  14.471   6.726  14.408  0.5087 -0.1033  0.1959
15527W        W16391  23.031  26.955  12.094  0.1217 -0.1641 -0.2233
15528W        W16392   9.952   0.982   6.459  0.0450 -0.1566  0.0139
15529W        W16393  13.105  27.180  28.301  0.0588  0.1418  0.1143
15530W        W16394  20.298  11.722  20.752 -0.1844  0.0303  0.0755
15531W        W16395  16.916  18.951  23.706  0.0312  0.2330 -0.2974
15532W        W16396   1.087  21.999   6.024  0.2218 -0.1282 -0.6784
15533W        W16397   9.437  26.592  20.729 -0.0739 -0.0589  0.2088
15534W        W16398  11.191   7.292  18.181  0.2123 -0.1385  0.0953
15535W        W16399  20.488  10.274   1.570 -0.0376 -0.1368  0.1658
15536W        W16400  15.040  23.933  27.570 -0.1444 -0.0521  0.2893
15537W        W16401  24.309   6.543  27.680 -0.0721 -0.4347  0.0560
15538W        W16402  26.482  18.503  10.357 -0.2083 -0.3028  0.2130
15539W        W16403  13.345  25.303  20.999  0.1779 -0.0935 -0.2442
15540W        W16404   3.910   4.536  22.438  0.1348 -0.0995 -0.2039
15541W        W16405  17.000   0.683  26.350 -0.3165 -0.3156 -0.2791
15542W        W16406  23.095  20.165   0.042  0.0036  0.2045  0.2343
15543W        W16407  20.415   1.747  24.306 -0.2905 -0.2969  0.1978
15544W        W16408  25.273  25.560   8.767  0.1266 -0.0555 -0.1700
15545W        W16409  20.871  24.349  21.910  0.0036 -0.2498  0.1347
15546W        W16410   6.219   4.441  18.062 -0.2033 -0.2997 -0.1522
15547W        W16411   6.281  23.534  21.157  0.0069 -0.0216  0.0892
15548W        W16412  15.941  18.662  21.334  0.1266  0.0065  0.3235
15549W        W16413   2.478  12.903   1.838  0.4074 -0.0563 -0.1761
15550W        W16414  15.271   3.279   3.993 -0.0328  0.1271  0.2444
15551W        W16415  18.172  18.095  13.390 -0.1313 -0.1348 -0.0275
15552W        W16416   1.341   8.616  27.843 -0.1334 -0.0152 -0.0503
15553W        W16417  16.687   5.007  21.826  0.3043 -0.0353  0.2027
15554W        W16418  15.844  12.424  27.303  0.0722 -0.1796 -0.0973
15555W        W16419   8.425   7.374   4.025 -0.0378  0.1703  0.1146
15556W        W16420   6.660  13.799   0.883  0.3134 -0.0861 -0.0619
15557W        W16421  15.770  22.515  26.859  0.3110  0.2460 -0.3348
15558W        W16422   8.149   9.910  28.254 -0.1215  0.1941  0.0582
15559W        W16423   4.745  16.035   1.311  0.0563 -0.0418  0.2131
15560W        W16424  10.430  13.771  25.251 -0.1206  0.1553 -0.0242
15561W        W16425   3.093  14.604  28.245 -0.1024 -0.1560 -0.0395
15562W        W16426  11.512  15.669   0.849  0.1741  0.1634 -0.1997
15563W        W16427   8.459  12.797  22.090 -0.0069 -0.1171  0.0390
15564W        W16428  13.956  22.283  27.466 -0.2772  0.1565  0.2740
15565W        W16429   3.577  12.960   6.693 -0.1328  0.0585  0.2294
15566W        W16430  28.294  10.734   6.391 -0.0198  0.0936  0.1581
15567W        W16431  15.357  20.355  16.232 -0.1502  0.2330 -0.0146
15568W        W16432  19.871   7.477  27.539 -0.0916 -0.2650  0.2497
15569W        W16433  23.759  23.622   9.795 -0.1437  0.0809  0.1018
15570W        W16434   9.421   1.317   0.321  0.1496  0.4106  0.3126
15571W        W16435  12.950   5.658   8.172 -0.1783  0.2807  0.0804
15572W        W16436  22.333  13.031   5.783 -0.0152 -0.1577  0.2276
15573W        W16437  21.206   9.593  17.938 -0.1743  0.0297 -0.0982
15574W        W16438   3.618  13.628  16.372 -0.2384  0.2480 -0.1847
15575W        W16439  15.270  26.474   0.706  0.0082  0.1437  0.4136
15576W        W16440  25.625  27.490  23.915 -0.0043 -0.1559 -0.1074
15577W        W16441  25.802  16.590  19.119  0.2519  0.0709  0.1518
15578W        W16442   0.818   2.613  21.661  0.2779  0.1655 -0.0914
15579W        W16443  26.481   3.997   0.456  0.3926  0.1127 -0.2143
15580W        W16444   5.307  24.975  13.716 -0.0718  0.3813  0.2588
15581W        W16445  21.621  10.216  23.275  0.3150  0.4119  0.1574
15582W        W16446  25.401  22.617  23.267 -0.0811  0.0149 -0.0734
15583W        W16447  28.317  11.339  16.112  0.2155  0.2274  0.2008
15584W        W16448  24.864  26.669   7.186 -0.1070 -0.2361  0.4429
15585W        W16449  20.090  25.263  20.065  0.0315  0.3260 -0.2952
15586W        W16450  16.479  15.015  11.328 -0.3329  0.0859  0.1740
15587W        W16451  16.397  26.690   6.904  0.0704  0.1649  0.2187
15588W        W16452  10.393  22.463   0.902 -0.0293  0.0611  0.0477
15589W        W16453  17.634  20.158  18.685 -0.1331 -0.1310 -0.2633
15590W        W16454  18.926  22.717   3.359 -0.0952 -0.1252  0.0288
15591W        W16455   5.284   1.177   0.171  0.0426 -0.0297 -0.3152
15592W        W16456  17.416   7.842  28.541  0.0366 -0.2004  0.0258
15593W        W16457  19.157  19.374  14.912  0.0331 -0.0461  0.0703
15594W        W16458  10.700  12.814  19.925 -0.0010  0.2095  0.1028
15595W        W16459  23.328  11.786  16.268  0.0051 -0.0204 -0.0473
15596W        W16460   0.243   0.150   3.456 -0.3190 -0.1861 -0.2786
15597W        W16461  13.501   3.791   5.745 -0.1637 -0.0371 -0.0940
15598W        W16462  20.632  20.649   0.210  0.0901 -0.0856 -0.0048
15599W        W16463  25.543  19.738  25.881 -0.0431  0.1788 -0.2217
15600W        W16464  17.949   7.472   0.552  0.0800  0.0635  0.0778
15601W        W16465   2.401  28.683   3.968 -0.2123 -0.1541  0.1625
15602W        W16466  24.469  16.606  26.251 -0.1009 -0.0672 -0.0662
15603W        W16467  18.336   1.417  13.601 -0.0576  0.1145  0.1558
15604W        W16468  21.831  14.521  19.081  0.0357  0.2303 -0.1984
15605W        W16469  10.296   9.989  27.294 -0.2414 -0.0768  0.0643
15606W        W16470  25.193  15.351  21.601  0.2640 -0.2233  0.0951
15607W        W16471  14.236  13.193   8.887  0.3268 -0.1109 -0.2767
15608W        W16472   5.801  11.714  12.103 -0.3345  0.1673  0.0993
15609W        W16473   2.633  17.502  24.261 -0.0498  0.1576 -0.2215
15610W        W16474  20.270  15.158   4.685 -0.1107 -0.0415 -0.1587
15611W        W16475   7.408   0.862   6.259 -0.3514 -0.0308 -0.2432
15612W        W16476  27.758  11.074   3.190 -0.2581  0.3375 -0.0072
15613W        W16477   3.459  12.604  14.496 -0.0507  0.1636  0.1766
15614W        W16478   5.544   3.667  17.748 -0.0438  0.1378 -0.0273
15615W        W16479   5.420   2.726   3.766  0.1718  0.3843 -0.1074
15616W        W16480  18.141   8.459   6.861  0.0330  0.1067 -0.1911
15617W        W16481  22.509  28.910  28.643 -0.1958  0.1865 -0.0319
15618W        W16482  14.225   4.588  13.121  0.0860 -0.2400 -0.2651
15619W        W16483  14.263  28.189  18.223 -0.0379  0.3018  0.1256
15620W        W16484  18.946   9.810  10.354  0.5053  0.0310  0.3265
15621W        W16485   0.624  21.878  19.918 -0.0889  0.0748 -0.0470
15622W        W16486  16.708  13.953  20.999 -0.0692 -0.1334  0.0807
15623W        W16487  18.419   4.906  19.978 -0.2604 -0.1565 -0.3451
15624W        W16488  12.312  10.760   0.617  0.0217 -0.1406  0.0196
15625W        W16489  13.472  21.928   4.009  0.1411 -0.1537 -0.1550
15626W        W16490  19.973  27.891   5.552 -0.0365 -0.2971  0.1013
15627W        W16491  10.191   4.795  13.215 -0.0504 -0.1427 -0.0374
15628W        W16492  15.821   7.591   7.368 -0.1312 -0.1972  0.0416
15629W        W16493   5.807  21.066   9.362  0.1396 -0.0943  0.3782
15630W        W16494   1.670  27.283  22.897  0.1532 -0.1938  0.0399
15631W        W16495   2.673  16.826  17.317  0.1077  0.4225  0.4829
15632W        W16496  11.606  27.103  28.551 -0.0525 -0.2206 -0.2591
15633W        W16497  27.140  16.816  10.838 -0.1007  0.2632 -0.1699
15634W        W16498   1.360  11.894  12.363  0.0012  0.0430 -0.2251
15635W        W16499   3.639   1.132  21.341 -0.1388  0.3429 -0.1009
15636W        W16500   5.817   1.093  16.313 -0.1772 -0.3315 -0.0764
15637W        W16501   5.214  19.295  10.866 -0.1176 -0.1831 -0.1560
15638W        W16502  10.106  18.245  24.200  0.2149 -0.3511  0.1159
15639W        W16503  27.532  26.581   5.173  0.2668  0.2446 -0.0040
15640W        W16504  21.193  14.844   8.456  0.2666 -0.0967  0.0429
15641W        W16505  12.946  19.782  26.233 -0.2475  0.2260 -0.0936
15642W        W16506  14.562  15.054  26.795  0.2087  0.0730 -0.0885
15643W        W16507  10.660  10.169  11.138  0.0337 -0.0225 -0.1459
15644W        W16508  25.273   9.765  22.505  0.0619 -0.3605 -0.1287
15645W        W16509   3.466  17.244  14.376  0.1699  0.0341  0.1219
15646W        W16510   8.417  20.428  21.919  0.2071 -0.0646  0.1381
15647W        W16511  20.319   3.158  22.092 -0.1252 -0.0448 -0.1184
15648W        W16512  20.193  15.255  13.421  0.1419  0.1286 -0.1381
15649W        W16513   0.164  23.110   3.034  0.1392  0.3606  0.0345
15650W        W16514  22.247  14.928   0.324  0.1749  0.0542  0.0339
15651W        W16515   8.307  20.920   3.583 -0.3026 -0.1028 -0.2066
15652W        W16516   6.671  11.223   8.961 -0.3164 -0.0067  0.0218
15653W        W16517  27.922  24.280   2.775  0.0940 -0.0932 -0.2974
15654W        W16518  13.902   8.689  28.552 -0.1906  0.1014 -0.2710
15655W        W16519  15.067  13.520  22.160 -0.0280  0.0510  0.1571
15656W        W16520  25.512   3.505  10.267  0.1930 -0.1131 -0.1474
15657W        W16521  22.027  21.011  16.744  0.0963 -0.0432  0.0875
15658W        W16522  21.394  20.997  10.156  0.3018  0.0058  0.1373
15659W        W16523  23.034   0.588   0.946  0.0086 -0.2573  0.1491
15660W        W16524  24.052   9.046  17.523  0.0248 -0.2029  0.1658
15661W        W16525   3.168   9.007   7.868  0.2773  0.2085  0.0559
15662W        W16526   2.839   5.955  19.454 -0.0170  0.0981  0.0854
15663W        W16527  22.146  21.649  26.675 -0.1610 -0.3919 -0.2421
15664W        W16528  13.260   9.032  18.826 -0.0948  0.0064  0.3458
15665W        W16529  14.575  26.094  14.374  0.1627 -0.3428 -0.1737
15666W        W16530  23.400  23.300  10.958  0.1371  0.0405 -0.0278
15667W        W16531  22.499  25.455  23.552 -0.3865  0.0126  0.2771
15668W        W16532  16.032  18.458   8.371 -0.3705  0.1101  0.1636
15669W        W16533  15.701  26.574  22.285 -0.1269  0.1240  0.1468
15670W        W16534  26.067  17.644   5.637 -0.0874 -0.1149 -0.0137
15671W        W16535   8.734  27.873  14.918  0.0448  0.3342 -0.1100
15672W        W16536   5.249  12.803  15.375 -0.3379 -0.1357 -0.2585
15673W        W16537   6.988  25.717   7.131  0.1262  0.0071  0.1727
15674W        W16538  23.535   0.566  11.534 -0.2939  0.1666  0.0090
15675W        W16539  13.137   7.366  25.895  0.1748  0.0242  0.1149
15676W        W16540   9.435  19.362   1.797 -0.1467 -0.3510  0.0178
15677W        W16541  27.674  18.179  13.058 -0.1578 -0.3753  0.1993
15678W        W16542  15.910  19.888  19.110  0.0940  0.0796 -0.2491
15679W        W16543  13.647   0.553  22.253  0.0846  0.1942  0.2270
15680W        W16544  18.173  16.568   7.042 -0.3416 -0.0262  0.2292
15681W        W16545  10.077   7.760  23.071 -0.0040  0.0505  0.0145
15682W        W16546  27.298  12.423  16.241  0.0561 -0.1495 -0.0043
15683W        W16547   1.209   0.275  21.213 -0.7287 -0.1139  0.1559
15684W        W16548  13.744   4.810  24.420  0.2713 -0.3193 -0.0169
15685W        W16549  19.420   0.730  12.400 -0.1620  0.0487  0.1744
15686W        W16550   9.573  19.561   0.040 -0.0340 -0.2204 -0.0402
15687W        W16551   3.323  13.032  28.534 -0.1576  0.1291 -0.0356
15688W        W16552   6.231  12.090  15.870 -0.1273  0.1159 -0.1149
15689W        W16553  14.295  16.841   5.953  0.1204  0.1716 -0.1190
15690W        W16554  21.054  26.894  28.659 -0.1522 -0.0200 -0.0819
15691W        W16555   2.643  27.679  24.577  0.0980 -0.5291 -0.0732
15692W        W16556  14.944  23.568   9.512  0.1681 -0.1787 -0.1645
15693W        W16557  13.757  14.131  28.801 -0.0735  0.1621 -0.0979
15694W        W16558  24.266  25.928   7.419 -0.0331 -0.1379 -0.1415
15695W        W16559   4.501  26.360   4.893  0.0020  0.0995  0.1979
15696W        W16560  15.586  22.452   9.017  0.0246  0.0442  0.0216
15697W        W16561  18.223  26.289   4.468 -0.4334 -0.1751  0.1891
15698W        W16562  24.397  26.897   6.271 -0.1860 -0.0285 -0.1178
15699W        W16563  14.045  20.137  22.914  0.2359  0.0073  0.2829
15700W        W16564  25.981  29.022   7.781 -0.1289 -0.3083  0.0236
15701W        W16565   9.566  17.373   0.651 -0.0627  0.1987 -0.0146
15702W        W16566  19.855   3.119   9.855 -0.1366  0.1994  0.0520
15703W        W16567  17.707  20.550  12.848  0.1063  0.1440 -0.1114
15704W        W16568  22.119  11.539   5.182  0.1404  0.2000 -0.1999
15705W        W16569  21.086  16.837  21.490  0.2152 -0.0689 -0.0159
15706W        W16570   8.728   8.545  28.813  0.2043 -0.0247 -0.2500
15707W        W16571  19.088  24.333   4.702 -0.1771 -0.0210 -0.3628
15708W        W16572  11.952  15.674  28.611  0.0546  0.1045 -0.1218
15709W        W16573  23.282  13.581  13.423 -0.2134 -0.0448 -0.0686
15710W        W16574  13.697  14.599   5.653  0.2156 -0.1118 -0.1708
15711W        W16575  18.056  21.650  18.758  0.2463  0.0288 -0.0440
15712W        W16576  22.552  18.744  26.940  0.0811 -0.3806 -0.2143
15713W        W16577   6.917   2.558   2.331 -0.0500  0.1837  0.0483
15714W        W16578  11.273  16.958  13.032  0.1085  0.3587  0.0530
15715W        W16579  24.678  18.748   0.040  0.1058  0.0471  0.0186
15716W        W16580   1.852   2.401   3.133 -0.0514 -0.0467 -0.1590
15717W        W16581  28.095   6.553  12.629 -0.1250  0.0762 -0.2623
15718W        W16582  19.792  18.270   3.358  0.1830  0.1328  0.4358
15719W        W16583   9.613   1.397   5.968 -0.3231  0.0680  0.0812
15720W        W16584  16.290   1.917  10.547  0.0933 -0.2567 -0.0866
15721W        W16585  27.324   5.719  19.246 -0.1512 -0.0508  0.0450
15722W        W16586  21.108  13.854  12.425 -0.1745  0.2065 -0.1873
15723W        W16587  20.101  18.122  23.820 -0.2234  0.0935  0.0439
15724W        W16588   5.497  13.328  21.294  0.0456  0.0463  0.0079
15725W        W16589  12.515  10.977   1.374 -0.1098 -0.1608 -0.1487
15726W        W16590   8.243   3.664   2.480  0.4515 -0.1931  0.1521
15727W        W16591  15.522  21.471  10.413 -0.1698  0.0176 -0.0145
15728W        W16592  13.564  18.344   9.241 -0.0653  0.0410 -0.2993
15729W        W16593   4.187  17.768  27.636 -0.2196 -0.1446 -0.1883
15730W        W16594  22.061   8.623  25.304 -0.1230  0.1452 -0.0461
15731W        W16595  15.026  24.538   6.822 -0.0880 -0.0824  0.2704
15732W        W16596  13.806   3.851  21.006  0.0846  0.0708  0.2147
15733W        W16597  28.236  25.144   9.213 -0.2945  0.2938  0.0003
15734W        W16598  15.501  23.629   1.639 -0.1208 -0.0441  0.0591
15735W        W16599  11.766   7.394   9.609 -0.1726 -0.0822 -0.3310
15736W        W16600  11.106  18.415  28.663  0.1743  0.0173  0.0260
15737W        W16601  24.978  25.909   8.931  0.1404  0.1832  0.1327
15738W        W16602  19.463  20.867  13.410  0.2407 -0.0980 -0.0140
15739W        W16603   9.343  14.557   4.398 -0.0087 -0.0934  0.2936
15740W        W16604  11.709  13.299   0.299  0.4577 -0.2343  0.0801
15741W        W16605  22.296   9.595   3.007  0.1328  0.0189  0.0100
15742W        W16606   8.804  21.178  14.102  0.1707 -0.0437  0.1084
15743W        W16607   9.402  20.658   9.059  0.5185  0.0768 -0.1240
15744W        W16608  13.293  25.086  27.531  0.1936  0.1720 -0.0349
15745W        W16609  23.394  20.404  15.512  0.0669  0.2079 -0.0423
15746W        W16610  17.460   0.257   2.254  0.1992  0.1486 -0.0233
15747W        W16611   9.270  28.742  15.782 -0.1036  0.0917  0.1895
15748W        W16612  15.579   4.401  27.530  0.1334 -0.0400  0.1241
15749W        W16613  13.511  14.228  10.215  0.2631  0.1327 -0.1450
15750W        W16614  11.254   2.531   3.190 -0.0259  0.1248  0.3065
15751W        W16615  10.513  19.361  25.788 -0.0058 -0.3699 -0.0423
15752W        W16616  27.863   2.444  16.850  0.0429  0.3204 -0.0989
15753W        W16617  24.529   3.089  23.883 -0.0949  0.2236 -0.5211
15754W        W16618  15.737  13.390  24.667 -0.0519  0.1789  0.1732
15755W        W16619  25.226  13.841   5.229 -0.0680  0.0195  0.1014
15756W        W16620  22.104  29.082  10.674 -0.2580  0.4079 -0.0736
15757W        W16621  21.036  19.697   8.567  0.0851 -0.1231 -0.0993
15758W        W16622  13.820  21.166  20.600  0.0104  0.1276 -0.0632
15759W        W16623  22.826   5.051  11.163  0.0716  0.1345  0.2952
15760W        W16624   4.778  12.629   5.443  0.5387 -0.0167  0.1961
15761W        W16625  28.097   0.310  14.925 -0.0819  0.1415 -0.1846
15762W        W16626  19.173  14.067  15.520 -0.0452 -0.0048  0.0460
15763W        W16627  14.170  21.761   4.552 -0.2060 -0.0266 -0.0438
15764W        W16628  28.874  14.653  20.699  0.0868  0.0574  0.1684
15765W        W16629  10.847   2.360   5.322  0.0328  0.1827 -0.0472
15766W        W16630   6.192   5.318  26.765  0.0647  0.2421  0.0311
15767W        W16631  11.229  26.563  13.026  0.0542  0.0302 -0.0023
15768W        W16632   2.467   3.279  11.674 -0.1713  0.0884 -0.1059
15769W        W16633  12.689   1.654   5.906 -0.2162 -0.0625  0.1870
15770W        W16634   6.397   7.735   3.598 -0.2763 -0.0315 -0.2163
15771W        W16635   8.699  21.674   5.373  0.2260 -0.2183  0.1308
15772W        W16636  15.188   2.620  18.555 -0.2682 -0.1533 -0.2141
15773W        W16637  19.005   4.761  28.820  0.0143  0.0882  0.1665
15774W        W16638   9.978  13.251   9.815 -0.2230  0.1546  0.1898
15775W        W16639  10.002   8.805  27.631  0.1019  0.0091 -0.0978
15776W        W16640  14.471   7.867   8.821  0.0693 -0.0509 -0.0319
15777W        W16641  10.420  28.611  17.868 -0.0428 -0.0235  0.2417
15778W        W16642  28.825  19.596  28.005  0.4696 -0.0264  0.0187
15779W        W16643  20.343   0.711  15.952 -0.0981  0.0457 -0.2050
15780W        W16644  28.067  12.848  11.988 -0.1238 -0.2082  0.1166
15781W        W16645  22.772  20.237  17.945  0.0777 -0.0411  0.1108
15782W        W16646  19.657  28.079   3.003  0.1075 -0.0439  0.3359
15783W        W16647   9.485   6.767   7.351  0.1264  0.1699 -0.0343
15784W        W16648  16.327  26.427  25.007 -0.0208  0.0760 -0.1254
15785W        W16649  15.396  25.335  28.308 -0.0597  0.1601 -0.0266
15786W        W16650   8.932   6.118   2.398  0.3114  0.0239 -0.0612
15787W        W16651  20.065  20.492   6.114  0.1844 -0.1491 -0.1519
15788W        W16652   6.152  18.799   8.913  0.1687  0.1192 -0.2603
15789W        W16653  24.772  27.797   4.215 -0.1812  0.2015  0.3444
15790W        W16654  23.415  23.758   1.616 -0.0582 -0.1178 -0.0870
15791W        W16655   7.842   9.269   6.145  0.0432 -0.1891  0.2781
15792W        W16656  14.384  23.399   4.195 -0.2330  0.1888  0.3024
15793W        W16657   5.019  16.958  22.865  0.0465  0.0833 -0.2683
15794W        W16658   2.302  14.137   3.028 -0.1511 -0.1673 -0.2908
15795W        W16659  26.038  15.420   9.058 -0.2104 -0.1997 -0.1114
15796W        W16660  24.976  14.099  26.741 -0.2237  0.2694 -0.1813
15797W        W16661  24.756  24.164  14.661 -0.2788 -0.0499 -0.1171
15798W        W16662  18.758  14.633  27.689 -0.0683 -0.1190 -0.0695
15799W        W16663  14.740  10.942   4.737  0.1396  0.0989  0.1260
15800W        W16664  24.828  23.945  26.598 -0.1763 -0.1121 -0.2009
15801W        W16665  21.560   4.945   2.844  0.1053 -0.1066  0.0587
15802W        W16666  11.704   4.892  28.773 -0.2363  0.0628 -0.0055
15803W        W16667  18.697  12.298   1.134  0.3047 -0.0029  0.1457
15804W        W16668  24.551  18.742  20.678  0.0407 -0.0081  0.3330
15805W        W16669  17.786   7.632  22.029  0.0704 -0.1187  0.3054
15806W        W16670   9.013   1.763  16.309 -0.0087  0.0613 -0.0830
15807W        W16671  17.818  20.707  16.260 -0.2977 -0.0602 -0.1177
15808W        W16672  25.951  18.229  15.735 -0.1149  0.2534  0.0814
15809W        W16673  17.420  22.229  20.615 -0.1854 -0.3151 -0.0058
15810W        W16674   7.225   3.532  25.722 -0.0664 -0.0853  0.0633
15811W        W16675  17.871  25.828   4.171  0.2820 -0.1508 -0.3616
15812W        W16676  16.800  17.074  13.845  0.2634 -0.0987 -0.2390
15813W        W16677   6.705  20.855   4.779  0.0037  0.0865  0.0292
15814W        W16678  15.710  14.244  25.714 -0.4304  0.0216 -0.0942
15815W        W16679   0.077  20.852  27.420 -0.0135 -0.2079  0.0082
15816W        W16680  11.568  11.271  11.493  0.3908  0.0367 -0.1617
15817W        W16681   5.993  23.745  26.260  0.2135 -0.3402 -0.2325
15818W        W16682  10.353  11.215  26.387  0.3118 -0.0959  0.0766
15819W        W16683  20.286   1.274  11.911 -0.0091  0.1786 -0.1636
15820W        W16684   3.145  21.087  12.587  0.0550 -0.0977  0.0131
15821W        W16685   3.213  19.485  23.259 -0.3621 -0.3053  0.2223
15822W        W16686  20.091   0.610   7.643  0.1693  0.1195  0.1775
15823W        W16687  16.964  21.985  11.761 -0.3722  0.2508 -0.1617
15824W        W16688  28.574   4.916  12.004  0.1444  0.1053  0.1406
15825W        W16689   2.431  12.360   2.493 -0.2374  0.0952  0.0405
15826W        W16690  21.554   0.075  12.643 -0.0384 -0.1885  0.0717
15827W        W16691  15.418  27.561   8.327  0.1172 -0.0134  0.1026
15828W        W16692  19.814  25.699   8.237  0.0083 -0.0083 -0.0059
15829W        W16693   8.043  13.917   2.064 -0.0785 -0.0949  0.1616
15830W        W16694   6.712  10.244  22.973 -0.1213 -0.3993  0.0684
15831W        W16695   3.592  20.745   1.577  0.1450 -0.0469 -0.1523
15832W        W16696  12.211  28.289   6.489 -0.1140  0.0697  0.1212
15833W        W16697   9.220  10.490  27.904  0.0456  0.0283 -0.0987
15834W        W16698  23.606  14.237  14.638 -0.0706  0.0059  0.0576
15835W        W16699  17.281  17.407  11.983 -0.0730 -0.3050 -0.0440
15836W        W16700  19.324  19.169   3.590  0.0325 -0.0320 -0.0749
15837W        W16701  12.205  11.848   8.054 -0.0328  0.3437  0.0640
15838W        W16702  13.615  22.429  14.965  0.1083  0.1631 -0.0824
15839W        W16703  23.653   0.356   5.461 -0.0774  0.3450 -0.1544
15840W        W16704   9.096  17.718  19.026  0.0019 -0.2498 -0.0545
15841W        W16705  22.070  11.244  25.911  0.0355  0.0340 -0.0234
15842W        W16706  20.363  26.612   8.573 -0.4072 -0.2110 -0.3771
15843W        W16707  24.997   1.402  19.211  0.2429 -0.3115  0.0482
15844W        W16708  27.979   1.739  18.126 -0.1918 -0.0694  0.0870
15845W        W16709  18.211  16.492  17.726  0.1462 -0.1747  0.0437
15846W        W16710  24.439   8.681  21.428  0.2829 -0.2542 -0.2942
15847W        W16711  13.675   7.374   9.212 -0.0153 -0.0360 -0.1111
15848W        W16712   6.949  19.595   3.320  0.2763  0.2026  0.1006
15849W        W16713  16.869   7.463  18.332 -0.0232 -0.1963  0.1719
15850W        W16714  13.506  11.237  23.590 -0.0792  0.2345 -0.2910
15851W        W16715  18.798  15.211   6.278 -0.1099 -0.1018  0.4122
15852W        W16716  20.162   9.346  23.932 -0.0376 -0.0546  0.0717
15853W        W16717  17.404  24.020   9.732 -0.1910 -0.0149  0.0059
15854W        W16718  15.573   1.760   5.810  0.0462  0.3599  0.2126
15855W        W16719  16.224  25.915  27.844 -0.0154  0.1291 -0.2692
15856W        W16720   8.054  28.854   3.629  0.0628  0.2080 -0.2290
15857W        W16721  20.858  12.226  14.496  0.1403 -0.2062  0.1245
15858W        W16722  20.919   7.566  10.394 -0.2201 -0.1152 -0.1057
15859W        W16723  22.175   8.193   3.758 -0.1030 -0.1413 -0.0985
15860W        W16724  10.253  20.903  24.620 -0.4012  0.2087 -0.1124
15861W        W16725  15.536  22.434   8.026 -0.1054  0.1048 -0.0272
15862W        W16726  14.137  23.771   4.631  0.2890 -0.1132 -0.0394
15863W        W16727  27.610   8.244  14.280  0.6681  0.0136 -0.0710
15864W        W16728  14.035  15.218  27.510 -0.0659 -0.2641 -0.1839
15865W        W16729  11.253   5.724   2.511  0.1814  0.0858  0.0349
15866W        W16730  24.375  19.576   0.866  0.1270  0.0744  0.0543
15867W        W16731  13.366  25.877   4.755 -0.1460 -0.1095 -0.4122
15868W        W16732  10.885  19.823   6.568  0.1194  0.2155  0.1732
15869W        W16733  22.523  15.887  29.047 -0.1646  0.3305  0.2469
15870W        W16734  13.280   2.895  28.458 -0.1634  0.0692  0.1673
15871W        W16735   6.606   3.179  25.599  0.0479 -0.1522  0.2923
15872W        W16736   6.367   3.759  12.637 -0.1737 -0.1007 -0.0776
15873W        W16737  11.258  17.617   9.122  0.0670 -0.0420  0.0795
15874W        W16738  17.750  12.726   0.828 -0.3508 -0.1217 -0.2242
15875W        W16739  10.202  19.380  19.670 -0.1092 -0.0657 -0.0105
15876W        W16740  20.957   1.421  20.966 -0.0414 -0.1158  0.0842
15877W        W16741   4.188  17.266  15.838 -0.1049 -0.1120 -0.0844
15878W        W16742  26.571   8.514   6.049 -0.0108  0.0497 -0.1408
15879W        W16743  13.090  24.345  27.144  0.1191  0.0702  0.0827
15880W        W16744  23.952  14.535   3.521 -0.0975 -0.3171  0.0689
15881W        W16745  21.081   7.930  25.316  0.1110 -0.0443 -0.0779
15882W        W16746   7.479  24.961  23.948  0.0518  0.0996 -0.0607
15883W        W16747  22.239   4.281  10.348  0.2665  0.1038 -0.1017
15884W        W16748  18.477  10.959   2.373 -0.1473 -0.1048  0.1437
15885W        W16749  10.306  26.964  24.341  0.1280 -0.3337 -0.0834
15886W        W16750  19.356   5.517  27.312  0.0879  0.2504 -0.1302
15887W        W16751   0.388  25.627   8.216  0.2086 -0.0953 -0.0494
15888W        W16752  18.534  28.304  22.080  0.2549 -0.4553  0.2408
15889W        W16753  16.438  22.094   0.449  0.4235  0.1338  0.1632
15890W        W16754  14.731  23.097   5.977 -0.1322 -0.0800 -0.3103
15891W        W16755  17.333  14.126   0.168 -0.0176 -0.0872 -0.0615
15892W        W16756  16.641   5.205  14.991 -0.0425 -0.0775  0.0868
15893W        W16757  24.041  20.138   1.986  0.3198 -0.0077  0.1119
15894W        W16758  11.433  20.758   8.660 -0.0099 -0.0932  0.0100
15895W        W16759  20.760  13.896   5.310  0.1891 -0.2546  0.2644
15896W        W16760  20.092  10.529  21.086  0.1263 -0.1551 -0.2159
15897W        W16761  11.720  22.288   5.679 -0.0971  0.2842  0.0202
15898W        W16762  24.989  14.587  26.235 -0.0926 -0.0088  0.0775
15899W        W16763  11.191   5.840  22.086 -0.0946 -0.0900  0.0328
15900W        W16764  25.950  21.330  27.978 -0.3823  0.2420 -0.1753
15901W        W16765  12.583  12.061   3.644  0.2502  0.0258  0.1910
15902W        W16766  23.466  24.556   2.225  0.1044  0.1663 -0.0921
15903W        W16767   1.439  20.713  18.695  0.1192 -0.1218  0.1359
15904W        W16768  11.287  28.622  26.523 -0.2830 -0.0249 -0.1055
15905W        W16769   9.897  13.582  12.584  0.0466 -0.2423  0.0435
15906W        W16770   9.177  11.066  19.148  0.0199  0.1514  0.0822
15907W        W16771  23.459  14.957   2.985  0.1786  0.0743  0.0985
15908W        W16772  10.367  21.174  19.392 -0.0962  0.0462  0.1464
15909W        W16773  11.194  20.228   6.605 -0.0865 -0.0107  0.0493
15910W        W16774  17.732  16.214  20.981 -0.1571 -0.0730  0.4027
15911W        W16775   4.863   4.262  27.886  0.1385 -0.2933  0.0414
15912W        W16776  14.259  20.862  19.824 -0.0287 -0.0374 -0.1417
15913W        W16777  19.352  20.749   5.648  0.0382  0.4247 -0.1948
15914W        W16778   0.362  11.652  19.463  0.2399  0.2081 -0.0068
15915W        W16779  14.404  21.112  28.979  0.2786 -0.1351 -0.1307
15916W        W16780  14.320  13.929  16.268  0.0506  0.0147 -0.0376
15917W        W16781   9.703  15.976  20.628 -0.2480  0.0222 -0.2314
15918W        W16782   1.170  14.213  26.171 -0.1328  0.1660 -0.0023
15919W        W16783  27.084  21.868  17.729 -0.0824 -0.0062 -0.1322
15920W        W16784  28.355  24.226   5.898 -0.0825  0.0397 -0.0692
15921W        W16785  25.277   6.329   8.674  0.1319  0.1768  0.3814
15922W        W16786  22.257  16.096  11.604 -0.3663  0.0649  0.4749
15923W        W16787   7.999   9.151   1.602 -0.0911 -0.0657  0.2325
15924W        W16788  15.718  14.782  24.799 -0.0085 -0.0593  0.0402
15925W        W16789  23.332   8.490  22.269 -0.0512  0.1083  0.2402
15926W        W16790  17.059  27.718   0.693  0.0590 -0.0661 -0.0063
15927W        W16791  21.587   5.551  12.076 -0.0956 -0.3167  0.0678
15928W        W16792   5.300  10.229  11.208 -0.1937  0.0185 -0.0970
15929W        W16793  10.142  16.309  12.598  0.1712  0.0542 -0.1185
15930W        W16794  17.176   6.564  25.235 -0.0354  0.1760 -0.0526
15931W        W16795  18.401  17.905  22.454  0.0230  0.0024  0.0916
15932W        W16796  12.101  17.376  20.858  0.1712  0.5540 -0.1201
15933W        W16797  18.016  20.039   1.822 -0.4204 -0.0079  0.2299
15934W        W16798  10.687  15.087  21.667  0.0169 -0.0815  0.1044
15935W        W16799  24.496  14.006  14.922  0.0562  0.0072  0.1151
15936W        W16800  19.531  21.835  18.635  0.2485  0.1318  0.3402
15937W        W16801  18.671  20.540  15.273 -0.3813 -0.3218 -0.1145
15938W        W16802  17.277  20.691  12.459  0.0461 -0.0140 -0.0153
15939W        W16803  17.904  10.838   1.710  0.2569 -0.0277 -0.2594
15940W        W16804   8.972  21.769   8.883  0.4451  0.1842  0.1357
15941W        W16805   9.191  15.807  10.005  0.0867 -0.1377  0.1425
15942W        W16806  11.164   2.865   9.254 -0.0011 -0.0498 -0.1409
15943W        W16807   5.968  16.358  19.285  0.2110  0.0439  0.1218
15944W        W16808  18.384  26.689  14.902  0.0235  0.0732 -0.1481
15945W        W16809  16.785  24.305  25.810  0.2424 -0.0132  0.0846
15946W        W16810   8.974   1.224   2.542  0.0083 -0.3140  0.0412
15947W        W16811  14.164   1.531   7.368 -0.1811 -0.1885  0.3252
15948W        W16812  27.899  17.930  23.389  0.1290  0.0447  0.0069
15949W        W16813  23.491  20.523  28.628 -0.0847 -0.0190 -0.1499
15950W        W16814  11.025   1.360  29.001 -0.0200 -0.3356  0.0928
15951W        W16815   0.411  23.659   5.060  0.0342  0.1214 -0.1920
15952W        W16816  27.170  23.456  20.707  0.3838 -0.1033 -0.0192
15953W        W16817  18.209  27.660   7.827  0.0732  0.0543 -0.2997
15954W        W16818  18.977  14.125  10.996 -0.0137 -0.1513 -0.0284
15955W        W16819  28.130  27.809  20.264  0.0253 -0.0002  0.3333
15956W        W16820   5.037  16.726   0.564 -0.1446  0.0993  0.0948
15957W        W16821   0.021   8.610  16.666 -0.1163  0.2154 -0.1636
15958W        W16822   9.947  14.806  23.204 -0.0736 -0.1497 -0.0177
15959W        W16823   9.525   6.446  26.889  0.1853 -0.2357  0.2826
15960W        W16824   8.663   6.033  28.257  0.2110 -0.0085 -0.0320
15961W        W16825   2.038  24.310  22.456  0.3576 -0.0903  0.1751
15962W        W16826  24.696  23.331  28.980 -0.2064  0.1268  0.0009
15963W        W16827  25.519  11.462   8.436 -0.2028  0.0988  0.0581
15964W        W16828  15.426   2.970  23.679  0.2486  0.0102 -0.1196
15965W        W16829  11.623  11.740  12.259  0.1421  0.2426  0.0173
15966W        W16830  16.001   9.033  21.994  0.2006  0.1291  0.0259
15967W        W16831   6.507  25.082  18.443 -0.4344 -0.0755 -0.0565
15968W        W16832  17.228  25.481   9.865  0.1198 -0.1795 -0.1745
15969W        W16833   4.096  21.157  16.530 -0.0714  0.0813 -0.0590
15970W        W16834  25.392  25.973   6.722  0.1206  0.1671  0.1156
15971W        W16835  10.957  26.611  16.450  0.2374 -0.1058 -0.0316
15972W        W16836  10.012   5.871  27.608  0.1147 -0.2755 -0.1826
15973W        W16837  17.640  15.389   2.107 -0.0887  0.0361  0.0138
15974W        W16838  26.346  20.560  23.227 -0.0236  0.1138 -0.0987
15975W        W16839  11.221  17.000  10.333 -0.0241 -0.2171  0.0372
15976W        W16840  18.422  21.450  14.057 -0.2818 -0.0239  0.0762
15977W        W16841  20.604  15.389   1.097 -0.1380  0.0945 -0.0296
15978W        W16842  25.875  12.671   1.410 -0.0637 -0.2415  0.3976
15979W        W16843  11.195  14.438  13.558 -0.1362  0.3175  0.0136
15980W        W16844  12.207  15.792   0.238  0.0789 -0.0836 -0.0393
15981W        W16845  17.356  10.058  17.859 -0.2044 -0.3455 -0.2085
15982W        W16846  14.231  16.957  27.312 -0.0681 -0.0152  0.1225
15983W        W16847   4.795   3.028   6.751  0.1524 -0.1248  0.0323
15984W        W16848  26.804   7.881  24.009 -0.0651 -0.2139  0.2153
15985W        W16849  12.916  27.719  23.987 -0.2236  0.0127 -0.0151
15986W        W16850   4.320   9.719  25.849  0.0754  0.2669  0.1779
15987W        W16851  11.712  20.916  10.752 -0.0138  0.2685 -0.1783
15988W        W16852  16.983   9.749  10.156  0.0217 -0.0515 -0.0206
15989W        W16853  22.727  18.967  28.333 -0.0405  0.0199 -0.4157
15990W        W16854  15.441  13.277   9.006 -0.2457  0.0877 -0.4046
15991W        W16855  18.247  14.781   2.074  0.1549 -0.1513  0.4193
15992W        W16856   5.948   9.463  17.444  0.2896 -0.4285 -0.1388
15993W        W16857  18.770  27.234  24.699  0.0955 -0.1757 -0.0996
15994W        W16858  15.693  17.357   7.654 -0.1608 -0.3585  0.1142
15995W        W16859  12.413  22.492   8.378 -0.2983 -0.2965 -0.1097
15996W        W16860   0.622  25.146  18.336 -0.1266 -0.2354 -0.2420
15997W        W16861  18.507  16.316  14.710  0.1539 -0.0709  0.2035
15998W        W16862  20.234  14.033  18.532  0.1896  0.0423 -0.1545
15999W        W16863   8.770  22.395  12.092 -0.0106  0.0881  0.0324
16000W        W16864  17.560   0.511   3.432 -0.2435  0.1620  0.3534
16001W        W16865  18.367  23.375   3.163  0.0163  0.2038  0.0321
16002W        W16866  24.932  27.260  19.457 -0.2508 -0.1361  0.3807
16003W        W16867  13.839   1.469   8.568 -0.0255 -0.1582  0.0395
16004W        W16868  17.799  18.737  22.559  0.0281 -0.2205  0.2508
16005W        W16869  20.519   5.673   5.909 -0.1794  0.3805 -0.2122
16006W        W16870   2.407  16.158  18.123 -0.0643  0.0294  0.0617
16007W        W16871  15.415  28.833   5.755  0.2056  0.2202  0.0311
16008W        W16872  12.101  21.235   0.508 -0.2830  0.1529  0.1442
16009W        W16873  26.185  22.896  28.906  0.1294  0.2227  0.0097
16010W        W16874  27.588   0.090  11.325  0.0943  0.1403 -0.0903
16011W        W16875  14.449  14.830  27.538  0.0340 -0.0973  0.2279
16012W        W16876   7.141  20.645  12.922 -0.1057  0.1711  0.1966
16013W        W16877  26.693  16.499  19.650  0.1010 -0.1588  0.2727
16014W        W16878   4.094  12.279  25.385  0.0390 -0.1062  0.2390
16015W        W16879  12.361   4.953   9.462 -0.5600  0.1752 -0.2285
16016W        W16880  21.932  16.194   0.803 -0.0159  0.0223 -0.0792
16017W        W16881   7.708  14.679  13.461  0.2056 -0.0390  0.0692
16018W        W16882  20.044  19.963  12.007 -0.0834 -0.3018  0.0425
16019W        W16883  13.887   5.776  12.107 -0.1293  0.0040  0.0093
16020W        W16884  12.636  18.468  28.434  0.3632 -0.0562  0.1623
16021W        W16885  18.499  22.665  23.053 -0.2546 -0.2815 -0.0938
16022W        W16886   5.127  14.955  15.368  0.0166  0.1344  0.1267
16023W        W16887  21.269  25.430  13.651 -0.2555 -0.2786  0.2064
16024W        W16888  29.128   4.056  13.354 -0.1248 -0.1484 -0.1799
16025W        W16889  11.952  20.929  28.144 -0.0583 -0.1101 -0.3060
16026W        W16890   8.451  16.244   9.254  0.0647 -0.1018 -0.0695
16027W        W16891  24.272  18.088   9.465 -0.1804  0.0601 -0.1174
16028W        W16892  16.008  13.937  25.113  0.1053  0.3147 -0.1669
16029W        W16893   1.622   7.468  24.208  0.1466 -0.0337 -0.0031
16030W        W16894  13.039   9.171  15.626 -0.2541  0.0135 -0.0919
16031W        W16895   1.364  23.279   3.550  0.0280  0.0576  0.1602
16032W        W16896  17.823  26.064  24.760  0.0261  0.0193  0.2776
16033W        W16897  15.956  20.374   7.473  0.0025 -0.0025 -0.2797
16034W        W16898  28.164  22.840   5.918  0.1379 -0.4156 -0.0903
16035W        W16899  17.326  28.971  14.690 -0.0229 -0.0220 -0.1897
16036W        W16900   7.744  26.685   3.793 -0.0127 -0.1775 -0.2503
16037W        W16901  20.970  27.331  19.648  0.0692  0.1741 -0.0111
16038W        W16902  12.225   8.705  19.475 -0.0151 -0.2567  0.0952
16039W        W16903   5.032   1.068   2.469  0.1595 -0.2120 -0.2018
16040W        W16904  26.197  23.029  20.757  0.1621 -0.1429 -0.1528
16041W        W16905  11.013  15.009  27.122  0.0554  0.2391 -0.0002
16042W        W16906  20.460  13.462  25.040 -0.1880  0.1661  0.0466
16043W        W16907  28.855  23.065  25.581  0.2090  0.0495  0.2370
16044W        W16908  10.241   8.862  22.909 -0.2802 -0.0681  0.0650
16045W        W16909  26.498   6.100   6.371 -0.0728  0.0239  0.0945
16046W        W16910  14.611   9.770   7.233  0.0494  0.0921 -0.0994
16047W        W16911  15.121  21.007  27.266  0.1599  0.1492 -0.0127
16048W        W16912  13.285  19.055   3.599  0.1487  0.2011 -0.2523
16049W        W16913   3.859  14.984  20.395  0.0583  0.1958  0.0261
16050W        W16914  25.155  20.136  22.700 -0.1473  0.1001 -0.0089
16051W        W16915  25.620  13.639  15.738 -0.0090 -0.1737  0.0977
16052W        W16916  18.551  20.058  16.463  0.1821  0.1735  0.1485
16053W        W16917   1.752  18.900  16.616  0.0131 -0.1630 -0.4542
16054W        W16918   8.567  24.374  28.952  0.1538 -0.4645  0.0001
16055W        W16919  15.872  14.968  21.557 -0.1135 -0.0946 -0.1672
16056W        W16920  14.290  25.903  19.782  0.0673  0.1008 -0.2823
16057W        W16921  20.415  11.786   7.656 -0.0601  0.0845  0.5023
16058W        W16922   4.872  14.197   4.290 -0.1484  0.0382  0.0110
16059W        W16923  22.840  10.142   4.400 -0.1558 -0.0287  0.0166
16060W        W16924   7.179  13.372   4.984 -0.2089 -0.2686 -0.0068
16061W        W16925  14.995   8.655   4.368 -0.3070  0.1514 -0.3977
16062W        W16926  17.867  15.462  24.251 -0.1790 -0.0930  0.0369
16063W        W16927  29.046  12.762   4.933  0.0397  0.2244 -0.0696
16064W        W16928  17.030  16.013   1.910  0.0034  0.0118 -0.0394
16065W        W16929   3.164  25.893   3.329  0.3815 -0.0352 -0.0762
16066W        W16930  26.092   0.378  12.640  0.0488  0.0380  0.1040
16067W        W16931  16.453  27.246   6.180 -0.0697  0.0146 -0.0118
16068W        W16932  15.363   9.284  19.912  0.3748 -0.0029  0.0103
16069W        W16933   9.157   7.910  24.017 -0.1962 -0.1117 -0.0683
16070W        W16934   5.741  17.629  10.756 -0.0331  0.1134  0.0353
16071W        W16935  10.076   9.632  14.928 -0.2454  0.0806  0.0012
16072W        W16936  14.166  27.240   8.618 -0.1132 -0.2582 -0.0214
16073W        W16937   5.978   9.390   8.370 -0.0458  0.2572  0.1282
16074W        W16938   9.713  13.173  12.300  0.2431  0.1466  0.1510
16075W        W16939   0.215  20.107   5.772 -0.0413 -0.3103  0.0572
16076W        W16940  17.453   9.562  14.387 -0.1197 -0.1770  0.0114
16077W        W16941  10.894   8.280  22.522 -0.0388 -0.0810  0.3010
16078W        W16942   0.101  23.037   4.912  0.3316 -0.1671  0.2102
16079W        W16943   8.404  21.646  22.304  0.1823  0.0111  0.1310
16080W        W16944  14.860   3.375  26.678  0.1176 -0.0074  0.0264
16081W        W16945   6.113  26.852  13.331  0.0112 -0.0013  0.0669
16082W        W16946   8.784  16.478   6.406 -0.1404  0.0775  0.1746
16083W        W16947  25.608   1.783   9.555 -0.0028  0.1209 -0.1703
16084W        W16948  11.422  13.831   8.357 -0.0533 -0.0899 -0.0119
16085W        W16949  11.676  10.473  14.815 -0.1283  0.3354  0.0381
16086W        W16950   0.547   9.506   6.883 -0.0736  0.0554  0.2336
16087W        W16951  27.165  26.039   3.161  0.1469 -0.1204  0.1401
16088W        W16952   1.002  22.727  10.361  0.0054  0.2109  0.0101
16089W        W16953  11.670  24.146   6.031  0.2439  0.0377 -0.0907
16090W        W16954  19.656  17.222   5.165  0.2887  0.0121  0.4117
16091W        W16955   9.420  17.237  21.516 -0.2199 -0.1888 -0.0038
16092W        W16956  26.449  11.296  26.670 -0.0782 -0.1441 -0.2884
16093W        W16957  20.038  22.285  11.576 -0.1806 -0.2414 -0.3084
16094W        W16958  11.060  13.406  19.478  0.2857 -0.0792  0.0188
16095W        W16959  14.661  10.693  21.507 -0.2024  0.1225 -0.0535
16096W        W16960  14.767   7.352   4.721 -0.0542 -0.4152  0.2225
16097W        W16961  29.022   5.363  18.209 -0.3540 -0.1791 -0.1863
16098W        W16962   7.570   1.905  21.305 -0.0630 -0.1534 -0.0335
16099W        W16963   2.311  20.026  10.415 -0.2282 -0.4345 -0.0125
16100W        W16964  15.215  28.244  17.306  0.0534 -0.0697  0.1251
16101W        W16965   0.632  21.430   9.769  0.1621 -0.0442  0.1095
16102W        W16966   9.176  20.374   5.451  0.0020  0.2903 -0.2133
16103W        W16967   7.845  28.343  12.665 -0.0642  0.0865  0.3039
16104W        W16968  21.311  18.133  19.489  0.2203  0.0690  0.0248
16105W        W16969  15.752  20.094  16.917  0.1836  0.0139  0.0592
16106W        W16970  26.052  24.574  11.665  0.0677  0.0914 -0.0094
16107W        W16971   2.156  11.863   5.657  0.1291  0.3195 -0.0931
16108W        W16972  13.856  20.147  12.446 -0.2298  0.1027  0.0153
16109W        W16973  13.226  26.038  15.221 -0.2362 -0.0742  0.1060
16110W        W16974  20.261   3.570  12.268  0.1563  0.1557  0.2416
16111W        W16975  22.860   6.095   7.113  0.0154  0.1900  0.1699
16112W        W16976  22.663  20.289  21.682  0.0015 -0.0395 -0.1088
16113W        W16977   7.882   6.610   6.367 -0.0422 -0.0907 -0.2686
16114W        W16978   1.188  25.313  14.120  0.0712 -0.0934 -0.2628
16115W        W16979  21.385  28.111   4.822 -0.1168  0.0687  0.0038
16116W        W16980  13.167  12.830   6.761  0.0088 -0.0052  0.2869
16117W        W16981  12.506   0.944  27.083  0.1516  0.1601 -0.1599
16118W        W16982  11.698   2.180  14.714 -0.3120  0.0891  0.0917
16119W        W16983  15.035  15.821  26.159 -0.0075  0.0639  0.1492
16120W        W16984  14.295  21.036  11.066 -0.0398  0.0501  0.0581
16121W        W16985  14.852   0.388  21.912 -0.2525  0.1935  0.0909
16122W        W16986  14.871   3.360  13.928 -0.1806 -0.0306  0.3963
16123W        W16987  20.764   9.005  23.607  0.1249 -0.0695 -0.3092
16124W        W16988  18.962  16.897  10.338 -0.0855  0.4262  0.0056
16125W        W16989   0.700   8.712   8.039  0.0669  0.0240  0.3846
16126W        W16990  21.343  16.027  18.793 -0.0734  0.0540  0.1178
16127W        W16991   1.391  25.412  28.406 -0.1931 -0.0079 -0.2209
16128W        W16992  26.578   3.063   5.989 -0.1790 -0.0515  0.3242
16129W        W16993   6.956  26.262   7.210  0.5016 -0.2316  0.1875
16130W        W16994   3.500   8.462  12.515 -0.0559 -0.0494  0.1088
16131W        W16995   0.448  15.358  26.678 -0.2613  0.0097 -0.1640
16132W        W16996  11.631  20.230  27.089 -0.2465 -0.0211 -0.0744
16133W        W16997   6.789  20.512  19.699 -0.3164  0.1939 -0.0119
16134W        W16998  13.636   9.741  17.401  0.0520 -0.0752 -0.4580
16135W        W16999   5.179  28.038   5.963  0.0952  0.0145 -0.0192
16136W        W17000  22.429  22.408   7.548  0.0632 -0.2439  0.1960
16137W        W17001  20.975  21.820   5.032  0.0887 -0.2670 -0.1785
16138W        W17002   1.430  10.434   9.377  0.1672  0.0929  0.4288
16139W        W17003  17.635   5.576  24.141 -0.2327 -0.1009 -0.1585
16140W        W17004  20.689   0.249   4.529 -0.1252  0.3795  0.2965
16141W        W17005  10.869  22.305  12.755  0.2172  0.1641 -0.2639
16142W        W17006  27.402  17.664  26.415  0.1227 -0.0731  0.0723
16143W        W17007   7.831  13.121   7.139 -0.0809  0.1323  0.0109
16144W        W17008  14.390   9.242  12.083 -0.1319  0.1783 -0.3215
16145W        W17009  12.319  26.648   2.594  0.1353 -0.1124  0.0939
16146W        W17010   4.744  18.336   1.648  0.2177 -0.2270 -0.1106
16147W        W17011  17.963  10.004   2.477  0.1260  0.0749 -0.0351
16148W        W17012   8.849   1.650  17.699  0.0587  0.1887 -0.1583
16149W        W17013  28.076   1.267  11.984  0.1127 -0.1012 -0.2422
16150W        W17014  17.933  21.069  28.879 -0.3228 -0.0789 -0.1984
16151W        W17015   4.073   8.518  25.857  0.1372  0.1473  0.0594
16152W        W17016  24.324  18.196  26.022 -0.4615  0.3322  0.1611
16153W        W17017  16.244  18.658  19.881 -0.0454  0.0252 -0.1587
16154W        W17018  18.061   8.606   2.233 -0.0284  0.3817  0.1169
16155W        W17019  20.713   4.646   4.130  0.1179 -0.0509  0.0497
16156W        W17020  13.752  14.490   8.750  0.0499  0.0004  0.2155
16157W        W17021  19.738  16.919  20.224 -0.1223  0.0444 -0.0768
16158W        W17022  16.777   9.474   7.772 -0.3657 -0.1812  0.0465
16159W        W17023  25.716  20.165  24.166  0.2083  0.2126  0.0251
16160W        W17024  25.542  23.618   2.576 -0.1008  0.1680 -0.0342
16161W        W17025  28.331  22.305  11.633  0.0520  0.0924  0.2626
16162W        W17026  19.801   1.928   9.351  0.3635  0.3046 -0.2900
16163W        W17027  21.873  18.695  22.207  0.2814 -0.1705  0.1006
16164W        W17028  12.272  22.397  14.591  0.2238  0.0929 -0.2868
16165W        W17029  19.199  18.167  21.434 -0.0347  0.0677  0.0841
16166W        W17030  13.467  25.693  25.091  0.0504  0.0873 -0.0932
16167W        W17031   8.607   4.542  18.425 -0.1670 -0.0713  0.1822
16168W        W17032  13.370  22.818  10.390 -0.2925  0.1684  0.0462
16169W        W17033  28.822  28.643  17.802  0.0791 -0.1924  0.1162
16170W        W17034  18.158  20.257  24.898 -0.0910 -0.2360  0.0406
16171W        W17035   1.099  16.858  13.703  0.0614  0.1839  0.0043
16172W        W17036  23.671  14.104   7.311  0.0127 -0.1492  0.3944
16173W        W17037   5.370  16.916  26.762  0.2568 -0.0363 -0.0926
16174W        W17038  17.909  13.283   4.591 -0.3127 -0.2153 -0.1441
16175W        W17039  13.358  20.097  10.438  0.0065  0.0952  0.0759
16176W        W17040  17.806   1.000  20.165  0.3696 -0.2672 -0.0477
16177W        W17041   8.822  14.186  24.861  0.3135  0.0410 -0.1563
16178W        W17042  12.167  23.714   8.566 -0.1953 -0.2349  0.2329
16179W        W17043  22.685   4.253  10.661 -0.1197 -0.0337 -0.0448
16180W        W17044  20.892  14.909  20.285 -0.1450 -0.1105  0.0283
16181W        W17045  16.872  24.818  27.568  0.3209  0.0006  0.0982
16182W        W17046  14.620  23.356  24.588  0.0487 -0.1730  0.0699
16183W        W17047  27.130   4.011  26.281  0.0246  0.1786  0.0557
16184W        W17048  20.930  11.506   7.005  0.0144  0.2061  0.0486
16185W        W17049  11.188  11.373  28.017 -0.1591  0.1885  0.1556
16186W        W17050  12.972  23.135   8.564 -0.4319  0.3545 -0.1984
16187W        W17051  19.590  25.022  26.071  0.4061  0.1653 -0.0316
16188W        W17052   5.779  25.849   6.655  0.4703  0.2547  0.0560
16189W        W17053  14.794  14.745   3.485  0.0395 -0.1848  0.0545
16190W        W17054   7.931  13.291  25.186 -0.0506  0.0169  0.4077
16191W        W17055   5.543   4.869  14.059 -0.4201  0.1342  0.3227
16192W        W17056  10.705  14.048  29.122  0.1388  0.2323  0.0952
16193W        W17057   3.195  26.759  26.261  0.0186 -0.1723 -0.0385
16194W        W17058   8.337  25.586  23.200 -0.1424  0.1489 -0.3245
16195W        W17059  15.786  15.267  23.475 -0.1650 -0.0853  0.3430
16196W        W17060  10.438   7.682  28.092 -0.0147  0.1599  0.0172
16197W        W17061  27.707   8.161  20.178 -0.2264 -0.1866 -0.1609
16198W        W17062  21.634  21.008  23.360 -0.0826 -0.3794 -0.2140
16199W        W17063  16.602  12.721  10.829  0.1596 -0.0219 -0.1772
16200W        W17064  21.049  22.459  11.150  0.1634  0.1417 -0.2084
16201W        W17065  14.825  28.533   5.006 -0.5080  0.0798 -0.1814
16202W        W17066  14.404  17.057   5.501  0.0841 -0.0638 -0.3683
16203W        W17067   5.854  21.843  14.982  0.1740  0.1204  0.0077
16204W        W17068  10.593  27.525   9.866  0.3537  0.1439  0.0415
16205W        W17069  11.578   8.263  15.641  0.2579  0.0111  0.1669
16206W        W17070   2.737   2.492   3.031 -0.0738  0.0153  0.2858
16207W        W17071   6.592  14.641   8.800  0.0045  0.1281 -0.1163
16208W        W17072  23.685  10.475   9.220  0.2301 -0.0663 -0.0797
16209W        W17073   0.123  19.062  15.729  0.1642  0.1757  0.2668
16210W        W17074   4.366   9.745   6.198  0.0128 -0.0091  0.2734
16211W        W17075   6.960  20.501   0.935  0.2094 -0.2615  0.1891
16212W        W17076  19.240   5.366  24.042  0.1443  0.2341 -0.1124
16213W        W17077   0.257  18.532  11.169 -0.1248 -0.3445 -0.0609
16214W        W17078  27.029   9.042  14.936  0.0991 -0.2249  0.0105
16215W        W17079  21.542  26.189  14.941 -0.0505  0.1353 -0.2164
16216W        W17080   3.523  19.015  20.986 -0.1749  0.0501  0.3242
16217W        W17081  15.166  15.588   2.329 -0.4274 -0.0159  0.0240
16218W        W17082  17.979  26.679  25.612  0.2063 -0.1886  0.0127
16219W        W17083  15.457  15.499   8.019 -0.0782  0.0568  0.5141
16220W        W17084  13.565  19.458   4.865  0.0787 -0.2929  0.0989
16221W        W17085   8.720  15.172   5.380  0.3259 -0.0755 -0.1395
16222W        W17086  22.234  15.515  19.823 -0.1672  0.0067 -0.4220
16223W        W17087   8.138  15.336  15.517  0.0466  0.0514 -0.0272
16224W        W17088  18.307  16.487  15.683  0.1546  0.0636  0.1424
16225W        W17089   1.837  23.225   9.954  0.0473 -0.2787  0.1098
16226W        W17090  18.529   2.046   8.333  0.3714 -0.3123 -0.3679
16227W        W17091  19.357  17.051  15.989  0.2172 -0.2165 -0.2416
16228W        W17092  18.525  16.652   5.388 -0.0377  0.1353  0.0255
16229W        W17093  22.511   6.989  13.202  0.0262  0.1701  0.2765
16230W        W17094   8.931  11.181  22.729  0.2347  0.0473  0.0223
16231W        W17095  12.533   5.583  10.875  0.0549  0.0490 -0.4921
16232W        W17096  15.679   9.597   5.735  0.2382  0.2656  0.0402
16233W        W17097  27.144  11.652  10.043 -0.0149  0.0081  0.1463
16234W        W17098   9.700  10.446  23.074 -0.1074  0.1500  0.0960
16235W        W17099   0.579  22.063  12.988  0.0087  0.0126 -0.2554
16236W        W17100  12.588  26.771  16.537  0.2482 -0.2580  0.1121
16237W        W17101  11.312   1.808  15.652  0.1920  0.3293 -0.2007
16238W        W17102  24.293  11.364  16.800 -0.3322 -0.2634  0.1346
16239W        W17103  19.769  18.219   6.177 -0.1806  0.2821 -0.0446
16240W        W17104  27.141   7.444  12.959 -0.2149  0.0117  0.1342
16241W        W17105  13.894  22.308  11.667  0.3544  0.2217  0.1277
16242W        W17106  20.997  13.540  26.576  0.2819  0.1673 -0.3397
16243W        W17107  16.393   1.500  22.718 -0.3103 -0.0632 -0.0989
16244W        W17108  14.106  14.808  28.471 -0.0422  0.1980 -0.1901
16245W        W17109  14.779  13.060   6.102 -0.3061  0.0426 -0.0047
16246W        W17110  27.276  14.778   5.114  0.2702 -0.3021 -0.0110
16247W        W17111   5.207  26.314  26.157  0.1085  0.0554  0.1403
16248W        W17112   3.618  21.024   1.160  0.1005  0.0479 -0.0330
16249W        W17113   9.039  16.453  27.120 -0.0014 -0.0869 -0.0353
16250W        W17114  20.939   8.922  26.275  0.0037 -0.0828 -0.2245
16251W        W17115  22.957  15.823   1.917 -0.1869  0.0355  0.1118
16252W        W17116   2.190  18.249   6.844  0.2328 -0.1104  0.1354
16253W        W17117   4.758  25.259  19.477  0.1932 -0.1888 -0.0584
16254W        W17118  15.038   2.733  26.030 -0.3308  0.0736  0.1272
16255W        W17119  26.015  12.044  12.698  0.0563  0.2779 -0.0947
16256W        W17120  24.728  13.983  19.894 -0.0458  0.0259  0.0213
16257W        W17121   3.044  26.561   1.706  0.0932 -0.0229 -0.0299
16258W        W17122  23.603  18.446   0.382  0.1272 -0.2341  0.1034
16259W        W17123   7.082  23.051  14.618 -0.1311 -0.1847 -0.3138
16260W        W17124  18.186  16.479   9.046  0.4677 -0.1697 -0.2430
16261W        W17125  18.791  22.401  13.992  0.0702  0.1470 -0.1542
16262W        W17126  16.348   8.055  15.455  0.1588 -0.2137  0.0068
16263W        W17127   6.200  21.698  24.825 -0.1995 -0.3793 -0.1821
16264W        W17128   4.494  20.637   6.549 -0.2574  0.0599  0.0038
16265W        W17129  10.290  13.503   0.673  0.0996  0.2422 -0.3590
16266W        W17130  26.626  14.302  15.698  0.0817  0.0792 -0.1530
16267W        W17131   0.000  18.677  17.601  0.2418 -0.0692 -0.1380
16268W        W17132  23.133  29.053  21.067 -0.0717 -0.0491  0.2034
16269W        W17133  16.828  18.397   9.467  0.2647 -0.1613 -0.0453
16270W        W17134   5.084  23.359   5.950  0.0662 -0.2198  0.2207
16271W        W17135  13.293  28.032  19.383 -0.0095  0.0393 -0.2508
16272W        W17136  18.711  22.408   1.043 -0.2333  0.1311 -0.1595
16273W        W17137  14.864   2.157  28.211  0.2532 -0.0947 -0.2527
16274W        W17138  18.308  23.120  14.196  0.1779  0.0664 -0.1708
16275W        W17139  15.172  13.478  25.715 -0.3911  0.1168 -0.0379
16276W        W17140   6.678   8.405  26.317  0.2595  0.0991 -0.0840
16277W        W17141  19.610   0.318   8.526 -0.0173 -0.1668  0.0181
16278W        W17142  12.501  16.409   6.569 -0.0825 -0.2869 -0.0461
16279W        W17143  27.113  12.506  27.559 -0.1095 -0.1800  0.2228
16280W        W17144   1.972  17.387  13.883 -0.1745  0.3664  0.0220
16281W        W17145  21.755  18.347  12.967 -0.3743 -0.0349  0.2111
16282W        W17146  14.613   4.267  12.850 -0.0596 -0.2012  0.0967
16283W        W17147  12.082   1.712   1.072 -0.2139  0.0698  0.3243
16284W        W17148  10.318  25.257  17.559 -0.2530  0.1506 -0.4442
16285W        W17149  18.723  15.817   0.032  0.2451 -0.0480 -0.1006
16286W        W17150  18.447   8.611   9.190  0.3040 -0.1758 -0.1066
16287W        W17151  11.266  17.556  17.069  0.1416  0.1358 -0.0139
16288W        W17152   2.512  14.061   3.547  0.1419 -0.1655  0.1958
16289W        W17153  13.805   0.204  14.790  0.1781 -0.1226 -0.1764
16290W        W17154  24.928   4.928  11.946  0.1883 -0.0904  0.0629
16291W        W17155   4.343  22.868  10.734 -0.0500 -0.1271  0.0540
16292W        W17156  12.746   0.736  12.697  0.2576 -0.0354 -0.1525
16293W        W17157   6.091  25.648   1.110 -0.0393  0.1200  0.1690
16294W        W17158  16.765   1.179   8.338  0.0131 -0.1135 -0.3793
16295W        W17159  15.326  25.498  20.602 -0.1446  0.2307  0.2407
16296W        W17160  25.201  11.331  10.678  0.1592 -0.2272  0.1466
16297W        W17161  21.486  22.199  14.253  0.2046  0.0286 -0.1108
16298W        W17162  28.800  21.450   8.193  0.0997  0.0150  0.1353
16299W        W17163  26.014  22.034  15.136  0.0223  0.1777 -0.2978
16300W        W17164  16.393   0.251  19.326 -0.0934 -0.0762 -0.0309
16301W        W17165  19.313  25.709   1.579  0.2657  0.1263 -0.2029
16302W        W17166  15.779  23.539   4.392 -0.1295 -0.1977 -0.1832
16303W        W17167  13.699  15.192  10.865  0.1084 -0.4377  0.0958
16304W        W17168  19.715   1.464   6.785  0.0939  0.1452  0.0343
16305W        W17169  23.603  26.885  13.098 -0.1409 -0.1809  0.0083
16306W        W17170  13.129   0.262   8.396 -0.0625  0.2159 -0.1410
16307W        W17171  23.479  21.763   2.907  0.3930  0.0673  0.2264
16308W        W17172  11.995  17.713  17.494  0.2732  0.1194  0.0776
16309W        W17173  27.711  17.972  18.122  0.5408 -0.3488 -0.2411
16310W        W17174  27.341  18.503   0.919  0.0506  0.2008 -0.0463
16311W        W17175  20.676   2.216   1.414 -0.0505  0.0829 -0.3518
16312W        W17176  15.331   1.765   4.716  0.0998  0.1077  0.0798
16313W        W17177   3.790  15.255  19.912  0.0928  0.1989  0.4557
16314W        W17178  28.807  28.613  15.094  0.2422 -0.2555  0.0539
16315W        W17179   1.840   3.552  16.260 -0.4203 -0.0923  0.0781
16316W        W17180  25.596  11.451  28.171  0.2215  0.2171 -0.0995
16317W        W17181  10.367   4.833  15.789  0.2611  0.0505 -0.0010
16318W        W17182  21.215  14.642   0.427  0.0071 -0.1200 -0.1586
16319W        W17183  19.296  28.039  24.058 -0.1732  0.1895  0.3958
16320W        W17184  18.616  11.528  12.118 -0.0733  0.0671  0.2743
16321W        W17185   9.089  24.979  10.336  0.0543 -0.1836  0.1082
16322W        W17186   4.351  11.048   5.717 -0.1856  0.0558  0.1364
16323W        W17187  13.452  18.365  21.548  0.1752  0.1322  0.2649
16324W        W17188   9.832  12.766  19.780 -0.0128  0.4386 -0.2344
16325W        W17189  24.303  16.278   0.917  0.1757 -0.0415  0.0926
16326W        W17190  24.237  17.261  19.520  0.2904  0.1821  0.0568
16327W        W17191   1.070   9.991   4.826  0.1300  0.1202 -0.1875
16328W        W17192   5.009  20.802  24.220  0.0124 -0.0179  0.1844
16329W        W17193  19.455  17.712  21.669 -0.0223  0.1913  0.2368
16330W        W17194   3.055  25.345  27.460  0.1345 -0.0644 -0.0061
16331W        W17195  15.903  25.168  26.533  0.2481  0.2272 -0.1186
16332W        W17196  11.740   6.219   1.415  0.0405 -0.3194  0.0953
16333W        W17197  20.045  20.698   0.455  0.0809  0.0609  0.1093
16334W        W17198   9.879  13.484   1.972  0.2130 -0.2536  0.0438
16335W        W17199   8.099  19.110  28.415 -0.3814 -0.2680  0.0494
16336W        W17200  23.777   6.929  15.617  0.0327 -0.1222 -0.5398
16337W        W17201  12.280  26.277  24.800 -0.1720 -0.2209 -0.0217
16338W        W17202  28.187  16.775  18.800  0.0176 -0.2395 -0.0648
16339W        W17203  19.617  22.840  18.553 -0.0722  0.0630  0.0771
16340W        W17204  11.281  11.209  25.266  0.0005  0.1813  0.1660
16341W        W17205  12.747   0.633  11.714  0.0310 -0.1694 -0.0446
16342W        W17206  19.188  28.771  21.575  0.0685 -0.0651 -0.2208
16343W        W17207   6.967   6.298   7.361  0.0068  0.1131 -0.1697
16344W        W17208  23.224  15.195   6.878 -0.1967  0.0160  0.1939
16345W        W17209  11.589  15.210  11.560 -0.0314 -0.1827  0.1193
16346W        W17210  16.684   8.696   1.836 -0.0274 -0.1000 -0.2385
16347W        W17211  21.198  10.628   1.126 -0.1079  0.4421 -0.0237
16348W        W17212  27.482  10.422  24.176  0.1817  0.0281 -0.3648
16349W        W17213   0.012   1.055  24.211  0.1955  0.4262 -0.3700
16350W        W17214  11.470   4.934   0.162  0.2068  0.1451 -0.2741
16351W        W17215  25.772  14.145   8.870 -0.0830  0.0307 -0.2226
16352W        W17216  12.555  19.925   5.217 -0.0103  0.0076  0.2395
16353W        W17217   1.807  24.527  13.850  0.1627 -0.0079  0.1753
16354W        W17218  20.292   1.561   2.706 -0.0761  0.0593  0.2964
16355W        W17219  14.234  17.061  14.419 -0.1158  0.2186  0.1356
16356W        W17220   3.512  17.447   2.898  0.1488 -0.0537  0.2266
16357W        W17221  22.980  28.047  19.362 -0.1716 -0.2363  0.0288
16358W        W17222  25.449  15.844   9.518 -0.0148 -0.1610 -0.0907
16359W        W17223  11.584   9.550   1.329  0.0998  0.1160  0.1898
16360W        W17224   6.861  12.355   9.437  0.0425 -0.0300  0.2300
16361W        W17225  23.644  22.600  17.780 -0.2752  0.1062  0.0346
16362W        W17226   6.897  12.011   4.793 -0.1356  0.1270 -0.0418
16363W        W17227   2.844  21.843  14.138  0.0910  0.4522 -0.0340
16364W        W17228  15.977  18.444  25.111  0.3583 -0.3717 -0.1415
16365W        W17229   4.098   1.215   6.798 -0.3094 -0.2472 -0.2138
16366W        W17230  22.138  20.550  28.883  0.1676 -0.1397 -0.1033
16367W        W17231  15.221  19.562  19.825 -0.0228  0.3453  0.0746
16368W        W17232   6.929  11.870  13.877 -0.1665 -0.0173 -0.1398
16369W        W17233  28.183   7.590  19.473  0.0709  0.0633 -0.0059
16370W        W17234   0.757   7.691   1.776 -0.0710  0.1100  0.0958
16371W        W17235   3.793   5.359  17.555 -0.0158 -0.0048  0.1440
16372W        W17236  22.883  17.828  23.326 -0.1270  0.0121  0.2219
16373W        W17237  24.734  24.529  15.053 -0.0065 -0.0838 -0.3210
16374W        W17238  10.164   6.865  21.440  0.1582  0.3813  0.0199
16375W        W17239   3.531  16.929   2.844 -0.2513  0.0271  0.0225
16376W        W17240  17.578  20.323   4.374  0.5511  0.3010  0.2611
16377W        W17241  18.328  19.877   7.270 -0.2185  0.2756 -0.2496
16378W        W17242  14.815  15.016  10.781 -0.2214 -0.3309 -0.1969
16379W        W17243  26.766   4.172   8.817 -0.0472 -0.1619 -0.3376
16380W        W17244   9.750  21.240  22.903 -0.1524 -0.0947 -0.2139
16381W        W17245  13.036  10.032  23.821  0.0247  0.2252 -0.1323
16382W        W17246   0.849  24.378   3.905 -0.0692 -0.1677 -0.0122
16383W        W17247  20.674  22.182   2.628  0.1086 -0.1946 -0.3366
16384W        W17248  12.286  11.709   7.561  0.2947  0.0291 -0.1345
16385W        W17249   6.241  23.765  24.036  0.0117  0.3273  0.2390
16386W        W17250  14.425  21.827   6.609 -0.0626 -0.2686  0.0865
16387W        W17251  27.993   2.383  18.100  0.2008  0.4157  0.1011
16388W        W17252  23.078   3.004  12.439  0.0484  0.0629 -0.0441
16389W        W17253  22.961  12.943  25.179  0.1545  0.1931 -0.0552
16390W        W17254   0.948   3.967  10.238 -0.1669  0.1528 -0.0845
16391W        W17255  17.314   2.464   6.885 -0.1431  0.1559  0.1212
16392W        W17256  27.453  18.164  28.141  0.0531 -0.0236  0.0440
16393W        W17257   9.378  26.071   1.344 -0.0857 -0.1918  0.3413
16394W        W17258  13.170  28.044   1.757 -0.0245  0.0092 -0.1822
16395W        W17259  24.909   1.916   8.163  0.0623  0.1663 -0.1298
16396W        W17260  27.408  18.777  15.754  0.0501 -0.1634  0.1116
16397W        W17261  16.995  26.404  10.963 -0.0461 -0.0458 -0.0692
16398W        W17262  12.423   6.171   6.493 -0.1141  0.0626 -0.1125
16399W        W17263  13.830   6.772  21.529  0.0369  0.3412 -0.2563
16400W        W17264  24.242   2.608  10.604 -0.2049 -0.1461 -0.0591
16401W        W17265  28.460  21.052  15.030  0.0845 -0.2759 -0.3028
16402W        W17266  18.480  12.472  17.058  0.3518  0.0018 -0.1986
16403W        W17267  18.910  20.665   4.805 -0.1558  0.0259  0.2134
16404W        W17268  20.415  18.043  26.987  0.0507 -0.3383  0.1781
16405W        W17269  21.441  17.843  28.988  0.0260 -0.0544 -0.3836
16406W        W17270   8.758  16.346   0.809 -0.0897 -0.2304 -0.2481
16407W        W17271  16.951  11.692   9.340  0.0107 -0.0780  0.0110
16408W        W17272  14.182  10.008  28.764  0.2390 -0.1926  0.3652
16409W        W17273   7.354  15.556   3.540 -0.0533  0.0143  0.1964
16410W        W17274  23.518   0.438  14.554 -0.0745 -0.1370  0.0906
16411W        W17275   1.382   7.012   6.067  0.2505  0.1317 -0.2019
16412W        W17276  12.754   6.671  19.655 -0.0678  0.1748  0.1744
16413W        W17277  25.720   4.272   2.243 -0.0765  0.0428  0.5168
16414W        W17278   5.737  20.371   6.046 -0.2678 -0.2362 -0.1755
16415W        W17279  15.675   8.078   4.865 -0.0151  0.0006  0.0288
16416W        W17280  12.986  10.612  16.653 -0.1813  0.2474  0.4264
16417W        W17281  15.506  12.061   3.170 -0.1325 -0.0667  0.0260
16418W        W17282  27.206   7.244  19.698  0.0751 -0.2110 -0.3462
16419W        W17283  15.006  25.808  13.517 -0.1897  0.1863 -0.0237
16420W        W17284   7.284  17.339  21.188  0.1058  0.0536 -0.1273
16421W        W17285   6.569   1.558  14.828 -0.1429 -0.1621  0.4597
16422W        W17286  28.207   9.120  23.807 -0.2226 -0.3302 -0.2047
16423W        W17287   9.269  13.662   9.303  0.3534 -0.2089 -0.1006
16424W        W17288  17.254   4.799  25.848 -0.2373 -0.0784  0.2971
16425W        W17289   6.969   9.029   3.470 -0.1825 -0.0143 -0.0582
16426W        W17290  25.822   7.497  22.643  0.2368  0.0362 -0.0857
16427W        W17291  13.256  10.571  27.121 -0.0286  0.0458  0.0572
16428W        W17292   9.878  15.909  14.675 -0.3897 -0.1537  0.0404
16429W        W17293  26.229  25.878  11.155 -0.2571  0.1626  0.1669
16430W        W17294   6.767   5.093   3.777 -0.0734 -0.1737 -0.4153
16431W        W17295  19.984  14.812  19.606 -0.0477 -0.2919 -0.1164
16432W        W17296  12.435  20.951   0.091 -0.0814  0.2397  0.0344
16433W        W17297  14.963  15.648  11.937 -0.1500 -0.0605 -0.1339
16434W        W17298  10.021  11.738  11.917  0.1102 -0.2111 -0.0983
16435W        W17299  18.200  16.985  29.072 -0.0042 -0.0882  0.4575
16436W        W17300  11.779  19.483   8.679 -0.2850 -0.0198 -0.3063
16437W        W17301  21.854  21.753  12.088  0.2644 -0.0256  0.0954
16438W        W17302  16.548   6.141   1.780  0.2056  0.1319 -0.0475
16439W        W17303  13.399   0.707  13.564  0.0736 -0.4173 -0.2388
16440W        W17304  12.936  23.025   6.662 -0.3673 -0.1521  0.1494
16441W        W17305  16.007  22.295  23.984  0.1829  0.0533 -0.0430
16442W        W17306  10.562  23.848  29.063  0.3345  0.0377  0.0975
16443W        W17307  27.670  15.919  28.563  0.0570  0.1792 -0.3433
16444W        W17308  13.493  11.238  20.890  0.0589 -0.1157  0.1431
16445W        W17309  26.402  22.430  15.345 -0.1022  0.0332 -0.1519
16446W        W17310   8.011   6.970   7.956  0.0922 -0.0468  0.1993
16447W        W17311  25.526  17.026  16.493  0.0425  0.1384  0.1819
16448W        W17312  22.339   3.996   2.164  0.0237  0.3892  0.2170
16449W        W17313  12.593   5.816   3.789  0.0841 -0.2035 -0.1575
16450W        W17314  25.634   7.981  25.384  0.1147 -0.1981 -0.0809
16451W        W17315  16.957  13.326  15.049 -0.2087 -0.0908  0.0110
16452W        W17316  25.249  22.754   7.267  0.1292  0.0644 -0.1406
16453W        W17317  22.180   9.396   0.440  0.0480  0.1338 -0.0495
16454W        W17318   1.754   2.488  26.373 -0.1118  0.2634 -0.1098
16455W        W17319  16.760  17.070  21.997  0.1010 -0.2941 -0.2329
16456W        W17320  11.736   5.717   6.451  0.0229 -0.0441  0.4183
16457W        W17321  15.535   9.796   6.293 -0.0150 -0.1675 -0.3675
16458W        W17322  27.342  12.393  16.727 -0.0748  0.1177  0.2118
16459W        W17323  12.259  27.591  14.724  0.2256  0.0760  0.1364
16460W        W17324  20.639  21.618   3.565  0.1178  0.0496  0.2158
16461W        W17325  19.117   4.914  15.407 -0.3107  0.0105 -0.1078
16462W        W17326  11.851  26.553   2.475 -0.1692  0.0059 -0.1881
16463W        W17327   0.561   7.197  14.792  0.0256 -0.0692 -0.0369
16464W        W17328  19.563  24.435  13.314  0.0268 -0.0959 -0.2205
16465W        W17329  27.991   7.091  10.500 -0.2391 -0.1612  0.2204
16466W        W17330  18.085   8.057  16.921  0.1702  0.2018  0.4231
16467W        W17331   6.077   8.345  23.447  0.0506 -0.0472  0.0548
16468W        W17332  25.214   7.487  15.784 -0.0924  0.0041  0.0982
16469W        W17333  16.865  19.187   0.892 -0.1008  0.3045  0.0394
16470W        W17334   2.047  11.867  27.453 -0.1957 -0.2046  0.0071
16471W        W17335  23.493   8.988  14.260  0.2333 -0.0570  0.3982
16472W        W17336  14.897  16.745   7.566  0.1963 -0.1879 -0.1262
16473W        W17337  15.324  23.249  26.274 -0.0922 -0.2223 -0.1720
16474W        W17338  11.340  27.580  11.704 -0.0470  0.2598  0.1051
16475W        W17339  15.404  15.675   4.122  0.0802 -0.0069 -0.3099
16476W        W17340   0.564   7.953   4.097  0.0506 -0.2569  0.0973
16477W        W17341  21.975   4.213   9.030 -0.1268 -0.1614  0.3232
16478W        W17342  21.008   4.754  19.909  0.1571 -0.1542 -0.1708
16479W        W17343  10.276   9.972   0.719 -0.3020  0.1080 -0.1302
16480W        W17344  18.919  28.800  19.771  0.1004 -0.0843 -0.0594
16481W        W17345  12.643  26.786  14.825 -0.0137  0.1237 -0.2104
16482W        W17346   0.291  10.092  12.047  0.0866  0.3435 -0.0590
16483W        W17347   2.363  18.924   6.360 -0.0261  0.0218  0.2379
16484W        W17348  21.457  15.158   9.305 -0.4311 -0.1375  0.0452
16485W        W17349  15.712  14.624   7.432  0.2086 -0.3116 -0.0201
16486W        W17350  27.570  10.203  21.899  0.2670 -0.2559 -0.0091
16487W        W17351   1.885   2.944   3.860  0.0430  0.3085 -0.1027
16488W        W17352  14.123   8.362  12.530 -0.1591 -0.0870 -0.1214
16489W        W17353  15.625   4.578   0.740  0.0024 -0.0137 -0.2401
16490W        W17354  22.480  18.232  16.745  0.0123 -0.0111  0.2330
16491W        W17355   9.403   7.475  19.255 -0.0979  0.0196 -0.1159
16492W        W17356   2.308   7.032  23.800  0.0653  0.0606  0.0826
16493W        W17357   5.667  23.933  13.829  0.0687  0.1112  0.0021
16494W        W17358  19.112  13.568   1.087  0.3022 -0.1975  0.2563
16495W        W17359  20.769   8.828   4.078  0.0019  0.1579  0.1298
16496W        W17360  13.837  25.733  11.189 -0.0168  0.0467  0.0022
16497W        W17361   5.341  22.073   8.462  0.0646  0.1641 -0.3676
16498W        W17362  27.000  27.690   2.101 -0.2354 -0.1059 -0.1225
16499W        W17363  13.124  25.859  11.845  0.0022 -0.0538  0.2071
16500W        W17364  13.845  18.606  19.624 -0.0126  0.1538  0.1982
16501W        W17365  17.038  11.271   4.624  0.0935 -0.2375  0.1214
16502W        W17366  14.398   0.220  27.471  0.0074  0.1729 -0.0230
16503W        W17367  23.776  24.174   7.816 -0.1135 -0.1981 -0.1246
16504W        W17368  21.504  17.890  12.961  0.0382 -0.1204  0.1095
16505W        W17369   4.113  19.517   8.657 -0.5258  0.0307  0.2036
16506W        W17370  15.479  21.042  18.015 -0.0305 -0.1021  0.0221
16507W        W17371   2.931  26.253   3.037 -0.1460  0.0522  0.0807
16508W        W17372  23.748  19.146  27.556  0.1791  0.2799 -0.0440
16509W        W17373  22.444  13.838  28.453  0.3101 -0.2820 -0.0363
16510W        W17374   1.297  12.775   3.249  0.1302  0.0048 -0.1441
16511W        W17375  24.088   0.832   0.520 -0.1441 -0.0007  0.2160
16512W        W17376  20.685   8.852  22.452  0.0205  0.0169 -0.0628
16513W        W17377   7.046   6.158  19.590  0.2678  0.2206  0.2168
16514W        W17378  20.778  11.541  22.865  0.3383 -0.2628  0.1676
16515W        W17379  17.386  25.273  21.735 -0.1461 -0.1805  0.0605
16516W        W17380  11.120   4.421  19.630  0.0139 -0.0056 -0.2377
16517W        W17381  18.545  11.099  10.327 -0.0680 -0.0971 -0.0036
16518W        W17382  15.772  22.172  28.155 -0.1853 -0.1303 -0.0015
16519W        W17383   7.243   3.162  10.424 -0.1825 -0.2882 -0.2583
16520W        W17384   2.715  14.839  14.553 -0.2108  0.1741 -0.1462
16521W        W17385  13.890  23.113  21.743  0.2537 -0.0348 -0.4674
16522W        W17386  15.027   6.280  21.057 -0.0799 -0.2499 -0.3081
16523W        W17387  15.802  17.214  16.729 -0.1986 -0.2718  0.0202
16524W        W17388  25.576  25.938  25.556 -0.2258  0.1536 -0.2365
16525W        W17389   5.766  29.091  19.675 -0.0494  0.1174  0.4155
16526W        W17390  21.415  12.567  22.658 -0.1648 -0.1911 -0.1211
16527W        W17391   9.709   8.567  21.658 -0.2382 -0.1751 -0.0943
16528W        W17392  23.602   0.696  16.610 -0.0635 -0.4177  0.2930
16529W        W17393   8.279   7.265  13.194 -0.0711  0.0008 -0.0184
16530W        W17394  24.340   8.071   2.033 -0.0536 -0.0823 -0.0439
16531W        W17395  20.553  24.638   0.997  0.1079 -0.0252 -0.1462
16532W        W17396  19.948  24.793  20.088 -0.3102  0.0175  0.1989
16533W        W17397  12.335  15.015   6.802  0.1553 -0.4856 -0.1984
16534W        W17398   1.064  22.515   2.151  0.0940  0.1777  0.0292
16535W        W17399  21.362  27.648  11.834  0.0017 -0.0075  0.1548
16536W        W17400  10.917  20.857  20.258 -0.1555  0.1558  0.2078
16537W        W17401   3.152  12.139   8.883 -0.1542  0.1322  0.1448
16538W        W17402  12.916  13.757  20.757  0.0415  0.2590 -0.0955
16539W        W17403  20.413  19.041  11.664  0.2056  0.2972 -0.1778
16540W        W17404  21.196   4.301   8.718  0.0820 -0.1278 -0.0791
16541W        W17405  22.453  26.584   5.204 -0.2141  0.1416 -0.0501
16542W        W17406  11.130  24.068  11.697  0.1413  0.0788  0.2813
16543W        W17407  18.592   5.890   0.248 -0.1060 -0.0471  0.0021
16544W        W17408  11.143   5.580   1.912  0.4487 -0.3169  0.1369
16545W        W17409  21.444  24.821  11.706 -0.1929 -0.2176  0.0646
16546W        W17410   8.517  20.355   8.063  0.0738 -0.5531 -0.1991
16547W        W17411  20.771  17.899   7.243 -0.0688  0.1908 -0.0430
16548W        W17412   2.208  17.813  19.379  0.1538 -0.2789  0.1277
16549W        W17413   3.658  21.936  14.150 -0.0169  0.0311 -0.2083
16550W        W17414  15.098   3.505   2.503 -0.1669 -0.1969  0.2546
16551W        W17415   3.775   8.302   3.000 -0.0308  0.0621  0.1153
16552W        W17416  13.689  24.751   1.837  0.2721  0.1326  0.0146
16553W        W17417  28.193  13.143   6.800 -0.2063  0.0847  0.4455
16554W        W17418  13.531   2.484  13.036 -0.2462  0.2538 -0.2807
16555W        W17419  14.972   4.041  22.702 -0.1831 -0.0948  0.1343
16556W        W17420  16.115  10.271  16.481  0.1986 -0.0662  0.0575
16557W        W17421   5.791  11.983  19.317  0.0693 -0.3571 -0.4277
16558W        W17422  17.543  16.611   6.936 -0.1229 -0.0251  0.0484
16559W        W17423  18.617  14.436  28.506  0.0341  0.0904  0.1292
16560W        W17424  18.224  19.949  10.388  0.0660 -0.0778  0.2569
16561W        W17425  22.705  13.208  14.978  0.1470 -0.0148  0.1066
16562W        W17426  19.727  29.119  17.892 -0.1578 -0.1486  0.1161
16563W        W17427  13.653   0.193  20.826 -0.1172 -0.2636 -0.0729
16564W        W17428  12.837  10.191  28.153  0.0981 -0.0317  0.1183
16565W        W17429   8.550  11.985   9.826 -0.0328  0.3321  0.3838
16566W        W17430   0.526  24.808   7.337  0.0699  0.0914 -0.0716
16567W        W17431  27.639  15.062   7.540  0.1889 -0.1100 -0.1319
16568W        W17432  14.520  12.764  13.290  0.2129 -0.2512 -0.1429
16569W        W17433   1.152   9.461  17.435 -0.2849 -0.0116  0.1901
16570W        W17434  23.708  19.570  18.163 -0.3550 -0.1703  0.2287
16571W        W17435   7.073  10.728  10.332  0.0492  0.0797 -0.2714
16572W        W17436  16.853  17.089  13.357 -0.2080  0.0625 -0.1585
16573W        W17437  17.136   4.145  16.085  0.1314 -0.1475  0.0839
16574W        W17438   1.216   5.853  16.136 -0.0353  0.1545  0.0484
16575W        W17439  13.681  16.112  18.264 -0.2906  0.0749  0.0077
16576W        W17440  24.391  13.436   8.244 -0.1616  0.1643 -0.2019
16577W        W17441  11.769  17.103  16.770  0.0236  0.0433  0.1833
16578W        W17442   8.671  21.638  20.677  0.1612 -0.2354 -0.4253
16579W        W17443  27.748  12.767   2.569 -0.0500 -0.0398  0.3291
16580W        W17444  20.334  26.749  15.994  0.0611 -0.0466  0.2106
16581W        W17445  18.277  11.938  23.132 -0.1797  0.1462  0.1865
16582W        W17446   7.763  25.701  18.437  0.0695 -0.3303  0.4776
16583W        W17447  17.401  13.525   9.566 -0.1662  0.0049 -0.1826
16584W        W17448   8.174  21.686   1.166 -0.3761  0.4597  0.0439
16585W        W17449  22.435  26.079  24.072  0.1981  0.0314 -0.0029
16586W        W17450   2.828  21.217  18.329  0.2680 -0.1583  0.0297
16587W        W17451   0.850  11.611  19.794  0.0184  0.0444  0.0109
16588W        W17452  10.280  27.441  22.497  0.0211 -0.0122 -0.1942
16589W        W17453  10.626  19.049  10.493 -0.4985  0.3125  0.1801
16590W        W17454  29.057  20.273  17.473 -0.0981 -0.0130 -0.1129
16591W        W17455  19.097   8.644  18.976 -0.0163 -0.2896 -0.0694
16592W        W17456  18.335  12.400  22.268  0.3569 -0.0787 -0.0220
16593W        W17457  19.480  14.351  15.027 -0.2803  0.1223  0.1562
16594W        W17458  12.067  15.257   3.158 -0.1654  0.0479  0.0850
16595W        W17459  19.448  15.601   2.352  0.1624 -0.1595  0.2558
16596W        W17460  22.362   7.846  26.212  0.0402  0.1177 -0.1044
16597W        W17461  23.404  17.660  16.556 -0.0833  0.0083  0.3996
16598W        W17462  13.788  14.411  18.655 -0.3413 -0.0471 -0.3485
16599W        W17463  12.196  16.086  28.082  0.3821  0.3046  0.1590
16600W        W17464  27.187  22.176  19.508 -0.2105 -0.0850 -0.0527
16601W        W17465  18.943  14.321  10.500 -0.2084  0.0438 -0.2524
16602W        W17466  12.101   9.920  10.659 -0.0873  0.2477  0.2388
16603W        W17467  18.552  22.142  22.829  0.0485 -0.2535  0.1525
16604W        W17468   1.593  17.127  26.780 -0.1337  0.0061  0.0899
16605W        W17469  10.312  23.714  28.321 -0.0405 -0.2373  0.0786
16606W        W17470  10.787   1.889  17.349  0.2126  0.2114  0.0420
16607W        W17471   2.011  27.916   3.297  0.1146  0.0920  0.1316
16608W        W17472   0.907  18.702   8.537 -0.3694 -0.0292  0.0534
16609W        W17473   6.987   2.834   4.559  0.2262  0.0431 -0.0258
16610W        W17474  18.756   7.680  11.729  0.1336  0.0670 -0.2033
16611W        W17475  13.271  14.305  22.237  0.1579  0.0378  0.1467
16612W        W17476   2.214  10.064  18.011 -0.0155 -0.0816 -0.0466
16613W        W17477  13.122  14.856   4.748  0.0321  0.1742 -0.0688
16614W        W17478   3.911  26.735   3.546 -0.0460  0.0402  0.3281
16615W        W17479   3.105   1.379  22.191  0.1399  0.4291  0.4408
16616W        W17480  14.531  16.198  14.017 -0.0409  0.1303 -0.0179
16617W        W17481   8.953  10.867  28.207  0.3906 -0.0629  0.2030
16618W        W17482  13.190  28.176  24.743  0.1697  0.0533 -0.1963
16619W        W17483  14.583   1.781  22.748  0.0957 -0.0206 -0.1145
16620W        W17484  18.966  17.769  12.689  0.1065 -0.1688  0.0221
16621W        W17485   9.982  12.461  27.318  0.1155  0.1009 -0.1344
16622W        W17486   3.563  26.138  17.567  0.0865  0.1485 -0.1803
16623W        W17487  25.948   3.005  13.779  0.0494  0.3658  0.0025
16624W        W17488   8.473  25.534  20.698 -0.3188 -0.0935  0.0517
16625W        W17489  12.497   2.179   4.450  0.0095 -0.2978 -0.3072
16626W        W17490  18.484   7.211  11.030  0.1616 -0.0300  0.1589
16627W        W17491   8.699  24.837   9.483 -0.0781 -0.0325  0.1615
16628W        W17492   2.985   9.320   3.396  0.1519  0.0941  0.3777
16629W        W17493  15.900  15.424   6.027  0.0681  0.2276  0.0216
16630W        W17494  13.093  16.420  11.125 -0.0282 -0.1513 -0.0136
16631W        W17495  10.585  19.454  26.824  0.0063 -0.1237 -0.1106
16632W        W17496  16.388  22.050   6.449  0.3825 -0.1852  0.0724
16633W        W17497  16.010  26.908   9.509  0.1396  0.1518 -0.0747
16634W        W17498  26.190   9.527   9.847 -0.0235  0.0488 -0.1025
16635W        W17499  22.545  22.575  12.835  0.0100 -0.1210  0.1811
16636W        W17500  19.958  26.578   2.865 -0.1330 -0.0914  0.0743
16637W        W17501  20.681   4.314   8.520 -0.0869 -0.0068  0.0483
16638W        W17502  14.833   1.260  24.687 -0.1139 -0.0408  0.2408
16639W        W17503   4.130   1.887  26.303  0.2245  0.3668  0.3313
16640W        W17504  12.912  14.032   6.017  0.0706 -0.2215 -0.5155
16641W        W17505  19.301  18.164  17.666  0.1164 -0.0062 -0.0980
16642W        W17506  18.860   3.084   1.650  0.0633  0.0833 -0.1504
16643W        W17507  11.501  13.884  10.251 -0.2484  0.3615 -0.2312
16644W        W17508  13.807   8.982   9.075 -0.3507  0.1895 -0.1537
16645W        W17509   6.201   2.756  22.169  0.1070  0.1952  0.2007
16646W        W17510  12.886  13.448  10.220  0.0690 -0.2084  0.0657
16647W        W17511  28.117  13.953  26.641  0.0463 -0.2832 -0.2197
16648W        W17512  11.671  16.162   1.709 -0.0282  0.2013  0.3359
16649W        W17513  17.437  19.438   5.819 -0.1524  0.0390  0.0079
16650W        W17514   7.905  25.806  27.624  0.0456 -0.1733 -0.3293
16651W        W17515  22.828  11.856  14.561 -0.1677  0.1949 -0.1750
16652W        W17516  16.774   5.037  15.528 -0.0668 -0.0726 -0.0157
16653W        W17517  12.293  11.996  28.166  0.0703 -0.0698 -0.0613
16654W        W17518   7.483  11.330   7.998  0.0089  0.0773  0.1181
16655W        W17519  21.901   8.108   9.589 -0.1588  0.2062 -0.0090
16656W        W17520  16.377  11.143   1.628 -0.1574 -0.0766  0.0319
16657W        W17521   9.335   8.009   8.688 -0.2906  0.2005 -0.1666
16658W        W17522  13.916  24.525  12.281  0.0849 -0.1085 -0.0823
16659W        W17523  27.926  16.741  15.664  0.1652  0.3298  0.2205
16660W        W17524  14.767  17.083   4.790  0.1082  0.0994  0.0949
16661W        W17525  14.317  20.330   8.642  0.0756  0.1072  0.1109
16662W        W17526  13.921  25.860  27.158 -0.2586 -0.1320 -0.1861
16663W        W17527   8.471  17.752   5.162  0.1801  0.1544 -0.2546
16664W        W17528  24.569  22.608  25.554 -0.2594  0.3582  0.1070
16665W        W17529  12.756  23.377  26.461 -0.0404 -0.0255  0.0319
16666W        W17530  19.138   8.584   5.495  0.0826 -0.0448  0.4847
16667W        W17531  27.209  23.534  13.558  0.2767  0.2028  0.0779
16668W        W17532   9.720  19.954   7.199  0.1028 -0.4610 -0.3116
16669W        W17533  10.037   5.020  28.544 -0.0820 -0.2715  0.1512
16670W        W17534  16.549  14.730  18.792  0.0763  0.1695 -0.0913
16671W        W17535  23.185  18.652  11.908 -0.1757  0.1245 -0.0197
16672W        W17536  10.972  10.038  25.651  0.1916  0.1695 -0.1043
16673W        W17537   1.839  22.986   3.637  0.0934  0.1021 -0.1960
16674W        W17538   7.495  10.178  13.959 -0.1196  0.1620  0.2094
16675W        W17539  26.616  11.307  10.144 -0.2366 -0.3435 -0.0755
16676W        W17540  14.732  14.189   6.016 -0.1152  0.1112  0.0385
16677W        W17541   6.147  23.211  13.253 -0.1215 -0.1402 -0.2259
16678W        W17542   0.233  18.475  15.655  0.1156 -0.4154 -0.1630
16679W        W17543  11.938  14.994  15.679  0.1803 -0.2665  0.2879
16680W        W17544  13.946   2.666   5.108 -0.3468 -0.2956  0.0115
16681W        W17545  22.861  15.368   0.908 -0.0752  0.2722  0.1667
16682W        W17546   1.993  18.716   4.334 -0.0131  0.0433  0.0583
16683W        W17547   8.415  17.214  28.867  0.0667  0.0618 -0.2998
16684W        W17548  18.364  10.484  26.773  0.0313  0.0051  0.1062
16685W        W17549  15.707   4.611   7.107 -0.0027  0.2230 -0.1051
16686W        W17550  16.308  28.235  21.259  0.1015 -0.1839 -0.1673
16687W        W17551  24.198  25.538   3.144  0.1540  0.0901  0.0312
16688W        W17552  24.291   0.841  20.614  0.0843  0.3973 -0.1750
16689W        W17553  17.057  18.871   9.219  0.1512  0.3804 -0.2981
16690W        W17554  15.896   0.271   7.043  0.0101  0.0884  0.2404
16691W        W17555  18.244  17.342  20.267 -0.0016  0.1548 -0.2051
16692W        W17556  19.242   9.732  11.361  0.0874 -0.1028  0.0110
16693W        W17557   5.231  12.468   9.847  0.0570 -0.2908  0.1387
16694W        W17558  22.541  10.118   6.863  0.1069 -0.2675 -0.1385
16695W        W17559  13.949   0.148   8.290 -0.0509 -0.1759  0.0133
16696W        W17560  10.622   0.424   8.524 -0.1134  0.2294 -0.0149
16697W        W17561  14.485  28.017   1.201 -0.1146 -0.1255 -0.2132
16698W        W17562  14.676  24.736  11.493  0.0601  0.1996 -0.0579
16699W        W17563  16.969  18.050  17.858  0.0616 -0.0827 -0.1106
16700W        W17564  15.710  26.961  16.565 -0.0128  0.1126  0.2445
16701W        W17565  15.207  27.417  15.902 -0.0101  0.2277  0.1192
16702W        W17566  13.746  16.715  19.102  0.1800 -0.0461  0.2760
16703W        W17567   3.698  26.785  27.735 -0.1709  0.0286  0.2597
16704W        W17568  21.366  15.058  11.079 -0.1415 -0.0154  0.5078
16705W        W17569  12.485   7.982  21.454 -0.1628 -0.0231  0.1653
16706W        W17570   9.364  20.220  13.121 -0.4145  0.0491  0.0131
16707W        W17571   9.463  17.846  17.322 -0.0989 -0.2371 -0.1957
16708W        W17572   1.329  12.672   9.257 -0.1264 -0.1358 -0.3722
16709W        W17573   0.438  17.408  24.007  0.2855 -0.4807 -0.1821
16710W        W17574  15.661  17.191  21.313 -0.0498 -0.0687  0.3541
16711W        W17575   7.485   0.871  15.638 -0.0352 -0.0439  0.0527
16712W        W17576   8.766  11.497  13.827 -0.1819  0.1833 -0.2117
16713W        W17577   8.534   7.947  13.796  0.0760 -0.2100  0.0419
16714W        W17578  22.559  28.537  24.470  0.3170  0.0928 -0.0594
16715W        W17579  17.486  10.341  10.395  0.2186 -0.1630 -0.1192
16716W        W17580  13.912  19.413   9.854  0.0706 -0.0194 -0.0417
16717W        W17581  18.117  13.040  22.927 -0.1714  0.0999 -0.1097
16718W        W17582   3.561  11.094  18.166 -0.0630 -0.0141  0.0180
16719W        W17583  23.589   1.995   9.301  0.4553  0.1732  0.0666
16720W        W17584  24.619  23.731  10.575  0.1879 -0.4476  0.1275
16721W        W17585  21.383  24.889   6.106  0.3017  0.1741 -0.1339
16722W        W17586  18.340  18.885   0.911 -0.0700  0.0577 -0.2325
16723W        W17587   2.882  13.357  11.174  0.1428  0.2528  0.1039
16724W        W17588  20.684   4.480   2.810  0.0385  0.1742 -0.0093
16725W        W17589  23.962   7.487  13.684 -0.1127  0.2082 -0.0981
16726W        W17590  16.081  21.857  18.940 -0.3083  0.0698 -0.1202
16727W        W17591  26.256  19.280  15.822 -0.2035  0.1156  0.2109
16728W        W17592  21.268  22.326  24.324 -0.0489 -0.0874  0.0874
16729W        W17593  17.010  27.171  10.388 -0.1156  0.3530 -0.0501
16730W        W17594  28.981  18.901  10.093 -0.2972  0.0894  0.0224
16731W        W17595  19.375  17.237  17.905 -0.2562  0.0115  0.1858
16732W        W17596  15.512  22.997  16.117 -0.0318  0.0075  0.2541
16733W        W17597  21.607  13.767  19.627 -0.1521 -0.1842  0.0392
16734W        W17598  12.550   8.242   1.294  0.0029  0.1615  0.2015
16735W        W17599  20.097  14.786  14.873  0.0462  0.2598  0.1081
16736W        W17600  24.951  23.867  11.012  0.2745  0.4727  0.2032
16737W        W17601   9.390  13.484  28.277  0.1694 -0.1013  0.0214
16738W        W17602   8.381  19.062  12.172 -0.0475 -0.2193  0.0868
16739W        W17603  21.046   2.119  29.080 -0.0510 -0.0632 -0.0861
16740W        W17604   3.947  15.548  25.347 -0.3925  0.0260 -0.0531
16741W        W17605  24.246  16.273  21.951 -0.1295 -0.2598  0.0100
16742W        W17606  12.155  28.412  17.685 -0.1521 -0.1965  0.1770
16743W        W17607  17.203  12.479  15.343 -0.2329 -0.1096 -0.2495
16744W        W17608   2.293  17.749  17.784  0.1072 -0.2928  0.1292
16745W        W17609  10.068  25.891  14.656  0.2210  0.0338  0.2509
16746W        W17610  12.002   7.704   9.342  0.0590 -0.0528  0.1511
16747W        W17611  16.242   4.133  17.083 -0.2079 -0.0801  0.1887
16748W        W17612   0.205  25.527  14.375  0.1106 -0.0262  0.1595
16749W        W17613  23.862  21.414  14.777 -0.1014 -0.2454 -0.2071
16750W        W17614  23.839  10.338   7.526  0.1283 -0.3413 -0.1200
16751W        W17615   7.135  20.104  25.922 -0.2281 -0.0204 -0.1117
16752W        W17616  18.848  12.260  18.138  0.0659 -0.3515  0.0861
16753W        W17617   0.032  11.227   4.486  0.1797  0.3882  0.3033
16754W        W17618   2.738   5.855  23.435  0.0693  0.0851  0.0943
16755W        W17619  23.142   8.809  13.379  0.1069  0.1291 -0.1101
16756W        W17620  12.579   6.023  13.061 -0.3234 -0.2646  0.0399
16757W        W17621  25.817  27.977   2.899  0.2554  0.2998 -0.0939
16758W        W17622  16.663  20.067   6.746  0.0238 -0.0555 -0.0690
16759W        W17623  13.515  12.545  13.739 -0.0191 -0.0296  0.1219
16760W        W17624  16.670  28.464   0.759 -0.1348  0.0442  0.1917
16761W        W17625   3.810  19.630  17.311  0.0157 -0.0606 -0.1189
16762W        W17626  12.708   7.700   0.486  0.0341 -0.1052  0.0270
16763W        W17627  16.492   6.516  15.873 -0.1719 -0.2185  0.0542
16764W        W17628   8.810  17.688   4.732  0.0425 -0.1392  0.2861
16765W        W17629   5.174   4.480  27.487  0.0714  0.0634  0.0350
16766W        W17630  11.537   5.398  22.017 -0.1519 -0.1214 -0.2406
16767W        W17631  12.993   8.789   8.838 -0.0312 -0.3236  0.1372
16768W        W17632   2.857  13.236  12.360  0.1515  0.2474 -0.4637
16769W        W17633   9.261  24.461   4.820  0.3423  0.0917 -0.0789
16770W        W17634   2.331  18.787  11.341  0.1154 -0.2839 -0.1484
16771W        W17635  16.183   1.022   0.263 -0.0529 -0.2857 -0.1062
16772W        W17636   8.726  28.445   4.967 -0.1543  0.0103  0.0770
16773W        W17637  11.654  20.555  19.029  0.0410  0.0126 -0.1403
16774W        W17638  23.099   9.132  23.920 -0.1819 -0.1871 -0.1892
16775W        W17639   9.745   4.008  20.855 -0.1787  0.1060  0.3085
16776W        W17640  14.240  10.978  13.688 -0.2077 -0.0282 -0.1590
16777W        W17641  20.380  10.284  21.429 -0.1551  0.2893  0.4366
16778W        W17642   7.590  19.811   7.685  0.0591 -0.1436 -0.1125
16779W        W17643   0.384  24.830  10.778 -0.3272 -0.0941  0.0871
16780W        W17644   4.003  26.667  25.770  0.0512 -0.1497 -0.0317
16781W        W17645  24.593  10.139   9.484 -0.1388 -0.0054  0.0549
16782W        W17646   8.158   5.193  15.954  0.2270  0.1459 -0.0722
16783W        W17647  22.537  27.824  13.653  0.3557  0.1449 -0.0188
16784W        W17648  12.014   6.418  20.516  0.0345 -0.0559  0.1901
16785W        W17649   5.722  25.822  21.861  0.0251  0.1094 -0.1050
16786W        W17650   4.432  13.756  17.688  0.2687 -0.0110 -0.0711
16787W        W17651  13.573  22.071  16.931 -0.2641 -0.1024  0.0443
16788W        W17652  16.931  14.592  22.163  0.1489 -0.1609  0.1994
16789W        W17653  21.589   0.152  10.700  0.1832 -0.1389 -0.1361
16790W        W17654  28.027  17.926   1.291 -0.3049 -0.0832 -0.0498
16791W        W17655   9.369  28.924  11.163 -0.0470 -0.1191  0.1887
16792W        W17656  20.714  19.283  25.175  0.0458 -0.1483  0.0215
16793W        W17657  20.871  13.352   9.432  0.1490 -0.2068 -0.0415
16794W        W17658  27.720  25.164   8.946  0.0148  0.0104 -0.1031
16795W        W17659  20.739  23.515  11.336 -0.1569  0.0176  0.0273
16796W        W17660  13.401  27.205  11.688  0.1375 -0.0988  0.0329
16797W        W17661  12.762  23.028   0.583  0.2176 -0.0664  0.2029
16798W        W17662  15.060  16.419  20.341  0.0808 -0.2428  0.0648
16799W        W17663   5.196  13.696   7.008 -0.0877 -0.0406  0.2023
16800W        W17664   0.965  10.586  21.156  0.0582 -0.0039  0.0030
16801W        W17665   0.506   1.870  20.840  0.0209 -0.2110  0.2994
16802W        W17666   6.428  21.906  27.097 -0.0566 -0.1400 -0.0732
16803W        W17667  26.433   8.472   9.576  0.0970  0.0710  0.1688
16804W        W17668   9.442  27.375   3.234  0.0215  0.3887  0.2727
16805W        W17669   1.893  22.034   6.257 -0.1987 -0.1348 -0.0712
16806W        W17670   6.322  24.460  11.401  0.2478 -0.0040 -0.0983
16807W        W17671  15.599   7.280  14.258  0.1136  0.1510  0.0429
16808W        W17672  27.503  16.656  18.211 -0.3238 -0.1916 -0.2054
16809W        W17673   6.042   0.356  13.700  0.0435  0.0188  0.4574
16810W        W17674  20.414   9.559  11.311  0.0395  0.1187 -0.1556
16811W        W17675  17.496  10.101   5.584  0.1655 -0.1742 -0.3366
16812W        W17676   3.375  15.828   1.495  0.2451  0.0774  0.0826
16813W        W17677  12.245   5.909   0.786  0.0097  0.0188 -0.3173
16814W        W17678  27.511  21.400  17.042 -0.1487  0.0062 -0.1273
16815W        W17679  25.277  13.331  28.998  0.2080 -0.0431 -0.4813
16816W        W17680  22.438   7.667  11.493 -0.0120  0.4039 -0.1470
16817W        W17681   9.104  17.331  12.236  0.2311 -0.0794 -0.2843
16818W        W17682  10.162  12.803  21.034 -0.4100 -0.3895 -0.2760
16819W        W17683  10.957   4.261  15.915  0.0171  0.2142 -0.1920
16820W        W17684  17.460  13.932   2.294  0.0867 -0.1068  0.0933
16821W        W17685   4.946  26.086  28.575  0.0905 -0.3588 -0.0553
16822W        W17686  18.671  27.632   8.079  0.2248 -0.0878  0.0550
16823W        W17687   9.418  13.747   4.919 -0.2067 -0.3538  0.2523
16824W        W17688  22.388  22.409  14.452 -0.1086 -0.0346 -0.0165
16825W        W17689  17.490   7.997   7.943  0.2107  0.2402  0.2125
16826W        W17690  18.080  11.763  19.797 -0.0597 -0.1464  0.0426
16827W        W17691  12.347   1.329  10.321  0.2367  0.2747 -0.3105
16828W        W17692   5.323  15.211  22.808  0.0913  0.0360 -0.0567
16829W        W17693  10.769  12.718   6.914 -0.0360  0.4811  0.4215
16830W        W17694  21.928  13.737   6.930 -0.2306 -0.2970  0.2222
16831W        W17695  14.296  21.771   8.990  0.3036  0.1308 -0.1922
16832W        W17696  14.058  22.545   7.354  0.2148 -0.0915  0.2480
16833W        W17697   4.409  17.036  17.403 -0.0756  0.0398 -0.0118
16834W        W17698   4.839   9.562  19.749 -0.2096  0.0904  0.0666
16835W        W17699  28.399  13.609  18.458  0.0741 -0.0518  0.0590
16836W        W17700  18.467  16.077  13.869  0.1938 -0.0051 -0.2649
16837W        W17701   6.388   9.153  21.538  0.0126  0.0747 -0.1302
16838W        W17702  18.226  28.919  21.844  0.4033  0.1895 -0.2463
16839W        W17703  18.971  16.747  23.550  0.2485 -0.1228 -0.3037
16840W        W17704  10.648  25.548  16.642  0.0713  0.0227  0.4402
16841W        W17705  23.581  16.382   7.282  0.3991  0.2342 -0.2429
16842W        W17706   7.004  10.796  11.376 -0.1252 -0.0096  0.0180
16843W        W17707   8.717  23.692   6.387 -0.0601  0.0436  0.4286
16844W        W17708  25.834  26.376   0.369 -0.3006 -0.0255  0.1326
16845W        W17709   0.028  22.524  14.326 -0.1818  0.0691  0.1796
16846W        W17710  26.115  16.945  24.263  0.0368  0.2004 -0.1374
16847W        W17711   7.948   9.002   6.859 -0.0989 -0.0050  0.1509
16848W        W17712  26.452   4.973  12.535 -0.1399 -0.2493  0.0931
16849W        W17713  11.208   8.266  13.149 -0.2069  0.2604  0.0036
16850W        W17714  12.073  25.612  16.101 -0.4334 -0.1815 -0.0863
16851W        W17715  27.143  22.848  17.995  0.1294 -0.0175 -0.2922
16852W        W17716  27.266   5.657  26.500  0.0880 -0.0658  0.0965
16853W        W17717  25.876   5.021  15.417 -0.1406 -0.0649 -0.0638
16854W        W17718  22.210   9.595  13.483 -0.0236  0.0296 -0.1177
16855W        W17719   0.237  17.583  21.875 -0.1755 -0.1336 -0.3993
16856W        W17720   7.329   6.084   8.619  0.1715 -0.0121 -0.0636
16857W        W17721  21.070   3.760  14.399  0.2104 -0.1459  0.1773
16858W        W17722   0.651  12.890  17.071  0.1762 -0.5235  0.2037
16859W        W17723   0.554  27.147  24.185  0.0418 -0.0307 -0.1674
16860W        W17724  17.111  10.355   3.593 -0.0902  0.2517 -0.1198
16861W        W17725   2.916  26.373   6.017 -0.1769 -0.1245  0.2515
16862W        W17726  13.871  15.518  25.806  0.3823 -0.1541 -0.0317
16863W        W17727  13.865  11.453  25.061  0.2025  0.0343  0.0444
16864W        W17728  27.351  17.903  23.241  0.2308  0.0817 -0.2060
16865W        W17729  22.243   2.966   8.075 -0.1879  0.1366 -0.0952
16866W        W17730  20.020  13.325  12.652  0.0813  0.0947  0.1606
16867W        W17731  22.253  18.718  28.284  0.0498  0.4246  0.1221
16868W        W17732  25.518  12.273  16.394 -0.2064 -0.1179 -0.1637
16869W        W17733  11.956   9.696  20.243  0.1853 -0.1571  0.0830
16870W        W17734   8.635  17.797   9.312  0.2633  0.0302 -0.1230
16871W        W17735  18.348  26.084  10.154  0.1762 -0.1600 -0.2817
16872W        W17736   5.563  22.721  14.317 -0.2965 -0.0096 -0.0453
16873W        W17737  14.505  17.219  10.346 -0.0619  0.2524  0.0857
16874W        W17738  17.295  21.888   7.264  0.0152 -0.0471 -0.0512
16875W        W17739  10.371  25.538   2.066 -0.2857  0.0997 -0.3413
16876W        W17740  17.708  14.186  24.333  0.2706 -0.1225  0.0064
16877W        W17741   5.298   5.785  20.180  0.4378  0.1425 -0.2897
16878W        W17742  18.235  26.420   5.420 -0.0806 -0.1531 -0.0891
16879W        W17743  16.260   0.382   6.715  0.5931 -0.3174 -0.3414
16880W        W17744   7.241   8.145  12.352 -0.3970 -0.0460 -0.0501
16881W        W17745  27.715  17.237   8.860  0.0782  0.1536 -0.2535
16882W        W17746  23.958  14.987  16.733 -0.1149  0.0945 -0.1209
16883W        W17747  23.367  20.313   0.961  0.0034  0.3658 -0.0837
16884W        W17748   2.749  10.299   9.514 -0.0689 -0.1155 -0.5221
16885W        W17749  19.179  11.737   3.818 -0.0216 -0.1996 -0.1578
16886W        W17750  17.684  23.072   1.195  0.0382 -0.0012 -0.1494
16887W        W17751   7.067  21.919   9.340  0.0070 -0.0237  0.1286
16888W        W17752  10.474  25.502  27.740  0.0732  0.2424  0.0336
16889W        W17753  16.875  21.259   6.740  0.0191  0.1707 -0.0202
16890W        W17754  19.290  11.579  28.909 -0.2498 -0.0329 -0.0956
16891W        W17755  23.670  17.913   6.407 -0.1014  0.0482  0.0412
16892W        W17756  18.252   0.322  17.528  0.1694 -0.0131 -0.3361
16893W        W17757   4.729  21.664   3.454  0.2114 -0.0309  0.1569
16894W        W17758  24.838  14.851   0.226 -0.0459  0.1590 -0.0337
16895W        W17759  17.019   3.291   7.738  0.0664 -0.1338 -0.2756
16896W        W17760   4.784  16.026   4.477  0.0823  0.3005 -0.1462
16897W        W17761  11.314  14.696   4.105 -0.0425 -0.1207 -0.0164
16898W        W17762  18.788   5.708  21.736  0.0476 -0.0484 -0.2487
16899W        W17763  13.465   8.008  25.520  0.1109  0.1738 -0.2455
16900W        W17764   6.099   4.150   9.790 -0.3742 -0.0764  0.0217
16901W        W17765   3.226  16.514  20.320  0.2511  0.1207 -0.1168
16902W        W17766  12.083  11.967   4.581  0.0127 -0.1332 -0.4745
16903W        W17767   2.393  28.747  13.742  0.0619 -0.1011  0.3614
16904W        W17768  14.308   5.163  14.129  0.3585 -0.4575  0.0965
16905W        W17769  21.866  21.010  20.501 -0.0005  0.4412  0.1519
16906W        W17770   1.810  19.747  23.940 -0.1444  0.4794  0.0977
16907W        W17771  15.650  28.753   3.724  0.2908  0.1438 -0.1472
16908W        W17772   0.306  10.318  15.819 -0.0721 -0.0956  0.2618
16909W        W17773  18.177  15.691  25.224  0.2075 -0.3367  0.0733
16910W        W17774  18.677  14.968   5.905 -0.1935 -0.3691  0.2391
16911W        W17775   2.995  10.989  16.640  0.1512 -0.2569 -0.2529
16912W        W17776   3.108  18.843  22.530 -0.0043 -0.0008  0.3391
16913W        W17777   5.985   8.920  14.999  0.2246  0.1062 -0.1603
16914W        W17778   3.777   8.778   3.024 -0.1444 -0.1386  0.0198
16915W        W17779  26.710   4.466   1.920 -0.0921  0.0035  0.1533
16916W        W17780   8.275  26.249  23.629 -0.1823  0.1907  0.2676
16917W        W17781  18.411  25.055  19.965  0.0278 -0.0074  0.0453
16918W        W17782   8.899  21.752   7.321 -0.0815 -0.1391  0.0502
16919W        W17783  13.279   4.466   8.742  0.1813 -0.3731  0.1089
16920W        W17784  14.209  22.125   2.815 -0.2372  0.0249  0.0762
16921W        W17785   8.838   7.992  17.866 -0.1698 -0.0162 -0.2788
16922W        W17786  14.233  18.604   9.620  0.0780  0.2892  0.3273
16923W        W17787  24.607  27.786  13.233 -0.0579  0.0526 -0.1956
16924W        W17788  28.633  23.890  20.299  0.0679  0.1072  0.0932
16925W        W17789   4.387  23.964   5.729 -0.0181  0.2643  0.1003
16926W        W17790  17.273  22.668  22.597  0.0226  0.0069  0.1509
16927W        W17791  13.679  27.970   3.840 -0.0406 -0.3322  0.2244
16928W        W17792  16.700  12.859  17.735  0.3922 -0.0574 -0.0374
16929W        W17793  29.088   2.983   7.842 -0.0165  0.0077 -0.0616
16930W        W17794   9.612   1.727   5.120  0.2585 -0.4473  0.0982
16931W        W17795  26.026  18.506   2.730  0.0405  0.0045 -0.1603
16932W        W17796  21.567  26.905  10.662 -0.0621 -0.2030  0.0903
16933W        W17797  19.340   2.939   6.744  0.0581 -0.2181 -0.1883
16934W        W17798  11.328   5.461  21.047 -0.1231 -0.1188 -0.2101
16935W        W17799  24.612  27.534  23.516  0.4559  0.3523 -0.4748
16936W        W17800  17.240  16.783  15.408 -0.0897  0.2018  0.2615
16937W        W17801  24.902  13.446  10.407 -0.2405 -0.1524 -0.0355
16938W        W17802  12.608  18.614  17.619  0.1293  0.0893  0.2463
16939W        W17803  28.562   3.706  10.579 -0.0149  0.1619  0.2905
16940W        W17804  14.606  21.509  12.526 -0.1326 -0.1951  0.0146
16941W        W17805  14.651  13.527  18.132  0.1912  0.0270  0.0885
16942W        W17806  12.258  11.173  18.482  0.0572 -0.0509 -0.0184
16943W        W17807  11.109  26.504  29.129  0.0841  0.2870 -0.1762
16944W        W17808  22.231  22.916   7.194 -0.1184  0.1961 -0.1044
16945W        W17809  17.764  14.500  27.930  0.2226 -0.1199  0.1437
16946W        W17810  22.674  19.664   5.108  0.0091 -0.0710  0.3433
16947W        W17811  27.884  19.858  11.349 -0.3390  0.3298  0.1144
16948W        W17812  28.969  27.571   2.029  0.2220 -0.0883 -0.0087
16949W        W17813   6.472  28.395  15.350 -0.1335  0.0809 -0.3735
16950W        W17814  22.196  11.589  14.511 -0.0992  0.3665 -0.3295
16951W        W17815  27.700  11.118  22.701 -0.0036 -0.0217  0.3711
16952W        W17816  20.493   9.100  15.905 -0.0683  0.1579  0.1286
16953W        W17817  28.169  15.979  16.153 -0.2195 -0.1646 -0.0421
16954W        W17818  27.482  17.136  26.847  0.1971  0.0150 -0.1618
16955W        W17819  13.453  16.342  25.450  0.0332  0.2030 -0.1855
16956W        W17820  15.215   6.766   7.476  0.2483 -0.4646 -0.2805
16957W        W17821  27.418  23.795  26.680 -0.0254 -0.1364  0.0287
16958W        W17822  25.539  18.409  22.330  0.3838 -0.2373 -0.0596
16959W        W17823   1.984  22.234   6.904  0.1243  0.0486 -0.4040
16960W        W17824  16.420   1.842   2.002 -0.2261 -0.1480  0.0626
16961W        W17825  15.178   8.215  28.531  0.0298 -0.2370 -0.1084
16962W        W17826  18.433  15.066  15.911 -0.0552 -0.0547  0.2966
16963W        W17827  12.078   0.571  24.710  0.2086  0.0136  0.0792
16964W        W17828  20.773   6.852  22.411 -0.0702  0.2142  0.0213
16965W        W17829  25.919  21.267  25.748 -0.0758  0.0846  0.4199
16966W        W17830  18.340   1.401  23.941 -0.1938 -0.0983  0.0130
16967W        W17831  25.221   8.811   9.153 -0.0323  0.2976 -0.4240
16968W        W17832  22.417  18.741  22.074  0.0302  0.1440  0.3856
16969W        W17833  19.124  14.955   8.618  0.2375 -0.1102 -0.1168
16970W        W17834  22.019   8.347  23.890 -0.1808 -0.1733 -0.2372
16971W        W17835   8.306  12.004  13.828 -0.4644  0.1882  0.1882
16972W        W17836  15.689  11.620   4.726  0.3484  0.1641  0.0719
16973W        W17837  12.384   9.585  20.475  0.0056 -0.1425  0.0937
16974W        W17838  25.671  26.343  15.704 -0.2984 -0.1383 -0.0624
16975W        W17839  25.409  10.988   4.497  0.0190 -0.0510  0.3737
16976W        W17840  20.829  12.818  13.627  0.1856  0.1096 -0.0826
16977W        W17841  17.785  12.462  28.051  0.0831 -0.1979  0.0004
16978W        W17842  26.001   3.934  17.379  0.1780 -0.3401 -0.0212
16979W        W17843  14.959   4.569  15.863  0.1609 -0.0940  0.0084
16980W        W17844  27.663  22.192   4.897 -0.3098 -0.3051 -0.0462
16981W        W17845  15.686   6.022  27.711  0.2169 -0.2848  0.1687
16982W        W17846  22.683   6.008  12.611  0.0639  0.1329 -0.0643
16983W        W17847  16.943  25.109   6.702  0.0537 -0.1494  0.5190
16984W        W17848  14.754   0.029  11.124 -0.0628  0.0643 -0.0391
16985W        W17849  16.142   7.839  18.347  0.0853 -0.2115  0.0151
16986W        W17850   4.501  18.532   9.314 -0.0271 -0.2025 -0.0627
16987W        W17851  16.388  11.408  23.313  0.0650  0.1330 -0.1143
16988W        W17852   8.570   5.701  23.527  0.0371  0.0415  0.2051
16989W        W17853  15.435  15.985  11.477 -0.0074  0.2238  0.1899
16990W        W17854  18.329   7.509  12.229 -0.0338 -0.2879  0.1696
16991W        W17855   5.368  23.201   0.463  0.1039 -0.1801  0.0509
16992W        W17856  22.247  12.437   9.490  0.1542  0.1717  0.0967
16993W        W17857  22.793   9.011   1.883 -0.1576 -0.1030 -0.2373
16994W        W17858  13.094  24.775   5.458  0.0326  0.0458 -0.0916
16995W        W17859  10.485   7.439  10.250 -0.2125  0.4434 -0.0772
16996W        W17860   4.404  26.276   2.150  0.3015 -0.2108 -0.3781
16997W        W17861  11.261  17.404  16.579 -0.0516 -0.0420 -0.3000
16998W        W17862  16.208  20.698  27.358  0.0352 -0.2812  0.3561
16999W        W17863  21.380   9.617  18.913 -0.2737 -0.0971 -0.2377
17000W        W17864  20.511   9.970   3.565  0.2122 -0.0661  0.3535
17001W        W17865  10.433  19.152   8.021 -0.0188  0.2729 -0.0956
17002W        W17866  20.477   2.991  20.122  0.0330 -0.2215  0.1884
17003W        W17867  17.991   7.006   0.348 -0.0129  0.0929  0.0176
17004W        W17868  15.534  16.236   9.240  0.0670 -0.2467 -0.1609
17005W        W17869   3.462  11.147  16.787  0.3004  0.1411  0.1385
17006W        W17870  15.246  14.385  14.789  0.1677  0.2570 -0.0717
17007W        W17871   6.366   5.862  26.249 -0.2033 -0.2036  0.4482
17008W        W17872   0.493   8.592  19.955 -0.0709  0.2245 -0.1415
17009W        W17873  10.081  25.275   0.211  0.1499 -0.0171 -0.1031
17010W        W17874  25.928   2.447  21.466  0.4264  0.2062  0.0038
17011W        W17875  16.735  16.225  12.942  0.5455  0.5757  0.1796
17012W        W17876  22.690  20.311  24.742 -0.0912 -0.1455 -0.3335
17013W        W17877  15.736  27.694  10.578 -0.0926  0.2652  0.0769
17014W        W17878  15.520   3.223  27.852  0.0102 -0.1494 -0.0998
17015W        W17879   6.665  18.508  14.472  0.0881  0.0825 -0.0980
17016W        W17880  18.822  13.880  13.222 -0.1675  0.1283  0.0944
17017W        W17881   6.330   4.334  26.972  0.3206 -0.0634  0.2267
17018W        W17882  22.401  15.399   7.357  0.0321  0.0077  0.2243
17019W        W17883  18.164  13.093  26.861  0.3559  0.2453 -0.0469
17020W        W17884  16.142  10.799   2.926 -0.0595  0.2426 -0.1902
17021W        W17885  19.773  27.494  16.424 -0.0185  0.1901 -0.0192
17022W        W17886   9.959   1.242  16.719  0.1119  0.0409 -0.0611
17023W        W17887   9.533   4.414  22.619 -0.1087 -0.1514 -0.1066
17024W        W17888  10.017  24.850  20.854  0.3838 -0.0363 -0.1730
17025W        W17889  26.279  19.113  18.363 -0.0981  0.1388  0.0356
17026W        W17890  14.397  11.546   4.883 -0.1505 -0.1242  0.0621
17027W        W17891  16.339   8.217   9.598 -0.0063  0.0615 -0.0790
17028W        W17892   2.525  20.899   1.202 -0.1525  0.2218  0.1976
17029W        W17893   7.540   3.910  13.052 -0.3845 -0.1293  0.2128
17030W        W17894  12.291   9.627  19.841  0.2338  0.1773  0.1072
17031W        W17895   2.626   9.401  20.966 -0.1706  0.1340  0.0943
17032W        W17896   3.142   0.819  22.394  0.0352  0.2576  0.4720
17033W        W17897   0.625  14.540   8.992  0.1128 -0.1633 -0.2012
17034W        W17898  25.866   4.220   9.720  0.1093 -0.1893  0.2602
17035W        W17899  11.614  13.296  26.372 -0.1032 -0.2274  0.0937
17036W        W17900   9.539   1.350  21.794  0.0117  0.0027 -0.2655
17037W        W17901  10.537  28.940   0.696 -0.3522 -0.0179  0.0944
17038W        W17902  12.453  26.251  15.043  0.1731  0.3331  0.2257
17039W        W17903  28.954  11.757  21.169 -0.0467 -0.0753  0.0868
17040W        W17904   6.328  11.748  15.559  0.2300 -0.0407 -0.0542
17041W        W17905  19.836  26.332  20.286 -0.3615  0.0405  0.1353
17042W        W17906  16.750  12.449  15.072 -0.1438 -0.1059 -0.1961
17043W        W17907  11.035   7.983   6.573  0.2587  0.1391 -0.0771
17044W        W17908   3.386   8.269  22.364  0.1234  0.2778 -0.1585
17045W        W17909  27.728  28.503   6.641  0.1606  0.2393 -0.3304
17046W        W17910  16.649   8.534  10.784  0.2308 -0.0862  0.1960
17047W        W17911   9.716   8.433  25.989 -0.2451 -0.1126 -0.0756
17048W        W17912   0.143  21.397  21.305  0.0074  0.1545  0.0242
17049W        W17913  26.476  15.316   6.417  0.1530  0.1785  0.0404
17050W        W17914  19.970   2.896  10.861 -0.0694 -0.0502  0.1594
17051W        W17915  23.284  15.999  12.629 -0.3169  0.1139 -0.0822
17052W        W17916   1.650  27.006  27.064  0.1187 -0.1008 -0.0567
17053W        W17917  24.470  13.012   2.345  0.0736 -0.0843 -0.0729
17054W        W17918   0.372  29.033  13.176 -0.2630  0.3019 -0.1143
17055W        W17919  27.498   2.129   8.935 -0.2597  0.0703  0.0544
17056W        W17920  22.793  20.065  13.772 -0.0377 -0.0926  0.0398
17057W        W17921  28.122  17.302  18.138 -0.0397 -0.3239 -0.1850
17058W        W17922   0.287   9.041  20.791  0.0744  0.3917 -0.0824
17059W        W17923  16.582  20.784  22.797  0.3283 -0.0652 -0.0948
17060W        W17924  17.519  12.646  10.661 -0.1851  0.2626  0.0588
17061W        W17925  22.751  15.897  17.199 -0.1203  0.1838  0.2263
17062W        W17926   6.988   2.977  22.176 -0.3008 -0.3084  0.1319
17063W        W17927  22.228  17.524  28.873  0.0697  0.3839  0.0159
17064W        W17928   5.322  26.518  18.824  0.1553 -0.3864 -0.0054
17065W        W17929  20.695  17.690  10.366  0.1803 -0.0323  0.1136
17066W        W17930   8.320  22.469  12.401  0.0479  0.2233  0.2278
17067W        W17931   9.250   8.428  22.618 -0.3040 -0.1421  0.2834
17068W        W17932  19.326   0.566   5.968 -0.1967 -0.0400 -0.2233
17069W        W17933  16.041  23.064  16.151 -0.0996  0.1667  0.2617
17070W        W17934  27.086  10.569  13.734 -0.0048 -0.2660  0.0494
17071W        W17935  23.011   7.409   7.658  0.0808 -0.2142  0.0156
17072W        W17936  11.405   5.392  20.068 -0.2352  0.2055 -0.3661
17073W        W17937  26.314  21.209  22.529  0.2969  0.2616  0.1970
17074W        W17938  23.599   0.902   6.054 -0.0812  0.1944 -0.2632
17075W        W17939  13.646  17.511   2.646  0.2989 -0.2824 -0.0317
17076W        W17940   8.811   6.969   6.045  0.2374  0.0452 -0.0829
17077W        W17941  13.995  24.051   6.108  0.2706 -0.1193 -0.1672
17078W        W17942  21.044  15.967  22.702 -0.2622  0.0945  0.1485
17079W        W17943  17.654  19.142   2.783 -0.1318 -0.1540 -0.0426
17080W        W17944  12.824  15.278  21.620  0.3105  0.0358  0.1882
17081W        W17945  19.239  22.370  16.908  0.0885  0.1416  0.0186
17082W        W17946  14.285   2.881  15.865  0.1409  0.0224  0.1952
17083W        W17947   6.722  12.201  14.308  0.1732 -0.1932 -0.0833
17084W        W17948  14.915   8.189  19.028 -0.1776 -0.0807 -0.0817
17085W        W17949   5.257  14.953   9.581 -0.2112  0.2528 -0.0108
17086W        W17950   5.079  17.914   8.214  0.0883 -0.0346  0.0243
17087W        W17951   6.083  20.733   4.720  0.2811 -0.0308  0.0958
17088W        W17952  13.176  16.337  19.120 -0.0928  0.0644  0.0761
17089W        W17953  21.454   3.462  24.561 -0.0552  0.0872 -0.1358
17090W        W17954  14.588  19.425  17.976  0.1126  0.0537  0.1812
17091W        W17955  16.795  12.607  25.948  0.2702 -0.2842 -0.0072
17092W        W17956  12.299  17.779  10.928  0.3459  0.2075 -0.1634
17093W        W17957   4.575  12.143  28.010 -0.0433  0.3168  0.2831
17094W        W17958   8.587   9.319  21.221 -0.0291  0.0210 -0.0707
17095W        W17959   5.558  26.224  16.345  0.1738  0.0526 -0.3509
17096W        W17960  28.309   1.660  15.214  0.0928 -0.2389  0.1496
17097W        W17961  10.981  17.144  13.449 -0.0028  0.0944 -0.1237
17098W        W17962  13.438  13.461  15.032  0.0336  0.2137 -0.1948
17099W        W17963  14.785  13.864  22.483 -0.2589 -0.0239 -0.1013
17100W        W17964  18.625   4.019  18.958  0.1253 -0.2055 -0.1107
17101W        W17965   2.586  12.908  26.818  0.0791  0.0221  0.5401
17102W        W17966  24.754  24.780  26.481 -0.3430  0.0435  0.1957
17103W        W17967   6.126  10.010  18.587  0.1856 -0.1197 -0.1428
17104W        W17968  22.749  13.411   1.661  0.1169 -0.0096 -0.0844
17105W        W17969  18.618  16.306   5.731  0.0943 -0.1368 -0.1428
17106W        W17970   8.552   3.300  15.224  0.1897  0.0683 -0.1543
17107W        W17971   0.784   8.479  18.675 -0.0676  0.0401  0.0003
17108W        W17972  27.155  19.113  18.580  0.0337 -0.4010  0.1327
17109W        W17973  16.477  28.668  21.140  0.1070  0.4943 -0.2636
17110W        W17974  22.985   2.391  16.652  0.0814 -0.1856  0.0082
17111W        W17975  22.255  11.903  25.304  0.2447  0.1706  0.0774
17112W        W17976  22.845   8.419   3.315  0.3147  0.1335  0.3517
17113W        W17977   0.773  20.566  14.751  0.0897  0.0180  0.0798
17114W        W17978  28.701  22.207   3.020 -0.0298 -0.1071 -0.5514
17115W        W17979   6.711   7.351   3.655  0.3940  0.0864  0.1046
17116W        W17980   7.861   1.231  25.285  0.0927  0.3362 -0.0722
17117W        W17981  18.387  13.356   5.131 -0.2857 -0.2448  0.2732
17118W        W17982  23.709  16.318  15.983 -0.0283 -0.1178 -0.2168
17119W        W17983  13.926   9.879   6.562  0.0566 -0.1669  0.2513
17120W        W17984   9.476   8.811   9.265 -0.0078  0.0018  0.3636
17121W        W17985   4.862  11.608  25.506 -0.0785 -0.0151  0.1341
17122W        W17986   8.715  20.141  26.006  0.1057 -0.3266 -0.1331
17123W        W17987  18.617   4.306   6.935 -0.0412  0.0950  0.0753
17124W        W17988   7.064  10.211  18.861  0.0579  0.1448  0.1546
17125W        W17989  27.389  17.591  18.787  0.1700  0.0519 -0.1648
17126W        W17990  12.578  19.698   6.220  0.1368  0.1862  0.0478
17127W        W17991  18.560   1.100  18.484  0.1863 -0.4151  0.4039
17128W        W17992   7.835  19.925   2.619  0.2342 -0.1377  0.0109
17129W        W17993  20.387  25.926  27.329  0.3442  0.0852  0.2312
17130W        W17994  17.556  22.192   1.598 -0.0671 -0.2460  0.3589
17131W        W17995  21.930  16.246  16.955 -0.1149 -0.0458 -0.2441
17132W        W17996   5.960  27.613   7.412  0.0876  0.2166 -0.1626
17133W        W17997  21.715   6.562  27.416  0.0135 -0.1946  0.0493
17134W        W17998   8.866   7.628  28.798  0.1965 -0.1471  0.0189
17135W        W17999  28.534  10.161  22.394 -0.1909  0.1220 -0.1301
17136W        W18000  17.401   2.077  25.994 -0.0409  0.0656 -0.0699
17137W        W18001   1.260   4.137  21.864 -0.0950  0.1487  0.1378
17138W        W18002   8.477  11.488  22.712 -0.1005 -0.2442 -0.2854
17139W        W18003  19.982   5.188  14.164  0.1710  0.0178  0.1884
17140W        W18004  17.424  18.728  15.278 -0.3247  0.1734  0.3307
17141W        W18005  19.159  19.445  20.702 -0.0611 -0.1064  0.1691
17142W        W18006  18.388  14.600   8.815 -0.0230 -0.1269 -0.2513
17143W        W18007  20.008  13.175   7.472 -0.0262 -0.1363 -0.0099
17144W        W18008  15.524  17.489  23.059 -0.2439  0.0966  0.1917
17145W        W18009   9.874  28.881  14.812  0.2682 -0.0080 -0.2684
17146W        W18010  24.049   5.938  20.200  0.1131 -0.4366 -0.1608
17147W        W18011   8.232  20.329  13.222 -0.1921  0.0086 -0.0301
17148W        W18012  20.489  23.628   8.724  0.1797 -0.2798  0.2119
17149W        W18013  28.900  28.097  16.125  0.0591 -0.1169  0.0180
17150W        W18014   9.806  27.445   7.506  0.2044 -0.0026  0.2133
17151W        W18015  21.709  10.468  22.612 -0.2076 -0.3541 -0.2249
17152W        W18016  12.065   5.914   6.770 -0.0087  0.0793  0.1364
17153W        W18017  17.160  26.119   1.934  0.2216 -0.2651  0.2259
17154W        W18018  17.191   0.773  16.769 -0.1190 -0.0771 -0.2176
17155W        W18019  14.996  27.992  11.243 -0.2071  0.2708  0.0235
17156W        W18020  13.973  22.142  25.637  0.0051 -0.1262  0.3170
17157W        W18021   3.803  13.602  11.356  0.1081 -0.1279  0.1268
17158W        W18022   5.013  17.399  23.550  0.1008 -0.0275  0.0162
17159W        W18023  16.812  11.393  12.406 -0.0410  0.1292  0.0540
17160W        W18024   3.681  17.011  17.971  0.0206 -0.0242 -0.1475
17161W        W18025  24.827  26.972   8.627  0.0446 -0.0989 -0.0392
17162W        W18026  18.945  26.232  16.965  0.3161  0.0761  0.0601
17163W        W18027  16.597  24.771  25.938  0.1049 -0.0066  0.2311
17164W        W18028  17.846  20.619  23.937  0.0890 -0.1705 -0.0803
17165W        W18029   5.630  18.044  18.782 -0.1338 -0.0140  0.1878
17166W        W18030   1.339  23.264  21.063  0.0688 -0.1099 -0.0628
17167W        W18031  12.775  11.513  12.505  0.2076 -0.0969 -0.0464
17168W        W18032  14.429  20.711   5.097 -0.1154  0.1142  0.0950
17169W        W18033  17.791  11.982  27.099  0.1301 -0.1439 -0.1044
17170W        W18034  18.359  17.206  13.580 -0.0650 -0.4803  0.2246
17171W        W18035   4.343   6.369  25.428  0.4463 -0.0522 -0.0187
17172W        W18036   9.358  25.654  24.119 -0.3392  0.2951  0.3533
17173W        W18037  10.950  20.243  17.328 -0.1021 -0.0962 -0.0860
17174W        W18038  25.355  20.992  11.691 -0.1513 -0.2173  0.1780
17175W        W18039  11.256  26.581  10.921 -0.1203  0.3539  0.0614
17176W        W18040  23.394   0.504  22.603 -0.3375 -0.1070 -0.0614
17177W        W18041   6.364  24.369  20.626  0.1268  0.0714  0.0921
17178W        W18042   9.128  25.619   0.783 -0.0440 -0.0178  0.4417
17179W        W18043  16.760  14.090   6.048  0.0540  0.1708 -0.0385
17180W        W18044  23.326  19.277  20.709 -0.5422 -0.1393 -0.0460
17181W        W18045  13.194   4.555   7.274 -0.1469  0.3198  0.1197
17182W        W18046   7.367  15.359   1.344  0.2351  0.0847  0.1869
17183W        W18047   9.370  15.653  18.112  0.2044 -0.0236 -0.0444
17184W        W18048  19.669   7.786  16.056  0.2222 -0.1627  0.1941
17185W        W18049  28.285  20.234  13.879 -0.0975  0.1786 -0.1403
17186W        W18050  25.268  25.360   7.431  0.1250 -0.0256  0.0864
17187W        W18051  17.645  14.594  17.206 -0.0569  0.0261 -0.4170
17188W        W18052   8.670   0.153  26.005  0.2275 -0.1132 -0.1755
17189W        W18053  15.319   0.940  24.013 -0.0296 -0.2033 -0.2419
17190W        W18054  15.651  18.175   8.228  0.0898 -0.2017  0.2500
17191W        W18055   0.747  29.012  17.612 -0.1889 -0.0406 -0.0363
17192W        W18056   9.382  26.128  18.792  0.3661  0.4324 -0.1941
17193W        W18057  12.969  20.489   9.130 -0.0953 -0.3682  0.3230
17194W        W18058  24.105  24.369   6.375  0.2061 -0.0845  0.1415
17195W        W18059  14.475   4.937  10.900 -0.1619  0.3912  0.0993
17196W        W18060  12.122  18.595  13.293 -0.3312 -0.1464 -0.2729
17197W        W18061  24.842  17.565  25.606  0.0737  0.2344 -0.1778
17198W        W18062  15.946   2.043   5.578  0.1210 -0.0735 -0.0227
17199W        W18063   4.441  18.936   5.009 -0.0486 -0.1152 -0.1913
17200W        W18064  19.853  16.221  19.513 -0.2552 -0.0840 -0.0469
17201W        W18065  28.051  12.919   5.937 -0.0657 -0.1253 -0.1343
17202W        W18066   4.180  22.386  17.621  0.1719  0.0242  0.1032
17203W        W18067  28.626  15.526  11.741 -0.0687  0.0068 -0.2509
17204W        W18068  25.225   0.786  22.798  0.1006 -0.0013 -0.0208
17205W        W18069  24.926   3.398  15.897  0.2290  0.1550  0.1110
17206W        W18070  15.561   9.681  14.479  0.2539 -0.2162  0.1094
17207W        W18071  20.143  28.730  20.205 -0.0542 -0.2171  0.0747
17208W        W18072  17.136  23.742  11.615 -0.0142  0.2420 -0.0972
17209W        W18073  19.518  11.494  14.218 -0.0505 -0.0517 -0.2183
17210W        W18074  12.126  22.183   3.534  0.1357 -0.3330 -0.1293
17211W        W18075  27.836  13.144  26.887 -0.2071  0.0276  0.2637
17212W        W18076  13.779  15.141  17.023 -0.1758  0.1237 -0.0268
17213W        W18077  18.496  10.735   1.926 -0.0837  0.2232  0.2886
17214W        W18078  22.770   0.019  26.416  0.0285  0.0094 -0.1419
17215W        W18079  12.818  27.943  10.292 -0.1370  0.2085 -0.2333
17216W        W18080  15.127  20.273  20.849  0.1345 -0.3688  0.1162
17217W        W18081  18.329  27.364  14.625  0.1762 -0.0197  0.0322
17218W        W18082   3.983  23.752   4.811  0.0856  0.3207 -0.1913
17219W        W18083   4.182  16.726   7.776 -0.0018  0.0915 -0.1148
17220W        W18084  10.455   7.285  27.523 -0.0145 -0.2048  0.0747
17221W        W18085   5.727  25.788  23.887  0.1136 -0.0143  0.1092
17222W        W18086  25.599  10.659  10.430 -0.0228  0.2406  0.3411
17223W        W18087   0.552   2.458  22.959 -0.0288  0.1944 -0.0305
17224W        W18088   0.741  26.131  14.301 -0.1089  0.4607  0.0992
17225W        W18089  21.476  23.260  18.493  0.0083 -0.0672  0.0568
17226W        W18090   9.629   6.889  23.176 -0.1090  0.3894 -0.3996
17227W        W18091   8.746  13.769  16.483 -0.1120 -0.1328  0.2398
17228W        W18092  16.800  12.324  18.432 -0.4148  0.1754  0.1122
17229W        W18093  28.280   9.415  12.195  0.0703  0.2524  0.2357
17230W        W18094  24.343   9.083   1.586 -0.1099  0.1875  0.0404
17231W        W18095  11.467  22.661   8.979 -0.1030  0.0339  0.1697
17232W        W18096  16.470  21.891   8.600 -0.3018  0.1071  0.1552
17233W        W18097  13.439  24.976   6.548  0.0464  0.2189  0.3666
17234W        W18098  13.565  13.849  11.230 -0.3414 -0.0870  0.2019
17235W        W18099  15.354  14.191  10.895  0.0037 -0.1265 -0.5038
17236W        W18100   6.773   5.695  28.878  0.1543 -0.3869  0.0310
17237W        W18101  19.085  26.363  12.945  0.0975  0.0051 -0.0089
17238W        W18102  25.627  18.461  17.848 -0.0027 -0.0971 -0.3315
17239W        W18103   5.876  28.061   0.154  0.0579  0.0005 -0.0527
17240W        W18104  27.359   6.785  19.601  0.1238 -0.1125  0.0274
17241W        W18105  24.500  26.517  16.182 -0.0045 -0.0609  0.1070
17242W        W18106  20.625  10.500  19.803  0.1660 -0.0970  0.1641
17243W        W18107  11.730   1.350  18.042 -0.0453  0.1642 -0.2556
17244W        W18108  13.589  25.528   3.900  0.0959 -0.0678 -0.0239
17245W        W18109  25.351  26.420  13.840  0.0710 -0.3348  0.0782
17246W        W18110  24.423  27.134   1.385  0.0128 -0.0844 -0.0497
17247W        W18111   5.456  10.608  15.600 -0.1911 -0.0484  0.0896
17248W        W18112   5.279  27.673  22.121  0.0504 -0.2395 -0.2819
17249W        W18113   4.731   8.660   6.845 -0.2805 -0.1256 -0.0706
17250W        W18114   8.926  27.244  16.485 -0.1128  0.0000 -0.1381
17251W        W18115  19.754   5.760   3.712 -0.1827  0.2336 -0.0647
17252W        W18116  27.076  23.055  16.667  0.2258  0.0499 -0.1233
17253W        W18117  16.284  25.223  11.076 -0.2525  0.1658  0.0747
17254W        W18118  22.499  28.230   6.173  0.3102 -0.1063  0.2486
17255W        W18119  17.971  11.080  15.818  0.1779 -0.0537 -0.1003
17256W        W18120   5.585  26.723  28.799  0.0444 -0.1955 -0.0217
17257W        W18121   4.899  10.925  14.450  0.0329 -0.4845 -0.0722
17258W        W18122  18.344  24.011  17.164 -0.2195 -0.0755  0.1029
17259W        W18123  22.923   5.036  18.850  0.1289  0.1012 -0.1706
17260W        W18124  13.891  20.239  14.912 -0.2860  0.1982 -0.0294
17261W        W18125  17.778  24.421   6.304 -0.1503 -0.1650  0.1138
17262W        W18126  27.168  14.814  18.672 -0.0295  0.0685 -0.2154
17263W        W18127  21.004  21.933  10.163 -0.0048 -0.1298  0.0063
17264W        W18128  10.496  11.655  26.116  0.1454  0.0995  0.1603
17265W        W18129  10.691  20.663  17.464  0.0612 -0.1601 -0.0489
17266W        W18130   7.977  19.563   8.245 -0.0521 -0.1656 -0.1661
17267W        W18131  12.294  16.006  12.787  0.3480 -0.1530  0.0309
17268W        W18132   7.298   0.205  25.659 -0.1889 -0.0995 -0.0420
17269W        W18133  24.748  17.424  13.200  0.2415 -0.0708 -0.0542
17270W        W18134  25.142   6.886   3.185 -0.1521 -0.0742  0.2884
17271W        W18135   5.181   5.142   8.282 -0.1292 -0.1833  0.2121
17272W        W18136   3.280  12.309   7.587  0.1430 -0.2618  0.1245
17273W        W18137   3.231   5.333   6.670 -0.1538  0.0819 -0.0031
17274W        W18138  22.639  21.665  15.500 -0.0408 -0.2163 -0.2140
17275W        W18139   7.065  27.966  18.285 -0.2078 -0.1392  0.1983
17276W        W18140   0.786  27.151  28.012  0.1057 -0.2580  0.0476
17277W        W18141  23.377  15.978   3.862  0.2968  0.4917  0.0886
17278W        W18142  11.332  19.351  12.721  0.1538 -0.1196 -0.2277
17279W        W18143  18.639   9.375   0.920 -0.0491  0.2214 -0.3386
17280W        W18144  12.027  11.631  20.166 -0.2799  0.2352  0.1453
17281W        W18145   7.457  27.185  22.952  0.1147 -0.1235 -0.0553
17282W        W18146  22.947  28.583   8.948  0.0499 -0.1407 -0.0664
17283W        W18147  24.631  14.318  18.890  0.1304  0.0727  0.0447
17284W        W18148  19.950  19.078  21.308 -0.2321 -0.0704  0.1618
17285W        W18149  23.573  11.984  15.634 -0.1097 -0.0413 -0.1343
17286W        W18150  16.356  10.281  22.042 -0.0805 -0.1467 -0.2864
17287W        W18151  10.143   2.474  12.664 -0.0870 -0.1083 -0.1178
17288W        W18152  11.983  15.924  22.606  0.1106 -0.1763  0.2054
17289W        W18153   5.226  28.587  24.319  0.1183  0.1016 -0.3676
17290W        W18154  12.050  19.311  16.915  0.0615 -0.1096  0.4168
17291W        W18155  20.283   7.363  22.590  0.0299 -0.1760 -0.0889
17292W        W18156  20.033  12.149  26.425 -0.3305  0.1129 -0.2497
17293W        W18157  17.795  12.322  18.230 -0.0167  0.0336 -0.0999
17294W        W18158   5.113   1.996  25.206  0.2528 -0.1368 -0.2865
17295W        W18159  10.885  25.308  17.582  0.2496  0.2938 -0.0600
17296W        W18160  13.746  23.110  20.466  0.0107 -0.3655 -0.4482
17297W        W18161   9.973   3.560  20.985  0.0055 -0.2156  0.1004
17298W        W18162  15.839   6.484  23.166  0.1260  0.0715  0.4373
17299W        W18163  22.600  28.761  26.868  0.0977  0.4529  0.1692
17300W        W18164   6.044  24.031  17.138 -0.1778  0.1488  0.0424
17301W        W18165   9.679   5.350  12.574  0.0869  0.0377  0.0449
17302W        W18166  15.364   3.026   6.280 -0.0679  0.2597  0.0793
17303W        W18167   5.477  10.124  15.286  0.0078  0.2768  0.2514
17304W        W18168  24.686  19.265  12.814 -0.2755  0.2820 -0.0111
17305W        W18169  10.580  10.525  19.541  0.1455  0.0991 -0.2153
17306W        W18170   1.948  10.619   4.959  0.0297  0.2150  0.1372
17307W        W18171  11.140   7.302  24.503 -0.3256  0.0798  0.4018
17308W        W18172   6.948  14.482  15.808 -0.1213  0.0148 -0.1647
17309W        W18173   4.215  16.281  18.153  0.1777  0.0300  0.0692
17310W        W18174  12.436   5.309  20.697  0.1087 -0.1419 -0.3285
17311W        W18175  14.935   9.501  22.932  0.0624 -0.1136 -0.4241
17312W        W18176  11.921  19.399   9.327 -0.0362 -0.0327 -0.0968
17313W        W18177  18.685  20.071  22.311  0.2808 -0.2703  0.1143
17314W        W18178  28.036  27.098   1.634  0.1164 -0.0436  0.1356
17315W        W18179   0.147  18.923  21.848  0.3382  0.0369  0.0498
17316W        W18180   2.910  18.025  27.403  0.1050 -0.0562 -0.0741
17317W        W18181   4.276  14.427  23.342 -0.0331  0.0802 -0.0317
17318W        W18182  24.758  26.043   4.123 -0.2055  0.0698  0.0441
17319W        W18183   2.229   7.525   1.698  0.2643  0.2069 -0.2076
17320W        W18184  24.247  23.921   1.243  0.0407 -0.2329 -0.0689
17321W        W18185   8.271  12.471  20.099 -0.1220  0.0699  0.0113
17322W        W18186   9.818  19.625  24.138 -0.3328 -0.0886  0.0079
17323W        W18187   9.686  20.356  22.202  0.0580 -0.0359 -0.0772
17324W        W18188  19.600  11.684   2.309 -0.0766  0.2206  0.1564
17325W        W18189  11.903   8.742  23.341  0.1875 -0.3472  0.1928
17326W        W18190   9.316  14.622  23.767 -0.0521 -0.1139  0.5517
17327W        W18191  17.530  27.716   1.545 -0.2855  0.1292 -0.0389
17328W        W18192  27.394  14.306  24.555 -0.1635  0.1807  0.1905
17329W        W18193   5.785  15.920  22.289  0.0799  0.1414  0.1587
17330W        W18194  26.556   0.444  12.448 -0.0237  0.0556 -0.1029
17331W        W18195  12.765  14.530  22.343  0.0720  0.2211 -0.1105
17332W        W18196  12.161  11.256  11.756 -0.1603  0.2724 -0.2189
17333W        W18197  17.646   6.160  28.170 -0.5931  0.2193 -0.0054
17334W        W18198  18.870  11.703  11.417 -0.1588  0.0772  0.0922
17335W        W18199  13.001  18.147  16.583 -0.2679 -0.2429  0.2741
17336W        W18200  17.926  18.948   0.582  0.1552  0.1190  0.0044
17337W        W18201   7.692  17.969  14.735  0.0182  0.0418  0.0806
17338W        W18202  12.752  26.663  27.863 -0.0700  0.0398  0.1237
17339W        W18203  23.534  16.627  25.689  0.2612  0.0333 -0.0103
17340W        W18204   8.486  26.346   1.895 -0.3823  0.1000  0.1120
17341W        W18205  17.391  14.145  27.260  0.0551 -0.1694 -0.2319
17342W        W18206  25.569   4.022  16.956  0.2264 -0.0663 -0.1761
17343W        W18207   9.489  21.665  15.423  0.2163  0.0878 -0.1029
17344W        W18208  28.416  20.064  16.825  0.2191  0.1156  0.1285
17345W        W18209   8.933  16.094  11.231  0.0020 -0.0598 -0.0925
17346W        W18210   6.610  19.654   1.872  0.1252  0.2984 -0.2830
17347W        W18211  11.061  26.129  10.117 -0.2529 -0.0681  0.1894
17348W        W18212  13.213   7.238   4.218 -0.0651  0.1097 -0.2164
17349W        W18213   2.666  22.037  22.842 -0.2229 -0.2557 -0.3696
17350W        W18214  13.767   3.340   4.353  0.1653 -0.1573 -0.0061
17351W        W18215  12.379   0.243  21.696  0.0181 -0.2175  0.0965
17352W        W18216  27.264  16.310  10.681  0.0048 -0.1128  0.0654
17353W        W18217   9.695  23.925   5.352  0.2860  0.1871  0.0188
17354W        W18218  23.770  27.559  18.133 -0.1661  0.3283 -0.1517
17355W        W18219  23.634  10.417  19.798 -0.3044 -0.1411  0.0533
17356W        W18220   1.801  22.861  13.551  0.1137  0.3118  0.0531
17357W        W18221  11.126  10.070  22.421 -0.1144  0.1770  0.0564
17358W        W18222  17.100  18.814  25.414 -0.4240 -0.1351  0.0998
17359W        W18223  13.004  13.303  15.174 -0.1428  0.5187 -0.1266
17360W        W18224  21.452   0.055  24.393  0.1487  0.1576 -0.1372
17361W        W18225  18.641  24.522  22.134  0.3717  0.0591  0.0019
17362W        W18226   1.812   8.457  11.606 -0.1278 -0.2623 -0.0234
17363W        W18227  16.178   7.150   6.893 -0.3247 -0.1298 -0.1550
17364W        W18228  19.696  23.363  17.729 -0.1337  0.1140 -0.0074
17365W        W18229   4.294  25.285  19.197 -0.0463 -0.1307 -0.1500
17366W        W18230   9.905  14.990  25.876  0.3949 -0.1729 -0.3100
17367W        W18231  11.926  13.872  12.991 -0.1295  0.0040 -0.0526
17368W        W18232  12.101  14.621  27.372  0.0058 -0.0677  0.0469
17369W        W18233  18.101   0.973  13.435 -0.0216  0.0862  0.0908
17370W        W18234   7.999   9.957  18.463 -0.2053 -0.0511 -0.0472
17371W        W18235   7.210   7.836  23.069  0.0106  0.0996 -0.2531
17372W        W18236  21.220   2.438  10.645 -0.3541 -0.1624  0.0806
17373W        W18237  27.156  22.390  17.770 -0.0931 -0.5098  0.1269
17374W        W18238  27.962  25.984  11.892  0.0703  0.3781 -0.0691
17375W        W18239   3.522  10.691  10.542 -0.1459  0.0651  0.0431
17376W        W18240  13.989   8.912  10.936 -0.0264  0.0215  0.0243
17377W        W18241  20.678  18.144  23.093 -0.1648 -0.1397  0.0749
17378W        W18242  22.718  13.580  26.240  0.0454  0.0093 -0.1424
17379W        W18243  28.930  22.776  13.932  0.0926  0.3095  0.0630
17380W        W18244  28.551   1.739  16.657  0.0740  0.0004 -0.1134
17381W        W18245  19.916  16.317   8.053  0.0638  0.0530  0.2890
17382W        W18246  15.691  28.298  10.114  0.0550  0.0665  0.1963
17383W        W18247  15.424  21.679  22.623  0.1094 -0.2121  0.2426
17384W        W18248  26.018  27.822  11.680  0.0602 -0.1371  0.2778
17385W        W18249  23.442  24.844  27.929  0.0684 -0.1373 -0.0311
17386W        W18250  17.311   2.845  14.866  0.2706 -0.1506 -0.3114
17387W        W18251  13.575   9.922   5.747 -0.0137  0.0386  0.2004
17388W        W18252  22.618  17.511  24.320  0.1035  0.0666  0.1802
17389W        W18253  21.998  10.906  10.671 -0.1829  0.0416 -0.0564
17390W        W18254   3.128  11.144  25.656  0.0993  0.1366 -0.1315
17391W        W18255  11.067  11.339  27.039 -0.1132  0.2520  0.0743
17392W        W18256  26.109   9.633  20.585 -0.1209 -0.0925  0.2255
17393W        W18257  21.337  27.405   0.861 -0.0788 -0.2581  0.0950
17394W        W18258  21.775  27.133  19.219 -0.1939 -0.0121  0.2554
17395W        W18259   2.167   3.361   6.184 -0.0366 -0.1814  0.0446
17396W        W18260  12.983  18.065  29.144 -0.1547 -0.2245 -0.3011
17397W        W18261  14.063  26.534  23.951  0.1730 -0.1550  0.0762
17398W        W18262  14.480   9.147   1.117 -0.0553 -0.0413 -0.1382
17399W        W18263  18.297   9.726  17.209 -0.2018  0.0163  0.0918
17400W        W18264  16.433   7.263  12.607  0.3433  0.1108 -0.2874
17401W        W18265  24.255  10.334   8.436  0.2337  0.1545  0.2382
17402W        W18266  24.664  11.422  27.295 -0.1540  0.3391  0.0622
17403W        W18267   5.033  26.084  11.524 -0.3953  0.0516 -0.1368
17404W        W18268  23.074   1.646  23.943 -0.3747 -0.1074 -0.2409
17405W        W18269  27.212   4.951   3.659  0.0729 -0.1763  0.0775
17406W        W18270  25.716  16.424  22.253  0.0546  0.1362 -0.0103
17407W        W18271   4.784  15.435  25.818 -0.0806 -0.1114  0.3928
17408W        W18272   7.285  23.382  25.134  0.0668 -0.0091 -0.1934
17409W        W18273  27.569  12.053   1.129 -0.3737  0.0671 -0.0778
17410W        W18274   6.630  22.247  17.238  0.2690 -0.3157 -0.1546
17411W        W18275  26.654   9.778   8.705 -0.1549  0.1429  0.1772
17412W        W18276   0.600   1.341  21.601 -0.2464  0.1002 -0.0102
17413W        W18277  24.116  24.065  11.243  0.3654  0.1978  0.2055
17414W        W18278  16.702  14.797  16.880  0.2268 -0.2258 -0.0918
17415W        W18279  21.447  11.311  10.875  0.0787 -0.1641  0.0478
17416W        W18280  28.041   0.134  12.779  0.1530 -0.3077  0.1393
17417W        W18281  21.690  16.703  13.740  0.2148 -0.0054 -0.0556
17418W        W18282  12.996  21.736   4.943  0.2925  0.0451  0.0762
17419W        W18283  16.081   7.823  25.818  0.3046 -0.2719 -0.1954
17420W        W18284  23.449  15.753  20.968  0.1838 -0.2315 -0.0244
17421W        W18285  28.030  19.569  28.812  0.1262 -0.0075  0.1006
17422W        W18286  20.660  21.686   5.522  0.3917 -0.0469  0.4930
17423W        W18287  17.734  21.800  19.238  0.1963 -0.0864  0.2707
17424W        W18288  12.557  18.013  26.480  0.0249  0.1444 -0.0650
17425W        W18289  25.724   9.439  20.928  0.2846 -0.1077  0.1381
17426W        W18290  19.140  23.821   6.138 -0.1586 -0.1130  0.1841
17427W        W18291  20.194  25.232  28.998  0.1769 -0.1105 -0.0984
17428W        W18292  11.380  17.992  11.885 -0.0196 -0.0664 -0.3743
17429W        W18293   6.535   8.845  13.615  0.0282  0.2619 -0.4861
17430W        W18294  11.432   1.270  24.600  0.3522  0.2288 -0.0069
17431W        W18295  19.348  15.515  12.261 -0.1245  0.1213 -0.2233
17432W        W18296   1.813   0.344  28.648 -0.0675 -0.1297 -0.1036
17433W        W18297  26.165  13.489  12.732  0.0552 -0.0956 -0.0700
17434W        W18298  25.017  24.951  15.137  0.1101  0.4317 -0.0041
17435W        W18299  28.157  17.545  20.406 -0.0832 -0.2434 -0.0834
17436W        W18300  11.727  28.832  12.541  0.0367 -0.0444 -0.0732
17437W        W18301  22.807  23.370  16.203 -0.1318  0.2120  0.3417
17438W        W18302  15.921  14.386   6.700 -0.0772 -0.0050  0.1238
17439W        W18303   2.837  21.937   8.862  0.2078 -0.0851  0.1160
17440W        W18304  20.519  25.487  21.264 -0.2235 -0.3051 -0.0702
17441W        W18305   8.734  25.962  17.808 -0.0538 -0.0470 -0.0237
17442W        W18306  21.804  16.591   4.111 -0.1569  0.2059 -0.0034
17443W        W18307  16.666   7.604  12.278  0.1216 -0.3369  0.1127
17444W        W18308  18.170  10.612  12.127  0.0711 -0.0823 -0.2216
17445W        W18309   5.769   1.661   4.888  0.0643  0.1869  0.3180
17446W        W18310   1.340  28.951  14.059 -0.3224  0.3096 -0.1058
17447W        W18311   5.573  20.919  19.343 -0.2851 -0.1491 -0.1264
17448W        W18312  10.902  14.613  12.167 -0.1364 -0.2152  0.2088
17449W        W18313  17.828  16.939   7.153  0.1540 -0.1498  0.0065
17450W        W18314  18.991   0.200  25.729  0.4240 -0.0589 -0.3064
17451W        W18315  21.655  19.581  24.019 -0.2357  0.2305 -0.1736
17452W        W18316  14.277  28.976  24.764 -0.0220  0.0978 -0.1081
17453W        W18317  14.016   9.756  17.108 -0.4960  0.0586  0.1765
17454W        W18318  24.165  16.511   4.557  0.2079  0.0752 -0.2298
17455W        W18319   0.236  28.410  20.540  0.1628 -0.0066 -0.0684
17456W        W18320   7.280  17.290  23.308  0.1976  0.0989  0.0631
17457W        W18321   4.431   6.032  20.862  0.1042 -0.1799 -0.0011
17458W        W18322   1.454   2.336   2.021 -0.0642 -0.1942 -0.0105
17459W        W18323  21.946  20.384  20.198 -0.1249 -0.0823  0.0101
17460W        W18324  19.583  18.537   1.863 -0.0779  0.1745 -0.3099
17461W        W18325  17.641  18.831  24.864  0.0161 -0.2790 -0.0913
17462W        W18326  28.668  28.678   0.033  0.0371  0.0951 -0.0511
17463W        W18327  18.876  10.404  17.833 -0.1389 -0.2336  0.1708
17464W        W18328  14.288  28.722  27.607  0.1313 -0.0786  0.1419
17465W        W18329  20.664  27.228  10.306  0.0326 -0.0256  0.1079
17466W        W18330  12.325  11.135  14.497  0.0446  0.1969 -0.1401
17467W        W18331  10.611  22.937  10.549 -0.2561 -0.0204  0.1802
17468W        W18332  22.417  23.523   9.852  0.2076  0.2611  0.0331
17469W        W18333  14.960  28.534   4.480 -0.0611 -0.0543  0.2878
17470W        W18334   3.096  19.849  14.261  0.0699  0.3894  0.0217
17471W        W18335  23.589   3.404   6.766  0.0718 -0.2827 -0.0454
17472W        W18336  28.689  23.666  12.846  0.2949  0.1561 -0.0068
17473W        W18337   9.474  21.854   9.661 -0.1550  0.0073 -0.1347
17474W        W18338  12.490  23.796  26.515 -0.1142  0.2480  0.0008
17475W        W18339  26.365  15.924   7.801 -0.0647  0.0064 -0.1583
17476W        W18340  10.962   1.965  22.988  0.1253  0.0384 -0.0028
17477W        W18341   2.809   6.330  24.560  0.3403  0.1971 -0.0279
17478W        W18342  12.140   8.366  21.270  0.1438 -0.1842  0.0826
17479W        W18343  11.699   6.972   7.241 -0.2280  0.1230 -0.0759
17480W        W18344  12.119  20.732   1.410 -0.0447  0.1066  0.1219
17481W        W18345  15.277  17.767  12.433 -0.3330  0.0495  0.1933
17482W        W18346   8.459  13.608  22.587  0.1042 -0.0927 -0.4170
17483W        W18347  22.196  10.277   5.991 -0.1535 -0.0334  0.1710
17484W        W18348  11.421  27.953  18.145  0.1570  0.1228 -0.0277
17485W        W18349   1.743  19.008  25.045 -0.2715 -0.0495 -0.1966
17486W        W18350   7.028  22.609  25.384 -0.0143 -0.0049  0.1774
17487W        W18351   9.586   9.171  12.037  0.1245 -0.1071 -0.1041
17488W        W18352  11.917  16.174  17.034  0.0609 -0.0975 -0.1952
17489W        W18353   6.380  18.267   7.301  0.0248  0.2552 -0.0351
17490W        W18354  26.302  20.212  16.207 -0.0069 -0.0586  0.1624
17491W        W18355  14.230  18.811  14.544 -0.1322  0.2240  0.2605
17492W        W18356  12.112  24.709  20.277  0.0656 -0.3527 -0.1937
17493W        W18357  29.046  23.180  16.050 -0.4500 -0.0301 -0.2467
17494W        W18358   3.975  18.994  28.898  0.1418 -0.2693  0.2728
17495W        W18359  22.396   8.484   8.747 -0.0805  0.3082 -0.0994
17496W        W18360  23.201   9.594  27.288 -0.4238 -0.1276 -0.1610
17497W        W18361  21.998  18.750  10.632  0.0223  0.2031 -0.1311
17498W        W18362  19.567  28.914  12.276 -0.1482 -0.1307 -0.2471
17499W        W18363  18.761  22.953   5.650  0.2674  0.0623  0.2182
17500W        W18364   9.588  19.099  13.246 -0.0614 -0.1700 -0.3118
17501W        W18365  12.889  20.886  23.470  0.0727 -0.0979  0.1680
17502W        W18366   9.503   8.053  22.832  0.1295 -0.2413 -0.0040
17503W        W18367   5.641  13.018   6.496  0.1037 -0.1033  0.0085
17504W        W18368  19.754   3.876  21.686 -0.0639  0.0828 -0.1651
17505W        W18369  14.205  14.231  23.136  0.0836  0.0546 -0.1315
17506W        W18370  23.383  15.414  19.138  0.1895 -0.3316  0.2080
17507W        W18371  24.730   2.940  13.538  0.0118 -0.1594 -0.1165
17508W        W18372   8.757  13.778  11.784 -0.1235 -0.1004 -0.0684
17509W        W18373   5.185   4.770  22.659 -0.0796  0.1833 -0.0430
17510W        W18374   0.123  22.752  26.681 -0.0713 -0.1957 -0.1365
17511W        W18375  17.852  23.065   6.523 -0.0410 -0.1794  0.0042
17512W        W18376  12.033   1.972  25.189 -0.0014  0.0533 -0.0194
17513W        W18377  14.431   4.589  22.196  0.0543 -0.0547 -0.0990
17514W        W18378  15.483  19.852  20.753  0.1089  0.1858  0.3924
17515W        W18379   2.623  18.244  18.564  0.1110 -0.3198  0.1463
17516W        W18380  10.186  18.209   2.031 -0.0051 -0.2271  0.0574
17517W        W18381  11.820   4.931  20.003  0.0321 -0.0832 -0.0611
17518W        W18382   7.978  21.254   3.038 -0.1047 -0.2085 -0.1697
17519W        W18383  14.331   4.174  16.101  0.0373  0.5623  0.0193
17520W        W18384  11.031  21.130  25.270  0.1798 -0.2163 -0.0460
17521W        W18385  23.100   7.570  16.795 -0.1424 -0.0495 -0.3423
17522W        W18386   1.809   3.832   0.011 -0.1240  0.3650  0.1288
17523W        W18387  11.309  14.657  10.160  0.1825 -0.0096 -0.2845
17524W        W18388   6.984  12.333  11.831  0.3611  0.4053 -0.1130
17525W        W18389  18.971  27.266  21.004  0.0697  0.1843  0.0006
17526W        W18390  28.085   3.903  19.742 -0.2538 -0.0615  0.1332
17527W        W18391  10.269  18.481   2.613  0.1890  0.0563 -0.0733
17528W        W18392  16.093  14.945   4.145 -0.0722 -0.1737 -0.0636
17529W        W18393  13.532  19.319  23.891  0.1957  0.1346  0.0745
17530W        W18394   6.781  21.441   9.445  0.1094  0.0276 -0.3595
17531W        W18395  27.771  18.691  11.213  0.3318  0.1807 -0.0548
17532W        W18396   7.403  17.012  12.730 -0.3943 -0.1974  0.0872
17533W        W18397   1.417  18.226   1.911  0.0906  0.3270  0.0991
17534W        W18398   0.013  14.449  20.368  0.0162  0.1363  0.0951
17535W        W18399   5.980  14.136  25.144  0.0318  0.1415 -0.2101
17536W        W18400   7.752  27.195   9.654 -0.4568  0.0538 -0.1255
17537W        W18401   8.460  21.571  17.794  0.0621  0.1409 -0.1906
17538W        W18402   5.853  15.498  12.291  0.0344 -0.1382 -0.0225
17539W        W18403  14.388   1.922  19.990  0.0300 -0.1575  0.1159
17540W        W18404   9.297  13.425  14.379  0.4545  0.0829  0.0006
17541W        W18405  15.381   8.587   5.350 -0.3447  0.0006  0.2715
17542W        W18406  20.405  11.891  13.657 -0.0540 -0.1999  0.3728
17543W        W18407   1.671   9.257  22.708 -0.0643  0.0080 -0.0546
17544W        W18408  25.624   5.967  26.782  0.1070 -0.1017 -0.3914
17545W        W18409  24.446  22.735  18.868 -0.1055 -0.2955  0.0873
17546W        W18410  21.346  28.242  15.460 -0.1695  0.1085 -0.1272
17547W        W18411  26.080   4.745   4.505 -0.0216  0.0234 -0.5166
17548W        W18412   6.832  18.623  13.849  0.1227  0.0287 -0.1651
17549W        W18413  14.019  15.919  12.367  0.2145  0.4038 -0.0414
17550W        W18414  12.941   2.597  12.612 -0.2513  0.1475 -0.0222
17551W        W18415  17.238   8.075  27.894  0.0201 -0.0765  0.0137
17552W        W18416  20.368  10.458   2.466  0.0904  0.4198  0.3113
17553W        W18417  21.193  18.359   9.566 -0.0268  0.1333  0.3308
17554W        W18418  28.903  17.559   1.988  0.0633 -0.2783  0.0238
17555W        W18419  17.340  23.889   9.235 -0.0592  0.1038 -0.4731
17556W        W18420   8.228  28.791  21.950 -0.2430  0.0725 -0.2097
17557W        W18421  25.550  23.282  12.454 -0.3433 -0.0389  0.2524
17558W        W18422   4.697  17.972  26.286  0.2286 -0.1641 -0.0043
17559W        W18423   2.420  25.108  19.625 -0.1798  0.1432 -0.0523
17560W        W18424  19.371   4.385  29.023  0.0802  0.4143 -0.2313
17561W        W18425  17.995  15.364  11.901  0.2738  0.2645  0.1889
17562W        W18426  19.409   3.686   5.240  0.1417  0.0888  0.3291
17563W        W18427  17.749  27.329  19.350  0.0624  0.1491 -0.1865
17564W        W18428  25.139   7.005  16.192  0.0762  0.3372  0.4853
17565W        W18429  17.391  18.873  23.936 -0.1265 -0.3086  0.0173
17566W        W18430  10.066  11.425  15.766  0.0199 -0.0406 -0.0950
17567W        W18431  16.968   9.853  14.277  0.0969  0.2971  0.0590
17568W        W18432  12.010  18.628  23.901  0.0896 -0.3092  0.0669
17569W        W18433   3.384   8.715  12.878  0.2062 -0.0239 -0.1883
17570W        W18434  14.151   8.467  17.439  0.0446  0.2009  0.0555
17571W        W18435  12.982  13.641   1.396 -0.3412  0.0193  0.1465
17572W        W18436  18.708   6.404   8.764 -0.0542  0.0569  0.1052
17573W        W18437  14.374   8.375  11.235 -0.1437 -0.1726 -0.1018
17574W        W18438   8.334   4.708  24.032  0.1808  0.2051 -0.2046
17575W        W18439   1.492  24.541  11.692  0.4042 -0.2454 -0.0186
17576W        W18440   1.157  22.132  19.905  0.0403  0.0654 -0.1466
17577W        W18441   2.008   4.217  19.581  0.0853  0.1286  0.0049
17578W        W18442   0.683  12.707  17.626 -0.0374  0.1689  0.1355
17579W        W18443  20.435  16.672   2.281 -0.1408  0.0496 -0.2737
17580W        W18444  12.400  10.791   7.060  0.2239  0.0153  0.0260
17581W        W18445  26.998   5.812  23.228  0.3107  0.1732  0.0559
17582W        W18446  21.982  24.965  24.279 -0.0070 -0.2963 -0.0250
17583W        W18447  10.499  17.339  14.214 -0.0029 -0.2146 -0.1857
17584W        W18448  19.771   4.709   5.008  0.0809 -0.2586  0.0670
17585W        W18449  18.677  26.097   7.708 -0.2786  0.1750 -0.1763
17586W        W18450  24.169  28.469  17.187  0.1588 -0.1106 -0.0453
17587W        W18451  16.451  18.858  18.537  0.0275  0.2380  0.0393
17588W        W18452  14.918  19.498  16.714 -0.0349  0.0888 -0.0546
17589W        W18453   5.608  12.658   7.127 -0.2074  0.0314  0.2624
17590W        W18454  19.126   2.060  18.519 -0.2302  0.0198 -0.0077
17591W        W18455   3.860  14.288   4.411  0.0533  0.0639 -0.2351
17592W        W18456  20.234  20.646   9.268 -0.0709 -0.0796 -0.0525
17593W        W18457  28.901  15.742   5.453 -0.2097 -0.2442 -0.0925
17594W        W18458  10.187   2.058   8.752 -0.2189  0.2401 -0.1819
17595W        W18459   1.502   7.757  26.396  0.1910 -0.0808 -0.0108
17596W        W18460  20.712   7.091   7.697  0.3739 -0.1448  0.1006
17597W        W18461   8.748  24.263  20.786 -0.1883 -0.0646  0.0055
17598W        W18462  19.816   1.611   1.909 -0.1718  0.1382  0.1784
17599W        W18463  17.278  14.926   5.021 -0.1759  0.1760  0.1453
17600W        W18464   3.309  15.732  27.616 -0.1005  0.0231 -0.1407
17601W        W18465  24.517  25.188   2.958  0.0908 -0.0981  0.1997
17602W        W18466   0.360  20.149  18.654 -0.2984 -0.0027  0.3506
17603W        W18467  19.990  13.218  18.757 -0.0535 -0.1049 -0.0814
17604W        W18468  17.993  28.965  15.707  0.1654  0.0463 -0.3128
17605W        W18469  10.989  25.290  23.882 -0.1000 -0.0052 -0.0103
17606W        W18470  11.207   0.711  17.449 -0.3517 -0.0004  0.2819
17607W        W18471  14.846   3.614  14.970  0.3593 -0.1479 -0.1636
17608W        W18472  18.317   9.236  12.808 -0.2756  0.0127 -0.0601
17609W        W18473  11.263  27.706  25.195 -0.1575  0.2495  0.1959
17610W        W18474  17.451   3.076  13.073 -0.0428 -0.0128 -0.1278
17611W        W18475  13.417   1.841  20.995 -0.0510  0.3197 -0.1156
17612W        W18476  10.452  15.976  23.440 -0.0567 -0.1506  0.2577
17613W        W18477   8.632  10.625  11.142 -0.1416 -0.1867  0.2911
17614W        W18478  20.051  15.901  27.356 -0.1658 -0.1596 -0.1628
17615W        W18479  10.044  11.896   1.653  0.1465 -0.1456 -0.0808
17616W        W18480  11.086  23.331   1.961  0.0557 -0.1208 -0.3998
17617W        W18481  13.109  27.754   5.700  0.0067 -0.0329 -0.0154
17618W        W18482  12.136  27.193  26.506  0.0380  0.1990 -0.0338
17619W        W18483   7.182   4.577  24.553 -0.1401  0.1777 -0.1092
17620W        W18484   0.703   5.396  22.199 -0.1586 -0.0365  0.2305
17621W        W18485  23.346  24.539  15.792 -0.0991  0.1936  0.1824
17622W        W18486  16.356   1.323   2.158 -0.1387 -0.1807  0.4371
17623W        W18487   7.075  26.540   3.238  0.2188 -0.1467  0.1994
17624W        W18488  27.747  10.679   8.995  0.2753  0.0434 -0.1244
17625W        W18489  17.486  17.646  21.549  0.0726 -0.1016 -0.0315
17626W        W18490  28.079  11.212  21.008 -0.0060 -0.0202 -0.0744
17627W        W18491   4.808  13.404  22.452 -0.0775  0.3793  0.0472
17628W        W18492  12.713  22.123  15.882 -0.0289  0.2644  0.1885
17629W        W18493  12.202  18.572  23.319  0.0404  0.2236  0.0532
17630W        W18494  12.402   2.335   3.110  0.0938  0.0335 -0.1149
17631W        W18495  14.218  27.664   9.072 -0.1567 -0.0639 -0.1554
17632W        W18496  12.952   1.829  10.083 -0.0961 -0.0312 -0.0202
17633W        W18497   1.782  24.352   4.219 -0.1262 -0.3787  0.1664
17634W        W18498   7.156   3.077   2.430 -0.1148  0.2678 -0.0006
17635W        W18499  24.668  10.979  20.241 -0.3298 -0.0455 -0.1699
17636W        W18500  19.672   0.506  26.806  0.3197 -0.0704  0.1616
17637W        W18501  24.063  14.519   1.862  0.5074  0.0158  0.1902
17638W        W18502  17.402  12.918   1.164  0.1077 -0.0628  0.4023
17639W        W18503   0.307   0.345   4.735  0.2873 -0.0751  0.1878
17640W        W18504   8.502  23.979  21.136 -0.1963  0.1380 -0.3309
17641W        W18505  10.355   5.754  26.332 -0.0406 -0.1346 -0.0905
17642W        W18506  22.177  21.321  12.793  0.1030  0.0795  0.0434
17643W        W18507  20.570  18.711  25.048 -0.0368 -0.3450  0.2427
17644W        W18508  19.043  20.603   4.013  0.0651  0.1432  0.1808
17645W        W18509  13.155  21.738  19.511 -0.0547 -0.0285 -0.1582
17646W        W18510   8.263   7.516  21.509 -0.0631  0.0293 -0.1733
17647W        W18511  14.429  23.120  21.575 -0.1640 -0.0455  0.1660
17648W        W18512   3.396   2.485  15.539  0.0659 -0.2116 -0.0494
17649W        W18513  18.817   4.416  15.722 -0.0023 -0.0295  0.2780
17650W        W18514  22.890   9.848  22.938 -0.2308 -0.1846 -0.3194
17651W        W18515   7.361  13.889  21.200  0.0197  0.0206 -0.4083
17652W        W18516  28.072  18.579  18.664 -0.1068  0.0093  0.1858
17653W        W18517  28.902  18.559   9.115 -0.1713  0.0646 -0.0206
17654W        W18518  13.075  25.845  12.933  0.1273 -0.0840 -0.2800
17655W        W18519  15.253   8.036  14.316 -0.2494 -0.4976 -0.0401
17656W        W18520  28.369  21.503  15.159 -0.2515  0.1874 -0.3809
17657W        W18521   6.614   3.163  27.310 -0.0144 -0.2637  0.1327
17658W        W18522   2.332  17.154  17.085 -0.0777  0.2005 -0.1697
17659W        W18523  14.394  13.714   6.636  0.2610 -0.1411 -0.0086
17660W        W18524  23.746   4.904  16.211 -0.1488  0.0642  0.1198
17661W        W18525  15.329  26.845  21.976  0.2018 -0.1779 -0.1341
17662W        W18526   7.766  26.748  21.877  0.2724  0.0169 -0.2460
17663W        W18527  10.652  26.952  20.988 -0.1699 -0.3889 -0.1044
17664W        W18528  19.403  15.657  11.225  0.2084 -0.0973 -0.3600
17665W        W18529  20.900  22.101  26.014  0.0452  0.2125  0.2427
17666W        W18530   7.280  27.330  17.307  0.1119 -0.3816  0.3105
17667W        W18531   3.196   3.264  12.402 -0.1199  0.0068  0.1870
17668W        W18532  18.684  23.042  15.706 -0.0303  0.0635  0.1004
17669W        W18533  16.582   6.382  22.216 -0.1131  0.0374 -0.5303
17670W        W18534  23.953  19.727   1.629  0.1421 -0.0010  0.1403
17671W        W18535   5.730  11.220  24.426  0.1439  0.1339  0.1284
17672W        W18536  14.846  23.795  24.525  0.0606 -0.2222  0.1068
17673W        W18537  10.133  19.497   6.297  0.1212  0.2533 -0.4452
17674W        W18538  14.673  24.609  18.634  0.0325  0.0320  0.0840
17675W        W18539   3.220   4.224   4.462 -0.0880 -0.2303 -0.0610
17676W        W18540  10.862   4.236  10.120 -0.0710 -0.0377 -0.0830
17677W        W18541  17.904  17.933   0.518 -0.0887  0.0461  0.1749
17678W        W18542   6.803  17.938   4.450 -0.1659 -0.0853 -0.0208
17679W        W18543  17.359   9.566  13.406  0.0748 -0.3161  0.0887
17680W        W18544   1.752  24.779  24.053  0.1676 -0.1874 -0.4045
17681W        W18545  11.677  23.910  14.418 -0.0383 -0.1840  0.1557
17682W        W18546   0.052  25.120   0.738 -0.1659  0.0246 -0.1722
17683W        W18547  21.864  24.271  26.730  0.3131 -0.1770 -0.0800
17684W        W18548  15.957   8.100  20.467  0.0771  0.0321 -0.0918
17685W        W18549  15.991  26.314   3.950 -0.2229 -0.1148  0.1004
17686W        W18550  18.077  15.376  22.136 -0.0397  0.0751 -0.1987
17687W        W18551  20.722  13.114  21.973  0.0617 -0.1270  0.1694
17688W        W18552  28.232   9.863  21.531  0.1883  0.3726 -0.0075
17689W        W18553   9.598  11.747  19.803  0.1720  0.0304  0.0841
17690W        W18554  19.622  22.150  15.950  0.1084 -0.2999  0.0295
17691W        W18555  15.200  23.503   6.486 -0.0341  0.1098  0.1154
17692W        W18556  15.460  13.900  23.245  0.1110  0.1633 -0.0695
17693W        W18557  23.940  21.260  27.593  0.0412 -0.0972  0.0309
17694W        W18558  18.140  18.320  27.530  0.0614  0.0456  0.1957
17695W        W18559  16.453  15.227  16.555 -0.2667  0.1577  0.1347
17696W        W18560   2.590  27.813  11.318 -0.3249  0.2353 -0.3894
17697W        W18561  17.968   9.404  19.559  0.0319  0.0141  0.2458
17698W        W18562  15.090   3.373  16.584 -0.1579  0.3620  0.1037
17699W        W18563   2.050  13.626  23.364 -0.1017  0.1649  0.2371
17700W        W18564  25.628   1.456   3.701 -0.2536  0.0052 -0.4133
17701W        W18565  16.681  19.887  26.163  0.2225  0.1360 -0.1369
17702W        W18566   9.304   7.938  10.190  0.1723  0.0692 -0.0464
17703W        W18567   1.198   9.206  15.228 -0.0797 -0.1694  0.1484
17704W        W18568   9.966  13.743  14.003  0.2487  0.2708  0.0192
17705W        W18569  16.894  25.050  21.574 -0.2244 -0.1037 -0.0538
17706W        W18570   3.525  28.846  25.340  0.0834  0.2836  0.1208
17707W        W18571  22.611   1.468   9.651 -0.2199  0.0118 -0.2122
17708W        W18572   5.859  22.136  22.799 -0.0737  0.2219  0.0599
17709W        W18573  12.546   3.009  20.748 -0.0510 -0.1423 -0.0309
17710W        W18574  20.025  11.211  10.714 -0.0098 -0.2608  0.0107
17711W        W18575  13.935  17.560   8.294 -0.0526  0.1757  0.0471
17712W        W18576  10.944   8.080   8.981 -0.1100 -0.0377  0.0216
17713W        W18577   6.480  24.949  25.587 -0.3320 -0.2553  0.1304
17714W        W18578   1.131  15.733   1.690  0.0710  0.0922  0.0242
17715W        W18579  17.122  10.688  17.720  0.0906  0.0697 -0.0418
17716W        W18580   0.751   2.373   8.485  0.0962 -0.1655 -0.1221
17717W        W18581   0.593  20.150  12.152 -0.3839 -0.1586 -0.0401
17718W        W18582  22.969  20.961  28.789 -0.0054 -0.1488  0.1349
17719W        W18583  18.482  18.671  25.503  0.1104 -0.0639  0.1329
17720W        W18584   7.898   1.288  18.344 -0.1666 -0.2859  0.0861
17721W        W18585  23.556  20.942  23.093 -0.0384  0.2663  0.0829
17722W        W18586  17.874   5.892   8.776 -0.0752  0.3078  0.1672
17723W        W18587   8.496   0.942  16.512  0.3036  0.2271 -0.0590
17724W        W18588   6.606   8.471  11.796  0.2060 -0.0211 -0.0345
17725W        W18589  18.708  10.700  24.336  0.0389 -0.0263 -0.0219
17726W        W18590   1.220  21.712  25.714  0.0190 -0.1288  0.0644
17727W        W18591  16.283  14.260   5.142  0.0571 -0.1787 -0.3014
17728W        W18592   9.674   0.103   1.322  0.2647  0.0882  0.0173
17729W        W18593   6.828  24.208   9.202 -0.0546  0.0293  0.1957
17730W        W18594  21.881  17.748  26.898 -0.2880 -0.1213  0.2042
17731W        W18595  27.471   5.470  28.094  0.4284  0.0404  0.0226
17732W        W18596  27.936  28.709  21.606  0.3375 -0.1076 -0.0906
17733W        W18597   5.517  16.674   5.551 -0.4654 -0.0934  0.1162
17734W        W18598  19.750  10.623   0.928 -0.0130  0.1801 -0.1526
17735W        W18599  11.727  12.437  12.957  0.3979 -0.1971 -0.0684
17736W        W18600  13.720  13.451  24.815 -0.0129  0.1072  0.1983
17737W        W18601  28.110  12.418  21.491  0.1649 -0.3191 -0.1475
17738W        W18602  22.005  18.073  24.286 -0.2332  0.0511 -0.1327
17739W        W18603  14.603   5.058  15.950  0.0473 -0.1967  0.0733
17740W        W18604   3.261  21.761  12.265  0.0025  0.1326 -0.0323
17741W        W18605   2.600  24.159  18.156 -0.0876 -0.0415 -0.1439
17742W        W18606  10.623  16.478   5.446  0.1925 -0.3130  0.2334
17743W        W18607  12.739  25.658  22.132  0.5998  0.1894  0.1361
17744W        W18608  29.029   3.174   2.787  0.0115  0.1869  0.0957
17745W        W18609  18.822  19.072  27.203 -0.0407  0.2406 -0.2456
17746W        W18610   7.712  12.277  20.336 -0.1486 -0.1203  0.2781
17747W        W18611  22.367  15.767   3.698 -0.1170 -0.0547  0.2863
17748W        W18612  21.286  10.655  27.748 -0.3552 -0.2545 -0.0758
17749W        W18613  15.574  12.429  22.795 -0.0141 -0.1181  0.2464
17750W        W18614   0.484  15.626  17.393 -0.0073  0.2926  0.0313
17751W        W18615   0.974  20.429  28.924  0.0391  0.1043 -0.1094
17752W        W18616   6.979  16.643   1.224  0.0570 -0.0484  0.0818
17753W        W18617  27.057  20.733  22.957  0.1443  0.1442  0.1086
17754W        W18618   1.039  19.372   1.767 -0.3292  0.0809 -0.3329
17755W        W18619  20.373   6.687  23.957  0.2009 -0.0916 -0.0064
17756W        W18620  11.998  22.941  19.694  0.0128  0.0734  0.0641
17757W        W18621  15.314   0.939  16.820 -0.0147  0.2342 -0.1007
17758W        W18622   8.041  11.186  25.845 -0.0118 -0.1847  0.0481
17759W        W18623  11.345  23.068   6.048 -0.0596 -0.1223  0.2773
17760W        W18624  16.152  20.123  25.451  0.0223  0.0001  0.1754
17761W        W18625  21.055  29.140  19.122 -0.1876  0.4178 -0.1539
17762W        W18626   9.648  12.610  18.315  0.3214 -0.4714  0.2920
17763W        W18627  19.892  27.322   4.767  0.1615  0.0850  0.3389
17764W        W18628  12.510   8.950  25.611  0.1114  0.0634  0.2019
17765W        W18629   3.174  16.797   2.025 -0.2423  0.1032 -0.1093
17766W        W18630  15.743   6.011   9.425 -0.1322  0.1966 -0.0335
17767W        W18631  22.928  27.656  18.988  0.4389  0.0868  0.1179
17768W        W18632   6.490   0.564  15.083 -0.0322 -0.3282  0.1858
17769W        W18633  27.916  19.056  27.234 -0.1215  0.2807  0.3810
17770W        W18634   9.348  16.151  22.761 -0.0215  0.2153  0.0497
17771W        W18635  25.826  18.823  20.033 -0.1095 -0.0792  0.0966
17772W        W18636   3.197  23.038  24.773  0.2238 -0.0132 -0.0103
17773W        W18637  22.833  15.457  22.489  0.2005 -0.1202 -0.0349
17774W        W18638  29.042  10.888  26.986  0.2649  0.0083 -0.3277
17775W        W18639  10.100   9.279   3.532  0.5395 -0.1146 -0.0503
17776W        W18640   5.871  17.803   9.844 -0.0221 -0.3254  0.1485
17777W        W18641  24.001   0.400  26.663  0.0550 -0.3887 -0.0303
17778W        W18642  28.377  25.751  15.214  0.1191 -0.0419  0.0810
17779W        W18643   9.343  26.205   7.786 -0.2591 -0.0249 -0.2776
17780W        W18644  12.805  19.123  20.025  0.0680  0.3166 -0.1648
17781W        W18645   0.376  16.964  19.123 -0.1413  0.0941  0.1209
17782W        W18646  27.310   4.825  24.591 -0.1073  0.0214 -0.0382
17783W        W18647   6.044  18.413  18.717  0.0886 -0.0052 -0.2017
17784W        W18648  21.567   8.228  13.380  0.1407  0.0048 -0.1595
17785W        W18649  18.239  22.321  15.787  0.1119  0.1069 -0.0985
17786W        W18650  10.179   9.803   6.731  0.2249 -0.1912 -0.4763
17787W        W18651  15.595   1.926   1.933  0.0165 -0.1363  0.2063
17788W        W18652  19.771  27.235  18.770 -0.0967 -0.1942 -0.0066
17789W        W18653   8.997  22.347  22.874 -0.2157  0.0423 -0.0417
17790W        W18654   2.351   3.014   5.759  0.0763  0.1446  0.4382
17791W        W18655  27.133  14.408  17.030  0.0643  0.0547  0.0794
17792W        W18656  10.465  25.003  16.297 -0.1393 -0.2281  0.0284
17793W        W18657  27.145  26.199  25.059 -0.0890 -0.3280  0.3414
17794W        W18658   1.069  10.524  12.717  0.0130  0.2410 -0.1813
17795W        W18659   4.563   4.097   5.520 -0.2833  0.1494 -0.0739
17796W        W18660  26.604   8.730  19.758  0.0047  0.1355 -0.0126
17797W        W18661  17.090   8.117  26.389  0.1423  0.3064  0.2185
17798W        W18662  10.237  16.377  27.870 -0.2488 -0.2870 -0.2737
17799W        W18663  15.461  13.908  10.144 -0.1247  0.0745  0.2286
17800W        W18664  14.640  14.297  19.841  0.6966  0.1102 -0.2095
17801W        W18665  16.547  14.216  26.027 -0.0304  0.2701 -0.0808
17802W        W18666  10.351  25.395  28.967  0.0728  0.1109  0.4502
17803W        W18667  26.334  17.343  24.773 -0.1922  0.2590  0.1406
17804W        W18668  24.740  17.089  22.336  0.1909  0.4618 -0.0456
17805W        W18669  24.197  24.328  25.164  0.0807  0.0491 -0.1304
17806W        W18670  19.079   2.008   9.995 -0.1200 -0.1220 -0.1223
17807W        W18671  18.205   7.278  21.319 -0.1513  0.0791  0.0621
17808W        W18672  18.435   4.479  26.646 -0.0459 -0.0525  0.0543
17809W        W18673   8.857  22.208   2.173  0.3054 -0.1500  0.1427
17810W        W18674  22.861  18.418  10.522  0.0105  0.1586  0.0154
17811W        W18675  13.031  18.422  22.978  0.4151  0.1385 -0.1152
17812W        W18676  22.589  22.664  24.600 -0.6300  0.3878  0.0940
17813W        W18677  27.561   8.504   6.113  0.1509 -0.0358 -0.2718
17814W        W18678  14.232  15.629  17.286  0.0727  0.1991  0.1384
17815W        W18679  15.915  12.574   6.740  0.1986 -0.3056  0.3303
17816W        W18680   4.347  27.257   4.708  0.0776  0.2612 -0.1012
17817W        W18681  12.861  16.779  12.159 -0.0326  0.1350 -0.0894
17818W        W18682  16.189   9.408  16.485 -0.0712  0.0368 -0.0207
17819W        W18683  19.361  15.281  10.369 -0.0983  0.0497  0.0143
17820W        W18684  28.858  13.072  25.997 -0.1007 -0.1275  0.1888
17821W        W18685  16.498  29.009  29.063  0.0027 -0.0376 -0.0925
17822W        W18686   3.769  22.651  20.537 -0.0071 -0.2392 -0.1726
17823W        W18687  16.726  19.087   4.356 -0.2645 -0.2973 -0.0718
17824W        W18688   8.278  26.833  27.422 -0.2964  0.1303 -0.1188
17825W        W18689   8.446  24.043  28.028  0.1916  0.0604  0.0902
17826W        W18690   5.703  13.125  24.375  0.1289  0.1404  0.0518
17827W        W18691  24.645   9.692  17.848  0.0068 -0.0142 -0.0664
17828W        W18692  12.760   8.529   0.218 -0.2077  0.3786  0.2693
17829W        W18693   1.564  12.311   3.382  0.2326  0.3265 -0.0901
17830W        W18694   1.527  10.739  20.969  0.2023 -0.1873  0.0929
17831W        W18695  27.322  15.405  18.568  0.1261  0.1053 -0.1824
17832W        W18696   9.268  27.501  28.298  0.2587 -0.0902  0.1107
17833W        W18697  13.953  21.467  12.944 -0.1527  0.0866 -0.1247
17834W        W18698  14.731  21.685  22.765 -0.1439 -0.0470 -0.1871
17835W        W18699   9.804   3.314  25.729  0.1838 -0.5704 -0.5271
17836W        W18700  28.135   5.325  10.224 -0.0094  0.2099  0.2309
17837W        W18701  21.891  14.886  21.463  0.0958  0.0857 -0.1061
17838W        W18702   8.319  21.010  13.823  0.0778 -0.1563  0.0667
17839W        W18703  27.276  20.378  25.502 -0.1061  0.1208 -0.1536
17840W        W18704  12.701  17.821  21.769  0.4692  0.0735  0.0851
17841W        W18705  19.394  17.411  19.075 -0.2484 -0.0179  0.0460
17842W        W18706  10.426  10.390   8.983 -0.0448  0.1638  0.1306
17843W        W18707  15.351  17.722  24.915  0.0137  0.0061  0.1326
17844W        W18708   9.197   0.739  21.383  0.0964  0.0210 -0.1341
17845W        W18709   2.458  19.449  22.757 -0.1615  0.3043  0.0013
17846W        W18710  20.023  13.223   3.312 -0.3314 -0.1831  0.0662
17847W        W18711  17.054  24.535  22.504  0.0661  0.2438 -0.0849
17848W        W18712  16.729  25.618  19.868  0.5438  0.0202  0.2284
17849W        W18713   8.489  25.377  19.280  0.1144  0.0821 -0.0340
17850W        W18714  20.535   4.502  26.224 -0.0742  0.1420  0.1385
17851W        W18715  27.612   9.858  27.631  0.0191  0.1205 -0.0115
17852W        W18716  19.590  17.717  16.945  0.2751  0.1716  0.0438
17853W        W18717  20.960  13.119  11.963  0.0345 -0.0746  0.0105
17854W        W18718   9.131  27.281   1.576 -0.2062 -0.0928  0.0345
17855W        W18719  21.865  19.030  28.891 -0.0484  0.1978 -0.1652
17856W        W18720  14.453  10.558  18.105 -0.1760 -0.2673 -0.1931
17857W        W18721   6.020   1.268  17.792  0.1322 -0.0733  0.1679
17858W        W18722  21.300  12.257  26.090  0.1620 -0.2080 -0.3900
17859W        W18723  16.808  14.017  18.845 -0.1062 -0.0832  0.2598
17860W        W18724   8.111  17.918   8.658 -0.3307  0.0954  0.0894
17861W        W18725  24.194   8.763  23.812 -0.4550  0.1660  0.1366
17862W        W18726  25.314  29.137  21.105  0.1579 -0.2082 -0.1063
17863W        W18727   3.280  15.242  17.759 -0.0070 -0.2294 -0.1273
17864W        W18728  23.542  12.641  13.555  0.0642  0.1985  0.1830
17865W        W18729  28.015  27.671   3.090  0.0674  0.0039 -0.0838
17866W        W18730  18.325  23.127  23.726  0.1219 -0.1006  0.0494
17867W        W18731  22.168  22.310   4.636 -0.1145  0.0271  0.2944
17868W        W18732  10.489   9.854  20.151 -0.0506  0.3372 -0.1351
17869W        W18733  16.909  11.403   9.923  0.2000 -0.1562 -0.0547
17870W        W18734  10.398  22.003   1.902 -0.0690 -0.2002 -0.3375
17871W        W18735  20.207   5.249  25.040 -0.0345 -0.0116 -0.2210
17872W        W18736  15.180  18.385  20.315  0.0524 -0.0248 -0.0974
17873W        W18737  20.980   9.281   2.577  0.2103 -0.2357  0.1836
17874W        W18738   1.635  25.156  15.306 -0.3554 -0.3304 -0.1345
17875W        W18739  19.294  25.000  14.620  0.0842  0.1260  0.2402
17876W        W18740  23.919  12.766  15.549  0.0685  0.0327 -0.0673
17877W        W18741   1.943   4.129   0.425  0.0609 -0.0213  0.1104
17878W        W18742  18.234  18.420   6.158  0.2533  0.0196 -0.0231
17879W        W18743   3.253  24.780   4.057  0.0080  0.2608  0.1685
17880W        W18744   9.572  17.088   3.647  0.0830  0.1961 -0.1369
17881W        W18745  14.302  21.554  14.581  0.4165  0.3556  0.1925
17882W        W18746  10.065  16.346  17.864  0.3776  0.2068 -0.1230
17883W        W18747   0.164  15.957   5.175 -0.1310 -0.0397 -0.2791
17884W        W18748  23.976  10.846  16.978 -0.1053  0.0006  0.1314
17885W        W18749  18.675   3.084  26.110 -0.1904  0.3841 -0.1361
17886W        W18750  21.262   7.838  19.887 -0.2198 -0.1498 -0.0413
17887W        W18751  23.127   9.648  15.473  0.0322  0.2290  0.0309
17888W        W18752  26.821   2.385  26.181 -0.0333  0.0517  0.0597
17889W        W18753  25.081  16.405  24.613 -0.1259  0.0232  0.2577
17890W        W18754   0.720  26.954   3.724 -0.2118 -0.0410  0.1822
17891W        W18755  20.231   5.914  10.774 -0.2210 -0.2081 -0.1211
17892W        W18756  22.152  16.896  26.342  0.3119 -0.1897 -0.1748
17893W        W18757  15.185  24.762   4.625  0.1425  0.1216 -0.1147
17894W        W18758  25.473  20.316  19.413 -0.0755 -0.0170  0.0663
17895W        W18759  28.520  15.015  28.210 -0.1059 -0.3288  0.2685
17896W        W18760  29.022  24.404  18.228  0.0999  0.0221 -0.2115
17897W        W18761  20.315  12.271  27.438  0.0166  0.2488 -0.0674
17898W        W18762  12.463  12.872   2.880  0.1780  0.1384  0.1575
17899W        W18763  11.396  14.140   7.885 -0.3560 -0.1343 -0.2337
17900W        W18764  16.811  18.376  15.616 -0.0940 -0.1423  0.2288
17901W        W18765   5.073  16.365   2.021 -0.2008  0.2848 -0.1158
17902W        W18766  16.127  23.416   8.309 -0.1628  0.0888 -0.0472
17903W        W18767  13.999  13.549  23.447 -0.2616  0.1826  0.0243
17904W        W18768  26.674  10.348  23.494  0.1856  0.0113 -0.1243
17905W        W18769   8.579  13.286  22.208  0.0969  0.0262  0.4043
17906W        W18770  12.995   1.202  18.942 -0.0642 -0.3371  0.0011
17907W        W18771  10.545  17.252  22.444  0.1117 -0.1382  0.4176
17908W        W18772  14.257  17.912  28.106  0.1525 -0.1489 -0.2237
17909W        W18773  21.261  18.727   4.144 -0.0049  0.2295  0.3112
17910W        W18774  29.068  18.113  11.042  0.0200  0.2152  0.0968
17911W        W18775   7.131  14.223  19.511 -0.0517 -0.3047 -0.1621
17912W        W18776  15.401  20.551   6.476  0.1405 -0.2316 -0.0417
17913W        W18777   7.834  18.042  10.585  0.1848  0.0126  0.0991
17914W        W18778  15.213  23.806  19.031  0.0731  0.1791 -0.1768
17915W        W18779  17.481   4.424   7.000 -0.1149 -0.0078  0.0030
17916W        W18780  11.920   6.340  13.486  0.2743 -0.1264 -0.2309
17917W        W18781  18.191  14.985  21.090  0.1320 -0.0976 -0.1038
17918W        W18782  19.074  26.311  11.582  0.0859 -0.1064 -0.0804
17919W        W18783  28.323   9.154  19.139  0.0882 -0.0637 -0.1826
17920W        W18784   2.022   7.785  25.276  0.0870  0.1314  0.0084
17921W        W18785  18.109  28.350  20.737  0.1902 -0.1158  0.1295
17922W        W18786   8.735   5.311  24.878  0.1156 -0.1132  0.2552
17923W        W18787   9.266  23.946  10.383 -0.1980 -0.1447 -0.1236
17924W        W18788  26.638   6.540   4.057 -0.0904 -0.1446 -0.1270
17925W        W18789  18.518  21.746  18.526  0.1007  0.2714  0.0954
17926W        W18790  12.935   3.509  12.914 -0.2338 -0.2362 -0.0518
17927W        W18791   3.216  16.455  19.784 -0.2719 -0.1880  0.0503
17928W        W18792  13.808   3.183   3.610  0.0641 -0.1268  0.1354
17929W        W18793  26.376  11.344   1.731 -0.1127 -0.1913 -0.1461
17930W        W18794   6.175  10.913  18.086  0.2776 -0.0118 -0.1568
17931W        W18795  24.961   7.205   1.878  0.1883  0.1319 -0.1372
17932W        W18796  22.375  15.375   8.641 -0.0223 -0.0178 -0.1248
17933W        W18797  17.270  10.710   0.988  0.0814  0.2307 -0.0689
17934W        W18798  17.267   7.187  16.031  0.0536 -0.1354  0.0073
17935W        W18799   0.956  15.401  28.892 -0.1674  0.0795 -0.3111
17936W        W18800  21.352  25.349  26.525  0.0529 -0.0410  0.1809
17937W        W18801  16.120  16.864   4.321  0.0035  0.2326  0.2532
17938W        W18802   7.414  13.206  16.530  0.1233  0.0353 -0.1762
17939W        W18803   9.029   3.342  26.517  0.0179 -0.1039  0.0175
17940W        W18804  10.053  12.344  17.337 -0.0979  0.0690 -0.0947
17941W        W18805  16.580  23.856  16.574 -0.0122  0.1398  0.1939
17942W        W18806  26.963  25.894  10.799  0.0453  0.1600  0.0526
17943W        W18807  10.624   5.754  19.088  0.0957 -0.1994 -0.1276
17944W        W18808   5.296  14.198  25.946 -0.2066 -0.2535  0.2304
17945W        W18809   3.836  10.598   6.974 -0.3033  0.0811 -0.1677
17946W        W18810  19.713  25.603  25.817 -0.0222 -0.4143 -0.2238
17947W        W18811  18.130  25.863   8.826 -0.1611  0.4287  0.0160
17948W        W18812  14.527   9.544   1.406  0.2583  0.0294 -0.1678
17949W        W18813  15.305  26.516  29.074  0.1111  0.1412 -0.1298
17950W        W18814  20.546   9.930   2.361 -0.0704  0.0482 -0.1535
17951W        W18815  24.858  22.178  27.467  0.1398  0.0615  0.0764
17952W        W18816  28.040   1.659  13.864 -0.1396  0.2641 -0.2587
17953W        W18817  12.322  12.105  20.769 -0.1058 -0.0930 -0.1696
17954W        W18818   8.801  10.101  12.623  0.0093  0.0917 -0.0639
17955W        W18819  28.180  21.575  27.368  0.1633  0.3040 -0.1481
17956W        W18820  26.770  21.203  20.064 -0.1278 -0.0331 -0.3309
17957W        W18821  18.206  21.660  14.451  0.0740  0.1414  0.0330
17958W        W18822  18.074  19.226  29.016  0.1356  0.1941 -0.1446
17959W        W18823  12.689  11.419  15.413 -0.0756  0.0690 -0.4503
17960W        W18824  11.578  15.022  24.464  0.0409 -0.0216  0.1833
17961W        W18825  16.161  12.999  20.597 -0.1925  0.1831 -0.1801
17962W        W18826  17.873  12.190   3.142 -0.0468  0.0045 -0.1498
17963W        W18827  14.910  21.484  21.408  0.4376 -0.0604 -0.0559
17964W        W18828  19.341   8.968   6.478 -0.1787  0.0732  0.1686
17965W        W18829  27.730   5.461  14.222  0.2235  0.0874 -0.0080
17966W        W18830   1.889  19.045  11.160  0.0277  0.1152 -0.0623
17967W        W18831  10.263   7.587  22.653 -0.2707 -0.0486 -0.2040
17968W        W18832  19.954  14.745  11.254  0.3576 -0.1818 -0.0792
17969W        W18833   2.515  20.773  26.199 -0.2296  0.1527 -0.0640
17970W        W18834   0.532  18.042  22.170 -0.0200  0.2150  0.0153
17971W        W18835   3.057   3.713   3.661  0.0445  0.2978  0.2574
17972W        W18836  12.908  17.987  18.859  0.0791 -0.0637  0.2103
17973W        W18837  23.258   5.496  24.938  0.2668  0.0157 -0.0152
17974W        W18838   8.846   4.608  24.009  0.0037 -0.2716  0.1852
17975W        W18839  16.134   5.958  21.011 -0.2620  0.0839 -0.1010
17976W        W18840  26.087  26.673  15.458  0.0666  0.0578  0.3436
17977W        W18841  19.948  10.845  12.366  0.3502  0.0705 -0.2824
17978W        W18842  25.334   1.982   2.900 -0.2155  0.1080  0.0709
17979W        W18843  19.325  16.052  28.393 -0.2785  0.1514  0.1390
17980W        W18844  11.196  11.955  19.023 -0.2406  0.2040  0.1663
17981W        W18845  15.733   6.834  27.797 -0.2626  0.1291  0.2098
17982W        W18846  17.945  23.029   1.704 -0.2516 -0.2090  0.1726
17983W        W18847  14.592  14.282  23.583  0.2188 -0.1335 -0.0116
17984W        W18848  22.540  23.301   9.141 -0.1394  0.1600 -0.0199
17985W        W18849   6.816  21.987   2.625  0.0765 -0.2089 -0.1615
17986W        W18850   0.008  11.264  18.766  0.1370 -0.0921  0.0416
17987W        W18851   8.141  26.993  13.011 -0.0009  0.2707 -0.0845
17988W        W18852  11.864  25.687   6.844  0.2643 -0.1512  0.0232
17989W        W18853   5.034  19.079  24.232  0.1803 -0.2397  0.0377
17990W        W18854   0.117  11.716   0.336  0.0815 -0.1191  0.1511
17991W        W18855   8.346  26.208  19.761 -0.2124  0.0012 -0.2391
17992W        W18856  20.622  27.468  15.030  0.2675 -0.0552  0.2467
17993W        W18857   9.265   0.423   2.071  0.1811  0.1369 -0.1120
17994W        W18858   1.940  23.041  18.216 -0.1321 -0.1418  0.1580
17995W        W18859  24.526  20.875   1.966  0.0254  0.1122  0.0545
17996W        W18860  25.752  10.198  22.926  0.1750  0.2216  0.1974
17997W        W18861  17.703  25.317  18.673 -0.0493  0.2146 -0.1627
17998W        W18862  11.538  19.384  26.631 -0.0723  0.2117  0.1583
17999W        W18863  23.220  11.914   1.562  0.1383  0.1874  0.0310
18000W        W18864  14.642  14.403  21.216 -0.0180 -0.1986 -0.0146
18001W        W18865   2.811  14.976  25.070 -0.2414 -0.3464 -0.0543
18002W        W18866  13.996   5.781   4.902  0.0631  0.4230  0.0013
18003W        W18867  12.073   8.894  19.031 -0.1428 -0.0146  0.1536
18004W        W18868  25.298   5.550   6.897 -0.1370  0.1394 -0.1190
18005W        W18869  14.577  15.705  27.363  0.2360 -0.0016  0.4413
18006W        W18870  14.072   1.726  28.907  0.0755  0.2468  0.0392
18007W        W18871  11.201  15.960   5.418  0.3267  0.1176 -0.0263
18008W        W18872  21.404  10.012  19.311  0.1298 -0.1426 -0.0341
18009W        W18873  21.909   6.189   3.032 -0.3074 -0.3560 -0.1505
18010W        W18874  14.564  14.709   0.874  0.0668 -0.3837  0.2407
18011W        W18875   5.340  19.884   5.426 -0.0667 -0.1049  0.0538
18012W        W18876  19.934  16.472  14.066  0.2687  0.1446 -0.0563
18013W        W18877  13.763  16.093  15.346 -0.1814 -0.1933  0.1429
18014W        W18878   5.125   4.860  20.275  0.1953  0.1401  0.0280
18015W        W18879   8.986  15.965  28.654 -0.1482 -0.1615  0.2312
18016W        W18880  26.553  25.385  21.956  0.0796  0.0671 -0.0070
18017W        W18881  15.452  15.893  15.161 -0.2461  0.1046  0.0852
18018W        W18882   8.185  21.736   4.295  0.0423  0.3209 -0.0020
18019W        W18883  23.795   0.092  23.821  0.2668 -0.1191 -0.3061
18020W        W18884   6.999   6.834  18.760 -0.1525  0.2524  0.3113
18021W        W18885  13.583  19.246  13.613  0.1636  0.2746 -0.0822
18022W        W18886  25.353  16.215  21.384  0.1559  0.1912 -0.0052
18023W        W18887  21.004  23.721  19.781 -0.0023 -0.1226 -0.0084
18024W        W18888   9.416  19.594  21.887  0.1303 -0.0863 -0.0722
18025W        W18889  18.571   4.875  11.028  0.0795  0.2513 -0.1167
18026W        W18890   9.119  15.133   5.034  0.0059  0.0396 -0.1707
18027W        W18891  16.081  12.879  13.506 -0.0954 -0.0926  0.0010
18028W        W18892  24.842  28.169  24.774 -0.1190  0.2046  0.1562
18029W        W18893  20.720  22.272  23.872  0.0357 -0.3029  0.1022
18030W        W18894  23.798  18.051  26.309 -0.1275  0.0524  0.0104
18031W        W18895   7.669   1.095  28.182 -0.0561 -0.2592 -0.1589
18032W        W18896  18.629  10.606  25.208  0.1502  0.1106  0.2718
18033W        W18897  11.188  22.247   9.011 -0.1514 -0.0790 -0.0811
18034W        W18898  20.753  15.434  14.172  0.3039  0.0680 -0.2743
18035W        W18899  25.930   5.840  23.428  0.0911 -0.0346 -0.1691
18036W        W18900   2.408  23.990  22.433 -0.1509  0.1344 -0.2511
18037W        W18901   9.395   5.096  24.359  0.4257 -0.0795  0.0476
18038W        W18902  10.228  14.292  23.963  0.1301 -0.1791  0.0028
18039W        W18903  19.900  13.635  20.972  0.2326  0.0218 -0.2930
18040W        W18904  16.482  28.601  15.427 -0.0521  0.2505  0.1342
18041W        W18905  24.737  22.281  13.129 -0.2073  0.1837 -0.1313
18042W        W18906  16.343  27.677  12.716  0.0125 -0.0418 -0.1837
18043W        W18907  27.572  18.109  16.401 -0.0153  0.0258 -0.1802
18044W        W18908   8.050  12.616  23.704 -0.1150 -0.4089  0.1707
18045W        W18909   5.265  10.817  15.035  0.2728  0.3769  0.2801
18046W        W18910  20.524   9.497   1.438  0.0769 -0.2823  0.1306
18047W        W18911  14.594  22.235  22.516 -0.2025 -0.3747  0.0740
18048W        W18912  24.156   4.213  18.610  0.1624 -0.0342  0.0697
18049W        W18913   0.158   4.081   5.503  0.1369  0.0084 -0.0077
18050W        W18914   5.985  27.371  13.053  0.1367 -0.0892 -0.5641
18051W        W18915  16.026  15.081  23.864 -0.1365 -0.2147 -0.0904
18052W        W18916  22.893  17.322  18.972 -0.1937 -0.1692  0.0295
18053W        W18917  28.427  20.502  11.002 -0.0361 -0.0496  0.0842
18054W        W18918   6.934   2.750  19.959 -0.0553 -0.1145  0.2849
18055W        W18919  15.069  25.016  14.266 -0.0841 -0.1647  0.1455
18056W        W18920  21.327  15.890  21.368  0.1003 -0.1310  0.2183
18057W        W18921   7.150   2.565  21.749  0.0081 -0.1660  0.2948
18058W        W18922   6.387  26.010   7.907  0.1299  0.0442 -0.0219
18059W        W18923  21.203  16.005   1.866 -0.0465 -0.2162  0.3292
18060W        W18924  28.777  21.470   0.882 -0.0839  0.1369  0.0754
18061W        W18925   0.067   5.941   3.040  0.2303  0.2890 -0.0938
18062W        W18926  24.293  12.131  11.415  0.0672  0.1779  0.1940
18063W        W18927  23.651   1.281  18.633 -0.3598 -0.0680  0.1669
18064W        W18928  11.374   3.371   5.349  0.0435  0.1971  0.0625
18065W        W18929   1.507  26.333  26.304  0.2017  0.4120  0.1497
18066W        W18930  12.600  12.504  28.392 -0.1570  0.2633  0.1656
18067W        W18931  20.793  18.540  17.199 -0.0952  0.0095 -0.2513
18068W        W18932  23.403   4.915  28.017 -0.2109  0.2345  0.2677
18069W        W18933   2.195  23.397  18.015  0.0862  0.0339 -0.1412
18070W        W18934  26.818   7.245   2.913 -0.1043  0.3257 -0.1054
18071W        W18935  26.063   1.813  18.479 -0.2152 -0.0975  0.1635
18072W        W18936   9.426  18.079  13.093 -0.0914 -0.3380  0.3563
18073W        W18937   5.922   3.320  10.279 -0.1331  0.3294 -0.2088
18074W        W18938  19.602  13.974   4.631  0.2309  0.1260  0.1414
18075W        W18939  18.279   7.762  21.338  0.1318 -0.0257 -0.1475
18076W        W18940  19.704   1.717  26.699 -0.0026  0.1205 -0.1322
18077W        W18941  10.950  17.143   4.458 -0.1143 -0.0791 -0.1120
18078W        W18942  14.214  13.196  21.157  0.0964 -0.0034  0.0624
18079W        W18943   4.380  14.788  12.548 -0.1568  0.0095 -0.3842
18080W        W18944  24.660  19.276  22.648 -0.0543  0.0401 -0.0470
18081W        W18945  18.507   7.055  23.670 -0.2437  0.2675  0.2037
18082W        W18946  16.440   8.910  25.111  0.1022  0.0596  0.2561
18083W        W18947  24.851   4.687   1.288 -0.1617  0.4987  0.0794
18084W        W18948  10.323  10.377  15.486  0.2837  0.2829  0.2138
18085W        W18949   7.288   6.413  23.305 -0.0609 -0.0580  0.0452
18086W        W18950  16.973  25.392  27.108  0.0582 -0.0221 -0.0034
18087W        W18951  12.209   0.101   7.353  0.0068 -0.0038  0.1197
18088W        W18952  16.988   2.149  20.372 -0.2790  0.4831  0.1761
18089W        W18953  13.727   5.041  20.418  0.0941 -0.1917 -0.0207
18090W        W18954  25.993   5.977  16.479  0.0309  0.0284 -0.0371
18091W        W18955  13.906  27.124   0.759  0.0057  0.0680  0.0794
18092W        W18956  25.479  25.400  21.921 -0.0548  0.1508 -0.1221
18093W        W18957  26.770  19.030  27.110  0.1480  0.0719  0.0157
18094W        W18958   3.618  23.945   1.381 -0.1234  0.0959  0.3092
18095W        W18959   1.580  13.465  20.761 -0.2308  0.2117  0.2187
18096W        W18960  13.584  10.190  26.212 -0.2840 -0.0073 -0.3215
18097W        W18961  20.734   9.700  21.376 -0.0021 -0.1947 -0.1804
18098W        W18962  15.610  24.893  28.495 -0.0770  0.0072  0.1328
18099W        W18963  14.592  19.569  25.485  0.1710  0.0676 -0.1561
18100W        W18964  23.901  21.625  20.715 -0.0660 -0.0765  0.0626
18101W        W18965  11.130   5.601   9.409  0.0638  0.0695 -0.1018
18102W        W18966  19.901  14.817   1.202 -0.3665 -0.1476 -0.1779
18103W        W18967  13.783  28.783   8.941 -0.0270 -0.1418 -0.1345
18104W        W18968   9.162  28.343   4.328  0.1367  0.0672  0.2507
18105W        W18969   3.405   2.652  17.047 -0.1636 -0.1360  0.2343
18106W        W18970   4.745   5.375  14.055  0.4571 -0.0360 -0.0792
18107W        W18971  13.487   3.535   1.696  0.0367 -0.0252 -0.0579
18108W        W18972  24.000   0.593  19.189  0.2050 -0.1551  0.0784
18109W        W18973   6.684  17.749  25.128  0.1687  0.0215  0.4431
18110W        W18974   7.587  27.949   2.018  0.0547 -0.1095 -0.4594
18111W        W18975  26.684  25.978  17.308  0.0227 -0.1667 -0.2826
18112W        W18976   0.093  21.083  15.435  0.1122  0.2609 -0.0758
18113W        W18977   2.613   4.570   3.261 -0.0362  0.1882  0.1893
18114W        W18978  18.015  16.547  21.403 -0.1271 -0.1275 -0.0659
18115W        W18979   3.415  24.171  26.477 -0.1823  0.2687  0.1500
18116W        W18980  25.275  11.761   0.942 -0.0022 -0.0635  0.3694
18117W        W18981  17.511  13.106  23.441  0.2219 -0.2757 -0.3954
18118W        W18982  24.368  21.194   1.599  0.0314 -0.0025  0.0682
18119W        W18983  17.870   1.904  27.768 -0.1549  0.0290  0.2361
18120W        W18984  23.576   6.871  17.773  0.0802 -0.4370  0.0821
18121W        W18985  19.167  20.085   8.880 -0.0625  0.0354 -0.0396
18122W        W18986   9.891  21.014  23.400 -0.1604 -0.1061 -0.4702
18123W        W18987   9.733  20.358   5.193 -0.1113  0.0912 -0.1749
18124W        W18988  14.975   5.995   2.873 -0.0177 -0.1414  0.3173
18125W        W18989   6.371  22.397  26.880  0.0450 -0.0393 -0.0165
18126W        W18990  20.675   4.676  14.139 -0.1562 -0.0845 -0.2646
18127W        W18991  19.018   6.863  12.736 -0.5498  0.1910 -0.0965
18128W        W18992  19.070  25.667  19.011  0.1254 -0.0721 -0.1551
18129W        W18993   2.148   8.499   5.509  0.2975  0.1390 -0.2094
18130W        W18994  18.861  11.598  21.890 -0.1060  0.0794  0.0270
18131W        W18995  20.458  26.299   7.676 -0.2379 -0.2239 -0.0757
18132W        W18996  23.873   8.344  24.003 -0.2014  0.4706 -0.1547
18133W        W18997  14.199  27.579  11.128  0.1132  0.0850  0.0373
18134W        W18998  16.237  20.398  18.167  0.1696  0.2205  0.0251
18135W        W18999  19.344   4.339   1.362 -0.2895  0.0955  0.1742
18136W        W19000   7.764  11.756  23.736  0.2442  0.0349  0.1299
18137W        W19001   3.417  14.176   8.201  0.0328  0.1619  0.0682
18138W        W19002  17.132  23.512  19.956  0.1860 -0.1696  0.1715
18139W        W19003  19.283   0.449  21.433 -0.1913 -0.3601  0.1682
18140W        W19004  23.087   8.925  28.459  0.2270  0.1558  0.3692
18141W        W19005  23.167  19.804  26.049 -0.2016 -0.4312 -0.1202
18142W        W19006  19.851  16.699  22.348 -0.2567 -0.0457  0.0424
18143W        W19007  11.820  22.741   0.674 -0.0130 -0.1004  0.0966
18144W        W19008   9.271  24.967  18.196  0.0690 -0.1566 -0.2503
18145W        W19009  23.613  24.793  22.551 -0.1149  0.2082  0.3161
18146W        W19010   0.448   9.286   2.025  0.0295 -0.2484 -0.1180
18147W        W19011   2.119   3.157  16.144 -0.0014  0.2011 -0.1177
18148W        W19012  27.398  23.205   0.392 -0.0772 -0.5639 -0.0848
18149W        W19013  23.250  16.667  28.913 -0.2594 -0.0768 -0.0880
18150W        W19014  25.772  12.789  24.855 -0.0187  0.0851 -0.0911
18151W        W19015  18.226   0.783  17.676 -0.0957 -0.1211 -0.1459
18152W        W19016  24.106  21.072  22.484  0.1610  0.2733  0.0794
18153W        W19017  17.339  10.824  19.004  0.1085  0.0645 -0.0567
18154W        W19018  19.008   1.893  11.304  0.5441  0.2025  0.2540
18155W        W19019  23.135   7.635  28.200  0.1093  0.0467 -0.1041
18156W        W19020  26.460   7.575  24.714  0.0494  0.0969 -0.0960
18157W        W19021  19.441   7.943   4.103  0.0249 -0.0354  0.0501
18158W        W19022   4.169  17.199  12.922 -0.2937  0.1002  0.1834
18159W        W19023   9.094  18.243  23.640 -0.3960 -0.0539  0.0514
18160W        W19024  13.412  13.584   9.432  0.0182 -0.0501  0.1050
18161W        W19025   7.152   9.514  18.207 -0.0331  0.1763 -0.0875
18162W        W19026  18.916  10.463  22.366 -0.2005 -0.0090  0.2929
18163W        W19027  18.472  11.244   7.187  0.1029 -0.2157 -0.4016
18164W        W19028  15.758   0.071  24.095  0.6283  0.1085  0.0926
18165W        W19029  10.947  23.451  15.493  0.0345 -0.0756  0.0207
18166W        W19030   3.629   3.607  20.305 -0.0072 -0.1421  0.0587
18167W        W19031   8.720   2.451  19.711  0.2963 -0.0764  0.0197
18168W        W19032   9.060  25.285   9.974  0.2336 -0.2052  0.1342
18169W        W19033  14.384  21.684   2.822  0.1693  0.4189 -0.0528
18170W        W19034  27.683  18.143  21.039  0.0735  0.1514 -0.0410
18171W        W19035   7.913  12.643   7.228 -0.4799 -0.1003  0.0816
18172W        W19036  15.978  15.923  10.653 -0.0026 -0.0611 -0.2433
18173W        W19037   1.703  18.199  13.055  0.1526  0.2409  0.1530
18174W        W19038   4.951  14.850  21.301  0.1997 -0.2900  0.0446
18175W        W19039  15.901   2.147  27.338  0.2821  0.2345 -0.1484
18176W        W19040  27.082   4.398  21.098 -0.1881  0.2481  0.0114
18177W        W19041   9.157  12.506  25.098 -0.0232  0.1249  0.1419
18178W        W19042  14.307  12.099   1.703 -0.0104  0.0043 -0.2385
18179W        W19043  23.951  16.259  24.045 -0.0481 -0.0976 -0.4519
18180W        W19044  24.898  26.274   6.697  0.0952  0.4237 -0.2162
18181W        W19045  14.795  19.097  23.525 -0.0172 -0.0533 -0.1962
18182W        W19046  17.290  23.334  25.709  0.2952 -0.1076  0.1554
18183W        W19047  12.992  24.295  28.428 -0.0380  0.2524 -0.3843
18184W        W19048  12.244  18.858   8.101 -0.0038 -0.0982  0.0320
18185W        W19049  25.347  10.666   4.925 -0.2798  0.1183 -0.4074
18186W        W19050   1.755   9.232  28.856  0.0488  0.0635  0.0671
18187W        W19051   3.048  24.588  10.529  0.1597 -0.0780 -0.0330
18188W        W19052  15.171  15.410   1.838 -0.0751  0.4730 -0.1096
18189W        W19053  15.585  27.350   9.160 -0.1468  0.2863  0.3068
18190W        W19054   5.664  25.001  27.048  0.0016  0.1118  0.1605
18191W        W19055  27.076   2.929  10.156  0.1498 -0.0943 -0.1494
18192W        W19056   5.684  28.671   2.884  0.1821  0.0809  0.1342
18193W        W19057  11.760   9.634   4.520 -0.2512  0.4604  0.0978
18194W        W19058  20.966  15.197   3.023 -0.1779  0.0568  0.2069
18195W        W19059  12.692  13.680  22.661 -0.2885  0.0720 -0.0769
18196W        W19060  13.549  28.044   5.863  0.4576 -0.0315  0.1889
18197W        W19061  11.974  17.148  19.776 -0.1101  0.0979 -0.0020
18198W        W19062  13.276  14.952   0.226  0.0238  0.0287  0.0358
18199W        W19063   5.486   3.905  21.388 -0.0854 -0.0138 -0.2667
18200W        W19064  23.350   9.045   1.829 -0.3016  0.1071 -0.2416
18201W        W19065   4.987  13.264  25.700 -0.2066 -0.1237  0.1030
18202W        W19066  20.621  17.977  28.501  0.4006 -0.3568 -0.0106
18203W        W19067  27.947  13.528   7.771  0.0985 -0.2120  0.1421
18204W        W19068  26.279  26.700  28.094  0.1031  0.0835 -0.1053
18205W        W19069  17.964  14.649  26.544  0.1749 -0.1806  0.2500
18206W        W19070   7.777  20.347   6.626  0.0370  0.0252  0.1570
18207W        W19071   5.994  20.227  12.610 -0.0979  0.1642  0.2503
18208W        W19072   4.518  13.440   1.384  0.0015 -0.2287  0.0754
18209W        W19073   5.726  12.561   6.629 -0.0523  0.0009 -0.3268
18210W        W19074  17.938  21.478  23.609 -0.2687  0.3848 -0.0233
18211W        W19075   5.663  16.850  17.909  0.0874  0.1591 -0.1029
18212W        W19076  13.451   4.467   3.584 -0.0017  0.0923  0.4000
18213W        W19077   0.229   7.313  16.226  0.2472 -0.0088 -0.2517
18214W        W19078  19.532  12.045  29.097 -0.1626 -0.2456  0.3204
18215W        W19079  24.622  27.506  23.026  0.3192 -0.0510  0.0560
18216W        W19080  20.005  19.239  13.578 -0.2824  0.1096 -0.0733
18217W        W19081  15.429  17.223  27.704 -0.0393  0.2123  0.1322
18218W        W19082  10.069  16.606   1.054 -0.0508  0.0060 -0.1576
18219W        W19083  18.478  25.223  24.045 -0.0399  0.0395  0.2015
18220W        W19084   0.485  16.889   5.382 -0.0078 -0.3334 -0.0573
18221W        W19085  16.573  21.191  14.662 -0.1584 -0.0780  0.3083
18222W        W19086  27.348  10.882  24.531 -0.1888 -0.3701 -0.2271
18223W        W19087  27.982   5.100   9.803  0.0628 -0.2858  0.0253
18224W        W19088  23.257  17.603  23.565  0.1211 -0.0088  0.3546
18225W        W19089  19.237  12.132  24.691  0.3559  0.0061 -0.0885
18226W        W19090  17.755  21.965  24.301  0.3069  0.0305  0.3588
18227W        W19091   2.862  11.630   6.177 -0.0726  0.0993  0.1112
18228W        W19092   5.784  22.548   9.142 -0.1893 -0.0763  0.0743
18229W        W19093  14.625  28.131  12.790 -0.2544 -0.4220 -0.2110
18230W        W19094   4.830  18.336  19.805  0.0411 -0.1967 -0.0964
18231W        W19095  19.126  16.886   2.095 -0.0754  0.0998 -0.1474
18232W        W19096  28.718  24.653  26.186  0.0648 -0.0981  0.2188
18233W        W19097  15.180  19.960  22.457 -0.0373 -0.2940  0.1038
18234W        W19098  16.950  24.266  26.344  0.0589 -0.1958 -0.1174
18235W        W19099   8.516  24.681  13.814  0.0561  0.1324  0.0112
18236W        W19100  13.606   5.501  21.019 -0.1066  0.0745  0.1251
18237W        W19101  11.105  16.450  25.113 -0.1201  0.1412  0.0968
18238W        W19102  16.151  24.882  24.230  0.0962  0.0844  0.2510
18239W        W19103  18.210  26.327   7.954 -0.0220  0.1961  0.0920
18240W        W19104  16.496  14.989   1.299  0.3964  0.1454  0.0620
18241W        W19105  21.686  11.482  14.440  0.0372  0.1172 -0.2183
18242W        W19106   2.127   4.406   7.939 -0.0828  0.2501  0.1101
18243W        W19107  11.165  10.883  27.550 -0.3245 -0.1738 -0.3632
18244W        W19108  23.773   0.913  26.417 -0.0813 -0.2830  0.0012
18245W        W19109  17.410  28.979   1.962  0.1676  0.0586  0.2232
18246W        W19110  17.166   2.768  20.821  0.1051 -0.1536 -0.2634
18247W        W19111   2.884   6.398  26.049  0.3067  0.1610  0.0997
18248W        W19112  22.711  16.871  20.236 -0.2446  0.1919  0.3098
18249W        W19113  26.649   0.027  15.041  0.0244  0.1748  0.0358
18250W        W19114   8.793  19.977   8.960 -0.2777 -0.1295  0.0857
18251W        W19115  22.794  23.427  27.602 -0.0353 -0.0120  0.2107
18252W        W19116  14.435   2.688  11.988  0.1018  0.2505  0.0249
18253W        W19117  12.978   6.460   0.579 -0.0069  0.1067  0.3703
18254W        W19118  17.022  10.886  23.098 -0.1135 -0.1151 -0.0827
18255W        W19119  17.055  27.018  24.603 -0.2446  0.1364 -0.1797
18256W        W19120   5.414   8.182  15.300  0.1298  0.0568  0.0990
18257W        W19121  17.275  21.581  26.230 -0.0204  0.2193 -0.2805
18258W        W19122  20.504   6.265  25.689  0.1527 -0.0919 -0.0785
18259W        W19123  21.726  17.341  20.924 -0.0086  0.2773 -0.4476
18260W        W19124   1.973  25.566  23.209 -0.0285  0.0671 -0.0755
18261W        W19125  21.859  22.259   0.815 -0.4161  0.1489  0.0018
18262W        W19126  13.046  23.912  13.379 -0.3153  0.0270 -0.1265
18263W        W19127  14.907   8.517  26.672  0.0879  0.0949 -0.2873
18264W        W19128   4.229  11.033   0.422 -0.2665  0.0377 -0.1745
18265W        W19129  23.079  17.544   2.841 -0.0713 -0.0359  0.0067
18266W        W19130   3.373   6.003  12.784 -0.3246 -0.1233 -0.1430
18267W        W19131  15.952  24.826  22.398 -0.1082  0.1348  0.0297
18268W        W19132  28.915  13.929  20.172 -0.4486  0.2768  0.2709
18269W        W19133   5.120  13.927   3.229  0.0766  0.2036 -0.1687
18270W        W19134   4.733  21.215  15.098  0.0431  0.0152  0.3940
18271W        W19135  10.163  18.051  13.666 -0.0391 -0.2145  0.2676
18272W        W19136  22.589  22.142  25.970 -0.3907 -0.1014 -0.1491
18273W        W19137  17.658  11.442   6.535 -0.1263 -0.1754  0.2024
18274W        W19138   8.445   1.254  19.568 -0.1402  0.3390  0.2359
18275W        W19139   7.836  25.712   3.364 -0.2604 -0.0298  0.1161
18276W        W19140  16.320  10.624   0.849  0.1009  0.0065 -0.0568
18277W        W19141  17.430   6.737  25.606 -0.1109  0.4109 -0.1110
18278W        W19142  15.443   8.569   4.808 -0.0567  0.0668 -0.1335
18279W        W19143  12.295  17.942  11.784  0.1398 -0.1001  0.0659
18280W        W19144   6.212  21.874  27.547  0.1484  0.4783 -0.3014
18281W        W19145  19.230  25.160   3.693 -0.1518 -0.0089  0.2265
18282W        W19146  23.648  23.136   4.291  0.1088 -0.1429  0.3413
18283W        W19147  18.226  21.429  11.217 -0.0434  0.3901  0.0596
18284W        W19148  21.095   5.713   8.518 -0.0858  0.0443 -0.1518
18285W        W19149   6.824   5.665   7.996  0.2302  0.3983 -0.1188
18286W        W19150  14.222  25.573  26.270  0.0207 -0.0351  0.4092
18287W        W19151  26.964  28.625  21.273 -0.0702 -0.0417  0.0089
18288W        W19152  22.926   1.101  24.797 -0.0192 -0.0273 -0.0657
18289W        W19153  12.611  22.798  22.320  0.1113  0.0108 -0.2670
18290W        W19154  24.045  15.479  17.342  0.0543 -0.1791  0.0705
18291W        W19155  13.980  25.366  26.924 -0.0367  0.3049  0.1047
18292W        W19156  19.069   3.418  18.967  0.0076 -0.2057 -0.2224
18293W        W19157  23.766  14.582  21.273 -0.3971  0.1410 -0.0372
18294W        W19158   3.784  22.773  12.261  0.1310  0.0853 -0.1228
18295W        W19159  24.256  28.767  16.750 -0.1065  0.1377  0.0866
18296W        W19160   9.940  14.005   7.249 -0.0640 -0.3839 -0.2954
18297W        W19161   9.399  10.859  22.903  0.1243 -0.1881  0.1251
18298W        W19162   4.463   2.680   1.918  0.0008 -0.3786 -0.1488
18299W        W19163  13.561  23.059  12.785  0.2053 -0.1142  0.0172
18300W        W19164  22.917  28.355   2.623 -0.0535 -0.0804 -0.3739
18301W        W19165  11.095   3.278  22.953 -0.0218  0.3134 -0.2366
18302W        W19166   1.337  15.446   4.027  0.0097 -0.1554 -0.1459
18303W        W19167  20.315   0.587   5.390  0.1072  0.1874  0.1234
18304W        W19168  24.037  15.119  27.476  0.2369 -0.0870  0.0658
18305W        W19169  16.868  24.285   7.370 -0.1949  0.0919 -0.1306
18306W        W19170  21.330  28.374  24.846 -0.1592 -0.1135 -0.0584
18307W        W19171  26.996  18.100   3.310 -0.1619  0.3427  0.2765
18308W        W19172  21.504  23.901   1.585  0.2649 -0.0884 -0.1315
18309W        W19173  12.361  15.300  28.543  0.4533  0.0665 -0.0075
18310W        W19174   5.057  12.840   2.319 -0.1881  0.2167  0.3308
18311W        W19175   7.402   6.937  25.130  0.0629 -0.1779 -0.2936
18312W        W19176  14.587  28.072  19.742  0.1754  0.1240  0.2107
18313W        W19177  19.238  15.799  27.427 -0.1463 -0.0039 -0.0125
18314W        W19178  10.143   6.199  24.426 -0.2969 -0.1210 -0.0196
18315W        W19179  17.743  16.556  25.894  0.1634  0.2046 -0.2207
18316W        W19180  26.897  26.066   8.064 -0.0703 -0.3051  0.1789
18317W        W19181  17.445  18.409   5.920 -0.0647 -0.3598 -0.1017
18318W        W19182  12.243  22.129  17.548  0.0414  0.0399  0.0010
18319W        W19183  15.527  15.723   6.248 -0.4660  0.0515 -0.1642
18320W        W19184  12.319  13.062   0.111 -0.0124  0.1891 -0.3293
18321W        W19185  25.890  17.243  20.260 -0.2305 -0.4688 -0.1769
18322W        W19186  17.567   7.741  19.682  0.2726 -0.2435 -0.2646
18323W        W19187   5.500  21.396   7.913 -0.1729 -0.0890  0.1955
18324W        W19188  18.516  19.783  18.297 -0.2145  0.1668 -0.0754
18325W        W19189   9.450  11.359   2.272  0.0171 -0.0794 -0.2278
18326W        W19190   4.959   6.345  22.387  0.0024 -0.0034  0.1936
18327W        W19191  17.404   5.289   0.071  0.0568 -0.2054  0.0498
18328W        W19192  11.101  17.207  17.886  0.1305  0.2561 -0.2133
18329W        W19193   9.719  13.098  15.908  0.0884 -0.1009  0.1254
18330W        W19194   7.455  29.005  14.694  0.1658 -0.0357 -0.3016
18331W        W19195  16.590  18.883   9.444  0.0568  0.0974  0.0090
18332W        W19196  14.031  20.607   5.449 -0.1541 -0.1351  0.2594
18333W        W19197  23.612   1.097  13.076  0.2171 -0.0089  0.3040
18334W        W19198   4.017  26.834  10.580  0.1413 -0.1450  0.0699
18335W        W19199  19.953  26.930  21.157 -0.1504 -0.2492  0.1917
18336W        W19200   4.931   5.923  16.432 -0.0693 -0.2178 -0.1268
18337W        W19201  13.828   7.174   3.034 -0.0165  0.1851  0.1104
18338W        W19202  10.584  16.477  15.382 -0.1472 -0.1179  0.1044
18339W        W19203  11.604  28.914   1.933 -0.2428 -0.0279  0.1931
18340W        W19204   3.592   5.488   3.855 -0.0643 -0.2676  0.1705
18341W        W19205  11.165  23.144  13.799 -0.1249 -0.1415  0.3583
18342W        W19206  17.819   2.738   0.821 -0.1944  0.3249 -0.1200
18343W        W19207  13.681  25.435  21.986 -0.1019 -0.1179  0.0204
18344W        W19208  13.984  15.550  11.546  0.3051  0.0837  0.0656
18345W        W19209   0.751  17.148  20.106  0.3387 -0.0660  0.0654
18346W        W19210  22.717  27.946   7.171  0.0611 -0.1284  0.0818
18347W        W19211  10.029   9.218   5.349  0.0670 -0.1920  0.1493
18348W        W19212  22.113   6.934  26.594  0.1398  0.0469  0.1169
18349W        W19213  11.488  18.967   1.156  0.1732 -0.0437 -0.3798
18350W        W19214  20.394  20.347  16.771 -0.0359 -0.3649 -0.0928
18351W        W19215  18.551   1.674  15.019  0.2981 -0.2488  0.0093
18352W        W19216   4.737  13.937   5.736  0.0122  0.1046 -0.0428
18353W        W19217  24.579  16.783  28.056  0.0362 -0.1395  0.1183
18354W        W19218  19.487   6.554  27.164  0.0898  0.0608  0.2205
18355W        W19219  15.527   4.608  20.244  0.4163  0.0235 -0.2732
18356W        W19220  16.327  17.959   7.073 -0.0705  0.0308  0.0389
18357W        W19221   5.921   4.094  17.810  0.0256  0.2880 -0.1897
18358W        W19222  21.946  16.569   1.187 -0.1880  0.1551  0.1404
18359W        W19223  17.470  11.092  11.646 -0.0845  0.0351 -0.5876
18360W        W19224  12.187  18.401   1.106  0.1210  0.2003  0.2808
18361W        W19225  26.400  24.733  16.998 -0.1272 -0.3429 -0.1826
18362W        W19226   8.210   0.449  18.972  0.2101  0.1973 -0.0622
18363W        W19227  28.959   9.836  23.873  0.1887 -0.3074  0.0913
18364W        W19228   6.335  24.920  11.778  0.0358  0.1425  0.2331
18365W        W19229   4.343   4.286   8.816 -0.0461  0.0473  0.0917
18366W        W19230  17.149  23.888  19.057  0.1694 -0.4694 -0.0349
18367W        W19231  16.972  13.217   0.460  0.1898 -0.3542  0.3067
18368W        W19232  16.661   7.252  13.892  0.0338 -0.0363 -0.0506
18369W        W19233  16.402   2.976  28.504 -0.0669  0.0747 -0.1109
18370W        W19234   8.445  29.055   3.925  0.2921  0.0087  0.1102
18371W        W19235  12.622   9.739  15.687  0.2095  0.0321 -0.1332
18372W        W19236  23.568   6.208   6.927  0.0819 -0.1846  0.1797
18373W        W19237  18.628  10.368  24.779  0.2704 -0.3032 -0.0917
18374W        W19238  21.714  16.342  20.781 -0.1289 -0.0076 -0.1563
18375W        W19239  18.147  25.825  27.490  0.1717  0.0516 -0.0979
18376W        W19240  25.445  21.842  26.272 -0.3797 -0.2456  0.3152
18377W        W19241  27.812   7.630  14.618 -0.3499  0.1235 -0.1033
18378W        W19242   1.496  15.406  24.433 -0.0162  0.0045  0.3430
18379W        W19243   5.689  19.623  17.645 -0.0306 -0.4069 -0.1731
18380W        W19244   7.341  19.819  27.888  0.0102 -0.4993  0.1932
18381W        W19245  27.965  24.823  27.340  0.0850  0.0249  0.0824
18382W        W19246  13.445  24.585  26.847  0.2056  0.0486 -0.0891
18383W        W19247  21.310  21.963   7.104 -0.0133  0.0367  0.0607
18384W        W19248   5.033   8.559  22.155  0.1725  0.1216 -0.0000
18385W        W19249   4.137   9.728  22.101 -0.0878 -0.0296 -0.3603
18386W        W19250   7.130  19.493  21.211 -0.0344  0.1193  0.2560
18387W        W19251  27.713  22.601   1.997  0.3475  0.2848  0.4484
18388W        W19252  16.833  23.119   9.445 -0.0653  0.1064  0.1862
18389W        W19253  14.059  10.766  27.439 -0.1710 -0.2244 -0.1506
18390W        W19254   6.593  18.017  21.596 -0.2172  0.1044  0.1909
18391W        W19255  21.447   9.290   2.676 -0.2944 -0.1066 -0.2503
18392W        W19256   7.917  14.911   3.151  0.0999  0.0588  0.1856
18393W        W19257   2.344  11.255  25.185  0.0080 -0.1854 -0.0981
18394W        W19258  14.618  17.621   7.591  0.0171 -0.0671 -0.1282
18395W        W19259   9.129   6.753  13.066  0.2429 -0.1073  0.0482
18396W        W19260   9.208  16.914  28.534 -0.0637 -0.2392  0.4271
18397W        W19261   0.616  15.076  28.372  0.2205 -0.0413 -0.3095
18398W        W19262  19.623  15.407  18.389 -0.1032  0.2939 -0.0538
18399W        W19263  10.084   5.806  22.570 -0.1514 -0.0622  0.3094
18400W        W19264   4.120  12.915   4.147  0.0243 -0.0098 -0.0397
18401W        W19265  18.966   2.478  29.078 -0.1930 -0.2267 -0.0953
18402W        W19266  21.518   9.942   4.695  0.1561 -0.0583 -0.1213
18403W        W19267  17.473  19.398   3.210  0.0872  0.0745  0.1326
18404W        W19268   2.778   9.786  25.503  0.2960  0.2937  0.1523
18405W        W19269   2.060  21.758  20.356  0.0224 -0.0533 -0.0144
18406W        W19270  13.784  19.859  14.096 -0.5304  0.1115  0.2730
18407W        W19271   5.685  28.594  24.045 -0.1444  0.0307  0.1882
18408W        W19272  19.412  16.962   5.553 -0.0164 -0.3511  0.0853
18409W        W19273   6.073   0.857  19.428  0.3534  0.2864  0.0191
18410W        W19274   1.879  24.670  27.725 -0.0223 -0.1060  0.1114
18411W        W19275  14.313  10.555   4.005 -0.1664  0.1174 -0.2018
18412W        W19276  21.117  17.843   4.590 -0.0251  0.2889 -0.3140
18413W        W19277  17.074  16.340  28.623 -0.1472  0.1482  0.0538
18414W        W19278  25.011  15.912  19.923 -0.1853  0.2825  0.1032
18415W        W19279   6.316  18.860  19.686  0.3034  0.0608 -0.1386
18416W        W19280  22.583  14.006  25.779 -0.0158 -0.0908  0.0010
18417W        W19281   0.257   8.004   6.842 -0.0252 -0.0042  0.2227
18418W        W19282  15.226  19.642  21.634  0.0386  0.2728  0.0328
18419W        W19283  22.105  15.782  22.902  0.3123 -0.1593  0.4145
18420W        W19284  18.281   4.222  19.418  0.0847 -0.0837 -0.1026
18421W        W19285  10.250  26.271  23.428  0.0194 -0.2749 -0.0713
18422W        W19286  14.671   3.758   0.263 -0.0259  0.4014  0.2304
18423W        W19287  10.197  26.378  28.806  0.2413 -0.1458 -0.0866
18424W        W19288  16.115  13.936  27.693  0.0964 -0.0609 -0.0515
18425W        W19289  21.096  17.973  16.829  0.2406  0.1155 -0.0949
18426W        W19290   9.843  26.730  28.036 -0.1030 -0.1750 -0.2938
18427W        W19291  10.052   9.038  25.798 -0.0187  0.2121  0.0034
18428W        W19292  17.043   8.290   6.397  0.1864  0.1713 -0.1195
18429W        W19293  10.761  26.240  13.285  0.1133  0.0882 -0.0684
18430W        W19294  26.747  10.572   1.608  0.1405 -0.0400 -0.2647
18431W        W19295  21.389  25.686   1.002 -0.1819  0.1000  0.1116
18432W        W19296  14.488  18.945   6.258  0.4077 -0.2060  0.0446
18433W        W19297  13.061   0.162   2.126 -0.3606 -0.1023  0.1000
18434W        W19298  11.063   5.477  15.845  0.2939 -0.4145  0.0830
18435W        W19299  20.360  17.836  11.951  0.2733 -0.0259 -0.1091
18436W        W19300  28.361  21.044  25.133 -0.0080  0.0966 -0.0808
18437W        W19301  25.212  16.909   6.336  0.2064 -0.3890 -0.0126
18438W        W19302   1.952  21.254  12.616 -0.0367 -0.2691 -0.0649
18439W        W19303  10.857  22.200  20.046  0.0028  0.2033  0.3899
18440W        W19304  27.203  15.204  13.550 -0.0959  0.0183 -0.1297
18441W        W19305   8.934  17.187   5.713 -0.0561 -0.3048  0.3131
18442W        W19306   5.694  27.557  22.782  0.0433 -0.3477 -0.1201
18443W        W19307  16.090  19.830  24.989  0.0927  0.2546 -0.1846
18444W        W19308  19.825   6.954   4.948 -0.1111 -0.0893 -0.3538
18445W        W19309  20.354  12.588   2.251 -0.2490 -0.0037  0.0495
18446W        W19310  12.444  19.230  15.138 -0.0587  0.0953  0.1704
18447W        W19311   1.624  19.347  10.201 -0.0286  0.0364  0.1232
18448W        W19312  23.195  15.149   9.066 -0.2316 -0.1417  0.1261
18449W        W19313  27.627   8.616  12.452 -0.0068  0.1603  0.0062
18450W        W19314   5.571  11.685  28.781 -0.1442 -0.2018 -0.1264
18451W        W19315   8.014  29.100  21.660 -0.1594  0.2976 -0.0088
18452W        W19316  17.285  15.983  23.427  0.0808  0.2727  0.1014
18453W        W19317  11.322  24.269   7.375  0.1885  0.1669 -0.1903
18454W        W19318   9.249  17.379  26.531  0.0114 -0.3038 -0.2198
18455W        W19319   5.216   6.586   0.365 -0.1669  0.0708 -0.2659
18456W        W19320  26.300  16.735   3.298 -0.1132 -0.0134  0.1305
18457W        W19321  17.886  20.040  23.087  0.1921 -0.1044 -0.0517
18458W        W19322  10.933   9.171  20.561  0.2653  0.1467  0.2165
18459W        W19323   2.213   9.173  22.330 -0.0496 -0.0616 -0.0167
18460W        W19324  21.077  13.839  27.832 -0.1823  0.1246  0.0412
18461W        W19325  16.798   1.894  14.333 -0.1156 -0.1973  0.2865
18462W        W19326   0.873   9.574  14.319 -0.4371 -0.3387  0.4040
18463W        W19327  14.522   7.914  21.619  0.0044  0.0374 -0.3156
18464W        W19328  15.725  10.807  24.959  0.1869  0.0853  0.1267
18465W        W19329  22.618   6.640  27.159 -0.3528 -0.1624  0.1093
18466W        W19330   7.447   4.774  27.205 -0.1227  0.1094 -0.1729
18467W        W19331  16.394   8.834  17.150  0.0092 -0.1545 -0.3084
18468W        W19332  28.197  19.532   4.460  0.1549  0.0606 -0.0256
18469W        W19333  12.133  16.871   1.343 -0.1202  0.1362  0.0743
18470W        W19334  16.904  14.853  11.107  0.0904 -0.3693  0.0045
18471W        W19335  11.665  25.128  25.035 -0.0621 -0.1443 -0.0712
18472W        W19336  15.763  28.979  26.621  0.1825  0.1384  0.0442
18473W        W19337  20.716  25.974   3.228  0.0338 -0.0949  0.0248
18474W        W19338   0.081  21.810   1.832  0.1861  0.1946 -0.0378
18475W        W19339   5.873  10.303  21.921 -0.2020  0.0072  0.1722
18476W        W19340  10.770   8.144  13.623 -0.0942 -0.0436 -0.0851
18477W        W19341  18.081  20.207   3.313 -0.0165  0.1966 -0.2067
18478W        W19342   7.623  17.892  19.895 -0.0344  0.1047  0.2519
18479W        W19343  10.420  11.166   1.017  0.1993  0.0910  0.2626
18480W        W19344   5.394   3.847  15.163  0.1757  0.0766 -0.0775
18481W        W19345   8.692   2.973  27.227 -0.3206 -0.1219 -0.2573
18482W        W19346  10.075  18.759  24.270 -0.2786  0.1315  0.1664
18483W        W19347  27.885  21.785   1.501 -0.1040 -0.1674  0.3340
18484W        W19348  14.025  26.953   3.991 -0.3256  0.1986  0.2423
18485W        W19349  13.395  27.530   1.998  0.1282  0.0137  0.0944
18486W        W19350  26.613  19.765   2.922 -0.2494  0.1997 -0.0028
18487W        W19351  25.556   0.667  21.807 -0.0667 -0.2838  0.1018
18488W        W19352   2.441  14.316  12.922  0.0549  0.1333  0.3996
18489W        W19353   6.099  15.897  14.012 -0.2793  0.1054 -0.4229
18490W        W19354  21.828   9.999   7.408  0.1907 -0.0969  0.0005
18491W        W19355   4.720  20.309  28.360 -0.3107  0.0557 -0.1810
18492W        W19356   4.691  20.531   6.035 -0.1032 -0.1798 -0.0099
18493W        W19357  21.451  14.803  26.746  0.0737  0.2912  0.2047
18494W        W19358  10.498  25.209   1.700 -0.0868  0.0698 -0.2577
18495W        W19359  28.326  28.129  21.181 -0.6162 -0.0786  0.0441
18496W        W19360   9.894  28.354  26.531 -0.1688 -0.4632  0.1475
18497W        W19361  10.449  24.001  15.314 -0.4732 -0.0748  0.0325
18498W        W19362  16.497   6.201  16.937 -0.1389  0.0497 -0.3208
18499W        W19363  17.193   6.507  25.957  0.0672 -0.5692 -0.0226
18500W        W19364  13.271  11.592  26.424 -0.4095 -0.0253  0.3275
18501W        W19365   9.388  19.760  15.535  0.1665 -0.2092  0.2625
18502W        W19366   5.422  17.898  27.340  0.0252  0.1328  0.2051
18503W        W19367  11.396  10.314  13.646 -0.0664  0.1467 -0.1130
18504W        W19368  15.612  16.040  19.632 -0.3318 -0.0863 -0.1961
18505W        W19369   8.023  14.647  11.157 -0.2279  0.0885 -0.3104
18506W        W19370  19.836   3.524  27.257  0.3024 -0.0228 -0.0192
18507W        W19371  19.623  22.359  19.424 -0.1775  0.0591 -0.0017
18508W        W19372  13.973  26.140  15.858 -0.0326  0.0769 -0.2150
18509W        W19373  15.841  22.899  17.302 -0.1565  0.0685 -0.3110
18510W        W19374   5.340  18.578  12.375  0.0652 -0.2775  0.2198
18511W        W19375  12.451  25.192  14.786  0.0929  0.0221 -0.0129
18512W        W19376  16.621   8.705  25.694 -0.0161 -0.0318 -0.2190
18513W        W19377   7.959  27.518  24.193  0.2881 -0.0476  0.1943
18514W        W19378   7.373  15.526   2.604  0.1138  0.0132  0.0893
18515W        W19379  18.960  24.110  11.802 -0.0777 -0.1054 -0.0590
18516W        W19380  20.824  12.537  15.443 -0.0656 -0.0252 -0.0622
18517W        W19381   9.066   4.915  27.849 -0.1815  0.0571  0.1554
18518W        W19382   5.290  16.860   4.114 -0.1157 -0.0827 -0.0183
18519W        W19383  13.868  23.350   4.367  0.0956 -0.0892  0.2239
18520W        W19384  26.638   4.110  24.073 -0.2581  0.1712 -0.2348
18521W        W19385  15.754   5.729  25.195 -0.0488  0.1983 -0.0663
18522W        W19386   2.210   7.763  26.026  0.2746  0.4718 -0.1192
18523W        W19387   8.451  20.644   6.080  0.0794 -0.2364  0.1355
18524W        W19388   6.857  23.500   7.367 -0.0494  0.1558 -0.0278
18525W        W19389  20.189  12.961   0.705 -0.1316 -0.0760 -0.1707
18526W        W19390  16.654   3.031  19.661 -0.0208 -0.2680 -0.0442
18527W        W19391   7.186   9.974  22.846  0.0426 -0.1889 -0.2050
18528W        W19392  20.379  21.669  18.578 -0.2440  0.0919 -0.2159
18529W        W19393  22.523  28.639  21.109 -0.1280 -0.1657 -0.2058
18530W        W19394   6.173  26.144   4.601  0.0148  0.2845  0.1221
18531W        W19395   3.702  17.944   7.301 -0.0588  0.1495  0.2726
18532W        W19396  12.212  12.025  17.093  0.0308  0.0638  0.0863
18533W        W19397  23.973  19.481  15.275 -0.1636 -0.0632 -0.1378
18534W        W19398   8.924  18.002  12.957 -0.2049 -0.3183 -0.2316
18535W        W19399  13.420   0.209  27.308  0.0662  0.0851  0.1408
18536W        W19400  17.958  21.268  21.624  0.2117 -0.0843  0.1410
18537W        W19401  22.415  13.111  28.227 -0.0180  0.0203  0.0599
18538W        W19402  16.275  21.167  25.368  0.1702  0.0246  0.0684
18539W        W19403  17.318  21.725  22.351 -0.1954 -0.0692  0.0963
18540W        W19404   9.166  13.401  13.671  0.0295 -0.2120 -0.1319
18541W        W19405   7.484  23.961  22.535  0.3315 -0.0223 -0.1285
18542W        W19406  22.631  17.197   5.516 -0.1631  0.0231 -0.0714
18543W        W19407   1.848   2.911   3.367  0.0739  0.3411 -0.1767
18544W        W19408   2.088  20.956   2.459  0.3622 -0.1104 -0.0662
18545W        W19409  13.703  18.709   3.416  0.3622 -0.3611  0.0537
18546W        W19410  20.898  23.304   6.587 -0.0911 -0.0456  0.0698
18547W        W19411  23.330  10.450  13.264  0.0299  0.1442 -0.0107
18548W        W19412  27.925   3.457  28.223  0.3013 -0.0368 -0.3502
18549W        W19413  21.414   4.971   5.561 -0.2214 -0.0598 -0.0572
18550W        W19414  28.589  10.663  19.810 -0.1783  0.1871 -0.4236
18551W        W19415  15.316  12.167  27.387  0.0032  0.1789  0.1560
18552W        W19416   7.254  12.296  19.571  0.1438  0.0286 -0.0296
18553W        W19417  14.713  23.766  18.796  0.2212 -0.3014  0.1021
18554W        W19418  25.597  14.256  13.709 -0.0546  0.1577  0.1009
18555W        W19419  28.588  26.954  15.689 -0.0496 -0.1972  0.0798
18556W        W19420  27.858  23.163  24.881 -0.2258  0.0793  0.2271
18557W        W19421  24.231  26.976  14.867 -0.0458  0.3131  0.2377
18558W        W19422   8.291   2.362  18.299  0.1361 -0.1345 -0.1238
18559W        W19423   7.258   3.712  18.988 -0.1409 -0.0041 -0.1232
18560W        W19424  26.981  21.852   8.001 -0.2410  0.0372 -0.0973
18561W        W19425  22.595   8.235  22.566 -0.1645  0.0468 -0.0674
18562W        W19426  21.135  13.324  20.524  0.1636  0.1373  0.0389
18563W        W19427  27.536  22.020  23.252  0.2680 -0.2793 -0.0568
18564W        W19428  20.517  27.821  28.685  0.0752 -0.2061  0.0186
18565W        W19429  10.403  24.363  19.745  0.1131  0.0136  0.1089
18566W        W19430  17.335  11.384  20.933 -0.0821 -0.1379 -0.0685
18567W        W19431  23.242   5.904   3.359 -0.0405  0.1931  0.2004
18568W        W19432  18.733  10.418  19.191 -0.2446 -0.3519  0.1166
18569W        W19433  12.147  26.708  19.082  0.2156  0.0902  0.3347
18570W        W19434  15.425  16.431   3.926  0.3477  0.0676 -0.1808
18571W        W19435  22.949   0.043   2.954 -0.2064 -0.1779  0.1474
18572W        W19436  13.001  23.897   5.409 -0.1196  0.1399  0.1363
18573W        W19437  23.587   1.607   6.497 -0.1218  0.3116  0.2507
18574W        W19438  20.682  10.563  21.091 -0.1273 -0.5486  0.0416
18575W        W19439  24.078   7.547   2.134  0.2475 -0.0486  0.2343
18576W        W19440   7.623   2.442   3.173 -0.1891 -0.1149 -0.2521
18577W        W19441  20.675  28.962   2.786  0.1105 -0.1305  0.0411
18578W        W19442  12.396   1.155  18.895  0.1846 -0.2002  0.5364
18579W        W19443   5.396  16.453   2.872  0.2476  0.0741 -0.3520
18580W        W19444  26.017  24.120  24.162 -0.1802  0.0199  0.0020
18581W        W19445  26.650   5.560  24.257  0.2342 -0.1720 -0.1430
18582W        W19446   2.518  24.995   1.010 -0.2008  0.0890 -0.0218
18583W        W19447  12.672  18.023  28.670 -0.0824  0.2713  0.0014
18584W        W19448  23.425  11.334   9.327  0.0675  0.0138  0.1075
18585W        W19449  14.652  23.859  17.869 -0.2743 -0.0069 -0.0874
18586W        W19450  21.075  28.039   5.267 -0.4847  0.2402 -0.1050
18587W        W19451  24.664  20.087  25.953 -0.1024  0.0748  0.2002
18588W        W19452  11.810   2.372  23.311  0.0159  0.1847 -0.3605
18589W        W19453  14.975  25.882   7.004  0.0151  0.1149  0.1838
18590W        W19454   8.519   0.634   8.008 -0.1592 -0.1296 -0.0827
18591W        W19455  15.009  18.570   2.595  0.0017  0.3860  0.1672
18592W        W19456  12.054  16.381   4.373 -0.4741 -0.0250 -0.2724
18593W        W19457  15.816  15.067   1.124  0.1154  0.0014 -0.0461
18594W        W19458   3.406  23.250  17.144 -0.1943  0.0375 -0.2090
18595W        W19459  12.045  15.279   3.823 -0.1268 -0.2362  0.0974
18596W        W19460  28.729   3.557   9.237  0.2237  0.0196  0.0389
18597W        W19461  19.004   7.763   0.124  0.0699  0.0413 -0.0868
18598W        W19462  23.836  19.442  20.808  0.1410  0.1515  0.2177
18599W        W19463  16.089  24.932  20.187 -0.1870 -0.1162 -0.2291
18600W        W19464   9.223  19.270  26.622  0.2573  0.0877 -0.2824
18601W        W19465  19.830  14.996  29.091  0.1726  0.3741  0.4070
18602W        W19466  14.947   4.164   6.630  0.1100  0.1048  0.2796
18603W        W19467  11.201  23.850  18.541 -0.0400  0.2418 -0.3069
18604W        W19468  22.304  27.304  28.800 -0.0901  0.0350 -0.0649
18605W        W19469  15.094   1.355  27.597 -0.2469 -0.0221 -0.1860
18606W        W19470  20.350   7.473   6.485 -0.1360 -0.0376 -0.0565
18607W        W19471  20.219  14.300  26.524  0.1280  0.2229  0.1466
18608W        W19472  18.056   2.088  24.615 -0.0457 -0.0458 -0.0553
18609W        W19473  11.829  24.666   7.451  0.0744  0.0372  0.1546
18610W        W19474  13.783  11.746  24.557  0.3598 -0.1025 -0.0536
18611W        W19475  26.570  21.085   8.420  0.1705 -0.0778  0.0346
18612W        W19476  19.716   5.361   0.601  0.0545 -0.0683 -0.3787
18613W        W19477  14.348  22.178  17.944 -0.0250 -0.0366 -0.1077
18614W        W19478   4.603   3.089  22.188 -0.2083 -0.0743  0.0046
18615W        W19479   7.659  17.678  21.013  0.0436 -0.0562 -0.0643
18616W        W19480  25.756  12.933  26.773  0.0820  0.1183 -0.1424
18617W        W19481  15.149  20.714   0.112 -0.1756  0.0930  0.2468
18618W        W19482   5.592  12.357   3.578 -0.2182  0.0972  0.0675
18619W        W19483   7.393  19.188  25.524  0.0290  0.1956  0.1712
18620W        W19484  14.950   6.932  24.986 -0.1158  0.0787 -0.2677
18621W        W19485  25.382   4.761  10.346 -0.4172 -0.1117 -0.2886
18622W        W19486  13.433  21.943   0.800 -0.1340  0.1883  0.0191
18623W        W19487  19.275  28.580  26.415 -0.0401  0.2848  0.1019
18624W        W19488  25.627   9.785   1.742  0.0519  0.1026  0.1330
18625W        W19489   1.635  26.634  20.049 -0.0762  0.1113 -0.1009
18626W        W19490  28.450  11.890  27.895 -0.0020 -0.1963 -0.0250
18627W        W19491  18.531  16.969  17.010  0.1230 -0.3830  0.1655
18628W        W19492   1.175   0.006  17.855  0.2347 -0.0967 -0.0795
18629W        W19493   3.104  24.040  10.366 -0.0108  0.0271  0.0609
18630W        W19494  21.694  18.725   2.576 -0.1084 -0.0631  0.1132
18631W        W19495  19.573  24.458  19.035 -0.1495  0.2040 -0.2395
18632W        W19496  12.765  25.037  21.033 -0.0253  0.1940 -0.1863
18633W        W19497   9.618  23.950  15.850 -0.2619  0.3637  0.0947
18634W        W19498   9.530  26.101  20.684  0.0526 -0.1424  0.4476
18635W        W19499   4.119  28.510  20.076  0.1799 -0.0647 -0.0879
18636W        W19500   3.018  25.137  12.051 -0.2264  0.0134 -0.2250
18637W        W19501  19.584  10.687  13.160  0.4534 -0.0023  0.1794
18638W        W19502  18.231  27.360   8.188  0.1214 -0.1773 -0.5126
18639W        W19503  24.176  16.874  12.069 -0.0401 -0.3674  0.0722
18640W        W19504  20.239  23.417  13.611  0.0227 -0.0988  0.1440
18641W        W19505  26.119  26.434  10.967 -0.1325  0.2333  0.0750
18642W        W19506  25.235  18.075  20.367  0.2557 -0.0301  0.0736
18643W        W19507  12.489   6.465  11.424 -0.0066  0.1209 -0.0825
18644W        W19508   6.379  15.046  29.003  0.0000  0.0774  0.0705
18645W        W19509  17.191  14.647   0.339 -0.1531  0.1770 -0.1452
18646W        W19510  29.006   4.353  18.996 -0.1499 -0.1203  0.1240
18647W        W19511  25.928  13.834  24.779 -0.1402  0.1105 -0.1571
18648W        W19512   0.785  25.322  13.269  0.1559 -0.0379 -0.2495
18649W        W19513  27.554  27.291  12.689 -0.3196  0.0619 -0.1193
18650W        W19514  18.032  16.892  16.354  0.2847 -0.1938 -0.0543
18651W        W19515  15.026  16.212  13.788  0.2572  0.1452 -0.2101
18652W        W19516  20.714   0.173  26.363 -0.2669 -0.0404 -0.0466
18653W        W19517  17.218   4.872   3.046  0.0620 -0.1516  0.1575
18654W        W19518  18.488   9.964   2.511  0.0724  0.1523 -0.0110
18655W        W19519   7.572  25.560  28.882  0.0560 -0.2044  0.0372
18656W        W19520   5.675   3.509   2.998  0.2037 -0.1809  0.2228
18657W        W19521  17.219  14.061   7.630 -0.3451 -0.1474 -0.6216
18658W        W19522  23.310  27.249   2.106 -0.0626 -0.0487  0.0638
18659W        W19523  21.138  18.652   5.119 -0.0303 -0.1442  0.3554
18660W        W19524  22.485  24.185  25.246 -0.4304 -0.0244 -0.0333
18661W        W19525   9.913  10.434  22.146 -0.1440  0.2809  0.1444
18662W        W19526  12.094  18.101  26.731 -0.4435 -0.0875  0.1491
18663W        W19527  18.499   1.841   5.583 -0.1241  0.0427  0.0843
18664W        W19528  23.513   1.192  20.284  0.1375  0.0760 -0.0661
18665W        W19529  23.787  20.528  13.718 -0.0321  0.0529 -0.1731
18666W        W19530   5.038  16.648   3.232  0.0038 -0.0953 -0.0903
18667W        W19531   8.890  27.687  19.019 -0.0313 -0.1605  0.0921
18668W        W19532   0.698  21.934  27.717 -0.1751  0.2848 -0.2864
18669W        W19533   2.154   5.816  11.403  0.1203 -0.1837 -0.0476
18670W        W19534   6.551  22.391  10.208 -0.1176 -0.1100  0.1829
18671W        W19535  24.052  24.416  25.670  0.0035 -0.2502  0.4924
18672W        W19536   8.227   4.466  21.653  0.2018 -0.2313 -0.0520
18673W        W19537  27.157  22.642  22.388 -0.1507  0.2536  0.0368
18674W        W19538  17.635  15.648   9.206  0.1007  0.0050  0.1069
18675W        W19539  22.631   8.587   6.970  0.1774  0.5279 -0.0701
18676W        W19540   9.980  17.104  14.972 -0.2923  0.0836  0.2147
18677W        W19541  15.129  18.264  24.834  0.0615  0.2773  0.0517
18678W        W19542  25.711   0.173  21.808 -0.3819  0.0451 -0.1360
18679W        W19543  15.544  11.649  24.989 -0.3241 -0.2885  0.1410
18680W        W19544  20.358  27.422  28.374  0.0656  0.1279 -0.1117
18681W        W19545  19.161  11.599   0.745 -0.0812  0.1048  0.2246
18682W        W19546  15.593  11.920   5.385 -0.3712  0.1652  0.1293
18683W        W19547  26.065   7.478   6.712 -0.3314 -0.0192 -0.4095
18684W        W19548  16.983   7.905   1.473  0.1715 -0.1104 -0.2919
18685W        W19549  15.311  10.286  26.796 -0.0053 -0.5028 -0.1487
18686W        W19550  23.407  22.621  27.355 -0.2169 -0.0263 -0.1689
18687W        W19551  18.200  19.206   2.278  0.1454  0.0548  0.1453
18688W        W19552  10.189  25.848   7.504 -0.2215 -0.0946 -0.4455
18689W        W19553  29.140  26.652   5.172  0.4571  0.0574  0.0511
18690W        W19554  21.613   2.823  26.939  0.1792 -0.0353  0.1723
18691W        W19555  16.580  15.992   4.460 -0.1781  0.1422 -0.3142
18692W        W19556  24.735  16.980  25.313 -0.0503 -0.1192  0.0617
18693W        W19557  10.974  23.972  23.358  0.0073  0.2958 -0.1528
18694W        W19558  11.146   1.079  22.796 -0.0393  0.0398 -0.1882
18695W        W19559  28.279  22.472   7.488 -0.0592 -0.2204 -0.0685
18696W        W19560  20.344  16.695   1.739  0.1151  0.3100  0.2132
18697W        W19561  21.037  26.077  14.728 -0.0339 -0.0034 -0.0518
18698W        W19562   9.240  23.619  22.070  0.2774  0.0228 -0.0501
18699W        W19563  16.588  10.369   4.577 -0.0155  0.2707 -0.0217
18700W        W19564  14.643   1.156   3.755 -0.1726  0.0093 -0.1397
18701W        W19565  20.430   7.187  27.592 -0.3003 -0.0737 -0.0593
18702W        W19566  17.984  25.790  10.458 -0.3362  0.2203 -0.3182
18703W        W19567  27.114  18.919  23.205 -0.0218  0.0886  0.0078
18704W        W19568   5.181  16.014   2.427 -0.2463 -0.3336  0.0795
18705W        W19569  20.320  22.448  24.638 -0.0007 -0.4891 -0.2203
18706W        W19570  26.786  21.151   1.794 -0.2392 -0.3486 -0.0036
18707W        W19571  12.416   5.861   2.975 -0.4616 -0.0683  0.1432
18708W        W19572  18.909  18.552  11.234 -0.2234  0.4157  0.1016
18709W        W19573  25.038  22.775   9.402  0.1398 -0.0574  0.2163
18710W        W19574  16.930  20.781  24.751 -0.0027 -0.3840 -0.0296
18711W        W19575   2.518  14.969   0.076  0.3464  0.1914  0.0333
18712W        W19576  12.166   6.166  26.997 -0.0309  0.4403  0.1150
18713W        W19577  19.183   2.745  26.124  0.2576 -0.0772 -0.2285
18714W        W19578   0.592  15.694  25.745  0.0101  0.0401 -0.0201
18715W        W19579  17.651  16.811  24.816  0.0497  0.2080  0.0033
18716W        W19580  19.212  20.091  17.835 -0.1869 -0.0258  0.0310
18717W        W19581  14.228   8.034  11.626 -0.1578  0.2295  0.3841
18718W        W19582   1.295  25.951   7.305  0.3793 -0.2504  0.4274
18719W        W19583   2.762  25.743  10.397  0.1603  0.2843  0.3787
18720W        W19584  19.700  27.837   1.880 -0.1729 -0.0780 -0.0757
18721W        W19585   7.224  28.773   4.988  0.2659 -0.1887 -0.0513
18722W        W19586  12.020   8.430  18.657  0.0144 -0.2428 -0.0231
18723W        W19587  19.747   8.425  10.791  0.2034 -0.0507 -0.1636
18724W        W19588  13.700  15.771   3.274 -0.2150 -0.2316 -0.2368
18725W        W19589   1.386  27.528   4.169 -0.2143  0.2870  0.0692
18726W        W19590   8.859  22.622  19.803  0.1588  0.1637  0.2411
18727W        W19591   7.056  23.837  27.227 -0.1691 -0.0318 -0.0142
18728W        W19592  16.250   3.763   3.101  0.0200 -0.0831 -0.2799
18729W        W19593  10.254   8.307  19.578 -0.1229  0.0951  0.3060
18730W        W19594  13.309  25.875   3.600 -0.2010 -0.1415  0.3162
18731W        W19595   0.805  18.821  11.234  0.2331  0.0052  0.1573
18732W        W19596  26.415   7.699  28.774 -0.3559 -0.3135 -0.1214
18733W        W19597  22.561  23.644  14.156 -0.5163  0.1557 -0.1263
18734W        W19598  21.952  25.859  22.902 -0.3487 -0.2059  0.1522
18735W        W19599  22.329  26.324  13.632 -0.1487  0.0006 -0.1626
18736W        W19600   9.758  23.494   1.733 -0.0201 -0.0790 -0.0575
18737W        W19601   6.143  27.072   3.540  0.0297 -0.3608  0.0866
18738W        W19602   4.842   1.170  19.976 -0.0836 -0.2248 -0.0315
18739W        W19603  11.624  11.316  12.597 -0.2359 -0.1461  0.0071
18740W        W19604  10.274  22.142   0.153 -0.0926  0.1203 -0.4366
18741W        W19605   7.949  22.215  20.378  0.0275  0.1046 -0.0623
18742W        W19606  19.460  16.333   7.802  0.0723 -0.2998  0.0412
18743W        W19607  26.155  16.170   0.619  0.1473  0.1119  0.0198
18744W        W19608  25.821  25.881   7.004 -0.2085 -0.0459 -0.2016
18745W        W19609  13.715  27.275  26.223  0.0118 -0.0085 -0.0505
18746W        W19610  28.368  15.166  12.052  0.1253 -0.1497  0.2382
18747W        W19611  13.230  27.478   2.507  0.0663 -0.2234  0.0373
18748W        W19612  27.712  26.705  25.964 -0.0572  0.2374 -0.1902
18749W        W19613  19.192  18.154   4.017  0.0130 -0.0634  0.0522
18750W        W19614  13.662  23.583  20.766  0.3081  0.1777 -0.1303
18751W        W19615  18.070  22.672   2.844  0.4233  0.0273 -0.3483
18752W        W19616   8.416  12.291  21.645 -0.1552 -0.1246  0.1125
18753W        W19617  27.314  25.190  23.678  0.0100 -0.0537 -0.0751
18754W        W19618  28.368  24.399   6.396  0.0427  0.1113  0.0080
18755W        W19619  22.747   3.666   2.077 -0.1041 -0.2161 -0.0424
18756W        W19620  17.868  17.395   1.654  0.2814  0.1812  0.0483
18757W        W19621  15.403  18.541   2.934  0.2857  0.1056 -0.1771
18758W        W19622   0.133  25.547   4.967  0.0438 -0.1425 -0.1456
18759W        W19623  21.505  20.449   3.171  0.1627  0.0082 -0.4722
18760W        W19624  16.024  20.629  21.060 -0.1540  0.2249  0.4517
18761W        W19625   8.960  28.728   2.420  0.0848  0.2111 -0.1407
18762W        W19626  25.459  23.820  28.903  0.0401 -0.0127 -0.1384
18763W        W19627   1.817  11.894  24.438 -0.2487  0.1226 -0.2642
18764W        W19628   1.873   8.747   2.299  0.0313 -0.1790 -0.2932
18765W        W19629  23.108  21.823  20.496 -0.1944 -0.0090 -0.0103
18766W        W19630  18.322  23.863   4.589 -0.0334  0.0302 -0.0401
18767W        W19631  26.525   3.224  28.970  0.1166 -0.1623 -0.0815
18768W        W19632  21.448   3.411  23.444 -0.2021 -0.1619  0.1288
18769W        W19633  16.000  17.797  26.688  0.1553 -0.3637  0.1960
18770W        W19634  11.884  18.678  15.766 -0.2314  0.0611  0.3715
18771W        W19635  28.225   5.092  25.146 -0.1301  0.1604 -0.0928
18772W        W19636   0.819  27.294  25.468  0.0297 -0.0733 -0.2239
18773W        W19637  11.864   0.187  18.474 -0.0576  0.0663 -0.1094
18774W        W19638   9.378   2.265   5.938 -0.1254 -0.0435 -0.0854
18775W        W19639  26.116  22.369   7.024 -0.0781 -0.0690  0.0400
18776W        W19640  26.285  22.908  24.868 -0.0852  0.1310  0.2030
18777W        W19641  14.457  21.094   1.299 -0.1495  0.0849 -0.0751
18778W        W19642  24.984  18.393   0.432 -0.0526 -0.1243 -0.2583
18779W        W19643  26.327  18.468  15.967  0.3150 -0.1880  0.0415
18780W        W19644   3.024  22.562  20.830 -0.2462 -0.1194 -0.1561
18781W        W19645   8.298  21.122  18.448 -0.0017 -0.0583  0.1437
18782W        W19646  22.947  16.584  20.670  0.2448 -0.1106  0.0188
18783W        W19647  13.092  18.698   5.188 -0.0661 -0.0626 -0.0487
18784W        W19648   8.969  15.107  28.917 -0.2516  0.2137  0.1892
18785W        W19649   7.842  19.974  25.677  0.0390  0.0439 -0.1661
18786W        W19650  16.360   0.995  24.010 -0.0674  0.0339 -0.2354
18787W        W19651   0.659   2.588   6.284 -0.0201 -0.0302 -0.0835
18788W        W19652  19.926   4.977   1.617 -0.1763 -0.2253  0.2720
18789W        W19653  16.230  16.768  29.084  0.0587  0.1898 -0.1939
18790W        W19654  17.591  28.332  19.031 -0.3168  0.1990 -0.0798
18791W        W19655  12.753   2.228  21.361 -0.3901  0.0603  0.1139
18792W        W19656  23.922  25.199  27.492  0.1179 -0.0228  0.0702
18793W        W19657  15.229  23.803  16.441  0.0691  0.1946 -0.1757
18794W        W19658  16.630  14.677  14.855  0.1533  0.2396  0.0442
18795W        W19659  26.566  16.130  26.816  0.0990 -0.0686 -0.0615
18796W        W19660   5.088  28.618   7.281 -0.0172 -0.2235  0.0633
18797W        W19661  14.919  24.475  19.854 -0.2587  0.0661  0.1479
18798W        W19662   9.807  16.401   8.207  0.0001  0.0259  0.0250
18799W        W19663   4.177  25.928  22.635 -0.3071  0.1210  0.1110
18800W        W19664  23.437  21.499   9.878 -0.1317 -0.1748  0.1646
18801W        W19665  12.383   2.794   0.631 -0.3341  0.1767 -0.2020
18802W        W19666  19.066   4.524  22.099  0.0909  0.4039 -0.4261
18803W        W19667  14.406  27.922  27.326  0.0685  0.0262 -0.3774
18804W        W19668  22.798  27.977   3.585 -0.1974 -0.0579  0.1050
18805W        W19669  21.012  10.541  26.575 -0.1355  0.0073  0.0307
18806W        W19670  11.638  11.361  15.891  0.2870 -0.1274  0.1102
18807W        W19671   1.939  15.968   4.028  0.0189  0.1039  0.1192
18808W        W19672   6.023   0.033   0.685 -0.0268 -0.1364  0.3298
18809W        W19673  20.949  15.601  15.010  0.2048  0.2154 -0.1044
18810W        W19674   8.705  18.225   0.086 -0.1317  0.0465  0.1734
18811W        W19675  16.219   5.923  16.273  0.3116  0.0264 -0.1845
18812W        W19676  13.670  10.898  23.089  0.0650 -0.4163  0.1376
18813W        W19677   1.461   9.707  13.136  0.0386  0.1544 -0.1313
18814W        W19678   2.050   5.387   6.778 -0.1876 -0.0017 -0.0498
18815W        W19679  18.465   2.693  19.366  0.2024  0.2426  0.0444
18816W        W19680  19.324   1.297  12.523  0.1224  0.1457  0.1768
18817W        W19681  10.591  16.070  28.144  0.2376 -0.2923 -0.0303
18818W        W19682  23.903  10.111   7.077 -0.2097 -0.2351  0.1453
18819W        W19683  12.468  18.066  25.842  0.1698  0.3519  0.0980
18820W        W19684  20.440  20.049   5.003  0.1516 -0.0574  0.1890
18821W        W19685  15.258  10.411  21.135 -0.0574  0.2251  0.1813
18822W        W19686  20.101   3.387   2.714  0.1176  0.1390 -0.2737
18823W        W19687  12.891  28.071  22.880  0.1659  0.2064 -0.0768
18824W        W19688  21.047  17.811  11.386 -0.1949  0.1113  0.1209
18825W        W19689  22.429   8.786  12.868  0.2791  0.1619 -0.0535
18826W        W19690   5.665  25.805  28.807  0.4080  0.1266  0.1458
18827W        W19691  26.956   3.351  22.608  0.0055 -0.1239  0.0473
18828W        W19692  18.270  21.375   3.941  0.3939 -0.2445 -0.0151
18829W        W19693   4.152  22.108  18.574 -0.1954  0.1019 -0.0007
18830W        W19694  25.840  16.653  10.072 -0.0992  0.2827  0.0372
18831W        W19695   0.028  23.690   0.940 -0.1177 -0.0381  0.0521
18832W        W19696  20.699  19.363  16.223  0.0474 -0.0816 -0.0863
18833W        W19697   6.811  21.106  25.278 -0.0602  0.0897 -0.0894
18834W        W19698  19.260  15.928  22.659  0.1217  0.4842  0.0900
18835W        W19699  15.557   9.198   7.057  0.1292 -0.2567 -0.2907
18836W        W19700  14.646  15.566   2.311 -0.0011  0.1636  0.1416
18837W        W19701   8.991  14.493   9.491  0.0400  0.1958 -0.0595
18838W        W19702  28.233  26.445   9.488  0.3225 -0.1830 -0.0160
18839W        W19703  12.900   1.524  12.167  0.0186 -0.1145 -0.0185
18840W        W19704   4.773  16.746  22.026 -0.1165 -0.2422 -0.0883
18841W        W19705   5.087   5.480   7.360 -0.0159  0.0218  0.0324
18842W        W19706   8.211  23.506   8.086 -0.1130  0.0894  0.4184
18843W        W19707   8.467  19.321  27.052 -0.0800 -0.2195  0.5138
18844W        W19708   5.418  24.585  17.491 -0.0318  0.0280 -0.2262
18845W        W19709  25.222  24.939  12.302  0.2374  0.1758  0.4787
18846W        W19710  26.740  22.111  26.073  0.0174 -0.0956 -0.1474
18847W        W19711  15.295  28.010  25.080 -0.1506  0.1150 -0.0506
18848W        W19712  27.953   7.187  23.846 -0.0963  0.2906  0.0385
18849W        W19713  12.622   7.074  27.839 -0.1075 -0.1966  0.0713
18850W        W19714   2.213  25.003  11.754 -0.0773 -0.1770  0.0962
18851W        W19715  15.121  26.637   2.453  0.0051 -0.1224 -0.0436
18852W        W19716  26.373  28.344  21.790  0.0480  0.2280 -0.1246
18853W        W19717  22.382   8.619   2.985  0.2816 -0.2630 -0.3530
18854W        W19718  22.888  21.865  21.644  0.3832  0.2201 -0.1549
18855W        W19719   8.168  16.715   6.943  0.1231 -0.1564 -0.1603
18856W        W19720   8.789   9.530  28.715  0.1312  0.1029  0.0364
18857W        W19721  21.463   5.976   9.365 -0.2583 -0.0273 -0.4327
18858W        W19722   8.942   0.285   6.526 -0.0326  0.2970 -0.3951
18859W        W19723  23.165  16.825  11.099  0.3321  0.1588 -0.1803
18860W        W19724   9.871  22.797  13.114  0.1171 -0.0660 -0.0775
18861W        W19725  13.638  10.069  20.236  0.2187 -0.1643  0.1787
18862W        W19726  23.905  26.546   4.327  0.0005  0.1069  0.2663
18863W        W19727  24.319   0.763  24.293  0.3108  0.2127 -0.1251
18864W        W19728   7.367   1.715  28.877  0.0506 -0.0733 -0.2436
18865W        W19729  18.228   0.233  13.710 -0.0214  0.2945 -0.5441
18866W        W19730  13.535  10.811   3.407  0.0471  0.2055  0.0566
18867W        W19731   7.999  16.695  24.375 -0.1925  0.4016  0.2829
18868W        W19732  14.271  20.371  24.842  0.1167 -0.2435 -0.1612
18869W        W19733  19.922  23.084  25.775  0.0011 -0.1688  0.2398
18870W        W19734  14.184  20.188  22.391  0.1571 -0.2082  0.1005
18871W        W19735  28.957   7.469   1.648 -0.2677  0.0875  0.0165
18872W        W19736   3.722  25.736  21.475 -0.3883 -0.2346  0.2149
18873W        W19737   9.419  12.026  26.956  0.0710  0.1320  0.1484
18874W        W19738   3.715   9.047   4.676 -0.0798 -0.2921 -0.1280
18875W        W19739  17.765  10.099   9.678  0.1836  0.3529  0.2768
18876W        W19740  11.197  19.364  23.817  0.1450 -0.1742  0.0470
18877W        W19741   5.981  28.695   7.524  0.2383  0.0457 -0.2146
18878W        W19742  14.546   1.936  24.023 -0.1305  0.2325  0.1444
18879W        W19743  22.579  10.088  24.259  0.1057 -0.0483 -0.1278
18880W        W19744   2.728   4.765  14.324 -0.1678 -0.0499  0.0263
18881W        W19745   1.733  21.594  25.637  0.2422 -0.2058 -0.2358
18882W        W19746  24.173  25.036  29.097  0.1782  0.1384  0.0813
18883W        W19747   3.729  11.809  13.193 -0.0808  0.2299  0.1139
18884W        W19748  17.284  12.952  19.289  0.2520 -0.1686  0.2529
18885W        W19749  18.128   1.059  22.989  0.1825  0.0257 -0.1298
18886W        W19750  16.190  21.357   1.186 -0.0436  0.0994  0.0686
18887W        W19751  23.333  21.836  24.273  0.2084  0.4296 -0.3671
18888W        W19752  14.097  27.639   2.001 -0.1846 -0.0189  0.0534
18889W        W19753  29.042  23.694  13.585 -0.2714  0.1475  0.0000
18890W        W19754  24.370   6.630   6.477 -0.0681 -0.0432 -0.3057
18891W        W19755  21.799  18.886  21.691 -0.0556  0.0525  0.0367
18892W        W19756   4.538  19.545  25.967 -0.0172  0.3890  0.0559
18893W        W19757  17.830  16.005  19.082 -0.0460 -0.4242  0.1008
18894W        W19758   1.650   5.793  28.527  0.0422 -0.0304 -0.0398
18895W        W19759  14.975  17.724   5.345 -0.3065  0.1924  0.0490
18896W        W19760  22.891  28.349  27.021  0.2072  0.2041  0.0301
18897W        W19761  17.073   4.840   2.266  0.0752  0.1915  0.0415
18898W        W19762   7.376  20.588   0.542  0.0392  0.0356  0.0119
18899W        W19763  27.824   2.118   4.726 -0.2701  0.1210  0.2258
18900W        W19764   1.211   5.360   7.583 -0.1695  0.4311 -0.0652
18901W        W19765  13.776  17.197   2.238  0.0672  0.1318 -0.0471
18902W        W19766   9.455   2.584   5.432 -0.1950 -0.0222  0.0579
18903W        W19767   9.888  21.006  19.375  0.0091 -0.0110  0.1604
18904W        W19768  12.635  23.256  10.281 -0.0918  0.1501 -0.2628
18905W        W19769   9.093   0.576   5.430 -0.0012 -0.0545  0.0285
18906W        W19770   3.771  17.420   0.882 -0.0903 -0.2841  0.1972
18907W        W19771  12.584  18.847   1.793 -0.0333 -0.3429 -0.1519
18908W        W19772   9.452  16.628   7.373  0.1824 -0.0640  0.1043
18909W        W19773  18.387  22.887   5.327 -0.3279  0.2752  0.0312
18910W        W19774   4.432  22.915   5.980 -0.1196  0.0496 -0.0688
18911W        W19775  20.662   3.200  23.929  0.0044 -0.0245  0.2487
18912W        W19776  27.395  14.306   9.974 -0.1131 -0.0998  0.2111
18913W        W19777  10.827  16.771  10.529 -0.0765  0.3305  0.0410
18914W        W19778   9.387  18.602   3.565 -0.0800 -0.0110  0.1660
18915W        W19779  24.559   6.844  14.966  0.1023 -0.1044  0.3490
18916W        W19780  28.041  20.169   2.631 -0.0808 -0.1473  0.4455
18917W        W19781   1.193  17.990   5.643  0.1549  0.1092  0.0443
18918W        W19782  23.576  24.195   0.922 -0.1127  0.2304 -0.0149
18919W        W19783  13.279   9.647   9.190 -0.0811  0.0225  0.0189
18920W        W19784  10.895  14.007   3.597 -0.3534 -0.0454  0.2616
18921W        W19785  21.663  25.401   9.767 -0.1144 -0.0886  0.1494
18922W        W19786  28.679  24.021   3.709  0.0541  0.1728 -0.1042
18923W        W19787  17.663  16.635  22.720 -0.1641  0.0386  0.4563
18924W        W19788   5.912   8.531   0.500 -0.1941 -0.2090  0.1469
18925W        W19789  12.962  18.854   7.583 -0.0963 -0.1378  0.1541
18926W        W19790  16.951  19.348  10.854 -0.0949  0.1869 -0.3842
18927W        W19791  17.761   2.284   2.716 -0.3347  0.2035  0.1325
18928W        W19792  20.203  12.396  12.687 -0.2513  0.0408  0.2426
18929W        W19793   9.085  12.143  22.938 -0.0925 -0.1453 -0.1367
18930W        W19794  21.485  10.476   6.500 -0.1515 -0.1587 -0.1042
18931W        W19795  13.503  20.501   5.639 -0.0550  0.0587 -0.3579
18932W        W19796   8.887   7.976   7.516 -0.2363  0.0351 -0.1659
18933W        W19797  14.400   6.554   5.168 -0.2639 -0.1892 -0.0665
18934W        W19798   3.507  15.543  28.146 -0.1152  0.1578  0.2510
18935W        W19799  28.063  21.264  13.502  0.3893  0.1725 -0.1037
18936W        W19800   9.476   4.779   9.881  0.0701 -0.1554  0.3600
18937W        W19801  16.104  26.986  10.992  0.2830 -0.4161 -0.1491
18938W        W19802  28.986  18.878  12.461  0.3290  0.1547 -0.1842
18939W        W19803  16.093   5.029   3.288 -0.2049 -0.2191  0.2837
18940W        W19804   6.804  22.742  11.123 -0.1184  0.1428  0.3672
18941W        W19805  28.125  26.548  21.975 -0.1572  0.0050 -0.0072
18942W        W19806   1.858  24.068  28.010 -0.5114  0.1963  0.1289
18943W        W19807  21.521  25.270   4.633  0.1135 -0.0804 -0.3042
18944W        W19808  14.581  20.776  13.402  0.1154  0.0453  0.2542
18945W        W19809   3.474  11.230   4.702 -0.4979 -0.3000 -0.1948
18946W        W19810   4.227   5.875  11.222 -0.0376  0.1415 -0.0021
18947W        W19811  21.486  22.745   9.160 -0.2092 -0.0312  0.1625
18948W        W19812   7.677  24.748  21.748 -0.0929 -0.1529  0.0670
18949W        W19813   6.133  27.005  26.913 -0.0578 -0.2939 -0.0446
18950W        W19814  14.152   6.745   2.976  0.0051  0.0366  0.2228
18951W        W19815   0.620  17.119   9.696 -0.1166  0.3848 -0.1801
18952W        W19816  12.182  24.110   5.786  0.1045  0.1719 -0.0552
18953W        W19817   0.634  16.107  23.205 -0.1582  0.0314 -0.0032
18954W        W19818   2.100  20.894  15.118 -0.2306 -0.1066 -0.1201
18955W        W19819  24.573  25.617  19.230  0.0123  0.1396 -0.3274
18956W        W19820   5.417  22.728  21.422  0.1424  0.3296 -0.1054
18957W        W19821  26.440  26.654  17.140 -0.1464  0.2010  0.0038
18958W        W19822   5.884   9.254   1.085  0.0945  0.1941 -0.0467
18959W        W19823  20.126  20.090   3.480 -0.0841  0.0041 -0.2607
18960W        W19824  11.562   5.941  12.935 -0.1441  0.0155  0.3908
18961W        W19825  27.683  22.645  26.919 -0.1739 -0.1746 -0.2045
18962W        W19826  20.446   7.779   7.711 -0.0868  0.0744  0.0418
18963W        W19827  20.907  19.199   5.175  0.0558 -0.3025 -0.0590
18964W        W19828  21.359  18.361  12.088  0.1085 -0.2289  0.2618
18965W        W19829  17.591  24.408   3.159  0.4010  0.0618 -0.2909
18966W        W19830  25.717  29.021   8.282  0.0838 -0.4348 -0.0750
18967W        W19831  16.595  27.369  12.979 -0.3898  0.0479 -0.0997
18968W        W19832  14.207  18.292  21.235  0.1176  0.0579 -0.0618
18969W        W19833  12.620   6.785  26.031 -0.1354  0.2756  0.2416
18970W        W19834  17.012  16.992  17.048  0.3169 -0.0847 -0.0577
18971W        W19835  22.040   7.645  28.890 -0.1525 -0.0546  0.1148
18972W        W19836  19.736  19.970  17.794 -0.0473 -0.2109 -0.0961
18973W        W19837   8.605  23.098   3.553 -0.3094  0.1605  0.0405
18974W        W19838  11.085   7.534  22.917 -0.2149  0.2546 -0.0276
18975W        W19839  14.052   0.613   7.012  0.1755 -0.2212  0.4110
18976W        W19840   7.113   4.871   9.988  0.2139 -0.1704  0.0730
18977W        W19841   6.337   5.107   4.129 -0.2258 -0.3656  0.3364
18978W        W19842   1.954   4.535   6.320  0.2655  0.0316 -0.3114
18979W        W19843  27.754  22.238   8.529 -0.1581 -0.0680 -0.3418
18980W        W19844   9.052   2.501   5.117 -0.0865 -0.0631  0.0021
18981W        W19845  11.631  25.306  11.278  0.3110  0.0176  0.1921
18982W        W19846  12.438  25.838   2.150  0.1454 -0.1118 -0.0915
18983W        W19847  12.620  10.509  22.174  0.3351  0.2410  0.3273
18984W        W19848  15.342  15.602  28.441 -0.0538  0.1871 -0.2070
18985W        W19849  11.502  26.970   1.283 -0.2990  0.0385 -0.1154
18986W        W19850  10.277  29.043  12.723 -0.2920 -0.4362  0.1623
18987W        W19851   6.659   9.214   7.160  0.2380  0.0763  0.1122
18988W        W19852   4.420  16.472  19.170 -0.2141  0.0368  0.0476
18989W        W19853  24.928  15.362  10.087  0.1135  0.0412  0.1036
18990W        W19854  18.503   0.399  26.067  0.0453  0.1057 -0.1465
18991W        W19855  23.379  13.557  23.500  0.1280 -0.0167  0.1506
18992W        W19856  10.789  25.716   5.272 -0.0556  0.2440 -0.1696
18993W        W19857  22.094  26.502   3.177 -0.2624 -0.2639 -0.2148
18994W        W19858  17.632   8.614   4.150 -0.0685  0.0104 -0.0795
18995W        W19859  13.585  16.730   8.457  0.3840  0.1611 -0.0051
18996W        W19860  14.722  20.370   6.849  0.1676  0.2688  0.2937
18997W        W19861   0.997  25.724   2.371  0.0172 -0.0846 -0.3993
18998W        W19862   3.624  19.899  26.830 -0.0368  0.2366 -0.0140
18999W        W19863  23.247  23.265   7.639 -0.3522  0.0088 -0.0970
19000W        W19864   3.206  19.646  13.733  0.3694  0.1272  0.0374
19001W        W19865  14.573   1.871  26.965  0.0531  0.0050 -0.2590
19002W        W19866  26.154  18.824   3.061 -0.0094 -0.4921  0.1559
19003W        W19867  28.316  20.760  14.220 -0.3337 -0.0498 -0.1342
19004W        W19868  13.896  13.332  14.139 -0.5620  0.0452 -0.0164
19005W        W19869  17.855  25.753  14.093  0.1639  0.0635  0.0985
19006W        W19870  15.120  21.826  23.736 -0.1299  0.0790 -0.1370
19007W        W19871  13.204   8.617  22.680 -0.0348 -0.0534  0.1097
19008W        W19872  25.218  23.082  20.354 -0.1396 -0.0826 -0.0461
19009W        W19873   5.015   8.127   9.705  0.1350  0.2241  0.1421
19010W        W19874   0.394  29.137  14.537  0.0895  0.2029 -0.2116
19011W        W19875  16.081   3.478  21.875 -0.2907 -0.1921 -0.0209
19012W        W19876   6.800  28.482  12.189 -0.0298 -0.2791  0.0549
19013W        W19877  16.167   3.567  17.265 -0.1035 -0.4486 -0.0065
19014W        W19878  12.817  15.119  25.096  0.2055 -0.0327 -0.1235
19015W        W19879  13.319   5.327   4.480 -0.2568 -0.1279  0.1682
19016W        W19880  11.679  17.805  23.100 -0.1365 -0.0069  0.0189
19017W        W19881  18.403   5.001  25.894 -0.0422  0.0925 -0.3330
19018W        W19882  19.616  18.063  27.543 -0.0254 -0.1487 -0.2402
19019W        W19883  18.538  28.663  18.526  0.1894 -0.0686  0.1689
19020W        W19884   6.818  22.579   7.664 -0.1379  0.0872 -0.2166
19021W        W19885  19.325  19.166  26.257 -0.3302 -0.0896 -0.4708
19022W        W19886   3.408   2.726  18.368 -0.1674  0.0165 -0.2243
19023W        W19887  12.906  20.632  26.225 -0.0849 -0.0001  0.0314
19024W        W19888  15.208   5.837  14.595  0.0630 -0.0857  0.1802
19025W        W19889   6.709  24.450  12.685  0.1612 -0.0644 -0.0525
19026W        W19890  19.123  22.590   9.008 -0.1904  0.0904 -0.1270
19027W        W19891  16.916   4.897   7.724  0.2091 -0.1788  0.1201
19028W        W19892  26.270  26.128  23.881  0.2468 -0.4124 -0.3182
19029W        W19893  25.350  19.342   2.988  0.1837  0.1012 -0.2309
19030W        W19894  27.932  24.883   0.719  0.1406 -0.0215  0.0327
19031W        W19895   1.302  28.639  19.769 -0.1750 -0.3804 -0.1719
19032W        W19896   5.531  16.510   0.614  0.1279  0.1593 -0.3738
19033W        W19897  15.219  28.432  15.709 -0.1002 -0.1744  0.1365
19034W        W19898   8.828  28.337  13.352 -0.0029  0.1116 -0.1389
19035W        W19899   8.210  23.668   9.659  0.1084 -0.3407 -0.2733
19036W        W19900  12.053   1.962   3.124 -0.1012  0.2646  0.0290
19037W        W19901  23.310   6.326   1.895 -0.0558  0.3865 -0.3155
19038W        W19902   9.138  21.563   1.455 -0.0854  0.0900 -0.3241
19039W        W19903  24.577  18.172  18.375  0.0394  0.3522 -0.1801
19040W        W19904  27.892   0.648   4.998  0.0507 -0.2019 -0.2904
19041W        W19905   0.168   8.106   9.287 -0.1615 -0.0672  0.2002
19042W        W19906  20.963  22.026  11.552  0.2166 -0.1993  0.1300
19043W        W19907  11.423  11.786  14.510 -0.1276  0.3132 -0.0063
19044W        W19908  18.189  12.718   0.608 -0.0784  0.0560 -0.2056
19045W        W19909   3.221  18.533   8.720  0.0307  0.1362  0.0611
19046W        W19910   8.035  22.795  20.131 -0.2295 -0.0287  0.0109
19047W        W19911  10.411   0.019  14.970  0.1553 -0.1716 -0.1333
19048W        W19912  12.979  21.623   7.015 -0.0941  0.2245  0.0308
19049W        W19913   1.382  24.951  25.871 -0.1104 -0.0416 -0.0947
19050W        W19914  13.322  25.264  16.996  0.1360 -0.0139  0.3535
19051W        W19915   0.704  17.881   5.956  0.1185 -0.0970 -0.0407
19052W        W19916  19.721  22.628   9.940 -0.1084  0.2468  0.1647
19053W        W19917  19.181  18.785  24.439  0.2814  0.1082 -0.0730
19054W        W19918   5.378  10.544   5.309 -0.0120  0.0676 -0.2476
19055W        W19919  16.136   9.309  18.435 -0.0316 -0.0905  0.2009
19056W        W19920  20.888   4.048  19.294 -0.1946  0.1527 -0.0435
19057W        W19921  20.657  13.131  17.690  0.1005  0.0856  0.0129
19058W        W19922  10.066   5.130  16.198 -0.0810  0.1280  0.0499
19059W        W19923  17.553  16.640  16.494  0.0167  0.2849  0.3323
19060W        W19924  10.274  12.764  12.704  0.1276  0.3207 -0.2415
19061W        W19925   7.490  12.290   8.159  0.1023 -0.0525  0.3586
19062W        W19926   7.488  23.421  23.575  0.0004  0.0021  0.1544
19063W        W19927  20.083  28.915   7.197  0.0613  0.1027 -0.1222
19064W        W19928  28.402  14.269   5.637  0.2222 -0.2741  0.0660
19065W        W19929  20.073  17.202  17.736  0.0030  0.0010  0.4037
19066W        W19930  20.363   2.645   8.868 -0.0460  0.2612 -0.0191
19067W        W19931  13.950  26.851  25.190  0.1745  0.3209 -0.0776
19068W        W19932  20.936   1.495   5.471 -0.0727 -0.3107 -0.1238
19069W        W19933   7.287  21.846   2.043 -0.2769 -0.0397 -0.4199
19070W        W19934   6.786  12.949  27.967 -0.0552  0.0101  0.1802
19071W        W19935  15.631   4.775   6.474 -0.0251 -0.0108  0.0842
19072W        W19936  15.140   2.698   4.164  0.0627  0.0165 -0.0513
19073W        W19937   0.995  10.935   4.903  0.1093 -0.0821  0.0678
19074W        W19938  26.907  18.231  10.159 -0.1275 -0.0672 -0.3535
19075W        W19939  24.092   0.976   6.825  0.0985 -0.2149  0.0404
19076W        W19940  10.784  10.175  16.723  0.3762 -0.0920  0.2522
19077W        W19941  12.720  13.626   5.866  0.1571  0.0437  0.0265
19078W        W19942  21.626   3.282  12.385  0.0848  0.0387  0.0544
19079W        W19943  11.880  24.264   3.316  0.0931  0.0299 -0.1329
19080W        W19944  13.223   2.616  12.118 -0.1586  0.0958  0.1657
19081W        W19945  17.435   8.000  21.560  0.0105  0.1123  0.0564
19082W        W19946   4.418  21.708   9.619  0.0197  0.1996  0.0788
19083W        W19947  27.303  20.139   0.135  0.0070  0.0565 -0.2325
19084W        W19948  24.178   8.307  14.148 -0.2406 -0.1504 -0.1801
19085W        W19949  28.663  16.217  28.800 -0.0354  0.2701 -0.0265
19086W        W19950   1.392  27.263  11.893  0.0263  0.0751  0.0323
19087W        W19951   9.321  27.484  24.053  0.2569 -0.1686 -0.0057
19088W        W19952   2.900   9.875   4.703 -0.1644  0.1648 -0.1765
19089W        W19953  23.509   1.515  25.473 -0.3065  0.1462  0.0046
19090W        W19954  16.431  19.874  18.706 -0.1059  0.0484 -0.0252
19091W        W19955  25.292   1.278   9.958  0.2481  0.1238 -0.0537
19092W        W19956   7.916   9.868  16.958 -0.1959  0.0534  0.2027
19093W        W19957  23.233  11.275   2.398  0.0730 -0.3323  0.0480
19094W        W19958  19.178   2.504   9.869 -0.2387 -0.0905 -0.2213
19095W        W19959   0.708  12.333  24.216 -0.2251  0.2448 -0.1645
19096W        W19960  11.464   3.803  15.740 -0.3068  0.1759 -0.2422
19097W        W19961  24.164   5.268   3.790  0.1336 -0.0467 -0.1491
19098W        W19962  20.956   1.967  26.056  0.0128 -0.0136  0.0950
19099W        W19963  21.980   7.107  13.864  0.3992  0.4600 -0.0293
19100W        W19964  13.839  16.029  11.386  0.0395 -0.1010 -0.0971
19101W        W19965  20.556  16.853  27.547  0.1026  0.1209  0.1166
19102W        W19966   2.207  17.907   8.313 -0.0851  0.0209  0.1757
19103W        W19967  28.462  11.047  14.392  0.0574  0.2458 -0.0874
19104W        W19968  26.842   8.274   7.321 -0.0009  0.1237  0.3789
19105W        W19969  17.432  19.903  26.849 -0.1554 -0.3228 -0.2393
19106W        W19970  16.104  26.099  23.185 -0.2080 -0.4493  0.0846
19107W        W19971  18.207  25.412   5.505 -0.0653 -0.1017  0.2334
19108W        W19972  22.751  23.341  21.506  0.2228 -0.0471  0.0870
19109W        W19973   2.093  15.294  13.516 -0.3676  0.0302  0.0980
19110W        W19974  13.972  17.410   7.329  0.4769  0.3452 -0.0048
19111W        W19975  14.347  21.310  21.874  0.1901 -0.1539  0.2205
19112W        W19976  16.506   8.384   6.242  0.1137 -0.1908 -0.1643
19113W        W19977   8.068   7.284   4.398  0.0940 -0.0761 -0.3442
19114W        W19978  27.626  11.615   4.457 -0.1089  0.0168  0.0847
19115W        W19979   8.015  10.582  19.658  0.2051  0.1851 -0.2752
19116W        W19980   0.663  26.026   2.675  0.0711 -0.1147 -0.2014
19117W        W19981  26.046  23.902  20.939 -0.0177 -0.4161  0.3215
19118W        W19982   9.702   8.793   2.724  0.1372 -0.1778  0.0248
19119W        W19983  22.578  16.260  22.185  0.1847 -0.0694 -0.1215
19120W        W19984  25.704   2.136   9.924 -0.2011  0.1222  0.0170
19121W        W19985  11.650  16.021  20.841  0.2980  0.1231  0.0872
19122W        W19986  15.881  25.856  24.404  0.0680  0.0862  0.4121
19123W        W19987   4.227  27.078  27.794  0.0131  0.0981 -0.0370
19124W        W19988  28.451   2.322   8.114 -0.1403  0.3676 -0.0405
19125W        W19989  14.019   8.094  21.306  0.0394 -0.3108 -0.1076
19126W        W19990   6.785  21.463  12.689 -0.1364  0.0164  0.5311
19127W        W19991  23.669  20.666  28.104 -0.0510 -0.1032 -0.3694
19128W        W19992  10.486   7.348   1.854  0.0304 -0.1349  0.1247
19129W        W19993  22.274  28.549  24.043  0.1420  0.0619  0.0718
19130W        W19994  13.360  22.354  11.901  0.0377  0.0790  0.3236
19131W        W19995  17.815  21.001  22.891 -0.1668 -0.0992  0.1575
19132W        W19996  23.393  25.307   4.338 -0.0798  0.5143 -0.0326
19133W        W19997   3.757  26.042  10.904 -0.3554 -0.3066  0.2635
19134W        W19998   1.213  25.774   4.126 -0.2558 -0.0680  0.0524
19135W        W19999  20.435  21.738  21.319  0.1172 -0.1193 -0.0125
19136W        W20000  28.254  11.772  15.882 -0.0700 -0.0322 -0.0536
19137W        W20001   1.372   8.281  14.735 -0.4394 -0.0433  0.1525
19138W        W20002  13.168   6.365  17.727 -0.2008 -0.0680  0.0330
19139W        W20003   4.246  22.692  22.070  0.1861 -0.2876  0.1310
19140W        W20004  14.561  25.827  24.333 -0.0005 -0.2347 -0.1326
19141W        W20005  19.327   0.714   4.204 -0.1181 -0.0332  0.0644
19142W        W20006  22.092  22.432  19.441 -0.0983  0.0006  0.0839
19143W        W20007   8.685   6.431  17.518 -0.1616 -0.3015  0.1033
19144W        W20008   5.047  22.950  11.382 -0.0406  0.0049  0.1149
19145W        W20009  26.699  15.666   9.663 -0.0516 -0.0341 -0.1133
19146W        W20010  10.783   7.416  10.970 -0.4885 -0.1311 -0.0704
19147W        W20011  15.362   0.425  28.226 -0.1026  0.3706 -0.3286
19148W        W20012  14.617   3.356  12.809  0.1766  0.1729  0.1510
19149W        W20013  14.816  17.795  25.702 -0.0022  0.0298 -0.3682
19150W        W20014   7.724  15.412  17.004  0.1058 -0.2465  0.3733
19151W        W20015   3.380   2.730   5.723  0.0878 -0.3852 -0.0948
19152W        W20016  21.296  22.994   6.942 -0.0497  0.0803  0.0333
19153W        W20017   4.591  18.729  23.719  0.0818 -0.0270 -0.0500
19154W        W20018  25.181   3.545   2.731  0.2303 -0.1813  0.0136
19155W        W20019  14.358   4.389  20.395 -0.1181 -0.1059 -0.1249
19156W        W20020  15.107  16.045   0.876  0.0752 -0.0720 -0.0155
19157W        W20021   8.640  25.544  27.279 -0.4378 -0.3251 -0.2758
19158W        W20022  19.207  14.964   6.022  0.5856  0.3111  0.1469
19159W        W20023  10.752  10.978   3.043  0.2858  0.1219 -0.1790
19160W        W20024  28.756  14.760  26.868  0.0296  0.0914  0.0429
19161W        W20025   5.279  12.411  23.817  0.2267 -0.4716 -0.0483
19162W        W20026  20.757  16.692   9.814 -0.1886 -0.3561 -0.1527
19163W        W20027   1.513   6.216  21.896 -0.2990  0.1380 -0.1190
19164W        W20028  17.903   1.988   4.043  0.0113  0.1717  0.1597
19165W        W20029   8.151  16.931  14.481  0.0699  0.2123 -0.1064
19166W        W20030  13.975  14.508  13.566 -0.0631 -0.0334 -0.3150
19167W        W20031   5.010   4.383  27.034 -0.0328  0.2782 -0.0861
19168W        W20032   7.039  10.336   3.355 -0.4543  0.3643  0.3027
19169W        W20033   7.965   1.570  14.308 -0.1847 -0.0693 -0.0953
19170W        W20034   0.947  14.694   4.266 -0.0467 -0.0080 -0.0829
19171W        W20035  17.532  12.154  13.982  0.2382 -0.2820  0.2116
19172W        W20036  27.525  24.770  10.945  0.1975 -0.1002  0.1410
19173W        W20037   0.151  10.346   3.586  0.1829  0.2277 -0.1115
19174W        W20038  16.834  14.929  28.683  0.4613 -0.0328  0.1821
19175W        W20039  28.921  22.000  20.330  0.4164 -0.2714  0.0795
19176W        W20040  18.066   1.152   9.781  0.0377 -0.2038 -0.1746
19177W        W20041  18.846  14.753  15.579 -0.0507 -0.0966  0.3493
19178W        W20042  17.685   9.004   3.350 -0.0189 -0.0746 -0.0957
19179W        W20043  19.858  23.124   8.121  0.1668  0.2802  0.1837
19180W        W20044  15.923  10.656  24.509 -0.0209  0.0488  0.3529
19181W        W20045   3.585  16.046  10.496  0.0927  0.0910  0.0323
19182W        W20046  13.259  28.966  21.069 -0.3189 -0.0507  0.1669
19183W        W20047  10.771   5.079  11.215  0.2585  0.0969 -0.1305
19184W        W20048  23.337  13.119  18.015  0.2644 -0.2189 -0.0962
19185W        W20049  12.084  18.291  10.997 -0.0042  0.0545 -0.1668
19186W        W20050   2.467   7.431  11.133 -0.0402 -0.0621 -0.2549
19187W        W20051  23.076  12.710  11.706  0.1362 -0.4272  0.0007
19188W        W20052   9.290   8.845  25.931  0.2101  0.0399  0.0961
19189W        W20053  15.252   1.896   0.578 -0.1360 -0.0691  0.0247
19190W        W20054  16.044  15.855   5.595  0.1122  0.2123 -0.0667
19191W        W20055   0.258  16.639   2.888 -0.1878 -0.1056  0.0649
19192W        W20056  22.682   8.987  19.658  0.3109 -0.0314 -0.2562
19193W        W20057  24.327  18.863  15.728  0.2737  0.0451  0.4494
19194W        W20058   2.242  22.149   5.479 -0.0123  0.2465  0.3706
19195W        W20059  14.406  24.878   6.726 -0.0905 -0.0802 -0.1590
19196W        W20060  24.671  24.092  13.409  0.1264  0.0057  0.1163
19197W        W20061  14.452   1.120   7.066 -0.0943 -0.0629 -0.2472
19198W        W20062  16.203  10.515   4.197  0.1582  0.0280  0.1593
19199W        W20063   6.791   1.632  11.633 -0.0808  0.0980 -0.4347
19200W        W20064  11.572  21.278  13.105  0.0730  0.1179 -0.1309
19201W        W20065  14.805  23.091   9.554  0.1342 -0.3841  0.1365
19202W        W20066  25.387  21.217   7.333 -0.3034 -0.3446 -0.0542
19203W        W20067   7.238  14.184  27.062 -0.1572  0.4242 -0.2932
19204W        W20068   9.504  14.050   8.442 -0.1864  0.0274 -0.1021
19205W        W20069  28.414   7.284  11.927 -0.3331 -0.1344  0.1684
19206W        W20070  10.497  15.481   7.607  0.2568  0.3707  0.2853
19207W        W20071   0.601   0.405   6.572 -0.1515  0.1863 -0.2376
19208W        W20072  13.687  26.832   7.182 -0.0677 -0.1933  0.1735
19209W        W20073  23.798  21.815  29.122 -0.4372 -0.1737  0.4293
19210W        W20074  13.670  28.845  10.964 -0.0073 -0.1431 -0.1474
19211W        W20075  12.077  23.585   1.698 -0.0069 -0.3535 -0.1120
19212W        W20076   9.889  13.666  26.777  0.0152 -0.0569 -0.3797
19213W        W20077   9.535  15.340   3.345 -0.0383  0.1250  0.1436
19214W        W20078   4.826  25.947  13.933 -0.2108  0.0098  0.1844
19215W        W20079  13.792  28.363   7.203  0.3035 -0.1682  0.2272
19216W        W20080  13.622  18.220  22.446  0.0160 -0.2416 -0.4064
19217W        W20081  26.901   0.819  14.645 -0.0282  0.1427 -0.4584
19218W        W20082  22.979   9.085  21.086 -0.0355 -0.0511  0.0324
19219W        W20083  12.507  21.529   8.443  0.0871 -0.0288 -0.3953
19220W        W20084  17.451   4.741   5.685 -0.1231  0.0884  0.2766
19221W        W20085  17.965  26.462  28.681  0.0608  0.1638  0.1087
19222W        W20086  11.088   3.381   0.464  0.0287  0.0874 -0.0018
19223W        W20087   1.206  11.442   7.668 -0.0862  0.1474 -0.1068
19224W        W20088  24.745   3.861  25.399 -0.0214  0.0991 -0.1813
19225W        W20089  23.514   7.276  27.848 -0.1209  0.3009  0.1041
19226W        W20090   1.157   3.168  13.116 -0.1688 -0.1618  0.2808
19227W        W20091  15.284   1.136   2.999 -0.2455 -0.2731 -0.0184
19228W        W20092  19.320  22.557   0.781 -0.1312 -0.0520  0.0813
19229W        W20093  20.343  15.111  25.909  0.1210  0.1692  0.0758
19230W        W20094  12.358  14.413  25.698 -0.3198 -0.2476  0.2407
19231W        W20095  23.211  17.732   2.415 -0.2191  0.0013 -0.0286
19232W        W20096  13.410  28.703  23.229  0.3400  0.5481  0.1435
19233W        W20097  18.979  20.470  20.591  0.0401  0.0953 -0.0504
19234W        W20098  11.683  26.714  21.954 -0.0111 -0.3575 -0.1776
19235W        W20099   7.410  18.813   8.105 -0.0839  0.1740 -0.1184
19236W        W20100  16.512  10.194  12.010  0.0562  0.1985  0.1885
19237W        W20101  26.829  13.323   2.934  0.0544 -0.0253 -0.2476
19238W        W20102  14.749  15.461  28.271 -0.0873 -0.3446 -0.1799
19239W        W20103  20.676   9.277  17.716  0.0115  0.0849 -0.2708
19240W        W20104  13.172  25.689  19.284  0.0035  0.1230 -0.0007
19241W        W20105  11.457   2.260   0.635 -0.3031  0.2047 -0.0596
19242W        W20106  21.093   9.714  28.011 -0.1569 -0.1932 -0.3067
19243W        W20107  22.387  11.434   6.435  0.2195 -0.0961 -0.1528
19244W        W20108   1.584   2.624  24.889  0.0852  0.0642 -0.0817
19245W        W20109  18.423   7.124   1.700 -0.0274  0.1171 -0.2008
19246W        W20110  24.333  28.060   1.848 -0.0100 -0.1188  0.0936
19247W        W20111  27.642  21.654   6.031 -0.0781  0.0976 -0.2163
19248W        W20112   9.803  17.843  24.231 -0.0691 -0.1640  0.1792
19249W        W20113  21.456  18.694  28.843  0.0094  0.2773  0.1037
19250W        W20114   7.149  27.008   3.339 -0.0912  0.3326  0.1154
19251W        W20115  28.166  27.449   5.843 -0.2938 -0.0680  0.0043
19252W        W20116  18.054   1.537   9.325  0.1060  0.2551 -0.0014
19253W        W20117  12.394   8.720   2.963  0.0317 -0.3795  0.0528
19254W        W20118  27.074  26.464   5.907 -0.0725  0.0928 -0.0157
19255W        W20119   9.659  16.919  22.211  0.1406  0.2611 -0.1456
19256W        W20120   6.765  10.347  13.261  0.1523  0.3115  0.0467
19257W        W20121  18.026   5.759  24.421  0.1142 -0.1701  0.0728
19258W        W20122  20.593   9.935   4.426  0.0896  0.0974  0.0990
19259W        W20123  23.209   2.543  23.279  0.0117 -0.0983  0.0087
19260W        W20124   3.439  17.955  18.255 -0.0372  0.0491  0.1349
19261W        W20125  19.253  25.412  14.878 -0.0317  0.1811  0.0509
19262W        W20126  25.423  20.323  27.677 -0.3055 -0.1196  0.0574
19263W        W20127   5.155   6.504  15.501 -0.1253 -0.1828  0.0465
19264W        W20128  13.404   7.661   7.139 -0.0165 -0.2443  0.2482
19265W        W20129  18.822  25.280   5.514 -0.0090  0.1702  0.0698
19266W        W20130  17.216  20.407  20.230 -0.0910 -0.1211  0.1561
19267W        W20131  19.153  11.555   6.432 -0.0996 -0.3133 -0.0152
19268W        W20132  17.417   0.851  20.342 -0.0843 -0.1512  0.0847
19269W        W20133  11.765   6.205  26.083 -0.1481 -0.0669  0.0437
19270W        W20134  10.765  24.709  24.737 -0.1979  0.0948  0.1922
19271W        W20135  11.324  18.620   8.783  0.0703 -0.2114 -0.0398
19272W        W20136  21.800  16.717   2.757  0.2207  0.1216  0.3033
19273W        W20137   6.672  21.287  27.608  0.2962  0.3812  0.1264
19274W        W20138   2.411   9.848   6.527 -0.3451 -0.0465 -0.2526
19275W        W20139  11.039  24.529   8.395 -0.2434  0.1007  0.2958
19276W        W20140  15.407   6.091  14.055  0.0243 -0.0701  0.2965
19277W        W20141  15.849   4.692  28.630  0.2562 -0.0209 -0.0681
19278W        W20142  12.915   3.312  11.410  0.0845 -0.2547  0.0908
19279W        W20143   3.685  12.670  28.330 -0.1026  0.0233  0.1481
19280W        W20144  12.923  10.588   5.307 -0.1532 -0.0296 -0.0771
19281W        W20145   8.757  19.142  13.728 -0.0141 -0.1112  0.1133
19282W        W20146  26.131  10.484   1.565 -0.2713 -0.2357  0.2613
19283W        W20147  16.775  18.375  11.687 -0.0377  0.0758 -0.1465
19284W        W20148  20.980   5.618  15.250 -0.2143  0.0098  0.2485
19285W        W20149  28.885  13.264   4.904  0.3858  0.2289  0.2701
19286W        W20150   8.648  17.421   0.698 -0.2694  0.0193  0.0043
19287W        W20151   3.288  16.377   2.787  0.1470 -0.0539  0.0621
19288W        W20152   4.331   6.015   4.981  0.0620 -0.0734 -0.1589
19289W        W20153  26.328  10.839   7.390  0.1825  0.1585  0.0921
19290W        W20154  21.917  14.150   3.016 -0.3134  0.0712  0.3439
19291W        W20155   5.067  23.554   1.237  0.0859  0.2528  0.1976
19292W        W20156   8.497  22.028  14.392  0.0006  0.2572  0.0242
19293W        W20157  17.679  10.990   5.511  0.1545 -0.0464  0.0897
19294W        W20158  10.876  12.555   9.307 -0.0963 -0.0162 -0.0691
19295W        W20159  14.768  20.169  28.154  0.1151  0.3555  0.1272
19296W        W20160   0.650  15.775   1.690  0.2540  0.0423  0.0295
19297W        W20161  24.278  27.968  14.702  0.2719  0.0680 -0.0144
19298W        W20162   0.238   6.426   9.891 -0.0374 -0.0781 -0.2154
19299W        W20163  13.119  13.701   0.186  0.0599 -0.4293 -0.0029
19300W        W20164  11.285  23.786  12.551  0.1058 -0.1437  0.0539
19301W        W20165  10.566   8.575   3.180  0.2700  0.0177  0.1529
19302W        W20166  16.966  20.385  11.757 -0.2137 -0.0219 -0.1409
19303W        W20167  13.453  20.443  11.893  0.0177 -0.2575 -0.1401
19304W        W20168   2.221   9.904  14.965  0.1811  0.1180  0.1248
19305W        W20169  13.952  23.678  23.098 -0.1145  0.2956  0.2412
19306W        W20170  19.059  18.778  19.961  0.2130  0.1945 -0.0764
19307W        W20171  21.589   7.278  21.803 -0.2842  0.1063  0.0361
19308W        W20172  16.305  18.059  22.930 -0.0046 -0.2738  0.0744
19309W        W20173   9.862   9.674  11.335  0.0230  0.0605 -0.2850
19310W        W20174  11.405   9.526   4.074 -0.2673 -0.0821 -0.1173
19311W        W20175  22.125   5.745  15.999  0.0482 -0.1051  0.0315
19312W        W20176  16.086  23.520   3.421 -0.2123  0.2222  0.2678
19313W        W20177   9.278   7.144  20.791 -0.0412 -0.0067 -0.1721
19314W        W20178  21.340  27.951  11.197 -0.1318 -0.0171  0.0291
19315W        W20179  17.288  21.490  12.824  0.0797  0.0401  0.1661
19316W        W20180   1.046  20.222   7.668  0.1994  0.1019 -0.2493
19317W        W20181  13.316   8.024   2.779  0.1605  0.2948  0.1548
19318W        W20182  18.621   9.387  12.314 -0.1234  0.0160  0.0880
19319W        W20183  18.310  25.489   3.816 -0.0967 -0.1903 -0.2040
19320W        W20184   0.019  24.560   1.378 -0.2714  0.0388  0.3855
19321W        W20185   5.531   2.184  22.387  0.1312  0.0227 -0.2673
19322W        W20186  13.643   0.400  13.221  0.3121 -0.1875  0.0054
19323W        W20187   4.015  18.644  18.764  0.0814  0.2476  0.2545
19324W        W20188  14.228  20.324  26.214  0.0028 -0.0050  0.0993
19325W        W20189  25.982  14.307  13.034 -0.0032  0.0121  0.1963
19326W        W20190  22.415  23.750   7.387  0.0269 -0.1315  0.0938
19327W        W20191  24.711   2.176  10.257 -0.2601  0.1012 -0.0638
19328W        W20192  22.589   3.576  16.170  0.2499 -0.2711  0.1540
19329W        W20193   7.929   5.244  26.410 -0.1033 -0.0253  0.4401
19330W        W20194   6.368  19.940  19.221 -0.0565 -0.0217  0.1862
19331W        W20195  16.169  13.271   2.022 -0.0423  0.0656  0.1848
19332W        W20196  16.241  10.236  28.556 -0.2831  0.1566 -0.2291
19333W        W20197  11.372  15.041  13.640  0.0253 -0.0611  0.1024
19334W        W20198   2.880  18.545  14.943 -0.2455  0.3348  0.1103
19335W        W20199  13.980  23.687  26.023 -0.3197 -0.3080  0.0602
19336W        W20200  12.470  15.814   7.537 -0.0417  0.0294 -0.0284
19337W        W20201   5.088  12.376   7.548 -0.1900  0.0307 -0.0274
19338W        W20202  24.743   2.600  10.522 -0.1793 -0.2228 -0.1415
19339W        W20203  13.300   3.283  12.716 -0.2683  0.2208 -0.0754
19340W        W20204  17.968  11.907  11.790 -0.0321  0.3237 -0.3654
19341W        W20205   1.220  16.968  19.981 -0.1154 -0.0097  0.2394
19342W        W20206  20.684   1.310  11.584 -0.0567 -0.0470 -0.2188
19343W        W20207  14.650  18.751   5.182  0.1819 -0.2355  0.2062
19344W        W20208  22.251  10.512  14.705 -0.0046 -0.1388 -0.3671
19345W        W20209  13.228  17.788  15.640 -0.0169  0.3621 -0.2573
19346W        W20210   9.540  22.403  14.943  0.0459 -0.2049  0.1239
19347W        W20211  14.326  26.324  11.918 -0.2519  0.0158  0.2636
19348W        W20212  26.678  25.383  16.233  0.1160  0.0819  0.3348
19349W        W20213   5.721  24.126   0.909  0.0563 -0.2515 -0.2819
19350W        W20214  16.420  24.989   4.655 -0.2835 -0.0982 -0.1106
19351W        W20215  15.975  28.496  10.934 -0.1151 -0.0261  0.0561
19352W        W20216  16.948  15.111   0.416  0.2347 -0.0616  0.0795
19353W        W20217   7.824  13.240   5.600 -0.1614 -0.2929 -0.0434
19354W        W20218  17.629  15.953  13.655  0.0514 -0.0138 -0.0004
19355W        W20219  11.105   8.026  12.292  0.1004 -0.2317  0.0791
19356W        W20220   1.360  20.000  26.082  0.0022  0.1359  0.1759
19357W        W20221  27.061   4.701   4.034  0.0061  0.0943 -0.2221
19358W        W20222  20.261  23.165   1.801  0.0412  0.1877 -0.0926
19359W        W20223   9.847  10.510  12.690 -0.5557  0.1999  0.2193
19360W        W20224  18.497  23.093   9.228 -0.1390  0.0555  0.4994
19361W        W20225   1.215  24.596   9.793  0.4254 -0.0672 -0.0882
19362W        W20226   7.397   6.019  24.631 -0.2359  0.1059 -0.3710
19363W        W20227  17.528  16.016  14.852  0.1594 -0.1092  0.2538
19364W        W20228   4.279  14.203   3.291  0.1483  0.1438  0.0103
19365W        W20229  22.322  17.140  27.903 -0.0084  0.0000  0.1658
19366W        W20230   9.428  16.667  27.916 -0.1374 -0.0477 -0.0502
19367W        W20231  15.104  28.247  21.995 -0.4804 -0.1370 -0.1133
19368W        W20232  27.282   1.280  27.995  0.2481 -0.2688  0.2048
19369W        W20233  24.097  17.944   1.254  0.0259  0.2882  0.3014
19370W        W20234   1.407  21.871  19.511 -0.3262  0.1513 -0.0778
19371W        W20235  13.148   5.943   6.600 -0.0617 -0.0404  0.0226
19372W        W20236  16.387  16.073  23.153  0.1171 -0.0404  0.0594
19373W        W20237  10.297   5.851   0.358 -0.0795  0.0115 -0.2021
19374W        W20238  21.678  24.732  12.830 -0.0278  0.0028 -0.2870
19375W        W20239  12.079  13.947  26.854  0.2183 -0.0016 -0.0684
19376W        W20240  19.881  19.681   2.635  0.0490  0.0578 -0.0020
19377W        W20241  18.631  15.119   7.969 -0.4687 -0.1100  0.2558
19378W        W20242  28.391  26.232   9.996  0.0337 -0.0063  0.4141
19379W        W20243   9.976  10.275   0.455  0.1840 -0.3132  0.0276
19380W        W20244  15.741  22.062   9.271  0.0268  0.3597 -0.2888
19381W        W20245  15.962   8.492  11.288  0.2339  0.3627  0.1925
19382W        W20246  10.810  24.836  22.041 -0.0804 -0.1485  0.4036
19383W        W20247   2.545  12.413   1.816 -0.0057  0.3584  0.2832
19384W        W20248  21.045  20.591   2.933 -0.1782 -0.2095 -0.1889
19385W        W20249  14.859  13.951   2.834  0.1558  0.1460 -0.0920
19386W        W20250   3.111  14.493  25.745  0.2514  0.3613 -0.5365
19387W        W20251  19.724   1.386   5.384 -0.0540 -0.1517  0.0760
19388W        W20252  12.306   7.321  26.893 -0.1168 -0.0050 -0.1275
19389W        W20253  10.050  16.886  11.107 -0.2786  0.0690 -0.2898
19390W        W20254  19.238  13.199  27.007 -0.1822  0.0102  0.0403
19391W        W20255  19.198  22.776   4.662  0.0426 -0.0661 -0.1650
19392W        W20256  12.233  19.342  21.842 -0.1683 -0.1106  0.0205
19393W        W20257   4.751  20.210   4.651  0.0246  0.0261 -0.1508
19394W        W20258  11.562  19.519   9.646  0.0048 -0.2323  0.1660
19395W        W20259  10.458   6.248  15.875  0.4652 -0.0754  0.2448
19396W        W20260  19.770  20.125   2.184 -0.0163 -0.3371 -0.1430
19397W        W20261  23.698  23.324  15.066 -0.1418  0.1688 -0.1312
19398W        W20262  23.942  24.685   1.994 -0.0544 -0.0952  0.2209
19399W        W20263  22.258  25.194   1.181 -0.2675 -0.1261 -0.1092
19400W        W20264  14.226   2.143   3.733  0.1708  0.2671 -0.2430
19401W        W20265  28.071  23.761  27.567 -0.0875 -0.1909 -0.2307
19402W        W20266   3.265   3.086  22.633 -0.0306 -0.1271  0.2109
19403W        W20267  20.603  25.905  12.978 -0.0404  0.0907 -0.0780
19404W        W20268  20.138   3.997  18.008  0.1045 -0.1495  0.2236
19405W        W20269  11.581  26.888  18.073 -0.0294 -0.0489  0.1212
19406W        W20270  26.321  23.240  25.711  0.0617 -0.0801 -0.0458
19407W        W20271  12.727  18.669  11.247 -0.0875  0.1658  0.0592
19408W        W20272  20.237  25.278   7.062  0.0252 -0.0940  0.0049
19409W        W20273   0.502  19.470  25.741 -0.2638  0.1060 -0.0867
19410W        W20274  22.307  17.848   8.833 -0.0597  0.1333 -0.3155
19411W        W20275  20.218   8.067  18.943 -0.2454 -0.2028  0.1137
19412W        W20276  12.893  23.821   0.878  0.1346  0.0898 -0.2285
19413W        W20277   8.170  23.878  13.101  0.1453 -0.0514 -0.1132
19414W        W20278  19.067  12.531  25.770  0.1400 -0.0265 -0.0419
19415W        W20279  12.084  26.247  20.947 -0.1617 -0.2709  0.1291
19416W        W20280  13.974  28.043   9.373  0.0502 -0.0274  0.1870
19417W        W20281  10.625  26.954  16.238 -0.0521 -0.1215  0.0902
19418W        W20282  20.091  14.816  26.868 -0.0947 -0.2041  0.1077
19419W        W20283   4.810   0.154  10.423 -0.0799 -0.0760 -0.2584
19420W        W20284  24.810  24.118   4.628 -0.0034  0.0975  0.1129
19421W        W20285   6.125  25.446  18.170  0.0009  0.2307  0.0216
19422W        W20286  24.930  16.421  14.178 -0.1059  0.0562  0.2894
19423W        W20287   5.271  20.934   7.661  0.3086 -0.0480 -0.1783
19424W        W20288  16.338  16.375  27.949  0.0295  0.0839  0.0767
19425W        W20289  19.413  23.141  25.873 -0.0037 -0.2494 -0.0683
19426W        W20290  14.183   9.827   8.458 -0.5407 -0.0416  0.2646
19427W        W20291  21.820  12.463  24.718  0.1356 -0.1657 -0.2190
19428W        W20292  17.933  26.588  13.649  0.3600  0.2046 -0.0758
19429W        W20293  16.006   6.069  16.761 -0.0337 -0.1394  0.2014
19430W        W20294   3.835   0.434  25.271  0.0005 -0.2575  0.1359
19431W        W20295  24.570  17.215  20.342 -0.0449 -0.4219 -0.0124
19432W        W20296   7.910  18.067   0.698 -0.0080 -0.0309 -0.1711
19433W        W20297   8.862  20.063  26.939 -0.2014 -0.0088 -0.2780
19434W        W20298  12.039   5.439   5.098  0.1051  0.0976  0.1751
19435W        W20299   4.213  16.777   3.892 -0.0381  0.0448 -0.1420
19436W        W20300  22.914  16.447   5.979  0.0493  0.1331  0.1047
19437W        W20301  15.359   0.316  17.674 -0.0606  0.1238 -0.0688
19438W        W20302   5.042   1.642   9.674 -0.0978  0.1412  0.1162
19439W        W20303  13.398  18.714   1.087 -0.1150  0.0696 -0.2767
19440W        W20304   2.585   0.603   8.813 -0.1807  0.2615  0.0476
19441W        W20305  17.169  22.181  10.526  0.1411 -0.3403  0.0913
19442W        W20306  27.112  16.796  12.983  0.0191  0.0116 -0.1981
19443W        W20307  25.671  13.663   0.156 -0.0043  0.4715  0.0395
19444W        W20308   4.480  21.703   2.502 -0.3873 -0.2042  0.2336
19445W        W20309  24.774  13.114   8.865  0.0246  0.2719  0.0376
19446W        W20310  19.152  24.916   5.619  0.0054 -0.1535 -0.3188
19447W        W20311   2.137  13.580  17.330 -0.1838  0.3314 -0.2108
19448W        W20312   8.721   9.360   0.086  0.1551  0.0170 -0.1890
19449W        W20313   8.567  26.154  18.229  0.2015  0.4186 -0.2739
19450W        W20314   8.260   8.150   2.337  0.2874  0.1522  0.0376
19451W        W20315  12.780   4.523  20.991 -0.1790  0.2362 -0.1214
19452W        W20316   0.855  28.152  15.421  0.0200 -0.1797 -0.1217
19453W        W20317  14.252   9.865  15.664  0.2659 -0.1945 -0.0009
19454W        W20318  20.395  26.070  11.033 -0.1624 -0.1141  0.0073
19455W        W20319  14.190  10.006   2.207  0.0534  0.0558 -0.3264
19456W        W20320  15.230  13.162  15.484  0.1659  0.0156 -0.0767
19457W        W20321  22.055  20.078  14.588 -0.1015  0.1803 -0.0462
19458W        W20322  21.220  13.361   0.417 -0.0321 -0.1509 -0.0096
19459W        W20323   8.343  19.088   5.481 -0.0913 -0.0808 -0.1233
19460W        W20324  27.549  16.719  27.346 -0.0646  0.3515 -0.1545
19461W        W20325  19.793   9.566  13.136 -0.0141  0.0067  0.0476
19462W        W20326  21.468  27.561  20.084 -0.1048 -0.0189  0.0009
19463W        W20327  15.755  13.631  13.035  0.1086  0.0279  0.0631
19464W        W20328   7.242  12.392  26.568 -0.3574 -0.0031 -0.0156
19465W        W20329  10.798  24.373   2.428 -0.1375 -0.1726 -0.0057
19466W        W20330  21.906   8.815  22.672 -0.0889  0.1698  0.0688
19467W        W20331  14.798  27.942  13.259  0.1786 -0.2955 -0.2655
19468W        W20332  23.456  27.007   6.015 -0.1372  0.2161 -0.1466
19469W        W20333  28.498   0.599   9.444 -0.0377  0.1019  0.1293
19470W        W20334  12.092   1.674  28.686 -0.1218 -0.0828  0.1245
19471W        W20335  12.141   6.294   6.162 -0.2282  0.0155  0.4046
19472W        W20336   4.539   0.531  23.708 -0.1766 -0.0647  0.3118
19473W        W20337  19.790  12.093   5.826  0.0379  0.0032 -0.1115
19474W        W20338  27.221  16.333  11.267  0.3580  0.1231  0.0611
19475W        W20339  10.895   2.786  28.219  0.0560  0.1467  0.0953
19476W        W20340   1.433  16.792   3.119 -0.2016  0.0431 -0.0737
19477W        W20341  13.121  14.155  12.227  0.0540 -0.0916  0.1796
19478W        W20342   7.037  24.437   0.479 -0.3122  0.2503 -0.1844
19479W        W20343  18.107  27.104  23.148 -0.1910 -0.1706 -0.1308
19480W        W20344  28.044  22.182  28.818 -0.1986 -0.1799  0.3123
19481W        W20345  20.040   5.050   7.560 -0.4713  0.0503  0.1551
19482W        W20346  15.836  23.337  11.907  0.0666 -0.0624  0.0779
19483W        W20347   6.905   0.069   7.323 -0.0148  0.1471  0.0083
19484W        W20348   1.768  17.888  14.453  0.1029 -0.1485 -0.2389
19485W        W20349  15.681  23.351   9.734  0.0497  0.2578  0.1499
19486W        W20350  10.218  18.911   7.602 -0.1308 -0.0173  0.4598
19487W        W20351  10.535  16.393  17.116 -0.1197 -0.0591  0.1019
19488W        W20352  16.995   2.860   9.244 -0.1208  0.1590  0.1604
19489W        W20353   4.951   7.883  13.616 -0.1847 -0.2844 -0.0680
19490W        W20354  18.644   6.544  28.320  0.0360  0.0866 -0.0793
19491W        W20355   6.340  18.098   5.850  0.1460  0.2463  0.1174
19492W        W20356  15.435  19.722  23.641  0.0287  0.0813 -0.0070
19493W        W20357  23.446   5.646  27.411  0.1560  0.0280 -0.2496
19494W        W20358  24.650  22.307  19.815  0.0050 -0.1403  0.3689
19495W        W20359  13.808   8.851  19.485 -0.1902 -0.0800  0.0805
19496W        W20360   3.691   7.091   6.621  0.0001  0.1407  0.0887
19497W        W20361  16.980  12.608  21.577  0.0402 -0.0154 -0.0361
19498W        W20362   3.027  24.664  12.009  0.0760  0.0111  0.0371
19499W        W20363   8.020  27.710  26.996  0.1516  0.1107  0.0862
19500W        W20364   2.793  10.105  13.761 -0.0679 -0.1698  0.2575
19501W        W20365  13.013  23.654   4.514  0.1134 -0.2882  0.0541
19502W        W20366  21.572  26.795   8.047 -0.0443  0.1164 -0.0298
19503W        W20367   5.254  20.511   9.791  0.1770 -0.0303 -0.1975
19504W        W20368  13.313   0.262   4.932  0.2010 -0.0130  0.0486
19505W        W20369   5.853   4.116  26.457  0.1963  0.1450  0.0467
19506W        W20370  12.548  27.932  13.948  0.2130 -0.1388 -0.2699
19507W        W20371   7.433  15.812  25.914  0.1765  0.3465 -0.2943
19508W        W20372   6.089  19.104  16.824  0.3491  0.2119  0.0484
19509W        W20373  22.190  17.615  12.300  0.0169 -0.0665  0.0412
19510W        W20374  15.367   7.527   6.869  0.1119 -0.0372  0.0115
19511W        W20375  10.431  26.411   0.507  0.1682  0.2207  0.4095
19512W        W20376  24.078   0.223   9.759 -0.1508  0.1549 -0.0167
19513W        W20377  16.238  22.791  23.933  0.0472  0.1721 -0.1230
19514W        W20378   5.655  13.831  26.209 -0.3201 -0.0608  0.2485
19515W        W20379  24.424  16.254  13.384  0.0241  0.0620  0.0613
19516W        W20380   3.140  15.564  14.687  0.1482  0.2982  0.2092
19517W        W20381   1.045  24.517  10.265  0.0835  0.1457 -0.1000
19518W        W20382   4.872  12.894   2.955 -0.0572 -0.1936  0.1893
19519W        W20383  21.031  26.759   0.110  0.1164  0.3799 -0.1951
19520W        W20384  20.027  25.233  10.179  0.1568 -0.2745 -0.1029
19521W        W20385   2.395  27.920   8.828  0.2645 -0.0591  0.1546
19522W        W20386  18.434   1.617   7.128 -0.1842  0.0382  0.2159
19523W        W20387  22.655   9.965  12.418  0.3002  0.1421  0.1564
19524W        W20388   2.722  23.903  26.858 -0.0230  0.0186 -0.0519
19525W        W20389   4.304  24.699   6.302  0.0876  0.1239  0.1664
19526W        W20390  14.826   0.115  26.557 -0.1451  0.1497  0.1879
19527W        W20391  12.300  25.152   7.654 -0.0114  0.1023 -0.1764
19528W        W20392  13.096   1.600  16.733 -0.0417 -0.1385  0.2419
19529W        W20393  26.816  27.196  14.908  0.2341  0.0880 -0.2750
19530W        W20394   3.423  26.028  25.198  0.0356  0.2105 -0.5277
19531W        W20395  14.223   9.140  10.591 -0.0480 -0.2075 -0.0240
19532W        W20396  19.855  18.555  17.462  0.1076 -0.0145  0.1541
19533W        W20397  20.473   3.573   4.608 -0.0192  0.0592 -0.2471
19534W        W20398   7.281  21.791  22.825 -0.1889 -0.1422  0.2482
19535W        W20399  19.960  17.884   2.501 -0.2677 -0.2203  0.1369
19536W        W20400  28.224   5.570  22.127  0.0883 -0.2208 -0.0630
19537W        W20401  19.885  21.442  12.846 -0.0825 -0.4068  0.2010
19538W        W20402  18.924  16.688  27.579  0.0114 -0.0246 -0.0236
19539W        W20403  18.884  12.111  19.135 -0.3185  0.0642  0.0012
19540W        W20404  11.280  24.064   6.485 -0.0820 -0.0211 -0.3338
19541W        W20405  16.644  25.851   9.336  0.0451 -0.0860  0.1760
19542W        W20406  26.150  27.138   7.994 -0.1811 -0.2020 -0.0501
19543W        W20407  13.462   5.150   8.418 -0.2095  0.2352  0.1620
19544W        W20408  16.011   4.636   4.375  0.2125  0.2363  0.0258
19545W        W20409  11.539  22.271  14.771  0.1868 -0.0298  0.0921
19546W        W20410   0.596   8.732   2.016 -0.2488  0.0114 -0.1511
19547W        W20411   8.462  16.892  12.096  0.0677 -0.0744  0.2470
19548W        W20412   3.164   3.499  26.052 -0.0489  0.0122 -0.1297
19549W        W20413  19.162  20.877  13.014 -0.1239  0.1611  0.1686
19550W        W20414  20.241  21.915   3.476  0.1894  0.2391  0.0953
19551W        W20415   5.590  13.384  22.274 -0.1813 -0.0332 -0.2901
19552W        W20416   3.964  22.866   0.949  0.0557  0.3870  0.1099
19553W        W20417  18.058  19.016  18.812 -0.0643  0.0784 -0.1121
19554W        W20418  24.437  14.994   9.220 -0.0469  0.1616 -0.1077
19555W        W20419   8.571  20.686   9.603 -0.2906 -0.0668 -0.1228
19556W        W20420   4.511  20.655   9.766 -0.1001  0.0554 -0.0387
19557W        W20421  26.022   2.408   6.997 -0.0031 -0.0188 -0.0870
19558W        W20422  14.953  27.443  25.735 -0.1999 -0.1714  0.1084
19559W        W20423   9.678  10.983   7.278 -0.0762  0.4698  0.2835
19560W        W20424   2.307  23.735  26.553  0.1672  0.1484  0.1686
19561W        W20425   8.070  12.866  28.487 -0.1042 -0.0806  0.1572
19562W        W20426   8.034  26.326   4.026 -0.1072  0.0877 -0.3097
19563W        W20427  19.958  24.679   9.223  0.1276 -0.0985  0.3166
19564W        W20428   4.226  12.287  14.746  0.0053 -0.0393 -0.2157
19565W        W20429   8.985   8.795  14.002 -0.1108 -0.3116 -0.2971
19566W        W20430   3.250   8.784   6.912  0.2355 -0.2313  0.0760
19567W        W20431  21.317   0.667   1.434  0.2179 -0.0619 -0.2119
19568W        W20432  16.712  11.593   1.627 -0.0736 -0.0773 -0.2421
19569W        W20433   5.668  11.335  17.218 -0.1239 -0.0503  0.2289
19570W        W20434  11.567   6.621  19.712 -0.1365 -0.0413  0.3234
19571W        W20435  13.293   6.079  19.533 -0.1347  0.3108  0.3009
19572W        W20436  13.278  13.306  27.556 -0.2455 -0.2221 -0.1244
19573W        W20437  23.557  18.823  19.588 -0.0129 -0.2528 -0.1681
19574W        W20438   9.215  18.590   6.423 -0.2397 -0.2009  0.0872
19575W        W20439  24.798   2.457   9.801 -0.0074  0.2011  0.1775
19576W        W20440   0.308  13.912   2.796  0.2055  0.0044  0.4175
19577W        W20441   1.779  22.166  13.495 -0.1583  0.2144 -0.1140
19578W        W20442  16.298  23.580  10.690  0.0862 -0.3173  0.0833
19579W        W20443   6.968  14.817   3.785  0.0740  0.0294  0.0490
19580W        W20444   4.847  22.203  10.279  0.0004  0.2909  0.3064
19581W        W20445  19.907  10.351   2.556 -0.1003  0.1848 -0.1878
19582W        W20446  25.507  27.928  11.684 -0.1637  0.0248 -0.0512
19583W        W20447  17.254   3.985  11.886 -0.1664  0.3350 -0.2667
19584W        W20448  10.616  16.720  16.756 -0.3305 -0.1259  0.0346
19585W        W20449   7.292  23.368  25.667  0.0903 -0.0733  0.0038
19586W        W20450  26.398  22.619   3.452 -0.2457  0.1169 -0.1182
19587W        W20451   5.713  23.106   8.380  0.0397 -0.0466  0.2260
19588W        W20452  23.444  16.766  10.450 -0.1795 -0.0132 -0.0415
19589W        W20453  21.469  29.106   6.768  0.0138 -0.0950  0.4078
19590W        W20454  20.222  13.400   6.135 -0.0467  0.0566 -0.0840
19591W        W20455   3.427   5.296  11.563 -0.0822 -0.1333  0.0162
19592W        W20456   7.689   4.753  11.892  0.0808  0.0855 -0.0744
19593W        W20457  11.485  18.046   3.176 -0.2281 -0.0082 -0.2441
19594W        W20458  21.920  15.635   6.968  0.1396 -0.1314 -0.0362
19595W        W20459   7.013  27.818  11.920  0.2577 -0.0298 -0.1979
19596W        W20460  20.211  19.317   4.733 -0.0219  0.3378  0.2638
19597W        W20461  18.166   9.611   2.227 -0.3022  0.0878  0.2071
19598W        W20462  17.802  12.105   7.292 -0.0487  0.0996  0.2463
19599W        W20463  15.217  18.426   8.155 -0.1563 -0.0194  0.1564
19600W        W20464  25.484  14.071  22.254  0.0832 -0.0608 -0.2115
19601W        W20465  25.192  18.873   5.523 -0.3154 -0.2662  0.1718
19602W        W20466  13.978  28.012   2.711 -0.3613 -0.3487  0.1928
19603W        W20467   2.990  21.845   6.762  0.1353 -0.4041 -0.0701
19604W        W20468  16.185   0.572  25.308  0.3358  0.1174  0.0386
19605W        W20469  12.639   5.318   9.660 -0.0694  0.0676  0.1542
19606W        W20470   5.706   5.639  13.102  0.1629  0.4096  0.1017
19607W        W20471   2.588   7.826  19.131 -0.2489  0.2765 -0.0948
19608W        W20472  20.131   2.471  13.124  0.0545 -0.3333 -0.0398
19609W        W20473   6.744   3.130  17.980 -0.2739 -0.0855  0.0611
19610W        W20474   9.549  10.243  12.115  0.0363  0.2236 -0.0014
19611W        W20475   2.041  17.197   0.910 -0.1330  0.0682  0.0450
19612W        W20476   0.865  25.382   2.812  0.2347  0.2959 -0.1937
19613W        W20477   3.652  22.881   8.228  0.0895 -0.0407  0.1262
19614W        W20478  10.416   1.256   8.067  0.0542 -0.0879  0.1039
19615W        W20479  16.428  20.072  15.423 -0.0553  0.0857 -0.1991
19616W        W20480   7.341  21.269   1.875 -0.1671  0.0901 -0.1134
19617W        W20481   2.428   6.384  23.325 -0.3654  0.0387  0.0195
19618W        W20482  26.927  23.806  22.664  0.0424 -0.3233 -0.1618
19619W        W20483  15.749  10.021  26.624  0.0325 -0.0705  0.0985
19620W        W20484  27.258  21.581   0.994  0.1204  0.0284  0.3519
19621W        W20485  26.573   9.999  13.095  0.0099 -0.1168  0.0629
19622W        W20486  28.407   7.987  16.439  0.1185 -0.0934  0.2629
19623W        W20487  23.263   8.595   3.834  0.2682  0.0949  0.0124
19624W        W20488  18.260  18.191  11.431  0.3938  0.0239 -0.1814
19625W        W20489  22.284  28.042   4.954  0.1362 -0.0436 -0.2421
19626W        W20490  16.309  16.444  13.677  0.2987 -0.2064  0.1806
19627W        W20491  23.163  17.542  28.858  0.2980  0.1518  0.0661
19628W        W20492  11.317  21.733   8.798 -0.1479 -0.3222 -0.0627
19629W        W20493  15.819  24.540  10.519 -0.0572 -0.1290  0.2616
19630W        W20494  23.844  12.377  26.395  0.2204 -0.0444  0.0002
19631W        W20495   4.111  24.288   2.351  0.0024  0.1408 -0.1945
19632W        W20496  24.116  11.608  11.460 -0.2140  0.1319 -0.1296
19633W        W20497  23.153   8.804  11.859  0.3121 -0.2540  0.3997
19634W        W20498  20.437   4.344   5.448 -0.0434  0.0435 -0.0026
19635W        W20499  18.747  18.223   5.864 -0.4716  0.1880  0.0032
19636W        W20500  21.053  29.125   3.587 -0.1405  0.0547 -0.0875
19637W        W20501   0.195  24.808  14.623 -0.1512  0.4345  0.3606
19638W        W20502  26.424   3.408  22.234  0.1267  0.0188 -0.2700
19639W        W20503  13.691  18.992   2.506  0.1327 -0.3415 -0.1816
19640W        W20504  23.627  12.236  10.511 -0.0287  0.1514 -0.3207
19641W        W20505  14.948  15.989  16.315  0.2043 -0.1116  0.1396
19642W        W20506  21.636  19.931   6.430  0.0800  0.1676 -0.1704
19643W        W20507  21.096  24.570  16.831 -0.1385 -0.0093 -0.0472
19644W        W20508  13.006   4.807   5.587  0.0105 -0.3121  0.1739
19645W        W20509  19.020  18.112   3.008 -0.0516  0.1450 -0.1288
19646W        W20510  15.916  24.423  13.064  0.1042 -0.2600 -0.1397
19647W        W20511  12.266  25.283   6.399 -0.0498  0.0136 -0.1170
19648W        W20512  11.884  28.888  29.006  0.1603 -0.1926 -0.2106
19649W        W20513  22.549  22.758   5.514  0.1899  0.0560  0.0906
19650W        W20514  22.391  17.183  11.136 -0.3068  0.2896 -0.2571
19651W        W20515  19.332   9.873  23.534 -0.4427 -0.1257  0.0668
19652W        W20516  22.889  17.207  12.099  0.1875  0.3149  0.0399
19653W        W20517  10.651  16.799  10.024  0.3152 -0.2557  0.1069
19654W        W20518  22.443  21.413   2.258  0.1689  0.3852 -0.1426
19655W        W20519  21.564   5.036  25.359  0.1168 -0.0161  0.0866
19656W        W20520  15.986  18.685  17.792  0.1098  0.2538 -0.0833
19657W        W20521  11.522  21.195   1.253  0.0952  0.1667 -0.0190
19658W        W20522  18.933  19.066  25.264  0.1424 -0.0319 -0.0658
19659W        W20523  20.578  21.852   6.304  0.4935 -0.0500 -0.0667
19660W        W20524   3.076  27.450   7.235 -0.0967 -0.1727 -0.0810
19661W        W20525  23.358   2.496  20.156  0.2283 -0.1095 -0.1371
19662W        W20526  16.300  10.712  16.554 -0.0505 -0.2638  0.1174
19663W        W20527  10.614  27.033   2.363  0.2225  0.1168 -0.0216
19664W        W20528   5.757   5.685  15.762 -0.2502 -0.2067  0.1690
19665W        W20529   1.664  26.357   0.491 -0.2165 -0.3146  0.5831
19666W        W20530   2.098  13.483  28.313 -0.1224  0.1465 -0.0874
19667W        W20531  22.486  23.312  13.569 -0.1476 -0.3368 -0.2514
19668W        W20532   1.102   9.139  19.397 -0.0480 -0.0887 -0.0717
19669W        W20533  19.954  19.860  18.689 -0.1479  0.0912  0.0484
19670W        W20534  19.378  10.179   6.982 -0.2019  0.5242  0.1971
19671W        W20535   1.520   1.669   5.209 -0.3231  0.2117  0.2980
19672W        W20536  23.305  27.109   4.852  0.1375  0.3026 -0.2708
19673W        W20537  10.411   8.231   3.509 -0.1260  0.1892  0.1266
19674W        W20538  27.293   8.689  17.391 -0.2923 -0.1175  0.1014
19675W        W20539  12.579   1.257  16.067  0.3982 -0.1272  0.0883
19676W        W20540  15.832  28.016   2.298  0.0001 -0.0731 -0.0368
19677W        W20541  13.913  12.829  20.932 -0.4330  0.0996  0.2190
19678W        W20542   9.562   0.143  26.955  0.0100 -0.1142  0.0973
19679W        W20543  19.724   1.365   8.916 -0.1115  0.5449  0.0661
19680W        W20544  28.739   4.382  10.932  0.1060 -0.1981  0.3020
19681W        W20545  14.571  24.821  24.644  0.0994  0.2203  0.1836
19682W        W20546  15.765  16.684  18.608 -0.0527  0.0908 -0.0511
19683W        W20547   7.582  26.692  24.315  0.0709  0.1746 -0.1017
19684W        W20548   4.142   0.119  28.407  0.0598 -0.0216 -0.0652
19685W        W20549  16.690   3.037  23.217  0.0872 -0.0072  0.1415
19686W        W20550  12.297  25.113   9.978  0.1739 -0.0150 -0.1207
19687W        W20551  10.294  18.570  12.834  0.1790  0.0018 -0.0730
19688W        W20552   1.325   0.706  12.692  0.2591 -0.1902  0.1113
19689W        W20553  28.505   8.687  22.744 -0.2811 -0.1080 -0.0970
19690W        W20554   5.589  16.468   5.003  0.2161 -0.0022 -0.0857
19691W        W20555  13.685  22.813   8.681 -0.2705  0.1241  0.0223
19692W        W20556  25.683   9.938  24.843 -0.0056  0.4463  0.0614
19693W        W20557  23.017  24.872   3.088 -0.3151 -0.2238  0.0587
19694W        W20558  16.829  25.802  13.833 -0.3021  0.0539 -0.1019
19695W        W20559  26.875  19.212   8.326 -0.1899 -0.1163  0.0729
19696W        W20560  11.815  18.640  14.626 -0.2204  0.1395 -0.2245
19697W        W20561  15.280   0.975  28.012 -0.2357  0.1666  0.0656
19698W        W20562  20.389  13.651  20.926  0.0982  0.0479 -0.0853
19699W        W20563  19.232  25.395  13.184  0.0780 -0.4037  0.0487
19700W        W20564  19.892  28.931   2.133  0.0889  0.0570 -0.1665
19701W        W20565  18.608   1.028  13.285  0.0991  0.3006 -0.2573
19702W        W20566   8.482  14.940  25.355  0.0046  0.1296  0.1240
19703W        W20567  24.106  14.147   4.861  0.2779  0.1117 -0.0382
19704W        W20568  22.523  27.605  27.613  0.2229 -0.0596  0.0535
19705W        W20569   5.653  12.260   8.084 -0.0140  0.0492 -0.2184
19706W        W20570  18.680  18.730  26.319  0.0910 -0.1565 -0.2382
19707W        W20571   0.060  18.540  16.180 -0.2097 -0.1561 -0.0181
19708W        W20572  10.490  23.026   3.110 -0.3466 -0.0453  0.1737
19709W        W20573  14.956  22.815  18.756  0.0445 -0.0875 -0.0824
19710W        W20574  13.756   9.230  18.674  0.1330 -0.1995  0.1017
19711W        W20575   5.002   3.429  10.427 -0.2785 -0.1006 -0.3954
19712W        W20576  15.060  17.078   2.662  0.0275 -0.2789  0.3326
19713W        W20577  27.384   2.716  23.807 -0.0447 -0.1116 -0.0858
19714W        W20578  11.291  23.571  22.930 -0.0212  0.2257  0.0317
19715W        W20579  28.311   5.026  12.510  0.2045  0.0367  0.1131
19716W        W20580  11.248  21.677   3.619 -0.2376  0.1823 -0.0354
19717W        W20581  15.264   7.765   6.453 -0.2917  0.0950 -0.1663
19718W        W20582  22.718  28.434   1.776  0.2326  0.1019  0.1601
19719W        W20583   8.610  26.568  27.658  0.0929  0.0580  0.1148
19720W        W20584  13.264  21.429   4.371  0.0887  0.0659 -0.2785
19721W        W20585  20.714   1.150  10.433  0.1203  0.0426  0.2304
19722W        W20586  18.304  17.918   5.645 -0.1958 -0.0297 -0.1559
19723W        W20587  26.555   0.867  19.066  0.2321 -0.0230  0.3468
19724W        W20588  14.417  18.862   7.818 -0.1046 -0.1527  0.3373
19725W        W20589   9.884   4.530  25.115 -0.0039  0.2009  0.0581
19726W        W20590  15.484  21.754  15.931 -0.2830  0.3444 -0.0723
19727W        W20591   7.834  15.642   9.347 -0.3060  0.1260 -0.1492
19728W        W20592   2.310  19.635  16.373  0.4277 -0.0952  0.0869
19729W        W20593   6.245  25.572  20.262  0.2614  0.1728  0.4529
19730W        W20594  21.629  22.784  18.063 -0.3681 -0.1812  0.0908
19731W        W20595  12.775  19.896   2.210  0.1252 -0.1378  0.1939
19732W        W20596  19.981  28.282   3.711 -0.2006  0.0007  0.2405
19733W        W20597  19.922   5.286   1.162 -0.3287 -0.0787 -0.0390
19734W        W20598   1.556   0.727   8.712 -0.1723 -0.1854 -0.3801
19735W        W20599  20.865   7.438   5.426 -0.0261 -0.0395  0.1742
19736W        W20600  22.505  18.861   9.084 -0.0863  0.1519 -0.3689
19737W        W20601  12.400   2.153  21.753 -0.4017  0.1515  0.1256
19738W        W20602  22.092   3.008  16.090  0.1146 -0.0701 -0.1186
19739W        W20603  18.988  26.342  25.672  0.1615 -0.2108  0.2739
19740W        W20604  10.849  16.847   5.642  0.0285 -0.2262  0.1956
19741W        W20605  20.114   8.143  11.616  0.1360 -0.0654 -0.0870
19742W        W20606  14.671  25.552  12.110 -0.0757 -0.2524  0.2291
19743W        W20607  19.944  22.440  21.767 -0.0891 -0.3563  0.5594
19744W        W20608  11.657  26.120  10.736 -0.2385 -0.1348  0.2572
19745W        W20609   9.650  22.310   2.905  0.1297 -0.0672  0.1085
19746W        W20610  18.442  15.696  16.911 -0.3201  0.1414  0.2577
19747W        W20611   9.725  19.311  22.808  0.0678  0.0409  0.0480
19748W        W20612  26.716  26.120  27.679  0.2867  0.1810 -0.0788
19749W        W20613  19.808  20.809  11.928  0.3068 -0.2622  0.0830
19750W        W20614  14.748  23.406  27.005 -0.0662 -0.2045  0.1925
19751W        W20615   7.743  21.974  27.873  0.0792  0.0918 -0.1419
19752W        W20616  15.805  18.303  15.561 -0.1787  0.0578  0.3119
19753W        W20617  12.291  23.709   3.175 -0.1528 -0.0244 -0.1752
19754W        W20618  14.622   1.036   1.001 -0.3094  0.0187 -0.0152
19755W        W20619  23.871   9.644  25.741  0.0184 -0.3709 -0.0361
19756W        W20620   8.691  20.824   3.863 -0.0530 -0.2870 -0.1599
19757W        W20621  18.335   6.573   0.250 -0.0783  0.3216 -0.1019
19758W        W20622  19.300  11.075  21.564  0.2345  0.2613  0.0810
19759W        W20623  21.182  13.545  13.049  0.0362  0.1807 -0.1527
19760W        W20624  16.010   4.440  26.025  0.0235  0.0356  0.0738
19761W        W20625  14.568  23.244  18.058  0.2028  0.1595  0.0508
19762W        W20626  19.256  11.037  17.470  0.1000 -0.0974 -0.1974
19763W        W20627  18.176  14.535  20.270 -0.4422 -0.2904  0.2871
19764W        W20628  25.480   7.356   2.147 -0.2709 -0.1254  0.2611
19765W        W20629  18.349   2.944  16.439 -0.1307 -0.1456 -0.0937
19766W        W20630  14.217   0.402  14.604 -0.1111  0.0150 -0.0451
19767W        W20631   3.857  25.098  11.600  0.0993 -0.0117  0.1774
19768W        W20632   9.269  21.119  13.857 -0.3164 -0.0777  0.1057
19769W        W20633  24.188  23.869  23.766  0.2547 -0.2516  0.0898
19770W        W20634   3.928   3.531   1.375 -0.2422  0.2608  0.1195
19771W        W20635   4.972  22.155   1.903  0.0753 -0.0744  0.5006
19772W        W20636   7.878  13.881  15.173 -0.1743  0.3054  0.4925
19773W        W20637  28.670  10.712  14.643 -0.0012  0.1059 -0.0296
19774W        W20638  21.969  24.144   7.527 -0.1060 -0.0756  0.0085
19775W        W20639  28.071  28.905  10.604 -0.1160 -0.0717 -0.0336
19776W        W20640   9.494  16.160  12.937 -0.1058  0.0196 -0.0544
19777W        W20641   5.028  27.258  17.522 -0.3135  0.2208  0.0809
19778W        W20642  17.111   1.584  28.144  0.0238 -0.1410 -0.0412
19779W        W20643  19.660  25.808  16.746 -0.0147 -0.1067 -0.0017
19780W        W20644  17.323  24.778  17.318  0.0239  0.2242 -0.0752
19781W        W20645   9.888  16.923   1.449 -0.0133 -0.1353 -0.2005
19782W        W20646  20.198  22.423   5.255  0.1711  0.1228  0.0761
19783W        W20647  26.081  16.518  15.261  0.3014 -0.0568  0.0223
19784W        W20648  20.296  15.022   9.603  0.0640 -0.0036  0.3143
19785W        W20649  25.352  11.535  24.222 -0.0380 -0.0333 -0.3167
19786W        W20650  14.929   8.385  14.026  0.0212 -0.4588 -0.1503
19787W        W20651  11.127   0.493   5.011  0.1833 -0.1046  0.4085
19788W        W20652  24.076   6.072  13.246  0.1258  0.4307  0.1401
19789W        W20653  22.801  22.349  19.917 -0.0148  0.2505  0.0650
19790W        W20654   1.465  20.098   7.419 -0.0125 -0.2968 -0.0548
19791W        W20655   5.158   4.954  22.073  0.0733  0.0043  0.3264
19792W        W20656  11.288  10.754   9.148  0.1778 -0.0115 -0.2744
19793W        W20657  21.417  29.006  25.761  0.1398 -0.0862  0.0874
19794W        W20658  11.957   5.514  14.747  0.0332  0.0840  0.0142
19795W        W20659  14.657   7.322  28.722 -0.2158  0.0988  0.3344
19796W        W20660  27.052  10.711   9.630  0.1767 -0.2173 -0.3703
19797W        W20661  11.681   3.101  19.126 -0.0627 -0.1378 -0.0381
19798W        W20662  10.640  16.279   9.117 -0.0746  0.1265  0.4492
19799W        W20663  14.508  11.750  25.964  0.1928 -0.0868 -0.1843
19800W        W20664  11.166   3.489   5.776  0.0751  0.3176  0.1013
19801W        W20665  10.387  28.825  14.608 -0.0917  0.1355  0.2678
19802W        W20666   0.904  24.345  16.981  0.3262  0.0228  0.1073
19803W        W20667  11.185  16.554  10.948  0.3109 -0.0072 -0.0816
19804W        W20668   7.390  16.560  21.535  0.1984 -0.2208 -0.0837
19805W        W20669  16.094   1.395  19.299 -0.0861 -0.1327 -0.2663
19806W        W20670  20.785  18.855   7.127 -0.0173 -0.2643 -0.1174
19807W        W20671   7.310  22.318   3.324  0.3495  0.1916 -0.1819
19808W        W20672  13.845  16.518  25.189  0.1631  0.1623  0.0185
19809W        W20673  26.237   2.232  18.031 -0.1163  0.1957  0.2649
19810W        W20674  17.108  11.828  12.214  0.1555 -0.0039 -0.2861
19811W        W20675   8.356  20.739  10.456 -0.2329  0.1048  0.2492
19812W        W20676  22.116  28.673   3.581 -0.1539 -0.1702  0.0077
19813W        W20677  28.207   7.029   1.180 -0.0295 -0.1499 -0.3137
19814W        W20678  22.941  14.347   0.066  0.0490  0.2188  0.0178
19815W        W20679  13.606  11.149  28.665  0.1316 -0.1165 -0.1139
19816W        W20680  18.901   2.657  27.419 -0.2056 -0.0845 -0.2946
19817W        W20681  12.133  14.701  14.130 -0.2888  0.0897  0.0883
19818W        W20682   9.215  23.733   8.825  0.1536  0.0382 -0.0909
19819W        W20683   3.346   8.017   5.432  0.0911  0.0759 -0.2739
19820W        W20684   5.600  13.573  14.086 -0.1479  0.0593 -0.1277
19821W        W20685  28.569   0.579   3.053 -0.1346  0.3788 -0.0774
19822W        W20686  23.817  27.183  15.100 -0.0650  0.2330 -0.2124
19823W        W20687  22.383  15.962  10.002 -0.1912  0.1017  0.1412
19824W        W20688  14.971   8.511  12.049 -0.0956  0.0624 -0.0002
19825W        W20689  12.338   6.746  26.910 -0.0337 -0.1188  0.1784
19826W        W20690  21.202  19.814  18.720  0.2997 -0.1217 -0.0364
19827W        W20691  20.067  14.863  13.003 -0.1061  0.4094 -0.0442
19828W        W20692  20.916  13.941   7.753 -0.0414 -0.0952  0.0706
19829W        W20693  25.621   1.567  20.399 -0.2116  0.2419  0.0035
19830W        W20694  17.403  23.915  20.785  0.0175 -0.0405 -0.0498
19831W        W20695  23.899   0.811  14.348  0.1866  0.0527 -0.1402
19832W        W20696  18.593  26.518   3.651 -0.1405  0.3540 -0.1038
19833W        W20697   1.858  26.208  10.136  0.0833  0.1227  0.2151
19834W        W20698   6.494  13.603  17.336  0.0874  0.2125 -0.1401
19835W        W20699  14.995  13.440   1.300 -0.1533 -0.0654  0.2766
19836W        W20700  20.594  18.020  16.847  0.4153  0.1247  0.0672
19837W        W20701  28.343  19.066  12.437  0.2037  0.0148  0.0044
19838W        W20702  13.635  21.417  13.308  0.2739 -0.0708  0.2108
19839W        W20703   7.524   6.295   3.064  0.1249 -0.3092 -0.1289
19840W        W20704  28.202   3.870  16.964 -0.1147 -0.2749  0.0685
19841W        W20705   9.338   0.024   7.919 -0.2225 -0.2647 -0.0453
19842W        W20706  29.116  18.152   3.451 -0.2468  0.0921 -0.2297
19843W        W20707   7.438  19.705  25.982 -0.0161 -0.2325 -0.1452
19844W        W20708  20.924  20.788  27.336 -0.1126  0.2304 -0.0203
19845W        W20709   6.707  26.382  12.130 -0.1272 -0.3561 -0.4940
19846W        W20710  24.152  23.333  18.039  0.1500  0.2196 -0.0802
19847W        W20711  11.996   0.776  26.059 -0.2805  0.0852  0.0124
19848W        W20712  22.137  28.769  21.382  0.2181  0.1866  0.2087
19849W        W20713  28.088  23.809   5.606  0.0924  0.0309 -0.0387
19850W        W20714  15.130  23.086  21.702 -0.2249  0.0594  0.1054
19851W        W20715   0.919   7.705  10.337 -0.0679  0.0401  0.2052
19852W        W20716  11.849   1.986  12.362  0.1452  0.1745 -0.0161
19853W        W20717  12.337   7.979  16.632  0.3014  0.1471 -0.0783
19854W        W20718  25.452  23.146  27.060  0.0283 -0.2401  0.4994
19855W        W20719   1.524   6.233  14.993 -0.1048  0.2262 -0.1600
19856W        W20720  12.294   3.970  16.867 -0.0626  0.3428  0.2301
19857W        W20721   3.352  23.612  10.035  0.1379 -0.2325  0.1748
19858W        W20722   1.666  21.024   4.680 -0.0335 -0.3220  0.0746
19859W        W20723  11.200   6.483  22.902 -0.3799 -0.1643  0.0529
19860W        W20724  22.269  18.925  26.528  0.0878  0.2369 -0.1071
19861W        W20725  22.892  24.294  20.839 -0.0497 -0.2156 -0.2020
19862W        W20726   0.558  18.410  12.668 -0.0810 -0.1198  0.4234
19863W        W20727  12.426  21.802  18.773  0.0720  0.0380 -0.2630
19864W        W20728  27.960  13.068  19.208 -0.0454  0.0238  0.0933
19865W        W20729  17.582  25.815  24.399 -0.0381  0.0162  0.4478
19866W        W20730  22.595  20.653   4.019  0.0316  0.0506 -0.1016
19867W        W20731  27.772  10.764  13.028  0.4189 -0.0638  0.0657
19868W        W20732   1.261  27.017  22.783  0.2077  0.1243 -0.0087
19869W        W20733  16.741  29.086  20.291  0.0992 -0.3496 -0.2921
19870W        W20734  17.026   8.963   2.174 -0.0167  0.1709 -0.0220
19871W        W20735   9.104  17.377   7.382  0.1854 -0.2979 -0.0192
19872W        W20736  22.697   7.984  22.057 -0.1122  0.0548  0.3785
19873W        W20737  14.429  22.143  28.857 -0.0011  0.0157  0.1781
19874W        W20738  16.311  15.219   0.846  0.0207 -0.1237 -0.1059
19875W        W20739  19.565   0.949  19.992  0.1810 -0.0920 -0.0883
19876W        W20740   8.398   3.309   7.369 -0.0599 -0.0695 -0.1228
19877W        W20741  17.336  11.576  25.692 -0.1109 -0.2251  0.0963
19878W        W20742  28.292   6.125   7.796 -0.1147  0.1773 -0.0872
19879W        W20743  18.103   6.125  22.270  0.2682  0.3804  0.1862
19880W        W20744  15.175  18.003  11.223 -0.0081  0.3085 -0.1765
19881W        W20745   5.670  27.351   7.122 -0.0822  0.0774 -0.0535
19882W        W20746  15.210  25.866  12.222  0.2901 -0.1608  0.1347
19883W        W20747  17.502  21.155   9.377 -0.2171 -0.0410  0.2196
19884W        W20748  23.927  18.747  13.016 -0.0134 -0.2455 -0.2268
19885W        W20749  12.358   2.101  15.134  0.2948  0.0019  0.2728
19886W        W20750  22.810  13.533   3.933  0.1492 -0.0924  0.3822
19887W        W20751  17.211  16.840  17.849  0.1817 -0.2636 -0.1365
19888W        W20752  14.719   9.840   2.290  0.4186  0.0545 -0.0037
19889W        W20753  11.894  12.692   8.258 -0.2273  0.1809 -0.0454
19890W        W20754  25.223   4.013  14.657  0.0071 -0.1057 -0.1390
19891W        W20755  13.290  24.244   8.715 -0.1586  0.1419 -0.1251
19892W        W20756  12.485  17.599  26.061  0.2244 -0.0844  0.0190
19893W        W20757  26.883  24.602  24.808 -0.2924  0.0833  0.2774
19894W        W20758   3.278  20.374  20.527 -0.2290  0.1373  0.1945
19895W        W20759   8.943  20.979  18.134  0.0227  0.2031  0.1094
19896W        W20760  24.470  26.109   6.386 -0.2132  0.0633  0.1400
19897W        W20761  11.732  21.523  25.190  0.0821  0.0745  0.0577
19898W        W20762  27.540  19.519  21.703  0.0145  0.1189  0.0888
19899W        W20763  17.117  25.754   6.996 -0.2246 -0.2426 -0.4680
19900W        W20764  19.650  17.024   0.387  0.3014 -0.3236  0.0294
19901W        W20765  16.570  19.334  13.446 -0.0468 -0.2033 -0.2951
19902W        W20766  13.424  25.040   4.006  0.0434  0.0385 -0.0292
19903W        W20767  18.435  11.931   4.487 -0.2351  0.0170  0.0906
19904W        W20768  13.029  27.286  12.799  0.3243  0.1356  0.2977
19905W        W20769  10.252  19.067  16.953 -0.1302  0.2619  0.2087
19906W        W20770  14.674  11.789  20.274 -0.0735 -0.2266 -0.1555
19907W        W20771   7.018   0.786  12.078  0.2687  0.0162  0.2918
19908W        W20772   8.670   7.523  15.943 -0.1003 -0.2045 -0.1433
19909W        W20773  15.705  26.263   0.497 -0.1681 -0.1080  0.0042
19910W        W20774  24.379  12.358  18.331  0.4549  0.2410 -0.1193
19911W        W20775   0.794  24.452   6.573  0.0045 -0.0099  0.1850
19912W        W20776   3.816  22.990  10.523  0.0704 -0.1335 -0.1570
19913W        W20777  21.538  19.592   3.585 -0.0319  0.0833 -0.2288
19914W        W20778  18.581  17.244  15.381  0.3776 -0.2236 -0.1283
19915W        W20779  20.557  21.838  13.247  0.1076  0.0458  0.1718
19916W        W20780  14.054  20.193   6.253  0.1546 -0.2986 -0.1517
19917W        W20781  17.612  19.891   0.783 -0.1995 -0.0685 -0.2671
19918W        W20782   7.585  19.273   4.759 -0.0977 -0.0629 -0.0321
19919W        W20783   4.398   8.490  23.730  0.0668  0.0046 -0.0100
19920W        W20784   1.124  23.345  24.116 -0.2432  0.2250 -0.0499
19921W        W20785  28.591  17.510  15.833 -0.0333 -0.1016  0.0214
19922W        W20786  21.486  26.845  19.444 -0.1551  0.1399  0.1635
19923W        W20787  19.387  23.285  10.331  0.0102 -0.0042  0.2182
19924W        W20788   8.369  11.242  14.947  0.0534 -0.2301  0.1528
19925W        W20789  18.066   2.549  19.075 -0.4222  0.0153  0.3694
19926W        W20790  26.067   3.885   4.441  0.2613 -0.2826 -0.1461
19927W        W20791   4.438  24.782  14.762 -0.0446  0.1499  0.0467
19928W        W20792   0.561   0.545  28.958  0.1489  0.1387  0.0292
19929W        W20793  11.010  28.244  10.371 -0.1749 -0.2922 -0.0932
19930W        W20794   9.023  15.585   9.614 -0.0825  0.0621  0.0296
19931W        W20795   1.599  28.891   9.627 -0.1163  0.0757 -0.1138
19932W        W20796   6.387  13.322   3.091 -0.1723 -0.1174 -0.0333
19933W        W20797   5.939  10.813  10.161  0.0655  0.2089  0.0701
19934W        W20798  23.790   0.384  22.002  0.0519  0.1023 -0.0325
19935W        W20799  17.346   8.957   5.467  0.1344  0.1163  0.0058
19936W        W20800  16.086  26.988  18.425 -0.3075 -0.0437 -0.2542
19937W        W20801   3.523  25.446  12.996 -0.2982  0.0593 -0.1121
19938W        W20802  11.701   2.659   0.320  0.1008  0.1914  0.0350
19939W        W20803  10.002  16.599  22.998 -0.0717  0.3254  0.0001
19940W        W20804  22.852  17.312  18.049 -0.0160 -0.3535  0.0155
19941W        W20805  10.363  20.382  16.383  0.2453  0.0674  0.0863
19942W        W20806  28.427   6.568  15.966 -0.3566  0.0960  0.1154
19943W        W20807  19.684  21.842   6.693  0.1084 -0.0473 -0.0460
19944W        W20808  24.184   0.458   8.463  0.3741 -0.0489  0.0533
19945W        W20809  17.919   1.639  18.035 -0.0644  0.1367 -0.0061
19946W        W20810   7.875  10.382   0.615  0.0701  0.2702 -0.3578
19947W        W20811  12.451  24.389   4.737 -0.5510  0.0034 -0.0420
19948W        W20812  16.007  18.826  18.255 -0.0349 -0.2065  0.0526
19949W        W20813  14.686  27.259  28.386  0.0555  0.0166 -0.3342
19950W        W20814  18.404  16.514   4.856  0.1496 -0.2750 -0.3732
19951W        W20815  28.449  28.917   7.672  0.2070 -0.5163 -0.2957
19952W        W20816  26.319   2.294  21.215 -0.0220  0.0143 -0.0381
19953W        W20817  15.699   9.352   4.060 -0.0806  0.0486 -0.0539
19954W        W20818  23.631  26.085   2.422  0.0899 -0.3331 -0.2158
19955W        W20819  26.305  20.847   8.035 -0.0701 -0.1068  0.0144
19956W        W20820  18.963  22.152  26.327 -0.2474 -0.2520  0.0634
19957W        W20821   9.594   7.899   2.230 -0.0472 -0.4000  0.2243
19958W        W20822  19.664   7.435  13.359 -0.4053 -0.0311 -0.0497
19959W        W20823  10.609  17.534   5.793  0.0082 -0.2970  0.2677
19960W        W20824  13.674  17.291  12.227 -0.1964 -0.0694  0.2168
19961W        W20825  26.570  19.978   5.377  0.2262 -0.0639  0.2218
19962W        W20826  10.343   2.461   9.706 -0.0256 -0.0782 -0.0105
19963W        W20827  16.376   8.647   4.886  0.0612  0.0285  0.0613
19964W        W20828  10.510  23.912  22.185 -0.0326 -0.0659  0.2737
19965W        W20829  24.419   5.068  12.526 -0.0990  0.0949  0.0667
19966W        W20830  19.787  22.863  17.727 -0.0688  0.1014  0.1018
19967W        W20831  11.857  15.892   9.989 -0.0974  0.1226 -0.1186
19968W        W20832   0.689  18.997   1.928 -0.1738 -0.0970  0.0199
19969W        W20833  27.718  14.201   4.419  0.3092  0.2830 -0.2678
19970W        W20834   2.814  17.914  14.646  0.1998 -0.0709 -0.0959
19971W        W20835   6.874  20.409  26.855 -0.0338 -0.3500  0.1617
19972W        W20836  14.640  22.172   5.283  0.1284  0.1736  0.0745
19973W        W20837   2.133   5.542   5.342  0.1358 -0.0792 -0.1342
19974W        W20838   0.619   2.902   9.688  0.0090 -0.1875  0.1883
19975W        W20839  12.320  27.297  24.792 -0.0228  0.2149  0.0233
19976W        W20840  22.154  16.642  24.420 -0.0863 -0.2507 -0.3035
19977W        W20841   6.989  19.820  28.207  0.2095  0.0304  0.0081
19978W        W20842  24.738  19.525   8.634  0.0782 -0.0597  0.1281
19979W        W20843  19.539   7.942   8.337 -0.1509  0.0673 -0.0116
19980W        W20844   0.366  10.966  14.698  0.0613 -0.0095 -0.4061
19981W        W20845  19.990   6.198  15.275  0.2940 -0.1164  0.2949
19982W        W20846  16.447   9.799  25.007  0.0140 -0.3216 -0.0262
19983W        W20847  13.939  14.586  26.261  0.0438  0.2513 -0.0456
19984W        W20848  25.355  23.130  14.451 -0.1020 -0.0373 -0.2052
19985W        W20849   8.578  10.408  22.364  0.1318 -0.0586 -0.2069
19986W        W20850  20.304  18.749  10.268 -0.2212 -0.1228  0.1361
19987W        W20851  11.526  21.837  14.420 -0.2783  0.0104 -0.0688
19988W        W20852  15.522  19.936  27.475 -0.2030 -0.2107  0.0560
19989W        W20853  26.988   7.364  17.121  0.3252  0.0125  0.1039
19990W        W20854  19.604  10.149   2.155  0.1945  0.1498 -0.0830
19991W        W20855  20.459   3.607  18.175  0.1880  0.1074 -0.2885
19992W        W20856   8.044   2.859   3.301  0.1574  0.1490  0.0876
19993W        W20857  22.165  15.346  13.681 -0.3978 -0.1570  0.0646
19994W        W20858  22.668  21.043   1.422  0.0680  0.2029  0.0744
19995W        W20859   4.600  13.572  16.129 -0.1476 -0.1698  0.1547
19996W        W20860  17.778  21.356  22.375 -0.0957  0.0718  0.2975
19997W        W20861  11.654  25.907  20.754 -0.4683  0.0070 -0.2314
19998W        W20862  25.814   7.304  19.334  0.1967 -0.2641 -0.1925
19999W        W20863   1.047   2.903  27.735  0.0583 -0.1128 -0.2375
20000W        W20864   8.656   4.653   4.725 -0.1845  0.0626  0.0143
20001W        W20865  22.472   2.223  16.426  0.0361  0.4138  0.1299
20002W        W20866  20.854  19.103  23.127 -0.1251  0.2258 -0.2182
20003W        W20867  16.267  21.532  10.829 -0.0745  0.0588 -0.1740
20004W        W20868   3.823   8.573  14.311  0.0894 -0.0176 -0.0045
20005W        W20869  22.305  14.393   8.435 -0.1572 -0.0575  0.4978
20006W        W20870   3.133  20.502  23.354  0.0236 -0.0048 -0.1072
20007W        W20871   4.706   3.172   2.998  0.1095 -0.1548  0.4087
20008W        W20872  25.688   2.047  14.020  0.1404  0.0253  0.2743
20009W        W20873  15.668  12.759  28.600 -0.0608 -0.1111  0.0102
20010W        W20874  13.807   5.479  21.675 -0.1518 -0.0010 -0.0859
20011W        W20875  10.014  23.135   1.963 -0.1583  0.2872 -0.1788
20012W        W20876   8.471  14.205  25.749  0.1420 -0.0285 -0.2990
20013W        W20877  27.834  25.298   7.470 -0.2274  0.3050  0.1664
20014W        W20878  16.582  13.132   6.511  0.0628  0.2407  0.2761
20015W        W20879  14.141  17.925  14.448 -0.0924  0.1345  0.0626
20016W        W20880  25.497  29.119  25.005  0.2287 -0.0101  0.3228
20017W        W20881  15.106  10.631   8.641 -0.0715  0.2063 -0.3857
20018W        W20882   2.035  27.617   8.908  0.2061  0.2532  0.0745
20019W        W20883  17.622  23.907   0.016  0.2059 -0.1402  0.0150
20020W        W20884   4.337  24.424   0.938  0.2498  0.3958 -0.2448
20021W        W20885  26.968  26.787  10.712 -0.3465  0.1555 -0.1978
20022W        W20886   7.119  18.742  19.502 -0.1127 -0.0308 -0.0378
20023W        W20887  25.727  22.054   6.969 -0.0057 -0.3348  0.2711
20024W        W20888  17.890  13.417  11.133  0.1022 -0.1951  0.1820
20025W        W20889   8.284   1.375  12.985  0.3746 -0.1307  0.3274
20026W        W20890  14.469   4.306   0.038  0.3634 -0.0841  0.3347
20027W        W20891  15.826  13.232  17.835  0.0376  0.1033  0.1597
20028W        W20892  18.867  27.292  27.334  0.2240  0.3153  0.1652
20029W        W20893  18.299  19.440  23.531 -0.0466 -0.1673  0.1009
20030W        W20894   7.843  15.161  16.385 -0.1594  0.1992 -0.0593
20031W        W20895  11.035  18.814  10.704 -0.1544  0.0367  0.0063
20032W        W20896  21.713  17.179   6.789 -0.0959 -0.0353  0.1755
20033W        W20897  13.725  12.325  12.281 -0.3194 -0.1622 -0.1908
20034W        W20898  17.618  19.566  19.502 -0.2382  0.1602 -0.1939
20035W        W20899  27.088   0.672   3.828 -0.2262 -0.1363 -0.2417
20036W        W20900  15.431  22.054  19.084  0.1153 -0.0567  0.2136
20037W        W20901  26.152   1.924   9.691 -0.1059  0.1938 -0.2768
20038W        W20902   5.740  24.520  15.837 -0.1053  0.0554 -0.3117
20039W        W20903  21.219  24.831   8.595  0.0074  0.0243  0.2044
20040W        W20904  14.138  22.809  16.556  0.2860  0.3190 -0.2220
20041W        W20905  25.155  19.770   3.149  0.1145 -0.2839  0.1607
20042W        W20906   4.163  19.165  12.861 -0.0219  0.0446 -0.1379
20043W        W20907  22.743   0.972  22.304  0.0297 -0.2145  0.0432
20044W        W20908  25.105  14.792  23.616 -0.4604  0.2233  0.4692
20045W        W20909  22.273   7.299  12.774 -0.0056  0.1404 -0.1205
20046W        W20910  27.507  27.742   3.850 -0.0819 -0.2321 -0.0722
20047W        W20911  29.007  22.452   3.794  0.2354  0.2160 -0.0909
20048W        W20912  19.512  12.231  24.229  0.1835  0.0124 -0.0206
20049W        W20913  11.571  24.842   2.319  0.2854 -0.2608  0.3603
20050W        W20914  12.142  22.765  12.312  0.1641 -0.0165  0.1619
20051W        W20915  27.476   1.192  26.059 -0.2821  0.3413  0.1539
20052W        W20916  15.980  20.404  13.331  0.1504  0.3004 -0.0657
20053W        W20917  13.054  26.793  11.704 -0.0394  0.1662  0.4808
20054W        W20918  11.605   3.678  25.453  0.0031 -0.1151 -0.2039
20055W        W20919  26.174  25.109   4.744 -0.1006 -0.0759 -0.2525
20056W        W20920  19.314  26.619   1.530  0.0854  0.0478 -0.2615
20057W        W20921  18.784  16.190   5.076  0.0471 -0.2392 -0.0728
20058W        W20922  11.858   5.363   5.952  0.0911 -0.2815 -0.2837
20059W        W20923  17.955  12.790   4.945  0.0136  0.0597  0.2604
20060W        W20924  23.570  27.424  27.693 -0.2996 -0.0811 -0.1305
20061W        W20925  14.422  16.734   9.088 -0.2941 -0.1047 -0.1823
20062W        W20926  16.732   5.373  28.472  0.0958  0.1873 -0.2307
20063W        W20927  10.317  25.537  19.262 -0.2853 -0.3093  0.1622
20064W        W20928  20.910  14.832  19.740  0.0683 -0.1053 -0.0106
20065W        W20929  17.392   6.103  19.501 -0.0866 -0.1886 -0.1086
20066W        W20930   8.513  11.160  23.319 -0.1926 -0.1344 -0.0497
20067W        W20931   8.614  11.193   3.570  0.0619 -0.3866 -0.2455
20068W        W20932  20.656   2.362  23.946 -0.1196 -0.3524  0.2018
20069W        W20933  22.038  19.355  17.602 -0.0651  0.3640 -0.0963
20070W        W20934  14.471   6.151   4.875  0.1391 -0.1036 -0.1769
20071W        W20935   9.905  18.497  23.148 -0.3885 -0.0002  0.0810
20072W        W20936   0.380  14.167  13.928  0.1980  0.0813 -0.0753
20073W        W20937   7.538   3.603   6.063 -0.1199 -0.1681  0.0680
20074W        W20938  11.468  25.229  27.055  0.2503  0.0373  0.1124
20075W        W20939   3.342  19.890   6.672 -0.0214  0.1606 -0.1835
20076W        W20940  17.652   1.750  13.108 -0.0483  0.2668 -0.0101
20077W        W20941   6.663  23.620  15.328  0.0832 -0.0346 -0.2815
20078W        W20942  11.397  24.458  21.276 -0.0218 -0.1927 -0.0957
20079W        W20943   3.370  17.076  21.559 -0.1757 -0.1182 -0.2642
20080W        W20944  11.147   4.244   8.157  0.1274 -0.3070  0.1465
20081W        W20945  12.162   8.867  17.678 -0.0227 -0.0688  0.1840
20082W        W20946  22.311  18.615  16.415 -0.4063 -0.1900  0.0771
20083W        W20947  16.985  26.428   6.486  0.0226  0.3902  0.2363
20084W        W20948  17.423  26.137   8.648 -0.3358 -0.0552  0.0601
20085W        W20949  22.699  24.655  17.802 -0.0497  0.0424 -0.0857
20086W        W20950   1.100  15.210  15.341  0.0620 -0.0432 -0.1089
20087W        W20951  15.926  18.241  16.060 -0.2430 -0.0479  0.0391
20088W        W20952   7.006  13.413  12.075  0.1502  0.3920 -0.2130
20089W        W20953  17.019  18.261  15.159  0.0991  0.2551 -0.3917
20090W        W20954   3.007  11.555  25.950 -0.1877  0.2226  0.2272
20091W        W20955  16.076   9.413   2.978  0.1067  0.0360  0.1443
20092W        W20956  20.473  22.495  17.665  0.2464  0.0564  0.2189
20093W        W20957   8.339  22.541   3.596  0.0988 -0.1776  0.1650
20094W        W20958  10.642  24.262   8.585 -0.0569  0.1378 -0.3083
20095W        W20959  10.118   5.164  18.359  0.1716 -0.2415 -0.1369
20096W        W20960  18.460   6.615  15.384 -0.0084 -0.1001 -0.0651
20097W        W20961  13.703  21.106  23.082  0.1527  0.2103 -0.0358
20098W        W20962  23.550   3.363  12.684  0.3555  0.2243 -0.2791
20099W        W20963   9.849  13.293  21.173 -0.0890  0.3668 -0.0370
20100W        W20964   3.089   5.952   0.685  0.2404 -0.2456  0.0418
20101W        W20965   5.832   0.148  10.157  0.1751 -0.1391  0.1831
20102W        W20966  12.594   8.172   0.689  0.0495 -0.0207 -0.3683
20103W        W20967   7.434   4.352  28.678  0.1247  0.0531 -0.0088
20104W        W20968  11.030  20.705  22.774  0.1721  0.1256 -0.1980
20105W        W20969  17.414  14.740   6.423  0.0750 -0.0123 -0.1318
20106W        W20970   2.869  27.443  14.859 -0.1268  0.0794  0.1206
20107W        W20971   5.492  22.793  24.347 -0.1653  0.2529 -0.0411
20108W        W20972  19.281   0.408  19.462  0.4093  0.0543 -0.2601
20109W        W20973  12.969  25.867  16.615 -0.1782 -0.4107 -0.1311
20110W        W20974  19.693  24.127  17.113  0.0970  0.0789  0.2263
20111W        W20975   8.591   3.768  12.908 -0.4715  0.2245 -0.0976
20112W        W20976  20.041  23.074  11.584  0.4280  0.0335  0.0248
20113W        W20977   4.043   2.143   7.208 -0.0441  0.1564  0.0144
20114W        W20978  13.436  23.282   8.548  0.1950 -0.1264 -0.0690
20115W        W20979  16.094  10.479  22.869  0.1913  0.0641 -0.3169
20116W        W20980   4.965  18.075  12.067  0.0666  0.0425  0.1421
20117W        W20981   8.229   4.663  16.767 -0.1398  0.0827 -0.0408
20118W        W20982   6.185  15.137   8.118 -0.1164  0.0405 -0.0229
20119W        W20983  11.976  18.286  17.618 -0.0985  0.2303  0.0428
20120W        W20984  12.238  23.722  28.228  0.1729  0.0814 -0.0257
20121W        W20985   8.039   0.357   7.795 -0.0340  0.0835 -0.1056
20122W        W20986  28.641  14.394   0.447  0.0910  0.0557 -0.0624
20123W        W20987  13.000  16.842   5.659  0.1138 -0.0382  0.1345
20124W        W20988  14.014  23.738  16.835 -0.1382  0.0558 -0.0532
20125W        W20989  15.788   9.843  12.516 -0.2851 -0.0959  0.1050
20126W        W20990  22.898  22.285  16.510 -0.1046 -0.0691  0.1607
20127W        W20991  25.318  14.292  19.370 -0.0310  0.2204  0.0053
20128W        W20992   6.920  20.861  16.141 -0.1029  0.0131 -0.0113
20129W        W20993  16.368   1.623   9.284  0.1242  0.0636  0.2775
20130W        W20994  12.001  27.485  22.372 -0.2737 -0.1374 -0.3793
20131W        W20995  14.883  12.073  11.292  0.4772 -0.1303  0.1981
20132W        W20996  22.956  28.656  17.704  0.0447 -0.0422  0.0870
20133W        W20997  19.173   1.171   0.013 -0.0859  0.1031 -0.0053
20134W        W20998   6.061  25.825   5.846  0.3477  0.1325 -0.0022
20135W        W20999  16.040  15.439  13.324 -0.0070  0.2475  0.1495
20136W        W21000  21.754  23.238   6.154 -0.1785 -0.1174 -0.3095
20137W        W21001  10.147   0.169   9.846  0.0003 -0.0076  0.3426
20138W        W21002  11.820  28.204  14.310 -0.1158  0.0889  0.0085
20139W        W21003  12.548  23.436   4.650 -0.0521  0.1032 -0.0655
20140W        W21004  17.677   6.323  16.052 -0.0936  0.3580 -0.1116
20141W        W21005   4.512  10.160  14.613  0.0976 -0.0580  0.2084
20142W        W21006  18.885  19.726  28.884  0.0537 -0.2209 -0.3996
20143W        W21007  12.267   8.599   7.859 -0.1624 -0.0725 -0.0120
20144W        W21008  13.346  22.509   4.058 -0.3056 -0.1517  0.1503
20145W        W21009  11.848  17.128  18.124  0.1279 -0.0008  0.0923
20146W        W21010  22.460  25.305  28.253  0.3184 -0.0171  0.0479
20147W        W21011  14.920  26.247  13.791 -0.0236  0.2225 -0.1282
20148W        W21012  15.407  11.864  14.406  0.0057 -0.0674 -0.1548
20149W        W21013  17.657  23.339  11.795  0.1606 -0.0775 -0.1630
20150W        W21014  26.133  22.885   0.355  0.0728  0.0468  0.0451
20151W        W21015  16.241  27.464  13.316  0.0556 -0.1190  0.3322
20152W        W21016  13.007  25.530  15.161  0.0941  0.1973 -0.3008
20153W        W21017  19.541  10.661  13.669 -0.2921 -0.1597  0.0583
20154W        W21018  15.109  21.794  12.495  0.0237 -0.0049 -0.0437
20155W        W21019  10.463  20.220  11.212  0.1059 -0.0271  0.2129
20156W        W21020   8.792  12.420  22.109  0.1265 -0.3058 -0.2375
20157W        W21021   9.435  22.987   6.517 -0.1918  0.2382  0.2088
20158W        W21022   8.717  16.325  10.749 -0.0118 -0.0720 -0.2742
20159W        W21023  29.120  27.518   9.480 -0.2190  0.0462 -0.1887
20160W        W21024  11.187  24.916  21.433 -0.2539  0.2013  0.0972
20161W        W21025  17.196  14.158  20.250  0.1257  0.0283  0.1262
20162W        W21026  17.055   2.047   6.159 -0.1206  0.3559 -0.1830
20163W        W21027   2.067  12.307  13.935  0.0281 -0.0237  0.1362
20164W        W21028  20.082  24.941  15.125  0.2907 -0.3362 -0.0495
20165W        W21029  27.847  19.608  21.297  0.0221 -0.1362  0.0350
20166W        W21030  21.179  21.367  11.993 -0.3098  0.0274 -0.0443
20167W        W21031  20.902  15.987  16.680  0.1487  0.1258 -0.0141
20168W        W21032   9.610  28.165  21.824  0.5513 -0.1033  0.2115
20169W        W21033  12.929  25.700   2.275 -0.2010  0.1412  0.0080
20170W        W21034  18.965  24.273  18.810 -0.0053  0.1368  0.0771
20171W        W21035  22.853   6.369  25.286 -0.2437 -0.3247 -0.2329
20172W        W21036   1.051   8.301   5.977  0.0091  0.1908  0.2466
20173W        W21037  10.498  19.897  14.777  0.1695  0.1182 -0.0817
20174W        W21038  17.900  24.552  12.442 -0.1285 -0.1986  0.3673
20175W        W21039   7.753  27.118  14.049  0.1334  0.0260  0.0098
20176W        W21040   9.962   1.572  17.139  0.2251  0.1011 -0.3637
20177W        W21041   7.472  22.559   9.811 -0.2328 -0.0056 -0.0281
20178W        W21042   1.954  27.208  17.128  0.1305 -0.0061  0.1673
20179W        W21043  25.623  22.437  16.387 -0.0251 -0.0774 -0.4546
20180W        W21044   1.625  10.705   7.692  0.0166  0.0684 -0.0682
20181W        W21045  27.877  24.119   7.153 -0.0923 -0.1534 -0.2660
20182W        W21046  23.462  26.754  12.206 -0.1189  0.1169  0.4457
20183W        W21047  22.090   3.763  21.562 -0.2151  0.3741 -0.0850
20184W        W21048  24.154  16.669  28.479 -0.1581 -0.0760  0.0708
20185W        W21049  19.067  15.189   4.246 -0.0193  0.2102 -0.1172
20186W        W21050  28.649  19.078   6.582  0.0357  0.1112 -0.1451
20187W        W21051  21.832   5.673  26.053  0.0033 -0.0144  0.0235
20188W        W21052   9.374   6.399  21.261  0.0863  0.1057 -0.2804
20189W        W21053  20.034   3.268   7.696 -0.0512 -0.0495 -0.1462
20190W        W21054  20.749  18.092   4.425 -0.2511 -0.0923 -0.0933
20191W        W21055  15.782  24.706  10.019 -0.1305 -0.1084 -0.2266
20192W        W21056  13.154  26.609  14.282  0.4049  0.2232 -0.0847
20193W        W21057  20.922   7.090  12.996 -0.1049 -0.3598 -0.1320
20194W        W21058   2.688  17.633  12.581  0.0932  0.1083  0.0835
20195W        W21059  19.915   8.496   7.246  0.1640 -0.1286  0.0783
20196W        W21060   8.295   9.759  15.952 -0.2095  0.1153  0.0718
20197W        W21061  18.664   2.922  13.877 -0.1707  0.2149  0.5145
20198W        W21062   6.855   0.571  19.210 -0.0584  0.1857  0.0353
20199W        W21063  11.665  19.802  14.160  0.2628  0.0208  0.3217
20200W        W21064   8.935  12.973  14.858  0.2586 -0.1096 -0.0918
20201W        W21065  18.540  19.260   0.029 -0.1521 -0.2437  0.0454
20202W        W21066  12.899  24.708   4.543  0.2667  0.2774  0.0505
20203W        W21067  22.802  10.702   8.008 -0.2287  0.2065 -0.0774
20204W        W21068  12.711   5.538  10.460  0.0835  0.2302 -0.0823
20205W        W21069  25.862   8.229  15.925  0.1824 -0.0032  0.2782
20206W        W21070  14.595  11.107  13.289  0.1062 -0.3803  0.1456
20207W        W21071   0.056   8.108  27.117 -0.1094 -0.0627  0.2704
20208W        W21072   8.409  15.955  28.152  0.1187  0.1175  0.0109
20209W        W21073  25.013  25.399  14.033 -0.0059  0.2259 -0.1543
20210W        W21074  22.558  27.818   0.607 -0.4960  0.0441 -0.0444
20211W        W21075   1.453   8.957  26.372  0.0001  0.2333  0.1569
20212W        W21076  14.574  13.880  25.114 -0.1661  0.0920 -0.0548
20213W        W21077  13.034   4.642  16.884  0.0626  0.1199  0.0204
20214W        W21078  26.610   8.894  12.174  0.3073 -0.0439 -0.0578
20215W        W21079  24.664  19.320  18.272  0.0842  0.0976  0.3734
20216W        W21080  18.361  18.766  19.220 -0.0113 -0.1807 -0.0131
20217W        W21081   1.405   9.691  28.698  0.1083  0.1166 -0.1347
20218W        W21082  22.348  21.478   6.646  0.3301 -0.0289 -0.0272
20219W        W21083  17.557  10.134  23.573  0.1056  0.2175  0.1759
20220W        W21084  23.782  15.319  18.611 -0.4096 -0.0702 -0.2431
20221W        W21085  16.882  23.296   5.886  0.2480 -0.1221  0.0006
20222W        W21086  13.859  21.502  28.293 -0.1147 -0.4692  0.1099
20223W        W21087   8.265  18.725  14.492 -0.1303  0.1774  0.0433
20224W        W21088   0.056   7.912  22.245  0.1255 -0.2253 -0.1770
20225W        W21089  11.055   6.485  18.057  0.1089 -0.0831  0.2093
20226W        W21090  23.671  12.518   3.351 -0.1014 -0.2867  0.0355
20227W        W21091  25.030   7.277  18.653  0.3422 -0.0913 -0.0418
20228W        W21092   9.500   8.480  13.050  0.1611  0.3744 -0.2621
20229W        W21093  23.189  23.694   4.821 -0.0789 -0.1476  0.0120
20230W        W21094  14.019  22.012  20.279  0.0488  0.0771  0.1513
20231W        W21095   9.781  19.766   7.758 -0.0510 -0.1512 -0.2944
20232W        W21096  17.254  27.116   4.162  0.1361 -0.0513  0.0925
20233W        W21097  12.753  10.247  10.468 -0.0166 -0.1576  0.2694
20234W        W21098  13.000   2.630  21.631 -0.2767 -0.0629 -0.0463
20235W        W21099   5.445  13.906   9.250  0.1036  0.2807  0.1030
20236W        W21100  13.944  27.499   7.497  0.1120 -0.0979 -0.1585
20237W        W21101  15.357   5.802  12.088 -0.1741 -0.1069 -0.4307
20238W        W21102  12.129   2.685  13.841  0.0179 -0.0171 -0.0433
20239W        W21103  24.813  15.440   9.183 -0.0142  0.1325  0.2152
20240W        W21104  16.226   4.810  18.704  0.1932  0.1348 -0.0033
20241W        W21105  27.405  15.099   8.119 -0.1138 -0.2311 -0.2835
20242W        W21106  21.994  26.793  27.805  0.1598 -0.0368 -0.1507
20243W        W21107   7.355  11.765  20.976 -0.1853 -0.1528  0.0225
20244W        W21108   2.775   1.259  27.533  0.0274 -0.0043  0.0712
20245W        W21109  19.878  22.918  19.990 -0.0437  0.0662  0.3228
20246W        W21110   7.406   8.980   3.284 -0.1408  0.0887  0.0851
20247W        W21111  21.126  18.947   7.586 -0.0823  0.1159  0.2564
20248W        W21112  22.820  19.635  14.045 -0.0182 -0.1379  0.2615
20249W        W21113  22.078   8.481  20.839 -0.0091  0.0247  0.1517
20250W        W21114  19.616  29.000  15.469 -0.1074  0.1701 -0.2266
20251W        W21115  19.336   3.485  23.517 -0.0225  0.6019  0.0714
20252W        W21116  26.751   4.190  22.253  0.0712 -0.0351 -0.5218
20253W        W21117   4.527  10.774  10.852  0.0085  0.2133  0.0365
20254W        W21118  15.572  22.482   0.507  0.0457  0.1576 -0.1467
20255W        W21119  16.568  21.130   0.477  0.1916  0.0848 -0.0646
20256W        W21120  13.649  16.645  10.168 -0.1740  0.0198  0.0621
20257W        W21121   1.793  28.204  13.975  0.2180  0.1005  0.2039
20258W        W21122  19.687  25.028   9.798  0.2893 -0.1038  0.0359
20259W        W21123  12.739  11.641  28.505  0.7123  0.0701 -0.2871
20260W        W21124  13.479  20.321   6.191 -0.1701 -0.0814  0.0237
20261W        W21125  10.265  18.722  26.073 -0.3272  0.0506  0.0384
20262W        W21126  21.711   8.105  22.469 -0.0366  0.0673 -0.0203
20263W        W21127  10.181  24.722  25.742  0.1243  0.2403  0.0090
20264W        W21128   8.641   2.726  20.129 -0.1766 -0.1137  0.1288
20265W        W21129  12.447  25.313  28.374 -0.1022 -0.0406 -0.0793
20266W        W21130  16.065  10.268   1.285 -0.1146 -0.0555 -0.2476
20267W        W21131   3.621  19.083  24.026 -0.0542  0.3196 -0.0774
20268W        W21132  29.052   6.994   3.379  0.1387  0.3638  0.1413
20269W        W21133  14.500   8.026  18.753  0.1202  0.0930 -0.2782
20270W        W21134  25.215  12.097   4.354  0.0065 -0.2448  0.0851
20271W        W21135  22.143  21.171   8.968 -0.0202  0.1566 -0.0809
20272W        W21136  17.143   5.512   6.922 -0.2278  0.2745 -0.4286
20273W        W21137  24.481  13.129  20.573 -0.0960 -0.0856  0.1684
20274W        W21138   5.068  27.900  21.335  0.0445  0.0858  0.2240
20275W        W21139  13.591  23.549  16.649  0.1781  0.0659 -0.2135
20276W        W21140  24.050  28.029  15.604 -0.2972  0.2791 -0.0485
20277W        W21141   9.903   3.841   6.455 -0.0472  0.1297  0.4953
20278W        W21142  19.412  28.753  28.714 -0.0304  0.2279 -0.0902
20279W        W21143  13.989   9.007  14.391 -0.0565  0.2143  0.1252
20280W        W21144  21.022  18.757  14.343 -0.0742  0.1994  0.1447
20281W        W21145   5.830   8.967  17.464 -0.0952 -0.1671 -0.1272
20282W        W21146   3.866  23.771  12.224 -0.1126  0.3112  0.0367
20283W        W21147   0.915  12.028  11.647 -0.0459  0.1049  0.2471
20284W        W21148  17.799  23.899   9.045 -0.0051  0.2797  0.0167
20285W        W21149  11.764  24.647  22.604  0.0203 -0.1953 -0.0269
20286W        W21150  18.929  20.818  21.654  0.0671  0.2025 -0.0474
20287W        W21151   6.281  15.280  21.171 -0.0313 -0.5096  0.0494
20288W        W21152  12.527  14.002  25.435  0.0953  0.2978  0.0509
20289W        W21153  25.637  26.417  25.647 -0.1588 -0.0141 -0.1600
20290W        W21154   0.118  28.805  24.173 -0.2519 -0.2736  0.0650
20291W        W21155  17.115  19.596  14.708  0.1400  0.0519 -0.2469
20292W        W21156  16.722  13.293   7.502 -0.3120 -0.0633 -0.0931
20293W        W21157   1.224  24.344  19.288 -0.0861 -0.0806 -0.0493
20294W        W21158   9.251   2.094  23.046  0.0871 -0.0856  0.1182
20295W        W21159  11.451  25.412  23.340  0.2208  0.0173  0.0584
20296W        W21160  19.181   4.995  21.273 -0.2254  0.0606 -0.0692
20297W        W21161  16.380  12.433  21.647 -0.0167 -0.0081  0.2593
20298W        W21162  27.769  10.732   1.757  0.0755  0.1413 -0.2035
20299W        W21163   8.979  15.911  18.515  0.2130  0.1558  0.2681
20300W        W21164   9.215  12.454  10.426 -0.0936  0.0791 -0.2825
20301W        W21165  16.469  12.459  28.850  0.0250 -0.0561 -0.2279
20302W        W21166  27.157   5.699  28.742  0.0076  0.3937  0.0025
20303W        W21167  22.458   9.228  21.919 -0.0374 -0.0457  0.3738
20304W        W21168  17.799   0.918  13.051 -0.1388 -0.0784 -0.4797
20305W        W21169  19.999  22.949   7.090 -0.1144  0.0884  0.0362
20306W        W21170   6.857   8.760   0.198 -0.2705 -0.1631  0.2204
20307W        W21171   6.095  18.443  11.897 -0.1548  0.2310  0.0105
20308W        W21172  26.053  21.820   7.971  0.0147 -0.0819 -0.0315
20309W        W21173   2.030  23.741  12.668 -0.0385 -0.1150 -0.2267
20310W        W21174   3.939  25.412  19.552  0.0749  0.1059 -0.1109
20311W        W21175  19.423  13.191   6.283 -0.1142 -0.0334 -0.0837
20312W        W21176  28.506   5.568  12.902  0.2017  0.0984  0.1032
20313W        W21177  10.354  14.881  18.907 -0.0695  0.2060  0.0628
20314W        W21178  19.200  28.379   6.066  0.1216  0.4321  0.1510
20315W        W21179  21.870  14.620   4.362  0.1839 -0.1617 -0.0873
20316W        W21180  18.703  21.095  18.525  0.0939 -0.1510 -0.1797
20317W        W21181  25.253  17.459  19.321  0.0801 -0.1719  0.1774
20318W        W21182   6.059   3.607  13.839  0.0636  0.0350  0.1163
20319W        W21183  11.089   0.139  13.627  0.0418  0.0758  0.0294
20320W        W21184   8.269   7.204  17.406 -0.1822 -0.0364  0.2299
20321W        W21185   6.051   4.258   6.367  0.1000 -0.0360 -0.2505
20322W        W21186  16.602  17.214   0.624  0.5331  0.2370  0.0619
20323W        W21187  18.181  16.971  15.828 -0.0834  0.1295  0.0712
20324W        W21188  24.209   7.357  11.675 -0.0282  0.1282  0.0381
20325W        W21189  17.756  22.120   5.356 -0.0283 -0.0353 -0.3902
20326W        W21190  18.951  16.449  22.664 -0.2480  0.1829  0.0726
20327W        W21191   9.558   2.797  28.289  0.1910 -0.0897 -0.2111
20328W        W21192   2.275  14.745  22.740  0.1353 -0.1749  0.1402
20329W        W21193   9.190   4.181   5.457  0.3701 -0.0249  0.4157
20330W        W21194  11.267  22.639   7.247  0.4622  0.1470 -0.1990
20331W        W21195  12.674  20.901  22.187  0.0945  0.0779 -0.1192
20332W        W21196  16.474   4.337  24.871  0.4242  0.4218 -0.0117
20333W        W21197   9.340  14.123  26.198  0.0053 -0.0528 -0.5203
20334W        W21198  24.983  18.746  19.762  0.2082  0.2463  0.0079
20335W        W21199  19.723  25.725  19.005 -0.0274 -0.2022  0.2068
20336W        W21200  27.598   0.398   0.858 -0.3523 -0.1119 -0.1199
20337W        W21201  21.675  11.336  21.161  0.1973 -0.0063  0.2144
20338W        W21202  24.734  25.675   3.222  0.1554 -0.2297 -0.2875
20339W        W21203  11.441  14.983  25.038 -0.1972  0.4449 -0.0572
20340W        W21204  28.533  20.571  14.700  0.1218  0.2275  0.2130
20341W        W21205   4.398  22.308  25.690 -0.1512  0.1154  0.0711
20342W        W21206   6.709  18.590  10.131 -0.0211 -0.3849 -0.0421
20343W        W21207  17.376  18.471  10.772  0.0154 -0.0298 -0.1994
20344W        W21208  20.618   5.809   1.398  0.0409 -0.0888  0.2674
20345W        W21209  21.944  19.648  19.089 -0.2328 -0.0514  0.3139
20346W        W21210   6.062  20.198  25.865  0.2158 -0.1576  0.3067
20347W        W21211  16.361  21.322  15.148 -0.0309 -0.0032  0.0087
20348W        W21212  29.033  21.780   0.248 -0.2644  0.4713  0.0477
20349W        W21213  24.310  20.572   8.082  0.2296  0.1845  0.1487
20350W        W21214  20.220  17.402  27.875  0.1386  0.1429 -0.0992
20351W        W21215   9.906   1.792   3.767 -0.0832  0.0822  0.0341
20352W        W21216  24.129  26.217  21.847 -0.1708  0.2315  0.0328
20353W        W21217  20.759   1.937  25.596  0.1192 -0.1533  0.0168
20354W        W21218  19.990   3.493  11.840 -0.0237  0.1023  0.2770
20355W        W21219  20.703  11.002   9.606 -0.0653 -0.2517 -0.2702
20356W        W21220  21.865  18.186   8.520 -0.2752  0.2817 -0.2330
20357W        W21221  21.286  21.534  21.495  0.0565  0.1794 -0.0956
20358W        W21222  23.768  26.214   0.752 -0.0604  0.3147 -0.0786
20359W        W21223   0.432  16.195  13.978  0.0472 -0.0710  0.0179
20360W        W21224  19.915  11.050   1.830 -0.4186  0.1845 -0.1592
20361W        W21225  23.961  16.598   8.640 -0.0182  0.1516 -0.4482
20362W        W21226  17.976  27.247  16.612 -0.0390 -0.0301 -0.0172
20363W        W21227  14.056  23.054  16.014  0.2588  0.3835  0.2099
20364W        W21228  13.903  16.441  15.656  0.2222 -0.0398  0.4697
20365W        W21229  14.689   5.444   2.306  0.1468 -0.0681  0.0178
20366W        W21230  17.477  25.721  14.895  0.4356 -0.0820 -0.0644
20367W        W21231  24.946  12.514   4.158  0.0300  0.1868  0.0681
20368W        W21232  25.727  27.197  17.679 -0.0128 -0.1070 -0.0716
20369W        W21233  15.083   7.972   9.581  0.1029 -0.2525  0.0242
20370W        W21234  13.549  17.248  17.066 -0.1205 -0.2021 -0.0293
20371W        W21235  23.848  13.179  16.764  0.1216 -0.1546 -0.2671
20372W        W21236  26.008   7.795  19.291 -0.2303 -0.0402 -0.1558
20373W        W21237  20.501  18.151  13.882 -0.0439  0.1517  0.1656
20374W        W21238  28.510  23.066  17.247 -0.0545  0.3567  0.2120
20375W        W21239  18.170   7.087  17.678 -0.3370 -0.3295 -0.0062
20376W        W21240  11.806  21.071   4.912  0.1165  0.0004 -0.3472
20377W        W21241  12.452  22.458   3.209 -0.0624 -0.0048 -0.0377
20378W        W21242  13.581   0.436  24.600 -0.1401 -0.2184  0.0677
20379W        W21243  25.446   7.250  14.599 -0.3580  0.0186  0.1263
20380W        W21244   5.918  13.677   4.508  0.0409  0.0364 -0.0929
20381W        W21245  15.214  22.612  19.988  0.0040 -0.0107 -0.1536
20382W        W21246  23.262  17.178  17.078 -0.0523 -0.0094 -0.0350
20383W        W21247  14.013  28.297   0.992  0.1517  0.0495  0.0866
20384W        W21248  29.126  24.595  20.611 -0.1917 -0.0314  0.3971
20385W        W21249  15.524   9.205  11.002  0.2067  0.3396  0.3382
20386W        W21250   2.526  18.565   6.619 -0.1017  0.1024 -0.1669
20387W        W21251  21.722   1.864   2.462  0.2145  0.3336 -0.0636
20388W        W21252   6.684  23.556  20.451  0.1044  0.3779 -0.1648
20389W        W21253  20.207  12.465  22.351 -0.1475  0.1324  0.1626
20390W        W21254  18.036  19.513  23.092  0.0744 -0.0488 -0.2925
20391W        W21255   6.976  19.143  14.393  0.0632 -0.0536  0.1760
20392W        W21256   8.378  14.236  18.235  0.0184  0.0845 -0.0933
20393W        W21257  23.362  22.777  22.222 -0.1801 -0.0096  0.2561
20394W        W21258  27.632   9.042   1.073  0.1184  0.1181 -0.2042
20395W        W21259  26.746  25.068  11.964  0.0226  0.1700 -0.1007
20396W        W21260  14.827  17.971   5.802 -0.2624 -0.0989  0.0737
20397W        W21261  17.978   3.907  21.510 -0.0618 -0.1888 -0.2240
20398W        W21262  20.851   4.260   3.317 -0.2443 -0.0952 -0.0350
20399W        W21263  22.838  12.374   0.401  0.0089 -0.0345  0.4085
20400W        W21264  13.339  16.692  24.746  0.0498 -0.1149 -0.1683
20401W        W21265  13.823  17.016  24.977 -0.0985 -0.0321 -0.2715
20402W        W21266  26.448   0.142   4.200  0.0231  0.0825 -0.1926
20403W        W21267  17.772  11.755  13.600 -0.0239  0.2477  0.2168
20404W        W21268   6.911  27.577   5.597 -0.2336  0.4182 -0.0288
20405W        W21269  23.260  23.169  21.686  0.0704 -0.1660 -0.2636
20406W        W21270   7.405  22.440  16.673  0.1040 -0.0213  0.1180
20407W        W21271   4.940  22.463  18.120  0.0846  0.0520 -0.1087
20408W        W21272  19.759  12.925  14.484 -0.0315  0.0162 -0.0060
20409W        W21273   9.149  16.909  13.733  0.6132 -0.2983 -0.2822
20410W        W21274  12.076  28.497  25.942  0.2277  0.0589 -0.1112
20411W        W21275   7.844  16.139  12.975 -0.1630 -0.3122 -0.1312
20412W        W21276  12.281  21.908  12.868 -0.0983  0.0373 -0.1270
20413W        W21277  15.851   1.346   7.886  0.2202  0.0189 -0.2639
20414W        W21278  22.838  16.666   4.998 -0.0118  0.3110 -0.1305
20415W        W21279   0.427  25.352  25.942  0.1363 -0.0039 -0.2197
20416W        W21280   8.217  10.220  27.042  0.0521  0.2432 -0.1260
20417W        W21281  25.751  19.048  25.429 -0.1646  0.4318 -0.1836
20418W        W21282   0.442   0.868  14.183 -0.1072  0.0630  0.0776
20419W        W21283  12.836   0.643   8.263 -0.3675  0.2848  0.1432
20420W        W21284  11.339  27.989   8.842 -0.2128  0.0459  0.0333
20421W        W21285  17.207  15.564  12.393  0.0452 -0.2260 -0.0611
20422W        W21286  12.791   1.125  21.145 -0.0598 -0.2414 -0.0008
20423W        W21287  22.277  27.432   4.471 -0.3460 -0.2715 -0.1493
20424W        W21288  18.528  23.102  28.382  0.2639 -0.1172  0.0026
20425W        W21289  11.603  19.264  15.754  0.0318  0.1702  0.1046
20426W        W21290  17.184  23.976  20.077 -0.3292 -0.0345  0.1714
20427W        W21291   0.592   8.890  15.051  0.2973 -0.2126  0.2406
20428W        W21292   8.286  18.212   6.902  0.1489  0.2261  0.3158
20429W        W21293  20.716   7.680  11.546 -0.3645 -0.1098 -0.0118
20430W        W21294   7.142  16.110  20.600  0.1775 -0.4601 -0.1274
20431W        W21295  20.968  15.816  18.563 -0.0363 -0.2849 -0.2078
20432W        W21296   9.674  24.502  26.255 -0.1241  0.4009  0.0394
20433W        W21297  18.354   2.693   2.045  0.1483 -0.0677  0.0083
20434W        W21298  21.426   2.733  25.213  0.1974 -0.2324  0.2974
20435W        W21299   8.266  12.088  28.117 -0.1496  0.0506  0.1864
20436W        W21300   0.055  18.225  18.599 -0.3170 -0.2523  0.0651
20437W        W21301  18.663  14.763  20.915  0.3687 -0.0288 -0.1299
20438W        W21302  10.165   4.748   4.754 -0.0407 -0.0785  0.1351
20439W        W21303  18.500  14.869   6.447  0.1831 -0.0401 -0.0375
20440W        W21304  17.636   3.477  20.478  0.1758  0.1260  0.4059
20441W        W21305  13.906  18.613  12.895  0.3282 -0.1207 -0.1803
20442W        W21306  14.610  17.221   3.327  0.0140  0.4119 -0.1396
20443W        W21307  25.717  15.227   8.179 -0.0427  0.2013 -0.1916
20444W        W21308   3.603  12.441  24.666  0.1817  0.3243 -0.3263
20445W        W21309   9.402  21.977   7.401  0.0448 -0.0201 -0.2254
20446W        W21310  11.539  23.964  24.359  0.0097  0.2056  0.2696
20447W        W21311  13.876  20.779   7.926 -0.2643 -0.2681  0.2092
20448W        W21312  11.131  20.268  15.954 -0.1007 -0.0477  0.0126
20449W        W21313   5.385  24.948   4.141 -0.0781 -0.4407 -0.1505
20450W        W21314   0.598  25.353   9.994 -0.0434  0.0051  0.0158
20451W        W21315  24.444   2.588  25.558 -0.1957  0.0991 -0.2713
20452W        W21316   6.842   3.169  14.139  0.2222 -0.0971  0.4788
20453W        W21317  20.646  23.427  13.935 -0.1697 -0.3717 -0.2243
20454W        W21318  24.597   1.095  27.901  0.2613 -0.2896 -0.0857
20455W        W21319   4.270   8.523   8.884  0.1482 -0.0881  0.0237
20456W        W21320  21.038   9.432  23.705 -0.1658  0.3444  0.0961
20457W        W21321  28.591   0.957   9.833  0.1861 -0.0149  0.0664
20458W        W21322  16.759  14.060   5.407  0.0068 -0.0674 -0.0497
20459W        W21323  14.274  14.241   6.761 -0.1656  0.3052  0.0458
20460W        W21324  10.750  14.445  23.755  0.0295 -0.1072 -0.3052
20461W        W21325  26.271  16.281  19.047  0.3210 -0.1048 -0.4613
20462W        W21326  12.866  16.739   9.586  0.0138 -0.3246  0.0144
20463W        W21327  16.512  23.867   3.789 -0.1133 -0.1625 -0.1124
20464W        W21328  24.471   9.208   5.468 -0.2761  0.0193  0.2321
20465W        W21329  18.856  26.906   0.718 -0.0540 -0.1346  0.1585
20466W        W21330  18.091  27.091   4.113  0.2987 -0.4056  0.0599
20467W        W21331   0.343  28.333  12.325 -0.1492 -0.1659  0.0459
20468W        W21332  16.305  13.133  24.730  0.1810 -0.1186  0.0618
20469W        W21333   3.675  19.409  15.671  0.2833  0.2754 -0.0749
20470W        W21334  22.906  18.473  16.622  0.1520 -0.3140  0.0220
20471W        W21335   3.068  12.127  19.728  0.0891 -0.2606  0.1204
20472W        W21336  11.890  12.666  16.108 -0.0848  0.1801 -0.1227
20473W        W21337   4.129  26.438  16.971  0.1603 -0.1436  0.2635
20474W        W21338  28.458   0.531  15.211  0.1248  0.0254 -0.0435
20475W        W21339  17.437  28.454  25.260 -0.1980 -0.3012  0.0810
20476W        W21340   5.659  20.830  11.687  0.0504 -0.0916 -0.0359
20477W        W21341  19.888  17.176  15.661  0.0784 -0.1048 -0.2120
20478W        W21342  28.524  22.208  19.275 -0.0234 -0.0493  0.1202
20479W        W21343   8.616  28.411   4.475  0.0972 -0.1860  0.2769
20480W        W21344  19.298   2.393  26.689  0.0680  0.0863  0.4122
20481W        W21345  23.481  24.821  19.320  0.0360 -0.3106  0.1375
20482W        W21346  15.623  25.595   9.640  0.2216 -0.1940  0.3098
20483W        W21347  16.732  20.920   7.227 -0.2879 -0.1706  0.0190
20484W        W21348  12.415  20.177  22.477 -0.2395 -0.1571 -0.1814
20485W        W21349  26.296   7.157  28.038 -0.0662 -0.0979 -0.1836
20486W        W21350  21.814   2.795  25.590  0.2906  0.4194 -0.2869
20487W        W21351  23.265  12.942  22.047 -0.2902 -0.3554 -0.2265
20488W        W21352  20.011   1.300  29.068 -0.0620  0.2509 -0.3492
20489W        W21353  16.150   6.059  20.109 -0.0378 -0.1116 -0.0359
20490W        W21354   5.293  25.049  17.833  0.0244 -0.0894  0.2506
20491W        W21355  25.188  21.604  14.692  0.1361  0.1962  0.3924
20492W        W21356  16.545   2.715   6.409 -0.2880  0.1256  0.0232
20493W        W21357  14.805  21.388   8.802 -0.1123 -0.1597 -0.2750
20494W        W21358   9.976  14.807   9.528 -0.3028 -0.2038 -0.0750
20495W        W21359   7.784  21.665   6.917 -0.1381 -0.1168  0.0563
20496W        W21360  17.298  10.457   4.671 -0.0728  0.0301 -0.2043
20497W        W21361  11.873   1.652  18.520  0.4205 -0.1418 -0.0064
20498W        W21362  10.714  20.668   2.924 -0.2454  0.2600  0.0394
20499W        W21363   1.634  21.266  25.199 -0.0726 -0.0290  0.1770
20500W        W21364  23.358  28.815  18.568 -0.0382 -0.1612 -0.4134
20501W        W21365   8.153   9.898  10.141 -0.3728  0.3089 -0.0087
20502W        W21366  18.253  15.611   4.613 -0.2330 -0.0248 -0.3152
20503W        W21367  12.876  21.195  12.767 -0.0443 -0.1938 -0.1348
20504W        W21368  10.239  16.208   5.223  0.1634  0.1162  0.0099
20505W        W21369  19.518  13.240  16.980 -0.4286 -0.0175 -0.0299
20506W        W21370  23.307  20.486   2.616 -0.2937 -0.2064  0.2310
20507W        W21371  28.102  24.314  24.302  0.0990  0.1828 -0.0791
20508W        W21372  16.278   8.765  11.021  0.3459  0.4406  0.1624
20509W        W21373  28.511  28.414  11.803 -0.0604 -0.1469  0.4499
20510W        W21374  12.868   4.435   0.614  0.2027 -0.0591  0.3845
20511W        W21375  20.110  17.237  24.541  0.0435  0.0528 -0.0917
20512W        W21376  27.715   3.326   2.335 -0.1182  0.2047  0.1510
20513W        W21377  16.453  17.312  21.601  0.3496  0.0325  0.0677
20514W        W21378  27.285  22.691   9.111  0.0880 -0.0731 -0.0349
20515W        W21379  21.374  15.983   3.432 -0.3806 -0.0441 -0.0282
20516W        W21380  20.684  13.794  11.269  0.4928 -0.1522 -0.1066
20517W        W21381  13.695  28.938  12.379 -0.1113 -0.1862  0.2344
20518W        W21382  28.939  17.980   0.798  0.0628 -0.1594 -0.2543
20519W        W21383  14.096  25.773  23.179 -0.0255  0.3464  0.2739
20520W        W21384  11.145  19.679  21.099 -0.2444 -0.2543  0.0180
20521W        W21385  13.854  18.706  15.655  0.1132 -0.0150  0.0418
20522W        W21386  22.396  19.778  25.530  0.2194 -0.0954  0.3410
20523W        W21387  17.211   2.638  16.947 -0.3318  0.1753  0.2594
20524W        W21388  15.641  17.816  16.167 -0.1651 -0.2274 -0.0801
20525W        W21389   3.192  25.327  23.840 -0.0865  0.0919  0.2381
20526W        W21390  23.649  24.242  19.268  0.3453  0.0927 -0.0489
20527W        W21391  13.774  14.777  19.970  0.1974  0.2545  0.2746
20528W        W21392  11.600  14.651  26.357  0.1367  0.1870 -0.3705
20529W        W21393  22.712  23.579  16.880  0.3505  0.0990  0.2363
20530W        W21394  10.049  25.092  27.101  0.0769 -0.0539 -0.1565
20531W        W21395   4.778  16.560  20.848  0.0366 -0.0578  0.1024
20532W        W21396   8.178   2.997  12.438 -0.1420 -0.1152  0.0575
20533W        W21397   0.578   4.772   3.976  0.0405 -0.2124  0.2862
20534W        W21398  20.097  23.582  23.216 -0.0077 -0.0490 -0.0926
20535W        W21399  17.220  13.053  18.731 -0.1402  0.1737 -0.1624
20536W        W21400  26.085  24.295   8.577  0.1993 -0.1859  0.1796
20537W        W21401  19.050  10.006  26.587  0.3084  0.1997 -0.0078
20538W        W21402  28.477  18.308  15.702  0.0313 -0.3912 -0.1025
20539W        W21403  28.813  26.130  22.935 -0.0286 -0.2457  0.0308
20540W        W21404  23.567   0.803  18.514  0.1780 -0.3724 -0.0284
20541W        W21405   7.253  11.406  14.670 -0.2813  0.0384  0.0559
20542W        W21406  26.758  13.472  20.139  0.2182 -0.4479 -0.0551
20543W        W21407  25.481  11.877  25.909 -0.1550  0.3072 -0.1067
20544W        W21408  12.386   7.827   0.908  0.1048 -0.0474  0.0508
20545W        W21409  12.148  24.482  24.156  0.1182  0.1313  0.1941
20546W        W21410  15.580   1.427  14.584 -0.1715  0.0723 -0.1331
20547W        W21411   9.064  12.074  24.371 -0.2345  0.0217  0.1615
20548W        W21412  13.073  23.805  14.904  0.0480  0.2709 -0.0759
20549W        W21413  15.942   7.981  18.851  0.1328  0.0648 -0.2417
20550W        W21414   7.927   1.675  10.182 -0.1738 -0.4657  0.1842
20551W        W21415   9.556  22.742   6.106  0.0587 -0.0890  0.2619
20552W        W21416  16.127  22.819   7.484 -0.2292  0.0808 -0.1706
20553W        W21417  13.055  17.065  28.463  0.0096 -0.0182  0.0425
20554W        W21418  12.455  13.947  21.559  0.1943  0.1008  0.0650
20555W        W21419  16.180   5.257  21.134 -0.0805  0.3399  0.0763
20556W        W21420  16.885  11.828  13.190 -0.0545  0.0784 -0.3328
20557W        W21421   0.298  13.461  25.179 -0.2068  0.4577 -0.0604
20558W        W21422   6.782  20.202  12.942  0.2306  0.1178  0.1062
20559W        W21423   2.247   8.366  27.424  0.3544  0.2981  0.1094
20560W        W21424  10.490   5.145   4.604  0.0003 -0.2371  0.1266
20561W        W21425   9.382  18.560   9.863 -0.0203  0.1373  0.0391
20562W        W21426  12.435  11.315  12.965  0.1722  0.0192 -0.2300
20563W        W21427  15.459  11.478  15.315  0.0510 -0.0445  0.1091
20564W        W21428  21.069  25.899   5.990 -0.1624  0.0968 -0.2456
20565W        W21429  12.528   2.451  13.377 -0.1777  0.0162  0.3634
20566W        W21430  25.911   3.977  13.936  0.0341  0.2547 -0.0132
20567W        W21431  12.142  19.237  22.522 -0.3638 -0.3100 -0.0300
20568W        W21432   3.355  17.221  22.600  0.0362  0.1485  0.1685
20569W        W21433   3.421  14.956  24.320 -0.0783 -0.0632  0.0731
20570W        W21434  16.805  19.946   5.290  0.0302 -0.1796  0.0544
20571W        W21435  27.368   6.347  20.783  0.2469 -0.2381 -0.2183
20572W        W21436   6.635  15.360   0.638 -0.0648 -0.0243  0.0608
20573W        W21437  16.111  24.445  19.926 -0.0332 -0.1411 -0.0375
20574W        W21438  20.406  22.249  23.338  0.0146  0.0810  0.0063
20575W        W21439   8.605  10.420  26.569  0.3041  0.0454  0.1190
20576W        W21440  17.253  23.114  22.806  0.0124  0.1396  0.1135
20577W        W21441  24.388  14.834  11.490 -0.0356 -0.0230 -0.1490
20578W        W21442  23.320  19.040  24.530 -0.1070  0.1137  0.0615
20579W        W21443  24.755  22.751   9.853  0.1926 -0.1090  0.1158
20580W        W21444  16.694  23.898   3.325  0.1844 -0.0253  0.0270
20581W        W21445  10.048  23.887   1.615  0.1491  0.0803 -0.2210
20582W        W21446   0.292  23.871  12.056  0.1964 -0.2501  0.3469
20583W        W21447  24.525  24.255  24.726 -0.0564 -0.1404 -0.1459
20584W        W21448  17.772  24.089  23.578  0.3025 -0.1751  0.1042
20585W        W21449   3.407  26.992  12.280  0.0106  0.0195 -0.1818
20586W        W21450   8.839  22.755  19.343  0.0834 -0.0460  0.1481
20587W        W21451  23.383   8.108  10.013 -0.2087  0.2294  0.1556
20588W        W21452   1.062  15.215  20.261  0.2746 -0.0561 -0.0241
20589W        W21453  14.438  20.048  24.000  0.4093  0.1364  0.0544
20590W        W21454   8.545   5.137  19.129  0.0006  0.0584 -0.0346
20591W        W21455  14.486  26.815  25.383 -0.2135  0.3067 -0.0194
20592W        W21456  12.542  17.516   5.141 -0.0210 -0.1666  0.2649
20593W        W21457  22.382  22.588  22.000 -0.2282 -0.0582  0.2449
20594W        W21458  15.065   3.277  28.159  0.2590  0.0102  0.2175
20595W        W21459   5.413   5.216  12.505  0.1869 -0.3780  0.1079
20596W        W21460   0.216  26.990  17.369 -0.1616 -0.0839 -0.0128
20597W        W21461   4.250  20.863   3.269 -0.1925 -0.1018 -0.0244
20598W        W21462  20.250   1.747  15.691 -0.0027 -0.0975 -0.0662
20599W        W21463   5.071  24.755  12.790  0.1837 -0.1040  0.1293
20600W        W21464  10.760  25.566  21.104 -0.1569 -0.0019  0.3041
20601W        W21465  14.311   1.761  11.597  0.1206  0.1603 -0.2247
20602W        W21466  12.992   7.467  19.724 -0.2762 -0.0099 -0.0831
20603W        W21467  27.768  26.941  24.670 -0.1390  0.1528  0.0852
20604W        W21468  19.208  14.115   4.302 -0.4086 -0.1602  0.1593
20605W        W21469  22.666  12.740   8.073  0.0257  0.1560  0.2006
20606W        W21470  11.522  28.448  22.757 -0.3036 -0.0462 -0.1611
20607W        W21471   1.286  13.701   0.435  0.0850 -0.3245  0.2431
20608W        W21472  26.015   6.766  23.468  0.1975 -0.1817  0.0112
20609W        W21473   2.288  22.303   3.700  0.1159 -0.0211 -0.2305
20610W        W21474  16.510  22.267   2.479 -0.4172 -0.0556  0.2420
20611W        W21475  18.428  13.515  23.929  0.3352  0.2649 -0.2054
20612W        W21476   8.307  23.244  19.468  0.0493  0.0174 -0.3543
20613W        W21477   8.524   4.645   1.838 -0.0933  0.0701 -0.1404
20614W        W21478   9.500   0.906  24.258 -0.1212  0.2029 -0.3449
20615W        W21479  19.854  10.586   0.232 -0.2068  0.2048 -0.1195
20616W        W21480  18.105  11.170  20.327  0.0887 -0.0522 -0.1154
20617W        W21481   4.856   6.269  25.613 -0.0539 -0.0723  0.0793
20618W        W21482  28.786  24.161   6.719  0.4060 -0.0523 -0.0543
20619W        W21483  14.084  21.106   3.920  0.2555  0.2138 -0.2488
20620W        W21484  22.674  12.157   1.369 -0.0293 -0.3068 -0.1789
20621W        W21485  20.267  16.549   7.572 -0.2764 -0.0719 -0.2454
20622W        W21486   0.503  22.089  20.748  0.0836  0.1597  0.0191
20623W        W21487   9.612  25.255   5.821 -0.1997 -0.0992  0.1195
20624W        W21488  27.045  23.990   4.346  0.2182  0.0487 -0.1266
20625W        W21489  25.170  27.405  24.579 -0.1691  0.1184 -0.0045
20626W        W21490  13.134  21.653   5.448 -0.1471  0.3051 -0.2183
20627W        W21491  13.394  13.490  16.466 -0.1616  0.0246 -0.0214
20628W        W21492   5.312  17.080  23.359  0.0300 -0.1648 -0.0032
20629W        W21493   9.292   9.966  26.858 -0.0249  0.1773 -0.0017
20630W        W21494  19.899   4.364   9.826 -0.0542 -0.1402 -0.0266
20631W        W21495   3.890  19.316   9.071  0.2486 -0.2714 -0.1227
20632W        W21496  16.199  15.743   0.932  0.0721  0.2388 -0.2808
20633W        W21497   8.916  27.233   6.745 -0.1098  0.2851 -0.2660
20634W        W21498  12.651  21.871  25.236  0.0327  0.0997 -0.1519
20635W        W21499  14.849  15.132  21.661  0.0004 -0.1895  0.0760
20636W        W21500  21.721  12.276  22.346 -0.1939  0.0856  0.1906
20637W        W21501  14.124  27.965  19.416 -0.0978  0.2393  0.0115
20638W        W21502   3.358   0.309  19.479  0.1156 -0.0320  0.1420
20639W        W21503  23.450  21.718   5.839 -0.0110  0.3176  0.0532
20640W        W21504  18.056   1.309  20.443 -0.0532 -0.4206  0.3994
20641W        W21505   0.091  12.535  25.469 -0.1040 -0.2589  0.0776
20642W        W21506  21.809   5.166  27.990  0.1047 -0.1039 -0.0898
20643W        W21507   6.871  12.566  13.281 -0.2588 -0.0931 -0.1509
20644W        W21508  25.038  25.762  15.432  0.0444  0.3119 -0.4382
20645W        W21509   2.885   3.988  23.308 -0.1388 -0.1513 -0.0426
20646W        W21510  21.206   9.636  21.128  0.2295 -0.2382  0.3822
20647W        W21511  21.886  13.114  26.257 -0.1237 -0.1562 -0.2467
20648W        W21512  17.280  27.081  14.615  0.2180  0.1016  0.1601
20649W        W21513  17.441  19.051  21.919  0.0217  0.1367  0.0241
20650W        W21514  11.541  16.788  27.371  0.2428  0.3088 -0.0094
20651W        W21515  16.193   1.739  24.055 -0.2120  0.2568 -0.1317
20652W        W21516  17.431  12.224  23.785 -0.0104 -0.1352 -0.0781
20653W        W21517  11.634  11.662  20.894 -0.0517  0.1555  0.1522
20654W        W21518  12.317  12.147  15.137  0.0715  0.0111  0.2287
20655W        W21519  18.397  26.660  10.815 -0.2648  0.2633  0.0425
20656W        W21520  18.690  10.070   6.485 -0.1063  0.1866 -0.1359
20657W        W21521  10.790   5.413   7.714 -0.2440  0.2862  0.1449
20658W        W21522  20.893  10.205   2.671 -0.2316 -0.0254 -0.2362
20659W        W21523  25.832   2.325  26.304 -0.1914  0.0797 -0.1765
20660W        W21524  10.851  14.288  15.266 -0.0854  0.0517  0.1208
20661W        W21525   8.930   3.583   9.661  0.0232 -0.1016 -0.3377
20662W        W21526  20.465   9.231   5.729  0.4771  0.1121 -0.0581
20663W        W21527  29.128  18.260   9.615  0.0752 -0.0399 -0.0061
20664W        W21528   2.258   6.813  20.944  0.3118  0.0692  0.2093
20665W        W21529  20.698   1.051  14.136 -0.0791 -0.0659  0.0859
20666W        W21530   2.968   2.486  17.264 -0.0697 -0.0367  0.5641
20667W        W21531  25.597  15.034  21.797  0.1285  0.0531 -0.1265
20668W        W21532   8.894  27.367  18.591  0.0824  0.2568  0.0790
20669W        W21533  14.147  24.519  18.470 -0.1220 -0.2473  0.0088
20670W        W21534  24.405   1.803  24.417 -0.2958  0.2646 -0.1051
20671W        W21535  26.398  16.737  22.415 -0.1446 -0.0561 -0.0070
20672W        W21536  14.086   0.362  25.410  0.0754  0.3719  0.0545
20673W        W21537  14.821  20.071  19.927 -0.1578  0.0967 -0.3819
20674W        W21538   5.488  19.513  23.174 -0.2095  0.2833 -0.1856
20675W        W21539  10.544   2.910  19.186  0.1177 -0.1883  0.0311
20676W        W21540  15.171   9.361  21.094 -0.1651  0.1682 -0.0670
20677W        W21541  23.937  13.651   9.356  0.2862  0.4389 -0.1219
20678W        W21542  23.684  25.329  22.551  0.2418  0.2076  0.0557
20679W        W21543  18.919  27.426  25.671 -0.1270  0.2220  0.0853
20680W        W21544  20.360  21.352  19.698 -0.1976  0.1426 -0.1304
20681W        W21545   5.788  27.244   2.708  0.1526  0.1574 -0.0703
20682W        W21546  13.667  27.761  22.179 -0.4076 -0.0754  0.0521
20683W        W21547   1.854   5.756  10.995 -0.0793  0.0946  0.0965
20684W        W21548   0.028   7.719  16.533  0.0536 -0.3631 -0.1441
20685W        W21549  15.197   4.342  12.074  0.3785  0.1658 -0.0227
20686W        W21550  23.871   3.055  19.197 -0.2982 -0.1382  0.0185
20687W        W21551  13.449   7.936   0.124 -0.2838  0.3342 -0.0875
20688W        W21552  11.342  15.258   5.008  0.1249 -0.0831  0.1526
20689W        W21553   2.633  13.937  16.048 -0.1044 -0.0336  0.1791
20690W        W21554  13.804   1.061   8.967  0.1454  0.0823  0.3394
20691W        W21555  11.073  13.064   8.729 -0.2591 -0.0456  0.1592
20692W        W21556  14.621   3.320  18.725  0.0274 -0.3929  0.2012
20693W        W21557  10.815  18.302  19.744 -0.0951  0.2128  0.0982
20694W        W21558   0.281  15.047  23.377 -0.1265 -0.0937  0.1347
20695W        W21559  17.109  27.249  13.674 -0.2560 -0.1420  0.1692
20696W        W21560  13.220  25.307  10.507  0.1349  0.1241  0.0958
20697W        W21561  14.359   4.571   5.695  0.2528 -0.1678  0.0087
20698W        W21562  22.320   2.637   0.995  0.0925 -0.2301  0.3906
20699W        W21563  26.261  18.146   8.302 -0.1026 -0.1902 -0.1043
20700W        W21564  19.468  10.025  27.659  0.0427 -0.3221  0.1171
20701W        W21565  12.594  27.941   9.800 -0.0156 -0.2300 -0.0445
20702W        W21566  23.023   9.851  18.469 -0.1611  0.1739  0.2075
20703W        W21567  19.227   4.019  21.941 -0.0826  0.0980 -0.2247
20704W        W21568  20.756  19.420  21.559 -0.0727 -0.0092  0.0580
20705W        W21569  27.616  11.171   8.089  0.3866  0.1041  0.1900
20706W        W21570  16.916   3.950  26.036  0.2877  0.2751 -0.2515
20707W        W21571  17.215   7.966  25.345  0.2812 -0.0463  0.2687
20708W        W21572  16.947  25.223  12.935 -0.1165  0.1603 -0.0727
20709W        W21573   0.401   2.005  22.625  0.0543  0.0862  0.1523
20710W        W21574  24.164  27.776  22.959 -0.1010 -0.1886  0.2388
20711W        W21575  15.376  22.284  16.860  0.2223 -0.1260 -0.0092
20712W        W21576   5.057  12.640  14.403  0.0598  0.1952 -0.2886
20713W        W21577  14.022  26.261  27.556 -0.0449 -0.4051  0.1454
20714W        W21578  13.759  14.420  21.318 -0.1614  0.0203 -0.3449
20715W        W21579   7.275  24.217  15.260 -0.0775 -0.2466  0.1115
20716W        W21580  11.022   9.820   2.034  0.0544  0.1385  0.2660
20717W        W21581  25.965   9.290   7.067  0.2377 -0.1451 -0.0748
20718W        W21582  20.340  16.088  28.653  0.0504  0.2577 -0.2140
20719W        W21583  14.919  18.735  21.839  0.0196 -0.3452  0.3229
20720W        W21584   2.983  16.255   7.980  0.0186  0.0398 -0.0704
20721W        W21585  15.862  12.777  14.661 -0.1063 -0.2408 -0.1265
20722W        W21586  16.734  15.027  13.987 -0.2703  0.0867 -0.0879
20723W        W21587   5.225  28.680  24.874 -0.1447  0.0916  0.0822
20724W        W21588   4.574   4.495  17.724  0.0879 -0.1743 -0.0609
20725W        W21589  22.084  25.435  10.678  0.1117 -0.3503  0.1235
20726W        W21590  19.045   2.812  14.913  0.1228 -0.1408 -0.0250
20727W        W21591  11.630  22.715  15.567  0.2639  0.1385  0.0126
20728W        W21592   2.027  21.969   3.981  0.1595 -0.0292 -0.1673
20729W        W21593  18.158   4.799  26.326  0.3728 -0.1473 -0.1905
20730W        W21594  21.751   5.654  18.642 -0.0353  0.0907  0.0430
20731W        W21595  23.717  21.026  13.635  0.3158  0.2139  0.4783
20732W        W21596  13.498  16.918  23.911  0.0117  0.1320  0.0829
20733W        W21597   7.200  13.747   6.829 -0.0269 -0.0456 -0.0742
20734W        W21598  18.882   5.912   2.982  0.0023 -0.1633 -0.2370
20735W        W21599   0.661  26.652  24.258  0.0446 -0.0922  0.0281
20736W        W21600   2.552   7.890  17.698  0.0103 -0.4117  0.2827
20737W        W21601   7.881   5.943   4.062  0.1290 -0.2740  0.0677
20738W        W21602   2.364  12.745  24.342  0.0500 -0.1541  0.1384
20739W        W21603  23.442  15.270  13.852  0.4673  0.1475  0.1029
20740W        W21604  16.101  20.001  15.873  0.1056 -0.2462  0.0863
20741W        W21605  22.781  15.478  11.184  0.1015 -0.2608  0.1781
20742W        W21606  15.738   8.268   0.234 -0.0396 -0.0309 -0.0884
20743W        W21607  28.282  24.406  26.899  0.2442 -0.0229  0.0192
20744W        W21608  19.935  26.747  24.830 -0.0557 -0.0751 -0.0414
20745W        W21609  20.106   6.009  11.931  0.0204  0.1132  0.0310
20746W        W21610  26.656  16.465  17.485  0.1622 -0.2473  0.1411
20747W        W21611  25.332   3.123   4.283  0.4342 -0.1392  0.0927
20748W        W21612  13.639  10.931  24.042  0.3070 -0.0393  0.2468
20749W        W21613  23.938  23.267  14.587 -0.1752  0.1763  0.0635
20750W        W21614  13.092  16.617  26.822  0.3214 -0.1854 -0.1483
20751W        W21615   5.543  17.285  20.087 -0.1042  0.3245  0.1253
20752W        W21616   5.650  27.490   9.827 -0.0904  0.1804 -0.1970
20753W        W21617  23.339   8.826  15.470  0.4795  0.1653 -0.0827
20754W        W21618  20.412  13.528  18.578  0.1687 -0.6739  0.1610
20755W        W21619   9.242   4.202  16.638 -0.0112  0.1860 -0.0192
20756W        W21620  12.279  10.337  10.849  0.0317  0.0300 -0.2239
20757W        W21621  14.071  23.768  23.576  0.0252  0.2672 -0.0160
20758W        W21622  24.462   9.192   9.755  0.1262  0.0947 -0.1638
20759W        W21623   0.637   0.403  28.024 -0.2013  0.3977 -0.0700
20760W        W21624   3.113  20.409  19.224 -0.2533  0.3634 -0.1852
20761W        W21625  19.703  11.724  17.639 -0.1502 -0.0998  0.0940
20762W        W21626   7.523  14.139  17.022 -0.1738  0.0321  0.0016
20763W        W21627   0.065  24.969   7.553 -0.1306 -0.3527  0.1406
20764W        W21628  26.052  18.607  13.024  0.0961 -0.0154 -0.0022
20765W        W21629  16.478  22.448  27.662 -0.1146 -0.2161  0.2246
20766W        W21630  28.485  11.130  14.957  0.1881 -0.2888 -0.4118
20767W        W21631   6.000   2.641   0.830 -0.3390  0.1384  0.1250
20768W        W21632  16.747  15.767   3.340 -0.0307  0.1630 -0.0645
20769W        W21633  10.609  10.069  20.590  0.2072  0.2161 -0.0471
20770W        W21634  10.679  23.540   4.757 -0.2093  0.1446 -0.0513
20771W        W21635  21.137  12.867  21.763  0.1012  0.2678 -0.0077
20772W        W21636  17.844  14.206  17.501 -0.2838  0.0275  0.0527
20773W        W21637  18.878   4.262  24.329  0.1613 -0.2643  0.1327
20774W        W21638  19.857   5.238  24.596  0.0588 -0.1399  0.0223
20775W        W21639   8.947  17.077  10.551 -0.0909 -0.0237 -0.3122
20776W        W21640  20.990  10.570  28.233  0.0107 -0.0824 -0.0215
20777W        W21641   5.443   7.450  23.573 -0.2541 -0.0230 -0.3282
20778W        W21642  17.444  22.873  24.710 -0.0939 -0.4851  0.0733
20779W        W21643  12.159  13.620  17.322 -0.3410  0.1212 -0.1779
20780W        W21644  13.261   3.302  26.275 -0.0784 -0.2483  0.0122
20781W        W21645  29.122  28.687  20.013 -0.1329 -0.0157  0.0361
20782W        W21646  22.687  10.610   5.073 -0.0081  0.1554  0.0951
20783W        W21647  18.242   2.947   3.755 -0.0315 -0.1895 -0.0538
20784W        W21648  12.709  23.554  28.332 -0.1231  0.0169 -0.2193
20785W        W21649   0.593  15.671  18.347 -0.0444  0.3245 -0.4097
20786W        W21650  28.561   9.150  17.889  0.0531 -0.2595 -0.1477
20787W        W21651   8.524  26.471  20.837  0.1880  0.0760 -0.0293
20788W        W21652   2.496  23.640  18.331  0.0567  0.1320 -0.1346
20789W        W21653  19.221   0.384  16.719 -0.0063 -0.1076 -0.0519
20790W        W21654  23.417  17.140  25.815 -0.2223 -0.0230  0.0788
20791W        W21655  19.608  20.295  19.954  0.2717 -0.3997  0.1426
20792W        W21656  12.201  11.309  16.674  0.2731 -0.1091  0.0268
20793W        W21657  24.394   3.990   3.883  0.2047 -0.0603 -0.0039
20794W        W21658   5.418  27.234   4.826  0.3837 -0.0412 -0.0985
20795W        W21659   3.485  16.747  16.244  0.4343  0.3717 -0.0962
20796W        W21660   5.069  10.573  27.566 -0.0865 -0.1206 -0.0165
20797W        W21661  19.514   3.225  16.082  0.1513  0.2377 -0.0254
20798W        W21662  22.470  10.867  23.948  0.0535  0.0169  0.4085
20799W        W21663   7.069  14.821  23.238  0.2269 -0.2690  0.0750
20800W        W21664   7.749   9.812  20.506 -0.1443 -0.2283  0.0854
20801W        W21665   7.493   6.664  26.094  0.3209 -0.2130 -0.1282
20802W        W21666  10.500  15.993  15.461  0.0566  0.3666 -0.2141
20803W        W21667  12.524  18.652  10.272  0.2164  0.1548  0.4021
20804W        W21668  17.645   5.357  18.022  0.2644 -0.0432  0.1341
20805W        W21669   5.273  24.708  10.888 -0.1517 -0.2102 -0.2659
20806W        W21670  12.614  27.102  26.232  0.0000  0.1028 -0.0238
20807W        W21671   6.538   4.734  15.884  0.0132  0.3675 -0.3880
20808W        W21672  26.282  11.931   4.973 -0.0875  0.0656 -0.0234
20809W        W21673  16.916  20.336  17.617  0.1647 -0.2278 -0.2021
20810W        W21674  20.828   1.137  23.104  0.0177  0.2044  0.2437
20811W        W21675  10.001   7.768  20.453 -0.0887  0.1370 -0.1556
20812W        W21676  22.466  20.826  13.545 -0.1659 -0.1752 -0.1904
20813W        W21677  27.094  21.076  20.477  0.2760 -0.0600  0.0135
20814W        W21678   7.944  17.287  29.088  0.2180  0.0920  0.2488
20815W        W21679  28.780  12.392   4.797  0.2887  0.0247  0.0025
20816W        W21680   2.451   3.177  18.254  0.0691  0.2238  0.0046
20817W        W21681  22.037  20.014   4.535  0.4183 -0.5769  0.2203
20818W        W21682   9.166  26.536  17.005  0.2137 -0.0555  0.0745
20819W        W21683  26.882  13.672  27.150  0.1001 -0.0197 -0.1617
20820W        W21684   8.382   2.730  22.070  0.1322  0.3300 -0.0343
20821W        W21685  13.754  11.673   3.423  0.0847 -0.1671 -0.1736
20822W        W21686   6.280   6.283   9.164  0.2503 -0.0825  0.1432
20823W        W21687  19.437  26.716   2.760  0.5818  0.1005  0.1253
20824W        W21688  20.199  20.145   8.927 -0.0945 -0.1444 -0.0417
20825W        W21689  19.758   8.647   2.856 -0.2877  0.1075  0.2660
20826W        W21690  16.497   7.776   3.729  0.0774 -0.2472 -0.0203
20827W        W21691   2.502   0.682  18.885  0.0901 -0.0319 -0.1842
20828W        W21692   8.679  16.618  13.763  0.0967  0.0141  0.0756
20829W        W21693   8.830  21.064  12.811 -0.0591  0.1104  0.0935
20830W        W21694  27.587  19.337  27.568 -0.2541 -0.2226  0.4752
20831W        W21695   9.235  15.992  13.519 -0.3017  0.0661 -0.1073
20832W        W21696   5.074  11.379  19.143  0.1254  0.0802 -0.1281
20833W        W21697  21.818  25.405  11.079  0.1461 -0.0300 -0.1929
20834W        W21698  18.575  12.798  27.689  0.0289  0.2213 -0.1563
20835W        W21699  11.423  20.106  14.816  0.2618 -0.2682  0.2367
20836W        W21700  14.438   5.193  15.464 -0.1139 -0.2272 -0.2828
20837W        W21701   5.111  18.376   3.395  0.3080 -0.0223  0.0376
20838W        W21702   8.840  20.490   0.893  0.2722  0.0737  0.2346
20839W        W21703  12.776  20.833   7.309 -0.0697  0.2544 -0.0761
20840W        W21704  19.456  19.542  20.052 -0.1430  0.1208 -0.0431
20841W        W21705  10.284   6.994  19.880  0.3026  0.1354  0.1754
20842W        W21706  18.416  28.766  16.757 -0.5522 -0.0739  0.0459
20843W        W21707   4.814  26.357   3.004  0.3414 -0.0513 -0.0043
20844W        W21708  23.641   0.728  16.073 -0.1205 -0.1565  0.0780
20845W        W21709  23.826  20.276  18.499  0.0429 -0.2397  0.1810
20846W        W21710   5.816  16.813   4.012  0.1115 -0.1586  0.1815
20847W        W21711  11.941  15.847  25.771 -0.0291  0.0749 -0.1267
20848W        W21712  12.335   1.657  13.341  0.0711 -0.0156 -0.0121
20849W        W21713  28.261  21.532   1.153  0.2043 -0.2842  0.2844
20850W        W21714  23.530  20.017  28.489 -0.1084  0.0210 -0.3819
20851W        W21715  12.731  22.653  26.297 -0.3088  0.4802  0.1782
20852W        W21716  20.388  19.488  28.470  0.1498 -0.2284 -0.2844
20853W        W21717  10.419  27.237   7.926  0.0589  0.0946  0.1722
20854W        W21718  20.396  26.267  20.126  0.0099 -0.0350  0.0671
20855W        W21719  13.564  11.462  17.639 -0.1579  0.2729  0.1165
20856W        W21720   4.488  22.530  13.072  0.3222  0.1803 -0.1221
20857W        W21721   2.017   8.883   4.547 -0.2264  0.4452 -0.3112
20858W        W21722  22.579  21.020  22.240 -0.1686 -0.1545 -0.2921
20859W        W21723  10.718  11.258  20.199  0.0589 -0.1456 -0.0034
20860W        W21724  23.754   9.569  28.499  0.0253  0.0713 -0.1118
20861W        W21725  16.272  19.751  14.458  0.1977  0.2018 -0.1695
20862W        W21726   3.674  19.830   1.475 -0.2884 -0.0043  0.1673
20863W        W21727   8.409  26.710  22.502  0.2855  0.0866 -0.2110
20864W        W21728  12.982  29.002  19.941 -0.1604  0.3237  0.2048
20865W        W21729  13.777   4.064   2.523  0.1917  0.0424  0.0864
20866W        W21730  10.447  24.600   0.382  0.0286  0.1107 -0.0031
20867W        W21731   7.926  18.977  13.006  0.1328 -0.1324  0.1630
20868W        W21732  23.670  17.513   0.545 -0.2538  0.1873  0.2054
20869W        W21733  15.487  19.334   1.922 -0.0717 -0.0117  0.0030
20870W        W21734   4.967  24.676   4.113  0.0263  0.2630 -0.2154
20871W        W21735  15.870  22.731  11.541 -0.1326  0.0821  0.2033
20872W        W21736   3.466  24.425   4.934 -0.2552  0.5016  0.0720
20873W        W21737  22.033  29.024  13.836 -0.0486  0.1651  0.0685
20874W        W21738   5.614  16.813  15.025  0.0733 -0.0372  0.3216
20875W        W21739  25.473  28.260   7.244 -0.1276 -0.1388 -0.1267
20876W        W21740  27.185  20.433  14.133  0.0363  0.0560 -0.0876
20877W        W21741  14.272  19.009   3.142  0.0399  0.0248 -0.0510
20878W        W21742   9.170  19.464   0.798  0.0754 -0.2771 -0.1522
20879W        W21743  14.266  16.131  20.128 -0.3136 -0.1581 -0.4384
20880W        W21744  20.084  26.613  11.363  0.1624  0.4488  0.0664
20881W        W21745   9.169  13.310   9.779  0.0495 -0.3147  0.0212
20882W        W21746  15.466   1.337  24.337 -0.0669  0.1699 -0.0658
20883W        W21747   2.750  19.992  17.769  0.0735 -0.0170  0.0097
20884W        W21748   3.136   8.840  14.481 -0.0109 -0.0447 -0.1909
20885W        W21749  27.201   5.916  26.028  0.1902 -0.0016  0.1572
20886W        W21750  22.849   6.801  17.515 -0.0570  0.1737  0.0076
20887W        W21751   0.783   5.018   2.534  0.2800 -0.0536  0.2024
20888W        W21752   1.113  18.966  28.217  0.0584 -0.1359 -0.3547
20889W        W21753  17.640   0.122   1.298 -0.2680  0.2417 -0.0357
20890W        W21754  19.599  18.156  21.880  0.1846 -0.0075 -0.0033
20891W        W21755  20.335  12.749  11.172  0.0437 -0.0715  0.1539
20892W        W21756  19.124  28.585   0.999 -0.1401 -0.0636 -0.1205
20893W        W21757  18.759  18.161   3.761  0.0758  0.1168  0.0070
20894W        W21758  26.817  18.275  28.820 -0.0932 -0.2593  0.0181
20895W        W21759  27.615  17.852  16.807 -0.1682 -0.0852  0.0478
20896W        W21760  24.812  27.451   1.274  0.1698 -0.3660 -0.3160
20897W        W21761  23.802  12.787  26.142 -0.0207  0.1778 -0.0575
20898W        W21762  10.242  23.893  20.832  0.0580 -0.0544  0.1221
20899W        W21763  28.756   8.780  12.325  0.1019  0.2642  0.0241
20900W        W21764  22.416  27.685  16.003 -0.0791 -0.2170 -0.1623
20901W        W21765   4.476  21.855   5.284 -0.1879  0.1571  0.3183
20902W        W21766  27.153  17.925  27.240 -0.0470 -0.0793  0.1302
20903W        W21767  18.038  29.122  16.381 -0.0126 -0.1179 -0.2721
20904W        W21768   3.436   1.732  10.001 -0.1942 -0.2507 -0.0023
20905W        W21769  23.528   7.490  25.649  0.0115 -0.2228 -0.1587
20906W        W21770   8.181  27.977  18.099 -0.2283  0.0215 -0.2067
20907W        W21771  22.934  25.974  18.061  0.0323 -0.2284  0.1344
20908W        W21772   9.132  23.651  26.026 -0.0284  0.0145 -0.2231
20909W        W21773  17.368  25.979  17.439 -0.0629  0.1736 -0.1771
20910W        W21774  19.909  26.171  26.030 -0.0360 -0.1989  0.1689
20911W        W21775   2.170  10.538   4.379  0.0351 -0.1244  0.0290
20912W        W21776   0.836  11.451   6.554 -0.0503  0.0919  0.3510
20913W        W21777  18.634   3.495  28.516  0.0568 -0.1535 -0.0497
20914W        W21778  25.061   5.522   1.066 -0.3888 -0.0885 -0.1386
20915W        W21779  27.643  16.994  24.735  0.0210 -0.1155  0.0104
20916W        W21780  26.780  23.750  27.018  0.1767 -0.1009 -0.2631
20917W        W21781  23.248  28.214   3.942 -0.2055  0.1698 -0.0422
20918W        W21782  26.173   7.484  25.313 -0.0199  0.2112 -0.0835
20919W        W21783  13.921   9.778   7.956 -0.2580  0.1317  0.0128
20920W        W21784  25.607  12.405  17.844 -0.1394 -0.2392 -0.0649
20921W        W21785  28.062   5.009   1.457  0.2473 -0.2076  0.0632
20922W        W21786  17.124  26.700   3.229 -0.1302 -0.1355  0.0334
20923W        W21787  26.184  25.818   9.446  0.0676 -0.1621 -0.2875
20924W        W21788   7.240  12.378  20.090  0.3717  0.3179 -0.1071
20925W        W21789  21.247  25.014   2.825 -0.1416  0.3492  0.0205
20926W        W21790   6.171  25.740   6.422  0.1041 -0.1218 -0.2440
20927W        W21791  16.439  16.443  18.937  0.0243  0.1277  0.2201
20928W        W21792  22.089  26.429  17.377  0.0414 -0.2094  0.1179
20929W        W21793  25.449  24.332   6.295 -0.1057  0.0261 -0.1035
20930W        W21794   5.721  28.156  22.236 -0.1061  0.1079  0.2243
20931W        W21795   8.134  22.326   9.428  0.0612  0.0893 -0.0359
20932W        W21796   6.117  26.618  28.368 -0.1938 -0.3776 -0.1376
20933W        W21797  10.044  11.588  28.723 -0.1148 -0.1903  0.1300
20934W        W21798  13.897  20.747   2.287 -0.1028  0.4417  0.2355
20935W        W21799   5.526  14.384  18.563 -0.3044 -0.3033 -0.0217
20936W        W21800  17.378  17.131  11.097  0.0928  0.2023 -0.3362
20937W        W21801   9.075  28.853  23.719 -0.0657  0.0428 -0.5648
20938W        W21802   5.900  15.097  10.734  0.1604  0.1089  0.1118
20939W        W21803   7.371   1.028  19.268 -0.0030 -0.0281 -0.1756
20940W        W21804  16.763  12.404  20.061 -0.0963 -0.0674 -0.3404
20941W        W21805   1.761  21.955   1.059 -0.2729  0.2133  0.1145
20942W        W21806  26.550   0.039  18.509  0.0739  0.2762  0.0963
20943W        W21807   8.963  20.574  18.873  0.1585 -0.3061  0.0306
20944W        W21808  25.395  18.740  22.711 -0.1321  0.2652  0.0728
20945W        W21809   3.009  13.032  26.640 -0.1634 -0.2359 -0.0514
20946W        W21810  18.846  14.201  12.307  0.0570  0.0857  0.3394
20947W        W21811   5.971  11.627  11.592  0.0681 -0.0223 -0.0981
20948W        W21812  29.135  28.260  14.990 -0.0762 -0.0989  0.1312
20949W        W21813   7.818   4.886   6.114 -0.0609 -0.3235 -0.0075
20950W        W21814  14.729  22.012   4.029 -0.0556 -0.1045 -0.3422
20951W        W21815   4.475  16.065  22.007  0.1773  0.1671  0.0457
20952W        W21816   7.561  21.295  19.768  0.1423  0.1666 -0.2337
20953W        W21817  10.785   3.468  19.954 -0.2806  0.1186  0.1639
20954W        W21818   4.039  10.364  14.352  0.1846  0.0828 -0.2838
20955W        W21819   7.420  24.642  15.480  0.0885 -0.0535  0.2327
20956W        W21820   7.903  29.075  12.754  0.1468  0.1415 -0.4820
20957W        W21821  20.729  25.250  29.004  0.1853 -0.4356 -0.1818
20958W        W21822  14.626  10.969  23.430  0.2239 -0.5418  0.0483
20959W        W21823  11.110  16.984  26.939 -0.0579  0.1393 -0.0093
20960W        W21824  11.634  20.411   1.851  0.0780  0.0936  0.2750
20961W        W21825   2.767   5.858  22.946  0.1153 -0.0809 -0.0338
20962W        W21826  20.469   1.432  25.648 -0.1617 -0.0055  0.0666
20963W        W21827  15.325   8.852  10.673 -0.1567  0.4789 -0.3650
20964W        W21828   6.090  10.483   9.798 -0.0975 -0.2622  0.0909
20965W        W21829  12.485  15.471  14.021  0.1113  0.0400  0.0342
20966W        W21830  13.363  23.255  10.696 -0.2665  0.1897 -0.3707
20967W        W21831   9.051  23.693   9.719  0.1213  0.0611 -0.0762
20968W        W21832  23.493  26.156  24.654 -0.1295  0.1362  0.0229
20969W        W21833  16.589   2.188  18.122  0.2019  0.0873  0.0388
20970W        W21834   8.551  15.159   2.147 -0.3459  0.0119  0.0343
20971W        W21835  25.650  17.448   3.067 -0.1502 -0.0324  0.2380
20972W        W21836  24.254  22.932  18.440 -0.2624 -0.1263  0.0372
20973W        W21837  21.026   2.936  12.127 -0.2276  0.1791  0.0385
20974W        W21838  17.683  20.553  20.073  0.5079 -0.1224 -0.4065
20975W        W21839  21.361   4.534  17.802 -0.0134  0.1283 -0.0619
20976W        W21840  11.610  18.454   7.443 -0.3244 -0.0460  0.0461
20977W        W21841  26.234  22.176  24.291  0.0734 -0.0162  0.0153
20978W        W21842  19.856  26.769  22.544 -0.0724 -0.1828  0.1110
20979W        W21843  14.176  24.040  10.534 -0.1164  0.2416  0.0614
20980W        W21844   2.851   7.488  18.596  0.2914  0.1087  0.3551
20981W        W21845  12.847  21.674  18.449  0.5391 -0.0219 -0.0784
20982W        W21846  10.719  21.122  26.251  0.0939 -0.0589 -0.0485
20983W        W21847  18.488  10.756  23.829  0.0581 -0.1032  0.0150
20984W        W21848  11.055  23.906  15.930 -0.0356 -0.1445 -0.0699
20985W        W21849   1.152  15.513  23.256  0.1131 -0.2203 -0.4619
20986W        W21850   7.588  26.961  13.303 -0.0136  0.2397  0.1959
20987W        W21851  16.909  25.571  21.736 -0.0582  0.1204  0.2837
20988W        W21852   6.397  11.466  18.717 -0.0062  0.1786 -0.1533
20989W        W21853  25.988   6.304  17.215 -0.1389  0.0495  0.0322
20990W        W21854  26.983  23.476   3.249 -0.2377  0.0617 -0.0552
20991W        W21855  16.573   8.757   2.353 -0.0093  0.2885  0.1866
20992W        W21856   7.013   8.664  11.428  0.2006 -0.4116  0.0300
20993W        W21857   7.796  12.267  24.992 -0.3487  0.2478 -0.0358
20994W        W21858   6.653  15.957  14.201 -0.0121 -0.0651  0.0214
20995W        W21859   6.889   1.180  19.208 -0.0443 -0.0850 -0.2719
20996W        W21860  29.004  23.367  21.181 -0.0619 -0.0622 -0.1048
20997W        W21861  11.056  16.705  28.928 -0.2088 -0.0707  0.2074
20998W        W21862  23.331  17.949  26.338  0.0277 -0.2464 -0.1038
20999W        W21863  21.485  25.720  28.181  0.1333 -0.1334  0.0094
21000W        W21864  12.827  15.177  18.083 -0.1328 -0.1859  0.5258
21001W        W21865   6.527   3.774  18.659 -0.0619 -0.1038 -0.2960
21002W        W21866  22.329  16.402   4.460 -0.1187  0.3281 -0.1640
21003W        W21867  13.903  21.786  16.182  0.2183  0.0672  0.0326
21004W        W21868  12.535  16.119   5.635 -0.1765 -0.3222 -0.0651
21005W        W21869  25.020  15.686  22.088  0.4602 -0.0253 -0.3178
21006W        W21870  24.742  17.621  11.483 -0.2595 -0.0515 -0.0833
21007W        W21871   8.328  13.810  15.947 -0.4597  0.4611  0.2640
21008W        W21872  20.870  17.141  12.500 -0.1829  0.1492  0.0633
21009W        W21873  26.130  17.061  22.760 -0.1265 -0.0727 -0.2938
21010W        W21874  27.356   8.878  21.980  0.0394  0.2061  0.2215
21011W        W21875  14.487  18.148  18.661 -0.1229  0.0236  0.2843
21012W        W21876   3.952  10.656  26.398  0.0046  0.2034  0.0530
21013W        W21877   5.823  24.117  17.593  0.2332 -0.2531  0.0013
21014W        W21878  27.587  14.513  17.097 -0.1616  0.1487  0.0368
21015W        W21879   4.367  21.568  24.434  0.2960  0.0527  0.1212
21016W        W21880  10.124  15.963  20.961  0.2083  0.0436  0.0127
21017W        W21881  15.944  22.243   2.052  0.2902  0.1056 -0.2409
21018W        W21882  20.235  12.957   5.793  0.2754  0.1254  0.3776
21019W        W21883  23.061  16.844   1.996  0.0464 -0.3464  0.0813
21020W        W21884  12.555   1.019   3.983  0.1390  0.2217 -0.0197
21021W        W21885  16.467  27.613  27.884 -0.0172  0.0994 -0.3268
21022W        W21886  23.057  15.686   0.036 -0.0749 -0.1561 -0.0527
21023W        W21887   9.357  26.449  17.458 -0.1528  0.0176  0.0964
21024W        W21888  20.909   1.637  13.021  0.4928  0.3221 -0.0775
21025W        W21889  25.451   4.970   1.443  0.2096  0.0920  0.5172
21026W        W21890   2.747  10.629  12.173  0.1022 -0.1715 -0.1363
21027W        W21891  12.173  22.779   1.703  0.2292  0.1397  0.2485
21028W        W21892  12.005  13.938   2.677 -0.2212  0.0462  0.0448
21029W        W21893  17.760   4.844  13.116  0.0491 -0.4466  0.0274
21030W        W21894   6.103   5.783   2.877 -0.1501 -0.0475  0.1965
21031W        W21895  15.357  19.258   4.497 -0.1214 -0.0923 -0.2469
21032W        W21896  25.937  14.235  26.201  0.4262  0.0445  0.1736
21033W        W21897  19.017  15.681   4.113 -0.3176  0.3565  0.0887
21034W        W21898  27.967  24.600  20.589 -0.1802 -0.0690 -0.1655
21035W        W21899  20.989  23.534  27.680 -0.1231 -0.1081 -0.1856
21036W        W21900  12.758  21.852  26.309 -0.0127  0.3386 -0.0283
21037W        W21901   0.534  13.999   0.162 -0.2335  0.2967  0.1057
21038W        W21902  28.927  16.595  29.019 -0.0662 -0.0393 -0.3156
21039W        W21903  23.244  28.796  22.113 -0.4313  0.1263  0.2113
21040W        W21904   1.052  24.209  24.512 -0.2242  0.0279  0.1193
21041W        W21905   5.214  13.219  16.360 -0.0406  0.0627 -0.1366
21042W        W21906  18.087  24.925  15.329 -0.3014 -0.3047 -0.1131
21043W        W21907  12.122  13.383  18.604  0.0123 -0.0978  0.1574
21044W        W21908  24.621  18.502  19.398 -0.0452 -0.0600  0.0973
21045W        W21909   9.757   1.994   6.132  0.0658 -0.0836 -0.1267
21046W        W21910   7.445  22.501  27.593 -0.1751 -0.0135 -0.1735
21047W        W21911  23.380  28.619   5.515 -0.1831  0.2287  0.2518
21048W        W21912   8.504  10.329   4.738  0.2790 -0.2559  0.2709
21049W        W21913  23.765  12.028  11.372  0.1292 -0.0442  0.2141
21050W        W21914  16.223  24.317   5.386 -0.0401  0.0423  0.0530
21051W        W21915  16.023  11.945  14.455 -0.0705 -0.5401  0.2539
21052W        W21916   7.712   9.329   4.244 -0.1809  0.2756 -0.2450
21053W        W21917  23.214  22.966  26.968  0.0178  0.0910 -0.1095
21054W        W21918  20.064  17.124   4.765  0.2881  0.4923  0.1386
21055W        W21919  11.677   9.165  11.517 -0.2632 -0.2605 -0.0190
21056W        W21920  13.822  21.661  23.436 -0.1020 -0.0035  0.1234
21057W        W21921  18.458  22.772  25.917 -0.0989  0.1475 -0.1481
21058W        W21922  12.199  19.788  13.758  0.0499 -0.1882  0.0827
21059W        W21923  11.692  21.411   0.783 -0.2389  0.0002 -0.0723
21060W        W21924  10.471  20.318  10.663 -0.1962  0.2633 -0.2221
21061W        W21925   7.666  11.316  23.984 -0.2125 -0.4277 -0.2876
21062W        W21926   9.781   2.637   4.920 -0.2949  0.0210  0.2039
21063W        W21927   8.069   0.657   4.055  0.2528 -0.1860  0.1233
21064W        W21928  10.306  22.693  13.411 -0.3305  0.1714  0.1314
21065W        W21929   9.665  29.071  15.240  0.3342 -0.2811 -0.0155
21066W        W21930   0.942   3.096  11.676  0.1832  0.0821  0.0927
21067W        W21931   6.832  26.180   8.163 -0.1726  0.0425 -0.1025
21068W        W21932  17.737  16.179  10.644 -0.0608 -0.1650 -0.0118
21069W        W21933   9.472  18.070   8.465 -0.1341 -0.0341 -0.1069
21070W        W21934   5.910  25.257  10.420  0.1057 -0.1795 -0.1293
21071W        W21935  12.269  20.773  16.960  0.3522  0.0791  0.0956
21072W        W21936   5.432  15.311  18.493 -0.0453  0.1525 -0.0598
21073W        W21937   6.576  26.445  17.062  0.0656 -0.3356 -0.0463
21074W        W21938  18.407  27.049  24.942 -0.3043  0.1180  0.2061
21075W        W21939  20.121  14.542  16.865 -0.1065 -0.0903 -0.3179
21076W        W21940   8.530   8.927   5.185 -0.2630 -0.0362 -0.1735
21077W        W21941   4.822  18.478  20.809  0.0644 -0.0490 -0.0426
21078W        W21942  13.619  11.292  19.543 -0.2343  0.0528 -0.1310
21079W        W21943  12.052  26.127   5.959 -0.1403  0.0106 -0.0126
21080W        W21944  21.215  19.757  21.526 -0.1882 -0.1226 -0.0847
21081W        W21945  17.693   7.506  12.750 -0.1031 -0.0301 -0.1835
21082W        W21946  17.087  24.856  25.775  0.1514 -0.0663 -0.0165
21083W        W21947  14.958  11.224   0.287 -0.2155 -0.0928 -0.3144
21084W        W21948  12.010  25.090  28.427  0.0245 -0.4765 -0.3330
21085W        W21949  12.884   5.924  16.136 -0.0196 -0.3777 -0.0882
21086W        W21950   4.850  14.830  23.819  0.1433  0.0436 -0.0818
21087W        W21951  28.702  16.392  27.521 -0.0068 -0.3488 -0.0669
21088W        W21952  27.017  15.695  26.416 -0.1321 -0.1915  0.0428
21089W        W21953  25.491   6.888  11.768 -0.0493  0.0095 -0.0641
21090W        W21954  22.772  14.836  17.452  0.0790  0.0668  0.0915
21091W        W21955  12.717  10.031   3.407 -0.0716  0.3095  0.0717
21092W        W21956   7.141   8.446  22.417  0.0749  0.0713 -0.0318
21093W        W21957  18.964   8.877   0.184  0.0788  0.1412  0.3747
21094W        W21958   8.144  13.809  25.854  0.0924 -0.3820  0.0644
21095W        W21959   3.862   2.694   1.137 -0.2241  0.0324 -0.2091
21096W        W21960   4.325  27.558  28.375  0.2070 -0.2671  0.1483
21097W        W21961  27.664  25.660  18.118 -0.3142 -0.1907 -0.0590
21098W        W21962   8.049  18.530   3.502  0.1677  0.0724  0.3989
21099W        W21963   8.453   8.200  21.505 -0.2314  0.1400 -0.0280
21100W        W21964  20.944  25.219   3.762  0.0176 -0.1673  0.0530
21101W        W21965  23.973  12.561  24.867  0.1571 -0.0131  0.0681
21102W        W21966  17.408   5.211  26.509 -0.0407  0.3344 -0.0772
21103W        W21967  19.642  25.462  22.375 -0.2888 -0.0212  0.0750
21104W        W21968   1.373  21.674  26.934  0.1823  0.0327 -0.0743
21105W        W21969  22.030   2.204  16.103 -0.2150  0.1072 -0.0242
21106W        W21970   9.156   1.873   0.169  0.3689 -0.0655  0.1240
21107W        W21971   1.784  20.427   5.523  0.3225 -0.1282  0.1599
21108W        W21972   4.932  21.519   0.319  0.0794  0.0002 -0.1563
21109W        W21973  20.638  15.649  16.884 -0.1009  0.2303  0.2386
21110W        W21974  19.547   2.101  18.803  0.2693  0.1716 -0.0895
21111W        W21975  11.396  11.009   0.690 -0.0728  0.0744  0.0885
21112W        W21976  22.855  13.683  24.763 -0.1995 -0.1612 -0.2676
21113W        W21977  18.402  21.671  25.170 -0.2322  0.1116  0.2920
21114W        W21978   9.793  21.579  10.062 -0.2167 -0.5420  0.2742
21115W        W21979  24.442  25.260  13.176  0.1176  0.0523  0.2461
21116W        W21980  17.343   2.823  25.159 -0.2598 -0.4314  0.1577
21117W        W21981  26.475  14.514   1.500 -0.2493 -0.0476 -0.1537
21118W        W21982   5.194   0.948  10.464 -0.1687  0.2002 -0.1967
21119W        W21983  16.008  19.885  11.413  0.2988 -0.0920  0.1456
21120W        W21984  26.267   9.739  28.955  0.3477 -0.0167  0.1488
21121W        W21985   3.516  13.728  17.852  0.1928 -0.3252 -0.2325
21122W        W21986   8.613  21.560  26.059 -0.1664  0.1040  0.2879
21123W        W21987  15.767  22.438  18.234 -0.2190  0.1087  0.0259
21124W        W21988  15.594  21.311  27.714 -0.0983  0.1596  0.1400
21125W        W21989  17.661  17.450  21.107 -0.0730  0.4305  0.2571
21126W        W21990  22.163  10.011   3.330  0.1197  0.2645 -0.0205
21127W        W21991   4.201  28.728  28.399  0.1572  0.2707 -0.1102
21128W        W21992  14.320  22.205  17.298  0.0111  0.2577  0.0273
21129W        W21993   5.325  20.985  28.586  0.0115  0.0038  0.1543
21130W        W21994  15.877   1.355   3.479 -0.2389 -0.3785 -0.0344
21131W        W21995  26.598  20.982   4.978 -0.1926  0.0123 -0.1206
21132W        W21996  24.258  13.149  23.440 -0.1833 -0.2855 -0.0198
21133W        W21997   7.074  21.999  16.523  0.2627  0.1164  0.0083
21134W        W21998   2.308  12.154  27.759  0.2134 -0.0746  0.1107
21135W        W21999  16.839   2.723  12.760 -0.1460 -0.2594  0.1866
21136W        W22000   9.459  19.423   2.278 -0.0319 -0.3836 -0.1055
21137W        W22001  23.572   1.199   9.364  0.0630 -0.0310 -0.1052
21138W        W22002  17.713  28.522  12.658  0.1536  0.0865 -0.0141
21139W        W22003  10.962  28.720  20.854  0.0183 -0.0392 -0.0487
21140W        W22004  27.031  19.131  28.819  0.4209 -0.1444 -0.1151
21141W        W22005   3.240  22.587  22.350 -0.1813  0.1255  0.0676
21142W        W22006  10.199  16.493  25.408 -0.2107  0.1538  0.2241
21143W        W22007  13.152  14.155  15.517 -0.0023 -0.1471 -0.1853
21144W        W22008  16.471  19.368  24.288 -0.0356 -0.1394  0.1557
21145W        W22009  29.065  17.253  16.685  0.1181 -0.0672  0.3420
21146W        W22010   9.281  18.873  24.749 -0.1688 -0.1254  0.0085
21147W        W22011   2.014   6.883  25.901  0.1511 -0.1427 -0.1279
21148W        W22012  22.568  21.789   5.887 -0.1763  0.3267 -0.2197
21149W        W22013  23.297   2.814   1.103  0.1556 -0.0101 -0.1420
21150W        W22014  18.725  22.175  23.293 -0.0590  0.0676 -0.0307
21151W        W22015   7.310   7.441  13.701 -0.5588 -0.0961 -0.0597
21152W        W22016   8.645  13.928  19.839 -0.2150 -0.0794  0.1036
21153W        W22017   2.751  15.014  19.496 -0.1552  0.0496 -0.1480
21154W        W22018   9.966  26.540  27.563  0.1927 -0.3202 -0.0831
21155W        W22019  12.021  26.202  18.535  0.0235  0.0123 -0.1065
21156W        W22020  28.910   3.948  28.218  0.0923 -0.2142 -0.1090
21157W        W22021   7.548  19.861  19.737 -0.0399  0.1154  0.0261
21158W        W22022  20.822  12.374   9.611  0.2785 -0.0607  0.1946
21159W        W22023   8.100  20.358   3.534 -0.0939  0.1372 -0.0379
21160W        W22024   6.746  28.369  16.316  0.1372 -0.2269 -0.0564
21161W        W22025  15.744   2.427  25.546  0.1819  0.3035 -0.2295
21162W        W22026  16.620   0.491  14.457 -0.1260  0.0312  0.1284
21163W        W22027  19.294  21.336   6.715  0.0370  0.1025  0.2663
21164W        W22028   5.211   1.837   1.847  0.1130 -0.1265  0.0019
21165W        W22029  18.264  18.497  13.753 -0.0810 -0.0472  0.1563
21166W        W22030  17.533  15.615   5.166  0.1760 -0.0461  0.0658
21167W        W22031   9.912  27.619  22.791 -0.4203 -0.0640 -0.3408
21168W        W22032   4.786  22.744  23.643  0.0136  0.2675  0.0346
21169W        W22033  12.318  10.254  19.902 -0.0725 -0.1793 -0.1122
21170W        W22034  10.483  23.371  12.632  0.0559  0.0745  0.1172
21171W        W22035  17.579  26.844  13.237 -0.1806 -0.4373  0.1143
21172W        W22036   6.179  24.463  20.164 -0.0497  0.0333  0.3671
21173W        W22037  25.192  25.666   9.325 -0.0070 -0.0303 -0.3422
21174W        W22038   9.086   4.716   2.948 -0.0870 -0.3484  0.0795
21175W        W22039  20.306   3.277  29.000  0.0326 -0.2215 -0.0389
21176W        W22040  11.711  14.823   6.479  0.2145  0.3102 -0.1582
21177W        W22041  21.357  25.935  23.686 -0.2151  0.1812  0.0434
21178W        W22042  20.415  16.301  20.956 -0.0379  0.1681  0.0583
21179W        W22043  11.841  18.145  24.401 -0.1250 -0.0236 -0.3610
21180W        W22044  12.285   6.079  18.264  0.4257 -0.0735  0.0963
21181W        W22045  21.034  24.600  14.721 -0.1226  0.3147 -0.1259
21182W        W22046   6.414   8.297   2.676  0.1912 -0.0403  0.2268
21183W        W22047   7.224  18.760  22.781  0.1271 -0.0739  0.0091
21184W        W22048  22.190  25.850  23.542  0.1022 -0.2076  0.1431
21185W        W22049  14.433  11.329  23.671 -0.0006  0.0014  0.0507
21186W        W22050  14.522  24.432  12.995  0.1575 -0.0264  0.1017
21187W        W22051  17.312   4.679  14.177  0.0944  0.0691 -0.3637
21188W        W22052   8.284   7.552  22.831 -0.4221 -0.3106  0.0171
21189W        W22053   3.954  28.605  23.878 -0.1426 -0.1368 -0.1307
21190W        W22054   3.662  23.201  20.248  0.0639  0.1072  0.1346
21191W        W22055  25.880  28.759   3.092 -0.2052 -0.2022 -0.2033
21192W        W22056  28.311  17.491   0.851 -0.2145  0.0223  0.0498
21193W        W22057   5.523   6.115   1.889 -0.1258  0.3229 -0.0674
21194W        W22058  18.660   7.338  17.065 -0.0464  0.2240  0.1069
21195W        W22059  12.012  27.567  16.931  0.0152  0.1953 -0.2044
21196W        W22060  15.939  22.101  22.789 -0.0400 -0.0103  0.3551
21197W        W22061  20.272   9.202  14.366  0.4140 -0.2602  0.3078
21198W        W22062   4.303  25.599  22.254 -0.1944  0.0330  0.0258
21199W        W22063  28.608  19.854  25.560 -0.0415 -0.1209  0.1362
21200W        W22064  20.446  18.974  28.288 -0.0146  0.0586 -0.0531
21201W        W22065  17.049  24.022  27.610  0.3533 -0.0870  0.0262
21202W        W22066   7.936   0.491  19.963 -0.1003  0.1293  0.0231
21203W        W22067  11.133  16.020  11.014  0.0359 -0.3603  0.0518
21204W        W22068   3.119  13.696  18.189 -0.1136 -0.0422  0.0676
21205W        W22069  23.772  26.222  12.646  0.0562 -0.1492  0.0621
21206W        W22070   4.324   2.089  22.330 -0.3863  0.1002 -0.1866
21207W        W22071  28.545  29.063  17.745  0.0894  0.3316  0.0018
21208W        W22072  12.314  20.761  27.789  0.0045 -0.0181 -0.2451
21209W        W22073  26.273   6.722  18.658  0.2289  0.1661 -0.0467
21210W        W22074  15.886   8.206  10.335  0.0141  0.1277  0.3812
21211W        W22075  24.514  10.123  25.374  0.1073  0.0204 -0.0637
21212W        W22076  14.229  11.248   9.288  0.3899  0.2058  0.1579
21213W        W22077  26.132  25.588  15.278 -0.1660  0.0280 -0.1179
21214W        W22078   6.156   7.046  18.986 -0.0159  0.0534 -0.1231
21215W        W22079  22.220  19.379   1.678  0.2693 -0.0746  0.0965
21216W        W22080  15.766   5.736  14.568  0.0407 -0.1880 -0.0190
21217W        W22081  25.042  14.040  18.659  0.3002 -0.0812  0.3141
21218W        W22082  19.971  19.006  16.060 -0.0935  0.1290 -0.3361
21219W        W22083  12.501  10.836   1.898 -0.2261  0.1019 -0.1791
21220W        W22084   2.782  23.773  28.986  0.1759  0.0075  0.0630
21221W        W22085  13.032   3.003  22.068  0.1689 -0.0491 -0.0376
21222W        W22086  16.018  19.876  21.997  0.0130 -0.1021 -0.2942
21223W        W22087  13.743   0.858  16.889  0.0921 -0.1512  0.0149
21224W        W22088  12.033  17.946  22.552 -0.2068  0.2502 -0.2371
21225W        W22089   8.686   4.814  22.550 -0.1119 -0.1939  0.0573
21226W        W22090  29.119   3.764   4.340  0.3014 -0.0678 -0.2448
21227W        W22091  23.039  10.405   4.753 -0.1772 -0.2762 -0.0426
21228W        W22092  20.546  17.033  13.484 -0.0393  0.3385 -0.1581
21229W        W22093  26.173  17.679   4.846 -0.1925  0.2134 -0.0505
21230W        W22094  11.969  15.758  24.268 -0.2071  0.2511  0.1075
21231W        W22095  25.516  26.770  20.750  0.0472  0.0869  0.1559
21232W        W22096  15.814  23.419  22.385  0.0563 -0.1269 -0.0626
21233W        W22097   8.944  27.737  22.891  0.0238 -0.1325  0.0186
21234W        W22098   4.247   2.201  18.660  0.0886 -0.0416  0.0612
21235W        W22099  13.448   0.312  18.071 -0.2039  0.2928 -0.0092
21236W        W22100  21.855   5.092  22.088  0.0549  0.0350  0.2463
21237W        W22101  16.999  20.716   2.879 -0.0270 -0.0119 -0.0756
21238W        W22102  10.106  15.962  27.212  0.0014  0.1730  0.0267
21239W        W22103   8.638  16.478  12.405  0.2937 -0.0477 -0.1081
21240W        W22104  22.847  15.837   4.345  0.0926  0.0879  0.1019
21241W        W22105   4.252   5.486  13.974 -0.0566  0.0263  0.1118
21242W        W22106  29.142   6.808   0.475 -0.3122 -0.1762  0.0473
21243W        W22107  22.313  25.165   6.114  0.1036  0.0922  0.3258
21244W        W22108  19.779  17.745  17.992 -0.1101  0.2142 -0.1794
21245W        W22109  26.128   8.104  18.779  0.3214  0.0170  0.2394
21246W        W22110   0.123  17.922  19.134 -0.0284  0.0142  0.0581
21247W        W22111  28.903  20.166   2.064 -0.2026  0.0719  0.0200
21248W        W22112  25.957   2.950  17.312  0.2488 -0.1789 -0.2460
21249W        W22113  23.733  27.713  11.663 -0.2051 -0.2097 -0.1372
21250W        W22114  20.554   9.017  17.296 -0.1231  0.1072 -0.0058
21251W        W22115  21.678  16.756   8.645  0.1813 -0.0815  0.0802
21252W        W22116   3.232  18.846  24.631  0.1215 -0.1421  0.0832
21253W        W22117  17.129   5.961  20.892  0.1617  0.3212  0.2944
21254W        W22118  28.023  16.640  28.589  0.0303 -0.2830  0.1600
21255W        W22119  22.432  22.665  22.984 -0.3282 -0.1608 -0.2203
21256W        W22120   2.699  12.138   2.153  0.1779 -0.0991 -0.2251
21257W        W22121  25.821  14.216   7.773 -0.2443  0.0397  0.0799
21258W        W22122  13.663  21.847  19.311 -0.0413  0.0849  0.0555
21259W        W22123   2.277   9.800  24.183 -0.0411 -0.0810  0.0363
21260W        W22124  18.258  28.142  16.692  0.0848  0.1069  0.1680
21261W        W22125  14.772   9.842  28.192 -0.0848 -0.0233  0.2085
21262W        W22126   9.681  13.337  16.826  0.0808 -0.1184 -0.1558
21263W        W22127   7.616   6.802  24.335  0.1908 -0.1089  0.0358
21264W        W22128   7.831   9.627   9.094  0.0732 -0.1149 -0.0620
21265W        W22129  20.277   9.002   4.813  0.0444  0.1782  0.0738
21266W        W22130   2.729  25.247  17.775  0.0185 -0.2826 -0.0089
21267W        W22131   2.847  28.677  28.178 -0.1758 -0.2369 -0.0241
21268W        W22132   4.770  19.610  13.939 -0.2807  0.4298  0.2813
21269W        W22133  17.256   7.306  20.715 -0.1266 -0.0447  0.1040
21270W        W22134  17.940  28.435   5.134 -0.2261  0.0614 -0.2111
21271W        W22135   7.590  15.603  12.880 -0.1206 -0.0567 -0.4611
21272W        W22136   2.440   1.082  24.245 -0.3244  0.1461  0.0243
21273W        W22137   3.712  24.565  27.732  0.1960 -0.2687  0.2253
21274W        W22138  10.664  25.135  28.598 -0.0949 -0.0475 -0.1258
21275W        W22139  22.038   2.077  10.313 -0.1528  0.1804  0.1832
21276W        W22140  19.898  10.772  16.877 -0.0525  0.1419 -0.4336
21277W        W22141  16.120   4.640   8.262 -0.1029 -0.2317 -0.0133
21278W        W22142   8.766  16.272  23.186 -0.1147  0.0124  0.1189
21279W        W22143  14.301   2.505   3.383  0.0543 -0.0398 -0.1796
21280W        W22144   6.800  16.580  20.969  0.1119 -0.0909  0.0856
21281W        W22145  27.284  19.880  19.093 -0.2558  0.0451  0.2092
21282W        W22146   4.331  25.071  13.820 -0.3873  0.0982  0.1429
21283W        W22147  18.339  10.844   0.853 -0.0774  0.2683  0.0490
21284W        W22148  14.079  23.034  29.136  0.1147 -0.0697 -0.1153
21285W        W22149  21.158  20.287  16.688 -0.3315  0.1209  0.1010
21286W        W22150  13.868  20.170  21.538  0.0796  0.0865 -0.0446
21287W        W22151  12.257  14.271   7.979  0.1891 -0.2546 -0.0055
21288W        W22152  21.882   1.368   2.298 -0.0466 -0.0529  0.1828
21289W        W22153  14.593  26.027   5.581 -0.2973 -0.2379 -0.3528
21290W        W22154  22.834   8.721   7.444  0.0192 -0.2145 -0.0412
21291W        W22155   7.327   6.924   1.026 -0.0198  0.6346  0.1995
21292W        W22156  16.868  28.840  22.733  0.1790 -0.3439 -0.0704
21293W        W22157   7.652  28.301  15.771  0.0312  0.0192  0.2972
21294W        W22158  22.357   5.635  10.350  0.2814  0.3833  0.0284
21295W        W22159  13.495  27.633   3.494 -0.2184  0.0070 -0.1070
21296W        W22160   3.986   4.842  23.123 -0.1342 -0.0747  0.0794
21297W        W22161  27.336   6.137   5.340  0.1396  0.0302  0.1913
21298W        W22162   7.635   7.333   0.191 -0.0785 -0.0803 -0.1984
21299W        W22163   5.143   4.034  23.038  0.3931  0.1223  0.2805
21300W        W22164  23.463   7.029   2.597 -0.2004 -0.5060  0.0908
21301W        W22165   6.202  19.479  26.638 -0.0909 -0.1632  0.1391
21302W        W22166   2.232  24.434   0.332  0.0196  0.0871 -0.0156
21303W        W22167  12.717  19.522  26.800 -0.1267  0.1622  0.1177
21304W        W22168   3.053  19.142   0.845  0.1759 -0.3004  0.2705
21305W        W22169  20.470  17.266   3.126 -0.2942  0.0271 -0.1274
21306W        W22170   7.283  16.738  18.808 -0.0743  0.0560 -0.0280
21307W        W22171  20.283  19.065  22.419  0.4314  0.3341  0.0405
21308W        W22172  14.157  15.657   5.403  0.1639 -0.0030  0.0581
21309W        W22173  12.746  14.989  28.703  0.0101  0.1805  0.4376
21310W        W22174   7.801  18.214  12.568  0.0571 -0.0447  0.0985
21311W        W22175  26.294  13.056  14.911  0.0226 -0.0971 -0.0265
21312W        W22176  11.668  19.369   4.896  0.0062  0.2813 -0.0715
21313W        W22177  13.732  15.826  12.857 -0.0218  0.3191 -0.3733
21314W        W22178   7.753  12.377  27.681  0.2193 -0.0898 -0.3300
21315W        W22179  10.219  22.751  27.217 -0.1893 -0.0371  0.0653
21316W        W22180  10.369  26.873   1.659 -0.2277  0.2065  0.0452
21317W        W22181   4.970  13.493   5.889  0.0477  0.0998  0.2352
21318W        W22182  23.576  18.055  26.789 -0.1709  0.0605 -0.0302
21319W        W22183   9.377   1.424  22.715 -0.2912 -0.3668 -0.4163
21320W        W22184  10.197   5.270  15.584  0.0632 -0.3611  0.3935
21321W        W22185  12.456  14.399  19.641 -0.0205  0.1824 -0.1832
21322W        W22186  11.566  19.935  12.436 -0.0859 -0.0253 -0.0043
21323W        W22187  18.045  27.386  22.706 -0.2717  0.3360 -0.1599
21324W        W22188  11.411  18.137  19.910  0.1750  0.0080 -0.0607
21325W        W22189  17.018  28.149  25.599 -0.0369 -0.1652 -0.0162
21326W        W22190  17.443  11.286   3.240 -0.0680 -0.1327  0.2967
21327W        W22191  16.467  24.547  21.759 -0.2717  0.0176 -0.1295
21328W        W22192  27.936  22.398  21.813  0.1707  0.0628  0.2208
21329W        W22193  11.780  16.919  14.351  0.0245 -0.1214  0.0569
21330W        W22194   2.894   0.411  21.034 -0.0314  0.1470 -0.2727
21331W        W22195   5.299   8.105   7.805 -0.0161  0.2303  0.0588
21332W        W22196  12.311  21.193   4.490 -0.2302 -0.0839  0.0620
21333W        W22197  13.624  19.032  16.426 -0.2711 -0.1557  0.1191
21334W        W22198   4.810  12.895  23.854 -0.2836  0.1211 -0.1617
21335W        W22199  10.732  27.263   0.361 -0.1689  0.1639 -0.0372
21336W        W22200  15.819  17.407   9.808  0.0400 -0.0583 -0.0407
21337W        W22201  13.789   4.382  20.832  0.4349 -0.3362 -0.0580
21338W        W22202  14.254   6.764  26.130 -0.1013 -0.0925  0.1724
21339W        W22203  17.574   3.123  12.562 -0.0158  0.1432  0.0013
21340W        W22204  12.894  22.015  18.892 -0.2888 -0.1641  0.1432
21341W        W22205  14.627  19.380  26.905  0.2355  0.1763 -0.1430
21342W        W22206  17.771  20.910  13.632 -0.0760  0.0854 -0.3449
21343W        W22207  25.778  13.312   9.784 -0.1252  0.0631 -0.3418
21344W        W22208  29.090  27.242  26.884 -0.3130  0.0520  0.4142
21345W        W22209   4.109   5.280  16.660 -0.0287 -0.0158 -0.0687
21346W        W22210  13.285  12.348   9.864  0.0806 -0.3378 -0.3495
21347W        W22211  19.295   9.298  16.716 -0.1697  0.5057 -0.0336
21348W        W22212  27.410  13.934   8.925 -0.1525  0.0932  0.2996
21349W        W22213  10.610  19.577  12.591 -0.3319 -0.0425 -0.1305
21350W        W22214  25.588  19.498   9.182  0.1611 -0.0038 -0.1198
21351W        W22215  19.486  18.931  23.149  0.0453 -0.0269  0.3032
21352W        W22216   5.607  20.079  27.500 -0.2281 -0.0239  0.4077
21353W        W22217  17.303   6.983   3.254 -0.0492  0.1978  0.2572
21354W        W22218   0.336   1.721  13.263 -0.0559  0.1331 -0.0729
21355W        W22219   6.489  13.354  21.408 -0.2712  0.1819 -0.4669
21356W        W22220  13.135   2.375  19.966  0.0207 -0.2056  0.1526
21357W        W22221  18.138  12.573  24.238 -0.0262  0.2662  0.0583
21358W        W22222  19.189   7.430   8.343  0.1018  0.1950  0.0492
21359W        W22223  11.351  25.855   6.593  0.1361 -0.2389  0.0655
21360W        W22224  15.812  12.286  24.678  0.0618 -0.1962 -0.1234
21361W        W22225   9.586  19.828  28.703  0.1181  0.1337 -0.1938
21362W        W22226   5.550  23.324  24.420  0.0347  0.0307  0.0590
21363W        W22227  11.953  12.654  27.342 -0.1969 -0.1189  0.2909
21364W        W22228  10.424  17.205  26.723  0.2963  0.1236  0.2210
21365W        W22229  25.108  15.215  22.419  0.2403  0.2307 -0.4184
21366W        W22230  16.587   8.479  29.114 -0.2123  0.3508  0.0348
21367W        W22231  15.587  23.810   0.791 -0.1722 -0.0407 -0.1518
21368W        W22232  25.025  12.600   9.393 -0.0674 -0.0874 -0.1643
21369W        W22233   5.579  24.557  18.334  0.0193  0.1620  0.0490
21370W        W22234  25.849  23.623  23.761  0.0262 -0.2047 -0.0113
21371W        W22235  14.045  11.964  28.212 -0.2219 -0.0603  0.2172
21372W        W22236  17.989  22.964  11.516 -0.0970  0.1221 -0.1920
21373W        W22237  11.024   0.151   3.026  0.0947 -0.3314  0.1253
21374W        W22238   8.905  22.622  27.610 -0.0526  0.1467 -0.0704
21375W        W22239   3.919  10.514  18.545  0.0678  0.2680 -0.2238
21376W        W22240  10.444  18.421  20.146 -0.2664  0.1124 -0.3826
21377W        W22241   4.125   0.461   7.934  0.2763 -0.1464 -0.1282
21378W        W22242  18.457  16.876  21.139 -0.1374 -0.1212 -0.2551
21379W        W22243   9.748  18.989  25.629  0.1149 -0.1244 -0.0008
21380W        W22244  17.795  22.460   7.994  0.1814 -0.1018 -0.1357
21381W        W22245  15.158   2.017  27.760 -0.0889  0.5388 -0.1089
21382W        W22246   8.003  19.257  25.214  0.0804 -0.2182  0.2852
21383W        W22247  15.731  18.024  26.261  0.2030 -0.1565 -0.2301
21384W        W22248   3.527  25.419   6.332  0.0613 -0.2892  0.0502
21385W        W22249   3.620  16.095  11.780  0.0889 -0.0929  0.0583
21386W        W22250  18.456  25.340   6.811 -0.2045  0.1929 -0.0647
21387W        W22251  10.271  27.420  23.066  0.0776  0.2451  0.2148
21388W        W22252   9.123  15.948  19.258  0.2598 -0.1720 -0.2432
21389W        W22253  27.251  20.088  20.142  0.0817 -0.2646 -0.1420
21390W        W22254  18.469  17.412  15.835 -0.0597  0.3025 -0.0520
21391W        W22255   9.909  13.656   2.977  0.1344  0.2125 -0.3287
21392W        W22256  14.552  23.547   5.708  0.0946 -0.3730 -0.1908
21393W        W22257  15.492   3.307  16.831  0.0340 -0.1957  0.1000
21394W        W22258  16.611  28.116   3.450 -0.0305 -0.1060  0.5598
21395W        W22259   5.655  26.319  23.635  0.2591  0.2044 -0.2763
21396W        W22260  18.005  19.258   8.375  0.1144 -0.1129  0.0046
21397W        W22261  17.465  24.242  28.660  0.0444  0.1405 -0.1417
21398W        W22262  25.862  22.532  22.385  0.1729  0.1147 -0.1386
21399W        W22263  25.684  18.682   5.551  0.1256  0.1329 -0.1721
21400W        W22264  20.305  20.648  24.520 -0.1712  0.0371 -0.2780
21401W        W22265   0.950  24.749  24.635 -0.0617 -0.0544 -0.0225
21402W        W22266  16.386   4.740  23.271  0.2611  0.2876  0.0403
21403W        W22267   1.948  19.187   0.432  0.0659  0.0532 -0.2735
21404W        W22268   8.856   5.182  20.747 -0.3258  0.3182  0.1586
21405W        W22269  25.155  15.217  16.149  0.1417 -0.1920  0.0497
21406W        W22270   3.321  23.953  14.620 -0.0813  0.1337  0.0581
21407W        W22271   8.936   4.004  11.997 -0.0790 -0.0345  0.2028
21408W        W22272  15.541  21.070   0.174  0.0088  0.0700  0.0768
21409W        W22273   6.389  27.896  10.549  0.3388 -0.1004 -0.0986
21410W        W22274  21.911  20.125  16.132  0.1726 -0.0821  0.1266
21411W        W22275  19.804  13.462  24.244  0.3270  0.0598  0.0954
21412W        W22276  13.429  12.379  19.076 -0.0866  0.2624  0.1947
21413W        W22277  21.033  22.991   1.627  0.0240 -0.1430 -0.1213
21414W        W22278  12.824   3.055   5.843 -0.1016  0.1011 -0.1401
21415W        W22279  12.787   2.329   1.408  0.1660 -0.1234 -0.1513
21416W        W22280  18.613   0.877  28.748  0.0008  0.0525  0.0847
21417W        W22281   8.152  13.805  27.350 -0.0390  0.0684 -0.0265
21418W        W22282   3.795  18.593  15.951 -0.2906  0.1605  0.1476
21419W        W22283  19.769   6.307  23.692  0.0849  0.1205  0.1328
21420W        W22284  11.512  18.375   0.328 -0.0475 -0.3334  0.0590
21421W        W22285  23.462  11.046  18.310  0.2431 -0.2672 -0.0662
21422W        W22286   9.628  26.700   5.078 -0.1821  0.3053  0.2067
21423W        W22287  21.996  22.328  21.479 -0.1444  0.6347 -0.0075
21424W        W22288  25.838  25.128   5.394  0.0067  0.0077  0.2731
21425W        W22289  14.315  27.048  23.020  0.0460  0.0079  0.1898
21426W        W22290  20.023  10.482  13.487  0.0363  0.2313  0.0843
21427W        W22291  20.924  27.433  24.881 -0.0418  0.2147 -0.0099
21428W        W22292  28.389  13.067  26.096  0.0829  0.1654 -0.0684
21429W        W22293   0.945  11.211   1.015 -0.0808  0.1679 -0.3192
21430W        W22294  15.624  24.343   3.949 -0.3945 -0.3500 -0.1734
21431W        W22295  12.673  16.694  16.926  0.0064 -0.2251 -0.2453
21432W        W22296   3.535   6.782   7.009 -0.0743 -0.0310  0.0203
21433W        W22297   6.881  12.666  23.654 -0.0138 -0.1049 -0.1857
21434W        W22298  26.902  24.157  29.057 -0.1857  0.1458  0.0792
21435W        W22299  13.963  28.498   6.730 -0.1206 -0.1341 -0.0521
21436W        W22300  23.436   9.490  23.701 -0.1738  0.0124  0.4376
21437W        W22301  24.459  24.048  21.463  0.2716 -0.0873 -0.0090
21438W        W22302   9.217  18.345  12.702 -0.2876  0.2020 -0.0789
21439W        W22303  12.407   1.004   0.130  0.1142 -0.1862 -0.4433
21440W        W22304  27.059   5.764  10.965  0.2741 -0.4191  0.0362
21441W        W22305   9.288   2.402   0.592  0.0646  0.1063  0.0675
21442W        W22306   6.597   7.976  21.680  0.1108  0.0503 -0.0350
21443W        W22307  11.442  26.688   2.045  0.0588 -0.0402  0.2274
21444W        W22308   4.003  27.464  26.310  0.0893  0.0812  0.2397
21445W        W22309   1.696   5.783  11.736  0.2729 -0.1658  0.1268
21446W        W22310  16.552   6.100  12.944 -0.1952 -0.2731  0.1276
21447W        W22311   0.641   7.254  12.667 -0.2848  0.0587  0.0277
21448W        W22312  21.089   2.822  28.584  0.0164  0.0280 -0.0571
21449W        W22313  13.179  15.829  20.839  0.3063  0.1035  0.0780
21450W        W22314  20.824   1.955  26.981 -0.0571 -0.0613 -0.0408
21451W        W22315  18.043   2.436   1.311  0.3706  0.0531  0.2026
21452W        W22316   8.939   4.917  15.899 -0.1283 -0.0948 -0.0299
21453W        W22317   1.140  28.999  28.323  0.0123  0.2966  0.1288
21454W        W22318  21.239  28.617   3.798 -0.1510 -0.2135  0.0450
21455W        W22319  11.553  22.844   9.860  0.1009  0.0035 -0.2976
21456W        W22320  19.121  16.017   0.202  0.3768 -0.0588 -0.1840
21457W        W22321   8.108  26.908  10.483 -0.2399  0.1893 -0.0735
21458W        W22322  11.796   8.346  25.930  0.1141 -0.0158 -0.0851
21459W        W22323   9.160   9.168  26.292 -0.0770  0.0986  0.3730
21460W        W22324  20.360  15.506  23.697 -0.1049  0.1595  0.1198
21461W        W22325  17.161  10.184  11.367 -0.0541 -0.1405 -0.0042
21462W        W22326  21.770  27.835  10.830 -0.2242 -0.3129  0.0143
21463W        W22327  10.950  17.986   3.395  0.0901  0.0153  0.1085
21464W        W22328   4.704  10.647   1.360  0.1702 -0.0559 -0.3549
21465W        W22329  23.861  18.860   3.905 -0.2709  0.2236 -0.1546
21466W        W22330  13.248  25.938  29.042  0.0474 -0.3004  0.2344
21467W        W22331   6.106   0.721  18.131 -0.0109 -0.1381  0.0334
21468W        W22332  11.149  23.482  27.045 -0.0785 -0.0663 -0.1286
21469W        W22333  21.101  22.620  21.088 -0.2482  0.3447  0.0336
21470W        W22334  11.018   8.434  18.967 -0.0147 -0.1091 -0.2119
21471W        W22335   4.463  25.628  23.357  0.0128 -0.1715 -0.0993
21472W        W22336  13.140  25.170   3.080 -0.2447  0.0875 -0.2075
21473W        W22337  17.024  25.175  11.655  0.3104  0.0683  0.0587
21474W        W22338  18.557  25.854  13.451 -0.0817 -0.1152 -0.1646
21475W        W22339  10.407  26.421   5.339  0.0219  0.0890 -0.0011
21476W        W22340  18.722  28.658  26.555  0.2316  0.1012 -0.0649
21477W        W22341  19.292  16.171  22.136 -0.0397 -0.2117  0.2812
21478W        W22342  25.028   9.415  24.036 -0.0798 -0.1378 -0.2491
21479W        W22343  20.074   7.904  21.840  0.0162  0.1014  0.1573
21480W        W22344   0.662  23.024   3.725  0.2312 -0.0632 -0.0321
21481W        W22345  19.745  26.254   2.214  0.0780 -0.1159  0.1165
21482W        W22346   8.303   5.227   3.020  0.3718  0.2744  0.1086
21483W        W22347   5.645   9.562  16.141  0.1561 -0.0290  0.0834
21484W        W22348  26.642   5.322   4.251 -0.1516  0.0872  0.1046
21485W        W22349  10.133  13.025  21.529  0.2630 -0.3048 -0.1391
21486W        W22350   4.854  19.777  26.942 -0.0445 -0.1687 -0.1321
21487W        W22351  12.189  21.119  22.076 -0.1622  0.0158  0.2360
21488W        W22352  20.073   6.842   1.826  0.0333 -0.2236  0.0560
21489W        W22353   9.350  25.289  19.109  0.1288  0.2016 -0.0231
21490W        W22354  16.316   7.983  27.782  0.0017 -0.2080  0.1969
21491W        W22355  20.664  21.670   2.128  0.1153  0.0873 -0.3269
21492W        W22356   3.253  16.913  17.578 -0.2341  0.0507 -0.1855
21493W        W22357  18.352   5.934  26.615  0.0646 -0.1588  0.0591
21494W        W22358  10.858  22.541  20.850 -0.0941 -0.1113 -0.2089
21495W        W22359  26.123  21.457   6.521  0.0908 -0.0608 -0.1952
21496W        W22360  14.896  27.754   5.496  0.1280 -0.0762  0.1093
21497W        W22361  22.250   1.774  15.795  0.0421 -0.1351  0.1259
21498W        W22362  20.950  22.287  15.571  0.3806 -0.0619 -0.0039
21499W        W22363  25.233   5.278   5.631 -0.1424  0.0106  0.2582
21500W        W22364  15.162  17.756  28.168 -0.0982 -0.1358 -0.1134
21501W        W22365  28.561  11.175  28.726 -0.1386 -0.1300 -0.1266
21502W        W22366   1.747  21.561  28.598 -0.2175  0.2727  0.2149
21503W        W22367  20.459  24.119  27.183  0.1705  0.0383 -0.2203
21504W        W22368  20.516  10.017  22.225  0.0414  0.0747  0.1903
21505W        W22369  20.924   0.016  14.676  0.0321 -0.2282 -0.3607
21506W        W22370  19.362   7.889   9.996  0.1656  0.1291  0.3015
21507W        W22371   0.300  21.593  25.058  0.0738 -0.2827  0.1892
21508W        W22372  11.491  17.926  22.589  0.0447 -0.0818  0.1345
21509W        W22373  24.093  10.007  26.520  0.2974  0.4104  0.1507
21510W        W22374  14.714  10.920   8.462 -0.2805  0.1022 -0.0691
21511W        W22375  13.782   5.870  19.341  0.0738  0.1882  0.0543
21512W        W22376  23.574  16.055  13.985 -0.1707  0.1534 -0.0294
21513W        W22377  15.265  18.878  24.546 -0.1741  0.1972  0.1471
21514W        W22378   8.732  20.765  20.761 -0.2815  0.0440 -0.2012
21515W        W22379   6.925   1.606   9.208  0.3866  0.2682  0.1409
21516W        W22380  18.269   6.993   3.468 -0.0067  0.1389  0.2284
21517W        W22381   7.420  26.602   5.237 -0.1706  0.1741 -0.0447
21518W        W22382  12.354   8.771   4.880 -0.1265  0.1849 -0.0132
21519W        W22383   7.876  25.454  26.704  0.2706  0.1572  0.0245
21520W        W22384  13.137  25.442  21.813 -0.0416 -0.1448 -0.1844
21521W        W22385   2.503   8.059   8.789  0.0576 -0.0138 -0.0101
21522W        W22386  17.044   9.488   2.537  0.0980 -0.0606 -0.0128
21523W        W22387  19.889  23.698  13.831  0.2184 -0.2722 -0.4208
21524W        W22388  25.868  21.309   2.069 -0.1232  0.1459 -0.3493
21525W        W22389  23.907  20.342  23.916  0.0768 -0.3335  0.0265
21526W        W22390   1.569   3.734  22.836  0.0425  0.0559 -0.1358
21527W        W22391   7.868  27.509  12.370  0.3018  0.2842  0.3419
21528W        W22392  19.527   9.997  17.371 -0.1460 -0.2830  0.1685
21529W        W22393   5.887  13.075  21.483  0.3025  0.0261  0.0600
21530W        W22394  26.531  28.330  22.973  0.0440 -0.0582 -0.0264
21531W        W22395  23.535   8.320  15.377  0.1899 -0.2058 -0.1226
21532W        W22396   0.505  18.968  26.783 -0.2029  0.1646 -0.0529
21533W        W22397  27.528  22.152  28.790  0.6133  0.1918 -0.1307
21534W        W22398  13.155  23.088  26.422 -0.0259 -0.2342  0.1052
21535W        W22399  15.084  27.140  14.601  0.1796 -0.2330 -0.1842
21536W        W22400  17.761   3.590  24.745  0.0838 -0.0441  0.0802
21537W        W22401  28.593  19.203   4.369 -0.3170  0.1902 -0.1010
21538W        W22402   9.116   4.815  11.566  0.0547 -0.0039 -0.1745
21539W        W22403  13.307  13.346  26.975  0.0436 -0.1083  0.1004
21540W        W22404  11.757  27.410  13.428 -0.2850  0.0433 -0.1424
21541W        W22405  21.510  21.732  21.950  0.0355  0.0900  0.0865
21542W        W22406  25.851  15.860   5.376  0.1810 -0.0006 -0.0090
21543W        W22407   9.396  24.270   2.289 -0.1572 -0.3735 -0.2543
21544W        W22408  23.560   5.725   2.806  0.2860 -0.1330  0.0400
21545W        W22409  17.263  13.190  28.367  0.1277 -0.0284 -0.1173
21546W        W22410  18.405   8.224  23.057 -0.1023 -0.1278 -0.0132
21547W        W22411  18.952  23.837  26.931 -0.2669 -0.1150  0.0323
21548W        W22412  19.164  16.305  27.687  0.0526  0.1679  0.2916
21549W        W22413  16.135   5.579  25.465 -0.1320  0.0024  0.4300
21550W        W22414   8.710  13.759  22.180 -0.0190  0.2874  0.0675
21551W        W22415   4.378  13.476  22.658  0.1164  0.0635  0.1578
21552W        W22416  27.629  20.352  12.155  0.1645 -0.0107  0.1306
21553W        W22417  16.713  23.841  23.445  0.1488 -0.0554 -0.0139
21554W        W22418   1.005  22.007   2.335  0.1767 -0.4016  0.3998
21555W        W22419  11.871  27.841  19.802  0.1799  0.1604  0.1836
21556W        W22420   5.409  14.673  26.171 -0.1657  0.0503  0.1694
21557W        W22421  10.763   7.321   4.446  0.0979 -0.1384 -0.2500
21558W        W22422   4.537  21.717   0.593 -0.0345 -0.0347  0.3091
21559W        W22423  22.972  27.721  26.315  0.0839 -0.2035  0.1712
21560W        W22424   7.991  23.675  20.691  0.1656 -0.0147 -0.0926
21561W        W22425  12.320  19.705  25.517  0.0803  0.1377  0.2318
21562W        W22426  21.953   2.501  26.909  0.1508 -0.0928  0.0552
21563W        W22427   1.119   2.516   0.610 -0.0312  0.1692 -0.0658
21564W        W22428  11.690  27.881  27.919  0.3024 -0.1167  0.0353
21565W        W22429   5.410   8.497  16.101  0.2722 -0.3573  0.1694
21566W        W22430  11.861  15.266  24.865 -0.0804 -0.1595  0.1921
21567W        W22431  24.805  20.538  22.719  0.0252  0.0333  0.2846
21568W        W22432  10.347   6.987   5.195  0.2209 -0.0659 -0.1218
21569W        W22433   5.949  26.334  24.516 -0.2613 -0.1248  0.3570
21570W        W22434  25.886  27.397   7.286 -0.0832 -0.1177  0.1051
21571W        W22435  27.928  25.040  25.435 -0.1031  0.0390 -0.0320
21572W        W22436  15.775  20.387   8.580  0.0515  0.0730 -0.2549
21573W        W22437  12.398   1.882   3.478 -0.1671 -0.0451 -0.1567
21574W        W22438  15.094  20.956  27.781  0.3664 -0.0479  0.1110
21575W        W22439  11.216  28.556  25.986 -0.0385  0.1866 -0.0855
21576W        W22440  19.145   7.798  25.920 -0.1753 -0.0044 -0.0694
21577W        W22441  17.687  13.737   1.657 -0.1782  0.3370 -0.2240
21578W        W22442  12.967  13.476  25.995  0.0118 -0.0929  0.1959
21579W        W22443  15.927  19.580   2.946 -0.0240  0.0516 -0.2685
21580W        W22444  21.800  15.647  22.055  0.3025  0.0472 -0.2876
21581W        W22445   9.765  22.451   1.208 -0.0998  0.0312 -0.2949
21582W        W22446  12.854  23.724  21.375 -0.0302  0.1095 -0.1334
21583W        W22447  24.063  27.665  16.869 -0.0204  0.2035  0.2659
21584W        W22448   2.345  27.463  27.079  0.1978 -0.1313 -0.0432
21585W        W22449  24.970  22.507  23.520 -0.1288  0.1822  0.0359
21586W        W22450   3.847   2.154   0.296 -0.0609 -0.1563  0.1533
21587W        W22451   4.261  17.155  23.349 -0.2921  0.2196 -0.3261
21588W        W22452   9.600   7.563  21.898 -0.3193 -0.1435 -0.0084
21589W        W22453  26.982   9.045  22.494 -0.1347 -0.3336  0.1328
21590W        W22454  22.633  26.436  21.765  0.1470 -0.0034 -0.0477
21591W        W22455  13.744  23.542  27.450  0.0714 -0.2584 -0.3261
21592W        W22456  13.685  13.759  24.286 -0.0525 -0.0340  0.2975
21593W        W22457   2.449   2.036   0.895  0.1887  0.3261 -0.2222
21594W        W22458  15.930  10.327  21.669 -0.1253 -0.0721  0.1643
21595W        W22459   7.144  25.277   1.939  0.3049  0.3465 -0.0878
21596W        W22460   4.214  12.013   8.693  0.1230  0.0765 -0.1287
21597W        W22461   6.483  17.897  24.630 -0.0508 -0.0815 -0.0097
21598W        W22462  13.744  24.909   2.373  0.1344  0.3355 -0.0797
21599W        W22463  21.406  22.084   3.835  0.1343  0.2928  0.2278
21600W        W22464   7.134  22.357   2.807 -0.1427  0.1491  0.5141
21601W        W22465  18.069  28.171  21.860 -0.1236  0.1084 -0.0619
21602W        W22466  12.776  25.172  20.058 -0.0266 -0.0815  0.1767
21603W        W22467  10.958  28.149  18.353  0.0853 -0.0363 -0.0113
21604W        W22468  29.076  22.624   8.507  0.1207  0.1092 -0.1808
21605W        W22469   6.538  16.572  26.585 -0.4908 -0.3215  0.0466
21606W        W22470  27.545  13.190  25.586  0.3190  0.0449  0.0847
21607W        W22471   4.559  27.700   3.935  0.4325  0.2462  0.1668
21608W        W22472  13.292  16.462  17.739 -0.0941 -0.0561  0.1554
21609W        W22473  12.243  23.374   6.373  0.3397 -0.1583  0.0184
21610W        W22474   3.390  26.261   2.101 -0.0694  0.1586  0.2553
21611W        W22475  19.814  18.107   4.217  0.1023 -0.0013  0.0539
21612W        W22476   0.016   8.333  10.150  0.3275 -0.0380 -0.0347
21613W        W22477  19.119  11.511  27.205  0.1827 -0.1190  0.0235
21614W        W22478   8.682  23.546  28.670  0.4227 -0.0564 -0.1064
21615W        W22479   6.732  26.414  14.893  0.0249  0.1142 -0.1688
21616W        W22480  26.133  17.279   1.396  0.1401  0.1932 -0.1363
21617W        W22481   5.750  19.625  22.226 -0.3129 -0.3374  0.1612
21618W        W22482  12.386   7.731  24.917  0.2330  0.1874  0.0749
21619W        W22483   9.645   5.999  24.630  0.0934 -0.1516  0.0335
21620W        W22484  15.365  28.408   6.781  0.1633 -0.0191  0.3779
21621W        W22485  16.794  25.832  24.722  0.1510 -0.1529  0.0204
21622W        W22486  25.474   9.537   2.663  0.1516  0.2930 -0.1270
21623W        W22487   6.874   9.390   9.144  0.1307  0.1600 -0.1514
21624W        W22488  18.235  25.937   5.528 -0.0756 -0.4430  0.0283
21625W        W22489   5.863   4.361  24.162  0.1673  0.1266 -0.0613
21626W        W22490  27.441   0.686  26.765  0.0112  0.0627 -0.1524
21627W        W22491   1.808  24.959  16.291  0.2566  0.2541 -0.0896
21628W        W22492  20.221   5.089  20.390 -0.3993  0.3330 -0.0123
21629W        W22493  15.166   2.157   8.848 -0.0919 -0.3089  0.0083
21630W        W22494  26.089  19.854  28.356 -0.1987  0.1586  0.1309
21631W        W22495   0.614  18.501  21.876  0.0979 -0.0860  0.1467
21632W        W22496  25.894  20.908  24.919  0.1955  0.0294 -0.2491
21633W        W22497  11.122   7.779   7.357  0.1964  0.0898  0.2081
21634W        W22498   1.696  19.208  19.259  0.0736  0.1522 -0.0298
21635W        W22499  21.736   7.447   0.097 -0.2603  0.1591 -0.0244
21636W        W22500  25.684  15.306  27.258 -0.3061 -0.0096 -0.0095
21637W        W22501   5.770  28.720  28.535  0.1409  0.1395 -0.0826
21638W        W22502  22.787  22.008   6.854  0.2720 -0.0881  0.1502
21639W        W22503  11.686  20.228   8.578 -0.1595  0.2552  0.1437
21640W        W22504  14.907  20.110  25.538  0.0705 -0.1603  0.0488
21641W        W22505  16.799  22.370  15.477 -0.0577  0.0954 -0.2302
21642W        W22506   7.427  20.349  16.990  0.0890  0.0802 -0.0344
21643W        W22507   8.185  26.126   9.397  0.0457 -0.2911  0.0635
21644W        W22508  18.192  23.015  20.290 -0.1138  0.1692  0.2749
21645W        W22509  27.572  19.513  22.534 -0.0811 -0.2089 -0.3703
21646W        W22510  21.118  28.499  12.458 -0.1988 -0.3702 -0.0505
21647W        W22511   6.681  28.894  14.987  0.0544 -0.0981  0.1453
21648W        W22512  27.275   4.192   4.735 -0.1835  0.0664  0.1131
21649W        W22513  23.189  12.490   6.485 -0.1542 -0.1760 -0.1639
21650W        W22514  26.301  26.147   4.867 -0.0980  0.0254 -0.1323
21651W        W22515  16.428  23.018  25.824  0.1238 -0.3891 -0.1705
21652W        W22516  10.874  13.502  20.910 -0.0947  0.1906  0.1636
21653W        W22517   4.637  25.467  16.178 -0.2247 -0.2141  0.1230
21654W        W22518  11.646   4.944   7.363 -0.1958 -0.0183 -0.0291
21655W        W22519   3.654  14.665   9.576  0.0918  0.1913 -0.2028
21656W        W22520   2.311  27.111   2.035  0.0293 -0.1220  0.0769
21657W        W22521  28.496  10.849  15.390 -0.3125 -0.4479  0.0483
21658W        W22522  16.772  11.958  14.584 -0.5347  0.3674 -0.0276
21659W        W22523   7.331  28.157  14.977 -0.0677 -0.2677  0.1494
21660W        W22524  13.575  16.262   5.520  0.2518  0.0902  0.0846
21661W        W22525   9.243  17.763  23.796  0.2681 -0.0654  0.1972
21662W        W22526  12.504  27.668   7.286 -0.2191  0.1814  0.1792
21663W        W22527  18.423  13.400  22.014  0.1937 -0.0590  0.0931
21664W        W22528  23.029  18.208   9.409  0.3010 -0.1711  0.1386
21665W        W22529   4.699  15.546  16.027 -0.0326  0.1292 -0.1196
21666W        W22530  18.436  23.818  18.174 -0.1261  0.0982 -0.4685
21667W        W22531  18.776  19.186  22.626 -0.0980  0.0153  0.1236
21668W        W22532  18.083  21.060  23.933 -0.0553  0.1684 -0.2534
21669W        W22533  26.043  24.864   7.476 -0.4944 -0.2708  0.0056
21670W        W22534   0.748  15.294  16.903 -0.0992 -0.2393 -0.2504
21671W        W22535  28.019  14.281   4.031 -0.0532 -0.3343  0.0679
21672W        W22536  14.824  16.745   0.322  0.1258 -0.1661  0.1665
21673W        W22537  15.581  19.334   1.175  0.1854 -0.3292  0.0219
21674W        W22538   0.890  22.186  13.457 -0.0351 -0.3356 -0.0843
21675W        W22539  15.483  21.333  19.944 -0.1166  0.2886  0.1768
21676W        W22540  11.631   0.611  27.050  0.1416 -0.1514  0.1416
21677W        W22541  10.044   6.553   7.482 -0.2783  0.0528 -0.3192
21678W        W22542  16.318  21.887  25.652 -0.3914 -0.1431  0.1480
21679W        W22543  13.304   4.886   1.282  0.3283  0.1590 -0.1391
21680W        W22544   3.267  17.492  20.818 -0.2510 -0.0471 -0.1137
21681W        W22545  19.415  15.787  10.332 -0.1021  0.0016  0.0692
21682W        W22546  13.238  22.256   1.553  0.1532  0.1217  0.0255
21683W        W22547  27.093   7.802  11.992  0.0164 -0.0441 -0.2194
21684W        W22548  11.615  26.356  14.025 -0.0563 -0.1961  0.1717
21685W        W22549  13.105  20.550   2.687  0.2629 -0.3941  0.2269
21686W        W22550  13.540  22.344   1.133  0.1541 -0.0234 -0.1187
21687W        W22551  18.477  15.714   5.090  0.1329 -0.0609  0.1320
21688W        W22552   8.295  26.225  28.801  0.0115  0.0754  0.3393
21689W        W22553  17.945  20.567  18.660  0.1786 -0.1311  0.0516
21690W        W22554  11.510  20.161  29.079 -0.0056  0.1811  0.0832
21691W        W22555  18.220  14.318   3.913  0.2437  0.2185 -0.0206
21692W        W22556  23.518  21.251   6.000  0.1669 -0.0892 -0.0453
21693W        W22557   9.028  25.885   9.732 -0.1053 -0.1113  0.1160
21694W        W22558  22.418   2.888  22.843  0.4019 -0.2963 -0.2633
21695W        W22559  20.655   7.681  20.246 -0.2886 -0.0085 -0.1364
21696W        W22560  19.373  28.998  27.485 -0.0537  0.2795  0.0484
21697W        W22561  15.223  27.843  22.799 -0.0361  0.0859 -0.0394
21698W        W22562   4.161  24.918   6.801 -0.3205  0.5707 -0.0732
21699W        W22563   7.986  25.047   1.920 -0.0645  0.2094  0.5105
21700W        W22564  17.286  13.370  27.857 -0.0763 -0.1075 -0.0435
21701W        W22565   0.336  11.305   3.594 -0.0637 -0.0205 -0.1285
21702W        W22566  23.278  24.963  25.241 -0.0006 -0.0727  0.2046
21703W        W22567  13.591  17.079   9.298  0.1287  0.0340 -0.1026
21704W        W22568   9.539  21.861  23.530  0.0101 -0.0760  0.4572
21705W        W22569   7.614  15.859  15.423  0.0182  0.1527 -0.2959
21706W        W22570  17.705  13.439  13.820 -0.0337  0.1755  0.0002
21707W        W22571  12.606   9.100   9.173  0.5186  0.0098 -0.0105
21708W        W22572   0.387   5.968  11.938 -0.3579 -0.1687  0.1681
21709W        W22573   8.060  28.862  18.069 -0.0748  0.1056 -0.2257
21710W        W22574   9.956  18.420  27.866  0.0263  0.1005  0.1582
21711W        W22575   2.935  11.106  13.060  0.2431  0.2798 -0.0764
21712W        W22576  27.445   5.341   4.394 -0.1263 -0.1425  0.1571
21713W        W22577   4.816  17.659  16.380  0.2631 -0.2935  0.1829
21714W        W22578   9.068   8.016  12.295 -0.0006 -0.0239  0.2167
21715W        W22579  15.077  21.445  20.897  0.2278 -0.2185 -0.0083
21716W        W22580   9.289  27.466  15.669  0.0229  0.2106 -0.2040
21717W        W22581  24.121  27.344  28.830  0.2780  0.1036 -0.1524
21718W        W22582  16.665   4.606   0.521  0.1276 -0.2182 -0.2502
21719W        W22583   8.984  20.107   1.935 -0.1197 -0.1391  0.0827
21720W        W22584  15.394  22.442  24.532 -0.0266 -0.1802 -0.2059
21721W        W22585   5.382  18.690  10.712  0.1336  0.2082  0.3030
21722W        W22586   3.007  14.782   3.272  0.0115  0.3235  0.0659
21723W        W22587  15.144  13.711   0.476  0.1249 -0.2055  0.0638
21724W        W22588   1.377  24.871  19.467  0.3001  0.0185 -0.2982
21725W        W22589  22.478   4.130  25.996  0.1859  0.0168  0.1376
21726W        W22590  29.076   1.277  11.110  0.1256  0.1351  0.1082
21727W        W22591   3.289  21.394   1.331 -0.0635  0.3941 -0.0686
21728W        W22592   9.695   1.920   2.090 -0.3678 -0.1140 -0.1376
21729W        W22593  19.874   1.814  15.328  0.2175  0.5291  0.0197
21730W        W22594  11.817  12.153   0.671 -0.3440  0.0664  0.1181
21731W        W22595  20.634  18.519   2.336  0.1696  0.0501  0.1749
21732W        W22596  25.242  16.229  13.335  0.3493  0.0004  0.1414
21733W        W22597  17.685  15.878  28.876 -0.0103 -0.3084  0.2380
21734W        W22598   3.715  22.005  19.797  0.2199 -0.2215  0.2362
21735W        W22599   5.317  18.517  25.236 -0.1078  0.2482 -0.1440
21736W        W22600   6.319   5.069  10.733 -0.1157  0.2155  0.0680
21737W        W22601   0.264   7.925  11.629 -0.0900  0.1094 -0.1573
21738W        W22602  17.561   4.157   8.754 -0.0400 -0.0814 -0.1282
21739W        W22603  20.075  24.318   7.017 -0.0157 -0.0171 -0.0073
21740W        W22604   4.272   7.980  11.735 -0.0213 -0.0599  0.0392
21741W        W22605  22.731   6.946  23.927  0.0584  0.3194 -0.6126
21742W        W22606  13.007  18.401  17.896  0.2814 -0.1168  0.2702
21743W        W22607  12.214   8.577   3.744  0.2187  0.1258  0.0216
21744W        W22608   1.492  27.729  20.693 -0.1215  0.3111 -0.0042
21745W        W22609  25.950  28.961   4.762 -0.6428 -0.2418 -0.0292
21746W        W22610  27.986  12.471   1.317 -0.0116 -0.2196  0.1289
21747W        W22611  22.130  11.818  27.681 -0.0240  0.1138  0.0150
21748W        W22612   4.853  27.094   3.314 -0.2740 -0.0696  0.2492
21749W        W22613  26.584  27.977   7.302  0.1194 -0.2399  0.1650
21750W        W22614  12.609   1.732  21.552 -0.2811 -0.0811 -0.0176
21751W        W22615  26.406  25.655   3.152 -0.0640 -0.0137 -0.1107
21752W        W22616  14.891  28.433  18.874 -0.1190 -0.0586  0.1652
21753W        W22617   5.664   3.254  23.650 -0.2379 -0.0866 -0.1092
21754W        W22618  12.974  28.923   1.653 -0.2098  0.1454  0.0386
21755W        W22619  13.204  24.804  22.955 -0.2170  0.1436 -0.2317
21756W        W22620  19.171  20.462   7.232  0.1603 -0.2278 -0.1473
21757W        W22621  16.422  25.765  26.866  0.0068  0.0723  0.1053
21758W        W22622  24.253  19.249  17.966  0.1895  0.3707  0.0530
21759W        W22623   9.249   0.846  12.706  0.1746 -0.2773 -0.0043
21760W        W22624  23.689  20.323  12.813 -0.1609  0.1322 -0.2376
21761W        W22625  24.261   4.603  18.963 -0.2358  0.1747  0.1329
21762W        W22626   9.311  14.505   8.758 -0.0366 -0.1384 -0.0616
21763W        W22627  26.139  27.908  28.523  0.3072 -0.1143  0.2843
21764W        W22628  15.187  22.141   1.850  0.0105 -0.2391  0.0311
21765W        W22629   6.706  21.435  22.726 -0.0349 -0.1252  0.1991
21766W        W22630   6.928   5.741  17.232 -0.0558  0.0847 -0.2912
21767W        W22631   7.061  27.728   1.866 -0.0756 -0.2804 -0.0854
21768W        W22632  16.132  20.040   5.721 -0.1892 -0.0178 -0.1153
21769W        W22633  28.772  19.682   9.195 -0.0780  0.1464 -0.2307
21770W        W22634  24.969  25.158   3.261  0.1180 -0.0300 -0.0849
21771W        W22635  24.184   0.478   6.882 -0.1577 -0.2225  0.0432
21772W        W22636  13.982  16.788   9.376 -0.1652 -0.3829  0.0853
21773W        W22637  15.448   8.372   4.331 -0.1122  0.0923  0.0041
21774W        W22638  12.144  27.485   7.981  0.2844 -0.0223 -0.2915
21775W        W22639   6.677  11.960   9.102 -0.0780 -0.1594  0.0617
21776W        W22640  11.483  10.393   2.458  0.3355  0.1133 -0.5805
21777W        W22641  25.514  19.044  13.556  0.1118 -0.2822  0.1107
21778W        W22642   1.757  20.166   2.909 -0.0039 -0.0796  0.0903
21779W        W22643  12.230   4.457  21.707  0.2882 -0.0821  0.2288
21780W        W22644   7.805  24.967   0.944 -0.1334 -0.2452 -0.0690
21781W        W22645   7.590  15.931  22.368  0.3295  0.2592  0.1968
21782W        W22646  10.060   7.030  13.970 -0.1677  0.0692 -0.0497
21783W        W22647  22.834   4.276  20.235  0.1049 -0.1881 -0.0534
21784W        W22648  26.717  20.225   3.239 -0.0313 -0.0114  0.0501
21785W        W22649   1.704   6.716   2.078 -0.2136 -0.0636 -0.0934
21786W        W22650   7.130   7.047  12.335 -0.1250 -0.0257 -0.1568
21787W        W22651   7.955  13.265  15.880  0.1749  0.1422  0.2368
21788W        W22652   0.654   1.599  17.553 -0.2475  0.1527 -0.4644
21789W        W22653  21.953  18.349  23.881 -0.3903  0.0606 -0.1667
21790W        W22654  10.139  18.380  12.420  0.3144  0.1599  0.2859
21791W        W22655  16.823   0.751   9.439  0.0396  0.1404  0.3175
21792W        W22656  17.743  23.582  28.085 -0.1396  0.0795  0.3955
21793W        W22657  12.924  21.082  25.292  0.2150 -0.0618 -0.1526
21794W        W22658  17.012  10.733  23.633  0.3177  0.0292 -0.3672
21795W        W22659   3.623  26.145   0.674  0.1452  0.0513 -0.0499
21796W        W22660  16.378  27.809   9.094  0.1413 -0.1528  0.3559
21797W        W22661  16.193  15.482  19.169  0.1321  0.0692 -0.0100
21798W        W22662   4.515  12.510  14.436 -0.0141 -0.1855  0.1812
21799W        W22663  16.603  22.406  18.319  0.2994 -0.2091  0.1151
21800W        W22664  27.543   8.417   3.646  0.1628 -0.1021 -0.2404
21801W        W22665  15.012   0.155  10.746  0.2181  0.0665  0.0321
21802W        W22666  26.764  20.376   1.779  0.1817 -0.1421  0.1682
21803W        W22667  15.646  26.017  22.922  0.3457 -0.0089  0.0121
21804W        W22668  27.777  21.611  13.241 -0.2448 -0.0550  0.1053
21805W        W22669  14.459  22.051  27.643  0.1128  0.1167  0.0571
21806W        W22670  26.306  11.648   6.950 -0.0700  0.2128  0.1320
21807W        W22671   4.081  18.945  23.511  0.0636  0.1601 -0.1036
21808W        W22672  27.650  26.570   2.293 -0.4637  0.0578 -0.0713
21809W        W22673  11.619  25.996  10.208  0.3357 -0.5597 -0.0624
21810W        W22674  15.148  14.347   6.136  0.2089  0.1972  0.2775
21811W        W22675  20.471  28.045  19.418 -0.0298 -0.1809  0.1888
21812W        W22676  12.439   7.046  20.991 -0.0649 -0.0713 -0.2296
21813W        W22677  24.711   3.074   5.337  0.0224  0.0980  0.2527
21814W        W22678   0.686  15.455  15.769 -0.0454  0.0363 -0.3609
21815W        W22679  29.135  10.416   2.129 -0.0261 -0.0912 -0.2070
21816W        W22680  17.644  18.426   4.305  0.1737 -0.0717  0.4274
21817W        W22681   2.929  28.149   8.650 -0.2293 -0.0204  0.1408
21818W        W22682  10.964  18.817  20.777  0.1357 -0.0599  0.1434
21819W        W22683   7.044  11.085  17.953  0.0573 -0.3534 -0.0280
21820W        W22684   4.168   4.910   5.484 -0.2272 -0.3150 -0.2032
21821W        W22685  12.609  25.509  21.631 -0.0231  0.4656 -0.2181
21822W        W22686  13.026  26.223   7.044  0.0669  0.3884  0.1869
21823W        W22687  15.504  24.360  12.008  0.1266  0.2233  0.3139
21824W        W22688  22.174  22.172  26.872 -0.0012  0.0890  0.1382
21825W        W22689  13.869  27.835  18.960  0.0893  0.0837  0.1180
21826W        W22690  15.660  13.063  21.381 -0.0550  0.0558  0.3205
21827W        W22691   5.399   0.860   2.732 -0.0305  0.0586  0.0145
21828W        W22692   0.609  15.817   5.321  0.2518 -0.1363  0.2649
21829W        W22693  14.826  13.710   2.268 -0.1392  0.0207  0.0064
21830W        W22694  18.564  23.026  26.299  0.2076  0.1966  0.0692
21831W        W22695  20.004  23.021  15.113  0.1882  0.1335 -0.1424
21832W        W22696  21.881  29.040  27.444 -0.0555  0.0263 -0.0189
21833W        W22697  14.048   5.374  21.235 -0.1613  0.1292 -0.3101
21834W        W22698  14.621  23.849  12.027 -0.3044  0.0377  0.1482
21835W        W22699  12.750  22.089   2.313 -0.1312  0.2700  0.3659
21836W        W22700   6.568  28.262  20.508 -0.1868  0.0037  0.0716
21837W        W22701  15.913  22.566  28.729 -0.3202  0.1417  0.2094
21838W        W22702  11.389  24.978  18.783 -0.2554 -0.0334  0.2818
21839W        W22703  22.060  23.259  18.573 -0.1935  0.2174 -0.1304
21840W        W22704  13.464  27.406   7.318  0.1913  0.1431  0.1444
21841W        W22705  10.584  28.140  12.998  0.1213 -0.0368  0.2134
21842W        W22706   7.849   8.646   7.228  0.1784  0.1498 -0.1522
21843W        W22707  14.945  23.468  20.718  0.0681 -0.0431 -0.1894
21844W        W22708   3.050  15.502  27.959  0.0258  0.2179  0.2897
21845W        W22709  29.133   2.630  12.945 -0.0632  0.1877 -0.1272
21846W        W22710  25.904  14.717  12.792  0.3564  0.2031 -0.0705
21847W        W22711   5.148  18.770   2.628 -0.0679  0.1798 -0.1892
21848W        W22712   4.098  24.582  28.030 -0.1304 -0.0860  0.2400
21849W        W22713  13.654  14.913  15.106  0.3112 -0.1321  0.2159
21850W        W22714  22.643  28.543  10.667 -0.3116  0.1564 -0.3787
21851W        W22715  26.453  26.958  10.925 -0.2340  0.2711  0.0845
21852W        W22716  21.738  13.931  18.507  0.1996 -0.0543 -0.2908
21853W        W22717  26.051  10.879   2.283  0.0417  0.0724  0.1219
21854W        W22718   1.590   6.321  28.143 -0.0974  0.0052  0.1300
21855W        W22719   4.351   5.980  18.139 -0.0725  0.1158  0.4075
21856W        W22720   0.569   9.215  22.123 -0.1736  0.0588  0.0829
21857W        W22721  19.265  21.088   1.040 -0.1334 -0.0461  0.1661
21858W        W22722  25.117  16.179   3.998  0.1526 -0.1134  0.1330
21859W        W22723   7.511   0.713  16.801  0.0250  0.2176  0.0845
21860W        W22724   3.928  20.619  15.755  0.0409  0.0202 -0.0473
21861W        W22725  17.578  11.154  13.413 -0.1442 -0.0838 -0.1659
21862W        W22726  28.206  24.224  11.531 -0.1969  0.1263  0.3688
21863W        W22727  11.467   3.708   8.088 -0.0649 -0.0058 -0.1049
21864W        W22728   1.004  12.099   1.100 -0.0809 -0.2028 -0.0403
21865W        W22729   5.406  20.923  13.047  0.2082 -0.1179 -0.2013
21866W        W22730   1.621   3.314   3.634 -0.0814 -0.0389  0.0583
21867W        W22731  17.590  18.571   0.345 -0.2141  0.0771  0.1050
21868W        W22732  15.295   5.194  19.145  0.0827 -0.1390  0.2630
21869W        W22733   6.898  28.704   9.571 -0.0702  0.1156  0.2631
21870W        W22734   9.080   1.278   3.747 -0.0313  0.0895  0.0792
21871W        W22735  28.137  20.519   8.627  0.1211  0.0390 -0.0375
21872W        W22736  25.843   8.400   5.643 -0.2001 -0.2315 -0.2135
21873W        W22737  22.741  11.062  10.374  0.0155  0.1378 -0.0482
21874W        W22738  17.285  12.778   1.655  0.2673  0.2487  0.0698
21875W        W22739   0.271  11.668   3.221  0.0617 -0.0632 -0.0143
21876W        W22740  23.103  18.451   6.873  0.0096 -0.0383  0.0687
21877W        W22741  10.192   0.931  27.139  0.2912 -0.4236  0.1352
21878W        W22742   9.275  21.434   1.939  0.1066  0.2382 -0.0936
21879W        W22743   0.347  28.187  25.313  0.2695  0.0860 -0.0785
21880W        W22744   4.808   9.233   5.320 -0.0436 -0.1293  0.0442
21881W        W22745  19.696  18.513  14.040  0.1721 -0.0485  0.1105
21882W        W22746  24.635  28.690   2.938  0.0021  0.1318  0.2194
21883W        W22747   7.665   3.081  28.049  0.0016  0.0131 -0.2165
21884W        W22748  13.273   0.641  10.926 -0.0264 -0.1185  0.3865
21885W        W22749   2.335  16.918  13.145 -0.4165  0.1084 -0.0935
21886W        W22750   9.017  27.505   5.683 -0.1142  0.0657 -0.0666
21887W        W22751  24.495  23.733  11.116  0.0858 -0.0001 -0.3263
21888W        W22752   0.004  24.813   2.892  0.0642  0.3392 -0.2438
21889W        W22753  23.439  14.614  17.923 -0.1082 -0.3582 -0.0274
21890W        W22754  26.392  22.320  26.392 -0.2874 -0.1378 -0.3638
21891W        W22755  17.553  25.393   2.499 -0.1579  0.1622 -0.0518
21892W        W22756  24.738   9.043  17.090 -0.1163 -0.0118 -0.1958
21893W        W22757  23.812  24.263   2.429  0.0275 -0.0946  0.0042
21894W        W22758  20.751   5.129  11.060  0.1548 -0.1213 -0.3244
21895W        W22759  26.776  25.919  26.517 -0.2517 -0.2510  0.1577
21896W        W22760   5.169   5.109  17.966 -0.1965  0.0814 -0.0959
21897W        W22761   3.813  19.580   2.950 -0.1003 -0.0146 -0.0621
21898W        W22762  20.049  23.995  28.163 -0.0821  0.1286  0.1144
21899W        W22763  19.948  27.624  13.614 -0.0533  0.1780 -0.3660
21900W        W22764  15.112  25.540  14.935  0.0304  0.1684 -0.0940
21901W        W22765  16.152  17.689  17.360 -0.0854 -0.3345 -0.1575
21902W        W22766   4.430   1.038  11.433  0.1539  0.1539  0.2401
21903W        W22767  10.534  25.437  12.363  0.0638 -0.0578  0.0556
21904W        W22768  28.364  12.203  24.236  0.0148 -0.1028  0.3740
21905W        W22769   8.436  24.467  21.639  0.1512  0.0280 -0.4752
21906W        W22770  19.715   3.102  17.482 -0.1476 -0.0378  0.1480
21907W        W22771   5.806  23.046  23.972 -0.1222 -0.0955 -0.0990
21908W        W22772  20.422  14.885   1.166 -0.3181 -0.1558 -0.0622
21909W        W22773  21.572  26.849   0.480  0.0325  0.1778  0.2757
21910W        W22774  24.711  18.389   3.773 -0.0149 -0.2978  0.2044
21911W        W22775  11.883  16.771  16.416 -0.2200  0.4509  0.4152
21912W        W22776   8.110  26.474  10.233 -0.0257  0.0316 -0.3191
21913W        W22777  23.279  27.293  25.014  0.0710  0.4160  0.1025
21914W        W22778  27.616  11.608  10.532  0.1587 -0.2403 -0.2820
21915W        W22779  21.567   0.533   1.017  0.0402 -0.0703  0.0911
21916W        W22780   7.767  27.094   0.775 -0.0619  0.1661  0.0198
21917W        W22781  23.661  24.166  27.535  0.0359  0.1335 -0.0612
21918W        W22782  20.752   8.103   4.887 -0.1232 -0.2256 -0.0011
21919W        W22783  12.627   1.227   7.673  0.1233 -0.1701  0.0299
21920W        W22784   0.104  24.932  22.640  0.2764  0.2745 -0.2996
21921W        W22785  15.554  13.248  27.560  0.0799  0.1976 -0.2005
21922W        W22786  17.534  12.948  17.173  0.0136  0.2429  0.2305
21923W        W22787   5.385   2.496   4.921  0.1816  0.2297 -0.0588
21924W        W22788   9.439  25.236   0.899 -0.2003 -0.3159  0.2007
21925W        W22789   8.093  15.923  18.329 -0.0956 -0.0301  0.1325
21926W        W22790  19.567  21.493   5.775 -0.3160 -0.0444 -0.0619
21927W        W22791   2.906   0.070   7.637 -0.0149 -0.1423 -0.0058
21928W        W22792  10.092  26.452  25.298  0.1727 -0.0073 -0.0763
21929W        W22793  17.615  15.701  12.567  0.0691 -0.2493  0.1109
21930W        W22794   7.692  28.253   0.792 -0.0271  0.1167  0.1257
21931W        W22795  23.374  13.527   9.454 -0.2546 -0.2749  0.0181
21932W        W22796  15.688  28.492  24.373 -0.4388  0.0345 -0.0344
21933W        W22797  13.352  22.226  27.497  0.0648 -0.0829  0.1582
21934W        W22798  13.912  21.909  14.582  0.1875  0.0220 -0.0575
21935W        W22799   0.366  19.517  24.689  0.0687  0.3388  0.0269
21936W        W22800  28.437  15.407   2.170 -0.2429 -0.0338 -0.0313
21937W        W22801  17.450  24.338   6.683 -0.1315 -0.2239  0.0775
21938W        W22802  23.232  18.264   3.620 -0.2343 -0.0785 -0.0300
21939W        W22803  21.183  11.867  23.882  0.1760 -0.0122  0.1406
21940W        W22804  19.674   3.720  20.587  0.1827 -0.3869  0.2452
21941W        W22805  13.407  28.599  19.545 -0.1206  0.0790 -0.2397
21942W        W22806  19.146  23.642  21.015 -0.0024  0.0866  0.0414
21943W        W22807   9.676   4.015   0.975 -0.0626 -0.1224  0.0960
21944W        W22808   7.092   3.606  26.736 -0.3476 -0.0050 -0.0677
21945W        W22809  10.504   2.673   2.043  0.0014  0.0067  0.3260
21946W        W22810   4.277  23.810   0.950 -0.1160 -0.0875  0.0837
21947W        W22811   2.992  20.401  12.131  0.1102  0.1734 -0.1702
21948W        W22812  19.067  21.845  17.401 -0.2592 -0.0746  0.2052
21949W        W22813  12.662  23.914  20.605 -0.2604  0.0191  0.2817
21950W        W22814  24.567  28.172  11.919 -0.1872  0.1454  0.2407
21951W        W22815  13.034  21.917   4.302 -0.1516  0.0405  0.0690
21952W        W22816  16.875  14.924  18.440  0.1377  0.0326  0.1481
21953W        W22817  15.057  23.953   4.008 -0.0036  0.1490  0.1940
21954W        W22818  17.218  11.479   6.248  0.1473  0.2984  0.0736
21955W        W22819  25.211   4.218   3.715  0.1279  0.2858 -0.0073
21956W        W22820  19.111   4.168   9.902  0.1690 -0.3398 -0.1713
21957W        W22821  16.127  13.006  18.140 -0.3404 -0.3084 -0.1124
21958W        W22822  22.097  21.774  15.571 -0.1943 -0.2826 -0.3043
21959W        W22823  11.641   8.708   8.168 -0.0052 -0.1614 -0.0084
21960W        W22824  20.834  25.162  14.912 -0.3518  0.2131 -0.2651
21961W        W22825  11.666  21.496  23.769 -0.0341  0.0099  0.0769
21962W        W22826  15.207   3.956  17.948 -0.0588  0.1443  0.0163
21963W        W22827  11.138  17.056  28.488 -0.1097  0.2297 -0.1496
21964W        W22828  20.569  17.064  19.713  0.4019 -0.1105  0.0832
21965W        W22829  15.908   7.622   2.123  0.2504  0.0718  0.2359
21966W        W22830  16.626   6.043  24.347 -0.3015 -0.1438  0.0315
21967W        W22831  25.655  28.554  27.925  0.1494  0.2032 -0.0192
21968W        W22832  14.407  25.684   1.513 -0.0313 -0.0534  0.0783
21969W        W22833  20.985  28.963  28.471 -0.0063 -0.0837  0.0197
21970W        W22834  15.214  13.182  21.193  0.1511 -0.0093 -0.1936
21971W        W22835  16.317  15.030   8.130  0.2155  0.1014  0.1207
21972W        W22836  11.765   3.270  27.688 -0.0129 -0.0475 -0.2305
21973W        W22837   7.348  21.473   9.396  0.2681  0.0452 -0.1765
21974W        W22838  21.630   2.716   6.619  0.1296  0.1467  0.2630
21975W        W22839  16.235   9.786  15.073 -0.0585  0.0895  0.4660
21976W        W22840  19.058  28.133  27.057  0.1045 -0.1703  0.0712
21977W        W22841  15.743   6.380  27.326 -0.0513  0.2883  0.1040
21978W        W22842  16.366  21.727  28.918 -0.0484  0.1172 -0.0604
21979W        W22843  17.865  10.577  28.370  0.1524  0.0616 -0.3754
21980W        W22844   2.049  22.656   3.014  0.1654  0.0019 -0.0205
21981W        W22845   7.469   0.634  12.798 -0.1151  0.4246  0.3024
21982W        W22846  10.563   3.426  23.008 -0.0342  0.3723 -0.2457
21983W        W22847  12.643  20.557  14.888  0.0289 -0.0446 -0.1321
21984W        W22848  13.767  15.304  19.452 -0.1461  0.1738 -0.1176
21985W        W22849  12.019  25.013  27.876 -0.1735 -0.0525  0.0507
21986W        W22850   2.774   8.596  15.848 -0.0747  0.0179  0.0208
21987W        W22851   4.912  20.253   7.715 -0.0309 -0.0356 -0.0296
21988W        W22852  16.281  20.433   9.492  0.2007 -0.1636 -0.2889
21989W        W22853  19.297   7.858  14.241 -0.2574 -0.0321 -0.0280
21990W        W22854  25.563   2.783   2.246 -0.2642 -0.1181  0.0320
21991W        W22855  10.490   3.967  25.497  0.0693 -0.1637 -0.2512
21992W        W22856  17.915   2.059  26.467 -0.1062 -0.0432 -0.2084
21993W        W22857  19.619  15.377   0.896  0.2162 -0.1427  0.2238
21994W        W22858   4.068  20.071  22.221  0.1040 -0.1329 -0.0435
21995W        W22859   0.965   8.000   0.284 -0.2017 -0.3299 -0.0505
21996W        W22860   2.093  28.279  12.227 -0.0216 -0.0888  0.1517
21997W        W22861  16.957  19.084   3.297  0.0407 -0.0109 -0.2563
21998W        W22862   2.340   7.288   5.354 -0.0373  0.1271  0.2073
21999W        W22863   0.975  16.199   5.374 -0.2345  0.1403  0.0390
22000W        W22864  12.444  18.557  26.629 -0.1366  0.1023  0.0219
22001W        W22865  13.723   1.266   9.784  0.1995  0.1225  0.1682
22002W        W22866  15.090  11.902  23.669  0.1986 -0.1113 -0.0858
22003W        W22867  14.226  11.098  27.755 -0.0609 -0.4306  0.0453
22004W        W22868  20.974  23.565   3.769 -0.0676  0.0176 -0.0753
22005W        W22869  16.284  25.605   0.866 -0.2286 -0.0407 -0.0118
22006W        W22870  12.373   7.572  25.468 -0.0209 -0.1616  0.0988
22007W        W22871  24.354   1.698  20.542 -0.0407 -0.2303 -0.3844
22008W        W22872   9.022   1.528   8.122 -0.4122  0.2783 -0.1789
22009W        W22873   3.512  28.930   1.105 -0.3766 -0.1118  0.1499
22010W        W22874  17.583  18.598  11.768 -0.0239  0.2742  0.1594
22011W        W22875  25.516  18.886   0.268  0.4031  0.2677  0.0238
22012W        W22876   8.795  23.926   1.037  0.0663 -0.2049 -0.0699
22013W        W22877   0.743  20.255  23.287 -0.3119  0.0369  0.1363
22014W        W22878  12.236   2.963   7.691 -0.1695 -0.4023  0.5233
22015W        W22879  16.029  18.988  23.187  0.1010 -0.1070  0.1991
22016W        W22880  16.692   0.706  16.838 -0.1164  0.2409 -0.1040
22017W        W22881  29.126  12.913  15.659  0.0623 -0.0096  0.0544
22018W        W22882  24.655   2.660  28.042 -0.0202  0.1154  0.1763
22019W        W22883  27.326  21.521  25.963  0.0176  0.1594  0.0811
22020W        W22884  12.813  16.249   7.491  0.1996  0.1957 -0.0217
22021W        W22885  21.739   6.122  26.278 -0.1042 -0.0259  0.1044
22022W        W22886  23.346  26.994  16.846  0.2007  0.0553 -0.1614
22023W        W22887  22.424  27.824  11.223 -0.1128  0.0251 -0.0909
22024W        W22888  26.256   7.866  22.671 -0.0015 -0.1587 -0.1305
22025W        W22889  11.174  24.934  17.716  0.0250 -0.0702 -0.3804
22026W        W22890  20.431  13.439  23.431  0.1350  0.1242  0.2948
22027W        W22891  10.527  20.158  21.164 -0.0675 -0.2327  0.6372
22028W        W22892  22.801  27.186   8.800  0.1771  0.0526 -0.0239
22029W        W22893  16.611  29.062  23.468  0.4622  0.1818 -0.0363
22030W        W22894  28.101  23.392   9.073 -0.1407 -0.0966 -0.0200
22031W        W22895  23.159  24.191  22.044  0.1184  0.2503 -0.0501
22032W        W22896  14.707  14.849  21.172 -0.1717 -0.1266 -0.1385
22033W        W22897  24.327   1.875   7.043 -0.1916 -0.1581  0.0064
22034W        W22898  17.965  11.761  17.346 -0.1179  0.0182  0.0417
22035W        W22899  27.267  10.124   8.075  0.0467  0.1410 -0.2448
22036W        W22900   2.506  24.926  14.338 -0.1642 -0.2331  0.3065
22037W        W22901   7.227  15.860  21.085 -0.1355  0.2389  0.4643
22038W        W22902  14.503   0.934  24.545  0.1694 -0.3425  0.0433
22039W        W22903  25.403  17.150  23.715  0.2057  0.4471  0.0378
22040W        W22904  26.188  19.192  25.384  0.0886 -0.4622  0.2558
22041W        W22905  17.343  20.606  24.542  0.0851 -0.0134  0.2966
22042W        W22906  25.561  11.234  26.683  0.1040 -0.1737  0.3156
22043W        W22907  10.515  26.560   0.046  0.1776 -0.1189 -0.3082
22044W        W22908   1.416  21.287  27.860 -0.1665 -0.1953 -0.1158
22045W        W22909  24.295  11.097  10.720 -0.0280 -0.2087  0.1171
22046W        W22910  14.164  14.212   7.972 -0.1250  0.1493  0.3024
22047W        W22911  18.708  15.812   1.196  0.1818  0.1817  0.1986
22048W        W22912  21.167   0.735  27.865 -0.0663 -0.1729 -0.2409
22049W        W22913  16.734   3.891  12.258  0.3236  0.1274  0.1320
22050W        W22914  17.248  12.885  10.117 -0.0618 -0.0643 -0.0990
22051W        W22915  13.407   7.731  15.937  0.1507  0.3416 -0.1070
22052W        W22916   1.545  25.523  17.227  0.0227  0.0493 -0.1324
22053W        W22917  14.645  13.146  15.698  0.1794  0.0530 -0.2886
22054W        W22918   4.243  20.427  21.427  0.0457 -0.1525  0.2562
22055W        W22919  13.331   6.327  20.925  0.3368 -0.1895  0.3734
22056W        W22920  12.639   1.604  16.496 -0.1257  0.0457 -0.0909
22057W        W22921   1.687  28.247  19.773  0.1636 -0.0654  0.0541
22058W        W22922   9.949  26.584   5.441 -0.0606 -0.2175  0.3169
22059W        W22923  10.997  16.553  22.086 -0.1492 -0.1417 -0.1511
22060W        W22924  23.273  16.256   4.381 -0.3595 -0.3004 -0.0797
22061W        W22925   3.349   7.630   2.011 -0.1366 -0.2050 -0.0459
22062W        W22926  27.582  17.822   1.593  0.0214 -0.2185 -0.5001
22063W        W22927  22.105  12.397   1.725  0.0456 -0.1153 -0.0589
22064W        W22928   0.407  13.120  14.954 -0.1167 -0.0565 -0.1791
22065W        W22929  21.622   5.199  24.803  0.1005  0.1657 -0.3971
22066W        W22930  10.829  20.657  21.312  0.0943  0.3033 -0.0053
22067W        W22931  13.175   4.806  14.002  0.0327  0.2431 -0.4738
22068W        W22932   2.944  25.081   7.244  0.2447  0.1754 -0.0662
22069W        W22933   8.001  23.331  12.330 -0.1682 -0.1166  0.0517
22070W        W22934  19.244  28.972   4.738 -0.0201 -0.2133 -0.1144
22071W        W22935   9.143  19.650   2.642  0.2818  0.1268  0.2238
22072W        W22936   8.441   2.672  11.444  0.0186 -0.2337  0.0715
22073W        W22937  11.527   5.804  15.998  0.1737 -0.0572  0.0889
22074W        W22938   5.793   0.620   2.974 -0.2254 -0.3207 -0.1929
22075W        W22939  16.458  25.444   7.979 -0.1927  0.0268 -0.3115
22076W        W22940  26.220  19.462  28.580 -0.0900  0.0103 -0.1159
22077W        W22941  18.033  28.922   0.563  0.2531 -0.0839 -0.1654
22078W        W22942  26.876   5.024  28.693  0.2561  0.0225  0.1112
22079W        W22943  15.065  19.141  23.130  0.3888 -0.2117  0.1601
22080W        W22944   1.670  23.668  25.236  0.1871 -0.3215 -0.4691
22081W        W22945  25.525   6.580  19.943  0.0836  0.0280 -0.0040
22082W        W22946  11.106  18.358   9.148  0.0441 -0.0248 -0.0568
22083W        W22947  15.691  20.987   6.268 -0.0652 -0.3180 -0.1323
22084W        W22948  13.469  17.451   7.230  0.2569  0.1502  0.0033
22085W        W22949   5.393   0.810   3.240 -0.1309  0.0146  0.1148
22086W        W22950   3.663  23.574  13.076 -0.0790 -0.0423 -0.4885
22087W        W22951   2.994  24.405   3.789 -0.0126 -0.0807 -0.2063
22088W        W22952  15.897   9.602  10.844  0.0058  0.0531  0.0623
22089W        W22953  28.189   8.450  17.877 -0.2235  0.1136 -0.3511
22090W        W22954   7.127  13.873  10.053  0.0511  0.0731 -0.2068
22091W        W22955  13.430  28.095  10.341 -0.2283  0.1238  0.0657
22092W        W22956   1.779  20.275  17.829 -0.0134 -0.2598 -0.1169
22093W        W22957  24.405  25.538   5.623  0.2131  0.1185 -0.2409
22094W        W22958  20.157  19.463   1.172  0.1587 -0.0057 -0.1595
22095W        W22959  27.148  22.778  25.308  0.2703  0.1196 -0.3380
22096W        W22960  13.163  18.797  21.669 -0.1486 -0.0887  0.1193
22097W        W22961  28.278  22.677  25.669 -0.1012  0.0443  0.1129
22098W        W22962   5.172  21.357  10.035  0.1515 -0.0357 -0.1347
22099W        W22963   5.178  23.552   0.142 -0.0196  0.0981  0.0092
22100W        W22964  12.718  23.133  12.245  0.2196  0.1190  0.3784
22101W        W22965   9.567  27.442  10.671  0.0183  0.0715  0.0739
22102W        W22966  24.332  27.163  15.346 -0.0852 -0.1604  0.0112
22103W        W22967  16.519   5.106   8.829  0.1803 -0.0174  0.2916
22104W        W22968  28.706  23.409   4.806  0.0151  0.1823 -0.1120
22105W        W22969  17.521  26.479  17.106  0.1908 -0.0333 -0.1732
22106W        W22970  28.192  18.810  26.840 -0.2043  0.0495  0.1620
22107W        W22971  15.131  10.376   1.729  0.1813 -0.1858 -0.0400
22108W        W22972  16.999  10.274  10.301 -0.0408  0.2932  0.0175
22109W        W22973  22.362   9.328   1.882  0.1000  0.1134 -0.3332
22110W        W22974  14.688   4.004  27.388  0.3245  0.0378 -0.0782
22111W        W22975  11.666   9.928  23.981  0.2140 -0.1499 -0.1211
22112W        W22976  26.602   3.715   1.169  0.0146  0.1439 -0.1586
22113W        W22977  28.557   7.056  19.908 -0.3149  0.1276 -0.2050
22114W        W22978   5.472  23.258   7.407 -0.0036  0.3083 -0.0406
22115W        W22979  23.973  18.996   3.333  0.4482 -0.0831 -0.0386
22116W        W22980  26.311   3.883  11.882 -0.2798 -0.0375  0.0824
22117W        W22981  25.089  23.174  28.265 -0.0539  0.0409 -0.0883
22118W        W22982  12.286   0.070   5.140  0.1530  0.4750  0.0550
22119W        W22983  13.338  28.542   6.007  0.0924 -0.0606 -0.0848
22120W        W22984  14.224   2.433   8.484 -0.0048  0.1209 -0.0162
22121W        W22985  17.139  11.115  17.510  0.0369 -0.1070  0.0777
22122W        W22986   3.010  22.857  22.742 -0.0282 -0.1039 -0.2158
22123W        W22987  23.363   1.364  22.179 -0.0059 -0.0544 -0.0919
22124W        W22988   1.537   4.746   7.198 -0.2958  0.0208 -0.0438
22125W        W22989  18.960  18.312   0.517  0.0967 -0.0894 -0.1341
22126W        W22990   9.605  28.918  14.215  0.0624 -0.0575 -0.0507
22127W        W22991  18.022  14.613  13.133 -0.0533  0.2083  0.1344
22128W        W22992  12.343   0.563  14.324 -0.1984 -0.1126  0.1728
22129W        W22993   2.998  25.329   9.060  0.2259  0.2033  0.0085
22130W        W22994  13.113  15.138  10.632 -0.1166 -0.2349 -0.1082
22131W        W22995  27.471  20.340   5.625  0.0702  0.0192  0.0380
22132W        W22996  12.076   7.705   6.445  0.1616  0.0645 -0.2622
22133W        W22997  15.883  19.914   6.127  0.2551 -0.0756  0.4219
22134W        W22998  17.413   4.277  28.154 -0.0458  0.1795  0.0159
22135W        W22999  22.312   7.584  10.562  0.1353  0.2432 -0.2567
22136W        W23000  23.766  12.171  17.202  0.4937  0.3119 -0.3349
22137W        W23001  14.385   1.810  25.241 -0.2476 -0.0012  0.0552
22138W        W23002  11.580  17.305  20.103  0.1968  0.1763 -0.4128
22139W        W23003   0.147   0.574   0.687 -0.2718 -0.3650  0.0773
22140W        W23004  10.209  24.109  21.823 -0.1573 -0.3255  0.5029
22141W        W23005  28.185   6.548   6.395  0.0587 -0.0628  0.1858
22142W        W23006   3.629   3.375  10.527  0.4713 -0.1375 -0.3335
22143W        W23007  15.584   6.059  10.084  0.3512 -0.0181 -0.1954
22144W        W23008  26.275  22.281  27.775 -0.0408 -0.1476  0.1415
22145W        W23009  25.129   8.106   2.624  0.0141  0.4771 -0.0084
22146W        W23010   2.694   0.023   5.744  0.2331 -0.0574  0.3380
22147W        W23011  13.799  15.229  16.467 -0.1444 -0.1260  0.2864
22148W        W23012  11.747  16.825  24.175 -0.0625 -0.1873 -0.3287
22149W        W23013  27.454  12.472   8.214  0.0221 -0.1806 -0.0594
22150W        W23014  20.109  13.222  19.877  0.0498  0.0104 -0.1505
22151W        W23015  13.664   9.824  29.057  0.0504  0.1843 -0.1622
22152W        W23016  15.205  16.644   2.293 -0.2076 -0.2660 -0.4987
22153W        W23017  12.686   8.948  11.377  0.0829  0.0010  0.1779
22154W        W23018  24.837  13.329   0.782 -0.1400  0.1884 -0.0106
22155W        W23019  24.059   2.048   4.871  0.1168  0.0354 -0.0477
22156W        W23020   9.043   1.754  13.454  0.0389 -0.0852  0.1077
22157W        W23021   6.381   5.073   3.396 -0.1454 -0.3275  0.0933
22158W        W23022  13.963  24.196  23.340  0.2421  0.2280  0.0837
22159W        W23023  27.920  11.914   3.568 -0.0812 -0.1366 -0.2414
22160W        W23024  17.473   3.430   0.286 -0.3020 -0.1031 -0.1340
22161W        W23025   9.538  28.846  19.492 -0.0459  0.1545 -0.1862
22162W        W23026   9.100  20.509  18.384 -0.0053 -0.3130 -0.1440
22163W        W23027   8.431   7.192   7.728 -0.0487  0.0523  0.0569
22164W        W23028  18.302  22.584   1.305 -0.0950 -0.1783 -0.1065
22165W        W23029  16.040  27.810   9.468  0.3414 -0.1071  0.0841
22166W        W23030  12.655   7.137   7.495  0.1098 -0.2580 -0.1056
22167W        W23031   9.283  20.544  13.632  0.2881  0.2592  0.1433
22168W        W23032  11.594  24.530  23.100 -0.1138 -0.3690 -0.5365
22169W        W23033   5.077   8.116   2.416 -0.2438  0.1099 -0.1364
22170W        W23034   6.617   0.255   5.898  0.0951  0.0205  0.2346
22171W        W23035  26.550  15.456   3.882  0.1188  0.0275 -0.0360
22172W        W23036  15.763   2.090   0.319 -0.0609 -0.0522 -0.3230
22173W        W23037  15.891  20.790   3.753 -0.1545  0.1099  0.1715
22174W        W23038  22.631   2.748   6.889  0.2834 -0.0474  0.0243
22175W        W23039   4.246  26.956   8.561  0.3112 -0.0760  0.2335
22176W        W23040   5.618  22.710  10.065 -0.2007 -0.0465 -0.0553
22177W        W23041  15.992  16.071  13.423 -0.2292  0.1737 -0.1868
22178W        W23042  15.664   0.691  27.057 -0.0862 -0.0492  0.3277
22179W        W23043  27.572  12.050   7.934  0.1030  0.0003  0.1725
22180W        W23044  10.332  27.846  23.889  0.0999  0.0197 -0.0555
22181W        W23045   8.054  14.524   5.805 -0.0395 -0.1388 -0.1305
22182W        W23046   6.998   2.498  14.003 -0.0390 -0.1652 -0.2337
22183W        W23047  17.742  21.004   9.827  0.0735  0.2221  0.0670
22184W        W23048  12.897  26.089   1.146  0.2130  0.0189  0.0925
22185W        W23049  12.990  18.217  27.050 -0.2765  0.1868 -0.0671
22186W        W23050  21.840   0.010   1.961  0.0509  0.1635  0.2653
22187W        W23051   1.122   2.328  24.746 -0.1369 -0.1104 -0.0540
22188W        W23052  22.270  16.101  28.574 -0.2995 -0.0496 -0.1532
22189W        W23053   0.905  10.869  19.754  0.1495 -0.1664  0.2417
22190W        W23054   5.021   6.494  18.794  0.0496 -0.3354  0.1789
22191W        W23055   1.114   2.320  12.142  0.0477 -0.0817  0.0103
22192W        W23056  24.053  24.249   6.849  0.0181  0.0474  0.0972
22193W        W23057  10.176   0.024   1.521 -0.2380  0.0973 -0.4668
22194W        W23058  12.869   6.828   0.917 -0.2749  0.1706 -0.1800
22195W        W23059  12.058   4.350  24.645  0.0945 -0.2247  0.2199
22196W        W23060   7.701   5.010  23.343 -0.1570 -0.2648  0.1428
22197W        W23061  23.421   5.034  25.349 -0.4519 -0.0444  0.1282
22198W        W23062  12.697  10.687   9.788  0.0232 -0.2163 -0.4900
22199W        W23063   1.403  20.406   3.815 -0.1531 -0.0045  0.0186
22200W        W23064  28.432  20.935  20.531 -0.0206 -0.0965 -0.0404
22201W        W23065  24.591   5.326   7.769  0.1142  0.0473 -0.0886
22202W        W23066  21.850  16.548  14.758 -0.0326  0.0547  0.0306
22203W        W23067  24.928   0.713  13.285 -0.2501  0.0289  0.2368
22204W        W23068  27.808  19.125   4.589 -0.3053 -0.1178 -0.1906
22205W        W23069  19.295  25.336  27.402  0.2484  0.0688 -0.1449
22206W        W23070  27.912   5.397  20.106 -0.0968 -0.0446 -0.1091
22207W        W23071  18.658  16.407   4.358  0.1479  0.3048 -0.0440
22208W        W23072   2.027  23.088   9.513 -0.0631 -0.1092  0.2537
22209W        W23073  26.297   1.562  15.050  0.1939 -0.0271 -0.1718
22210W        W23074  21.960   1.928  13.651 -0.0746  0.0791 -0.0654
22211W        W23075  16.754   7.858  15.245 -0.1777  0.0058  0.0794
22212W        W23076   0.565   6.600  19.229 -0.3279  0.0754  0.4839
22213W        W23077  28.212  18.615  17.969  0.0307 -0.0217 -0.1259
22214W        W23078   6.978  24.865  14.259  0.0072 -0.1158 -0.0508
22215W        W23079   0.467  19.654  11.252  0.2340 -0.0029 -0.1241
22216W        W23080  28.941   8.233  16.398  0.0082 -0.0507 -0.0848
22217W        W23081  24.856  11.084   3.402  0.0938 -0.0399  0.0142
22218W        W23082  11.338  19.028  24.273  0.1341  0.0592  0.1678
22219W        W23083  23.457  14.799  11.762 -0.1594  0.2555  0.1034
22220W        W23084  19.547  22.256   7.613 -0.2415 -0.1683  0.0966
22221W        W23085  15.002  17.449  12.913 -0.0286  0.2001  0.0595
22222W        W23086   9.904   3.658   1.261  0.2357 -0.0313 -0.0184
22223W        W23087  19.191  22.807  17.140  0.2003 -0.1952  0.0021
22224W        W23088  20.046  18.643  17.992 -0.3507 -0.3454  0.3452
22225W        W23089   3.633  21.486  12.016  0.0275 -0.1180  0.2545
22226W        W23090   6.030  20.197  21.365 -0.0462  0.0895 -0.2918
22227W        W23091  26.819  12.988   2.074  0.1976 -0.2792  0.0845
22228W        W23092  16.663   0.516   2.334 -0.1606  0.0486 -0.3001
22229W        W23093  21.420  16.838   3.548 -0.0679 -0.1319 -0.1366
22230W        W23094   3.956  20.866  28.173 -0.3375  0.0645 -0.0984
22231W        W23095  16.163  28.704   5.882 -0.1466 -0.2219  0.2636
22232W        W23096   8.784  26.114  23.857 -0.2066  0.2408 -0.0562
22233W        W23097   3.427   4.548  26.069 -0.1521  0.0094 -0.0940
22234W        W23098  27.783  23.052   8.007  0.1197 -0.0751  0.2687
22235W        W23099   2.722   8.147  14.011  0.2311  0.1760 -0.1478
22236W        W23100   8.968  27.493   0.222 -0.0353 -0.1292  0.0276
22237W        W23101  16.712  25.138  19.592  0.1392 -0.0462 -0.0063
22238W        W23102  14.210  29.054  20.052 -0.1671  0.2348  0.1960
22239W        W23103  13.384  23.650  15.604  0.1106  0.0601  0.2760
22240W        W23104   3.523   6.874   4.894  0.1306  0.0802  0.2311
22241W        W23105  13.576  20.102  16.706  0.0597  0.0171 -0.1518
22242W        W23106  24.617   2.621  12.608  0.3126 -0.1697  0.1863
22243W        W23107   4.380   0.060  17.515  0.2855 -0.2616 -0.1388
22244W        W23108  28.335  28.698  24.501  0.1222 -0.0194  0.0433
22245W        W23109  16.023   5.134   5.214  0.0233  0.0461  0.1058
22246W        W23110   6.020  27.810   9.982  0.1202  0.0479 -0.2776
22247W        W23111  15.853  22.815   8.081  0.1550  0.1179 -0.0082
22248W        W23112  13.954  28.498   5.227 -0.1413 -0.0787  0.1836
22249W        W23113   8.064  20.829   5.888  0.2147  0.2095 -0.2023
22250W        W23114   6.158  24.451  24.600 -0.0840  0.3715 -0.0118
22251W        W23115   4.613  16.713   3.559 -0.2609  0.0609 -0.1880
22252W        W23116  15.327  27.769   6.990 -0.0499 -0.1745 -0.0309
22253W        W23117  13.571  25.737  24.507 -0.0299  0.0506 -0.3592
22254W        W23118  13.533  26.576  25.111 -0.0705 -0.2894  0.2819
22255W        W23119  20.484  15.137  22.768 -0.2790 -0.0939 -0.0618
22256W        W23120  25.367  19.747  15.021 -0.0136  0.1200 -0.2164
22257W        W23121  27.119  23.321  18.174 -0.3477 -0.1291  0.1799
22258W        W23122   0.465  24.358  25.110  0.3853  0.0221 -0.0652
22259W        W23123   5.975   1.013   5.934  0.2294  0.3746 -0.0210
22260W        W23124  26.504  20.402   7.875 -0.3270 -0.0056 -0.0150
22261W        W23125  28.156   0.312  13.392 -0.1888 -0.2302  0.2487
22262W        W23126   8.921  22.950  24.482  0.0507  0.2064  0.0133
22263W        W23127  13.565  26.893   4.073  0.1589 -0.0515  0.0320
22264W        W23128   7.950  13.495  14.815 -0.0727  0.1966 -0.1289
22265W        W23129  14.250   8.901  17.625  0.0676  0.0010 -0.2658
22266W        W23130  17.305  26.005   4.921  0.2240  0.2383  0.0112
22267W        W23131  17.515  20.335   7.678 -0.2294  0.0506  0.1430
22268W        W23132  18.665  11.709  16.794 -0.1437  0.0085  0.2545
22269W        W23133  14.810   3.826  19.527 -0.0721  0.1664 -0.1589
22270W        W23134  17.446   0.317   0.297 -0.4750 -0.1992  0.0540
22271W        W23135   7.643   6.500  22.199 -0.2671 -0.1760 -0.0436
22272W        W23136  14.764   4.361  20.751 -0.2868  0.0084 -0.2915
22273W        W23137  17.182  22.365  25.583 -0.0832 -0.1659 -0.1599
22274W        W23138  27.857  12.211   8.418 -0.2207 -0.2833  0.0186
22275W        W23139  26.451  10.849  12.487 -0.0109 -0.1600 -0.1173
22276W        W23140   0.563   2.091   6.403  0.0306 -0.1404 -0.1136
22277W        W23141  18.528  27.523  13.171 -0.0308 -0.0613  0.0901
22278W        W23142  15.913   2.265   8.196  0.0274 -0.1565 -0.2292
22279W        W23143  26.371  26.282  25.421  0.1888  0.2306  0.1021
22280W        W23144  20.993  25.479  10.684  0.0801 -0.0470  0.0081
22281W        W23145  23.346  26.280  17.486 -0.2066 -0.1064  0.1920
22282W        W23146  14.531  22.498   2.194  0.0901 -0.0955 -0.0453
22283W        W23147  11.169   4.467  27.957  0.2623 -0.2843 -0.1269
22284W        W23148  29.013   5.116  21.076  0.2126  0.0306 -0.1789
22285W        W23149  16.085  26.326  20.946 -0.2054 -0.1476 -0.1461
22286W        W23150  25.900   0.684  23.582  0.0291 -0.1698 -0.0263
22287W        W23151   6.355  13.740  27.206  0.1001 -0.2240  0.3015
22288W        W23152  25.719   6.941  22.585 -0.2981  0.3819 -0.0245
22289W        W23153  20.558   0.341   9.736  0.1502 -0.0182 -0.0194
22290W        W23154  13.375  27.261   0.168 -0.1134  0.1442 -0.0802
22291W        W23155  22.177  11.372  22.628 -0.1126  0.0737  0.1720
22292W        W23156  11.222  13.496   1.414 -0.0273 -0.2944  0.0265
22293W        W23157  18.644  21.370   9.977  0.1240  0.1872 -0.0536
22294W        W23158  21.607  18.026   6.496  0.0610  0.0555 -0.0729
22295W        W23159  11.019   1.343   5.692  0.0853 -0.1357 -0.1532
22296W        W23160  23.512  13.198   6.913  0.1198  0.0443  0.3430
22297W        W23161   2.345   6.042   8.331  0.2049 -0.0855  0.2471
22298W        W23162  21.155  21.412  19.653  0.0772  0.2775  0.0330
22299W        W23163   9.987  19.257  18.631  0.0323 -0.0232 -0.0691
22300W        W23164  23.191  12.638  24.188 -0.0938  0.0324 -0.1299
22301W        W23165  11.761  16.852   1.654 -0.1563 -0.0054  0.1852
22302W        W23166  13.735   0.064   8.725  0.2805  0.0890 -0.0253
22303W        W23167  10.920  24.641  21.144  0.0453  0.0350 -0.1371
22304W        W23168  16.985  20.795  10.776  0.0253  0.0969 -0.2414
22305W        W23169  18.095   2.759  27.259  0.1744  0.0057  0.1870
22306W        W23170  18.520  22.207   3.708 -0.0805 -0.2600  0.2731
22307W        W23171  19.044  26.447   0.537 -0.1527  0.2283  0.0044
22308W        W23172  15.412   4.841  23.207  0.0082 -0.0327  0.1087
22309W        W23173  18.502   3.143   7.387 -0.0584 -0.1569  0.0052
22310W        W23174  11.091  12.077  25.501  0.2248  0.2663  0.0274
22311W        W23175   2.962   2.004   9.092 -0.0418 -0.1539 -0.0466
22312W        W23176   4.653  27.233   4.192 -0.0366  0.0981 -0.2512
22313W        W23177  21.297  17.919  13.424  0.0007 -0.1451 -0.2178
22314W        W23178  22.470  26.731   7.992  0.1130 -0.1093 -0.0365
22315W        W23179  22.479   2.976   5.023  0.3052 -0.1841 -0.0752
22316W        W23180  24.630   2.840   9.656  0.0301 -0.1111 -0.0132
22317W        W23181  26.370  24.957  27.828 -0.2878 -0.0943  0.4021
22318W        W23182  16.040  23.929  17.494 -0.3162  0.1058  0.3153
22319W        W23183  15.563   3.721  25.175  0.0651  0.1086  0.0279
22320W        W23184  25.096   2.903   8.522  0.1820 -0.1498  0.2914
22321W        W23185  17.698  17.648  10.237  0.1729  0.0745 -0.4018
22322W        W23186  12.351  27.204   8.775  0.0670 -0.0821 -0.2346
22323W        W23187   9.791  26.964  14.878  0.3307  0.2651  0.1211
22324W        W23188  19.210  27.278  14.327 -0.0495 -0.1995 -0.1237
22325W        W23189   0.873  22.847   5.501 -0.1022  0.0276 -0.2122
22326W        W23190  24.539  19.850  24.379 -0.1786  0.0266 -0.1555
22327W        W23191   8.222  24.761   5.568  0.2093 -0.2280  0.1258
22328W        W23192  19.835  17.969  19.965  0.1275  0.1130 -0.2672
22329W        W23193  24.662  29.005   8.944  0.0108 -0.0185 -0.1015
22330W        W23194  19.851  19.029  24.037 -0.3972  0.0681  0.0828
22331W        W23195  26.897  21.744  10.280 -0.2693 -0.0884  0.1002
22332W        W23196   6.880   3.811   3.856 -0.1007  0.0513 -0.4563
22333W        W23197  26.768  10.092  27.354  0.0322 -0.1135  0.3180
22334W        W23198  20.058  11.716  10.788 -0.1900  0.2787  0.2282
22335W        W23199   7.074   3.933  17.919 -0.4592  0.0318  0.0789
22336W        W23200  28.273  15.503  28.456 -0.0237  0.1632  0.2251
22337W        W23201  13.093  17.452  26.725  0.2974  0.1049 -0.0946
22338W        W23202   7.847  25.950  18.835  0.1121  0.0725 -0.2398
22339W        W23203  13.872  12.821   4.117 -0.1470  0.3738 -0.3795
22340W        W23204  25.768  24.513  25.628  0.0329  0.1619 -0.0676
22341W        W23205   9.934  11.285  20.801 -0.1291  0.0683 -0.0661
22342W        W23206   6.599  25.076   5.342 -0.2274  0.1259 -0.1179
22343W        W23207   9.159  23.509   5.646  0.1660 -0.0316  0.0499
22344W        W23208   7.574   0.585   4.177 -0.0759  0.1191 -0.0718
22345W        W23209   9.365   8.667  18.700  0.1597 -0.1191 -0.5323
22346W        W23210   5.534  27.273   1.017 -0.0644 -0.0179 -0.0625
22347W        W23211  16.341   7.244  11.604  0.2756  0.1201 -0.1308
22348W        W23212  24.925  15.671  19.441  0.2684 -0.1799  0.1721
22349W        W23213   6.429  21.907  21.158 -0.3960 -0.1362  0.1516
22350W        W23214   6.874  10.916  17.443  0.2245 -0.1573  0.0632
22351W        W23215   6.256  21.746   6.807 -0.1451 -0.1370 -0.1236
22352W        W23216  12.126  27.182  28.261  0.0166 -0.1322 -0.1039
22353W        W23217  13.126  16.344   6.572  0.1680  0.0478 -0.0292
22354W        W23218  20.934  24.545  27.857  0.1080 -0.3471  0.1747
22355W        W23219  21.291   0.184   6.333 -0.1069  0.0113  0.0158
22356W        W23220  16.711  11.787  22.522  0.1603  0.3647 -0.0124
22357W        W23221   3.274  11.189  17.663  0.1942  0.0818 -0.4310
22358W        W23222  18.800  22.427  28.158 -0.2827 -0.0068  0.0244
22359W        W23223  19.583   7.595  13.896 -0.2813 -0.2088 -0.1025
22360W        W23224  18.636   2.059   9.403  0.2484  0.1282  0.1648
22361W        W23225  10.730  18.361   8.013  0.0043  0.2335 -0.0953
22362W        W23226   9.612  22.976   9.247  0.2822 -0.2823  0.0407
22363W        W23227   8.315  24.431  22.851  0.0241 -0.1161 -0.0606
22364W        W23228   3.892  24.620   9.674  0.1964 -0.4316  0.3310
22365W        W23229  29.112  28.287   9.729 -0.0280  0.0981  0.2384
22366W        W23230  27.184   7.065   6.890  0.0892 -0.2419 -0.1166
22367W        W23231  14.936   1.930   6.916  0.1127  0.1758  0.0654
22368W        W23232  19.548   1.791  24.206  0.4504 -0.1775  0.1197
22369W        W23233   7.169  26.627  25.138 -0.1238 -0.3058 -0.1049
22370W        W23234  15.618  19.498  14.982  0.3192  0.2272  0.0568
22371W        W23235   8.974   2.587  16.771 -0.2379 -0.0744  0.1527
22372W        W23236  14.410  28.105  11.961  0.0134 -0.1135 -0.1307
22373W        W23237  18.968  20.555  13.686 -0.3585 -0.0630 -0.2161
22374W        W23238  27.212   2.853   4.689  0.2917 -0.0403  0.4251
22375W        W23239  20.598   2.092  19.833 -0.0426  0.0128 -0.1698
22376W        W23240  16.778   0.313   3.190  0.0312 -0.1481 -0.2288
22377W        W23241  15.060  10.485   4.631 -0.5198  0.0207  0.0655
22378W        W23242   9.236   9.493  10.287  0.0213 -0.2108 -0.0016
22379W        W23243  11.360   3.230   0.952 -0.1017 -0.2803  0.1271
22380W        W23244  11.079  22.530  21.345 -0.0393  0.1498 -0.4997
22381W        W23245  17.790  28.798  25.076 -0.2315 -0.3721  0.2393
22382W        W23246  10.777  17.980  27.757  0.2539 -0.0351  0.1421
22383W        W23247   3.833  11.041   6.050 -0.0734  0.0972  0.0681
22384W        W23248  12.817  11.060   4.991  0.0786  0.0130 -0.2648
22385W        W23249  15.948  11.477  23.518  0.0187 -0.1666 -0.0929
22386W        W23250  18.167   3.659  19.284  0.0169  0.0296  0.2075
22387W        W23251  24.080   6.028   3.732  0.0046  0.0328  0.0919
22388W        W23252  16.750  20.694  27.252  0.5263 -0.2975 -0.1819
22389W        W23253  14.463   0.399   3.008  0.1310  0.1850 -0.0142
22390W        W23254   7.834  14.330   7.484 -0.1574  0.0537 -0.0742
22391W        W23255   6.647  22.372  11.511  0.1555 -0.1979  0.1723
22392W        W23256  16.582  27.045  13.479  0.0123  0.2928  0.1596
22393W        W23257  17.616  21.914   2.947  0.0151  0.2382  0.0771
22394W        W23258  21.958  22.561   7.117  0.2858  0.3532  0.0907
22395W        W23259  18.491  25.198  26.835  0.1656 -0.1618  0.4858
22396W        W23260  20.714  19.786  10.730 -0.1491  0.1080  0.1346
22397W        W23261  18.755  18.415   9.848  0.0002  0.3000  0.0661
22398W        W23262   5.096  26.786   9.449  0.0031 -0.2191 -0.1158
22399W        W23263   0.618  19.917   9.005 -0.1230  0.0241  0.0867
22400W        W23264  21.862  26.851   9.810 -0.2624  0.1461  0.1421
22401W        W23265   1.435  28.400  25.772 -0.0678  0.0733 -0.1863
22402W        W23266  19.742  25.048  17.369 -0.0523 -0.0358  0.1167
22403W        W23267  16.999   7.534   2.522  0.0464  0.1479  0.0184
22404W        W23268  17.429   6.329  10.462  0.0583 -0.2627  0.3069
22405W        W23269  26.094  13.285  28.049 -0.0156  0.0456  0.1781
22406W        W23270  22.068   0.465   4.883 -0.0419 -0.2470 -0.0515
22407W        W23271   3.567   0.076   6.393  0.2219  0.5845  0.0958
22408W        W23272  13.734  20.451   0.038  0.0363  0.2082  0.0947
22409W        W23273   7.716  11.950   1.319 -0.0180 -0.2530  0.0922
22410W        W23274  17.430  27.343   6.917 -0.0789 -0.2236  0.1230
22411W        W23275  23.580  18.222  22.906  0.1973 -0.0727  0.3666
22412W        W23276   2.831   0.827   9.291 -0.1911 -0.0072 -0.2860
22413W        W23277  10.885  20.434  14.176  0.1068 -0.0102 -0.0050
22414W        W23278  13.890   9.108  12.247  0.0964  0.0955  0.2249
22415W        W23279  27.127  23.994  19.847  0.2297 -0.1723  0.2754
22416W        W23280  19.163   6.010   6.384  0.1100  0.1111  0.1641
22417W        W23281   6.869   5.064  11.409  0.2658  0.5512 -0.1019
22418W        W23282  10.150  21.103   9.291  0.0348  0.0558 -0.0803
22419W        W23283  27.946   7.524  11.006 -0.0631 -0.1468  0.1073
22420W        W23284  18.951   2.615   4.947  0.0306 -0.1172  0.0387
22421W        W23285   7.817   0.294  25.594 -0.0643  0.1950  0.1573
22422W        W23286  27.528  11.376   7.032  0.3248  0.1136 -0.0991
22423W        W23287  23.379  12.712  23.250 -0.0556 -0.0220 -0.1279
22424W        W23288   9.813  29.101   8.243 -0.0693  0.0777 -0.0419
22425W        W23289  16.057  23.580  28.239  0.3524  0.0010 -0.1401
22426W        W23290   7.272  14.039  18.893 -0.1322 -0.1970 -0.0003
22427W        W23291  11.859   5.097  27.778  0.0463 -0.1543 -0.3141
22428W        W23292  17.640  24.181  25.495  0.1043  0.2609  0.0098
22429W        W23293   4.724  15.427   9.010 -0.1257 -0.2959  0.0063
22430W        W23294   5.411  23.465   2.063  0.0450  0.1082 -0.4508
22431W        W23295  25.149  24.879   7.580  0.2377  0.1900  0.0000
22432W        W23296  10.504  13.372  25.577 -0.3766 -0.1625  0.0949
22433W        W23297  26.829  20.411  25.107 -0.0574 -0.3374 -0.1261
22434W        W23298  21.300  23.549  11.189 -0.0387 -0.3412  0.2153
22435W        W23299  12.681  26.516   0.822 -0.0462  0.0628 -0.1045
22436W        W23300   8.226  27.779   6.502  0.2333 -0.0218 -0.2721
22437W        W23301  27.172  20.076  26.526  0.0966 -0.0948  0.0672
22438W        W23302  15.448   5.422  18.745  0.0396  0.4469  0.1357
22439W        W23303   4.888  23.024  23.149 -0.1202  0.0061  0.0892
22440W        W23304   7.983  11.539   7.934 -0.0541  0.2488  0.0840
22441W        W23305   7.807  24.063  27.867 -0.0682 -0.2202 -0.0422
22442W        W23306  20.694   4.190  15.799 -0.3796  0.1217 -0.0211
22443W        W23307   4.212  17.498  20.929 -0.1389  0.3363  0.2934
22444W        W23308   2.515  17.975   4.794  0.0003 -0.0256  0.0817
22445W        W23309  21.772   0.775   2.126 -0.3083  0.0010 -0.3448
22446W        W23310  17.728   4.748  26.701 -0.0380  0.1094  0.1671
22447W        W23311  18.717  11.165   3.285  0.1514  0.3206  0.0309
22448W        W23312  19.564  21.870  24.713  0.2017  0.0431 -0.0219
22449W        W23313  28.196   0.952   9.171  0.0624 -0.1745  0.0737
22450W        W23314  23.910   4.274   5.626 -0.2141  0.0507 -0.0363
22451W        W23315  24.938  25.570  17.764 -0.0845 -0.0907 -0.1800
22452W        W23316   2.721  20.457   2.888  0.0230  0.0210 -0.0580
22453W        W23317   9.727  23.234  13.145  0.2536  0.1283  0.2583
22454W        W23318  17.504  13.169  21.102 -0.1030  0.2178 -0.0800
22455W        W23319  24.266   3.593   5.936  0.0003  0.1454 -0.0322
22456W        W23320  19.516  14.386   9.294 -0.0375  0.0719 -0.1197
22457W        W23321  20.720   6.966  26.477  0.0676  0.1436 -0.3538
22458W        W23322  15.173   4.645   1.372 -0.2422 -0.2809 -0.5262
22459W        W23323  20.011  21.969   4.976 -0.1545 -0.0630 -0.1882
22460W        W23324  17.564   5.170   2.096  0.2097  0.1151 -0.0298
22461W        W23325  12.128  26.645   0.340  0.1587  0.3509  0.2227
22462W        W23326  23.327  19.004   0.060 -0.0899 -0.0299 -0.4470
22463W        W23327  13.098  25.686  23.059 -0.1293 -0.2639 -0.0277
22464W        W23328  20.725   1.730   6.406 -0.0467 -0.0068  0.1477
22465W        W23329  25.017  24.552   3.069 -0.0837 -0.5234 -0.0198
22466W        W23330   5.472  14.465  13.336  0.0104 -0.1768 -0.2954
22467W        W23331  21.714  14.146   6.677 -0.0638 -0.1891  0.4737
22468W        W23332  14.150   6.244  19.454  0.3783 -0.1868 -0.0269
22469W        W23333  12.163  18.731  11.219 -0.2136 -0.1070 -0.1856
22470W        W23334   8.011  25.906  26.411 -0.0164  0.3169 -0.1218
22471W        W23335  25.079  27.218   0.694  0.1739  0.0956  0.2162
22472W        W23336  14.945   2.032   3.075  0.2842  0.2413 -0.0640
22473W        W23337  20.217  17.758   8.369 -0.0614  0.0377 -0.2793
22474W        W23338  14.169   6.351   8.694  0.0613  0.2594  0.1209
22475W        W23339  17.544  11.816  12.569 -0.0935  0.3101  0.0839
22476W        W23340  12.548  25.578   9.206  0.1052  0.0187  0.2523
22477W        W23341  25.739  16.209   8.184 -0.0221  0.0447 -0.2175
22478W        W23342  24.262  14.281  11.859 -0.0875 -0.0079 -0.1587
22479W        W23343  16.730  28.556   8.482 -0.2121 -0.2654 -0.1837
22480W        W23344   5.472  15.274  15.536 -0.2262  0.0027  0.1270
22481W        W23345   2.709  24.696  10.846 -0.1801  0.3131 -0.1579
22482W        W23346   8.005   5.653   6.480 -0.0242 -0.0690 -0.0042
22483W        W23347   8.990  21.631   8.279  0.0363  0.1897 -0.1307
22484W        W23348  14.925  21.442  12.176 -0.0628 -0.0593 -0.1403
22485W        W23349  14.064  18.514  18.861  0.0842  0.1903  0.2498
22486W        W23350  16.772   0.129  12.733 -0.1436  0.1235 -0.0316
22487W        W23351  10.952   0.487   3.509  0.1055 -0.2900  0.0653
22488W        W23352   6.172  19.043   5.771  0.0481 -0.3976 -0.1134
22489W        W23353   3.166   7.405   9.182 -0.2918  0.1585 -0.4330
22490W        W23354  14.457   0.153  12.522  0.0969  0.2735  0.1702
22491W        W23355   8.156  16.076   0.701  0.1258 -0.0955  0.0361
22492W        W23356  15.777  25.407  22.565 -0.0056 -0.2388 -0.0604
22493W        W23357   9.940   2.147   8.225 -0.1765  0.2286 -0.1272
22494W        W23358   5.980  16.534  27.315 -0.1905  0.0884  0.0632
22495W        W23359  12.354  14.050  10.631  0.0000  0.0670 -0.1171
22496W        W23360  17.573   0.553  21.796  0.2446 -0.1353  0.1019
22497W        W23361  14.012  13.744  13.508  0.1815 -0.0832  0.0501
22498W        W23362   0.648  16.864  13.344  0.2903 -0.0262 -0.0638
22499W        W23363  13.997  14.066  11.015  0.0573 -0.1227 -0.0135
22500W        W23364   9.820  19.276   6.822  0.2168  0.2014  0.1238
22501W        W23365  16.300  23.927  11.238  0.0491 -0.1957 -0.1570
22502W        W23366  14.641   0.126   0.167  0.0660 -0.0475 -0.1110
22503W        W23367   2.737  20.184  13.950 -0.0882  0.5152 -0.4110
22504W        W23368  19.457   3.797   9.126 -0.1193 -0.2628  0.0690
22505W        W23369  25.706   6.316   8.507  0.1896 -0.0450  0.2171
22506W        W23370  20.061  14.172  12.066  0.1032  0.1232  0.0031
22507W        W23371  17.397   3.971   6.079  0.0758  0.0844  0.1133
22508W        W23372   3.584  13.002   5.931  0.1313 -0.4370  0.0140
22509W        W23373  28.701  27.909  14.256  0.2650  0.0293  0.0305
22510W        W23374  13.407  26.413   9.260 -0.1390  0.3303 -0.0693
22511W        W23375   2.490  20.137  25.336 -0.2635 -0.0172 -0.1999
22512W        W23376   9.691  23.576   4.316 -0.0294 -0.2527  0.0552
22513W        W23377  24.430  25.672  22.954  0.0077  0.1659  0.3642
22514W        W23378  27.084   6.605  23.734 -0.2487 -0.0984  0.0835
22515W        W23379  21.450   9.963   0.693 -0.0842  0.0997  0.2549
22516W        W23380  19.878  24.825  13.483  0.0814 -0.1878  0.3268
22517W        W23381   0.633  12.662  13.968  0.0519 -0.1614 -0.0868
22518W        W23382  15.424  13.589  17.801 -0.1421  0.1108 -0.0616
22519W        W23383  18.278  26.120   5.015  0.1851  0.0680  0.2644
22520W        W23384  18.609  16.606  13.875 -0.2175  0.2757  0.1680
22521W        W23385   6.857   5.351  15.223  0.1404  0.3945  0.1861
22522W        W23386  15.640  17.563  14.772  0.1525  0.0327  0.0108
22523W        W23387  24.937  25.781   7.481 -0.0594 -0.0259 -0.3561
22524W        W23388  10.240  14.796  23.846 -0.0328 -0.0712  0.1979
22525W        W23389  13.956  13.188  10.420  0.0958 -0.0386 -0.1878
22526W        W23390  23.428  25.605  22.103  0.0468 -0.2664  0.1346
22527W        W23391   5.226  11.902   2.860 -0.1581 -0.0821  0.1493
22528W        W23392  23.551  28.870  10.633 -0.3350  0.0869 -0.0715
22529W        W23393   1.173  28.875  10.934 -0.2404 -0.3236  0.3828
22530W        W23394  22.432   3.707  21.032 -0.4286 -0.1417  0.1889
22531W        W23395  20.068   2.230  11.612  0.1704 -0.0864  0.0289
22532W        W23396  15.975  27.565  11.316 -0.2274  0.0265 -0.1090
22533W        W23397  25.743  27.401  14.019 -0.1155  0.0933 -0.1696
22534W        W23398  11.027  28.578  27.634 -0.1189 -0.2429  0.0398
22535W        W23399   0.194   4.213  24.181  0.0376 -0.0725 -0.1295
22536W        W23400   8.308   3.173  17.693  0.0918 -0.1542  0.3094
22537W        W23401  22.142  23.121   5.779 -0.0573 -0.1874 -0.0633
22538W        W23402   7.841  21.687  17.822 -0.3526  0.1183  0.0457
22539W        W23403  10.593   1.025   8.850  0.0785  0.2297 -0.0118
22540W        W23404  18.150  24.400   0.912 -0.1539  0.0381 -0.1509
22541W        W23405  27.787   0.985  17.919  0.2621  0.2667 -0.2347
22542W        W23406   1.605   5.091  27.778  0.2747 -0.0770 -0.0084
22543W        W23407  19.090  15.100   9.999 -0.2386  0.0353 -0.2742
22544W        W23408   8.888  10.541  10.107 -0.1488 -0.0765  0.0479
22545W        W23409  22.442  24.049   9.728  0.1177 -0.0933 -0.1730
22546W        W23410  27.775  17.752  20.798 -0.1361  0.0531 -0.0210
22547W        W23411   3.044  16.441  15.396  0.0757 -0.1330 -0.2636
22548W        W23412   3.828  27.940   0.041 -0.0511  0.2141 -0.0327
22549W        W23413   1.316   0.699   3.062 -0.1309 -0.1280  0.0104
22550W        W23414  21.738  14.842  16.597  0.0048  0.0758  0.0842
22551W        W23415  24.475  28.550   4.414 -0.1961  0.0614  0.0638
22552W        W23416   8.664  22.450  28.076  0.2746  0.0518 -0.3925
22553W        W23417  12.170  15.092  23.779  0.3008 -0.2333 -0.2576
22554W        W23418   1.752  18.805  28.796  0.0464 -0.2733  0.1947
22555W        W23419   5.842   1.231  13.670 -0.0988 -0.1012  0.2031
22556W        W23420  25.235   1.181   3.400 -0.0128 -0.0477  0.2682
22557W        W23421   3.111  10.772  10.969  0.1811 -0.0130  0.2791
22558W        W23422  25.235  24.404  11.574  0.0662  0.2374 -0.1581
22559W        W23423  23.743  25.085  15.408  0.1073  0.2654 -0.0660
22560W        W23424   2.133  19.164   1.825  0.0615  0.1230  0.0815
22561W        W23425  11.166  11.082  16.630 -0.1013  0.2406 -0.2327
22562W        W23426   6.838   8.619   7.044 -0.0134  0.2814  0.1014
22563W        W23427  20.102   0.354  26.726 -0.1247  0.1266 -0.0015
22564W        W23428  16.578   4.473  22.435  0.0820 -0.0680 -0.0225
22565W        W23429  27.821   5.533   9.519  0.3179  0.1250 -0.0400
22566W        W23430  26.906   7.884   1.074 -0.0182  0.0516  0.0178
22567W        W23431  11.208  19.182  21.319  0.1697  0.0998 -0.0325
22568W        W23432   3.441   3.763  18.622 -0.2279  0.0033 -0.0245
22569W        W23433   8.791  23.183  20.532 -0.2626  0.0747  0.0863
22570W        W23434  25.609  18.159   8.376  0.1009  0.0611 -0.2875
22571W        W23435  19.017  12.153   6.371 -0.0176  0.0184  0.1374
22572W        W23436  16.169   1.935  12.773  0.1614 -0.1465 -0.1043
22573W        W23437   1.556  16.475  20.668  0.0189 -0.1019 -0.0927
22574W        W23438  25.549   8.933  18.145 -0.0226 -0.1794 -0.0552
22575W        W23439  22.552  13.093   0.025  0.2875  0.0003 -0.0441
22576W        W23440  20.195  11.212   1.439  0.2671 -0.0086 -0.1617
22577W        W23441   2.205  12.356   8.734  0.1034 -0.2500  0.2098
22578W        W23442  20.732   8.736  14.599 -0.1232 -0.1668  0.2320
22579W        W23443   0.713  28.602  28.465  0.0118 -0.0102  0.1237
22580W        W23444  18.287  10.703  15.920  0.0915 -0.0914  0.2386
22581W        W23445  20.664  24.705  25.354  0.4521 -0.1002 -0.1809
22582W        W23446  15.023   5.487  15.714 -0.1086  0.0309  0.2762
22583W        W23447  21.545   2.927  12.983  0.1811  0.3765 -0.2579
22584W        W23448   1.257   4.499   4.979 -0.0001  0.0894  0.0918
22585W        W23449  13.458  28.254  22.018  0.3701  0.2784  0.0171
22586W        W23450   4.060   7.937   9.590 -0.2434  0.0908 -0.0347
22587W        W23451   8.907  14.485  14.906  0.1774  0.0879 -0.0069
22588W        W23452  11.101  22.888  11.081 -0.1015  0.0903  0.2182
22589W        W23453  12.249   3.984  22.762 -0.0569  0.0736  0.1485
22590W        W23454  25.215  18.119  11.772  0.0767 -0.3489  0.1861
22591W        W23455   9.826  21.433   8.527  0.2441  0.4766  0.0574
22592W        W23456  19.502  21.044   5.243  0.0065  0.3484 -0.4118
22593W        W23457  19.553   1.648  19.104 -0.2358 -0.1073 -0.0163
22594W        W23458   2.106  20.310  12.670 -0.1116 -0.0930 -0.2616
22595W        W23459   5.546  18.259   8.429  0.2198 -0.0323 -0.2189
22596W        W23460  25.122   1.357  26.303  0.1144  0.0121  0.0232
22597W        W23461  20.848   9.508   5.462  0.0419 -0.1778 -0.0620
22598W        W23462   8.387  22.235   6.226 -0.0809 -0.2399 -0.4898
22599W        W23463  17.392   4.732  20.336 -0.2830  0.1448 -0.0505
22600W        W23464   5.593   3.175  11.152 -0.0042 -0.5561 -0.1612
22601W        W23465  19.139  23.137   1.451 -0.1724 -0.0762  0.1039
22602W        W23466   3.357  27.184   0.257  0.0061  0.1286 -0.0009
22603W        W23467  15.914   1.166  27.020  0.3007 -0.0480  0.0631
22604W        W23468   6.220   1.651  11.738 -0.2953  0.5481 -0.2706
22605W        W23469   9.878  28.346   9.661 -0.0363  0.3709  0.1815
22606W        W23470   5.618  24.911  13.070 -0.3609 -0.0608 -0.1777
22607W        W23471  11.232  22.549  26.239  0.2484  0.2125  0.1345
22608W        W23472  15.236   4.192   5.786 -0.0506  0.3571  0.2245
22609W        W23473  12.572  13.280   8.010 -0.1954 -0.3506  0.1227
22610W        W23474  24.519  11.657  22.134 -0.0895  0.0157 -0.0166
22611W        W23475  18.274  22.880   5.809  0.0704  0.0240  0.0004
22612W        W23476  25.368   3.044  22.186 -0.3056 -0.0487 -0.1429
22613W        W23477  18.094  16.919  19.277 -0.0205  0.2201 -0.0419
22614W        W23478  27.764  19.191  10.617 -0.0351 -0.0192 -0.0471
22615W        W23479  17.060  25.781  15.133  0.2819  0.4221  0.0277
22616W        W23480  16.507  12.034   9.010 -0.2941 -0.0408 -0.3132
22617W        W23481  22.613  10.629  22.021 -0.0823  0.0600  0.1486
22618W        W23482   8.036  10.485   7.386  0.0013 -0.5553  0.4288
22619W        W23483  28.158  18.737   8.161  0.0278 -0.1265 -0.0670
22620W        W23484   8.157  28.487  25.634 -0.1989  0.2421 -0.0617
22621W        W23485   7.962  14.034  29.076 -0.0367  0.0744 -0.1175
22622W        W23486   2.534  15.641   5.385 -0.3085  0.0235 -0.1298
22623W        W23487   0.222  28.113   5.848 -0.0377 -0.2017  0.0595
22624W        W23488   7.551   9.405  19.170 -0.0192 -0.0196  0.4134
22625W        W23489  20.649  18.032  19.599  0.2770 -0.0035  0.1693
22626W        W23490  28.005   9.797   8.250  0.2430  0.1916  0.3262
22627W        W23491  28.998  12.180  11.666 -0.3356  0.3042  0.0775
22628W        W23492  19.088  18.391  13.444 -0.2544 -0.1039 -0.1910
22629W        W23493   1.351   8.961  23.966  0.2782 -0.2922  0.0450
22630W        W23494  16.799  15.939   8.019 -0.2807 -0.0296 -0.2313
22631W        W23495  15.245  20.685  22.061 -0.3347 -0.0973 -0.1979
22632W        W23496  22.858  12.107  18.799 -0.0707 -0.0542 -0.3551
22633W        W23497  17.576  12.194   4.118  0.0141 -0.0179  0.2293
22634W        W23498  14.428   5.203  20.891 -0.1526  0.4011  0.2067
22635W        W23499  22.279  26.250   7.084 -0.2752 -0.1752 -0.0706
22636W        W23500  23.032   9.319  27.743 -0.1341  0.0595 -0.2415
22637W        W23501  28.015  12.971  27.589 -0.0190  0.2100 -0.1853
22638W        W23502  26.650   0.067   5.495 -0.1353  0.0708 -0.1254
22639W        W23503  15.086  15.697   6.054 -0.0113 -0.4469 -0.0244
22640W        W23504  17.644  15.677  15.328 -0.0946 -0.1368 -0.3520
22641W        W23505   1.034  12.254  10.101  0.1741 -0.0911  0.0877
22642W        W23506  11.283   1.193   6.611 -0.0537  0.0240 -0.3628
22643W        W23507   2.536  18.626   0.947  0.2591 -0.1931 -0.2448
22644W        W23508  10.331   4.388  14.638 -0.1230 -0.1278  0.1226
22645W        W23509  10.693  12.869  23.812 -0.1639 -0.2480 -0.2084
22646W        W23510   8.860  27.394  22.504 -0.0527 -0.1400  0.0917
22647W        W23511  10.863  11.052  16.231 -0.1862 -0.1816 -0.5119
22648W        W23512  17.505  28.883   3.020 -0.0548 -0.0221  0.1207
22649W        W23513  22.596  28.915   4.294 -0.0426 -0.0943 -0.2432
22650W        W23514  18.866  11.557   5.697  0.4806  0.0011  0.1022
22651W        W23515  12.028  23.360   4.756  0.1577  0.2405 -0.1373
22652W        W23516  21.704   9.633  16.156 -0.3151 -0.0662 -0.0298
22653W        W23517   7.394   4.064   2.452 -0.4830  0.3417  0.1258
22654W        W23518   8.053   1.577   1.518 -0.0983 -0.0041  0.0701
22655W        W23519   7.771   1.194  25.774  0.0178 -0.0224 -0.2397
22656W        W23520  22.706   6.367   1.384 -0.0006  0.2436 -0.0686
22657W        W23521  10.218  20.466  16.912 -0.1817  0.1162  0.0578
22658W        W23522  24.883   5.053  16.464 -0.0998 -0.4318 -0.1988
22659W        W23523  17.473  24.966   7.263  0.1326  0.0295  0.1955
22660W        W23524   0.990  19.493  21.529  0.1129 -0.0289 -0.3033
22661W        W23525  17.388  19.287   9.295 -0.1254 -0.2098  0.0356
22662W        W23526  26.225  23.842  18.381 -0.3082  0.1296 -0.0906
22663W        W23527  12.131  28.710  14.256 -0.0261 -0.1951  0.1884
22664W        W23528  23.855   7.994  13.654  0.2232  0.1378  0.2350
22665W        W23529  19.431  24.604   8.411  0.2066  0.3050  0.1688
22666W        W23530  12.009  24.147  20.150 -0.0106  0.1577  0.0300
22667W        W23531  25.755  14.029   9.351 -0.2779 -0.2286  0.0806
22668W        W23532  21.705   5.450  22.973  0.2130  0.0792  0.0230
22669W        W23533  18.560  27.981   6.439 -0.1315 -0.0053 -0.0526
22670W        W23534   1.046   7.138  15.901  0.0418  0.1034 -0.3419
22671W        W23535  16.530  25.537   3.874 -0.3727  0.0613  0.0266
22672W        W23536   9.439  13.056   0.981  0.0434 -0.1173 -0.3264
22673W        W23537   9.662  24.155   3.006 -0.0357  0.0343  0.2230
22674W        W23538  28.616   6.415  22.926  0.3715  0.0076 -0.0626
22675W        W23539   8.845   4.540  15.590  0.0002  0.1297  0.0612
22676W        W23540  22.737   8.727   8.420  0.1426  0.0991  0.2117
22677W        W23541   9.212  23.497   6.517  0.2499 -0.0342  0.0678
22678W        W23542  27.604  20.628   5.129 -0.1037  0.1810 -0.1763
22679W        W23543  13.212  17.886   7.711 -0.3146  0.0786 -0.2303
22680W        W23544  11.822  23.585   6.660  0.1399 -0.0872  0.1209
22681W        W23545  23.203  18.534   4.615 -0.2203  0.0565  0.2076
22682W        W23546   1.580  14.531   0.726 -0.1112 -0.1616 -0.0038
22683W        W23547  19.553  18.263   0.528  0.0319 -0.4505  0.0259
22684W        W23548   2.996  17.460  19.591  0.1663  0.1109  0.4202
22685W        W23549  18.177   2.940  25.770 -0.1888 -0.0239  0.0432
22686W        W23550   0.477   7.500   4.224  0.0660  0.1499 -0.1348
22687W        W23551  11.949   0.656   1.981  0.0500  0.0969 -0.1443
22688W        W23552  25.580  10.322  18.694  0.1760  0.2349 -0.0030
22689W        W23553   5.294  25.693  15.565  0.2645 -0.0274  0.0779
22690W        W23554   1.611  27.363   2.367  0.0268  0.0701 -0.2241
22691W        W23555   7.414  27.724  21.195 -0.2402  0.0427 -0.0958
22692W        W23556   7.368  22.022  15.669 -0.0011 -0.0253  0.0306
22693W        W23557   5.499  27.233   8.812  0.2108 -0.2069  0.0199
22694W        W23558  12.862  23.550  20.358  0.1394 -0.1637  0.0071
22695W        W23559  16.034  22.459   9.246 -0.0021 -0.1552 -0.4961
22696W        W23560   0.371   7.192   7.086  0.1456 -0.0147  0.3101
22697W        W23561   3.680  19.184   0.102  0.3095 -0.1228  0.1244
22698W        W23562   4.161  20.716  12.288  0.1461 -0.1139 -0.0769
22699W        W23563  11.527  15.122  28.719  0.0530 -0.0094  0.1186
22700W        W23564  20.166  22.503   9.865 -0.3040 -0.0557  0.1121
22701W        W23565   0.821  26.476  19.416 -0.0033  0.1528 -0.0270
22702W        W23566  25.702  19.947  11.858 -0.2529 -0.2765 -0.1471
22703W        W23567  18.304  21.190  24.445 -0.0167  0.0810 -0.0901
22704W        W23568  24.093  20.078  18.875  0.3267  0.0507 -0.1614
22705W        W23569  27.616  15.141  16.307  0.2475  0.0032 -0.0974
22706W        W23570  15.004   3.154  22.535  0.1136  0.1870 -0.0149
22707W        W23571  17.777   0.380   4.391  0.2356  0.2171  0.2272
22708W        W23572  20.603  21.467   4.687  0.0903 -0.0554 -0.1446
22709W        W23573  17.276  23.835   4.167  0.0551  0.0493 -0.3780
22710W        W23574  13.868  13.714  17.801  0.2057 -0.2983 -0.1033
22711W        W23575  19.473   9.233   8.081 -0.0228  0.1795 -0.0717
22712W        W23576  17.847   1.886  21.894 -0.1395 -0.0051 -0.0219
22713W        W23577  25.101  28.883  28.976  0.3206  0.1476  0.0130
22714W        W23578  25.077  19.252   3.999  0.0214 -0.4603 -0.3612
22715W        W23579  18.724  21.774   9.239 -0.2072 -0.0442  0.0847
22716W        W23580  17.246   0.557   3.048  0.2085  0.1112 -0.0306
22717W        W23581   0.741  25.864   5.351  0.0184  0.0341 -0.0916
22718W        W23582  13.748  26.917  16.909 -0.0553  0.1868 -0.0466
22719W        W23583   1.905   6.639  13.613  0.1035 -0.0479 -0.1685
22720W        W23584  26.700  20.707   9.735 -0.1757  0.2788  0.2727
22721W        W23585  15.779   7.780  13.783 -0.0623  0.0151  0.0363
22722W        W23586  28.675  16.112   5.671 -0.1165  0.2178  0.0959
22723W        W23587  25.563   0.685  27.205  0.1863  0.2297 -0.2264
22724W        W23588   9.194  20.249   7.210  0.0689 -0.0158 -0.1497
22725W        W23589  19.345  16.692  25.893 -0.1446 -0.2100  0.5915
22726W        W23590  17.334   3.613  27.376  0.0251 -0.2508  0.0002
22727W        W23591   3.978  12.493  10.561  0.4427  0.0239 -0.1557
22728W        W23592  11.897   4.459  15.717 -0.1845 -0.0078 -0.1767
22729W        W23593  21.964  18.190  12.402  0.5100  0.0181  0.2351
22730W        W23594   8.659  18.919  17.544  0.2937  0.3109  0.2777
22731W        W23595  16.959  26.273  10.377 -0.0821 -0.2236  0.1402
22732W        W23596  10.261  11.257  17.911 -0.4259  0.0873 -0.0910
22733W        W23597  14.386  16.333   7.680  0.0743  0.2170 -0.0729
22734W        W23598  19.689  17.782  10.469  0.0554 -0.2168  0.0009
22735W        W23599  17.086  12.317  14.690  0.0511 -0.2119  0.0556
22736W        W23600  14.731  23.099  28.274 -0.2984  0.2989  0.1928
22737W        W23601   7.292  19.339   9.912  0.1023  0.1844  0.2192
22738W        W23602  15.869  22.132  24.413 -0.2414 -0.0070 -0.1769
22739W        W23603  27.456   6.258   8.257  0.0853 -0.2630  0.2476
22740W        W23604  11.992   8.192  11.024 -0.0941 -0.0271 -0.2797
22741W        W23605  22.619   9.620  18.250 -0.0023  0.0645 -0.2070
22742W        W23606  17.805  19.135  27.207  0.3750 -0.0984 -0.0542
22743W        W23607  26.040   2.903  27.173  0.1302  0.1351 -0.1372
22744W        W23608   1.461  26.835   8.884 -0.1552 -0.0607  0.2854
22745W        W23609   6.630   0.123   0.746 -0.0517  0.1332 -0.0634
22746W        W23610  15.756   7.966  11.120 -0.2190 -0.1368 -0.2627
22747W        W23611  16.859   8.679   5.347 -0.1937 -0.0603 -0.0181
22748W        W23612  24.919  17.650   1.603  0.1994  0.0031  0.0632
22749W        W23613  18.167   9.359   7.072 -0.1499  0.0313 -0.1467
22750W        W23614  28.092   0.457  26.006 -0.1126  0.0978  0.0112
22751W        W23615  28.719  24.450  17.747  0.1466 -0.1108  0.2355
22752W        W23616  28.355  16.076   1.830 -0.2287  0.1191  0.0285
22753W        W23617  10.579   0.519   8.024 -0.0477 -0.1055 -0.0145
22754W        W23618  16.773  18.218  26.691 -0.2735 -0.2085 -0.1310
22755W        W23619  14.523  14.380  17.826  0.4560 -0.0334  0.2203
22756W        W23620  22.696  18.936  11.681  0.2778  0.0507  0.2233
22757W        W23621   4.539  14.534   7.173 -0.0724 -0.1962  0.0323
22758W        W23622   0.782   1.843   8.737  0.0851  0.0917  0.2106
22759W        W23623  16.546  27.536  18.451 -0.1138  0.1323 -0.2371
22760W        W23624  10.121  14.848  17.797 -0.0750  0.1409  0.0927
22761W        W23625  17.865   2.485  25.765  0.0146  0.2823  0.2135
22762W        W23626  11.171   1.503   3.191 -0.2570 -0.2248 -0.2845
22763W        W23627   3.780  26.377  15.188  0.2645  0.1526 -0.1235
22764W        W23628  17.651  27.873  11.099 -0.2579 -0.1750  0.1602
22765W        W23629  12.566  20.584  10.736 -0.0925  0.1110 -0.0444
22766W        W23630  26.639  27.272   2.121 -0.0607  0.1919 -0.1007
22767W        W23631   9.107  27.922   9.598 -0.0522  0.1153 -0.1917
22768W        W23632  28.199  14.835  23.339 -0.0638  0.0923 -0.5138
22769W        W23633  26.842  24.083   5.634 -0.2480  0.2886  0.3536
22770W        W23634  25.882  19.263   9.518  0.0212  0.0318 -0.1364
22771W        W23635   5.152  10.082   9.702  0.2794 -0.0522  0.0061
22772W        W23636  13.621  27.496  16.259 -0.0882 -0.0408  0.1765
22773W        W23637   0.616  10.981   6.407  0.3243 -0.0631 -0.1291
22774W        W23638  15.370  19.655   7.136 -0.0013  0.0121 -0.0611
22775W        W23639  23.892  20.480  21.495  0.1040 -0.0274  0.1736
22776W        W23640  17.851  15.225   3.818  0.1309  0.2139 -0.2882
22777W        W23641  13.415  24.083  25.568 -0.0082  0.0625 -0.1913
22778W        W23642   5.007  25.717   9.324  0.0683  0.0148  0.4137
22779W        W23643  19.994  21.328   1.696  0.1540 -0.0360  0.0973
22780W        W23644   6.961  23.111   9.427  0.1727  0.1457  0.1130
22781W        W23645  12.964  15.884   5.400  0.1925  0.1162 -0.0769
22782W        W23646  20.387   1.743   3.277 -0.0400  0.1422 -0.0860
22783W        W23647   2.610  11.049  16.194 -0.1250 -0.0429  0.0043
22784W        W23648  11.788   6.400  21.924  0.0801  0.2232 -0.1272
22785W        W23649   6.843   0.834   9.621 -0.0035 -0.2452 -0.1927
22786W        W23650  27.936  18.563  13.145  0.1087 -0.1129 -0.2032
22787W        W23651   7.006  22.092  28.219 -0.0194  0.0255 -0.0744
22788W        W23652  19.295  13.850  24.590 -0.1067  0.0916 -0.2115
22789W        W23653   2.994  27.012  19.326  0.0749  0.2124 -0.0430
22790W        W23654  11.802   4.480  27.149 -0.1888 -0.0500  0.1047
22791W        W23655  17.731   4.330  24.056  0.0978 -0.1147 -0.0875
22792W        W23656  26.643   1.671  28.567  0.2723  0.1620  0.1679
22793W        W23657   6.124  15.200  15.714  0.1111  0.0165 -0.0587
22794W        W23658   0.836  26.334  14.832 -0.1873  0.0769  0.2203
22795W        W23659  24.818   5.962  15.971 -0.0393 -0.2993  0.0028
22796W        W23660  18.848   3.300   6.902  0.0035  0.1647  0.0901
22797W        W23661  13.249  18.687   3.206 -0.4857 -0.0523 -0.0032
22798W        W23662  21.018  15.953  17.202  0.2124 -0.4665 -0.1697
22799W        W23663   0.884  17.748   7.701  0.3697 -0.0398  0.0137
22800W        W23664  15.792   2.602  21.409  0.1172  0.1587 -0.0050
22801W        W23665  16.215  27.179  13.767 -0.1589  0.0185  0.1514
22802W        W23666  12.985   1.379   2.233 -0.0639  0.1866  0.1309
22803W        W23667  26.790  22.535   3.055 -0.0196 -0.1294 -0.2377
22804W        W23668  19.328   0.084   6.848 -0.2327  0.3168  0.0450
22805W        W23669   8.228  27.147   0.760  0.1711  0.2427 -0.1717
22806W        W23670  26.554  25.033   2.708  0.2445 -0.2217 -0.2264
22807W        W23671  13.107  12.260  27.135  0.0050 -0.3044 -0.1879
22808W        W23672   5.639  19.123  10.683 -0.2704  0.1531  0.2110
22809W        W23673  14.962  10.776   5.167  0.2969  0.1432 -0.0417
22810W        W23674  25.140  28.926   0.681  0.0407 -0.3451 -0.0034
22811W        W23675  17.113  26.412  14.149 -0.0616  0.2542 -0.0029
22812W        W23676   8.718  13.400   5.932 -0.1659 -0.1528 -0.1736
22813W        W23677   4.272  21.169   1.163 -0.0813 -0.0475  0.0009
22814W        W23678   1.770  14.051  26.198 -0.1284 -0.0232  0.4529
22815W        W23679   1.586  20.177  10.751  0.0366  0.0238 -0.0788
22816W        W23680  15.437  21.830   9.695 -0.1100 -0.2036 -0.1518
22817W        W23681   8.332  21.279   7.692  0.0589  0.1934  0.0905
22818W        W23682   0.702  16.011  14.362 -0.0675  0.2076  0.1355
22819W        W23683   5.561  18.611  23.729 -0.0745 -0.1653  0.1207
22820W        W23684  23.342   5.743  19.601 -0.3078  0.0531 -0.2721
22821W        W23685  21.963   9.943  21.855  0.1005  0.1251  0.4236
22822W        W23686  17.093  13.063   7.804  0.1266 -0.3455 -0.0476
22823W        W23687  24.302  21.639  15.100 -0.1082  0.0868  0.0608
22824W        W23688  25.422  22.010  22.777 -0.1892 -0.3105 -0.0144
22825W        W23689  25.986  20.826  11.495  0.0393  0.3923  0.3656
22826W        W23690   3.205   1.391   7.391  0.0957 -0.1512 -0.1031
22827W        W23691   9.951  25.619   7.954  0.2989 -0.0773 -0.1170
22828W        W23692   4.440  16.036  19.474  0.0517  0.2424  0.2651
22829W        W23693  13.033  18.227   7.014  0.0434 -0.0892 -0.0490
22830W        W23694  18.747   0.653   7.368  0.0255  0.1363 -0.1521
22831W        W23695  17.677  25.698  13.214 -0.3417  0.1775 -0.0091
22832W        W23696  20.612  11.691   2.595 -0.1006  0.0791  0.1454
22833W        W23697  25.212  11.648   9.303  0.0292 -0.2346 -0.1039
22834W        W23698   5.285  27.749  20.847 -0.0502 -0.0907  0.0848
22835W        W23699   9.215   1.663  12.679 -0.1623 -0.0256  0.2401
22836W        W23700   7.211  27.059   0.057 -0.0550  0.0980 -0.0250
22837W        W23701  16.330  19.997  16.861 -0.3064 -0.0809 -0.0067
22838W        W23702  14.297  12.075  10.927  0.2879  0.2901 -0.2411
22839W        W23703  27.686   2.602  11.484 -0.2172 -0.1358  0.0426
22840W        W23704  20.375  23.287  13.115  0.1198  0.3135  0.0174
22841W        W23705   7.504   3.882  10.447  0.1947  0.2884  0.2814
22842W        W23706  13.165   7.025   7.266  0.1922  0.0494  0.0461
22843W        W23707  16.659  18.074   8.287 -0.0599 -0.0011  0.0326
22844W        W23708   0.667  14.496  18.271 -0.1904 -0.0167 -0.0166
22845W        W23709  14.898   2.267  14.748  0.1059 -0.0580 -0.1788
22846W        W23710  12.478  22.739  20.146  0.6713  0.1201  0.0039
22847W        W23711  24.420   0.331  25.224 -0.1583  0.0993  0.1349
22848W        W23712   2.881  25.493  11.681 -0.1141 -0.1889  0.2692
22849W        W23713   2.491  25.793   2.152  0.1902 -0.2016 -0.1355
22850W        W23714  11.043   1.755  18.861  0.1641  0.1333 -0.2984
22851W        W23715  22.857  22.575   7.353  0.1996 -0.1953 -0.0680
22852W        W23716  21.631  11.215  14.890  0.0202  0.1742 -0.3148
22853W        W23717   1.439  24.793   6.795  0.0243 -0.2317 -0.1016
22854W        W23718  26.967   4.203  23.257  0.2488  0.0625  0.0122
22855W        W23719  13.187   2.561   4.354 -0.0087  0.0006  0.0648
22856W        W23720   8.590   2.129   3.354  0.1395 -0.2053 -0.2344
22857W        W23721   1.380   2.547  23.368 -0.1159 -0.0896 -0.1281
22858W        W23722   9.319  12.841  12.898 -0.0778 -0.3453  0.1625
22859W        W23723  27.378  21.219   0.318 -0.0520  0.0095  0.2745
22860W        W23724   0.151   9.383  21.173  0.1413  0.0286 -0.1242
22861W        W23725  20.640  17.765   9.462 -0.0792  0.0714  0.1397
22862W        W23726  12.426  27.486  22.604 -0.1677 -0.0529  0.3570
22863W        W23727   4.133  26.263   5.263  0.0322  0.2759  0.0964
22864W        W23728  17.178  20.859  10.277  0.0234 -0.1308  0.1959
22865W        W23729  22.508  14.198   7.173  0.0306  0.0535  0.2307
22866W        W23730  10.803  10.407   4.074 -0.1157 -0.1043 -0.1178
22867W        W23731  20.478  18.864  18.582 -0.1105 -0.2036 -0.0934
22868W        W23732  26.572  24.524   8.555 -0.1703  0.0490 -0.1632
22869W        W23733   5.463  15.576  13.955  0.1387 -0.3229 -0.0399
22870W        W23734  26.360  25.025  16.073  0.1164  0.2805  0.0039
22871W        W23735  15.917   6.795   2.480  0.0917  0.3110  0.0069
22872W        W23736  14.132  26.888  24.364  0.0873  0.0664  0.0182
22873W        W23737  19.425  10.314  11.726  0.3336 -0.1028  0.1087
22874W        W23738  10.930   3.819   8.286  0.0270  0.1455 -0.1712
22875W        W23739  11.097  26.444   4.905  0.1519  0.1469  0.1197
22876W        W23740  22.288  25.111   6.992  0.5039  0.2384  0.2886
22877W        W23741  21.794  12.791   6.561  0.1790  0.0033 -0.1659
22878W        W23742  25.506  24.409  22.528 -0.1605 -0.1508  0.0776
22879W        W23743  12.520   4.460  16.938  0.1711 -0.1756 -0.1244
22880W        W23744  21.186  25.775   7.071 -0.3113  0.1413 -0.1239
22881W        W23745  11.068  24.493  10.451  0.1842 -0.0076 -0.1209
22882W        W23746   6.998   1.557   2.616 -0.0483 -0.2611  0.2488
22883W        W23747   8.697  24.179   7.038 -0.4359 -0.1664 -0.0417
22884W        W23748  27.850  26.168   5.251  0.5327 -0.2032  0.0154
22885W        W23749   0.646  15.864  17.796 -0.1671  0.2185 -0.1949
22886W        W23750   8.286  27.204  11.553  0.1287 -0.0828  0.0913
22887W        W23751  20.678   3.917  13.070 -0.0189 -0.1972 -0.2013
22888W        W23752   8.790  10.076  28.755  0.1153 -0.2528 -0.0914
22889W        W23753  15.175  28.145   5.352  0.2092  0.0689  0.1273
22890W        W23754  10.379  17.047  24.195  0.0789 -0.1265 -0.2065
22891W        W23755  21.288  21.131  14.535 -0.4034 -0.1717 -0.0158
22892W        W23756   7.001   4.837  28.068  0.1493 -0.2057  0.1046
22893W        W23757   2.855   2.741  25.680  0.0067 -0.1582 -0.2249
22894W        W23758   1.013  27.933  14.960  0.0932  0.0828  0.1765
22895W        W23759   7.540   8.137   8.239  0.0771  0.1206  0.0371
22896W        W23760  14.521  16.599   4.638 -0.0117  0.0354 -0.2796
22897W        W23761  12.975   2.307  24.774 -0.3451 -0.1131 -0.0061
22898W        W23762  25.768  17.631  15.517  0.0912 -0.1746 -0.1692
22899W        W23763  10.608   4.873  18.213  0.1107  0.0176 -0.0596
22900W        W23764  20.615  28.112   7.372  0.1061 -0.3306  0.0350
22901W        W23765   7.053   1.532  20.792 -0.0151 -0.1630  0.0446
22902W        W23766   7.711  11.018  28.915  0.1654 -0.0367 -0.0569
22903W        W23767  24.330  22.285   4.847  0.0245 -0.4462 -0.0411
22904W        W23768   7.990   8.031  10.562  0.2782 -0.2236 -0.0120
22905W        W23769  14.165   9.101   2.080  0.0483  0.2181  0.0399
22906W        W23770  16.992  17.170  26.881  0.0166 -0.1439  0.1441
22907W        W23771  16.855  16.954   5.932 -0.2804  0.0381  0.0670
22908W        W23772   8.400  28.596  13.410 -0.2452 -0.1006 -0.0774
22909W        W23773   5.629  19.404   0.976 -0.0770  0.1014  0.2078
22910W        W23774  23.551  20.648  15.997 -0.0495 -0.1286 -0.0715
22911W        W23775  19.758  22.889  12.490 -0.0336 -0.0053  0.0194
22912W        W23776   1.341   8.446  11.808 -0.0488 -0.1056  0.1447
22913W        W23777  14.396  28.395   2.517 -0.1035  0.0663 -0.0630
22914W        W23778  12.023  17.587   6.258 -0.2835 -0.1677 -0.2244
22915W        W23779   9.085  15.811   7.225 -0.0708 -0.1418  0.1244
22916W        W23780  14.381  16.928   6.420  0.3036 -0.0902 -0.1123
22917W        W23781   1.936   4.274  27.359 -0.1193 -0.1714  0.1102
22918W        W23782  21.186   1.555  26.322 -0.1164  0.0124  0.3916
22919W        W23783  11.073   1.234   9.649 -0.1183  0.2632  0.0348
22920W        W23784  25.791  16.562  24.451  0.0613 -0.1503 -0.0724
22921W        W23785  21.477  25.983  17.877  0.0756 -0.0473 -0.0038
22922W        W23786  20.073   7.032  21.668  0.0773  0.1821  0.0875
22923W        W23787  16.834  28.824  12.884 -0.2057  0.0369  0.1034
22924W        W23788  27.354  21.566  23.242 -0.2748 -0.2289 -0.0047
22925W        W23789  22.572  17.050  21.781  0.0493  0.2779 -0.2608
22926W        W23790  28.236  11.400  19.167 -0.2364 -0.1945  0.1419
22927W        W23791  23.487   7.637  22.661 -0.1489 -0.1476 -0.0254
22928W        W23792  27.761  24.063   3.637  0.1803 -0.1818 -0.1019
22929W        W23793  17.848  25.630   3.032 -0.1039  0.2423 -0.0073
22930W        W23794  29.010  22.256   0.079 -0.0854 -0.2307  0.0013
22931W        W23795  21.841   3.635  12.164  0.1034 -0.1834 -0.1217
22932W        W23796  23.976  10.496   6.497 -0.0393 -0.1490 -0.1001
22933W        W23797   3.751  15.814  26.024  0.0172  0.1442  0.0737
22934W        W23798  12.068   3.620  22.013 -0.1377  0.2938 -0.1602
22935W        W23799  14.762  21.126   2.324  0.0637  0.0133 -0.0087
22936W        W23800   6.131  11.578  21.092 -0.1502  0.5498 -0.3165
22937W        W23801  20.889   2.303   5.042 -0.0108 -0.1545  0.3772
22938W        W23802  21.753  22.793  19.967 -0.0471  0.2876 -0.2145
22939W        W23803  12.326  22.020   7.248 -0.0029 -0.1749  0.0034
22940W        W23804  17.495  28.526   8.177  0.0256  0.3008  0.4542
22941W        W23805  28.069  20.761   9.642  0.0342  0.0779  0.2201
22942W        W23806  23.004  21.654   6.066 -0.0280 -0.1620 -0.0959
22943W        W23807  14.803  21.521  11.662 -0.0913  0.0546  0.3493
22944W        W23808  18.852  22.923   9.758 -0.0270  0.2848 -0.1361
22945W        W23809  26.175   0.645   9.376 -0.0449 -0.1044  0.2313
22946W        W23810   7.942  27.688   4.600  0.2352 -0.0117 -0.0410
22947W        W23811  16.340  16.904   6.333 -0.1255  0.3282  0.3675
22948W        W23812  10.852  26.147  22.994 -0.0833 -0.0926 -0.1134
22949W        W23813  19.389   3.241  12.710 -0.1648 -0.2970  0.1963
22950W        W23814  21.155  11.504  23.248  0.1438 -0.0796  0.3258
22951W        W23815  27.830  13.662  15.165 -0.0945 -0.3397 -0.1180
22952W        W23816  21.719  23.628   8.807 -0.3974 -0.1239  0.0542
22953W        W23817   2.134  19.516  23.227  0.4318  0.0270  0.0736
22954W        W23818  15.241   9.393  12.908 -0.0956 -0.0690  0.0819
22955W        W23819  14.803   0.555  24.802  0.0526 -0.1531  0.0159
22956W        W23820  20.430   0.790  22.980  0.0410 -0.1753  0.0637
22957W        W23821  24.915   6.171  14.902 -0.2354 -0.0338  0.2028
22958W        W23822  20.573  23.306   9.505  0.0516  0.1513 -0.0608
22959W        W23823  12.540  26.630  14.146  0.2454  0.2728 -0.1200
22960W        W23824  28.917  16.550   3.090  0.0983 -0.2003  0.3403
22961W        W23825  22.468  11.183  17.464 -0.2262 -0.2267  0.0437
22962W        W23826   8.110  28.702   9.941  0.0855  0.0039  0.3643
22963W        W23827  10.183   0.469  22.128  0.2789 -0.1112  0.0605
22964W        W23828  19.710  10.894  26.083 -0.1893  0.0819  0.2010
22965W        W23829  27.860   0.817  21.096 -0.4189 -0.0362 -0.1340
22966W        W23830  18.588  15.601  14.114  0.1293  0.0922 -0.1022
22967W        W23831  18.500  20.713  27.708  0.2002 -0.1525 -0.0145
22968W        W23832  17.342  12.943  14.188 -0.0742 -0.0777 -0.1675
22969W        W23833  10.407  19.388   2.793 -0.1755  0.1439 -0.0890
22970W        W23834  15.901  27.709   2.723 -0.0875 -0.1813  0.0821
22971W        W23835  22.762  28.373  13.211 -0.0423  0.0155 -0.1716
22972W        W23836  22.246   8.856  11.418  0.0145 -0.1269 -0.2028
22973W        W23837  16.866  13.454  18.613  0.0319  0.1535 -0.2590
22974W        W23838  18.047   2.367  13.249 -0.1879  0.1872 -0.0384
22975W        W23839  17.093   2.266  17.950 -0.1213 -0.0033 -0.2001
22976W        W23840  24.335  12.544   7.093  0.1359  0.0969  0.1388
22977W        W23841   5.583  18.871  16.913 -0.0532  0.0347  0.1217
22978W        W23842   0.265  12.004  21.852 -0.1345 -0.0947  0.1448
22979W        W23843  25.101  14.509  18.870 -0.1360  0.2619 -0.0405
22980W        W23844  12.698   5.119  17.651 -0.0567 -0.0177 -0.1581
22981W        W23845  21.266  24.259  17.969  0.0543 -0.0742  0.1736
22982W        W23846   8.587  17.238  10.159 -0.0060  0.1861 -0.3241
22983W        W23847  15.673   7.295  13.683  0.1577  0.0688  0.1915
22984W        W23848   8.843   2.553  22.236  0.1845 -0.1583  0.1000
22985W        W23849   9.956  10.836  15.663 -0.0401 -0.0689 -0.0492
22986W        W23850  22.465  13.127   7.274 -0.2328  0.2308  0.0628
22987W        W23851  25.890   0.459  19.549 -0.2945  0.0974  0.4651
22988W        W23852  17.965  20.498  12.356  0.0350  0.1514 -0.0822
22989W        W23853   4.984  22.464   4.768  0.1904 -0.1627 -0.1276
22990W        W23854   7.370  28.219   8.910 -0.0098  0.1226  0.1538
22991W        W23855  17.115  27.004   1.663  0.0784  0.1545  0.3434
22992W        W23856  19.154   2.000  17.567  0.1531  0.0306  0.4473
22993W        W23857  20.189  27.114  23.466 -0.4596 -0.0254  0.1453
22994W        W23858  22.765  28.898   2.524 -0.0430  0.0414 -0.1999
22995W        W23859  22.889  11.226  11.317 -0.0138 -0.4231  0.2009
22996W        W23860   0.679  27.086  20.655 -0.0700 -0.1408  0.1199
22997W        W23861  24.439  26.711  16.623 -0.1853 -0.2298  0.2648
22998W        W23862  16.108   8.943  19.870 -0.1682 -0.0041 -0.2419
22999W        W23863   9.433  26.843   8.300  0.0282 -0.4539  0.0177
23000W        W23864  24.756  11.886  16.445  0.1281 -0.0924 -0.1031
23001W        W23865   5.975   9.482  14.954  0.1646 -0.1251  0.1519
23002W        W23866   5.544   9.926  14.493 -0.2007  0.0321  0.1056
23003W        W23867   8.312   0.180  23.323  0.1862 -0.2778  0.0680
23004W        W23868  17.131   0.204  20.107 -0.2529  0.3167 -0.0286
23005W        W23869   5.739   1.428  23.041 -0.1170 -0.1418 -0.1010
23006W        W23870  27.098  12.594   9.611 -0.3415 -0.1864  0.0022
23007W        W23871  10.092   4.189   4.553  0.1828 -0.3325  0.1418
23008W        W23872  24.103  27.749  12.913  0.1066  0.1046 -0.0395
23009W        W23873  17.016  25.635   4.053 -0.2960  0.0373 -0.0591
23010W        W23874   3.442   9.020  24.705 -0.1383 -0.3150 -0.0335
23011W        W23875  16.156   5.819  12.266  0.2695  0.0485  0.1198
23012W        W23876  11.617  20.806  13.251 -0.3717  0.1167 -0.1054
23013W        W23877  21.301   2.861  23.296 -0.0998 -0.3824  0.1205
23014W        W23878  28.625  14.426  14.682  0.0284 -0.1155 -0.2446
23015W        W23879   8.045  23.815  22.114 -0.0340 -0.2812  0.1984
23016W        W23880  12.485  19.100  16.149 -0.0471  0.0125  0.0068
23017W        W23881   6.068  20.935  16.575 -0.6147  0.1523 -0.0936
23018W        W23882   8.856  10.819   5.187  0.4578 -0.3246  0.0249
23019W        W23883  11.850   8.578  24.241  0.0583 -0.1660  0.0722
23020W        W23884  14.596  23.818   2.681 -0.0883  0.0262  0.2165
23021W        W23885  18.529   7.530  15.625 -0.4347 -0.0403 -0.0565
23022W        W23886  10.702  16.343  25.516 -0.0285 -0.0052  0.1715
23023W        W23887  13.749  22.268   7.678 -0.1182  0.0695  0.0551
23024W        W23888  14.595  13.051  13.831  0.1019  0.2064 -0.0010
23025W        W23889   8.726   2.096  13.661  0.1057  0.0865  0.0218
23026W        W23890  20.757  26.814  12.199  0.3699  0.2533  0.1370
23027W        W23891  10.727  17.265   7.313  0.3887  0.0637 -0.0293
23028W        W23892  18.840   1.144  15.545  0.1865 -0.0315  0.0064
23029W        W23893  23.777   1.847  19.666  0.2674  0.0001 -0.1593
23030W        W23894  25.621  21.687  28.179 -0.0504  0.0788 -0.1733
23031W        W23895  16.404   0.462  24.764 -0.1470 -0.2359 -0.0193
23032W        W23896  16.981  15.328  16.900  0.1639 -0.1773 -0.0770
23033W        W23897   6.302   1.150  28.985  0.1012  0.0088 -0.0750
23034W        W23898   4.777  25.786   1.178  0.0524  0.2178 -0.0079
23035W        W23899   4.915  12.331  12.249 -0.1858 -0.1857 -0.0143
23036W        W23900  11.064  18.322   4.057 -0.2856  0.1675  0.1077
23037W        W23901   5.699  24.381   6.699 -0.1988 -0.0414  0.1707
23038W        W23902   8.894   8.604  18.825 -0.1992  0.2971 -0.4927
23039W        W23903  26.286  23.693  25.564 -0.1235  0.0303  0.0713
23040W        W23904   7.750  10.034  28.498 -0.1340 -0.0162 -0.3325
23041W        W23905  15.672   6.206  11.612  0.0101 -0.0316  0.0268
23042W        W23906  11.707   6.370  10.748 -0.1185 -0.0302  0.1886
23043W        W23907  21.654  24.772   3.402  0.2277  0.0491  0.2498
23044W        W23908   6.653   0.157   9.509 -0.1873  0.2024 -0.1486
23045W        W23909  21.895  19.473  11.734 -0.1885 -0.2754  0.1129
23046W        W23910  26.396  18.176  17.332  0.2487  0.1527 -0.1457
23047W        W23911  10.295  25.311  21.251 -0.2346 -0.0836 -0.0245
23048W        W23912   6.925  26.419  23.505 -0.2992  0.2442 -0.0872
23049W        W23913  11.474  14.014   2.678  0.0662  0.1229  0.1527
23050W        W23914  24.936  14.993   9.397 -0.2104 -0.1418  0.0041
23051W        W23915  19.717  28.619   1.795  0.3447  0.0252 -0.1470
23052W        W23916   8.098   6.531  20.990 -0.3773 -0.1807 -0.1618
23053W        W23917   3.917  17.361  26.876  0.0470 -0.2438 -0.1884
23054W        W23918   7.626  27.078  28.898 -0.1416  0.2341  0.1204
23055W        W23919  16.057  15.857   0.222  0.1970 -0.2243 -0.4140
23056W        W23920  14.094   8.132   9.643  0.0679  0.1921 -0.1468
23057W        W23921   0.758  23.714  12.994 -0.0488  0.1168 -0.0078
23058W        W23922  28.946  18.744  18.490  0.3180  0.1661 -0.1813
23059W        W23923   9.275  15.960  17.640 -0.1052 -0.1459 -0.0156
23060W        W23924   0.279   0.557   9.956 -0.0780  0.1964 -0.1952
23061W        W23925  19.613   2.520   1.408  0.1188  0.2452 -0.1323
23062W        W23926  18.625   3.539  19.169  0.0105 -0.0318  0.0218
23063W        W23927   5.034  10.464  24.998  0.1563  0.3543  0.1468
23064W        W23928   1.795   7.331  17.712  0.5952 -0.0533  0.0309
23065W        W23929   1.795  24.099   8.235  0.4567 -0.5289 -0.4192
23066W        W23930  17.363   9.922   4.795 -0.3277  0.1315  0.0878
23067W        W23931  19.673   0.693  14.076  0.0351  0.0508  0.0958
23068W        W23932  24.038   6.122  14.752  0.1374  0.2219 -0.2377
23069W        W23933   7.532  11.129  16.245  0.2507 -0.2440 -0.1226
23070W        W23934   4.143  20.905  13.083  0.1172 -0.1728 -0.0116
23071W        W23935   4.885  24.774   2.352  0.1612  0.0791  0.3151
23072W        W23936  28.945  23.075   9.066  0.0543 -0.0038  0.1114
23073W        W23937  18.303  17.920   2.791 -0.0328  0.0610 -0.0704
23074W        W23938  15.929  13.241  16.110 -0.0611 -0.0804 -0.0041
23075W        W23939  11.726   2.619   4.792  0.1321 -0.1149 -0.2443
23076W        W23940  17.248   2.727  24.614 -0.2112  0.2341  0.0158
23077W        W23941  17.295   8.909   4.986  0.0157 -0.0325  0.1258
23078W        W23942  20.398  20.045  13.564  0.2404  0.1011 -0.1364
23079W        W23943  21.460  18.134  22.668  0.3597 -0.1798 -0.2609
23080W        W23944   4.699   2.758   9.756 -0.0845  0.1446  0.1071
23081W        W23945  19.013  19.987   1.016 -0.2290 -0.0264  0.0127
23082W        W23946  23.562   8.864  13.696  0.1114 -0.0448  0.1327
23083W        W23947  15.172  12.681  23.062  0.0108  0.4334 -0.1130
23084W        W23948  25.011   4.330   4.498 -0.0335 -0.0297  0.0655
23085W        W23949   8.273   8.454  10.626  0.0470  0.2058  0.2074
23086W        W23950   6.000  21.501   1.389 -0.1940 -0.0152 -0.0101
23087W        W23951  14.500  15.803  16.573 -0.1272  0.3740  0.3069
23088W        W23952  28.045  26.127  10.956 -0.1428  0.0913  0.0391
23089W        W23953   7.505  23.594   4.287  0.0960 -0.1991 -0.1106
23090W        W23954  16.913   9.553  21.613  0.0625  0.3870  0.1918
23091W        W23955   4.360  24.207  26.839 -0.1063 -0.0708  0.2774
23092W        W23956   2.462  23.894  14.144  0.1638  0.0250 -0.0301
23093W        W23957  17.508   0.838  28.145  0.0959 -0.3230  0.0901
23094W        W23958  18.655  20.654   7.182 -0.1067 -0.0555 -0.0660
23095W        W23959   5.802  26.306  11.534  0.0432 -0.1274 -0.0613
23096W        W23960   4.573   9.075  27.507  0.0417  0.0660 -0.3000
23097W        W23961  23.795  26.990  22.916  0.2515 -0.3062 -0.1238
23098W        W23962  26.421  12.443  18.145 -0.0151 -0.2631  0.1368
23099W        W23963   7.533  25.947   8.705  0.1951 -0.2030 -0.1684
23100W        W23964   4.476   5.944  28.738 -0.2321  0.0473 -0.1504
23101W        W23965  26.860   0.822   7.678  0.0085  0.0713 -0.2485
23102W        W23966  26.909  18.709  28.539  0.1016 -0.3151 -0.2670
23103W        W23967  18.550  16.535  20.806 -0.0111 -0.0596 -0.0187
23104W        W23968  12.535  25.660   1.035 -0.2426 -0.0426 -0.0517
23105W        W23969  14.478  12.328   5.642 -0.0706 -0.2792 -0.2335
23106W        W23970  19.269   2.035   8.492 -0.0619 -0.1350  0.0863
23107W        W23971  14.016  10.693   8.182 -0.0069  0.1561 -0.1405
23108W        W23972  15.020  18.578  10.488  0.1019  0.0499  0.0718
23109W        W23973   8.753   9.386   5.169 -0.1126 -0.2854  0.0218
23110W        W23974   6.518  24.542   8.928  0.0650  0.1080  0.1502
23111W        W23975  25.031  27.586  25.634 -0.0303 -0.1028 -0.1811
23112W        W23976  27.807   0.270   6.764  0.2618 -0.2387  0.3518
23113W        W23977  15.706  23.442  17.343  0.1708  0.3169  0.1338
23114W        W23978  16.494  20.340   5.521 -0.1530 -0.2026 -0.1637
23115W        W23979  25.185  12.918  26.803  0.1416  0.1731  0.1540
23116W        W23980  20.347  10.046  10.624  0.2509  0.0737 -0.0206
23117W        W23981   0.167   5.797  11.279 -0.0575  0.1760  0.1453
23118W        W23982  13.068   3.439  15.830 -0.0408  0.0904  0.1225
23119W        W23983  13.976  12.777   5.777 -0.2190  0.0225  0.1817
23120W        W23984  18.455   6.642  25.587 -0.0243  0.2617  0.3448
23121W        W23985  15.389  28.961  21.393  0.0811  0.1148  0.0073
23122W        W23986   5.339  15.005  12.083 -0.0766 -0.0980 -0.0507
23123W        W23987   2.489  26.612   4.354  0.0025  0.1282 -0.3084
23124W        W23988  28.080  28.179  11.901 -0.1247 -0.1280  0.0301
23125W        W23989   5.832  24.215  18.529 -0.0735  0.2173  0.0758
23126W        W23990  11.569  18.572  18.044 -0.0888 -0.0655  0.4374
23127W        W23991  17.279  19.038   4.608  0.1297 -0.1745 -0.1010
23128W        W23992   4.448  25.400   4.929 -0.0390 -0.0502  0.1974
23129W        W23993   7.563  23.966   3.850  0.1859  0.2174  0.0570
23130W        W23994   7.079  12.599   3.020 -0.0325  0.3820  0.0959
23131W        W23995  10.345   5.216  10.450 -0.3457 -0.2534 -0.0052
23132W        W23996  28.961  25.524   1.001 -0.0474 -0.0460 -0.3716
23133W        W23997   5.447   3.661  23.367 -0.0936  0.1580  0.2809
23134W        W23998  19.881  23.818  18.587 -0.0643 -0.0618  0.1718
23135W        W23999  12.858  11.980  12.040 -0.0912 -0.1240 -0.0959
23136W        W24000  28.409  16.868  16.209 -0.2737  0.2268  0.3184
23137W        W24001  19.447  26.313   0.824  0.1728  0.0121  0.1795
23138W        W24002  12.460  17.669   6.545 -0.1310 -0.3831  0.2477
23139W        W24003  28.610   4.862  26.356 -0.1803 -0.1971 -0.1036
23140W        W24004  22.264  24.942  20.111  0.0908 -0.3252  0.0505
23141W        W24005  25.112  15.619   6.959  0.3505  0.0993 -0.1063
23142W        W24006   8.292  14.710  10.197  0.1871 -0.3043  0.0099
23143W        W24007  15.149  27.670  14.996 -0.0400  0.0501 -0.2011
23144W        W24008  10.153  20.106  14.487 -0.1884 -0.1350 -0.0252
23145W        W24009  25.760  11.485  21.534 -0.2977 -0.0944  0.3321
23146W        W24010   7.528  16.772   1.842 -0.0611  0.5261 -0.1543
23147W        W24011  13.870   3.220  13.255  0.0530  0.1164  0.0705
23148W        W24012  21.757  23.167   7.167 -0.1151 -0.0205 -0.4178
23149W        W24013   2.248  23.714   6.858 -0.1611  0.0376  0.2175
23150W        W24014  19.254  23.847  13.046 -0.0385 -0.1711 -0.2316
23151W        W24015  11.934   7.746  12.437 -0.0528  0.0085 -0.1825
23152W        W24016   4.327   5.976  11.956 -0.3247  0.1207 -0.1229
23153W        W24017  24.641  13.165   5.548  0.1777 -0.1694  0.2470
23154W        W24018  11.850  25.817  19.854 -0.0233 -0.0959 -0.1535
23155W        W24019  17.124  18.401  16.602  0.2259 -0.0031  0.1029
23156W        W24020  12.801  11.939   4.691 -0.1832  0.4513  0.1595
23157W        W24021   6.690   8.681   2.557 -0.1948  0.0918  0.2367
23158W        W24022  23.567  23.319  11.909 -0.0659 -0.2049 -0.2099
23159W        W24023  19.716  17.920   7.984  0.0101  0.2130  0.1615
23160W        W24024  14.434  19.806  18.962 -0.1584 -0.1891  0.1485
23161W        W24025  21.052  25.968  19.317  0.0060  0.1844 -0.0890
23162W        W24026  12.126  25.345  10.931  0.0142 -0.0300  0.0944
23163W        W24027  21.812  14.810  20.075  0.2742 -0.0947 -0.1989
23164W        W24028  19.302   9.045  10.696  0.1904  0.1682  0.0596
23165W        W24029  14.049  20.931   1.094 -0.1465  0.4821  0.1627
23166W        W24030  13.275   0.937   9.891  0.2142 -0.2604 -0.3714
23167W        W24031  13.320  25.746  14.667  0.2435 -0.0259 -0.0740
23168W        W24032  15.396  21.796   4.526 -0.1261  0.1205  0.0096
23169W        W24033  19.923  13.079  10.267  0.1805  0.1686  0.1844
23170W        W24034  11.131  18.224  15.667 -0.1806 -0.0023 -0.1601
23171W        W24035  24.801  27.845  16.603 -0.1254  0.0893  0.0087
23172W        W24036  16.927  23.529  27.380  0.2247 -0.1977 -0.1519
23173W        W24037  13.309  21.644  23.710 -0.0143 -0.0802 -0.0092
23174W        W24038  12.618  14.827  25.998 -0.0850  0.0405 -0.2353
23175W        W24039  16.252  26.641  12.936 -0.0468 -0.1144  0.0244
23176W        W24040  16.566   3.219  16.088 -0.3358 -0.4155  0.3911
23177W        W24041  19.614   9.518  22.475 -0.0671 -0.2469  0.1323
23178W        W24042  17.970  17.496   5.241  0.2335 -0.3954  0.0237
23179W        W24043   4.209  24.615  10.098  0.1226 -0.2171  0.2837
23180W        W24044  20.015  19.433  11.840  0.0709  0.0997 -0.3570
23181W        W24045  21.126   3.574  23.860 -0.1484  0.0256 -0.3922
23182W        W24046  21.505  22.552  15.149 -0.1521 -0.1704 -0.0888
23183W        W24047  17.197  14.670  19.971  0.2175 -0.0507 -0.2501
23184W        W24048  27.964  24.693  15.189  0.0744 -0.2192  0.0819
23185W        W24049  19.378   6.143  21.087  0.5001  0.4009  0.0230
23186W        W24050   6.211   3.940  22.770 -0.2535 -0.1139  0.3087
23187W        W24051   5.596  23.951  16.410 -0.0626 -0.1476 -0.0825
23188W        W24052  24.975  23.087  25.141  0.3197  0.2791 -0.0635
23189W        W24053  14.902   1.282   6.251 -0.0405  0.1101 -0.1233
23190W        W24054  28.129   1.093  24.661 -0.1853  0.0420  0.0281
23191W        W24055   9.452   7.498   8.016 -0.3190  0.0702  0.1541
23192W        W24056  10.797  25.959  28.261  0.0824  0.1018 -0.2240
23193W        W24057  20.955  22.758  21.526 -0.2315  0.0739  0.1352
23194W        W24058  20.874  14.521   7.351  0.0602  0.2665  0.2594
23195W        W24059  24.976  16.887  11.073 -0.2209 -0.0100  0.1482
23196W        W24060  24.310  19.348   4.727  0.1432  0.0745 -0.1789
23197W        W24061   9.307   7.431  14.072  0.0310 -0.2342 -0.0036
23198W        W24062  10.067   0.445  24.528  0.0103  0.0001 -0.4105
23199W        W24063  10.990   0.371   7.074 -0.2640 -0.2251 -0.0333
23200W        W24064   4.078  26.363   3.299  0.0101 -0.1106  0.2460
23201W        W24065  20.451  23.844  28.887  0.0547  0.1752 -0.1068
23202W        W24066   9.253  21.027   1.468  0.1195 -0.2573 -0.2085
23203W        W24067   6.853   8.336  13.637  0.0941 -0.3383 -0.0831
23204W        W24068  18.263  19.170  13.221 -0.1795 -0.2072  0.2335
23205W        W24069   8.340  23.103   8.861  0.1797 -0.0802 -0.5641
23206W        W24070  25.778  20.255  14.515  0.1520  0.2708  0.1810
23207W        W24071   8.041  20.686  23.371 -0.0192  0.0721  0.0446
23208W        W24072  20.115   9.820  25.491 -0.0234  0.4216  0.0502
23209W        W24073  28.227   2.393   4.784  0.2237  0.2628  0.5109
23210W        W24074  24.392  14.721   3.655 -0.0065  0.2546  0.2173
23211W        W24075   2.838   1.109   3.775 -0.1944 -0.1442 -0.1207
23212W        W24076  15.816   1.255  25.982  0.1366 -0.0902 -0.0990
23213W        W24077   0.075   7.364  15.397 -0.0350  0.1416 -0.0240
23214W        W24078  10.392  25.812  22.140 -0.0364 -0.2646 -0.1853
23215W        W24079   7.288  15.629  21.500 -0.0058  0.1195 -0.1285
23216W        W24080  21.513   2.119   0.951 -0.1723  0.2782  0.1608
23217W        W24081  22.486  23.202   6.135  0.0399 -0.0072  0.1378
23218W        W24082   7.781   7.010  15.825 -0.0942  0.2065 -0.0101
23219W        W24083  14.694  22.548   9.526  0.5011  0.0136 -0.2063
23220W        W24084   4.940  11.972  25.886  0.2538  0.0185  0.3199
23221W        W24085  29.122  16.865  23.277 -0.4674  0.1150 -0.0368
23222W        W24086   9.567   9.872  13.546  0.0303 -0.0373 -0.0322
23223W        W24087  11.059  13.458  24.688  0.1489  0.1717  0.1341
23224W        W24088  15.265  16.389  13.322 -0.2824  0.0247 -0.4512
23225W        W24089  27.495   9.694  21.170  0.2366  0.2067 -0.1037
23226W        W24090   8.786   3.139  27.748 -0.1111  0.0298 -0.0084
23227W        W24091  13.482  18.287  24.764  0.2092  0.0365 -0.0266
23228W        W24092  21.380  16.785  20.981 -0.1003 -0.1100  0.2906
23229W        W24093  15.064  25.496  17.984 -0.1759  0.3025  0.0895
23230W        W24094   1.834   2.799   4.896  0.2528 -0.0181  0.0886
23231W        W24095  11.917  17.565  18.399 -0.1281 -0.1711 -0.1188
23232W        W24096  14.157   7.017  23.911  0.2066 -0.0066 -0.0881
23233W        W24097  28.913   8.878  26.137 -0.1333 -0.0743  0.2413
23234W        W24098  16.550   5.250   3.621 -0.2778 -0.0096 -0.0149
23235W        W24099  18.110   1.508  28.115  0.1284  0.0430 -0.2584
23236W        W24100  11.235   6.624   5.960  0.1774  0.2686  0.1392
23237W        W24101   1.687  17.367   8.054  0.1150  0.2639 -0.1057
23238W        W24102  18.037   9.024   7.548  0.2567  0.2563 -0.0885
23239W        W24103  16.367  21.068  18.291 -0.0839  0.0327 -0.1670
23240W        W24104  13.631   6.696  20.716  0.1602  0.0699 -0.1276
23241W        W24105   3.113  13.015  17.218 -0.1005 -0.0964  0.0105
23242W        W24106  26.455  15.696   0.674 -0.2903  0.0596  0.0318
23243W        W24107  20.098   1.747  21.006  0.1603  0.2073 -0.0888
23244W        W24108   8.241   1.930   8.340  0.2369  0.1670  0.2224
23245W        W24109  12.414  18.817  20.077  0.0119  0.3119 -0.2234
23246W        W24110  14.025  12.796  13.488  0.0306  0.0004 -0.1367
23247W        W24111  11.512  22.954   6.945  0.2056 -0.1177 -0.1459
23248W        W24112  21.559  27.025  13.672 -0.2613 -0.2757 -0.2982
23249W        W24113  12.735  27.395   5.671  0.0884 -0.0626  0.0669
23250W        W24114   8.875  20.982   0.994 -0.3066 -0.1889  0.2084
23251W        W24115  17.573  18.754   6.780  0.2141 -0.6084  0.1151
23252W        W24116  15.121  16.557   5.452 -0.0060 -0.2314  0.2808
23253W        W24117  18.550  21.945  27.002 -0.0973 -0.1316 -0.2386
23254W        W24118  24.066   1.828  11.212 -0.0007 -0.4449 -0.0279
23255W        W24119   0.575  23.761  26.300 -0.0465  0.0787  0.5797
23256W        W24120  10.631  18.672   0.886 -0.0964 -0.0461 -0.0029
23257W        W24121   6.051  10.605  19.952  0.0325 -0.1859 -0.1557
23258W        W24122   3.557   6.507  17.642  0.0023 -0.3931  0.0046
23259W        W24123  12.400  13.180  13.374 -0.0711 -0.3205 -0.0911
23260W        W24124   6.295   3.861  14.402 -0.1331 -0.1993 -0.4107
23261W        W24125  11.043  12.344  27.332  0.3427  0.1970 -0.2093
23262W        W24126  10.417   6.470  23.131 -0.2533 -0.1530 -0.2866
23263W        W24127   4.619  22.192  17.748  0.0657  0.2055 -0.0662
23264W        W24128   8.047  16.543   7.857 -0.0340 -0.3378  0.1771
23265W        W24129   3.121   6.165   6.460 -0.2341  0.1539  0.1746
23266W        W24130  19.938  27.270  17.841 -0.1701  0.0458 -0.0712
23267W        W24131   4.131  16.623   9.149 -0.3357 -0.0823  0.1373
23268W        W24132   9.944  10.628  18.904  0.1579  0.0895  0.0633
23269W        W24133  27.958  22.795  28.013 -0.3218 -0.0136  0.1764
23270W        W24134  11.766  24.343   8.348 -0.1219 -0.3841  0.1545
23271W        W24135  20.106   0.687   4.331 -0.1023 -0.3221 -0.0152
23272W        W24136  15.839  19.854   3.494  0.1060  0.2553  0.0948
23273W        W24137  22.148  23.938   2.308 -0.1201  0.1218  0.2792
23274W        W24138  18.494  21.683   7.113 -0.0639  0.0232  0.3547
23275W        W24139   7.079  24.660  18.928  0.0603 -0.2323  0.0956
23276W        W24140  27.631   6.815  19.134 -0.1645  0.1477  0.1149
23277W        W24141  25.143   5.192  16.028 -0.0181  0.2364 -0.2192
23278W        W24142   1.583  20.541  19.892 -0.1154  0.0524  0.0131
23279W        W24143  26.925  26.446   4.062  0.0047 -0.4648 -0.1666
23280W        W24144  17.291  16.265  18.868 -0.0570  0.0160  0.2933
23281W        W24145  13.038   9.286   5.041  0.1232  0.1208 -0.1462
23282W        W24146  24.524   9.154  27.321 -0.2975 -0.1723  0.1974
23283W        W24147   6.350   2.176  17.174  0.2174 -0.2928  0.2125
23284W        W24148  17.872  19.829   3.579  0.0593  0.0506 -0.3425
23285W        W24149   3.312  26.320  10.223 -0.0037 -0.0965  0.0061
23286W        W24150  16.478   8.469  11.425 -0.1009 -0.0455 -0.1823
23287W        W24151  28.922   9.213  28.472 -0.2104  0.1152  0.0020
23288W        W24152  21.012  12.465  29.055 -0.0147  0.3423  0.0982
23289W        W24153   4.917  14.326   0.049  0.0123 -0.0382  0.0736
23290W        W24154  17.335   5.040  18.195  0.0243 -0.0958 -0.1066
23291W        W24155   6.322  17.285  22.220 -0.0922  0.2556  0.2434
23292W        W24156   8.286  25.706   0.372 -0.3605 -0.4606 -0.1709
23293W        W24157  23.222  21.628  15.257 -0.0093 -0.1741 -0.2840
23294W        W24158  11.094  25.312  17.038 -0.0784 -0.1206 -0.1160
23295W        W24159   3.437   4.702  21.180 -0.0079 -0.1521 -0.1659
23296W        W24160  14.389  21.835  19.431  0.0303  0.1146  0.3084
23297W        W24161  21.553   5.250  26.164  0.0730 -0.0846 -0.0357
23298W        W24162  19.657  17.019  11.981 -0.1795  0.3893 -0.1894
23299W        W24163   6.688  21.981  18.654  0.2170 -0.1596 -0.1610
23300W        W24164  22.983  21.646  17.203  0.4492 -0.2741 -0.0483
23301W        W24165  21.288  25.039  16.845  0.0660 -0.3074 -0.0620
23302W        W24166   8.196  11.539  20.277  0.0392 -0.1881  0.0224
23303W        W24167  22.908  20.381  18.404 -0.2591  0.0312  0.2904
23304W        W24168  16.377   2.799  14.912 -0.2525  0.2196  0.0645
23305W        W24169  16.192   4.508  26.477 -0.3847  0.0826  0.2107
23306W        W24170  13.489  24.107   0.849  0.1201  0.1470  0.1370
23307W        W24171  15.149   9.906   1.988  0.2218 -0.1876 -0.1498
23308W        W24172  26.251  25.172  11.347 -0.2716  0.0015  0.0544
23309W        W24173   9.587   6.280  10.332  0.1467 -0.0525  0.1859
23310W        W24174   6.197  24.675  12.822  0.0752 -0.2820  0.0918
23311W        W24175   5.922   9.154  22.373 -0.1299 -0.0606  0.1515
23312W        W24176  20.307  28.364  10.459  0.1950  0.0107 -0.2396
23313W        W24177  16.378  20.247  10.363 -0.0595 -0.0394 -0.1948
23314W        W24178  20.416  16.141  15.321  0.2003 -0.1980  0.1546
23315W        W24179   7.950   5.577  24.285 -0.1524 -0.0171 -0.1417
23316W        W24180  19.386  24.119  23.609  0.0415 -0.0990 -0.0924
23317W        W24181  28.524  14.582  18.155 -0.0445  0.0148 -0.0202
23318W        W24182   9.127  10.306  26.443  0.3000 -0.1358  0.0862
23319W        W24183   9.376  10.808  13.673  0.0652  0.0692  0.0428
23320W        W24184  16.528  20.194  11.288 -0.4388 -0.0504 -0.1676
23321W        W24185   6.978   6.873  16.531  0.1452 -0.2798 -0.0992
23322W        W24186   8.264  14.260   4.268 -0.1515  0.0433  0.1373
23323W        W24187  16.092   4.220   4.838  0.3903 -0.2342  0.0884
23324W        W24188  18.137  27.326  28.691  0.1322 -0.0087 -0.1463
23325W        W24189  14.280   2.097  18.124  0.2735 -0.1061 -0.0640
23326W        W24190  16.732   1.307  27.931  0.1311 -0.1907 -0.0980
23327W        W24191  11.819  19.024  19.172  0.1609 -0.2130  0.3133
23328W        W24192   1.571  14.532  25.889 -0.3881  0.3602  0.1076
23329W        W24193  13.404   2.428   3.373  0.0429  0.0485  0.0129
23330W        W24194   2.222  24.657   4.684  0.0581 -0.4017 -0.1309
23331W        W24195   3.373   2.585  11.867 -0.0940  0.0307 -0.0814
23332W        W24196  10.637  21.578   4.910  0.2388  0.2306  0.2071
23333W        W24197  23.386  28.851  22.813 -0.1666 -0.0121  0.1999
23334W        W24198  25.149  28.913  19.955  0.0946  0.1212  0.0242
23335W        W24199   1.476  26.210  16.209  0.1206  0.0038  0.0037
23336W        W24200  13.660  21.853  15.663 -0.0236  0.0228 -0.0774
23337W        W24201  20.806  21.695  11.885  0.1681 -0.0141  0.0983
23338W        W24202  20.682   2.814  25.901 -0.0111  0.1699 -0.1316
23339W        W24203  25.257  18.159  19.065  0.3509 -0.0228 -0.2424
23340W        W24204  26.209   8.676  22.073 -0.0036 -0.0878  0.0083
23341W        W24205   7.034  26.571   0.771 -0.2502  0.0631  0.0265
23342W        W24206  10.633   0.469  19.292 -0.0143 -0.0773 -0.0642
23343W        W24207  12.927   3.519  12.428  0.0987  0.2095  0.2312
23344W        W24208   9.704  17.132  27.862  0.1879 -0.1795  0.0541
23345W        W24209  19.255  26.719  14.655  0.0091  0.3194 -0.0062
23346W        W24210  11.623   7.848  21.943 -0.1274 -0.0917 -0.0295
23347W        W24211  22.047  17.011  13.162  0.1979 -0.0592 -0.0742
23348W        W24212  24.961  17.107  23.547 -0.1369 -0.0435  0.0224
23349W        W24213  28.521  18.380  19.238 -0.0976 -0.1199 -0.6473
23350W        W24214  27.614  12.190  20.953  0.0619  0.0852  0.2773
23351W        W24215  18.674  18.597  26.821 -0.1112 -0.1027 -0.0219
23352W        W24216   7.454  25.848  15.259  0.3854  0.0127 -0.0411
23353W        W24217   0.242  23.112   2.503  0.0741  0.2785 -0.0222
23354W        W24218   1.046   8.462  13.244 -0.2256  0.0840 -0.1039
23355W        W24219   6.854  12.554  22.313  0.0992 -0.0821  0.0837
23356W        W24220  22.543  26.280  23.083  0.2153  0.3751  0.1665
23357W        W24221   3.236  18.159   9.476 -0.0245 -0.0175 -0.0703
23358W        W24222   6.976   6.990   7.600 -0.0661 -0.1917 -0.0846
23359W        W24223   0.110  25.507  15.759  0.1410 -0.1883 -0.1152
23360W        W24224   4.139   2.319  23.194  0.0614  0.1105  0.1634
23361W        W24225   2.187  28.731  12.658 -0.1146  0.0215 -0.0336
23362W        W24226  22.978   0.668  12.455 -0.4291 -0.1317 -0.2285
23363W        W24227  18.362  21.890  17.965  0.3705  0.1359  0.1131
23364W        W24228  28.057  20.847  12.678 -0.0570 -0.1388  0.3569
23365W        W24229   4.209  27.437  11.731  0.2663 -0.4085 -0.1952
23366W        W24230  15.291   3.684  26.845  0.0424  0.0701 -0.0823
23367W        W24231  18.695   4.388  12.684  0.1037  0.0383  0.0534
23368W        W24232  15.867  16.871   7.700 -0.0151 -0.1034  0.1365
23369W        W24233  20.043  22.555   7.552  0.1018  0.3245 -0.2264
23370W        W24234  18.105  27.538  17.012  0.2330  0.3143 -0.0968
23371W        W24235   2.004  28.851  22.729 -0.0178 -0.0799  0.1654
23372W        W24236  27.125  23.802  28.843 -0.1052  0.0721  0.0886
23373W        W24237  22.170  16.195  10.597 -0.1049 -0.0425  0.0563
23374W        W24238   8.699   8.336  17.317  0.1568  0.1191  0.2173
23375W        W24239   3.277   5.281  19.468  0.5129 -0.3495 -0.1133
23376W        W24240   2.444  20.514  16.485  0.1689 -0.1831  0.1177
23377W        W24241  21.630  23.352  26.360 -0.0597 -0.1612  0.0041
23378W        W24242  17.011  19.938  11.482  0.5464  0.3211  0.1216
23379W        W24243  10.959   1.068  20.441 -0.1155  0.3226 -0.1929
23380W        W24244  16.100   9.043  27.944  0.5304  0.2268 -0.1373
23381W        W24245  16.940   7.476  19.960 -0.0341  0.0683 -0.0618
23382W        W24246  19.961   0.260  21.515  0.1848 -0.0095 -0.1296
23383W        W24247  25.095  24.569  19.908 -0.0122  0.0002 -0.4726
23384W        W24248  13.279  23.975   6.832 -0.3202  0.3428 -0.3242
23385W        W24249  27.723  27.287  10.612 -0.1254 -0.3111  0.1960
23386W        W24250  10.963   5.545   5.683 -0.0338  0.0204 -0.1378
23387W        W24251  21.173  20.203  25.112  0.0552  0.1241 -0.3226
23388W        W24252  15.474  10.781  10.886 -0.2793 -0.0225 -0.1025
23389W        W24253  26.389  20.454  23.833 -0.1354  0.0270 -0.0703
23390W        W24254  28.740   2.008  25.718 -0.3346 -0.0576 -0.0154
23391W        W24255  12.307  19.574  15.946 -0.0824 -0.3203 -0.1771
23392W        W24256   9.997  26.559  21.907  0.0175  0.3417 -0.0892
23393W        W24257  23.018   1.511  16.093  0.1218  0.1611 -0.0109
23394W        W24258  26.172  22.815  15.550  0.0584 -0.0011 -0.5149
23395W        W24259  26.107   5.788  28.435  0.3447  0.0203 -0.1368
23396W        W24260   8.250  21.896  14.815 -0.0159 -0.1340  0.1269
23397W        W24261  28.924  24.639   6.450 -0.2169  0.3942  0.1000
23398W        W24262  24.651  26.469  17.879 -0.0390 -0.0743 -0.0665
23399W        W24263  19.066  20.065  18.825 -0.1526  0.0487  0.1063
23400W        W24264  21.502  10.445  28.174  0.0217  0.0553 -0.4048
23401W        W24265   0.324  23.773  16.496  0.0365  0.2383  0.2917
23402W        W24266  17.513   5.028   8.987  0.0626 -0.1196  0.0158
23403W        W24267  24.423   2.872  23.355  0.1244 -0.0312 -0.0911
23404W        W24268  18.190  14.006  19.041  0.1599  0.0543  0.3154
23405W        W24269   6.405  22.901  25.183 -0.2372  0.3286 -0.0834
23406W        W24270  15.748   0.925  22.235 -0.0935  0.3990  0.0241
23407W        W24271  16.433  19.053   6.193  0.2686  0.0136  0.1883
23408W        W24272  17.783   2.516  20.171  0.1222 -0.3198  0.3140
23409W        W24273  14.498  26.842  10.379 -0.5216  0.1393  0.1674
23410W        W24274  12.639  20.319   5.618 -0.2732 -0.5011  0.2662
23411W        W24275  10.778   6.925  20.388 -0.0630  0.1952 -0.0050
23412W        W24276  28.078   7.145   6.397 -0.0517 -0.2084 -0.0776
23413W        W24277   2.431  21.445  19.413 -0.1549  0.1309 -0.0095
23414W        W24278   0.074  15.243  28.093  0.1422 -0.1146 -0.0795
23415W        W24279   8.028  23.527  23.574  0.1224  0.0685 -0.0394
23416W        W24280   3.136  23.290   3.320  0.1337  0.0604  0.0150
23417W        W24281   9.881   2.017  20.946 -0.0387  0.2895 -0.1844
23418W        W24282  20.829  22.667  18.143  0.2374 -0.0423  0.0469
23419W        W24283  18.390  18.442  22.359  0.1887  0.2415  0.0863
23420W        W24284  23.198  16.320  28.563  0.1989  0.1053  0.1386
23421W        W24285   2.381  18.648   7.700 -0.1262 -0.0626 -0.4785
23422W        W24286   8.004  27.133   2.244 -0.1237  0.1231  0.1590
23423W        W24287   4.698  11.521  28.920  0.1801 -0.0615 -0.0763
23424W        W24288   5.030  14.540   8.325 -0.1706 -0.3913  0.2045
23425W        W24289  24.391  22.921  10.845 -0.1829 -0.0675 -0.0201
23426W        W24290  25.955   7.832  12.806 -0.1216 -0.0250  0.1588
23427W        W24291  29.142  21.600  15.502  0.4298  0.0597 -0.1865
23428W        W24292  19.014  24.505  12.188  0.3029  0.1564 -0.1623
23429W        W24293   7.850  28.501  22.573  0.0518 -0.0772 -0.0454
23430W        W24294  12.264  25.289   1.493  0.3453 -0.2596  0.3588
23431W        W24295   4.312  17.593  13.172  0.0025 -0.1741  0.1609
23432W        W24296  25.951  19.045   0.501  0.0363  0.3582  0.0206
23433W        W24297  18.354  21.287  21.194 -0.1857  0.1412  0.0996
23434W        W24298  24.815  20.219   7.126 -0.0925 -0.3796 -0.1412
23435W        W24299  24.543   3.727  11.225 -0.0362 -0.2639 -0.2641
23436W        W24300  24.341   5.688   3.380  0.1773  0.0523  0.0170
23437W        W24301  19.691  22.849  12.014  0.1913  0.1142 -0.1310
23438W        W24302   1.912  19.347  20.724  0.0359  0.3279 -0.2370
23439W        W24303  16.382   9.008  17.643  0.0293 -0.0084  0.1556
23440W        W24304  18.469   4.304  21.660 -0.3314 -0.0011 -0.0727
23441W        W24305  21.684  28.490  21.694 -0.2482 -0.0201 -0.1089
23442W        W24306  19.646   7.202   1.657  0.1209 -0.2245  0.2403
23443W        W24307  23.107   1.140  28.789 -0.0305 -0.0697  0.1078
23444W        W24308   0.962   8.396  20.114  0.0469  0.1260  0.1566
23445W        W24309   9.010   4.984  16.384 -0.3213 -0.0313  0.0571
23446W        W24310  10.519  20.775  23.015  0.1171  0.2708  0.0655
23447W        W24311  19.651  24.873  23.132 -0.0531  0.2611  0.1763
23448W        W24312   5.349  24.188  15.652 -0.0532 -0.1110 -0.0037
23449W        W24313   6.008  24.895  26.606 -0.1674 -0.4199 -0.1818
23450W        W24314  27.672   5.160  17.968  0.0436  0.2491  0.1028
23451W        W24315  20.878  28.183   0.245  0.3849  0.0564 -0.1349
23452W        W24316  27.058  14.895  17.953 -0.0804  0.6205  0.0658
23453W        W24317  14.519  26.193  10.979 -0.2032  0.0418 -0.1310
23454W        W24318  20.712  19.501  18.712  0.1158 -0.1248 -0.0286
23455W        W24319  19.974  24.443  15.321 -0.1915 -0.1393  0.1317
23456W        W24320  15.835   1.691  16.379 -0.1208  0.0430 -0.0693
23457W        W24321  28.852  24.872  14.308 -0.3582 -0.1143 -0.4696
23458W        W24322   5.865  29.111   7.272 -0.3309  0.0766 -0.3615
23459W        W24323   6.119  18.215  14.734 -0.2568 -0.0321 -0.2426
23460W        W24324  17.661   0.434  18.837 -0.0165 -0.0657  0.1367
23461W        W24325   2.623  24.055   9.198  0.0831 -0.2115  0.0181
23462W        W24326  15.693  11.769   9.383  0.3968  0.0973 -0.1913
23463W        W24327  14.684   3.537   8.094  0.4411 -0.1715 -0.0120
23464W        W24328  17.038   8.693  23.206  0.0144 -0.1799 -0.1541
23465W        W24329  19.967  28.894   5.071 -0.0305  0.0117  0.0953
23466W        W24330   6.610   8.088  18.257  0.0635 -0.1752  0.0665
23467W        W24331   1.264   7.027  15.054  0.0251 -0.0691 -0.2005
23468W        W24332  12.033   5.768  19.470 -0.0121  0.0749 -0.0626
23469W        W24333  19.133  22.786  13.670  0.0510 -0.0288  0.1480
23470W        W24334   9.517  13.805  20.334  0.0497 -0.1679 -0.3946
23471W        W24335  27.520  24.908  16.045 -0.0984 -0.1700  0.2913
23472W        W24336   4.229  28.997  20.054  0.0043 -0.2334  0.2243
23473W        W24337  28.837  23.454  28.727 -0.1003  0.0323 -0.0602
23474W        W24338  25.906  21.930   7.460 -0.0668  0.3264 -0.0388
23475W        W24339   6.155   7.343  13.008 -0.0009  0.2215  0.1218
23476W        W24340  20.053  15.542  27.710  0.1664  0.1548 -0.2477
23477W        W24341  21.043   6.191   9.249  0.0566 -0.1184 -0.1281
23478W        W24342  24.834  24.328  26.322 -0.0548 -0.4169 -0.1016
23479W        W24343   7.413  25.416  17.472  0.0230 -0.2379 -0.0128
23480W        W24344  13.096  26.800   9.486  0.0259 -0.2312 -0.0380
23481W        W24345  22.076  24.295   1.995  0.0904  0.1102  0.1749
23482W        W24346   4.017  19.160  15.943 -0.2248  0.1415 -0.1772
23483W        W24347   8.943  22.607   4.923  0.1530  0.1057 -0.3236
23484W        W24348   6.422   8.606  10.301 -0.3132 -0.0640  0.0065
23485W        W24349   7.073  21.946  10.241  0.0440 -0.1102  0.1503
23486W        W24350  19.614  17.820  28.847  0.1968  0.2183  0.0610
23487W        W24351   8.369  23.483  20.940  0.0796 -0.2006 -0.1447
23488W        W24352  20.594  15.005  13.656 -0.2416  0.0610 -0.2451
23489W        W24353  13.502  26.806  11.972  0.0937  0.0608 -0.1420
23490W        W24354  23.056   3.448  25.180  0.1248  0.1101 -0.3015
23491W        W24355   7.302   3.298  21.506 -0.0412 -0.1184 -0.0468
23492W        W24356  18.007  21.067   3.591  0.1508  0.1377  0.2480
23493W        W24357   3.463  26.387  17.070 -0.4312 -0.1764 -0.4227
23494W        W24358   2.085  12.712  11.020 -0.2042  0.1209 -0.1742
23495W        W24359  26.181  19.789  19.859  0.0414 -0.0397 -0.1541
23496W        W24360  21.058  26.687  12.618  0.1755 -0.0213 -0.1804
23497W        W24361  25.474  24.980  16.832  0.1029 -0.2292  0.1564
23498W        W24362  27.068  14.087  17.922  0.0229  0.1852 -0.2612
23499W        W24363  22.073  28.580  24.557  0.0251 -0.3938  0.1434
23500W        W24364  28.378  26.875  22.506  0.2027  0.0003  0.0411
23501W        W24365  11.495  17.428  14.210  0.0037 -0.0656 -0.0606
23502W        W24366   4.652  28.225   7.924  0.0075  0.1391  0.2043
23503W        W24367  28.422  15.306  22.108 -0.2409 -0.2431  0.1213
23504W        W24368   8.099   0.415   6.554  0.1713 -0.1063  0.1616
23505W        W24369  21.036  25.138   9.256 -0.0554  0.2349  0.2901
23506W        W24370  22.694   0.017   5.423 -0.1013  0.1113  0.0324
23507W        W24371  12.291  22.854   2.918 -0.2654  0.2241  0.1932
23508W        W24372   7.430   6.999  15.432  0.0768 -0.1678  0.0193
23509W        W24373  13.459  19.713  10.709 -0.0420 -0.3295  0.3176
23510W        W24374  14.319  14.431  18.952  0.0994 -0.0680 -0.0767
23511W        W24375   8.953   2.712  17.793 -0.0470 -0.1419 -0.2296
23512W        W24376  26.074  13.326  21.449  0.0496  0.0948 -0.1132
23513W        W24377  27.349  18.989   3.774  0.2344  0.1140  0.0515
23514W        W24378  16.789   5.753  23.572 -0.0508  0.2360  0.1608
23515W        W24379  26.405  11.707   8.425  0.4660  0.1275 -0.0974
23516W        W24380   4.626  21.011  27.032  0.1085  0.0603  0.0746
23517W        W24381  11.265  24.724  12.648  0.0386  0.1860  0.0300
23518W        W24382  13.147  20.066  20.384  0.0186 -0.1063 -0.0529
23519W        W24383  14.824  17.383  19.535 -0.2161 -0.0858  0.1974
23520W        W24384  15.274  24.885  19.402 -0.2923 -0.0464  0.0511
23521W        W24385  13.350  11.912   5.330 -0.0247 -0.2346 -0.0639
23522W        W24386  24.890  25.592   3.698 -0.1392 -0.1142 -0.0252
23523W        W24387  20.133   8.551   3.963 -0.5258  0.1084 -0.0217
23524W        W24388  23.511   8.023   2.666  0.0850  0.1092 -0.2912
23525W        W24389   1.054  10.368  16.994 -0.4380  0.0324  0.1916
23526W        W24390   2.504   5.687  11.691 -0.2268 -0.0992  0.3425
23527W        W24391   1.170   6.577   5.912 -0.3432  0.0636  0.0747
23528W        W24392  11.521  19.381  20.375  0.0421  0.1770 -0.0581
23529W        W24393  13.555  18.221  24.231 -0.0924  0.1443  0.1626
23530W        W24394  21.255  16.503   8.047 -0.1944 -0.0635 -0.0378
23531W        W24395   4.420   6.554   9.716 -0.2241 -0.3629 -0.1709
23532W        W24396  18.406  21.120  29.060 -0.0282  0.2150 -0.1654
23533W        W24397   8.486  13.741   4.049 -0.0176  0.0995  0.0563
23534W        W24398   1.119  14.617  11.599 -0.0197 -0.1420 -0.1873
23535W        W24399  27.074   0.843  10.240  0.0759  0.0183  0.1119
23536W        W24400   1.491  24.594  15.431  0.1316  0.4978  0.0902
23537W        W24401  16.395  28.107  11.769 -0.2218  0.0161 -0.0856
23538W        W24402   6.737  26.545  22.986 -0.2262  0.0976 -0.0978
23539W        W24403   7.325  20.101  21.229 -0.0548 -0.0632  0.0122
23540W        W24404  21.123  14.298   6.699 -0.1358  0.0144 -0.2370
23541W        W24405  22.096  10.738  18.406  0.1202 -0.0430  0.0708
23542W        W24406  17.373   7.240  22.143 -0.1114  0.0257 -0.0115
23543W        W24407   2.611  25.758   9.799  0.0088 -0.0425 -0.1795
23544W        W24408  16.876   1.574  25.557  0.3247  0.4555  0.4560
23545W        W24409  12.263  21.800  10.682 -0.2555  0.2021  0.2686
23546W        W24410  12.235  20.961  18.033  0.3040  0.0527  0.1625
23547W        W24411  18.301  21.711  20.088 -0.2078 -0.0872 -0.1262
23548W        W24412   4.280  20.545  28.437  0.0684  0.3141 -0.0408
23549W        W24413  10.652  26.033   5.736  0.0470 -0.0679  0.0934
23550W        W24414  26.775  16.384  24.886  0.0334  0.1226  0.1271
23551W        W24415  17.432  19.327   0.153  0.0588 -0.0337 -0.0510
23552W        W24416  16.295  19.379  23.260 -0.2252 -0.0498  0.2693
23553W        W24417  17.466  19.731  18.424  0.0553  0.3799  0.1226
23554W        W24418  10.180  18.159   0.517 -0.1858 -0.1408  0.0791
23555W        W24419  18.733  25.299  14.968 -0.2243 -0.3638  0.2906
23556W        W24420   1.119  24.429  21.339  0.2330 -0.4238 -0.3038
23557W        W24421   6.936   9.331  18.750  0.2374  0.1284 -0.0204
23558W        W24422  22.218  12.771   4.394 -0.0926  0.0915 -0.0764
23559W        W24423  22.865   0.356  24.036 -0.2028 -0.3561  0.1913
23560W        W24424  20.431  19.435   3.250 -0.1269 -0.0445  0.0592
23561W        W24425  29.022  12.883  12.686  0.1949  0.1925  0.0648
23562W        W24426   8.277  28.430  10.829 -0.0166  0.3801  0.2489
23563W        W24427  10.971  20.308  23.572  0.3443  0.0184 -0.0501
23564W        W24428  21.603  18.789  17.652 -0.1769 -0.1117 -0.1831
23565W        W24429   1.276  25.869  13.154  0.0687 -0.3966 -0.1936
23566W        W24430  15.078  16.436  16.060 -0.2886 -0.3165 -0.1753
23567W        W24431   5.424   3.743  28.251  0.0550 -0.1985  0.2038
23568W        W24432   5.604  15.456   4.740 -0.0381  0.0423  0.3204
23569W        W24433   4.074   8.137  15.820  0.2565 -0.0113  0.3578
23570W        W24434   1.864  12.747  19.947 -0.0776 -0.1125  0.0135
23571W        W24435   1.781  28.608   5.634  0.1417  0.0486 -0.1189
23572W        W24436  15.893  21.291   3.929 -0.0510  0.2052  0.2743
23573W        W24437   5.185  18.993  17.328 -0.1812  0.4931 -0.0568
23574W        W24438  24.727   1.792  11.168 -0.1141 -0.0558 -0.0377
23575W        W24439  25.129  26.260   7.127  0.0616 -0.3154 -0.3903
23576W        W24440  13.412   1.314   8.703 -0.1403  0.0370  0.1496
23577W        W24441  10.422   9.120   3.890 -0.2078 -0.4051 -0.4228
23578W        W24442  10.572   2.254   5.691 -0.0619 -0.0124 -0.3591
23579W        W24443   7.831  18.717  24.247 -0.3782  0.0350 -0.0430
23580W        W24444  14.713  13.115  23.691  0.0828 -0.1680  0.0207
23581W        W24445  17.089  12.881  27.998  0.1981  0.1096  0.2515
23582W        W24446  19.567  17.212   3.967 -0.2567  0.2262 -0.0531
23583W        W24447  11.703  26.546   1.592 -0.0495 -0.0352  0.0882
23584W        W24448   8.787  23.018  16.698  0.2890 -0.3470 -0.0235
23585W        W24449   8.676   4.617  15.074 -0.0591 -0.0583 -0.0195
23586W        W24450  12.204  22.073   5.024  0.1267 -0.0394 -0.1625
23587W        W24451  24.000  22.885   8.656  0.3530  0.1277 -0.2048
23588W        W24452  25.566   1.465   5.945  0.1289 -0.1934  0.0049
23589W        W24453  21.707  23.582  17.734  0.0506  0.0259 -0.0982
23590W        W24454  14.183   4.022  18.089  0.1034  0.0027  0.3557
23591W        W24455  20.582  28.048  23.442 -0.0418 -0.2981 -0.1529
23592W        W24456  21.319  21.761  26.188 -0.2720 -0.4971  0.4544
23593W        W24457   2.993   3.962   6.326  0.3630  0.2466  0.2136
23594W        W24458  11.044  20.647   7.006 -0.2335  0.2441 -0.2299
23595W        W24459   4.574  21.446  19.699  0.0781 -0.2861  0.2309
23596W        W24460   6.844  26.413   4.825  0.0079  0.0434  0.0512
23597W        W24461   1.834  10.082  13.729  0.3324 -0.1855  0.1086
23598W        W24462  22.745  22.062   9.701 -0.1998  0.1523 -0.0716
23599W        W24463   0.617   1.141   2.479 -0.1470  0.2189 -0.1184
23600W        W24464   2.826  16.439   1.045  0.2318 -0.4541  0.0340
23601W        W24465  18.152  25.068   3.621  0.0282 -0.2471 -0.0349
23602W        W24466   3.571   9.864  12.622 -0.0270  0.0580 -0.0157
23603W        W24467   8.661  20.911   0.013 -0.0028 -0.2790 -0.0105
23604W        W24468   7.037   0.037   9.136 -0.2411  0.1228 -0.1189
23605W        W24469   0.193   9.597  24.677  0.2468  0.0944 -0.1648
23606W        W24470   7.475  12.613   0.065  0.0895 -0.2536  0.0944
23607W        W24471   7.860  12.394  10.174 -0.0036 -0.0376  0.0417
23608W        W24472  10.128  14.567  10.638  0.1988  0.0276 -0.3432
23609W        W24473  19.594   2.211  19.896 -0.0817 -0.2585 -0.1081
23610W        W24474   5.497  17.606  21.341  0.0207  0.1069 -0.0221
23611W        W24475  25.847   0.938  16.925  0.0301 -0.2993  0.0218
23612W        W24476  14.999  16.909  15.050  0.0944 -0.1876  0.0015
23613W        W24477  27.874  21.437  19.378 -0.0224 -0.3328 -0.0175
23614W        W24478   3.204   7.420  20.908  0.2036 -0.1641  0.2015
23615W        W24479   6.497   5.654  12.624  0.1895 -0.0253  0.1981
23616W        W24480  17.121   7.197  23.959  0.3143  0.1820 -0.0007
23617W        W24481   6.103  22.702   8.272 -0.1311  0.0610 -0.1328
23618W        W24482  15.594   0.109  11.986  0.2192 -0.4327  0.0970
23619W        W24483  25.393  13.522  20.728 -0.3812 -0.1157 -0.0848
23620W        W24484  27.188  13.187   9.503  0.0257 -0.0338  0.0075
23621W        W24485  24.777  25.287  27.625  0.0441 -0.2517  0.1380
23622W        W24486  21.037  25.794  27.842  0.0549  0.1761 -0.0451
23623W        W24487  13.621  19.463   1.093 -0.1336  0.1373  0.1732
23624W        W24488  28.024  23.434  26.811  0.2642 -0.2087  0.0893
23625W        W24489  26.406  23.749  14.074  0.1286 -0.2297 -0.0576
23626W        W24490  17.893  20.057   7.349  0.1630  0.5860 -0.0099
23627W        W24491  20.115   2.454  10.142 -0.0364  0.0196  0.3147
23628W        W24492  17.518  10.036  13.271  0.0103 -0.2889 -0.0013
23629W        W24493   6.825  18.463   2.782 -0.0671  0.3961  0.3064
23630W        W24494  13.939  21.363   8.279  0.3438  0.3129 -0.0402
23631W        W24495  20.960   2.699   8.453 -0.0096 -0.1953 -0.1489
23632W        W24496  18.149  20.430  19.591 -0.1267  0.1895  0.2924
23633W        W24497  12.245  24.160  26.855  0.1369  0.2306 -0.0029
23634W        W24498  19.168  22.286  16.073  0.0461 -0.1459 -0.1557
23635W        W24499  19.373  21.622  21.439 -0.2459  0.3032  0.0136
23636W        W24500  22.898  18.960  18.270  0.1229 -0.1026 -0.3754
23637W        W24501  19.415  26.853  19.487  0.2648 -0.2547 -0.1736
23638W        W24502   6.785  17.112   1.255 -0.0343 -0.2095 -0.1382
23639W        W24503  19.585  20.794  17.283  0.0888  0.0944  0.2850
23640W        W24504  19.223  20.908   9.435 -0.1843  0.3480 -0.2525
23641W        W24505  19.193  27.829   7.448 -0.1406  0.1229  0.3497
23642W        W24506  15.296  11.919   7.908 -0.1139  0.2046  0.1736
23643W        W24507  15.526  12.873   2.276 -0.1535  0.3015  0.1339
23644W        W24508  27.780  11.089  11.998  0.0020  0.3225 -0.1778
23645W        W24509   0.537  24.199   1.641 -0.0037 -0.0716 -0.0164
23646W        W24510   3.449  12.172  22.551 -0.0617 -0.0697 -0.1018
23647W        W24511  22.183  16.699  18.550 -0.1289 -0.0860  0.0132
23648W        W24512   7.931  11.018  27.033  0.4010 -0.2733  0.0809
23649W        W24513  13.974   3.455  17.740 -0.0708 -0.4622 -0.2223
23650W        W24514  18.537  17.674  25.133 -0.0175  0.1866 -0.1818
23651W        W24515  18.634  27.039   0.112  0.0440 -0.2052 -0.0283
23652W        W24516   6.605  28.378  25.597  0.0599 -0.1467  0.1000
23653W        W24517   8.898  28.024   7.736  0.0772 -0.0398 -0.2284
23654W        W24518  26.747   0.564  25.782 -0.0620 -0.3205  0.0896
23655W        W24519  21.679  26.094  24.768  0.1586 -0.1282  0.1523
23656W        W24520  20.895  20.143  16.164  0.1351  0.0115  0.3000
23657W        W24521  22.119   2.979  13.722  0.1629  0.0100  0.0189
23658W        W24522  13.465  11.913  25.689  0.0194 -0.0745  0.0688
23659W        W24523  10.545   8.527  28.809 -0.5393 -0.0717 -0.0954
23660W        W24524  26.905  21.256   3.754 -0.0809 -0.0629  0.1854
23661W        W24525  11.943  21.161   2.394  0.1236  0.2974  0.1084
23662W        W24526   9.264   3.894  21.059 -0.1170 -0.2214 -0.0604
23663W        W24527  28.647  20.764  12.737  0.3255  0.1926  0.0628
23664W        W24528  15.603  19.758  17.478 -0.2254 -0.2019 -0.0013
23665W        W24529  19.482   5.214   4.467  0.2550 -0.1906 -0.0703
23666W        W24530  22.142  10.418   9.609 -0.0458  0.1451 -0.0224
23667W        W24531   7.313  20.576   9.051  0.1662 -0.0665 -0.1731
23668W        W24532  27.487  19.093  12.032 -0.0176 -0.0800  0.2105
23669W        W24533  27.089  22.026  13.681 -0.0253 -0.1784  0.1111
23670W        W24534   9.953  18.919  15.180  0.2675 -0.0105  0.0161
23671W        W24535  20.696   6.672  14.671 -0.0870 -0.0940 -0.1544
23672W        W24536  20.038  26.297  22.327 -0.2775  0.0493 -0.0571
23673W        W24537  25.757  26.670   1.111 -0.0124 -0.0954 -0.1159
23674W        W24538  14.162  27.402  14.276 -0.0404  0.1116 -0.2341
23675W        W24539  15.083   3.579  14.465 -0.1660 -0.0212  0.1786
23676W        W24540   7.031   9.781   4.676  0.1237 -0.4481 -0.2325
23677W        W24541  17.407  12.549  11.547  0.0375  0.0954 -0.2821
23678W        W24542   6.018  18.108  19.889  0.2894  0.1087 -0.3411
23679W        W24543  22.002   2.704  26.455 -0.1219 -0.1328 -0.2594
23680W        W24544  28.449  20.916  16.901 -0.0411  0.0460 -0.1866
23681W        W24545  20.366   0.269   6.826 -0.0002  0.0162  0.5082
23682W        W24546   8.291   8.622  21.815 -0.1487 -0.2409 -0.1380
23683W        W24547  20.786  28.311   3.494  0.0090  0.0287  0.1022
23684W        W24548  17.895  27.337  15.909  0.0914  0.0556 -0.2114
23685W        W24549  23.391  23.507   7.167  0.0240  0.1810 -0.1726
23686W        W24550   8.837  19.473  19.460 -0.0943 -0.2675 -0.1793
23687W        W24551   6.030   6.747   7.793 -0.1409 -0.0929  0.0462
23688W        W24552  17.188  23.336  16.221 -0.0435  0.1439  0.3139
23689W        W24553   6.546  20.561   3.847  0.1135 -0.2466 -0.1261
23690W        W24554   8.314   8.575  28.490 -0.2975  0.1570 -0.0897
23691W        W24555  17.393   2.937  19.072  0.0350 -0.0929 -0.0493
23692W        W24556  10.314  21.308  29.028  0.1084 -0.2984  0.1485
23693W        W24557  19.011   6.968  12.199  0.2089 -0.0130  0.1628
23694W        W24558   9.652  29.113  11.548  0.1266 -0.0651 -0.0170
23695W        W24559  17.048  21.223   2.993  0.0549 -0.1286 -0.0774
23696W        W24560   6.196  14.432   5.598  0.0300  0.0367 -0.3949
23697W        W24561  14.728  17.751  23.234 -0.1939 -0.3046  0.2028
23698W        W24562   6.514  12.656   3.718  0.5140 -0.1442  0.2181
23699W        W24563  28.392   4.327  17.120 -0.0099  0.3044  0.0018
23700W        W24564   8.991  15.437   1.956 -0.0143  0.1813  0.1362
23701W        W24565  16.815  15.959  16.855  0.0579  0.1349 -0.0617
23702W        W24566  11.876  10.760  27.059  0.0013  0.1833  0.0566
23703W        W24567  26.858  23.244  15.216 -0.0770 -0.1966  0.1804
23704W        W24568   9.532   1.523  25.308  0.3295  0.0974 -0.0529
23705W        W24569   1.911  16.348   9.005 -0.0492  0.2649 -0.2336
23706W        W24570  13.589   0.319  17.074 -0.0188  0.1481 -0.0224
23707W        W24571   4.804  10.458  28.963 -0.0502 -0.0207 -0.2992
23708W        W24572  27.654   1.543  12.884  0.2974 -0.1982  0.1490
23709W        W24573  26.682  23.706  26.463  0.1714  0.0884  0.0541
23710W        W24574   9.840  26.004  20.221 -0.1834 -0.1039 -0.0218
23711W        W24575  19.340  11.983   3.415 -0.0947 -0.0874 -0.0865
23712W        W24576  19.014  18.839  23.910  0.3498  0.0290 -0.0754
23713W        W24577  20.754   8.610   1.564 -0.0711 -0.1449  0.1003
23714W        W24578  19.405   7.506  14.815 -0.4363 -0.1627 -0.0746
23715W        W24579  20.863  10.516  22.964  0.0560  0.0522 -0.1034
23716W        W24580  27.516  16.500   2.543 -0.3663 -0.1682 -0.0910
23717W        W24581   9.992  25.928  19.243  0.2052 -0.4175 -0.0332
23718W        W24582   5.020   1.427  21.493  0.1279 -0.1316  0.0877
23719W        W24583  19.802  15.233  12.309 -0.4248 -0.3348 -0.0401
23720W        W24584  20.781  27.792   3.770  0.1072  0.0544 -0.0079
23721W        W24585  18.832  19.219  12.139 -0.1166 -0.3925  0.3436
23722W        W24586   5.732  19.307  17.127 -0.2888 -0.0601  0.1515
23723W        W24587   0.262   8.035  28.118 -0.1859 -0.0533  0.0793
23724W        W24588   5.628   5.113   8.907  0.1051  0.1005  0.0236
23725W        W24589  10.011  16.804  28.042  0.1900 -0.4289 -0.0052
23726W        W24590  18.674  20.994  28.237  0.2826  0.1847  0.1299
23727W        W24591  11.743   9.199   3.344 -0.1755 -0.3960 -0.2400
23728W        W24592  24.180   1.354  21.363  0.1279 -0.1283  0.0859
23729W        W24593   2.048  13.845  19.695 -0.0245  0.1391 -0.0318
23730W        W24594  13.616  21.469   1.557 -0.0578 -0.4364  0.2326
23731W        W24595  19.498   7.957  20.247 -0.0816  0.3584  0.2960
23732W        W24596  29.035  25.906  27.139 -0.1562  0.1527  0.1673
23733W        W24597  12.812  14.653   6.874  0.1331  0.1021 -0.1619
23734W        W24598  17.551  21.135  17.510 -0.4086  0.0301 -0.0107
23735W        W24599  22.092   8.791  18.186 -0.0828  0.1796  0.0322
23736W        W24600  19.418  22.563  20.771  0.0695 -0.2501 -0.1724
23737W        W24601  26.083  16.952  26.726 -0.1170  0.0325 -0.0173
23738W        W24602  27.420  23.583  19.965  0.4105  0.1954 -0.2258
23739W        W24603  12.201  20.871  10.516  0.0083 -0.1870  0.1304
23740W        W24604  28.006  24.863  28.448  0.1269 -0.2075 -0.0769
23741W        W24605  15.518  22.502  24.009  0.3241 -0.0106 -0.0784
23742W        W24606  21.502  28.739  20.375 -0.3711 -0.0164  0.1873
23743W        W24607  20.754  23.599  18.313 -0.1321 -0.0245 -0.1829
23744W        W24608   0.442   3.866   3.800  0.0493 -0.1678  0.0645
23745W        W24609  17.766  22.077  17.189 -0.0913 -0.1383 -0.2048
23746W        W24610  20.415   6.852  21.379 -0.1538  0.1225  0.4180
23747W        W24611   2.207  21.591  25.763 -0.1178 -0.1466  0.1664
23748W        W24612   7.411  27.286  12.906 -0.2495  0.0921 -0.2978
23749W        W24613  28.765  14.458  20.025 -0.0302 -0.1731 -0.0157
23750W        W24614  28.620  28.801  17.362  0.3647 -0.2737 -0.1728
23751W        W24615  21.317  23.877   2.157  0.1426  0.3492 -0.1430
23752W        W24616   2.665  11.123  11.314 -0.2194 -0.0068  0.1906
23753W        W24617  25.331  12.864  25.093  0.2290  0.0858 -0.2480
23754W        W24618  22.550  13.350  21.470 -0.0161  0.3828  0.1984
23755W        W24619   7.779  28.997  28.113 -0.1402 -0.0066 -0.0952
23756W        W24620   3.856  25.012   8.217  0.1509 -0.2070 -0.0583
23757W        W24621  11.974  22.596  12.773 -0.2808  0.0680  0.2159
23758W        W24622   6.735  12.201  23.442 -0.3124  0.1529  0.1817
23759W        W24623  12.727  13.018  17.909 -0.3457  0.0933  0.1246
23760W        W24624  16.575  20.153  21.472  0.0952 -0.0695  0.0720
23761W        W24625   1.392   8.675  12.905  0.0683 -0.0584 -0.1767
23762W        W24626   4.967   1.963  12.478 -0.1874 -0.1954  0.1182
23763W        W24627  21.724  17.197  26.280 -0.2420  0.1950  0.0096
23764W        W24628   9.505  12.417   6.517  0.0867  0.1542  0.1629
23765W        W24629   4.613  28.260  25.948  0.1351 -0.1874  0.0516
23766W        W24630   2.731   0.297  17.685 -0.1773  0.0182  0.0696
23767W        W24631  18.117  13.032  21.120  0.0637 -0.0397 -0.1460
23768W        W24632  10.910   3.596  25.044 -0.0011 -0.1115 -0.4534
23769W        W24633  10.145  14.675  24.834  0.0712 -0.0109 -0.0922
23770W        W24634  23.649  25.121   8.252  0.0232 -0.1862  0.1574
23771W        W24635   1.795  20.895  10.113  0.4426 -0.1281  0.1455
23772W        W24636   5.470  27.363  14.736 -0.0210  0.1672  0.2358
23773W        W24637  25.438  12.655  10.338  0.0113 -0.0572 -0.2385
23774W        W24638   7.843  10.733   0.163  0.2038  0.0702  0.1364
23775W        W24639   7.763  23.255  20.275 -0.1136  0.0639  0.1613
23776W        W24640  12.455  15.803  27.658 -0.1641 -0.4168 -0.1681
23777W        W24641  16.522  18.375  22.618  0.1701 -0.3178 -0.1204
23778W        W24642  10.233   0.106  26.382 -0.0030 -0.0391 -0.0751
23779W        W24643  18.400   1.778  26.933  0.2677  0.0271 -0.1233
23780W        W24644  18.816  20.543  28.060 -0.0456 -0.0819 -0.0907
23781W        W24645  22.405  22.194  23.138  0.2143 -0.1362 -0.2857
23782W        W24646  20.984  25.286  22.263 -0.0811  0.4423 -0.0328
23783W        W24647  22.840  28.214  25.748  0.0375 -0.0045  0.0636
23784W        W24648   5.727  21.804  24.653 -0.2047 -0.2745 -0.1052
23785W        W24649   2.308  11.805  18.548 -0.0144 -0.0572 -0.3252
23786W        W24650  23.031  28.830  10.344  0.1643 -0.0408  0.2415
23787W        W24651  18.914  10.203  25.175  0.2170 -0.0381 -0.1289
23788W        W24652   3.902  28.281   2.396 -0.0880 -0.1200  0.0798
23789W        W24653  13.114   4.793   0.100 -0.1958  0.0782 -0.0329
23790W        W24654   2.293  23.078  22.401 -0.0173 -0.0740 -0.0288
23791W        W24655  28.844   6.126  13.633 -0.1775  0.1091 -0.0729
23792W        W24656  10.613  14.072  27.090 -0.1264 -0.2998  0.0007
23793W        W24657  11.953  26.641   2.984  0.1245  0.0128  0.4222
23794W        W24658  11.101  20.770  27.703  0.3001  0.0325  0.1357
23795W        W24659  17.526  21.601  27.964 -0.1803 -0.1141  0.0848
23796W        W24660  10.895  17.850  15.923  0.0805 -0.2202 -0.1805
23797W        W24661  20.428  20.222  21.804  0.1654  0.1119 -0.1404
23798W        W24662  28.208   5.377  16.126 -0.4359 -0.1153 -0.2381
23799W        W24663   1.303   3.148  18.640 -0.1662  0.1571 -0.2648
23800W        W24664   9.738   9.723  24.040  0.4526 -0.1088  0.0727
23801W        W24665  12.442  17.088   2.935  0.0551 -0.2178  0.1017
23802W        W24666  17.543  14.690  19.629  0.0157 -0.1823  0.2013
23803W        W24667  12.985  12.380  20.062  0.1097 -0.4435  0.1142
23804W        W24668  11.758  11.939   2.073  0.2508 -0.2210  0.3886
23805W        W24669  18.791  26.802  22.170  0.2908 -0.2928  0.2405
23806W        W24670  23.442  12.800  12.555  0.4820 -0.3415  0.2158
23807W        W24671  18.483  10.907  14.922  0.3326  0.0364 -0.1616
23808W        W24672  24.001  27.839  27.087  0.4565 -0.0274  0.3051
23809W        W24673   0.383  18.309   5.964  0.0787 -0.3484 -0.1483
23810W        W24674  15.385  27.648  25.590 -0.0424 -0.0360 -0.1495
23811W        W24675  16.669  10.689  14.065  0.1619 -0.1258  0.0779
23812W        W24676  12.023  15.341  18.449 -0.1175  0.1584  0.0342
23813W        W24677  16.894   2.988  28.778  0.0028  0.1237  0.0582
23814W        W24678   2.012   0.175   7.939 -0.0932 -0.0447  0.3117
23815W        W24679  23.526  16.411  28.076  0.1343  0.1481  0.1623
23816W        W24680   7.037  18.791   4.036 -0.0679  0.2145 -0.2960
23817W        W24681   9.412  20.085  19.404  0.0083  0.1932 -0.1228
23818W        W24682  24.348   0.815   7.185  0.0841 -0.1559  0.0079
23819W        W24683  28.236  20.516  11.619  0.1791 -0.1874 -0.0874
23820W        W24684  25.533   1.554  27.987 -0.0148 -0.0449 -0.2227
23821W        W24685  26.217  24.842  22.821  0.0804 -0.2728 -0.2148
23822W        W24686  16.609  21.503  18.427 -0.3034 -0.1444  0.1335
23823W        W24687  22.454   9.492  17.663  0.1917  0.0000 -0.0561
23824W        W24688  22.514   4.353  28.892  0.0981 -0.0259 -0.1014
23825W        W24689  15.124  17.971   8.230  0.2319  0.3001 -0.0947
23826W        W24690  22.030  14.221  29.125 -0.0102 -0.3146 -0.1382
23827W        W24691   3.168  23.290   2.487 -0.1960  0.1788 -0.1546
23828W        W24692   0.785  17.763  10.005  0.1180  0.1374 -0.2323
23829W        W24693  21.300  23.835  29.018  0.0977 -0.1154  0.2032
23830W        W24694   2.349   9.306  12.244  0.0628  0.1703 -0.0775
23831W        W24695  20.797   9.371  11.000  0.0954  0.1642 -0.0570
23832W        W24696  26.400  20.912   3.071  0.1081  0.2519  0.0009
23833W        W24697  20.321  14.855   5.622 -0.3458 -0.0052 -0.2984
23834W        W24698  25.793  27.944   7.678  0.1228 -0.0608 -0.1349
23835W        W24699  17.421  25.220   0.485  0.0014  0.0098  0.0076
23836W        W24700  28.807   6.156   1.444 -0.0236 -0.0325  0.0356
23837W        W24701  26.596  13.199   5.879 -0.1085 -0.0518 -0.2716
23838W        W24702   7.348  25.957  24.920 -0.0258  0.0203 -0.0346
23839W        W24703  28.775  15.501  17.823 -0.1684  0.1739 -0.1415
23840W        W24704  25.516  13.051  17.383 -0.0386 -0.1156 -0.1001
23841W        W24705  25.439  17.731  22.227 -0.0383 -0.1862  0.2414
23842W        W24706   6.023   1.003  20.460 -0.2569  0.1292 -0.2476
23843W        W24707   4.104  25.360  16.276  0.1938 -0.4185 -0.1584
23844W        W24708   6.220  18.954  18.594  0.4356 -0.0604 -0.0151
23845W        W24709  16.910  19.524  22.036  0.1093  0.1435  0.3324
23846W        W24710  17.625  25.117  16.851 -0.0822 -0.0598  0.0919
23847W        W24711  26.889  26.468  23.280 -0.0058 -0.0472  0.2950
23848W        W24712   1.943   4.812   3.974 -0.0063 -0.0207  0.1694
23849W        W24713  14.848  18.922  24.830 -0.3167  0.2581  0.2662
23850W        W24714   3.249  13.224   7.195  0.2431 -0.3338 -0.0631
23851W        W24715  14.102  25.932  17.968 -0.0948 -0.0544 -0.4617
23852W        W24716  10.253  11.598   7.861  0.1676  0.0445 -0.0845
23853W        W24717  14.161  21.340  23.657 -0.3343  0.0837 -0.0664
23854W        W24718  12.068  19.086   5.078  0.0060 -0.3292 -0.1425
23855W        W24719  20.837  18.910  27.868  0.0719  0.1122 -0.0009
23856W        W24720  25.536  11.373  21.931 -0.1192  0.1432  0.2002
23857W        W24721   0.505   0.572   8.912 -0.1714  0.4216  0.1979
23858W        W24722   3.079  23.245   4.879  0.0218 -0.0746  0.1118
23859W        W24723  24.102  18.882  28.054 -0.1274 -0.0743 -0.2187
23860W        W24724   9.240  10.125   5.410  0.1252  0.0739 -0.0725
23861W        W24725  24.943  15.757  15.556 -0.0740  0.3998  0.0489
23862W        W24726  22.790   2.632   1.311  0.4495 -0.7006 -0.1768
23863W        W24727  16.292  20.980  28.028  0.3883  0.0147 -0.1350
23864W        W24728  18.515  14.550  18.167 -0.1151 -0.0448 -0.1786
23865W        W24729  20.656  18.023  10.748  0.0644 -0.1968  0.1188
23866W        W24730  12.556   3.877  27.253  0.1212 -0.3254  0.0423
23867W        W24731  17.234  17.933  15.470  0.0995  0.3061 -0.2119
23868W        W24732  28.382  22.868  14.893  0.1517  0.0366  0.0425
23869W        W24733   6.808  17.872  19.257  0.2598 -0.0324  0.3610
23870W        W24734   0.136  17.172  22.274 -0.1049 -0.0747  0.3360
23871W        W24735  16.429   2.099  16.508  0.2616 -0.2744 -0.0734
23872W        W24736  11.502  14.146  20.262  0.1232  0.0542  0.1220
23873W        W24737  21.459  18.547  24.989  0.1673  0.0229  0.2611
23874W        W24738   2.182  20.492  17.453 -0.0713 -0.0347  0.3699
23875W        W24739  23.823  11.587   1.911 -0.0292  0.0291  0.0455
23876W        W24740  23.781  19.706   0.256  0.0275  0.1520  0.2112
23877W        W24741  11.491   8.026  25.071 -0.2611 -0.0126 -0.0856
23878W        W24742  10.149  18.599  20.474 -0.0643  0.0878 -0.0397
23879W        W24743   6.137  23.384  16.787 -0.0980  0.2052 -0.1954
23880W        W24744  22.426  22.467  10.609  0.0527 -0.0545 -0.0197
23881W        W24745   1.027  26.233  20.328  0.4760 -0.0423  0.0353
23882W        W24746  22.735   8.826  14.794 -0.1920 -0.0013  0.2171
23883W        W24747  15.033  18.216  23.774 -0.0808 -0.0720  0.1099
23884W        W24748  23.640  23.509  15.499  0.1175 -0.0062 -0.1074
23885W        W24749  19.558  26.415   0.323  0.1098 -0.1072  0.1366
23886W        W24750  20.889  17.021  26.332  0.0360 -0.0760  0.2062
23887W        W24751   2.455  25.981  21.009  0.1672 -0.0183 -0.2021
23888W        W24752  22.805   1.259  20.497 -0.0876  0.0382  0.0703
23889W        W24753   3.762   6.216  16.726  0.1255  0.2935  0.1609
23890W        W24754  10.023  24.323  21.017 -0.1729  0.1208 -0.2058
23891W        W24755  25.458  20.820  28.705  0.0623  0.1363 -0.1991
23892W        W24756  11.535   5.424   5.085  0.1563 -0.0671  0.4357
23893W        W24757   8.401  26.657  18.404  0.0659 -0.3225  0.0499
23894W        W24758  24.755  13.662  15.135  0.1716  0.0087  0.0616
23895W        W24759  17.559  21.569  17.836  0.1953 -0.1032 -0.2398
23896W        W24760  27.114  27.049  26.412 -0.1318 -0.0769  0.0873
23897W        W24761   7.819  25.971   6.253  0.2364 -0.1262 -0.1615
23898W        W24762  26.228  10.445   6.303 -0.1220  0.0872  0.1398
23899W        W24763   1.079  26.693  23.376  0.1775  0.0338 -0.0194
23900W        W24764   8.406  29.108  11.321 -0.0359 -0.2635 -0.0743
23901W        W24765  13.558  17.653  13.080  0.2399  0.2015 -0.1384
23902W        W24766  13.527  22.021  25.416  0.0298  0.0812 -0.0668
23903W        W24767  14.591   5.566   6.966 -0.1035 -0.0195 -0.0484
23904W        W24768  15.565  18.860  21.048  0.0520  0.0452 -0.0180
23905W        W24769  23.083  18.060  10.837 -0.2228  0.0109 -0.1247
23906W        W24770  20.016  17.437   1.157 -0.1870  0.3790  0.0751
23907W        W24771   9.290  26.492  23.579 -0.0883  0.1146  0.3280
23908W        W24772  13.928  15.728  27.762 -0.0670 -0.0160 -0.1826
23909W        W24773  12.108  21.354  15.523 -0.3269  0.0255 -0.4708
23910W        W24774  16.365   2.118  27.435  0.0777  0.1747 -0.0803
23911W        W24775   7.483  18.352  21.689  0.0376  0.1989 -0.1817
23912W        W24776   2.746  19.941  26.779  0.1191  0.2082 -0.1266
23913W        W24777  28.311   1.646  24.225 -0.0188  0.1295  0.2751
23914W        W24778  14.154  23.515  21.534 -0.0522  0.0224 -0.0862
23915W        W24779  25.490  20.367  12.572  0.2071  0.2785  0.0435
23916W        W24780  20.541  22.984  16.617 -0.1292 -0.1208 -0.1653
23917W        W24781   6.646   3.678   6.114 -0.2633  0.2285 -0.2562
23918W        W24782  20.255  19.398  16.321 -0.0049  0.5392 -0.2099
23919W        W24783  21.268  17.425  26.249  0.1093 -0.0026 -0.0072
23920W        W24784  17.651   1.722  14.804  0.2371 -0.1676  0.1449
23921W        W24785   4.582   5.888  14.999 -0.0582 -0.0851  0.1121
23922W        W24786  17.174  15.648  24.476 -0.0213  0.1335 -0.1481
23923W        W24787  14.098  28.836   0.961  0.1055  0.1026 -0.0643
23924W        W24788   3.481   8.197   8.190 -0.0150  0.1283 -0.1783
23925W        W24789   5.175  17.500  21.646 -0.0394  0.0057  0.0411
23926W        W24790  21.126  20.669  14.482  0.3285 -0.0391 -0.1918
23927W        W24791   1.686  12.219  15.845  0.0711 -0.0608  0.1177
23928W        W24792  19.741  21.236   2.714 -0.4864  0.1013  0.0041
23929W        W24793  13.724   6.186  15.898 -0.0632 -0.4711  0.0686
23930W        W24794  23.276  28.291   1.886 -0.0053 -0.0685  0.0276
23931W        W24795  13.392   5.408  20.551  0.2002  0.0256  0.1546
23932W        W24796  23.131   5.398   3.554  0.2152 -0.2498  0.0608
23933W        W24797  10.864  15.314   3.780  0.3963 -0.0968 -0.1019
23934W        W24798  13.980  25.946  20.297 -0.0975  0.0965 -0.0738
23935W        W24799  18.767  13.897   8.088 -0.2835  0.0899  0.1050
23936W        W24800  23.863  20.594  26.094 -0.2639  0.1324  0.1996
23937W        W24801  22.000  17.148  12.310  0.2390  0.2110  0.0823
23938W        W24802   4.853   2.360  15.581  0.0829 -0.5378 -0.1130
23939W        W24803   3.904  11.747  18.970 -0.1670  0.1814 -0.0934
23940W        W24804  25.959  26.907  19.832  0.2205 -0.0537 -0.1865
23941W        W24805   4.778   7.233  20.251  0.2467  0.3036  0.0187
23942W        W24806   3.406   0.457  24.593  0.0793  0.2027 -0.0714
23943W        W24807  24.592   1.281   4.593 -0.1658 -0.1633  0.0731
23944W        W24808   3.484  15.819  21.443 -0.0481  0.2156 -0.3274
23945W        W24809  19.710   5.311   2.631 -0.0085  0.1872  0.1914
23946W        W24810   8.623  22.074  11.219 -0.1084  0.0136 -0.2769
23947W        W24811  23.982  11.897  10.763  0.0873 -0.0323 -0.1765
23948W        W24812   6.012   2.431   1.326  0.3314 -0.0871  0.2613
23949W        W24813  23.180   1.718   3.640  0.0179  0.0897  0.1349
23950W        W24814  13.933  26.957  20.403  0.1864 -0.3775 -0.1760
23951W        W24815  15.334  17.880  23.945  0.0462  0.4919  0.1548
23952W        W24816   7.287   6.245  15.808  0.0270 -0.0168  0.1288
23953W        W24817  23.454  13.845  10.930 -0.0971  0.0114 -0.0679
23954W        W24818   8.326  14.628  11.673 -0.1127 -0.0815 -0.0736
23955W        W24819  20.210   2.533  24.907 -0.0837 -0.1568  0.0749
23956W        W24820  28.726   9.845  10.406  0.2148  0.1137  0.1277
23957W        W24821   3.218  25.626  15.317  0.0041 -0.2105  0.4167
23958W        W24822   6.872  25.989  14.008  0.0417  0.2988  0.0195
23959W        W24823   8.563  16.080  16.067 -0.0671 -0.0585 -0.0044
23960W        W24824  14.313  26.028   3.834  0.2240 -0.1838  0.0599
23961W        W24825   1.008  25.302   4.330  0.0470 -0.0686  0.0912
23962W        W24826  16.833  19.259  22.508  0.0147  0.1881 -0.3584
23963W        W24827  15.811  15.833  22.571  0.0590  0.3092  0.0599
23964W        W24828  22.108  21.319   0.027  0.1374 -0.0734 -0.1084
23965W        W24829  13.917   4.328  25.517 -0.4544  0.3211  0.2304
23966W        W24830  22.296  23.898  12.404 -0.3339  0.1701 -0.0927
23967W        W24831  27.537   9.488  25.044  0.2735 -0.1300  0.1075
23968W        W24832  13.393  22.004  23.268  0.5336  0.2713 -0.2448
23969W        W24833  17.763   9.391  26.079  0.0887 -0.2123  0.2577
23970W        W24834  14.510  24.557  20.096  0.1514  0.0294 -0.1139
23971W        W24835  19.602  22.512  26.483  0.3988  0.3064 -0.0672
23972W        W24836  14.296  16.089  19.636 -0.0653 -0.2985 -0.1557
23973W        W24837  21.140  11.049   2.433  0.0393 -0.1153 -0.0900
23974W        W24838  20.355  19.871   6.618  0.2068 -0.1703  0.1168
23975W        W24839  17.754  12.977  27.179  0.1116 -0.2042 -0.3397
23976W        W24840  17.047  21.025   1.169  0.2831  0.3330  0.1450
23977W        W24841  26.438  28.480   1.473  0.4521  0.0074  0.1211
23978W        W24842  17.937  19.396  11.826  0.2186  0.1769  0.0071
23979W        W24843  24.186  25.923   8.037  0.0540 -0.1344  0.0765
23980W        W24844   4.709  17.070  25.861 -0.3709  0.3552 -0.3557
23981W        W24845   3.022   8.692  17.455 -0.2131 -0.2466 -0.2969
23982W        W24846  21.994  27.171  28.395 -0.1677  0.0683  0.0539
23983W        W24847  12.717   2.041  19.589  0.3302  0.0639  0.0032
23984W        W24848  13.401  22.769  20.636 -0.2457  0.0889 -0.0544
23985W        W24849  23.540   0.082   2.699 -0.1859 -0.0318 -0.1959
23986W        W24850  16.322  13.203  27.999  0.0875 -0.4090 -0.1001
23987W        W24851   5.921   6.634  19.034  0.0070  0.0842  0.2003
23988W        W24852  21.460   4.782  21.196  0.0529 -0.0925 -0.1102
23989W        W24853  13.238  15.636  10.854 -0.1252  0.2529 -0.0109
23990W        W24854   2.272  21.107  21.299  0.1249  0.1522 -0.2468
23991W        W24855   7.910   9.104  12.641 -0.1281  0.3193  0.0391
23992W        W24856  12.421  24.778  22.231 -0.3195 -0.0215  0.3805
23993W        W24857  12.278  23.755   2.176 -0.3517  0.0332  0.0766
23994W        W24858  28.491  22.949   8.839 -0.0964  0.0293 -0.0958
23995W        W24859  18.404   2.385  21.699 -0.3323  0.1555 -0.0648
23996W        W24860  25.056   2.251  29.140 -0.2683  0.1580 -0.0689
23997W        W24861  13.018  25.701   5.696 -0.0009 -0.0596 -0.1245
23998W        W24862  17.361  11.123   1.244  0.0005 -0.2512 -0.3454
23999W        W24863  15.242   1.642  13.015  0.0405  0.1185 -0.1514
24000W        W24864   2.492   2.003  16.342  0.3181  0.0747 -0.4125
24001W        W24865  22.697   5.571  25.718 -0.1648 -0.1431 -0.4127
24002W        W24866   6.298   2.381  21.633 -0.0405 -0.2863  0.1040
24003W        W24867  11.845  13.127  25.586  0.1353  0.0294  0.1779
24004W        W24868  11.318   3.415  27.757 -0.2567 -0.1800 -0.1526
24005W        W24869   4.983  28.438  28.810 -0.2517  0.1359 -0.0956
24006W        W24870  15.721   5.210  21.553 -0.2334 -0.1442 -0.2808
24007W        W24871  12.701   5.267   3.060  0.0878  0.2149 -0.2195
24008W        W24872   8.856  14.007   9.558  0.1226  0.2423  0.0880
24009W        W24873  24.413  26.248  17.100 -0.1935 -0.0870  0.2686
24010W        W24874  23.452   2.284  13.777  0.0044  0.2806  0.0382
24011W        W24875  20.065   0.358  25.833  0.1562 -0.1019  0.1179
24012W        W24876   6.534  24.086  20.181  0.0254 -0.1074 -0.3061
24013W        W24877  20.526   4.519   3.664 -0.2165  0.3925 -0.2506
24014W        W24878  25.000  22.335  26.070  0.1814  0.0142 -0.2895
24015W        W24879   7.471  24.074  26.096  0.1271  0.3021 -0.1260
24016W        W24880  12.431   8.897  26.047 -0.2748 -0.0313 -0.4011
24017W        W24881  20.743   3.693  12.243 -0.0453 -0.0940  0.1491
24018W        W24882  18.477  26.263  16.725  0.1694  0.2006 -0.0998
24019W        W24883   7.378  19.368  20.378  0.2721  0.1140  0.2821
24020W        W24884  17.579   1.341  12.715  0.1956 -0.3413 -0.1669
24021W        W24885  28.903   4.385   4.386 -0.2320  0.3435  0.2938
24022W        W24886  15.315  18.440  17.146 -0.1731 -0.1833  0.2136
24023W        W24887  22.415  12.581  17.431  0.2216  0.1246  0.2658
24024W        W24888  12.538  17.344  14.821  0.1467  0.0286 -0.3223
24025W        W24889   6.028  26.944   9.939  0.0930  0.1941  0.1875
24026W        W24890  16.973   8.355  24.283 -0.0555 -0.1324 -0.0146
24027W        W24891  14.260  19.111  25.634  0.0277  0.1498 -0.0235
24028W        W24892   1.182  16.020  10.152  0.1674 -0.2145 -0.2763
24029W        W24893  24.386  22.718  22.943 -0.1169  0.0473 -0.2948
24030W        W24894  19.772   0.105  29.070 -0.0826 -0.0271  0.3595
24031W        W24895  20.788  21.042  14.384 -0.1546 -0.2697  0.1413
24032W        W24896  22.592  29.050  19.698  0.1376  0.0910  0.1780
24033W        W24897   5.068  26.111  27.037 -0.0388 -0.1639 -0.4979
24034W        W24898  24.355  23.602  16.161 -0.1771 -0.2484  0.3375
24035W        W24899  17.254  23.682  24.012 -0.2389  0.2209 -0.2661
24036W        W24900  11.536  27.106  11.955  0.2197  0.1086 -0.0402
24037W        W24901  20.151  20.976  10.948  0.1834 -0.1719  0.3617
24038W        W24902   4.076   7.446   9.216 -0.2541  0.1720  0.1083
24039W        W24903  16.148  26.776  22.453  0.3295 -0.2131 -0.0948
24040W        W24904  20.939  25.669  15.904 -0.1997  0.0377 -0.1124
24041W        W24905  15.709  24.983   5.753  0.1098  0.0367  0.1694
24042W        W24906  21.843  20.301  21.221  0.0062  0.0771 -0.1628
24043W        W24907  23.051  21.373  10.228  0.0679  0.2398  0.1159
24044W        W24908  18.372  13.328   4.177 -0.1988  0.1727 -0.0187
24045W        W24909  11.432   8.273  27.310  0.0477  0.0119  0.0401
24046W        W24910   1.572  25.645   9.546 -0.0913  0.0467 -0.2628
24047W        W24911  23.147  20.309   4.646  0.0097 -0.2334  0.1192
24048W        W24912   6.723  19.218  18.228 -0.0183  0.1141  0.1489
24049W        W24913  28.451  18.486  24.319  0.1671 -0.1698 -0.0351
24050W        W24914  16.480   0.570  27.454  0.1687  0.2218  0.3200
24051W        W24915  25.017  20.222  13.214 -0.1074  0.0356 -0.2183
24052W        W24916  16.087  25.810   7.937 -0.1269 -0.0064 -0.0715
24053W        W24917  22.396  16.163  18.679 -0.2434 -0.2411  0.2446
24054W        W24918  20.006  24.124  23.364  0.2306 -0.0090  0.1709
24055W        W24919   8.719   0.071   8.435  0.1600 -0.2156  0.2025
24056W        W24920  19.801   4.304   1.147 -0.2572  0.1570 -0.1941
24057W        W24921  11.051  11.448   0.835  0.1453 -0.0017  0.2939
24058W        W24922  15.610  18.519  16.690 -0.3714  0.1503  0.0714
24059W        W24923   9.961  19.896   0.986 -0.0027 -0.2227  0.1020
24060W        W24924  23.872   0.087  17.714 -0.1926 -0.2037 -0.1627
24061W        W24925  12.631  18.605  13.050  0.2730  0.3851 -0.1421
24062W        W24926   6.131  22.141  24.542  0.1312 -0.0106 -0.3126
24063W        W24927   6.218  26.867  18.841  0.0095  0.1514  0.1402
24064W        W24928  10.844  28.728   2.902  0.2453 -0.1211 -0.0541
24065W        W24929  15.512   9.200   9.684  0.1169 -0.0464  0.3407
24066W        W24930  11.413  27.181  15.297 -0.2400 -0.0378  0.3717
24067W        W24931  18.513  17.248  24.783  0.2375 -0.3796  0.1222
24068W        W24932  12.520   3.599   6.570 -0.0123  0.1522  0.1609
24069W        W24933  12.727  14.546  20.912 -0.2411 -0.0467 -0.0905
24070W        W24934  16.705   8.001   2.696 -0.3401 -0.0507 -0.0567
24071W        W24935   1.352  17.428  24.543  0.5398  0.1253  0.1015
24072W        W24936  24.371  26.395   7.142  0.3122 -0.0037  0.0458
24073W        W24937  16.906  11.996  16.112 -0.2553  0.1269  0.1464
24074W        W24938   4.953  10.166  16.541 -0.2802  0.1056 -0.0386
24075W        W24939  13.316  22.863  13.208  0.3747  0.1868  0.1324
24076W        W24940   6.039  23.439  22.443 -0.0131 -0.0352  0.1081
24077W        W24941   9.938  12.896  10.177  0.1951  0.1043 -0.3244
24078W        W24942   9.336  27.580   9.295  0.0752  0.1809 -0.1109
24079W        W24943   1.229  16.780   2.594 -0.0222  0.0218  0.0274
24080W        W24944  13.674   2.040  12.218  0.1022  0.1633  0.1467
24081W        W24945  24.718  23.984  12.804  0.0599  0.0624  0.1483
24082W        W24946  17.328  11.650  27.881 -0.3928  0.2682  0.2762
24083W        W24947   9.190  26.452   6.135  0.2609 -0.0784  0.1641
24084W        W24948   2.620  12.994  23.071 -0.1364 -0.0714  0.0074
24085W        W24949  12.425   7.031  17.081 -0.2275 -0.0823 -0.4999
24086W        W24950   0.764   9.692   1.118 -0.2811 -0.2630  0.1241
24087W        W24951  29.097  25.155  28.772  0.0958 -0.2010  0.0817
24088W        W24952  11.000  23.031   2.895 -0.1548 -0.0382  0.0039
24089W        W24953   8.475   1.059  15.001 -0.1119 -0.3080  0.1679
24090W        W24954  28.946  18.392  15.366 -0.1929 -0.1461 -0.0481
24091W        W24955  12.965  19.433  23.929 -0.0653 -0.0366  0.5163
24092W        W24956  11.369  15.848  26.058  0.2784 -0.1684 -0.1296
24093W        W24957  14.876  26.309  25.194  0.1750 -0.1141  0.2007
24094W        W24958  28.124   2.194   4.284 -0.3238  0.2349 -0.0102
24095W        W24959  19.536   0.835  26.509  0.0764 -0.1840 -0.1451
24096W        W24960  22.783   0.104   4.691  0.1168 -0.0283  0.3958
24097W        W24961  28.841   2.674  28.447  0.3475 -0.2704 -0.0536
24098W        W24962   9.176  24.585   8.258  0.0856 -0.1157  0.3162
24099W        W24963  24.058   3.804  21.252  0.1468 -0.2606  0.1405
24100W        W24964   9.998  15.330  26.233 -0.1086 -0.3493 -0.2574
24101W        W24965  17.946   2.548  16.411 -0.0902  0.1107  0.3498
24102W        W24966  11.253  26.625  23.315  0.1262  0.0017 -0.0057
24103W        W24967  24.096   2.848  13.997 -0.4761 -0.0198 -0.0855
24104W        W24968  11.465  15.448   1.298 -0.0871 -0.1864  0.0790
24105W        W24969  23.104   8.584   1.723  0.0870 -0.3026  0.2825
24106W        W24970   6.920  21.385  25.848  0.1588 -0.0668  0.0104
24107W        W24971  14.589  15.325  12.151  0.0991 -0.1580  0.0084
24108W        W24972  10.543  11.913   0.359 -0.1682 -0.0116 -0.2672
24109W        W24973  23.096  27.576   4.723 -0.0682  0.2366  0.0682
24110W        W24974   6.700  22.822  12.931 -0.2180 -0.0427  0.1094
24111W        W24975  22.411  26.959   4.260  0.0073  0.0001  0.1394
24112W        W24976   1.947  24.038  28.893  0.3490  0.1194 -0.3476
24113W        W24977  16.777  22.577  19.816 -0.1231  0.0134 -0.0048
24114W        W24978  19.088   2.864   8.611  0.0213 -0.2250 -0.0637
24115W        W24979  17.297   0.287  26.971 -0.0516 -0.2802  0.0858
24116W        W24980   9.262  20.638  16.016 -0.2887  0.1789  0.0611
24117W        W24981  27.129  27.485   2.865 -0.0245  0.2455  0.2363
24118W        W24982  13.124  28.111  23.815 -0.0321  0.1632  0.1673
24119W        W24983  14.567  13.675   1.292  0.3949  0.3079  0.0889
24120W        W24984  25.498  27.250  28.178  0.3131  0.2093  0.0685
24121W        W24985  26.166   0.534   3.003 -0.2107 -0.4110  0.0518
24122W        W24986  24.354   7.807  28.800 -0.1067  0.1157  0.0950
24123W        W24987  27.354  25.390   7.260 -0.2115 -0.0731 -0.0953
24124W        W24988   7.640   3.812  22.204 -0.0543  0.0201 -0.2497
24125W        W24989   3.584  16.390   0.638 -0.1511  0.0270 -0.3362
24126W        W24990   9.130  22.246   0.623  0.0491 -0.1670  0.0566
24127W        W24991   6.539  10.362  24.061 -0.4018  0.1368  0.3282
24128W        W24992  21.737  17.062   1.954  0.1260 -0.1348 -0.1415
24129W        W24993  16.716   0.246  28.088  0.4320  0.1509 -0.2277
24130W        W24994  23.697   8.673  12.699  0.5026  0.0781 -0.1392
24131W        W24995  26.479   3.159  19.561  0.4227  0.2537  0.0628
24132W        W24996  15.279   0.402   0.910 -0.3017  0.1375 -0.0465
24133W        W24997  13.353   5.402   0.155 -0.0709  0.2215 -0.2219
24134W        W24998   2.852  25.558  22.082  0.0875  0.0248 -0.0835
24135W        W24999   2.023  28.722   2.219  0.0959 -0.1831 -0.0329
24136W        W25000  14.498  21.390   0.474 -0.1118 -0.1196 -0.1576
24137W        W25001  20.800  16.627   3.851 -0.0376  0.1765 -0.1282
24138W        W25002   5.133  25.098   2.790  0.2065 -0.2059 -0.2144
24139W        W25003  28.288  26.642  13.099  0.1300 -0.1352 -0.3760
24140W        W25004  26.075   9.098  16.042  0.2098 -0.1500  0.4521
24141W        W25005   6.008  28.187   2.513 -0.0983 -0.1168 -0.0212
24142W        W25006  13.950  26.444  24.808 -0.1465 -0.1567  0.2716
24143W        W25007   2.124  19.928   0.925 -0.1065  0.1586 -0.0225
24144W        W25008  17.316   4.023  24.540  0.2133  0.0724  0.0283
24145W        W25009  17.892  25.365  23.328 -0.0130  0.4116 -0.0626
24146W        W25010  27.410   8.325  16.973 -0.0941  0.1932 -0.0560
24147W        W25011  14.962  20.590  13.092  0.0035 -0.0197  0.1228
24148W        W25012  24.200   9.774   0.954  0.0117  0.0074 -0.1854
24149W        W25013   4.841  25.090  11.122  0.0239  0.2133  0.4964
24150W        W25014   0.980   1.911   3.897  0.0339 -0.1509 -0.1340
24151W        W25015  13.319  26.902  25.502 -0.1591 -0.1308 -0.0343
24152W        W25016   3.649  25.834  10.437 -0.1925  0.0120 -0.0048
24153W        W25017  14.226  14.292  16.909 -0.0522  0.2943 -0.1660
24154W        W25018  21.732  29.060  22.271 -0.2660 -0.1247 -0.0598
24155W        W25019  21.417   7.878  28.915  0.2548  0.0705 -0.0284
24156W        W25020  26.277   1.421  19.661 -0.1644 -0.2576 -0.1664
24157W        W25021  18.905  24.731   3.921 -0.0886  0.1421  0.0232
24158W        W25022   9.279  23.595  21.520 -0.2144 -0.0462 -0.2111
24159W        W25023  11.977  17.336  28.683  0.0878  0.0564 -0.2498
24160W        W25024   5.351  10.779  21.693  0.3538 -0.0248  0.0944
24161W        W25025  18.433   8.942  18.995  0.1539  0.2787 -0.0131
24162W        W25026  14.534   0.726  22.377 -0.1041  0.0448 -0.0660
24163W        W25027   9.988  10.024  20.154 -0.3349 -0.0274 -0.3247
24164W        W25028  13.499   2.231  21.777  0.0713  0.1930 -0.3921
24165W        W25029  12.757  22.601   3.552 -0.0855 -0.0990 -0.1417
24166W        W25030  24.961  19.222   1.648 -0.1379 -0.0206 -0.1709
24167W        W25031  18.684   2.269   5.263  0.3534 -0.0270  0.2324
24168W        W25032  22.546  27.896  13.137 -0.0474  0.2766 -0.2830
24169W        W25033  20.802  19.234  18.301 -0.0872  0.1767 -0.1135
24170W        W25034   5.040  29.070  18.272 -0.3503 -0.3653 -0.0276
24171W        W25035   4.906   8.024   9.184  0.2639 -0.1186 -0.2531
24172W        W25036  21.409  14.692   7.463 -0.1430 -0.0418  0.0683
24173W        W25037  14.452   5.656   4.538 -0.1916 -0.0299  0.1245
24174W        W25038  15.906  16.231  16.032 -0.1857  0.0065  0.0478
24175W        W25039   4.484  24.556   6.807  0.1176  0.1194 -0.0540
24176W        W25040  13.691  14.547  28.509 -0.0064 -0.0059  0.1018
24177W        W25041  16.124  22.589   3.737 -0.1732 -0.2465 -0.4121
24178W        W25042  18.430  11.457  23.099 -0.4315  0.0809 -0.3066
24179W        W25043  27.530  16.471   2.014  0.1823  0.2522 -0.0501
24180W        W25044  14.081  26.164   1.178 -0.0933  0.0470  0.4744
24181W        W25045  15.246  10.100  10.124  0.2675 -0.2132  0.1474
24182W        W25046  23.696   1.709  20.136  0.3711 -0.1795  0.1851
24183W        W25047  21.373  25.223  24.478 -0.1843 -0.0657  0.0658
24184W        W25048   6.379   4.429  22.673  0.1664  0.0093  0.3546
24185W        W25049  12.571  24.010   3.451 -0.2008 -0.1261 -0.1387
24186W        W25050   7.403  24.835  25.273 -0.2405  0.3376  0.1109
24187W        W25051  25.721  23.092  18.640  0.1003  0.0852 -0.1678
24188W        W25052   5.316  18.825  26.966  0.0337 -0.0353 -0.3513
24189W        W25053  18.090   0.286  21.920 -0.2020 -0.3358  0.1722
24190W        W25054   2.970   6.193   5.760  0.3112  0.2530  0.0773
24191W        W25055  27.637  12.685  26.065 -0.3321 -0.2688  0.0562
24192W        W25056  20.265  22.290  27.349  0.1000 -0.0782  0.0650
24193W        W25057  12.387   3.373  21.118 -0.0928  0.1685 -0.1966
24194W        W25058  27.700  10.428  20.435 -0.0706  0.1092  0.2677
24195W        W25059  23.463   1.228  24.670  0.0280 -0.2575  0.2865
24196W        W25060   4.271   3.078   3.236 -0.0541  0.0647  0.0084
24197W        W25061  16.430   1.891  13.241  0.2623  0.0095 -0.1053
24198W        W25062   3.330  22.035  22.289 -0.4026 -0.5056  0.1321
24199W        W25063  12.964   5.300   4.915  0.1350  0.0475  0.0459
24200W        W25064  17.928  17.115  22.797 -0.0203 -0.2543 -0.0612
24201W        W25065  27.048   6.608   9.301 -0.0820  0.1673  0.3370
24202W        W25066  25.526  25.164   4.648 -0.3529 -0.0797  0.2664
24203W        W25067  20.502  25.234  17.216 -0.4062  0.0730  0.0424
24204W        W25068  11.537  15.535  15.973  0.1155  0.1656 -0.1009
24205W        W25069   0.310  20.635   0.508  0.2494  0.1702  0.2815
24206W        W25070  23.907  25.182  20.266 -0.0022  0.1371 -0.0412
24207W        W25071  22.231  22.713  26.922 -0.0679  0.0301 -0.0246
24208W        W25072   4.487  25.185  23.624  0.0412  0.2479  0.0490
24209W        W25073  13.808  13.558  18.733 -0.0978 -0.4706 -0.1602
24210W        W25074   9.033  12.799   0.194 -0.3041  0.1704 -0.2535
24211W        W25075   9.202  10.587  16.034 -0.0012 -0.3331 -0.4241
24212W        W25076  27.189  16.060  20.101 -0.0305 -0.2536  0.1863
24213W        W25077  16.390   4.474   6.800  0.0469 -0.1412 -0.0006
24214W        W25078   6.112   1.035  24.576 -0.0725 -0.1123  0.1692
24215W        W25079  16.712   1.920  24.020  0.4119 -0.0718  0.0948
24216W        W25080  23.932  25.437  24.418 -0.0310 -0.1452 -0.1225
24217W        W25081  11.229  13.347   3.069 -0.2621 -0.2005 -0.1536
24218W        W25082  26.008  19.446   4.185 -0.1545  0.0738 -0.1809
24219W        W25083   9.609   8.784  27.159  0.0212  0.1972  0.2417
24220W        W25084   0.134  24.237  22.685  0.0670  0.0777 -0.0624
24221W        W25085   9.012  24.006  18.362 -0.2899  0.0913  0.1485
24222W        W25086  27.185  24.036  10.841 -0.2103  0.0239  0.0082
24223W        W25087  16.755  12.728   0.411 -0.2476 -0.2696 -0.1027
24224W        W25088   7.478  13.471  21.530  0.1020 -0.1483 -0.1969
24225W        W25089  13.954   3.385  24.476  0.0518 -0.1453  0.2452
24226W        W25090  24.427   3.436  20.123 -0.3555 -0.1512 -0.0346
24227W        W25091  23.522  11.597  28.033  0.2379 -0.1686 -0.0634
24228W        W25092  15.383   6.151   8.077 -0.2105  0.0502  0.0945
24229W        W25093   6.500  17.426  24.688 -0.1721 -0.1522 -0.2255
24230W        W25094  17.143   1.645  18.645  0.0771 -0.2465  0.0089
24231W        W25095  24.382  21.765   6.507 -0.1042  0.0715 -0.0259
24232W        W25096   0.184   8.705   6.689  0.0138 -0.1257  0.1679
24233W        W25097  17.444  15.214   3.519  0.0551 -0.1889 -0.0331
24234W        W25098  14.456  23.396  21.100  0.1951 -0.0377  0.3976
24235W        W25099  25.544  26.061  20.041  0.0414  0.0897  0.0363
24236W        W25100   7.706  13.169  28.361 -0.3368 -0.1063 -0.2466
24237W        W25101   5.502   2.080   2.671 -0.1770 -0.1326 -0.1360
24238W        W25102  12.100  14.447  28.794 -0.0045  0.1088 -0.1275
24239W        W25103  12.613  20.083  27.651  0.1478 -0.0058 -0.3633
24240W        W25104   1.375  21.033  17.038 -0.4559 -0.1967  0.1387
24241W        W25105  14.295   7.031   0.532 -0.1080  0.0754 -0.1934
24242W        W25106  26.214  21.922   6.215 -0.3377 -0.1124  0.2888
24243W        W25107  27.769  18.230  13.997 -0.1117 -0.0241 -0.2856
24244W        W25108  19.809  16.938   2.763  0.0286 -0.0155 -0.0112
24245W        W25109  27.927   1.140   8.805  0.0263  0.0458 -0.0597
24246W        W25110   8.864  17.804   4.285 -0.0483 -0.0926  0.0310
24247W        W25111  19.122  27.749  27.427 -0.0905  0.1945  0.1000
24248W        W25112  15.085  18.905  20.290  0.1320 -0.1377  0.0528
24249W        W25113   6.027  19.917   7.058 -0.1108  0.0493  0.0884
24250W        W25114  25.903  25.535   7.951  0.2516 -0.0994 -0.2050
24251W        W25115  18.899   6.935  26.250 -0.3470  0.1904 -0.0817
24252W        W25116   0.459  28.783  22.497 -0.3842  0.2663  0.1888
24253W        W25117  14.733   6.974   6.582  0.3701 -0.1200 -0.1818
24254W        W25118  16.653   5.641  27.506 -0.1410 -0.0771 -0.2752
24255W        W25119   9.761  13.133   7.579  0.2091  0.4638 -0.0739
24256W        W25120  22.386  21.880   2.999 -0.0653  0.3066  0.0156
24257W        W25121  16.921   3.414  17.385  0.0663 -0.0007  0.3011
24258W        W25122  24.421   4.130  21.757  0.0607 -0.0636  0.0187
24259W        W25123  16.411  17.751   1.625  0.0804 -0.0740  0.0597
24260W        W25124   7.142  17.848  26.542  0.1925  0.0034  0.0557
24261W        W25125   6.978  24.681   5.229 -0.1675  0.0965  0.0918
24262W        W25126   9.934  21.828  17.459 -0.2192 -0.0976  0.0904
24263W        W25127  23.028   8.775   4.231 -0.0078 -0.0675  0.0774
24264W        W25128  25.848  16.156  24.036 -0.2131 -0.0043 -0.1262
24265W        W25129  26.799  11.336   9.148 -0.0076 -0.1412 -0.0221
24266W        W25130  24.993  28.270  16.812  0.0488  0.3251 -0.1656
24267W        W25131   9.921  27.054  24.044 -0.1222 -0.0782  0.0614
24268W        W25132  26.466   2.790  26.211 -0.1203 -0.2756 -0.0312
24269W        W25133  18.152   6.737  11.603 -0.1882  0.1227 -0.0666
24270W        W25134  11.293  22.838  22.193  0.2298  0.1683  0.1567
24271W        W25135  16.999  13.761  27.182  0.0191 -0.2277 -0.1504
24272W        W25136  23.213  21.136  17.032 -0.1122 -0.1936 -0.1753
24273W        W25137   1.761  19.972  23.105  0.1243  0.1067 -0.3054
24274W        W25138   9.226   6.079  23.032  0.0238 -0.1401  0.1054
24275W        W25139  24.683  21.771  24.994  0.1014 -0.2789  0.0119
24276W        W25140  22.556  12.165  25.033 -0.1385 -0.0265  0.1545
24277W        W25141   2.833  28.482  10.993 -0.2200  0.1726 -0.1564
24278W        W25142   5.415   7.288   4.349 -0.1238  0.0413 -0.0573
24279W        W25143  12.077  26.816  28.721  0.0860  0.1191  0.0992
24280W        W25144   0.268   3.031  23.510 -0.2398  0.0750 -0.3498
24281W        W25145  17.124  15.914  12.062 -0.2017  0.0842  0.2340
24282W        W25146  19.334  19.584  15.818 -0.2931  0.0821  0.2168
24283W        W25147   8.762   7.680  21.520 -0.1358 -0.2362  0.7139
24284W        W25148  14.093  11.843  26.345  0.0674  0.2582 -0.3204
24285W        W25149  28.928   9.482   8.011 -0.0376 -0.1581 -0.1866
24286W        W25150  14.741  10.637  25.520  0.0084  0.0693  0.0466
24287W        W25151   8.476  18.855   3.399 -0.2570  0.0622 -0.1507
24288W        W25152  10.614   0.921   8.340  0.0498 -0.0389  0.2271
24289W        W25153  24.067  22.631   5.068  0.1543  0.0479 -0.2097
24290W        W25154   2.681  25.211  26.215 -0.3238 -0.1918 -0.2421
24291W        W25155   7.045   5.326  24.986 -0.0130 -0.1250  0.5221
24292W        W25156   1.667  26.039  21.983  0.0446 -0.1415  0.3264
24293W        W25157  11.890  13.067   0.734 -0.2373  0.0684 -0.1725
24294W        W25158  20.091  20.595  21.847  0.0243  0.1020  0.0121
24295W        W25159  13.886  27.770  17.025 -0.1259 -0.0775  0.1490
24296W        W25160  11.551  28.442   6.644 -0.0789  0.4116  0.1518
24297W        W25161  21.671  22.784  19.254  0.1431 -0.1597  0.0550
24298W        W25162  19.313   0.035  17.588 -0.1538  0.2136  0.2465
24299W        W25163  25.062  25.533  28.933 -0.1701  0.0548 -0.3037
24300W        W25164   6.599  18.449  16.025 -0.1014 -0.0744 -0.0711
24301W        W25165  21.778  12.856  20.189 -0.0544 -0.2168 -0.0057
24302W        W25166  25.992   7.033  23.036  0.1834  0.0208 -0.0087
24303W        W25167  21.501  23.393  14.153 -0.2803  0.1433 -0.0611
24304W        W25168  17.837  23.044   5.161 -0.2810  0.0003  0.1741
24305W        W25169   4.831  16.319   0.366 -0.1206  0.0502  0.2975
24306W        W25170  11.911  11.371  17.650  0.2533 -0.0951 -0.2318
24307W        W25171  13.689  11.481   5.458 -0.0485 -0.1106  0.1015
24308W        W25172  22.579   9.138  23.884  0.2007  0.0176  0.2325
24309W        W25173  18.708  21.484   1.699 -0.0492 -0.1524 -0.0311
24310W        W25174  17.765  22.804  22.691  0.0442  0.1267  0.1580
24311W        W25175  25.751   3.437  23.624  0.0136  0.0706 -0.2165
24312W        W25176   8.300  28.860  20.950 -0.0197  0.2930 -0.1858
24313W        W25177   4.369  25.426  11.453 -0.1134  0.1494 -0.2994
24314W        W25178  26.968   0.916  18.119 -0.0040  0.0894  0.0006
24315W        W25179  10.543  17.674  15.506  0.1155 -0.0831 -0.2510
24316W        W25180  17.695  28.685  16.284  0.2620  0.0519  0.3913
24317W        W25181  24.065  11.060  11.814 -0.0380 -0.0245 -0.1810
24318W        W25182  13.437  21.033  18.871 -0.1099 -0.0465  0.0993
24319W        W25183  18.204  14.828  14.937 -0.3286 -0.1369 -0.1358
24320W        W25184   0.225  21.503   5.145  0.2572 -0.2487 -0.0931
24321W        W25185  11.316  15.293   2.372 -0.0598  0.0714  0.2303
24322W        W25186  21.767  17.356  22.880 -0.1190  0.1397  0.1562
24323W        W25187  10.901  21.596  27.109 -0.0289  0.1544  0.0475
24324W        W25188  11.180  26.326  19.592 -0.2029  0.3464  0.1489
24325W        W25189   8.045  26.554  12.662  0.0045  0.1412  0.2938
24326W        W25190  23.018  19.575  23.709  0.0730  0.0085 -0.0363
24327W        W25191  22.846  28.972  22.425  0.1310 -0.1242  0.2649
24328W        W25192  14.805  23.715  15.318  0.2031  0.2206 -0.1404
24329W        W25193   3.588  18.771  28.161 -0.3540  0.1723 -0.2947
24330W        W25194  15.023  13.595   9.957  0.1059 -0.1539 -0.1882
24331W        W25195  15.190   9.664  16.236 -0.1060 -0.3065  0.1420
24332W        W25196   6.128  28.960   2.932 -0.0377  0.2908 -0.0886
24333W        W25197  25.374  23.753  16.890 -0.0982 -0.2520 -0.1568
24334W        W25198   4.717  15.868   0.818  0.2609  0.0398 -0.1916
24335W        W25199   0.952   2.871   8.821  0.2480  0.0484  0.3394
24336W        W25200   9.430  26.895  19.768  0.0045 -0.1132  0.1046
24337W        W25201  20.095  22.354   1.526 -0.0130 -0.0031 -0.2333
24338W        W25202   4.342  14.731   5.679  0.0371 -0.2656  0.4634
24339W        W25203   3.017  20.366  16.574  0.2089 -0.1787  0.3269
24340W        W25204  27.798  25.000  12.050  0.2173 -0.2352  0.0336
24341W        W25205  14.018  21.802  29.125 -0.0360  0.5377 -0.2115
24342W        W25206   7.630  22.079   7.232  0.1670 -0.1408 -0.0322
24343W        W25207  21.580  15.965  12.035 -0.1588 -0.0092 -0.0576
24344W        W25208  18.782   7.970  16.236  0.1762 -0.0206 -0.2121
24345W        W25209  27.374   0.926   7.268  0.0315  0.1868 -0.1882
24346W        W25210  25.753  12.153  27.616  0.2511  0.3379 -0.0742
24347W        W25211  15.699   5.013   4.334  0.2353 -0.0820  0.1444
24348W        W25212   5.588  15.049  19.403  0.0193 -0.0208  0.2235
24349W        W25213   1.298  13.662  18.380  0.2809 -0.1517 -0.2848
24350W        W25214  18.837  25.466   0.813 -0.1547  0.1034 -0.1946
24351W        W25215  23.083   6.145   2.903  0.3302 -0.2008  0.0635
24352W        W25216  24.662   9.978  20.693  0.1328 -0.1262  0.2429
24353W        W25217  10.885  13.132  22.496  0.0080  0.0080  0.1926
24354W        W25218  22.751  28.486  28.569  0.0650 -0.1846  0.2295
24355W        W25219   0.398  18.817   7.451 -0.1362  0.0330 -0.0098
24356W        W25220  13.159  28.300  16.709 -0.1286 -0.0730 -0.1052
24357W        W25221  14.477  25.653  16.598  0.2994  0.0235 -0.2457
24358W        W25222   3.461  29.142  28.639 -0.1940 -0.1047 -0.3022
24359W        W25223   6.781  21.245  22.218 -0.1512 -0.0384 -0.0660
24360W        W25224  19.223  12.738  25.347 -0.2052  0.3814 -0.0060
24361W        W25225  20.646   9.580  17.293  0.1068  0.2960 -0.3410
24362W        W25226  27.086  20.231  15.258 -0.2682  0.0911 -0.0747
24363W        W25227  21.502  27.429  14.848  0.2106 -0.0500  0.1464
24364W        W25228   3.509  23.630   4.664 -0.1286 -0.6130 -0.1640
24365W        W25229   4.886  27.771  21.772 -0.0359 -0.1635  0.3315
24366W        W25230  21.262  26.703  15.960 -0.0124  0.0655  0.2032
24367W        W25231  16.402   1.192  19.673 -0.2857 -0.1695  0.1029
24368W        W25232  12.272  16.959  15.789  0.2278 -0.2224 -0.0063
24369W        W25233  15.972  20.846  20.325  0.1386 -0.1205  0.1529
24370W        W25234  13.947  22.327  10.134  0.1620  0.2149 -0.0430
24371W        W25235  14.411  18.674  25.370  0.0835 -0.1661  0.2188
24372W        W25236  11.413  22.781   4.113  0.1090  0.4989 -0.1437
24373W        W25237   1.260   0.886  14.354  0.0133 -0.0760 -0.2853
24374W        W25238  26.274  25.533  15.947 -0.0483 -0.1434 -0.1259
24375W        W25239  24.146  12.655   3.602 -0.1373 -0.0742  0.1218
24376W        W25240  17.512  16.288  16.976 -0.0228 -0.2472  0.0369
24377W        W25241  13.056  19.042   0.872  0.0880 -0.1317 -0.1856
24378W        W25242   2.540   4.178  18.583 -0.3044 -0.1816  0.1049
24379W        W25243  28.923   1.241  20.693 -0.0804 -0.0510 -0.0536
24380W        W25244  17.051  20.106  20.603  0.0002  0.2821  0.1336
24381W        W25245  28.851  13.077  16.007 -0.2185 -0.0391 -0.1580
24382W        W25246  24.421   9.814  25.739 -0.0084 -0.0430  0.1346
24383W        W25247  20.377  10.735  27.749 -0.2960 -0.1493  0.0473
24384W        W25248   0.993  11.212   0.050 -0.2042  0.1745 -0.2225
24385W        W25249  14.750  26.372   5.157 -0.1825  0.0105 -0.0222
24386W        W25250  22.512  24.984  18.969  0.0766  0.0109  0.0184
24387W        W25251  16.227  26.551   0.474  0.1411 -0.4511  0.0328
24388W        W25252   5.241  18.188  23.792  0.1602 -0.3844  0.1326
24389W        W25253  12.429  19.372   9.465  0.2656 -0.3894  0.4256
24390W        W25254  20.418  11.470   5.595 -0.0265 -0.0553 -0.2890
24391W        W25255  26.307  23.366  17.055  0.0910 -0.1456 -0.1000
24392W        W25256  23.427   7.045  21.681 -0.0064  0.3817 -0.0301
24393W        W25257   0.650  11.331   3.120 -0.2613 -0.1172 -0.3081
24394W        W25258  13.934   4.883  11.821  0.2103  0.0929  0.0653
24395W        W25259  12.487  20.279   9.044  0.0225 -0.0563 -0.0875
24396W        W25260  28.236   9.060   1.805 -0.3863 -0.2469 -0.0750
24397W        W25261  22.504  21.177   7.066  0.3071  0.1113  0.2845
24398W        W25262   0.451  20.226   4.474  0.4782 -0.3772 -0.0006
24399W        W25263  16.834  21.920  25.790 -0.1735 -0.0776  0.1376
24400W        W25264  24.461  10.929  25.946  0.0167  0.0808 -0.3717
24401W        W25265   3.982   8.123  17.686 -0.4019 -0.3593 -0.2149
24402W        W25266   6.267  24.854   4.989 -0.2248  0.3036  0.1209
24403W        W25267  15.758  27.068  22.059 -0.0733 -0.2413 -0.2830
24404W        W25268   4.214  26.728  24.462 -0.1553  0.1797  0.1582
24405W        W25269   9.735  18.180  17.869 -0.0256  0.1575  0.2155
24406W        W25270   8.665   4.604   9.593 -0.2891 -0.0384  0.2719
24407W        W25271  12.040  24.436   9.735  0.0859 -0.0234 -0.1721
24408W        W25272  14.220  12.749  21.392 -0.1391 -0.1959  0.0703
24409W        W25273  12.398  28.078  22.758 -0.0826 -0.0960  0.0905
24410W        W25274  11.277  23.245  25.032 -0.0017 -0.2646  0.0596
24411W        W25275  28.677  20.297   3.294  0.0611 -0.1745 -0.3963
24412W        W25276   9.024  22.080  20.579  0.1144  0.0497 -0.1626
24413W        W25277  18.060   6.027  10.009  0.1353 -0.3549  0.2171
24414W        W25278   8.787   8.306  18.298 -0.2522  0.0702 -0.3509
24415W        W25279  20.962  26.397  13.005  0.0569  0.0565  0.3606
24416W        W25280  13.525  13.964  12.891  0.1601  0.1711 -0.0094
24417W        W25281  24.504   0.798  18.464  0.1597 -0.1376 -0.2849
24418W        W25282  10.695  19.191  28.729 -0.3965  0.3128  0.0032
24419W        W25283  20.658  26.114  15.878 -0.0898 -0.0490  0.1363
24420W        W25284   0.914   2.528  28.775 -0.0177 -0.1214  0.1264
24421W        W25285  27.064  13.646  15.515 -0.0400  0.0335  0.0329
24422W        W25286  28.346  16.685   8.282 -0.0390 -0.0339  0.0442
24423W        W25287  19.404   6.580   6.858  0.0491 -0.2102  0.0553
24424W        W25288  18.915  14.187   7.214  0.0292 -0.0103 -0.0671
24425W        W25289  25.311   6.864  20.818  0.2181 -0.1906 -0.1180
24426W        W25290  25.350   2.233  19.249 -0.1266 -0.1553 -0.1853
24427W        W25291   5.044   6.591  29.069  0.0374 -0.1723 -0.3008
24428W        W25292   7.771  19.005  17.539  0.0500  0.3162  0.0892
24429W        W25293   3.386  17.059   6.051  0.0021  0.1086  0.2117
24430W        W25294  10.567  19.558  13.914  0.1126  0.1958  0.2463
24431W        W25295   7.245  12.054  20.454 -0.0005  0.2847 -0.1950
24432W        W25296   6.807  26.620  10.146 -0.1198  0.1407 -0.3282
24433W        W25297   9.198  20.420  27.178  0.1276 -0.2594 -0.1538
24434W        W25298   4.019  20.764  13.609 -0.0460 -0.0264  0.0641
24435W        W25299  21.161   1.457  17.540 -0.2869 -0.1461 -0.1152
24436W        W25300  18.124  18.354   3.375  0.0411  0.2704  0.3196
24437W        W25301  14.338  17.191   7.667  0.0621 -0.1104  0.0174
24438W        W25302  12.552  15.279  22.504 -0.0786 -0.1100  0.1935
24439W        W25303  27.917  20.936  24.981 -0.2183  0.2468 -0.4631
24440W        W25304  13.522  21.017   5.817 -0.1020 -0.0121  0.0876
24441W        W25305  21.588   4.415  28.950 -0.2733 -0.3151 -0.0848
24442W        W25306  12.525   0.375  22.182  0.0308 -0.1254 -0.1722
24443W        W25307  12.861  17.532  20.742 -0.0677  0.0577 -0.2432
24444W        W25308  20.379  10.185   7.763  0.1213 -0.1601 -0.2805
24445W        W25309  21.375  11.797  28.488 -0.0600  0.0746 -0.1311
24446W        W25310   6.883  27.018  20.020  0.0547  0.0822  0.1101
24447W        W25311  19.604   0.054   6.333  0.0926  0.1976 -0.0739
24448W        W25312  22.311   5.290   8.139 -0.1818 -0.0491 -0.0648
24449W        W25313  13.794  18.130  12.945  0.0278  0.1254  0.0519
24450W        W25314  17.065   6.397  19.219 -0.0950 -0.2814  0.0825
24451W        W25315  12.815  28.189   7.205 -0.1415  0.0953  0.0934
24452W        W25316   2.569  18.376  25.032 -0.3569 -0.0642  0.2416
24453W        W25317  12.902  13.285   7.135 -0.1202  0.0110  0.0888
24454W        W25318  23.960  22.776  20.029 -0.1243 -0.2601 -0.0216
24455W        W25319  25.762  16.344  23.186  0.1432  0.0556 -0.0454
24456W        W25320   9.035  16.110  12.162 -0.1443 -0.1914 -0.0013
24457W        W25321  19.170  14.100   4.870 -0.0114  0.1317 -0.0174
24458W        W25322  13.766  18.490   5.714  0.0662  0.2649 -0.0856
24459W        W25323  27.216  16.817  12.489  0.0601  0.0292  0.2193
24460W        W25324  26.529   3.122  25.183 -0.0113  0.1093 -0.0621
24461W        W25325  23.842  27.498   2.193 -0.0994  0.0139 -0.2651
24462W        W25326  16.121  21.745   3.639 -0.0988 -0.0464  0.0842
24463W        W25327  23.270   5.060  10.856  0.0371 -0.0494  0.0852
24464W        W25328  18.285  15.279   8.291 -0.1217 -0.0717  0.0986
24465W        W25329  27.905  15.078  21.430  0.1311  0.2466 -0.0444
24466W        W25330  10.188  18.717   0.565  0.0880  0.0378  0.0572
24467W        W25331  26.781  11.353   3.108 -0.2785  0.1731  0.0273
24468W        W25332  15.656  11.238   6.146 -0.1532  0.2933  0.0526
24469W        W25333   1.315   2.180  13.055  0.1979  0.0253 -0.1310
24470W        W25334  19.435   1.888  25.164 -0.0899  0.0270  0.0309
24471W        W25335   3.411  17.759  22.106 -0.0232 -0.0908  0.3245
24472W        W25336  18.647  19.614  16.163  0.4028  0.2776 -0.1486
24473W        W25337  28.313   3.319  26.925  0.0949 -0.0866 -0.0404
24474W        W25338  14.092  19.712  24.080  0.0020 -0.2202  0.0513
24475W        W25339  20.018  20.353  15.308  0.0123 -0.1050 -0.2011
24476W        W25340  14.316  27.250  20.586  0.1741 -0.4165  0.1847
24477W        W25341  11.607   2.823  28.987  0.0332 -0.0233 -0.3945
24478W        W25342  26.276  18.196  27.642  0.1109  0.0013  0.1503
24479W        W25343  11.831  28.942  23.528 -0.0700  0.0620 -0.0181
24480W        W25344  11.471  25.661   0.489  0.0469 -0.0129 -0.0837
24481W        W25345  15.447  13.020  17.613 -0.0084  0.4945 -0.0924
24482W        W25346   2.263  17.568   7.874  0.0870 -0.1043 -0.1189
24483W        W25347   3.455  15.200  19.275 -0.0923  0.0286 -0.0521
24484W        W25348  25.514  21.003  16.544 -0.0865 -0.0480 -0.0946
24485W        W25349   4.292  20.730  27.210 -0.2143 -0.2113 -0.0419
24486W        W25350  23.437  26.260  24.123 -0.2018  0.2095  0.3410
24487W        W25351  14.230  19.723  18.126  0.0950  0.0860  0.1071
24488W        W25352  12.977  12.633   3.093  0.3896  0.0137 -0.0066
24489W        W25353  15.641  11.364   8.033 -0.1909  0.1476 -0.2735
24490W        W25354  27.669   3.337  23.171 -0.1210 -0.1704  0.2044
24491W        W25355  17.811   8.968  27.107 -0.0537 -0.2197 -0.0192
24492W        W25356   0.678   6.623   4.227  0.0843  0.0972 -0.3040
24493W        W25357  11.810  28.906  24.244  0.0569 -0.1454 -0.0271
24494W        W25358  19.707  19.680  16.970 -0.1038  0.0280 -0.1958
24495W        W25359  10.412  18.314  14.099  0.1672  0.0655  0.0055
24496W        W25360  27.675  17.736   0.455  0.1452  0.2515  0.0217
24497W        W25361  18.399   5.899   3.136 -0.2567  0.2275  0.1483
24498W        W25362  15.751  23.521   6.498 -0.0899 -0.3836  0.1830
24499W        W25363  27.119   0.699  23.920  0.0654 -0.1946  0.1967
24500W        W25364   5.968   4.874  17.897 -0.1119 -0.0548  0.0426
24501W        W25365  12.115  18.262   8.314 -0.0327 -0.0973  0.0193
24502W        W25366  25.230  19.120  23.410 -0.0982 -0.2822 -0.1330
24503W        W25367  18.031   4.165  16.963 -0.0914  0.1170 -0.2735
24504W        W25368  17.970  27.648  13.381 -0.0469 -0.2679  0.1357
24505W        W25369  18.043  17.231  26.920 -0.0105  0.1383  0.2263
24506W        W25370  11.315  25.233   5.439 -0.0360 -0.2869 -0.0243
24507W        W25371  13.548  14.830  20.497 -0.1555  0.0092  0.0732
24508W        W25372  25.107  23.068   9.981 -0.0842 -0.0878  0.1837
24509W        W25373   1.145  28.320   3.735 -0.0587  0.0721 -0.0436
24510W        W25374  16.133  25.766  10.342 -0.0980 -0.1182 -0.2244
24511W        W25375  12.996   5.169  24.395 -0.1450  0.1319  0.0826
24512W        W25376  11.024  14.307   3.944  0.0323 -0.1440 -0.1675
24513W        W25377   9.187  26.681   4.784 -0.3860  0.0531  0.0972
24514W        W25378  28.238  26.631  11.180 -0.3507  0.0628 -0.0054
24515W        W25379  12.184  24.942   8.423 -0.3149 -0.0344  0.0144
24516W        W25380   4.235   2.223  12.929 -0.0080 -0.0547 -0.4214
24517W        W25381   2.382   4.850  20.368  0.1348  0.1153 -0.1093
24518W        W25382   6.885  26.251  24.183  0.0287  0.0227  0.2603
24519W        W25383   9.549  18.592  18.155 -0.0051  0.3078  0.2433
24520W        W25384  25.586  22.243   4.085 -0.1143  0.0068 -0.1307
24521W        W25385   5.476   6.781  12.968 -0.0116 -0.2198  0.0902
24522W        W25386  12.103   4.961  16.267 -0.2351  0.0062  0.0646
24523W        W25387  19.082   0.858   1.898 -0.3929 -0.0965 -0.1084
24524W        W25388  14.011  26.414  12.533 -0.0763 -0.1206  0.0181
24525W        W25389  21.055   2.419  28.275  0.0358 -0.1187 -0.1656
24526W        W25390  10.816   5.050  24.801  0.1080 -0.1893 -0.3121
24527W        W25391  19.643  25.308  22.863 -0.1765  0.0960  0.0458
24528W        W25392  10.586  23.313  28.351 -0.1362  0.1255 -0.1551
24529W        W25393   5.232  18.002  13.033  0.0481  0.2888 -0.0184
24530W        W25394  12.251  12.304   0.374 -0.4003 -0.0376  0.0784
24531W        W25395   8.749  10.170  26.935 -0.0414 -0.2598 -0.0536
24532W        W25396  18.573  14.087  18.065 -0.3333 -0.2409  0.0532
24533W        W25397  25.902  10.445   9.128  0.0213  0.1966  0.0560
24534W        W25398  13.239  23.728  19.410  0.4238 -0.2124  0.0954
24535W        W25399  23.423  22.222   0.133 -0.1905 -0.2208  0.3404
24536W        W25400  16.698  11.787  24.184  0.1402  0.1377 -0.0636
24537W        W25401  21.542  23.018  13.784 -0.2380 -0.1016 -0.1923
24538W        W25402  11.063  22.986  18.983  0.1381  0.1154 -0.1129
24539W        W25403  10.843  12.881   5.164  0.0237  0.1567 -0.2263
24540W        W25404  23.634  25.885  14.185 -0.0018 -0.1808 -0.3014
24541W        W25405  22.350  11.917  27.232  0.0663 -0.0149  0.2930
24542W        W25406  23.543  28.304  24.114  0.2286 -0.0050  0.0255
24543W        W25407   6.527   9.693  26.616  0.1837  0.0467 -0.3482
24544W        W25408  25.492   1.430  23.836  0.0809 -0.0083  0.1810
24545W        W25409  20.681  23.704   6.826 -0.0087  0.0004  0.1993
24546W        W25410  13.057  20.877  20.212  0.0539  0.2310  0.0501
24547W        W25411  22.454  11.667   4.401 -0.1304  0.2154 -0.3010
24548W        W25412  10.476  24.455  13.343 -0.0443 -0.1563  0.1012
24549W        W25413  15.473  24.311   1.890  0.4550  0.0276 -0.1902
24550W        W25414  20.544  19.330  21.087  0.0840 -0.0629  0.0496
24551W        W25415  25.423  13.638  21.895 -0.0964  0.1706  0.1498
24552W        W25416  27.618   7.824   8.504  0.1751 -0.0201 -0.0520
24553W        W25417   8.454  20.107   3.745 -0.1679  0.1513 -0.0285
24554W        W25418  27.740   1.894  29.070  0.1510  0.1558 -0.0688
24555W        W25419   2.721   9.362   1.993  0.0892  0.1984  0.2339
24556W        W25420  10.442  17.196   6.860 -0.0748  0.0211 -0.1125
24557W        W25421  16.086  16.040  14.611  0.4165  0.0509  0.3055
24558W        W25422  20.164  28.229   6.446 -0.1119 -0.1852  0.0369
24559W        W25423  26.697   0.845   7.177  0.3612  0.0324  0.1578
24560W        W25424   7.973  28.079  19.947  0.0126  0.1849 -0.1046
24561W        W25425  10.079  10.781  19.435  0.2451 -0.3029  0.0190
24562W        W25426   9.196  15.372   2.429 -0.1000 -0.0125 -0.3907
24563W        W25427  23.238  13.290  26.609  0.1030  0.1978 -0.3611
24564W        W25428  16.363  16.905  12.752 -0.2151  0.0840 -0.0907
24565W        W25429  25.502  15.718  23.693 -0.1616 -0.2230 -0.1784
24566W        W25430   4.796  17.742   8.593 -0.1430  0.5387  0.0968
24567W        W25431  15.292  26.936   1.799  0.0644  0.1272 -0.1108
24568W        W25432  20.591   1.943   8.450  0.0763  0.2742  0.2587
24569W        W25433  12.697   3.242  24.610 -0.1364 -0.0981 -0.1185
24570W        W25434  13.636  16.953  11.900  0.3825 -0.0297 -0.2732
24571W        W25435  28.924  17.167  13.044 -0.2086 -0.1209  0.1914
24572W        W25436   0.420  12.999   0.091  0.2907  0.1476 -0.3336
24573W        W25437  21.384  10.412   9.634  0.1666 -0.3651  0.0935
24574W        W25438   7.592   3.168  13.644  0.0202 -0.0794 -0.1281
24575W        W25439  11.745   2.355   9.273 -0.1057  0.1586 -0.1985
24576W        W25440  12.448  23.734  21.041  0.2370  0.0513 -0.4318
24577W        W25441  28.523  28.020  20.480 -0.2497 -0.0487  0.1222
24578W        W25442   6.731  27.656   7.221 -0.1633 -0.2972 -0.1207
24579W        W25443  15.501   7.777   1.809  0.0129  0.1047 -0.4122
24580W        W25444   7.412  16.082  22.834 -0.0287 -0.0340 -0.0990
24581W        W25445  11.314  20.466  25.280  0.1897  0.0819  0.2355
24582W        W25446   9.603  16.512  16.945 -0.2339  0.0659  0.0773
24583W        W25447  10.448  28.437  16.049 -0.1379  0.0516  0.1350
24584W        W25448   9.744   1.997   1.154 -0.0055 -0.3102 -0.1392
24585W        W25449  25.284  28.465  18.962 -0.2211 -0.0549  0.0785
24586W        W25450   4.382  22.917   6.547 -0.0991 -0.2498  0.1998
24587W        W25451   4.723   4.876   0.545 -0.3306  0.0170 -0.0787
24588W        W25452   3.749  13.738  13.828  0.1872 -0.2703 -0.0090
24589W        W25453  14.216  12.238   5.067 -0.2108 -0.1311 -0.1119
24590W        W25454  16.068  22.999  14.846  0.0456  0.1359 -0.0855
24591W        W25455  10.502   8.380  14.628 -0.0081 -0.0905  0.2228
24592W        W25456   0.241  28.033   2.085  0.0346 -0.0843 -0.0375
24593W        W25457  15.572   1.566   2.314 -0.1147  0.0776  0.1702
24594W        W25458   5.351  19.342  26.732 -0.0164 -0.1789  0.2701
24595W        W25459  22.206  28.215  21.195  0.2340 -0.1069 -0.0607
24596W        W25460   6.186   8.089  21.112 -0.1875  0.1861 -0.1320
24597W        W25461   5.633   6.730  15.408 -0.1931 -0.4612 -0.0733
24598W        W25462  13.177  26.988  16.707  0.1738  0.1317  0.1820
24599W        W25463  22.469   5.007  22.857  0.0101  0.1406 -0.0202
24600W        W25464  18.616  14.272  13.951 -0.0391  0.1703  0.1103
24601W        W25465  21.491  28.369   2.501  0.1525 -0.0869  0.3521
24602W        W25466  15.073  25.744   5.458  0.2337 -0.2802  0.1724
24603W        W25467  18.972  16.361  17.093  0.1487  0.0563  0.1694
24604W        W25468   4.727  28.949   2.430 -0.0946 -0.2995  0.2908
24605W        W25469  24.750   5.654  13.608 -0.1694  0.0663 -0.0994
24606W        W25470  11.554  29.056  18.758 -0.0863  0.0220 -0.0422
24607W        W25471  16.406  26.496   2.551 -0.1377 -0.0348 -0.0702
24608W        W25472   5.805  16.398   9.962  0.1773  0.3117 -0.0887
24609W        W25473  14.315  25.956  25.321 -0.0853 -0.1375  0.2023
24610W        W25474   3.729  16.347  12.811  0.0458 -0.1444 -0.0341
24611W        W25475   4.512  26.703   0.074 -0.2765  0.2043  0.1575
24612W        W25476   6.781   1.100   0.161  0.0363  0.0662  0.0733
24613W        W25477  13.541  11.142  18.003 -0.0731 -0.0252 -0.1885
24614W        W25478  15.549  15.884  23.993 -0.3831  0.0871  0.1874
24615W        W25479  16.578  17.649  11.237 -0.2928  0.0631 -0.1739
24616W        W25480  13.739   8.518   5.849  0.2285 -0.1802  0.2906
24617W        W25481   7.794  26.995  18.943  0.0920 -0.1908 -0.0960
24618W        W25482  22.042  21.112   6.042 -0.0137 -0.0239  0.1798
24619W        W25483  23.625  28.987   4.210 -0.1908 -0.3808  0.1796
24620W        W25484   0.493  23.391  25.443  0.1573  0.3280 -0.1051
24621W        W25485  22.144  25.464  23.198  0.0900  0.0700  0.0933
24622W        W25486  22.919   0.611   4.806  0.2679 -0.2716 -0.0750
24623W        W25487  19.624  22.558  29.024  0.0943  0.3298  0.1153
24624W        W25488   6.418  21.948  19.467 -0.0134 -0.2561  0.0092
24625W        W25489  26.977   8.650  10.286  0.0798  0.1719 -0.0804
24626W        W25490  26.969  13.535   4.336 -0.0790 -0.2358 -0.3501
24627W        W25491  19.872  28.654   2.558  0.1159  0.1660 -0.1576
24628W        W25492   0.037  10.022  28.499  0.0760  0.2472 -0.1716
24629W        W25493  15.578  22.344   7.370 -0.0968  0.1658 -0.2145
24630W        W25494   0.351   1.685  21.901  0.0685  0.0083 -0.2340
24631W        W25495   4.322   5.762  28.251  0.0796 -0.1191 -0.2323
24632W        W25496  26.336  19.817   0.302 -0.0669 -0.1593 -0.0303
24633W        W25497  12.999  10.733   6.961 -0.1674 -0.1987 -0.0618
24634W        W25498   2.202  25.285   0.804 -0.0049 -0.1158 -0.3814
24635W        W25499  11.415   3.319  23.383 -0.1883 -0.3600 -0.1139
24636W        W25500  24.929   3.425  11.661 -0.3397 -0.0696 -0.0384
24637W        W25501   9.623  19.212  14.038  0.0813  0.0117  0.2870
24638W        W25502  17.418  16.919  13.788  0.0900  0.0055 -0.0914
24639W        W25503  20.221   2.012   6.287 -0.2183  0.0137 -0.2146
24640W        W25504  25.280  27.908  27.657  0.1452  0.1006  0.1896
24641W        W25505   6.049  15.007  23.135 -0.1179  0.1245 -0.1004
24642W        W25506  20.701  21.142  18.854 -0.0311 -0.1974  0.0328
24643W        W25507  14.947   9.635  25.349 -0.3647  0.3089  0.0768
24644W        W25508   0.139  22.978   1.512 -0.1129 -0.2281  0.0073
24645W        W25509   8.618   0.396  27.872 -0.0640  0.0722 -0.0993
24646W        W25510  12.312   8.882  26.970 -0.0216  0.0739  0.6392
24647W        W25511  16.086  21.649   9.046  0.1390 -0.1843  0.3434
24648W        W25512  15.362  26.839  28.088 -0.1761 -0.0321 -0.0415
24649W        W25513  14.560  21.324  18.966 -0.1649 -0.1121 -0.0115
24650W        W25514  11.857  27.125   3.128  0.0476 -0.0659 -0.2631
24651W        W25515  22.529   6.557  14.972  0.0758  0.0505  0.0095
24652W        W25516   9.286  23.268   6.063 -0.0918 -0.1006 -0.1065
24653W        W25517   8.578   6.206  11.728  0.0095  0.3062 -0.3305
24654W        W25518  21.137  26.883   2.459 -0.1556  0.0775  0.2891
24655W        W25519   9.369  17.991   5.700  0.1831 -0.1396 -0.0556
24656W        W25520   8.601  13.876   9.982 -0.0741  0.1084  0.2001
24657W        W25521  17.698  19.628  20.629 -0.1364  0.2824 -0.0029
24658W        W25522  10.175   1.711  28.501 -0.0127 -0.0070  0.0857
24659W        W25523  21.652  25.089  17.985 -0.0366 -0.6081  0.0127
24660W        W25524  12.596  18.939  15.679  0.0352  0.1706 -0.0071
24661W        W25525  11.784   3.002  12.297  0.0552 -0.0975  0.1931
24662W        W25526  12.950  17.326  14.531 -0.4425 -0.0868 -0.0775
24663W        W25527  16.375  20.646   2.253 -0.0815 -0.1797 -0.0673
24664W        W25528  20.393  19.461   2.703  0.2234  0.0745  0.1744
24665W        W25529  12.379  16.035  25.235  0.1842 -0.2387 -0.0366
24666W        W25530   6.401  26.880  27.548  0.0371  0.2771 -0.0501
24667W        W25531   3.837   9.505   5.320  0.0632  0.0733 -0.0170
24668W        W25532  18.176  20.970  25.822 -0.1600 -0.0867  0.0421
24669W        W25533  26.257  18.826  18.808 -0.0909  0.1410  0.6342
24670W        W25534  14.591   6.719  23.744  0.2596  0.0864  0.1779
24671W        W25535   3.881  20.174  13.474 -0.0288  0.0191 -0.2483
24672W        W25536  21.436  23.257   3.712 -0.0458  0.1447 -0.2770
24673W        W25537  21.878  21.380   1.380  0.4506  0.0275 -0.5530
24674W        W25538  27.147  10.310   1.373 -0.0934 -0.2279 -0.0030
24675W        W25539  15.267   8.993  18.532 -0.1315  0.0732  0.0822
24676W        W25540  11.515  17.262  25.321  0.4124  0.2021  0.0186
24677W        W25541  14.047  16.303  13.101 -0.2272  0.2723 -0.0952
24678W        W25542   5.155   6.391  16.180  0.0775  0.2359  0.3058
24679W        W25543  22.284   6.536  11.486  0.3189 -0.1454  0.1991
24680W        W25544  26.339  18.888  24.160  0.0355 -0.1948  0.1795
24681W        W25545  24.288  23.494   0.174  0.0817  0.2916 -0.0140
24682W        W25546  14.802  15.271   8.596  0.2359 -0.2968 -0.2653
24683W        W25547   1.741   4.596  14.727  0.1979 -0.1175  0.1124
24684W        W25548  25.081  15.958  23.894  0.2611  0.0757  0.0917
24685W        W25549  20.678  24.322   9.494 -0.2095  0.1491  0.0378
24686W        W25550   1.735   1.038  23.309  0.0151 -0.0715  0.0553
24687W        W25551   7.576  27.246   2.469  0.0560  0.1072  0.1043
24688W        W25552   7.960   5.629   0.863  0.0372  0.1508  0.2764
24689W        W25553  12.074  29.052  28.555 -0.0725 -0.0168  0.0940
24690W        W25554  21.823  17.606  25.342 -0.1851 -0.1952  0.0504
24691W        W25555   2.899   3.869   7.740 -0.5253 -0.0174  0.2139
24692W        W25556   9.792  11.185   4.550  0.1194  0.0548 -0.1309
24693W        W25557  25.892   9.977  22.476 -0.2566  0.2292  0.1531
24694W        W25558  17.721  21.914   7.641 -0.1831  0.4050  0.3703
24695W        W25559  15.753  20.936  19.901  0.1398  0.1684  0.3912
24696W        W25560  26.785  21.132  28.411 -0.0329 -0.0260  0.1037
24697W        W25561  14.192  16.854   2.980  0.2050  0.1236 -0.1402
24698W        W25562  16.269   1.311   0.694  0.1431 -0.1818 -0.2635
24699W        W25563   4.003   4.674  11.278 -0.1167  0.1442  0.1479
24700W        W25564  17.775  24.694  22.769  0.1125 -0.1107 -0.1567
24701W        W25565  11.375   2.811  17.091 -0.0548  0.0782  0.0028
24702W        W25566   1.733   1.446  15.519 -0.0227 -0.5622  0.1445
24703W        W25567  10.071  24.973   7.827  0.1032  0.2853 -0.0192
24704W        W25568  17.649  25.108  17.646  0.4698 -0.0432  0.0637
24705W        W25569  11.086  23.484   9.369  0.1220  0.0786 -0.1618
24706W        W25570  20.142  19.708  27.195 -0.2441 -0.0310 -0.0126
24707W        W25571  23.775   9.854  17.068  0.0818  0.3860  0.2212
24708W        W25572  19.800   2.344   6.160 -0.0846  0.1318  0.1397
24709W        W25573  23.392  24.425   0.496 -0.3741 -0.0173  0.1975
24710W        W25574   7.085   1.171   2.266  0.0313 -0.3329 -0.1450
24711W        W25575   7.145  12.656  21.344 -0.2534 -0.0953 -0.1863
24712W        W25576  16.062   1.849  24.886 -0.0861  0.2121 -0.1454
24713W        W25577  15.086  28.845  20.590  0.0903  0.1020  0.0724
24714W        W25578  18.923   0.289   6.158  0.0862 -0.0435  0.0657
24715W        W25579  13.175  14.706  24.553 -0.3869  0.0487  0.2298
24716W        W25580  14.677  29.105   9.901  0.1005 -0.1877 -0.0666
24717W        W25581  17.814   2.430  14.069  0.0090 -0.2696  0.1024
24718W        W25582   4.935   5.987  24.843  0.0320  0.1220 -0.1880
24719W        W25583   8.541  23.640   3.357  0.0029  0.2413  0.1094
24720W        W25584   7.718  26.932  15.127 -0.1686  0.0056  0.0622
24721W        W25585   5.779  22.432   8.555  0.0589  0.1000 -0.0439
24722W        W25586  13.400  26.129  25.334  0.0761  0.0479  0.0828
24723W        W25587   9.651  27.043  19.189 -0.1364 -0.1129  0.0754
24724W        W25588  21.339  19.311  23.006 -0.2648 -0.1234 -0.2890
24725W        W25589  12.955  28.643   0.045 -0.1576 -0.2980  0.0326
24726W        W25590  22.052  17.816  22.020 -0.0532  0.3345  0.2753
24727W        W25591  22.702  19.339   7.766  0.2664  0.2028 -0.1357
24728W        W25592   4.060  19.718   4.030  0.0414 -0.0027 -0.1253
24729W        W25593  18.989  22.089  23.699 -0.0761 -0.3011 -0.2849
24730W        W25594  10.057   1.547  25.279 -0.2625 -0.3099  0.1647
24731W        W25595   8.740  10.789  23.026 -0.1146 -0.1885  0.1745
24732W        W25596  14.030  27.379  12.793 -0.2389  0.0468 -0.2185
24733W        W25597  16.430   6.746  12.483  0.2232  0.4237  0.5114
24734W        W25598  17.075  13.741   6.207  0.1047 -0.1443 -0.2238
24735W        W25599   2.778  22.918   9.935  0.2461  0.2323  0.1321
24736W        W25600   9.866  12.633   3.780 -0.0737 -0.0403  0.0353
24737W        W25601  14.103  10.720   7.125  0.0982  0.2579  0.3098
24738W        W25602  12.533   3.245  25.352 -0.0970 -0.2443  0.1929
24739W        W25603  16.778  13.079  25.043 -0.2245  0.1739 -0.0189
24740W        W25604  15.202  28.299  23.009  0.0133  0.2087 -0.2021
24741W        W25605  10.949  19.039  12.612 -0.3381 -0.1946  0.0240
24742W        W25606  11.653  22.207  27.108  0.1394 -0.1303  0.0808
24743W        W25607  14.807   5.670   1.863 -0.0154  0.1239 -0.1557
24744W        W25608  14.483  19.982  23.303 -0.2869 -0.0148  0.1571
24745W        W25609  29.103   7.698  20.753 -0.0252 -0.0932 -0.1594
24746W        W25610  20.389  28.284  25.463 -0.0943  0.0282  0.0123
24747W        W25611  23.571  17.770  20.235  0.0712  0.0778 -0.0450
24748W        W25612   4.797  28.533  25.532  0.0110 -0.0858 -0.2500
24749W        W25613  14.298   2.193   6.165 -0.0835  0.3430  0.1421
24750W        W25614  10.866   2.131  23.734 -0.1205  0.0139  0.0448
24751W        W25615  17.607  16.988   8.006  0.4500  0.2574  0.4409
24752W        W25616  23.535  21.062  27.126  0.1927 -0.0832 -0.0408
24753W        W25617  23.929   4.671  26.362 -0.2126 -0.0010  0.0129
24754W        W25618   5.574  16.929   9.849  0.0354  0.1088 -0.0179
24755W        W25619  13.110   6.837  25.819  0.1239  0.4792 -0.1761
24756W        W25620  13.963  13.527  22.416 -0.0830 -0.0427 -0.1455
24757W        W25621  12.508  26.298  21.752 -0.1410 -0.5583 -0.2523
24758W        W25622  29.000  12.385  28.326  0.2285 -0.3072 -0.0643
24759W        W25623  23.069  10.374   1.395  0.1771  0.1373  0.0383
24760W        W25624   8.759  15.875  15.632 -0.0387 -0.0161  0.3394
24761W        W25625   6.184   7.768   0.796 -0.0383  0.0815  0.0314
24762W        W25626  19.896  26.414  20.926 -0.3801 -0.1701 -0.1977
24763W        W25627  12.113  27.524  13.862  0.2426  0.1515  0.2000
24764W        W25628  26.259  10.510  25.116 -0.2337  0.0166 -0.0166
24765W        W25629  15.075   3.599   4.359  0.0184  0.1385  0.0088
24766W        W25630   6.282  13.062  21.089  0.0545  0.0787 -0.3638
24767W        W25631   7.409  10.954  12.143  0.0760  0.0752 -0.2505
24768W        W25632  19.838  16.136   9.817 -0.0841  0.0207 -0.1160
24769W        W25633  18.343   8.025  14.057 -0.1209 -0.0938 -0.1136
24770W        W25634   2.207  14.019   2.406 -0.2048 -0.1360  0.1633
24771W        W25635  11.071  10.974  18.350 -0.0154  0.2684  0.1270
24772W        W25636  15.716  17.093  26.319 -0.0781 -0.1705 -0.0755
24773W        W25637  28.587  15.136   1.762 -0.1705 -0.2378 -0.1653
24774W        W25638  27.207   1.737   1.896 -0.1219 -0.4730  0.1096
24775W        W25639  15.997  11.511  19.782  0.1141 -0.1695  0.1739
24776W        W25640  20.095  28.482  24.041  0.0838  0.0657 -0.0899
24777W        W25641  23.777  10.810   1.857  0.0747  0.1405 -0.0189
24778W        W25642  18.267  28.607  14.304  0.0455  0.0481  0.1044
24779W        W25643  15.810  21.890  21.218 -0.1524  0.3524 -0.0990
24780W        W25644  23.550   4.887  11.819 -0.2159 -0.0507  0.2629
24781W        W25645  14.953   0.439  23.564  0.1003 -0.1839  0.0480
24782W        W25646   0.949   6.953  17.084 -0.2035 -0.3687  0.0658
24783W        W25647  15.588  11.451   5.197  0.1086 -0.0254 -0.0978
24784W        W25648  16.674  26.653  14.283 -0.0688  0.1499 -0.0268
24785W        W25649  19.628  25.718  28.532 -0.5480  0.3366  0.1063
24786W        W25650   7.098  25.715  26.294 -0.3336  0.1186 -0.1845
24787W        W25651  22.251  20.523  14.372  0.0556  0.1126  0.1083
24788W        W25652  13.937  24.509  27.080 -0.2045  0.1530  0.1512
24789W        W25653  29.052  26.250  25.853  0.3675  0.1435 -0.0243
24790W        W25654  16.028  22.124  26.063  0.0341  0.2334  0.1468
24791W        W25655  11.603  16.742   9.580 -0.1669  0.0548  0.0009
24792W        W25656   9.498  25.596   1.710 -0.1110 -0.2130 -0.0550
24793W        W25657  19.961  25.484  24.292  0.1695  0.1167  0.2697
24794W        W25658   5.668   5.759   3.186 -0.1911  0.0168 -0.3608
24795W        W25659  11.194   0.152  14.263  0.1555  0.1108  0.0701
24796W        W25660  10.576  22.950  27.558 -0.0715 -0.0474 -0.0628
24797W        W25661   2.955   7.141  26.187 -0.0830 -0.0942 -0.0474
24798W        W25662   9.269   5.283   0.940  0.0066 -0.2514 -0.0576
24799W        W25663  18.077   3.452  10.452 -0.1706 -0.1452  0.4504
24800W        W25664   4.828   1.007   1.360  0.1420 -0.2107 -0.0314
24801W        W25665  16.507   4.354  21.288  0.1476  0.1233  0.0999
24802W        W25666  15.575  27.792   9.383 -0.0513  0.0578 -0.0701
24803W        W25667   1.060  11.475   4.096  0.0228 -0.0768  0.2424
24804W        W25668   8.323   1.717   4.140  0.2671  0.1889  0.0258
24805W        W25669  24.493  16.641  21.228  0.0455 -0.0141  0.0259
24806W        W25670  12.376  14.201  24.055 -0.0910  0.0425 -0.0633
24807W        W25671  14.674  16.854  27.466  0.0089  0.0209 -0.0043
24808W        W25672   0.338  14.505   5.078 -0.1403 -0.0642  0.0562
24809W        W25673   5.782  23.655  20.041 -0.0863  0.0950  0.2611
24810W        W25674  11.980  23.959  14.028  0.1317  0.3054 -0.1393
24811W        W25675   7.364  24.866  27.666 -0.0119  0.0081 -0.1028
24812W        W25676   8.842  25.360  22.526 -0.2913  0.1456 -0.0237
24813W        W25677  19.260  22.747  28.136 -0.0961  0.2873  0.1465
24814W        W25678  20.818   1.268   0.608 -0.3682  0.2896  0.3424
24815W        W25679  23.901   4.911  25.500 -0.2123 -0.2111  0.2633
24816W        W25680  25.715  22.039  24.190  0.3102  0.2298 -0.3314
24817W        W25681  24.590  26.672  12.285 -0.2682  0.4376  0.3242
24818W        W25682  27.213  28.208  13.993  0.2035  0.2087 -0.2455
24819W        W25683  28.357  20.581   4.032  0.3834  0.0111 -0.0462
24820W        W25684  18.226   6.351   8.752 -0.0405 -0.0660  0.1220
24821W        W25685  15.200   5.105  10.238 -0.0857 -0.1361 -0.0559
24822W        W25686   3.226  24.133   2.954 -0.1832 -0.3169 -0.3052
24823W        W25687  16.639  23.693  22.795 -0.1788  0.4935  0.0817
24824W        W25688  23.123   9.655  14.976 -0.0573 -0.2705  0.2588
24825W        W25689  22.641   0.478  17.886  0.2712  0.1032 -0.0269
24826W        W25690  20.057  10.955   6.751 -0.1884 -0.6799 -0.0677
24827W        W25691  10.038  24.446   9.818  0.0226  0.2486 -0.0345
24828W        W25692  15.080   1.132  21.187  0.2620 -0.0086 -0.3075
24829W        W25693   5.256  19.456  25.081  0.1718  0.0197 -0.1385
24830W        W25694  26.199  15.380  21.145  0.0064  0.1551  0.6902
24831W        W25695  19.677  11.589  18.781  0.2018  0.1077 -0.3237
24832W        W25696  13.854  11.129  20.389 -0.0743 -0.0860 -0.1715
24833W        W25697   1.572   3.837   8.467  0.0833  0.0639  0.3869
24834W        W25698   4.647  16.665   9.032 -0.1309 -0.1302  0.1109
24835W        W25699  10.492   7.226   0.475  0.0590  0.0546 -0.2902
24836W        W25700   5.185  19.039  20.399 -0.2532 -0.1010  0.0459
24837W        W25701  13.274  12.515  26.619  0.0537 -0.0589  0.0813
24838W        W25702  28.341  25.515  29.019  0.1272 -0.2705 -0.0037
24839W        W25703  20.659   7.515  11.122 -0.0773  0.2669  0.3577
24840W        W25704   6.165  14.348  28.610  0.3035 -0.0236  0.0297
24841W        W25705   8.049  19.174  12.543  0.0674 -0.0729 -0.0908
24842W        W25706  12.971  21.980  23.903 -0.1147  0.0903  0.2378
24843W        W25707  19.125   8.985  25.687  0.1915  0.1886 -0.0872
24844W        W25708  24.771  27.108  25.581  0.0767  0.1922  0.1758
24845W        W25709  25.116   1.650   8.587 -0.0768  0.0520 -0.0056
24846W        W25710  12.481  14.716  13.070  0.1961  0.3874 -0.2645
24847W        W25711  20.482   8.753  28.136 -0.0431 -0.0779  0.1089
24848W        W25712   7.126   3.660  26.188 -0.2359 -0.2467 -0.3673
24849W        W25713  25.317   5.034   3.970  0.1384 -0.1762 -0.1445
24850W        W25714   8.332   5.579  22.857  0.0685  0.2068 -0.0087
24851W        W25715  13.693  27.415  28.830  0.1572  0.2404  0.0347
24852W        W25716  12.069   0.365   0.420  0.1880  0.0794 -0.1394
24853W        W25717  22.733  23.700   4.460 -0.2374  0.0167 -0.2706
24854W        W25718  13.054  11.736  22.184  0.0581  0.3877  0.2405
24855W        W25719   8.156  17.290   3.554  0.0317  0.1920 -0.1928
24856W        W25720   0.553  19.129  19.715  0.1376 -0.0420 -0.0875
24857W        W25721   5.173  22.210   1.204 -0.0621 -0.0695  0.0270
24858W        W25722  23.595  16.678   3.124 -0.1480  0.2919 -0.1853
24859W        W25723   9.105  28.887   5.097 -0.0322 -0.3722 -0.2113
24860W        W25724  13.561  28.164  23.513  0.0215 -0.0167 -0.1954
24861W        W25725   9.649  27.208   3.664  0.3455 -0.0988 -0.1767
24862W        W25726  12.820  16.969  19.126 -0.0349 -0.1025 -0.1897
24863W        W25727  15.779  26.649  23.856 -0.0626 -0.0005 -0.1931
24864W        W25728   0.657  27.975   0.410 -0.0323 -0.3501 -0.3018
24865W        W25729  25.344  10.117  28.671 -0.0724 -0.0157 -0.2168
24866W        W25730  15.775  10.011   0.123 -0.2386  0.0004  0.2301
24867W        W25731   3.477  27.497  26.172 -0.0659 -0.0606 -0.1023
24868W        W25732  23.761  25.664  25.734  0.0130 -0.2878  0.3385
24869W        W25733  20.921  27.538   2.002 -0.0154  0.0576  0.0086
24870W        W25734  21.545  25.106  27.217 -0.1867  0.1951 -0.0173
24871W        W25735  19.593  25.677   9.686  0.0929  0.1107  0.0256
24872W        W25736  15.900   1.823   7.231 -0.0824 -0.0688  0.0698
24873W        W25737  11.376  13.665  19.175 -0.2676 -0.0483  0.1490
24874W        W25738  26.073  20.047  25.197 -0.0162 -0.2178 -0.2112
24875W        W25739  18.444   1.553  15.571 -0.1475  0.0710 -0.3808
24876W        W25740   0.937  28.916  22.590  0.2935  0.2063  0.0337
24877W        W25741  15.674  15.157  22.184 -0.1017 -0.4716 -0.1667
24878W        W25742  15.713  26.017   4.251  0.0236 -0.1610  0.1164
24879W        W25743  17.983  29.090   7.641 -0.1140 -0.0223 -0.1687
24880W        W25744  13.374  21.363   9.022  0.0778 -0.0324 -0.0339
24881W        W25745  27.908  18.826   8.679 -0.1355 -0.2861 -0.0699
24882W        W25746  10.135  10.376  22.565 -0.4591  0.1982 -0.0964
24883W        W25747  17.296  24.247  15.213 -0.1015  0.2500 -0.0731
24884W        W25748  12.735  18.072   5.012 -0.1683 -0.1653  0.1460
24885W        W25749  25.628   7.765   9.074 -0.1154  0.0057 -0.0536
24886W        W25750   3.107  27.988  24.703 -0.1007  0.4300  0.0826
24887W        W25751  12.822  25.208  26.865  0.0006 -0.1628 -0.2035
24888W        W25752  20.557  28.905  20.470 -0.2407 -0.0349 -0.1057
24889W        W25753  13.167  15.207  25.436 -0.0656  0.3553  0.1330
24890W        W25754  11.272   4.070  26.826 -0.0282 -0.2250  0.0687
24891W        W25755  21.278  25.624  12.418 -0.2778  0.2697  0.1213
24892W        W25756  10.568  13.143  22.857  0.2394 -0.0223 -0.0878
24893W        W25757  11.493  16.617   7.176  0.0886  0.1964  0.1892
24894W        W25758   8.054  25.319  19.536  0.5036 -0.0227  0.0514
24895W        W25759  22.280   2.902  17.629 -0.1437  0.1206  0.2881
24896W        W25760   3.724  21.296   2.074 -0.2809 -0.0022 -0.2671
24897W        W25761   2.988  27.186  23.513  0.1351  0.0954  0.0871
24898W        W25762  15.726   4.147  25.411  0.0503 -0.0448  0.2558
24899W        W25763  19.008  18.066   6.238  0.2183 -0.2418 -0.0806
24900W        W25764  13.390  11.117  26.485 -0.0956 -0.3866  0.0048
24901W        W25765   6.761  19.371  23.350 -0.1592 -0.0695  0.1833
24902W        W25766  21.733   7.563   3.191 -0.1595  0.0030  0.0212
24903W        W25767  11.007  22.187   8.005  0.0410 -0.2053  0.0412
24904W        W25768  14.944   5.927   5.396  0.0737 -0.0337 -0.0399
24905W        W25769  22.610   2.795   8.868 -0.1479  0.2830  0.2161
24906W        W25770  21.983  24.949  28.110 -0.1142  0.2341  0.2668
24907W        W25771   8.780  24.333   5.025  0.1529 -0.1700 -0.0152
24908W        W25772  11.080   9.177   8.167 -0.0367  0.2041 -0.0729
24909W        W25773  15.738   3.998  11.520 -0.1960 -0.2415 -0.2126
24910W        W25774  22.901  25.958   4.510  0.3485 -0.0101 -0.1838
24911W        W25775  23.491  12.198   4.104 -0.0060  0.1532  0.0294
24912W        W25776   1.777  27.259  28.512 -0.1587 -0.1590  0.1609
24913W        W25777   0.538  24.815  10.326  0.2235  0.0419  0.1194
24914W        W25778   4.941   7.254   4.548  0.0131 -0.3184 -0.1144
24915W        W25779  11.478  28.817   0.199  0.1644  0.1227 -0.0130
24916W        W25780   3.721   5.123   3.114 -0.0300 -0.0403  0.1620
24917W        W25781   6.644   3.659   7.465 -0.2441  0.0290 -0.0391
24918W        W25782   7.702  26.582  16.858 -0.2012 -0.0413 -0.1657
24919W        W25783   2.001   3.348  26.562 -0.0648 -0.0984  0.1685
24920W        W25784  26.005   5.199   3.102 -0.0768 -0.2287 -0.0152
24921W        W25785  19.112  24.344  11.385  0.1663 -0.1918  0.0413
24922W        W25786  23.449  23.050  16.996  0.0644 -0.4410 -0.0284
24923W        W25787   2.761   5.486  25.957  0.0404  0.0466  0.1513
24924W        W25788   5.210   4.225   7.836 -0.1660  0.0891 -0.4117
24925W        W25789   0.052   2.166   3.942  0.0286  0.2033  0.1875
24926W        W25790  24.804  10.032   0.043 -0.2059  0.0278  0.1793
24927W        W25791  25.966  24.360  21.549  0.2402 -0.0613  0.0300
24928W        W25792  12.110  14.315  24.478 -0.2415  0.0905 -0.0007
24929W        W25793  16.908  19.492  20.941  0.0981  0.2669 -0.0787
24930W        W25794  19.227  26.696   6.805 -0.0368 -0.0601 -0.1175
24931W        W25795   9.577  26.232  24.105 -0.3521  0.0229  0.2924
24932W        W25796  26.007  29.120   8.923 -0.4840  0.0204 -0.1926
24933W        W25797   8.250   7.410   3.055 -0.0366 -0.0110 -0.0779
24934W        W25798  24.130  19.407   3.101 -0.0525  0.0102  0.2257
24935W        W25799   1.418  15.803  28.190  0.0468 -0.1430 -0.2776
24936W        W25800  16.035   9.684   8.571  0.1767  0.5094 -0.0085
24937W        W25801   6.736   7.930   1.007  0.1541  0.0424 -0.0405
24938W        W25802  18.499  11.117   6.035 -0.0979 -0.2017  0.2964
24939W        W25803  24.991   8.095  26.088  0.0830 -0.0578 -0.1214
24940W        W25804  16.844  15.245   1.040 -0.0348  0.1854  0.0019
24941W        W25805  23.368   0.302  12.741  0.2135  0.2144  0.1161
24942W        W25806  17.673  15.940   7.635  0.0380  0.1035  0.2073
24943W        W25807  23.802  22.911   4.749  0.0956 -0.0537  0.2750
24944W        W25808  18.055   8.825  13.678  0.0812 -0.0750 -0.4562
24945W        W25809  11.657  27.544  27.484 -0.4288 -0.0789  0.1284
24946W        W25810  17.588   0.747  14.684 -0.0501  0.1877  0.0632
24947W        W25811   9.693   6.346   7.771  0.0438 -0.1359  0.0933
24948W        W25812  25.816  24.779  17.142 -0.0323 -0.2312  0.0915
24949W        W25813  25.186  20.782  12.788 -0.1499  0.0169  0.0238
24950W        W25814  27.803  26.056  28.736 -0.0346  0.3373  0.2103
24951W        W25815   8.524  14.567  25.035 -0.0081  0.1802 -0.1866
24952W        W25816  28.564  23.957  20.834  0.3260 -0.1215 -0.0158
24953W        W25817  12.994  10.950   1.786  0.1168  0.4098 -0.1197
24954W        W25818   5.435  19.088  23.925 -0.2329  0.0617  0.0971
24955W        W25819  20.968  25.254  23.267 -0.2887 -0.0132  0.1090
24956W        W25820  21.658  21.287   5.130  0.2331 -0.1587 -0.2398
24957W        W25821  15.341   9.069   1.183 -0.2048 -0.1840 -0.0750
24958W        W25822   8.215  20.155  21.242 -0.3939 -0.1772 -0.3822
24959W        W25823  27.009  10.135   8.543  0.1153 -0.1091 -0.0094
24960W        W25824  12.456  25.000  26.502 -0.0266  0.0198 -0.1323
24961W        W25825  22.065   5.043  24.568  0.0198  0.0383  0.0113
24962W        W25826   9.430   7.766   7.156  0.2198  0.3430  0.2659
24963W        W25827  20.206   4.909  13.790  0.2579 -0.0004  0.1057
24964W        W25828  13.542  16.753  16.395  0.3361  0.4420 -0.0517
24965W        W25829   8.834  16.616   4.522 -0.1121 -0.1400  0.3125
24966W        W25830  15.693   0.492   3.435 -0.2167 -0.0713 -0.0924
24967W        W25831   0.914  23.482   5.012  0.0283 -0.1655  0.2265
24968W        W25832   4.380   9.076  11.310 -0.1394  0.0818 -0.1726
24969W        W25833  15.113   4.730   7.558  0.4118  0.0745  0.0444
24970W        W25834  16.283   3.889   7.729  0.1327 -0.3785 -0.0759
24971W        W25835  11.296   0.576   6.290  0.0702 -0.0898  0.0524
24972W        W25836  10.218  22.111  25.080  0.0808  0.2687  0.2304
24973W        W25837  27.378  17.974  17.717 -0.0113  0.1954  0.0876
24974W        W25838  16.623  27.956  18.717  0.1326 -0.4767 -0.1565
24975W        W25839  27.151  10.469  16.823 -0.1154  0.0144  0.0538
24976W        W25840  20.883  28.204   5.752  0.1050 -0.0795  0.0302
24977W        W25841   9.063   0.172  27.213  0.0600 -0.1503 -0.3215
24978W        W25842   9.979   5.672  16.074  0.0340 -0.2704  0.0858
24979W        W25843   8.716  24.755  12.095  0.0231 -0.2228 -0.1233
24980W        W25844  14.575  25.298  24.139  0.1788 -0.3665  0.1077
24981W        W25845  28.224  19.874   2.086 -0.2767 -0.2789 -0.0694
24982W        W25846  12.695   6.380   3.414 -0.2672  0.4459  0.0688
24983W        W25847  13.766  18.788  10.412  0.1605 -0.0929  0.4344
24984W        W25848  15.310  28.678  26.482  0.5331  0.1955 -0.3631
24985W        W25849  21.516   8.885   4.863 -0.3224 -0.0470 -0.2007
24986W        W25850  20.995  13.239  27.899  0.1396  0.0434 -0.0567
24987W        W25851  19.242  12.202   1.232 -0.0445  0.1035  0.0349
24988W        W25852  11.347  25.193   9.612 -0.1379 -0.0673  0.4698
24989W        W25853  14.295  17.479   6.648 -0.0790  0.4130 -0.1839
24990W        W25854  16.240  21.618   6.128 -0.0876 -0.1790  0.2110
24991W        W25855   3.719  23.971  14.225 -0.1946 -0.0306  0.1139
24992W        W25856  22.374   6.985   1.552 -0.2368  0.0595  0.2700
24993W        W25857   8.944   3.326  16.717  0.0225 -0.0822 -0.0942
24994W        W25858   3.129  24.704  13.646 -0.0182  0.1112  0.2900
24995W        W25859  13.350  21.858   1.288  0.1964  0.3005  0.0836
24996W        W25860  10.197  11.670  26.723  0.0411 -0.0760  0.1891
24997W        W25861  21.809  19.434  15.622 -0.0300  0.0551  0.4098
24998W        W25862  16.947   8.980  12.197 -0.0780 -0.1023 -0.0691
24999W        W25863   0.203  28.999   8.357 -0.1491 -0.3313  0.1492
25000W        W25864   0.654  26.961  10.420 -0.2331 -0.4241  0.1818
25001W        W25865  20.544  25.536   4.688  0.0861  0.0810  0.2317
25002W        W25866  26.150   5.113   7.137  0.0210 -0.4788 -0.0416
25003W        W25867   6.598  25.806   6.112  0.1993 -0.0492 -0.4336
25004W        W25868   5.941  23.569  12.247 -0.0716  0.1194 -0.0762
25005W        W25869   1.248  17.798  26.260 -0.3327 -0.0518  0.2571
25006W        W25870   8.216   1.554  21.589 -0.3163  0.1978 -0.2540
25007W        W25871   5.911  26.346   5.101 -0.1785 -0.0495 -0.1326
25008W        W25872  21.357  23.011   0.140 -0.0565 -0.1452 -0.0990
25009W        W25873  21.260  15.633   3.015  0.3200 -0.0143  0.0960
25010W        W25874  20.218  25.683   5.588  0.0214  0.0013 -0.0229
25011W        W25875   0.750   9.485   6.396  0.0779  0.0924 -0.2734
25012W        W25876  24.894  16.418   3.608 -0.0356  0.0532 -0.2976
25013W        W25877  25.068   5.838  14.017  0.1558 -0.1392 -0.2435
25014W        W25878  17.707   9.204   3.813 -0.2284 -0.1256 -0.1178
25015W        W25879  21.357  12.241  14.810  0.2269  0.1557  0.0791
25016W        W25880   2.799   3.636   2.892 -0.3940 -0.0517  0.2021
25017W        W25881  26.748  15.820  17.782 -0.0834  0.1725  0.0183
25018W        W25882  20.194  18.008   4.564  0.1225 -0.2546  0.1548
25019W        W25883  10.533  17.293  15.990  0.0407  0.0630  0.0676
25020W        W25884  16.620   2.914   2.165  0.3120 -0.2330 -0.1300
25021W        W25885   0.873  21.197   7.696 -0.0910  0.1479 -0.2201
25022W        W25886  21.282   5.519  18.645 -0.0439 -0.0253  0.2249
25023W        W25887  16.529   5.547  24.108 -0.0521  0.1630  0.1340
25024W        W25888  27.802   2.472  27.253 -0.2213 -0.0287  0.2157
25025W        W25889  14.126   7.959   5.963 -0.1269  0.1876  0.0761
25026W        W25890  25.478   0.977   0.344  0.0166 -0.1831 -0.0297
25027W        W25891  12.575  11.051  20.425 -0.0566  0.1111 -0.2665
25028W        W25892  17.053  23.478  25.314 -0.1980  0.0726 -0.1499
25029W        W25893  18.383  16.558   2.239  0.2512 -0.1319  0.0503
25030W        W25894  18.808  13.178  27.459  0.1517 -0.2423 -0.1925
25031W        W25895  23.388  19.388  11.406 -0.0212  0.0567  0.0432
25032W        W25896  27.191  11.008  14.943 -0.0716  0.0787 -0.1389
25033W        W25897   7.879   2.056  26.194  0.1411 -0.0518 -0.0496
25034W        W25898   2.411   4.040  11.270  0.2694  0.0781 -0.3148
25035W        W25899   8.702  28.905  24.085 -0.0948  0.2445  0.1641
25036W        W25900  17.232  19.370   2.630 -0.0882 -0.3597 -0.0079
25037W        W25901   5.886  25.258  12.714  0.0959 -0.0954  0.1351
25038W        W25902  13.243   6.734   3.357  0.0672  0.1056  0.2262
25039W        W25903   3.439  16.182  19.353 -0.2912 -0.2494  0.1871
25040W        W25904  22.192   9.550  22.905  0.0932  0.2064  0.0663
25041W        W25905  11.268  12.029  29.047 -0.0915 -0.1002  0.0375
25042W        W25906   6.859   5.181  18.490  0.1775 -0.1574  0.2472
25043W        W25907   6.294  10.979   9.839 -0.2266 -0.1059 -0.1755
25044W        W25908  18.943  13.502   6.564 -0.2989 -0.0514  0.3694
25045W        W25909   5.270  11.344  25.565  0.0231 -0.2311 -0.1582
25046W        W25910   3.024  11.047  10.007  0.0809 -0.2730  0.0345
25047W        W25911  28.477  26.068  26.934  0.2967 -0.1132  0.0413
25048W        W25912   4.941  10.865   2.254 -0.2173  0.2097 -0.1886
25049W        W25913  13.899  10.903  29.012 -0.0641  0.0102  0.0063
25050W        W25914   7.718  26.410   1.925  0.1144 -0.2127  0.0903
25051W        W25915  17.756  25.728   6.088 -0.1572  0.0036  0.1953
25052W        W25916   8.547  11.493   0.743 -0.2349  0.0965  0.0670
25053W        W25917  28.999  24.701  12.597  0.0219 -0.1086 -0.1196
25054W        W25918  28.983   4.839   0.768  0.0183  0.0197  0.5260
25055W        W25919  11.722   6.829  27.996 -0.0836  0.0340  0.2370
25056W        W25920  10.177   4.054   1.257 -0.1825  0.0255  0.1077
25057W        W25921   5.156  27.631  28.399 -0.3348  0.0681  0.2299
25058W        W25922  25.635   3.447  23.139 -0.0361  0.2079  0.2713
25059W        W25923  21.059  27.212   8.936 -0.1501  0.3068 -0.0925
25060W        W25924  21.495  26.937  29.094  0.2599 -0.0452 -0.0218
25061W        W25925   2.456  25.956   4.994  0.1302 -0.1097 -0.2530
25062W        W25926  23.668  15.215  10.119 -0.0406 -0.1520 -0.0347
25063W        W25927  10.237  28.754  27.434  0.1129 -0.0290 -0.1855
25064W        W25928   3.761  22.549  27.272  0.0683  0.4087  0.0512
25065W        W25929   2.974  24.037  28.611 -0.1439 -0.1051 -0.0231
25066W        W25930  20.611  27.312  18.953  0.1552  0.1675 -0.0652
25067W        W25931  25.414  21.634  26.867  0.0006 -0.0511  0.1381
25068W        W25932  17.687   8.290   5.935 -0.2384  0.5469  0.3333
25069W        W25933  10.338  24.121  22.580 -0.0708 -0.1931 -0.3641
25070W        W25934   6.089  18.971   4.327  0.2214  0.0533  0.0396
25071W        W25935  13.111  26.582  13.352  0.2225 -0.0006  0.2678
25072W        W25936  27.822   5.921   1.464  0.2437  0.2345  0.0202
25073W        W25937  11.339  14.021   6.871 -0.0904 -0.0630  0.1018
25074W        W25938  10.424   7.744   4.438 -0.1238  0.0388 -0.0070
25075W        W25939  21.666   5.254  11.216 -0.3998 -0.0913 -0.1709
25076W        W25940  12.960   1.600  13.581 -0.1895  0.0411 -0.0443
25077W        W25941  25.427   0.079  25.526  0.2798 -0.4075  0.1002
25078W        W25942  22.913  28.045  12.787 -0.1409 -0.1533  0.0509
25079W        W25943   4.308  23.174   0.379 -0.0716  0.0176  0.0417
25080W        W25944  11.615   4.606   7.771  0.1070 -0.2618 -0.0720
25081W        W25945  11.386  22.292  16.459  0.3202  0.1971 -0.2999
25082W        W25946  25.782  23.821  10.770 -0.0786 -0.1022 -0.1082
25083W        W25947  17.359  24.464  13.811  0.0592  0.1380  0.4559
25084W        W25948   8.256   3.956  26.239  0.2725  0.0575 -0.2043
25085W        W25949  10.342  18.176  23.367 -0.0567 -0.3670  0.2630
25086W        W25950  14.569  27.447  27.769 -0.1344 -0.1556 -0.0484
25087W        W25951  13.542  21.640  25.737 -0.0399  0.0817  0.0720
25088W        W25952  11.394  20.865  16.179  0.0866  0.1358 -0.0637
25089W        W25953  15.599  14.742  18.327 -0.1838 -0.1496 -0.0070
25090W        W25954  27.933  26.152  23.800 -0.1235 -0.0624  0.0098
25091W        W25955   8.197  19.626  28.909  0.3091 -0.0664  0.2146
25092W        W25956  14.616  29.011  23.587 -0.2580  0.1131  0.0406
25093W        W25957   6.279  20.157   7.434 -0.4071  0.1354  0.0683
25094W        W25958   7.307   8.252   3.140 -0.4561  0.2396  0.0235
25095W        W25959  17.816  26.939  24.817 -0.0615 -0.3103  0.1583
25096W        W25960  26.890  20.381   1.268  0.0184  0.0356 -0.1839
25097W        W25961  14.350  16.085  11.502  0.1107 -0.0302  0.0599
25098W        W25962  21.801  11.675  12.778 -0.2955  0.0529 -0.0918
25099W        W25963  23.625  21.889  25.902  0.0143  0.1703 -0.0678
25100W        W25964  19.290   7.984  13.747  0.1090 -0.0478  0.2783
25101W        W25965  10.190  27.843  27.239 -0.0761  0.1196 -0.0070
25102W        W25966   3.600  25.809  24.351  0.0115  0.2069 -0.3745
25103W        W25967   4.603  12.034  16.753  0.0248  0.0883  0.1636
25104W        W25968   8.959   0.347   8.062  0.2117 -0.2994 -0.1400
25105W        W25969  17.685  19.214   9.861  0.1474  0.2512 -0.1131
25106W        W25970  10.410  11.618  23.426 -0.0198  0.1723 -0.0173
25107W        W25971   7.214  22.874   2.797  0.0253 -0.3194  0.1022
25108W        W25972   7.280  28.076  12.694  0.1233 -0.0181 -0.0297
25109W        W25973   8.880  17.271  21.161 -0.1902  0.1990 -0.3225
25110W        W25974  10.003   4.175   9.281  0.2380  0.0725 -0.0495
25111W        W25975  11.087  18.659  26.848 -0.1542  0.2377  0.1799
25112W        W25976   1.865   1.617   3.762  0.0792  0.1142 -0.3698
25113W        W25977  16.016   1.525   5.638 -0.0483 -0.1223 -0.0671
25114W        W25978   1.975  24.738   5.729  0.1144  0.1696 -0.1730
25115W        W25979   1.274   4.966  10.327 -0.2219 -0.3297  0.1637
25116W        W25980  17.671   2.858  28.654  0.2277 -0.0880  0.1317
25117W        W25981  15.230   1.745   1.578  0.3173 -0.0368 -0.2070
25118W        W25982  20.895   7.418   5.945  0.0120 -0.0446 -0.0164
25119W        W25983   2.363  14.975   1.313 -0.1659  0.3945  0.2977
25120W        W25984  13.471  18.379   2.248 -0.0513 -0.1823  0.0250
25121W        W25985  29.021  14.422  15.471 -0.0310  0.1381 -0.0539
25122W        W25986  16.156   6.181  24.304 -0.0473 -0.0152  0.0066
25123W        W25987  12.709  10.601  12.728  0.2494  0.0209  0.0386
25124W        W25988  26.592   8.964  22.868 -0.1799 -0.0074  0.1476
25125W        W25989  21.915  20.830  11.553 -0.3176 -0.0812  0.3626
25126W        W25990  12.119  16.463   2.348  0.1455  0.2793  0.1639
25127W        W25991  14.569   1.309  16.135  0.1298  0.0032 -0.1498
25128W        W25992  21.638  14.673  14.654  0.0456 -0.1370 -0.0814
25129W        W25993  12.819   3.646  28.019  0.0826  0.0874  0.4287
25130W        W25994  13.966  22.379  12.697  0.0928 -0.3935  0.0767
25131W        W25995   0.655  15.650  23.365 -0.1995  0.3298  0.1253
25132W        W25996  10.908  17.354   0.897  0.0708  0.2282  0.3018
25133W        W25997   5.061  22.211  28.285  0.1147 -0.1861  0.1136
25134W        W25998  14.349  26.839   9.550 -0.1586 -0.1398  0.3007
25135W        W25999  17.548  11.185   1.925 -0.2211 -0.0366 -0.0321
25136W        W26000  12.763   1.313  26.575  0.0295  0.1112 -0.0538
25137W        W26001  12.084  22.345  24.332  0.2553  0.0757 -0.0141
25138W        W26002  25.273  29.046   1.158  0.0129 -0.0442  0.1516
25139W        W26003  16.933   2.167   8.411 -0.2615  0.3800  0.0385
25140W        W26004  23.838  28.410   0.955  0.1221 -0.2701  0.0684
25141W        W26005  18.342  12.412   5.809 -0.1162  0.0495  0.0793
25142W        W26006  20.650   8.484  29.059 -0.0639  0.0111 -0.2824
25143W        W26007  19.134  16.257  23.092 -0.0268  0.0508  0.1185
25144W        W26008   0.906   8.562  24.437 -0.0464 -0.0050 -0.1169
25145W        W26009  15.372   6.248   2.145 -0.2719  0.0294 -0.0748
25146W        W26010  17.541  14.359  10.207  0.2463 -0.1927  0.1222
25147W        W26011  18.256   5.512  21.623  0.2597  0.3275  0.0265
25148W        W26012  12.819  27.575  11.018 -0.0253 -0.0720  0.2069
25149W        W26013   1.146   8.469   3.397 -0.1051 -0.2515 -0.1657
25150W        W26014  22.449  17.550  22.196 -0.1503 -0.2571  0.0923
25151W        W26015  26.588   4.717   8.012  0.0221  0.2784  0.1732
25152W        W26016   4.428  22.283   5.006 -0.4432 -0.0940  0.0216
25153W        W26017  13.112  21.144   2.353  0.1415  0.0384  0.0811
25154W        W26018   2.914  20.289  11.037 -0.3384  0.0009  0.0722
25155W        W26019   7.576  21.101  27.712  0.1943  0.1851 -0.0826
25156W        W26020   9.411  28.302  26.129 -0.0619  0.1841  0.2670
25157W        W26021  25.263   5.042   5.199 -0.1128 -0.1910 -0.0341
25158W        W26022   9.259  26.636   2.181 -0.0268  0.0554  0.1622
25159W        W26023  24.352   3.685  12.302  0.2609  0.0992 -0.0385
25160W        W26024   4.744  17.832  12.920 -0.0550  0.0428  0.1787
25161W        W26025  10.744   9.039  11.997 -0.3437  0.0806 -0.0119
25162W        W26026   5.759  14.996  25.107  0.0653 -0.3383  0.3423
25163W        W26027   8.661  27.273  21.318  0.1145  0.0023  0.3008
25164W        W26028  28.181   5.779  26.300  0.1069 -0.0317 -0.5366
25165W        W26029   1.930  12.485   9.576 -0.0037  0.1853  0.1638
25166W        W26030   9.710  27.853  21.323  0.1501  0.0492  0.0971
25167W        W26031  16.525   0.380   1.587 -0.0288  0.2575 -0.1781
25168W        W26032  22.494  20.785  26.547 -0.2130  0.0770  0.1490
25169W        W26033   5.053  25.091   5.459 -0.1590  0.2276 -0.2292
25170W        W26034  19.881   6.538  22.461 -0.0802 -0.0494  0.1001
25171W        W26035   0.225  12.556  16.012  0.2408 -0.1436 -0.0909
25172W        W26036  15.990   2.588  24.404 -0.0955  0.0653 -0.0121
25173W        W26037   3.198  29.045  15.603  0.3072  0.0965  0.0893
25174W        W26038   9.446   2.847  10.637  0.0530  0.1711  0.0222
25175W        W26039   2.749   1.247   1.730  0.0580  0.2863 -0.0067
25176W        W26040  19.009   6.346   1.781 -0.0125 -0.1755  0.0532
25177W        W26041  20.817  28.895  15.525  0.0214  0.1502 -0.0888
25178W        W26042  20.637  26.850  27.095  0.0896  0.0825  0.2489
25179W        W26043  15.046  27.794  22.106  0.2721  0.0577 -0.1836
25180W        W26044  24.619  21.007   0.398  0.1732 -0.3960 -0.3047
25181W        W26045  26.032  11.088  13.137  0.0097 -0.0488 -0.2274
25182W        W26046   0.721  26.960  13.164  0.0896 -0.1360 -0.2582
25183W        W26047  17.247   6.585  28.962  0.0909  0.3031 -0.2671
25184W        W26048  28.393  26.017  28.216  0.0643  0.0214  0.2127
25185W        W26049  25.965  18.544   9.081  0.0956  0.1107 -0.0225
25186W        W26050  17.134   1.104   0.063 -0.0283  0.0777 -0.0297
25187W        W26051  21.606  26.247   3.313 -0.3468  0.2984 -0.2100
25188W        W26052  15.289  11.212  13.730  0.3679  0.0565 -0.1380
25189W        W26053  19.810  27.230   6.383  0.1100  0.5514 -0.0223
25190W        W26054  23.731  12.194  19.112  0.1014 -0.0582 -0.0169
25191W        W26055  14.202  23.557  22.029 -0.0974  0.0114  0.0438
25192W        W26056  26.415  26.432  16.180 -0.0726 -0.0038 -0.0742
25193W        W26057  14.300   6.187   6.401 -0.2685  0.2093 -0.0717
25194W        W26058   6.201   7.648  12.655  0.0320  0.0821  0.0914
25195W        W26059  19.093   3.544   0.891 -0.2139 -0.2573 -0.0846
25196W        W26060  19.421   4.228  25.842 -0.0253 -0.0197  0.0251
25197W        W26061  16.685  20.260  18.563 -0.0701 -0.0051  0.2084
25198W        W26062  23.216   5.837   3.836 -0.0457  0.3500  0.0659
25199W        W26063  17.513   8.457  14.914 -0.1474  0.1158 -0.2255
25200W        W26064   1.502  27.234  22.349 -0.0733 -0.5945 -0.1954
25201W        W26065  23.693  12.981  16.028 -0.0437  0.1886 -0.0836
25202W        W26066  11.157   4.262  10.573 -0.0666  0.2151  0.0074
25203W        W26067  20.640   1.176   1.821  0.1203  0.0328  0.1636
25204W        W26068   4.350   8.322  18.453  0.3422  0.5092 -0.2708
25205W        W26069  18.814   7.463  24.504  0.1554  0.0624  0.1162
25206W        W26070  16.567   5.391   5.960  0.0190 -0.0250 -0.2181
25207W        W26071  23.602  18.297  17.112 -0.0877  0.1317  0.1244
25208W        W26072   1.005   1.490  17.946  0.2391 -0.0860  0.3104
25209W        W26073  15.873  20.612  24.498  0.1746 -0.1235  0.0261
25210W        W26074  21.358   2.831   2.365  0.2906 -0.1773 -0.0070
25211W        W26075  18.285  22.974  19.777 -0.0484 -0.2374  0.1096
25212W        W26076  23.048  16.594  27.443 -0.0059 -0.2431  0.2069
25213W        W26077   0.595   4.543  21.499  0.1163 -0.2407  0.1383
25214W        W26078   7.502  17.854   0.454  0.0543  0.2312 -0.2900
25215W        W26079   1.593  11.298   8.464  0.0663 -0.0592  0.2430
25216W        W26080  19.441  15.495   7.004  0.1896  0.2259  0.1057
25217W        W26081  20.272  14.610   9.258  0.0228 -0.1136 -0.0290
25218W        W26082  21.315  18.816  11.765 -0.0118 -0.0244  0.1127
25219W        W26083  20.295  13.847  17.401  0.0715 -0.2244 -0.2058
25220W        W26084   4.309  28.102   6.538  0.0049  0.2046 -0.0169
25221W        W26085  12.085  22.856   4.858  0.0703  0.0048 -0.2789
25222W        W26086   7.003   4.018  15.686 -0.1306 -0.3345  0.2081
25223W        W26087  11.235   4.062   6.880 -0.1122  0.0262 -0.1535
25224W        W26088  18.836  22.550  18.002  0.1212  0.0453  0.0805
25225W        W26089  13.063   0.011   0.765 -0.0320 -0.0976 -0.0109
25226W        W26090  13.865  13.688  10.719 -0.0542  0.0522 -0.1182
25227W        W26091  20.080  24.585  14.442  0.2754 -0.0851 -0.2162
25228W        W26092  16.912   6.390  16.119  0.0309  0.0785  0.0981
25229W        W26093   8.958  18.579  19.671 -0.1686 -0.0192 -0.1793
25230W        W26094   0.125   2.881   0.358 -0.1433 -0.1698 -0.2072
25231W        W26095  19.301  27.063  21.352  0.1236  0.1556  0.3539
25232W        W26096  27.484  25.953  13.517  0.2312  0.1238 -0.2352
25233W        W26097   5.715   3.013   0.971  0.0135  0.0250  0.1195
25234W        W26098  26.690  10.741   7.781 -0.0837 -0.0653 -0.1338
25235W        W26099  11.913   7.741   0.890  0.2474  0.1382 -0.1906
25236W        W26100  19.292   8.417  16.559 -0.0720  0.1315  0.1025
25237W        W26101   6.432  26.713  11.858 -0.0357  0.2389  0.1434
25238W        W26102  19.385   5.534  28.963  0.0682  0.1040 -0.0383
25239W        W26103  28.729  20.271  15.612  0.2211  0.0331 -0.0747
25240W        W26104   9.519  28.748   4.371 -0.2016  0.0620  0.2160
25241W        W26105  23.179  28.336   0.230  0.0445  0.0131  0.0781
25242W        W26106  10.209  10.555  16.006  0.2318 -0.0376 -0.1580
25243W        W26107  14.352  25.699  14.041  0.0516  0.0617 -0.1702
25244W        W26108  26.289   7.299  21.815 -0.0597 -0.0333  0.1008
25245W        W26109  22.783  18.039   5.488 -0.1817 -0.0884  0.3312
25246W        W26110   7.063   9.963  14.608 -0.1429 -0.0700 -0.2145
25247W        W26111  25.702  27.612  12.036  0.0202  0.1411 -0.1003
25248W        W26112   6.206  26.167  25.663 -0.0760  0.0076 -0.3736
25249W        W26113  23.761  22.987  21.881 -0.0085  0.0207  0.2820
25250W        W26114  18.092  22.904  28.814 -0.0730  0.2222 -0.1116
25251W        W26115  13.999   0.523  28.745  0.2523  0.1562  0.1384
25252W        W26116   2.041  12.364  28.484  0.1032  0.0623 -0.1520
25253W        W26117  12.294  13.913  24.912 -0.0965 -0.2474  0.2709
25254W        W26118   4.818  24.640   5.494  0.3789  0.0529  0.1888
25255W        W26119   4.967  16.204  14.834 -0.0490 -0.1904 -0.0678
25256W        W26120   5.064   9.763   4.853  0.1656 -0.3794 -0.3063
25257W        W26121   1.635   6.066  17.205 -0.3083  0.1732 -0.0349
25258W        W26122  10.567  14.439   6.816  0.2670 -0.0961 -0.1098
25259W        W26123  24.186   4.105  12.554 -0.0345  0.0702  0.0607
25260W        W26124  18.777  20.520   9.650  0.0575 -0.1205  0.0596
25261W        W26125  19.954  11.777  17.054 -0.0200 -0.0086 -0.1064
25262W        W26126   4.849  23.144  28.586 -0.0903  0.0713  0.1119
25263W        W26127  25.664  23.163   5.830 -0.2860  0.1726  0.1025
25264W        W26128   3.879  26.045   1.981 -0.0249 -0.0545 -0.0399
25265W        W26129  25.182   4.920  26.766  0.0655  0.1737 -0.1909
25266W        W26130   3.744  11.344   0.891  0.0772 -0.0602  0.1243
25267W        W26131  14.313  21.838  19.911  0.1621 -0.2176 -0.1853
25268W        W26132  13.375   4.051  19.216  0.0283 -0.0242 -0.0095
25269W        W26133  25.895  24.413  10.317 -0.2794  0.3078  0.0987
25270W        W26134  20.904  28.373   8.848 -0.2068 -0.2190  0.1544
25271W        W26135  24.828  22.793  23.148 -0.2370  0.1121 -0.1863
25272W        W26136  11.527  28.000   2.272 -0.1531  0.1667  0.1716
25273W        W26137  14.092  17.819  13.923  0.0235 -0.4604  0.0300
25274W        W26138  27.938   1.833  21.883  0.0885  0.1750  0.2626
25275W        W26139  10.339  25.029   6.530  0.1279 -0.1216  0.0976
25276W        W26140  15.755  26.718  25.706  0.2299 -0.0349  0.1008
25277W        W26141   6.348   3.706   1.503  0.0236 -0.0287 -0.4258
25278W        W26142   0.337  17.656  12.740 -0.0519  0.0560  0.0094
25279W        W26143   9.335  19.148  20.756  0.1259 -0.1210  0.2826
25280W        W26144   0.191  26.929  25.727 -0.0473  0.0759 -0.2376
25281W        W26145  18.100  12.410  10.027  0.0876  0.0559 -0.0473
25282W        W26146  20.370  24.006  22.420  0.1171  0.2766  0.3411
25283W        W26147  14.273  28.635   6.047  0.1364  0.0951  0.1324
25284W        W26148  12.183   6.300  24.581 -0.0783 -0.0569  0.4371
25285W        W26149  14.845   5.557  21.775 -0.0126  0.0167 -0.0062
25286W        W26150  12.603   1.482  14.742 -0.0535  0.2477 -0.0929
25287W        W26151   7.538   1.133   5.458  0.2307 -0.3008 -0.0844
25288W        W26152  20.943  22.076  25.118  0.2631  0.1629  0.0367
25289W        W26153  12.367   9.974   9.295 -0.1874 -0.0565  0.3267
25290W        W26154  27.280  19.932   6.509 -0.2034 -0.1991  0.1233
25291W        W26155  19.141  20.093  28.657  0.2203 -0.0709 -0.2391
25292W        W26156   5.471   3.644   1.107  0.1010  0.0136  0.2260
25293W        W26157  23.827  27.950  17.781 -0.3082 -0.4339 -0.1548
25294W        W26158  20.111  24.330   4.449  0.0369 -0.1322  0.3950
25295W        W26159  17.006   0.534   8.969 -0.1041  0.0398  0.0041
25296W        W26160  18.293  22.865  22.630  0.1455 -0.1390  0.0754
25297W        W26161  15.986   0.495  17.172 -0.1357  0.0744  0.2370
25298W        W26162   1.337   2.261  26.136 -0.2357 -0.2123  0.0057
25299W        W26163   8.812  21.336   8.669  0.1998 -0.2041 -0.2018
25300W        W26164  27.003  22.375  13.250  0.0070  0.1249  0.1615
25301W        W26165  10.315  21.644   5.376  0.1237  0.1240  0.0175
25302W        W26166   2.547   9.714  21.423  0.0774  0.0901 -0.0999
25303W        W26167   9.330  16.718   9.527  0.2330  0.0272 -0.3048
25304W        W26168  22.237   2.961  23.628  0.0898  0.1115  0.1519
25305W        W26169  22.156  21.542  15.070 -0.0569 -0.3422  0.2109
25306W        W26170  10.375  14.507  13.212  0.1944  0.2941 -0.0787
25307W        W26171  20.158  17.756  14.171  0.1176  0.0116 -0.0534
25308W        W26172  13.234  24.198  20.629  0.0816 -0.0933  0.0873
25309W        W26173   8.666   0.344  21.218  0.1593 -0.1397  0.0645
25310W        W26174   2.232  20.426  24.960  0.1575  0.0769  0.0026
25311W        W26175   4.316   7.724  14.166  0.0577 -0.0844 -0.1949
25312W        W26176  21.862  10.204  11.179 -0.2832  0.0578 -0.1143
25313W        W26177  21.363  10.438  19.545 -0.1838 -0.3772 -0.1513
25314W        W26178   2.054   0.596  14.852 -0.2099  0.2691  0.1566
25315W        W26179  26.105  19.735   4.655  0.0111 -0.2036  0.2717
25316W        W26180  23.053   3.095   0.214 -0.0326 -0.2003  0.3419
25317W        W26181  18.264  21.958  14.895  0.0593  0.0379 -0.1495
25318W        W26182   7.831  20.853   3.466  0.0619  0.3480  0.0502
25319W        W26183   6.656  28.937   6.740 -0.0424 -0.1758 -0.1039
25320W        W26184   5.954   5.732   3.697 -0.1556 -0.0964 -0.1285
25321W        W26185  16.504   8.741  12.518  0.2667  0.1324  0.2623
25322W        W26186  12.265  10.789  25.160 -0.3408 -0.3345 -0.0214
25323W        W26187  20.648  12.749  28.705 -0.2196  0.0186  0.0248
25324W        W26188  14.525   9.551  24.961 -0.2099  0.2141  0.1638
25325W        W26189  14.288  28.535   8.262  0.1742 -0.0907 -0.0421
25326W        W26190   1.314  21.023   5.083 -0.0816  0.0765  0.0311
25327W        W26191  18.538  24.633   4.267 -0.1604  0.3383  0.3030
25328W        W26192   1.143   6.544   9.163 -0.2932 -0.3744  0.2680
25329W        W26193  27.359   3.779  11.243  0.1337 -0.1011  0.0678
25330W        W26194  19.408  22.807  10.987 -0.0044 -0.1397  0.3010
25331W        W26195   9.638  19.569  23.641  0.0257  0.2872 -0.0249
25332W        W26196   4.208   8.763  19.400 -0.1066  0.0610  0.0593
25333W        W26197  20.516  16.832   6.358  0.3018  0.0783 -0.1453
25334W        W26198  11.681  16.602   2.588 -0.0573  0.0096  0.0399
25335W        W26199  28.245  25.786  11.250 -0.1443 -0.1014 -0.1923
25336W        W26200   3.987   2.818   0.541 -0.1139 -0.0276  0.1473
25337W        W26201   3.885  18.626  11.597  0.3363 -0.1981  0.4449
25338W        W26202  13.032   2.979  25.445  0.0824 -0.2526  0.1101
25339W        W26203  10.016  28.653   4.316  0.0902 -0.0753 -0.3558
25340W        W26204   1.471  16.794   5.868  0.1239 -0.2381 -0.1565
25341W        W26205  22.652  26.985   5.930  0.1293 -0.0621  0.3734
25342W        W26206  15.991  21.370  21.172  0.0228  0.0159 -0.0069
25343W        W26207  11.625  23.295  13.588  0.3347  0.0836 -0.2894
25344W        W26208   7.995   8.382  26.983 -0.1620  0.1330 -0.1720
25345W        W26209  21.379  14.784  23.931  0.2709 -0.1051 -0.0130
25346W        W26210  26.021  15.667  23.905  0.1092 -0.0574 -0.0323
25347W        W26211  26.118  17.827  27.228  0.0635  0.1359 -0.1825
25348W        W26212   0.545  11.314  12.553 -0.1110 -0.0325  0.2295
25349W        W26213  23.747   9.166   1.564  0.3901 -0.0951 -0.3007
25350W        W26214   9.545   2.913  18.758  0.2477  0.0815 -0.2227
25351W        W26215  17.043  11.295  28.788  0.0191 -0.1049  0.0303
25352W        W26216  23.208  25.517  25.368 -0.1545  0.0405  0.1080
25353W        W26217  25.488  19.228  25.773 -0.0626 -0.0772  0.0260
25354W        W26218   6.733  23.833  24.108  0.0234  0.2635 -0.2788
25355W        W26219  24.644  27.986   2.334 -0.0839 -0.2851  0.1987
25356W        W26220  23.108  20.730   9.345 -0.1119  0.0089  0.3233
25357W        W26221  18.343  12.403   0.128  0.1097  0.0560 -0.0818
25358W        W26222  26.605   1.129   4.982 -0.2020  0.0360 -0.0643
25359W        W26223  15.509   3.179   0.628  0.1013  0.1520  0.0071
25360W        W26224  22.048  19.709  17.955  0.0028  0.1714 -0.2980
25361W        W26225  25.154   1.355  12.201 -0.1222  0.1480 -0.4724
25362W        W26226  18.124  20.099   6.275  0.1252  0.1783 -0.2822
25363W        W26227  27.762  28.412   0.192  0.0567 -0.2294  0.0299
25364W        W26228  14.919  21.220   1.778  0.0832 -0.1001  0.0837
25365W        W26229   2.045  28.768  12.167  0.0365  0.0721  0.0703
25366W        W26230   2.153  14.738  12.769  0.1959 -0.1314 -0.1396
25367W        W26231  23.726  14.785  15.497  0.1034 -0.0076 -0.2159
25368W        W26232   3.730  16.913  10.038  0.1957 -0.0561  0.0633
25369W        W26233  26.591  17.918   9.213  0.4156  0.1285 -0.0635
25370W        W26234  14.385  28.203   0.038 -0.0788  0.1008  0.0391
25371W        W26235   4.890  10.721  11.894  0.1885  0.2563 -0.2608
25372W        W26236   9.371  24.974   4.758 -0.0410  0.1604  0.1717
25373W        W26237  11.262   4.389   3.170  0.1197  0.1770 -0.2497
25374W        W26238  14.549   9.377   2.276 -0.3186 -0.0164  0.0799
25375W        W26239  28.800   9.717  13.840  0.1620 -0.1883 -0.0584
25376W        W26240  19.128   0.910  14.072 -0.0161 -0.3134  0.1489
25377W        W26241  11.504   5.477  28.054 -0.2009  0.2558 -0.1192
25378W        W26242  19.875  24.958   6.407 -0.1366 -0.0850 -0.1231
25379W        W26243  11.668  14.160  19.047  0.0920  0.1192  0.1646
25380W        W26244  19.765   4.873   5.513  0.0830  0.0075 -0.1602
25381W        W26245  15.956  10.615  23.347  0.1162  0.1444 -0.3253
25382W        W26246  20.453   2.345   5.860 -0.0612 -0.1466 -0.0226
25383W        W26247   5.312   5.521  15.778  0.0315  0.0978 -0.2511
25384W        W26248  16.582  10.535   8.665  0.1484  0.3256  0.0184
25385W        W26249  25.644   8.856  19.532 -0.3370 -0.3101 -0.1327
25386W        W26250   4.493  24.809  10.807  0.1468 -0.0343 -0.3011
25387W        W26251  24.249  18.002  29.032 -0.0935 -0.3134  0.2937
25388W        W26252  16.552  20.265  28.850  0.1715  0.0814 -0.3125
25389W        W26253  20.300   8.589  15.018  0.0970  0.2089  0.1467
25390W        W26254  13.282   9.301  15.147  0.2482 -0.3632 -0.0867
25391W        W26255  16.497  16.790  14.856  0.2896 -0.1528  0.3640
25392W        W26256  20.025  13.490  14.750 -0.3267  0.0211 -0.4553
25393W        W26257  13.472   7.158  16.288  0.3942 -0.1501 -0.0114
25394W        W26258   5.131   4.693   3.363 -0.2062 -0.2091  0.0127
25395W        W26259  15.056  12.751   4.937  0.1682 -0.1318  0.0026
25396W        W26260  17.048   1.834   3.692 -0.1098  0.0087  0.1031
25397W        W26261  11.414  22.925  21.666 -0.2698  0.0732  0.0097
25398W        W26262  16.527  12.231  23.327 -0.1544  0.0246  0.0319
25399W        W26263   4.131   5.922   7.847 -0.1185  0.3332  0.1652
25400W        W26264  11.518  21.720   6.358 -0.0905 -0.0553  0.0907
25401W        W26265  11.013  10.352  20.279  0.3242  0.3080  0.1716
25402W        W26266  17.384  14.253  28.348 -0.0860  0.2551 -0.0487
25403W        W26267  15.959  25.257  28.562 -0.2062 -0.0936 -0.2790
25404W        W26268   1.003  16.934  10.612  0.0688 -0.1610 -0.2646
25405W        W26269  23.003  16.053   0.990 -0.0714  0.2698  0.1298
25406W        W26270   8.954  20.348  14.334 -0.0943 -0.1547 -0.0527
25407W        W26271  10.710   1.422  26.331 -0.5222 -0.1556 -0.2532
25408W        W26272  11.826  20.655  10.304  0.0308 -0.2705 -0.4902
25409W        W26273  18.880  10.732   5.769  0.0091 -0.0131 -0.2449
25410W        W26274  28.969   6.961  19.432 -0.1509  0.0579 -0.4808
25411W        W26275  26.519   5.310   6.300 -0.0352 -0.2446  0.1136
25412W        W26276  10.782   5.862   5.365 -0.0790  0.0187  0.0799
25413W        W26277  20.791  17.160  24.002 -0.0149 -0.3471 -0.1815
25414W        W26278  28.537   5.862  14.012  0.1497  0.2949  0.0006
25415W        W26279  23.062   4.552   8.265  0.0519 -0.0839  0.0071
25416W        W26280  16.632  22.618  27.113 -0.1243 -0.0456 -0.0954
25417W        W26281  16.615   8.149  13.695 -0.1048 -0.2311 -0.0292
25418W        W26282  26.092   3.723  26.899 -0.1168  0.2843 -0.0074
25419W        W26283  15.249   5.662   9.680  0.0546 -0.1068  0.0194
25420W        W26284  19.221   1.596  19.519 -0.0690  0.0839 -0.0328
25421W        W26285  24.871   3.802   7.366 -0.3004 -0.2021 -0.0736
25422W        W26286   7.456  19.342   7.473 -0.0448 -0.0703  0.1799
25423W        W26287   9.001  16.892   7.268  0.0796 -0.4004 -0.2138
25424W        W26288  13.163  10.795  24.176 -0.0376 -0.3334  0.2315
25425W        W26289  19.920  24.466  15.783 -0.0478 -0.3478 -0.1772
25426W        W26290  16.845  19.317  12.677 -0.0663  0.0085  0.0102
25427W        W26291  20.922  10.724  27.005  0.1915 -0.0240  0.0376
25428W        W26292  23.786   4.001  22.323 -0.1020  0.1775  0.0575
25429W        W26293  27.056  21.956  23.062 -0.1220 -0.1956 -0.2176
25430W        W26294  12.510   6.168  20.256  0.1223  0.0139  0.1471
25431W        W26295  23.866  11.372  17.835 -0.0749 -0.0552  0.1227
25432W        W26296  18.612  10.420  18.680  0.1386  0.2293 -0.2428
25433W        W26297  26.110  20.178  19.282  0.1411 -0.0503 -0.0337
25434W        W26298  19.137  27.216  14.796  0.1853 -0.1810 -0.2419
25435W        W26299   9.017   4.383  12.495 -0.0707 -0.0308 -0.1361
25436W        W26300   1.052  22.772  13.007 -0.0477  0.1201 -0.1402
25437W        W26301  14.987  26.601   2.984 -0.2353  0.0127 -0.0098
25438W        W26302  15.169  20.082   6.869  0.0843 -0.2872 -0.1974
25439W        W26303  22.760  14.723  21.794 -0.1185 -0.1315 -0.0760
25440W        W26304   0.207  21.783   7.028 -0.0692  0.2123 -0.0790
25441W        W26305  16.739   6.902  10.860 -0.2615 -0.3660 -0.2348
25442W        W26306  25.406  20.399  11.970  0.0106  0.1051  0.1457
25443W        W26307  15.862  28.904  11.733  0.1048 -0.1594 -0.3593
25444W        W26308   8.297  13.336   0.465 -0.2183 -0.0710  0.2662
25445W        W26309  10.051   0.055   6.118 -0.2167  0.0440  0.4402
25446W        W26310  21.803  20.814  19.327 -0.2853  0.0095  0.1797
25447W        W26311  26.394  22.216  28.304  0.0400 -0.0097 -0.1163
25448W        W26312  18.495   9.254   1.889  0.0916 -0.0874  0.0708
25449W        W26313   4.691  16.122  27.529 -0.0818  0.2012 -0.1336
25450W        W26314  15.500  17.147  23.701  0.0354 -0.2512 -0.1490
25451W        W26315  21.622  10.274  27.531 -0.1720 -0.1532  0.0380
25452W        W26316   7.172  21.203  27.953 -0.0970 -0.0299 -0.0686
25453W        W26317  13.788   9.834   8.770 -0.0857  0.0558 -0.0772
25454W        W26318  20.817   3.271   5.812 -0.0680 -0.3086 -0.0982
25455W        W26319  18.066   1.102  11.203 -0.3021 -0.1594 -0.0971
25456W        W26320   5.221  16.664  25.156  0.1120 -0.2554 -0.1020
25457W        W26321  20.365   0.554  10.970  0.0929  0.2266  0.0389
25458W        W26322  24.289   7.813  13.724 -0.0848  0.0106 -0.1199
25459W        W26323  15.124  18.769  21.322  0.0229 -0.0364 -0.1874
25460W        W26324  28.842  28.461  10.675 -0.1356  0.1663  0.2420
25461W        W26325  24.921  11.300   7.814 -0.0385 -0.1709  0.0308
25462W        W26326  12.174  22.263   0.106 -0.1305 -0.3976  0.0330
25463W        W26327  10.626  26.015  12.386 -0.0017  0.0041 -0.1079
25464W        W26328   3.212  23.205   6.076 -0.3733  0.0474  0.3686
25465W        W26329   4.887   9.855  20.989  0.1142 -0.1112 -0.1372
25466W        W26330  10.618  19.282  19.999  0.1634  0.1012  0.0344
25467W        W26331   5.900  21.298  11.574  0.1987  0.1027  0.1618
25468W        W26332  12.956   4.382   6.290  0.3408  0.1102  0.0036
25469W        W26333  11.377  16.118   5.862  0.0421 -0.0198  0.1783
25470W        W26334  23.312   1.727  17.572  0.1334 -0.1449  0.0794
25471W        W26335  23.111   3.121  11.506 -0.0890 -0.3354  0.1429
25472W        W26336  18.402  10.584  21.100 -0.2754 -0.1389  0.3851
25473W        W26337   0.236  14.872   1.922  0.0964 -0.1282 -0.0465
25474W        W26338  18.384  26.766   7.565 -0.1271 -0.1955 -0.1131
25475W        W26339   8.288  20.703   8.895 -0.0419  0.2629  0.0401
25476W        W26340   4.558   6.979  13.740  0.0950  0.0219 -0.4342
25477W        W26341  17.162  15.116   6.112  0.0562 -0.2701  0.0067
25478W        W26342  20.888  21.926   6.694 -0.0634 -0.0735 -0.1914
25479W        W26343   4.075  27.660  10.716  0.0809 -0.2301  0.2005
25480W        W26344   9.975   6.989   9.364 -0.0697 -0.0180 -0.0179
25481W        W26345  11.301   3.672  25.909 -0.1725 -0.0567  0.0063
25482W        W26346  24.041  10.157  23.708 -0.1267  0.1587 -0.1565
25483W        W26347  27.427   7.695   0.274 -0.0419 -0.0262 -0.0256
25484W        W26348  29.040   3.957  10.668  0.1884  0.1260 -0.0706
25485W        W26349  14.143  26.244   6.379 -0.3543  0.4566 -0.2159
25486W        W26350  10.636  16.406  23.714 -0.0855  0.1393  0.0439
25487W        W26351   4.622   4.628   9.855  0.1596 -0.0344  0.1202
25488W        W26352  14.721  11.360   3.700 -0.0052 -0.2897 -0.4169
25489W        W26353   9.417  20.897  23.124  0.1922  0.1238  0.0645
25490W        W26354  19.258   9.320  23.378 -0.3309 -0.1271 -0.0022
25491W        W26355  28.069   6.692   2.458  0.1695 -0.0117  0.2747
25492W        W26356  12.534  24.714  12.005 -0.3075  0.2298  0.0125
25493W        W26357  14.541  10.829   2.348  0.0407 -0.0830  0.3520
25494W        W26358   7.323   5.339   3.977  0.0481  0.3025  0.0069
25495W        W26359  20.681  17.007  21.275  0.1261 -0.1905 -0.1651
25496W        W26360  16.938  21.615  27.074  0.0893 -0.1078  0.1672
25497W        W26361  16.633   2.286   7.575  0.0669 -0.2289  0.0455
25498W        W26362   0.180  28.777   3.191  0.2844  0.0625 -0.0603
25499W        W26363  24.863   9.813  24.487  0.0120  0.1868 -0.2278
25500W        W26364   1.250  23.004   7.861  0.2022  0.2063 -0.1742
25501W        W26365  23.934  27.410  24.223  0.3166  0.1733 -0.4933
25502W        W26366  14.285   8.652   1.836 -0.0991  0.2646  0.1247
25503W        W26367  15.398  25.422  12.044 -0.1133  0.0349  0.0928
25504W        W26368  14.615   8.014  26.676 -0.1014  0.2289  0.0804
25505W        W26369  16.765   2.824  15.910  0.2083 -0.0202  0.0308
25506W        W26370   7.479  10.190   2.908  0.0042 -0.2690  0.3038
25507W        W26371  10.557  28.328   0.697 -0.0311 -0.1684  0.2985
25508W        W26372  15.781   4.992   2.827 -0.2931  0.1614 -0.1040
25509W        W26373  14.385  10.886  17.592  0.1067 -0.0193  0.0686
25510W        W26374   4.162  23.509  11.107 -0.2696 -0.2838  0.1768
25511W        W26375  13.090   3.205   7.389  0.0098  0.2273  0.0625
25512W        W26376   2.864  14.397  17.823  0.2001  0.2090 -0.4306
25513W        W26377  22.478   5.481   5.713  0.1542 -0.0168  0.1735
25514W        W26378  12.549  23.969  14.134 -0.0906  0.0396 -0.0983
25515W        W26379  16.058  27.572   1.879 -0.1334  0.1421 -0.1947
25516W        W26380  14.349  21.569  27.189  0.0063  0.0905 -0.1933
25517W        W26381  18.433   5.918  26.136 -0.0368  0.0979 -0.4647
25518W        W26382  22.715   0.013   6.310 -0.4384  0.0409  0.1408
25519W        W26383  18.401   3.252   6.534 -0.2046 -0.1507  0.1873
25520W        W26384  18.722   4.656  19.283 -0.1917  0.1801 -0.0728
25521W        W26385  13.424   8.973   4.767 -0.2017 -0.1439 -0.6198
25522W        W26386  25.160   4.126  27.884 -0.1116 -0.0840  0.1456
25523W        W26387   3.771   1.829  25.894  0.1239 -0.1957 -0.1554
25524W        W26388  10.706   0.808  15.345 -0.4803  0.0328  0.1473
25525W        W26389  11.240  18.844   4.808 -0.3565 -0.0915  0.0842
25526W        W26390  14.982   7.674  16.382  0.1268 -0.2425 -0.2137
25527W        W26391  27.134  19.771  15.545  0.0239  0.1283  0.0938
25528W        W26392  23.903  23.092  25.919 -0.0107 -0.0931  0.2096
25529W        W26393   2.864  10.728   7.329 -0.1584 -0.0928  0.0078
25530W        W26394  22.600   7.281  22.605 -0.1190  0.1780  0.0135
25531W        W26395  19.942   7.866  10.701  0.0181  0.2130 -0.3011
25532W        W26396  13.782  22.138   1.863 -0.0248 -0.0224 -0.2312
25533W        W26397  14.947  27.881  21.631 -0.0882 -0.2639  0.0940
25534W        W26398  14.754  28.324   1.739 -0.2569 -0.0236  0.0125
25535W        W26399   9.126   0.581  17.331  0.0374 -0.0765 -0.2168
25536W        W26400  15.735  15.875   0.642 -0.3325 -0.0487  0.1617
25537W        W26401   1.187   8.286  11.302 -0.1806  0.0714 -0.2368
25538W        W26402  16.703  19.640  28.079 -0.2551  0.1104  0.1930
25539W        W26403  27.660   6.115  10.058 -0.1561 -0.1610  0.1392
25540W        W26404  20.114   4.368   9.348  0.0005 -0.4731 -0.0420
25541W        W26405  18.965  24.147  10.175  0.0433 -0.2026  0.0665
25542W        W26406  22.652  28.447  15.821  0.2025 -0.1095  0.0467
25543W        W26407   7.285  26.454  22.905  0.1460 -0.0668  0.2692
25544W        W26408  14.577  10.344  15.948 -0.0983  0.2059  0.0792
25545W        W26409  21.979   6.940  11.923 -0.2147  0.0433 -0.1017
25546W        W26410   1.726  18.316   4.154 -0.0377 -0.1112 -0.1109
25547W        W26411  25.001  28.520   9.542  0.1067  0.0643  0.0455
25548W        W26412   9.300   2.438  15.815  0.1543 -0.1401 -0.0221
25549W        W26413   9.687   1.189  19.485  0.0394  0.1601 -0.1926
25550W        W26414   9.998  18.952   4.103  0.0888 -0.2458  0.1383
25551W        W26415  26.450   0.009   7.520 -0.2776  0.0146  0.3928
25552W        W26416  12.265  23.735  19.159  0.1717 -0.1546  0.0935
25553W        W26417  22.283   1.240   8.701 -0.0505 -0.1756 -0.1131
25554W        W26418  17.401  11.957   6.435  0.0513  0.0275 -0.1977
25555W        W26419  14.231  25.467  11.025  0.2842  0.0870  0.1136
25556W        W26420   8.510  12.896  25.729  0.2165 -0.0371 -0.2254
25557W        W26421  22.208  12.859   0.687  0.3314 -0.0290  0.1820
25558W        W26422  13.313  27.066  14.270 -0.0540 -0.2186  0.0643
25559W        W26423   5.653  20.166   7.336 -0.1748  0.1313  0.1485
25560W        W26424  28.704   1.190  10.254 -0.0506  0.2078  0.1854
25561W        W26425   9.260  19.408   4.007  0.4784 -0.0933 -0.1933
25562W        W26426  21.987   6.577   0.622  0.0807  0.1440  0.0902
25563W        W26427  20.458  25.298  10.567  0.1557 -0.1060  0.1455
25564W        W26428  23.518  20.784  16.757  0.3050 -0.1393 -0.0850
25565W        W26429  22.889   4.564  15.081 -0.0084  0.1120  0.2293
25566W        W26430  21.622  16.129   1.438  0.2157 -0.1900 -0.2940
25567W        W26431  21.516  14.997  11.911 -0.0562  0.3783 -0.3239
25568W        W26432  19.111   6.085  11.312  0.1454 -0.0676  0.2239
25569W        W26433  10.234  25.641   5.857 -0.0158  0.2541 -0.1391
25570W        W26434  25.899  12.444  22.866 -0.2011 -0.0746 -0.0493
25571W        W26435  24.901   3.158  18.357  0.0331 -0.1028 -0.3764
25572W        W26436  16.544   9.710  12.482 -0.0779 -0.0105 -0.0740
25573W        W26437  23.229   0.302  15.303 -0.0520 -0.0474  0.1529
25574W        W26438  21.759  19.206  25.733 -0.1219  0.3979  0.0305
25575W        W26439  11.101  24.378   7.919  0.2269 -0.1150  0.2282
25576W        W26440  27.449  23.336  18.651  0.2117 -0.1383 -0.0671
25577W        W26441  20.543  19.151   7.539 -0.3514  0.0933  0.0679
25578W        W26442   4.581  20.038  12.023  0.2382 -0.2259 -0.1920
25579W        W26443   4.704  20.218  10.991 -0.1720 -0.0338 -0.1409
25580W        W26444  10.185  28.013   4.832  0.2155  0.2759 -0.0656
25581W        W26445  27.633  23.517  17.417  0.2384  0.4832  0.0257
25582W        W26446  20.789  27.806  13.470 -0.1445  0.0985  0.0760
25583W        W26447   5.418  14.520   3.069 -0.3283 -0.0022  0.0922
25584W        W26448   8.607  20.917  24.826  0.1933 -0.0395  0.2229
25585W        W26449  26.516  20.944   5.483  0.0535 -0.2589  0.1642
25586W        W26450  14.611  18.339   6.060 -0.2072 -0.2077 -0.1927
25587W        W26451  18.529   2.328   1.757  0.2296 -0.0017  0.2856
25588W        W26452   7.277   2.226   2.136  0.1465  0.0679 -0.1270
25589W        W26453  14.884   7.314  24.662 -0.1751  0.1553  0.1737
25590W        W26454   3.364   7.165  10.517 -0.0878 -0.1913  0.2399
25591W        W26455  25.185  21.760   4.893  0.0323  0.0757 -0.1185
25592W        W26456  17.209  20.309  25.537  0.0982 -0.1539 -0.1230
25593W        W26457  10.181  24.394  26.105  0.0728 -0.1264  0.0426
25594W        W26458  10.781  20.746  10.863  0.0266  0.1549 -0.0325
25595W        W26459  24.423   2.673  10.126  0.0432  0.3040  0.1005
25596W        W26460  16.260   7.639  15.176 -0.1353  0.2223  0.2065
25597W        W26461  28.471   0.400   0.763  0.1744 -0.0895 -0.3065
25598W        W26462  12.484  26.214   0.157  0.1775  0.0042 -0.1379
25599W        W26463  11.361  21.897  23.693 -0.5005 -0.0847  0.0122
25600W        W26464  28.269   3.703  11.193  0.1925  0.0799 -0.1308
25601W        W26465  26.526  11.963   2.222 -0.0191 -0.2208 -0.2029
25602W        W26466  28.119   9.243   7.048 -0.0635 -0.0301  0.1290
25603W        W26467  25.070   1.447   4.534 -0.3331 -0.0456 -0.1984
25604W        W26468  24.976   2.591  27.257 -0.0166 -0.1473  0.1169
25605W        W26469  26.323  20.420  11.032 -0.3683  0.1705 -0.0543
25606W        W26470  22.753  17.679  22.692 -0.0267 -0.3169 -0.1812
25607W        W26471  24.339  23.072   0.615  0.0272  0.1761  0.1092
25608W        W26472   0.163  23.895   8.534 -0.3094 -0.2710 -0.1744
25609W        W26473  18.547  17.153  24.298  0.1401  0.0789 -0.2207
25610W        W26474  12.741  25.314  24.616 -0.0107 -0.2707 -0.0884
25611W        W26475  13.895  21.403  14.894 -0.1855 -0.3394  0.2213
25612W        W26476  12.223  12.417  14.693  0.0789  0.4947  0.0092
25613W        W26477  24.837  25.886  28.644  0.0458 -0.0760 -0.1346
25614W        W26478   4.796  18.664  17.443  0.0715 -0.0439 -0.0781
25615W        W26479  11.368  20.398  24.053 -0.1677  0.2578 -0.1373
25616W        W26480   4.747  25.709  11.221  0.2430  0.2993 -0.0052
25617W        W26481  17.130  22.702  27.941 -0.2653 -0.0857  0.1354
25618W        W26482  10.708   7.022  26.879 -0.1372  0.1649  0.0098
25619W        W26483  28.141  28.646  12.123 -0.0223 -0.3475  0.0761
25620W        W26484  27.826  28.970  16.362  0.3390 -0.0300 -0.0823
25621W        W26485   8.980  14.232   9.986 -0.0074 -0.4905 -0.1435
25622W        W26486  28.682  24.932   5.330 -0.1477  0.0012 -0.4404
25623W        W26487  19.099  21.179   3.463  0.0524 -0.0287 -0.1024
25624W        W26488  14.713  26.087   6.634 -0.0278 -0.1502  0.0186
25625W        W26489  14.423   2.811   1.870  0.1583  0.0365 -0.2671
25626W        W26490  22.790   0.502  23.041  0.3130 -0.2599 -0.3217
25627W        W26491  10.808   1.693   3.614 -0.1738 -0.0931 -0.0530
25628W        W26492  21.064   0.506   1.987  0.0405 -0.1227 -0.3132
25629W        W26493  14.940  25.697  15.776  0.0388 -0.2281  0.1368
25630W        W26494  21.383  18.889  16.666 -0.0814 -0.2519  0.0716
25631W        W26495  13.509   2.945   8.907 -0.1925 -0.0072 -0.2907
25632W        W26496   8.746   1.181  27.445  0.3640  0.1167  0.0033
25633W        W26497  10.230  26.524  17.462 -0.1521  0.0629 -0.1908
25634W        W26498  17.929  11.910   6.561  0.0072  0.0966 -0.0723
25635W        W26499  18.380  27.115  15.140 -0.0432  0.0427 -0.0389
25636W        W26500  12.120   6.364   8.478 -0.1711 -0.2825  0.0561
25637W        W26501   0.826  13.456  27.891 -0.2479  0.2730  0.0386
25638W        W26502  24.028   7.548  23.490 -0.0682  0.1324 -0.1128
25639W        W26503  15.204  21.166  16.985 -0.1902  0.0202 -0.0277
25640W        W26504   7.220  13.056  28.174 -0.1147  0.0407 -0.1907
25641W        W26505  10.609   2.974   6.328 -0.1985 -0.3405 -0.1084
25642W        W26506   4.527  23.040  21.241  0.1543 -0.0591 -0.0016
25643W        W26507   7.778  22.628  23.295 -0.2549  0.0318  0.0443
25644W        W26508  13.457  13.639   7.700 -0.0629  0.0410 -0.2634
25645W        W26509  27.209  24.579   2.921  0.2499  0.0359  0.0414
25646W        W26510   7.703  14.351  14.864  0.2043  0.1858  0.2175
25647W        W26511  18.743  20.372   6.791  0.0972  0.1845 -0.0897
25648W        W26512  20.938  11.267  10.660  0.0616 -0.0593  0.2967
25649W        W26513  23.850  26.223  23.117  0.0750 -0.2289 -0.1579
25650W        W26514  20.150   1.173  27.586 -0.1280  0.0090  0.0747
25651W        W26515  21.665  20.846  14.994 -0.2235 -0.0307  0.0700
25652W        W26516  10.911  16.893   3.953  0.1481  0.0396 -0.2871
25653W        W26517  12.597  28.438  27.726 -0.0085 -0.3054  0.1803
25654W        W26518   3.686  27.514   4.132  0.0116  0.0974 -0.1646
25655W        W26519  18.210  28.211  18.618 -0.2207  0.2131  0.0355
25656W        W26520  28.226  14.843  11.193  0.1754  0.0932 -0.1746
25657W        W26521  16.386   4.965  22.229 -0.3623  0.1401  0.0148
25658W        W26522  14.754  26.034  12.047  0.2627  0.0178  0.2196
25659W        W26523  27.503  10.809   6.890  0.0353 -0.0417  0.1059
25660W        W26524  23.481   6.791   1.696  0.1311 -0.0186  0.2211
25661W        W26525  26.613  27.084  18.052  0.0373 -0.1899  0.0720
25662W        W26526   2.567  27.570  10.888  0.2337  0.3021  0.0410
25663W        W26527  11.736  28.979   7.466 -0.1618  0.2874 -0.0161
25664W        W26528  26.243  22.183   3.380  0.1636  0.2251  0.0886
25665W        W26529   4.752   0.816   4.758  0.1477 -0.1249 -0.2196
25666W        W26530   3.347  23.106   3.742  0.3108  0.1134 -0.0676
25667W        W26531  28.448  10.613   5.532  0.0203  0.1861  0.1904
25668W        W26532  15.810   9.253  15.776  0.0605 -0.1213  0.1018
25669W        W26533  15.594   1.362  27.831  0.1476 -0.2555  0.0206
25670W        W26534  24.738   1.911   3.664 -0.4645 -0.1053  0.0565
25671W        W26535  10.996   3.056   8.841  0.2443  0.1617 -0.1402
25672W        W26536   6.765   2.494   5.318  0.3592 -0.0295  0.0103
25673W        W26537  20.957  25.915  10.974 -0.0101 -0.0532  0.1632
25674W        W26538  24.164   4.935  10.949 -0.1805 -0.3720  0.0877
25675W        W26539   8.993   7.758   4.745  0.1179  0.4036 -0.1149
25676W        W26540  23.651   6.162  28.143  0.0038 -0.0433 -0.0387
25677W        W26541  12.172   7.732   7.279  0.0467 -0.2289 -0.0709
25678W        W26542  25.767  27.398  10.623  0.1019  0.1615 -0.1645
25679W        W26543   5.793  13.700  12.321 -0.0888 -0.1170  0.2079
25680W        W26544   4.628  22.747   6.970  0.1153 -0.2394  0.0654
25681W        W26545   7.265  24.430  26.890 -0.1839 -0.1990  0.1106
25682W        W26546  13.751   8.421  20.933 -0.2181  0.0563  0.0029
25683W        W26547  11.990   1.423  22.973  0.1975 -0.0464  0.2785
25684W        W26548   2.528   5.989  14.379  0.2381  0.2589 -0.0099
25685W        W26549  24.893   8.327   5.674 -0.1964  0.1249  0.0585
25686W        W26550  20.470  22.489  10.390 -0.1449 -0.0889  0.2274
25687W        W26551  28.201   3.399  13.153  0.0374 -0.1644  0.0827
25688W        W26552  19.446   6.814  28.445 -0.2102  0.2485 -0.0738
25689W        W26553  19.215  28.984  23.113  0.2629 -0.1411 -0.3007
25690W        W26554  26.738   1.154  16.831  0.1171  0.0696  0.0276
25691W        W26555  11.514  14.238  28.949 -0.1296  0.0364  0.0723
25692W        W26556  12.307  11.695  17.551 -0.2995 -0.1027 -0.0480
25693W        W26557  11.233  14.862   3.215 -0.2483  0.3187  0.3952
25694W        W26558  18.466  26.322   3.096 -0.1111  0.0252 -0.1796
25695W        W26559  20.477  28.566  23.579 -0.0648  0.2252 -0.0333
25696W        W26560  16.428  13.150  23.744 -0.0288 -0.3371 -0.2309
25697W        W26561  21.753  14.605  10.967 -0.2158 -0.1952 -0.0653
25698W        W26562   7.148  19.450  27.047 -0.1440 -0.0078 -0.1131
25699W        W26563  28.451   7.751  11.177 -0.0695  0.0958 -0.0644
25700W        W26564  10.033  15.838  21.692 -0.2004  0.0459 -0.0674
25701W        W26565  10.582   0.632   7.169 -0.1445 -0.4073  0.0051
25702W        W26566   2.633  19.573  25.940 -0.2620  0.0326 -0.0524
25703W        W26567  20.468   3.611   3.548  0.5102  0.3480 -0.0116
25704W        W26568  20.449   1.865  15.217 -0.0808  0.0592 -0.2520
25705W        W26569  11.538  28.798  23.882  0.2868 -0.0931  0.0108
25706W        W26570  26.862   1.287  14.461 -0.1561 -0.3093 -0.2561
25707W        W26571   3.402  27.060   3.308  0.0413  0.1247 -0.0180
25708W        W26572  20.741   3.442  20.881 -0.2704  0.0377  0.0964
25709W        W26573  16.445  17.499  26.722 -0.0478 -0.0165  0.1934
25710W        W26574   9.325   0.677   8.243  0.0791  0.2265 -0.1291
25711W        W26575   6.829   4.053  21.156 -0.0426  0.0240  0.2364
25712W        W26576   7.466   0.675   2.408  0.0245 -0.0769  0.3097
25713W        W26577  23.585  13.832  14.362 -0.0377  0.2446 -0.0391
25714W        W26578  18.197   9.951  11.540 -0.0152  0.2839 -0.0453
25715W        W26579  26.150   1.000  27.104 -0.1587 -0.3334 -0.1113
25716W        W26580   2.173  15.633  12.751 -0.0397 -0.4760  0.0001
25717W        W26581  20.272  11.860  11.375  0.1348  0.1954  0.1945
25718W        W26582  18.447  19.671  25.484 -0.0443 -0.0381 -0.1920
25719W        W26583  16.767   3.653   8.997  0.0869 -0.1368 -0.0358
25720W        W26584  20.706  17.960  15.498  0.1073 -0.0741 -0.0342
25721W        W26585  28.850  25.159   8.360  0.0862  0.3333  0.0848
25722W        W26586  12.385   1.577  26.175 -0.0829  0.0871 -0.1861
25723W        W26587  10.727  13.659   6.258  0.0245 -0.2761  0.1746
25724W        W26588   5.618  13.212   0.548  0.0824  0.0208 -0.2201
25725W        W26589  23.622  26.555   8.671 -0.0346  0.1231 -0.2037
25726W        W26590  20.404   1.133  18.711  0.1081 -0.0550 -0.0938
25727W        W26591  22.481  23.065   8.212  0.1495 -0.0059 -0.2475
25728W        W26592  22.740   6.044   9.693 -0.2318  0.0730 -0.1951
25729W        W26593   4.063   1.671   3.493  0.1592  0.2696  0.0683
25730W        W26594  23.245   8.860   7.734 -0.1999 -0.0980 -0.2864
25731W        W26595  19.105  28.599  11.708 -0.3206 -0.1515  0.2431
25732W        W26596  24.119   7.494  11.207  0.3763 -0.1687 -0.1247
25733W        W26597  16.343  16.723  11.471 -0.1977 -0.2748  0.1637
25734W        W26598  14.153   0.604  13.879 -0.5065  0.2265 -0.1121
25735W        W26599  18.391   2.995  11.639 -0.3081  0.1832 -0.0629
25736W        W26600  18.819  22.396  13.399 -0.0880  0.0534  0.2006
25737W        W26601   2.897  25.548   2.004  0.0623 -0.2106 -0.1442
25738W        W26602  14.987  15.096  11.240  0.0933  0.1516 -0.1317
25739W        W26603   6.554  19.185   1.678 -0.0124  0.0703  0.0928
25740W        W26604  20.507  27.874  12.437 -0.1818  0.0769 -0.0170
25741W        W26605   2.715  24.662  16.158 -0.1194 -0.0547  0.1361
25742W        W26606  12.604  16.796   6.031  0.0329 -0.0607 -0.2312
25743W        W26607  26.128  15.535   3.324  0.1970 -0.0150  0.3735
25744W        W26608  26.124   9.833   4.026 -0.3944  0.1297  0.1719
25745W        W26609  28.649  24.111   9.476  0.3462 -0.0775 -0.0252
25746W        W26610   0.060  27.824   8.992  0.0372 -0.3595  0.2011
25747W        W26611  23.172  15.876  12.154  0.0574 -0.0200  0.0851
25748W        W26612  15.080  15.054  22.118  0.0534  0.1957 -0.3056
25749W        W26613   2.257   2.747   4.635  0.0073 -0.0050  0.1172
25750W        W26614  24.903  17.182  13.625  0.2859  0.1129 -0.2365
25751W        W26615   9.501  25.076  12.981 -0.1099 -0.0780  0.0720
25752W        W26616  10.934   1.102  25.484  0.1095  0.0521 -0.2887
25753W        W26617   5.829  17.417   1.466  0.0742  0.1474 -0.0924
25754W        W26618   7.432  10.418  25.959 -0.0112  0.2327  0.2829
25755W        W26619  11.191  21.648   9.868  0.1232 -0.1146  0.1744
25756W        W26620  21.199  14.190  15.512 -0.0926  0.5020 -0.1999
25757W        W26621  22.330   2.623  24.181 -0.1019 -0.1223 -0.1372
25758W        W26622   7.028   1.976  23.560  0.0433  0.0721  0.1999
25759W        W26623   8.446  10.482   3.020 -0.3428 -0.2214 -0.3010
25760W        W26624   3.433   6.152  26.332  0.0772 -0.0763 -0.3491
25761W        W26625  21.595   1.834  17.546  0.0398  0.2637  0.0434
25762W        W26626  17.355  17.721   4.096 -0.0418 -0.0529 -0.0132
25763W        W26627   4.993  27.440  10.926 -0.0800 -0.0534 -0.0838
25764W        W26628  10.564  23.714  14.248 -0.1053  0.0122 -0.1478
25765W        W26629  24.514  15.753  25.471  0.2457  0.0114 -0.0018
25766W        W26630  15.068  21.738   7.981 -0.2049  0.1467  0.0276
25767W        W26631   5.123   3.350  21.943 -0.0322  0.0248 -0.1314
25768W        W26632   9.192   0.711  10.971 -0.2067 -0.1272  0.1182
25769W        W26633  12.871   1.522  11.475  0.1595 -0.4385  0.2537
25770W        W26634  19.280   8.352  19.878 -0.3005  0.1915  0.0754
25771W        W26635  10.072  19.902  20.916  0.2289 -0.1962 -0.1701
25772W        W26636  14.888  22.154  23.421  0.1926 -0.1846 -0.1935
25773W        W26637  15.503  15.450  11.298  0.1242  0.1987  0.3894
25774W        W26638  26.122   6.424  25.371  0.0973  0.0520 -0.0339
25775W        W26639  29.069   5.182  22.678 -0.1747 -0.0848  0.2384
25776W        W26640  23.284   0.308  26.987  0.1673  0.2569 -0.0500
25777W        W26641  19.830  29.085  25.714  0.0258  0.0527 -0.0901
25778W        W26642  26.969  10.329  12.685  0.0119 -0.1910  0.1304
25779W        W26643  14.648   0.926   1.885 -0.0900 -0.0802 -0.0786
25780W        W26644   7.894  22.905  19.690 -0.0202  0.0635  0.1494
25781W        W26645   2.883  17.764  17.342 -0.1041 -0.4382 -0.3449
25782W        W26646   7.679   7.411  14.036 -0.4496 -0.0801  0.1160
25783W        W26647  10.023   7.571  28.421  0.0493  0.3476  0.2102
25784W        W26648   8.139  26.950   4.012 -0.1381  0.1312 -0.4047
25785W        W26649  12.359  17.982  17.759 -0.0935 -0.1699 -0.4499
25786W        W26650   4.342  13.945   1.259 -0.0229 -0.0545 -0.0586
25787W        W26651  19.229   9.239  14.513 -0.0610 -0.0236  0.1318
25788W        W26652  26.079   9.600  19.802 -0.4045  0.0230  0.3115
25789W        W26653  20.966  15.643  26.375  0.1691  0.3360  0.1757
25790W        W26654   6.925  19.504   4.798 -0.1055  0.0736 -0.1362
25791W        W26655   1.264  26.294  20.889 -0.2807  0.1406  0.2671
25792W        W26656  11.064   9.397  27.299 -0.1216 -0.1549 -0.0434
25793W        W26657  25.568  24.684   0.092 -0.3192 -0.1407  0.1001
25794W        W26658  24.488   4.211  22.886  0.1969 -0.0149 -0.0354
25795W        W26659   7.099   8.201  11.596  0.2274 -0.1818 -0.2601
25796W        W26660   7.257  27.504  16.420 -0.1963 -0.1951 -0.3622
25797W        W26661  14.558  26.660  29.105  0.0864  0.1807  0.0825
25798W        W26662  22.345   9.082  15.139  0.3459 -0.2339 -0.0122
25799W        W26663  20.362  11.615  16.740 -0.3571  0.1650 -0.2431
25800W        W26664   7.873  26.362  26.386  0.0182  0.1107 -0.4191
25801W        W26665  20.963  17.549  25.145 -0.4982  0.1145  0.3808
25802W        W26666  26.455   4.462  21.203  0.0945 -0.0507  0.0542
25803W        W26667  10.872  24.141   6.141 -0.0882 -0.1054  0.1448
25804W        W26668   7.416   0.789   8.110  0.0322  0.0826  0.3823
25805W        W26669  25.740   0.813   9.196 -0.2989 -0.0609 -0.1417
25806W        W26670  25.295  26.069  28.797  0.1829  0.0357  0.0722
25807W        W26671   9.797  20.437   6.221  0.1522  0.3598 -0.1528
25808W        W26672  16.549  17.726   2.115 -0.1323 -0.3729 -0.0639
25809W        W26673   1.400  11.210  11.542 -0.0982 -0.6372 -0.0295
25810W        W26674   3.461   3.130  28.320 -0.1795 -0.0699 -0.1936
25811W        W26675   7.073  24.978   5.644  0.0944  0.1623  0.1771
25812W        W26676  10.094  22.881  19.781  0.0725  0.2324  0.0054
25813W        W26677  25.665  26.517   7.740 -0.1755 -0.0363  0.2148
25814W        W26678  22.539  10.338  20.736  0.1813  0.2701  0.2820
25815W        W26679  28.670   8.394  20.893 -0.0363  0.4931  0.0789
25816W        W26680  25.331   0.634   4.770  0.1629  0.1842 -0.2346
25817W        W26681  16.464  18.559   7.160 -0.0536  0.1124 -0.3877
25818W        W26682  20.243  26.117   2.082  0.1508  0.0285 -0.1738
25819W        W26683   7.635  29.144  10.506 -0.1499 -0.0458 -0.0412
25820W        W26684  11.849  20.245   4.374 -0.0773  0.0626  0.2759
25821W        W26685  18.139   7.043  20.246  0.1273  0.1435 -0.0560
25822W        W26686   6.487  27.803   2.017  0.2114  0.2667  0.3434
25823W        W26687  12.012   3.537  19.717 -0.0570 -0.1084 -0.3561
25824W        W26688   4.323   8.257   5.563 -0.1208  0.1848  0.1275
25825W        W26689   0.705  14.009  20.707 -0.1995 -0.0070  0.0857
25826W        W26690  13.018  19.322   0.524 -0.0131 -0.0717  0.2305
25827W        W26691  18.911  14.847   3.260  0.1104 -0.0426 -0.2903
25828W        W26692  14.815  21.677   6.297 -0.2711 -0.0012 -0.2505
25829W        W26693  18.086   6.982  18.937  0.0791  0.0357 -0.1419
25830W        W26694  20.488   6.273  13.533  0.0664 -0.1595 -0.2502
25831W        W26695  20.493  25.056  22.471  0.0205  0.0963  0.0657
25832W        W26696  17.690  18.203  15.338  0.0317 -0.0981  0.2356
25833W        W26697  21.204  13.898  18.460  0.2161 -0.0649 -0.0089
25834W        W26698  29.128  24.361  22.185 -0.0660 -0.1612  0.0216
25835W        W26699   6.712  11.630   4.603 -0.0464  0.1405  0.2041
25836W        W26700  14.540  23.850  27.130  0.1552  0.0038  0.0167
25837W        W26701  11.727  26.419   4.518  0.1738 -0.0349 -0.0105
25838W        W26702  16.829  13.936  16.407 -0.0307  0.4131 -0.3867
25839W        W26703  25.713  26.668   2.007  0.1848  0.3091 -0.2122
25840W        W26704  24.303  22.405  10.624  0.2534 -0.0553 -0.0307
25841W        W26705  26.836  27.597   4.523  0.0883  0.1078 -0.0170
25842W        W26706  20.307  20.995   5.337 -0.0474 -0.1491 -0.1315
25843W        W26707  21.400   7.951  13.862  0.1873  0.4404 -0.2722
25844W        W26708  10.048  25.790   8.424 -0.2978  0.1461 -0.0279
25845W        W26709   5.656   1.787  26.852  0.0994  0.2081 -0.1206
25846W        W26710  23.768  21.089  28.437 -0.0077  0.4076  0.0940
25847W        W26711  26.700  28.792  13.491  0.2055  0.2476 -0.0935
25848W        W26712   8.049   2.916  13.868 -0.0801  0.2779 -0.2243
25849W        W26713  14.641  21.699  27.940 -0.1731  0.2722 -0.1570
25850W        W26714  16.392   9.917  18.750 -0.2460  0.1046 -0.0176
25851W        W26715  16.328   9.018  19.008 -0.0603  0.0335 -0.0907
25852W        W26716  21.297   5.283  21.156  0.0177 -0.1630  0.5230
25853W        W26717  23.516   9.908  26.595  0.2732 -0.1929  0.0651
25854W        W26718  18.430   6.364  12.812  0.1297 -0.3119  0.1050
25855W        W26719  16.223  20.375  13.920  0.0562  0.0258 -0.3923
25856W        W26720  10.680  17.185  18.912 -0.1029  0.0457 -0.2143
25857W        W26721   9.958  24.020   5.890 -0.1533  0.0349 -0.0547
25858W        W26722  25.992   2.817   9.650 -0.3315  0.0201 -0.1206
25859W        W26723  23.088  23.014  27.501 -0.0932 -0.2197  0.2585
25860W        W26724   7.087  27.162  19.456 -0.3370 -0.1117  0.2828
25861W        W26725  19.766   1.532  27.550  0.2786 -0.2551  0.1957
25862W        W26726  15.362  28.591   4.783 -0.0007 -0.2029  0.1464
25863W        W26727  12.547  15.972   2.951 -0.2050 -0.0179  0.0580
25864W        W26728  10.104  12.812  27.690 -0.2251  0.2596  0.0578
25865W        W26729  19.482  15.959  21.088  0.0519  0.1860  0.2950
25866W        W26730   6.565  29.068  28.909 -0.1096  0.2102  0.0827
25867W        W26731   2.344   5.626  10.851  0.0451 -0.1186 -0.1752
25868W        W26732   1.492   0.465  18.020 -0.1477 -0.0257  0.0321
25869W        W26733  21.036  12.926  11.170 -0.1294 -0.1000 -0.0946
25870W        W26734  28.170  14.184  13.462  0.2056 -0.0040  0.1770
25871W        W26735  15.360  22.245   9.487  0.0499 -0.2054 -0.1567
25872W        W26736  12.505  11.785  12.927 -0.0135 -0.0980 -0.1871
25873W        W26737  18.145   0.134  24.178  0.0184  0.5195  0.0553
25874W        W26738  19.689  22.081   7.157 -0.1689  0.1088 -0.4186
25875W        W26739   9.791   5.077  21.359  0.1344  0.0611  0.0247
25876W        W26740   7.770  14.227  14.384 -0.2043 -0.1741 -0.1102
25877W        W26741  16.115  12.168   6.020 -0.0955  0.2867 -0.1810
25878W        W26742   1.693  20.672   0.689  0.0684  0.0520  0.1050
25879W        W26743  18.945  25.211   4.131  0.2386  0.0829  0.0655
25880W        W26744  27.369  13.506  11.781 -0.4194  0.0212 -0.4318
25881W        W26745   9.536  24.667   7.090 -0.0683  0.1479 -0.2385
25882W        W26746  18.894   2.588  19.175  0.3848 -0.0612  0.2268
25883W        W26747   7.802  28.467   3.312 -0.0083  0.0471 -0.3706
25884W        W26748  12.451  25.915  18.662  0.0109 -0.2670 -0.1755
25885W        W26749  15.592   5.000   3.868 -0.0275 -0.0748 -0.1030
25886W        W26750  25.529  23.995  10.342  0.0980  0.1478  0.1541
25887W        W26751  11.437   7.041   8.763 -0.2024  0.2886  0.1768
25888W        W26752  25.102  25.399  11.977  0.0734 -0.0916 -0.2429
25889W        W26753   2.748  25.266  10.648 -0.1826 -0.1927 -0.0442
25890W        W26754   5.851  21.345   5.912 -0.1367 -0.1198 -0.0434
25891W        W26755  29.144  26.341   3.804 -0.1341 -0.2339 -0.0910
25892W        W26756  27.792  23.521   1.607  0.1185  0.2085  0.1860
25893W        W26757  24.468  26.206  10.500 -0.0234  0.0522  0.0160
25894W        W26758   7.456   7.524   9.792  0.3943 -0.0603  0.0272
25895W        W26759  12.555  24.049  16.562  0.2252 -0.1598  0.1312
25896W        W26760   0.209   3.592  11.823  0.2738  0.0819  0.2015
25897W        W26761  17.256  25.165  26.216  0.1782 -0.1284 -0.1774
25898W        W26762  22.258   9.628  15.474  0.1609 -0.1617  0.1327
25899W        W26763  23.404  10.412   5.544 -0.0769  0.0435  0.3011
25900W        W26764  18.521   6.628  23.992  0.1137 -0.0197 -0.3544
25901W        W26765  11.081   9.664  18.479 -0.1188 -0.1784 -0.0018
25902W        W26766  16.250  23.852  19.569  0.0958 -0.1684  0.1287
25903W        W26767  18.555   2.286   4.371  0.1639 -0.1490 -0.0983
25904W        W26768  28.465  25.109  17.108 -0.0616  0.0156 -0.2344
25905W        W26769   3.229  24.199  20.213  0.1126 -0.1336  0.6325
25906W        W26770  23.484  12.145  13.338  0.2021  0.2453  0.0623
25907W        W26771  21.135   0.379   4.405 -0.0845 -0.0818  0.1487
25908W        W26772  19.086   4.502   7.115 -0.1070  0.0723  0.4485
25909W        W26773  24.249   0.531  27.128 -0.0945  0.0366 -0.1852
25910W        W26774   0.243  27.941   9.461 -0.0894 -0.1577 -0.0628
25911W        W26775  24.175  13.345  20.093  0.2822  0.0568 -0.0066
25912W        W26776  24.629  22.449  16.512  0.0582 -0.0738  0.1919
25913W        W26777   8.991  24.114   6.494 -0.0019 -0.2861 -0.0922
25914W        W26778  23.299  25.828   4.184 -0.1455 -0.2633  0.0557
25915W        W26779  16.148  27.185   7.913 -0.0208 -0.2448  0.5153
25916W        W26780   0.830  17.139  19.053  0.2542 -0.1795  0.1006
25917W        W26781  22.045  18.318   3.294  0.1063  0.1182 -0.0537
25918W        W26782   5.060  26.601   8.164 -0.1694  0.1018  0.0828
25919W        W26783  15.629   0.542  26.542 -0.0136 -0.0975 -0.0554
25920W        W26784   2.334   1.319  21.577  0.0470  0.2335  0.1331
25921W        W26785  22.827  24.646  10.409  0.0392 -0.1353 -0.0551
25922W        W26786  12.797  14.292  18.080  0.1274  0.0924  0.0032
25923W        W26787   6.394  23.405  26.537  0.1305  0.2893 -0.3962
25924W        W26788   3.207  15.617  13.644  0.0261  0.1196  0.1613
25925W        W26789   5.687  26.668  17.077  0.2834  0.3131 -0.4059
25926W        W26790  24.046   2.649  14.523 -0.0142 -0.3416  0.3513
25927W        W26791   4.803  25.420  27.679 -0.0161 -0.1000 -0.0363
25928W        W26792  13.536  10.592  16.742  0.0510  0.2745 -0.0597
25929W        W26793  28.279   7.578  22.125  0.0020 -0.4086  0.0119
25930W        W26794   7.247  28.273   2.920  0.0676 -0.1649 -0.0197
25931W        W26795  15.090  11.364   4.091 -0.0066  0.1363  0.1307
25932W        W26796  21.684   6.503  20.818 -0.0256  0.0036 -0.3854
25933W        W26797   1.469   8.935  27.437 -0.2189  0.0244 -0.5737
25934W        W26798  21.813  21.399  15.864 -0.0821 -0.2868 -0.2021
25935W        W26799   3.004  13.495   8.019  0.2236 -0.0779  0.1692
25936W        W26800  12.002   2.803  27.443  0.1053 -0.1609 -0.0274
25937W        W26801  25.594  14.127   7.059  0.1442 -0.1549 -0.0893
25938W        W26802   9.797  15.812  26.236 -0.1219 -0.1713 -0.2923
25939W        W26803  11.356  21.845  12.885  0.0509  0.0309  0.3188
25940W        W26804  15.466  14.192   0.129  0.0919 -0.0184 -0.0882
25941W        W26805   2.217  22.350   8.853 -0.2371  0.0933  0.0763
25942W        W26806  24.754   4.524  14.230 -0.4337  0.3248  0.0212
25943W        W26807  20.155   0.594  16.742 -0.0775 -0.2015 -0.0712
25944W        W26808   7.304  27.049   7.855  0.0143 -0.0219  0.0218
25945W        W26809   8.263   6.698  18.654  0.3077  0.2979  0.1464
25946W        W26810  15.745  12.355   1.142  0.1021 -0.0168 -0.2047
25947W        W26811  21.868   4.783  19.233 -0.3261  0.4133 -0.0084
25948W        W26812  18.124  24.733   2.754  0.2091 -0.0714 -0.1124
25949W        W26813   1.227   6.848   1.290 -0.2621 -0.2918  0.0818
25950W        W26814   1.504  16.344   9.949  0.0575  0.0867 -0.3751
25951W        W26815  25.233  18.938   2.520  0.0901 -0.1458  0.2385
25952W        W26816  15.384  14.894  17.491 -0.4009  0.1148  0.1726
25953W        W26817  20.141  26.329   4.485  0.1154  0.0523 -0.1063
25954W        W26818  11.631  24.319  28.606 -0.1694  0.1555 -0.1005
25955W        W26819  20.047  19.263  26.697  0.3216  0.0907  0.2559
25956W        W26820   8.729  18.145   5.530 -0.0015  0.1823  0.1069
25957W        W26821   8.222   8.908   6.185  0.1453  0.2251 -0.0223
25958W        W26822   2.885  24.746  19.608 -0.0586  0.0870 -0.0286
25959W        W26823  11.292  10.380   4.479  0.0974  0.0622  0.1604
25960W        W26824  13.603  21.179   0.401  0.0158  0.1819  0.2717
25961W        W26825   3.230  17.912   2.652 -0.3251  0.1926 -0.2526
25962W        W26826  20.865   6.349  10.238  0.1734  0.2718 -0.3403
25963W        W26827  20.588  11.163  19.564 -0.1489  0.3062 -0.1026
25964W        W26828   2.251   7.813  27.702 -0.4694  0.1851 -0.1619
25965W        W26829   2.837  23.899  15.591 -0.0835 -0.1338  0.0888
25966W        W26830   6.549  14.312   7.855  0.0159 -0.1073  0.0759
25967W        W26831  12.534   0.177   9.676 -0.2659 -0.4482  0.0732
25968W        W26832   0.038   0.817   3.382 -0.0871  0.1192 -0.0268
25969W        W26833  10.711  26.797  24.161 -0.1561 -0.1917 -0.1548
25970W        W26834   3.733  11.117  11.080 -0.1152  0.2810  0.1949
25971W        W26835  21.431  24.762  24.833 -0.0603  0.0265 -0.1521
25972W        W26836  12.480   1.896  27.519 -0.1382 -0.1759 -0.3892
25973W        W26837  12.719  19.365   1.106  0.0969  0.0583 -0.0332
25974W        W26838  11.602  17.293  23.340 -0.1326  0.1337 -0.1258
25975W        W26839  19.981   4.368  21.750  0.0393 -0.0871  0.0421
25976W        W26840  15.109  21.783   8.562 -0.0987  0.0298  0.1707
25977W        W26841   0.972   5.800  16.590 -0.1517  0.0653 -0.1862
25978W        W26842  23.713   2.617   5.154  0.1349  0.0682  0.2269
25979W        W26843  19.889   2.459  14.594  0.4223  0.0924 -0.2144
25980W        W26844  18.480   8.381  10.102 -0.1031  0.2302 -0.1856
25981W        W26845   8.772   7.187  15.074 -0.2594  0.2043 -0.1791
25982W        W26846   0.146  12.727   9.984  0.1314 -0.0473  0.2974
25983W        W26847   7.733   9.106  14.174 -0.0339 -0.2385  0.1119
25984W        W26848  27.554  15.131  14.742 -0.0666 -0.0492  0.0142
25985W        W26849   5.380  24.603  24.077  0.1159 -0.2019  0.2923
25986W        W26850   3.598   4.638  10.108  0.1375  0.2187 -0.0758
25987W        W26851  22.211  23.498  28.537 -0.0445  0.0933 -0.1053
25988W        W26852  27.383  22.779   8.131 -0.0444 -0.1730  0.3493
25989W        W26853  17.871   0.354  11.720 -0.0424  0.0772 -0.0987
25990W        W26854  13.769   0.520   5.078 -0.0463 -0.0142  0.1023
25991W        W26855   8.763  23.866  29.064  0.0197  0.0068  0.2190
25992W        W26856  19.800   9.085   1.574 -0.0250 -0.1377  0.0448
25993W        W26857  12.408  22.085   2.624  0.3250 -0.0313 -0.1018
25994W        W26858  22.832  22.810   8.421 -0.1106 -0.2103  0.1859
25995W        W26859   7.543  26.840  26.076 -0.1327  0.3059 -0.2638
25996W        W26860  14.146  16.974  25.942  0.3201  0.1818 -0.2761
25997W        W26861  22.957  26.372   4.169 -0.0488  0.2307 -0.3143
25998W        W26862   6.886  24.589   2.282  0.0918 -0.2011  0.0052
25999W        W26863   7.421  11.269   1.327 -0.1177 -0.2785 -0.3165
26000W        W26864  16.752  24.689   8.685 -0.2251 -0.1210 -0.0303
26001W        W26865  28.734   1.841   7.384 -0.0080  0.4077  0.0794
26002W        W26866   1.519  23.322   4.492 -0.2605  0.1174 -0.3939
26003W        W26867  12.070   6.275  22.921  0.1239 -0.2257 -0.0372
26004W        W26868  23.310   8.781   5.128  0.1632  0.0267 -0.1366
26005W        W26869  18.233  18.795   8.427  0.2267  0.1105  0.0270
26006W        W26870   9.225  19.501  12.332  0.4134 -0.0488  0.0406
26007W        W26871   6.229  19.926  13.577  0.1466 -0.2045 -0.1552
26008W        W26872  21.601  25.860   6.236 -0.1131 -0.0156 -0.2958
26009W        W26873  21.000   2.720   5.880  0.0765 -0.1989  0.4419
26010W        W26874  28.289  27.104  15.303  0.3125  0.0993 -0.0115
26011W        W26875  21.168  12.090  10.523 -0.1404 -0.2586  0.0604
26012W        W26876  13.755  16.001  17.356  0.0351 -0.1862  0.1109
26013W        W26877  13.907   2.196  12.771  0.2610  0.1168  0.0149
26014W        W26878  14.378  28.010   4.239  0.1953  0.1018 -0.1254
26015W        W26879  23.686  26.291  10.578 -0.1351  0.0427 -0.2278
26016W        W26880   2.480   5.994   3.554 -0.0591  0.0833 -0.1127
26017W        W26881  15.408  14.921  23.483 -0.1593 -0.1805 -0.1704
26018W        W26882  16.244  10.040   3.797  0.2717 -0.0707 -0.3022
26019W        W26883  11.822  22.612   3.204 -0.0194  0.2147 -0.2313
26020W        W26884   0.219   4.383   0.004 -0.1523  0.0805 -0.0415
26021W        W26885   9.562  20.941  20.229 -0.1563 -0.1566  0.0536
26022W        W26886  22.597   1.669  24.041  0.0239  0.2061 -0.0609
26023W        W26887  11.036  27.128  19.864  0.2461 -0.3852  0.2188
26024W        W26888  18.395  21.667  23.254  0.0030 -0.1792 -0.0689
26025W        W26889  25.396  24.518  13.291  0.3118 -0.3288 -0.2234
26026W        W26890  23.005  18.559   2.820 -0.1918 -0.1239 -0.1925
26027W        W26891   4.951   0.667   3.445 -0.2078  0.0001 -0.0755
26028W        W26892  22.412  11.353   1.893 -0.3009  0.1829 -0.2572
26029W        W26893   5.346  19.083  28.515 -0.2716 -0.1293 -0.0701
26030W        W26894  24.587  19.894  21.906 -0.4039  0.1762 -0.0126
26031W        W26895  18.868   0.512  14.441 -0.2458 -0.2798 -0.0485
26032W        W26896  12.862   8.498  11.095  0.1205  0.1892 -0.0029
26033W        W26897  18.584  26.131  18.819 -0.1646  0.1900  0.0058
26034W        W26898  14.135   8.264  10.515  0.1190 -0.0386  0.0081
26035W        W26899  24.171  23.612  26.413 -0.1554  0.2317 -0.1042
26036W        W26900   7.795   2.947  10.320 -0.1998  0.1606 -0.1482
26037W        W26901  18.285   1.810   9.629 -0.3167 -0.0240  0.1093
26038W        W26902  22.594  21.266  11.967  0.0092 -0.1139  0.0069
26039W        W26903  25.313   5.609   9.023  0.2819  0.1460 -0.1439
26040W        W26904  24.209  25.600  27.506  0.2486 -0.0121  0.1734
26041W        W26905   7.361  24.576   7.937 -0.4556 -0.2934 -0.1011
26042W        W26906  20.665   2.255  10.746 -0.3084  0.2825  0.2269
26043W        W26907  26.245   0.606   8.828  0.0606 -0.0939 -0.2093
26044W        W26908  18.198  22.779   0.165 -0.2844  0.1335 -0.0782
26045W        W26909  11.300  18.855   0.251 -0.2051  0.0183  0.1029
26046W        W26910  22.062  24.565  14.003  0.0150  0.1743 -0.0589
26047W        W26911  12.108  22.385   2.851  0.2474  0.0554 -0.1307
26048W        W26912  15.445  23.852  26.545 -0.2398 -0.2647 -0.0132
26049W        W26913  19.901  28.527  15.616  0.0503  0.1717 -0.1644
26050W        W26914  11.296  12.514  25.505  0.1174  0.0090 -0.0055
26051W        W26915  12.250  27.378   3.923  0.2175 -0.0575  0.1266
26052W        W26916  18.489   4.442  16.446 -0.0794 -0.1277  0.0538
26053W        W26917  11.390  27.163   9.687 -0.0482 -0.0638  0.2014
26054W        W26918  25.076  25.612   2.803  0.0692  0.0106 -0.0206
26055W        W26919   1.878  13.962  12.838  0.0619  0.1480 -0.1147
26056W        W26920  14.794  19.819   7.808 -0.0069 -0.0780  0.0786
26057W        W26921  21.241   1.975   8.074  0.3797 -0.0995 -0.0473
26058W        W26922  14.433  16.185  13.534  0.1568  0.0741  0.0635
26059W        W26923  16.845  25.034  16.255  0.0026  0.0910 -0.1407
26060W        W26924  24.087   7.959  10.975 -0.0494  0.0124 -0.0962
26061W        W26925  10.308  24.939  21.666  0.3514 -0.0763  0.1920
26062W        W26926  19.454  19.015   4.567  0.1586  0.0428  0.4434
26063W        W26927   5.856  19.443   4.339 -0.3296  0.1156 -0.0817
26064W        W26928   4.178  15.155   9.867  0.1378  0.2245 -0.1359
26065W        W26929   7.483   7.320  20.240  0.0299 -0.1778  0.3575
26066W        W26930   8.848   0.312  12.377  0.2575 -0.2853  0.0648
26067W        W26931  12.144  20.356  16.488  0.2364  0.0963 -0.1165
26068W        W26932   1.435  12.984  16.987  0.1626  0.2159  0.0458
26069W        W26933  29.125  13.422  12.143  0.1445 -0.2055  0.0473
26070W        W26934  18.666  11.109   0.566  0.2109  0.0604  0.0040
26071W        W26935  24.251   4.136  28.390  0.1236 -0.0354 -0.0291
26072W        W26936  13.076  17.943   3.670  0.1048 -0.2067  0.1607
26073W        W26937  27.870  23.659  18.849  0.0453  0.0329  0.0625
26074W        W26938  18.794  18.195   1.192  0.1689 -0.0111 -0.0220
26075W        W26939  18.671  17.299  23.271  0.2975  0.1143  0.1205
26076W        W26940   3.858  27.102   5.073 -0.1820  0.0145  0.2398
26077W        W26941   4.309  17.667  18.666 -0.1030  0.1822 -0.0504
26078W        W26942  18.022   1.236  26.269 -0.5288  0.1343 -0.0966
26079W        W26943  13.690   1.766  19.139  0.2854  0.2498  0.0845
26080W        W26944   9.115  22.995  12.467 -0.1104 -0.0449 -0.3237
26081W        W26945  19.558  23.000  18.123  0.1244 -0.3729  0.3561
26082W        W26946  18.193  23.923   8.727  0.1637 -0.1664  0.3022
26083W        W26947  26.767  28.570  11.759 -0.3103  0.1472  0.2224
26084W        W26948  18.397  22.966   4.009 -0.2291 -0.2503 -0.3211
26085W        W26949   2.189  26.572  25.657 -0.2162  0.3183  0.0688
26086W        W26950  24.898  27.371   9.364  0.0690  0.0308  0.4512
26087W        W26951  24.841   0.765  15.395 -0.2184 -0.0668  0.2034
26088W        W26952   6.871  24.807  28.717 -0.2372  0.0703 -0.0116
26089W        W26953   0.225  15.021  11.783  0.0685  0.1054  0.0541
26090W        W26954  16.023   8.598  13.856  0.2115 -0.0199  0.1950
26091W        W26955  18.894   0.468   2.788 -0.3564  0.1697  0.1564
26092W        W26956   9.510   7.362   9.134  0.2998 -0.1518  0.1549
26093W        W26957  10.006  14.106  10.750  0.2041  0.1767 -0.0625
26094W        W26958  16.301  15.609   9.457  0.0394 -0.1075 -0.2022
26095W        W26959  19.175  19.350  10.244 -0.2063  0.2107 -0.1164
26096W        W26960  18.698   4.362  13.926  0.1071 -0.0490  0.2292
26097W        W26961   5.912  12.090   6.535 -0.2108 -0.2351 -0.2247
26098W        W26962  19.203  20.432   8.513 -0.0047  0.1098 -0.0932
26099W        W26963  19.082  22.799  25.506 -0.0037 -0.3445  0.1593
26100W        W26964  13.082   1.595  28.215 -0.0692  0.3408 -0.1950
26101W        W26965   3.134   5.203   2.991  0.0310 -0.1758 -0.0036
26102W        W26966  25.028   2.540   7.026 -0.0903 -0.0027  0.3140
26103W        W26967  10.102   8.526  25.707  0.0046  0.2188 -0.2412
26104W        W26968  18.373  22.894   1.938  0.0359 -0.2121  0.1269
26105W        W26969   3.384   7.577  24.956  0.3363 -0.0646  0.0096
26106W        W26970  16.006  23.698  12.324 -0.4884  0.1039  0.1722
26107W        W26971  27.961  20.912  11.519  0.6577 -0.0285  0.2169
26108W        W26972  26.818   0.956  16.362 -0.1754  0.0389  0.0544
26109W        W26973  16.798  19.956  22.615 -0.0431  0.3694 -0.0483
26110W        W26974  21.555   9.437   4.884  0.0323 -0.0279 -0.1655
26111W        W26975  12.864  14.943   7.664  0.0477 -0.1061  0.4544
26112W        W26976   6.924  14.051   7.596  0.0089  0.2824 -0.1617
26113W        W26977   6.595   0.061   8.891  0.1427 -0.1505 -0.0929
26114W        W26978   5.510   2.005  21.828 -0.3705 -0.0529 -0.4269
26115W        W26979   7.248   1.589   8.101  0.1499 -0.2431 -0.0888
26116W        W26980   5.872   4.144   0.468  0.1215 -0.2433  0.3502
26117W        W26981  20.947   5.052  13.981 -0.2881 -0.0597 -0.3228
26118W        W26982   0.513  17.587  11.651 -0.4005  0.3570 -0.2869
26119W        W26983   6.284   7.292  23.823 -0.2074 -0.4617  0.0185
26120W        W26984  19.766   2.003  14.356 -0.1234 -0.0901 -0.1752
26121W        W26985  23.997   5.107   1.244 -0.2293 -0.1994  0.1445
26122W        W26986  16.564   3.869   0.097 -0.0021  0.1199  0.1512
26123W        W26987  20.997  13.235  25.281 -0.0258 -0.2090  0.0911
26124W        W26988   6.040   7.915  14.715 -0.1124  0.3107 -0.2086
26125W        W26989   7.411   7.953   5.584  0.1584 -0.0406  0.1515
26126W        W26990   1.558  28.704  13.369 -0.0304 -0.0500 -0.0303
26127W        W26991  16.295   9.872   0.378 -0.0010 -0.0796 -0.0512
26128W        W26992   0.307  16.874  20.109  0.3058  0.0224  0.1384
26129W        W26993   2.548  27.888   9.841  0.1715 -0.3149 -0.3590
26130W        W26994  20.925   0.446  25.140 -0.1824 -0.2316 -0.2956
26131W        W26995   7.561   4.056  18.065  0.1112  0.2265  0.0028
26132W        W26996  19.589  18.779   6.201 -0.1063  0.1272 -0.0798
26133W        W26997  24.304  10.223   0.194  0.2793 -0.2092 -0.1044
26134W        W26998  20.879  28.278   8.367  0.0541 -0.0961 -0.0144
26135W        W26999  21.298  23.825  16.082 -0.0611  0.1865 -0.1888
26136W        W27000  15.784   6.887   5.538  0.0930 -0.3100 -0.2586
26137W        W27001  23.891   4.589  25.873  0.1409  0.0442  0.2867
26138W        W27002  21.476  18.512  18.074  0.0775  0.0101  0.2449
26139W        W27003  12.088  26.366  10.878 -0.3028 -0.3263 -0.0300
26140W        W27004  27.361  18.184  12.014 -0.2115 -0.1775  0.1749
26141W        W27005  19.269  23.683  22.879  0.1057 -0.0361 -0.1586
26142W        W27006  20.103  13.226  20.806  0.2347  0.0686  0.1076
26143W        W27007   2.897   1.754  23.238  0.1486  0.2111 -0.2211
26144W        W27008  15.104  28.990   4.438 -0.0343 -0.0433 -0.1327
26145W        W27009  13.034  27.405  14.024 -0.0806 -0.1584 -0.1964
26146W        W27010  17.829   9.984  18.828 -0.1092 -0.3159 -0.0996
26147W        W27011  19.932   1.628  23.952  0.1984  0.3250  0.0031
26148W        W27012  16.648  13.318  16.440  0.2533  0.2098  0.1952
26149W        W27013  28.257  22.989  27.681  0.2222  0.2886 -0.1135
26150W        W27014  15.991  26.748   4.954 -0.1441  0.0931 -0.3392
26151W        W27015  11.617   5.625   9.664  0.2248 -0.2244 -0.2622
26152W        W27016  10.124  16.101  13.116  0.0455  0.2820 -0.3069
26153W        W27017  13.647  20.052  13.217 -0.3289 -0.3995 -0.0220
26154W        W27018  19.992   0.942  28.589  0.3140  0.1276  0.2993
26155W        W27019  20.594  24.874  14.329  0.0049  0.1557  0.4845
26156W        W27020   1.877  17.461   1.719 -0.0228  0.0677  0.2194
26157W        W27021  28.374  17.277   5.716  0.1330  0.0691 -0.2736
26158W        W27022   3.140   1.882   7.580 -0.0091  0.0699 -0.1180
26159W        W27023  19.729   1.407  15.790 -0.0762 -0.1935  0.1185
26160W        W27024  14.255   0.064  10.190 -0.1444  0.1235  0.1862
26161W        W27025  22.790  17.135   1.599  0.1393  0.1922 -0.3756
26162W        W27026  19.680  26.088  14.538 -0.3138 -0.2682 -0.1907
26163W        W27027  11.966  17.119  22.340 -0.1309  0.1875 -0.0079
26164W        W27028  24.877  29.036  13.718  0.4736  0.0853 -0.0153
26165W        W27029   1.662   9.622  22.367  0.0835 -0.1588  0.1313
26166W        W27030  24.300  27.930  23.390  0.0498  0.1698  0.0082
26167W        W27031  22.208  28.587  10.457 -0.0729  0.1308 -0.0007
26168W        W27032  19.245   3.087   6.267 -0.0865  0.0958  0.1115
26169W        W27033   1.703  13.740  24.001 -0.0256  0.0795 -0.1068
26170W        W27034  22.481  10.463  25.708 -0.0205 -0.1769 -0.0909
26171W        W27035  22.338   0.331  13.008 -0.1731  0.0550 -0.1330
26172W        W27036  11.858   7.689  10.116  0.2139 -0.2990 -0.1500
26173W        W27037  11.505  20.361   9.011 -0.0190 -0.0095  0.1170
26174W        W27038  14.669  24.726   5.453 -0.1590 -0.1778 -0.0369
26175W        W27039   9.102  21.962  16.295 -0.2836 -0.1615 -0.1072
26176W        W27040  10.879  28.829  14.320  0.2315  0.0997 -0.0840
26177W        W27041  12.708  22.427  11.135  0.0706 -0.0721 -0.1486
26178W        W27042  17.227  25.471  16.149  0.1960 -0.2020 -0.1348
26179W        W27043   1.085  16.815   8.356  0.0851 -0.2332 -0.1591
26180W        W27044   8.214   0.105  22.199  0.1106 -0.1540 -0.2639
26181W        W27045   3.518  14.582  10.492  0.2175  0.3575  0.1668
26182W        W27046  27.320  25.487   2.633  0.3184 -0.2538  0.0685
26183W        W27047  15.920  22.360   8.271  0.0500 -0.0542  0.2048
26184W        W27048  23.264  24.207  10.565 -0.2474 -0.1656  0.1840
26185W        W27049  23.231   4.593  13.790 -0.2454  0.1735 -0.2636
26186W        W27050  22.997  27.184  15.672 -0.1882  0.0464  0.2670
26187W        W27051  21.852  16.007  10.277 -0.1053 -0.3589  0.0368
26188W        W27052  22.320  17.220   4.482 -0.1367  0.1244 -0.1382
26189W        W27053  18.992  27.616  27.973  0.0678  0.1364 -0.0817
26190W        W27054  20.241   8.208  24.500  0.0265  0.1099 -0.0155
26191W        W27055   9.741  10.114   7.999  0.1613 -0.2210 -0.0719
26192W        W27056   2.779  16.692   8.639  0.1772 -0.0271 -0.1713
26193W        W27057   9.942   5.691   8.885  0.0126  0.1018  0.2062
26194W        W27058   5.103   6.310   3.611  0.0784 -0.1860 -0.0669
26195W        W27059  17.643   1.145  25.864 -0.0464 -0.3149  0.1748
26196W        W27060  25.996  26.232  18.189  0.4323 -0.1859 -0.1243
26197W        W27061  16.406  22.115  11.862  0.1721 -0.0857 -0.0288
26198W        W27062  19.276  13.873   9.304 -0.3823 -0.0463  0.1962
26199W        W27063  13.969  10.925  16.435 -0.3757  0.1787  0.0411
26200W        W27064   6.472   0.605  25.943  0.0092 -0.2525  0.1190
26201W        W27065  23.751  14.035   4.359  0.1988  0.3462  0.0104
26202W        W27066  12.241   0.007   4.660  0.1081 -0.1538  0.0654
26203W        W27067   6.360  20.171  11.281  0.0051 -0.1087 -0.1619
26204W        W27068   1.694  10.357   6.499 -0.1648  0.2020  0.2407
26205W        W27069  17.909   0.129  10.541  0.2348  0.0107 -0.3259
26206W        W27070  15.944  24.652  16.020 -0.1336  0.2624  0.1568
26207W        W27071  16.579  15.281  20.334 -0.0258  0.1591 -0.2066
26208W        W27072  18.344   6.969  17.164  0.1106 -0.0408 -0.0677
26209W        W27073  21.849  24.946   7.205  0.0678  0.0837  0.0663
26210W        W27074  15.104   1.879  13.558 -0.3057  0.1200 -0.2444
26211W        W27075  25.403   9.716   3.344 -0.1975  0.1157  0.1322
26212W        W27076  19.618   4.450  11.120 -0.1011  0.0193  0.1986
26213W        W27077  23.686  22.311  16.285 -0.2107 -0.0640 -0.2200
26214W        W27078  16.845  24.412  24.834  0.0686 -0.2224  0.0618
26215W        W27079  18.923  26.110   8.780  0.0753  0.0669 -0.1517
26216W        W27080   1.632  28.533  21.846 -0.0276  0.0996  0.1107
26217W        W27081  16.782  25.358  24.527  0.0379 -0.0039 -0.1123
26218W        W27082  20.372  11.916  11.993  0.2153  0.1633  0.2298
26219W        W27083  26.836   5.971  20.015  0.3485  0.1020 -0.4143
26220W        W27084  16.524   5.955   3.315  0.0715  0.1575 -0.2261
26221W        W27085  22.202  19.962   7.515  0.3656  0.1943 -0.3024
26222W        W27086  12.059  18.024  16.424  0.1766  0.0794  0.1970
26223W        W27087  11.515  26.546  14.871  0.0564  0.1303 -0.0776
26224W        W27088  19.620  24.716  25.374  0.2792  0.0679 -0.0290
26225W        W27089  23.373  14.083  13.293  0.1860 -0.0070 -0.3823
26226W        W27090  18.061  21.167  14.704 -0.0706 -0.0387 -0.4119
26227W        W27091  14.209   3.939  12.035  0.0298 -0.1546  0.2358
26228W        W27092  18.961  26.404   3.319  0.1589  0.2688  0.2110
26229W        W27093  15.514  12.369   9.458  0.0571  0.2385 -0.3215
26230W        W27094  26.488  20.645  10.300 -0.0307 -0.1969  0.0981
26231W        W27095   4.044   7.839  19.641 -0.1062  0.0873  0.1033
26232W        W27096  25.589  26.208  24.688  0.2230 -0.0800 -0.4148
26233W        W27097  18.289   9.881  18.637  0.0895 -0.3619  0.0781
26234W        W27098   3.869   5.722  20.695 -0.2247  0.0674 -0.1573
26235W        W27099  16.850  29.039   3.433  0.3647 -0.0956  0.1805
26236W        W27100  28.371   4.215   8.018  0.0311  0.1531  0.0847
26237W        W27101  12.264  19.307  12.632  0.2443  0.2248  0.0159
26238W        W27102  27.620  11.786  24.996 -0.2994 -0.2727 -0.0139
26239W        W27103  26.304  28.174   9.973  0.0985 -0.1849 -0.1349
26240W        W27104  22.467  25.453  13.581  0.1408 -0.1479 -0.3125
26241W        W27105  19.060  23.007  12.353 -0.2355 -0.0337 -0.4926
26242W        W27106  24.766  15.546  27.496  0.0872 -0.1612  0.2240
26243W        W27107  14.979   5.521  18.990  0.3993  0.2203 -0.1311
26244W        W27108  13.340  18.524  12.205 -0.1532  0.0408  0.0779
26245W        W27109  23.343  23.938  18.113  0.0766 -0.1579 -0.1319
26246W        W27110  11.288  26.705  28.740 -0.1169  0.0453  0.0438
26247W        W27111   9.397  20.437  27.972  0.0611 -0.2961  0.1420
26248W        W27112  10.130   1.243   1.692  0.0301  0.3202 -0.2662
26249W        W27113  11.896  15.951   4.625  0.0433 -0.1753  0.2369
26250W        W27114   8.489   0.648  25.786  0.0943 -0.1602 -0.2356
26251W        W27115  25.731   3.735  12.229 -0.0241  0.1644 -0.1786
26252W        W27116   3.973  22.179  10.333  0.0830 -0.1269 -0.0002
26253W        W27117  20.297   0.809   4.859 -0.2385 -0.1413  0.2755
26254W        W27118  26.488  17.075  19.935  0.1480  0.0517  0.3867
26255W        W27119  15.865  19.809   7.341 -0.2335 -0.0327 -0.2237
26256W        W27120   6.520   1.403   4.220 -0.1251 -0.2937  0.0871
26257W        W27121  14.176  26.369  16.348 -0.3000  0.2393 -0.0125
26258W        W27122   5.984  22.398  17.118 -0.3029  0.2397  0.2038
26259W        W27123   2.917   7.892   9.532 -0.1856  0.1728 -0.1136
26260W        W27124   3.833  28.379   5.276  0.2828 -0.2027  0.0060
26261W        W27125   7.369  12.904   7.001 -0.2021 -0.2584 -0.0677
26262W        W27126  24.636   8.352  11.963  0.0492  0.0329 -0.1368
26263W        W27127  26.803  23.422   6.228 -0.3212 -0.1251 -0.1562
26264W        W27128  19.843  23.068  11.136  0.2435  0.3783  0.0524
26265W        W27129  16.910   7.558  22.113 -0.1182  0.0610 -0.1277
26266W        W27130   4.426   7.706   0.112  0.0827  0.0754  0.2604
26267W        W27131  28.969   5.053   9.321  0.1031  0.0889 -0.1011
26268W        W27132  28.656  27.418   9.322 -0.0221  0.0410  0.1756
26269W        W27133   1.184   9.808  11.348 -0.0870  0.3193 -0.0179
26270W        W27134   1.094   2.361   2.416 -0.0794 -0.0118 -0.0122
26271W        W27135  22.995   3.763  26.026 -0.2820 -0.0656  0.0932
26272W        W27136  11.075  22.342   4.262  0.0822 -0.5326  0.0994
26273W        W27137  16.056  28.759   2.815  0.0321  0.0474  0.0046
26274W        W27138   5.580   9.802  11.399  0.1948 -0.0594  0.0348
26275W        W27139  19.981  14.780  13.505 -0.2705  0.0512 -0.1608
26276W        W27140  23.745  27.466  24.678  0.1462 -0.1642  0.0379
26277W        W27141  20.169   6.415   1.229  0.0441  0.3043 -0.0309
26278W        W27142  15.576  29.012   8.956 -0.0790  0.0646  0.0851
26279W        W27143  19.571   5.445  15.294  0.0081 -0.2385  0.2430
26280W        W27144  27.684  17.744  15.420  0.0291  0.0690 -0.1546
26281W        W27145  10.414  26.330  14.589  0.0678  0.0976 -0.3879
26282W        W27146  24.893  20.515   3.948 -0.0562  0.1409 -0.1200
26283W        W27147  25.205   0.797  19.837 -0.1149  0.0307  0.3080
26284W        W27148  11.478  23.944   7.914 -0.0582  0.1490 -0.0115
26285W        W27149  10.703  28.118  19.846  0.2284 -0.1261  0.0894
26286W        W27150  11.127   9.482  12.058 -0.2187 -0.1708  0.0335
26287W        W27151  13.693  23.148  27.752 -0.0769 -0.0143 -0.0297
26288W        W27152   7.032   4.252  16.545 -0.0688  0.0601 -0.2057
26289W        W27153  17.508  19.287  21.460  0.2206  0.2417  0.0418
26290W        W27154   3.528  20.173  19.013  0.2755  0.4511  0.1895
26291W        W27155  21.751   1.859  25.323  0.1965 -0.0555  0.3093
26292W        W27156  28.699  23.703   0.609 -0.2373  0.0963 -0.1186
26293W        W27157   7.392  22.975   7.242  0.0709 -0.1160  0.0944
26294W        W27158  17.581  27.329  24.566  0.1238  0.1485  0.0649
26295W        W27159  24.509   6.510  13.460 -0.0588  0.1259 -0.0252
26296W        W27160   9.449  10.667   8.619 -0.0346  0.2399 -0.0502
26297W        W27161  25.692   4.905  11.945 -0.0476  0.1741  0.2854
26298W        W27162  14.723  11.733  14.245 -0.0045 -0.5316  0.0376
26299W        W27163  15.783   7.127  15.227  0.2319 -0.2595 -0.1450
26300W        W27164  23.705  21.487  22.970  0.2827  0.2245 -0.2542
26301W        W27165  13.679  23.964   8.390 -0.1647  0.2983 -0.2216
26302W        W27166  27.177  16.349  19.673  0.0724  0.0972  0.1628
26303W        W27167  21.224   6.225   0.202  0.3132  0.1323 -0.0552
26304W        W27168  28.880  21.174  11.520 -0.4014 -0.1718  0.1888
26305W        W27169   2.071  17.282  21.723 -0.0212  0.1730  0.0653
26306W        W27170  24.269  19.287  15.948 -0.2992 -0.0501  0.0542
26307W        W27171  18.608  18.459  20.866 -0.0791 -0.2277  0.1132
26308W        W27172  15.552  27.944  12.212  0.0984 -0.1010 -0.0135
26309W        W27173  19.413   8.326  27.623  0.0044  0.2023 -0.2036
26310W        W27174   2.185  21.349  11.510 -0.2788 -0.0142 -0.1587
26311W        W27175  25.061  27.966  20.288 -0.0996  0.1408  0.0623
26312W        W27176  18.909  28.630   9.549  0.4149  0.3022  0.0435
26313W        W27177   1.354   5.852  22.769  0.0344  0.1408 -0.0336
26314W        W27178  22.149  28.360  17.588 -0.2902 -0.0750 -0.1587
26315W        W27179  24.425   5.679  21.975  0.0687 -0.0603  0.1281
26316W        W27180  14.350  26.867  16.045 -0.0911 -0.0408 -0.0923
26317W        W27181  19.939  12.671   1.046 -0.2026 -0.0986  0.0428
26318W        W27182  18.908  17.344   1.808  0.1060 -0.3832 -0.0470
26319W        W27183  22.357  24.413   2.457 -0.0312  0.2434 -0.3024
26320W        W27184   4.859  16.405  19.518 -0.2882  0.1534 -0.1941
26321W        W27185  22.843   0.591  28.109  0.5223 -0.0978  0.0823
26322W        W27186  11.352   0.716  25.340 -0.0088 -0.1315 -0.2294
26323W        W27187  17.904   2.165   9.918 -0.0117 -0.3084  0.0775
26324W        W27188  14.707  19.168  25.894  0.1373 -0.3100  0.2259
26325W        W27189  11.861   3.005  24.907  0.0692 -0.1338 -0.2463
26326W        W27190  14.927  25.598  27.178 -0.2263  0.1482 -0.0234
26327W        W27191  22.207   3.154  24.959  0.2457 -0.1682  0.0205
26328W        W27192  25.138  21.043  10.085 -0.1006 -0.1079  0.1358
26329W        W27193   2.514  25.517  15.470  0.0437 -0.3318 -0.0751
26330W        W27194   4.282   9.721   8.540 -0.1579 -0.0583 -0.1939
26331W        W27195  27.155   9.063   9.033 -0.1814  0.0375  0.3190
26332W        W27196  18.184  17.577   4.374 -0.0622  0.1820  0.0710
26333W        W27197   7.743  22.249   0.518  0.0672  0.1138  0.1447
26334W        W27198  11.226   6.819  27.705 -0.0347  0.0009  0.2255
26335W        W27199  21.424  16.766  23.653  0.1527  0.0319 -0.2595
26336W        W27200   0.233  10.120  14.567 -0.0568 -0.2235 -0.1073
26337W        W27201   1.039  21.761  12.911 -0.1759  0.0079  0.2453
26338W        W27202  16.764  23.970   9.896  0.1201 -0.1330 -0.3332
26339W        W27203   3.211   3.020  27.807 -0.0660  0.4499 -0.2896
26340W        W27204   3.396  12.162   6.966 -0.0167  0.2117 -0.3537
26341W        W27205   6.226  17.209   5.690  0.1478  0.1566  0.1460
26342W        W27206   7.619  27.299  14.489 -0.2128  0.4744  0.0686
26343W        W27207  20.404   5.012  10.640 -0.3064  0.1324 -0.0780
26344W        W27208   0.568  19.910  25.043  0.1652 -0.2717 -0.0908
26345W        W27209   5.104  18.489  22.562  0.1578  0.0244 -0.0831
26346W        W27210  16.072   9.896  27.001  0.1806 -0.0051  0.1230
26347W        W27211   8.845  13.801  13.240  0.2779  0.0825  0.3149
26348W        W27212  16.860   6.642  13.631 -0.1708 -0.3468  0.1289
26349W        W27213  16.699   5.356  12.043 -0.1526  0.3770  0.1341
26350W        W27214   5.281  16.470   9.804 -0.0944  0.1954  0.4493
26351W        W27215  26.898  17.902   5.983 -0.0931 -0.2976  0.0061
26352W        W27216  10.472  24.330  16.213 -0.0071  0.3383 -0.2257
26353W        W27217   3.480  29.028  11.400 -0.0684  0.0656 -0.1369
26354W        W27218  10.734  26.714  24.681  0.1397 -0.1449 -0.0282
26355W        W27219  28.875  13.777   9.449 -0.0298  0.1049  0.3377
26356W        W27220  22.372  14.874  15.617 -0.1107  0.1798  0.3591
26357W        W27221  17.075  24.037  15.884  0.1946  0.2286  0.0911
26358W        W27222   3.883  26.894  17.075  0.3396  0.1151 -0.0514
26359W        W27223  28.936   3.750  19.606  0.1268  0.0604 -0.1366
26360W        W27224  11.286   2.468   4.948  0.0440 -0.0291  0.1645
26361W        W27225  15.237  28.621  16.269  0.1488 -0.2484  0.3037
26362W        W27226   7.487  22.399  18.277 -0.0003  0.1911 -0.0863
26363W        W27227   5.924  12.990  25.253  0.1632  0.0792  0.1300
26364W        W27228  14.513  21.404  15.698 -0.2187  0.1917  0.2991
26365W        W27229  20.002  18.497  27.601  0.0093 -0.0646  0.0815
26366W        W27230  26.445  21.626  10.711  0.0660  0.0247 -0.2463
26367W        W27231   3.153   0.385   7.382  0.1112  0.2514 -0.3104
26368W        W27232  11.969   3.460  13.255  0.0644 -0.3563 -0.0479
26369W        W27233  13.898   1.870  22.561 -0.0118 -0.2013 -0.0477
26370W        W27234  10.196  23.234  12.094 -0.0553  0.0934 -0.3252
26371W        W27235  21.177   3.019  10.065  0.2165 -0.3069 -0.2754
26372W        W27236   0.196   1.045   6.152  0.1134 -0.3093 -0.1904
26373W        W27237  12.652  17.681  14.410 -0.2937 -0.0342 -0.1437
26374W        W27238  29.141  24.201  23.145 -0.2853 -0.0321  0.0878
26375W        W27239   9.595  23.729  11.082 -0.2731 -0.2158 -0.2352
26376W        W27240   3.135  11.770  14.345  0.0541  0.2935  0.0685
26377W        W27241  12.065   9.179   2.802 -0.0445  0.0529 -0.2010
26378W        W27242  17.464  26.753   4.588 -0.1517 -0.3528 -0.0215
26379W        W27243  15.888  24.402  14.819  0.2287  0.1791  0.0526
26380W        W27244  28.975  27.098  11.204  0.2468  0.0157 -0.1247
26381W        W27245  17.796  20.373  25.538 -0.3290  0.1230 -0.0524
26382W        W27246  21.007   7.499  28.124 -0.0225 -0.4751  0.0081
26383W        W27247  20.174  21.421   1.264 -0.1623 -0.1644 -0.0369
26384W        W27248  23.982  29.045  29.109  0.1119  0.1993  0.3345
26385W        W27249  11.158  26.157  23.602 -0.1894  0.0591 -0.0172
26386W        W27250   9.218   1.986  11.028  0.0193 -0.1966  0.0966
26387W        W27251  24.605  12.720  16.353 -0.0760 -0.1825  0.1761
26388W        W27252  20.879   4.388  13.131 -0.0875 -0.0471  0.2756
26389W        W27253  22.565  15.173  10.521 -0.0789 -0.0982 -0.0144
26390W        W27254  15.439  22.011  12.180 -0.1711 -0.0946  0.1521
26391W        W27255   7.878  23.161  10.347  0.1574 -0.3110  0.3432
26392W        W27256  14.874  20.260   8.367 -0.0098  0.2087  0.1761
26393W        W27257  13.524   7.225  18.975 -0.2071 -0.1053  0.0575
26394W        W27258   7.490  20.060  15.609 -0.1313 -0.0195 -0.0468
26395W        W27259  18.544  22.040  12.600 -0.0345 -0.0228  0.1137
26396W        W27260  21.574  24.807  17.174  0.1209  0.0858  0.3513
26397W        W27261  10.200  20.965  13.865 -0.5437 -0.2832  0.2096
26398W        W27262  10.351  26.148   9.387 -0.0962 -0.1618  0.1016
26399W        W27263  10.049  18.918   8.620 -0.0924  0.0662  0.1001
26400W        W27264   2.489  19.246   9.010 -0.1267  0.1650 -0.0478
26401W        W27265  11.555   7.540  24.260 -0.0502  0.1430 -0.0706
26402W        W27266  24.822   7.297   2.799 -0.0448  0.0391  0.1001
26403W        W27267  14.223  15.256   5.761 -0.0274  0.0875  0.0178
26404W        W27268  26.483   6.393  19.647  0.1023 -0.0761  0.0809
26405W        W27269   3.549  21.604  23.259 -0.0211 -0.0818 -0.1540
26406W        W27270  14.743   6.790  19.762  0.4065 -0.0940 -0.0340
26407W        W27271  29.027   8.256  23.675  0.0755 -0.1906  0.1318
26408W        W27272  21.180  27.076  12.858 -0.2007 -0.0206 -0.1464
26409W        W27273   6.610   3.456   1.871 -0.0116 -0.0913  0.2955
26410W        W27274  24.468  20.528  10.511  0.1213  0.1161 -0.1661
26411W        W27275   4.015  16.891   0.376 -0.0083 -0.2018 -0.0762
26412W        W27276  25.907   3.496  24.108  0.0246  0.0361 -0.2033
26413W        W27277  25.685  24.947  14.117  0.0861 -0.1784 -0.1092
26414W        W27278   9.822   0.993   2.484  0.3315 -0.3353  0.1923
26415W        W27279  22.297  11.213  18.283  0.1077 -0.0028  0.3247
26416W        W27280  12.048  22.459  21.091  0.1194  0.4545  0.0660
26417W        W27281   7.023  18.269  10.982 -0.2405  0.2277 -0.0090
26418W        W27282  12.420  17.351  20.467  0.0355 -0.2744  0.2039
26419W        W27283  27.586  13.915   3.983  0.1266 -0.1242 -0.0881
26420W        W27284   0.239   3.540  14.611  0.1364 -0.1893  0.0882
26421W        W27285  20.081  24.081  17.477  0.0857 -0.1256 -0.3502
26422W        W27286   5.315  20.934   3.086  0.0949  0.3478  0.0958
26423W        W27287  20.615   4.166  12.068  0.0221 -0.0857  0.0169
26424W        W27288  14.527  27.651   5.780  0.1290 -0.0035 -0.0729
26425W        W27289  19.651  20.898  10.422 -0.0104  0.0996 -0.1662
26426W        W27290  22.595  12.476  12.897 -0.0871  0.3900 -0.1734
26427W        W27291  23.061  27.607  15.391 -0.2532 -0.2179 -0.0952
26428W        W27292  29.123  25.192  11.153 -0.1349  0.1120 -0.1389
26429W        W27293  15.775  25.988   2.911  0.2209 -0.0523  0.1578
26430W        W27294  10.381   5.150  20.348  0.3727  0.2637  0.0931
26431W        W27295  16.262  13.714  14.696 -0.1494  0.0298 -0.0478
26432W        W27296  16.865  20.149   4.137 -0.1412  0.0730 -0.0758
26433W        W27297  10.663  13.262   1.928 -0.0892  0.0516  0.0941
26434W        W27298  22.963  18.940  10.184 -0.1390  0.1501 -0.0366
26435W        W27299   1.175  28.796   7.975 -0.1972 -0.1022 -0.0721
26436W        W27300  20.827  14.235  22.931 -0.1804  0.0621  0.1422
26437W        W27301  11.350   3.480  20.326 -0.0033  0.0706 -0.0936
26438W        W27302  14.735   2.332  17.076 -0.1042 -0.0203 -0.1015
26439W        W27303  24.036  18.654  12.519 -0.4729  0.1251  0.1238
26440W        W27304  20.123  15.594   4.115 -0.1077 -0.1180 -0.1725
26441W        W27305  10.760   6.373   5.376 -0.1358 -0.0241 -0.2195
26442W        W27306  19.724  11.513  15.174  0.1270 -0.2988  0.0766
26443W        W27307  17.560  28.034   9.707 -0.2301 -0.0649  0.0718
26444W        W27308  22.293  20.677   8.278  0.1657  0.2240 -0.2317
26445W        W27309   9.383  17.060  14.369 -0.2487  0.1813  0.0984
26446W        W27310  15.777   5.336  27.254 -0.2523  0.0386 -0.0995
26447W        W27311  26.839  13.211  12.099  0.0773 -0.1291  0.2004
26448W        W27312  28.802  10.269  12.801 -0.2226  0.3681  0.0860
26449W        W27313  16.823  18.056  25.538 -0.2062  0.2060  0.1216
26450W        W27314  12.170  15.398  14.821 -0.1499 -0.0096  0.1821
26451W        W27315   6.154  24.409  12.406  0.1291 -0.0099  0.0550
26452W        W27316  25.144  11.479  16.044  0.0485  0.5473  0.0062
26453W        W27317  27.436   5.346  18.857  0.0555 -0.1409 -0.1743
26454W        W27318   1.629   3.522  24.674 -0.3334 -0.0278  0.0875
26455W        W27319   7.431  13.487  24.640 -0.3103 -0.1326 -0.1385
26456W        W27320  21.005  26.331  15.632  0.1782  0.3143  0.1303
26457W        W27321  11.264  25.054   4.143  0.1258 -0.1629  0.0816
26458W        W27322   5.510   9.747   4.411  0.1664  0.0170 -0.4819
26459W        W27323  14.003   1.789  13.415 -0.2235  0.0717  0.1394
26460W        W27324  17.494   5.562  22.652  0.0406 -0.0131  0.2301
26461W        W27325  27.500  28.988  20.632 -0.1563 -0.0010 -0.0149
26462W        W27326   2.964   3.696  14.055 -0.1868  0.0138  0.2717
26463W        W27327   9.843  10.037  16.279  0.1605 -0.2534 -0.0568
26464W        W27328   9.819   4.081  10.867 -0.2651  0.1768  0.3378
26465W        W27329   4.844  17.810  21.954 -0.1095  0.2950 -0.0867
26466W        W27330   1.513  26.168  22.470  0.0638 -0.1102  0.2708
26467W        W27331   1.334   1.293   5.541 -0.1055 -0.1143 -0.1639
26468W        W27332  18.272  28.108   5.042  0.0789  0.3181  0.0543
26469W        W27333  18.779  18.531   7.255  0.0145 -0.1821  0.0990
26470W        W27334  14.640  17.847   1.633  0.1675  0.2177 -0.2160
26471W        W27335  11.027  16.488  20.962 -0.1515  0.0979 -0.1403
26472W        W27336  25.215  25.141   3.699 -0.1758  0.0581  0.1272
26473W        W27337  23.865  22.944  13.181 -0.0605  0.1716  0.0292
26474W        W27338  22.825  15.688  12.582 -0.0777 -0.1451  0.2408
26475W        W27339   7.839  10.663  19.022  0.1103  0.1916 -0.1951
26476W        W27340  17.256   2.159  14.220 -0.4977  0.1777 -0.2969
26477W        W27341  15.197  18.342  18.423 -0.0781  0.0594  0.1734
26478W        W27342   1.603  17.024   4.925  0.2753  0.3238  0.1557
26479W        W27343   5.513   0.236  18.669  0.2153 -0.1689 -0.2019
26480W        W27344   3.823  28.132  19.074 -0.0983  0.1970 -0.1107
26481W        W27345   4.156  21.321  20.638  0.0077 -0.1328  0.0948
26482W        W27346  21.797  11.729   1.817 -0.0165  0.2151 -0.0900
26483W        W27347  23.151   9.908   3.312 -0.1057 -0.0414  0.3433
26484W        W27348   6.858  23.364   9.016 -0.1563  0.1906  0.0969
26485W        W27349  25.370  15.205   9.055  0.1564  0.2197  0.0719
26486W        W27350  10.666  12.126  10.505  0.0098 -0.0773 -0.2217
26487W        W27351  14.958  15.049   7.159  0.0824 -0.0067  0.0992
26488W        W27352   2.914   2.324  13.636  0.0667 -0.0242  0.2828
26489W        W27353  26.321  17.341   8.222  0.0618  0.2702  0.4941
26490W        W27354  26.536   6.434  18.398  0.0787  0.1358 -0.4048
26491W        W27355   5.919   8.186  26.898  0.1028  0.1874 -0.1677
26492W        W27356   7.435  23.360  11.725  0.3269 -0.2131  0.3454
26493W        W27357  12.950  17.722  26.321  0.4209 -0.3145 -0.1584
26494W        W27358  22.751   2.202  15.620  0.0492  0.1644  0.0397
26495W        W27359  16.726   7.831  12.727 -0.0575  0.2433 -0.1271
26496W        W27360  28.354   7.155   3.619 -0.0833  0.3033  0.1526
26497W        W27361  24.315   1.599  10.831  0.0174  0.0454 -0.2240
26498W        W27362   1.003   1.828   6.168  0.5558  0.1769 -0.4881
26499W        W27363   1.013  17.400  16.885  0.1265  0.0615 -0.0006
26500W        W27364  19.898   9.115  11.821 -0.0549  0.1888  0.0407
26501W        W27365  23.471  18.291  19.396  0.2140  0.0041  0.2724
26502W        W27366   6.156  26.769  12.353  0.1787 -0.2282  0.0679
26503W        W27367   8.141   0.813  15.422  0.0320 -0.0793  0.1890
26504W        W27368  18.432  23.833   6.869  0.0364 -0.0448  0.1549
26505W        W27369   1.604  14.806  24.452 -0.2301 -0.0578 -0.0585
26506W        W27370  12.223   7.384  10.323 -0.0970 -0.0402  0.0851
26507W        W27371   1.185   8.503   4.891 -0.0439 -0.1072  0.5311
26508W        W27372  24.152   1.716  27.203 -0.0727 -0.4534  0.1897
26509W        W27373  23.230   0.826   4.394 -0.5424  0.1591  0.0196
26510W        W27374  21.348   8.247  22.096  0.0575  0.0965  0.1383
26511W        W27375  20.444  14.287  25.766  0.0599 -0.1800 -0.2299
26512W        W27376  11.711   0.213  26.782  0.1211 -0.3036 -0.0248
26513W        W27377  11.240  18.341  22.837 -0.0674  0.2734  0.1963
26514W        W27378   4.565  11.242  12.082  0.0506  0.0223  0.0427
26515W        W27379  26.240  16.881  20.353 -0.0937 -0.1245  0.1516
26516W        W27380  19.280  11.685  13.408  0.0442 -0.0769  0.2226
26517W        W27381  20.658  28.093  17.703  0.0753 -0.1040 -0.0513
26518W        W27382  10.932  26.290   5.382  0.3628  0.1063 -0.2379
26519W        W27383   5.554   3.107  15.815  0.0511 -0.3966 -0.0660
26520W        W27384  11.378  27.356  14.697 -0.0654  0.1217 -0.2633
26521W        W27385   1.010  11.921   6.752 -0.0391  0.0875  0.0361
26522W        W27386  10.006   6.876  24.134  0.1065 -0.0401  0.3280
26523W        W27387  13.875   3.149  18.689 -0.2601 -0.2743  0.2365
26524W        W27388  18.407   9.651  10.664  0.0743 -0.1116  0.2368
26525W        W27389  26.442  28.347   6.973 -0.4153 -0.0315 -0.0559
26526W        W27390   2.751  16.326   9.103  0.1609  0.0869 -0.0898
26527W        W27391  14.791   6.501  27.760  0.1011 -0.0724 -0.0053
26528W        W27392  24.626  27.593  21.561 -0.1538 -0.0990 -0.2496
26529W        W27393  17.950  16.001  19.562 -0.0104  0.1014 -0.2324
26530W        W27394  10.248  11.771  16.071 -0.0303  0.0922  0.3630
26531W        W27395  28.160  16.553  17.768 -0.0831  0.0747  0.2273
26532W        W27396   6.668   9.467  16.361 -0.2385  0.0170 -0.1072
26533W        W27397  26.834  26.671  10.146  0.2100 -0.2581 -0.1825
26534W        W27398  28.562   7.840  21.841 -0.0110 -0.0347  0.1047
26535W        W27399  13.806   8.834  23.504 -0.0308 -0.2762 -0.0555
26536W        W27400  10.689  20.954  14.014  0.0358  0.2715  0.0656
26537W        W27401   6.927   6.369  12.375  0.0132 -0.1532 -0.0753
26538W        W27402  16.578  23.542  17.920 -0.2415  0.1292 -0.3498
26539W        W27403   8.643   3.974   6.727 -0.1817  0.2331 -0.1461
26540W        W27404   2.630  20.706  18.434 -0.0744  0.3395 -0.0253
26541W        W27405   2.230   1.361  13.324  0.0215  0.0536 -0.2186
26542W        W27406  22.834  23.031  19.926  0.0506 -0.2624 -0.0960
26543W        W27407  27.783  14.338  17.722 -0.1322 -0.0100 -0.3200
26544W        W27408  27.941   4.469   2.714 -0.2045  0.1313  0.0780
26545W        W27409  29.141  28.298   9.181 -0.1289 -0.1221  0.0537
26546W        W27410  12.521   8.972  10.866  0.1151  0.0939 -0.2580
26547W        W27411  15.114   8.775  14.998  0.1297  0.2738 -0.0229
26548W        W27412  28.691  18.010  11.347 -0.2666 -0.0450 -0.6398
26549W        W27413  16.716  11.524  16.831 -0.0058  0.0550  0.2808
26550W        W27414  14.653  18.751  20.087  0.1900  0.1621 -0.2848
26551W        W27415  28.703   2.319   1.730 -0.2657 -0.2370  0.0044
26552W        W27416  16.039  26.787   1.354  0.0339  0.1145 -0.1115
26553W        W27417  21.878  22.424   9.870 -0.1172 -0.1665 -0.2083
26554W        W27418  28.958  14.879   7.176  0.0406 -0.1603 -0.1480
26555W        W27419   4.577   1.014  23.329  0.1732  0.2125  0.0518
26556W        W27420  24.668  26.730   4.784 -0.1239  0.0266  0.0775
26557W        W27421   9.691  18.795  28.746  0.0196  0.1775 -0.1129
26558W        W27422  15.445  28.436   8.804  0.1835 -0.2684  0.1043
26559W        W27423  13.070  26.625   8.334 -0.0290  0.2240 -0.3634
26560W        W27424  28.541  26.637  16.368  0.1724  0.1585 -0.1542
26561W        W27425   6.176   3.184  23.587 -0.2673  0.0641 -0.2549
26562W        W27426   5.760  28.531   0.259 -0.1197  0.1109  0.0919
26563W        W27427   2.696  26.847  10.994  0.2061  0.2121 -0.1676
26564W        W27428  10.203  18.236  14.570 -0.0756 -0.0841 -0.0752
26565W        W27429  20.408   5.833  27.576 -0.2518 -0.0521 -0.0686
26566W        W27430   0.731   4.119   9.762 -0.1584 -0.2009 -0.0244
26567W        W27431   5.718   7.199  13.152  0.0092 -0.4355  0.1075
26568W        W27432   8.339   4.291   6.920  0.0610  0.0220  0.0808
26569W        W27433  11.674  25.798   5.698  0.0271  0.0944 -0.0428
26570W        W27434   8.608   7.875  20.256 -0.0685  0.1422  0.0726
26571W        W27435   9.623   9.051  21.688 -0.0093  0.4057 -0.0080
26572W        W27436  22.174  19.638  14.328 -0.0130  0.1064 -0.0076
26573W        W27437  25.861  16.087  28.356 -0.0828 -0.0766 -0.1915
26574W        W27438  12.695   2.994   6.981  0.0324  0.2948 -0.3614
26575W        W27439  25.000  20.136  12.182  0.0625 -0.1686  0.4296
26576W        W27440  25.189  12.255  15.914  0.2854  0.1956  0.2036
26577W        W27441   3.141  28.777   7.520 -0.0144 -0.1167 -0.2032
26578W        W27442  17.442   6.480   9.984 -0.1560  0.0494 -0.2600
26579W        W27443  13.837   7.516  23.001  0.0658  0.0291  0.1887
26580W        W27444   2.787  14.578   6.860  0.0454  0.3515 -0.2291
26581W        W27445  10.402  28.319  28.427  0.0813 -0.1133 -0.0307
26582W        W27446   2.415   8.843   5.282 -0.2264  0.2325 -0.1471
26583W        W27447  15.574  23.750  23.369 -0.1714  0.0636  0.1479
26584W        W27448  13.899  13.907   2.743 -0.0283  0.1175 -0.1248
26585W        W27449  27.903  15.953   4.341 -0.2364 -0.3838 -0.1403
26586W        W27450  22.815   1.551  18.321 -0.1936  0.0512 -0.0747
26587W        W27451  16.145   7.615  27.366  0.0892  0.0250  0.1097
26588W        W27452   8.938  17.196  24.658  0.3572  0.1465 -0.0166
26589W        W27453  10.368   5.339   2.727 -0.0181 -0.3671 -0.3432
26590W        W27454  14.386  14.449  27.870  0.0587 -0.2928 -0.1682
26591W        W27455  28.116  11.845   8.142 -0.1906  0.1835 -0.1333
26592W        W27456  21.734  23.459   5.691  0.1760 -0.0474 -0.0077
26593W        W27457  22.889   8.495   7.922  0.0002  0.4919  0.0801
26594W        W27458  15.437  23.768  13.118  0.0180 -0.3243  0.2913
26595W        W27459  14.469   8.143  22.610 -0.0051 -0.1743 -0.2765
26596W        W27460  25.138   3.751   6.924  0.3453 -0.0336 -0.1425
26597W        W27461  13.810   9.176  20.445  0.1950  0.0907 -0.1373
26598W        W27462  11.522  24.594  19.084  0.2360 -0.1194 -0.1770
26599W        W27463  18.237  16.752  26.803  0.1031  0.2613 -0.0431
26600W        W27464  13.440  26.123  20.136  0.4511 -0.2060 -0.2506
26601W        W27465  24.851   2.505   6.467  0.0861  0.2351 -0.1011
26602W        W27466   2.510  25.358  14.091  0.1578  0.2816  0.0001
26603W        W27467   1.918  12.814  28.684  0.4702  0.1291  0.1814
26604W        W27468  11.495  22.782  19.334  0.1946 -0.0518  0.2632
26605W        W27469  15.269  16.813  24.957 -0.0180  0.1245  0.4116
26606W        W27470  21.270  27.649  16.030 -0.0168  0.0351 -0.2695
26607W        W27471  24.470   0.039   7.811 -0.1085  0.2022  0.0863
26608W        W27472   0.583   1.927  11.259  0.0365 -0.0634  0.0605
26609W        W27473  11.634   1.718  13.872  0.2861  0.1253 -0.1758
26610W        W27474  20.589  11.942  27.185 -0.1753  0.3520 -0.0718
26611W        W27475   2.125   0.154  27.808  0.0514 -0.0057  0.5139
26612W        W27476  25.307  13.367  19.574  0.3258 -0.0549 -0.2200
26613W        W27477   6.289  14.388  12.018 -0.1157  0.2846 -0.3871
26614W        W27478  19.265  13.147  21.692  0.0927 -0.1378  0.0196
26615W        W27479  25.270  22.614   9.825  0.0876  0.0730 -0.0635
26616W        W27480   4.393  24.486   3.145 -0.0243  0.2096 -0.2030
26617W        W27481  25.023   9.572   2.966  0.0041  0.1937  0.2213
26618W        W27482  27.234  22.836   7.655  0.2274 -0.1389 -0.0039
26619W        W27483  14.369  28.696  23.155 -0.3318 -0.2271 -0.0504
26620W        W27484   8.461  18.741   2.916  0.1951 -0.0371 -0.1569
26621W        W27485   9.600   4.265  19.176 -0.2811 -0.0514 -0.2025
26622W        W27486   9.897   1.712  21.340 -0.3486  0.1090  0.1714
26623W        W27487   0.569  22.314   7.781 -0.1250  0.0226 -0.2515
26624W        W27488   9.771   3.604  27.896 -0.1082 -0.1479  0.0872
26625W        W27489  18.113   5.313  16.919  0.2506 -0.0083  0.2560
26626W        W27490  26.033   6.033  21.624  0.0067  0.1904 -0.1659
26627W        W27491   7.957   9.826  25.325 -0.1149 -0.4016 -0.1121
26628W        W27492  24.219   0.870  19.614  0.3920  0.0232 -0.2955
26629W        W27493  22.437  14.496  14.180 -0.2539 -0.2086 -0.0674
26630W        W27494  24.980  25.817  20.991 -0.1541  0.1207 -0.0842
26631W        W27495  12.015   0.971  17.455  0.0173 -0.2189  0.0309
26632W        W27496  22.357  13.535  17.148  0.0129  0.1364 -0.1758
26633W        W27497  17.303  17.368  29.113  0.4917 -0.0675  0.2541
26634W        W27498   5.544  26.673   4.962 -0.2652  0.1821  0.5420
26635W        W27499   8.041   3.833  21.792 -0.2118 -0.1151  0.0611
26636W        W27500  10.968   4.166  22.401 -0.1141 -0.0084  0.1243
26637W        W27501   1.065  12.682  16.856  0.2612 -0.0478 -0.2608
26638W        W27502  12.200   2.856  25.802  0.0351 -0.2186 -0.0536
26639W        W27503  21.844  12.867   2.404  0.2447  0.3578  0.2328
26640W        W27504  14.536  21.648   9.770  0.1415  0.0966  0.0062
26641W        W27505  22.204  27.421  17.814 -0.0499 -0.0152  0.1021
26642W        W27506   2.319  23.570  28.915 -0.1635 -0.0080  0.0143
26643W        W27507   4.077  28.377  16.380 -0.0390 -0.1490  0.1193
26644W        W27508   3.690  24.191   3.251 -0.0908  0.2580  0.2743
26645W        W27509  20.536   6.139   6.161  0.0032  0.1230  0.0183
26646W        W27510  14.847   3.649  22.421  0.0608  0.1685  0.2080
26647W        W27511   7.166   6.556  14.715 -0.1848  0.2908 -0.3295
26648W        W27512  14.286   1.542  17.384  0.2109  0.0255 -0.2271
26649W        W27513  16.326  11.598  12.414 -0.1222  0.1137  0.2175
26650W        W27514  13.502  14.344  26.033 -0.2503 -0.0715  0.0215
26651W        W27515  20.878  24.557  11.931  0.2116 -0.1741  0.1348
26652W        W27516  23.232   5.824  13.667 -0.1307  0.0037 -0.2986
26653W        W27517  27.962  27.342  23.868 -0.0196  0.0511 -0.3799
26654W        W27518  19.977  16.574  18.493 -0.5025  0.1135  0.1898
26655W        W27519  27.744   7.861  13.237 -0.1732 -0.1686 -0.2287
26656W        W27520   9.639   2.479  11.857 -0.4070  0.1790  0.1107
26657W        W27521   2.053  22.939   1.683  0.1427 -0.2058  0.0235
26658W        W27522  14.258   1.718  23.599  0.1920 -0.0224  0.1295
26659W        W27523  20.622  25.033  18.149 -0.0243  0.2603 -0.1901
26660W        W27524  10.919  28.982  12.219 -0.1234 -0.3228  0.0405
26661W        W27525  29.130   8.684  22.110 -0.2195 -0.1085  0.0850
26662W        W27526  10.780  18.411  23.497 -0.1187 -0.2611  0.0445
26663W        W27527  25.362   4.020   7.296  0.1562 -0.0455 -0.0044
26664W        W27528  20.886  10.538  13.912  0.0079  0.0327 -0.0435
26665W        W27529  23.106  23.693   5.869 -0.0541 -0.2766 -0.0448
26666W        W27530  25.924  11.431  16.356 -0.0532 -0.0880  0.2666
26667W        W27531  15.228  15.246   3.309  0.0302  0.1287 -0.2091
26668W        W27532  27.184   0.253  25.747 -0.0614 -0.0419  0.0043
26669W        W27533  13.420   3.594  10.994 -0.0454  0.1133  0.0524
26670W        W27534  25.731   3.548  24.676  0.2319  0.0168  0.0917
26671W        W27535  24.654  22.345  26.494 -0.0154 -0.0998  0.0690
26672W        W27536  24.820  15.441  14.805 -0.2812 -0.2419 -0.0161
26673W        W27537  10.427  27.975  24.970  0.0241 -0.3872  0.0408
26674W        W27538  23.335   3.806  12.581 -0.0888  0.1851 -0.1460
26675W        W27539  25.622  23.742  19.809  0.0694  0.0123  0.1811
26676W        W27540   3.337  19.971  27.206  0.0994 -0.0259 -0.1097
26677W        W27541  28.536  17.638  18.831 -0.1076  0.0927  0.0126
26678W        W27542   5.430  25.797  27.391 -0.1143  0.0906 -0.0762
26679W        W27543  18.289  24.386   0.408  0.1018  0.2217 -0.2614
26680W        W27544  16.096  19.345   1.168 -0.2115 -0.0877  0.1029
26681W        W27545  22.119  25.628  20.910  0.2335 -0.3245  0.2215
26682W        W27546  21.008   2.369  25.760 -0.1159 -0.1275 -0.1334
26683W        W27547   8.876  25.342   8.173  0.2126  0.0362 -0.1349
26684W        W27548  25.902  27.623  28.148  0.0272  0.0821  0.0462
26685W        W27549   4.092   1.268  18.280 -0.1114  0.0861  0.1877
26686W        W27550  19.097   1.055  13.545  0.0005  0.0234 -0.0602
26687W        W27551  19.889   1.826  20.217 -0.0497 -0.3847 -0.0411
26688W        W27552  11.724  19.142  11.939 -0.4193 -0.1581  0.1021
26689W        W27553   8.788   4.616   1.423  0.0066  0.0384 -0.1370
26690W        W27554  22.885  11.204   3.651 -0.0542  0.1100  0.2724
26691W        W27555   0.614  24.756   8.579  0.2561  0.0691  0.0536
26692W        W27556  13.991  21.167  26.786  0.0381  0.1706 -0.1630
26693W        W27557   9.580  11.406   6.541 -0.0601  0.1556 -0.0923
26694W        W27558   4.234  18.731   2.376  0.2287  0.2945 -0.1130
26695W        W27559  23.926  25.212  21.341  0.0826 -0.0181 -0.0569
26696W        W27560  15.995  25.139   9.615  0.1152 -0.0538 -0.2529
26697W        W27561  10.659  19.055  22.918 -0.2834  0.1951  0.1175
26698W        W27562  15.601   4.892  27.656  0.1132  0.0643  0.0275
26699W        W27563  27.159   1.450  21.331  0.1749  0.1653  0.1035
26700W        W27564  17.748  21.052  24.853 -0.0838  0.0302 -0.0467
26701W        W27565  22.327   3.619  11.035  0.3348 -0.2521 -0.1140
26702W        W27566   5.728   7.665   4.990  0.1167 -0.0989  0.0789
26703W        W27567   2.485  27.324  11.375  0.1621  0.3337  0.1268
26704W        W27568  16.740   9.005  18.688 -0.1118 -0.1664 -0.0577
26705W        W27569   3.258  12.957   6.308  0.0537 -0.0079 -0.2161
26706W        W27570   4.134  22.648  10.179  0.0549  0.0400 -0.1012
26707W        W27571  19.322   2.657   0.481 -0.0952  0.1113  0.2103
26708W        W27572  20.633  14.196  12.678 -0.1969 -0.0060  0.2484
26709W        W27573  14.453  21.081   1.926 -0.0974 -0.1458  0.0549
26710W        W27574  20.842   3.309  10.660 -0.0525  0.3754 -0.1662
26711W        W27575   6.329  19.231  23.599 -0.2495 -0.0456  0.1301
26712W        W27576   8.988   2.305  25.225 -0.1827 -0.1186  0.1049
26713W        W27577  25.362  12.797  10.863 -0.3791  0.0121  0.1368
26714W        W27578  17.670   7.068  13.541 -0.0868  0.0432  0.0291
26715W        W27579  16.433  26.442  17.895  0.0603 -0.0922 -0.1704
26716W        W27580  15.665  13.417   6.488  0.1959  0.2231 -0.2838
26717W        W27581   6.029  17.643  23.781 -0.0039 -0.0490  0.3533
26718W        W27582   8.881  24.073  23.594 -0.0457 -0.3212  0.1250
26719W        W27583   4.919   4.900  15.209 -0.2094  0.1734  0.0780
26720W        W27584   0.874  15.020  10.259  0.1747 -0.2147  0.2809
26721W        W27585  17.401  28.759   4.249  0.1088 -0.2708 -0.4826
26722W        W27586  23.813   4.555   8.011 -0.1292 -0.2537  0.1459
26723W        W27587   0.948  21.834   9.743 -0.0639  0.2292 -0.0032
26724W        W27588  27.850  20.752  16.350 -0.0369 -0.4470 -0.1402
26725W        W27589  18.029  22.866  25.483  0.2638  0.2307 -0.1557
26726W        W27590  26.944   0.719  12.227  0.1912  0.0236 -0.0918
26727W        W27591  10.910   1.351  23.465  0.1403 -0.0347  0.1504
26728W        W27592   1.883  19.846  25.473 -0.1235 -0.3975  0.0873
26729W        W27593   4.866  23.929  25.869  0.2477 -0.0496 -0.1321
26730W        W27594  19.775  24.366   9.589 -0.0576 -0.0297 -0.0731
26731W        W27595  23.725  27.151  13.884  0.1811 -0.2334  0.0057
26732W        W27596  17.934  29.071  22.181 -0.1030 -0.0702 -0.0510
26733W        W27597  25.374  13.898  23.218  0.1829 -0.0347  0.0676
26734W        W27598  13.066   0.043  25.237 -0.0729 -0.2333 -0.1082
26735W        W27599  26.926   7.383   8.934 -0.0591 -0.0950 -0.0270
26736W        W27600  22.357  14.858  27.585  0.2228  0.1910 -0.0121
26737W        W27601   8.438  25.369  28.206  0.0913 -0.3734 -0.0766
26738W        W27602  11.326   1.055  23.322  0.1612  0.3874 -0.4255
26739W        W27603  19.732  27.363   3.806 -0.1827 -0.1837 -0.0013
26740W        W27604   7.398  28.314  20.528 -0.3654 -0.1579 -0.3907
26741W        W27605   6.906   7.253  15.001 -0.1436  0.1536 -0.2197
26742W        W27606  19.356   4.407  28.136  0.0141  0.2677  0.0369
26743W        W27607  24.555   2.800  17.390  0.0150  0.1191  0.0804
26744W        W27608   4.771  16.731  16.688 -0.0794 -0.0508  0.0637
26745W        W27609  11.639  16.485  13.199  0.2765 -0.3207  0.4300
26746W        W27610  29.092  17.294  19.561 -0.2737  0.4242  0.2480
26747W        W27611   4.250   3.247  18.082  0.0943 -0.0074 -0.1735
26748W        W27612  18.662   6.663  25.045 -0.0094  0.0652  0.1518
26749W        W27613  27.939  22.379  26.565 -0.2052  0.0957 -0.0008
26750W        W27614  27.417   4.275  19.067  0.1136  0.1316  0.3529
26751W        W27615  15.696  28.418  22.897 -0.0981  0.0073 -0.1175
26752W        W27616  15.580   0.816  26.142  0.3092  0.0739  0.2397
26753W        W27617  20.064  25.745  10.628 -0.1059 -0.0710  0.1547
26754W        W27618  21.685  12.888  21.787  0.2894 -0.0580  0.1259
26755W        W27619  17.967   4.525  21.533  0.0524 -0.1445  0.2077
26756W        W27620   0.014  27.916   8.279  0.3158 -0.0260 -0.1738
26757W        W27621  17.693  17.830  16.317 -0.0213 -0.0590 -0.0205
26758W        W27622   5.796  16.002  28.081  0.2565  0.0427  0.1190
26759W        W27623   3.152   1.022  12.801 -0.1307 -0.0237  0.2531
26760W        W27624  10.856  26.838   4.217 -0.0558  0.0487  0.1588
26761W        W27625  17.715  27.254  21.701  0.2617  0.0419 -0.2275
26762W        W27626  19.982  18.191  13.784  0.0262 -0.0428 -0.1570
26763W        W27627  27.920  20.817  17.390  0.1280 -0.0658  0.0505
26764W        W27628  19.599  18.914  16.656  0.1513 -0.0371  0.2571
26765W        W27629   5.052  25.541  14.235 -0.1505 -0.1975 -0.2543
26766W        W27630  28.548  24.882  19.008 -0.0126  0.2101 -0.0460
26767W        W27631  23.400  20.102  25.209 -0.1382  0.0473  0.1353
26768W        W27632   9.734  24.891   9.617  0.0682 -0.2140 -0.1566
26769W        W27633  27.666   4.947   4.723 -0.0366  0.2050 -0.2608
26770W        W27634  27.812   2.446  13.566  0.0490 -0.0266  0.0721
26771W        W27635  11.913  21.615  12.935  0.0277 -0.0061 -0.0196
26772W        W27636  16.305  27.596  20.693 -0.0424 -0.1030 -0.3774
26773W        W27637  12.847   7.767  13.461 -0.1884 -0.2953  0.0263
26774W        W27638  20.346  27.368  21.258  0.2992  0.0260 -0.0780
26775W        W27639  18.422   1.042  15.166 -0.0890 -0.1197 -0.0855
26776W        W27640  12.608  11.058  19.053  0.0675  0.1435  0.0440
26777W        W27641  16.151  23.511  14.922  0.2270  0.2414 -0.1285
26778W        W27642  18.899  17.408   1.317  0.1358  0.1037  0.1544
26779W        W27643  19.873   1.656  24.544 -0.0011  0.1812 -0.0703
26780W        W27644   8.002  26.470  10.728 -0.0333  0.0370  0.1110
26781W        W27645  11.046  27.083  26.446  0.0709 -0.0181  0.2229
26782W        W27646  18.241  20.394  12.808  0.2202  0.2278 -0.1828
26783W        W27647  15.910   7.646  23.629 -0.0785 -0.1024  0.3230
26784W        W27648   3.570   4.943  27.232 -0.0287  0.1596  0.0695
26785W        W27649  20.625  13.328  15.191  0.0644  0.1853 -0.0337
26786W        W27650   9.508  25.214  14.205 -0.4223  0.2894 -0.0067
26787W        W27651  10.169   2.926   9.119  0.2357 -0.2047  0.4612
26788W        W27652   3.631  24.235   6.899 -0.0901  0.3401 -0.0153
26789W        W27653  22.502  29.064   5.849  0.0182  0.0119 -0.0416
26790W        W27654  22.250  18.759  14.533 -0.4171  0.0761  0.3848
26791W        W27655  21.995  25.349   7.440  0.0605 -0.3711 -0.0742
26792W        W27656  19.088  11.194  13.160  0.0521  0.0859 -0.1025
26793W        W27657  16.248   2.582  28.167 -0.1009  0.3054  0.0712
26794W        W27658  19.493  20.944  25.096 -0.2614  0.0164  0.0209
26795W        W27659  16.887  12.469   8.408 -0.0797  0.0148 -0.0662
26796W        W27660  21.370  26.729  20.467  0.1185 -0.0152  0.0046
26797W        W27661  27.084  12.186  21.913  0.2964  0.0951  0.0618
26798W        W27662  20.792   6.426  21.533  0.0403 -0.2608 -0.0814
26799W        W27663  21.479  18.379  18.684  0.2477  0.1176  0.0501
26800W        W27664  25.354   5.404  26.149  0.1892  0.1005 -0.2932
26801W        W27665   2.432  26.897  14.314  0.2503 -0.2964 -0.0535
26802W        W27666  28.972   0.485  15.211 -0.3199 -0.1263  0.3710
26803W        W27667  21.545  14.652   2.118 -0.1115 -0.1060 -0.0791
26804W        W27668   1.337  28.930  16.349 -0.0340  0.1252 -0.1562
26805W        W27669  17.047  22.628   6.305  0.1016 -0.1202  0.1899
26806W        W27670  27.926   4.173   8.273 -0.2715 -0.0059 -0.1408
26807W        W27671   1.472  13.309   3.765  0.2248  0.2673 -0.0526
26808W        W27672  26.610  12.558   8.722  0.0684 -0.1844  0.1301
26809W        W27673   5.684  22.296   1.229 -0.2463 -0.0861  0.0148
26810W        W27674   8.117  28.929  11.689 -0.0451  0.3228  0.0547
26811W        W27675   0.271   1.694   5.873 -0.3235 -0.0589 -0.1092
26812W        W27676  26.619  12.425  19.131  0.0319  0.1244 -0.2478
26813W        W27677  16.963   3.684  22.380  0.1424  0.3219  0.2493
26814W        W27678  17.756  20.586  17.302 -0.2749 -0.1814  0.1551
26815W        W27679  28.695   0.691  22.061 -0.0161 -0.0727  0.0053
26816W        W27680   0.720  25.499  14.432  0.1453 -0.1256  0.1336
26817W        W27681  24.170   3.178  21.404 -0.0566 -0.2252 -0.1979
26818W        W27682   9.113   1.092  21.724 -0.0078 -0.0479  0.1655
26819W        W27683  18.320  18.366  14.702 -0.1005 -0.0591  0.0557
26820W        W27684   8.039  26.474  12.125  0.4398 -0.3130  0.0687
26821W        W27685  23.501  22.645  15.489  0.2589 -0.1500  0.0409
26822W        W27686  25.340   0.322  19.786 -0.0333 -0.1658  0.0112
26823W        W27687   6.757   0.106  19.901  0.1634  0.1554  0.1815
26824W        W27688   4.139  20.152  15.630 -0.0432 -0.1950  0.1883
26825W        W27689  24.927  18.617  12.013 -0.2482 -0.2020 -0.3755
26826W        W27690   0.360   1.704  24.830  0.3467 -0.2104 -0.2042
26827W        W27691  11.769  12.897  22.075  0.1156 -0.0350  0.2042
26828W        W27692   8.521   2.167  28.023  0.1838  0.1016  0.1458
26829W        W27693  14.595  20.183  19.461  0.3315  0.1504  0.2086
26830W        W27694  21.808   3.422  14.565 -0.2306  0.2524  0.2100
26831W        W27695   4.703  14.433  27.571  0.4353 -0.1034 -0.0600
26832W        W27696   1.569   4.258  19.225 -0.0614 -0.2149  0.0629
26833W        W27697   1.629  12.435   2.321  0.1772 -0.0055 -0.0907
26834W        W27698  24.715  27.710  19.487 -0.3678 -0.0344  0.0659
26835W        W27699   4.542  26.728   3.232 -0.1861 -0.1452  0.0597
26836W        W27700  15.907   8.679  22.748  0.0861 -0.0972  0.0140
26837W        W27701  16.770  13.594  26.386 -0.1629  0.1263  0.2692
26838W        W27702  27.289   1.160  24.191 -0.0471 -0.0320 -0.1582
26839W        W27703  29.059   5.446  24.690  0.0452 -0.0892 -0.0771
26840W        W27704  19.938  12.941  27.506  0.0430  0.0841  0.4724
26841W        W27705  15.215  26.699  10.877  0.0059 -0.0368 -0.2373
26842W        W27706  13.303   9.657  12.885 -0.0775 -0.1779  0.0002
26843W        W27707   4.117   7.632  10.416 -0.0186 -0.0168  0.0241
26844W        W27708   7.703  28.403  15.232 -0.0264 -0.1268 -0.2039
26845W        W27709  12.520   5.337   4.079 -0.0861  0.2026  0.0807
26846W        W27710  14.861   7.302  18.542 -0.0431  0.1704 -0.0190
26847W        W27711  19.178  28.815  12.787 -0.1641 -0.0589  0.0294
26848W        W27712  11.554   8.199  17.855 -0.1590 -0.2016  0.1319
26849W        W27713  10.637   4.534   9.856 -0.2422  0.1404  0.1778
26850W        W27714  16.756   7.312  11.809  0.0270  0.1901 -0.0473
26851W        W27715  10.639  22.031   6.785 -0.1330 -0.0819 -0.3068
26852W        W27716  13.289  11.392  18.510  0.0807 -0.0162  0.0348
26853W        W27717  23.934  10.721  23.059  0.2833 -0.2080 -0.1726
26854W        W27718  20.138   0.699  20.594 -0.0267 -0.2965 -0.2821
26855W        W27719  19.067  20.551  19.743  0.0151  0.0214  0.3139
26856W        W27720  25.141  20.058   3.525 -0.0414 -0.5800 -0.2382
26857W        W27721  13.705   1.595  14.930 -0.2007 -0.3498  0.1776
26858W        W27722  19.279   9.151  18.019 -0.3168 -0.4003 -0.3688
26859W        W27723  16.367  16.902   0.934  0.0892 -0.0855 -0.0234
26860W        W27724   0.541   2.836  24.912  0.0196 -0.1389 -0.1771
26861W        W27725  14.085  12.923  18.388 -0.0180 -0.1280  0.1926
26862W        W27726  19.280  16.023  12.410 -0.1464 -0.1574  0.2283
26863W        W27727  25.272  10.871  28.929 -0.0131  0.0638 -0.1514
26864W        W27728   0.208  21.861  15.896 -0.0263  0.2359  0.0100
26865W        W27729  19.925  28.256  21.158  0.0544 -0.2354 -0.1216
26866W        W27730  26.721   0.244  14.559  0.0519  0.0514 -0.0487
26867W        W27731  13.377   8.535  25.346  0.0577 -0.0729 -0.2430
26868W        W27732   1.381  13.085   8.347 -0.0580  0.2820  0.0693
26869W        W27733  27.591  13.643  26.413  0.0349 -0.0963 -0.1867
26870W        W27734  22.885  12.956  28.388 -0.0221  0.0612 -0.1379
26871W        W27735  20.917  11.959  17.017 -0.2487  0.3536 -0.1590
26872W        W27736  12.058  24.833  24.511 -0.1882  0.2015 -0.1784
26873W        W27737  20.780   8.580  12.228  0.4010 -0.0802 -0.1552
26874W        W27738  20.052  23.144  26.320 -0.4241 -0.0346 -0.1600
26875W        W27739  19.430  25.955   8.689 -0.1582 -0.4709 -0.0253
26876W        W27740  22.996   6.128  14.056  0.0736  0.1026 -0.1198
26877W        W27741   3.049   6.730   6.761  0.0796  0.3590 -0.1326
26878W        W27742  18.646  24.238  12.886 -0.0905 -0.0266  0.1279
26879W        W27743  24.333  15.875  16.280 -0.0699  0.1919  0.3719
26880W        W27744  21.523   1.514  22.680  0.0082  0.2076 -0.1383
26881W        W27745   8.651  20.942   9.136  0.1662  0.0203 -0.1491
26882W        W27746  20.169   3.535  20.849 -0.0408  0.1829 -0.0650
26883W        W27747  19.265   1.056   2.494 -0.1089  0.2332  0.1414
26884W        W27748  13.116   6.020   2.731 -0.1066 -0.0334  0.2859
26885W        W27749  12.815  27.027  18.344  0.1996  0.0827 -0.1687
26886W        W27750  13.171   7.765   7.939 -0.0211  0.2102 -0.0692
26887W        W27751   8.944  28.552   1.684  0.1904  0.1151 -0.2853
26888W        W27752   9.810  26.027   5.741 -0.0969  0.1058 -0.0226
26889W        W27753  19.987   7.935  22.448  0.1335  0.2795 -0.0392
26890W        W27754  11.237   0.053  15.312 -0.2768  0.0091  0.1244
26891W        W27755   1.126   1.623   9.763  0.0832  0.2039 -0.2252
26892W        W27756  16.029  21.512  25.625  0.2189 -0.0040 -0.1567
26893W        W27757  18.509  25.638  10.536  0.3908 -0.1131 -0.2044
26894W        W27758  25.792  13.863  22.678 -0.2159 -0.2234  0.0510
26895W        W27759  26.989   6.544  26.779  0.1130  0.2370  0.1376
26896W        W27760  10.184  15.791  20.509 -0.3377 -0.0226  0.1356
26897W        W27761  15.628  25.277  18.137  0.0650 -0.3469 -0.5345
26898W        W27762  14.196  21.251  15.199 -0.0612  0.0974 -0.2958
26899W        W27763   0.556  26.550   2.002  0.1738 -0.0730 -0.1782
26900W        W27764  14.521   1.703  14.321 -0.4279 -0.1413  0.0266
26901W        W27765  14.611   3.501  14.490  0.1062 -0.0307  0.5261
26902W        W27766  10.933  22.909  25.073 -0.1146  0.1721 -0.0757
26903W        W27767  28.640  22.664   6.636  0.2113 -0.0217 -0.1074
26904W        W27768  24.238  19.199   2.650  0.0130  0.4769 -0.0234
26905W        W27769  23.038   1.504  25.498  0.0189 -0.0545 -0.0285
26906W        W27770   4.904  20.796  15.928 -0.1477  0.2320  0.2619
26907W        W27771   5.217   8.143   6.702  0.0504 -0.2537  0.1815
26908W        W27772  24.712   8.994   3.605 -0.1368  0.0958 -0.1454
26909W        W27773   9.182   3.065  27.407 -0.0828 -0.1106  0.1504
26910W        W27774  15.647   7.158   2.261 -0.2385 -0.2329  0.0658
26911W        W27775  15.758   0.995   0.646 -0.0960 -0.0630 -0.0219
26912W        W27776   0.128   2.243  16.994 -0.0624  0.3319 -0.0712
26913W        W27777  25.927   6.444  28.118  0.0581 -0.2586 -0.1431
26914W        W27778   7.032  21.304  23.169  0.0817 -0.0553  0.0476
26915W        W27779   4.646  27.587  17.520 -0.1553 -0.0186 -0.1058
26916W        W27780   6.199  21.394  18.044  0.2026  0.0033  0.0880
26917W        W27781  15.845  26.756   3.156 -0.2732  0.0212  0.5213
26918W        W27782  23.885   0.411  23.335  0.0836  0.0179 -0.0151
26919W        W27783  16.844   5.930   8.225 -0.1515 -0.0881 -0.0164
26920W        W27784  20.080  22.534   3.428  0.1021 -0.2765 -0.0256
26921W        W27785   7.833  17.216   9.056 -0.1539 -0.0422 -0.1057
26922W        W27786  10.922  23.162  28.025  0.1551  0.0470  0.1798
26923W        W27787  15.573  12.648  22.272 -0.0001 -0.1591 -0.2184
26924W        W27788  10.645  11.387  28.790  0.0635  0.2545  0.1287
26925W        W27789  16.939   2.053   4.468  0.2030 -0.2176  0.0567
26926W        W27790  11.418  13.286  15.404 -0.0835 -0.1578 -0.2688
26927W        W27791  15.431   4.751   4.642 -0.1067  0.3194  0.2869
26928W        W27792  15.115   0.017  20.969  0.0099 -0.1495  0.0644
26929W        W27793   0.518  13.308  26.946 -0.0196  0.4351  0.0638
26930W        W27794  14.802  25.628  20.634 -0.1884  0.1316 -0.1302
26931W        W27795  12.313  10.051   2.462  0.0934 -0.1149 -0.0670
26932W        W27796   1.137   0.648  23.619  0.0026 -0.0967 -0.4104
26933W        W27797  14.462  16.729  10.695 -0.0462  0.2378 -0.1246
26934W        W27798  23.577  17.597   4.325  0.0220  0.0156 -0.2129
26935W        W27799  25.109  23.840  19.220  0.2479  0.3034  0.0457
26936W        W27800  10.303   1.981   1.414 -0.4057 -0.1752  0.3495
26937W        W27801  17.239  26.973  19.480 -0.1535  0.0521  0.0437
26938W        W27802  21.388  21.731  22.787 -0.1250 -0.0893 -0.1018
26939W        W27803   4.869  26.771  20.868 -0.0967  0.0020  0.0069
26940W        W27804  13.173  23.801  28.455 -0.1282  0.1823  0.1329
26941W        W27805  25.542  26.159   4.385  0.2035  0.1084 -0.1156
26942W        W27806   9.629   2.743   0.385  0.3019  0.1492 -0.0779
26943W        W27807   1.285  28.541   6.885  0.2635 -0.0815  0.2722
26944W        W27808   0.203  16.172  20.768 -0.1717  0.1768  0.0415
26945W        W27809  22.229   4.455  16.825  0.0915 -0.0367  0.1947
26946W        W27810  18.252  17.570  11.669  0.0595 -0.1835 -0.0280
26947W        W27811   4.797   3.369  11.362  0.0140  0.1483 -0.0396
26948W        W27812   7.924  18.569  20.622 -0.2733  0.0053  0.0462
26949W        W27813  12.824  27.532  26.183 -0.0296 -0.1483 -0.2918
26950W        W27814  19.918  21.612  20.596  0.2190  0.1525 -0.0545
26951W        W27815  16.847   4.484   7.519 -0.0655 -0.0588  0.1242
26952W        W27816   7.020   8.086  20.702  0.0081  0.2374  0.2356
26953W        W27817  22.432   2.336  17.860  0.0487  0.2707 -0.1658
26954W        W27818  10.348   6.280  10.433 -0.0496 -0.2763  0.0057
26955W        W27819   1.681  15.275  23.941 -0.1977  0.1321 -0.1245
26956W        W27820   4.201  26.002  15.068  0.0826 -0.0337  0.0186
26957W        W27821  10.252  26.878  13.782 -0.0007 -0.2189 -0.2210
26958W        W27822   0.091   0.440  14.791 -0.3315  0.1190  0.3711
26959W        W27823  29.004   7.626   0.075 -0.2423 -0.0810 -0.0101
26960W        W27824  13.469  11.507   5.950  0.1772 -0.0564  0.0742
26961W        W27825  27.666  10.043  25.064 -0.1287  0.0521 -0.1433
26962W        W27826  13.916  28.935   9.476 -0.0595 -0.1739 -0.1517
26963W        W27827  11.925  28.609  13.616  0.2143  0.0982 -0.0078
26964W        W27828  17.737   7.882  27.721 -0.0783  0.0397  0.3518
26965W        W27829  21.561  22.660   0.402 -0.3486 -0.0462 -0.1039
26966W        W27830  26.270   4.843   9.455  0.1041  0.1869 -0.2139
26967W        W27831  10.866  28.012   5.830  0.4134  0.0152 -0.0144
26968W        W27832  12.888  19.258   1.585  0.0274 -0.0076  0.0256
26969W        W27833  15.112  18.456  27.449 -0.0654 -0.1835  0.3610
26970W        W27834  19.765  27.302   3.316  0.0338  0.1332 -0.3891
26971W        W27835  18.175   5.472  25.970  0.0941 -0.0196 -0.0618
26972W        W27836  12.306  16.349  18.624  0.0439  0.4497  0.2645
26973W        W27837  21.455  14.555  21.169 -0.1616  0.1576  0.2352
26974W        W27838   7.963  27.982   1.088  0.0980 -0.3058  0.1280
26975W        W27839  18.251  24.085   2.123 -0.1273 -0.0535  0.0743
26976W        W27840  23.016  20.412  28.768 -0.0487 -0.0309 -0.1475
26977W        W27841  11.715  25.883  28.952 -0.0765  0.3982  0.3303
26978W        W27842  13.754   2.605   6.967 -0.0895 -0.1956  0.0920
26979W        W27843  22.054  11.875  14.123  0.2497  0.0640 -0.0852
26980W        W27844   2.394  21.381  10.640 -0.0481 -0.0157 -0.2397
26981W        W27845  16.448   3.185  14.568 -0.0828 -0.1664 -0.0470
26982W        W27846  21.152  17.626  24.571  0.0889 -0.0357 -0.0206
26983W        W27847  11.451  24.859   4.559 -0.0613  0.0955 -0.0212
26984W        W27848   1.068  13.538  10.619  0.2029 -0.0351  0.0998
26985W        W27849  26.029  15.044  25.537 -0.1954  0.3528 -0.0281
26986W        W27850  16.314  17.634  12.053 -0.1422  0.2243  0.0523
26987W        W27851  27.583  20.786  10.981  0.0968 -0.1213  0.0724
26988W        W27852   8.119  27.898   2.807 -0.1211  0.0299  0.1510
26989W        W27853   9.616  27.175  26.927  0.3472  0.2644  0.1099
26990W        W27854  15.636  17.712  27.945  0.0121 -0.1016 -0.4532
26991W        W27855  25.768   4.498  18.634  0.0408 -0.0986 -0.1587
26992W        W27856  10.706  11.827   3.613  0.2550 -0.2636 -0.0881
26993W        W27857  16.586  11.589  26.470  0.0274 -0.0178  0.1100
26994W        W27858   7.242  25.248  17.887  0.0914  0.0151 -0.1920
26995W        W27859  10.054   1.743  10.616  0.2398 -0.1587 -0.2102
26996W        W27860  22.034   8.974  14.717 -0.2056 -0.0575 -0.2290
26997W        W27861  16.437   3.356   0.129  0.0944 -0.0065 -0.0186
26998W        W27862  15.769   6.682  11.798 -0.0936  0.0443  0.2834
26999W        W27863  16.108  11.817  22.495  0.2585  0.2428  0.5261
27000W        W27864  25.784  21.958  26.896  0.0335 -0.0071  0.3080
27001W        W27865  28.614   7.215  22.700  0.0947  0.0730  0.2462
27002W        W27866  26.761   1.468  14.968 -0.1334 -0.0651  0.4877
27003W        W27867  20.368  22.111   8.048 -0.1474 -0.0741  0.2472
27004W        W27868  12.718  10.515  24.249 -0.1322 -0.1268 -0.0880
27005W        W27869  25.166  18.907  10.981  0.1126 -0.1650 -0.1006
27006W        W27870  25.907   3.357  27.215  0.0344 -0.0498 -0.1341
27007W        W27871  21.074   7.487   6.497  0.1329  0.2059 -0.5012
27008W        W27872  26.145  17.993  25.951 -0.0186  0.1319 -0.2179
27009W        W27873  18.583  10.132  10.755  0.0774 -0.4618 -0.0060
27010W        W27874  28.278  16.179   5.380  0.1371 -0.1314  0.1927
27011W        W27875  26.643   5.888  28.415  0.1627 -0.4691  0.2523
27012W        W27876  11.632  11.877  24.193  0.2432 -0.0639 -0.1694
27013W        W27877   8.212   2.848  18.131  0.3548 -0.3362  0.2792
27014W        W27878  17.823  11.021  18.840 -0.2731  0.2677 -0.1002
27015W        W27879  16.861  21.443  19.361 -0.2033 -0.0711 -0.0358
27016W        W27880   2.176  24.511   1.612  0.2112  0.1014 -0.2627
27017W        W27881  19.992   9.218   8.140 -0.0723 -0.1314  0.3601
27018W        W27882   4.892  14.827  14.476 -0.0373 -0.2771  0.0061
27019W        W27883  26.757  15.289   7.289 -0.0192 -0.0871  0.1397
27020W        W27884  25.146  25.149   1.719  0.1320  0.0196 -0.0479
27021W        W27885  24.913   6.277  21.552 -0.1230 -0.0501  0.0709
27022W        W27886  26.910  24.214  13.148  0.0481 -0.1540 -0.1200
27023W        W27887  15.166   5.105  20.848  0.1068 -0.0764  0.3174
27024W        W27888   1.533  23.833  25.696  0.0620 -0.1256  0.0246
27025W        W27889   1.337  28.950  17.338 -0.1459 -0.0565 -0.4848
27026W        W27890  21.591   1.067  18.367  0.4901  0.1018  0.0104
27027W        W27891  24.646   0.887  24.632 -0.2177  0.1762 -0.0697
27028W        W27892   7.586  19.281  22.013 -0.0810  0.0359  0.1629
27029W        W27893   7.485  23.606  22.898 -0.0799 -0.0409  0.0520
27030W        W27894  23.293  18.995  14.518 -0.0904 -0.1610 -0.1064
27031W        W27895  12.263   0.866  22.534 -0.2848 -0.3075 -0.0014
27032W        W27896   9.469  27.575  24.504 -0.3660  0.1467 -0.0953
27033W        W27897   9.092   5.883   8.941 -0.2358  0.1287  0.0255
27034W        W27898  17.719   4.089  25.052 -0.0109  0.2886  0.0769
27035W        W27899   6.069  28.000  18.279  0.1739 -0.1198  0.1503
27036W        W27900  22.786  27.452  11.395  0.0072  0.1200 -0.1068
27037W        W27901   6.979  21.069  14.874 -0.2275  0.2381  0.2821
27038W        W27902   8.843  16.463   9.781 -0.1674 -0.1219  0.1486
27039W        W27903  18.421   4.842  12.019 -0.2436 -0.0264 -0.0343
27040W        W27904   6.922   6.746  22.047 -0.3279  0.2061 -0.1792
27041W        W27905  22.282  18.881  21.089  0.0528 -0.2321  0.1735
27042W        W27906   2.617  28.179   1.121 -0.2013 -0.0574  0.4028
27043W        W27907   1.168  19.632   0.273 -0.1300  0.1255 -0.1109
27044W        W27908  21.841  15.772  11.524  0.0825 -0.1900  0.1324
27045W        W27909  13.631  28.741   7.622 -0.0707 -0.0189  0.1525
27046W        W27910  18.243   9.423  27.558  0.2362 -0.0257 -0.1190
27047W        W27911  18.144  26.886  28.435 -0.1414  0.0564 -0.0999
27048W        W27912  13.053  26.229  19.513  0.1057 -0.1234 -0.0112
27049W        W27913  23.687   4.800   0.306 -0.1704  0.4198 -0.0123
27050W        W27914  10.762  28.563  15.672  0.1433 -0.1302 -0.1154
27051W        W27915  18.521  18.870   9.775 -0.1457  0.2383 -0.1825
27052W        W27916  16.124  14.077  15.178 -0.1076  0.2037  0.1562
27053W        W27917  18.927  10.822  15.200 -0.2118 -0.1754  0.0307
27054W        W27918  11.760  22.882  28.716 -0.1991  0.5739 -0.1347
27055W        W27919  24.369  21.181  11.781 -0.0953 -0.3381 -0.1684
27056W        W27920   9.998  16.499  13.952 -0.0219 -0.0711 -0.1835
27057W        W27921  18.308  24.381   4.688  0.0173  0.1637  0.0029
27058W        W27922  24.682  11.003  18.682 -0.0798  0.2606 -0.0925
27059W        W27923  17.316  19.114   3.697 -0.0205 -0.1970  0.2273
27060W        W27924   9.256   6.787  12.426 -0.0884 -0.3410 -0.1074
27061W        W27925  17.887  25.420  12.724  0.1184  0.2314  0.3202
27062W        W27926   9.532   9.609  15.068  0.2067  0.0782  0.0844
27063W        W27927   5.510  21.302  10.866  0.0011 -0.1209 -0.2983
27064W        W27928  28.740  13.582   5.560  0.0875  0.1999  0.0280
27065W        W27929  23.207  26.917  14.015 -0.0184  0.1919 -0.2986
27066W        W27930  22.648  25.970  22.639 -0.1639  0.1231 -0.0292
27067W        W27931  21.429   0.571  23.562  0.2856 -0.2463  0.1772
27068W        W27932  15.026  16.856  24.049 -0.0732  0.1372 -0.4339
27069W        W27933   9.135  14.058  17.088  0.1573  0.3372  0.0543
27070W        W27934   2.413   6.076   9.346  0.0572  0.0255  0.0966
27071W        W27935  10.960  15.498  22.686 -0.2653 -0.0665  0.1357
27072W        W27936  26.344  27.297   5.299 -0.0992 -0.2742  0.1050
27073W        W27937  21.483  22.833  24.020  0.0777  0.2393  0.0705
27074W        W27938  23.454  25.399  26.286 -0.0378  0.5245  0.1383
27075W        W27939   1.053  22.703  12.462  0.1974  0.0122 -0.0286
27076W        W27940  25.821   4.401  17.249 -0.1240 -0.0838 -0.2473
27077W        W27941  24.517   7.116   4.510 -0.2212  0.2987 -0.0028
27078W        W27942  28.117  25.654  16.437  0.0868  0.0820  0.0697
27079W        W27943  20.503  15.128  13.015 -0.1179  0.5939 -0.1212
27080W        W27944  19.038  10.283   3.429 -0.1375 -0.1318 -0.1806
27081W        W27945  16.886   2.472  23.880  0.0763  0.2755  0.0127
27082W        W27946  14.319  18.418  19.849  0.2121 -0.2251  0.0485
27083W        W27947  13.134  22.349  28.406  0.2088  0.1016 -0.1048
27084W        W27948   2.976   2.777  22.188 -0.0450 -0.2261 -0.1036
27085W        W27949  29.041  17.721  11.707 -0.1388  0.2225 -0.2822
27086W        W27950  20.448  19.732   5.538  0.1097 -0.0115  0.0794
27087W        W27951  26.386  26.117  16.951  0.0870 -0.0793 -0.1839
27088W        W27952  19.404  25.994  20.212 -0.0710 -0.0920  0.1284
27089W        W27953  11.056  28.999  22.421  0.1457 -0.2433  0.2145
27090W        W27954  10.813   0.966  19.424 -0.0086 -0.0316 -0.0657
27091W        W27955   5.071   1.966  24.571  0.1459  0.2068 -0.1446
27092W        W27956  27.107   4.375  11.464 -0.1487 -0.1058 -0.0618
27093W        W27957  23.646   5.508  10.002 -0.1172 -0.1310  0.0876
27094W        W27958   4.262  27.480   0.629  0.0047  0.1504  0.0973
27095W        W27959   1.194  16.185   0.276 -0.1454  0.0359 -0.1808
27096W        W27960  25.647  15.478  16.847 -0.0722 -0.0419  0.1231
27097W        W27961  23.422   0.990  13.999 -0.4325  0.1787 -0.2134
27098W        W27962  25.343  11.905  25.167  0.0427 -0.0072  0.4287
27099W        W27963   4.665  21.931  21.996  0.2463 -0.1770 -0.0014
27100W        W27964  22.172   2.685   4.747 -0.0126 -0.0925 -0.1528
27101W        W27965   8.893  12.518  21.153  0.0746  0.5167 -0.0720
27102W        W27966  13.247  12.397  16.572 -0.2229  0.1172 -0.3792
27103W        W27967   2.001  26.231  28.415  0.1367  0.1015  0.3565
27104W        W27968  27.206  15.136  17.456 -0.2388  0.0978  0.1871
27105W        W27969   8.681  26.310   2.911  0.0192  0.1164 -0.0786
27106W        W27970   9.861  14.550  21.761  0.0526 -0.0200  0.4880
27107W        W27971   0.262  24.864  28.457 -0.1092 -0.3537  0.2826
27108W        W27972  26.269   3.255  26.303 -0.1160 -0.1701  0.2173
27109W        W27973   4.822  20.200   4.133  0.0079  0.0536 -0.3786
27110W        W27974  17.706  16.135  26.152  0.3554  0.0365 -0.0801
27111W        W27975  13.131   5.817  11.408 -0.1446  0.1226 -0.1115
27112W        W27976  14.703  15.997   5.734  0.0259  0.2325 -0.0769
27113W        W27977   6.678  28.871  20.320  0.1110  0.0771  0.0243
27114W        W27978  19.528  23.918  29.047  0.1376 -0.0412  0.0633
27115W        W27979   4.206   2.620  17.534 -0.2602 -0.4007 -0.0511
27116W        W27980   9.624  20.612  27.517  0.0985  0.0630 -0.1280
27117W        W27981  13.905   7.736   9.482  0.0666 -0.2487 -0.0711
27118W        W27982  24.461   3.497  25.050  0.1365  0.0607  0.1963
27119W        W27983  21.194  12.375  17.270  0.1814  0.1583  0.1876
27120W        W27984  17.904  18.494   7.027  0.0535 -0.0577 -0.0072
27121W        W27985  19.824  10.929  15.319  0.1345  0.1115 -0.1424
27122W        W27986  20.548   0.127  18.768 -0.1034 -0.0212 -0.0695
27123W        W27987  18.021  19.732  27.994 -0.2014  0.1104  0.2791
27124W        W27988  16.145  18.329  24.585  0.0640  0.1982  0.0042
27125W        W27989  23.019  24.776  23.920 -0.2505 -0.0318 -0.0107
27126W        W27990   5.880   1.249  28.722  0.0863 -0.4048  0.1121
27127W        W27991  28.670  10.805  16.290  0.3624 -0.0760 -0.1122
27128W        W27992   3.394   7.180  13.538 -0.0823  0.0044  0.3393
27129W        W27993  19.855  25.310  20.527 -0.3816 -0.1247  0.1432
27130W        W27994  23.717   2.186  16.047  0.0924  0.1518  0.0637
27131W        W27995  10.836  19.383  10.125  0.0396 -0.1669 -0.0270
27132W        W27996  28.880   1.785  27.822  0.1524 -0.3613 -0.2487
27133W        W27997  28.891   1.949  11.153 -0.0142 -0.1263 -0.4236
27134W        W27998  23.080  18.911   4.267  0.2456 -0.0727  0.0603
27135W        W27999  11.943  27.371  28.860 -0.0519 -0.1538 -0.0271
27136W        W28000  26.382  15.073  16.750 -0.2251  0.1119  0.2143
27137W        W28001  18.319   5.705   2.545  0.1118 -0.1975 -0.3088
27138W        W28002  28.498   2.895   5.405  0.3417  0.0236  0.0337
27139W        W28003   5.057   9.109  22.084 -0.4042 -0.0508 -0.1897
27140W        W28004   5.443  14.293   1.293 -0.3351 -0.0099 -0.0383
27141W        W28005  11.003  14.271  21.566  0.0111 -0.0238  0.0624
27142W        W28006   2.218  24.351  13.290  0.3773  0.4059 -0.0882
27143W        W28007  28.174  15.005   2.003 -0.2359  0.2658 -0.1753
27144W        W28008  25.879  11.878  21.283  0.3412  0.1377  0.1668
27145W        W28009  15.136   6.425  24.532  0.0510  0.1323 -0.2547
27146W        W28010  11.633  24.660  16.435  0.1966  0.0009 -0.1424
27147W        W28011  24.596  22.760   7.108 -0.1705  0.3469 -0.2811
27148W        W28012   4.664  19.080  24.581 -0.0934  0.1747 -0.2620
27149W        W28013  28.081  25.274  21.382  0.1513  0.0963  0.0590
27150W        W28014  21.304   3.531  17.801  0.2222  0.0590  0.0265
27151W        W28015  11.137  22.243  27.197  0.3864  0.0126 -0.1736
27152W        W28016  16.804   3.403   8.565 -0.2606  0.3247 -0.1560
27153W        W28017  23.358  20.472  18.590 -0.2384  0.1819  0.2030
27154W        W28018  16.115  11.970  24.364  0.2287  0.1259 -0.3288
27155W        W28019  14.491  22.206  26.063  0.3111 -0.4574  0.1906
27156W        W28020  25.778   1.820  24.045 -0.1674  0.0760  0.0277
27157W        W28021  24.175  23.177  19.091  0.0514  0.0414  0.2604
27158W        W28022   3.301   0.169  25.453  0.1113 -0.3840  0.0284
27159W        W28023  21.452  11.493  23.789  0.0250 -0.2290 -0.0690
27160W        W28024   8.372   3.302  12.954  0.1258 -0.1510 -0.0732
27161W        W28025  17.112  27.280   2.635 -0.2319 -0.0777  0.0374
27162W        W28026  25.443   1.391   4.962 -0.0077 -0.2740  0.0167
27163W        W28027  10.515  10.875  18.575  0.1224  0.0992  0.4058
27164W        W28028  17.553  24.519  21.467  0.2059 -0.0737 -0.2190
27165W        W28029  20.698  28.767  19.079 -0.0571 -0.4159 -0.0191
27166W        W28030  22.729  23.601  18.217 -0.1802  0.4202 -0.2441
27167W        W28031  10.171  27.477   0.474 -0.2102 -0.1034 -0.0258
27168W        W28032  26.813  21.257  25.128 -0.2102 -0.5974  0.3081
27169W        W28033  22.640  25.651   4.094 -0.2448 -0.1827  0.0395
27170W        W28034  26.646   3.908  23.598 -0.2310  0.1032  0.0564
27171W        W28035  18.961  17.666  23.560 -0.1279 -0.0659  0.0376
27172W        W28036  26.463  19.948  27.994  0.2663 -0.0202 -0.0672
27173W        W28037  13.959  15.400   0.229 -0.0878 -0.1618 -0.1525
27174W        W28038   9.799  27.366  26.519 -0.0516 -0.1066  0.1516
27175W        W28039  28.874   3.848  12.917  0.0314 -0.3304  0.1101
27176W        W28040   7.845   4.055  22.692 -0.1377  0.2769  0.0880
27177W        W28041  20.402  28.060  16.828  0.1614  0.0973  0.0283
27178W        W28042  13.947   1.015   7.322  0.3868 -0.0428  0.2363
27179W        W28043  15.696   5.409  27.783  0.0513  0.1660  0.2112
27180W        W28044   2.788  21.408   1.977  0.4686  0.1832 -0.0488
27181W        W28045  13.417   6.728   1.229 -0.2505 -0.4281  0.0278
27182W        W28046  15.761   0.458   9.593  0.0660 -0.2012 -0.0090
27183W        W28047  13.800   9.179   4.515 -0.1577  0.3499 -0.1406
27184W        W28048   7.953   8.016  19.753 -0.0970  0.0626 -0.0160
27185W        W28049  28.838   8.826  13.772  0.0132 -0.0406  0.2263
27186W        W28050   6.003  19.116  27.522 -0.0467  0.0227  0.1031
27187W        W28051  27.155  26.318  23.777 -0.1681  0.0652 -0.2191
27188W        W28052   6.504   1.709   9.557 -0.0491  0.1910  0.2577
27189W        W28053  21.103  28.253  17.884  0.1983 -0.0493  0.3005
27190W        W28054  15.487   9.517  18.594 -0.0378  0.0279 -0.0684
27191W        W28055  23.725  13.675  24.766 -0.0690  0.1640 -0.2742
27192W        W28056  28.421   9.748  21.135 -0.1502 -0.2733 -0.3683
27193W        W28057  19.309   6.296   5.467  0.0919 -0.0030  0.1335
27194W        W28058  24.216  18.751  13.842  0.0744  0.2260  0.2357
27195W        W28059  22.388  26.871  13.792 -0.2332 -0.0901  0.2936
27196W        W28060   7.827  23.392  11.445  0.0884 -0.1653  0.4431
27197W        W28061  14.244   3.368  11.241 -0.1038 -0.2322  0.1306
27198W        W28062  13.072  20.213   8.095  0.0685 -0.2125 -0.1311
27199W        W28063   2.648   3.555  13.662  0.2421 -0.0439  0.2157
27200W        W28064   2.282   1.303   1.986  0.2764 -0.2230 -0.0555
27201W        W28065   9.237  20.280  24.276 -0.3201 -0.0280  0.3870
27202W        W28066  16.773   2.600  28.203 -0.0341  0.1951 -0.1367
27203W        W28067  27.245  18.434  21.011  0.1791  0.0264  0.0089
27204W        W28068   9.331  25.074  22.331 -0.0491 -0.1649 -0.1149
27205W        W28069  18.587   7.947  18.803 -0.0042 -0.2071 -0.1103
27206W        W28070   0.306  18.207   3.031  0.1564 -0.0305 -0.2771
27207W        W28071   8.595  22.138  19.894  0.0883 -0.2916  0.3540
27208W        W28072  21.945   0.457  12.622  0.0347  0.1073 -0.2351
27209W        W28073  17.274   0.757  18.921  0.2033 -0.1137 -0.1670
27210W        W28074   7.607   0.806  25.471  0.3777 -0.0372 -0.0173
27211W        W28075  10.898  27.518  20.172 -0.1653  0.1408 -0.0859
27212W        W28076  21.220  22.249  18.502  0.0010 -0.0793  0.1571
27213W        W28077  13.798   8.592  10.586  0.1939 -0.2409 -0.2758
27214W        W28078  14.699  25.197  28.335 -0.1418 -0.3076 -0.0611
27215W        W28079  27.794  15.641  15.949 -0.0612  0.1724  0.0465
27216W        W28080   3.989  17.733   7.835  0.3307 -0.0733 -0.1714
27217W        W28081  15.911  27.663  27.324  0.1404  0.1075  0.0612
27218W        W28082  13.825   9.459  21.577  0.0174  0.2700  0.4425
27219W        W28083  28.091  16.136  23.871 -0.1489 -0.1680 -0.3099
27220W        W28084  10.062   7.882   9.919  0.0749 -0.2286  0.1525
27221W        W28085  22.042   2.590  20.185 -0.1731  0.1342 -0.2756
27222W        W28086  26.206  17.303  15.700  0.1175  0.0222  0.0475
27223W        W28087  28.418   8.360   0.502 -0.2668 -0.1032 -0.2039
27224W        W28088   6.892  26.758  24.193 -0.1874 -0.0457 -0.0313
27225W        W28089  10.773  26.675  12.065 -0.2149  0.0493 -0.1278
27226W        W28090   9.769  16.710   7.792  0.0188 -0.2674 -0.0161
27227W        W28091  11.868  22.876  24.243 -0.1459  0.1410  0.0653
27228W        W28092   7.256   9.908   9.866  0.1385 -0.2908  0.0955
27229W        W28093  25.824   2.887  20.275  0.2654  0.1422 -0.0587
27230W        W28094  19.359  19.067  19.677  0.0845  0.0133 -0.1251
27231W        W28095  20.403  21.157   8.190  0.3627 -0.1520 -0.0334
27232W        W28096  15.401   7.674  22.528 -0.0165  0.1851 -0.1388
27233W        W28097  24.441   5.606  26.970 -0.0474  0.0413 -0.5094
27234W        W28098  24.665  13.711  18.956  0.3113 -0.0069 -0.2336
27235W        W28099   1.926  26.523   6.490 -0.0035  0.0764  0.0122
27236W        W28100  12.181  12.340   4.956  0.0056  0.1607  0.0772
27237W        W28101  24.337  21.417  20.726  0.0105 -0.3947  0.2312
27238W        W28102   2.871  28.445  11.740  0.0877 -0.0305  0.0396
27239W        W28103   9.317  28.333  23.743 -0.0470 -0.2568  0.0151
27240W        W28104  18.089  16.445  12.961 -0.0499 -0.0285  0.1688
27241W        W28105  13.763  24.957  28.187  0.1633  0.0803  0.2601
27242W        W28106  21.262  17.059  18.610 -0.2155  0.0474  0.0499
27243W        W28107  15.460  26.087  26.461  0.1903  0.0267 -0.1188
27244W        W28108  27.723  24.249  18.596  0.0348 -0.0129 -0.1456
27245W        W28109   6.872  20.399   4.973  0.1569  0.2496 -0.1275
27246W        W28110   0.589  22.025  23.129  0.2989  0.2200  0.3796
27247W        W28111  11.338  22.060  17.213  0.3660  0.0876 -0.1892
27248W        W28112   4.471   2.219  15.208  0.1023 -0.1667  0.0368
27249W        W28113  18.462  26.595   9.702 -0.2882 -0.2177  0.2699
27250W        W28114  21.047  12.733  17.543  0.0705  0.0188  0.1039
27251W        W28115  19.287   0.181  20.473  0.0703  0.0691 -0.3464
27252W        W28116   6.412  18.117  18.951 -0.2315  0.2180  0.0521
27253W        W28117  17.259   8.151   2.487  0.1611 -0.2458 -0.0035
27254W        W28118  18.044   7.222   8.342 -0.2728  0.0022 -0.1145
27255W        W28119  14.429  18.100  11.310  0.0214 -0.0195  0.1678
27256W        W28120  14.364  27.820  14.207 -0.1953  0.3509 -0.3304
27257W        W28121  24.688  17.670  11.969 -0.2793 -0.2547  0.0554
27258W        W28122  20.002  26.628   6.613 -0.0255  0.0006  0.2538
27259W        W28123  21.764  14.694   3.869 -0.1824 -0.0104  0.3582
27260W        W28124   6.250  28.828  26.799 -0.0989  0.2165  0.2386
27261W        W28125  25.701  26.901  21.947 -0.2261  0.0273 -0.1182
27262W        W28126   2.536  24.685  11.355  0.0800  0.0617  0.2466
27263W        W28127  26.925  18.009   8.790 -0.0595  0.1305  0.1789
27264W        W28128  16.050   4.950  18.256  0.2093 -0.1124  0.0413
27265W        W28129  20.308  26.273  10.567 -0.0790  0.3834 -0.0085
27266W        W28130  20.388  11.979  24.979 -0.1628  0.1095  0.1612
27267W        W28131  26.405  27.590   7.890 -0.3419  0.0674  0.0273
27268W        W28132  26.198  12.828   5.866  0.1257 -0.0191 -0.0178
27269W        W28133  10.457  16.314  16.388 -0.1428 -0.1659  0.0866
27270W        W28134   5.291   3.885   9.660  0.2290  0.0280 -0.1545
27271W        W28135   7.533   5.584  21.663  0.0019  0.2325 -0.1542
27272W        W28136  10.684  19.231  12.217  0.2591 -0.2087  0.0728
27273W        W28137   2.526   8.732  22.204  0.0609  0.1260 -0.0970
27274W        W28138  25.834  28.301   8.950 -0.0062 -0.2948  0.1485
27275W        W28139  22.160   3.906  25.647  0.0943 -0.2542 -0.2321
27276W        W28140   8.140  24.976  10.501  0.1609  0.2152 -0.1724
27277W        W28141  16.343  15.081  20.836  0.1597 -0.3830 -0.0950
27278W        W28142  19.689  24.045   8.365 -0.2338 -0.3852  0.1040
27279W        W28143  10.923  22.658  11.864 -0.2363  0.1759 -0.1859
27280W        W28144  18.978  10.978  25.863  0.1435  0.1452  0.3150
27281W        W28145  13.743   4.937   2.151 -0.1633  0.0643 -0.0410
27282W        W28146  10.767  14.632  27.393  0.2562  0.2782  0.1832
27283W        W28147   9.302   7.882   7.703  0.0138  0.1743 -0.0949
27284W        W28148  13.718  16.355  14.043  0.2038 -0.0369  0.2223
27285W        W28149  23.680   7.461  25.126 -0.0568  0.0367  0.5119
27286W        W28150   4.705   6.100  20.406 -0.1093 -0.0070 -0.0716
27287W        W28151  28.917  19.032  26.244 -0.0940 -0.2592 -0.0861
27288W        W28152  28.457  19.315  24.348 -0.1000 -0.1923  0.0390
27289W        W28153  22.652  20.456   5.108  0.0314 -0.1755 -0.0698
27290W        W28154  27.587  11.537  12.203  0.2323 -0.0288  0.3883
27291W        W28155   1.582   9.381  17.760 -0.2451 -0.2306  0.0139
27292W        W28156  19.620   6.952   7.051 -0.2518 -0.0860  0.1897
27293W        W28157  18.985   5.097  11.418  0.1251 -0.1072 -0.4163
27294W        W28158  11.782  21.481  24.686  0.3840  0.0492 -0.0112
27295W        W28159   6.497  14.072  28.391 -0.0067 -0.1324  0.1658
27296W        W28160  24.960  15.414   7.335 -0.0724 -0.1126  0.0981
27297W        W28161   2.308  21.761  23.703 -0.1098  0.0790 -0.0422
27298W        W28162  17.118  27.011  14.161  0.1741 -0.0066 -0.1593
27299W        W28163   7.310  23.284  18.905  0.0378 -0.2042 -0.3702
27300W        W28164  22.103   4.087   0.493 -0.2368 -0.4305  0.3789
27301W        W28165  19.080  10.059  17.564 -0.1996 -0.1219  0.0556
27302W        W28166  11.774  26.352  22.919  0.1386 -0.0332  0.0540
27303W        W28167   9.945  15.803  12.667  0.2805 -0.2765  0.0522
27304W        W28168  15.133   6.164  28.029  0.2084  0.1079 -0.1410
27305W        W28169   9.649  28.714  26.206 -0.0730  0.0290  0.0902
27306W        W28170   2.593  20.430  26.569 -0.0484 -0.0344  0.3289
27307W        W28171   0.639  14.112  21.175 -0.0483 -0.0774  0.2973
27308W        W28172  11.839  28.853  11.170  0.3280 -0.3073  0.1743
27309W        W28173  21.497   3.952   8.804 -0.0987  0.1900 -0.1391
27310W        W28174   8.953   7.969  14.822 -0.0240  0.1453  0.1572
27311W        W28175  26.002   6.559  27.331  0.2311 -0.1502  0.3569
27312W        W28176  18.491  17.709  19.977  0.2251 -0.2684 -0.1274
27313W        W28177  28.330  28.683  23.994  0.0770  0.1066  0.0277
27314W        W28178  10.012  18.213  25.941  0.0368 -0.2394 -0.2637
27315W        W28179  21.313   3.844  24.282  0.1193 -0.0173 -0.2346
27316W        W28180   7.036  27.299  14.152  0.0635 -0.1327  0.2178
27317W        W28181  16.110   4.661   6.386 -0.3390 -0.0784  0.0018
27318W        W28182  22.385   1.409  15.446 -0.1374 -0.0339 -0.0898
27319W        W28183   9.426  16.175  16.594  0.0096  0.3876 -0.0094
27320W        W28184  24.040   2.705  18.174 -0.0678  0.1282 -0.1593
27321W        W28185  22.176  27.703  20.305 -0.1517  0.0296 -0.1263
27322W        W28186  24.942  25.706  16.716  0.1509  0.1284  0.0226
27323W        W28187   5.566   5.310  27.208  0.1198 -0.4419  0.1473
27324W        W28188  11.641  26.179  21.238 -0.0047  0.0078  0.1421
27325W        W28189  17.700  28.558  20.960 -0.1040 -0.0811  0.2867
27326W        W28190  28.777   6.723  14.493  0.1488 -0.1684  0.1458
27327W        W28191  19.562   6.273   6.496  0.0502 -0.0333  0.1456
27328W        W28192  15.753   3.762  18.122 -0.2287  0.2946  0.0865
27329W        W28193  20.132  12.847  28.627 -0.2158  0.0691 -0.1109
27330W        W28194   7.934  14.664  16.223 -0.1050 -0.0975  0.1905
27331W        W28195  21.331   2.296   4.850 -0.4259 -0.0254 -0.0064
27332W        W28196  14.615  11.930  16.330 -0.0417 -0.0926 -0.1631
27333W        W28197  11.389  17.023  15.821  0.1209 -0.0828 -0.1472
27334W        W28198  16.096   2.074  25.889  0.0571 -0.0030 -0.1306
27335W        W28199  13.604  23.817   0.437 -0.2386  0.0363 -0.1077
27336W        W28200  27.601  12.643   4.477  0.1753 -0.3115  0.2418
27337W        W28201  17.503  14.715   7.839  0.2805 -0.1171 -0.2124
27338W        W28202   3.293  13.290  17.858 -0.0352  0.0688  0.0240
27339W        W28203   1.824  19.180  28.403 -0.1065  0.0099 -0.1052
27340W        W28204  21.410   7.608  23.563 -0.3133  0.0823  0.1207
27341W        W28205  15.935  27.647   4.377 -0.0992 -0.1663  0.1591
27342W        W28206  15.634  19.352  24.027 -0.3318  0.0757 -0.2747
27343W        W28207  24.155   7.528  24.476 -0.1271  0.0207 -0.1731
27344W        W28208  20.403  24.968  14.761  0.0468  0.1467 -0.2971
27345W        W28209   8.444  23.803  23.566  0.1320 -0.0728 -0.0296
27346W        W28210  12.999  22.700  17.018  0.0369 -0.0979 -0.1373
27347W        W28211  19.418   3.141   1.805  0.0891  0.2935 -0.1265
27348W        W28212   5.531   2.579  29.107 -0.0508  0.0722 -0.1942
27349W        W28213  16.279  23.418  22.616  0.2072 -0.2379  0.0001
27350W        W28214  26.664   7.706   4.889 -0.1537  0.0729  0.0310
27351W        W28215   9.274   5.353  15.029  0.1313  0.0667  0.0454
27352W        W28216  22.787   1.379  10.177 -0.1493 -0.2964  0.1242
27353W        W28217   5.667  16.262  23.252 -0.1355  0.1742  0.0708
27354W        W28218  25.942  18.422  23.993 -0.1470  0.0112 -0.1600
27355W        W28219  14.046  25.216  27.448  0.0634  0.0470  0.2840
27356W        W28220   6.002   1.821  17.674  0.1572  0.4580  0.1632
27357W        W28221  14.259  27.201  11.554  0.0878  0.0960  0.0916
27358W        W28222  14.650  24.495  27.640  0.0716 -0.1836  0.1115
27359W        W28223  17.880  16.626   1.960 -0.0772  0.0470  0.2417
27360W        W28224  20.289  23.604  18.135  0.0866  0.0690  0.0545
27361W        W28225   0.455   0.750  16.943  0.0350 -0.0654 -0.1766
27362W        W28226  15.974  28.804  28.049 -0.0891 -0.2812 -0.1026
27363W        W28227  13.560  29.009   0.938 -0.1574 -0.1488 -0.0212
27364W        W28228   4.724  22.490  22.510 -0.2082 -0.1612 -0.0312
27365W        W28229  14.660   2.877  19.347  0.2655 -0.1976  0.0347
27366W        W28230  26.632   1.583  17.079  0.3409 -0.0704  0.0885
27367W        W28231  26.475  23.788  19.303 -0.3140 -0.0045  0.1963
27368W        W28232  19.888  28.854   0.351  0.0998  0.1128 -0.4369
27369W        W28233  24.043   9.179  25.060 -0.0272  0.0697 -0.0680
27370W        W28234  20.294   8.887   0.021 -0.1634 -0.3802 -0.4340
27371W        W28235  16.933  10.778  21.459 -0.1121 -0.2231 -0.1403
27372W        W28236   7.461  14.818  15.472  0.0283  0.3521  0.0631
27373W        W28237  25.978   0.729  15.069  0.1911 -0.4696  0.0794
27374W        W28238  17.264   4.642  16.145  0.0294 -0.2398  0.0254
27375W        W28239  11.089  27.640  26.069 -0.1045 -0.2297 -0.0856
27376W        W28240  21.656  27.110  10.236  0.1867  0.0502 -0.0534
27377W        W28241   2.397  12.705   6.655 -0.0570 -0.0039  0.2218
27378W        W28242  22.535  23.733  22.834 -0.1021 -0.0858 -0.1014
27379W        W28243  23.431  28.778   1.123 -0.3975 -0.0525 -0.0817
27380W        W28244  10.180  18.830  27.834 -0.2172 -0.3624  0.1427
27381W        W28245  20.394  24.827  28.894 -0.1634 -0.2246 -0.0770
27382W        W28246   5.776   2.652   3.285 -0.0718 -0.2358  0.3203
27383W        W28247   1.346  10.234  24.536  0.1089  0.0563  0.0847
27384W        W28248   2.084   2.908  14.692  0.3970  0.0082  0.0143
27385W        W28249  14.231   7.890   3.323 -0.0073 -0.1237 -0.0041
27386W        W28250   1.861  22.948   5.270 -0.0237  0.1855  0.0484
27387W        W28251   1.465   7.034   0.070  0.2923 -0.1369 -0.1927
27388W        W28252   4.389   1.883   0.843 -0.3013  0.2335 -0.1250
27389W        W28253  24.243   6.800   5.545  0.1299  0.0442 -0.1949
27390W        W28254  28.787  21.773  26.641  0.0667 -0.2794 -0.0432
27391W        W28255  28.953  19.690  14.181 -0.1719  0.2374 -0.2405
27392W        W28256   6.796  22.975  23.131  0.0122  0.0820  0.1477
27393W        W28257  12.767  24.416  16.856  0.1404  0.0484  0.1799
27394W        W28258  21.528   4.597  21.865 -0.2135 -0.0184  0.0277
27395W        W28259  25.313   3.580   1.132  0.0273  0.2053  0.0488
27396W        W28260  11.374  28.297  12.834  0.1965 -0.2870  0.1033
27397W        W28261  18.080   1.270  21.194 -0.3153 -0.1559 -0.0442
27398W        W28262   2.054  14.622  10.020  0.0395 -0.3483  0.0847
27399W        W28263  11.273  18.933   2.704 -0.0417  0.1324 -0.0077
27400W        W28264  21.500  21.311   0.196  0.2860 -0.2357 -0.2592
27401W        W28265  15.470  25.133   9.884  0.2433  0.2098 -0.1245
27402W        W28266  27.683  18.580  10.149 -0.4099 -0.1589  0.1041
27403W        W28267  22.643  20.798   6.163  0.2520  0.0160  0.1455
27404W        W28268   8.827   0.320  12.874 -0.0787  0.1241 -0.0999
27405W        W28269  19.042  10.821  25.356  0.1025  0.0673 -0.0624
27406W        W28270  24.976  13.949  14.817  0.1607 -0.0124  0.2891
27407W        W28271   3.714  26.353   5.635 -0.1526  0.0761 -0.1259
27408W        W28272  20.231  26.548   9.852  0.2758 -0.0131 -0.0405
27409W        W28273  17.779   2.348   9.448  0.1852  0.0321  0.1652
27410W        W28274  23.463  25.060  24.249 -0.0892  0.0797 -0.3219
27411W        W28275  24.755  21.991  11.505  0.0624  0.3485 -0.1558
27412W        W28276   5.900  25.645  14.255 -0.1767  0.0475 -0.3280
27413W        W28277  25.704  22.050  11.635 -0.1863  0.2256  0.1483
27414W        W28278  27.657   3.769  16.878 -0.0671  0.2485  0.2113
27415W        W28279  20.961   0.345  17.286 -0.0115  0.0025  0.2142
27416W        W28280   2.648  25.445  24.737  0.2088 -0.2667 -0.3281
27417W        W28281  16.692  22.977   4.780 -0.0193 -0.1606  0.0255
27418W        W28282  13.858  20.680  21.539  0.0268 -0.1652 -0.3261
27419W        W28283  12.781  22.931  18.078 -0.0965 -0.3252 -0.2634
27420W        W28284  21.965  28.953   0.546  0.2524  0.0434 -0.0637
27421W        W28285  16.875   1.856  19.039  0.0890  0.0459 -0.0725
27422W        W28286   3.597  20.687   9.638  0.1133 -0.2069 -0.2373
27423W        W28287   1.322   0.572  27.297  0.0139 -0.0382  0.0459
27424W        W28288  24.183  26.491  28.396  0.2082  0.0514  0.1869
27425W        W28289   3.745  28.132  27.781 -0.1786  0.1713 -0.0661
27426W        W28290  20.715   2.308  27.972 -0.1161 -0.1753  0.1013
27427W        W28291  28.723  13.825  22.714 -0.1815  0.0369 -0.2546
27428W        W28292  11.530   0.218  19.226  0.1554  0.2116  0.1139
27429W        W28293  15.888  29.116   1.913  0.0056  0.1782  0.2162
27430W        W28294  14.239  24.732  27.428  0.2690 -0.0448 -0.0892
27431W        W28295  13.593   1.591  26.457  0.4035 -0.0374 -0.3555
27432W        W28296  23.119  26.405  21.558 -0.0916  0.1833  0.4085
27433W        W28297   0.998  22.674  16.699 -0.1808  0.1323  0.1112
27434W        W28298  21.917  19.486  27.865  0.1593  0.0102 -0.0057
27435W        W28299  21.025   3.526  23.184  0.3962  0.0630  0.0764
27436W        W28300   6.938  19.023  21.322  0.2239  0.3435 -0.3223
27437W        W28301   0.107  11.673   4.796  0.0553  0.0873 -0.0426
27438W        W28302   5.259   4.805  10.800  0.0205  0.0661  0.2002
27439W        W28303  24.470  28.350  22.405 -0.0637 -0.0105  0.0429
27440W        W28304  24.392  29.116  11.159 -0.1460 -0.4095  0.0224
27441W        W28305  20.266  21.379   5.614  0.1143  0.0229  0.4907
27442W        W28306  16.803  23.555  24.868  0.0615  0.1443 -0.1306
27443W        W28307  26.088   3.674   2.787  0.1071 -0.3104  0.1804
27444W        W28308   1.461  25.182  24.310 -0.3633  0.3069 -0.1931
27445W        W28309  15.825  24.854   3.690  0.0307 -0.0291  0.0899
27446W        W28310  20.957  22.289  19.705  0.3332  0.0168 -0.2043
27447W        W28311  24.452  27.503   0.587  0.3621  0.2248  0.2063
27448W        W28312   9.445   0.784  15.378 -0.0432  0.4141 -0.1117
27449W        W28313   9.695  15.417  17.846 -0.4475  0.2546 -0.1252
27450W        W28314  13.713  25.344  16.027 -0.1656  0.0453 -0.0747
27451W        W28315  11.764  17.782   6.643 -0.1443 -0.3154  0.0685
27452W        W28316   8.724  16.786  28.700  0.0053 -0.1318  0.0083
27453W        W28317  19.308   2.399   1.012  0.0924 -0.1308  0.2112
27454W        W28318   6.696  25.773  25.003 -0.0031 -0.0282 -0.1706
27455W        W28319   9.864  11.969  23.970  0.0872  0.1477  0.1360
27456W        W28320  15.268  28.930  15.872 -0.1127 -0.1923  0.2808
27457W        W28321   7.126  24.420   8.885  0.1944 -0.1894  0.1506
27458W        W28322   9.142  21.294   7.228 -0.0515  0.0996 -0.4222
27459W        W28323  15.474  13.197  25.090 -0.2758  0.2033  0.1023
27460W        W28324  22.832   2.682  26.337 -0.2496 -0.1155  0.0941
27461W        W28325  11.921   4.246  20.650 -0.1788 -0.0654 -0.1007
27462W        W28326  19.094   3.417   7.970  0.0163  0.1762 -0.2863
27463W        W28327  26.375   1.431  26.278 -0.1074 -0.3184 -0.0601
27464W        W28328   8.655  25.923   2.435  0.1220  0.2369 -0.0755
27465W        W28329   5.813  11.267   4.097 -0.2894 -0.1802  0.0611
27466W        W28330  13.771   7.479   2.477  0.1898  0.1181 -0.2893
27467W        W28331  11.589  20.882   1.916  0.3496  0.1271 -0.2444
27468W        W28332   3.501  16.238  27.416  0.1406 -0.0362 -0.1701
27469W        W28333  24.282   5.250   4.278 -0.1326  0.0534  0.2178
27470W        W28334   8.031  11.536   0.701 -0.2059  0.0925 -0.0558
27471W        W28335  11.386   0.522   5.726  0.2359 -0.1405  0.0321
27472W        W28336   8.379  26.728  19.681 -0.1606  0.2485  0.0045
27473W        W28337  14.159  29.105  20.562  0.0180 -0.0471  0.0290
27474W        W28338   1.333   3.256  22.903  0.2360 -0.1061 -0.1074
27475W        W28339  12.649  25.439  20.438 -0.1554 -0.3214  0.1872
27476W        W28340  16.175   1.003   5.739 -0.2160  0.1094 -0.2801
27477W        W28341  12.932  27.977   4.302  0.0576 -0.0578  0.1080
27478W        W28342  19.176  15.588  10.807 -0.1686 -0.1465  0.1044
27479W        W28343  28.404  23.901   7.971  0.0160 -0.0637  0.4432
27480W        W28344  16.334   9.912  13.867  0.0468 -0.0062  0.0210
27481W        W28345   6.109  20.386  20.918  0.0425 -0.2101  0.1816
27482W        W28346  19.401   1.003  28.389 -0.1077  0.0603  0.1115
27483W        W28347  13.046  23.843  25.745  0.1410 -0.0309 -0.1422
27484W        W28348  24.526   1.519   4.023 -0.0279  0.0215 -0.1533
27485W        W28349  21.101  11.981  13.826 -0.3129  0.1504  0.2935
27486W        W28350  20.231  14.875  24.679  0.0732  0.0999 -0.1255
27487W        W28351  29.100  19.375  27.547  0.0191  0.0496  0.2360
27488W        W28352   6.722   1.140   1.141 -0.3687  0.0303  0.0577
27489W        W28353   1.062  17.860  25.736  0.1672 -0.0478  0.0093
27490W        W28354  24.864  28.197  17.281  0.0140  0.0061  0.0566
27491W        W28355   5.890  10.969   3.670 -0.0173 -0.2515 -0.1544
27492W        W28356  24.314  24.425  17.362 -0.2972 -0.0607 -0.0762
27493W        W28357  11.327  24.560  20.690 -0.1178  0.1919 -0.1311
27494W        W28358  28.351   0.391   0.283 -0.2661 -0.0470  0.1742
27495W        W28359  20.796  21.910  12.768  0.0755  0.0233 -0.4490
27496W        W28360   5.568  14.331   3.544  0.1848  0.1855  0.3633
27497W        W28361  12.089  20.852   3.752 -0.0111  0.3186 -0.0919
27498W        W28362  14.365  26.673  22.616  0.1327  0.0710  0.0984
27499W        W28363  14.714  23.949  22.813  0.0335  0.0855  0.2088
27500W        W28364  27.764  26.357  21.020 -0.1981  0.2069  0.0282
27501W        W28365  18.663  18.386   4.263 -0.1110 -0.1339  0.1100
27502W        W28366  25.393  24.662   8.291 -0.0623 -0.3099 -0.1002
27503W        W28367  16.848   7.591  16.714 -0.1020 -0.1347 -0.3072
27504W        W28368  13.345  13.996   6.234  0.0140 -0.3056 -0.0502
27505W        W28369  14.027   3.120   4.866 -0.4252  0.1419  0.1959
27506W        W28370  24.563  28.543   3.420  0.1800  0.1114 -0.2974
27507W        W28371  26.909   2.625   7.534  0.3033 -0.1721  0.0756
27508W        W28372  28.411   1.166  24.157 -0.0561  0.0901  0.0653
27509W        W28373  10.768  26.467   2.481  0.2307  0.0537 -0.3204
27510W        W28374  18.018   3.395   5.561 -0.0461 -0.1974 -0.1083
27511W        W28375  14.530  20.025   5.528  0.0294 -0.1177  0.0712
27512W        W28376  23.796   7.072  17.328 -0.0671 -0.2576 -0.0008
27513W        W28377  18.940   6.416  24.735  0.1260  0.0636  0.1009
27514W        W28378  23.940   0.909   8.527 -0.1781  0.0371 -0.2484
27515W        W28379   7.949  18.422  15.768 -0.0808 -0.1451 -0.0003
27516W        W28380  21.544  24.683  23.495  0.1850 -0.1186 -0.2173
27517W        W28381   9.320   6.435   4.382  0.4790  0.1062 -0.2518
27518W        W28382   7.819  16.266  25.905 -0.1794  0.0613 -0.2408
27519W        W28383  15.315  15.628   0.571  0.1069  0.2945  0.2030
27520W        W28384  25.367  28.680  17.007  0.3061  0.0765 -0.0398
27521W        W28385  23.392  10.859  23.531 -0.1637  0.0048  0.0855
27522W        W28386  10.362  21.401   3.815  0.3342 -0.1004  0.0420
27523W        W28387  26.510  26.535   2.803 -0.1002 -0.0309  0.0379
27524W        W28388   6.496  27.617  25.755  0.0011  0.2158  0.1227
27525W        W28389   9.685  17.469  10.580 -0.0683  0.0218 -0.0545
27526W        W28390  23.855  14.510  18.189 -0.0132 -0.2369 -0.0309
27527W        W28391   6.699  13.802  24.931 -0.2350 -0.1147  0.2501
27528W        W28392   9.263   2.681  23.525 -0.0270 -0.1549 -0.0872
27529W        W28393  10.779   5.533  13.886 -0.2184 -0.1838 -0.0430
27530W        W28394  20.101  26.250   1.647 -0.0734 -0.1081  0.0510
27531W        W28395  15.600  12.504  16.619  0.2313 -0.0614  0.0694
27532W        W28396  29.124  22.894  13.429 -0.1072  0.0488 -0.0654
27533W        W28397  21.243  22.156  22.951 -0.5141 -0.1298 -0.2361
27534W        W28398  17.450  28.207  28.132 -0.1159  0.2638  0.1758
27535W        W28399   6.182  20.256   4.729  0.1494 -0.0867 -0.1183
27536W        W28400  24.281   8.840   0.622  0.2067 -0.1791 -0.0610
27537W        W28401   9.365  24.178   5.729 -0.0670  0.0022 -0.4170
27538W        W28402  15.920  28.879  18.017  0.2994  0.2293  0.2919
27539W        W28403  17.191  12.750  21.169 -0.0913 -0.1405  0.3499
27540W        W28404   9.677  23.127   5.760 -0.3206  0.0091 -0.0342
27541W        W28405  22.204  20.297  28.375 -0.1956  0.2384 -0.1428
27542W        W28406  14.464   2.502  28.027 -0.1423 -0.2331  0.1926
27543W        W28407   5.683   4.600  23.499 -0.0768 -0.0741  0.1645
27544W        W28408  23.021  27.192  26.136  0.1158  0.2500  0.1411
27545W        W28409  20.208   2.367   3.859 -0.0588 -0.1995 -0.1392
27546W        W28410   8.841  12.400  27.536 -0.2023  0.3090 -0.2305
27547W        W28411  15.465   9.842   7.313 -0.1483 -0.0774 -0.1225
27548W        W28412  10.287  12.140  26.945  0.1840 -0.0345 -0.1123
27549W        W28413  19.375  26.259  14.922  0.0991  0.2224 -0.0446
27550W        W28414  13.412   8.701  28.523 -0.0361 -0.1105 -0.1166
27551W        W28415  13.653  24.920  12.033  0.3760  0.1788 -0.0436
27552W        W28416   4.737   4.182  20.375 -0.2034  0.1273 -0.3314
27553W        W28417  17.737   6.490   6.067  0.1164 -0.1352 -0.2155
27554W        W28418  10.077  10.503  17.952 -0.0126 -0.0643 -0.2999
27555W        W28419   6.346  28.476  17.107 -0.0808 -0.1496  0.0495
27556W        W28420  21.280  27.276  15.238 -0.1918  0.1166  0.0823
27557W        W28421  25.229   3.268   3.777  0.0036 -0.2624  0.1135
27558W        W28422   5.474   4.774  19.153 -0.1069 -0.2093 -0.4176
27559W        W28423  14.589   0.918  21.049  0.1501 -0.0484 -0.3917
27560W        W28424  22.223  28.289  13.403 -0.2945 -0.1009 -0.4412
27561W        W28425  20.003  18.990   6.522  0.2922 -0.1703 -0.1258
27562W        W28426  17.494  24.359   8.989 -0.0451 -0.2280  0.1015
27563W        W28427   8.864  16.997  25.547 -0.0994 -0.1009 -0.1305
27564W        W28428  27.190   9.604  17.873 -0.0294  0.0516 -0.2085
27565W        W28429  16.225   2.943   7.434  0.3427  0.2957  0.1776
27566W        W28430  24.133  12.004  19.293 -0.1295  0.0063 -0.1039
27567W        W28431  16.100   4.045  25.725  0.0983  0.3014 -0.2572
27568W        W28432  15.569  21.991  24.026  0.0958 -0.1045  0.2556
27569W        W28433  25.935  16.170   4.571 -0.0344 -0.0517  0.3771
27570W        W28434   0.885   8.110  16.904  0.3681  0.1746  0.0849
27571W        W28435  27.789  18.105   9.755  0.0579  0.0150 -0.3091
27572W        W28436  18.896  22.624  19.920  0.0268  0.1250 -0.1340
27573W        W28437  14.490   5.202   1.851 -0.3613  0.0165  0.0949
27574W        W28438  24.194  17.902  22.406  0.0829 -0.0899 -0.0792
27575W        W28439   2.466  18.655  19.364  0.3110 -0.3507 -0.0749
27576W        W28440  24.777  28.095   6.705  0.0467  0.2525 -0.1074
27577W        W28441  10.609  22.944  28.982 -0.2397 -0.0859  0.5078
27578W        W28442  18.021  22.396  13.255  0.1983 -0.0126  0.0105
27579W        W28443   6.875   3.425  20.456  0.1249  0.0339 -0.0149
27580W        W28444   6.763  17.373  14.614 -0.0023 -0.2593 -0.1167
27581W        W28445  28.605  18.288  28.489  0.1435 -0.0636 -0.1111
27582W        W28446   5.700  24.100   3.717  0.3165  0.0091 -0.2047
27583W        W28447   9.403  10.192  15.115  0.1171  0.2167 -0.0539
27584W        W28448  28.787   1.394   8.574 -0.1028 -0.0493 -0.1393
27585W        W28449  21.866   2.583   2.301 -0.1531  0.1520 -0.3699
27586W        W28450  20.426  25.541  12.672  0.1435  0.1473  0.2467
27587W        W28451   5.932   6.738  27.752 -0.1553 -0.3960  0.1867
27588W        W28452  24.003  16.389   0.162 -0.0002  0.3900 -0.2283
27589W        W28453  19.070  10.392  25.658 -0.0912  0.2818 -0.1061
27590W        W28454  23.693  26.553  28.233 -0.0747 -0.1097 -0.2134
27591W        W28455  27.510  22.954  13.546  0.2498 -0.0424 -0.0448
27592W        W28456  15.497   8.505  14.238 -0.1369  0.1448 -0.1290
27593W        W28457   4.916  27.839  10.140 -0.0298 -0.0121 -0.1592
27594W        W28458   3.178  10.122  10.337 -0.3000 -0.3066  0.1005
27595W        W28459  10.155   4.789  23.106 -0.0688  0.0797 -0.3961
27596W        W28460   3.328  18.786  23.125 -0.2014 -0.1382  0.0713
27597W        W28461  26.333   0.305  25.091  0.1111 -0.1150  0.1918
27598W        W28462   7.325  28.555  22.469  0.2200  0.1190 -0.0386
27599W        W28463   7.320  11.845  12.294  0.3025  0.0075 -0.2593
27600W        W28464  18.825  25.139  25.457 -0.1098 -0.0006 -0.0839
27601W        W28465   6.432  14.267  15.601  0.0984 -0.1079 -0.1617
27602W        W28466  17.745  24.873   0.261 -0.0519  0.2413  0.2396
27603W        W28467  23.838  24.015  20.638  0.1335 -0.3570 -0.0930
27604W        W28468  17.052   4.209  29.061  0.2639 -0.1706 -0.1342
27605W        W28469  23.794  21.955  13.334 -0.0514 -0.0525  0.0303
27606W        W28470  27.839   5.690  27.188 -0.1587 -0.0676  0.1951
27607W        W28471  22.643  27.482   6.278  0.0230 -0.0133 -0.0180
27608W        W28472   0.188   0.876   5.361 -0.3380  0.3039  0.0027
27609W        W28473  20.437  28.975  19.575 -0.1410  0.1298 -0.2277
27610W        W28474  12.897  11.283   5.979  0.1085 -0.0504 -0.0314
27611W        W28475  26.519   7.065  22.856 -0.0004 -0.0346 -0.1133
27612W        W28476   2.220  24.500   2.947  0.1337 -0.0365 -0.0407
27613W        W28477  21.950  21.541  13.575  0.0073  0.1936  0.0056
27614W        W28478  16.000  16.779  27.793 -0.0326 -0.2360 -0.0268
27615W        W28479  14.959   1.333  18.475  0.1846  0.0703  0.1032
27616W        W28480  16.492  17.295  14.718 -0.1328 -0.4581 -0.1851
27617W        W28481  10.202   6.742  12.090 -0.0058  0.0900 -0.1106
27618W        W28482  10.547  16.847  25.649 -0.0213 -0.2841 -0.0234
27619W        W28483  15.186  10.844  22.868 -0.0390 -0.2858 -0.0377
27620W        W28484  25.439   9.683   0.101  0.1775  0.0076 -0.1024
27621W        W28485  20.959  23.593  21.256 -0.1857  0.0643  0.0542
27622W        W28486  20.083  21.132  13.401 -0.2690 -0.3447  0.4167
27623W        W28487  18.444  19.177  11.808 -0.1540 -0.0769  0.1458
27624W        W28488  28.058   0.648   0.679 -0.0029 -0.0618 -0.1970
27625W        W28489  19.319   2.955   8.048  0.0360 -0.0730  0.0625
27626W        W28490  29.137  27.722  26.175  0.1242  0.1951  0.1600
27627W        W28491   7.285   4.543   8.632 -0.3535  0.3822 -0.0110
27628W        W28492  19.821  21.397  17.399 -0.0629 -0.1068  0.1913
27629W        W28493  22.420  13.650  21.866 -0.0798 -0.2106  0.0549
27630W        W28494  17.220  11.828   5.840  0.0325  0.2059 -0.0567
27631W        W28495  27.196  19.135  13.647  0.0663  0.3122  0.0162
27632W        W28496  13.832  25.314  21.134  0.2401 -0.0100 -0.2570
27633W        W28497  10.738  13.278  27.299  0.2168  0.0003  0.3505
27634W        W28498   4.699   8.562  18.136 -0.0579  0.1716  0.0672
27635W        W28499  23.584  27.281   0.959  0.0213 -0.0177  0.1478
27636W        W28500  19.939  13.935  27.278  0.1591 -0.0356  0.3024
27637W        W28501  22.348  28.367   2.825 -0.1398 -0.2698  0.2529
27638W        W28502  17.697  26.746  26.838  0.0020 -0.3822 -0.0813
27639W        W28503  27.589   0.875   2.576  0.1048  0.3200 -0.2822
27640W        W28504   7.279  25.368   0.101 -0.1787 -0.1270 -0.3938
27641W        W28505  11.353  23.358   9.849  0.0367  0.1799  0.0194
27642W        W28506   0.198  27.130   3.671 -0.5006 -0.4800  0.0288
27643W        W28507  13.896  28.218  15.565 -0.1153 -0.0176 -0.0041
27644W        W28508  25.642  11.122  18.774 -0.0278  0.1261  0.2313
27645W        W28509   8.815  23.434  12.118  0.3202 -0.0421  0.0451
27646W        W28510  26.548  27.474   9.598  0.2207 -0.0749 -0.1055
27647W        W28511  15.199   7.904  23.035  0.2356  0.1178 -0.1685
27648W        W28512  22.662  17.012  25.060 -0.0480 -0.0058  0.0747
27649W        W28513  22.172  22.679  16.796  0.0955 -0.0117 -0.2085
27650W        W28514   8.040  11.805  20.998 -0.0121 -0.0880  0.1647
27651W        W28515  21.802   8.397  17.070 -0.0348  0.0484  0.3003
27652W        W28516   7.145  24.932  19.773 -0.1638 -0.1590 -0.1525
27653W        W28517   1.838   6.169  23.964 -0.2264 -0.0816  0.1921
27654W        W28518   2.298  17.634   0.946  0.1774  0.0289  0.1022
27655W        W28519   8.437  20.319  12.354 -0.2622  0.3267  0.1084
27656W        W28520  17.591  13.999  21.601  0.3004  0.1372  0.2673
27657W        W28521   8.865  14.223  11.615 -0.1510  0.0685 -0.3973
27658W        W28522  16.319  24.799   9.383  0.1610 -0.1743 -0.1634
27659W        W28523  15.338   4.985  11.236 -0.0327 -0.0507 -0.1578
27660W        W28524  18.610  22.985  28.903 -0.1060 -0.0138  0.3472
27661W        W28525  20.312  22.865  24.930 -0.1061  0.0984  0.0540
27662W        W28526  27.632   6.117  17.692  0.1070  0.0180  0.0580
27663W        W28527  21.669  16.133  20.095  0.0506 -0.0819 -0.0386
27664W        W28528  17.158  11.758  26.135 -0.0393  0.1566  0.1330
27665W        W28529  18.924  28.195  16.150 -0.0663  0.2364  0.1702
27666W        W28530  15.864  22.580   0.938  0.1134 -0.1347  0.0773
27667W        W28531  18.248   0.528  23.590  0.1929 -0.3651  0.1889
27668W        W28532  23.518   5.297  19.640 -0.0162  0.0657 -0.0354
27669W        W28533  12.045   8.967  24.532 -0.2252 -0.1357  0.1851
27670W        W28534  13.107  26.122  13.516 -0.2597  0.0389  0.1283
27671W        W28535  26.666  25.346  15.153  0.0345 -0.1516 -0.2229
27672W        W28536  25.531  16.896  27.172  0.0589 -0.0245  0.1036
27673W        W28537  23.764   4.269   3.853  0.0858  0.0312  0.0525
27674W        W28538  24.156  25.811   6.932 -0.0506 -0.0183 -0.1485
27675W        W28539  22.139   2.776   0.240 -0.1425 -0.2833  0.2111
27676W        W28540  23.824   0.191  11.876  0.1777 -0.1466 -0.1500
27677W        W28541  24.770  14.582  18.009 -0.0991 -0.1224 -0.1201
27678W        W28542  21.889   8.757  27.086  0.0485 -0.1946 -0.1437
27679W        W28543  26.839  21.543  23.851  0.0624  0.1076  0.0711
27680W        W28544  19.630   8.863  26.687 -0.1979 -0.0436 -0.1963
27681W        W28545   9.428   9.080  20.705  0.0850  0.0998  0.1978
27682W        W28546  29.107   6.544   5.585 -0.2088  0.2762 -0.1244
27683W        W28547  19.960   7.228  19.769 -0.1374  0.0229  0.1865
27684W        W28548  23.307  23.095  15.386 -0.1180 -0.0976  0.0310
27685W        W28549  22.109  10.226  18.722  0.1607 -0.0101  0.0199
27686W        W28550  14.357   1.167  22.180  0.1951 -0.1301 -0.2576
27687W        W28551  11.223  24.340  24.202  0.2529 -0.0625  0.1018
27688W        W28552  20.072  17.640   4.858 -0.2405 -0.0478 -0.4018
27689W        W28553  14.622  19.317   9.317 -0.1096  0.1695 -0.2348
27690W        W28554  13.741  15.800   0.453 -0.1028 -0.0894  0.3028
27691W        W28555   0.765  19.368  23.709 -0.0167  0.0335  0.2101
27692W        W28556   4.149   4.265  15.863 -0.1154 -0.0854  0.2077
27693W        W28557  11.661  17.185   9.358 -0.1119  0.1500 -0.1301
27694W        W28558  23.026  27.794  18.450 -0.1066 -0.0461 -0.2295
27695W        W28559  23.888   3.666   3.085  0.0273 -0.2070  0.1905
27696W        W28560  18.004  23.318   4.338 -0.1327 -0.0440  0.3518
27697W        W28561  15.376  26.644   4.847  0.2528 -0.2095 -0.0621
27698W        W28562  16.234  24.848   3.374  0.2756  0.2077 -0.1977
27699W        W28563  15.143   4.508   2.436 -0.0397  0.0095 -0.0800
27700W        W28564  11.225   7.701  27.959  0.2559 -0.2715 -0.0748
27701W        W28565  29.137  25.576  25.917 -0.0716  0.0091  0.0022
27702W        W28566  28.798   2.163  19.728 -0.4049 -0.0550  0.1756
27703W        W28567   3.531   7.176  26.133  0.0470  0.2313  0.2945
27704W        W28568  11.760  16.103   2.260  0.0733  0.0693  0.2552
27705W        W28569   3.827  26.558  29.090  0.0193  0.0430 -0.2558
27706W        W28570  21.816   3.705  26.462  0.0110  0.2685 -0.0866
27707W        W28571  15.411  12.014  10.054 -0.1041  0.2594 -0.2975
27708W        W28572  17.288  23.055   6.351  0.0631  0.0109 -0.3174
27709W        W28573  23.394  21.709  27.330  0.0099 -0.0135  0.2712
27710W        W28574  19.522   5.382  22.416  0.1242 -0.2737 -0.0141
27711W        W28575  22.503   9.351  24.801 -0.1972  0.0285 -0.0761
27712W        W28576  12.892  25.560  28.078  0.0263  0.0436 -0.1958
27713W        W28577  17.945   0.464  18.460  0.1630 -0.1196  0.2888
27714W        W28578  11.983   4.331  12.605 -0.0754  0.1677 -0.0993
27715W        W28579   3.136  26.497  27.056 -0.0526 -0.0965 -0.0938
27716W        W28580  10.173   0.346  16.478  0.4376 -0.1703 -0.3364
27717W        W28581  16.834   0.318  11.910 -0.0601  0.0414 -0.0657
27718W        W28582  18.922  22.831  14.329  0.2152 -0.1887  0.2830
27719W        W28583  16.818  22.871   8.108 -0.0525  0.0526  0.1757
27720W        W28584  22.863   5.179  15.692 -0.1015  0.1513 -0.0945
27721W        W28585   9.872  27.148   4.958 -0.0371  0.3801  0.0247
27722W        W28586  11.349  23.469  23.507 -0.0053 -0.0031  0.2310
27723W        W28587   8.206  13.685  26.359  0.0196  0.0914 -0.1103
27724W        W28588  23.791  25.153   2.267  0.5834  0.1535 -0.0013
27725W        W28589   8.749   3.251   0.445  0.1040  0.0178 -0.2895
27726W        W28590  17.657  17.575  28.534  0.0975  0.5277 -0.0215
27727W        W28591  18.637   1.632   1.208 -0.0858  0.2704 -0.1183
27728W        W28592  21.532  20.566  12.476  0.0243  0.0450 -0.2651
27729W        W28593  19.042   9.409  23.962  0.2014  0.3151  0.0358
27730W        W28594  17.563  23.597   9.891 -0.0670 -0.1283 -0.1158
27731W        W28595  25.264  14.877  18.496  0.1555 -0.0538  0.1042
27732W        W28596   4.076   7.681   7.852 -0.0108 -0.3305  0.0956
27733W        W28597  15.412   4.063  20.487  0.1186  0.1619 -0.2404
27734W        W28598   5.691  26.147   0.186  0.1173  0.2565  0.0038
27735W        W28599  15.537  28.873  22.746 -0.0060  0.2179  0.1987
27736W        W28600  25.778  26.448  20.379  0.2221  0.2382 -0.1472
27737W        W28601  13.366  20.104   1.809 -0.1819 -0.0587 -0.1210
27738W        W28602  10.020  18.782  25.206 -0.0695  0.1052  0.0252
27739W        W28603  20.356  21.838   9.912  0.3271 -0.1149 -0.0780
27740W        W28604  24.312   7.813   7.459  0.2519 -0.1796 -0.2143
27741W        W28605  18.896   2.790   8.186 -0.2443  0.1569  0.0057
27742W        W28606  18.909  13.009  15.005  0.0957  0.2488 -0.0327
27743W        W28607  10.716   2.010  28.438 -0.0034 -0.1756 -0.0517
27744W        W28608  25.860  25.382   4.947  0.2105 -0.0300 -0.2411
27745W        W28609   3.859  12.067  26.845 -0.0314  0.4681 -0.0587
27746W        W28610  27.037  26.925   5.777 -0.0971  0.1206  0.0454
27747W        W28611  20.387   0.278  20.593  0.2901  0.0864  0.2810
27748W        W28612  22.216  13.101   6.318  0.0173 -0.0078 -0.1047
27749W        W28613  10.031  26.348  26.582  0.2009 -0.0065  0.2946
27750W        W28614  19.633   7.244   0.851  0.0419 -0.2394 -0.0101
27751W        W28615  11.542   2.251   4.539 -0.0574  0.2279  0.0151
27752W        W28616  12.379   3.258   8.081 -0.3854 -0.0070  0.1681
27753W        W28617  17.320  27.955  27.336 -0.1050  0.1283  0.1092
27754W        W28618   8.700   2.992   2.933 -0.0506  0.1365  0.0118
27755W        W28619  23.290   0.949  22.447 -0.0000 -0.1249  0.3207
27756W        W28620  16.977  26.354  28.204 -0.0282 -0.1651  0.1586
27757W        W28621  16.826  21.436   0.070  0.1378 -0.1038 -0.1612
27758W        W28622   5.075  19.931  18.146  0.1697  0.2962 -0.0914
27759W        W28623  21.023   6.280  27.538 -0.0894 -0.5083 -0.1405
27760W        W28624   5.648  23.560  29.063  0.0336 -0.0157  0.3566
27761W        W28625   8.926  25.933  22.265 -0.0626  0.1093  0.1489
27762W        W28626   4.692  27.909  14.937  0.1491 -0.0962  0.2659
27763W        W28627  10.728  24.726  12.673 -0.2289 -0.1587  0.0781
27764W        W28628  11.957  29.057  25.432  0.3213  0.1860 -0.0157
27765W        W28629  13.647  25.258  25.755 -0.2984  0.1098 -0.2213
27766W        W28630  10.372   7.917  14.789  0.1786 -0.0626 -0.0304
27767W        W28631   1.399   8.442  26.323 -0.0086 -0.1401 -0.3565
27768W        W28632  17.959   7.229  11.431 -0.0300 -0.0166 -0.0823
27769W        W28633  27.874  17.433  13.749 -0.0770 -0.0546 -0.3333
27770W        W28634   6.887  25.923   4.708 -0.1394 -0.0598 -0.0816
27771W        W28635  13.482  10.392  19.725  0.1131 -0.0528  0.2910
27772W        W28636  13.776  25.228  18.030 -0.2891  0.6323  0.3963
27773W        W28637  28.950  11.061  27.906  0.0789 -0.1982 -0.2778
27774W        W28638  24.834   9.496  22.700  0.0929  0.1671 -0.0924
27775W        W28639   6.029   2.078   4.555 -0.1260  0.2612 -0.3023
27776W        W28640  13.929   2.764   8.691  0.1176  0.3154  0.0192
27777W        W28641  22.732  15.127   2.645  0.0620 -0.0933 -0.2275
27778W        W28642  16.574  19.017  15.140  0.2293 -0.3828  0.1435
27779W        W28643  17.462   2.448   8.089 -0.2843  0.0182  0.1379
27780W        W28644  22.969  24.064  28.191  0.1382 -0.1859 -0.1209
27781W        W28645   5.526  20.516  28.732  0.1996 -0.1637 -0.0861
27782W        W28646   9.282   6.878  26.899  0.0485 -0.2676 -0.0902
27783W        W28647  11.502  26.636  27.947  0.2063  0.0794 -0.1005
27784W        W28648  25.717  14.737  25.291 -0.1633 -0.0004  0.2265
27785W        W28649  15.363  24.660  10.797 -0.1246  0.0747 -0.1226
27786W        W28650   2.157  15.885   9.695 -0.1883  0.0115  0.0496
27787W        W28651  23.442  10.562   7.295  0.1149 -0.0467 -0.0774
27788W        W28652   0.485   1.326   1.860 -0.3032 -0.2809 -0.2132
27789W        W28653   7.946   8.281  13.574  0.0282  0.0697  0.2088
27790W        W28654  13.411  23.242  15.955 -0.0574 -0.0682 -0.0699
27791W        W28655  27.651  25.129  12.561 -0.1122 -0.1115 -0.3114
27792W        W28656   6.982  19.378  17.784 -0.3732  0.0583  0.0730
27793W        W28657  19.045   7.009   6.034  0.3537  0.1335  0.1510
27794W        W28658  10.337   6.217   4.342 -0.0691  0.1049 -0.1968
27795W        W28659   3.921  26.831  26.801 -0.1663 -0.1318 -0.1631
27796W        W28660  12.441   2.404  24.972 -0.1066  0.4214  0.1689
27797W        W28661   6.648  12.139  22.100  0.0331 -0.2799  0.0329
27798W        W28662  17.230  21.653   3.328 -0.1558  0.1941 -0.1420
27799W        W28663  10.821   7.668   9.377  0.3818  0.0796  0.0953
27800W        W28664  11.889  11.637   3.406 -0.1011  0.0027  0.2303
27801W        W28665   6.070  21.807  10.955  0.0058  0.0688  0.1837
27802W        W28666  28.847   2.907  25.664  0.0789 -0.0133 -0.0059
27803W        W28667  16.528   2.282  12.027  0.0194 -0.0538  0.0552
27804W        W28668  27.314  20.432  19.176  0.2277 -0.2146 -0.4231
27805W        W28669  28.074   2.258  19.483  0.1134 -0.0690  0.0116
27806W        W28670  23.691  13.985   1.503 -0.1721 -0.0801 -0.0801
27807W        W28671  24.868   3.914  25.910 -0.0023 -0.0993 -0.0533
27808W        W28672  26.227  29.038   2.815  0.3376 -0.1902 -0.1283
27809W        W28673  23.381  26.722   3.369 -0.0042  0.1139  0.0984
27810W        W28674  25.323  28.341  10.892 -0.1198 -0.4565  0.0451
27811W        W28675  28.656  11.456  24.787 -0.3695 -0.0687 -0.0658
27812W        W28676   0.988  27.429  14.922 -0.0465 -0.0824  0.1359
27813W        W28677  13.714  17.980   5.822 -0.0445  0.3013 -0.1354
27814W        W28678   9.092   9.359  11.853  0.2239 -0.0077 -0.1096
27815W        W28679  24.106  22.727  25.668 -0.2804 -0.0412 -0.1219
27816W        W28680  10.477  20.120  28.084  0.0150  0.2391 -0.0342
27817W        W28681  22.061  24.342   4.297 -0.3133 -0.0979 -0.2494
27818W        W28682   8.135   2.015   3.847  0.0433  0.3364  0.2701
27819W        W28683   6.359   1.966  19.469 -0.0126  0.0699  0.1005
27820W        W28684   7.718  20.378   1.731 -0.0243  0.2185  0.0236
27821W        W28685  23.146  14.126  24.590 -0.1433  0.0411  0.1639
27822W        W28686  22.399  29.013   9.546  0.1171  0.0699  0.1431
27823W        W28687  25.515  24.514   9.483  0.3179  0.1192 -0.1183
27824W        W28688  10.693  10.097  17.300  0.0447  0.3031  0.0559
27825W        W28689  19.055   0.545   3.812  0.0976 -0.1648  0.1581
27826W        W28690   6.336  14.894   5.401  0.0528 -0.1647 -0.1361
27827W        W28691   1.305  18.815  24.832  0.1225  0.2194  0.0882
27828W        W28692  14.488  12.823  11.637  0.3469 -0.0053  0.1728
27829W        W28693  18.765  22.968  24.376  0.0507 -0.1098 -0.2857
27830W        W28694  16.373  19.805  24.524  0.2570 -0.0779  0.2007
27831W        W28695  19.694  12.911  20.776  0.3367  0.1020  0.3147
27832W        W28696  21.549  22.277  11.929 -0.0130  0.0344  0.1442
27833W        W28697  17.139  20.844   1.628  0.1402  0.0927 -0.0523
27834W        W28698  13.331  13.300   2.974  0.1029  0.0245 -0.0747
27835W        W28699  10.088   8.862   1.130 -0.2044  0.1892 -0.1504
27836W        W28700  14.144   0.631  11.450 -0.2165 -0.0817 -0.3076
27837W        W28701   7.279  15.996  13.764 -0.0488  0.3519 -0.1826
27838W        W28702  26.045  15.190  28.250  0.1568  0.2402  0.0763
27839W        W28703  17.909   5.041  21.541  0.0071  0.0976 -0.0506
27840W        W28704  13.147  26.327   0.724 -0.4364 -0.0123 -0.0949
27841W        W28705  18.582  24.658  23.286  0.1231 -0.0939  0.0093
27842W        W28706  15.695  18.224  22.762  0.3806  0.0562 -0.0250
27843W        W28707  23.980   4.075  14.742  0.1181  0.0367 -0.0458
27844W        W28708  19.719  26.920   7.599  0.2945  0.0530  0.1353
27845W        W28709  21.351  24.835  24.210 -0.3118 -0.1924 -0.0420
27846W        W28710  25.288   5.242   4.718 -0.2323 -0.0226  0.1158
27847W        W28711  22.935  25.566  21.814  0.2256  0.1248 -0.2236
27848W        W28712  15.278   3.900  12.953  0.2354 -0.3199  0.0786
27849W        W28713  25.409   8.777  22.892  0.1161 -0.0898 -0.4681
27850W        W28714  11.725  20.107   7.107 -0.1188 -0.1304 -0.1824
27851W        W28715  18.779  20.636   6.312  0.1462  0.0328 -0.2238
27852W        W28716   2.689  27.464  24.136 -0.0919  0.0399  0.0976
27853W        W28717  21.940   9.896  17.469 -0.3158  0.2734 -0.0649
27854W        W28718  16.800  17.202  26.412  0.2838 -0.1624 -0.0060
27855W        W28719  18.263   5.246   3.877 -0.1038  0.2152 -0.2130
27856W        W28720   8.001  19.698  24.377 -0.1116  0.3325  0.3314
27857W        W28721  19.652  13.719   3.230  0.0501 -0.0483  0.2469
27858W        W28722   1.592   4.576  10.309 -0.3884  0.0457  0.1320
27859W        W28723   9.940  11.485  19.530 -0.1734  0.0271 -0.2750
27860W        W28724  10.929  28.891  26.687  0.0072  0.0733 -0.2019
27861W        W28725  11.719  22.766   7.987  0.2817  0.2607  0.3722
27862W        W28726  16.676  14.276  24.622 -0.2047  0.0314 -0.3447
27863W        W28727   9.034  26.426  21.546 -0.1251 -0.2756 -0.5639
27864W        W28728  15.527  25.669   2.606  0.1634 -0.1290  0.1039
27865W        W28729   0.574  26.722  24.803 -0.2445 -0.2233  0.1082
27866W        W28730  14.150  23.214  24.413 -0.1503 -0.1440 -0.1880
27867W        W28731   5.391  13.497   3.027  0.2660 -0.0747  0.3279
27868W        W28732  18.893  22.616  26.347  0.1105 -0.1767 -0.1637
27869W        W28733  10.785   3.785   4.935 -0.0393  0.0990 -0.0058
27870W        W28734  16.282   5.629  20.311  0.0238  0.1788  0.2408
27871W        W28735   3.827  21.128   3.608 -0.0103 -0.4923  0.1084
27872W        W28736  21.730   7.050   6.410 -0.0540 -0.1573 -0.2783
27873W        W28737  26.139   5.221   2.311  0.0654  0.1326 -0.1721
27874W        W28738  19.331   2.838   3.289  0.2931 -0.0670  0.0026
27875W        W28739   6.555  19.944  17.643  0.0352  0.2216  0.4081
27876W        W28740   0.572   5.475   0.248  0.0470  0.3207 -0.1539
27877W        W28741   2.739  25.208  25.701  0.1438 -0.0758  0.1811
27878W        W28742  12.210   4.332  17.728  0.0055  0.2085  0.0822
27879W        W28743   5.194  20.803   5.595  0.1684 -0.2710  0.1903
27880W        W28744  13.469  22.978  28.346  0.0687  0.1021 -0.4429
27881W        W28745  27.442  25.464  19.887 -0.1413 -0.0635  0.2028
27882W        W28746  25.676  25.610  18.330 -0.0461  0.1486  0.2404
27883W        W28747  15.136  19.606   1.658 -0.0880 -0.2241 -0.2771
27884W        W28748  16.955  17.810  26.499  0.0022  0.2506 -0.2655
27885W        W28749   6.114  28.300   8.177 -0.0782 -0.2142  0.0483
27886W        W28750   8.928   4.724  25.289 -0.1484  0.0073  0.1546
27887W        W28751   6.310   6.343   6.069  0.1826  0.1205  0.2437
27888W        W28752  18.770   2.661  26.396  0.0592  0.2200  0.0431
27889W        W28753  19.196  20.591  15.495  0.0343  0.1816 -0.2109
27890W        W28754  16.839   2.793  24.886 -0.1772  0.0260  0.2241
27891W        W28755  22.430  28.161  16.198  0.2414 -0.1858  0.0569
27892W        W28756  25.846  18.974   4.242 -0.2255 -0.1319 -0.1372
27893W        W28757  14.212   1.692  10.185 -0.2459  0.2099  0.4927
27894W        W28758  11.052  19.374   6.618  0.1756 -0.3773  0.0222
27895W        W28759  10.811  27.550   4.394 -0.1374 -0.3881  0.1328
27896W        W28760  28.991   4.137   9.620 -0.1780 -0.0631  0.0654
27897W        W28761  11.071   0.556  18.458  0.1691  0.0433  0.1677
27898W        W28762  13.925   2.931  16.277 -0.2573 -0.0707  0.0155
27899W        W28763  18.116  23.361   2.259  0.0468 -0.0870  0.2510
27900W        W28764  18.672   9.160   6.240  0.0941 -0.0543 -0.2038
27901W        W28765   7.669  24.899  13.487 -0.0526  0.1059 -0.0590
27902W        W28766  20.413   6.436   1.748  0.1592  0.2979 -0.1265
27903W        W28767  10.008  22.527   2.631 -0.1383  0.1074  0.2182
27904W        W28768  15.732   1.513  23.451 -0.2317  0.1156  0.1191
27905W        W28769  19.688  26.319  15.287 -0.1656 -0.0545 -0.2042
27906W        W28770  11.963  16.749   9.978  0.0707  0.1528  0.0397
27907W        W28771   7.379  26.301   2.263  0.1813  0.1050  0.0134
27908W        W28772  27.680  11.983  23.658 -0.0132  0.0347 -0.3216
27909W        W28773  12.840  10.908  21.813 -0.4082  0.0269 -0.2263
27910W        W28774  13.305  20.130  21.418  0.2237 -0.1142 -0.1034
27911W        W28775  13.644   2.397  25.228 -0.1027  0.2032 -0.2015
27912W        W28776  20.974  14.550  21.764  0.1738 -0.3677 -0.3153
27913W        W28777   3.456   0.076  24.255  0.3789  0.2599  0.0659
27914W        W28778  22.929  25.280  25.992 -0.0480 -0.0162  0.2953
27915W        W28779  27.485  16.192  25.757  0.2394 -0.0104 -0.1066
27916W        W28780  20.516  11.476   3.551 -0.0756  0.0058  0.0416
27917W        W28781  24.966  14.859  21.888  0.3275  0.0004 -0.1749
27918W        W28782  20.449  25.890   1.548  0.0672 -0.2053  0.1312
27919W        W28783   7.520  22.687  10.326  0.1227  0.1077 -0.2359
27920W        W28784   2.775  22.416   2.217 -0.0701  0.0721  0.1242
27921W        W28785  24.267  21.296   3.859 -0.1257 -0.0690  0.0392
27922W        W28786  16.498  28.289  19.714  0.0988 -0.2311 -0.0650
27923W        W28787  15.705   2.031   8.959  0.2565 -0.0130 -0.2663
27924W        W28788  10.033  19.749  22.643  0.2966 -0.0663 -0.2100
27925W        W28789   6.185  28.377   0.461 -0.0104 -0.1602 -0.0026
27926W        W28790   4.328   6.701   5.676  0.1123  0.0320 -0.0222
27927W        W28791  24.207  23.051   9.199  0.0958  0.0113  0.1419
27928W        W28792   2.583  10.567  14.753 -0.0572 -0.1335 -0.3604
27929W        W28793  14.412  22.040  24.189 -0.3167 -0.1918 -0.0414
27930W        W28794  21.616  22.825  17.443 -0.1732  0.0882 -0.1103
27931W        W28795   3.560  26.784  18.086  0.1486  0.3862 -0.0214
27932W        W28796  26.928  22.037  14.314  0.0656  0.1886 -0.2432
27933W        W28797  14.933  27.923  23.231 -0.0046 -0.1766  0.0260
27934W        W28798  14.766   9.787   5.632  0.2802  0.3472  0.0338
27935W        W28799  13.156   0.868   8.561 -0.0164 -0.1797 -0.0465
27936W        W28800  10.068  27.586  21.550  0.1642 -0.0924  0.0179
27937W        W28801   8.093  18.921  19.210  0.1412 -0.3221 -0.0238
27938W        W28802  25.338  25.623  26.367  0.1005  0.1827  0.0374
27939W        W28803  20.192  20.535   5.036 -0.3590  0.2276  0.2275
27940W        W28804  15.398  16.997   7.812  0.2974  0.0512 -0.0364
27941W        W28805  16.856  12.698   5.678 -0.2339  0.0336 -0.1445
27942W        W28806  13.934   0.837  18.627  0.1563 -0.0160 -0.0243
27943W        W28807  19.024  12.750  18.182  0.2366 -0.1074 -0.0676
27944W        W28808   3.770   1.827   5.257  0.1770 -0.1172  0.0832
27945W        W28809  12.601  24.215  13.364  0.0334  0.0715  0.1051
27946W        W28810   9.252  12.049   7.074  0.2112 -0.1316  0.0484
27947W        W28811  22.802  12.894   3.009  0.0632 -0.0832  0.1486
27948W        W28812   8.891  27.400  14.726 -0.3261 -0.0138  0.0340
27949W        W28813  10.651  12.240   3.328  0.0403  0.0429 -0.1609
27950W        W28814   1.999   6.207  19.146  0.0971 -0.0151  0.2467
27951W        W28815  21.849   9.058   3.533  0.0035  0.2634  0.1592
27952W        W28816  14.115  28.341   3.454 -0.2228 -0.0988 -0.1268
27953W        W28817   7.345   6.971  17.463 -0.1973 -0.0083  0.2359
27954W        W28818   2.997  17.190  24.252 -0.0084  0.0243 -0.2344
27955W        W28819  10.215   9.192  26.252  0.0813  0.1160  0.0427
27956W        W28820   3.509  25.869  14.632 -0.1522 -0.0223  0.3325
27957W        W28821  17.099  12.693  22.440  0.3742 -0.1361 -0.2182
27958W        W28822  16.844  21.304   5.581 -0.1059  0.0720  0.1185
27959W        W28823  14.693  13.509  27.299  0.0472  0.0399  0.0556
27960W        W28824  20.122  21.392   7.431 -0.1344  0.2206  0.2102
27961W        W28825   8.203  10.266   2.647  0.0998  0.1628  0.0617
27962W        W28826  16.726   2.892   9.675 -0.2218  0.1173 -0.3991
27963W        W28827  21.481  20.056   9.215  0.1142 -0.1847  0.1260
27964W        W28828  15.310   9.817   0.529 -0.0178  0.1641 -0.0754
27965W        W28829   9.061  11.595  19.343 -0.0428  0.0067 -0.3392
27966W        W28830  18.779  22.540  18.618 -0.1195  0.1352 -0.0179
27967W        W28831  16.203   8.310  26.860  0.1275 -0.0223 -0.0271
27968W        W28832  21.798   2.919   1.849 -0.3135  0.0701 -0.2031
27969W        W28833  21.558  17.090  25.458  0.2279 -0.2124 -0.0159
27970W        W28834  18.701   2.208  17.030 -0.2817  0.0454 -0.2752
27971W        W28835  14.428  20.100  28.628  0.1002 -0.2975 -0.1900
27972W        W28836  14.568   5.285  23.034  0.0779 -0.1829  0.0478
27973W        W28837  28.253   4.772  11.510  0.0265 -0.2427  0.0702
27974W        W28838  18.795  21.337  23.182 -0.1485 -0.0094  0.0143
27975W        W28839   6.042   7.203   1.840  0.1560 -0.2952  0.1501
27976W        W28840  13.896  23.969  24.491  0.0144 -0.0716 -0.1660
27977W        W28841  22.757  21.309  12.464  0.2324  0.0927 -0.1934
27978W        W28842   9.357  11.269   1.240  0.0406  0.0033 -0.0550
27979W        W28843  28.587   0.057   1.672 -0.2567 -0.1826 -0.3185
27980W        W28844   0.652   3.694  26.196 -0.1162 -0.0209  0.1098
27981W        W28845  14.841   1.501   0.827  0.0401  0.2416 -0.0051
27982W        W28846  26.911  12.807  22.234 -0.0486 -0.0858  0.2135
27983W        W28847  21.857  24.555  15.589  0.0449  0.2898  0.1397
27984W        W28848   5.988   6.332  20.828  0.1960  0.0520 -0.4860
27985W        W28849   4.691   9.460  28.200  0.1177  0.3648 -0.3500
27986W        W28850  20.560   2.992  17.065 -0.3041 -0.0039 -0.0580
27987W        W28851  20.971  22.128  23.440  0.1399 -0.0929 -0.1353
27988W        W28852  22.358   5.063  20.180 -0.0148  0.2988 -0.0760
27989W        W28853  21.241   3.237  25.061 -0.1251  0.0373  0.2081
27990W        W28854   8.246  16.670  15.671  0.1925  0.0923  0.1332
27991W        W28855  17.471  29.134  25.350 -0.1574 -0.3458  0.0442
27992W        W28856  19.376  12.640  26.194 -0.0992 -0.1009 -0.0023
27993W        W28857  21.065   3.429  22.468  0.1954 -0.0331  0.2042
27994W        W28858  10.753  21.440  22.620  0.0220  0.0893  0.0635
27995W        W28859  23.520   5.406  10.489  0.1192  0.2142 -0.1654
27996W        W28860  14.599  23.936   9.340 -0.0542 -0.0030  0.0091
27997W        W28861   7.893  23.386  21.846 -0.0546  0.0363  0.1510
27998W        W28862  12.686  18.627   4.279  0.0357 -0.0396  0.3237
27999W        W28863  21.812   6.022  10.189 -0.1324  0.0863  0.0705
28000W        W28864   3.676  22.117   9.387  0.0579 -0.0560 -0.0807
28001W        W28865   7.014   0.504  24.312  0.1669  0.0575 -0.0312
28002W        W28866  26.606  14.489   4.451  0.1300 -0.0286 -0.0563
28003W        W28867  20.921   7.838   9.828  0.1020 -0.0074 -0.1649
28004W        W28868  11.106   7.165  28.793 -0.1628 -0.1103 -0.0656
28005W        W28869   8.482   0.917   6.008  0.0280 -0.2611  0.1821
28006W        W28870  13.048  20.205  27.328 -0.1982 -0.1666  0.1057
28007W        W28871  21.944  28.180  27.475  0.3267 -0.0952 -0.1498
28008W        W28872  22.522   9.276  20.981  0.0456  0.2514  0.1383
28009W        W28873  11.864  25.219  26.549 -0.3581  0.2220 -0.2276
28010W        W28874  23.536  16.900  12.493 -0.0671  0.1895 -0.1841
28011W        W28875   2.850  27.727   0.506 -0.0188  0.3424  0.0148
28012W        W28876  16.141   0.731  12.420 -0.2196 -0.0857  0.1121
28013W        W28877  19.484  13.283  21.038  0.0558  0.2096 -0.1822
28014W        W28878  19.207  21.363  15.885 -0.2562 -0.2090  0.0718
28015W        W28879  27.646   3.269   8.107 -0.1911 -0.2587 -0.0860
28016W        W28880  19.219  14.718   5.033  0.2010  0.2566 -0.0323
28017W        W28881  20.612  28.973  27.238 -0.0725  0.0950  0.2280
28018W        W28882  25.041   8.450   3.583  0.0558 -0.1626 -0.1271
28019W        W28883  29.117  12.981  28.879 -0.2313  0.0444 -0.0393
28020W        W28884   9.627  21.846  24.031  0.2501  0.0462  0.1671
28021W        W28885   7.541  26.615   8.061  0.1293 -0.2042 -0.1707
28022W        W28886  13.794   5.911  28.807  0.1279  0.0663  0.0326
28023W        W28887  26.048   5.220   6.651 -0.0282 -0.1228 -0.1455
28024W        W28888  21.777   0.714   8.385  0.1864  0.2057  0.2183
28025W        W28889  12.607   1.485  27.069  0.2140 -0.0774  0.0862
28026W        W28890  11.143   3.867  19.977 -0.3963  0.0246 -0.1934
28027W        W28891  14.743  26.912  12.182  0.1726  0.1797  0.2608
28028W        W28892   7.792  28.899  21.228  0.0506  0.2493  0.1251
28029W        W28893   3.778  23.005   7.181 -0.0720 -0.0772 -0.3070
28030W        W28894  19.301   9.998  18.179 -0.2988 -0.2905  0.2279
28031W        W28895  20.307  23.162   0.365 -0.0257  0.3020 -0.1177
28032W        W28896  25.389  16.020  28.204  0.0368 -0.1023  0.1956
28033W        W28897  14.189   0.982   2.385 -0.0263  0.0036  0.0631
28034W        W28898   8.427   7.571  23.341 -0.4610 -0.0967 -0.1360
28035W        W28899  12.993   1.958   1.739 -0.1446  0.2786  0.1069
28036W        W28900   0.658   1.443  20.949 -0.0786 -0.2533  0.0712
28037W        W28901  20.631   3.884  26.313  0.1957 -0.2524 -0.2422
28038W        W28902   3.013  15.562  15.189 -0.1164 -0.0872  0.1965
28039W        W28903  12.877  27.049   5.062  0.0567  0.4679 -0.2089
28040W        W28904  20.874  12.143   5.028 -0.2188  0.0437 -0.0044
28041W        W28905  14.123   0.500  22.353 -0.0504 -0.0808 -0.0877
28042W        W28906  14.756  19.952  21.690  0.1493  0.0574  0.3661
28043W        W28907  21.267  19.923  28.309 -0.2331  0.0827 -0.2790
28044W        W28908   8.650   1.321  19.111 -0.0873  0.1723  0.1048
28045W        W28909  18.535  18.898   7.662  0.0793  0.2454  0.0315
28046W        W28910  14.800  25.085  21.443  0.0976 -0.0419  0.1449
28047W        W28911   7.759   9.014  27.883  0.1472  0.0708  0.0917
28048W        W28912  25.656  25.106   0.995 -0.4261 -0.0448 -0.1116
28049W        W28913  21.930  27.994  11.679  0.2808  0.1742  0.1815
28050W        W28914  13.792  27.374  11.392  0.1761 -0.1821 -0.0064
28051W        W28915  16.240   4.657   5.045 -0.0528 -0.0456 -0.0222
28052W        W28916   9.784   3.499   2.359 -0.2670 -0.1692 -0.1789
28053W        W28917  18.435   8.049   6.197 -0.1868 -0.1193 -0.0457
28054W        W28918   7.412  22.390  28.103 -0.1565  0.0435 -0.1773
28055W        W28919   7.378   3.324  22.317 -0.1213  0.2251 -0.1555
28056W        W28920  27.985  23.340  27.939  0.0038  0.0343  0.1430
28057W        W28921  14.077  25.754  15.042  0.0731  0.0062  0.0441
28058W        W28922  10.889   6.387  13.241  0.0902  0.0124 -0.1512
28059W        W28923  20.210  23.260  17.764 -0.1342 -0.2895 -0.1748
28060W        W28924  25.342  10.482  27.327 -0.2415  0.0893 -0.2840
28061W        W28925  27.522  12.397   8.766 -0.0481 -0.1205  0.2527
28062W        W28926  11.795   3.516   2.957 -0.0638  0.0680  0.1453
28063W        W28927   1.992   4.764  22.840  0.2618  0.1557  0.2322
28064W        W28928  20.974   3.696  16.641  0.0406 -0.1176 -0.0756
28065W        W28929  10.024  10.261  23.412  0.0880  0.1920  0.0025
28066W        W28930  24.425  10.263  28.428 -0.0035 -0.3140  0.0380
28067W        W28931  17.925  10.743   9.126 -0.1606  0.0477 -0.1391
28068W        W28932  24.278   3.864  27.981  0.2292 -0.1531  0.1291
28069W        W28933  27.788  11.657  26.447  0.2134  0.0007 -0.0656
28070W        W28934  11.813   2.388   3.166 -0.0870  0.1856  0.0875
28071W        W28935  23.091  28.797  27.783 -0.1638  0.1883 -0.2090
28072W        W28936  18.216  27.687  23.874  0.1530 -0.2568 -0.0251
28073W        W28937   8.469  17.621  27.679 -0.1433 -0.2399  0.0082
28074W        W28938  23.541  12.281  28.450 -0.0034 -0.3874  0.0531
28075W        W28939   8.984  13.158  26.492  0.0232 -0.2400  0.1698
28076W        W28940  15.665   3.177  23.172  0.0206 -0.2639 -0.1042
28077W        W28941  15.527  27.381  25.139  0.0393 -0.0830 -0.1988
28078W        W28942  23.018  12.361   3.869 -0.1864 -0.1112 -0.0341
28079W        W28943  10.405  19.930   6.524 -0.0699 -0.0760 -0.1488
28080W        W28944  19.897  20.707  19.847  0.2817  0.1814  0.0543
28081W        W28945  15.109  16.157  10.188  0.1810 -0.1165  0.1309
28082W        W28946   8.949  18.092   2.370 -0.0882 -0.1388  0.1750
28083W        W28947  15.215  27.949  13.975 -0.1404 -0.0974 -0.3281
28084W        W28948  26.112  22.935  27.531  0.1366  0.3489 -0.1431
28085W        W28949  29.020   9.341  20.731 -0.0156  0.0084 -0.0436
28086W        W28950  13.212   8.518  27.280 -0.2689  0.0967  0.1487
28087W        W28951  12.030  12.760   0.377  0.1368 -0.0292 -0.2006
28088W        W28952  16.526   6.928  23.271 -0.2283 -0.0593 -0.0408
28089W        W28953   1.668   5.864  26.666 -0.1981  0.1637  0.0654
28090W        W28954  29.128   0.153  23.201  0.0317  0.1862  0.0876
28091W        W28955  15.374  24.961   7.753  0.0935  0.2370  0.5289
28092W        W28956  27.337  21.976  27.035  0.1906  0.0566 -0.3597
28093W        W28957  15.199   3.488   6.060 -0.2227  0.0456 -0.3434
28094W        W28958   6.934  26.259  28.682 -0.3383 -0.0332  0.2154
28095W        W28959  25.747   5.496  10.436  0.0393 -0.3944  0.0038
28096W        W28960  22.274  11.462  21.875  0.0937  0.1683  0.0429
28097W        W28961  19.771  16.358  18.076 -0.0877 -0.1322 -0.2075
28098W        W28962  28.335  22.643  26.551 -0.0558 -0.1353 -0.2236
28099W        W28963  21.154  18.857   0.551 -0.1442  0.2872 -0.4669
28100W        W28964   6.237   0.953   3.804  0.0062  0.0922 -0.0193
28101W        W28965   0.899   7.626   0.656  0.2511 -0.2648  0.3386
28102W        W28966   6.148  28.293  13.946  0.2619 -0.1983 -0.2038
28103W        W28967   3.724  19.549   6.676 -0.0718  0.0493  0.0903
28104W        W28968   4.776  11.754  19.493  0.2247  0.2755 -0.3660
28105W        W28969  19.604  19.993  15.933  0.2445  0.0054 -0.0791
28106W        W28970  12.047  25.385  12.575  0.3916  0.0174  0.0862
28107W        W28971  22.258   4.713  17.515  0.0081 -0.1918 -0.1053
28108W        W28972   8.041   5.901  16.165  0.2160 -0.0748  0.1962
28109W        W28973  16.755   4.793   3.940 -0.2478  0.0205  0.0654
28110W        W28974  20.829  14.339  10.605  0.1836  0.0896 -0.3345
28111W        W28975  13.392  27.840  15.971  0.0163  0.0560  0.0444
28112W        W28976   6.403  15.721   8.041  0.2040  0.0203  0.1555
28113W        W28977  16.100   9.308   6.290 -0.0130 -0.1691 -0.1104
28114W        W28978  23.597   3.411  16.131 -0.2426 -0.1563  0.4503
28115W        W28979  23.895  27.985  24.985  0.3817  0.0161  0.0485
28116W        W28980   1.009   7.951  20.359  0.1183  0.4102  0.0124
28117W        W28981   6.905   7.560  27.080 -0.0183 -0.1597 -0.0086
28118W        W28982  24.920  13.559   0.209  0.1035  0.1567 -0.3848
28119W        W28983  16.279   1.220   2.825  0.0805  0.2405 -0.2586
28120W        W28984  16.065  22.803  27.644  0.3579 -0.3945 -0.0590
28121W        W28985  25.808  22.275  27.282 -0.2326 -0.0927  0.2307
28122W        W28986  17.389   5.979   1.783 -0.0768  0.0166 -0.3279
28123W        W28987   5.852   2.605  16.783  0.1159  0.4526 -0.2074
28124W        W28988  28.031   1.127  17.060 -0.0169 -0.2400  0.1628
28125W        W28989  14.749   5.640  11.308 -0.2284 -0.1624  0.2674
28126W        W28990  18.553  16.633  11.583  0.2238  0.1464  0.1424
28127W        W28991   8.335   7.212  25.916 -0.1180  0.0201  0.0041
28128W        W28992  18.566   6.124  17.352  0.2320  0.4251 -0.0633
28129W        W28993  22.247  17.304   3.767 -0.1409 -0.0492  0.1410
28130W        W28994  18.694  23.909   5.819 -0.4320 -0.0086  0.0751
28131W        W28995  19.221  27.616   5.930  0.2553 -0.2522  0.0746
28132W        W28996  27.976  28.770  20.681  0.0322 -0.3079 -0.4326
28133W        W28997  11.883  27.099  19.146  0.1132 -0.0336  0.0826
28134W        W28998  16.821  24.292   1.225  0.0800  0.1848 -0.0518
28135W        W28999  19.663   2.126  14.937  0.0666  0.1190  0.0016
28136W        W29000  17.224  14.656  25.998 -0.0163  0.0375 -0.2008
28137W        W29001   8.266  14.780   4.696 -0.1100 -0.0735 -0.0072
28138W        W29002  21.821   8.854  25.953  0.1086 -0.3633 -0.0344
28139W        W29003  10.476  28.948  24.138 -0.1692 -0.2098 -0.0378
28140W        W29004  15.868  23.403  13.169  0.3106 -0.0568  0.0599
28141W        W29005  17.436  18.479   7.158 -0.1721  0.2109 -0.0008
28142W        W29006  23.303  20.760  10.320 -0.0508 -0.0284  0.1362
28143W        W29007  21.768   1.433   8.313 -0.2076  0.1692  0.2974
28144W        W29008   9.134  25.877   2.632 -0.0391  0.1078  0.1355
28145W        W29009  16.789  16.851   7.349 -0.0226  0.3331  0.0992
28146W        W29010  15.791   8.569  13.137 -0.3226  0.3725 -0.1407
28147W        W29011  12.537   3.022  17.514  0.1210  0.1546  0.2560
28148W        W29012   7.674  27.488  22.320 -0.0275  0.0421  0.0216
28149W        W29013  14.662  11.226   5.134  0.1340 -0.1442 -0.1189
28150W        W29014  15.053  22.293   8.210 -0.1418  0.2880  0.0948
28151W        W29015  25.980  24.707  11.122  0.0067 -0.0274 -0.2733
28152W        W29016  11.657   3.973   7.132  0.0057 -0.1326  0.0173
28153W        W29017  23.975  20.831   0.876  0.3725  0.1867  0.1076
28154W        W29018  10.891   2.103  15.165 -0.0217  0.2486 -0.0657
28155W        W29019   2.477  23.150   0.052 -0.0105  0.4844 -0.1993
28156W        W29020  24.910   5.276  19.132 -0.2155 -0.3447  0.1055
28157W        W29021  25.058   1.970  25.818  0.4226  0.2195  0.0239
28158W        W29022  15.587  17.543   7.100  0.1141 -0.1472 -0.0806
28159W        W29023  24.046  28.306   1.559  0.0702  0.2184 -0.2030
28160W        W29024  17.232   6.531   3.013 -0.1645  0.2125 -0.0115
28161W        W29025  16.771   3.396   1.067 -0.1983 -0.2579  0.0771
28162W        W29026  27.446  24.489   1.093 -0.1224  0.1745  0.0245
28163W        W29027  21.757  12.197   8.170  0.0131  0.0841  0.3327
28164W        W29028  21.345  12.664   8.946  0.1704 -0.0002  0.0455
28165W        W29029  27.235  24.929   5.995 -0.0691  0.1071 -0.0544
28166W        W29030  24.119  18.257   5.042 -0.2052  0.4054 -0.1469
28167W        W29031  29.112   6.157  11.670  0.3355  0.0240  0.0249
28168W        W29032  26.107   6.450   6.930 -0.0412 -0.4478 -0.0062
28169W        W29033  17.681   4.844  12.628  0.0364  0.0118 -0.0990
28170W        W29034  28.774   5.380  24.318 -0.1485 -0.0869 -0.0281
28171W        W29035  26.029  24.517  14.451 -0.0089 -0.2518 -0.0507
28172W        W29036   8.754  23.684   1.943  0.0293 -0.2748 -0.1743
28173W        W29037  11.680   5.592   2.702 -0.2524 -0.1374  0.2395
28174W        W29038  18.356  14.602   7.739  0.3026 -0.3096 -0.0119
28175W        W29039  23.320  23.342   3.846  0.4511 -0.1579 -0.1771
28176W        W29040  20.778   8.061  12.312  0.2707 -0.0021  0.0132
28177W        W29041  26.442  10.947   4.512 -0.0890  0.0425  0.1925
28178W        W29042  22.903  10.227   6.448 -0.1214  0.0790 -0.1042
28179W        W29043  26.249   2.983   2.143  0.0948 -0.1580 -0.0528
28180W        W29044  14.515  11.364  25.049 -0.0669 -0.1149  0.0328
28181W        W29045  24.583  11.731  11.350  0.1108 -0.1625 -0.2193
28182W        W29046  21.626   0.669  10.383  0.0597  0.0344 -0.0778
28183W        W29047  24.358  24.241  22.879 -0.0686  0.2663 -0.0643
28184W        W29048  25.571  27.217  24.826 -0.2348 -0.0900  0.2117
28185W        W29049  10.161  12.316  12.921  0.1430 -0.0577  0.2129
28186W        W29050  21.734  12.573  15.294  0.0560  0.2772 -0.4780
28187W        W29051  21.659   9.392   2.262  0.4239 -0.2825 -0.5817
28188W        W29052   9.801  10.464  13.762  0.2148  0.1941  0.3397
28189W        W29053   4.344  20.490   2.846 -0.1062  0.0027  0.1000
28190W        W29054   6.510  19.062   9.982  0.3027 -0.0223  0.1771
28191W        W29055  26.217   0.313  25.779 -0.3380 -0.1223  0.1101
28192W        W29056  16.582   8.480  18.339  0.1012 -0.0720  0.3621
28193W        W29057   9.980  24.823  28.142  0.1732 -0.0017 -0.0273
28194W        W29058  18.919  24.859  10.778 -0.3234  0.0180  0.0602
28195W        W29059  15.869  27.861  27.820  0.1931  0.1811  0.0201
28196W        W29060  27.063   2.953  11.041  0.1985  0.1780 -0.2007
28197W        W29061  27.601   4.593  23.783  0.0083 -0.0406  0.1087
28198W        W29062   5.016   6.389  25.125  0.2023  0.0680  0.3776
28199W        W29063  25.288  10.767  27.717  0.2195 -0.1297  0.0686
28200W        W29064   8.463   9.624  22.248 -0.1832  0.0240 -0.0270
28201W        W29065  18.220  10.678   3.556  0.0978 -0.0119  0.1284
28202W        W29066  24.151  19.302   1.234  0.1863 -0.0174  0.2958
28203W        W29067  29.046  21.369   4.278  0.1683  0.0534  0.2144
28204W        W29068   3.255   3.450  26.785  0.2417 -0.0293 -0.1295
28205W        W29069  21.148  28.806   6.334 -0.2942  0.1753 -0.2173
28206W        W29070  26.407  25.434   5.688 -0.1027  0.1369 -0.2909
28207W        W29071  24.168  11.622   8.201  0.0859 -0.0050 -0.1143
28208W        W29072   5.005  21.814  14.768  0.1298  0.0932  0.1097
28209W        W29073  28.162  22.031   6.168 -0.0025 -0.2259  0.1629
28210W        W29074  17.468  14.423   5.980 -0.1170  0.1359 -0.0284
28211W        W29075   2.184  28.184  28.327  0.0521 -0.0125 -0.1765
28212W        W29076  19.617  24.217  28.066  0.2855  0.0675 -0.0663
28213W        W29077  20.756  25.565   2.900  0.0499  0.1959  0.0394
28214W        W29078   9.204  25.628   3.912 -0.1591 -0.3654  0.0771
28215W        W29079  23.713  11.733   1.432  0.0694 -0.0781 -0.1277
28216W        W29080  22.356  13.770   4.651 -0.1119 -0.0027  0.2293
28217W        W29081   8.984   5.834   6.839 -0.0288 -0.1881  0.1873
28218W        W29082   5.459  25.204  10.049  0.0977 -0.0956 -0.0785
28219W        W29083   0.156   9.555  18.381 -0.0472  0.0501 -0.0562
28220W        W29084   5.842   7.522  28.367 -0.1151  0.0531  0.4081
28221W        W29085   1.294  11.483   5.802  0.1629  0.5317  0.3744
28222W        W29086   6.306  27.686  27.816  0.0297 -0.3195  0.1034
28223W        W29087   2.787   8.734  20.323  0.1208  0.2277  0.0710
28224W        W29088  26.740  10.628  19.537 -0.1838 -0.3831  0.2191
28225W        W29089  17.978  13.599   6.989 -0.0185  0.1877 -0.2043
28226W        W29090  16.929  20.418  22.808  0.1629  0.4614 -0.2180
28227W        W29091  13.906   8.682  20.342  0.2674 -0.0770  0.1686
28228W        W29092   5.187  10.630  12.910 -0.3758  0.2459 -0.4035
28229W        W29093  24.960   5.000   7.811 -0.0798 -0.2336 -0.2583
28230W        W29094  18.426   7.750   4.147  0.0488 -0.3528 -0.2797
28231W        W29095  16.829  17.320   0.152  0.2278 -0.4761 -0.0394
28232W        W29096  19.524  27.422  17.678  0.1211  0.1753 -0.1353
28233W        W29097   7.109  15.805  27.554 -0.0827 -0.0921 -0.2329
28234W        W29098  18.447  23.253  15.074  0.1690  0.1371  0.2282
28235W        W29099  25.865   0.793  11.553 -0.1005 -0.0434  0.0398
28236W        W29100  11.332  28.835  11.503 -0.0781 -0.0507 -0.0878
28237W        W29101   0.171   3.308  14.111  0.1402  0.0298 -0.0496
28238W        W29102  15.370  28.333  20.663  0.0476 -0.0850  0.0016
28239W        W29103  12.023  28.874  22.516 -0.1158  0.2196 -0.0663
28240W        W29104   0.648   5.502  26.481  0.1342  0.0337 -0.0667
28241W        W29105   8.268   2.321   4.206  0.2301  0.0834  0.1064
28242W        W29106  27.984  18.100   7.292  0.2513 -0.0936 -0.0577
28243W        W29107  27.981  13.073   7.686 -0.0790 -0.2138  0.4383
28244W        W29108  22.352   3.905  11.443 -0.0691  0.1967 -0.1017
28245W        W29109  17.237   9.917  22.578 -0.0240  0.0458 -0.1870
28246W        W29110  22.930   3.323  27.528 -0.0972 -0.1237  0.1003
28247W        W29111  27.025  10.610  15.210 -0.1637 -0.0040  0.1920
28248W        W29112   7.966  22.699  18.115  0.0852 -0.1761 -0.2434
28249W        W29113  17.298   2.354  28.766 -0.0474  0.1114  0.3459
28250W        W29114  25.449   5.890   6.230  0.2228 -0.2269 -0.1174
28251W        W29115  11.373  18.956  26.545  0.0249  0.2038  0.2557
28252W        W29116  10.011   0.537   0.923 -0.4015 -0.1488  0.1229
28253W        W29117  19.379   1.396  20.098  0.0133 -0.1487  0.2003
28254W        W29118  21.107  25.175  25.739  0.0701  0.2969  0.3163
28255W        W29119  20.957  25.878  17.843  0.1757  0.0967  0.0253
28256W        W29120  20.464  24.110  17.870  0.0772  0.2306 -0.4186
28257W        W29121  20.033   2.730   5.963 -0.0985 -0.2308 -0.1175
28258W        W29122   1.559  25.367   8.585  0.0579 -0.1877 -0.0558
28259W        W29123  26.814  24.916  14.309 -0.0399 -0.0660  0.0256
28260W        W29124  23.826  16.301  18.961  0.0467 -0.2884 -0.1189
28261W        W29125   7.235   3.429   9.588 -0.0793  0.1385  0.0599
28262W        W29126  13.501  23.457  26.227  0.1657  0.1015  0.0663
28263W        W29127  25.129  23.079  19.384  0.0331 -0.0361  0.1594
28264W        W29128  19.547   5.404  28.502  0.0667  0.4556 -0.2227
28265W        W29129  18.569  27.278   3.037  0.3485  0.0931  0.1016
28266W        W29130  25.003  20.935  25.642  0.1992 -0.0947  0.1078
28267W        W29131  16.302  26.829  27.752  0.2084 -0.3196 -0.4500
28268W        W29132  24.890  27.927  24.249 -0.3423  0.0878 -0.2004
28269W        W29133  23.578   2.213   4.903  0.2035 -0.2554  0.3153
28270W        W29134  28.985   1.435  28.275 -0.1648  0.1050 -0.1732
28271W        W29135  26.340  20.039  15.209  0.2186 -0.0801 -0.1871
28272W        W29136   2.373   6.475  25.985  0.2123 -0.0289 -0.0601
28273W        W29137  21.138   2.041  27.983  0.0204 -0.0693  0.2062
28274W        W29138   7.489  13.551  23.953  0.1870 -0.0141 -0.3016
28275W        W29139  14.757  28.149  20.321 -0.3176 -0.1843  0.1426
28276W        W29140  17.103  25.323   8.239 -0.2364  0.0849 -0.0757
28277W        W29141  21.372  22.593  21.714  0.1894 -0.0879  0.0200
28278W        W29142  18.139   7.022  25.241 -0.1057 -0.0789  0.2751
28279W        W29143  18.227  24.309   6.431  0.2526  0.1105 -0.0546
28280W        W29144  28.085  17.051   4.340 -0.1375 -0.3281 -0.1391
28281W        W29145  14.347   8.911  26.270  0.0551  0.0500 -0.1230
28282W        W29146   0.836   4.230  26.355  0.1548 -0.0475 -0.0810
28283W        W29147  11.396  26.120   1.681 -0.1905  0.1183 -0.2584
28284W        W29148  27.794   9.513  12.161 -0.3026 -0.0722 -0.2082
28285W        W29149  12.565   0.078  15.561 -0.1101 -0.0693 -0.1426
28286W        W29150   8.248   0.989   8.649 -0.1324 -0.3370  0.1348
28287W        W29151  27.379  25.432  10.642  0.0646  0.0809 -0.1202
28288W        W29152   9.664  27.600   4.993 -0.1128 -0.1369  0.1538
28289W        W29153   1.907   1.856  18.386 -0.1630  0.0148  0.1534
28290W        W29154   6.252   6.541  13.937 -0.0936  0.1649 -0.0941
28291W        W29155  20.215   7.824  21.053  0.1718  0.0302 -0.0712
28292W        W29156  14.955   5.056   7.925  0.2499  0.1905  0.0911
28293W        W29157  19.967  15.598  13.755  0.3317 -0.2424  0.3506
28294W        W29158   0.628  16.644   6.822 -0.1132  0.1589 -0.1216
28295W        W29159   9.978  14.178   2.896 -0.0414  0.2463 -0.0415
28296W        W29160  25.270  22.862   3.224 -0.1678  0.0285 -0.2294
28297W        W29161  20.766  18.848  20.557 -0.3137 -0.1867 -0.0343
28298W        W29162   0.712   4.758   0.870 -0.0598 -0.2043  0.2081
28299W        W29163  23.722   8.537  14.046  0.0347  0.3432 -0.1842
28300W        W29164  18.828   0.269   0.703  0.1285 -0.2709  0.0708
28301W        W29165  12.734   3.346  19.366  0.0387 -0.1177 -0.4893
28302W        W29166  15.881  19.179  20.516  0.0258  0.1015 -0.2459
28303W        W29167  18.219  26.379   9.348  0.0126 -0.1289 -0.2203
28304W        W29168  14.950   9.772  13.671 -0.2138  0.1019  0.0965
28305W        W29169   2.671   1.152  15.300  0.1300  0.1356 -0.0187
28306W        W29170  13.856  26.188   8.620 -0.0770  0.0668 -0.0280
28307W        W29171  27.893   2.948  16.945 -0.1010 -0.0206 -0.0090
28308W        W29172  28.751  11.111   6.475 -0.1620 -0.0534 -0.2029
28309W        W29173   8.528  15.334   1.682 -0.2239 -0.1653  0.0426
28310W        W29174   0.097   1.320  27.730 -0.1179 -0.2549  0.1679
28311W        W29175   5.146   2.968  26.039  0.0735 -0.0038  0.3859
28312W        W29176   4.109  24.851  27.604  0.2324  0.2022  0.0568
28313W        W29177  28.437   5.827   2.797 -0.1233  0.1014  0.0880
28314W        W29178   4.323   9.263  28.796  0.1509 -0.3477 -0.1580
28315W        W29179  14.052  27.699   5.211  0.1897  0.1102  0.0248
28316W        W29180  23.366   6.200  12.640 -0.1518 -0.0139  0.2171
28317W        W29181  20.050   8.420   1.681 -0.1270  0.1299  0.1256
28318W        W29182  28.760  25.986  15.511 -0.0071 -0.1280 -0.3859
28319W        W29183  14.801  17.122  10.722 -0.2627 -0.0134 -0.0739
28320W        W29184   7.992  12.814   0.747 -0.1241 -0.1808  0.1189
28321W        W29185  23.833   3.035  17.757 -0.0441 -0.1221  0.2246
28322W        W29186  20.066   7.938  28.925 -0.0783  0.2329  0.0063
28323W        W29187  16.140  28.629   5.360 -0.1397 -0.0676 -0.2263
28324W        W29188  14.957   0.969  22.885  0.0831 -0.2209 -0.1648
28325W        W29189  21.174   2.493  26.840  0.1536  0.1321 -0.0375
28326W        W29190  24.103  21.318   1.205 -0.1727 -0.1744  0.0341
28327W        W29191   2.744  29.010  24.959 -0.0799 -0.2325  0.2542
28328W        W29192   3.424  21.950  23.710  0.0938 -0.0915  0.0758
28329W        W29193  23.080  25.713  27.754  0.0130  0.1200  0.1856
28330W        W29194  19.703  25.171  27.078 -0.1262 -0.2004 -0.1440
28331W        W29195  21.550  12.275  25.112 -0.3553 -0.1168  0.0997
28332W        W29196   0.725   1.624   8.263  0.0062 -0.1294  0.0251
28333W        W29197  23.580  22.127  10.064 -0.0373  0.0088 -0.3135
28334W        W29198  10.398  21.979  16.656  0.3027 -0.0906 -0.2698
28335W        W29199   7.148   8.153  15.455  0.1246  0.0298 -0.0164
28336W        W29200  12.628   4.896  14.481  0.0476 -0.0615  0.0757
28337W        W29201  12.344  16.617  21.092  0.2860 -0.0911  0.1812
28338W        W29202  10.229   1.128  10.120  0.0596 -0.0784 -0.0513
28339W        W29203  17.458  23.500  19.614 -0.1664 -0.0927  0.2145
28340W        W29204  13.288   3.404   6.549 -0.0810 -0.1148  0.0910
28341W        W29205   4.581  11.486  15.775 -0.2776 -0.0630 -0.0133
28342W        W29206   9.964  24.774  26.522  0.0233 -0.0979 -0.2419
28343W        W29207  16.930  13.431  20.055  0.0719 -0.0516 -0.2004
28344W        W29208  23.791  20.952   8.049 -0.1133  0.0095  0.1367
28345W        W29209   5.233  20.030   4.898  0.3572  0.0534  0.0714
28346W        W29210   9.087  27.030  24.088  0.0598  0.2685  0.1185
28347W        W29211   0.348  13.318  13.446 -0.3657 -0.2066  0.0265
28348W        W29212   0.961  11.999  22.844 -0.3778  0.0506 -0.1032
28349W        W29213  16.344  27.329  24.096  0.0967  0.0334  0.2054
28350W        W29214  11.387   5.318   5.609 -0.2369 -0.0794  0.0440
28351W        W29215  14.204  22.431  27.897  0.0197  0.2803  0.1130
28352W        W29216   0.781   8.677  22.862  0.1557  0.1942 -0.0252
28353W        W29217  20.267  11.631   5.131 -0.3146  0.1515 -0.1136
28354W        W29218  26.384  18.346  19.084  0.1300  0.0320  0.2687
28355W        W29219   9.997  26.299   4.963 -0.0219 -0.0904 -0.1298
28356W        W29220  13.000  10.770  19.238 -0.0362  0.1255  0.2279
28357W        W29221  24.624   1.838  27.442 -0.1781  0.2764  0.0658
28358W        W29222   4.710  16.584  10.014 -0.0333 -0.0762 -0.3060
28359W        W29223  11.539  26.500   6.106 -0.1252 -0.1818 -0.1603
28360W        W29224  20.825  27.411   9.873  0.0300  0.3362 -0.5168
28361W        W29225  23.168   6.944   7.125  0.3922 -0.3146  0.0854
28362W        W29226   3.702   3.221  20.003  0.0705  0.0818 -0.2533
28363W        W29227   7.456  28.847  25.512 -0.1402 -0.2524 -0.0217
28364W        W29228   4.723  13.625   7.394 -0.1102 -0.1148  0.2205
28365W        W29229  13.444  17.257  20.396 -0.0903  0.1332  0.1866
28366W        W29230  21.722  26.677  25.350 -0.0248  0.0040  0.3496
28367W        W29231   8.317  12.793   8.442 -0.0929 -0.1437 -0.1224
28368W        W29232  10.324   5.560   9.167  0.0797 -0.0374 -0.1805
28369W        W29233  25.986  23.094  11.655  0.1959  0.0459  0.2438
28370W        W29234   2.271  19.194  21.311  0.1884  0.3432  0.0203
28371W        W29235  25.172  16.095  10.755 -0.1545 -0.1468  0.0102
28372W        W29236  17.908  23.877  27.747  0.1246 -0.0634 -0.1508
28373W        W29237   9.764   2.820  12.208  0.1383 -0.2474  0.0855
28374W        W29238   6.098  15.649   3.039 -0.0497  0.1482  0.0149
28375W        W29239  27.757   3.342  20.641 -0.0410 -0.2472 -0.1926
28376W        W29240  21.436   8.013  24.347  0.0168  0.3392  0.0189
28377W        W29241   6.814  25.291  22.400 -0.0569  0.1138 -0.2893
28378W        W29242  29.119   0.869   7.978  0.0649 -0.0059  0.1767
28379W        W29243   0.852  29.090  16.408 -0.2835  0.2669  0.1788
28380W        W29244  24.732   2.317  11.446  0.0494  0.0190  0.2266
28381W        W29245  21.101  16.921  18.122  0.1359 -0.0806 -0.5099
28382W        W29246   2.007  12.243   8.272 -0.0878 -0.1844 -0.0997
28383W        W29247  27.812   1.381  24.940 -0.0314  0.0539  0.0192
28384W        W29248  10.031   8.844  11.966  0.1460 -0.0189  0.1173
28385W        W29249  17.143   1.574   6.438 -0.1315 -0.1944 -0.1146
28386W        W29250  20.418   9.506  13.350 -0.0813 -0.1093 -0.1382
28387W        W29251  22.404  23.868  26.320  0.1227 -0.1657 -0.0430
28388W        W29252   2.987   0.746  24.680  0.5070 -0.1413 -0.0285
28389W        W29253  18.415  17.145   4.165 -0.2169 -0.0315 -0.0749
28390W        W29254  22.888  19.918  16.758 -0.0412 -0.0349  0.0603
28391W        W29255  18.380  22.334  22.242 -0.2963 -0.0933 -0.0103
28392W        W29256  23.530  12.417  16.476  0.0705 -0.5376 -0.0833
28393W        W29257   0.153  25.328  23.524 -0.1524 -0.2540 -0.0850
28394W        W29258  19.881  25.305   2.786  0.0028 -0.1281 -0.1256
28395W        W29259  12.396  26.278   3.948  0.0795 -0.0225  0.5983
28396W        W29260   4.018   5.690   8.789 -0.2538  0.0428 -0.3857
28397W        W29261  11.376  12.875   7.097 -0.0496 -0.0280  0.0275
28398W        W29262   4.617   9.593  27.675  0.0117 -0.2660  0.0710
28399W        W29263   6.445  19.777  25.789  0.0808  0.1001 -0.0759
28400W        W29264  16.585   7.496  26.988  0.2167 -0.0598 -0.3005
28401W        W29265  16.617   8.656  27.028  0.1419  0.3648  0.0187
28402W        W29266  13.422  15.685  14.401 -0.1259 -0.0261 -0.2399
28403W        W29267  26.795  19.308   9.697 -0.2759 -0.1188  0.1507
28404W        W29268  27.799  26.746  12.967 -0.0249 -0.1966  0.2720
28405W        W29269  19.413  19.548  25.937  0.4239 -0.4913 -0.0769
28406W        W29270   3.393   4.784   8.126 -0.3289  0.0541 -0.0878
28407W        W29271  12.386  26.827   3.902 -0.0174  0.2737  0.4663
28408W        W29272  19.234   9.268   4.001 -0.2276 -0.0731  0.3428
28409W        W29273  14.989   5.354  18.510  0.1322 -0.0073 -0.1493
28410W        W29274  27.875  27.805   4.628  0.1824 -0.0022  0.1174
28411W        W29275   4.397   3.541  26.046  0.1264  0.1754 -0.3796
28412W        W29276  23.950  21.008   4.064  0.2413 -0.0326  0.0726
28413W        W29277  14.852   6.480   6.808  0.3039  0.1088  0.1716
28414W        W29278  13.859  20.491  14.040  0.2371 -0.0254 -0.0820
28415W        W29279  14.474  16.098  24.370 -0.0201 -0.1204  0.0234
28416W        W29280  17.820  15.993  10.207  0.3994 -0.1084  0.2354
28417W        W29281  25.546   2.762  11.090 -0.2348 -0.1479  0.3317
28418W        W29282  10.149   3.869   0.817 -0.3423  0.1173  0.2515
28419W        W29283  21.142  26.135  26.363  0.1127 -0.1049  0.1904
28420W        W29284  22.436  28.336  11.183 -0.2690 -0.1109 -0.0737
28421W        W29285   3.063   2.447   2.666  0.2763 -0.3483  0.3180
28422W        W29286   0.960   3.095  15.486 -0.1484 -0.1082 -0.1999
28423W        W29287   3.592   1.878   1.265  0.1909 -0.2058  0.0527
28424W        W29288  20.869   1.376  16.389  0.1362 -0.0614 -0.0129
28425W        W29289  21.170  28.610   4.315 -0.0812 -0.2435 -0.1450
28426W        W29290  17.544  27.054   5.022 -0.0668 -0.5061  0.1111
28427W        W29291   4.892   2.433   2.039  0.0172  0.3513  0.3766
28428W        W29292  19.098   2.422   1.487 -0.4060  0.3219  0.1176
28429W        W29293  22.437  28.849   1.951 -0.0623  0.0207  0.1934
28430W        W29294  13.107  10.317  24.944 -0.1091  0.0872 -0.0371
28431W        W29295  14.469  24.476  10.572  0.0501 -0.1852 -0.1277
28432W        W29296  25.657  21.591  12.914 -0.3213 -0.2713 -0.0490
28433W        W29297  21.525  24.804   8.005 -0.0403 -0.1680 -0.1328
28434W        W29298  22.828   9.843  27.421 -0.0248  0.2054 -0.1301
28435W        W29299  27.397   5.629   5.784 -0.4193  0.2610  0.1294
28436W        W29300  12.923  15.662  24.329  0.2104  0.0123 -0.3236
28437W        W29301   3.522  22.388  21.972 -0.1208  0.1053  0.3741
28438W        W29302   1.941   2.782   6.466  0.1051  0.0043  0.1145
28439W        W29303  23.423   5.623  28.767 -0.3377  0.0882  0.3252
28440W        W29304  25.333   4.433   9.552 -0.0815  0.3071  0.1612
28441W        W29305  14.315   3.879   3.790 -0.1115  0.0733  0.2141
28442W        W29306  15.396  11.870  20.249 -0.1764  0.1855  0.0386
28443W        W29307  18.138  10.153  10.535  0.0839  0.0673  0.1070
28444W        W29308   5.732   4.235  22.812  0.0673  0.4221  0.0136
28445W        W29309   2.266   5.855   2.179 -0.2428  0.1164 -0.2422
28446W        W29310  11.963  20.242   2.196 -0.2740  0.2093  0.0961
28447W        W29311  19.132  10.347  13.556 -0.2499 -0.0038 -0.1483
28448W        W29312  12.864  11.669   4.222  0.2632  0.1011 -0.0584
28449W        W29313   9.983  26.177  24.442  0.1365 -0.0828 -0.2655
28450W        W29314  23.579  16.472   2.674 -0.0511  0.0463  0.3441
28451W        W29315  23.671   0.141   4.995 -0.0133  0.1324 -0.5228
28452W        W29316   0.495  28.225  10.072 -0.1479 -0.1408  0.1869
28453W        W29317  26.852   0.049  12.281 -0.5459 -0.0084  0.1907
28454W        W29318  22.270  14.664  12.294 -0.2227  0.3125  0.0395
28455W        W29319  13.613   5.717   9.659 -0.0927 -0.0211 -0.0814
28456W        W29320  15.805  27.659  13.447 -0.0435 -0.1311  0.0245
28457W        W29321   1.143  25.574   1.574  0.2812  0.2760 -0.1695
28458W        W29322  27.695   5.521   7.224  0.1094  0.1309  0.0971
28459W        W29323   6.729   4.441  25.514 -0.1647  0.0130  0.1320
28460W        W29324  10.892   2.866   5.899  0.0028 -0.1392  0.1529
28461W        W29325  19.174  25.486  25.576  0.1901 -0.0490  0.0891
28462W        W29326  16.405   7.739   0.014  0.0339  0.2083  0.1425
28463W        W29327  23.545   3.915  20.282 -0.0404 -0.2701 -0.0357
28464W        W29328  16.170   4.453   3.098  0.2321 -0.0853  0.1045
28465W        W29329  24.505  27.129  11.484  0.0978 -0.1138 -0.1782
28466W        W29330   9.010  27.920  24.549 -0.0305  0.2176  0.1320
28467W        W29331  13.011   1.363   4.144 -0.0646  0.2654  0.0898
28468W        W29332  26.536  21.241  14.056 -0.2570 -0.0146 -0.0420
28469W        W29333   3.253  28.761  20.535  0.0045 -0.1297 -0.1942
28470W        W29334  28.134  21.727  25.326  0.0688 -0.0064  0.2714
28471W        W29335  10.635   0.993  22.942  0.0228  0.1180  0.1732
28472W        W29336   6.952  23.924   7.001  0.2275  0.2813  0.1274
28473W        W29337  11.704  23.317  22.759  0.1455 -0.2043  0.1625
28474W        W29338   6.544   7.789  10.876  0.2166  0.2642  0.2070
28475W        W29339   2.765  28.477  14.244  0.0372  0.0875  0.0079
28476W        W29340  24.209  14.506   9.048  0.1110  0.2358  0.0461
28477W        W29341  25.254   0.292   9.704 -0.0382 -0.0538  0.0933
28478W        W29342  24.197  22.965  15.052 -0.2311 -0.4604  0.0844
28479W        W29343  10.650   8.256   7.469 -0.2100  0.3137 -0.0019
28480W        W29344  19.193  17.371  17.442 -0.0539 -0.1834 -0.3066
28481W        W29345  18.443  23.935   7.378 -0.0137 -0.1153  0.0628
28482W        W29346   6.265   4.264   7.570 -0.1511  0.1793 -0.0602
28483W        W29347  21.845   0.522  22.667 -0.1381 -0.0977 -0.1697
28484W        W29348  12.123   4.107  18.673 -0.0189  0.0251 -0.1525
28485W        W29349  12.635  20.573   1.749  0.0304  0.0790  0.1775
28486W        W29350  25.086  19.571   6.588 -0.0835  0.2375 -0.1292
28487W        W29351  28.738   2.778  14.220 -0.1341 -0.0374  0.0786
28488W        W29352  23.916  25.300  13.861  0.2904  0.1663 -0.0410
28489W        W29353  12.835   4.153   1.494 -0.1684  0.2254 -0.3189
28490W        W29354  26.959  24.391  10.093 -0.1639 -0.0885  0.1014
28491W        W29355   4.867   0.536   3.895 -0.2202 -0.1352 -0.2817
28492W        W29356  25.713   6.148  28.533  0.1678 -0.0256  0.0538
28493W        W29357  11.714  18.485  11.382 -0.0302 -0.0173  0.0287
28494W        W29358  15.602  21.870   6.923 -0.0532  0.3275  0.1360
28495W        W29359  22.019  12.537  13.586 -0.3283  0.3645 -0.0418
28496W        W29360  28.675  23.143  14.598  0.0590  0.0577  0.0282
28497W        W29361  20.071  26.655  10.302 -0.1348  0.2205  0.0701
28498W        W29362   4.709  12.085  12.760  0.3204  0.1074  0.0570
28499W        W29363  23.021   0.478  26.574 -0.1100  0.1871 -0.0086
28500W        W29364  26.833  13.389   7.128  0.1595 -0.1114 -0.0206
28501W        W29365  25.126   5.198  20.878  0.0090 -0.0675  0.3226
28502W        W29366   6.032  11.203   8.318 -0.2119  0.0420 -0.4261
28503W        W29367   8.818  26.058   6.058  0.3117  0.2626 -0.0924
28504W        W29368  12.788   4.414  22.002  0.1062 -0.1429  0.0434
28505W        W29369  13.696  22.226  11.218 -0.3001 -0.0259 -0.0231
28506W        W29370  15.203  15.423  14.939  0.2905 -0.2261  0.0455
28507W        W29371  20.572   1.260   4.815  0.0512 -0.2449  0.1823
28508W        W29372  23.524  13.600   0.344 -0.2165  0.4038  0.0200
28509W        W29373  14.393  10.683  23.721 -0.1336 -0.0106  0.0564
28510W        W29374   5.938   0.470  19.671 -0.3155 -0.0675 -0.3097
28511W        W29375  18.376  23.982  20.630  0.0429  0.4513 -0.2612
28512W        W29376  21.901  26.928  17.100 -0.0429  0.0172 -0.2937
28513W        W29377  28.918   7.835   5.454 -0.1320 -0.1135 -0.3696
28514W        W29378  24.277  22.046  16.499 -0.1444 -0.1642  0.0034
28515W        W29379   4.996  25.254   4.121 -0.0303  0.1464 -0.1610
28516W        W29380  18.075   4.433  14.743  0.0263 -0.2152  0.1249
28517W        W29381  23.638  28.619   1.754  0.3073 -0.1069 -0.0525
28518W        W29382   0.462   6.825  13.217 -0.1929 -0.2531  0.0928
28519W        W29383  28.606  13.057  19.903 -0.1298 -0.1799  0.2233
28520W        W29384  19.335  21.980  19.417 -0.0469 -0.3256  0.1434
28521W        W29385   2.973  25.897  26.576 -0.1569  0.0986  0.0691
28522W        W29386  21.031  25.646  12.830 -0.0420 -0.0070 -0.0417
28523W        W29387  17.846   2.977  16.589 -0.2120 -0.0842 -0.2254
28524W        W29388  19.433  26.682  24.624 -0.1939  0.2397 -0.1381
28525W        W29389   2.051   8.244  22.360 -0.0769  0.2760  0.1032
28526W        W29390  19.559   1.251  20.533  0.1872 -0.1533 -0.0240
28527W        W29391  19.031  26.408   6.332  0.1047  0.5216 -0.2032
28528W        W29392  15.838  17.915  23.126  0.2290  0.4947 -0.0955
28529W        W29393  10.701   9.694  25.815 -0.1372 -0.1161 -0.0516
28530W        W29394  23.294  13.563  24.554  0.3232  0.2243 -0.4031
28531W        W29395  17.322  11.759  17.358 -0.1755  0.1330  0.0942
28532W        W29396  19.072  22.509   4.283 -0.0303 -0.1757 -0.2483
28533W        W29397  26.908   9.958  25.670  0.3222  0.1179  0.1426
28534W        W29398  21.589   0.949  21.889  0.1014 -0.5039 -0.0264
28535W        W29399   5.649  25.496  27.104 -0.3936  0.1571  0.4112
28536W        W29400   0.362   4.302  21.865  0.0257  0.0662 -0.1132
28537W        W29401  11.990  26.211   3.343  0.0623  0.1435 -0.1388
28538W        W29402  20.826  24.075  26.720  0.1793 -0.1593  0.2127
28539W        W29403  13.309   6.829  17.875 -0.3736 -0.1044 -0.1151
28540W        W29404  26.284  28.288  17.513  0.2956 -0.0161  0.2120
28541W        W29405  16.598   7.575  13.521  0.1964 -0.0113 -0.0475
28542W        W29406  27.878  13.712   5.995  0.1667 -0.0829 -0.2778
28543W        W29407  14.492  20.298   4.752  0.0658  0.0522 -0.1837
28544W        W29408  13.972  16.701   4.596 -0.0299  0.0056  0.3158
28545W        W29409  17.642   9.504   4.976 -0.2780  0.1628 -0.2774
28546W        W29410  16.242   8.222  16.460  0.0111 -0.1717 -0.0575
28547W        W29411  15.206  22.773   8.953  0.2184  0.2729 -0.0454
28548W        W29412  12.862   8.061  21.184  0.0735  0.3403  0.1473
28549W        W29413  23.618   7.130   5.384  0.0751 -0.0128  0.1799
28550W        W29414  22.191  20.715   8.800  0.0934  0.2677  0.1922
28551W        W29415  14.439   5.511  18.791  0.0811  0.0736 -0.0435
28552W        W29416   2.745   5.790  19.001 -0.0110 -0.0236 -0.2151
28553W        W29417  22.413   6.185  13.425 -0.2595  0.0880  0.0135
28554W        W29418  28.573  12.747  16.256 -0.1600 -0.0917  0.0649
28555W        W29419  20.957   4.249  24.480  0.0851  0.1882  0.1755
28556W        W29420   5.188   2.972   5.861  0.0906 -0.1314  0.0385
28557W        W29421   1.316   6.903   8.863 -0.0903  0.1795 -0.1445
28558W        W29422  14.528  26.437  12.360  0.0376 -0.4613 -0.1423
28559W        W29423  13.371   8.223  21.223 -0.1182 -0.2733 -0.2353
28560W        W29424  21.746   1.263   6.917  0.1689 -0.1280  0.1268
28561W        W29425  21.963   5.762   7.528  0.0022  0.1865  0.0233
28562W        W29426  24.617  19.267  13.360 -0.2495  0.1771 -0.1623
28563W        W29427  17.771   2.420  27.892 -0.0262 -0.0626 -0.0267
28564W        W29428   4.735  13.343   7.969  0.3231  0.2582  0.1864
28565W        W29429  27.098  17.728   9.179 -0.5755  0.0645  0.0764
28566W        W29430  17.700  23.548  11.211  0.1120  0.1670  0.0242
28567W        W29431  20.849   6.110  26.112 -0.1257  0.2356 -0.2987
28568W        W29432  25.773   2.751  10.606  0.1183 -0.3872  0.0553
28569W        W29433  13.983   0.544   2.166  0.1559 -0.3786 -0.2379
28570W        W29434  15.750  22.354   6.775  0.0760  0.2476 -0.1153
28571W        W29435  17.453  23.300  26.515 -0.0604  0.0203  0.0901
28572W        W29436  11.508  20.461   0.915  0.2549 -0.2328 -0.1130
28573W        W29437   8.238   1.319  15.477 -0.1079  0.0338 -0.0979
28574W        W29438  24.040   1.148   1.948  0.1031  0.2389  0.2768
28575W        W29439  22.885  17.686  19.273  0.0650  0.1403  0.0145
28576W        W29440   8.957  26.355  25.524 -0.3241 -0.1725 -0.0851
28577W        W29441  24.498   2.848   2.980  0.0409  0.1137  0.0245
28578W        W29442  15.934   5.436   4.731  0.2415 -0.0791 -0.3561
28579W        W29443  16.160   6.117  17.495  0.0905  0.0614  0.2483
28580W        W29444  18.833  13.752  14.679  0.0568  0.1372  0.0211
28581W        W29445  26.333   0.180   6.591 -0.1786 -0.1903 -0.4805
28582W        W29446  13.095  24.166  22.223 -0.0248  0.1081  0.2845
28583W        W29447   6.170  19.665   9.266 -0.0812  0.1570 -0.0374
28584W        W29448  12.574  20.101  11.656  0.1824  0.2133 -0.0053
28585W        W29449  13.880   0.185   5.716 -0.0563 -0.0229 -0.0537
28586W        W29450   7.307   2.357  23.397  0.1773 -0.1688 -0.4380
28587W        W29451  28.911  27.638   0.457  0.0552 -0.0510  0.0346
28588W        W29452  22.428  12.398  22.302 -0.0963 -0.1066  0.2697
28589W        W29453  23.767  14.065  21.163  0.0703  0.1411  0.0601
28590W        W29454   4.314   9.170   5.407 -0.2329 -0.0682  0.2205
28591W        W29455  17.344  11.294   7.743  0.2814 -0.0100 -0.0222
28592W        W29456   8.770  12.966  12.890 -0.3149  0.2651 -0.2388
28593W        W29457  14.677   9.414  26.268  0.1802 -0.0062  0.2386
28594W        W29458   3.821   0.320   6.912  0.0222 -0.1837 -0.1707
28595W        W29459   7.256  24.890  22.037 -0.1057 -0.2338  0.1269
28596W        W29460  28.598  27.328  16.303 -0.2098 -0.1449  0.0139
28597W        W29461  18.364  21.899  13.795  0.2533 -0.0621  0.1418
28598W        W29462   1.577  24.592  26.220 -0.0109  0.0637  0.2294
28599W        W29463   7.847  14.726   9.817 -0.1127 -0.1333  0.2635
28600W        W29464  20.792  10.142  12.809 -0.1505  0.1091 -0.1471
28601W        W29465   9.432   1.748  13.083 -0.0291 -0.1251 -0.0220
28602W        W29466  24.908  27.389   2.681  0.2733  0.1147 -0.4290
28603W        W29467  27.702  12.535  10.870  0.1397  0.0723 -0.0946
28604W        W29468  29.102  15.328   6.897  0.1450 -0.0457 -0.0762
28605W        W29469  14.993  11.208   8.146 -0.4680 -0.0339 -0.2192
28606W        W29470  24.059  18.848  22.520  0.0241  0.0728  0.1207
28607W        W29471  16.811   3.693  20.852  0.1437  0.1461 -0.0106
28608W        W29472  10.285  21.600   8.764 -0.4241  0.2260  0.1238
28609W        W29473  23.646  25.643  13.632  0.1658  0.0827 -0.1831
28610W        W29474  23.512  27.708  14.646  0.0958  0.1100  0.1846
28611W        W29475  22.616  12.658  28.137  0.0612  0.2220  0.3459
28612W        W29476  10.669  15.446  10.376 -0.0597 -0.1547 -0.0519
28613W        W29477   4.087   2.883  27.131 -0.1867  0.0665 -0.1973
28614W        W29478  21.189  24.297  28.771  0.0976  0.2934 -0.1843
28615W        W29479  16.928  16.202   3.599  0.0051  0.0738  0.1633
28616W        W29480   1.194  26.255  24.384 -0.0668  0.2492  0.1026
28617W        W29481  18.048  13.004  24.432 -0.4790  0.0110 -0.0043
28618W        W29482   1.547   5.079   4.264  0.0020 -0.0054  0.2091
28619W        W29483  10.706  18.443  15.994 -0.0487  0.0805 -0.2352
28620W        W29484   7.132  23.762  25.405  0.0227 -0.1150 -0.1860
28621W        W29485  16.658  18.721   3.036 -0.2224  0.0295 -0.0869
28622W        W29486  19.755  14.396  19.423  0.2423 -0.1069 -0.0613
28623W        W29487  27.688  22.447  19.518  0.0894 -0.0199  0.2353
28624W        W29488  27.803   0.013   7.963 -0.1742  0.1537 -0.0291
28625W        W29489  19.265  26.138   9.138 -0.0197 -0.2330 -0.1428
28626W        W29490  26.325  16.499  12.350  0.0688  0.0168 -0.1094
28627W        W29491  17.917   4.494   2.730 -0.2327 -0.2085  0.2593
28628W        W29492   7.540  18.243   5.323  0.0764 -0.2449  0.2601
28629W        W29493  26.036  23.845   5.358  0.1600  0.0639  0.0348
28630W        W29494  19.052   6.400  10.046 -0.0937 -0.1726  0.0115
28631W        W29495  27.781  27.627  23.462 -0.0715  0.2279 -0.0674
28632W        W29496  28.409   4.423  25.857 -0.1342  0.0501  0.1045
28633W        W29497   4.251   6.974  26.796 -0.0226 -0.1026 -0.2754
28634W        W29498  17.053  12.383   1.221  0.0123 -0.0881  0.0648
28635W        W29499   2.528  18.449  23.627  0.1185  0.0851  0.0542
28636W        W29500  21.552  12.424  20.352 -0.0396  0.0032 -0.1366
28637W        W29501  15.327   9.193  23.683 -0.3871 -0.0104  0.1576
28638W        W29502  28.136   7.395   1.594  0.0939  0.2018 -0.2855
28639W        W29503  24.302   6.451   1.513  0.0877  0.0756 -0.0969
28640W        W29504  24.273  20.265  27.275  0.1854  0.1269 -0.2565
28641W        W29505  13.168   3.891  15.596 -0.1987 -0.0190  0.0084
28642W        W29506   5.278  17.568   9.066  0.1720  0.2151  0.1500
28643W        W29507  23.754  20.841   5.845 -0.2153 -0.0665 -0.0167
28644W        W29508  14.474  19.904  10.701  0.2090  0.3486 -0.1921
28645W        W29509  24.989   0.047  12.562  0.0032  0.0184  0.0688
28646W        W29510   1.827  23.434  26.382  0.3183 -0.0361  0.2006
28647W        W29511  24.102   2.848   3.885  0.2103  0.2143 -0.2566
28648W        W29512  29.109   6.858  24.106  0.1839  0.2220  0.1241
28649W        W29513  21.855  10.861  19.810  0.1741  0.2521  0.3451
28650W        W29514  16.742  22.589  22.270  0.0060  0.2470 -0.0470
28651W        W29515  28.718  26.556   5.485  0.2668 -0.2426  0.0677
28652W        W29516   4.235   8.987   0.597 -0.0860 -0.1090 -0.3104
28653W        W29517  26.914   6.237  13.556 -0.0809  0.1825 -0.0533
28654W        W29518   0.493  24.945   4.409 -0.0013  0.0377  0.3069
28655W        W29519   6.199   6.073  12.197  0.2039  0.3751  0.0362
28656W        W29520  24.639  25.111   0.545 -0.2716  0.1313  0.0832
28657W        W29521  12.126   1.971   1.515  0.0453  0.0295  0.0671
28658W        W29522  21.242  26.481  21.098  0.1393 -0.1633  0.1889
28659W        W29523  15.772  26.054  12.471 -0.4206  0.2464  0.1172
28660W        W29524  11.152   2.281   7.607  0.0192  0.0660 -0.0041
28661W        W29525  15.712  10.131   5.889  0.0630 -0.2228 -0.0316
28662W        W29526   9.598   8.952  13.200 -0.1984 -0.1114 -0.1267
28663W        W29527  25.823  19.245  29.142  0.2395 -0.1022 -0.0865
28664W        W29528  22.449   1.903  18.473  0.0659 -0.0627  0.3846
28665W        W29529  18.885   8.225  26.876  0.3110  0.1568  0.0777
28666W        W29530   8.468   8.739  22.273  0.0932  0.0003  0.0860
28667W        W29531  20.781   9.747  20.839 -0.0771  0.0843 -0.1303
28668W        W29532   1.721   3.953  12.641  0.2935  0.0280  0.1561
28669W        W29533  21.699   8.504  21.678  0.0623 -0.0285  0.3379
28670W        W29534   3.711  20.494  13.937  0.2001 -0.1659 -0.0009
28671W        W29535  19.875   6.665  28.646  0.1220  0.0377  0.0464
28672W        W29536  10.729  20.038   9.430  0.3435 -0.0624  0.4554
28673W        W29537  13.300  26.227  16.525  0.0332  0.2491 -0.0500
28674W        W29538  23.811  20.795  11.258  0.0679  0.2587 -0.2775
28675W        W29539  25.974  17.739  14.013 -0.4626 -0.0601  0.0438
28676W        W29540  21.184  21.909  22.403  0.0337  0.0093 -0.0882
28677W        W29541  14.499   3.262  15.610  0.1768  0.0128  0.2542
28678W        W29542   5.092  25.805  16.234 -0.0765 -0.0009  0.2757
28679W        W29543   8.316  28.591  22.416 -0.2941  0.1206  0.1110
28680W        W29544  14.109   8.733  15.502  0.0668  0.3044 -0.2124
28681W        W29545  11.352  10.334  13.118  0.1488  0.1087 -0.2497
28682W        W29546  18.314   2.665   0.980  0.4641 -0.1346 -0.0148
28683W        W29547  23.225  24.435  10.125 -0.0911 -0.0130  0.1626
28684W        W29548  22.789   0.821   5.852 -0.0740 -0.3254  0.1176
28685W        W29549   3.298  28.396  15.632  0.2288 -0.4156  0.1947
28686W        W29550   6.418  16.999  19.121 -0.2411 -0.3820  0.1079
28687W        W29551  23.083  12.836   9.480 -0.5065 -0.2355 -0.1519
28688W        W29552  18.192   7.113  16.677 -0.1473 -0.0421  0.2360
28689W        W29553  28.513  25.414   6.592 -0.1686 -0.0056 -0.0123
28690W        W29554  18.524  22.096  20.000 -0.1627  0.0990  0.2553
28691W        W29555  15.935  10.119  15.910 -0.1724 -0.0057  0.0048
28692W        W29556  11.749   7.367  10.592 -0.1722  0.1322 -0.0914
28693W        W29557  11.444   0.994  10.893 -0.1811 -0.1588  0.0468
28694W        W29558  12.968  26.556   8.851 -0.1315  0.3850 -0.2970
28695W        W29559  24.790  16.518  25.550 -0.1872  0.1060  0.0258
28696W        W29560  16.640   1.154   0.187 -0.2088  0.3607  0.0883
28697W        W29561   6.977  10.333  10.019  0.0861 -0.2169 -0.1956
28698W        W29562  17.937  26.885  11.861  0.0014  0.1837  0.1676
28699W        W29563   0.648  27.813   9.694 -0.0676 -0.0739 -0.0642
28700W        W29564  22.559  14.542   8.036  0.0316 -0.0540  0.1250
28701W        W29565  14.752   2.016  16.619  0.0147 -0.0577  0.2157
28702W        W29566   5.136   7.145  18.215 -0.4293  0.2778 -0.1746
28703W        W29567  24.149   0.382   5.531 -0.0463  0.2715 -0.0257
28704W        W29568   9.303  17.086  27.370 -0.1307 -0.0433  0.0005
28705W        W29569  23.368  26.208   2.939 -0.3011 -0.0049 -0.3209
28706W        W29570   9.225  17.928  26.299  0.1056  0.1985  0.0513
28707W        W29571  23.299  11.999  14.944  0.1214  0.1282  0.3662
28708W        W29572  17.122   2.843   5.150 -0.1250  0.2697  0.6974
28709W        W29573  28.341   2.881   0.487  0.2897 -0.1856  0.1330
28710W        W29574   9.924  17.833  22.660 -0.3460  0.0918 -0.0967
28711W        W29575  15.532  26.512   3.666 -0.1165 -0.1586  0.1367
28712W        W29576  13.310   1.953   8.039 -0.2660  0.1031 -0.0292
28713W        W29577  17.701   6.512  18.638  0.0621  0.0094 -0.1750
28714W        W29578  20.205   9.383   0.131  0.0851  0.0582  0.1399
28715W        W29579  19.409  24.160   0.333  0.0908 -0.1402 -0.0109
28716W        W29580  26.349   3.473   4.345  0.1485 -0.0881  0.0503
28717W        W29581  26.484   9.184   5.398 -0.2114 -0.1995  0.3702
28718W        W29582  15.762   8.409  17.864  0.0463  0.2274  0.0619
28719W        W29583   3.810   3.351  18.662  0.1007  0.3545 -0.0453
28720W        W29584  24.483   8.601   3.402 -0.3234  0.0691  0.1843
28721W        W29585   8.261  25.331   0.008  0.0474  0.2582  0.3021
28722W        W29586  24.380   8.992  10.210  0.1686  0.3546  0.3276
28723W        W29587   7.996  28.834   4.127 -0.5280  0.1760 -0.0658
28724W        W29588  27.525  18.832  25.163  0.0688 -0.1890 -0.3059
28725W        W29589   8.591  12.018   7.073 -0.0347  0.1630  0.0899
28726W        W29590   7.189   5.675  14.265 -0.3849  0.1465 -0.0852
28727W        W29591   1.153  10.145  19.133  0.1735  0.3163  0.1247
28728W        W29592  18.633  14.586  16.896 -0.0377  0.1263 -0.0181
28729W        W29593   1.805  13.889  12.368  0.1718  0.1969 -0.1361
28730W        W29594  18.156  13.839  17.662  0.0234 -0.1123  0.1704
28731W        W29595   1.186  13.289   1.913 -0.1524 -0.0855 -0.2616
28732W        W29596  15.640  23.090   1.821 -0.1635 -0.1393 -0.0477
28733W        W29597  26.625   2.045   4.615  0.1947  0.3058 -0.1035
28734W        W29598  15.096  10.460   6.832 -0.0105 -0.2341 -0.0761
28735W        W29599  25.080   9.530   5.201  0.0417 -0.1722  0.1209
28736W        W29600  10.001  20.765  26.928 -0.1269  0.1315 -0.0518
28737W        W29601  15.449   1.845  17.242 -0.0083  0.1249 -0.0631
28738W        W29602   8.997  10.635   7.135  0.2063  0.2479 -0.1265
28739W        W29603  15.905  16.962  10.516 -0.1244  0.2107 -0.1924
28740W        W29604  22.807   7.786   4.539 -0.3423 -0.0022  0.1372
28741W        W29605   1.976   4.708  28.078 -0.3419  0.3260  0.0422
28742W        W29606  17.453   7.372   5.336 -0.0278 -0.2598  0.2461
28743W        W29607   5.375   2.851  27.818  0.1723  0.0047 -0.2735
28744W        W29608   5.112  11.710  18.646  0.0124  0.2244  0.0112
28745W        W29609   3.879  29.099   2.510  0.0289  0.2739  0.1245
28746W        W29610   1.468   3.143  27.761  0.1072 -0.0946 -0.3479
28747W        W29611  21.075  14.334  14.190  0.0638  0.1862  0.4022
28748W        W29612  17.355  28.140  19.483  0.1451  0.0767 -0.0532
28749W        W29613   7.087   4.708  18.533 -0.4200 -0.0562 -0.2732
28750W        W29614  16.928   6.476  28.624  0.0951 -0.2393 -0.0921
28751W        W29615   2.957  27.457   5.955 -0.4580  0.0575 -0.0786
28752W        W29616   2.774  26.019   6.350  0.2560 -0.0455 -0.1763
28753W        W29617  16.987   1.578  11.819  0.1293  0.0491  0.0079
28754W        W29618  11.937   4.201  10.090 -0.1655 -0.4343 -0.2922
28755W        W29619  16.755   1.813   7.250  0.0129 -0.0198 -0.2237
28756W        W29620  27.612   9.775  11.440 -0.0742  0.1222  0.2514
28757W        W29621  23.523  24.812   3.108 -0.1507 -0.3016 -0.0530
28758W        W29622  23.277   8.255   8.236 -0.1093 -0.2380  0.0710
28759W        W29623   9.772  10.015  11.701 -0.1063  0.2266  0.1209
28760W        W29624   8.809  19.621  26.773 -0.2106  0.1885  0.2041
28761W        W29625  11.412   2.525  28.002 -0.1857 -0.3194 -0.1074
28762W        W29626  25.216  22.793  17.163 -0.3085  0.3091 -0.0141
28763W        W29627   2.727  22.002  15.060 -0.3131  0.3290  0.0867
28764W        W29628   1.542  24.488  24.475 -0.0899  0.3765 -0.1136
28765W        W29629  19.948  12.108  25.953 -0.2244 -0.0583  0.0376
28766W        W29630  28.135  13.107   4.849  0.0189  0.2247 -0.1232
28767W        W29631  21.586   2.295  28.217 -0.1003  0.2188  0.2013
28768W        W29632   9.603  28.776  22.242  0.0417 -0.0304 -0.0719
28769W        W29633  16.559  17.152  12.106 -0.1182  0.0970  0.0648
28770W        W29634  27.049  24.010   7.589  0.1605 -0.0683 -0.1575
28771W        W29635  18.501   6.688  24.498  0.0601  0.0018  0.2166
28772W        W29636   2.524   2.018   3.332 -0.1782 -0.1135 -0.1452
28773W        W29637   7.433  27.804   7.335 -0.0107  0.3612  0.1837
28774W        W29638  25.684   6.621   3.551  0.0058 -0.3606  0.2089
28775W        W29639  11.116  27.019  16.174  0.0708  0.2430  0.0145
28776W        W29640  26.021   6.005  27.375  0.0571 -0.0385 -0.0703
28777W        W29641   8.648  26.633  15.455 -0.0346 -0.2310  0.0715
28778W        W29642   2.362  16.487  25.938 -0.1027  0.1926  0.1405
28779W        W29643   1.844  11.932  11.339  0.0180 -0.0739  0.0107
28780W        W29644  19.976   1.312  25.402 -0.3764 -0.1096  0.0327
28781W        W29645  25.457  18.902  19.193  0.1502 -0.3174 -0.0038
28782W        W29646  20.189  28.126  12.725  0.0431  0.0138  0.0201
28783W        W29647   5.973  21.988   3.508 -0.0416 -0.1778  0.1864
28784W        W29648   8.428   2.378  15.257 -0.0138  0.2821  0.1819
28785W        W29649  23.096   6.651   0.914 -0.0937 -0.1541  0.0659
28786W        W29650  15.379  14.711  28.464  0.3148 -0.1193  0.1166
28787W        W29651  23.221   0.043   0.760 -0.1669 -0.2388 -0.1126
28788W        W29652  28.292   9.853  11.390  0.1905  0.0094 -0.0086
28789W        W29653  22.911  28.069   8.667 -0.0369 -0.3555 -0.1880
28790W        W29654   3.758   7.228  18.865 -0.1314 -0.1338  0.1242
28791W        W29655  14.781  28.799  27.215 -0.2631  0.2181  0.1057
28792W        W29656  15.933  14.587   7.902 -0.0403 -0.1838 -0.0436
28793W        W29657  26.187   0.270  20.495 -0.1182  0.2213  0.1989
28794W        W29658  16.803  28.966   8.720 -0.2785 -0.0856 -0.1124
28795W        W29659   8.751  17.984  21.810  0.0052 -0.1105  0.0118
28796W        W29660  14.279  28.324  12.466 -0.1925 -0.0720 -0.1518
28797W        W29661  24.323   0.280   1.952 -0.2575  0.1821 -0.0112
28798W        W29662  26.247   4.901  21.336 -0.1260 -0.0864  0.0535
28799W        W29663  23.391  28.275   2.897 -0.0850  0.1515  0.3511
28800W        W29664  13.082   4.362  13.669 -0.1704 -0.2318  0.0446
28801W        W29665  26.446  23.430   2.077 -0.2701 -0.1022 -0.1364
28802W        W29666  26.286  26.599  18.505  0.0766 -0.1757  0.1748
28803W        W29667   7.526  28.684   4.260  0.1014  0.2764 -0.1932
28804W        W29668   5.958  23.738  18.551 -0.0561 -0.0136 -0.0769
28805W        W29669  10.035   6.969   3.026  0.0404 -0.0979  0.0637
28806W        W29670  16.863  10.543   7.532 -0.0858  0.1537  0.1541
28807W        W29671   6.133   7.763   4.291  0.0351  0.0888 -0.3845
28808W        W29672  19.625  17.958   3.768  0.2221  0.0012 -0.0878
28809W        W29673  25.665  12.498  11.233  0.1593  0.1953  0.4246
28810W        W29674  23.401   9.964   2.075 -0.3523 -0.2186 -0.3578
28811W        W29675  15.067  17.356  20.566  0.0882 -0.0554  0.2221
28812W        W29676   7.310   1.570   7.602 -0.0827  0.1703  0.2184
28813W        W29677  25.641   3.223   2.869 -0.1133  0.4006  0.0465
28814W        W29678  19.516  11.078  22.066  0.3216  0.2634 -0.1275
28815W        W29679   6.719  27.408  12.500  0.0232 -0.0902 -0.0309
28816W        W29680  12.258  18.276  22.278 -0.0152  0.1711  0.3348
28817W        W29681  21.442   6.947   0.651  0.0999 -0.0773 -0.0689
28818W        W29682  27.930   5.256  14.616 -0.2920 -0.4039 -0.1252
28819W        W29683  10.221   3.551   3.315  0.2896 -0.0289  0.0960
28820W        W29684   3.887   0.807  12.403 -0.0654  0.0290  0.1747
28821W        W29685  14.778   3.974   3.608 -0.1061  0.0968 -0.2450
28822W        W29686  24.302  12.923   3.219  0.1930  0.0372  0.3799
28823W        W29687  28.360  10.833  11.543  0.1576  0.4116 -0.0373
28824W        W29688   4.890  12.765  11.948 -0.1288  0.0723  0.2906
28825W        W29689   6.278  18.962   6.296  0.1539  0.2038 -0.1232
28826W        W29690  10.550  11.843  12.372  0.1774  0.4253  0.0293
28827W        W29691  28.056   5.824   4.986 -0.1576 -0.0388 -0.3421
28828W        W29692   9.384   4.846   9.242  0.0546  0.1725  0.4764
28829W        W29693  21.875  23.712   7.365 -0.0964  0.1005  0.2900
28830W        W29694  15.153  27.402  14.070  0.3304 -0.1924  0.2401
28831W        W29695  13.021   5.516  22.021 -0.2738  0.1034 -0.4529
28832W        W29696  19.936  11.674  22.780  0.1566  0.0194  0.1168
28833W        W29697   2.256  25.838  10.224  0.1064 -0.1500  0.0294
28834W        W29698  25.628  25.100  11.103  0.2346 -0.1228 -0.2668
28835W        W29699  20.113  13.012  22.240  0.0725  0.1596  0.0761
28836W        W29700  27.638  27.784  10.581  0.1649  0.3442 -0.1075
28837W        W29701  28.725  16.581   5.539 -0.0994  0.1187  0.2345
28838W        W29702  27.627   3.934   1.577 -0.0234 -0.1523 -0.2540
28839W        W29703  23.851  12.348   7.101 -0.0243  0.0493 -0.5101
28840W        W29704  20.027   9.742  22.246 -0.4131  0.0253  0.0878
28841W        W29705  26.342   4.445  26.784  0.2530 -0.0165 -0.0304
28842W        W29706  11.242  13.840  11.102 -0.0199  0.0363  0.0437
28843W        W29707  25.299  25.187   6.056 -0.1737 -0.1498 -0.1878
28844W        W29708  18.660  16.285   1.359  0.2642  0.2348  0.1595
28845W        W29709  21.920  11.658  27.223  0.1008  0.3300 -0.0175
28846W        W29710   7.806   0.256   7.363  0.1798  0.1910 -0.4607
28847W        W29711   3.387  17.247  15.871  0.1257 -0.0035 -0.1679
28848W        W29712  24.522  21.561   1.923 -0.1225 -0.1483  0.1575
28849W        W29713  26.422   2.078   8.160 -0.3018 -0.1412 -0.0944
28850W        W29714  16.893  26.776  10.620  0.1468  0.3549  0.1334
28851W        W29715   8.086   6.401   3.814  0.0280  0.0287  0.0707
28852W        W29716  26.840   3.751  25.796 -0.1373  0.0569  0.1200
28853W        W29717   7.228   6.420   5.037  0.2205  0.0637 -0.1816
28854W        W29718  19.455  13.226   4.638 -0.0186  0.3162  0.0957
28855W        W29719  24.977   5.873  10.738  0.0654 -0.1674  0.1479
28856W        W29720  23.866  23.063   1.330  0.0835 -0.0198 -0.1418
28857W        W29721  25.415  27.243  14.487  0.0845  0.1986 -0.2445
28858W        W29722  19.673  28.123   5.937  0.1952 -0.0853 -0.0783
28859W        W29723  17.172  14.535  12.825  0.2773 -0.3109  0.5216
28860W        W29724   2.412   0.614   4.945  0.0967  0.2416 -0.1672
28861W        W29725  17.030  19.542  23.323 -0.1399  0.3410 -0.1269
28862W        W29726   9.878  29.040   4.646 -0.2767 -0.1469  0.2348
28863W        W29727  19.032  11.599  14.408  0.3157 -0.1488 -0.2652
28864W        W29728  26.412   8.927  29.114  0.2218  0.1971 -0.0995
28865W        W29729  17.031  21.150   7.591  0.3667 -0.1189 -0.1031
28866W        W29730  20.620   1.352  18.278  0.1109 -0.3055 -0.0350
28867W        W29731   6.537   4.381  15.545  0.1513 -0.1282 -0.2040
28868W        W29732   5.002   3.972  13.271 -0.2852 -0.2021 -0.2836
28869W        W29733  18.370  13.051  12.184 -0.1058  0.0457  0.0914
28870W        W29734   2.527   0.196  29.110  0.3142  0.1789  0.2604
28871W        W29735  26.424  10.886   1.946  0.5394  0.2071 -0.2251
28872W        W29736  23.733   7.615   5.607  0.1191 -0.2373 -0.1053
28873W        W29737   8.922  15.401   0.654 -0.0061  0.0908  0.0762
28874W        W29738  22.396  25.817   8.493 -0.1049 -0.3454 -0.1000
28875W        W29739  11.328  24.761  14.515  0.2286 -0.0382 -0.2417
28876W        W29740  21.821  19.422  23.118 -0.1511 -0.0248  0.0607
28877W        W29741  16.375  21.388   4.628 -0.0920 -0.1063 -0.2588
28878W        W29742   3.841   2.829  11.703  0.1140 -0.0824 -0.0091
28879W        W29743  25.065  11.770  13.680  0.0052  0.0634  0.2631
28880W        W29744  14.469   6.110  17.460  0.1667  0.0953 -0.2347
28881W        W29745  13.182   3.117   2.467  0.2538 -0.3081 -0.1289
28882W        W29746  24.482  24.116  18.264 -0.0900  0.2866 -0.4273
28883W        W29747   9.079  15.326  20.982 -0.0613 -0.2354  0.0322
28884W        W29748   6.809  24.175   2.563  0.2093 -0.1466  0.1491
28885W        W29749  18.159  27.329  11.274  0.1106  0.3659  0.1382
28886W        W29750  27.974  23.842   9.407 -0.2026  0.2105 -0.3727
28887W        W29751  20.675  22.321   9.935 -0.1676  0.3256  0.0963
28888W        W29752  23.470  16.512   8.627  0.1819 -0.2106 -0.2787
28889W        W29753  25.440  25.788  16.955  0.0511  0.0831 -0.0746
28890W        W29754  19.198  26.623   9.315 -0.3097  0.2710 -0.1696
28891W        W29755  21.008   9.687   1.704  0.2466  0.0229 -0.0423
28892W        W29756   0.153   4.729  28.836 -0.2113  0.2147 -0.0875
28893W        W29757   1.818  21.420  14.880 -0.1668 -0.0496  0.0485
28894W        W29758   5.779  29.008  11.612 -0.2445  0.1766  0.1003
28895W        W29759  13.447  27.244  19.062  0.0981  0.0176  0.1824
28896W        W29760  11.376  18.970  12.363  0.0630  0.0213  0.0908
28897W        W29761  20.063  27.716  20.272 -0.1235 -0.0080  0.0250
28898W        W29762  10.754  16.061  18.330 -0.2567  0.0775 -0.0252
28899W        W29763  25.326  28.231   0.635 -0.1215 -0.1251  0.0129
28900W        W29764  20.931   2.279   9.850  0.1244 -0.3005 -0.1647
28901W        W29765   1.801  21.744   9.221 -0.2121  0.0471 -0.2595
28902W        W29766  26.294  18.105  16.815 -0.0389  0.2016 -0.3951
28903W        W29767  20.029  18.854  20.369 -0.1352 -0.0869 -0.0758
28904W        W29768   3.687   2.405  23.101  0.0702 -0.2507  0.2090
28905W        W29769  10.015   9.000  18.888 -0.2827  0.0092 -0.2604
28906W        W29770  18.551  19.007   6.735 -0.1826 -0.1111  0.0566
28907W        W29771  18.813   3.368   3.857 -0.0845  0.0299 -0.1911
28908W        W29772   2.628   5.719  10.225 -0.1693  0.1985  0.1155
28909W        W29773  19.694   6.980   3.149  0.0512  0.4935  0.2103
28910W        W29774  11.495  28.667   7.111 -0.0637  0.0961 -0.0448
28911W        W29775  21.951   4.369  17.786  0.0339 -0.2505  0.3048
28912W        W29776  10.895   4.837  10.384  0.0452 -0.0046  0.1587
28913W        W29777   7.228   3.553   6.646  0.0329 -0.3093  0.1652
28914W        W29778  26.232  16.531  26.967  0.0210 -0.1945 -0.2116
28915W        W29779   6.664  22.095   6.869 -0.2421  0.1614 -0.0767
28916W        W29780   5.101   9.335  13.272 -0.1629  0.0652 -0.3016
28917W        W29781   6.695  20.245  20.113  0.1581  0.1107 -0.5114
28918W        W29782   2.976   2.028  28.864  0.0934  0.0368 -0.2147
28919W        W29783  27.323  14.183  14.325  0.1939 -0.3206 -0.0077
28920W        W29784  18.344   6.309  19.367 -0.0141 -0.0594  0.0340
28921W        W29785   8.919  17.320  26.086 -0.3928 -0.1873 -0.1259
28922W        W29786  10.853  26.156  16.853  0.1811  0.1281 -0.1429
28923W        W29787  18.418   2.414  12.478 -0.0189 -0.4057  0.0537
28924W        W29788  14.245  15.038   3.748  0.3022  0.0669 -0.2422
28925W        W29789  21.393   1.158   4.738 -0.2108  0.4110  0.1750
28926W        W29790  17.084   2.223  28.289  0.1901 -0.0129  0.4226
28927W        W29791   9.811  24.431  11.678 -0.3345 -0.0984  0.3139
28928W        W29792  18.627  24.202  24.332 -0.2477 -0.0636 -0.2071
28929W        W29793   1.170   8.776  11.473  0.3110  0.2859  0.2497
28930W        W29794  22.861  27.022  25.154  0.1453 -0.1195  0.0667
28931W        W29795   9.459   0.261  24.451  0.3078 -0.0748  0.1276
28932W        W29796  21.671  24.709   5.459 -0.0471  0.1012  0.3235
28933W        W29797  13.642   2.336  20.272 -0.0436 -0.1018 -0.2126
28934W        W29798  19.268   8.102   3.648  0.1576  0.0599  0.0378
28935W        W29799  27.427  14.477   6.342 -0.0975  0.1712 -0.0426
28936W        W29800  24.111  19.712  16.203 -0.1417 -0.1706  0.1158
28937W        W29801   4.311  26.548   0.957 -0.2767 -0.0889  0.0289
28938W        W29802  21.273   4.306  22.477 -0.1140  0.1885  0.0462
28939W        W29803   1.712  27.247  15.929 -0.0641 -0.0173  0.3636
28940W        W29804   7.797  11.926  27.632 -0.0678 -0.1109 -0.0405
28941W        W29805   3.727   1.793  11.250  0.0875  0.2638  0.0446
28942W        W29806  22.897  12.566  23.309  0.0735 -0.2832 -0.1027
28943W        W29807  26.007  15.171  18.106  0.1194  0.1134 -0.1301
28944W        W29808   0.126  22.273  12.701 -0.0667  0.0857 -0.0592
28945W        W29809  13.667  21.889   2.292  0.1164 -0.0245 -0.1483
28946W        W29810  27.426  24.859  24.090  0.1117 -0.0827  0.1239
28947W        W29811  27.733   6.387  26.842  0.0567  0.1605  0.1928
28948W        W29812  16.339  12.564  17.537  0.1612 -0.0805 -0.2085
28949W        W29813  23.779   7.518   6.110 -0.1897  0.1285 -0.2694
28950W        W29814  21.645  19.149   4.672  0.1781 -0.1893  0.2304
28951W        W29815   0.536  24.602  27.036 -0.2716  0.1437 -0.0670
28952W        W29816   5.561  25.336   6.934 -0.0197  0.0576  0.2510
28953W        W29817  20.994  10.402  24.619 -0.0107 -0.0265  0.0303
28954W        W29818  19.352   9.423   4.608  0.0671 -0.1443 -0.0551
28955W        W29819  15.118  17.434  27.017  0.0400 -0.1028  0.0461
28956W        W29820  27.905  20.778  16.863 -0.1195 -0.0676 -0.2100
28957W        W29821  14.849  18.682   4.190 -0.2719  0.2699  0.0524
28958W        W29822  19.351  23.052   6.139 -0.0772  0.0346  0.1951
28959W        W29823  26.329  11.092  13.750 -0.1665  0.3004  0.2582
28960W        W29824  26.860  16.115  12.151  0.0342  0.1372  0.1892
28961W        W29825  19.788  12.047  18.835 -0.0483 -0.1553 -0.0212
28962W        W29826   3.467   6.907  22.251  0.1199 -0.1225  0.0128
28963W        W29827  17.270  19.904  10.640  0.1019 -0.1718 -0.0821
28964W        W29828   6.319   9.816  14.876  0.0180  0.0340  0.1524
28965W        W29829  27.654  10.803   7.752 -0.0233 -0.1420 -0.0498
28966W        W29830  27.322   0.136  21.544 -0.0841  0.1465  0.2761
28967W        W29831  27.622   7.852  16.141 -0.2913 -0.0108  0.0566
28968W        W29832  27.855  13.596  27.525 -0.0171  0.0068 -0.2056
28969W        W29833  28.212  26.590   8.966  0.1532 -0.1122 -0.0183
28970W        W29834  12.795  23.228  25.566 -0.3301  0.2170  0.2601
28971W        W29835  28.834  27.489  21.978  0.0862  0.0479 -0.3426
28972W        W29836  15.388  21.635  29.143 -0.3250 -0.2050  0.0646
28973W        W29837  22.520  28.496  15.273 -0.1164  0.1593  0.2280
28974W        W29838  12.609  14.949  17.202 -0.1222  0.1607  0.1063
28975W        W29839  22.180   1.636   3.099  0.1025  0.2521 -0.1757
28976W        W29840   5.261  14.095  24.483  0.1778  0.3237  0.1046
28977W        W29841   4.922  20.531   8.373 -0.0480  0.0539 -0.0097
28978W        W29842  12.906  28.056   8.973  0.1925  0.0179 -0.0271
28979W        W29843  21.721   6.809  18.943 -0.1530 -0.0460 -0.2757
28980W        W29844  21.530   1.545  17.197  0.0979 -0.1946  0.2694
28981W        W29845   4.078  27.269  25.301 -0.1297 -0.2678  0.1545
28982W        W29846   7.138  23.848   8.992 -0.2315  0.0011 -0.0315
28983W        W29847   5.811   6.993   0.254  0.3821  0.1038  0.2078
28984W        W29848  28.788  20.230   7.457  0.2606  0.0596 -0.0041
28985W        W29849  23.978  10.980  22.515  0.1860  0.1916  0.3302
28986W        W29850  17.454   7.534  18.728  0.3071  0.2710 -0.1025
28987W        W29851  17.411  25.262  20.785 -0.1212  0.2336  0.3818
28988W        W29852  18.174  28.034  24.240  0.3129  0.0295 -0.2565
28989W        W29853   6.792  21.494  21.123 -0.0999  0.1841  0.0312
28990W        W29854  24.472   1.307   9.215  0.0330 -0.0889  0.1232
28991W        W29855  14.077  14.418  24.045  0.1242 -0.0702 -0.0704
28992W        W29856  15.520  22.112  11.066  0.0939 -0.1905  0.4217
28993W        W29857  21.593  21.037  13.939  0.3575 -0.1975 -0.0044
28994W        W29858   8.105   4.372  14.135 -0.0360 -0.0178  0.3383
28995W        W29859  23.036  18.143  16.228 -0.1840 -0.2091 -0.5572
28996W        W29860   6.577  18.258   1.902 -0.0425 -0.0761  0.1602
28997W        W29861  28.323   1.829   8.706 -0.2143 -0.1017 -0.0486
28998W        W29862  22.420   2.910  15.105 -0.1596 -0.0345  0.0396
28999W        W29863  19.316   0.733  22.385  0.0514  0.2281  0.0262
29000W        W29864  20.905  23.830  26.142 -0.1368  0.1058 -0.2079
29001W        W29865  10.745  12.798  15.114 -0.2528  0.1389 -0.0788
29002W        W29866  23.307   5.104  11.412 -0.1916  0.2669  0.1423
29003W        W29867  26.522   9.261   8.595 -0.0995  0.1035  0.1039
29004W        W29868  17.587   2.783  19.772 -0.1109  0.0562  0.1701
29005W        W29869  21.108   9.716   6.843  0.0701 -0.1700  0.3189
29006W        W29870   7.645  10.533  12.854 -0.2784  0.1112 -0.2268
29007W        W29871   3.928   0.455   5.956  0.0929 -0.1780  0.0115
29008W        W29872  22.473  24.340  12.578 -0.0823  0.0007 -0.1139
29009W        W29873   6.674   9.749  10.724  0.0355 -0.0862  0.1300
29010W        W29874  12.205   8.015   4.102 -0.0176  0.5055  0.1003
29011W        W29875  22.926   2.622  27.017 -0.0909  0.2656 -0.0677
29012W        W29876   5.660  16.902  10.437 -0.0159 -0.1573 -0.0799
29013W        W29877   2.766  10.966  17.985  0.1734 -0.1269  0.2444
29014W        W29878  15.369  24.001   3.586  0.2573  0.1680 -0.2005
29015W        W29879  18.782  28.552  14.134 -0.1690  0.2442  0.2753
29016W        W29880  21.151   0.887   0.888  0.0103 -0.0409 -0.1141
29017W        W29881   8.562   0.986  28.633 -0.1953 -0.0061 -0.2900
29018W        W29882  26.726   2.786  28.768 -0.3535  0.1872  0.0462
29019W        W29883  12.847  20.890  28.177 -0.0712  0.1857  0.0504
29020W        W29884  26.320  14.027   5.571  0.2333 -0.3371  0.0720
29021W        W29885   0.989  18.563   7.975  0.4090  0.4068  0.0611
29022W        W29886  14.810  26.668  19.376 -0.1062 -0.5167 -0.0729
29023W        W29887   8.646  10.866  28.710 -0.1448 -0.1130  0.0089
29024W        W29888  20.869   9.169  24.505 -0.0236 -0.0089 -0.0865
29025W        W29889  27.177   6.902  14.169 -0.0047 -0.4188 -0.1360
29026W        W29890  24.944  20.725  19.158  0.1119 -0.3453 -0.0731
29027W        W29891  21.847   4.827   3.330  0.1392  0.2093  0.0810
29028W        W29892   4.244   8.484   6.763  0.2570 -0.2202 -0.1033
29029W        W29893   3.307  22.962   7.007 -0.2046  0.0880  0.0976
29030W        W29894  17.657   4.724  17.151  0.2644 -0.0230 -0.2509
29031W        W29895   0.862   4.370   8.060 -0.1697 -0.1205 -0.0407
29032W        W29896   2.739   1.954  16.881  0.1223  0.1245 -0.0155
29033W        W29897  25.367  27.862  20.719  0.0285  0.0873 -0.2774
29034W        W29898   9.678  14.160   8.892  0.0944 -0.0827  0.2011
29035W        W29899  29.011  21.890   4.334  0.3043  0.4192  0.1255
29036W        W29900  14.681  15.408  22.054 -0.0054  0.0511  0.0830
29037W        W29901  22.588   2.387  27.348  0.0806  0.1694  0.1976
29038W        W29902   6.475   5.851   3.415  0.3878 -0.3244 -0.2751
29039W        W29903  24.876   5.025  27.665  0.1065 -0.0154  0.0881
29040W        W29904   1.956  17.450  23.748  0.1376 -0.1293  0.1506
29041W        W29905  21.354  20.935  28.895  0.0287  0.0937  0.2515
29042W        W29906  23.209  27.161  11.045 -0.2433  0.0859  0.2386
29043W        W29907   8.029  12.534  21.811 -0.1879  0.0256 -0.1154
29044W        W29908   0.623  15.691  28.711 -0.1495  0.2522 -0.0328
29045W        W29909   5.874   5.496  21.897  0.0671 -0.3946  0.1248
29046W        W29910  22.644   1.873   5.926  0.2294 -0.0690  0.2184
29047W        W29911  18.215  24.283  26.855  0.0626  0.0098  0.1288
29048W        W29912  23.650   1.370   1.683  0.0219 -0.1849 -0.1818
29049W        W29913   3.874  16.658   3.194  0.2601 -0.3709 -0.4248
29050W        W29914  17.194   4.362   3.132 -0.1987  0.3415 -0.0198
29051W        W29915  11.504   9.592  26.943  0.2003  0.1329 -0.2070
29052W        W29916  23.239   1.356   6.773  0.1684 -0.0935  0.1019
29053W        W29917   8.400   0.147  14.851  0.0197  0.1485  0.0327
29054W        W29918  22.329  26.896   6.811 -0.2826  0.0677  0.0408
29055W        W29919  22.535   7.337   1.186 -0.0117  0.1699  0.2069
29056W        W29920   4.038  26.407   0.407 -0.0749 -0.2365 -0.1423
29057W        W29921  23.844  25.539   8.309 -0.1574  0.1552  0.4868
29058W        W29922   6.404   1.159   6.057  0.1738  0.3887  0.0882
29059W        W29923  14.267  19.194   1.750 -0.0313  0.2924  0.1130
29060W        W29924   6.485  17.678   5.568 -0.1459  0.3022 -0.0690
29061W        W29925  23.835   6.277  15.266  0.1326  0.3378  0.0723
29062W        W29926  13.790  10.360  14.385 -0.3315 -0.2866  0.1768
29063W        W29927   3.447   7.510  12.611  0.1977 -0.0299 -0.0925
29064W        W29928  27.286   2.565   9.792 -0.3619  0.0567  0.2081
29065W        W29929  16.427  24.326  16.847  0.1404 -0.2276 -0.0517
29066W        W29930  13.898  25.050   9.198 -0.3022 -0.0747  0.2159
29067W        W29931  24.762   5.131   5.104 -0.1823 -0.1192  0.1204
29068W        W29932  14.713  20.671  27.977  0.3796  0.0612  0.0436
29069W        W29933  11.501  16.787  12.199  0.2554  0.1812  0.3330
29070W        W29934  18.945  14.322  17.280  0.1332 -0.2829  0.0246
29071W        W29935  19.833  10.086   8.567 -0.4503 -0.1922 -0.0124
29072W        W29936  22.602   7.286  23.505  0.1656 -0.1768  0.2717
29073W        W29937  16.270   7.134   9.883  0.0525 -0.1337  0.0795
29074W        W29938  25.382  10.779  12.720 -0.1109 -0.0456 -0.0477
29075W        W29939   9.843  21.390  17.666 -0.1711 -0.3123 -0.0827
29076W        W29940   0.010  17.654  11.274  0.1070  0.0416  0.1825
29077W        W29941  24.082  16.836  17.685  0.4414  0.1917  0.0156
29078W        W29942  13.099  17.772   5.208 -0.0067  0.2032 -0.2458
29079W        W29943  23.093  23.520   6.354  0.0762  0.2785 -0.0544
29080W        W29944   9.484   7.103   7.726 -0.0040 -0.1749 -0.0481
29081W        W29945  16.637  27.829  24.326 -0.1477 -0.1701  0.0430
29082W        W29946   0.377  25.570   2.697 -0.0085  0.1552  0.1541
29083W        W29947  23.820  19.720   8.944 -0.1683 -0.1103 -0.1939
29084W        W29948  18.315   1.701  21.271 -0.2134  0.0123  0.1954
29085W        W29949  25.579  16.637   1.317  0.1699 -0.1910  0.1080
29086W        W29950  23.148  15.704  19.462  0.1551 -0.0211  0.1361
29087W        W29951  22.817   7.275  15.021  0.1416 -0.0210 -0.1753
29088W        W29952  24.857  22.771  15.036 -0.0152 -0.0689 -0.0067
29089W        W29953   3.066   8.237  26.148  0.3810  0.3163  0.2167
29090W        W29954  26.466   1.118   2.694 -0.1574  0.0935 -0.0891
29091W        W29955  11.248   2.896  25.585  0.0037 -0.0126 -0.0797
29092W        W29956   0.513  24.507   6.963  0.0871 -0.1236  0.1830
29093W        W29957   0.229   6.440  15.167  0.3131 -0.1233  0.0164
29094W        W29958   4.431   8.131   7.149 -0.1969  0.0565 -0.0958
29095W        W29959  21.382  24.441  21.289 -0.2165  0.0526 -0.1447
29096W        W29960  28.414   5.233  23.995 -0.1886  0.0084 -0.3033
29097W        W29961  17.685  21.825  20.274  0.2277  0.0564  0.3538
29098W        W29962  25.540  17.585   5.514  0.2005  0.2630 -0.2164
29099W        W29963  20.292   2.839   9.915  0.0976 -0.1073 -0.0634
29100W        W29964  14.712   5.118  19.041 -0.0745  0.1237  0.1600
29101W        W29965   1.978  22.606   9.432  0.1914 -0.1584 -0.0163
29102W        W29966   4.052  24.424   7.592  0.0721 -0.3077  0.1349
29103W        W29967  22.515   9.940  28.932 -0.1325  0.0043  0.0826
29104W        W29968  25.379  25.973  14.861 -0.2821 -0.2567  0.0044
29105W        W29969  25.720  14.804   9.959  0.2202 -0.2249 -0.1687
29106W        W29970   8.685  16.424   8.349 -0.2241  0.4000 -0.2685
29107W        W29971  19.517  10.292  17.863 -0.0923 -0.1341 -0.1230
29108W        W29972  16.539  26.186   0.747 -0.2581 -0.1273  0.2595
29109W        W29973  28.432  15.091  12.975  0.1600  0.4707 -0.1881
29110W        W29974   1.800  12.607   8.483  0.1642 -0.0540 -0.3575
29111W        W29975  14.934   0.182   7.286  0.0635 -0.2776  0.2655
29112W        W29976  17.090  25.966  19.691 -0.4469 -0.0405 -0.0572
29113W        W29977   5.588  19.052  23.357 -0.1723  0.1334 -0.0737
29114W        W29978  20.449   0.354  13.542  0.3752  0.2070  0.2363
29115W        W29979   2.144  20.420   8.269  0.0230 -0.0404  0.2778
29116W        W29980  10.277   1.178  15.385  0.1944 -0.1169 -0.0265
29117W        W29981  13.113  27.313  17.193  0.0830  0.2945  0.2093
29118W        W29982  21.481  12.158  17.639 -0.0542  0.2470 -0.0946
29119W        W29983   8.267   1.372  24.969 -0.3694 -0.5293 -0.1280
29120W        W29984  22.125  27.114  12.486  0.1588 -0.1007  0.0650
29121W        W29985  17.304  28.752  26.585  0.0599 -0.0968  0.4128
29122W        W29986  16.133  22.990  24.472  0.1211 -0.0676 -0.0227
29123W        W29987   2.070  24.101   5.918 -0.0674 -0.2074 -0.1293
29124W        W29988  17.576   3.465  10.518  0.1002 -0.0998  0.1323
29125W        W29989  27.157   6.615   5.873 -0.1484 -0.1424 -0.1732
29126W        W29990  22.105   2.065  17.552  0.1666 -0.0622 -0.3095
29127W        W29991  27.813   9.522  15.743 -0.0234 -0.2547  0.0026
29128W        W29992   3.664  27.016   4.201 -0.0942 -0.1191 -0.0546
29129W        W29993   8.155  24.581   6.441  0.1287 -0.1131  0.1959
29130W        W29994  18.213   3.505   0.446 -0.1474 -0.0099 -0.0652
29131W        W29995  22.788  12.364  14.614 -0.0845 -0.1571 -0.0180
29132W        W29996   9.718   3.908  14.210  0.2009 -0.1008 -0.3332
29133W        W29997  14.623  18.311  24.947 -0.1708 -0.1793 -0.1004
29134W        W29998  16.213   8.769  18.583  0.0939 -0.1101 -0.2667
29135W        W29999  27.090   4.705   1.651 -0.1971  0.1908 -0.0829
29136W        W30000   7.170  27.521  19.805  0.0922 -0.1334 -0.1239
29137W        W30001   4.839   6.256   9.800 -0.1818 -0.0702 -0.2966
29138W        W30002   3.285  12.265   0.871  0.0851  0.1130 -0.0486
29139W        W30003  18.992   1.943  13.193  0.3134  0.2179  0.1231
29140W        W30004   9.668   1.803  28.579  0.1622 -0.2537 -0.0115
29141W        W30005   2.307  22.680  13.971 -0.2577  0.0293  0.0127
29142W        W30006  15.318   4.470  22.340  0.1860 -0.0952  0.4258
29143W        W30007   1.557  25.122   7.328  0.0326  0.0065 -0.0461
29144W        W30008   2.482  17.381  23.796  0.0254  0.0403 -0.0973
29145W        W30009  26.991  17.923  27.970 -0.0027  0.1938 -0.0853
29146W        W30010   6.573  23.265   3.440  0.2447 -0.1352  0.0654
29147W        W30011  15.129  11.068  28.862  0.1063  0.1774  0.1325
29148W        W30012  29.031  13.152   6.631 -0.1584  0.1973  0.1856
29149W        W30013  21.519   0.547  12.855 -0.1085  0.0251 -0.2876
29150W        W30014  26.356  25.076  18.943 -0.4364  0.1343  0.0134
29151W        W30015  24.001  21.161  26.535  0.0919  0.0963  0.1293
29152W        W30016  24.043   5.050  28.791 -0.1220 -0.2828  0.4232
29153W        W30017  17.383  14.444   1.043 -0.0959  0.3600  0.0523
29154W        W30018  14.669   3.622   4.026  0.1629 -0.1303 -0.1230
29155W        W30019  11.518  10.346   9.101 -0.1026  0.1436 -0.1141
29156W        W30020  18.045  15.665  23.742 -0.0232  0.0383  0.1346
29157W        W30021   6.879  13.054  18.074  0.1060 -0.3463  0.0217
29158W        W30022  12.637   2.225  14.596 -0.2351 -0.2475 -0.1465
29159W        W30023  11.905   2.461  12.369  0.2755  0.1041  0.0518
29160W        W30024  26.110   6.899   0.467 -0.1246  0.0096  0.1577
29161W        W30025  23.430   6.126  19.335  0.2727 -0.1631 -0.2169
29162W        W30026  17.217  12.793  23.819 -0.2512  0.2135  0.0613
29163W        W30027  26.259  25.731  21.723  0.0499  0.2463 -0.3246
29164W        W30028   5.911   0.368   1.580  0.0822 -0.3418 -0.2964
29165W        W30029  10.362  20.572  14.111  0.0545 -0.0485 -0.1226
29166W        W30030   4.713  26.239   6.446 -0.3007 -0.0695  0.0049
29167W        W30031   0.428  23.503  16.913  0.2020 -0.0704 -0.1278
29168W        W30032   3.756  13.277   6.339 -0.1965  0.1872  0.3735
29169W        W30033  12.567   2.758  16.562 -0.1149  0.0258  0.0346
29170W        W30034   2.069  27.879  25.053  0.0740 -0.3291  0.0714
29171W        W30035  25.224  22.307   8.871 -0.1451  0.1070 -0.1230
29172W        W30036  21.997  28.859   7.664 -0.0220 -0.0313 -0.3216
29173W        W30037  28.126  14.964  13.808  0.2662 -0.4076  0.3200
29174W        W30038  27.824   8.955   6.225  0.0471 -0.0584 -0.2282
29175W        W30039   5.468  13.774  28.616  0.0651  0.0694  0.3845
29176W        W30040  22.710  26.073  20.112 -0.2597 -0.2213 -0.0233
29177W        W30041  15.915  13.371   8.838 -0.0658 -0.0912 -0.1174
29178W        W30042  14.232   3.150  25.050 -0.1612 -0.2100  0.0575
29179W        W30043  27.712   5.602  10.012 -0.0969 -0.0613  0.1851
29180W        W30044   3.591  12.068   6.524  0.1106  0.0520  0.0133
29181W        W30045  15.699   1.220  28.795 -0.1608  0.0904  0.0494
29182W        W30046   9.560  13.747   2.609 -0.0209 -0.1100  0.1794
29183W        W30047  20.744  12.758   0.715 -0.0673  0.0718 -0.2514
29184W        W30048  28.685  28.464  16.467 -0.2967  0.0488 -0.0480
29185W        W30049  17.249   9.195  20.169 -0.0661 -0.2554  0.2295
29186W        W30050   7.533  21.740  23.552  0.2256  0.2320  0.0303
29187W        W30051  17.481  22.113  26.392  0.3085  0.3650  0.4624
29188W        W30052  25.457  23.468   0.117  0.0439 -0.2329 -0.0261
29189W        W30053   8.934  24.904   4.442 -0.1310  0.3214 -0.1889
29190W        W30054  15.387  20.761   5.442  0.1303  0.1108  0.0812
29191W        W30055   0.806   3.579   0.640 -0.3830 -0.0485 -0.2455
29192W        W30056  15.776   6.933  28.814 -0.1630  0.1842 -0.1205
29193W        W30057  11.126   2.899  17.677  0.3018 -0.1559 -0.0064
29194W        W30058  23.687  20.412  11.559  0.0735  0.1162  0.2467
29195W        W30059  18.053   4.744  27.074 -0.0007 -0.1526  0.0827
29196W        W30060  13.082  16.117  24.163 -0.0373 -0.0595 -0.0470
29197W        W30061  14.016  22.278  24.012 -0.0538 -0.0434 -0.1630
29198W        W30062   8.301  22.795   0.171 -0.1856 -0.0579  0.0598
29199W        W30063   5.727  23.421  16.443  0.3916 -0.3238 -0.0782
29200W        W30064  10.590  28.629  24.707  0.4316  0.0943  0.1081
29201W        W30065  17.998  17.477  20.693  0.1693  0.0934 -0.0995
29202W        W30066  19.143   3.737  16.045 -0.1531 -0.1025  0.1089
29203W        W30067  26.110  16.669  18.295  0.1663  0.2290 -0.2170
29204W        W30068  18.788  13.352   7.412  0.1172  0.0483 -0.2866
29205W        W30069  21.807  15.112  13.964  0.0078  0.3140  0.0265
29206W        W30070  25.359  27.994  19.816 -0.1072 -0.1082 -0.1430
29207W        W30071  26.432  11.099  12.884  0.1519 -0.0470 -0.1502
29208W        W30072   4.460   0.354  10.112  0.0894 -0.1075 -0.0232
29209W        W30073  14.997  18.042  25.273  0.5022 -0.0093 -0.3327
29210W        W30074  15.578   9.682  15.907  0.0759  0.0212 -0.1388
29211W        W30075  21.551  20.027  20.667 -0.0269  0.2363  0.1667
29212W        W30076  22.522   1.596   6.490 -0.0624  0.1118 -0.0336
29213W        W30077  13.052   6.817  24.382  0.1254 -0.0765  0.1596
29214W        W30078   4.145   0.244  18.242 -0.1041 -0.0729 -0.0403
29215W        W30079   3.579  17.455   7.838 -0.1515 -0.3994 -0.1332
29216W        W30080  21.724  27.586   4.581  0.1799  0.0010  0.0160
29217W        W30081  10.305   2.023  15.743 -0.0117 -0.2314 -0.0288
29218W        W30082  22.748  22.698  15.231 -0.0086  0.0776 -0.2893
29219W        W30083   9.635  17.820  13.731 -0.1786  0.0108 -0.0429
29220W        W30084  27.627   2.504  24.793  0.1653  0.0751  0.2531
29221W        W30085   9.012   2.277   8.814 -0.1877 -0.1263 -0.1032
29222W        W30086   2.531   2.632  13.448 -0.0651  0.1400  0.0738
29223W        W30087  18.728  20.152  11.458  0.1640  0.1327  0.0780
29224W        W30088  22.985  18.915  23.397 -0.0273  0.3550 -0.0066
29225W        W30089  28.063   2.834  13.774 -0.1144  0.0739 -0.0503
29226W        W30090   3.440   7.067  22.725  0.0535 -0.3838  0.0707
29227W        W30091   7.097   5.141  18.888  0.0127 -0.1072 -0.1096
29228W        W30092  16.755   2.493  14.966 -0.0768  0.3826  0.1150
29229W        W30093   1.489   3.868   4.629  0.0041 -0.0901  0.0313
29230W        W30094  11.107  21.543   2.724 -0.0123  0.0858  0.1088
29231W        W30095  27.018  18.433   4.542 -0.3496 -0.0325 -0.0460
29232W        W30096  11.278  24.968   6.766  0.2429 -0.1763 -0.0247
29233W        W30097  25.394   2.302   9.553  0.0741  0.1933  0.0245
29234W        W30098  13.137   8.452  28.947  0.0801  0.0124  0.2541
29235W        W30099   7.561   9.109  28.362 -0.0048  0.0842  0.0399
29236W        W30100  14.959  17.535   9.372  0.3618 -0.0376 -0.0070
29237W        W30101  24.051   2.383  26.049  0.0504 -0.0277 -0.0163
29238W        W30102  27.432  12.271  24.095 -0.0353  0.2070  0.1476
29239W        W30103  19.306  24.381   3.763  0.0872  0.2722 -0.0993
29240W        W30104  20.256  23.774   7.616 -0.1712  0.1145  0.3574
29241W        W30105   1.847  10.117  18.315 -0.1771  0.1797  0.0575
29242W        W30106  21.736  18.277  19.692 -0.1746  0.1269 -0.1547
29243W        W30107   6.315   4.236   4.704 -0.1732  0.0449 -0.0417
29244W        W30108   7.483   1.918  15.524  0.0762  0.2176  0.1650
29245W        W30109  24.865   1.485   2.000 -0.1238 -0.0316 -0.1017
29246W        W30110  12.303  16.652   4.850 -0.0405  0.0103  0.0349
29247W        W30111   9.093  14.686  18.044  0.0196  0.1035 -0.1412
29248W        W30112   3.878   1.581  12.570  0.1002  0.0121 -0.1555
29249W        W30113  18.202  23.492   7.201  0.0459  0.0644  0.1616
29250W        W30114   3.518  29.128  12.294 -0.1324 -0.2025  0.1924
29251W        W30115  23.397  25.122  18.629 -0.3119  0.2133 -0.1755
29252W        W30116   5.607  26.549  12.658 -0.1338 -0.2784  0.0777
29253W        W30117  21.132   3.878  22.730 -0.0634  0.1923 -0.0984
29254W        W30118  20.263  10.445  28.121 -0.0666  0.1020 -0.2128
29255W        W30119  23.734   5.611   3.771  0.4221 -0.1500  0.0858
29256W        W30120  17.147  22.004  24.753 -0.0009  0.1003  0.2487
29257W        W30121  23.084  22.192   2.601  0.1298 -0.5032  0.1473
29258W        W30122  14.272   4.949  14.613  0.0443 -0.1789 -0.0222
29259W        W30123  18.245   9.398   6.066  0.2834  0.2856 -0.2022
29260W        W30124  11.243  12.176   5.678  0.2833  0.1893  0.2082
29261W        W30125  14.341   1.302  16.618 -0.0251  0.0038  0.2022
29262W        W30126   7.648   0.896  23.615 -0.2846  0.1518  0.0019
29263W        W30127   6.874   0.171  26.544 -0.1281 -0.2763  0.0988
29264W        W30128   7.069   6.254   4.565  0.1404  0.0397  0.3937
29265W        W30129  15.044  12.862   7.837  0.0118  0.3762 -0.0473
29266W        W30130  20.953  17.911  13.736 -0.2468 -0.0384 -0.0582
29267W        W30131  22.411  13.231  13.249  0.0950  0.0924 -0.1716
29268W        W30132   7.294  21.030   1.380 -0.2225  0.2406  0.1329
29269W        W30133  13.252  10.214   6.877 -0.1610  0.1148  0.0527
29270W        W30134   0.491  13.068   2.832 -0.0268  0.0646  0.0345
29271W        W30135  27.080  20.813  25.184  0.1893  0.2982 -0.3469
29272W        W30136  11.415  17.403   1.264 -0.3260 -0.1827 -0.2563
29273W        W30137  16.793  10.737  15.661 -0.0460 -0.0199  0.1166
29274W        W30138   2.654  20.611  19.343  0.1832 -0.1121  0.1225
29275W        W30139   2.932   0.878  21.958  0.0247  0.0226 -0.0399
29276W        W30140   7.769   4.899   9.965  0.2620  0.0281 -0.0024
29277W        W30141   1.888  18.883   5.033 -0.0784 -0.3588  0.2031
29278W        W30142  21.674   4.343  19.023 -0.3348 -0.1754  0.3363
29279W        W30143  16.890   7.110  21.788  0.0854 -0.1655 -0.0818
29280W        W30144  11.507  16.111  15.891 -0.4731  0.1419  0.1626
29281W        W30145   2.089  16.550  20.798  0.2241  0.1192  0.1974
29282W        W30146  20.204  20.103  12.568  0.1000  0.0310 -0.1113
29283W        W30147  23.618  13.202  12.140  0.4040  0.1169 -0.1038
29284W        W30148  28.307   8.015  28.141 -0.2089  0.2179  0.2456
29285W        W30149  15.587  20.012  11.652  0.3289  0.0542  0.1233
29286W        W30150  28.235   6.120  10.591 -0.1068  0.0330  0.1132
29287W        W30151   3.464  23.852  23.416  0.0538  0.0470 -0.1993
29288W        W30152  23.639  14.604   7.129 -0.0017  0.0773 -0.0285
29289W        W30153  28.484  26.274  12.774  0.1338 -0.0485  0.1519
29290W        W30154  28.106  28.929  23.286 -0.3032  0.1643 -0.0422
29291W        W30155   8.806  24.203   4.122 -0.0780 -0.2705  0.0450
29292W        W30156  20.235  13.358  20.346  0.0667 -0.1618 -0.4868
29293W        W30157  10.619   9.265  20.193  0.3875  0.0320  0.1581
29294W        W30158   2.573   1.305  11.968  0.0973  0.1125  0.1185
29295W        W30159  13.272  28.459   7.430 -0.1519  0.1647  0.1430
29296W        W30160  16.578   2.655  15.437 -0.2435  0.2806 -0.2591
29297W        W30161   2.579  27.655  22.562  0.1228  0.1889 -0.0774
29298W        W30162  13.770  26.155  16.631  0.0180 -0.2714 -0.0128
29299W        W30163   1.920  11.921  18.914  0.2505  0.0177 -0.1924
29300W        W30164  13.849   6.970   3.536 -0.1432 -0.3100  0.0381
29301W        W30165   6.735  24.416  23.940 -0.0531 -0.2413  0.0193
29302W        W30166  11.792   9.412  13.619 -0.1275  0.0367  0.2950
29303W        W30167  23.270  10.588  12.693 -0.1970  0.2289  0.0208
29304W        W30168  29.028   1.854   9.250 -0.1424 -0.1497  0.0686
29305W        W30169  18.049   8.381  14.925  0.1626 -0.2057  0.0555
29306W        W30170  18.415  15.684  21.221  0.1794 -0.0005  0.0871
29307W        W30171  27.887  22.574  13.866  0.1203  0.2370  0.0287
29308W        W30172  18.201  23.675   5.855 -0.2397  0.0168 -0.0670
29309W        W30173  25.285  11.194  13.017 -0.2762  0.0070 -0.0740
29310W        W30174  27.218  18.332  18.019  0.0052  0.1120  0.4015
29311W        W30175  15.436  23.877  22.427 -0.1921  0.2336  0.2739
29312W        W30176  20.935  26.741   6.497 -0.4886 -0.1119 -0.3160
29313W        W30177  16.117  28.604  22.080 -0.1217 -0.1488  0.1840
29314W        W30178  19.818  10.941  21.387  0.2056  0.0997 -0.1734
29315W        W30179  18.966  23.306  15.397 -0.0407 -0.1347 -0.1485
29316W        W30180   3.219   5.764   1.473 -0.3351 -0.0136  0.3491
29317W        W30181   6.452   9.960   6.030  0.1805  0.2107 -0.0598
29318W        W30182  12.692  25.103  21.973  0.3267 -0.1819  0.1278
29319W        W30183   1.413   5.385  10.025 -0.0272  0.0389 -0.1837
29320W        W30184   9.961  22.104  12.994 -0.1311 -0.1747 -0.0146
29321W        W30185  20.957  11.691  24.954 -0.3901 -0.0405 -0.3145
29322W        W30186  28.141  27.600  18.124 -0.1425 -0.1069  0.1111
29323W        W30187  15.158  28.482  16.806 -0.0822 -0.3082  0.2295
29324W        W30188   0.139   9.703  26.203 -0.1542  0.0384  0.1694
29325W        W30189  21.373   9.465   9.989  0.0707  0.2618 -0.2082
29326W        W30190  19.202   2.950  25.534  0.2118 -0.1008  0.0990
29327W        W30191  11.374  19.165  21.835 -0.0627  0.0102 -0.0195
29328W        W30192  10.588   9.910   3.022 -0.1882 -0.0347 -0.1494
29329W        W30193  22.437  23.154  26.680 -0.1363  0.3278 -0.0069
29330W        W30194  25.509  17.839  19.638 -0.0806 -0.0954 -0.0297
29331W        W30195   1.654   8.250  16.372  0.0298  0.3122 -0.0578
29332W        W30196  22.345  24.088  16.374 -0.2899 -0.0046 -0.0278
29333W        W30197  21.251  24.495  17.473  0.0230 -0.0241 -0.2502
29334W        W30198  26.057  24.863   8.785  0.2255  0.2018  0.0144
29335W        W30199  21.692   9.830  21.060  0.0182 -0.1480  0.4036
29336W        W30200   9.865  24.719  27.591 -0.3995 -0.2137  0.0085
29337W        W30201  22.273  14.923  22.413  0.0600  0.4572 -0.0546
29338W        W30202  14.730  28.687   6.820 -0.1143 -0.0124  0.3585
29339W        W30203  26.017  18.010  22.446  0.2068 -0.0570  0.1825
29340W        W30204  15.628  19.086   4.980  0.3965  0.0433  0.4677
29341W        W30205   9.710  25.622   6.109 -0.1476 -0.1291 -0.2003
29342W        W30206   9.028  25.694   2.158 -0.2711 -0.3322  0.3548
29343W        W30207  25.355   9.588  12.000 -0.0664  0.3042  0.0342
29344W        W30208  22.922   1.379  14.024  0.2321  0.1219  0.0748
29345W        W30209  16.205  16.459  15.235 -0.1286 -0.0997 -0.1773
29346W        W30210  26.285  25.809   6.628 -0.0581  0.1622 -0.0036
29347W        W30211  28.181   3.194   2.477  0.1371 -0.1746 -0.0852
29348W        W30212   6.989  25.941  11.527  0.1420  0.0143 -0.1400
29349W        W30213  22.138   0.083  19.699  0.1499  0.0395  0.1149
29350W        W30214   3.059   4.326  20.305 -0.1391  0.1997 -0.1196
29351W        W30215  14.094  11.317  28.213 -0.0490  0.2568 -0.0148
29352W        W30216   4.222  12.205  18.808  0.1396  0.0541 -0.0222
29353W        W30217  15.402  28.765  14.920 -0.1843  0.1491 -0.1428
29354W        W30218  14.994  21.299  16.005 -0.1035 -0.3379  0.0729
29355W        W30219  22.175   6.075  23.144 -0.1099 -0.1259 -0.2934
29356W        W30220  13.984  19.254  13.858 -0.1138  0.2707  0.0768
29357W        W30221   8.161  10.757  10.975  0.1962  0.0764  0.0737
29358W        W30222  19.561   0.031  12.849 -0.3259  0.2135 -0.0508
29359W        W30223   7.626   4.904   5.024  0.0544 -0.0617 -0.1238
29360W        W30224  22.061  27.537  19.871 -0.2471 -0.1608  0.0149
29361W        W30225   4.650  26.004  20.074 -0.2118 -0.2109  0.0656
29362W        W30226  25.848   8.077  18.354 -0.1813  0.0876 -0.0368
29363W        W30227   4.303   1.209  19.958 -0.2058 -0.0735  0.0575
29364W        W30228  16.361  19.713   2.192 -0.0115 -0.1849 -0.1299
29365W        W30229  16.497   8.916  13.369 -0.2398  0.0573 -0.1021
29366W        W30230  23.130   6.021  13.215 -0.0427  0.3602 -0.2587
29367W        W30231  17.761  21.402  13.791  0.1825 -0.1660  0.1275
29368W        W30232  20.082   7.163  25.515  0.1006 -0.0094  0.1179
29369W        W30233  23.224  19.784  17.156  0.2751  0.2126 -0.0714
29370W        W30234  22.200   6.873  24.336 -0.0444 -0.2075  0.3095
29371W        W30235  17.869   6.590   7.784  0.0880  0.0183  0.1328
29372W        W30236   8.248   7.967  20.671 -0.0267  0.0796 -0.1130
29373W        W30237  25.270  24.142  20.752  0.2351  0.1399 -0.0890
29374W        W30238  22.148  21.254   5.149 -0.2445  0.2263  0.1692
29375W        W30239  15.767  24.476   5.482 -0.2118  0.0361 -0.1533
29376W        W30240  25.066   8.935  27.580  0.1199 -0.1023  0.1633
29377W        W30241   9.343  22.784  10.974 -0.0352  0.0740 -0.1693
29378W        W30242  22.898  14.186   9.932  0.2750  0.1533 -0.2332
29379W        W30243  21.954   4.965   7.934  0.0117  0.2207  0.0230
29380W        W30244  25.485   9.330   1.118  0.2039 -0.0804 -0.0219
29381W        W30245  16.359   1.744  19.560  0.1250 -0.0847 -0.0052
29382W        W30246  28.030  24.460   1.170 -0.1804 -0.1494 -0.0059
29383W        W30247  10.677  15.587  12.521 -0.4307 -0.0968 -0.0656
29384W        W30248  21.005  13.635  22.361 -0.0575  0.2730 -0.0037
29385W        W30249  22.485  15.336  12.929  0.1666  0.1331 -0.0628
29386W        W30250   0.309   4.643  10.351  0.1124 -0.0408 -0.1342
29387W        W30251  27.445  26.183  12.659  0.1085 -0.1642 -0.0980
29388W        W30252   3.099   8.052  17.875  0.0759  0.0603 -0.0345
29389W        W30253   0.217  21.366  26.184 -0.0160 -0.0228 -0.0578
29390W        W30254  10.836  16.385   7.701  0.1962  0.0268  0.2033
29391W        W30255   5.568  26.704  26.421 -0.1593  0.2384  0.1037
29392W        W30256   3.449  12.381   3.515  0.1802 -0.2789 -0.1949
29393W        W30257  16.675  16.686  21.139  0.2932  0.2807  0.1486
29394W        W30258   9.147  19.484   6.577 -0.2045 -0.0703 -0.0176
29395W        W30259   4.733   8.982   8.239  0.3952  0.0054  0.2126
29396W        W30260  25.550   4.498  19.067  0.1915 -0.4333  0.1042
29397W        W30261  21.337  16.278  10.316  0.1748  0.0765  0.1419
29398W        W30262   5.257  27.178  16.603 -0.0663 -0.3594  0.0307
29399W        W30263  27.511  15.729  19.852 -0.2845  0.0659 -0.0073
29400W        W30264  27.164   6.635  15.585 -0.1825 -0.0168 -0.0406
29401W        W30265  28.511  24.102  15.269 -0.1105  0.0360 -0.1055
29402W        W30266   2.886  11.558   7.850  0.2130 -0.1143  0.1181
29403W        W30267  21.637  10.460  10.401  0.1840 -0.2250 -0.2711
29404W        W30268  18.562   7.846  17.172 -0.0754 -0.0948 -0.0337
29405W        W30269  20.558  22.985  13.548  0.1615 -0.1346 -0.1341
29406W        W30270  23.697   1.165   9.899 -0.1949  0.1349 -0.1333
29407W        W30271  28.888  12.766  18.151  0.0936 -0.0063 -0.0300
29408W        W30272  11.864   7.842  10.678 -0.1677 -0.1445  0.0608
29409W        W30273  21.669  13.129   0.621  0.0585  0.0988  0.0915
29410W        W30274   6.644  24.333   3.041 -0.1300 -0.0482 -0.2566
29411W        W30275  13.248   9.089  26.075  0.1488  0.2018  0.0239
29412W        W30276  19.029   1.598   9.264  0.1528  0.0194  0.4936
29413W        W30277  10.950  28.918   7.200  0.3180  0.2174  0.2914
29414W        W30278  15.899  27.904  16.570  0.1737  0.1810  0.3350
29415W        W30279  13.999  18.032   9.427  0.0498 -0.1856  0.1986
29416W        W30280  17.300  16.781  27.735 -0.1607 -0.1284 -0.0045
29417W        W30281  24.194  11.698  10.418 -0.0500  0.1880 -0.0053
29418W        W30282   7.724  23.465  24.920  0.1051 -0.0694  0.1829
29419W        W30283  15.074  21.199  11.038  0.1897  0.2899 -0.1025
29420W        W30284  15.750  16.502  24.777 -0.1682  0.0637 -0.0567
29421W        W30285  23.885  28.829  21.869 -0.2202  0.1486  0.0088
29422W        W30286  21.986   1.087  10.605  0.0281  0.5041  0.0026
29423W        W30287   2.764   4.914  24.926  0.1037  0.2170 -0.0939
29424W        W30288  24.114  13.383  15.936  0.0617 -0.1260  0.0018
29425W        W30289  22.644  10.230   2.417 -0.1147  0.2051 -0.3636
29426W        W30290  13.949   3.194  13.723  0.2997 -0.0760 -0.2829
29427W        W30291  19.567  27.071  14.036 -0.1580  0.3780 -0.0671
29428W        W30292   6.586   5.212   8.605  0.0590 -0.3652  0.0625
29429W        W30293  19.572   2.328  12.121  0.0799  0.3479  0.0831
29430W        W30294  14.357  23.528   9.592  0.0119 -0.0443 -0.1825
29431W        W30295   8.109  27.678  13.529  0.1568  0.2930  0.2226
29432W        W30296   8.434  27.726   1.867 -0.1144 -0.1977  0.1994
29433W        W30297  15.335   6.051   5.717 -0.0008  0.4310  0.3083
29434W        W30298  15.313   8.400  27.456 -0.0735 -0.1012 -0.0499
29435W        W30299  26.971  23.742  12.913 -0.1596  0.0575  0.1172
29436W        W30300  16.843   1.439  19.814  0.0038  0.0459 -0.0491
29437W        W30301   1.676   2.118  22.731  0.0431 -0.0004 -0.0263
29438W        W30302  14.380   6.440   9.471  0.2550  0.1057 -0.0296
29439W        W30303  26.360   5.101  13.014  0.1775  0.1039  0.1853
29440W        W30304  13.502   9.942   0.821 -0.1168 -0.0055 -0.3095
29441W        W30305   3.228   5.641   9.964  0.0230  0.1001 -0.0612
29442W        W30306   2.134   0.242   6.515 -0.2206  0.1978 -0.1393
29443W        W30307   6.055   0.369  16.616 -0.1976  0.0454 -0.0830
29444W        W30308  24.561   8.358   3.835 -0.0807 -0.0787 -0.3872
29445W        W30309   0.157  14.072   4.574  0.1380 -0.0376  0.4416
29446W        W30310  17.181  26.523  20.297 -0.2332  0.1999 -0.1819
29447W        W30311   9.475  19.990  11.354 -0.0444  0.0616 -0.1683
29448W        W30312  17.625   4.209   1.644  0.0378  0.1655 -0.2266
29449W        W30313  13.198  13.219   5.458 -0.1503  0.0549 -0.0743
29450W        W30314  10.673  27.886  13.390 -0.0476 -0.2521  0.4827
29451W        W30315  13.628   5.376   2.337 -0.1470 -0.1080 -0.2277
29452W        W30316  12.462  16.727  11.325  0.1160  0.0855  0.1298
29453W        W30317  24.930  26.863  26.631  0.1159 -0.2713  0.0184
29454W        W30318  12.007   5.318   9.679 -0.0646 -0.0167 -0.2691
29455W        W30319   8.511   7.758  14.259  0.0711 -0.0239  0.4659
29456W        W30320  28.164   2.360  20.914  0.4042  0.0798  0.2224
29457W        W30321  24.539  10.802  12.530  0.0498  0.0929  0.0822
29458W        W30322  28.241  11.285   6.616 -0.1222 -0.3087  0.0577
29459W        W30323  11.096   2.743  12.494  0.0942  0.2294 -0.0933
29460W        W30324   8.400   4.761   7.122 -0.0671  0.0869 -0.2045
29461W        W30325  19.486  16.883  23.714  0.1112 -0.2282 -0.1826
29462W        W30326   7.791   1.026  21.995 -0.5154 -0.1397  0.4291
29463W        W30327  17.725  12.946   2.074  0.2893  0.1642  0.1930
29464W        W30328  24.210   9.062   3.557  0.2292 -0.0126  0.1785
29465W        W30329  23.513   3.084   0.252  0.3396  0.0078  0.0464
29466W        W30330  21.770   8.700  27.610 -0.1295 -0.2818  0.1511
29467W        W30331  27.868  21.733  15.567  0.1706 -0.1861  0.0087
29468W        W30332  27.296  27.833  19.331 -0.2634  0.1441 -0.1743
29469W        W30333   5.513  20.496  24.193 -0.2606 -0.2240  0.1172
29470W        W30334  18.240  22.392  18.125  0.0106  0.0551 -0.2409
29471W        W30335  17.545  21.449   7.345  0.1873 -0.0153 -0.3842
29472W        W30336  18.532  25.708  15.961  0.0640  0.3424 -0.0817
29473W        W30337   7.856   6.241   2.186 -0.0181 -0.2528 -0.3014
29474W        W30338  13.417   4.056  20.665 -0.1350  0.0602  0.1226
29475W        W30339  25.641  26.870  15.630 -0.1271 -0.2220 -0.1664
29476W        W30340  15.249   9.158  13.722  0.7181  0.1370  0.1012
29477W        W30341  11.263  18.042  21.311 -0.2123 -0.2112  0.0586
29478W        W30342  13.691   6.247  12.015  0.1653  0.2257  0.1266
29479W        W30343  19.462   8.494  28.575  0.2511  0.1431 -0.1926
29480W        W30344  23.965  28.445   4.496 -0.0332  0.0213 -0.1267
29481W        W30345  22.512  28.481  23.110  0.3074 -0.0756  0.3561
29482W        W30346  17.712   5.302   1.620  0.2175  0.0905  0.1006
29483W        W30347  12.907   8.754   8.316  0.0586 -0.0044 -0.0410
29484W        W30348  13.384  17.703  23.489 -0.0224 -0.1706  0.1612
29485W        W30349  26.583  24.609   9.757 -0.0711 -0.0764  0.0845
29486W        W30350  28.785   0.744  25.368 -0.1909 -0.4181 -0.1135
29487W        W30351  17.890  23.177   9.758  0.1405  0.1935 -0.2154
29488W        W30352  10.478   0.744  10.326  0.2558 -0.0263  0.0113
29489W        W30353   9.442   9.346  14.504  0.2755  0.0513  0.0394
29490W        W30354  10.819  16.161  13.676 -0.3067  0.1710  0.2205
29491W        W30355  21.472  23.420  15.757 -0.0979 -0.0752  0.0816
29492W        W30356   0.778   2.183  16.042  0.3354  0.1598  0.0058
29493W        W30357  13.079  18.674  28.261 -0.1309  0.1886  0.1337
29494W        W30358   9.471   9.922   7.440 -0.1337  0.1527 -0.2121
29495W        W30359   9.320  24.399  21.688  0.1163 -0.0078 -0.4155
29496W        W30360  23.162  21.566  12.607  0.2938 -0.1206 -0.1104
29497W        W30361  23.395  21.189  23.813 -0.0830  0.0826  0.0341
29498W        W30362   3.687   7.297  16.171 -0.0766  0.4516 -0.0044
29499W        W30363  23.308  24.109  20.614 -0.1118  0.2093 -0.3428
29500W        W30364  20.498  13.487  10.738 -0.2785 -0.0526 -0.0708
29501W        W30365   9.540   7.278  18.823  0.0335  0.0028 -0.0679
29502W        W30366  28.862   9.048   1.033 -0.1289  0.0509  0.0257
29503W        W30367  23.187  16.084   1.533 -0.0666  0.0546  0.2237
29504W        W30368  22.483  12.243  19.137 -0.1553  0.1113  0.0973
29505W        W30369  12.377  22.233  10.244 -0.0916 -0.0199 -0.3861
29506W        W30370  24.204  18.255  19.203 -0.2531  0.1884 -0.1909
29507W        W30371  14.191  14.415  28.855 -0.1128  0.3007 -0.3377
29508W        W30372  11.204  22.884  20.974 -0.0924  0.1285  0.0497
29509W        W30373  22.776  27.082  10.426 -0.1323 -0.0224  0.1820
29510W        W30374  12.506   5.301  22.235 -0.3815  0.0293 -0.2068
29511W        W30375  13.644  10.635  23.541 -0.0697 -0.3403 -0.0610
29512W        W30376  18.638  16.320   3.775 -0.0847 -0.3819 -0.2997
29513W        W30377  16.691   3.884  18.497  0.1897 -0.0268  0.1732
29514W        W30378  19.598  22.238  22.713 -0.0511 -0.2785  0.0215
29515W        W30379  28.055  17.612  28.707  0.3214 -0.0019  0.3653
29516W        W30380  28.777   8.329  12.106 -0.0536 -0.1094  0.0835
29517W        W30381  13.046  12.541  20.605 -0.0433  0.1047 -0.0262
29518W        W30382  19.995  28.638   4.104 -0.3234  0.0195 -0.0802
29519W        W30383   4.174   1.909   2.445  0.0422  0.0661  0.0730
29520W        W30384  14.315  24.977  19.295 -0.1622 -0.2525  0.0589
29521W        W30385  14.272   8.586   9.792  0.1903 -0.0535  0.0693
29522W        W30386   5.475  21.736   2.685  0.0234 -0.0311 -0.0218
29523W        W30387  22.102  21.066   9.907  0.2007  0.1499  0.0982
29524W        W30388  21.903  15.952  22.489 -0.4447  0.1378  0.1295
29525W        W30389  12.234   9.331  10.554  0.0715 -0.0362 -0.0294
29526W        W30390  12.625   0.256  20.856  0.0621 -0.0303 -0.1398
29527W        W30391  18.477  28.578  27.509  0.1122 -0.1290  0.0800
29528W        W30392   4.823   9.724  16.285  0.2803  0.2069 -0.1933
29529W        W30393   1.870  15.199  17.366 -0.1044 -0.0488 -0.1143
29530W        W30394  23.189  14.400  10.299 -0.2968  0.1628  0.1802
29531W        W30395  25.100  12.337  27.823 -0.2292  0.4652  0.1692
29532W        W30396   9.279  11.668  16.216 -0.0244  0.0592 -0.1206
29533W        W30397   9.119  19.446   9.708 -0.0689 -0.1409 -0.0876
29534W        W30398  29.048   9.607  10.731 -0.0119  0.2165  0.1474
29535W        W30399  22.777  23.949   3.116  0.3797  0.0327 -0.1840
29536W        W30400  20.621  25.970   0.905 -0.2440  0.3596  0.1203
29537W        W30401  19.314  12.028  18.385  0.0953  0.1466 -0.1394
29538W        W30402  15.879  10.129   6.400  0.2037 -0.2534 -0.1436
29539W        W30403   0.098  29.124  26.373  0.0816 -0.0508 -0.3854
29540W        W30404   3.949  13.582   1.533  0.1967  0.1126  0.0166
29541W        W30405   5.158   8.858   3.813 -0.2025  0.3417  0.2624
29542W        W30406  13.374   6.354   9.075  0.1271  0.2591  0.2778
29543W        W30407  10.176   5.126   5.861  0.1998 -0.1278  0.1180
29544W        W30408  14.989   3.412  13.251 -0.2058  0.2835 -0.2832
29545W        W30409  13.009  27.598   6.142  0.1420  0.3034  0.0084
29546W        W30410  11.989  14.660  28.178  0.0430  0.1612  0.3956
29547W        W30411  21.239  13.559  28.223 -0.1820  0.1499 -0.1958
29548W        W30412   7.175  27.998   5.822  0.0477 -0.0311 -0.1328
29549W        W30413  17.149   2.163   4.048  0.1052 -0.1988 -0.1172
29550W        W30414  17.528  16.738  18.723 -0.0133  0.4274  0.2533
29551W        W30415  17.705  10.830  11.201 -0.0448  0.1198 -0.0894
29552W        W30416  25.126  11.913  20.634 -0.1230  0.3047  0.4017
29553W        W30417   6.951  14.623  15.331 -0.0772  0.1185  0.1221
29554W        W30418  24.771  13.804  13.028  0.0633  0.2967 -0.0858
29555W        W30419   2.973  20.224  17.093  0.0360  0.2683 -0.0196
29556W        W30420  22.461  26.589  20.372 -0.0992  0.1524  0.3420
29557W        W30421  16.775   3.839  16.578  0.3034 -0.2551 -0.0556
29558W        W30422   9.805   6.809  12.476 -0.1288 -0.1535  0.3885
29559W        W30423   5.332  13.381  26.165 -0.0033 -0.0823 -0.1631
29560W        W30424   9.812  18.401   5.920  0.1249  0.2245  0.1340
29561W        W30425   8.231  28.648  12.509  0.2318  0.1600 -0.3429
29562W        W30426  15.992  10.923  27.927  0.0498 -0.0452  0.0801
29563W        W30427   2.152  28.126   9.592 -0.2590 -0.0934  0.4646
29564W        W30428  27.334   8.691  10.980 -0.2052  0.1842  0.0493
29565W        W30429   3.601  22.353   9.978 -0.0770  0.1687 -0.1901
29566W        W30430  15.510   3.208  26.358 -0.0044  0.1456 -0.2521
29567W        W30431  20.648  24.391   3.879  0.0619 -0.2124 -0.0361
29568W        W30432   3.029  19.800  23.679  0.1855 -0.0315 -0.1788
29569W        W30433  26.817  13.949  12.989  0.0385 -0.1720 -0.0352
29570W        W30434  22.618  14.118  17.910 -0.3296  0.1255 -0.1800
29571W        W30435  27.971  14.603  18.210  0.1546 -0.1948 -0.1645
29572W        W30436   1.051   4.060  15.885 -0.1484  0.0125 -0.0919
29573W        W30437  15.320  19.679   0.842  0.0526 -0.1017 -0.1077
29574W        W30438   6.984  27.031  27.960  0.0903  0.0849 -0.0322
29575W        W30439   0.443  10.889  13.987  0.2157  0.1166 -0.1593
29576W        W30440  16.821  12.766   2.279 -0.3061  0.1291 -0.2117
29577W        W30441   9.234  28.763  22.566 -0.2565  0.2428 -0.3249
29578W        W30442  20.503   2.909  23.220 -0.0547 -0.0040  0.0809
29579W        W30443  27.311  10.984  16.894 -0.4996  0.0603  0.2139
29580W        W30444  21.340   1.881   7.572 -0.1324 -0.2349 -0.1890
29581W        W30445   1.572  24.027  19.130 -0.2399  0.2537 -0.2151
29582W        W30446   4.051   7.404  26.962  0.1912  0.0151  0.1829
29583W        W30447  14.663   4.952  18.555  0.0085 -0.0594 -0.0977
29584W        W30448  24.215   9.407  28.650 -0.0107 -0.0513  0.0926
29585W        W30449  21.854   9.425  12.358 -0.2418  0.2091  0.2097
29586W        W30450   6.202  19.418  21.254 -0.1212 -0.0612 -0.1754
29587W        W30451  25.637  10.922  25.050 -0.0013 -0.1127 -0.0870
29588W        W30452  21.911   4.902  20.067 -0.1539 -0.2496 -0.0481
29589W        W30453  16.314   7.260  22.962  0.1388 -0.3761 -0.2065
29590W        W30454   7.951   6.887  20.711  0.3131 -0.1122 -0.0118
29591W        W30455  14.552  14.066  12.814  0.0595 -0.0563  0.2125
29592W        W30456  22.873  18.577   0.835 -0.0436  0.1188 -0.3552
29593W        W30457  11.183   0.994  21.401  0.1874  0.1553  0.0200
29594W        W30458  29.063   1.549  15.623 -0.1312 -0.3242 -0.0491
29595W        W30459   5.459   4.451   6.440  0.0006  0.1009 -0.1203
29596W        W30460  25.030  24.060  18.262  0.2001  0.0275  0.0028
29597W        W30461  16.166   4.758   8.725  0.4880 -0.1080 -0.1829
29598W        W30462  16.068  25.655  15.266  0.1231  0.2290 -0.1673
29599W        W30463  11.715   8.742   5.580  0.0132  0.2146 -0.2129
29600W        W30464  16.125  17.166  22.610  0.0621 -0.0189  0.0535
29601W        W30465  27.479  24.330  11.202  0.3413  0.3152 -0.2966
29602W        W30466  24.544  20.416  28.297 -0.1502 -0.1666 -0.1382
29603W        W30467  11.461  12.867   0.171 -0.0975 -0.2855 -0.0182
29604W        W30468  10.058  25.710   9.354  0.0306  0.1084 -0.3717
29605W        W30469  11.512   6.472  11.217  0.1828 -0.0023 -0.1834
29606W        W30470  16.854   0.962  19.591  0.3501  0.0308  0.1910
29607W        W30471   1.480   4.374  11.260  0.0382  0.2857  0.1255
29608W        W30472   5.268   7.266   9.550  0.0160  0.4687  0.0724
29609W        W30473   6.794  23.436   2.533 -0.0775  0.0491  0.1558
29610W        W30474  17.694  22.297  20.090  0.0063  0.2905  0.1774
29611W        W30475  20.379  25.262  13.927 -0.0868  0.3577  0.0397
29612W        W30476  20.521  21.550  16.033 -0.1135 -0.0813 -0.2552
29613W        W30477  24.179   2.960  16.544  0.0227 -0.0703  0.2585
29614W        W30478  16.444  19.928  11.698 -0.1122 -0.1048  0.2620
29615W        W30479  20.831  27.406   4.506  0.0075 -0.3189 -0.0333
29616W        W30480  16.229  25.037  12.377  0.2440  0.0035  0.1725
29617W        W30481  26.516  25.260  10.192  0.2354  0.0072 -0.1547
29618W        W30482  23.214   0.427   9.329  0.1721 -0.1556  0.0446
29619W        W30483   7.151  15.504  13.831  0.2183 -0.0093 -0.0312
29620W        W30484   0.334  12.391  27.969 -0.0801 -0.1568  0.0877
29621W        W30485  26.657  26.438  23.716  0.1300 -0.0296 -0.0499
29622W        W30486   9.509   6.425  17.127 -0.1140 -0.1556 -0.1010
29623W        W30487  18.970  24.084   8.267  0.1910  0.0132  0.1920
29624W        W30488  24.053  22.527   3.563 -0.4558  0.1135 -0.1022
29625W        W30489  22.930  20.506  14.870  0.0912  0.2147 -0.0965
29626W        W30490   1.300  24.413  24.949 -0.2183  0.0889  0.0875
29627W        W30491  13.728   3.269   7.012 -0.1282 -0.1291 -0.2310
29628W        W30492  20.696   2.567   4.583  0.0156  0.6113 -0.0148
29629W        W30493   5.461   1.325  26.879 -0.0165 -0.1503 -0.3701
29630W        W30494  21.896  27.988  17.836 -0.1011 -0.0177  0.1944
29631W        W30495  23.857  10.975  14.596  0.4869  0.0241 -0.0371
29632W        W30496  15.332  28.962   0.285 -0.0785  0.1021 -0.0991
29633W        W30497  22.812   6.803  11.607 -0.3687  0.2149 -0.1119
29634W        W30498   7.548  12.486  14.909  0.1282  0.0834  0.2476
29635W        W30499   2.041  19.812   3.777  0.0766 -0.2851 -0.0130
29636W        W30500  12.870  19.257  21.244  0.2830 -0.0396 -0.1974
29637W        W30501   3.033  17.636   8.727  0.0693 -0.3660 -0.0006
29638W        W30502  22.412  27.693  24.693  0.0588  0.3189 -0.0062
29639W        W30503  20.799   7.323  15.239 -0.2292  0.1035  0.0846
29640W        W30504  10.799   8.851  17.991  0.0203 -0.4256 -0.0266
29641W        W30505  21.487  25.966  16.934 -0.1096 -0.1977 -0.2024
29642W        W30506   1.440   8.547   5.778  0.1708  0.3263  0.1997
29643W        W30507  21.120  28.248  13.396 -0.1134  0.0618 -0.1676
29644W        W30508  26.221  11.368  22.866 -0.1883  0.0164 -0.1430
29645W        W30509  24.573   2.101  25.808 -0.5035  0.1978  0.0926
29646W        W30510  27.196  11.253   1.313  0.1431  0.2560  0.0674
29647W        W30511  17.488   9.155   2.359  0.1052  0.0708 -0.0623
29648W        W30512  18.928  19.401  18.363  0.2037 -0.2150 -0.1661
29649W        W30513  25.923   7.725  10.090 -0.0060  0.0300  0.0386
29650W        W30514  17.771  13.313  28.284 -0.1514  0.1287  0.0742
29651W        W30515  17.534  21.692   5.220 -0.0038 -0.0972  0.0216
29652W        W30516  22.416   0.465  19.939  0.2575 -0.3808  0.0060
29653W        W30517   1.187  10.792  18.653  0.4043 -0.1922  0.1259
29654W        W30518  21.470  16.454  15.980  0.0350  0.2065 -0.3183
29655W        W30519  23.787  12.018  16.348  0.1194 -0.2812  0.1824
29656W        W30520  19.483   7.587   9.309  0.2066 -0.0017  0.3952
29657W        W30521  25.963  22.477   9.224  0.3363  0.0392 -0.2060
29658W        W30522   1.739   3.371  18.773  0.1436  0.1222  0.0500
29659W        W30523  18.170  24.882  10.871 -0.0385 -0.2949 -0.1934
29660W        W30524  19.850   6.876  23.280 -0.3972 -0.3587 -0.1582
29661W        W30525  16.680  27.101   5.758 -0.0479  0.0369 -0.0830
29662W        W30526  29.138  18.548  18.938 -0.2549 -0.3469  0.0373
29663W        W30527   7.612   8.320  18.618  0.2597  0.1389  0.0002
29664W        W30528  21.911  21.639  22.818  0.0495  0.1277 -0.0931
29665W        W30529   2.318  21.025  12.942  0.2439  0.0165  0.0513
29666W        W30530  18.731  19.739   6.027 -0.1844  0.1031  0.1543
29667W        W30531  19.934  10.120  24.498 -0.0402 -0.0087  0.0238
29668W        W30532  20.547  20.722  21.706  0.1388  0.2875 -0.3359
29669W        W30533  21.736   0.027   1.418  0.1952  0.0630  0.0383
29670W        W30534  26.233   6.049   3.024 -0.1093 -0.1190 -0.0183
29671W        W30535  28.413   0.667  11.583  0.1844 -0.2541  0.0251
29672W        W30536  20.941  25.320  20.944  0.0295 -0.1528 -0.3850
29673W        W30537   7.359  27.943  18.864 -0.0916  0.0096 -0.0901
29674W        W30538   0.692  15.258  11.209  0.0973  0.0434  0.1280
29675W        W30539   4.896  26.834  18.936 -0.0457  0.0606 -0.2201
29676W        W30540   9.032  11.722   8.662  0.0672  0.0344  0.1769
29677W        W30541  18.809  20.874  26.773  0.0404  0.1106  0.0595
29678W        W30542   5.933   6.008  25.976  0.0979 -0.1332 -0.0986
29679W        W30543  21.304  27.797   0.274 -0.2549 -0.1418 -0.1936
29680W        W30544   2.041  15.796  11.444  0.0606 -0.1082  0.1874
29681W        W30545  12.216  29.022   0.339 -0.1896  0.0425  0.0927
29682W        W30546   7.766   1.383   3.083  0.1781 -0.2881  0.1230
29683W        W30547  27.763  17.845  24.836 -0.0804 -0.1968 -0.0324
29684W        W30548  24.601   5.978  21.219  0.3704  0.3574  0.0375
29685W        W30549  19.893  25.507  15.912  0.2324  0.2799  0.1632
29686W        W30550  22.179  24.990  13.255 -0.1561 -0.1543  0.1362
29687W        W30551   1.012   4.060   0.535 -0.0640  0.2796 -0.0115
29688W        W30552   6.115  28.975  14.049  0.0731  0.1028  0.3085
29689W        W30553  21.696  20.546   4.660 -0.2280 -0.0633 -0.2905
29690W        W30554  20.383  16.783  18.755  0.0546  0.0566 -0.0547
29691W        W30555  27.939  14.831  20.657  0.0336 -0.4239 -0.0783
29692W        W30556  17.367   5.345  21.070 -0.0816 -0.1953  0.1251
29693W        W30557  18.008  22.007  23.868 -0.0022  0.2305  0.0941
29694W        W30558  24.873  13.323   1.646 -0.1036 -0.1454 -0.1935
29695W        W30559   9.062  12.846   8.207 -0.3141  0.2016  0.2637
29696W        W30560  28.403  14.787   6.597  0.2791 -0.2165 -0.1711
29697W        W30561  19.326  19.947  26.262 -0.0570 -0.3420 -0.1026
29698W        W30562  27.751  24.209   5.070 -0.0063 -0.0320 -0.0126
29699W        W30563  22.109  25.309  21.782  0.3039  0.0739  0.0040
29700W        W30564   3.234   4.008   5.006  0.1829 -0.1479  0.1642
29701W        W30565  18.428  26.851   1.930  0.1505  0.0456 -0.0300
29702W        W30566  23.140   6.661  16.199 -0.0119 -0.0584  0.2013
29703W        W30567  11.604   8.962   2.925  0.1920  0.0051 -0.1738
29704W        W30568  27.558  21.954  26.018  0.0690  0.0343 -0.1239
29705W        W30569  11.254   2.085   1.667 -0.2277 -0.1433  0.0445
29706W        W30570  18.952  12.406   1.698  0.1688 -0.2102  0.1840
29707W        W30571  15.355   9.263   8.222  0.2913  0.0224  0.0096
29708W        W30572   4.726  26.883  24.355 -0.0542  0.3249 -0.2910
29709W        W30573  14.277  11.604  17.087  0.3428 -0.1113 -0.0727
29710W        W30574  22.223  14.395  15.514 -0.3641 -0.1552  0.0466
29711W        W30575  23.005  25.919  17.479 -0.2027  0.0415  0.1133
29712W        W30576  16.172  18.776  20.399 -0.1311 -0.0618 -0.1650
29713W        W30577   0.035   0.720  28.887  0.1736  0.1825 -0.0279
29714W        W30578  16.865  21.580  25.085  0.0502  0.0263  0.0353
29715W        W30579  24.791   0.022   2.879 -0.0253 -0.0787 -0.0623
29716W        W30580  17.559  14.426  13.236  0.2964  0.1057 -0.1805
29717W        W30581  18.796   7.804  15.316  0.0291 -0.1646 -0.4285
29718W        W30582  22.645  17.485  25.276  0.2004 -0.2283  0.1209
29719W        W30583  25.221  10.874  21.254  0.1593  0.1006  0.4091
29720W        W30584  27.454  26.447  25.567  0.1207  0.3945  0.0287
29721W        W30585  19.287   7.010  15.531 -0.1182  0.0799 -0.1811
29722W        W30586  24.059  29.002  14.562 -0.2056  0.0176 -0.3221
29723W        W30587  12.436  11.949  10.376 -0.2581  0.1328  0.1055
29724W        W30588  26.516  15.693   1.236 -0.0360  0.1389 -0.2826
29725W        W30589  20.215  18.180   5.952 -0.1587  0.3002  0.1242
29726W        W30590  16.781  26.106  20.089  0.0433  0.0618 -0.1474
29727W        W30591  22.239  11.154  15.773 -0.1333 -0.0852 -0.0929
29728W        W30592  16.331  27.431   4.016  0.1318  0.1237 -0.1003
29729W        W30593  19.672  26.742   5.104  0.2227 -0.0205  0.1115
29730W        W30594  22.210   8.192   2.810  0.3163 -0.0729  0.1580
29731W        W30595   9.325  10.312  13.500 -0.2617 -0.0989  0.2612
29732W        W30596  20.483  28.870  21.794  0.0228 -0.1669  0.0425
29733W        W30597  20.484  25.703  21.761 -0.0541  0.0422  0.0299
29734W        W30598  27.125   0.338   8.452  0.1573  0.0850 -0.1381
29735W        W30599  17.395  26.755   6.104  0.1698  0.0512 -0.3528
29736W        W30600   2.789   6.984  25.325  0.0673 -0.0862  0.0438
29737W        W30601  21.892  28.159  11.180 -0.0260  0.0460  0.1025
29738W        W30602  18.511   0.869  11.238  0.0865 -0.1293  0.2237
29739W        W30603  14.048   1.730  16.878  0.0029 -0.0396 -0.2625
29740W        W30604  13.403  12.033   5.791  0.0374 -0.4619 -0.0850
29741W        W30605  24.617  16.609  24.512  0.0482 -0.1536 -0.0236
29742W        W30606  28.689  17.694  21.048 -0.0654 -0.0533 -0.1279
29743W        W30607   4.137  10.287  15.258 -0.0367  0.1211 -0.3049
29744W        W30608   2.402   9.168   8.034  0.0907 -0.1253  0.1684
29745W        W30609  24.084  25.405  16.882  0.1008  0.0127 -0.0623
29746W        W30610  20.590   0.388  25.913  0.1790  0.0150  0.1095
29747W        W30611  17.248  12.653  12.799  0.0802  0.0602 -0.0425
29748W        W30612  22.504   1.428   8.205 -0.3328 -0.2008 -0.0063
29749W        W30613   7.586   9.399   9.977 -0.0406 -0.3194 -0.0674
29750W        W30614  11.412   3.014  24.679  0.2658  0.3908 -0.1744
29751W        W30615   0.348  18.632  18.469 -0.2012 -0.2804  0.0139
29752W        W30616  28.088   0.073   0.591 -0.1866  0.2303 -0.0791
29753W        W30617   7.545   4.025  24.353  0.0543  0.1798  0.1675
29754W        W30618  26.002  13.322   5.775 -0.1588 -0.1595  0.1316
29755W        W30619  28.774  27.490  26.475  0.2635  0.1195 -0.2801
29756W        W30620   1.022   2.314   5.973 -0.0455  0.0822 -0.2999
29757W        W30621  28.712  10.712  12.617 -0.2162  0.0288 -0.2020
29758W        W30622  11.918   6.515  18.232 -0.1263  0.3795 -0.1687
29759W        W30623  24.226  18.693  10.138  0.2738  0.0106  0.2148
29760W        W30624  17.664  28.738  28.989  0.3366  0.3008  0.0320
29761W        W30625  15.036  28.557   0.736 -0.1693  0.1931  0.0308
29762W        W30626  25.290   6.735  10.893 -0.1878 -0.1701 -0.0228
29763W        W30627  22.402  28.753  23.535 -0.3806 -0.1862 -0.1655
29764W        W30628  10.952   7.881   3.777  0.2136 -0.3512  0.1251
29765W        W30629  16.075  22.149  20.860  0.1954  0.1521 -0.2425
29766W        W30630   0.297  28.138   2.536 -0.0121  0.1391 -0.2065
29767W        W30631  23.881  10.059  18.510  0.1739 -0.1484  0.1550
29768W        W30632  21.966  22.306  16.587 -0.3251 -0.0166  0.0097
29769W        W30633   4.865  15.353   0.153 -0.3889  0.0837 -0.0282
29770W        W30634   1.071  28.292  23.873  0.1797  0.0985 -0.2403
29771W        W30635  23.999   3.348  25.037  0.4038  0.2415  0.0100
29772W        W30636   5.827   9.259  23.662  0.2360 -0.1214  0.3587
29773W        W30637   8.823   6.868  26.769 -0.1108  0.3913 -0.2035
29774W        W30638  15.112  24.949   7.354 -0.0608  0.2199 -0.1912
29775W        W30639  25.468  24.635   3.752  0.1247 -0.0553 -0.3431
29776W        W30640  13.147  18.616  24.953 -0.0427  0.0199  0.2181
29777W        W30641  14.297   1.622  14.828 -0.2179  0.0862  0.3082
29778W        W30642  13.527  25.808  28.586 -0.3074 -0.1979  0.1296
29779W        W30643  11.821  23.663  22.301  0.0379 -0.0189  0.0618
29780W        W30644  16.446  12.279   9.854  0.1797 -0.0020  0.0082
29781W        W30645  18.513  24.556  15.583  0.1110  0.2366  0.1944
29782W        W30646  12.253  22.737  28.744 -0.2928 -0.2858  0.0761
29783W        W30647   1.972   1.829  23.164  0.3610 -0.0105 -0.2827
29784W        W30648  13.852  17.595  11.512  0.1833 -0.0643 -0.3023
29785W        W30649  11.210   0.549  23.587  0.0886  0.1715 -0.1137
29786W        W30650   7.869  10.726  17.741  0.0786  0.0662  0.0760
29787W        W30651  27.551   4.392  15.221 -0.2358  0.0944 -0.1212
29788W        W30652  11.860  28.816  27.751  0.2323  0.0818  0.2017
29789W        W30653  12.895   7.625  21.525  0.0633  0.0231  0.3222
29790W        W30654   0.288   8.897  12.693  0.3189  0.0604 -0.0639
29791W        W30655  17.547  19.081  11.555  0.1822  0.0158  0.1781
29792W        W30656  14.577   1.935   2.225  0.1288 -0.2281 -0.1819
29793W        W30657   0.729  14.938  18.472 -0.4611 -0.1010 -0.2273
29794W        W30658  26.385   3.955  12.357 -0.4250 -0.1257  0.1980
29795W        W30659   5.327  23.752  15.292  0.2029 -0.3785  0.2636
29796W        W30660  22.659  22.317  19.454  0.2012 -0.0988 -0.0334
29797W        W30661  18.763   2.762  22.794 -0.1076  0.0576 -0.0352
29798W        W30662  26.489  26.776  14.825  0.0025 -0.3335  0.0313
29799W        W30663  21.951  27.704  19.411 -0.2023 -0.1740  0.0861
29800W        W30664   2.760   5.176   4.989  0.1622  0.0956  0.4380
29801W        W30665   3.179   0.780  19.704  0.2955 -0.2374  0.3118
29802W        W30666  28.109  19.511  22.431  0.0195  0.1046 -0.3066
29803W        W30667  24.183   1.670  19.471 -0.0407 -0.0789 -0.0686
29804W        W30668  16.905   0.915  17.711 -0.3501  0.0123 -0.0947
29805W        W30669  25.550  27.626   2.060  0.1720  0.2885 -0.0544
29806W        W30670  26.677  10.193  14.941  0.1623  0.0026 -0.3443
29807W        W30671   3.754  27.572  18.459 -0.2664 -0.1319 -0.1635
29808W        W30672  26.633  21.051  17.937 -0.1002  0.0775 -0.3899
29809W        W30673  23.779  28.913   0.762  0.3355 -0.1194 -0.1348
29810W        W30674  23.433  27.786   3.116  0.0372 -0.1222  0.0026
29811W        W30675  14.760   1.133   0.180 -0.1582 -0.1890 -0.2114
29812W        W30676  23.527   6.503  23.709 -0.1757 -0.4603  0.0711
29813W        W30677  21.652  12.155  10.319 -0.0340  0.1668  0.2025
29814W        W30678  13.263   1.160  25.666 -0.1639  0.3451 -0.0769
29815W        W30679  21.604  21.914  16.791  0.3338 -0.0154 -0.4354
29816W        W30680  18.429  11.451   4.553 -0.0276  0.2165  0.0738
29817W        W30681  17.846   1.858  22.433 -0.0536 -0.1645  0.2679
29818W        W30682  18.331  11.056   9.360 -0.1206 -0.0587  0.0664
29819W        W30683  27.272   3.328   2.216 -0.0140 -0.1296  0.2836
29820W        W30684  23.538   2.567  18.385  0.0159 -0.1187 -0.3919
29821W        W30685  18.814   5.253  21.006  0.1212  0.2672  0.1622
29822W        W30686  11.904  25.436  24.210 -0.0607  0.0608  0.2717
29823W        W30687   1.148   1.151  19.592 -0.2201 -0.3123  0.2322
29824W        W30688  25.344  10.436  26.429  0.1366  0.1301  0.0944
29825W        W30689   5.414  18.792  18.794 -0.1414  0.0859  0.1101
29826W        W30690  20.203   9.699  11.803 -0.1785  0.4009  0.1745
29827W        W30691  20.519   6.594  19.238 -0.0425 -0.0533 -0.3050
29828W        W30692   5.537   4.339  14.678  0.2756  0.2095  0.1585
29829W        W30693  10.567   1.188  27.559  0.4692 -0.0373  0.0274
29830W        W30694   1.169  24.706   2.026  0.3007 -0.2787 -0.0493
29831W        W30695  12.790  22.436  15.018 -0.0417 -0.0775 -0.3324
29832W        W30696   4.830   5.303   1.662  0.0295  0.0383  0.1064
29833W        W30697  18.465  26.213   8.812  0.0766 -0.0410  0.0248
29834W        W30698  19.440  10.727  11.496 -0.1985  0.1638  0.1973
29835W        W30699   6.970  27.602  29.126  0.0103 -0.2408 -0.0496
29836W        W30700  22.209  24.557  20.473  0.0206 -0.0435  0.3390
29837W        W30701  20.449  18.544  16.730  0.2003  0.1914  0.0788
29838W        W30702  20.998  26.082  17.061  0.0410  0.1638  0.1313
29839W        W30703  21.095   2.205  11.426  0.1749  0.2991 -0.0720
29840W        W30704   2.271   7.025  19.866  0.1278  0.3415 -0.1888
29841W        W30705  14.531  10.046  12.357  0.0143  0.0276  0.1854
29842W        W30706  18.948  13.488  23.870 -0.2303  0.1018  0.0910
29843W        W30707  17.143  29.006  11.014  0.3505  0.0181 -0.1803
29844W        W30708   2.066  13.842  22.089  0.2170 -0.0661 -0.0799
29845W        W30709  10.992  24.675  18.752  0.1623  0.2088 -0.2458
29846W        W30710  23.602  15.787  10.644  0.1485  0.0287 -0.2688
29847W        W30711  13.080  13.735  25.474  0.4338 -0.1815 -0.0017
29848W        W30712  18.465   3.089  13.408 -0.0837  0.0664 -0.2798
29849W        W30713  14.847  25.954  22.624 -0.1001  0.1231 -0.2361
29850W        W30714   5.437  28.368  18.924  0.2492  0.1103  0.0421
29851W        W30715   5.141  20.321  13.732 -0.2492 -0.0455 -0.0054
29852W        W30716  15.179   3.227  20.525 -0.0119  0.0352  0.4698
29853W        W30717  26.961   3.066  15.523 -0.0190  0.2150 -0.0091
29854W        W30718  13.678  19.751   9.409  0.2617 -0.2060  0.0643
29855W        W30719  25.050   8.352  10.834 -0.0452 -0.1630 -0.0712
29856W        W30720  24.626  23.218  28.527  0.2299 -0.1068 -0.2011
29857W        W30721  18.023  27.236  21.234  0.1742  0.1268  0.1085
29858W        W30722  17.824   0.242   5.356  0.0331 -0.0041  0.0211
29859W        W30723  26.799   4.071  21.667 -0.1033  0.1056 -0.2270
29860W        W30724  11.671   7.915  13.624  0.0868 -0.2096  0.1999
29861W        W30725  22.468   6.198  16.811  0.1132 -0.1742 -0.0340
29862W        W30726  12.896   4.596  17.895  0.0265 -0.4728  0.3486
29863W        W30727   9.756  14.449  26.706  0.0237 -0.0974  0.1797
29864W        W30728  25.366   8.508  27.032 -0.1059 -0.2861  0.3852
29865W        W30729  20.924   1.919   4.657  0.0919 -0.2181 -0.1373
29866W        W30730   9.695  23.337  15.817  0.0316  0.0106 -0.0467
29867W        W30731  21.594  15.915  15.144  0.3497 -0.0610 -0.3165
29868W        W30732   7.172  21.046   9.581  0.0583  0.1982  0.3406
29869W        W30733  12.884  16.746  21.158  0.1142  0.0655 -0.1510
29870W        W30734  13.311   5.010  18.986 -0.0398  0.1051 -0.1634
29871W        W30735  25.991  26.893   7.646  0.0151 -0.1045  0.2291
29872W        W30736  18.283  22.319   4.566  0.3348 -0.0371  0.2093
29873W        W30737  17.712  16.966  15.974 -0.1879  0.0699 -0.0867
29874W        W30738  21.509   3.896   0.521 -0.1999 -0.0077  0.2231
29875W        W30739  20.291   4.111  13.413  0.2213 -0.0489  0.1957
29876W        W30740   1.310   1.166   0.006 -0.0345  0.1004 -0.0390
29877W        W30741  25.013  26.551   9.952  0.3072  0.0455  0.1580
29878W        W30742  21.607  17.749  12.449 -0.1414  0.4038 -0.1592
29879W        W30743   9.771   2.804  21.581  0.0746  0.0914 -0.1912
29880W        W30744  26.333  20.904  12.691  0.1364  0.0167 -0.0991
29881W        W30745  13.032   4.295  12.865  0.0051 -0.0314 -0.1574
29882W        W30746  25.122  12.234  21.656  0.3247 -0.1824  0.1672
29883W        W30747  21.387   5.031  10.531 -0.0210  0.0610  0.0018
29884W        W30748  27.588  26.771   9.762 -0.1497 -0.0089  0.1503
29885W        W30749  26.215  15.152  17.626  0.3014 -0.1663  0.1249
29886W        W30750  16.553  20.383   8.053  0.0803  0.2344 -0.2475
29887W        W30751  21.156  23.397   3.289  0.0442  0.1199 -0.2559
29888W        W30752   3.648  25.582  16.394 -0.2424  0.0751  0.4085
29889W        W30753  22.799   1.938  22.029 -0.1293  0.1192  0.0460
29890W        W30754  27.521   3.312  16.553 -0.0757  0.1163  0.4382
29891W        W30755  20.019   8.688  13.660 -0.1513  0.2444  0.0991
29892W        W30756  23.364   8.663  22.906 -0.1783 -0.0465  0.0970
29893W        W30757   0.929   1.079  28.821  0.1218 -0.1622 -0.1672
29894W        W30758  13.855  21.927  18.834  0.1574  0.2938 -0.2640
29895W        W30759  24.075  15.889   2.787 -0.4461  0.1349 -0.2857
29896W        W30760  24.660   2.520  19.773 -0.0767  0.4868 -0.2930
29897W        W30761  21.640  22.242   8.978 -0.1979  0.1409  0.3946
29898W        W30762  23.298   8.932  25.912 -0.1661 -0.0451  0.0556
29899W        W30763  23.803   3.349  15.624  0.0866  0.0554 -0.3024
29900W        W30764  27.168  25.445  20.265  0.0299 -0.0278 -0.3906
29901W        W30765  23.876  28.673  21.295  0.0956  0.1321 -0.0197
29902W        W30766   8.228  27.464  25.071 -0.0708 -0.1425  0.0242
29903W        W30767  20.355  28.443  22.636  0.0076 -0.2646  0.0440
29904W        W30768   8.404  13.974   7.505 -0.1106  0.1359  0.1250
29905W        W30769  23.413  18.434  18.339  0.2161 -0.3441 -0.2744
29906W        W30770  22.104   9.683   4.026  0.0168 -0.3503 -0.1612
29907W        W30771  24.277  12.227  17.207 -0.0518 -0.0731 -0.0468
29908W        W30772  22.001   2.985   9.910  0.0128  0.0213 -0.0901
29909W        W30773  23.261  14.250  17.557  0.1173 -0.1013 -0.2221
29910W        W30774   8.194   3.475  12.504 -0.1349  0.1288 -0.0165
29911W        W30775   8.504   5.827  21.814 -0.2093  0.0822  0.0223
29912W        W30776   2.123   4.402   4.557 -0.2996 -0.0749  0.0885
29913W        W30777  22.283  24.937   3.963  0.0845  0.0934  0.2402
29914W        W30778  11.694  27.138  28.008  0.0553 -0.0360 -0.0884
29915W        W30779  20.079  10.819  24.950 -0.1807 -0.4726  0.2556
29916W        W30780   5.948   3.307  20.600  0.1165  0.0101 -0.1153
29917W        W30781  22.897  24.033  18.466 -0.2578  0.0743  0.1073
29918W        W30782   9.785   1.125  17.945  0.3828 -0.1920 -0.0536
29919W        W30783  16.998  15.609  14.800 -0.1549 -0.0804  0.0852
29920W        W30784  18.285   6.066  11.743 -0.0988  0.0092 -0.1035
29921W        W30785  12.378   6.185  10.093 -0.2411 -0.0946 -0.0174
29922W        W30786  25.685   5.950  14.704  0.0077  0.2029  0.2987
29923W        W30787   3.374   0.358  15.733 -0.1469  0.0054  0.4264
29924W        W30788  16.240  25.846   3.081 -0.0016 -0.1106 -0.0253
29925W        W30789   4.887  12.157  11.644 -0.0337  0.2906  0.2795
29926W        W30790   8.069  25.944  24.014 -0.1695  0.0304  0.1293
29927W        W30791  28.192  28.755   8.946 -0.0696 -0.3100 -0.2665
29928W        W30792  17.244  28.012   6.427  0.0762  0.3067 -0.3502
29929W        W30793  23.936  24.158   9.902 -0.1710 -0.0022 -0.2160
29930W        W30794  10.340   5.171  24.551 -0.0473 -0.0513  0.1214
29931W        W30795   2.835  26.238  10.232  0.0557  0.3090 -0.1172
29932W        W30796   2.281   4.651  14.884 -0.1064  0.0641  0.0940
29933W        W30797   6.231  20.189   9.055 -0.0097  0.1825  0.0212
29934W        W30798  27.796  19.443   7.856 -0.3381  0.1692 -0.0128
29935W        W30799  15.566  25.571  17.187  0.1991  0.2156 -0.0163
29936W        W30800  19.108  12.964  23.883  0.0330 -0.1522 -0.3523
29937W        W30801  28.587  11.511   8.114  0.0879 -0.0758  0.4070
29938W        W30802  19.360  28.737  13.453  0.1489  0.0318 -0.1294
29939W        W30803  28.242   5.226  17.267  0.0072 -0.2234  0.1428
29940W        W30804  24.147  20.382  10.128 -0.0228  0.0150  0.0249
29941W        W30805   9.760  18.433  15.159  0.1426 -0.2632 -0.0434
29942W        W30806   8.874  27.548  20.076 -0.0607  0.0328 -0.2062
29943W        W30807  13.629   3.761   8.306  0.3345 -0.2289 -0.0727
29944W        W30808  17.366  14.512  28.832 -0.3090 -0.1489  0.0454
29945W        W30809   0.682   8.193  21.263  0.0451 -0.0408 -0.0836
29946W        W30810   3.034  17.894  19.284  0.2760 -0.4683  0.1163
29947W        W30811  13.206  25.290  22.780 -0.1457  0.1011  0.0792
29948W        W30812   9.406   4.278   8.559 -0.0189 -0.0317  0.0300
29949W        W30813  27.075  28.588  17.348 -0.2067  0.0342 -0.1471
29950W        W30814  24.874  20.484  13.610  0.0595 -0.1191 -0.0022
29951W        W30815  26.887   4.818   2.279  0.0968 -0.0415  0.0458
29952W        W30816   1.457  27.882   4.483  0.0721 -0.0448 -0.0212
29953W        W30817  12.329   1.065   9.895 -0.0510  0.1492  0.0464
29954W        W30818  26.463  13.487  11.943 -0.2448 -0.1883 -0.1273
29955W        W30819  29.061   2.242  27.701  0.2692  0.0245  0.4504
29956W        W30820  15.718  25.276   8.167  0.1880  0.0292  0.5887
29957W        W30821  16.865   1.844  12.956  0.4242  0.1009  0.1144
29958W        W30822  28.652  20.176  28.650  0.0839  0.2184 -0.0458
29959W        W30823  22.936   9.035  23.107  0.1090 -0.0043  0.2261
29960W        W30824   2.696  21.569  26.502 -0.1072  0.1796 -0.0613
29961W        W30825   1.875   4.554   5.014 -0.2726  0.2359 -0.2178
29962W        W30826  14.347  12.107  27.811 -0.0459 -0.3498  0.1337
29963W        W30827  27.374  12.258  25.162 -0.1757 -0.3666 -0.0793
29964W        W30828   8.950  14.932  12.779 -0.1996 -0.0041  0.0909
29965W        W30829  23.617   1.181   5.208  0.3494  0.4172 -0.0609
29966W        W30830  12.808  27.889  16.607  0.0005 -0.0240  0.0035
29967W        W30831  26.853   7.061   3.421 -0.0543 -0.3972 -0.0874
29968W        W30832  17.130   1.664  19.411  0.2159 -0.3261  0.2087
29969W        W30833  25.276   6.346  28.010  0.1732  0.1483 -0.2492
29970W        W30834  26.679   0.525   4.527  0.0219  0.2766 -0.0030
29971W        W30835  16.610  14.219  12.338 -0.3628 -0.0760 -0.0893
29972W        W30836   8.046  14.121   3.348 -0.0604 -0.1722 -0.1062
29973W        W30837  12.882  27.674  25.646  0.0415 -0.0743  0.2175
29974W        W30838  17.144   2.759   8.012 -0.0254  0.0670  0.0627
29975W        W30839  19.595  23.902  25.955  0.1484  0.2175 -0.4131
29976W        W30840  25.141  16.260   4.834  0.1196  0.2248  0.2510
29977W        W30841  16.553   5.946  15.170  0.4191  0.1881  0.0828
29978W        W30842  18.216   3.644  28.251 -0.1083  0.2877  0.2112
29979W        W30843  21.847  25.354  25.264 -0.1561  0.5447 -0.1386
29980W        W30844  11.263   1.817   4.728 -0.0349 -0.1907 -0.4051
29981W        W30845  17.327  15.329  17.371 -0.0753 -0.2601  0.0460
29982W        W30846  23.240   4.155   6.280 -0.0035  0.0796 -0.1123
29983W        W30847  12.340  10.375   6.221 -0.1987  0.2641 -0.0358
29984W        W30848  26.996   8.387  19.139 -0.0510  0.0509  0.1251
29985W        W30849  17.790   8.341  15.352  0.0386  0.0045  0.1938
29986W        W30850   6.274  17.661  19.190 -0.3572 -0.1528  0.0546
29987W        W30851  28.551  12.948  20.878 -0.0606 -0.0451  0.2198
29988W        W30852  13.650  23.927  19.381 -0.0133 -0.0268  0.2204
29989W        W30853   6.322  22.233   3.270 -0.2024 -0.1557 -0.0310
29990W        W30854  23.477   9.926   7.037  0.0789 -0.1761  0.1196
29991W        W30855  14.263   2.390  25.974  0.1168 -0.1457  0.0175
29992W        W30856  12.208  14.654   5.138  0.2705 -0.0729  0.0483
29993W        W30857  19.035  16.547  25.396 -0.1429 -0.2490  0.1156
29994W        W30858  13.081   2.450  18.807 -0.0157  0.0084 -0.1694
29995W        W30859   0.469  18.565   1.139  0.1279  0.2432 -0.1765
29996W        W30860  24.147  16.660  16.701  0.4927  0.0249  0.1186
29997W        W30861  16.288   8.026  24.480  0.2207 -0.1448  0.0244
29998W        W30862   3.313  13.129  12.032 -0.4683 -0.0589  0.2572
29999W        W30863   4.812   8.093   8.436 -0.0351 -0.0056  0.0273
30000W        W30864  12.571  17.569  13.617 -0.0907 -0.0758  0.1221
30001W        W30865  15.736  20.033  10.157  0.2318 -0.1787  0.0041
30002W        W30866  27.506   4.265  11.208  0.0108  0.0227 -0.5526
30003W        W30867  18.539   5.940  14.011 -0.1569 -0.1968  0.1319
30004W        W30868  28.496   7.437  23.625  0.1423 -0.0262  0.5782
30005W        W30869  25.253  21.922  23.838 -0.0617  0.4824  0.0307
30006W        W30870   8.173   0.316  15.263 -0.0607  0.1090  0.1913
30007W        W30871  21.193   6.728  23.433 -0.1945 -0.1598 -0.1034
30008W        W30872  19.229  23.407  11.155 -0.1359 -0.2189 -0.0096
30009W        W30873   4.270   9.375   9.536 -0.0971  0.2741 -0.1728
30010W        W30874  15.755   6.394  21.763  0.1036  0.3261  0.1153
30011W        W30875  21.893  11.716  23.447  0.0197 -0.2303  0.1247
30012W        W30876   2.360   7.956   5.404  0.3769  0.1880  0.0762
30013W        W30877   7.490   2.608  26.654  0.4332  0.1511 -0.3449
30014W        W30878   6.496  17.553   4.055  0.0351 -0.4294 -0.1445
30015W        W30879   2.586   0.853  28.541  0.2216 -0.3347 -0.0167
30016W        W30880  14.311  11.988  14.129 -0.1159  0.0179 -0.1195
30017W        W30881  25.159  12.509  18.718  0.1358  0.0671 -0.1804
30018W        W30882  16.465  10.819   1.292 -0.0045 -0.2442 -0.1984
30019W        W30883  19.438  27.058  13.161 -0.2520  0.2227  0.0668
30020W        W30884   9.168  25.369  12.728  0.0280 -0.0275  0.3013
30021W        W30885  14.356  13.934  19.335  0.1557  0.3457 -0.0123
30022W        W30886  12.823  22.464   0.419 -0.0387  0.2575  0.2508
30023W        W30887  12.228  11.182   7.565 -0.0980  0.1196 -0.1130
30024W        W30888   0.557   8.839  12.225  0.0894  0.1056  0.1149
30025W        W30889  28.121   0.594  15.714 -0.1763  0.0192  0.1073
30026W        W30890   3.668   3.005  19.340 -0.4070  0.4955  0.2375
30027W        W30891   2.342  21.562  12.786 -0.0738 -0.0124 -0.0240
30028W        W30892  14.926  24.094  17.488  0.1522 -0.2543 -0.1301
30029W        W30893  13.484  18.731   6.093  0.1401 -0.1035  0.1880
30030W        W30894  26.343   7.136  27.195  0.2385  0.2075  0.1108
30031W        W30895   8.771  12.000   4.104  0.3814  0.0382 -0.1702
30032W        W30896  24.884  12.475  23.203 -0.4232 -0.0697 -0.0650
30033W        W30897  24.643  11.940  20.316 -0.0661 -0.1150  0.0538
30034W        W30898  10.243   6.051   3.287 -0.1806 -0.0222 -0.0834
30035W        W30899  10.603  24.727  25.238  0.0152  0.0871  0.0120
30036W        W30900  14.121  27.462  22.832  0.1390 -0.0100  0.1513
30037W        W30901  12.506   2.940   3.688  0.0724 -0.0189 -0.1853
30038W        W30902  22.779  12.157   3.353  0.0186  0.0635  0.0793
30039W        W30903   1.404  13.499  17.123  0.0790 -0.0068 -0.2796
30040W        W30904   1.472   1.856   7.050 -0.1915 -0.0628 -0.1115
30041W        W30905  21.261  24.760  13.093 -0.1248  0.1822 -0.2086
30042W        W30906  19.294  21.862   7.940  0.0001  0.0228 -0.1949
30043W        W30907  27.429  27.518  28.494 -0.2406 -0.1919  0.1686
30044W        W30908   2.259   1.826  10.521 -0.1355  0.2885 -0.0699
30045W        W30909  12.878   3.534  19.946 -0.1671 -0.2666 -0.1304
30046W        W30910  17.297  13.418   4.344  0.1292 -0.1014  0.0961
30047W        W30911  16.168  12.260   5.150  0.2137 -0.1100 -0.1484
30048W        W30912  12.501   6.551  22.835  0.1923 -0.2368 -0.0509
30049W        W30913  23.491  22.819   8.529 -0.0560 -0.4349  0.0287
30050W        W30914  27.620   4.374  24.795  0.0887 -0.0084 -0.0894
30051W        W30915  25.644   6.993   1.238 -0.1376 -0.3113  0.0965
30052W        W30916   3.886  14.537   8.231  0.0624  0.0279 -0.2136
30053W        W30917  14.720  21.951  12.819  0.0777 -0.3137  0.2710
30054W        W30918  19.089  13.992  18.964 -0.1550  0.2034 -0.4362
30055W        W30919  28.080  21.027   3.137 -0.4404  0.4428  0.3005
30056W        W30920  13.770  28.510  20.109 -0.3178  0.1804 -0.0926
30057W        W30921   9.444   7.389  20.102  0.0829  0.1394  0.3013
30058W        W30922  22.340  16.486  27.517  0.0712 -0.0600 -0.1220
30059W        W30923  23.449  27.631  17.771 -0.0340 -0.0546 -0.2835
30060W        W30924  11.435  13.447  11.875  0.1955 -0.2459 -0.0609
30061W        W30925   7.520  25.037   4.434 -0.0898 -0.1345  0.0596
30062W        W30926  24.495   8.991  24.989 -0.3314 -0.1363  0.1585
30063W        W30927  12.069  22.214  12.492 -0.1552  0.1684  0.1501
30064W        W30928   2.645  12.657   4.041 -0.0040  0.0168 -0.1474
30065W        W30929  24.502   0.015  27.948  0.3128  0.1855  0.0297
30066W        W30930  23.732  20.239   9.012 -0.0823  0.2843 -0.0654
30067W        W30931   1.148  14.932  18.992 -0.0448  0.2338 -0.1141
30068W        W30932  26.481   6.663  14.091  0.1683  0.1284  0.0047
30069W        W30933  25.812  29.108  10.478 -0.1302 -0.2114 -0.2418
30070W        W30934  20.435   9.068  20.204 -0.1558  0.0960  0.1511
30071W        W30935   2.850   9.842  23.190 -0.0166 -0.1530 -0.0981
30072W        W30936  11.830  16.921   2.202 -0.1140 -0.2634  0.2769
30073W        W30937  23.556  15.676  22.242 -0.1183 -0.1110 -0.1373
30074W        W30938   1.390  28.997  19.277  0.3987  0.0547  0.2224
30075W        W30939  15.480  13.184  12.915  0.0559  0.2410  0.1490
30076W        W30940  27.127   8.627   5.307  0.2486 -0.1666  0.1563
30077W        W30941  12.114  28.573  26.450 -0.1739 -0.0364 -0.0903
30078W        W30942  10.189   5.372   0.015  0.4474  0.0003  0.0244
30079W        W30943  10.826   9.796  24.423 -0.1068  0.2369  0.0901
30080W        W30944  12.238  17.016   0.406  0.1151  0.2614  0.1491
30081W        W30945  14.954  26.298  12.860  0.1130 -0.0136  0.2177
30082W        W30946  24.254   3.453   4.255 -0.0873 -0.3214 -0.0003
30083W        W30947   7.673   5.486  23.654 -0.0846  0.1314 -0.2608
30084W        W30948  25.136   8.290  11.960  0.0700 -0.3217 -0.0344
30085W        W30949  26.380  15.840  12.432 -0.1696  0.0722  0.1685
30086W        W30950  16.692   2.307  13.027 -0.1497 -0.3907 -0.0881
30087W        W30951  21.612   0.164   8.542 -0.1407 -0.0410  0.0059
30088W        W30952   7.399  14.673  19.581 -0.1489  0.1812  0.1988
30089W        W30953  12.771   4.851  15.013 -0.1078 -0.0847  0.1622
30090W        W30954  12.503  27.195   4.312 -0.0330 -0.1946 -0.1338
30091W        W30955  16.912   3.662   1.921  0.0476 -0.0098  0.0959
30092W        W30956  12.949  28.907  19.292 -0.3282 -0.2012 -0.2678
30093W        W30957   4.936   1.129  11.480 -0.0486  0.1468  0.3009
30094W        W30958   5.448   7.956   2.795 -0.0523  0.3466  0.1551
30095W        W30959  12.475   3.535   3.233  0.1664 -0.1343  0.0870
30096W        W30960  22.056  22.015  23.612 -0.1280 -0.0242 -0.0655
30097W        W30961  20.995  24.104  14.533 -0.1793  0.1646  0.0767
30098W        W30962   4.112   0.945   5.868 -0.0740 -0.0626  0.3101
30099W        W30963   2.335   0.586   6.952  0.0039  0.0379 -0.3200
30100W        W30964  16.472   0.347  17.066  0.0055  0.2263 -0.2130
30101W        W30965   9.030   7.739  25.767  0.0116  0.0300  0.0640
30102W        W30966   5.900  16.055  24.541  0.3409 -0.2751 -0.2775
30103W        W30967  28.374   0.397   1.957  0.0642 -0.0078 -0.1529
30104W        W30968  17.765  10.637   2.555  0.0196 -0.0303  0.1175
30105W        W30969   0.362  21.050  18.636 -0.1192 -0.1590 -0.1057
30106W        W30970  26.988   9.103   7.317 -0.0717 -0.2341 -0.0240
30107W        W30971  26.461   0.073  27.501 -0.1003 -0.0493  0.1694
30108W        W30972  12.296  10.876  22.587  0.1676 -0.0103  0.0563
30109W        W30973  19.006   3.485  18.273 -0.0721 -0.3292  0.0117
30110W        W30974  26.495   1.874  28.066 -0.0719  0.2822  0.2281
30111W        W30975  15.374  20.824  18.579  0.0227  0.0583 -0.0218
30112W        W30976  11.136   1.145  27.722  0.0563  0.4342 -0.1832
30113W        W30977   3.002  26.043   6.851 -0.1075  0.1538  0.2309
30114W        W30978  11.156   9.783  11.082  0.1861  0.2792  0.2919
30115W        W30979  24.469  23.398  11.488  0.0710 -0.1753  0.0421
30116W        W30980  11.656   9.408  21.253 -0.0090 -0.0562 -0.0470
30117W        W30981  28.348  27.356  20.069  0.0632 -0.5840 -0.1757
30118W        W30982  18.011  22.865  12.923  0.1892 -0.3791 -0.2510
30119W        W30983  12.128  21.054  28.678 -0.1004 -0.1479 -0.0428
30120W        W30984  17.850   7.029   3.690  0.3688 -0.0575  0.1832
30121W        W30985  21.852  20.350   8.958  0.0326  0.0889 -0.0536
30122W        W30986   2.275  10.988  18.062 -0.0938 -0.3282  0.3039
30123W        W30987  29.073  14.631  16.586  0.1681  0.1696 -0.1866
30124W        W30988  14.552   1.134  22.759  0.0155  0.0667  0.1090
30125W        W30989   1.905  15.363  26.489  0.0161  0.0180 -0.0610
30126W        W30990  17.933   7.477  14.706  0.1474 -0.0953 -0.1111
30127W        W30991   1.328   4.028  24.837 -0.0693 -0.3093 -0.4558
30128W        W30992  17.689  22.363  18.101 -0.1476 -0.1401  0.0975
30129W        W30993  27.030   9.380   6.208 -0.1598 -0.2810  0.3040
30130W        W30994   3.331   7.280  27.665  0.3113  0.0735  0.1074
30131W        W30995  20.635  11.285  14.930  0.0902 -0.1559 -0.2265
30132W        W30996   6.582  19.623  21.037 -0.4306  0.2312 -0.2839
30133W        W30997  22.110  21.167  28.101  0.2366 -0.0201  0.0575
30134W        W30998   6.441   2.937   3.867 -0.2248  0.2117  0.1240
30135W        W30999  23.477   0.507   4.745 -0.0086 -0.0459 -0.4967
30136W        W31000   6.533   6.330   1.002 -0.4050  0.3262 -0.0198
30137W        W31001  16.864  19.745  28.608  0.1136  0.0151  0.0386
30138W        W31002  23.459   8.396  27.132 -0.1151  0.2140  0.3109
30139W        W31003   7.656  23.112   1.977  0.0746 -0.1244  0.0801
30140W        W31004  10.183  21.874   3.590  0.0905 -0.2225  0.2597
30141W        W31005  24.845  18.265  25.963  0.0258  0.2009  0.1511
30142W        W31006  27.396  25.420  28.113 -0.4806 -0.0483  0.1179
30143W        W31007  27.309   9.496   7.337 -0.1041  0.0765 -0.0242
30144W        W31008  21.946  26.855  23.531  0.0420 -0.1135 -0.2352
30145W        W31009  25.345  28.682  28.506 -0.2333 -0.0895 -0.2269
30146W        W31010  10.187   4.692  21.149 -0.1492  0.0866 -0.1685
30147W        W31011  19.347  17.439   0.068 -0.2791 -0.1883 -0.1494
30148W        W31012  18.704  13.244  21.686 -0.0869 -0.0607  0.1725
30149W        W31013   5.241   5.682   1.164  0.0108  0.2175  0.1977
30150W        W31014  14.835   4.773  19.386  0.0775  0.3669 -0.0994
30151W        W31015   4.087  20.030  24.492  0.0295 -0.2005 -0.0977
30152W        W31016  26.570  12.728  26.938  0.0206 -0.4373 -0.3804
30153W        W31017  22.823   2.570  10.717  0.1001 -0.2153  0.0258
30154W        W31018  11.313   3.663  22.564  0.0781 -0.1489  0.1042
30155W        W31019  24.362   2.590   7.721  0.1130 -0.3507 -0.2162
30156W        W31020  11.196  15.424   3.347 -0.0895  0.0824 -0.0778
30157W        W31021   0.134  21.743  18.365  0.0613  0.1244 -0.1487
30158W        W31022  14.194   8.271   7.136  0.2397 -0.3821  0.0130
30159W        W31023   3.257  16.986  20.465  0.2206  0.0375  0.1715
30160W        W31024  20.960   0.537  20.408  0.1192  0.2004 -0.1915
30161W        W31025   6.043   4.743   6.550  0.0466 -0.1861  0.1320
30162W        W31026   7.510  16.133  21.921  0.0660  0.2967  0.0435
30163W        W31027  14.286  29.115  26.668 -0.0522  0.0956  0.1292
30164W        W31028  28.355  11.270  13.228 -0.1936 -0.3125 -0.0636
30165W        W31029  11.366  19.671  13.690 -0.1719 -0.1619  0.0253
30166W        W31030  21.325  17.693   7.741  0.0456  0.2035 -0.1256
30167W        W31031  12.116  25.839  16.583 -0.1000  0.1764 -0.0468
30168W        W31032   1.667  27.749   7.025 -0.0591  0.2763 -0.2705
30169W        W31033   3.125   5.475  18.246 -0.0423  0.1710  0.0759
30170W        W31034  11.036   2.476  24.081 -0.2259 -0.0217 -0.4480
30171W        W31035  10.273  10.820   6.209 -0.1674  0.0378  0.3966
30172W        W31036  22.045   1.986   9.391 -0.1268 -0.3832  0.1903
30173W        W31037  21.329   7.041  10.913 -0.0982 -0.3477  0.0997
30174W        W31038  14.063   0.001  28.635 -0.1340 -0.1093  0.1925
30175W        W31039  18.641   1.447   4.289  0.2247  0.2683 -0.2389
30176W        W31040  17.359  24.269   0.432  0.0318  0.3169  0.0154
30177W        W31041   6.457  20.588  21.643  0.1964  0.2377  0.0796
30178W        W31042   3.787  20.430  24.720 -0.1121  0.0343  0.0732
30179W        W31043   8.582  26.003  24.675 -0.0787 -0.3451  0.1712
30180W        W31044  26.362  25.766   8.967  0.0474 -0.1473  0.1001
30181W        W31045  24.394   0.041  24.103 -0.3010 -0.1850 -0.0369
30182W        W31046   8.583   5.776  15.438  0.3349 -0.0600 -0.3124
30183W        W31047  20.874   5.376  12.676  0.0300 -0.0062  0.0611
30184W        W31048  14.839  23.022  17.277 -0.0991  0.1081 -0.1140
30185W        W31049  14.960   1.589  20.259  0.2682  0.1390  0.4089
30186W        W31050   2.919  29.138   4.833  0.1555 -0.2622  0.1461
30187W        W31051  25.869  18.129   9.987 -0.0705  0.1281  0.0377
30188W        W31052  12.067  15.210  24.430  0.0211  0.1109 -0.1522
30189W        W31053  16.774   3.575  24.704 -0.0678  0.2080  0.1101
30190W        W31054  20.726  13.808   4.209 -0.3989 -0.0945  0.2381
30191W        W31055   0.488   7.807  16.929 -0.0683 -0.0300  0.1332
30192W        W31056  21.383   3.590  10.939  0.0195  0.2074 -0.4157
30193W        W31057  22.312  10.476  11.615 -0.1098  0.4677 -0.0273
30194W        W31058  10.232   1.563  11.095 -0.1533 -0.1345 -0.1596
30195W        W31059   7.813   2.564  16.728 -0.0162  0.1269 -0.5350
30196W        W31060  20.741   1.283  13.673  0.0159 -0.1784  0.3712
30197W        W31061  10.853   7.401  15.349  0.0142  0.1641 -0.0247
30198W        W31062  25.755  28.242  15.696 -0.1242  0.3017  0.0656
30199W        W31063  12.021   4.380  23.018  0.0762  0.2355 -0.5771
30200W        W31064   7.230   8.174  18.189 -0.2292  0.0287 -0.1855
30201W        W31065  23.069  15.480  17.673  0.0111 -0.2314  0.0282
30202W        W31066   4.743  19.910  19.526  0.0007  0.0971  0.2161
30203W        W31067   1.635  28.687  17.649  0.2551  0.0273  0.0309
30204W        W31068  20.548  20.099  25.762  0.1217 -0.0439  0.3450
30205W        W31069   8.297  23.758  19.847  0.0193  0.4119 -0.3093
30206W        W31070  15.395  14.640  22.313 -0.0832  0.2745 -0.0150
30207W        W31071   7.791   2.756  20.107 -0.0916  0.1390 -0.1307
30208W        W31072   4.921   3.290  15.467  0.0962 -0.1435  0.5033
30209W        W31073  27.170   4.039  26.763 -0.1150 -0.0312 -0.1807
30210W        W31074  17.396   9.776  18.311 -0.0606  0.0219 -0.1762
30211W        W31075  27.276  13.521  18.670  0.1319 -0.1525  0.0782
30212W        W31076  20.789  24.946  18.979  0.0617 -0.5257  0.0321
30213W        W31077  16.177   4.604   0.518  0.0385 -0.0856  0.0479
30214W        W31078  21.605  21.207  21.940 -0.3955  0.0849 -0.1950
30215W        W31079   9.696   1.455  20.922 -0.0489  0.0582 -0.1105
30216W        W31080  24.730  25.811  24.895 -0.2697 -0.2040  0.0687
30217W        W31081  10.439   5.938  19.853 -0.1386 -0.1757 -0.0487
30218W        W31082  21.216  12.775  24.423 -0.2515  0.0751 -0.1382
30219W        W31083  14.578   9.680  19.767  0.1936 -0.0091 -0.1410
30220W        W31084  15.810   0.814  16.798 -0.0399  0.4296 -0.3703
30221W        W31085  23.152   5.040  13.510  0.0214 -0.2295 -0.4324
30222W        W31086  13.426  13.172  11.874  0.2715  0.2696 -0.2635
30223W        W31087  16.090  12.398  14.398 -0.0041  0.0922 -0.3684
30224W        W31088  15.973  14.358  24.815 -0.1536 -0.2206  0.4027
30225W        W31089  26.014  25.463  11.787  0.0503  0.0558 -0.1697
30226W        W31090   4.508   2.626  13.301 -0.0364  0.0250 -0.0970
30227W        W31091  20.799  25.012  17.591 -0.1156  0.1147  0.1086
30228W        W31092   2.281   1.354  18.552  0.3382 -0.1129  0.4859
30229W        W31093  14.021  13.376  23.958  0.3230  0.1612 -0.2245
30230W        W31094  24.510  13.253   1.253 -0.1607  0.2000  0.0851
30231W        W31095   3.479   0.821   9.865 -0.6458 -0.1293  0.2183
30232W        W31096   4.381  11.608  16.906  0.2557  0.1311  0.0312
30233W        W31097  12.117   9.821  19.445  0.1968  0.0892  0.0708
30234W        W31098  23.276  28.401  28.752 -0.1057  0.3888 -0.0546
30235W        W31099  19.050  17.648   8.953  0.0391 -0.4259  0.1206
30236W        W31100  15.957  21.640  24.697  0.0936  0.0915  0.0249
30237W        W31101  11.455  27.182  27.259 -0.4612 -0.2052  0.2143
30238W        W31102   3.911  25.467  23.389  0.0770  0.2031 -0.0986
30239W        W31103  18.134   0.775  21.125  0.1609 -0.0908 -0.3060
30240W        W31104   7.381   9.903  17.021 -0.2062  0.1881  0.0076
30241W        W31105  28.770   6.546  14.022 -0.1396  0.0230 -0.1528
30242W        W31106  17.471  13.751  16.763  0.0929 -0.0549  0.2671
30243W        W31107   5.909  25.627  19.120  0.2031  0.1773  0.0637
30244W        W31108   8.854   6.712  21.635 -0.0605  0.0387  0.2355
30245W        W31109  27.747   3.644   6.383 -0.2664 -0.2049 -0.0965
30246W        W31110  24.318  25.205  27.194  0.0359  0.0257 -0.1499
30247W        W31111  19.416   6.187  10.844 -0.1592 -0.1128  0.1851
30248W        W31112   6.268  21.285   6.865  0.0322 -0.0810 -0.0385
30249W        W31113   4.453   7.309  13.281  0.1024  0.2658 -0.1951
30250W        W31114   3.157  11.248  13.932 -0.4590 -0.2047 -0.1899
30251W        W31115  23.653   0.709  21.075 -0.2937  0.3420  0.0897
30252W        W31116  23.175   6.857  29.058 -0.2324 -0.1105  0.0767
30253W        W31117  26.777   4.660  18.307  0.1443  0.0103  0.0994
30254W        W31118   9.251   4.957   2.320 -0.1335 -0.1948  0.3803
30255W        W31119  21.511   1.428   4.323 -0.1389  0.0476  0.2260
30256W        W31120  27.833   6.406   1.549 -0.0079 -0.1831 -0.1873
30257W        W31121   0.333  26.168   8.123  0.0259 -0.2017 -0.1248
30258W        W31122   0.646  28.083   3.374 -0.1741  0.1474 -0.4744
30259W        W31123   3.205   4.396   1.062  0.1970 -0.2830  0.1464
30260W        W31124   3.735  27.755  10.280  0.1622  0.1790  0.2401
30261W        W31125  16.352  24.435  25.081 -0.0059 -0.0285 -0.2786
30262W        W31126  19.771  24.248  14.822  0.1603 -0.4791  0.1788
30263W        W31127  11.651  25.144   7.637  0.0715  0.0515  0.0269
30264W        W31128   1.750   0.917   0.165  0.0483  0.0988  0.0742
30265W        W31129  19.124  28.164  10.052 -0.1356 -0.0613  0.3599
30266W        W31130   0.595   5.724  10.236  0.1229 -0.0880 -0.3520
30267W        W31131  26.502   6.157   8.555  0.0318  0.0844 -0.0814
30268W        W31132  16.519  12.787  20.316 -0.0957 -0.1459 -0.2522
30269W        W31133  15.583   6.094   3.797  0.0299  0.2581  0.0106
30270W        W31134  25.223  17.956   9.526 -0.1337  0.1242  0.0949
30271W        W31135   6.530   5.221  11.880  0.0241  0.1066  0.2534
30272W        W31136  11.953  23.337  20.629 -0.0870 -0.0140 -0.0767
30273W        W31137  24.166  25.603   1.340 -0.0895 -0.1251 -0.1632
30274W        W31138   5.177   0.552  12.742  0.1363  0.0551  0.2046
30275W        W31139  27.648  21.735  11.245 -0.1639 -0.0494 -0.0300
30276W        W31140   5.519  28.203  15.121 -0.0881  0.2211  0.1146
30277W        W31141  24.896  25.372   8.411 -0.1299  0.1459  0.0466
30278W        W31142   7.557  23.788  21.451 -0.1744  0.0953  0.3304
30279W        W31143  19.812  20.868   1.771  0.2540 -0.1098  0.1824
30280W        W31144  26.344  20.675  13.538  0.0824  0.0976 -0.3705
30281W        W31145  28.109  28.111  18.157  0.3837 -0.1657 -0.1611
30282W        W31146   0.836  16.244  27.181 -0.0031  0.0594 -0.1135
30283W        W31147   4.845   1.650  14.333  0.0716  0.3282 -0.1036
30284W        W31148   2.874   6.417  28.070 -0.3065  0.3250 -0.1014
30285W        W31149  19.349  27.329  27.710  0.1033 -0.2004 -0.0732
30286W        W31150   4.870  21.182   3.211 -0.1055 -0.1534  0.0478
30287W        W31151  28.327   4.181  14.056 -0.0479  0.4111  0.1847
30288W        W31152  16.635  26.998  22.456 -0.0728 -0.0774 -0.2523
30289W        W31153   5.031  12.501  20.509  0.0435  0.0699 -0.3845
30290W        W31154  18.969  17.944  24.361 -0.4775 -0.0823  0.2946
30291W        W31155  18.344  22.242  18.621 -0.0683 -0.0824  0.1341
30292W        W31156   2.418  16.953  25.641 -0.1679 -0.1707 -0.1453
30293W        W31157  24.653   6.917   7.691 -0.0615  0.5121 -0.0156
30294W        W31158   1.067  25.756   0.949  0.0340  0.1518  0.0423
30295W        W31159  14.698  10.268  26.003 -0.1117 -0.0053 -0.4589
30296W        W31160  16.411  16.399  16.235  0.2545 -0.1877  0.1204
30297W        W31161  24.397   9.745  11.755  0.1613 -0.1696 -0.0083
30298W        W31162  26.764  11.592  11.894  0.0075 -0.2601 -0.0913
30299W        W31163  24.976   4.311   7.277 -0.4562 -0.0226 -0.2345
30300W        W31164  23.015   8.101  11.866  0.2633  0.0885  0.1431
30301W        W31165  25.029  27.705  14.730  0.2642 -0.0261 -0.1105
30302W        W31166  23.104  11.130  24.658  0.0064 -0.0949  0.0221
30303W        W31167  21.805  13.869   3.711 -0.1811  0.0222  0.0607
30304W        W31168  10.613   1.330   5.316 -0.1619 -0.0571  0.1618
30305W        W31169  24.422   7.824  24.902  0.4011  0.1422  0.0903
30306W        W31170   2.259  16.750  18.124 -0.3173 -0.1005 -0.1249
30307W        W31171  13.225   0.337  19.953 -0.1022 -0.1096  0.1191
30308W        W31172  18.455   9.531  25.266 -0.0186 -0.1050  0.0140
30309W        W31173   4.096  13.147   1.217 -0.0648 -0.2799 -0.4162
30310W        W31174   7.361  28.001  21.593 -0.0499  0.1645 -0.0981
30311W        W31175   5.890  16.424  14.706 -0.0410 -0.2059 -0.1186
30312W        W31176  23.085  15.955  13.441 -0.1781 -0.1291  0.0705
30313W        W31177  24.324  21.958  20.716  0.4099  0.1979  0.0665
30314W        W31178  15.836  18.789   8.899 -0.1385 -0.0852  0.1796
30315W        W31179  19.586  15.769  18.678 -0.1339  0.1395 -0.1348
30316W        W31180   5.564  14.948  15.940  0.0426  0.0079  0.2603
30317W        W31181  18.543   8.534   1.431  0.0888  0.1530  0.0022
30318W        W31182  10.875   1.026  19.919 -0.0108 -0.0488  0.0064
30319W        W31183  11.707  26.842  22.856 -0.1410 -0.0398  0.0126
30320W        W31184  14.250  20.210   5.178 -0.2654  0.1346  0.5248
30321W        W31185  14.546   2.082  26.339  0.1319 -0.3829  0.0973
30322W        W31186  29.095  10.286  25.796  0.1701  0.1742  0.2604
30323W        W31187   0.536   2.948  20.820  0.2104 -0.0103  0.3042
30324W        W31188  23.096  16.869   8.639 -0.0964 -0.3334 -0.1539
30325W        W31189  22.236   8.300  17.278  0.3051  0.3527  0.3291
30326W        W31190  12.095  11.354   8.845  0.1721  0.1001  0.3055
30327W        W31191  23.482  16.243  24.347 -0.3115  0.1587 -0.4944
30328W        W31192  11.994   8.622   9.679 -0.0599 -0.0622  0.2135
30329W        W31193   9.338   3.284  23.397  0.0399  0.0890  0.2411
30330W        W31194  27.124  28.395  18.511 -0.0023 -0.1512  0.2409
30331W        W31195  23.803   0.619   2.887  0.2106  0.3564  0.3268
30332W        W31196  17.442   5.297  25.922 -0.0036  0.0360 -0.1192
30333W        W31197   0.960  13.066  14.682 -0.2043  0.0630  0.0656
30334W        W31198  17.180  15.959  28.931 -0.1376 -0.0214  0.1477
30335W        W31199  12.355   2.015  17.797  0.2829 -0.1990 -0.1116
30336W        W31200  19.760   5.087  23.967  0.1816  0.0402 -0.1111
30337W        W31201  27.945   8.849  21.243  0.0106  0.0674 -0.1758
30338W        W31202   6.913  18.316   3.711  0.0266  0.2880  0.0096
30339W        W31203  16.960  11.135  18.762 -0.0624  0.1090  0.2481
30340W        W31204  28.768  25.101  17.479 -0.0601  0.0214 -0.1271
30341W        W31205  14.819   0.459  12.425  0.0320 -0.1835  0.0039
30342W        W31206   6.754  10.800   2.399  0.0458  0.1879 -0.1743
30343W        W31207  21.652   8.664  25.022  0.0838  0.1376 -0.0147
30344W        W31208  19.606   4.526  20.675  0.0347 -0.0964  0.1611
30345W        W31209   0.790  14.589  22.307 -0.0494  0.0732 -0.0287
30346W        W31210  18.198  11.208   3.793 -0.0408 -0.0622 -0.3347
30347W        W31211   4.666   0.435  17.602  0.1159 -0.3474 -0.1156
30348W        W31212   9.175  21.911  22.642  0.1225  0.1314  0.2225
30349W        W31213  18.739   6.390   0.499 -0.2678 -0.1200 -0.0803
30350W        W31214   5.968   9.144  18.623  0.0796 -0.0266  0.0092
30351W        W31215   3.718  18.243  26.599 -0.1338  0.0269 -0.1256
30352W        W31216   3.586  26.508   7.185 -0.2484  0.0486  0.3659
30353W        W31217  25.406  17.042  21.575  0.3552  0.3509 -0.1333
30354W        W31218  14.035   0.667  17.743 -0.0847  0.0590  0.2925
30355W        W31219  24.175  18.432  14.463  0.1655  0.3798 -0.2966
30356W        W31220   5.959   1.970  11.417  0.0711 -0.1853 -0.2250
30357W        W31221  20.684  21.136  20.229 -0.0206 -0.0107  0.2171
30358W        W31222  17.843  12.675   5.708 -0.0540 -0.2519  0.0966
30359W        W31223  18.750   2.758  12.426 -0.0302  0.0613  0.3188
30360W        W31224  15.381  13.159  22.245 -0.0496  0.2651  0.2736
30361W        W31225   2.595  20.891  13.428 -0.1380 -0.0524 -0.1333
30362W        W31226  18.524   2.199  19.274  0.0351 -0.0316  0.1117
30363W        W31227  23.668  20.891   2.711  0.0058 -0.0028  0.0865
30364W        W31228  27.335  28.269  20.058  0.1632  0.1450 -0.0011
30365W        W31229  25.103  28.593  15.157 -0.2054 -0.0208  0.0537
30366W        W31230  16.100   5.044  28.972 -0.2276 -0.0849 -0.0070
30367W        W31231   0.257  28.488  22.816 -0.2466  0.1698 -0.1886
30368W        W31232  17.445   6.965  21.017 -0.3689 -0.3291 -0.1613
30369W        W31233  25.989   4.766  19.881 -0.5381 -0.0885  0.3299
30370W        W31234  19.098  11.879  22.718  0.0045  0.1620  0.4255
30371W        W31235  19.480  17.922  20.470 -0.0123  0.5764  0.1959
30372W        W31236   6.979  29.063   3.988  0.1548  0.0537 -0.3354
30373W        W31237  24.215  29.003   7.394 -0.1019  0.2308 -0.2768
30374W        W31238  19.471  28.386  26.827  0.0659  0.2375 -0.1442
30375W        W31239  19.498  13.284  23.349 -0.1005 -0.0301 -0.0571
30376W        W31240  16.066   1.389  29.134  0.0049 -0.1414 -0.1543
30377W        W31241   2.847  24.938   9.784  0.0270  0.3011 -0.1405
30378W        W31242  24.122  18.731  23.422  0.0227  0.0707 -0.3351
30379W        W31243  13.891   7.560   5.055  0.0742 -0.1055 -0.2609
30380W        W31244   4.089  23.288  21.717 -0.0947 -0.0031 -0.0223
30381W        W31245  13.724   6.167   0.687 -0.0344  0.0525 -0.0127
30382W        W31246  17.860  28.979  14.817 -0.2705  0.0285  0.1078
30383W        W31247  11.783   2.287   1.672  0.1686  0.1734  0.2854
30384W        W31248  20.140  16.791  13.357  0.2456 -0.0480  0.3538
30385W        W31249   7.598  18.379  25.208  0.4329  0.1303  0.0063
30386W        W31250   1.949  25.605   0.016 -0.0993  0.0898 -0.0704
30387W        W31251   9.719   9.982  28.164 -0.0530  0.0246 -0.0982
30388W        W31252  23.337  28.065   6.309  0.0220 -0.0602 -0.1466
30389W        W31253  19.723   4.490  27.809  0.1281 -0.1436 -0.1637
30390W        W31254   2.114   9.832  28.268 -0.1658 -0.1608  0.0595
30391W        W31255  25.973   0.397  27.056 -0.1973  0.0397 -0.2064
30392W        W31256  12.260   0.334   7.794 -0.0863 -0.2674 -0.0004
30393W        W31257  14.315  18.310  26.286  0.0970 -0.0353  0.1949
30394W        W31258  18.789  23.774  25.366  0.1257  0.1882 -0.0695
30395W        W31259  20.140   2.339  18.005 -0.1682  0.0914 -0.2643
30396W        W31260  13.219  13.111  16.205 -0.2570  0.1969 -0.5555
30397W        W31261  11.498   1.505   5.590 -0.0092 -0.3072 -0.2469
30398W        W31262  11.982   2.051   4.897 -0.0813 -0.0483 -0.1884
30399W        W31263  16.445   2.166  22.690 -0.2511 -0.2580  0.0008
30400W        W31264  20.735   0.445   1.502 -0.0522 -0.1433  0.2271
30401W        W31265   9.123  23.102  14.974  0.0786 -0.1897  0.2996
30402W        W31266   0.485  21.297   6.188  0.0738 -0.0515  0.1218
30403W        W31267  13.542  20.404  17.617  0.2043 -0.0160 -0.0075
30404W        W31268  24.391  11.288  12.768  0.1592 -0.2431 -0.0650
30405W        W31269  21.158   9.719  20.159 -0.1796 -0.1681  0.2987
30406W        W31270   3.881  18.621  10.059  0.3109  0.1459  0.0490
30407W        W31271  10.860  28.209  14.460 -0.0848 -0.1083 -0.2375
30408W        W31272  20.563   4.951   0.226 -0.1266 -0.0853  0.1407
30409W        W31273  19.367   5.145  12.740  0.0436 -0.4236 -0.1671
30410W        W31274  28.085   9.905  12.256  0.0679 -0.1716  0.0126
30411W        W31275   4.174  11.993  15.223 -0.0639 -0.1691 -0.1538
30412W        W31276  23.286  19.175  27.870  0.3323  0.1406 -0.1335
30413W        W31277  20.336   6.673  22.573 -0.2196  0.2822 -0.0357
30414W        W31278  27.599  17.213   5.760 -0.2526  0.0397  0.1678
30415W        W31279  12.699  13.865   4.935  0.1268 -0.2510  0.3189
30416W        W31280  25.680   0.974   9.822  0.1424 -0.2505  0.0696
30417W        W31281  12.761  12.958  20.693  0.3128 -0.1784  0.2040
30418W        W31282  23.895  21.813  25.439  0.1523 -0.1807 -0.2132
30419W        W31283  18.740   0.154  17.610 -0.3027 -0.2471  0.3115
30420W        W31284  23.641  27.652  23.468 -0.3253 -0.0840  0.0118
30421W        W31285  12.798  22.479  24.460 -0.1605 -0.0970 -0.1614
30422W        W31286  16.364  17.793   8.929  0.0630  0.2358 -0.1458
30423W        W31287  20.452  11.048   8.970  0.0897  0.1465  0.3115
30424W        W31288   2.072   3.652  18.343 -0.0233  0.0787  0.0029
30425W        W31289  28.109  17.726   0.059  0.0242 -0.0260  0.0350
30426W        W31290  24.058  16.358  15.581 -0.2583  0.1041 -0.2871
30427W        W31291  24.587  15.773  24.608  0.0400 -0.2091  0.0137
30428W        W31292  20.959   3.832  10.586 -0.0586 -0.0572  0.2270
30429W        W31293  10.419  12.466  12.316  0.1559  0.2530  0.1972
30430W        W31294   7.736  21.920  15.939  0.0822 -0.0656 -0.1317
30431W        W31295  20.160   4.318  16.742  0.0797 -0.0336  0.2765
30432W        W31296   7.958  20.117  19.877 -0.1527 -0.1558  0.5375
30433W        W31297   3.812   5.132  18.624 -0.4010  0.2359  0.1284
30434W        W31298  14.208  27.624  28.805 -0.1039  0.1168  0.2133
30435W        W31299  26.270  11.352  28.645  0.0414 -0.1477  0.0258
30436W        W31300   6.659  25.131   8.070  0.1615  0.1028  0.1110
30437W        W31301  18.494  21.106   1.328  0.1188  0.2560 -0.1491
30438W        W31302  15.917  22.753  19.569 -0.0055 -0.2268  0.1749
30439W        W31303   1.510  17.881   8.918 -0.1685 -0.1815  0.2136
30440W        W31304   4.085  27.388   2.698  0.1080 -0.1907 -0.0844
30441W        W31305  17.237   3.482  19.128  0.1520  0.0030 -0.1776
30442W        W31306  10.317   1.615  10.184  0.0378  0.0789  0.1845
30443W        W31307   3.981   3.357   8.177  0.1866  0.2431 -0.1625
30444W        W31308  25.224   5.524   3.725 -0.3240  0.2412 -0.1670
30445W        W31309   9.357   6.895  18.068  0.0544  0.2120 -0.1565
30446W        W31310  14.984  19.463   2.591  0.0979 -0.0750 -0.0305
30447W        W31311   4.939   2.686  22.033 -0.1195 -0.0759 -0.0799
30448W        W31312  23.623   3.927   4.719  0.4142 -0.3815  0.0400
30449W        W31313  26.820  24.893   8.891  0.2095  0.1373 -0.0942
30450W        W31314  15.733  22.979  12.934  0.2080 -0.5357 -0.0855
30451W        W31315   6.413  19.496  27.464 -0.0835  0.1237 -0.0130
30452W        W31316  21.435   8.145  17.496  0.6109  0.1922 -0.0066
30453W        W31317  18.457  11.901  27.148 -0.0406  0.3967 -0.1350
30454W        W31318   7.316  27.526  19.255 -0.0219 -0.2787 -0.4234
30455W        W31319  27.581  19.897  25.333  0.0983 -0.2126  0.0195
30456W        W31320  23.003   8.611  27.220  0.0415  0.1596 -0.2039
30457W        W31321   8.579  25.108  24.904  0.0822 -0.1590 -0.2250
30458W        W31322  18.986  25.709  16.189  0.0039  0.3052  0.0859
30459W        W31323  17.039   1.329  12.705  0.0026 -0.0769  0.2336
30460W        W31324  12.358   4.938  17.085 -0.2874  0.1669  0.3023
30461W        W31325  20.267  15.847  11.091 -0.4275 -0.0223 -0.1904
30462W        W31326  20.836   0.493   8.339 -0.0414  0.0913 -0.3160
30463W        W31327  19.961  22.970  21.875  0.0756 -0.0071  0.1055
30464W        W31328  27.555  28.764  15.956  0.2430  0.1571 -0.0705
30465W        W31329   2.113  10.011  20.464 -0.0344 -0.0573  0.1138
30466W        W31330  14.558  13.560   8.635  0.0221  0.0296  0.1822
30467W        W31331  23.926  26.456  24.009  0.2089  0.1438  0.1784
30468W        W31332  23.652   9.456  27.133 -0.3015  0.2155  0.2348
30469W        W31333  14.064  23.362  25.572  0.1333 -0.1890  0.0482
30470W        W31334  14.780  21.776  27.352  0.1378 -0.3068 -0.1323
30471W        W31335  25.639  26.085   3.808  0.0354  0.0965  0.1925
30472W        W31336  12.648   7.487  15.289  0.0970 -0.3301  0.0844
30473W        W31337  11.550   1.793  25.149 -0.2219 -0.2054 -0.1773
30474W        W31338  22.779   1.629  11.614  0.2023  0.3031 -0.0873
30475W        W31339  24.931   5.172   2.372  0.0412 -0.1892  0.0796
30476W        W31340  17.725  11.074   8.068 -0.3176  0.1538 -0.0765
30477W        W31341  28.598   0.116  22.100  0.1414  0.3056  0.0248
30478W        W31342  25.714   1.828  20.846 -0.2311  0.0897 -0.3733
30479W        W31343  18.246  23.507  16.643 -0.0774  0.3539 -0.0509
30480W        W31344   2.459   3.643   7.458 -0.2671  0.0324 -0.1469
30481W        W31345  14.642  24.368  11.842  0.0933  0.5594 -0.0926
30482W        W31346  11.681  12.447   2.095 -0.3478 -0.1288 -0.1523
30483W        W31347  13.308  27.847  23.162  0.3124 -0.0294 -0.2968
30484W        W31348  11.291   1.989  17.521  0.2869  0.1284 -0.4044
30485W        W31349   2.478  25.723  16.229  0.0564  0.1489 -0.1813
30486W        W31350  21.166   9.049   9.065  0.0659  0.0975 -0.1073
30487W        W31351  16.448   0.830  22.209 -0.1645 -0.0401  0.2051
30488W        W31352   1.472   1.484   2.490  0.2171  0.0912 -0.0748
30489W        W31353   9.057  25.067  19.565 -0.1199 -0.0533  0.1725
30490W        W31354  20.765  19.366  12.919 -0.0609 -0.1371  0.1667
30491W        W31355  21.300   7.991  10.738 -0.1965 -0.1089  0.1028
30492W        W31356   6.739  14.891  25.420  0.0609 -0.1170 -0.0922
30493W        W31357  13.890   5.025   2.657 -0.0043 -0.0523  0.0577
30494W        W31358   9.286   4.828  21.277  0.2217 -0.1554 -0.1691
30495W        W31359  19.394  21.230  21.107 -0.2405 -0.3643  0.0215
30496W        W31360  25.111  26.781  10.785  0.1754  0.4101 -0.1231
30497W        W31361  11.983   3.402   8.368 -0.0192  0.0768 -0.2101
30498W        W31362  15.898  15.000  24.355  0.0265 -0.2476  0.0826
30499W        W31363  21.545  12.799  15.723 -0.1736  0.1436  0.0896
30500W        W31364  22.659  21.667  15.028  0.0872 -0.0368 -0.1901
30501W        W31365  15.799  17.157   6.311 -0.1612 -0.2553 -0.2027
30502W        W31366   6.597  14.892   0.976 -0.0529 -0.1021 -0.1854
30503W        W31367  14.902   7.878  14.013 -0.2100 -0.0577  0.1747
30504W        W31368  20.840   9.741  25.063  0.0779 -0.1572 -0.1137
30505W        W31369  14.237  10.118  18.002 -0.2823  0.1249  0.1260
30506W        W31370   1.030  15.503   7.513  0.0475 -0.1320 -0.0038
30507W        W31371   3.177  23.846   5.847  0.0180 -0.0238 -0.0153
30508W        W31372  25.729  20.630  13.988 -0.3352 -0.0177 -0.0698
30509W        W31373  19.673  12.088  27.749 -0.1646  0.3039  0.0982
30510W        W31374   4.471  26.805  26.019  0.2684  0.0295  0.0540
30511W        W31375   0.824   4.929  10.503 -0.0440  0.0226 -0.1173
30512W        W31376  28.115  12.990  14.654 -0.3440 -0.3045 -0.0134
30513W        W31377  22.090  22.057  18.602 -0.1662  0.1294  0.1883
30514W        W31378   9.133   7.846  20.096 -0.1531  0.0450 -0.0525
30515W        W31379   7.680  16.192  16.084  0.0723  0.0732  0.0040
30516W        W31380  24.296   8.043   0.544  0.1691  0.2476  0.0420
30517W        W31381  23.777   7.032   5.881  0.1800  0.1727 -0.2343
30518W        W31382  21.581  26.688   7.545  0.0355  0.1282  0.0568
30519W        W31383  22.157  16.096  20.119 -0.0292 -0.0032 -0.0049
30520W        W31384  23.829  20.778  10.419  0.2239  0.1829 -0.2049
30521W        W31385   2.252  21.773  23.106 -0.1154 -0.2025  0.5245
30522W        W31386  19.536  23.431   3.919 -0.0661  0.0026  0.1615
30523W        W31387  22.836  26.937  16.791  0.1158 -0.0574 -0.1250
30524W        W31388  24.009  12.518  19.489 -0.0304  0.2673 -0.0938
30525W        W31389  27.403  18.493  23.088  0.1908 -0.1291  0.1604
30526W        W31390  14.288  18.931  27.955 -0.1227 -0.0288  0.0047
30527W        W31391  19.427  18.412  23.138 -0.0334  0.1251  0.3505
30528W        W31392   3.390  16.875  15.526  0.0597  0.0299 -0.1512
30529W        W31393  21.902  20.409   8.482  0.1952 -0.2009 -0.0600
30530W        W31394  19.984   8.805  21.602  0.4007  0.0160 -0.1328
30531W        W31395  20.784  10.449  17.875 -0.0129  0.1924  0.0255
30532W        W31396   7.273  18.464  12.159 -0.1483 -0.0430  0.0678
30533W        W31397  27.647  16.334  19.926 -0.0938  0.1357 -0.5345
30534W        W31398   4.418  16.056  10.207 -0.0282  0.1007  0.1280
30535W        W31399  18.523   6.764  19.361 -0.2281  0.1360  0.0724
30536W        W31400  24.092   3.315  16.083  0.3752  0.3042 -0.2954
30537W        W31401  22.706  26.023   2.394 -0.2735 -0.0056 -0.2041
30538W        W31402  18.502   6.154  21.379  0.0061 -0.0046  0.1611
30539W        W31403  25.385  24.821  27.281  0.2942 -0.0886 -0.0007
30540W        W31404  23.745   2.766  16.930  0.0611  0.1504  0.0815
30541W        W31405  25.697   0.609  24.527 -0.1320 -0.0822  0.1107
30542W        W31406  12.754  27.001  17.017  0.2166 -0.2262 -0.2276
30543W        W31407  26.747  13.528  14.318 -0.1651  0.1537 -0.3299
30544W        W31408  25.342   0.280   7.322 -0.1808 -0.3076 -0.2152
30545W        W31409  13.702  17.604   0.961  0.1037 -0.1932 -0.0205
30546W        W31410  20.956   4.761  23.669 -0.5285  0.4687 -0.0877
30547W        W31411  23.352   2.506  17.039 -0.0098  0.2094 -0.1262
30548W        W31412  20.467  12.390  12.226 -0.3718 -0.0008 -0.0386
30549W        W31413  14.198  24.512  26.483 -0.0690  0.0326  0.1088
30550W        W31414  10.402  13.732  26.505 -0.0060 -0.0700 -0.1390
30551W        W31415  10.223   7.439  16.555 -0.0215  0.0385 -0.3591
30552W        W31416  20.984  15.608  25.604 -0.0182 -0.3144  0.0674
30553W        W31417  17.008  19.441   4.682 -0.2910  0.0842 -0.0872
30554W        W31418   9.455  16.564  19.176  0.0027 -0.0528  0.3624
30555W        W31419   1.332  19.697  16.754 -0.1643 -0.0637 -0.1145
30556W        W31420   7.008   5.824  17.779 -0.0815 -0.1698  0.0572
30557W        W31421  18.683  12.308   7.318 -0.2589  0.0339 -0.2137
30558W        W31422   6.523   7.275  28.321 -0.0873 -0.0465  0.4210
30559W        W31423   4.195   0.778  25.771  0.2760  0.1952  0.0016
30560W        W31424  13.277  24.909   2.087  0.0563 -0.0515  0.2840
30561W        W31425  23.282  13.620   3.884 -0.3687  0.2161  0.1494
30562W        W31426  14.583  11.019  26.800 -0.1339  0.0735 -0.1037
30563W        W31427   0.026   2.832  26.905  0.0697 -0.0153  0.0874
30564W        W31428  22.847  13.784  14.918 -0.0187 -0.0770  0.1956
30565W        W31429  11.863   8.486   6.009  0.1353 -0.0062  0.0751
30566W        W31430   1.614   1.359  20.628 -0.0326 -0.1119  0.0399
30567W        W31431  19.674  21.031   4.104 -0.0385 -0.4048 -0.0090
30568W        W31432  28.133   0.687   5.507  0.1442 -0.1169  0.0841
30569W        W31433   1.682  13.333   2.018  0.5145 -0.0115  0.0586
30570W        W31434   8.095   4.779   3.292 -0.0890 -0.0269  0.1310
30571W        W31435  15.782  25.708  23.904 -0.0447  0.0525  0.0055
30572W        W31436  20.562  28.449  25.976  0.0490  0.2743 -0.0546
30573W        W31437  22.912  10.441  21.073  0.1666 -0.0018 -0.0629
30574W        W31438  26.062  14.715   2.184  0.5045  0.0995  0.0263
30575W        W31439  10.842   0.164   3.997 -0.2265 -0.2668  0.1508
30576W        W31440  19.918  20.760  21.380 -0.1759 -0.0696 -0.0877
30577W        W31441  24.983  24.449  28.893 -0.0260  0.2133  0.1024
30578W        W31442  27.180  16.386  18.588  0.3104 -0.2660 -0.0743
30579W        W31443  20.343   9.966  27.145 -0.1577  0.1674 -0.2138
30580W        W31444  20.752  15.659  15.503  0.1900 -0.2476 -0.1830
30581W        W31445   1.977  13.784   0.665  0.1512 -0.0918  0.0511
30582W        W31446   4.222  23.815  17.724 -0.3459  0.1536  0.2827
30583W        W31447   7.254  17.656   1.654  0.0697  0.0552  0.0224
30584W        W31448  22.203  24.356  24.178 -0.2426 -0.0156  0.0045
30585W        W31449  23.457  20.392  26.968 -0.1009 -0.1713  0.2028
30586W        W31450   0.239   8.472  12.453  0.1219 -0.0384  0.0083
30587W        W31451  23.736  21.034  21.449  0.2267 -0.4271 -0.2308
30588W        W31452  17.532  27.452  25.470 -0.0370 -0.0503 -0.1577
30589W        W31453  28.468   8.487  15.523 -0.0262 -0.4154 -0.0101
30590W        W31454  13.862  17.866  26.914 -0.0304  0.2267 -0.1889
30591W        W31455  18.155  21.960  10.520 -0.0045 -0.1659  0.0353
30592W        W31456   3.389  14.131   9.093  0.1700 -0.4561  0.1235
30593W        W31457  13.493   1.317  10.218 -0.1038 -0.0782  0.0032
30594W        W31458  10.253   5.369   7.739 -0.0828  0.1195  0.2570
30595W        W31459  28.608   4.606   1.900 -0.0439  0.0141  0.0436
30596W        W31460  13.573   6.063  26.945 -0.2575  0.2432  0.2103
30597W        W31461   1.280  27.580  17.203  0.3280  0.1020  0.1140
30598W        W31462  23.359   0.756  26.711  0.0820  0.1832 -0.1990
30599W        W31463  20.084   8.278  20.183 -0.1731 -0.0988  0.2665
30600W        W31464   9.224  22.979  27.169 -0.0804  0.0641 -0.2042
30601W        W31465   3.408  12.080  10.685  0.2122  0.0025  0.1190
30602W        W31466   5.156  21.866  29.111 -0.1159 -0.1134  0.2965
30603W        W31467  21.226  11.381  14.501  0.1138 -0.0115 -0.1460
30604W        W31468  23.816  26.772   0.755  0.1646 -0.1986 -0.0978
30605W        W31469   7.968  17.499   0.403 -0.4049  0.2431 -0.1503
30606W        W31470  24.093  24.373  28.899 -0.0683  0.2820 -0.3166
30607W        W31471  20.983   6.719   2.902 -0.0000  0.1124 -0.1215
30608W        W31472  11.551   7.744  27.434 -0.0776  0.0623 -0.1303
30609W        W31473   9.451  27.700  22.992 -0.2622  0.1325  0.1378
30610W        W31474   5.577   4.440  16.664 -0.2085  0.1435 -0.1758
30611W        W31475  18.021   6.914   7.299 -0.1648 -0.0370  0.0095
30612W        W31476   6.209   2.219   6.003  0.1346 -0.0254  0.0315
30613W        W31477   1.038  23.783  25.482 -0.0087 -0.1941 -0.0311
30614W        W31478   2.862  20.052  27.333  0.2271 -0.0330  0.0472
30615W        W31479   0.378   2.367   4.321  0.0933  0.1980 -0.0211
30616W        W31480  27.618  27.356  17.082 -0.1892  0.0660  0.2000
30617W        W31481  27.571   0.532  15.806 -0.1865  0.0548  0.0858
30618W        W31482   3.951  16.636  21.036  0.2979 -0.0884 -0.2033
30619W        W31483  14.864  24.252  12.654  0.2322 -0.2456 -0.1136
30620W        W31484  23.247  29.121  26.591  0.2208  0.1341  0.0873
30621W        W31485   0.471   0.207  25.264  0.3634  0.0166 -0.1016
30622W        W31486  13.308   4.708  12.605  0.1121  0.2215  0.1339
30623W        W31487  17.607   3.291   0.761 -0.0600  0.0944  0.0038
30624W        W31488   4.218   1.269  17.760  0.1663 -0.0270  0.0371
30625W        W31489  15.648   4.843  22.109 -0.0371  0.1221  0.0711
30626W        W31490  25.619   5.552  28.396 -0.2782  0.1172 -0.1688
30627W        W31491  25.458  24.257   2.603 -0.2497 -0.3448 -0.0861
30628W        W31492  25.870  16.827   5.071 -0.2463 -0.0293  0.1636
30629W        W31493  20.903  18.925  21.642 -0.0669 -0.0610  0.0629
30630W        W31494  27.099  24.199  25.453  0.0495  0.0373  0.3539
30631W        W31495  21.530   6.411  19.776  0.3057 -0.2853 -0.1836
30632W        W31496  22.991  21.874   8.228 -0.0959 -0.0722  0.0257
30633W        W31497  10.262  28.672   3.831 -0.0229 -0.0933 -0.1570
30634W        W31498  14.764   5.667   9.132 -0.0656  0.1103  0.0961
30635W        W31499   1.759  27.467  14.542 -0.0128  0.2035  0.0148
30636W        W31500  25.643   7.743   3.264 -0.2617  0.0609  0.1929
30637W        W31501   8.651  25.195  23.033  0.0198 -0.2083  0.3396
30638W        W31502  27.901  23.703   7.532 -0.0800 -0.0958 -0.2512
30639W        W31503  25.468  28.805  16.402 -0.0374 -0.2978 -0.3193
30640W        W31504  23.882  21.530  22.438  0.0713  0.2146 -0.0588
30641W        W31505  15.445   1.764  20.397  0.2091  0.0022  0.1456
30642W        W31506  19.016  23.823  13.702  0.2082  0.1423 -0.0875
30643W        W31507   8.350  11.349   1.563  0.4524 -0.0430  0.0803
30644W        W31508  16.107  29.139  17.203  0.2620 -0.0735 -0.0609
30645W        W31509  16.189  24.262  18.462  0.0729  0.2891 -0.0792
30646W        W31510  12.296   5.736  15.302  0.0057  0.0918  0.1311
30647W        W31511  15.267   9.285  27.005  0.4082  0.1039  0.1068
30648W        W31512   0.238   3.732  23.742 -0.1082 -0.0133 -0.0029
30649W        W31513  24.238   6.837  25.374  0.0392  0.0842  0.0659
30650W        W31514  20.832  22.537  18.690 -0.2129 -0.0130  0.0054
30651W        W31515  23.922  15.974   5.047  0.1790  0.1289 -0.1078
30652W        W31516  24.385  19.311   3.503 -0.0751 -0.1665 -0.2879
30653W        W31517   6.488   1.139  13.250 -0.0755  0.1568 -0.0114
30654W        W31518   6.633  23.293  14.897  0.3082  0.3370  0.0110
30655W        W31519   3.657  22.063   3.201 -0.2594  0.0326 -0.3193
30656W        W31520  17.737   9.079   4.732 -0.3651  0.2458  0.0598
30657W        W31521  28.167   5.730  14.396 -0.1360 -0.1212  0.1065
30658W        W31522   1.636  11.699   1.100 -0.0321  0.0501  0.1149
30659W        W31523  14.502  26.493   0.520 -0.0681  0.1064 -0.1666
30660W        W31524  28.252   0.460  22.034 -0.2541  0.0440 -0.3034
30661W        W31525  24.837  26.237  20.667 -0.0393  0.2199  0.1412
30662W        W31526   5.879  13.043  19.659 -0.2904  0.4969  0.1180
30663W        W31527  10.934   2.728   1.182  0.0665 -0.1176  0.3490
30664W        W31528  18.879  27.638  16.304  0.0661  0.2321  0.0488
30665W        W31529  21.285   6.289   1.363 -0.0969 -0.0442  0.1949
30666W        W31530  15.591  25.550  28.738 -0.1022 -0.2278  0.1671
30667W        W31531  28.119   9.653  22.869  0.0037 -0.1159 -0.3181
30668W        W31532   8.272   4.284   8.066 -0.1630 -0.0886  0.2713
30669W        W31533  19.011   1.756  28.484  0.3522 -0.0821  0.0691
30670W        W31534  16.158   2.558   1.665 -0.0803  0.3153 -0.0125
30671W        W31535  18.474   2.995  28.527 -0.0046 -0.0155 -0.4817
30672W        W31536  21.059   4.493  22.004 -0.0900 -0.3122  0.0341
30673W        W31537  20.757  23.109  27.609 -0.0523 -0.2490  0.1212
30674W        W31538   6.738  15.632  17.177 -0.1838  0.0964 -0.3175
30675W        W31539   8.953   9.151  23.959 -0.0528  0.0965  0.3678
30676W        W31540  22.460  25.746  13.105 -0.0002  0.0616 -0.2485
30677W        W31541  10.813   5.485   2.534 -0.1724  0.1111  0.0452
30678W        W31542  27.362   6.245  19.719 -0.0580  0.1492 -0.3384
30679W        W31543  28.425  21.181   7.262 -0.1679 -0.1305  0.3215
30680W        W31544  24.074  16.261  22.922 -0.1212  0.0148 -0.3177
30681W        W31545  10.964  17.242   1.969  0.3347 -0.0916  0.1540
30682W        W31546  11.221  22.154   6.450  0.0496  0.1141 -0.0666
30683W        W31547  17.101   7.196   7.769  0.3186  0.0740 -0.0866
30684W        W31548  14.385   0.050  11.446  0.2160  0.0659 -0.5235
30685W        W31549  23.780   9.116  10.089 -0.2708 -0.3110  0.1291
30686W        W31550   4.270  14.385  11.784  0.0754  0.0479 -0.6226
30687W        W31551  17.364  18.945  10.156  0.0358 -0.1684  0.1171
30688W        W31552  10.662  24.876   9.366 -0.2740  0.2241 -0.1463
30689W        W31553   7.266   8.044  19.434  0.2642  0.1774 -0.0926
30690W        W31554  26.559  28.117  28.201  0.0659  0.0903  0.0622
30691W        W31555  21.716  12.563   4.857  0.2168 -0.1005 -0.0436
30692W        W31556  19.449   8.878  20.033 -0.0069  0.2208 -0.0810
30693W        W31557  24.266  13.428  24.473  0.2137  0.1171 -0.1647
30694W        W31558   6.053  12.093  27.138  0.0660  0.1435 -0.1186
30695W        W31559   1.569  25.677  26.964  0.2134  0.1652 -0.0228
30696W        W31560   7.895  10.775  21.457 -0.1999  0.0016 -0.3930
30697W        W31561  11.966   0.005  21.936 -0.0160  0.0333  0.0041
30698W        W31562   3.143   7.578   5.520  0.0144  0.0410 -0.0980
30699W        W31563  20.171  19.629   3.737  0.1682  0.0306 -0.1820
30700W        W31564   9.355   5.498   8.758 -0.1183  0.2467  0.3110
30701W        W31565  27.664  28.828   2.059  0.0483  0.0749 -0.0617
30702W        W31566   2.160  11.733  15.328  0.2373 -0.0632 -0.0651
30703W        W31567  26.390  20.945  27.501 -0.0806 -0.1401  0.2770
30704W        W31568   9.954  16.727  27.526 -0.2094 -0.0164 -0.2735
30705W        W31569  27.116  21.160  19.626  0.2173 -0.0906  0.1028
30706W        W31570  27.344   0.940  17.226  0.0501 -0.0714 -0.1058
30707W        W31571  18.106  23.730  29.011 -0.0285 -0.0338 -0.3229
30708W        W31572   9.319  24.610   4.279 -0.0975 -0.0603 -0.1602
30709W        W31573  24.904  28.678  24.815 -0.1619  0.0731  0.0932
30710W        W31574  19.246  25.868   2.105 -0.1032 -0.0760  0.1633
30711W        W31575  22.939  27.621   3.095  0.0303 -0.3100  0.0566
30712W        W31576  18.092   4.078   2.445 -0.0583  0.1021  0.1444
30713W        W31577  16.419   1.883   8.465  0.1074 -0.2970  0.1765
30714W        W31578  28.299  12.785  18.113  0.0747 -0.1410 -0.1825
30715W        W31579   0.716  28.571  11.853 -0.1042  0.4145 -0.0978
30716W        W31580  26.267   3.047  20.346  0.0821 -0.0283  0.0657
30717W        W31581   4.577   1.034  13.704  0.2540 -0.3894 -0.1069
30718W        W31582  10.386  22.012  12.777 -0.4124  0.4269  0.1138
30719W        W31583   1.323  21.968  11.503  0.0715  0.1521 -0.1420
30720W        W31584   5.469   9.211  21.753 -0.4304 -0.1441  0.1709
30721W        W31585  27.231   8.892   1.954  0.2401 -0.0260  0.0472
30722W        W31586   5.218  24.578   2.812  0.1160  0.2408 -0.2994
30723W        W31587  11.050  14.248  26.084  0.4945  0.1478  0.3226
30724W        W31588   1.208  23.731   0.688  0.1375  0.0490 -0.0015
30725W        W31589  20.384  24.079  22.960  0.0063  0.2504  0.2417
30726W        W31590  10.276   5.105  14.984  0.0310  0.3340  0.2453
30727W        W31591   2.493  13.634  11.229 -0.0714  0.5325  0.1446
30728W        W31592  18.065  20.847  19.926  0.0845  0.1197  0.0594
30729W        W31593  16.574  19.763  27.509  0.3013  0.1593  0.1090
30730W        W31594   0.030  10.792  26.475  0.2046 -0.0934  0.2033
30731W        W31595  22.270  11.319  19.865  0.2380  0.1216 -0.0167
30732W        W31596  16.177   8.609  10.501 -0.1733 -0.1821  0.3806
30733W        W31597   6.536   7.365  19.951 -0.0376  0.0701  0.0278
30734W        W31598  15.296  10.371   5.064 -0.0902 -0.0002  0.1243
30735W        W31599  20.707   4.927  27.501  0.0561 -0.3850  0.0066
30736W        W31600   0.590  13.486   0.413  0.0190 -0.1816  0.2174
30737W        W31601  17.137  18.740   0.912  0.2433 -0.1579 -0.0391
30738W        W31602   4.770   1.311   8.070 -0.0986 -0.3040  0.4919
30739W        W31603  25.004  28.949  27.507 -0.0607 -0.0429 -0.1585
30740W        W31604  23.560  12.598   7.422  0.2651 -0.1250 -0.0758
30741W        W31605   9.585  20.378  24.604 -0.2699 -0.1559  0.0848
30742W        W31606   9.621   9.272  24.247  0.2196  0.0398  0.0189
30743W        W31607  27.569  10.339  26.403  0.0285  0.1009  0.2079
30744W        W31608  11.225  21.095  11.140 -0.0300 -0.1013  0.2675
30745W        W31609  15.696   8.374  17.317  0.3410 -0.0697  0.2723
30746W        W31610  16.310  17.078   4.901  0.0069 -0.5448 -0.2799
30747W        W31611   8.972  24.837  14.974  0.1526  0.0018  0.0576
30748W        W31612  26.513  20.696  17.636 -0.0124  0.0738  0.3286
30749W        W31613  17.982  12.660  17.040  0.0476  0.0446 -0.0621
30750W        W31614  10.356   3.683   1.595  0.0778  0.2963  0.0280
30751W        W31615  13.346  26.542   4.404  0.0470 -0.1743  0.0298
30752W        W31616  14.945  20.797  16.160  0.1525 -0.0830 -0.1529
30753W        W31617   4.686  27.893  28.464 -0.2031 -0.2184  0.2417
30754W        W31618   7.012   8.851  24.016  0.0007 -0.2205 -0.0591
30755W        W31619  17.876  10.270  25.834 -0.1576 -0.1878  0.0172
30756W        W31620  16.755   2.759   5.494 -0.2313 -0.2382 -0.0769
30757W        W31621  25.000   8.793   2.295  0.2165 -0.1129  0.0912
30758W        W31622  18.693  25.540   6.259  0.4511  0.1325  0.0750
30759W        W31623   7.782   6.152   2.696  0.1146 -0.0226 -0.2559
30760W        W31624   6.057   5.292   2.519  0.1242  0.3085 -0.1048
30761W        W31625  12.342   0.662  17.711  0.2872 -0.2305 -0.1546
30762W        W31626  19.060   6.486   6.547 -0.0106 -0.0906  0.1236
30763W        W31627  28.367  23.032  28.775 -0.0835  0.1956  0.0635
30764W        W31628  24.854  13.668  24.628  0.0490 -0.0809 -0.0829
30765W        W31629  11.281  20.235   3.585 -0.0593 -0.2595 -0.2463
30766W        W31630   1.296  25.209  27.015 -0.0870 -0.0811  0.0448
30767W        W31631  26.820   9.642   7.548  0.1892  0.1070 -0.0228
30768W        W31632   4.211   3.563  13.322 -0.2022 -0.0786 -0.1105
30769W        W31633   0.298  19.687  22.374  0.3796 -0.3080  0.0895
30770W        W31634  11.425  18.133   6.509  0.2760 -0.0195  0.0525
30771W        W31635  18.367  25.179  27.469 -0.1156  0.0250  0.2190
30772W        W31636  15.680   2.790  14.274  0.1382  0.1015  0.0235
30773W        W31637  26.935   6.020  14.641  0.1986 -0.0923 -0.0117
30774W        W31638  22.721   8.208   2.854  0.0853 -0.2243 -0.1109
30775W        W31639  27.025   2.275   8.862  0.3404 -0.2299 -0.0110
30776W        W31640  24.461  27.657  15.516  0.0886  0.1298 -0.0352
30777W        W31641  14.619  23.508  28.503 -0.3868  0.1492  0.1016
30778W        W31642  13.287   9.821  26.157 -0.1678 -0.0516  0.1633
30779W        W31643  13.607  21.123   2.594 -0.0694 -0.2010  0.0406
30780W        W31644   9.444   9.999  27.721 -0.3599  0.2003 -0.1098
30781W        W31645  26.401   4.191  12.978 -0.3048  0.1731  0.2678
30782W        W31646  24.962   7.814   1.034  0.0554 -0.2062 -0.0360
30783W        W31647  22.939   3.805   6.065  0.1148 -0.3464 -0.2230
30784W        W31648  14.164  17.263   0.774 -0.1526 -0.0142 -0.3051
30785W        W31649  18.464   9.840   8.895  0.2479 -0.0502  0.0237
30786W        W31650  14.939  28.227  13.651  0.1014 -0.3342  0.0492
30787W        W31651  19.654   5.676  26.764 -0.1375  0.0287 -0.1459
30788W        W31652  11.050  18.206  23.917 -0.2059 -0.0932 -0.1669
30789W        W31653  13.509   7.159  14.859  0.3393  0.0712  0.1566
30790W        W31654  21.038  10.906  14.314 -0.1274  0.1146  0.4480
30791W        W31655   1.694   6.281  27.637  0.2428 -0.0785  0.5034
30792W        W31656  15.686  24.524  27.590 -0.2718 -0.1093  0.2481
30793W        W31657  14.919  23.615  23.628  0.0765 -0.0043  0.2536
30794W        W31658  23.491  14.921  16.938  0.0189 -0.1620 -0.1816
30795W        W31659  12.823  28.358   0.453  0.4274  0.3202 -0.1559
30796W        W31660  15.803  25.547  11.679 -0.2991 -0.0064  0.0113
30797W        W31661   5.065   5.230  16.696  0.3131  0.1084 -0.2849
30798W        W31662   4.498   5.456  19.649 -0.1293 -0.0164  0.1743
30799W        W31663  20.651  24.286  19.991  0.0329  0.0015  0.1827
30800W        W31664   2.657   5.537  12.487  0.0152  0.2886 -0.0452
30801W        W31665   2.102  26.522  24.630  0.0291  0.4521  0.1037
30802W        W31666  17.495  19.897  28.608  0.0536 -0.1705  0.2744
30803W        W31667  14.743  15.015   2.942 -0.0882  0.2000 -0.1614
30804W        W31668  17.117  14.492  24.735 -0.1178  0.0797  0.1638
30805W        W31669  26.238  11.436  10.832  0.1368  0.0642 -0.1954
30806W        W31670  18.626  20.495  13.258 -0.0677  0.3168 -0.2085
30807W        W31671   2.269  24.678  13.933  0.3239 -0.0707  0.2204
30808W        W31672  19.707  14.159  21.247  0.3771  0.2830 -0.1385
30809W        W31673  27.957   2.786   4.957  0.0366 -0.0928  0.0946
30810W        W31674   8.744  17.922   3.486  0.0411 -0.0651 -0.1387
30811W        W31675   5.592   6.450  26.249  0.2374 -0.0406 -0.1105
30812W        W31676  26.714  25.712   8.458 -0.0649 -0.3480 -0.1493
30813W        W31677  25.955  21.231  23.852 -0.1572  0.2212 -0.0313
30814W        W31678  28.418   3.783   0.658 -0.1473  0.0861 -0.2253
30815W        W31679  18.989   5.074   9.799 -0.1369  0.1494 -0.0176
30816W        W31680   2.812   4.988  22.352 -0.0920 -0.1544  0.1582
30817W        W31681  24.724   5.556   0.146  0.0359 -0.1043 -0.1390
30818W        W31682  16.537   1.542  12.724  0.1485  0.0724  0.0354
30819W        W31683  16.311  15.416   8.569 -0.1111  0.2249  0.0918
30820W        W31684  20.226  23.698  11.985  0.2190 -0.0830  0.2016
30821W        W31685   9.019  12.229   8.563 -0.1389  0.1519 -0.1979
30822W        W31686   0.565  24.288  10.154 -0.2020  0.0913 -0.1868
30823W        W31687  26.948   3.182  24.171  0.0152  0.0646 -0.0908
30824W        W31688  18.958  28.024  10.883  0.3739  0.0858  0.0445
30825W        W31689  14.313  11.188  12.761  0.0574  0.1278  0.0156
30826W        W31690  16.771   4.557  26.158  0.1626  0.0343  0.0117
30827W        W31691  16.631  23.435   9.853  0.3222  0.0046 -0.0704
30828W        W31692  24.386   2.006  28.966  0.0488  0.2983 -0.0897
30829W        W31693   0.466  10.902  12.040 -0.0455 -0.2094 -0.1017
30830W        W31694   5.468  11.375  18.213 -0.6179  0.2181  0.1166
30831W        W31695  27.689  17.306  26.270 -0.1053 -0.3071 -0.1125
30832W        W31696  13.238   5.952  11.906 -0.2211  0.1008 -0.2007
30833W        W31697   4.533  10.855  22.748  0.0817 -0.3018 -0.4724
30834W        W31698   1.887  28.601  13.032 -0.3200  0.0900  0.0381
30835W        W31699  18.184   7.603  16.903  0.0175  0.0094  0.2462
30836W        W31700  19.580   3.987   6.609  0.0538 -0.3445  0.1149
30837W        W31701  22.389   7.624  26.795  0.0973 -0.0125 -0.2043
30838W        W31702  16.074  13.210  14.465 -0.2203  0.2918  0.0068
30839W        W31703  18.554  28.927  13.908 -0.1077  0.2151 -0.1414
30840W        W31704  19.174  14.341  22.197 -0.2702  0.3760 -0.2305
30841W        W31705  10.768   0.364   4.522 -0.0985  0.1919  0.4174
30842W        W31706   4.583  26.822  18.313  0.1852  0.0935  0.0545
30843W        W31707  23.197  24.538  17.897  0.1063 -0.1639  0.3505
30844W        W31708   5.883   9.884  16.555 -0.1837  0.4370  0.1768
30845W        W31709  21.796  18.707  14.770 -0.3084  0.4610  0.0187
30846W        W31710  23.117  23.804  11.019  0.0963 -0.0375  0.1999
30847W        W31711  19.494  20.920  16.494 -0.0286  0.4718 -0.1407
30848W        W31712  17.106   6.766  22.112 -0.1569 -0.0455  0.3479
30849W        W31713   1.079  13.260   0.377  0.2427 -0.2183  0.0363
30850W        W31714   0.441   4.827   5.438  0.1641  0.0903  0.0453
30851W        W31715  26.830   3.690  23.997  0.2080  0.1466 -0.3011
30852W        W31716  18.309   2.023   4.867 -0.0907 -0.2273  0.2082
30853W        W31717   8.608   5.578   5.001  0.1557  0.0298  0.1422
30854W        W31718  20.622  18.085  18.580 -0.1010 -0.5655 -0.1084
30855W        W31719  12.702  28.236  27.234 -0.0363  0.1575  0.3435
30856W        W31720  15.796  12.643  26.816 -0.3401 -0.0709 -0.2070
30857W        W31721   4.094   0.483   3.224 -0.1659  0.0949 -0.0435
30858W        W31722  28.902   5.623  15.164 -0.0220 -0.1257 -0.2131
30859W        W31723  16.583   5.107  27.510  0.0483  0.1340  0.0724
30860W        W31724  15.927   2.898  22.220 -0.1284 -0.1730 -0.4205
30861W        W31725  26.555  14.142   0.098  0.2626 -0.2343  0.0966
30862W        W31726   1.182  27.751  17.998 -0.0324 -0.2763 -0.0062
30863W        W31727   0.655   9.071  25.887 -0.1954  0.1400 -0.1520
30864W        W31728  14.323   4.628  19.076 -0.4145 -0.2068 -0.1807
30865W        W31729  29.142  14.637  12.465  0.0848  0.1005 -0.2070
30866W        W31730  16.447  10.386   1.657  0.2916  0.2585  0.0495
30867W        W31731  25.441  26.092  22.267  0.0286 -0.2210  0.2282
30868W        W31732   1.103  24.014  15.349 -0.0849  0.0305 -0.2436
30869W        W31733   9.987   4.058  26.911 -0.0251 -0.1869  0.2005
30870W        W31734  20.532  28.996  10.048 -0.0328  0.1543  0.1931
30871W        W31735  23.919   3.430  20.931 -0.1934 -0.1345 -0.0058
30872W        W31736  21.843   5.436  13.221 -0.0365  0.1539 -0.0718
30873W        W31737  10.503   2.604   0.671 -0.3230 -0.1521 -0.0059
30874W        W31738  25.227  19.348  14.687 -0.0735 -0.0600 -0.1583
30875W        W31739  15.901   9.732   4.309  0.0840 -0.1233 -0.2123
30876W        W31740  23.812   7.770   3.487  0.0018  0.1173  0.0432
30877W        W31741  20.551  10.329   1.010 -0.1047 -0.0227 -0.2749
30878W        W31742   1.249   7.859   6.313  0.3953 -0.0692 -0.0388
30879W        W31743  14.969  27.328  20.619  0.0476  0.0831  0.2204
30880W        W31744  22.107   1.242   0.391  0.1494 -0.0152  0.1657
30881W        W31745  25.166   2.778   1.242  0.2313 -0.1033 -0.0175
30882W        W31746  13.929  27.508  25.840  0.0867  0.3971 -0.0340
30883W        W31747  22.726   1.248  11.883 -0.1989  0.3361  0.1020
30884W        W31748   5.802   0.780  21.396 -0.0083  0.0597 -0.2318
30885W        W31749  18.783  17.675  11.843 -0.1001 -0.0671  0.0723
30886W        W31750  17.699   3.033  26.048 -0.1880  0.1513 -0.1022
30887W        W31751  19.455  28.099  11.036  0.2701  0.2649  0.1872
30888W        W31752  14.994  22.684  24.752 -0.2671  0.0201  0.1498
30889W        W31753  21.778  12.866  25.034 -0.0006  0.2361 -0.1665
30890W        W31754   4.418   6.744  17.400 -0.1824 -0.0301  0.1620
30891W        W31755  10.396   0.109   5.556 -0.1593  0.2451  0.1762
30892W        W31756  21.629  24.199   0.247  0.4288 -0.1540 -0.1520
30893W        W31757   3.498  16.339   8.798 -0.1410  0.2218  0.2412
30894W        W31758   3.076   0.845  16.035  0.0199 -0.0252  0.1146
30895W        W31759  11.417   2.521  17.507  0.1078  0.1300  0.1272
30896W        W31760  17.084  21.681   3.838  0.3537 -0.1820 -0.0344
30897W        W31761   6.956   0.832   0.750  0.1253 -0.2390 -0.0106
30898W        W31762   2.537  15.851   2.145  0.1400 -0.3459 -0.0123
30899W        W31763  27.408  22.992  21.394 -0.4464 -0.0291  0.0652
30900W        W31764  27.927  13.832  19.902  0.1356 -0.1205  0.0192
30901W        W31765  27.844   1.223  16.482 -0.1286 -0.2005  0.0113
30902W        W31766  20.353  28.355   0.400  0.2452 -0.0031  0.1023
30903W        W31767  17.682  16.485   3.489 -0.1665  0.0743  0.0467
30904W        W31768   4.485   5.602   6.650 -0.0193  0.1346  0.0790
30905W        W31769   9.702   4.029   4.206 -0.1292 -0.0987 -0.0345
30906W        W31770  15.300   9.219  28.432  0.0651  0.0576 -0.0405
30907W        W31771  26.150  22.055  17.776  0.1502 -0.3264  0.0587
30908W        W31772   8.564  25.404  18.806  0.0216  0.0095 -0.2624
30909W        W31773   0.348  12.854  11.261 -0.2299 -0.1564 -0.0866
30910W        W31774  17.529   4.730  23.810  0.0300  0.1491  0.1234
30911W        W31775  14.513   9.009  18.024  0.4165  0.0768  0.0123
30912W        W31776  22.807  13.970  25.294  0.1165  0.0842 -0.0179
30913W        W31777   0.723   1.329   0.056 -0.4038  0.0486  0.2695
30914W        W31778  17.777  24.953  15.695 -0.1954 -0.0469  0.0302
30915W        W31779  26.908  12.246   4.588 -0.3030  0.1990  0.3620
30916W        W31780   0.578   1.282  25.210  0.1684 -0.1088 -0.2258
30917W        W31781  19.011  28.412   5.240  0.0159 -0.0440  0.0190
30918W        W31782   7.167  20.091   7.671  0.0912  0.0082 -0.3718
30919W        W31783  28.953   5.665   6.014  0.1000  0.0565 -0.3247
30920W        W31784  28.921   0.956   1.490  0.0238 -0.0656 -0.2425
30921W        W31785  11.600   3.127  17.494 -0.0921 -0.1102 -0.0475
30922W        W31786  13.344  22.587   6.841 -0.0074  0.3326 -0.2167
30923W        W31787  19.762  23.000   7.573 -0.0667  0.0513 -0.2242
30924W        W31788   0.912  24.901  23.462  0.1419 -0.1818  0.0036
30925W        W31789  18.741  15.612   0.474  0.0110  0.0742 -0.0843
30926W        W31790  23.084  20.485  28.296 -0.0072 -0.2133 -0.0552
30927W        W31791  13.078   3.826   9.547  0.0218 -0.1351  0.2456
30928W        W31792   3.369  22.618   0.803 -0.0512  0.2479 -0.0525
30929W        W31793   5.374   2.439  13.812 -0.1925 -0.2457 -0.0236
30930W        W31794   7.341  13.743   5.462  0.2382  0.2088  0.2650
30931W        W31795  11.944  22.488  11.984  0.0130  0.2190 -0.2802
30932W        W31796   9.248  18.459  26.308  0.1178 -0.2232 -0.0339
30933W        W31797   5.846   5.060  25.967  0.3542 -0.5290  0.1556
30934W        W31798   2.028   4.925   6.723  0.1518 -0.1471 -0.1678
30935W        W31799  20.709  28.501  16.079  0.0348 -0.0819 -0.1676
30936W        W31800  28.952   4.787  10.447  0.2349  0.0483  0.1572
30937W        W31801  21.150  17.843   5.098 -0.0761 -0.0398  0.0367
30938W        W31802   1.667  14.507   6.108 -0.0374  0.1375  0.1535
30939W        W31803   8.389   4.308   0.081 -0.4752  0.0590  0.2803
30940W        W31804  22.699  13.878   1.279  0.2262 -0.2016  0.0665
30941W        W31805  15.819   2.410  26.189 -0.0820  0.1853  0.1582
30942W        W31806  23.093   0.143  22.839 -0.0068 -0.0239 -0.1203
30943W        W31807   2.819   9.090   9.323 -0.0369 -0.0935 -0.1288
30944W        W31808  21.518   7.699  14.744  0.0496  0.1227 -0.2208
30945W        W31809  21.759  19.320   6.940 -0.0717 -0.1142 -0.0776
30946W        W31810   0.839   9.817   3.930  0.3335  0.1709 -0.0476
30947W        W31811  28.795   1.737  24.344  0.1852 -0.0753  0.0217
30948W        W31812  18.224  26.052  21.824  0.1354 -0.1976  0.0008
30949W        W31813  11.839  22.867  17.026 -0.1315  0.3055  0.0369
30950W        W31814   8.700  17.408  12.492 -0.0126  0.2041 -0.0955
30951W        W31815  23.014  24.786  27.139  0.1233  0.1457 -0.3041
30952W        W31816   2.387   0.167  26.762  0.0762 -0.5183  0.0415
30953W        W31817  22.926   0.991  14.330 -0.0010  0.3386  0.2090
30954W        W31818  24.753  25.669  23.347 -0.0640 -0.1227  0.0339
30955W        W31819  29.026   5.159  28.873 -0.1623 -0.3304  0.3896
30956W        W31820  28.929  22.767   1.256 -0.0974 -0.1686  0.0231
30957W        W31821  26.918  13.142  14.054 -0.2442  0.1301  0.0584
30958W        W31822  22.567   0.946   4.954  0.0093 -0.1678  0.3295
30959W        W31823  23.473  23.835  22.809 -0.3453 -0.0219  0.2100
30960W        W31824   9.574   0.544  16.524  0.0346  0.0013  0.2349
30961W        W31825   2.888   4.513  23.340  0.0594 -0.0021  0.0809
30962W        W31826  18.460   9.480   6.643  0.0150  0.2509 -0.0165
30963W        W31827  17.399  27.401  15.954 -0.0145  0.3033  0.1066
30964W        W31828  10.698  21.886  12.357  0.1492 -0.3639 -0.1949
30965W        W31829  23.114   0.528  16.702 -0.2463  0.0735  0.3560
30966W        W31830  17.407  23.140  17.969  0.0824  0.0585  0.0652
30967W        W31831  20.924  22.647   7.292  0.1147 -0.1883 -0.1206
30968W        W31832   1.624   2.336   6.644 -0.1948 -0.0694  0.2089
30969W        W31833  11.004   4.050  14.029 -0.0248  0.0687 -0.3274
30970W        W31834  15.796   0.513  16.298 -0.0456 -0.1200 -0.2562
30971W        W31835  26.977  19.629   6.772 -0.1139 -0.1909 -0.2038
30972W        W31836  23.574  28.881  14.356 -0.0128  0.3880  0.1064
30973W        W31837   1.744  14.360  28.564 -0.0745 -0.2821  0.0311
30974W        W31838  20.224  25.182   9.671  0.1043 -0.3136 -0.2774
30975W        W31839  23.340   0.298  19.726  0.1667  0.1180 -0.0106
30976W        W31840  10.045  26.043  20.723  0.2519  0.0504 -0.0668
30977W        W31841  21.159   4.201  28.923  0.1160 -0.0906 -0.0774
30978W        W31842  13.744  24.012   5.023 -0.0180  0.0849  0.5699
30979W        W31843  10.555  22.573   0.240  0.1385  0.0312 -0.1468
30980W        W31844   5.080  17.052  21.850  0.1128 -0.3606 -0.0986
30981W        W31845  11.781  25.862  13.830  0.0435  0.1164  0.0665
30982W        W31846  11.787  25.232   2.147  0.0660  0.1439  0.0294
30983W        W31847  23.514  11.918  22.933 -0.0741  0.1003 -0.1020
30984W        W31848  18.185  23.357  18.235 -0.0821  0.0222 -0.2402
30985W        W31849  22.490  25.642   4.655  0.0368 -0.1303  0.0511
30986W        W31850  26.323   1.477  23.840 -0.0101 -0.1288  0.0446
30987W        W31851  22.280   7.380  19.937 -0.0380  0.0408  0.1812
30988W        W31852  13.042   3.232  11.897 -0.0811  0.2921  0.0166
30989W        W31853  25.756  12.458   9.816 -0.0995 -0.0027  0.0870
30990W        W31854  14.517   3.447  21.128  0.2074 -0.1162 -0.2815
30991W        W31855   8.811  15.386  10.090  0.0671 -0.1452  0.2580
30992W        W31856  13.941   1.049  27.389  0.2285  0.0056  0.2696
30993W        W31857  16.476   4.744   9.762 -0.0519  0.0773 -0.3436
30994W        W31858   2.339  22.736   5.254  0.0446 -0.1175 -0.1432
30995W        W31859  23.573  11.040  20.775 -0.3150 -0.0574  0.0374
30996W        W31860  18.334   6.667   9.105 -0.3020 -0.0532  0.0382
30997W        W31861  12.454  26.404   2.997 -0.2226  0.0299  0.2120
30998W        W31862   3.524  24.649  23.880  0.0774  0.0278  0.0095
30999W        W31863  14.912  10.084  24.306 -0.0751  0.0669 -0.0485
31000W        W31864   9.749   7.265   5.927 -0.1748 -0.0478  0.3095
31001W        W31865   5.681   3.399   4.462  0.2544 -0.2190  0.1704
31002W        W31866   0.941   2.932   3.762  0.1590 -0.0210 -0.1792
31003W        W31867  22.508   6.598  27.839 -0.0288 -0.0303  0.1250
31004W        W31868   6.430  19.211  20.004 -0.0259  0.2359 -0.0984
31005W        W31869  20.812  14.493   0.835  0.0253  0.0679 -0.0362
31006W        W31870  18.783   5.990   0.801 -0.3984  0.0183 -0.0057
31007W        W31871  12.102  18.682  26.929  0.1615  0.0513  0.2016
31008W        W31872   9.094  10.621  10.747  0.1944 -0.3980  0.0837
31009W        W31873  11.558   7.660   3.668  0.2803 -0.1568 -0.2619
31010W        W31874   7.372  13.461  14.464  0.0198  0.0226 -0.0380
31011W        W31875   8.760  16.808  21.151  0.2580 -0.1528 -0.2112
31012W        W31876   3.265  28.537   3.636  0.0475  0.0378 -0.0702
31013W        W31877   2.453  17.558  14.890 -0.1132 -0.0119  0.0140
31014W        W31878  28.156   8.960   9.388 -0.2442 -0.0858  0.0371
31015W        W31879  19.854  10.530   1.809  0.1222 -0.1510 -0.2344
31016W        W31880  28.131  17.274  19.167  0.0217 -0.0537 -0.1576
31017W        W31881   3.185  16.192  17.091 -0.2673 -0.0073  0.0765
31018W        W31882  14.718  23.354  21.905  0.0455 -0.3113  0.1455
31019W        W31883  26.591  27.186  13.823 -0.0770 -0.2188 -0.0680
31020W        W31884  18.793   0.792  12.884  0.3326 -0.3142 -0.0178
31021W        W31885  25.811   0.050  16.499 -0.1868 -0.2545 -0.1748
31022W        W31886  18.547   8.481  12.306 -0.0941 -0.2105 -0.1932
31023W        W31887  19.266   4.476  24.581  0.0926 -0.0503  0.1229
31024W        W31888  28.273   4.203  24.073  0.3800 -0.2780  0.2488
31025W        W31889  15.501  19.361  24.511 -0.2546 -0.1964  0.0435
31026W        W31890  27.425  19.715  11.168 -0.1335  0.2197  0.1684
31027W        W31891  22.083   1.376  13.853  0.0592  0.2166 -0.2366
31028W        W31892  14.928  11.006  20.513  0.0454 -0.0451  0.1587
31029W        W31893  28.996   6.311  21.949  0.2781 -0.2370  0.0662
31030W        W31894  26.832  10.339   0.664 -0.2453  0.2126  0.0904
31031W        W31895   7.355  18.467  18.698  0.2015 -0.1503 -0.0416
31032W        W31896  21.433   6.260  12.742  0.1366 -0.3255  0.2345
31033W        W31897  26.941  15.250   2.485 -0.1866  0.3493 -0.0438
31034W        W31898  27.215  26.609  28.158  0.1735 -0.0149 -0.4004
31035W        W31899  27.575  28.074  19.641  0.1340  0.3620  0.1182
31036W        W31900  16.770   2.526  20.655 -0.2487 -0.3561  0.3764
31037W        W31901   6.574  28.463  26.742  0.3003  0.0601  0.1454
31038W        W31902   0.006  27.567  13.396 -0.2540  0.2166 -0.0210
31039W        W31903   1.127  25.558  25.083  0.0606 -0.3105  0.3245
31040W        W31904  20.964  23.998  11.885 -0.0271  0.2614 -0.2991
31041W        W31905   6.191  15.523   1.249 -0.1008  0.2547  0.0227
31042W        W31906  26.391   1.159  27.520 -0.1039 -0.0118  0.2843
31043W        W31907   2.589   0.487   3.549  0.1154 -0.0465  0.1644
31044W        W31908   5.772  17.053  16.500  0.1427  0.1833 -0.1124
31045W        W31909  15.581  14.920   5.176 -0.1971  0.0144 -0.0669
31046W        W31910  14.704  26.399   7.025 -0.2731 -0.0710 -0.0206
31047W        W31911   2.155  28.622  21.821 -0.1321 -0.0702 -0.0168
31048W        W31912  11.222  20.018  24.401 -0.0907  0.0944 -0.1045
31049W        W31913  27.402  19.836  13.859  0.0774 -0.0219  0.4411
31050W        W31914  24.687  28.628  15.509 -0.0699 -0.1488 -0.0121
31051W        W31915  21.641   0.315  27.366 -0.1291 -0.2424 -0.0778
31052W        W31916   5.781   8.531  16.477  0.0785 -0.3036 -0.0520
31053W        W31917  17.009  14.570   7.569 -0.1035  0.0140 -0.1082
31054W        W31918   2.469  12.533  26.001  0.1489  0.0757  0.2543
31055W        W31919   7.064  28.825  21.942 -0.0767 -0.3294 -0.1293
31056W        W31920  19.673   9.047  22.611 -0.1627 -0.0547  0.1702
31057W        W31921  11.198  21.488  15.049  0.0881 -0.0215  0.1263
31058W        W31922  21.792  15.784   1.075  0.0397 -0.2725 -0.2055
31059W        W31923  15.588   2.698   7.111  0.0899 -0.3604 -0.0399
31060W        W31924   6.256  28.611  29.069  0.1478 -0.0399 -0.4948
31061W        W31925  15.889  28.851   0.837 -0.0753  0.0396  0.0553
31062W        W31926  22.792   0.835  19.716  0.0445 -0.2373 -0.1200
31063W        W31927  20.460  15.609  28.084 -0.0061  0.0435 -0.3054
31064W        W31928   4.664   3.435   5.475 -0.0038  0.0985  0.1921
31065W        W31929  25.047  17.206   5.632 -0.1510 -0.3222 -0.0896
31066W        W31930  16.466   8.267   2.370 -0.3737  0.0689 -0.0234
31067W        W31931  11.603  10.985  17.793  0.1758 -0.2935 -0.0094
31068W        W31932   2.312  10.724  14.366  0.0314  0.2033 -0.2885
31069W        W31933   4.549  25.701  19.006  0.1729 -0.0279 -0.1859
31070W        W31934  25.176   0.832   9.595 -0.1280 -0.1606 -0.0142
31071W        W31935  23.657   2.337  12.153  0.3753 -0.1109 -0.0702
31072W        W31936  21.963  25.514  13.101  0.1655 -0.0623  0.1194
31073W        W31937  23.030   4.296  25.966 -0.2589  0.1024  0.0693
31074W        W31938  10.299  26.144  10.909  0.3369 -0.0219  0.1279
31075W        W31939  17.388  10.218   1.371 -0.1225  0.1357  0.1200
31076W        W31940  15.214   2.856  19.382 -0.2120 -0.0999  0.1691
31077W        W31941  20.878  22.500   8.622  0.2612 -0.2505 -0.1992
31078W        W31942  15.047   1.833  12.440  0.1076  0.1776 -0.1618
31079W        W31943  24.318  27.345  17.257  0.2491 -0.1448 -0.1009
31080W        W31944  28.429   1.746  22.105  0.0590  0.2148 -0.0881
31081W        W31945  18.093   1.733   2.979 -0.1525 -0.0254 -0.4249
31082W        W31946  28.056  18.193  19.057 -0.3519  0.1208 -0.1570
31083W        W31947  10.495  28.496   6.157  0.0054  0.1444 -0.2538
31084W        W31948   0.327   3.445  25.572  0.0895  0.2085 -0.0633
31085W        W31949  12.452  16.468   1.104  0.2056  0.1078  0.1905
31086W        W31950  27.594  25.538  20.545  0.3398  0.0940 -0.1743
31087W        W31951  25.538   6.457  23.746 -0.1221 -0.3384  0.2757
31088W        W31952  24.820  13.283  18.605  0.1673 -0.0196 -0.1204
31089W        W31953  16.603   9.392  22.571 -0.0075  0.0351 -0.1520
31090W        W31954  23.399   3.952  25.794  0.3123  0.1058 -0.3129
31091W        W31955   3.964  16.637   1.512 -0.3815 -0.1762 -0.1215
31092W        W31956  21.654  27.351   3.673  0.1151 -0.2941 -0.1579
31093W        W31957  27.176  10.798  25.325  0.1441 -0.0591  0.0604
31094W        W31958   4.693   6.039   2.290 -0.1690  0.1439  0.0748
31095W        W31959  27.252  11.514  14.826  0.0146 -0.1435 -0.0012
31096W        W31960  20.412   2.151   5.398 -0.0344  0.0575  0.1060
31097W        W31961  23.753  28.206   3.753  0.2797 -0.2172  0.0691
31098W        W31962  26.883  17.847  29.078 -0.1513 -0.0524  0.4272
31099W        W31963  16.354  12.096   6.625 -0.2535 -0.0198 -0.2671
31100W        W31964  26.762  25.938   6.604 -0.1281  0.0436  0.0633
31101W        W31965  28.748  12.647  26.318 -0.0674  0.1197  0.0225
31102W        W31966  18.143  24.943   5.514  0.0320  0.1553  0.0491
31103W        W31967  18.575  23.069  17.940  0.0745 -0.1955 -0.1568
31104W        W31968   6.260  29.075   4.984  0.2793  0.0259 -0.1633
31105W        W31969  12.103  28.474  15.299 -0.0898  0.0056 -0.0173
31106W        W31970  17.096  17.121   8.279 -0.3886 -0.2303  0.1313
31107W        W31971  12.145  19.073   8.543  0.0249 -0.0784  0.0956
31108W        W31972   5.259  15.957  24.444  0.0556  0.1825 -0.1581
31109W        W31973  14.612  27.000   3.061  0.2391 -0.1224  0.3658
31110W        W31974   2.950   9.934  15.254  0.2596  0.0515 -0.0363
31111W        W31975  17.312  26.970  17.116  0.3596  0.3013  0.0372
31112W        W31976  19.598  10.891   2.199  0.1736  0.0101  0.1720
31113W        W31977  22.805  12.660  19.836  0.1827 -0.1603 -0.2147
31114W        W31978  24.661  13.753   1.337  0.0554  0.1865  0.3590
31115W        W31979  20.205  20.937   9.782 -0.0972  0.0729 -0.1757
31116W        W31980  25.096   2.926   3.002  0.0315 -0.2783 -0.0288
31117W        W31981  15.549  18.354  21.235  0.0132  0.2383 -0.1557
31118W        W31982   6.673   7.689  28.476  0.0285  0.0481  0.0934
31119W        W31983  28.762  17.138  11.745 -0.1910 -0.1105  0.1104
31120W        W31984   4.676  24.690   9.854  0.1859 -0.4014 -0.0232
31121W        W31985  11.367   5.268   6.178 -0.1705 -0.1687  0.2368
31122W        W31986  17.713  22.762  10.508  0.2506 -0.0329 -0.0391
31123W        W31987   0.935  16.794   2.091  0.0132 -0.0884  0.0460
31124W        W31988   1.191  23.555  11.894  0.2575  0.0979 -0.1712
31125W        W31989  16.372  27.971   2.938  0.0812  0.1105  0.0188
31126W        W31990   6.589  15.677   8.503  0.2251  0.1223 -0.3113
31127W        W31991  18.561  20.738   5.263 -0.0048 -0.0650 -0.3472
31128W        W31992  26.618  28.062   4.338  0.2369 -0.0997  0.5129
31129W        W31993  22.947  11.504   0.698 -0.0077 -0.2028  0.0893
31130W        W31994  19.132  10.897  12.703 -0.0790  0.2782  0.2491
31131W        W31995  12.206  11.280   9.704  0.0580  0.1257  0.0377
31132W        W31996  18.547  16.086  15.391 -0.1263 -0.2090  0.0281
31133W        W31997  19.249  23.791  15.585  0.3015  0.1062 -0.0413
31134W        W31998  24.077  28.278  22.793 -0.1658  0.0083 -0.3862
31135W        W31999   7.675  27.671  21.749  0.0697  0.3519  0.3035
31136W        W32000  18.462   0.287  23.250 -0.0371 -0.0799 -0.2024
31137W        W32001  26.588  18.281   3.616  0.2084 -0.1349 -0.2315
31138W        W32002   3.061   8.438  13.125 -0.2421 -0.2002 -0.1595
31139W        W32003  17.336  20.022   3.991  0.0464  0.0619 -0.0048
31140W        W32004  25.731  24.937  21.615 -0.3000 -0.1561  0.1232
31141W        W32005   4.442   0.035   9.121  0.2242 -0.0731 -0.0461
31142W        W32006  19.472   4.081  28.542  0.0089 -0.3794  0.0983
31143W        W32007  16.372   1.200  20.436  0.1908  0.0333  0.1338
31144W        W32008  22.071  27.972  25.277  0.1222 -0.4175 -0.0643
31145W        W32009  12.140   4.087  14.455  0.0041 -0.0995  0.1314
31146W        W32010  22.304   1.997   3.418  0.0986  0.2001 -0.0927
31147W        W32011  25.877   6.040  28.980 -0.2663 -0.4809 -0.2312
31148W        W32012   9.615  13.086  18.398 -0.1168  0.2785  0.0537
31149W        W32013   5.904  11.832  10.673 -0.3274 -0.0683 -0.0051
31150W        W32014  25.068  16.963  19.289 -0.0404 -0.2032 -0.1148
31151W        W32015   4.348  21.688  22.377  0.2496 -0.1431  0.0107
31152W        W32016   2.269   2.917   8.926 -0.0964 -0.2566 -0.2388
31153W        W32017   9.527  26.456   4.476  0.2510  0.1876  0.0147
31154W        W32018  20.188  22.200  13.125  0.1288 -0.1173 -0.2245
31155W        W32019  26.466   2.449  23.922  0.0407  0.0398 -0.0390
31156W        W32020  15.024  13.406   3.622 -0.0926  0.2223  0.1870
31157W        W32021   8.247   8.585  21.300 -0.0009 -0.0063 -0.1384
31158W        W32022  21.422  25.122  14.966  0.2146 -0.0840  0.0395
31159W        W32023  26.203  13.865   0.425 -0.1972  0.2483  0.1642
31160W        W32024  23.127  22.856  26.081 -0.4253 -0.0852 -0.0635
31161W        W32025   9.042   4.594   0.498  0.0815  0.0561  0.0497
31162W        W32026  19.773  10.429  16.359 -0.1285  0.2497 -0.0777
31163W        W32027  17.812  27.317  18.282  0.2237 -0.0752 -0.1165
31164W        W32028  21.918  28.343   9.703  0.1026 -0.0686 -0.2328
31165W        W32029  16.524   1.644   8.050 -0.0126 -0.0163  0.0832
31166W        W32030  22.497   4.937  16.602  0.0743  0.1191 -0.1156
31167W        W32031  25.986  19.103  22.897 -0.0280 -0.1135 -0.1079
31168W        W32032   6.170   7.283  25.290  0.0731 -0.0307  0.1200
31169W        W32033   5.109  22.012   7.296  0.0534 -0.0703 -0.1684
31170W        W32034  26.010  23.777  29.027 -0.0213  0.1814 -0.0987
31171W        W32035  25.834   0.209   9.273  0.1752 -0.1906 -0.1996
31172W        W32036  14.292  25.121  17.248  0.1836  0.1271  0.2185
31173W        W32037  15.557  11.626  28.121 -0.0507 -0.0194  0.1348
31174W        W32038  23.733  11.714  19.370  0.0837  0.2218  0.3312
31175W        W32039   4.087  16.419  12.382  0.2447 -0.0925  0.3232
31176W        W32040   5.012  15.110  18.674 -0.0305 -0.0389 -0.0906
31177W        W32041  24.375  28.744   5.928 -0.1013 -0.5561  0.0359
31178W        W32042  22.984  25.552  19.844 -0.2179  0.1378  0.1121
31179W        W32043   7.099  10.173  11.476  0.1035 -0.0267 -0.1476
31180W        W32044  24.209  26.529  25.110  0.1261 -0.0571 -0.0064
31181W        W32045   6.512   1.976  23.711  0.1912 -0.1895 -0.0319
31182W        W32046  16.763  21.530   1.149  0.1125  0.1506 -0.2642
31183W        W32047  24.242   3.088  14.775  0.0712 -0.0231 -0.1300
31184W        W32048   4.790   5.482  12.213 -0.1843  0.1565 -0.0480
31185W        W32049  21.957   6.314   5.254 -0.3108  0.1093  0.2205
31186W        W32050  28.286   0.125  14.449 -0.0694 -0.0595  0.3621
31187W        W32051   7.834  26.400  22.788  0.1209  0.0335 -0.1742
31188W        W32052  22.763  20.413  12.428  0.2844  0.3206 -0.1626
31189W        W32053  11.624   5.822  22.367 -0.1461  0.0115 -0.0096
31190W        W32054  22.183  20.564  18.908  0.0439 -0.0682 -0.2583
31191W        W32055   7.122   3.724   4.371  0.1958  0.1392  0.2240
31192W        W32056   8.735   0.521   0.053 -0.0901 -0.0276  0.1887
31193W        W32057  24.207   3.457  19.604 -0.0163 -0.0251  0.1285
31194W        W32058  11.648  22.622   6.136  0.0943  0.0813 -0.1065
31195W        W32059  15.441  28.858  18.583  0.4026 -0.1683  0.0241
31196W        W32060   5.741  13.646   0.693  0.2120 -0.0792  0.1253
31197W        W32061  16.286  23.832   9.900 -0.0973 -0.1281  0.0987
31198W        W32062   5.499  12.941   4.283  0.2112 -0.2291 -0.0335
31199W        W32063  18.937  25.021  22.261 -0.0436  0.1363  0.3191
31200W        W32064  15.639   8.460  21.971  0.0861  0.3078  0.2821
31201W        W32065  10.121  23.204  23.905  0.1653  0.4282 -0.1901
31202W        W32066  11.601  11.658  27.233  0.1152 -0.1602 -0.0784
31203W        W32067  25.305   8.717  15.352  0.2952 -0.0856 -0.3545
31204W        W32068  22.467  22.444  17.345 -0.1491  0.0100  0.1405
31205W        W32069  25.608   1.264   5.475  0.1609 -0.1544  0.2028
31206W        W32070  26.275   3.306  18.448  0.1692  0.1712 -0.1059
31207W        W32071   3.667  12.840  22.440  0.2749  0.1476 -0.3066
31208W        W32072  28.411   1.927  17.148 -0.0248  0.2417 -0.2090
31209W        W32073  10.751   8.377  26.484 -0.0379  0.0711 -0.0595
31210W        W32074  27.954  16.465  12.888 -0.0462 -0.2129  0.0237
31211W        W32075   1.000   7.806   3.880  0.0986 -0.0715 -0.0014
31212W        W32076  15.710  15.570  22.968  0.2325  0.0052 -0.0840
31213W        W32077  17.915  25.913   7.831  0.1989  0.0484  0.1113
31214W        W32078   3.784   6.895  27.061 -0.1374  0.0036  0.2135
31215W        W32079  24.499   7.748   4.078  0.2277  0.0702 -0.1751
31216W        W32080  14.684  13.249   0.830  0.0903 -0.0616 -0.1444
31217W        W32081   0.559  10.993   2.242  0.0018 -0.0087  0.4118
31218W        W32082  23.338  17.280  22.324 -0.3133 -0.1928 -0.3330
31219W        W32083  10.996   3.696   8.857 -0.2083 -0.3180  0.1014
31220W        W32084  18.567  15.496  11.708  0.0736  0.2186  0.1948
31221W        W32085  20.485   2.247  28.957  0.0700  0.1689 -0.0207
31222W        W32086  13.104   6.028  26.285 -0.3262  0.1209  0.0218
31223W        W32087   9.872  11.172  19.927  0.0447 -0.0061  0.1625
31224W        W32088  23.754   5.215  15.174  0.0777 -0.0009  0.0990
31225W        W32089  13.192   1.114  22.735 -0.0104 -0.1648 -0.2243
31226W        W32090   0.196  25.604  26.549 -0.1747 -0.0629  0.1891
31227W        W32091  27.071  13.885  22.585 -0.1151  0.1922  0.0541
31228W        W32092  18.365  15.899  18.357  0.3335 -0.2188 -0.0599
31229W        W32093  12.847  24.954  28.969  0.2824  0.0651 -0.0320
31230W        W32094  18.746  10.826   1.162  0.1287 -0.2566  0.3020
31231W        W32095   6.010  17.615   6.605  0.0520 -0.0467 -0.1674
31232W        W32096   6.071  15.452  25.889 -0.0283 -0.0306 -0.1183
31233W        W32097  20.359  22.830  25.457  0.0153  0.0480 -0.4182
31234W        W32098  16.576   2.986  25.955  0.1430 -0.0253  0.2592
31235W        W32099  11.862  13.912  22.015  0.0393 -0.1370 -0.0335
31236W        W32100  19.164  22.797  24.125  0.0995 -0.0546  0.0724
31237W        W32101  18.905   4.942  18.952  0.0113 -0.2042 -0.1570
31238W        W32102  27.418   3.696  22.913 -0.0553  0.1144  0.1036
31239W        W32103  26.657   7.993  15.260  0.1755  0.1343  0.1748
31240W        W32104  24.012  18.609  27.572 -0.0889  0.3324  0.0348
31241W        W32105  24.986  21.954   2.157 -0.1734 -0.1901 -0.2428
31242W        W32106  10.208   0.754   7.514  0.3377  0.0030  0.0213
31243W        W32107  17.501   2.452   2.317  0.2241 -0.3411  0.3041
31244W        W32108  15.687  21.995  20.594 -0.1210  0.4724  0.2912
31245W        W32109  28.116  17.169   1.869  0.3846  0.2189 -0.1342
31246W        W32110   2.720   8.724  14.820  0.1180 -0.3510  0.1091
31247W        W32111  19.257   6.496  13.354 -0.1493  0.1937 -0.0319
31248W        W32112  27.787  11.593  19.870 -0.0680 -0.2208  0.1171
31249W        W32113  19.341  16.522  28.103  0.1179 -0.0746  0.0853
31250W        W32114   4.183   7.049  18.086  0.1802  0.2887  0.0520
31251W        W32115  27.047   4.211   0.571 -0.2707 -0.0974 -0.2675
31252W        W32116  11.505  17.769  11.419 -0.1494 -0.1270  0.3298
31253W        W32117  25.706   1.903   3.943  0.3438 -0.0153  0.0174
31254W        W32118  17.747  24.829  13.908 -0.1003  0.0542  0.1067
31255W        W32119   4.859   5.317  20.106 -0.2597 -0.0008  0.1592
31256W        W32120   6.135  22.135  27.976  0.2121  0.1361 -0.1169
31257W        W32121  16.015   1.680  28.220  0.3223  0.0846 -0.1679
31258W        W32122  25.683   2.769  23.012 -0.0109 -0.1492  0.1844
31259W        W32123  28.674  16.271  26.358 -0.2127 -0.1612  0.1087
31260W        W32124  11.443  17.858  10.466  0.1045 -0.0972 -0.1453
31261W        W32125  20.713  23.087  25.209  0.1181 -0.0838  0.0544
31262W        W32126   4.692   8.123  10.708 -0.0439 -0.1554  0.3068
31263W        W32127  21.084  28.739   8.170 -0.1790 -0.0234 -0.2217
31264W        W32128  28.272  27.068   4.775 -0.0740  0.1718 -0.2700
31265W        W32129  11.511  26.047   6.143  0.0426  0.1084  0.2271
31266W        W32130  12.645   8.459  21.386  0.0105 -0.1123 -0.2173
31267W        W32131   1.265   3.675  26.921 -0.0186 -0.2509  0.2582
31268W        W32132   1.244  11.850  20.083  0.0389  0.0153 -0.2018
31269W        W32133  16.899  12.894  17.178 -0.0176 -0.0782  0.1555
31270W        W32134  17.082  28.075   9.717 -0.2150 -0.1361  0.3636
31271W        W32135  15.802  27.759   5.877  0.0958 -0.1153 -0.1178
31272W        W32136  14.605   0.539   6.531  0.1923 -0.0387 -0.2467
31273W        W32137  17.941   5.325   2.324 -0.3104 -0.2907 -0.3190
31274W        W32138  17.068  28.851   9.221 -0.0767  0.0886 -0.0051
31275W        W32139  13.896  28.582  27.201  0.1298 -0.2703  0.0790
31276W        W32140  27.559  26.181  23.506  0.3905 -0.1813  0.1487
31277W        W32141  10.465   5.616  11.873  0.0301  0.0063  0.2456
31278W        W32142  25.913   3.481  14.165  0.3853 -0.4456  0.2301
31279W        W32143  25.310   8.145  21.281  0.0170  0.1624  0.0767
31280W        W32144  24.855   6.496  19.367  0.2860 -0.0658  0.3870
31281W        W32145   4.031  18.091   9.073 -0.3555  0.4258 -0.1694
31282W        W32146  16.110  10.982  28.460 -0.0046 -0.2720 -0.2434
31283W        W32147  25.343  28.007   0.013  0.3243  0.1841  0.2543
31284W        W32148  18.076  27.810   4.709 -0.1345 -0.2399 -0.3165
31285W        W32149  18.753  22.672   9.332 -0.2909 -0.1226  0.2025
31286W        W32150  27.296   9.318   2.148  0.1559  0.1322 -0.0095
31287W        W32151  14.443  22.745   1.640  0.0750  0.0097 -0.3316
31288W        W32152  12.645   4.316  10.195  0.2196  0.1872 -0.1933
31289W        W32153   9.278   8.984   5.954 -0.2046  0.1946  0.0044
31290W        W32154  27.784   6.132   2.523 -0.2533  0.0241  0.1666
31291W        W32155  24.343   5.530  19.969 -0.1527 -0.1149  0.1107
31292W        W32156  15.667  28.465   7.771 -0.0439  0.1174  0.0107
31293W        W32157  20.094   1.086   4.041 -0.0805 -0.0326  0.0150
31294W        W32158  18.357  10.877  11.144  0.0360 -0.0277  0.2256
31295W        W32159  27.813  13.384   2.252  0.0953 -0.0004  0.4959
31296W        W32160  23.480  12.781  28.612 -0.1163 -0.3766 -0.0033
31297W        W32161  13.512   9.057  11.801 -0.3239 -0.2042 -0.3966
31298W        W32162  22.574  20.117   5.727  0.1193  0.5753 -0.0829
31299W        W32163   1.344  19.599  23.835 -0.0961 -0.1446  0.0041
31300W        W32164   7.131  28.337  25.620  0.0960  0.2885  0.2842
31301W        W32165   7.743  21.229  26.238 -0.0706  0.3890 -0.0898
31302W        W32166   9.796  13.911   6.452  0.3469  0.0534  0.3342
31303W        W32167  22.406  27.196   1.413 -0.0389 -0.0743 -0.4311
31304W        W32168  21.910  23.491  16.712 -0.1143  0.0835  0.0410
31305W        W32169  18.193  17.009   0.961 -0.2818  0.0586  0.0719
31306W        W32170  23.770   2.663   8.570 -0.0431 -0.1614 -0.0352
31307W        W32171   1.550  12.386  14.954  0.1955  0.0745  0.0104
31308W        W32172  27.302  26.566  14.263  0.0539  0.1492 -0.1402
31309W        W32173   5.201   3.432  26.727  0.0973  0.0251  0.2217
31310W        W32174  16.607  24.371  15.945 -0.2127 -0.0377 -0.1091
31311W        W32175   6.448   4.233   8.356  0.1765 -0.2460  0.2360
31312W        W32176  27.128   0.354   0.705 -0.2868  0.0003  0.0459
31313W        W32177  24.976  25.942  22.505 -0.0091  0.0410  0.1986
31314W        W32178   6.069  25.833   0.514  0.3266 -0.0530 -0.1722
31315W        W32179   0.670  11.235  14.333  0.0668  0.1004  0.0010
31316W        W32180  26.073   6.400   8.786 -0.0835  0.0279  0.1562
31317W        W32181  24.409  15.358  26.291  0.1702 -0.0032  0.1813
31318W        W32182   7.775   7.112  19.463  0.2621 -0.0865 -0.0350
31319W        W32183  16.927  15.379  28.545  0.0565  0.1983  0.0606
31320W        W32184  19.309   5.441   7.439  0.2089 -0.1475 -0.1235
31321W        W32185  12.056  16.737   6.637  0.1696 -0.1812  0.1126
31322W        W32186  21.453   1.875  11.625  0.0476  0.1727  0.1769
31323W        W32187   8.913  17.195  19.708  0.3048 -0.1796 -0.1219
31324W        W32188  23.627   9.563  11.650 -0.0086 -0.0015 -0.1690
31325W        W32189  25.431  10.406   2.854 -0.1764 -0.0075 -0.1552
31326W        W32190  23.832  10.365  25.152 -0.0792  0.0400 -0.0834
31327W        W32191   6.655  11.906  21.648 -0.1649  0.1031 -0.0111
31328W        W32192   4.592   5.210   7.280 -0.2679 -0.1350 -0.2834
31329W        W32193  25.859  26.507   1.580  0.0710 -0.0274 -0.0130
31330W        W32194  11.720   9.434   5.898  0.1473  0.0101 -0.1758
31331W        W32195   8.310  14.248   3.784  0.2331 -0.1532  0.0800
31332W        W32196  17.848  28.885   8.097 -0.1873 -0.1182 -0.2492
31333W        W32197  22.559  10.183  26.154  0.0788 -0.0765  0.1120
31334W        W32198  22.021   4.514   3.871 -0.0510  0.0024  0.3354
31335W        W32199   1.659   6.569   8.324  0.2669  0.1313 -0.2091
31336W        W32200   2.777  12.818  20.158  0.0904 -0.2132 -0.0402
31337W        W32201  18.247  26.095  22.660  0.2014  0.0023  0.1011
31338W        W32202   0.623   0.757  12.587  0.1157 -0.0258 -0.1984
31339W        W32203  20.960  17.238   6.334  0.1449  0.3559  0.1813
31340W        W32204  15.776  22.951   0.504  0.2802 -0.0547 -0.3130
31341W        W32205   9.393   3.842  23.423  0.0196 -0.2613  0.0558
31342W        W32206  14.233  29.069  22.634  0.0222 -0.1845 -0.1669
31343W        W32207  24.426  12.131   2.807 -0.1730 -0.0272  0.1681
31344W        W32208  19.517   2.519   4.598  0.0706 -0.0345 -0.1962
31345W        W32209  12.579  19.042   4.954  0.2750 -0.0478 -0.2196
31346W        W32210  17.629  23.460   6.389 -0.0311  0.2204  0.3027
31347W        W32211  16.790   1.255   6.294  0.2409  0.0426  0.1509
31348W        W32212  28.556  12.802   5.022  0.2640  0.1364 -0.0105
31349W        W32213  16.113   9.107  12.079  0.2112  0.5103  0.2830
31350W        W32214   7.854   2.812   2.860  0.1590 -0.0676 -0.1813
31351W        W32215   9.740   0.662  23.233  0.0300  0.2207 -0.0302
31352W        W32216   5.849  13.611   2.836  0.0991  0.2166  0.0122
31353W        W32217  26.005   5.687   5.176  0.0569 -0.1378  0.2025
31354W        W32218  24.128  17.236  28.225  0.1888  0.0588 -0.0136
31355W        W32219  20.388   1.734  25.278  0.0024  0.0424 -0.1005
31356W        W32220  10.006   4.738  26.883  0.0881  0.5490 -0.1549
31357W        W32221  26.974  28.823  21.776  0.1160  0.0487  0.2187
31358W        W32222  18.419  18.649  27.821 -0.1400 -0.0430  0.2228
31359W        W32223  24.159  26.400   6.132 -0.2618 -0.0591  0.2473
31360W        W32224   0.960  14.195  11.384 -0.2565 -0.1701  0.0715
31361W        W32225   7.966   3.568  28.909  0.0140 -0.3514  0.0763
31362W        W32226  23.832   6.633  22.857  0.0417 -0.0205  0.0846
31363W        W32227  26.877  28.403  20.134 -0.0874  0.0228  0.4450
31364W        W32228   3.838  12.217  10.018 -0.1065 -0.0908  0.1182
31365W        W32229   3.615  21.354  29.125 -0.1186 -0.0382  0.2735
31366W        W32230   3.314  19.972   6.130  0.3219  0.0959  0.0668
31367W        W32231   4.606  23.770  24.625 -0.1070 -0.2422  0.1177
31368W        W32232  15.644  23.618   8.406  0.0912 -0.2004  0.1106
31369W        W32233  17.875  22.127   0.127 -0.0836 -0.0854 -0.2465
31370W        W32234  18.940   4.975   5.800 -0.0675  0.1240 -0.0922
31371W        W32235  13.775  10.333   7.928  0.0073  0.0465 -0.4028
31372W        W32236  17.637   0.137  24.284 -0.0344 -0.2303 -0.0174
31373W        W32237  26.841  25.847  21.957  0.2559 -0.2066  0.0370
31374W        W32238  27.589   8.701  28.540 -0.0052  0.0501 -0.0455
31375W        W32239  13.689   3.476  15.195 -0.0396 -0.2136 -0.1547
31376W        W32240   6.616  23.126  20.690 -0.0548 -0.1643  0.1012
31377W        W32241  22.948  12.014   7.725 -0.0743  0.0406 -0.0574
31378W        W32242  22.527   8.793  23.302  0.2333  0.1029 -0.1282
31379W        W32243  21.619  23.301  28.943  0.2008 -0.0838  0.1672
31380W        W32244   4.792  11.787  11.349  0.0364 -0.0937 -0.1607
31381W        W32245  16.013  27.596  23.088  0.1489 -0.0723  0.2524
31382W        W32246  22.589   4.419   1.316 -0.2820  0.0830 -0.1165
31383W        W32247  25.262   0.019   4.843 -0.1385 -0.1634  0.2814
31384W        W32248   0.664  17.176  27.903 -0.1789  0.0773  0.3533
31385W        W32249  23.616   7.992   3.862  0.1499  0.0781 -0.0989
31386W        W32250  12.393  15.617  18.183  0.1161  0.0591  0.0541
31387W        W32251   7.336  25.329  26.005 -0.1506 -0.1150  0.3686
31388W        W32252   4.987  27.401  12.040  0.0770 -0.0775  0.1390
31389W        W32253  17.791   9.360  24.752 -0.0338 -0.2171 -0.0423
31390W        W32254  10.452  11.022   4.462 -0.3854 -0.2826 -0.0334
31391W        W32255  24.283   5.327  23.601  0.0663 -0.0635 -0.4075
31392W        W32256  26.802  27.135  13.212  0.2685  0.2341  0.1335
31393W        W32257  14.012  16.977  15.206 -0.1675 -0.0881 -0.0023
31394W        W32258  20.500  10.763  10.063  0.0454 -0.1496  0.2606
31395W        W32259   1.169  26.246   6.661 -0.1689 -0.0465 -0.0076
31396W        W32260   9.453  27.613  12.990  0.2244 -0.0342  0.0105
31397W        W32261  25.627  27.005   7.934  0.1728 -0.2641  0.2951
31398W        W32262  28.642   3.110  17.131 -0.0385  0.1920 -0.2672
31399W        W32263  17.934  17.423  21.588  0.0054 -0.1178 -0.0803
31400W        W32264   3.840   3.864  16.154  0.0566 -0.3083  0.0973
31401W        W32265  24.833  25.072   5.905 -0.1043  0.1236 -0.1737
31402W        W32266  22.096  26.194   8.944 -0.1328 -0.1936  0.0048
31403W        W32267  19.438  27.608  10.262  0.2341  0.2308  0.0857
31404W        W32268  28.861  14.524  16.070  0.0232  0.1790  0.2793
31405W        W32269  11.058  13.717  28.957 -0.1080 -0.0595 -0.1568
31406W        W32270  23.397  10.240  24.932  0.2740 -0.1323  0.1578
31407W        W32271  19.834   2.953   8.042 -0.0568  0.0555 -0.0574
31408W        W32272  18.289  15.320   5.431 -0.0348  0.0243 -0.0248
31409W        W32273  28.162  15.836  18.295  0.1683 -0.0269  0.1001
31410W        W32274  18.096  16.901   1.504  0.0611  0.2870  0.0859
31411W        W32275  19.413  26.089  25.663  0.0620 -0.2789 -0.2921
31412W        W32276  19.778   3.760  21.083 -0.1829  0.0197  0.1360
31413W        W32277   3.744   3.087   6.976 -0.2237  0.4625  0.0465
31414W        W32278  22.595  27.835   4.605  0.7272  0.0205  0.0704
31415W        W32279  20.712  22.921  17.660 -0.2285  0.0160 -0.2871
31416W        W32280  13.942  27.887   0.092  0.2987 -0.0404  0.1276
31417W        W32281  24.849  24.536  24.416  0.1110 -0.4550 -0.0791
31418W        W32282  19.146  25.379   2.120 -0.0560  0.0387 -0.1931
31419W        W32283  12.436  28.385   3.775  0.1184 -0.0059  0.0632
31420W        W32284  17.990  27.385   9.398  0.0975 -0.2623 -0.3624
31421W        W32285   5.605   8.581   4.714  0.2785 -0.2751  0.1088
31422W        W32286  22.175  21.454  20.659 -0.0526  0.0671  0.1895
31423W        W32287   2.373  16.935  11.888 -0.1197 -0.0043 -0.2962
31424W        W32288  12.041  15.327  10.683 -0.4403 -0.0478  0.1955
31425W        W32289  25.067  28.240   1.528  0.3493  0.0843  0.1268
31426W        W32290  12.702   1.739  22.485  0.1519 -0.3320 -0.3322
31427W        W32291   0.881   1.315   8.632 -0.0258  0.1402 -0.1494
31428W        W32292  14.789   8.632   1.772 -0.1550  0.0221 -0.0439
31429W        W32293   1.972  17.324  17.709 -0.0297  0.0099 -0.0023
31430W        W32294  13.895  28.754  25.639  0.2781 -0.1325 -0.0949
31431W        W32295  22.719  25.089   0.569 -0.4293 -0.0510 -0.1395
31432W        W32296  22.031  15.182   9.797 -0.4849  0.0764  0.1869
31433W        W32297   3.099   3.512  27.579  0.0302 -0.1347 -0.1136
31434W        W32298  26.296   9.773   7.857 -0.3228  0.1319  0.0908
31435W        W32299   9.682   2.134  21.413 -0.1264 -0.1245  0.2449
31436W        W32300  15.113  11.815  22.456 -0.0658 -0.2055 -0.1501
31437W        W32301  18.095  21.248   8.640  0.1817 -0.2856  0.1265
31438W        W32302   2.353  25.582   0.402  0.0140  0.0037  0.0531
31439W        W32303   0.592  11.539  28.247 -0.0852 -0.0788 -0.0468
31440W        W32304  13.357  24.611  12.264  0.0601  0.0876  0.1144
31441W        W32305  10.993  17.438   8.692  0.2113  0.2557  0.1893
31442W        W32306  27.777  21.164   3.488  0.1943 -0.1858 -0.1057
31443W        W32307  23.765  23.536  10.519  0.1214 -0.1291 -0.0303
31444W        W32308  27.063   5.469   3.580  0.0039 -0.1014  0.0733
31445W        W32309  26.185  23.786  19.683 -0.0209 -0.1511  0.3549
31446W        W32310  23.684  14.879  24.269 -0.0492 -0.0134  0.0355
31447W        W32311  17.252  19.933  19.357  0.2672  0.2338 -0.0241
31448W        W32312  20.333  11.848  23.818 -0.0067 -0.2603 -0.1971
31449W        W32313  25.662  21.891   3.692 -0.0904 -0.1015  0.3109
31450W        W32314  12.694  17.387  24.578 -0.3045 -0.1723 -0.1343
31451W        W32315  25.907   0.914   2.604 -0.0221  0.1187  0.2337
31452W        W32316  17.370  10.169   2.739  0.1271  0.1422 -0.1638
31453W        W32317   4.274  19.870  28.970  0.0283  0.0638 -0.0724
31454W        W32318  26.045  10.299  25.510  0.0531 -0.0924  0.3974
31455W        W32319   7.670   4.658   3.485  0.1694  0.1227  0.2084
31456W        W32320   3.447   7.531  28.330  0.1845  0.2091 -0.2203
31457W        W32321  12.267  24.038   4.103 -0.0851  0.0277  0.3612
31458W        W32322   7.696  19.888  14.060  0.0688 -0.0037  0.0466
31459W        W32323   4.513  25.883  10.061  0.1705  0.2352  0.5583
31460W        W32324  21.710   7.866  24.837  0.0713  0.0761 -0.2908
31461W        W32325  18.650  28.862   6.905  0.3498  0.2012 -0.2768
31462W        W32326   7.804  11.875  16.363 -0.0440 -0.1166  0.1310
31463W        W32327   3.736  27.924   7.721 -0.4770  0.3382  0.1757
31464W        W32328  17.502   7.333   2.461 -0.0224 -0.0991 -0.0455
31465W        W32329  20.575  27.474   4.064  0.3077 -0.3601 -0.0080
31466W        W32330  25.426   7.169  22.908 -0.0416 -0.0712 -0.0315
31467W        W32331   0.802  27.570  24.172 -0.1541 -0.3774 -0.0574
31468W        W32332  18.892   8.086  26.323  0.2568  0.0427 -0.0246
31469W        W32333  28.157  15.333  26.722  0.2659 -0.2907  0.0710
31470W        W32334   2.873   0.952  25.119 -0.2067  0.0231 -0.1910
31471W        W32335   0.179   5.131  15.803  0.4019 -0.0717 -0.1146
31472W        W32336  22.820   8.580  25.011  0.1495 -0.2260  0.0912
31473W        W32337   7.572  25.297  28.420  0.1122  0.2339  0.0671
31474W        W32338  19.941   0.748   3.375  0.0412  0.0279  0.1637
31475W        W32339  17.925  25.754  20.051 -0.1499  0.0676 -0.1541
31476W        W32340   9.999   2.498  17.523  0.0717  0.1478  0.0683
31477W        W32341  16.232  19.482  18.982  0.1787  0.2004  0.1752
31478W        W32342  21.484   7.781   7.397 -0.2188  0.1412  0.0604
31479W        W32343  24.365   9.366  18.482 -0.2350  0.0352  0.1551
31480W        W32344  28.129  19.740   8.263  0.0025  0.2900 -0.2071
31481W        W32345  23.689  11.665  14.802 -0.1665 -0.0615  0.0275
31482W        W32346  21.032   3.355  28.476  0.1582 -0.0141 -0.1076
31483W        W32347  22.554  26.598  22.318  0.0868 -0.0954  0.0270
31484W        W32348  11.801   0.219  12.078  0.0971  0.3793  0.1364
31485W        W32349  14.383  19.075   9.829 -0.0364  0.0274  0.0461
31486W        W32350  11.855  18.610  20.801 -0.0689 -0.0110  0.0056
31487W        W32351  28.036  20.497   7.011  0.2420  0.1509  0.0547
31488W        W32352  20.939  13.568  20.943  0.1615  0.3683 -0.2870
31489W        W32353  16.829   5.989  17.311 -0.2373  0.2111  0.2537
31490W        W32354  19.710   5.003  20.453 -0.0007 -0.3127  0.0947
31491W        W32355  27.458  28.233   1.533  0.0062  0.1310 -0.0695
31492W        W32356  25.406  18.560  13.851 -0.0696  0.0608 -0.3900
31493W        W32357   7.826  24.436   2.699 -0.1116  0.1775 -0.2529
31494W        W32358  28.259   2.118  24.294  0.1821  0.1000  0.1680
31495W        W32359  27.201  23.436  27.013  0.0177  0.2253 -0.1089
31496W        W32360  16.936  21.156  16.228  0.2739  0.0534  0.2595
31497W        W32361  25.931   2.331   9.526 -0.0520 -0.1582 -0.0141
31498W        W32362  27.357  22.416  19.945 -0.1625  0.0174  0.2183
31499W        W32363  19.364   8.859   4.252  0.0439  0.0381 -0.0220
31500W        W32364  14.348  12.367  28.236  0.2327  0.0943  0.0233
31501W        W32365  14.288  18.530  20.378  0.1677  0.1440 -0.1819
31502W        W32366   4.497  10.832   8.698  0.0324 -0.0539  0.0324
31503W        W32367  25.933   4.483   4.975 -0.0257  0.1668  0.0394
31504W        W32368  28.641  17.453  11.187  0.2342  0.0487  0.2392
31505W        W32369  21.335  14.847  12.434  0.0848 -0.2289  0.3047
31506W        W32370   8.208   9.936  14.764  0.0003  0.2149 -0.1219
31507W        W32371   0.109   1.331   0.799  0.1095  0.0930 -0.3708
31508W        W32372   5.638  27.729  28.607 -0.4334  0.2059  0.0556
31509W        W32373  15.639  26.181  24.676  0.0783  0.2852  0.0586
31510W        W32374  21.439  27.745  26.726  0.0717 -0.0802  0.0325
31511W        W32375  11.212  26.932  28.240  0.2662 -0.1201 -0.0419
31512W        W32376   8.485  27.603   0.726  0.1619  0.2130 -0.1029
31513W        W32377  12.899   5.272   9.285  0.4656 -0.5229  0.0652
31514W        W32378   3.118   4.186  18.718 -0.1507 -0.3195 -0.0246
31515W        W32379  17.705  18.053  18.846 -0.0395 -0.1597 -0.4007
31516W        W32380   8.599  14.699   4.012  0.0908  0.0837  0.1441
31517W        W32381   9.286  22.054  27.796  0.0609  0.0802  0.0054
31518W        W32382  14.423  21.352  26.709  0.1997 -0.0058  0.2572
31519W        W32383  23.033  11.264   0.108  0.2398  0.2758  0.0094
31520W        W32384  12.275   6.384  22.343  0.2610  0.1220  0.1339
31521W        W32385   5.699  16.286  20.349 -0.0988  0.0359 -0.1863
31522W        W32386  28.287  17.825  11.085  0.2905  0.0006  0.1598
31523W        W32387   4.860  12.410   2.075  0.3066  0.2072 -0.0532
31524W        W32388  14.523  21.756   4.943  0.2375  0.0657  0.1965
31525W        W32389  20.655   3.788  22.869  0.0122  0.2535  0.1898
31526W        W32390  24.463  18.380  19.883  0.1373  0.1013  0.0275
31527W        W32391   4.148   4.906  28.087 -0.0585 -0.0713  0.1058
31528W        W32392  17.023  12.534   7.012  0.1989 -0.0359 -0.1962
31529W        W32393  15.409   2.976   7.966  0.3301 -0.1875 -0.0066
31530W        W32394  15.112  25.985  14.771  0.2371  0.1460  0.1036
31531W        W32395  19.466  15.885  27.016 -0.0451  0.0041  0.0123
31532W        W32396  12.704  10.508  23.370 -0.2195 -0.0529 -0.3623
31533W        W32397   8.603  20.847   7.976 -0.0053 -0.2580  0.0724
31534W        W32398  24.902   1.416  12.609 -0.0643 -0.0324  0.1728
31535W        W32399  22.306   7.145  22.223 -0.1262 -0.2846 -0.2127
31536W        W32400   4.090   6.550  21.983  0.2431 -0.1230 -0.1094
31537W        W32401  21.583   6.792   5.363  0.0390  0.0502 -0.0057
31538W        W32402  22.486   0.212   7.232 -0.1451 -0.1667  0.1866
31539W        W32403  16.985  12.024  14.080 -0.1930 -0.0677 -0.3021
31540W        W32404   4.227  15.555   4.708  0.3941 -0.0050  0.1162
31541W        W32405  20.745   1.862  15.705 -0.5313  0.0407  0.1116
31542W        W32406  16.798  20.478   0.095  0.0462 -0.0111  0.4713
31543W        W32407   7.685   3.352   6.798  0.0243 -0.0083 -0.2388
31544W        W32408   0.278   3.284   4.395 -0.0388 -0.2267 -0.2207
31545W        W32409   0.551  12.772   2.447  0.0123 -0.1294  0.0580
31546W        W32410  13.200  24.256  15.900 -0.1584  0.3039 -0.2114
31547W        W32411   1.781   0.087   2.385 -0.2604 -0.1998 -0.1084
31548W        W32412   9.806  22.275   7.430 -0.0044  0.1128 -0.0915
31549W        W32413  11.285   3.288   1.773 -0.6034 -0.2030  0.0066
31550W        W32414  26.695  28.128   1.094 -0.0965 -0.3009 -0.0387
31551W        W32415  15.758   7.035  25.842 -0.1312  0.1942  0.0776
31552W        W32416  28.380   3.933  25.646  0.0808 -0.1844  0.0594
31553W        W32417   3.955   3.825  18.620  0.1394  0.2638 -0.2134
31554W        W32418  12.496   6.259   0.491 -0.0307 -0.0572 -0.1086
31555W        W32419   5.038   4.606  21.274  0.0827 -0.4177 -0.0032
31556W        W32420  21.457  12.982  12.170  0.3916  0.0783 -0.1455
31557W        W32421  16.634  25.604   3.331 -0.0155  0.1604  0.1117
31558W        W32422  24.258  29.103   0.967  0.0846 -0.1287 -0.0462
31559W        W32423  26.303  23.380  15.342 -0.2932  0.3769  0.0593
31560W        W32424  28.835  21.545  24.024 -0.3439  0.0706 -0.0182
31561W        W32425   2.126   9.713  22.165  0.0478 -0.1910  0.0561
31562W        W32426   4.109  14.265  22.131  0.1534 -0.1768  0.0102
31563W        W32427  27.980  26.280  22.474 -0.0898 -0.2046  0.0846
31564W        W32428  22.212   9.845  17.907  0.1749 -0.1818 -0.0220
31565W        W32429   0.816   7.171  11.991  0.1641  0.1853  0.1087
31566W        W32430  15.874  22.960  22.645 -0.2849  0.1307  0.0463
31567W        W32431  19.043   3.156   4.237  0.1524 -0.0630  0.1548
31568W        W32432  22.217   5.368  16.841 -0.1836 -0.1282  0.3705
31569W        W32433  10.308  24.666   3.280 -0.1239  0.0805 -0.0012
31570W        W32434  21.424  21.484   7.895  0.2034  0.0417  0.0397
31571W        W32435  22.339   1.112  12.925  0.0428 -0.3017  0.0957
31572W        W32436  27.258  26.679   3.795 -0.0374 -0.0266  0.1458
31573W        W32437   2.085   8.265  18.257 -0.2621 -0.1658  0.1829
31574W        W32438  11.418   7.119   9.774 -0.1880  0.0156 -0.1677
31575W        W32439  24.847  25.033  13.537  0.1399 -0.1946 -0.0040
31576W        W32440   6.391  26.669  15.662 -0.0838  0.3508  0.0914
31577W        W32441  21.366  18.014  26.952 -0.3153  0.1926 -0.0061
31578W        W32442  26.680   3.373  13.682 -0.0856  0.2152 -0.2655
31579W        W32443  25.084   4.210   7.743  0.1275 -0.1140  0.0510
31580W        W32444   0.932   0.172  27.642  0.0321  0.1903 -0.1532
31581W        W32445  24.305   3.885   2.808  0.0015 -0.2646  0.0072
31582W        W32446   9.257  12.895   5.125  0.1489 -0.1837  0.0701
31583W        W32447   8.099   8.862   3.609 -0.2410 -0.0431  0.0715
31584W        W32448  29.144   4.282   8.711 -0.1011 -0.0063 -0.2092
31585W        W32449  27.686   8.948   2.109  0.1548 -0.0118 -0.2868
31586W        W32450  20.678   9.029  28.961 -0.0274  0.2517  0.3560
31587W        W32451   2.588  28.236  28.714  0.0079  0.0772  0.0503
31588W        W32452  10.177  17.823   1.363 -0.1782 -0.1647 -0.1914
31589W        W32453  10.092   6.490  13.140  0.1224  0.0350  0.1654
31590W        W32454   6.984  14.623  20.448  0.2673  0.1039 -0.2187
31591W        W32455  20.776   4.338   2.045 -0.1187 -0.2041  0.0243
31592W        W32456  19.536   2.918   9.102  0.3089  0.2295 -0.1234
31593W        W32457  20.043   0.217  23.213  0.1959 -0.2122 -0.2345
31594W        W32458  13.077  12.023   3.809  0.0267  0.1525 -0.1090
31595W        W32459  12.111  22.530   5.272  0.0301  0.0480 -0.1263
31596W        W32460  24.699   3.937  24.906 -0.0250 -0.0848  0.2087
31597W        W32461  18.025   7.806   5.897 -0.1851 -0.0771 -0.0436
31598W        W32462  26.423   8.012  13.034 -0.3079  0.1116 -0.0443
31599W        W32463  23.036   2.504  18.756 -0.3327  0.0877  0.0447
31600W        W32464   2.774   1.605   5.346  0.1491 -0.0036 -0.0735
31601W        W32465  17.191   3.858   0.390 -0.1407  0.1430  0.1404
31602W        W32466  16.091  17.476  13.837 -0.2337  0.0476  0.1241
31603W        W32467  18.454   7.579  13.805  0.0567 -0.2566 -0.0728
31604W        W32468  17.491   0.423  26.401 -0.0429 -0.1383 -0.2860
31605W        W32469  24.300  27.602  19.139  0.0856  0.1308 -0.2047
31606W        W32470   6.697  28.434   0.873 -0.0540 -0.1694 -0.1137
31607W        W32471  17.820   9.445  11.774 -0.0670 -0.3151 -0.1945
31608W        W32472   2.213   5.624   7.898 -0.0595 -0.0613  0.2188
31609W        W32473  16.397  15.756  21.811  0.1877 -0.0184 -0.1708
31610W        W32474   4.908   3.015  13.347 -0.1805 -0.2662 -0.3773
31611W        W32475  26.154  21.634  26.984 -0.1249  0.1753  0.2359
31612W        W32476  21.531  21.133  28.390  0.0609  0.1477 -0.0435
31613W        W32477  28.911  13.087   5.343 -0.0951 -0.1172 -0.2120
31614W        W32478   9.681  28.604   6.648  0.1515 -0.0043  0.1082
31615W        W32479  27.081  20.736  24.194 -0.3232  0.0304 -0.0908
31616W        W32480  18.809   9.516   7.543 -0.0948 -0.1674 -0.1114
31617W        W32481  28.235  27.759   0.289 -0.2613  0.0232  0.2501
31618W        W32482   4.261   5.221   3.244  0.2221  0.0488 -0.0585
31619W        W32483  20.137   0.514   9.412 -0.0578  0.0121 -0.0053
31620W        W32484  21.631  28.225  22.573 -0.2411  0.0693 -0.0534
31621W        W32485  26.726  28.944  18.967  0.1181  0.0244 -0.1410
31622W        W32486   5.568  15.064  16.425  0.0932 -0.1229  0.0399
31623W        W32487  15.882   6.240  23.913  0.0441 -0.0466  0.2132
31624W        W32488  10.158   2.885  16.925  0.1578  0.0740  0.1144
31625W        W32489  18.343  11.520  11.687  0.0446  0.0363 -0.0480
31626W        W32490  15.931   2.340  24.920 -0.2870  0.0008  0.1165
31627W        W32491  10.621   4.275   8.038 -0.0525  0.0954  0.1717
31628W        W32492   0.549  11.639   6.908  0.1425 -0.0105  0.1618
31629W        W32493  28.919  19.112  17.582  0.1561  0.4715  0.0178
31630W        W32494  18.595   5.463   2.981  0.1357 -0.4336  0.1885
31631W        W32495  16.420   2.463  24.171  0.4973  0.3541 -0.0149
31632W        W32496  21.400  24.526   0.569 -0.0711 -0.1368 -0.1189
31633W        W32497  19.816  14.735   5.728 -0.1565  0.1054 -0.3579
31634W        W32498   8.501   4.728  23.572  0.2278 -0.1466  0.0148
31635W        W32499   4.497  26.898   5.085 -0.1254 -0.1505  0.0277
31636W        W32500  24.016   0.614  11.999 -0.0219 -0.1653  0.0124
31637W        W32501   7.564  23.736  24.561 -0.0383  0.0073  0.3441
31638W        W32502  23.312   5.599  17.669  0.0868 -0.2259  0.1885
31639W        W32503  23.794  27.572  29.122  0.3313  0.1461  0.2339
31640W        W32504  25.674  28.357   8.391 -0.2536 -0.1262 -0.1810
31641W        W32505  15.520  11.311  18.984  0.1482 -0.1331  0.1199
31642W        W32506  27.087   0.978  13.231  0.1355 -0.6197  0.1351
31643W        W32507  25.947  28.279   7.233 -0.1638 -0.0553  0.1825
31644W        W32508  24.350   6.436  24.254 -0.1208 -0.2932  0.0475
31645W        W32509  11.827   8.348  25.351 -0.1796  0.1110  0.0361
31646W        W32510  28.181  14.883   4.033 -0.0096 -0.0018  0.1159
31647W        W32511  25.813   8.662   1.454  0.3340 -0.2409  0.0467
31648W        W32512  20.502  14.743  28.119  0.3512  0.3218 -0.1386
31649W        W32513  21.326  14.263  17.412 -0.0937 -0.0449  0.2582
31650W        W32514   0.312   7.686  29.111  0.1599 -0.1740  0.0223
31651W        W32515   7.206  25.505  23.044 -0.1936  0.0834 -0.0064
31652W        W32516  22.807   6.504   4.552 -0.1460 -0.0353 -0.2411
31653W        W32517   1.101  22.851  23.443  0.1220  0.2569  0.1286
31654W        W32518  16.161  24.849  15.267  0.0592 -0.3005  0.4036
31655W        W32519   9.398  28.164  24.986 -0.1232  0.4503 -0.1250
31656W        W32520  25.997   6.473   3.948  0.1942 -0.1756  0.0089
31657W        W32521  18.330   3.827   5.726  0.1765  0.2066 -0.1353
31658W        W32522  15.531   2.979   0.189 -0.0574 -0.2256  0.2404
31659W        W32523  13.052   9.749   4.206  0.0146  0.1733 -0.1369
31660W        W32524  17.958  28.622   7.246 -0.1739 -0.0643  0.1256
31661W        W32525  18.497  13.581   0.669  0.1289 -0.1269  0.3055
31662W        W32526  16.965   1.654  27.167  0.1246  0.0018  0.0191
31663W        W32527  16.321  13.099  27.503  0.0100  0.0051 -0.0154
31664W        W32528   0.630  19.869  15.811 -0.0859 -0.0262  0.0729
31665W        W32529  11.588  26.261  21.735  0.0791  0.0546  0.0525
31666W        W32530  18.162   9.080  14.193  0.2017 -0.0921 -0.2445
31667W        W32531  25.151   9.827  22.965  0.0444 -0.1395  0.1234
31668W        W32532  24.864  16.312  24.138 -0.1779 -0.0585  0.2291
31669W        W32533  21.893   4.683   5.417 -0.0434  0.0521  0.0684
31670W        W32534   6.438  27.161  12.061  0.3161 -0.0801 -0.0986
31671W        W32535  21.615   2.441  23.149  0.3353  0.0109  0.0064
31672W        W32536  27.296  25.425  26.975 -0.3761 -0.1401 -0.1129
31673W        W32537  15.385   3.845  14.853  0.1308  0.0929 -0.3861
31674W        W32538   2.304  20.244   9.208  0.0484 -0.4471  0.0912
31675W        W32539   3.098   4.575   3.071  0.0142  0.0462  0.2323
31676W        W32540  19.229  21.055  18.447 -0.1937 -0.1325 -0.1366
31677W        W32541   1.796   1.523  21.222 -0.0436  0.0548 -0.1349
31678W        W32542  19.444  12.056  16.132 -0.1853  0.2614 -0.2116
31679W        W32543   5.068  21.015  10.983 -0.0629 -0.2657  0.0113
31680W        W32544  23.495   7.765  19.855  0.0332  0.2725  0.2145
31681W        W32545  22.864  24.859  14.409  0.1099 -0.0018  0.2473
31682W        W32546   7.070  27.931   3.765  0.2959  0.1998 -0.2862
31683W        W32547   1.007  21.277  12.864 -0.0592 -0.0419 -0.0333
31684W        W32548   0.445  12.448   1.750  0.0282  0.2338  0.5279
31685W        W32549  24.022   0.739  11.032  0.4467  0.2078  0.0193
31686W        W32550   0.246   9.660  20.748  0.7181 -0.2031  0.0955
31687W        W32551  23.787   6.617  10.864  0.1809 -0.0429 -0.1633
31688W        W32552  23.963   0.985   9.103  0.0186  0.1727  0.0742
31689W        W32553  23.308   9.909  19.725  0.1753  0.1427  0.0869
31690W        W32554  15.489  18.404  25.858  0.2833  0.0157 -0.3520
31691W        W32555  22.657   1.895  16.101 -0.1846  0.3050 -0.1042
31692W        W32556   6.788  23.922   9.916  0.0075 -0.0111 -0.0479
31693W        W32557  19.769   7.556  24.566 -0.1817 -0.1079 -0.4406
31694W        W32558  20.725  27.713   3.278  0.0077 -0.2894  0.1506
31695W        W32559  19.731   6.012   5.533 -0.5041 -0.1092 -0.0049
31696W        W32560  20.188   6.407  17.214 -0.1757  0.2603 -0.1662
31697W        W32561  27.487   8.006   5.827 -0.0045  0.1672 -0.0857
31698W        W32562   1.954  19.564  12.296 -0.0361 -0.1200 -0.3544
31699W        W32563  28.880   8.520  17.119 -0.0703  0.0187 -0.0750
31700W        W32564  18.323   3.340  13.004  0.1460  0.0681 -0.0131
31701W        W32565  28.125  12.996   2.784 -0.1198 -0.2095  0.3261
31702W        W32566   7.348  10.777  15.911  0.0695  0.0060 -0.2805
31703W        W32567  14.041   2.396  16.201 -0.1896  0.0367 -0.2833
31704W        W32568  23.705  18.749  28.961 -0.0021  0.0935  0.1898
31705W        W32569   2.268  13.569  19.242 -0.2385 -0.0434  0.0553
31706W        W32570  10.800   9.670  16.782  0.0270  0.0412  0.3467
31707W        W32571  23.449   7.283   7.430 -0.0366  0.0976 -0.0279
31708W        W32572  18.875   2.131   5.815  0.0436 -0.1168 -0.1223
31709W        W32573   8.988   6.304  14.038 -0.5454 -0.1113  0.2192
31710W        W32574  16.203  21.442  12.208 -0.1031  0.1853 -0.2558
31711W        W32575  23.842  14.624  26.016  0.0322  0.0959  0.1144
31712W        W32576  13.633  17.401  24.261  0.0132 -0.0654 -0.1891
31713W        W32577   4.293  28.625  25.745 -0.1345  0.3244  0.3902
31714W        W32578  13.327   6.581  13.908 -0.2006  0.0370  0.2185
31715W        W32579  20.277   9.470  15.684 -0.0767  0.0846  0.2555
31716W        W32580  26.318  14.240   2.434  0.1331  0.1089 -0.0486
31717W        W32581  16.739   0.710   2.823  0.1608 -0.0057 -0.2828
31718W        W32582   0.294  29.141   7.328 -0.0225  0.1490 -0.0925
31719W        W32583  15.032  23.287   9.038 -0.1110  0.1307 -0.2598
31720W        W32584   7.544   5.954  27.775 -0.0887  0.3379 -0.2446
31721W        W32585  24.592  14.472  17.104  0.1324 -0.0686 -0.3006
31722W        W32586   0.599  13.654   4.658  0.4033 -0.1009  0.0022
31723W        W32587  25.265   7.160  21.775 -0.1188  0.0232 -0.0360
31724W        W32588  15.769   4.862   0.323 -0.1402  0.0124  0.4400
31725W        W32589  23.564   3.731  14.905 -0.0114  0.1581 -0.0209
31726W        W32590  25.689   3.996   6.485  0.1297  0.2239  0.2517
31727W        W32591  20.880   4.225   9.593  0.1244 -0.3079  0.2879
31728W        W32592  16.244  14.416  27.387 -0.1952 -0.0537 -0.3012
31729W        W32593  21.677   0.710   3.256  0.2263  0.1956 -0.1817
31730W        W32594  17.931  27.882   3.913 -0.1823 -0.1616 -0.0531
31731W        W32595   4.586  10.045  22.148 -0.3994  0.1041 -0.0899
31732W        W32596  13.016  11.717  13.894  0.1128 -0.1478  0.1285
31733W        W32597  11.806  18.263   9.610 -0.1189 -0.0322 -0.0773
31734W        W32598  15.504   6.170  25.398  0.0355  0.0516 -0.1451
31735W        W32599   6.256  25.586   7.595  0.0629  0.1022  0.3779
31736W        W32600   0.741  28.866   7.708 -0.0294 -0.2290  0.0093
31737W        W32601  17.687  23.257  23.127 -0.1364 -0.0333  0.0819
31738W        W32602   7.251  11.825   1.100 -0.1417 -0.0667 -0.0548
31739W        W32603  26.402   4.230  23.273 -0.2624 -0.1614 -0.0287
31740W        W32604  22.530  16.199   5.230 -0.1344  0.1882 -0.0642
31741W        W32605  14.752  25.814  12.981  0.0501  0.0879  0.0822
31742W        W32606  13.328   6.360   6.281 -0.2241  0.0882 -0.3627
31743W        W32607  26.419   2.959   7.730 -0.1131  0.1064  0.0231
31744W        W32608  19.841  20.155  26.562  0.1865 -0.0017  0.0675
31745W        W32609  18.041  12.128   4.251  0.2948  0.1241  0.1109
31746W        W32610  21.363  18.631   7.236 -0.0763 -0.1241 -0.1555
31747W        W32611  16.249   7.888  13.320  0.0558  0.1822  0.0464
31748W        W32612  14.279  15.626  19.878 -0.1540  0.3492  0.0952
31749W        W32613  24.910   1.055   9.182  0.1130  0.4102 -0.1764
31750W        W32614   1.924   3.763   3.553 -0.1394 -0.0932  0.1400
31751W        W32615  19.108   7.582   5.894 -0.0233 -0.0903 -0.0181
31752W        W32616  24.699  10.694  28.650 -0.5587 -0.0253  0.0217
31753W        W32617   1.507  19.801  11.140 -0.0765  0.0488 -0.2302
31754W        W32618  11.377  18.508  27.925 -0.1444  0.0070 -0.0475
31755W        W32619   8.337  26.022   0.900  0.2258 -0.2437 -0.0232
31756W        W32620   5.672  16.091  22.784 -0.0428 -0.1661 -0.2649
31757W        W32621  20.887  20.590   8.861 -0.1317  0.1806 -0.0365
31758W        W32622  18.470   5.179  11.586  0.0727 -0.0474 -0.1466
31759W        W32623  22.846  20.568   6.580  0.1735 -0.0300 -0.0778
31760W        W32624  23.728  17.129  21.980  0.0161 -0.0502  0.0435
31761W        W32625   2.954  11.906   5.809 -0.3110 -0.2903 -0.2954
31762W        W32626  25.618   2.972  23.467 -0.0556 -0.1794  0.2115
31763W        W32627  23.954  16.380  27.210 -0.1988  0.1176  0.0878
31764W        W32628   0.452   0.229  11.362 -0.2681  0.1380  0.2512
31765W        W32629   3.096  28.464   1.809 -0.0127  0.1631  0.1001
31766W        W32630  14.504   6.271   7.258  0.1998 -0.0692  0.1319
31767W        W32631   4.186   9.285  17.584  0.1137 -0.0257  0.1598
31768W        W32632  28.691  24.096  11.586  0.3085  0.0688  0.2352
31769W        W32633  28.362   5.483   9.740  0.1192 -0.3365  0.0303
31770W        W32634   2.774  18.591   3.026  0.1521 -0.0229 -0.4188
31771W        W32635  18.896  27.608   6.640  0.0043 -0.0061 -0.2781
31772W        W32636  19.734  27.970  17.433  0.3221 -0.1664 -0.0647
31773W        W32637   0.345  25.696  11.730 -0.1553 -0.1067  0.4968
31774W        W32638  13.478  12.851  15.671 -0.2026  0.0357  0.1515
31775W        W32639  21.836   0.497  11.697 -0.2259 -0.1418 -0.3687
31776W        W32640  11.238  27.494  23.405  0.2698  0.1040 -0.2859
31777W        W32641   1.361  28.986   4.171  0.1108  0.0071 -0.0608
31778W        W32642   2.144   2.900   2.026  0.1952  0.2965  0.1464
31779W        W32643  11.137   8.558   5.175 -0.0087 -0.1838 -0.1674
31780W        W32644  15.727  15.959  28.992 -0.1102 -0.0209 -0.1398
31781W        W32645   7.916   9.076  18.995  0.0475  0.0670  0.2345
31782W        W32646  23.432   9.570  11.089  0.1266 -0.1424  0.0734
31783W        W32647  28.133   1.066   5.810  0.0068 -0.1830  0.1575
31784W        W32648   9.076   3.833  22.215  0.4454  0.2748  0.1525
31785W        W32649   7.357   2.573  20.302 -0.3795  0.2949  0.1129
31786W        W32650   2.518   5.078  12.245 -0.1543 -0.0650  0.0077
31787W        W32651   7.747   1.539  20.030 -0.0260 -0.1311  0.1318
31788W        W32652  14.738   7.026  12.631  0.2234 -0.1845  0.0402
31789W        W32653   4.119   4.302  19.058 -0.0942  0.2389  0.2688
31790W        W32654  25.584   4.374  28.060  0.2291 -0.2101  0.4755
31791W        W32655  27.819  27.740   8.061 -0.1810  0.4689 -0.0254
31792W        W32656  21.758  10.401  21.671  0.1085 -0.0965  0.1748
31793W        W32657  24.384   5.944  28.890  0.1530 -0.0720 -0.0207
31794W        W32658  10.641   0.810   9.377  0.1903 -0.0104  0.2031
31795W        W32659  13.685   4.547  11.567 -0.1059  0.1755 -0.0047
31796W        W32660  22.346  11.654  22.979  0.1557 -0.1078 -0.1143
31797W        W32661   8.323   2.577  20.938 -0.0099  0.3030  0.0410
31798W        W32662  14.933   3.835  11.513 -0.0394  0.2840 -0.0819
31799W        W32663  23.172  14.403  18.876  0.0548  0.0532  0.0224
31800W        W32664  25.360   9.172   8.267 -0.0668  0.1119 -0.0519
31801W        W32665  28.192  27.256   7.393  0.1633  0.1374 -0.3011
31802W        W32666  18.680  26.244   8.322  0.0741 -0.0337  0.1171
31803W        W32667  17.631  14.242  13.855  0.1257 -0.1641 -0.1092
31804W        W32668   4.002  15.707  16.830  0.3907 -0.1332 -0.0133
31805W        W32669  18.460  11.587  28.284  0.3051 -0.0444  0.0347
31806W        W32670   5.843  18.930  12.841 -0.2401  0.3157 -0.0911
31807W        W32671  16.303   3.461   7.099 -0.3493  0.0995  0.0622
31808W        W32672   9.365   2.652   6.542  0.1457  0.0233 -0.0813
31809W        W32673  28.687  23.917  27.569 -0.0931  0.2411 -0.2377
31810W        W32674  23.988   7.042   9.910 -0.0021 -0.2522 -0.0939
31811W        W32675  24.220  23.033   3.571 -0.0550  0.0839  0.1571
31812W        W32676  21.881   5.954  12.094  0.3552  0.2847  0.0073
31813W        W32677   3.723  12.519  25.112 -0.0919 -0.2200 -0.0472
31814W        W32678  15.007  17.911  20.104  0.1337 -0.0251  0.0775
31815W        W32679  26.050  27.481  23.582  0.1376 -0.0887 -0.3191
31816W        W32680  21.283   3.126   8.323 -0.0209  0.1389 -0.2895
31817W        W32681  15.586  10.551  26.469  0.4451  0.0688  0.0453
31818W        W32682  19.972   0.823  26.215  0.1114 -0.1040  0.2937
31819W        W32683  21.026  13.577  13.685 -0.2121 -0.2500  0.3832
31820W        W32684  12.381   3.564   4.906  0.2066 -0.1113 -0.0511
31821W        W32685   7.486  20.750   3.865 -0.2140  0.0994 -0.1619
31822W        W32686   8.591  10.082  24.335 -0.0551  0.1795 -0.0390
31823W        W32687  17.586  10.346  20.694  0.3473  0.1843  0.2065
31824W        W32688  26.934   8.181  28.654 -0.0694  0.2270  0.0576
31825W        W32689  15.007  24.859   5.047 -0.3402  0.1952 -0.0889
31826W        W32690   7.082  11.102  11.815 -0.0810 -0.0832  0.1375
31827W        W32691  21.976   5.175  17.460 -0.1655  0.1329 -0.0842
31828W        W32692   9.709  11.753  25.876 -0.0395 -0.1775 -0.1016
31829W        W32693  22.297  17.467   7.475 -0.1762 -0.1547 -0.1195
31830W        W32694  22.464  19.185   3.815  0.2931  0.3115  0.2992
31831W        W32695  16.634  16.560   3.607  0.3641 -0.0606  0.3485
31832W        W32696   0.182   1.312   1.407  0.2231  0.4869 -0.0888
31833W        W32697  19.992  25.158   5.401 -0.0611 -0.3012  0.1195
31834W        W32698   1.256  24.103   4.020  0.0271  0.0861 -0.2732
31835W        W32699   9.585  23.811  18.385  0.1188  0.2109  0.1259
31836W        W32700   6.803  24.727   8.488  0.1971  0.2180  0.1077
31837W        W32701  23.093  15.725  16.290 -0.1087  0.1870 -0.0495
31838W        W32702  11.163  21.850  19.602  0.1740 -0.2132  0.4182
31839W        W32703  17.420   0.333  13.525 -0.3124  0.0744 -0.1735
31840W        W32704  24.675   8.790  24.524 -0.2630 -0.1283  0.1244
31841W        W32705   7.881   0.028  10.004 -0.1415 -0.0366 -0.2821
31842W        W32706  17.932  16.206  23.012  0.1815 -0.0241 -0.0640
31843W        W32707  24.807   8.214  23.977  0.3255  0.1558  0.1038
31844W        W32708  14.898   5.894   4.867  0.0743 -0.0286 -0.1314
31845W        W32709   2.544  28.982  17.877  0.0878 -0.0568 -0.1036
31846W        W32710   4.068  12.706  18.960 -0.0695  0.1833  0.0391
31847W        W32711  28.571   4.018  27.666 -0.1428 -0.0492  0.0643
31848W        W32712   5.845  28.448  14.738 -0.2168 -0.3301 -0.0540
31849W        W32713  27.188   7.078   8.046 -0.4159  0.1688 -0.5205
31850W        W32714  27.780   7.390   2.377  0.0469 -0.0480 -0.2005
31851W        W32715  21.305   8.767  25.897  0.0172 -0.0585  0.0049
31852W        W32716  18.403  18.960   0.439 -0.2853 -0.1026 -0.3779
31853W        W32717   6.862  10.697  12.016  0.0035  0.0752 -0.0788
31854W        W32718   5.366  28.934  11.205  0.0152 -0.0053  0.1336
31855W        W32719  12.790  16.184  25.437 -0.1194  0.4818 -0.2428
31856W        W32720  17.670   4.306   4.741 -0.2666  0.3660 -0.0648
31857W        W32721  16.537  23.035   7.592 -0.2264 -0.4115  0.3095
31858W        W32722   6.888   6.633   0.874 -0.1381  0.2620  0.1142
31859W        W32723  16.797   5.309  18.019 -0.0339  0.0612  0.1882
31860W        W32724  22.163  14.615  16.406 -0.0827 -0.0217  0.0436
31861W        W32725   0.505  21.128   5.162  0.1844  0.3414 -0.3189
31862W        W32726  25.919  16.143   7.716 -0.1604  0.1176 -0.2162
31863W        W32727  11.854  21.211  25.616  0.1013 -0.2246  0.1919
31864W        W32728   1.434   4.323   7.659 -0.0025 -0.1208 -0.0058
31865W        W32729  20.769   4.791   3.279  0.1026 -0.2710 -0.2650
31866W        W32730  14.659   2.847   2.974  0.3051  0.1375 -0.0496
31867W        W32731   8.348  24.536   5.123 -0.0203 -0.0051  0.1234
31868W        W32732   3.264  24.811   0.309 -0.1552 -0.1616  0.0964
31869W        W32733  18.870   0.441   6.658 -0.0102 -0.1372 -0.1265
31870W        W32734  13.631  24.862  25.048 -0.2621  0.0716 -0.2481
31871W        W32735  18.764  22.384  10.682 -0.0102  0.2886  0.0937
31872W        W32736  17.495   1.974   2.942  0.2870 -0.1184  0.1401
31873W        W32737   1.592   1.348  11.713  0.1634  0.2655  0.2044
31874W        W32738  24.435  28.182  11.423  0.5934 -0.0595  0.1127
31875W        W32739   1.981   5.796  27.055  0.0368  0.0640 -0.1552
31876W        W32740   3.591  12.090  11.983 -0.1448  0.0846 -0.0506
31877W        W32741  21.684   5.672  14.823  0.2413  0.3129 -0.0916
31878W        W32742  23.975   7.916   7.002 -0.0061  0.1981 -0.1531
31879W        W32743   1.476   1.182  26.395 -0.3513 -0.2124  0.1364
31880W        W32744  22.500  27.587  15.065 -0.0280  0.3748 -0.0685
31881W        W32745   1.236   2.694  17.750 -0.0368 -0.1494  0.0846
31882W        W32746   7.222  16.691  22.793 -0.1586  0.2581 -0.3592
31883W        W32747   5.943  15.280  18.410 -0.4223 -0.0861 -0.3185
31884W        W32748  19.816  10.740  10.566 -0.0526 -0.3152 -0.1228
31885W        W32749  21.997  13.807  22.273  0.1595  0.2729  0.0333
31886W        W32750   3.247   2.007  20.272  0.1838  0.0922  0.2024
31887W        W32751  23.586   8.032   7.770  0.2955  0.5844  0.1656
31888W        W32752   0.625   8.183  25.627  0.2562  0.0083 -0.1450
31889W        W32753  28.389   4.215  11.312 -0.1623 -0.3565  0.0957
31890W        W32754  10.068  28.875  15.385 -0.0095  0.0707 -0.0460
31891W        W32755  20.648   0.245   9.266 -0.1013 -0.1268  0.0917
31892W        W32756  14.068  22.776   8.331  0.0689  0.0370 -0.0533
31893W        W32757  28.968  10.113  27.985 -0.0739 -0.0376  0.1043
31894W        W32758  14.679  15.347   9.917 -0.1950 -0.1252 -0.0398
31895W        W32759  10.252   1.964  19.645  0.1585 -0.2674 -0.1209
31896W        W32760  25.385   8.010  16.677  0.1116  0.0096 -0.0186
31897W        W32761   6.944  19.041  25.712  0.0371 -0.0036 -0.2264
31898W        W32762   5.763   0.761   5.195  0.0254  0.1077 -0.1175
31899W        W32763  21.039   5.837  19.422 -0.2462 -0.0555  0.0881
31900W        W32764   3.216  22.894   2.798 -0.0529 -0.0340 -0.0827
31901W        W32765  17.361  27.472   8.344 -0.1102 -0.1723 -0.1532
31902W        W32766  21.051   9.575   0.680  0.2239  0.0313 -0.1748
31903W        W32767   8.119  15.210   7.596 -0.1482 -0.0177 -0.0838
31904W        W32768  22.615  12.111   2.481  0.0022 -0.0955 -0.0738
31905W        W32769  18.816  12.641  22.272 -0.3296  0.1198  0.0591
31906W        W32770   3.112   7.278   0.888 -0.1549  0.3008  0.0223
31907W        W32771  21.529   3.012  14.402  0.4470  0.4558  0.1100
31908W        W32772  14.169  25.277  10.258  0.2313 -0.3459  0.0207
31909W        W32773   0.710   2.401  26.975 -0.1792  0.2102 -0.2697
31910W        W32774   2.015   4.247   5.873 -0.1590  0.2326 -0.0128
31911W        W32775  22.002  27.104   0.242  0.0760  0.1789 -0.3282
31912W        W32776  24.924   6.960  21.489  0.0197 -0.0026 -0.0785
31913W        W32777  27.684  27.862  12.099  0.2662  0.2800 -0.0829
31914W        W32778  27.508  13.200  21.653  0.4245 -0.1208 -0.2495
31915W        W32779  16.534   4.149  28.430  0.2018  0.0694 -0.0500
31916W        W32780   6.488  16.076  26.157 -0.1125  0.1539  0.2084
31917W        W32781   0.183  18.306  16.691 -0.2931  0.2749 -0.0267
31918W        W32782  20.401  14.062  14.541  0.3346  0.0451  0.2157
31919W        W32783  14.078  21.442  26.312 -0.3196  0.0442 -0.3747
31920W        W32784  19.166   5.688  20.958  0.0119  0.0977  0.2185
31921W        W32785  15.806  18.007   7.251 -0.2834 -0.2909  0.0244
31922W        W32786  27.715  20.771  13.003  0.0367 -0.1148  0.0306
31923W        W32787  18.443  17.540  15.027 -0.2094  0.2520 -0.1502
31924W        W32788  20.498   4.756  16.783  0.2566 -0.1734 -0.1248
31925W        W32789   6.652  23.554  12.710  0.1662  0.1302  0.1134
31926W        W32790   0.657  27.699  12.869  0.3026 -0.1134 -0.1387
31927W        W32791  24.746  14.086  26.315  0.0101 -0.0796  0.2047
31928W        W32792  16.739  18.516   4.275  0.2587  0.0992 -0.3151
31929W        W32793  23.088  11.424   9.733 -0.1835  0.2906  0.0891
31930W        W32794  22.182  20.449   7.805  0.0246 -0.2566  0.0703
31931W        W32795  25.216  26.294   9.218 -0.2164 -0.0726 -0.0655
31932W        W32796   9.076   0.488   9.575  0.1008 -0.0077 -0.0342
31933W        W32797  13.544  10.160   0.357  0.1582 -0.1764 -0.0812
31934W        W32798   6.035  23.746   1.172  0.1401  0.0180  0.4357
31935W        W32799  15.929  26.930   8.986 -0.0335  0.2377  0.4977
31936W        W32800  14.135  12.495  17.128  0.0070  0.1187 -0.0151
31937W        W32801  14.178  19.094   6.628 -0.0995  0.2407  0.1075
31938W        W32802  21.411   2.607  23.997  0.1594 -0.1353 -0.1043
31939W        W32803  24.257  18.461  17.986  0.4235  0.1698 -0.0010
31940W        W32804   1.050   0.257   4.793 -0.1281  0.0673 -0.0117
31941W        W32805  22.435   7.776   7.885 -0.1713 -0.1366  0.2060
31942W        W32806  16.733  19.662   0.698  0.2675 -0.1598  0.0679
31943W        W32807  15.858  21.325  28.156  0.0652  0.2320  0.0785
31944W        W32808  12.495   9.595   6.788 -0.0942 -0.1699 -0.0148
31945W        W32809  12.958  19.135  16.052  0.4290 -0.4800  0.3408
31946W        W32810  21.332  15.649   5.174 -0.0336  0.2529  0.1991
31947W        W32811  25.670   0.534   3.032 -0.2688 -0.2491 -0.0719
31948W        W32812  10.324   5.868   5.291  0.3080 -0.2349  0.1408
31949W        W32813  26.094   5.898  27.947 -0.0452  0.4122 -0.2549
31950W        W32814  22.643  23.160  11.280 -0.2806  0.0458  0.0738
31951W        W32815  19.719   6.541   1.493  0.0518  0.3747  0.1226
31952W        W32816   7.927   9.457   0.994 -0.1357 -0.0631 -0.0823
31953W        W32817  18.911   6.626  18.505 -0.2631 -0.2491  0.0092
31954W        W32818  21.040  27.293   7.357 -0.1525  0.1126  0.1613
31955W        W32819   9.830   1.347  13.082 -0.0859 -0.1328  0.2038
31956W        W32820   7.918  24.119   4.615 -0.0090  0.0696 -0.0920
31957W        W32821  24.304   3.799   3.367 -0.0224  0.0488 -0.4734
31958W        W32822   4.298  20.710   7.028  0.0042 -0.0217  0.1243
31959W        W32823   6.728   7.943  11.856  0.0784  0.0477  0.1726
31960W        W32824  16.455   4.858  22.776 -0.0176 -0.1913 -0.2423
31961W        W32825  19.936  18.135  10.087 -0.1383  0.1131 -0.0914
31962W        W32826   1.605   4.475  17.540 -0.2864 -0.2459 -0.1449
31963W        W32827  19.982   0.614  16.277 -0.0927  0.0598  0.0334
31964W        W32828  18.787   4.695   7.883 -0.2862  0.0090  0.1689
31965W        W32829  25.619  19.160   5.331 -0.4761  0.0193  0.1412
31966W        W32830  26.470  25.365  22.725  0.1034  0.0868  0.0774
31967W        W32831  19.645  26.239  11.395  0.1316  0.2299  0.1532
31968W        W32832   9.155  21.396   3.610  0.2467 -0.2659  0.2211
31969W        W32833  16.121  13.735  13.375 -0.0203 -0.2075  0.0862
31970W        W32834  26.572  10.005  25.083  0.0253 -0.1937  0.1211
31971W        W32835  27.771  22.818  10.267 -0.2582  0.1139 -0.3912
31972W        W32836  13.211   0.734   5.180 -0.1780  0.1158  0.1956
31973W        W32837  12.420  27.278  12.830  0.1025  0.4867  0.0373
31974W        W32838   3.582  22.136  19.245 -0.1835 -0.0233  0.1638
31975W        W32839   8.965   4.094  23.917  0.4732  0.0921 -0.1499
31976W        W32840  23.660   6.594   0.718 -0.1188 -0.1346 -0.1920
31977W        W32841   7.553  25.326   2.185 -0.1197 -0.0568 -0.0348
31978W        W32842  21.338  23.877  25.158  0.3052  0.2083 -0.1690
31979W        W32843   7.867   7.310   8.475 -0.1630 -0.1566  0.1020
31980W        W32844  15.961   8.571  28.076 -0.0962 -0.1285 -0.1829
31981W        W32845   5.548  26.290  27.169 -0.0756  0.2077 -0.0879
31982W        W32846  13.763  21.252  10.880 -0.0744 -0.0896  0.1172
31983W        W32847   9.785  21.624   6.683 -0.1023 -0.0765  0.1409
31984W        W32848   8.335   4.031   0.510 -0.0595  0.1117 -0.3004
31985W        W32849  24.297  28.270   6.744  0.2314  0.0345  0.0335
31986W        W32850  21.415  20.933  11.630 -0.0385 -0.1135 -0.0326
31987W        W32851   6.984   8.793   5.467 -0.0843  0.0152 -0.0025
31988W        W32852  17.840  15.736   8.718  0.2035 -0.1650 -0.2075
31989W        W32853   2.430  26.697  10.580  0.2454  0.1158  0.0461
31990W        W32854  28.900   4.305   3.014 -0.0126 -0.3363  0.0139
31991W        W32855  15.818  22.919   9.503 -0.0116  0.0127  0.0326
31992W        W32856  26.536  18.289   1.910  0.1405  0.4312  0.0150
31993W        W32857   0.568   1.331   6.059  0.2874 -0.3860 -0.4294
31994W        W32858  15.093   4.495  15.401  0.0277 -0.1627 -0.2022
31995W        W32859  11.666  26.603   3.577 -0.0101 -0.0726 -0.0530
31996W        W32860  24.131   1.651   1.697 -0.2409  0.2903 -0.0668
31997W        W32861   3.721  17.310   8.377 -0.0669 -0.0157  0.2765
31998W        W32862  11.064  23.128  11.961 -0.1432  0.0718  0.2047
31999W        W32863   2.162  14.641   4.793  0.3597 -0.2983  0.1525
32000W        W32864  26.344  25.540   9.783  0.2675 -0.1711  0.1408
32001W        W32865   5.134  12.005   7.194 -0.1482  0.0027  0.2175
32002W        W32866   3.315  10.577  23.056  0.4589  0.0330 -0.1291
32003W        W32867   5.102  14.031   1.002 -0.1103  0.0659 -0.1020
32004W        W32868  28.297   7.164   9.198  0.2738 -0.2520  0.3318
32005W        W32869  14.338  16.901  23.256 -0.0703 -0.1696  0.0104
32006W        W32870  11.609   6.657   9.866 -0.0568  0.1472 -0.2087
32007W        W32871   8.881   2.259  10.201  0.2848  0.0546 -0.0964
32008W        W32872  20.690  21.846   8.335  0.0733  0.1724 -0.0342
32009W        W32873  25.613  21.992  28.744 -0.2686  0.4570  0.3099
32010W        W32874  19.732   9.629   7.923 -0.2437  0.0544 -0.0232
32011W        W32875   5.532   5.993   9.141  0.1528  0.0127 -0.0881
32012W        W32876   7.531   3.911  12.089 -0.2898  0.1754  0.0551
32013W        W32877  14.541  25.525  11.496 -0.1160  0.0178 -0.0243
32014W        W32878  20.454  12.061  15.288  0.2807 -0.0849 -0.2924
32015W        W32879  24.714  17.678   7.018  0.1046 -0.3156  0.1124
32016W        W32880  21.078   1.258  10.865 -0.0129  0.1755  0.0316
32017W        W32881  23.243   4.232   8.597 -0.0198  0.1143 -0.2544
32018W        W32882  27.648  27.022  25.611 -0.2010 -0.1963  0.1028
32019W        W32883  24.421   1.234   2.576 -0.1591  0.2874  0.0404
32020W        W32884  19.678  13.490  25.513 -0.2914  0.2392  0.0049
32021W        W32885  23.965   3.612   7.094 -0.3392  0.2157 -0.1677
32022W        W32886  23.610  10.788  22.112  0.2494 -0.0978 -0.0744
32023W        W32887  23.661  23.044   7.472 -0.5056  0.2281  0.0520
32024W        W32888  20.109   8.972   5.300 -0.0437 -0.1358 -0.2395
32025W        W32889  21.429  15.192   7.757 -0.1379  0.2865  0.0308
32026W        W32890  21.557   2.605  27.827  0.2389 -0.2675  0.0297
32027W        W32891  23.856  28.357   2.639  0.2076 -0.0130 -0.1595
32028W        W32892  21.440  15.881  15.981  0.0585  0.0215 -0.1977
32029W        W32893  21.940  17.843   6.048 -0.2392 -0.3413  0.1540
32030W        W32894  18.081   0.323  15.681  0.0652 -0.1448  0.0419
32031W        W32895   0.944   5.676   3.810 -0.1380 -0.0453 -0.0014
32032W        W32896  27.357  27.875  25.763  0.0326 -0.1694  0.0127
32033W        W32897  18.074  22.286   8.803 -0.1771 -0.0813 -0.1304
32034W        W32898  17.505   4.555  25.030  0.2196  0.0916  0.1440
32035W        W32899  23.194  28.509  23.837  0.0154  0.1669 -0.0995
32036W        W32900  14.890  14.075  16.966 -0.1644 -0.2709  0.1133
32037W        W32901  16.306  12.886  28.647 -0.1359  0.0062  0.0242
32038W        W32902   9.994  22.102   5.294 -0.2790 -0.1867 -0.0951
32039W        W32903  26.882   6.534  21.976  0.0594 -0.3007 -0.2080
32040W        W32904  19.030   2.599  16.124 -0.1644 -0.1817  0.1001
32041W        W32905  25.152  27.964   2.695 -0.3355 -0.0250  0.0769
32042W        W32906  26.874  10.800  10.906 -0.2850  0.3851  0.1637
32043W        W32907  18.409   3.518  12.452 -0.0576 -0.1230 -0.0728
32044W        W32908  17.519  14.465   7.423 -0.1192 -0.0364 -0.0993
32045W        W32909  16.505  13.666   5.340  0.0240  0.0383 -0.0168
32046W        W32910   9.928  21.549  15.689  0.2155  0.0826 -0.0197
32047W        W32911   0.207   7.336  25.331 -0.1991 -0.3830  0.3288
32048W        W32912  27.638   0.946   2.026  0.0251  0.0090  0.0376
32049W        W32913   9.636  10.338   7.605  0.0375  0.2048 -0.5356
32050W        W32914  22.982  24.843  26.157  0.0725  0.2450  0.1277
32051W        W32915  15.246  18.896  13.008 -0.2072 -0.1383 -0.1259
32052W        W32916  13.531   9.405  26.322 -0.1176  0.2909  0.1849
32053W        W32917  12.187  13.157  24.305  0.0073  0.1355  0.0815
32054W        W32918   9.865  25.415  25.173 -0.2541 -0.1300  0.1642
32055W        W32919  22.497   2.601  19.056 -0.1114 -0.0660  0.0768
32056W        W32920  15.159  18.484  13.340  0.0601 -0.0034 -0.3111
32057W        W32921   4.421  21.724   4.315  0.1591 -0.0398 -0.0319
32058W        W32922  16.618  14.550  13.824 -0.1105  0.2128 -0.0334
32059W        W32923  18.552   8.584  13.690 -0.0320  0.1191 -0.2432
32060W        W32924  21.352  13.792   5.343 -0.3093  0.1128  0.0435
32061W        W32925  27.329  12.079  28.350 -0.0650  0.3112 -0.0653
32062W        W32926  16.825   0.660   7.898 -0.0638  0.1928  0.1393
32063W        W32927  19.358   6.984  16.221 -0.2939  0.0268 -0.0712
32064W        W32928  28.554  10.452  28.056 -0.3528  0.0113  0.3076
32065W        W32929  26.718  25.965  25.488 -0.2943 -0.1158  0.0103
32066W        W32930  14.931  16.746   3.509  0.1485  0.1833  0.0898
32067W        W32931  19.919   9.046   5.752  0.1092 -0.0877  0.2115
32068W        W32932  20.538   6.689  17.974  0.1823  0.0103  0.1863
32069W        W32933   0.352   4.101  10.444 -0.1641 -0.1733 -0.0418
32070W        W32934   9.683   2.907   7.631 -0.0020 -0.4321  0.0126
32071W        W32935   0.494  27.695   4.107 -0.4360  0.1111  0.1336
32072W        W32936   7.790  13.924  24.768  0.1282 -0.1766  0.0625
32073W        W32937   2.389  11.160   5.585  0.3754 -0.0291  0.3333
32074W        W32938  26.425  28.149   2.916 -0.3361  0.0640  0.5068
32075W        W32939   4.451  26.606  11.707 -0.2942  0.1146 -0.0816
32076W        W32940  25.252   5.009  23.407 -0.1628  0.1216  0.0491
32077W        W32941  15.144   5.934  21.937  0.0969  0.0481  0.4067
32078W        W32942   6.993  24.950  20.281 -0.0379 -0.2267  0.5405
32079W        W32943  24.681   2.210   0.927 -0.1137 -0.4162 -0.0130
32080W        W32944   3.184  19.363   5.339  0.0633 -0.0080  0.0873
32081W        W32945  13.732   6.664  17.224 -0.0562 -0.0428  0.1518
32082W        W32946   6.023  24.432  28.700 -0.2365  0.0617  0.2081
32083W        W32947  14.654   6.793  22.175  0.0206 -0.2515 -0.0189
32084W        W32948   3.242   2.545  12.903  0.1287  0.1066 -0.0652
32085W        W32949   9.784   0.885   7.823  0.0015  0.0801  0.1495
32086W        W32950  13.754  27.323  15.296 -0.0326 -0.0160 -0.1384
32087W        W32951  19.951   6.977  22.778  0.3769 -0.2662 -0.1615
32088W        W32952  24.787  20.579   4.449  0.2132  0.0942 -0.1670
32089W        W32953   2.178   3.663   0.334 -0.2233  0.0015  0.2147
32090W        W32954  14.079   2.104   4.656  0.2661  0.0464  0.0477
32091W        W32955  22.276   4.526   0.270 -0.0889  0.0191  0.0675
32092W        W32956  21.528  15.979   8.954 -0.5198 -0.1037 -0.2027
32093W        W32957   2.938   3.914  25.760 -0.0095 -0.0768  0.2076
32094W        W32958   2.048   2.337  14.092  0.0020  0.0036 -0.4429
32095W        W32959  23.227   8.431   2.495  0.0845 -0.3274 -0.0610
32096W        W32960  16.701  27.711  17.271  0.3026  0.0487  0.0552
32097W        W32961  12.880  22.467   6.636  0.3090 -0.1769  0.0522
32098W        W32962  24.489  13.632   3.650 -0.2477  0.0175  0.1707
32099W        W32963  25.008   7.160  14.324 -0.0402  0.0664  0.0610
32100W        W32964   2.712  16.884  19.061  0.2867 -0.2049  0.3330
32101W        W32965  15.384   1.830   1.077  0.3426  0.2444 -0.1451
32102W        W32966  13.816   7.636  27.808  0.0576 -0.0973  0.0969
32103W        W32967  18.570  14.793   4.651  0.1069 -0.0518 -0.1254
32104W        W32968   3.815   3.972   7.525  0.0451  0.1066 -0.0611
32105W        W32969   2.771   6.538  25.524  0.0932  0.0031 -0.1964
32106W        W32970  19.925  10.894   6.268  0.0611  0.0870 -0.0151
32107W        W32971   5.493   7.914  10.037 -0.2067 -0.2661  0.3037
32108W        W32972  17.447  12.950   5.195  0.1178  0.0980 -0.1189
32109W        W32973  15.900   1.117  12.239  0.1233  0.0464  0.0082
32110W        W32974  20.379  19.540  14.236  0.1485 -0.2814 -0.0712
32111W        W32975  14.390  28.021   3.231  0.0013  0.2251 -0.1191
32112W        W32976  19.898  25.868   4.537 -0.1518  0.0338  0.2666
32113W        W32977   8.511   9.485   9.879  0.3900  0.2075 -0.2065
32114W        W32978  15.957  20.570  17.716 -0.1269  0.2789  0.0246
32115W        W32979  23.058  26.804   9.066  0.1097 -0.3205 -0.0187
32116W        W32980  15.856   1.663   0.510  0.1688  0.0973 -0.1110
32117W        W32981  26.691   4.555  25.694  0.0202 -0.0244  0.0527
32118W        W32982  26.863   5.865   5.063 -0.1545 -0.1853 -0.1116
32119W        W32983  11.247   9.402   9.499  0.1354  0.1849  0.1816
32120W        W32984   7.600   0.823   5.088  0.1914 -0.2843 -0.1281
32121W        W32985   5.350   7.306  11.724 -0.0044  0.1925  0.1217
32122W        W32986  15.474  11.996  17.583 -0.0771 -0.4380  0.1987
32123W        W32987  24.226   7.535  15.286 -0.0420 -0.1427  0.0770
32124W        W32988  15.616  15.260  21.042  0.0690 -0.2520  0.0823
32125W        W32989   8.906   4.161  28.265 -0.2182  0.0908 -0.2106
32126W        W32990  18.243  17.357   4.838 -0.0778  0.0513 -0.0979
32127W        W32991  26.530  14.418   6.128  0.2682 -0.1111 -0.1417
32128W        W32992   5.792   1.428  25.361 -0.0823 -0.2780  0.0989
32129W        W32993  19.823  13.695  22.341  0.2299  0.2744  0.0773
32130W        W32994  10.994  10.933  24.913  0.0320 -0.2375 -0.2661
32131W        W32995   7.443  14.770   3.949 -0.0726  0.1515  0.3724
32132W        W32996  23.550  10.789  21.654  0.3528 -0.0824  0.0487
32133W        W32997  15.378  20.146   4.307 -0.0902 -0.1223  0.2946
32134W        W32998  10.475   4.559   4.417 -0.1855 -0.1217  0.0103
32135W        W32999   6.093   1.549  12.376  0.0324 -0.3944 -0.2879
32136W        W33000  24.401   3.768  27.302 -0.2018  0.0204 -0.1177
32137W        W33001  19.699  15.271  26.267  0.2185  0.1275 -0.0149
32138W        W33002  16.369  27.098   7.299  0.0193 -0.0780  0.0879
32139W        W33003  27.330  11.016   9.305 -0.0859  0.0000 -0.2824
32140W        W33004  26.807   1.190  27.854 -0.2173  0.1023 -0.0464
32141W        W33005  27.312   5.753   6.967  0.1804  0.0706 -0.1514
32142W        W33006  15.660   9.271  27.883  0.2027 -0.2620 -0.4192
32143W        W33007  16.953  28.625   3.198  0.2461  0.1444  0.0388
32144W        W33008  16.101   6.659  15.570  0.1188  0.0647 -0.0210
32145W        W33009  21.131   1.368  19.080 -0.1122  0.1217  0.0802
32146W        W33010  13.335   4.318   0.207  0.0327  0.2731 -0.0387
32147W        W33011  28.779  13.671  27.444  0.0119  0.1122  0.3433
32148W        W33012  18.444   7.279  10.432  0.1880  0.2205  0.0567
32149W        W33013  17.563  10.558  10.807 -0.1580  0.3207  0.0717
32150W        W33014   3.624  28.493   3.297  0.2511  0.1504  0.1909
32151W        W33015  12.033  15.491  12.074  0.2816  0.4898  0.1304
32152W        W33016   9.946  25.434  12.423 -0.1960 -0.2832 -0.1967
32153W        W33017  17.848  19.786   6.521 -0.1332 -0.0644  0.1466
32154W        W33018  13.934  22.661  11.053  0.3358  0.0363 -0.4108
32155W        W33019  10.544  16.876   2.153 -0.0211 -0.0326 -0.2321
32156W        W33020  13.648   8.408  18.249  0.3181  0.2161  0.2025
32157W        W33021  28.139  19.795  26.034 -0.0566  0.5002 -0.1856
32158W        W33022   0.308  23.903   3.399 -0.1768 -0.0190  0.1457
32159W        W33023  18.083   7.021   4.791 -0.0843  0.0536 -0.0140
32160W        W33024  20.422  28.729   0.689 -0.1273 -0.1394 -0.1158
32161W        W33025  28.552  24.307  25.221 -0.1427 -0.1580  0.0992
32162W        W33026  23.932  12.660  14.000  0.1687 -0.1581  0.4444
32163W        W33027  14.013  17.508  16.210 -0.0974  0.0764  0.0858
32164W        W33028  20.551  13.158   0.950 -0.0692  0.0416  0.1277
32165W        W33029  20.167   3.119   3.149  0.0861  0.2406  0.4172
32166W        W33030   8.351  13.677  14.555 -0.0883 -0.1499 -0.3186
32167W        W33031   1.381  13.878   3.931  0.1495 -0.1743 -0.2940
32168W        W33032  21.189  15.830   6.364  0.1380  0.0498  0.1138
32169W        W33033  19.513  13.587   7.611 -0.1197  0.1199  0.0114
32170W        W33034   2.177   9.607  17.888 -0.1238 -0.0104 -0.0912
32171W        W33035   0.403   9.947   8.868  0.0817 -0.0159  0.1384
32172W        W33036  15.845  12.746  10.177  0.2126 -0.0967  0.0885
32173W        W33037   5.449  25.286   8.640 -0.0102 -0.1135  0.1877
32174W        W33038  27.542   8.339  15.334  0.1377 -0.1374  0.4076
32175W        W33039  20.539   1.888  16.496  0.1224  0.0916 -0.0491
32176W        W33040   8.922  14.489   5.888  0.1489  0.4840  0.3503
32177W        W33041  24.007  12.905   8.110 -0.3078  0.0279  0.1256
32178W        W33042  24.529  28.111  18.218 -0.0426  0.4356 -0.0914
32179W        W33043  23.573  10.452  26.784  0.2460  0.0877  0.1468
32180W        W33044  22.805  14.984   0.465  0.2096  0.1263 -0.0628
32181W        W33045   8.275  12.789  18.307 -0.1085 -0.1684  0.0219
32182W        W33046  12.440   2.311   3.726  0.2750 -0.0046  0.0959
32183W        W33047  20.293  26.134  13.759  0.1852 -0.1131 -0.3584
32184W        W33048  10.784   2.355  25.839 -0.3701 -0.0708 -0.2196
32185W        W33049   3.556  17.446  16.766  0.1615 -0.2428  0.1072
32186W        W33050  26.544  24.840  11.065 -0.2544 -0.2134 -0.0444
32187W        W33051  11.517  16.885  20.376 -0.0540 -0.2171 -0.3964
32188W        W33052  26.714  13.030   2.550 -0.2012 -0.1934  0.1423
32189W        W33053  11.184   9.220   3.133 -0.1952 -0.2824  0.0769
32190W        W33054  11.210  20.367  23.087 -0.0557 -0.0888  0.0502
32191W        W33055  10.805  20.331  12.485 -0.2285  0.0065  0.0411
32192W        W33056   3.441  29.058  27.615  0.0632  0.1757  0.1737
32193W        W33057   5.991   1.894   7.138 -0.2849  0.0795  0.3272
32194W        W33058  24.093  25.211   7.083 -0.0159  0.0509  0.0390
32195W        W33059  18.404   5.943   1.092  0.1566 -0.1553 -0.0044
32196W        W33060  23.389   1.678  10.641  0.1312  0.1556 -0.1001
32197W        W33061   4.837  25.794   6.257  0.1063  0.2854  0.0619
32198W        W33062  20.168  24.992  22.991 -0.1239 -0.0817  0.1575
32199W        W33063  17.892  23.085   9.181 -0.2502  0.1092  0.2985
32200W        W33064   2.604  26.520  23.709 -0.3100  0.0646 -0.3014
32201W        W33065   7.714  21.352  21.683 -0.0521  0.0028  0.1276
32202W        W33066   7.756  11.672   3.827 -0.0320  0.1827  0.2578
32203W        W33067   7.867   8.391  10.990 -0.1471  0.0542 -0.1644
32204W        W33068  10.966   8.512  23.844  0.0551  0.0093  0.2982
32205W        W33069  20.421  11.776  23.300  0.1368  0.0803  0.1485
32206W        W33070  23.112  19.476   1.136 -0.2325 -0.1577 -0.1452
32207W        W33071   9.504  16.049   4.054  0.0823  0.0937 -0.0408
32208W        W33072  24.834   3.793  20.132  0.0431  0.0015  0.0496
32209W        W33073   8.510  11.050  17.111 -0.2325 -0.0250 -0.3237
32210W        W33074   1.599  10.944   5.765 -0.0102  0.1194 -0.1218
32211W        W33075   9.075  13.678   2.684  0.0623 -0.0508  0.1657
32212W        W33076   1.328  17.825  12.448 -0.0146 -0.1108  0.3564
32213W        W33077  18.729  20.966  20.783 -0.3605 -0.2423 -0.0085
32214W        W33078  18.499  13.174  18.708  0.1871 -0.0318 -0.1832
32215W        W33079  11.581  22.217   9.746 -0.1056  0.0931  0.0342
32216W        W33080  23.786  23.484  28.302  0.0390  0.0959 -0.2286
32217W        W33081  17.625  18.782  18.620 -0.4227  0.1084 -0.3097
32218W        W33082  14.079  15.807   7.930 -0.0848  0.2682 -0.2123
32219W        W33083  23.413   5.805  22.515 -0.2605  0.1470  0.0434
32220W        W33084  20.411  10.804   0.941  0.1050  0.0194 -0.2480
32221W        W33085   9.496  15.407  24.416  0.1727  0.3804  0.4505
32222W        W33086   2.053   7.348  12.855 -0.0461 -0.0644  0.1744
32223W        W33087  11.321   7.551  16.940 -0.0971  0.1469  0.1312
32224W        W33088  25.474   2.472   7.499 -0.0396  0.2497  0.1402
32225W        W33089   9.977  17.464   9.234  0.0016  0.0367 -0.1496
32226W        W33090  14.266   3.413  12.284  0.2923  0.2368  0.1213
32227W        W33091  20.062   9.869   7.569 -0.0708  0.2358 -0.0004
32228W        W33092  13.536   7.599   4.319 -0.1721 -0.1410  0.0276
32229W        W33093  14.652   6.771  18.168  0.1006 -0.0015 -0.2219
32230W        W33094   5.646   7.520  15.382  0.2680 -0.0684  0.4897
32231W        W33095   7.229   1.140   5.901  0.2538 -0.1398  0.2092
32232W        W33096  27.673   8.172   2.588 -0.2607 -0.0740  0.2290
32233W        W33097  26.018  26.722  13.271 -0.1144  0.0410 -0.0920
32234W        W33098  23.132  26.083  16.044 -0.0460  0.1274  0.0024
32235W        W33099  16.384  26.054  10.017 -0.0528 -0.0704  0.0145
32236W        W33100   0.004  27.786  11.517 -0.0995  0.3332  0.3045
32237W        W33101  10.695  16.592   2.991 -0.2015 -0.1084 -0.2245
32238W        W33102  18.629  21.509  22.258 -0.0688  0.1233  0.0292
32239W        W33103  10.460  17.698  20.971 -0.2796 -0.2212  0.0148
32240W        W33104   6.328  22.008  12.224 -0.1166 -0.1059 -0.1824
32241W        W33105  24.925  24.212   0.552  0.1516  0.0736  0.2933
32242W        W33106  15.948   7.620  20.346  0.3918  0.0249  0.4789
32243W        W33107  12.830  28.745   6.046 -0.0683  0.1118 -0.1128
32244W        W33108  28.509  23.513  27.825  0.1813  0.0644  0.0342
32245W        W33109  18.590   5.954   7.537  0.0092 -0.1939 -0.0021
32246W        W33110   4.193  21.069   6.600 -0.0722 -0.1983 -0.1911
32247W        W33111  14.173   7.783   0.315  0.0019 -0.2379  0.2677
32248W        W33112  27.058  15.096   0.559 -0.1164  0.0177  0.0510
32249W        W33113   2.137   0.892  19.832 -0.0345 -0.2001 -0.0498
32250W        W33114  23.938  11.573  23.052  0.0080  0.0295 -0.1617
32251W        W33115  15.239  13.782  14.907 -0.1460 -0.2397  0.0927
32252W        W33116  19.496   1.794  11.245 -0.1743  0.0125  0.0940
32253W        W33117   2.650  18.101  15.087  0.1100 -0.1729  0.2451
32254W        W33118  14.796   8.343  12.927  0.3268 -0.0008 -0.1578
32255W        W33119  27.394  23.970  21.587  0.3256  0.1567  0.0767
32256W        W33120  16.829   0.399  10.396 -0.0138  0.4086 -0.0906
32257W        W33121  13.312  18.496  20.312 -0.0579  0.1363 -0.2435
32258W        W33122  19.862  12.740  10.958  0.0258  0.2301 -0.3290
32259W        W33123  24.643  11.624   6.710 -0.2137 -0.1702  0.2326
32260W        W33124  24.904   6.402   0.208 -0.1657 -0.1210  0.0795
32261W        W33125  18.756  27.373   9.678  0.2175 -0.0768 -0.1473
32262W        W33126   4.857  10.958   8.417  0.2389  0.1162  0.0777
32263W        W33127  25.239   7.014   4.979 -0.0174  0.0009  0.0986
32264W        W33128  13.818  19.466  17.933  0.0272 -0.0710 -0.0372
32265W        W33129  27.326  12.101  13.485 -0.0292  0.1522  0.0168
32266W        W33130   5.208  22.089  13.583 -0.1347 -0.1783  0.2275
32267W        W33131  26.717  28.897  17.110 -0.1192  0.1957 -0.2484
32268W        W33132   0.930  12.985   8.443  0.1586 -0.2851 -0.1663
32269W        W33133  24.461  10.542  10.621  0.1570  0.2158 -0.0346
32270W        W33134  25.998  13.681  11.830 -0.0356 -0.4652  0.1817
32271W        W33135  18.149  21.140   8.108 -0.1023 -0.2726  0.2755
32272W        W33136   2.435  17.809   9.110 -0.0869 -0.0441 -0.1581
32273W        W33137  24.643   6.021  27.608 -0.0363  0.0076 -0.2578
32274W        W33138  13.740   9.291  24.307 -0.0141 -0.0901  0.0224
32275W        W33139  11.282  27.311  10.525 -0.0993  0.4884 -0.1077
32276W        W33140  15.385  18.502  11.208  0.0092  0.0195  0.1853
32277W        W33141   9.278  11.895  18.894 -0.3164  0.0785  0.1829
32278W        W33142   4.629  24.279  18.876  0.0042  0.1496  0.1117
32279W        W33143  25.016  28.411   7.419 -0.1701  0.0505 -0.1954
32280W        W33144  25.101   1.866   9.576  0.2848 -0.2796  0.0558
32281W        W33145  16.125   4.945  14.011  0.5031 -0.0796  0.2177
32282W        W33146  16.391   4.686   0.943 -0.0475 -0.1597 -0.0224
32283W        W33147  14.668   8.455  12.441  0.1128  0.3018  0.1367
32284W        W33148  18.061   6.893   4.151  0.0170 -0.1774  0.2367
32285W        W33149  23.284   6.454  10.922 -0.1947  0.1060  0.1827
32286W        W33150  20.744  26.764  18.125 -0.0554  0.2277 -0.2158
32287W        W33151  16.704   9.760   3.196 -0.0476 -0.1420  0.2936
32288W        W33152  19.567  11.929  22.479  0.0540  0.1313  0.4996
32289W        W33153  21.176   6.130  22.554  0.2898  0.3255  0.1219
32290W        W33154   0.514  19.151  16.413 -0.1806  0.1624 -0.0844
32291W        W33155  20.385  18.970   2.116 -0.0409  0.0333  0.4164
32292W        W33156  15.965  12.800   4.401  0.2082  0.2311 -0.0816
32293W        W33157  27.963  15.541  28.847  0.1646  0.1710 -0.4189
32294W        W33158   2.480  28.615  18.253  0.0874  0.1587 -0.0067
32295W        W33159  14.108  22.295  28.362  0.1124  0.2653  0.0386
32296W        W33160  23.901  10.880  27.329  0.2516  0.1767  0.0764
32297W        W33161  14.721  16.372   4.242 -0.0147 -0.1342 -0.0355
32298W        W33162  17.213  16.454  18.418 -0.2254  0.0169 -0.0317
32299W        W33163   4.800  25.636  20.888 -0.1950  0.0470 -0.1097
32300W        W33164  16.341   3.985   4.505  0.3618 -0.2100  0.2813
32301W        W33165   1.084  28.248   1.623  0.0431 -0.1392 -0.3337
32302W        W33166  12.821   4.243  11.902  0.1104 -0.3077  0.1987
32303W        W33167  12.686  15.636  17.740 -0.2505 -0.1047  0.0232
32304W        W33168  29.126  25.752   8.609  0.0654 -0.2987 -0.2517
32305W        W33169  12.932  16.302   6.048  0.0738  0.3105  0.1362
32306W        W33170  15.699   5.897  16.367 -0.5321  0.0878  0.0568
32307W        W33171  17.782  17.238   7.537 -0.1672 -0.0849 -0.0128
32308W        W33172  11.289   8.503  16.760  0.1232 -0.2155 -0.0488
32309W        W33173  19.543   7.737   7.543  0.0546 -0.0487 -0.3752
32310W        W33174  12.358   6.589  21.903 -0.1270  0.0149 -0.1056
32311W        W33175   6.551   6.249  28.561 -0.2092  0.3895  0.1718
32312W        W33176  13.928   4.250  13.324  0.3602 -0.2679 -0.2489
32313W        W33177  10.503  24.952   7.635 -0.1541 -0.1830  0.0538
32314W        W33178  26.771   1.299  10.231 -0.1188  0.0775 -0.2148
32315W        W33179  18.329  11.740   2.162 -0.0092 -0.2834 -0.0792
32316W        W33180   1.003  26.376  22.991  0.0646 -0.2878 -0.0272
32317W        W33181   3.204  10.358   4.253 -0.2479 -0.4133 -0.1197
32318W        W33182  12.894  20.947  21.576 -0.0787  0.0156  0.1946
32319W        W33183  24.374  15.550   7.053  0.3134  0.0644 -0.0592
32320W        W33184  10.016   0.684  21.578 -0.2103 -0.0124 -0.0799
32321W        W33185  15.142   3.786  28.161  0.1852 -0.1103  0.1775
32322W        W33186   4.880  18.502  10.149 -0.1876 -0.1758 -0.2208
32323W        W33187  11.587  22.320   2.880 -0.0472 -0.0901 -0.2934
32324W        W33188  13.634  17.902   8.141 -0.1488  0.1211  0.0010
32325W        W33189  16.498  14.726  22.675  0.0497 -0.0769  0.1010
32326W        W33190  26.298   9.686   8.330 -0.2171  0.2549  0.1571
32327W        W33191  24.131   1.868   3.812 -0.2408  0.1321 -0.0498
32328W        W33192  22.898  21.951  17.571 -0.0573 -0.1253  0.0282
32329W        W33193  16.911   8.323   3.125  0.1001 -0.0870 -0.0087
32330W        W33194  18.998   8.892   8.291  0.0752  0.0592  0.0019
32331W        W33195  15.676  27.952  17.347 -0.2600 -0.1063  0.3391
32332W        W33196  27.083  11.907   8.233  0.1678  0.4705 -0.1269
32333W        W33197  26.120  20.127  18.535 -0.0509 -0.2376  0.2715
32334W        W33198  16.767   5.004  12.425  0.1964  0.2467  0.1821
32335W        W33199  20.506   2.727   1.533 -0.1035 -0.0166 -0.0812
32336W        W33200  14.203  12.413  13.060 -0.2794  0.1219 -0.0479
32337W        W33201  28.366  11.214  24.466  0.3249 -0.1990 -0.1506
32338W        W33202  13.799   7.620  18.184 -0.3083 -0.1372 -0.2504
32339W        W33203  14.787   7.072  14.791 -0.0816 -0.1916  0.0707
32340W        W33204  11.921  11.884  16.737  0.1453  0.1642  0.5444
32341W        W33205  10.272  20.490  22.541 -0.1638 -0.2892  0.3691
32342W        W33206  22.326  14.799  27.026  0.0889 -0.0176 -0.2026
32343W        W33207  24.001   8.948   0.236  0.0992  0.0510 -0.1083
32344W        W33208   2.526  27.271  13.938  0.0288 -0.3513 -0.0304
32345W        W33209   1.814   0.954  15.617 -0.2698 -0.0851  0.0820
32346W        W33210   3.361   5.545  25.220  0.2350  0.1575 -0.1960
32347W        W33211  24.659   1.909   1.819 -0.2513 -0.0896 -0.1075
32348W        W33212  17.422  14.985  23.286 -0.2098  0.2157 -0.1361
32349W        W33213  19.477   6.147   9.821 -0.1812  0.5122  0.0382
32350W        W33214  23.668   5.456  18.578  0.3216  0.0582  0.1641
32351W        W33215  10.883  28.073   0.247 -0.0057 -0.1443  0.0425
32352W        W33216  14.267  27.606   2.475  0.3180 -0.1188  0.1727
32353W        W33217   8.786  13.644  18.244  0.1146  0.1076  0.0041
32354W        W33218   7.429   5.614  22.169 -0.3652  0.1360 -0.2383
32355W        W33219  13.082   7.475  10.964  0.0086 -0.0885 -0.1200
32356W        W33220  24.295  17.183  27.705  0.1158 -0.0908 -0.2504
32357W        W33221  22.011  26.484   7.885 -0.1720 -0.1837  0.0216
32358W        W33222  17.838  23.721  28.623 -0.0699 -0.2601  0.2916
32359W        W33223   6.333  24.808  20.920 -0.0265  0.3565  0.0526
32360W        W33224  24.514  24.525   6.686  0.0376 -0.1331  0.0467
32361W        W33225  10.117  23.596   6.113  0.1837 -0.0743 -0.1779
32362W        W33226   9.323   0.276   7.414  0.0012  0.1414  0.0787
32363W        W33227   1.770  26.360  14.849 -0.0188 -0.0481 -0.0102
32364W        W33228  22.702  18.893  16.314  0.3856 -0.3691  0.3749
32365W        W33229  17.238  16.929  10.661 -0.0301 -0.1248  0.0826
32366W        W33230  22.802   4.310  14.573  0.3537 -0.1158  0.1651
32367W        W33231  17.301  19.625   8.710  0.2149  0.0478  0.2569
32368W        W33232  24.191   1.460  28.082 -0.0652  0.0441 -0.2882
32369W        W33233  10.303  26.018   6.659 -0.0806  0.1687  0.0768
32370W        W33234  25.738   6.000  19.015  0.1068  0.0670 -0.0191
32371W        W33235  15.696  14.709  16.711  0.1522 -0.0331  0.0475
32372W        W33236  21.883   8.299   4.708  0.1626 -0.0040  0.0650
32373W        W33237   7.725  20.366   5.859  0.2557  0.0193 -0.4188
32374W        W33238  24.143  10.712  13.712 -0.2021  0.2588 -0.1427
32375W        W33239  21.375   0.704   5.083  0.1179 -0.1588 -0.0206
32376W        W33240   4.162   4.339  12.654 -0.0338 -0.1520  0.0005
32377W        W33241   6.493  10.735   8.616 -0.0828  0.0326 -0.6503
32378W        W33242  14.406   9.980  27.812 -0.0799  0.3083 -0.0547
32379W        W33243  20.290   9.681   5.710  0.0635 -0.2029 -0.0092
32380W        W33244  23.102  27.237  27.858 -0.5259  0.0504 -0.0236
32381W        W33245  17.895  21.217   2.520 -0.2409  0.0669  0.2106
32382W        W33246  10.145  13.582  18.901 -0.0004 -0.3784 -0.1589
32383W        W33247  14.524  23.809  28.975  0.2392  0.0922  0.3861
32384W        W33248   9.175  17.017  16.118 -0.0692 -0.0795 -0.0495
32385W        W33249  12.216   0.557   8.809 -0.2523  0.0039 -0.1612
32386W        W33250  11.461  28.227  14.696 -0.0931  0.0782  0.0841
32387W        W33251  14.401  16.555  12.885  0.0933  0.1424 -0.0570
32388W        W33252   6.267   8.297  10.631  0.1383  0.0829 -0.0549
32389W        W33253  14.702  15.045   5.969  0.1375  0.1826  0.0516
32390W        W33254   2.199   3.996  12.497  0.1330 -0.2442  0.2240
32391W        W33255  13.273  28.924   5.086 -0.1035 -0.2144  0.0445
32392W        W33256   2.872   6.063  24.133  0.1366  0.0015 -0.1988
32393W        W33257   2.472  18.992  13.268 -0.3469  0.0698 -0.1632
32394W        W33258  14.017  19.331  23.753 -0.2891  0.1531 -0.3096
32395W        W33259  27.787   7.369   8.718 -0.1876 -0.2747  0.1330
32396W        W33260  27.191  16.197  23.762  0.3125  0.1816 -0.0381
32397W        W33261   4.928  21.028   7.358  0.0553  0.2008  0.1044
32398W        W33262   6.567  10.032  14.536  0.0987  0.0696  0.1926
32399W        W33263  24.388   8.655  27.069  0.0224  0.0984 -0.0274
32400W        W33264  19.611  18.474  16.389 -0.1302 -0.2029  0.0922
32401W        W33265  27.649   5.812  10.966 -0.0999 -0.2290  0.0182
32402W        W33266  19.468   8.701   1.907 -0.0454 -0.1534  0.0378
32403W        W33267  10.174  17.968  11.214  0.2976 -0.2346 -0.1943
32404W        W33268  24.439  24.723  22.852  0.2870 -0.2061 -0.0283
32405W        W33269   7.504  14.961   8.585  0.0503  0.1925  0.3611
32406W        W33270  19.036  24.361  24.888  0.2865 -0.0216  0.0663
32407W        W33271  23.708   9.781   4.891  0.0190  0.0482  0.3424
32408W        W33272  15.005  19.293   2.057 -0.1291 -0.1403  0.2929
32409W        W33273  10.640   9.909  28.059 -0.2110  0.2056  0.0459
32410W        W33274  23.483  14.369  12.952 -0.0074  0.1406  0.2080
32411W        W33275   0.344  17.706   2.053 -0.1789  0.2314 -0.2718
32412W        W33276  21.062  25.874   0.635  0.3160 -0.3670 -0.0269
32413W        W33277  16.164  19.212   2.586  0.2820 -0.0248 -0.0705
32414W        W33278  19.837  24.051  19.210  0.0110  0.1621  0.2971
32415W        W33279  22.152   4.683   9.178 -0.1767 -0.0525 -0.1229
32416W        W33280  19.311  20.448  17.521  0.0473  0.1431  0.1383
32417W        W33281  11.887  14.198   5.186 -0.2219 -0.1632  0.0126
32418W        W33282  24.143   1.091   2.981  0.0695 -0.1799  0.0120
32419W        W33283  17.105  11.753  28.414  0.0214 -0.1149 -0.1017
32420W        W33284   6.204  13.831  19.681  0.1759 -0.2596 -0.2396
32421W        W33285  12.882  22.118  23.449  0.3713 -0.1846  0.0721
32422W        W33286  13.687   3.972  11.628 -0.0287 -0.1629 -0.3765
32423W        W33287  15.352  22.301  26.496 -0.0454 -0.1044 -0.2154
32424W        W33288  14.696  22.705  27.014 -0.3032  0.2823 -0.0885
32425W        W33289  13.302  28.057  17.811 -0.0566  0.2727 -0.3219
32426W        W33290  16.824  26.676  12.915  0.1995 -0.2551  0.1689
32427W        W33291   5.646   6.102  24.639 -0.0040 -0.0576  0.2544
32428W        W33292  14.720  22.895   2.387 -0.0723  0.4031  0.2300
32429W        W33293  26.856   0.406  11.858  0.1466 -0.2108 -0.1069
32430W        W33294  15.643   8.195  16.049  0.1450  0.0468  0.1414
32431W        W33295  27.885  12.447   7.359  0.0764  0.1874  0.2016
32432W        W33296  21.416   9.867  23.677  0.1498 -0.1409  0.1990
32433W        W33297  23.964  18.344   7.696 -0.1205 -0.4338  0.0157
32434W        W33298  26.010   8.824  19.158 -0.1465  0.0374 -0.2566
32435W        W33299   8.299  24.070  17.854  0.1732  0.2421 -0.0804
32436W        W33300  18.421   7.970  22.616  0.2215 -0.1513 -0.1141
32437W        W33301   8.789  23.037   0.852 -0.0782  0.1439  0.3819
32438W        W33302  10.339   3.983  14.838  0.1139 -0.2091 -0.1961
32439W        W33303  19.205  14.612  10.095 -0.1625  0.0497  0.0599
32440W        W33304  19.861  16.386   2.623  0.0692  0.0039  0.2885
32441W        W33305  21.695   6.074  26.777 -0.2988 -0.1820  0.0379
32442W        W33306  26.316  10.622   5.872 -0.1204  0.2474  0.0623
32443W        W33307  28.325   2.695   1.586 -0.1867  0.0107  0.2491
32444W        W33308  28.767   2.137  13.434 -0.1241  0.1025 -0.0950
32445W        W33309  25.194   5.482  24.489  0.0710  0.2679 -0.1216
32446W        W33310  23.379  14.036   7.702 -0.4316 -0.2669  0.0875
32447W        W33311  11.973  21.472  11.433  0.0277 -0.1448  0.0981
32448W        W33312  11.666   0.772  13.736 -0.1662 -0.0449 -0.1538
32449W        W33313  15.032  26.374  20.262 -0.0288  0.2860  0.1204
32450W        W33314  22.562  26.601   3.951  0.0034 -0.0995  0.0189
32451W        W33315   1.266   0.273  14.317 -0.2867  0.0465  0.1140
32452W        W33316  15.920  16.370   8.361 -0.1169 -0.1400 -0.0137
32453W        W33317  25.421   7.380   7.969  0.1917  0.1317 -0.2105
32454W        W33318  17.112  20.293   4.525  0.1007  0.2501  0.0930
32455W        W33319  26.002  17.744   2.512 -0.3424  0.0945 -0.1972
32456W        W33320  19.684  28.756  19.227  0.1056  0.3679  0.2603
32457W        W33321   0.936   1.558  27.556  0.0191 -0.0140 -0.0498
32458W        W33322   9.026  23.055   5.178 -0.0741 -0.1012 -0.0484
32459W        W33323  16.737   9.153   2.559  0.2298 -0.1054  0.1385
32460W        W33324  22.759  19.834  20.076  0.0707  0.1270  0.1468
32461W        W33325  28.909  14.043   8.250  0.0754 -0.0790  0.0649
32462W        W33326  19.209  23.444  16.631  0.0757 -0.2522 -0.0274
32463W        W33327   9.953   5.075  13.639 -0.0908 -0.0001  0.4478
32464W        W33328  27.917   8.058  28.762 -0.3473 -0.0696 -0.0222
32465W        W33329   5.055  23.186  16.399 -0.0511 -0.0911  0.1527
32466W        W33330  14.738   4.945  22.001  0.2380  0.2726 -0.3505
32467W        W33331   2.098   6.569   0.137 -0.1324 -0.1855 -0.1875
32468W        W33332  20.865   2.893   4.204 -0.2346  0.0191  0.0494
32469W        W33333   9.403   6.312  14.847 -0.4205  0.2924  0.1618
32470W        W33334  27.529  19.364  18.195  0.2522  0.0048  0.4231
32471W        W33335  14.363  18.845  18.636  0.2337 -0.3985 -0.1433
32472W        W33336  10.984  12.433   7.598  0.1260  0.3580 -0.1940
32473W        W33337  14.348   6.977   5.561  0.1397 -0.0616 -0.1970
32474W        W33338  20.263  14.736  24.055  0.0191 -0.1596 -0.3031
32475W        W33339   8.119   1.164  10.272 -0.4007 -0.1636 -0.1623
32476W        W33340  28.117  13.905  12.295  0.0618  0.1377  0.0929
32477W        W33341  21.623   7.615   5.273 -0.0849 -0.1285  0.1364
32478W        W33342  28.295  26.451  17.268  0.2035  0.0198  0.0157
32479W        W33343  26.234  20.861  16.765  0.1628 -0.0062 -0.0357
32480W        W33344  27.835   5.899   6.751 -0.1061  0.0661  0.1024
32481W        W33345   5.765  19.742  20.673 -0.0828 -0.1209 -0.2507
32482W        W33346  26.922   6.202   3.129 -0.1872  0.0830  0.3333
32483W        W33347   1.612   6.575  21.403  0.2482 -0.0426  0.1793
32484W        W33348   7.317   4.946   7.626 -0.1762 -0.0309  0.0628
32485W        W33349  20.699  21.974   7.157 -0.2670 -0.2603 -0.0841
32486W        W33350  28.607  22.739  11.496 -0.0400 -0.0683  0.2456
32487W        W33351  28.226  18.794  19.586  0.1408 -0.1788 -0.0774
32488W        W33352  11.295   1.525  24.175 -0.3784 -0.0068  0.1858
32489W        W33353  12.844  26.856   5.579 -0.0426 -0.0610 -0.0260
32490W        W33354  28.502  24.933   6.386  0.1981  0.1288 -0.0802
32491W        W33355  20.911   2.953   7.312 -0.1229 -0.1791  0.1540
32492W        W33356  20.511  16.331   8.753 -0.1785  0.0999  0.0058
32493W        W33357  14.196   9.839  15.097 -0.1033 -0.3132  0.1758
32494W        W33358  28.240   4.159  26.785 -0.2106  0.0004 -0.2026
32495W        W33359  19.400  21.691  27.592  0.1328  0.3303 -0.0808
32496W        W33360   1.702   1.852  15.215 -0.2205 -0.0232 -0.0106
32497W        W33361  14.836  16.954   8.380 -0.0979 -0.0828 -0.2423
32498W        W33362  23.672  14.856  22.449 -0.0433  0.1480 -0.1792
32499W        W33363  27.728  25.590  26.450 -0.0555 -0.0332  0.0414
32500W        W33364  18.914   0.579  18.250 -0.3585  0.0601 -0.2183
32501W        W33365  26.959   7.426   3.838  0.0522  0.1121  0.2196
32502W        W33366  11.093   5.230   9.777  0.0500  0.0713  0.3417
32503W        W33367   4.705   1.281  18.433  0.0688  0.1469  0.0779
32504W        W33368   4.438  11.604  12.717 -0.1946 -0.0599 -0.1197
32505W        W33369  26.458   0.074  22.897  0.0610  0.0345 -0.0357
32506W        W33370   0.713   0.030  18.200 -0.1760 -0.0609 -0.0453
32507W        W33371  19.612  28.004  24.405 -0.0314  0.1804  0.1511
32508W        W33372   1.219  14.355  19.845  0.2031  0.2387  0.0261
32509W        W33373  28.992  21.101  12.001 -0.2908 -0.0811 -0.2321
32510W        W33374  21.548   8.661  18.934 -0.5435  0.2333 -0.1432
32511W        W33375   2.746  15.493   3.975 -0.1435 -0.1104  0.1450
32512W        W33376  27.125   3.368  13.602 -0.0267  0.0788  0.1075
32513W        W33377  20.935  24.519  24.875 -0.1371  0.0254 -0.2971
32514W        W33378  10.305   7.962  14.341 -0.6083  0.1814 -0.0777
32515W        W33379  10.003  21.886  23.659 -0.0310 -0.1379 -0.3542
32516W        W33380  20.012   4.547   5.929  0.0311  0.0604  0.2973
32517W        W33381   2.875  18.243  20.919 -0.1778 -0.1890 -0.4244
32518W        W33382  15.024   8.672  13.580 -0.2534 -0.0279 -0.1670
32519W        W33383  23.909   1.882   5.717  0.0680 -0.1084 -0.0356
32520W        W33384  19.272   4.099   3.792 -0.0706  0.1708 -0.2020
32521W        W33385  25.879  13.596   3.781 -0.1436  0.1145 -0.1636
32522W        W33386   9.889   3.450  15.367 -0.1192 -0.3075  0.2086
32523W        W33387  28.140   7.060   8.423  0.1726  0.2814  0.1166
32524W        W33388  24.313  23.124   1.983  0.0275 -0.0607 -0.1126
32525W        W33389   8.561  15.966  22.285  0.2930  0.1240  0.2110
32526W        W33390  25.018  20.513  11.596 -0.0534  0.0788 -0.0779
32527W        W33391  21.853  17.166   5.881 -0.0138  0.1111  0.0161
32528W        W33392  22.296  16.053  27.015 -0.3271  0.0239 -0.1872
32529W        W33393  23.952   4.002  21.792 -0.3386  0.2328 -0.1273
32530W        W33394  23.914  17.798  25.463 -0.0674  0.1165  0.0730
32531W        W33395  14.565  22.154   0.237 -0.0408 -0.0183 -0.1821
32532W        W33396  20.711   4.701  15.986  0.2265  0.0589  0.1440
32533W        W33397  20.852   3.647   4.034  0.1582 -0.0564  0.0534
32534W        W33398  21.335  23.523   5.944 -0.0483 -0.1709  0.0975
32535W        W33399  28.554   4.701   3.713  0.1705 -0.1272  0.1481
32536W        W33400   9.166  18.019  11.119 -0.2312 -0.0515 -0.0846
32537W        W33401  26.316   1.296   5.441 -0.1785 -0.0755 -0.0049
32538W        W33402  27.862  18.940  12.627  0.4390  0.1677  0.0719
32539W        W33403  17.121   9.679   9.682 -0.2853  0.2973  0.0400
32540W        W33404   8.170  18.710   7.024  0.0365  0.1561 -0.0320
32541W        W33405   3.586  12.284  16.859  0.1418 -0.1849 -0.0205
32542W        W33406  12.604   7.537   2.484  0.2093  0.1795 -0.0575
32543W        W33407   6.870  20.344  20.582 -0.0336  0.1027  0.2180
32544W        W33408  28.115   3.828  23.809 -0.0670 -0.0176  0.0193
32545W        W33409  14.778   4.325  27.859 -0.4868 -0.1947  0.2103
32546W        W33410  26.111   7.575   9.418  0.0491 -0.2912 -0.0610
32547W        W33411   1.703  24.370  19.497 -0.0440 -0.1441  0.0280
32548W        W33412   5.450  28.222  19.823  0.2952  0.0492  0.3092
32549W        W33413  24.664   4.298  18.830 -0.0201 -0.3508  0.0947
32550W        W33414  20.443   8.755   3.665  0.0827 -0.2586 -0.0914
32551W        W33415  28.923  25.605   7.474  0.1292 -0.0736 -0.1248
32552W        W33416  26.875   1.266  15.459  0.1314 -0.1772 -0.1394
32553W        W33417  17.286  11.526  13.474 -0.0687  0.0431 -0.0358
32554W        W33418  14.201  10.545   2.098  0.2119  0.1744 -0.0050
32555W        W33419  17.979   3.627   6.065 -0.3666 -0.1373  0.2748
32556W        W33420  11.698  20.982  11.279  0.1725  0.1491 -0.1048
32557W        W33421  28.817  16.880   4.921 -0.0317 -0.3015  0.0200
32558W        W33422  14.600  14.740  14.928 -0.2011  0.2014 -0.2429
32559W        W33423  14.976  11.371  20.120  0.3370 -0.0795 -0.1467
32560W        W33424  18.901   8.196  25.785  0.0112 -0.1339 -0.0174
32561W        W33425   3.855  20.278  19.685 -0.0147 -0.0988 -0.0322
32562W        W33426  25.037   4.932  14.326  0.5160 -0.1081  0.1272
32563W        W33427  14.226  22.423   6.428  0.1150 -0.2585 -0.1447
32564W        W33428  11.464  25.405  15.323 -0.0412 -0.0067 -0.1809
32565W        W33429  14.629  16.081   6.210 -0.1639  0.1109  0.0055
32566W        W33430  28.319  26.866  17.522  0.0551 -0.2182 -0.0602
32567W        W33431   7.778   5.040   8.072 -0.1238  0.2245 -0.0925
32568W        W33432  21.538  11.103  20.050 -0.0595 -0.0952  0.0583
32569W        W33433  18.915  15.200  12.363  0.0443 -0.0958 -0.0359
32570W        W33434   2.232   0.229   4.099 -0.3868 -0.1401 -0.0507
32571W        W33435  26.294  12.176  22.571  0.2211  0.3303  0.0159
32572W        W33436  15.843  25.249  18.850 -0.1644 -0.2555 -0.0521
32573W        W33437   8.560  22.344   4.179  0.0297 -0.0136 -0.1435
32574W        W33438   5.193   7.984  12.220  0.0118 -0.1497 -0.2036
32575W        W33439  25.543  24.746  22.033  0.0140  0.2676 -0.1094
32576W        W33440   4.719   2.282   7.803 -0.2536 -0.0585 -0.1282
32577W        W33441  25.746  14.730  11.722 -0.0275  0.1101 -0.0743
32578W        W33442  20.846  27.753  18.724  0.2501 -0.3999 -0.0455
32579W        W33443  11.445  19.150  14.199  0.1040  0.1646 -0.1785
32580W        W33444   4.659  11.953   2.005  0.2364 -0.1189  0.2589
32581W        W33445  13.695   6.801  24.234  0.4278  0.2639 -0.1924
32582W        W33446  21.212   7.453   4.032  0.0427  0.0183 -0.0275
32583W        W33447  10.970  21.151   4.265  0.1904  0.0016  0.1676
32584W        W33448   4.018  11.525   1.414 -0.0183  0.2879  0.0385
32585W        W33449   1.217  21.032  17.668 -0.2015 -0.0995 -0.2036
32586W        W33450   2.469  15.994  26.061  0.0305 -0.0662  0.0085
32587W        W33451  12.732   4.436   5.858 -0.3329 -0.0464 -0.1414
32588W        W33452   4.146  21.196  18.652  0.2948 -0.0169 -0.2018
32589W        W33453  18.650  23.595  11.255 -0.1932 -0.1732 -0.0837
32590W        W33454  21.863  28.019   5.171  0.1073 -0.1283 -0.0675
32591W        W33455   6.169  15.020   9.764  0.0117 -0.0762  0.0228
32592W        W33456   0.298  12.347   2.587  0.2674  0.3566 -0.1598
32593W        W33457  14.023  28.347   4.193  0.3476 -0.2015  0.1629
32594W        W33458   6.551  29.055  15.879  0.2421  0.0695  0.0259
32595W        W33459  20.194   8.657  11.544 -0.0645 -0.0569  0.2606
32596W        W33460  28.014   5.998  24.509 -0.1144 -0.2115  0.0388
32597W        W33461  15.378  17.799  20.392  0.1543 -0.0333  0.1508
32598W        W33462  15.838  27.646  19.555  0.0338  0.1243  0.1737
32599W        W33463   2.325   1.553  11.630 -0.0899 -0.2719 -0.1919
32600W        W33464  18.277   1.773  17.186  0.0422  0.0966  0.0315
32601W        W33465  17.427  23.226   9.532 -0.4721  0.0087 -0.3784
32602W        W33466   0.957  13.022   5.566 -0.0729  0.1583  0.4312
32603W        W33467   7.994  26.655  23.928 -0.0703  0.1657 -0.2225
32604W        W33468  24.338   7.108  16.260 -0.0923  0.3185  0.2487
32605W        W33469  23.574  23.820  10.855  0.0446  0.1392  0.2991
32606W        W33470  12.851  20.629   6.826  0.1782  0.0401  0.2440
32607W        W33471  15.115   7.848  10.928 -0.0384 -0.3215 -0.1776
32608W        W33472  16.591  15.218  14.720 -0.0617  0.2383  0.1092
32609W        W33473  28.542  19.862  24.139  0.0716 -0.2773 -0.3377
32610W        W33474  15.346  24.257  28.303  0.1024 -0.0324  0.1982
32611W        W33475  10.861  20.229  15.099 -0.1828 -0.1871  0.4316
32612W        W33476   4.869  22.612  17.632 -0.2395 -0.0003 -0.0805
32613W        W33477  13.691  13.139  13.729 -0.0409 -0.1618  0.3502
32614W        W33478   0.222   2.960  29.026 -0.3639  0.2976 -0.1182
32615W        W33479  16.244   0.728   4.505 -0.4448 -0.0029 -0.0330
32616W        W33480  27.341   5.500  13.425  0.1774  0.0316  0.0546
32617W        W33481  13.619  19.202  22.526  0.0600 -0.0118 -0.2100
32618W        W33482  22.017  25.180   0.371 -0.0453  0.2541 -0.4415
32619W        W33483   5.854   8.402  22.114  0.5119  0.1208  0.2166
32620W        W33484  13.046  21.869   9.731 -0.3181  0.2006  0.1034
32621W        W33485  12.063  14.619   1.401  0.1558 -0.4981 -0.0337
32622W        W33486   6.141  12.117  11.607 -0.0722  0.0904 -0.1021
32623W        W33487  11.721   9.235  16.653 -0.0881 -0.0143 -0.1831
32624W        W33488   9.107  16.060  10.534 -0.1083  0.0777 -0.0400
32625W        W33489   6.770   9.701   7.933  0.2115 -0.0982  0.3721
32626W        W33490  16.365  16.895  24.150 -0.0214 -0.1741  0.1504
32627W        W33491  11.131   7.787  13.811  0.1473  0.1082  0.1804
32628W        W33492   9.798  28.218  11.042  0.2230 -0.1165 -0.0901
32629W        W33493  14.055   5.337   5.099 -0.1457  0.0774 -0.0974
32630W        W33494  14.532  15.286   0.056 -0.2921  0.0359 -0.0042
32631W        W33495  25.354  25.949  10.655 -0.3223 -0.2116  0.1796
32632W        W33496  27.462   0.428  17.057  0.2517  0.2186  0.2336
32633W        W33497   3.877  13.878   8.885  0.0219 -0.0427 -0.1724
32634W        W33498  24.244  26.828  14.105  0.3330 -0.1137 -0.1481
32635W        W33499  19.227  28.636  15.501 -0.0425  0.0473 -0.2166
32636W        W33500  13.901  18.893   3.857 -0.0822  0.2307 -0.1900
32637W        W33501  16.583   3.215  11.879  0.0223  0.3335  0.1047
32638W        W33502  28.476   4.659   9.340  0.1242  0.2721  0.3364
32639W        W33503  25.878  12.391   0.473  0.3504 -0.1311  0.0724
32640W        W33504  23.525  11.925  25.817  0.0421 -0.2009 -0.1873
32641W        W33505   5.763  14.557  20.136  0.1314  0.0017 -0.1815
32642W        W33506  18.243   1.743  26.302  0.2315 -0.0003  0.1898
32643W        W33507  25.519  28.610  10.408 -0.0676  0.1751 -0.1190
32644W        W33508   6.925  10.974   0.702  0.0764  0.0497  0.0029
32645W        W33509  19.902   6.569   9.824 -0.0900  0.0131 -0.2907
32646W        W33510   6.863   2.255  20.920  0.0818  0.2059 -0.2870
32647W        W33511  21.759   7.950  14.267  0.0271  0.2362 -0.0951
32648W        W33512   0.309   0.728  13.571  0.1371 -0.0625 -0.0364
32649W        W33513  19.536   9.785  20.151  0.0541 -0.0496  0.0718
32650W        W33514  28.179   3.826  21.820 -0.0435 -0.0794  0.0676
32651W        W33515   4.762  28.460  24.127 -0.2262 -0.0271 -0.0334
32652W        W33516   9.719  16.035   8.624 -0.1980 -0.2724  0.4778
32653W        W33517  24.621  21.994   5.562 -0.0643 -0.2286  0.1418
32654W        W33518  19.640  21.191  20.402  0.1271  0.0936  0.0482
32655W        W33519   9.027  19.862  14.786 -0.1192  0.2963  0.0036
32656W        W33520  22.662  13.483   8.840 -0.1882  0.0583  0.0601
32657W        W33521  15.477  14.216   7.587 -0.0630 -0.0040 -0.1996
32658W        W33522  13.891   7.925   7.987  0.2832  0.0968 -0.0539
32659W        W33523  22.545   5.030   4.459 -0.1637 -0.4506  0.0947
32660W        W33524  13.034   5.307   2.080 -0.2393 -0.0417  0.2305
32661W        W33525  28.210  11.437  10.911 -0.0231  0.0896  0.0126
32662W        W33526  26.023  10.126   6.673 -0.0585  0.0901 -0.1487
32663W        W33527   7.876  22.561  23.761  0.1577  0.1895 -0.1079
32664W        W33528   2.044   3.611   4.484 -0.4285  0.0385 -0.0441
32665W        W33529  26.322   0.716  26.755 -0.0661  0.0793  0.1178
32666W        W33530  13.393  12.386  24.450  0.1629  0.1552 -0.3493
32667W        W33531  26.347  11.231  14.491  0.0662  0.4891  0.0388
32668W        W33532  23.337   1.724   2.130 -0.2141  0.2115 -0.0203
32669W        W33533  24.638  25.258  26.795  0.0826 -0.1741  0.1961
32670W        W33534  23.181  18.046  15.201 -0.1322  0.1429 -0.0530
32671W        W33535  13.543   9.759   6.231  0.0783 -0.2240  0.0697
32672W        W33536   1.524  10.181  12.758  0.0793 -0.0595  0.2035
32673W        W33537  14.442  27.130  13.411  0.1931  0.0027 -0.0384
32674W        W33538   2.142   4.303   8.880  0.0368  0.1420 -0.1441
32675W        W33539   3.159   1.580  28.749  0.1010  0.0438 -0.0281
32676W        W33540  24.495  12.241  22.902  0.0094 -0.2125  0.0898
32677W        W33541  18.939   5.165  28.130  0.1633 -0.1329 -0.1245
32678W        W33542   2.727  22.608  13.598  0.3328  0.3650  0.1653
32679W        W33543  26.718   2.842  13.270 -0.2524 -0.0560 -0.1261
32680W        W33544  19.237  16.346  12.929  0.1359  0.2465  0.0495
32681W        W33545  18.696  20.502  25.979  0.1847 -0.1098  0.2546
32682W        W33546   4.581   7.514   5.686  0.0922  0.0609 -0.2228
32683W        W33547  15.658  28.347  19.648 -0.1396  0.1050 -0.1977
32684W        W33548  28.441  14.910   9.439  0.3150  0.1669 -0.1462
32685W        W33549  19.103  22.020  13.209  0.2485  0.0929  0.5778
32686W        W33550  10.875  12.405  21.953  0.1281  0.0006  0.0602
32687W        W33551  12.347   0.503   8.294  0.0201  0.1862  0.2672
32688W        W33552  24.873  14.223  14.276  0.0110  0.1913 -0.1316
32689W        W33553  16.150   6.017  22.842 -0.3913  0.2451  0.1547
32690W        W33554  12.945   4.249  25.561 -0.0201  0.3378 -0.0235
32691W        W33555  26.876  15.834   8.384 -0.1380 -0.0333  0.3675
32692W        W33556   0.833  21.200  15.860 -0.1526  0.0648  0.2347
32693W        W33557  11.836  13.814  17.640 -0.2565 -0.1779 -0.2663
32694W        W33558   7.265  20.524  10.414  0.1350 -0.0275 -0.0015
32695W        W33559  23.328  18.472  14.435  0.0117  0.1328 -0.0935
32696W        W33560  15.376  27.557  20.826  0.1513 -0.1803  0.2859
32697W        W33561  28.763   7.392   5.294 -0.0400  0.3077 -0.0211
32698W        W33562  22.852  20.380  23.745  0.3948  0.1043 -0.1983
32699W        W33563  18.507   4.100  17.264  0.1135  0.1603 -0.0628
32700W        W33564  13.241   4.330  21.050  0.2718  0.1364 -0.3063
32701W        W33565  11.596  29.016  16.601  0.3036 -0.1451 -0.1179
32702W        W33566   6.804  28.901  14.095  0.0799  0.1027 -0.0774
32703W        W33567  12.537   1.938   2.768 -0.1234 -0.0213 -0.1493
32704W        W33568  10.606  12.652  21.410 -0.2123 -0.0477  0.1078
32705W        W33569   2.373  12.052  28.868  0.1025 -0.1376 -0.1224
32706W        W33570  17.384  28.410  14.330  0.2735 -0.0999 -0.1024
32707W        W33571  18.115  26.034  13.287  0.0026  0.3518 -0.1747
32708W        W33572  16.746  23.839  19.836  0.1321 -0.0411  0.0505
32709W        W33573  28.350   8.828   0.021 -0.1414  0.0389  0.0840
32710W        W33574  18.071   9.645  28.566 -0.0353  0.1264  0.1178
32711W        W33575  16.746  13.312  22.698  0.2125 -0.1700 -0.3085
32712W        W33576  27.594  17.709   7.683 -0.1506 -0.2066 -0.1557
32713W        W33577   7.366   4.746  18.077  0.3027 -0.2889  0.3644
32714W        W33578   8.097  25.740  12.051 -0.0521 -0.1805  0.0156
32715W        W33579   9.909  15.413  16.380 -0.2456  0.0360 -0.2125
32716W        W33580  18.352   5.914   8.517 -0.1403 -0.2149 -0.0069
32717W        W33581  16.661  28.177   7.352  0.1216 -0.0753 -0.0692
32718W        W33582  17.220  23.091  11.845  0.1956 -0.0697  0.1661
32719W        W33583  25.080  11.707   0.452  0.1096 -0.1681 -0.0137
32720W        W33584  20.640   5.437  12.260 -0.1507 -0.0803  0.1765
32721W        W33585  27.424   5.125   8.050 -0.1099 -0.0558  0.2425
32722W        W33586  16.546  27.368  28.765 -0.0642 -0.2094 -0.2827
32723W        W33587  20.911  13.798   9.188  0.4728 -0.0674  0.2730
32724W        W33588  16.649  11.055  14.563 -0.4552 -0.2527 -0.1683
32725W        W33589  17.601   0.168   6.660 -0.1233  0.2867  0.0634
32726W        W33590  20.532  13.658   7.485 -0.3183 -0.0640 -0.1138
32727W        W33591  14.053  12.679  10.960 -0.0875  0.1637 -0.1581
32728W        W33592  14.094   2.233  28.711 -0.1014 -0.3173 -0.1317
32729W        W33593  19.730  14.280   0.034  0.0275  0.0163 -0.1033
32730W        W33594  13.629  15.295  22.355  0.0288 -0.0086 -0.0267
32731W        W33595   8.592  22.899  13.841  0.2217 -0.0467  0.0730
32732W        W33596  15.776  14.413  18.033 -0.1025 -0.2917 -0.3410
32733W        W33597  25.512  24.152  14.563  0.3289 -0.1008  0.2047
32734W        W33598   8.916   0.031   7.641  0.0361  0.2580  0.3318
32735W        W33599  13.048   5.330  24.894  0.1276  0.0086 -0.3404
32736W        W33600  17.276  13.021   3.504 -0.2534 -0.2465  0.0527
32737W        W33601  20.194   4.266  14.351  0.2367  0.0145 -0.3446
32738W        W33602   1.262  10.052  15.544  0.0197  0.0068 -0.1020
32739W        W33603  25.623   7.283  18.621 -0.1936  0.0263  0.2390
32740W        W33604  10.637  16.349   4.956  0.2610  0.0700  0.1382
32741W        W33605   5.351   7.313   6.651  0.2448 -0.2550  0.1965
32742W        W33606   8.941  14.710  19.145  0.1838  0.0804  0.0887
32743W        W33607  23.991   0.638   2.103  0.0515  0.1679  0.1344
32744W        W33608  16.504  26.029   8.241  0.2657  0.1410  0.0039
32745W        W33609  21.950  25.181   7.962 -0.0291 -0.2051  0.0189
32746W        W33610  11.490  28.245  10.531  0.1238  0.3453 -0.1110
32747W        W33611  25.623  26.818  13.621 -0.4645  0.0452  0.2442
32748W        W33612   7.636  17.477   6.934  0.0587 -0.0191 -0.0017
32749W        W33613  15.239  11.929   9.561 -0.1883  0.0646  0.1003
32750W        W33614  14.635  29.062  22.945 -0.3123 -0.1991 -0.0618
32751W        W33615  16.794  10.244  13.896  0.1832  0.0861 -0.0056
32752W        W33616  24.875   9.163  18.649 -0.2746  0.0852 -0.0193
32753W        W33617  17.317  23.665   2.745 -0.2081 -0.0072  0.0792
32754W        W33618  22.326  28.222   5.382 -0.1142 -0.0627 -0.3000
32755W        W33619   7.878  26.780  25.730 -0.0649  0.2060  0.0758
32756W        W33620  28.354   6.890  11.531  0.0705  0.4432 -0.1859
32757W        W33621   2.665  24.160  25.596  0.2376  0.1358 -0.2689
32758W        W33622  26.783   7.366   8.309  0.0337 -0.1532  0.1126
32759W        W33623  15.718  11.495  22.409  0.1579 -0.0269 -0.0818
32760W        W33624   6.438   1.225  14.433  0.0557 -0.0982  0.0072
32761W        W33625   5.870  25.175  25.630  0.1025  0.0497 -0.1600
32762W        W33626  28.966  21.971  23.564 -0.0762  0.1841 -0.2501
32763W        W33627  14.827  19.351  13.835  0.1499  0.1256  0.0329
32764W        W33628   7.012  19.769  21.953 -0.0469  0.1755  0.0143
32765W        W33629  22.615  21.365   4.850  0.0348 -0.0250  0.1024
32766W        W33630  21.870   5.603   9.757 -0.0830  0.0796  0.0488
32767W        W33631   5.830   2.103   0.859 -0.0756  0.1090  0.0376
32768W        W33632   0.136   2.632  19.141 -0.2227  0.0293  0.0884
32769W        W33633  13.830  13.974  26.878 -0.0534 -0.0359 -0.0533
32770W        W33634  16.243  10.639  26.929 -0.0922  0.1114 -0.0995
32771W        W33635  18.242   5.360  13.789  0.0317 -0.0654 -0.0307
32772W        W33636   3.397  20.156  23.674 -0.3484  0.2078  0.1780
32773W        W33637   4.822  11.896  25.094 -0.0822  0.3863  0.0109
32774W        W33638  14.173  21.316   6.809 -0.0429  0.4480 -0.0960
32775W        W33639  10.959  15.025  10.161 -0.3108 -0.1554 -0.1307
32776W        W33640  13.021   6.353  21.765 -0.1057  0.1147 -0.0418
32777W        W33641  22.944   3.161  15.274 -0.0353  0.3386 -0.1322
32778W        W33642  22.382   6.744  10.331 -0.1894  0.3498  0.4607
32779W        W33643  17.353   6.588  20.190  0.0744  0.1817 -0.1281
32780W        W33644  27.695  23.896  10.454  0.2129  0.0523  0.2238
32781W        W33645   3.377  14.714  10.040 -0.2682 -0.1859 -0.2489
32782W        W33646  22.336  13.073  17.282  0.0991 -0.2470  0.0374
32783W        W33647  27.893  10.008   1.577 -0.0718 -0.1291 -0.0695
32784W        W33648  28.235  28.010   3.337  0.1004  0.1965  0.1633
32785W        W33649  27.934  14.254   8.292  0.2700  0.1061 -0.0312
32786W        W33650  25.607  13.899  24.106 -0.1728 -0.1737  0.3032
32787W        W33651  12.683  16.104  19.122 -0.0102  0.0934 -0.1763
32788W        W33652   3.767  25.685  12.243  0.2637  0.1464 -0.1222
32789W        W33653  14.303  24.273   9.117  0.0741 -0.0615  0.0018
32790W        W33654   3.304   1.958   4.068  0.1963  0.3142  0.2986
32791W        W33655  20.621  28.025  13.021  0.1611 -0.0063  0.2778
32792W        W33656   5.822   0.127  19.233 -0.0201  0.2450  0.1318
32793W        W33657  16.922   4.132  21.189  0.3092 -0.0578  0.0036
32794W        W33658   5.470  27.961  10.795  0.1024  0.2293 -0.0148
32795W        W33659   1.719   3.535   8.005  0.3003 -0.0379 -0.2336
32796W        W33660  27.613   2.259  10.738  0.1426 -0.1115 -0.0207
32797W        W33661  13.661   9.914  19.802 -0.0278  0.0035  0.3910
32798W        W33662   7.211   8.023  26.345  0.0401  0.0077 -0.1047
32799W        W33663   3.814   9.569  24.851  0.1344 -0.0681 -0.1462
32800W        W33664  27.247  16.225   3.460  0.1574  0.4534  0.1135
32801W        W33665  23.678  16.637   5.547  0.1005 -0.1103 -0.1322
32802W        W33666  15.834   4.228  26.408  0.1696 -0.1326  0.0778
32803W        W33667   8.656  12.105  16.296 -0.1002  0.0208 -0.3171
32804W        W33668   8.449   9.895   4.430  0.4993  0.1945 -0.1523
32805W        W33669  14.012   5.666  11.104  0.1827 -0.4103 -0.2416
32806W        W33670  14.860  24.824  10.655  0.2701  0.1559  0.1103
32807W        W33671  24.828  26.508  24.484  0.0211  0.1846  0.0045
32808W        W33672  28.994  27.804  17.613  0.1797 -0.0664 -0.2082
32809W        W33673  24.424   1.528  14.080  0.1328 -0.0558  0.1137
32810W        W33674   9.328  28.747  18.343 -0.0407 -0.1549 -0.1043
32811W        W33675  18.348  26.730   1.424  0.1207  0.1446 -0.3039
32812W        W33676   0.212  12.664   7.132 -0.2879  0.3031 -0.0845
32813W        W33677  10.270  20.530   6.130 -0.0720  0.0796  0.0428
32814W        W33678   5.595  21.955   0.346 -0.2993  0.3580 -0.1420
32815W        W33679   7.378   1.031  13.069 -0.1073  0.0498  0.1561
32816W        W33680  26.710  10.373  14.118  0.0014  0.3485 -0.0454
32817W        W33681   9.177   0.294  11.227 -0.0331 -0.0834  0.1027
32818W        W33682   9.710  18.799   9.537  0.0328 -0.1151  0.0220
32819W        W33683  22.473  11.664  11.029  0.1023  0.0114 -0.1089
32820W        W33684  25.790  17.329   1.077 -0.1887 -0.1317 -0.0555
32821W        W33685  26.298  10.873  25.664 -0.2271 -0.1356 -0.1007
32822W        W33686  12.107  11.050   3.337  0.2010  0.0126  0.2543
32823W        W33687   6.893   4.047  18.791  0.2265  0.1320  0.2107
32824W        W33688   0.743   3.687   2.961 -0.1661 -0.3161 -0.1510
32825W        W33689  28.932  16.277  13.694 -0.0547 -0.0311  0.1575
32826W        W33690  27.062  14.894  14.972 -0.3771 -0.1983  0.1248
32827W        W33691  18.173  17.524  15.473 -0.0985 -0.1771 -0.2532
32828W        W33692  22.784  27.552  23.395 -0.0057 -0.2314 -0.2111
32829W        W33693  21.206  13.366   8.295 -0.0112 -0.0201  0.0511
32830W        W33694   7.812   6.106  21.071  0.1087 -0.1809 -0.0415
32831W        W33695  24.321   7.024   1.253  0.0764 -0.0182 -0.4254
32832W        W33696  13.775   2.512  12.333  0.1990 -0.0272  0.3635
32833W        W33697  15.660   4.283  17.008  0.0226  0.0937  0.1725
32834W        W33698  15.156  20.709  10.453  0.0911  0.0938 -0.2366
32835W        W33699   5.709   5.118  15.711  0.1877 -0.0507  0.0757
32836W        W33700   4.830  13.078  19.953 -0.1672 -0.1464 -0.1980
32837W        W33701  15.148  11.338  20.879  0.0824  0.1597 -0.0908
32838W        W33702  14.227   8.459  28.298 -0.0022 -0.2795 -0.0080
32839W        W33703  20.581   3.277   4.198  0.1671 -0.1685  0.3609
32840W        W33704  19.131  22.912   6.878  0.1934  0.0922 -0.0578
32841W        W33705  17.006   3.489  28.412  0.0014  0.3229 -0.0004
32842W        W33706  27.590  10.412  25.377 -0.0343  0.0837  0.2577
32843W        W33707  11.667   8.540  12.990  0.0728  0.1904 -0.2008
32844W        W33708  17.565   7.916  14.698  0.3463 -0.2719 -0.1715
32845W        W33709  27.548   6.426  22.041  0.1228 -0.2253 -0.2355
32846W        W33710  14.341  15.374   4.765 -0.2267  0.1109 -0.2069
32847W        W33711  25.238  22.669  24.866  0.2103 -0.2889  0.3300
32848W        W33712   4.655   5.597  11.755 -0.0749 -0.0510 -0.0991
32849W        W33713  20.598  20.760  11.177  0.2283 -0.0905  0.2858
32850W        W33714  15.135   9.859  26.274 -0.1239 -0.0705  0.0383
32851W        W33715  23.154  11.061   8.016 -0.0669 -0.0351  0.0744
32852W        W33716  11.723   8.555  21.523 -0.1039  0.0143  0.3658
32853W        W33717  13.574  15.910  13.811 -0.2988  0.0686 -0.3236
32854W        W33718  24.255  27.306  13.845  0.5070  0.1819  0.4859
32855W        W33719  22.800  27.848  14.615 -0.4610 -0.0205  0.1154
32856W        W33720   6.919   5.703  10.911  0.2788 -0.2051  0.0201
32857W        W33721  12.145   6.514   5.464  0.3324  0.0707  0.3494
32858W        W33722   3.470   5.545   0.577  0.0674 -0.2091  0.1070
32859W        W33723  27.623  18.105  26.362 -0.1658 -0.2417  0.0221
32860W        W33724   2.183  18.892  10.135 -0.0978  0.1236  0.0412
32861W        W33725  18.988  23.788  10.814 -0.1228  0.0718 -0.0102
32862W        W33726  27.547   9.268  21.702  0.0936 -0.1002 -0.3112
32863W        W33727  23.019  27.056   6.295  0.0928 -0.2478  0.3029
32864W        W33728  13.056  26.430  25.616  0.3452 -0.0799 -0.0250
32865W        W33729  12.951   6.803   7.660  0.0125  0.0226  0.0038
32866W        W33730  13.336  15.944  22.756  0.1343 -0.4162 -0.3801
32867W        W33731  24.995  25.238  18.973  0.1340  0.0527 -0.2725
32868W        W33732   4.687  12.627  22.058 -0.2881 -0.4138 -0.0624
32869W        W33733  26.666   7.076  10.361 -0.1096 -0.1400 -0.1721
32870W        W33734  10.232  20.800  25.136 -0.0171  0.0206 -0.0314
32871W        W33735  12.734  26.572   3.630 -0.2451  0.2956  0.2819
32872W        W33736  25.436  13.734   9.010  0.0580 -0.0091 -0.1071
32873W        W33737   0.525  17.683  24.441 -0.1749  0.0048  0.1544
32874W        W33738  16.016   0.515  11.644 -0.0927 -0.0985  0.1555
32875W        W33739  21.321   5.774  29.103  0.2414  0.0301 -0.0806
32876W        W33740   6.052   6.481   4.434 -0.0478 -0.0563 -0.0139
32877W        W33741   1.705  27.349  23.792  0.0163  0.1329  0.0062
32878W        W33742  10.527  14.964  16.936 -0.2577 -0.2419 -0.4190
32879W        W33743  28.197   7.867  23.729  0.0436  0.3077 -0.3751
32880W        W33744  16.453   4.526   7.903  0.0510  0.0515 -0.1135
32881W        W33745  26.686   5.649  15.686  0.1718 -0.0192  0.1054
32882W        W33746  26.788  20.621  12.674 -0.1369  0.1924 -0.2318
32883W        W33747  26.519  14.399  24.168 -0.1589 -0.1786 -0.1430
32884W        W33748   0.038   7.806  23.650 -0.0971 -0.3419 -0.0447
32885W        W33749  23.086  23.553  20.645 -0.1519 -0.3055  0.0326
32886W        W33750  13.066  11.113  18.870  0.0209  0.1202 -0.1314
32887W        W33751  26.043  13.820  23.782 -0.1798 -0.0974 -0.1086
32888W        W33752  24.079  26.210  16.275  0.3905  0.0651  0.1672
32889W        W33753   7.037   9.475  28.072 -0.1765 -0.1133 -0.1951
32890W        W33754  21.439  13.934  17.005 -0.0503  0.3052  0.1089
32891W        W33755  17.039   5.087  20.140 -0.0563  0.0665 -0.3523
32892W        W33756   9.818  20.112   8.710 -0.2791 -0.0922 -0.0134
32893W        W33757  11.009  10.691  19.780  0.1046 -0.0691 -0.0918
32894W        W33758   7.677  27.232  11.564  0.1053 -0.1372  0.1240
32895W        W33759  24.245  24.977   9.387 -0.3555 -0.0057 -0.4002
32896W        W33760   9.898   2.832   1.224 -0.1166 -0.1073  0.2442
32897W        W33761  27.812  11.620  17.300  0.2290 -0.0459  0.1606
32898W        W33762  29.007  22.241  22.640 -0.1394  0.0134  0.1898
32899W        W33763  16.791  10.351   7.023 -0.2960 -0.0657 -0.0599
32900W        W33764  21.128   0.459   3.365  0.2189 -0.1704 -0.1112
32901W        W33765   5.799  11.926  13.721  0.4057 -0.0050 -0.3317
32902W        W33766  24.438   9.059   7.317  0.2354  0.0531 -0.0960
32903W        W33767   0.392   5.888  17.258  0.1705 -0.2201 -0.0678
32904W        W33768  25.419  21.343  16.972 -0.0142 -0.1859 -0.0987
32905W        W33769  11.621  28.400   1.713 -0.1099 -0.0292  0.2830
32906W        W33770   2.163  10.075   4.110  0.0303  0.0737 -0.1689
32907W        W33771  25.921  14.859  20.522 -0.1250  0.1958  0.2241
32908W        W33772  11.660   7.440  26.165  0.0041  0.0017 -0.1801
32909W        W33773  21.508  11.469   0.893  0.1225 -0.0483 -0.4728
32910W        W33774  18.415  28.011  17.697 -0.3276 -0.0525 -0.5236
32911W        W33775   3.251   5.993  23.402 -0.1776  0.0996  0.2048
32912W        W33776  22.774   2.990   3.396  0.1105 -0.2558 -0.4081
32913W        W33777  13.570  12.623  25.266  0.2093  0.2098  0.2824
32914W        W33778  19.696   7.791  17.676 -0.0465 -0.1439  0.0757
32915W        W33779  21.126  11.250  20.287 -0.2384  0.0291 -0.0641
32916W        W33780   3.618  13.209  29.104  0.1887  0.1656 -0.1259
32917W        W33781  22.911   8.794  17.197  0.1042  0.1963 -0.2293
32918W        W33782   7.359  12.322   7.656 -0.0097  0.2928 -0.1580
32919W        W33783  19.411  24.125  22.465  0.0218 -0.0668  0.1105
32920W        W33784  28.361   4.555  12.297 -0.1021 -0.0360  0.0887
32921W        W33785  19.324  14.784  17.745 -0.0382  0.1501  0.2457
32922W        W33786   0.363  10.827   7.765  0.3028 -0.0993  0.2735
32923W        W33787   4.465  24.069  18.424 -0.1503  0.0253 -0.1445
32924W        W33788  19.908   9.875   6.109  0.2501  0.0683 -0.2638
32925W        W33789  12.848   1.897  10.561  0.1384  0.1020 -0.4070
32926W        W33790  21.949   4.040   8.534  0.0570  0.1272 -0.1416
32927W        W33791   8.729  26.836  24.346  0.0925  0.1327  0.0876
32928W        W33792  27.200  27.221   3.643  0.0383 -0.1733  0.1222
32929W        W33793  24.529  18.464   2.824 -0.5168 -0.0315  0.1779
32930W        W33794   5.268  17.141  17.123  0.1985 -0.0111 -0.1562
32931W        W33795  24.350   7.016  17.296 -0.0639 -0.2019 -0.1896
32932W        W33796  13.730  28.000  20.200 -0.2043 -0.1495 -0.5358
32933W        W33797   2.976   3.917  18.353  0.0368 -0.2599  0.1254
32934W        W33798   8.821   3.700  15.476 -0.0495  0.0453 -0.1760
32935W        W33799  28.016  28.850   6.841 -0.3295 -0.1625  0.3713
32936W        W33800   9.117  10.757  15.331  0.0337  0.0727  0.3911
32937W        W33801  27.187  18.678   2.636 -0.1388 -0.0635 -0.0053
32938W        W33802  28.725  15.939  16.033 -0.0308 -0.0048 -0.1840
32939W        W33803  15.758   7.773   6.600  0.2201 -0.0697 -0.0199
32940W        W33804  26.893  11.738  19.658 -0.0206 -0.1873 -0.0125
32941W        W33805  21.059  25.938  28.365  0.2456 -0.0531  0.1038
32942W        W33806  22.142  26.281   5.452 -0.1002 -0.1684 -0.0785
32943W        W33807  13.128  14.053   7.535  0.0317 -0.1049  0.0423
32944W        W33808  21.202  21.694  18.122  0.0563  0.1594  0.1944
32945W        W33809  18.121  16.211  26.614 -0.2944  0.1177 -0.1188
32946W        W33810  12.758  19.369  11.768  0.0892 -0.0941  0.0059
32947W        W33811  23.735  13.230  15.475  0.2888  0.2393 -0.4764
32948W        W33812   2.497  28.776  29.010 -0.0212  0.1276 -0.0405
32949W        W33813  22.589   9.495  22.443  0.1142 -0.2365  0.0140
32950W        W33814  17.878  19.238  20.919  0.2404 -0.3268  0.0788
32951W        W33815   8.997  28.702  16.372  0.1581 -0.1951 -0.0044
32952W        W33816  21.816  19.112  28.278 -0.0729 -0.1022 -0.1013
32953W        W33817   6.251  26.647  11.348  0.0290  0.2223 -0.0908
32954W        W33818  26.623  25.848  13.911  0.1912 -0.1925 -0.2193
32955W        W33819  14.563  10.815  22.991 -0.1587 -0.3724  0.2818
32956W        W33820   3.908  11.750   9.203  0.3429  0.0504  0.1894
32957W        W33821  15.364  15.113  11.611  0.5720 -0.4473  0.0675
32958W        W33822  10.078  13.049  13.812  0.1588 -0.1691 -0.3474
32959W        W33823  24.144   8.283  11.831 -0.2563 -0.0900 -0.1093
32960W        W33824  26.285   8.295  18.308 -0.2006 -0.1224  0.5069
32961W        W33825  14.423  28.282  10.192  0.1660  0.1548 -0.3090
32962W        W33826   7.033  10.674  24.058 -0.0312 -0.1746  0.0160
32963W        W33827   9.195   9.237   0.070  0.0187  0.0796  0.0803
32964W        W33828  11.662   6.120  27.039  0.1848 -0.2550 -0.0085
32965W        W33829  24.882  13.541  15.824  0.0616 -0.0475 -0.0253
32966W        W33830   2.269  20.131  17.771 -0.1587  0.0066  0.0222
32967W        W33831  25.044   8.914  19.112 -0.2037 -0.0331  0.1233
32968W        W33832  13.303  17.560   1.258 -0.0176  0.0409  0.2151
32969W        W33833  12.475  23.141  20.568 -0.0320 -0.2547  0.1080
32970W        W33834  20.198   8.927  16.275  0.3867 -0.1169 -0.2005
32971W        W33835  10.143   8.864   2.957 -0.1013 -0.0845 -0.1669
32972W        W33836  28.260  22.693   7.011  0.1354 -0.1637 -0.0686
32973W        W33837  21.634  21.030  25.303 -0.0107  0.1149 -0.1121
32974W        W33838  24.775  19.875  15.604 -0.0768 -0.2201 -0.0718
32975W        W33839   2.597  11.526  25.540  0.1529  0.0211  0.1342
32976W        W33840  25.580  22.317  23.644 -0.0606 -0.0026 -0.1274
32977W        W33841  10.760  23.523   1.009 -0.1861  0.1643  0.3298
32978W        W33842  19.709  28.778   8.911  0.0954 -0.1299  0.0758
32979W        W33843  10.624  28.313  20.696  0.0718 -0.0774  0.0294
32980W        W33844   7.470  17.294  17.463 -0.3549 -0.0306  0.4256
32981W        W33845  21.853   2.752  11.296  0.0644 -0.0142  0.1678
32982W        W33846  24.681   0.271  18.791  0.4233 -0.1755  0.0053
32983W        W33847  19.240   8.411  24.298 -0.2610  0.0062 -0.2275
32984W        W33848  20.218   5.737   5.070 -0.1291 -0.0801 -0.0836
32985W        W33849  16.077  26.829  25.268  0.1146  0.1146 -0.0980
32986W        W33850  16.887   8.385  17.199  0.2578 -0.2683  0.0908
32987W        W33851  12.953  25.068   4.062  0.0521 -0.1271 -0.0633
32988W        W33852  15.625  25.800  25.264 -0.1138 -0.0583 -0.2081
32989W        W33853  26.893  22.897   3.384  0.2848  0.3091 -0.0148
32990W        W33854   8.980  11.094  21.665  0.0120 -0.1470 -0.0362
32991W        W33855  10.524   9.386   0.340 -0.1756 -0.2990 -0.0228
32992W        W33856  22.669  12.942  21.173  0.3430  0.2341 -0.1520
32993W        W33857  25.934  22.466  23.983  0.0247 -0.4485 -0.1964
32994W        W33858  27.576  16.207  18.329 -0.2961 -0.2623  0.1669
32995W        W33859  19.266   5.133  27.740 -0.0929  0.1115 -0.1048
32996W        W33860   7.625  14.110  11.995 -0.1851 -0.2211 -0.0581
32997W        W33861  21.135  10.844  22.017 -0.1293  0.0420 -0.0116
32998W        W33862   7.490   1.011  27.556  0.2777 -0.1472  0.2948
32999W        W33863  16.916   3.377  16.406  0.1505  0.1436 -0.2654
33000W        W33864  25.777  12.940  10.119 -0.0423 -0.0641  0.1218
33001W        W33865   2.886  22.392   4.541  0.1839 -0.3867  0.0182
33002W        W33866   2.905  20.628   2.414  0.1663 -0.0608  0.1287
33003W        W33867  24.572   0.887  22.871 -0.0716  0.1549  0.1333
33004W        W33868  17.848   7.048  23.719 -0.0163 -0.1210  0.4168
33005W        W33869  21.074  12.411   2.712 -0.0411  0.0167 -0.0511
33006W        W33870  22.665   9.611   7.030 -0.0335 -0.2733 -0.2395
33007W        W33871  10.553  27.881  28.739  0.0182  0.3233  0.0469
33008W        W33872  17.116   5.026  22.214  0.0312  0.0857  0.1369
33009W        W33873  18.486  13.246  25.501 -0.2920 -0.0258  0.1594
33010W        W33874  23.785  26.178   8.178  0.1909 -0.2790  0.1783
33011W        W33875  10.522  15.614  13.858 -0.1910  0.1131  0.0422
33012W        W33876  13.761   0.078  22.391  0.1488 -0.2136 -0.0263
33013W        W33877  16.768   5.158  12.890 -0.1214 -0.0239 -0.1755
33014W        W33878   3.970   0.390  17.809  0.0850  0.1144  0.0698
33015W        W33879   0.836  17.666  26.550  0.0312  0.0081 -0.1619
33016W        W33880  22.807  24.526   9.175  0.1960 -0.2402  0.3159
33017W        W33881  20.413  17.894   8.870  0.2130  0.0698 -0.2683
33018W        W33882  27.057  13.837  20.042 -0.0217  0.3292 -0.1387
33019W        W33883  20.548   4.516  17.776  0.1500  0.3377 -0.0045
33020W        W33884  26.193   9.923  21.890 -0.0103  0.0380 -0.1975
33021W        W33885  23.488   1.362  26.331 -0.1773 -0.1007 -0.3589
33022W        W33886   5.063  27.560   0.794  0.2546 -0.0459 -0.0597
33023W        W33887  26.537  14.443  26.761 -0.1821  0.0936 -0.0958
33024W        W33888   4.209   6.426   3.276  0.4168 -0.0634 -0.0311
33025W        W33889  22.605   8.426  12.042  0.2019 -0.0001  0.1447
33026W        W33890   5.482  15.205  22.249 -0.4325  0.2711 -0.2272
33027W        W33891  23.145  25.778  15.086 -0.1717 -0.1990 -0.2554
33028W        W33892  28.717  25.951  21.335  0.0658  0.1820 -0.0567
33029W        W33893  17.552  15.724  27.612 -0.2674  0.0631  0.1172
33030W        W33894  19.658   6.464  28.082 -0.2214  0.0915  0.0258
33031W        W33895  24.921   0.925   6.502  0.2772  0.1130  0.0950
33032W        W33896  19.621   3.662  20.126 -0.0253 -0.0685  0.1975
33033W        W33897   1.172  26.405  25.357 -0.1639 -0.0390  0.0858
33034W        W33898  19.859   4.517  14.025 -0.1041 -0.0175 -0.0844
33035W        W33899   6.558   0.464  17.372 -0.1129  0.0198  0.2209
33036W        W33900   8.406  11.515  11.416 -0.1817  0.2134  0.0519
33037W        W33901  16.538   1.223   3.331 -0.1374  0.1163  0.0845
33038W        W33902  26.836   6.253  13.010  0.3180 -0.1240 -0.2660
33039W        W33903  23.135   2.082  12.911  0.0146  0.0695 -0.1877
33040W        W33904  27.379  27.292  22.370  0.1051 -0.1471 -0.0522
33041W        W33905  20.866  11.491   0.910 -0.2020  0.1399 -0.0617
33042W        W33906  16.915  10.757   4.381 -0.1928 -0.3339  0.3012
33043W        W33907  12.180  26.479   1.403  0.1562 -0.1310  0.1933
33044W        W33908  22.272   4.181   0.988  0.0859 -0.0789 -0.3036
33045W        W33909  24.860  25.940  24.427  0.2080  0.1541 -0.0765
33046W        W33910  12.657   1.814  26.681 -0.4059  0.1035 -0.2584
33047W        W33911  14.310   3.778  12.871 -0.2153  0.0353 -0.1068
33048W        W33912  19.847   8.914  23.967 -0.0861 -0.2046  0.0858
33049W        W33913  20.801   0.809   4.430  0.2113  0.0120  0.0235
33050W        W33914  21.904  12.599  27.426  0.1187 -0.3988  0.1239
33051W        W33915  17.476  27.339  13.403 -0.3240 -0.1816 -0.0189
33052W        W33916  27.705  27.462  21.637 -0.1818  0.0575  0.0736
33053W        W33917  27.212  27.903  15.951  0.2411 -0.2039 -0.0550
33054W        W33918  15.105  22.989  27.044 -0.2541  0.2949  0.0436
33055W        W33919   2.215   5.967  24.828  0.1738  0.1117  0.0630
33056W        W33920  17.912  20.480  15.779  0.1017  0.1738 -0.2323
33057W        W33921  20.133   0.016   0.726  0.1312 -0.0463  0.0537
33058W        W33922  11.210   2.759  18.162  0.2627 -0.0218 -0.1441
33059W        W33923  16.662  28.603   7.825  0.0468  0.4291 -0.1525
33060W        W33924   4.890   8.647  24.010  0.2396 -0.1230 -0.1183
33061W        W33925   1.710   3.114   7.288 -0.0265 -0.0147 -0.0367
33062W        W33926   5.995  25.817  26.785  0.3466  0.1210  0.0277
33063W        W33927   2.220  22.570  25.906  0.1462 -0.0514  0.0996
33064W        W33928  16.401  10.353  19.774 -0.1004  0.0517  0.2175
33065W        W33929   8.418  27.204   8.040  0.0626  0.0538 -0.0235
33066W        W33930  27.132  13.118  14.517 -0.2950  0.2161  0.1256
33067W        W33931   7.115  17.221  19.190 -0.1045  0.3187 -0.0672
33068W        W33932  23.832   6.776  16.854 -0.0168  0.4304  0.0265
33069W        W33933  17.559  14.099  16.099  0.0730  0.3060 -0.0535
33070W        W33934   9.484   7.181  26.478  0.2434 -0.0048 -0.2784
33071W        W33935   6.389   0.911  27.676 -0.2792 -0.1965  0.0282
33072W        W33936  20.673   8.705  18.247 -0.0715  0.1371 -0.0417
33073W        W33937  15.072   8.861   3.400  0.1493  0.2693 -0.0615
33074W        W33938  25.734   8.171  24.943  0.3315  0.4605 -0.0489
33075W        W33939   2.013  12.435  21.037  0.0020 -0.0558 -0.1485
33076W        W33940  27.116  17.651  14.531 -0.2945  0.2129 -0.0804
33077W        W33941  17.665  10.168  25.402 -0.2936 -0.1397 -0.4051
33078W        W33942   1.328  27.289  24.112  0.0377  0.3793  0.1407
33079W        W33943  20.017  10.325   1.339  0.0518 -0.1006 -0.0987
33080W        W33944   3.599  22.416  14.542 -0.1557  0.1198  0.0067
33081W        W33945  17.370  12.038  18.095  0.0562  0.0015 -0.1170
33082W        W33946  27.306   5.485   9.780  0.1940 -0.0091  0.2742
33083W        W33947   8.895  28.113  13.827  0.1089  0.3526 -0.1402
33084W        W33948  26.360  24.126   0.025 -0.0904  0.0102  0.1979
33085W        W33949  19.964   8.498   5.854 -0.1848  0.1014 -0.2311
33086W        W33950   3.394   9.405  26.994  0.0402 -0.1179 -0.1191
33087W        W33951  28.087   4.773  17.134 -0.1970  0.1028  0.1728
33088W        W33952   4.737   6.470  23.725  0.1827  0.2972  0.0032
33089W        W33953  11.839  10.575  13.745 -0.0519  0.1172  0.2735
33090W        W33954  18.749  23.065   1.746 -0.0059 -0.0028 -0.1459
33091W        W33955   5.489  15.415  14.580  0.1920 -0.1816  0.1246
33092W        W33956  21.855  20.955  17.176 -0.1608 -0.0521 -0.3642
33093W        W33957  27.070   0.590  18.801 -0.0760 -0.3888  0.0397
33094W        W33958  28.288   1.334   9.498  0.0172  0.2279 -0.0797
33095W        W33959  14.833  24.343   9.148 -0.1869 -0.2386  0.0731
33096W        W33960   8.509   3.041  14.134  0.1620 -0.2253 -0.0353
33097W        W33961  22.991   1.629  23.452  0.1733 -0.0905  0.2063
33098W        W33962   3.509   4.877  16.168 -0.1564  0.1463  0.0252
33099W        W33963   7.333   5.996  21.366 -0.2634  0.0700  0.0603
33100W        W33964   6.319   3.506  18.274 -0.2330 -0.1354 -0.0264
33101W        W33965   4.880   1.319   6.201  0.0824 -0.0474 -0.2153
33102W        W33966   0.062   7.713  10.826 -0.0611  0.2229 -0.1528
33103W        W33967  10.021   9.031  26.776 -0.2793 -0.0123 -0.3383
33104W        W33968  14.005   4.515   7.793 -0.3138 -0.0687 -0.1083
33105W        W33969  24.724  29.031  20.296  0.0079  0.3474 -0.4832
33106W        W33970  20.718   4.855  12.111  0.2277  0.3650  0.0561
33107W        W33971  14.705   2.519  16.517  0.0913 -0.1480 -0.3463
33108W        W33972  19.070  14.260  20.817  0.3146 -0.1921 -0.2270
33109W        W33973  20.574   8.368  16.205  0.2296  0.1405 -0.1166
33110W        W33974  26.751  18.451  14.709 -0.0814  0.0269  0.1375
33111W        W33975  24.055   1.542  18.765 -0.2192  0.2985 -0.0538
33112W        W33976  16.699  28.053  13.666 -0.1106 -0.2457 -0.2989
33113W        W33977  19.300  13.037  13.753  0.0638  0.0009  0.3209
33114W        W33978  23.010  21.955   3.013 -0.4056  0.4434  0.1019
33115W        W33979   0.067  10.994  25.674  0.3571 -0.0014  0.0639
33116W        W33980   2.811  23.612   4.671  0.1725  0.1821  0.0946
33117W        W33981   8.245  10.888   9.159 -0.0133  0.0836  0.0320
33118W        W33982  25.463   1.713  10.085 -0.1693 -0.0598  0.2200
33119W        W33983  25.014  10.884  17.260 -0.1955  0.0335  0.0076
33120W        W33984   9.945  28.389  17.794  0.0094 -0.1691 -0.1086
33121W        W33985  26.819   4.402  28.445 -0.2190  0.0443  0.1670
33122W        W33986  17.395   6.563   1.171  0.0560  0.2149  0.0203
33123W        W33987   9.466   1.805   1.578  0.0512 -0.1469  0.0836
33124W        W33988  13.240  22.366  12.391 -0.2538 -0.1700 -0.1350
33125W        W33989  15.430   9.033   2.285 -0.1439 -0.1729 -0.0858
33126W        W33990   8.393   1.797  19.054 -0.1291 -0.1199 -0.0240
33127W        W33991   4.795  19.426  20.472  0.1041  0.3639 -0.1763
33128W        W33992  25.061  22.629  10.302 -0.1069  0.0614  0.0079
33129W        W33993  18.011  11.750   4.656  0.1052  0.1049 -0.0014
33130W        W33994  25.322  24.776  17.275  0.1317  0.0387  0.0231
33131W        W33995  23.475  11.188   1.939  0.2920 -0.1467  0.2530
33132W        W33996  20.266  11.121  16.965 -0.1311  0.1281 -0.0857
33133W        W33997  10.246   0.786  25.734  0.2137 -0.0399 -0.0876
33134W        W33998   8.584   3.205   0.909 -0.1240  0.3148 -0.3107
33135W        W33999   9.329  19.245  11.894  0.0031 -0.1844 -0.2924
33136W        W34000  13.538  20.366  22.435 -0.3047  0.0089 -0.0692
33137W        W34001  10.987  28.793  22.978  0.0319  0.0765  0.3026
33138W        W34002   1.254   2.573   5.085  0.1117 -0.2043  0.3347
33139W        W34003  11.518  10.136  12.663  0.0466 -0.1242  0.3403
33140W        W34004  19.485  11.774  23.509 -0.3250  0.2830 -0.0559
33141W        W34005   6.920  18.165  15.252 -0.3001 -0.3106 -0.0714
33142W        W34006  14.255   3.609  22.967  0.1064 -0.3474 -0.3968
33143W        W34007   0.770  16.951  26.441  0.0280  0.0252  0.0748
33144W        W34008   8.592   9.223   8.812 -0.2702  0.2142  0.0509
33145W        W34009  12.916  23.156  13.048 -0.0234  0.1757 -0.0893
33146W        W34010  27.492  15.673  25.014  0.0978  0.3048  0.5456
33147W        W34011  21.005   4.701   8.321 -0.0989 -0.1734 -0.0417
33148W        W34012  20.292  28.548  19.328  0.1821 -0.1794  0.0110
33149W        W34013  18.790   8.105   1.650 -0.1241 -0.1589 -0.1882
33150W        W34014  17.269  19.818  24.156  0.2810  0.1666 -0.0505
33151W        W34015   5.753  24.875  23.972  0.1501 -0.3096  0.0544
33152W        W34016  14.301  10.408  17.600 -0.2655 -0.1134 -0.2476
33153W        W34017  18.148  25.262  28.178 -0.4085  0.1232 -0.0194
33154W        W34018  21.043   5.017  16.207  0.2179  0.0388  0.1778
33155W        W34019  12.883   6.814   6.735  0.1159  0.0279  0.0179
33156W        W34020   2.281   2.482  12.675 -0.2856  0.0430  0.1386
33157W        W34021   3.347  22.406  10.895 -0.1207  0.4094 -0.2372
33158W        W34022   2.078  19.140   7.784 -0.0654  0.0125 -0.2317
33159W        W34023  16.669   5.345  24.554  0.2372  0.1196 -0.0820
33160W        W34024   8.954  10.126   4.728  0.1900  0.0514 -0.1233
33161W        W34025   9.003  11.989  15.943 -0.1518  0.4787  0.2415
33162W        W34026  26.494   7.871  21.981 -0.2889 -0.0466  0.0792
33163W        W34027   3.037  10.530  10.506  0.0212 -0.0307 -0.0814
33164W        W34028  11.956  19.436  24.374  0.3287  0.2147  0.0285
33165W        W34029  26.912   0.361   2.001  0.2147 -0.1844 -0.0327
33166W        W34030  12.005  17.675  10.435 -0.2875 -0.1226 -0.1307
33167W        W34031   2.903   0.455   1.513 -0.0705 -0.1028  0.2885
33168W        W34032  25.160  23.226  13.602 -0.2144 -0.1898 -0.1195
33169W        W34033  28.914  14.205   8.800  0.1646  0.2905 -0.0823
33170W        W34034  22.374  12.141  22.770  0.3801 -0.1017  0.1599
33171W        W34035  16.924   4.913   6.311 -0.1692 -0.2762  0.0483
33172W        W34036   9.019   5.208  10.209 -0.1437 -0.0113  0.0662
33173W        W34037  25.334  14.323  23.899 -0.0652  0.0730  0.1161
33174W        W34038  28.897  14.217  19.158  0.3565  0.2081 -0.1134
33175W        W34039  20.205  26.413  25.315  0.0261  0.1280 -0.2653
33176W        W34040  17.940   0.570  10.066  0.2516 -0.2107  0.0686
33177W        W34041  24.908   1.554   6.620  0.1127  0.2541 -0.0804
33178W        W34042  13.205   2.739  20.899 -0.0606 -0.3255  0.0579
33179W        W34043  20.438  23.724  20.979  0.1485 -0.2354 -0.0599
33180W        W34044   0.495  19.847  16.348  0.0079 -0.1136 -0.0108
33181W        W34045   4.647  28.520  20.929  0.3674  0.0621  0.1280
33182W        W34046  17.232  24.666  24.691 -0.1090 -0.0016  0.1373
33183W        W34047  15.712   1.292  17.801 -0.0281 -0.2883  0.2691
33184W        W34048   9.389  16.740  19.844 -0.1617 -0.0893 -0.0876
33185W        W34049  28.056  23.832   5.067  0.1960  0.0918 -0.1369
33186W        W34050   1.971   4.228   8.392 -0.1665 -0.1050 -0.0816
33187W        W34051  22.751  16.848  16.886  0.1302 -0.0376  0.1399
33188W        W34052  15.296   9.507  11.960  0.1217 -0.0079 -0.2291
33189W        W34053  28.023  24.177  15.139  0.1157 -0.0581 -0.0169
33190W        W34054  28.065   3.628   1.687  0.0680 -0.0003  0.0499
33191W        W34055  29.061   9.826  28.965  0.2141  0.0672 -0.1071
33192W        W34056  25.304   7.454  16.406  0.0445  0.1895  0.0338
33193W        W34057  22.986  21.750   5.551 -0.0924  0.0144 -0.1578
33194W        W34058   1.882   2.999  25.809 -0.0685  0.0098  0.0409
33195W        W34059  27.798   3.163  25.842 -0.3632 -0.0597  0.0743
33196W        W34060  12.920  24.872   1.734  0.0559  0.2460  0.0920
33197W        W34061  18.397   4.460  24.418 -0.0597 -0.1593  0.0388
33198W        W34062  14.960  10.045  13.177 -0.1958 -0.3701 -0.0988
33199W        W34063   3.723  16.803  17.490 -0.4577  0.1475  0.0612
33200W        W34064   7.054  11.976  10.521 -0.0527  0.1461  0.0490
33201W        W34065  26.630  27.382  18.459  0.0346 -0.0865  0.0139
33202W        W34066  26.543  24.566  28.868  0.0943 -0.0421 -0.2088
33203W        W34067  24.115   5.702   2.928  0.0679 -0.1547 -0.0067
33204W        W34068  19.084  21.320  14.271 -0.2263  0.1968 -0.1467
33205W        W34069  18.973  16.611   3.450  0.3860 -0.1432 -0.0781
33206W        W34070  23.083   3.861  20.332 -0.3155 -0.1768 -0.1944
33207W        W34071  15.906   9.572  14.047 -0.0795 -0.1523  0.1368
33208W        W34072  21.573   5.586   6.785 -0.0245  0.0198 -0.1255
33209W        W34073  25.700   3.286   5.495  0.0154  0.1915 -0.0784
33210W        W34074  14.101   5.113   3.689 -0.0908  0.2544  0.4880
33211W        W34075   7.328  13.174   1.817  0.2451 -0.0693 -0.0794
33212W        W34076  23.074   9.210   9.548 -0.0660 -0.0148  0.1488
33213W        W34077   0.876  16.260  17.924  0.1417 -0.2334 -0.1613
33214W        W34078  27.822  19.634  20.341 -0.3685 -0.1819 -0.2032
33215W        W34079  23.627  15.851  19.172  0.3000 -0.0789 -0.1280
33216W        W34080  19.225   4.523  11.923 -0.0902 -0.0758  0.1952
33217W        W34081  29.057  11.573  20.476  0.1468  0.3202  0.0541
33218W        W34082   2.943  14.538   9.034  0.4253 -0.0656 -0.2988
33219W        W34083  19.965  10.569   3.038 -0.0813 -0.1550  0.0931
33220W        W34084  13.215   2.046  17.071 -0.0848  0.0577 -0.1085
33221W        W34085   4.484  25.905  17.010  0.0209  0.1859  0.1831
33222W        W34086  19.981  14.266  11.431 -0.1800  0.0106 -0.0340
33223W        W34087   1.617  13.027  23.829 -0.1053  0.1967  0.3527
33224W        W34088  22.695  23.961   5.604 -0.0878  0.0854 -0.1276
33225W        W34089   0.246   4.743  21.140  0.2711 -0.2046  0.4556
33226W        W34090   6.239   4.356  19.508  0.0104 -0.0175  0.0967
33227W        W34091   5.186  15.999  11.967 -0.0984 -0.0953 -0.2259
33228W        W34092  22.728   2.259  19.763 -0.3289 -0.1250  0.2198
33229W        W34093   6.092  28.602   1.412 -0.1341 -0.2509 -0.0417
33230W        W34094  15.401   5.013   5.762 -0.2855  0.0022  0.1402
33231W        W34095  15.571  21.059  27.048  0.0329  0.1090 -0.2823
33232W        W34096   1.967   7.887   1.303  0.3010 -0.1398 -0.1240
33233W        W34097  24.737  11.834   2.247 -0.4827  0.0747  0.0570
33234W        W34098  20.938   4.483  20.445 -0.1818 -0.1361  0.1072
33235W        W34099   7.633  12.525  19.094 -0.2017  0.0051 -0.0202
33236W        W34100  23.214   2.924  15.620  0.1643 -0.0809 -0.0855
33237W        W34101   2.121  16.017  22.165  0.1954  0.1426  0.1191
33238W        W34102  10.476   1.967  16.878 -0.1761 -0.0165  0.2439
33239W        W34103  17.027  27.766  10.130  0.1934  0.0472 -0.0877
33240W        W34104   9.787  23.917  20.576  0.1646  0.0493 -0.1320
33241W        W34105   9.801   7.755  16.453 -0.3670 -0.1783 -0.0351
33242W        W34106  20.799  23.475  16.590  0.3438  0.5423 -0.0055
33243W        W34107  24.240   8.111  25.330 -0.1744  0.2311  0.0319
33244W        W34108   9.048  22.982   0.123  0.0231 -0.0060 -0.0452
33245W        W34109   6.674   3.665  15.287 -0.0252 -0.2259 -0.0808
33246W        W34110   2.882   5.289  10.266 -0.2161  0.5155  0.0696
33247W        W34111   3.532   3.179  15.044  0.0169 -0.2269  0.1555
33248W        W34112  17.739  13.196  17.595 -0.0995  0.0633 -0.2471
33249W        W34113  23.460  11.497  21.616 -0.1971  0.0372 -0.1332
33250W        W34114  15.927   2.612   4.769 -0.1596  0.0967  0.1550
33251W        W34115  29.040   4.675   5.580 -0.1131 -0.0324  0.3106
33252W        W34116  14.995   7.245  23.272 -0.0571  0.1119 -0.1703
33253W        W34117  16.915   1.869  10.809 -0.1005 -0.1539 -0.3347
33254W        W34118  12.624   2.505  24.040  0.0992 -0.2011 -0.2297
33255W        W34119  25.529  22.780  17.644 -0.1790  0.0735  0.1551
33256W        W34120  18.593   9.505  15.171 -0.0738 -0.2664  0.1827
33257W        W34121  22.086   8.072   8.859  0.1218  0.3259  0.1234
33258W        W34122   9.381   6.888   6.063  0.2727  0.1507  0.0754
33259W        W34123   7.720   1.281   0.866 -0.1095  0.1983  0.0179
33260W        W34124   9.853   9.007  12.446 -0.0172  0.1738 -0.3650
33261W        W34125  18.454  27.219  27.654  0.2425  0.1706 -0.0768
33262W        W34126  24.928  18.528  24.086 -0.2315 -0.1493 -0.0653
33263W        W34127   7.246  23.641  28.681  0.2821 -0.1257 -0.0394
33264W        W34128   3.438  12.882  16.032 -0.3843  0.1241 -0.2332
33265W        W34129  21.236   1.692  14.952 -0.0258  0.1495 -0.4174
33266W        W34130  24.933   1.952  22.751 -0.1240 -0.3727 -0.0125
33267W        W34131   4.859  15.332  26.679 -0.2964  0.0373  0.0724
33268W        W34132   7.453  11.373  17.909  0.3481  0.1049  0.2701
33269W        W34133  21.876  10.732   1.829 -0.2726 -0.0305 -0.1706
33270W        W34134  28.808  20.031  24.580 -0.0014  0.2949  0.1217
33271W        W34135  26.705  25.298  20.577  0.2076 -0.1222  0.0965
33272W        W34136  27.592  21.350  15.863  0.0373 -0.5883  0.1134
33273W        W34137  13.935  15.690  18.015 -0.0819 -0.2753 -0.5187
33274W        W34138  12.955  20.514  11.637  0.3759 -0.0967 -0.0108
33275W        W34139  24.557  24.986  25.816 -0.3498  0.1394 -0.0649
33276W        W34140  16.492  27.557   3.520 -0.0717  0.1651 -0.2317
33277W        W34141  17.946   2.869  27.783  0.1079 -0.0762 -0.0342
33278W        W34142  13.012  19.347  17.835 -0.3680 -0.2906  0.0751
33279W        W34143   4.804   6.171   7.694  0.5209 -0.1693 -0.0224
33280W        W34144  15.990   7.982   0.535  0.2708  0.1275 -0.0467
33281W        W34145   6.892   1.608  17.842  0.0239  0.0247  0.1718
33282W        W34146  18.338   7.277   9.330 -0.0012  0.1673 -0.1594
33283W        W34147  13.802   8.921  18.027  0.1848 -0.1984 -0.1541
33284W        W34148  26.109   4.255  18.880  0.1909 -0.1490  0.1881
33285W        W34149  25.210  26.118  16.725 -0.1237  0.0366 -0.3160
33286W        W34150  13.931   0.015  27.502 -0.0582 -0.1861 -0.2456
33287W        W34151  13.116  14.512  19.505  0.1484  0.1852 -0.0186
33288W        W34152  22.326  23.168  16.331  0.0126  0.2204 -0.1743
33289W        W34153  15.433   6.614  20.957  0.1956  0.2141  0.2053
33290W        W34154   0.454  11.045  20.885 -0.0807 -0.0505  0.1349
33291W        W34155  19.362   5.505  24.770 -0.0249 -0.1711 -0.1284
33292W        W34156  20.719  24.435  27.397  0.2103  0.2841  0.0203
33293W        W34157   0.241   7.411  20.343  0.2044 -0.3758  0.2755
33294W        W34158  26.598   5.953  22.275 -0.3307 -0.5473  0.0510
33295W        W34159  18.928  25.879  22.339  0.2991  0.1491 -0.0847
33296W        W34160   9.906   8.481   1.330  0.2304 -0.0031  0.0483
33297W        W34161   0.016  27.601  24.718 -0.2902  0.2232 -0.4785
33298W        W34162   6.390   5.667  19.568 -0.0136 -0.2164 -0.0732
33299W        W34163  19.241  23.636  28.398  0.2476  0.0150 -0.1245
33300W        W34164  26.063   4.978  11.309 -0.0640  0.0206  0.1411
33301W        W34165   2.141  22.387   5.871  0.1608 -0.1623  0.1305
33302W        W34166   2.781  28.416   2.803 -0.0936  0.0551  0.1189
33303W        W34167  14.900   1.891  20.709  0.1550  0.1843 -0.0769
33304W        W34168  28.645   1.894   2.355  0.2591  0.2533 -0.0759
33305W        W34169  14.036   2.967   2.254  0.2030 -0.1424  0.0361
33306W        W34170  10.040   3.393   7.603 -0.1963  0.0346  0.3897
33307W        W34171  16.364  16.717  20.697 -0.1250 -0.4613  0.1949
33308W        W34172  17.043  15.519  23.094 -0.2506  0.0661  0.2332
33309W        W34173  13.734  23.154  16.362  0.1732 -0.1654  0.2253
33310W        W34174  14.914  26.528   0.294 -0.0000  0.1870 -0.2815
33311W        W34175  18.835  12.114  23.615  0.2892 -0.0425  0.2653
33312W        W34176  25.354  13.091  28.611  0.3684 -0.0163  0.2280
33313W        W34177  20.667  16.390   5.660 -0.0217  0.0946 -0.0019
33314W        W34178  26.487   7.006  17.732 -0.0895 -0.1030  0.3752
33315W        W34179   6.070   4.470  28.024 -0.0446  0.0040  0.3920
33316W        W34180  12.211  20.948  20.106  0.2876  0.1958  0.2521
33317W        W34181  16.499   3.194  17.257  0.1055  0.2161  0.1198
33318W        W34182  18.123  18.110  23.820 -0.0373 -0.0191  0.0911
33319W        W34183  24.194  28.301  25.349 -0.0216  0.0130  0.0664
33320W        W34184  22.994   9.974  21.590 -0.1889  0.2157  0.2071
33321W        W34185  10.659  17.143  19.473 -0.1820 -0.0141 -0.0254
33322W        W34186   9.736  25.147  23.618 -0.2831  0.4888 -0.1222
33323W        W34187  13.761  10.182  23.479  0.0337 -0.0172 -0.1121
33324W        W34188  19.048   4.022  11.986 -0.2360  0.0038  0.0030
33325W        W34189   7.480  18.992  24.075  0.0420  0.2176 -0.0864
33326W        W34190  19.061   6.066  14.886  0.2181  0.0986 -0.1259
33327W        W34191  18.408  22.710  23.509  0.0645 -0.1153 -0.1247
33328W        W34192   9.466   3.416  19.091  0.0800  0.0088  0.2488
33329W        W34193  14.850   9.226  27.806 -0.1064 -0.3785 -0.1906
33330W        W34194  20.648  24.717  23.189  0.0370 -0.0525  0.1629
33331W        W34195  14.437   8.017  28.390  0.2971 -0.2039 -0.1168
33332W        W34196   6.952  24.513  17.142 -0.0826  0.0350  0.3784
33333W        W34197  20.261  22.619  24.116 -0.0165 -0.0483  0.2519
33334W        W34198  14.633  10.380  19.418 -0.4381  0.2282 -0.1127
33335W        W34199  12.871  14.394  24.277 -0.1073 -0.1866  0.3462
33336W        W34200  28.182  14.811  27.734  0.2524 -0.2449 -0.0265
33337W        W34201  28.256   5.353  11.539 -0.2141 -0.1142  0.0397
33338W        W34202   5.131   3.753  24.235 -0.1880  0.2218 -0.0968
33339W        W34203   7.829  16.034   5.168 -0.0518  0.1270  0.0372
33340W        W34204   5.322  11.590  22.187  0.2139  0.1211 -0.1149
33341W        W34205  15.549  21.014  13.850 -0.4670  0.1268  0.0210
33342W        W34206  18.488  20.448   2.671 -0.0212 -0.2038  0.2499
33343W        W34207   6.342  16.374  11.105  0.0651  0.1933 -0.3486
33344W        W34208  10.912  17.084  22.103  0.0552  0.0918 -0.0977
33345W        W34209   6.871   2.453  27.943 -0.0973 -0.0493  0.0648
33346W        W34210   1.465  28.356  24.356 -0.2239 -0.4012 -0.3325
33347W        W34211  18.768   8.600  24.160  0.0537 -0.0353 -0.1886
33348W        W34212  21.317  25.325   4.111  0.1134 -0.2356 -0.1540
33349W        W34213  12.449   0.482   1.173 -0.2807 -0.1286 -0.0151
33350W        W34214  16.810   4.994  23.052  0.4060  0.0054 -0.0458
33351W        W34215  28.014  23.359   6.037 -0.0993  0.2745  0.2121
33352W        W34216  15.923   6.453  11.240 -0.1045  0.1987  0.0103
33353W        W34217   2.026   5.230  17.525  0.3334  0.0448 -0.1396
33354W        W34218  13.676  13.281   4.053 -0.0086 -0.0931 -0.0561
33355W        W34219   9.443   6.762  22.378  0.1205 -0.1911 -0.0789
33356W        W34220  27.986   2.018  10.177  0.0415 -0.2642 -0.2013
33357W        W34221  26.116   5.726  12.378 -0.1037 -0.0367  0.1746
33358W        W34222  15.211  14.504   9.745  0.1448 -0.1083 -0.3000
33359W        W34223  20.746  25.197  16.791 -0.1950  0.0938  0.0211
33360W        W34224  10.298  25.944   1.762 -0.3180  0.0915  0.1503
33361W        W34225   4.420  11.760  23.710 -0.0118  0.0073 -0.1563
33362W        W34226  13.161  20.982  28.593  0.3230  0.2355 -0.3939
33363W        W34227  21.922  10.447   2.326 -0.3917  0.1143  0.1134
33364W        W34228   6.518  13.344  26.982 -0.1494 -0.1126 -0.1774
33365W        W34229  27.734  11.224  10.951  0.0487 -0.0128  0.0673
33366W        W34230  17.910  24.283  16.793  0.3627 -0.0751 -0.0597
33367W        W34231  17.103  24.844  13.382 -0.1494 -0.0303 -0.0063
33368W        W34232  19.524  18.482   3.726 -0.1656 -0.0497  0.0411
33369W        W34233  11.016  11.326   7.513  0.3592 -0.0360 -0.1320
33370W        W34234  14.486   6.098   5.386  0.1466  0.1386 -0.2399
33371W        W34235  28.764   7.429   7.969  0.0937  0.2888 -0.2464
33372W        W34236  25.647   1.872   1.643  0.1575  0.2930  0.0780
33373W        W34237  13.152  27.543  13.527  0.2690  0.3763 -0.0499
33374W        W34238  18.340  17.844  27.763 -0.2873  0.0178 -0.0108
33375W        W34239  13.134   1.193   1.243  0.0361  0.1174 -0.1178
33376W        W34240  17.918   0.407  21.443  0.0468  0.1998 -0.0385
33377W        W34241  10.967  17.240   9.971 -0.1142  0.0865 -0.0762
33378W        W34242   4.917   6.458  11.682 -0.1723  0.0889  0.1849
33379W        W34243  24.736   7.460   9.315 -0.5338 -0.0071  0.2930
33380W        W34244   6.414  23.322   5.441  0.0604  0.2708 -0.1043
33381W        W34245   5.464  20.414   2.870 -0.2254 -0.4118 -0.1318
33382W        W34246   4.226  19.735   5.899 -0.0708 -0.2910  0.2204
33383W        W34247  21.539  21.316  19.301  0.0393  0.2258 -0.2870
33384W        W34248  19.084  10.805   3.522 -0.0492 -0.0432 -0.0741
33385W        W34249  24.469  19.725  17.923 -0.1468 -0.0911  0.0729
33386W        W34250   0.755  27.286  15.736  0.1229  0.0779 -0.3903
33387W        W34251  19.412  27.623   3.294  0.4118  0.1302 -0.1167
33388W        W34252  16.819  22.469   6.927  0.3341 -0.0820  0.0516
33389W        W34253   9.449  18.911  23.596  0.0526  0.0171  0.1182
33390W        W34254  21.876  15.410  19.403  0.2931 -0.0559  0.0276
33391W        W34255  20.611  13.513  21.501  0.0078 -0.3100 -0.1320
33392W        W34256   9.208  29.143  13.014 -0.3186 -0.3398  0.0014
33393W        W34257  21.881   1.711  15.340  0.1450 -0.1454  0.0245
33394W        W34258  26.033  26.564  19.394 -0.0947  0.0981  0.0495
33395W        W34259  23.130   6.242   8.828 -0.0825  0.1490 -0.0133
33396W        W34260  22.941  18.630  24.733 -0.2032 -0.0722 -0.0054
33397W        W34261  20.517   0.520   4.093  0.4162  0.2358  0.2656
33398W        W34262  18.816  25.567   3.806  0.0077 -0.3460 -0.2965
33399W        W34263  28.060  16.827  24.474 -0.1365  0.1626 -0.1587
33400W        W34264   6.773  11.977  15.743 -0.3940 -0.2464  0.2584
33401W        W34265   1.153  27.405  15.457  0.0091  0.1408 -0.0504
33402W        W34266  24.897  21.531  12.631  0.0103 -0.3317  0.2182
33403W        W34267  25.879   1.899  17.738  0.0286 -0.1818 -0.1617
33404W        W34268  23.800   6.588  14.528 -0.1125  0.3801 -0.1197
33405W        W34269  27.033   1.740   9.322  0.3076  0.0900 -0.1567
33406W        W34270   7.892  21.549   9.343  0.2765  0.2454  0.1564
33407W        W34271  23.238   1.007   2.439  0.2673  0.3664 -0.3748
33408W        W34272  28.255  13.491  14.902 -0.1699  0.2449 -0.0980
33409W        W34273   1.863   2.218  24.106  0.1954 -0.2102 -0.0348
33410W        W34274  25.711   9.272   9.968  0.0502 -0.1236 -0.3781
33411W        W34275  23.778  16.062   2.453 -0.0832 -0.0880  0.1126
33412W        W34276  23.993   2.280  19.570 -0.1789  0.2117  0.0163
33413W        W34277   8.667   5.171   8.009 -0.0125  0.1109  0.1368
33414W        W34278  18.612  27.615  11.790 -0.1930  0.3123 -0.2203
33415W        W34279  23.324  28.478  12.207 -0.2050  0.0803  0.1591
33416W        W34280   0.545   3.064  17.429 -0.0911  0.1072  0.2035
33417W        W34281  13.850  14.710  17.407  0.2227  0.1172 -0.2430
33418W        W34282   1.144   4.594  20.927  0.1904 -0.1148  0.1419
33419W        W34283  23.271  23.521  21.354  0.0092  0.2818  0.0339
33420W        W34284  28.586  11.524   9.139 -0.1011  0.2498  0.0694
33421W        W34285  15.478   8.717   2.920 -0.0294  0.0624 -0.0242
33422W        W34286  17.835   9.171  20.011  0.4629  0.0695  0.2544
33423W        W34287   0.209   6.813  23.626 -0.0901  0.2529 -0.0101
33424W        W34288  18.491   0.342  19.454 -0.2998  0.4473  0.1486
33425W        W34289  28.536  14.843  17.473  0.1692 -0.1648 -0.1561
33426W        W34290   6.692   5.473  18.110 -0.2188  0.0502 -0.0316
33427W        W34291  17.642   0.029  21.749 -0.0897 -0.1312  0.0440
33428W        W34292  18.667  10.186  24.281  0.0470  0.1955  0.0124
33429W        W34293  22.190  14.822  20.543  0.0162 -0.1726  0.1809
33430W        W34294   8.480   6.974   2.650  0.0576  0.0905  0.1792
33431W        W34295  27.387  21.295  25.015  0.0747  0.1833  0.1365
33432W        W34296  27.338  18.668   5.885 -0.0180  0.0418  0.0937
33433W        W34297  13.789   7.177  22.547 -0.0589 -0.1067 -0.3127
33434W        W34298   3.114   1.621  10.410  0.1698  0.0714  0.0110
33435W        W34299  17.880   8.974  22.709  0.2897  0.1565 -0.2536
33436W        W34300   0.952   0.726  15.788 -0.1767  0.2140 -0.1105
33437W        W34301  23.135   6.069   1.246 -0.3677 -0.4182  0.3403
33438W        W34302  16.675  20.191  13.656  0.0327  0.0292  0.0574
33439W        W34303   0.067  19.214  16.201  0.0274 -0.1316  0.1051
33440W        W34304   1.569   7.272  14.728 -0.0288 -0.1565 -0.1256
33441W        W34305  22.152  25.596   7.030  0.1161  0.1485 -0.0141
33442W        W34306  13.753  28.097   5.426 -0.0512 -0.2087 -0.1379
33443W        W34307  13.167   9.685   5.314 -0.1403 -0.1013  0.0413
33444W        W34308   4.272  16.180  14.173 -0.1371  0.0621  0.1301
33445W        W34309   1.179   9.088  17.854  0.1629  0.0137  0.1398
33446W        W34310  25.920  25.265  20.149  0.1950  0.3800  0.0786
33447W        W34311  19.582  14.575  11.824 -0.0652 -0.1303  0.1622
33448W        W34312  28.258  15.444   3.203 -0.0571  0.0608  0.2325
33449W        W34313  17.675  18.039   9.076 -0.0971  0.0362  0.0809
33450W        W34314  27.761   5.274  16.590  0.0556  0.2224  0.0957
33451W        W34315   0.952  24.601  16.579 -0.0957  0.0900  0.0504
33452W        W34316  14.686  21.198  14.815 -0.0389 -0.1981 -0.1286
33453W        W34317  22.721  10.823  15.596 -0.3171  0.0951 -0.2653
33454W        W34318  19.165   0.127  24.142 -0.0165  0.0173 -0.1733
33455W        W34319   4.300   3.457   6.163  0.1301  0.1599 -0.1313
33456W        W34320  18.897  25.129  16.912 -0.3500 -0.0472 -0.1698
33457W        W34321   0.255  15.457  23.685  0.2130 -0.2368  0.0986
33458W        W34322   1.929   9.514  14.855 -0.0519  0.1267  0.0830
33459W        W34323  28.754   5.042  14.099  0.0314  0.0419 -0.1084
33460W        W34324  26.536   7.365  14.335 -0.0752 -0.1357  0.0938
33461W        W34325  23.223   1.485  15.118  0.1872 -0.0504 -0.0126
33462W        W34326  23.498  11.513   0.960  0.0006 -0.0459 -0.0604
33463W        W34327   7.379  23.304  24.142  0.0196 -0.0395 -0.0140
33464W        W34328  20.544  28.372  14.683 -0.1022  0.1370  0.0738
33465W        W34329  17.787   6.557   2.900  0.1909 -0.3936 -0.0974
33466W        W34330  14.276   4.354  20.881  0.2817 -0.0525 -0.0088
33467W        W34331  23.793  18.592  28.244 -0.2991  0.1136 -0.0454
33468W        W34332  17.148   7.408  27.112 -0.0604  0.0290  0.2793
33469W        W34333  25.737   4.400  10.392 -0.0422 -0.2958  0.0495
33470W        W34334  13.107  19.104  18.331  0.2842  0.0375  0.3095
33471W        W34335  19.753  12.594  14.924  0.1942  0.2105 -0.1574
33472W        W34336  14.963  13.344  22.621 -0.0831 -0.2259 -0.0155
33473W        W34337  13.247   5.795  15.792 -0.1675 -0.1114 -0.2564
33474W        W34338   3.556   2.212   2.972  0.0390  0.2834  0.2450
33475W        W34339  21.567  12.909   9.936 -0.0764  0.0842  0.0096
33476W        W34340  14.975   5.706  12.687  0.2951  0.0434  0.3053
33477W        W34341  25.381   6.823  24.079 -0.0609 -0.2811 -0.2518
33478W        W34342  21.252   6.732   6.931  0.1070 -0.0203 -0.0049
33479W        W34343  17.344  12.351  22.074  0.0829 -0.1700  0.1726
33480W        W34344  14.379   0.793  15.361  0.2375  0.0006 -0.0076
33481W        W34345  14.797   3.842   9.525 -0.3193 -0.0057  0.1288
33482W        W34346  22.389  28.066  14.778 -0.0815  0.1139  0.1872
33483W        W34347  15.025  23.897  28.442  0.1013  0.0222 -0.0319
33484W        W34348  14.844   8.903  15.474 -0.3685 -0.1315  0.1666
33485W        W34349   4.823  27.395  17.091 -0.1183  0.1872  0.3794
33486W        W34350  17.563   1.335   6.262 -0.0958 -0.1584  0.0200
33487W        W34351   4.410   5.783  13.529 -0.1025 -0.1674  0.0951
33488W        W34352  22.980  24.813  16.607  0.1176  0.0291  0.1155
33489W        W34353  16.089  25.904   2.563  0.2838  0.1766  0.2417
33490W        W34354  17.079   5.410   7.849  0.0661 -0.0583  0.1145
33491W        W34355  20.980  14.953   7.611 -0.0068  0.0633  0.0391
33492W        W34356  25.813   3.139  13.070 -0.2338  0.2195  0.2614
33493W        W34357   8.451  26.684   5.734  0.0408 -0.0952 -0.1080
33494W        W34358   2.883  24.222  10.815 -0.4525  0.0770 -0.1253
33495W        W34359  13.840  11.955   2.238  0.4301  0.0257  0.3007
33496W        W34360  17.634  25.479  10.294  0.0316 -0.1515 -0.0139
33497W        W34361  10.119   7.345   9.960 -0.0245 -0.1633 -0.1590
33498W        W34362  28.619  18.966  23.983  0.0070 -0.0824  0.0545
33499W        W34363  19.942  17.330  25.056  0.0238 -0.1506  0.3977
33500W        W34364   7.046   4.809  26.906 -0.1658 -0.1170  0.1756
33501W        W34365   2.417   0.253  19.892  0.1625  0.0118  0.1452
33502W        W34366   2.871  22.732  19.032 -0.3254 -0.0758  0.0645
33503W        W34367  10.287  12.605  20.171  0.0924  0.2029  0.0127
33504W        W34368  14.839   6.842   7.819  0.0136  0.4062 -0.0723
33505W        W34369   3.447   4.452   7.640 -0.1660  0.3364  0.1861
33506W        W34370   4.908  11.520  13.416 -0.1312 -0.1506  0.3213
33507W        W34371  25.382  26.563   4.832  0.0020  0.3311 -0.2814
33508W        W34372   5.054   9.417  17.734  0.0047 -0.3018 -0.3601
33509W        W34373  22.080   0.990  23.060 -0.1015 -0.2849  0.0008
33510W        W34374   3.779  23.284  21.365 -0.0283 -0.0123  0.0492
33511W        W34375  22.102  19.876  22.905  0.1318  0.1599 -0.1303
33512W        W34376  26.882   2.490  22.564  0.0673  0.0497 -0.1103
33513W        W34377  23.226  16.416   9.074  0.4326 -0.0881 -0.2653
33514W        W34378  23.776  22.678   2.162 -0.1223  0.2143 -0.2598
33515W        W34379   5.919  17.736   3.273  0.0008 -0.0147 -0.0622
33516W        W34380  25.617  20.869   8.434 -0.0855 -0.2354 -0.0525
33517W        W34381   3.856  29.135   8.391 -0.0324  0.0523  0.0903
33518W        W34382  19.582  12.392   3.523 -0.0130  0.1705 -0.1010
33519W        W34383  17.189   0.179  18.677 -0.0467 -0.1705 -0.0060
33520W        W34384  13.670   2.209  13.651  0.2079  0.3733 -0.0811
33521W        W34385   3.371  12.583   8.685  0.0861 -0.1917 -0.0841
33522W        W34386  20.149   8.069  23.783 -0.0155  0.2478 -0.0586
33523W        W34387  23.467   3.962  21.948 -0.0029 -0.0482 -0.3067
33524W        W34388  13.146  10.151  24.470 -0.1189  0.1367 -0.2204
33525W        W34389   1.259   5.879  27.098 -0.3622  0.4588 -0.0051
33526W        W34390  20.725  19.336  11.130  0.1625  0.0806 -0.2401
33527W        W34391   7.771  27.556  20.834 -0.1882  0.0041 -0.1572
33528W        W34392   6.318   5.558  13.115  0.0060 -0.0714  0.1744
33529W        W34393   3.268   3.403   8.687  0.0609 -0.1460 -0.0727
33530W        W34394   1.356   6.934  17.567 -0.0368 -0.0109 -0.0678
33531W        W34395  16.379   6.369  21.369 -0.0144  0.0469 -0.2029
33532W        W34396   7.742  25.383  14.748 -0.2539  0.2504  0.2490
33533W        W34397   0.824  27.006  26.474  0.1535  0.0272 -0.0269
33534W        W34398   6.284  27.327   6.608 -0.1249 -0.0170 -0.2295
33535W        W34399   3.467   6.495  12.730  0.1630  0.0041 -0.3161
33536W        W34400  14.722   0.496  11.379  0.1258 -0.1403 -0.2829
33537W        W34401   8.026  17.800  12.372 -0.2441  0.0174  0.0263
33538W        W34402   9.276   6.066   6.412  0.1523  0.1002 -0.0171
33539W        W34403  23.484  22.285  13.611  0.1331 -0.2408  0.5233
33540W        W34404  10.702  14.606  18.041 -0.1023 -0.1612 -0.2084
33541W        W34405  16.076  20.764  19.532  0.0923 -0.1284 -0.2798
33542W        W34406  12.073   0.768   6.632 -0.1694  0.2005  0.1645
33543W        W34407  23.969  15.930   8.021 -0.1457 -0.0874  0.0812
33544W        W34408  23.499   2.229  16.595  0.1010  0.0795 -0.2238
33545W        W34409   0.407   4.380  18.903 -0.0263  0.2972  0.4522
33546W        W34410  23.338   3.082  23.143 -0.1534 -0.1210 -0.0745
33547W        W34411  11.393  29.115  22.019  0.0683  0.3153  0.1199
33548W        W34412   5.143   3.780   8.116  0.3403  0.2354  0.1915
33549W        W34413  26.465  24.086  18.914  0.1129  0.1770  0.2258
33550W        W34414  22.896   7.842   6.820  0.3459 -0.2163  0.1599
33551W        W34415  24.705  21.988  16.278 -0.1692  0.3816 -0.1056
33552W        W34416  16.859   1.859   7.781  0.1904 -0.2061  0.0610
33553W        W34417  22.126   2.314   7.639  0.0541  0.1273  0.0269
33554W        W34418   7.269   9.693  26.093  0.0316 -0.2103 -0.1070
33555W        W34419   5.136  23.252  12.621 -0.1342  0.1840 -0.1973
33556W        W34420  24.248  14.665  27.952  0.1287  0.2347 -0.0654
33557W        W34421  20.892   4.052  18.439  0.2995 -0.3944 -0.3504
33558W        W34422  20.988  21.235  12.475 -0.2544 -0.2172 -0.1507
33559W        W34423  15.975  27.044   6.951  0.3092  0.0562 -0.0915
33560W        W34424  13.544   8.331  22.482  0.0783  0.0172 -0.1823
33561W        W34425   7.989  11.933  11.504 -0.0289 -0.1364  0.0100
33562W        W34426  25.679  22.783  21.929  0.1729 -0.1178 -0.0965
33563W        W34427  26.231   8.613  14.788  0.0724  0.3590  0.0369
33564W        W34428  15.389   2.646  11.277 -0.2391  0.0183 -0.1637
33565W        W34429   0.230   2.202  20.591 -0.2447 -0.1792  0.2324
33566W        W34430   2.630   3.721  15.690 -0.0015 -0.2054 -0.4201
33567W        W34431  17.238  15.916  20.863 -0.0029 -0.1294 -0.0875
33568W        W34432   2.156  29.049   3.254 -0.1014  0.3397  0.0204
33569W        W34433   6.290   4.804   2.970  0.0010 -0.0077  0.2171
33570W        W34434  20.592  21.976  14.458 -0.2239 -0.3487 -0.2816
33571W        W34435  26.239   2.558  19.121  0.1257  0.0419 -0.2972
33572W        W34436   2.025   9.905   2.597  0.0979  0.2589  0.3846
33573W        W34437  12.950  10.748   2.285  0.2287  0.1271 -0.0255
33574W        W34438   3.937  22.596  18.578 -0.3641  0.0513 -0.1078
33575W        W34439  19.245   7.339  13.556 -0.0760 -0.4392 -0.2380
33576W        W34440   5.907   8.446  20.620 -0.1621  0.0965 -0.0545
33577W        W34441   0.754  21.808  24.948  0.1924 -0.0606  0.0278
33578W        W34442  24.748   0.228  10.174 -0.1232  0.0802 -0.2607
33579W        W34443  19.541   4.201  21.257 -0.1493  0.3519  0.0877
33580W        W34444   7.014  26.650   1.946  0.1111 -0.0023  0.0086
33581W        W34445  16.419  19.313   4.646  0.1490  0.2711  0.0212
33582W        W34446  24.277  20.218  26.735 -0.0475 -0.1468 -0.2830
33583W        W34447   3.961   6.076  14.798  0.0077 -0.1470 -0.1471
33584W        W34448  27.760   4.327  10.748  0.0906  0.2984 -0.1395
33585W        W34449  16.185   2.501  20.770 -0.0739  0.1260 -0.0063
33586W        W34450   5.852   9.226   2.675 -0.4407 -0.4069 -0.0266
33587W        W34451   9.062  24.500  10.814  0.1269  0.0618  0.0154
33588W        W34452  18.949  27.395   4.890  0.0698  0.0232  0.0712
33589W        W34453  25.866  26.182  25.262 -0.1224  0.3099 -0.1610
33590W        W34454  12.665   9.568   7.910 -0.0890 -0.1645 -0.0250
33591W        W34455  16.474  29.034  16.787  0.0952  0.2118 -0.1677
33592W        W34456  18.722  19.289  27.628  0.4121  0.0077 -0.0894
33593W        W34457  19.767  25.726  29.111 -0.1952  0.4115  0.1065
33594W        W34458  16.267   5.421  18.140  0.1669 -0.2318 -0.0834
33595W        W34459  28.749  20.569  17.084  0.1340  0.0058  0.0103
33596W        W34460  19.134  28.759  24.046  0.2677  0.0844  0.3638
33597W        W34461  25.662  10.400  25.073 -0.3023  0.1843 -0.0322
33598W        W34462   6.709   1.550  19.543  0.3141  0.0187 -0.0397
33599W        W34463   1.635   8.386  23.716 -0.0707  0.3164  0.0164
33600W        W34464  14.229  25.379  19.016 -0.0877  0.0871 -0.0853
33601W        W34465  20.048  26.528  12.801  0.0766  0.0330  0.2447
33602W        W34466   1.634  28.679  27.490 -0.0903  0.1164 -0.0306
33603W        W34467  28.407  16.856   0.560  0.0834 -0.0181  0.1737
33604W        W34468  16.448  11.715  17.197 -0.0383 -0.2389  0.1349
33605W        W34469   7.225   1.090   7.689 -0.1057 -0.1946 -0.1097
33606W        W34470  10.164  13.408  27.959 -0.2503  0.0916 -0.3854
33607W        W34471   9.344   7.924  16.554  0.2547 -0.2412  0.2320
33608W        W34472   0.283  10.146  22.315 -0.4861 -0.2070 -0.3495
33609W        W34473  14.309  24.847  24.129  0.2028  0.3562  0.1843
33610W        W34474   3.205  13.300  19.231 -0.3710  0.1891  0.1874
33611W        W34475  17.775  12.274   6.820 -0.0566 -0.1769  0.3179
33612W        W34476   3.381  21.043  25.720  0.2057 -0.1126 -0.0471
33613W        W34477  20.888  19.927  19.208  0.0929 -0.0253  0.2591
33614W        W34478   5.326  11.369  19.587 -0.0046 -0.0267 -0.1507
33615W        W34479  20.937  13.093  28.402  0.2867 -0.0853 -0.2624
33616W        W34480  20.306   1.705   1.730  0.4036 -0.0505 -0.0102
33617W        W34481  20.938  21.844  19.460 -0.0830  0.2278 -0.0462
33618W        W34482  21.959  27.795   1.991 -0.3600  0.0074  0.0313
33619W        W34483  20.797  28.633  22.123  0.0638  0.3408  0.2251
33620W        W34484  23.873   4.630   5.180  0.1587  0.0999  0.0316
33621W        W34485   8.343   5.735  11.058  0.1765 -0.4271  0.0440
33622W        W34486   4.031  14.938  18.700 -0.1392 -0.1496 -0.3023
33623W        W34487   1.985  10.186  15.461 -0.1198  0.0815  0.1919
33624W        W34488  19.173   9.670  15.850  0.0569  0.0900  0.0133
33625W        W34489  12.653   8.196   7.432 -0.3779 -0.0463  0.2381
33626W        W34490  13.143  16.441  22.752  0.0317  0.2759 -0.0590
33627W        W34491  12.126  17.573   3.588 -0.3477  0.2893 -0.1603
33628W        W34492   5.203  20.933   8.148  0.2844  0.0345 -0.0052
33629W        W34493  10.008  22.557   8.447 -0.1926  0.2753 -0.0601
33630W        W34494  20.560  23.621  23.048  0.1843 -0.1328  0.1691
33631W        W34495  18.407  13.023  15.824  0.0321 -0.0398  0.0284
33632W        W34496   4.999  14.901   0.663 -0.0683  0.1983 -0.0322
33633W        W34497  13.611  16.363   9.371 -0.0242  0.1358  0.0374
33634W        W34498  24.734  10.399   0.973  0.3767  0.3344  0.0099
33635W        W34499  15.232   4.993  21.306 -0.0565 -0.0221  0.0569
33636W        W34500  17.463   3.899  21.424  0.1371  0.0207  0.2091
33637W        W34501  29.073   5.987   0.863 -0.0886 -0.0994  0.4582
33638W        W34502  25.488  19.061   3.772  0.4121  0.0275  0.0874
33639W        W34503  28.680  11.019  11.149 -0.1698 -0.0565 -0.0783
33640W        W34504  22.396   8.108  13.513 -0.0341  0.3395 -0.3469
33641W        W34505   2.488  12.566  22.867  0.0128 -0.1118 -0.0868
33642W        W34506  12.517  27.344   7.728  0.2412  0.3280  0.0618
33643W        W34507  11.815  12.365  19.688 -0.0335 -0.2386  0.0611
33644W        W34508  11.714  18.009  12.828  0.1460  0.1575 -0.1345
33645W        W34509  16.973  26.048  26.413  0.0402  0.0456 -0.2036
33646W        W34510   7.615   5.726  25.497 -0.0244 -0.2885  0.3143
33647W        W34511  20.885  18.162   2.822 -0.0700 -0.1676  0.1330
33648W        W34512  15.303   2.010  24.157  0.3515  0.0161  0.1191
33649W        W34513  26.779  23.961  18.522 -0.0539  0.1781  0.0756
33650W        W34514  21.328  23.594  19.225 -0.0413  0.0847 -0.0592
33651W        W34515  22.288  20.009  26.554  0.1280 -0.3203  0.1561
33652W        W34516  27.471   6.174  16.369  0.0078 -0.3005  0.2651
33653W        W34517   8.768  13.771  16.971 -0.1717 -0.0393 -0.1400
33654W        W34518  17.819  11.225   7.185  0.3275 -0.1064 -0.2529
33655W        W34519  19.978  28.715  25.196 -0.1160  0.1339 -0.1561
33656W        W34520  23.301   7.458  16.321 -0.1483 -0.3475  0.1895
33657W        W34521  17.704   1.151  10.161 -0.1127 -0.0255  0.2764
33658W        W34522  13.775   8.303  19.467  0.0790 -0.0725  0.0163
33659W        W34523   5.693  23.543  28.146 -0.4009 -0.1675  0.1630
33660W        W34524  27.933  27.348   4.400 -0.1645  0.0649 -0.2326
33661W        W34525  12.361   9.198  17.314 -0.2738  0.2121 -0.0092
33662W        W34526  19.412  23.919   9.578 -0.0126 -0.1415 -0.1084
33663W        W34527  14.540  19.711  12.264 -0.0445 -0.3345 -0.1916
33664W        W34528  26.916  24.830   7.631 -0.0540  0.2275  0.0777
33665W        W34529   7.691   2.299  18.836 -0.2458 -0.0356 -0.0029
33666W        W34530  28.283   1.767  14.671  0.2262 -0.0065 -0.3629
33667W        W34531  22.513   6.954  15.826 -0.0712 -0.3501 -0.3035
33668W        W34532   4.478  12.956   8.858 -0.3465  0.1375  0.4764
33669W        W34533  16.178   9.825  21.050  0.0344 -0.1586  0.0952
33670W        W34534   3.918  23.629   9.533  0.0185 -0.3682  0.0490
33671W        W34535   5.256   3.939  26.379 -0.2947  0.0242  0.0048
33672W        W34536  19.701   8.552  24.481  0.1372  0.5734  0.0307
33673W        W34537  10.460  21.034  11.617 -0.0348  0.4904  0.0659
33674W        W34538   1.695   5.452   6.424  0.2773  0.1518 -0.0683
33675W        W34539  29.138   7.095  15.798 -0.1440 -0.2018 -0.1980
33676W        W34540  18.546  24.476  12.400 -0.0730  0.1880 -0.1364
33677W        W34541  11.866  14.196  26.452 -0.0492  0.1110  0.3195
33678W        W34542  26.884  15.734   7.587  0.1605 -0.1877 -0.0816
33679W        W34543   5.110  14.978   7.709 -0.0129 -0.0011 -0.0445
33680W        W34544  22.615  12.692  18.553  0.3911  0.0130 -0.2008
33681W        W34545   3.563   8.949  25.484  0.0857  0.0199 -0.0869
33682W        W34546   1.980  14.183  13.592  0.0632 -0.0539  0.3484
33683W        W34547  18.199   2.819   7.824  0.0582 -0.2370  0.1343
33684W        W34548  23.804  23.877  20.175  0.0484 -0.1392  0.0320
33685W        W34549   1.143  25.276  16.466  0.0866 -0.0078 -0.0869
33686W        W34550  25.821  28.596  21.154  0.2717  0.0270 -0.0261
33687W        W34551  22.214  15.678  11.923  0.0038 -0.0205  0.1299
33688W        W34552  27.529  20.996   8.195 -0.0271 -0.0423 -0.3478
33689W        W34553  11.707   4.956   2.902  0.0851 -0.0126 -0.1619
33690W        W34554  20.585  10.491   2.023 -0.0464 -0.0872  0.0292
33691W        W34555  23.055  22.169  18.027 -0.0387  0.1564  0.1393
33692W        W34556  22.951  26.889  17.321 -0.2555  0.0547  0.2845
33693W        W34557  13.545   8.652  26.824  0.0082 -0.1685  0.1618
33694W        W34558  10.467  18.087  26.456 -0.0194  0.3741  0.0780
33695W        W34559  25.926   2.661   1.304 -0.0987 -0.2164 -0.1072
33696W        W34560  15.187  20.539  28.080  0.2688 -0.1942 -0.0916
33697W        W34561  15.241  14.691  10.684  0.1296  0.0394 -0.2648
33698W        W34562   8.117   8.311  12.568  0.1487 -0.0242  0.0139
33699W        W34563  20.606   4.326  18.767 -0.1774  0.0238 -0.2800
33700W        W34564   9.134  16.718  12.945  0.0098 -0.1120  0.0190
33701W        W34565  22.733   0.910   4.248 -0.3470 -0.3605  0.1535
33702W        W34566  26.468  13.716   3.263 -0.1086 -0.1699 -0.1140
33703W        W34567   2.690  11.650  22.349 -0.2927  0.2217 -0.1125
33704W        W34568  18.110  12.432  16.614 -0.0011  0.1867  0.1226
33705W        W34569  11.155   5.163  24.409  0.1747  0.2801 -0.0191
33706W        W34570  12.497   4.398   1.091 -0.0322  0.1537  0.2252
33707W        W34571  13.166   9.213   0.467  0.0092  0.2856  0.0626
33708W        W34572  14.243   7.489  10.918 -0.2554 -0.0058  0.0327
33709W        W34573  10.703  19.422  23.725 -0.0475  0.1158 -0.0959
33710W        W34574   3.601  15.630  16.579  0.2383 -0.1470  0.0152
33711W        W34575  21.448  23.684  22.601  0.4307 -0.1766  0.0929
33712W        W34576  16.811  14.110   9.809 -0.1406 -0.0504  0.0643
33713W        W34577  10.592  10.900  13.224  0.1947  0.3634 -0.0902
33714W        W34578  15.615  11.593  16.282 -0.1546 -0.4258 -0.1732
33715W        W34579  25.539  23.842  12.219  0.2217  0.0529  0.0851
33716W        W34580   1.049   0.693   3.555  0.0575 -0.2541 -0.0156
33717W        W34581  26.002   1.485  27.404 -0.1038 -0.1278  0.3015
33718W        W34582  28.338  26.285  20.855  0.3011 -0.3311 -0.1956
33719W        W34583  10.633  15.994  20.463 -0.4182  0.1836  0.3717
33720W        W34584  14.245  25.163  12.794  0.0585  0.0086 -0.1482
33721W        W34585  20.551   9.640   0.480  0.0567  0.3000 -0.0895
33722W        W34586  21.516  22.656  26.309  0.1546  0.1867  0.1073
33723W        W34587   6.129   8.848  16.309 -0.0168 -0.2382  0.0951
33724W        W34588  17.690  27.311   3.926 -0.1373 -0.0757 -0.0204
33725W        W34589  13.599  22.375  26.385 -0.3586 -0.1108 -0.0192
33726W        W34590  17.945   6.752  25.678 -0.1100  0.0162  0.0762
33727W        W34591  10.910  10.804  27.078 -0.3076 -0.1388 -0.2904
33728W        W34592  20.135   0.293  18.925 -0.0893 -0.0125  0.1823
33729W        W34593  28.927  11.791  17.232 -0.1011 -0.1162  0.0207
33730W        W34594   9.077  28.719  22.064 -0.0763 -0.0590 -0.1477
33731W        W34595  20.562  27.020   5.270 -0.1803  0.2184  0.2071
33732W        W34596   7.561   9.156  24.876  0.0515 -0.2177 -0.0270
33733W        W34597  27.844   6.707  22.909 -0.0824  0.1083  0.1311
33734W        W34598  23.010   9.839  15.881  0.2110 -0.1485 -0.2545
33735W        W34599  22.553   1.754  21.634  0.1862  0.2804  0.0936
33736W        W34600  10.216  28.613  25.370 -0.0265  0.0200 -0.1590
33737W        W34601  10.181   8.907   4.956 -0.2937 -0.4751 -0.2313
33738W        W34602  15.417  25.453   0.145  0.0898 -0.0077  0.2138
33739W        W34603  18.004  28.531   0.234  0.0519 -0.0024  0.0012
33740W        W34604  16.744  25.388  19.073  0.0977  0.1240 -0.1651
33741W        W34605  24.998   2.933   4.826  0.0710  0.0076 -0.1062
33742W        W34606  17.888   5.007  19.330  0.4874  0.1436 -0.1351
33743W        W34607   5.456   9.798  21.840  0.0190  0.2397  0.0743
33744W        W34608  28.477   2.422  26.520 -0.2373 -0.4680 -0.1480
33745W        W34609   2.147   6.685  24.125  0.2940 -0.1267 -0.0374
33746W        W34610  13.821  21.283  14.414 -0.3000 -0.0191  0.0491
33747W        W34611   2.324   5.265   4.730  0.1199  0.0262  0.1462
33748W        W34612   7.080  23.147   2.196  0.3679  0.3400 -0.0722
33749W        W34613  18.097   4.263  28.998 -0.0891  0.0338  0.0456
33750W        W34614   6.581  15.124  11.512  0.2429  0.1378 -0.0379
33751W        W34615  12.324  20.563  15.282  0.2635 -0.1076  0.2374
33752W        W34616  24.609  26.586  14.953 -0.1637  0.2302  0.2269
33753W        W34617  21.721  28.116  28.058  0.1833  0.1940 -0.0423
33754W        W34618   7.747   2.584  20.729 -0.0712  0.1651  0.0922
33755W        W34619   3.228   5.919  14.073 -0.0066 -0.0909 -0.3654
33756W        W34620  19.714  27.884   9.224  0.3962 -0.2983  0.1676
33757W        W34621   6.184  23.133   1.842  0.0158  0.3188  0.0630
33758W        W34622   7.949  18.604   9.911  0.2470  0.3164  0.2792
33759W        W34623  12.394   6.022  18.883  0.0792  0.2317 -0.2305
33760W        W34624  12.265   7.543  16.418 -0.1372 -0.2958 -0.2143
33761W        W34625   1.191  15.021  25.362 -0.2056  0.0417 -0.2905
33762W        W34626  19.118   5.191  13.874 -0.1568  0.0355 -0.2991
33763W        W34627  14.514  25.151  25.233 -0.1801  0.2067 -0.0727
33764W        W34628  19.215  28.977   6.029 -0.0443 -0.1708 -0.0485
33765W        W34629  14.790  13.031  25.831  0.1958  0.1799  0.0806
33766W        W34630  19.042   7.998  27.785  0.1186 -0.5129  0.0978
33767W        W34631  10.577   8.711   6.063  0.2928 -0.0970  0.2488
33768W        W34632   7.132   8.601   6.302 -0.1197  0.2147 -0.3573
33769W        W34633  28.468   0.621  10.554 -0.0626  0.0471 -0.4850
33770W        W34634  12.067  21.766  23.988  0.1893 -0.2480 -0.2220
33771W        W34635  15.076  26.218  19.273  0.0489 -0.0309  0.0897
33772W        W34636  24.599   2.244   7.237 -0.0638  0.0973  0.1011
33773W        W34637   7.033  13.082  20.501  0.5007 -0.0820  0.3416
33774W        W34638   1.897  28.143   8.974 -0.1490  0.0524 -0.2741
33775W        W34639  17.666  10.885  14.376 -0.0142  0.1028 -0.0104
33776W        W34640  21.139   5.147  15.355 -0.2577 -0.0995  0.0716
33777W        W34641  21.877  14.320  27.772  0.1409  0.3008  0.0238
33778W        W34642  20.273   0.982  28.070  0.3649  0.1615 -0.4312
33779W        W34643  12.051   2.268   7.263 -0.0719 -0.1065  0.1467
33780W        W34644   1.582  24.995  28.119  0.0293  0.0607 -0.0297
33781W        W34645  28.476  11.838  22.108  0.0888 -0.1205 -0.0572
33782W        W34646  18.838   1.765   6.392 -0.1400  0.4578 -0.2041
33783W        W34647   3.245   2.813   8.624  0.1913  0.0960  0.1387
33784W        W34648  11.855  15.293  17.662  0.0841  0.0111 -0.0276
33785W        W34649  19.014  12.375  18.654 -0.3931  0.0585 -0.0327
33786W        W34650  28.852  24.528   9.726  0.3396 -0.1856  0.1585
33787W        W34651   1.279   9.164  25.550 -0.2094  0.2278  0.1017
33788W        W34652   3.225  21.746   9.109 -0.1990  0.1313  0.0571
33789W        W34653  16.032  28.476  20.258 -0.0621 -0.1738 -0.1162
33790W        W34654  13.715  27.248   8.854 -0.2079  0.2316 -0.0147
33791W        W34655  27.267   4.262  27.250  0.1219  0.1648  0.2055
33792W        W34656  20.790   6.679  26.067  0.1548  0.0238  0.2249
33793W        W34657  19.967   5.515   7.908  0.0232  0.0166  0.0431
33794W        W34658  13.855   1.329  20.734  0.0250  0.0373  0.1214
33795W        W34659  28.952  27.162  18.143  0.0652  0.2578  0.0555
33796W        W34660  12.484  16.153  10.539 -0.1957  0.0814 -0.0337
33797W        W34661  22.372  22.573  20.601  0.0458 -0.1599 -0.1932
33798W        W34662   0.771   4.780  17.452  0.0246 -0.3814 -0.2067
33799W        W34663   0.563  27.738  25.534  0.3590 -0.2814  0.1471
33800W        W34664  15.522  21.512  24.867 -0.1596 -0.0827 -0.1068
33801W        W34665  18.745  20.037   8.549 -0.0639  0.0244  0.0620
33802W        W34666  25.552  16.587  13.382  0.1541 -0.2756  0.0535
33803W        W34667  10.982  24.318  25.169  0.2556  0.1242 -0.2576
33804W        W34668  11.270  24.954  12.141 -0.1876  0.0795  0.0269
33805W        W34669   6.977  11.267   3.719 -0.0659  0.0526 -0.2960
33806W        W34670  21.130  21.313  18.982 -0.0146  0.0222  0.0987
33807W        W34671  10.992  12.901  22.982  0.0638  0.2717  0.2276
33808W        W34672   1.494  24.853  13.101  0.2854  0.0067  0.2368
33809W        W34673   2.151  13.691  28.946  0.0318 -0.2474 -0.0245
33810W        W34674  14.555  19.609  21.967 -0.1488  0.2150 -0.3025
33811W        W34675   2.336   7.023  18.640 -0.0771 -0.0101  0.4375
33812W        W34676  25.931  16.877  21.702 -0.3137 -0.1083  0.0178
33813W        W34677  18.578   5.304  22.902  0.0548  0.0591  0.2843
33814W        W34678   4.582   4.306  25.673  0.0589  0.3031 -0.1915
33815W        W34679   0.308   5.105   0.773  0.4455 -0.0579 -0.0382
33816W        W34680   5.344   7.096  12.556  0.1869 -0.1551 -0.0046
33817W        W34681  26.288  12.316  17.664  0.1682  0.2642 -0.1851
33818W        W34682  21.951  19.631   2.235 -0.0261 -0.3712 -0.2175
33819W        W34683  20.483   4.933   2.842 -0.2343 -0.0339  0.0607
33820W        W34684  14.278   7.436   5.855  0.1424  0.0592  0.0343
33821W        W34685  10.301  22.688  15.554 -0.1050 -0.0713 -0.1256
33822W        W34686  14.828  10.808  19.382  0.0114 -0.2353  0.3784
33823W        W34687  23.362  23.062   6.107 -0.1880 -0.1773  0.0292
33824W        W34688  23.997   7.513  27.825  0.1687  0.0265  0.1692
33825W        W34689   7.758  28.978  16.993 -0.0918  0.2104 -0.1055
33826W        W34690  15.766  10.400   3.731 -0.1931  0.1084  0.0734
33827W        W34691   4.155  13.225   1.860 -0.1574  0.0160  0.0285
33828W        W34692   5.204  26.069  18.692 -0.1512  0.1906 -0.1967
33829W        W34693   2.056   4.271  26.118  0.1214 -0.0003 -0.1384
33830W        W34694  15.811   5.075  17.424 -0.0219  0.2375 -0.4095
33831W        W34695  15.553  10.997  12.728 -0.2127 -0.2323  0.3417
33832W        W34696  23.632  11.167  23.015 -0.1153 -0.2539 -0.2992
33833W        W34697  16.536  28.702   9.974 -0.1285 -0.0094  0.0338
33834W        W34698   9.060   1.573   2.932 -0.1628 -0.1020  0.0296
33835W        W34699   7.425   9.352  25.607  0.1794  0.1323  0.2081
33836W        W34700  19.447  26.965  28.525  0.0491  0.0126  0.0214
33837W        W34701   4.802  10.042  23.229  0.0287 -0.1171  0.0600
33838W        W34702  13.217  14.999   6.701  0.1187 -0.0392 -0.0061
33839W        W34703  17.988   6.004   6.053 -0.1808  0.0872  0.2110
33840W        W34704   3.385   2.130  26.945  0.1245  0.0359 -0.1055
33841W        W34705   0.975   1.455   9.287 -0.0979  0.1374 -0.0265
33842W        W34706   3.492  14.797  25.633 -0.1505  0.1102 -0.1625
33843W        W34707  15.488   9.663  27.623  0.2744 -0.2871  0.1084
33844W        W34708  21.997  14.314  22.293  0.1909  0.4125 -0.3126
33845W        W34709  19.742  13.171  27.149  0.0693 -0.2572  0.2141
33846W        W34710   1.726   0.937  17.977 -0.3803  0.1592  0.1084
33847W        W34711   4.085   8.592  24.115 -0.2118  0.1812  0.0909
33848W        W34712  20.729  25.276   9.767 -0.1553 -0.0039  0.1071
33849W        W34713  20.345  23.637   1.909  0.2898  0.0775  0.0426
33850W        W34714   3.833  25.459  22.469  0.1662 -0.1987  0.0490
33851W        W34715  15.119  27.024  10.121  0.1357 -0.1974  0.0818
33852W        W34716  23.703  23.180   3.369  0.0662  0.0632 -0.1178
33853W        W34717  17.140  25.574   0.871 -0.1902 -0.0429 -0.1277
33854W        W34718  19.820  11.307  12.454 -0.0408  0.2596 -0.0445
33855W        W34719  23.716  16.914   7.299 -0.0137  0.1720 -0.1566
33856W        W34720  12.974  14.673  21.868  0.2245 -0.3872  0.1139
33857W        W34721  26.861   4.455  23.627 -0.0112 -0.0476 -0.0601
33858W        W34722  21.560   3.228  28.750 -0.0335  0.1933 -0.0971
33859W        W34723   1.170  23.676  21.750  0.3393  0.2296 -0.0211
33860W        W34724   5.603  13.806  21.397  0.0505  0.1453  0.1915
33861W        W34725  23.524   1.959  15.187  0.0423 -0.0933  0.3099
33862W        W34726  16.275  28.348   2.609 -0.3983  0.2118 -0.5856
33863W        W34727   8.658  20.615   1.341  0.1365  0.1709 -0.1304
33864W        W34728   1.375   9.801   5.166  0.0765 -0.0659  0.1067
33865W        W34729   5.939   8.680  18.462 -0.0097  0.0295 -0.0325
33866W        W34730  22.244  27.361   9.680 -0.1175  0.2467 -0.2441
33867W        W34731  17.105  28.190   0.481  0.2066 -0.1689  0.0443
33868W        W34732  14.079  13.294  24.522 -0.2230 -0.0627 -0.2111
33869W        W34733  22.741   8.915  29.095 -0.1392 -0.1341 -0.1251
33870W        W34734  20.278  17.661  19.255  0.1583  0.0795 -0.1966
33871W        W34735  22.300  27.756   3.638 -0.0515  0.1918  0.3068
33872W        W34736  25.671  14.262  23.450 -0.0165 -0.0709  0.0539
33873W        W34737  28.726  28.420  21.322  0.2358  0.1456 -0.2496
33874W        W34738   1.361   1.400   2.012 -0.0186 -0.0894 -0.2499
33875W        W34739  27.233  23.055  22.088  0.2802  0.1548  0.1599
33876W        W34740  20.547   3.543  25.660 -0.0500 -0.1001 -0.1439
33877W        W34741  16.033   8.523  22.309  0.1305 -0.0821 -0.3463
33878W        W34742  18.004  22.893  14.527  0.2142 -0.0330  0.1280
33879W        W34743  11.211  15.541  15.041  0.1647 -0.0374 -0.1502
33880W        W34744  21.966   1.994  23.539 -0.0600  0.1748 -0.0441
33881W        W34745   0.053  22.980  15.238 -0.0296  0.1542  0.0208
33882W        W34746   0.012   9.719   8.605 -0.0347  0.1119  0.0972
33883W        W34747  17.202   4.211  25.271  0.1158  0.2470  0.0878
33884W        W34748  22.630  18.797   3.072  0.3052 -0.0212  0.1143
33885W        W34749  19.022  25.687  28.138 -0.0847  0.1078  0.0009
33886W        W34750   3.814  28.340   6.485  0.0903  0.4078 -0.2601
33887W        W34751  28.002   7.927  27.750 -0.2754 -0.0977  0.0759
33888W        W34752   7.315  19.872  27.350 -0.3227  0.0810 -0.0796
33889W        W34753  28.646  23.106  25.069  0.0835 -0.0924  0.1086
33890W        W34754  27.296   2.917   3.804 -0.1412  0.4211  0.1308
33891W        W34755   4.300   3.761  22.393 -0.1352 -0.0798  0.0425
33892W        W34756   7.895   9.432  28.578 -0.0283  0.0827  0.0046
33893W        W34757   3.878  13.028   0.766  0.2462 -0.0774 -0.1265
33894W        W34758  15.436   9.501   1.995 -0.2620  0.2530  0.0244
33895W        W34759  24.186  21.732  21.998  0.0911 -0.0836  0.0326
33896W        W34760   3.729  13.497  27.713 -0.1251  0.2555 -0.1485
33897W        W34761  19.783   4.646  19.534  0.0692  0.1361  0.1629
33898W        W34762  18.750  22.097   5.434  0.0372 -0.3510 -0.0388
33899W        W34763   1.897  27.386   3.520 -0.3951  0.1035  0.0233
33900W        W34764  18.329  28.611  28.266 -0.0952 -0.2475 -0.1988
33901W        W34765  18.568   5.573  17.897  0.0475  0.2953 -0.1019
33902W        W34766  22.609  20.142  22.968  0.0253 -0.0019  0.0637
33903W        W34767  23.432   1.354   3.136  0.0269  0.0048  0.0844
33904W        W34768   0.496   4.373  23.681  0.0863  0.0185  0.1372
33905W        W34769  17.798   2.973  14.136 -0.0774  0.1515 -0.0351
33906W        W34770  15.715  26.853   6.048  0.0905 -0.0563 -0.2102
33907W        W34771   6.607   1.060  16.799  0.1171 -0.2274 -0.1955
33908W        W34772  17.598  13.297  16.737 -0.0979  0.2352  0.2747
33909W        W34773  25.097  13.470  24.144 -0.1884  0.0501 -0.1419
33910W        W34774  24.300  19.444  26.602  0.2218  0.4528 -0.2725
33911W        W34775   0.243   2.345   1.767  0.2050  0.3186 -0.1239
33912W        W34776   9.579   4.230  13.873  0.1566 -0.1147  0.2399
33913W        W34777   6.714  18.951   6.025 -0.0716 -0.1243  0.0150
33914W        W34778  20.205   3.446   6.867 -0.1590  0.0567 -0.0130
33915W        W34779  20.387  18.948   3.438  0.3037  0.0590 -0.0904
33916W        W34780  26.448  10.744  17.802  0.0350 -0.1069 -0.1819
33917W        W34781  19.676  23.635  15.949  0.0670 -0.0261  0.0091
33918W        W34782   1.989  10.029   8.338  0.0014 -0.0136 -0.0135
33919W        W34783  11.615  11.188   0.117  0.3218 -0.0736 -0.3998
33920W        W34784  25.022   7.587  14.839 -0.0806  0.2240 -0.0251
33921W        W34785  13.555  26.243  27.323  0.0281  0.0574  0.0855
33922W        W34786  20.354  21.809   8.786  0.3126 -0.3228 -0.0762
33923W        W34787  20.020   6.009  14.803  0.0465 -0.3003 -0.2718
33924W        W34788  14.304   3.883  19.581  0.0687  0.0430 -0.0420
33925W        W34789   1.775   8.085  19.501 -0.2506 -0.2067 -0.0834
33926W        W34790  27.050  13.119  15.606  0.0459 -0.1051 -0.2083
33927W        W34791  25.508   3.675  10.812  0.0789  0.1469 -0.0923
33928W        W34792   4.771  19.289   8.401 -0.1885  0.0340 -0.2648
33929W        W34793  18.055  28.919  20.716  0.2487 -0.0532 -0.0347
33930W        W34794  17.978  11.228   0.972  0.2102  0.0772  0.0385
33931W        W34795  27.590  18.907  18.472 -0.1886 -0.2914 -0.0317
33932W        W34796  19.644   6.309   5.927  0.4168 -0.3528  0.0915
33933W        W34797  23.833  10.575  17.555 -0.0151 -0.1082  0.1247
33934W        W34798  18.406  15.336  23.153  0.1742 -0.0018  0.1932
33935W        W34799   9.636  11.690   0.884 -0.1499 -0.2344  0.0035
33936W        W34800  11.809  15.152  16.158 -0.0573  0.0987  0.1505
33937W        W34801  25.998   8.349  12.871 -0.0619  0.1104  0.1523
33938W        W34802  17.007   7.865  21.323  0.1459  0.0895  0.0873
33939W        W34803  24.221   2.666  22.975  0.1781  0.0292  0.1115
33940W        W34804   8.503   7.336   9.339  0.2298  0.1479  0.0525
33941W        W34805  10.245   4.233  25.900  0.2688 -0.1249  0.1164
33942W        W34806   7.347   1.415   4.003 -0.0076  0.0901  0.1128
33943W        W34807  19.885  22.216  17.060  0.2771  0.0564  0.0551
33944W        W34808  23.052  26.611   5.628 -0.0112 -0.2538 -0.2016
33945W        W34809   3.668   5.373  19.054 -0.0828  0.0539  0.1595
33946W        W34810   2.227   1.052  12.349 -0.0250 -0.1752  0.1678
33947W        W34811  22.750  25.304   5.753  0.1594  0.2514 -0.1382
33948W        W34812   7.637   4.595   4.591 -0.4042 -0.2315  0.0076
33949W        W34813  24.079   4.342  23.156  0.0329  0.3235  0.1418
33950W        W34814  15.151   8.523  25.972 -0.2044  0.1376  0.1170
33951W        W34815  19.808  12.400  21.434  0.0901  0.0716  0.0151
33952W        W34816   7.433  12.362  18.213 -0.3697  0.1763 -0.2671
33953W        W34817  23.699  23.688  18.719 -0.2264 -0.0583 -0.1419
33954W        W34818   1.677  24.008  13.061 -0.0152  0.1843  0.1483
33955W        W34819  17.202  23.478  26.943  0.1236  0.2109  0.2146
33956W        W34820  25.035   1.800  24.418 -0.0523  0.4956  0.0192
33957W        W34821  23.782   3.960  23.275  0.1473 -0.1191 -0.3118
33958W        W34822   5.345  27.818  18.932 -0.1857 -0.1308 -0.0755
33959W        W34823  11.236   8.898  11.252  0.3209 -0.0230 -0.1036
33960W        W34824  16.222  15.483  27.275 -0.2095  0.1638 -0.1436
33961W        W34825  18.734   3.259  22.888  0.1175 -0.1440 -0.1956
33962W        W34826   6.706  26.945  10.616  0.0891  0.1972  0.0110
33963W        W34827   0.736  13.744  13.717  0.3207  0.1036  0.0053
33964W        W34828  16.689  15.310  25.533 -0.2524  0.2009 -0.0976
33965W        W34829  27.343   0.651  23.449 -0.1514  0.1842  0.0526
33966W        W34830  20.963  21.884   0.937 -0.2819 -0.1221  0.3701
33967W        W34831   8.794  23.000  15.334  0.0559 -0.1228 -0.2214
33968W        W34832   4.134   9.757   4.879 -0.0194  0.0463  0.1835
33969W        W34833  18.137   5.210  16.418 -0.1257 -0.0493 -0.1231
33970W        W34834  13.452  15.924  21.310 -0.3159 -0.4299 -0.3542
33971W        W34835   5.485   2.519  17.668  0.3133 -0.0734  0.0977
33972W        W34836  26.769   4.718  11.632  0.0874  0.2333  0.3305
33973W        W34837  22.944   1.947  21.352 -0.2683  0.0832 -0.2128
33974W        W34838   2.777  20.530  24.515 -0.2343 -0.1584 -0.0837
33975W        W34839  25.223  27.916   6.924 -0.1281  0.1420  0.2132
33976W        W34840  11.687  21.909  25.516 -0.0177  0.2285  0.0541
33977W        W34841  21.549  14.026  18.001  0.2137 -0.0334  0.2050
33978W        W34842   0.313  21.916  24.565  0.1133  0.0899  0.0468
33979W        W34843   1.489  23.633  19.984 -0.0010 -0.2164 -0.1402
33980W        W34844   0.351  22.877  11.044 -0.1723  0.3532  0.0426
33981W        W34845  24.216  21.578  16.225  0.0619 -0.2457 -0.1211
33982W        W34846  16.269   4.360   2.191  0.1579 -0.0740  0.0115
33983W        W34847  20.360  20.354  21.257 -0.0431  0.2665  0.2946
33984W        W34848  27.145   8.643  18.362  0.1052  0.0700 -0.0914
33985W        W34849  10.820   5.202  20.930 -0.0082  0.3309  0.3250
33986W        W34850  16.171  15.446   0.422  0.0521  0.1530 -0.0312
33987W        W34851  23.664   8.704  29.080 -0.0088 -0.0371  0.0185
33988W        W34852   7.540  23.701  20.295  0.0555 -0.1192  0.2402
33989W        W34853   2.892  25.524  13.830  0.1579 -0.0003 -0.3581
33990W        W34854  12.625  25.040   3.257 -0.0160 -0.0771  0.0793
33991W        W34855  21.629   7.227   5.602  0.1047 -0.0097 -0.1345
33992W        W34856  24.460  13.519  23.165 -0.0668 -0.0311 -0.1708
33993W        W34857   0.442  10.716   8.428 -0.0431 -0.0691 -0.3074
33994W        W34858   9.189   8.817  20.136 -0.0733 -0.2476 -0.3269
33995W        W34859  26.255  20.514   1.782 -0.1441  0.2068  0.1784
33996W        W34860  27.771   3.243   9.592  0.2267 -0.0641 -0.0322
33997W        W34861  28.538  24.396  27.874  0.1066  0.0192  0.1050
33998W        W34862  27.062  23.770  13.974  0.1323 -0.1289 -0.1222
33999W        W34863  22.725   6.214  26.152  0.1614 -0.1730 -0.4446
34000W        W34864  17.450  13.634  20.179  0.1159  0.0210  0.0139
34001W        W34865  11.073  10.900  25.579 -0.3242 -0.1425 -0.0404
34002W        W34866  24.011   8.265  21.082  0.1315  0.3153  0.1574
34003W        W34867   2.492   3.592  19.347  0.2009  0.3372  0.0605
34004W        W34868   5.503  21.256   0.954  0.1356 -0.1815 -0.2221
34005W        W34869  28.317  10.507  15.013 -0.1590  0.0711 -0.1025
34006W        W34870  27.587   6.710  18.238 -0.0529 -0.1959  0.2052
34007W        W34871  20.465   7.866  22.316 -0.0095 -0.0625  0.2139
34008W        W34872  16.068   8.830   7.639  0.2409 -0.1577  0.1683
34009W        W34873   8.831  24.289  12.570 -0.3991 -0.1074  0.0118
34010W        W34874  19.280  14.537   3.436 -0.0355  0.0711  0.1000
34011W        W34875   5.552  12.022  16.864  0.2864  0.0816 -0.0690
34012W        W34876  23.865   8.685  20.804  0.0193 -0.0055  0.2657
34013W        W34877  14.282  16.390   6.334  0.1803 -0.0126 -0.0358
34014W        W34878  23.374  26.293  26.755 -0.3283  0.0375  0.1058
34015W        W34879  17.030   5.022   0.706 -0.2881  0.0440 -0.1568
34016W        W34880   3.424  27.001  19.635  0.1761 -0.0060 -0.1886
34017W        W34881  16.049  17.585  16.138 -0.0256  0.0578 -0.0360
34018W        W34882  15.168  17.050  19.807 -0.0603 -0.0797 -0.0426
34019W        W34883  24.134  25.275  26.665 -0.1242  0.1869  0.2149
34020W        W34884  17.130   4.423  15.651 -0.2112  0.2102 -0.1649
34021W        W34885   6.579   4.120  16.375  0.2509  0.1518 -0.0208
34022W        W34886  12.425   2.251   9.847  0.1016  0.0216  0.0508
34023W        W34887   2.667  15.192  21.360 -0.1711  0.1010  0.0131
34024W        W34888   8.644  26.723  25.208 -0.1763 -0.1358 -0.1235
34025W        W34889  16.667   8.042  18.210 -0.3798  0.0963  0.0862
34026W        W34890  21.190  21.714  26.708  0.2553 -0.1528  0.0796
34027W        W34891  16.508  14.053  19.670  0.1681 -0.0087  0.1779
34028W        W34892  10.161   2.345  16.617 -0.0621  0.3149 -0.0257
34029W        W34893  17.497  14.593  21.152 -0.0493  0.1412 -0.0743
34030W        W34894   9.639   4.762   2.729 -0.0720  0.3040 -0.4054
34031W        W34895  20.720  13.207   0.466 -0.0817 -0.4419  0.0901
34032W        W34896  20.387   5.805  17.819 -0.0706  0.1852 -0.1836
34033W        W34897   2.928  14.497  22.242  0.1666 -0.3151 -0.0475
34034W        W34898  12.746  23.602  24.885  0.1428 -0.1625 -0.0300
34035W        W34899  20.698   4.374   0.724 -0.1813 -0.0424  0.2366
34036W        W34900  16.735   7.134  20.933  0.0664  0.1150 -0.1962
34037W        W34901  19.756  19.190  12.567 -0.1690  0.0903  0.1377
34038W        W34902  14.786  28.427  21.608 -0.0167 -0.0244 -0.0185
34039W        W34903  13.907   6.813  16.269  0.4089  0.2873 -0.1429
34040W        W34904   0.486   6.201  22.073  0.1805 -0.0002  0.2425
34041W        W34905   1.885   5.197  28.205 -0.2937  0.1548 -0.1573
34042W        W34906  18.914   1.726  15.441 -0.0129 -0.1655  0.1728
34043W        W34907  21.039  16.754  19.680 -0.1362  0.2358 -0.3675
34044W        W34908  14.608  28.525  20.009  0.1241  0.1389  0.0659
34045W        W34909   2.018   8.146   5.086 -0.1896 -0.2981  0.3225
34046W        W34910   3.287   7.733   8.183  0.1639 -0.0928 -0.0889
34047W        W34911  13.184  24.747  12.754 -0.1281 -0.1551  0.0340
34048W        W34912  27.842   9.661   3.455  0.0050  0.0193  0.1692
34049W        W34913   2.404  16.481  21.763  0.1254 -0.4127  0.3153
34050W        W34914  26.683   5.275  22.378  0.0311 -0.0048  0.0105
34051W        W34915   3.948  17.051  14.336  0.3729  0.0345  0.2037
34052W        W34916  23.899  28.818  15.040 -0.1869 -0.2080  0.0421
34053W        W34917  24.683  20.150   3.705  0.0322 -0.1040  0.0811
34054W        W34918  13.145  21.143  20.625  0.1601 -0.0345 -0.1742
34055W        W34919  27.970  26.491   3.411 -0.1001  0.4063  0.0258
34056W        W34920  11.471  20.846  23.064  0.0307 -0.3223  0.1786
34057W        W34921  18.731   2.332  23.828  0.0526  0.3092  0.2493
34058W        W34922  19.855  10.066  15.953 -0.0159  0.0311 -0.2228
34059W        W34923  24.600  18.838   4.682  0.1103 -0.1626 -0.1104
34060W        W34924  13.072  11.481  15.060 -0.1317  0.1223 -0.3807
34061W        W34925  22.081  18.849  10.174 -0.2086  0.0261 -0.6107
34062W        W34926  12.015   4.389   0.841  0.1205 -0.1930 -0.0977
34063W        W34927  26.218  20.090  23.417  0.1276 -0.0581 -0.0753
34064W        W34928  14.767   1.519  25.547  0.0397 -0.1318 -0.0973
34065W        W34929  22.175  23.520  12.785  0.0885  0.0533  0.3542
34066W        W34930  24.368   4.341  13.007 -0.1199  0.2425  0.5787
34067W        W34931   1.593  20.875   7.509 -0.1220  0.1156  0.2393
34068W        W34932  23.318  18.106  23.432  0.1762 -0.0669  0.1939
34069W        W34933  26.651   1.923  23.715  0.2625  0.0383  0.0837
34070W        W34934  19.310  26.328  21.125  0.0446 -0.0700 -0.0300
34071W        W34935   4.266  21.460  23.940 -0.2598  0.1760 -0.1041
34072W        W34936  24.482  22.995   8.529  0.1250  0.1310  0.4282
34073W        W34937  12.496   1.247  12.883 -0.0313 -0.0666  0.0265
34074W        W34938  22.194   8.087  10.711  0.1989 -0.2254  0.1363
34075W        W34939  20.239   4.491  19.067  0.1045  0.0559  0.2021
34076W        W34940  21.605  27.845  20.470  0.2332 -0.0426 -0.1014
34077W        W34941  11.141  27.563  22.916 -0.0491  0.0876  0.2413
34078W        W34942  28.666  21.845  13.830  0.0463 -0.0009  0.0698
34079W        W34943  17.317   2.515  27.213 -0.0238  0.0097  0.1967
34080W        W34944  20.962   4.246   5.028  0.1015 -0.1428 -0.1373
34081W        W34945   8.882  14.680  26.619 -0.0545  0.0849 -0.1250
34082W        W34946   3.190  25.252  19.005  0.1277 -0.0732 -0.2006
34083W        W34947  17.588  25.738   0.648 -0.0975  0.5919 -0.3460
34084W        W34948  22.034  26.351  26.976  0.1934 -0.1223  0.1594
34085W        W34949   0.268   2.704   6.012 -0.0426 -0.5277  0.1050
34086W        W34950  13.182  27.851  22.044  0.0553 -0.1344 -0.0473
34087W        W34951  23.803  26.277  18.255  0.1410  0.2876 -0.2925
34088W        W34952  24.559   3.882  18.621  0.3081  0.2027  0.0731
34089W        W34953  22.962  23.824  21.004 -0.0301  0.1417 -0.5047
34090W        W34954   8.588  19.709  19.085 -0.3429 -0.1048 -0.0287
34091W        W34955  13.420  27.222   0.718 -0.1965 -0.3557 -0.0268
34092W        W34956  27.642  20.828   4.570 -0.1326  0.2379  0.1437
34093W        W34957   1.095   1.845  11.942  0.0161 -0.0973 -0.1250
34094W        W34958  14.224  10.146  22.042 -0.0688 -0.2380  0.0150
34095W        W34959   6.604   6.806   9.847  0.0189 -0.0389 -0.0994
34096W        W34960  27.644  22.860  19.982 -0.0270  0.1594 -0.1069
34097W        W34961  19.063   1.772  24.791  0.1403  0.0659  0.0486
34098W        W34962  20.204  14.837   6.783  0.0815 -0.1667 -0.3075
34099W        W34963   5.844   3.633  12.752 -0.0000  0.0646  0.0847
34100W        W34964  28.898  25.271   5.077 -0.1557  0.0043  0.0495
34101W        W34965  15.061   1.566   9.603 -0.0763  0.0420 -0.2271
34102W        W34966  22.452  10.629  18.791 -0.3237 -0.2242  0.1105
34103W        W34967  12.924   5.105   2.519  0.0696 -0.2669 -0.2412
34104W        W34968   6.316   9.283  26.883 -0.1585 -0.1919 -0.2082
34105W        W34969  12.357  12.792   4.333  0.0963 -0.1025  0.1659
34106W        W34970   4.417   3.127   4.688 -0.2721  0.1276  0.4286
34107W        W34971  19.876   6.526  26.464  0.1704  0.2178  0.2145
34108W        W34972  19.857   6.462   7.924 -0.0328 -0.2300 -0.0520
34109W        W34973   8.446   1.443   5.898  0.0127  0.0706 -0.0868
34110W        W34974  22.778   5.431   0.426  0.2158  0.0799 -0.1752
34111W        W34975   1.940  16.533  10.798 -0.1708 -0.1937 -0.1344
34112W        W34976  27.365  10.650   8.184  0.0106 -0.2807  0.1292
34113W        W34977  16.013  20.803   5.366  0.4639 -0.0412 -0.2306
34114W        W34978  16.560   2.117  11.505  0.0381  0.0721 -0.1942
34115W        W34979  28.037   6.057   8.292 -0.0049  0.0719 -0.0259
34116W        W34980   5.425   3.225  24.823 -0.0314 -0.0270  0.1023
34117W        W34981  28.488   1.787   3.715  0.1903 -0.1355 -0.1223
34118W        W34982  26.751   1.445  18.737 -0.0892  0.0941  0.1332
34119W        W34983   1.737  14.254  22.039 -0.2734  0.1679  0.0900
34120W        W34984  28.874  26.820  16.079 -0.0829  0.1803  0.2365
34121W        W34985   1.665  23.390   1.888 -0.1870 -0.2372 -0.1611
34122W        W34986   3.417   5.887  28.673 -0.1740 -0.2458  0.0990
34123W        W34987  22.948  11.417  27.505 -0.4489  0.3006 -0.0094
34124W        W34988   2.796  28.091  26.107  0.0061 -0.1479  0.0309
34125W        W34989  17.865  19.202   1.635 -0.3727 -0.2414 -0.2265
34126W        W34990  20.058   3.117  18.622  0.0592  0.0587 -0.0246
34127W        W34991  28.040   2.938   9.226 -0.0930 -0.1868 -0.1073
34128W        W34992  25.150  13.969  24.297  0.1122 -0.2609 -0.0323
34129W        W34993   7.475  19.660  20.876 -0.2687  0.1088 -0.2433
34130W        W34994  16.446  10.111  12.976  0.4165  0.2094 -0.1328
34131W        W34995  24.503   3.861  13.159  0.3786  0.2099  0.2134
34132W        W34996  24.139  10.993  27.867 -0.0516 -0.0432  0.1593
34133W        W34997  18.854   3.557  15.562 -0.0534 -0.1217 -0.1059
34134W        W34998   4.739  17.297  22.155 -0.0097  0.0932 -0.1604
34135W        W34999  23.573   8.388  25.947 -0.2673 -0.0586 -0.0165
34136W        W35000  28.896   0.208   8.331  0.1474 -0.0422 -0.0493
34137W        W35001  10.193  10.213  28.155  0.0457  0.0905  0.2987
34138W        W35002  18.026   8.656  12.687  0.1925  0.0153  0.0269
34139W        W35003  27.983  23.627  28.366 -0.1614  0.1575  0.1419
34140W        W35004  28.206  18.635   4.410  0.0281  0.2470  0.7016
34141W        W35005  25.369   9.294  10.988  0.0476 -0.1144 -0.1609
34142W        W35006   8.010  15.473   5.380  0.1424  0.0834  0.1037
34143W        W35007   6.799   0.203   3.542  0.1862 -0.1416 -0.0600
34144W        W35008   4.865   9.196  12.347 -0.0205 -0.1621  0.4199
34145W        W35009  15.824  16.958   9.591  0.0704  0.4137 -0.1092
34146W        W35010  13.884  16.571  24.713  0.0557 -0.1398  0.2777
34147W        W35011   5.444   3.810  19.725  0.3627  0.0760 -0.0543
34148W        W35012  26.248  26.592  10.083 -0.0786 -0.1951 -0.1906
34149W        W35013   9.528  21.769  15.892 -0.0004 -0.0168  0.1927
34150W        W35014  14.515  27.690  26.911  0.0117 -0.0158 -0.1061
34151W        W35015  21.471  26.062   6.723  0.1276  0.3374  0.4918
34152W        W35016  26.482  18.596   5.819  0.0914 -0.1254  0.0729
34153W        W35017  16.754   6.753  24.890  0.1320  0.2028 -0.1177
34154W        W35018  13.012  25.803  25.248 -0.1073 -0.0782  0.1994
34155W        W35019   0.807  25.547   8.482 -0.0569 -0.0047  0.4185
34156W        W35020   0.133   7.837   0.934 -0.6201  0.1480 -0.1926
34157W        W35021  18.457  20.056  28.942  0.0515 -0.0572  0.1680
34158W        W35022  28.569   1.070   0.121 -0.0441  0.4668  0.1929
34159W        W35023  28.861  26.569  13.096 -0.2157 -0.2740 -0.2050
34160W        W35024  16.506   0.227   3.648 -0.3062 -0.0117 -0.1751
34161W        W35025   5.604  22.907  12.522  0.0274  0.0785  0.2849
34162W        W35026   3.089   2.457  19.540  0.2197 -0.2493 -0.2055
34163W        W35027  20.589   0.695   7.546 -0.0425 -0.1644  0.0959
34164W        W35028   3.928  28.258   1.336 -0.1133  0.1027 -0.0077
34165W        W35029  16.818  21.586  15.916  0.2952 -0.1721  0.1035
34166W        W35030  17.629  12.053  17.667 -0.3232  0.2602  0.1822
34167W        W35031  11.219  17.470  11.762 -0.0041  0.0513  0.1076
34168W        W35032  16.642  17.580   5.468 -0.0765 -0.3509  0.1157
34169W        W35033   4.574   9.396   8.678 -0.4196 -0.0723  0.1602
34170W        W35034  21.170  22.208   9.789 -0.1097 -0.1759 -0.0982
34171W        W35035  28.918  17.690  25.810 -0.0592 -0.0852 -0.0617
34172W        W35036   9.021   1.500  28.609 -0.0358 -0.2271  0.1138
34173W        W35037  26.855   8.312  17.717 -0.0391 -0.0504 -0.1161
34174W        W35038  21.600  25.503  24.107 -0.1212 -0.0624  0.2152
34175W        W35039  12.006   2.594  25.142 -0.0800 -0.1652 -0.2407
34176W        W35040  24.951  18.939  18.929  0.0082  0.2081 -0.0097
34177W        W35041  16.351   4.249  18.635 -0.3890  0.1611  0.1138
34178W        W35042  19.212   7.494  12.632  0.1312 -0.0866 -0.2996
34179W        W35043  26.334   1.899   5.885  0.2364 -0.0122  0.2208
34180W        W35044   1.934  17.111   6.096 -0.2402 -0.0970 -0.0347
34181W        W35045  20.174  15.872  18.962  0.1365  0.0147  0.2689
34182W        W35046  11.563  23.332   8.396  0.0984 -0.0420 -0.1371
34183W        W35047  23.090  12.310  21.181 -0.0508 -0.0638 -0.1393
34184W        W35048   9.831  15.179  11.704  0.0044  0.1293 -0.0848
34185W        W35049  27.175  11.145  13.692 -0.0177 -0.3883 -0.3046
34186W        W35050  22.126   5.923  24.868  0.1179  0.1101 -0.1821
34187W        W35051   8.557   5.968   4.098 -0.2082 -0.0049  0.3002
34188W        W35052   7.650   2.225  16.352  0.1641  0.3325  0.1067
34189W        W35053  21.168   6.303  24.496 -0.0102  0.2197 -0.2759
34190W        W35054   4.725   2.344   1.514  0.2548  0.0569 -0.0205
34191W        W35055   3.648   3.817   2.223  0.4105  0.0217  0.1414
34192W        W35056  16.378  10.128   2.511  0.1868 -0.3032 -0.1084
34193W        W35057  21.865   6.985   1.661  0.2743  0.0860  0.2499
34194W        W35058   9.926  17.950  12.153 -0.2634  0.1335  0.1875
34195W        W35059   6.361  10.938  25.411 -0.3869 -0.0998 -0.0923
34196W        W35060  23.054   4.309  22.846 -0.0845  0.0295  0.3600
34197W        W35061  13.653   2.577  24.326  0.1062 -0.0445 -0.3757
34198W        W35062  26.758   2.520   9.986 -0.1620 -0.1084  0.2664
34199W        W35063  28.271   7.378   8.048  0.2231 -0.0910 -0.0440
34200W        W35064  12.055  23.198   6.888 -0.3402 -0.2099  0.2710
34201W        W35065   6.108   4.768   2.524 -0.1208  0.0713 -0.2045
34202W        W35066  19.711  17.587  11.256  0.1478  0.1262  0.2634
34203W        W35067  27.004   6.931   4.435 -0.1950 -0.1072 -0.1061
34204W        W35068  24.445  24.922  11.679 -0.2579  0.1734  0.2568
34205W        W35069  17.733   7.931  19.084 -0.0632  0.5601 -0.0709
34206W        W35070  10.933   1.441  19.242  0.2274 -0.2011 -0.0719
34207W        W35071  12.216   7.486   7.834 -0.1371 -0.1645  0.0022
34208W        W35072  11.655  13.533  23.145  0.2038 -0.0529  0.5477
34209W        W35073  27.463  12.148   9.161 -0.0242 -0.3194 -0.2871
34210W        W35074  18.625  10.960   8.296 -0.1768  0.0257  0.0368
34211W        W35075   0.354   5.887   5.317  0.1383  0.2129  0.1145
34212W        W35076  17.606   8.128  26.708  0.1909  0.0858 -0.1130
34213W        W35077  27.355  24.704   9.037 -0.1079  0.1953 -0.2541
34214W        W35078   1.148  26.153  18.264  0.1493 -0.0003  0.0788
34215W        W35079  21.857   8.458  26.592 -0.2620  0.0312 -0.1042
34216W        W35080   3.566   7.103   7.431 -0.1021  0.0676  0.1313
34217W        W35081  10.428  23.600   7.677  0.0944 -0.0429  0.3282
34218W        W35082  22.526  19.710  22.470  0.1242 -0.1442  0.0918
34219W        W35083   2.178  20.091   1.544  0.1892  0.0054  0.0548
34220W        W35084  27.888  23.423  26.289  0.1812 -0.0806  0.4723
34221W        W35085  18.332   6.351  15.834  0.0272 -0.3115 -0.0943
34222W        W35086   6.224  22.372   5.091  0.0461 -0.3643 -0.0244
34223W        W35087  17.787   9.496   4.478 -0.0749  0.0191 -0.0643
34224W        W35088  18.744   8.122   0.360 -0.2138  0.0640 -0.1521
34225W        W35089  27.801   4.688  25.826 -0.2411 -0.0449  0.0018
34226W        W35090  29.109   6.764  27.143  0.2405  0.0984 -0.2321
34227W        W35091  13.771   2.667  19.519  0.0732 -0.0400 -0.1519
34228W        W35092  24.606  17.997   1.286 -0.2055 -0.3130 -0.0959
34229W        W35093  19.628   2.488  22.431  0.1265 -0.5060  0.1412
34230W        W35094  19.117   9.490   0.722 -0.0373  0.0408 -0.1328
34231W        W35095  27.039  19.413  13.160  0.0194 -0.1795  0.0471
34232W        W35096  21.505  10.461   0.802  0.0508 -0.1045 -0.2888
34233W        W35097  25.270   5.961  10.272 -0.0159 -0.0350  0.0773
34234W        W35098  11.294  21.264   8.162 -0.0119  0.2405 -0.2598
34235W        W35099  28.970  25.207   5.615  0.1542  0.1476 -0.1313
34236W        W35100   8.764   1.475  23.859 -0.0787 -0.1204  0.1351
34237W        W35101  27.222  24.480  11.635 -0.1446  0.1881  0.1826
34238W        W35102  16.402   3.731  15.729 -0.1329  0.0411 -0.1282
34239W        W35103  27.108  23.346   4.278 -0.0724  0.0268 -0.1509
34240W        W35104   2.403  27.130  10.778 -0.0325  0.0038 -0.1641
34241W        W35105  17.767   9.866  22.535  0.0335 -0.0453  0.0748
34242W        W35106   7.908   0.338  28.330 -0.0763  0.2821  0.0865
34243W        W35107  13.594   4.921   3.883 -0.1667  0.0411 -0.0670
34244W        W35108  19.179  13.747   8.830 -0.0419 -0.2464 -0.0159
34245W        W35109  10.624  15.515  14.366  0.0048 -0.2149  0.1664
34246W        W35110  17.193  10.813   9.482 -0.0805 -0.2829  0.0030
34247W        W35111  26.474   8.034   2.797 -0.1512  0.1191 -0.1057
34248W        W35112   8.305  10.128   9.266  0.3052  0.1191 -0.0112
34249W        W35113  13.555  11.818  16.348  0.2050 -0.1884 -0.1400
34250W        W35114  20.123  28.207  23.529 -0.1100  0.1553  0.0000
34251W        W35115   6.258  22.072   7.211  0.1122 -0.1638 -0.1899
34252W        W35116  17.278  26.374  11.403  0.1214 -0.0151 -0.0394
34253W        W35117   7.147   5.434  13.820  0.3589  0.2306 -0.0266
34254W        W35118   9.209   6.626   5.289 -0.0735 -0.0759 -0.0460
34255W        W35119  22.787  13.037  15.919 -0.1234  0.1328  0.1089
34256W        W35120   0.934  24.255  25.375 -0.4220 -0.3300 -0.1663
34257W        W35121  14.357  26.839  20.179  0.3833 -0.2655 -0.0783
34258W        W35122  24.857  26.605  15.864 -0.0344 -0.0352  0.0632
34259W        W35123  22.214  23.589   5.438  0.0578 -0.2414 -0.0800
34260W        W35124  24.817  26.753  25.886 -0.3139  0.0255 -0.2388
34261W        W35125  25.200  27.683  12.734  0.1417 -0.4116 -0.2889
34262W        W35126   1.948   9.676  26.286 -0.2706 -0.1732 -0.0378
34263W        W35127  19.038  20.126  15.119  0.0185 -0.0315  0.2396
34264W        W35128  20.294   1.617  27.465 -0.2849 -0.3052 -0.2754
34265W        W35129  15.844  23.802   9.100  0.1758 -0.1434 -0.1291
34266W        W35130   7.674   8.013  27.662 -0.2552  0.3652  0.0980
34267W        W35131   0.859  14.636   2.473 -0.0075 -0.0281  0.0279
34268W        W35132   7.961  12.142   5.079  0.0802  0.0493  0.1096
34269W        W35133  16.968   9.310  28.664  0.0057 -0.1134 -0.0279
34270W        W35134  16.437  12.139   4.664 -0.2518  0.2584  0.0414
34271W        W35135  22.125  26.146  21.143 -0.1100 -0.1261 -0.1008
34272W        W35136  16.663   7.134  19.674 -0.2240 -0.1107 -0.0075
34273W        W35137  18.805   3.265  27.527  0.1359 -0.2461  0.0450
34274W        W35138  23.891   6.109   2.390  0.2098  0.0166 -0.3193
34275W        W35139  21.881   8.221  21.251  0.0973  0.1105  0.2304
34276W        W35140  24.636  28.536  15.037 -0.2614 -0.0685 -0.0276
34277W        W35141  10.246   0.961  13.589 -0.0258 -0.2291  0.0214
34278W        W35142  13.056  25.931  26.202 -0.2698  0.0576  0.0457
34279W        W35143  22.594  21.111  23.842 -0.0420 -0.0777  0.3158
34280W        W35144   9.084  26.145  15.779  0.0316  0.0530  0.3268
34281W        W35145  13.371  16.195  11.512 -0.0141 -0.2056 -0.2775
34282W        W35146  19.993   5.022  15.304 -0.0029 -0.0654 -0.2241
34283W        W35147   5.866   1.822  12.793 -0.1798 -0.0283  0.2155
34284W        W35148  25.836   8.172   0.896 -0.0037  0.1741 -0.3885
34285W        W35149  28.157  24.275  10.713 -0.0664  0.0780  0.0791
34286W        W35150  10.063   7.230   4.420 -0.2359 -0.0813 -0.1905
34287W        W35151  26.505  22.095  28.754 -0.0617 -0.1145  0.2249
34288W        W35152  28.637   1.335  27.904  0.0489  0.1276 -0.0222
34289W        W35153  15.139  17.774   0.968 -0.0688  0.1289 -0.0744
34290W        W35154  18.908  28.065  19.347 -0.3765 -0.1179 -0.1978
34291W        W35155  18.612  16.219  19.598 -0.0261 -0.0688 -0.0188
34292W        W35156  26.793  15.080  26.313 -0.3571  0.1038 -0.0777
34293W        W35157  15.826  16.505  13.604  0.2879 -0.1184  0.2194
34294W        W35158  23.787  15.008   0.110  0.1711  0.0512  0.0358
34295W        W35159  29.032  20.762  14.387 -0.4311  0.0459 -0.1893
34296W        W35160  19.129   3.843  25.594  0.2207 -0.0085 -0.2568
34297W        W35161  18.851  19.660  11.247  0.1769 -0.0507  0.0904
34298W        W35162   0.506  13.803  22.371 -0.3653  0.3697 -0.3477
34299W        W35163  15.263   5.594   8.166 -0.3780  0.0086 -0.3765
34300W        W35164   0.503  25.153  17.821  0.0607  0.1123 -0.8233
34301W        W35165  19.522   4.447  21.983 -0.3678 -0.0746 -0.0444
34302W        W35166  19.099  19.054  21.443  0.1497  0.1172 -0.1061
34303W        W35167   6.382  16.170  18.601 -0.1813 -0.0437  0.1864
34304W        W35168   2.540  19.877   5.638 -0.0213  0.0542  0.2668
34305W        W35169  22.170   5.371  18.951  0.1467  0.3175  0.0810
34306W        W35170  22.428  25.580   2.055  0.0369 -0.0311  0.0541
34307W        W35171  24.353   0.979  25.821 -0.0868  0.1849 -0.0493
34308W        W35172  22.399  14.015  20.318 -0.3080  0.1080 -0.3175
34309W        W35173  19.340   7.214   9.624  0.0518  0.2648 -0.0651
34310W        W35174  15.757  10.203   4.178 -0.1670 -0.3659 -0.0367
34311W        W35175  21.245  15.838   2.565 -0.1182 -0.0307 -0.1319
34312W        W35176  19.107  19.338  28.059  0.0195  0.1123 -0.0134
34313W        W35177  23.426  14.827  14.063 -0.0884  0.0124 -0.1374
34314W        W35178  10.242   2.059  27.154 -0.1098 -0.1134 -0.2953
34315W        W35179   7.049   2.475   7.560 -0.2104 -0.0538  0.1286
34316W        W35180   1.412  27.784  25.021 -0.3067  0.0020  0.1140
34317W        W35181  23.274   6.288   4.246 -0.0584 -0.1964  0.0964
34318W        W35182   0.144  17.630  24.789  0.0143  0.4849  0.0610
34319W        W35183   4.563  26.681  10.753  0.0413  0.1219  0.1600
34320W        W35184  18.032  26.479  18.762 -0.0017 -0.1527  0.0340
34321W        W35185  15.369   9.080   3.783  0.0360 -0.1736 -0.3337
34322W        W35186  13.756  28.825  24.529  0.4328 -0.0777  0.0813
34323W        W35187  26.831  11.743  18.360  0.0478 -0.2903  0.0222
34324W        W35188  20.612  14.105  21.631 -0.0503 -0.1399  0.3195
34325W        W35189  17.837   7.617  28.742  0.0795  0.2418 -0.1405
34326W        W35190   7.172  28.294   1.911 -0.0141 -0.0315 -0.0407
34327W        W35191  19.590  14.336   5.036 -0.1486 -0.2752 -0.2867
34328W        W35192  16.988  19.907  14.172 -0.0856  0.0763  0.2653
34329W        W35193  17.704  16.709   6.038 -0.0646  0.2655  0.3352
34330W        W35194  26.637  26.846  20.602  0.2107  0.3054 -0.2737
34331W        W35195  19.537  25.310   1.416 -0.0653 -0.0684  0.2411
34332W        W35196   5.677  28.819  17.740  0.0655  0.0023 -0.2607
34333W        W35197  20.597   6.094   6.751 -0.1687 -0.0289 -0.0942
34334W        W35198   0.389   2.582  13.420  0.0806 -0.1574  0.2572
34335W        W35199   4.355   1.318   6.042  0.0143  0.1553 -0.0490
34336W        W35200  27.239   8.965  10.578  0.1043 -0.2051 -0.0414
34337W        W35201  24.814   6.945  10.042 -0.4590 -0.1024  0.0188
34338W        W35202  16.763   5.260  22.557  0.0669 -0.0707  0.2210
34339W        W35203  24.734  13.247  25.981 -0.1975  0.1544  0.2211
34340W        W35204  19.868  12.156  12.344  0.1143 -0.1227  0.2326
34341W        W35205  17.531  20.822  18.802 -0.2139 -0.0225  0.0228
34342W        W35206  24.797   0.315   4.817 -0.2183 -0.1766  0.0226
34343W        W35207   6.470  24.058  15.655 -0.2248  0.0596  0.0078
34344W        W35208  20.226   8.876   6.145 -0.2186  0.0527 -0.0084
34345W        W35209  23.781   6.389   4.521 -0.2634  0.0473 -0.0176
34346W        W35210  27.089  13.849  15.016  0.1197 -0.1881  0.1023
34347W        W35211   6.749   3.638  16.579 -0.4123  0.3161  0.0599
34348W        W35212  15.860  27.677  28.839 -0.1699  0.0341 -0.5190
34349W        W35213  19.594  11.711  24.446  0.0400  0.3117  0.1166
34350W        W35214  15.364   0.497  24.799  0.1281  0.1285  0.0482
34351W        W35215   1.980   6.848   3.977  0.3046  0.2574  0.0529
34352W        W35216   6.290  19.700  23.759 -0.2960  0.2009 -0.0043
34353W        W35217   7.354  28.453   0.436 -0.0188 -0.3020  0.2427
34354W        W35218  12.812   4.001  21.047  0.1289  0.3094  0.1541
34355W        W35219  23.065  25.061  27.554  0.3243  0.0140  0.0252
34356W        W35220   6.778  26.893  26.259  0.0190  0.1248 -0.0402
34357W        W35221  14.825  23.469  15.771 -0.0230 -0.0623  0.1390
34358W        W35222  27.592   3.765  23.472  0.2250  0.1227  0.0283
34359W        W35223  19.379   9.178  11.308  0.2016 -0.0492 -0.4527
34360W        W35224  22.602  17.690  27.559 -0.2447  0.0114  0.1229
34361W        W35225  22.199   8.185   5.162 -0.0037  0.1868 -0.0378
34362W        W35226  15.605  23.101  21.371 -0.2496  0.0218  0.2621
34363W        W35227  22.409  17.943   2.690 -0.0055 -0.2262 -0.3442
34364W        W35228  11.156  10.610   2.767 -0.0431 -0.2341  0.0361
34365W        W35229  28.871  21.538  26.193  0.0099 -0.0601 -0.0191
34366W        W35230  22.116   3.444  24.077  0.0501 -0.1699  0.0474
34367W        W35231   9.117   8.288  23.634 -0.2232  0.0075 -0.2356
34368W        W35232   5.068   9.370   3.714  0.1434 -0.1655 -0.0189
34369W        W35233  14.247  25.455  22.407 -0.1552  0.0011  0.0893
34370W        W35234  18.980  24.757   9.293 -0.0119  0.1458 -0.0054
34371W        W35235  11.343  17.369   7.614  0.1183  0.3585 -0.2717
34372W        W35236  17.796  13.584  26.185 -0.0358  0.0383  0.0141
34373W        W35237  25.545   1.837  24.700  0.2605 -0.2304  0.0965
34374W        W35238   5.742  15.742   5.781 -0.0639 -0.1760  0.1880
34375W        W35239   3.980  20.565   9.929 -0.1431  0.1058 -0.4036
34376W        W35240   3.941  18.185   4.261 -0.1325  0.3255 -0.0123
34377W        W35241  17.443   8.135   1.490 -0.0746 -0.3170 -0.2290
34378W        W35242  26.575   8.707   0.403 -0.0998  0.1575 -0.0039
34379W        W35243   4.662  10.370  20.887 -0.0307 -0.4505 -0.0805
34380W        W35244  27.396  10.456   8.707 -0.4170 -0.0160  0.2202
34381W        W35245  23.518   1.415   0.726 -0.0843  0.0670 -0.2869
34382W        W35246  15.119   8.842  19.894 -0.2250 -0.1230 -0.0841
34383W        W35247  18.353   3.089  17.976  0.4735 -0.2892 -0.2935
34384W        W35248  19.734  20.733   7.847 -0.1593 -0.1124  0.0149
34385W        W35249  26.360  12.156   5.424 -0.1977  0.1778  0.0503
34386W        W35250  28.003  26.945  27.956 -0.2211 -0.0113 -0.1027
34387W        W35251  14.808   4.659  25.932 -0.2822 -0.0613  0.0039
34388W        W35252  16.918  24.641  26.860  0.0170  0.2896 -0.0528
34389W        W35253  21.068   7.728  15.399  0.1039  0.2527  0.0733
34390W        W35254   6.904  26.151   9.256  0.1378 -0.3637  0.2170
34391W        W35255   6.973  28.895   0.174  0.1124 -0.0678 -0.0056
34392W        W35256   3.116  17.053  18.644  0.2836 -0.0643  0.2399
34393W        W35257   9.861  14.623   9.008 -0.0673 -0.1163  0.1010
34394W        W35258  23.468  22.577  13.065  0.2306 -0.1274  0.0019
34395W        W35259  14.201  22.802  19.360 -0.0861  0.1235 -0.3017
34396W        W35260   7.133  27.928  28.695  0.1592  0.1202 -0.0353
34397W        W35261  22.755   8.996   9.927 -0.0538  0.0587 -0.0610
34398W        W35262  13.775  12.313  16.679  0.0278 -0.0204 -0.1001
34399W        W35263  25.637   7.403  15.543 -0.0500  0.0983 -0.2537
34400W        W35264   9.714  20.933  16.146  0.0964  0.2421 -0.1356
34401W        W35265  25.499   5.115  22.967 -0.0201 -0.0860  0.1819
34402W        W35266  20.600   9.531  10.226 -0.0856 -0.2270  0.0732
34403W        W35267  23.690   1.370  14.945 -0.2656 -0.3059 -0.1707
34404W        W35268  10.390   6.171  27.261 -0.0001  0.3203  0.2153
34405W        W35269   3.237   2.945  15.366 -0.1633  0.3878  0.3038
34406W        W35270   2.064   6.199  28.420 -0.0333  0.0889  0.1246
34407W        W35271  19.285   7.317   0.460 -0.0778 -0.2494  0.1100
34408W        W35272   2.932   4.372   7.643 -0.4030  0.0179  0.0627
34409W        W35273  23.438   1.544  11.631  0.0409  0.0541  0.0519
34410W        W35274   6.300   9.272   5.437  0.3568  0.6025 -0.0157
34411W        W35275  24.644   0.348   3.374 -0.1858  0.2683 -0.2101
34412W        W35276   4.740  24.369  12.468  0.0542 -0.0189 -0.0201
34413W        W35277  16.117   5.994  22.336 -0.1072  0.0466 -0.1822
34414W        W35278   1.255   3.551  10.276  0.4149  0.0658 -0.2944
34415W        W35279  28.006   2.714   7.513  0.1034  0.0963 -0.2716
34416W        W35280  16.697  25.850   1.179  0.0858 -0.2782  0.4369
34417W        W35281  17.696  12.872  28.531  0.1428 -0.3937 -0.1261
34418W        W35282  21.673  28.382  28.787  0.1015  0.1459  0.2687
34419W        W35283  22.930  11.350   4.487  0.0492  0.2739  0.0248
34420W        W35284  25.448  25.801  20.977  0.0833  0.1794  0.0046
34421W        W35285  20.880  12.380  22.798 -0.1449  0.1610  0.1802
34422W        W35286  20.497   9.344  22.311 -0.2864 -0.1541 -0.0895
34423W        W35287  12.155  25.583   1.863 -0.0131 -0.0182  0.0547
34424W        W35288  14.469  10.906  10.950 -0.1105  0.1102 -0.2875
34425W        W35289  21.343   2.988  24.324 -0.1918 -0.1071  0.1667
34426W        W35290   7.549  22.166   1.637 -0.1708 -0.0930  0.1982
34427W        W35291  23.627   9.949  26.094  0.1379 -0.3095 -0.2701
34428W        W35292   2.238   9.715  24.739  0.1032  0.2223 -0.1191
34429W        W35293   2.480  28.964   2.272  0.0586  0.0833 -0.2173
34430W        W35294   0.891  11.215   7.029 -0.1325 -0.2342 -0.0000
34431W        W35295  26.001  14.967  18.838  0.0727 -0.0068 -0.0745
34432W        W35296  13.610  22.819   7.639  0.2873  0.1778 -0.0739
34433W        W35297  17.402  20.682   4.770  0.0015 -0.2536 -0.0220
34434W        W35298   3.643  27.327   9.966  0.1276  0.0862  0.0498
34435W        W35299   6.156  14.442  14.176 -0.0686 -0.0124 -0.0750
34436W        W35300  11.043  18.718  18.826 -0.1223 -0.1019  0.1215
34437W        W35301  22.959  13.299  16.657  0.2314 -0.2952 -0.1563
34438W        W35302   0.952  24.044  18.484  0.0624  0.2843 -0.2523
34439W        W35303  14.782  13.517  15.412  0.0158  0.2130  0.1933
34440W        W35304  16.923   5.358  16.660  0.2716 -0.1283  0.0669
34441W        W35305  11.287  19.326  27.429 -0.0659 -0.0169  0.0762
34442W        W35306  23.167  24.521   4.500  0.1092  0.1617  0.1512
34443W        W35307  13.158   7.272  26.747 -0.2989  0.2005  0.0443
34444W        W35308  27.764   3.771  21.517  0.2221  0.1964  0.1541
34445W        W35309   7.122  24.623  27.286  0.0071 -0.1133  0.0898
34446W        W35310  12.566  25.074   4.694  0.1543  0.0072 -0.0113
34447W        W35311  21.867  19.479   3.256  0.0065  0.0638 -0.0439
34448W        W35312   5.207  17.444  20.942 -0.1828  0.0490 -0.0818
34449W        W35313  17.510   6.472   9.429  0.0054 -0.2351 -0.1769
34450W        W35314  20.900   7.778  26.564 -0.0708 -0.1457 -0.0969
34451W        W35315  14.811   2.668  22.745 -0.3284  0.1338 -0.0436
34452W        W35316  11.958  18.588   6.560  0.3918 -0.0761  0.0985
34453W        W35317   5.891  11.692  16.755 -0.0166 -0.1450 -0.1472
34454W        W35318  14.189  10.185   4.915  0.0264 -0.2513  0.0746
34455W        W35319  21.451   1.545  10.723 -0.0924  0.0018  0.0154
34456W        W35320  20.126  22.947  27.765  0.0478 -0.3036  0.0933
34457W        W35321  21.290  11.424   1.846 -0.1012  0.2137 -0.3122
34458W        W35322  28.578   5.750  24.670 -0.1589  0.1021 -0.1687
34459W        W35323   0.185  12.244  24.454  0.0781 -0.3586 -0.0514
34460W        W35324  14.075   0.037  25.781  0.2653 -0.2067 -0.1227
34461W        W35325   0.176   4.465   3.271 -0.2376  0.3825  0.1847
34462W        W35326  24.968   5.909   3.863 -0.3015  0.1586 -0.1714
34463W        W35327  13.720  24.382  11.323  0.0041 -0.1246  0.0938
34464W        W35328  27.373  24.384   4.583  0.0944  0.0435 -0.0389
34465W        W35329  21.764   7.856  28.528 -0.0910 -0.2242  0.2639
34466W        W35330   6.796   6.067  15.735  0.2311 -0.1597  0.2478
34467W        W35331  20.731   6.962  19.500  0.0530  0.0659  0.2659
34468W        W35332   8.936   5.905  10.462  0.0566 -0.1390 -0.0791
34469W        W35333  22.329   9.987  15.833 -0.0586  0.0115  0.0038
34470W        W35334   0.032   4.226   6.748 -0.1396  0.1552  0.3914
34471W        W35335  18.663  23.449   6.112  0.0663  0.1928 -0.0731
34472W        W35336  28.129  24.110  18.260  0.0172 -0.2397 -0.2004
34473W        W35337   1.160  23.902   7.364 -0.2727 -0.0822 -0.3713
34474W        W35338  25.923  19.775  12.233 -0.3368  0.3051  0.1517
34475W        W35339  19.683  22.939   4.785  0.0038 -0.1202 -0.0383
34476W        W35340  13.422   8.540  24.735 -0.2860  0.0013  0.1220
34477W        W35341   0.935   5.571  26.900 -0.1050 -0.2251  0.1683
34478W        W35342  17.024  12.149   4.040 -0.1827  0.2728 -0.1705
34479W        W35343   8.897   1.052   4.686 -0.0570  0.1113  0.0498
34480W        W35344  18.313   2.252   6.535  0.0470  0.0422  0.0149
34481W        W35345  11.734  17.637   2.665  0.2005 -0.1219 -0.0493
34482W        W35346  22.939   3.346  21.449  0.1283  0.0270  0.0746
34483W        W35347  22.769   4.267   6.272 -0.0954 -0.0448  0.0066
34484W        W35348  26.565  22.041  23.467 -0.1199  0.0497  0.0976
34485W        W35349  26.923  23.275  23.460 -0.0228 -0.3342 -0.0726
34486W        W35350  19.314  14.024   2.522 -0.1532 -0.2685  0.2352
34487W        W35351   9.358  17.889   6.691 -0.0019 -0.0567 -0.2107
34488W        W35352  20.067   7.068   7.254  0.1610 -0.1056  0.1392
34489W        W35353  21.293  16.964  19.269 -0.0655 -0.2694  0.1606
34490W        W35354  25.705  26.132   4.825 -0.2264  0.1217 -0.3815
34491W        W35355  10.146   4.961   6.363  0.0363  0.2207 -0.0869
34492W        W35356  12.059   2.534   7.821 -0.0771 -0.2580 -0.2344
34493W        W35357   3.639   6.187  23.683  0.0433 -0.1490  0.0703
34494W        W35358   9.613  14.424  28.552 -0.3794 -0.1565 -0.1853
34495W        W35359   1.077  27.518   8.465  0.1845  0.1676 -0.3633
34496W        W35360  25.884  22.763  25.788  0.0084  0.0724  0.0997
34497W        W35361  21.227   3.940   7.639 -0.1383 -0.0144  0.2448
34498W        W35362  20.116   8.330  21.568  0.1343  0.3506 -0.1316
34499W        W35363  11.508  27.413  24.788 -0.0309 -0.1225  0.3372
34500W        W35364  23.852  25.735   0.939  0.2615 -0.1560 -0.2474
34501W        W35365  15.093  16.438  16.970 -0.1467 -0.1207  0.3232
34502W        W35366  26.170  27.076   2.885  0.0318 -0.0428 -0.2253
34503W        W35367  17.267  12.265  17.277 -0.1905  0.0840  0.2123
34504W        W35368   2.616   4.067   0.592  0.1017 -0.1644 -0.0316
34505W        W35369  15.329  15.876   4.783 -0.1580  0.0732 -0.2096
34506W        W35370   0.950   7.657   4.341 -0.1267 -0.0040 -0.3365
34507W        W35371   7.179  16.697  20.582 -0.1009 -0.5057 -0.0032
34508W        W35372  16.692  12.300   5.183  0.1568 -0.1168  0.0774
34509W        W35373  28.923  20.235  20.767 -0.1509 -0.4814  0.2158
34510W        W35374  13.035  21.053  10.212 -0.0657  0.2576 -0.0580
34511W        W35375  13.591  18.156  16.683 -0.1121 -0.1105 -0.2029
34512W        W35376  18.108   5.079   9.958  0.0470 -0.3701 -0.2705
34513W        W35377   4.931   1.488  10.280 -0.2858 -0.0522 -0.0359
34514W        W35378   4.447  14.291   5.421 -0.0376 -0.0293 -0.1467
34515W        W35379   2.970   3.097  14.956  0.0169 -0.2655  0.2490
34516W        W35380  15.405   5.754  19.094 -0.1360 -0.0975  0.0820
34517W        W35381   7.388  21.671  16.138  0.1745 -0.1062  0.2335
34518W        W35382  22.013   7.942  22.781 -0.2063  0.1751 -0.0284
34519W        W35383  17.924  20.072  10.833  0.0884  0.3590 -0.0353
34520W        W35384  20.397  14.826  17.237 -0.0528  0.1676  0.0282
34521W        W35385  26.555  20.754   3.514 -0.0009  0.3273 -0.0384
34522W        W35386  19.775  22.323   0.576 -0.3697  0.0925  0.1826
34523W        W35387  24.998  13.486   9.178 -0.1137  0.0114  0.1287
34524W        W35388  14.374  28.428  27.134  0.1808 -0.3494 -0.2075
34525W        W35389   5.108  16.920  27.846  0.1258 -0.1551 -0.0315
34526W        W35390  27.475  13.555  17.171 -0.1204 -0.1069 -0.1682
34527W        W35391  12.726   7.985   4.385 -0.0078 -0.1916 -0.0612
34528W        W35392  14.606  25.732  10.159 -0.0347 -0.0997 -0.0110
34529W        W35393  22.907  25.516  21.284 -0.1006 -0.1378 -0.3590
34530W        W35394   6.507  25.535   9.709 -0.0662 -0.0227  0.4748
34531W        W35395  17.808   3.626  15.295  0.0047 -0.0628 -0.2279
34532W        W35396  22.680  10.450   4.064 -0.1383 -0.0427  0.1310
34533W        W35397   7.677  14.161  17.548  0.2693 -0.0178 -0.0867
34534W        W35398   2.884  20.103  19.647  0.1252 -0.0664 -0.4078
34535W        W35399   3.385   5.485  28.312  0.1789  0.1327 -0.0508
34536W        W35400  28.421   3.695  28.005  0.0500  0.0611 -0.1589
34537W        W35401   6.367   2.056  20.602  0.2134  0.1146  0.0785
34538W        W35402  11.320  13.367   9.852  0.1472 -0.0355 -0.0693
34539W        W35403   6.926  11.989   7.594  0.1206  0.0653  0.0163
34540W        W35404  25.783   4.891   7.446  0.1190 -0.2927  0.1463
34541W        W35405  26.044  15.672  16.532  0.0064 -0.3557 -0.1721
34542W        W35406  19.454   4.212  24.219 -0.0436 -0.0520 -0.0579
34543W        W35407  21.849   0.804   6.745 -0.0865 -0.1626  0.1809
34544W        W35408  28.067  12.568  16.338 -0.2081  0.2232 -0.0614
34545W        W35409  21.416   6.245   1.873 -0.0366 -0.0248  0.2135
34546W        W35410  23.909  11.522  28.923 -0.0816 -0.4288  0.0247
34547W        W35411  25.699  28.205  14.344 -0.0755  0.2335 -0.1239
34548W        W35412   8.359  13.890  26.838  0.2780  0.1823  0.1403
34549W        W35413  17.409  16.149   5.043  0.0466  0.0393 -0.3178
34550W        W35414   3.978  12.702  16.160  0.0387 -0.0638 -0.2331
34551W        W35415  26.942   3.934   3.858 -0.3198  0.0688  0.0584
34552W        W35416  10.834  11.823  28.959  0.0471 -0.1012  0.3124
34553W        W35417   3.215   9.961   7.823 -0.0643 -0.1191  0.1720
34554W        W35418  20.034  15.962  26.841 -0.1048 -0.0100 -0.1895
34555W        W35419  10.559   2.356  26.827  0.1822 -0.0948 -0.2027
34556W        W35420  24.423  15.569  28.278  0.1663 -0.2658  0.1959
34557W        W35421   8.293   1.309  25.970  0.1254 -0.2064 -0.2019
34558W        W35422  19.770  13.334   5.867 -0.2068 -0.6039  0.0238
34559W        W35423  17.491   4.871  27.355  0.1064 -0.1023  0.2572
34560W        W35424  13.739   3.763  10.682  0.0400 -0.2945  0.0059
34561W        W35425  20.855  16.015   2.210 -0.2170 -0.0061  0.0712
34562W        W35426  23.855  13.721  21.802  0.0383 -0.0903 -0.0765
34563W        W35427  20.753  26.281  21.178  0.2377 -0.0488  0.0330
34564W        W35428  28.524  16.328  16.896 -0.2351 -0.3093  0.0019
34565W        W35429  26.877  15.750  20.439 -0.0555 -0.0219 -0.0334
34566W        W35430  19.985   1.162  21.818 -0.0853 -0.1385 -0.2840
34567W        W35431   7.346  11.519  11.926 -0.0252 -0.0024  0.0450
34568W        W35432  21.266  16.682  24.713 -0.1471 -0.1443 -0.1608
34569W        W35433  15.198  19.314   0.494  0.2948  0.0243 -0.0651
34570W        W35434  28.462   8.804  24.196  0.0239 -0.1471  0.3345
34571W        W35435  26.133  21.870   1.469 -0.1672  0.3537  0.0328
34572W        W35436  25.201  13.190  18.272  0.2081 -0.4420  0.1739
34573W        W35437  21.906  14.124   4.609 -0.1105  0.1649  0.1338
34574W        W35438   8.710  22.175  24.163 -0.2419 -0.0514  0.0324
34575W        W35439  21.093  11.844  11.978 -0.1421  0.0170  0.1922
34576W        W35440  20.413   5.939  29.120 -0.1919  0.2865  0.0184
34577W        W35441  24.849   8.305  26.993  0.1087 -0.0455 -0.2097
34578W        W35442  15.154  10.147  23.478 -0.1269  0.0709  0.2905
34579W        W35443  10.900   2.586  17.272 -0.0744  0.0583 -0.2077
34580W        W35444  21.724  14.758   5.692 -0.0311  0.0855  0.1174
34581W        W35445  23.839  16.860  14.539  0.2007 -0.0339  0.0391
34582W        W35446  11.408  23.913  13.050  0.1768 -0.0705  0.1696
34583W        W35447  14.549   4.676  13.946 -0.1222  0.3833  0.0474
34584W        W35448   6.376  27.575  22.152 -0.4372  0.2074  0.2439
34585W        W35449  20.357  28.190   9.578 -0.0553  0.2443 -0.4568
34586W        W35450   6.975   8.044  25.870 -0.1669 -0.0105  0.1541
34587W        W35451   9.791   2.511  23.451 -0.0168 -0.0671 -0.1053
34588W        W35452   8.969  29.090  21.627 -0.1468  0.1487  0.3431
34589W        W35453   0.220  25.162  25.151  0.0291 -0.2131 -0.1723
34590W        W35454  17.698  20.909   2.168 -0.0108 -0.0523 -0.2486
34591W        W35455  23.578  18.301  20.357  0.0636  0.1677  0.1619
34592W        W35456  28.730   9.750   7.071 -0.1266  0.1922 -0.0315
34593W        W35457  10.806   0.703  27.632 -0.0162  0.1326  0.1979
34594W        W35458   0.340   3.570   5.162 -0.2600  0.0336 -0.0691
34595W        W35459  27.352  26.165   5.078  0.0435 -0.0532  0.1184
34596W        W35460  25.789  19.357  14.864  0.1439  0.0484  0.0780
34597W        W35461  28.812  18.254  22.391 -0.0415 -0.0300 -0.1243
34598W        W35462   7.474   7.373   3.587  0.1288  0.1755  0.1847
34599W        W35463  13.133   0.960   7.687 -0.1588 -0.2229  0.1278
34600W        W35464   1.691  13.132   2.463 -0.2044 -0.2054  0.2175
34601W        W35465   9.352   2.849  24.674  0.0706 -0.0064 -0.2739
34602W        W35466  12.638   6.605   6.200 -0.1768  0.0469  0.1753
34603W        W35467  14.326   8.085   2.848  0.1616  0.0063  0.3289
34604W        W35468  19.562  16.055   6.371 -0.0137  0.0915 -0.0202
34605W        W35469  14.372  25.425   3.227 -0.0715  0.2393  0.4007
34606W        W35470   2.990  22.705   3.170  0.1608  0.1503  0.1514
34607W        W35471  26.051  16.235  16.440  0.0564 -0.1054  0.2870
34608W        W35472  27.097  12.922   7.260 -0.1922 -0.0815  0.0448
34609W        W35473  15.986   5.014  28.053  0.1612 -0.0278 -0.1693
34610W        W35474  22.773  12.693  22.154  0.2252 -0.0839 -0.0585
34611W        W35475   9.569  17.986  25.044  0.2699  0.2032 -0.1026
34612W        W35476   8.690  28.817  27.708 -0.1682 -0.1260  0.0399
34613W        W35477  26.888   5.158  24.372 -0.0082  0.0821  0.0245
34614W        W35478  16.118  20.800  22.205 -0.1492  0.3147 -0.0912
34615W        W35479   6.659   7.744  22.093  0.2026 -0.1548  0.0046
34616W        W35480   4.646  16.908  21.544  0.4952  0.0451 -0.1985
34617W        W35481  24.552  26.395   3.418  0.1410 -0.1214  0.0843
34618W        W35482  20.766   6.126  24.791  0.0029 -0.4293  0.0893
34619W        W35483  28.892  12.824  22.925 -0.0165  0.1553  0.3251
34620W        W35484  19.224  15.559   9.793 -0.0207 -0.1635 -0.2470
34621W        W35485  23.647  20.020   3.875  0.3047  0.0269  0.2092
34622W        W35486   5.561   6.757  22.286 -0.3676 -0.3015 -0.1546
34623W        W35487   3.771  28.770  28.740 -0.0709 -0.1443 -0.2484
34624W        W35488  18.019  18.754  21.092 -0.0838  0.0662  0.1138
34625W        W35489  28.469  13.062  10.233 -0.4374 -0.3818 -0.1988
34626W        W35490  13.449  21.307  18.058 -0.1914  0.0048  0.0531
34627W        W35491  16.510   8.231   8.090 -0.1336 -0.0971 -0.2201
34628W        W35492   8.447  20.147   3.182 -0.1122  0.0446  0.1071
34629W        W35493  24.763  11.601   0.074 -0.1520  0.0485 -0.1107
34630W        W35494  18.541  11.558  19.759 -0.5351 -0.1934 -0.0109
34631W        W35495   0.548  17.255   2.126  0.0341 -0.3372  0.1259
34632W        W35496   1.345  14.589   6.968  0.3355 -0.0189  0.1294
34633W        W35497   4.896  10.007  15.055 -0.3593 -0.3715  0.0719
34634W        W35498   8.992   6.619  27.702  0.3423 -0.0420 -0.0739
34635W        W35499  21.397  13.431  26.167  0.1850  0.0444 -0.0965
34636W        W35500   9.998   1.711   4.656 -0.2770 -0.1485  0.1317
34637W        W35501  26.296  14.909   6.025  0.0068 -0.2623 -0.2769
34638W        W35502  26.221  10.851   9.151 -0.1356  0.1212  0.0973
34639W        W35503  10.555  12.688  24.889  0.1598  0.3358 -0.2166
34640W        W35504  10.826  11.283  15.554 -0.0953  0.0536  0.1296
34641W        W35505  27.862  22.998   2.322 -0.1698  0.1586  0.1004
34642W        W35506  19.543  15.296  10.909 -0.0201 -0.0656 -0.1559
34643W        W35507   5.044  22.184  17.409  0.3060  0.0509 -0.2458
34644W        W35508  11.436   7.516  16.378  0.1759  0.0475  0.1687
34645W        W35509  22.413   8.715   3.457 -0.2620 -0.1230  0.1023
34646W        W35510  17.343  16.572  19.927  0.0165 -0.2011  0.0696
34647W        W35511   9.720   5.104  19.919  0.4665  0.0719  0.0025
34648W        W35512   2.742   8.707   2.550  0.1198 -0.0657 -0.0305
34649W        W35513  18.824   6.525   4.604  0.1929  0.1664  0.0936
34650W        W35514  12.022   9.573  23.950  0.4154  0.1758  0.0293
34651W        W35515  11.856  22.447  16.105  0.0379  0.1039 -0.1242
34652W        W35516  20.137  25.785  23.956 -0.1174  0.2203 -0.1268
34653W        W35517   4.278   6.869  14.547 -0.3896 -0.0365 -0.0120
34654W        W35518  25.109  20.918  20.431  0.2554  0.1948  0.1626
34655W        W35519  11.954  24.269  22.783 -0.3054  0.0595 -0.1099
34656W        W35520  23.791   9.468  21.685  0.4134 -0.0061  0.4010
34657W        W35521  24.790   9.333  14.953  0.0169 -0.4125 -0.2106
34658W        W35522   1.859  12.304  15.320  0.0692  0.0039  0.0341
34659W        W35523  25.913  23.348   0.167  0.0840 -0.0782  0.0055
34660W        W35524  22.650   8.206   5.596  0.1936  0.0777 -0.0420
34661W        W35525  25.389  28.453   4.363  0.1130 -0.0683  0.0210
34662W        W35526  16.723  14.688  27.685  0.0349 -0.0556 -0.0217
34663W        W35527  13.498   3.448  17.807 -0.2826 -0.1949  0.0382
34664W        W35528   1.142  10.211   4.362 -0.0025 -0.1909 -0.0660
34665W        W35529  18.591  27.291   0.557 -0.0052 -0.0791  0.0122
34666W        W35530   9.193   5.643   0.420 -0.1846 -0.1537 -0.6021
34667W        W35531  10.655   5.942  23.525  0.0086  0.2187 -0.0393
34668W        W35532   5.081   3.160   9.748 -0.1493 -0.0716 -0.1775
34669W        W35533  23.060  13.502  27.204  0.2038 -0.0601 -0.0930
34670W        W35534  18.696  24.014   4.917 -0.0392 -0.0944 -0.0632
34671W        W35535  19.372   0.332   4.653  0.3103  0.2472 -0.0492
34672W        W35536   0.259  15.876   6.927  0.2894 -0.0543  0.5017
34673W        W35537  18.701  21.015  24.833  0.1264 -0.3700  0.0387
34674W        W35538  12.805   5.333   6.680 -0.0004 -0.0086 -0.0869
34675W        W35539  21.680  12.597  28.369 -0.2159  0.1236  0.1883
34676W        W35540  20.625  17.369   0.446 -0.0173 -0.0194 -0.0763
34677W        W35541  13.459  14.783   3.342  0.0567 -0.2225 -0.0943
34678W        W35542   8.468  21.376  23.738 -0.4447 -0.1869 -0.2193
34679W        W35543  25.109  27.281  22.772 -0.0660  0.1390 -0.1833
34680W        W35544  16.493   4.544  24.358  0.0329  0.1923 -0.0746
34681W        W35545  20.500  23.529   4.097 -0.1490  0.1547 -0.0277
34682W        W35546   4.456   1.453   3.961  0.0029 -0.1319 -0.3438
34683W        W35547   9.476  15.516  25.862  0.2066  0.1847 -0.1411
34684W        W35548  11.748  28.763  20.521  0.0355 -0.0659 -0.1991
34685W        W35549  11.840  18.355  16.945  0.2975 -0.0402  0.0268
34686W        W35550   3.237  17.269   9.148  0.1728 -0.2359 -0.2814
34687W        W35551  14.438  27.638  21.401 -0.0509 -0.2375 -0.1999
34688W        W35552  13.328  18.160   6.198 -0.1533  0.1007 -0.0519
34689W        W35553  23.172   6.552   3.253  0.1263  0.1218 -0.2626
34690W        W35554   1.467   6.835  22.832 -0.0036 -0.2268 -0.1644
34691W        W35555  18.208  23.613  23.943  0.0942  0.2271 -0.0453
34692W        W35556  20.171  27.943  29.006 -0.3295 -0.0930 -0.0940
34693W        W35557   5.530  23.381  25.363 -0.0795 -0.1639  0.1046
34694W        W35558   4.469  12.768  21.234 -0.1625  0.1196 -0.1290
34695W        W35559   5.687  11.834   4.198 -0.1585  0.0629 -0.0417
34696W        W35560  19.723   1.406  28.459  0.1447  0.1691  0.1706
34697W        W35561  16.947   1.373  14.444  0.0651 -0.1889  0.0114
34698W        W35562  27.325   7.637   5.363  0.1500  0.0660  0.0077
34699W        W35563  11.261  10.541  28.369 -0.4626 -0.1630  0.0819
34700W        W35564  17.315  12.304  22.943 -0.0841 -0.2822  0.0170
34701W        W35565  18.120  16.146   1.851  0.0129  0.2066 -0.0514
34702W        W35566  23.822  20.300  26.567  0.0406 -0.2254  0.1955
34703W        W35567   3.100  13.900  17.243  0.0099 -0.2575 -0.1512
34704W        W35568  18.130   6.282  12.353  0.1042 -0.2736  0.0952
34705W        W35569  26.039  18.380   5.731  0.3444 -0.1674  0.2426
34706W        W35570   9.964  11.320  25.921 -0.2178  0.0784 -0.2181
34707W        W35571  15.641   2.149  21.030 -0.1932 -0.0606  0.0336
34708W        W35572   1.745   1.155   4.031 -0.1679  0.2728  0.0882
34709W        W35573   9.062  17.550  21.632  0.3042  0.0847  0.1306
34710W        W35574  22.897   5.462  13.523 -0.3113 -0.0305 -0.0477
34711W        W35575   9.215  15.487  28.572 -0.0061  0.2551  0.3542
34712W        W35576   2.690  19.654   4.395  0.0524  0.1803  0.1264
34713W        W35577   3.375   7.702   0.096 -0.1325  0.1535  0.0479
34714W        W35578   3.132  28.837  24.235  0.1541 -0.2131 -0.3304
34715W        W35579  23.088   1.633   4.690 -0.0512  0.1491  0.1069
34716W        W35580  28.733   5.550  21.253  0.0096  0.2984  0.2215
34717W        W35581  20.479  11.677  22.464 -0.2627 -0.2828  0.0131
34718W        W35582   1.470  16.738   6.858 -0.0275  0.1669  0.1217
34719W        W35583  26.371   8.780   8.563 -0.1094  0.0575 -0.1532
34720W        W35584  23.697   8.177   4.411 -0.1310  0.0074 -0.0323
34721W        W35585  24.796  16.273   5.615 -0.1249  0.0696 -0.4377
34722W        W35586  18.851  11.050  23.964 -0.0437  0.0898 -0.0965
34723W        W35587  23.754   3.388  26.907  0.1472  0.2887 -0.0243
34724W        W35588  13.752  26.322   4.572  0.0436  0.0685  0.0537
34725W        W35589  26.409   2.737   6.376  0.2544 -0.1107  0.2099
34726W        W35590  26.602  23.434  18.346 -0.2279 -0.1664  0.4341
34727W        W35591  17.191  25.248  16.613 -0.1620 -0.0969 -0.2096
34728W        W35592  14.518  16.051   6.717  0.2304 -0.0757  0.1045
34729W        W35593  11.180  24.629  15.118  0.1089  0.0336  0.0695
34730W        W35594  21.570   4.231  21.042  0.1106 -0.1647  0.5247
34731W        W35595  25.668   0.184  18.344 -0.1728  0.3345  0.2165
34732W        W35596  27.031  19.771   5.425 -0.1742  0.3228 -0.3011
34733W        W35597  26.887  17.904  13.423 -0.0761  0.4034  0.1827
34734W        W35598  12.828  12.479   8.149 -0.1291 -0.2227  0.0784
34735W        W35599  26.507   5.715   5.377  0.0059 -0.1066 -0.0627
34736W        W35600  19.365  14.492  22.758  0.1748 -0.2801 -0.1409
34737W        W35601  24.115  28.697   6.995 -0.0599  0.0910 -0.0696
34738W        W35602   6.346  10.663  28.292 -0.4089  0.0783  0.0551
34739W        W35603   8.734   7.863  23.094 -0.0920 -0.1272 -0.2047
34740W        W35604  15.396  23.247  16.556  0.1455  0.0556  0.3345
34741W        W35605  27.655   5.428  19.623 -0.0088 -0.0426  0.0492
34742W        W35606  14.092   6.120  27.759 -0.1115  0.1881 -0.0443
34743W        W35607   5.475   8.628   4.166 -0.0044 -0.0944 -0.0699
34744W        W35608   0.011  21.946  19.870  0.0016  0.0057 -0.0005
34745W        W35609  18.958   6.640  24.267  0.0889  0.0297  0.2358
34746W        W35610  28.669   7.597   3.768  0.1193  0.2438  0.0236
34747W        W35611  12.308  22.183  23.741 -0.0503 -0.0617 -0.3867
34748W        W35612  17.915   0.345  22.421  0.1358  0.0214 -0.0334
34749W        W35613   9.895  14.308   4.259 -0.2184 -0.0332 -0.0853
34750W        W35614  14.423   2.068  13.481 -0.1013  0.1350 -0.4057
34751W        W35615  15.551   4.563   4.139  0.0409  0.1595  0.0954
34752W        W35616  12.908   5.636  22.491 -0.1137 -0.2363 -0.1449
34753W        W35617  28.567  18.377   0.765 -0.4504  0.0192 -0.0024
34754W        W35618   8.618  17.025  27.817  0.2533 -0.1321  0.1443
34755W        W35619   6.910  14.394   5.063 -0.0845 -0.2259 -0.0524
34756W        W35620  14.559   6.683  25.401  0.3805 -0.2129  0.2106
34757W        W35621  13.736   7.272   4.658 -0.1692 -0.0092 -0.0023
34758W        W35622   3.449  21.443   3.746 -0.2040  0.0650  0.1306
34759W        W35623  19.617  13.436   9.501  0.2988  0.0242 -0.0891
34760W        W35624  11.059   0.673  23.027 -0.1131 -0.3220  0.3399
34761W        W35625   8.924   5.036   4.403  0.0257 -0.0732 -0.0774
34762W        W35626  28.908  22.602   9.781 -0.2763 -0.0168  0.1012
34763W        W35627  19.055   0.754   6.990  0.1797 -0.0844  0.1423
34764W        W35628  15.301   7.663   5.472  0.1789  0.2432 -0.1749
34765W        W35629  12.422  12.570  15.597 -0.1790 -0.2748 -0.1114
34766W        W35630  23.534  14.720   8.958  0.0347 -0.0809  0.2120
34767W        W35631  17.946   7.843  13.046 -0.1593 -0.0306 -0.2295
34768W        W35632  20.056  25.059  16.073 -0.1189  0.4452  0.1478
34769W        W35633   8.674   1.417  23.306  0.1672  0.2242 -0.0454
34770W        W35634  26.980  26.378  25.649  0.2060  0.0330 -0.0953
34771W        W35635  11.915   8.884  20.068  0.1572  0.0663  0.0301
34772W        W35636  16.443  19.781   0.308  0.1465  0.1453  0.0550
34773W        W35637  23.223   5.741  19.083 -0.0275  0.1472  0.3171
34774W        W35638  19.997   1.034   6.815  0.3738 -0.0029 -0.1082
34775W        W35639   1.066  25.453   7.476  0.4066 -0.2069 -0.0163
34776W        W35640  13.922   6.075   4.055 -0.2037  0.1630 -0.0850
34777W        W35641  19.453   3.181  15.063  0.3124 -0.0883 -0.1876
34778W        W35642  25.959   1.704   0.873  0.0674  0.3050 -0.0172
34779W        W35643  17.171  24.126  29.099  0.3550  0.6413 -0.3296
34780W        W35644  22.935   2.922  11.926  0.0043  0.2591 -0.0127
34781W        W35645  12.164   9.456   1.604  0.0339 -0.1172  0.4455
34782W        W35646   3.811  15.796  20.177 -0.0817 -0.2733  0.0998
34783W        W35647   5.081  12.998   4.613  0.1085  0.1567  0.1138
34784W        W35648  20.804  10.429  27.784  0.2429 -0.0696 -0.0788
34785W        W35649   2.941  28.682   0.116 -0.0227 -0.1735  0.0112
34786W        W35650   6.492  12.550  16.557 -0.0481 -0.2466 -0.0159
34787W        W35651  19.450   9.822  19.114 -0.1519  0.4470  0.0574
34788W        W35652  20.550   7.476   4.890 -0.0639  0.0262  0.1340
34789W        W35653  22.415   4.274  11.739 -0.1015 -0.1318  0.1015
34790W        W35654  25.825  27.354  28.549 -0.0336 -0.0832  0.1351
34791W        W35655   2.045  16.001   5.491 -0.3583 -0.0681  0.1461
34792W        W35656  11.933  24.490   5.490  0.0252 -0.0435  0.0773
34793W        W35657  19.457   2.850  22.173  0.3517 -0.2369 -0.1502
34794W        W35658  17.850  24.254   2.599 -0.1348 -0.1764  0.0650
34795W        W35659  27.008  14.997  21.196 -0.1448  0.0916  0.1015
34796W        W35660  26.057  10.109  19.890  0.0670  0.1635  0.0973
34797W        W35661  28.249  12.060  25.517  0.0587  0.0832  0.1805
34798W        W35662  24.454   6.217   7.117  0.3362 -0.1711  0.0740
34799W        W35663  23.930  26.893  19.599 -0.0625 -0.0610 -0.2150
34800W        W35664   9.826   5.246  11.112  0.2377 -0.0861  0.0959
34801W        W35665  25.856   7.925  26.101 -0.1236  0.0404 -0.0926
34802W        W35666  14.258  23.205   5.589 -0.4466 -0.1582  0.1395
34803W        W35667  26.368   3.851  11.288  0.4251  0.1360  0.0090
34804W        W35668  21.993   7.494  11.358  0.1429  0.0228  0.3645
34805W        W35669  17.994  25.673   3.495  0.0339 -0.0081  0.0273
34806W        W35670  28.510  15.944   0.266  0.1571  0.1289  0.3291
34807W        W35671  21.453   7.992   2.048  0.1140 -0.1241  0.1747
34808W        W35672   4.874   0.923   1.936 -0.0755 -0.0640  0.1170
34809W        W35673   0.949   7.823   5.457  0.4100 -0.1891 -0.1906
34810W        W35674   1.420  23.453   0.144  0.0780 -0.1535 -0.1410
34811W        W35675  26.580   5.598  13.006  0.2934 -0.2799  0.2258
34812W        W35676  20.810   1.972   2.465  0.0072 -0.0566  0.2395
34813W        W35677  15.350  12.250  24.963  0.1515 -0.0664  0.1524
34814W        W35678  18.111   2.960   3.280  0.0540  0.2490 -0.1988
34815W        W35679   7.142  11.351   0.454  0.1930  0.0065 -0.3858
34816W        W35680   7.615   5.709  11.782 -0.0749  0.0736 -0.1200
34817W        W35681   0.875  21.184   6.783 -0.1404  0.1023  0.1111
34818W        W35682  18.001  15.567   5.105  0.0045  0.4007  0.0205
34819W        W35683  24.416   5.115   4.711 -0.1587  0.0201  0.1870
34820W        W35684  18.177   8.776   0.118  0.0835  0.0515 -0.4201
34821W        W35685   3.867  20.638  17.170 -0.1495  0.1397  0.1580
34822W        W35686  18.389   2.501   3.487  0.0792 -0.2376 -0.2229
34823W        W35687  20.214   1.493   6.214  0.1766  0.0414  0.0409
34824W        W35688   1.126  27.558  12.779 -0.0069  0.2940 -0.2927
34825W        W35689  15.480   0.613   3.942 -0.3553  0.0996 -0.0440
34826W        W35690  24.880  20.273  21.656 -0.0328 -0.0977 -0.2160
34827W        W35691  28.518   7.295   2.146  0.1163 -0.1063 -0.1680
34828W        W35692  21.956   1.051  27.695 -0.1212 -0.3405  0.1949
34829W        W35693  18.113  18.579  27.106 -0.0804  0.4138  0.2756
34830W        W35694   3.198   2.177   2.275  0.0483 -0.3687 -0.1438
34831W        W35695  19.133  16.863  17.591 -0.1982 -0.0414 -0.1540
34832W        W35696  23.030   2.626  10.200  0.4107  0.0087 -0.1213
34833W        W35697   4.791   5.664  29.055 -0.0448  0.1456 -0.0215
34834W        W35698  23.276  10.011  21.180 -0.0350  0.3135  0.1867
34835W        W35699  25.214  26.799   7.697  0.2256 -0.0844  0.1755
34836W        W35700  21.621   9.723  26.197  0.0631 -0.1804  0.0422
34837W        W35701  27.916  27.312  19.845  0.0219 -0.0668  0.2203
34838W        W35702  23.302  12.078   6.101  0.3715  0.0193 -0.1862
34839W        W35703  16.094  12.491  23.505  0.0269  0.2387 -0.0461
34840W        W35704  26.472   6.366   5.647 -0.1252 -0.0359  0.0122
34841W        W35705   2.205  14.719   7.158 -0.3792  0.1071  0.0689
34842W        W35706   2.234   8.968  19.680 -0.1329 -0.4087  0.1838
34843W        W35707   4.751  12.943  21.624 -0.1916 -0.4085  0.0496
34844W        W35708  23.679  11.527  25.645  0.0816 -0.3361 -0.0285
34845W        W35709   8.598  19.878  13.884  0.3566  0.2515 -0.0916
34846W        W35710   2.906   4.404  25.762  0.0476  0.1528  0.1402
34847W        W35711  21.690   5.884  23.142 -0.0369  0.3241  0.1025
34848W        W35712  18.717  28.220  18.404  0.0370 -0.0484 -0.2312
34849W        W35713  21.952  11.625   4.376  0.0468  0.1374 -0.3814
34850W        W35714   4.514  18.854  24.163  0.3310  0.2013 -0.2378
34851W        W35715  11.425  21.757   3.027 -0.0538 -0.1842  0.0265
34852W        W35716   1.674  28.063   9.372 -0.3683 -0.0859 -0.0153
34853W        W35717   4.049  24.192   1.851 -0.0711 -0.2222 -0.0356
34854W        W35718  24.618  15.819   2.805  0.0940 -0.1752  0.1436
34855W        W35719  25.045  22.678  18.064 -0.0884 -0.1185 -0.0530
34856W        W35720   2.048  11.163  22.104  0.2789 -0.1260 -0.0583
34857W        W35721   3.034   7.147  10.011 -0.3659 -0.0870  0.0783
34858W        W35722  10.860   5.195  22.735  0.0538 -0.0072 -0.0362
34859W        W35723  23.617   2.861   6.945 -0.1529 -0.2084  0.2205
34860W        W35724   4.566  12.813   2.610 -0.0284  0.0233 -0.1092
34861W        W35725   7.757   6.432  26.533 -0.2007 -0.1252 -0.2276
34862W        W35726  16.331  22.275   4.720 -0.2379  0.0657  0.2480
34863W        W35727   8.017  16.586  16.985 -0.2623 -0.0725  0.0304
34864W        W35728  25.904   3.023  21.543 -0.1275  0.2116  0.0881
34865W        W35729  15.181   5.088  13.241  0.0538 -0.2019 -0.1613
34866W        W35730   6.823   1.701   8.336 -0.1809  0.2727  0.2326
34867W        W35731   6.661  10.049   5.127 -0.3994 -0.1259  0.0482
34868W        W35732   9.937  12.288   5.349 -0.3135  0.0103  0.3849
34869W        W35733  15.808  26.410   8.838  0.0753 -0.0656  0.2128
34870W        W35734   2.424   9.455   0.367  0.2433 -0.0369 -0.0831
34871W        W35735  20.739  16.960  26.844 -0.1987  0.3329  0.1470
34872W        W35736  19.441  25.890  11.730 -0.2921 -0.0208  0.3328
34873W        W35737   6.082  20.734   2.125  0.2533 -0.1888 -0.1250
34874W        W35738  20.611  14.713   2.603 -0.0910 -0.2055 -0.0771
34875W        W35739  26.955   5.993  21.417  0.2044 -0.1519 -0.0366
34876W        W35740  11.964  11.164  22.353 -0.0669 -0.2311  0.1325
34877W        W35741  25.007   5.507  20.402 -0.2387 -0.0665 -0.0564
34878W        W35742  14.326   7.302  24.525 -0.3130  0.0710  0.0226
34879W        W35743   8.894  21.363  24.753  0.2408 -0.1454  0.2094
34880W        W35744  19.952  10.939  11.577  0.4004  0.3522  0.1151
34881W        W35745   2.981  26.920   6.528  0.1514  0.3068  0.2100
34882W        W35746   0.134  18.911  22.899  0.1273  0.2229 -0.1652
34883W        W35747   9.468  22.424  12.954 -0.0768 -0.1977 -0.1248
34884W        W35748  10.051  15.130  15.917 -0.0099  0.2428  0.0787
34885W        W35749  19.040  19.003   6.211  0.2035  0.1390 -0.2187
34886W        W35750   7.219  26.259  15.054 -0.0577  0.1546 -0.0326
34887W        W35751  23.573  10.212  12.840 -0.3966 -0.0061  0.0852
34888W        W35752   6.141  12.261  12.802  0.1261  0.1507  0.3461
34889W        W35753  12.798  18.637   2.798 -0.0535 -0.2480  0.0047
34890W        W35754   5.799  27.630   5.651  0.1841 -0.1735 -0.3859
34891W        W35755   2.950  24.488   1.089 -0.3652 -0.1077  0.1075
34892W        W35756   5.550   3.136  16.863  0.1263 -0.0847 -0.0956
34893W        W35757  19.793  13.546  18.450  0.1922 -0.2983  0.3971
34894W        W35758   6.680  25.725   0.580 -0.0735 -0.1755  0.1177
34895W        W35759  29.013   3.538   6.176  0.0507  0.1297  0.0002
34896W        W35760   9.961  14.329  18.054  0.3670  0.0657 -0.0500
34897W        W35761  12.862   4.553  19.797  0.1595  0.0122 -0.0180
34898W        W35762  13.616  16.744  25.771  0.1444  0.0950  0.2688
34899W        W35763  10.160  12.001  27.508  0.3118  0.0815 -0.0560
34900W        W35764  25.507   5.845   8.583  0.0993 -0.0356  0.0638
34901W        W35765  22.812   9.146  26.532  0.0919 -0.0263 -0.2694
34902W        W35766  25.058   7.180   2.373 -0.0958 -0.0589 -0.1405
34903W        W35767  27.231   5.561  15.428 -0.2288 -0.1916 -0.1456
34904W        W35768  14.132  21.515   3.686 -0.2949 -0.1492  0.0878
34905W        W35769  19.636  13.407  21.512  0.0256 -0.1514 -0.0670
34906W        W35770   3.886   4.876  18.234  0.3076 -0.0037  0.3334
34907W        W35771  22.804   1.210   2.370 -0.0682  0.0741  0.1838
34908W        W35772   2.465  11.948   6.006 -0.1335 -0.1085 -0.1491
34909W        W35773  21.633  12.010  23.798  0.0772 -0.2625  0.1148
34910W        W35774  19.277  11.536  11.077 -0.2239  0.2779 -0.0236
34911W        W35775  27.191   2.133   7.506  0.3022  0.2856 -0.3195
34912W        W35776   1.232  24.800  12.607  0.1132  0.1251 -0.2464
34913W        W35777   6.950   5.114  25.888  0.2662 -0.0446 -0.0351
34914W        W35778  13.817   7.287  24.357 -0.2930  0.4233 -0.1290
34915W        W35779   3.095   3.259   4.224 -0.0970 -0.0719 -0.3458
34916W        W35780  21.251  21.605  25.374 -0.0854 -0.2657 -0.0176
34917W        W35781  20.199   3.940   5.454  0.0577  0.4690 -0.1838
34918W        W35782  16.903  17.053   9.270  0.0407  0.0798  0.0782
34919W        W35783  28.926   2.279  15.483 -0.0604  0.2875  0.0773
34920W        W35784  17.037  16.530  16.969  0.1870 -0.3567 -0.1824
34921W        W35785   7.732  12.281  16.948  0.1509  0.0921 -0.0571
34922W        W35786   3.373  18.353  12.852  0.1569  0.0948 -0.1651
34923W        W35787   2.504  14.181   1.249 -0.1188  0.5069  0.4015
34924W        W35788  27.092   9.304  21.527 -0.2530 -0.0858 -0.0756
34925W        W35789  21.466   5.642  15.423 -0.0158  0.0115 -0.0971
34926W        W35790   5.299  28.809   4.584 -0.1638  0.1618  0.2374
34927W        W35791  19.838  15.999  16.713 -0.1681  0.2175  0.0866
34928W        W35792  13.304   8.279  23.200  0.0645  0.0563 -0.2456
34929W        W35793  26.779  17.733   7.229  0.2547 -0.0243 -0.2745
34930W        W35794   2.177   4.288  11.941  0.2942  0.0652  0.2089
34931W        W35795  18.618  13.926  19.891  0.0272 -0.1487  0.0815
34932W        W35796   4.230  23.649   9.092 -0.0833 -0.1386  0.0515
34933W        W35797  28.496   1.943  24.721 -0.1471  0.0584  0.1519
34934W        W35798  12.239  19.545  26.962 -0.1682 -0.0649  0.0749
34935W        W35799  27.318   3.091  26.725 -0.1386  0.0360  0.2308
34936W        W35800  17.697  25.259  15.194 -0.0433 -0.1798  0.4567
34937W        W35801  24.468  11.857  18.954 -0.1067  0.0246  0.1169
34938W        W35802  10.239  27.490  16.036 -0.0660 -0.1936  0.1683
34939W        W35803  19.642  10.074  12.148  0.0405 -0.1733  0.0236
34940W        W35804   4.280   3.500   2.828  0.3233  0.1124 -0.1465
34941W        W35805  22.792  14.895  25.943  0.2077 -0.1491 -0.0973
34942W        W35806  25.983  10.466   7.320  0.1746  0.4940  0.2332
34943W        W35807  27.453   7.969  24.842  0.0332 -0.0369 -0.3020
34944W        W35808  16.201   5.739   7.570 -0.0449  0.3843 -0.0713
34945W        W35809  25.599   4.977  18.481 -0.0365  0.0377  0.0103
34946W        W35810  27.732  21.945   1.021 -0.0250  0.1469  0.1435
34947W        W35811  21.632   7.857   8.076  0.0579  0.0008 -0.1269
34948W        W35812  24.655  13.303  21.009  0.1805 -0.0916 -0.2754
34949W        W35813  26.140   2.943  15.566  0.2495  0.1605  0.1246
34950W        W35814  23.863  17.160  10.450  0.0347  0.1407  0.3824
34951W        W35815  11.718  18.953   8.814 -0.0178  0.0789  0.0540
34952W        W35816  19.285   7.137  22.670 -0.1829  0.2189 -0.3329
34953W        W35817  18.920  18.116  12.171 -0.0357  0.2311 -0.3280
34954W        W35818  18.930  19.239   0.370 -0.3450  0.3764  0.0815
34955W        W35819   5.634   1.922  23.882 -0.0221  0.1419  0.2242
34956W        W35820  11.774   7.677   4.125 -0.1480  0.5226 -0.2332
34957W        W35821  10.312  23.303  19.342  0.0641  0.0197 -0.0765
34958W        W35822   7.305   6.697   7.276  0.4756  0.2981 -0.2640
34959W        W35823  19.221   1.664  11.716  0.5204 -0.2279 -0.1197
34960W        W35824   2.520   9.611  15.323  0.0131  0.1840  0.2077
34961W        W35825  28.378  28.720  19.453 -0.0051 -0.0604  0.1568
34962W        W35826  15.985  23.935  13.285 -0.0527  0.2329 -0.0188
34963W        W35827  20.583   6.477   4.794  0.0704 -0.1136  0.3602
34964W        W35828  21.708  16.171  14.361  0.3051  0.3801 -0.1239
34965W        W35829   3.598  13.341  21.302 -0.0781  0.2235 -0.1274
34966W        W35830   7.412   0.439   5.336  0.4710 -0.1381  0.1946
34967W        W35831   6.213   0.053   7.595  0.2236  0.1334 -0.1823
34968W        W35832  21.996  13.656   8.474  0.2269 -0.2461  0.1361
34969W        W35833  20.958  23.675   6.238 -0.1185  0.0011 -0.0373
34970W        W35834  26.031   3.820   3.576 -0.3346  0.1080  0.0195
34971W        W35835  23.010   6.225  26.656  0.2377 -0.0046  0.0425
34972W        W35836  17.887  10.498  22.520  0.0972 -0.0397  0.0828
34973W        W35837   9.138  14.962   4.175 -0.0167 -0.0072 -0.2326
34974W        W35838  15.032   7.728  13.476 -0.2838 -0.1999 -0.2161
34975W        W35839  26.132  22.410   2.897  0.1490  0.3004  0.0701
34976W        W35840   8.657  21.732  10.845 -0.1929 -0.0155  0.3614
34977W        W35841  25.939  28.487  10.145 -0.0179 -0.0658 -0.1852
34978W        W35842  22.133  26.868   5.649  0.1725  0.2290 -0.1646
34979W        W35843  28.573   4.475  26.986  0.2870 -0.0040 -0.2415
34980W        W35844   3.333   4.855   3.435  0.0652  0.0207  0.0361
34981W        W35845  24.717  28.222  10.652 -0.0878  0.0793 -0.0316
34982W        W35846  13.076  26.426  11.342  0.1407  0.3177  0.1041
34983W        W35847   7.194  11.471   4.388 -0.1638 -0.0222 -0.0386
34984W        W35848   7.220  19.552  26.482 -0.1246  0.3390 -0.1540
34985W        W35849   4.974   8.127   7.133  0.0761  0.1482  0.1335
34986W        W35850   7.673   8.976  20.841  0.2083 -0.1609  0.0198
34987W        W35851  21.300   6.487   3.544 -0.1852  0.0888 -0.1540
34988W        W35852  20.626  15.947   9.015 -0.0626  0.0595  0.1398
34989W        W35853   5.249  14.853   2.649 -0.0032 -0.0403  0.1593
34990W        W35854   6.483  25.591  17.795 -0.0670 -0.0309  0.1550
34991W        W35855  27.712  15.783  10.222  0.0824  0.1648  0.0167
34992W        W35856  15.398  17.351  28.281 -0.1451  0.0138  0.2115
34993W        W35857  27.899  20.082  24.397 -0.0643  0.1865 -0.1807
34994W        W35858  21.322   1.661   3.131 -0.1291  0.2216 -0.1341
34995W        W35859   9.148  11.757   5.037  0.0709  0.3313  0.1087
34996W        W35860  12.323   4.475  14.226 -0.0487  0.0715 -0.2962
34997W        W35861  20.766   4.481   0.155  0.1067 -0.3428 -0.2867
34998W        W35862   7.309  24.549   4.888 -0.4162 -0.3739 -0.5132
34999W        W35863  13.959  13.813   0.121 -0.0228  0.1823  0.1666
35000W        W35864   2.642   9.601   4.312 -0.3092  0.1846  0.5593
35001W        W35865   5.434  18.880  10.227 -0.0198 -0.0192 -0.1849
35002W        W35866  15.451  15.683   1.059 -0.1321  0.1801 -0.1335
35003W        W35867   2.903  22.568   0.583  0.2005  0.0191  0.1421
35004W        W35868  24.789   0.083  26.103  0.0475  0.3028  0.2791
35005W        W35869  18.530  13.082   7.764 -0.1420 -0.0012  0.2055
35006W        W35870  12.128  18.103  26.229 -0.2196  0.0479 -0.0125
35007W        W35871  24.646  11.250   1.633  0.1935 -0.0189  0.0892
35008W        W35872  26.001   4.241  12.267  0.1019  0.2948  0.2204
35009W        W35873  23.918  27.043   8.639 -0.3096 -0.0019 -0.0938
35010W        W35874  14.588   1.194   8.744  0.0858  0.3281 -0.1646
35011W        W35875  16.071  23.507   5.169 -0.0471  0.2358 -0.0105
35012W        W35876   5.725  25.412  11.390 -0.0403  0.0001  0.0720
35013W        W35877  17.481  15.331   6.443  0.1590  0.0817  0.1310
35014W        W35878  12.575  13.331   9.243  0.1316 -0.2802  0.1056
35015W        W35879  21.192  10.156  18.217 -0.1027 -0.0605  0.2658
35016W        W35880  29.139  17.613  25.342 -0.2221  0.1182 -0.1181
35017W        W35881   0.851   4.103  11.599  0.4404  0.2945 -0.1491
35018W        W35882  18.357   1.823  12.213  0.1792  0.2182  0.0838
35019W        W35883   8.818  19.766  24.526  0.1791 -0.0421  0.0676
35020W        W35884  27.139  16.106  28.556 -0.1449 -0.2833 -0.0319
35021W        W35885  19.173  13.712  23.412 -0.0125 -0.0412 -0.2536
35022W        W35886  13.041  27.427  15.428 -0.0832 -0.0195 -0.0246
35023W        W35887   9.839  18.423  20.101 -0.5756  0.1734 -0.1885
35024W        W35888   9.549  21.952  18.607 -0.1670 -0.2225 -0.1022
35025W        W35889  26.717  20.826  19.699 -0.2347 -0.0182  0.2293
35026W        W35890   5.056   6.637  21.275 -0.3101  0.1281  0.0455
35027W        W35891  27.500  25.852   6.643  0.3123 -0.1743 -0.0978
35028W        W35892  24.304  15.494  14.860  0.1901 -0.1166 -0.0273
35029W        W35893  15.332  14.384  10.270 -0.1512 -0.0812 -0.0312
35030W        W35894  11.588  25.766   8.208 -0.2669  0.1152  0.2150
35031W        W35895  18.194   5.321  27.757  0.0946 -0.1932  0.0075
35032W        W35896  13.911  16.366   8.394 -0.1428 -0.2441 -0.2576
35033W        W35897   8.174  14.823   0.514  0.0144  0.0513 -0.3417
35034W        W35898  15.199  24.439  18.907  0.2928  0.0468 -0.1704
35035W        W35899  18.240  14.615   6.813  0.1598 -0.2117 -0.1298
35036W        W35900  15.675   4.904  18.854 -0.3920  0.1980 -0.1853
35037W        W35901   1.251  12.198  16.910 -0.0971 -0.1548 -0.0532
35038W        W35902   3.347  26.481  11.351 -0.2908  0.2237  0.1350
35039W        W35903  16.244  19.480   0.716  0.2891 -0.3323 -0.1804
35040W        W35904  19.670   6.232  14.293 -0.2838 -0.1782  0.0736
35041W        W35905   1.170   3.108  28.159  0.1566 -0.0177 -0.1734
35042W        W35906  28.149   8.010  14.549  0.1784  0.1753  0.3341
35043W        W35907   7.648  16.776  16.633  0.0298 -0.1483 -0.0016
35044W        W35908  22.791   3.760   8.342  0.0301 -0.3023  0.3229
35045W        W35909   6.851  27.215   0.903 -0.1224  0.0791  0.1932
35046W        W35910  17.772  19.236   6.359  0.1666 -0.0425  0.1778
35047W        W35911  26.397  20.050  26.504  0.1784  0.3377  0.0078
35048W        W35912   6.274  10.361  14.723  0.0754  0.1513  0.0708
35049W        W35913  21.329   7.541  21.431 -0.0314  0.1333  0.2330
35050W        W35914   6.370  10.524  23.142  0.2046 -0.1364  0.0955
35051W        W35915  18.170   0.233  20.956  0.0593  0.0577 -0.0616
35052W        W35916  16.470  28.522  15.934 -0.0381 -0.0044 -0.0818
35053W        W35917  12.595   8.897   4.456  0.2188  0.1219 -0.3836
35054W        W35918  15.344   4.753   7.994  0.0269  0.2415 -0.1517
35055W        W35919   7.749  22.944  25.013 -0.0779  0.3211  0.1600
35056W        W35920  13.228   8.855   5.286 -0.2967  0.2197  0.0609
35057W        W35921  10.026  11.453  13.754 -0.0653  0.0733  0.1947
35058W        W35922  11.943  16.290  24.203 -0.3103 -0.3884  0.1016
35059W        W35923   0.562   0.381  12.187 -0.2381 -0.1362 -0.0793
35060W        W35924   0.793  19.296   6.172  0.1268  0.3099 -0.1098
35061W        W35925  16.658   1.676   9.691 -0.0040 -0.0877  0.1987
35062W        W35926  19.383   6.696  12.411  0.0807 -0.0618  0.2711
35063W        W35927  13.037   2.614   7.176 -0.1884  0.0433 -0.0708
35064W        W35928  13.060  13.830  20.201 -0.2504  0.1084  0.2437
35065W        W35929  19.036   9.320   1.190  0.4323  0.1733  0.0780
35066W        W35930  25.720   9.776  10.006 -0.2523 -0.0540  0.0343
35067W        W35931  27.108  23.341  26.169 -0.0562 -0.1367  0.0260
35068W        W35932  14.986  13.974  24.227 -0.2757  0.0882  0.2446
35069W        W35933   3.296  25.951  21.448 -0.0828 -0.0247  0.0838
35070W        W35934  21.719  17.688  13.919  0.0437  0.0187 -0.2178
35071W        W35935  16.824  19.624   7.490 -0.1222 -0.1008  0.0545
35072W        W35936  17.690  13.841  11.123 -0.0395  0.0174  0.1019
35073W        W35937  27.883  15.550   2.835 -0.2602 -0.1700  0.1354
35074W        W35938  12.449   6.195   7.010 -0.0320 -0.0992 -0.2609
35075W        W35939  21.506   2.888  10.636 -0.1654  0.1829  0.2869
35076W        W35940  15.966  12.385  13.361 -0.1339 -0.0198  0.0498
35077W        W35941  24.796  10.506   3.852 -0.1407 -0.2087  0.1155
35078W        W35942  21.197   1.594  23.728 -0.1565 -0.2580  0.2653
35079W        W35943   6.342  15.942   2.742 -0.0358  0.0364 -0.1668
35080W        W35944  12.069  28.709   0.805 -0.3070 -0.0098  0.2113
35081W        W35945  26.959  16.754  25.290  0.2294  0.1534 -0.1501
35082W        W35946  15.090  16.402   2.719 -0.2651  0.1463 -0.2271
35083W        W35947  18.504   5.066  27.307 -0.3805 -0.1814 -0.2422
35084W        W35948   8.927   9.919   2.232 -0.1154 -0.2351  0.0152
35085W        W35949  28.414  13.300   9.772  0.0124 -0.1754  0.2472
35086W        W35950   6.204   2.862   2.913 -0.1155  0.0625  0.0635
35087W        W35951  22.804  12.669   5.594 -0.3267  0.2122 -0.0349
35088W        W35952  14.465  14.034  13.575  0.1431  0.1189  0.2208
35089W        W35953   3.285   5.210   5.910 -0.0062 -0.0239  0.0325
35090W        W35954  10.237   8.763   4.474 -0.1355  0.1097  0.2190
35091W        W35955  26.809  10.288  10.868 -0.3715  0.1072  0.0132
35092W        W35956  20.578  17.173   6.696  0.1072 -0.2551  0.0236
35093W        W35957   1.026  10.899  25.206 -0.0492  0.1313  0.0331
35094W        W35958   8.420  15.233   0.400  0.2272 -0.1920  0.2590
35095W        W35959   0.821   8.266   3.797  0.0008  0.1028  0.1620
35096W        W35960   2.544   1.687   9.734 -0.0004  0.3361 -0.0397
35097W        W35961   0.259  23.427  15.519  0.0175  0.0832 -0.3421
35098W        W35962  21.994  26.605  15.665  0.0693 -0.0639  0.0314
35099W        W35963   5.024  22.962   9.973 -0.2167 -0.0308 -0.1076
35100W        W35964  26.187   3.380  14.550  0.0448  0.2011 -0.0117
35101W        W35965  17.450   7.000   9.160 -0.0449 -0.2264 -0.0792
35102W        W35966  19.503   1.374  16.323  0.0766 -0.1271 -0.1277
35103W        W35967  12.013   7.188  12.105  0.1324  0.2982  0.1648
35104W        W35968  14.952  12.660  17.525 -0.0896 -0.1110  0.0461
35105W        W35969   3.385  21.217   6.048  0.4678  0.0467  0.2267
35106W        W35970   2.733  26.369  16.024  0.2339 -0.0869 -0.0454
35107W        W35971  23.130   1.363  26.032  0.1264 -0.1664 -0.0782
35108W        W35972   4.466   9.989  16.538 -0.1428  0.1840 -0.0144
35109W        W35973  13.409   4.263  19.712  0.0704  0.1084  0.2538
35110W        W35974  13.737  18.791  13.802  0.0413  0.0257  0.5182
35111W        W35975   9.785  27.709  11.192 -0.0890 -0.0089  0.0705
35112W        W35976  14.769  12.527  15.377  0.1013 -0.3010  0.3795
35113W        W35977  21.067   9.415   8.241  0.3987 -0.0992  0.1437
35114W        W35978   0.635   7.457   2.262 -0.1511 -0.3729  0.0462
35115W        W35979  18.575  24.074   1.654 -0.1047  0.1392 -0.0989
35116W        W35980  22.443  11.671   3.605  0.2346  0.0141  0.0130
35117W        W35981  27.312  25.134  16.880  0.1912  0.2233  0.1532
35118W        W35982  13.602  28.056  11.722  0.1707  0.1585 -0.0297
35119W        W35983  17.393   6.953   9.696 -0.1613  0.2204  0.0410
35120W        W35984   9.144  12.109  11.778 -0.2607  0.0594 -0.2027
35121W        W35985  10.230  17.999  18.293 -0.0795  0.4956  0.0469
35122W        W35986  23.861  12.167  18.570 -0.0508  0.0364 -0.1104
35123W        W35987  11.111  24.512   6.414 -0.3576  0.1359 -0.1048
35124W        W35988  29.059   8.586  12.975 -0.4017 -0.0403 -0.1288
35125W        W35989  18.257  10.892  15.438  0.1189  0.0179  0.2725
35126W        W35990  28.953  15.841   7.070  0.0937 -0.1832 -0.1205
35127W        W35991  10.087   3.904   3.681 -0.1687  0.2089 -0.0654
35128W        W35992   9.847   1.165   2.994 -0.3014 -0.1699 -0.3418
35129W        W35993  24.133   3.954   0.514 -0.2412 -0.1698 -0.1908
35130W        W35994  27.742  22.302  11.363 -0.1640 -0.3737  0.1245
35131W        W35995  22.976  22.684  23.001  0.1801  0.0717 -0.3078
35132W        W35996  22.748   2.769   8.367  0.0883  0.0733  0.0344
35133W        W35997  24.397  26.069   3.084  0.3725 -0.1161  0.2464
35134W        W35998  23.753   1.955   0.901 -0.0522 -0.0271 -0.0843
35135W        W35999  12.357   8.545   9.293 -0.3177  0.2223  0.0313
35136W        W36000   0.551  26.164  20.275  0.1217  0.1751 -0.0588
35137W        W36001  28.670   6.611  27.451  0.0809  0.5596  0.0789
35138W        W36002  15.687  10.875   0.527  0.3622  0.1621  0.2156
35139W        W36003  13.757   8.952   3.957  0.0650 -0.0168 -0.1809
35140W        W36004  24.547  16.791  10.831 -0.1345 -0.3864 -0.1920
35141W        W36005  25.081  16.260  10.253 -0.0597  0.0577  0.0312
35142W        W36006  14.094  28.448   7.572  0.1381 -0.0471 -0.3814
35143W        W36007   2.849  11.083  24.008 -0.1065 -0.1937 -0.0841
35144W        W36008   1.629   1.371   8.818 -0.0398 -0.0362  0.0725
35145W        W36009  18.341  19.378   5.901  0.0200 -0.1854 -0.0593
35146W        W36010   1.488  14.753  28.296  0.1196 -0.2059  0.1139
35147W        W36011  19.645  13.076  15.004 -0.0907  0.0158  0.1319
35148W        W36012   7.836   8.857   2.362 -0.1426  0.2073 -0.0293
35149W        W36013   2.214  14.058   5.928 -0.0554  0.0438 -0.0256
35150W        W36014   8.320  27.976  28.670 -0.2015  0.0362 -0.0463
35151W        W36015  19.265  12.168  20.111 -0.1785 -0.4334  0.3134
35152W        W36016   9.781  11.926  11.541  0.1370  0.1470  0.1270
35153W        W36017  16.180  14.560  10.533 -0.0274  0.2417 -0.1418
35154W        W36018   7.312  26.682  14.814 -0.2029  0.2438  0.0225
35155W        W36019  13.193   0.249  28.929  0.3086 -0.1507  0.1673
35156W        W36020  22.764   0.807  20.657 -0.1690  0.1274 -0.0171
35157W        W36021   4.167   9.217   2.159 -0.1772  0.1842  0.1572
35158W        W36022  21.078  14.542   8.812  0.0846  0.0755 -0.0730
35159W        W36023  10.309   7.501  13.636 -0.1812 -0.2129 -0.0517
35160W        W36024   5.255  19.446   9.409 -0.1004 -0.0203  0.1775
35161W        W36025  27.625  23.424  12.672  0.0358 -0.0719  0.0390
35162W        W36026  12.681   9.130  24.346 -0.2260  0.0929  0.0107
35163W        W36027   3.115   6.463  14.977 -0.1660  0.0525  0.0584
35164W        W36028  17.823  24.924  12.990  0.1509  0.1738  0.3231
35165W        W36029  17.280  12.096  12.904 -0.2208  0.2479 -0.1896
35166W        W36030  26.115  20.563  21.831  0.0888 -0.2672 -0.1570
35167W        W36031   7.466   8.364  24.651 -0.0387 -0.0551 -0.1435
35168W        W36032  29.047  11.045  14.858  0.0124 -0.0400  0.1667
35169W        W36033   1.000  19.062   3.024  0.3909 -0.3323  0.1928
35170W        W36034   6.297  22.175  20.751  0.1559  0.2043 -0.1213
35171W        W36035  13.864   0.736  13.501  0.3421 -0.1058  0.2802
35172W        W36036   6.299   2.849   8.686  0.1037 -0.0995 -0.0190
35173W        W36037   3.483  18.843   4.480  0.0301 -0.1216 -0.3081
35174W        W36038   1.039  25.596  27.080 -0.0349 -0.0647  0.0304
35175W        W36039   9.590  19.315   9.178 -0.1390 -0.0491 -0.0483
35176W        W36040  20.105   9.780  10.202 -0.0504 -0.0617  0.0429
35177W        W36041  15.552  16.786  20.149 -0.2552  0.2001 -0.0888
35178W        W36042   5.983   9.790   6.730 -0.0300 -0.0902 -0.1580
35179W        W36043   1.764  28.202   6.897 -0.3215 -0.3764  0.1312
35180W        W36044   8.127  20.907  20.963  0.2576 -0.0097 -0.1360
35181W        W36045  18.614  14.145  27.718 -0.1194 -0.1313 -0.0793
35182W        W36046   8.860  16.228   8.796  0.0457  0.3552  0.1007
35183W        W36047   5.770   3.712  19.309  0.1188  0.1424  0.0224
35184W        W36048  11.861  12.132  11.989 -0.2705  0.0589 -0.3093
35185W        W36049  20.714   9.259   9.205 -0.2291  0.0243  0.1565
35186W        W36050  17.365   2.398  13.801 -0.2671  0.1424 -0.0550
35187W        W36051  14.854   1.154   3.228  0.0204  0.4397 -0.2494
35188W        W36052   1.081   7.488  26.250 -0.1255  0.2030 -0.2013
35189W        W36053  17.175  24.938  12.249  0.0402  0.0013 -0.1599
35190W        W36054   4.225  16.111   2.448  0.3166  0.0389 -0.0236
35191W        W36055   1.164  11.648   1.236 -0.0355 -0.0617  0.2487
35192W        W36056  27.514   8.562  10.215 -0.3350  0.0417 -0.1056
35193W        W36057  12.765  25.676  27.631  0.0065 -0.1207  0.1547
35194W        W36058  10.305  13.268   2.265 -0.1003 -0.2103 -0.0690
35195W        W36059   0.326  24.690  11.247  0.2226 -0.0211  0.0250
35196W        W36060  11.853  15.532   1.688  0.0145 -0.3255  0.0707
35197W        W36061   1.793  13.371  26.884 -0.0623  0.0361  0.0507
35198W        W36062  22.535  23.024  18.374  0.1430  0.0174  0.0634
35199W        W36063  27.130  14.703  13.756 -0.1160 -0.0571  0.1860
35200W        W36064   8.278  19.536   6.927  0.0456  0.1076  0.2788
35201W        W36065  18.368  18.549  24.976 -0.2344  0.0532  0.0483
35202W        W36066  13.224   0.944  14.390  0.0632 -0.3673  0.2012
35203W        W36067  19.692   8.146  12.894 -0.0285 -0.2800  0.0213
35204W        W36068  21.926   6.430  23.957 -0.1805  0.2097  0.2355
35205W        W36069  14.084   3.455   5.344  0.3395 -0.0676  0.3374
35206W        W36070  26.486  26.752   7.692 -0.0271 -0.1306 -0.2329
35207W        W36071   3.525  22.071  15.687 -0.2896 -0.0900 -0.1866
35208W        W36072   8.047  15.239  21.407 -0.0543  0.1030  0.0637
35209W        W36073  11.846   1.350   5.274  0.0651 -0.0360  0.2546
35210W        W36074  18.552  25.261  24.623  0.1416  0.2067 -0.0831
35211W        W36075  11.814   8.819  22.849 -0.1688 -0.0460  0.0940
35212W        W36076  22.631  13.838   6.313 -0.0445  0.0130 -0.1454
35213W        W36077  17.615  21.048   5.105  0.1835  0.0445  0.0590
35214W        W36078  13.546  27.246  12.785 -0.2904 -0.0233  0.0162
35215W        W36079   7.045   9.601   5.166  0.1475  0.0283 -0.1346
35216W        W36080   4.315  13.728   3.006 -0.1836  0.0472 -0.0816
35217W        W36081  12.061   3.395  24.042  0.1928  0.1520  0.0720
35218W        W36082  24.178  28.717  22.353 -0.1329  0.0736  0.1168
35219W        W36083  25.610  16.144   4.983  0.0518  0.0274 -0.0139
35220W        W36084  18.014   3.118  19.793 -0.0100 -0.1439  0.1756
35221W        W36085  26.093  19.026  13.352 -0.3721 -0.1278 -0.1835
35222W        W36086  20.856   4.632  25.146 -0.3005  0.1155 -0.0557
35223W        W36087  16.669  11.110   9.387 -0.1214 -0.1838  0.1114
35224W        W36088  18.223  19.468  26.598 -0.0239 -0.3688  0.1802
35225W        W36089  14.425   0.543  26.855  0.0911 -0.2186 -0.2628
35226W        W36090   7.311  25.068  14.792 -0.4364  0.0302  0.0495
35227W        W36091  19.289  10.217  14.028 -0.0593 -0.2505 -0.3378
35228W        W36092  28.465   4.225   3.890 -0.4818  0.2338 -0.4091
35229W        W36093  18.894  10.089   8.437 -0.1252 -0.1174 -0.0034
35230W        W36094  11.200  10.614  15.247  0.0479 -0.3520 -0.0980
35231W        W36095  16.491   9.473  11.282 -0.0730 -0.1532 -0.1074
35232W        W36096  13.844  22.367  23.536  0.2480  0.2253  0.2165
35233W        W36097  28.492   8.250  23.900  0.0240 -0.0269 -0.2187
35234W        W36098  12.856  10.461   6.416 -0.0806  0.0001 -0.3626
35235W        W36099  23.677  21.696  21.975 -0.3620  0.2338 -0.2170
35236W        W36100  12.689   3.488  14.059 -0.0373  0.3145 -0.1310
35237W        W36101  24.814  25.088  12.563  0.1603 -0.5338  0.2903
35238W        W36102  11.730   5.314  19.613  0.1825 -0.1763  0.1202
35239W        W36103  25.159  22.443  24.007  0.2350  0.0822  0.0206
35240W        W36104   4.073   6.132  27.224  0.0615 -0.0031  0.0680
35241W        W36105  18.837  13.124  16.028 -0.2443  0.1987 -0.0453
35242W        W36106  17.730  18.246  19.727 -0.1965  0.1763 -0.1174
35243W        W36107  17.260  20.475   6.740 -0.0093 -0.1110  0.4094
35244W        W36108   2.678  24.258  22.930  0.2924  0.0859  0.0226
35245W        W36109   8.564  16.722  22.924 -0.1962  0.1093  0.1071
35246W        W36110  12.218   1.167   0.760 -0.0802 -0.0412 -0.0086
35247W        W36111  12.116  25.251   3.799 -0.1666  0.0926 -0.1240
35248W        W36112   6.262   1.470  25.636  0.1206  0.3248  0.2027
35249W        W36113  22.286   8.590  14.859 -0.0109 -0.0599  0.0800
35250W        W36114  11.744  27.837  22.137 -0.3348  0.1284  0.0578
35251W        W36115  22.293   5.894   5.477 -0.0855  0.2593  0.1267
35252W        W36116  16.894  18.293   9.965 -0.3649  0.1094  0.1512
35253W        W36117  22.007  20.546  22.248  0.0959 -0.0959  0.0478
35254W        W36118  25.010   5.840  22.425 -0.1932 -0.2924  0.2321
35255W        W36119   5.984  10.212  11.954  0.0751  0.1070 -0.1996
35256W        W36120  26.629  10.804  16.821 -0.3504  0.1508  0.0080
35257W        W36121  17.675  24.650  15.235  0.0206 -0.0470  0.0235
35258W        W36122   5.917   0.530  26.266 -0.1150 -0.1627 -0.0532
35259W        W36123  21.826  14.264  16.765  0.1581  0.1256 -0.0056
35260W        W36124  11.435  17.667   3.614 -0.1009 -0.2444 -0.0427
35261W        W36125   4.670  24.866   5.970  0.2024 -0.1226 -0.2495
35262W        W36126  25.909  23.423   3.621 -0.0688  0.0556 -0.2984
35263W        W36127   1.187   3.543  22.523 -0.2594  0.0177 -0.1554
35264W        W36128  12.270  13.904  26.359  0.1404 -0.1964  0.0071
35265W        W36129   0.797   3.798  25.734 -0.4104 -0.0341 -0.0320
35266W        W36130  10.477   7.816  28.547 -0.0364  0.1602 -0.0219
35267W        W36131  13.202  12.508  27.613  0.3618 -0.3152  0.0713
35268W        W36132  19.794   6.128  21.329 -0.0599 -0.0402 -0.2379
35269W        W36133  19.786   0.571   2.439 -0.1042 -0.0976 -0.5259
35270W        W36134   1.167  26.755  11.518  0.2477 -0.3272 -0.0436
35271W        W36135  26.572   3.513   3.919 -0.0682  0.0213  0.0412
35272W        W36136  29.135  11.699   4.190 -0.3961  0.1145  0.1156
35273W        W36137  22.955   7.215  21.527  0.1173  0.0029 -0.2582
35274W        W36138  13.551  14.498   0.362  0.1616  0.1967 -0.0467
35275W        W36139  14.228  11.666   1.437 -0.1692 -0.0784  0.1031
35276W        W36140  23.654  16.922  11.423 -0.1086 -0.1166 -0.0032
35277W        W36141  27.275   4.859  11.534 -0.3593 -0.0344  0.2482
35278W        W36142   3.594   2.733   6.172  0.1748  0.0944 -0.1238
35279W        W36143  26.721  16.369  28.354  0.0349  0.1581 -0.0984
35280W        W36144   2.102   4.308  26.877  0.0356  0.1165  0.2606
35281W        W36145   9.415  13.327  20.806  0.1565  0.0573 -0.1215
35282W        W36146  21.424   0.364  17.055  0.0058 -0.1132  0.1709
35283W        W36147  16.485   0.274   8.824  0.3678 -0.2494 -0.1144
35284W        W36148  13.301   8.885  19.453  0.1809  0.0657 -0.4201
35285W        W36149  17.825   2.078  19.065  0.2813 -0.0027  0.0442
35286W        W36150   5.818  27.836   9.251 -0.0582  0.2767 -0.1876
35287W        W36151  15.913  15.507   9.853  0.0703 -0.2510  0.0644
35288W        W36152  17.137  28.493   1.990 -0.1216  0.1568  0.0832
35289W        W36153   3.988  10.716  16.363  0.2038 -0.0992 -0.0886
35290W        W36154  17.650  15.853  11.986  0.2041  0.2931 -0.1742
35291W        W36155  18.461  12.805   8.208 -0.0650  0.0241 -0.1358
35292W        W36156  26.138   4.823  28.109  0.1355  0.1132  0.1081
35293W        W36157  27.260  18.526  20.108 -0.1702  0.1580  0.1804
35294W        W36158  18.719   9.664  15.614  0.3175  0.0293  0.3455
35295W        W36159  23.566   1.953  21.023  0.2049  0.0503  0.0151
35296W        W36160  19.544  11.349   0.986 -0.0657 -0.1846  0.1632
35297W        W36161  15.104   8.176   0.970  0.0121  0.0734 -0.1020
35298W        W36162  14.481  15.044  22.891  0.0796 -0.0767 -0.0291
35299W        W36163  20.536  21.890  12.301 -0.0823  0.3862 -0.1078
35300W        W36164  19.309  28.840   1.963 -0.1924  0.0497  0.3028
35301W        W36165  19.035   1.316   2.090  0.2154 -0.0907 -0.2121
35302W        W36166  16.281  17.382  28.299  0.1966 -0.1499  0.0415
35303W        W36167   5.542   5.388   3.648 -0.1404  0.1170 -0.0715
35304W        W36168  27.222   7.347  12.075 -0.0831 -0.0984 -0.0921
35305W        W36169   6.117  26.446  17.276 -0.1904  0.0122  0.1743
35306W        W36170  10.191  16.745   4.306 -0.3564 -0.0533  0.2881
35307W        W36171   6.429   7.917   8.473  0.2680 -0.2747  0.1538
35308W        W36172  17.699   7.766  17.107 -0.2855  0.2520  0.0393
35309W        W36173  18.302  28.374   8.592  0.2128 -0.2403  0.0158
35310W        W36174   0.398  13.144   0.718 -0.3353  0.1410 -0.1567
35311W        W36175  13.203  13.818  10.084  0.3577  0.1388 -0.0672
35312W        W36176  16.186  10.193  19.346  0.5724  0.0941  0.3087
35313W        W36177   3.780  13.149   7.242 -0.1046 -0.0914 -0.1313
35314W        W36178  22.340   4.432  14.260  0.0939 -0.1060  0.2167
35315W        W36179  25.716  28.748   9.170 -0.0818 -0.2073  0.2099
35316W        W36180  17.148   0.593   9.986  0.0816  0.2733 -0.2179
35317W        W36181  20.445  20.184   0.180 -0.0348  0.4933  0.1221
35318W        W36182  16.936  26.162   4.067 -0.2532  0.0703 -0.0001
35319W        W36183  22.204  21.676  20.153 -0.3297  0.1486  0.2115
35320W        W36184  21.346   7.636   2.720 -0.2818 -0.0913 -0.0431
35321W        W36185  24.302  16.874   2.381  0.0561 -0.0940  0.1602
35322W        W36186  28.082  10.883   1.373  0.0968  0.2199 -0.0762
35323W        W36187  12.428  14.799  25.093 -0.0540  0.3119 -0.1560
35324W        W36188  17.936  18.128  28.683 -0.0748  0.3218  0.2032
35325W        W36189  21.070  17.130  14.887  0.0252 -0.0332  0.0426
35326W        W36190  27.462  25.371   9.625  0.3666  0.2726  0.1136
35327W        W36191  24.423   6.811  25.820  0.1342 -0.2716 -0.1899
35328W        W36192  25.290  15.756  15.983  0.3542 -0.0430  0.2683
35329W        W36193  24.300   3.922   9.956 -0.2755 -0.0794  0.0678
35330W        W36194  28.096  10.093  17.998  0.1865 -0.0160 -0.0017
35331W        W36195   0.312  11.481  10.136  0.0619  0.1203 -0.0103
35332W        W36196   9.609  14.460   0.643  0.2228  0.2439 -0.2687
35333W        W36197  17.485  26.221  12.392  0.1177  0.3868  0.0692
35334W        W36198   4.546   9.550   5.635 -0.1988  0.2645  0.1584
35335W        W36199   7.276   3.020   8.013 -0.1198 -0.2140 -0.2354
35336W        W36200   3.756  12.379   7.853 -0.0155  0.3484  0.2342
35337W        W36201  26.607  10.979  26.198  0.0665 -0.0550 -0.0175
35338W        W36202  26.991  13.726   2.500 -0.1499  0.1460  0.1284
35339W        W36203  20.900  20.875  23.940 -0.0721  0.1494  0.0927
35340W        W36204  22.837  20.895  13.257 -0.2634 -0.2127  0.2418
35341W        W36205  23.388  10.720  13.649  0.2126  0.0224 -0.2197
35342W        W36206  17.797  14.034  27.643 -0.1147  0.0424 -0.0714
35343W        W36207   4.697  11.734   6.137 -0.1186 -0.4034 -0.1587
35344W        W36208   3.791   4.682   3.308  0.0134 -0.1263  0.1594
35345W        W36209  14.419  12.098  28.648 -0.2675 -0.1301 -0.0248
35346W        W36210   0.240  16.962   9.978 -0.3825  0.0278  0.0647
35347W        W36211   3.056   4.211  28.411 -0.1260  0.1314  0.0547
35348W        W36212   1.685  18.114  18.086 -0.0910 -0.2070 -0.2776
35349W        W36213  25.891  14.301  18.110  0.2987  0.0354  0.3616
35350W        W36214  20.096   7.778  23.348  0.0157  0.5882 -0.0010
35351W        W36215  11.175   9.369  20.138 -0.2119  0.0552 -0.2432
35352W        W36216   4.775  28.786  11.816 -0.0791 -0.0670  0.0627
35353W        W36217  19.501  11.409   9.820 -0.1495  0.1050  0.1287
35354W        W36218   9.829  11.043   5.122 -0.3373  0.0086  0.0703
35355W        W36219  23.110   2.815  22.748  0.0001  0.0709 -0.1311
35356W        W36220   0.485  22.341  14.516  0.3549  0.1170  0.2256
35357W        W36221  22.468  13.222  16.713  0.0303  0.1960 -0.2487
35358W        W36222  15.932   3.362   2.157 -0.2477  0.1833 -0.0435
35359W        W36223  25.213   8.185   0.819  0.0021  0.0721 -0.0367
35360W        W36224  15.753  18.246  17.078 -0.2174  0.1388  0.3786
35361W        W36225  22.361   5.804  27.664 -0.1667  0.0146 -0.2055
35362W        W36226  13.571  10.678   9.839 -0.0731 -0.0042 -0.2232
35363W        W36227  10.788  19.457  23.241  0.1432  0.0166  0.2707
35364W        W36228  24.696  24.493  10.419 -0.1466 -0.0330  0.0452
35365W        W36229   9.390  23.828  13.624  0.1241  0.1622 -0.2345
35366W        W36230   8.990  12.555  12.658  0.3724  0.1635 -0.4154
35367W        W36231   2.193  18.603  28.824 -0.1941  0.0483 -0.2741
35368W        W36232   0.425  18.397   5.383 -0.0463  0.1087 -0.0865
35369W        W36233   0.906  19.203  13.016 -0.0742  0.0920  0.1607
35370W        W36234  20.129  12.206   9.724 -0.3181  0.0789  0.2292
35371W        W36235  11.960  13.405  17.957 -0.1141  0.0536 -0.0637
35372W        W36236  14.433   8.447  13.725  0.0837  0.2307 -0.3675
35373W        W36237   7.944  14.936   0.037 -0.0559  0.1726  0.2149
35374W        W36238  18.892  20.944   8.464 -0.1844 -0.0733 -0.2252
35375W        W36239  14.540  27.929  11.037  0.2804  0.1205 -0.1805
35376W        W36240  12.343   1.262   5.525 -0.1887 -0.0587 -0.0179
35377W        W36241  22.473  10.402  23.731  0.1293 -0.4871 -0.0394
35378W        W36242   9.458   9.470   4.576  0.2687 -0.4259  0.3008
35379W        W36243   3.593   9.598  11.534  0.2725  0.1153 -0.0593
35380W        W36244   1.620  26.532   9.311 -0.1146  0.1581 -0.5187
35381W        W36245  15.510  11.414  19.904 -0.1539 -0.1400 -0.1554
35382W        W36246  28.625  16.391  16.416 -0.0572 -0.1630 -0.0101
35383W        W36247  15.521  20.576  20.665 -0.1676  0.0662 -0.0361
35384W        W36248   4.354  25.772  27.334  0.2619 -0.0466  0.0659
35385W        W36249  17.270   5.208  10.378  0.1770 -0.2345  0.0197
35386W        W36250  12.110   3.186   9.183 -0.1795  0.0978  0.4091
35387W        W36251  20.548   5.248   5.177  0.5617 -0.1400 -0.2373
35388W        W36252   2.937   0.995  16.607  0.3537  0.2912 -0.0566
35389W        W36253  18.346  25.111  15.734  0.2698 -0.1974  0.2505
35390W        W36254  27.558  28.341   9.246  0.0236 -0.0534 -0.0596
35391W        W36255  26.808   8.189  10.395  0.0068  0.0139  0.2599
35392W        W36256  28.423   9.318   6.246 -0.0034 -0.0612  0.0377
35393W        W36257  11.752   1.297   0.499  0.2050 -0.2023  0.1339
35394W        W36258  25.216   6.720  26.835 -0.0637 -0.1571 -0.0182
35395W        W36259   6.879  28.549  17.311 -0.3327 -0.1274  0.0742
35396W        W36260  23.525  11.025   8.426 -0.0857  0.2377  0.0988
35397W        W36261  22.962  23.691   2.077  0.2086  0.2415  0.1159
35398W        W36262  20.247  28.276  26.907 -0.1990  0.1807  0.2332
35399W        W36263   5.100  14.548  11.959 -0.1299  0.0913 -0.3654
35400W        W36264  20.662  21.898   3.026 -0.1283  0.3282  0.1227
35401W        W36265   3.926   2.718  23.407 -0.0272  0.2480 -0.1679
35402W        W36266  20.534   2.680   6.946 -0.0710 -0.2913 -0.0427
35403W        W36267  14.092   8.361  18.709  0.0008  0.2319 -0.0911
35404W        W36268  21.248  16.457  17.993  0.1776 -0.1201  0.4150
35405W        W36269  24.679   6.300   2.766  0.1539 -0.4306 -0.0070
35406W        W36270  10.546   8.048  12.107  0.2480  0.3050  0.1224
35407W        W36271  10.367   9.359  10.803  0.2889 -0.2230 -0.0107
35408W        W36272   9.309  21.614  12.186  0.0821  0.3305  0.0465
35409W        W36273  19.848  16.246  18.832  0.0447 -0.0375  0.0727
35410W        W36274  10.403   0.820  10.836 -0.1997 -0.2796  0.2490
35411W        W36275  25.182  15.187  13.856  0.1846 -0.1220  0.2096
35412W        W36276  10.585  14.186   5.983  0.1309 -0.0411 -0.1789
35413W        W36277  20.412  13.696  27.298  0.0762  0.1812  0.0581
35414W        W36278   9.622  13.576   7.364 -0.1441 -0.0452  0.4560
35415W        W36279   9.422   9.453   5.902 -0.0956 -0.2191  0.1983
35416W        W36280  20.293  19.284  12.769  0.0860  0.0888 -0.0206
35417W        W36281  18.817   1.672  21.137 -0.1455  0.1965  0.0373
35418W        W36282   9.144  12.017  22.434  0.3981 -0.0201 -0.1235
35419W        W36283  17.445   9.468   5.548 -0.0920  0.0594 -0.3256
35420W        W36284  26.529   1.863  13.515  0.0094 -0.0640  0.2513
35421W        W36285  10.575  13.673  10.177  0.1813  0.2626  0.3921
35422W        W36286   3.866   0.961  24.115  0.0815 -0.0064 -0.4149
35423W        W36287  28.554  24.975  13.227  0.0069  0.1929  0.1579
35424W        W36288  12.854   2.487   9.901  0.0851  0.1651 -0.1224
35425W        W36289  17.045   6.917  19.969 -0.0556 -0.0516 -0.2939
35426W        W36290  23.979  10.005  13.012  0.1168  0.0450 -0.0499
35427W        W36291  19.519   6.580  10.144 -0.1257 -0.0183  0.2722
35428W        W36292  15.626  23.889   7.896  0.1691 -0.1685  0.0717
35429W        W36293  14.180   6.799   9.831  0.0435  0.1378 -0.3171
35430W        W36294  11.685  19.048  25.161  0.0399 -0.3649  0.3619
35431W        W36295  17.709  13.153   3.670 -0.1783 -0.0143  0.3197
35432W        W36296  20.974  19.063   9.881 -0.1441 -0.3292  0.0444
35433W        W36297  22.552  19.725  26.143  0.2478  0.0555  0.1557
35434W        W36298  26.183   9.800  18.276  0.1637  0.0799 -0.0531
35435W        W36299  17.795   0.655  13.752 -0.0592  0.3058  0.3857
35436W        W36300  23.681  14.684   0.624  0.0738 -0.1048  0.1837
35437W        W36301  15.634  12.363   7.412  0.0457 -0.0892  0.0332
35438W        W36302  24.528  12.901   8.094 -0.2448 -0.3296  0.2443
35439W        W36303  24.585  18.803   5.558 -0.1133  0.2267  0.3630
35440W        W36304  24.270  20.232  19.547 -0.0229 -0.2470 -0.2409
35441W        W36305  16.799  22.014  10.774  0.0415 -0.0523  0.1750
35442W        W36306   8.970  16.611   1.248 -0.0919  0.1399 -0.0604
35443W        W36307   1.402   5.703  21.660 -0.1166 -0.0212 -0.3657
35444W        W36308  21.023  22.076   7.941 -0.0204  0.3714 -0.0339
35445W        W36309  10.189   0.745   8.628 -0.0231 -0.2141  0.0299
35446W        W36310  11.154  16.018   1.137 -0.1974  0.0056  0.0350
35447W        W36311  15.364  10.321   7.328 -0.1505  0.1547 -0.1137
35448W        W36312  23.490   0.551   7.783 -0.1646 -0.0747 -0.0039
35449W        W36313  20.352   7.583  21.485 -0.0958 -0.0715  0.0755
35450W        W36314  15.071  18.145   9.439 -0.2324  0.2461 -0.0267
35451W        W36315  20.865  28.569  17.567 -0.0769 -0.0027  0.2531
35452W        W36316  22.056   9.084  10.345  0.0388  0.0249  0.1075
35453W        W36317  10.285  26.290  13.643 -0.2299 -0.2008 -0.3759
35454W        W36318  11.340  20.673  23.625 -0.0992  0.0549  0.0073
35455W        W36319   4.677   7.996  22.838  0.3784 -0.0382 -0.0523
35456W        W36320  14.624  16.732  12.235 -0.0828 -0.3317  0.0938
35457W        W36321  17.581  14.064  18.451 -0.0101 -0.2689  0.1098
35458W        W36322   8.021  16.416  20.099  0.2767 -0.0020 -0.0136
35459W        W36323   4.974  26.118  23.989  0.1418  0.2110 -0.0275
35460W        W36324  11.878  15.718   6.415  0.0128 -0.0546 -0.2724
35461W        W36325  18.924   4.993  23.952 -0.0201  0.2452 -0.1544
35462W        W36326  15.953  12.164  22.986  0.2229  0.1931 -0.1995
35463W        W36327  11.445  11.561  10.706  0.1396  0.3074 -0.2456
35464W        W36328  27.864  14.524  14.285 -0.0836  0.2207  0.0121
35465W        W36329  15.237  24.385  27.810 -0.2199 -0.0354  0.0367
35466W        W36330  16.537   4.105  16.129  0.3189 -0.0039 -0.0961
35467W        W36331  15.628   8.954   5.056  0.4503  0.1199 -0.1866
35468W        W36332   6.007  22.835  15.364 -0.1125 -0.1799 -0.2921
35469W        W36333  22.360  28.733   5.361  0.0451  0.2504  0.1855
35470W        W36334  15.328   0.383  15.830  0.0772 -0.4352 -0.2042
35471W        W36335   8.386   5.248   0.202  0.1537  0.2566  0.0255
35472W        W36336  19.849  10.410   6.236  0.0470 -0.0171  0.0173
35473W        W36337  14.994   9.179  14.554 -0.0274  0.2074 -0.1468
35474W        W36338  13.562  13.672  11.695 -0.0411 -0.1050 -0.1345
35475W        W36339  16.455  13.363   0.344  0.0292  0.2551  0.0827
35476W        W36340  20.479  11.533   6.764  0.1412  0.2160 -0.0652
35477W        W36341  20.173  18.581  15.797 -0.1410  0.2492 -0.1504
35478W        W36342  19.570   4.873   0.298 -0.1238  0.0623 -0.0987
35479W        W36343   7.992  23.901   4.143  0.0841  0.0512 -0.0758
35480W        W36344  17.576   6.616  18.148  0.3140  0.2257  0.3272
35481W        W36345  10.054  12.252   8.502 -0.2820 -0.1372  0.2543
35482W        W36346  14.827  11.483  19.552  0.1601 -0.3575  0.0514
35483W        W36347  22.713   2.877  25.517 -0.1894  0.0517 -0.1509
35484W        W36348  16.943  12.332  12.004 -0.3718  0.3056  0.0512
35485W        W36349  17.597   4.177   2.680 -0.0740  0.1461 -0.1682
35486W        W36350  16.299  11.557   1.983  0.2941 -0.1392  0.1545
35487W        W36351  14.288  27.720  28.098 -0.3183  0.0169  0.1392
35488W        W36352  17.429  11.782  19.854 -0.1018  0.2719  0.1865
35489W        W36353   1.416  26.435  17.940 -0.0955 -0.0263 -0.2158
35490W        W36354   3.583   5.739  15.568  0.1381  0.2015 -0.1801
35491W        W36355   1.036  13.242  16.792 -0.0353  0.0838  0.1248
35492W        W36356   1.970  12.805  11.526  0.5136  0.0698 -0.1041
35493W        W36357   3.030   4.975  12.294  0.2514 -0.0385 -0.1527
35494W        W36358  22.384  16.511  12.320  0.1090 -0.1134 -0.2433
35495W        W36359  26.864   9.863   3.079 -0.0307  0.0431  0.1613
35496W        W36360  18.323  14.194   2.685 -0.1292 -0.2225  0.0056
35497W        W36361  19.926  28.313  24.815  0.2996  0.1228 -0.0474
35498W        W36362  20.747  22.848  28.030 -0.1233  0.0739 -0.0636
35499W        W36363  26.838   8.429  28.226 -0.1537 -0.1025 -0.1645
35500W        W36364  19.903  21.081  27.930 -0.0669 -0.1698  0.1090
35501W        W36365   1.928   8.591  28.272 -0.0834  0.2107 -0.0526
35502W        W36366   6.004   7.845  13.585  0.1027 -0.4127  0.0971
35503W        W36367  11.938  18.865   1.076 -0.1669  0.0257 -0.0403
35504W        W36368   0.061  27.349  12.123 -0.2325 -0.1777 -0.2549
35505W        W36369  18.354  21.893  25.916 -0.4057 -0.2799 -0.0168
35506W        W36370   8.825   3.233   1.964 -0.0421 -0.1619 -0.4975
35507W        W36371  19.504  16.573  25.444  0.0460  0.2810 -0.0912
35508W        W36372  18.357  20.168  27.973  0.0129 -0.0297 -0.0054
35509W        W36373   6.750   9.830   8.906  0.1663  0.0004  0.3747
35510W        W36374  24.464  16.918   4.941 -0.3332 -0.0763  0.0363
35511W        W36375  10.952  13.377   5.947  0.0041  0.2053 -0.1467
35512W        W36376  16.660   2.918  16.471 -0.2528  0.2039  0.2000
35513W        W36377  12.545  24.349  20.343  0.0165 -0.0408  0.2170
35514W        W36378   1.797  19.087  14.466 -0.1415 -0.2871 -0.2363
35515W        W36379  17.643  10.619  12.230  0.0014 -0.2950 -0.0179
35516W        W36380  27.364  13.443  29.003  0.0672  0.1296  0.0039
35517W        W36381  14.484  14.825  14.405  0.1533  0.1430  0.1928
35518W        W36382  18.016   2.923   5.292 -0.2344 -0.3440  0.0143
35519W        W36383  24.676  17.435  25.014 -0.2092 -0.0227 -0.0846
35520W        W36384   8.481  19.423  20.798  0.1727 -0.3045  0.0657
35521W        W36385  23.942  16.207   3.118 -0.2325 -0.0659  0.0447
35522W        W36386  17.773  26.617  11.405 -0.1796  0.2664  0.1135
35523W        W36387  24.650  26.615  13.683  0.1203  0.0531  0.2419
35524W        W36388  21.982  18.986  16.184 -0.0796  0.2001 -0.1539
35525W        W36389   8.589  27.392   5.018  0.0631  0.0048  0.0102
35526W        W36390  21.267   5.356   1.297  0.3129 -0.0088 -0.0135
35527W        W36391  18.622  24.393   5.181  0.0584  0.4060  0.3550
35528W        W36392   1.016   5.156  15.532 -0.3553 -0.1889 -0.1107
35529W        W36393  15.008   8.611  10.253 -0.2681  0.1142 -0.1848
35530W        W36394   3.236  10.216  11.319  0.1445 -0.1803  0.0393
35531W        W36395  21.539   5.349  19.950 -0.1470 -0.0686  0.3348
35532W        W36396  25.730  16.116   2.037  0.0185  0.1280  0.2180
35533W        W36397  15.113  27.828   1.921  0.1882  0.0619 -0.2571
35534W        W36398  11.264  14.589  22.399  0.1827  0.2917 -0.2344
35535W        W36399  28.171  10.977  12.834  0.2612  0.3112  0.0933
35536W        W36400  15.595   7.214  14.749 -0.2298  0.0019  0.0270
35537W        W36401   5.193  25.696  11.805  0.0525 -0.2875 -0.3131
35538W        W36402  28.537   3.695  14.803  0.0504  0.1812 -0.2177
35539W        W36403  25.223   0.546  20.237  0.0618  0.1552 -0.0376
35540W        W36404  27.160  13.194  24.685  0.1863 -0.2170  0.1016
35541W        W36405   2.235   7.315  25.712  0.1932  0.1023  0.0943
35542W        W36406  16.205   4.089  13.788 -0.2209 -0.2143  0.0653
35543W        W36407  21.753   8.133   6.418  0.1119 -0.1205  0.1875
35544W        W36408  10.715   9.725   1.635  0.2731 -0.0246 -0.1722
35545W        W36409  22.869  12.339  22.548  0.0891 -0.1211 -0.0569
35546W        W36410   8.928  17.018   1.572 -0.2073 -0.2135 -0.2937
35547W        W36411  15.849   3.312  25.059  0.1343 -0.3139 -0.0896
35548W        W36412  22.600   7.767  17.460  0.0580  0.2001 -0.1780
35549W        W36413  13.330  29.109  20.346 -0.0730 -0.0024 -0.2342
35550W        W36414  27.503  17.125   2.364  0.3416  0.0360  0.1213
35551W        W36415  21.272   3.894   9.584 -0.2369  0.0863  0.3219
35552W        W36416   6.547  18.431  14.967  0.0166  0.0999  0.2830
35553W        W36417  19.065  21.666   4.263  0.3165  0.2735  0.2422
35554W        W36418  17.569  22.376  15.684  0.0693 -0.2783 -0.2929
35555W        W36419  12.549  12.057  28.699  0.1262  0.1345 -0.0049
35556W        W36420   6.964  27.010   5.928 -0.1249 -0.0789  0.0110
35557W        W36421  27.956  18.351   8.787 -0.1371  0.1277 -0.0638
35558W        W36422  26.861   1.520  25.294  0.0280  0.0904  0.0364
35559W        W36423  25.559  11.044  16.064 -0.0992 -0.1938 -0.3147
35560W        W36424  14.260   0.876  10.205 -0.2454 -0.0953  0.1755
35561W        W36425  12.178   5.907   2.127 -0.0991  0.1530 -0.2119
35562W        W36426  23.945   1.814  14.885  0.3906 -0.2960  0.2447
35563W        W36427  20.215  14.416  10.637  0.1254 -0.2898  0.0730
35564W        W36428  19.161   8.076   2.449 -0.1325 -0.3952 -0.0715
35565W        W36429  22.048   5.258  22.678  0.0679  0.2184  0.2208
35566W        W36430  22.052   0.298  17.202 -0.3980  0.0760  0.2050
35567W        W36431   8.414   1.181  13.571 -0.0758 -0.3449 -0.1120
35568W        W36432   9.997  17.906  26.541  0.2268  0.1808  0.2812
35569W        W36433  26.303   5.223   5.326 -0.1076 -0.3027 -0.0409
35570W        W36434  18.213  15.124  21.614  0.0366  0.2682 -0.0834
35571W        W36435  28.871  27.124  18.697 -0.0369  0.1144  0.2192
35572W        W36436  13.679   6.149   4.801 -0.0543 -0.1202 -0.1262
35573W        W36437  15.127  11.979  16.335 -0.0209  0.1578 -0.1331
35574W        W36438   6.089   6.124  19.127  0.1486  0.1191 -0.0164
35575W        W36439  10.504  12.030  16.509 -0.0830 -0.2000 -0.0652
35576W        W36440  17.054  19.541   1.530 -0.0126 -0.1290 -0.0703
35577W        W36441  22.022  28.902  16.558 -0.3277  0.1951 -0.1479
35578W        W36442  20.381  14.143  22.837 -0.0222  0.3153 -0.1995
35579W        W36443  10.127  10.018  15.868  0.2052 -0.1713 -0.0377
35580W        W36444  21.807   9.679  19.856  0.0103 -0.1380 -0.1582
35581W        W36445  19.217   1.445   6.475 -0.2584  0.1445 -0.0087
35582W        W36446  10.878  25.040   6.427 -0.0626  0.0437  0.4380
35583W        W36447   4.252  20.476  16.292  0.1345 -0.0188  0.2121
35584W        W36448   6.776  28.591  21.200 -0.0459 -0.0422  0.2507
35585W        W36449  10.269  10.079  21.899  0.3088 -0.1669  0.0370
35586W        W36450  14.925   2.789  18.965 -0.0389  0.1784  0.0296
35587W        W36451  18.357  11.565   1.467 -0.1393 -0.5168 -0.0482
35588W        W36452  18.299   4.584   6.490 -0.3612  0.2657 -0.1561
35589W        W36453  17.023  10.796   7.060 -0.0224  0.0115 -0.0149
35590W        W36454  11.276  19.698  21.604 -0.0713 -0.1604 -0.1442
35591W        W36455  18.131  13.958  24.576 -0.1763  0.0923  0.0437
35592W        W36456  16.998  14.317  10.242 -0.0683  0.1200  0.0090
35593W        W36457  24.767  17.792   8.630 -0.1531  0.2922 -0.2478
35594W        W36458   2.632  25.407  25.211  0.1214 -0.1453  0.2968
35595W        W36459  12.326  10.290  12.959 -0.1914  0.1844 -0.0289
35596W        W36460  24.533  18.998  26.360  0.3220 -0.1004  0.2526
35597W        W36461  11.126  12.473   8.489  0.0596 -0.0674 -0.2304
35598W        W36462  14.251  13.114   5.979  0.2795  0.2101  0.0834
35599W        W36463  23.402  22.983   6.658 -0.0355 -0.1290 -0.0267
35600W        W36464   3.764   3.777   8.204 -0.1503  0.0806  0.0524
35601W        W36465  21.192  26.249  19.711  0.1081 -0.1675 -0.1279
35602W        W36466  14.251   2.493  12.583 -0.1884  0.0383  0.6034
35603W        W36467  19.259  27.087  15.267 -0.0640  0.0694 -0.1231
35604W        W36468   5.380   0.961  25.004 -0.0968  0.0452  0.2715
35605W        W36469  11.927  28.332   8.276  0.1438 -0.2345 -0.0884
35606W        W36470  24.646  13.203  24.261 -0.0162  0.0273 -0.1241
35607W        W36471  10.688   8.920   9.494  0.1388  0.1771  0.1031
35608W        W36472  28.013   7.982   9.498  0.1134  0.0742  0.0000
35609W        W36473   4.705  21.870   9.213  0.0360 -0.0138  0.1244
35610W        W36474   2.874  15.507   2.553 -0.4217  0.1391  0.1530
35611W        W36475  27.283  17.217   3.181 -0.3897  0.1349 -0.2509
35612W        W36476   4.743   5.253  25.668  0.0844  0.1398  0.1773
35613W        W36477  20.350  19.058  23.705 -0.2025 -0.1555  0.1256
35614W        W36478   9.645  19.476  13.602 -0.1279  0.1410 -0.1237
35615W        W36479   9.600  10.524  17.853  0.1352 -0.0990 -0.1690
35616W        W36480   5.471   9.967   6.931 -0.5826 -0.2745 -0.0530
35617W        W36481   6.194   2.872   0.392 -0.0221 -0.0500 -0.0029
35618W        W36482   3.981  17.417  24.423 -0.2120  0.0087  0.3429
35619W        W36483   5.953  24.164  24.172 -0.0874 -0.1543 -0.2011
35620W        W36484  18.408  21.253   6.061  0.0488  0.1043  0.0097
35621W        W36485  18.631  16.408   3.107 -0.2593  0.2844  0.0894
35622W        W36486   3.136  22.606   6.699 -0.0360  0.0544 -0.3269
35623W        W36487  17.759   3.677  18.598  0.4421  0.1396 -0.1238
35624W        W36488  15.397  14.896  24.319 -0.3918  0.0211  0.1209
35625W        W36489  24.125  27.670   7.988 -0.2010  0.0640  0.1394
35626W        W36490  17.356  26.786  21.110 -0.2252  0.0169 -0.0151
35627W        W36491  28.926  18.689   3.580  0.0727 -0.4365  0.3293
35628W        W36492  14.657  28.027   6.534  0.4330 -0.0234  0.1940
35629W        W36493  19.487  12.519  16.971  0.0069 -0.1429  0.3730
35630W        W36494   4.781  11.349   8.796  0.2311 -0.5381  0.1491
35631W        W36495  25.423   5.686   0.702  0.2181 -0.0649  0.0740
35632W        W36496  20.830  28.385  22.627 -0.0551 -0.1686  0.0403
35633W        W36497  21.911   5.213   9.477 -0.0480  0.3994 -0.2083
35634W        W36498  25.155  27.992  21.716  0.0289 -0.0475 -0.1539
35635W        W36499  14.717  19.105  22.176 -0.2297 -0.1565 -0.3362
35636W        W36500  10.654   5.637   8.565 -0.1400  0.1070  0.2695
35637W        W36501  20.060  14.899  22.619 -0.1798  0.1800  0.0724
35638W        W36502  24.518   5.176  11.819  0.4531 -0.0340 -0.1148
35639W        W36503  18.082  25.033  16.111 -0.2166  0.1031 -0.0462
35640W        W36504  28.655   1.123   5.641  0.3037  0.0467  0.2132
35641W        W36505  13.383  26.422   7.370 -0.0954  0.0366  0.3350
35642W        W36506  14.757   4.121  24.114  0.2040 -0.0237  0.1494
35643W        W36507  26.563  12.691   7.731  0.0857 -0.0054 -0.0638
35644W        W36508  25.038  23.993  19.812  0.1570  0.2162 -0.0155
35645W        W36509   9.760   9.649   2.765 -0.3345  0.0293 -0.2283
35646W        W36510   0.243  24.495   7.611 -0.1618 -0.0086 -0.0023
35647W        W36511  26.331   8.953  24.733  0.0501  0.2888 -0.6451
35648W        W36512   3.806   0.554  28.156  0.0917  0.1611  0.2422
35649W        W36513  14.339  10.462  25.156 -0.0436  0.0322  0.2148
35650W        W36514  24.180   3.104   1.210  0.0931 -0.0533  0.1766
35651W        W36515   7.813  16.306  16.555  0.1412 -0.0045  0.0954
35652W        W36516  16.627   7.818   5.673  0.2294  0.1333  0.1875
35653W        W36517   8.439   4.276  16.552 -0.0562 -0.1995  0.0310
35654W        W36518  27.678  29.033  26.445 -0.1259 -0.3056  0.2451
35655W        W36519  24.659  23.342  14.243  0.1674 -0.0465  0.0656
35656W        W36520  14.240   9.477  20.615 -0.3245  0.0844  0.3527
35657W        W36521  23.503   4.899   1.162  0.0217  0.0140  0.1866
35658W        W36522  21.110   1.594   6.010 -0.0180  0.1540  0.2716
35659W        W36523   0.367  23.476  22.136 -0.0872  0.3617 -0.1669
35660W        W36524  20.374  13.468  12.302 -0.1194 -0.0480 -0.3086
35661W        W36525  13.276  11.971  28.418  0.2292  0.1731  0.2381
35662W        W36526  19.891  19.636  12.337 -0.1211 -0.1050  0.0862
35663W        W36527   4.461  19.031   6.503  0.2545 -0.1547 -0.0237
35664W        W36528   0.788  28.313   0.761  0.1424  0.0073 -0.2020
35665W        W36529   3.678  13.334   2.910 -0.2515  0.0323 -0.1100
35666W        W36530  22.205  23.167   2.981  0.1429 -0.3239  0.0159
35667W        W36531  26.430   9.037   7.388  0.1129 -0.1961  0.2015
35668W        W36532  11.125  27.929  11.982 -0.0025 -0.1137  0.3191
35669W        W36533  13.063   3.152   8.876  0.1880 -0.0090 -0.2916
35670W        W36534  19.831  23.966   9.851  0.1608 -0.1158  0.0232
35671W        W36535  15.023   2.104  27.158 -0.2737  0.1837  0.0261
35672W        W36536  26.426  20.559  28.062 -0.2776 -0.1637  0.0183
35673W        W36537   8.897   4.778  14.351  0.1747  0.0641  0.0862
35674W        W36538  22.587  22.725   3.361 -0.0661  0.2514  0.0914
35675W        W36539  10.834  27.719   5.367  0.4709 -0.0260 -0.2466
35676W        W36540  17.235   9.044  22.926  0.1674 -0.1930 -0.0865
35677W        W36541  16.389  13.617  10.047 -0.0677 -0.0172 -0.0825
35678W        W36542  26.515  14.761  19.578  0.2041  0.2055  0.0571
35679W        W36543  28.684  27.002  19.104  0.2156  0.4027  0.1873
35680W        W36544  22.159  11.895   4.797 -0.1064  0.0499 -0.1784
35681W        W36545  13.140  26.466  23.342 -0.1663  0.1937 -0.0531
35682W        W36546  26.995   1.939  16.353 -0.1848 -0.2288  0.0721
35683W        W36547  22.681   8.185  19.608  0.0376  0.3077  0.1383
35684W        W36548   0.044  12.767   3.905  0.1066 -0.2514  0.2341
35685W        W36549  23.979  20.288  17.500 -0.1646 -0.0476 -0.2484
35686W        W36550  23.277  10.725  17.997 -0.0410 -0.2587 -0.2222
35687W        W36551  18.391   7.045  22.255  0.1703 -0.1769  0.0312
35688W        W36552   7.089  14.491   4.178  0.0705  0.2221  0.3336
35689W        W36553   2.609   7.968  20.557 -0.1392 -0.2303  0.1662
35690W        W36554   7.447   4.064   7.890 -0.3985  0.0984  0.0517
35691W        W36555  22.097   9.718  20.275 -0.0731  0.0300 -0.1093
35692W        W36556  25.542  14.469  20.823  0.0640 -0.2515 -0.0588
35693W        W36557  25.152   0.385  13.645 -0.2371  0.0850 -0.2531
35694W        W36558  18.648  15.907  26.650  0.0253  0.1198 -0.0317
35695W        W36559   3.982  24.520   3.527 -0.0103  0.1908  0.0439
35696W        W36560  17.008   3.498   6.071 -0.0477  0.2293 -0.3504
35697W        W36561  18.170   3.981  23.941 -0.2517  0.1388 -0.2314
35698W        W36562  21.009  10.002  18.665  0.0197  0.0232 -0.1686
35699W        W36563  15.768  21.486   3.438  0.0309  0.1482 -0.2269
35700W        W36564  28.134  10.881  22.528 -0.0146  0.4047  0.1095
35701W        W36565  15.770   2.743  17.615 -0.2433 -0.0328  0.2793
35702W        W36566  11.823   3.065  19.627  0.3363  0.2501  0.2372
35703W        W36567  15.169   0.565  12.778 -0.1812  0.3297  0.1120
35704W        W36568  16.968  23.156  13.697 -0.3107  0.0510  0.3682
35705W        W36569   7.711   4.928  22.377 -0.0822 -0.0595 -0.4393
35706W        W36570  22.895   8.915  16.621 -0.1241  0.3491 -0.0206
35707W        W36571   8.859  16.422  22.635 -0.0496 -0.1476 -0.0699
35708W        W36572  19.216   4.612  24.084 -0.0229  0.1126  0.1591
35709W        W36573   3.176  15.592  23.524 -0.2119  0.2918  0.0865
35710W        W36574   0.640  25.207   8.869 -0.0438  0.0298 -0.2368
35711W        W36575  23.198  25.843  24.292 -0.0586 -0.0269  0.0935
35712W        W36576  28.019  23.230  13.997  0.2410 -0.1112  0.2877
35713W        W36577  24.264   5.731   6.516 -0.0419 -0.0504  0.0983
35714W        W36578  28.116  11.821  28.230 -0.1829 -0.0057  0.0002
35715W        W36579  21.378   3.111   5.000  0.0920 -0.0861 -0.0321
35716W        W36580   9.221  11.231  16.560 -0.1194 -0.2553  0.0357
35717W        W36581  20.362  12.889  12.365  0.2187  0.0364 -0.0759
35718W        W36582  24.110  28.784  25.195  0.2171  0.0804 -0.2752
35719W        W36583  16.215  21.531  16.505 -0.1293  0.1031  0.0439
35720W        W36584   9.237  12.283  12.236  0.2235 -0.4200 -0.1964
35721W        W36585  12.132  12.236  16.122 -0.1922  0.0523 -0.5886
35722W        W36586  22.006  11.999  13.077  0.2100 -0.0180  0.2581
35723W        W36587   4.817   5.254  20.609  0.1417 -0.2203 -0.0212
35724W        W36588  17.501   5.559   9.487  0.1715 -0.0064 -0.3384
35725W        W36589  16.750  15.757   2.259  0.0363  0.2046  0.1287
35726W        W36590  25.997   7.707   6.274  0.4122 -0.0950 -0.0542
35727W        W36591  21.658  24.285  16.050  0.1397  0.0990  0.1208
35728W        W36592  14.492  19.476  16.211  0.0380 -0.0970  0.2152
35729W        W36593  27.643  15.586  22.725 -0.1177 -0.2438 -0.2297
35730W        W36594  22.563  28.599  17.421  0.1874 -0.2780  0.2874
35731W        W36595   8.150  15.135  19.118 -0.0698  0.0458  0.1807
35732W        W36596  17.687  21.117  27.769  0.0447  0.0490  0.0634
35733W        W36597  14.776  15.891  11.149 -0.1111 -0.1279 -0.4194
35734W        W36598  18.063   4.675  16.293  0.4339 -0.0078  0.2707
35735W        W36599  17.966  15.549  19.346  0.2113 -0.0131 -0.0041
35736W        W36600  16.621  13.195   9.991 -0.0145  0.3493 -0.5223
35737W        W36601  14.641   9.151   0.616  0.3194  0.0320 -0.0661
35738W        W36602   9.476   5.776  19.853  0.1341 -0.0582 -0.0694
35739W        W36603  10.536  17.558   8.530 -0.1225  0.2877 -0.4572
35740W        W36604  17.151   9.077  10.934  0.5039  0.0873  0.1010
35741W        W36605  24.538  21.340  21.136 -0.3053 -0.0656 -0.0600
35742W        W36606  12.514  26.487  17.000  0.1120  0.0877  0.1814
35743W        W36607  21.565  23.611  24.133  0.0311  0.1462  0.0399
35744W        W36608  17.011  21.149  17.180  0.2399  0.1463 -0.1987
35745W        W36609  11.743   0.180   0.081  0.1449  0.1643  0.0752
35746W        W36610  20.455   8.215  13.127 -0.0897 -0.3692  0.0906
35747W        W36611  19.954  18.767   1.327 -0.1964 -0.1576  0.1304
35748W        W36612  22.317  13.940   3.777  0.0086  0.0909  0.0934
35749W        W36613  27.350  29.024  17.329  0.2242 -0.2105 -0.1694
35750W        W36614   4.480   7.284  11.189 -0.1844  0.1390  0.0279
35751W        W36615  27.210  17.488  15.422 -0.0247 -0.1315  0.2891
35752W        W36616  23.623   8.374  27.650 -0.2782  0.0036 -0.1028
35753W        W36617  16.541  12.128  19.709 -0.1454  0.1722 -0.2587
35754W        W36618  25.539  14.813  19.045 -0.0891 -0.1647  0.1822
35755W        W36619  13.902   7.346  26.602  0.1487 -0.1163 -0.3099
35756W        W36620  20.581  15.605  10.273  0.0615  0.1851 -0.1510
35757W        W36621  20.447  25.126   0.929 -0.1412 -0.0840 -0.0023
35758W        W36622  27.296   1.746  15.929 -0.1793 -0.1738  0.1721
35759W        W36623   2.342   4.764   4.291 -0.0837 -0.3134  0.1561
35760W        W36624  19.833  13.362   5.346 -0.3019  0.2963  0.0964
35761W        W36625   9.949  25.725  24.760  0.1020 -0.2721  0.0698
35762W        W36626  18.099  17.806  27.127 -0.2792 -0.4341 -0.3619
35763W        W36627  17.467   9.812  20.195 -0.4024  0.0150  0.0645
35764W        W36628  10.480  15.799   8.976  0.0706  0.1782 -0.0078
35765W        W36629   4.064  10.180  16.228 -0.0621  0.1357  0.0376
35766W        W36630   1.095  23.370  15.401  0.1971 -0.0952  0.0709
35767W        W36631  26.206  20.440   6.533 -0.2679 -0.1191  0.2942
35768W        W36632  15.928  12.904  24.959  0.0291 -0.1193 -0.1152
35769W        W36633  28.905  12.445  23.683 -0.2367 -0.0512 -0.0419
35770W        W36634  23.977  17.522   9.502  0.0041  0.0169  0.0522
35771W        W36635  22.149   9.535  21.642 -0.2471  0.2154 -0.1007
35772W        W36636  23.004  23.506  23.534 -0.1315  0.0656  0.0357
35773W        W36637   0.220   4.791  19.805  0.2002  0.1830 -0.1030
35774W        W36638  23.736   5.084   7.931  0.1178  0.0032 -0.0894
35775W        W36639  22.625  17.730  26.792  0.0033  0.1180  0.0367
35776W        W36640  10.908  18.230   9.720 -0.2273  0.0998 -0.1205
35777W        W36641  14.592  14.831   8.723  0.0602  0.3216 -0.0761
35778W        W36642  14.736   7.984  12.129 -0.1037  0.0168 -0.0228
35779W        W36643   9.088  11.727  12.198 -0.1479  0.0474 -0.2633
35780W        W36644  13.613   6.783   7.271  0.0888 -0.1190 -0.0975
35781W        W36645  26.741   9.459  25.748 -0.2554  0.0079 -0.0544
35782W        W36646  19.671  15.265  14.050 -0.0522 -0.2269  0.1269
35783W        W36647  22.303  15.781   3.191 -0.2301  0.2733  0.1410
35784W        W36648  24.609  24.639   0.462 -0.1091  0.0110  0.0959
35785W        W36649   0.906  28.941  12.070  0.0484  0.0359 -0.0938
35786W        W36650   0.198   5.441   7.097  0.0288  0.0291 -0.0765
35787W        W36651  25.703  15.743   9.965  0.2338 -0.0144 -0.1851
35788W        W36652  22.987   7.086  22.014  0.0644 -0.1649 -0.0746
35789W        W36653   0.959   2.994  19.891  0.1034  0.0503  0.1710
35790W        W36654  18.729   4.399   4.031 -0.0200 -0.2327  0.1097
35791W        W36655  19.809  26.488   9.507  0.5260 -0.1176 -0.0292
35792W        W36656  20.023   0.052  14.740  0.1118 -0.0345  0.0344
35793W        W36657  12.563   8.125   3.562 -0.0716 -0.0087 -0.0729
35794W        W36658  17.753   5.663   7.413 -0.0548 -0.3695  0.1012
35795W        W36659   1.881  14.442   5.644  0.2005  0.0001 -0.2469
35796W        W36660   4.102  19.894   6.696  0.0962 -0.0365  0.0768
35797W        W36661   2.843  23.166  17.232 -0.0273  0.1533 -0.2061
35798W        W36662  15.965  14.621   9.012  0.1229 -0.1013 -0.1390
35799W        W36663  27.057   8.003   8.268 -0.2716  0.3814 -0.2121
35800W        W36664   7.321  17.887  13.980  0.0758  0.0100 -0.0636
35801W        W36665  21.990  22.108  11.764 -0.0432  0.0657 -0.0354
35802W        W36666  22.327   4.724  13.822 -0.1652  0.0608 -0.1753
35803W        W36667  24.560  28.060  16.103 -0.2897  0.1033  0.0215
35804W        W36668  14.223   5.607   9.090  0.2662  0.1218 -0.2545
35805W        W36669  17.183  11.688  14.720  0.0136  0.0609  0.3611
35806W        W36670  13.738   8.628  14.943  0.1506 -0.0810 -0.1598
35807W        W36671  15.499   7.254  11.316 -0.0282 -0.0743 -0.0769
35808W        W36672  20.519   4.206  19.959 -0.1749 -0.0220 -0.0897
35809W        W36673  20.281  11.611  15.160  0.1987  0.3252  0.0225
35810W        W36674   2.600   9.237  17.531 -0.0730 -0.2949  0.0639
35811W        W36675  24.153  22.908   8.065  0.4626  0.1585 -0.0744
35812W        W36676  21.749   3.121  15.713  0.1562  0.1479  0.1593
35813W        W36677  28.385   4.061  12.152  0.2359  0.0881 -0.1459
35814W        W36678   2.457   5.747  15.175  0.1032  0.0968  0.3086
35815W        W36679   4.317  25.742   5.358 -0.0446 -0.0399 -0.1398
35816W        W36680  18.977   4.650  16.299  0.1962  0.0842  0.2578
35817W        W36681   6.901  25.742  11.031  0.0702  0.1631  0.3210
35818W        W36682  15.218  15.468  17.690  0.0131  0.2117  0.1546
35819W        W36683  17.995  18.913  11.967 -0.1424 -0.1012  0.1930
35820W        W36684  26.680   9.610  22.331 -0.1744 -0.0205  0.1855
35821W        W36685  26.404  11.110  24.831  0.0557 -0.0202 -0.1059
35822W        W36686  19.996   7.418  16.909  0.1625 -0.1703  0.0023
35823W        W36687   1.328  16.766  28.765  0.3108 -0.0838  0.2511
35824W        W36688  27.328  13.757  28.524  0.0100  0.3600  0.0402
35825W        W36689   0.188  23.364   5.958  0.2224 -0.2064  0.0973
35826W        W36690   2.493  24.969  12.201  0.2241  0.1770  0.1405
35827W        W36691  26.336  12.325  11.132  0.0464 -0.0471 -0.1025
35828W        W36692  22.584  16.901  15.930 -0.1796 -0.3080 -0.0917
35829W        W36693  24.539   6.051  24.719 -0.1081 -0.0297  0.0459
35830W        W36694  22.252  12.987   9.356  0.1403 -0.4066 -0.1192
35831W        W36695  19.296   0.711  18.635 -0.0145  0.1497  0.1124
35832W        W36696  11.745   5.697   5.481  0.1238  0.0653  0.2204
35833W        W36697  15.229  22.798  23.714 -0.1742  0.1211  0.0130
35834W        W36698  24.681  11.111  16.014 -0.0476  0.1113  0.0454
35835W        W36699   9.780  10.769   9.555  0.1007  0.0019  0.4375
35836W        W36700  26.596   6.276  23.927  0.0305 -0.0059  0.4376
35837W        W36701  27.758   9.654  25.893 -0.2705 -0.1510 -0.1129
35838W        W36702  20.320  27.078  11.146  0.2502 -0.0798 -0.1014
35839W        W36703  20.462   6.653   3.160 -0.0349  0.0998 -0.2348
35840W        W36704  22.462   4.819  29.082  0.1473 -0.0409 -0.4316
35841W        W36705  16.531   7.011   9.451  0.0386  0.0907  0.5137
35842W        W36706  27.188  26.231   4.562 -0.2830  0.0972 -0.2034
35843W        W36707  24.191   0.419   4.840 -0.2839 -0.0303  0.0604
35844W        W36708  15.429   8.146  13.380  0.3274 -0.1857 -0.0963
35845W        W36709   3.567   3.169   1.195  0.1395  0.0146 -0.0814
35846W        W36710  28.837   3.267  12.329  0.1658  0.0982 -0.1639
35847W        W36711  16.210   8.319  21.069  0.0352  0.0642  0.0181
35848W        W36712  25.194   4.761  16.235 -0.2320  0.0935 -0.0351
35849W        W36713  28.873  18.451  14.393 -0.2223  0.5981 -0.2130
35850W        W36714  11.173   3.635   6.220 -0.1450 -0.1874 -0.1466
35851W        W36715  20.111   8.117  17.967  0.0903 -0.0756  0.0294
35852W        W36716  14.466  23.803  14.688 -0.0313  0.2393 -0.2367
35853W        W36717  18.143  13.048   0.987  0.1256  0.2728 -0.0559
35854W        W36718  18.774   3.773   2.249 -0.0142  0.0764 -0.0587
35855W        W36719   8.484   7.037  18.205 -0.1830  0.0372  0.0570
35856W        W36720   3.552   0.416  11.335 -0.0463 -0.0794 -0.1680
35857W        W36721  17.938  26.417  12.219  0.0638  0.1105 -0.0900
35858W        W36722  14.732   6.932  15.819  0.0168 -0.1965 -0.1201
35859W        W36723   7.294  12.718   7.932 -0.0585 -0.1113  0.4492
35860W        W36724  15.156  10.178  27.579 -0.2544  0.0867 -0.3884
35861W        W36725  19.917   8.427  10.288  0.0594 -0.0187 -0.1029
35862W        W36726  27.628  18.578  18.847  0.0326 -0.1931 -0.1600
35863W        W36727  18.125  26.614   3.254  0.1214  0.0813 -0.1383
35864W        W36728  27.667  20.535   4.182 -0.0329  0.0981  0.1974
35865W        W36729   0.108  23.683  18.805 -0.1114 -0.1867 -0.1315
35866W        W36730  23.675  15.112   9.596  0.1448  0.2602  0.2462
35867W        W36731   3.929   6.608  14.897 -0.1678 -0.3350 -0.1734
35868W        W36732  21.616  12.853  25.828  0.1809 -0.1902  0.1145
35869W        W36733  20.381  16.226   0.003  0.2606 -0.1102 -0.5068
35870W        W36734   4.438   5.338   4.220 -0.0330  0.0930 -0.3377
35871W        W36735  14.424   7.927   6.873  0.1817  0.0378  0.0756
35872W        W36736   0.364   7.464  21.720  0.2446 -0.0499 -0.1035
35873W        W36737  14.564   6.934  12.080  0.0687  0.1948  0.0047
35874W        W36738  24.158  16.001  25.698  0.2608  0.0459 -0.0999
35875W        W36739  13.441   7.843   9.291 -0.0660 -0.0968  0.2027
35876W        W36740  16.442   4.366   0.130 -0.2188  0.0728  0.1472
35877W        W36741   5.937  13.510  17.596 -0.1801 -0.0888  0.0631
35878W        W36742  20.928   3.366  11.836 -0.1744 -0.0219 -0.0016
35879W        W36743   3.558  26.709  17.420  0.3520  0.6409  0.0872
35880W        W36744  14.542   0.026  28.827 -0.0263 -0.0028 -0.3421
35881W        W36745  16.990   0.133  23.025 -0.1573 -0.0329 -0.2511
35882W        W36746  28.002   3.833  18.502  0.2901  0.2230  0.2413
35883W        W36747   1.188   6.015  11.692  0.1191  0.1341 -0.2696
35884W        W36748  25.722  18.252  20.928  0.1348 -0.0968 -0.1490
35885W        W36749  25.534  27.009  23.681 -0.3845 -0.0786 -0.1906
35886W        W36750  11.189   0.932  28.899 -0.1831  0.0362  0.1092
35887W        W36751  10.945  15.662  16.337  0.1700 -0.1325 -0.1187
35888W        W36752   0.767   5.965  22.464 -0.0200 -0.0258 -0.1873
35889W        W36753  17.690   8.342  16.693 -0.2021 -0.0475 -0.3603
35890W        W36754  20.513  23.564   8.001  0.1071  0.1589  0.0328
35891W        W36755  18.914  14.028  16.713  0.0491  0.0705 -0.2174
35892W        W36756  17.563  12.383  16.722 -0.0805 -0.0195 -0.1267
35893W        W36757  18.485   2.535   4.823 -0.1110 -0.0286  0.0921
35894W        W36758  19.625  20.225  11.166 -0.0045  0.2019  0.0108
35895W        W36759  15.068   5.105   5.374 -0.4094 -0.0662  0.0554
35896W        W36760  23.004   4.091  13.392  0.2511  0.1832  0.0246
35897W        W36761  18.196  16.187   2.972  0.0564  0.0059 -0.2419
35898W        W36762  26.809  23.886  13.527  0.2999  0.0403  0.1368
35899W        W36763   2.744  12.506  13.687 -0.1699  0.2274  0.0765
35900W        W36764   8.082  19.254   7.359 -0.0250 -0.2080 -0.2531
35901W        W36765  25.364   0.728  15.599  0.0890 -0.2227 -0.0578
35902W        W36766  19.375  15.689  16.543 -0.1418  0.2794 -0.0004
35903W        W36767  14.426  13.871  15.232 -0.2628 -0.2009 -0.3374
35904W        W36768  22.027  16.113   5.022  0.0600  0.0213  0.0608
35905W        W36769  17.313   2.864  29.028  0.3065  0.0759  0.0272
35906W        W36770   6.234   0.436  13.251  0.0164  0.1215  0.1732
35907W        W36771  19.828  16.639  14.706 -0.1214 -0.1096 -0.3311
35908W        W36772  27.045  15.878  24.978 -0.1937  0.0790 -0.0007
35909W        W36773   6.284  13.014   3.904  0.2301  0.3060  0.0496
35910W        W36774   6.779   9.429  25.320 -0.0126 -0.1722  0.2109
35911W        W36775  20.745   6.447  26.537 -0.1037 -0.2573 -0.1787
35912W        W36776  24.204  21.688   5.442  0.1102  0.2203  0.0103
35913W        W36777  10.187   4.341  29.057 -0.0128  0.2282  0.3611
35914W        W36778  19.932  15.012  18.789 -0.1315 -0.1734 -0.1027
35915W        W36779   9.311  20.181  18.886 -0.2509  0.1322 -0.0401
35916W        W36780  11.698   1.060  16.004  0.0898  0.3552  0.1053
35917W        W36781  25.473  20.747  19.043 -0.4626  0.0911 -0.1410
35918W        W36782  20.290  22.379   3.881  0.1187  0.1405  0.2639
35919W        W36783  15.853  17.590  18.017  0.0582 -0.3013 -0.2836
35920W        W36784  20.882  13.024   3.544 -0.1780 -0.1698  0.1378
35921W        W36785  24.718  20.612  28.760 -0.0455 -0.1003  0.0244
35922W        W36786  13.023  26.469  12.638  0.2679 -0.2980  0.0590
35923W        W36787  23.800  21.651  18.478  0.3032  0.1472  0.0123
35924W        W36788  21.921  14.863   7.463  0.1658 -0.1867  0.4966
35925W        W36789  28.180  10.957   3.401 -0.0432 -0.1806 -0.1789
35926W        W36790  16.845  27.857   2.659 -0.1383  0.1661 -0.1650
35927W        W36791   3.086  17.613  27.657  0.1129 -0.0417 -0.0082
35928W        W36792  24.873  12.036  24.586  0.0178  0.3019 -0.2946
35929W        W36793   8.833  28.994  12.666  0.3048 -0.0478  0.1226
35930W        W36794  12.081  16.996   9.551 -0.1285 -0.3167  0.0731
35931W        W36795  28.702  13.342   8.835 -0.1420  0.0557  0.2060
35932W        W36796  14.174  12.175  14.800  0.0153  0.1624 -0.1123
35933W        W36797  15.667  26.148  13.561 -0.2809 -0.2173  0.3269
35934W        W36798  24.309   9.255  16.215 -0.0861 -0.2102  0.0056
35935W        W36799  26.283  27.055   8.709 -0.2168 -0.2736  0.0173
35936W        W36800  12.989   9.329  24.833 -0.0078  0.0518 -0.0450
35937W        W36801  21.540  23.353  13.363 -0.0585  0.2264 -0.2616
35938W        W36802   3.134  24.021   1.470 -0.0168  0.0026  0.0193
35939W        W36803  12.359  23.185   9.885 -0.0914  0.3129  0.0966
35940W        W36804   9.788  12.711  23.244 -0.1892 -0.2643  0.0130
35941W        W36805   0.416   3.458   9.915  0.3010  0.0784  0.2726
35942W        W36806   6.572  17.622  10.340 -0.1511 -0.2018 -0.2975
35943W        W36807  18.421  12.127  14.754 -0.0280  0.1906  0.1709
35944W        W36808   5.824   9.342  20.364 -0.0112 -0.1130 -0.1893
35945W        W36809   4.865  12.204   9.582 -0.0261 -0.0096 -0.1408
35946W        W36810  27.697   1.522  28.761  0.0177  0.2278  0.0347
35947W        W36811  20.673   4.270  21.262  0.1523 -0.1267 -0.0130
35948W        W36812  18.340   8.391  14.504 -0.1319  0.1726 -0.0428
35949W        W36813  19.776   5.770  22.245 -0.0047 -0.2991 -0.1782
35950W        W36814   7.683   5.933  23.880 -0.0789  0.5767 -0.2987
35951W        W36815  24.684  21.811  12.996 -0.1618  0.0780 -0.0506
35952W        W36816   9.849  10.327  14.318  0.0032 -0.0552 -0.2327
35953W        W36817   4.481   7.530  12.202  0.1253  0.2823  0.2985
35954W        W36818   3.590  19.953   0.560 -0.0464 -0.0515 -0.1950
35955W        W36819  21.408  21.151  17.951  0.1243  0.0577  0.0168
35956W        W36820   0.420  17.015  15.830 -0.1374 -0.2323  0.1687
35957W        W36821  22.851  21.772  28.185 -0.3130  0.1161  0.3661
35958W        W36822  27.239   2.658  12.416  0.1552 -0.1142  0.1470
35959W        W36823  12.835   0.063  17.291  0.0446  0.2936 -0.0549
35960W        W36824  21.881  13.688  11.757  0.2346  0.2582  0.1688
35961W        W36825  17.707   8.465   7.769  0.0427  0.0308  0.0990
35962W        W36826  14.215  15.057  12.774 -0.2666  0.0259 -0.0251
35963W        W36827  16.590   8.608  16.292 -0.0814  0.0234  0.1024
35964W        W36828  17.468  12.562  14.954 -0.1259  0.3028 -0.2036
35965W        W36829  26.787   5.725   6.520  0.0422  0.0546 -0.1874
35966W        W36830  24.000  23.055  12.023 -0.0226  0.0969  0.2755
35967W        W36831  26.190   2.564  15.292 -0.1233  0.1650  0.2799
35968W        W36832   2.073  25.441   8.692 -0.0381  0.1093  0.0848
35969W        W36833  25.068  15.717   2.486 -0.1254 -0.2966  0.0693
35970W        W36834   1.886  13.023  16.660  0.1505  0.1638  0.3632
35971W        W36835  25.747  22.276   6.452 -0.0234 -0.0636  0.1441
35972W        W36836  24.232   7.601  16.426 -0.0767 -0.3274  0.3011
35973W        W36837  11.837  17.851  28.668 -0.1298 -0.2323  0.1652
35974W        W36838  15.951   4.485  20.474  0.1461  0.2382 -0.0611
35975W        W36839   6.341  18.077  10.286  0.0117 -0.2370 -0.2094
35976W        W36840   8.461  12.601  12.653  0.1444 -0.0055  0.0299
35977W        W36841  12.197   2.115  13.155 -0.0112  0.0533  0.2566
35978W        W36842  22.520   0.606   3.493 -0.1638  0.1069 -0.1298
35979W        W36843  18.289   7.283   8.788 -0.2671 -0.0759 -0.1539
35980W        W36844  17.454  28.497   9.654  0.1592  0.0255  0.0414
35981W        W36845  22.228   5.852  28.123 -0.3099 -0.1226 -0.3372
35982W        W36846  22.784  16.443  10.736  0.2120 -0.0956 -0.1668
35983W        W36847  15.589  11.325  13.077  0.0365 -0.1530 -0.1323
35984W        W36848  18.193  24.828   8.055  0.4077 -0.1247  0.3689
35985W        W36849  19.046  23.835  11.304  0.0431 -0.0061  0.1662
35986W        W36850  20.634  28.035  14.145  0.4370  0.0192 -0.0518
35987W        W36851   4.621   4.660  12.621 -0.1296  0.1937  0.0195
35988W        W36852  11.970  21.193  17.256  0.0148 -0.2898 -0.1159
35989W        W36853  25.695   1.532  15.285  0.2692  0.3847  0.2170
35990W        W36854   7.505  27.409  11.101  0.0377  0.0986  0.1115
35991W        W36855  24.240   3.146  10.870 -0.0853 -0.1383  0.1505
35992W        W36856   3.880  24.237  13.319  0.0265  0.0333 -0.0733
35993W        W36857  23.573   5.692  17.111 -0.2130 -0.0052 -0.2531
35994W        W36858  15.997   9.860  21.517 -0.0268 -0.2051 -0.2435
35995W        W36859   6.093  25.359  23.627  0.0625 -0.3259  0.0131
35996W        W36860  17.318   8.473  11.504  0.0884  0.1358  0.1211
35997W        W36861  19.433  19.806  27.268  0.1829 -0.2441  0.2480
35998W        W36862  13.850  24.561  15.709 -0.0110 -0.1491  0.2975
35999W        W36863  12.840   7.130  12.760 -0.1644 -0.0563  0.0037
36000W        W36864   4.575   5.044  13.035 -0.2980 -0.0230  0.0677
36001W        W36865  25.720  27.961   6.924 -0.1120 -0.1654 -0.1696
36002W        W36866  24.330   5.684  10.476  0.1785 -0.1246 -0.0456
36003W        W36867  22.165   3.115   2.488 -0.0623  0.0752 -0.2340
36004W        W36868   8.770  14.969  27.563  0.2283  0.0732  0.1977
36005W        W36869   8.853   2.537  12.307 -0.2274 -0.0287 -0.0014
36006W        W36870  22.808  12.042  15.053 -0.1363 -0.2642  0.1877
36007W        W36871  12.944  15.411  14.259  0.0183 -0.0189  0.0826
36008W        W36872  25.686  11.059  20.038 -0.0502  0.0968  0.0396
36009W        W36873  25.878  10.880  14.297 -0.3963  0.0494 -0.0387
36010W        W36874   5.464   0.733  14.175 -0.1609 -0.0286  0.4710
36011W        W36875  16.681   7.274  19.168  0.1911  0.0433 -0.0420
36012W        W36876   4.031   5.038   7.369 -0.2080 -0.2492 -0.0319
36013W        W36877  20.251   3.840  28.861 -0.1122  0.1689 -0.3906
36014W        W36878  24.729   7.828   0.611  0.2931  0.1593 -0.0482
36015W        W36879  14.998   1.051  23.639  0.3927  0.0788  0.0224
36016W        W36880  12.739   2.572   0.991  0.4372 -0.2250 -0.0416
36017W        W36881  24.585  12.040  11.859  0.1699  0.1326 -0.3018
36018W        W36882  10.612   5.318   4.123  0.3687 -0.2002 -0.0244
36019W        W36883  23.469   2.329   1.499 -0.1565  0.2640 -0.0558
36020W        W36884  17.105   3.309  20.680  0.1098 -0.0842 -0.1882
36021W        W36885  13.848  14.169  24.498 -0.0141  0.0523 -0.2114
36022W        W36886  18.617  23.955  22.244  0.2735  0.4026  0.1303
36023W        W36887  13.841   2.796   0.047  0.1638 -0.1413  0.3192
36024W        W36888  16.967   8.426  25.425  0.1599 -0.5272  0.4006
36025W        W36889  16.528  20.437   1.085 -0.4515  0.2409  0.0573
36026W        W36890   7.902   0.684   9.359  0.0373  0.0566 -0.2082
36027W        W36891   1.004   6.552  10.280  0.2482 -0.2621 -0.0982
36028W        W36892  11.485   4.125  16.139 -0.1483  0.0678  0.0199
36029W        W36893  12.070   4.036  19.720 -0.1797 -0.2238 -0.0508
36030W        W36894   4.006  19.633  15.999  0.1591  0.0025 -0.1047
36031W        W36895  16.202  28.574   8.252  0.1283 -0.0456  0.1475
36032W        W36896  17.671   8.111  23.023  0.2709  0.2337 -0.3674
36033W        W36897  22.318  17.377   1.276 -0.5962 -0.0930 -0.0602
36034W        W36898  18.069   9.831  25.355 -0.0411  0.3183  0.1395
36035W        W36899   1.487  15.057  18.136  0.0877 -0.2410 -0.0536
36036W        W36900  12.978  11.844  15.716  0.1332 -0.0610 -0.1864
36037W        W36901   0.111  11.805  19.054 -0.1878 -0.2048  0.1213
36038W        W36902  28.771  19.047  27.880  0.1161  0.2316  0.1062
36039W        W36903  28.465  11.355   6.113  0.0776 -0.2263 -0.3065
36040W        W36904  26.019   2.418   2.340  0.1684 -0.4249 -0.1232
36041W        W36905   3.623   3.543  23.222  0.2600 -0.3687 -0.1914
36042W        W36906  19.081  13.103   2.535  0.3078  0.0272  0.3425
36043W        W36907   3.045   6.411  15.496 -0.2336  0.2463  0.2004
36044W        W36908  11.361   8.042   2.717  0.0856  0.2079  0.1644
36045W        W36909  12.813  27.522   4.133 -0.2839 -0.0068 -0.3643
36046W        W36910  15.918   0.492  18.111 -0.0386  0.1556  0.3265
36047W        W36911   1.017   9.489  27.340 -0.1519  0.1767  0.2359
36048W        W36912   3.047  12.373   5.647 -0.2308 -0.1692  0.3033
36049W        W36913  22.881   8.118   1.653  0.1245  0.2089  0.0794
36050W        W36914  25.423  11.732  22.309  0.0739 -0.1644 -0.0692
36051W        W36915  14.683   6.782   7.286 -0.1910 -0.1429 -0.0234
36052W        W36916   5.816   9.494   4.053  0.3585  0.0047 -0.3062
36053W        W36917  14.882  22.857  21.315  0.0154 -0.1935  0.1123
36054W        W36918   9.004  17.288  16.694 -0.2924 -0.1637 -0.0696
36055W        W36919   4.615  17.420  19.600 -0.0195 -0.0070 -0.1965
36056W        W36920  18.659  14.194  19.051  0.0483 -0.1449 -0.3198
36057W        W36921  12.825   3.934  13.146 -0.0876  0.2811  0.0462
36058W        W36922  19.859  10.154  21.413  0.1133 -0.0386  0.1324
36059W        W36923  17.461  28.960  15.207  0.1424  0.2930 -0.3016
36060W        W36924  18.522   0.978   5.923 -0.1491  0.2922  0.0253
36061W        W36925  23.817  18.040  16.707 -0.1464 -0.0714  0.1054
36062W        W36926  21.926  24.161   1.506  0.0376 -0.1304  0.0296
36063W        W36927   1.302  14.733  13.530 -0.0446  0.1657 -0.0811
36064W        W36928  14.334  18.968  16.379  0.2465  0.0709  0.0900
36065W        W36929  20.515  11.515  18.272  0.5350  0.3441 -0.0740
36066W        W36930  15.522   3.668  10.236 -0.0156 -0.1995 -0.1463
36067W        W36931  13.195  13.950  18.310 -0.0837  0.0525 -0.1480
36068W        W36932  18.824  28.540   8.383 -0.0934  0.2266  0.0150
36069W        W36933  13.893  26.457  13.025  0.0670 -0.1386  0.1008
36070W        W36934  25.230  10.711  24.157  0.0415  0.1287  0.1073
36071W        W36935  17.550   8.292  17.192  0.2033  0.0036 -0.1145
36072W        W36936  17.092  26.242  12.754 -0.5284  0.0458 -0.3073
36073W        W36937  11.166  10.947  20.206  0.0125 -0.1091 -0.1162
36074W        W36938  27.265  27.147   6.924  0.0212  0.1019  0.0920
36075W        W36939   1.121  12.718   6.703 -0.0641  0.2826  0.2196
36076W        W36940   3.150  10.860   8.479 -0.1622  0.0537  0.1801
36077W        W36941  19.990  23.267  22.294  0.0886 -0.0678  0.2176
36078W        W36942  21.928  15.176  16.998  0.0974 -0.0374 -0.1395
36079W        W36943   5.779   4.052  27.584  0.0792  0.4145 -0.0837
36080W        W36944  19.981   8.225  14.602  0.2035  0.0159  0.0366
36081W        W36945   0.890   3.406  27.802  0.1535 -0.4170 -0.0035
36082W        W36946  20.925  18.013   9.913 -0.0086 -0.3884  0.0153
36083W        W36947  11.819   2.784  28.458  0.2249 -0.0322  0.1081
36084W        W36948  20.019  17.054  20.643  0.3660 -0.2977 -0.3127
36085W        W36949  24.288  18.949  16.782  0.0061 -0.0314  0.1195
36086W        W36950  24.543   3.698  11.797  0.0531  0.1892 -0.1922
36087W        W36951  10.480  16.669  19.050 -0.0537 -0.1276  0.1127
36088W        W36952  27.129  11.195  18.748  0.0230  0.2285 -0.1200
36089W        W36953   3.783   2.875  26.191 -0.1240  0.0186  0.1143
36090W        W36954  27.382  18.963  10.990  0.0193  0.3724 -0.0380
36091W        W36955  19.936   5.536   1.726  0.1912  0.2813  0.0723
36092W        W36956  15.560  14.647  13.505 -0.2331 -0.1158 -0.3202
36093W        W36957   6.394  25.386  12.425  0.1787 -0.0394 -0.0011
36094W        W36958  26.773  14.161  11.912 -0.1494 -0.0251  0.2330
36095W        W36959   1.375  12.614  18.055 -0.1796  0.1257  0.0836
36096W        W36960   3.741  24.218  22.088  0.5288 -0.2157  0.1024
36097W        W36961  24.481   4.491  15.211 -0.1308  0.2155 -0.4500
36098W        W36962  26.459  23.745  26.016  0.2241 -0.0877  0.0170
36099W        W36963  12.841  19.128  28.112 -0.1581  0.0619  0.0059
36100W        W36964  24.939   0.996   2.218 -0.2951  0.1377 -0.2155
36101W        W36965   6.876  28.639  17.848 -0.0537  0.2064 -0.0793
36102W        W36966  11.299  18.523  21.026 -0.2802 -0.1319  0.2919
36103W        W36967  16.829  20.905  11.656  0.3299  0.1858  0.1618
36104W        W36968   1.796  17.932   9.915 -0.0174 -0.2487 -0.3486
36105W        W36969   7.531  12.657   6.307 -0.1206  0.2564 -0.0153
36106W        W36970  17.373   7.091  21.602 -0.1525  0.2820 -0.0733
36107W        W36971  12.473  22.372  25.877 -0.3103  0.1682  0.2344
36108W        W36972  11.508  27.529   7.858 -0.3263 -0.2259  0.0252
36109W        W36973   6.780  21.744  21.949 -0.0382  0.1317  0.0006
36110W        W36974  19.756  25.209   9.310 -0.0442 -0.2236 -0.0774
36111W        W36975   1.431  12.070  22.399 -0.1261  0.0772  0.1441
36112W        W36976  20.499  27.512  22.301 -0.3445  0.0648  0.4748
36113W        W36977  12.948  15.790   9.764 -0.0380  0.1380  0.0206
36114W        W36978  24.672  13.140  29.083  0.1362  0.3092 -0.1026
36115W        W36979  10.032  16.979   5.906 -0.3494  0.0480 -0.0603
36116W        W36980  11.679  11.272  18.195  0.0696  0.1811 -0.2686
36117W        W36981  18.006  27.447  24.256 -0.0090 -0.0686 -0.2802
36118W        W36982   4.047  11.304  19.038  0.0415 -0.0419  0.0211
36119W        W36983  23.567  11.841  24.260 -0.1278  0.0811 -0.1666
36120W        W36984  17.677   5.495  15.041 -0.2940  0.0178  0.0563
36121W        W36985  22.115  24.134  21.382 -0.0212 -0.1446 -0.0460
36122W        W36986   5.153  28.204   9.793 -0.0627  0.0623  0.0807
36123W        W36987  17.236   9.280  13.816  0.0284 -0.3639 -0.0748
36124W        W36988   9.707  22.542   2.086  0.0610  0.1162  0.5157
36125W        W36989   2.445   5.208  14.425 -0.1506 -0.0455 -0.2795
36126W        W36990  24.344  26.475   6.606  0.0729  0.1026  0.2400
36127W        W36991  19.453   4.571   2.337 -0.0137 -0.0387 -0.0822
36128W        W36992   5.750   7.259   9.406 -0.2399 -0.1362  0.3095
36129W        W36993   9.233   0.915  24.710  0.0872 -0.4255  0.0929
36130W        W36994  19.385   0.187  13.353  0.1583  0.2469 -0.1506
36131W        W36995   9.793  29.115   4.157  0.4101  0.1271  0.0298
36132W        W36996  10.429   9.988  13.195  0.0868  0.1901 -0.2964
36133W        W36997  17.180  19.298   9.846 -0.0103 -0.2750  0.0388
36134W        W36998  12.288  16.467   3.303 -0.2090 -0.1214  0.1519
36135W        W36999  15.283   9.983  22.958  0.0312  0.0642 -0.1387
36136W        W37000  20.520  12.022  10.946  0.3052  0.1998  0.0728
36137W        W37001  17.232   8.453  17.592 -0.0680 -0.1096  0.0656
36138W        W37002   3.873  14.104  20.998  0.0050 -0.2042  0.0620
36139W        W37003  14.534   3.873  26.675 -0.0633 -0.1452 -0.0157
36140W        W37004  24.933  10.107  14.653 -0.3753  0.0982  0.0359
36141W        W37005   9.052   5.011  17.945 -0.2002  0.2298 -0.0774
36142W        W37006  26.475  11.279  17.006  0.1043  0.0398  0.0296
36143W        W37007  22.360  15.561  24.704 -0.0462 -0.3905 -0.1969
36144W        W37008   4.383   7.723   3.536  0.1005  0.1810  0.1948
36145W        W37009  19.081  11.101   0.351 -0.0738  0.0781  0.0470
36146W        W37010  22.648  21.559  22.877 -0.0926  0.0356  0.0352
36147W        W37011   7.236   8.941  19.279 -0.4247 -0.2782 -0.1329
36148W        W37012  14.700   3.072   4.565 -0.0565 -0.0320 -0.0237
36149W        W37013  20.593  10.048  18.401  0.2904 -0.3044 -0.0366
36150W        W37014  22.084  15.292   9.220  0.3287 -0.0828 -0.1482
36151W        W37015  24.884  20.253  19.393  0.0595  0.1207  0.0045
36152W        W37016   1.027   1.573  12.936  0.0200 -0.2472  0.0734
36153W        W37017  12.380  28.413  22.080  0.1690  0.0179 -0.5575
36154W        W37018  25.250   8.845  21.283  0.0092  0.4144 -0.0851
36155W        W37019  23.192  14.436  13.761 -0.0977 -0.1949  0.2118
36156W        W37020   4.950  22.240  25.601 -0.0868 -0.2333  0.3436
36157W        W37021  27.589  16.649  18.715 -0.2762  0.1847 -0.0170
36158W        W37022  15.130  13.321  10.373  0.2031 -0.2067  0.0542
36159W        W37023  19.346   6.356  26.205  0.2235 -0.0605 -0.1988
36160W        W37024  16.148  11.868  26.783 -0.0967  0.1152  0.0157
36161W        W37025  16.564  22.681   1.789  0.0674 -0.2195  0.2825
36162W        W37026  21.469   8.343  20.945  0.1723 -0.0122 -0.1799
36163W        W37027  23.805   0.772  27.023 -0.1527  0.2309  0.1706
36164W        W37028  24.727   9.259  19.427  0.0052 -0.1624 -0.1100
36165W        W37029  27.137   2.899  22.805  0.1048  0.4105  0.0153
36166W        W37030  13.963   7.784   9.939  0.2003 -0.0018 -0.2936
36167W        W37031  27.287  11.250   2.320  0.0844  0.1383 -0.0744
36168W        W37032  11.033  12.894  13.277 -0.0872  0.1602 -0.0293
36169W        W37033   3.536  20.940  11.084  0.2413  0.3886 -0.2200
36170W        W37034  14.647  10.834  27.766  0.1757 -0.0161 -0.1148
36171W        W37035  15.907  10.995  18.245 -0.1511 -0.0332 -0.1771
36172W        W37036  15.979  27.425  17.417 -0.2174  0.1418 -0.1827
36173W        W37037  18.740   8.515   2.391 -0.0092 -0.0092 -0.0332
36174W        W37038  17.886  20.410  24.461  0.1704 -0.0916 -0.1853
36175W        W37039  15.623  12.623  23.731 -0.0427  0.0961 -0.0834
36176W        W37040  17.985  17.050  21.255 -0.2101 -0.2394 -0.1219
36177W        W37041  28.109   0.293  17.683 -0.4648 -0.1674 -0.2421
36178W        W37042  16.302   6.048  18.002 -0.2189  0.0463  0.0680
36179W        W37043  26.796   8.067   6.602 -0.0051 -0.2533  0.1059
36180W        W37044   8.216  25.079  13.715  0.0542 -0.0825 -0.2165
36181W        W37045   9.075  16.414   0.223 -0.0410 -0.2317 -0.2408
36182W        W37046  12.368   0.574   1.638 -0.1032 -0.0081  0.0899
36183W        W37047  12.347   8.094  25.282 -0.1488  0.1852 -0.0913
36184W        W37048  20.539  23.637   0.212 -0.0592 -0.1577  0.0014
36185W        W37049  11.550  12.899  13.161  0.1774  0.0489 -0.2481
36186W        W37050  10.710   6.299  22.720 -0.0787 -0.1970 -0.0750
36187W        W37051  17.652  19.269  17.324 -0.1445 -0.0981 -0.2056
36188W        W37052  18.440   9.399  11.756  0.0203 -0.1128  0.0801
36189W        W37053  23.774  23.572  25.180 -0.2216 -0.4143  0.2723
36190W        W37054  13.693  15.813  20.845  0.1361 -0.2518  0.0308
36191W        W37055  24.645  12.602   9.720  0.2467  0.0307  0.0186
36192W        W37056  12.410   2.817  10.087  0.1400  0.0790  0.3729
36193W        W37057  15.632  23.506  14.523  0.0778 -0.0019  0.3307
36194W        W37058  19.210   4.756  14.670  0.1137  0.1693  0.1080
36195W        W37059  19.009  16.457   9.661 -0.0080  0.2660 -0.2623
36196W        W37060  13.442   5.036  25.867  0.1254  0.1021  0.0644
36197W        W37061  13.612   5.781  23.121 -0.2930  0.2717  0.0307
36198W        W37062  20.283  18.688  13.956 -0.3170 -0.1674 -0.0380
36199W        W37063  26.269  10.271  18.527  0.2058  0.0571  0.0304
36200W        W37064   4.367  26.641   8.993  0.1472 -0.0925  0.2327
36201W        W37065  14.541  26.504  27.333  0.1990  0.3175  0.1883
36202W        W37066  10.569  18.524  10.550 -0.0907 -0.2768 -0.1944
36203W        W37067   3.571   4.937  29.100 -0.2200  0.0604 -0.0052
36204W        W37068   0.258  16.630  10.440  0.1045 -0.0397 -0.0563
36205W        W37069  21.862   6.814  21.170 -0.2834 -0.1278 -0.1071
36206W        W37070  17.692  22.216   2.536 -0.0598 -0.0484 -0.0227
36207W        W37071  19.275   6.948   8.191  0.1613 -0.1963  0.1996
36208W        W37072   2.093  14.687  22.278  0.1191 -0.0720 -0.1023
36209W        W37073  28.562   9.869  16.189  0.4036  0.1951 -0.0682
36210W        W37074   0.371  20.777   9.717  0.3466 -0.0561  0.0070
36211W        W37075   6.576   4.992   9.152  0.2367  0.3334 -0.1907
36212W        W37076   9.735   7.759  11.547  0.0334  0.0941 -0.2879
36213W        W37077  12.721  14.362   4.774 -0.0699  0.0698  0.0734
36214W        W37078  19.637   4.823   3.562 -0.0676 -0.0698  0.5169
36215W        W37079  13.448   4.205   6.956 -0.0022 -0.1703 -0.0567
36216W        W37080  20.953   0.358  21.750 -0.0174 -0.1605  0.3932
36217W        W37081  12.728   0.951  23.773  0.2386  0.1524  0.0194
36218W        W37082   8.623   9.616  21.712 -0.3187 -0.0589  0.4935
36219W        W37083  17.361   8.007  15.212  0.0058  0.0071  0.0904
36220W        W37084  16.729   9.221  19.287  0.3399  0.0988 -0.0312
36221W        W37085  11.287   2.264  18.949 -0.2579 -0.1095 -0.2722
36222W        W37086  27.004   5.585  12.143  0.0365 -0.1145 -0.5485
36223W        W37087  19.340   4.704  13.216  0.2200  0.3524 -0.1860
36224W        W37088  14.054  12.200   8.575  0.0703 -0.0310  0.0815
36225W        W37089   4.156  18.767  15.579  0.3246  0.2533 -0.0308
36226W        W37090   1.361  21.453  21.903 -0.0603 -0.0498 -0.0639
36227W        W37091   1.226  22.347   6.408  0.2345 -0.4261  0.0076
36228W        W37092   3.269   9.784   7.227 -0.3979 -0.0299 -0.1015
36229W        W37093   4.113   4.458  26.697  0.0981  0.0732 -0.0284
36230W        W37094   2.725  27.936   4.485  0.3151 -0.2019 -0.0882
36231W        W37095  16.010  14.137  17.689  0.0167  0.1916 -0.0244
36232W        W37096  20.177   5.845  28.647  0.0279 -0.0730 -0.2113
36233W        W37097  21.403  16.256  29.076  0.2930  0.1714 -0.2202
36234W        W37098  18.824   8.617   9.503  0.1355  0.1098 -0.0060
36235W        W37099  20.318  18.226  28.135 -0.0857 -0.1310  0.0145
36236W        W37100   1.096   8.307  18.308  0.0560 -0.1082 -0.0352
36237W        W37101  20.414  10.647  23.393 -0.2761 -0.2663 -0.0652
36238W        W37102  19.407   7.945  23.851 -0.2944 -0.0674  0.0762
36239W        W37103  15.440   6.694   2.363  0.0223  0.1840  0.0813
36240W        W37104   9.706  17.776  11.410 -0.1805 -0.1340  0.4113
36241W        W37105  28.674   1.568  20.447  0.2287  0.0792 -0.2891
36242W        W37106  27.590   1.039  11.689  0.0824 -0.0264 -0.0239
36243W        W37107  20.512  19.370  26.953  0.2623 -0.0811 -0.1052
36244W        W37108  18.411   5.794  23.018 -0.5057  0.1534  0.0350
36245W        W37109  13.877   5.051  19.914  0.0208 -0.0705  0.0627
36246W        W37110   4.298  19.492  28.490  0.1146 -0.0088 -0.1982
36247W        W37111  10.922   0.632   1.055  0.3833  0.2830  0.0299
36248W        W37112   8.577  27.267  29.061 -0.0777  0.0777  0.0026
36249W        W37113  24.177   4.057  11.070  0.4452  0.1653 -0.0021
36250W        W37114  17.302   6.421   6.470  0.0758  0.0458 -0.0409
36251W        W37115  18.541  20.393  20.946  0.0836 -0.0247 -0.0777
36252W        W37116  23.720   5.026  18.704  0.0437  0.3940  0.0652
36253W        W37117  12.794  14.232   3.216 -0.1091  0.0969 -0.1133
36254W        W37118  18.110   8.013  23.420 -0.3412  0.1154 -0.2725
36255W        W37119  19.425   4.753  17.536  0.3244  0.2169 -0.0139
36256W        W37120  10.839   4.835   9.504  0.1231  0.3481  0.1057
36257W        W37121  24.813  19.445   7.725 -0.4355  0.1634 -0.2011
36258W        W37122  25.930  27.138  11.051 -0.0207  0.2498 -0.0271
36259W        W37123  28.068   8.023  18.343  0.0254 -0.1339  0.5530
36260W        W37124  21.095  18.414  15.404  0.0297 -0.1003 -0.0350
36261W        W37125  15.129   9.054   5.246  0.1297  0.3326  0.0182
36262W        W37126   1.972  15.336   7.139 -0.1150  0.0869  0.1671
36263W        W37127  16.933   2.481  26.933 -0.1889  0.0776  0.0726
36264W        W37128   4.740  23.157  26.016  0.5414 -0.1356 -0.2482
36265W        W37129  10.304   9.572  12.752 -0.1039 -0.1145  0.1588
36266W        W37130  24.736  26.198   4.937  0.1099  0.1932  0.2014
36267W        W37131  23.000   9.107  18.129 -0.2312  0.2901  0.1953
36268W        W37132   3.058  16.535  21.060  0.0696  0.4420 -0.2480
36269W        W37133  28.557  13.062  27.914  0.1525 -0.3433 -0.1679
36270W        W37134  25.934  17.992  20.542 -0.4431  0.0180  0.0450
36271W        W37135  21.183   1.091  13.819  0.2787  0.0103 -0.0270
36272W        W37136  22.765   9.664   8.069  0.0732  0.0951 -0.1837
36273W        W37137  19.110  13.610   3.022  0.0601 -0.1426 -0.0409
36274W        W37138  23.486  11.512  21.004 -0.3070  0.1878 -0.1325
36275W        W37139   5.015  13.327   2.536 -0.0833 -0.2621 -0.1801
36276W        W37140  24.777  12.966  23.827 -0.1235 -0.0629  0.1388
36277W        W37141   8.584  13.041  26.232 -0.0906 -0.1470 -0.1959
36278W        W37142  14.995  17.013  12.126 -0.0197 -0.3564 -0.1096
36279W        W37143  21.986  20.476  14.924 -0.1140 -0.0395  0.2022
36280W        W37144  10.260   0.496  12.567  0.0477 -0.1621 -0.0529
36281W        W37145  12.388   6.718   3.602 -0.0886 -0.1385 -0.2718
36282W        W37146  16.473   8.696  23.082  0.0332 -0.1758 -0.0475
36283W        W37147  24.020  20.813  23.285 -0.0829 -0.0017  0.0067
36284W        W37148  28.328   3.652  17.423 -0.2951 -0.2105 -0.2227
36285W        W37149  12.469   6.047  12.562  0.0966  0.0520 -0.2367
36286W        W37150  21.840  15.120   0.504 -0.1204  0.1790  0.1974
36287W        W37151   3.842  19.989  12.505 -0.1157  0.0319  0.2548
36288W        W37152   4.216  26.760  11.111  0.0508  0.2981  0.2714
36289W        W37153  21.049  27.607  23.471 -0.1859  0.0858  0.1952
36290W        W37154   4.133  16.528  25.461 -0.3061 -0.2627  0.0818
36291W        W37155   0.920  12.795  12.722  0.3186 -0.0721 -0.3096
36292W        W37156  22.796  11.515  15.020 -0.0787 -0.1024  0.0631
36293W        W37157   7.443  26.448   6.829  0.2919  0.2053 -0.0979
36294W        W37158  19.950   4.477  17.682  0.0047  0.0558 -0.3040
36295W        W37159  16.646  23.672  19.376  0.0908 -0.3984  0.1317
36296W        W37160  16.996   1.233   3.635  0.2749 -0.0898 -0.1141
36297W        W37161  10.071  17.310  10.338  0.0122  0.1033  0.1109
36298W        W37162   8.732  27.151   5.870 -0.1832 -0.0644 -0.1315
36299W        W37163  24.501  10.332  12.305 -0.0225  0.0799 -0.2245
36300W        W37164  20.128  18.590  23.704 -0.3375  0.0246 -0.1350
36301W        W37165  13.297  15.908  27.008 -0.1027  0.0775  0.0092
36302W        W37166  21.011   5.809  12.160 -0.0777  0.2031  0.2871
36303W        W37167  15.821  13.229  13.625  0.1181  0.2885 -0.0180
36304W        W37168  27.375  21.767   7.071 -0.1186 -0.0522 -0.0746
36305W        W37169   6.260  12.113  23.585 -0.0289 -0.0448  0.1922
36306W        W37170  22.804  29.026   8.599 -0.2326  0.3502  0.1074
36307W        W37171  15.360  24.919   6.898  0.0701 -0.0946  0.0519
36308W        W37172  26.011  22.484  11.021 -0.1961  0.3055 -0.0328
36309W        W37173  15.905   5.579  28.216  0.0848  0.0194 -0.2015
36310W        W37174  15.574  11.952  26.484 -0.0876  0.0060 -0.0336
36311W        W37175   7.409  17.494  18.331 -0.0195 -0.0039 -0.0571
36312W        W37176   0.623   5.452   2.080 -0.1203  0.0199 -0.0958
36313W        W37177  11.323   5.605  21.626 -0.0230 -0.1582  0.1976
36314W        W37178   5.079  24.536  13.850  0.1172 -0.0706 -0.1737
36315W        W37179  15.290  17.862   4.339 -0.0121 -0.0118 -0.0252
36316W        W37180   2.158  11.354  22.547 -0.1840  0.1022  0.0992
36317W        W37181  27.293  20.928  13.656  0.2281  0.2348  0.1435
36318W        W37182   3.534  15.216  13.531  0.0436  0.2891  0.0368
36319W        W37183  28.689   7.449   6.647  0.1473  0.2799  0.0736
36320W        W37184  18.066  24.474  27.335 -0.0129 -0.1902  0.4092
36321W        W37185  18.966   8.926  11.098  0.3218 -0.1076 -0.4526
36322W        W37186  19.258   3.354  21.371 -0.2350 -0.0437 -0.2798
36323W        W37187  10.638  14.795  26.761  0.0608  0.0300 -0.1966
36324W        W37188  11.627  27.811  26.159 -0.0565 -0.1357 -0.0836
36325W        W37189   2.503  18.208  16.342  0.1943  0.3613  0.0353
36326W        W37190  20.124  26.820  21.651 -0.1540 -0.0552  0.1215
36327W        W37191  26.550  21.580  18.406  0.2355 -0.2814  0.1580
36328W        W37192  17.803   9.177   5.387  0.1258 -0.1996 -0.0963
36329W        W37193  20.564  24.733   6.012 -0.1015  0.1154 -0.2851
36330W        W37194  28.256  11.205  21.507  0.5526  0.0750 -0.1305
36331W        W37195  10.540   9.384   5.473  0.3546 -0.2536 -0.1526
36332W        W37196  15.558  19.758  15.488  0.2380 -0.0980  0.2718
36333W        W37197   4.124  27.046  20.945  0.2593 -0.1587 -0.4332
36334W        W37198   8.118  11.819   8.844 -0.0986 -0.1882 -0.0226
36335W        W37199   9.431  20.294   3.237  0.0176  0.2782 -0.2731
36336W        W37200   2.075  27.236  15.475  0.0793  0.1024 -0.1119
36337W        W37201   0.330   9.056   7.559 -0.1269 -0.0082  0.0363
36338W        W37202  13.918  26.140  17.157  0.1075 -0.1224  0.0035
36339W        W37203  20.340  23.187  19.532  0.0379 -0.2366  0.2319
36340W        W37204  17.385  26.380  16.435  0.1893  0.0292 -0.1484
36341W        W37205   4.849  14.307  21.270  0.1962  0.0868 -0.0953
36342W        W37206   1.739  27.095  16.525  0.0116 -0.0430  0.0600
36343W        W37207  20.656   4.038   4.358 -0.1094  0.0287  0.3929
36344W        W37208  20.943  10.259  20.803 -0.3333 -0.0461  0.0237
36345W        W37209  28.023   7.205  16.806 -0.0278 -0.0373 -0.1952
36346W        W37210   9.109   1.815  24.471  0.2781  0.0509  0.2534
36347W        W37211   9.833  26.340  17.648 -0.0476  0.0046 -0.5922
36348W        W37212  23.454   4.340   4.422  0.1979 -0.1234 -0.0778
36349W        W37213  15.890   2.157   7.640 -0.0554  0.3901 -0.1625
36350W        W37214  12.454   8.687   7.407 -0.0423 -0.2139 -0.3459
36351W        W37215  11.817   7.765  16.640  0.2509  0.1385  0.1731
36352W        W37216  11.362   4.197  11.482  0.1364  0.1494 -0.0906
36353W        W37217  19.522  15.402  27.301 -0.0694 -0.1785 -0.1333
36354W        W37218  20.753  10.838  11.623  0.1199 -0.2213  0.0915
36355W        W37219  15.534  21.184  11.828  0.3061 -0.0593  0.2102
36356W        W37220  26.668   2.588   8.033  0.2786  0.0709  0.0533
36357W        W37221  18.047   0.365   7.910  0.0711 -0.0533  0.0564
36358W        W37222  16.653   5.106  17.023  0.0975  0.1205  0.2439
36359W        W37223  14.472   2.026   3.137 -0.1219  0.0739  0.1140
36360W        W37224   4.267  11.084   0.989  0.2396  0.2313  0.1895
36361W        W37225   6.909  23.291  24.797  0.0815  0.2198 -0.2128
36362W        W37226  12.485  28.266   8.493  0.0537  0.1040  0.3324
36363W        W37227  23.603   5.640  23.199 -0.0736  0.0197 -0.0502
36364W        W37228  24.821   9.222  16.541 -0.0182 -0.1742 -0.1762
36365W        W37229  27.778  15.587  21.738  0.1735  0.2452  0.3852
36366W        W37230   8.969  28.412   0.251  0.5501  0.3619  0.3439
36367W        W37231   0.527   8.922   4.152 -0.1477 -0.0619  0.2298
36368W        W37232   8.860  14.163  19.429 -0.1061  0.0519 -0.2148
36369W        W37233   0.264  11.387  12.155 -0.0545  0.3177  0.2197
36370W        W37234  25.804  21.113  20.447  0.2415  0.1164 -0.1314
36371W        W37235   1.174  11.080   4.466  0.1125 -0.0888  0.1214
36372W        W37236  24.280   8.249  26.806 -0.1142 -0.0146  0.2594
36373W        W37237  16.117  10.641  21.050  0.0778 -0.2869  0.1803
36374W        W37238  19.732  27.641   7.748  0.0897 -0.0546 -0.0367
36375W        W37239  10.513   5.758   2.977  0.1417  0.0532  0.1024
36376W        W37240  19.005  22.187   9.468 -0.0857  0.0127  0.0268
36377W        W37241  21.162  19.580  18.117  0.0248  0.1236  0.2213
36378W        W37242  19.267  25.313  22.095  0.0795  0.0300 -0.2982
36379W        W37243  13.602   0.344  25.999 -0.2813 -0.0387  0.0398
36380W        W37244   5.381  16.011   8.758 -0.3668 -0.2955 -0.1063
36381W        W37245   5.448   8.444  10.729 -0.2599  0.2333  0.0486
36382W        W37246  21.557  15.252   2.964  0.1792  0.0681 -0.3868
36383W        W37247   1.657  21.854  22.484 -0.2556 -0.0050 -0.0017
36384W        W37248  27.944  24.702   9.218  0.2648 -0.2227 -0.0455
36385W        W37249  26.091  16.854  24.791  0.0542  0.1527  0.0929
36386W        W37250  16.669  17.720  24.470  0.1488 -0.4374  0.1014
36387W        W37251   6.362  18.889   2.067 -0.0960  0.1852 -0.1179
36388W        W37252  14.911   2.764  17.305  0.0031  0.1470  0.0125
36389W        W37253  18.507  21.654  21.533  0.0712 -0.1203 -0.0043
36390W        W37254  16.910   6.304  18.751  0.0297 -0.0846  0.1127
36391W        W37255  25.405   9.365  21.361  0.0868  0.3449  0.2544
36392W        W37256  20.982   1.062   5.714 -0.1397  0.0456  0.0619
36393W        W37257  18.815  27.464   2.677  0.0657 -0.2234  0.1541
36394W        W37258  23.936  19.065  10.305  0.1192 -0.0720  0.1631
36395W        W37259   3.900  15.396   7.042 -0.2028  0.0707 -0.2849
36396W        W37260  20.589  18.672   7.637 -0.2132  0.0530 -0.2516
36397W        W37261  27.146  16.262  10.116 -0.1183 -0.1924 -0.0443
36398W        W37262  27.377  12.727  24.653  0.0111  0.1452  0.2241
36399W        W37263   0.452  20.144  19.218 -0.2180  0.0612 -0.2493
36400W        W37264   2.933   9.613   5.095 -0.0583  0.4422  0.0711
36401W        W37265  19.972   6.526   3.263  0.1743  0.2319 -0.2396
36402W        W37266   4.691   3.526  10.888  0.0460  0.1346 -0.1508
36403W        W37267  14.344  25.453  20.685  0.0889  0.1238 -0.0700
36404W        W37268  20.091  24.995   4.062  0.3397 -0.0849 -0.0702
36405W        W37269  28.152   0.008  19.331 -0.0338  0.0644 -0.2244
36406W        W37270   0.897  19.810  23.528  0.0084 -0.2007 -0.0062
36407W        W37271   5.301  27.952  25.459  0.0960 -0.0671 -0.2772
36408W        W37272  20.471   9.102   0.444 -0.2837 -0.0722 -0.1028
36409W        W37273  15.112   5.939  23.073  0.3140 -0.0182 -0.2546
36410W        W37274  16.445  21.852  11.279 -0.0502  0.1568 -0.0818
36411W        W37275   0.440   3.102  11.081  0.2893  0.0666  0.1163
36412W        W37276  28.805  22.116  16.127  0.2268 -0.2635  0.1320
36413W        W37277  20.054  28.191  14.864 -0.1010  0.2169 -0.1558
36414W        W37278  16.819  18.782   0.510 -0.0640  0.1545 -0.1143
36415W        W37279   2.903   4.985  19.660 -0.2026  0.1995 -0.2072
36416W        W37280   0.427  26.428  21.590  0.0523 -0.1073  0.4735
36417W        W37281  17.235   5.775   9.862  0.0281 -0.1113  0.2534
36418W        W37282  18.379  27.834   5.990  0.4745  0.4371  0.1491
36419W        W37283  10.138  17.055  17.590  0.1348 -0.1702 -0.2146
36420W        W37284  16.478  15.845   9.906 -0.0650 -0.1200 -0.0182
36421W        W37285   6.446  15.218  24.204  0.0723 -0.2721  0.3262
36422W        W37286   6.303   4.240  20.460 -0.0379  0.0660 -0.1833
36423W        W37287  12.955  23.727  12.840  0.3756 -0.1677 -0.2140
36424W        W37288   6.894  11.957  23.041 -0.2412 -0.0391  0.1283
36425W        W37289  28.762  22.181   8.587 -0.0815  0.0625 -0.0407
36426W        W37290   7.424  14.479  16.518 -0.3241  0.1111  0.0309
36427W        W37291   7.447  11.232  27.163 -0.0886 -0.0253 -0.0599
36428W        W37292  15.772  17.098  14.568 -0.0827 -0.0995  0.3322
36429W        W37293  25.977   2.520  25.828  0.2926 -0.3040 -0.2673
36430W        W37294  25.478   3.145  17.556  0.1351  0.0817  0.1005
36431W        W37295  27.735   4.843   0.705 -0.4404 -0.1673  0.0560
36432W        W37296  28.596  11.455  26.565  0.0335 -0.2296  0.1274
36433W        W37297  22.221  24.220  15.564 -0.2050 -0.1382 -0.1119
36434W        W37298   0.484  17.931  14.263  0.0324  0.1310  0.1279
36435W        W37299  23.950  26.272  19.132 -0.4201  0.2805 -0.0104
36436W        W37300  16.104  12.857   7.893 -0.3086  0.0116 -0.2637
36437W        W37301   7.593   7.838  13.717 -0.0577  0.0612  0.1299
36438W        W37302  18.182   2.925  21.612  0.1520  0.1331 -0.2508
36439W        W37303  19.524  22.874   9.128  0.0620  0.1492  0.2511
36440W        W37304   7.461  10.437  19.735  0.4421 -0.2235  0.1280
36441W        W37305  15.806  13.342  21.785 -0.0715 -0.0753  0.0428
36442W        W37306  21.980  25.738  19.933 -0.1896  0.0061 -0.1597
36443W        W37307   6.678   8.616   9.213 -0.1052 -0.0886  0.4247
36444W        W37308   1.969  12.140   0.399 -0.0866  0.0033  0.0733
36445W        W37309   6.565   7.185  27.839  0.1212  0.2246  0.1443
36446W        W37310  19.671  13.827  14.948 -0.1956 -0.1010  0.1284
36447W        W37311  23.482  17.887  17.667 -0.0928 -0.1083 -0.2055
36448W        W37312   6.889   4.773  16.289  0.2436 -0.0553  0.2099
36449W        W37313  23.271  18.757   2.010 -0.0750 -0.0097 -0.0268
36450W        W37314  19.877  19.604  10.521 -0.1034 -0.1047  0.0821
36451W        W37315   2.069  26.782  20.400  0.2811  0.1516  0.1621
36452W        W37316  15.560  19.072   5.526  0.0910 -0.3219 -0.0064
36453W        W37317   2.211  13.029  14.887 -0.2214  0.1509  0.0973
36454W        W37318  28.610   7.128  28.427  0.4623 -0.0294  0.0326
36455W        W37319   5.944   8.273   5.612 -0.0963  0.1179  0.1204
36456W        W37320  29.004  19.109  18.863 -0.1027  0.0291 -0.0641
36457W        W37321  16.597   3.390  28.762 -0.0054 -0.0374  0.2926
36458W        W37322  21.448  15.493  17.133  0.0778  0.1049 -0.5213
36459W        W37323  24.441  27.030   4.415 -0.0640  0.1132  0.0010
36460W        W37324  25.743   1.111   0.821 -0.2314 -0.1251 -0.0816
36461W        W37325   3.953  10.920  29.080 -0.3799  0.0980  0.1181
36462W        W37326   7.618  14.780  10.829  0.0491  0.0971  0.1594
36463W        W37327  13.474   5.837  23.622 -0.0338 -0.0000  0.1042
36464W        W37328  27.631  13.202   3.630 -0.0650 -0.0439  0.1593
36465W        W37329   8.462  19.561   8.107  0.0212  0.0371 -0.0765
36466W        W37330  23.514   0.174  21.246 -0.0116 -0.3478 -0.0595
36467W        W37331   7.006  13.776  17.811 -0.2086 -0.1490  0.3172
36468W        W37332  21.562  17.853  18.594 -0.1729 -0.0472  0.1924
36469W        W37333  23.798   8.981  19.967 -0.0833 -0.0643  0.1100
36470W        W37334  28.578  11.435   1.964  0.2199 -0.1125 -0.1050
36471W        W37335   6.777  10.155   4.078 -0.0712  0.0964 -0.0855
36472W        W37336  19.289  11.446   5.110 -0.1830 -0.1580 -0.0396
36473W        W37337  10.595  13.078  13.111  0.2653 -0.1260 -0.3674
36474W        W37338  28.971   6.145  15.229 -0.2116  0.0751 -0.1605
36475W        W37339  26.733   0.009  15.575 -0.0987 -0.1175 -0.1057
36476W        W37340  28.377  13.579  11.360  0.0460  0.3785  0.3609
36477W        W37341  15.678   9.978   9.397 -0.3927  0.2272 -0.4195
36478W        W37342  27.139  27.061  17.929  0.2634 -0.1009  0.3304
36479W        W37343   1.034  21.743   0.581 -0.1996 -0.0122  0.3058
36480W        W37344  15.832  20.615   9.633  0.0275  0.2156 -0.0582
36481W        W37345  22.600  25.064  14.025 -0.0948 -0.1865 -0.0365
36482W        W37346  23.490  14.028  11.986 -0.1197 -0.1645 -0.4092
36483W        W37347  27.931   6.278  26.400 -0.2757 -0.1858 -0.0318
36484W        W37348  12.583  24.539  21.217 -0.0683 -0.1387  0.0511
36485W        W37349  28.609   3.694   9.711  0.1511  0.0447  0.1162
36486W        W37350   1.037   5.613   7.188  0.1688  0.2353  0.3572
36487W        W37351  20.141  14.369  12.880 -0.0904  0.0028  0.3453
36488W        W37352  12.865  15.175   3.767 -0.5016 -0.1226 -0.0385
36489W        W37353  25.238  11.612   1.395 -0.1156 -0.0563 -0.0732
36490W        W37354  24.472  21.910  22.392  0.1580 -0.1560 -0.2311
36491W        W37355  12.441   5.065  18.636 -0.0545  0.1473  0.2624
36492W        W37356   5.644  11.112  12.002  0.1142 -0.0397  0.1374
36493W        W37357   0.736  24.072  24.853  0.1464  0.1257  0.0450
36494W        W37358  22.722   3.320  24.854  0.1108  0.2237  0.0701
36495W        W37359  28.926  12.603   0.514  0.1613  0.0544 -0.2466
36496W        W37360  27.619  14.820  17.829  0.2345 -0.1499  0.1523
36497W        W37361  10.185   4.363   6.246 -0.2901  0.4190 -0.0850
36498W        W37362  17.482   6.307  27.256 -0.0076 -0.0977  0.0202
36499W        W37363  19.269   3.934  18.210  0.0826 -0.0617  0.0146
36500W        W37364   6.602   8.538  15.466 -0.0363 -0.0801 -0.2137
36501W        W37365   1.883  28.189  15.816 -0.0204  0.0039 -0.1787
36502W        W37366  19.892   0.150  20.612  0.1799 -0.0624 -0.2299
36503W        W37367  27.405   5.766  12.636 -0.2406 -0.2958 -0.0042
36504W        W37368  23.339  15.753  26.737  0.1146  0.5777 -0.0029
36505W        W37369   8.181  18.882  10.795  0.1533  0.0251 -0.2544
36506W        W37370   0.408   8.904  23.041 -0.1693  0.1252 -0.1312
36507W        W37371  18.970  19.916   8.070 -0.0842  0.0356  0.1071
36508W        W37372  27.014   5.970  25.477 -0.0386  0.1039  0.3207
36509W        W37373  11.314   1.766  25.595  0.1396  0.0669  0.0630
36510W        W37374  16.605  16.602  17.144  0.1373  0.0177  0.0645
36511W        W37375  19.373  22.125   9.774  0.2002 -0.2443 -0.1792
36512W        W37376  22.701  12.704  22.839  0.0501 -0.0460 -0.0560
36513W        W37377  24.843   5.697  14.443 -0.0552 -0.1882 -0.0456
36514W        W37378  23.110  28.278  25.213 -0.2769 -0.1803  0.0408
36515W        W37379   7.336  27.369   9.224 -0.0175 -0.1440 -0.0144
36516W        W37380  10.895  10.026  14.610  0.0415 -0.4654  0.0799
36517W        W37381  16.159  25.823  21.153  0.1248 -0.0847  0.1467
36518W        W37382  20.673   2.130  28.503  0.1434 -0.0324 -0.1849
36519W        W37383  20.974  23.196  12.536 -0.3234  0.0361  0.1140
36520W        W37384   8.271  13.627  10.311  0.1735  0.2775  0.0717
36521W        W37385   7.045  15.809  12.944  0.2490  0.2854  0.0254
36522W        W37386  23.182   4.650   8.942 -0.2556 -0.1355  0.2843
36523W        W37387  15.327  12.116   3.832  0.2327 -0.2117 -0.0771
36524W        W37388   6.889   6.369  18.607  0.1091  0.0354 -0.1574
36525W        W37389  13.936   0.372  18.291 -0.0437  0.2660 -0.3742
36526W        W37390  10.254  17.561  17.137 -0.0299 -0.1580 -0.1461
36527W        W37391  16.544  19.133   8.518 -0.2108  0.1297 -0.0183
36528W        W37392  17.844  13.251  10.094 -0.1491  0.0745  0.2787
36529W        W37393  23.886  11.116  26.348  0.1694  0.0400 -0.0140
36530W        W37394  16.199  23.107   2.119  0.0111 -0.4318  0.1512
36531W        W37395  15.955  26.014  27.215  0.1387 -0.0511  0.4177
36532W        W37396  24.827   8.985  22.427  0.0640 -0.1636 -0.1888
36533W        W37397  18.153   7.183  23.281 -0.0532  0.1519 -0.3752
36534W        W37398  16.664  18.445  27.106 -0.1140 -0.0143  0.2299
36535W        W37399  29.101   1.801  18.872 -0.0913  0.0748  0.0499
36536W        W37400  13.108  18.873  17.899  0.0321 -0.0733  0.0048
36537W        W37401  21.936   2.648  14.688  0.1600  0.4520 -0.0505
36538W        W37402  13.224  19.811   7.851  0.1741  0.1981 -0.0790
36539W        W37403  25.683   0.259   4.701 -0.3611 -0.0500 -0.0050
36540W        W37404  18.394  15.996   3.369 -0.3083 -0.2118 -0.1314
36541W        W37405  27.565  18.298  20.506  0.0647 -0.0024  0.2361
36542W        W37406  19.190  15.908  21.556 -0.2919  0.0488 -0.1221
36543W        W37407  21.529  23.708  18.661  0.3867  0.1248 -0.2633
36544W        W37408  15.878  18.485  20.843  0.0569 -0.2595 -0.1161
36545W        W37409   6.926   1.190  21.779 -0.0650 -0.0889  0.0385
36546W        W37410  11.905  16.713  22.036 -0.1608  0.2225 -0.0908
36547W        W37411  28.660   1.240  22.120 -0.0727  0.0852 -0.2517
36548W        W37412  26.298   2.123  25.542  0.2821 -0.1912  0.0585
36549W        W37413   5.157  16.285   6.925  0.1737  0.0435  0.1393
36550W        W37414  26.216  16.468  24.155  0.2105  0.0478  0.0654
36551W        W37415  16.738   4.959  11.627 -0.3046 -0.1863 -0.1042
36552W        W37416  27.293  10.344  27.092 -0.0062 -0.0435 -0.0555
36553W        W37417  26.926   7.852  22.233  0.1004  0.2207  0.3288
36554W        W37418  12.065   6.394   9.781  0.0329  0.3303 -0.0627
36555W        W37419  14.995   3.111   4.969 -0.2135  0.1127  0.4262
36556W        W37420  26.847  22.218  18.835 -0.1472  0.2144 -0.0285
36557W        W37421  20.177   4.452  20.974 -0.0604 -0.0101 -0.0886
36558W        W37422  10.844  19.783   3.332 -0.1096 -0.0534 -0.2655
36559W        W37423  18.011  16.533   5.723  0.0619  0.0329 -0.0580
36560W        W37424  15.924   6.498  12.317  0.0966 -0.1669 -0.0934
36561W        W37425  23.573  24.228  13.366  0.4707 -0.2032 -0.2671
36562W        W37426  26.081  25.231   1.319 -0.0282 -0.0110  0.0567
36563W        W37427  22.853  13.227  22.173  0.3255  0.0634 -0.1491
36564W        W37428   5.478  16.174  17.103  0.2961 -0.1899 -0.0403
36565W        W37429  26.190   5.479  17.852 -0.1251  0.0899  0.2386
36566W        W37430  17.834   7.935  22.445 -0.0919 -0.1182 -0.0142
36567W        W37431   4.568  11.061  28.115 -0.0075  0.1118  0.1867
36568W        W37432  28.913  24.103  29.046  0.3045  0.1572 -0.3894
36569W        W37433  27.728   4.328  14.371  0.2315 -0.3272 -0.0602
36570W        W37434  11.704  21.352   2.022 -0.4679  0.1972  0.2124
36571W        W37435  28.633   7.103  23.182  0.1002 -0.1222 -0.3384
36572W        W37436  27.665   0.827  27.911  0.2636  0.0199  0.0523
36573W        W37437   9.743  10.674  25.807 -0.0638 -0.0666  0.1084
36574W        W37438   7.946   3.788  25.251 -0.0435 -0.0756  0.0478
36575W        W37439   9.095  24.582   6.438 -0.0456  0.1171 -0.0216
36576W        W37440   5.976  10.291  28.034 -0.1396  0.0195 -0.0751
36577W        W37441  26.443   2.733   3.698 -0.1105 -0.3128 -0.1401
36578W        W37442  14.443  28.758  19.565 -0.3245 -0.1340 -0.2065
36579W        W37443   4.608  11.520  18.893 -0.1475 -0.1873 -0.0208
36580W        W37444  25.943   5.442  15.709 -0.0527 -0.1221 -0.1638
36581W        W37445  17.585  15.718   0.708 -0.1548 -0.1217 -0.0272
36582W        W37446  23.534   1.804  16.821  0.1492 -0.1746 -0.2307
36583W        W37447   3.686  13.648  24.925 -0.0831  0.2120  0.0822
36584W        W37448  17.655  20.507   1.717 -0.0794 -0.2267 -0.3714
36585W        W37449   0.220   6.341  12.803 -0.2848 -0.2300 -0.0769
36586W        W37450  12.959  20.126  20.873 -0.1912  0.4263  0.0354
36587W        W37451  12.587   6.848   0.497  0.2146  0.0641  0.0949
36588W        W37452   0.618   3.387  15.247 -0.1016  0.1633  0.2432
36589W        W37453  14.140   4.863  28.844  0.0052  0.0527 -0.1687
36590W        W37454  13.313  12.492  10.371  0.1039  0.0696  0.0359
36591W        W37455  14.483   6.717  16.243  0.1414  0.2034 -0.1490
36592W        W37456  24.488  11.618   8.647  0.0059  0.2368  0.0002
36593W        W37457   9.196   1.954  24.957 -0.1553 -0.1199 -0.1064
36594W        W37458   2.183  28.854  15.618  0.0781 -0.1045  0.1627
36595W        W37459  24.859  19.098  14.441 -0.2762  0.1924  0.2143
36596W        W37460  13.847  11.355  24.171 -0.1471  0.2328 -0.0233
36597W        W37461  11.575  25.800  27.207  0.0991 -0.0171  0.1612
36598W        W37462  26.070  12.774  14.044 -0.1760  0.2928  0.1394
36599W        W37463  28.039  25.774  10.106 -0.0088 -0.2392  0.0216
36600W        W37464   4.753  12.992  18.874 -0.0709 -0.0671 -0.1093
36601W        W37465  27.111  12.893  16.375  0.0836  0.1277  0.1135
36602W        W37466  15.642  23.418  15.077  0.0757  0.5344  0.1696
36603W        W37467   4.806  11.116  25.535  0.2996  0.0508  0.0727
36604W        W37468   6.226  25.566  13.242  0.0073 -0.0073 -0.2045
36605W        W37469  21.514   9.747   3.361 -0.1087 -0.1287 -0.2308
36606W        W37470  18.293  13.790   4.505  0.0643 -0.0587  0.0545
36607W        W37471  23.250   4.411  28.047 -0.0632  0.0724  0.0348
36608W        W37472  25.531  10.536  12.204 -0.0964  0.0118  0.2211
36609W        W37473  27.451  11.836  29.055 -0.1291  0.1153 -0.1411
36610W        W37474   2.289   4.481  28.700  0.1254 -0.1322 -0.0799
36611W        W37475  13.897   4.687   3.538  0.1590 -0.0744 -0.2277
36612W        W37476  22.634  20.749  18.710 -0.2263  0.1205  0.1790
36613W        W37477  21.257   9.026  18.965 -0.1250  0.0391  0.0175
36614W        W37478  28.776  17.134   9.839  0.0821 -0.2964  0.0095
36615W        W37479  19.392   1.766  20.531  0.0528 -0.1183 -0.0053
36616W        W37480  11.365   8.535   9.133 -0.1202  0.0589 -0.0274
36617W        W37481   3.675   7.221  26.638  0.1823  0.3159  0.0770
36618W        W37482  22.163   5.248   9.915 -0.0256 -0.1683 -0.3205
36619W        W37483  12.901   0.047  27.222  0.2011  0.3136  0.0764
36620W        W37484  21.230   5.086  13.578 -0.1385 -0.2004 -0.0681
36621W        W37485  22.952  22.996   5.841 -0.2328  0.2354 -0.0334
36622W        W37486  24.831  17.709  24.468  0.1529  0.3222  0.2033
36623W        W37487  24.569   9.438   8.565 -0.0164 -0.1653  0.0026
36624W        W37488  26.275  14.408  16.206  0.2639 -0.0846 -0.0923
36625W        W37489  22.802   9.063  20.249  0.0476 -0.0824 -0.2609
36626W        W37490   8.851   2.550  24.302 -0.1717  0.3857 -0.0683
36627W        W37491  11.777  25.828  21.831  0.1322 -0.1088  0.0291
36628W        W37492  26.988  20.762  21.701 -0.0612  0.2807  0.1453
36629W        W37493  26.727  24.762  22.607 -0.2631  0.1884  0.5184
36630W        W37494  16.220  27.368  18.059 -0.0118  0.3197 -0.1888
36631W        W37495  14.049  17.439  13.618  0.0753  0.1283  0.2936
36632W        W37496   2.048   3.761  19.743  0.0307 -0.1222 -0.0725
36633W        W37497  24.672  17.618  29.081  0.1718  0.2611  0.0811
36634W        W37498  22.932   3.075  26.732  0.4698 -0.0455 -0.1575
36635W        W37499  27.222  26.498   0.874  0.0024  0.0639  0.0960
36636W        W37500   5.343   4.142  27.992 -0.0406 -0.3145 -0.1579
36637W        W37501   9.965   4.822  23.930  0.0818  0.1274 -0.0482
36638W        W37502   5.353  19.872   7.727 -0.0033  0.0946 -0.1277
36639W        W37503  19.076  24.278  13.262  0.0819  0.2278  0.0835
36640W        W37504  12.023  21.787  28.807  0.1103  0.0638 -0.1340
36641W        W37505  18.990  10.928   7.445 -0.1754 -0.0803 -0.1315
36642W        W37506  19.676   7.854  26.015  0.1062  0.0573 -0.2274
36643W        W37507  15.957  21.098  24.547 -0.0102 -0.1134 -0.2241
36644W        W37508  21.745  23.802  20.213 -0.1011  0.3322 -0.0478
36645W        W37509   2.607  29.129   0.786  0.1942  0.0286 -0.4057
36646W        W37510  10.014   1.498  18.594 -0.1437 -0.2404  0.0924
36647W        W37511  25.745   9.913  28.940 -0.0518 -0.1865 -0.1220
36648W        W37512  22.866  19.456  19.581  0.0474 -0.1824  0.1626
36649W        W37513   0.375  27.392  19.027  0.3285 -0.0174  0.0514
36650W        W37514   9.619   6.574  12.922 -0.3258  0.2168 -0.1043
36651W        W37515  24.441  10.503  19.345  0.0892  0.0685 -0.3939
36652W        W37516  22.493  27.697  18.555  0.0029 -0.2817  0.1002
36653W        W37517   8.891  10.704  26.233  0.2073 -0.0922 -0.0303
36654W        W37518  15.248  20.499  15.653 -0.1446  0.2146  0.1910
36655W        W37519  25.481   8.355  26.154  0.3400  0.1448 -0.2999
36656W        W37520  27.551  24.775  28.811 -0.0807 -0.0340 -0.0610
36657W        W37521  11.053   9.893  15.830 -0.0365  0.0455 -0.0949
36658W        W37522  23.554  10.869  15.349  0.0617 -0.2027 -0.1574
36659W        W37523   4.362  17.019  22.887 -0.1391  0.0481 -0.0249
36660W        W37524  16.210   4.678  11.843 -0.0779  0.2318  0.0208
36661W        W37525  24.773   7.665  22.873  0.3474  0.0969 -0.0758
36662W        W37526   5.817   3.129  12.939 -0.2042 -0.2488 -0.0316
36663W        W37527   6.875  12.152  20.772  0.2647  0.1606  0.1132
36664W        W37528  14.382   5.616  17.304 -0.1716  0.4746 -0.0963
36665W        W37529   7.053   1.104   9.142  0.0655  0.0975 -0.0492
36666W        W37530  22.530  22.560  10.010 -0.1694 -0.3992 -0.2097
36667W        W37531  13.808  16.079  20.347 -0.1711 -0.0863 -0.3182
36668W        W37532  15.108   0.954  13.545  0.1505 -0.1009  0.3499
36669W        W37533  19.612  27.674  26.638 -0.0201  0.1062 -0.1448
36670W        W37534  20.875  28.073  21.683  0.0768 -0.0784 -0.1666
36671W        W37535  25.558   1.875  21.684 -0.2477  0.0237  0.0045
36672W        W37536   7.096   4.429  17.649  0.2907  0.2775  0.0086
36673W        W37537  10.069   3.581  26.648  0.0527 -0.0469 -0.1978
36674W        W37538  28.897   9.134  19.772 -0.0659 -0.0783 -0.0421
36675W        W37539   8.899  24.420  21.273 -0.1371 -0.1826  0.0554
36676W        W37540   7.376   1.846  13.173 -0.2216 -0.2535 -0.3425
36677W        W37541   2.635   3.887  28.268  0.0775  0.2049  0.0269
36678W        W37542  13.499   6.830  10.657  0.2819 -0.1912 -0.1601
36679W        W37543  25.912   6.509   2.153  0.2139  0.2321 -0.0152
36680W        W37544  20.616  15.642  17.712 -0.1226  0.0700 -0.1268
36681W        W37545   5.979   8.918  19.144 -0.4197 -0.1931  0.0293
36682W        W37546  11.447   5.598  24.380  0.0444  0.0831 -0.1083
36683W        W37547  11.784  22.428  19.017  0.0926  0.0886  0.1610
36684W        W37548  14.936   6.023  25.181  0.2190  0.0585 -0.2456
36685W        W37549  22.182  15.596   0.200 -0.0662  0.0622 -0.0694
36686W        W37550  11.750   0.282   7.643 -0.0447  0.2831  0.0640
36687W        W37551  24.018   1.814  14.102 -0.2591  0.0095  0.0018
36688W        W37552  24.046   2.104  26.622  0.1351  0.1880 -0.1367
36689W        W37553   0.989   9.547   1.913 -0.0880 -0.0005 -0.0374
36690W        W37554   3.712   2.928  12.219  0.2182  0.0314 -0.0763
36691W        W37555   2.495   8.837   8.369 -0.1342 -0.0418  0.0888
36692W        W37556  19.720   9.097  20.864 -0.0424 -0.2652 -0.1991
36693W        W37557   6.757  22.782  10.431  0.0178 -0.1635 -0.1410
36694W        W37558   2.763  12.844  23.536 -0.0565 -0.0314  0.4013
36695W        W37559   1.120  12.166  25.467  0.0305  0.1613  0.2480
36696W        W37560   4.890  20.166  26.456  0.1557  0.2539 -0.1268
36697W        W37561  16.922  19.949  20.117 -0.0849 -0.2811 -0.1481
36698W        W37562  17.899   7.316  19.805 -0.0152  0.2892 -0.2124
36699W        W37563  22.458   3.551  19.722 -0.1799 -0.1681  0.0418
36700W        W37564  15.685   3.916   5.124  0.3707  0.0001  0.1651
36701W        W37565   5.895  18.286  18.170 -0.2119  0.1209  0.0883
36702W        W37566  16.970  15.627   1.463  0.1356  0.0317  0.0557
36703W        W37567  20.308   8.418   2.912  0.0171  0.1451  0.0713
36704W        W37568  15.855   2.362  14.599  0.1848  0.1702 -0.0254
36705W        W37569   0.936   9.499  21.956 -0.1995  0.3222 -0.0940
36706W        W37570   1.053  24.944   7.593  0.1195  0.1391 -0.0995
36707W        W37571  24.643  27.469  16.890 -0.1742 -0.0034  0.4384
36708W        W37572  16.833  10.224  18.692  0.0356 -0.3564 -0.0273
36709W        W37573  17.927   1.591  14.380 -0.0023 -0.0343 -0.4214
36710W        W37574  14.837  26.851  13.202  0.4179 -0.2007  0.2581
36711W        W37575  28.338  28.657   7.128 -0.0135 -0.4023 -0.2002
36712W        W37576   7.769  15.903  19.320 -0.1291 -0.2235  0.0563
36713W        W37577  29.042   5.628  23.434  0.2041 -0.2635  0.0403
36714W        W37578   2.893   0.214   2.763 -0.1517  0.0472  0.0049
36715W        W37579  26.890  12.249  18.287 -0.0537 -0.2029 -0.1328
36716W        W37580  24.682   8.656  23.781  0.0817  0.0505  0.2585
36717W        W37581   1.040  16.779  21.865 -0.1008 -0.1258  0.0015
36718W        W37582   7.146  19.539   0.761  0.0824  0.0318 -0.4551
36719W        W37583   2.776   1.399  13.518  0.2304  0.1209 -0.1797
36720W        W37584   2.945  26.358  24.016  0.0715 -0.5499  0.0379
36721W        W37585   3.106  12.014   5.292 -0.1881 -0.0621  0.1956
36722W        W37586  14.402  19.282  18.985 -0.2413  0.0220  0.1305
36723W        W37587  24.683  12.379  28.039 -0.0571  0.1981  0.0179
36724W        W37588   0.657  18.039  13.052  0.0520  0.2767  0.2237
36725W        W37589  12.377  22.668  15.074 -0.2055  0.1785  0.1206
36726W        W37590  24.194   7.511  17.009 -0.0540 -0.1157  0.1730
36727W        W37591  23.621  10.786  27.705 -0.0172  0.1143 -0.0126
36728W        W37592   0.161   2.038  15.727 -0.0866  0.0764 -0.1812
36729W        W37593  22.094  22.770   3.294 -0.0589  0.4034 -0.3207
36730W        W37594   0.888  27.561  18.886 -0.2025  0.0803  0.0264
36731W        W37595  27.360  26.752  15.117 -0.0910  0.3539 -0.1574
36732W        W37596  19.162  14.566  12.067  0.0379 -0.3738 -0.0145
36733W        W37597  29.101   3.413   4.796  0.0458  0.2058 -0.2771
36734W        W37598  28.612  11.732  22.570 -0.2199 -0.1082 -0.0063
36735W        W37599  26.366   4.699  20.744 -0.1744  0.0945 -0.0808
36736W        W37600   3.123  12.023  23.503  0.1205 -0.0751 -0.3683
36737W        W37601  13.084  26.017  27.999  0.1468  0.0474  0.1313
36738W        W37602  19.080  10.690   0.770 -0.2392  0.0122 -0.0243
36739W        W37603   9.768  24.352  16.146  0.1786  0.2178  0.1230
36740W        W37604  22.928  20.834  12.178  0.0809  0.5455 -0.0974
36741W        W37605  27.013  11.457   0.523  0.0157  0.1391  0.1628
36742W        W37606  25.068  20.329  26.713 -0.0263 -0.2729 -0.1506
36743W        W37607  14.798  25.272  20.061 -0.0406 -0.0472  0.0218
36744W        W37608  18.072   5.284  23.428 -0.3415 -0.1849 -0.0687
36745W        W37609   3.039  25.311   3.880  0.0262 -0.2787 -0.2561
36746W        W37610   0.153   9.875  18.765 -0.0829 -0.2500 -0.2737
36747W        W37611   2.343  16.815  24.793 -0.0686  0.1138  0.0696
36748W        W37612  22.661  19.894  17.260  0.0038  0.0331 -0.2612
36749W        W37613   3.703  12.666   9.648 -0.0137 -0.1867  0.0462
36750W        W37614  17.179  29.111   1.184 -0.0131  0.3349 -0.3341
36751W        W37615   5.462  16.577  27.159 -0.0495  0.4718  0.1864
36752W        W37616  10.921  19.524   5.723  0.1073  0.1233 -0.0390
36753W        W37617  19.525  27.628   5.582 -0.0947 -0.2484 -0.0503
36754W        W37618  24.702   0.790  19.688 -0.0164  0.2041 -0.3532
36755W        W37619  20.175   4.731  18.202 -0.1953  0.1123  0.1909
36756W        W37620  15.130   5.213  16.556  0.0978 -0.1037  0.0712
36757W        W37621  22.759   5.827  23.411  0.1652 -0.2088  0.2944
36758W        W37622  13.387   7.702  21.574  0.0029 -0.0200  0.0337
36759W        W37623  26.051  16.403  13.211  0.2215 -0.0228  0.3943
36760W        W37624   7.635   3.921  20.802  0.1524  0.1319  0.0863
36761W        W37625  14.830   0.983  27.308 -0.2187 -0.1239 -0.1251
36762W        W37626  24.564  13.411   3.178 -0.1514 -0.1198  0.2515
36763W        W37627  13.192   9.159  22.385 -0.3872 -0.4081 -0.1498
36764W        W37628  17.936  19.183  22.717  0.0281  0.0628 -0.3322
36765W        W37629  27.457   4.204  22.938 -0.1709  0.3803  0.0690
36766W        W37630  16.931  11.906   8.626  0.2279  0.0073  0.1241
36767W        W37631  27.320  28.350  16.116  0.0787 -0.0201 -0.1158
36768W        W37632   0.545   9.087  16.102 -0.0180 -0.1311  0.2216
36769W        W37633  19.453   3.832  28.084 -0.0628  0.1563 -0.1349
36770W        W37634   0.913  23.388  10.326  0.1273  0.1447  0.1006
36771W        W37635  23.994  13.387   6.842  0.1841  0.0156 -0.1025
36772W        W37636  23.028  15.595  20.365  0.1745 -0.0748 -0.0773
36773W        W37637  26.855  22.783  21.268 -0.0051  0.2238  0.1002
36774W        W37638  20.494   8.690  21.540  0.1467  0.1282  0.0979
36775W        W37639  27.143  19.282  15.526 -0.0750  0.0546  0.1556
36776W        W37640  26.117   1.967   1.826  0.0472 -0.1812 -0.4349
36777W        W37641  13.454  15.207  14.135 -0.3448  0.1718  0.1360
36778W        W37642  12.356  17.399  17.495  0.1176  0.1873 -0.2860
36779W        W37643   3.888  17.906  24.989  0.0332  0.0775  0.4747
36780W        W37644  16.974  27.908  19.630 -0.1655  0.1252  0.0478
36781W        W37645   7.724  26.068  11.967  0.0007  0.0835 -0.2153
36782W        W37646  24.107   4.344  24.458  0.0185 -0.0911 -0.0383
36783W        W37647   4.069  10.410   8.205 -0.1739  0.1116  0.4243
36784W        W37648  19.513  15.373   9.435  0.1558  0.1168 -0.1919
36785W        W37649  19.726   2.077   1.161 -0.0441 -0.0114  0.0632
36786W        W37650  23.320  26.729   4.567  0.2958  0.1803 -0.1285
36787W        W37651  13.614  15.339   0.737  0.2652  0.2717  0.0686
36788W        W37652   2.295  17.033  28.799  0.0056 -0.1426  0.2377
36789W        W37653  25.254   3.130   5.245 -0.1479 -0.0594  0.2059
36790W        W37654  28.873  14.154  18.250 -0.0251  0.1775  0.1992
36791W        W37655  28.874  14.582  11.986 -0.4441 -0.0627 -0.0653
36792W        W37656   6.914  27.737  16.134 -0.1569 -0.1994  0.1540
36793W        W37657   7.523  18.942  14.276  0.0497 -0.0639  0.1907
36794W        W37658   3.350  18.082   9.937  0.1005  0.2246 -0.1715
36795W        W37659  11.365  23.213  17.728 -0.0281 -0.1420  0.0813
36796W        W37660  22.563   7.146  16.286  0.4797 -0.2142  0.0671
36797W        W37661  13.747  18.386   8.277  0.3758  0.0085  0.1377
36798W        W37662  13.700  26.661  18.689  0.1309 -0.2050  0.3087
36799W        W37663  16.890   2.064  20.861  0.0332  0.0030 -0.0941
36800W        W37664  12.707  24.344   6.299  0.1401  0.2298 -0.1151
36801W        W37665   1.174  17.825   4.619  0.0010 -0.1635  0.3095
36802W        W37666  11.984  13.456   9.203  0.0064  0.0841  0.1369
36803W        W37667  14.715  21.433   5.250  0.1553 -0.0637 -0.0072
36804W        W37668  14.722   3.080  14.765  0.0439 -0.0643 -0.0735
36805W        W37669  14.465  16.784  16.476 -0.1106  0.1154  0.0566
36806W        W37670   2.788   0.507   0.329  0.2131  0.2490 -0.0330
36807W        W37671  11.239   3.984  19.367  0.1918  0.2531  0.1793
36808W        W37672  28.825  11.615  18.907 -0.0122  0.2455 -0.0354
36809W        W37673  17.435   6.242  12.277 -0.0412  0.2977 -0.0305
36810W        W37674  13.715   8.095  14.760  0.1320 -0.1837  0.1341
36811W        W37675  21.370   4.130  14.237 -0.0766  0.2643 -0.2190
36812W        W37676  23.090   9.303  11.747 -0.3016 -0.1411 -0.2228
36813W        W37677  22.316  11.089  21.401  0.0199 -0.0779  0.2918
36814W        W37678   0.377  13.526   6.914 -0.0917  0.0920  0.0274
36815W        W37679  20.398  11.169  12.518 -0.0569  0.1958 -0.1835
36816W        W37680   0.029  24.017   7.635 -0.2613 -0.1108 -0.1951
36817W        W37681   1.875  12.814  18.059 -0.1839 -0.1892  0.0848
36818W        W37682   6.251   1.204  17.259  0.0263  0.1466  0.1719
36819W        W37683  26.942   4.857  19.237 -0.0365 -0.1630 -0.1376
36820W        W37684  25.229  25.965  24.067  0.1821  0.1391  0.0272
36821W        W37685   3.485  27.727  18.107  0.1303 -0.3230  0.1112
36822W        W37686  24.028  13.855  24.442  0.2330 -0.0026  0.1487
36823W        W37687  16.248   3.149  18.125  0.2699  0.1569  0.1461
36824W        W37688  28.195   5.761  18.751  0.2126 -0.1620 -0.0255
36825W        W37689  19.062  19.602  17.239  0.1881  0.1188  0.0902
36826W        W37690  22.029  11.203  27.433 -0.1772 -0.0584 -0.0805
36827W        W37691  22.514  11.677  14.136 -0.1673  0.2380 -0.1065
36828W        W37692  22.234  10.512   1.397 -0.0967 -0.1158 -0.1860
36829W        W37693  22.729   2.251   8.469  0.2988  0.3786  0.0609
36830W        W37694   0.087  16.658  14.169  0.1218  0.1511 -0.0679
36831W        W37695   9.853   5.916   0.536 -0.0218  0.0198 -0.4661
36832W        W37696   3.145   4.018   1.486 -0.1863 -0.0540 -0.1297
36833W        W37697  26.681   6.048  24.363  0.4603 -0.1241 -0.2406
36834W        W37698  21.175   8.185  25.738 -0.0290  0.1548 -0.1696
36835W        W37699  11.390  12.421  13.339 -0.0744 -0.0216  0.3498
36836W        W37700  20.452   5.943  24.279  0.1910  0.0893 -0.2780
36837W        W37701   0.807   6.705   4.723  0.3563  0.1994 -0.2004
36838W        W37702   1.190  18.716   7.214 -0.0511 -0.1233 -0.0329
36839W        W37703  13.806   2.798  17.080 -0.3240  0.3945 -0.2350
36840W        W37704  13.203  19.269  16.429 -0.2366 -0.1523 -0.1094
36841W        W37705  20.371   8.923  21.987 -0.1716 -0.0134  0.0605
36842W        W37706  12.916  26.415  13.922 -0.0681  0.2874  0.2345
36843W        W37707  15.895   0.119   2.873  0.2362  0.1663 -0.3129
36844W        W37708  15.238  15.117  13.300  0.0989 -0.2820 -0.0652
36845W        W37709   5.101  21.786   2.173  0.1330  0.0648  0.3482
36846W        W37710  27.562  15.451  28.007  0.2136  0.2072 -0.4316
36847W        W37711  26.576   8.715   1.854 -0.2850 -0.2473  0.1604
36848W        W37712  28.018   7.860  11.987  0.3760  0.1701  0.1275
36849W        W37713  29.014   2.308   6.180 -0.0082 -0.3106 -0.0951
36850W        W37714  26.479   2.301  12.939 -0.0957  0.1582 -0.0422
36851W        W37715  10.075  18.294  10.781  0.0488  0.0609 -0.0027
36852W        W37716  23.164   9.279   6.160 -0.2305  0.1942  0.2796
36853W        W37717  26.211  12.698  25.773 -0.0282  0.1772 -0.2043
36854W        W37718  17.396   8.184  14.326  0.2192 -0.2854 -0.3770
36855W        W37719   8.621   3.380   6.193 -0.2336  0.2491 -0.0768
36856W        W37720  24.808  23.592  11.816  0.0968 -0.0223  0.0365
36857W        W37721  27.830   9.239   5.365 -0.1043 -0.0076 -0.0612
36858W        W37722   8.462  27.904  16.969 -0.1323 -0.2227 -0.0327
36859W        W37723  19.180  26.719   1.057 -0.0721  0.0730 -0.2648
36860W        W37724  14.147  13.701  22.985 -0.1918  0.0861  0.1117
36861W        W37725  23.859   7.351  12.126  0.3382 -0.4226  0.1106
36862W        W37726  19.806  14.420  27.509 -0.0379  0.2506 -0.3649
36863W        W37727  14.278  18.048  22.462 -0.2624 -0.3128 -0.0494
36864W        W37728  15.826  18.523   0.650 -0.0819  0.0698  0.0360
36865W        W37729  19.342  12.766   9.411 -0.2675  0.1861  0.0276
36866W        W37730  28.585  28.528  25.311 -0.0746 -0.1584 -0.1582
36867W        W37731  15.425  22.910  22.329  0.0449 -0.1409 -0.2091
36868W        W37732   5.263  14.335  21.999 -0.2056 -0.0053 -0.1452
36869W        W37733  23.386  11.805  19.965 -0.5230  0.1327  0.1978
36870W        W37734   8.106   3.125   8.907  0.3156 -0.1735  0.2864
36871W        W37735  16.096   3.603  27.264  0.0421 -0.0114  0.1483
36872W        W37736  14.747  20.696   7.360 -0.0096  0.2845  0.0013
36873W        W37737  14.375  11.224  22.559 -0.2066 -0.2245 -0.0504
36874W        W37738  20.141  13.611  28.092 -0.3757 -0.1282  0.2336
36875W        W37739  13.343   4.243  16.642  0.0747 -0.3998  0.0622
36876W        W37740  11.368  18.803  17.002 -0.0124 -0.2039 -0.2811
36877W        W37741  19.579   5.217  13.884  0.0446 -0.4545  0.0484
36878W        W37742   7.407  18.577   3.783 -0.1297 -0.0942  0.1263
36879W        W37743  16.018  25.732  28.584  0.1040 -0.0767  0.2059
36880W        W37744  10.835  23.260  19.288  0.1203  0.2572  0.0275
36881W        W37745  18.301   4.409  24.965  0.0926 -0.5001 -0.1968
36882W        W37746   0.022   0.321  25.436  0.1455 -0.0272  0.0341
36883W        W37747  22.579  10.064  21.148 -0.0036 -0.1883  0.0836
36884W        W37748   0.063  22.890   5.399  0.1203 -0.0064 -0.1323
36885W        W37749   0.929  12.891  13.603 -0.0979 -0.0992 -0.0114
36886W        W37750  25.905   4.438  16.634 -0.3409 -0.0262  0.2250
36887W        W37751  19.638  14.831   1.609  0.0255 -0.0112 -0.0739
36888W        W37752  26.326   7.418  10.193 -0.0221 -0.0522  0.0240
36889W        W37753   7.688  28.368  26.494  0.0458 -0.0248  0.3474
36890W        W37754  17.395   5.946  23.881 -0.2949 -0.1681  0.2720
36891W        W37755   7.251  12.291  27.612  0.0497 -0.2535 -0.0388
36892W        W37756  24.153   5.089  13.506 -0.0387  0.1233 -0.0228
36893W        W37757   4.047  15.578  12.343  0.1913  0.1923 -0.4580
36894W        W37758  10.686   5.490  19.989 -0.0091 -0.4170  0.0900
36895W        W37759  27.040  10.167  18.167  0.1130  0.3841  0.1252
36896W        W37760  12.081   8.362   2.753 -0.0929  0.1836  0.0666
36897W        W37761  24.473   5.751  28.051 -0.2979 -0.0980  0.2809
36898W        W37762  20.418  14.216  17.130  0.0515 -0.1132  0.1837
36899W        W37763   1.203  15.418   6.470  0.1449  0.0211 -0.1926
36900W        W37764  19.378  21.484  11.272 -0.0530  0.0203  0.0930
36901W        W37765  18.245   2.645  20.222 -0.2287 -0.0955 -0.0152
36902W        W37766  22.569  16.214  23.788 -0.1736 -0.0658  0.2308
36903W        W37767   9.390  16.981  12.468 -0.1815 -0.1301  0.2565
36904W        W37768   9.416  10.925  28.440 -0.1211  0.0471  0.0013
36905W        W37769  24.871  24.681  23.071  0.3692 -0.1370 -0.0698
36906W        W37770  25.246  17.933   0.651 -0.2867  0.2653 -0.2193
36907W        W37771  15.668   9.113  21.366  0.1651  0.2139  0.1110
36908W        W37772  25.260  14.455  18.329  0.0269  0.2643 -0.0656
36909W        W37773  11.276  26.661   7.031 -0.0087  0.0325  0.0423
36910W        W37774   3.419  18.702  11.934  0.0156 -0.2884 -0.0370
36911W        W37775  15.435   4.368   7.684  0.0946 -0.0778  0.3336
36912W        W37776   9.941   1.188  21.434  0.0891 -0.0466  0.1098
36913W        W37777   7.731  19.405  11.578 -0.0730 -0.3192  0.1111
36914W        W37778  25.550  14.609   0.775 -0.0793 -0.0736  0.0692
36915W        W37779   5.790   4.939  15.246  0.3394  0.0041 -0.0395
36916W        W37780  20.479   9.586  27.478 -0.0555  0.2512  0.0951
36917W        W37781  19.039   6.453  10.972 -0.0036  0.1175 -0.3253
36918W        W37782  16.880   1.667   5.875 -0.4423  0.0627 -0.2598
36919W        W37783  14.339  12.798  15.528 -0.1472 -0.1380  0.0873
36920W        W37784   8.873  21.792  21.869  0.0445  0.0489  0.0271
36921W        W37785  14.018  15.120  14.219  0.1204 -0.1301 -0.1320
36922W        W37786   0.680  24.859  12.995 -0.1582  0.0569  0.1101
36923W        W37787  22.722  21.507  17.682  0.0824  0.2743 -0.1625
36924W        W37788  15.645  20.802  21.321  0.2873  0.3217  0.0777
36925W        W37789  20.407   6.837  11.939  0.0172 -0.1108  0.2728
36926W        W37790   3.002  12.836  14.652  0.0273  0.2474  0.0294
36927W        W37791  28.294   0.156  15.939  0.2409  0.0609 -0.0005
36928W        W37792  21.261  12.507   8.108  0.1672 -0.1819 -0.0725
36929W        W37793   7.357  19.485  16.992  0.0914  0.1193 -0.3859
36930W        W37794  23.938   8.242  24.967 -0.0378 -0.0814  0.1502
36931W        W37795   7.019  21.112  28.386 -0.2310 -0.4189  0.0345
36932W        W37796  12.450  12.652  15.046  0.0118  0.2926 -0.1691
36933W        W37797  24.298   9.465  11.362 -0.1947  0.2232 -0.1562
36934W        W37798  28.171  14.086  17.491 -0.1754  0.1634  0.1439
36935W        W37799   7.394  11.505  18.746  0.0254 -0.1134 -0.0692
36936W        W37800  28.652  23.827  13.345  0.3878 -0.1378 -0.0140
36937W        W37801  19.736  11.409  13.779  0.3312  0.1952  0.1523
36938W        W37802   7.167   9.169  11.309  0.2184  0.0598  0.2876
36939W        W37803  13.174  14.069  19.275 -0.0065 -0.1507 -0.1450
36940W        W37804   7.307  27.660  22.585  0.1387  0.1134  0.0581
36941W        W37805   5.033   5.906  15.435 -0.1430 -0.0479  0.1371
36942W        W37806  12.261  12.890  27.715  0.3516 -0.0593 -0.0645
36943W        W37807  27.412   1.269   2.363  0.0426 -0.1092  0.0530
36944W        W37808   6.822   3.354  22.869  0.1866  0.0560  0.0670
36945W        W37809  15.705  19.670  12.838 -0.0159 -0.0043 -0.0556
36946W        W37810  11.694  21.419   4.557 -0.2474 -0.1721  0.1241
36947W        W37811  26.508   9.805  16.788  0.1081  0.1179  0.0636
36948W        W37812  23.464   3.601   5.181 -0.0385 -0.3167  0.0575
36949W        W37813  11.867   8.591   9.188  0.2114 -0.2750 -0.3711
36950W        W37814  24.820   3.270  17.625  0.1781 -0.0622 -0.0836
36951W        W37815  22.178   4.002  18.078  0.1826  0.0073  0.2459
36952W        W37816  24.914   5.959  12.306 -0.0814  0.0962 -0.0026
36953W        W37817   4.654   9.258   0.447  0.1120 -0.2698 -0.1885
36954W        W37818   7.714  24.271   2.234 -0.2856  0.0875  0.2333
36955W        W37819   7.143  28.138  25.058  0.2198  0.1547  0.0655
36956W        W37820   5.126   6.149   1.192 -0.4694 -0.3949  0.1776
36957W        W37821  19.731  22.031  15.433 -0.0860  0.0902  0.1373
36958W        W37822   2.823  21.089  25.152 -0.2264  0.1524 -0.0325
36959W        W37823  16.080   3.534  23.357 -0.3788 -0.2157 -0.1573
36960W        W37824  20.810  18.195  16.449  0.1088  0.0814 -0.0386
36961W        W37825  24.656  11.811  20.877 -0.1298  0.0034  0.2938
36962W        W37826  22.944  21.317  12.976  0.2654 -0.1473 -0.0766
36963W        W37827  25.265  27.647  19.374  0.1333  0.0121 -0.1751
36964W        W37828  25.151  17.420   6.979  0.4928  0.4669  0.2470
36965W        W37829   0.281  15.639  27.687 -0.3023  0.3643  0.1235
36966W        W37830   2.692  11.858  15.354 -0.1874  0.0252 -0.1303
36967W        W37831  12.072  23.268  25.411  0.2056 -0.3536 -0.1640
36968W        W37832   7.739  12.887  26.222 -0.1569  0.0582 -0.1710
36969W        W37833   3.878  26.572  12.028 -0.0261  0.0286 -0.0736
36970W        W37834  27.741   1.059  25.515 -0.0219  0.1211  0.0285
36971W        W37835  26.948   2.671   8.573  0.0717  0.2804  0.0848
36972W        W37836  18.734  15.105  26.244 -0.2606  0.0227 -0.2187
36973W        W37837  15.262  20.063  15.831 -0.3766  0.1960  0.1534
36974W        W37838   1.421   4.056  27.712 -0.1752  0.1720 -0.2975
36975W        W37839   7.315   6.147  26.224 -0.2008 -0.0539  0.1028
36976W        W37840   3.408  12.738  28.972  0.0235 -0.1146 -0.2507
36977W        W37841  18.058  12.569  11.140 -0.0202 -0.0880 -0.2550
36978W        W37842  12.558  10.933  16.648  0.0943 -0.0471 -0.0579
36979W        W37843  23.552   4.143   9.568 -0.5731 -0.1166  0.0264
36980W        W37844  18.677  12.339  23.148 -0.1141  0.0899 -0.1457
36981W        W37845  13.888   5.045   0.954  0.3416 -0.0008 -0.1775
36982W        W37846  21.568  28.501   4.626 -0.2675 -0.0739  0.2984
36983W        W37847  27.328  22.033  28.200  0.1620 -0.0684  0.2930
36984W        W37848   1.355   6.678   4.632  0.0170  0.2368  0.0879
36985W        W37849  12.997  14.104   2.703 -0.2386  0.4041  0.0795
36986W        W37850  19.313   4.248  17.764 -0.1078  0.3927 -0.2002
36987W        W37851  17.842  11.701   9.065  0.0755  0.1501  0.0228
36988W        W37852  17.134   9.971   2.287  0.0616  0.3448  0.0863
36989W        W37853  11.517  13.254  12.460 -0.0565  0.1284 -0.0934
36990W        W37854  22.652  16.731  13.921 -0.0328 -0.1386 -0.0039
36991W        W37855  20.123  21.003  12.494  0.0014  0.1472  0.0256
36992W        W37856  11.884  25.096  23.563  0.0839  0.1488 -0.1510
36993W        W37857  15.409  15.669  12.391  0.2806 -0.0514 -0.0083
36994W        W37858   6.195  14.996   8.954  0.0114  0.0373 -0.0502
36995W        W37859   7.348   8.601  23.752 -0.1151 -0.0246 -0.0861
36996W        W37860   6.177   6.728  14.507 -0.0052 -0.0862  0.1413
36997W        W37861   3.409  20.557  25.706  0.0882  0.0154  0.0028
36998W        W37862  13.062  14.251  25.366  0.1217 -0.0281  0.0148
36999W        W37863  18.450  10.774  27.621 -0.1399  0.2009  0.0783
37000W        W37864  19.615  19.671   4.406  0.1428 -0.2772 -0.0897
37001W        W37865  21.723   4.208  24.203 -0.3198 -0.1282 -0.0800
37002W        W37866  18.668  25.462  21.549  0.0778 -0.2594 -0.0342
37003W        W37867  24.862   9.045   7.033  0.0903  0.1367  0.0792
37004W        W37868   9.023  26.692  14.592  0.3306 -0.0419 -0.0898
37005W        W37869  27.206  11.775   2.304  0.0294 -0.2147  0.0839
37006W        W37870  10.196  15.686  17.273 -0.1236  0.1194  0.1787
37007W        W37871   1.074  12.251  28.576  0.3178  0.1574  0.1830
37008W        W37872  27.284  24.630  15.722  0.0266  0.0621 -0.1103
37009W        W37873  19.108   8.807   1.164  0.1206 -0.0959 -0.1321
37010W        W37874  11.549   3.464  25.035 -0.0100  0.0528 -0.0101
37011W        W37875  14.731  25.714  28.225  0.1019  0.0325 -0.4580
37012W        W37876  23.340   0.167  11.826  0.2567 -0.3229  0.3111
37013W        W37877  25.964  11.588   8.680  0.2449 -0.2357  0.4899
37014W        W37878   7.837  14.983  12.269  0.0894 -0.0528  0.0856
37015W        W37879  13.697  25.099  22.867  0.1772 -0.1656 -0.0278
37016W        W37880  15.247   4.305  11.575 -0.2651 -0.2308  0.0900
37017W        W37881  20.357  20.115  17.331 -0.2368  0.0956 -0.4491
37018W        W37882  26.738   6.866   7.916  0.0418 -0.2443  0.0175
37019W        W37883  22.970  15.129  12.726 -0.1014  0.0912  0.1280
37020W        W37884  22.569  16.184   1.747 -0.2242 -0.3126 -0.0813
37021W        W37885  14.866  16.771  20.046 -0.0364 -0.2821  0.2727
37022W        W37886  22.572   6.693   1.065  0.1229 -0.2203  0.2534
37023W        W37887  22.693  19.800  29.010  0.1696  0.0504  0.4259
37024W        W37888  20.086   9.848  11.041  0.2009  0.0785 -0.1442
37025W        W37889  17.026   2.269  24.995 -0.0730  0.0078 -0.0399
37026W        W37890   1.254  18.903   2.051 -0.1122  0.0438 -0.0137
37027W        W37891  22.221   6.655  16.977  0.2815  0.0648  0.0010
37028W        W37892  24.462  14.200   6.601  0.1211  0.0380 -0.2597
37029W        W37893  24.509  12.363  21.908 -0.0220 -0.1369  0.1257
37030W        W37894   6.918  25.499  12.111 -0.1268 -0.2008 -0.1455
37031W        W37895   3.003  28.662  13.677 -0.0425 -0.1868 -0.1065
37032W        W37896  14.213  16.545  13.993  0.0088 -0.1506 -0.1183
37033W        W37897  28.982  21.179  10.825 -0.2149 -0.0254 -0.1900
37034W        W37898  16.781  14.317  22.573 -0.1036  0.2243  0.6157
37035W        W37899  10.607  10.336  20.041  0.0421  0.3231 -0.0608
37036W        W37900   2.553   9.061  25.238  0.1892 -0.0756  0.0446
37037W        W37901  18.673   6.386  23.029 -0.1845 -0.0278  0.0496
37038W        W37902  18.962  11.911  19.694  0.1724 -0.2784  0.1143
37039W        W37903   2.810   6.059  25.147  0.0726 -0.1755  0.0555
37040W        W37904   8.706  13.710  15.424  0.1377 -0.2604  0.3640
37041W        W37905  17.763  27.735   9.126  0.0101  0.0457  0.0986
37042W        W37906  16.798  20.838   3.363  0.1592  0.3710 -0.0878
37043W        W37907  23.596  10.341   0.154  0.2737 -0.0067 -0.1325
37044W        W37908   2.792  11.430   9.803  0.0318 -0.2331 -0.0822
37045W        W37909  10.196  20.141  27.635  0.0242  0.4482 -0.2916
37046W        W37910  27.217   5.327  24.800 -0.0476  0.2958  0.2443
37047W        W37911  26.090  16.793   6.147 -0.1402  0.2160 -0.2233
37048W        W37912   4.992   1.714   7.272  0.1880 -0.0390 -0.1944
37049W        W37913   5.472   3.722   4.761 -0.0579  0.0987  0.0495
37050W        W37914   1.459   0.673   6.041 -0.0609 -0.1478  0.0020
37051W        W37915   2.543  19.959  17.329  0.0641  0.4052  0.0614
37052W        W37916   6.060  22.147  23.289 -0.1556 -0.3084 -0.1048
37053W        W37917  15.673  18.563  23.264  0.3062  0.2067 -0.1027
37054W        W37918  23.334  25.698  13.259  0.2026  0.0841 -0.1015
37055W        W37919  19.111  14.039   1.338  0.1968 -0.1333 -0.0127
37056W        W37920   0.788  17.996   3.864 -0.1673  0.2529  0.0331
37057W        W37921  23.866   4.452  19.369  0.0228  0.2985 -0.1179
37058W        W37922  21.871  26.584   0.044 -0.0604  0.1702 -0.2778
37059W        W37923   3.749   6.611   0.779  0.2688  0.1552 -0.3387
37060W        W37924   3.524  10.663   1.217  0.2524 -0.3352 -0.1885
37061W        W37925   3.310  21.247  14.505  0.2774 -0.2083 -0.2627
37062W        W37926  21.738   8.127  12.828 -0.1968  0.0450 -0.2282
37063W        W37927   2.455  26.470   9.043  0.1655 -0.0112 -0.2074
37064W        W37928  23.436   4.324   2.903  0.0172 -0.0869 -0.0749
37065W        W37929  24.676  16.193  21.449 -0.1540 -0.1147 -0.0622
37066W        W37930  22.089  15.154   7.092  0.1724  0.2218  0.1242
37067W        W37931  29.074  17.362   2.796  0.1415  0.2514 -0.3135
37068W        W37932  26.714   4.786  10.686 -0.0533  0.1199  0.1341
37069W        W37933  16.574   3.363  16.787  0.0526 -0.0499  0.0587
37070W        W37934  26.924  23.467   1.105  0.0322 -0.0283  0.0246
37071W        W37935   4.807   9.473  28.902  0.4976  0.0426  0.2841
37072W        W37936  13.921  23.592   9.892  0.2199  0.2728 -0.1875
37073W        W37937   8.517   4.256  12.776  0.0467  0.3357  0.2044
37074W        W37938  12.328  26.307  22.752 -0.0711  0.2082  0.0466
37075W        W37939   8.068  24.861   3.653  0.0813 -0.2637  0.1092
37076W        W37940   8.735  26.474  26.023 -0.0429  0.1109  0.0982
37077W        W37941  19.561  21.291  14.562 -0.2320  0.4062  0.2127
37078W        W37942  17.318  21.338  10.221 -0.0481 -0.1906  0.3499
37079W        W37943  20.531  17.207   6.048 -0.2347 -0.0081 -0.1689
37080W        W37944  26.342  13.476  15.227 -0.1040 -0.0880  0.1867
37081W        W37945  24.297  15.046  23.237 -0.0167 -0.1178  0.2278
37082W        W37946   3.096   3.978  22.820  0.0202 -0.2591  0.0698
37083W        W37947   2.332  27.634  10.274  0.0171 -0.1243  0.0079
37084W        W37948  19.147  15.179  24.932  0.0062 -0.2455 -0.0640
37085W        W37949  16.822  22.756  20.339 -0.3830 -0.3128 -0.3180
37086W        W37950   1.507  24.871   8.453 -0.0386 -0.2492  0.4096
37087W        W37951  18.592  28.752   5.346 -0.2620  0.1994  0.0135
37088W        W37952  23.491  10.245   4.459  0.1278  0.1180  0.0125
37089W        W37953  28.832   6.426   6.936  0.1072 -0.0118 -0.0681
37090W        W37954  16.932  27.950   4.483  0.2496  0.0535 -0.0469
37091W        W37955  12.004  12.688  14.021  0.1548 -0.1996  0.2559
37092W        W37956  18.463  16.029  22.076 -0.2117  0.0067 -0.0336
37093W        W37957  25.450  22.846  26.090 -0.3737  0.0446 -0.0559
37094W        W37958  19.497  28.450  23.276  0.2741  0.2001  0.0406
37095W        W37959   5.789   6.720  27.267 -0.0213 -0.2536  0.0791
37096W        W37960  27.172   3.986  24.303 -0.1445  0.1804  0.1029
37097W        W37961  22.892  22.618   1.334 -0.1413  0.0202 -0.2968
37098W        W37962  10.726   5.546  24.885 -0.0796 -0.0196 -0.0162
37099W        W37963   3.270   8.246   4.038  0.0465 -0.4774  0.2259
37100W        W37964  19.745   2.084   8.885 -0.0734  0.2559  0.1712
37101W        W37965   8.491  28.805  18.444  0.0829  0.0245 -0.3983
37102W        W37966  24.252  19.910   1.235  0.1211  0.2279 -0.0847
37103W        W37967   3.282  26.866  10.951 -0.1532 -0.0860  0.1417
37104W        W37968  13.014  21.943  22.976  0.2147  0.0063  0.1246
37105W        W37969  25.411   3.655  20.367  0.3151  0.0765 -0.0300
37106W        W37970  19.442   1.732   3.441  0.0200 -0.0332  0.0001
37107W        W37971  21.552  19.246  25.148 -0.0660  0.0833 -0.0401
37108W        W37972  11.999   3.192  23.242  0.0795 -0.3132 -0.1545
37109W        W37973  24.057  15.197  24.497 -0.0476  0.1312 -0.0109
37110W        W37974  28.756   8.567  18.887 -0.2549 -0.0301 -0.2204
37111W        W37975   7.385  24.828  18.138 -0.1366 -0.0034 -0.0764
37112W        W37976  13.526   8.377   0.866  0.0065 -0.1174  0.0602
37113W        W37977  16.031   4.541   2.588 -0.1683 -0.2174 -0.1268
37114W        W37978  17.106  21.241  27.368 -0.0840 -0.0936  0.1214
37115W        W37979  21.237  26.078  24.983  0.1047  0.1731 -0.1074
37116W        W37980  18.453   9.082   3.500  0.0935 -0.0390  0.1304
37117W        W37981  17.977  25.612  23.997 -0.2467  0.0353 -0.2373
37118W        W37982   4.078  27.914   3.933 -0.3892 -0.0144  0.3525
37119W        W37983  11.642   5.466   1.211  0.0609 -0.1093 -0.0462
37120W        W37984  28.101   2.574  24.492 -0.1873  0.0068 -0.1892
37121W        W37985  11.653  14.763  18.453  0.0693  0.1697 -0.1165
37122W        W37986  21.550  17.298  24.557  0.0286 -0.1133 -0.1728
37123W        W37987  20.746   2.329   8.712  0.1700 -0.0555  0.2756
37124W        W37988   2.349  18.706   8.254 -0.3419  0.0066  0.0391
37125W        W37989  18.278   3.669  13.461  0.0583 -0.1278  0.1676
37126W        W37990  20.151  11.435  21.103  0.0093 -0.2008 -0.0795
37127W        W37991  23.489   7.080  26.528 -0.0532  0.2065 -0.1111
37128W        W37992  27.695  20.245   3.483 -0.4536 -0.1746 -0.1396
37129W        W37993  22.180   2.196  10.742  0.2379 -0.2415 -0.0696
37130W        W37994  23.212   1.764  19.436 -0.0921  0.2012 -0.1663
37131W        W37995  12.616  18.003  21.330  0.0827 -0.2274  0.1738
37132W        W37996  18.893   1.513  14.577 -0.1008  0.0307 -0.4521
37133W        W37997  11.305  17.565  21.556  0.1204 -0.1247  0.2391
37134W        W37998  24.976  12.743  28.625  0.0959  0.0212  0.1440
37135W        W37999   0.236  26.486  24.547  0.2857 -0.1910  0.3331
37136W        W38000   1.636   3.863  23.860  0.1383 -0.1179 -0.0215
37137W        W38001   3.668   2.236   8.392 -0.1270 -0.1606  0.1043
37138W        W38002  13.607   3.846  21.938  0.0003 -0.1319  0.1672
37139W        W38003   6.245  13.440   8.223  0.0053 -0.4492  0.1504
37140W        W38004  14.604   3.800  14.111 -0.2485 -0.2802 -0.0265
37141W        W38005  18.342  10.374  29.107  0.2762  0.1202 -0.0865
37142W        W38006  20.441   7.616  27.355  0.0592 -0.3221 -0.0161
37143W        W38007   1.137  26.685  13.332  0.0440  0.1644 -0.0143
37144W        W38008  15.201  21.356   0.414  0.0817  0.0882  0.0850
37145W        W38009  24.361   7.847  11.916 -0.1057 -0.0282  0.0242
37146W        W38010  21.726   8.050  20.625 -0.3165 -0.3499 -0.4055
37147W        W38011  19.512  14.268  24.808  0.1434  0.0466  0.0394
37148W        W38012  13.428   7.631  24.598 -0.0410 -0.1143 -0.3302
37149W        W38013   6.359   9.601   2.355  0.1072 -0.0308 -0.0070
37150W        W38014   2.555  11.814  10.125  0.2645  0.0560 -0.1116
37151W        W38015  16.164  14.348  15.625 -0.2006 -0.1732 -0.0232
37152W        W38016  20.074   7.406  26.025 -0.0057  0.0492  0.1208
37153W        W38017  17.732   0.674   3.902  0.3628  0.3693 -0.3463
37154W        W38018  21.919   4.884  24.122 -0.1530 -0.0350 -0.3200
37155W        W38019   7.161   4.856  20.626  0.4723 -0.0854 -0.0154
37156W        W38020  17.912   2.451  21.774  0.0756 -0.1007  0.1109
37157W        W38021   5.309   6.860  26.459 -0.1400  0.3472  0.0527
37158W        W38022  16.236  10.700  24.978 -0.0892 -0.1044  0.0220
37159W        W38023  24.176  26.542   3.833  0.0898 -0.3798  0.1491
37160W        W38024  28.592   9.655   9.134  0.1666  0.2031  0.3710
37161W        W38025   6.821   2.310  26.376  0.0165  0.3306 -0.0352
37162W        W38026  23.436   0.074  13.542 -0.0139 -0.0081  0.5433
37163W        W38027  10.499  23.792   1.418  0.0011 -0.1539  0.1182
37164W        W38028   7.663  25.712  14.371  0.3825 -0.1964 -0.1627
37165W        W38029  16.256  16.943  14.372  0.0619  0.1233  0.3104
37166W        W38030  16.326  14.366   9.735 -0.0361  0.2504  0.3519
37167W        W38031   0.031  15.795  28.317  0.0302  0.1708  0.0860
37168W        W38032   3.165   6.771  24.075 -0.0376  0.1255  0.0096
37169W        W38033  19.872  17.202  16.326  0.1951  0.2552 -0.0418
37170W        W38034   3.926   2.440  18.940  0.1376  0.3165 -0.2544
37171W        W38035  25.025  15.294   5.978 -0.4702  0.0904 -0.1188
37172W        W38036  12.458   0.026   8.183  0.1290  0.1371 -0.0222
37173W        W38037  22.839   9.449   1.602 -0.1435 -0.0527 -0.1278
37174W        W38038   4.861  19.384   6.558 -0.1258 -0.0434 -0.2754
37175W        W38039  26.226   4.774  10.793 -0.1340 -0.0993 -0.1513
37176W        W38040  16.436  18.896   7.667 -0.2036  0.1175  0.0840
37177W        W38041  12.237  25.229  20.635 -0.2821 -0.1288 -0.1332
37178W        W38042  23.748   3.666   7.514 -0.0289 -0.0731  0.3350
37179W        W38043   8.917  21.957  25.421  0.3352 -0.2298 -0.1716
37180W        W38044  18.978   8.109  20.166 -0.1479  0.0558  0.2650
37181W        W38045  18.217  12.032  16.966 -0.1897  0.0028  0.2352
37182W        W38046  25.853  24.270   5.595 -0.4000 -0.1630 -0.0655
37183W        W38047  14.673  26.875   6.964  0.2407 -0.0254 -0.0909
37184W        W38048  15.250  18.874  16.885  0.2278 -0.1556  0.0084
37185W        W38049   7.540  10.163  15.541  0.0681  0.2977 -0.1295
37186W        W38050   3.655   1.430  22.266 -0.1913 -0.0448  0.1081
37187W        W38051   3.017  12.181  21.813  0.0088 -0.0325 -0.1452
37188W        W38052  21.792  14.266  11.380 -0.3040 -0.2122 -0.2160
37189W        W38053  28.103   0.574  22.929  0.0019 -0.0625  0.1405
37190W        W38054  21.834  12.250  22.860  0.3332  0.2590 -0.1958
37191W        W38055  22.189  18.108  15.855 -0.1245 -0.3721  0.1288
37192W        W38056  17.262  17.568  18.225  0.0858  0.1568 -0.0244
37193W        W38057  16.321  11.060  20.845 -0.0113 -0.0631  0.1163
37194W        W38058   1.206  23.594  11.249 -0.0039 -0.1420  0.0524
37195W        W38059   4.947  10.795  17.314  0.0813  0.1868  0.1853
37196W        W38060   1.814  19.890  26.317 -0.0847  0.2605  0.0223
37197W        W38061   4.678  20.149   3.307 -0.0241  0.2648  0.1646
37198W        W38062  10.560  21.268  21.116 -0.2027  0.2865 -0.2125
37199W        W38063   8.209  18.326  21.015 -0.0502  0.0001 -0.0262
37200W        W38064   2.827   4.614  15.736 -0.2190 -0.2321  0.0782
37201W        W38065  22.996   3.406  28.034 -0.1823 -0.0030 -0.0572
37202W        W38066   0.388  18.090   0.082  0.0243 -0.0519 -0.0253
37203W        W38067  17.556  16.491   7.828  0.2524  0.1506  0.0412
37204W        W38068   0.165  14.750  21.094 -0.1289 -0.0555  0.3014
37205W        W38069  14.371  28.770   0.002  0.1961 -0.2359  0.2454
37206W        W38070  26.908  16.936  20.270  0.2844 -0.0445 -0.1901
37207W        W38071  19.228  12.224  21.615  0.0045  0.2682 -0.4840
37208W        W38072  26.760   2.657   4.900 -0.3593 -0.2711  0.0120
37209W        W38073   0.309  21.864   7.542  0.3033 -0.2004 -0.0782
37210W        W38074   1.172  28.749   2.433 -0.0869  0.0298 -0.1131
37211W        W38075  14.260   4.585   8.209 -0.2761 -0.2570 -0.2438
37212W        W38076   9.817  26.795   6.712  0.1124 -0.0228 -0.1572
37213W        W38077  28.493  12.292  28.324 -0.0086 -0.0505 -0.0977
37214W        W38078  15.219  13.280  20.611 -0.0535  0.0438  0.1422
37215W        W38079   2.947  19.186  14.865  0.0825 -0.1117 -0.0895
37216W        W38080  18.396  14.657  22.593  0.0898  0.1203  0.3077
37217W        W38081   8.234  17.928  25.807 -0.2224 -0.1342 -0.1195
37218W        W38082  28.768  15.992   8.759 -0.0943 -0.2881  0.0106
37219W        W38083  27.629   0.805  24.122 -0.0260 -0.1951  0.0213
37220W        W38084  14.056  20.717  15.135  0.2792  0.0939  0.0213
37221W        W38085   3.636   0.110  23.728 -0.0159 -0.2423 -0.1494
37222W        W38086  17.026   4.149  16.931 -0.1677 -0.0435  0.2442
37223W        W38087  21.749  14.591   0.737  0.3911 -0.2847 -0.2477
37224W        W38088  20.503  13.200   7.263 -0.0627  0.0202 -0.3774
37225W        W38089  13.538   4.949  17.177  0.2054 -0.0629  0.1354
37226W        W38090   7.585   6.968  21.613  0.0983  0.0439  0.0386
37227W        W38091   7.012   1.452   6.357 -0.1752  0.0158  0.1525
37228W        W38092  21.383   9.321  19.944 -0.1017  0.0700 -0.0455
37229W        W38093   9.600   8.551  12.192  0.3256  0.1621  0.3496
37230W        W38094  11.705   8.641  20.977 -0.0100 -0.1352  0.2343
37231W        W38095  24.959  28.526  13.511 -0.1253 -0.1399 -0.0377
37232W        W38096  26.290   3.671  23.872 -0.1148 -0.1415  0.2278
37233W        W38097  17.216   7.043  15.540  0.1724  0.0210 -0.3226
37234W        W38098  11.823   4.406   3.001 -0.2714 -0.1224  0.1711
37235W        W38099  26.706  10.718  26.598 -0.1674 -0.0944  0.1034
37236W        W38100  25.938   1.243  20.156 -0.1487 -0.1740 -0.2875
37237W        W38101  10.030  25.964  25.876  0.1107  0.1191 -0.2283
37238W        W38102  19.796  20.662  12.538  0.0345 -0.0034  0.1306
37239W        W38103  26.269  27.267  17.735  0.0019  0.2052  0.0827
37240W        W38104  14.290  17.758  26.658 -0.0073 -0.4293  0.0286
37241W        W38105   6.572   1.892   0.448  0.0715  0.2226 -0.1791
37242W        W38106   3.813  25.464  28.030 -0.2747 -0.1877  0.0698
37243W        W38107   7.737   6.065  11.302  0.0826  0.1658  0.0272
37244W        W38108  25.882   9.493  21.871 -0.0722  0.0398  0.0562
37245W        W38109  24.482  24.971  15.162  0.2178  0.0771 -0.1291
37246W        W38110   2.096   5.649  14.473 -0.0397 -0.1427  0.0286
37247W        W38111   2.421  22.367  18.966 -0.0096 -0.0680  0.0180
37248W        W38112  14.242  27.770  18.559  0.1254 -0.0450 -0.0577
37249W        W38113  26.056  28.286  28.169  0.1732  0.1801 -0.1660
37250W        W38114   5.993  16.021  18.948  0.2406  0.0498  0.1489
37251W        W38115  13.668   6.222   9.645  0.0897 -0.3851 -0.0829
37252W        W38116  18.887   7.254   5.039 -0.0167 -0.1736 -0.2272
37253W        W38117  21.854  18.564  25.728 -0.0911  0.0913  0.0708
37254W        W38118   8.141  11.627   2.136  0.3131 -0.0905  0.0375
37255W        W38119  13.236  16.003  21.831 -0.0942  0.1089 -0.1283
37256W        W38120   8.303  27.844  20.316 -0.0167  0.0284 -0.1680
37257W        W38121  15.628  27.118  12.605  0.3269 -0.0206 -0.4949
37258W        W38122  24.387   0.062  22.507  0.3347  0.2107  0.0382
37259W        W38123  24.703  27.695  17.331 -0.0230 -0.0520  0.0656
37260W        W38124  23.767   4.561   0.772 -0.0965 -0.2464  0.1199
37261W        W38125  18.504  22.359   2.003 -0.0466  0.0383 -0.1210
37262W        W38126  18.130  16.221  20.551  0.0827  0.0090  0.0059
37263W        W38127  24.406   8.000   1.084 -0.1701  0.0202 -0.0171
37264W        W38128  26.462  10.028  18.894 -0.1225 -0.3325 -0.1722
37265W        W38129  21.182   9.045  15.612  0.1958 -0.0758 -0.0236
37266W        W38130  28.445   6.282  26.497 -0.0986  0.1157 -0.1096
37267W        W38131  27.874   4.355   0.105 -0.1298  0.0593 -0.4195
37268W        W38132  20.286   2.239  22.000  0.0335  0.0343 -0.0133
37269W        W38133  26.832  28.758   7.177  0.1934  0.0717  0.0738
37270W        W38134  24.229  11.150  26.916 -0.0880 -0.0906  0.0790
37271W        W38135  13.891  27.099  11.790 -0.1009 -0.0640  0.0120
37272W        W38136   1.054  20.737  23.524 -0.1050 -0.2801  0.1453
37273W        W38137  22.811   7.556  23.050 -0.1046  0.2092 -0.0667
37274W        W38138  19.316   2.677  13.854 -0.1471 -0.0518 -0.0746
37275W        W38139  17.490  24.242  18.087  0.0046 -0.0625 -0.0192
37276W        W38140  22.855   4.121  23.291 -0.3589 -0.1190 -0.0402
37277W        W38141   5.638  16.953   5.968  0.1046 -0.1302  0.0658
37278W        W38142   6.667   2.969  19.266 -0.2441  0.1860  0.1349
37279W        W38143  25.373  20.733  11.306  0.2710  0.0098  0.2161
37280W        W38144   4.978  22.909  22.686  0.0158 -0.0185 -0.2545
37281W        W38145   0.949   0.570  11.898 -0.1242 -0.1619  0.1714
37282W        W38146  19.425  29.112  25.433 -0.4684  0.1233 -0.2240
37283W        W38147   0.426  15.243   4.275  0.2552  0.0048 -0.0269
37284W        W38148   7.672  14.415   8.044 -0.0014 -0.2748 -0.1749
37285W        W38149  27.389  26.712  13.511  0.0215  0.0520  0.2810
37286W        W38150  18.532  18.793  14.542 -0.1707  0.1108 -0.0841
37287W        W38151   1.810  11.870   3.690 -0.3391 -0.0691  0.0991
37288W        W38152  17.192  12.528   3.515 -0.1203  0.1246 -0.1062
37289W        W38153  27.988  10.341   1.961 -0.0651 -0.2009  0.2475
37290W        W38154  22.389  10.507  12.471 -0.0061  0.1829 -0.0397
37291W        W38155  16.227  12.004  27.509 -0.2195  0.1962  0.1370
37292W        W38156   2.926   8.749  26.318  0.0315  0.0713  0.0072
37293W        W38157  27.479   7.748  15.048 -0.1829  0.2498  0.2250
37294W        W38158   3.357   8.332  28.518 -0.2714 -0.0983  0.0260
37295W        W38159   2.677  28.450  17.129 -0.0589 -0.1963 -0.2412
37296W        W38160  20.962   8.895  11.010  0.1801  0.0049  0.0406
37297W        W38161  13.646  16.502  13.224 -0.4078  0.1581  0.0623
37298W        W38162  21.301  17.129   1.625 -0.4266 -0.1769 -0.1461
37299W        W38163   0.689   4.323   1.138  0.3714  0.2092  0.1162
37300W        W38164  20.655  13.828  23.233  0.0037 -0.3025  0.3785
37301W        W38165  27.436   5.803  22.018  0.0595  0.1601  0.0662
37302W        W38166  19.247   6.231  12.924 -0.1976 -0.0313 -0.3095
37303W        W38167  17.230  12.382  27.906 -0.0622 -0.0187 -0.3933
37304W        W38168   3.733   2.884   7.427 -0.1904  0.1983  0.1131
37305W        W38169   7.619   0.427   8.461  0.0741  0.0903  0.2500
37306W        W38170   9.724  19.905   3.415  0.1942 -0.1261  0.0742
37307W        W38171  16.385  17.234  20.597 -0.2296 -0.1436 -0.1795
37308W        W38172   8.914  18.435  28.200  0.1676 -0.1187  0.0463
37309W        W38173   9.540  12.795  17.897 -0.0325  0.2620  0.2594
37310W        W38174  19.630  16.889   4.654  0.0593 -0.2711 -0.0647
37311W        W38175  17.162  20.411  27.431  0.0377  0.2220 -0.2849
37312W        W38176  19.889  15.385   2.448  0.1846 -0.0565 -0.3089
37313W        W38177  20.265  28.882  23.235 -0.1450  0.0684 -0.1707
37314W        W38178  11.018  19.865  14.115 -0.0586  0.1199  0.0253
37315W        W38179  20.695  11.293  14.279 -0.0226  0.2666  0.0857
37316W        W38180  20.283  28.073  23.019 -0.0643 -0.1537  0.0345
37317W        W38181  13.857  12.135  26.039 -0.0282 -0.1909 -0.0850
37318W        W38182  22.359  18.856  13.137 -0.4450  0.0554  0.2484
37319W        W38183  18.987  14.512  26.348  0.0066  0.2022 -0.1565
37320W        W38184  27.647   3.948  26.297 -0.4003 -0.1592  0.4220
37321W        W38185  20.616   0.776   2.731  0.0681 -0.2730 -0.3492
37322W        W38186   6.515  20.752   5.863  0.2042  0.1885 -0.0934
37323W        W38187  28.193   7.909  23.193 -0.2045 -0.3347  0.1429
37324W        W38188  26.423  11.449  20.574  0.1397  0.1090 -0.0338
37325W        W38189   0.506   3.674   8.765 -0.2238 -0.1195  0.0646
37326W        W38190  27.495   1.458   8.065  0.0369  0.3005 -0.2855
37327W        W38191  17.773  29.053   2.434  0.3233  0.2601 -0.1224
37328W        W38192  27.655   7.598  20.128 -0.0808  0.2659  0.0591
37329W        W38193   4.074   3.508  14.404  0.1291 -0.3224 -0.1043
37330W        W38194  21.994   5.050  18.009  0.0214 -0.1715 -0.3661
37331W        W38195  21.796   2.501   1.060 -0.0962  0.0950 -0.0328
37332W        W38196  28.445   7.465   1.263 -0.2680 -0.0332  0.0117
37333W        W38197  16.700  25.290   1.742  0.1558 -0.2618 -0.0185
37334W        W38198  25.099   1.677  23.967 -0.3144  0.0149  0.3704
37335W        W38199  25.880  10.874  25.955 -0.3554  0.4751  0.0923
37336W        W38200   3.305  27.685  21.980  0.1607  0.3157 -0.3184
37337W        W38201  13.843  20.499   9.881 -0.0124  0.2208  0.0508
37338W        W38202  22.409   1.232  26.591 -0.2480 -0.2620  0.1170
37339W        W38203  23.139  18.209  27.883  0.1634 -0.2026  0.0517
37340W        W38204  18.728  13.980  15.201  0.2742 -0.2573  0.1965
37341W        W38205   0.738   6.438   0.167 -0.2036  0.0506  0.0477
37342W        W38206  28.423   5.369  27.194 -0.0140  0.2122  0.0841
37343W        W38207  19.368   2.796  28.380 -0.1823  0.0518 -0.2510
37344W        W38208  15.045  15.562  20.392  0.3820  0.0143  0.0738
37345W        W38209  14.939   6.099  14.275  0.0217  0.0292  0.0199
37346W        W38210   4.106  19.437  18.538 -0.0664  0.1218  0.3237
37347W        W38211  24.666  15.087   3.440 -0.2381  0.2601 -0.2201
37348W        W38212   3.416  10.907  27.116  0.0840  0.0943 -0.1047
37349W        W38213   6.817  16.143  27.927 -0.1464 -0.1554  0.2721
37350W        W38214  12.981  17.203  18.646 -0.2285  0.0386  0.0019
37351W        W38215  11.205  14.533  14.918 -0.0186  0.0521  0.2080
37352W        W38216  12.956  23.531  15.938 -0.1569 -0.2362 -0.2899
37353W        W38217   8.186  19.494  18.193  0.0733 -0.0469  0.0317
37354W        W38218  28.132  22.612   1.659 -0.0451 -0.1584  0.1039
37355W        W38219  22.687  11.644  27.011 -0.0324  0.2579  0.0321
37356W        W38220   1.373   7.991   3.532 -0.1258  0.0957 -0.2853
37357W        W38221   3.145  25.808  10.095  0.3996 -0.0943  0.1158
37358W        W38222   0.339  21.728  28.038  0.2595 -0.1903  0.0214
37359W        W38223  26.332   6.241  28.223  0.1400  0.2339  0.2523
37360W        W38224  22.318   0.984  10.217  0.1872  0.4326 -0.1526
37361W        W38225  15.496   0.997   4.803  0.1559  0.1425  0.0333
37362W        W38226  16.240   1.229   4.343  0.0866 -0.1660 -0.3025
37363W        W38227   5.000   1.078  10.000  0.0782  0.2553  0.0573
37364W        W38228   4.710   4.799  16.795 -0.0153  0.1639 -0.1461
37365W        W38229  13.275  18.439  15.146 -0.0250 -0.2344 -0.2666
37366W        W38230  17.442  17.791  25.617  0.2523 -0.1903 -0.2546
37367W        W38231  27.113   8.036   4.811  0.3174 -0.1262  0.0234
37368W        W38232  10.379  26.915   3.331  0.2442 -0.2160  0.0241
37369W        W38233   1.253   7.083   9.316  0.2442 -0.0959  0.0040
37370W        W38234  17.218   7.573  11.540  0.2858  0.0578 -0.1792
37371W        W38235  19.257  26.331   7.128 -0.0213 -0.0548 -0.0336
37372W        W38236  25.171  26.332   8.681 -0.0395  0.1290  0.1106
37373W        W38237  18.078   6.493  17.364  0.0899  0.1614 -0.3159
37374W        W38238  16.381  10.804   0.221  0.1069  0.2535  0.1828
37375W        W38239  25.659   9.466  22.329 -0.0478  0.1888  0.4016
37376W        W38240  11.976   8.746  26.191 -0.1100 -0.3601  0.1321
37377W        W38241  10.076  14.373   4.713  0.1982 -0.1779  0.0799
37378W        W38242   3.441   3.209   9.453  0.1119  0.2940  0.1196
37379W        W38243  28.233  11.774   6.867 -0.0863  0.0669 -0.0416
37380W        W38244   5.723  18.411  17.248 -0.1251  0.1156  0.3267
37381W        W38245  27.089   2.326  25.730 -0.0838  0.0728  0.1295
37382W        W38246  17.928  11.274  18.434  0.0074 -0.0704 -0.3521
37383W        W38247  20.372  19.824  25.364  0.0507 -0.2158 -0.2739
37384W        W38248  24.254   8.024  26.365 -0.1715 -0.0456  0.0654
37385W        W38249  17.064   8.939  16.118  0.1742 -0.3742  0.0205
37386W        W38250  19.793  19.419   0.422 -0.1081  0.0511 -0.0441
37387W        W38251  12.318  14.362   2.446 -0.0396  0.0033  0.2755
37388W        W38252   7.101   2.122  29.093 -0.1558  0.1629 -0.0010
37389W        W38253  12.260  14.961   1.812  0.2642 -0.2078 -0.1266
37390W        W38254  23.703  15.463  26.608 -0.2843 -0.2992  0.0523
37391W        W38255  24.599  18.120   2.372  0.3163 -0.1528 -0.0720
37392W        W38256   1.920   5.105   5.022 -0.2483  0.0980  0.1143
37393W        W38257  10.889  12.109   4.015  0.1568  0.3018  0.2452
37394W        W38258  15.680   8.998  13.966  0.0418 -0.0570  0.2984
37395W        W38259  25.864   3.457   0.602 -0.0584  0.0661  0.1334
37396W        W38260   1.427  10.379  23.683  0.2136 -0.0514 -0.3025
37397W        W38261  16.252   3.764  19.557 -0.0229  0.1267 -0.5295
37398W        W38262   6.044   2.242   9.632 -0.2724 -0.1271  0.0902
37399W        W38263   1.549  12.450  28.723  0.3450 -0.1294 -0.1053
37400W        W38264  26.909  22.333  17.273  0.0286 -0.1104  0.4527
37401W        W38265  17.159  11.603  22.543  0.1147 -0.1740 -0.1311
37402W        W38266  17.988   5.639  26.762  0.1512 -0.3003  0.2100
37403W        W38267   3.507   8.141  23.652 -0.2941  0.3826  0.0256
37404W        W38268  25.429  20.305  21.659  0.1100 -0.0223 -0.0764
37405W        W38269  13.268  12.943  16.683  0.0964 -0.1424  0.2056
37406W        W38270   2.666  23.288   3.162 -0.0651  0.0378  0.1283
37407W        W38271  25.222   8.878   6.666 -0.1132 -0.2269 -0.0354
37408W        W38272   8.053  24.518   8.980 -0.1250  0.0741  0.0276
37409W        W38273  11.136  12.608   3.357  0.1069  0.4183 -0.0049
37410W        W38274  14.021  12.444  21.782  0.0041 -0.1624  0.2025
37411W        W38275  20.600  20.073   8.659  0.0690  0.1089 -0.3228
37412W        W38276  15.153  22.451  28.786  0.1453 -0.0296  0.1857
37413W        W38277  23.160   9.617  25.260 -0.2045  0.1635 -0.1754
37414W        W38278   7.083  26.202  27.553  0.2167 -0.0105  0.0513
37415W        W38279  14.067  19.294  22.752 -0.0079  0.3610  0.0474
37416W        W38280   3.913  25.599  11.719  0.2021 -0.0083  0.0935
37417W        W38281  11.163  18.699   7.208 -0.0939 -0.1531  0.1143
37418W        W38282  16.644  14.975   3.409  0.1549 -0.0642 -0.0481
37419W        W38283  19.301  27.879  17.692  0.1361 -0.0481 -0.2178
37420W        W38284   8.970  12.810   2.736  0.0037  0.0365 -0.0237
37421W        W38285  24.515   9.775   0.392 -0.0371  0.4101  0.1695
37422W        W38286  13.076   1.420   3.637 -0.4137  0.3164  0.3023
37423W        W38287  12.247  17.575   2.876 -0.0192 -0.3568  0.1055
37424W        W38288  22.790  22.004  29.052  0.0884 -0.0863  0.2596
37425W        W38289  20.541   6.974  24.426  0.2650  0.0365 -0.3319
37426W        W38290   9.383  17.341   8.921  0.2655 -0.3157 -0.0040
37427W        W38291  18.575  23.984  18.650 -0.3423  0.0025 -0.1191
37428W        W38292  16.387  23.042  23.034  0.3228  0.3562 -0.0256
37429W        W38293  28.333   1.634   6.553 -0.0991 -0.0424 -0.2530
37430W        W38294  24.246  12.295  18.835 -0.0436  0.4118 -0.1203
37431W        W38295  23.201   2.637  11.516  0.4987 -0.2901  0.1010
37432W        W38296  18.361   5.759  22.545 -0.0060 -0.0888 -0.2352
37433W        W38297  15.422  15.032  28.888 -0.1991 -0.2330 -0.1207
37434W        W38298   1.538   1.447  15.013  0.0047 -0.2989 -0.2300
37435W        W38299  11.157  14.194  19.059 -0.2387 -0.0616  0.0419
37436W        W38300   0.897  14.158   1.516 -0.0884  0.3008 -0.0998
37437W        W38301  26.964   9.951   3.659  0.1486  0.2017  0.1544
37438W        W38302  22.615  10.946   5.531 -0.0622  0.0570  0.2493
37439W        W38303  23.075   3.925  14.135 -0.5122  0.0156  0.1422
37440W        W38304  21.174   2.611   0.892  0.1863 -0.0532  0.1046
37441W        W38305  20.717   9.852   0.981 -0.3330  0.0059 -0.3925
37442W        W38306   2.065   1.439  19.120  0.2512  0.3679  0.0726
37443W        W38307   6.248  13.216  10.927  0.0012 -0.0814 -0.0784
37444W        W38308  20.875  12.573  27.410 -0.0982  0.2730 -0.1950
37445W        W38309  17.168  16.787   0.283 -0.0974  0.0102 -0.4066
37446W        W38310  22.644  24.774  27.565  0.0100 -0.1027  0.0795
37447W        W38311  11.869  12.940  26.534 -0.2965 -0.1037 -0.0315
37448W        W38312  17.484   4.173   0.726  0.2493 -0.3510 -0.1588
37449W        W38313  18.792   3.118  10.115 -0.2547 -0.4063  0.0396
37450W        W38314  28.942  16.609  26.659  0.0206 -0.0866  0.2005
37451W        W38315   1.833  23.858  26.614 -0.3567 -0.1024 -0.0636
37452W        W38316  21.301   5.995  19.799 -0.1925  0.0389  0.0960
37453W        W38317  14.400  14.341  14.541  0.0989 -0.2955  0.1141
37454W        W38318  20.723  19.572  25.763 -0.1751 -0.3962 -0.0721
37455W        W38319  20.196  15.953   3.460  0.0181  0.5012 -0.1422
37456W        W38320  18.127   4.198   6.130 -0.1143  0.5175  0.1073
37457W        W38321  26.367   9.734  17.335 -0.1117  0.0440 -0.1150
37458W        W38322   7.853  27.218  26.145  0.0984  0.0391  0.2207
37459W        W38323   7.139   7.617  19.235  0.1919  0.1533 -0.1754
37460W        W38324  28.666  28.895  13.570  0.0421  0.1197 -0.1089
37461W        W38325  28.637   6.698  26.196 -0.1167  0.1386 -0.0503
37462W        W38326   1.680   9.717  19.111 -0.0906  0.2383 -0.1179
37463W        W38327  24.819  17.650  28.389  0.2303  0.2309 -0.1793
37464W        W38328   4.655  18.723  21.626  0.0339  0.1343 -0.2002
37465W        W38329  13.096   4.717  21.371  0.0035  0.0292  0.0021
37466W        W38330  25.855  11.816  14.536  0.2195  0.1175  0.1736
37467W        W38331  18.576  14.385  25.457 -0.5299  0.1339 -0.0132
37468W        W38332  25.900   1.720  26.928  0.0158  0.0265 -0.1548
37469W        W38333  25.439  19.958  12.305  0.0615 -0.1806  0.2986
37470W        W38334  28.044  11.286   0.617 -0.1340 -0.1107  0.1159
37471W        W38335  13.043  10.408  20.639  0.0079 -0.1026 -0.1757
37472W        W38336  28.391  17.267  17.697 -0.1018  0.0887 -0.2680
37473W        W38337  28.865  11.112  25.268  0.1811  0.1220  0.1114
37474W        W38338  25.655   1.660   9.022 -0.0877 -0.2974  0.1454
37475W        W38339  16.770   5.416  20.363  0.0938  0.1508  0.0604
37476W        W38340   5.048   2.230  25.635 -0.0129 -0.3003  0.2196
37477W        W38341  15.635  27.271   7.841 -0.1499  0.0299  0.0557
37478W        W38342  22.210  17.528   5.777 -0.1054  0.1292  0.2048
37479W        W38343  16.982   9.119  20.792  0.1540 -0.0028  0.0174
37480W        W38344  26.465   1.641  20.147  0.1917 -0.1247 -0.1134
37481W        W38345  27.434  16.442  16.259  0.1668 -0.0551 -0.0891
37482W        W38346  19.617  27.459   9.669  0.2873 -0.2177  0.0433
37483W        W38347  24.553   7.296  23.575  0.4750  0.0178 -0.0163
37484W        W38348   6.087   3.065   3.397  0.0422 -0.0108 -0.3561
37485W        W38349  20.117   5.627   2.274  0.0638  0.2600 -0.1700
37486W        W38350  14.724   8.477  21.236  0.0658  0.2989  0.2540
37487W        W38351   2.358   9.373   8.503 -0.0814  0.1571  0.0959
37488W        W38352  20.454   6.298  15.479 -0.1223 -0.0631 -0.2184
37489W        W38353  21.438   0.223  20.507  0.3127  0.1286 -0.0037
37490W        W38354  13.512  16.959  15.108  0.2028 -0.1702  0.0966
37491W        W38355  18.439   5.430  11.080  0.1019 -0.1047  0.2374
37492W        W38356  26.918  26.450  17.078  0.0764 -0.2309  0.0841
37493W        W38357   8.863  21.091  22.417 -0.0156  0.1125 -0.1798
37494W        W38358  12.113  18.710  25.310  0.2202 -0.1020 -0.1200
37495W        W38359  15.411  20.833  25.379  0.1708 -0.0030 -0.1833
37496W        W38360  14.917  12.764  18.631 -0.0718 -0.1980  0.0139
37497W        W38361  13.926   6.320  18.498 -0.0964  0.1189 -0.1319
37498W        W38362  23.161  20.276   3.172 -0.3709  0.1025  0.0302
37499W        W38363   6.371  11.377   6.285 -0.0688 -0.0360  0.0790
37500W        W38364   4.371  23.071   1.285 -0.0920  0.0150 -0.1410
37501W        W38365  25.003   9.664  15.674  0.2421 -0.3605  0.0873
37502W        W38366  18.352   5.425   9.124 -0.4255 -0.1312 -0.0144
37503W        W38367  16.114  23.790  14.452  0.0311 -0.0436  0.0776
37504W        W38368  17.222   1.000   1.201  0.0014 -0.1572 -0.2131
37505W        W38369   2.598   8.906  28.118  0.0605 -0.1087  0.0170
37506W        W38370  18.023   8.076  24.620  0.1006  0.1710 -0.0814
37507W        W38371   1.326  13.936  10.418 -0.1948 -0.0703 -0.2970
37508W        W38372   6.657   0.598  13.076 -0.0089 -0.0915  0.2768
37509W        W38373  21.354   3.827  25.167  0.2913  0.1898  0.1756
37510W        W38374   1.930  26.296  17.990 -0.0357  0.0599 -0.0016
37511W        W38375  22.809   3.508   6.904  0.1313  0.1056  0.0316
37512W        W38376  16.826   5.522  21.678  0.1033 -0.0455  0.3700
37513W        W38377  11.664  15.139  23.275 -0.0988  0.1468 -0.0779
37514W        W38378  23.657   8.456  24.594  0.0762 -0.1573  0.0446
37515W        W38379  18.223  23.455  13.769 -0.5121  0.0119  0.2030
37516W        W38380   2.415  10.320   8.925  0.0452  0.1208 -0.1182
37517W        W38381  14.105  12.465   3.887  0.0965 -0.2752  0.1763
37518W        W38382  18.237   2.984   4.766  0.0684  0.5306 -0.3685
37519W        W38383  25.584   8.820  17.172 -0.1543  0.2605  0.3468
37520W        W38384  19.999  24.372  22.458  0.2825 -0.1179 -0.1135
37521W        W38385  16.636   1.381  26.354 -0.0736 -0.1611  0.0268
37522W        W38386  28.976   0.259   7.132 -0.0923  0.1452  0.0204
37523W        W38387  18.998  18.956  21.918 -0.0565 -0.1434  0.1085
37524W        W38388  26.591  16.319   9.159 -0.1212  0.2116  0.0505
37525W        W38389  11.763  14.497  21.975 -0.0695  0.1595  0.2591
37526W        W38390  28.108  10.633  25.054  0.0492 -0.4251 -0.0397
37527W        W38391  27.790  22.652  23.901 -0.1798  0.4329  0.0033
37528W        W38392  16.240  10.515   6.549 -0.0416 -0.0758 -0.0851
37529W        W38393  13.172  11.495  18.021 -0.1208 -0.1260  0.1635
37530W        W38394  27.270  14.898  26.172 -0.1930 -0.0801 -0.0222
37531W        W38395  12.293   1.290   6.225  0.0563 -0.0011  0.0746
37532W        W38396  19.377  28.073  26.414 -0.0346 -0.1160 -0.1882
37533W        W38397  25.367  18.625  24.693  0.1962  0.1499 -0.0554
37534W        W38398  20.801  23.992   3.560 -0.1427 -0.1609  0.0032
37535W        W38399  17.134  28.840  11.506  0.0407  0.4135  0.0635
37536W        W38400  22.453  13.598   5.580 -0.1571 -0.0853 -0.3941
37537W        W38401  17.642  20.277  19.670  0.1054  0.3807 -0.1100
37538W        W38402  26.503   6.705  24.168 -0.1222 -0.1285 -0.1373
37539W        W38403  25.299   4.831  25.556 -0.1136 -0.2967  0.1115
37540W        W38404   4.381   8.573   8.249  0.0247 -0.1008  0.0893
37541W        W38405  23.582  15.417   4.469 -0.1707  0.2600  0.1003
37542W        W38406  27.925  11.656  20.794 -0.0171 -0.0616 -0.1763
37543W        W38407   9.988  25.437  22.871  0.1229  0.1925  0.0867
37544W        W38408  18.896  19.832   4.720 -0.1917  0.0619 -0.2286
37545W        W38409  24.793  21.407  11.026 -0.2016  0.1560 -0.3299
37546W        W38410   8.404  27.098  20.071 -0.1655 -0.0282  0.0559
37547W        W38411  20.721  17.391  24.764 -0.0003  0.0927  0.1157
37548W        W38412  14.358   6.466  12.056  0.2119  0.2040  0.1124
37549W        W38413  14.223  24.522  20.493  0.3318 -0.1260 -0.1565
37550W        W38414  23.330  26.269  19.565  0.0654  0.1583  0.0388
37551W        W38415  28.859   7.766   1.135  0.3283 -0.0654  0.0584
37552W        W38416  25.384  17.370  26.369 -0.3563  0.2032 -0.0035
37553W        W38417  27.019   5.888   2.717 -0.3765 -0.1678 -0.2298
37554W        W38418  13.388   3.874  26.135 -0.3056 -0.1654  0.0881
37555W        W38419  13.961  27.864   9.856 -0.0933 -0.2184  0.0062
37556W        W38420  22.875  17.621  21.234  0.3556  0.2803  0.0664
37557W        W38421  20.337   0.169   3.108 -0.4090 -0.0276 -0.2095
37558W        W38422   8.619   5.531  19.411 -0.1264  0.1145  0.0405
37559W        W38423  19.963  20.163  22.972  0.0103  0.0033  0.1421
37560W        W38424  10.970  26.851   9.552  0.1555  0.2401  0.3178
37561W        W38425   1.781   3.859   1.809 -0.1434  0.2011 -0.1594
37562W        W38426  12.152   7.145   9.200  0.1726 -0.1366  0.0141
37563W        W38427  20.478   3.250  24.452 -0.0689 -0.1086 -0.2116
37564W        W38428   4.127  11.888   7.416 -0.2365 -0.0021 -0.2465
37565W        W38429  20.771  27.744  28.234  0.0547  0.0679 -0.0418
37566W        W38430  18.977   7.176  11.309 -0.0318  0.4700  0.0750
37567W        W38431   7.177   7.247  18.458 -0.3306 -0.0884  0.2921
37568W        W38432  29.082  27.406  17.367  0.2019 -0.4415  0.0099
37569W        W38433   2.614  11.123  12.190  0.1422  0.2435  0.0494
37570W        W38434  23.312  12.531  22.310 -0.2305  0.1060 -0.0226
37571W        W38435  18.524   8.159  21.115 -0.0939  0.0953  0.0568
37572W        W38436  20.129   9.871  12.311 -0.0783 -0.0281 -0.0382
37573W        W38437  21.082  24.789  28.248  0.2166 -0.2607  0.4474
37574W        W38438  23.040   6.626  28.023  0.1355 -0.0311  0.1511
37575W        W38439  22.904  16.878  18.348  0.1413  0.1501  0.3214
37576W        W38440   5.573  19.194  18.584 -0.2061 -0.1151 -0.1547
37577W        W38441  18.305   1.342  21.655 -0.0418 -0.0767 -0.0253
37578W        W38442  23.436   8.713   4.551  0.0776  0.1965 -0.0993
37579W        W38443  16.582  18.384  10.671  0.1198 -0.0203 -0.3185
37580W        W38444  19.629  20.443  22.645  0.4279 -0.0492  0.0531
37581W        W38445  27.094  12.186   1.004 -0.0684  0.0163 -0.0933
37582W        W38446  26.164   9.537  19.099  0.0118  0.1155 -0.3077
37583W        W38447  22.237  28.984  11.473 -0.0352  0.0151 -0.0042
37584W        W38448  12.090  29.130  21.387 -0.1734  0.1940 -0.0468
37585W        W38449  25.034   9.882   2.082  0.1397 -0.0931 -0.3043
37586W        W38450  16.550  27.043  21.452 -0.4448  0.0213  0.0148
37587W        W38451  21.460   9.329   1.786  0.3787  0.0969 -0.1590
37588W        W38452   5.269   7.389  11.186  0.0212  0.1957  0.2092
37589W        W38453  15.766  23.462  18.393  0.1586 -0.0203  0.1367
37590W        W38454  20.225  24.369   2.411 -0.0054  0.1015  0.3081
37591W        W38455  23.985   4.369   2.872 -0.0155 -0.1768 -0.2998
37592W        W38456  14.100   8.747   8.301  0.1668  0.1604  0.0645
37593W        W38457  20.431  20.372  16.132 -0.4173  0.0046  0.1625
37594W        W38458  25.223  17.688  17.253 -0.0531 -0.1452  0.0009
37595W        W38459   8.304  15.101   2.741  0.1135  0.0970 -0.2207
37596W        W38460  14.768  17.359  20.069 -0.3236  0.0649 -0.0030
37597W        W38461   1.111  21.462   8.036  0.0165 -0.1813 -0.2884
37598W        W38462   6.532   0.436   7.243  0.0314 -0.1426  0.5235
37599W        W38463  26.247  29.051  20.984 -0.3028 -0.1217 -0.1315
37600W        W38464  15.596   3.421   4.303 -0.0362  0.3649 -0.1396
37601W        W38465  27.182  23.769   3.891 -0.4124  0.1078 -0.0550
37602W        W38466   0.398  26.022  18.887 -0.0544  0.3437 -0.1298
37603W        W38467  24.227   9.653  25.164  0.0399 -0.1287 -0.0406
37604W        W38468  21.964   7.006  28.243  0.0521  0.0644 -0.0103
37605W        W38469  28.399   4.642   8.503  0.1013 -0.1758 -0.1098
37606W        W38470  20.263  17.106   2.546  0.3189 -0.0522 -0.2736
37607W        W38471  24.173  10.939   6.738 -0.0835  0.1742 -0.0543
37608W        W38472  14.590   7.466  28.188  0.5002 -0.0178 -0.1217
37609W        W38473   8.891   6.115  23.485 -0.0983 -0.1796 -0.3180
37610W        W38474   4.624  26.961  16.424  0.3769 -0.0617 -0.0535
37611W        W38475  11.397  19.318   8.389 -0.0875 -0.1186 -0.0162
37612W        W38476  11.032   2.324  12.227 -0.1209  0.0857 -0.0356
37613W        W38477   7.711  18.553  10.535 -0.3643  0.0977  0.1970
37614W        W38478   3.110   9.084  13.056 -0.0046 -0.0663 -0.2385
37615W        W38479  14.070  13.688   8.921 -0.0025 -0.2906  0.1404
37616W        W38480  17.148  25.048  24.218 -0.0084  0.1667  0.0399
37617W        W38481  27.307   6.034  23.656 -0.0477  0.2594  0.3293
37618W        W38482   4.531  10.018  19.173 -0.0383  0.2664  0.1946
37619W        W38483   4.196  25.534  15.272 -0.4857 -0.0340 -0.2009
37620W        W38484  18.266  11.127  12.101 -0.0734 -0.0741  0.0032
37621W        W38485  19.134   8.256   9.712 -0.0097  0.0166 -0.0265
37622W        W38486  28.954  22.618  27.136 -0.1656  0.4161  0.0156
37623W        W38487  27.281  23.964  13.308 -0.3766  0.2722  0.1022
37624W        W38488  12.111   1.899  25.927 -0.1271  0.1849  0.2808
37625W        W38489  27.556  12.587  19.841 -0.0407  0.0634 -0.0659
37626W        W38490  22.845  11.566   8.669 -0.1297 -0.0547  0.2308
37627W        W38491  16.327  12.374  18.858  0.3430 -0.2758  0.0023
37628W        W38492  19.599  19.636   2.178 -0.2793  0.1469  0.0775
37629W        W38493  18.469  12.874  23.286 -0.1750  0.2077  0.0010
37630W        W38494  22.878  19.615  25.697  0.0428  0.5642 -0.1321
37631W        W38495  20.469   7.125   5.845 -0.0343 -0.0960 -0.3133
37632W        W38496   8.993   1.149  10.807  0.0203 -0.0687  0.0465
37633W        W38497   2.012   0.242   3.552 -0.3362 -0.1194  0.0224
37634W        W38498  14.614   5.939   3.273  0.2755  0.0800  0.2181
37635W        W38499  24.362  11.047  25.462 -0.1621 -0.1147  0.0772
37636W        W38500   3.146   6.523  10.979 -0.0447  0.1471 -0.1715
37637W        W38501   3.619   8.835  26.003  0.0078 -0.0175  0.0659
37638W        W38502  13.388  10.048  16.013  0.0576 -0.2153  0.0252
37639W        W38503  21.095  10.000   4.378 -0.0526  0.1628 -0.5292
37640W        W38504  24.520  14.807  21.016  0.0806  0.0695  0.2446
37641W        W38505   5.996   9.309  21.871  0.0724 -0.0668 -0.1052
37642W        W38506   8.067  14.348  19.134 -0.0458 -0.1458  0.4331
37643W        W38507  21.599  13.826   3.207 -0.0212  0.3532 -0.0206
37644W        W38508  17.621   9.560   9.601 -0.1282 -0.0007 -0.2333
37645W        W38509  26.478   0.614  14.891 -0.2487  0.1214  0.0528
37646W        W38510   8.284  28.572   5.667 -0.0197  0.3235  0.0473
37647W        W38511   1.813   7.143  15.300 -0.1191  0.0305 -0.0802
37648W        W38512  20.074   7.320  28.067  0.2035 -0.3249 -0.1780
37649W        W38513  28.487  25.642   4.614  0.0032  0.1602 -0.1065
37650W        W38514  27.197  14.744  19.225 -0.2309 -0.0685 -0.0140
37651W        W38515   0.826   1.418  20.410 -0.0875 -0.0478  0.0418
37652W        W38516  13.339  12.780   0.308  0.2100 -0.1558 -0.3361
37653W        W38517  28.299   1.267   7.598 -0.1293 -0.1017  0.0050
37654W        W38518  16.692  28.600   1.639  0.1696 -0.1326  0.1646
37655W        W38519  18.454  17.409   0.083 -0.3160 -0.1691 -0.1923
37656W        W38520  15.284  10.406  13.018 -0.0137  0.0544  0.2636
37657W        W38521  24.368  28.372   2.608  0.1390  0.0023 -0.1981
37658W        W38522   6.607   7.781   9.538  0.0940  0.3921 -0.1289
37659W        W38523  26.304   3.721  26.186  0.1840 -0.1135 -0.1502
37660W        W38524   6.661  27.605   8.464 -0.0174 -0.1234  0.1731
37661W        W38525  24.307  22.642   2.164  0.2961  0.1543  0.1500
37662W        W38526  24.986  13.280  15.357 -0.1376  0.0641 -0.2152
37663W        W38527  12.324   4.606  15.226 -0.1677  0.1632 -0.4931
37664W        W38528  16.721   5.829   2.477  0.2185  0.2938 -0.0684
37665W        W38529  10.908  23.977   0.867  0.1831  0.1525  0.3232
37666W        W38530  21.930  17.860   0.045  0.0801 -0.0934 -0.0837
37667W        W38531  18.466   9.011  27.730 -0.4887 -0.0783 -0.0161
37668W        W38532  12.047  12.242  10.081  0.0486 -0.1099 -0.0089
37669W        W38533   4.732  27.441  15.139  0.0879 -0.1909  0.1643
37670W        W38534   3.191   4.028   2.804  0.0249 -0.1923 -0.2017
37671W        W38535  13.571  15.558  28.221 -0.3410  0.0114  0.0651
37672W        W38536  24.116  25.715   6.400  0.0614 -0.1040 -0.0857
37673W        W38537  17.683   0.100  13.954  0.0646 -0.4338 -0.2040
37674W        W38538  21.170   3.052  29.017  0.2306  0.2017 -0.2019
37675W        W38539  19.447   7.634   6.850 -0.2015 -0.2527  0.3701
37676W        W38540   3.191   3.130  28.745  0.2336 -0.0954  0.2891
37677W        W38541   8.251   6.549   5.971 -0.0474  0.0679 -0.1567
37678W        W38542  21.954  26.957   6.427 -0.0751 -0.0881 -0.1889
37679W        W38543   3.802  12.694   6.256  0.0477 -0.0207 -0.3665
37680W        W38544  14.684   4.643  27.506  0.0132  0.2341 -0.2499
37681W        W38545  14.373  17.866  19.954 -0.3496 -0.1163  0.0958
37682W        W38546  16.860  12.853  11.924  0.0449 -0.1120 -0.4361
37683W        W38547  12.983  13.716   4.027  0.1790 -0.0859  0.1348
37684W        W38548  23.892   2.686   5.669  0.2470  0.2003  0.3031
37685W        W38549  16.900  21.836  14.206  0.0800 -0.0364  0.2110
37686W        W38550  23.133   1.040  28.329 -0.1204  0.1273  0.2707
37687W        W38551   4.875  17.484  25.529 -0.0021  0.0971  0.1114
37688W        W38552   6.479  15.246  27.630  0.2327  0.1525 -0.1171
37689W        W38553  20.794  18.658   1.214  0.0823 -0.0456 -0.0467
37690W        W38554  13.792  27.429   9.330 -0.0407  0.0297 -0.2183
37691W        W38555  14.256  22.118   6.961  0.1918  0.1958  0.1709
37692W        W38556  26.573  23.330  28.098 -0.2197 -0.2316 -0.0767
37693W        W38557  21.199   9.113  22.772 -0.1791 -0.0815  0.0900
37694W        W38558   8.432   0.842  18.843 -0.2262 -0.0155 -0.1267
37695W        W38559   4.427   4.729  15.928 -0.0855  0.2161 -0.1090
37696W        W38560  28.576   4.707   3.208 -0.0140 -0.0154 -0.0706
37697W        W38561   0.666   1.845   1.047 -0.1261  0.1049  0.1846
37698W        W38562   0.718  20.894  24.343 -0.1929 -0.2021  0.0707
37699W        W38563   9.537  26.709   0.067  0.1561  0.3471  0.1533
37700W        W38564   6.656  12.356   5.189 -0.2764 -0.1516  0.0383
37701W        W38565  22.292  16.498  15.582  0.3785  0.0717 -0.3701
37702W        W38566  13.109  18.374  21.157 -0.0392 -0.0222 -0.0790
37703W        W38567  19.499  14.703  25.518 -0.1248 -0.1553 -0.0798
37704W        W38568  21.316   3.622   1.563 -0.0287  0.0089 -0.2648
37705W        W38569  14.936  16.657  23.069  0.0104  0.1154  0.0921
37706W        W38570  10.230  15.927  14.164  0.0802  0.3112  0.0531
37707W        W38571  15.083  20.268   0.346 -0.1208 -0.3149 -0.0955
37708W        W38572  23.698  26.239  23.625  0.0028  0.1074 -0.1609
37709W        W38573  14.720  21.456   8.274 -0.2979 -0.0836 -0.1595
37710W        W38574  27.913  13.865   2.251  0.0452 -0.1318 -0.2819
37711W        W38575  20.829  16.323   9.403 -0.2505  0.3596 -0.0953
37712W        W38576  25.977  23.456  20.054 -0.0716 -0.1042  0.2498
37713W        W38577  29.086  10.818   8.687 -0.0524  0.0916 -0.1065
37714W        W38578   9.277  22.466   6.446 -0.0450  0.0651  0.0255
37715W        W38579  10.123  19.222   5.431 -0.1254 -0.0642 -0.0340
37716W        W38580  13.394  21.118  27.324  0.0075 -0.1051 -0.2442
37717W        W38581   9.254  20.209   0.752  0.0550 -0.0657 -0.1719
37718W        W38582   2.904  10.157   7.368 -0.1515 -0.0469  0.0626
37719W        W38583  20.644  11.457  28.013  0.1016  0.2182 -0.0924
37720W        W38584  11.527   3.105   8.957 -0.3003  0.0793 -0.0618
37721W        W38585   5.226   5.479  28.966 -0.0068  0.2582 -0.2175
37722W        W38586   9.464  21.055  15.246 -0.0113 -0.2523  0.1096
37723W        W38587  21.327  11.818   6.961  0.1126 -0.0639 -0.0835
37724W        W38588   9.004   9.259  16.273  0.1424  0.1787 -0.0329
37725W        W38589  27.392  12.025   0.525 -0.1787  0.2686 -0.0926
37726W        W38590  27.889  17.232  14.197  0.0503 -0.1323  0.0492
37727W        W38591  21.849   9.891  19.030  0.0061  0.2292  0.0204
37728W        W38592  27.904   4.203   4.825  0.2102 -0.0855  0.3582
37729W        W38593  28.661   4.026  19.211 -0.1651 -0.1917 -0.0309
37730W        W38594   4.598  12.187  26.260  0.1409  0.0841  0.0226
37731W        W38595  18.143  27.770  26.856 -0.0535 -0.1733  0.3599
37732W        W38596  27.529   8.719  24.614 -0.0279  0.1536 -0.0343
37733W        W38597  18.083   8.485   6.282  0.1568 -0.1864 -0.1206
37734W        W38598   6.856   1.263  16.223  0.2231 -0.0399 -0.0880
37735W        W38599  26.434   6.510  14.604  0.0452  0.2770  0.1240
37736W        W38600  16.335   1.202  12.409 -0.2891  0.1719 -0.1026
37737W        W38601  17.104  15.493   9.230  0.1523 -0.0495  0.0968
37738W        W38602   7.347  13.269   0.857 -0.0388  0.0067 -0.3724
37739W        W38603  27.022   3.857  13.590 -0.0693 -0.3881  0.1920
37740W        W38604  11.041  10.086  28.468 -0.0575 -0.1011  0.2189
37741W        W38605   0.170  10.894   9.364  0.3441  0.2296  0.0778
37742W        W38606  23.070   3.386   2.307  0.0488  0.0181 -0.0027
37743W        W38607  12.513   3.529  25.787 -0.1171 -0.1547  0.1314
37744W        W38608  16.148  28.623  29.042 -0.1078  0.0612  0.2069
37745W        W38609   6.795  10.331  18.100 -0.1482  0.1124 -0.0090
37746W        W38610  26.627   5.728   3.002  0.1698 -0.0686  0.1568
37747W        W38611  21.378   4.040   2.650  0.3029  0.3567  0.0594
37748W        W38612   4.401  28.229  25.414 -0.3943 -0.0844  0.0238
37749W        W38613  26.968   7.564  11.197  0.3538 -0.0920 -0.1292
37750W        W38614   7.887   5.559   3.006  0.0431  0.0915 -0.2666
37751W        W38615   8.539  15.535   0.879 -0.1048  0.2257  0.0034
37752W        W38616  14.803  20.012   1.747  0.0697 -0.1239 -0.1071
37753W        W38617  24.722  16.113  21.946 -0.0719  0.2418  0.0745
37754W        W38618   6.046   9.192   0.265  0.4348 -0.1262  0.0192
37755W        W38619  14.657  22.746  25.698 -0.0905 -0.0025 -0.1161
37756W        W38620  20.926  29.025   5.949  0.0822 -0.1001  0.1744
37757W        W38621   6.319  13.879  25.956 -0.3692 -0.2740 -0.1697
37758W        W38622  20.039  15.240   5.633 -0.0424  0.0743 -0.0059
37759W        W38623   5.265  23.305   6.555  0.3948  0.1206 -0.0080
37760W        W38624  15.400  17.151  26.726 -0.0945  0.1229 -0.3838
37761W        W38625  27.522  20.328   9.349  0.0366 -0.1299 -0.2927
37762W        W38626   3.212   4.083  26.119  0.1829 -0.1228 -0.0347
37763W        W38627  14.989  26.938  26.712 -0.1087  0.0115 -0.2706
37764W        W38628   0.340   4.948  12.912 -0.0216  0.0774 -0.0529
37765W        W38629  15.942   7.139   3.129  0.0156 -0.1501  0.0280
37766W        W38630  18.328   2.061  23.273  0.1644 -0.0646  0.5118
37767W        W38631   7.040  18.810   5.449 -0.1408 -0.1606 -0.1748
37768W        W38632   0.186  28.747  15.219 -0.1531 -0.2535 -0.1813
37769W        W38633  18.045  22.500   1.817 -0.2920 -0.1610 -0.0621
37770W        W38634  19.352   9.923   0.284  0.1885  0.1979 -0.3595
37771W        W38635  19.649   8.400  29.003  0.1338  0.2039  0.2144
37772W        W38636  17.739  18.848   4.587  0.1424 -0.0845 -0.1259
37773W        W38637  14.664   2.347   6.919  0.1738 -0.0158 -0.2022
37774W        W38638  20.012   8.918   0.619 -0.1115  0.2762 -0.1816
37775W        W38639  28.357  13.235   4.125  0.0553 -0.0281 -0.2034
37776W        W38640   6.398  19.287   0.937 -0.0404  0.1179  0.3515
37777W        W38641  10.679  16.957  15.168 -0.0201  0.2561  0.1134
37778W        W38642   9.844  14.663  11.745 -0.1017  0.2484 -0.1169
37779W        W38643  23.949  19.790  23.249  0.1714  0.3223 -0.4562
37780W        W38644  17.796  23.665   9.473 -0.5031  0.2134 -0.0846
37781W        W38645   2.417  23.888  10.138  0.3521  0.2206 -0.1256
37782W        W38646  17.580   9.099  13.469 -0.0167  0.4017  0.1373
37783W        W38647  26.381   6.863   1.943 -0.2505  0.1464  0.1240
37784W        W38648   2.979   8.553  28.184 -0.0228 -0.3702 -0.4329
37785W        W38649  11.916  21.437  13.565 -0.0590 -0.0544  0.0548
37786W        W38650   3.390   5.040  23.905  0.2562 -0.2874 -0.1565
37787W        W38651  14.404   5.952   0.465  0.3662 -0.3560  0.0030
37788W        W38652  15.032  23.959  17.012 -0.3302  0.1298 -0.0038
37789W        W38653  17.873  13.180  12.046 -0.0339 -0.4315 -0.0169
37790W        W38654  11.400  12.294   1.004 -0.0343 -0.1435 -0.2369
37791W        W38655  11.882  15.558   4.173 -0.2834  0.0578 -0.1523
37792W        W38656  23.493  18.354  16.213  0.3197 -0.1865 -0.0391
37793W        W38657  26.651   9.775  26.131 -0.2388 -0.1557 -0.3921
37794W        W38658  17.379  19.809  17.334  0.0530 -0.1232  0.1924
37795W        W38659  16.633  12.009  20.318 -0.0252  0.2376  0.0051
37796W        W38660  15.944  10.870  27.340  0.0551 -0.2360 -0.4946
37797W        W38661   6.838   9.981  28.032  0.2634 -0.0125 -0.0301
37798W        W38662   1.768   8.802   7.928 -0.1799  0.0932  0.1702
37799W        W38663  21.526  28.915  20.833  0.1895 -0.0310  0.1752
37800W        W38664  11.686   8.352  21.951  0.3223  0.0595 -0.0677
37801W        W38665  16.313   8.227   3.905  0.1423 -0.0585 -0.2398
37802W        W38666   8.855   7.651   1.158 -0.1619 -0.0793 -0.3241
37803W        W38667  12.629   0.354   7.380 -0.0562 -0.1440 -0.4581
37804W        W38668  14.225  27.064  15.549  0.0522  0.1006  0.3805
37805W        W38669  18.567   4.637   2.623 -0.1029 -0.1972  0.3858
37806W        W38670  17.036  12.833  14.984  0.2515 -0.1159  0.0992
37807W        W38671   3.445  27.063  25.112  0.0080 -0.3870 -0.0824
37808W        W38672  13.017  14.040  25.882  0.1609  0.4247 -0.0849
37809W        W38673  23.324   2.955  28.332  0.1543 -0.2176  0.2261
37810W        W38674  27.523  27.445   3.335  0.1700 -0.1080 -0.0795
37811W        W38675  20.642  25.686  16.893 -0.0391 -0.2074 -0.1622
37812W        W38676   0.687  27.488  19.403 -0.0915 -0.0969 -0.0142
37813W        W38677  24.888   8.101   2.105  0.0340  0.2284 -0.1939
37814W        W38678   2.144  25.281  19.257  0.1707  0.0372  0.5494
37815W        W38679  28.001   9.390  21.467  0.0819 -0.0845  0.1442
37816W        W38680  24.160   1.268  19.194  0.2241 -0.0307  0.0047
37817W        W38681   0.478  12.361   8.849  0.3603 -0.0702  0.0360
37818W        W38682  22.348  19.754   9.993  0.0912  0.0418 -0.1290
37819W        W38683  18.214  14.020  20.220 -0.1898 -0.0633  0.0149
37820W        W38684   8.500  10.513  29.097 -0.1955 -0.0392 -0.0743
37821W        W38685   4.236   5.822  21.384 -0.0106 -0.3264  0.2936
37822W        W38686   6.269   6.810   2.939 -0.1448 -0.0257 -0.2057
37823W        W38687  24.430  24.381  26.657 -0.0485  0.3125  0.0312
37824W        W38688  29.016   2.073   0.050 -0.0550 -0.0135  0.1529
37825W        W38689  23.853  24.722  11.767  0.1054 -0.0779 -0.2024
37826W        W38690   6.253  11.091  22.567 -0.1218 -0.0413 -0.2430
37827W        W38691   9.272   2.387   0.109 -0.0544 -0.0787 -0.2052
37828W        W38692   0.016  13.072   0.361  0.0123  0.0244 -0.0441
37829W        W38693  26.922   8.916  11.207  0.4453  0.1633  0.1841
37830W        W38694  26.221  16.267  22.486  0.0504  0.1488 -0.0242
37831W        W38695   5.115   3.771  22.360 -0.0273 -0.1785  0.1344
37832W        W38696  17.478  25.498   4.299  0.2411  0.1185 -0.2380
37833W        W38697  20.264   2.611   0.694  0.0880 -0.0047  0.2400
37834W        W38698   7.066  14.431  26.035 -0.2315  0.0231  0.0014
37835W        W38699  21.288  15.307  28.956 -0.0996  0.2079  0.2117
37836W        W38700  13.175  23.549  12.071  0.1318 -0.2330 -0.3447
37837W        W38701   0.757  21.385  26.764 -0.2306 -0.0909  0.3170
37838W        W38702   1.758  14.819  13.468 -0.0363  0.1836 -0.0484
37839W        W38703  22.803  13.044  18.239 -0.2855  0.0135  0.1268
37840W        W38704  13.052  25.325  17.994  0.1498  0.2652 -0.0868
37841W        W38705  11.153   3.740  11.382  0.2185  0.1588 -0.1364
37842W        W38706  14.961   9.840  22.487  0.0971 -0.2502 -0.0611
37843W        W38707  21.956  23.181  11.712 -0.1080  0.0153 -0.2523
37844W        W38708  13.748  23.544  26.959 -0.1044  0.0855  0.1257
37845W        W38709  26.110  16.356   5.351  0.0617 -0.0251  0.1667
37846W        W38710  22.931  13.950   3.705  0.2572 -0.2142 -0.1468
37847W        W38711   8.705  11.882   0.017 -0.1605 -0.5006 -0.1907
37848W        W38712  19.030  24.553  12.768 -0.0432  0.3091  0.0935
37849W        W38713   8.082   2.646  26.710 -0.1629  0.4927  0.1302
37850W        W38714  25.076   5.146  28.122 -0.2183 -0.0046 -0.2363
37851W        W38715  13.607   6.944   0.352 -0.0489  0.0848  0.1216
37852W        W38716  11.066  18.118  18.894 -0.0781  0.0600 -0.1803
37853W        W38717   8.068  28.619   5.228 -0.0786  0.0283 -0.0180
37854W        W38718  18.238   7.490   6.296  0.1578 -0.3180 -0.0722
37855W        W38719   3.818  13.515  20.308 -0.1402  0.2883  0.3353
37856W        W38720  28.078   1.860   3.176  0.0231  0.0090  0.1742
37857W        W38721  16.863  23.467  13.182 -0.0218  0.1871 -0.0252
37858W        W38722  12.994   6.110  20.039  0.0187  0.0632 -0.2148
37859W        W38723  11.446  23.410  12.826  0.2924 -0.1286  0.0563
37860W        W38724  24.848   8.539  25.701  0.3111 -0.4069  0.1020
37861W        W38725  22.471   6.499  20.142  0.0331 -0.0578  0.0585
37862W        W38726  16.419  11.121   6.111 -0.1268  0.2500  0.2220
37863W        W38727  17.043   9.489  28.203 -0.0346 -0.1306 -0.0985
37864W        W38728  16.708  20.887   1.947  0.0031 -0.1119 -0.2001
37865W        W38729  15.640   7.793   7.774  0.1717 -0.0183 -0.0389
37866W        W38730  12.736  20.927  26.619  0.0612  0.0184  0.2401
37867W        W38731   0.578  24.100  18.926  0.1925 -0.3345  0.0604
37868W        W38732   5.916  18.606  29.031 -0.1776 -0.0699  0.0259
37869W        W38733  14.474  11.431  17.665  0.2332  0.3503  0.0266
37870W        W38734  25.687  21.671   3.092  0.1857  0.0649  0.1860
37871W        W38735   1.771   6.503   7.804 -0.1165 -0.1276  0.1795
37872W        W38736   9.485   4.966  12.317  0.2183  0.1936  0.2868
37873W        W38737   5.485  24.867   2.545 -0.3072 -0.5531  0.0871
37874W        W38738  17.654   2.879  21.651  0.1621 -0.2484  0.0973
37875W        W38739  19.940  24.400   8.796  0.0668  0.2089 -0.4522
37876W        W38740  10.947   3.998  13.475  0.0392 -0.1184 -0.0369
37877W        W38741  28.853   9.750  24.904 -0.1609 -0.0372 -0.0919
37878W        W38742  21.026  20.532   1.589  0.0891 -0.1691  0.1741
37879W        W38743  24.902   7.600  25.704 -0.1586 -0.2931  0.0633
37880W        W38744  24.824   9.083  20.414  0.1429  0.1482  0.0742
37881W        W38745   1.589   7.901  21.080 -0.1843  0.2274  0.0340
37882W        W38746   3.956  13.614  28.488  0.2005  0.1059 -0.1281
37883W        W38747  16.931  19.383   7.062  0.0703 -0.3961  0.0206
37884W        W38748   9.064   5.814  16.326 -0.2088 -0.0731  0.2780
37885W        W38749  16.425   6.371  19.801  0.1874  0.0070  0.1032
37886W        W38750   0.179  28.100   4.900  0.1464 -0.1325 -0.1815
37887W        W38751  10.934  20.403   7.986  0.0145  0.2959  0.1773
37888W        W38752  12.786  23.503  23.687  0.2891 -0.1662 -0.0223
37889W        W38753  19.724  24.002  13.060 -0.1592 -0.1229 -0.3887
37890W        W38754  27.150  12.259   3.216  0.2117 -0.2288  0.0227
37891W        W38755  19.721  18.955   3.876 -0.1745  0.0355 -0.0431
37892W        W38756  11.306   8.518   4.307  0.1657  0.1082 -0.0779
37893W        W38757  23.675  14.444   5.784 -0.0304  0.1181  0.4406
37894W        W38758   5.391   8.950   2.693  0.0833  0.1203 -0.3462
37895W        W38759   5.203  19.853  10.540 -0.6126 -0.0488  0.1458
37896W        W38760  25.620  25.624  23.138  0.0305 -0.0556 -0.3437
37897W        W38761  21.323  23.523  16.703 -0.2285 -0.1738 -0.2593
37898W        W38762   4.531  14.991  15.882  0.2046 -0.3642  0.0355
37899W        W38763  22.182  11.872  16.509  0.0397 -0.2658  0.0944
37900W        W38764  16.837   5.193   0.270  0.0313  0.0118  0.2020
37901W        W38765  18.299  24.515   2.375 -0.4302  0.0299 -0.2959
37902W        W38766  17.588   8.566   4.660 -0.0093 -0.0954 -0.1705
37903W        W38767   2.971  21.293   5.730 -0.1512  0.2948  0.4054
37904W        W38768   8.687  25.409   2.337 -0.0298  0.3458  0.2057
37905W        W38769   7.858  16.149  10.732 -0.2082 -0.0832  0.2678
37906W        W38770   7.074  13.971   2.333 -0.1095  0.0324 -0.0137
37907W        W38771  11.489   7.556   1.069 -0.0069  0.0075 -0.0417
37908W        W38772  14.151   3.599   6.257  0.1018  0.0669  0.1242
37909W        W38773  17.378   4.453  27.117 -0.2691 -0.0727  0.1571
37910W        W38774  21.936  22.256  17.712  0.0157  0.0956  0.0231
37911W        W38775   5.310  23.082   3.193  0.0164 -0.0783 -0.0614
37912W        W38776  16.093   5.701  21.953  0.2311 -0.1677 -0.1501
37913W        W38777  20.093  25.518  28.575 -0.2218  0.0653  0.0715
37914W        W38778  21.876  12.294  14.894 -0.1984  0.1648 -0.0357
37915W        W38779   5.599   8.135  14.746 -0.1157 -0.0199  0.0660
37916W        W38780  10.864  17.139   1.391 -0.2269 -0.3639 -0.3592
37917W        W38781  13.956   4.256  11.159 -0.1843 -0.0018 -0.0964
37918W        W38782  13.827   7.594   3.357  0.1344 -0.1729 -0.1702
37919W        W38783   5.046   8.752   9.458  0.0054 -0.3156 -0.2424
37920W        W38784  18.915   8.905   3.660  0.0651 -0.0190 -0.1104
37921W        W38785  24.184  17.732  27.589 -0.0754 -0.1640 -0.1291
37922W        W38786  13.780   8.335  23.303  0.1143  0.0204  0.0759
37923W        W38787  18.531   1.371   9.413  0.2211 -0.0115  0.0342
37924W        W38788  17.685   0.295   0.759  0.1126 -0.1592  0.1982
37925W        W38789  15.297   9.917  12.876  0.0411 -0.0483 -0.0085
37926W        W38790  18.739   7.789   5.403  0.1590 -0.0867  0.1974
37927W        W38791  22.833  15.121  25.394 -0.1185  0.0789  0.0362
37928W        W38792   0.432  13.847   5.534  0.1502 -0.0164  0.3328
37929W        W38793  20.741   5.381   2.885  0.1003 -0.1291 -0.1361
37930W        W38794   5.388  14.847  18.796  0.5224 -0.3434  0.0267
37931W        W38795  14.728   3.412  24.804 -0.1885  0.1445 -0.0248
37932W        W38796  21.374  19.503  25.574 -0.1593  0.0142  0.2036
37933W        W38797   7.143  11.668   0.046 -0.0517 -0.1946  0.0109
37934W        W38798   2.456  19.510   3.932  0.0241 -0.1609  0.0679
37935W        W38799  22.062  13.191  28.955  0.1047  0.1632  0.1447
37936W        W38800   1.146  19.650  26.425 -0.0850 -0.1325  0.0579
37937W        W38801  28.281   5.539   7.517  0.3701  0.1644  0.0889
37938W        W38802  10.582   4.865  28.862 -0.0044  0.2547 -0.4785
37939W        W38803   5.537  14.923  10.466  0.0601  0.6183  0.2701
37940W        W38804  19.944   3.922   9.251  0.3234 -0.3553 -0.3046
37941W        W38805   2.002   0.067  11.757  0.0175  0.0950 -0.1493
37942W        W38806   5.570   2.477  22.802 -0.0941  0.0162 -0.1418
37943W        W38807   9.638  16.376  17.490  0.0395 -0.0393 -0.1254
37944W        W38808  12.168  14.309   3.093  0.0713 -0.1659 -0.1617
37945W        W38809  27.610  28.989  23.274  0.0092  0.0623 -0.3143
37946W        W38810  14.361   2.988  27.414  0.2020  0.0512 -0.2344
37947W        W38811  15.426  24.894  22.259  0.1460 -0.0607  0.1301
37948W        W38812  26.770   9.318  24.431  0.0452 -0.2338 -0.0115
37949W        W38813  12.867  22.585   4.021  0.0294  0.2949 -0.0196
37950W        W38814  11.731   4.500  10.468 -0.1809  0.1009  0.0967
37951W        W38815   5.829   4.945  12.600  0.0892  0.0980 -0.2085
37952W        W38816  27.285  13.964  21.617  0.3301 -0.0730  0.0445
37953W        W38817  26.877  17.634  12.691 -0.0319 -0.0385  0.1796
37954W        W38818   4.407  13.809  24.522 -0.0009 -0.3412  0.1851
37955W        W38819   0.208  20.258  20.337 -0.1864 -0.1227  0.2551
37956W        W38820  27.239  26.258  22.219  0.0629  0.2801  0.1264
37957W        W38821  19.992  16.400   0.885  0.0946  0.0938 -0.1060
37958W        W38822  23.277  11.822  12.449  0.2267 -0.1508 -0.1166
37959W        W38823  24.817  27.528   5.844 -0.1728  0.2464 -0.0074
37960W        W38824   9.424  17.210  22.664 -0.0480 -0.2047 -0.1166
37961W        W38825  25.861  23.411  26.889  0.0778 -0.0832 -0.1586
37962W        W38826   6.929   6.168  26.856 -0.4116 -0.0401  0.0329
37963W        W38827  23.345   8.444  25.011 -0.0199  0.1996 -0.1826
37964W        W38828   6.408  28.381   6.658  0.4585  0.1766  0.0433
37965W        W38829  15.868  10.759  25.412  0.0872 -0.0357 -0.0673
37966W        W38830  11.796   9.883  24.638  0.1647 -0.2816 -0.0162
37967W        W38831  23.845  12.129  24.607  0.3669 -0.0941 -0.0747
37968W        W38832  17.691  28.962   9.862 -0.1892  0.0104  0.0248
37969W        W38833  17.800  11.668  25.835  0.1074  0.0096 -0.1455
37970W        W38834  10.692  11.964  14.267  0.1450 -0.0715  0.4060
37971W        W38835  17.870  17.336  18.258 -0.2138 -0.0975 -0.0355
37972W        W38836   3.684  20.426  21.517 -0.2749  0.0019 -0.2164
37973W        W38837   9.390  28.583  14.771 -0.0482  0.2355 -0.0299
37974W        W38838  10.913   5.824  21.636  0.1902 -0.3105  0.1715
37975W        W38839  13.526  11.358   9.686  0.1550 -0.0507  0.4338
37976W        W38840  22.452  25.765  17.655  0.1263 -0.4316  0.0197
37977W        W38841  24.068  19.911  18.208  0.0805  0.1652 -0.2370
37978W        W38842  24.882  16.750  26.984  0.2349 -0.1471  0.1282
37979W        W38843  26.844  19.503   7.396  0.2932 -0.0200 -0.1369
37980W        W38844  25.792  26.101   5.555 -0.2068 -0.2337  0.0865
37981W        W38845   7.545  18.473   0.854  0.1109  0.0362  0.1265
37982W        W38846  18.564   3.001  11.158  0.2389 -0.2663  0.1128
37983W        W38847   0.793  11.411   5.687  0.2458  0.3233 -0.1716
37984W        W38848  16.760   6.454  12.710  0.0933 -0.4059 -0.1164
37985W        W38849  12.847  11.221  28.153 -0.0826 -0.0770  0.0332
37986W        W38850  28.610  14.973   0.745 -0.1726 -0.2760  0.2406
37987W        W38851   9.511  13.362  11.295 -0.1553  0.2429  0.2706
37988W        W38852  21.073   2.355   4.352  0.0295 -0.1248  0.1558
37989W        W38853  24.519  17.598  13.805 -0.0107  0.0811 -0.2679
37990W        W38854  16.682  18.821  26.021  0.0677 -0.1425  0.3388
37991W        W38855   2.001  28.811  17.971 -0.2785 -0.0639 -0.2590
37992W        W38856  21.440  19.609  20.865 -0.4242 -0.1395 -0.0705
37993W        W38857  16.680  16.506   5.879  0.3069  0.1769 -0.0766
37994W        W38858  21.598   2.341  11.494 -0.2696 -0.1407 -0.1309
37995W        W38859   8.330   9.846   0.979 -0.1752  0.3152  0.2268
37996W        W38860  17.351  19.207  26.805 -0.0433  0.0800  0.1088
37997W        W38861   9.009   9.717  14.289  0.0620 -0.4227  0.1369
37998W        W38862  11.608   0.261  23.625 -0.1228 -0.1001  0.0996
37999W        W38863   5.231   5.666   0.312  0.1121 -0.1041  0.2238
38000W        W38864   3.573   9.119  11.718  0.0374  0.0411 -0.0740
38001W        W38865  15.293  23.219  24.014  0.0794 -0.1055 -0.0300
38002W        W38866   7.684  20.887  20.142  0.0632  0.0532 -0.1396
38003W        W38867  11.102  19.192   1.517  0.2337 -0.0186  0.0886
38004W        W38868  25.730   4.051  26.065  0.0805 -0.0031 -0.0968
38005W        W38869  16.197  20.666  12.151  0.4543  0.0434  0.0718
38006W        W38870   8.280  12.106  27.586  0.1166  0.2780 -0.0628
38007W        W38871   6.831   3.711  27.947 -0.0542  0.0817 -0.2153
38008W        W38872  12.372  27.888  13.503 -0.0519 -0.1208  0.1072
38009W        W38873  11.399   6.054  11.518 -0.1736  0.1946 -0.1269
38010W        W38874  26.327   8.347  24.259  0.1074  0.0922 -0.2665
38011W        W38875   0.982   3.438  15.962  0.1240 -0.0641  0.1952
38012W        W38876   1.218   8.101  18.847 -0.0086  0.1339 -0.1384
38013W        W38877  12.993  11.597  18.958  0.1895 -0.1784  0.1956
38014W        W38878  17.293  12.362   0.797 -0.2871  0.0179  0.2214
38015W        W38879  16.199  23.424  28.668 -0.0031 -0.0414 -0.1157
38016W        W38880  26.580   7.997  11.289 -0.0589 -0.0559  0.1494
38017W        W38881   4.417   8.443   7.763  0.0179 -0.0092  0.2904
38018W        W38882   8.948  22.636  10.604  0.0929  0.1518  0.0630
38019W        W38883  14.769  25.460  22.492 -0.0064  0.0289  0.0718
38020W        W38884  29.074  26.936   4.080 -0.3398  0.1667 -0.1521
38021W        W38885   2.672   3.692   6.912  0.1377 -0.0923 -0.2790
38022W        W38886  13.064   6.527   7.126  0.0440  0.2982  0.1409
38023W        W38887  27.495  15.718  19.056 -0.0343 -0.0544 -0.2056
38024W        W38888  17.843  21.232  16.197 -0.2904 -0.3043  0.0229
38025W        W38889  28.272  25.729  27.789 -0.2643  0.2483 -0.2508
38026W        W38890   3.724  20.561   4.570 -0.0994 -0.0828 -0.0350
38027W        W38891  23.770   4.563   4.695 -0.2225  0.2028 -0.0636
38028W        W38892  20.902  11.030  13.868  0.3206 -0.0390  0.1644
38029W        W38893  23.941  12.607  13.309 -0.1375 -0.1905 -0.0934
38030W        W38894  25.905   2.482  19.578 -0.0001  0.2502  0.0788
38031W        W38895  13.633  20.599  13.303 -0.1509 -0.1826 -0.1028
38032W        W38896   8.312   9.492  23.230  0.1830  0.1503  0.1998
38033W        W38897   7.212  24.339   7.216  0.0769 -0.1801 -0.1338
38034W        W38898  28.495  17.850  26.216 -0.1868 -0.0451 -0.0834
38035W        W38899  16.557  20.019  17.435  0.0856  0.1537  0.0530
38036W        W38900  17.508  18.918  22.940  0.2227 -0.1560 -0.2329
38037W        W38901   8.836  19.724  11.964 -0.2683  0.0611  0.0838
38038W        W38902  23.708  14.940  19.379  0.0647  0.1568 -0.1031
38039W        W38903   5.890  17.833  14.030  0.3484  0.0264 -0.1287
38040W        W38904  19.962   8.229   6.293  0.0488  0.1677 -0.0315
38041W        W38905  23.983  21.870   6.217 -0.1133 -0.0455 -0.1110
38042W        W38906  14.237  23.583   8.775  0.1090 -0.2018 -0.0026
38043W        W38907  23.297  26.111   4.798  0.0120 -0.2329 -0.1044
38044W        W38908  21.298  18.902  12.307 -0.0940 -0.0519  0.3661
38045W        W38909  24.245   1.824  28.539 -0.2323 -0.0080  0.2214
38046W        W38910  14.396  19.483  22.418 -0.2135  0.1985 -0.0599
38047W        W38911  19.114  24.039   0.691 -0.2388 -0.1150  0.1348
38048W        W38912   3.124  13.884   0.426  0.0396 -0.1092  0.2599
38049W        W38913   9.659  19.048  14.841 -0.0438  0.1560 -0.0946
38050W        W38914   9.153  14.372   0.890 -0.2387  0.2402 -0.0060
38051W        W38915  14.165  13.253  12.651 -0.0083  0.1609  0.0915
38052W        W38916  11.367  26.612  11.390  0.0837  0.2544 -0.0495
38053W        W38917  10.263   8.819   8.905  0.0673 -0.0726 -0.0766
38054W        W38918  26.393  22.352   8.980 -0.2684 -0.1787 -0.0696
38055W        W38919  27.952  17.583  27.613 -0.1336 -0.0692  0.0910
38056W        W38920   8.298   8.526   3.261 -0.1835 -0.1253  0.1224
38057W        W38921   3.321  11.719   0.835 -0.3096  0.1205 -0.1729
38058W        W38922   7.050  14.592   9.221  0.1818  0.0063 -0.0585
38059W        W38923  24.174   4.496   9.776  0.1130 -0.1323  0.1461
38060W        W38924  21.497  15.855   4.584  0.0136 -0.4338 -0.3324
38061W        W38925  18.248  28.567   1.572 -0.1307  0.0551  0.2221
38062W        W38926  15.461  21.723   5.030 -0.0243  0.1680 -0.0261
38063W        W38927   5.254   8.678   5.969  0.1632  0.1564  0.2576
38064W        W38928  24.848   5.208  12.756 -0.1453 -0.1848  0.0718
38065W        W38929  21.461   9.266  25.991  0.0189 -0.2630  0.3901
38066W        W38930   3.224  11.909   0.322 -0.0286 -0.0040 -0.1040
38067W        W38931   0.674  24.588  27.506  0.0189 -0.0305  0.2671
38068W        W38932  17.858  21.203   6.335  0.0754 -0.0783 -0.1646
38069W        W38933  15.256  20.754  24.351  0.1010  0.1149 -0.1375
38070W        W38934  15.204  14.665  27.179 -0.3649  0.1878 -0.4866
38071W        W38935  19.513   8.765  11.609  0.0115  0.1285 -0.0569
38072W        W38936  19.733   7.051   4.125  0.0219  0.4815 -0.0128
38073W        W38937  20.179  25.569   0.226 -0.1869 -0.0867 -0.1642
38074W        W38938   0.208   0.771  23.301  0.0974 -0.1399 -0.0813
38075W        W38939   6.644  12.094  16.997 -0.1894 -0.0473 -0.0214
38076W        W38940  22.160  14.488   0.511 -0.1752 -0.2854  0.1248
38077W        W38941   8.692   6.610   2.937  0.0578  0.0161 -0.0640
38078W        W38942  14.559   7.677  23.761 -0.0647 -0.1497 -0.0210
38079W        W38943  27.866  14.439  11.286 -0.5212 -0.1459  0.2419
38080W        W38944   8.808  19.533  23.241 -0.0249  0.1332 -0.1045
38081W        W38945   1.445  27.372  17.910  0.0214  0.3590 -0.2722
38082W        W38946   6.621  20.547   6.616 -0.0817  0.0965 -0.1001
38083W        W38947  25.233   8.457  29.030 -0.2218 -0.1111 -0.1871
38084W        W38948  13.805  21.981   9.716 -0.0654  0.1892  0.2400
38085W        W38949  18.714  16.692   7.882  0.2374 -0.1154 -0.4594
38086W        W38950  28.929   2.063   6.676 -0.1376 -0.1011  0.0985
38087W        W38951  11.950  21.831  10.206 -0.0701  0.0303 -0.2034
38088W        W38952  10.630  21.482   1.441  0.3290  0.1365 -0.1241
38089W        W38953  20.326   3.138   9.474 -0.1982  0.1604 -0.1435
38090W        W38954  28.435   9.818  22.084 -0.1346 -0.2015  0.0957
38091W        W38955  11.488   2.236  17.129 -0.3080  0.0334  0.2046
38092W        W38956   7.316   8.218  24.058 -0.2889  0.2148 -0.1308
38093W        W38957  23.628  23.837  17.353 -0.0789 -0.0575  0.1936
38094W        W38958  12.255  22.289  10.762  0.0899 -0.0487  0.2119
38095W        W38959   9.257   4.321  27.782 -0.0816 -0.1558  0.2111
38096W        W38960   0.605   5.316  12.210  0.0081 -0.0157  0.0605
38097W        W38961  16.235   9.397  13.696 -0.2600  0.2574 -0.0616
38098W        W38962  26.229  14.487  14.778 -0.0556 -0.0024  0.1455
38099W        W38963   3.919  24.082   9.870 -0.1507  0.0195  0.0333
38100W        W38964  18.968  12.291  28.462 -0.2186  0.2789 -0.0254
38101W        W38965  14.361  27.626   8.358  0.0738 -0.1013  0.3553
38102W        W38966  22.308  23.747  14.581 -0.2330 -0.0226 -0.1607
38103W        W38967  24.170  21.180  13.606  0.1473 -0.3065 -0.1583
38104W        W38968  15.694   6.595   2.883 -0.2513 -0.1701  0.1620
38105W        W38969  17.127  14.181   7.176 -0.0680  0.0725  0.1783
38106W        W38970   9.641  17.034  12.016 -0.0111  0.0712 -0.1412
38107W        W38971   3.501  10.684  19.714 -0.0909  0.2543 -0.3061
38108W        W38972  27.105  16.439   9.334  0.0616 -0.2120 -0.1686
38109W        W38973  15.342  26.740  24.056  0.1754 -0.1671 -0.0452
38110W        W38974  17.609  16.954   5.288  0.1737 -0.2111  0.0260
38111W        W38975  15.030  13.491  12.845  0.2143  0.3892 -0.0656
38112W        W38976   0.112  22.337   1.920  0.3576 -0.2081  0.0334
38113W        W38977  16.582  11.121   8.769 -0.0361 -0.0042  0.1352
38114W        W38978  19.713  26.961   6.844 -0.3861 -0.1784 -0.2277
38115W        W38979  18.058  12.085   5.569 -0.0042 -0.2909 -0.1081
38116W        W38980   3.083  16.277   9.823 -0.0428  0.4234 -0.1217
38117W        W38981   9.653  25.145   8.710  0.2515  0.2900 -0.1335
38118W        W38982  25.443  21.142  25.835 -0.2235  0.1859  0.1209
38119W        W38983  13.377  18.649   8.496 -0.1549  0.0210 -0.0362
38120W        W38984   3.260  24.809   0.862 -0.0379 -0.0958 -0.2261
38121W        W38985  17.034  23.433  18.077 -0.2641  0.0411  0.0077
38122W        W38986  16.173  20.091   7.010 -0.0293  0.1624 -0.1811
38123W        W38987  18.413  15.271  13.780  0.2955 -0.1461 -0.2824
38124W        W38988   6.563  11.860   5.270 -0.0139 -0.1964  0.1977
38125W        W38989  25.900  20.302   4.495  0.2335  0.0718 -0.0310
38126W        W38990  21.737  17.349   2.369  0.3085  0.2094  0.0132
38127W        W38991  16.912  10.249  15.546 -0.1523 -0.2905  0.1023
38128W        W38992  21.201  17.137  25.058 -0.0147 -0.1164 -0.0072
38129W        W38993  23.803   3.133  14.253  0.3553  0.3094  0.2207
38130W        W38994  22.148  27.248   1.945  0.0333 -0.0250  0.0218
38131W        W38995   3.541  20.126   8.208  0.2810  0.0040  0.1631
38132W        W38996  26.402  23.139   4.851  0.2408 -0.3625 -0.2097
38133W        W38997  10.499   0.566  22.656  0.1835  0.1055  0.2260
38134W        W38998  14.058  14.884  18.758 -0.4147 -0.0477  0.0061
38135W        W38999  15.570  22.479  14.807 -0.3645 -0.1887 -0.2580
38136W        W39000  11.497  14.571   0.734  0.0518  0.1216  0.2970
38137W        W39001  16.194  15.955  16.394 -0.0266  0.1199  0.1056
38138W        W39002  10.792  18.671  14.052 -0.0978 -0.0515  0.0214
38139W        W39003  16.190   9.852  19.843 -0.1076 -0.0289 -0.4817
38140W        W39004  28.812  27.845  17.153  0.2723 -0.0078 -0.1851
38141W        W39005   9.559  22.623   8.129  0.0425 -0.0105  0.0318
38142W        W39006   1.173  12.702   5.174  0.0679  0.0862  0.3155
38143W        W39007  12.505  24.628  23.553 -0.1742 -0.1604 -0.0293
38144W        W39008   5.754  15.858  16.203  0.1715 -0.1698  0.2214
38145W        W39009   7.598   4.406   6.339 -0.1465  0.0890 -0.3211
38146W        W39010  17.103  20.124  28.866  0.1200  0.2004  0.3648
38147W        W39011  25.980  16.146  12.182  0.0917  0.0262  0.0477
38148W        W39012  11.359  14.698  24.164  0.0822 -0.1716  0.1282
38149W        W39013  13.779  12.091  14.047  0.0577 -0.0271  0.0907
38150W        W39014  17.212  18.525  28.552 -0.3292 -0.2280 -0.1489
38151W        W39015   8.440  28.321  23.321  0.1492 -0.0918 -0.0007
38152W        W39016  13.359  15.626   8.046  0.1480  0.0625 -0.1921
38153W        W39017  11.508  24.669   0.391  0.0876  0.0985  0.1443
38154W        W39018  19.852  26.056  27.162 -0.0128 -0.0185  0.1469
38155W        W39019  14.492  21.052  16.082 -0.2541 -0.0336  0.0299
38156W        W39020   4.216  17.989   7.329 -0.1365 -0.0180  0.0405
38157W        W39021  14.135   0.853  16.517  0.1888 -0.1467 -0.1609
38158W        W39022  14.678   8.213  10.845  0.0786 -0.1112 -0.0063
38159W        W39023   1.583   2.143  24.767  0.1981  0.1707  0.0457
38160W        W39024  10.255  23.731  27.814  0.1892 -0.0980  0.0232
38161W        W39025  15.874  11.556  15.049 -0.0475 -0.1334 -0.0584
38162W        W39026   0.940  21.752  11.719  0.1048  0.2526 -0.0206
38163W        W39027  10.834  12.316   0.831  0.0355 -0.4082  0.2024
38164W        W39028  28.912  19.305  23.682  0.0623  0.0229  0.0140
38165W        W39029  14.092   0.398   2.633  0.1789  0.0850 -0.1929
38166W        W39030  28.324   8.099   5.471 -0.1584 -0.2914  0.1405
38167W        W39031  23.158  27.408   3.994  0.2086  0.0276 -0.1796
38168W        W39032   7.271   5.116  27.652  0.0431  0.1660  0.2427
38169W        W39033  28.135   9.892  14.459  0.2964 -0.2460 -0.2821
38170W        W39034  21.743  23.784  23.565  0.1647  0.1049  0.1845
38171W        W39035   4.249   8.553   3.809 -0.0849  0.3070  0.1273
38172W        W39036  25.435  16.135   1.655 -0.2809 -0.3049  0.1050
38173W        W39037   1.898  13.992   1.260  0.0040 -0.2732  0.2091
38174W        W39038  10.650   6.697  11.732 -0.1621  0.1012  0.2198
38175W        W39039   8.874  25.975   7.016  0.0506 -0.1700  0.2511
38176W        W39040  21.752  23.355   2.744 -0.1920 -0.2799  0.0450
38177W        W39041   7.851  18.163  28.482 -0.0094 -0.0650 -0.1359
38178W        W39042  13.812  28.976  28.133  0.0848 -0.2160  0.2214
38179W        W39043  21.335  19.804   7.686  0.2385 -0.0728 -0.0767
38180W        W39044   4.643  17.011  28.782  0.4038  0.1555  0.1276
38181W        W39045   7.849  27.481  16.458 -0.0042 -0.0152 -0.0756
38182W        W39046  16.638  21.977   1.084  0.1283 -0.1399 -0.1657
38183W        W39047  16.875  22.227  12.683 -0.0067  0.4443 -0.0103
38184W        W39048  27.007  21.638  19.683 -0.1181 -0.0175 -0.0576
38185W        W39049  10.466   4.990   5.132  0.1311  0.0149  0.4265
38186W        W39050  26.521  19.423   8.839  0.0680 -0.0829 -0.1715
38187W        W39051  11.664  10.239   1.766  0.1379 -0.0287 -0.2037
38188W        W39052  12.431   7.531  18.792  0.1111 -0.0560 -0.0126
38189W        W39053  17.547  18.896  14.834  0.0937 -0.1499  0.0033
38190W        W39054   1.628  15.890  28.731  0.2996  0.0185  0.0087
38191W        W39055   8.944  20.366   8.555 -0.0534 -0.2134  0.1022
38192W        W39056  22.001  22.283  25.375  0.0179 -0.2584  0.2572
38193W        W39057  22.691  19.040  11.142 -0.0131 -0.1761 -0.0538
38194W        W39058  16.369  12.227   2.289  0.1763 -0.2759  0.2399
38195W        W39059  23.747  12.714   4.505  0.2101 -0.0977  0.2624
38196W        W39060  18.410  25.488   1.174  0.4386 -0.0677  0.0094
38197W        W39061   3.655   7.617   9.402  0.0970 -0.2547 -0.1186
38198W        W39062  28.659  11.117   2.956 -0.1155 -0.0018 -0.1954
38199W        W39063  21.352   5.409   4.277  0.1458  0.0520 -0.1083
38200W        W39064  11.487  11.493   0.533  0.0757 -0.0830 -0.1149
38201W        W39065  17.479  15.353  16.874  0.1363 -0.0095 -0.3796
38202W        W39066  19.561  21.728   6.203  0.0611  0.1900 -0.0029
38203W        W39067  20.499  16.007  14.847  0.2232 -0.0592  0.0350
38204W        W39068  22.685  20.440   2.919 -0.1040  0.1893  0.2417
38205W        W39069  10.672  10.927  26.159  0.0068 -0.1873 -0.2412
38206W        W39070  20.292   2.214   0.966 -0.2273  0.1131 -0.0306
38207W        W39071  23.975  12.357   2.692  0.1220  0.4934 -0.1766
38208W        W39072  22.132  23.937  27.136  0.1625 -0.0149 -0.0259
38209W        W39073  16.313  20.965   6.743  0.1528  0.3058  0.1976
38210W        W39074   6.271  14.524   0.828  0.2880 -0.0824  0.1932
38211W        W39075  17.755  20.700  17.798 -0.3059 -0.3268 -0.2167
38212W        W39076  13.406  18.050  13.275 -0.0315 -0.0331 -0.1281
38213W        W39077  12.552  19.404  28.397 -0.0049 -0.3604  0.1037
38214W        W39078  26.703  17.356  24.422  0.0412 -0.3213  0.1504
38215W        W39079   9.283  28.673  12.630  0.1279 -0.0057  0.0365
38216W        W39080  19.398  11.779  11.553  0.3097  0.4806 -0.0917
38217W        W39081  26.483  11.256  21.617  0.0360  0.3039 -0.3747
38218W        W39082  15.646  15.208  28.405 -0.0448  0.0175  0.0709
38219W        W39083  12.225  12.195   2.169  0.2871 -0.1360  0.2636
38220W        W39084  14.997  18.005  20.652  0.2417 -0.1592  0.0385
38221W        W39085  15.634  22.703  16.921 -0.1826 -0.1607 -0.2127
38222W        W39086  27.967   8.538  15.769  0.0234 -0.3263 -0.1304
38223W        W39087  16.532  26.638  16.645  0.1647  0.2080  0.0350
38224W        W39088  23.014  16.135  18.213 -0.3265  0.0160  0.1241
38225W        W39089  17.954  12.111  12.343 -0.2177  0.1625  0.0038
38226W        W39090  20.433  17.301  10.219  0.1686 -0.1640 -0.1400
38227W        W39091  11.749  21.293  28.868  0.0691 -0.5715  0.1509
38228W        W39092  18.033  23.207  28.257 -0.2050 -0.1463  0.3228
38229W        W39093  12.517   0.599   2.442 -0.1895  0.2034 -0.1320
38230W        W39094   1.323  18.753   1.095  0.4296  0.1856  0.0825
38231W        W39095  26.226  27.411  10.732 -0.0192 -0.0372 -0.0969
38232W        W39096  25.969  11.358  15.442  0.1520 -0.1194 -0.1930
38233W        W39097  11.558  25.132  22.395  0.2524  0.0717 -0.1242
38234W        W39098   8.158   8.023   1.870 -0.1418  0.4593 -0.2027
38235W        W39099  24.685  11.586   8.157  0.2275 -0.0967  0.1425
38236W        W39100  27.439   5.172  10.130 -0.0003  0.0502 -0.1748
38237W        W39101  11.049  24.918  26.049  0.0616  0.0497 -0.1851
38238W        W39102   6.421  25.085  28.760  0.1058  0.0824  0.1816
38239W        W39103  22.294  20.586  10.365 -0.0879 -0.2065  0.0226
38240W        W39104  25.830  12.572   1.941  0.0640 -0.1062 -0.0624
38241W        W39105  15.079   9.342   3.245  0.2798 -0.0751  0.2292
38242W        W39106  14.722  20.658   3.803  0.0607 -0.1456  0.0594
38243W        W39107   6.672  15.680  28.239 -0.0297 -0.0890 -0.1608
38244W        W39108  28.519  17.042  26.562  0.0386 -0.2409 -0.0986
38245W        W39109  15.568  24.237  13.347 -0.1093 -0.1739 -0.1545
38246W        W39110  22.305  16.900  11.514  0.1082  0.2760  0.0059
38247W        W39111  26.764  20.563   5.733  0.0339 -0.0411 -0.1613
38248W        W39112  19.222   3.692  28.561 -0.1536 -0.2650 -0.1911
38249W        W39113  14.291  12.355  16.599 -0.1139 -0.2004 -0.1158
38250W        W39114  14.640   9.290   0.109  0.0498 -0.1043  0.1919
38251W        W39115   9.591  20.360  11.672 -0.0079 -0.3817  0.0895
38252W        W39116  15.314  22.965  20.391 -0.2121 -0.1034  0.1049
38253W        W39117  17.721  12.564  12.013  0.2473  0.2614  0.2496
38254W        W39118  22.873  26.959  25.622 -0.2094  0.0057  0.2442
38255W        W39119   4.462   5.993   8.838 -0.5330  0.2740 -0.0028
38256W        W39120  24.469  20.661  19.097  0.0257  0.1245  0.4173
38257W        W39121  21.924   0.184  26.915  0.1527  0.0011  0.0641
38258W        W39122  18.289  22.065  25.462  0.1054  0.4009  0.1658
38259W        W39123  19.728   5.414  10.944  0.1629 -0.1725  0.0441
38260W        W39124  17.387   2.018  27.995 -0.0990  0.2293  0.0775
38261W        W39125  17.765  17.840  23.438 -0.1508 -0.0275 -0.0171
38262W        W39126  18.535  26.390  13.506 -0.1559 -0.1408 -0.0332
38263W        W39127  23.516  10.571  18.841 -0.1316 -0.0822  0.1492
38264W        W39128   9.149  22.587  28.747 -0.4129 -0.2258  0.0775
38265W        W39129  25.712  11.354   0.934 -0.0338  0.1513  0.6078
38266W        W39130  23.121  13.787  26.499 -0.2427 -0.1337  0.2259
38267W        W39131   6.832  11.033  10.675 -0.1621 -0.1188  0.1433
38268W        W39132   3.046   6.808  10.571 -0.1164 -0.0122  0.0374
38269W        W39133  17.063  25.346  10.610  0.1201 -0.0783 -0.1125
38270W        W39134   6.483  15.039   6.761  0.0447  0.0447 -0.0309
38271W        W39135  22.644  13.857  15.811  0.2043 -0.0526 -0.0163
38272W        W39136   2.914  18.380  19.443 -0.1549  0.0880 -0.2668
38273W        W39137  22.657  14.900   3.311  0.2851 -0.1299  0.1022
38274W        W39138  15.625  25.649  26.453 -0.2127  0.0943  0.1537
38275W        W39139  11.226   1.956  19.950  0.0547 -0.1237 -0.0974
38276W        W39140   8.131  29.036   5.987  0.0216 -0.2642  0.2116
38277W        W39141  11.565  13.963   0.501 -0.2156  0.0311 -0.1460
38278W        W39142   7.586  16.159   1.410  0.0565 -0.2558  0.2426
38279W        W39143  21.759  15.554  12.250 -0.0672  0.2948 -0.0636
38280W        W39144   2.367   2.306  15.036  0.0997 -0.0699  0.2463
38281W        W39145   5.300  25.641   5.964 -0.1287 -0.0104 -0.2456
38282W        W39146   9.337   3.892   1.972  0.4368 -0.1591 -0.0501
38283W        W39147   8.682  13.042   9.828 -0.0323 -0.2982 -0.1380
38284W        W39148  12.707  16.098  18.470 -0.0542 -0.0929 -0.0098
38285W        W39149  19.513  16.810   5.996 -0.1339  0.0761  0.0862
38286W        W39150  13.929   0.941  22.027  0.2580 -0.0436  0.0196
38287W        W39151  21.252   9.232  11.851  0.1728  0.1134  0.1200
38288W        W39152  28.015  17.187   2.453 -0.1468 -0.1318  0.0507
38289W        W39153   2.811   1.018   2.757 -0.3578  0.2090 -0.2024
38290W        W39154   8.513  24.605  22.159  0.0471  0.1614  0.0726
38291W        W39155  10.944   8.518  11.000  0.1400 -0.0342 -0.2876
38292W        W39156  11.853  11.481   5.323 -0.1215  0.0913 -0.2603
38293W        W39157  11.825  16.349   4.922  0.1410 -0.0524 -0.1287
38294W        W39158  20.437  12.280  11.523  0.0176 -0.2222  0.0344
38295W        W39159  21.653  11.144   5.716  0.0425 -0.0285 -0.1782
38296W        W39160  10.620  17.674   7.058  0.0415 -0.0407  0.3482
38297W        W39161  17.231  14.809   2.714 -0.1218 -0.1637 -0.1004
38298W        W39162  24.962  18.136   4.305  0.0578  0.0591 -0.0288
38299W        W39163  19.461   4.615  28.588  0.0813 -0.0699  0.0516
38300W        W39164  18.907  21.531  21.817  0.1740 -0.0721  0.0603
38301W        W39165  20.715  12.964  10.777 -0.2600 -0.1168 -0.2504
38302W        W39166  17.163  29.040   8.322 -0.0049  0.0272 -0.1187
38303W        W39167  19.047  25.216  19.485 -0.3738 -0.0625 -0.2062
38304W        W39168  24.495  13.707  16.134 -0.1536 -0.1256 -0.2345
38305W        W39169  15.908  19.496  15.862  0.2357  0.3510 -0.0876
38306W        W39170  27.732  22.377  16.180  0.1549 -0.0832  0.3007
38307W        W39171  16.627   4.286  17.321  0.1004 -0.2692 -0.0396
38308W        W39172   8.323  23.024  15.861 -0.1367 -0.0623 -0.3414
38309W        W39173   4.199   5.911   7.204  0.2182  0.1911 -0.0601
38310W        W39174  16.179  13.206   4.616 -0.0790 -0.3166 -0.1739
38311W        W39175  20.167  26.265  15.788  0.1260 -0.1845 -0.0870
38312W        W39176  21.933   4.684  20.997 -0.1885  0.0004  0.3082
38313W        W39177  24.472   6.936  21.713  0.3947 -0.1035 -0.1715
38314W        W39178   7.847  22.788  17.191 -0.1707 -0.0976 -0.0630
38315W        W39179  14.533   4.399  27.151 -0.0933  0.1845  0.0544
38316W        W39180  16.665   6.823   2.131  0.1562 -0.1347  0.0373
38317W        W39181  15.777   6.645  19.376  0.1293 -0.0236 -0.0754
38318W        W39182  28.815  12.459  20.864 -0.0246 -0.3654  0.1154
38319W        W39183  15.269  14.197  16.400  0.0081  0.0038 -0.3197
38320W        W39184   8.282  24.859  18.530  0.3729  0.1448  0.0969
38321W        W39185  25.120   4.617  20.576  0.2473 -0.0385  0.0982
38322W        W39186   6.985  12.637   2.491  0.0015 -0.3076  0.0166
38323W        W39187  25.142  13.552  10.001 -0.1717 -0.0186 -0.1225
38324W        W39188  18.589  24.413   7.745 -0.3309 -0.2526  0.3117
38325W        W39189   5.361  11.166  22.565  0.1438 -0.3223 -0.0728
38326W        W39190   0.797  28.999   2.630  0.2047 -0.1339  0.2210
38327W        W39191   8.438  11.428   8.113  0.0161  0.3466  0.1998
38328W        W39192  17.894  14.366  18.744 -0.2697 -0.0139  0.0204
38329W        W39193  19.702  12.078  19.596 -0.0068  0.1155  0.3005
38330W        W39194  11.077   0.808  16.934 -0.2587  0.0818  0.1192
38331W        W39195  24.675  27.770  12.678 -0.0689  0.0946 -0.0118
38332W        W39196  26.218   6.123  25.854 -0.1998  0.0827  0.0599
38333W        W39197  27.247  10.138  20.420  0.2836  0.1197 -0.0082
38334W        W39198   6.066  16.764  12.357 -0.0884  0.0579  0.1506
38335W        W39199   4.748  26.619  21.680 -0.1219 -0.0422  0.1342
38336W        W39200   4.468   2.859   4.087 -0.0302 -0.2042 -0.2174
38337W        W39201   2.615   7.501   3.061 -0.0201  0.2994  0.0103
38338W        W39202  23.168  17.670  12.409 -0.1896 -0.1483 -0.0734
38339W        W39203  20.342  11.887   0.320 -0.0081  0.1062  0.0501
38340W        W39204  13.505   6.357  10.521  0.2705 -0.0635 -0.1420
38341W        W39205  14.796  14.064  18.128  0.2847  0.1379 -0.0931
38342W        W39206  14.727   8.157  23.043 -0.2933 -0.0204 -0.2341
38343W        W39207  25.302   8.963  10.149  0.4151  0.0185  0.0464
38344W        W39208  21.137  26.756  15.440 -0.1228 -0.0557  0.1716
38345W        W39209  19.546  11.760   4.864  0.1924 -0.1083  0.1015
38346W        W39210   1.553  15.215   6.093 -0.3985 -0.5151  0.2234
38347W        W39211  24.628  22.952  23.541 -0.4629  0.0017  0.0386
38348W        W39212   1.936   3.525  12.480 -0.1013  0.1295 -0.1034
38349W        W39213   7.088  10.198   9.067  0.0371 -0.0525 -0.0802
38350W        W39214   5.256  24.360  12.470  0.1445 -0.2819  0.1754
38351W        W39215   8.522   6.644   8.563 -0.0079 -0.0567 -0.1455
38352W        W39216   4.249  27.637  24.808 -0.4547 -0.0352 -0.0014
38353W        W39217   7.089  23.914  10.342  0.0600 -0.0983 -0.1467
38354W        W39218  15.579  13.996   5.231  0.1412  0.1735  0.5593
38355W        W39219  26.402  18.946   0.851 -0.2343 -0.3382 -0.1196
38356W        W39220  27.833  20.234  24.866  0.3142 -0.1397 -0.2512
38357W        W39221   7.019  20.154  27.655  0.0655  0.0015 -0.0650
38358W        W39222  18.027  17.891  11.159 -0.0035 -0.0155 -0.0887
38359W        W39223  28.062  28.454   5.730 -0.2893 -0.0282 -0.2562
38360W        W39224  28.609  18.280   2.402  0.1505  0.0684 -0.0459
38361W        W39225   3.575  15.853  23.340  0.0780 -0.1770  0.1100
38362W        W39226  16.738  23.645  11.024 -0.0047  0.2532  0.1491
38363W        W39227   0.761  13.092   9.788  0.0979  0.0276 -0.0989
38364W        W39228  10.899  10.296  24.586  0.2275 -0.0675  0.0520
38365W        W39229  10.013  14.434   0.314  0.0332  0.2304  0.1626
38366W        W39230  19.189   7.656   8.955  0.0867  0.0917  0.1288
38367W        W39231  12.560  13.543  10.628  0.2398 -0.0924 -0.2238
38368W        W39232  22.928   1.213  21.615  0.1914 -0.2366  0.2907
38369W        W39233  10.487  23.255   5.173 -0.2316 -0.2139  0.0341
38370W        W39234  11.948  18.020  11.394  0.0146 -0.0004  0.1839
38371W        W39235  12.219   1.467  22.500  0.0030 -0.0209  0.0004
38372W        W39236  12.961   6.590   8.895  0.1230 -0.1892  0.0333
38373W        W39237   1.971  21.775   3.558 -0.0218  0.2216 -0.0841
38374W        W39238  20.635   5.966   7.299  0.1642  0.1203  0.3061
38375W        W39239  24.270   7.979   6.571  0.1489  0.0042  0.2852
38376W        W39240  28.871  15.193   9.314  0.1296 -0.0972 -0.0496
38377W        W39241  16.833  16.507  11.686  0.1921  0.0781  0.2169
38378W        W39242  16.914  12.230   2.165 -0.4275 -0.3330 -0.1328
38379W        W39243   2.106  16.673  24.241 -0.1874  0.2685  0.0346
38380W        W39244  17.113  15.725  16.550 -0.0572  0.0225 -0.0546
38381W        W39245  28.019   2.573   2.808  0.2709 -0.0547 -0.0072
38382W        W39246  26.154  18.298  23.391  0.2643 -0.0336 -0.2860
38383W        W39247  25.356   1.788   6.252  0.1093 -0.5840 -0.0182
38384W        W39248  21.868   8.688   6.559 -0.0242 -0.2952 -0.0845
38385W        W39249   4.306   0.181   5.768 -0.1236 -0.0135  0.0763
38386W        W39250  23.732  16.187  22.242 -0.5095  0.1370 -0.1540
38387W        W39251  10.023   9.509  25.941 -0.0590 -0.1377 -0.0005
38388W        W39252  16.472  20.543  11.641 -0.2755 -0.2846  0.0495
38389W        W39253  17.185  12.815   7.373 -0.0588  0.2147 -0.0566
38390W        W39254  18.952  22.756   2.871 -0.0655  0.3522 -0.0467
38391W        W39255  21.973  11.487  16.730 -0.1379 -0.0642  0.1096
38392W        W39256  14.921   0.799  15.850 -0.1958 -0.2336  0.0588
38393W        W39257  22.710  22.771  26.863  0.0134 -0.0372  0.0396
38394W        W39258   1.708  12.366   1.773  0.1536  0.1785 -0.1638
38395W        W39259  15.648  11.561  11.173 -0.1206  0.2663 -0.2079
38396W        W39260  10.193  20.041  13.397 -0.1611 -0.0886 -0.0178
38397W        W39261  17.902  10.701  19.992  0.1562  0.0282 -0.2878
38398W        W39262  18.406  23.304  12.822  0.0504 -0.0800  0.0304
38399W        W39263  17.343  18.459   9.204  0.2235  0.3095 -0.0032
38400W        W39264  10.394  20.944  10.628 -0.1973  0.0128 -0.0783
38401W        W39265  18.647  10.780  27.130 -0.2999 -0.0837 -0.1676
38402W        W39266  23.590   6.909  27.500  0.0318  0.1021 -0.0576
38403W        W39267   7.838  13.046  28.872  0.2778  0.0264 -0.0275
38404W        W39268   5.259   6.584  25.466 -0.2769 -0.2673  0.1374
38405W        W39269   2.287   3.806   4.035 -0.3487 -0.0259  0.1860
38406W        W39270  27.388  28.497  19.172 -0.2752 -0.1356 -0.0164
38407W        W39271  17.202  19.194  15.089  0.4061  0.0969  0.0068
38408W        W39272  23.576   4.544  25.255 -0.0043 -0.7151  0.1066
38409W        W39273  16.555  19.615   8.594  0.3355  0.0382  0.0272
38410W        W39274  23.487  11.714   7.663 -0.0532  0.0348  0.3463
38411W        W39275  15.835  21.462  16.166  0.0657  0.1534 -0.0910
38412W        W39276  19.493  13.990  10.145  0.0934 -0.2025 -0.1443
38413W        W39277   8.746  22.684  17.751 -0.2741  0.1474 -0.0670
38414W        W39278   7.019  17.656  24.712  0.1392 -0.5832 -0.1093
38415W        W39279  26.350   2.117   2.914  0.1880  0.1577  0.3795
38416W        W39280   3.206   6.114  22.766  0.3392 -0.1392 -0.1874
38417W        W39281  20.514   5.562  20.384 -0.3355 -0.4212  0.0711
38418W        W39282  20.513  21.668   0.856 -0.0624  0.2263  0.2143
38419W        W39283  11.109   0.828  12.702 -0.0629 -0.2311  0.1476
38420W        W39284  13.753  16.150   3.609  0.0397 -0.1064  0.1139
38421W        W39285  26.649   9.687   5.954 -0.1067  0.2383  0.2743
38422W        W39286   7.284  19.274  27.893  0.1312  0.0399 -0.0225
38423W        W39287  27.282  14.695   2.977  0.1539  0.0902  0.0518
38424W        W39288   7.702  11.163  17.528 -0.0075  0.0437 -0.2169
38425W        W39289  25.029   3.020  23.843 -0.3332 -0.1079  0.0123
38426W        W39290  17.816  14.077   0.058  0.0696 -0.2129  0.0274
38427W        W39291  21.602   6.115  15.667  0.1016 -0.1007 -0.0080
38428W        W39292  27.255  13.295   6.907 -0.3140 -0.0019  0.1987
38429W        W39293  15.319   5.121  24.530 -0.1066  0.2968 -0.1507
38430W        W39294  24.702  12.123   4.405 -0.2268 -0.2445  0.1890
38431W        W39295  23.687   7.931   9.212 -0.1378  0.2457  0.2728
38432W        W39296  19.569  15.698  26.160 -0.0355 -0.1269 -0.3163
38433W        W39297   2.179   6.702  17.044  0.0570 -0.1606 -0.1297
38434W        W39298   0.012  24.242  16.440 -0.0593 -0.2899  0.1027
38435W        W39299  25.115   4.918  15.644  0.1455 -0.1072  0.4476
38436W        W39300   7.298  16.551  16.074 -0.0327 -0.5229  0.1178
38437W        W39301  25.521  22.361   6.009  0.3060  0.0180  0.1256
38438W        W39302  12.477  24.628  14.990  0.1524 -0.0554 -0.0615
38439W        W39303  17.298  11.006  29.130 -0.0840  0.1426  0.1794
38440W        W39304  14.490  17.163  13.570 -0.2323 -0.0669 -0.1704
38441W        W39305  21.513  15.364  10.744 -0.0555  0.2194 -0.0208
38442W        W39306  13.411   6.714  15.101 -0.1473  0.1964 -0.0682
38443W        W39307  16.268  23.405  20.781  0.3299 -0.4496  0.0603
38444W        W39308  27.471   9.152  26.715  0.0641 -0.0294 -0.1327
38445W        W39309  28.279   9.873  20.618  0.1643 -0.0076  0.2140
38446W        W39310  20.889  24.973   0.688  0.0842 -0.0786  0.0757
38447W        W39311  15.302  12.352   5.255  0.3337  0.0009  0.1178
38448W        W39312  17.219  12.856   8.720  0.1502  0.1228 -0.0350
38449W        W39313  27.146  20.721  12.240  0.2050  0.1034  0.0367
38450W        W39314  21.460  16.462   1.081 -0.2766 -0.1132 -0.2334
38451W        W39315   1.788  17.494   1.221  0.0245 -0.0771  0.0009
38452W        W39316  22.625  25.060  21.682  0.3702  0.0745 -0.2332
38453W        W39317  28.975  18.267  28.168 -0.2649 -0.3261 -0.0912
38454W        W39318   4.922  12.212  14.131 -0.2973  0.0432  0.0259
38455W        W39319   8.270  14.183  21.504 -0.1587 -0.0825 -0.4555
38456W        W39320   3.535  24.869   2.610  0.1336 -0.1434  0.1229
38457W        W39321  25.834  13.351  20.972 -0.3337  0.1954  0.3287
38458W        W39322  22.791  13.444   2.462  0.2969 -0.1514 -0.0416
38459W        W39323  22.685  27.383  19.963  0.3314 -0.3663 -0.0450
38460W        W39324   1.430   8.370   3.877  0.2338 -0.2082 -0.2784
38461W        W39325  25.224  12.834   3.949  0.2261  0.1178  0.1070
38462W        W39326   4.775   8.038   4.314 -0.3455 -0.1504  0.0663
38463W        W39327  15.685  19.178  24.946 -0.1938 -0.2344  0.2522
38464W        W39328  16.055  16.557  21.767 -0.0505 -0.1465  0.1270
38465W        W39329  18.185  19.355   9.794 -0.0240 -0.3440  0.1175
38466W        W39330  15.713  21.461  21.667 -0.1730  0.0814  0.2275
38467W        W39331  18.638  13.341   8.202 -0.0056 -0.1367 -0.4426
38468W        W39332  10.735  22.473   6.613 -0.0080 -0.0401  0.2674
38469W        W39333  28.290   3.712   3.438 -0.2036 -0.0647 -0.1312
38470W        W39334  23.456   8.094  12.181  0.0302  0.2261  0.1545
38471W        W39335  26.652   6.334   9.728 -0.1876  0.1845  0.3032
38472W        W39336  27.972  15.159  21.934  0.0939 -0.3884 -0.0701
38473W        W39337  15.556  12.962  29.096 -0.0163  0.0137  0.2658
38474W        W39338  16.513  18.887   9.933 -0.1977  0.2845  0.0880
38475W        W39339  18.206   8.566   5.286 -0.4149 -0.1429 -0.0832
38476W        W39340  15.544  12.114  16.128  0.2064  0.1779  0.2513
38477W        W39341  24.321   6.621  26.812  0.0029  0.2151 -0.2168
38478W        W39342  22.391   3.998  13.374  0.0043  0.3478  0.0113
38479W        W39343  27.255  27.618  23.581  0.0505  0.1537 -0.2091
38480W        W39344  20.923  27.447   1.193 -0.1835  0.4318 -0.0431
38481W        W39345  19.780  15.833  10.839  0.3325  0.0867  0.1662
38482W        W39346  12.476  26.188   3.467  0.1882  0.0097 -0.1415
38483W        W39347  10.705  10.718   2.482  0.1250 -0.1210  0.1850
38484W        W39348  26.227  26.915   1.186  0.3703  0.0557  0.0088
38485W        W39349  22.257   6.225   1.427  0.0862  0.0899  0.0555
38486W        W39350   4.323  14.233   2.075 -0.0884  0.3003 -0.1723
38487W        W39351  19.248  18.129   7.805  0.0988 -0.1588  0.0001
38488W        W39352  21.552  20.661   2.732  0.0070 -0.0591  0.0554
38489W        W39353   2.533  22.783   3.052  0.2106  0.0669 -0.1840
38490W        W39354  27.324  25.365  12.875  0.0828 -0.1016 -0.1509
38491W        W39355  17.421  11.290  19.172 -0.1883 -0.0673 -0.0124
38492W        W39356   2.450  23.612  28.027  0.0556 -0.0828  0.0231
38493W        W39357  20.882  19.592   9.792 -0.0911  0.0489 -0.4504
38494W        W39358  22.685  26.022  15.228  0.1244 -0.1108 -0.0066
38495W        W39359  28.447   9.356   8.093 -0.2892 -0.1244 -0.1502
38496W        W39360  15.378  10.369  21.947 -0.1312  0.1591 -0.0867
38497W        W39361  20.338   6.395  14.971 -0.2401 -0.1926  0.1757
38498W        W39362  21.461  16.579  26.986 -0.0031  0.0680  0.1638
38499W        W39363  15.008   3.782   1.975 -0.0770  0.1985  0.1651
38500W        W39364   0.688  29.134  28.455  0.0244  0.0501  0.2678
38501W        W39365   2.243  11.508   5.263  0.3585  0.0200 -0.1340
38502W        W39366  19.596  28.921   7.851 -0.2133 -0.1148  0.1336
38503W        W39367  15.650   9.450   1.386  0.0161  0.2265 -0.0537
38504W        W39368  13.606  24.141  16.412 -0.0997 -0.0480 -0.2726
38505W        W39369  28.410  14.328   8.954  0.0203  0.0092 -0.1732
38506W        W39370  25.897  24.032  14.228  0.0955  0.0079 -0.0269
38507W        W39371  28.868  25.822  12.137 -0.1130  0.1109 -0.3923
38508W        W39372  18.501  25.516   9.567 -0.0905 -0.2371  0.2793
38509W        W39373  27.115   6.574   7.966  0.2677 -0.0064 -0.0635
38510W        W39374   5.303  16.641  17.138  0.0837 -0.0416  0.0354
38511W        W39375   7.389  17.148  11.746  0.2881  0.0336 -0.2338
38512W        W39376  20.774  17.714   2.756  0.2740  0.1821 -0.1151
38513W        W39377  28.613   9.558  23.062 -0.1864 -0.3125 -0.1386
38514W        W39378  13.914  15.669  15.486 -0.0208 -0.2573 -0.1965
38515W        W39379   9.069  28.821  10.681  0.0373  0.4263  0.0441
38516W        W39380   9.466   7.170  27.273  0.3559 -0.0194  0.4055
38517W        W39381  24.702  10.197  17.593 -0.0030 -0.2773  0.1334
38518W        W39382   4.880   9.595  11.987  0.0133  0.0331  0.0641
38519W        W39383   0.313  14.492  11.986 -0.0404  0.0819 -0.1149
38520W        W39384  13.602  17.937   6.545 -0.0983  0.2071 -0.0981
38521W        W39385   2.625  19.461  11.656 -0.2703 -0.0532 -0.3350
38522W        W39386  18.801  12.523  28.071  0.3113  0.0573 -0.0515
38523W        W39387  17.704  18.183  17.485  0.0397 -0.4126 -0.0071
38524W        W39388  14.147  20.422   0.359  0.1090 -0.1784 -0.0094
38525W        W39389  18.036  17.848   9.338 -0.1427  0.1898 -0.0791
38526W        W39390  23.379  20.665  13.995 -0.0126  0.0810  0.3079
38527W        W39391   7.902  23.012   5.589  0.2440  0.0892  0.0272
38528W        W39392  20.434  23.269  10.030  0.3916 -0.0548  0.0225
38529W        W39393   5.620   9.078  27.362  0.1489 -0.0793  0.0269
38530W        W39394  11.354   3.109   6.977 -0.3573  0.2106  0.2239
38531W        W39395  29.059  27.400   5.621 -0.1688  0.0612  0.0749
38532W        W39396  26.413   1.372  12.658  0.1028  0.2413 -0.1175
38533W        W39397   0.506   7.503   5.784 -0.0613  0.1953 -0.0462
38534W        W39398   5.702  21.655  27.951 -0.2056  0.0364  0.0318
38535W        W39399  16.332  18.129  27.457 -0.3049 -0.1225 -0.2079
38536W        W39400   3.403  10.561   8.876  0.1729 -0.0663  0.0604
38537W        W39401  10.355   9.692  12.210  0.3449  0.0897  0.1449
38538W        W39402  13.613   6.260  26.510  0.2840  0.4789 -0.0210
38539W        W39403  20.903  13.899   2.573  0.1814 -0.0411  0.0885
38540W        W39404  18.900  12.831  15.641 -0.1071  0.0598  0.0851
38541W        W39405  22.296  20.687  20.502  0.0986  0.0506 -0.1496
38542W        W39406  19.150  10.167   9.466  0.1037  0.2130 -0.0093
38543W        W39407  10.686   8.123   9.572  0.1676 -0.3597 -0.2099
38544W        W39408  28.776   7.605  22.278  0.2535  0.1546 -0.1123
38545W        W39409   0.734  25.272  20.947 -0.0625 -0.0606  0.1383
38546W        W39410  21.833  24.601   8.847  0.2082 -0.0969  0.1043
38547W        W39411  28.864  13.939   7.348 -0.4602 -0.0103  0.0298
38548W        W39412  20.308  16.135  28.111  0.0009  0.0254  0.3311
38549W        W39413  25.025   8.811  18.323 -0.1056  0.1983  0.1621
38550W        W39414  27.871  10.727  26.668  0.3781 -0.2117 -0.1756
38551W        W39415  18.265  16.393   9.526 -0.1786  0.0911 -0.1290
38552W        W39416   7.753   9.256  27.352  0.2651 -0.4230  0.1294
38553W        W39417  24.019  15.589  15.252  0.0171 -0.3058 -0.1009
38554W        W39418   1.406  14.903  21.679 -0.0725  0.0283 -0.1351
38555W        W39419   0.965  11.728   6.152 -0.2871 -0.0865 -0.0001
38556W        W39420   8.145  26.543   1.569 -0.0262  0.0491 -0.0426
38557W        W39421   3.864  21.388  24.297 -0.5156 -0.0265 -0.0097
38558W        W39422   7.943  10.684  13.275  0.1367 -0.0083  0.3429
38559W        W39423  28.655  14.565   3.377  0.0342  0.0027 -0.1501
38560W        W39424  14.326  10.939  25.624  0.0239 -0.2607  0.1156
38561W        W39425   4.674  28.463   5.906  0.3142 -0.0654 -0.1241
38562W        W39426  17.858   4.537   3.283  0.1004 -0.0026 -0.0751
38563W        W39427   8.241  18.327   1.031 -0.0834  0.3454  0.2850
38564W        W39428   5.192  17.207  20.422  0.1608  0.0932 -0.2671
38565W        W39429  19.156   9.761  20.953  0.4570  0.1621 -0.2832
38566W        W39430  19.285   2.055  10.819  0.0440 -0.2824 -0.2067
38567W        W39431  23.355  19.562   8.639 -0.0097  0.3205 -0.1612
38568W        W39432  20.173  12.469  17.433 -0.0233  0.3046  0.1805
38569W        W39433  25.640  13.185  16.140 -0.1857  0.1957 -0.1103
38570W        W39434   0.240  22.312   7.204 -0.1840  0.0366  0.1429
38571W        W39435  25.413  25.402  15.952 -0.0604 -0.0630 -0.0481
38572W        W39436  25.741  24.541  16.731  0.2776 -0.0769  0.0111
38573W        W39437  24.121  22.037  11.990 -0.1776  0.3041 -0.2162
38574W        W39438  15.760  14.306   4.336 -0.2976  0.2625 -0.1358
38575W        W39439   3.032  19.956   8.442  0.1182  0.1364 -0.2056
38576W        W39440   5.211   5.271  23.615 -0.1325  0.3868  0.0526
38577W        W39441  22.685   7.694  27.167 -0.0569 -0.0145 -0.1311
38578W        W39442   4.939  20.747   9.440  0.1656  0.0620 -0.1478
38579W        W39443  24.057   5.329  24.591 -0.1825  0.1479 -0.1676
38580W        W39444  21.669  22.755  23.446 -0.0789  0.3247 -0.0857
38581W        W39445  24.302  19.244   4.070 -0.2260 -0.3614 -0.0302
38582W        W39446  14.588  21.147  17.985 -0.1327 -0.0873 -0.0081
38583W        W39447  13.822  28.870   2.079 -0.2018  0.3956 -0.0037
38584W        W39448  13.470   2.404   5.956 -0.1726 -0.1112  0.0087
38585W        W39449   8.979   5.732  19.798 -0.2231  0.0410  0.3859
38586W        W39450  23.565  21.991   1.486  0.0494  0.0704  0.1138
38587W        W39451  16.456   4.817   4.460  0.3274  0.2525 -0.1011
38588W        W39452  14.313  24.454  19.068  0.2666  0.1894  0.3265
38589W        W39453   8.382   5.648  16.796 -0.2754 -0.0738  0.0966
38590W        W39454   9.325  28.767  25.720 -0.0284 -0.1700 -0.0815
38591W        W39455  19.129   3.888   6.360 -0.0475  0.2185 -0.2627
38592W        W39456  12.495  23.254  14.750 -0.0376  0.0958 -0.2313
38593W        W39457  20.275  13.943   7.072 -0.2090  0.0107  0.0899
38594W        W39458  19.417  20.489  28.724 -0.3071 -0.0797 -0.1767
38595W        W39459  20.481  13.970   9.979  0.0106 -0.1521  0.0838
38596W        W39460  18.326   5.847  23.631 -0.2935  0.1014 -0.1793
38597W        W39461  11.025   3.469   7.244  0.1160 -0.0373 -0.3937
38598W        W39462   5.201  12.408   1.138  0.2779 -0.2510 -0.1116
38599W        W39463  17.976  21.657   1.005 -0.2564  0.1632 -0.0739
38600W        W39464  21.105  11.294  15.098  0.1275 -0.0828  0.0508
38601W        W39465  18.087  14.892   5.238 -0.1949  0.1476  0.0850
38602W        W39466  26.128  13.804  29.008 -0.1281  0.1868  0.5348
38603W        W39467   6.132  20.128  15.162 -0.2098 -0.2445 -0.2192
38604W        W39468  11.925  18.313  21.889  0.2587  0.1049 -0.2935
38605W        W39469  12.641  12.090  14.244  0.3645  0.0582 -0.3623
38606W        W39470  19.156  26.249   1.213 -0.2600 -0.5347  0.2625
38607W        W39471  16.328   7.870  17.243 -0.2047  0.5670 -0.1168
38608W        W39472  25.918  16.161   3.735  0.0366 -0.2105 -0.3416
38609W        W39473   8.076  20.261   1.286 -0.1897 -0.3098 -0.1246
38610W        W39474  17.137  19.755  27.663  0.0156 -0.0629 -0.2555
38611W        W39475  12.040   3.388  14.459 -0.1421 -0.3923 -0.2961
38612W        W39476   9.208  15.765  24.985  0.1597  0.0264  0.4837
38613W        W39477  17.723  12.683  21.186  0.3943 -0.1219 -0.2068
38614W        W39478  15.785  22.983  18.224  0.2392  0.1278 -0.0355
38615W        W39479  11.085  16.489   6.896  0.1569 -0.0683 -0.0718
38616W        W39480  21.815   0.881  24.415 -0.2321 -0.1444  0.0928
38617W        W39481   8.792  14.098   2.450  0.0842  0.0971  0.1476
38618W        W39482  18.703  13.646  11.053  0.1639  0.0639 -0.2074
38619W        W39483  22.532  18.803  10.419  0.0008  0.1478  0.1237
38620W        W39484  10.747  13.912  18.958  0.2168  0.1477  0.0906
38621W        W39485  25.151  10.920  15.295  0.0946  0.3083  0.1749
38622W        W39486  15.012  13.907   1.387  0.1016  0.2983  0.0051
38623W        W39487  26.754   7.840   7.870 -0.2067 -0.1478 -0.0322
38624W        W39488  13.291  24.850  10.783  0.1558  0.1402  0.0150
38625W        W39489  19.339   0.046  22.553  0.2566 -0.1795 -0.3996
38626W        W39490   9.356   0.031  18.082  0.3266 -0.2337 -0.0890
38627W        W39491  13.496  22.269  13.757  0.0261  0.0371 -0.1062
38628W        W39492  11.824  21.512  16.935 -0.2097 -0.1389  0.1385
38629W        W39493  26.801  18.261  17.584 -0.4516  0.5174 -0.0818
38630W        W39494   6.638  25.590  12.860 -0.1674  0.0325 -0.1833
38631W        W39495  11.714  11.664  11.744  0.0808  0.0365  0.0668
38632W        W39496  10.802  15.725  10.762  0.0469  0.0903 -0.0922
38633W        W39497  14.908   8.579  22.406 -0.4703 -0.1680 -0.1066
38634W        W39498  24.492  26.165  16.621  0.1716  0.0754  0.1160
38635W        W39499  25.771  11.186  13.939 -0.0947  0.3506  0.1954
38636W        W39500  12.919  11.615  10.425 -0.0508  0.0887  0.1375
38637W        W39501   0.493  10.891  26.653 -0.0392 -0.1879 -0.1673
38638W        W39502  10.335  11.610   6.441 -0.1136 -0.0472 -0.4371
38639W        W39503  24.606  21.432  25.823  0.5133  0.0222  0.0658
38640W        W39504   3.596   3.485  10.993  0.0736 -0.0534  0.1728
38641W        W39505  23.381  16.229  23.856 -0.1178 -0.0167  0.0663
38642W        W39506  16.508  18.050  10.224 -0.1265  0.1906  0.1791
38643W        W39507  17.855  18.420  13.528  0.2348 -0.1808  0.2058
38644W        W39508  28.795  20.767  15.312 -0.3878 -0.2687  0.2002
38645W        W39509  22.759  20.520  20.717  0.0082  0.0627 -0.0515
38646W        W39510   4.927   3.207   0.514 -0.0473 -0.0948  0.2712
38647W        W39511  11.195  17.569   4.543  0.1057  0.0014 -0.3407
38648W        W39512  26.436   3.123  10.289 -0.2131 -0.1613 -0.1334
38649W        W39513  14.460   7.275  11.341  0.0880  0.0339  0.1059
38650W        W39514  17.567   5.492   6.045 -0.3108 -0.0678  0.2200
38651W        W39515  12.287  15.609   0.766  0.1415  0.3097  0.0367
38652W        W39516  18.419  11.300  10.855  0.3280  0.3800 -0.0279
38653W        W39517   6.741  26.069  26.091  0.4931  0.1926  0.1747
38654W        W39518   6.716  21.078  14.014  0.1020  0.3374  0.1619
38655W        W39519  14.242  17.072  18.421 -0.2216  0.3133 -0.1230
38656W        W39520   3.071  21.690  28.009  0.0217  0.0335 -0.0014
38657W        W39521   1.358  14.643   0.252 -0.0452  0.0380 -0.1358
38658W        W39522   7.359  16.206  12.760 -0.3195  0.2766 -0.1564
38659W        W39523  21.577  27.686  21.849 -0.1313 -0.0748  0.0075
38660W        W39524  25.853   0.723   4.680  0.1131  0.1258  0.0213
38661W        W39525  16.776  11.247  21.892 -0.1566  0.1726  0.0871
38662W        W39526  18.667  24.368  19.683  0.0162  0.0783  0.0864
38663W        W39527   1.412  25.634  19.889 -0.1753  0.1472 -0.4881
38664W        W39528  13.612  18.956  18.026 -0.2864  0.0406 -0.1777
38665W        W39529   1.915   1.382   5.379 -0.4858  0.0815 -0.3988
38666W        W39530  16.931  13.598   9.825  0.1270  0.4237 -0.1929
38667W        W39531  25.684   8.961  20.060 -0.1626 -0.0047 -0.1927
38668W        W39532  18.858   9.352  22.460  0.2079  0.1621  0.0825
38669W        W39533  26.312  27.425  28.661 -0.2097 -0.1720  0.0774
38670W        W39534  17.481  12.474  17.868 -0.2994  0.0752  0.1178
38671W        W39535  26.529   2.034   8.647 -0.2662 -0.0783  0.1409
38672W        W39536   2.198  26.846   5.797 -0.0592  0.0740  0.0131
38673W        W39537   3.825  15.226  13.071 -0.2840 -0.0351  0.0113
38674W        W39538   2.208   8.156   1.666 -0.2436  0.3350  0.1108
38675W        W39539   5.463  20.828  26.899  0.0565  0.0890 -0.0898
38676W        W39540  16.037   6.292  14.739 -0.4296  0.0669 -0.5068
38677W        W39541   3.224  20.573   5.913 -0.0276 -0.1605  0.2015
38678W        W39542  17.001   7.558   3.898 -0.0054  0.2049  0.3700
38679W        W39543  19.214  22.198   6.296 -0.1278 -0.1822 -0.0834
38680W        W39544  26.932   0.394  26.250 -0.0879 -0.0733 -0.0699
38681W        W39545   4.046  25.378  27.417 -0.1360 -0.1031  0.2066
38682W        W39546  27.792  11.441  13.095  0.3736  0.4313  0.4622
38683W        W39547  12.677   5.243  25.312 -0.1919  0.1815 -0.4186
38684W        W39548  18.646   6.638  12.457 -0.0123 -0.0641  0.0522
38685W        W39549   3.603  28.443   2.004  0.0496  0.4852 -0.0195
38686W        W39550  21.594  23.166   8.605 -0.1799  0.1506  0.5104
38687W        W39551  27.816  17.367  12.934 -0.0099 -0.0208  0.2805
38688W        W39552  24.861  13.773   5.715 -0.0258 -0.0267  0.0145
38689W        W39553   0.415  14.269   8.099 -0.1032  0.3500 -0.0095
38690W        W39554  19.506  17.226  21.538 -0.1057 -0.0912 -0.3448
38691W        W39555  15.914  27.118  14.673  0.5062 -0.1806  0.1901
38692W        W39556   1.641  13.387  10.655  0.1308 -0.0710  0.3439
38693W        W39557   4.465   8.135   1.856 -0.0220  0.0122  0.0657
38694W        W39558  25.464  17.746  18.925 -0.1868 -0.2554  0.0068
38695W        W39559  11.845   2.150  24.277  0.1501 -0.2462 -0.0664
38696W        W39560  19.608   4.254  13.095  0.0258  0.5190 -0.0152
38697W        W39561  22.438  10.267  22.967  0.1496  0.2169  0.0211
38698W        W39562  17.026   1.888   9.954 -0.0231  0.0608  0.1565
38699W        W39563  28.151   6.451  23.722 -0.0426 -0.1780 -0.2344
38700W        W39564  12.836  15.596  12.797 -0.3311  0.2560  0.1950
38701W        W39565  29.044   8.341  14.631 -0.1105 -0.0884  0.0686
38702W        W39566   5.851  11.102   6.346  0.1473 -0.0460 -0.2032
38703W        W39567  12.060   4.573   3.373 -0.2415  0.0631 -0.0841
38704W        W39568  22.780   3.044   7.321 -0.0568 -0.1071 -0.0895
38705W        W39569  10.956  22.124  16.668  0.3524  0.0859  0.1479
38706W        W39570  26.174  10.927   0.499 -0.1951  0.0100  0.0060
38707W        W39571   5.621  23.211  14.401  0.0543 -0.0319 -0.0746
38708W        W39572  21.239  14.809  17.699 -0.1023  0.1115  0.0605
38709W        W39573  13.653   4.919  20.872 -0.0168  0.0886  0.1207
38710W        W39574  17.999  16.934  18.478 -0.1266 -0.4660 -0.1509
38711W        W39575  18.019  22.389  14.610  0.0080 -0.1826 -0.1017
38712W        W39576  26.696  10.935  15.477  0.2355  0.0001 -0.0078
38713W        W39577   3.310  10.771   4.534 -0.0466 -0.0592  0.2918
38714W        W39578   1.963   4.403  15.985  0.1018 -0.2872 -0.0757
38715W        W39579   1.897  26.154  14.085 -0.0091 -0.0586  0.2171
38716W        W39580  21.065  11.876   2.698 -0.0661 -0.1375 -0.2122
38717W        W39581  25.488   4.489   3.218 -0.2403  0.2096 -0.1371
38718W        W39582  17.137  22.596   9.727  0.1218  0.0080 -0.1081
38719W        W39583   6.097  22.858   9.910 -0.1144 -0.0740 -0.3104
38720W        W39584   9.834  25.917  23.188 -0.1209  0.3470  0.0234
38721W        W39585  23.938  20.131  22.482  0.1997  0.2564  0.0347
38722W        W39586  24.102  21.282   1.997 -0.1199  0.1064 -0.0213
38723W        W39587  18.366   8.103  11.662 -0.0545  0.0413  0.1109
38724W        W39588  16.333   1.763  21.305  0.0774  0.2221 -0.0252
38725W        W39589  11.619  15.182   3.159  0.0043 -0.0973 -0.2319
38726W        W39590   2.127  13.798  16.140 -0.0929 -0.0809  0.0083
38727W        W39591   4.039  19.145  15.346  0.2010  0.0567  0.2154
38728W        W39592  18.371   4.499  21.066 -0.0690  0.1121 -0.2681
38729W        W39593  23.215  14.379   2.416 -0.0690  0.1978  0.1890
38730W        W39594  26.668   2.851  19.253  0.1340  0.2302  0.0965
38731W        W39595  21.644  22.809  11.986  0.1005 -0.1154  0.0713
38732W        W39596  18.987  15.773  11.548 -0.0700  0.1487  0.1658
38733W        W39597  10.128   8.913  11.072 -0.1266  0.2448 -0.0279
38734W        W39598   6.023  18.269   9.299 -0.1008 -0.1444 -0.1840
38735W        W39599  23.901  18.045  28.578 -0.1279 -0.1356  0.2216
38736W        W39600  11.734   0.933  22.334  0.2984 -0.2432  0.0827
38737W        W39601  11.848  11.018   6.726 -0.2528 -0.0482  0.0737
38738W        W39602   8.644   5.641  25.777 -0.2737 -0.3450 -0.3502
38739W        W39603  26.538  19.273  25.707  0.1208  0.1094  0.1101
38740W        W39604  23.321   7.094  15.254 -0.0386 -0.2005 -0.2439
38741W        W39605  16.158  27.639   0.769  0.0181  0.3297 -0.1594
38742W        W39606  19.218  10.620  19.792  0.0696 -0.2402  0.1531
38743W        W39607   7.643  14.518  18.372  0.3196  0.2385 -0.1497
38744W        W39608  10.306   4.730   8.022  0.0374  0.0758  0.0627
38745W        W39609  27.429  15.869  13.159 -0.3619 -0.2163  0.0296
38746W        W39610   7.334   5.385  23.223 -0.0368  0.0827  0.1997
38747W        W39611   4.401   5.476  17.861 -0.0732  0.0545 -0.0970
38748W        W39612  24.480   8.566   5.786 -0.3335 -0.3003  0.0487
38749W        W39613  27.334   9.325  15.703 -0.0260 -0.2514  0.1452
38750W        W39614  10.029  20.658  19.023  0.0048 -0.0375  0.0080
38751W        W39615  19.993   9.138  13.006  0.2359  0.1160 -0.0446
38752W        W39616  15.504   7.284  27.879  0.0317  0.0370 -0.1619
38753W        W39617  22.868  17.473  27.228  0.0304 -0.0448 -0.1598
38754W        W39618  18.234  12.327   8.126 -0.0385  0.0157  0.2044
38755W        W39619  25.855  17.214   5.513 -0.0994 -0.2002  0.0675
38756W        W39620  25.091  14.738  19.883  0.2016 -0.1085 -0.1247
38757W        W39621  11.160   1.510  28.380 -0.5129  0.1931  0.0740
38758W        W39622   4.833  20.489   0.294  0.1823  0.1524 -0.1500
38759W        W39623  14.536   0.919  16.846  0.3770  0.0398 -0.0837
38760W        W39624  20.954  12.664  25.972 -0.2096  0.1913 -0.4998
38761W        W39625  14.660  18.044  21.363  0.0928 -0.2087  0.0837
38762W        W39626   4.170   0.735   0.036  0.2109 -0.0613  0.0302
38763W        W39627  19.886  12.508  27.259  0.2037 -0.2150  0.1378
38764W        W39628  19.832  23.514   7.829 -0.1707  0.1460 -0.0680
38765W        W39629  18.132   2.126  25.422 -0.0349 -0.1375 -0.0766
38766W        W39630  18.460  22.470  17.671 -0.0139  0.3112 -0.3247
38767W        W39631   6.783   2.024   2.296 -0.0531 -0.0056  0.0089
38768W        W39632   2.429  19.119   8.514 -0.0828  0.1217  0.5437
38769W        W39633  26.034  26.897  10.657  0.0375 -0.3646  0.0176
38770W        W39634  17.891  13.388  24.764  0.1870  0.2078  0.1523
38771W        W39635   4.899  27.607   8.240 -0.0827  0.1528 -0.2666
38772W        W39636   1.783  19.422  27.133 -0.1746  0.1410 -0.3450
38773W        W39637  22.447   0.436   5.758  0.0922  0.2515 -0.1250
38774W        W39638  17.857   7.018   2.567 -0.1650 -0.1395  0.3282
38775W        W39639  16.865  21.633   6.428 -0.2210 -0.3481 -0.1206
38776W        W39640  15.916  16.177   2.791 -0.2262 -0.0779 -0.0034
38777W        W39641   2.123  22.657  18.006 -0.0652  0.0577  0.0423
38778W        W39642   8.481  12.944  27.513  0.1955  0.0786  0.2278
38779W        W39643  17.439  12.027  15.157 -0.0279  0.3408  0.4036
38780W        W39644   4.601  22.586  24.282 -0.3653 -0.1114  0.0612
38781W        W39645  10.463   6.098   1.423 -0.0283 -0.1460 -0.2800
38782W        W39646  16.941  24.425  15.488  0.1273  0.0754 -0.0743
38783W        W39647  13.125   3.748  18.357  0.1844 -0.1125 -0.0588
38784W        W39648  17.949  27.020   3.630  0.2480 -0.1401 -0.2981
38785W        W39649  17.176  15.235  11.436  0.2740 -0.0236  0.3908
38786W        W39650  27.816  18.912  19.909  0.3274  0.1645  0.0325
38787W        W39651  24.366  13.243  28.471 -0.1935 -0.1369 -0.3165
38788W        W39652   7.316  14.574   4.661 -0.1081  0.1519 -0.2288
38789W        W39653   4.818   8.520   3.129 -0.0921  0.1340 -0.3335
38790W        W39654  13.769   4.645  12.838 -0.0017 -0.2047  0.0076
38791W        W39655   4.689  18.897   2.528  0.3451  0.3241 -0.1473
38792W        W39656  26.481  22.539  14.757  0.0455  0.1988 -0.0361
38793W        W39657  26.692   3.646   5.314  0.2937 -0.3113  0.1147
38794W        W39658  24.639   0.029  29.089  0.1897  0.2310 -0.1509
38795W        W39659   2.406  16.272   8.758  0.1125 -0.1787 -0.2568
38796W        W39660  25.992  18.603  10.059 -0.0953  0.2960 -0.1517
38797W        W39661  18.523  22.957   2.933 -0.0979 -0.1318  0.1913
38798W        W39662   2.543  19.802   0.193  0.1521 -0.3947 -0.0524
38799W        W39663  14.692  12.650  14.350 -0.1643 -0.0339 -0.0653
38800W        W39664  15.886  17.783   0.750 -0.1644 -0.3518  0.0196
38801W        W39665   9.330  16.364  14.702 -0.0544  0.4156 -0.1464
38802W        W39666  14.213  24.403   4.792  0.0408 -0.0675  0.2904
38803W        W39667  23.732   3.580   8.076  0.0004  0.0368 -0.0727
38804W        W39668   3.669   9.506   4.841  0.4290  0.1524  0.2040
38805W        W39669  14.519  23.903  13.445  0.2500 -0.0631 -0.1714
38806W        W39670   9.887   4.987   7.408  0.0481 -0.1208 -0.1761
38807W        W39671  18.861   6.231   5.682 -0.1082 -0.2335  0.1986
38808W        W39672  11.652  27.843   1.653  0.2490 -0.1140  0.0437
38809W        W39673  18.632  13.356   2.382  0.0401 -0.2363 -0.0470
38810W        W39674  23.471  10.888  16.628 -0.0456 -0.2878  0.2306
38811W        W39675  15.454   2.650   4.629 -0.0119  0.0857  0.0060
38812W        W39676  20.526   3.495   5.259  0.0955 -0.4229 -0.0951
38813W        W39677   3.845  16.460  10.346 -0.2023 -0.1504 -0.2549
38814W        W39678   2.878   9.292   0.285  0.2861  0.0551 -0.1640
38815W        W39679  22.304  22.342   5.193  0.0921  0.1707  0.2022
38816W        W39680  18.069   1.065  14.599 -0.0928 -0.0529  0.0060
38817W        W39681   8.162  15.026  20.917 -0.0750  0.1253 -0.1717
38818W        W39682  21.287  26.308  17.501 -0.0874  0.1023  0.2371
38819W        W39683  17.609  26.668   8.703  0.0942  0.2611  0.3345
38820W        W39684   4.924  22.688   4.277 -0.1373 -0.0047  0.0041
38821W        W39685  15.230   4.410   7.202 -0.0046 -0.0805  0.1772
38822W        W39686  13.740  10.931  12.083 -0.0607 -0.1351  0.1211
38823W        W39687   2.252  22.986   7.882 -0.2441  0.2824 -0.2367
38824W        W39688   0.722  10.606  17.293 -0.1167 -0.0145  0.1667
38825W        W39689  19.679   8.929  13.336 -0.1493  0.0555  0.1694
38826W        W39690  13.435  16.985   6.549  0.1908  0.0543  0.0382
38827W        W39691  21.539  19.379  16.317 -0.1303 -0.0743  0.0567
38828W        W39692  19.859  26.163  13.413 -0.3288 -0.0375 -0.0836
38829W        W39693   1.886  21.294  21.568  0.3446 -0.2716  0.0713
38830W        W39694  10.769   3.064  28.656 -0.0393  0.0685  0.1324
38831W        W39695  14.290   3.187   8.134  0.3315  0.1243 -0.2029
38832W        W39696  13.814   6.421  20.195 -0.5445 -0.1423 -0.3635
38833W        W39697  12.109  15.240  11.576  0.0149  0.2256 -0.0402
38834W        W39698  22.927   6.356  16.576  0.0379 -0.0950 -0.1818
38835W        W39699   6.431  19.061  25.375 -0.0478 -0.2192 -0.1654
38836W        W39700  19.025   0.366   9.095 -0.1210  0.2570  0.1358
38837W        W39701  27.397   5.899   4.867 -0.0708 -0.2551  0.0293
38838W        W39702   9.667  12.846   8.260 -0.4073  0.1473  0.0258
38839W        W39703   9.386   4.178  12.917 -0.3441 -0.1441  0.0304
38840W        W39704  24.348  24.917  12.671 -0.1340 -0.0178  0.3497
38841W        W39705   9.631  23.099   4.159 -0.3527 -0.1498 -0.1810
38842W        W39706  21.399  15.481  14.902  0.1899 -0.1300 -0.4006
38843W        W39707   0.568   7.193   9.478  0.0455  0.0848 -0.1951
38844W        W39708   9.249   2.449  19.558  0.2788 -0.1050  0.0404
38845W        W39709   1.409  10.054  16.824 -0.0255 -0.0168  0.3605
38846W        W39710  24.999   8.610   1.782 -0.0317 -0.1979 -0.0784
38847W        W39711  12.208  18.553   9.273  0.1609 -0.3714 -0.0528
38848W        W39712   5.901  17.529   7.512  0.0373 -0.1924  0.2929
38849W        W39713   5.570   7.301  24.927  0.5209  0.0304 -0.1262
38850W        W39714  20.070  28.435   6.865  0.0401 -0.2087  0.0047
38851W        W39715  19.854  14.242   5.492 -0.0532 -0.1522 -0.0538
38852W        W39716  24.516  19.822  26.379  0.1528  0.0386 -0.1393
38853W        W39717   3.422  22.423  13.092 -0.2140  0.1148  0.0620
38854W        W39718  18.511  28.673   0.206 -0.0590  0.3194 -0.0560
38855W        W39719  23.316   4.410   7.815  0.1199 -0.1949 -0.1333
38856W        W39720  16.722   2.574  11.265 -0.0346 -0.0130 -0.0577
38857W        W39721  11.756  12.074  21.603 -0.2129 -0.1721 -0.0166
38858W        W39722  26.627  13.892  19.223  0.0826 -0.0799 -0.0315
38859W        W39723   2.324  11.236   9.571  0.0133 -0.1899  0.1308
38860W        W39724  26.213  23.717  16.598  0.0793 -0.6760 -0.1324
38861W        W39725   4.078  10.316   9.456 -0.3568 -0.0534 -0.0860
38862W        W39726   4.834  19.850   3.692  0.0217 -0.0493  0.0382
38863W        W39727  16.211  26.535   9.910 -0.2093 -0.4917  0.2622
38864W        W39728  28.728  23.530  21.576 -0.2414 -0.0655  0.1974
38865W        W39729   9.977  21.561  12.593  0.1576  0.4296  0.0210
38866W        W39730  26.238  10.475  19.505 -0.5047 -0.1902 -0.0331
38867W        W39731  26.409  18.516  11.668 -0.1547  0.0945  0.3625
38868W        W39732  26.422   6.715  26.884 -0.3833 -0.0814 -0.1979
38869W        W39733  27.222  27.238  13.696 -0.0633  0.0061 -0.1182
38870W        W39734   7.960  15.079  21.912 -0.5546  0.0174  0.0433
38871W        W39735   6.267   5.009  11.326 -0.2191 -0.0470 -0.2064
38872W        W39736  17.497  14.952  28.066  0.0531 -0.3079  0.0428
38873W        W39737  21.799  17.311  15.186 -0.0778 -0.1583 -0.0736
38874W        W39738   5.696  20.124   5.107  0.1398  0.2756 -0.0686
38875W        W39739  11.119   0.329  26.050 -0.0726 -0.2342  0.0180
38876W        W39740   3.116   7.682  11.793 -0.1073 -0.0307 -0.2161
38877W        W39741   1.272   1.876  14.467 -0.1043  0.2689  0.1802
38878W        W39742   1.050  14.393  13.265 -0.0144  0.0861 -0.0975
38879W        W39743  13.178  13.667   1.873  0.0345  0.0208  0.2782
38880W        W39744  25.505  28.146  18.611 -0.3829  0.1200  0.0443
38881W        W39745  26.375   7.510  13.818 -0.1701  0.1531 -0.3345
38882W        W39746  13.105  22.208  16.851 -0.1425 -0.1109 -0.3429
38883W        W39747  24.565  11.846  13.220 -0.1439 -0.1826 -0.0343
38884W        W39748  12.960  12.861  22.761  0.0877  0.3419 -0.0896
38885W        W39749  16.483  13.469  24.190  0.0217 -0.4215 -0.0996
38886W        W39750  20.029  19.936  25.678 -0.1728 -0.2558  0.0921
38887W        W39751  15.714  10.555   4.963 -0.0694 -0.1328 -0.0521
38888W        W39752  29.097   6.765   9.214 -0.3423  0.1236 -0.0813
38889W        W39753  16.443  13.245  10.926 -0.0970 -0.2513  0.1970
38890W        W39754  20.108  14.956   6.081  0.0566  0.0250  0.0631
38891W        W39755  14.859  19.166  25.302 -0.0584 -0.2151 -0.1635
38892W        W39756  19.135  13.458  11.768  0.2749  0.1455 -0.1402
38893W        W39757  19.031  27.309   1.640 -0.3076 -0.1338 -0.2522
38894W        W39758  19.303  19.087  25.764  0.1311 -0.4030 -0.1293
38895W        W39759  13.172  18.260  16.045  0.2421  0.1162 -0.3091
38896W        W39760   3.884   8.426  17.213  0.1670 -0.0358  0.4094
38897W        W39761  16.880  18.664   5.355  0.0208  0.0501 -0.0069
38898W        W39762   2.002  16.079  19.000 -0.0301  0.0864  0.3164
38899W        W39763   3.654   2.275  25.566 -0.1302  0.0297 -0.1892
38900W        W39764  28.507  27.367  14.240 -0.1820 -0.2232  0.0223
38901W        W39765  25.125   1.405   2.835  0.2092 -0.1289  0.0500
38902W        W39766   2.967   6.194  16.953  0.3498 -0.2916  0.1361
38903W        W39767  26.454  17.227  25.334  0.1006 -0.2401  0.2685
38904W        W39768  16.384  25.551  13.672 -0.0457 -0.0003 -0.1581
38905W        W39769  11.770   8.099  16.246  0.1113  0.0563 -0.1629
38906W        W39770  22.986  26.647   1.984 -0.0554 -0.1734 -0.1320
38907W        W39771   3.094  28.543  14.767  0.1041 -0.3533 -0.2356
38908W        W39772   7.930  18.472  19.428  0.0641  0.1199  0.1897
38909W        W39773  17.209  12.499  18.895  0.2616  0.1322  0.2851
38910W        W39774  10.365   9.067   2.080 -0.2093 -0.0769 -0.4534
38911W        W39775   8.926  11.598  19.940 -0.2031 -0.0060  0.0226
38912W        W39776   7.806  28.518  17.314  0.0661 -0.0974 -0.2337
38913W        W39777  20.783  16.779  12.861 -0.0749 -0.0171  0.0803
38914W        W39778   6.362  19.028   0.502 -0.0682 -0.0037  0.2192
38915W        W39779  20.977  11.852  20.192  0.2425 -0.1149  0.0618
38916W        W39780  28.989   0.559  22.634 -0.2648  0.3125  0.0467
38917W        W39781  27.811  10.651  11.238 -0.0211 -0.2351  0.0291
38918W        W39782  19.306  21.382   9.097  0.2047 -0.2397  0.0720
38919W        W39783   3.968   9.002  24.638 -0.5286  0.2943 -0.2974
38920W        W39784   3.451   8.359  16.525  0.1050  0.1142  0.1594
38921W        W39785  21.455   5.080  14.080  0.1282  0.1897  0.1548
38922W        W39786   6.517   5.217  29.032 -0.0220  0.0260 -0.1475
38923W        W39787   0.537  14.012   7.634  0.2473 -0.2332 -0.0792
38924W        W39788  14.296  15.309  15.774  0.0553 -0.0531 -0.2980
38925W        W39789  23.408   5.857  14.458  0.2469  0.0475  0.1600
38926W        W39790  18.808  26.246   4.033  0.1589  0.0366  0.3942
38927W        W39791  28.461   0.143  26.157  0.5126  0.2412  0.0779
38928W        W39792   5.665  16.488   7.767  0.0252  0.0513  0.0735
38929W        W39793  28.841  12.361  25.201  0.0016  0.1364 -0.2146
38930W        W39794  18.899  15.643  12.112  0.1951 -0.1902 -0.0262
38931W        W39795   8.544  14.766   9.334  0.3503 -0.0714  0.3764
38932W        W39796  13.996  18.985  11.323 -0.2284  0.0364  0.0723
38933W        W39797  24.291  14.357   8.487 -0.1462 -0.3601  0.1350
38934W        W39798  14.134  18.025  19.532 -0.1959 -0.0262 -0.0818
38935W        W39799  22.131   5.140  28.880 -0.3052 -0.0416 -0.1916
38936W        W39800   5.282  15.655   6.658 -0.1448  0.1180 -0.1095
38937W        W39801  10.630  12.342  29.053 -0.0400 -0.2098 -0.1064
38938W        W39802   9.239  10.600  25.050  0.1149 -0.1922 -0.1370
38939W        W39803  15.255   6.357   9.714 -0.0739  0.0612  0.0544
38940W        W39804  15.074   0.565  28.702  0.1421 -0.2389  0.0799
38941W        W39805  18.868  12.649   5.830 -0.0255 -0.1933 -0.1542
38942W        W39806   4.638  24.668   3.566  0.1745  0.2533 -0.0019
38943W        W39807  11.659  27.001   4.667  0.2570 -0.1257  0.1990
38944W        W39808   2.257  24.929  18.269  0.1319 -0.1747 -0.1165
38945W        W39809  13.997   4.082  18.597 -0.0352  0.1902  0.0719
38946W        W39810  22.810  22.668   1.844 -0.0682  0.1036  0.1969
38947W        W39811  11.233  13.751  26.062  0.1049  0.1937 -0.0100
38948W        W39812  17.571  12.510  22.535 -0.0011 -0.1872  0.0664
38949W        W39813   3.153  11.031  28.865 -0.1760 -0.0664 -0.2970
38950W        W39814  28.271  20.048   0.993  0.2522  0.1473  0.0964
38951W        W39815   2.948  15.143  14.861 -0.2528  0.2226 -0.0628
38952W        W39816  12.651  15.264  23.821  0.0309  0.0134 -0.5237
38953W        W39817  10.199   2.554   3.054  0.1221 -0.1856 -0.4401
38954W        W39818   6.104  11.648   5.670 -0.0066 -0.2814 -0.0502
38955W        W39819  10.526   2.371  18.133  0.0018 -0.2513  0.1256
38956W        W39820  20.662  18.038   6.207 -0.0835  0.2506  0.0743
38957W        W39821   2.718  19.043  28.972 -0.0731 -0.1615 -0.2110
38958W        W39822  26.673  14.910  13.945 -0.1078  0.0738 -0.0529
38959W        W39823  28.976  12.306  14.050  0.2047  0.1284  0.2687
38960W        W39824  13.014  10.466  13.744 -0.1260 -0.3357 -0.3473
38961W        W39825  27.790  18.912   0.832  0.1324 -0.2993  0.2301
38962W        W39826  14.480  28.159  20.780  0.4278  0.1471  0.2499
38963W        W39827  12.780   3.557  21.427  0.2421 -0.0820  0.1534
38964W        W39828  26.024  13.914   7.246 -0.1473  0.0477  0.0601
38965W        W39829   2.493  18.877  14.939 -0.0793 -0.0103 -0.3188
38966W        W39830  13.192  26.015   4.303 -0.3494 -0.1197  0.3361
38967W        W39831  19.271   6.020  28.076  0.2181  0.2684 -0.0286
38968W        W39832  26.209  22.606  14.346 -0.1072  0.0762  0.0062
38969W        W39833  23.388  10.228   3.026 -0.1953 -0.1192  0.0958
38970W        W39834  16.362  28.291   9.170  0.1933 -0.0188 -0.0015
38971W        W39835  28.631  24.573   4.397 -0.2944  0.0847  0.2420
38972W        W39836  18.868  14.841  25.503  0.0453  0.2249 -0.0570
38973W        W39837   3.191   9.140  17.262  0.2229 -0.0133 -0.0372
38974W        W39838  28.521  13.463  21.767 -0.0895  0.1568 -0.2099
38975W        W39839  19.433  18.035  12.507  0.1197 -0.1279  0.1408
38976W        W39840  23.311  14.948   9.918 -0.1701  0.1580 -0.0081
38977W        W39841  13.859   3.447  10.068 -0.1267  0.0476  0.4748
38978W        W39842   9.781   6.820  27.339  0.1605 -0.0173 -0.0206
38979W        W39843  25.279   3.697   1.676 -0.2132 -0.0460 -0.0220
38980W        W39844   1.943   8.996   2.761 -0.2394  0.0776  0.1186
38981W        W39845   3.792  11.057  21.554 -0.1418 -0.3062 -0.2825
38982W        W39846   0.616  12.136   7.047 -0.2405  0.1941 -0.3284
38983W        W39847  15.184   4.304  23.734 -0.1580 -0.1372 -0.0290
38984W        W39848   5.086   0.609  12.111 -0.1954 -0.0870 -0.0559
38985W        W39849  21.791  28.331  14.701  0.0036  0.1392 -0.3188
38986W        W39850   4.868  12.511   9.189 -0.3176  0.1732  0.0541
38987W        W39851  27.569   6.376  15.479  0.2651  0.2741 -0.0001
38988W        W39852  26.049  10.035  16.725  0.0256  0.2878 -0.0559
38989W        W39853  18.922  11.775   5.247  0.1227  0.2237 -0.1337
38990W        W39854   3.116   1.661   6.581  0.0193 -0.1695  0.0994
38991W        W39855  11.545   9.192   7.318  0.0636  0.1121 -0.1099
38992W        W39856  17.416  10.871  27.050 -0.0572  0.3945 -0.1159
38993W        W39857  10.708   0.243   7.451  0.0592 -0.3139  0.2312
38994W        W39858   9.215   6.573  11.544 -0.0901 -0.2722 -0.1421
38995W        W39859  27.409  19.402  21.176 -0.0779 -0.1203  0.2496
38996W        W39860   0.186  16.332   4.295  0.1955 -0.0646  0.2333
38997W        W39861  25.796  24.557  19.526 -0.1164 -0.0905 -0.0968
38998W        W39862  22.938  24.924   4.178  0.3855  0.0479  0.2235
38999W        W39863   2.040  18.968   7.295 -0.0465  0.1930 -0.2843
39000W        W39864  23.173  14.057  18.132  0.2734  0.1260 -0.1000
39001W        W39865   1.430   0.893  25.539 -0.0453  0.0017  0.0853
39002W        W39866  27.260  12.463   0.648  0.0155  0.0347 -0.0471
39003W        W39867   2.501  14.356  13.498 -0.0907 -0.0203  0.0761
39004W        W39868  15.107  26.030  20.767  0.1534 -0.0087  0.0290
39005W        W39869  21.619  19.822  11.435 -0.3892  0.3864  0.1748
39006W        W39870  22.003  21.781   3.306  0.0209 -0.0528  0.2888
39007W        W39871  21.176  16.744   9.451 -0.0730 -0.0531  0.1659
39008W        W39872  27.794  12.136  15.934  0.3788  0.2798  0.2266
39009W        W39873  13.800  10.697  13.535 -0.3892  0.0240  0.1878
39010W        W39874  24.807  20.603   6.837  0.1803 -0.0997  0.0160
39011W        W39875  23.233  18.530  23.677  0.1018  0.0080 -0.3153
39012W        W39876   3.186  17.369   6.531 -0.0676  0.1806 -0.0654
39013W        W39877  22.499  15.226  18.733  0.0439 -0.0476  0.0873
39014W        W39878  24.809  17.603  15.599 -0.0182  0.3495 -0.1926
39015W        W39879   1.037  14.628   7.373 -0.2511  0.0275  0.0224
39016W        W39880  22.125   2.147  18.239 -0.0362  0.1512  0.1071
39017W        W39881  12.746   3.259  20.292  0.1813 -0.0575  0.1507
39018W        W39882  22.362  19.658  10.692 -0.1882  0.0025  0.1308
39019W        W39883  22.694   4.604  22.734  0.2612  0.1671  0.0776
39020W        W39884  24.067  17.130  13.193  0.1318  0.1216  0.0316
39021W        W39885  15.585  23.188  13.941 -0.1018  0.0266  0.1809
39022W        W39886  15.610   3.454  13.035 -0.0869  0.0499  0.1936
39023W        W39887  19.626   0.874   7.743  0.3228  0.0868  0.0926
39024W        W39888  25.033  28.042  12.361 -0.0471 -0.5458 -0.0128
39025W        W39889  22.795  11.176   6.641  0.2635 -0.2267 -0.1718
39026W        W39890  21.715   5.093   1.457 -0.3185  0.1208  0.2093
39027W        W39891  26.155   6.472   2.560  0.4348  0.1247 -0.1027
39028W        W39892  14.386  14.635  18.310  0.2447  0.0050 -0.0119
39029W        W39893  11.320  17.474   5.428 -0.0503 -0.1489  0.1574
39030W        W39894  20.672  25.213  19.933  0.4282 -0.2252 -0.2870
39031W        W39895  22.120  25.259  19.182  0.2847 -0.1293  0.1183
39032W        W39896  17.961  18.615  15.119 -0.0050  0.0891 -0.4402
39033W        W39897  26.327   8.472   2.608  0.1986 -0.0437  0.0116
39034W        W39898  10.734   3.501  10.942  0.0117 -0.0896  0.0847
39035W        W39899   2.121  21.473  12.158 -0.2595  0.2694  0.3235
39036W        W39900   8.909  27.710  12.579 -0.2134 -0.2443 -0.0151
39037W        W39901  24.504   9.497  20.409  0.1278 -0.3936 -0.0364
39038W        W39902   0.929   3.897  27.708  0.1573 -0.1700 -0.2161
39039W        W39903  25.756  24.220  20.597 -0.2141  0.0685  0.2947
39040W        W39904   1.351  18.852  18.423 -0.1068 -0.1600 -0.0342
39041W        W39905  17.130  14.981   9.364  0.3289 -0.1899 -0.2950
39042W        W39906   9.893   4.106   0.429 -0.1240 -0.0090 -0.1917
39043W        W39907  20.217  18.574  28.609  0.0095 -0.0363 -0.1026
39044W        W39908  17.691  23.435   2.956  0.2274  0.1663  0.6577
39045W        W39909  24.608  19.603   3.002  0.1207 -0.2221  0.2470
39046W        W39910   0.551  20.619  18.937  0.0753  0.0198  0.1281
39047W        W39911  16.201   6.206   7.742 -0.0721  0.1728 -0.4700
39048W        W39912   2.025  12.572  16.347  0.3137 -0.1078  0.2203
39049W        W39913  18.848  22.023   5.978 -0.0831  0.1928 -0.0392
39050W        W39914  10.917  15.439  26.899  0.3278 -0.1638 -0.0158
39051W        W39915  15.755   5.919   7.338  0.0457 -0.1557  0.0872
39052W        W39916  16.211   9.720  14.468  0.1076  0.1702  0.1835
39053W        W39917  25.436  12.856   9.735  0.1466 -0.0297  0.3137
39054W        W39918  12.700  15.098   4.292  0.0297 -0.0956  0.3984
39055W        W39919  14.505  13.256  23.275 -0.1842 -0.1320  0.1334
39056W        W39920  20.253  15.650   4.898 -0.0016 -0.1589  0.0175
39057W        W39921  20.620  15.323  18.268  0.2135  0.0711  0.1474
39058W        W39922  23.260  27.716  13.075  0.3520  0.2657  0.1910
39059W        W39923  15.681  26.658  13.587  0.1118  0.1728 -0.2695
39060W        W39924  18.265  21.806   4.518  0.0661 -0.0918  0.1301
39061W        W39925   4.486  16.006   6.258  0.1798  0.0787 -0.0331
39062W        W39926   7.334   7.463  17.567 -0.1715 -0.2690  0.1276
39063W        W39927  16.067  28.192  14.525  0.0338  0.0096 -0.3376
39064W        W39928  18.225   8.860  10.096 -0.1828  0.2448 -0.2277
39065W        W39929   3.049  21.350  28.386 -0.2271 -0.0762  0.0277
39066W        W39930  22.792   1.229  12.931 -0.2438 -0.2057 -0.0263
39067W        W39931  26.189   6.195  26.322  0.0747  0.3462 -0.1791
39068W        W39932  27.121  29.011   6.309 -0.1487 -0.3917  0.0186
39069W        W39933  19.674  21.975  28.032 -0.2660  0.2488 -0.0494
39070W        W39934  27.189   1.463  19.036 -0.0251 -0.0977  0.1635
39071W        W39935   1.518   8.175   8.607  0.0875  0.0725 -0.0175
39072W        W39936  18.032  12.672  22.603  0.1436 -0.0996 -0.2648
39073W        W39937  10.822  16.046   6.348  0.0672  0.1825  0.0033
39074W        W39938  12.320  15.521  15.352 -0.2767 -0.1934  0.1978
39075W        W39939  19.941  26.944   9.234  0.4626  0.2557  0.1713
39076W        W39940  19.823  25.715   1.973 -0.0104 -0.0443  0.1437
39077W        W39941  19.501  25.128   2.404  0.0756 -0.1421  0.2153
39078W        W39942  25.533  19.356   0.736 -0.1806 -0.2190 -0.0016
39079W        W39943  15.860   8.101   9.830  0.0632  0.0013 -0.1209
39080W        W39944  14.925   9.673  11.555 -0.0954  0.0774 -0.0380
39081W        W39945   0.811   4.929   7.707 -0.1512  0.1045 -0.0935
39082W        W39946  15.711  12.012  10.503  0.3783 -0.2537 -0.0683
39083W        W39947   7.943  25.922  23.415  0.1063  0.0254 -0.0329
39084W        W39948   4.155  11.863  28.069 -0.1106  0.0623 -0.2149
39085W        W39949  15.492  11.822  18.873  0.1799 -0.0273  0.0738
39086W        W39950  13.424   4.173  18.556  0.1778  0.0587 -0.2238
39087W        W39951  19.886  16.186  14.586 -0.2252  0.1681 -0.0122
39088W        W39952   1.057  13.491  20.563  0.0831 -0.2414 -0.0079
39089W        W39953  27.560  18.269  15.188 -0.0229 -0.0968  0.1195
39090W        W39954  28.162   4.345  15.359  0.0579 -0.0954  0.1485
39091W        W39955   7.274  20.757  11.596  0.0153 -0.1338  0.0406
39092W        W39956  23.502  25.670  17.418 -0.1914  0.0202 -0.1210
39093W        W39957  22.516  19.312  15.611 -0.0265  0.0378 -0.2031
39094W        W39958  20.242  11.045  28.094  0.2077  0.1306 -0.1007
39095W        W39959  17.632  24.888  13.431 -0.2053  0.0514  0.4700
39096W        W39960  17.434  16.378  13.992  0.0615  0.1766  0.1939
39097W        W39961  19.091  14.284  17.989  0.0670 -0.0851  0.0168
39098W        W39962   4.261  19.310   8.186 -0.1526 -0.1107 -0.1039
39099W        W39963  15.199  14.141   4.501  0.2698  0.2368  0.1874
39100W        W39964  20.032  28.195   7.283  0.1960  0.0332 -0.2226
39101W        W39965  13.193  28.605  17.801 -0.0946  0.1253 -0.1841
39102W        W39966  25.646   7.199   5.468  0.1389  0.3321 -0.0321
39103W        W39967  20.186  28.816   1.692 -0.2623 -0.2605 -0.1391
39104W        W39968  28.099   3.248  27.796 -0.0283 -0.0741 -0.1143
39105W        W39969  22.352   6.530   8.391  0.1596  0.0081  0.2252
39106W        W39970   4.789  10.613  18.779  0.1044 -0.1110 -0.3603
39107W        W39971  22.282   2.994  15.627 -0.3167 -0.1658 -0.1074
39108W        W39972  28.743  17.045   8.199  0.2924  0.2923  0.2975
39109W        W39973  12.469  13.834  21.070  0.3822  0.2729 -0.4580
39110W        W39974  14.644  26.709  18.858 -0.0735  0.1761 -0.0717
39111W        W39975  19.327  22.749   7.536  0.0790  0.3535  0.0197
39112W        W39976  28.648   3.283  25.483  0.2314 -0.4810 -0.1282
39113W        W39977  15.909   7.031   1.827  0.1977 -0.0906 -0.0831
39114W        W39978  25.125   6.761  23.636 -0.2467 -0.2693  0.2027
39115W        W39979  17.905  22.170  18.932 -0.3282 -0.0894 -0.0124
39116W        W39980   8.838  14.645  29.050  0.1840 -0.1739  0.0586
39117W        W39981   1.450  18.822  14.826  0.0402  0.0024 -0.2724
39118W        W39982  18.628  24.104  26.061 -0.0691  0.2097  0.2442
39119W        W39983  14.193  14.539  21.958  0.0922 -0.0971  0.0311
39120W        W39984  13.019  17.038   1.834  0.2024 -0.2144 -0.1547
39121W        W39985  18.721  12.532  14.823 -0.4511  0.0066  0.2303
39122W        W39986  13.228   6.306  15.270  0.0975  0.1543 -0.1545
39123W        W39987  14.985  12.712  21.542  0.0591 -0.0008 -0.0214
39124W        W39988   7.415   3.592  10.868  0.0794  0.0669 -0.3705
39125W        W39989  21.157  26.777  18.816  0.2559  0.1688  0.1032
39126W        W39990  23.230  29.027  15.071  0.1559  0.1092 -0.0676
39127W        W39991  19.250  25.420  26.130  0.3579 -0.2001 -0.1079
39128W        W39992  18.385  18.493   2.898 -0.0581  0.2098 -0.0851
39129W        W39993  16.924  25.063   0.668  0.3525 -0.0143 -0.1178
39130W        W39994  16.689  11.789  23.456  0.2336 -0.1390 -0.0503
39131W        W39995  28.737   3.338  10.964  0.0823  0.2445 -0.2732
39132W        W39996  19.829  23.221   5.689  0.2451 -0.1691 -0.2642
39133W        W39997  26.216  19.033   8.521 -0.1663  0.3949 -0.0692
39134W        W39998  17.912  23.587  15.614 -0.0481 -0.2778 -0.2280
39135W        W39999  28.195   6.662  16.904 -0.2789  0.0724 -0.2615
39136W        W40000  14.718  19.064  21.242  0.2882 -0.0915 -0.1462
39137W        W40001  18.724  15.714  23.354  0.0500 -0.1025 -0.1265
39138W        W40002  21.719   6.274   0.020  0.0482  0.0771 -0.2424
39139W        W40003  26.512   7.210   1.465 -0.0683  0.0304  0.0771
39140W        W40004  18.140  24.955   8.885  0.1691  0.0615  0.1664
39141W        W40005   9.043   6.605   5.810 -0.1638  0.3345 -0.1521
39142W        W40006  16.642   7.910   3.207 -0.0731  0.1783 -0.1500
39143W        W40007  25.218  21.317   4.560  0.1701  0.1181 -0.1588
39144W        W40008  18.738  18.490  17.185  0.2233  0.3491 -0.1268
39145W        W40009  25.232   9.254   9.738 -0.0484  0.2610  0.1381
39146W        W40010   6.671  10.579  17.129  0.2282 -0.0789 -0.3084
39147W        W40011   6.930  27.721  12.849  0.0752 -0.3365  0.0977
39148W        W40012  16.418  22.131   1.994 -0.0418  0.1437  0.1545
39149W        W40013   0.120  23.756  23.412  0.1939 -0.1550  0.2309
39150W        W40014  23.816  24.011  28.633  0.3473 -0.2225  0.1733
39151W        W40015  26.074  14.849   3.236 -0.0225 -0.1142  0.2565
39152W        W40016   2.774  24.752   6.756 -0.0937  0.0552 -0.4272
39153W        W40017   5.882   8.171  10.984  0.1374 -0.0624 -0.0454
39154W        W40018  25.551  10.056   2.366 -0.1502  0.1714  0.1654
39155W        W40019   2.862   2.206  24.091 -0.1121 -0.1275  0.0088
39156W        W40020  18.102   8.525  13.214  0.1095  0.0254  0.2585
39157W        W40021  16.969  12.725  13.346 -0.0212 -0.1105 -0.0189
39158W        W40022   6.947  14.129  13.566 -0.0191  0.0747  0.2998
39159W        W40023  23.296   9.186   3.819 -0.1782 -0.3627  0.4223
39160W        W40024  21.228  25.618   5.020  0.0088 -0.1581  0.2212
39161W        W40025   1.310   6.741  23.607  0.0321  0.0071 -0.2080
39162W        W40026   3.833   8.911   8.748  0.2518  0.1094  0.3046
39163W        W40027  21.690  28.089  13.654 -0.1072  0.0399  0.0370
39164W        W40028  20.979  21.985   4.026 -0.2985  0.0297 -0.0260
39165W        W40029  23.217  13.551   5.489 -0.1153  0.1709  0.0492
39166W        W40030  26.155  15.215  27.012  0.1133 -0.0907 -0.2943
39167W        W40031   1.070   0.521  14.732  0.3117 -0.1549  0.0777
39168W        W40032   6.994   9.375  24.021  0.2398  0.2081 -0.1888
39169W        W40033  24.048   7.728  14.285  0.1263 -0.1612  0.2841
39170W        W40034   3.955  11.813   1.001 -0.2640 -0.0926 -0.1671
39171W        W40035  16.765  24.333   2.088 -0.0801 -0.1240  0.4281
39172W        W40036   8.110   0.230  25.156  0.0386  0.0225  0.0957
39173W        W40037   8.470  25.518   8.367  0.0779 -0.1901 -0.2362
39174W        W40038  22.674   8.509  11.308  0.1005  0.0726 -0.0465
39175W        W40039  24.729  10.111   6.034  0.0929 -0.0707  0.1563
39176W        W40040  14.696   9.264  20.739 -0.2312  0.0120  0.1725
39177W        W40041   9.520   3.089   4.140  0.1015  0.2906  0.1603
39178W        W40042  22.679  21.727  10.247  0.1437  0.2939  0.2712
39179W        W40043  26.794  17.374  13.708 -0.1654  0.2316 -0.2223
39180W        W40044   6.178  25.745  12.748  0.0918  0.0912  0.1080
39181W        W40045  25.501  12.652   4.374 -0.1712  0.0627 -0.0227
39182W        W40046   5.911   5.539  17.226 -0.1709 -0.4771 -0.0038
39183W        W40047  23.025  11.165   3.168 -0.0571  0.0246 -0.2724
39184W        W40048   2.326  25.575  24.341  0.5418  0.0317 -0.4807
39185W        W40049   5.731  17.332   8.945  0.1793  0.1904  0.1392
39186W        W40050  11.954  17.065  17.650 -0.0645  0.0462  0.0589
39187W        W40051  19.413  22.355  10.212 -0.0604  0.1379  0.2158
39188W        W40052  25.114  27.492  13.957 -0.1370  0.0079  0.0445
39189W        W40053  12.644  23.507  23.201  0.0199 -0.0871  0.3218
39190W        W40054  15.795  17.622  12.239  0.2546 -0.1177 -0.0089
39191W        W40055   6.826   5.169  14.102 -0.1316  0.0013 -0.0408
39192W        W40056  13.409  18.749   0.518  0.0273  0.1805  0.1677
39193W        W40057  27.847  19.146  18.924 -0.2898  0.0856  0.0674
39194W        W40058   6.609   8.586  22.425 -0.1352  0.0284 -0.0745
39195W        W40059  21.271  11.857   5.036  0.0079 -0.0424 -0.1135
39196W        W40060  14.762  22.097  15.399  0.1156 -0.1995 -0.1209
39197W        W40061  23.882  15.638  13.963  0.3945 -0.1002  0.1171
39198W        W40062  13.737  14.978   3.787  0.0057 -0.2488 -0.2472
39199W        W40063  23.401   4.443  11.912  0.0032  0.1899 -0.2055
39200W        W40064  27.195  10.050   9.435  0.1902 -0.0297  0.0180
39201W        W40065   4.869  14.038  18.739  0.0031 -0.2414 -0.1134
39202W        W40066   1.732  21.229  13.656 -0.2448 -0.0697 -0.0434
39203W        W40067  15.707  28.059  26.244 -0.1567  0.0904  0.2684
39204W        W40068  21.702  14.181  13.444 -0.3196  0.1513 -0.0902
39205W        W40069  22.373  21.750  18.898 -0.2430  0.2248  0.1723
39206W        W40070  26.163   8.256  23.312  0.1139 -0.0693  0.1317
39207W        W40071  12.365  25.511  11.848 -0.2564  0.0029  0.4536
39208W        W40072  16.652   5.754  10.857 -0.2919  0.0884  0.0026
39209W        W40073   0.164  10.814   6.759 -0.1064 -0.1566 -0.1814
39210W        W40074   3.401  18.623  19.561  0.1415 -0.0894 -0.2330
39211W        W40075  16.828  26.348  11.623  0.1682  0.0120  0.3324
39212W        W40076  16.308  24.000  20.918  0.2131  0.1904 -0.0778
39213W        W40077  11.352  17.036  18.246  0.0546  0.1515 -0.3618
39214W        W40078  28.224   7.744  15.518 -0.0037 -0.1298  0.1075
39215W        W40079   2.205  20.247   6.975  0.0194 -0.2598  0.0808
39216W        W40080  28.562  15.764  17.339  0.1537 -0.2251 -0.0648
39217W        W40081  19.997  23.152  24.660 -0.0598 -0.3102  0.0624
39218W        W40082  20.668   5.660   6.417  0.0004 -0.1818  0.0086
39219W        W40083  28.373  12.312  16.704 -0.0200 -0.1050  0.2049
39220W        W40084  15.835  12.558   0.367 -0.1912 -0.1520  0.0226
39221W        W40085  16.682  18.544   2.242  0.0181 -0.1534  0.0498
39222W        W40086  24.395  27.017  25.997 -0.4355  0.3279  0.0722
39223W        W40087  12.206  21.452  21.735  0.0141 -0.2952 -0.2447
39224W        W40088  28.326   6.641  19.360 -0.1363  0.1573 -0.0709
39225W        W40089  14.639   8.611  23.268  0.1404 -0.1470 -0.0860
39226W        W40090  14.072  13.626  28.078 -0.1301  0.1718 -0.1549
39227W        W40091  27.718  25.414  13.113  0.1155  0.1354  0.1456
39228W        W40092  19.704  18.141  25.841  0.3580 -0.0346  0.4382
39229W        W40093  23.301  17.147  27.136  0.0606 -0.1829 -0.0432
39230W        W40094  11.081   7.962  15.270 -0.1060 -0.1130 -0.2419
39231W        W40095   8.065   2.969   8.228  0.1481 -0.0201 -0.1578
39232W        W40096   3.425  16.596   7.094  0.1363 -0.1090 -0.0306
39233W        W40097  19.159   2.250  28.432  0.2601 -0.1464 -0.3040
39234W        W40098  10.323  22.862  11.229 -0.2166 -0.2231  0.0354
39235W        W40099   1.005  11.671  19.102  0.1148 -0.0397 -0.1772
39236W        W40100  17.034  22.347  11.027  0.1657 -0.0066 -0.0930
39237W        W40101  16.653   5.503   8.325 -0.1198  0.2780  0.0093
39238W        W40102   5.309  19.667  12.607  0.2249  0.2106 -0.0020
39239W        W40103  16.776  21.067   2.549 -0.1924 -0.2174  0.2684
39240W        W40104  14.975  21.762   9.521 -0.2479  0.0728 -0.1138
39241W        W40105   0.555  22.421  16.718  0.1062 -0.0965 -0.3105
39242W        W40106  23.219   8.186   9.233 -0.1360  0.3017 -0.2291
39243W        W40107   8.635   8.322   9.708 -0.4941  0.1621  0.1745
39244W        W40108  13.422  20.776   9.898  0.1524 -0.4018  0.1756
39245W        W40109  16.423  24.673   2.351  0.2537 -0.3285  0.2231
39246W        W40110   7.390   9.454  17.746 -0.1724  0.1993 -0.0746
39247W        W40111  16.980  16.084   2.629 -0.1307 -0.1232 -0.0940
39248W        W40112  24.272   9.232  13.014  0.1283 -0.2502 -0.0233
39249W        W40113  11.331   9.597  16.697 -0.0885 -0.1894  0.0373
39250W        W40114  16.833  16.376  26.877 -0.0295 -0.0062  0.2693
39251W        W40115  20.266   6.019  15.912  0.0866 -0.2917 -0.2928
39252W        W40116   9.432   3.872  22.551 -0.0931 -0.0758  0.0394
39253W        W40117  15.568   8.878   4.233 -0.2960  0.1640 -0.1658
39254W        W40118   9.536  15.746   2.545  0.0862  0.0377 -0.0033
39255W        W40119   6.263   6.284   3.049 -0.2382 -0.0339  0.1572
39256W        W40120   8.988  21.480  25.543  0.0618 -0.0239  0.5511
39257W        W40121   7.690   3.028  18.366  0.2538  0.0198  0.0651
39258W        W40122  14.859  13.620  14.623  0.2008  0.2773  0.0529
39259W        W40123  19.911  24.606  17.307 -0.1168  0.2679  0.2371
39260W        W40124   8.158  28.523   7.180  0.0527  0.0751 -0.2961
39261W        W40125  26.965   9.519   0.775 -0.1256  0.0874  0.1372
39262W        W40126  18.340  14.985  16.890  0.1083  0.0057  0.0354
39263W        W40127  20.012  27.735   5.035 -0.0747 -0.2349 -0.0317
39264W        W40128  12.393  17.401   1.392  0.1108 -0.2542  0.2318
39265W        W40129  22.994   2.895  19.062 -0.1578  0.0288  0.1357
39266W        W40130  16.567  17.703   4.379 -0.5406 -0.3531 -0.0377
39267W        W40131  22.904  23.899  27.697  0.2467 -0.1202  0.3091
39268W        W40132   2.121   4.882  25.560  0.0451 -0.1893 -0.2058
39269W        W40133  21.476  18.068  11.531 -0.0354 -0.3054 -0.1088
39270W        W40134  23.468  22.704  20.940 -0.0329  0.0321  0.0987
39271W        W40135  17.777   7.737   5.106 -0.0171 -0.1060  0.0236
39272W        W40136  24.586   7.063  12.650  0.4494 -0.0299 -0.1040
39273W        W40137  16.135  27.682   4.862 -0.0600  0.0189  0.0840
39274W        W40138  13.249   5.964   9.959 -0.0370 -0.0273  0.3124
39275W        W40139  23.298  13.624  12.838 -0.4310  0.0254 -0.0499
39276W        W40140  16.104  14.346  21.923 -0.2145  0.0058 -0.2314
39277W        W40141  28.922  15.640  15.256  0.2234 -0.1907  0.0215
39278W        W40142  17.617  25.881  27.668  0.1255 -0.1603 -0.2567
39279W        W40143  10.187  20.714  26.034 -0.1814 -0.1495  0.1607
39280W        W40144  22.718   8.448   0.771 -0.0735  0.3293  0.0399
39281W        W40145  28.549  15.471  14.988 -0.1147  0.0821 -0.2549
39282W        W40146  26.766  24.338   7.841  0.2666  0.1122 -0.3493
39283W        W40147  26.107  14.052  13.540 -0.3527 -0.1845 -0.1453
39284W        W40148  21.805   6.291  13.575 -0.3725  0.0347 -0.1506
39285W        W40149  12.467  20.464  17.435  0.0192  0.1113 -0.1963
39286W        W40150   4.423   5.139  14.474 -0.0483 -0.1783 -0.1179
39287W        W40151   4.599  23.663   5.399  0.1048 -0.0388 -0.2031
39288W        W40152  28.611  21.859  25.544  0.0160 -0.4567  0.3142
39289W        W40153  15.573  27.404  12.202 -0.0710  0.1730 -0.0108
39290W        W40154   7.108  14.277   6.747  0.1021 -0.2400 -0.1832
39291W        W40155   2.801   5.817   8.571  0.1790 -0.1163  0.5443
39292W        W40156   5.211   8.132  23.102  0.1891 -0.0015 -0.1191
39293W        W40157  14.628  21.112  13.811 -0.1259  0.1459  0.0879
39294W        W40158  12.315  28.054  18.926  0.2515 -0.0381  0.0918
39295W        W40159  25.181  23.218  26.423 -0.1682 -0.1752  0.0411
39296W        W40160  19.875  15.286   5.015  0.1897 -0.0535 -0.4065
39297W        W40161  19.097  16.917   1.559  0.1242 -0.0795  0.0747
39298W        W40162  21.760   9.312  13.686 -0.0784  0.1088  0.0743
39299W        W40163  24.124   4.786  22.557 -0.0571  0.3500  0.1510
39300W        W40164  25.818   2.856  12.639  0.0650  0.0014  0.0294
39301W        W40165  14.351   1.177   7.607 -0.0341 -0.1661  0.1581
39302W        W40166  12.675  12.681   1.548 -0.1164 -0.1367  0.0482
39303W        W40167  16.691   9.521  16.301 -0.0059  0.0909 -0.0291
39304W        W40168  21.492   8.714  19.458 -0.0407  0.2330  0.0895
39305W        W40169  15.092   6.402  18.852 -0.1354  0.0657 -0.1248
39306W        W40170  18.353   6.809   8.098 -0.5261 -0.3494  0.1506
39307W        W40171  24.333   1.547  26.656  0.1117 -0.2859 -0.1206
39308W        W40172  22.146   2.345  15.048  0.1487  0.1785 -0.0894
39309W        W40173  21.752  15.610  26.713  0.1232  0.0741 -0.4312
39310W        W40174  22.123  24.255   3.793 -0.1650  0.1236 -0.1252
39311W        W40175   4.336  22.833  17.726 -0.0232 -0.0029  0.0747
39312W        W40176  12.720  18.618  21.403  0.0280 -0.0069  0.0050
39313W        W40177   5.356   1.086  21.267  0.3033  0.2589  0.0993
39314W        W40178  10.720   5.477  10.192 -0.0735  0.3054  0.2364
39315W        W40179  20.444   0.933  26.382  0.0314  0.0993 -0.0921
39316W        W40180  15.176   0.483   5.499  0.0655 -0.1072  0.0413
39317W        W40181  18.626  18.190  13.353  0.1223 -0.1060 -0.0812
39318W        W40182   8.297  15.123   0.955  0.2279  0.2035 -0.0026
39319W        W40183  16.894  17.526  16.848 -0.3645 -0.1765  0.2235
39320W        W40184  16.643  27.484  14.255 -0.1311  0.0657 -0.3005
39321W        W40185  25.880   0.578  18.504 -0.1147  0.0389 -0.2176
39322W        W40186   5.397  12.648  18.322 -0.0354 -0.1080 -0.2749
39323W        W40187  13.643  12.928  14.235 -0.1286  0.1021  0.0914
39324W        W40188  13.114   8.146  19.052 -0.2122  0.0208  0.1027
39325W        W40189  21.349  10.063  13.686  0.0570  0.0375  0.1739
39326W        W40190   5.600   3.947  10.737  0.1767  0.0345  0.2350
39327W        W40191   5.046   8.498  27.937 -0.0243 -0.1882 -0.1246
39328W        W40192  18.296  25.539  21.854  0.0170  0.1467 -0.0930
39329W        W40193   0.522  18.892  15.993  0.0304  0.1375  0.0863
39330W        W40194  23.488   5.815  11.794  0.0090 -0.0990  0.1775
39331W        W40195   6.570  18.574  21.639  0.3235 -0.2547  0.3845
39332W        W40196   8.830  22.270  21.580 -0.0005  0.1140 -0.2040
39333W        W40197  25.037   4.897  21.577 -0.2362 -0.0428  0.1528
39334W        W40198  17.782  22.012  27.601  0.1197  0.1844 -0.2244
39335W        W40199   8.867  13.303  16.352  0.0895 -0.0604 -0.1971
39336W        W40200  12.530   0.276  19.053 -0.0910 -0.0818 -0.0719
39337W        W40201  24.013   3.508   0.838 -0.2158  0.1593 -0.3564
39338W        W40202   8.280  22.239  21.533 -0.0587 -0.3190  0.2528
39339W        W40203  19.602  17.898  14.033 -0.0437  0.0876  0.0719
39340W        W40204  11.649   7.405   9.092  0.0065  0.4051 -0.0746
39341W        W40205  20.561  18.199  10.254  0.0069 -0.1471  0.3167
39342W        W40206  18.935  18.944   9.481  0.0297  0.0090  0.2941
39343W        W40207  18.709   8.649  17.566  0.1086  0.2898  0.0180
39344W        W40208  16.929   6.787  14.998  0.2228 -0.0012 -0.2361
39345W        W40209  25.785  22.153   2.123  0.2235  0.0385  0.1973
39346W        W40210  12.830   9.941   6.608  0.2867 -0.0061  0.0313
39347W        W40211  13.105   5.848  24.924 -0.2197  0.0835  0.1775
39348W        W40212  17.833  23.543   1.868 -0.1077  0.1085 -0.0332
39349W        W40213   5.097  20.030   1.403  0.0135 -0.0588 -0.2417
39350W        W40214   8.883  28.352   0.822  0.0748 -0.2106 -0.0453
39351W        W40215  21.625   8.521  20.524  0.2439 -0.2857 -0.0336
39352W        W40216  25.956  27.525  16.755  0.2788 -0.1444 -0.1420
39353W        W40217   9.883  23.890  18.807 -0.0962 -0.0191  0.0297
39354W        W40218  15.166  10.604   8.103 -0.0502 -0.1927 -0.2605
39355W        W40219  14.130   4.586   3.966  0.0562  0.3300 -0.2233
39356W        W40220  26.770  10.416   3.401  0.1305 -0.3017 -0.0756
39357W        W40221  21.764  17.116   9.967  0.0950 -0.0402 -0.0785
39358W        W40222   3.379   9.531  18.443  0.2652 -0.2212  0.2010
39359W        W40223  27.830  10.560   5.293  0.1042 -0.2312  0.1343
39360W        W40224  23.324  12.644  29.065 -0.0063  0.1663 -0.0875
39361W        W40225  27.495  13.213  22.858 -0.4698  0.0460  0.3651
39362W        W40226  14.569  22.699  22.523  0.0218 -0.0486  0.0817
39363W        W40227   4.820  22.325   9.200 -0.0657  0.1665 -0.0740
39364W        W40228  11.817   1.895  17.481  0.0508  0.0354  0.1916
39365W        W40229   4.242   9.442  13.810  0.0541 -0.1475  0.1871
39366W        W40230   0.631   1.412  24.550  0.0245  0.3429 -0.1172
39367W        W40231   8.192   3.559  19.090  0.1818 -0.0639  0.0756
39368W        W40232  16.013   2.269   9.286  0.3810  0.2856 -0.1293
39369W        W40233   0.929  17.816  16.582  0.1641  0.0302  0.3918
39370W        W40234   1.671  20.243  21.111 -0.0365 -0.1712  0.0226
39371W        W40235   0.303  19.044  27.728 -0.1660 -0.0308 -0.0111
39372W        W40236  15.732  20.627   2.945 -0.0121 -0.1435  0.0026
39373W        W40237  21.455  12.715  14.907 -0.0306  0.0393 -0.0666
39374W        W40238  14.834   5.865  17.195 -0.0199 -0.1853  0.0379
39375W        W40239  17.086  19.239  11.351  0.0066  0.1549 -0.0952
39376W        W40240  14.086  12.268  29.130  0.3981  0.1161  0.1551
39377W        W40241  10.184   4.928   8.477 -0.5106 -0.1877 -0.3422
39378W        W40242   3.897   0.611  13.126 -0.0946 -0.1460  0.3409
39379W        W40243   2.839  14.331  23.016  0.1385  0.0975  0.1625
39380W        W40244  12.491   3.391  18.504  0.1214 -0.0607 -0.0506
39381W        W40245  22.805  24.883  19.434  0.0463 -0.0764 -0.0456
39382W        W40246  23.297  28.922  12.515 -0.1363  0.3587  0.1017
39383W        W40247  25.374  22.800  13.357  0.1513  0.3561 -0.2189
39384W        W40248   2.663   6.365   8.698  0.1804 -0.1179  0.0084
39385W        W40249  18.501  25.193  10.100  0.0516  0.0428 -0.1660
39386W        W40250  18.545  21.669   6.289 -0.0398  0.0818  0.1676
39387W        W40251  19.125   2.360  15.110 -0.0791  0.2029  0.2547
39388W        W40252  22.260  17.811   8.306 -0.4164  0.1225  0.0030
39389W        W40253  16.630   6.005  28.337 -0.0245 -0.2823 -0.0721
39390W        W40254  24.612  12.322  13.323  0.1179 -0.1960  0.2382
39391W        W40255  13.416   3.464  11.552  0.1229 -0.1591 -0.1858
39392W        W40256  23.330  14.799   4.922  0.1640 -0.1008 -0.0506
39393W        W40257  16.667  27.165   9.301  0.0004  0.1532  0.0785
39394W        W40258  11.791  26.980   9.929  0.1195  0.0915 -0.2296
39395W        W40259   4.861   8.189  13.206  0.3363 -0.2124 -0.1116
39396W        W40260  23.880  11.094  18.981 -0.2192 -0.0857  0.0447
39397W        W40261   8.631   1.680  27.817  0.1713  0.0358  0.0967
39398W        W40262  28.541  14.470  28.222  0.0195 -0.2320 -0.0162
39399W        W40263  24.571  23.316  27.592  0.3500 -0.1672 -0.1518
39400W        W40264  24.757  25.400  10.485 -0.0925 -0.0905  0.2215
39401W        W40265  24.330   0.875   8.176  0.0038  0.1154  0.2938
39402W        W40266  18.973  14.850  17.147 -0.0365  0.2711 -0.1607
39403W        W40267   5.639   1.871  12.282 -0.0926 -0.1285  0.1272
39404W        W40268  27.925   9.425  13.650 -0.0017 -0.0076  0.2000
39405W        W40269  26.390  15.870  14.338 -0.4038 -0.0798 -0.2361
39406W        W40270  16.657  25.854   7.625  0.1244 -0.0088 -0.0133
39407W        W40271  10.669  21.544   6.976  0.0736  0.0672  0.1307
39408W        W40272  27.196  21.464  27.353 -0.0023 -0.1312  0.1894
39409W        W40273  12.944  13.789  17.859 -0.0447 -0.3123 -0.1191
39410W        W40274   6.405  16.088  24.555  0.0631 -0.3238 -0.0193
39411W        W40275  24.537  25.624   2.737 -0.2630  0.0891  0.2590
39412W        W40276  23.121   9.514  14.435 -0.0073  0.4714 -0.0412
39413W        W40277  27.587  11.190  25.426  0.0587  0.1586  0.1633
39414W        W40278  11.051   6.445   2.265 -0.2020  0.1001  0.2498
39415W        W40279   3.078  20.206  14.710 -0.1600  0.0315  0.2457
39416W        W40280  13.037  13.059  21.634  0.0873  0.2248 -0.2101
39417W        W40281  14.879  28.846   0.114  0.0909 -0.3481  0.0548
39418W        W40282   2.520   7.960   3.754 -0.0686 -0.0587 -0.0921
39419W        W40283  20.589  23.687   3.236  0.0624  0.3112  0.0903
39420W        W40284  24.394   6.760   8.200 -0.1904  0.0518 -0.1030
39421W        W40285  19.033  14.663   3.838  0.1613 -0.0914  0.0702
39422W        W40286  13.265  10.251  14.282 -0.2977 -0.1070 -0.1421
39423W        W40287  25.451  16.414  20.342 -0.0667 -0.1392  0.2205
39424W        W40288  13.577  23.006   6.755  0.2710  0.1420 -0.1155
39425W        W40289  22.111   8.035  25.783  0.1260  0.0047 -0.2133
39426W        W40290  27.010  27.983  19.709 -0.2175 -0.1676  0.0198
39427W        W40291   1.136   7.456   8.219 -0.4389  0.0366  0.0430
39428W        W40292  25.273  13.476  13.801 -0.0298 -0.1607  0.1360
39429W        W40293   1.619  12.608  10.798  0.0463  0.1166  0.0551
39430W        W40294  23.730  19.909  15.443 -0.4095 -0.0274  0.0497
39431W        W40295  20.250   5.616  18.313 -0.1547 -0.1670 -0.0981
39432W        W40296   9.847  11.246  14.823 -0.0073  0.3120 -0.2520
39433W        W40297   6.545   9.420  17.091  0.0753 -0.1171  0.1193
39434W        W40298  14.343  18.083   4.523  0.2037  0.0889  0.2409
39435W        W40299   8.649  20.360   7.231  0.1903  0.2083 -0.0139
39436W        W40300  25.242  20.839  27.640 -0.0642  0.1313 -0.2033
39437W        W40301   5.155  17.750  18.778  0.2061 -0.0416 -0.0216
39438W        W40302   9.583  25.027  19.519 -0.4014 -0.2032  0.0721
39439W        W40303  10.762  13.612  23.069 -0.0443 -0.1377 -0.0695
39440W        W40304   9.414  14.265  17.880 -0.0403 -0.1253 -0.2810
39441W        W40305  22.966  23.152  16.805 -0.1694 -0.0293 -0.3100
39442W        W40306  19.474  13.488   6.733  0.1958  0.0016 -0.0663
39443W        W40307  23.577  22.817   3.744  0.2619 -0.3770 -0.1014
39444W        W40308   4.195  10.474  28.225 -0.4016 -0.1639 -0.0031
39445W        W40309  19.544   5.586  14.768  0.2393  0.1811 -0.0311
39446W        W40310   6.111   6.495   3.507  0.1893  0.0920  0.1943
39447W        W40311  15.446  23.493  12.392 -0.1642  0.3970  0.1331
39448W        W40312  22.832  12.401  17.591  0.0012  0.0527  0.0623
39449W        W40313  26.382  20.496  27.558  0.0395 -0.1329 -0.2046
39450W        W40314   8.208  24.394  20.573 -0.0608 -0.1508 -0.0451
39451W        W40315  15.766   5.764  23.852 -0.0492  0.0400  0.0913
39452W        W40316  20.130  16.149  23.204  0.2289  0.1871 -0.1312
39453W        W40317   8.031   4.824   1.935 -0.0598 -0.2474 -0.1577
39454W        W40318  27.726  28.695  20.114 -0.1583 -0.0955  0.1270
39455W        W40319  10.804  24.995  16.798 -0.0259  0.1943 -0.1417
39456W        W40320   4.963  18.870   6.689 -0.1846 -0.1364  0.0023
39457W        W40321  18.404  17.490  14.000 -0.1055 -0.5987  0.0678
39458W        W40322   7.754   2.349   7.415 -0.0418  0.0214  0.0946
39459W        W40323  18.920   3.158  26.503 -0.5412  0.1924 -0.2835
39460W        W40324  20.362   7.473   3.515  0.0571  0.1128 -0.1014
39461W        W40325  14.082   7.729  10.486  0.2612  0.2756  0.1896
39462W        W40326  13.655  28.180  21.250  0.0175  0.1998  0.0039
39463W        W40327  26.655  18.512  21.949  0.1102 -0.1592  0.1337
39464W        W40328  10.476  28.657  19.350  0.0202 -0.1746  0.2764
39465W        W40329  16.391  12.115  13.614  0.1423 -0.0053 -0.2082
39466W        W40330  21.380  22.375  13.739  0.0777  0.1327 -0.0020
39467W        W40331  16.929  13.944  23.291 -0.2032 -0.3812  0.0399
39468W        W40332   7.062  25.020  20.891  0.0583 -0.2907  0.0204
39469W        W40333  21.030  21.625  23.480  0.0663 -0.1283 -0.1866
39470W        W40334  23.071   9.899  28.992 -0.2250  0.1851  0.1121
39471W        W40335  17.773  12.445  12.703  0.0321 -0.0844  0.0311
39472W        W40336  20.774  12.992   9.731 -0.0843 -0.3213  0.0417
39473W        W40337   9.137  11.884  13.705 -0.0416  0.0747 -0.0130
39474W        W40338  25.553  19.722  14.587  0.4471 -0.0767 -0.0270
39475W        W40339  19.637  17.117  14.910  0.1000  0.2151 -0.0342
39476W        W40340   1.489  12.877   9.708  0.0075 -0.0595  0.0829
39477W        W40341  14.781   8.954  12.398 -0.2580 -0.0674 -0.0810
39478W        W40342  21.023  27.343   3.998 -0.0417  0.0324  0.3202
39479W        W40343  29.135  19.164  26.650 -0.0204 -0.0893  0.2508
39480W        W40344   9.727  20.721  22.667  0.1270 -0.2300  0.3326
39481W        W40345  27.329  14.533   1.695 -0.0144  0.0792  0.0016
39482W        W40346  22.228  16.234  20.924  0.0171 -0.1308  0.0137
39483W        W40347   3.916   2.675  19.951 -0.2432 -0.1550  0.3373
39484W        W40348  17.705  16.578   8.925  0.2365 -0.1178 -0.2871
39485W        W40349  19.881  16.984  25.356 -0.0543  0.1819 -0.2102
39486W        W40350  21.814  25.306  20.591 -0.0942  0.2118  0.3140
39487W        W40351   8.606   7.571  14.754  0.0860  0.1106 -0.1044
39488W        W40352  13.909   4.031  20.544  0.0698  0.1612  0.0719
39489W        W40353  10.463  16.657  14.837  0.0752 -0.1347  0.1656
39490W        W40354  21.537  27.434  12.321  0.2091  0.1989  0.2796
39491W        W40355   7.836  13.624   8.710 -0.0951 -0.2206  0.0916
39492W        W40356  23.762   7.345  17.775 -0.1148  0.0834 -0.0430
39493W        W40357  27.476  24.618  20.488  0.4304 -0.0491 -0.0185
39494W        W40358  28.199   0.182   5.579  0.0354  0.0558  0.0721
39495W        W40359   9.160  22.036  18.313  0.1164 -0.0610  0.0150
39496W        W40360   3.074  14.778   4.463  0.1213  0.4528 -0.0387
39497W        W40361  19.508  20.461   1.877 -0.0178  0.0599  0.1473
39498W        W40362  14.763  12.371  16.202  0.0716  0.0363 -0.2009
39499W        W40363   4.677  16.941  14.612 -0.2308  0.0843 -0.1170
39500W        W40364  11.592  18.065  19.057  0.1038 -0.0586 -0.2340
39501W        W40365  14.295   9.408   5.622  0.1577  0.0576 -0.2303
39502W        W40366  24.009   5.922  10.885 -0.2104  0.1184  0.0726
39503W        W40367  20.233  27.594  25.218  0.1914 -0.5327 -0.0112
39504W        W40368  23.171   7.157  17.612 -0.1808  0.1182  0.2260
39505W        W40369  14.547   8.834  16.851  0.1466  0.0618  0.1171
39506W        W40370  20.540  10.514  22.514  0.1680 -0.1570 -0.1180
39507W        W40371  22.221  13.924   7.543 -0.0118  0.0180  0.0097
39508W        W40372  15.972  19.044  10.571  0.1206  0.2382  0.0274
39509W        W40373  26.376  15.750  22.702 -0.1595 -0.0992  0.0626
39510W        W40374  13.225  14.543  14.203 -0.0571  0.1165  0.0083
39511W        W40375  15.099  16.162  15.472  0.1667  0.3078 -0.1489
39512W        W40376   0.336  10.787  10.900  0.2955  0.0798 -0.1217
39513W        W40377  14.595  14.955  24.732 -0.0102 -0.1543 -0.0532
39514W        W40378   1.396   5.889  10.740  0.0656  0.2006 -0.3109
39515W        W40379  15.217  20.433  14.787 -0.1189  0.0374 -0.2116
39516W        W40380   0.937   3.731  15.042  0.2379 -0.0793  0.2603
39517W        W40381   2.116   7.674   6.553  0.0261 -0.2917 -0.1720
39518W        W40382  17.500   6.111   7.496  0.0621  0.0049  0.0691
39519W        W40383   0.866   1.497   5.699  0.1425  0.0259  0.2744
39520W        W40384   0.067   7.021  14.489  0.1559  0.0886 -0.0444
39521W        W40385  10.159   0.409   0.043 -0.0143 -0.1304 -0.1293
39522W        W40386   6.175   8.468  12.954  0.1800 -0.1082  0.0279
39523W        W40387  25.955  27.806  10.817 -0.1426 -0.4062 -0.2635
39524W        W40388  22.406  10.592  21.166  0.2947 -0.0401  0.0637
39525W        W40389  15.323   8.905  15.504  0.1974 -0.0481 -0.0215
39526W        W40390  25.035   7.591  10.821 -0.1085 -0.0153 -0.0081
39527W        W40391  15.728   6.419   4.797 -0.0581  0.2999 -0.2036
39528W        W40392  19.516   8.657  25.696 -0.0361 -0.1738  0.3330
39529W        W40393  10.377   2.203  26.126 -0.2440 -0.0058 -0.0064
39530W        W40394   0.851  20.164  17.613 -0.1481  0.0623  0.0152
39531W        W40395   6.106   3.346  17.008  0.0084 -0.1547  0.2160
39532W        W40396  11.925  17.922   5.791  0.5434  0.0718 -0.0753
39533W        W40397  19.010  15.756  25.765  0.2832  0.0061 -0.0838
39534W        W40398  26.826  16.332  16.982 -0.0309 -0.3279 -0.3317
39535W        W40399  12.583  10.562  25.521  0.0081  0.0824 -0.1637
39536W        W40400   4.000   9.811   9.458 -0.1285 -0.1099 -0.1380
39537W        W40401  22.930  23.429  15.697 -0.1581 -0.2119 -0.2708
39538W        W40402  22.629  16.760  24.599 -0.2154  0.1439  0.0252
39539W        W40403  23.448   3.580  17.176  0.1584 -0.0751 -0.2423
39540W        W40404  15.859  24.901  14.867 -0.1135 -0.2314 -0.0564
39541W        W40405  27.864   7.633  10.433  0.0483  0.1410  0.0011
39542W        W40406   0.189  12.843   5.745  0.1483 -0.2463  0.0005
39543W        W40407  21.054  25.489  11.368 -0.0846 -0.0387 -0.1487
39544W        W40408   6.690   5.009   9.744 -0.3252 -0.2052  0.0142
39545W        W40409  15.810  14.765  15.583 -0.1582 -0.1538 -0.0480
39546W        W40410  25.800  12.877  25.966 -0.2041 -0.0062  0.0787
39547W        W40411  27.399  21.806  24.188  0.1041  0.0517 -0.2981
39548W        W40412  28.095  13.702  20.569  0.2079  0.1909  0.1186
39549W        W40413   9.178   7.587  22.814  0.1062 -0.1662  0.1707
39550W        W40414  23.949  27.556   7.301 -0.0683 -0.0322  0.2947
39551W        W40415  10.470   8.510   4.909  0.3807 -0.1435  0.2037
39552W        W40416   7.264  12.466   4.632 -0.0815  0.0100 -0.1050
39553W        W40417  24.484  17.102  13.813 -0.0290 -0.0459 -0.0981
39554W        W40418   8.348   2.643  11.964  0.2342  0.0901 -0.0736
39555W        W40419   3.211  25.963  10.578  0.3043  0.2526 -0.1763
39556W        W40420  23.352   7.523   2.795  0.2274  0.0446 -0.2021
39557W        W40421   4.666   7.141   2.415  0.0818  0.3901  0.0981
39558W        W40422  17.659  16.932  15.077  0.1493 -0.0396 -0.0635
39559W        W40423  11.335   0.040   6.319  0.0430  0.0497 -0.2736
39560W        W40424   7.745   3.343   3.571 -0.2116  0.0784  0.1408
39561W        W40425   2.132  13.536   9.274 -0.1442 -0.3138 -0.2306
39562W        W40426  26.972   1.431  16.337 -0.2447 -0.0358 -0.0698
39563W        W40427   2.214  17.256   4.411 -0.0246 -0.0455 -0.1130
39564W        W40428  21.207   7.525  11.115 -0.2712 -0.2517  0.0155
39565W        W40429  21.628  23.402   0.659 -0.4688 -0.0365 -0.0531
39566W        W40430   0.630  27.726   6.040 -0.3841 -0.0787  0.1127
39567W        W40431  13.338  16.017  19.942  0.1611  0.1686 -0.5222
39568W        W40432   0.155  13.049  17.278 -0.0089  0.0034  0.0368
39569W        W40433  22.333  17.847  16.439 -0.0522 -0.0585 -0.0883
39570W        W40434  21.837   9.511  10.227  0.1616 -0.1266 -0.0195
39571W        W40435  12.718  12.943  16.319  0.0781  0.0122  0.2057
39572W        W40436  25.985   6.075  13.240 -0.3115 -0.0256 -0.1179
39573W        W40437  17.716  13.219  27.614 -0.1385 -0.1462 -0.0728
39574W        W40438   9.265   6.360  18.890 -0.0097 -0.1659  0.1210
39575W        W40439  24.936   1.331   9.609  0.0113 -0.0136 -0.1852
39576W        W40440  13.223   4.909   7.624  0.1407  0.1579 -0.3708
39577W        W40441  22.817  12.765  10.169 -0.0531  0.1014 -0.0115
39578W        W40442   3.125  17.111  25.998  0.3674 -0.1559 -0.1195
39579W        W40443  27.693  10.341   7.636 -0.1021  0.0046  0.0285
39580W        W40444   0.057  20.500   6.616 -0.0036 -0.1124 -0.4471
39581W        W40445  10.579  18.163   1.495  0.0514  0.1582  0.0868
39582W        W40446  16.063   7.334  14.815 -0.0707  0.0890  0.2692
39583W        W40447  13.029  17.907  21.011  0.1078  0.2553 -0.0816
39584W        W40448   2.827  24.229  15.963 -0.2396  0.0987 -0.1272
39585W        W40449  22.834  25.337  18.920  0.2000 -0.2668  0.0394
39586W        W40450  25.229  28.254  23.505  0.2486 -0.3462 -0.1288
39587W        W40451  16.101  11.460  16.374  0.0713 -0.0264  0.0581
39588W        W40452  27.751   5.778  18.036 -0.1387 -0.1231  0.0740
39589W        W40453   1.719  16.743  22.411 -0.1184  0.0897 -0.1582
39590W        W40454  15.498  22.831   9.877 -0.0817 -0.4848  0.4654
39591W        W40455  27.504  14.292   3.112 -0.2774 -0.1423  0.3113
39592W        W40456  10.259   9.391   2.952  0.1105 -0.1146 -0.2225
39593W        W40457   2.523   3.552  14.225  0.0799  0.0823 -0.3978
39594W        W40458   0.628  12.647  18.701 -0.2457  0.1004 -0.2248
39595W        W40459  19.448  16.051   7.276 -0.1272  0.1230  0.0608
39596W        W40460   7.113   1.619  15.946  0.2202  0.2441 -0.4138
39597W        W40461  19.688   1.232  17.263 -0.3343 -0.2863  0.1733
39598W        W40462  17.065   3.454  15.215  0.2026 -0.1770  0.1850
39599W        W40463  20.090   6.288  28.431  0.1572  0.0673  0.3421
39600W        W40464  17.241  15.960  18.382  0.2495 -0.0187 -0.1046
39601W        W40465   6.542  10.225  19.198  0.1610  0.0393 -0.1837
39602W        W40466  26.645  26.893  17.610 -0.1469  0.2311 -0.0161
39603W        W40467   7.404  27.235  10.051 -0.1092  0.0004 -0.3736
39604W        W40468  19.412  18.552  12.577  0.0297 -0.0629 -0.1599
39605W        W40469  26.844  24.279   1.627 -0.0303  0.4390 -0.1205
39606W        W40470  19.847   4.135   1.932 -0.1682  0.0566  0.1621
39607W        W40471  16.049  11.340   7.724  0.0510 -0.1300 -0.0321
39608W        W40472  26.850  10.656   1.144 -0.2167  0.0075 -0.2909
39609W        W40473   5.500   7.574  16.142 -0.0407 -0.0381  0.0276
39610W        W40474  11.274  19.420  17.818 -0.0111  0.0628 -0.1611
39611W        W40475  18.405   5.875  14.489 -0.3063  0.0609  0.2201
39612W        W40476  24.313   8.805  13.860 -0.1309  0.1619 -0.1402
39613W        W40477  28.865   9.464  22.098 -0.1553  0.1191 -0.1330
39614W        W40478  22.398  11.133   3.518 -0.1313 -0.0896 -0.2851
39615W        W40479  11.871   9.219   5.501 -0.0691 -0.0828  0.1539
39616W        W40480  22.492   5.340  13.208 -0.1779  0.0389  0.4319
39617W        W40481   9.616  20.905  17.046  0.2137  0.0058  0.0316
39618W        W40482   2.983  19.427   2.971  0.0472 -0.1845 -0.4435
39619W        W40483   5.232  15.902  12.448  0.1309  0.1621  0.0481
39620W        W40484  14.888  17.543  16.020 -0.0623 -0.0019  0.0584
39621W        W40485   7.087  17.504  18.751 -0.4307  0.2610  0.4395
39622W        W40486  19.637   7.927   8.988  0.1522 -0.1119 -0.1641
39623W        W40487  13.970   2.557  14.854  0.0598  0.0549 -0.1371
39624W        W40488  23.366  18.194   0.792  0.2228 -0.0722  0.3960
39625W        W40489  28.381  15.572  24.729 -0.0219  0.2252  0.1669
39626W        W40490  24.060  12.615   5.306  0.0437 -0.1093  0.0349
39627W        W40491  17.673  22.799  26.907 -0.1222  0.0291 -0.0532
39628W        W40492   6.344   2.033  13.677 -0.3351 -0.2862  0.0829
39629W        W40493   8.838   7.692  15.185 -0.0078 -0.1342  0.0726
39630W        W40494   1.105  26.690  27.800  0.0534 -0.0347 -0.0047
39631W        W40495  21.914  20.667  24.881 -0.3915  0.0175  0.4188
39632W        W40496   3.167  19.829  16.561  0.0517 -0.1686 -0.0086
39633W        W40497  10.554  20.679  29.030 -0.0113 -0.0490  0.0960
39634W        W40498   8.963   0.842   6.118  0.1943  0.0042 -0.1105
39635W        W40499   4.343  17.901  22.966  0.1582  0.1491 -0.3687
39636W        W40500  22.135   0.971   1.365 -0.0845 -0.0632  0.1481
39637W        W40501  17.300  12.385  26.620 -0.1476 -0.0849  0.1282
39638W        W40502  20.148  12.881  17.772  0.0877 -0.2644 -0.0742
39639W        W40503   2.890  26.747   5.291 -0.1867 -0.0203  0.2145
39640W        W40504   2.462   4.343   8.325 -0.1269  0.0487 -0.3343
39641W        W40505  10.043  22.457   8.907 -0.3085  0.1648  0.3487
39642W        W40506  23.631  22.487  21.930  0.5644 -0.1217  0.0904
39643W        W40507   8.113  12.315  15.584  0.1594  0.0345  0.0303
39644W        W40508   2.348  11.769  14.125  0.0523 -0.0945 -0.3114
39645W        W40509  12.065  15.609  28.078  0.0674 -0.1373  0.4847
39646W        W40510   0.637   2.413   4.762 -0.2204 -0.1398 -0.3688
39647W        W40511  17.920  21.010  27.109 -0.1124 -0.0865  0.1010
39648W        W40512   3.524  13.850  11.757  0.0699 -0.0966 -0.2521
39649W        W40513  16.430  19.770  21.770 -0.1622 -0.2687  0.0645
39650W        W40514  24.908  28.484   0.629 -0.1177  0.1537  0.3824
39651W        W40515  18.840  27.383  21.675  0.1747  0.2616 -0.1187
39652W        W40516  17.213   1.783  10.440  0.0181  0.1822  0.0180
39653W        W40517  25.925  11.074  11.059 -0.0416  0.4771 -0.2824
39654W        W40518   6.898  16.667   3.919 -0.0838 -0.1786 -0.1117
39655W        W40519  22.357   6.125  16.266 -0.0735 -0.0524 -0.2367
39656W        W40520  28.024   5.756  12.952  0.0575 -0.0601 -0.0497
39657W        W40521  13.149  16.906   4.690 -0.0782 -0.0421  0.0337
39658W        W40522  18.089  10.397  23.734 -0.0403  0.2222 -0.2658
39659W        W40523  24.581   5.808   2.941 -0.3223 -0.2797 -0.2725
39660W        W40524  21.761   4.343  20.178 -0.1845 -0.3166  0.1889
39661W        W40525  26.220  15.067  14.104 -0.1027  0.2969  0.1959
39662W        W40526  12.964  14.931   2.715  0.1158  0.1877 -0.0376
39663W        W40527  25.705  29.017  28.143 -0.0712 -0.0309  0.0124
39664W        W40528  15.859  13.930   8.383 -0.2222 -0.0627  0.1522
39665W        W40529  25.435  29.127  14.052  0.0914  0.0429 -0.0046
39666W        W40530  22.301  11.839  11.534  0.0299  0.2749 -0.0875
39667W        W40531  10.280  11.284  15.316 -0.1033  0.1242 -0.4214
39668W        W40532  27.596  11.644  22.606  0.5268  0.0551 -0.2592
39669W        W40533  17.537  19.579  26.478  0.1627 -0.0017  0.0193
39670W        W40534  28.281  14.623  15.945  0.3634  0.0358 -0.1463
39671W        W40535  12.159  24.126  14.446  0.2487  0.0510 -0.2479
39672W        W40536  12.969   5.265  13.719  0.2326  0.3172 -0.2082
39673W        W40537  11.690  18.415   9.110 -0.1668 -0.0225  0.0757
39674W        W40538   5.274   4.781  23.676 -0.2028 -0.0455 -0.0250
39675W        W40539   8.201   5.405  17.840  0.1288  0.0079  0.2488
39676W        W40540   8.484   9.441  25.561  0.0346 -0.0684 -0.2681
39677W        W40541  16.689  28.791  21.915  0.1900 -0.1827  0.3386
39678W        W40542  21.669   8.428  15.349 -0.0636  0.0641 -0.0777
39679W        W40543  11.718  10.218   8.068  0.3406  0.3485 -0.0610
39680W        W40544  21.830  24.554  21.521 -0.0846 -0.1197  0.1061
39681W        W40545  23.542   3.064  20.709  0.0265  0.0173 -0.1429
39682W        W40546  15.190   2.649   5.465  0.1058  0.1244 -0.0395
39683W        W40547  17.283  28.379   6.722 -0.0847  0.0428  0.0283
39684W        W40548   1.240  19.819  27.906  0.3081 -0.2209 -0.0401
39685W        W40549  15.273  17.547  20.957  0.0008 -0.0251 -0.2712
39686W        W40550  18.624  21.258  14.506  0.0605  0.0707 -0.1427
39687W        W40551  15.389   6.386  13.492  0.2527  0.1400  0.0467
39688W        W40552  17.661   4.359  11.791  0.0011  0.1887 -0.1479
39689W        W40553  27.918  12.909   8.907 -0.0513 -0.0745  0.0489
39690W        W40554  18.858   9.366  17.068  0.0246  0.3363 -0.0885
39691W        W40555  21.756  15.162  20.486  0.1045  0.1529 -0.1671
39692W        W40556  13.772  10.965  14.621  0.1923 -0.2335  0.2573
39693W        W40557  16.505  28.172  24.758  0.3825 -0.1782  0.2354
39694W        W40558  28.377  13.487   1.448 -0.2953 -0.4169 -0.0256
39695W        W40559  24.284   8.784  17.162  0.0997 -0.0568 -0.1016
39696W        W40560  22.542  13.147  11.180 -0.0910  0.0380 -0.1655
39697W        W40561  28.086   2.978  10.048 -0.0226 -0.1049 -0.0354
39698W        W40562  18.880   0.183   7.128  0.1662 -0.0487  0.1057
39699W        W40563   8.811  22.447  13.024  0.1766 -0.2712 -0.1047
39700W        W40564   1.266  11.330  28.684 -0.0098 -0.1219  0.1918
39701W        W40565   0.954  27.692  18.396 -0.0169 -0.2570  0.4165
39702W        W40566  26.203   0.345  14.453 -0.2206  0.0503  0.2152
39703W        W40567  13.059   8.608  12.600  0.0907 -0.0788  0.0876
39704W        W40568  18.200   1.626  12.701 -0.1044  0.2488  0.0510
39705W        W40569  22.816  27.079   1.045 -0.0084 -0.1593 -0.3416
39706W        W40570   4.637  17.446  17.643 -0.0289 -0.0798 -0.0240
39707W        W40571  13.408  17.070  21.909  0.0156 -0.1400 -0.1954
39708W        W40572   7.351   9.100  24.387 -0.2296  0.0093 -0.2082
39709W        W40573   3.580  13.852  14.952  0.0847  0.1022  0.0964
39710W        W40574  15.888  18.736  16.333 -0.2111 -0.1048  0.0117
39711W        W40575  17.557  21.510   8.685 -0.3556  0.0569 -0.1872
39712W        W40576   0.400  25.443  24.676 -0.2418 -0.3120  0.3058
39713W        W40577  13.833  22.703  28.126  0.0373  0.3556  0.0697
39714W        W40578  23.901  10.303   4.018 -0.1898 -0.1288 -0.2073
39715W        W40579  15.628  14.282   9.843  0.0391  0.0843 -0.1687
39716W        W40580  10.277  15.877   1.549  0.0601  0.0309  0.1022
39717W        W40581   3.193  17.952   1.274 -0.1472  0.1224  0.0251
39718W        W40582  15.271  24.633  25.218 -0.0271  0.1361  0.2195
39719W        W40583   4.280  27.284   1.520 -0.1318 -0.0469 -0.1088
39720W        W40584   6.658   9.306   8.181 -0.4285  0.2634  0.2772
39721W        W40585  21.380  19.843  11.878 -0.2673  0.0558 -0.2628
39722W        W40586  14.069  28.824  26.170 -0.0028  0.2070 -0.1562
39723W        W40587  27.243   2.233   1.634 -0.0372  0.1270  0.1259
39724W        W40588  24.767   6.049  22.033 -0.0461 -0.0406 -0.3066
39725W        W40589   3.601   6.233  24.680 -0.2106 -0.0134  0.1269
39726W        W40590   2.021   4.038  21.122  0.0249  0.1486  0.4470
39727W        W40591  22.578   7.726   9.062  0.0131 -0.1199  0.0740
39728W        W40592   0.030  14.068   3.226 -0.3237 -0.0497 -0.2347
39729W        W40593  25.162   6.561  10.153  0.0749 -0.2164  0.1506
39730W        W40594  24.578   3.020  19.649 -0.3649  0.0634 -0.2098
39731W        W40595  19.040  20.903  17.455  0.1497  0.0748  0.0791
39732W        W40596  26.962  11.339  13.189  0.1779 -0.1606 -0.0186
39733W        W40597  22.127  10.117  20.835  0.0413 -0.1905  0.2799
39734W        W40598  18.464   0.633   6.999 -0.0984  0.2395 -0.0308
39735W        W40599   5.642  18.181   9.601  0.1528  0.2574  0.0967
39736W        W40600  22.640  26.514   3.194  0.0583 -0.0078  0.0324
39737W        W40601  22.872  10.188  23.858 -0.2268  0.1684 -0.0631
39738W        W40602  26.432  14.589  26.334  0.1302 -0.1003  0.0526
39739W        W40603  23.855  26.111  28.382  0.1806 -0.2156  0.1701
39740W        W40604  14.424   2.275  12.974 -0.1813 -0.0638  0.2845
39741W        W40605  19.672  10.358   9.482  0.1426  0.0665 -0.1428
39742W        W40606  15.521  15.702  26.895 -0.2474 -0.0827 -0.2091
39743W        W40607  25.515   6.753  16.937 -0.0891  0.1744  0.0280
39744W        W40608  11.522   0.839  18.308  0.2687  0.2681  0.0313
39745W        W40609  17.220   0.417  12.670 -0.0009 -0.1144  0.3569
39746W        W40610   5.770  23.779  13.124  0.1866 -0.1113  0.1188
39747W        W40611   4.000  21.986  16.456 -0.0517 -0.0354 -0.1171
39748W        W40612   1.911   0.306   1.303  0.0955 -0.0667  0.1718
39749W        W40613  21.504   8.843  23.088  0.0413 -0.0153 -0.0964
39750W        W40614  11.406   9.775  25.217  0.0241  0.3209 -0.2506
39751W        W40615  16.056  11.964   2.004  0.0114 -0.5078  0.0859
39752W        W40616  12.845  16.032  27.960 -0.0031  0.0172  0.0753
39753W        W40617  26.662  15.274  23.491  0.0680 -0.1536 -0.1686
39754W        W40618  26.354  17.898   2.206 -0.0488 -0.1915 -0.0175
39755W        W40619  28.407  16.231  20.522 -0.1014  0.1515 -0.0824
39756W        W40620  25.352  11.237  28.623  0.1424 -0.1110  0.1073
39757W        W40621  19.693   4.729  10.127 -0.3314 -0.2278 -0.0063
39758W        W40622   6.758  20.463   7.695 -0.0874 -0.0887 -0.0161
39759W        W40623  23.202  18.008  10.357 -0.1030 -0.0007 -0.1753
39760W        W40624  22.145  10.893   3.125 -0.1043  0.0743  0.1217
39761W        W40625   4.346   4.662  25.247 -0.1555  0.0660  0.0048
39762W        W40626   8.813   7.216  25.860  0.2393  0.2518  0.1363
39763W        W40627  16.096  18.241  11.458  0.0596  0.0251 -0.0898
39764W        W40628  12.888   0.696  20.864  0.0349  0.0267  0.0587
39765W        W40629  22.462  13.650  29.101  0.0177 -0.3735  0.1930
39766W        W40630  12.313  14.622   0.061 -0.0201  0.0503  0.0288
39767W        W40631  22.061   7.251  15.468  0.1483  0.2530  0.0227
39768W        W40632   5.821  12.908   0.191  0.4427  0.1523 -0.0694
39769W        W40633  23.572   1.913  22.771  0.2607 -0.1358 -0.0318
39770W        W40634   6.526   4.566  14.864 -0.0155 -0.0608 -0.1888
39771W        W40635  20.959  13.975  28.272 -0.1174 -0.1763  0.3077
39772W        W40636  19.524   5.026  22.743 -0.1262  0.4115  0.2869
39773W        W40637  22.830  19.297  20.996  0.1172  0.3152  0.0046
39774W        W40638  21.113   2.423  27.687  0.0610 -0.2046  0.1225
39775W        W40639  22.669  11.404   5.380  0.1693 -0.1209 -0.2387
39776W        W40640   7.872  22.510   8.508  0.0028 -0.2046 -0.1755
39777W        W40641  23.773   1.533  10.955  0.1070  0.1074  0.0393
39778W        W40642   2.195  12.774  16.984 -0.1301  0.0621 -0.0632
39779W        W40643  26.031   3.936   2.358  0.2675  0.0117 -0.2265
39780W        W40644  20.257  23.002  15.573 -0.3054  0.0112 -0.2208
39781W        W40645  18.416   1.508  18.153 -0.0916 -0.0545  0.0237
39782W        W40646  14.038  27.906  25.508  0.0320  0.1599 -0.2013
39783W        W40647   9.067   5.198   6.264 -0.1298  0.0362  0.0977
39784W        W40648  22.191  23.982  20.453  0.0966 -0.0791  0.0372
39785W        W40649  18.662   3.875  19.666  0.1390 -0.1534  0.1047
39786W        W40650  24.416  10.080  24.410  0.0185  0.0094  0.3001
39787W        W40651   3.216  22.069   2.291  0.1294 -0.0049  0.6424
39788W        W40652  22.028   8.318  24.880  0.0820  0.3457  0.0123
39789W        W40653  19.204   7.644  11.399  0.2986  0.2463 -0.3004
39790W        W40654  25.589  13.952  25.983 -0.0886 -0.2229  0.1009
39791W        W40655  19.264  26.220  28.918 -0.1401 -0.1382 -0.0978
39792W        W40656  26.851  18.697  22.807  0.0354  0.0172  0.1179
39793W        W40657  17.287  11.524  26.972  0.0303 -0.0062 -0.0813
39794W        W40658  14.350  18.376   7.492  0.0118  0.0256 -0.1392
39795W        W40659  19.073   1.881  13.713  0.1339  0.0722  0.2761
39796W        W40660  19.562   1.037  15.507 -0.0842  0.1510 -0.0419
39797W        W40661   1.688  25.946  18.790  0.3898  0.0257  0.2153
39798W        W40662  22.304  19.354   5.330 -0.1039  0.1127 -0.2031
39799W        W40663   4.609   8.671  21.971  0.2133 -0.0124  0.0948
39800W        W40664  18.555   8.544   6.323 -0.2320 -0.1539 -0.1891
39801W        W40665  15.724  18.222   3.842 -0.2181 -0.1146  0.0529
39802W        W40666   7.340   3.023  25.621  0.1658  0.3960  0.0302
39803W        W40667  18.701  10.362  14.955 -0.3133 -0.1726 -0.2182
39804W        W40668  11.962   8.733  28.783 -0.0868 -0.1261  0.0540
39805W        W40669  20.439  13.081   3.718  0.0273  0.2782 -0.0544
39806W        W40670  17.312  17.237  28.648  0.2868  0.1677  0.1574
39807W        W40671  17.360  17.953   3.117 -0.0365 -0.2469  0.0672
39808W        W40672  22.842  23.121  22.073  0.0156 -0.1397 -0.0597
39809W        W40673  26.580  10.867  16.243  0.0881  0.0643 -0.0729
39810W        W40674  20.491  25.040  20.823  0.1796  0.0497  0.2637
39811W        W40675   6.175   7.323   2.679  0.0576  0.1130 -0.0024
39812W        W40676   1.022   1.583  28.831 -0.0015  0.3053 -0.1677
39813W        W40677   3.838  20.073  22.654  0.0853 -0.1094  0.2291
39814W        W40678   2.489   4.844  13.368 -0.1873 -0.4886 -0.2020
39815W        W40679  26.773  22.462  25.755  0.1001  0.2465  0.0383
39816W        W40680  14.049  10.808  11.298  0.2082  0.1096 -0.0725
39817W        W40681  18.333  23.560  21.803 -0.1198 -0.2446  0.0903
39818W        W40682   1.361  19.400  20.027 -0.0935 -0.0989  0.0215
39819W        W40683   0.605  24.930   3.822 -0.0148  0.0879  0.2557
39820W        W40684   5.676   2.551  16.051  0.3981 -0.3197  0.0776
39821W        W40685  14.868  18.538  16.944  0.1229  0.3475  0.0468
39822W        W40686  19.044   0.960  14.654 -0.2148  0.4571 -0.1417
39823W        W40687  21.324  20.281  28.711 -0.3988  0.0828 -0.3214
39824W        W40688  15.458   8.589   5.929  0.2940 -0.0711 -0.1236
39825W        W40689  16.418  24.000  27.984 -0.3148  0.0895 -0.0696
39826W        W40690   2.774   8.781  28.587 -0.2610  0.2053 -0.0818
39827W        W40691  24.881  23.732  16.167 -0.2844 -0.4100  0.1899
39828W        W40692   0.522  14.471  16.570  0.0216 -0.1077 -0.2495
39829W        W40693   1.708  19.084   6.916  0.1266  0.0427  0.2094
39830W        W40694  20.441   7.379  19.765  0.2152 -0.1937  0.1240
39831W        W40695  20.560  11.234   5.083 -0.4076 -0.1573 -0.4010
39832W        W40696  27.875  19.966   4.294  0.0139  0.0109 -0.2750
39833W        W40697   7.321  22.368  10.974  0.1325  0.1269  0.0818
39834W        W40698  23.037  11.737   2.452  0.1239  0.1770 -0.1901
39835W        W40699  21.487  26.506  22.030  0.0223  0.0595  0.1411
39836W        W40700  27.271   7.247  21.988 -0.2429  0.0489 -0.0410
39837W        W40701   0.798  16.302  16.918 -0.2020 -0.0121 -0.1792
39838W        W40702  20.021  15.730   0.387  0.1013 -0.0663 -0.3737
39839W        W40703   7.760  22.629   1.964  0.1357  0.2016 -0.0301
39840W        W40704   5.862  20.488  15.876  0.1864  0.2413 -0.1556
39841W        W40705  21.398  10.895  15.208  0.2574  0.0694 -0.1143
39842W        W40706  10.547   3.620  26.393  0.1416  0.0360  0.3991
39843W        W40707   9.855   4.375  11.562 -0.1585  0.4347 -0.1017
39844W        W40708  23.802  12.923  25.183  0.1187 -0.0914 -0.0207
39845W        W40709  16.426  16.333  17.519  0.1647  0.2450  0.0326
39846W        W40710  18.272  18.460   1.181  0.1940  0.1056 -0.1766
39847W        W40711  15.245  13.524  18.731  0.0574  0.1717  0.0811
39848W        W40712   2.549   4.555   2.249  0.0068  0.0874 -0.1589
39849W        W40713  26.486  16.791  21.105 -0.0056  0.0607  0.0381
39850W        W40714  17.215  13.303  22.434 -0.2210  0.0174  0.0247
39851W        W40715  23.057  11.445  14.261  0.2616  0.0530  0.2683
39852W        W40716  19.833  16.804  28.112 -0.0853  0.1395  0.1695
39853W        W40717   1.008  28.239  11.664  0.1997  0.1488  0.0716
39854W        W40718  18.379   9.894  25.729  0.5422 -0.0451 -0.3478
39855W        W40719  11.918  11.939   5.045  0.0405  0.0822  0.0177
39856W        W40720  17.665  27.056  22.734  0.0277  0.0919 -0.4085
39857W        W40721   9.262  25.970  14.096 -0.2748 -0.2054  0.2798
39858W        W40722  10.405  11.263  12.730  0.0628 -0.2027  0.0429
39859W        W40723  14.722   4.801  17.802 -0.0974  0.0644  0.0350
39860W        W40724  15.880   0.043   9.353 -0.3024 -0.1636  0.1504
39861W        W40725  14.819   9.476  24.460  0.0101  0.1024 -0.2108
39862W        W40726  12.504   7.424   3.048 -0.0652 -0.0413 -0.0952
39863W        W40727  20.129   6.373  14.497 -0.2044 -0.1754  0.0829
39864W        W40728   4.764   8.112  10.172  0.0457  0.1984  0.0635
39865W        W40729  22.109   3.658  12.650  0.0992  0.1674 -0.3008
39866W        W40730   0.926  28.698  17.212  0.0017  0.1284  0.1376
39867W        W40731  23.562  12.684  25.747 -0.1140  0.0713 -0.0319
39868W        W40732  11.785  13.378  24.007 -0.2437  0.0361 -0.3067
39869W        W40733   1.124  16.489  10.298  0.2129 -0.0423  0.0100
39870W        W40734  13.451  17.499  18.007 -0.3117 -0.3523  0.2570
39871W        W40735  14.088   6.286   9.894  0.0153 -0.5598  0.1525
39872W        W40736   3.015   7.965  21.536 -0.2328 -0.3200  0.0043
39873W        W40737   0.054  23.258  10.717 -0.0803  0.0015  0.1064
39874W        W40738  19.096  22.841  10.591  0.0796  0.0650  0.1860
39875W        W40739  20.888  22.383   0.967 -0.2421  0.1250  0.2239
39876W        W40740   1.674   6.637  24.002 -0.3487 -0.3754 -0.0442
39877W        W40741   0.113   5.431  26.645  0.1506  0.3870  0.0402
39878W        W40742  25.400  11.337  11.135 -0.1004 -0.0874  0.2155
39879W        W40743   5.538  29.136  25.002  0.0522  0.1440  0.1356
39880W        W40744  22.809   8.951   7.953  0.4659 -0.1252  0.2624
39881W        W40745   9.513  12.624  17.314 -0.0885  0.0433  0.3983
39882W        W40746  19.913   2.767   3.834 -0.0944  0.0011 -0.6210
39883W        W40747  17.044  24.151  20.508 -0.1330 -0.2797 -0.0442
39884W        W40748   7.922  13.674   9.462 -0.2310 -0.0621  0.3979
39885W        W40749  23.928  12.080  19.748  0.1171 -0.1806  0.0877
39886W        W40750   0.836  20.175   8.604 -0.0503 -0.0968 -0.1234
39887W        W40751  29.031  17.209   1.061  0.0816 -0.0806 -0.0994
39888W        W40752  27.192  28.332   4.604 -0.4678 -0.1246 -0.1013
39889W        W40753  19.679  16.211  12.630 -0.0481  0.2267  0.1561
39890W        W40754  23.292   3.290  27.097  0.0641 -0.0281  0.0778
39891W        W40755  22.779  23.133  15.331 -0.2230 -0.1372  0.0448
39892W        W40756   7.175  27.270  11.455 -0.1169  0.0271  0.3436
39893W        W40757  24.266  13.121  23.982  0.2310 -0.0992  0.2909
39894W        W40758  11.539  28.229  25.856 -0.0397  0.0303  0.0994
39895W        W40759  11.572  13.723  22.469  0.2995 -0.3162  0.1513
39896W        W40760   8.074  19.968   1.729 -0.2928 -0.1229 -0.2118
39897W        W40761  25.598  11.007   2.619 -0.0847 -0.0165 -0.3123
39898W        W40762  28.022  25.783  26.825  0.0614  0.1885  0.0745
39899W        W40763   2.853   2.081  11.613  0.1599  0.1191  0.2626
39900W        W40764   8.551  17.425   6.562 -0.0072 -0.1525 -0.3050
39901W        W40765  16.099   9.818  24.594 -0.0047  0.0998  0.5044
39902W        W40766  21.847  13.778  19.034  0.3884 -0.0315  0.0113
39903W        W40767  20.547   7.805  13.468  0.2649 -0.1885  0.0062
39904W        W40768  24.882  25.723   2.390 -0.0974 -0.1055  0.2689
39905W        W40769   1.443  25.846   1.818 -0.1896  0.5104 -0.0800
39906W        W40770   8.601  24.083  20.058  0.1594 -0.2631  0.2677
39907W        W40771  25.444  20.653  18.586  0.4763 -0.2102  0.2641
39908W        W40772  13.273  18.453  22.154  0.2268  0.1091  0.0017
39909W        W40773   1.786  13.036   3.507  0.1531  0.2572  0.3185
39910W        W40774  17.836   9.270  28.750  0.0406  0.2097 -0.0754
39911W        W40775  26.976   0.330  29.008 -0.1504 -0.0086  0.0121
39912W        W40776  20.716  26.191  13.385  0.1413  0.1202  0.2615
39913W        W40777  19.457   7.858  22.459 -0.4015  0.2130  0.2083
39914W        W40778  18.304  18.408   5.529 -0.0610 -0.0025 -0.1337
39915W        W40779   0.666  12.829  23.375  0.1671  0.1140  0.3856
39916W        W40780  16.749  16.581  23.021 -0.1166 -0.2014  0.0396
39917W        W40781  25.412   6.961  15.333 -0.1262  0.0176  0.3742
39918W        W40782  21.541  10.250  11.716 -0.1179  0.1692  0.4249
39919W        W40783  10.403  17.878  12.269 -0.0438  0.0383  0.1866
39920W        W40784  26.306  17.124   4.868 -0.0867 -0.0551 -0.0760
39921W        W40785   5.717  13.780   7.038 -0.0568 -0.0249  0.1816
39922W        W40786  23.324   4.752  18.864  0.0138 -0.0130  0.1271
39923W        W40787  21.584  14.028  22.498 -0.2213  0.1205  0.1751
39924W        W40788  26.263   0.668  24.496 -0.2021  0.1012  0.1537
39925W        W40789  16.486  19.312  15.559 -0.0677  0.1151 -0.0326
39926W        W40790  14.544  24.693   8.910 -0.1306 -0.1029  0.1462
39927W        W40791   9.644  23.874  21.118 -0.0756  0.1430  0.0537
39928W        W40792   9.143   8.835   6.469 -0.0421  0.0396  0.0730
39929W        W40793  15.906  13.794  11.491  0.0455  0.1541  0.0187
39930W        W40794  24.942   4.507  23.074  0.1573 -0.0963 -0.2791
39931W        W40795  10.365   9.671  13.607 -0.0119  0.1494  0.0303
39932W        W40796   1.854   1.226   9.459 -0.1192 -0.1402  0.0110
39933W        W40797  11.075  14.229  27.405  0.0923  0.1295  0.1029
39934W        W40798  19.519  27.630   0.508 -0.1231 -0.2317  0.3798
39935W        W40799  19.539   5.053  15.052 -0.1431 -0.0138  0.1384
39936W        W40800  27.811   8.106  14.930 -0.3557 -0.0283  0.0614
39937W        W40801   1.564  16.383  23.112 -0.2365  0.2157  0.0636
39938W        W40802   6.113   6.852  21.646 -0.0082 -0.0560 -0.1245
39939W        W40803  25.821  10.786   9.987 -0.0486  0.1255 -0.0329
39940W        W40804  12.189  18.226  20.786  0.0548 -0.0352 -0.0694
39941W        W40805  22.320  11.187  26.373 -0.1038 -0.0938  0.0356
39942W        W40806  10.821  13.644  24.303 -0.1687  0.2211  0.0053
39943W        W40807  20.717   6.240   3.044 -0.2551  0.0822 -0.2887
39944W        W40808   2.003  19.482  18.948 -0.0783  0.1926  0.1482
39945W        W40809  27.046  22.683  27.439  0.0636  0.1519 -0.3170
39946W        W40810  19.030   9.786  23.070  0.3163  0.1008  0.2179
39947W        W40811   1.767  11.947  19.669 -0.3265  0.0458  0.0854
39948W        W40812  22.753  11.255  19.650  0.1509  0.4083 -0.0789
39949W        W40813   9.890  28.613  20.061 -0.3118  0.0937 -0.2797
39950W        W40814   6.027   2.141  26.811  0.2044  0.4491  0.2602
39951W        W40815   0.224   4.971  18.208  0.1356 -0.0517 -0.0063
39952W        W40816  18.231   9.575  26.542  0.1751  0.4458  0.1456
39953W        W40817  23.118   4.068  15.157 -0.0858  0.0072  0.0742
39954W        W40818  11.629  27.087   1.760 -0.1926  0.0778 -0.1087
39955W        W40819   6.382   0.527  27.228 -0.1980 -0.0834 -0.0196
39956W        W40820  15.764   5.231  13.884  0.0453 -0.1048 -0.4062
39957W        W40821   6.463   9.037  25.099  0.1082 -0.1587  0.0721
39958W        W40822   9.005  13.384  26.903 -0.0350 -0.2704  0.2324
39959W        W40823  20.898  21.252  18.004  0.2798 -0.0611 -0.1337
39960W        W40824  25.226  23.202  24.721  0.1355 -0.0446  0.1945
39961W        W40825  26.633   4.020  20.198 -0.0137 -0.2925 -0.0090
39962W        W40826  13.353  18.093  13.771  0.2263 -0.1963  0.1811
39963W        W40827  25.357  13.542   7.743  0.1034  0.3007 -0.0156
39964W        W40828  21.403  16.430   6.221  0.1924  0.1900 -0.0751
39965W        W40829   1.337  18.282  13.416 -0.2459  0.2496  0.2423
39966W        W40830  14.435   2.864  18.780 -0.1251 -0.3814  0.0842
39967W        W40831  26.219  25.297  23.184 -0.1977 -0.1899 -0.0828
39968W        W40832  20.658   5.501  11.393  0.0766 -0.0775 -0.2250
39969W        W40833   4.972  24.091  15.085  0.2881 -0.0718  0.1122
39970W        W40834  27.763   8.716  26.840  0.1094  0.1856 -0.2360
39971W        W40835  14.450   2.726  24.767  0.0016 -0.1187  0.1875
39972W        W40836  13.058  15.338  21.139 -0.2191 -0.1173  0.2939
39973W        W40837   4.045   8.306   3.398 -0.0933 -0.0081 -0.1736
39974W        W40838  17.979  22.130  28.711  0.2098 -0.1722  0.0099
39975W        W40839  19.869  24.314  23.897  0.0199  0.0558 -0.3009
39976W        W40840  17.079   5.557  22.230 -0.0287 -0.1137  0.1468
39977W        W40841  20.476  22.729   0.183  0.2839 -0.0231 -0.0995
39978W        W40842  12.188  16.379   8.867  0.0343 -0.2253  0.0445
39979W        W40843  24.867   8.740  21.675 -0.0683 -0.0237 -0.2208
39980W        W40844  16.529  11.153  16.498 -0.0219 -0.0282  0.2211
39981W        W40845  14.762  13.687  26.197 -0.1606 -0.1532 -0.1042
39982W        W40846  25.791  13.963  20.089  0.1280 -0.0428 -0.3669
39983W        W40847  27.528   2.353  24.266  0.0726 -0.2928 -0.2581
39984W        W40848  16.993  26.069  22.146 -0.2984 -0.1501 -0.1147
39985W        W40849  17.595  17.567  24.983 -0.2820  0.2598  0.1744
39986W        W40850  14.506  16.966  17.583 -0.2097 -0.3973 -0.1846
39987W        W40851  15.233  14.031  13.035  0.1242  0.2201  0.1862
39988W        W40852  20.321  24.478  20.272 -0.1329  0.0163 -0.5103
39989W        W40853   8.435  28.809   9.295  0.3544  0.0056  0.0465
39990W        W40854  11.443  18.196  14.162  0.0327 -0.1017 -0.0976
39991W        W40855  27.091  17.564  25.989 -0.1671  0.7131 -0.2941
39992W        W40856  21.842  17.335  14.678  0.0387  0.1529 -0.1241
39993W        W40857  13.808   4.387  21.751  0.2585 -0.0266  0.0081
39994W        W40858   2.391  16.096  22.617  0.1271 -0.0310 -0.3449
39995W        W40859  16.806   1.164  27.473  0.1510 -0.2573  0.1251
39996W        W40860  10.981  23.553  11.578 -0.2910 -0.1352  0.3412
39997W        W40861   8.845  26.405  17.571 -0.0459 -0.1699 -0.1162
39998W        W40862  23.800   6.443  27.759  0.0792 -0.0262  0.0658
39999W        W40863  10.924   8.576   7.709 -0.1870 -0.0885  0.1916
40000W        W40864  17.112  15.156  18.115  0.0779  0.1974  0.1623
40001W        W40865   3.574  11.555   0.002 -0.1467  0.0995 -0.0580
40002W        W40866  16.199  12.724  26.493  0.1568 -0.1257 -0.3297
40003W        W40867  20.500   9.554  14.684 -0.0993 -0.1477  0.0675
40004W        W40868   9.525   5.715  16.360  0.0149  0.1048 -0.0264
40005W        W40869  15.164  14.644   7.351  0.0512  0.0956 -0.1411
40006W        W40870  10.454  24.228   1.640  0.2204 -0.0259  0.0867
40007W        W40871   2.074   4.092  13.068 -0.0754  0.1517  0.0237
40008W        W40872  14.521  12.539  11.156 -0.0439  0.0894 -0.1935
40009W        W40873  24.261  12.819  18.113  0.1635  0.1444 -0.2789
40010W        W40874  27.376  20.895   5.545 -0.2770 -0.1573  0.3063
40011W        W40875  21.031   7.686   1.219 -0.0959 -0.4218 -0.0750
40012W        W40876   1.372  14.254  16.255  0.1824 -0.2667  0.0838
40013W        W40877   0.560   5.077  14.739  0.1068 -0.1415 -0.1451
40014W        W40878   5.890  18.569   8.264 -0.1541 -0.0804  0.1196
40015W        W40879  26.634  11.908  10.024  0.2617 -0.1415 -0.2295
40016W        W40880  12.935   4.977  26.509 -0.3587 -0.2636 -0.2951
40017W        W40881  25.441   7.243  22.236  0.0183  0.0888  0.1023
40018W        W40882  20.668  15.726  10.746 -0.3661  0.1463 -0.1404
40019W        W40883  23.797   7.744  29.058 -0.1375  0.0749  0.2201
40020W        W40884  26.231   4.481  22.479 -0.0146 -0.0346  0.1356
40021W        W40885  20.099   6.626  25.400  0.0410 -0.1871  0.0109
40022W        W40886   1.210  16.150  19.861  0.1925  0.1088  0.3387
40023W        W40887  20.108  25.405  22.616 -0.1031  0.0159 -0.1737
40024W        W40888  15.876  24.485  17.563  0.1427 -0.0558  0.0376
40025W        W40889   4.862  26.104  25.543  0.0819 -0.0891 -0.2783
40026W        W40890   3.244   1.083  11.248 -0.1041 -0.1260 -0.2419
40027W        W40891  25.265   0.427   1.204 -0.0547 -0.0857  0.1887
40028W        W40892  23.625  20.677   8.482  0.0538 -0.0955 -0.1110
40029W        W40893   8.303  21.669   3.712  0.0568 -0.2211 -0.3998
40030W        W40894   1.119   5.488  13.963  0.3922 -0.2252 -0.0250
40031W        W40895  16.283  12.301  14.845  0.0312  0.2425 -0.2670
40032W        W40896  23.358  10.738  24.836 -0.1343  0.1772 -0.0653
40033W        W40897   5.280   9.227   8.791  0.1391 -0.0580  0.0466
40034W        W40898  21.064  27.666  10.204  0.2535 -0.1279 -0.2060
40035W        W40899   8.877  15.736  21.927  0.2638 -0.1778 -0.0421
40036W        W40900  20.942   6.593  17.721  0.0817  0.3154 -0.1433
40037W        W40901   9.330   8.572   7.912  0.1256  0.3404  0.1080
40038W        W40902  16.101  20.395  24.901  0.1703  0.0536 -0.0748
40039W        W40903  24.782   8.176  12.419  0.2643 -0.0761  0.4684
40040W        W40904  19.925   0.132  15.201  0.2324  0.0561 -0.3432
40041W        W40905  13.411  18.227  26.239  0.1325  0.3079  0.2477
40042W        W40906  26.529   6.644  23.569 -0.1719  0.2861  0.0450
40043W        W40907   4.655  19.566  23.238 -0.0566 -0.3278 -0.1464
40044W        W40908  20.831  13.135  18.611 -0.0275  0.0382 -0.1647
40045W        W40909  13.449  15.216  24.366 -0.2616 -0.1004  0.1494
40046W        W40910  18.531  26.832  20.874  0.1434 -0.1721 -0.0767
40047W        W40911  18.603  19.995  20.400  0.0922 -0.1263 -0.2203
40048W        W40912  20.684  27.118   7.718 -0.1207  0.0329  0.2687
40049W        W40913  13.603  23.825  22.563 -0.4382  0.1718 -0.3361
40050W        W40914  18.353   0.046   0.286  0.1513 -0.0090 -0.1159
40051W        W40915   2.502  23.993  27.680  0.1185  0.0299  0.2062
40052W        W40916  12.439  16.217  11.164 -0.0688  0.0704 -0.0426
40053W        W40917  15.805  17.691   8.995 -0.0994 -0.0040  0.0084
40054W        W40918  24.575  16.500   7.068 -0.3566  0.1400 -0.0739
40055W        W40919  17.705  20.119  18.185  0.0328 -0.1242 -0.0894
40056W        W40920   5.557   2.746  15.057 -0.0930  0.1608 -0.0761
40057W        W40921  11.642  11.173   1.983  0.1756  0.2451  0.1531
40058W        W40922  19.672  14.340  10.419 -0.0989  0.0755  0.2973
40059W        W40923  12.578  25.640  14.381 -0.0825  0.0454  0.0615
40060W        W40924  26.801  12.134   3.614  0.1680 -0.0510 -0.2227
40061W        W40925  19.284  26.681  25.192 -0.0559 -0.0083 -0.0863
40062W        W40926  22.211  25.210   1.810  0.1086 -0.0945 -0.2878
40063W        W40927  18.508  14.593  12.276  0.1393 -0.0585 -0.3495
40064W        W40928  15.203   1.602  22.480  0.1206  0.3254 -0.0160
40065W        W40929   2.141  10.571  27.895  0.3191  0.0624 -0.3415
40066W        W40930   1.673   6.243  13.910  0.0819  0.1265  0.2807
40067W        W40931  21.513  22.686  26.869 -0.0649  0.1114  0.0253
40068W        W40932  26.011   7.085   5.122 -0.1697 -0.1296  0.0797
40069W        W40933  16.423   2.780  20.374 -0.3150 -0.0450  0.0503
40070W        W40934  20.068  15.568  16.009 -0.1608  0.1086  0.1818
40071W        W40935  21.185  17.813   6.794 -0.0906 -0.2361  0.0051
40072W        W40936  24.986   5.037  22.886 -0.0599  0.0232 -0.0480
40073W        W40937  15.475  22.919  19.571 -0.2511  0.0313  0.3937
40074W        W40938  24.549   0.396  15.534  0.0019 -0.0725  0.0575
40075W        W40939  15.501   7.131  15.637 -0.2645 -0.2090 -0.1401
40076W        W40940   3.378  25.377   3.162 -0.0852  0.1762 -0.0548
40077W        W40941  19.507  11.049   3.746 -0.0667 -0.2561  0.0711
40078W        W40942   8.290   0.743  24.108  0.1155  0.1876 -0.0067
40079W        W40943   5.143  23.988  10.298 -0.1703 -0.2441  0.1605
40080W        W40944  24.121   4.857   3.545  0.0075 -0.3686  0.2047
40081W        W40945   4.405  15.801  24.441 -0.1213  0.1959  0.0730
40082W        W40946  14.716  14.102  27.775  0.1296  0.0260 -0.1696
40083W        W40947  20.404   8.276  25.081 -0.2739  0.1177  0.3264
40084W        W40948  23.854  11.058  20.371 -0.0699  0.1975 -0.0163
40085W        W40949  26.179   4.984   5.816 -0.2279 -0.0224  0.1753
40086W        W40950  14.237  14.784  13.991  0.2587 -0.0360  0.0410
40087W        W40951  17.947  13.564  20.382  0.3165 -0.2347  0.2437
40088W        W40952  15.785  27.356  20.552  0.2386 -0.2956 -0.0810
40089W        W40953   3.182  17.862  23.492 -0.4826 -0.3352 -0.1007
40090W        W40954  14.930  22.160  27.797  0.0490  0.0984  0.1570
40091W        W40955  19.233  21.788  16.286  0.0794 -0.0934  0.0155
40092W        W40956  20.760  18.478   3.400 -0.0844  0.2726  0.0475
40093W        W40957   0.701   8.302  20.527  0.1536  0.0360 -0.2544
40094W        W40958   1.366  24.938  28.675 -0.0728 -0.3014 -0.2796
40095W        W40959  21.973  23.687   1.475 -0.1019 -0.1459  0.0202
40096W        W40960  22.900  11.470   2.827  0.2412 -0.4756 -0.2743
40097W        W40961  25.960  21.217  17.024 -0.3708 -0.2047 -0.0615
40098W        W40962  18.811  15.730  16.526 -0.0354 -0.1371 -0.1028
40099W        W40963  22.526  20.824  16.581 -0.0565  0.1350  0.0632
40100W        W40964  14.024   2.051   2.832  0.0138 -0.1363  0.2091
40101W        W40965  16.307  13.934  26.385 -0.0303  0.1572 -0.0361
40102W        W40966  21.894   5.704   5.216 -0.3321  0.3471  0.3775
40103W        W40967   0.972  12.561  24.999 -0.2611  0.0651 -0.0295
40104W        W40968  12.245  22.663   1.235 -0.1947  0.0210  0.1259
40105W        W40969   9.043  21.148   9.995 -0.0328 -0.1325  0.6688
40106W        W40970  21.350  16.878  26.600  0.0580  0.2099  0.0791
40107W        W40971  15.716   9.898  24.182  0.1074 -0.0367 -0.1204
40108W        W40972  22.492  21.138  18.453 -0.0140 -0.2774  0.0090
40109W        W40973  14.431   7.585  11.888 -0.0089  0.0660 -0.1618
40110W        W40974  27.950  11.950  22.821  0.0337  0.0484  0.0788
40111W        W40975   3.754  23.337  22.762  0.1400  0.0807 -0.2881
40112W        W40976  21.608  21.257   1.821  0.0789  0.0987  0.0839
40113W        W40977  29.053  15.119  19.795  0.0257 -0.1983 -0.1531
40114W        W40978  26.880  21.394   4.313 -0.0834 -0.0713 -0.3517
40115W        W40979  10.990  15.007  18.223  0.1293  0.0487  0.1815
40116W        W40980   3.502  13.129   8.571  0.0035 -0.2269  0.1867
40117W        W40981  28.009  13.400   4.508 -0.0046  0.1075  0.4694
40118W        W40982  21.457  22.986  23.024  0.3581 -0.0027  0.1393
40119W        W40983   2.183   2.813  18.981  0.0237 -0.3227 -0.0411
40120W        W40984  28.721  18.336  11.796 -0.1304  0.1076  0.0530
40121W        W40985   9.558  12.755  25.852  0.3404 -0.0590 -0.0085
40122W        W40986   9.114  11.832  21.857 -0.0562  0.1495 -0.2047
40123W        W40987  26.327  15.593  28.329  0.0361  0.1683  0.1123
40124W        W40988   0.062   6.503  19.354 -0.1484  0.1203 -0.0447
40125W        W40989  26.065   0.183   3.830  0.0363  0.3338  0.3030
40126W        W40990  20.161  19.417  22.106 -0.0143  0.1108 -0.0676
40127W        W40991  10.146  13.322  19.355 -0.0049 -0.4101  0.2937
40128W        W40992  26.475  13.282  17.811  0.0206  0.0943 -0.0153
40129W        W40993  17.259  24.833  12.874 -0.0492  0.2707 -0.1207
40130W        W40994  16.384  26.301   7.810 -0.0487  0.0829  0.1977
40131W        W40995  22.375  15.292   4.033  0.3433 -0.1255 -0.0523
40132W        W40996  26.433  23.661  20.113  0.0273  0.2750  0.1754
40133W        W40997  26.656  11.335   4.942 -0.0413  0.0003  0.2276
40134W        W40998  21.736  19.806   5.482  0.3604  0.0605 -0.1080
40135W        W40999  17.518   9.257  17.465  0.2059 -0.0878  0.1902
40136W        W41000   5.809  27.617  24.111 -0.1662  0.0084 -0.0716
40137W        W41001   9.353   6.040   1.278 -0.1203  0.0884  0.1024
40138W        W41002  21.759  13.144  25.440 -0.1252  0.3127 -0.1044
40139W        W41003  10.037  23.580  15.152 -0.0278 -0.0681  0.0558
40140W        W41004  27.230   5.116   0.669  0.0466  0.0019 -0.0112
40141W        W41005  20.318  17.467  20.273  0.0906  0.0411 -0.3232
40142W        W41006  24.199   6.301  18.651  0.1461  0.0274 -0.0366
40143W        W41007  11.741   8.995  11.948  0.0132 -0.1669 -0.0307
40144W        W41008  14.646   0.216  22.541  0.0995 -0.0767 -0.2367
40145W        W41009   9.234  14.673   1.791  0.0374  0.0879  0.1001
40146W        W41010  22.462  12.913  19.007 -0.0126  0.0391 -0.0692
40147W        W41011  20.175  19.379  15.122 -0.1927 -0.3215 -0.3812
40148W        W41012  22.847  15.741  21.592  0.1682  0.2769  0.0771
40149W        W41013   4.738  13.749  19.939  0.0006 -0.1011  0.0967
40150W        W41014  16.313   4.833  10.585 -0.0436  0.0035  0.1643
40151W        W41015  15.652   1.584  23.985 -0.1801 -0.0941 -0.2144
40152W        W41016  15.652   2.445   1.822  0.3259 -0.0603  0.3602
40153W        W41017  13.311   4.616  23.366  0.0270 -0.0172 -0.1537
40154W        W41018  16.391  20.590  10.735  0.0532  0.0340  0.1065
40155W        W41019   9.281  23.948  12.768  0.0364 -0.0662  0.2030
40156W        W41020   1.082   8.693  15.337 -0.2099 -0.2458  0.0253
40157W        W41021   6.609  20.294   9.476  0.2684 -0.4084 -0.2797
40158W        W41022  24.862  27.262  28.184  0.1505 -0.1322 -0.0309
40159W        W41023  10.633  24.856  14.928 -0.1126 -0.0988 -0.3499
40160W        W41024   6.143  10.392   5.969 -0.0687  0.1415 -0.0686
40161W        W41025   6.218  14.539   6.239 -0.0802  0.1920  0.0577
40162W        W41026  23.750   5.857  21.720  0.1106  0.1269 -0.2558
40163W        W41027   2.566  24.079   0.458 -0.1653  0.1656  0.0532
40164W        W41028  25.546  19.134  21.794 -0.0075 -0.0832  0.1126
40165W        W41029  18.064   9.351   0.358 -0.1747 -0.1348  0.2154
40166W        W41030  11.269   5.862  27.772  0.1822 -0.4082  0.1198
40167W        W41031  10.450  18.069   9.749 -0.0967  0.0143 -0.2651
40168W        W41032  16.932   8.771   9.988 -0.1082  0.2458 -0.0651
40169W        W41033  12.069   3.087  25.323 -0.0533 -0.4675  0.0225
40170W        W41034   3.665  23.234  19.745  0.0049  0.1767  0.0660
40171W        W41035  22.721   4.195  16.772  0.0713 -0.1866  0.0572
40172W        W41036  24.717   9.163  15.593 -0.0267 -0.1027 -0.2460
40173W        W41037  12.425   8.591  11.656 -0.0189  0.1343  0.0493
40174W        W41038  21.684  26.505   6.347  0.2811 -0.0475 -0.0115
40175W        W41039   7.819  26.514  14.920  0.4165 -0.0760  0.1808
40176W        W41040  25.735  18.768   6.704 -0.4604 -0.2346 -0.0225
40177W        W41041  12.822  22.167  17.624 -0.2577 -0.1613 -0.0294
40178W        W41042  18.687  19.704   3.723 -0.2245  0.4214  0.0260
40179W        W41043   5.316   7.530  18.485 -0.0225 -0.1291  0.1975
40180W        W41044  20.730  20.912  18.409  0.1160  0.3464  0.1074
40181W        W41045  15.405  28.615   6.274 -0.1410  0.0237  0.0705
40182W        W41046   4.061  18.248   2.411 -0.0102  0.1466  0.2745
40183W        W41047  14.315  15.599  22.968  0.0161 -0.2684  0.0139
40184W        W41048  10.393   7.404  26.994  0.0061  0.1203 -0.2119
40185W        W41049   4.119  13.155   4.860  0.1730  0.2883 -0.0688
40186W        W41050   1.952   7.695  22.642 -0.0776 -0.0105  0.0049
40187W        W41051  16.854  26.972   2.897 -0.0217 -0.2015 -0.0647
40188W        W41052  26.054   4.732  19.310 -0.0402 -0.1341 -0.1538
40189W        W41053  14.829  24.970   8.130  0.0186  0.1120 -0.1606
40190W        W41054   8.601  24.374   9.060  0.4129 -0.0343 -0.3547
40191W        W41055  19.014   9.541   7.108 -0.6305 -0.1777  0.1356
40192W        W41056   3.889  23.673  24.177 -0.1172 -0.0150 -0.1536
40193W        W41057  12.574  19.764   9.713 -0.0600  0.2026  0.0526
40194W        W41058  27.281  17.597  21.239  0.2180  0.1264  0.1061
40195W        W41059  15.204  17.503  19.906 -0.0362 -0.1929  0.0471
40196W        W41060  13.807  22.656  13.078 -0.2077 -0.0652  0.2744
40197W        W41061  28.711  26.649  16.947 -0.0112  0.1361 -0.0926
40198W        W41062   1.543  20.476  14.927  0.1791 -0.0465  0.0053
40199W        W41063   5.555  11.893   1.913  0.2562  0.1964 -0.4489
40200W        W41064  21.223   1.284  19.970 -0.1472 -0.0463  0.1572
40201W        W41065  19.740   8.960  18.079  0.0133  0.1172  0.2549
40202W        W41066   2.015  20.121  16.565  0.0366 -0.0499  0.0707
40203W        W41067  15.333   8.613  16.879  0.2109  0.2573 -0.1785
40204W        W41068  22.392   7.296  24.583  0.1422  0.1619 -0.0462
40205W        W41069  20.324  16.968  27.068  0.3184  0.0254 -0.0752
40206W        W41070  22.635  14.312  11.517  0.1665  0.2610 -0.1681
40207W        W41071   4.147  14.739  27.164  0.0297 -0.0202  0.4919
40208W        W41072  22.441  25.105  24.405  0.1246 -0.1585  0.1678
40209W        W41073   5.918  14.690  25.832 -0.2372 -0.0987 -0.0017
40210W        W41074  17.524  15.404  25.618 -0.0488  0.0265  0.3420
40211W        W41075  24.400  23.729   6.903 -0.0863 -0.3615 -0.1642
40212W        W41076  26.878   1.801  18.136  0.4501 -0.1758 -0.2543
40213W        W41077  14.731  11.399  10.672  0.1818  0.2027  0.0217
40214W        W41078  25.672  19.780   9.648  0.0365 -0.1197 -0.0819
40215W        W41079   9.857  17.109  21.706 -0.1789  0.0638 -0.0762
40216W        W41080  23.644   7.746  27.103 -0.0136 -0.2901 -0.0871
40217W        W41081  11.141  27.860   7.800  0.0976  0.3639 -0.1056
40218W        W41082  15.666   7.553  24.042  0.0798  0.3092  0.4149
40219W        W41083  11.075   0.834  25.945  0.1609 -0.1072 -0.1553
40220W        W41084  19.858   4.085  18.938 -0.2434 -0.0324  0.2175
40221W        W41085  24.366  10.886  20.697  0.2421 -0.0770  0.2255
40222W        W41086  13.135  17.370  19.548 -0.1337  0.0882  0.2528
40223W        W41087   2.977  14.326  24.401  0.1902 -0.0449  0.3256
40224W        W41088   8.359  26.182   4.805 -0.0542 -0.1904 -0.1067
40225W        W41089  27.484  27.659   6.603 -0.0595 -0.0487 -0.0292
40226W        W41090  29.093  11.240   0.406  0.1699 -0.1568 -0.1729
40227W        W41091   2.901  17.135   5.704 -0.1687  0.0162 -0.0561
40228W        W41092  15.349  11.720  17.077  0.0950 -0.0391 -0.2735
40229W        W41093  19.727  17.617  26.005 -0.0912 -0.3017  0.0170
40230W        W41094  26.997   1.725  12.058 -0.3332 -0.1275 -0.2319
40231W        W41095  26.302  12.193  14.611  0.0203  0.0475  0.0738
40232W        W41096  15.085  18.437  15.806 -0.2402  0.1509 -0.1060
40233W        W41097  24.111  21.608   3.466 -0.1899 -0.0901 -0.3700
40234W        W41098   5.410   9.768  21.050 -0.0781 -0.0216 -0.0224
40235W        W41099   9.859  26.306   6.607 -0.1815 -0.0358 -0.0730
40236W        W41100  23.004   8.835  27.782 -0.0816 -0.2771 -0.1255
40237W        W41101  16.327  12.889  16.335  0.2223 -0.3415  0.1891
40238W        W41102   3.293  27.219   5.110 -0.1930 -0.4235  0.1335
40239W        W41103   3.102   1.707  26.916 -0.0072  0.1881 -0.0198
40240W        W41104  21.215   4.600  12.865  0.0669 -0.2034 -0.0872
40241W        W41105   7.101   7.111  21.646  0.1441  0.0214 -0.1660
40242W        W41106  22.710   7.674  15.394  0.1012  0.1256  0.0162
40243W        W41107  10.370  13.659   5.214  0.1407 -0.3250  0.2370
40244W        W41108  22.832   7.247  28.377  0.0178 -0.0966  0.3713
40245W        W41109  15.688  11.714   7.667  0.0665 -0.0206  0.2214
40246W        W41110  17.976  13.623   0.863 -0.0563  0.0064  0.0633
40247W        W41111   5.109   0.497  10.116 -0.1853  0.1889  0.1210
40248W        W41112  17.542  15.084  20.054 -0.1761  0.0660  0.1249
40249W        W41113  14.650  21.371  10.776 -0.2360  0.1084 -0.4131
40250W        W41114  15.088  25.294  21.080 -0.3019  0.0176  0.0769
40251W        W41115  10.664  28.572  17.395 -0.0417  0.2218  0.0402
40252W        W41116   6.847  17.197   0.201 -0.0139  0.2599 -0.0289
40253W        W41117  12.177  17.159  24.087 -0.0633  0.1312 -0.3431
40254W        W41118  26.454   4.211  15.956  0.2786 -0.0365 -0.1076
40255W        W41119  24.963  11.188  24.286 -0.2526 -0.0549  0.0909
40256W        W41120   0.113  20.617  13.956  0.1616 -0.1383 -0.0631
40257W        W41121  18.752  15.463  16.047  0.0428  0.3418  0.1397
40258W        W41122  12.893  20.048  19.476 -0.2888 -0.2088  0.5641
40259W        W41123  16.161  11.472  25.531 -0.1739  0.2678 -0.2554
40260W        W41124  20.961   2.292  16.116  0.0141 -0.1480  0.3144
40261W        W41125   9.306   0.758  13.533  0.2471  0.0763 -0.0844
40262W        W41126  13.511  18.532   1.556 -0.0406 -0.0212 -0.0210
40263W        W41127   8.547  12.792  26.707 -0.3462  0.2171 -0.1766
40264W        W41128  17.480  25.454  25.353 -0.2615 -0.1672  0.0646
40265W        W41129  16.703  11.860   8.188 -0.1217  0.3128  0.2569
40266W        W41130   7.248   5.472  19.194  0.0358 -0.1987  0.1322
40267W        W41131  10.494  11.715  25.018 -0.0973  0.0532 -0.0035
40268W        W41132  28.650  10.588   0.099  0.2199  0.4682  0.5070
40269W        W41133  28.203   5.694  22.636  0.0764 -0.0647  0.0237
40270W        W41134  13.029   9.477  14.762  0.0053  0.1161 -0.0935
40271W        W41135  23.443  17.999  12.929 -0.0149  0.0386  0.1434
40272W        W41136  19.357  17.284  10.371  0.0371 -0.1512 -0.1093
40273W        W41137  11.418  18.048   3.934  0.1351  0.0618  0.1506
40274W        W41138  24.221  22.170   9.407  0.3044  0.0217 -0.0741
40275W        W41139  10.964   5.259   5.157  0.1346  0.0089 -0.1134
40276W        W41140   0.377   4.103  17.285 -0.0149 -0.0211  0.0176
40277W        W41141   6.390  17.178   6.459 -0.3099 -0.0226  0.0426
40278W        W41142  23.653   8.135  17.458 -0.2027  0.2520  0.1108
40279W        W41143   0.407  21.840  16.994 -0.2420 -0.0282 -0.1382
40280W        W41144  18.185  10.499  27.298 -0.0943 -0.3410  0.1992
40281W        W41145  20.668   2.553  22.713  0.1562  0.1363  0.1607
40282W        W41146  22.753  21.812  11.813  0.1849  0.0166  0.1167
40283W        W41147  11.398  21.405  13.611  0.2035 -0.1586  0.1810
40284W        W41148  27.617  25.823   7.175 -0.0240 -0.0415  0.0581
40285W        W41149  19.922   9.124  13.920 -0.0370  0.1227  0.1940
40286W        W41150  25.072  26.938  13.577 -0.0777 -0.1098 -0.1112
40287W        W41151  27.154   2.166  12.238 -0.1121  0.0276  0.0623
40288W        W41152  27.797  21.262  26.487 -0.0879 -0.0309  0.1511
40289W        W41153  18.348  15.196  14.312 -0.0930  0.4188 -0.0402
40290W        W41154  26.178  23.022  22.164 -0.0609  0.0860  0.0284
40291W        W41155  16.674   7.948  26.852 -0.1458  0.1502 -0.0135
40292W        W41156  18.622  25.120  27.936  0.0117  0.2357  0.2044
40293W        W41157   8.598   9.003  15.131 -0.0520  0.1226  0.0457
40294W        W41158   6.295  15.385   0.330  0.1079  0.0051 -0.3025
40295W        W41159  22.176  16.670   8.469 -0.3812  0.0697  0.1782
40296W        W41160   4.614   8.155   3.372  0.0352  0.0385 -0.3275
40297W        W41161  13.609  22.098   0.193 -0.1303 -0.1807  0.2530
40298W        W41162   2.114   8.883  21.880  0.0167  0.1182 -0.1137
40299W        W41163  28.455   7.821  10.321 -0.1444  0.1394 -0.0362
40300W        W41164   2.803   6.374   0.517 -0.3579 -0.3555 -0.0368
40301W        W41165   9.809   3.008  24.188  0.1699 -0.1498  0.0593
40302W        W41166  18.462  16.179  16.567 -0.3251  0.4609 -0.2788
40303W        W41167   2.037  11.176  28.273  0.0078 -0.1862  0.1487
40304W        W41168   2.200  18.181  13.270  0.2596  0.1068 -0.3178
40305W        W41169  11.082  23.442  17.126 -0.1861 -0.1537  0.0295
40306W        W41170  10.834   6.314  22.241 -0.0927  0.1541  0.1814
40307W        W41171   2.517  13.848   9.506 -0.0579 -0.2146  0.0343
40308W        W41172   3.641  17.382  15.428 -0.1072 -0.1303 -0.0829
40309W        W41173  17.722  11.130  12.159 -0.1511  0.0491 -0.1048
40310W        W41174   6.481   2.100  11.476  0.4126  0.1256  0.0880
40311W        W41175  25.514  16.474  28.462  0.0397 -0.1757 -0.0190
40312W        W41176   9.009  16.621  23.893 -0.1358 -0.0937  0.0005
40313W        W41177   4.259  28.360   1.765  0.1947  0.0065 -0.2169
40314W        W41178  17.204   7.662   1.815 -0.1682 -0.0177 -0.2963
40315W        W41179  17.977  11.018   2.754  0.2790  0.0732  0.1060
40316W        W41180   6.461  14.704  15.309 -0.0043  0.1017 -0.0224
40317W        W41181  16.337  24.809  15.720  0.4430  0.0690 -0.1075
40318W        W41182  10.967  10.593  20.710 -0.0859 -0.0392 -0.1085
40319W        W41183  19.353  15.025   0.195  0.1373 -0.0075  0.1303
40320W        W41184  28.418   8.368  16.025 -0.3376  0.0838  0.2874
40321W        W41185   3.745   0.530  20.417  0.3215  0.1358 -0.2554
40322W        W41186  24.835  18.849  18.408 -0.7026 -0.0615 -0.0608
40323W        W41187  14.537   8.250   9.324 -0.1684 -0.2769  0.1383
40324W        W41188  13.297   0.151   2.586  0.2766 -0.0984 -0.4700
40325W        W41189  27.446   9.864   6.014 -0.1210  0.0181  0.1263
40326W        W41190   9.232  26.509  11.144 -0.0560  0.0497  0.2538
40327W        W41191   0.072   9.282   3.411  0.2418 -0.1736 -0.0354
40328W        W41192  18.350  20.353  15.727  0.0534 -0.1688  0.1015
40329W        W41193  27.142   5.174  15.143 -0.0982  0.2355 -0.0080
40330W        W41194  14.427  10.897   9.590  0.0439  0.1638 -0.0120
40331W        W41195  11.187   6.060  16.872 -0.0516 -0.1937 -0.0420
40332W        W41196  16.750  10.577  14.595  0.0763  0.0278  0.1003
40333W        W41197   6.227   0.523  24.844  0.0242  0.1361 -0.2029
40334W        W41198   1.957  22.087   7.678 -0.0935  0.1260 -0.0085
40335W        W41199  22.679  21.645  10.862  0.2577 -0.3492 -0.0812
40336W        W41200  18.498  21.296   8.377 -0.0900 -0.3114  0.3325
40337W        W41201  26.425   3.927  17.081  0.1008 -0.0769  0.0980
40338W        W41202  12.506  25.617  12.533  0.0639  0.0638 -0.0281
40339W        W41203  10.843  18.150  22.076  0.1293 -0.0922 -0.0828
40340W        W41204  13.861  11.823  12.287  0.2966 -0.0680 -0.0162
40341W        W41205  25.731   3.188  14.752  0.3035 -0.0584 -0.0399
40342W        W41206  12.181  27.537  26.072  0.1879  0.1158 -0.2096
40343W        W41207   8.804  20.898  14.540 -0.0962 -0.0090 -0.0776
40344W        W41208  26.682   6.811  15.391  0.1596  0.2200 -0.3608
40345W        W41209  11.251   3.777  20.793 -0.3390 -0.1015  0.2309
40346W        W41210  11.747  28.857   9.075  0.1259  0.1500 -0.1210
40347W        W41211  26.235   6.321  16.732 -0.2957  0.2532  0.3924
40348W        W41212  19.319  27.649   2.785 -0.1743 -0.1088 -0.0812
40349W        W41213   5.781  12.291  23.889 -0.1284 -0.0077  0.1359
40350W        W41214  10.156   6.934  16.493  0.3995 -0.2598  0.1283
40351W        W41215   4.230   6.313   6.008  0.2239 -0.2486 -0.0721
40352W        W41216   5.662  16.290   1.785  0.4584  0.4083 -0.0652
40353W        W41217   6.423  18.028  27.684 -0.1411 -0.0938 -0.0041
40354W        W41218  10.662  17.449  13.633 -0.0520  0.1876 -0.0226
40355W        W41219  15.311  17.706   0.122  0.0939 -0.3904  0.1446
40356W        W41220  10.925  17.553   4.945 -0.1742  0.1825 -0.1676
40357W        W41221  12.226  21.947   8.516  0.2044  0.0312 -0.2188
40358W        W41222  16.707  12.513  22.058 -0.0145 -0.0683 -0.3575
40359W        W41223   8.634  14.760  20.307 -0.0523 -0.0861 -0.2467
40360W        W41224  23.509   3.568   3.448  0.0638 -0.2453  0.0158
40361W        W41225  24.002  13.247  21.757  0.0090 -0.1029  0.2039
40362W        W41226  20.372  28.703  28.173 -0.1346 -0.1595 -0.0578
40363W        W41227   1.640  13.146   0.357  0.1907  0.2626 -0.1241
40364W        W41228  15.541  17.405   4.239 -0.3541  0.1160 -0.0998
40365W        W41229  19.838  21.714  22.327 -0.0833 -0.1973  0.0089
40366W        W41230  28.639  17.649   3.806 -0.0866 -0.1756  0.0396
40367W        W41231   6.738   3.360  26.443 -0.2367  0.1427 -0.2634
40368W        W41232  24.117  23.416  17.576  0.0741 -0.0758 -0.1037
40369W        W41233   2.888   4.274   0.072  0.0629  0.0271 -0.1776
40370W        W41234   2.452  10.804  20.186  0.0125  0.0119 -0.2878
40371W        W41235  16.723  26.117  18.160 -0.0363  0.1148  0.0801
40372W        W41236  25.671  12.031  23.016 -0.0972  0.3417  0.0575
40373W        W41237  19.679   3.292  20.971  0.0593 -0.0122  0.0662
40374W        W41238  27.962   2.563  19.957 -0.0457 -0.2607  0.0255
40375W        W41239   1.623  10.315  14.158  0.0973 -0.0599 -0.1040
40376W        W41240  23.740  15.629   9.823 -0.0096 -0.1906 -0.1679
40377W        W41241   3.884   9.144  18.089 -0.1194  0.3648  0.0592
40378W        W41242  10.190  28.173  12.007 -0.1771 -0.1491 -0.0696
40379W        W41243  21.718  14.191   2.087 -0.0432 -0.1369  0.2296
40380W        W41244  20.958   8.175   1.313  0.2056 -0.4158 -0.2399
40381W        W41245  28.365  24.716   9.470 -0.2060 -0.1698 -0.0204
40382W        W41246  22.014   6.231  27.780  0.0930 -0.0499 -0.1478
40383W        W41247  20.210  13.011  27.990  0.0225  0.1852 -0.2170
40384W        W41248  25.822  22.350  14.168  0.1568 -0.0204  0.1403
40385W        W41249  11.625  17.074  20.847  0.0807  0.0144 -0.0061
40386W        W41250  25.408  14.623  23.202  0.2484  0.0536 -0.2082
40387W        W41251  12.735   7.412   9.820 -0.0223 -0.3171  0.1672
40388W        W41252  14.986  18.701  22.356 -0.1257 -0.0109 -0.1437
40389W        W41253  25.695  17.242  28.901  0.3451 -0.0237 -0.3175
40390W        W41254  26.054  28.187  21.370  0.0174 -0.1266 -0.2864
40391W        W41255  12.512  13.946   2.675  0.1090  0.0394  0.3984
40392W        W41256   5.102  28.324   3.754  0.0225 -0.0840  0.0071
40393W        W41257  12.649  19.116   2.739 -0.3089  0.0725 -0.0062
40394W        W41258  21.879  19.891   9.000 -0.0371 -0.0829 -0.1568
40395W        W41259  27.666   2.021  11.495 -0.0298  0.0302 -0.1324
40396W        W41260   6.678   9.858  26.053  0.1530  0.0491  0.0288
40397W        W41261  28.241  24.634   2.527 -0.2808 -0.1903 -0.1063
40398W        W41262  16.283  22.922   0.217 -0.1917  0.1566 -0.2632
40399W        W41263   5.552  20.450  20.110  0.2966 -0.3670 -0.4161
40400W        W41264   5.262  23.863   3.855 -0.1683  0.2305 -0.1830
40401W        W41265  16.616   5.046  18.913  0.1276 -0.0206 -0.0832
40402W        W41266  19.314  10.511   2.449 -0.1687  0.4490  0.1070
40403W        W41267  16.169  11.704   8.037  0.0021 -0.1089  0.0124
40404W        W41268  13.333   6.625  23.985  0.0379  0.0262 -0.1271
40405W        W41269  18.790   0.126  20.332  0.1909  0.3282 -0.0528
40406W        W41270   5.030   6.829  17.401  0.1288 -0.0182 -0.1995
40407W        W41271   1.118   7.057  24.396  0.0301 -0.3115  0.1635
40408W        W41272  23.077  19.994  21.465  0.0557  0.1082  0.0887
40409W        W41273   4.710  17.408  27.605 -0.2274 -0.0739 -0.0808
40410W        W41274   3.549  20.791   7.792 -0.2795  0.0482  0.0889
40411W        W41275  14.256   3.913  21.232  0.1427 -0.1576 -0.0037
40412W        W41276  19.839   5.536   7.455 -0.1265 -0.0452 -0.2759
40413W        W41277  21.912  20.085   8.055 -0.2334 -0.0804  0.0270
40414W        W41278  16.166  11.736   2.414 -0.0158 -0.1603 -0.0014
40415W        W41279  17.591  10.706  25.981  0.1448 -0.1341  0.0808
40416W        W41280   7.183  14.565  19.139  0.2508  0.1746 -0.2480
40417W        W41281  14.390  18.509  16.541 -0.2996  0.2606  0.2873
40418W        W41282   0.446  18.696  20.645  0.0080 -0.0243 -0.3378
40419W        W41283  21.753  10.042   2.958  0.0994 -0.2068 -0.3651
40420W        W41284  11.971   7.461  28.946 -0.0130  0.0350  0.0916
40421W        W41285   8.873   6.822  25.542 -0.0870  0.5577  0.0180
40422W        W41286  18.889   3.587   4.466  0.1376 -0.0713 -0.2619
40423W        W41287  10.896  17.517  17.478  0.1106 -0.0018 -0.0193
40424W        W41288  14.863  28.742  23.226  0.1367 -0.1966 -0.2760
40425W        W41289  28.728  24.656  17.181 -0.0386 -0.3770  0.2102
40426W        W41290   9.828  23.361  13.829  0.0364 -0.1808  0.0480
40427W        W41291  17.510   4.973  19.880 -0.0205  0.0538 -0.3676
40428W        W41292  11.427   8.001   6.918 -0.0958 -0.0770  0.3820
40429W        W41293  13.211  10.470  22.916  0.1481 -0.0395  0.0361
40430W        W41294  27.121   5.870  24.125  0.1650  0.0816  0.2483
40431W        W41295  14.488  11.286  27.364  0.0108 -0.2350  0.1554
40432W        W41296   7.186  11.979  25.785 -0.1536  0.1719 -0.0320
40433W        W41297  28.613  18.329  22.984  0.2144  0.1402  0.0738
40434W        W41298   0.001  10.486  18.575 -0.0209  0.0406  0.0832
40435W        W41299   0.601  10.990  16.020  0.1128 -0.1348 -0.0682
40436W        W41300  16.531  19.034   5.267 -0.2199 -0.1396 -0.3392
40437W        W41301  24.124  20.992  14.064  0.1899 -0.0260  0.2137
40438W        W41302  23.996  15.428  22.979  0.3100 -0.1283 -0.1655
40439W        W41303  11.274   2.455  20.576  0.1146  0.1794 -0.2373
40440W        W41304  20.239   6.308  11.159  0.1520 -0.1274  0.1368
40441W        W41305   3.718   8.541  21.065  0.0750  0.1629 -0.5346
40442W        W41306   8.322  11.475  21.589 -0.3630  0.0054  0.2822
40443W        W41307  11.613  23.282  22.111  0.0957  0.1682  0.0143
40444W        W41308  22.821   3.428   3.026 -0.0141 -0.1880 -0.1272
40445W        W41309  21.540   8.844   9.314 -0.1418 -0.1701  0.0754
40446W        W41310  16.804  25.689  16.529  0.2909 -0.1780 -0.1320
40447W        W41311  14.674   9.506  21.198  0.1377 -0.0483  0.2566
40448W        W41312   8.188  26.403  26.762  0.2308  0.0535  0.0804
40449W        W41313  10.531  16.633  22.875  0.0720  0.2683 -0.2054
40450W        W41314   4.174  14.358  27.493 -0.2550 -0.4487  0.2203
40451W        W41315  14.810   0.779   5.458  0.0593  0.3565  0.2345
40452W        W41316  21.589  15.889   2.191 -0.2654  0.1714 -0.0952
40453W        W41317  23.305  14.444   7.480 -0.1076  0.3905  0.1066
40454W        W41318   2.552  11.942  20.739  0.1921  0.0983 -0.1600
40455W        W41319  19.473  26.950   8.958  0.2504 -0.1184 -0.2074
40456W        W41320  17.814  19.159  10.400  0.1925 -0.1801 -0.2326
40457W        W41321  17.888   4.699  28.925 -0.1655 -0.1659  0.0075
40458W        W41322  20.136  23.571   1.458 -0.1333 -0.1956 -0.0762
40459W        W41323  28.664  18.626  10.395  0.1068 -0.1335 -0.0209
40460W        W41324  11.769  27.734   6.880  0.3196  0.2718  0.1426
40461W        W41325  18.192  22.160   4.091  0.0522 -0.0654  0.0251
40462W        W41326   8.603  15.096  22.461  0.4792 -0.2263  0.0822
40463W        W41327  18.453   7.067   0.152 -0.2971 -0.0603 -0.1794
40464W        W41328  18.468   4.159  18.472  0.1957  0.0838  0.0461
40465W        W41329  26.496   7.386  19.829  0.1759  0.0016 -0.0663
40466W        W41330   4.203   7.954  27.164 -0.2935 -0.0733 -0.0924
40467W        W41331   1.644   3.697  25.144  0.1038 -0.0384 -0.2424
40468W        W41332  14.756   3.496   8.993  0.1433 -0.2612 -0.0285
40469W        W41333  23.126  23.404  18.059  0.1266  0.0753  0.1211
40470W        W41334  24.716   2.918  24.394  0.0451  0.0968  0.3284
40471W        W41335  13.624  12.134  20.963  0.0195 -0.2181 -0.4007
40472W        W41336  18.476   4.562  18.192 -0.1588  0.1486 -0.3278
40473W        W41337  25.256  23.515  22.385  0.1647 -0.3753  0.1877
40474W        W41338  25.246  11.905  14.160 -0.0817 -0.1711  0.1773
40475W        W41339  12.930   4.068   2.423  0.1940  0.2544 -0.0306
40476W        W41340   7.529  10.972   8.596  0.0813  0.1807 -0.1331
40477W        W41341  23.177   4.980   0.165  0.0662 -0.3833  0.3041
40478W        W41342  23.121  20.242  15.963 -0.1901 -0.0384  0.0590
40479W        W41343  16.180   8.967  24.682 -0.0599  0.0931  0.1570
40480W        W41344  26.880   3.004  28.292  0.1179  0.0695 -0.2107
40481W        W41345   0.025  10.159  15.007 -0.0110 -0.0170 -0.0720
40482W        W41346  10.664   9.001   4.734 -0.4022 -0.1557 -0.1906
40483W        W41347  19.759  18.714  27.132  0.1076  0.4744  0.0414
40484W        W41348   3.510  27.739  23.366 -0.1654  0.2264 -0.0606
40485W        W41349   5.016  21.923  17.972  0.0513 -0.2989  0.0792
40486W        W41350  15.288  20.296  28.921 -0.2795 -0.1037  0.0661
40487W        W41351  17.081  11.763   1.912 -0.0326 -0.1565 -0.3083
40488W        W41352  13.784  21.957  21.141 -0.1570  0.0910 -0.0588
40489W        W41353  16.118   3.086  27.934 -0.1281  0.0746  0.1044
40490W        W41354  17.325   6.408  12.729  0.1222  0.2744  0.3180
40491W        W41355  18.017  24.756  25.662  0.0422 -0.0296  0.0266
40492W        W41356   9.359  11.590  25.048 -0.1325 -0.1916 -0.1356
40493W        W41357  24.198   4.769  15.977 -0.1198 -0.3578  0.2645
40494W        W41358  18.403  27.608  15.919 -0.1306  0.0704 -0.0413
40495W        W41359   5.037  11.885   0.426  0.0731 -0.1202 -0.0525
40496W        W41360  10.563   7.691   6.595  0.1620  0.3027 -0.0810
40497W        W41361  23.062   3.428  16.331  0.1184 -0.1957  0.1930
40498W        W41362  21.202   1.406  24.749  0.0612  0.0386 -0.2036
40499W        W41363  21.263  25.210  21.833  0.0105  0.1157 -0.0345
40500W        W41364  17.355   2.116  14.728 -0.1466 -0.2635 -0.0801
40501W        W41365  23.793  27.674  19.052  0.4494  0.1407 -0.4006
40502W        W41366  15.707  11.723   1.788 -0.4295 -0.1075 -0.2434
40503W        W41367  23.625   3.164   4.799 -0.1791 -0.1034  0.0544
40504W        W41368  23.086   8.389  21.766 -0.0181  0.0509  0.4405
40505W        W41369  17.789  23.071  23.592  0.1659  0.0847 -0.2357
40506W        W41370  20.290   4.692  24.888 -0.0495  0.3094  0.1371
40507W        W41371  23.569   1.328   8.274  0.3484 -0.2071 -0.0320
40508W        W41372  20.154   6.842  28.245  0.0957 -0.1540 -0.2044
40509W        W41373  12.947   6.349   6.589  0.3443 -0.2259  0.2482
40510W        W41374  12.159  22.522  22.244 -0.1384 -0.0238  0.0142
40511W        W41375  18.285  25.161   7.651 -0.0948 -0.1139 -0.1071
40512W        W41376   0.880  22.439   7.362 -0.2319  0.0177  0.0754
40513W        W41377  22.013   8.808   4.533  0.0803  0.2936  0.1124
40514W        W41378  12.133  18.404  28.550 -0.3690 -0.1602  0.0260
40515W        W41379  13.378  15.620   5.364  0.0221  0.1133  0.0568
40516W        W41380   4.209  11.790   3.703  0.0566  0.0348  0.1706
40517W        W41381  18.455  28.100  11.763  0.3073  0.1084 -0.1229
40518W        W41382  16.374  19.701  11.112  0.0832 -0.1367 -0.0538
40519W        W41383   4.674  23.219   3.641 -0.0277  0.3367  0.3767
40520W        W41384   7.762  21.623  14.946  0.0357 -0.0706  0.0793
40521W        W41385  22.005   4.536   0.719 -0.0132  0.0357 -0.1999
40522W        W41386  14.040  26.882  11.254  0.0368  0.0025 -0.3332
40523W        W41387   9.184  22.671  23.280  0.2914 -0.0761  0.0073
40524W        W41388  17.647   0.861  18.510 -0.1202  0.1445 -0.2023
40525W        W41389  17.893  10.310   1.168 -0.4961 -0.0899 -0.2837
40526W        W41390  10.207  18.456  24.689 -0.1125  0.0972 -0.3512
40527W        W41391  16.817   8.663  14.898 -0.0498  0.1612 -0.3540
40528W        W41392  14.553   4.876  27.893 -0.1629  0.1488  0.0665
40529W        W41393  10.052  15.915   0.287  0.0957 -0.0815  0.3595
40530W        W41394  13.008  21.363  17.023  0.1478  0.1996 -0.2317
40531W        W41395   5.457  14.460  15.763 -0.1856 -0.0761  0.1300
40532W        W41396  18.117  28.689  11.150 -0.2606 -0.0151  0.0728
40533W        W41397  18.915   3.626  11.614  0.1606 -0.0208  0.1960
40534W        W41398  21.349  27.311   9.903 -0.0543 -0.0141 -0.0149
40535W        W41399  24.800  14.933   4.071 -0.0008  0.0049  0.0348
40536W        W41400  24.528   3.065  10.461  0.0785 -0.0364  0.1884
40537W        W41401  13.578  21.423  26.748  0.0674  0.1642  0.1612
40538W        W41402   4.006  24.963  23.329  0.0546  0.0429  0.1629
40539W        W41403  17.030  18.490  25.848 -0.0450  0.2768 -0.1491
40540W        W41404   8.349  10.623   6.909 -0.1464  0.0034  0.0234
40541W        W41405  20.074   6.230  28.910  0.2117 -0.0394  0.2775
40542W        W41406  19.013  28.089   2.682 -0.1481  0.4074  0.2680
40543W        W41407  25.815  12.203   7.311 -0.0830  0.0811 -0.0963
40544W        W41408  23.175  16.898  26.265 -0.2216 -0.2706 -0.1549
40545W        W41409  23.835   1.289  14.488 -0.0164  0.1824  0.0919
40546W        W41410  19.116  17.868  17.246  0.0327  0.0878 -0.1252
40547W        W41411   7.923  12.998  21.947  0.0444  0.0969  0.1563
40548W        W41412  15.222  17.034  11.667 -0.1704  0.0427  0.2985
40549W        W41413  18.519  14.213  20.559 -0.0921  0.3679 -0.4443
40550W        W41414   4.751  13.358  18.392 -0.0317 -0.2589 -0.1993
40551W        W41415  29.089  11.649  25.673  0.1374 -0.0745  0.0853
40552W        W41416   8.996   5.245  14.289  0.0313 -0.3925  0.0158
40553W        W41417  22.375  12.758  27.344 -0.1129  0.1940  0.2925
40554W        W41418  13.847   4.537  10.314 -0.2481  0.1711 -0.2571
40555W        W41419  17.293  17.861  23.776  0.0184 -0.0573 -0.3439
40556W        W41420  21.023  12.667   9.964 -0.1193  0.0009  0.0809
40557W        W41421  16.156   6.785  21.570  0.0769 -0.0118  0.0950
40558W        W41422  15.008  10.116  28.757 -0.0402  0.0254  0.0501
40559W        W41423  23.965  28.581  14.296  0.2161  0.0911  0.0842
40560W        W41424  17.177  16.637   8.218 -0.2176  0.0554 -0.0420
40561W        W41425   5.999  26.216  24.018 -0.0719 -0.0323  0.3107
40562W        W41426  24.179   3.957  14.254 -0.0978 -0.2932  0.2691
40563W        W41427  26.013   4.222  27.151  0.2089 -0.0182  0.2055
40564W        W41428  19.543  16.078  26.565  0.1210 -0.0156  0.4067
40565W        W41429  24.728   3.135  20.587 -0.2231  0.0841  0.0119
40566W        W41430  14.443  15.178  18.001 -0.2604  0.1823  0.0965
40567W        W41431   7.476   1.638  27.862 -0.1770  0.3148  0.0246
40568W        W41432   7.501  16.082   0.658  0.1467 -0.2356  0.2930
40569W        W41433  19.913  20.810  17.653  0.0218 -0.3041  0.0570
40570W        W41434   5.927   3.389  22.801 -0.0922  0.1422  0.1158
40571W        W41435  15.287  27.104  17.917 -0.0665 -0.2091  0.0508
40572W        W41436  13.961  17.911  18.764  0.1043  0.2262  0.0408
40573W        W41437  13.200  17.966   5.726 -0.2926  0.2553 -0.2919
40574W        W41438  29.070  20.267  23.580 -0.0811  0.1737  0.1371
40575W        W41439  21.529  11.723  24.222  0.0622 -0.0728  0.0899
40576W        W41440  15.590  21.019   3.454  0.2250  0.1226 -0.0423
40577W        W41441  27.048  12.653  13.327  0.0740  0.1306  0.3422
40578W        W41442   2.646  28.799  24.277  0.0077  0.3633 -0.0871
40579W        W41443   5.076   1.445  13.075 -0.1366 -0.0106 -0.2833
40580W        W41444   5.555   5.855  25.028  0.1088 -0.0247 -0.0458
40581W        W41445  25.894   0.688   1.108 -0.0912  0.0263  0.1299
40582W        W41446  28.122   4.255  22.393 -0.0056  0.1078 -0.0775
40583W        W41447  12.956   6.384  19.314 -0.0175  0.0928  0.3008
40584W        W41448   9.216   5.926  24.269 -0.1008  0.2200  0.0374
40585W        W41449   7.841  23.461  15.202  0.2162 -0.0781 -0.3222
40586W        W41450  25.015  25.979   6.338  0.0066 -0.0527  0.0454
40587W        W41451   4.078  11.234  15.120  0.0859 -0.0575 -0.1267
40588W        W41452  20.009  23.953  26.292 -0.1868 -0.0504  0.1780
40589W        W41453  21.569  24.256   9.207  0.1282 -0.0654 -0.1740
40590W        W41454   7.277   9.995  19.311 -0.1370  0.1248  0.1906
40591W        W41455  16.141   4.332   1.670  0.1813  0.1552 -0.0783
40592W        W41456  16.718  20.867  28.963  0.2023 -0.1438  0.6317
40593W        W41457  14.203  15.326   9.556  0.1262  0.0932  0.0372
40594W        W41458  20.693  18.535  18.866 -0.0895  0.0810 -0.0712
40595W        W41459  29.110   2.546  29.139 -0.0572 -0.4100  0.3205
40596W        W41460  13.943  21.708  26.942 -0.0131  0.0463  0.1999
40597W        W41461  14.058  21.823  28.605 -0.2403  0.0092  0.0008
40598W        W41462  15.574  19.128  27.067  0.1716  0.0374 -0.3122
40599W        W41463  16.507  17.904  27.034  0.1448 -0.0499 -0.2465
40600W        W41464   2.339  17.673  26.120 -0.0891 -0.0754 -0.2042
40601W        W41465  29.058  15.907   1.113  0.0196 -0.0860 -0.0197
40602W        W41466  18.849  22.755  20.714 -0.3103 -0.0349 -0.2707
40603W        W41467  23.305  10.893  22.693  0.0894 -0.1138  0.2235
40604W        W41468  15.306   6.391  19.679  0.0075 -0.2300 -0.0959
40605W        W41469  18.345  28.609   8.130 -0.0067 -0.1809 -0.2702
40606W        W41470   8.729   8.949  17.460 -0.1172 -0.0728 -0.1766
40607W        W41471   2.858  12.393  27.511  0.1216  0.5152 -0.1435
40608W        W41472  21.972  15.193   4.464 -0.0147  0.2396 -0.0054
40609W        W41473   6.760   6.390   6.331 -0.1106  0.1715  0.0384
40610W        W41474   3.304   5.412  23.426  0.0221  0.0880  0.5358
40611W        W41475  10.961  28.132  25.888 -0.0797  0.0848 -0.1694
40612W        W41476   8.714   9.474  19.801 -0.0519  0.0102 -0.0535
40613W        W41477  21.931   8.615   9.646 -0.0230  0.0125  0.0373
40614W        W41478   3.684  10.696  16.779  0.1615  0.3219  0.0853
40615W        W41479   0.096   7.693  26.827  0.1265 -0.2252  0.2896
40616W        W41480  13.331  22.078   4.776 -0.1652  0.2464  0.1150
40617W        W41481  22.235  12.206  17.850  0.1078  0.0410  0.1832
40618W        W41482  13.949  10.840  25.935  0.0462 -0.5039 -0.2641
40619W        W41483  20.304  20.964  11.973  0.2357  0.2125  0.0087
40620W        W41484  24.003  24.559   4.841  0.1025 -0.0888  0.0870
40621W        W41485  11.973  22.126   8.085  0.1760 -0.1011 -0.0724
40622W        W41486  17.007   8.700   4.626 -0.1314  0.2061 -0.0610
40623W        W41487   5.047  10.454  21.325 -0.1126 -0.1395  0.0089
40624W        W41488   6.471  26.482  24.376  0.3091 -0.0762 -0.2249
40625W        W41489  11.624  13.047   2.410 -0.0614  0.1594 -0.2612
40626W        W41490   9.932  22.560  12.637 -0.0643 -0.0611 -0.1155
40627W        W41491  11.549  18.741  22.179  0.0897 -0.2422  0.1460
40628W        W41492   2.748  26.785  23.352 -0.0026  0.0316 -0.1952
40629W        W41493   4.396   4.420  17.202  0.1369 -0.1298  0.1702
40630W        W41494  17.690  19.732  13.865  0.0185  0.1160 -0.2050
40631W        W41495  24.144  24.969   8.432  0.4462  0.1055  0.0733
40632W        W41496   5.092   7.164  26.813 -0.2437 -0.1780  0.2315
40633W        W41497  13.487  15.843  26.141  0.1100 -0.1318  0.4443
40634W        W41498  15.809  26.320  15.308  0.0989  0.0341 -0.2005
40635W        W41499   6.583  13.445  22.330  0.3609  0.0837 -0.1122
40636W        W41500   1.966  28.481  15.428 -0.2337  0.1748 -0.0342
40637W        W41501  25.494  12.214   4.776 -0.4024  0.1599 -0.1477
40638W        W41502   3.697  19.436  15.152 -0.0015  0.1368 -0.0312
40639W        W41503  13.529   9.402  24.823  0.0660 -0.1613  0.0752
40640W        W41504  12.546   7.486  20.568  0.2696 -0.0450  0.0774
40641W        W41505  22.753   3.647  13.238 -0.0739 -0.3539  0.1116
40642W        W41506  24.152   5.324  21.839 -0.1002  0.0371  0.0809
40643W        W41507  20.264  12.210   1.293  0.1225 -0.1644  0.0019
40644W        W41508  22.144   2.771  20.675  0.2893 -0.1344  0.2112
40645W        W41509  10.100  14.888  12.219 -0.0204 -0.0284 -0.3586
40646W        W41510  15.877  17.238  28.034  0.1176 -0.1516 -0.1604
40647W        W41511  13.807  19.338  21.746 -0.0186 -0.1044 -0.2977
40648W        W41512  17.598   8.495   0.826 -0.0781 -0.0660  0.0771
40649W        W41513  12.619  25.046  23.863  0.1853  0.0791  0.0089
40650W        W41514   9.002   7.416  23.281 -0.0160  0.0470  0.0927
40651W        W41515   7.570  10.727  25.054  0.0487  0.1542  0.2343
40652W        W41516  28.742   0.115   2.766 -0.1535  0.1717  0.0198
40653W        W41517   7.740   2.574  28.211 -0.0063  0.1972 -0.1600
40654W        W41518  24.071  20.901   2.390  0.2250 -0.2771 -0.0809
40655W        W41519  18.602  27.817  10.052 -0.0239 -0.1369 -0.0110
40656W        W41520   6.525  28.384   7.247  0.1118 -0.1581  0.4015
40657W        W41521  22.975  25.630  23.371 -0.2166  0.5018 -0.4799
40658W        W41522   2.564  16.356  15.690 -0.1256 -0.2278  0.0189
40659W        W41523  17.973  12.123  21.169 -0.1068 -0.1319 -0.3467
40660W        W41524  16.037  21.588   6.982 -0.0701  0.0319 -0.1707
40661W        W41525  26.194   8.316   8.294 -0.2290 -0.0464 -0.2987
40662W        W41526  22.423  11.864  22.197  0.1635 -0.0592 -0.2696
40663W        W41527  27.802   9.101  14.588  0.2187  0.0824 -0.3359
40664W        W41528   6.585   5.283  24.664 -0.2409  0.0231 -0.0998
40665W        W41529   7.755  11.760  14.397 -0.0103 -0.0408  0.1080
40666W        W41530   7.703   2.107  10.016 -0.5674 -0.2249 -0.2667
40667W        W41531   8.417   8.734  24.737 -0.0041  0.0643 -0.2855
40668W        W41532  25.187   3.140  13.572  0.0645 -0.2897  0.4780
40669W        W41533  27.187   9.597  16.147 -0.1157  0.1156  0.0749
40670W        W41534   2.628   6.615  25.002 -0.0126  0.3464  0.3209
40671W        W41535   2.432   3.827  24.778 -0.0261  0.2551  0.0571
40672W        W41536  21.328  15.662   5.760 -0.2693 -0.0573  0.3229
40673W        W41537  28.515   6.353  25.080 -0.0424  0.3834  0.1891
40674W        W41538  19.979   6.237  17.681 -0.0473 -0.0167  0.1034
40675W        W41539   3.948  29.017  25.559  0.1291  0.1959  0.2877
40676W        W41540  28.604   5.145  13.310  0.2018 -0.0649 -0.2504
40677W        W41541  11.570  14.878  14.887 -0.3415  0.0310  0.1095
40678W        W41542  17.016  22.178  27.070 -0.2484  0.1352  0.1639
40679W        W41543  25.155   7.815  15.336  0.3316  0.1264  0.1042
40680W        W41544   8.472  26.175  13.107 -0.2757  0.0498 -0.0525
40681W        W41545  18.421   0.863  26.320  0.2320 -0.1156  0.0324
40682W        W41546  16.716  22.153  28.843  0.0104  0.0248 -0.0561
40683W        W41547   7.382  25.803  26.708 -0.0937 -0.2540 -0.1743
40684W        W41548  14.076  11.172   6.303  0.1658  0.1001  0.1611
40685W        W41549  13.478  27.790  14.925 -0.0059 -0.2315 -0.2158
40686W        W41550   9.458  12.483   5.263  0.0065 -0.1908 -0.1829
40687W        W41551   0.847  14.018   6.343  0.1128  0.0041  0.0019
40688W        W41552  24.386   7.529   7.944 -0.1698  0.0390  0.0556
40689W        W41553  19.273  22.179   0.062  0.1829  0.0483  0.0574
40690W        W41554   4.301   6.382   0.062  0.0988  0.2841  0.1329
40691W        W41555  26.074  14.835  19.787 -0.0649 -0.1619  0.0301
40692W        W41556  24.475  28.502   2.100 -0.3771 -0.0119 -0.2004
40693W        W41557  15.076  27.302   3.429  0.0087 -0.1486 -0.3343
40694W        W41558  22.942  11.868  11.021 -0.0399  0.1268 -0.0390
40695W        W41559   8.455  12.209  26.718 -0.0408 -0.0302  0.1548
40696W        W41560  14.828  13.937  10.991 -0.1592  0.1052  0.1739
40697W        W41561   4.950  17.664  26.635 -0.2711  0.0341  0.0301
40698W        W41562  23.224   1.645   1.641  0.1699  0.1409 -0.0593
40699W        W41563   5.076   4.393   1.837 -0.0181 -0.2873  0.0933
40700W        W41564  11.724  17.187   7.950  0.0105  0.0850 -0.0025
40701W        W41565  23.971  26.165  26.573  0.0138 -0.1533  0.2159
40702W        W41566  12.402  25.399  21.126  0.0272 -0.2633  0.0901
40703W        W41567   2.874   1.494  24.136 -0.3472 -0.0293  0.1114
40704W        W41568  16.599  29.069  24.857  0.1217 -0.1419  0.0524
40705W        W41569  19.273   4.430   0.339 -0.0440 -0.0094  0.0402
40706W        W41570   9.623  18.816  10.751  0.1233 -0.2281 -0.0015
40707W        W41571  11.733  23.377  14.933 -0.3296  0.1635 -0.0706
40708W        W41572   8.754  18.531  10.629  0.0846  0.0738  0.2560
40709W        W41573  25.024  24.243   6.577 -0.2141  0.1997  0.3885
40710W        W41574  28.194  17.405  11.519 -0.0052 -0.1893 -0.0782
40711W        W41575  26.901  16.636   1.321  0.3613  0.0966  0.3286
40712W        W41576   7.396  21.355   2.398 -0.3726 -0.1487 -0.1633
40713W        W41577  16.801   4.005  25.101 -0.2493  0.0893 -0.3043
40714W        W41578   7.039  14.337   8.733 -0.0133 -0.2417  0.2088
40715W        W41579  26.420  21.276  25.621 -0.2188  0.0679 -0.4536
40716W        W41580  17.415  16.950   9.295 -0.2186 -0.3316 -0.0820
40717W        W41581  16.494   7.670  24.729 -0.1726 -0.0416 -0.0333
40718W        W41582  16.203  23.648   7.832 -0.0016  0.0156  0.1841
40719W        W41583  14.140  25.874  10.319 -0.0794 -0.0133 -0.0283
40720W        W41584  10.760  13.549   9.708  0.1339  0.0867 -0.2213
40721W        W41585  10.196   7.327  23.888 -0.2500  0.1224 -0.0651
40722W        W41586  19.931  20.215  21.553 -0.3010  0.1925 -0.0515
40723W        W41587  18.631  10.634   7.056 -0.5394 -0.0454  0.0107
40724W        W41588   4.815  25.720   4.147  0.0314  0.0724 -0.3882
40725W        W41589  23.981  17.978   4.400  0.1278 -0.0660  0.0608
40726W        W41590   7.415  16.193  17.408  0.1692  0.1321 -0.0615
40727W        W41591  25.386  10.330   5.460 -0.0546  0.0948  0.0944
40728W        W41592  13.734  22.854  22.164  0.2479 -0.0007  0.0608
40729W        W41593  19.281   0.221  15.734 -0.1086 -0.0007  0.2650
40730W        W41594   3.349  21.643  21.876 -0.0839 -0.0054  0.1426
40731W        W41595  15.279  26.228  22.482  0.2335 -0.1884 -0.0741
40732W        W41596  20.323  14.583  17.637 -0.2062  0.0668  0.1666
40733W        W41597   9.522  21.355  25.567  0.0351  0.1014  0.0219
40734W        W41598  20.380  14.776  10.953  0.2349  0.0670  0.1437
40735W        W41599  21.453  16.551  19.533 -0.0998 -0.1135 -0.2784
40736W        W41600  24.600   4.862  26.223 -0.1629 -0.0240 -0.1937
40737W        W41601  25.995  13.696  27.676  0.1279  0.5227 -0.1012
40738W        W41602   7.051  13.120   2.376 -0.1803 -0.0161  0.1647
40739W        W41603  10.682   4.489  28.013 -0.2183  0.2475  0.3620
40740W        W41604   9.147   5.842  18.659  0.4551 -0.0597  0.1416
40741W        W41605  21.153  15.840  28.121  0.0470 -0.0399 -0.2587
40742W        W41606  23.453   9.656  19.284 -0.3505  0.0875 -0.0667
40743W        W41607  20.762   2.830  12.682 -0.2676 -0.1272  0.2313
40744W        W41608  19.742  12.336  12.822  0.1263 -0.0336  0.2369
40745W        W41609  16.279  11.099   2.237 -0.0967 -0.1846 -0.2249
40746W        W41610  21.613   5.075  21.598  0.0041 -0.2045 -0.3362
40747W        W41611  16.250   9.089  24.198 -0.1372 -0.1134 -0.0987
40748W        W41612   0.203  18.469  15.058  0.1814 -0.0944 -0.0330
40749W        W41613   6.292  27.552   5.821  0.2355 -0.1659  0.3018
40750W        W41614  24.951  11.390  14.528 -0.0362 -0.0501  0.0161
40751W        W41615  22.492   9.738   7.625 -0.2682  0.1834  0.1276
40752W        W41616   5.658  21.019   5.546  0.0307 -0.1451 -0.1156
40753W        W41617  14.329  25.292  27.983  0.2113  0.0274  0.2939
40754W        W41618  16.707  22.469  18.862  0.0230  0.2719  0.0513
40755W        W41619   0.442  24.482  28.766  0.3387  0.2727 -0.1759
40756W        W41620  20.386  19.972  20.045 -0.0501 -0.4039 -0.2061
40757W        W41621  11.021  13.387  25.608 -0.0680 -0.1454 -0.0423
40758W        W41622  16.457  14.900  25.460  0.0002  0.1320 -0.0977
40759W        W41623  21.397   2.703  11.079 -0.0169 -0.0722  0.0901
40760W        W41624  20.108  21.768   6.467  0.1623 -0.0177 -0.1403
40761W        W41625  19.456  20.101   6.569 -0.3161 -0.0089  0.0823
40762W        W41626   5.460   0.757  23.890 -0.0176  0.0438 -0.0897
40763W        W41627  16.162  16.461   2.385 -0.1749 -0.1274  0.0221
40764W        W41628  19.551  12.387   0.815  0.2117 -0.2379  0.0157
40765W        W41629  25.762  22.192  20.064 -0.0227  0.1304  0.0255
40766W        W41630   0.315  10.332   4.868  0.1128 -0.0322 -0.0147
40767W        W41631  25.231  12.102   6.128 -0.0832 -0.1113 -0.2386
40768W        W41632   0.506   2.606   0.445 -0.0670 -0.1569  0.2406
40769W        W41633  20.443  27.661  10.271  0.0721 -0.0079 -0.4518
40770W        W41634   3.703   7.647   7.522  0.0906  0.1227  0.1501
40771W        W41635   6.284  11.613   9.855  0.0260  0.0601  0.4394
40772W        W41636   1.553   8.057  20.403  0.1225 -0.2783 -0.0702
40773W        W41637   1.090  23.053   4.600 -0.0110  0.3143  0.0923
40774W        W41638  25.262  15.546  20.771 -0.1434 -0.1386 -0.0602
40775W        W41639  26.757  13.269   3.497  0.0105 -0.1066  0.0500
40776W        W41640  18.263   7.918   5.082 -0.4797  0.0002  0.1288
40777W        W41641  23.050  27.862   9.993 -0.0683  0.1730  0.3147
40778W        W41642  18.117   0.741  19.448 -0.3703 -0.1079  0.0275
40779W        W41643   1.422  27.528  21.164 -0.0152  0.1106 -0.1924
40780W        W41644   5.566   3.780   9.189 -0.2607  0.2540  0.2742
40781W        W41645  21.768   7.190  11.001 -0.0528  0.0172  0.0298
40782W        W41646  23.433   2.730   3.919 -0.0199 -0.0285  0.2012
40783W        W41647  10.051  27.708   1.402 -0.2620 -0.1778  0.0079
40784W        W41648   5.914  21.678  18.631  0.2325  0.0366  0.0053
40785W        W41649  17.842  20.588   7.416  0.0877  0.1263  0.1711
40786W        W41650  20.098  12.302  11.073 -0.3660 -0.4683 -0.0110
40787W        W41651  16.162   7.753   6.116  0.1189  0.1264 -0.1882
40788W        W41652  26.749   8.513  23.967 -0.2678  0.2316 -0.0282
40789W        W41653  15.120  23.291  18.727  0.1550  0.0063  0.0065
40790W        W41654  11.360  12.212  28.406  0.0989 -0.0663  0.1702
40791W        W41655   7.695  26.188  10.483  0.1147  0.3128 -0.0965
40792W        W41656  28.886  25.020   1.564  0.0358 -0.1327  0.1304
40793W        W41657  14.721   5.081   6.766 -0.3871 -0.1236 -0.0502
40794W        W41658  16.554  17.355  19.474 -0.0883  0.0539 -0.1385
40795W        W41659   7.949   7.360  28.565 -0.0886 -0.1615  0.0202
40796W        W41660   7.046  19.402   5.335 -0.1493  0.1620  0.0836
40797W        W41661  10.498  13.191  17.572 -0.0865  0.0534  0.0624
40798W        W41662  11.809  17.669  11.800  0.3687 -0.1585  0.0544
40799W        W41663   5.897   6.919  24.950  0.0902 -0.0305 -0.0198
40800W        W41664  11.102  20.725  24.888  0.2046  0.1050  0.2844
40801W        W41665  15.816  11.219   1.814 -0.3398  0.1499  0.0057
40802W        W41666  18.954  19.699   1.754 -0.2583  0.1223  0.0853
40803W        W41667  10.266   4.652  13.704 -0.0511  0.1763  0.0838
40804W        W41668  19.910   8.160   4.613 -0.2212 -0.1107 -0.0999
40805W        W41669   4.131  18.440  18.277 -0.0204  0.2866  0.0914
40806W        W41670   6.026  10.001  12.786  0.0159 -0.0859  0.2426
40807W        W41671  13.744  12.225  24.850  0.3359  0.1275 -0.0868
40808W        W41672  24.410  14.974  21.750 -0.1895  0.2798  0.1502
40809W        W41673   4.572  23.710   7.119  0.1756  0.2812  0.0384
40810W        W41674  16.568  18.785  27.619 -0.3654  0.1241  0.4165
40811W        W41675   1.770   7.302   4.077  0.1444 -0.1635  0.0289
40812W        W41676   9.786  27.904  26.224 -0.2389 -0.2799 -0.1902
40813W        W41677  24.289   5.609  13.380 -0.0763  0.0885 -0.3433
40814W        W41678   9.306  15.875  20.982  0.2742  0.2966 -0.0806
40815W        W41679  18.998  18.376  24.143  0.0959  0.1273  0.2975
40816W        W41680  28.089  12.006  21.231  0.1461  0.0775 -0.1957
40817W        W41681   3.700   2.420   3.890 -0.0356 -0.2941  0.3736
40818W        W41682  28.245  23.309   7.428  0.2066  0.0386  0.0775
40819W        W41683   3.030  20.861   7.722 -0.0896 -0.0689 -0.1901
40820W        W41684   8.852  20.115  22.983  0.0970  0.1529  0.2274
40821W        W41685   8.893   0.526  11.791  0.0047  0.2466 -0.1907
40822W        W41686  23.839  11.151  21.815  0.0032  0.2246 -0.1927
40823W        W41687  26.035   4.465  17.744  0.2129  0.0593  0.1605
40824W        W41688  25.076  27.487  26.616 -0.3436 -0.0572 -0.0082
40825W        W41689  23.531  12.980  10.384  0.0914 -0.0283 -0.3561
40826W        W41690  25.371  17.057   7.952  0.3994 -0.1233  0.3249
40827W        W41691   0.052  15.148  12.571 -0.1707  0.3192 -0.0529
40828W        W41692  22.255  17.096  17.090 -0.1720 -0.2320  0.0019
40829W        W41693  23.505  10.886  19.794  0.0782 -0.1849  0.1436
40830W        W41694   8.661  19.747   3.438 -0.2218  0.0458 -0.3761
40831W        W41695  13.892   5.392  11.650 -0.1129 -0.1248  0.0794
40832W        W41696  18.577   1.303   9.890 -0.1118  0.1014 -0.1403
40833W        W41697  12.706   1.443   9.883 -0.0721 -0.0717 -0.0442
40834W        W41698  15.929  21.464  29.142  0.0438 -0.0764  0.2093
40835W        W41699  12.791   4.055  22.818  0.1190  0.1295 -0.1716
40836W        W41700  12.206  23.737  16.388  0.0515  0.0895  0.0943
40837W        W41701  20.674  18.086  14.670  0.1858  0.0886 -0.0124
40838W        W41702  27.758  16.022  22.344  0.0114 -0.0770 -0.2712
40839W        W41703  13.218  17.316   6.835  0.0011 -0.2282  0.0667
40840W        W41704   7.998  26.525  27.164  0.0683  0.2333 -0.2826
40841W        W41705  25.380   2.051  17.747 -0.1834 -0.0811 -0.1376
40842W        W41706  15.731   9.175  11.728 -0.1093  0.0199 -0.2113
40843W        W41707  23.055  17.516   1.858 -0.0064  0.0615  0.0433
40844W        W41708  22.088  11.212   0.302  0.1707 -0.0460 -0.1280
40845W        W41709   1.548   6.396  13.253 -0.1066  0.1670 -0.3966
40846W        W41710   7.517  23.990  19.522 -0.4399 -0.1370 -0.0110
40847W        W41711  28.044  27.827  13.616 -0.2430  0.1262  0.0345
40848W        W41712  21.434  20.783   0.341  0.0006  0.1030  0.0203
40849W        W41713  19.216  19.284  17.693  0.2638  0.3482  0.1411
40850W        W41714  21.054   9.127  16.557  0.2848 -0.0656 -0.1854
40851W        W41715   6.407   7.186  13.718  0.1983  0.0872  0.0771
40852W        W41716   5.077  17.325   1.928 -0.0323 -0.0150 -0.2057
40853W        W41717  23.860  11.560  19.877 -0.3746  0.2729 -0.0433
40854W        W41718  27.244  17.879  24.713 -0.0307 -0.1389  0.0803
40855W        W41719   6.242  22.236  13.441  0.1480 -0.5026 -0.2097
40856W        W41720  13.621  29.061   2.929 -0.1551  0.0106  0.0582
40857W        W41721  18.843   2.514  13.621  0.1512  0.1025 -0.2670
40858W        W41722  12.670   5.861  18.069 -0.2596  0.1192 -0.1500
40859W        W41723   2.603  10.317   6.060 -0.1533 -0.2994 -0.3974
40860W        W41724  27.297   3.804  17.859 -0.0639 -0.0002 -0.2887
40861W        W41725  17.709   1.479   3.189  0.2695 -0.0366  0.1312
40862W        W41726  14.061   0.669  23.637 -0.1735 -0.3588  0.0234
40863W        W41727  20.529  13.671   5.806  0.2337 -0.2865 -0.0968
40864W        W41728  21.599   6.915  12.277 -0.1025  0.2058  0.3201
40865W        W41729  20.961   9.582  22.728  0.1605 -0.2369  0.3223
40866W        W41730   7.994   2.299  24.337 -0.0007  0.0523 -0.0252
40867W        W41731  17.113   5.065  20.628 -0.0929 -0.0489  0.2588
40868W        W41732  12.259  25.103   5.599  0.4242 -0.0211  0.0250
40869W        W41733  22.817   8.080  17.023  0.1897 -0.0486 -0.1676
40870W        W41734  17.379   0.725  26.751  0.0369 -0.2315  0.0296
40871W        W41735   8.739  10.217   8.658 -0.2181  0.0555 -0.0319
40872W        W41736  19.726   6.697  21.513  0.1494 -0.0080  0.2003
40873W        W41737  18.977  16.622  24.895  0.0595 -0.1179 -0.4612
40874W        W41738  26.152  14.925  11.529 -0.0668  0.0976 -0.1843
40875W        W41739   8.389   4.809   0.434  0.1147 -0.1254  0.5212
40876W        W41740  15.623   9.545  17.752  0.1078 -0.1094 -0.1406
40877W        W41741   0.378  10.427  28.218  0.0720  0.1908 -0.0120
40878W        W41742  18.402  18.848   5.768 -0.1622 -0.0477 -0.0753
40879W        W41743  12.797   3.525   2.334  0.3871 -0.0777 -0.2653
40880W        W41744  25.268   3.128  14.578  0.2261  0.0113  0.1504
40881W        W41745  26.799   8.241  12.183  0.1507  0.0676 -0.2004
40882W        W41746  17.221   7.752  20.553  0.0148 -0.2044 -0.1143
40883W        W41747  24.801   7.914  25.233  0.1181 -0.3091  0.0070
40884W        W41748  11.670   7.436  21.028 -0.0227 -0.0703  0.3262
40885W        W41749   3.511   1.759  27.835  0.0142 -0.3332  0.0077
40886W        W41750   6.211  15.719  18.382 -0.2307  0.1875  0.1969
40887W        W41751  20.719   6.350  12.227 -0.0733 -0.0546 -0.0944
40888W        W41752  17.397   8.788   6.925 -0.1146  0.0390 -0.4348
40889W        W41753  16.941  12.794  25.417  0.1538  0.1426  0.2841
40890W        W41754  16.102  21.748   9.533 -0.1279  0.1535 -0.1821
40891W        W41755  13.529  14.213  14.387  0.0661 -0.2590  0.1131
40892W        W41756   8.716  13.684   8.548  0.3458  0.3193  0.1642
40893W        W41757  22.172   8.435  11.104  0.0747 -0.3104 -0.3803
40894W        W41758  23.838   8.809  24.173  0.1179 -0.0343  0.1614
40895W        W41759  28.717  21.304  28.148  0.0648 -0.2752 -0.0237
40896W        W41760  21.223  23.433   1.871  0.0703  0.0657 -0.1225
40897W        W41761   9.599  18.760  11.966 -0.2409 -0.2615 -0.0481
40898W        W41762   5.793  11.019  18.432 -0.3115 -0.0135 -0.1096
40899W        W41763   3.694  15.128   2.194  0.2194 -0.4696  0.2276
40900W        W41764   1.631  11.939   5.694  0.1952  0.4820  0.1546
40901W        W41765  27.271  11.352  22.368  0.2778  0.0658  0.0010
40902W        W41766  28.917  25.885  25.560 -0.0501  0.0951  0.0879
40903W        W41767  22.019   5.896  13.353  0.0970 -0.1225 -0.2216
40904W        W41768  24.095   1.062  27.763 -0.2422  0.0509 -0.2422
40905W        W41769  18.916   6.423   7.111  0.3996 -0.1687 -0.1173
40906W        W41770  12.255   0.016   1.024  0.4718  0.2176 -0.1536
40907W        W41771  13.510  26.365  22.001  0.2847  0.0678 -0.2897
40908W        W41772  21.975  15.125  29.104  0.1358 -0.0288  0.0828
40909W        W41773  15.446  25.071  11.566 -0.1996 -0.0976 -0.1589
40910W        W41774  25.242  12.039  16.817  0.2564 -0.0944 -0.2010
40911W        W41775  16.514  21.726   1.616 -0.1649 -0.2487 -0.0124
40912W        W41776  17.053  28.140  29.047  0.1375 -0.2459  0.2360
40913W        W41777   0.073  18.082  17.117 -0.0318 -0.0543 -0.2977
40914W        W41778  28.751   9.009  21.931 -0.2229  0.0753  0.0981
40915W        W41779  26.032   1.750   8.638  0.1755 -0.2516  0.0118
40916W        W41780  26.295  14.301   1.962 -0.0092  0.3542 -0.0674
40917W        W41781   5.763  18.425   4.359 -0.0248  0.3070 -0.0407
40918W        W41782   6.473  20.970  12.767 -0.1760  0.3448  0.2605
40919W        W41783  18.149  22.594   3.711 -0.0190  0.0887 -0.5155
40920W        W41784  14.637  11.675   1.695  0.1517  0.3909  0.3146
40921W        W41785  21.982   9.487  27.630  0.2695 -0.0885  0.1472
40922W        W41786  24.609   7.862  19.851  0.1208  0.1650  0.0036
40923W        W41787  24.486   0.744   0.025  0.2620  0.0510  0.3562
40924W        W41788  11.875  27.239  25.035 -0.0937  0.1240 -0.1220
40925W        W41789  22.203  17.778   4.399  0.0577  0.3571 -0.1155
40926W        W41790  11.166  27.107   0.598 -0.1080 -0.0029 -0.0286
40927W        W41791  29.075  15.986  26.843 -0.2387  0.1111  0.1053
40928W        W41792  21.886  17.685  24.702 -0.2229  0.3166 -0.1285
40929W        W41793  24.124   3.345   4.873 -0.0542 -0.0858  0.1780
40930W        W41794   2.279  17.741   6.822 -0.0792  0.0062  0.1715
40931W        W41795   8.404  24.221   8.615  0.2876 -0.0375  0.1494
40932W        W41796   0.737  24.016  29.081 -0.4898  0.2798 -0.0778
40933W        W41797   8.238  17.290   2.257 -0.1739  0.0236  0.3870
40934W        W41798  10.228  23.947   0.858 -0.1230 -0.2593  0.1046
40935W        W41799   1.256   5.560   2.923 -0.1068  0.2318  0.2509
40936W        W41800  23.685  15.189   3.338 -0.3079 -0.3178  0.4089
40937W        W41801  16.854  16.195  18.746  0.2784 -0.2342  0.0919
40938W        W41802  15.086   2.651  10.838  0.0598  0.0108 -0.1527
40939W        W41803  18.299   1.026  29.109 -0.1237 -0.3794  0.0860
40940W        W41804  27.683  20.382   0.272  0.0290  0.0852  0.2632
40941W        W41805  13.516  26.575   8.713  0.1512  0.1541 -0.0445
40942W        W41806  27.861   7.720   8.057 -0.3258  0.0598  0.3783
40943W        W41807  18.011  18.318   8.300  0.3258 -0.1141  0.2975
40944W        W41808  25.072  19.458  11.444 -0.1477  0.0827  0.0473
40945W        W41809  19.281  17.679   8.051 -0.4726  0.0100 -0.1778
40946W        W41810  10.026   5.968  25.755 -0.1412  0.1545  0.1222
40947W        W41811  17.812   1.633   1.511  0.1144  0.2551  0.2648
40948W        W41812   4.467  28.680  12.173 -0.1045 -0.2144 -0.2351
40949W        W41813  14.373   2.768  14.542 -0.1394  0.2984 -0.1838
40950W        W41814   9.084  20.358  24.748 -0.3293 -0.1580  0.2831
40951W        W41815  19.827  15.455  15.485  0.1711  0.1075 -0.0813
40952W        W41816  19.047  12.142   0.751  0.1802  0.0926  0.2141
40953W        W41817  26.553   9.412  18.170  0.0886  0.1693 -0.0663
40954W        W41818  21.609  11.624   5.975 -0.1578 -0.1506  0.1305
40955W        W41819  23.543  26.260   3.399  0.0377 -0.1585  0.0190
40956W        W41820  16.676  27.017  16.365 -0.0705  0.1642 -0.5275
40957W        W41821  12.450  25.487  22.972 -0.1704  0.0240  0.0175
40958W        W41822   4.029  16.672  13.975 -0.1610  0.2298 -0.3800
40959W        W41823   8.194   2.411  20.006  0.0541 -0.3884  0.3740
40960W        W41824  14.669   1.925  11.940 -0.1386 -0.1858  0.0300
40961W        W41825  21.666  15.862  24.035 -0.0583 -0.2173 -0.2084
40962W        W41826  18.999  20.559  10.208 -0.1850 -0.0221 -0.4269
40963W        W41827  23.983  27.217  26.200 -0.1623  0.1603  0.0759
40964W        W41828   7.048  12.538  23.161  0.3196 -0.0484  0.0542
40965W        W41829  21.451  13.969  20.868 -0.2417 -0.2133  0.0406
40966W        W41830  22.571  13.286  25.294 -0.0901 -0.0356 -0.1984
40967W        W41831  26.896  19.140   4.936  0.0020 -0.0119  0.1428
40968W        W41832  22.500  11.003  25.834  0.1438 -0.0608  0.5440
40969W        W41833  18.724  28.735  27.940  0.2332  0.1022  0.0667
40970W        W41834   0.124  22.317  22.143  0.1628  0.0207 -0.0297
40971W        W41835   4.187   8.073  10.636  0.2138  0.0777  0.0520
40972W        W41836  28.253   5.898  17.755 -0.0349  0.3259 -0.2773
40973W        W41837  24.435   2.782  22.513  0.2669  0.0768  0.3198
40974W        W41838  22.284  27.787   5.907  0.1820  0.1878  0.0895
40975W        W41839   4.561   3.613   0.611 -0.0434  0.0262  0.0181
40976W        W41840   5.603  24.240   4.755 -0.0633  0.0886  0.0105
40977W        W41841  22.500  16.189  21.621  0.1016 -0.0266 -0.2724
40978W        W41842   4.105  15.832   5.664 -0.1370 -0.0019 -0.1572
40979W        W41843  27.714  23.505  23.221  0.2294 -0.0268  0.0685
40980W        W41844  23.691   4.913  10.635 -0.0968 -0.1514  0.1663
40981W        W41845  26.919  12.468   8.045  0.0039 -0.0142  0.1572
40982W        W41846   7.884  24.144   8.566  0.0639 -0.0475 -0.3204
40983W        W41847   7.135   6.334   6.899 -0.0646  0.2330 -0.0138
40984W        W41848  15.082  14.582   6.668  0.4793 -0.0360  0.2145
40985W        W41849   0.559   7.418   7.519  0.0596  0.0074 -0.0392
40986W        W41850  11.228   7.358  20.855  0.0788 -0.2278  0.0065
40987W        W41851   3.411  10.596   6.536 -0.1096  0.1317  0.0855
40988W        W41852  24.581   4.091  13.974  0.1084 -0.2573  0.1804
40989W        W41853  26.814  19.642  22.875 -0.1804 -0.0272  0.0334
40990W        W41854  24.670   3.164   8.384 -0.0984  0.0833  0.2816
40991W        W41855   2.544   6.624   6.604 -0.3620  0.3135 -0.1314
40992W        W41856  14.090  23.448   6.854  0.2924  0.0273  0.1655
40993W        W41857   6.379  13.806  25.473  0.0093  0.0933  0.1190
40994W        W41858   4.932  15.191  24.841 -0.1246 -0.1101 -0.1576
40995W        W41859   0.962  17.131   5.467 -0.1316  0.1897 -0.1956
40996W        W41860  12.233  17.414  18.838 -0.2384 -0.3937  0.0827
40997W        W41861  28.262   9.344  25.500 -0.0255 -0.0810  0.5329
40998W        W41862  16.433   9.986  17.415  0.0985 -0.0936  0.3715
40999W        W41863  13.461  17.925   9.510 -0.2711  0.0441 -0.0281
41000W        W41864   4.148   4.053   8.310 -0.1909  0.0028  0.2451
41001W        W41865  19.220  24.931   8.080 -0.1149 -0.0312 -0.3045
41002W        W41866   4.163  17.045   1.404 -0.0084 -0.1162 -0.4057
41003W        W41867  17.623  27.205  27.304 -0.1970  0.2063  0.0044
41004W        W41868  12.628   8.325   4.777  0.3026  0.6969 -0.1403
41005W        W41869  10.932  14.719  11.139 -0.1636 -0.0914 -0.2471
41006W        W41870   2.759  23.993  21.572  0.0662 -0.1908 -0.1720
41007W        W41871  26.713  25.889   3.543 -0.3167 -0.0555  0.4031
41008W        W41872  25.749   8.327   3.964  0.1049 -0.0120  0.2416
41009W        W41873   5.363   1.404  10.030  0.0876 -0.0726 -0.0627
41010W        W41874   5.367  16.156   3.260 -0.0153 -0.1130  0.1588
41011W        W41875  20.566  13.814   1.658 -0.1998  0.0601  0.0490
41012W        W41876   3.072  25.700   4.657  0.0957 -0.3122 -0.0773
41013W        W41877  17.964  11.216   8.982  0.0457 -0.0847  0.0025
41014W        W41878  24.235  19.413  12.034 -0.0427  0.0100 -0.0980
41015W        W41879  17.974  20.329  20.689 -0.3182 -0.2881  0.1588
41016W        W41880  21.326  21.875  23.821 -0.0842 -0.0528 -0.1135
41017W        W41881  26.197  14.155   6.831  0.1333 -0.1716  0.0590
41018W        W41882  28.699  18.670  12.822  0.1336  0.1282 -0.0172
41019W        W41883   6.213  11.304  22.071 -0.0239  0.1229  0.1760
41020W        W41884  17.135  10.637  13.769  0.1481  0.1099  0.0317
41021W        W41885   2.972  10.978   1.277  0.0246 -0.1815 -0.3505
41022W        W41886  18.561  22.119   4.947  0.3759  0.1029  0.1230
41023W        W41887  26.097  10.438  14.058  0.3378 -0.0721  0.0048
41024W        W41888  11.326   8.459   0.380  0.0596 -0.0206  0.0131
41025W        W41889  23.712  10.181  21.458  0.2193  0.0869 -0.0831
41026W        W41890   9.088  24.291  22.139  0.3635 -0.0390 -0.0222
41027W        W41891  10.376  21.071   6.031 -0.3813 -0.0874 -0.1404
41028W        W41892  23.337  14.361   8.121 -0.2270 -0.0268 -0.3886
41029W        W41893  27.599  23.879  15.366  0.3604 -0.2557 -0.0367
41030W        W41894   3.851  27.374  23.216 -0.0603  0.0258  0.0483
41031W        W41895   2.544  15.389  20.855 -0.1220  0.1959 -0.0186
41032W        W41896  27.264  18.388   9.887 -0.0473  0.0634  0.0953
41033W        W41897  10.658  21.977   2.368 -0.0920 -0.0076 -0.0339
41034W        W41898   1.456  18.652  13.065  0.2494 -0.0610  0.1972
41035W        W41899   7.610   9.405   0.547  0.1217 -0.1069  0.1170
41036W        W41900  18.087  20.415  23.508  0.1589  0.1599  0.0250
41037W        W41901   9.868  16.111   5.563  0.0347 -0.0530 -0.0236
41038W        W41902  21.086   2.754  24.802 -0.0060  0.2586 -0.1981
41039W        W41903  28.280  13.886   5.245 -0.1386 -0.2052  0.0506
41040W        W41904  27.035  22.628   4.853 -0.0935  0.1572 -0.0774
41041W        W41905   4.703   8.707  12.754 -0.1602 -0.2348  0.2016
41042W        W41906  14.676  20.688   8.709 -0.1019  0.0858  0.0043
41043W        W41907   5.301  16.902   6.569 -0.2201 -0.0703 -0.2325
41044W        W41908   2.315   5.118   7.718  0.1328  0.1555  0.1804
41045W        W41909  25.387  11.051  10.221 -0.0632  0.2364  0.0539
41046W        W41910  15.824  11.366   2.339  0.0387  0.1595 -0.0273
41047W        W41911  17.503  16.282  21.408 -0.1996 -0.0934  0.3501
41048W        W41912  28.686  18.702  28.273 -0.0570  0.4005  0.1904
41049W        W41913  25.143  27.039  11.525 -0.2395 -0.0862  0.1022
41050W        W41914  20.432  28.735  26.864  0.1763  0.0897 -0.0840
41051W        W41915  14.137  24.314   0.174 -0.2255 -0.0907  0.0245
41052W        W41916  26.785  17.097   3.225 -0.0463  0.0729  0.1461
41053W        W41917  15.305   0.641  20.282  0.0941 -0.0914  0.0927
41054W        W41918  17.927  28.468  15.850  0.0718 -0.2866  0.1462
41055W        W41919  27.384  14.375  22.345 -0.0689 -0.2496 -0.0231
41056W        W41920   9.342   5.400   2.031  0.0607  0.0926  0.0670
41057W        W41921  13.256   0.778  12.497  0.1554 -0.3178 -0.3547
41058W        W41922  27.186  17.274   1.111  0.0049 -0.1265  0.1430
41059W        W41923   5.706  25.770  23.352 -0.0094 -0.0418  0.1714
41060W        W41924  25.039  23.417  26.891  0.0438 -0.0295  0.0706
41061W        W41925  25.955  17.298   6.899 -0.2381  0.1018 -0.0888
41062W        W41926  23.155   9.497   7.099 -0.0844 -0.0428  0.0715
41063W        W41927  14.593  24.108  10.911  0.0530  0.1233 -0.1137
41064W        W41928  22.367   0.305   6.510  0.1573 -0.2035  0.0512
41065W        W41929  19.793  11.565  27.604  0.1605  0.0136 -0.0660
41066W        W41930  11.184  27.167   1.990 -0.0886 -0.4244 -0.2300
41067W        W41931  15.236  18.743   4.606 -0.1847  0.0076 -0.4777
41068W        W41932   3.873   1.448  25.155 -0.0667 -0.1394 -0.2124
41069W        W41933  11.955  25.730   2.304  0.1231 -0.1278 -0.0928
41070W        W41934   3.886  21.222  27.798  0.1498  0.0210 -0.1949
41071W        W41935  20.596  22.306  14.820  0.2250 -0.2689 -0.4491
41072W        W41936  11.295  10.412  10.437 -0.2650 -0.1859  0.0842
41073W        W41937  10.573   7.242   5.779  0.1057 -0.2647  0.2292
41074W        W41938  26.556  10.882   9.593 -0.0763 -0.3688 -0.0758
41075W        W41939   7.466  23.673  14.846 -0.0048  0.1398  0.0289
41076W        W41940   5.963  28.840   3.901  0.1593 -0.1672  0.4970
41077W        W41941  25.601  15.714  29.095 -0.0512  0.0923 -0.0503
41078W        W41942   0.404  27.626  10.290 -0.1383 -0.1504 -0.3427
41079W        W41943  15.176  21.446   7.518 -0.0261  0.0477  0.1375
41080W        W41944  12.616  24.303  28.942  0.0647 -0.1203  0.0759
41081W        W41945  13.938  20.534  19.068  0.1304  0.1872  0.0791
41082W        W41946  12.707   4.891   6.074  0.1160  0.1615  0.2126
41083W        W41947  28.569  15.191   9.939  0.2251  0.1091 -0.0036
41084W        W41948   8.841  18.109  24.576 -0.0418  0.3450 -0.1207
41085W        W41949  14.805  17.428  17.877  0.1148  0.1190 -0.2388
41086W        W41950   4.630  18.297   7.647 -0.0505  0.0973  0.3032
41087W        W41951  27.327  14.897  22.210 -0.0360  0.1202  0.3344
41088W        W41952  26.758  10.971   3.463  0.2211  0.2257 -0.0319
41089W        W41953  18.183  24.340  25.257  0.3306  0.0528  0.1647
41090W        W41954  21.140  23.071  22.548 -0.0653 -0.1980  0.0497
41091W        W41955   9.262  21.824   2.264 -0.2852  0.1516  0.0013
41092W        W41956   5.211   1.425   2.055  0.0695 -0.0148 -0.0814
41093W        W41957  24.838  22.022   8.509  0.1093  0.2573  0.1017
41094W        W41958  20.163  18.565  13.079 -0.1364  0.3163  0.0424
41095W        W41959  13.946  16.203  27.533  0.1564  0.2464  0.3771
41096W        W41960  14.359  10.844  26.263 -0.1802 -0.0027 -0.0980
41097W        W41961  26.695   0.980  26.129  0.5065  0.0597 -0.3393
41098W        W41962   2.330  19.717  18.192 -0.1018  0.0748  0.0032
41099W        W41963   5.572  11.639  25.243  0.1906 -0.0897  0.0733
41100W        W41964  18.307  15.885  14.958 -0.1536 -0.4291  0.0557
41101W        W41965  27.282  23.747  25.624  0.1038 -0.1518 -0.3778
41102W        W41966  20.040   1.493  28.083 -0.5108  0.0733  0.0400
41103W        W41967   9.727  18.332   3.408 -0.2180 -0.2127  0.0480
41104W        W41968  25.695   0.228  12.837 -0.2585  0.3348 -0.0135
41105W        W41969  24.026  17.670   8.030  0.0578 -0.0529  0.1588
41106W        W41970  18.011   1.382  28.869 -0.1439 -0.0132 -0.1805
41107W        W41971   3.153  11.020  26.663 -0.0043 -0.0685  0.1827
41108W        W41972   7.684  14.682  20.949  0.1843 -0.2418  0.3156
41109W        W41973  26.504  18.816   6.294 -0.0855  0.0014  0.1777
41110W        W41974   7.385  27.744  14.574 -0.0393 -0.0345  0.2466
41111W        W41975  28.629   8.652  22.260  0.0755  0.2538  0.2983
41112W        W41976  24.965  15.791   5.676 -0.2348 -0.1952 -0.0020
41113W        W41977  28.612  23.438   3.479  0.2604 -0.0269 -0.1288
41114W        W41978  25.949  21.189  12.784 -0.0908  0.0404 -0.1617
41115W        W41979   4.661  20.945  17.109 -0.2793 -0.0561  0.1064
41116W        W41980  15.152  27.991  18.939  0.2908  0.1533 -0.0221
41117W        W41981  21.096  27.663   5.812  0.1852 -0.1316  0.0809
41118W        W41982  27.681  21.733  10.702 -0.3843 -0.2469 -0.0014
41119W        W41983   9.591  12.716  21.794 -0.0947  0.4768  0.0908
41120W        W41984  24.222   0.949  28.266  0.0984  0.1829 -0.1159
41121W        W41985   0.550   8.989   6.575 -0.1346  0.1305 -0.2040
41122W        W41986  16.465  17.699  18.604 -0.2411  0.0850 -0.2191
41123W        W41987  22.658  19.845   6.129 -0.5064 -0.0229 -0.0417
41124W        W41988  17.127  24.768   5.291  0.0151  0.1036 -0.1010
41125W        W41989  18.856  12.920   9.238 -0.2750 -0.0624 -0.1454
41126W        W41990  25.873   8.187  26.518 -0.1166 -0.0239 -0.0354
41127W        W41991  24.455  19.611   2.529 -0.1626  0.1236 -0.0902
41128W        W41992   4.647   3.429  22.607  0.0073  0.0226  0.0558
41129W        W41993  17.204  19.685  29.053  0.0135 -0.3111  0.1110
41130W        W41994   3.556  17.333  17.601 -0.0835  0.0369  0.1532
41131W        W41995  21.575  21.796   8.746  0.1797  0.1199 -0.0589
41132W        W41996  26.613   4.920  18.829  0.0124 -0.0826 -0.1021
41133W        W41997  20.368   3.510  17.401 -0.1193 -0.2920 -0.1629
41134W        W41998  11.649  11.944  28.757  0.0231  0.4259 -0.0489
41135W        W41999   3.395   6.394   5.122  0.3458 -0.0195 -0.2337
41136W        W42000  15.567   4.559   5.960  0.0985 -0.0832  0.0137
41137W        W42001   6.005  22.180   0.259  0.1327  0.1129 -0.1176
41138W        W42002  12.258  16.013  23.334  0.1825 -0.1053 -0.2015
41139W        W42003   0.420  25.231  20.427 -0.2629 -0.1485  0.1508
41140W        W42004   9.392  19.214   8.579  0.1749 -0.2268 -0.2111
41141W        W42005  23.575  14.483  28.026 -0.1524  0.1265 -0.1870
41142W        W42006  24.448  19.066   9.888 -0.1910 -0.0049 -0.0135
41143W        W42007  23.949  15.810  21.221  0.0014  0.1439  0.1850
41144W        W42008  28.292   3.680  27.454  0.1686  0.0171 -0.2186
41145W        W42009  25.922   8.474  17.955  0.0116 -0.1167 -0.3516
41146W        W42010  23.875  28.238  28.527  0.2822 -0.0724 -0.2456
41147W        W42011  25.432   3.055   3.318  0.2142 -0.2174 -0.0220
41148W        W42012   2.291   0.285  24.152 -0.1237 -0.0648  0.2345
41149W        W42013  21.678   1.961   1.923  0.1294  0.1259 -0.1176
41150W        W42014   2.725  21.415  10.291 -0.1740  0.3429 -0.0144
41151W        W42015  11.843   6.713   1.554 -0.0449 -0.0852  0.2139
41152W        W42016   7.622   9.577  19.938  0.0530  0.1047  0.3555
41153W        W42017  23.185   5.786   6.270 -0.1234  0.3841 -0.1716
41154W        W42018  28.646  13.489   3.556  0.2967  0.0421  0.0476
41155W        W42019  19.765  17.947  25.041 -0.0878  0.2189  0.2613
41156W        W42020  14.754  22.758  21.828  0.1036 -0.0345  0.0466
41157W        W42021   0.072  23.906  14.530  0.1023  0.1603  0.1648
41158W        W42022   9.736  13.851  27.427  0.1240 -0.0806 -0.0779
41159W        W42023  13.774   3.326  26.545 -0.0885 -0.2496 -0.0012
41160W        W42024  18.191   1.016   5.553  0.2436  0.0903  0.2182
41161W        W42025  17.753   9.709   4.033 -0.1945 -0.3295  0.1143
41162W        W42026   3.890  17.183  20.052  0.0235  0.1314  0.3073
41163W        W42027  18.826  14.112  28.180  0.1893  0.0126  0.0878
41164W        W42028  17.117  16.450  23.348 -0.2004  0.0486  0.2753
41165W        W42029  15.378  28.819  24.148 -0.2191  0.2424  0.2331
41166W        W42030  10.174  22.310  28.834  0.0491  0.0366 -0.1952
41167W        W42031  18.684  21.949  28.142 -0.0698 -0.0385 -0.5155
41168W        W42032   1.968   5.672  22.717 -0.0912 -0.0065  0.1013
41169W        W42033   5.030   1.378  26.629  0.0085  0.2311 -0.3152
41170W        W42034   1.463   0.826   3.818  0.0639 -0.2622  0.3310
41171W        W42035   0.156  21.103  11.213  0.2641 -0.0380  0.1919
41172W        W42036   4.105  27.772  23.123  0.0082  0.0812 -0.0783
41173W        W42037  17.483  18.361  12.557 -0.1201  0.0807 -0.1120
41174W        W42038  17.451   2.083  23.273  0.2340 -0.1728 -0.0182
41175W        W42039  10.640   0.674  28.412 -0.2175 -0.1584  0.0198
41176W        W42040  16.744  15.757  25.823  0.3423 -0.0088  0.0138
41177W        W42041  11.943  28.684   6.420 -0.1347 -0.1856  0.2421
41178W        W42042  15.733  16.589   7.341 -0.0421  0.5661 -0.0816
41179W        W42043  17.130   9.845   3.497 -0.1857  0.2295 -0.0104
41180W        W42044  23.486   8.162  24.207  0.0632 -0.1125 -0.0114
41181W        W42045  18.492   0.640  14.810  0.2330  0.1910 -0.1357
41182W        W42046  18.831   1.701   9.711 -0.2244 -0.1773  0.0067
41183W        W42047  15.526  26.498   5.701 -0.1612 -0.3414 -0.0805
41184W        W42048  18.579   3.730  22.854 -0.3647 -0.0542  0.1041
41185W        W42049  18.738   7.321  13.053  0.0861  0.1282 -0.1130
41186W        W42050  27.961  19.689  16.050  0.2003 -0.0008 -0.2345
41187W        W42051  16.605  16.871  22.493  0.0280  0.0474  0.1998
41188W        W42052  18.373  20.059  27.243  0.3888  0.2764  0.2087
41189W        W42053  21.575  23.305  20.256 -0.0522  0.2400 -0.0334
41190W        W42054  20.826  11.796  18.003  0.0127  0.1443 -0.1710
41191W        W42055  17.210  12.186  24.801 -0.0287 -0.0312  0.2789
41192W        W42056  14.686  20.388  23.215 -0.0066 -0.4464  0.1940
41193W        W42057  17.814  14.451  27.314 -0.0600 -0.1011 -0.0816
41194W        W42058  12.798  27.014   8.096 -0.0028 -0.3184 -0.3135
41195W        W42059  18.202  27.042  24.505 -0.2649  0.3360  0.0185
41196W        W42060   5.542  10.839   9.278  0.0950  0.2373 -0.0589
41197W        W42061  16.435  24.789  27.903  0.2769  0.1723 -0.1027
41198W        W42062   1.929   4.205  13.540 -0.0241 -0.0370  0.0992
41199W        W42063  10.168   7.865  16.810 -0.2602 -0.1232 -0.1245
41200W        W42064  19.116  24.141  28.076  0.0170  0.0904  0.1570
41201W        W42065   3.403  12.911   9.017  0.2098 -0.0843  0.4270
41202W        W42066  12.804  17.056  29.079 -0.0303 -0.2574 -0.1318
41203W        W42067   8.610  28.490  21.248  0.1364 -0.0378  0.3249
41204W        W42068  10.589  19.684   7.917 -0.1472  0.3072  0.1830
41205W        W42069  17.058  22.642   4.782  0.0883 -0.0186 -0.4707
41206W        W42070  21.308  16.961  26.075 -0.0867  0.0100  0.1630
41207W        W42071   8.562  24.670   4.146 -0.2926 -0.1859 -0.1668
41208W        W42072  12.842   9.208  13.427 -0.2566  0.0134  0.2270
41209W        W42073  27.045   5.117   9.541 -0.1715  0.2366  0.2493
41210W        W42074  13.862  16.137   7.432  0.3550  0.2171 -0.1618
41211W        W42075   9.791   6.735  26.559 -0.0126 -0.2530  0.0475
41212W        W42076  19.616   9.706  28.918  0.1299 -0.0272 -0.2446
41213W        W42077  16.044   1.609   3.039  0.0575 -0.2836 -0.0848
41214W        W42078   4.511   8.693  19.807  0.2175  0.0946 -0.1844
41215W        W42079  12.099  11.949   3.800 -0.1211  0.1086 -0.0615
41216W        W42080  27.051  25.079  14.800 -0.1791  0.3195 -0.2269
41217W        W42081   1.946  22.331  27.254 -0.0812 -0.1215 -0.1345
41218W        W42082  21.276  22.522  22.572 -0.1981 -0.1488 -0.1344
41219W        W42083  25.617  17.354  19.752  0.0877 -0.1168 -0.1535
41220W        W42084  20.407   9.803  23.920 -0.1048 -0.0744  0.0523
41221W        W42085   4.791   4.112  24.396  0.3236  0.0696 -0.0891
41222W        W42086  10.718  24.659   6.771 -0.1725 -0.1287  0.0314
41223W        W42087  18.220   4.841  20.670  0.2182 -0.1298 -0.0668
41224W        W42088  23.973  16.779   5.927 -0.2611  0.0261 -0.1628
41225W        W42089  16.996  22.854  25.720 -0.2515 -0.2665  0.0067
41226W        W42090  13.431  25.337  17.632  0.0849  0.2290  0.0363
41227W        W42091  15.989  14.736   6.252  0.0119  0.0655 -0.1977
41228W        W42092  28.235   9.697  29.071  0.2344 -0.1967  0.0529
41229W        W42093   1.815  22.545  15.784  0.1641  0.0238 -0.0721
41230W        W42094   8.512  12.026  18.166  0.0660  0.1491  0.1510
41231W        W42095  14.582  12.542  25.851  0.0829 -0.1002  0.2101
41232W        W42096  14.024  19.332   4.099  0.1870  0.0257  0.0953
41233W        W42097   9.968  26.446   0.162 -0.1107 -0.1411 -0.0561
41234W        W42098  10.451  19.342  27.515 -0.4891 -0.0129  0.2302
41235W        W42099  20.421  27.765  20.719 -0.0023 -0.3895 -0.0581
41236W        W42100   9.800   8.647  17.711 -0.1571 -0.3602  0.2280
41237W        W42101  24.352  27.163  26.512  0.0603  0.2276 -0.2397
41238W        W42102   9.672  22.667   3.891 -0.0456  0.2004  0.4169
41239W        W42103  26.490  20.203   7.367 -0.3160 -0.1671  0.0526
41240W        W42104   2.724  16.939  16.824 -0.0707  0.1470 -0.3822
41241W        W42105   9.159   6.974  21.252 -0.2468  0.1405  0.0788
41242W        W42106  21.940  25.847  11.002 -0.1008 -0.1598 -0.0481
41243W        W42107  28.836  19.238  15.612 -0.2818 -0.0533  0.0830
41244W        W42108   5.898  17.764  22.629 -0.2887 -0.2326  0.0969
41245W        W42109  24.901  22.115   6.505  0.2821 -0.3765  0.1489
41246W        W42110   7.714  15.370  28.310  0.0576 -0.1558 -0.0654
41247W        W42111  27.402  17.739  22.775  0.1054  0.0370  0.3967
41248W        W42112  13.214  26.106  12.340  0.1737 -0.0643  0.3242
41249W        W42113  15.840  18.770  25.504 -0.0469 -0.0229 -0.0522
41250W        W42114  15.924  12.779  24.481  0.2553  0.2967 -0.1771
41251W        W42115  28.696   3.928   4.205  0.0098  0.2364  0.0205
41252W        W42116  15.979  19.030  22.223 -0.1515  0.1327  0.3820
41253W        W42117   6.947   9.235  17.831  0.2854 -0.2487  0.1123
41254W        W42118  20.303  22.602  14.465 -0.1240 -0.0116 -0.0656
41255W        W42119  16.184  24.839  26.882 -0.0218  0.0292 -0.2357
41256W        W42120   4.575  19.889  24.295 -0.2905  0.0165 -0.0228
41257W        W42121  11.956  27.101  27.029 -0.0776  0.1270 -0.0272
41258W        W42122  23.012  23.073  24.830  0.0552 -0.0217  0.0588
41259W        W42123  15.836  25.406  24.909  0.0462  0.0755  0.0731
41260W        W42124  23.799   9.689   1.343  0.1382 -0.1407 -0.0834
41261W        W42125   7.861  27.353  10.154 -0.1438  0.1005 -0.0503
41262W        W42126   0.848  27.826  23.618  0.1131  0.0231 -0.1266
41263W        W42127  13.649   7.437   7.905 -0.0530 -0.1334  0.4172
41264W        W42128   9.627  24.353  27.907  0.1666 -0.0643  0.0727
41265W        W42129   5.715  18.957   8.689  0.0568 -0.1245  0.0141
41266W        W42130   5.280   2.428  13.233 -0.0847  0.0536  0.1234
41267W        W42131  25.353   6.618   0.476 -0.2027 -0.2408  0.1815
41268W        W42132   4.044   8.527   9.461  0.3998 -0.0212 -0.0567
41269W        W42133  10.393  17.251   0.175 -0.0642 -0.0947  0.0526
41270W        W42134  25.446  18.745  27.114 -0.0162  0.1764  0.1158
41271W        W42135  22.518  24.402  22.180 -0.3758  0.1830 -0.0471
41272W        W42136   8.201   2.038   4.829  0.0219  0.0011  0.0839
41273W        W42137   1.847  26.419  19.606  0.4643 -0.1633 -0.2040
41274W        W42138  14.157  10.184  14.685 -0.2528 -0.0240  0.1146
41275W        W42139   1.547   5.911  24.493  0.1696 -0.2537 -0.1909
41276W        W42140   9.949  21.978   3.115 -0.3216  0.3603 -0.1116
41277W        W42141   0.249  21.706  28.583 -0.2833 -0.1340  0.2453
41278W        W42142  11.874   6.602  27.042  0.0115 -0.1641  0.1843
41279W        W42143   9.902  17.102  21.193  0.1032 -0.3084 -0.1023
41280W        W42144  17.116   7.393   4.834 -0.2414 -0.1291 -0.4160
41281W        W42145  23.860  10.285   0.739 -0.1092 -0.0433  0.0268
41282W        W42146  23.828  16.888   3.783 -0.1172 -0.2240  0.0130
41283W        W42147   0.502  26.342   5.339  0.1447 -0.1921 -0.1684
41284W        W42148  24.512  18.564   5.081  0.1670  0.3187  0.1236
41285W        W42149   7.121  10.445  15.141 -0.1845 -0.2295 -0.2078
41286W        W42150  21.795   4.691  15.074  0.2831  0.2023 -0.1533
41287W        W42151  28.632  10.393  17.414 -0.2482  0.0415  0.2868
41288W        W42152  16.961  11.503  18.349 -0.1585  0.0876 -0.2235
41289W        W42153  13.272  24.728  16.486 -0.2795 -0.1737 -0.1544
41290W        W42154   7.066  11.254  15.169  0.0047  0.1593  0.3803
41291W        W42155  20.877  26.489  22.088 -0.1470 -0.2075 -0.0758
41292W        W42156   5.458  17.599   1.202  0.1238  0.2797  0.2140
41293W        W42157  10.939  19.318  27.795  0.0520  0.0790 -0.1580
41294W        W42158   7.088  11.364  25.612  0.1419 -0.2152 -0.1456
41295W        W42159  10.533   8.029  29.046 -0.1709  0.0261  0.1199
41296W        W42160  11.729  19.968  24.272 -0.4295 -0.1111 -0.0225
41297W        W42161   1.306  24.238  13.853 -0.0291 -0.0173 -0.3980
41298W        W42162  11.405  13.285  16.714  0.1323  0.0612  0.1949
41299W        W42163  27.343  16.833  25.569 -0.0062  0.0229  0.0419
41300W        W42164  22.284  24.552  20.990 -0.0850 -0.0060  0.1045
41301W        W42165  13.531  11.532  11.946  0.0856 -0.1968 -0.0754
41302W        W42166  16.790  19.471  20.118  0.0269 -0.1910 -0.2188
41303W        W42167  28.474  17.799   1.581  0.0074 -0.0244 -0.0651
41304W        W42168  20.802  27.518   5.055 -0.0252  0.1611  0.1586
41305W        W42169  19.588   4.477   7.336  0.0544  0.0429 -0.1498
41306W        W42170  15.132  20.952  26.142  0.2177 -0.0210  0.2658
41307W        W42171   4.917  14.090  15.766  0.1027  0.0171  0.3331
41308W        W42172   0.224  10.547  28.710 -0.0152 -0.2212  0.0063
41309W        W42173  13.722  14.106   7.579 -0.0221  0.0183 -0.1542
41310W        W42174  25.343  13.976   6.647 -0.0673 -0.0374 -0.1805
41311W        W42175   0.794  13.994  14.174  0.3022 -0.0085 -0.0812
41312W        W42176  17.690   3.809  28.134 -0.0736 -0.1210  0.0091
41313W        W42177  24.109  17.981   5.502  0.1325  0.1797 -0.1275
41314W        W42178  20.854  28.473  24.582  0.0403 -0.3141 -0.0955
41315W        W42179   7.819   3.918  12.586  0.1564  0.0983 -0.4134
41316W        W42180  24.863   9.707  18.427 -0.0566 -0.4064  0.0641
41317W        W42181  21.917   1.950   0.538  0.1744  0.0774 -0.1342
41318W        W42182  20.211   3.357  16.832 -0.3113 -0.0897  0.1419
41319W        W42183  15.646   9.351   4.551  0.1401  0.0201  0.0089
41320W        W42184  21.793  20.908   4.177  0.1786  0.0149  0.0638
41321W        W42185  15.791  21.852  26.434 -0.1785  0.1379 -0.4431
41322W        W42186  17.690   3.751   3.661 -0.3348 -0.2571 -0.2556
41323W        W42187   8.547   2.910  26.756  0.2501  0.0036 -0.1643
41324W        W42188  27.613  14.312  21.280 -0.0820  0.0675  0.0621
41325W        W42189  13.583  24.083  27.518  0.1049  0.1609  0.0068
41326W        W42190  22.296  14.660  17.437 -0.1665 -0.0482  0.4075
41327W        W42191  19.035   5.638  27.866 -0.0024 -0.0711 -0.0576
41328W        W42192  15.120  29.079   6.887 -0.0575 -0.0059  0.0744
41329W        W42193  13.112  10.139  26.821 -0.3631 -0.1014  0.0094
41330W        W42194  25.827   2.960   0.564 -0.0426  0.1208 -0.0008
41331W        W42195   4.610  11.018  16.137 -0.2177 -0.0520 -0.0385
41332W        W42196  17.412   4.597   2.702 -0.1104  0.2291  0.0247
41333W        W42197   6.436  23.769  14.866  0.1142  0.1387  0.0528
41334W        W42198  12.666  24.657  28.516  0.1226  0.1508 -0.0643
41335W        W42199  28.462  24.390  16.377  0.0801 -0.0651  0.1309
41336W        W42200   0.635   7.426   8.134 -0.1843  0.0100  0.1278
41337W        W42201   1.828  16.085  11.098 -0.2782  0.0400  0.0829
41338W        W42202  19.196  24.791  25.215  0.0853  0.3972 -0.4010
41339W        W42203  17.899  17.745  25.751  0.0192 -0.0999  0.1784
41340W        W42204  22.084   3.102  16.620  0.0494 -0.0280  0.0226
41341W        W42205   9.707  13.599  26.270 -0.0014  0.1642  0.1622
41342W        W42206  29.020  17.926   4.740  0.2619 -0.1728  0.0479
41343W        W42207   8.050  15.696   3.882 -0.0159 -0.2210  0.3118
41344W        W42208   2.215   7.083  28.561 -0.0977 -0.0407 -0.1582
41345W        W42209  20.824  23.086   0.214 -0.2844  0.0086 -0.2126
41346W        W42210  23.862  23.392  17.096  0.1267 -0.0468  0.0307
41347W        W42211  10.958   2.920   7.718 -0.0918 -0.1483  0.2338
41348W        W42212  27.122  18.247  13.876  0.3022 -0.0565  0.1888
41349W        W42213  21.600  16.599  22.348  0.2662  0.0428 -0.3834
41350W        W42214   0.674  19.909  21.813 -0.1284  0.1315  0.0053
41351W        W42215   7.369  23.310  16.644  0.0133  0.1781  0.1913
41352W        W42216   3.756  16.859  11.758 -0.0893  0.1626  0.0230
41353W        W42217  21.033  11.990  28.726 -0.1844 -0.0967 -0.1665
41354W        W42218   0.887   7.082   0.940 -0.1119  0.1661 -0.1633
41355W        W42219  16.398  24.976  13.744  0.1788 -0.1826 -0.2008
41356W        W42220   5.737  11.598   4.732  0.2046  0.1509  0.2442
41357W        W42221  25.700  21.271   1.064 -0.0779 -0.1744  0.3435
41358W        W42222  16.652  15.440   8.189  0.0465 -0.0829  0.2684
41359W        W42223   9.544   6.222  16.297 -0.1433 -0.0492 -0.1806
41360W        W42224  27.941   4.792  24.789  0.3368 -0.1350  0.2445
41361W        W42225  17.310  22.703  20.204 -0.2561  0.0027 -0.0887
41362W        W42226   8.136  25.813   4.448  0.0213  0.2289  0.3228
41363W        W42227  13.312  16.184  26.613  0.3553 -0.0998 -0.0467
41364W        W42228  15.873  26.427  26.955  0.1036  0.1109  0.1728
41365W        W42229   3.190  23.734   7.555  0.2575  0.1036 -0.1335
41366W        W42230  18.657  21.682  16.646  0.0769 -0.0566 -0.0449
41367W        W42231  17.606  14.174   1.895  0.3062  0.0838  0.0999
41368W        W42232   0.105  11.885  28.286  0.1163 -0.5738 -0.0565
41369W        W42233  19.528  27.985  14.905 -0.1748  0.1807 -0.1746
41370W        W42234  27.849  16.835  16.953  0.0807 -0.1332  0.1828
41371W        W42235   9.711  24.855   0.934  0.0917 -0.0319 -0.1299
41372W        W42236  28.112  19.900   3.512  0.0561  0.5090  0.2857
41373W        W42237   2.731  27.358   0.919 -0.2821 -0.0174 -0.0775
41374W        W42238   5.594   9.468  27.665 -0.3236  0.0118 -0.1551
41375W        W42239  22.619  19.297  23.479  0.2077 -0.1327 -0.0450
41376W        W42240  22.842  15.776  15.330 -0.1700 -0.0667  0.1514
41377W        W42241  11.459   3.124  21.838  0.1033  0.1394 -0.0249
41378W        W42242  23.073   1.937  24.465 -0.2519  0.0310  0.2791
41379W        W42243  25.902  15.825   0.350  0.1333  0.0984 -0.0217
41380W        W42244  10.875   1.573   0.301  0.2812 -0.1511  0.3515
41381W        W42245  13.762  13.091  21.897 -0.0950 -0.0209  0.2238
41382W        W42246  18.514  19.489  12.634 -0.1241 -0.0147  0.3537
41383W        W42247  18.008   3.086   2.088 -0.3100 -0.3180 -0.2984
41384W        W42248  25.519  22.110   5.091 -0.2594  0.0546  0.1927
41385W        W42249   7.317  25.400   7.006  0.2297  0.0390  0.0708
41386W        W42250   0.182   0.539   7.537 -0.0168 -0.0637 -0.1022
41387W        W42251  25.500  22.865  10.322  0.2794 -0.1229  0.0999
41388W        W42252  19.704  13.861   9.664  0.1462  0.0902  0.0534
41389W        W42253   6.451  23.067  15.331 -0.1514  0.0131  0.1780
41390W        W42254  24.037  18.384  21.259  0.0712 -0.3313 -0.1693
41391W        W42255  22.755  13.570  26.769  0.1646  0.1520 -0.5153
41392W        W42256  13.806   6.623  11.583 -0.2141 -0.0732 -0.1959
41393W        W42257  20.642  15.957   7.475  0.1974 -0.0900 -0.1588
41394W        W42258   2.698   0.042  16.334 -0.2941 -0.0027 -0.0188
41395W        W42259   2.904   7.400  10.467 -0.2707  0.0568  0.0266
41396W        W42260  12.694  28.710  26.612  0.3736  0.2701 -0.0527
41397W        W42261   5.444  28.356  12.926 -0.0417  0.0374  0.0022
41398W        W42262  20.309  17.108  24.089  0.4795 -0.0761 -0.1101
41399W        W42263   1.990  11.430  12.530  0.3736  0.0515 -0.1023
41400W        W42264  21.272  10.407  21.702  0.1379  0.1009 -0.3157
41401W        W42265  12.701   8.795  28.584  0.0557 -0.2383 -0.2860
41402W        W42266  11.869  15.521  11.142 -0.1340  0.0437  0.0923
41403W        W42267  21.347  10.326  15.200 -0.0198 -0.0071 -0.4152
41404W        W42268  28.038   1.488   8.435  0.2616  0.1348  0.0795
41405W        W42269   0.758  15.501   0.703 -0.2674  0.0707 -0.1468
41406W        W42270  16.881  19.645  16.748  0.1326 -0.0295 -0.1992
41407W        W42271  25.948  10.188  26.633 -0.3863 -0.1532 -0.0863
41408W        W42272   0.889  19.446   6.638 -0.0588  0.0727 -0.2378
41409W        W42273   2.308  14.499  15.345 -0.0429 -0.0187 -0.2895
41410W        W42274   8.826  11.173   4.780 -0.1780 -0.0136 -0.0159
41411W        W42275   8.883   0.892  16.094 -0.2867 -0.2498 -0.2677
41412W        W42276  21.330  12.279  16.759 -0.0191  0.1761  0.1011
41413W        W42277  20.011  22.565   2.906  0.1118 -0.0816  0.3729
41414W        W42278   5.455   2.314  14.736  0.0990  0.1112  0.0276
41415W        W42279   9.369  25.098   7.325 -0.0077 -0.3123 -0.0417
41416W        W42280   9.581  16.218   0.307  0.0705  0.2009  0.0707
41417W        W42281  17.441  28.931  19.403  0.1264  0.1597 -0.0363
41418W        W42282   9.133  28.109  19.065 -0.1968 -0.0460  0.0227
41419W        W42283  16.828  10.149   8.391  0.0778  0.0245  0.1072
41420W        W42284  22.018  25.691  22.005 -0.0593  0.0521 -0.0631
41421W        W42285  21.032   4.963   4.330  0.1590  0.0394  0.0405
41422W        W42286  12.558   0.097  17.649 -0.2333  0.0557  0.0024
41423W        W42287  17.926  26.312   8.858  0.0861  0.3376  0.1630
41424W        W42288  12.922  23.756   2.578 -0.2926 -0.0980 -0.2372
41425W        W42289  24.242  20.028   6.936 -0.1704  0.1443  0.3742
41426W        W42290  24.377  13.658  19.773 -0.3492 -0.1093 -0.1557
41427W        W42291  18.987   5.063  13.112  0.1097 -0.0299  0.0369
41428W        W42292  25.591  23.845   3.529  0.1977  0.0117 -0.1684
41429W        W42293  11.734   2.805   2.861 -0.2296  0.1209  0.0097
41430W        W42294  10.659   7.697   9.876  0.2668  0.1482 -0.0378
41431W        W42295  25.788   6.740   9.840  0.0786 -0.2384 -0.2471
41432W        W42296  17.970   2.006  22.887 -0.1968 -0.0253 -0.1914
41433W        W42297   9.575  20.341  23.959 -0.2124 -0.3696  0.1032
41434W        W42298  18.650  24.852  12.051  0.0223  0.1413  0.0023
41435W        W42299  11.461   8.986  17.362 -0.1819  0.0073  0.0485
41436W        W42300  16.108   3.484   8.103 -0.2012 -0.1646  0.2242
41437W        W42301  26.422  23.206   0.164 -0.0612  0.2995  0.3164
41438W        W42302  17.129  18.212  27.989  0.0201  0.0511 -0.1930
41439W        W42303  24.376  16.218  24.832 -0.1141  0.1033  0.0414
41440W        W42304   3.151   4.575  16.109  0.1342  0.0274  0.2668
41441W        W42305  17.790   2.985  10.822  0.2695  0.1326  0.0020
41442W        W42306  14.556  24.703   1.544  0.0730 -0.1746  0.2775
41443W        W42307  26.916  16.654   1.858  0.1144 -0.3609 -0.2394
41444W        W42308  20.919  15.780  20.633 -0.2507  0.3502  0.0121
41445W        W42309  15.390  13.784   8.195 -0.1436 -0.3343  0.1978
41446W        W42310  23.206  25.100  28.895 -0.2350  0.5327 -0.1023
41447W        W42311  22.287  16.900  19.612  0.1630 -0.0521 -0.2231
41448W        W42312  24.252   9.952   6.742 -0.1218  0.1536  0.1225
41449W        W42313  22.472  14.828  23.037 -0.1774 -0.0592  0.0167
41450W        W42314  26.146  25.274   2.777 -0.1338  0.0700  0.2255
41451W        W42315  22.419   6.333  17.794 -0.1122  0.0149  0.1454
41452W        W42316   5.632  28.698  26.044 -0.0791  0.1119 -0.1759
41453W        W42317  16.853  18.956  18.258  0.1509  0.1388  0.1118
41454W        W42318   7.189  17.869  14.874 -0.2475  0.1627 -0.1051
41455W        W42319   5.147  27.739   0.191 -0.0616  0.0185  0.3410
41456W        W42320  19.443   7.249  27.153  0.0146 -0.0901  0.0462
41457W        W42321   4.137   6.063   0.885  0.2476  0.1013 -0.0048
41458W        W42322  15.053  16.843  27.853 -0.0668 -0.1573  0.6738
41459W        W42323  18.799  13.639   5.243 -0.1346  0.0537 -0.0188
41460W        W42324  28.149  21.692   3.778 -0.0151  0.1656 -0.0614
41461W        W42325  24.099   3.399  17.782  0.0454 -0.1161 -0.1101
41462W        W42326  13.067   7.243  28.097 -0.0501 -0.0987 -0.0889
41463W        W42327  21.363  12.403  14.308  0.2067 -0.1158  0.0696
41464W        W42328   6.406  27.764   5.403  0.0527 -0.0380  0.3488
41465W        W42329  20.170  27.831  27.668  0.1728  0.2187  0.1890
41466W        W42330  25.262  19.955  18.537 -0.1178 -0.0866 -0.1614
41467W        W42331   2.887  26.181   5.533  0.0275 -0.0504  0.2622
41468W        W42332   9.762  13.770  25.547  0.0361 -0.3097 -0.0594
41469W        W42333   1.041   7.305   8.747  0.0719  0.0013 -0.0783
41470W        W42334  15.285  16.677  24.488 -0.0720 -0.1181 -0.0637
41471W        W42335  12.269  10.657  23.594  0.0303  0.0689  0.0540
41472W        W42336  22.265  13.410  19.019 -0.0958  0.1487  0.0579
41473W        W42337   4.337  17.554  22.000  0.3024  0.2267  0.1135
41474W        W42338  10.726  23.496  27.520  0.0770  0.1510  0.3052
41475W        W42339  13.277  20.463   6.718 -0.0380 -0.1559 -0.0498
41476W        W42340   2.441  13.888  10.134 -0.1046 -0.2731 -0.0708
41477W        W42341   4.703  27.792   6.678  0.1452  0.1804  0.0133
41478W        W42342   4.136  24.488  18.508  0.1965 -0.0579  0.0264
41479W        W42343   7.359   1.576  28.370  0.1099  0.0316 -0.1236
41480W        W42344  12.588  11.338  22.993 -0.2756  0.0544  0.1869
41481W        W42345  11.175   7.962   1.246  0.0243 -0.1379 -0.0390
41482W        W42346  22.723  17.956  25.466  0.0328 -0.2210  0.0941
41483W        W42347  22.964  24.748  28.053 -0.0329  0.1588  0.1391
41484W        W42348  18.358  11.224   8.681  0.0629 -0.1968  0.0636
41485W        W42349   8.214  21.672   2.144 -0.3776 -0.2419  0.3509
41486W        W42350   9.440  12.036  25.321  0.1881 -0.1366 -0.1340
41487W        W42351  16.940   7.260  14.641  0.2759 -0.0044  0.0445
41488W        W42352   3.933   5.329  16.137 -0.2526 -0.0932 -0.1499
41489W        W42353  24.614  13.107  20.094  0.1150 -0.1000 -0.0444
41490W        W42354  25.994  16.059  29.032 -0.0012  0.1802 -0.0141
41491W        W42355   3.750  24.787  12.692  0.0619 -0.0021  0.1861
41492W        W42356  24.695  19.404  26.897  0.2947 -0.0721  0.0995
41493W        W42357  14.280   0.705   7.762 -0.1209  0.0964  0.1544
41494W        W42358  12.586  27.342  18.618  0.0054  0.2159  0.3342
41495W        W42359  19.806  10.576   9.958 -0.1253  0.2619 -0.0060
41496W        W42360  29.030   7.701   5.951 -0.0423 -0.0963 -0.0001
41497W        W42361  28.977   2.350  20.802  0.0963  0.0527  0.0061
41498W        W42362  23.694   6.945  21.197 -0.0392 -0.1350 -0.1437
41499W        W42363  28.454  26.275   2.801 -0.2419 -0.0126 -0.1400
41500W        W42364  24.172  10.434  14.656 -0.3187 -0.1563  0.1176
41501W        W42365   0.649   1.750  12.647  0.0751 -0.0347  0.0052
41502W        W42366  15.301  28.348   8.261  0.2469 -0.1100 -0.2849
41503W        W42367  11.785  20.277  12.721  0.0580 -0.0901 -0.1017
41504W        W42368   6.718  10.171  15.005  0.0916 -0.3276 -0.1816
41505W        W42369  10.505  19.721  18.875 -0.1236  0.0471  0.0518
41506W        W42370  21.485  11.895  12.455 -0.0515  0.1916 -0.1152
41507W        W42371  12.957  24.399  24.926 -0.0556  0.0897 -0.3977
41508W        W42372  18.679  28.936  23.290  0.0544 -0.3140 -0.0734
41509W        W42373   9.313  11.242   4.835  0.1283  0.0219 -0.3575
41510W        W42374  14.616  13.512  13.588 -0.2744  0.0495 -0.3033
41511W        W42375   7.080  24.834  24.236  0.0423 -0.1132 -0.3526
41512W        W42376   6.108  22.819   0.554  0.0747 -0.1356  0.1035
41513W        W42377  18.093   4.317   4.994  0.0688 -0.0196 -0.0607
41514W        W42378  21.105  20.242   4.153  0.3762  0.1581 -0.1400
41515W        W42379  28.233   3.256   5.180  0.1148  0.1723  0.0924
41516W        W42380   1.622  16.135  16.515  0.1915  0.0615  0.0767
41517W        W42381  13.497   1.914   8.542  0.1990  0.0738  0.1779
41518W        W42382  21.621  21.182  26.690 -0.1561  0.3723 -0.5259
41519W        W42383  21.120  13.852   4.546 -0.1116 -0.2894  0.0758
41520W        W42384  12.511  17.484   4.438 -0.0054  0.1442  0.1659
41521W        W42385  16.953   3.846  15.499 -0.0843  0.0231 -0.1741
41522W        W42386  10.247  18.005  12.751  0.1526 -0.1085 -0.1266
41523W        W42387  11.486   3.612   7.504  0.0549 -0.1845  0.2726
41524W        W42388  25.888  16.885  28.562  0.0592  0.1941 -0.0508
41525W        W42389   3.233  20.404   0.709 -0.0798  0.0789 -0.1922
41526W        W42390  12.193  13.281  14.697  0.1097  0.1752 -0.0227
41527W        W42391  16.819  21.040   8.757 -0.1326 -0.2560 -0.2712
41528W        W42392  13.130  13.520   3.348  0.1454 -0.3014  0.1006
41529W        W42393   7.210  15.879   0.264 -0.3171 -0.0907 -0.0537
41530W        W42394   8.223  19.541   2.732  0.2259  0.0628 -0.1363
41531W        W42395  13.650   8.479  28.927  0.0197 -0.1414 -0.3590
41532W        W42396   3.065   9.846  12.688  0.3318  0.1250 -0.0638
41533W        W42397  24.209  25.155   7.533  0.2068  0.2557  0.1618
41534W        W42398  10.608   9.973  19.632 -0.1684 -0.0243 -0.0243
41535W        W42399  24.096  26.415  10.249  0.0010 -0.1454 -0.2340
41536W        W42400  23.755   3.727  13.553 -0.1263  0.1079  0.1408
41537W        W42401  18.197   4.920   0.219  0.0049  0.1364  0.0652
41538W        W42402  17.168  13.564  16.405  0.2165 -0.0312 -0.0539
41539W        W42403  13.863   3.797  25.402 -0.1082 -0.0688  0.0890
41540W        W42404  13.763   3.805  17.290  0.0945  0.3600 -0.0946
41541W        W42405   3.000  28.092  11.291 -0.4159  0.1667  0.4614
41542W        W42406  22.464   7.521  11.014  0.2149 -0.1153 -0.0588
41543W        W42407   4.240  27.365  15.304 -0.0445 -0.1557 -0.1056
41544W        W42408  19.664   9.624  25.627 -0.1292 -0.1292 -0.1138
41545W        W42409  20.077   3.176   6.217  0.1429  0.1713  0.0751
41546W        W42410  19.151  15.920   8.683 -0.1786  0.1651  0.2412
41547W        W42411  16.172  18.378   3.439 -0.3804  0.0975 -0.0256
41548W        W42412  20.782  25.353  13.607 -0.0300 -0.1907  0.0717
41549W        W42413  27.127   8.418  15.681 -0.1177  0.2124 -0.0967
41550W        W42414  22.179  14.892  10.808 -0.0868 -0.3678 -0.0795
41551W        W42415  21.044   4.651  27.745  0.0603  0.1689  0.0085
41552W        W42416   4.528  28.647   9.088 -0.1411 -0.2942 -0.0241
41553W        W42417  18.615  27.889  23.592 -0.0017 -0.2474 -0.0851
41554W        W42418  24.603  16.228  20.792  0.1292 -0.1651  0.2590
41555W        W42419  15.045  15.228  10.323 -0.1933  0.2545 -0.2232
41556W        W42420  21.907   9.681  23.740 -0.2370 -0.2257 -0.0281
41557W        W42421  23.422   5.735   0.939  0.0755  0.2703 -0.1403
41558W        W42422  28.740   9.977   0.969 -0.1326 -0.1438 -0.0752
41559W        W42423  17.154  13.357   8.201  0.2373 -0.1308  0.1327
41560W        W42424  19.559  10.500   4.656 -0.2766 -0.0554  0.2413
41561W        W42425   9.124  11.056  27.757  0.6824 -0.1187  0.1214
41562W        W42426  11.903  20.720  23.569 -0.1725 -0.1664  0.1120
41563W        W42427   1.379  11.173  18.297  0.1675 -0.0035 -0.0303
41564W        W42428  27.251  18.825  11.678 -0.0232  0.0844 -0.1014
41565W        W42429  17.622   7.531   6.181 -0.0098 -0.0377 -0.0522
41566W        W42430  11.177   4.652  11.316  0.5109 -0.3298 -0.0905
41567W        W42431  14.424  25.124  11.722  0.2080 -0.0213  0.2664
41568W        W42432  19.158  26.156  12.093  0.0232 -0.2103 -0.1622
41569W        W42433   2.200  26.655   2.812  0.0300 -0.2237  0.1182
41570W        W42434   0.785  24.285  25.990 -0.1201 -0.0136 -0.2086
41571W        W42435  27.969  23.075  28.392 -0.1797 -0.0271  0.1000
41572W        W42436   1.986   1.927   5.221  0.0563  0.1244 -0.1834
41573W        W42437  20.647  24.835  12.345  0.4267 -0.0015 -0.0827
41574W        W42438  16.313  24.998  21.677 -0.1886 -0.0973 -0.0607
41575W        W42439   1.940  27.969  23.718 -0.0249 -0.0029  0.0815
41576W        W42440   5.484  24.203  10.786  0.3913 -0.4338 -0.0081
41577W        W42441  14.223  15.460   4.061 -0.1244  0.1478  0.0216
41578W        W42442  25.431   1.063  12.532 -0.1200  0.1907  0.2868
41579W        W42443   3.344  27.265  14.150  0.0738  0.1323  0.1606
41580W        W42444  15.548  26.133  24.112  0.1574  0.1676  0.1427
41581W        W42445  16.023  12.879  28.246  0.2552  0.0530 -0.1829
41582W        W42446   9.743  16.693  21.483 -0.2098  0.3438 -0.1619
41583W        W42447  26.928  20.991  27.183 -0.0157  0.0371  0.0714
41584W        W42448   0.490  14.941   9.396 -0.1953 -0.0218  0.3540
41585W        W42449  20.837  25.406  12.419  0.0724  0.0179 -0.3305
41586W        W42450   4.118  25.817   9.672 -0.0346 -0.0297  0.1570
41587W        W42451  25.965   1.956  21.300 -0.0965  0.1426  0.0618
41588W        W42452   8.297  17.157  13.188  0.2954  0.2709 -0.1800
41589W        W42453  28.445   4.550  14.882  0.0254 -0.1363  0.3734
41590W        W42454  22.452  11.933   7.651  0.1212  0.2966 -0.2158
41591W        W42455   8.878  23.761  19.798  0.2667 -0.0296 -0.4094
41592W        W42456  25.895   4.727   1.298 -0.0619  0.0216  0.1819
41593W        W42457  10.401  24.981  15.458 -0.1313  0.1457  0.2419
41594W        W42458  13.838  14.740  16.235 -0.2095 -0.1783 -0.0469
41595W        W42459  18.970  28.397  17.601  0.1206  0.0046  0.1288
41596W        W42460   7.092  16.430   9.612 -0.0817 -0.1523  0.1482
41597W        W42461  27.988  26.970  17.048 -0.2004 -0.1106 -0.0492
41598W        W42462  21.386  23.329  14.740 -0.1262  0.2753 -0.0132
41599W        W42463   8.767   1.430  26.240  0.2055 -0.1444  0.2609
41600W        W42464  16.821  23.997  24.430 -0.1409 -0.1128  0.0949
41601W        W42465  12.447  14.108   5.773  0.2226 -0.1173  0.1700
41602W        W42466  18.831   9.422   0.030  0.2758  0.5122 -0.0481
41603W        W42467  14.553  20.591  21.014  0.2076 -0.3314  0.0553
41604W        W42468  10.476  15.445   2.963 -0.0386  0.0025  0.1069
41605W        W42469  22.910  26.230   9.154 -0.3590  0.0213  0.0293
41606W        W42470   7.525  21.084  12.293  0.1218 -0.1000  0.2416
41607W        W42471  21.139  22.166   1.396 -0.1758  0.2477  0.1297
41608W        W42472  21.781  24.429   5.936 -0.0729  0.1352  0.1355
41609W        W42473  21.873  24.525  11.903  0.0072 -0.0497 -0.0820
41610W        W42474   5.983  22.190  12.599  0.3192  0.1597  0.0833
41611W        W42475  19.427   6.608  21.987  0.0861  0.0918 -0.0003
41612W        W42476  27.981  11.606   6.178  0.0369 -0.0180  0.1236
41613W        W42477   5.182  10.173   8.654  0.1667  0.0791 -0.2940
41614W        W42478  22.723  11.159  21.774  0.0737 -0.1065  0.3093
41615W        W42479  11.666  10.029  26.168  0.0729  0.0003 -0.2086
41616W        W42480  15.274  20.273  18.865 -0.1662 -0.1107  0.1724
41617W        W42481   5.701   5.063  23.655  0.0260 -0.2516 -0.1540
41618W        W42482  29.078   3.237   7.180 -0.1916 -0.2824  0.0883
41619W        W42483   9.308  19.936   4.117 -0.1777 -0.1896 -0.0457
41620W        W42484  25.291  20.529   4.662 -0.0138 -0.0640  0.2429
41621W        W42485  11.425   2.238  23.032  0.0057 -0.1316 -0.0831
41622W        W42486  10.087  13.631  16.799  0.0338 -0.0853 -0.1440
41623W        W42487  26.770   9.897  11.384  0.1734 -0.0506  0.0654
41624W        W42488   0.110  19.465   2.550 -0.0412  0.0849  0.2093
41625W        W42489  13.118  12.329   2.355  0.3585  0.0208  0.0408
41626W        W42490  20.711   5.056  28.901 -0.3321 -0.0998 -0.0141
41627W        W42491  21.294  22.907  20.191  0.1278 -0.1266 -0.0752
41628W        W42492  25.683  16.338   4.205  0.0868 -0.4134  0.0421
41629W        W42493  25.371  18.704  10.579 -0.2055 -0.0186  0.1593
41630W        W42494  21.058  19.884  25.926  0.2359  0.1846 -0.1818
41631W        W42495  18.282  12.340  15.281 -0.0954  0.0496  0.0431
41632W        W42496  14.998  10.816  11.510 -0.4542  0.0375  0.1248
41633W        W42497  24.595   2.902   3.914 -0.1362 -0.0214 -0.5000
41634W        W42498  28.373   2.613  25.319 -0.6225  0.4567 -0.0764
41635W        W42499  28.336  20.366   1.423 -0.1392 -0.0590 -0.2116
41636W        W42500  23.086   7.052   2.898  0.0723 -0.1842  0.0015
41637W        W42501  18.429  23.900   0.405  0.1202  0.2379  0.0394
41638W        W42502  22.553   2.285  27.840  0.2101  0.0498  0.0119
41639W        W42503  17.636  11.275  14.833  0.0486  0.1341 -0.0125
41640W        W42504  19.329   9.539  26.633  0.0137 -0.2148  0.0433
41641W        W42505  23.651   5.533   3.285  0.2382  0.2014  0.0278
41642W        W42506   2.089  19.866  22.758 -0.0329  0.1156 -0.1460
41643W        W42507   1.900  16.414  17.973  0.1327  0.1781  0.0466
41644W        W42508  18.520   2.093   9.965  0.1909  0.0870  0.1920
41645W        W42509  16.782  11.398  22.991 -0.0580  0.0535  0.0093
41646W        W42510  22.416   6.192  11.172  0.0425  0.4177  0.2140
41647W        W42511  13.787  12.274  25.546 -0.2039  0.0657 -0.1292
41648W        W42512  21.608  20.372   1.628 -0.0869  0.3001  0.0606
41649W        W42513  21.626   7.407  17.400  0.0345 -0.1461  0.2412
41650W        W42514  20.803   7.322  21.540  0.0260 -0.2407  0.0985
41651W        W42515  22.509  14.994  11.432 -0.0552  0.0001  0.2010
41652W        W42516  18.598  24.254  23.635 -0.0553  0.1026 -0.0934
41653W        W42517  10.866  18.755   9.593  0.0096  0.3514  0.1065
41654W        W42518  28.653  10.151   5.227  0.0616 -0.0071  0.2338
41655W        W42519  11.081  25.985   3.077 -0.0244  0.0883 -0.0473
41656W        W42520  13.174   3.457  17.319  0.2069  0.2651 -0.0979
41657W        W42521  15.354  28.332  22.567  0.1423  0.1413  0.4724
41658W        W42522  15.274   4.977   2.566 -0.3566  0.0170 -0.0711
41659W        W42523   3.426  16.988   3.678  0.1886  0.0902 -0.0754
41660W        W42524  20.639   9.948  13.254  0.1260 -0.5387  0.4014
41661W        W42525   2.286  13.219   7.432 -0.5274 -0.2663  0.0001
41662W        W42526   5.893  11.131   5.428 -0.0999  0.0911  0.1575
41663W        W42527  14.660  27.239   8.358 -0.1651  0.0505  0.0007
41664W        W42528  19.487   0.496  10.903  0.1064  0.0127 -0.0804
41665W        W42529  10.693   0.178  26.937 -0.3595  0.1265 -0.0008
41666W        W42530  15.927   1.751   4.649  0.2167  0.2191  0.0427
41667W        W42531  27.150  17.990  15.411 -0.0773  0.0856 -0.1099
41668W        W42532  23.713  10.936   6.485 -0.1256  0.0531  0.0301
41669W        W42533  15.635  12.435   8.407  0.1475  0.0267  0.1209
41670W        W42534  29.011  15.052  16.284 -0.1297 -0.0935  0.2269
41671W        W42535   4.373  22.748   2.132  0.0428  0.3038  0.0010
41672W        W42536   5.810   9.460  26.992  0.1129  0.1399 -0.3498
41673W        W42537  12.854  18.227   6.517 -0.0216 -0.0402  0.2058
41674W        W42538  21.997  25.878  25.174  0.0434  0.0574  0.0602
41675W        W42539  26.837  10.870   7.308  0.4207 -0.0907 -0.0048
41676W        W42540  21.011  27.375  14.725 -0.0707  0.2480  0.2622
41677W        W42541  27.072  11.815  22.309  0.0496 -0.0888 -0.2211
41678W        W42542  18.888  16.657  14.902 -0.0492 -0.0698  0.3075
41679W        W42543   0.693  15.162   9.010  0.1365 -0.1925  0.1697
41680W        W42544  18.999   5.981   8.984 -0.0046  0.2209 -0.0748
41681W        W42545  19.526  21.821  10.888 -0.0365  0.0547 -0.1389
41682W        W42546   8.046  20.959   0.691 -0.2749 -0.2039 -0.1162
41683W        W42547  18.715  20.341   3.252  0.0238  0.1326  0.2624
41684W        W42548  27.818  28.917  27.645  0.1955 -0.0542  0.0028
41685W        W42549  14.743  18.694  28.205 -0.1693 -0.2316  0.0330
41686W        W42550  20.414  23.710  26.928  0.1356  0.0504 -0.3114
41687W        W42551  11.514  15.727  25.594 -0.1914 -0.0492 -0.0735
41688W        W42552   6.229  28.855   6.493  0.3283 -0.1212 -0.0494
41689W        W42553  27.923  18.427  26.656  0.0886 -0.0440  0.0284
41690W        W42554  17.007  13.386  26.844  0.2074 -0.0346 -0.0494
41691W        W42555   0.946  13.427  19.751  0.0788 -0.2226  0.0915
41692W        W42556  20.914  13.548  14.778  0.0425  0.1504  0.1801
41693W        W42557  21.280  17.108  16.220  0.1027  0.1312 -0.1020
41694W        W42558  18.796   7.651  10.398 -0.1296 -0.1016 -0.3103
41695W        W42559   2.478  18.633  17.318  0.0497  0.0172 -0.0295
41696W        W42560  28.115   1.184   2.582 -0.1515 -0.0117  0.0913
41697W        W42561   4.121  24.864   5.806  0.1268 -0.3941 -0.3270
41698W        W42562  10.334   4.817   7.013  0.1053  0.2773 -0.1829
41699W        W42563  10.473  17.718  22.646 -0.0265 -0.1183  0.1387
41700W        W42564  17.344  16.042   1.477  0.2252 -0.1281 -0.1451
41701W        W42565  10.634  17.363  23.874  0.2315 -0.0931  0.0926
41702W        W42566   2.560  14.476  16.108 -0.0772 -0.0045  0.1089
41703W        W42567  22.481   1.311  21.364 -0.2602 -0.2422 -0.0942
41704W        W42568  17.453   1.121  17.081 -0.0973 -0.0534 -0.0132
41705W        W42569  16.071  27.187   4.438  0.2900 -0.1131 -0.1560
41706W        W42570  25.642  28.620   6.887  0.3633 -0.1074  0.0715
41707W        W42571   6.951  28.989   5.837 -0.0568 -0.0867  0.0241
41708W        W42572  15.527   3.899  15.316  0.0429  0.2023  0.1993
41709W        W42573  11.057   5.163   0.990 -0.3473 -0.0031  0.0176
41710W        W42574  28.059  25.234  23.725  0.3293 -0.1856  0.0384
41711W        W42575  28.295  22.204   7.948  0.1375  0.1641  0.0041
41712W        W42576   8.082  24.869   9.514  0.1658  0.1046  0.2590
41713W        W42577  13.990  27.170   3.211  0.1663 -0.1915  0.2555
41714W        W42578  25.839   8.260  19.226 -0.2827  0.0077 -0.1614
41715W        W42579  14.420  17.401   7.194 -0.0344 -0.0660  0.0584
41716W        W42580  23.061  13.909   9.460 -0.1584 -0.0562 -0.1699
41717W        W42581   5.148  19.368  28.119 -0.1204 -0.0655  0.0373
41718W        W42582  27.852  24.370  28.985 -0.2456 -0.2546  0.2672
41719W        W42583  20.858   8.000  17.555 -0.1440  0.3633  0.2072
41720W        W42584  24.205  22.555   0.387 -0.1288 -0.4426 -0.1832
41721W        W42585  23.618   7.382  11.560  0.0562  0.1020  0.1104
41722W        W42586  22.768  10.822  28.424  0.0673  0.1131  0.3255
41723W        W42587  15.876  23.375  10.778  0.3155  0.3477 -0.1803
41724W        W42588  12.013  28.027  10.600  0.0278  0.0555 -0.0914
41725W        W42589   6.328   8.638  17.409  0.4068  0.0279  0.0524
41726W        W42590  12.307  10.333   3.344  0.2088 -0.1608  0.4184
41727W        W42591  19.506  26.808  10.426 -0.0315 -0.0520 -0.0369
41728W        W42592   8.255   6.629  10.622 -0.0535  0.1139  0.0986
41729W        W42593  27.928  22.253  23.591 -0.0655  0.3814  0.1748
41730W        W42594   2.488  26.191  16.420 -0.2775 -0.0378 -0.0761
41731W        W42595   2.682   9.922  14.239 -0.4189  0.2287 -0.0148
41732W        W42596   4.708  11.573   7.879  0.2699  0.3059  0.1190
41733W        W42597  25.009  18.782  13.509  0.1374 -0.1769  0.2053
41734W        W42598   1.894   7.210  18.793 -0.0878 -0.0811  0.1037
41735W        W42599  11.312  26.258  27.309  0.2875 -0.0291 -0.2778
41736W        W42600   7.112  25.974  23.166  0.0228  0.0135  0.3226
41737W        W42601  13.760   3.830  22.437 -0.2657  0.0561 -0.0714
41738W        W42602  19.448   4.736   4.662 -0.1288  0.0029  0.2623
41739W        W42603   9.832  21.423  22.015  0.3071 -0.3189  0.1312
41740W        W42604  28.521  22.119  21.343  0.1414  0.0637  0.1594
41741W        W42605  13.915  21.832  17.197 -0.0280 -0.1763  0.2611
41742W        W42606   3.779   7.674  13.515  0.0417  0.2338  0.3959
41743W        W42607  12.678   0.556  12.235  0.0688  0.0496  0.1492
41744W        W42608  21.410   9.521   4.435 -0.0680 -0.0453 -0.2755
41745W        W42609  23.045   7.059   8.415 -0.0287 -0.0747 -0.1311
41746W        W42610  16.766  22.992   6.766  0.0790  0.0238 -0.0641
41747W        W42611  13.625   1.416  20.200 -0.0010 -0.0068  0.1347
41748W        W42612  22.267  13.110  18.612  0.2291 -0.0084 -0.0761
41749W        W42613  10.099  26.887   4.554 -0.1704  0.0482  0.2382
41750W        W42614   2.839  27.055   6.969  0.4746 -0.1891 -0.0251
41751W        W42615  20.362  21.995  10.367 -0.0680 -0.2147  0.1025
41752W        W42616  20.305   2.523   6.288 -0.1834 -0.0090  0.0393
41753W        W42617  13.154  16.495  19.879 -0.3527  0.2636 -0.1487
41754W        W42618  11.107   3.169   4.125  0.4487 -0.0449  0.2144
41755W        W42619  23.363  19.620  10.934 -0.2074  0.2104 -0.0565
41756W        W42620  18.598  23.378  27.940 -0.1252  0.0480 -0.0080
41757W        W42621  15.453   6.945  10.375  0.1065 -0.1980  0.0208
41758W        W42622  16.972  11.669  20.637  0.2477  0.1106  0.3559
41759W        W42623  15.222  16.138   4.369  0.2772 -0.1342  0.0285
41760W        W42624  22.883  18.012  20.770  0.1599 -0.1813  0.2308
41761W        W42625  25.496  23.022   7.564  0.1016 -0.4646  0.2286
41762W        W42626  19.451  14.155   7.442  0.0588  0.1255 -0.3573
41763W        W42627   0.356  14.322   9.573  0.2630  0.2400 -0.0289
41764W        W42628  28.363   9.352   9.596  0.0167 -0.1856 -0.3206
41765W        W42629  10.455  13.154   3.236  0.0410  0.3127  0.3015
41766W        W42630  27.220   8.174  10.103  0.0384  0.0901 -0.1107
41767W        W42631  18.332  11.759   8.923 -0.1383  0.0229 -0.3070
41768W        W42632  20.412   7.908  11.072  0.1365 -0.2619 -0.0445
41769W        W42633  16.385   4.639   5.524  0.1089  0.1723 -0.1322
41770W        W42634  24.601  24.358  27.526  0.0743 -0.0365 -0.1200
41771W        W42635  26.032  18.587  11.336  0.1500  0.2105 -0.2379
41772W        W42636  28.630  18.136   6.133  0.0380  0.0738 -0.2639
41773W        W42637  18.059  22.166   2.878 -0.0016  0.2404 -0.2698
41774W        W42638   8.974   3.898  21.533 -0.0437 -0.1222  0.2994
41775W        W42639  16.471  17.803  13.846 -0.1684  0.0183  0.1555
41776W        W42640  15.553   8.887  27.233 -0.2913  0.0952 -0.0861
41777W        W42641  11.728  17.774   0.489  0.1976  0.1824 -0.1441
41778W        W42642   0.155  15.477  19.568 -0.2306  0.1790  0.0300
41779W        W42643  21.884  13.627  14.842  0.0298  0.0806 -0.2422
41780W        W42644  13.046   0.954   3.803  0.1182 -0.0940 -0.0645
41781W        W42645  21.155   8.561  11.293  0.2660 -0.3376 -0.1048
41782W        W42646  18.890  11.909  10.340  0.1015 -0.1624  0.2907
41783W        W42647  25.183  17.520   5.052 -0.0070  0.1626 -0.0671
41784W        W42648  18.850   3.488  16.770  0.2078  0.1734  0.0686
41785W        W42649  18.883  20.855  20.266 -0.1324 -0.0698 -0.1209
41786W        W42650  24.392  24.145   5.033  0.2746  0.0615 -0.3099
41787W        W42651  19.067  12.956  16.965  0.0154  0.0079  0.1069
41788W        W42652  24.853   0.445  27.728 -0.0463 -0.0670  0.0707
41789W        W42653   9.801  11.663  12.524 -0.0246 -0.2217  0.0822
41790W        W42654   0.619   2.699   5.184  0.1017  0.0473  0.0647
41791W        W42655  17.708  23.493  26.931 -0.1789  0.1004 -0.3051
41792W        W42656   7.173  18.811  24.461  0.0801 -0.2581  0.1556
41793W        W42657   2.970   5.537   0.433  0.0465 -0.0209 -0.2070
41794W        W42658  20.361  11.428  27.017 -0.0691 -0.0096  0.0419
41795W        W42659  11.765   8.268  14.546 -0.2150  0.0454  0.1145
41796W        W42660  25.115  15.402  23.744 -0.0182 -0.1322 -0.1765
41797W        W42661  25.192  12.184   8.503 -0.1009 -0.0789  0.4490
41798W        W42662   1.880  12.045  11.883  0.0481  0.0845  0.0712
41799W        W42663   1.844  19.605  22.051  0.2029 -0.1559 -0.0611
41800W        W42664   7.929  13.375  16.630  0.0263 -0.0772 -0.1064
41801W        W42665  16.221  21.513   7.557 -0.1117 -0.0474 -0.1639
41802W        W42666  26.001  11.524   4.927  0.0690 -0.2201  0.1384
41803W        W42667  16.027  10.839   5.293 -0.0478  0.0620  0.1422
41804W        W42668   8.321  19.214  23.125 -0.2470 -0.0191 -0.2789
41805W        W42669  27.000  18.113   6.966  0.0029  0.3105 -0.0734
41806W        W42670  16.083   8.963   3.270  0.0409 -0.4272 -0.1266
41807W        W42671  22.852   7.466   8.150 -0.0091 -0.0207  0.1468
41808W        W42672  22.321  23.410  25.682  0.2510  0.2423 -0.3294
41809W        W42673  26.526  24.961  13.899 -0.1974  0.0348  0.0751
41810W        W42674  12.196  19.280   2.895 -0.0894 -0.0636  0.0061
41811W        W42675  25.722  26.400  14.666  0.0350 -0.0179  0.2869
41812W        W42676  24.549  15.872   1.306  0.2208  0.1508 -0.2350
41813W        W42677  10.451  15.195  15.660 -0.3150  0.0409 -0.1700
41814W        W42678  15.312   1.514  10.176 -0.0755 -0.0958  0.1578
41815W        W42679  10.245  26.871  14.483 -0.0309 -0.0107 -0.5164
41816W        W42680   1.371  13.990  16.872  0.1622 -0.1304  0.0449
41817W        W42681  21.206  13.795  11.270  0.0958  0.0593  0.2312
41818W        W42682  12.654  27.596  19.273  0.0727  0.2050 -0.2126
41819W        W42683  15.286  22.445  11.402 -0.0937 -0.0188  0.3571
41820W        W42684   7.062   7.107  20.701 -0.3209  0.0574  0.0716
41821W        W42685  17.673  16.109   8.407 -0.1287  0.0575 -0.0474
41822W        W42686  13.218  26.642  24.645  0.2950 -0.4123 -0.0863
41823W        W42687   5.582  26.532  15.983 -0.2454  0.4071 -0.0147
41824W        W42688   2.024  27.726   9.344 -0.1102 -0.0290 -0.2480
41825W        W42689   6.333   8.616  20.014  0.1841 -0.0879 -0.0944
41826W        W42690  16.032  15.931  15.104  0.0369 -0.1052 -0.1954
41827W        W42691  10.696  19.710  12.090  0.0412 -0.0711  0.1236
41828W        W42692  15.869  12.573  17.285 -0.0028 -0.0046 -0.0447
41829W        W42693  20.844  11.366  11.805  0.1082  0.0532 -0.3165
41830W        W42694  13.694  27.438  17.813 -0.3403 -0.1757 -0.0930
41831W        W42695  20.212  22.120  27.789 -0.0547 -0.2539 -0.0247
41832W        W42696  15.110  23.607   2.401 -0.0357  0.1166 -0.3009
41833W        W42697  12.538  21.248  20.939 -0.1984 -0.2948 -0.0727
41834W        W42698  25.510   3.592   0.195 -0.1863  0.1708 -0.0786
41835W        W42699  27.068  18.570   7.205  0.1017  0.0914 -0.0185
41836W        W42700   4.091  10.856  10.655 -0.1496  0.2353 -0.0798
41837W        W42701  17.169  19.575   5.431 -0.4011  0.0117  0.0910
41838W        W42702  26.694  11.207  15.008 -0.3793  0.1531 -0.0325
41839W        W42703  19.874  14.777  12.201 -0.2949  0.2375 -0.4526
41840W        W42704  18.598  18.172  16.303 -0.0733  0.0358  0.1013
41841W        W42705   0.256   8.372   6.133  0.0224 -0.1383  0.0572
41842W        W42706   2.207  27.300  18.975  0.2273  0.4118  0.0035
41843W        W42707  23.510  16.228  20.104  0.1971 -0.1708 -0.3952
41844W        W42708  18.066   5.069  12.404 -0.0789  0.1046  0.0919
41845W        W42709  18.890   7.069  10.403  0.1335 -0.2347  0.2257
41846W        W42710  19.956   0.627  17.179 -0.3469 -0.2845 -0.1541
41847W        W42711  12.478  19.136   3.307  0.3510 -0.2273  0.1397
41848W        W42712   3.141   5.580  12.400 -0.1411  0.2433 -0.2028
41849W        W42713  24.548  11.498  11.777  0.0429 -0.2847 -0.0553
41850W        W42714  21.618  19.864  12.741 -0.2094  0.0465 -0.1806
41851W        W42715  11.877  12.708  17.408 -0.0135  0.1219 -0.1500
41852W        W42716  21.322  28.945   1.165  0.0144 -0.1268  0.1702
41853W        W42717  18.181  16.420  11.356 -0.0057  0.3335 -0.1872
41854W        W42718  12.198   8.649  14.482 -0.2573  0.2363 -0.0161
41855W        W42719   2.011  14.397   2.120  0.2069  0.1090 -0.1806
41856W        W42720  28.309   6.872  17.363  0.0909  0.4312 -0.0338
41857W        W42721  12.481   2.435   7.007 -0.0076  0.0415 -0.0043
41858W        W42722   1.146  20.464  27.837  0.2565  0.3717 -0.1116
41859W        W42723  22.726  16.197  12.561 -0.0839 -0.0758 -0.1212
41860W        W42724   9.045  17.266   0.426  0.1846 -0.0513  0.0147
41861W        W42725  26.131   6.222  24.354 -0.0541 -0.1806 -0.2173
41862W        W42726  28.046  21.435   6.862  0.0599  0.2001 -0.2101
41863W        W42727  26.617   6.143  14.229 -0.4671 -0.1228 -0.0898
41864W        W42728  16.147   0.885  24.926  0.4156  0.1072 -0.1588
41865W        W42729  22.418  19.437  19.223 -0.2161  0.0920  0.0527
41866W        W42730   2.513  17.229  20.195 -0.1674  0.0257  0.0571
41867W        W42731   1.418  17.396  26.022 -0.1000 -0.3884 -0.2631
41868W        W42732   9.165   7.342   6.057  0.1052 -0.3245  0.3526
41869W        W42733  25.622  15.121  12.845 -0.0786  0.1834  0.0541
41870W        W42734  25.771  18.773  24.978  0.2263 -0.3714 -0.1775
41871W        W42735  17.222  25.942  27.930 -0.2526  0.2259  0.4238
41872W        W42736  25.588  23.629  14.359 -0.1618  0.4116 -0.2653
41873W        W42737  28.665   5.252  24.894  0.1820 -0.1478 -0.2218
41874W        W42738   3.625  19.791  13.291 -0.1308  0.4362 -0.0615
41875W        W42739  10.869  28.425  17.858 -0.2428  0.0430 -0.0822
41876W        W42740  21.133  23.017   8.867  0.0253  0.2914 -0.1575
41877W        W42741   3.528  12.166   8.301 -0.1362  0.4337  0.0068
41878W        W42742  18.663  14.279   5.887  0.2702 -0.2244  0.0718
41879W        W42743  23.993   7.555  19.178 -0.2555 -0.1546 -0.4312
41880W        W42744  20.026  24.595  12.690 -0.2051 -0.2285  0.0030
41881W        W42745  18.549  12.088   5.511 -0.1270  0.1893 -0.0423
41882W        W42746  27.157   9.352   6.863  0.0242  0.3161 -0.1205
41883W        W42747  14.077  25.201  20.270 -0.2127 -0.0626 -0.1079
41884W        W42748   9.407  27.073  13.133  0.1929 -0.1954 -0.1399
41885W        W42749  15.013  13.569  29.034 -0.0336  0.3486  0.3896
41886W        W42750  11.505   3.511  15.335  0.1043  0.0612  0.0293
41887W        W42751  17.384  16.221  11.733 -0.0674 -0.1897 -0.1433
41888W        W42752  10.584  27.354  16.989 -0.4029  0.2142 -0.0100
41889W        W42753  25.847  16.529   3.392  0.3004  0.0370 -0.2049
41890W        W42754   4.873  13.450   2.998  0.0150 -0.1799 -0.1874
41891W        W42755  16.317   1.541   4.782 -0.2807  0.3029 -0.1218
41892W        W42756  20.069   9.913   5.142  0.0450  0.2036 -0.3717
41893W        W42757  10.656  11.960  23.677 -0.1577  0.2053  0.0427
41894W        W42758  28.115   2.424   6.016 -0.1255  0.0344 -0.0327
41895W        W42759  22.602   2.823  13.593 -0.2273 -0.0313 -0.0519
41896W        W42760  17.329  27.728  12.480 -0.0259  0.1256 -0.0378
41897W        W42761   0.577  10.679  15.552 -0.2917  0.1048 -0.1419
41898W        W42762  14.895  14.534   0.231  0.0566 -0.2866 -0.0995
41899W        W42763  20.275  16.403  11.939 -0.1944  0.1536  0.2343
41900W        W42764  28.498  25.418  28.156  0.0945 -0.1853 -0.1643
41901W        W42765  18.855  20.034   2.469 -0.1780 -0.1838 -0.2593
41902W        W42766   6.999  12.149   3.843  0.2498 -0.0272  0.3144
41903W        W42767  12.750  14.993  28.131 -0.1350  0.2076  0.1441
41904W        W42768  23.393   4.407  28.584  0.0961 -0.0081 -0.4044
41905W        W42769  16.386   7.575  15.722  0.0038  0.2954 -0.1208
41906W        W42770  24.173   9.277  23.996 -0.0380  0.1299 -0.0659
41907W        W42771   3.150   5.305  24.301  0.0032  0.3153 -0.3757
41908W        W42772  15.396  18.895   8.100 -0.0986  0.3437  0.3991
41909W        W42773   1.453  22.419  14.274  0.0973  0.0066  0.3053
41910W        W42774  23.298   8.043  27.901  0.1074 -0.1212  0.2713
41911W        W42775  14.424   6.593  17.589  0.4859  0.2674  0.0782
41912W        W42776  21.277  13.093   3.788  0.1317 -0.0999  0.2929
41913W        W42777  19.889  18.137  16.121  0.0351  0.0691  0.0277
41914W        W42778  16.410  17.034  25.522  0.0080  0.2875 -0.0211
41915W        W42779   0.636   5.133   7.003  0.3118 -0.1173 -0.0935
41916W        W42780  11.774   4.774  12.756 -0.0472 -0.0325 -0.0174
41917W        W42781  29.116  20.367   6.154  0.1122  0.0553  0.2477
41918W        W42782  25.182  20.968   9.386 -0.0835  0.4296  0.0056
41919W        W42783   2.145  16.066  23.025 -0.0212 -0.0720  0.1279
41920W        W42784  19.144  11.098   9.291  0.2480 -0.0216  0.0352
41921W        W42785   0.550  20.640  25.652 -0.3157 -0.4276  0.0174
41922W        W42786   3.214  12.997  20.050  0.2367 -0.0908  0.0761
41923W        W42787  14.204   7.057  25.436 -0.1319  0.4200 -0.0042
41924W        W42788  15.851   3.992   9.634  0.1474  0.0232 -0.1652
41925W        W42789   8.587  18.518   0.467 -0.0436 -0.2118  0.2454
41926W        W42790   0.811  28.316  25.142 -0.0431  0.1378 -0.0102
41927W        W42791   3.137   3.586   6.031 -0.0357  0.0376  0.0825
41928W        W42792  20.624  13.429  16.624  0.2876 -0.0583 -0.3265
41929W        W42793  10.773  16.573   4.303  0.0618 -0.1134  0.2093
41930W        W42794   2.957  16.360   4.793  0.5231  0.2597  0.2995
41931W        W42795  19.576  16.846   1.798 -0.0994 -0.3683  0.3275
41932W        W42796   7.494  17.342   0.095  0.0198  0.0389 -0.0816
41933W        W42797  24.456   0.276  14.447 -0.4217  0.2321 -0.1741
41934W        W42798  10.744  11.912  14.850  0.3907  0.0578  0.1356
41935W        W42799  12.710   7.663   8.172  0.0279  0.0510 -0.0073
41936W        W42800  25.699   9.803   1.106  0.3997  0.0163 -0.3262
41937W        W42801  28.450   1.891  14.138 -0.1662  0.3012  0.1265
41938W        W42802  10.016  20.533  16.015 -0.0514 -0.0104  0.0336
41939W        W42803  14.599  16.695   8.014 -0.2377 -0.1279  0.2920
41940W        W42804  18.235  21.350  12.594 -0.0736  0.1098 -0.0395
41941W        W42805  20.396  11.349   2.324 -0.1023 -0.0076 -0.1534
41942W        W42806  17.999   7.629   2.396 -0.1520 -0.1440 -0.2415
41943W        W42807  18.067  14.028   9.849 -0.1440 -0.0141  0.3009
41944W        W42808   4.509   6.952  20.544 -0.1303 -0.0853 -0.2746
41945W        W42809  24.018  17.444  23.244 -0.2813  0.0148  0.2926
41946W        W42810   1.224  23.280  23.630 -0.1228  0.1056  0.2237
41947W        W42811  14.839  16.688   5.065  0.0726 -0.1774  0.1422
41948W        W42812  10.837  12.485  14.169 -0.0786 -0.0102 -0.0253
41949W        W42813   9.848   2.285   5.711  0.2820 -0.3037  0.0027
41950W        W42814   2.202  11.660  23.643 -0.2747 -0.1679 -0.0936
41951W        W42815  12.260  25.073  19.312  0.2053 -0.1319  0.2120
41952W        W42816  19.045  25.525  28.634 -0.2452 -0.0876 -0.1976
41953W        W42817  10.968  20.993  14.414 -0.0627 -0.0469 -0.0399
41954W        W42818  22.282  14.955  12.723 -0.1514  0.0251 -0.1702
41955W        W42819  25.561  16.026   8.682 -0.0626 -0.3932  0.1519
41956W        W42820  25.735   4.131  19.305 -0.0755 -0.0243 -0.0543
41957W        W42821  17.890  15.686  17.600  0.1933 -0.2362 -0.2225
41958W        W42822  13.231  18.395   7.388  0.3392 -0.4880  0.1369
41959W        W42823  16.174   1.982   8.899 -0.2152  0.1455 -0.0459
41960W        W42824   0.227  20.078  20.980  0.2671  0.0157  0.3914
41961W        W42825  22.953   7.811  10.996  0.2290 -0.4514 -0.1009
41962W        W42826  12.290  18.833  21.644  0.1301 -0.0657 -0.1649
41963W        W42827  28.833  18.716   6.272 -0.0004 -0.1600 -0.1511
41964W        W42828  21.288  21.389  15.696 -0.1927  0.3456  0.0957
41965W        W42829  10.683  16.814  18.572 -0.0579  0.3310 -0.0235
41966W        W42830  13.771   8.017  10.704  0.2796  0.0098  0.4854
41967W        W42831   1.581   0.658  24.697  0.1506 -0.1715  0.2112
41968W        W42832  20.410  24.876  10.220 -0.0787  0.1374 -0.3326
41969W        W42833  15.559  23.733  11.925 -0.2118  0.2389  0.1780
41970W        W42834  16.875  25.194   8.684 -0.0351 -0.2168 -0.0177
41971W        W42835  13.888  27.993  11.323  0.2113  0.0692  0.2178
41972W        W42836  18.304  15.242  19.688 -0.1849  0.0132 -0.2893
41973W        W42837   1.067   4.983  18.254 -0.3093 -0.1139  0.0030
41974W        W42838  13.882  20.021  26.508  0.1920  0.0194  0.0069
41975W        W42839  15.926  24.045  23.239 -0.0757 -0.0646 -0.3386
41976W        W42840  22.262   6.107   8.221  0.3141  0.1746 -0.3765
41977W        W42841  21.652   0.206  21.038 -0.2660  0.1148  0.0746
41978W        W42842  13.746   0.037  15.241  0.1076  0.1676 -0.0572
41979W        W42843  28.081  14.667  13.202  0.0166 -0.0543  0.0504
41980W        W42844  19.325  22.628   9.588  0.0656 -0.0517  0.0006
41981W        W42845   4.963  19.311   7.505 -0.2199  0.3320  0.0434
41982W        W42846  17.190  11.903  18.555  0.1647  0.0193  0.0400
41983W        W42847   6.105  28.330  15.676 -0.1437  0.1301  0.2743
41984W        W42848  11.005  21.830   7.231 -0.0162  0.2530  0.0526
41985W        W42849  21.071  19.755  14.153  0.1552  0.1427  0.1728
41986W        W42850  16.385   9.367  25.370  0.2293 -0.1353 -0.1727
41987W        W42851   7.508  11.699  16.699  0.0377 -0.0804  0.0018
41988W        W42852   0.174   1.533   4.210  0.0773  0.2651 -0.2577
41989W        W42853   0.353  28.422  24.343 -0.0357  0.0804  0.1327
41990W        W42854  20.419   2.798  27.995 -0.2070  0.0940  0.1310
41991W        W42855  14.210  15.646  29.021 -0.2457 -0.3535 -0.3861
41992W        W42856  21.789  26.449  16.086 -0.2631 -0.1861  0.1297
41993W        W42857   4.548   8.410  20.823 -0.2346  0.0905  0.0908
41994W        W42858   5.757   7.950  15.641  0.0154  0.2357 -0.0679
41995W        W42859  11.669  11.987  18.664 -0.0814 -0.1843  0.3836
41996W        W42860   3.683  13.922  28.042 -0.2042  0.1389  0.1009
41997W        W42861  17.432  15.158  20.597 -0.0573 -0.1554  0.0699
41998W        W42862  20.450  15.496   9.768  0.3188 -0.2064 -0.1254
41999W        W42863  28.169  28.867   4.342 -0.0521  0.1533  0.0988
42000W        W42864  28.077  19.942  17.154 -0.1137 -0.2387 -0.1354
42001W        W42865  22.503  16.792  16.421  0.2100 -0.2054 -0.0138
42002W        W42866   6.906  20.427  11.675  0.1889  0.3785  0.0339
42003W        W42867   5.519  24.242  17.976  0.1140  0.0803  0.1588
42004W        W42868   0.938  28.847  19.389  0.0837  0.2804 -0.0798
42005W        W42869  18.825  24.055  27.666 -0.1688  0.1070 -0.2148
42006W        W42870  23.046  17.004   2.847  0.2374 -0.0259 -0.0889
42007W        W42871  27.727   3.768   3.316  0.0772  0.3808  0.0072
42008W        W42872  11.671   7.460  11.732  0.0551  0.1256 -0.2983
42009W        W42873  26.044   0.221   8.458 -0.4015  0.1069 -0.1710
42010W        W42874  24.189  18.634  10.863  0.1928 -0.1045  0.1749
42011W        W42875  14.295  27.343  20.087  0.3183  0.3659  0.0940
42012W        W42876  22.369  20.141   9.220  0.1786  0.0215  0.1969
42013W        W42877   1.889  11.584   6.007 -0.2954  0.3523  0.3018
42014W        W42878  13.976  18.980  16.036 -0.0422  0.2739 -0.2305
42015W        W42879  17.194  15.833  13.846 -0.0814 -0.3714 -0.0664
42016W        W42880  21.296  24.624  10.082 -0.1805 -0.1402 -0.0494
42017W        W42881  17.668  12.649   3.876  0.2358  0.0493  0.1309
42018W        W42882  12.506   3.102  29.010  0.1872  0.1136 -0.0480
42019W        W42883   3.442   2.248   4.427 -0.1518 -0.1675 -0.0294
42020W        W42884  15.120  15.648  10.022 -0.0878  0.2025  0.2439
42021W        W42885  21.712  28.555  22.182 -0.0466 -0.2046  0.0661
42022W        W42886  16.311  17.719  12.898  0.1596  0.5233 -0.1399
42023W        W42887  12.324  26.320  14.543 -0.2184 -0.6188 -0.0695
42024W        W42888   9.125   5.669   5.956  0.2458 -0.0904 -0.0971
42025W        W42889  14.361   4.733  12.540  0.0516 -0.0536 -0.1903
42026W        W42890   0.707  11.019  27.158 -0.1566  0.0432  0.0013
42027W        W42891  19.752  17.317  10.757  0.0947  0.2661  0.2822
42028W        W42892  16.369  24.669   2.884 -0.1014  0.0590 -0.1588
42029W        W42893   7.435  18.714   1.312  0.2221 -0.0671 -0.1333
42030W        W42894  15.618  28.708  11.269  0.0902  0.0318 -0.0703
42031W        W42895  23.798  25.407  14.730  0.0620 -0.2167  0.1155
42032W        W42896   6.604   9.940  19.700  0.1525  0.1231 -0.2134
42033W        W42897   7.589   8.381  11.503  0.4577 -0.3083 -0.0790
42034W        W42898  21.584  25.626  24.909 -0.0908  0.0117 -0.3318
42035W        W42899  29.093  27.670  22.340  0.2532 -0.0491  0.4164
42036W        W42900   1.346  13.264   5.815 -0.0206 -0.3427 -0.1247
42037W        W42901  27.114  23.097  13.893  0.0110 -0.0868 -0.1025
42038W        W42902  24.240  24.484  11.538  0.1371  0.1762  0.0556
42039W        W42903  26.492  21.615  25.178  0.0491  0.1498  0.0154
42040W        W42904  14.062  16.578   9.856 -0.1720  0.0020  0.2203
42041W        W42905  18.245  28.917  19.432  0.1107  0.1638 -0.2204
42042W        W42906   2.653  23.114  18.659  0.1637  0.3016  0.2758
42043W        W42907  20.720  12.374   4.611  0.1297 -0.1137 -0.0812
42044W        W42908  19.300  25.610   3.333  0.0571  0.1405 -0.3990
42045W        W42909  25.391   5.261  14.690  0.1370 -0.1492  0.1280
42046W        W42910  15.131  21.248   6.264 -0.0842 -0.2314  0.2352
42047W        W42911  21.773  16.710   2.277  0.1320  0.1097  0.0976
42048W        W42912   9.242  15.410  22.268  0.1495  0.0133  0.1581
42049W        W42913  28.951  18.763   0.673 -0.1104 -0.1419  0.2123
42050W        W42914  19.336  16.272  15.807  0.3028  0.1503  0.1028
42051W        W42915  26.251   3.332   8.674 -0.0881 -0.1797 -0.2329
42052W        W42916   2.938  17.810  21.714 -0.0823 -0.0492 -0.0260
42053W        W42917  27.985  17.493  28.137 -0.1959 -0.0994  0.2082
42054W        W42918   6.946   0.962  26.811 -0.3108  0.1739  0.1238
42055W        W42919  16.287   1.368   6.582 -0.1404 -0.1280  0.1910
42056W        W42920  21.000  27.946  26.663 -0.0290 -0.0809  0.0852
42057W        W42921   8.684  11.614   5.264 -0.1845 -0.1796  0.2721
42058W        W42922  12.309   1.815  19.016 -0.2067  0.0222 -0.6007
42059W        W42923   1.653  20.563  24.878 -0.0208  0.0329  0.1057
42060W        W42924  25.875  19.143  17.245 -0.1717 -0.0501  0.0079
42061W        W42925  20.179   6.953  12.510 -0.0879  0.1643  0.2710
42062W        W42926  19.672   3.148   5.915  0.3094  0.0892  0.1535
42063W        W42927  17.936  18.394  12.829  0.2716  0.0937 -0.0485
42064W        W42928  12.631   6.342  26.990 -0.0580 -0.1281 -0.0816
42065W        W42929  19.566  13.836   5.216 -0.1478 -0.1320 -0.0973
42066W        W42930   8.412   5.839   0.842 -0.0792  0.1225 -0.2014
42067W        W42931  26.288   9.198  11.310  0.3614  0.0870 -0.0776
42068W        W42932   9.207  12.141   0.770 -0.1406 -0.0954  0.2639
42069W        W42933  10.418  27.171  24.769 -0.1222 -0.3567 -0.1130
42070W        W42934  19.454  11.886  13.880 -0.0509 -0.3163 -0.0545
42071W        W42935  17.880  18.664  11.367 -0.1333  0.1601  0.2548
42072W        W42936   1.196  19.542   0.965 -0.1670  0.1552 -0.0496
42073W        W42937  27.760   2.982   7.084  0.1766 -0.2347  0.1626
42074W        W42938   9.399  28.579   0.111  0.1937 -0.5204  0.0226
42075W        W42939   0.309  22.774  18.990 -0.2536 -0.0180  0.2078
42076W        W42940  24.152  28.009  13.424 -0.1876  0.1359 -0.1107
42077W        W42941  23.548   9.929  25.398  0.1096 -0.0861 -0.0742
42078W        W42942  13.435   9.170  17.806 -0.0492  0.2293 -0.0723
42079W        W42943  24.232  16.928  17.216 -0.1831 -0.1176  0.1708
42080W        W42944  15.501  21.267   4.791  0.0408 -0.3922 -0.1789
42081W        W42945  27.561  18.687  22.057  0.0208 -0.2413 -0.1961
42082W        W42946  20.815  16.014   2.711  0.1708  0.1076 -0.1050
42083W        W42947  18.218   4.682  13.994  0.0002  0.1505 -0.0309
42084W        W42948   5.971  23.631  15.978 -0.4909 -0.0569  0.1679
42085W        W42949   2.966  27.781   6.341 -0.0235 -0.1692  0.2323
42086W        W42950   0.881   8.132  14.459  0.3340 -0.2479 -0.2394
42087W        W42951  20.362   5.356   1.407  0.1766  0.1220  0.2479
42088W        W42952   9.771   6.452  20.109  0.0062 -0.2222  0.0375
42089W        W42953   3.859  19.436   7.228  0.3688  0.0636  0.0100
42090W        W42954   8.673   1.344  21.610 -0.3090  0.0412  0.0117
42091W        W42955  25.558  23.119  23.326 -0.5827  0.1471 -0.0961
42092W        W42956  12.547  22.654   4.371 -0.0437  0.2028 -0.0798
42093W        W42957  24.515  10.956  16.990 -0.2177  0.1027 -0.1642
42094W        W42958  13.055   9.337   2.899 -0.1885 -0.1448 -0.2064
42095W        W42959  10.318  28.500   4.725 -0.1670 -0.0465  0.2345
42096W        W42960  14.397  17.867   8.359  0.1557 -0.0292  0.3454
42097W        W42961  20.692  19.705  17.155  0.2212  0.1991  0.1856
42098W        W42962  10.146  12.471   9.962  0.0965 -0.1705  0.2363
42099W        W42963   4.045  13.450  17.838  0.1054  0.0609 -0.1257
42100W        W42964  16.109  25.809  25.501 -0.2121 -0.0948  0.3405
42101W        W42965  27.719  17.666  21.339  0.1519 -0.2745 -0.0116
42102W        W42966  11.362  16.333  11.327  0.0764  0.2516 -0.0631
42103W        W42967  23.921  19.205   4.319  0.2905 -0.1768  0.1815
42104W        W42968  27.675   8.457  13.641  0.0451  0.1786 -0.0186
42105W        W42969   2.023  20.347  25.394 -0.2055 -0.2383  0.0417
42106W        W42970  26.713  29.031  21.411 -0.1196 -0.2713 -0.2451
42107W        W42971   8.124  19.956  12.322  0.1551  0.0543  0.0542
42108W        W42972  19.779  19.056   7.010 -0.0523  0.1368 -0.1089
42109W        W42973  25.253  19.293  13.215 -0.3492 -0.1340 -0.3039
42110W        W42974  17.823   7.632  26.344 -0.2622  0.0470  0.0308
42111W        W42975   1.504   0.128  29.002 -0.1739 -0.0237 -0.1791
42112W        W42976  11.199   9.568   2.751 -0.2945 -0.2088  0.0918
42113W        W42977   8.041   2.649   5.125 -0.0876 -0.0660 -0.0208
42114W        W42978  16.847  13.342   3.594 -0.0136  0.3751 -0.0017
42115W        W42979   0.582   6.687   3.701  0.0133  0.0453  0.2534
42116W        W42980  28.772  18.097   8.605 -0.0013  0.0783  0.0390
42117W        W42981   9.739   9.090   7.190 -0.0873  0.1698  0.2497
42118W        W42982   9.052   7.241  28.547 -0.0819  0.1720  0.3064
42119W        W42983   2.856  23.431  12.449 -0.1280  0.0344  0.1562
42120W        W42984  18.646  15.649  26.154 -0.2095  0.0158 -0.0556
42121W        W42985  28.197  10.727   0.429 -0.3270  0.1950  0.1637
42122W        W42986  27.431  17.852   6.869  0.1279  0.2242 -0.1520
42123W        W42987   7.331  18.876   1.992  0.0070 -0.0934 -0.0026
42124W        W42988  28.480  21.633  21.179 -0.1351  0.1434  0.4355
42125W        W42989  18.244  24.566  13.856  0.1841  0.2215  0.3986
42126W        W42990  27.975  20.910   8.394  0.2399 -0.1492  0.2225
42127W        W42991  19.732   2.704  26.827  0.1913  0.2527 -0.1453
42128W        W42992  26.118  14.794  24.904 -0.1729  0.0450  0.0865
42129W        W42993   6.724   4.756   4.176  0.1468  0.1366  0.0704
42130W        W42994   0.981  13.510  24.350 -0.3237 -0.0486 -0.1185
42131W        W42995  16.587  28.341  20.384  0.4712 -0.1254  0.0455
42132W        W42996  10.064  11.101  25.314  0.5078  0.2227 -0.1176
42133W        W42997  28.741  18.065   9.236 -0.0257  0.4670 -0.2882
42134W        W42998  14.461  20.131  12.575 -0.1432 -0.0241 -0.0463
42135W        W42999  18.837  27.326  12.174 -0.1225 -0.0698  0.1219
42136W        W43000  16.496  12.924   4.391 -0.1238 -0.0714  0.0364
42137W        W43001   9.670  24.652  18.044 -0.0277  0.0140  0.0876
42138W        W43002  13.123  24.221  12.963  0.2328 -0.0770 -0.2985
42139W        W43003  28.095   2.199  10.607 -0.0823 -0.0856  0.3768
42140W        W43004  20.595   5.120  14.415 -0.0438  0.0436 -0.4002
42141W        W43005  12.609  14.288  12.310  0.0205  0.2390  0.1383
42142W        W43006  13.774  16.486  11.544 -0.1116 -0.1246 -0.1716
42143W        W43007  19.900   1.649   3.561 -0.2172 -0.2377 -0.0838
42144W        W43008   5.522   9.860   5.540 -0.2022 -0.0570 -0.0652
42145W        W43009  17.244  24.984   9.841 -0.2233 -0.0404 -0.2548
42146W        W43010  19.361   2.152  27.978 -0.0877 -0.2068  0.1742
42147W        W43011  14.452  27.710  10.043  0.0022  0.2192  0.1058
42148W        W43012   4.514  14.696  10.240  0.1638 -0.2049  0.1733
42149W        W43013  19.181  14.423   6.509 -0.1080  0.0901  0.0067
42150W        W43014   8.394  24.971  19.709 -0.0462  0.3075  0.0884
42151W        W43015  10.871   7.665   3.248  0.0828  0.1402  0.2121
42152W        W43016  12.008  14.095  25.962 -0.2456  0.0709 -0.2234
42153W        W43017  16.524   9.310   3.111 -0.2090 -0.0010 -0.1774
42154W        W43018  27.247  27.991   2.420  0.0068  0.0329  0.0823
42155W        W43019  17.546   9.898  11.645  0.4658 -0.1650  0.1522
42156W        W43020   8.579  21.399   4.366  0.0934 -0.0215  0.0405
42157W        W43021   1.698   2.871  16.113  0.0674  0.0607 -0.0091
42158W        W43022  27.655   7.323  29.053 -0.3489  0.0757  0.0811
42159W        W43023  21.298  14.497  29.071 -0.1891  0.0304 -0.0507
42160W        W43024  16.633   6.827   8.898  0.2530 -0.4018 -0.2809
42161W        W43025  10.531  19.070   9.760 -0.0354 -0.0182  0.1117
42162W        W43026  23.365   6.888  10.575  0.0442  0.0575  0.1241
42163W        W43027  24.344   9.940  12.613  0.0091 -0.0539  0.1396
42164W        W43028  24.274  13.303  13.403 -0.1635 -0.0499 -0.1799
42165W        W43029   5.495   2.174  11.675 -0.1417 -0.2297  0.0938
42166W        W43030   9.999  24.297  18.551  0.0643  0.2641 -0.2294
42167W        W43031   5.469  15.095  24.683  0.1927 -0.1099 -0.0455
42168W        W43032  17.396  14.885  17.590  0.1095 -0.0043  0.0643
42169W        W43033   8.580  24.678  17.152  0.1736 -0.3963 -0.1666
42170W        W43034   1.750   3.981  17.499  0.0728  0.1454  0.0383
42171W        W43035  24.453  19.622  15.177  0.0434  0.2276  0.3106
42172W        W43036   2.316  28.891  23.857 -0.1652 -0.3178 -0.1279
42173W        W43037   2.673  19.297  26.830 -0.0240 -0.4128  0.3594
42174W        W43038  20.976  13.008   7.966 -0.0268  0.1041  0.0380
42175W        W43039  25.004  12.216   8.043 -0.3008  0.1576  0.2356
42176W        W43040   6.234   7.658  27.571 -0.1798  0.1088  0.0739
42177W        W43041   1.698  15.029   8.494 -0.0538 -0.1328 -0.0563
42178W        W43042  22.334  21.567  23.698 -0.4412 -0.0553 -0.2078
42179W        W43043  13.926  22.586   5.930 -0.1381 -0.1097  0.1161
42180W        W43044   7.148   7.738  15.976  0.0560  0.0893 -0.3204
42181W        W43045  11.556   4.388  25.214  0.0157  0.2500 -0.0691
42182W        W43046   4.177  17.671  11.880  0.0111  0.1721  0.0409
42183W        W43047  27.485   4.311  16.103  0.2025 -0.1353  0.2223
42184W        W43048   1.031   1.996   9.276  0.0223  0.0966  0.5154
42185W        W43049  14.874   1.706  14.767  0.0988  0.2216 -0.0083
42186W        W43050   7.871   0.502  28.858  0.0386 -0.1895  0.1752
42187W        W43051   5.127   3.143  16.474  0.3456 -0.1207  0.0101
42188W        W43052  28.842  13.092  15.177  0.0119  0.3910 -0.0526
42189W        W43053  20.865  17.317   1.813 -0.1022  0.0150  0.1842
42190W        W43054  21.252  11.123   8.030 -0.0709  0.3324 -0.1245
42191W        W43055  15.517  15.761  14.693  0.0687 -0.0536 -0.3078
42192W        W43056  21.452  19.889  10.145  0.0414 -0.1285  0.2089
42193W        W43057   5.819  28.854  15.462  0.1226  0.0467  0.2285
42194W        W43058   7.876  29.023  24.152  0.0738 -0.2225 -0.0964
42195W        W43059   2.712  18.768   1.396  0.0214 -0.3078 -0.1487
42196W        W43060  19.405  19.201  17.022  0.1772  0.1074  0.0808
42197W        W43061  19.105  27.699   8.363 -0.3464 -0.0079 -0.0755
42198W        W43062  10.514   7.092   9.864  0.2151  0.3315 -0.0777
42199W        W43063  26.734  19.639  11.955  0.2054 -0.0012  0.1165
42200W        W43064  24.649   8.477  15.020 -0.2618  0.1339 -0.2335
42201W        W43065  21.656  13.731   6.040 -0.2338  0.0574 -0.0082
42202W        W43066  19.269  19.554  13.899  0.1805 -0.1784  0.0491
42203W        W43067  20.692  15.916  19.126 -0.0102  0.1873  0.3683
42204W        W43068  13.338   4.236  11.816  0.1788 -0.1965  0.1191
42205W        W43069   6.509   6.511  20.356  0.2089 -0.0811  0.0811
42206W        W43070  17.583  11.847  21.104 -0.1232  0.3587  0.0054
42207W        W43071  13.749  26.522  17.426 -0.1743 -0.0145 -0.1848
42208W        W43072  23.807  13.480   1.737 -0.0455 -0.0360 -0.1195
42209W        W43073  19.400   9.245  28.038  0.0169 -0.1727 -0.0768
42210W        W43074  16.117   9.271   7.904 -0.1008  0.1020  0.1212
42211W        W43075  27.055  20.807   3.528 -0.1715 -0.0380  0.0867
42212W        W43076  25.067  14.266   5.912 -0.1509  0.1098  0.0593
42213W        W43077   4.279  18.474  16.224 -0.4583  0.1569 -0.1271
42214W        W43078  11.842   6.968  23.037 -0.2317  0.2092 -0.0476
42215W        W43079   1.101  21.922  28.221  0.2142 -0.1130 -0.4239
42216W        W43080  28.714  12.886   2.506  0.0669 -0.2118 -0.1771
42217W        W43081   1.430   1.701   1.618  0.0695 -0.1780 -0.0813
42218W        W43082   2.828  19.093  28.174 -0.0755  0.1912 -0.2256
42219W        W43083  21.464  15.765   8.476 -0.0770 -0.0645 -0.2306
42220W        W43084   7.103  17.743   1.146  0.0708  0.0848 -0.1252
42221W        W43085  23.562   6.234   2.869 -0.2007 -0.0952 -0.0243
42222W        W43086   8.738  16.322  28.431  0.1283 -0.2701  0.0566
42223W        W43087  20.706  14.513   6.797 -0.1837 -0.3366 -0.0840
42224W        W43088   5.866  26.001  15.763  0.0679 -0.2432 -0.0838
42225W        W43089  20.518  22.798  13.069  0.0335 -0.4114  0.0448
42226W        W43090  17.278   3.730  19.999  0.2112 -0.1466 -0.0147
42227W        W43091   3.335   5.540  17.792  0.2419  0.3793  0.0698
42228W        W43092  12.433  18.489   6.292 -0.1596 -0.0294 -0.0540
42229W        W43093  17.962   0.858  15.080 -0.0380  0.1397 -0.1085
42230W        W43094  13.602   5.985   2.970  0.1422  0.0474 -0.1923
42231W        W43095  12.624  21.583   2.139 -0.1821  0.0269  0.1652
42232W        W43096   0.142  20.113  14.886 -0.1870 -0.0607  0.2352
42233W        W43097  28.956   2.726   1.667 -0.1237 -0.0483  0.1885
42234W        W43098   3.726   0.097   5.385  0.0294 -0.2844  0.0596
42235W        W43099   1.100   5.964   2.678 -0.1010  0.0496 -0.2501
42236W        W43100   8.236  26.786  21.043  0.1953 -0.2166 -0.1579
42237W        W43101  18.773  11.069   7.835  0.2449 -0.0931  0.0776
42238W        W43102  28.196   1.416  10.896 -0.0631 -0.0029  0.2059
42239W        W43103  13.734   2.646  10.846  0.1454 -0.0688  0.0435
42240W        W43104  28.708  19.134   9.766 -0.0065 -0.2257 -0.0454
42241W        W43105   6.863   2.433   1.233  0.4089 -0.2236 -0.3001
42242W        W43106  17.839   5.124  13.571 -0.1250  0.2706  0.0149
42243W        W43107  12.832  28.542  12.207  0.1533 -0.1037 -0.0819
42244W        W43108  27.851  23.670  16.813  0.0485  0.1095  0.0396
42245W        W43109  23.628  21.301  12.578 -0.1787 -0.1076 -0.0192
42246W        W43110  23.290  26.169  27.506  0.1554 -0.0805  0.0030
42247W        W43111   5.792  11.725   0.147  0.2511  0.1413  0.2172
42248W        W43112  24.914  20.909   5.284  0.3426  0.0998  0.0852
42249W        W43113  26.010  20.185  21.071 -0.3792 -0.2721  0.2646
42250W        W43114  27.913  25.945  15.982 -0.0451  0.1308 -0.0199
42251W        W43115   2.579  28.674   0.993 -0.1724 -0.1732 -0.0278
42252W        W43116   7.812   8.577  10.448 -0.0467  0.5630  0.2493
42253W        W43117  20.813  18.235  15.948  0.3508 -0.1219 -0.0062
42254W        W43118  28.961   1.711  17.067 -0.1766  0.0181 -0.5060
42255W        W43119  27.295  28.017  18.867 -0.1147 -0.4098  0.1964
42256W        W43120   0.422  18.122   9.893  0.0221 -0.0859  0.0037
42257W        W43121   9.557   8.146  21.910  0.0196  0.2140 -0.1499
42258W        W43122  16.786  22.630  15.972 -0.0860 -0.0734 -0.2771
42259W        W43123  13.913  20.944  19.328 -0.1506 -0.4191  0.0903
42260W        W43124   2.748  28.784  25.876 -0.1711  0.3696  0.0129
42261W        W43125  15.397  12.594   9.973 -0.0715 -0.2115 -0.2070
42262W        W43126  10.741  29.042   1.563  0.2964  0.1123  0.0884
42263W        W43127  24.348  28.959  15.177 -0.1872 -0.0452 -0.0517
42264W        W43128   1.272  17.347  20.486  0.1208  0.1205  0.0157
42265W        W43129  27.214  20.208  15.786 -0.1442 -0.0100 -0.0983
42266W        W43130  26.561   9.284   4.714  0.1838  0.0467  0.2956
42267W        W43131  18.936  17.256   4.097 -0.2285  0.2722 -0.0158
42268W        W43132  13.459   7.542   5.342 -0.2737 -0.0026 -0.1889
42269W        W43133  29.138  28.994   6.799 -0.2731  0.1257 -0.0442
42270W        W43134  17.927   4.933   8.476 -0.1536 -0.1696  0.0735
42271W        W43135  12.688  11.205   9.619  0.1975 -0.0908  0.1599
42272W        W43136  21.065  23.306   1.291 -0.1064 -0.0838 -0.1350
42273W        W43137  27.427  17.040  17.310  0.0257 -0.0162 -0.0828
42274W        W43138  27.802  11.976  13.183 -0.2453 -0.2989 -0.0123
42275W        W43139  21.725   8.695  14.497  0.0597 -0.3671 -0.1393
42276W        W43140  23.390  28.968  17.706  0.2966  0.0067 -0.0939
42277W        W43141  27.312  11.761  13.131  0.2744 -0.1713  0.0587
42278W        W43142   1.326  12.551  13.427 -0.0751  0.3351 -0.0512
42279W        W43143  19.053  15.203   9.411 -0.1923  0.1972 -0.0288
42280W        W43144  27.344  18.876  17.995 -0.1825 -0.2771 -0.0355
42281W        W43145  18.979   8.695  12.542 -0.0435 -0.0777  0.0530
42282W        W43146  20.982  18.470  14.798  0.2711  0.0150  0.3041
42283W        W43147  28.416  24.711   3.519 -0.0702 -0.3165 -0.0716
42284W        W43148  11.715  26.436   0.061 -0.1157 -0.0089 -0.2453
42285W        W43149   4.571  25.690   8.894 -0.0516  0.1973 -0.1020
42286W        W43150   1.095   6.236  15.753  0.0200 -0.0660  0.0900
42287W        W43151  12.738  27.527   2.653  0.0222  0.0474  0.2401
42288W        W43152   4.259  16.932  11.666  0.3731 -0.0665 -0.0039
42289W        W43153  28.812   1.906   8.763 -0.0329  0.1134 -0.2034
42290W        W43154  24.775   3.960  17.996 -0.0148 -0.2282  0.1385
42291W        W43155  16.963   1.017  21.711  0.2819 -0.0692  0.1775
42292W        W43156  26.782  10.351  26.898 -0.1898  0.2057  0.0896
42293W        W43157  11.473  24.446   2.599 -0.0462 -0.3068  0.0274
42294W        W43158   1.544  13.924  10.887 -0.1632  0.0725 -0.0566
42295W        W43159  12.944  15.456  13.272  0.2395 -0.1186  0.0394
42296W        W43160  17.339  27.708  22.153  0.0687 -0.2685  0.1817
42297W        W43161  22.665  14.417   1.002  0.0623 -0.1555  0.0265
42298W        W43162  10.296  21.957  19.197 -0.0104 -0.1829 -0.3524
42299W        W43163  15.717  14.528  28.886  0.4233  0.1221  0.0421
42300W        W43164  27.634  12.636   6.176  0.0416  0.0465  0.1304
42301W        W43165  27.472  23.821   6.769 -0.2572 -0.0530  0.2505
42302W        W43166  29.008  14.575   5.222 -0.0041 -0.2999  0.0051
42303W        W43167  13.576   0.545  10.491 -0.3410 -0.1971  0.2104
42304W        W43168  12.688   6.485  24.516 -0.0365  0.0283  0.0076
42305W        W43169  18.532  12.730   0.972  0.2793 -0.1048 -0.0562
42306W        W43170   8.895  21.795  17.731  0.1550  0.1683 -0.3038
42307W        W43171  19.377  17.881  10.962  0.1683  0.1774  0.3624
42308W        W43172   5.353   0.905   2.161 -0.1666  0.1260 -0.0838
42309W        W43173  28.473  24.938  23.776  0.2037 -0.1731  0.2380
42310W        W43174  24.015   9.067  13.436 -0.2320  0.4568  0.0693
42311W        W43175  28.938  12.036  20.648  0.0712 -0.2159  0.1967
42312W        W43176  17.944  16.773   7.607 -0.1037  0.1358  0.0144
42313W        W43177  24.633  21.342   5.378 -0.1043 -0.0939 -0.0927
42314W        W43178   3.134  28.334  24.237 -0.0429 -0.0091  0.0011
42315W        W43179  14.682  13.419  25.334  0.0118 -0.3520  0.0401
42316W        W43180   1.735   2.449   3.773  0.1065 -0.0401  0.1530
42317W        W43181  11.847  16.127  18.633  0.2949  0.1628  0.1518
42318W        W43182  17.904   2.117  15.732 -0.0349  0.2587  0.0169
42319W        W43183  21.671  27.442   9.535  0.1132  0.2669 -0.1170
42320W        W43184  25.092  23.897  17.333  0.2945  0.1098 -0.0146
42321W        W43185   1.787  22.702   6.160 -0.1254 -0.0939  0.0446
42322W        W43186   0.721  10.323   9.043 -0.3414 -0.3141 -0.0897
42323W        W43187  16.954  23.311  15.373 -0.0830  0.1394  0.0943
42324W        W43188  22.668   7.436  21.120  0.1510 -0.2762 -0.0296
42325W        W43189   4.834  19.898   1.943 -0.3819  0.3201  0.1215
42326W        W43190   5.266  29.103  19.764  0.2063  0.0865 -0.1410
42327W        W43191  22.431  12.721  15.976 -0.3051 -0.1382 -0.1906
42328W        W43192  25.701  21.308   2.587  0.1694  0.0199 -0.1170
42329W        W43193  13.597   2.727  18.404 -0.1675 -0.1320 -0.0966
42330W        W43194  13.672  16.768  17.722 -0.1369  0.1909  0.2994
42331W        W43195  13.717  12.547   8.426  0.0007  0.1905  0.0728
42332W        W43196  28.190  29.111  16.789  0.0131 -0.2131 -0.1540
42333W        W43197  13.860  10.795  20.749 -0.0701  0.0823 -0.0566
42334W        W43198   2.933  12.863  11.266  0.0051  0.2210  0.0716
42335W        W43199   5.913   3.323   2.542  0.2587  0.1476  0.2450
42336W        W43200   3.242  12.523  12.776  0.1394  0.4014  0.2630
42337W        W43201  17.205  18.783  20.556 -0.3036 -0.2205  0.1079
42338W        W43202  18.618   5.487  14.244 -0.3406  0.0061  0.0692
42339W        W43203  23.601   9.389  24.813  0.0109 -0.0950  0.1548
42340W        W43204   3.715   5.978  28.291  0.0234 -0.0885  0.0611
42341W        W43205   8.131   3.884  17.544 -0.2002  0.0634  0.0068
42342W        W43206  11.167   1.223   8.698 -0.0800 -0.1854  0.1981
42343W        W43207  19.579   2.235   9.742 -0.0910 -0.1882  0.1575
42344W        W43208  25.384  20.641   8.051  0.1907  0.0389  0.1947
42345W        W43209   5.652  21.870   8.124  0.1395 -0.0763 -0.0522
42346W        W43210  12.414  24.959  11.170 -0.4123  0.0220  0.0034
42347W        W43211  13.884  13.948  20.493  0.2015 -0.0189  0.0289
42348W        W43212   0.954  14.475   0.381 -0.0183 -0.0439  0.2013
42349W        W43213  15.047  27.148   2.900 -0.1002 -0.0593  0.1963
42350W        W43214   2.306  10.703  22.058 -0.1770 -0.3981  0.4050
42351W        W43215  26.939   3.294  23.152 -0.0631 -0.5886  0.0890
42352W        W43216  13.582  13.665  16.885 -0.1317 -0.0977  0.0720
42353W        W43217  20.601  24.099  14.978 -0.0419  0.2640 -0.0292
42354W        W43218   9.804  13.466   0.379 -0.1091  0.1035 -0.1515
42355W        W43219   5.002  10.074   4.398 -0.2962  0.1345 -0.2300
42356W        W43220  25.874   9.985   7.664  0.0658 -0.1569 -0.1248
42357W        W43221   3.684  21.432   4.208 -0.1237 -0.1844 -0.2024
42358W        W43222   5.027  10.847  28.236  0.2983  0.2727 -0.1916
42359W        W43223  11.367  15.139   7.769 -0.2548  0.1743  0.0125
42360W        W43224  19.918  20.041  19.243 -0.2562 -0.1378  0.0663
42361W        W43225  25.314  15.183  19.300  0.1769  0.1915 -0.3497
42362W        W43226  28.035   0.331  27.244 -0.1548 -0.0632  0.0912
42363W        W43227  26.656  14.780  22.920  0.0702 -0.0104 -0.1728
42364W        W43228  14.165   0.308  23.952  0.0040 -0.2961  0.1794
42365W        W43229  18.687   9.917  18.935 -0.1208 -0.0786  0.0430
42366W        W43230  16.316   5.537  15.338 -0.1423 -0.0849  0.1359
42367W        W43231  27.464  12.320  15.261  0.0952  0.0119  0.1312
42368W        W43232  13.414  18.113   4.277 -0.0639 -0.2084  0.0108
42369W        W43233   9.566  15.967   7.276 -0.0249  0.1096  0.0974
42370W        W43234   3.410  13.835   8.663 -0.0844 -0.1908 -0.2532
42371W        W43235  21.967  19.149  18.969  0.0386  0.2725 -0.0213
42372W        W43236  16.085   0.744   7.226  0.2590 -0.0749  0.1389
42373W        W43237  26.035   3.575  11.484 -0.1195  0.0918  0.1558
42374W        W43238  19.984  19.700   9.985 -0.2218  0.0537  0.1044
42375W        W43239   9.417  28.933   9.726 -0.1020  0.1017 -0.3302
42376W        W43240  26.232  27.470   6.178 -0.0393  0.3770 -0.0160
42377W        W43241  16.342  22.097  22.527  0.1396  0.1899  0.0900
42378W        W43242  15.490  11.827  13.249 -0.1238  0.2619 -0.0799
42379W        W43243  25.979   7.257  23.514 -0.0526  0.0510  0.0187
42380W        W43244   9.138  13.582  19.553 -0.2951  0.1506  0.3324
42381W        W43245   5.032  12.860   7.733 -0.4663  0.1004 -0.0392
42382W        W43246  23.325  13.121  11.535  0.1878 -0.1004  0.0201
42383W        W43247   2.429  17.599  14.035 -0.0180 -0.0719  0.1415
42384W        W43248   5.521  21.075   7.234 -0.0896  0.1471 -0.1869
42385W        W43249  13.723  11.043  16.851  0.0278 -0.1623  0.1407
42386W        W43250  28.996   3.697   5.213  0.0030 -0.0674  0.1049
42387W        W43251  15.786  18.995   2.150  0.0502 -0.0795 -0.2354
42388W        W43252   8.185  27.558   7.308  0.2110 -0.4456  0.1908
42389W        W43253  27.586  26.279  12.105  0.0178 -0.2841  0.0155
42390W        W43254  18.943  15.316   8.901 -0.0678 -0.1122 -0.0546
42391W        W43255   9.902  24.257  26.701 -0.1289 -0.1235 -0.0948
42392W        W43256  18.275  19.892  22.494 -0.1811  0.1468 -0.0629
42393W        W43257   3.101  20.326  26.792 -0.2314  0.1441 -0.2514
42394W        W43258  14.884   3.925  11.995  0.3037  0.2314  0.0980
42395W        W43259  14.121  23.488   2.134 -0.0673  0.1096  0.0406
42396W        W43260   6.009  13.797   9.740  0.1591 -0.0316  0.1681
42397W        W43261  19.900   5.553  23.301 -0.1677 -0.1801 -0.0668
42398W        W43262  18.852   4.213   7.457 -0.1312 -0.1351 -0.3331
42399W        W43263  18.661  15.042   6.991 -0.0513 -0.0939 -0.0392
42400W        W43264  14.917  23.360  24.960 -0.0364  0.1888 -0.0028
42401W        W43265  15.407   9.798  19.011 -0.0597 -0.0316 -0.3107
42402W        W43266  16.395   7.359  27.845  0.2493  0.0882  0.0188
42403W        W43267  26.665   9.622   3.434  0.2654 -0.5850  0.2641
42404W        W43268  21.530  20.719  21.795  0.1804  0.2606 -0.0342
42405W        W43269  13.956  16.612  14.494 -0.1771  0.0663 -0.0398
42406W        W43270  14.332  19.696  14.122  0.2155 -0.5165 -0.1228
42407W        W43271   2.479   8.816  21.128  0.0151 -0.1789  0.2260
42408W        W43272  10.998  12.503  24.675 -0.1563  0.0328  0.1729
42409W        W43273   8.350  22.413  23.571  0.2418 -0.3471 -0.2220
42410W        W43274  24.718  17.558  10.885 -0.1721  0.2249 -0.0524
42411W        W43275   0.049  21.441  14.451  0.1870 -0.0622  0.0182
42412W        W43276  23.314   4.002   0.328 -0.0924 -0.1424  0.1457
42413W        W43277   7.758  17.241   5.520  0.0250 -0.1937  0.0540
42414W        W43278  23.464  27.396  15.615  0.4456 -0.0146  0.2938
42415W        W43279  11.240  18.186   7.151  0.0051 -0.0909  0.2483
42416W        W43280   1.822  10.721  15.180 -0.2505 -0.3436 -0.3807
42417W        W43281  14.257  21.577   7.955  0.1901  0.1116  0.3539
42418W        W43282  13.382   6.086  24.083  0.1709 -0.0495  0.0054
42419W        W43283  18.400  17.707  12.170  0.2321 -0.2501  0.0822
42420W        W43284  20.649   4.044  12.611 -0.1978  0.4193  0.0155
42421W        W43285  22.138  20.683   9.282  0.0766  0.0812 -0.0887
42422W        W43286  21.870  25.951  12.262 -0.1066 -0.0118  0.3950
42423W        W43287  17.439   7.516  11.007 -0.1796  0.1053  0.1374
42424W        W43288  20.143  15.209  19.291  0.3180 -0.1295  0.2727
42425W        W43289  14.910   0.176   8.458  0.1927  0.0578  0.4428
42426W        W43290  13.909   4.773  12.337  0.0676 -0.0602 -0.2765
42427W        W43291  26.481  12.332   5.812 -0.0460 -0.1219 -0.1215
42428W        W43292  28.429   4.711  18.091  0.0708 -0.3666 -0.0337
42429W        W43293   2.746   2.685  26.701 -0.2642 -0.2025  0.1107
42430W        W43294  18.309  10.203   9.803 -0.1876  0.3448 -0.0363
42431W        W43295   0.479  27.763  25.024 -0.0685 -0.2410  0.0296
42432W        W43296  25.361  19.292   9.590  0.4054  0.1971 -0.2414
42433W        W43297  23.666  14.359  18.887  0.2201  0.4066 -0.0179
42434W        W43298  20.818  18.309  14.239 -0.3061 -0.0576  0.1511
42435W        W43299   5.408  20.489  19.602  0.0326  0.2627  0.2217
42436W        W43300  15.083  12.449  16.639 -0.0174 -0.1617  0.1869
42437W        W43301  11.264  20.188  16.864  0.0798 -0.0522  0.1017
42438W        W43302   3.254   2.232  13.269  0.0305 -0.2388 -0.0214
42439W        W43303   9.084   2.464  20.049 -0.0723 -0.0228 -0.1066
42440W        W43304   2.156  13.813  14.338  0.2705  0.1034  0.1700
42441W        W43305  19.200  23.467   7.037 -0.1925  0.0764 -0.1683
42442W        W43306  21.796  17.856  28.145 -0.2356  0.1805  0.1721
42443W        W43307  26.326   7.000  13.031 -0.2094 -0.0114  0.2480
42444W        W43308  29.021  22.705  27.719  0.2174  0.0232  0.2759
42445W        W43309  16.255  28.966  19.533 -0.0882 -0.3425 -0.2459
42446W        W43310  24.620   2.943   6.852 -0.2127  0.0357  0.1226
42447W        W43311   0.266  14.785  19.910 -0.0415  0.2260 -0.1437
42448W        W43312  21.195  13.179  16.708 -0.4182 -0.2333 -0.1125
42449W        W43313  25.363  17.954   1.691  0.1879  0.3124 -0.0159
42450W        W43314  18.921  22.586  23.554  0.0339  0.0177 -0.1311
42451W        W43315  20.450  21.326  12.531 -0.1108  0.1357  0.3215
42452W        W43316   0.454   2.523  29.051 -0.1573 -0.1120  0.5110
42453W        W43317   3.496  12.778  22.895  0.2045  0.0563 -0.0673
42454W        W43318  21.974  19.391   3.728  0.2888  0.0387  0.1480
42455W        W43319  15.872  16.270  17.680 -0.1089 -0.1829  0.1964
42456W        W43320  23.188   2.844  18.011  0.0979  0.0659  0.0955
42457W        W43321   0.714  11.237  19.421 -0.0111  0.3547 -0.0378
42458W        W43322  12.494  12.320   4.530  0.2518 -0.1876  0.1225
42459W        W43323   5.339   6.212   4.078 -0.0645  0.2697  0.2498
42460W        W43324  14.875  25.170  16.596 -0.5308  0.0526 -0.2709
42461W        W43325   4.395  25.682  14.280  0.1548  0.0816  0.0791
42462W        W43326  16.673  25.063   9.082 -0.0087  0.0373  0.0992
42463W        W43327  27.908   1.910  15.057  0.0754  0.0742 -0.0591
42464W        W43328  23.454  14.615  29.099 -0.0620  0.2829 -0.1381
42465W        W43329   2.589  26.589   5.726 -0.2063  0.2599  0.6045
42466W        W43330  15.521  22.267  21.013  0.3771  0.0281 -0.0182
42467W        W43331  14.032  22.067  10.928  0.1865 -0.1928 -0.1369
42468W        W43332  25.889  24.078   1.294 -0.0774  0.1196 -0.1498
42469W        W43333  20.109  14.645  11.793 -0.2213  0.2249  0.1944
42470W        W43334   9.191   3.383  10.565 -0.0498  0.1453 -0.0839
42471W        W43335  21.940  25.457   8.417  0.1658 -0.1331  0.1438
42472W        W43336  14.890  11.691   9.785 -0.5179  0.0195 -0.0441
42473W        W43337   9.083  27.841   7.010 -0.0245  0.2190  0.0829
42474W        W43338   2.583  27.090   5.600  0.1559 -0.0162 -0.0591
42475W        W43339   4.320   4.949   6.027  0.0927  0.2363 -0.0723
42476W        W43340   3.282   5.038  13.066 -0.0891  0.0322  0.0104
42477W        W43341  20.852  17.028  16.680 -0.0529  0.0523  0.2115
42478W        W43342  22.482  10.214   9.884  0.1210 -0.0123  0.1530
42479W        W43343   4.229  26.718  12.353  0.0901  0.2217 -0.2490
42480W        W43344  18.181   7.888  20.832  0.2273  0.2785 -0.3206
42481W        W43345  25.160  26.923   0.276  0.0050  0.0087 -0.0681
42482W        W43346   0.524  17.890   8.309 -0.0733  0.2435  0.2186
42483W        W43347  19.138  18.390  23.657 -0.1681 -0.0007  0.2574
42484W        W43348  19.839  21.022  27.176  0.2028  0.1729  0.1600
42485W        W43349   7.192  23.781  16.606  0.0213  0.2297  0.0809
42486W        W43350   5.999  29.022  27.794  0.1301  0.0257  0.1731
42487W        W43351  25.806  28.277  10.635  0.1267  0.2161  0.1741
42488W        W43352  18.289  23.426  17.676  0.1856 -0.2147 -0.2453
42489W        W43353  17.496   2.519  11.426 -0.3263 -0.1691 -0.3945
42490W        W43354  20.243   9.967  14.844 -0.1250 -0.0144 -0.3745
42491W        W43355  29.061  10.512  12.259 -0.1645 -0.0073 -0.0632
42492W        W43356   9.248  17.963  18.584  0.1050 -0.1552 -0.2147
42493W        W43357  19.979  13.264  23.169 -0.1444  0.0841 -0.3875
42494W        W43358   4.486  12.451  15.362  0.3208  0.0613 -0.0867
42495W        W43359  16.302  27.825  28.940 -0.2214  0.0002  0.1304
42496W        W43360  16.634  13.482  21.382  0.3758  0.2085 -0.0536
42497W        W43361   8.492  20.770  15.604 -0.0543 -0.0664 -0.0786
42498W        W43362   7.730   9.127   3.755  0.0867 -0.0444  0.0800
42499W        W43363  23.012   7.915  12.321 -0.2063  0.1663 -0.0652
42500W        W43364  13.387  12.629  22.497 -0.2048  0.0162  0.2146
42501W        W43365  25.292  26.362  24.366 -0.1980  0.1389 -0.0152
42502W        W43366  29.044  10.804   7.640 -0.0873  0.2433 -0.0129
42503W        W43367  23.558  16.625  24.647  0.2751 -0.1228 -0.0991
42504W        W43368  13.534  22.463  22.451  0.0899 -0.0244  0.0021
42505W        W43369  15.047  23.023  16.276 -0.0594 -0.1919  0.0138
42506W        W43370  20.423  14.217  19.021 -0.0276 -0.1533  0.2361
42507W        W43371  25.199   7.000  27.724  0.3618  0.0521  0.1772
42508W        W43372  14.450   0.442   9.810  0.1527 -0.0305  0.0426
42509W        W43373  20.577  27.856  20.244  0.0780  0.0011 -0.0681
42510W        W43374   7.223   6.503   1.248 -0.1896 -0.0081 -0.2546
42511W        W43375   7.710   1.155  18.813 -0.3095  0.0308 -0.0438
42512W        W43376  19.284   2.938   2.237 -0.2360 -0.0237  0.0604
42513W        W43377  25.643  16.090   1.191 -0.0554  0.0140 -0.1828
42514W        W43378  21.844  17.585   8.532  0.1881  0.1210  0.1547
42515W        W43379  23.927  20.985   7.270 -0.1429 -0.2493 -0.2137
42516W        W43380  27.069   8.237   7.770 -0.0112  0.1916 -0.3563
42517W        W43381  17.278   7.415  28.916  0.0103 -0.0912  0.1271
42518W        W43382  26.250  13.322  29.120 -0.0555 -0.0093  0.4567
42519W        W43383  16.644  24.353  20.170  0.2438  0.0811  0.0636
42520W        W43384  23.539  14.787   7.919 -0.0243  0.0801 -0.1969
42521W        W43385   8.980   7.338  25.359 -0.0153 -0.3342 -0.0411
42522W        W43386   0.152   5.031  24.414 -0.0528 -0.2587  0.1500
42523W        W43387  27.577   2.269  14.266  0.1014  0.0918  0.1951
42524W        W43388  26.354  15.809  14.885 -0.0063 -0.0357  0.1970
42525W        W43389  12.984  15.329   0.424 -0.1008 -0.1813  0.0584
42526W        W43390  22.853  17.627  10.075 -0.3226 -0.0134 -0.0147
42527W        W43391  18.478   3.416   3.518 -0.0481 -0.3874 -0.2289
42528W        W43392  15.037  27.139  25.399 -0.0379 -0.4308  0.1983
42529W        W43393  14.898  26.291   4.666 -0.1017 -0.1293 -0.1530
42530W        W43394  27.747  14.674  23.267  0.1255  0.1007  0.2159
42531W        W43395  17.013   7.349  14.213 -0.1379 -0.2362 -0.3849
42532W        W43396  18.479  20.976  25.343 -0.2416  0.0825  0.0512
42533W        W43397  26.840  13.633   1.447 -0.2040  0.0914  0.4498
42534W        W43398  20.347   9.459   2.329 -0.1033 -0.1540 -0.0836
42535W        W43399  24.459   7.389  13.534  0.0750 -0.0390 -0.0018
42536W        W43400  24.771  27.478  15.159 -0.1705 -0.0035  0.0327
42537W        W43401   8.555  13.307   3.307 -0.1136  0.6394  0.0488
42538W        W43402  24.653  19.022   2.425 -0.2154  0.1768 -0.1783
42539W        W43403   5.980  23.178   7.947  0.0327 -0.3241  0.1742
42540W        W43404  15.027   3.676  18.446 -0.2335  0.2822  0.0380
42541W        W43405  20.598  22.618  16.008 -0.0190 -0.2176 -0.1846
42542W        W43406  28.880  24.093  24.849  0.1085 -0.2725 -0.2302
42543W        W43407  11.382  21.744  21.397  0.0682 -0.0533 -0.1802
42544W        W43408  21.407   0.446   9.371 -0.3041  0.0855 -0.0899
42545W        W43409  13.544   6.464   1.647  0.1228  0.0324  0.0350
42546W        W43410  15.310   3.863  24.057  0.2061  0.0757  0.2833
42547W        W43411   3.269  15.374  24.548 -0.0229 -0.0625 -0.1290
42548W        W43412  21.993   4.853  13.200 -0.2282 -0.1893 -0.2938
42549W        W43413  16.637  24.380   3.825  0.0510 -0.0155  0.3076
42550W        W43414   9.724  25.202  27.487 -0.1390 -0.1227  0.1801
42551W        W43415  18.471  18.294  20.383 -0.0847  0.0498 -0.0010
42552W        W43416  12.515  21.798   3.010 -0.1502 -0.2664 -0.1338
42553W        W43417   7.424  11.201   5.292  0.0750 -0.0162 -0.0113
42554W        W43418  26.210   6.454   6.069  0.4265 -0.2031  0.2229
42555W        W43419   0.738   0.973  23.741 -0.0174  0.0309 -0.3255
42556W        W43420   6.922  28.713   7.669 -0.2618 -0.3847 -0.0775
42557W        W43421   3.040   9.995   8.329  0.0803 -0.1435  0.2341
42558W        W43422   7.126  10.374  15.739  0.3674  0.0514  0.1443
42559W        W43423  12.452  13.588   4.106  0.2439  0.0263  0.0914
42560W        W43424  20.534   0.495  19.716  0.2859 -0.1383  0.0583
42561W        W43425  24.761   2.560   5.916 -0.1147  0.1831 -0.1847
42562W        W43426   8.740  21.110  25.322  0.1512 -0.1612 -0.1227
42563W        W43427  24.905  17.124   9.235  0.0352  0.1246  0.0349
42564W        W43428   7.830  19.398   8.802 -0.1339  0.1769  0.1622
42565W        W43429   8.992   1.019  28.335 -0.2987  0.0071 -0.5872
42566W        W43430  21.456   1.108  10.542 -0.1514 -0.2795  0.3315
42567W        W43431  28.768  21.142  14.650  0.1608 -0.0611 -0.0082
42568W        W43432  18.714  17.617  10.194  0.1468 -0.1274 -0.0069
42569W        W43433  14.244   0.401  20.858 -0.1558  0.1642  0.1168
42570W        W43434  13.275   0.926  23.701 -0.2237  0.1572  0.3033
42571W        W43435  16.431   8.089  24.974 -0.1621  0.2634 -0.0198
42572W        W43436  14.569   7.831  25.369 -0.0458  0.2129 -0.0433
42573W        W43437  27.830   1.500  14.686  0.1297 -0.2455 -0.1158
42574W        W43438  13.381  23.811   2.638  0.0485  0.0742  0.0310
42575W        W43439  16.048   5.320  10.712  0.1323 -0.3442 -0.0097
42576W        W43440  10.288   7.041  18.407 -0.1682 -0.2611  0.1193
42577W        W43441   7.264  23.171   4.247  0.0410 -0.1801  0.3726
42578W        W43442  11.205   7.288  25.030 -0.0723  0.2010 -0.1661
42579W        W43443  29.027  15.486   4.185 -0.0547  0.2691  0.1834
42580W        W43444  10.809  17.227  15.541 -0.1673  0.0902  0.1619
42581W        W43445  26.916  13.119  17.946  0.2272 -0.1656 -0.0296
42582W        W43446  13.859   4.893  27.593 -0.0567  0.1046 -0.0045
42583W        W43447  18.882  16.238  23.480  0.1429  0.0360 -0.0375
42584W        W43448   0.669  15.972  27.745  0.2835  0.2277  0.0508
42585W        W43449   3.399   1.225  22.598 -0.1169  0.0078  0.0491
42586W        W43450  20.829  16.379  10.249 -0.3495  0.1248 -0.1690
42587W        W43451  23.791   7.589  21.686  0.0626  0.0682 -0.1369
42588W        W43452  23.811   3.347   9.430 -0.0327 -0.1850 -0.0086
42589W        W43453   1.627  16.960  27.221 -0.3102 -0.0018  0.0024
42590W        W43454  27.505  14.078  24.009 -0.0587  0.0560  0.2197
42591W        W43455  22.800  13.381   5.176  0.2584 -0.0449  0.1114
42592W        W43456  23.304   7.284  22.358 -0.1459 -0.2958 -0.0298
42593W        W43457  26.341   8.374  22.864  0.0581  0.5607 -0.2545
42594W        W43458  13.785   9.261  11.373 -0.2511  0.0921  0.0957
42595W        W43459   8.927   6.772  15.300 -0.2098 -0.1359  0.0287
42596W        W43460  12.838  21.429  13.920 -0.2055  0.0306  0.2780
42597W        W43461   2.778  17.666  11.636 -0.1428 -0.0216 -0.0740
42598W        W43462  28.021  18.841  11.681 -0.0739  0.0737 -0.3107
42599W        W43463   7.118  26.229  22.028 -0.0119  0.0955 -0.3085
42600W        W43464   5.090   2.635  10.058  0.2990 -0.3094 -0.1030
42601W        W43465   5.284  26.086  15.876  0.0864  0.1402 -0.2774
42602W        W43466  21.821  14.312   5.417 -0.4493  0.1726  0.2479
42603W        W43467  19.999  16.427  12.379 -0.2642  0.0295  0.1589
42604W        W43468  25.071  16.862   9.628  0.2309 -0.0457  0.2720
42605W        W43469  16.561   4.711   2.336  0.4552  0.1418  0.0145
42606W        W43470  17.755   6.836  24.996  0.1504  0.2144 -0.2115
42607W        W43471  17.323  16.853  25.803 -0.0412 -0.2372  0.0241
42608W        W43472  26.802  11.231   0.976  0.1212  0.2445  0.1856
42609W        W43473  22.889  18.250  24.372 -0.1405  0.3842  0.1876
42610W        W43474  22.557   4.854   2.750 -0.2749  0.0811  0.1882
42611W        W43475  21.954   0.070  18.821 -0.1235 -0.2716 -0.2201
42612W        W43476  18.882  23.024  25.909  0.2432 -0.0704 -0.1608
42613W        W43477  17.873   4.477  23.054 -0.2635 -0.1749 -0.1579
42614W        W43478  26.737   9.380  11.226 -0.2598  0.1975  0.2458
42615W        W43479  24.441   8.211  17.890 -0.5683  0.1428  0.1067
42616W        W43480  27.735  18.867  28.222 -0.0212  0.0374 -0.3540
42617W        W43481  28.860  23.929  25.395 -0.1783 -0.4389  0.0540
42618W        W43482   8.740  25.299  14.810 -0.6514 -0.3426 -0.1455
42619W        W43483  17.645  11.438   3.669 -0.1485 -0.4832  0.0454
42620W        W43484  19.827   0.714  17.998 -0.3009 -0.1102  0.5202
42621W        W43485  19.437  20.222  21.450 -0.3913  0.0396 -0.0620
42622W        W43486  10.139  20.380  11.586 -0.5313 -0.2859 -0.3653
42623W        W43487  13.831   0.649   0.659 -0.0334 -0.1337 -0.0941
42624W        W43488   6.801  27.330   4.620 -0.0338 -0.1354 -0.0668
42625W        W43489   4.994  13.999   7.929 -0.0593  0.1650  0.4108
42626W        W43490  18.173  25.189  13.851  0.0074 -0.0779  0.0151
42627W        W43491  12.798  13.512  13.498  0.1829 -0.0736  0.1542
42628W        W43492  10.935   9.468  17.859  0.0770  0.1691 -0.3397
42629W        W43493   4.257  10.024  23.114 -0.3318 -0.4531  0.3883
42630W        W43494   2.006   3.881  25.760  0.0981 -0.0292 -0.0349
42631W        W43495  17.143   8.634   0.063  0.0338  0.1832  0.0537
42632W        W43496  23.772  11.667  13.995 -0.0513 -0.1786 -0.2191
42633W        W43497  23.462   8.116  26.746  0.1851  0.0285 -0.0869
42634W        W43498  23.059  17.332  11.120  0.0733 -0.1227  0.1863
42635W        W43499   2.397  22.930  21.825  0.0275  0.0197 -0.1518
42636W        W43500  23.865  16.868  18.995  0.2784 -0.3676 -0.0469
42637W        W43501   6.049   7.091  14.093  0.1682 -0.1602  0.1478
42638W        W43502   9.854   7.111  26.939  0.0689  0.1220 -0.5189
42639W        W43503  27.391  10.451  14.765 -0.2965  0.1461  0.4255
42640W        W43504   4.977  14.826  27.375 -0.1320  0.0198 -0.5078
42641W        W43505  28.299   6.134  22.372  0.2739 -0.3041  0.0261
42642W        W43506  21.588  18.967  20.337 -0.0473  0.2609  0.1659
42643W        W43507   1.356  15.712  18.582 -0.1961  0.0545  0.0037
42644W        W43508  18.535  17.051  16.242  0.2499 -0.0373  0.2629
42645W        W43509  18.973   9.300   2.097 -0.3295  0.4895 -0.1038
42646W        W43510  15.087  12.311  22.422 -0.0244  0.1267  0.0323
42647W        W43511  21.949  21.075  22.326  0.0455 -0.0893  0.1877
42648W        W43512  18.028  13.486  13.323  0.2223 -0.0385  0.1495
42649W        W43513  10.271   0.634  17.254  0.1152  0.0128  0.2578
42650W        W43514  24.706  20.307  26.363  0.0159 -0.0505 -0.1051
42651W        W43515  16.463  12.457  18.018 -0.2946  0.0909 -0.0533
42652W        W43516  13.610   9.316   2.379  0.1152 -0.3214 -0.1804
42653W        W43517   9.834  27.251  11.391  0.2004 -0.0957 -0.0622
42654W        W43518  18.561  22.956  16.399 -0.0418 -0.3225  0.2100
42655W        W43519  12.375  13.095   3.929 -0.1348 -0.2184 -0.0752
42656W        W43520  16.019  18.299   6.820 -0.5024  0.3662 -0.1844
42657W        W43521  24.399  13.832  20.792  0.0151  0.1070  0.1167
42658W        W43522   7.857   2.840  16.198 -0.3143 -0.0877 -0.1055
42659W        W43523  12.491  20.653  21.758 -0.0834 -0.0358  0.0780
42660W        W43524  23.810  14.899  27.069  0.1659  0.0063 -0.0376
42661W        W43525   0.917   2.380   2.929 -0.1289 -0.1201  0.1613
42662W        W43526  17.641  20.502   9.948 -0.3200  0.3068  0.1131
42663W        W43527  17.306  14.002   9.880 -0.1133  0.2643 -0.1123
42664W        W43528  27.078  28.313  21.662 -0.0150 -0.2774  0.2531
42665W        W43529  17.906  20.353   8.362 -0.1432  0.0043  0.2084
42666W        W43530  16.092  17.587  25.767  0.2560  0.0386 -0.3653
42667W        W43531  12.761  18.655  20.409  0.0797 -0.0250 -0.0160
42668W        W43532  12.382  17.589  28.792 -0.0432 -0.2525  0.2590
42669W        W43533  17.539  25.858  12.078 -0.0585 -0.0202 -0.1783
42670W        W43534   0.651   0.503  21.280 -0.0134 -0.3288  0.0544
42671W        W43535  24.311  15.060  20.642 -0.0596 -0.1253 -0.0711
42672W        W43536   3.536  23.380  15.796 -0.3318 -0.0043 -0.1453
42673W        W43537   2.011  22.199  28.780  0.3317  0.2996  0.2193
42674W        W43538  28.672   8.690  17.928 -0.0771 -0.1791  0.0396
42675W        W43539  21.710   1.040  15.975 -0.1124 -0.1853  0.0580
42676W        W43540  18.678  16.076  22.927 -0.2563  0.0104  0.0277
42677W        W43541   9.251   0.281  16.238  0.0291 -0.1211  0.1530
42678W        W43542   4.351   9.663  16.179 -0.0463  0.1160  0.2164
42679W        W43543   2.787  13.475  17.953 -0.0023  0.2667  0.2040
42680W        W43544  14.925  22.879  11.284  0.1155 -0.0878  0.0014
42681W        W43545   8.852   4.770  18.845  0.0034  0.1962 -0.1410
42682W        W43546  20.233   8.613  18.025  0.1620 -0.2164  0.0685
42683W        W43547  17.829   6.165  18.132 -0.2433  0.2410 -0.0753
42684W        W43548  16.923  27.036  11.062 -0.0682  0.1032  0.1945
42685W        W43549  15.349  25.827  24.490 -0.2115 -0.1508  0.1673
42686W        W43550   8.769   4.217   9.954 -0.0604  0.2586  0.1054
42687W        W43551   1.571  19.992   3.791 -0.1723  0.1507 -0.2169
42688W        W43552  28.935  18.193  20.244  0.2157  0.0536  0.0405
42689W        W43553  24.663  15.960   6.770  0.0758 -0.0209  0.0131
42690W        W43554  14.200   1.498   8.913 -0.2516  0.3218 -0.1322
42691W        W43555   4.208  26.369  10.818 -0.0716  0.2154  0.3457
42692W        W43556   2.304   1.997  12.871 -0.1264  0.0633  0.1479
42693W        W43557  27.010  17.066  23.138 -0.0771 -0.0740  0.0602
42694W        W43558  24.148  14.089  16.812  0.0744 -0.0368  0.2128
42695W        W43559   0.240  19.924   3.287 -0.3035 -0.2259  0.0175
42696W        W43560  17.885   5.990  23.917 -0.0447 -0.0331  0.1417
42697W        W43561  12.003  14.159  25.398  0.0416 -0.2101  0.1263
42698W        W43562  22.726   9.552   5.118 -0.3323  0.2486 -0.0061
42699W        W43563   0.308  12.742  26.756  0.0076 -0.2662  0.0126
42700W        W43564  12.495   1.396  12.404 -0.0181  0.0587  0.0031
42701W        W43565  29.134   3.542  10.876 -0.1365 -0.3609  0.0886
42702W        W43566  23.246  11.997  19.161  0.2745 -0.2340 -0.1398
42703W        W43567  16.519  28.870   9.250 -0.0536  0.0722  0.0816
42704W        W43568  17.348  17.714  14.482 -0.1139 -0.2291  0.2569
42705W        W43569   5.851  23.467  21.973 -0.2288  0.0097  0.1580
42706W        W43570  19.333  23.304   7.601 -0.0132 -0.0815  0.0792
42707W        W43571  23.329   6.063  17.970  0.1222  0.1754  0.2805
42708W        W43572  28.754   1.804  15.353  0.2796  0.1098  0.0912
42709W        W43573   6.363   5.596  11.568 -0.2892 -0.1077  0.1942
42710W        W43574   0.842   2.936  15.989 -0.1704  0.0148 -0.1975
42711W        W43575  10.072   0.059  11.254  0.1372 -0.0420  0.0356
42712W        W43576  21.436   5.795  20.263 -0.3573  0.0789  0.2333
42713W        W43577   2.876  10.246  20.148  0.1255 -0.0511  0.1519
42714W        W43578  13.532  19.411   3.991 -0.1293  0.0838  0.1303
42715W        W43579  24.965   3.526  25.043  0.0550 -0.3730 -0.0353
42716W        W43580  23.856  11.894  27.658 -0.0565  0.0917 -0.0643
42717W        W43581  12.715  17.101   7.123  0.0299  0.2809  0.2736
42718W        W43582  19.170   8.865  16.335  0.2094  0.0383  0.1335
42719W        W43583  20.445   3.454   6.238  0.1073 -0.2025  0.2622
42720W        W43584  22.687  16.264  16.549 -0.0586  0.2006 -0.2978
42721W        W43585   1.177  16.034  19.425 -0.1346  0.3642 -0.1770
42722W        W43586  26.349   7.732  12.531 -0.1136 -0.0102 -0.1501
42723W        W43587  26.699  25.192  24.160 -0.0639 -0.1091  0.1103
42724W        W43588   4.836   5.540  23.495  0.0614 -0.1669 -0.1852
42725W        W43589   7.506  23.308  12.578 -0.1122 -0.3156 -0.1423
42726W        W43590  16.180   7.296  13.839  0.2960  0.1238  0.1954
42727W        W43591  11.076  17.241  14.571 -0.0981  0.0492 -0.2111
42728W        W43592  13.474   1.751  16.199 -0.0368 -0.1868  0.2525
42729W        W43593   7.070   3.124   8.524 -0.1514 -0.0600  0.1086
42730W        W43594  26.159  16.565   9.295 -0.0482  0.2462  0.0227
42731W        W43595  22.047   0.737  13.044 -0.1791  0.5565  0.0868
42732W        W43596  19.635   9.537   0.803 -0.1841 -0.1925 -0.0922
42733W        W43597  19.049   9.936   7.346  0.0832 -0.2062 -0.0403
42734W        W43598  13.835  16.775   8.890  0.0241 -0.1404 -0.2868
42735W        W43599   2.134  20.549   9.888 -0.3221 -0.2176 -0.2093
42736W        W43600  26.692  24.741  23.823 -0.2895  0.1229 -0.3236
42737W        W43601  24.975  16.681  22.039 -0.0139  0.1126  0.0531
42738W        W43602   5.329  11.569  24.572 -0.2385  0.1193 -0.0059
42739W        W43603  17.182  23.323  12.839 -0.2048  0.2436  0.2173
42740W        W43604   7.820  26.413   4.997 -0.0263 -0.1464  0.1781
42741W        W43605  15.346  13.768  19.549  0.1863  0.1140 -0.0558
42742W        W43606   6.163  27.310  15.572  0.0557  0.3007 -0.0784
42743W        W43607  22.529  16.612  24.129  0.1384  0.5228  0.4451
42744W        W43608  20.791  15.380   0.161 -0.5252 -0.0635 -0.1640
42745W        W43609   2.945  14.176  19.368 -0.1633  0.0104 -0.1332
42746W        W43610   3.285  20.643  16.909 -0.1516  0.0103  0.1483
42747W        W43611  16.306  15.761   8.075  0.0817 -0.0903  0.1580
42748W        W43612   9.361   7.131  16.157 -0.1418  0.3922 -0.0222
42749W        W43613  26.267  27.860  21.706  0.1005 -0.3628 -0.0211
42750W        W43614   7.243  21.565  21.652 -0.1303  0.1105  0.1754
42751W        W43615   3.450  29.077  22.694 -0.0307 -0.0437  0.4078
42752W        W43616  17.026   1.782   5.361 -0.2373  0.2923  0.2302
42753W        W43617   5.517  16.304  25.398  0.0653 -0.0819 -0.1611
42754W        W43618   1.947  22.185  28.259  0.1254 -0.0599 -0.0293
42755W        W43619  28.978  21.763  21.401 -0.3126 -0.0264 -0.0035
42756W        W43620  19.338   8.190   5.183  0.0311  0.1383  0.0239
42757W        W43621  14.488  15.042   4.390 -0.1874  0.2685  0.1534
42758W        W43622  24.821  11.787   7.702 -0.5590 -0.2204 -0.1020
42759W        W43623  18.838   2.010   3.546  0.0361  0.0204 -0.1370
42760W        W43624  11.975  14.799  21.043 -0.1970 -0.3051  0.0242
42761W        W43625  12.939  11.842  13.430  0.0170  0.3058  0.0498
42762W        W43626  28.565  25.926   3.504  0.0664 -0.0242  0.0176
42763W        W43627   5.957  14.235  13.152  0.1887  0.2541 -0.1933
42764W        W43628  16.468   5.733   3.788  0.1844  0.0481 -0.0125
42765W        W43629  21.329  16.495  14.643  0.0020 -0.0291  0.0314
42766W        W43630  21.802  25.101   4.281 -0.2411 -0.2606 -0.0273
42767W        W43631  25.438  18.672  11.817  0.0372  0.1889 -0.2027
42768W        W43632  13.870  21.886   7.403 -0.4069  0.0066 -0.0612
42769W        W43633  13.739  20.019  23.248  0.0633  0.3538  0.3595
42770W        W43634   7.456   0.542  22.320 -0.1264 -0.3597 -0.3596
42771W        W43635   1.081  23.938  17.206 -0.0133 -0.0965  0.0478
42772W        W43636   8.409  12.038   9.258  0.1584 -0.2311 -0.1671
42773W        W43637  14.565  10.439  28.023  0.0170  0.1983  0.0165
42774W        W43638  13.858  14.019   3.497  0.3820  0.1477 -0.3623
42775W        W43639   7.620   7.495  17.054 -0.1450  0.1179 -0.1427
42776W        W43640   9.164  22.052  16.797 -0.0077 -0.1012 -0.0941
42777W        W43641   5.938   3.220  13.419  0.2084 -0.0489 -0.1298
42778W        W43642  23.166  28.380  11.734 -0.2846  0.0428 -0.0432
42779W        W43643   0.966   5.386  14.885 -0.3844  0.0239 -0.0740
42780W        W43644   6.124  22.205  11.741  0.1412  0.0200  0.4035
42781W        W43645  22.091  14.109  16.314  0.0014 -0.0471 -0.0381
42782W        W43646   9.020   1.245  19.432  0.0163 -0.0880 -0.0772
42783W        W43647   9.793  16.162  24.415  0.0145  0.3003  0.0867
42784W        W43648   6.882  23.924   1.611 -0.4045  0.1297  0.0024
42785W        W43649  23.341  27.852  13.550  0.0843 -0.1220 -0.0983
42786W        W43650   2.743  22.121  11.612 -0.2859  0.2444  0.1857
42787W        W43651  17.975  11.617   8.597 -0.1334  0.0847  0.0602
42788W        W43652   1.715   4.712  11.703 -0.1817 -0.3216 -0.0173
42789W        W43653  19.292   3.193  22.669 -0.0271 -0.0511  0.0692
42790W        W43654  21.568  16.094  17.260  0.1178 -0.3896 -0.0599
42791W        W43655   3.115   0.036  13.540 -0.2820 -0.2678  0.3132
42792W        W43656   3.794  16.366  11.312  0.1189 -0.1411 -0.0014
42793W        W43657  20.043  25.610  23.048  0.2426  0.2089  0.2236
42794W        W43658  18.718  18.441   4.761 -0.3276 -0.2840 -0.1362
42795W        W43659   3.476  10.378   4.782 -0.0193 -0.1182 -0.1761
42796W        W43660  17.430   1.279  28.363  0.1725  0.1235  0.2413
42797W        W43661  15.704   3.952  27.350 -0.0430 -0.2363 -0.0606
42798W        W43662  21.284   7.209  20.103 -0.1551 -0.2715  0.0683
42799W        W43663  23.200   8.610  13.958 -0.0138  0.0171 -0.0979
42800W        W43664   6.406   0.108  24.611  0.1027  0.0550  0.0584
42801W        W43665   9.766   3.744   9.461 -0.2045  0.2971 -0.1093
42802W        W43666  21.545  19.324  16.872 -0.0227  0.2124  0.1196
42803W        W43667   1.870  26.863   3.704 -0.1303 -0.0541  0.3493
42804W        W43668   3.629   1.395   0.865 -0.1520 -0.2942  0.3606
42805W        W43669  27.696  15.247   1.972  0.1299 -0.0523  0.0109
42806W        W43670  21.960  22.853   6.729 -0.2761  0.0455  0.1662
42807W        W43671  18.650  27.591  28.566 -0.0506  0.0947  0.1438
42808W        W43672  16.398   2.804  11.582  0.0575 -0.2534  0.3060
42809W        W43673  12.335  15.882  16.922  0.0881  0.1426 -0.0903
42810W        W43674  10.384  20.324  12.849 -0.1223  0.3608 -0.1420
42811W        W43675  16.542  17.984   5.138  0.0896 -0.2346 -0.2153
42812W        W43676  12.672  15.268  11.527 -0.0170  0.2948  0.0854
42813W        W43677  18.581  20.243   5.543 -0.0726 -0.2029 -0.2888
42814W        W43678   2.291  16.942  11.352 -0.1917  0.3350 -0.4292
42815W        W43679   7.635   5.644  21.148  0.4583  0.2340 -0.1473
42816W        W43680   2.660  10.923  19.299  0.1059 -0.0608  0.0861
42817W        W43681  22.730  14.335   1.506  0.0016 -0.1402 -0.0107
42818W        W43682  18.789  26.127  17.422  0.1377  0.0051 -0.1876
42819W        W43683  21.713  19.376  10.008 -0.1182 -0.1296  0.0002
42820W        W43684  13.597  26.405   8.232  0.1346  0.2925 -0.1878
42821W        W43685  16.216  19.029   9.177 -0.0765 -0.2138 -0.1196
42822W        W43686   6.945   7.850  19.890  0.1903  0.1067 -0.0129
42823W        W43687  27.739  11.132   1.020  0.0761 -0.1222 -0.1531
42824W        W43688  25.408   7.242   5.902 -0.0104  0.2060  0.3745
42825W        W43689  23.322  16.278  17.044  0.1324  0.1088  0.0526
42826W        W43690  17.924  17.412   3.416  0.3718 -0.0404  0.3096
42827W        W43691  26.871  19.284   2.997  0.1637  0.0631  0.2956
42828W        W43692  24.950  22.774  25.839  0.2062  0.0572 -0.0737
42829W        W43693  20.860  26.815  20.912  0.2122 -0.1407  0.1608
42830W        W43694  20.754  18.839  15.217  0.3623  0.2043 -0.1789
42831W        W43695  17.387  28.509  27.620 -0.0052  0.2835 -0.1788
42832W        W43696  17.418   7.340  28.428  0.0963  0.0492 -0.0229
42833W        W43697   4.335  11.466   7.502 -0.4638  0.0028  0.0538
42834W        W43698  25.770   0.558  20.602 -0.1131 -0.2275  0.1447
42835W        W43699   9.101  18.559  14.249 -0.1590  0.0927 -0.2124
42836W        W43700   6.863  19.640   1.418  0.1977  0.1325 -0.0365
42837W        W43701  15.552   4.073  28.478 -0.1581 -0.0877  0.0240
42838W        W43702  26.322  17.626  26.327  0.0025 -0.2530  0.1492
42839W        W43703  17.322   7.742  14.019  0.1612  0.1336  0.0194
42840W        W43704  18.454  22.744  27.489 -0.4306  0.0379  0.0244
42841W        W43705  16.254  17.354  24.256  0.0971  0.2227  0.1159
42842W        W43706   9.847   0.480  26.674  0.2007 -0.4395  0.1772
42843W        W43707  18.196  20.744  16.608 -0.0037  0.0643  0.0334
42844W        W43708  12.638  25.097  17.794 -0.0651 -0.1052 -0.0488
42845W        W43709  22.259   6.832  12.531  0.2268 -0.1120 -0.0661
42846W        W43710  11.573   8.344   2.321  0.0860 -0.3409 -0.2674
42847W        W43711   6.118   1.050  14.118 -0.0337  0.1231 -0.4125
42848W        W43712  28.621   2.946  13.254 -0.1991 -0.0900 -0.2356
42849W        W43713  14.753   2.912   9.381  0.5692 -0.3942 -0.0616
42850W        W43714  27.489   9.462  13.837  0.2245  0.2916 -0.1370
42851W        W43715   2.619   6.804   7.450 -0.3436  0.0550  0.0991
42852W        W43716  11.875   1.685   0.033  0.1755 -0.0132  0.0593
42853W        W43717  15.658   5.476   9.385 -0.1026 -0.1273 -0.1272
42854W        W43718   7.263  15.742  22.068  0.0414  0.0374  0.3798
42855W        W43719  11.638  13.027   7.932 -0.3118 -0.0938  0.1325
42856W        W43720  11.243  13.836  24.113 -0.3401 -0.0298  0.1433
42857W        W43721  12.909   2.672  14.670 -0.2306 -0.2367 -0.1029
42858W        W43722  16.916  19.372   9.432  0.3620 -0.2327  0.0179
42859W        W43723   7.981  25.143  21.916 -0.0821  0.1865 -0.2012
42860W        W43724  12.814  19.936  19.981 -0.2096 -0.0053 -0.1750
42861W        W43725  13.099   0.780  21.332 -0.0420 -0.0441  0.0382
42862W        W43726  25.400   8.988  27.057 -0.1707 -0.2172 -0.0935
42863W        W43727  16.269  14.848  21.836  0.0136 -0.0430  0.2820
42864W        W43728   2.762   2.816  11.873  0.1884  0.0750  0.0593
42865W        W43729  14.210  20.604   3.939 -0.0242  0.0022  0.1255
42866W        W43730   9.045  23.633  14.173  0.0676  0.1394 -0.1801
42867W        W43731  12.662  18.594   9.006  0.2565 -0.0405  0.1218
42868W        W43732  19.111  21.453  22.283 -0.1072 -0.2939 -0.0038
42869W        W43733  13.079  18.712  12.757  0.0698 -0.3172 -0.0335
42870W        W43734   1.053  13.973  10.898  0.1146  0.1071 -0.1387
42871W        W43735  17.605  14.962   1.183 -0.3601 -0.1558  0.0199
42872W        W43736  18.199   3.584  24.272  0.0136  0.2977  0.1581
42873W        W43737   7.408   8.891  10.289  0.1172 -0.3310  0.0803
42874W        W43738  15.577  14.612  12.178 -0.3921  0.0949 -0.1163
42875W        W43739   7.165  13.952  24.789 -0.2787 -0.1428  0.3623
42876W        W43740  10.563   6.979  28.860 -0.0087  0.2880 -0.2235
42877W        W43741  24.747  15.842  16.726 -0.0776 -0.0531 -0.0522
42878W        W43742  19.560   0.097  21.170  0.1446 -0.1370  0.0154
42879W        W43743  15.490  17.318  13.732  0.1208  0.1637  0.0022
42880W        W43744  28.271   4.131   1.746  0.3145 -0.0599  0.0511
42881W        W43745  23.563  14.133  21.710 -0.0990 -0.0496 -0.1076
42882W        W43746  24.365   9.339   9.031  0.0860 -0.0036 -0.1263
42883W        W43747  22.531   8.904  11.807 -0.0655  0.0273  0.1505
42884W        W43748  10.975  15.142   9.255 -0.1768  0.1322 -0.0036
42885W        W43749   9.847   9.923  15.276 -0.2712  0.0765 -0.0307
42886W        W43750  14.117  17.209   2.621 -0.1855 -0.0849  0.0804
42887W        W43751  20.955  11.232  24.685  0.2796 -0.0992  0.1175
42888W        W43752  14.507   2.620  10.105  0.4384  0.0186 -0.1790
42889W        W43753  18.505   0.817  16.302  0.2639  0.0087  0.1259
42890W        W43754  21.294  18.711  21.297 -0.3430 -0.0103 -0.2990
42891W        W43755  25.220   6.330  10.647  0.1508  0.0742 -0.1201
42892W        W43756   7.613  16.903   2.331  0.1507 -0.2816 -0.0496
42893W        W43757  19.846  16.742  15.219  0.0610  0.2186 -0.0505
42894W        W43758  22.829   3.891   3.864  0.2689  0.0600  0.1528
42895W        W43759   1.931  21.926  23.989  0.0511 -0.0955  0.1396
42896W        W43760  17.751   3.223  22.478  0.0191 -0.0372 -0.2379
42897W        W43761   9.586  15.562   1.068 -0.1348  0.0264  0.1202
42898W        W43762  10.196  19.316  15.562 -0.1741 -0.3074 -0.2146
42899W        W43763   4.215  24.476  24.456 -0.0764  0.2198  0.3263
42900W        W43764  15.719   4.504   5.076  0.2762  0.2106  0.1580
42901W        W43765  11.283  28.473   3.051  0.1609  0.3050  0.1762
42902W        W43766   3.419  15.193  16.390  0.1862 -0.0313 -0.1902
42903W        W43767  22.222  19.076  20.090 -0.0787 -0.0993 -0.0107
42904W        W43768   3.039  14.684  15.161 -0.2041 -0.0794  0.1008
42905W        W43769   5.311  16.927  16.659 -0.1075  0.2462  0.2637
42906W        W43770   9.156  21.754   5.594  0.1129  0.1127  0.1127
42907W        W43771  11.575  24.005   2.937  0.2655  0.3065  0.0797
42908W        W43772  10.861   9.774  22.779 -0.0413 -0.4022 -0.1206
42909W        W43773   4.747   2.307  13.057 -0.1556 -0.0610  0.2213
42910W        W43774  21.892  10.765  16.630  0.1012 -0.0280  0.2027
42911W        W43775  11.704  25.233  13.134 -0.1502 -0.0969 -0.1500
42912W        W43776  26.294  10.178   8.609 -0.3353  0.0233 -0.0324
42913W        W43777  15.569   6.900  12.181 -0.0789 -0.0360 -0.2481
42914W        W43778   1.364  23.769  13.566  0.1608  0.1408  0.2201
42915W        W43779  11.079   3.489  19.484 -0.1577  0.2082  0.1185
42916W        W43780  13.176  10.478   7.405 -0.1357  0.1868 -0.2514
42917W        W43781  12.203  24.276  16.022 -0.1560  0.0538  0.1213
42918W        W43782  15.103   9.655  15.698 -0.0339  0.2809  0.2586
42919W        W43783  23.104  18.085  17.437 -0.0208 -0.1653  0.2295
42920W        W43784  22.918  15.144   8.647  0.1933  0.1116  0.2294
42921W        W43785  10.634  16.399   6.652 -0.1163 -0.0639 -0.1774
42922W        W43786  28.035  27.307  11.050 -0.5375 -0.1784  0.1981
42923W        W43787  10.042   9.802  28.714 -0.0191  0.0903 -0.1539
42924W        W43788  28.908  13.944  18.683 -0.0222 -0.0378 -0.1293
42925W        W43789   5.030   2.672  28.359 -0.1387 -0.2165 -0.3345
42926W        W43790  24.036  19.357  24.333 -0.1843 -0.4753 -0.0405
42927W        W43791   3.327  17.888  26.601  0.1529  0.0771  0.2541
42928W        W43792  17.185  21.743  13.200  0.2957 -0.1520  0.0522
42929W        W43793  10.848  20.389  26.387 -0.2469 -0.0411 -0.1651
42930W        W43794   1.252  23.016  15.736  0.1260  0.1452  0.0443
42931W        W43795  27.718  25.284  16.489  0.0097  0.0121  0.0101
42932W        W43796   0.422  12.121   8.344 -0.0642  0.1514 -0.3268
42933W        W43797  17.933   0.711  26.335  0.1781  0.2464  0.3059
42934W        W43798  23.943  26.872   1.413  0.1733  0.1644  0.0174
42935W        W43799   1.590  10.240   1.243  0.2212  0.0909 -0.1864
42936W        W43800  20.102  22.779  21.322 -0.0947  0.0960  0.4348
42937W        W43801   8.445  12.727   3.671 -0.0311  0.1264 -0.2707
42938W        W43802   6.425  16.016   3.811 -0.0902 -0.0407 -0.1566
42939W        W43803  17.534  15.096  22.345 -0.1839  0.0605 -0.0326
42940W        W43804   4.145  15.406  20.313  0.1803  0.0929  0.4726
42941W        W43805  17.694  13.758  17.662 -0.0680 -0.0378  0.1672
42942W        W43806  25.168   0.638   1.655  0.1518  0.3102 -0.0203
42943W        W43807  23.712  19.239  17.805 -0.0169 -0.4288 -0.3110
42944W        W43808  16.605  10.239  16.518  0.0741  0.0733  0.1126
42945W        W43809   3.113  19.053  24.187  0.0848 -0.1593  0.0396
42946W        W43810  26.540   3.699  19.773 -0.2059 -0.0391 -0.0132
42947W        W43811   4.841  23.570  26.231 -0.2421  0.1227 -0.0077
42948W        W43812   3.826  16.415   4.951  0.0525  0.0098 -0.0263
42949W        W43813  14.586  14.723  23.819 -0.1790  0.1458 -0.0278
42950W        W43814   3.566  19.688   3.986  0.1620 -0.1207  0.0655
42951W        W43815  16.847  16.723   1.209 -0.0211  0.0999  0.3434
42952W        W43816  26.386  16.650  21.576  0.2687  0.2805  0.0336
42953W        W43817  23.102  15.134  14.348  0.1708  0.2597  0.0166
42954W        W43818   1.767  15.917   6.602  0.1844  0.1036 -0.1397
42955W        W43819  28.431  17.583  25.812  0.1512 -0.2639 -0.1981
42956W        W43820  20.635   3.676  13.612  0.2953  0.2171 -0.0444
42957W        W43821  14.982   8.551  22.882 -0.0468 -0.1873 -0.1320
42958W        W43822  19.293  15.193   1.915  0.1007  0.2138  0.2824
42959W        W43823  22.140  18.811  17.951  0.1743 -0.1861  0.2411
42960W        W43824  12.252   9.552   0.571  0.0226  0.2473  0.0660
42961W        W43825  22.051   7.922  24.377 -0.4879 -0.4247 -0.0135
42962W        W43826   8.534   8.807  20.918 -0.2114  0.1026  0.1730
42963W        W43827  14.778  16.713   2.474 -0.0268 -0.0034  0.0949
42964W        W43828   2.827  12.268  19.295  0.0103 -0.1857 -0.2041
42965W        W43829  14.785   7.217  11.755  0.0433  0.2729 -0.3992
42966W        W43830  26.626   9.926  18.322 -0.1111 -0.1306  0.1355
42967W        W43831  25.782  20.303   2.946 -0.1358  0.2319 -0.3683
42968W        W43832  22.226  13.674  18.501  0.0325 -0.0200 -0.0164
42969W        W43833  16.151  20.304  27.609  0.3414 -0.0159  0.5114
42970W        W43834  14.325   6.278  18.936 -0.0378 -0.2432 -0.0149
42971W        W43835  14.746   9.370   7.630 -0.2336  0.2305  0.1404
42972W        W43836  25.838  18.821  16.179  0.0006  0.0070  0.2020
42973W        W43837  13.405  20.616  13.820  0.0761  0.0666 -0.1111
42974W        W43838   2.888  17.170  25.488 -0.1799 -0.0091 -0.2038
42975W        W43839  23.893  18.402   9.245  0.0143 -0.2035 -0.1320
42976W        W43840   0.546  15.056   7.720  0.0559  0.0617  0.0168
42977W        W43841  19.532  11.492   0.433  0.2187 -0.3768  0.4464
42978W        W43842   2.914   0.948  11.641  0.1424  0.1685 -0.0995
42979W        W43843  17.025  15.047  14.874  0.1891  0.2834  0.0977
42980W        W43844  20.072   5.848  23.657 -0.0815 -0.0383  0.3118
42981W        W43845  19.922  15.493  27.097 -0.4173  0.1391  0.1290
42982W        W43846   7.441  20.256   0.911 -0.1400 -0.2216  0.4447
42983W        W43847  27.824  16.449  26.026 -0.0058 -0.0919  0.3151
42984W        W43848   5.393   7.825  22.253  0.0207  0.1458  0.1389
42985W        W43849   1.349  20.863  13.052 -0.1187 -0.2830 -0.2155
42986W        W43850  18.006  14.675  18.246 -0.1927 -0.0387  0.0175
42987W        W43851  13.645  23.913   2.255 -0.0490 -0.2425 -0.2265
42988W        W43852  17.947  27.142  25.279  0.0455  0.1226 -0.1645
42989W        W43853  18.968   8.500  16.038 -0.0678 -0.1730 -0.0843
42990W        W43854  22.605  24.025   4.080  0.3285 -0.1602  0.4285
42991W        W43855  24.109  12.517  22.236  0.0858 -0.1691 -0.0940
42992W        W43856  10.459   7.700   0.844 -0.0549  0.0608  0.1762
42993W        W43857   4.071  25.336   5.694  0.0493 -0.1645  0.1401
42994W        W43858   5.212  15.732   1.231  0.2930  0.1782  0.2300
42995W        W43859  14.963  20.426  22.524 -0.1687 -0.1885 -0.0502
42996W        W43860  24.201  20.071   8.074  0.0259  0.2291  0.2021
42997W        W43861  20.393   1.786  20.222 -0.0435  0.1317  0.1316
42998W        W43862  13.858  23.294  15.025 -0.1694  0.0107 -0.1075
42999W        W43863  24.823   3.431   6.093  0.2233 -0.0346 -0.1768
43000W        W43864  27.352   8.169  22.207  0.0047 -0.0809  0.0503
43001W        W43865  24.421  10.581   4.742 -0.0258 -0.0532  0.0968
43002W        W43866  17.434  11.754   8.560  0.0606  0.0313 -0.2496
43003W        W43867  13.977  28.277  18.675 -0.3068  0.0360  0.0088
43004W        W43868  11.500  12.412  20.259  0.2196 -0.1557 -0.0986
43005W        W43869  14.840  24.865  23.981 -0.0822  0.0597  0.0559
43006W        W43870  23.227   9.519  24.228 -0.2494 -0.0810  0.0648
43007W        W43871  10.906  25.232  18.095 -0.2744  0.1477 -0.0800
43008W        W43872  27.921  28.449  27.526 -0.2317 -0.1040 -0.1692
43009W        W43873  11.100   1.726  26.437 -0.0779 -0.1551 -0.4487
43010W        W43874   4.569  14.004  21.958  0.2210 -0.0622 -0.0840
43011W        W43875   2.432  22.964   3.950  0.1002  0.0807 -0.3927
43012W        W43876  17.744  21.719  11.379  0.1608 -0.1183  0.0300
43013W        W43877   5.662  18.106  21.302  0.0251 -0.0174 -0.1387
43014W        W43878   0.408   1.672  23.628 -0.1197  0.2707  0.0368
43015W        W43879  14.117   4.399  23.193  0.1468  0.1672  0.0914
43016W        W43880  20.246   5.920  20.607 -0.2107 -0.1103  0.0913
43017W        W43881   1.062  15.187  26.971  0.2217 -0.4119  0.0543
43018W        W43882   8.179   5.069  14.793  0.1049  0.1497  0.1713
43019W        W43883  23.779   8.849  26.253 -0.3214 -0.0713  0.2275
43020W        W43884   0.441  10.509  16.293  0.1049  0.0751 -0.1870
43021W        W43885  21.682  23.476  23.110  0.0857 -0.1907 -0.0150
43022W        W43886  27.290   7.543  28.121 -0.0335  0.0766  0.0063
43023W        W43887  26.166  14.956   6.635  0.3353 -0.3334 -0.0101
43024W        W43888  13.182  24.769   2.512 -0.0919 -0.0598 -0.1795
43025W        W43889  22.099  20.984  14.752  0.0885  0.3462 -0.1070
43026W        W43890   5.099  22.361  26.960  0.1905 -0.1398 -0.2301
43027W        W43891  14.349  27.902  24.326 -0.3206  0.3926  0.2010
43028W        W43892  16.038   3.697  25.313 -0.2244 -0.1028  0.0475
43029W        W43893  16.433  21.059   2.992 -0.2780 -0.0465  0.0685
43030W        W43894  20.665  22.060  15.916  0.2527  0.2902  0.0216
43031W        W43895   5.752  12.048  12.517  0.1092 -0.0208 -0.1657
43032W        W43896  22.311  27.182  18.641 -0.1783  0.0257  0.1153
43033W        W43897  27.740  12.245  12.556  0.1639 -0.1050 -0.3216
43034W        W43898  19.777  17.987   6.684  0.0891  0.1544 -0.0633
43035W        W43899  22.018  18.188  22.856 -0.1149  0.2158  0.1622
43036W        W43900  22.095   9.996  14.340  0.1568 -0.0844  0.0591
43037W        W43901  22.228  15.465  28.853  0.0482  0.1729  0.1383
43038W        W43902  26.422  11.060  19.681  0.0941 -0.2164  0.2532
43039W        W43903   9.815  28.848   2.288 -0.1580  0.0302 -0.3243
43040W        W43904   6.794   8.664   1.975  0.0193 -0.1477 -0.4255
43041W        W43905  10.194  13.977   3.989 -0.2557 -0.1135  0.0804
43042W        W43906   9.402  24.955  21.508  0.0262 -0.1582 -0.1380
43043W        W43907  14.973  25.312  23.749  0.1563 -0.0838 -0.0821
43044W        W43908  15.680  23.974  24.703 -0.1370 -0.4027  0.2096
43045W        W43909  18.881  18.172   6.850 -0.1881 -0.0934  0.1949
43046W        W43910  13.262   9.186  23.490 -0.3705 -0.3450  0.1255
43047W        W43911  22.130  23.912   0.887  0.0486 -0.1876  0.1118
43048W        W43912  15.938  22.003  16.322  0.2349 -0.1025 -0.2244
43049W        W43913   3.118  13.396   8.529  0.0692 -0.0122  0.0978
43050W        W43914  12.683  11.100  28.722 -0.1058  0.0466  0.3527
43051W        W43915  17.056   0.739   5.594 -0.0964 -0.0265  0.0094
43052W        W43916  28.327  19.200  21.452  0.2422 -0.0098 -0.0493
43053W        W43917  12.708  26.497   8.007  0.2561 -0.0353  0.0400
43054W        W43918   1.173  12.417  24.577  0.2165 -0.1097  0.3482
43055W        W43919   8.709  15.023  15.900 -0.4174 -0.0925 -0.0189
43056W        W43920  15.723  22.186  17.770 -0.1482  0.2202 -0.1390
43057W        W43921   6.881  12.765  19.478 -0.2589  0.2474  0.1461
43058W        W43922  19.208  20.847   0.616 -0.0687  0.4630  0.1419
43059W        W43923  24.291   9.072   8.639  0.0464  0.6210 -0.2069
43060W        W43924   7.819  20.121  20.804 -0.3837 -0.0358 -0.0377
43061W        W43925  21.921   4.518  23.076 -0.2538  0.1668  0.3389
43062W        W43926  27.230   9.583   9.735  0.3355  0.0772 -0.1979
43063W        W43927   7.438  24.727  20.074 -0.1183 -0.2079  0.0034
43064W        W43928  26.831  27.584  13.615 -0.0907  0.1179 -0.1180
43065W        W43929  24.196   3.634  20.532  0.1616  0.1148  0.0364
43066W        W43930   5.122  20.909  16.357  0.2163  0.0430  0.4913
43067W        W43931  26.508  16.026  20.172 -0.0138  0.2999 -0.0215
43068W        W43932  14.958   8.213  13.374  0.1841 -0.0240 -0.0246
43069W        W43933  15.826   4.496  13.598 -0.2147  0.1731 -0.0146
43070W        W43934   6.832  13.912  22.732  0.0952  0.2016 -0.0041
43071W        W43935  19.950  14.167  17.809 -0.0405  0.1176  0.0677
43072W        W43936  28.290  19.702  18.072 -0.1701 -0.3487  0.1163
43073W        W43937  23.871   0.645  17.833 -0.2683 -0.1504  0.0092
43074W        W43938  21.308  28.841  17.756 -0.1820  0.0816 -0.1862
43075W        W43939   2.983  19.466   9.549 -0.1337 -0.1287 -0.1496
43076W        W43940  19.800  12.785  15.459  0.0160  0.0081  0.2512
43077W        W43941  28.321   2.062  27.849  0.0011  0.3098  0.2487
43078W        W43942  18.146  27.725  26.310  0.0077 -0.3500 -0.0222
43079W        W43943   2.819   7.068  18.173  0.3485 -0.1403  0.0595
43080W        W43944   1.455  25.471  20.854 -0.0247  0.0842  0.2295
43081W        W43945   3.446  24.974  13.169 -0.1813 -0.0437  0.0236
43082W        W43946  21.724   7.053  12.740  0.0019 -0.2308  0.1768
43083W        W43947  21.457  13.246  11.010 -0.0680 -0.1050  0.2572
43084W        W43948  16.818  13.027  22.162  0.1413  0.2903  0.1465
43085W        W43949  13.085  26.224  20.474 -0.0755  0.4736  0.1123
43086W        W43950   7.476   1.641   3.576 -0.1112  0.2049 -0.0438
43087W        W43951  17.308  17.070  24.518 -0.0706  0.2090 -0.0401
43088W        W43952  16.949   8.943   7.250  0.0630 -0.0644  0.3086
43089W        W43953  10.593  25.518  18.467  0.0369 -0.0676 -0.0502
43090W        W43954  26.740  19.403  21.170 -0.2158 -0.0947 -0.2187
43091W        W43955   5.553  12.458  28.006  0.3342 -0.1200 -0.0289
43092W        W43956  13.693  27.980  14.417 -0.2199  0.1309 -0.2354
43093W        W43957  11.378  15.305   9.003  0.1577 -0.3277  0.2673
43094W        W43958  20.658  20.401   9.646  0.0548  0.3304 -0.3614
43095W        W43959  21.343  21.324   1.339  0.1770 -0.1477  0.1905
43096W        W43960   5.621  12.001  11.741 -0.5112  0.0642 -0.1398
43097W        W43961  16.709  13.357   9.438  0.2317 -0.1803 -0.0470
43098W        W43962   3.794  20.191   5.173  0.1515  0.1798 -0.4456
43099W        W43963   4.175  11.393  20.022  0.0306 -0.1617  0.0700
43100W        W43964  28.930  13.923   2.739  0.1163  0.0323 -0.0315
43101W        W43965  14.418  13.270  14.249  0.1937 -0.2007  0.1531
43102W        W43966   6.415  22.537  27.759 -0.0230  0.4233 -0.1478
43103W        W43967  20.865  21.026  19.720 -0.3674 -0.1050 -0.3541
43104W        W43968   2.763  28.060  27.721 -0.1027  0.0267 -0.0394
43105W        W43969  16.219  23.497  16.419  0.1261  0.0476 -0.3869
43106W        W43970  16.341  25.223  18.701 -0.1803 -0.2899 -0.0894
43107W        W43971  17.781  23.368  20.000 -0.0438  0.0971  0.2351
43108W        W43972   4.638  19.036   7.063  0.0490 -0.0088  0.0383
43109W        W43973  14.543   4.363  21.246  0.0706 -0.0090  0.7669
43110W        W43974  24.519  10.333  23.028 -0.0457  0.0774  0.0979
43111W        W43975  16.240  26.340   3.083  0.0058  0.0444 -0.1080
43112W        W43976  15.220  26.935  21.529 -0.1586 -0.5468  0.2550
43113W        W43977  17.022   2.041   0.532  0.0525  0.1813 -0.1583
43114W        W43978  14.914  14.493  14.478  0.2459  0.2187 -0.0222
43115W        W43979  18.625  15.401  18.371  0.0993  0.1657  0.2544
43116W        W43980   5.416  16.198  19.534  0.3429  0.1175 -0.4457
43117W        W43981   0.010   7.276   4.497  0.0348 -0.3570  0.0745
43118W        W43982   2.298  16.270  14.712  0.1201 -0.1412 -0.4474
43119W        W43983  19.645   2.828  12.312 -0.3092  0.1834 -0.3020
43120W        W43984  18.341   5.849  11.313  0.2072  0.0458  0.2233
43121W        W43985  21.138   3.391   6.942  0.0133  0.2470  0.0213
43122W        W43986  23.912   9.042  13.948  0.0438 -0.0914 -0.1475
43123W        W43987   3.067  27.689  21.440 -0.0724 -0.1877  0.1660
43124W        W43988  27.445  20.107   5.173 -0.0846  0.1706  0.0254
43125W        W43989  13.592  22.241   8.568  0.0428  0.1792 -0.1644
43126W        W43990  25.358   0.994  28.458 -0.0325 -0.2412 -0.0111
43127W        W43991  11.391  15.811   4.516  0.1585 -0.0077 -0.1281
43128W        W43992  28.257  24.572  18.704  0.0931  0.2353 -0.1655
43129W        W43993  17.931  14.408  24.760  0.1041  0.2492 -0.2530
43130W        W43994  25.212  16.829  25.522 -0.0551 -0.0920  0.0775
43131W        W43995  27.537  18.950  28.647 -0.0795 -0.2727  0.3025
43132W        W43996   2.494  16.143   1.241  0.0414  0.2526  0.0708
43133W        W43997  27.621  15.330  10.559  0.0273 -0.1737  0.1574
43134W        W43998  28.841  26.721   1.619  0.0679  0.2817 -0.1737
43135W        W43999  13.576  17.257  23.356 -0.1936 -0.0456  0.1491
43136W        W44000  27.179  10.109  20.897  0.1499  0.0641 -0.0135
43137W        W44001  11.637   2.796   3.414 -0.2306 -0.1611 -0.0651
43138W        W44002  21.832   9.419  10.701 -0.1729 -0.1054  0.1937
43139W        W44003  22.648  28.183  16.721 -0.0955  0.2319 -0.1949
43140W        W44004  22.611  12.163  23.178  0.0317  0.0014 -0.2073
43141W        W44005   6.872  13.833  12.470 -0.0383 -0.4982  0.2418
43142W        W44006  25.545  10.078   0.718 -0.3258 -0.0588 -0.1116
43143W        W44007   3.222   5.844   3.762  0.1875  0.0341 -0.0255
43144W        W44008  17.620  28.734   6.008  0.0041  0.1554 -0.2045
43145W        W44009  20.329  16.118  21.470  0.1691  0.1700 -0.0446
43146W        W44010  19.891   7.185  14.400 -0.0539  0.2536  0.1723
43147W        W44011   6.805  21.566  24.370  0.1586 -0.0292  0.0427
43148W        W44012  25.288   3.882  24.848  0.2178 -0.1947 -0.1532
43149W        W44013  15.371  16.461  23.123 -0.0620 -0.2662 -0.1400
43150W        W44014  21.514  15.261  12.604  0.0870 -0.2270 -0.1793
43151W        W44015  14.829  18.667   3.093  0.4438 -0.0855 -0.1430
43152W        W44016  12.981  13.686   5.305 -0.1268  0.1339 -0.0259
43153W        W44017   8.594  28.698   8.494 -0.0845 -0.2017 -0.2004
43154W        W44018  24.303  24.296  20.868 -0.1846  0.1310  0.2845
43155W        W44019  28.005   8.706  15.203  0.1439 -0.1837  0.1776
43156W        W44020  28.002  15.758  25.263 -0.1919 -0.0581 -0.2651
43157W        W44021  19.841   9.553  17.524  0.0618  0.0020  0.3238
43158W        W44022  11.802  28.600  27.275  0.1517 -0.1444  0.2396
43159W        W44023  14.184  27.441  26.448 -0.0006 -0.0596 -0.1109
43160W        W44024  20.202  17.904  25.371  0.1128 -0.1276 -0.3160
43161W        W44025  27.252  15.736   8.790 -0.1176 -0.0543 -0.0000
43162W        W44026  14.530  14.311  16.028  0.3850 -0.2016 -0.1203
43163W        W44027  14.983  28.709  19.704  0.0578  0.1199  0.1042
43164W        W44028  23.847  12.958  11.276  0.0947 -0.5033 -0.4037
43165W        W44029   8.213  10.158  11.846  0.2183 -0.0884  0.2617
43166W        W44030   9.423  17.470   3.430  0.1084  0.1859 -0.0948
43167W        W44031  22.719  17.237  15.215 -0.0421  0.0797 -0.1569
43168W        W44032  24.848  13.976  11.934 -0.2246 -0.1210 -0.2780
43169W        W44033  12.610  13.872  11.049 -0.1058  0.0457 -0.0790
43170W        W44034  28.735  13.669  25.565 -0.2092  0.1569  0.0901
43171W        W44035  26.066  10.591  27.431  0.1505 -0.1590 -0.0980
43172W        W44036  17.169  20.206  18.307  0.1527 -0.1169  0.3806
43173W        W44037  18.988   2.932   9.612 -0.1431  0.2257 -0.2496
43174W        W44038  10.225  27.017  22.828 -0.0986  0.0420  0.0216
43175W        W44039  21.394   9.704  18.438 -0.0894  0.1819 -0.0565
43176W        W44040  10.924  24.179  22.532 -0.3420 -0.1872  0.3096
43177W        W44041  17.897  10.839  27.593 -0.1060  0.0852 -0.0080
43178W        W44042  14.657  19.014  10.817 -0.0168  0.1006  0.1069
43179W        W44043   0.346  20.731  15.068 -0.1235 -0.1201  0.0817
43180W        W44044   3.337   3.990  26.858  0.0362 -0.0467  0.0566
43181W        W44045   9.931   1.021  15.017 -0.1103  0.1935 -0.0012
43182W        W44046  15.076  12.966  14.624  0.0277  0.2757  0.0098
43183W        W44047   0.748  23.946   6.349 -0.0086 -0.0117  0.0558
43184W        W44048   7.371  15.621  19.283 -0.0128  0.2114 -0.0478
43185W        W44049  12.601  17.267   1.991  0.2412  0.1390  0.2580
43186W        W44050   3.163  14.212  10.683  0.1750  0.1837 -0.0837
43187W        W44051  13.216   3.454  14.222  0.1131  0.0348  0.2408
43188W        W44052  17.931  19.163  18.251 -0.1003 -0.1157 -0.0158
43189W        W44053  22.091  20.602   2.116 -0.3383  0.3278 -0.3301
43190W        W44054  18.855  15.159  23.382 -0.0157 -0.0506  0.0427
43191W        W44055  17.134  10.722  17.115  0.3016 -0.2345 -0.0848
43192W        W44056   7.068  15.905  14.675 -0.0973  0.1595  0.0611
43193W        W44057  12.384  24.723   6.320  0.0889 -0.1362  0.1925
43194W        W44058  10.366  13.195   1.082  0.3443 -0.1715 -0.0685
43195W        W44059  26.072  19.992   9.014  0.0011  0.2069 -0.1519
43196W        W44060  26.332  19.411  18.877 -0.1217  0.3105  0.0168
43197W        W44061  21.617  24.736   1.002  0.1061  0.1308 -0.0938
43198W        W44062  13.562  21.899  14.132 -0.2541  0.2389 -0.1800
43199W        W44063   5.533  23.017   9.099 -0.2800  0.3622 -0.0014
43200W        W44064  15.546   8.296  23.105 -0.1909  0.4210 -0.0989
43201W        W44065  15.386  16.461  19.010  0.1670 -0.0178 -0.0988
43202W        W44066   8.576  12.957  16.085 -0.0959  0.0895  0.2993
43203W        W44067  18.026  20.579  28.697  0.3153  0.2666 -0.0333
43204W        W44068  22.478  25.852  20.503  0.2521  0.1294 -0.2801
43205W        W44069  28.849  24.864  25.416  0.0593 -0.1351 -0.2621
43206W        W44070  14.176  23.798   0.175  0.2024  0.4738  0.0358
43207W        W44071  19.502  11.121  15.694 -0.2529  0.0502  0.0434
43208W        W44072  14.078  15.960  14.919 -0.0990  0.0450  0.4426
43209W        W44073  13.572   3.548  19.537  0.0560  0.1529  0.1535
43210W        W44074  17.232  15.766  17.052  0.0381  0.1692  0.0062
43211W        W44075   8.477  14.729  25.830 -0.1561 -0.3642  0.0940
43212W        W44076   7.074  26.919  21.730  0.0223  0.2031 -0.0562
43213W        W44077   3.377   7.776  14.361 -0.0101 -0.0178 -0.1199
43214W        W44078  10.191  28.040   1.952  0.0237 -0.0284 -0.3163
43215W        W44079  23.261  25.372  11.565 -0.3208  0.1050  0.1277
43216W        W44080  12.985   7.588   4.517 -0.3924  0.0735 -0.0370
43217W        W44081   8.684  20.097  18.656 -0.0907 -0.0401 -0.4832
43218W        W44082  10.052  21.524  22.671 -0.0353  0.0532 -0.4269
43219W        W44083   0.661  24.910  11.518 -0.0378  0.0195 -0.2291
43220W        W44084  13.414   9.258  17.232 -0.2263  0.0250  0.3015
43221W        W44085   8.173  26.202   0.155 -0.0733 -0.0895 -0.0028
43222W        W44086   5.986  21.479  15.726 -0.1106  0.1945  0.2581
43223W        W44087   4.190   5.802   9.280  0.0170  0.1297  0.2429
43224W        W44088  13.556   5.472  15.967  0.0138 -0.2248 -0.0722
43225W        W44089  24.676  15.643   2.025 -0.3341 -0.1212 -0.0404
43226W        W44090   2.124  13.366  18.746  0.0192 -0.0023 -0.0089
43227W        W44091  16.663   9.313  20.379 -0.0852  0.3386  0.2197
43228W        W44092   2.183  19.373  13.228  0.3436 -0.2888 -0.2992
43229W        W44093  21.801  24.180  13.768 -0.1664  0.2408  0.2825
43230W        W44094  22.310  22.630  25.087 -0.0636  0.1564 -0.0267
43231W        W44095   0.621  14.393   3.310  0.0108 -0.1949  0.0840
43232W        W44096  12.064  24.790   3.898  0.1312  0.2091  0.4477
43233W        W44097  21.552  16.664   1.510 -0.0171 -0.3730 -0.1135
43234W        W44098  28.307  10.126  27.254 -0.0173  0.1966 -0.5331
43235W        W44099   4.333  21.170  27.912  0.2424  0.2017 -0.3033
43236W        W44100  18.669   3.933  24.688  0.2162  0.0049  0.0358
43237W        W44101  10.850  17.860  12.836  0.1852 -0.0522 -0.0274
43238W        W44102  27.331  25.432  27.607  0.0986  0.3127  0.0988
43239W        W44103   8.375  26.828  10.915 -0.1033 -0.2436 -0.3325
43240W        W44104  17.417  18.427  20.937  0.1296  0.1637 -0.1321
43241W        W44105  27.983  13.351  25.369 -0.2032 -0.1884 -0.1014
43242W        W44106   5.013  28.685   6.789  0.4740  0.0526  0.2040
43243W        W44107   0.706   1.006  25.784 -0.4139 -0.0581 -0.2146
43244W        W44108  19.325   1.796  14.345  0.2368 -0.0581  0.2117
43245W        W44109  26.125  13.964  16.413 -0.1076 -0.1528 -0.2518
43246W        W44110  16.818   3.457  18.276  0.2947  0.2494 -0.0504
43247W        W44111  16.240  17.286  10.886  0.1464 -0.1624 -0.2408
43248W        W44112  16.868  22.331   3.409  0.0277 -0.1944 -0.5502
43249W        W44113  18.171   2.353  28.482 -0.1415  0.3085 -0.0301
43250W        W44114  26.685  15.898  24.613 -0.0244  0.1848  0.0593
43251W        W44115  10.920  20.807  23.286 -0.0839  0.0416  0.0665
43252W        W44116  22.065  23.532  10.163 -0.0951  0.1640 -0.0938
43253W        W44117  22.380   3.244   4.598  0.0290  0.0520  0.0008
43254W        W44118   1.801  18.926  22.611  0.0206 -0.4110 -0.2793
43255W        W44119   9.406  21.844  25.459  0.1293 -0.1265  0.0939
43256W        W44120   4.689   7.239  21.296 -0.1058 -0.4313  0.1055
43257W        W44121  23.493  27.420   7.191 -0.2194  0.1947 -0.0037
43258W        W44122   3.595  21.499  16.541 -0.4917 -0.0871 -0.0193
43259W        W44123  19.382  14.684  15.432  0.2396  0.2699 -0.2039
43260W        W44124  22.243  21.860   7.487 -0.1035  0.3554 -0.1125
43261W        W44125  22.525  19.745  23.853  0.1378  0.2025  0.2810
43262W        W44126   5.543   7.999  23.460  0.1015  0.0747 -0.5160
43263W        W44127  17.746   0.745  15.588  0.0955  0.1200 -0.0968
43264W        W44128  22.108  14.709  11.369 -0.1227  0.0187  0.4418
43265W        W44129  22.344   7.917   0.092  0.4127  0.0238  0.0138
43266W        W44130  11.415   1.494   1.002  0.0961  0.1342 -0.1790
43267W        W44131   3.475  10.511   0.656  0.2216 -0.2154 -0.1168
43268W        W44132  23.691  22.780   9.941  0.2495 -0.3100  0.1800
43269W        W44133  14.584  12.219   0.006  0.3463 -0.0179 -0.0788
43270W        W44134   3.198   3.799  17.433  0.1502  0.0749  0.4738
43271W        W44135   4.451  16.680  17.074  0.2909  0.2039  0.0132
43272W        W44136  16.724  24.266   2.967 -0.4618  0.1681 -0.0746
43273W        W44137  25.494   3.979  10.461  0.0853  0.1115  0.1283
43274W        W44138  18.516  23.105   0.359 -0.0949 -0.2017 -0.3283
43275W        W44139   4.268   4.215  27.221  0.1694  0.3019 -0.0027
43276W        W44140  22.973   7.300  26.243 -0.0572 -0.0160  0.3720
43277W        W44141  22.490  28.422   2.370  0.0138  0.0781  0.0615
43278W        W44142   6.531  28.212  14.324  0.1167 -0.0384  0.2216
43279W        W44143  23.550  21.313  20.420 -0.0562  0.0562  0.0086
43280W        W44144   5.657  12.798  17.833  0.0425 -0.0913 -0.1907
43281W        W44145  14.189  25.319  14.561  0.0239 -0.1864 -0.0750
43282W        W44146   0.636  19.608  10.101 -0.0188 -0.1321 -0.1899
43283W        W44147  19.899  21.637  22.833  0.4403  0.0817  0.2102
43284W        W44148  20.316  13.116  16.860  0.1239  0.1917 -0.0674
43285W        W44149   7.959  10.755  18.544  0.1070  0.1618  0.1504
43286W        W44150   2.114   8.220  12.040  0.0348 -0.1095  0.1028
43287W        W44151  20.340  26.992  28.622  0.0456  0.0650 -0.4012
43288W        W44152  17.474   2.389  21.520 -0.1319  0.1098 -0.2753
43289W        W44153  13.135  10.512   9.642  0.0911  0.0269  0.1336
43290W        W44154  24.546  16.306  16.602 -0.4548  0.1489  0.0574
43291W        W44155  20.304   8.874  23.437 -0.0464 -0.0613  0.2879
43292W        W44156  14.448  17.840   6.928  0.0268  0.0492 -0.0463
43293W        W44157   2.533  13.093  19.467 -0.2072 -0.0245  0.0017
43294W        W44158  24.408  28.651  26.665 -0.0648  0.0320  0.1823
43295W        W44159  15.766   9.306  23.380  0.0174 -0.1585 -0.1377
43296W        W44160  18.986  16.804  13.123  0.0410 -0.3433  0.2316
43297W        W44161  23.657  14.234  20.316  0.1229 -0.0376  0.0857
43298W        W44162  12.690  13.490  25.204 -0.1026  0.2523 -0.0690
43299W        W44163  24.336   3.168   2.553  0.3516  0.0037 -0.2418
43300W        W44164  17.181  10.485  28.616  0.1100  0.1008  0.1388
43301W        W44165  16.123   9.591  15.926  0.4205 -0.0771  0.2919
43302W        W44166  13.967   6.273  11.051  0.0452  0.0921  0.2313
43303W        W44167  15.435  12.474  21.816  0.0299 -0.2413 -0.0281
43304W        W44168  21.046   3.517  20.498  0.1524 -0.2835 -0.0624
43305W        W44169   0.099  24.742   6.023  0.0367 -0.1136  0.1580
43306W        W44170  10.901  18.254   1.135 -0.0232 -0.0590  0.2417
43307W        W44171  21.132  25.390  17.825 -0.0257 -0.0910 -0.2457
43308W        W44172  17.483   4.562   8.219  0.0606 -0.0717 -0.0205
43309W        W44173  16.931  23.526   0.704 -0.3089  0.2015  0.2498
43310W        W44174   7.744  13.318  11.911 -0.1712 -0.1344  0.0712
43311W        W44175  24.666  15.942   3.947 -0.1732  0.0341  0.2030
43312W        W44176  24.725  10.973  26.732 -0.1036 -0.0382 -0.0503
43313W        W44177  14.035  28.262  24.876 -0.2636  0.0944  0.0065
43314W        W44178   1.596  19.437  11.494 -0.0856  0.0269  0.0849
43315W        W44179   7.136  16.739  24.413 -0.2194  0.0395 -0.0939
43316W        W44180  11.532  26.372  12.671  0.2641 -0.1797  0.2263
43317W        W44181  26.845  25.223  22.446 -0.1638 -0.3568 -0.3604
43318W        W44182  16.119  25.340  16.392  0.0209 -0.1580  0.0156
43319W        W44183   1.887  14.736  11.426 -0.0542  0.0163  0.0339
43320W        W44184   6.250  16.715  19.541  0.1630 -0.1733 -0.1575
43321W        W44185   4.475  12.180  20.099  0.1880  0.0380  0.0871
43322W        W44186  16.041   5.435  16.401 -0.1100  0.1650 -0.0705
43323W        W44187  22.188   0.588   8.119  0.0155  0.0501  0.0677
43324W        W44188   9.812   6.362  19.200  0.1327 -0.2412 -0.3262
43325W        W44189   6.385  12.253  27.580 -0.0290  0.1306 -0.0240
43326W        W44190  11.041  26.536  18.674  0.0105  0.1028  0.2263
43327W        W44191   4.615  14.916  26.613  0.1363  0.1594 -0.2371
43328W        W44192   9.073   3.329  25.077  0.2718  0.1869  0.1318
43329W        W44193  16.679  10.654  19.450  0.1446 -0.0086  0.1185
43330W        W44194  12.432  21.615   0.778 -0.0192  0.0027  0.0422
43331W        W44195  16.459  24.841  21.064  0.0332  0.0496 -0.3961
43332W        W44196  21.246  12.122  20.604  0.0472 -0.1566  0.1960
43333W        W44197  28.848  23.005   5.780  0.0063 -0.1830 -0.2504
43334W        W44198  24.065  11.061   3.668  0.1619 -0.1384  0.0068
43335W        W44199   9.817  21.907  22.467  0.2446 -0.4216 -0.2138
43336W        W44200   2.386   0.168   9.012  0.1260 -0.0968  0.3791
43337W        W44201  14.421  21.675  17.251 -0.1358 -0.1200 -0.0018
43338W        W44202   2.105  16.793  21.465  0.2553 -0.0055  0.2740
43339W        W44203   7.089  12.005  17.378  0.3835 -0.1601 -0.0319
43340W        W44204  28.812  22.757  24.779 -0.1891  0.1890 -0.0570
43341W        W44205  26.781  12.101   5.042  0.0145  0.0628 -0.0771
43342W        W44206   3.812  24.686  26.118  0.0357  0.0760  0.1683
43343W        W44207   2.369  21.459  17.508 -0.1646 -0.2218  0.2271
43344W        W44208  26.020  25.717  23.791  0.1360 -0.1334 -0.2961
43345W        W44209  16.183  16.785   8.161  0.0292 -0.0601  0.2626
43346W        W44210  21.188  12.244   0.349 -0.0981  0.0683 -0.0132
43347W        W44211   0.415  23.377  23.714  0.2750 -0.0211  0.0721
43348W        W44212  12.993  21.293  23.766 -0.0403 -0.0510 -0.1537
43349W        W44213  18.370   0.718   2.709  0.1393 -0.2034  0.2436
43350W        W44214   5.809   6.825  13.677  0.3829 -0.5064 -0.2161
43351W        W44215  16.349  15.970   2.539 -0.1288 -0.4161 -0.1541
43352W        W44216   0.171  10.294  13.250  0.0836  0.0794  0.1824
43353W        W44217   3.959  23.298  13.529  0.1707 -0.0843  0.1662
43354W        W44218   5.093   8.316   3.695  0.5830  0.3965  0.3401
43355W        W44219  19.277   8.692  17.737 -0.0140 -0.0587  0.1811
43356W        W44220   3.064   2.504  19.996 -0.0828  0.1087 -0.1669
43357W        W44221  25.427  15.894  17.031  0.0363 -0.0873 -0.1599
43358W        W44222   9.235  18.576  18.577  0.0047  0.1814 -0.2389
43359W        W44223  13.289   6.949  18.371 -0.0820 -0.2412 -0.2778
43360W        W44224  13.699   3.301   5.718  0.0008  0.0205 -0.1570
43361W        W44225  28.709  18.146  23.404  0.1722 -0.1336 -0.0767
43362W        W44226  21.623  20.121  26.757  0.0978 -0.0736 -0.1444
43363W        W44227  21.285   0.302  28.224 -0.1660 -0.0504 -0.1650
43364W        W44228  13.846  16.114  22.798 -0.0108 -0.1186 -0.1626
43365W        W44229  14.883  13.234  16.653  0.0848 -0.0485 -0.0964
43366W        W44230   6.208   8.269  28.688  0.2920  0.0705  0.1046
43367W        W44231  25.146   4.862  27.258 -0.1578 -0.0878 -0.0342
43368W        W44232  28.910  12.253  12.890 -0.0985  0.1213 -0.1176
43369W        W44233   8.751  14.415  26.202 -0.4043 -0.1266  0.2135
43370W        W44234  13.139  11.519   5.550  0.2432 -0.0243  0.1871
43371W        W44235  25.719  14.831  26.329 -0.2916  0.2164  0.1192
43372W        W44236  23.315  12.153   3.459 -0.0095 -0.1150  0.0031
43373W        W44237   9.607   8.563   7.123  0.2278  0.0831 -0.0717
43374W        W44238   9.405  16.154  27.775 -0.1288 -0.4908  0.1526
43375W        W44239  24.282  21.976   4.431  0.2305 -0.1230 -0.1360
43376W        W44240   0.768   9.378   2.428  0.0936 -0.0802 -0.2792
43377W        W44241   2.889  22.962  16.348  0.0249  0.0745  0.1067
43378W        W44242   4.537   6.796  18.844  0.0194 -0.1173  0.2257
43379W        W44243  10.876  17.115  27.842 -0.0768 -0.0201  0.0506
43380W        W44244  11.289   9.125  26.933  0.1148 -0.1736  0.3242
43381W        W44245  15.139  26.019  14.247 -0.1342 -0.1849  0.0635
43382W        W44246  15.861  15.624  13.788  0.3247 -0.1650  0.1063
43383W        W44247  13.680  20.280   7.973  0.0793 -0.3168 -0.2877
43384W        W44248  18.121  25.729  17.973 -0.4042  0.0255 -0.0049
43385W        W44249  28.149  15.188   0.747  0.0196 -0.0893 -0.0736
43386W        W44250  22.290  10.948  12.132  0.2158 -0.2478  0.0292
43387W        W44251  27.087  27.183  12.394 -0.2580  0.3401 -0.1787
43388W        W44252   7.227  17.294  15.343  0.3492 -0.1119  0.1427
43389W        W44253   9.387  19.982  27.358  0.1001 -0.2563 -0.1818
43390W        W44254   4.575   4.044  12.686 -0.0226 -0.1200  0.1687
43391W        W44255  11.466  10.834  10.088 -0.0627  0.0129  0.2230
43392W        W44256  25.703  15.077  17.559 -0.3061  0.1799  0.0911
43393W        W44257   0.760  17.212   0.503  0.1721 -0.0145 -0.0983
43394W        W44258   6.096   7.373  27.961 -0.2776  0.1509  0.1366
43395W        W44259   1.664   0.629   3.404 -0.2630 -0.2563  0.2086
43396W        W44260  19.874   5.844   2.710  0.0388 -0.0776  0.1093
43397W        W44261  23.605  15.883  25.461 -0.1018  0.1704 -0.0351
43398W        W44262  25.624   9.315  15.981  0.0101 -0.0315 -0.0315
43399W        W44263  12.147  20.311  17.827  0.2517 -0.0162  0.1107
43400W        W44264  12.371   7.614  19.329 -0.0186 -0.0768  0.1557
43401W        W44265  26.893  24.806  16.007 -0.1036  0.0636 -0.2071
43402W        W44266  24.157  16.113   8.866  0.2635 -0.0734  0.2765
43403W        W44267   7.118   9.720   2.223  0.1579  0.0060 -0.3614
43404W        W44268  12.378  26.416  23.238  0.0171  0.1020  0.0887
43405W        W44269   1.278   9.389   2.322  0.1593 -0.0098 -0.2745
43406W        W44270  20.592  25.150  15.381 -0.1553 -0.0758  0.1795
43407W        W44271  17.657  19.467   1.230 -0.0317  0.2331  0.2163
43408W        W44272  16.791  17.135  28.834  0.0705  0.0600  0.0255
43409W        W44273  20.704  27.933   9.891 -0.0893 -0.3056  0.0393
43410W        W44274   7.796  15.109   0.565 -0.1593  0.2093 -0.2484
43411W        W44275  24.952  14.462  13.188 -0.1040 -0.3115 -0.0753
43412W        W44276   1.129  28.624   0.528  0.1879  0.0650 -0.0802
43413W        W44277   0.285  22.551   1.441  0.1766 -0.1267  0.3142
43414W        W44278  18.860   8.916  22.158 -0.0916 -0.3358  0.1566
43415W        W44279  17.413  25.498  21.219 -0.0595  0.1008 -0.1914
43416W        W44280   9.987  21.914  13.512  0.2754 -0.1569 -0.0688
43417W        W44281   0.860   6.124   5.346  0.0046 -0.1863 -0.1828
43418W        W44282   7.108  14.470  27.498 -0.1621 -0.2762  0.0212
43419W        W44283   2.867   6.034  18.267  0.0702 -0.2937  0.1474
43420W        W44284   7.907  22.154  18.039 -0.1454  0.2644  0.2138
43421W        W44285   2.007   6.902  22.828 -0.0047 -0.2052  0.0576
43422W        W44286  13.867   9.746  25.587 -0.1760 -0.1138  0.3082
43423W        W44287  17.561  23.033   0.582 -0.0107 -0.2245  0.2208
43424W        W44288  27.533  11.785  24.510  0.1141  0.0247  0.1369
43425W        W44289   2.706  12.218  24.750 -0.0823  0.2413  0.2525
43426W        W44290  21.704  19.564  12.321  0.0924  0.0837  0.1953
43427W        W44291  21.924  12.775  28.007 -0.1714 -0.0277 -0.0846
43428W        W44292   4.956  14.108  12.127  0.0321  0.1619  0.1404
43429W        W44293  23.310  16.495  19.714  0.0603  0.0476 -0.0241
43430W        W44294  20.661  15.937  24.758  0.0089  0.0289 -0.3360
43431W        W44295  11.925  19.047  26.698  0.0881 -0.0378 -0.1465
43432W        W44296  26.779  19.089   1.189 -0.2110  0.2208 -0.0857
43433W        W44297   2.842  16.313  13.997 -0.0897  0.0051  0.1451
43434W        W44298  20.317  28.916   6.776 -0.3484  0.0051 -0.2534
43435W        W44299   2.108  17.707  11.241 -0.0751 -0.0266 -0.5981
43436W        W44300  25.587  19.994  25.394 -0.2390 -0.0023  0.2019
43437W        W44301  16.237  12.161  24.934 -0.0855 -0.1127 -0.2209
43438W        W44302  25.353  16.662  23.320 -0.0659 -0.0585 -0.0524
43439W        W44303  21.691  21.892  17.423  0.0030  0.0006 -0.1463
43440W        W44304  22.718  26.423  19.358 -0.2122 -0.2914  0.1710
43441W        W44305  15.619   3.196  16.147 -0.0883 -0.1388 -0.1218
43442W        W44306  13.296  14.428  18.415 -0.1159 -0.1595  0.3070
43443W        W44307  18.506  28.297  21.066  0.1922  0.0196  0.1250
43444W        W44308  20.524   9.219  13.785 -0.1726 -0.0806 -0.0230
43445W        W44309  16.953  21.041  12.654  0.2015  0.0955 -0.0587
43446W        W44310  10.652   0.358  13.715 -0.2121 -0.1581 -0.0362
43447W        W44311  14.555   7.800  10.589 -0.0050  0.2116 -0.0195
43448W        W44312   3.402  21.997   1.532  0.0156  0.2770 -0.2063
43449W        W44313  19.649  17.474  12.229 -0.2173 -0.0643 -0.1258
43450W        W44314  27.999  21.733   2.327 -0.0762 -0.2911 -0.0484
43451W        W44315  19.460   3.745  22.479  0.1931  0.0937  0.0362
43452W        W44316  23.428   0.849   3.269  0.2863 -0.0712 -0.2515
43453W        W44317   3.421  25.814   5.008 -0.0830 -0.1592  0.0096
43454W        W44318   9.967  17.295  26.871 -0.1351 -0.1042 -0.1045
43455W        W44319  11.004  21.899  17.972  0.0505  0.1499  0.0075
43456W        W44320  16.698  18.670  17.799  0.0104  0.2865  0.0610
43457W        W44321  18.122   9.842  19.227  0.0724  0.3724  0.1599
43458W        W44322  19.079  23.279  22.503  0.1470 -0.1867 -0.0286
43459W        W44323  11.570  13.594  16.206  0.0401 -0.1569  0.3122
43460W        W44324   6.975   5.280   8.311 -0.0164 -0.2363  0.1486
43461W        W44325  18.043  15.410   9.054 -0.1272 -0.3755 -0.1206
43462W        W44326   7.433   5.088   4.634 -0.2037  0.0824 -0.0836
43463W        W44327  25.256  23.055  25.545  0.0912  0.2873 -0.2129
43464W        W44328   6.896   4.858  19.834 -0.3796 -0.0449  0.0613
43465W        W44329  28.642  16.216  13.031 -0.0090 -0.1043  0.2318
43466W        W44330  18.099  27.104   3.151  0.3866 -0.1062 -0.0908
43467W        W44331   4.850  16.194  23.668  0.0727 -0.3239  0.1656
43468W        W44332   2.539  18.520  20.263  0.0434  0.1666 -0.2453
43469W        W44333  21.756   1.958  20.890  0.1981  0.2834  0.1089
43470W        W44334  20.476   5.900  25.196  0.2459 -0.0034 -0.0565
43471W        W44335  27.395   7.566  25.276  0.0133 -0.1218  0.0159
43472W        W44336  11.652   3.760   2.460  0.1802  0.2189  0.0593
43473W        W44337  11.932   5.429  24.661  0.0485 -0.0813  0.0932
43474W        W44338  16.956  28.660  20.160 -0.1370 -0.1368  0.3696
43475W        W44339  24.713  21.593   7.928  0.0085  0.0205 -0.2217
43476W        W44340  18.206  23.564  11.595 -0.1540  0.2223 -0.3206
43477W        W44341   6.694  11.672  22.316  0.3557 -0.2264 -0.0952
43478W        W44342   9.374  10.783  20.112 -0.0451 -0.0497 -0.1698
43479W        W44343  27.345   8.399  20.396  0.1912  0.0614 -0.1640
43480W        W44344  24.754  15.308  24.431  0.1023 -0.0715  0.3235
43481W        W44345   0.146  19.220   9.456  0.2076  0.2244  0.0108
43482W        W44346  21.045   2.190  21.616 -0.0095  0.1115 -0.2886
43483W        W44347   3.282  18.336  26.783 -0.1663  0.1194 -0.2455
43484W        W44348  19.170  11.164   5.909  0.0002 -0.0921 -0.3221
43485W        W44349  13.282  19.160  28.336  0.1271 -0.1449 -0.1726
43486W        W44350   9.533  10.969   3.585 -0.0370 -0.1969  0.2177
43487W        W44351  23.514  16.187   5.374  0.0612  0.0013 -0.0358
43488W        W44352  25.331  12.550  13.437 -0.0791 -0.2486  0.2928
43489W        W44353  16.706  21.543  16.456  0.0103 -0.0673 -0.1227
43490W        W44354  28.096  26.425  26.211  0.2225  0.2758 -0.0810
43491W        W44355  25.671   1.378   6.402 -0.5149 -0.1441 -0.2236
43492W        W44356  28.510   9.034   9.080  0.0763 -0.5031  0.1383
43493W        W44357   4.883   5.428   6.902  0.1303  0.0563  0.1181
43494W        W44358  15.571  17.539   6.099 -0.1037 -0.0978  0.0392
43495W        W44359  17.008  13.021  25.834 -0.1641 -0.0840  0.3108
43496W        W44360  12.207  24.175   7.643 -0.0317 -0.0738 -0.0735
43497W        W44361  18.833   7.115  19.571  0.0198  0.1109  0.1341
43498W        W44362  15.948  22.026   4.392 -0.3099  0.0679 -0.0790
43499W        W44363  10.896  13.130   1.311  0.1457 -0.1735  0.2869
43500W        W44364  23.337   3.232   9.522 -0.0086  0.0024  0.1034
43501W        W44365  24.686  19.190   8.968 -0.2123 -0.0446  0.1010
43502W        W44366   2.752   6.716  23.505 -0.0708 -0.3414  0.1864
43503W        W44367   4.543  11.393  24.239  0.0680 -0.1812 -0.1089
43504W        W44368   1.872  15.322  24.729  0.0581  0.2488 -0.0506
43505W        W44369  22.923  21.020  26.576 -0.2052  0.0296  0.0540
43506W        W44370  16.508  16.194   9.068 -0.0772 -0.0139  0.3090
43507W        W44371  13.234  18.438  16.941 -0.0897 -0.1254 -0.0303
43508W        W44372   0.738  26.982  27.508 -0.1571  0.0289 -0.0556
43509W        W44373  23.186  14.235  26.344  0.2996 -0.3001  0.0047
43510W        W44374   8.408  27.572  23.749  0.2599 -0.2795 -0.0789
43511W        W44375  23.459  24.129  23.215 -0.3709  0.1538  0.0938
43512W        W44376  23.835  24.277   5.295  0.0939  0.1442 -0.1003
43513W        W44377  25.416  27.544  18.621  0.1848  0.3413  0.0053
43514W        W44378  11.131   1.457  19.848 -0.0927  0.3086  0.2244
43515W        W44379  27.223   3.377  12.717  0.2871  0.0666  0.0692
43516W        W44380  15.856   0.393  28.455 -0.2771 -0.1363 -0.0186
43517W        W44381  23.606  13.763  20.816 -0.0082  0.1885 -0.1585
43518W        W44382  12.215   6.741  24.741  0.0728 -0.1502  0.1871
43519W        W44383  15.209   2.599  15.577  0.0574 -0.1400  0.1917
43520W        W44384  21.838  28.799  12.505 -0.3075  0.0579 -0.2219
43521W        W44385  26.766  19.424  10.607 -0.1582  0.0142  0.2758
43522W        W44386   3.302   1.104  10.661 -0.0894 -0.1314 -0.3391
43523W        W44387   9.136  12.926   4.390 -0.1561  0.1013 -0.0391
43524W        W44388  17.726  22.834  18.245 -0.0810  0.2090  0.1598
43525W        W44389   8.393  23.216  23.029 -0.2064  0.2322  0.2540
43526W        W44390  20.454  14.092  11.597  0.0709  0.1598  0.1376
43527W        W44391  22.473   7.062  27.470  0.1092 -0.0668  0.1733
43528W        W44392  14.527  16.547   2.029  0.1656  0.1304 -0.1501
43529W        W44393   6.607  15.099   3.166  0.0039 -0.3497 -0.0132
43530W        W44394   7.209  17.776  17.464 -0.0066  0.0181 -0.0467
43531W        W44395  16.542  27.072   1.092 -0.1452  0.1215 -0.1244
43532W        W44396  15.918  11.923   3.994  0.1228 -0.2224 -0.1429
43533W        W44397  11.852  26.132   8.165 -0.2600  0.0387  0.0314
43534W        W44398   5.598  25.042  21.388  0.0140  0.3312  0.2535
43535W        W44399  27.701  23.660  13.114 -0.0333 -0.0199  0.0732
43536W        W44400  11.344  16.203  23.401 -0.1976  0.4096  0.2804
43537W        W44401   1.929  26.696  18.257 -0.0762 -0.0791 -0.0314
43538W        W44402  22.125  18.864   4.044 -0.0684  0.0799 -0.2030
43539W        W44403   3.434  28.784   2.482  0.0875 -0.3313 -0.1757
43540W        W44404  27.363   2.980   2.547  0.1659 -0.1391  0.0571
43541W        W44405  16.821   5.764  24.762  0.0037 -0.0300 -0.0283
43542W        W44406   1.462  18.162   3.104 -0.1871 -0.0534 -0.1724
43543W        W44407  23.233  20.088  19.281  0.2370  0.1887 -0.0585
43544W        W44408  15.989  21.445  15.624 -0.0555  0.0297  0.0663
43545W        W44409  19.033   3.875  14.481  0.6145 -0.4007 -0.0105
43546W        W44410  25.037  15.078  12.715  0.0616 -0.0228 -0.3192
43547W        W44411  24.122  28.968  12.963 -0.0656 -0.2011 -0.1409
43548W        W44412   2.298   7.469  15.409  0.3725  0.2287 -0.0179
43549W        W44413  22.991   6.967  16.561 -0.0154  0.1045 -0.0977
43550W        W44414  28.906  17.043   7.722  0.0832 -0.0363 -0.2374
43551W        W44415  13.277  13.019  26.089  0.0344 -0.2444  0.3288
43552W        W44416   3.795   2.588   7.840 -0.2096 -0.2570  0.0476
43553W        W44417   7.021   5.269  26.641 -0.0120  0.4215 -0.1368
43554W        W44418   6.758   8.199  12.743 -0.1238  0.0090  0.0119
43555W        W44419  24.485  22.024   6.094  0.1557  0.0938  0.2476
43556W        W44420   7.104  18.937  15.279 -0.0398 -0.2033  0.1329
43557W        W44421  13.326  12.371   2.791  0.4105 -0.0681 -0.0833
43558W        W44422  17.955  21.214   5.712 -0.0514  0.0691 -0.2060
43559W        W44423  29.077  12.418   9.081  0.0747 -0.2325  0.0694
43560W        W44424  16.329  22.922  17.663 -0.2611 -0.2102 -0.0327
43561W        W44425  11.020   6.877  13.069  0.1524 -0.1486  0.1672
43562W        W44426  16.298  15.359   1.800 -0.1353 -0.2495  0.2842
43563W        W44427  11.604  11.289  12.103 -0.0777  0.3828  0.2304
43564W        W44428  28.634  26.964   0.689  0.3361 -0.1540  0.1934
43565W        W44429   9.293   2.349   6.922  0.0639  0.0306  0.0606
43566W        W44430   2.807   5.589   3.309 -0.0948  0.3797 -0.1317
43567W        W44431   3.471  11.292  24.089 -0.1791 -0.0037  0.1489
43568W        W44432   5.805  28.642  26.676  0.1887  0.1533  0.1562
43569W        W44433   9.514  16.058  27.235 -0.3124  0.1240  0.1054
43570W        W44434  24.137  17.141  16.792 -0.0359 -0.0305  0.1180
43571W        W44435  28.135  14.605  29.104  0.3016 -0.1762 -0.2235
43572W        W44436   5.449  24.557   7.483 -0.1593 -0.3334  0.1828
43573W        W44437   9.498  28.103   6.828 -0.1744  0.1463 -0.3138
43574W        W44438  19.207  16.808  21.575 -0.2872  0.2872 -0.2826
43575W        W44439  13.736  22.837  19.208 -0.0274 -0.1020 -0.0879
43576W        W44440   7.668   2.916  15.714 -0.1140  0.1117 -0.2655
43577W        W44441  19.523  24.997  17.883 -0.1103  0.0944 -0.0324
43578W        W44442  25.585  13.449  22.978  0.2460 -0.2151 -0.0904
43579W        W44443   6.925  17.946  18.044  0.0624  0.0580  0.4138
43580W        W44444  22.406  12.933  20.125 -0.2695 -0.1194 -0.0180
43581W        W44445  14.339  24.116  18.621  0.2271  0.0710  0.0099
43582W        W44446  17.709  21.799  26.652 -0.1358  0.0922 -0.0683
43583W        W44447  16.960  28.075  12.381  0.0367 -0.1909  0.3250
43584W        W44448   7.262  15.048   9.097 -0.0643  0.2692  0.1139
43585W        W44449  28.077  16.847   8.671 -0.2129 -0.0511 -0.3825
43586W        W44450   2.818  19.104  11.355  0.1227 -0.1162 -0.1625
43587W        W44451  14.494   5.860   7.730  0.3116 -0.0168 -0.0627
43588W        W44452  24.544   1.548  25.759  0.1470  0.1222 -0.0004
43589W        W44453  10.158  27.084  21.805  0.0855  0.0072  0.0378
43590W        W44454  25.435  16.033  20.843  0.2522 -0.1264 -0.0052
43591W        W44455  11.942  22.711  14.799 -0.1301 -0.2383  0.0403
43592W        W44456  19.013  21.093   4.572  0.1763 -0.0639 -0.0740
43593W        W44457  15.119  19.443  24.041  0.0246  0.0420 -0.0687
43594W        W44458  15.383  11.002   8.405 -0.1316  0.0305 -0.1247
43595W        W44459  21.126  18.182  28.326  0.0229 -0.4033  0.0472
43596W        W44460   8.678   4.699  22.000  0.1412 -0.0321 -0.0870
43597W        W44461  13.038  11.649   6.810 -0.0794 -0.3378 -0.0943
43598W        W44462  13.418   5.234  20.063  0.0326 -0.1873  0.0250
43599W        W44463  16.878  15.229  24.429  0.0543  0.0516 -0.0320
43600W        W44464  20.605  23.212  23.794 -0.1223 -0.1827 -0.0900
43601W        W44465  25.126   4.234  24.489 -0.0872  0.3213  0.1710
43602W        W44466   1.580  14.470   1.246  0.2015  0.0697  0.2318
43603W        W44467   7.551   6.637  11.213 -0.1561  0.1070 -0.0697
43604W        W44468   8.671  19.643  25.900 -0.0137  0.1881  0.0286
43605W        W44469  18.298  22.139   7.193 -0.0108 -0.0363  0.2431
43606W        W44470  15.573  21.500  20.840  0.2150 -0.1298 -0.1341
43607W        W44471  26.551   1.512  23.391  0.0431  0.2023  0.0945
43608W        W44472  11.569  14.982  19.604 -0.0668  0.0114 -0.3849
43609W        W44473  13.217  15.332  17.765 -0.1170  0.1353  0.1205
43610W        W44474  26.668   2.832  27.530  0.0310 -0.2782  0.1097
43611W        W44475   0.237  15.440   6.044  0.0635 -0.0022  0.1294
43612W        W44476  11.463  11.344  22.410 -0.0067 -0.0789  0.1372
43613W        W44477  19.930   6.488  22.941 -0.0466  0.0354 -0.0848
43614W        W44478  21.854  11.717  22.114  0.1507  0.1338  0.2391
43615W        W44479  17.910   7.325  14.247 -0.1288 -0.2480  0.2672
43616W        W44480  26.451   4.418  12.528  0.0289 -0.1283  0.1705
43617W        W44481  12.731  18.066  20.583 -0.1033  0.2536  0.2959
43618W        W44482  23.058  15.189   9.548 -0.1133  0.1666 -0.2070
43619W        W44483  11.788  20.022  17.623 -0.2182  0.2152  0.0263
43620W        W44484  16.560   2.839  12.178  0.1423 -0.1911 -0.0148
43621W        W44485  14.612  16.017  23.774 -0.2050 -0.1651  0.1093
43622W        W44486  16.599  13.771   6.421  0.1641  0.2008 -0.1279
43623W        W44487   9.064  20.441   2.719  0.1729  0.1883  0.0590
43624W        W44488  24.866  11.698  25.054  0.1550  0.1396 -0.1507
43625W        W44489  23.922  14.665  11.245  0.2774  0.0801 -0.1997
43626W        W44490  18.810  18.097  26.826  0.0941  0.1639 -0.1719
43627W        W44491  10.528  14.163  20.069  0.1488 -0.0024 -0.0283
43628W        W44492  12.288  12.921  25.772  0.2067 -0.1745  0.0081
43629W        W44493  22.422  15.393  22.107 -0.1717 -0.1351  0.0915
43630W        W44494  12.384  24.805  15.828  0.2042 -0.2006  0.0144
43631W        W44495   5.490  22.930  25.598  0.2406 -0.2399  0.2016
43632W        W44496   8.981  19.818  14.287 -0.1615 -0.1217  0.2549
43633W        W44497   4.024  11.752  20.417 -0.0787  0.0456 -0.0470
43634W        W44498   6.122   1.233   4.847 -0.1564 -0.0260  0.0838
43635W        W44499  23.273  26.948  10.540  0.0073  0.1882 -0.3321
43636W        W44500  16.174   7.252   3.764 -0.0141  0.0657  0.1746
43637W        W44501  26.852  18.372  22.371 -0.1514  0.2101  0.1582
43638W        W44502   7.336   8.976  17.609 -0.2951  0.1168  0.0277
43639W        W44503  14.165  24.385  25.661 -0.0331 -0.0670 -0.1662
43640W        W44504  10.550  25.414   6.127  0.3445 -0.0388 -0.0849
43641W        W44505  11.268  14.470  14.060 -0.2035 -0.0088 -0.1223
43642W        W44506   7.999  15.398  24.212  0.1059  0.0325 -0.0254
43643W        W44507  24.888   2.273  24.331  0.1970 -0.1452 -0.0948
43644W        W44508   9.090  11.053  23.295 -0.0695 -0.1996 -0.2388
43645W        W44509  11.049  27.838   7.321 -0.1292 -0.0153 -0.1303
43646W        W44510  10.964  15.574  17.545  0.0187 -0.0789  0.3427
43647W        W44511  23.022  26.048  25.352  0.1849 -0.2818  0.1040
43648W        W44512   6.852   8.077   7.169  0.1635  0.1067 -0.1088
43649W        W44513  26.871  22.889   9.563  0.4450 -0.2670  0.1126
43650W        W44514   1.277  17.048  11.174  0.0454  0.2071 -0.1832
43651W        W44515  28.884  28.347  28.443  0.4533 -0.0932  0.0488
43652W        W44516   4.726  16.917  19.435 -0.1572  0.0433  0.0867
43653W        W44517  23.891  12.689  18.515  0.3045 -0.0879 -0.4009
43654W        W44518  15.308  21.310  19.442  0.1779 -0.1822  0.0740
43655W        W44519  22.703   3.901   3.068  0.2782  0.2469 -0.3444
43656W        W44520  27.255   5.190  17.608  0.0423 -0.2865  0.0781
43657W        W44521  17.958  19.145  20.342  0.0090  0.0132  0.2144
43658W        W44522  27.450  17.487  23.994  0.0806  0.1121 -0.2389
43659W        W44523  22.878  14.445   5.684 -0.4635 -0.2861 -0.2079
43660W        W44524   0.566   0.569   3.441 -0.0668 -0.1687  0.1552
43661W        W44525   9.103  25.121   6.449  0.4458  0.2274 -0.0499
43662W        W44526  24.693   5.733   6.923  0.1528 -0.0829 -0.1384
43663W        W44527  13.873  14.897   3.092  0.2518  0.0007  0.1324
43664W        W44528   2.225  20.025  29.028 -0.1994  0.0230 -0.0836
43665W        W44529   1.739  10.830  27.933 -0.0552 -0.0081 -0.1067
43666W        W44530  17.207  25.416  17.834 -0.1153 -0.3571 -0.1147
43667W        W44531   6.722  22.687   5.994  0.0790  0.0489 -0.1786
43668W        W44532  21.741  21.571  18.843  0.0466  0.0506 -0.0447
43669W        W44533   5.319   9.720  22.614  0.0830  0.1892  0.1599
43670W        W44534  17.734   0.959  28.911 -0.0441 -0.8282 -0.2467
43671W        W44535  24.542  17.091  23.847  0.1911 -0.0446  0.0270
43672W        W44536   4.160  18.323  15.741 -0.0100  0.2576  0.1586
43673W        W44537  18.832   6.756  11.788 -0.1091 -0.0325  0.0077
43674W        W44538  15.111  11.474  27.380  0.0938  0.0761  0.3541
43675W        W44539  16.536   9.709   5.767  0.2784  0.0541  0.1866
43676W        W44540  19.857  19.022  17.076  0.0291  0.2441 -0.1855
43677W        W44541  16.332  27.956  16.917 -0.4074  0.1955 -0.0510
43678W        W44542   2.065  23.698  28.423 -0.0978 -0.1222  0.1866
43679W        W44543   7.272   5.460  17.350  0.1935 -0.0565 -0.1773
43680W        W44544  25.777  10.327  19.504 -0.1970  0.0619  0.3137
43681W        W44545  28.852  10.312   5.896  0.2689 -0.3799  0.1075
43682W        W44546  21.666  14.166  21.866  0.0915 -0.0165 -0.1091
43683W        W44547  14.690   7.302  21.361  0.0604  0.1031 -0.0070
43684W        W44548  27.639  23.418  28.689  0.1371 -0.2350 -0.1061
43685W        W44549  12.485   3.406  27.164  0.0974  0.4086 -0.0433
43686W        W44550  23.124   9.104  27.298 -0.2276 -0.3537 -0.2557
43687W        W44551  11.173  19.537   3.678 -0.0519 -0.3557  0.2481
43688W        W44552  28.623   7.976  14.577 -0.0528 -0.0964 -0.0066
43689W        W44553   6.333  15.369  22.530 -0.2623  0.0156 -0.2523
43690W        W44554  24.485  27.468  25.842 -0.1975  0.3224 -0.2932
43691W        W44555   9.298  19.704   3.589 -0.0704  0.1460 -0.0539
43692W        W44556  28.988   1.509   7.613  0.1006 -0.0064 -0.2708
43693W        W44557  11.555  22.085  15.458 -0.1589  0.1388 -0.3677
43694W        W44558  17.383  27.697   2.732 -0.1122  0.4115  0.0667
43695W        W44559  14.273  19.924  27.398 -0.0552 -0.0075 -0.1330
43696W        W44560  14.822  19.081  15.428 -0.2419  0.2508  0.0813
43697W        W44561  14.886  18.225  28.023  0.2495 -0.1517  0.1760
43698W        W44562  27.115  26.836  16.456 -0.1303 -0.1821  0.0278
43699W        W44563  22.838   3.842  14.734 -0.2477 -0.0574  0.0378
43700W        W44564  25.202   8.332   4.119 -0.2952 -0.2578 -0.0840
43701W        W44565   7.819  19.951  11.562  0.1232 -0.0002  0.3040
43702W        W44566   7.342  26.332  21.209  0.0935 -0.3809 -0.2028
43703W        W44567   2.769  17.537  27.307 -0.0991  0.2048  0.4787
43704W        W44568   0.728   1.926   2.923  0.2304 -0.0515  0.0440
43705W        W44569   6.457  19.395   6.030 -0.0001 -0.0792  0.0387
43706W        W44570  10.056  27.468  20.265 -0.1105  0.0299 -0.1252
43707W        W44571  11.585  10.493   7.672  0.1020 -0.0770 -0.1432
43708W        W44572   1.631  27.283  21.647  0.0202  0.0111  0.0758
43709W        W44573  22.658  11.968  26.145 -0.0796 -0.2790  0.1943
43710W        W44574  14.557  14.500   9.237 -0.0214  0.1881  0.1446
43711W        W44575   9.494  26.591  28.325  0.2081  0.1210  0.0896
43712W        W44576  27.284   3.474  21.879 -0.1096 -0.2689  0.0101
43713W        W44577  18.532   0.319   9.924  0.2041 -0.0644  0.0232
43714W        W44578  26.799  14.167  20.316 -0.0372  0.2141  0.0586
43715W        W44579  21.113  23.990  22.812  0.0338 -0.0256  0.3315
43716W        W44580   3.216  17.209   4.856  0.1382  0.0131  0.1216
43717W        W44581  20.836  28.666  10.391  0.2214  0.0854  0.1704
43718W        W44582  28.644   3.381  12.891  0.4436  0.2938 -0.0338
43719W        W44583  28.004  12.311  25.843  0.0223 -0.1437  0.2271
43720W        W44584   4.131  20.732  27.698  0.0932  0.2661 -0.3403
43721W        W44585  23.500  15.248  12.808 -0.5250  0.0275 -0.2293
43722W        W44586   2.842  18.996  27.195  0.2943 -0.2464 -0.0245
43723W        W44587  12.150  10.898  23.127 -0.0153  0.0150  0.0780
43724W        W44588   9.290  25.934  27.777 -0.2209  0.2014  0.0001
43725W        W44589  11.644  10.943  27.543  0.1594 -0.1188  0.4366
43726W        W44590  23.520  23.560   6.057 -0.1481  0.3514 -0.0946
43727W        W44591  10.641   3.387   1.350 -0.0746  0.3198 -0.4556
43728W        W44592   5.931  20.025  26.304  0.3554  0.0584  0.1604
43729W        W44593  13.113  28.760   9.092 -0.0185  0.1576 -0.3278
43730W        W44594  22.179   2.680  22.227 -0.1872 -0.3099 -0.0403
43731W        W44595  14.799  22.336   6.420 -0.1067 -0.2631 -0.1461
43732W        W44596  19.036  20.471   5.334  0.3383  0.0091  0.0088
43733W        W44597  27.108  26.338  16.354  0.0829  0.0926 -0.0144
43734W        W44598   8.141   8.738  20.247  0.0877  0.0095 -0.1045
43735W        W44599  16.022  15.854  16.888 -0.2525 -0.1823  0.1277
43736W        W44600   1.223   9.852  21.676  0.0007 -0.0702 -0.1505
43737W        W44601  11.785  18.676   9.927 -0.0324  0.0878  0.0788
43738W        W44602  15.054   0.063  15.504 -0.0189 -0.2492  0.0174
43739W        W44603  16.220   6.742  11.968  0.0005  0.0018 -0.2737
43740W        W44604  13.112  25.425  27.173 -0.1232 -0.2036 -0.1559
43741W        W44605  11.319  24.199   1.205  0.4504  0.3054 -0.2671
43742W        W44606  21.281   4.358  22.995  0.0270 -0.1091 -0.3834
43743W        W44607   0.046  10.238  24.089 -0.1568 -0.0613  0.4095
43744W        W44608  16.321  28.941  10.779  0.4557 -0.1316  0.2464
43745W        W44609  14.424  14.757   0.172  0.2032 -0.1132  0.0940
43746W        W44610  27.761  18.259  25.856  0.2015  0.0796  0.0560
43747W        W44611  12.323   3.500   2.706  0.1208  0.0986 -0.1456
43748W        W44612  28.729  11.269  17.244  0.1901 -0.0912 -0.3169
43749W        W44613  26.987  17.316   3.684 -0.1398 -0.0692  0.1695
43750W        W44614  15.913   6.975   0.238 -0.0163 -0.2153 -0.3849
43751W        W44615  27.989  11.444   8.522  0.1482 -0.0954 -0.1520
43752W        W44616  13.270   4.878   2.204 -0.1185  0.0581 -0.0427
43753W        W44617  10.484  15.138  14.005  0.1471  0.0605  0.2939
43754W        W44618  22.545   7.737  24.363  0.0765  0.0357 -0.0574
43755W        W44619  22.489  15.312  23.400  0.3847  0.1894 -0.0706
43756W        W44620  10.620  14.760   0.889 -0.0693 -0.0573 -0.2161
43757W        W44621  21.643   3.647   7.597  0.1403  0.0385 -0.1630
43758W        W44622  27.690  10.620  25.993 -0.0888 -0.1971  0.1193
43759W        W44623  25.151   2.831  16.835 -0.1228  0.0578 -0.3104
43760W        W44624  13.297  18.704  20.757  0.0105  0.1760 -0.0249
43761W        W44625  18.464  19.757  23.868 -0.1398 -0.1511 -0.0416
43762W        W44626  17.635   6.530  14.395  0.0037  0.1095 -0.3802
43763W        W44627  26.588  16.453   5.666 -0.0600  0.1685  0.0423
43764W        W44628   4.320  27.931  15.279  0.1244  0.1707  0.2082
43765W        W44629   6.475  12.944   1.240  0.3651 -0.0548 -0.1141
43766W        W44630  23.306  16.523  18.437 -0.3008 -0.2505  0.0487
43767W        W44631   6.436  14.840  28.542 -0.3173 -0.3232  0.3161
43768W        W44632  25.577  23.218  28.311 -0.2330  0.1674 -0.0605
43769W        W44633  14.311  15.102  25.945  0.2202 -0.2594  0.0021
43770W        W44634  18.982  15.535   7.313  0.2204 -0.0703  0.0292
43771W        W44635   6.363  15.171  20.045 -0.1582  0.0278 -0.0178
43772W        W44636  22.378   4.841   0.880  0.5066 -0.0048 -0.2086
43773W        W44637  21.284  27.328  20.520  0.0656 -0.0290  0.2901
43774W        W44638  19.764  22.651  19.044 -0.1628  0.0687 -0.0050
43775W        W44639  28.830  27.498  25.432  0.0020  0.1127  0.0881
43776W        W44640  12.764  12.850  19.772 -0.1135 -0.0451 -0.2412
43777W        W44641  20.734  10.445  20.309  0.1017  0.1178  0.0986
43778W        W44642   9.588  19.389   3.305  0.3227 -0.2371 -0.4757
43779W        W44643  14.324  27.589   7.865  0.1907 -0.1256  0.2516
43780W        W44644  22.590   1.423  25.039  0.1322  0.0611 -0.0260
43781W        W44645   9.329   5.012   7.231  0.1982 -0.1071  0.0209
43782W        W44646  12.198   7.725   3.360  0.0911 -0.1585  0.0666
43783W        W44647   4.601   7.408   1.086 -0.3876  0.0812 -0.3005
43784W        W44648  19.993   3.524  17.747 -0.1641  0.1396 -0.0299
43785W        W44649   0.065  21.057  28.324  0.1349 -0.2059  0.2651
43786W        W44650  19.230  20.933   8.900  0.1850 -0.1396 -0.3045
43787W        W44651  12.818   8.467  25.216  0.0927  0.0233  0.3728
43788W        W44652   2.227   9.063   9.997  0.0522  0.1070  0.3357
43789W        W44653  27.424  23.557   0.702 -0.0640 -0.0827 -0.2078
43790W        W44654   3.945  12.515   5.101 -0.0842 -0.1648 -0.0439
43791W        W44655   0.950  18.643  25.676 -0.0450  0.1095  0.1191
43792W        W44656   2.834  20.160   4.272 -0.0747 -0.0140 -0.4523
43793W        W44657  28.459  11.025  26.944 -0.0246  0.1376  0.0206
43794W        W44658  24.402  15.670  28.959  0.0036  0.0562 -0.0128
43795W        W44659  27.612  13.970  13.502 -0.2019 -0.0830 -0.2976
43796W        W44660  10.552  25.812  28.816  0.0007 -0.3417  0.0837
43797W        W44661   7.052   9.464  19.468 -0.0561 -0.0273  0.0022
43798W        W44662   8.326  15.621  26.282  0.0369  0.1188 -0.1158
43799W        W44663  16.072   5.331   7.233 -0.0219  0.1622  0.2526
43800W        W44664   8.116  26.239  21.144 -0.1534  0.2062  0.3503
43801W        W44665   4.193  16.406  28.806 -0.0485 -0.3875 -0.0776
43802W        W44666  17.003   8.810  28.305 -0.2325 -0.3995  0.1338
43803W        W44667  12.302  19.244  13.818 -0.1508 -0.1464 -0.0466
43804W        W44668   2.262  13.536  27.850  0.0485 -0.2081 -0.1209
43805W        W44669  12.953   0.331   0.416  0.0487  0.0934  0.0965
43806W        W44670  13.723  20.660   3.399  0.0124 -0.0839  0.1952
43807W        W44671  15.836   3.170  25.555  0.0287 -0.1679 -0.0202
43808W        W44672   3.920   0.965  19.144  0.0199  0.0094  0.2498
43809W        W44673  12.531  21.812  25.834 -0.0780  0.1563 -0.0721
43810W        W44674  15.617   1.247  21.186 -0.0081  0.1159  0.3786
43811W        W44675  28.933  21.117  24.512 -0.1706 -0.3816 -0.2762
43812W        W44676  24.248  12.996  13.841 -0.2050  0.0793 -0.0562
43813W        W44677   0.825  28.701  16.086  0.0939 -0.3127  0.0841
43814W        W44678  15.432  13.392   0.188  0.1213  0.3865  0.1288
43815W        W44679  13.292  12.014  26.788 -0.0963 -0.0589 -0.4280
43816W        W44680  21.864  18.702  19.942 -0.1268 -0.0025 -0.2634
43817W        W44681  28.596   9.283  24.278  0.0717 -0.2200  0.0001
43818W        W44682  29.123   2.519  16.605 -0.0157  0.1370  0.0303
43819W        W44683  28.679  15.623  27.010 -0.2016 -0.4053 -0.1074
43820W        W44684   9.205  17.484  10.677  0.2341 -0.1537  0.0032
43821W        W44685  22.930  27.415  27.101 -0.2561 -0.0453  0.0892
43822W        W44686  15.851  22.442  13.973 -0.0672  0.0040  0.2525
43823W        W44687  24.890   8.794  27.052 -0.0263 -0.1069  0.1111
43824W        W44688  20.603  23.024   4.082  0.1020 -0.2514  0.0442
43825W        W44689  19.327  16.700   9.964 -0.2485 -0.0711  0.1735
43826W        W44690  21.166   4.860  20.713 -0.0702  0.0083 -0.2992
43827W        W44691   8.267  13.433   8.514 -0.1797  0.2059 -0.4346
43828W        W44692  16.922  18.533  21.183 -0.1372  0.0900 -0.2726
43829W        W44693   7.203  13.562  23.470 -0.0754  0.0320 -0.0162
43830W        W44694   5.409   9.819  17.840  0.0924 -0.2675 -0.0956
43831W        W44695  11.775  18.781   9.450  0.0243  0.1098  0.2666
43832W        W44696  11.976  16.070  27.621  0.2529  0.0264  0.0902
43833W        W44697  14.780  23.189  13.462 -0.2350  0.1322 -0.3399
43834W        W44698   5.064   1.646   5.728 -0.0263 -0.0514  0.0232
43835W        W44699  12.369  13.899   4.542 -0.3784  0.4885  0.1142
43836W        W44700  19.871   0.089   4.663  0.1633  0.0505  0.0833
43837W        W44701   0.824  16.100  26.528  0.2907 -0.1236  0.2312
43838W        W44702   9.028  24.426  25.997 -0.0792 -0.2361  0.2458
43839W        W44703   8.778  25.566  21.151  0.1687  0.2147  0.1268
43840W        W44704  27.267  19.709  27.718  0.0753  0.1306  0.0997
43841W        W44705  21.409  21.110   7.606 -0.0635  0.1236 -0.2106
43842W        W44706  14.837  17.046   0.692  0.3115  0.4799 -0.2233
43843W        W44707   3.898  17.967  23.828  0.0508  0.4320 -0.2499
43844W        W44708  18.563   6.010   5.327  0.0547  0.4482  0.0528
43845W        W44709  13.415  23.038   0.155 -0.0028  0.0209 -0.2060
43846W        W44710  12.401  25.079  21.488 -0.0201 -0.0726 -0.1220
43847W        W44711  17.035   2.674   0.568 -0.3206  0.1771  0.1867
43848W        W44712   8.117   5.691  20.436 -0.2078 -0.0186  0.2976
43849W        W44713  15.864  23.248   7.404  0.0440 -0.1748  0.3055
43850W        W44714  18.657   8.631  25.763  0.2045  0.1970 -0.1683
43851W        W44715   8.001  23.679  25.801  0.6237 -0.0075  0.2802
43852W        W44716  21.685  22.594  13.422  0.1450 -0.1832  0.1176
43853W        W44717   1.549  26.207   9.704  0.2225  0.1243  0.0861
43854W        W44718  10.533  27.220   5.601  0.1686  0.0465  0.4245
43855W        W44719  19.702  18.659   5.064 -0.1556 -0.3726 -0.0652
43856W        W44720   2.409   2.613  22.247  0.0808 -0.3252 -0.0364
43857W        W44721   7.564   8.291  25.158  0.0010  0.3100 -0.1770
43858W        W44722  13.336  24.269   0.357  0.0016 -0.3135 -0.2228
43859W        W44723   8.897  25.965  25.961  0.3048  0.0496  0.0098
43860W        W44724  22.751   9.765  25.026  0.0752  0.0796 -0.3519
43861W        W44725  15.105   3.779   3.229 -0.1704 -0.2625 -0.0933
43862W        W44726  24.841  21.927   4.199  0.0270  0.0223  0.1359
43863W        W44727  18.475  17.562  19.536  0.2002 -0.0656 -0.0252
43864W        W44728  13.088  10.572  23.712 -0.0678 -0.0079 -0.2253
43865W        W44729   5.513  22.294  26.666  0.0335 -0.1011  0.0853
43866W        W44730  22.835   1.189   9.331  0.2329 -0.1607 -0.1080
43867W        W44731  15.572   4.697  23.778 -0.1364  0.0811  0.0423
43868W        W44732  13.923   0.732  26.842 -0.2430 -0.4438  0.0608
43869W        W44733  18.798  20.894  19.330 -0.2034  0.1690  0.4421
43870W        W44734   1.627   6.536  24.854 -0.1618 -0.2977 -0.0303
43871W        W44735  18.123  19.524   2.623  0.0132 -0.2730 -0.2210
43872W        W44736  15.038   9.164   9.727 -0.1301 -0.2871 -0.0775
43873W        W44737   7.888  25.327   4.273  0.0035  0.0845  0.1316
43874W        W44738  21.198   0.253  27.719  0.1986  0.1556 -0.4323
43875W        W44739   9.386  25.519   6.618 -0.0358  0.4301  0.0235
43876W        W44740  19.869   9.227  27.668  0.1144 -0.1183  0.1156
43877W        W44741  24.386  15.360  22.630 -0.2237  0.1102  0.0990
43878W        W44742   3.544   7.787  16.461  0.2225  0.0227 -0.0437
43879W        W44743   0.585  19.134   8.579 -0.0166 -0.1597  0.2370
43880W        W44744   2.051   6.366  23.024  0.1313  0.0095 -0.0269
43881W        W44745  11.333  25.189   0.008  0.0255  0.1018 -0.2971
43882W        W44746   4.842  17.411  17.099  0.0624  0.2446 -0.0378
43883W        W44747  14.667  13.474  20.820  0.2448  0.0473 -0.2746
43884W        W44748  10.874  18.551  11.144  0.0261 -0.2277  0.1278
43885W        W44749  20.369   1.716  28.705 -0.0568 -0.2221  0.1192
43886W        W44750   2.475   6.099  28.752 -0.0619  0.0747 -0.0759
43887W        W44751  28.185  21.937  14.775 -0.4845 -0.1334 -0.1997
43888W        W44752   0.652  13.399  17.008  0.1891  0.0458 -0.0040
43889W        W44753  25.082   4.960  26.228  0.0878 -0.0129 -0.3109
43890W        W44754  18.702  26.215  14.042 -0.2919  0.1743  0.2555
43891W        W44755  26.443  19.300   6.028 -0.3937  0.0495  0.0073
43892W        W44756   1.045  21.975   6.768 -0.0753 -0.0601 -0.4617
43893W        W44757   8.321  18.796  18.766 -0.0485 -0.0477 -0.1441
43894W        W44758   4.350   0.692   5.026 -0.0672 -0.0229  0.2284
43895W        W44759  21.771  15.876  18.184 -0.3801  0.2504  0.0325
43896W        W44760   9.042  19.959  15.807  0.0786 -0.1300  0.0018
43897W        W44761   7.041  11.075  27.592  0.1558  0.1904 -0.3225
43898W        W44762   1.459  19.508  27.540 -0.2035  0.0655 -0.0550
43899W        W44763  10.916  10.975   4.012 -0.1998  0.0177 -0.1608
43900W        W44764  20.362  19.277  20.417  0.0894 -0.2135  0.2050
43901W        W44765   4.645  21.458  16.941 -0.0798 -0.1337 -0.2681
43902W        W44766  19.385   3.326   3.071  0.2092  0.0055  0.1758
43903W        W44767  27.882   8.455  16.879 -0.2569 -0.0688 -0.2010
43904W        W44768  11.783   8.478   0.065  0.0549  0.1462  0.0055
43905W        W44769  18.229  26.878  26.132  0.0048  0.1188 -0.3364
43906W        W44770   0.646  16.933  16.990 -0.1083 -0.0569  0.0639
43907W        W44771   9.849  18.393  14.150 -0.2569 -0.3343  0.1325
43908W        W44772  12.424  26.279  24.297 -0.2757  0.0115 -0.1795
43909W        W44773  15.978  21.783   8.413  0.0982  0.0467 -0.1320
43910W        W44774   2.107  18.103  14.752  0.0750  0.0092 -0.1592
43911W        W44775  26.036  22.416   5.984  0.1471 -0.1807  0.0385
43912W        W44776   3.814  24.060  17.756  0.1187  0.0811  0.0643
43913W        W44777  22.526  19.966  14.281  0.0176 -0.1020 -0.0673
43914W        W44778  22.729   6.276  28.232 -0.0222 -0.0097 -0.1349
43915W        W44779  25.021  23.285  20.805  0.2631  0.1493  0.2236
43916W        W44780  27.400  10.951   9.902 -0.0861 -0.2853 -0.0471
43917W        W44781  19.790  21.324   6.531  0.3555  0.1725 -0.0683
43918W        W44782   6.176  22.159  18.663  0.1942 -0.4222  0.1044
43919W        W44783  22.840  22.048  22.979 -0.3002  0.0631  0.3531
43920W        W44784  19.153  19.640  24.644 -0.1562  0.2653 -0.0885
43921W        W44785  19.672   6.237   0.931 -0.3891 -0.4234 -0.2646
43922W        W44786  27.651  12.191  28.716 -0.1825 -0.4951  0.2173
43923W        W44787  24.900  14.761   8.325 -0.0150 -0.0096  0.2222
43924W        W44788   1.773  12.159  26.753  0.1408 -0.1673 -0.1489
43925W        W44789  18.940  19.740  25.982 -0.0486  0.2222 -0.2256
43926W        W44790  10.915  14.246  22.117 -0.0513 -0.0965  0.0701
43927W        W44791   9.804  18.700  19.675  0.1765  0.1827  0.0496
43928W        W44792  27.782   7.633  27.374 -0.2030  0.0568 -0.3493
43929W        W44793  11.390   9.809   5.969  0.0979 -0.3776 -0.2759
43930W        W44794  12.768  19.669  19.078 -0.0337 -0.1157 -0.1728
43931W        W44795  21.459   2.482  14.446  0.2599  0.4292 -0.1003
43932W        W44796  12.061  23.555  20.188  0.0525 -0.0770  0.1713
43933W        W44797  18.293  23.262  25.943 -0.1039 -0.0446 -0.1384
43934W        W44798  28.397  22.819  28.248  0.0534 -0.0868  0.0221
43935W        W44799  25.689  15.619  27.632 -0.0563 -0.0672 -0.1010
43936W        W44800  21.999  18.372   4.785 -0.1903  0.1194 -0.4381
43937W        W44801  22.273  16.622   5.075  0.2674  0.1001 -0.1000
43938W        W44802   1.366  13.571  21.465  0.0546 -0.0603 -0.0673
43939W        W44803  19.607  26.223  25.008 -0.1684  0.0134  0.3271
43940W        W44804  17.270  15.622  20.032  0.2356  0.0055  0.0501
43941W        W44805  16.708   6.891  11.459  0.2860  0.0697  0.0196
43942W        W44806  27.825  22.652  10.813  0.1390 -0.3981  0.1654
43943W        W44807  28.325  19.730   7.769  0.0806  0.0380 -0.3453
43944W        W44808   0.289  29.019   0.859 -0.1015  0.1993  0.1461
43945W        W44809  15.128   5.459   5.017  0.0160  0.1316  0.1784
43946W        W44810  16.358  12.568   1.889  0.1730  0.2243  0.1954
43947W        W44811  27.247  19.012   8.037 -0.3044  0.1118  0.0251
43948W        W44812  19.549  14.588  18.987 -0.0076  0.1609 -0.2342
43949W        W44813   6.905  24.841  23.717 -0.3677 -0.0634  0.0474
43950W        W44814  19.556  18.809   0.854 -0.1167 -0.1281 -0.2975
43951W        W44815  21.201  23.761  12.706 -0.0072 -0.0673 -0.0855
43952W        W44816  13.567  13.091  24.311  0.1645 -0.2574  0.2818
43953W        W44817  27.333  24.945  14.405  0.0076  0.0092 -0.0716
43954W        W44818  13.105  23.639   1.359  0.2273  0.4423  0.0095
43955W        W44819  14.228  13.448  17.346 -0.1904  0.1444 -0.3211
43956W        W44820  10.289   3.377   1.002  0.3173  0.0576 -0.1716
43957W        W44821  14.341   9.092  25.106  0.1751 -0.3518  0.0071
43958W        W44822   9.856  27.250   7.050 -0.1459 -0.0393  0.2666
43959W        W44823  19.803  18.593  18.824  0.2566 -0.1004  0.2470
43960W        W44824  13.547  10.465   5.910  0.0722 -0.2314 -0.0476
43961W        W44825   7.325   5.676   0.496  0.0412  0.2396  0.2149
43962W        W44826   9.023  12.057   6.597 -0.0213 -0.0522  0.1868
43963W        W44827  12.601  18.640   5.836 -0.0571 -0.1837 -0.2254
43964W        W44828  17.500  25.704   1.143 -0.2717 -0.3068 -0.1712
43965W        W44829  12.755  20.863   3.231  0.2825 -0.4556 -0.2996
43966W        W44830  17.937   5.190  19.867  0.2148 -0.0913 -0.2479
43967W        W44831  14.555   7.831   7.942 -0.1203 -0.0271 -0.1410
43968W        W44832  18.978  20.178  10.491 -0.3213  0.2029 -0.2596
43969W        W44833  23.904   7.128   2.842 -0.3995  0.0374 -0.0285
43970W        W44834  17.847  18.085   7.878  0.0323  0.0506  0.0581
43971W        W44835  17.775  14.311   0.573 -0.1567  0.2173 -0.1491
43972W        W44836  11.203  15.176  23.877  0.1677 -0.3950  0.1058
43973W        W44837  16.094  26.328  13.347  0.1055  0.0765 -0.0697
43974W        W44838  18.962  15.475  13.735 -0.1322  0.2236  0.0218
43975W        W44839  24.023  15.826   1.045 -0.1112  0.0546  0.0778
43976W        W44840  17.704  25.058  28.365 -0.0662 -0.3208 -0.1463
43977W        W44841  24.367  28.836  24.490  0.1105  0.3312  0.3150
43978W        W44842   3.950   4.019  20.938 -0.0395  0.0608 -0.0688
43979W        W44843   0.269  22.700  14.884  0.0951 -0.1186  0.0111
43980W        W44844   1.500   6.885   3.852  0.0025  0.2628 -0.0531
43981W        W44845  15.912  16.586  26.225 -0.0816 -0.1177  0.1021
43982W        W44846   2.462   9.602  20.484  0.0170  0.2637  0.0650
43983W        W44847   8.462  22.068   1.804  0.0442 -0.1030 -0.1044
43984W        W44848  11.750   2.158   1.069  0.2574 -0.3056  0.1809
43985W        W44849  23.184   1.182   1.412 -0.1820 -0.0020 -0.0870
43986W        W44850  13.239  16.851   1.388 -0.1625 -0.0035 -0.1378
43987W        W44851  22.481  15.689   8.275  0.0746  0.0574 -0.1175
43988W        W44852  15.140  28.258  14.379  0.0333  0.2804  0.2293
43989W        W44853  14.591   1.841  17.015  0.1127  0.2369  0.1774
43990W        W44854   0.497  27.340   2.185 -0.0568  0.2129  0.2067
43991W        W44855  28.598  17.044  21.975 -0.0328  0.0892 -0.1635
43992W        W44856   4.492  23.649  26.753 -0.1247  0.2398  0.0383
43993W        W44857  21.683  18.332  29.081  0.0574 -0.2285 -0.2740
43994W        W44858  10.426   5.747  17.845  0.2913  0.2709  0.0009
43995W        W44859  20.589  19.505   1.992  0.1080  0.1257  0.0103
43996W        W44860  24.543  15.088  12.679  0.0020  0.0906 -0.1512
43997W        W44861  22.341  10.187  22.110 -0.0197  0.0182 -0.1257
43998W        W44862  15.608  28.252  14.806  0.0983 -0.2577 -0.0904
43999W        W44863  14.452  23.573  20.646 -0.1027 -0.1890  0.0659
44000W        W44864  24.627   0.892   5.632 -0.0111 -0.1694  0.0420
44001W        W44865  12.750  28.259  17.620 -0.0622 -0.0031  0.0474
44002W        W44866  20.622  21.204  28.531  0.0104 -0.0536 -0.0723
44003W        W44867  10.874   9.088  14.734 -0.2993  0.0343 -0.2760
44004W        W44868   9.799   0.532  18.657  0.1860  0.0945 -0.0459
44005W        W44869  20.214  25.777  12.185 -0.1928  0.0766 -0.0311
44006W        W44870  18.375   6.562  27.848 -0.0547  0.3441  0.0883
44007W        W44871  11.406  19.360   9.148 -0.3580 -0.1568  0.2344
44008W        W44872   0.434  10.963   0.373  0.0272  0.2910  0.0425
44009W        W44873  28.646  18.694   4.575  0.0432  0.2288  0.0352
44010W        W44874  16.942  18.374  19.282 -0.2740 -0.1874 -0.3115
44011W        W44875  27.419  13.068  13.181 -0.0680  0.0663  0.2279
44012W        W44876   4.322   2.840  23.662  0.1770  0.3124 -0.1902
44013W        W44877  14.134  21.876  23.759 -0.0292 -0.2158 -0.0259
44014W        W44878  19.948  27.137  15.217 -0.2797 -0.0218 -0.1469
44015W        W44879   3.368  20.607   8.517  0.0577  0.0773 -0.0994
44016W        W44880  10.141  28.795  22.337 -0.0243  0.1539  0.0563
44017W        W44881  24.713  16.327  20.089 -0.1572  0.0222 -0.3428
44018W        W44882  25.281  15.180  28.868 -0.2850 -0.0867  0.2197
44019W        W44883   7.833  25.295   9.591  0.0949 -0.0355  0.1407
44020W        W44884  12.790  18.066   4.536 -0.4585  0.2282 -0.0415
44021W        W44885  15.112   8.776  23.347 -0.2253 -0.1692 -0.1585
44022W        W44886  22.349   4.756  27.082  0.1285 -0.0088  0.4568
44023W        W44887   4.025  20.793   9.449 -0.2460 -0.1894 -0.0226
44024W        W44888  16.459   5.066   7.995 -0.0303  0.0602 -0.0082
44025W        W44889   2.603  16.777   5.524 -0.0431  0.1899 -0.3199
44026W        W44890   2.635  11.974  21.967 -0.2045 -0.1261  0.0910
44027W        W44891  27.672  13.087  23.707 -0.2257 -0.0619 -0.1273
44028W        W44892   7.192  28.508  21.487  0.0452 -0.3427 -0.0315
44029W        W44893  22.905  10.156   0.846 -0.1965 -0.0440 -0.1947
44030W        W44894  11.747   1.684   9.071 -0.1736  0.6038  0.1328
44031W        W44895  22.878  13.386   9.869 -0.3171 -0.0269 -0.0794
44032W        W44896   7.022   9.573  11.698  0.1960 -0.0045  0.1398
44033W        W44897  22.571  24.157   4.590 -0.0126  0.0190 -0.1651
44034W        W44898  26.935  25.799   0.933 -0.5285  0.0882  0.1341
44035W        W44899  14.498   1.671  18.316  0.0399 -0.1331  0.1044
44036W        W44900  20.833  11.335  24.217  0.1661  0.1455  0.0140
44037W        W44901  22.841   4.942   0.765 -0.1336  0.2850 -0.0094
44038W        W44902  10.433  13.282   6.041 -0.1454 -0.1139  0.1628
44039W        W44903   9.800  23.876  14.036 -0.1566 -0.0953  0.1198
44040W        W44904   9.057  13.914  22.918 -0.1650  0.0903  0.1038
44041W        W44905   2.732  15.093  24.250  0.1256 -0.0479  0.0970
44042W        W44906   7.864  23.056  14.259 -0.1243  0.0294 -0.1615
44043W        W44907  25.203  21.115  27.042  0.3389  0.3054  0.0609
44044W        W44908  21.584   8.971  18.100 -0.0447 -0.2652  0.0818
44045W        W44909  18.292  20.615  28.221  0.2611 -0.2018 -0.2463
44046W        W44910  23.495  17.624  23.982 -0.2017  0.2897 -0.1278
44047W        W44911  20.875  23.911  20.183 -0.2188  0.2313  0.0615
44048W        W44912   0.739  26.638  20.199 -0.0103  0.1582  0.0358
44049W        W44913  17.380  17.126  19.903  0.0411 -0.0878 -0.3087
44050W        W44914   4.446  21.597  21.263 -0.1446  0.2836 -0.1102
44051W        W44915  21.395  28.868   3.284  0.0360 -0.2187  0.1924
44052W        W44916  14.042   3.482  19.680  0.0642  0.0637  0.1932
44053W        W44917  24.133  11.488  14.540 -0.2066  0.0495 -0.0327
44054W        W44918  18.673  18.179  15.782 -0.0706  0.1252 -0.0747
44055W        W44919  14.369  11.894   2.170 -0.0722  0.1190  0.1053
44056W        W44920  25.660   1.888  28.383 -0.1377  0.0403 -0.0364
44057W        W44921  23.610  20.570  20.989  0.3196  0.0383  0.0254
44058W        W44922  17.262   0.329   4.274  0.0682 -0.0230 -0.0428
44059W        W44923  11.357  19.197  20.814 -0.1767 -0.4136 -0.0877
44060W        W44924   8.810  14.121   3.855  0.2492  0.1702 -0.0736
44061W        W44925   9.353   4.469   1.926 -0.0517  0.1107  0.1591
44062W        W44926  27.245  24.372  27.786  0.3707  0.2125  0.0337
44063W        W44927  24.282  13.794   2.326 -0.0779 -0.0538  0.1547
44064W        W44928  20.504   7.924   9.446 -0.1022 -0.1318  0.1081
44065W        W44929  19.268  20.501  23.015 -0.2074 -0.0092 -0.1920
44066W        W44930   0.472  14.893   3.408  0.1636  0.0005 -0.0638
44067W        W44931   0.946  15.836   0.068  0.2870 -0.2685  0.0056
44068W        W44932  18.624   8.330   8.283  0.2110 -0.0527  0.0202
44069W        W44933   5.071  24.555  22.430  0.0345  0.2167  0.1585
44070W        W44934  16.322  13.014   8.369  0.0058  0.0294 -0.3726
44071W        W44935  16.881  16.663   2.702 -0.1949  0.1880  0.2436
44072W        W44936   8.607   7.499  10.906  0.1349  0.2783  0.0145
44073W        W44937   4.117  20.718   2.479 -0.1857  0.2010 -0.2274
44074W        W44938  14.653  18.498  21.267 -0.1382 -0.0957 -0.0096
44075W        W44939  24.860  27.974   1.882 -0.0582  0.2386 -0.1674
44076W        W44940   4.856  26.088  12.622 -0.2697 -0.2169 -0.0875
44077W        W44941   2.049   3.699   8.376  0.0000  0.1266  0.0036
44078W        W44942  13.171  21.612  25.308 -0.2603  0.0704  0.0338
44079W        W44943  18.279   1.323  26.715  0.0664 -0.2533 -0.0679
44080W        W44944  22.679  23.532   3.540 -0.1488  0.1419 -0.2663
44081W        W44945   2.209  23.517   0.540  0.1424 -0.2734 -0.0391
44082W        W44946  19.974   5.839  16.802  0.2480  0.0054  0.0413
44083W        W44947  21.012  24.072   1.695 -0.0125 -0.1430  0.2659
44084W        W44948   1.935  23.046  19.189 -0.2355 -0.0512 -0.1622
44085W        W44949  11.488   4.108  13.874 -0.0974  0.3453  0.1442
44086W        W44950  15.716  24.213  22.692 -0.1316 -0.3405 -0.2352
44087W        W44951  17.698   6.647  23.406  0.1457 -0.0806  0.1912
44088W        W44952  11.758   9.073  16.000  0.0670  0.1820 -0.5381
44089W        W44953  23.980  13.611   4.541  0.1249  0.0878  0.0481
44090W        W44954   7.674   4.639  10.946 -0.2526  0.0146 -0.1972
44091W        W44955  27.974  29.047  28.705 -0.0883 -0.0695 -0.0827
44092W        W44956  25.293   9.440   1.588 -0.0364 -0.3061  0.1675
44093W        W44957  26.827  23.832  17.114  0.1659 -0.2410  0.0138
44094W        W44958   3.994  25.725  24.682 -0.2185 -0.1105 -0.0256
44095W        W44959  19.097  17.709   2.761  0.1127 -0.0302 -0.2602
44096W        W44960  20.854   9.146  18.408  0.0701 -0.3606  0.1939
44097W        W44961  24.671   5.390  16.811  0.2802 -0.3705 -0.2344
44098W        W44962  16.097  26.917   0.181  0.1802 -0.0135 -0.3200
44099W        W44963  21.105  22.003   5.537  0.0935  0.4047  0.0719
44100W        W44964  14.166  21.656  22.417 -0.0850  0.0763 -0.0154
44101W        W44965  20.503  19.767  20.506 -0.0247  0.1725 -0.0786
44102W        W44966  21.099  12.826  23.826 -0.1150 -0.0182  0.0729
44103W        W44967   2.252   8.069  24.260  0.2704  0.0580 -0.0866
44104W        W44968   1.599   4.289   3.239 -0.3156  0.1750 -0.0572
44105W        W44969   0.911  18.670   9.430 -0.2484 -0.0609 -0.0033
44106W        W44970  19.512  16.741  18.845 -0.5451  0.0416 -0.1853
44107W        W44971   0.622   6.563   7.925  0.1245  0.0046  0.1991
44108W        W44972   9.942  12.752  12.263  0.1612  0.1344  0.1166
44109W        W44973  25.092  12.561  21.266 -0.0215 -0.2664  0.0388
44110W        W44974  21.967  25.413  15.080 -0.1539 -0.0080 -0.0789
44111W        W44975  22.462   3.992  19.293 -0.1501  0.2786  0.1773
44112W        W44976  26.583  19.985  25.090 -0.0148 -0.1072  0.1264
44113W        W44977  16.773  23.312   6.410  0.1774  0.1579 -0.0801
44114W        W44978  25.496   2.384  11.433  0.1723  0.2317  0.2106
44115W        W44979  17.316  24.750  28.561 -0.0761  0.2725 -0.1467
44116W        W44980  18.156  24.469  24.317  0.0774 -0.0961  0.2546
44117W        W44981  10.142   2.546  18.460  0.0315  0.0235 -0.2306
44118W        W44982   9.445  15.692   1.999  0.2149 -0.2872  0.0230
44119W        W44983  19.557  23.997   5.243 -0.2487  0.1454  0.2944
44120W        W44984   7.878  25.847  25.083 -0.0873 -0.0392  0.0130
44121W        W44985  12.477   3.245  19.843 -0.1416 -0.2728  0.0888
44122W        W44986   4.204  28.357  16.867  0.2697  0.1564 -0.0252
44123W        W44987   5.604  18.957   4.490  0.1125  0.4497 -0.1498
44124W        W44988   5.523  25.756   7.751  0.0219 -0.0489  0.2575
44125W        W44989  12.072  11.491   5.824 -0.2002 -0.0641 -0.2347
44126W        W44990  25.236  15.914  22.549  0.0134  0.2069  0.3258
44127W        W44991   9.934  21.143  18.069  0.0498 -0.1338 -0.0023
44128W        W44992  20.482   6.992   8.277  0.2045  0.1175 -0.2178
44129W        W44993  19.633   6.569  29.100  0.1907 -0.0530 -0.3487
44130W        W44994  22.333  24.872  28.544 -0.3698  0.1946 -0.0827
44131W        W44995  27.888  22.853  16.181 -0.3323 -0.0553  0.0525
44132W        W44996  27.649  28.522  23.264  0.2165 -0.0102 -0.0213
44133W        W44997   6.719  12.408   6.745  0.1077 -0.0245  0.0643
44134W        W44998  14.531  24.514   6.430  0.3949 -0.0080 -0.2523
44135W        W44999  18.977  15.976   7.184 -0.0316  0.2303 -0.1680
44136W        W45000  24.021   2.424  16.684  0.1579  0.4181  0.1863
44137W        W45001  28.930  10.891  20.590 -0.1687 -0.1272 -0.1379
44138W        W45002  27.924  26.928   5.846  0.0927  0.0812  0.3060
44139W        W45003  20.474   6.963  22.911  0.2416  0.1522 -0.0063
44140W        W45004  18.525   0.852   9.221  0.0637  0.2191 -0.1352
44141W        W45005  17.985  18.039   5.308 -0.2275 -0.2604  0.0029
44142W        W45006  14.702  18.601  14.717  0.2762 -0.0843  0.0423
44143W        W45007  20.770  20.154  27.159  0.2517  0.1052  0.1617
44144W        W45008  24.947   2.997  12.014 -0.1695  0.0522 -0.0149
44145W        W45009  20.104  15.204  10.035 -0.0056 -0.1242 -0.0704
44146W        W45010  12.343  25.073   4.219 -0.4471  0.1146 -0.3005
44147W        W45011   3.334  25.078  19.423 -0.0935 -0.2258 -0.0036
44148W        W45012  17.528   8.882  26.687 -0.0855  0.2656  0.2219
44149W        W45013   4.455  27.254  24.398  0.0703 -0.0855 -0.2368
44150W        W45014  10.300  26.086   0.168 -0.3369 -0.2258  0.0174
44151W        W45015  13.771  28.305  25.392  0.1399  0.3282  0.4553
44152W        W45016  11.342  17.795  27.355  0.1618  0.0583  0.2786
44153W        W45017  14.563   7.581  24.895  0.0032 -0.1652 -0.2035
44154W        W45018  26.909  26.089  16.734  0.2725  0.1075 -0.0282
44155W        W45019  21.940  22.431  18.936 -0.1885 -0.1559 -0.0484
44156W        W45020  24.786  21.904  26.254  0.1050 -0.0107 -0.0331
44157W        W45021  19.002  18.886  19.039  0.0288 -0.0659  0.2454
44158W        W45022  19.823  18.943  27.586  0.1976 -0.0229 -0.0232
44159W        W45023  15.392  25.271   5.959 -0.0925  0.0704 -0.1687
44160W        W45024   1.178  16.024   9.280 -0.0014 -0.2496 -0.2075
44161W        W45025   4.500  12.402  13.578  0.4186 -0.1202  0.1477
44162W        W45026  24.098  21.028   9.333 -0.0933 -0.0561 -0.1228
44163W        W45027  28.388  15.570   8.533 -0.3579 -0.0061 -0.2919
44164W        W45028  24.596   6.962   9.498  0.1098  0.1732  0.2309
44165W        W45029  14.717  28.022   5.066  0.2752 -0.1494 -0.0784
44166W        W45030  23.242   3.131   0.719  0.0876 -0.1061  0.2668
44167W        W45031  11.685   7.532  20.018 -0.3902  0.2839  0.0563
44168W        W45032   6.806  15.997   6.764 -0.0730 -0.1015 -0.6276
44169W        W45033   5.332  17.419  26.372 -0.0498 -0.1429  0.1230
44170W        W45034   6.904  14.967  26.836  0.0549  0.1265  0.1811
44171W        W45035   2.327   5.149  15.860  0.2181  0.3011 -0.0779
44172W        W45036   8.400  24.300   0.642 -0.1779  0.1732 -0.2021
44173W        W45037  18.462  10.085  25.211 -0.1643  0.1551 -0.1185
44174W        W45038   8.628  24.829  11.368 -0.0015  0.1630 -0.0533
44175W        W45039   0.845  16.301   7.490 -0.0728  0.0397 -0.0242
44176W        W45040  14.061  19.596  25.451 -0.0268  0.2473 -0.0107
44177W        W45041  20.519   0.621  21.504  0.0709 -0.1527  0.0559
44178W        W45042  24.459  16.722  15.800 -0.1866 -0.3111  0.0324
44179W        W45043  21.906  11.972  18.556  0.0681 -0.1169  0.0742
44180W        W45044  17.437  12.662  25.091 -0.1709 -0.0884 -0.1141
44181W        W45045  15.466   0.824   7.911 -0.0670 -0.1201  0.1233
44182W        W45046  10.664   2.996   2.461 -0.0560 -0.0132  0.1790
44183W        W45047  19.577   2.186   3.563  0.0909 -0.1764 -0.0377
44184W        W45048  20.191  17.914  14.666  0.1501 -0.3711 -0.1014
44185W        W45049  18.577  12.714  22.820  0.0041 -0.4473 -0.1459
44186W        W45050  21.661  27.439   1.852 -0.0151  0.1675 -0.1159
44187W        W45051  24.880  25.668  16.117 -0.1087 -0.0211  0.1300
44188W        W45052   4.617  18.919  15.467 -0.2632  0.2080  0.3217
44189W        W45053   1.100   8.607  19.047 -0.0848  0.0544  0.3848
44190W        W45054  26.769  20.456   4.238 -0.2862 -0.0690 -0.1114
44191W        W45055  19.276  15.650   3.178  0.0410  0.1840 -0.0873
44192W        W45056  14.131   8.047   9.106  0.1460 -0.1552 -0.0039
44193W        W45057  22.829  23.270  21.019  0.1242 -0.0335  0.1417
44194W        W45058  25.900   1.500   2.348 -0.1417 -0.0025 -0.2419
44195W        W45059  26.523   7.104  16.930 -0.0742  0.2301  0.0790
44196W        W45060  15.211  27.963  28.189 -0.3995 -0.0939 -0.1085
44197W        W45061  15.365  25.982   4.608  0.2788 -0.2005  0.0393
44198W        W45062  10.042  26.793   7.192 -0.3846  0.0938 -0.0615
44199W        W45063  26.944   8.829  27.289  0.1171 -0.1161 -0.1537
44200W        W45064  22.885   6.038  16.201  0.1357  0.2486  0.1252
44201W        W45065  10.726  15.778  16.764 -0.0914  0.2257  0.0545
44202W        W45066  16.508   7.856  23.462  0.1665  0.0703  0.0073
44203W        W45067  27.945  28.529  22.357  0.0839  0.0332 -0.0677
44204W        W45068  24.302  19.942  28.526 -0.2517  0.1763 -0.0447
44205W        W45069   8.236  26.319   8.053  0.0560 -0.0491  0.2664
44206W        W45070  18.722  19.192   0.951  0.1395 -0.2254  0.2497
44207W        W45071  27.533  21.803   4.572  0.2891 -0.0410 -0.2045
44208W        W45072  18.232  23.212   7.740 -0.0155  0.2700 -0.3078
44209W        W45073  16.365  13.312  18.753  0.1876  0.2076 -0.1783
44210W        W45074   9.005  22.346  26.084 -0.0264 -0.0483 -0.0703
44211W        W45075  17.958   6.316  27.454  0.3728 -0.0545 -0.0708
44212W        W45076  23.146  14.266   4.854  0.2722  0.0047  0.2862
44213W        W45077  20.205   1.114  12.419  0.3424 -0.1912 -0.0165
44214W        W45078  13.939   2.762  17.519  0.1278 -0.2086 -0.0189
44215W        W45079   5.926  24.646  17.303 -0.0210  0.2185  0.3206
44216W        W45080  19.810  24.136  16.221 -0.0634  0.0652 -0.2049
44217W        W45081  22.343  24.889   5.133 -0.1415 -0.0979 -0.4650
44218W        W45082   2.947  17.706  28.187 -0.3375  0.4662 -0.1849
44219W        W45083  23.586  17.811  24.417 -0.1548 -0.0709 -0.1534
44220W        W45084  20.335  15.929  23.948  0.2926 -0.0054  0.1691
44221W        W45085  26.650  18.740   2.141 -0.1361  0.2192  0.0825
44222W        W45086  16.292   7.780   7.444 -0.0760 -0.0992 -0.1715
44223W        W45087  26.644  14.853   6.302 -0.0749 -0.0118 -0.0127
44224W        W45088  28.535  26.160  14.547 -0.1295 -0.2128  0.0515
44225W        W45089  23.490   3.873   4.261 -0.0517  0.4539 -0.0074
44226W        W45090  22.875  21.338  22.498 -0.4016 -0.2952  0.1819
44227W        W45091  27.988  16.917  10.351 -0.4293 -0.0956  0.3612
44228W        W45092   7.290  10.198  28.036  0.1177  0.0121  0.0626
44229W        W45093   7.751  23.490   9.946 -0.0944  0.0407 -0.1553
44230W        W45094  20.590  10.065  28.955 -0.1909  0.2105  0.0221
44231W        W45095  14.041   8.063  22.324  0.1747  0.0206  0.0079
44232W        W45096  16.599  16.134  24.954 -0.0415 -0.1818  0.1626
44233W        W45097   2.591  17.482  27.834  0.1552 -0.1499  0.1379
44234W        W45098   0.843  22.429  28.192  0.0009  0.1948  0.0467
44235W        W45099  12.580  21.600   3.431  0.0812 -0.0043  0.0599
44236W        W45100  19.056  15.186  20.970  0.0942  0.1568  0.0863
44237W        W45101  20.374  17.428   1.642  0.0197  0.2557 -0.0442
44238W        W45102  14.607  25.815  28.958  0.1509 -0.1935  0.1757
44239W        W45103  14.664  12.419  17.085 -0.0366 -0.2291 -0.2207
44240W        W45104  22.211   0.058   5.267  0.2702 -0.0089  0.2140
44241W        W45105   8.819   5.337   0.595 -0.0182  0.2240 -0.1230
44242W        W45106   7.923  28.325  22.109  0.1763 -0.3876 -0.0289
44243W        W45107  15.605  21.888   8.766  0.1568  0.0859  0.0762
44244W        W45108  27.834  21.323   7.905  0.2996 -0.0300 -0.2784
44245W        W45109  28.367   4.694   0.948 -0.0082  0.1862 -0.4057
44246W        W45110  27.602  25.317   8.416  0.0623  0.0778 -0.0269
44247W        W45111  19.021  20.604   1.785 -0.0222  0.1446  0.2110
44248W        W45112   8.340  28.666  22.942 -0.2745 -0.0342  0.0593
44249W        W45113   4.594   0.500   3.095  0.0333 -0.1200  0.0956
44250W        W45114  21.345  20.880  20.791  0.1107 -0.1721  0.1046
44251W        W45115   6.100  19.899  27.585 -0.0223 -0.6856  0.2761
44252W        W45116   2.913  19.153  25.367  0.0353 -0.2676 -0.0741
44253W        W45117  24.949  26.669   0.718 -0.0200  0.2868 -0.2461
44254W        W45118  10.204  28.598  24.352  0.1169  0.1597 -0.1349
44255W        W45119  16.479  13.808  25.100 -0.4235  0.0294 -0.3693
44256W        W45120  10.249  28.689   1.563 -0.0396 -0.0718  0.2637
44257W        W45121  14.360  28.016   8.767  0.2398 -0.3654  0.0277
44258W        W45122   1.604  18.326   4.997  0.2464 -0.0341  0.0681
44259W        W45123   0.612   8.428  15.370  0.2500 -0.5231  0.0317
44260W        W45124  21.071   6.254  28.117 -0.1341  0.1471 -0.2002
44261W        W45125  27.156  12.919  26.068  0.1792  0.1378  0.1051
44262W        W45126  24.438  26.873  22.261 -0.1905  0.1899 -0.1618
44263W        W45127  13.042   1.832  29.079  0.2110 -0.0361  0.0365
44264W        W45128  13.935  24.294  15.151  0.0058 -0.1438  0.1786
44265W        W45129   7.002  12.345   7.179 -0.0262 -0.0360 -0.1706
44266W        W45130  11.817  15.540  20.783 -0.1490  0.0149  0.0115
44267W        W45131   7.127  18.327  23.033 -0.0125  0.0999 -0.0350
44268W        W45132  23.474  25.203  27.300 -0.0821 -0.0333  0.0068
44269W        W45133  25.195   2.356  14.896  0.0144  0.0041  0.1378
44270W        W45134  13.704  25.718   7.432 -0.0313  0.4009  0.1679
44271W        W45135  22.657  23.558  24.468 -0.1495 -0.0740 -0.0490
44272W        W45136  18.828  14.823   9.129  0.3660  0.1990  0.1304
44273W        W45137   3.864  23.358  22.267 -0.0412 -0.1722  0.0901
44274W        W45138   2.338  26.758   7.243 -0.0045 -0.0216  0.0621
44275W        W45139  21.686  15.442   2.460 -0.2350  0.0856 -0.0522
44276W        W45140  26.813  16.105   1.758 -0.0668 -0.0582 -0.2995
44277W        W45141   2.202   3.207   4.198 -0.2635 -0.1348 -0.0675
44278W        W45142  26.222  25.295  14.799 -0.2002 -0.0786 -0.2345
44279W        W45143   6.014  13.319   2.435  0.0951  0.1057  0.3805
44280W        W45144  25.359  25.754  27.931  0.0303 -0.0540 -0.1093
44281W        W45145   6.816  24.631  19.520  0.4009 -0.0382  0.1372
44282W        W45146  12.471  28.285  10.636  0.2695 -0.1624  0.1351
44283W        W45147  17.082  13.814   6.838  0.1246 -0.1164  0.1782
44284W        W45148   9.833  17.712  27.142  0.3319 -0.3005 -0.2980
44285W        W45149  18.401   6.430  26.354  0.0267 -0.0822 -0.0049
44286W        W45150   1.297  19.410  19.523  0.0017 -0.0817 -0.1029
44287W        W45151  17.923   1.438  27.023 -0.0644 -0.1487  0.1618
44288W        W45152  22.091  17.046   0.429 -0.0730  0.0133 -0.2346
44289W        W45153  25.896  24.753   8.313 -0.1898 -0.0002 -0.2474
44290W        W45154  17.299  26.201   6.776 -0.0238 -0.1315  0.0431
44291W        W45155   8.594  17.570  21.419 -0.0891  0.0759 -0.2070
44292W        W45156  26.888  24.221  28.548  0.2185  0.2275  0.1839
44293W        W45157  19.996  27.183   0.057  0.1990 -0.0426 -0.1295
44294W        W45158  12.967  29.073   6.711 -0.2666 -0.0927 -0.3884
44295W        W45159  20.779  23.448  13.472 -0.1716  0.2441 -0.1244
44296W        W45160  20.356   9.086  18.151 -0.0936 -0.1441  0.0937
44297W        W45161   7.176   4.774  12.506  0.2922  0.2531  0.0885
44298W        W45162  23.266  25.196  13.191  0.2531 -0.0906 -0.0709
44299W        W45163   5.052  20.191  19.845  0.0219  0.3154 -0.0712
44300W        W45164   4.384   7.762  26.113  0.0189 -0.1693  0.3271
44301W        W45165  13.293  11.069   2.163 -0.0142 -0.2050 -0.0150
44302W        W45166   2.215  15.679   7.361 -0.1083 -0.2006 -0.0284
44303W        W45167  25.857   5.766   6.915  0.1174 -0.3336  0.2433
44304W        W45168  15.028   6.314  18.363  0.0687  0.0300 -0.0445
44305W        W45169  27.957   3.352  27.291 -0.0608 -0.2644  0.0796
44306W        W45170  21.860  22.875   2.807 -0.0908  0.0690  0.1466
44307W        W45171  22.865  16.490  19.318  0.2198  0.0936 -0.0999
44308W        W45172   5.759  14.781   3.339  0.1913  0.2571  0.1054
44309W        W45173  28.217   6.308   3.570  0.3965 -0.0478  0.1944
44310W        W45174  18.456   7.742  27.953  0.2243  0.3979  0.2724
44311W        W45175   1.307  14.194  25.205 -0.0390  0.2297  0.0460
44312W        W45176  17.198  21.811  21.828  0.0591  0.0325  0.0430
44313W        W45177  25.624  19.797  23.874 -0.2097  0.1801  0.1800
44314W        W45178   7.201  14.553  22.315 -0.2696 -0.1383 -0.1516
44315W        W45179   9.681  14.911  26.487  0.0414 -0.1905 -0.0895
44316W        W45180  13.940  16.906  11.084 -0.0460 -0.0622 -0.2119
44317W        W45181  10.078  19.110   3.240 -0.0550 -0.3506 -0.0269
44318W        W45182  16.214  14.225  20.873 -0.0903 -0.0756 -0.2827
44319W        W45183  18.747  22.038  24.549  0.1643 -0.0258 -0.0350
44320W        W45184  28.241  27.162   9.079  0.0304  0.0059 -0.1911
44321W        W45185  11.275  28.095   0.570  0.1132 -0.1527  0.1360
44322W        W45186  28.037  16.812  25.019 -0.1416 -0.1026 -0.2101
44323W        W45187   0.191  17.131  17.821  0.2471  0.0233 -0.2218
44324W        W45188  19.240   4.582  21.003 -0.3878 -0.0547 -0.3254
44325W        W45189  10.448  19.057  22.115  0.1616  0.0778  0.0130
44326W        W45190  19.641  23.530   1.441 -0.0500  0.1783 -0.1401
44327W        W45191  12.664   6.375   3.931 -0.1387  0.2401  0.0166
44328W        W45192  24.936  18.569  27.882  0.0053  0.2157 -0.5020
44329W        W45193  18.226  20.347  26.735 -0.0485  0.1464  0.0416
44330W        W45194   4.493  14.602   3.636  0.0835 -0.0045  0.2310
44331W        W45195  27.683  13.239   2.711  0.0245 -0.1572 -0.2533
44332W        W45196   0.543   9.237   6.056 -0.1762  0.0276 -0.0673
44333W        W45197  11.484  11.371  13.455  0.0849 -0.2102  0.1732
44334W        W45198  13.447  15.433   0.199 -0.1863  0.2168 -0.0200
44335W        W45199  22.556   0.341   5.053 -0.1777  0.0648 -0.0938
44336W        W45200   8.837  24.032   8.725  0.1915  0.0249 -0.1181
44337W        W45201  19.829  21.203  10.022 -0.0397  0.1611  0.1551
44338W        W45202   8.697   4.186  19.289  0.0072 -0.3189  0.2756
44339W        W45203  15.156  13.971  25.330 -0.0871 -0.0158  0.0518
44340W        W45204  16.603  11.647   6.839 -0.3888  0.2231  0.1897
44341W        W45205  14.812  28.312  11.598 -0.0905 -0.1080 -0.0995
44342W        W45206  26.677  15.476  24.914  0.0369 -0.0881 -0.1147
44343W        W45207   3.210  10.481  22.546 -0.1357  0.0899 -0.2820
44344W        W45208  11.120  14.120  17.595 -0.0678  0.0441 -0.1735
44345W        W45209  20.730  11.582   0.462 -0.1198 -0.1198  0.1847
44346W        W45210   7.154   8.275   5.270  0.1861  0.3367 -0.0283
44347W        W45211  17.639   0.934   3.167 -0.2701  0.0046  0.0129
44348W        W45212   7.635  19.465  15.955  0.2934  0.0146 -0.1001
44349W        W45213  20.343  28.392  21.898 -0.0224 -0.0827  0.0653
44350W        W45214  21.532   0.873  28.239  0.2159 -0.2695 -0.1612
44351W        W45215  20.014   6.041  16.336 -0.1158 -0.2500 -0.3838
44352W        W45216  21.686  13.528  15.233 -0.0438 -0.3005  0.1289
44353W        W45217   6.195  16.356   6.975  0.0463 -0.1012 -0.2358
44354W        W45218  18.493  27.495  21.961 -0.0718 -0.0198  0.1382
44355W        W45219   7.093   0.697  13.449  0.0810 -0.1538 -0.1556
44356W        W45220   3.247  18.194   7.447 -0.0114  0.0833 -0.0657
44357W        W45221   4.754   1.865  22.385 -0.0888 -0.1484  0.1322
44358W        W45222   4.807  22.301  26.072  0.0444  0.0268 -0.0436
44359W        W45223  16.879  17.900  27.589 -0.0526 -0.2128  0.1216
44360W        W45224   0.737  13.289  25.509 -0.0955 -0.0834  0.0485
44361W        W45225  14.871   6.761  27.305  0.2495  0.3049  0.0148
44362W        W45226   8.380  14.617   1.003 -0.2030  0.2064 -0.0457
44363W        W45227  15.322  11.632  28.640  0.0215  0.3140 -0.1659
44364W        W45228  11.089  17.666  13.329 -0.2162  0.2336 -0.2952
44365W        W45229   0.172  14.053  10.390  0.0016  0.1997  0.0181
44366W        W45230  14.000  22.864   1.465  0.1858  0.0324 -0.2146
44367W        W45231   7.952  24.618   7.783 -0.2945  0.1623 -0.0449
44368W        W45232   6.430  25.622  28.732 -0.2862  0.1181  0.0084
44369W        W45233   0.958  15.487  12.590 -0.0362  0.1203  0.1930
44370W        W45234   3.198   6.013  13.583  0.1660 -0.0821  0.0285
44371W        W45235  14.901  11.785  18.265  0.2044 -0.0710 -0.0041
44372W        W45236  26.996  27.408   5.774 -0.1435 -0.2207  0.0046
44373W        W45237  21.565  20.790  17.597  0.0433 -0.0884 -0.0276
44374W        W45238  13.599  15.119  28.996 -0.2198  0.3411  0.2585
44375W        W45239  12.719  14.257  21.882 -0.1451  0.0375  0.2597
44376W        W45240  10.271  25.916  21.213  0.0040 -0.1700  0.0958
44377W        W45241  19.520  16.742   2.318 -0.0924  0.0420 -0.0721
44378W        W45242   8.257  20.880  28.840  0.1005 -0.2545  0.1484
44379W        W45243  26.639   0.760  20.942  0.1192 -0.0138  0.3097
44380W        W45244   1.661  22.875  16.070 -0.0842 -0.1524  0.0140
44381W        W45245  14.876  24.163   6.394 -0.0977  0.1324  0.1113
44382W        W45246  28.838  20.075   4.891  0.1106 -0.1899  0.0693
44383W        W45247  11.026  18.103  24.437 -0.1628 -0.0591  0.2351
44384W        W45248  18.229   8.192   7.908 -0.0975  0.2467  0.1404
44385W        W45249  10.775   4.417  13.791 -0.1977 -0.0742  0.1186
44386W        W45250   2.534  15.698   5.894  0.1251 -0.0149 -0.0992
44387W        W45251  21.062  21.781   6.001  0.0973 -0.1446 -0.2632
44388W        W45252  19.801  15.051  24.297 -0.0086 -0.0278 -0.1232
44389W        W45253  22.375  10.036  12.004  0.0094  0.3496 -0.1475
44390W        W45254  14.714   7.287  25.462 -0.1124 -0.0233 -0.1315
44391W        W45255   6.751   2.606   2.973  0.1648 -0.2174  0.0796
44392W        W45256  17.255   5.982  15.938 -0.0440  0.0158 -0.0987
44393W        W45257  27.690   4.768   5.762  0.0234 -0.3581  0.0788
44394W        W45258  14.716  13.437  20.326  0.2003 -0.3640  0.0806
44395W        W45259  20.596  24.871  13.829 -0.1449  0.1045  0.0873
44396W        W45260  15.418  27.549  22.421  0.0201  0.0659  0.0797
44397W        W45261  15.054  16.712   1.016  0.1101  0.1373 -0.2028
44398W        W45262  10.966  12.244  26.394 -0.1573  0.0181  0.4617
44399W        W45263  25.465  15.417  22.121 -0.0502 -0.0544  0.3554
44400W        W45264   7.012   3.333   0.319  0.3797  0.1430  0.2211
44401W        W45265  17.510  17.654   6.187  0.3216  0.0808  0.2086
44402W        W45266  23.251   3.624   0.663 -0.1872 -0.0711 -0.0262
44403W        W45267  17.273  14.842  21.531 -0.0165 -0.0643 -0.0851
44404W        W45268  10.081   3.102  21.861 -0.2605  0.3100 -0.0756
44405W        W45269   6.323  12.113   2.521  0.2153 -0.0605 -0.2814
44406W        W45270  26.633  13.524   2.014 -0.2425  0.0288 -0.1915
44407W        W45271  14.828  20.435  21.494 -0.1199  0.1274 -0.1662
44408W        W45272   1.765  17.711  22.918 -0.1964  0.0206  0.1718
44409W        W45273  16.299   3.822   6.760 -0.0061 -0.2208  0.0547
44410W        W45274  12.424  17.082  10.034 -0.0987  0.0092  0.0231
44411W        W45275  25.244  24.790   4.539 -0.1419  0.0569  0.6249
44412W        W45276   7.570   0.325   6.492 -0.0550  0.0944  0.1708
44413W        W45277  13.605  19.616  28.404  0.2418  0.0496  0.0860
44414W        W45278  11.585  19.525  19.793  0.0743  0.1780  0.1601
44415W        W45279  25.410  23.894   0.399  0.2278 -0.2147 -0.0249
44416W        W45280  12.255  22.094  26.240 -0.1491  0.0895 -0.0494
44417W        W45281  19.328  26.086  28.427  0.0483  0.2682 -0.2959
44418W        W45282  21.946  15.800   7.459 -0.0081 -0.1202 -0.3334
44419W        W45283  24.157  24.955   0.441  0.1406 -0.0890 -0.1136
44420W        W45284   5.213  25.627  19.103  0.3438 -0.0013  0.1508
44421W        W45285  16.455  28.454   4.094 -0.1100  0.0754 -0.1879
44422W        W45286   2.676  21.190  21.774 -0.0796 -0.0226  0.0772
44423W        W45287  14.700  18.697  19.555 -0.1096  0.0306  0.0608
44424W        W45288  19.213  28.874  25.788 -0.1516  0.0066  0.0459
44425W        W45289  18.881   9.962   0.853 -0.1822  0.1582  0.0790
44426W        W45290  10.137  28.452   6.874  0.2117 -0.1666 -0.2060
44427W        W45291   0.754  23.484  20.143  0.0382 -0.0757  0.1973
44428W        W45292   0.787   1.485  11.543 -0.0479  0.4273 -0.2132
44429W        W45293   3.079   5.628  22.566 -0.1651 -0.0684  0.3197
44430W        W45294  19.085   5.595  15.055 -0.1004  0.2291 -0.0613
44431W        W45295  11.913  12.235   1.159  0.0549  0.0939 -0.1626
44432W        W45296  19.624  12.976  22.097 -0.2586  0.3056 -0.0348
44433W        W45297  26.979  21.088   5.775 -0.0069  0.0407  0.0781
44434W        W45298  27.118  25.653   9.251 -0.0718  0.0869 -0.0648
44435W        W45299  18.841   2.127  21.931 -0.3278  0.0558  0.0891
44436W        W45300  26.057  17.638   8.606  0.4648 -0.0395  0.1158
44437W        W45301  13.091  23.259  16.373 -0.2595  0.1195 -0.3133
44438W        W45302  22.392  28.884  24.812  0.0180  0.1301  0.1659
44439W        W45303  25.654  10.021  11.643 -0.1881  0.3511  0.2155
44440W        W45304   9.676   7.053  19.341  0.0438 -0.1272 -0.2121
44441W        W45305  27.602   8.980  13.722  0.2661 -0.1802 -0.3234
44442W        W45306   3.883  15.989   4.390 -0.2885  0.0301 -0.1144
44443W        W45307   7.508  13.169   0.057  0.0243  0.0182  0.0754
44444W        W45308  26.531  22.387   6.057 -0.0169  0.2752  0.1190
44445W        W45309  25.673  26.782  12.317  0.1408  0.2205 -0.0088
44446W        W45310   2.026  20.060   7.424 -0.0978  0.2458  0.1822
44447W        W45311   9.584   6.139   3.906 -0.2363  0.0082 -0.0218
44448W        W45312  13.890  21.393   7.209  0.0767  0.0171 -0.1929
44449W        W45313   0.869  14.826  20.637  0.0146  0.1829 -0.2115
44450W        W45314  13.897  27.682   1.530 -0.1209 -0.1685  0.0970
44451W        W45315   9.381   8.592  20.573  0.1388  0.1013  0.1550
44452W        W45316   7.495  22.499  25.138  0.0026 -0.0034 -0.2826
44453W        W45317  26.693  12.478  10.039 -0.1258 -0.0222 -0.0666
44454W        W45318  15.121   6.553  17.900  0.2718 -0.1757  0.0346
44455W        W45319  10.273  25.035  27.651  0.0863  0.2304 -0.0478
44456W        W45320  19.798   0.702   9.746 -0.0693 -0.4113  0.0556
44457W        W45321  28.533  18.012   2.822  0.1136 -0.1522 -0.2286
44458W        W45322  20.899   6.444   2.295  0.0829  0.1073  0.0391
44459W        W45323  10.493   4.846   2.874  0.2766  0.0962  0.0894
44460W        W45324  18.643   4.875   3.767  0.0229 -0.0474 -0.0533
44461W        W45325  22.941  12.631  18.999 -0.2326  0.1827 -0.1315
44462W        W45326  19.535  21.379  10.348 -0.1425  0.0732 -0.0986
44463W        W45327  12.118  11.035   2.797 -0.0189  0.0923  0.0516
44464W        W45328  12.491   8.766  21.057  0.1764 -0.1213  0.2114
44465W        W45329  28.022   8.226   7.921 -0.0005  0.3119  0.1246
44466W        W45330  13.649  14.718  24.259  0.0194 -0.1389  0.2774
44467W        W45331   6.411  26.806   7.285  0.0901  0.2199  0.2970
44468W        W45332   5.257   5.052  24.451 -0.1082  0.1023  0.0675
44469W        W45333  16.674  22.368  25.896  0.2482 -0.1130  0.1713
44470W        W45334  16.751  24.485  22.986  0.0615 -0.0140 -0.1721
44471W        W45335   0.943  12.348  17.833  0.0376 -0.0159  0.4087
44472W        W45336  28.328   5.867   0.315 -0.0491  0.0611  0.1294
44473W        W45337  11.281  21.062  26.627  0.2382 -0.2271  0.3127
44474W        W45338   0.558  12.132  20.885  0.1640  0.3282  0.0185
44475W        W45339   7.311  28.460   9.520 -0.1368  0.0493  0.0713
44476W        W45340  22.558   5.256  22.028 -0.1197  0.2386 -0.1344
44477W        W45341  10.954  27.359  25.493 -0.2021  0.1289 -0.0021
44478W        W45342   4.074  23.974  26.512 -0.0080  0.0072  0.1019
44479W        W45343   2.362   5.238  28.210  0.2696  0.0596 -0.1245
44480W        W45344  14.511   4.083  23.123 -0.0445  0.1468  0.1113
44481W        W45345   6.423  24.739   3.974  0.1084  0.1367  0.0184
44482W        W45346  14.027   4.616   8.782  0.1595  0.0290  0.1463
44483W        W45347  25.271  13.115   4.336  0.0169 -0.0123 -0.0898
44484W        W45348  28.216  27.840   0.809 -0.0817  0.1232 -0.0723
44485W        W45349   8.917   9.431  10.814  0.0069  0.2482 -0.1622
44486W        W45350   4.317  12.616  26.266 -0.3373 -0.0841  0.1066
44487W        W45351  26.263  14.364  19.386  0.0980  0.0441  0.0193
44488W        W45352  18.458  27.067  14.181 -0.1613  0.0839 -0.0807
44489W        W45353  13.558  27.085   2.853  0.0431  0.0628  0.2790
44490W        W45354  13.240   5.379   3.649  0.1227  0.0782  0.0148
44491W        W45355  21.964  10.928   2.297  0.2201  0.2790 -0.1269
44492W        W45356  20.932  20.052   4.638 -0.0977 -0.0844  0.0020
44493W        W45357  20.829  21.696  26.364  0.2391  0.4029  0.0228
44494W        W45358   8.642  22.365   8.284 -0.1611 -0.3170 -0.1466
44495W        W45359  22.582  17.628  12.035 -0.1485 -0.2015 -0.0134
44496W        W45360  12.135  19.963   6.467 -0.1408 -0.0990  0.0153
44497W        W45361  25.720   6.188  25.761 -0.2207  0.3889  0.1741
44498W        W45362  24.785  11.722  14.099  0.1252 -0.1301 -0.1984
44499W        W45363   1.045   1.046   5.971  0.0627 -0.2667 -0.0505
44500W        W45364   8.563  15.456  25.373  0.0938 -0.0318 -0.1044
44501W        W45365  27.523  16.429  17.712  0.0829  0.1945 -0.3189
44502W        W45366  26.450  16.749  25.104  0.1922 -0.0537  0.0430
44503W        W45367  21.144   6.432   6.010  0.2444 -0.1595 -0.1272
44504W        W45368   0.032  14.316  14.279 -0.0252 -0.0862 -0.0053
44505W        W45369  15.521  29.116  15.317  0.2090 -0.2589  0.1555
44506W        W45370  11.341  25.640   5.163 -0.0325 -0.1217  0.1078
44507W        W45371  11.811   1.413  10.931 -0.2102 -0.1798  0.0360
44508W        W45372   8.008   3.495  13.748  0.0671  0.6051 -0.0598
44509W        W45373   1.424  12.574  18.972 -0.2499  0.0679  0.2598
44510W        W45374  19.232   3.960   0.114  0.0939  0.1800 -0.0428
44511W        W45375  15.446   1.207   6.100  0.0453 -0.2845  0.2248
44512W        W45376   1.421  22.263   4.980  0.0485 -0.2764  0.4242
44513W        W45377  13.120   7.287   3.715  0.3128 -0.2082 -0.1572
44514W        W45378  21.080  22.466   9.094 -0.0159  0.3280 -0.1839
44515W        W45379  24.286  11.552   1.782  0.1244 -0.0816  0.1774
44516W        W45380   3.967  27.893   6.209  0.0570  0.0103 -0.1951
44517W        W45381  26.152  21.238  17.556  0.0739 -0.0959 -0.2317
44518W        W45382   5.818  24.233  20.710 -0.2350  0.1740  0.2572
44519W        W45383  16.149  28.381  10.038 -0.0465  0.2372  0.2210
44520W        W45384  20.367  25.953  21.392  0.0273 -0.0417  0.0253
44521W        W45385  19.638   8.874   9.948  0.2127 -0.1363 -0.0064
44522W        W45386   3.920  28.535  22.399  0.1063  0.0972  0.3988
44523W        W45387   9.606   4.773  28.340  0.2711 -0.1445  0.0094
44524W        W45388   1.462  18.723  25.695 -0.2510  0.1859 -0.1946
44525W        W45389  22.571   2.029  17.330  0.2960 -0.0412  0.0200
44526W        W45390   7.064  21.534   9.001  0.0544  0.1662 -0.3976
44527W        W45391   8.445  10.322   2.200 -0.0133  0.0155 -0.0090
44528W        W45392  25.489  22.680   8.573 -0.5183  0.0379  0.1387
44529W        W45393  18.892  15.395   1.364  0.0762 -0.0423  0.1736
44530W        W45394  26.078  14.792  28.613 -0.3181  0.3074 -0.3136
44531W        W45395  10.553   3.951   1.989 -0.2757 -0.0410 -0.2032
44532W        W45396  12.876  16.291  20.880  0.0102 -0.0889  0.1192
44533W        W45397  23.671   0.703   9.357  0.2556 -0.1293 -0.0593
44534W        W45398  14.059  16.504  26.615 -0.2397 -0.2100  0.1902
44535W        W45399  23.634  18.893  23.488 -0.2163  0.0512 -0.0389
44536W        W45400  23.753   9.374  29.054  0.2744 -0.1523 -0.1188
44537W        W45401  22.491   8.642   0.367 -0.0441 -0.0252  0.2881
44538W        W45402  22.066   5.664  23.363 -0.2307 -0.2034 -0.1743
44539W        W45403  12.902  14.508  26.792  0.3299  0.0575 -0.1378
44540W        W45404  10.670  28.005   9.987  0.2550  0.1365 -0.0972
44541W        W45405   6.259   4.297   6.796 -0.1419  0.1693  0.1479
44542W        W45406  17.870   8.150   5.446  0.2352 -0.0552 -0.0258
44543W        W45407   9.410  15.933   3.523 -0.0365 -0.0296  0.0702
44544W        W45408  12.936  19.392  23.096  0.1868  0.0658 -0.1443
44545W        W45409   3.985  13.085  14.814  0.0292  0.1577 -0.4047
44546W        W45410  13.164  24.933  27.084  0.1062 -0.3172  0.1073
44547W        W45411  24.229  17.683  19.194  0.0498  0.1163  0.1549
44548W        W45412  27.104   6.566   2.190 -0.1248  0.1859  0.0562
44549W        W45413  16.041  15.149   3.615  0.3620 -0.0115  0.0669
44550W        W45414  18.244  26.293  11.195 -0.2484  0.0859  0.0281
44551W        W45415  19.028   0.074   2.400 -0.3969 -0.0176 -0.0787
44552W        W45416  11.822  12.668  14.439 -0.0777 -0.0110  0.0507
44553W        W45417  17.240  25.706   9.402 -0.2057  0.0475 -0.2133
44554W        W45418  13.650  11.497   4.055  0.0790 -0.3142  0.0749
44555W        W45419  24.297   4.329   6.475  0.1063 -0.1617 -0.2467
44556W        W45420   1.596   9.013  27.959  0.0989  0.1661 -0.2825
44557W        W45421  23.616   5.062  27.411 -0.2100  0.0397  0.3214
44558W        W45422   8.454  22.864   4.054 -0.1435  0.3593 -0.2478
44559W        W45423  26.773  23.363   9.185 -0.2416 -0.2693  0.0290
44560W        W45424  19.057   2.130  22.989 -0.2118 -0.0618  0.0306
44561W        W45425  15.990  21.253  11.699 -0.1323 -0.0523  0.2520
44562W        W45426  27.988  23.641  11.417  0.1634 -0.0217  0.1075
44563W        W45427  28.376  12.783  11.619 -0.2640  0.0649 -0.0350
44564W        W45428  24.836  15.837  20.564 -0.3244 -0.0882 -0.0294
44565W        W45429   8.456  20.026   0.017 -0.1243  0.1544 -0.1416
44566W        W45430   4.220  21.713  13.182  0.0277 -0.2065 -0.1588
44567W        W45431  25.538  14.044  15.500  0.2061  0.1193 -0.0761
44568W        W45432  15.610  24.204   7.463  0.0071  0.2037  0.2606
44569W        W45433   8.244  20.298  11.559 -0.0689  0.1196 -0.0329
44570W        W45434  21.141  26.136   9.560 -0.1632 -0.2162  0.0194
44571W        W45435  20.616  15.609  22.684  0.0601 -0.2428 -0.1414
44572W        W45436  10.703  19.140   9.255  0.0613  0.1466 -0.3517
44573W        W45437  17.791  13.329  19.869  0.0003 -0.0487 -0.1648
44574W        W45438   5.020  27.943  27.995 -0.4558 -0.0505  0.0806
44575W        W45439   7.076  12.267  26.996 -0.0109 -0.0392 -0.1128
44576W        W45440   4.912  14.533  25.864  0.1620  0.0587  0.0255
44577W        W45441  15.845  21.639  26.941  0.3152 -0.1626  0.0469
44578W        W45442  24.877  17.394  26.327  0.1227 -0.0504  0.0357
44579W        W45443  14.220   6.595   6.736  0.0717 -0.0343 -0.2780
44580W        W45444  12.340   2.484  17.665  0.2801  0.1276 -0.1496
44581W        W45445  15.773   1.005  28.094  0.2627 -0.5272  0.3246
44582W        W45446   8.311  25.322   1.634 -0.4011 -0.0502  0.2512
44583W        W45447   1.676  21.803   7.321 -0.1019  0.2210  0.0165
44584W        W45448  13.789  14.137   2.256 -0.1986 -0.1814 -0.1778
44585W        W45449  24.981  18.878  24.428  0.0604 -0.1535 -0.0448
44586W        W45450  20.386   3.953  20.979 -0.0594 -0.0014 -0.0513
44587W        W45451  27.129  26.310  13.632 -0.0082 -0.1939  0.0140
44588W        W45452  26.638  13.503  15.751  0.0881  0.1727  0.0474
44589W        W45453  26.516  24.548  14.147  0.0526 -0.1185  0.0902
44590W        W45454  15.862  28.663  13.216 -0.0076  0.3055 -0.0685
44591W        W45455  25.844   0.973  22.672 -0.0359  0.1618 -0.0178
44592W        W45456  13.593  23.579   3.937 -0.1740  0.0908 -0.1810
44593W        W45457   3.142  19.308   4.372  0.1455 -0.2408 -0.4157
44594W        W45458   9.845   2.656   9.493 -0.2533  0.0752  0.0920
44595W        W45459  20.058  23.163  18.221  0.0498  0.1970 -0.1415
44596W        W45460  25.873  27.572  26.964  0.1304  0.1386 -0.2785
44597W        W45461   0.509   6.947  16.951  0.0171 -0.1121  0.0787
44598W        W45462  15.672  15.945  16.435 -0.0420  0.4322  0.0350
44599W        W45463   8.298  15.137   6.568 -0.1812  0.1369  0.0385
44600W        W45464   5.433  28.271   8.191 -0.0341 -0.0606 -0.1106
44601W        W45465   6.086  18.007  24.234  0.3028  0.1099 -0.1718
44602W        W45466   1.196  25.853  21.179  0.2450  0.2876  0.0679
44603W        W45467  21.641   6.126  16.819  0.2184  0.1728  0.1491
44604W        W45468  14.258   1.911  10.663  0.0266 -0.1664 -0.0163
44605W        W45469  12.156  23.356  10.346  0.1210  0.0198  0.0137
44606W        W45470  17.103  12.324   6.071  0.0442 -0.1816  0.1371
44607W        W45471  23.124  23.688  26.395  0.1022 -0.1215  0.0523
44608W        W45472  26.376  16.822   5.207 -0.2053  0.0428 -0.2021
44609W        W45473  18.235  24.110  12.422 -0.0066 -0.0148 -0.1469
44610W        W45474  19.546   0.575   1.923 -0.1710  0.0479  0.2487
44611W        W45475   5.249  28.049   2.370  0.2187 -0.0090  0.1664
44612W        W45476  14.131   8.674   2.340  0.2655  0.1237 -0.0368
44613W        W45477  20.169  23.907   8.258 -0.3118 -0.0571  0.2757
44614W        W45478  16.529  16.100   0.574 -0.1656 -0.1259  0.5412
44615W        W45479  17.384   4.641  12.290 -0.1634 -0.0253  0.0248
44616W        W45480  20.850  13.366  23.084  0.1507 -0.0630 -0.0274
44617W        W45481   9.164  13.838  21.187 -0.1286  0.1481 -0.1250
44618W        W45482  10.024  11.963  28.393  0.0053  0.2265  0.2996
44619W        W45483  24.411  19.773  16.702 -0.0178 -0.1628  0.1573
44620W        W45484  24.594  22.196  22.857  0.3326  0.2180 -0.0825
44621W        W45485   6.987   4.544  21.039  0.2450 -0.0621  0.2015
44622W        W45486   4.386  24.106   1.369 -0.1272 -0.0133 -0.1153
44623W        W45487  22.755   6.937  21.041  0.1997 -0.1172  0.2843
44624W        W45488  26.714   7.849   7.086  0.0666 -0.1039 -0.0301
44625W        W45489  12.202  26.938  25.345  0.1395 -0.2259 -0.0893
44626W        W45490  25.893   7.703   4.549 -0.1783 -0.1692  0.0736
44627W        W45491   4.629  18.233  23.234  0.1026  0.1896 -0.1024
44628W        W45492  14.594   2.087   8.463 -0.2173  0.2335 -0.2350
44629W        W45493   1.096  23.164   0.618  0.0579  0.0894  0.1437
44630W        W45494  13.307  29.093   0.363  0.0550 -0.0216  0.0046
44631W        W45495  15.920   8.487   0.675 -0.0206  0.0828  0.2326
44632W        W45496  28.851  25.072  25.933  0.2168 -0.0064 -0.1730
44633W        W45497   9.862   7.492   7.037 -0.1294  0.3079  0.0924
44634W        W45498  19.516  22.622   5.560  0.1213 -0.0244 -0.2246
44635W        W45499  23.456  20.797   3.502  0.1022  0.0133 -0.1349
44636W        W45500  15.142   8.463  12.584 -0.2349 -0.0919  0.1107
44637W        W45501  21.945  15.083   4.958 -0.2757  0.0481 -0.0040
44638W        W45502  16.241  22.795  26.199  0.0055 -0.2115  0.0515
44639W        W45503  24.780  13.103  10.102  0.1811  0.2340  0.3039
44640W        W45504   8.675   7.484   2.832  0.0861 -0.2213  0.2129
44641W        W45505  21.371   2.291  19.655 -0.1197  0.3109  0.0698
44642W        W45506  24.378  22.648  13.240  0.0543  0.1802  0.0123
44643W        W45507  24.160  26.090  13.018 -0.0240 -0.2241  0.0762
44644W        W45508  22.753   5.639  21.456  0.2821 -0.0151 -0.0755
44645W        W45509  21.330  10.476  17.155  0.0135  0.3315  0.0471
44646W        W45510   3.026  28.760   8.078  0.0974 -0.0661 -0.2232
44647W        W45511  18.902  26.777  27.448  0.3107  0.0416  0.1389
44648W        W45512  23.852  27.681  13.671  0.1672  0.1784  0.2734
44649W        W45513  27.085   4.655   5.530 -0.1578 -0.1830 -0.0426
44650W        W45514  16.142  15.123   9.137  0.1110 -0.0621  0.1392
44651W        W45515  16.103  20.791  13.657  0.1825  0.0047 -0.2845
44652W        W45516  23.330   5.195   3.984 -0.1664 -0.0549 -0.1946
44653W        W45517  24.697  15.603   5.247 -0.0278 -0.3057  0.0888
44654W        W45518  20.977   9.273  10.497 -0.1682  0.1550 -0.1258
44655W        W45519  17.004  18.110   3.534 -0.4906 -0.2442 -0.1206
44656W        W45520   2.850  17.110  13.307 -0.3239 -0.0013 -0.0500
44657W        W45521  23.016  18.190   6.431  0.0992 -0.4966 -0.2549
44658W        W45522   4.832  23.876  14.537  0.2122  0.1624 -0.1500
44659W        W45523  16.977  13.837  20.553  0.2404  0.1402  0.0025
44660W        W45524  11.740   2.936  26.046  0.1385  0.3472  0.3863
44661W        W45525  15.458  24.533  21.647 -0.1672 -0.0755  0.1297
44662W        W45526  27.897  25.615  17.333 -0.0009 -0.0123  0.1308
44663W        W45527  21.591   0.699  20.133  0.3794 -0.0638  0.0879
44664W        W45528  12.511  14.122   9.801 -0.0707  0.2679 -0.1763
44665W        W45529  23.453   9.003   0.273  0.3604 -0.0481  0.0099
44666W        W45530  20.060   6.626   3.948  0.0129 -0.0020  0.1491
44667W        W45531  10.230  22.418   9.900  0.0190  0.0332  0.0482
44668W        W45532   8.589  21.374  14.534 -0.2476  0.2697  0.0742
44669W        W45533  19.224  13.496   5.486 -0.0782 -0.1098  0.3174
44670W        W45534   2.101  17.963  25.686 -0.0200  0.1650  0.3476
44671W        W45535  21.695  14.278  24.896  0.1995  0.0362 -0.0478
44672W        W45536   0.530  11.858  12.910  0.0262 -0.2106  0.0351
44673W        W45537   4.603   9.891   0.760 -0.2035 -0.2541  0.0082
44674W        W45538  15.505  14.105  14.417  0.0497  0.0472 -0.1159
44675W        W45539  26.281   9.732  22.734 -0.0346 -0.0792  0.3161
44676W        W45540  20.647  18.919  26.975 -0.1597 -0.0210 -0.0808
44677W        W45541   1.049  23.946  18.958  0.0480  0.1194 -0.0852
44678W        W45542  18.457  24.939  16.582 -0.3010  0.1036 -0.0653
44679W        W45543  13.692  11.663   4.596 -0.1833  0.1924 -0.0681
44680W        W45544   9.147   4.813  20.786 -0.0337 -0.0557  0.2491
44681W        W45545   5.294   5.745   6.872 -0.1358 -0.0520  0.0398
44682W        W45546   3.615   1.777  19.891  0.1210 -0.2467 -0.2657
44683W        W45547  16.995  21.426  20.894  0.0904  0.0666 -0.1316
44684W        W45548  12.403   7.270  27.395 -0.0843  0.0071  0.1053
44685W        W45549  19.200  13.382   9.162 -0.0314  0.1363  0.0144
44686W        W45550   5.750  15.505   1.046  0.1301 -0.1987 -0.0922
44687W        W45551  19.033  13.194   6.994 -0.0827 -0.4435 -0.0546
44688W        W45552  27.205  10.224   6.728 -0.3368  0.2628 -0.3530
44689W        W45553  25.286  10.082  19.514  0.2734  0.0731 -0.0272
44690W        W45554  14.764  25.695  27.694  0.3143 -0.0246 -0.1172
44691W        W45555   5.338  19.272  11.424 -0.2323 -0.2230  0.0184
44692W        W45556   0.321  21.803  19.516  0.2449 -0.0274 -0.2013
44693W        W45557  27.580  22.207  24.642 -0.2804 -0.0913 -0.1893
44694W        W45558  19.238  24.396  16.462  0.0602  0.0079  0.2793
44695W        W45559  15.184  27.163  11.101 -0.1416  0.0446 -0.1479
44696W        W45560  27.688  27.162  13.242 -0.0260  0.1072 -0.0748
44697W        W45561  11.386  16.016   3.344 -0.1923  0.0244  0.0663
44698W        W45562  22.357  19.157  10.783 -0.1021  0.1002  0.2023
44699W        W45563  20.798  27.238  28.149 -0.0191  0.2661  0.0093
44700W        W45564  28.791  15.394   3.345 -0.2998  0.2151  0.1187
44701W        W45565  11.183  23.772  14.634 -0.2088  0.0150  0.0159
44702W        W45566  19.311   5.080   3.006  0.0925 -0.0867  0.1718
44703W        W45567  19.814  16.673  10.041  0.2476  0.1640 -0.1835
44704W        W45568  11.270  12.479   1.488 -0.2295  0.1618  0.0174
44705W        W45569   0.963   2.118   7.241 -0.0443 -0.1008 -0.0243
44706W        W45570   1.785  22.477  13.875 -0.0402  0.0425  0.3218
44707W        W45571  20.118  20.258  22.200  0.2095 -0.2022 -0.0417
44708W        W45572   6.505   7.470   4.474  0.3649  0.1206 -0.1428
44709W        W45573  15.558  28.573   0.559 -0.3756 -0.0216 -0.1132
44710W        W45574  20.219   6.874  14.621  0.3176  0.1302  0.1344
44711W        W45575  15.011  28.453  24.953  0.0751  0.1636 -0.2608
44712W        W45576   7.077   0.875  15.193 -0.0336 -0.0167 -0.0747
44713W        W45577  27.329  23.659  16.152 -0.1766  0.0844 -0.0522
44714W        W45578  16.105  13.770  13.890  0.0143 -0.1239  0.1720
44715W        W45579  27.238  11.852   4.672  0.1655  0.1863  0.0958
44716W        W45580  21.522  14.440   2.606 -0.1842  0.0300 -0.0794
44717W        W45581  21.239  10.030  10.322  0.0560  0.1472 -0.0567
44718W        W45582  13.476  18.915   4.193  0.0323 -0.1664 -0.0246
44719W        W45583  17.631   1.578  22.838  0.4594  0.0384 -0.0011
44720W        W45584  18.359   4.962  19.082 -0.4042 -0.0004 -0.2004
44721W        W45585  17.137  15.404  27.189 -0.0799  0.2208 -0.2738
44722W        W45586   0.224  22.955  22.145  0.1519  0.0654 -0.2263
44723W        W45587  27.609  18.579   1.947  0.1122  0.1279 -0.1427
44724W        W45588  27.055   8.499   3.583 -0.1809  0.1359  0.1038
44725W        W45589  15.070  15.926  28.111 -0.1396 -0.0038 -0.0041
44726W        W45590  27.699   5.411   7.740 -0.1413  0.0421 -0.1691
44727W        W45591  29.120  27.734  21.558  0.2145 -0.1225  0.2612
44728W        W45592  14.093  11.460  25.992 -0.1692 -0.0837  0.0436
44729W        W45593  16.450   7.261  17.979  0.0216 -0.2420 -0.0187
44730W        W45594  20.959  16.828  23.307 -0.1824 -0.3666 -0.2007
44731W        W45595  10.480   5.218  11.604 -0.3100  0.3207  0.0731
44732W        W45596  13.577  17.056   3.901 -0.1034 -0.1199 -0.1051
44733W        W45597  10.998  27.734   6.346 -0.0252  0.1633  0.0397
44734W        W45598  26.667  16.375  24.367  0.1670 -0.0647  0.0661
44735W        W45599  11.564   0.657   9.807  0.0987 -0.1985  0.3665
44736W        W45600  13.742  22.468   8.133 -0.5674  0.0652  0.2072
44737W        W45601  21.327  21.442  24.553 -0.2395  0.2017  0.1247
44738W        W45602  11.998  15.586  27.439 -0.2105 -0.0047 -0.1990
44739W        W45603   7.469  22.798   2.328  0.0534  0.2706  0.1663
44740W        W45604  13.429   5.850  25.566 -0.0190  0.3156  0.1015
44741W        W45605  21.482  16.237  13.386  0.1926 -0.2172  0.1164
44742W        W45606   6.416  17.426  27.752 -0.3837 -0.1411 -0.1784
44743W        W45607   7.984  14.623  14.239  0.1007 -0.0684  0.2367
44744W        W45608  19.077  15.029  10.938 -0.1304  0.0431 -0.1618
44745W        W45609   6.104   3.635  17.867 -0.0019  0.1055  0.4151
44746W        W45610  17.775   3.942  14.700 -0.0814  0.1838  0.1815
44747W        W45611  19.517   9.555  26.173 -0.1390  0.1185  0.0682
44748W        W45612   2.974   0.784  23.685 -0.3431  0.0309  0.1497
44749W        W45613  17.681  25.325   6.408 -0.1993 -0.1443  0.0917
44750W        W45614  27.125  15.668  27.908  0.0815 -0.1205  0.0851
44751W        W45615   8.250  17.959  14.989 -0.0972 -0.0329 -0.0646
44752W        W45616  24.002  25.105  20.853 -0.0461 -0.4226 -0.2091
44753W        W45617  25.192  13.398   5.487  0.0230  0.1561  0.3992
44754W        W45618   4.511  11.694  10.416 -0.0776  0.0284  0.0466
44755W        W45619  24.543  27.327  13.004  0.1449  0.3206  0.0671
44756W        W45620  23.648   9.223   6.640  0.1262 -0.0077  0.0793
44757W        W45621  18.072   3.885  22.603 -0.0629 -0.1559  0.1962
44758W        W45622   5.391  14.643   9.977 -0.0348  0.0593 -0.0220
44759W        W45623  13.743  19.626   2.481 -0.0292 -0.0414 -0.0653
44760W        W45624  18.442  21.038   4.778 -0.5985  0.0360 -0.1525
44761W        W45625  13.707   1.713   6.045 -0.2548  0.2366 -0.1378
44762W        W45626   0.472  24.739  23.530 -0.2846 -0.2136 -0.0817
44763W        W45627  18.967  23.018   8.418  0.0042 -0.0907 -0.0750
44764W        W45628   2.609  21.990  28.077 -0.1193  0.1677 -0.0190
44765W        W45629   0.738   8.742  27.871  0.0047 -0.0207  0.0779
44766W        W45630  26.842   8.220   5.574  0.1869  0.1887  0.1727
44767W        W45631  24.391  24.044  26.284  0.2259 -0.0336 -0.0337
44768W        W45632  18.951  11.968  16.367 -0.1483 -0.1023  0.1040
44769W        W45633   5.566   9.961  17.304  0.1364  0.1011  0.0220
44770W        W45634  10.396  23.410  22.404  0.0556  0.0252 -0.1785
44771W        W45635  23.357   3.891  24.654 -0.0899 -0.1129  0.0609
44772W        W45636   8.106  15.467  13.887  0.0266  0.1386 -0.0191
44773W        W45637   3.625   1.938   2.411  0.4670 -0.2087  0.1551
44774W        W45638   7.374   9.179  13.841  0.0866 -0.0808 -0.1356
44775W        W45639  12.951  16.176   3.134  0.0960 -0.1847 -0.3148
44776W        W45640  10.144   7.135  16.997  0.2863  0.1212 -0.0962
44777W        W45641  20.421   6.630  10.154  0.2207 -0.2399  0.2484
44778W        W45642  22.824   7.645   9.586  0.1198 -0.1845 -0.1303
44779W        W45643  25.336  18.026   3.031  0.1881 -0.2411  0.0520
44780W        W45644  20.287  22.546  28.071 -0.2469 -0.0338  0.0163
44781W        W45645  12.165  20.036  22.906  0.1053 -0.1473 -0.1638
44782W        W45646  18.613  16.258   8.822 -0.1507  0.0191  0.1204
44783W        W45647  20.435   5.743   2.640 -0.1376  0.2662 -0.2953
44784W        W45648  12.343  25.725  20.758 -0.1783  0.0568 -0.0137
44785W        W45649   5.650  26.570  19.210  0.0828  0.0878 -0.0829
44786W        W45650   6.832  21.605   6.990 -0.0841  0.0743  0.0993
44787W        W45651   9.020  26.074  10.338 -0.0081 -0.0870  0.0612
44788W        W45652   6.803   8.577  15.970 -0.3164 -0.0020 -0.1968
44789W        W45653  14.014  21.811  24.434 -0.2471  0.2850 -0.0949
44790W        W45654  16.362  20.016   0.823 -0.1394  0.4090  0.0749
44791W        W45655   3.358  20.874  20.669  0.0146  0.0947 -0.0634
44792W        W45656  18.684   6.672  27.093 -0.0214 -0.3837  0.1119
44793W        W45657  28.056  20.082  12.501  0.0234 -0.0472 -0.0044
44794W        W45658   2.751  12.373   3.141 -0.0738  0.0653 -0.2250
44795W        W45659  29.135  12.157   0.637 -0.1541  0.4287  0.1654
44796W        W45660  14.897   2.849  21.745  0.2157  0.0505  0.0041
44797W        W45661  16.692  18.859   3.897  0.2780 -0.2559  0.2164
44798W        W45662  13.110  16.634  25.645 -0.0791  0.0444  0.0639
44799W        W45663  19.365  28.257  27.424 -0.0508 -0.1190  0.1688
44800W        W45664  21.080  20.543  21.663 -0.4978  0.3027 -0.1024
44801W        W45665  18.523  20.264  22.873 -0.2220 -0.1113  0.1281
44802W        W45666  10.110  20.463   3.751 -0.2577 -0.0244 -0.1036
44803W        W45667   0.901  10.541  24.526 -0.0917  0.0464  0.0744
44804W        W45668  21.713   3.769  20.271  0.2041  0.0334  0.0175
44805W        W45669  23.171   4.288  27.109  0.2812  0.0175  0.1352
44806W        W45670  12.718  19.159  27.186  0.0408 -0.0562 -0.0087
44807W        W45671  27.035   8.643  20.766 -0.1716  0.1707 -0.0989
44808W        W45672  18.046  12.798  12.892  0.2059 -0.2566 -0.0528
44809W        W45673  17.931  12.017   2.221  0.1397 -0.2840 -0.1452
44810W        W45674   1.923   0.151   8.801 -0.1831 -0.1020 -0.1621
44811W        W45675  11.991  19.716  22.059 -0.0544  0.0913 -0.0810
44812W        W45676  15.171  17.789   9.884 -0.3445 -0.2024 -0.1340
44813W        W45677   2.976   8.900  11.067  0.0070 -0.0570 -0.2101
44814W        W45678  19.298   2.748  12.731  0.1047  0.0357 -0.0768
44815W        W45679  16.628  13.020   0.910  0.3005 -0.1876  0.2301
44816W        W45680  13.897  27.356  10.778 -0.0156  0.0586  0.1335
44817W        W45681  20.226  21.570  26.210 -0.2599  0.2965  0.0311
44818W        W45682  13.074  19.940   3.893  0.0265 -0.1684 -0.1130
44819W        W45683  11.855  26.345  27.410  0.0690  0.1854 -0.0525
44820W        W45684   5.765  21.094   2.241  0.2419  0.0942 -0.1484
44821W        W45685  18.513   5.548  13.096  0.1989  0.0524 -0.1805
44822W        W45686  22.440   4.548  19.468 -0.2476 -0.1375 -0.1438
44823W        W45687  15.338  21.463   3.151 -0.1980  0.0201 -0.1510
44824W        W45688   6.908  11.471  26.608 -0.1757 -0.2057 -0.1585
44825W        W45689  22.679   4.582  23.697  0.0639 -0.1310 -0.1122
44826W        W45690  11.431  24.612  19.611 -0.0774  0.0686 -0.0134
44827W        W45691  26.363   2.452  27.344  0.0617  0.1924 -0.1241
44828W        W45692  26.133   5.513  20.001 -0.1894  0.0822 -0.1066
44829W        W45693  26.627  24.960  13.376  0.0010 -0.0028  0.0652
44830W        W45694  29.032  27.030  13.325  0.1090 -0.2579  0.0079
44831W        W45695  18.521   0.407   2.279 -0.1895  0.0280 -0.1020
44832W        W45696  22.755  11.694  17.477  0.1413  0.0227 -0.1496
44833W        W45697  10.419   4.452  28.607 -0.2034  0.1244  0.1482
44834W        W45698  20.141  28.519  13.231 -0.1726  0.0304  0.0424
44835W        W45699  20.792  10.046  22.675 -0.0477  0.2145  0.2244
44836W        W45700  14.871  14.202  25.965 -0.0348  0.0078  0.4362
44837W        W45701  10.323  12.402  27.721  0.1930  0.0758  0.3114
44838W        W45702  23.692  21.426   2.546  0.0477  0.3860  0.0844
44839W        W45703  21.683   0.754  20.785 -0.0943  0.2520 -0.4798
44840W        W45704  14.150  12.620  19.254  0.2780  0.0210  0.0510
44841W        W45705  15.366  17.813  21.978 -0.0014 -0.0840  0.0150
44842W        W45706  14.638   0.774  17.801  0.2849  0.3610  0.2014
44843W        W45707  24.801   2.273  27.644  0.0743 -0.0249  0.0384
44844W        W45708   4.071  29.015  13.019 -0.0897 -0.0309  0.0607
44845W        W45709  14.190  18.561   5.947  0.0385 -0.0034 -0.1146
44846W        W45710  21.317  19.122  19.886  0.0207  0.0856  0.1928
44847W        W45711  17.925  18.802   3.570 -0.0255 -0.1042 -0.2337
44848W        W45712  27.250   6.196  25.087 -0.1747 -0.0411  0.0610
44849W        W45713  15.523  10.105  18.470 -0.2310 -0.0966 -0.0758
44850W        W45714  18.144  27.520   4.344 -0.0333 -0.0746  0.1001
44851W        W45715  17.207  22.838   6.934 -0.1927  0.2356 -0.1750
44852W        W45716  15.010  13.811   3.936  0.2329  0.0186 -0.1416
44853W        W45717  19.340  17.656  25.670 -0.3689  0.0694 -0.1694
44854W        W45718  24.199   8.447  18.200  0.2298 -0.0987 -0.1444
44855W        W45719  21.207   4.556  25.493  0.3235 -0.2173 -0.0874
44856W        W45720  26.879  20.667  18.818 -0.0778  0.0471 -0.0435
44857W        W45721   4.810  10.469   8.811 -0.1154  0.2071  0.0151
44858W        W45722   8.206  11.254   8.698  0.2289 -0.1354  0.1477
44859W        W45723  15.310   5.110   8.355  0.0454 -0.2485  0.3434
44860W        W45724  14.278  26.596   1.005 -0.0220  0.0888 -0.1459
44861W        W45725  17.704   2.150  13.511  0.2496  0.3604  0.2349
44862W        W45726  20.166  23.716   6.957 -0.1844  0.2126 -0.2488
44863W        W45727  20.052  28.102   4.159  0.1824  0.1371  0.1786
44864W        W45728  25.090   9.352  22.232 -0.1453 -0.1199  0.1147
44865W        W45729   4.000  20.435  21.911  0.1881 -0.1343 -0.0766
44866W        W45730   5.902  20.874   6.869 -0.0422 -0.0401 -0.1233
44867W        W45731  28.007  21.891  24.654  0.1487 -0.2127 -0.1307
44868W        W45732   8.828  24.210   1.652 -0.1352  0.2261 -0.0321
44869W        W45733   4.942   8.706  19.431 -0.0582 -0.3341  0.1459
44870W        W45734  15.970  12.086   8.575 -0.2592 -0.1645 -0.0686
44871W        W45735   8.440   9.123  19.451 -0.0399 -0.2214 -0.0061
44872W        W45736   4.777  23.437  16.755  0.3115  0.1511 -0.1514
44873W        W45737  23.685  18.516   5.320 -0.4212  0.4168  0.0635
44874W        W45738  13.857   3.746   3.483  0.0910 -0.2675 -0.2078
44875W        W45739  10.338  11.387  11.743 -0.0286  0.2395  0.1283
44876W        W45740  29.093  27.014   6.983 -0.2984  0.2307 -0.1785
44877W        W45741   1.707  17.869   6.400  0.1306 -0.3161 -0.0041
44878W        W45742  17.419  12.527  13.239 -0.2253  0.2577  0.0460
44879W        W45743   7.512  10.138  16.023 -0.0462 -0.3167  0.0313
44880W        W45744  15.637  24.888   6.223  0.2061  0.4091  0.0344
44881W        W45745  13.222   3.890   7.943  0.1760  0.2424  0.0270
44882W        W45746   6.381  25.142  12.893 -0.1663 -0.2299  0.2490
44883W        W45747  28.440  10.785  25.903  0.0379 -0.3330 -0.2411
44884W        W45748  11.765  23.031  27.475 -0.0551  0.0288  0.1522
44885W        W45749   8.947  18.528  15.387  0.2230  0.0630  0.2396
44886W        W45750  20.098   3.272  26.881 -0.0149 -0.0485  0.1588
44887W        W45751  23.937  22.348   4.483 -0.2202 -0.0106  0.1559
44888W        W45752  18.577   3.448  27.045  0.3297 -0.1563 -0.2067
44889W        W45753  22.822  13.678  10.221 -0.0024  0.0528 -0.0071
44890W        W45754   9.473  18.928  22.094 -0.0220 -0.0116  0.0039
44891W        W45755  17.740   4.864   6.874  0.0919 -0.0893  0.0468
44892W        W45756  15.900  20.535  10.525 -0.0861  0.0740  0.2739
44893W        W45757  27.324  17.477   0.636  0.1086 -0.1783 -0.1455
44894W        W45758  14.471  28.841  21.407 -0.0501 -0.1182  0.0045
44895W        W45759  13.507  19.667  15.652  0.0459  0.2885 -0.1267
44896W        W45760  15.578  22.093  11.550 -0.0840  0.0015  0.0251
44897W        W45761   0.344  22.638  17.326  0.1750 -0.0100 -0.0042
44898W        W45762  13.160  18.641   9.185  0.0286 -0.0039 -0.2119
44899W        W45763  15.452  18.985   0.785 -0.0460  0.0837 -0.1646
44900W        W45764  24.142  14.983  26.437 -0.3444  0.0397 -0.0165
44901W        W45765   7.181  26.598  20.180  0.2805 -0.0193 -0.1403
44902W        W45766  22.082   6.905  26.018  0.1204  0.2197 -0.0766
44903W        W45767  24.901   2.087   0.434  0.1704 -0.0504 -0.0433
44904W        W45768  14.328   4.986  27.443 -0.0212 -0.2115 -0.0350
44905W        W45769  24.243  27.569  15.041  0.3218 -0.1271 -0.0970
44906W        W45770   2.643   7.381   0.244  0.0872  0.0953  0.1076
44907W        W45771  20.933  16.138  15.059 -0.1942  0.1041  0.0831
44908W        W45772   6.584  16.487   6.396  0.1495 -0.2697  0.1467
44909W        W45773  14.664  22.569  28.010 -0.1108 -0.1702 -0.5241
44910W        W45774  16.171  14.836  13.335  0.0182 -0.0418  0.2741
44911W        W45775  22.525  10.194  17.787  0.1809  0.0873  0.1271
44912W        W45776  27.860   7.462  19.107 -0.0108 -0.0066 -0.0589
44913W        W45777  14.989   2.179  10.706  0.2185  0.1772  0.3023
44914W        W45778   3.980   1.357   7.799 -0.2366  0.1962  0.1490
44915W        W45779  17.865  26.135  23.092  0.1085  0.1148 -0.0788
44916W        W45780  11.863   1.505  20.943 -0.3886 -0.0178  0.1729
44917W        W45781   4.515  22.241   8.232 -0.2575  0.3012 -0.1759
44918W        W45782   3.804  13.175   5.236  0.5449  0.0773  0.2981
44919W        W45783   2.414  10.892   6.328 -0.2933 -0.3401  0.1382
44920W        W45784  16.334  23.914  15.465 -0.1995  0.1427 -0.1292
44921W        W45785   4.288  25.077  26.472  0.0289  0.1285 -0.1183
44922W        W45786   9.822  15.087  18.262  0.1837  0.1370  0.1986
44923W        W45787  23.267  11.944  12.904  0.0180 -0.0810 -0.0715
44924W        W45788  10.839  19.467  14.954  0.0940 -0.1618 -0.1896
44925W        W45789  10.793   1.749   4.122  0.0132 -0.2253 -0.1027
44926W        W45790  25.857  17.717   8.143 -0.0392  0.1341 -0.0309
44927W        W45791   6.201   4.612   9.419 -0.3734  0.0793 -0.1675
44928W        W45792  12.609  19.581   4.842  0.1877 -0.0301 -0.1375
44929W        W45793  10.190  13.549   0.116  0.3283  0.2356 -0.1458
44930W        W45794  24.445  14.263   6.121 -0.0164  0.3764  0.0058
44931W        W45795  25.409  13.192   9.239 -0.2794 -0.0492  0.0346
44932W        W45796  17.954   5.280  15.936  0.1320 -0.0605 -0.4353
44933W        W45797  16.067  23.715  27.305  0.0676  0.0409 -0.1778
44934W        W45798  23.702  28.864   6.355  0.0394 -0.0399  0.0616
44935W        W45799  10.109   0.821   6.913  0.1748 -0.2191 -0.1068
44936W        W45800  14.185  25.025  28.411 -0.0647 -0.0626  0.0843
44937W        W45801   7.293  16.111  28.783 -0.1511  0.4375 -0.2867
44938W        W45802   6.682   8.843  17.930 -0.1222  0.0615 -0.0186
44939W        W45803  23.473  20.227   6.108 -0.2612 -0.1539  0.1726
44940W        W45804  27.648   7.270   1.939 -0.1934 -0.1820  0.1392
44941W        W45805  29.009  10.571  10.601  0.2793 -0.0854 -0.1375
44942W        W45806  25.788   4.899  13.780  0.2644 -0.3249  0.0583
44943W        W45807  24.503  14.450   5.046  0.1323  0.0303  0.3292
44944W        W45808  13.095  29.004   5.663  0.1486  0.2511  0.2161
44945W        W45809  15.658  21.573  11.476 -0.1652 -0.0759  0.2936
44946W        W45810   7.425   5.235  12.553 -0.0499  0.0585 -0.1423
44947W        W45811  22.061  19.318  10.431 -0.0488 -0.1269  0.1442
44948W        W45812   5.634   0.850  25.976  0.1069 -0.2424  0.2707
44949W        W45813  19.053  13.241   9.585 -0.0568 -0.2089  0.3877
44950W        W45814  22.294   4.783  10.155  0.0217  0.3291  0.2841
44951W        W45815  25.707   5.580   6.519  0.0852 -0.3155  0.0822
44952W        W45816  19.978  27.129  14.281  0.0393  0.1149 -0.0590
44953W        W45817  15.709  17.804  19.290  0.2775  0.0421 -0.0505
44954W        W45818  21.141  26.258   6.322 -0.2139  0.0679  0.0935
44955W        W45819  12.821  24.798   7.681 -0.1841 -0.0056  0.0804
44956W        W45820   2.194  14.323  14.548  0.0222  0.0292  0.0370
44957W        W45821  13.835  28.766  17.089 -0.1506 -0.0506 -0.0027
44958W        W45822  25.858  22.988  21.202  0.0732 -0.1596 -0.2965
44959W        W45823   5.714   2.498   1.791 -0.0009  0.2547 -0.2353
44960W        W45824  24.566  27.867   5.575  0.1885 -0.3537  0.5348
44961W        W45825  24.705  18.722  11.018  0.3212  0.0922  0.1026
44962W        W45826   4.225  16.758   5.899  0.3114  0.2188  0.1783
44963W        W45827  26.072   4.992   9.975 -0.0339 -0.2300  0.1464
44964W        W45828   3.333  20.692   0.306 -0.1099  0.0967  0.0442
44965W        W45829  21.389  15.396  13.822  0.1624  0.1037 -0.1441
44966W        W45830  23.459   3.426  24.138 -0.0404 -0.1172  0.0613
44967W        W45831  27.326  21.298   8.841  0.0451  0.1641  0.1774
44968W        W45832   8.758  17.471  15.211  0.0801 -0.0148  0.2148
44969W        W45833  25.190  22.416   7.683  0.1269 -0.2676 -0.0701
44970W        W45834  26.719  27.518   1.704 -0.2119  0.0021  0.0882
44971W        W45835  10.493  28.119  23.420 -0.0999  0.3442  0.2244
44972W        W45836   5.613  14.224  27.140  0.1411  0.0373  0.0516
44973W        W45837  26.775  19.925   0.149  0.2122 -0.1132 -0.1054
44974W        W45838   6.320  14.713   9.352 -0.0683  0.1012  0.0888
44975W        W45839   1.378   6.705   5.207 -0.1626 -0.0429  0.0827
44976W        W45840  17.477  28.329  25.798  0.1622 -0.0334  0.0090
44977W        W45841  16.242   2.539   7.822 -0.1897 -0.0112 -0.1088
44978W        W45842  15.217  15.519  19.620  0.2893  0.4854 -0.2409
44979W        W45843   5.706  21.825   1.042 -0.0105  0.1335  0.1777
44980W        W45844  14.723   9.580   5.162  0.0083 -0.1460 -0.2269
44981W        W45845  21.709   4.717  17.468  0.1141 -0.3369  0.0396
44982W        W45846  10.586   6.723  22.417  0.0491  0.3472  0.1393
44983W        W45847  26.380  27.378  26.173  0.1630  0.1216 -0.0571
44984W        W45848  11.257  17.126  29.095  0.2402  0.4764  0.0628
44985W        W45849  15.446  16.492  28.432 -0.0137 -0.0282  0.0098
44986W        W45850  19.885   8.283  26.086 -0.0596 -0.2284 -0.3836
44987W        W45851  13.126  21.652   2.216  0.0291  0.1045  0.4058
44988W        W45852  27.672  11.005  13.516  0.0709  0.5207  0.1642
44989W        W45853  17.402  14.585   1.754 -0.0313 -0.0453  0.2042
44990W        W45854   3.931  16.202  27.684 -0.1548  0.0598 -0.0067
44991W        W45855  14.679   8.209  24.935 -0.1123  0.0503  0.1221
44992W        W45856  17.437  20.634   8.616 -0.0410 -0.4119  0.1734
44993W        W45857   2.587   5.813   2.950  0.4509 -0.0585  0.0399
44994W        W45858   0.915  11.125   0.526 -0.0252  0.1505  0.0713
44995W        W45859  22.786   5.953   7.602  0.2146 -0.0749  0.1362
44996W        W45860  15.915   0.216  13.857 -0.0788 -0.2287 -0.3402
44997W        W45861  20.619  17.180  22.193  0.0492 -0.2138  0.2948
44998W        W45862  15.254   8.568   1.421  0.1624 -0.0689 -0.1725
44999W        W45863  21.230   8.592   0.550  0.0102 -0.4377 -0.0968
45000W        W45864  16.993  27.145  21.183 -0.0738 -0.2602 -0.1935
45001W        W45865  11.625   1.120  11.324  0.1230  0.0581  0.0672
45002W        W45866  23.229  16.225  26.523  0.0957 -0.5244 -0.2741
45003W        W45867   0.844  28.303   9.694  0.1276 -0.2226  0.0122
45004W        W45868   3.139  16.709  13.373 -0.1786  0.0316  0.0114
45005W        W45869  13.994  28.373  11.763  0.1916  0.1042 -0.2748
45006W        W45870  20.099  13.739  23.083 -0.1904  0.4282  0.1143
45007W        W45871  13.513  18.289   8.774  0.1046  0.1994 -0.0015
45008W        W45872   2.502  29.092  28.102 -0.1150 -0.3203  0.0275
45009W        W45873  14.668  23.093   7.625 -0.0154 -0.2227 -0.2459
45010W        W45874  19.430  20.421  17.025  0.3020  0.0599  0.0610
45011W        W45875  14.668  28.935  21.863 -0.0464  0.3378  0.1313
45012W        W45876  23.284  18.462  21.578  0.3182 -0.2231  0.1141
45013W        W45877  26.890   0.422  23.512  0.0902 -0.2012 -0.0272
45014W        W45878  23.163  17.774   4.120 -0.3601 -0.2191  0.0207
45015W        W45879   0.498   5.013   1.381 -0.1500  0.1187 -0.1493
45016W        W45880   0.125  20.834  28.772  0.1377 -0.0597 -0.0288
45017W        W45881  24.922   1.757   4.164 -0.0624 -0.1866 -0.0449
45018W        W45882  27.641  17.197   1.370 -0.1623 -0.0793 -0.0479
45019W        W45883  26.623  21.427  14.996  0.0429  0.2681 -0.1244
45020W        W45884  27.258  20.790  12.831 -0.2097  0.2934  0.0809
45021W        W45885  15.914  13.644  17.022  0.3374 -0.0881  0.0690
45022W        W45886   8.359  23.009  17.857 -0.0533  0.2993 -0.2628
45023W        W45887  24.572  19.514   1.457  0.0496 -0.1660 -0.0499
45024W        W45888  25.077  13.983   7.866  0.0021  0.1445  0.0358
45025W        W45889  25.314   2.433  26.935  0.1540 -0.1200  0.0819
45026W        W45890  15.166  21.199   5.182 -0.0307  0.1711  0.1979
45027W        W45891  18.864  27.924  14.174  0.1295 -0.0619  0.1708
45028W        W45892   5.947   1.264   9.731 -0.0036 -0.1502  0.2853
45029W        W45893  16.868  26.289   7.893  0.1336  0.1726  0.1725
45030W        W45894  24.801   3.315   3.419  0.4031  0.0540 -0.2541
45031W        W45895  22.839   8.974  19.065  0.0239  0.0496  0.0068
45032W        W45896  16.936  26.614   6.936  0.0570  0.0281 -0.0355
45033W        W45897  13.401  15.959  27.967 -0.2204  0.1267 -0.1848
45034W        W45898   4.742  28.289   6.754 -0.1227 -0.0207 -0.3922
45035W        W45899   3.981  21.784  23.110  0.0009 -0.1395 -0.1185
45036W        W45900   2.689  15.764  25.660  0.3415  0.0174 -0.1504
45037W        W45901  12.657  20.724   4.422  0.0092  0.0967 -0.0716
45038W        W45902  28.496  18.788   9.349 -0.1077 -0.1010 -0.2162
45039W        W45903  16.628  24.448   9.087 -0.2289 -0.1627  0.0497
45040W        W45904  19.169   0.547  26.104 -0.0183  0.0696 -0.0351
45041W        W45905  23.716  22.695   6.149 -0.2410  0.0772  0.1320
45042W        W45906   7.823  27.813  20.408 -0.0221  0.0902  0.1096
45043W        W45907   1.103   5.937   5.762 -0.0070  0.0028 -0.0653
45044W        W45908  18.488  24.254   9.634  0.1648 -0.2849  0.1017
45045W        W45909  19.966   3.791   8.252 -0.2599  0.1069  0.1572
45046W        W45910   2.623   4.773  16.165  0.2389  0.0993  0.0838
45047W        W45911  23.946   5.083   7.425 -0.0479 -0.3315 -0.0481
45048W        W45912  26.721  22.282  24.243  0.0056 -0.2203 -0.1280
45049W        W45913   0.740  12.272   7.556 -0.1356  0.3093  0.2437
45050W        W45914  10.059  17.438  28.324 -0.2240 -0.1940  0.0013
45051W        W45915  11.103  25.818   7.456 -0.0836  0.0539  0.1213
45052W        W45916  17.386  24.244  16.213 -0.0001  0.0164  0.3709
45053W        W45917  25.594   3.623   4.350 -0.0341 -0.2355  0.2276
45054W        W45918   5.989   0.113   5.690 -0.1193 -0.0936  0.1207
45055W        W45919   4.389   4.841   2.443  0.0926 -0.0634  0.0618
45056W        W45920  20.458  27.372  17.827 -0.0329 -0.2849  0.0405
45057W        W45921  28.294   2.917  25.712  0.2697  0.0268  0.0676
45058W        W45922  20.106  28.466   5.989  0.1434  0.2144  0.1792
45059W        W45923  27.084  14.235   8.112 -0.3059 -0.1719  0.1918
45060W        W45924  19.388  17.235   2.802  0.3122 -0.1919  0.3082
45061W        W45925  19.267  23.867  21.553  0.1496  0.3728 -0.0990
45062W        W45926   9.343   5.121  26.243 -0.0927 -0.0282 -0.1432
45063W        W45927  27.587  14.754   2.157 -0.1136  0.2333  0.2531
45064W        W45928  25.706  26.086   2.671  0.1043 -0.0041  0.0871
45065W        W45929   4.804   1.124   9.031 -0.1685 -0.1350 -0.1688
45066W        W45930  16.705   8.091  11.082  0.3142 -0.1574 -0.1549
45067W        W45931  21.214  10.666   8.214  0.0536  0.0482 -0.0755
45068W        W45932  16.021  10.765   1.577  0.1300 -0.0884 -0.1349
45069W        W45933   1.707   1.087   0.620  0.0353 -0.1643 -0.0966
45070W        W45934  14.723  27.745  26.447  0.2897 -0.3568  0.3081
45071W        W45935  18.201  21.432  10.557 -0.0250 -0.1090  0.2729
45072W        W45936  26.699   5.296  10.648  0.1440  0.1130 -0.1431
45073W        W45937  12.271   8.639   6.931 -0.1180  0.1863  0.0971
45074W        W45938   1.206  15.659  15.412  0.3111  0.3604  0.2045
45075W        W45939  13.098  19.116  16.916  0.1525 -0.2729  0.1100
45076W        W45940   8.717  12.953   9.313 -0.2778 -0.2745 -0.0026
45077W        W45941  18.637   9.435   4.267  0.0064 -0.2601 -0.0042
45078W        W45942  15.078   1.874  26.698  0.0122  0.4026  0.0772
45079W        W45943  20.541  16.883  23.682 -0.2058  0.0816 -0.1668
45080W        W45944  28.992   0.783  14.421  0.1041 -0.0927 -0.1381
45081W        W45945  25.769  19.237   8.146 -0.3784 -0.1022 -0.3257
45082W        W45946  20.991  27.969  11.658 -0.0245  0.1442  0.3151
45083W        W45947  23.417   3.044   2.089 -0.2219  0.0657 -0.0410
45084W        W45948  23.402  21.262  28.810  0.2376 -0.0436  0.0485
45085W        W45949   8.449  13.162   6.349 -0.3093  0.0051 -0.2762
45086W        W45950  26.451  14.725   3.993  0.0210 -0.4386 -0.2902
45087W        W45951  17.676  20.080   4.917  0.0979 -0.0280 -0.1536
45088W        W45952  25.189  27.914  11.202  0.0736 -0.0185  0.1613
45089W        W45953  17.966   1.894   7.531 -0.0046 -0.0843 -0.1567
45090W        W45954  18.728   6.771   3.394 -0.1948 -0.3105 -0.0446
45091W        W45955   2.728  18.182   5.636 -0.4034  0.2895  0.0141
45092W        W45956  19.263  18.583   9.633  0.1999 -0.0259 -0.0945
45093W        W45957  16.544  20.090   4.864  0.0646  0.0842 -0.1474
45094W        W45958  14.909  11.857   3.919  0.1871  0.1045 -0.1633
45095W        W45959  19.621  21.543   1.980 -0.0606  0.2675  0.0167
45096W        W45960  24.141  28.435  18.936 -0.0870  0.1208 -0.0545
45097W        W45961   4.453  27.026  14.964 -0.0314 -0.0483  0.0809
45098W        W45962  13.263  21.205  25.762 -0.0931 -0.0147  0.0151
45099W        W45963  14.957  28.238   1.145 -0.2242 -0.0447  0.1165
45100W        W45964   1.396   9.655  24.371  0.4112 -0.0495 -0.0236
45101W        W45965   4.277  11.627  12.229 -0.1075  0.1636  0.1159
45102W        W45966   6.965  22.855  17.687 -0.1502  0.4616  0.1737
45103W        W45967   5.430  13.332  29.128 -0.2138 -0.1303 -0.0149
45104W        W45968  12.299  23.127  24.022  0.2147  0.1260 -0.2765
45105W        W45969  20.141   0.540   2.828  0.2216  0.0951  0.3425
45106W        W45970  10.521  23.267  16.428  0.2967  0.1151 -0.0376
45107W        W45971   8.219  20.084  28.387 -0.4414 -0.0991  0.0802
45108W        W45972  19.541  27.237   7.941 -0.0790 -0.0153  0.1713
45109W        W45973  10.612   2.264  12.530  0.0810 -0.0869  0.2999
45110W        W45974  24.039  25.822  17.309  0.1647  0.0179 -0.0703
45111W        W45975  10.596  18.180  14.930 -0.0827 -0.1030 -0.2802
45112W        W45976  12.835   3.220   8.295  0.0854  0.0214 -0.2386
45113W        W45977  14.230  15.896   8.612  0.3870 -0.1972  0.3218
45114W        W45978  16.135  13.241  25.780  0.1220  0.1792 -0.0745
45115W        W45979   5.283  10.243  25.335 -0.0357 -0.0060 -0.0363
45116W        W45980  20.821  23.253  14.765  0.2233 -0.3773  0.1465
45117W        W45981  21.930  19.748   2.746  0.0500  0.2823  0.1061
45118W        W45982  26.881  20.212   8.819  0.0227  0.0687  0.0078
45119W        W45983   3.861  11.192  27.269 -0.0121 -0.0800 -0.1576
45120W        W45984   7.007   7.535   9.433  0.3907 -0.1490  0.1769
45121W        W45985  23.137  27.932  20.756 -0.1032 -0.1367  0.1536
45122W        W45986  18.732  18.682   0.232  0.1910  0.0390  0.2687
45123W        W45987  17.486  22.104  14.905 -0.1475  0.0765  0.2595
45124W        W45988   1.548   0.239   5.072  0.0216 -0.1861 -0.0376
45125W        W45989  22.870  23.045   3.650  0.4079  0.2046 -0.1780
45126W        W45990  25.274   6.885   5.488  0.0597 -0.0110  0.2361
45127W        W45991  23.195   4.632  13.184 -0.0024  0.0551 -0.2711
45128W        W45992  17.715  21.265   6.862  0.2615  0.0223  0.0119
45129W        W45993  16.810  17.131   2.697  0.4453 -0.1287 -0.5566
45130W        W45994  19.954   6.153  25.141 -0.0303 -0.0697 -0.0249
45131W        W45995  15.106  12.349   7.583 -0.1219 -0.0986 -0.1713
45132W        W45996  23.056  20.610  10.712 -0.1212 -0.0911  0.0780
45133W        W45997  15.792   3.164   4.699  0.0903  0.0880  0.2006
45134W        W45998   8.778  21.528   4.870 -0.1209 -0.0416 -0.3533
45135W        W45999  25.445  22.326   9.297 -0.0442  0.1818  0.2136
45136W        W46000   9.842   6.211  22.390 -0.1614 -0.1367 -0.0851
45137W        W46001   9.804  14.774   6.237 -0.1313  0.1326  0.0100
45138W        W46002   0.289   2.209   0.926 -0.0848 -0.0109 -0.0532
45139W        W46003  19.099  26.214   4.636 -0.2637 -0.0749  0.0134
45140W        W46004  17.923  17.817   4.852 -0.0610 -0.1554  0.2246
45141W        W46005  24.069  13.105   5.333  0.2408  0.0349 -0.0486
45142W        W46006   4.614  20.211  27.192 -0.0685 -0.2028  0.0317
45143W        W46007  19.284   3.585  17.790 -0.0304 -0.2204  0.0059
45144W        W46008  17.152   3.862  24.070 -0.0315 -0.0380 -0.0671
45145W        W46009  14.580   3.831   6.715  0.2214 -0.2428 -0.0138
45146W        W46010  10.813   0.636   4.047  0.1208 -0.1383  0.0717
45147W        W46011  23.544   3.328   1.719  0.2392  0.0457  0.2103
45148W        W46012  27.348  25.091  25.607  0.2297 -0.0251 -0.0773
45149W        W46013  24.920   2.815  20.947 -0.0955 -0.1667  0.2824
45150W        W46014   2.659   1.036  21.306  0.1632  0.0365  0.1083
45151W        W46015  20.838  26.530  20.056 -0.0777 -0.2000  0.0473
45152W        W46016  10.413  26.310  25.765  0.1831 -0.0378  0.0537
45153W        W46017  19.576  27.084  24.915  0.2913  0.0423 -0.2323
45154W        W46018  21.067   1.407  14.158  0.2398  0.3039  0.0612
45155W        W46019  17.299   9.149   5.934  0.2848  0.1325  0.1750
45156W        W46020  17.955  25.307   0.472  0.2689  0.0552 -0.0780
45157W        W46021   5.600  25.198  18.349 -0.0069 -0.0534  0.2127
45158W        W46022  14.088  18.338   3.620 -0.0162  0.0638  0.0119
45159W        W46023  19.451  22.704   2.823  0.0389  0.0044  0.2187
45160W        W46024  17.708   1.911   0.549  0.0559 -0.1951 -0.0873
45161W        W46025   2.182   3.308  26.057  0.4937 -0.2785  0.4027
45162W        W46026  24.207  25.301  27.906 -0.1944  0.1581 -0.4017
45163W        W46027  15.896  11.550  10.791 -0.1255  0.0916  0.1941
45164W        W46028  16.359  17.703   2.704  0.2158  0.2930  0.2185
45165W        W46029   5.091  23.882  17.560  0.0138  0.0586 -0.1875
45166W        W46030  24.330  11.048  13.314 -0.3155 -0.1486 -0.0254
45167W        W46031  11.559  28.504  24.506  0.1380 -0.3272 -0.0759
45168W        W46032  23.737  24.882   9.248  0.0544 -0.0286  0.1669
45169W        W46033   1.077  13.238  22.857  0.2628  0.0292 -0.0093
45170W        W46034  16.448  13.529   6.009 -0.1380 -0.1329  0.1111
45171W        W46035  12.736  19.123  14.758 -0.2028  0.0726 -0.0571
45172W        W46036   5.328  26.119   1.014 -0.0496  0.0796 -0.1541
45173W        W46037  13.842  19.155   4.571  0.1928  0.1731  0.0659
45174W        W46038  28.923  26.306  26.406 -0.3370 -0.4018 -0.0040
45175W        W46039   6.315  28.273   5.440 -0.1783 -0.0641 -0.3088
45176W        W46040  15.444   1.404  16.883 -0.0043  0.0182 -0.2235
45177W        W46041  25.693  28.624   7.520  0.1680 -0.1179 -0.1973
45178W        W46042   5.803  16.036  26.423  0.1325 -0.0597 -0.0335
45179W        W46043   3.195  21.310   2.916  0.1430  0.1172  0.0887
45180W        W46044  11.563  13.005  10.097  0.0020 -0.0064 -0.0254
45181W        W46045   1.257   6.012  28.308 -0.0185 -0.0187  0.0370
45182W        W46046  11.725   1.115   7.940  0.2531 -0.1577  0.1890
45183W        W46047  22.672   3.761  13.746 -0.2074 -0.0095  0.1267
45184W        W46048   8.415  17.858  17.198  0.0951  0.0931 -0.4400
45185W        W46049  12.543  15.238  18.475  0.1162  0.1622 -0.1105
45186W        W46050  10.313  21.562  16.883  0.1018 -0.2479 -0.1111
45187W        W46051  28.761   9.194  14.729  0.0716 -0.0787 -0.3041
45188W        W46052  15.082   3.042  11.424  0.1757  0.0426  0.0185
45189W        W46053   8.076  26.688  24.457  0.1717 -0.0826  0.1556
45190W        W46054   9.881   4.569  11.106 -0.0457  0.0500 -0.1620
45191W        W46055  22.417  19.297   6.253  0.0654  0.2626 -0.2242
45192W        W46056   9.773  20.219   0.646 -0.1222 -0.1119  0.2455
45193W        W46057  18.466   0.162   2.701 -0.4183  0.0581  0.1121
45194W        W46058  22.510  28.059  22.203  0.4327  0.2116  0.0002
45195W        W46059   2.003  17.327  26.604 -0.0978 -0.0841 -0.1536
45196W        W46060   8.785  24.265  13.843  0.2863 -0.0482 -0.0193
45197W        W46061   2.176  16.610   1.845 -0.0108  0.0422  0.2418
45198W        W46062   5.587  14.870   6.325 -0.0808  0.0404  0.0696
45199W        W46063  18.725  26.883   7.205  0.1353 -0.2151  0.1840
45200W        W46064  13.686  18.368   9.717  0.1637  0.0910 -0.0502
45201W        W46065  18.599   5.063   4.242 -0.1614 -0.0497 -0.0191
45202W        W46066   8.406  25.751  16.219  0.2689 -0.0520  0.1225
45203W        W46067   0.941  27.755  25.172 -0.1428  0.2649  0.1826
45204W        W46068  24.042   0.947   2.483 -0.0776 -0.0380 -0.3634
45205W        W46069  12.666   7.490  17.384  0.2765  0.0865 -0.2458
45206W        W46070  28.191  26.614   0.787 -0.0553  0.0214 -0.1850
45207W        W46071  27.170  24.083   0.349  0.3533 -0.1492  0.0593
45208W        W46072  21.178   4.890   7.053  0.2402 -0.0302  0.1046
45209W        W46073  18.614  20.446  16.835  0.4671 -0.1335 -0.2367
45210W        W46074   6.945  26.637  18.037  0.0522  0.1517 -0.0281
45211W        W46075  13.184  27.380  14.934  0.2726  0.2373 -0.4272
45212W        W46076   8.497  13.577   4.898 -0.0164  0.0964 -0.2674
45213W        W46077  13.473  18.555  25.913 -0.1085 -0.0182  0.0502
45214W        W46078   1.460  15.087  25.779 -0.0062 -0.1316  0.0586
45215W        W46079  10.636   3.064   9.203  0.4737 -0.2199 -0.1207
45216W        W46080  23.727  26.289  26.002  0.0456 -0.2736  0.0325
45217W        W46081  19.353   3.663  27.000 -0.0299 -0.2016 -0.1559
45218W        W46082  21.542  18.621  23.686  0.2006 -0.1230 -0.0153
45219W        W46083  15.812  19.821   5.191  0.0788 -0.0080 -0.0339
45220W        W46084  28.151  14.500  22.562  0.1320 -0.0028  0.0727
45221W        W46085  11.020  20.321  11.201 -0.1781 -0.1291 -0.0548
45222W        W46086  19.343  13.512  19.280 -0.1363 -0.0023 -0.1300
45223W        W46087   9.145   1.492   4.335  0.4260 -0.1324  0.1306
45224W        W46088  21.993   7.072  19.715 -0.0791 -0.1084 -0.1716
45225W        W46089   4.545   1.916   9.690  0.1909 -0.0207  0.1561
45226W        W46090   4.355  12.227  22.930 -0.0539 -0.2441  0.3330
45227W        W46091  20.103  24.676   0.133 -0.0525 -0.0842  0.0481
45228W        W46092   6.566  25.198  28.020  0.1744 -0.1160  0.3559
45229W        W46093   7.565  27.375  15.086 -0.1176  0.2889 -0.4046
45230W        W46094  24.049   1.534   6.781  0.0369  0.1512 -0.1727
45231W        W46095   9.576  23.578   8.489 -0.1855 -0.0381  0.5222
45232W        W46096  22.852   3.793   2.604  0.1447 -0.0131  0.3218
45233W        W46097  15.794  13.930   7.881 -0.2730  0.1416 -0.2691
45234W        W46098   1.399  27.408   5.594 -0.1948  0.0832 -0.1694
45235W        W46099  14.336  20.358   3.540 -0.3156 -0.0242 -0.0604
45236W        W46100  16.918   3.545   0.024 -0.0183  0.2326 -0.2144
45237W        W46101  22.970  16.602   9.738 -0.0538  0.0534 -0.0766
45238W        W46102  19.936  17.639  13.138 -0.2356  0.1768 -0.0310
45239W        W46103  11.116  26.827  20.823  0.2646 -0.2070  0.1451
45240W        W46104  27.979   7.796   2.543  0.0006 -0.3900  0.1970
45241W        W46105  17.118  10.985   5.337 -0.1583 -0.3409  0.1466
45242W        W46106  19.544   3.386   8.335  0.3347 -0.1039  0.2304
45243W        W46107   5.973  28.128  11.735  0.0946 -0.0877  0.1073
45244W        W46108  28.063   4.975   5.498  0.0885 -0.0277 -0.1641
45245W        W46109  20.095   5.339  21.690  0.0613 -0.0181  0.2354
45246W        W46110  17.974  27.780  25.327  0.3678 -0.0822  0.0297
45247W        W46111  24.123  16.995  11.480  0.3630  0.1968 -0.1879
45248W        W46112   0.945  11.513  11.680  0.1512  0.1307 -0.2142
45249W        W46113  22.284  10.245  12.857  0.3890  0.1187  0.1723
45250W        W46114  22.404  14.014  26.733 -0.3505 -0.0291  0.0917
45251W        W46115  15.457  14.364  17.519  0.0726 -0.2308 -0.1227
45252W        W46116  11.722   3.943   3.884  0.2091  0.1244  0.2044
45253W        W46117   6.563  10.243   2.053 -0.2235  0.1865 -0.0651
45254W        W46118  24.192  22.068  23.182  0.1647  0.1373 -0.4194
45255W        W46119  21.271  12.497  13.767  0.2734 -0.2999 -0.0221
45256W        W46120   5.147   5.323  22.472 -0.0107  0.3111 -0.1562
45257W        W46121  13.625   8.727  16.333  0.0923  0.0256 -0.2833
45258W        W46122  12.234  13.601   5.896  0.2782 -0.1490  0.1107
45259W        W46123   0.142  27.454   4.360  0.1497  0.1129 -0.0603
45260W        W46124  18.764  11.724   9.512 -0.0989 -0.1329  0.4900
45261W        W46125  21.614  22.990   4.816 -0.6546 -0.0401  0.3613
45262W        W46126  11.737   1.557   7.001  0.1387  0.1966  0.1360
45263W        W46127  23.816   3.659  12.969  0.1969 -0.1016  0.0158
45264W        W46128  28.039   8.846  20.361  0.3875  0.0116  0.0883
45265W        W46129  12.550  10.236  28.580  0.1827 -0.1232 -0.1529
45266W        W46130  19.296   5.019  18.177  0.2640 -0.3273 -0.0413
45267W        W46131  23.851   1.011   7.405  0.3833  0.1390  0.1889
45268W        W46132   1.559  26.727  18.681  0.1996 -0.1604  0.4694
45269W        W46133  12.922  26.851  13.014  0.0230 -0.1282  0.1483
45270W        W46134   5.911  25.159  27.502  0.1622  0.0382  0.0528
45271W        W46135   7.534  14.951  16.713  0.0990  0.0079  0.0683
45272W        W46136   0.296   3.265  13.408 -0.0082  0.0771  0.2740
45273W        W46137  25.482  12.266  18.388  0.0300  0.0632 -0.0243
45274W        W46138   0.051  23.602   7.324  0.0886  0.0581 -0.2532
45275W        W46139   5.824  18.957  14.864  0.0171  0.0680  0.2785
45276W        W46140  11.226  17.607   3.142  0.4958 -0.0147 -0.2750
45277W        W46141  15.854  22.658  25.889 -0.2202  0.2558 -0.2880
45278W        W46142  22.331  19.832   5.417 -0.0435 -0.1408  0.2961
45279W        W46143  23.141  16.995   6.500  0.1008 -0.1345 -0.1802
45280W        W46144  25.518  18.485  27.723 -0.0555  0.3100  0.3247
45281W        W46145  19.643  20.513  11.577 -0.1766  0.1100 -0.0813
45282W        W46146   4.507  16.592   3.092 -0.1521  0.0792 -0.0158
45283W        W46147   4.928  15.949   9.004 -0.1841 -0.3534  0.0947
45284W        W46148  20.265  16.930  20.172  0.1029  0.0522 -0.1510
45285W        W46149  10.426  25.503  24.993 -0.1193 -0.0245  0.0529
45286W        W46150   8.800   6.901   5.430  0.0894  0.1539  0.0789
45287W        W46151  14.806   5.003  14.566  0.1405  0.1734 -0.0608
45288W        W46152  13.773  13.434  21.339 -0.1802 -0.0491  0.3441
45289W        W46153  23.333   4.156   9.108  0.1261 -0.3316 -0.0353
45290W        W46154  24.428   5.854  18.592  0.1897 -0.2877  0.0286
45291W        W46155  20.273  26.460  23.260  0.0880 -0.1207 -0.3241
45292W        W46156  25.852   1.365   7.197 -0.0898  0.0108  0.2072
45293W        W46157   7.084   3.741   5.520  0.2592  0.1612  0.0929
45294W        W46158  10.783  19.509  14.480  0.0767  0.1083 -0.2457
45295W        W46159  23.222  25.290   6.554 -0.0826  0.2227  0.0911
45296W        W46160  16.249  11.237  28.985  0.0657  0.0696  0.0474
45297W        W46161  25.185  19.691   2.563 -0.0021 -0.5018 -0.1392
45298W        W46162   2.845  17.692  10.637 -0.1199 -0.4564 -0.0112
45299W        W46163  28.482  18.980   3.505  0.0373  0.1607 -0.4724
45300W        W46164  15.648  25.366   6.684 -0.0997 -0.2950 -0.1465
45301W        W46165   4.608  17.353   4.300  0.0669  0.2962  0.0985
45302W        W46166  10.691  23.734  25.469 -0.0391 -0.0928  0.0637
45303W        W46167   2.555  11.979  12.923  0.1176 -0.1803  0.2019
45304W        W46168   2.927   0.430   5.893  0.0326  0.2298  0.2542
45305W        W46169  16.073   1.821   6.680  0.1193  0.0089 -0.0223
45306W        W46170  22.054   9.864   9.954  0.0112 -0.1172  0.0971
45307W        W46171   2.626  27.744  23.636  0.0879 -0.1953 -0.0305
45308W        W46172  10.949   4.917  28.015 -0.2382  0.3871  0.1635
45309W        W46173  23.138  16.610  14.307  0.2048 -0.0186  0.0308
45310W        W46174  27.022   2.740   1.423 -0.2680 -0.2645  0.0165
45311W        W46175  25.811  27.561   5.119  0.0151 -0.1312  0.0529
45312W        W46176  23.990   0.233  15.977  0.0171 -0.1199 -0.0944
45313W        W46177  11.292  19.003   6.830 -0.0709 -0.1393  0.2376
45314W        W46178  20.552   2.865   5.969  0.3149 -0.2000  0.0642
45315W        W46179  13.050  14.463   9.410 -0.4328  0.0896  0.3150
45316W        W46180  15.143  16.894  20.436 -0.1709  0.3960  0.0047
45317W        W46181   9.140  10.144  23.500  0.3898  0.0651  0.0390
45318W        W46182  16.917  20.033   7.147  0.2477  0.1690 -0.3114
45319W        W46183  28.746  13.768  10.372 -0.1760 -0.0222 -0.1132
45320W        W46184  22.169  24.025   7.024 -0.2130  0.0999 -0.1101
45321W        W46185   5.656   4.330  28.435  0.0599  0.0180 -0.1413
45322W        W46186  12.907  17.110   3.121  0.1391  0.0977 -0.0238
45323W        W46187  23.584  10.560   8.729 -0.2375 -0.1337 -0.2006
45324W        W46188   4.350  27.526   7.221  0.0395 -0.2878 -0.0948
45325W        W46189  21.038   3.937  11.939 -0.0687 -0.2792  0.0741
45326W        W46190  15.469  18.399  16.179  0.1315 -0.1029 -0.1087
45327W        W46191   8.059  26.712   3.050 -0.0159  0.0308 -0.1050
45328W        W46192  19.328  10.997   7.855  0.0039 -0.3161  0.1794
45329W        W46193  20.845   4.195   7.433  0.1018 -0.1426 -0.1027
45330W        W46194   4.459  22.365  28.826  0.1786  0.2306  0.0893
45331W        W46195  20.369   2.670  11.645 -0.1457 -0.2210  0.0192
45332W        W46196  23.907  28.741  25.717  0.1157 -0.2073 -0.1201
45333W        W46197   2.711  25.205   5.746  0.1484  0.1052 -0.0741
45334W        W46198  28.815  22.831  10.269  0.0897  0.0496 -0.1605
45335W        W46199  11.484   2.149   5.707  0.1319 -0.1295 -0.0709
45336W        W46200  14.926  19.629  15.523  0.1274 -0.3154  0.1156
45337W        W46201   0.843   9.354  17.070 -0.2428 -0.0334 -0.0645
45338W        W46202  18.801  16.365  15.744 -0.3068  0.1001 -0.1190
45339W        W46203  28.198  15.368   7.330 -0.0870 -0.0233 -0.0105
45340W        W46204  25.700  18.706  17.045 -0.0390 -0.1665 -0.1748
45341W        W46205  23.306  28.148  21.498  0.1322 -0.1480  0.1821
45342W        W46206   4.967  27.348   6.498 -0.0655 -0.1300 -0.0757
45343W        W46207  24.776  23.099   1.414 -0.0714 -0.0280  0.0968
45344W        W46208  12.902  13.686   2.945  0.0704 -0.1377  0.0615
45345W        W46209  19.167  23.685   1.076  0.0636 -0.1452 -0.0826
45346W        W46210  23.393  23.897   6.731  0.1458  0.1202 -0.1208
45347W        W46211  19.307  20.929  26.568  0.0525  0.0563 -0.2469
45348W        W46212  26.977  23.217   0.099  0.0434 -0.4713 -0.0755
45349W        W46213   9.620  16.527   8.719 -0.1085  0.1915 -0.0005
45350W        W46214  11.422  13.308  20.603  0.0518  0.2068  0.0404
45351W        W46215  27.026   6.043   1.819 -0.1482  0.0311  0.1241
45352W        W46216  23.519  14.310  22.407  0.0787  0.0638 -0.2349
45353W        W46217  13.508  11.768  13.357  0.1392 -0.1310  0.0560
45354W        W46218  11.823  15.642  21.311  0.1229 -0.2446 -0.0854
45355W        W46219  24.250  20.744  28.503  0.1026  0.0837  0.0749
45356W        W46220   6.227  10.421  17.344 -0.1598 -0.0552 -0.0473
45357W        W46221   0.741  25.684  26.243  0.0130 -0.0360  0.0395
45358W        W46222  27.878  16.443   5.599 -0.0371  0.1020  0.1091
45359W        W46223  12.255  25.895  21.964  0.0532  0.2232 -0.1086
45360W        W46224  21.984   9.189   4.818 -0.0570 -0.1328 -0.0935
45361W        W46225  20.275  27.095  20.825  0.1568  0.1792 -0.1738
45362W        W46226  11.585   5.369  28.858 -0.1883  0.1394  0.1796
45363W        W46227  23.277  17.731   5.914  0.0534 -0.0926 -0.1437
45364W        W46228  17.551  16.905   1.618 -0.2105  0.0780  0.1185
45365W        W46229   3.986  22.081   9.807 -0.0244  0.1929 -0.0700
45366W        W46230  24.164  18.557   3.635 -0.0897 -0.1016 -0.1514
45367W        W46231  28.312  24.698  26.536 -0.1999  0.3525  0.0231
45368W        W46232  21.984  16.619  14.133 -0.3554 -0.0020 -0.2403
45369W        W46233  18.282  28.823  24.171 -0.0593  0.1781 -0.1468
45370W        W46234   2.927  22.308  16.570  0.0344 -0.2298  0.2282
45371W        W46235   5.404  18.572   8.753 -0.2773  0.1223 -0.3339
45372W        W46236   1.631  18.309  11.780  0.2008  0.4325  0.5824
45373W        W46237  26.787  19.989  11.470 -0.0113  0.0223  0.3742
45374W        W46238  18.124  27.584   0.624 -0.0209  0.1971 -0.0059
45375W        W46239  24.065   6.497  11.500 -0.3824 -0.0954 -0.3867
45376W        W46240  25.983  19.926  25.798 -0.2207 -0.0724  0.3331
45377W        W46241  20.103  25.188  25.826  0.0532 -0.1063  0.3040
45378W        W46242   9.227  11.872  29.048  0.0030  0.0235 -0.1074
45379W        W46243  18.288   8.862   6.082 -0.3252  0.0040 -0.0911
45380W        W46244  28.109   8.548  23.025  0.2829  0.1461 -0.1549
45381W        W46245  11.477  25.389   6.538  0.1124 -0.1232 -0.1121
45382W        W46246  17.527  20.239  17.639 -0.1878 -0.0639 -0.0818
45383W        W46247  28.382  26.349  18.526 -0.0257 -0.0760  0.1628
45384W        W46248  25.559  24.332  19.918 -0.0272  0.0829  0.3648
45385W        W46249  12.730  18.423   7.346  0.0044 -0.0623  0.1890
45386W        W46250  24.383  17.198  15.841  0.1780 -0.1467  0.0348
45387W        W46251   8.908   2.600   1.268  0.3204  0.0237 -0.1034
45388W        W46252  25.207  17.609  11.733  0.0941  0.0600 -0.0506
45389W        W46253   6.737  14.660   6.445  0.2830  0.1086 -0.1753
45390W        W46254   8.546  23.507  13.255  0.1922  0.2752 -0.0841
45391W        W46255  15.095  28.443   7.706  0.0605 -0.0115  0.0025
45392W        W46256  16.464  28.497  18.632 -0.1531  0.1365 -0.0901
45393W        W46257   2.551   3.497   3.376  0.1776  0.2445 -0.0316
45394W        W46258  26.056  28.932  11.758  0.3110  0.1155  0.0755
45395W        W46259  22.674  16.799  17.831 -0.0328 -0.1453 -0.0754
45396W        W46260  14.179   6.390   8.041 -0.1689  0.1271 -0.1138
45397W        W46261  14.767  14.669  11.482  0.1568 -0.1226  0.0326
45398W        W46262   0.617  14.661  23.337 -0.2474 -0.1233 -0.1121
45399W        W46263  27.829  18.403  11.779 -0.1248  0.2993 -0.0642
45400W        W46264  18.829  23.170  18.963  0.0878  0.0618 -0.0151
45401W        W46265  26.755   5.155  13.467 -0.0851  0.2202  0.0666
45402W        W46266  22.199  14.296  10.980  0.2786  0.0380  0.4804
45403W        W46267  23.057   0.812   8.648 -0.1230 -0.0901 -0.0196
45404W        W46268  25.751  28.189  20.754 -0.0738  0.1384 -0.0866
45405W        W46269   9.858   7.814   7.954 -0.0188  0.1270 -0.0727
45406W        W46270   3.759  22.503  19.567 -0.0558 -0.0645 -0.0203
45407W        W46271  16.425  25.639   0.215 -0.0148  0.2858  0.0742
45408W        W46272   4.451  14.269  14.196 -0.1853 -0.0167 -0.2308
45409W        W46273  13.230  13.153  28.101 -0.1806 -0.0392 -0.1333
45410W        W46274  15.045   7.668  15.221 -0.1331 -0.0414  0.0078
45411W        W46275  24.200  14.328  13.677  0.0357  0.0364  0.2076
45412W        W46276  26.075  18.798  10.500 -0.1376 -0.1935 -0.0381
45413W        W46277  16.484   0.590  21.752 -0.1744 -0.0679  0.2363
45414W        W46278  28.600   9.848  17.822 -0.0533 -0.3661  0.0835
45415W        W46279   9.400  10.568   6.133  0.0118  0.3873  0.0379
45416W        W46280  24.998  22.450  14.260  0.0812 -0.1453 -0.1325
45417W        W46281   8.382   8.029  23.462 -0.2667  0.0172  0.0439
45418W        W46282   3.980  23.056  23.072 -0.1013 -0.2659  0.0635
45419W        W46283   6.254   0.781  17.656 -0.3321  0.0192  0.0781
45420W        W46284  11.850   9.414  18.831 -0.0494  0.3855  0.0871
45421W        W46285  16.312  27.943  23.506 -0.0967 -0.1947  0.0714
45422W        W46286  15.971  23.424   8.818  0.0283 -0.2515  0.0288
45423W        W46287  22.846   1.671  13.525  0.1112 -0.0184  0.3265
45424W        W46288  22.470  20.301   6.202 -0.1197  0.3557 -0.0791
45425W        W46289  16.414   3.184  20.067 -0.0377 -0.0227 -0.4073
45426W        W46290  15.274  21.589  20.430  0.2991  0.0366  0.2194
45427W        W46291  18.892   2.953  18.185  0.1464  0.1795  0.1166
45428W        W46292  21.754   1.329  28.182 -0.2050 -0.0789  0.4654
45429W        W46293  19.766   5.862  15.655 -0.1334  0.2817 -0.0805
45430W        W46294  11.575   9.226   9.997 -0.3014 -0.0514  0.2562
45431W        W46295  16.520   4.959  26.517  0.0171  0.1955 -0.0955
45432W        W46296  19.487  13.458  23.829  0.1620 -0.3367 -0.1054
45433W        W46297  17.698   0.361   8.854  0.1359 -0.0673 -0.1027
45434W        W46298   3.891   5.584   7.390 -0.0140  0.0619 -0.2314
45435W        W46299   9.558  27.366  20.487 -0.0437 -0.1488  0.4945
45436W        W46300  17.129   2.514  23.476  0.1024  0.1119 -0.1857
45437W        W46301  25.988   3.810  12.641 -0.0203 -0.1032 -0.0336
45438W        W46302  23.693  10.149  28.277  0.2595  0.0203 -0.0413
45439W        W46303  15.705   6.981  10.939 -0.0118 -0.2068 -0.2294
45440W        W46304   9.012  19.206   2.461 -0.2206  0.3749  0.0889
45441W        W46305  26.632   8.105  11.775 -0.4108  0.2740  0.0111
45442W        W46306  28.912   8.450   8.009 -0.1959  0.2550  0.3280
45443W        W46307   2.930  20.164   5.851  0.0216 -0.1116  0.1640
45444W        W46308  11.950   4.749  12.191 -0.1422  0.2637 -0.0558
45445W        W46309  15.553  17.679   8.284 -0.0042  0.2735  0.1152
45446W        W46310  23.095  19.863  28.721  0.1592  0.0281  0.1116
45447W        W46311  20.339   8.279  10.031 -0.0618  0.0535  0.0646
45448W        W46312   9.777  16.048  16.908  0.1974  0.1344  0.1560
45449W        W46313   5.738  19.700  10.730  0.1480 -0.1778 -0.0625
45450W        W46314  11.943  28.881  16.976 -0.0640  0.0159 -0.0707
45451W        W46315  27.400  18.074  19.501  0.0632  0.1013 -0.2689
45452W        W46316  17.470   1.351  10.608 -0.2155 -0.0618  0.0807
45453W        W46317  11.846   1.913  16.937 -0.3423 -0.2990 -0.3323
45454W        W46318   3.937  18.113   8.226 -0.0965 -0.1464  0.3734
45455W        W46319  20.109  15.583  17.506  0.1171 -0.0870  0.1850
45456W        W46320   0.027  23.423  22.542 -0.0151 -0.1392 -0.0340
45457W        W46321   8.514  20.812  15.013 -0.0968 -0.3131 -0.0925
45458W        W46322   4.055  12.220   6.364  0.0460  0.1883  0.0433
45459W        W46323  18.706  19.810   0.248 -0.2141 -0.3978  0.2770
45460W        W46324  26.942  18.731  14.042 -0.1420 -0.0844 -0.1442
45461W        W46325  25.435  15.817  21.717 -0.2739 -0.0354  0.1002
45462W        W46326  10.436   9.574   4.418 -0.3100  0.0888 -0.0474
45463W        W46327  25.498  24.482  21.597  0.4492 -0.1263 -0.1341
45464W        W46328  26.223  20.570   5.699  0.2097  0.0944  0.2316
45465W        W46329  21.792  20.918   5.566 -0.1690 -0.2775 -0.2440
45466W        W46330  11.244   6.930  17.903 -0.2890  0.1335 -0.0349
45467W        W46331  20.208  10.979   9.760 -0.0114  0.0151 -0.1830
45468W        W46332  12.628  10.807  16.162 -0.2274  0.1129 -0.2454
45469W        W46333  16.909  12.219  10.277  0.1359 -0.0252  0.0330
45470W        W46334  18.324  18.347  10.612  0.1259  0.0283 -0.0090
45471W        W46335  21.202  11.248  20.851  0.1143 -0.0836  0.0775
45472W        W46336   9.734   3.868  26.285  0.0196 -0.1562 -0.2347
45473W        W46337  17.811   2.653   3.614 -0.1014 -0.3421  0.0439
45474W        W46338  23.065  20.281   2.105  0.0671  0.2082 -0.1884
45475W        W46339   0.425   7.875   1.300  0.0092 -0.0696 -0.0652
45476W        W46340  17.713   1.652   8.558 -0.0800  0.0634  0.2952
45477W        W46341  24.546  15.537  10.450 -0.1566 -0.1157  0.1673
45478W        W46342  20.616  19.680  27.301  0.0772 -0.0061  0.0954
45479W        W46343  11.098  26.458  28.364  0.1534  0.1088 -0.0529
45480W        W46344  23.282   4.868  21.585 -0.4097  0.0058 -0.1813
45481W        W46345   9.545  25.191  11.212  0.2353  0.0467 -0.0657
45482W        W46346   3.687   1.916  15.762  0.1080 -0.1999 -0.3185
45483W        W46347   4.089   9.001  14.072 -0.0344 -0.3453  0.2041
45484W        W46348  10.054   9.163  18.386 -0.0846 -0.0524  0.0434
45485W        W46349   3.591  11.103  15.912  0.1273 -0.0931 -0.1017
45486W        W46350  15.829  20.338  22.003 -0.1801 -0.2128  0.0363
45487W        W46351  21.595  28.072  19.342 -0.4735  0.0861  0.1058
45488W        W46352   9.173  17.714  22.075 -0.0070 -0.1328  0.0138
45489W        W46353  13.979  19.583   7.461 -0.3883  0.1724  0.1614
45490W        W46354   8.788  20.109  20.578  0.5234  0.0121 -0.0465
45491W        W46355  24.096  22.436   7.116 -0.1313  0.1370 -0.0243
45492W        W46356  25.905   0.145  25.395  0.1846  0.0023 -0.1727
45493W        W46357  13.399   3.217   0.878  0.1360 -0.3499  0.2094
45494W        W46358  14.016  26.737  28.365  0.0546 -0.0896  0.2118
45495W        W46359  19.201  16.932  10.784  0.1686  0.0492 -0.0709
45496W        W46360  15.236  24.174   6.036  0.0208 -0.2220  0.1441
45497W        W46361  13.552   0.227  13.780  0.3487 -0.2195  0.0620
45498W        W46362  18.833  20.100  26.332 -0.2099 -0.2081  0.3452
45499W        W46363  17.211   4.338   4.401  0.2094 -0.1256 -0.2673
45500W        W46364  27.763  12.596  14.509  0.0404 -0.2240 -0.1158
45501W        W46365  24.075   2.144  21.306 -0.2994  0.0066  0.0710
45502W        W46366  28.255  19.998   4.788 -0.0380 -0.5219  0.1351
45503W        W46367  22.208   8.724  10.042 -0.1526  0.1220  0.0313
45504W        W46368  15.354   4.110   0.624  0.1598  0.0169  0.1745
45505W        W46369  13.788  21.631  16.721  0.0216  0.1162 -0.0744
45506W        W46370  17.634  11.506  14.390 -0.1327 -0.1719  0.0455
45507W        W46371   5.939  19.620  16.787 -0.1052  0.0983  0.0292
45508W        W46372   2.605  18.943  22.546  0.0131  0.1881 -0.1295
45509W        W46373  26.821  13.585  27.679 -0.0314 -0.0349  0.2859
45510W        W46374  23.388  22.645   0.922 -0.3679  0.0695  0.2566
45511W        W46375   1.355   0.053  11.299 -0.0461 -0.2830  0.3268
45512W        W46376  26.822  19.013  20.508  0.1701  0.0569 -0.3006
45513W        W46377   0.396  23.251  26.945 -0.1455  0.2895 -0.0724
45514W        W46378  13.875  10.761  10.284 -0.1792  0.2394  0.0832
45515W        W46379   1.098  20.396  13.654  0.2624 -0.0195 -0.3489
45516W        W46380   1.961  16.819   9.169  0.0394 -0.0871 -0.0365
45517W        W46381  21.926   2.851   9.450 -0.0440 -0.4999  0.0590
45518W        W46382  19.897   3.957  17.434 -0.1427 -0.4163  0.0399
45519W        W46383  25.627  21.537   4.911  0.2039  0.1184  0.0045
45520W        W46384   5.542  17.075  19.354 -0.2354 -0.0130  0.3242
45521W        W46385   5.152   1.040  12.729 -0.0222  0.2298 -0.1003
45522W        W46386   1.662  24.807   1.856  0.1550 -0.0668 -0.0019
45523W        W46387  21.961  28.691  18.667  0.1002  0.4521 -0.0750
45524W        W46388  11.900  14.217  18.448 -0.2113  0.1353  0.0555
45525W        W46389   3.447  22.061  20.656  0.2164 -0.2335 -0.1170
45526W        W46390   1.001   7.628  11.985  0.0882 -0.1063 -0.1329
45527W        W46391  17.502  22.260  21.886  0.1035 -0.2001  0.0717
45528W        W46392   3.490  14.601   3.227  0.0215  0.1831  0.1858
45529W        W46393  25.734  25.233  22.323 -0.4899 -0.0111 -0.1354
45530W        W46394   4.931  26.269   3.959 -0.2440 -0.2535  0.0825
45531W        W46395  10.743  12.490  13.127 -0.1569  0.0517  0.0194
45532W        W46396   8.518  19.381   5.090  0.0963 -0.0558 -0.2797
45533W        W46397  15.329  17.081  18.652  0.0029 -0.2102  0.0118
45534W        W46398  20.724  20.432  13.492 -0.1029 -0.2705  0.0481
45535W        W46399   1.716   5.340   7.673 -0.2168 -0.2800 -0.0780
45536W        W46400   5.957   4.603  26.141  0.0904  0.2831 -0.0462
45537W        W46401   4.428   0.695  13.386 -0.0312  0.1676 -0.1046
45538W        W46402  10.796   0.468  17.227  0.0950  0.0786 -0.0261
45539W        W46403  10.255  14.686  15.024  0.1692  0.2914  0.2206
45540W        W46404  20.766   9.822   8.991  0.1940  0.2092 -0.0563
45541W        W46405  12.537   2.587   2.670 -0.1705 -0.3598  0.0992
45542W        W46406  19.523  13.484  14.588 -0.2842  0.1459  0.0838
45543W        W46407   5.835  13.107  15.056  0.2019 -0.0163 -0.0399
45544W        W46408  22.786   9.064   7.093  0.0755 -0.0172  0.0093
45545W        W46409  14.743   1.321  13.572  0.0963  0.1980  0.0476
45546W        W46410  12.019  13.255  28.589  0.2566  0.3602  0.1524
45547W        W46411   5.176   4.891   8.727 -0.1380 -0.0178  0.0452
45548W        W46412  19.586   3.234   2.502  0.1266  0.1678 -0.2493
45549W        W46413  18.383  11.925  12.336 -0.2679  0.1072 -0.0289
45550W        W46414  28.258  25.712  14.181  0.1029  0.1376  0.1522
45551W        W46415  12.304  17.926   7.377 -0.1387  0.4713 -0.2721
45552W        W46416  17.712   4.941   3.017 -0.2499  0.1781  0.0622
45553W        W46417  19.474  15.168  22.232  0.0090  0.2192  0.2526
45554W        W46418  23.874  23.980  28.091  0.2202  0.1297  0.1176
45555W        W46419  11.084  23.878   3.190 -0.1802  0.1027 -0.2201
45556W        W46420  22.461  22.459   9.523  0.1270  0.0410  0.3043
45557W        W46421  13.259  10.163   6.227 -0.3946 -0.0700  0.0246
45558W        W46422  24.988  28.715  17.264  0.0383 -0.0512  0.1287
45559W        W46423  26.935  21.737  15.205  0.2113 -0.0147  0.1892
45560W        W46424   7.330  19.843   9.277  0.0489 -0.0042  0.2179
45561W        W46425  24.491   6.276  28.136  0.2673  0.3693  0.0362
45562W        W46426  19.652  26.222  27.713  0.1876 -0.1337  0.0134
45563W        W46427  21.017  12.342  21.049 -0.4342  0.0345  0.0164
45564W        W46428  28.330  22.603  17.191 -0.2162  0.0210  0.0607
45565W        W46429  21.133   2.184  22.124  0.0587  0.1269  0.1811
45566W        W46430  21.208  28.395  17.128  0.3205  0.0173  0.0272
45567W        W46431   7.100  21.886  14.284  0.0719  0.0343 -0.0771
45568W        W46432  13.770  23.382  11.639 -0.2526 -0.1111  0.1237
45569W        W46433   6.396  15.059  26.142  0.0327  0.0008 -0.2016
45570W        W46434  21.391  16.266   8.566  0.0351  0.1122  0.0546
45571W        W46435  14.676   5.240  20.085  0.1152 -0.0537  0.0281
45572W        W46436  13.160  14.638  22.669  0.1347 -0.0555 -0.1536
45573W        W46437  24.428   3.176  22.949  0.1224 -0.1363  0.0069
45574W        W46438  16.420  16.024  18.597 -0.0812 -0.1687  0.0433
45575W        W46439  16.119  11.259  21.237  0.0927  0.1743 -0.1971
45576W        W46440  20.065  21.493  21.814  0.0833 -0.0242  0.1153
45577W        W46441   4.043  28.508   8.517  0.3958  0.1047 -0.1235
45578W        W46442  14.796   4.330   9.330  0.0641 -0.1067  0.0689
45579W        W46443  13.537   3.300  14.618 -0.0155  0.1982 -0.1841
45580W        W46444  22.115  16.648  10.762  0.1078  0.0317  0.1331
45581W        W46445  26.425  13.620  24.691 -0.2373  0.2498  0.0506
45582W        W46446  17.774  11.534  16.185 -0.1031 -0.0476 -0.3992
45583W        W46447   7.009  16.821   5.226  0.0343 -0.1729  0.1164
45584W        W46448   0.074   1.801  18.381 -0.0727 -0.1864 -0.2779
45585W        W46449  15.465  26.924  22.474 -0.1220 -0.0840 -0.0365
45586W        W46450   5.585   0.873  12.522 -0.3461 -0.4564  0.2844
45587W        W46451  20.976  26.164   6.822 -0.0989  0.1115  0.1228
45588W        W46452   9.646  19.979  21.278 -0.2631 -0.1410 -0.0433
45589W        W46453  17.268  12.596  24.581  0.1832 -0.2989  0.0539
45590W        W46454   2.165  15.259   5.463  0.1900  0.2431 -0.0382
45591W        W46455  18.496  29.029  16.226 -0.1789 -0.1375  0.0389
45592W        W46456   4.422  23.000   8.921 -0.1468 -0.0369  0.0077
45593W        W46457  21.178  18.014  14.525 -0.0236 -0.2290 -0.0003
45594W        W46458   9.971  15.723   2.003 -0.0389 -0.0113  0.2395
45595W        W46459  18.445  13.488  16.083  0.1091  0.0784  0.1303
45596W        W46460  28.875   3.161   8.758  0.1091 -0.0378 -0.2113
45597W        W46461  12.463  17.729  24.932 -0.1864 -0.0306  0.0719
45598W        W46462  15.962   1.387  18.227 -0.1253 -0.2195  0.3304
45599W        W46463   2.138  15.676   1.856  0.0423  0.3885 -0.1955
45600W        W46464  19.955   6.424  15.882  0.0116  0.0555 -0.0839
45601W        W46465  22.755   4.069  28.217 -0.2452  0.0488  0.0611
45602W        W46466  20.517  20.395  19.228 -0.2238 -0.1778 -0.0726
45603W        W46467  15.627  15.032  23.007  0.1811 -0.3617  0.0186
45604W        W46468   3.121  24.760  25.030 -0.1585 -0.0424  0.2078
45605W        W46469   7.390  21.620   5.199  0.2732  0.2858  0.1288
45606W        W46470  17.135   6.653  26.960  0.0195  0.1841 -0.0618
45607W        W46471   7.597  25.950  13.327 -0.1561 -0.2933  0.0840
45608W        W46472  23.496  11.191   2.925  0.0422  0.1987 -0.3786
45609W        W46473  16.266  20.737   0.779 -0.0364 -0.3230  0.3260
45610W        W46474  28.421  22.709   2.982 -0.1441  0.0368 -0.1198
45611W        W46475  26.584  21.688   9.520 -0.0982  0.4462 -0.0483
45612W        W46476  23.446   9.783  20.736  0.0917 -0.1570  0.2571
45613W        W46477  13.849  10.329  29.015  0.3747 -0.2545 -0.0333
45614W        W46478   4.874  26.384  17.592 -0.0977 -0.1380  0.0816
45615W        W46479   0.117   4.689   2.773 -0.0596 -0.2938 -0.0620
45616W        W46480  10.846  11.061  14.524  0.0172  0.0710 -0.0685
45617W        W46481   5.413  10.152   4.733 -0.0004  0.0060 -0.0674
45618W        W46482  22.707  10.298   3.408 -0.0424  0.1854 -0.2434
45619W        W46483   5.736  12.422   1.039  0.0860 -0.1263  0.2721
45620W        W46484   3.094   3.286  17.629  0.0224  0.2055  0.0712
45621W        W46485   9.862  17.362  14.008 -0.2234 -0.4037  0.2707
45622W        W46486   2.377  15.477  16.638  0.1963  0.0408  0.1399
45623W        W46487  23.235   5.913  20.079 -0.1151  0.0030 -0.0219
45624W        W46488   9.538  16.817  20.746 -0.0714 -0.1653  0.2953
45625W        W46489  14.974   5.453   3.255 -0.0606  0.0151  0.1385
45626W        W46490   3.779  25.937   9.345 -0.0704 -0.0250  0.0485
45627W        W46491  13.295  14.052  20.828  0.0403  0.0058 -0.1338
45628W        W46492  14.950  15.852   6.524 -0.4092  0.1016  0.1126
45629W        W46493  15.591  28.924  20.940  0.0027 -0.2119 -0.0794
45630W        W46494  15.842  22.791   2.799 -0.0496 -0.1918 -0.0854
45631W        W46495  22.885  15.673  10.263  0.0583 -0.2141  0.0787
45632W        W46496  19.613  28.977  14.406 -0.0264 -0.2179 -0.2360
45633W        W46497  14.187  21.852  18.301 -0.1653 -0.0782 -0.2534
45634W        W46498   2.840  24.275   6.928  0.0350  0.0701 -0.1007
45635W        W46499  14.020   2.143   7.207 -0.2034 -0.2085 -0.1122
45636W        W46500  12.909  25.696  15.767  0.4108  0.1699 -0.2476
45637W        W46501  26.632  13.212  27.092  0.1345  0.0033  0.0109
45638W        W46502  17.523  23.127  22.361 -0.1289  0.1694 -0.1195
45639W        W46503   7.639  16.155  14.152 -0.3667  0.4015 -0.0700
45640W        W46504  11.394  22.922   0.315  0.1049  0.3245  0.1203
45641W        W46505   6.642  14.283  15.077 -0.3444  0.1546 -0.0119
45642W        W46506   8.622  27.247  11.190 -0.1181  0.0868  0.2888
45643W        W46507   7.237   0.274  21.812 -0.0380  0.0160  0.1147
45644W        W46508  26.059   7.181  20.760  0.0500  0.0102  0.3378
45645W        W46509  22.788   8.612  22.149  0.1425 -0.2786  0.1554
45646W        W46510  12.370  21.208   1.905 -0.1849  0.1982  0.1239
45647W        W46511  22.977  21.351   8.474  0.0044  0.1019  0.1312
45648W        W46512  20.390   2.985  16.481  0.1186 -0.2445 -0.1167
45649W        W46513   0.065  18.065   3.997  0.0608  0.0628  0.3233
45650W        W46514  25.220  27.450  10.482 -0.2408  0.0594 -0.0569
45651W        W46515  22.458  26.874   0.700 -0.1732 -0.2545 -0.2913
45652W        W46516   8.785  17.294   2.911  0.0933 -0.0870  0.0691
45653W        W46517  10.082  13.410  25.777  0.0745  0.0219  0.0851
45654W        W46518   1.478  14.908  23.071 -0.1866 -0.1752  0.1224
45655W        W46519  26.358   6.712  20.607  0.2658  0.1157 -0.1732
45656W        W46520  26.206   0.226   9.672 -0.1309  0.0430  0.0322
45657W        W46521  14.096  12.325   9.304 -0.4276  0.0568 -0.1321
45658W        W46522   0.482  23.554  20.563  0.2720 -0.0172 -0.2375
45659W        W46523  11.282  10.722  16.081 -0.0178 -0.0203  0.0975
45660W        W46524  15.774  18.077  24.829  0.0317  0.1911 -0.1854
45661W        W46525   9.383  28.258  21.354 -0.1685  0.0962 -0.0342
45662W        W46526   5.841  23.272  21.013 -0.2380  0.0404  0.1207
45663W        W46527  22.004  18.660  19.472 -0.0542  0.0135 -0.1594
45664W        W46528   7.216  19.379  11.453 -0.3464  0.3011  0.1728
45665W        W46529  13.578  11.445  22.971 -0.3128  0.0677  0.0997
45666W        W46530  15.094  28.540  26.914  0.0733 -0.1904  0.0322
45667W        W46531  11.814  28.007   8.711  0.0119  0.0491 -0.1301
45668W        W46532   7.143  22.973   0.691  0.1495  0.5023  0.0101
45669W        W46533  21.763  28.558  19.166  0.3348 -0.0093 -0.0406
45670W        W46534  20.977  17.273  18.980 -0.2086  0.0130 -0.2669
45671W        W46535  17.781  26.639  16.308 -0.1829  0.4120  0.0829
45672W        W46536  22.007  14.224   7.166 -0.1121  0.2028 -0.0184
45673W        W46537  18.608  25.848  24.909  0.0781  0.0643  0.0737
45674W        W46538  23.374  19.757  20.482 -0.0697  0.1165  0.1122
45675W        W46539   5.518  10.459  19.214 -0.1593 -0.2655 -0.0624
45676W        W46540  17.443  17.981  14.985  0.0191 -0.0716 -0.2285
45677W        W46541  17.329  28.547  23.385 -0.0235  0.0168  0.3602
45678W        W46542  19.537  11.022   6.704  0.1460  0.2499  0.1777
45679W        W46543  27.054   6.708   1.649  0.1629 -0.3463 -0.2851
45680W        W46544   8.635  23.747   2.441 -0.0770  0.0301  0.1975
45681W        W46545  10.474  12.545   4.284  0.3465  0.2011  0.2275
45682W        W46546  11.352  14.220   9.799  0.1713  0.3789 -0.1843
45683W        W46547  16.771  22.882  19.419 -0.2147 -0.0294  0.0265
45684W        W46548   9.426  24.225   6.268 -0.0277 -0.0027 -0.1340
45685W        W46549  10.186  21.075  12.410 -0.1529  0.3970  0.2313
45686W        W46550   2.441  13.447  26.947  0.3625  0.1699 -0.0553
45687W        W46551  15.805  24.869   8.512 -0.1232 -0.2051 -0.2204
45688W        W46552   4.315   3.088  13.522  0.1460  0.0514 -0.2312
45689W        W46553  20.461  22.451  13.429  0.0603  0.1550 -0.1538
45690W        W46554   9.340  19.801   1.696  0.0508  0.0429  0.2808
45691W        W46555  19.909  28.736  22.650 -0.1444  0.0020  0.1514
45692W        W46556  19.487  25.824   4.860 -0.0332 -0.1576 -0.1498
45693W        W46557  20.257  22.257  21.433  0.1513  0.0709 -0.1385
45694W        W46558  23.361  12.861  20.359  0.0153 -0.0353 -0.0380
45695W        W46559  26.310  22.401   7.464  0.1953 -0.1083 -0.1308
45696W        W46560  17.449  18.928  28.728  0.2589  0.0112 -0.0601
45697W        W46561  20.703   5.468   8.732  0.0512 -0.1200 -0.0322
45698W        W46562  23.892  27.809  21.084  0.0269  0.0237 -0.3119
45699W        W46563  19.029   8.805   5.978 -0.0918 -0.0083  0.0153
45700W        W46564  22.144  10.039  16.322  0.1394  0.1708  0.2096
45701W        W46565  27.181  26.667   8.315 -0.1748  0.5188 -0.0700
45702W        W46566   0.023  12.186   4.025  0.0396 -0.3240  0.0221
45703W        W46567   0.647  28.924  14.906  0.0185 -0.0698 -0.1847
45704W        W46568  21.675  27.631  16.467 -0.2540  0.0611  0.2628
45705W        W46569  10.214  25.280  16.699 -0.2411 -0.3085  0.1904
45706W        W46570  20.797  22.587   5.182 -0.0309  0.3077  0.2294
45707W        W46571  11.550   4.072  19.809 -0.0121  0.0226 -0.1342
45708W        W46572  21.721  18.964  23.193  0.0029 -0.2723 -0.1017
45709W        W46573   0.099  12.548  16.858  0.0531 -0.0082 -0.3839
45710W        W46574  24.998  23.457  10.273  0.0573  0.0430 -0.0297
45711W        W46575  14.167   7.535  13.745  0.0929 -0.1690  0.4233
45712W        W46576  11.177  28.709  18.756 -0.3228 -0.0358  0.0071
45713W        W46577  20.115  10.373  23.114  0.0857 -0.0976 -0.1344
45714W        W46578  12.554  24.287  14.618 -0.0249 -0.2985 -0.1312
45715W        W46579  21.433  12.040   6.497  0.0181 -0.0033  0.1518
45716W        W46580  25.711  21.179  11.356  0.0556 -0.2485 -0.2598
45717W        W46581   0.839  21.623  22.664 -0.0516 -0.0989 -0.2568
45718W        W46582   6.581  23.226  17.033 -0.2391  0.0559  0.0965
45719W        W46583  12.766  26.422  15.948  0.0995  0.0015 -0.1262
45720W        W46584  10.634   7.387   2.834 -0.2161  0.1382  0.2286
45721W        W46585   0.718   6.695   6.169  0.2153  0.1896 -0.0827
45722W        W46586  14.939  13.173  13.336  0.0997  0.0544 -0.0759
45723W        W46587  21.810  22.027  23.093 -0.0571 -0.2547 -0.1381
45724W        W46588   7.706   7.109   0.700  0.1806 -0.0812  0.0991
45725W        W46589  22.619  25.063  12.461 -0.1398 -0.0062  0.0454
45726W        W46590  13.964  27.542  16.609  0.0784  0.2401 -0.2292
45727W        W46591  10.285  10.853  16.454  0.4439  0.1095 -0.3514
45728W        W46592  17.473  10.081   0.464  0.0685  0.1187 -0.2468
45729W        W46593  20.060  14.548  22.157  0.1506 -0.0424  0.3243
45730W        W46594  29.055  14.593  22.626  0.1637  0.2446 -0.2886
45731W        W46595  26.050  15.325  23.518  0.1997 -0.2800  0.6086
45732W        W46596  14.874  25.036   6.876  0.2722  0.2579 -0.2307
45733W        W46597   0.487  15.954   3.529  0.1657 -0.0477  0.1124
45734W        W46598   2.941  21.532  15.837  0.1986 -0.1513  0.3259
45735W        W46599  18.632  24.843  19.423 -0.1935 -0.1405 -0.2231
45736W        W46600  23.149   9.713  13.632  0.4347  0.2153 -0.1874
45737W        W46601  12.803   5.417  21.495  0.2161  0.0161  0.1818
45738W        W46602   4.118  23.281   8.106 -0.1118  0.0004  0.2880
45739W        W46603  26.559   2.837  18.399 -0.0793 -0.2083 -0.0489
45740W        W46604  21.013  10.839  20.703 -0.3406 -0.1317  0.0436
45741W        W46605  19.945  28.033  16.439 -0.2429 -0.0653 -0.1637
45742W        W46606  12.542  19.009   6.196  0.0050 -0.1240 -0.1843
45743W        W46607   7.746  19.530   2.872  0.0823 -0.0001 -0.2703
45744W        W46608  15.453  25.516  12.587  0.1411  0.0717 -0.2314
45745W        W46609  24.376  14.606  12.820 -0.0617 -0.0116  0.0947
45746W        W46610  12.444  24.053   2.597  0.2877  0.1412  0.0696
45747W        W46611   0.776  27.577  17.217  0.0031  0.2125 -0.0019
45748W        W46612  22.145  19.384   7.324  0.0773 -0.1355 -0.3735
45749W        W46613   7.028   1.764  14.762 -0.3586 -0.0454 -0.0555
45750W        W46614  13.832  12.210  11.222  0.0213 -0.2228  0.0526
45751W        W46615  22.850  18.412  21.861  0.0242  0.0967  0.1236
45752W        W46616  17.583   7.548  12.300  0.1597 -0.0058 -0.0747
45753W        W46617   9.631  28.165   5.065  0.1314 -0.0710  0.0112
45754W        W46618  20.937  25.863  15.210  0.1333 -0.1209 -0.3540
45755W        W46619  12.363   5.579   9.353 -0.2349  0.1076 -0.2760
45756W        W46620   3.764  10.644   3.504 -0.1449 -0.1364 -0.0327
45757W        W46621  26.294   4.270   2.107  0.0219 -0.0009 -0.1592
45758W        W46622  25.579  22.757  25.327  0.0241  0.0448  0.2037
45759W        W46623  17.942  28.093   3.327 -0.3683 -0.0651 -0.1736
45760W        W46624  22.408  14.905   4.708  0.1324  0.2254 -0.3405
45761W        W46625  28.440   9.652  14.794 -0.1664 -0.0022  0.1065
45762W        W46626   6.255  25.768  16.146 -0.3086  0.1559  0.1301
45763W        W46627   8.260  22.816  11.989 -0.0916 -0.1868  0.1587
45764W        W46628  10.688   3.735  20.865 -0.1108  0.0933  0.1290
45765W        W46629  12.513  13.449  26.293 -0.3702 -0.2066  0.5451
45766W        W46630   1.142  14.870  14.837  0.5182 -0.3498  0.0851
45767W        W46631  18.109  23.113  26.950  0.0133 -0.0779  0.0725
45768W        W46632  24.130   6.642  15.000 -0.2533 -0.0636 -0.0973
45769W        W46633   8.216   5.150   4.227  0.1706 -0.0072 -0.3145
45770W        W46634   4.375  24.036  21.677 -0.1047  0.0197 -0.0619
45771W        W46635  24.946  21.170  23.847 -0.2163 -0.0167  0.1178
45772W        W46636  12.818  11.200   6.882 -0.0650 -0.0720 -0.1948
45773W        W46637  21.431  11.962  12.943  0.0050 -0.0824 -0.2102
45774W        W46638   8.545  22.831  20.222  0.1742  0.0265  0.0368
45775W        W46639   1.317  11.733   5.376 -0.1752 -0.0820 -0.1252
45776W        W46640  24.065   5.462  19.454 -0.0258 -0.1973 -0.0016
45777W        W46641  17.926   9.052  15.657 -0.1951 -0.0015 -0.0236
45778W        W46642  17.455  28.496  18.534 -0.3990  0.0160  0.0165
45779W        W46643   3.579  23.053  13.181  0.1756 -0.1384 -0.0403
45780W        W46644  11.496  26.694  19.435 -0.0647  0.0217  0.0105
45781W        W46645  20.983  18.035  25.524  0.0609 -0.0414  0.2123
45782W        W46646  22.044  20.129  16.608  0.3098  0.1037 -0.0786
45783W        W46647  22.319   9.982   0.261 -0.1930 -0.1487  0.0883
45784W        W46648  22.296  23.894   1.807  0.2478  0.0959  0.3094
45785W        W46649  18.883  15.069  11.888  0.1514  0.2102  0.0475
45786W        W46650  20.636  25.894  16.349 -0.1994  0.2199  0.1547
45787W        W46651  18.454  12.551  18.063  0.2167 -0.2636 -0.0289
45788W        W46652  15.714  15.087  17.878  0.5074 -0.1428  0.2678
45789W        W46653  22.257  21.266  22.904 -0.0119  0.0634  0.3912
45790W        W46654  26.350  27.366  13.372 -0.2691 -0.0967  0.0771
45791W        W46655   2.570  25.580   6.065 -0.3709  0.0497  0.0810
45792W        W46656  17.048  28.343   8.118  0.0398 -0.0090  0.0075
45793W        W46657  26.036  13.883  22.249 -0.1203  0.1515  0.2099
45794W        W46658  17.383  26.341  10.138 -0.2000  0.0419 -0.0453
45795W        W46659  10.323  24.911  17.070 -0.0524 -0.0325 -0.0080
45796W        W46660  20.304   6.809  25.807 -0.1013 -0.0698  0.1086
45797W        W46661  12.384  24.365  12.442 -0.0697 -0.4004 -0.0736
45798W        W46662  20.392   9.561  10.721 -0.1579 -0.1312 -0.1900
45799W        W46663   6.313  18.977  26.640  0.0020  0.3456 -0.1360
45800W        W46664   0.785  27.426  22.232  0.0388 -0.1772 -0.1369
45801W        W46665   7.613  18.919  11.429  0.0423 -0.0331 -0.1234
45802W        W46666  21.823   9.805   0.364 -0.0279 -0.2834  0.2069
45803W        W46667  12.558  14.340   6.630 -0.0296 -0.1147  0.4095
45804W        W46668   7.989   8.288  20.414  0.0121  0.0180  0.0936
45805W        W46669   7.438  17.047  10.847 -0.1364 -0.1937 -0.1040
45806W        W46670   7.000  16.945  15.022  0.1443 -0.2970 -0.0624
45807W        W46671   5.801  15.103  20.966 -0.1868 -0.0391 -0.1108
45808W        W46672   2.932  18.441  24.659 -0.1992 -0.3858 -0.2725
45809W        W46673   3.612   8.218   1.198 -0.1428  0.2285  0.0826
45810W        W46674  10.754  25.563  25.403  0.0293  0.1524  0.1061
45811W        W46675  24.548   3.635  22.640  0.0460 -0.4138  0.1295
45812W        W46676  15.091   0.109  22.270 -0.3205  0.0579 -0.0803
45813W        W46677   4.906  27.168  12.483 -0.1241  0.2779 -0.3963
45814W        W46678  24.949  11.916  11.056 -0.0344 -0.1165 -0.1775
45815W        W46679   9.604  15.712  27.733 -0.2574  0.0569 -0.1778
45816W        W46680   7.130   0.763   3.291 -0.0115  0.3771  0.0159
45817W        W46681   1.023   8.998   0.329  0.1130 -0.0537  0.1004
45818W        W46682  12.941  19.849  15.484  0.1039 -0.1450 -0.1993
45819W        W46683  28.413  25.698   3.999 -0.1086 -0.1220  0.3060
45820W        W46684   1.272  19.554  25.673 -0.1234  0.2827  0.2749
45821W        W46685  12.283  27.603   9.610 -0.1367 -0.1136  0.0075
45822W        W46686  28.820  18.480  27.769  0.1195  0.0300  0.4112
45823W        W46687   3.111  23.193  13.954 -0.0239 -0.2475 -0.1396
45824W        W46688  23.060  24.441  13.231 -0.3634 -0.1965 -0.2559
45825W        W46689   6.228  15.455   7.212  0.0046 -0.0158 -0.1431
45826W        W46690  19.002   4.246   2.429 -0.2776  0.0791 -0.0635
45827W        W46691  19.348  18.199  25.159 -0.0697  0.1385 -0.1974
45828W        W46692  23.866   5.622   2.411 -0.0942 -0.1747 -0.0630
45829W        W46693  16.495  25.170  11.546  0.0025 -0.3139  0.1203
45830W        W46694  17.634  26.742  22.277 -0.2950  0.0227  0.1018
45831W        W46695   2.520  19.694  21.893 -0.1359 -0.1907 -0.3896
45832W        W46696   6.187   3.512   3.120  0.4748  0.0797 -0.2365
45833W        W46697   9.212  24.751  16.914  0.3325 -0.4322  0.0749
45834W        W46698   9.915  20.436  12.045 -0.1579 -0.1926 -0.0459
45835W        W46699   5.772  14.806  18.493  0.1020 -0.0736 -0.1890
45836W        W46700  19.102   5.798  27.013 -0.3197 -0.2885 -0.3109
45837W        W46701  22.331  22.231   6.135 -0.0174  0.2100  0.1526
45838W        W46702  21.695  21.912   9.734  0.1491 -0.1108 -0.0548
45839W        W46703  27.374  26.378  27.711 -0.1849  0.0142  0.0546
45840W        W46704   9.029  15.587  16.582 -0.1194 -0.2885 -0.0599
45841W        W46705   3.633  10.608   9.347 -0.5018 -0.0005  0.3847
45842W        W46706  27.327  14.685  20.141 -0.1072 -0.2644 -0.1452
45843W        W46707   1.624   2.604  13.794 -0.0713  0.0414 -0.0601
45844W        W46708   1.382  17.949  27.356 -0.1002 -0.0012 -0.1096
45845W        W46709  24.352  22.048  18.122 -0.0272  0.1763  0.0787
45846W        W46710  25.816  15.741  20.913 -0.0517 -0.0568 -0.0728
45847W        W46711   6.323  12.537  24.344  0.0775 -0.2746  0.0312
45848W        W46712   2.559  11.021   3.724  0.0039 -0.2084 -0.1316
45849W        W46713  18.182  28.149  23.621  0.0228 -0.0643  0.2296
45850W        W46714   3.456  27.265  15.964  0.1857 -0.1182 -0.0163
45851W        W46715  25.598  26.060  12.506  0.1147 -0.1037  0.4496
45852W        W46716  11.069  13.951  13.336 -0.4727 -0.0376 -0.1111
45853W        W46717  16.798  26.117   6.842  0.0539  0.3519  0.1620
45854W        W46718   4.771   4.541   7.990  0.0459  0.2755 -0.0821
45855W        W46719  14.764  16.545  21.926  0.2607 -0.2007  0.1828
45856W        W46720   9.062  24.969  11.167  0.0745  0.0043 -0.2115
45857W        W46721  29.137  18.405  18.051  0.2848  0.0416 -0.1985
45858W        W46722  18.124   9.222   9.265 -0.0734 -0.0738 -0.1593
45859W        W46723  22.820  17.893  16.978 -0.0833  0.0704  0.3746
45860W        W46724  21.980   9.165   2.710 -0.1383 -0.1031  0.1563
45861W        W46725  13.918  10.285   7.045 -0.0863  0.2200  0.3102
45862W        W46726  25.968  22.531   5.125 -0.1494 -0.3548  0.1761
45863W        W46727  13.232  22.237  19.329 -0.2030 -0.0547 -0.1168
45864W        W46728  28.810  21.678   3.072 -0.1399  0.1956  0.0169
45865W        W46729   1.089  17.496  14.301 -0.0246  0.0727 -0.0613
45866W        W46730  18.830  25.380  25.033 -0.1475 -0.1003 -0.1879
45867W        W46731   5.526  16.856  12.207 -0.1263 -0.2662 -0.1937
45868W        W46732   1.272  28.516  12.454 -0.2088 -0.1154  0.1497
45869W        W46733  23.095   3.945   7.583  0.3087  0.2984  0.4960
45870W        W46734   4.575  20.782   1.416 -0.0997 -0.0910 -0.0690
45871W        W46735  28.764  14.786  28.588 -0.1077  0.2972 -0.0970
45872W        W46736  12.604  13.633   7.331  0.2043  0.0178 -0.3349
45873W        W46737  17.524  21.405   2.863  0.1756  0.2592  0.2812
45874W        W46738  17.387   4.698  17.818  0.0451  0.1252  0.0376
45875W        W46739  24.048   5.645  26.553 -0.1289  0.0263 -0.0461
45876W        W46740  17.494   0.199  11.403 -0.0033 -0.2882  0.0895
45877W        W46741   4.020  11.929  12.560  0.1206 -0.1557  0.0801
45878W        W46742  20.743  13.814  15.508  0.0195 -0.2574 -0.2137
45879W        W46743  18.323  25.500   1.895 -0.1608  0.1250 -0.2771
45880W        W46744  15.730   3.091  12.664  0.1855  0.0797 -0.2538
45881W        W46745  26.849  13.530  11.661  0.1047  0.0253  0.1829
45882W        W46746  16.378  18.507  16.104  0.1306 -0.0094 -0.1445
45883W        W46747   2.248  16.908  19.817 -0.0907  0.1667  0.2655
45884W        W46748  15.423   4.777  15.718 -0.1893  0.1388 -0.3123
45885W        W46749  20.223  27.940  19.810  0.3405  0.0103 -0.0022
45886W        W46750  25.630  21.296  15.561 -0.2833 -0.0479 -0.0364
45887W        W46751  11.207   7.253  15.958  0.2201 -0.0463 -0.1989
45888W        W46752  11.334  13.992  22.071  0.2420  0.1020  0.0630
45889W        W46753  18.833   0.296  15.366  0.2325  0.5400 -0.1992
45890W        W46754   2.505   6.368   7.183  0.1984  0.3500 -0.0057
45891W        W46755   2.306  25.975  17.182 -0.2450  0.1135 -0.0811
45892W        W46756   4.962  10.857  11.219 -0.1266  0.1781 -0.0952
45893W        W46757   8.113   9.803  13.667 -0.0665  0.0428 -0.1040
45894W        W46758  22.043   0.525   4.389 -0.0943 -0.0606 -0.0966
45895W        W46759   5.876  25.058   4.707  0.1840  0.1806 -0.1960
45896W        W46760  10.466  22.393  16.158 -0.2122 -0.2256  0.0371
45897W        W46761  10.880   2.487   8.377 -0.1015 -0.0521  0.3597
45898W        W46762  18.384  13.659  27.125  0.0802 -0.1985  0.1792
45899W        W46763   4.310  25.719  20.354 -0.1854  0.1240 -0.1809
45900W        W46764  14.177   3.383  27.182  0.2121  0.2046  0.0448
45901W        W46765  19.747   3.102   0.003 -0.3349  0.1303 -0.0010
45902W        W46766   2.449  24.953  21.863 -0.0816 -0.1275 -0.0067
45903W        W46767  23.491  18.078   2.860 -0.0628 -0.0089  0.0760
45904W        W46768   9.739  13.223  23.197  0.0851  0.0350 -0.1479
45905W        W46769  18.914   7.117  17.831  0.2146 -0.2617 -0.0525
45906W        W46770  12.838  25.935  14.797  0.0246  0.0339  0.1125
45907W        W46771  19.223   5.050  23.211  0.0877 -0.0960 -0.0074
45908W        W46772  13.540  10.454  13.853 -0.2570  0.3310 -0.1211
45909W        W46773   1.797  17.358   0.258 -0.0405  0.0379 -0.0033
45910W        W46774  19.364  16.789  23.250  0.0407 -0.0904 -0.4064
45911W        W46775  18.124  19.210   4.846  0.0818  0.0317  0.1382
45912W        W46776  25.231  21.960  11.554 -0.1646  0.0570  0.2827
45913W        W46777  19.504   6.496  20.211 -0.0364 -0.1370  0.0743
45914W        W46778  17.844   3.571  13.805 -0.1025 -0.1173  0.1745
45915W        W46779  14.163   1.688  15.314  0.0913 -0.1689 -0.2956
45916W        W46780  28.888  21.971   4.960  0.3605 -0.0815  0.1696
45917W        W46781  15.187   0.930  12.368  0.0037  0.1897 -0.0872
45918W        W46782  20.722  18.508  21.947 -0.4395  0.0289  0.1182
45919W        W46783   7.163   3.941  13.820 -0.3352  0.1217 -0.0411
45920W        W46784  23.928  17.834   2.941 -0.0693  0.4745 -0.1839
45921W        W46785  19.810  14.742   0.355  0.0406  0.1790 -0.2380
45922W        W46786   7.609   0.208  16.436 -0.5441 -0.0242  0.1741
45923W        W46787   9.721  18.777   0.882  0.0068 -0.0505 -0.2104
45924W        W46788  22.029   8.499  20.223 -0.2814 -0.1639  0.1076
45925W        W46789   1.369   3.097   3.970 -0.0867 -0.0827 -0.0558
45926W        W46790  12.291  14.346  21.075  0.0920 -0.0134 -0.2193
45927W        W46791  27.290  29.065  27.227 -0.3703  0.1765 -0.0532
45928W        W46792  11.073  15.063  22.113  0.0270  0.0052  0.1709
45929W        W46793  10.777   4.904  18.794  0.4329 -0.0137 -0.0386
45930W        W46794  15.403  26.120   8.854  0.1448  0.0004  0.1674
45931W        W46795  14.700  20.922  11.340 -0.0835 -0.1244 -0.1883
45932W        W46796  12.520  24.673   9.305  0.0270  0.2618 -0.2545
45933W        W46797  13.154  21.008  13.975  0.1391  0.0225 -0.1981
45934W        W46798  12.969  24.284  14.265  0.1902 -0.2784  0.0686
45935W        W46799   4.739  12.628   6.020 -0.2981  0.2349  0.1023
45936W        W46800  17.629  28.700   7.654  0.0647  0.0283 -0.0453
45937W        W46801  22.427  21.868  19.457 -0.2515 -0.3093 -0.1959
45938W        W46802   6.488  22.783   3.107  0.0424  0.0501  0.1570
45939W        W46803  16.467  17.632  28.866 -0.1974  0.1188 -0.2424
45940W        W46804  26.354  17.562  28.316  0.1604  0.3162  0.0741
45941W        W46805  14.951  27.955  25.708  0.0869  0.2555  0.0325
45942W        W46806   6.440  10.883  16.780 -0.3239 -0.0257 -0.1685
45943W        W46807  17.223  12.722  15.831 -0.0707  0.3038 -0.0940
45944W        W46808   2.913   1.326  17.501 -0.1614 -0.3386  0.2754
45945W        W46809   0.607  23.547  17.426 -0.2111  0.0562 -0.2491
45946W        W46810  22.011   8.287  10.093 -0.0390  0.0700  0.0577
45947W        W46811  28.184  12.978  20.051 -0.2285  0.1863 -0.0899
45948W        W46812  23.859  20.228  21.986  0.0993  0.1420  0.2531
45949W        W46813   6.194  23.680  19.478  0.1285  0.0429  0.1566
45950W        W46814  23.203  15.323  19.945  0.0492  0.0707 -0.1849
45951W        W46815  29.084   9.301  14.389  0.1230 -0.0788 -0.1270
45952W        W46816  29.084  25.288   2.002 -0.0494 -0.2121 -0.0623
45953W        W46817   8.898   6.902  16.445  0.0374  0.2045  0.2861
45954W        W46818  19.777  17.639  26.528  0.2313 -0.2339  0.2814
45955W        W46819  10.131  21.685  18.004  0.2143  0.2121  0.3386
45956W        W46820  16.699  20.277  16.584 -0.1445  0.3605  0.0637
45957W        W46821  23.982   2.449  22.588  0.2330 -0.0010 -0.0532
45958W        W46822  23.843  24.427   4.282 -0.0481  0.0549  0.0081
45959W        W46823  14.677  11.282  25.895 -0.2729 -0.1096 -0.1658
45960W        W46824   0.483   7.301  26.757  0.2536  0.0912 -0.0559
45961W        W46825  27.377  26.700  19.519  0.1311 -0.1724  0.1169
45962W        W46826  11.436  25.770   2.581  0.1553  0.1133 -0.1879
45963W        W46827  25.482  22.223  28.276 -0.0482 -0.3076 -0.0269
45964W        W46828  18.336  19.192   1.287 -0.1940  0.1275  0.1165
45965W        W46829  17.568  19.950  15.478  0.0503  0.1282  0.2341
45966W        W46830   0.054  22.487  15.317 -0.1849  0.1898  0.2725
45967W        W46831  20.120   3.897  15.106  0.1509  0.1996  0.2056
45968W        W46832   4.221  21.793   7.711  0.2777 -0.1168  0.1123
45969W        W46833   0.650  19.459  25.201 -0.1203 -0.3286  0.0085
45970W        W46834   7.426   3.656  24.996  0.1628  0.1821  0.0290
45971W        W46835  28.972  22.382   6.837 -0.0505  0.0072 -0.4316
45972W        W46836  26.838   7.359  20.243 -0.1448 -0.1221 -0.0892
45973W        W46837  18.004  24.187   5.911 -0.4020  0.1433  0.0639
45974W        W46838  15.316  24.185  21.149  0.2516  0.0679 -0.0833
45975W        W46839  21.083  16.438   0.688 -0.1523  0.1064  0.0337
45976W        W46840  16.689  24.811  10.313 -0.1684 -0.1118 -0.1874
45977W        W46841  28.380   8.450  15.000  0.2374 -0.0185  0.2848
45978W        W46842   5.830  22.388  18.017 -0.0163 -0.1040  0.2588
45979W        W46843   1.328   2.722  18.312 -0.0797 -0.1524  0.0882
45980W        W46844   7.250  23.566   3.894 -0.0074  0.1549 -0.0435
45981W        W46845  15.999  19.495   6.370 -0.0947  0.0077 -0.0635
45982W        W46846  17.188   1.956   1.013 -0.1224 -0.0795  0.3554
45983W        W46847  23.268  19.868   4.314  0.2562 -0.1538 -0.1597
45984W        W46848  19.118   2.402  20.022 -0.3126 -0.0369 -0.1325
45985W        W46849   5.308   9.672   9.350 -0.2293 -0.0872 -0.0004
45986W        W46850  20.393   1.502  19.754 -0.2280 -0.4995 -0.3174
45987W        W46851  28.352   3.632   3.974  0.0307  0.0916 -0.0521
45988W        W46852   4.471  21.633  12.735 -0.0808  0.3285  0.1507
45989W        W46853  25.334  22.261  15.517  0.1970 -0.0316 -0.0016
45990W        W46854  18.515  23.389  10.240  0.1553  0.5277  0.1336
45991W        W46855   9.393  16.340  21.367 -0.0422 -0.2058  0.2575
45992W        W46856  15.799   3.705  22.403  0.2348 -0.0230  0.1132
45993W        W46857  14.036   2.073  19.564 -0.0205 -0.2729 -0.1057
45994W        W46858  16.058  19.302   5.048  0.2920  0.1490  0.0026
45995W        W46859  17.564  28.038   8.416  0.3645  0.4069 -0.0664
45996W        W46860  11.396  18.025  13.189  0.0997 -0.1610 -0.0842
45997W        W46861  13.049   3.195  14.593  0.2121  0.0951 -0.1055
45998W        W46862  20.382  26.407   3.355 -0.1993  0.2177 -0.0856
45999W        W46863  21.541  18.232  28.599 -0.3539 -0.2283  0.0353
46000W        W46864   2.211  25.342  17.745  0.1579  0.1124  0.0339
46001W        W46865  20.841  22.844  19.768  0.0527  0.2154  0.1670
46002W        W46866  20.062  16.260   0.372  0.2191  0.0159 -0.1833
46003W        W46867  21.800   3.405  16.950 -0.3925 -0.2122  0.0306
46004W        W46868   3.236  14.407  28.756 -0.0288  0.1403  0.2456
46005W        W46869   2.115  16.878   2.839 -0.1370 -0.0722  0.1216
46006W        W46870  22.347  19.163  14.154  0.1282 -0.1867  0.1306
46007W        W46871  13.433  24.305  20.143 -0.1187  0.1517 -0.3073
46008W        W46872   6.066  21.437  16.296  0.1622  0.0781 -0.0826
46009W        W46873  19.345   7.351  17.698 -0.1102 -0.0549 -0.3409
46010W        W46874  27.979  21.207   2.245 -0.1491  0.0857  0.3332
46011W        W46875  15.852   0.631   6.619  0.3193  0.1398  0.0925
46012W        W46876  24.491  16.870  10.216 -0.0717  0.2264  0.1275
46013W        W46877  17.239   9.947  15.779  0.0876 -0.0648 -0.0405
46014W        W46878  15.988  13.145   0.237 -0.1747  0.3303  0.1109
46015W        W46879  23.412  28.212  12.671 -0.4107 -0.1892  0.3021
46016W        W46880  15.335  14.911   1.208 -0.0154 -0.1564 -0.1758
46017W        W46881  18.546  23.168  12.390  0.0629  0.3048  0.0175
46018W        W46882  18.325   8.560  15.291 -0.2128 -0.0470  0.0642
46019W        W46883  24.117  25.454  15.591 -0.0279  0.2366  0.1904
46020W        W46884  25.019  26.902  14.635  0.1029 -0.0058 -0.1017
46021W        W46885  11.194  12.156  24.271 -0.0753  0.0334  0.3047
46022W        W46886  27.896   9.281  19.403  0.0434  0.2371  0.1166
46023W        W46887  24.666  21.686  19.000  0.0588 -0.0295  0.0577
46024W        W46888  23.437  15.884  20.437  0.1607  0.0295  0.1239
46025W        W46889   8.317  17.691  24.210 -0.0494 -0.0818 -0.2476
46026W        W46890  13.718   7.977  19.919 -0.1971 -0.1530 -0.0494
46027W        W46891  15.514  21.249  22.390 -0.1344 -0.0615  0.1064
46028W        W46892  23.513  15.945  14.696 -0.2100 -0.2689  0.1322
46029W        W46893   1.934  17.043  20.825 -0.1708 -0.3583 -0.2720
46030W        W46894  10.695  27.227   5.165 -0.3554 -0.1131 -0.0193
46031W        W46895  19.348  27.176   3.545  0.1980 -0.0339 -0.0733
46032W        W46896  15.797  13.255  20.120  0.1941  0.1243  0.1343
46033W        W46897  23.068  15.850  16.780  0.1368  0.0256 -0.2351
46034W        W46898   0.960  12.324  21.203  0.0039  0.2723 -0.0717
46035W        W46899  17.105  23.393  17.118  0.0693 -0.1404 -0.2131
46036W        W46900  21.960   0.826   9.315 -0.2367  0.0092 -0.1903
46037W        W46901  11.728  19.082  13.189  0.2160  0.0508  0.2487
46038W        W46902   4.615  11.966  12.023 -0.4644  0.1963 -0.1583
46039W        W46903  11.612   0.357  24.545 -0.1194 -0.0616 -0.0123
46040W        W46904  17.731  27.090  24.027 -0.0154  0.0083  0.3270
46041W        W46905  22.309  16.391   6.731 -0.0298  0.1349 -0.1889
46042W        W46906   4.302   4.600  14.950 -0.3473 -0.0242  0.2099
46043W        W46907  21.225   7.890  20.794  0.0740 -0.1449 -0.0721
46044W        W46908  25.348   4.097  20.063  0.0191 -0.2027 -0.1420
46045W        W46909  27.275  19.412  14.582 -0.1356 -0.0375  0.0446
46046W        W46910   3.734  15.157  28.445 -0.2914 -0.0784  0.0864
46047W        W46911  12.561  13.520  24.739 -0.2623 -0.3887  0.0679
46048W        W46912   0.000   8.445   7.065  0.1966  0.1728 -0.1003
46049W        W46913   5.023   9.009  15.074  0.1119  0.3025  0.0050
46050W        W46914  20.220  13.682  22.615 -0.0829  0.2284  0.0574
46051W        W46915  24.392   5.290   1.654 -0.0617 -0.0612 -0.3476
46052W        W46916   9.853  12.031   7.616  0.0176 -0.1647  0.4033
46053W        W46917  19.701  27.910  17.973 -0.0739 -0.0415 -0.2107
46054W        W46918  16.843   1.117  17.187  0.2293 -0.2104 -0.2749
46055W        W46919   9.355  26.501  11.773 -0.2719  0.0945  0.3076
46056W        W46920  26.768  13.990  21.601  0.0341 -0.2346 -0.1979
46057W        W46921  25.359  14.060   2.243  0.0205  0.1091 -0.2571
46058W        W46922  16.192  23.716  18.490 -0.0649  0.0347 -0.1088
46059W        W46923  22.728   0.600  16.249 -0.2976 -0.2058 -0.0416
46060W        W46924  17.173  19.689  22.843  0.0181  0.2704 -0.1482
46061W        W46925  10.768  17.307   9.250  0.1513  0.1474 -0.1783
46062W        W46926   1.527  15.506   2.288  0.2713 -0.3622  0.1758
46063W        W46927  28.249   5.389  17.737 -0.1092  0.0304 -0.2592
46064W        W46928  13.460   3.036  26.820  0.0472 -0.2030  0.0768
46065W        W46929  11.150  20.561   4.559 -0.2737 -0.0068 -0.0178
46066W        W46930   5.871  10.882   9.650  0.0927 -0.1457  0.1546
46067W        W46931  13.607  14.309   3.190  0.0170 -0.3659 -0.3615
46068W        W46932   8.188  25.024  11.384 -0.1297  0.0110  0.0561
46069W        W46933  27.605   9.675   9.317  0.2478 -0.1460  0.0733
46070W        W46934  28.032   0.639   2.329  0.1444  0.1726  0.1108
46071W        W46935   8.537   0.772   1.525 -0.0153 -0.1312 -0.0811
46072W        W46936  17.684  15.448  18.909  0.1897  0.0419 -0.1380
46073W        W46937   1.364  21.487  24.682  0.0264  0.0812 -0.0212
46074W        W46938   1.225   4.751  18.708  0.5383  0.0614  0.1997
46075W        W46939  10.867  21.022  18.721 -0.3366  0.1427  0.2120
46076W        W46940   5.219  26.681  14.636 -0.0630  0.4324 -0.2496
46077W        W46941   9.785  27.895  24.692  0.1174 -0.0372  0.3971
46078W        W46942  19.675  12.830   3.242  0.5965 -0.0607  0.0252
46079W        W46943  17.562   8.704  21.928 -0.2159  0.4422  0.0104
46080W        W46944  22.947  26.133   0.795  0.0359  0.0734  0.0362
46081W        W46945   2.046  18.925  19.427  0.1901 -0.1142  0.1191
46082W        W46946   8.317  13.088   4.807  0.2492  0.1757  0.0589
46083W        W46947   0.133  28.406  17.927 -0.1111  0.0690  0.0595
46084W        W46948  28.414  16.301  14.485 -0.0970 -0.1007  0.1911
46085W        W46949  18.126  14.087   0.816  0.1565  0.0517 -0.0877
46086W        W46950  24.872   6.961   0.371 -0.3121  0.0071 -0.0916
46087W        W46951  27.854  23.172  21.431 -0.1697 -0.1785  0.1720
46088W        W46952  25.020   0.993  15.871  0.1976  0.0215  0.1998
46089W        W46953  25.782  15.093  13.821  0.0525 -0.1778  0.0440
46090W        W46954  28.445   0.102   8.067 -0.0408 -0.4585  0.2173
46091W        W46955  14.991  27.116   0.685 -0.1683  0.1057  0.0022
46092W        W46956   7.939  14.426   8.797  0.0716  0.0267  0.0802
46093W        W46957  11.247  23.734  20.666 -0.2514  0.3078 -0.1281
46094W        W46958  14.222  17.002  12.607  0.1174 -0.1137 -0.0636
46095W        W46959   4.393  10.225   1.136 -0.2331 -0.1293 -0.0631
46096W        W46960  18.501   2.223   1.199  0.0104  0.0226  0.3072
46097W        W46961   5.548  11.568  15.030 -0.3003 -0.1007  0.1000
46098W        W46962   0.837  23.062  17.383  0.3838  0.0448 -0.1609
46099W        W46963  10.050  18.517   4.958  0.0813  0.0130 -0.2593
46100W        W46964  10.512  22.015  28.353  0.2916 -0.2093 -0.2133
46101W        W46965   0.454  23.935   5.941  0.2065  0.1563  0.1446
46102W        W46966  16.269  21.008   1.662 -0.0829 -0.0250 -0.0596
46103W        W46967  15.032  21.990  22.428  0.1519 -0.2372 -0.2920
46104W        W46968   3.802  24.078  14.901 -0.3244 -0.1525 -0.1089
46105W        W46969  17.620   3.456   4.069 -0.2145 -0.0716  0.1036
46106W        W46970  14.678  26.072  21.155  0.0065 -0.0077  0.2843
46107W        W46971  11.327   2.004  23.987  0.1095 -0.0539 -0.0476
46108W        W46972   7.758  11.798  18.982  0.0365  0.1570  0.3391
46109W        W46973  16.286  10.020  27.959  0.3382  0.0332 -0.0214
46110W        W46974   9.135  18.194  24.956  0.0175  0.2233 -0.0049
46111W        W46975  23.466  25.093  22.152 -0.0246 -0.1912 -0.0238
46112W        W46976   3.039  19.001  21.051 -0.0456  0.1333  0.3022
46113W        W46977  16.365  22.451  16.941 -0.2934 -0.2747 -0.2967
46114W        W46978  23.447  18.548   1.513 -0.0114 -0.0744  0.1414
46115W        W46979  19.994   5.010  22.664  0.0133  0.0621  0.0187
46116W        W46980  12.850  14.618   0.968 -0.1715  0.3786  0.0074
46117W        W46981   4.317  16.522   4.975  0.0863  0.1474  0.0842
46118W        W46982  16.417   5.930  19.538 -0.0700  0.1376  0.1385
46119W        W46983  22.832  12.308  27.812 -0.0138  0.2876  0.2117
46120W        W46984  22.900  24.632  15.737 -0.0507 -0.0436 -0.1838
46121W        W46985  13.638  14.999  19.013  0.2154 -0.2761  0.0747
46122W        W46986  19.625  28.026  20.441 -0.0040  0.6174 -0.1691
46123W        W46987  23.141  10.041  12.595 -0.0982 -0.0527 -0.0893
46124W        W46988  17.786  27.958  18.792  0.0568 -0.0210 -0.0393
46125W        W46989  12.082   8.074  21.704  0.0135  0.1685  0.1025
46126W        W46990  24.361  14.691  10.967  0.1135 -0.0894  0.0320
46127W        W46991  26.604  24.179  24.428 -0.0779 -0.1546 -0.0204
46128W        W46992  21.971   4.899   0.159 -0.3188  0.0101 -0.0731
46129W        W46993  25.603  18.273   0.890  0.1872 -0.2761  0.1129
46130W        W46994  11.836   5.251   6.453 -0.0228 -0.1688  0.0064
46131W        W46995   5.814  20.437  11.221 -0.0934 -0.2193  0.0719
46132W        W46996  19.378  22.190  20.295  0.1401 -0.1734 -0.0935
46133W        W46997   7.314  23.245  15.055 -0.0987 -0.0573 -0.3619
46134W        W46998  23.038  13.258  21.388 -0.2730  0.1248 -0.1720
46135W        W46999   1.235  18.247  24.028  0.0331 -0.0350  0.1099
46136W        W47000  22.092   8.267  15.188  0.0748 -0.0018 -0.0358
46137W        W47001  21.517  25.747  15.192 -0.0375  0.0523  0.1925
46138W        W47002  26.998  24.909  28.013  0.0130 -0.2576 -0.1157
46139W        W47003  13.638  16.180  19.004  0.0513 -0.1975  0.2067
46140W        W47004  13.227   6.440  22.264 -0.1181  0.1831 -0.0534
46141W        W47005  11.449  18.522  27.340  0.0311 -0.0789  0.0869
46142W        W47006  16.368  22.248  13.394 -0.0481 -0.0093  0.0842
46143W        W47007  22.814   9.044  22.622  0.4286  0.1177 -0.0902
46144W        W47008  11.416  24.078  17.630  0.0312  0.1328  0.2709
46145W        W47009  11.765  21.074   4.070  0.0382 -0.0392 -0.3346
46146W        W47010  17.523  10.203  22.857 -0.3856 -0.2443 -0.1696
46147W        W47011  26.362  23.433  12.941  0.2254 -0.0096 -0.2015
46148W        W47012  12.131  24.900  19.769 -0.0984 -0.3262  0.1589
46149W        W47013  26.719  17.779  16.470 -0.1930 -0.2148 -0.0221
46150W        W47014  24.905  26.122  16.320  0.1295 -0.1876  0.1334
46151W        W47015   8.257  10.629  25.732 -0.3665 -0.1802  0.2422
46152W        W47016  17.769   4.752  24.401  0.0046  0.1417  0.0185
46153W        W47017  16.743   2.995  21.561  0.2282 -0.2047 -0.1636
46154W        W47018  15.668   2.432  17.062 -0.1184  0.0179  0.2591
46155W        W47019  13.663  21.546   1.040 -0.1568 -0.0518  0.1056
46156W        W47020  18.864   5.699  25.347 -0.2382 -0.0598  0.2793
46157W        W47021  26.228  27.592  18.201  0.0947 -0.2668  0.1146
46158W        W47022   8.937  20.108   8.120 -0.1332  0.0995 -0.0471
46159W        W47023  11.162   7.028  10.646 -0.2979  0.0555  0.0830
46160W        W47024   0.467  25.987  22.933 -0.0117 -0.0075  0.0527
46161W        W47025   9.584  27.260  23.735 -0.2498 -0.3565 -0.1547
46162W        W47026  22.121  25.993  28.665 -0.0490  0.1101  0.0075
46163W        W47027  22.936  20.283  17.509 -0.1085 -0.1775  0.3474
46164W        W47028   7.512  12.054   3.977 -0.0921  0.0269  0.1146
46165W        W47029  22.052  18.371   7.356 -0.0839 -0.1417  0.1954
46166W        W47030  13.261  18.977  18.801 -0.0003 -0.1009 -0.0162
46167W        W47031  19.382  15.585  25.119 -0.1592  0.0889  0.0908
46168W        W47032  28.043  18.721  16.669 -0.1575  0.1867  0.1907
46169W        W47033  27.926  28.117   7.079  0.2526  0.0550 -0.1020
46170W        W47034  20.919  21.505  14.476  0.0005  0.1722 -0.1632
46171W        W47035   9.516  18.938   2.385 -0.1556  0.1804 -0.1319
46172W        W47036  13.103   0.182  18.424  0.1517  0.2721 -0.2932
46173W        W47037   5.943  14.905  26.334  0.0056  0.1052 -0.2153
46174W        W47038  21.258   3.210  13.905  0.1618  0.0505  0.0091
46175W        W47039   6.782   5.658  18.627 -0.1598  0.1373 -0.0863
46176W        W47040   7.079  19.408  22.830 -0.1461  0.0597 -0.2707
46177W        W47041  24.784  28.206   3.901  0.0495  0.1937  0.2944
46178W        W47042   6.960   2.547   7.088  0.2702  0.3006 -0.0274
46179W        W47043  10.749  24.428  17.917  0.0929 -0.0120  0.1422
46180W        W47044  15.122  13.090  20.107  0.3598  0.0620 -0.0499
46181W        W47045  18.461  26.301  26.127  0.0829  0.1266  0.0091
46182W        W47046  12.387   0.895   2.002  0.0587 -0.3291 -0.1990
46183W        W47047  22.104  11.753  28.192  0.1235  0.0885  0.0377
46184W        W47048   7.122  24.152   2.136 -0.0662  0.1270  0.1315
46185W        W47049  13.982   9.372   8.722  0.2596  0.1583 -0.1086
46186W        W47050  16.364   1.289  23.137  0.1077 -0.1146 -0.1118
46187W        W47051  18.250  18.594  24.266  0.2516  0.0195  0.1771
46188W        W47052  23.993  10.774   7.327  0.0076 -0.1653  0.0702
46189W        W47053  18.066  10.139   9.209 -0.2341 -0.1110 -0.3524
46190W        W47054   3.748  12.201  25.898  0.1278 -0.1935  0.2846
46191W        W47055  17.342  18.824  11.164  0.1010 -0.0616  0.2348
46192W        W47056  19.938  27.500   1.607 -0.2682 -0.4206  0.2669
46193W        W47057   8.926  24.235   5.926 -0.1239 -0.0262 -0.1175
46194W        W47058  18.890   0.250  22.363  0.0357  0.0293  0.0064
46195W        W47059  25.366  10.071  24.244  0.3264  0.0760  0.0740
46196W        W47060  22.427  26.982  17.154 -0.0238  0.2134  0.0088
46197W        W47061  27.887  25.627  19.689 -0.4536  0.1640  0.0433
46198W        W47062  21.827  16.735  26.672 -0.1547  0.1306  0.2427
46199W        W47063  12.728  21.505  10.830  0.0651 -0.0688  0.0082
46200W        W47064  14.687   2.984  25.134 -0.2110  0.0600  0.0649
46201W        W47065   2.552  21.457  28.130 -0.1420 -0.1549  0.1632
46202W        W47066  11.259  17.856  27.824 -0.0756  0.0650 -0.2575
46203W        W47067  10.853  22.630  25.836  0.1620 -0.0867  0.1970
46204W        W47068  13.977  21.481  20.181  0.1450 -0.0628  0.0652
46205W        W47069   3.406  17.590   5.696 -0.0890 -0.0197 -0.0775
46206W        W47070  21.639  24.585  18.840  0.2463  0.1505 -0.1587
46207W        W47071  25.194  14.652   6.688  0.1362 -0.1611 -0.0815
46208W        W47072  16.097   6.589   7.399  0.3431  0.0456 -0.2014
46209W        W47073   8.938  11.686  26.214 -0.2059 -0.3895 -0.0544
46210W        W47074  20.825  17.009  13.938  0.1041 -0.1562  0.1952
46211W        W47075  24.766  23.118  18.205  0.0322 -0.1391 -0.2884
46212W        W47076  24.863  12.658   7.707  0.4244  0.3058 -0.4188
46213W        W47077  15.211   0.124  24.505 -0.2226 -0.0234 -0.0860
46214W        W47078  21.970  21.947  24.374  0.1316  0.0022 -0.0032
46215W        W47079   9.043   4.505  25.724  0.1683 -0.1474  0.1759
46216W        W47080  21.783  10.815   8.268  0.0083  0.0904 -0.1484
46217W        W47081  18.361   6.458   5.860 -0.5572 -0.0905  0.0002
46218W        W47082  21.070  19.768  12.850 -0.4788 -0.0756 -0.0429
46219W        W47083  12.498  12.601  12.198  0.0212 -0.1977 -0.0256
46220W        W47084  15.932  25.263  14.513  0.3731  0.0650  0.1902
46221W        W47085  12.772  16.844  15.915  0.0630  0.1433 -0.1337
46222W        W47086  18.118  21.786  12.368  0.3021 -0.0265  0.2303
46223W        W47087  16.146   4.512  22.224  0.1439 -0.0327  0.1054
46224W        W47088  25.582   4.990  19.092 -0.0219 -0.0871  0.4818
46225W        W47089  21.744  22.092  28.936 -0.0687  0.0715 -0.2755
46226W        W47090  25.130   8.118   9.106 -0.3725 -0.2663  0.1731
46227W        W47091  21.593   1.645   7.263 -0.0271 -0.3011  0.1761
46228W        W47092  27.526  18.098  23.815  0.1329 -0.0476 -0.4771
46229W        W47093  18.233  16.149  18.804 -0.2024  0.0205  0.1867
46230W        W47094   0.382  29.142  19.936 -0.0170  0.0210 -0.0181
46231W        W47095  23.951  20.784  28.879 -0.1729  0.5900 -0.0422
46232W        W47096  17.489  25.831   2.201 -0.1597 -0.2206 -0.2339
46233W        W47097   3.458  11.327  22.302  0.0148 -0.1416  0.0256
46234W        W47098  27.385  19.712   4.273 -0.2152  0.0551  0.4247
46235W        W47099  16.320  24.120   9.377  0.2122 -0.0051  0.4693
46236W        W47100   9.479   0.976   6.283 -0.1804  0.0051  0.0375
46237W        W47101   7.039  23.669   3.415 -0.3665 -0.0949  0.5376
46238W        W47102   7.362  21.235  25.286  0.0921 -0.1381 -0.0769
46239W        W47103  25.510  21.441  22.060  0.3301 -0.0730  0.0308
46240W        W47104   0.508   5.214  24.093 -0.0399  0.1905 -0.0598
46241W        W47105  22.984  26.203  16.536  0.2405  0.0174 -0.1647
46242W        W47106  10.179  16.014  19.719  0.0093 -0.1003  0.2067
46243W        W47107  13.050  21.096  10.776  0.1637 -0.1457 -0.0466
46244W        W47108   0.520  21.071  19.455 -0.3757 -0.2098  0.0379
46245W        W47109   5.607  14.196  23.387  0.1797  0.1463 -0.0168
46246W        W47110  21.957  21.279  19.835  0.0956 -0.2303  0.1754
46247W        W47111  15.011   0.563  27.722 -0.1363 -0.0527  0.0986
46248W        W47112  24.810  17.281   4.693 -0.4091 -0.1702 -0.2672
46249W        W47113  20.284  20.348   6.569 -0.1076  0.3161  0.3965
46250W        W47114  28.604  15.207  26.615  0.2339 -0.1294  0.2313
46251W        W47115   4.259  21.183   8.464  0.0434  0.1820  0.1736
46252W        W47116  19.803   6.505  12.488  0.0668 -0.0149 -0.0013
46253W        W47117  11.789   0.207  16.930 -0.0423 -0.0675 -0.2878
46254W        W47118  16.853  15.576   5.877 -0.1683  0.0173 -0.2584
46255W        W47119   1.524  23.231  15.351  0.1668 -0.2381 -0.3247
46256W        W47120  17.911  26.202   5.766 -0.0218 -0.4612  0.2454
46257W        W47121   8.728   0.173   1.188  0.3429 -0.1453  0.0089
46258W        W47122  25.160  20.349  18.938  0.4120  0.1140 -0.2227
46259W        W47123   7.644  17.034  19.306  0.3223  0.1133  0.3370
46260W        W47124  22.154  18.566  16.935  0.0376 -0.1373  0.2716
46261W        W47125  21.115  14.058  12.895 -0.2475 -0.1664  0.0381
46262W        W47126  13.726   0.140   2.351  0.1048  0.2585 -0.2396
46263W        W47127   0.725  12.725  28.509  0.1032  0.1914  0.0396
46264W        W47128  18.706  17.146  17.442  0.0182  0.0684 -0.1459
46265W        W47129   3.745  19.648   8.003  0.0512  0.2346 -0.0233
46266W        W47130  19.433  23.991  18.706 -0.0242  0.1488  0.0007
46267W        W47131  15.674  26.897   4.599 -0.4436  0.1833  0.1680
46268W        W47132   7.780   1.046   6.011  0.2362 -0.0691  0.0394
46269W        W47133   8.261  12.114  17.645 -0.1267  0.0506  0.0410
46270W        W47134  11.048  11.994   1.225  0.1438 -0.1680  0.2924
46271W        W47135  11.984  25.437  15.081  0.0180 -0.0140  0.3366
46272W        W47136  10.220  14.112  24.917 -0.1402 -0.1860 -0.2309
46273W        W47137  20.039   7.906  13.599 -0.0945 -0.1095 -0.1481
46274W        W47138   4.127  16.574  28.267  0.1786  0.1496 -0.1745
46275W        W47139  22.711   0.802  18.747 -0.1287  0.3212 -0.0792
46276W        W47140  22.608  22.958  11.983  0.0533  0.0151 -0.1199
46277W        W47141  28.613  28.404   5.671  0.2544 -0.1784 -0.0629
46278W        W47142  13.004  21.564  20.426 -0.5394  0.3208 -0.1590
46279W        W47143  16.519  24.955   7.820  0.0308 -0.0620 -0.2236
46280W        W47144  20.314   0.228   1.656 -0.1414 -0.0346 -0.0047
46281W        W47145  17.983   2.200   0.901 -0.2920 -0.0082  0.0947
46282W        W47146  18.916  28.461   0.485  0.1818  0.0446  0.1325
46283W        W47147  14.803   7.051  26.880  0.1097  0.1218 -0.1227
46284W        W47148  20.786  18.092   0.049 -0.0749  0.2680 -0.0077
46285W        W47149  20.214   3.864  12.756  0.0484 -0.3082 -0.1186
46286W        W47150  25.793  18.796  12.639  0.0803 -0.1978 -0.1478
46287W        W47151  27.952   8.682  24.854  0.0420 -0.2746 -0.0451
46288W        W47152  13.366  15.802  15.379 -0.0741 -0.2161 -0.1485
46289W        W47153   8.740  28.718  24.662 -0.0886 -0.0634 -0.1070
46290W        W47154  19.709  22.635  25.605  0.0117 -0.0675  0.2786
46291W        W47155   1.870  21.498  15.401  0.2657  0.0615 -0.0810
46292W        W47156  16.479  15.787  20.256 -0.4584  0.2747  0.1824
46293W        W47157  20.668  19.260   5.684  0.2642 -0.2135  0.0977
46294W        W47158   2.723   8.645   6.944 -0.0275 -0.1134  0.0464
46295W        W47159  15.357  11.541   3.027 -0.2114  0.0715  0.0889
46296W        W47160  16.686  23.515  18.464 -0.1990  0.0248 -0.1208
46297W        W47161  18.232  27.167  21.678 -0.3108 -0.2784  0.0642
46298W        W47162  25.820  21.089  14.288 -0.1429 -0.1649  0.3336
46299W        W47163  18.614   4.401  17.666 -0.0987 -0.0568 -0.0407
46300W        W47164   6.761  23.906   6.199  0.1361 -0.1004  0.1050
46301W        W47165  19.564  22.474   4.455 -0.3368 -0.0082 -0.2281
46302W        W47166   5.291  18.057  25.025 -0.0794 -0.1425 -0.1813
46303W        W47167  27.665  10.010  18.787 -0.1586 -0.1884 -0.3495
46304W        W47168  15.261  11.580  26.406  0.2143 -0.1153 -0.3228
46305W        W47169   1.055  16.873  25.511  0.2453 -0.0748 -0.0457
46306W        W47170   1.283  10.503  25.499  0.0670 -0.2451 -0.0772
46307W        W47171  23.408  23.416   8.732  0.0702 -0.1183  0.0072
46308W        W47172  25.137  15.637  13.668  0.0767 -0.1840  0.2151
46309W        W47173   9.853   1.336  28.821  0.0559  0.0336  0.1731
46310W        W47174   1.697   7.795  17.592  0.1489 -0.1734 -0.0940
46311W        W47175   0.400  14.509  26.565 -0.0883 -0.1700 -0.0646
46312W        W47176   3.538  12.085  14.280  0.0053 -0.0751  0.3378
46313W        W47177  16.192  15.295  15.886  0.0265  0.0153  0.1279
46314W        W47178  11.464  15.810  14.719 -0.0172 -0.2435 -0.0489
46315W        W47179  13.113   1.509  19.745  0.4033 -0.1937  0.0816
46316W        W47180   7.995  17.112   7.206  0.1738  0.0512 -0.0819
46317W        W47181   0.332  10.633  27.050  0.1506  0.0781  0.0154
46318W        W47182  10.875  20.282  27.777  0.0330 -0.0849 -0.1034
46319W        W47183   0.515  29.014   6.858  0.0500  0.0347  0.2589
46320W        W47184  23.064  27.326  16.524 -0.1473 -0.2495 -0.0257
46321W        W47185  27.652  14.198  20.068  0.2009 -0.0178 -0.0127
46322W        W47186  12.357   3.357  23.622 -0.3337  0.1598 -0.2801
46323W        W47187  16.574   9.027   7.569  0.1890  0.0578 -0.1665
46324W        W47188  21.834  16.932  20.654 -0.0350 -0.0224  0.1822
46325W        W47189   0.103  15.342  22.437  0.1519 -0.1772 -0.0587
46326W        W47190   8.181  13.845  20.483 -0.0889  0.1032  0.0908
46327W        W47191  21.125   1.522  13.499  0.0254 -0.0124  0.2853
46328W        W47192  13.305  25.711  11.301  0.0764 -0.1979  0.1197
46329W        W47193  12.326  26.930  19.681 -0.0767 -0.0316 -0.1066
46330W        W47194  19.773   1.328   7.465 -0.2866  0.1243 -0.1279
46331W        W47195  18.235  20.537  27.315 -0.0609  0.3508  0.0550
46332W        W47196   4.932   8.688  10.814 -0.1668 -0.2172 -0.2282
46333W        W47197  26.962  22.629  13.770 -0.1962  0.1620 -0.2638
46334W        W47198   7.736  22.784  16.082  0.1647 -0.2151  0.0255
46335W        W47199  16.576   0.713  27.952  0.0708  0.0917  0.1352
46336W        W47200  18.284  23.665  28.243 -0.1375  0.4554  0.0102
46337W        W47201  19.288  22.282  19.013  0.0478 -0.1992 -0.0170
46338W        W47202  18.809  19.673  21.693 -0.1318  0.2771  0.3893
46339W        W47203   5.954  14.175  24.343  0.4587 -0.0509  0.2959
46340W        W47204  20.667  14.803  23.375  0.0366  0.1573 -0.1346
46341W        W47205  15.539  18.022  11.990 -0.0215  0.0187  0.2822
46342W        W47206  26.587  19.735  23.752 -0.1150 -0.0011 -0.0694
46343W        W47207   8.989  26.079   8.557  0.1196  0.3096 -0.2424
46344W        W47208  10.481  16.001  12.617 -0.2759  0.3135  0.2204
46345W        W47209  11.365   1.791  29.123  0.1369  0.0487  0.1288
46346W        W47210  26.073   3.913  23.524 -0.0076 -0.3546  0.2691
46347W        W47211  15.884   2.225  19.601  0.0852 -0.3675 -0.2397
46348W        W47212  24.260  10.530  25.655 -0.1624  0.0236 -0.2052
46349W        W47213   1.448  24.967  17.666  0.1911 -0.2794  0.0027
46350W        W47214  23.133  27.658  12.518 -0.0438  0.0272  0.2061
46351W        W47215  19.657   1.209   3.427  0.0089  0.1016  0.0779
46352W        W47216   0.707   9.724  22.402  0.0480 -0.2796  0.0598
46353W        W47217   0.744  25.847   7.149  0.3822  0.0210  0.0022
46354W        W47218  14.287   5.192  19.280 -0.1623 -0.0443 -0.2228
46355W        W47219  12.476  18.244  27.068  0.0633 -0.4167  0.0821
46356W        W47220  26.452  12.767  17.706 -0.0865  0.0162 -0.2036
46357W        W47221   4.501  12.856  11.583  0.1745 -0.0621  0.1560
46358W        W47222  21.581   4.473  16.200 -0.2454  0.5875 -0.1180
46359W        W47223  10.202   6.630  13.733  0.0477  0.2511  0.1483
46360W        W47224  12.962   1.595  21.083 -0.0859 -0.3139 -0.1743
46361W        W47225   5.703   7.529  25.375  0.2590 -0.0542  0.1887
46362W        W47226   0.439  17.040  10.654 -0.1462  0.1793 -0.1089
46363W        W47227   6.729  18.643  22.184 -0.1293 -0.0615 -0.1175
46364W        W47228  20.541   2.238  25.154 -0.3004 -0.0637 -0.1373
46365W        W47229  11.149   4.420  17.685 -0.0382  0.1907  0.0468
46366W        W47230  10.429  20.717  23.534 -0.0449  0.0443 -0.0661
46367W        W47231   3.676  17.867  26.935  0.0795  0.2882  0.3476
46368W        W47232   4.020  22.052  19.442  0.0599 -0.2710  0.0482
46369W        W47233   2.365  15.496  24.585  0.0892 -0.0700 -0.1263
46370W        W47234   5.295   6.112  10.785  0.2965 -0.0295 -0.0540
46371W        W47235  18.966   5.869   1.633  0.0836 -0.2233  0.2814
46372W        W47236   7.883   5.025   0.150  0.1605 -0.1110  0.1107
46373W        W47237   4.211  23.073   7.603 -0.3151 -0.2209 -0.2246
46374W        W47238   5.213   7.885   8.665  0.2138 -0.1172 -0.0959
46375W        W47239  17.372  11.815  26.596 -0.1459 -0.1260 -0.0201
46376W        W47240  20.703  16.763  21.772 -0.1280  0.4492  0.1340
46377W        W47241  28.730   5.843  19.413  0.0553 -0.3402 -0.1393
46378W        W47242  14.614  28.783   1.804 -0.0691 -0.2058  0.1444
46379W        W47243  16.166  25.468  24.196  0.5836  0.0017 -0.1855
46380W        W47244   9.471   0.623   5.916  0.2995 -0.1863  0.0732
46381W        W47245  21.848   8.416   1.848  0.0435 -0.0058 -0.0425
46382W        W47246  16.651   8.652  27.550 -0.3208  0.2063  0.0595
46383W        W47247  22.682  16.947  19.202 -0.2050  0.0789 -0.1222
46384W        W47248   6.966   7.673  17.209 -0.0972  0.0365  0.0267
46385W        W47249  20.578  15.315  12.486  0.2521 -0.2282 -0.1826
46386W        W47250   1.308   3.254   2.068  0.0303  0.0103  0.1262
46387W        W47251  21.512  22.106   1.852 -0.0668  0.3712 -0.3889
46388W        W47252  29.026  26.216   8.800 -0.2144  0.1767  0.3218
46389W        W47253   3.460  21.089  27.608  0.1839  0.3338  0.2998
46390W        W47254   3.859   4.295  13.868 -0.0398 -0.1335  0.1753
46391W        W47255  19.201  27.715   9.315 -0.1959 -0.1468  0.1373
46392W        W47256  20.910   8.634   2.173  0.5589 -0.3539 -0.0255
46393W        W47257  25.006  14.345  28.731 -0.0693 -0.1103  0.1454
46394W        W47258  21.784   4.544   4.437  0.2575 -0.3320 -0.3152
46395W        W47259  26.044  27.027  13.707 -0.4606  0.0973  0.3787
46396W        W47260  22.264  21.097  20.204 -0.1621 -0.4019  0.0012
46397W        W47261  21.432  10.535  11.193  0.3225  0.4289 -0.0165
46398W        W47262  19.350  24.484  16.997 -0.3583 -0.1756 -0.1492
46399W        W47263   2.282  22.656  15.870  0.3221 -0.0773  0.1154
46400W        W47264   3.425  19.254  22.405  0.1588  0.3546  0.1852
46401W        W47265  28.339  27.812  22.835 -0.0479  0.2350 -0.2603
46402W        W47266  18.392  15.269  28.316  0.0806 -0.0320 -0.0408
46403W        W47267   0.550  27.876  26.086 -0.2209  0.2017 -0.1938
46404W        W47268   2.528  21.293   0.688 -0.0239  0.0863  0.3037
46405W        W47269  26.016   2.755  23.970  0.2502  0.1533 -0.2062
46406W        W47270   9.003   7.440  16.389  0.2366 -0.2006  0.1553
46407W        W47271  26.922  27.611  16.203 -0.1709 -0.3049  0.3801
46408W        W47272  22.998  13.205  26.032 -0.2059  0.1079  0.2624
46409W        W47273  20.192  26.645  15.449 -0.1643  0.0112 -0.0930
46410W        W47274  25.765   8.970  10.770  0.1526  0.3844 -0.2267
46411W        W47275   6.597  27.145  14.255 -0.0731 -0.1875 -0.0434
46412W        W47276  27.680  13.046  12.396  0.0369  0.0525  0.1499
46413W        W47277  16.612  13.384   1.291 -0.2302 -0.1494 -0.0660
46414W        W47278  13.369  21.538   8.300  0.3289  0.0065  0.3248
46415W        W47279  10.567  14.982   9.510  0.2182  0.2888 -0.3038
46416W        W47280  18.959   2.284  20.990 -0.1295 -0.0364 -0.0380
46417W        W47281   5.267   9.957  12.645  0.0930 -0.2587 -0.0456
46418W        W47282  21.328   0.488   7.120  0.1105 -0.3867  0.0741
46419W        W47283  22.572  17.790  13.528 -0.3723 -0.0850  0.1620
46420W        W47284  14.859   6.025  27.620  0.1431  0.0689 -0.0375
46421W        W47285   1.797  16.965  10.992  0.1634  0.0937  0.0713
46422W        W47286  26.351   3.578  17.592 -0.2882  0.1754  0.1458
46423W        W47287  19.963  14.146  13.317 -0.1618  0.0455  0.1862
46424W        W47288  16.658   0.792   7.150 -0.1225 -0.1083  0.0260
46425W        W47289  22.960  21.442   3.159 -0.2041 -0.1095 -0.1665
46426W        W47290  13.652  27.244   5.186 -0.1933  0.0134  0.2346
46427W        W47291  22.585  26.151  14.334  0.3874  0.1273 -0.0604
46428W        W47292   7.542  14.534  26.403  0.1960  0.1792  0.1956
46429W        W47293  25.197  19.329  21.479 -0.1118 -0.1083  0.2611
46430W        W47294   6.505  14.615  27.461  0.1567  0.1342 -0.1792
46431W        W47295  22.829   6.557   7.444 -0.3056 -0.1046 -0.3563
46432W        W47296  27.611  19.882  12.466 -0.0854 -0.3572  0.2885
46433W        W47297  22.920  26.952   4.349 -0.1481  0.2460  0.3761
46434W        W47298  12.083  15.878   8.156 -0.5036  0.0353  0.1603
46435W        W47299  14.032   2.019  14.873  0.2896  0.1889 -0.0125
46436W        W47300  24.599  23.629  24.057 -0.0281  0.0806  0.0215
46437W        W47301  22.489  15.201   2.046 -0.1912 -0.0573 -0.4427
46438W        W47302  25.163  18.339   9.786  0.2001  0.3320 -0.1152
46439W        W47303   0.125  28.995  19.508 -0.2079 -0.2448 -0.0642
46440W        W47304  14.518  17.578  14.540 -0.0981 -0.2421 -0.2334
46441W        W47305   6.968  25.735  26.926  0.5253 -0.1735 -0.0361
46442W        W47306   2.779  24.318  24.163  0.1788  0.0957 -0.0204
46443W        W47307  26.969   3.808  19.384 -0.1640 -0.3386  0.0436
46444W        W47308  17.541  23.581  25.342 -0.0588  0.2044  0.0042
46445W        W47309  19.483  23.853  11.016 -0.0423 -0.4118 -0.2572
46446W        W47310  17.238   5.850  23.410 -0.0196 -0.3847  0.2389
46447W        W47311  20.154   0.688  21.984  0.1036 -0.1514  0.0109
46448W        W47312   4.134  17.572   8.313 -0.2267  0.1362  0.0817
46449W        W47313  10.764   5.290   2.043  0.2321  0.2102  0.0574
46450W        W47314  16.530  15.213  17.078 -0.0739 -0.4300 -0.0866
46451W        W47315  20.902  11.906   8.707  0.2728  0.3933 -0.2189
46452W        W47316   0.689  12.490   4.470  0.0326 -0.0602 -0.0631
46453W        W47317  27.345  21.087  21.344 -0.1889  0.2249 -0.1521
46454W        W47318  27.028   4.400  10.991  0.0766  0.1892 -0.0654
46455W        W47319   1.656   8.923  17.659  0.2285  0.4414  0.1039
46456W        W47320   2.909  20.410   7.532  0.0029 -0.0274  0.1566
46457W        W47321  22.618  20.717  21.130 -0.0307  0.1165 -0.3899
46458W        W47322  23.383  13.510  26.142  0.0493 -0.3581 -0.1468
46459W        W47323  27.183  27.737  11.987  0.0070  0.0587  0.0467
46460W        W47324   4.753  14.425  23.515  0.0298 -0.0976 -0.0795
46461W        W47325  23.963   0.388  26.155 -0.0407  0.0221 -0.1113
46462W        W47326  17.606  26.798  16.691  0.2420 -0.0101  0.2136
46463W        W47327   9.267  12.582  28.717  0.1101 -0.0677 -0.2415
46464W        W47328  17.571   6.586   7.365 -0.1394  0.0684 -0.1850
46465W        W47329  12.555   2.558  15.780 -0.0877 -0.1777  0.0854
46466W        W47330  14.019   1.883   3.334 -0.0883 -0.0618 -0.1787
46467W        W47331  22.691  26.602  10.283 -0.0995 -0.1927 -0.2250
46468W        W47332   9.657   3.972  17.839 -0.0921 -0.0082  0.1855
46469W        W47333  11.999  14.113  27.796 -0.2495  0.1094  0.0657
46470W        W47334  20.063  21.125  20.055  0.0140 -0.0028  0.0501
46471W        W47335  17.853   6.530  10.771  0.0086 -0.2930  0.0165
46472W        W47336  27.564  18.982  24.652 -0.0466  0.1774  0.0909
46473W        W47337  22.484   7.794   2.676 -0.1405 -0.1013  0.3039
46474W        W47338   6.162   0.184  17.142  0.3186 -0.1586 -0.0165
46475W        W47339  17.426   9.615  21.755 -0.3471  0.1815  0.0974
46476W        W47340  16.817  28.933  26.398  0.2531 -0.0519 -0.0043
46477W        W47341  18.429  18.290   1.714 -0.0177 -0.3279 -0.0973
46478W        W47342  15.930  24.877   4.786  0.1153  0.1701  0.2909
46479W        W47343  21.868  25.577  26.333  0.0828 -0.0685 -0.1968
46480W        W47344  27.022  15.727  28.815  0.0168  0.1152 -0.2169
46481W        W47345   1.396   3.341  20.236 -0.3198  0.2507  0.0326
46482W        W47346  24.052   1.016  22.699 -0.1589 -0.1236 -0.2349
46483W        W47347  18.648  28.137  20.613 -0.1651  0.1558 -0.0268
46484W        W47348  20.491   3.577  28.535  0.2931 -0.1341 -0.0317
46485W        W47349   3.780   4.930   9.298  0.1268 -0.0708  0.1401
46486W        W47350  12.847   9.153   3.409  0.0611  0.3156  0.1658
46487W        W47351  17.343   0.329  11.875 -0.0783 -0.0497  0.0240
46488W        W47352  22.319   4.349  26.782 -0.0791 -0.4878  0.2302
46489W        W47353   0.471   3.136   0.726 -0.2200 -0.0871  0.2887
46490W        W47354  15.441   0.276  20.728  0.2072 -0.3608  0.0780
46491W        W47355  24.956  23.303  23.968 -0.1326 -0.2578 -0.2255
46492W        W47356  20.352  26.203  23.682 -0.0721 -0.1708 -0.1791
46493W        W47357   4.014   5.181  27.310 -0.0595 -0.1323  0.1346
46494W        W47358  15.978   4.734  17.821  0.0935  0.2134 -0.3363
46495W        W47359  13.192  13.666  23.543 -0.2603  0.0172 -0.0407
46496W        W47360  27.027  24.332  16.232  0.1518  0.0681 -0.0561
46497W        W47361  25.294  22.277  13.382  0.0443  0.1425 -0.1208
46498W        W47362   2.055  18.182  24.923  0.1677  0.0159  0.1828
46499W        W47363  23.848  22.386  20.897  0.0234  0.1420  0.2564
46500W        W47364  22.412   8.172   3.260 -0.0642  0.4225  0.2620
46501W        W47365  12.740  28.395  16.495  0.2057 -0.0333  0.0037
46502W        W47366   6.243  28.776   8.015 -0.0768 -0.3734  0.0470
46503W        W47367  26.846  23.864   3.509 -0.0547  0.0099 -0.3006
46504W        W47368  22.722  27.636  10.365 -0.2903 -0.0769 -0.0375
46505W        W47369  23.578  12.635   9.603 -0.0338  0.1345  0.2167
46506W        W47370  12.046  20.238   1.628 -0.1686  0.1033 -0.0833
46507W        W47371  16.891   1.220  16.670 -0.1163  0.0569 -0.1004
46508W        W47372  23.273  14.996   6.112  0.0845  0.0628  0.0943
46509W        W47373  18.223  20.407  20.163  0.2389  0.2029  0.3004
46510W        W47374  10.377  28.514   2.020  0.4348  0.3701 -0.0432
46511W        W47375  10.565  13.499  22.096  0.2249 -0.2134  0.1689
46512W        W47376  28.316  22.152  18.764  0.2828 -0.1535  0.4265
46513W        W47377  18.060  23.934  25.471 -0.0672 -0.3692 -0.0093
46514W        W47378  17.449  24.756   0.685 -0.5105 -0.3087 -0.4279
46515W        W47379  14.745  27.451  11.050  0.1789  0.0637  0.3998
46516W        W47380  13.637   4.846   8.859  0.1010 -0.0008 -0.2988
46517W        W47381   8.591  18.616   5.630 -0.1542  0.0992  0.2122
46518W        W47382  21.187  17.031  13.515  0.0387 -0.2448  0.1930
46519W        W47383   5.390   0.979  17.127  0.1601  0.0732 -0.0277
46520W        W47384   8.371  20.588  26.038  0.1811 -0.1842  0.0560
46521W        W47385  17.249  28.196  18.204 -0.2881 -0.3397  0.1078
46522W        W47386  18.717  15.435   9.708  0.2153 -0.0375 -0.0032
46523W        W47387  28.609  14.950   4.953  0.2100 -0.2626  0.0393
46524W        W47388  24.560  17.881  10.421 -0.1188 -0.0088 -0.0984
46525W        W47389   3.921  25.143   2.730  0.2622  0.1753 -0.0055
46526W        W47390  14.039   0.216  13.589 -0.2307  0.1745 -0.0436
46527W        W47391  21.413   9.541  28.939  0.0303 -0.0723  0.0133
46528W        W47392  11.431   4.231  13.323  0.1462  0.0029  0.1161
46529W        W47393   4.326   3.568   7.705  0.0245  0.2639 -0.0523
46530W        W47394   0.080  16.175   2.229  0.1316 -0.1058  0.1644
46531W        W47395  20.094   2.572  26.508  0.2366  0.0712  0.0400
46532W        W47396  22.087   9.658  29.086  0.5579  0.3320 -0.1355
46533W        W47397   7.018  12.889  22.773  0.2661  0.0827 -0.2837
46534W        W47398  25.348  24.953  25.187 -0.0450  0.3718  0.0658
46535W        W47399  28.616  28.049   0.632 -0.3925 -0.1100  0.1626
46536W        W47400  11.335   5.995  26.320  0.3236 -0.0548  0.0401
46537W        W47401  28.869  20.366   1.404  0.1882 -0.1605  0.4496
46538W        W47402  28.770  27.430   4.548  0.1947  0.0721 -0.0285
46539W        W47403  28.357  23.492  20.113 -0.5145  0.1185 -0.0044
46540W        W47404  22.881   0.951  27.455  0.0040 -0.0926  0.1019
46541W        W47405  23.066  12.365  12.737 -0.1780 -0.0864  0.0351
46542W        W47406  14.792   5.547   1.317  0.2324 -0.0790 -0.2583
46543W        W47407  26.213  20.666  24.589  0.0906 -0.2650 -0.1809
46544W        W47408  20.631  23.351  20.754 -0.0681 -0.3716 -0.0680
46545W        W47409   9.837  17.892  14.703  0.0991  0.1555  0.0158
46546W        W47410  11.816  27.497   4.142  0.0936 -0.0761 -0.4369
46547W        W47411  18.619   1.996  18.330 -0.0271 -0.0787 -0.1376
46548W        W47412  17.100  23.440  28.397  0.0123  0.0049 -0.0342
46549W        W47413  24.278   9.187  19.606 -0.0663 -0.0187 -0.2479
46550W        W47414  10.723  24.314   4.916  0.2117  0.1596  0.3667
46551W        W47415  24.877  17.960   7.850  0.1666  0.0440  0.0235
46552W        W47416  19.865  23.982   1.228 -0.1522  0.1388 -0.0352
46553W        W47417  14.404  17.141  10.996 -0.2409  0.2947  0.1714
46554W        W47418   9.290  11.202   3.056 -0.2121 -0.1322  0.1702
46555W        W47419   4.947  23.758  26.682  0.0531  0.2253 -0.3040
46556W        W47420  13.229  17.017  18.041 -0.3223  0.0493  0.1098
46557W        W47421  12.112  20.072   3.314 -0.2659 -0.3007 -0.2747
46558W        W47422  16.700  25.783  10.314 -0.1161 -0.0726 -0.0561
46559W        W47423  25.853   1.460   9.888  0.2087  0.0388  0.0901
46560W        W47424   3.280  13.882  19.567 -0.2072 -0.0510 -0.0074
46561W        W47425  11.693  28.412  26.811 -0.2015  0.0719  0.1616
46562W        W47426  20.955  20.957  15.723  0.0135  0.0873  0.0176
46563W        W47427   9.746  19.930  13.739 -0.1893 -0.1617  0.2819
46564W        W47428  21.867  23.036  16.246  0.0931  0.3333  0.3041
46565W        W47429  15.407  23.705  24.293 -0.1314  0.1661 -0.2717
46566W        W47430  28.913  16.124   0.652 -0.2636 -0.0930  0.3647
46567W        W47431  23.715  18.411   3.659  0.3125 -0.1767 -0.2003
46568W        W47432   0.149   0.821  16.526 -0.1841 -0.2672 -0.1367
46569W        W47433  19.718  10.079  18.707 -0.0001  0.3325 -0.0740
46570W        W47434   8.941   9.580  18.087 -0.3156  0.1564  0.2047
46571W        W47435   0.762  13.183  27.401 -0.1842  0.0340 -0.2782
46572W        W47436  28.113  10.978  16.480 -0.0898  0.0950 -0.0593
46573W        W47437  14.342  28.010  17.197 -0.2205  0.2755  0.1203
46574W        W47438  16.074  15.433  20.346  0.1291 -0.0471  0.3888
46575W        W47439  11.823   5.581  12.108 -0.0822  0.1054  0.2004
46576W        W47440  23.844   7.858  16.126 -0.0541  0.0597 -0.1093
46577W        W47441   0.114  24.841   6.992  0.0136  0.1057  0.3590
46578W        W47442  28.575  16.553  11.713  0.1314  0.2863  0.0951
46579W        W47443  13.197  16.469  12.477  0.2755  0.1965  0.3094
46580W        W47444  14.842   5.618  19.658 -0.0090  0.0338 -0.1276
46581W        W47445  18.430  24.675  18.692 -0.0709  0.0427  0.0494
46582W        W47446   7.952  20.569  26.371  0.0382 -0.1335 -0.1215
46583W        W47447  21.997  27.609  12.480 -0.1841  0.2295 -0.1386
46584W        W47448  27.245   0.657   9.376 -0.0727 -0.2398 -0.2865
46585W        W47449  15.857  15.075  19.267 -0.0537 -0.3243 -0.2597
46586W        W47450  14.442  22.144  16.359  0.0672  0.2448  0.0424
46587W        W47451  18.974  18.479  28.187  0.0570  0.2424  0.0199
46588W        W47452  10.224  17.268   1.046 -0.1742 -0.3720  0.0491
46589W        W47453   1.101  11.952   9.721  0.4177  0.0833  0.2085
46590W        W47454  19.884  24.565   1.084 -0.0720 -0.3638 -0.0525
46591W        W47455  19.447   8.742   8.182  0.0938 -0.2985  0.2928
46592W        W47456  16.610  18.660  16.958 -0.2913 -0.1425  0.1941
46593W        W47457  16.333  26.976  17.310 -0.0290 -0.1418 -0.0397
46594W        W47458   4.249   9.839  14.312  0.1931  0.0569 -0.0128
46595W        W47459  12.771  12.220  15.447  0.1300 -0.2853  0.2223
46596W        W47460  23.860   3.516   1.362 -0.1904 -0.1270  0.1546
46597W        W47461  10.990   1.883   0.758 -0.0318  0.1051  0.1029
46598W        W47462  18.880  28.048  14.872  0.2488  0.1414 -0.0868
46599W        W47463  28.155  24.105  18.895  0.0460 -0.1259 -0.1131
46600W        W47464   0.262  20.410  25.112  0.1150  0.3822  0.1819
46601W        W47465  11.832  26.474   9.772  0.1660 -0.3539  0.2549
46602W        W47466  10.027  18.677   2.204 -0.1472  0.0337  0.1415
46603W        W47467   9.094  25.576  17.179 -0.1001 -0.0281  0.2011
46604W        W47468  23.389  19.900  23.112  0.0792 -0.1578 -0.2215
46605W        W47469   1.382   0.902   2.171 -0.0643 -0.0638 -0.1839
46606W        W47470  23.550   6.604   3.980  0.3506 -0.1188  0.1892
46607W        W47471   8.278   8.269  24.542  0.1637  0.2573  0.2773
46608W        W47472  15.281  29.034  19.169 -0.1087  0.0072  0.3820
46609W        W47473   3.774  14.493   1.357 -0.0137  0.1068  0.1821
46610W        W47474   6.171   4.655   6.033 -0.0578  0.0674 -0.1699
46611W        W47475  10.429  12.933  18.418 -0.3027 -0.0050  0.2145
46612W        W47476   9.225   7.811  21.693 -0.0190  0.3705  0.1377
46613W        W47477  15.429  10.185  20.546  0.1560 -0.0723 -0.1863
46614W        W47478  18.745   4.151  22.059 -0.1727 -0.1150 -0.0708
46615W        W47479   3.277  17.740   6.143  0.0770  0.0884 -0.1219
46616W        W47480  10.843  14.532  16.987  0.0056 -0.0844 -0.1299
46617W        W47481   8.243  22.606  28.300  0.0569  0.0305 -0.0157
46618W        W47482   6.980  22.771   3.232  0.2114  0.0708  0.3186
46619W        W47483  17.709  22.952   0.068  0.0792 -0.1018 -0.0854
46620W        W47484  22.703  24.546  28.419  0.0739  0.0878 -0.2480
46621W        W47485  20.690  16.630  22.257  0.1433  0.1787  0.1331
46622W        W47486  16.289   0.130  25.492  0.1069  0.0683  0.4461
46623W        W47487  13.684   8.881  14.018  0.4273 -0.2671 -0.1890
46624W        W47488  13.724  12.344  10.163 -0.2164 -0.1159 -0.0821
46625W        W47489  20.326  17.797  23.449 -0.1485 -0.0416 -0.0016
46626W        W47490  17.589   6.987  28.797  0.0376 -0.2455  0.2846
46627W        W47491  25.227  13.523  28.486 -0.0135 -0.1574  0.0295
46628W        W47492  27.760  11.645  14.873 -0.2471 -0.3042 -0.0688
46629W        W47493  15.368   1.250  23.026 -0.0984  0.0183 -0.0402
46630W        W47494  19.323   0.692  10.494  0.1931  0.1397  0.1217
46631W        W47495  23.131  11.785  27.100  0.0990  0.0937  0.0024
46632W        W47496  20.741  23.063  19.082  0.0539 -0.1481 -0.3230
46633W        W47497  14.436  12.852  18.871 -0.1083  0.2089 -0.0121
46634W        W47498   9.734  18.248  13.434 -0.1339 -0.0361 -0.0760
46635W        W47499   7.378  24.938   1.667  0.2084 -0.2081 -0.1900
46636W        W47500  17.218  18.041   2.564 -0.3115  0.0283  0.1508
46637W        W47501  15.672  14.997  26.651 -0.1000 -0.1464 -0.1199
46638W        W47502  21.125  10.082  16.829  0.0067  0.1698  0.1494
46639W        W47503  26.503   2.771   3.019  0.1750 -0.2118  0.2787
46640W        W47504  14.184  13.854  27.280  0.0363  0.2026 -0.2164
46641W        W47505   8.071  27.804   0.613 -0.1221  0.1132 -0.0455
46642W        W47506  23.146  21.165   4.233  0.2933  0.2208 -0.0695
46643W        W47507   5.853   9.643  20.967  0.2699  0.1402  0.0963
46644W        W47508   8.731  23.841  15.929 -0.0496  0.1396  0.0291
46645W        W47509   0.317  19.985  17.301  0.0930 -0.2438 -0.2889
46646W        W47510  16.865  19.438  24.766  0.2242  0.0163 -0.1695
46647W        W47511  16.835  22.744   4.314 -0.3014 -0.5049 -0.4795
46648W        W47512   6.358   8.093   9.792  0.0664 -0.0953  0.1243
46649W        W47513   7.815  11.453  28.030 -0.1710  0.4304 -0.2580
46650W        W47514  12.769  13.882   3.592  0.5197 -0.1920  0.2678
46651W        W47515  23.669  24.755  20.004  0.2848 -0.0063 -0.2287
46652W        W47516  21.297  16.335   2.258 -0.0737  0.0873 -0.1362
46653W        W47517  25.038  26.074  21.737 -0.1040 -0.0538  0.2573
46654W        W47518  11.296   6.832   7.480  0.1546 -0.0831 -0.0007
46655W        W47519  16.998   5.086  26.160 -0.0717  0.1842  0.0414
46656W        W47520  27.422  18.850   6.971  0.0267 -0.0150 -0.0338
46657W        W47521   3.952   6.419  19.994  0.0116  0.0675 -0.0907
46658W        W47522  28.851  24.012  23.685  0.2307 -0.3293  0.1447
46659W        W47523   4.841  22.634   1.065 -0.0420  0.0786 -0.1626
46660W        W47524  19.540  27.331  12.698  0.2652 -0.1042 -0.0746
46661W        W47525   6.165   9.594  21.388 -0.0925 -0.2482  0.2386
46662W        W47526   9.599  26.265  25.362  0.0031 -0.0458  0.0995
46663W        W47527   9.330   5.545  21.580  0.0478  0.0743 -0.0121
46664W        W47528  26.212   8.280  11.515 -0.0927  0.1480 -0.0798
46665W        W47529  22.665  22.479   8.773 -0.3108  0.1695 -0.0554
46666W        W47530  16.715  15.079   6.295 -0.2122  0.1018 -0.0104
46667W        W47531  22.969   6.183  17.565  0.0667  0.4215  0.2533
46668W        W47532  18.021  17.365  19.812  0.5030 -0.4474  0.2371
46669W        W47533  16.348  21.266  25.913 -0.1613 -0.1646  0.1259
46670W        W47534   7.097  27.479  25.747  0.0469 -0.0804  0.4329
46671W        W47535  17.211   6.370  21.793  0.0763  0.0188  0.1498
46672W        W47536   8.596  27.064   1.476 -0.5170 -0.0240  0.2471
46673W        W47537  16.351  27.533  15.503  0.2299  0.3770 -0.1486
46674W        W47538  12.154  26.653  14.965 -0.4009  0.4162  0.0603
46675W        W47539   1.596   3.918  21.361 -0.2267  0.1210  0.1136
46676W        W47540  22.912  13.415   6.472 -0.0013  0.3604  0.1775
46677W        W47541   5.924   7.943   6.055  0.3391 -0.0813 -0.3223
46678W        W47542   6.909  25.959  18.789 -0.0818 -0.0033  0.0874
46679W        W47543  27.244   7.556   1.841 -0.1670  0.0370  0.1443
46680W        W47544  11.684  18.423  19.512  0.2827 -0.3062 -0.3849
46681W        W47545  12.963  23.877  28.000 -0.1423 -0.1366 -0.3278
46682W        W47546  13.735  12.937  23.237  0.0167  0.1198 -0.0021
46683W        W47547  20.923  27.268  17.962  0.0371 -0.0125  0.2603
46684W        W47548  18.626  21.803  15.264  0.2652 -0.2339 -0.2634
46685W        W47549  15.536  16.897  28.781 -0.0438  0.2102  0.0531
46686W        W47550   0.027  13.359  11.226  0.3006  0.0008 -0.1476
46687W        W47551  16.009  11.126   9.038 -0.3035 -0.1841 -0.2170
46688W        W47552   2.752  24.755  23.107 -0.1500 -0.3215  0.0444
46689W        W47553  20.381  16.934  26.143  0.1115 -0.0362  0.2278
46690W        W47554  22.191  18.025  13.797 -0.5149  0.2030  0.3927
46691W        W47555  18.612  10.928   3.705 -0.0855  0.0548  0.0329
46692W        W47556  20.399   1.128  15.070  0.4017  0.3364 -0.2946
46693W        W47557   1.966  20.622  21.235 -0.2872 -0.0380  0.2697
46694W        W47558  27.969  23.388   4.246 -0.0191 -0.0707 -0.1041
46695W        W47559  26.816   9.920   9.864 -0.2164 -0.1533  0.2942
46696W        W47560   9.951  11.496   1.937  0.1820  0.0506  0.2286
46697W        W47561  20.637  21.043   7.173 -0.0116  0.5237 -0.2246
46698W        W47562  27.496  20.371   0.723  0.1579 -0.2115 -0.2352
46699W        W47563  26.276   8.596  23.683 -0.0888  0.1594 -0.0351
46700W        W47564  11.314  14.397   2.477 -0.0451 -0.0945 -0.1590
46701W        W47565  20.166  19.396   6.036 -0.2467 -0.1766 -0.0791
46702W        W47566  29.061   1.030   3.875 -0.0873  0.1588  0.1018
46703W        W47567  13.243  21.412  19.877 -0.0347 -0.0860  0.2195
46704W        W47568  14.913  21.982   6.736  0.0134  0.1883 -0.1908
46705W        W47569  11.482  20.005   9.901  0.0239 -0.0897  0.0212
46706W        W47570   0.429  15.728  20.841 -0.0823 -0.1416 -0.0314
46707W        W47571  25.736  23.821  26.326  0.4007  0.2253  0.0741
46708W        W47572  20.176  27.530  10.658 -0.0993  0.1028  0.1683
46709W        W47573  14.931  16.556  28.315  0.0750 -0.1271  0.2590
46710W        W47574   4.804  21.789  11.327  0.0346 -0.1004 -0.2041
46711W        W47575  17.961   5.756   0.864  0.2605  0.1194 -0.2327
46712W        W47576  28.211  18.814  16.137 -0.0471  0.0146  0.0763
46713W        W47577  23.794  14.027   7.933  0.2263 -0.1829 -0.2321
46714W        W47578  17.350  19.621   3.609  0.1226 -0.1500  0.2295
46715W        W47579   2.442  19.466  27.366  0.0031  0.0209 -0.0818
46716W        W47580  28.212  25.397  20.599 -0.1566  0.0871 -0.1153
46717W        W47581  20.235  26.101  18.325  0.0659  0.3119  0.1737
46718W        W47582  26.956  20.979  17.575 -0.0595 -0.0458  0.0637
46719W        W47583  18.769   6.954  17.383 -0.4207 -0.0506  0.4366
46720W        W47584  25.784  14.012   1.123  0.0124  0.0064 -0.0023
46721W        W47585   0.389  11.074  24.493 -0.2034  0.2912 -0.0083
46722W        W47586   9.181   1.176   3.287 -0.0162  0.2338  0.1404
46723W        W47587   7.175  24.447  23.535 -0.0650 -0.2992 -0.0544
46724W        W47588  15.105  28.592  21.079  0.1272  0.0213 -0.0599
46725W        W47589  15.989  19.452  24.573  0.0329 -0.2825 -0.0846
46726W        W47590  24.175   0.486  22.798  0.0781 -0.2506 -0.2861
46727W        W47591  16.597  26.182  23.077  0.0553 -0.3639 -0.0488
46728W        W47592  12.867  12.531  10.084 -0.0416  0.0350  0.0821
46729W        W47593   0.537  20.337  11.666 -0.2119  0.0413  0.0795
46730W        W47594   9.373  27.185  18.765  0.3518 -0.0130 -0.1898
46731W        W47595   8.203   8.851   8.472 -0.0653  0.3547  0.3643
46732W        W47596  20.304  12.050  25.546  0.3344  0.3318  0.1705
46733W        W47597  19.103  12.870  19.298  0.3780 -0.1561 -0.0696
46734W        W47598   6.515  27.747  16.677 -0.1210  0.0572 -0.0773
46735W        W47599  22.593   7.539  22.140  0.1112 -0.3714 -0.0292
46736W        W47600  24.581  18.737   6.915 -0.0487 -0.2283 -0.0847
46737W        W47601  26.369  15.623  19.826 -0.1710 -0.2199 -0.0979
46738W        W47602  25.018  25.988   1.825 -0.0582 -0.4356 -0.0768
46739W        W47603  21.979  23.693  18.389  0.0351 -0.0337  0.2347
46740W        W47604  17.030   9.492  10.584 -0.4388 -0.0359 -0.1755
46741W        W47605   3.040   3.019  11.126  0.0316  0.1227 -0.0413
46742W        W47606  23.486   8.139   5.503  0.1499 -0.0486 -0.0617
46743W        W47607  10.920  20.540  18.431 -0.1843 -0.1730  0.1738
46744W        W47608  24.903  13.662  21.782  0.5000  0.2193 -0.2090
46745W        W47609  13.985   8.910  20.821 -0.1162  0.1861 -0.0323
46746W        W47610  16.528  23.851   8.190 -0.1635  0.4426  0.0688
46747W        W47611  10.408  20.988   2.680 -0.0654 -0.0868  0.0483
46748W        W47612  20.127  17.627   3.421 -0.0845  0.0789  0.1587
46749W        W47613  10.243  17.552   4.263  0.0305 -0.0792  0.0137
46750W        W47614  23.381  16.420  13.533  0.4033  0.1474 -0.3882
46751W        W47615   5.078   2.424   1.085  0.0805  0.0278  0.0014
46752W        W47616  24.555  15.487  23.097 -0.2170 -0.3662 -0.1668
46753W        W47617  11.467  25.972  22.680 -0.0394  0.1322 -0.0514
46754W        W47618  13.247  22.712   6.370  0.0454  0.4289 -0.1703
46755W        W47619  21.283  27.356  22.056  0.1954 -0.0700  0.3700
46756W        W47620  19.487  18.790   6.650 -0.2446  0.1531  0.1612
46757W        W47621   4.910   1.864  17.203  0.0682 -0.1904 -0.1782
46758W        W47622   4.815   8.563   8.549  0.0925 -0.1776  0.0978
46759W        W47623  17.696   9.740  25.728  0.2910 -0.0695  0.0617
46760W        W47624  19.278  11.569   9.364  0.0239  0.3100  0.1423
46761W        W47625  23.067  11.411  20.600  0.2299 -0.1207 -0.0401
46762W        W47626  24.153  25.892   0.178  0.0473  0.0946  0.2110
46763W        W47627  18.322  14.351  22.133  0.3071 -0.1980 -0.2731
46764W        W47628   2.538  20.909  27.956 -0.0335 -0.1434  0.0945
46765W        W47629   7.175  14.685  13.593  0.0766  0.0068  0.2840
46766W        W47630  10.160  22.757  12.178 -0.1198  0.0256 -0.1697
46767W        W47631   7.849   3.749  14.182  0.3414 -0.2899  0.0102
46768W        W47632  15.084  24.077  14.100  0.0886 -0.1546 -0.0871
46769W        W47633   3.566  15.666  17.777 -0.0937  0.1382  0.0150
46770W        W47634  17.308  27.883  20.530 -0.2204 -0.0939  0.2863
46771W        W47635   8.789  19.831  17.878 -0.1799  0.2523  0.0211
46772W        W47636  15.210  24.367  17.899  0.0418 -0.0922 -0.2900
46773W        W47637   3.540  21.498  23.912  0.0661 -0.2074 -0.1916
46774W        W47638   6.344  18.966  22.364 -0.0146 -0.0498  0.0714
46775W        W47639  24.840  16.412  10.994  0.0524  0.1064  0.1421
46776W        W47640   6.366  27.330   1.875  0.1669  0.0405 -0.1463
46777W        W47641  12.941   4.470   3.870 -0.1448  0.3057  0.0008
46778W        W47642  18.863   3.428   6.372  0.0150 -0.0284 -0.3339
46779W        W47643  12.148  21.394   6.121 -0.4375 -0.1050 -0.0360
46780W        W47644  13.263  19.892  24.313  0.1518  0.1287  0.1936
46781W        W47645  12.675  24.498   2.658  0.0402 -0.0250  0.0139
46782W        W47646  21.544  19.179  17.330  0.0494  0.5019  0.1393
46783W        W47647  19.661  14.577  23.150  0.4215  0.1268  0.0870
46784W        W47648   1.150  25.248   2.350 -0.0731  0.2070  0.3439
46785W        W47649  18.658  13.079  23.735 -0.2262  0.1139  0.0397
46786W        W47650  18.175   9.882   6.879  0.0592 -0.1167  0.1866
46787W        W47651  18.452  14.777  13.972 -0.4005  0.1999 -0.5146
46788W        W47652  15.161  12.803  13.048 -0.0023 -0.1088  0.2241
46789W        W47653   8.368  28.519   4.045 -0.0524 -0.1567 -0.1403
46790W        W47654   1.368  11.581  18.603  0.0764  0.0178 -0.1365
46791W        W47655   0.803   5.426  21.533  0.2834  0.2489 -0.2666
46792W        W47656  17.632  11.989   2.716  0.0065  0.1064 -0.2580
46793W        W47657  24.743   4.400  25.437 -0.3047 -0.0679 -0.1443
46794W        W47658  28.099   6.099  26.941 -0.2101  0.0720 -0.0642
46795W        W47659  10.930  25.648  11.638  0.0639  0.4086  0.1547
46796W        W47660  13.980  15.132   1.042  0.2562  0.0411  0.0484
46797W        W47661  17.360  23.335   5.905  0.1596  0.1358  0.0742
46798W        W47662  24.659  26.497  22.548  0.1027  0.0347 -0.1409
46799W        W47663   3.827   1.779  20.715  0.3917 -0.1901 -0.2369
46800W        W47664  11.802   4.374  20.187  0.0690  0.2985  0.0267
46801W        W47665  24.546  14.074   2.699 -0.1440  0.1394 -0.1887
46802W        W47666  27.072   2.430   7.083 -0.0741  0.3332  0.3871
46803W        W47667  12.819   9.391  10.558  0.0108  0.0214 -0.0831
46804W        W47668  10.520  28.723   2.480 -0.2228 -0.3083  0.0255
46805W        W47669  11.343  27.415  28.216  0.0141  0.2040 -0.1197
46806W        W47670   9.429  16.072  20.172 -0.1193 -0.0777  0.0416
46807W        W47671   4.337  20.881  15.575  0.1435 -0.0671 -0.1670
46808W        W47672  16.722  14.193  17.973  0.1965 -0.0560 -0.0295
46809W        W47673  26.528  21.589   8.195  0.1502  0.1347  0.1706
46810W        W47674  13.967   6.594   0.803  0.0132 -0.2189  0.2505
46811W        W47675  23.646  18.699   6.861  0.1485 -0.2482 -0.1495
46812W        W47676   3.046   7.097   5.832  0.1963  0.0037  0.0030
46813W        W47677  13.846   1.257  26.823  0.2013 -0.1470 -0.3311
46814W        W47678  28.769  11.574   4.930 -0.0575  0.1514 -0.0486
46815W        W47679  25.566   0.303  11.151 -0.2893  0.0013 -0.3776
46816W        W47680  14.617  14.183   1.531 -0.0249  0.1500 -0.2820
46817W        W47681   8.862  17.867   0.377  0.0241 -0.1156 -0.2669
46818W        W47682  18.816  26.636  21.256  0.1434 -0.0325 -0.0567
46819W        W47683  10.454   5.051   2.369  0.1681 -0.3544  0.0001
46820W        W47684   9.104  21.729  27.324  0.0458 -0.3257  0.0669
46821W        W47685  20.811  17.719  26.279 -0.1155  0.1769  0.1891
46822W        W47686  14.713   1.914  12.791  0.1259 -0.0085 -0.2007
46823W        W47687   3.717  22.666   1.330  0.1009 -0.1325 -0.0653
46824W        W47688  24.462  23.789  28.923  0.1140  0.0425 -0.0247
46825W        W47689   6.856  17.311  10.029  0.0309  0.2003 -0.0118
46826W        W47690  25.666  12.296  10.718  0.1347  0.0612  0.0721
46827W        W47691  13.242  23.367   2.465 -0.0883 -0.1424  0.0472
46828W        W47692  17.296  12.462   6.604  0.0969 -0.0053  0.2824
46829W        W47693  15.783  18.241  24.250  0.0515 -0.2113  0.0123
46830W        W47694  11.790  18.908  20.326  0.1703  0.1356  0.2323
46831W        W47695  11.074   9.982   6.881 -0.1291 -0.2072 -0.0814
46832W        W47696  14.109   6.201  22.459  0.2508  0.0343 -0.2140
46833W        W47697  11.450   1.106   3.022  0.0448 -0.0428 -0.0365
46834W        W47698   0.758  23.241  13.865  0.2716 -0.1183  0.1754
46835W        W47699  29.051   8.880  22.621 -0.0220 -0.0641 -0.1666
46836W        W47700  27.174  13.364  26.316 -0.0610 -0.1550  0.1848
46837W        W47701  21.498  23.975  11.127  0.0465 -0.0602 -0.0345
46838W        W47702   0.286  17.194  26.911  0.1626  0.2851 -0.1107
46839W        W47703  13.284  28.508  28.523  0.0870 -0.0409  0.2015
46840W        W47704   8.657   6.105  12.822 -0.2075 -0.0516 -0.0370
46841W        W47705  26.110  25.892   3.696  0.0505 -0.1473 -0.1869
46842W        W47706   2.555   0.800  23.368  0.0852 -0.0794 -0.2109
46843W        W47707  22.115   2.663   2.768  0.1188  0.0731 -0.0795
46844W        W47708  17.153  12.111  22.511 -0.3387  0.0653 -0.4152
46845W        W47709   8.093  19.064   3.568  0.2640 -0.0210  0.3001
46846W        W47710  25.700   9.077   6.697 -0.0540 -0.1068  0.4611
46847W        W47711   4.872   2.562  11.023  0.2034  0.0068  0.0198
46848W        W47712  21.405  25.580  22.239 -0.1676 -0.0668  0.1876
46849W        W47713  28.614  28.656  25.934  0.0091  0.2033 -0.2384
46850W        W47714   9.555   0.280  27.529  0.0016 -0.0056  0.3375
46851W        W47715   2.059  16.528  27.553  0.1304  0.0160 -0.1795
46852W        W47716  27.481  20.365  13.271  0.0879 -0.0457  0.1374
46853W        W47717  23.138  13.502  21.818  0.3834 -0.1980 -0.0144
46854W        W47718   4.519  17.727  22.477 -0.0390 -0.1165 -0.4471
46855W        W47719   0.930  23.803   8.873  0.2777 -0.0261 -0.2160
46856W        W47720   2.324  25.671  14.948 -0.2292  0.2578 -0.2917
46857W        W47721   0.344   9.649   4.199  0.2427 -0.0241  0.3232
46858W        W47722  17.977   8.849  24.007 -0.0452 -0.2227 -0.0945
46859W        W47723  10.240  16.037  16.781  0.1667  0.2249 -0.1417
46860W        W47724  21.094  19.393  17.139 -0.0715 -0.0811 -0.1737
46861W        W47725   0.924  26.747  29.008 -0.0206  0.2367 -0.1156
46862W        W47726  20.862  20.807  26.374  0.2196 -0.0807  0.1087
46863W        W47727   4.086  19.648  15.469 -0.0707 -0.1024  0.1035
46864W        W47728   2.112  19.424  26.038 -0.0602 -0.0163  0.2017
46865W        W47729   3.579  12.133  19.748  0.1322  0.1282  0.0807
46866W        W47730  15.920   4.522  15.482 -0.1769 -0.0127 -0.1369
46867W        W47731   8.782  26.074  16.203 -0.0611  0.0802 -0.1149
46868W        W47732  27.756   9.373   1.879  0.4570  0.0272 -0.0628
46869W        W47733  19.328  17.421  21.063 -0.0352 -0.0894 -0.0643
46870W        W47734   7.173  22.674  27.099 -0.1226 -0.0568  0.3647
46871W        W47735  24.748  19.134   0.412  0.1328 -0.2940  0.1970
46872W        W47736  22.179  13.672  23.759 -0.0322  0.1677  0.1753
46873W        W47737  13.587  22.770  15.737  0.2537  0.0769 -0.1360
46874W        W47738  14.397   9.570   0.862  0.1331 -0.1852  0.4646
46875W        W47739  20.289   6.767  10.739 -0.1457  0.1987  0.2459
46876W        W47740   4.689  10.984  27.521  0.0795 -0.0973 -0.2815
46877W        W47741   6.835  22.769   4.991  0.0206 -0.1566  0.2066
46878W        W47742  23.658  10.421  26.269  0.2416  0.1544  0.0136
46879W        W47743  16.706   3.876  26.681  0.0317 -0.2022  0.4486
46880W        W47744  22.010   1.028  26.429 -0.1917 -0.0005  0.1898
46881W        W47745  14.695  26.242   1.682  0.0807  0.0464  0.0398
46882W        W47746   3.631  28.640   9.275  0.0522 -0.2379  0.3077
46883W        W47747  13.994   1.088  20.269  0.1553 -0.0361 -0.0671
46884W        W47748  21.539  13.561  25.453 -0.0902 -0.1128  0.2539
46885W        W47749  11.180  27.800  14.607  0.2066 -0.1351 -0.0671
46886W        W47750  22.301  15.989  15.676  0.2431 -0.2076 -0.1699
46887W        W47751   2.373  21.012  25.737  0.3612  0.0597  0.1471
46888W        W47752  20.490  26.318  25.892  0.0501  0.3890 -0.0392
46889W        W47753  16.018   7.079  12.432 -0.0931 -0.0468  0.2069
46890W        W47754  17.651  22.401  24.812  0.2804  0.1993 -0.4612
46891W        W47755  15.682  23.007  23.796  0.1875 -0.1671  0.0183
46892W        W47756  13.867   9.150   5.909 -0.1440 -0.0426 -0.0762
46893W        W47757  23.261  21.344   7.462 -0.0942  0.3634  0.2357
46894W        W47758  12.178   7.035   2.186 -0.0958  0.2809  0.1491
46895W        W47759   6.654  19.944  22.382 -0.0194 -0.0078 -0.2525
46896W        W47760  21.545  20.911   6.050 -0.1083  0.1419  0.0894
46897W        W47761  25.953   5.395  23.111  0.0375 -0.1882 -0.2068
46898W        W47762  18.277   3.560   7.543 -0.0937 -0.1461 -0.0101
46899W        W47763  10.911  12.379  12.432  0.1422  0.1211  0.1421
46900W        W47764   1.911  13.582  26.250 -0.2349  0.0370  0.0781
46901W        W47765   9.385  13.651  25.896  0.0496 -0.1171  0.1207
46902W        W47766  20.830  21.662  28.297 -0.0899  0.2440 -0.4836
46903W        W47767  21.935  25.664   0.312 -0.1505 -0.0312  0.0622
46904W        W47768  19.919  20.160  16.996 -0.0476  0.2512 -0.0141
46905W        W47769  27.086   9.029  29.133 -0.1701  0.0279  0.0045
46906W        W47770  12.658  25.855  11.451 -0.0137  0.0667  0.4049
46907W        W47771  27.427  21.522  21.933  0.1539 -0.1709 -0.0266
46908W        W47772   6.550  17.894   8.524 -0.0238 -0.4533  0.0835
46909W        W47773   5.789  25.448   5.741  0.1931 -0.0175 -0.1149
46910W        W47774  18.098  23.639  10.296 -0.1069  0.4374  0.2116
46911W        W47775  24.465  11.883  23.782 -0.2578  0.3328  0.0882
46912W        W47776  10.403  27.686  17.286 -0.0970  0.0421  0.0156
46913W        W47777  20.490  18.885  12.821  0.1025  0.2575 -0.1339
46914W        W47778  26.323  29.129  26.955  0.4216  0.0613 -0.3391
46915W        W47779  13.840   9.236  22.054 -0.2847  0.1451 -0.3665
46916W        W47780  11.830  10.206   2.203  0.2115  0.3720 -0.1010
46917W        W47781   4.580   7.140  27.702 -0.0374 -0.3133 -0.0679
46918W        W47782  26.187  26.389  21.344  0.0949  0.0834  0.1728
46919W        W47783  12.182  16.963   5.765 -0.0791  0.3257  0.0346
46920W        W47784  17.571  20.184  12.547  0.0000  0.0115  0.1642
46921W        W47785  13.102  24.248   3.517  0.1992 -0.2802 -0.2191
46922W        W47786  23.659   4.817  13.526  0.2577 -0.2508 -0.0090
46923W        W47787  24.231  19.124  27.583 -0.0792  0.0848 -0.1679
46924W        W47788  27.657  13.526   3.148 -0.0600 -0.1945 -0.0735
46925W        W47789  25.028   9.632  20.465 -0.0908 -0.0533 -0.1912
46926W        W47790  21.054  17.296   0.785  0.0766 -0.0317 -0.1367
46927W        W47791  16.253  28.354  26.338  0.3222 -0.2201 -0.2138
46928W        W47792  18.570  27.896  26.499 -0.0017 -0.4906 -0.0990
46929W        W47793  28.266  18.881  20.641  0.2403 -0.1010  0.1990
46930W        W47794  20.580  10.143   0.466  0.0940 -0.1096 -0.3120
46931W        W47795  25.191  13.309  23.551  0.0157 -0.5489 -0.1398
46932W        W47796  13.389  24.697  27.899 -0.3096 -0.0997  0.0501
46933W        W47797  13.953  24.340  25.253 -0.2142 -0.0330 -0.0746
46934W        W47798   2.591   7.567  28.571  0.1146 -0.2536  0.0594
46935W        W47799  28.815  14.153   1.889 -0.4817 -0.1934 -0.1594
46936W        W47800  22.327  19.435  28.979  0.2192 -0.0049  0.1973
46937W        W47801  11.575   9.133   0.939 -0.0751 -0.0392 -0.1994
46938W        W47802  23.043  17.139   5.095 -0.0391 -0.3103  0.0154
46939W        W47803  22.558  20.388  29.062  0.0741 -0.1151 -0.3032
46940W        W47804  19.735  20.532   3.989  0.2060  0.0188 -0.0768
46941W        W47805  23.649   4.416  13.212 -0.0566 -0.0994 -0.3533
46942W        W47806  24.472  25.872  22.399  0.0033 -0.1953  0.0333
46943W        W47807  12.032  17.445  19.281  0.3284  0.3103 -0.0433
46944W        W47808  16.519  26.358  24.145 -0.2316 -0.0555  0.0593
46945W        W47809  28.354  25.605  23.530 -0.1778 -0.3532 -0.0891
46946W        W47810  22.067   4.250  19.594  0.0456 -0.3139 -0.1523
46947W        W47811  20.585   0.624  20.913 -0.1365  0.1653 -0.1126
46948W        W47812  20.823   4.707   6.585  0.1827  0.2085 -0.0841
46949W        W47813   2.519  22.748   4.504  0.1428  0.0602 -0.3773
46950W        W47814   4.673  14.869   7.590 -0.1745 -0.1977 -0.1998
46951W        W47815   9.673  23.484   3.261  0.1521  0.0264 -0.0322
46952W        W47816   2.326   2.383   9.686  0.0176  0.3945 -0.0213
46953W        W47817   5.771   5.188  14.801 -0.0568  0.1318 -0.0059
46954W        W47818  19.074   9.599   9.943 -0.0134  0.0465 -0.0583
46955W        W47819  17.667  26.920   3.186 -0.2842 -0.3929  0.1589
46956W        W47820  23.620  16.728  28.417 -0.1983  0.0293 -0.1861
46957W        W47821  26.190  12.791  28.179  0.0468  0.1864  0.0625
46958W        W47822  13.399  14.786  21.438 -0.0531  0.2085  0.0804
46959W        W47823  22.313  28.009   7.491  0.0399  0.0323  0.3662
46960W        W47824  19.357  22.458  27.224 -0.2553  0.2657  0.2660
46961W        W47825  11.111  23.446  11.103 -0.2534  0.2882  0.0100
46962W        W47826  14.080  17.370  23.352  0.2695  0.0166  0.1540
46963W        W47827  28.649  21.373  17.452  0.2448  0.2603 -0.2961
46964W        W47828  16.355  24.846   3.877 -0.0076  0.3485 -0.0073
46965W        W47829   0.017   5.376  21.442 -0.1233 -0.1704  0.1697
46966W        W47830  17.751   8.137   4.427 -0.0181  0.0028  0.0846
46967W        W47831  15.584  24.611   5.005  0.1175  0.0449  0.0641
46968W        W47832  20.739  14.002  18.636 -0.1326  0.0648  0.0460
46969W        W47833  25.214  20.280   8.687  0.1681 -0.0029 -0.3301
46970W        W47834  25.793  13.932  16.765 -0.0050 -0.0803  0.0526
46971W        W47835   4.754  24.154  15.499  0.0457  0.1024 -0.6241
46972W        W47836   7.815  28.201   5.018  0.2649  0.1809  0.0683
46973W        W47837  25.330   3.523  16.170  0.0649  0.4223 -0.0614
46974W        W47838  13.035   3.097  13.468 -0.1178  0.1856  0.0314
46975W        W47839  17.942  22.852  22.190 -0.1488  0.0595 -0.2847
46976W        W47840  18.450  15.427   7.536 -0.1028 -0.3448 -0.1992
46977W        W47841  27.071   3.813  28.391 -0.1012 -0.2056 -0.1550
46978W        W47842   1.260  23.570  13.129  0.0637  0.4260  0.1080
46979W        W47843  25.279   4.594  11.835  0.0391  0.1270  0.0548
46980W        W47844  14.608  18.521   4.637 -0.1497 -0.2660 -0.0141
46981W        W47845   6.246  18.576  17.407  0.1914 -0.0007  0.1648
46982W        W47846   5.467  21.286  17.790 -0.0229  0.2048  0.3443
46983W        W47847  17.916   6.537   9.763  0.0650 -0.0274  0.0416
46984W        W47848   5.772  16.524  15.531  0.3371  0.1626  0.3398
46985W        W47849   0.579  26.339   9.483 -0.3080 -0.0876  0.1628
46986W        W47850   1.664  23.572  14.548 -0.0736  0.0045 -0.0153
46987W        W47851  21.020   4.158  23.875 -0.2445 -0.2241 -0.1677
46988W        W47852   9.133   4.064   6.909  0.0732  0.1183  0.0685
46989W        W47853   2.824  10.631   0.178 -0.1450  0.0305  0.0565
46990W        W47854   6.801   8.561  25.813  0.0608 -0.4251  0.1029
46991W        W47855  17.061   2.340  10.342  0.0778 -0.2751 -0.2091
46992W        W47856  10.831  24.027   3.668  0.1211  0.0358  0.1029
46993W        W47857   6.855  18.596   8.805 -0.0400  0.1809 -0.1504
46994W        W47858   6.670   9.902  11.494  0.1362  0.1968 -0.2815
46995W        W47859  27.262  17.127  25.171 -0.0742  0.3092 -0.1086
46996W        W47860   6.889  21.509   5.310  0.0181 -0.2430  0.1073
46997W        W47861  17.306  16.545   1.385  0.0587  0.0846 -0.0548
46998W        W47862  15.172  25.896   1.942  0.0186 -0.1396 -0.0668
46999W        W47863   7.188   3.577  10.076 -0.2475 -0.0537 -0.1466
47000W        W47864   6.638  22.664  26.464  0.3293  0.2467  0.2493
47001W        W47865   2.539  19.463  12.438 -0.2981 -0.3120  0.0007
47002W        W47866   8.229  23.651   6.229 -0.0221 -0.0217 -0.0018
47003W        W47867   7.233   9.406  13.349 -0.0724  0.1025 -0.2820
47004W        W47868   3.543  16.379  24.120  0.3207 -0.1946  0.0039
47005W        W47869  18.211   4.763  15.761 -0.0749  0.0817 -0.0354
47006W        W47870  23.747  11.328  27.679 -0.1799 -0.0370  0.2016
47007W        W47871  18.721  25.113   3.642 -0.1533 -0.2578 -0.1912
47008W        W47872  19.092   2.549  28.016 -0.2554 -0.1989 -0.1538
47009W        W47873  23.740  26.747  24.952 -0.0418 -0.0726 -0.0696
47010W        W47874  24.291  19.278  21.741  0.0128 -0.4119  0.0697
47011W        W47875   3.948  18.972   0.608 -0.0170  0.1160  0.1915
47012W        W47876  16.189  11.352  22.216  0.1936  0.0154 -0.1827
47013W        W47877  23.474  23.076  24.565  0.0307 -0.0453 -0.1428
47014W        W47878   8.214  24.315   3.988 -0.2728  0.0536  0.2599
47015W        W47879  24.464  27.627  26.850 -0.1740  0.2107 -0.2467
47016W        W47880  10.197  14.868  26.218  0.1786 -0.2330 -0.0613
47017W        W47881  16.597  11.018   0.663 -0.0763 -0.3301  0.1238
47018W        W47882  13.318  17.639  25.551 -0.0218 -0.0510 -0.1615
47019W        W47883  23.156   4.303   4.093 -0.1655 -0.3101  0.2243
47020W        W47884  26.634   9.869   0.125 -0.1622 -0.2088 -0.0264
47021W        W47885  13.108  20.893   1.393 -0.1102 -0.0593  0.0165
47022W        W47886   7.046  23.949  22.215  0.0898 -0.1938 -0.4735
47023W        W47887  15.516  17.008  10.107 -0.1252  0.0685  0.2342
47024W        W47888  23.075   9.311  19.361 -0.2464  0.1608 -0.0129
47025W        W47889   3.669  22.834  24.596  0.0288  0.2042  0.1038
47026W        W47890  16.781  27.545  16.782  0.0215 -0.0356  0.2131
47027W        W47891   8.551  25.736   4.741 -0.0422  0.1548 -0.1583
47028W        W47892  17.529  26.621   6.677 -0.2871 -0.0216  0.5157
47029W        W47893   4.404  11.577   4.664 -0.2658  0.0385 -0.1072
47030W        W47894  11.527   4.941  16.399 -0.1645  0.0550  0.1434
47031W        W47895  18.835  14.776  21.655 -0.2152  0.1085 -0.0042
47032W        W47896  18.632  28.671  12.460  0.0483  0.2086 -0.4039
47033W        W47897  24.195  19.279  20.041 -0.1892  0.0650  0.1965
47034W        W47898  20.148  26.225   6.867  0.1172 -0.1021  0.0480
47035W        W47899   6.699  23.865  21.888 -0.1595 -0.3781  0.1103
47036W        W47900  22.801  26.681  29.016  0.0640 -0.0027  0.0349
47037W        W47901  18.614   5.737   9.447 -0.0538 -0.1587  0.0306
47038W        W47902  15.898  15.807  11.394  0.0413 -0.1749  0.1499
47039W        W47903  12.595  29.082  11.092 -0.1439  0.0776 -0.0854
47040W        W47904   6.478  11.687   7.359  0.0975  0.0120  0.3067
47041W        W47905   0.931  14.678   3.575 -0.1066  0.3021  0.0469
47042W        W47906  10.322  18.106  20.657  0.0530  0.0274  0.0728
47043W        W47907  18.065   3.353   8.005 -0.3679  0.1779 -0.1297
47044W        W47908  13.129  11.903   1.969  0.3446 -0.2038  0.2789
47045W        W47909   0.530  16.933  28.299 -0.3752  0.2180  0.1378
47046W        W47910  16.219   1.565  21.767  0.1419  0.2389  0.1277
47047W        W47911  15.001  27.828   9.521 -0.3201  0.0227  0.3041
47048W        W47912  15.655  26.871  12.159 -0.0838 -0.1093  0.3019
47049W        W47913  24.742  27.441   4.553 -0.1118 -0.0994 -0.1260
47050W        W47914   8.995  19.928  11.144 -0.2001  0.1460 -0.2038
47051W        W47915  25.588  24.457  24.994  0.0321  0.0636 -0.0019
47052W        W47916  23.729  27.690  15.912  0.0759 -0.2982 -0.1082
47053W        W47917  12.932  19.982  26.897  0.3282 -0.5599  0.4395
47054W        W47918  21.331  23.085   2.729  0.0302 -0.0014  0.3677
47055W        W47919  27.138  24.678  26.636 -0.0581 -0.0298 -0.2093
47056W        W47920   8.954   6.596  22.151  0.0895  0.1283 -0.2705
47057W        W47921   7.563  23.736   2.276 -0.3675  0.0624 -0.1024
47058W        W47922  13.472  28.183   6.503  0.2351 -0.2476  0.0753
47059W        W47923   4.710   2.171  13.527  0.2076 -0.2781 -0.0519
47060W        W47924  14.211  20.819  26.376  0.1048  0.0826  0.0862
47061W        W47925   8.425  10.721  14.910  0.2389  0.0119 -0.0389
47062W        W47926  26.825   4.936   4.933  0.1377 -0.3368 -0.1023
47063W        W47927  17.807  12.955  14.154  0.0572  0.2409 -0.0071
47064W        W47928  19.211  28.365   6.667 -0.1603 -0.2533 -0.0406
47065W        W47929   5.497   5.713   4.049 -0.1246 -0.1192  0.0321
47066W        W47930  18.561   0.856  19.639 -0.1088  0.0322  0.1670
47067W        W47931  20.348  28.580  17.531  0.1034 -0.1326 -0.0844
47068W        W47932  21.400  25.721   7.606 -0.2058  0.0159  0.0378
47069W        W47933   9.168  12.107  16.442  0.0312 -0.0597  0.2428
47070W        W47934  18.517   9.557   3.255 -0.0287 -0.0878  0.0842
47071W        W47935   0.819  21.109  22.587  0.0669 -0.1583 -0.1041
47072W        W47936  14.335   5.175   6.470 -0.2248  0.0508  0.0160
47073W        W47937  28.211   5.803   3.435  0.1019 -0.1439 -0.0604
47074W        W47938  24.226  14.620  25.736  0.0798  0.1667 -0.1988
47075W        W47939  13.628  14.362  19.722 -0.0252 -0.4781 -0.3113
47076W        W47940  17.177   7.200  10.667  0.0540  0.1153 -0.2357
47077W        W47941  18.321   1.748  22.325 -0.3711  0.4083  0.2441
47078W        W47942  29.140   4.737   4.788  0.2711 -0.1571  0.0866
47079W        W47943  26.690  10.966  27.570 -0.0346 -0.0774 -0.0326
47080W        W47944  14.013  17.556  18.007 -0.4288 -0.0174 -0.1314
47081W        W47945   4.445  25.158  22.612 -0.0721  0.1791 -0.2279
47082W        W47946  27.516   8.835  20.697 -0.3176  0.2950 -0.3341
47083W        W47947  16.912  19.812  11.023  0.0694 -0.0652 -0.0323
47084W        W47948   0.018  23.430   3.425  0.1346  0.3543 -0.0854
47085W        W47949  17.555   0.442  10.391 -0.0175 -0.0456 -0.2265
47086W        W47950  28.250  17.261   8.058  0.1214  0.0225 -0.3409
47087W        W47951  10.493  25.545  28.318 -0.0399 -0.1781  0.0305
47088W        W47952  23.690  16.666  20.896  0.2228  0.0214 -0.1951
47089W        W47953  16.516   9.065   7.056 -0.1078 -0.1207 -0.0628
47090W        W47954  28.683  22.402  18.504  0.2732  0.1608  0.1387
47091W        W47955  14.512  11.315   2.094 -0.0804 -0.0212  0.0315
47092W        W47956  28.475   6.177   9.195  0.2916  0.0827  0.1070
47093W        W47957  18.683  27.632  20.742 -0.2121  0.1741 -0.1457
47094W        W47958  27.034  16.571  22.962 -0.0216  0.2613  0.2089
47095W        W47959   7.508  10.481  10.618  0.0047  0.3965 -0.3119
47096W        W47960  13.283  25.532   7.108 -0.0178  0.2220  0.2450
47097W        W47961   3.244  16.481  18.556  0.0793  0.0735  0.1042
47098W        W47962  10.312  22.877  28.125 -0.1276 -0.1004 -0.0862
47099W        W47963  27.917  16.977   5.327  0.0277  0.0044 -0.2215
47100W        W47964  15.710  10.106  11.288  0.1061 -0.1883  0.1384
47101W        W47965  18.608  18.548  23.833  0.0292 -0.3298 -0.2187
47102W        W47966  16.117   1.327  14.572 -0.0331 -0.0269 -0.0864
47103W        W47967  12.696   8.134  17.859  0.0271  0.3162  0.0549
47104W        W47968  17.988  19.971  21.998 -0.0173  0.2714  0.4630
47105W        W47969  18.717  26.683  16.982 -0.0925 -0.1471 -0.2035
47106W        W47970  20.623  27.121  27.581  0.1785 -0.0818  0.0585
47107W        W47971   7.614  22.406  15.131  0.0727  0.0740  0.0394
47108W        W47972  29.116  10.751   3.371 -0.0423  0.3116  0.2125
47109W        W47973  28.684  18.276  12.313  0.0543  0.0377 -0.0004
47110W        W47974   9.100  20.746  23.469 -0.0360  0.1973 -0.0232
47111W        W47975  27.579  18.304  25.000  0.4706  0.1912  0.1371
47112W        W47976  15.413  22.398  20.468  0.2315 -0.0543 -0.2578
47113W        W47977  26.292  22.393   5.525 -0.1551  0.1571  0.1646
47114W        W47978  27.736  20.208  17.852  0.0257  0.3268 -0.0082
47115W        W47979  12.314  25.158  12.916 -0.1972  0.0485  0.0703
47116W        W47980   8.985  27.825  14.371  0.0257  0.3257  0.0274
47117W        W47981   5.469  13.035  28.034  0.2744 -0.0300 -0.1856
47118W        W47982  17.914  12.231  14.922  0.0870  0.0114  0.5777
47119W        W47983  23.205  13.702   7.347 -0.1964  0.1171  0.0190
47120W        W47984  26.253  23.503  20.556 -0.1908  0.0037 -0.1874
47121W        W47985   6.732  14.645  21.581  0.1124 -0.0451  0.0819
47122W        W47986  15.604   4.153   3.691 -0.1549  0.1006 -0.0636
47123W        W47987  22.942  25.463  11.180 -0.0446  0.1005  0.1891
47124W        W47988  22.639   6.557   0.010  0.1423  0.1891 -0.0244
47125W        W47989  15.481  23.287  10.212 -0.2056 -0.0885  0.3416
47126W        W47990  14.116  19.113   9.439  0.1345  0.1405 -0.2171
47127W        W47991  17.485  21.547  19.602 -0.4091 -0.1124 -0.2885
47128W        W47992  15.565  16.795  25.349 -0.1574 -0.3300 -0.1904
47129W        W47993   5.454  12.831  23.939 -0.0474  0.4964  0.0123
47130W        W47994   9.711  10.479  11.531 -0.1587  0.0535  0.2728
47131W        W47995  13.789  24.825  12.737 -0.1727  0.0159 -0.0985
47132W        W47996  24.330   0.378  21.729 -0.0334  0.0484 -0.1062
47133W        W47997  13.762   3.633  23.809 -0.1048  0.0190  0.0290
47134W        W47998  25.214  29.028  26.148  0.3142  0.1342  0.2657
47135W        W47999   9.287  22.459   1.099 -0.2858  0.0132  0.1501
47136W        W48000  13.915  12.856   7.783 -0.2989 -0.1056 -0.1397
47137W        W48001  13.182  26.849  14.711 -0.2808  0.1772 -0.0934
47138W        W48002   9.999   0.025  28.828 -0.0409  0.0779  0.0069
47139W        W48003   4.214  25.500   2.716  0.2463 -0.0258  0.1676
47140W        W48004   7.909   3.635   0.763 -0.3297 -0.1023 -0.5224
47141W        W48005   4.797  15.337  27.524  0.0081  0.3576  0.3556
47142W        W48006  22.529  20.783  18.106  0.1453 -0.0254 -0.2924
47143W        W48007  24.401  15.439  23.634 -0.0759  0.1675 -0.4181
47144W        W48008  12.025   2.221  27.448 -0.1931 -0.0037  0.3566
47145W        W48009  18.640   9.671  24.199 -0.0895 -0.0848 -0.0115
47146W        W48010  18.599  19.481   9.010 -0.0453 -0.0954  0.1238
47147W        W48011  16.612  16.214  19.532 -0.1460 -0.1539 -0.0272
47148W        W48012  19.148  11.341   3.506  0.0014  0.0443  0.1447
47149W        W48013  24.980  26.863  17.091  0.1177  0.1966  0.0551
47150W        W48014  23.795  15.193  25.132  0.2678  0.0586 -0.1265
47151W        W48015  23.561   2.243   8.870  0.2876 -0.2810  0.1230
47152W        W48016  28.287   7.871  27.277  0.1834 -0.0452  0.1442
47153W        W48017  11.845  14.473  20.154 -0.0810  0.3381  0.2400
47154W        W48018   9.254  15.966  24.548 -0.2514 -0.3478 -0.1173
47155W        W48019  16.634  22.653   0.579 -0.4824  0.2175  0.1005
47156W        W48020  19.324  18.210  28.405 -0.2704 -0.0079 -0.3428
47157W        W48021   1.724  22.857  10.983  0.1359  0.2533  0.0754
47158W        W48022  21.386  15.429  25.335  0.2952  0.0485 -0.2764
47159W        W48023   6.734   8.586   0.660  0.1297 -0.1915  0.5000
47160W        W48024  17.759  17.119   2.201 -0.2237 -0.1136 -0.2494
47161W        W48025  21.158  12.095   3.212 -0.0098 -0.0681 -0.1614
47162W        W48026   8.138   5.485  23.795  0.1093  0.0241  0.3235
47163W        W48027  26.002  28.916   0.178  0.1894  0.0449 -0.0637
47164W        W48028  25.341  14.973   1.264 -0.3047  0.1839 -0.0747
47165W        W48029  20.589  27.011  19.348  0.0725 -0.1554 -0.0354
47166W        W48030  17.316  23.055  19.838 -0.1112  0.1509 -0.1334
47167W        W48031  26.094   3.706  21.155  0.0474  0.3667  0.1193
47168W        W48032  19.425   6.631   9.639 -0.0251  0.1355 -0.1058
47169W        W48033  12.797  24.977   2.788  0.2271  0.1141 -0.3334
47170W        W48034  18.071  26.688  17.733 -0.1229  0.1798 -0.0559
47171W        W48035  11.936  22.155   2.445  0.2061 -0.1476  0.1139
47172W        W48036  19.666  17.278  27.249 -0.4236  0.0581 -0.2049
47173W        W48037   0.689  18.228  25.451  0.0499  0.0339  0.0797
47174W        W48038  19.311  18.979   5.776 -0.2161 -0.1700 -0.2810
47175W        W48039  18.355   6.942   6.507 -0.1002  0.0930  0.0671
47176W        W48040   8.165  14.044   5.603 -0.4165  0.1341 -0.2846
47177W        W48041  24.757   0.498  24.926  0.0384  0.0891  0.0211
47178W        W48042   8.497   0.168  19.243 -0.3143  0.2466  0.3625
47179W        W48043  10.845  14.027   0.540  0.0087 -0.1936 -0.0706
47180W        W48044  13.697   3.173  10.797 -0.1378  0.1494  0.0434
47181W        W48045  18.794   7.061   8.316 -0.1057  0.0432  0.1291
47182W        W48046  29.019  20.134  25.697 -0.0115 -0.1147 -0.2462
47183W        W48047  25.324  23.729  26.569  0.0898 -0.0723  0.0281
47184W        W48048  15.845  21.910  17.328 -0.1354  0.0279  0.1938
47185W        W48049  22.185  11.769  18.167 -0.0517 -0.1476  0.0219
47186W        W48050  18.618  10.909   4.803 -0.2532  0.0901  0.1620
47187W        W48051  11.319  18.522  23.312  0.1494  0.0680 -0.1534
47188W        W48052  15.148  13.865  28.102 -0.0571 -0.0013 -0.4328
47189W        W48053   9.378  24.386  26.669 -0.1097  0.3890  0.0017
47190W        W48054  28.437   3.909   2.939  0.0394  0.2694  0.1313
47191W        W48055  21.676  20.104  22.981  0.1079  0.0717  0.0301
47192W        W48056  18.278  18.181  25.832 -0.2449 -0.1018  0.2840
47193W        W48057  12.230  18.810  18.858 -0.3224 -0.2888  0.1544
47194W        W48058   5.103  10.986  23.588 -0.3429 -0.2272 -0.0630
47195W        W48059   5.533   0.926  10.866 -0.0866  0.1459 -0.1259
47196W        W48060  18.871  13.507  15.341 -0.0782 -0.1973 -0.0060
47197W        W48061  19.472  11.271  10.613  0.0739  0.2123  0.0781
47198W        W48062  21.665  27.016   2.641  0.0174  0.3300  0.0035
47199W        W48063  22.607  23.270  22.530 -0.1200  0.1311  0.1168
47200W        W48064  20.761  12.647   8.266  0.1728  0.0226  0.1829
47201W        W48065  27.733   9.506  29.140 -0.1184  0.1230 -0.5244
47202W        W48066   5.011  18.338  12.610  0.0829 -0.0285 -0.0853
47203W        W48067  29.116  17.309  12.643 -0.1931  0.2927 -0.1924
47204W        W48068  28.536  11.221  18.628  0.0624  0.0157  0.3869
47205W        W48069  26.521   7.933  26.382 -0.1276  0.0116 -0.1631
47206W        W48070  18.562  10.931  13.982 -0.3733 -0.1881 -0.0865
47207W        W48071  26.646  11.329   7.166  0.0922  0.0665  0.0323
47208W        W48072  25.239   5.441   1.568 -0.1883  0.0164 -0.0259
47209W        W48073  17.942  17.207  24.890 -0.0726  0.4426  0.0555
47210W        W48074  19.171  18.624   8.102  0.0353  0.2585  0.1436
47211W        W48075  19.575  24.377  25.013  0.1057 -0.0373 -0.2359
47212W        W48076  24.721  16.375  27.680  0.2010  0.3364  0.0839
47213W        W48077  10.722  14.041  28.079  0.0342 -0.1383  0.4314
47214W        W48078  20.180  15.919  11.935  0.3270  0.2813 -0.1843
47215W        W48079   2.524   3.263   6.575 -0.1140 -0.1681 -0.0773
47216W        W48080  24.077  21.910  11.453  0.1669  0.0918 -0.2240
47217W        W48081   3.170  12.879  15.636 -0.0932 -0.2341 -0.1208
47218W        W48082  10.622  13.609  26.938  0.0922  0.1612 -0.1956
47219W        W48083   7.839  16.874   0.994 -0.1791 -0.0003 -0.1061
47220W        W48084  25.905  17.563  25.938 -0.1233 -0.0822 -0.2892
47221W        W48085   6.371   8.102  19.081  0.2974  0.0941 -0.0451
47222W        W48086   5.687   7.018  15.947 -0.1188  0.0455  0.1928
47223W        W48087   0.340  22.259  22.590  0.1779 -0.1529  0.3846
47224W        W48088   9.058  13.801  27.408  0.1633 -0.2866 -0.2300
47225W        W48089  17.440  18.832  15.838 -0.1539 -0.0395  0.0944
47226W        W48090  21.588  26.471  17.016  0.0944  0.1875  0.0832
47227W        W48091  13.891   2.139   1.555  0.1914  0.1011 -0.0390
47228W        W48092  12.487   9.066  19.221  0.1027  0.1125  0.0399
47229W        W48093  15.954   8.758  19.403  0.2478 -0.2313 -0.1772
47230W        W48094  12.193  23.287  12.956  0.0925  0.1317  0.1669
47231W        W48095   6.759  11.464  22.718  0.0160  0.2251 -0.0818
47232W        W48096  12.257  19.687  11.593 -0.0335 -0.2131  0.1522
47233W        W48097  13.667  13.893  19.517 -0.1449  0.0041  0.0384
47234W        W48098   0.359  20.398   3.114  0.0879  0.0090 -0.1726
47235W        W48099  20.130  21.830   2.851  0.1513 -0.3044 -0.0017
47236W        W48100  14.515  25.718   6.963 -0.2791  0.1509  0.1138
47237W        W48101   4.442  24.272  13.311 -0.1441 -0.1452  0.0435
47238W        W48102  27.041   5.751  24.631 -0.0288 -0.0878  0.0937
47239W        W48103  23.636  12.245   6.619  0.2657 -0.0710  0.2858
47240W        W48104  18.365   0.609  20.611 -0.0884  0.1616 -0.3274
47241W        W48105   7.483  14.987  21.260 -0.3997  0.1896 -0.0244
47242W        W48106  19.260   7.586  22.840 -0.0849 -0.1414  0.1530
47243W        W48107  18.302  18.196  26.818 -0.0616  0.0320  0.1451
47244W        W48108  19.934  22.153  12.148 -0.1341 -0.0332 -0.1780
47245W        W48109  13.809  14.681  13.142  0.0391  0.4018 -0.0714
47246W        W48110  24.678  19.595   4.022  0.2855 -0.1563  0.2664
47247W        W48111  18.677  25.299  16.334  0.3961  0.2327  0.0004
47248W        W48112   7.213   7.651  14.146 -0.0598  0.1036 -0.1955
47249W        W48113  24.790   5.328  19.952 -0.3003 -0.1075 -0.0817
47250W        W48114   5.576   5.081  18.682 -0.0392 -0.2303 -0.0370
47251W        W48115  16.369  18.182  19.971  0.2569  0.3074 -0.1662
47252W        W48116   7.590   1.320   0.061  0.3968 -0.0020  0.2861
47253W        W48117  14.536  22.669   8.576  0.0565 -0.1911  0.0534
47254W        W48118  10.294  18.911  28.625 -0.4142 -0.0151 -0.0610
47255W        W48119  22.515  22.929  27.338 -0.1168  0.0756  0.1668
47256W        W48120   6.654  23.174  17.578 -0.1961  0.1802 -0.0271
47257W        W48121   4.257  23.979   8.642  0.0580 -0.2216  0.0201
47258W        W48122  14.514  19.685  29.141  0.0696  0.2730  0.0527
47259W        W48123  17.299  12.790  12.220  0.0723  0.1715 -0.0126
47260W        W48124   2.762   8.013   3.302 -0.2136  0.1989  0.0334
47261W        W48125  13.797  12.597   2.905  0.2539  0.2967  0.0285
47262W        W48126  19.086   1.979  23.915  0.0028  0.2559  0.0223
47263W        W48127  20.591  18.421  20.946  0.1943 -0.0629 -0.0094
47264W        W48128  17.895  14.962  27.064 -0.3303 -0.0090 -0.0989
47265W        W48129   5.185  14.634   4.977 -0.1782  0.1944  0.1012
47266W        W48130  12.771  26.993   2.573  0.0333  0.1688  0.1269
47267W        W48131  23.982  13.717  10.722  0.0346  0.0558 -0.0101
47268W        W48132  12.277  15.168  26.146  0.0396 -0.1562  0.1298
47269W        W48133  12.207  17.119  26.706  0.1504 -0.5996  0.0141
47270W        W48134  15.453  21.790  25.284  0.0894 -0.0320 -0.2404
47271W        W48135  25.821  22.156  10.712  0.0129  0.2735  0.0556
47272W        W48136  25.809  17.839  28.230  0.1410 -0.0439  0.1520
47273W        W48137  19.042  16.406  11.508 -0.0162  0.2124  0.1551
47274W        W48138   4.038  14.773  24.912 -0.3511  0.1552  0.0286
47275W        W48139   1.027   4.319  18.955  0.0190  0.0770  0.3925
47276W        W48140  14.246  24.267  28.069 -0.1953  0.0365  0.0346
47277W        W48141   0.412  12.239  28.452  0.3554 -0.1017  0.2864
47278W        W48142  16.704   6.307  18.308 -0.2604 -0.0195  0.1060
47279W        W48143   2.124  13.114  24.682 -0.2649  0.0403  0.3265
47280W        W48144   5.427  21.010  24.102  0.0670 -0.3715  0.1041
47281W        W48145  26.012   9.542  21.404  0.0908  0.3007  0.0138
47282W        W48146   6.188   3.349  19.480 -0.0972  0.0121 -0.2069
47283W        W48147  19.888  13.184  22.666 -0.3402  0.0757  0.0561
47284W        W48148  22.317  14.242  28.173  0.3544 -0.1692  0.0985
47285W        W48149  11.586  21.954   6.801  0.0978  0.1506  0.0206
47286W        W48150  12.868  27.650   9.540  0.2189 -0.2146  0.2316
47287W        W48151   2.075  18.335   9.597  0.1417  0.3213 -0.0552
47288W        W48152   0.001  15.489  17.383 -0.1026  0.0905  0.2520
47289W        W48153  13.841  22.790  26.743 -0.2579 -0.1695 -0.1168
47290W        W48154  16.827  23.822   2.057 -0.0051  0.3662  0.2445
47291W        W48155   2.633   3.484  27.329 -0.1776 -0.1153 -0.3135
47292W        W48156  11.476  23.783  11.576  0.2323  0.2581 -0.0814
47293W        W48157   4.063  11.270   3.511 -0.5187 -0.0349  0.0236
47294W        W48158   1.573  27.248   6.868 -0.0925 -0.1298  0.0849
47295W        W48159  17.301   9.092  16.546 -0.0662  0.0856  0.0493
47296W        W48160  15.153  23.997   3.116 -0.1794  0.0058  0.0373
47297W        W48161  10.124  14.683  21.122 -0.1500  0.2400 -0.0258
47298W        W48162  19.390  28.095   4.996 -0.1063 -0.1324  0.2519
47299W        W48163  27.453  26.550   7.725 -0.0096 -0.1794 -0.1414
47300W        W48164  18.698  16.280   9.306 -0.0365  0.2592 -0.1314
47301W        W48165  13.874  13.555  16.355  0.0139 -0.1686 -0.3918
47302W        W48166  27.232  20.328   3.137 -0.0068 -0.2195  0.2170
47303W        W48167  18.791  19.598  16.647  0.0448  0.0708  0.0135
47304W        W48168   8.500   0.059   7.898 -0.1139  0.3288 -0.1809
47305W        W48169   1.017   1.847  13.342 -0.0021  0.0969 -0.0828
47306W        W48170  10.202  14.081  17.060  0.2645  0.0884 -0.1828
47307W        W48171  13.428   1.742  22.752  0.2270  0.0270  0.2685
47308W        W48172   5.052  19.044  29.008 -0.1666 -0.1828 -0.1403
47309W        W48173   6.807  27.616  18.880 -0.2392 -0.3360 -0.1915
47310W        W48174  21.949  24.452  23.301 -0.1134 -0.4107  0.0393
47311W        W48175   0.278   6.271   9.422 -0.1425 -0.2607 -0.0542
47312W        W48176  22.349   1.359   4.541 -0.3827 -0.2231 -0.2052
47313W        W48177   7.728  20.927  15.685  0.0399  0.1308 -0.4156
47314W        W48178   1.126  25.131   7.042 -0.0400 -0.1898  0.0328
47315W        W48179   4.105  15.782   3.553  0.0799 -0.2066 -0.3153
47316W        W48180  10.619  15.806  19.433  0.0311  0.2301  0.0610
47317W        W48181  21.171   3.599   0.261 -0.3938 -0.0309  0.2190
47318W        W48182  19.019   1.709   3.117  0.0382  0.2372 -0.0511
47319W        W48183  18.868   9.264  10.490  0.1130 -0.3335 -0.0748
47320W        W48184  15.248   9.847  25.783 -0.2693  0.1982 -0.0937
47321W        W48185  14.024  24.294  27.566  0.0585  0.0554  0.1299
47322W        W48186  13.284  17.826  28.750 -0.1364  0.0737  0.2542
47323W        W48187   6.599  25.245   1.931  0.2023 -0.2159  0.5257
47324W        W48188  15.386  26.258  18.334  0.1963  0.0029 -0.0608
47325W        W48189  13.318  26.712  21.588  0.0428  0.0741 -0.1120
47326W        W48190   9.640  22.991   1.400 -0.0821 -0.1539  0.0230
47327W        W48191  15.999  13.721   3.319  0.0509 -0.1258 -0.0405
47328W        W48192  24.370  26.614  11.313 -0.1419 -0.4572 -0.1335
47329W        W48193   2.046  19.017  13.685 -0.0990 -0.2168 -0.0837
47330W        W48194  23.089   8.378   4.544  0.0187  0.1416 -0.0464
47331W        W48195  28.622   5.932   2.309  0.2611  0.1560  0.1797
47332W        W48196  15.751  22.899  10.664 -0.2011 -0.1677 -0.0769
47333W        W48197  23.678   3.900  26.861 -0.1303 -0.0449 -0.1323
47334W        W48198  17.260  22.060  14.434  0.2190  0.0796  0.1769
47335W        W48199  10.934  25.356   8.366 -0.3760  0.0539 -0.0966
47336W        W48200  13.651  22.385  14.367  0.1436  0.3168 -0.0984
47337W        W48201  10.280   3.339  17.120 -0.2081  0.2296 -0.0798
47338W        W48202  23.468   0.755   2.015 -0.2130 -0.3057 -0.1864
47339W        W48203  21.894  15.325  11.125 -0.1681  0.1479 -0.1638
47340W        W48204  17.915   5.318   7.687  0.1226  0.1125  0.0579
47341W        W48205  23.474  25.451  12.844  0.2583  0.1039  0.0325
47342W        W48206  20.104  18.105   3.778  0.2419  0.0405  0.0331
47343W        W48207   7.005  16.742   1.759  0.2576 -0.1872 -0.1680
47344W        W48208   7.962  28.797   2.527 -0.2945 -0.0163  0.3748
47345W        W48209  13.010   3.551   4.897  0.2623  0.2225  0.3643
47346W        W48210   4.139   6.179  21.717  0.1377 -0.3240 -0.0464
47347W        W48211  19.629  12.905   3.754 -0.0057  0.0161 -0.1868
47348W        W48212  15.281  26.429   1.983  0.3757  0.0704  0.0539
47349W        W48213  26.574   6.832   7.396 -0.3583 -0.4700 -0.0903
47350W        W48214  20.147   2.877  14.308  0.2033 -0.0261  0.1605
47351W        W48215  11.279   4.413  23.808 -0.1200  0.2761 -0.2444
47352W        W48216  18.302  24.103   1.242 -0.1892 -0.1970 -0.1254
47353W        W48217  17.787  18.827   8.542  0.1964  0.1136  0.0239
47354W        W48218   1.095  13.567   6.140  0.2914 -0.0363  0.2757
47355W        W48219  19.323  27.868   6.442 -0.0145  0.1508 -0.1743
47356W        W48220   6.823  17.580   2.127 -0.1468  0.1036  0.0535
47357W        W48221  23.304  22.047  14.471 -0.0265  0.1604  0.1727
47358W        W48222  25.987   2.871  18.717  0.0521 -0.1112 -0.2779
47359W        W48223  14.923  29.026   1.047 -0.1107 -0.5924  0.2090
47360W        W48224  13.508   0.973  11.630  0.1399  0.1000  0.0398
47361W        W48225  15.474   8.267  20.246  0.0355  0.2938  0.1460
47362W        W48226  23.269  11.249  27.808 -0.1617 -0.4088  0.0778
47363W        W48227   3.321  14.164   7.399 -0.4351 -0.0977 -0.3265
47364W        W48228  27.394   1.774  24.916 -0.0604  0.2312 -0.0591
47365W        W48229  10.008  14.891  28.104 -0.0260  0.1745  0.0347
47366W        W48230   7.777  16.419  27.025  0.1330 -0.1962 -0.2631
47367W        W48231  16.388  28.120  16.385  0.0032  0.2250  0.0421
47368W        W48232   0.365   6.495  27.915 -0.0828  0.0421 -0.0019
47369W        W48233   7.347  13.174  10.309 -0.1098 -0.0556 -0.1996
47370W        W48234  14.599  18.189  20.283 -0.0731 -0.0768 -0.1496
47371W        W48235   9.796  17.870   6.399 -0.4753 -0.2174  0.1857
47372W        W48236   5.647  17.768   9.367  0.0497  0.0594 -0.0525
47373W        W48237  28.600  14.528  25.436 -0.2576  0.0101 -0.2843
47374W        W48238  28.782  23.436   6.141  0.0532  0.1009  0.0620
47375W        W48239   7.009   3.582  29.042 -0.3250  0.1831  0.2499
47376W        W48240  27.587  26.461  25.008  0.1556 -0.2224 -0.1915
47377W        W48241  10.012  24.352   5.491  0.3441  0.0214 -0.0765
47378W        W48242  16.336  23.978  26.937 -0.4154 -0.0603  0.1262
47379W        W48243  17.610  15.391  23.825 -0.1256 -0.2218  0.4750
47380W        W48244   3.387  11.092   3.165 -0.2016 -0.0677  0.1388
47381W        W48245  20.476   1.053  21.760 -0.0509  0.1144 -0.0654
47382W        W48246  19.506  21.330  18.802  0.0150 -0.2338 -0.1480
47383W        W48247   3.666   3.633  17.604 -0.1653 -0.1418 -0.1195
47384W        W48248  11.580  15.752  27.192  0.0533  0.0225 -0.0439
47385W        W48249  25.988   7.909  23.071  0.2837  0.0760 -0.3594
47386W        W48250  16.232  16.640  24.715  0.1009 -0.0913 -0.0785
47387W        W48251  17.299  28.239  22.367 -0.3469 -0.3483 -0.1217
47388W        W48252   1.714  21.934  24.817  0.3058 -0.1379  0.0912
47389W        W48253   8.238   0.870  22.787 -0.1272  0.2262 -0.1438
47390W        W48254  27.071  21.339  21.039  0.1267 -0.1048  0.2652
47391W        W48255  25.216  20.229  22.098 -0.1904 -0.0900  0.0356
47392W        W48256   2.619   3.073   0.816  0.1243  0.1192 -0.3168
47393W        W48257  15.786  28.087  21.332  0.3036 -0.0911  0.2097
47394W        W48258  14.794  26.223  23.511 -0.0988  0.1701  0.0900
47395W        W48259  16.639   7.098   2.526 -0.1465 -0.4030 -0.0432
47396W        W48260  11.822  12.221   8.063  0.0945  0.1945 -0.1824
47397W        W48261  16.706  21.577   3.173 -0.3816 -0.1713 -0.1001
47398W        W48262  21.644   9.547  26.715  0.0628  0.0433  0.3686
47399W        W48263  25.009  18.903   2.018  0.1450 -0.0529  0.0877
47400W        W48264  23.838  15.321  22.491  0.0118 -0.0284 -0.1580
47401W        W48265   0.211   4.133   1.846 -0.3345  0.0342 -0.3352
47402W        W48266   0.584  15.718  14.843 -0.1677  0.0538 -0.1949
47403W        W48267   1.174  22.120  17.500 -0.0428 -0.0278  0.4151
47404W        W48268   0.422  18.100   2.375 -0.0146 -0.3537  0.2179
47405W        W48269  15.635  13.394   8.400 -0.0020 -0.3144  0.0912
47406W        W48270   2.700  14.298  14.390  0.0030 -0.1134  0.3639
47407W        W48271   6.007   9.222   4.952 -0.0824  0.0911 -0.0255
47408W        W48272  21.465   9.237  16.023 -0.2149  0.2483 -0.1098
47409W        W48273   8.997  21.781  28.112 -0.0535 -0.1086  0.1541
47410W        W48274  21.497  18.135   1.350  0.0230 -0.1812 -0.1452
47411W        W48275   6.417  20.388  27.134  0.0009  0.1724 -0.3388
47412W        W48276   0.060   2.740   3.238  0.0631 -0.1741  0.0626
47413W        W48277   5.180   7.406  20.051 -0.0344  0.1543  0.2239
47414W        W48278  27.404  13.884  10.590  0.1314 -0.0366 -0.0714
47415W        W48279   1.761  26.760  25.717 -0.0790 -0.3458  0.0852
47416W        W48280   6.708  12.243   4.396  0.0046  0.3049  0.0114
47417W        W48281  10.659  26.191  18.819  0.0641  0.4440 -0.1521
47418W        W48282  25.741  28.832  11.409  0.0222 -0.1845 -0.0118
47419W        W48283  21.964  21.611  10.139 -0.1425 -0.0615 -0.4168
47420W        W48284   6.691   0.499   0.366 -0.0095  0.0932  0.0012
47421W        W48285  14.134   2.265  27.723 -0.0425  0.0440  0.1316
47422W        W48286  17.695  15.914   9.629 -0.1458 -0.2873 -0.0930
47423W        W48287   4.789  27.100   1.596 -0.1300  0.1729 -0.2145
47424W        W48288   5.454  18.789  15.134 -0.1911  0.3521  0.0623
47425W        W48289   9.150  17.459  17.425 -0.1533 -0.1503  0.1419
47426W        W48290  24.504  26.169  10.971  0.0334  0.2058  0.3325
47427W        W48291  12.327   3.580  28.072 -0.0436  0.2991  0.0865
47428W        W48292  17.221  28.858  14.138  0.2073 -0.0355  0.2036
47429W        W48293  20.004  16.915   2.107  0.2564  0.1071  0.0947
47430W        W48294  21.833   6.564   2.635  0.0758  0.0223 -0.0217
47431W        W48295  19.584   4.192  14.239 -0.2525 -0.2676 -0.0630
47432W        W48296  17.849  18.933  26.711  0.1684 -0.0574 -0.3790
47433W        W48297  16.192  13.449  11.910  0.2999  0.1123 -0.1483
47434W        W48298  20.144   5.119   0.446 -0.0657 -0.1781 -0.1475
47435W        W48299   9.131   4.983  24.839 -0.3345 -0.1666 -0.1120
47436W        W48300   0.448   4.802  21.943  0.0561 -0.1237 -0.1233
47437W        W48301   9.044  14.056  16.131  0.0818  0.1422 -0.2979
47438W        W48302  15.709  26.431   1.105  0.0077 -0.1950 -0.0566
47439W        W48303  21.630  13.849  27.791  0.0956  0.1308  0.0209
47440W        W48304   1.754  18.176   8.499 -0.1643  0.1020 -0.1483
47441W        W48305  18.096   2.044  10.421  0.4555  0.2592 -0.3008
47442W        W48306  24.969  24.546  18.456 -0.1501  0.4286  0.0719
47443W        W48307  14.392  16.380   1.185  0.0265  0.3702  0.5269
47444W        W48308  13.883   2.992  27.213 -0.1195 -0.2010  0.1628
47445W        W48309  17.610  15.741   4.727  0.0137  0.0579 -0.0782
47446W        W48310  27.349  26.363  13.157 -0.0190  0.2666 -0.0580
47447W        W48311  25.820  27.741  27.470 -0.1224  0.1763 -0.1992
47448W        W48312  16.119  20.941   2.617 -0.1205 -0.0923  0.1842
47449W        W48313  16.424  22.608  14.325 -0.0415  0.0479 -0.2168
47450W        W48314  14.222   1.543  23.128 -0.0473  0.2203  0.2591
47451W        W48315  23.748   5.380  25.138 -0.0119  0.1191  0.0657
47452W        W48316  14.919  21.378  27.024 -0.0237 -0.0512  0.2928
47453W        W48317   1.428  22.874  14.446 -0.0044  0.1675 -0.2673
47454W        W48318  12.115   3.081  26.967 -0.1287 -0.0888 -0.0580
47455W        W48319   4.672   7.531  13.898  0.2605  0.5603  0.0887
47456W        W48320  16.623  26.508  13.376 -0.4971  0.0923  0.1160
47457W        W48321  11.883  18.679   4.957 -0.0733 -0.3825 -0.1887
47458W        W48322   1.498   9.941  26.233  0.0811 -0.0438 -0.0384
47459W        W48323  24.088  25.064  22.429  0.0240  0.0166  0.0870
47460W        W48324   3.186  24.229  27.694 -0.1111  0.2174  0.0123
47461W        W48325  22.736  21.253  14.288 -0.1368  0.1003 -0.3833
47462W        W48326   4.389  26.023  20.860 -0.6347 -0.0779 -0.2062
47463W        W48327  13.664  13.246  20.859 -0.0261 -0.4007  0.3490
47464W        W48328  27.767  14.835  28.020  0.2304  0.0157  0.2103
47465W        W48329  14.578  25.288   6.563 -0.2084  0.0868  0.0597
47466W        W48330  21.036  29.111   3.050 -0.0465  0.1307  0.1467
47467W        W48331  20.076  21.271  24.366  0.1020  0.0255  0.0881
47468W        W48332  14.072  23.661  19.362  0.1892 -0.3159 -0.1896
47469W        W48333  14.385  21.444  11.330  0.0777  0.1153 -0.1459
47470W        W48334  19.936   2.503  23.900 -0.2044  0.1510  0.1287
47471W        W48335  14.381  25.533  28.570  0.0355 -0.1598 -0.3927
47472W        W48336   3.855  16.331  20.566  0.0938  0.1392  0.1216
47473W        W48337  17.937   0.585  28.164  0.0488  0.0761 -0.3728
47474W        W48338  23.636  22.718  11.911 -0.0590 -0.2640  0.0590
47475W        W48339  27.007  20.621   2.516 -0.0821  0.0442 -0.1178
47476W        W48340  20.592   1.375  15.501 -0.1683 -0.3846 -0.0838
47477W        W48341  13.977   5.352  20.706  0.0324 -0.0449  0.0201
47478W        W48342  18.642   1.300   3.160 -0.0977  0.0536  0.2693
47479W        W48343  10.112  10.930   0.645  0.0171  0.1447  0.0689
47480W        W48344  14.370  17.843  11.800 -0.1474  0.0161 -0.2922
47481W        W48345  14.443  11.954  17.390  0.2384  0.2838  0.2761
47482W        W48346   1.829   5.723  13.749 -0.1108  0.0212  0.2614
47483W        W48347  14.586  25.778  17.930  0.1179 -0.0303 -0.1524
47484W        W48348  17.532   2.892   5.473 -0.0304 -0.0813 -0.1989
47485W        W48349  25.015  24.481   8.869 -0.2627  0.1237 -0.1690
47486W        W48350  14.615  15.438   0.621 -0.3885 -0.0811 -0.3172
47487W        W48351   7.095  17.521  11.802 -0.2833 -0.1972 -0.0078
47488W        W48352   8.519  14.888  14.789 -0.0191 -0.2311  0.2189
47489W        W48353  26.293  12.414  26.211 -0.0934  0.2817 -0.0896
47490W        W48354  13.871  26.322   2.128  0.0601  0.3808  0.0574
47491W        W48355   7.395   6.119  19.224 -0.0901  0.1315 -0.0711
47492W        W48356  20.359  27.144   2.207 -0.0693 -0.1999  0.2125
47493W        W48357  22.991  28.710  26.545  0.3948 -0.0801 -0.1860
47494W        W48358  27.993  27.915  27.422  0.2238  0.2373  0.0439
47495W        W48359  24.818  25.647  18.736 -0.5540  0.0994  0.1599
47496W        W48360  26.817   1.916  12.976 -0.1114 -0.0415 -0.1495
47497W        W48361  11.416   4.079  17.967  0.2964  0.0495 -0.0443
47498W        W48362   7.124  18.367   1.088 -0.0566 -0.0766 -0.0906
47499W        W48363  14.537  22.763  26.255  0.0849 -0.2457  0.1936
47500W        W48364   9.190  22.482  12.544  0.2457 -0.2301  0.0917
47501W        W48365   3.777  17.094  23.580  0.1412  0.4017 -0.0500
47502W        W48366   9.937  14.979   4.769  0.2218  0.0032 -0.0133
47503W        W48367  22.152  24.496  15.053  0.3011  0.1842 -0.3212
47504W        W48368  23.431  21.643  20.863 -0.1503  0.0406  0.1034
47505W        W48369  14.988  10.642   2.618  0.0614 -0.0960  0.1506
47506W        W48370  24.668   1.456  21.449 -0.0132  0.0984 -0.0797
47507W        W48371   1.380   0.316   3.743  0.0291  0.1312 -0.0374
47508W        W48372  13.225  18.941  23.875 -0.0099  0.0366  0.0291
47509W        W48373  24.854  16.869   5.976  0.2532  0.0940  0.1503
47510W        W48374  10.730  26.823   0.691  0.2772  0.0058 -0.0098
47511W        W48375  19.519  17.120  19.827  0.0395 -0.0510 -0.1531
47512W        W48376   0.163   8.141  24.088 -0.1523 -0.0399  0.0195
47513W        W48377  19.084  14.253  27.411  0.1111 -0.0609 -0.1457
47514W        W48378  12.949  27.226   2.164 -0.0457  0.0484  0.1173
47515W        W48379  17.883  19.160  15.117  0.1116 -0.0393 -0.0029
47516W        W48380   6.868  23.988  28.840  0.0082 -0.2602 -0.0216
47517W        W48381  23.319   1.018  19.399  0.0470  0.0380 -0.4402
47518W        W48382  16.828   9.546   4.267  0.0636 -0.0917  0.0098
47519W        W48383  26.945   1.800  10.328 -0.2018 -0.3027 -0.0248
47520W        W48384  19.107  20.984  27.975 -0.1367  0.1593  0.0416
47521W        W48385   5.716  20.026  16.620  0.2681  0.1050 -0.0617
47522W        W48386  14.578  14.556  20.745 -0.1491 -0.3979  0.0859
47523W        W48387   1.717  19.751  19.275  0.0326 -0.0639  0.0341
47524W        W48388  21.462  16.507   7.088  0.2217  0.0625  0.1052
47525W        W48389   2.292   1.728   7.857  0.0203 -0.1646  0.1497
47526W        W48390  28.769  17.279  25.546  0.1433  0.2327  0.1287
47527W        W48391  19.414  12.960  18.001 -0.1055  0.2181  0.0230
47528W        W48392   0.889  17.670  23.037  0.0719 -0.3683  0.0088
47529W        W48393   6.762  14.533   7.433 -0.1521 -0.0069  0.0116
47530W        W48394  18.064   2.083  21.480 -0.1353  0.0099  0.1220
47531W        W48395  25.141   7.747  11.428  0.0051  0.1316  0.1002
47532W        W48396  13.972  10.084   5.442 -0.0209  0.3878 -0.1180
47533W        W48397  24.344   6.436   3.557 -0.3013 -0.0267 -0.2078
47534W        W48398  11.782  22.361   0.993 -0.1397  0.3808  0.0791
47535W        W48399  18.078  15.965  13.471  0.3169  0.4523 -0.0846
47536W        W48400  19.439  12.721   5.381 -0.1086 -0.1809  0.0337
47537W        W48401   3.037  21.648   9.596 -0.2696 -0.2007 -0.1649
47538W        W48402  10.573   2.240  21.780 -0.1194  0.0587 -0.0711
47539W        W48403  26.611  22.803  28.179  0.1297  0.1810 -0.0763
47540W        W48404  14.208  24.594  28.859 -0.0709 -0.2552  0.3722
47541W        W48405   1.435  23.519  26.041  0.1606 -0.0332 -0.0956
47542W        W48406  15.008   7.532  19.078 -0.0579  0.1786 -0.0247
47543W        W48407  10.203  20.003  28.448 -0.1773  0.1375  0.0589
47544W        W48408  16.461  26.664  29.042 -0.1011  0.0279  0.2695
47545W        W48409  14.371  17.394  20.747  0.1542  0.0945 -0.2436
47546W        W48410  19.597  16.194   1.159 -0.0222 -0.0584 -0.0020
47547W        W48411  28.059  29.102   1.502 -0.0540  0.0930 -0.0259
47548W        W48412   2.440   1.536  24.522 -0.1158 -0.0171 -0.1789
47549W        W48413  13.181  18.103  25.181 -0.1078 -0.0230 -0.0484
47550W        W48414   8.734  22.214  16.504 -0.2888 -0.2091  0.0993
47551W        W48415  28.243   3.211   3.533 -0.1600  0.0758  0.4402
47552W        W48416   3.958  18.082   1.914  0.1065 -0.2534  0.2098
47553W        W48417  22.790  24.016  10.593  0.0587  0.2808  0.0601
47554W        W48418   1.677   6.965   4.939  0.1805  0.1173  0.1202
47555W        W48419  14.668  11.954  21.012  0.0315 -0.0818 -0.1526
47556W        W48420  24.848  10.133  27.320  0.1029 -0.0230  0.1800
47557W        W48421   4.865  23.625  28.775 -0.0420 -0.0037  0.1587
47558W        W48422  14.875  16.975  11.353 -0.1537  0.1167 -0.2337
47559W        W48423  27.799  19.692  27.816  0.0025  0.1977  0.1065
47560W        W48424   0.988  25.545   8.926  0.1511 -0.0858 -0.2803
47561W        W48425   4.801  22.369  15.945 -0.3528 -0.2754 -0.0621
47562W        W48426  22.694  14.494  28.564 -0.2669 -0.0318  0.1845
47563W        W48427   4.664  13.809  18.213  0.0809 -0.0573 -0.0898
47564W        W48428  19.113   6.411   0.800  0.3197  0.0249  0.0740
47565W        W48429  25.147  13.414  12.839  0.1032  0.2637  0.2073
47566W        W48430   6.617   6.747  13.558  0.1154  0.1021  0.1454
47567W        W48431  21.104  21.268   5.940  0.2983 -0.0889 -0.2050
47568W        W48432  21.335  19.356   9.680 -0.0777  0.0629 -0.0630
47569W        W48433  22.526   3.825  25.255 -0.2279 -0.1824  0.0946
47570W        W48434  13.890  17.042   6.403 -0.2286 -0.0868  0.0256
47571W        W48435  16.356  26.356  27.522 -0.0510 -0.1663 -0.1651
47572W        W48436   1.249  18.843  26.569 -0.2573  0.3938 -0.3525
47573W        W48437  23.134  10.528   9.306  0.1355  0.1177 -0.3419
47574W        W48438  17.371  23.161  14.034  0.2628  0.0281 -0.0628
47575W        W48439  13.798  21.453  10.319 -0.0949 -0.2359  0.2531
47576W        W48440  11.087   0.969   3.553 -0.0732  0.2131 -0.2643
47577W        W48441   3.884  26.716   1.365 -0.0545  0.2268 -0.2751
47578W        W48442   4.314   0.877  18.553  0.1528 -0.1523 -0.1048
47579W        W48443  21.856  22.012  11.240  0.0238 -0.0924 -0.1497
47580W        W48444  19.905  11.921  15.470 -0.2138  0.0115 -0.2457
47581W        W48445  15.594  13.514  15.108  0.2585  0.1885 -0.0905
47582W        W48446  19.408  22.154   4.077 -0.2773  0.3519 -0.0014
47583W        W48447   7.405   6.574  18.066  0.0633 -0.0087 -0.1223
47584W        W48448   8.157   0.688   3.582 -0.0840  0.2453  0.3697
47585W        W48449  14.919  15.189   5.368  0.3708 -0.1763  0.1140
47586W        W48450   4.556  20.758  28.124  0.1036 -0.0003  0.0777
47587W        W48451   0.124  13.807  16.663  0.1260  0.0450  0.0689
47588W        W48452   3.522  24.608  18.547  0.0551 -0.1254  0.0538
47589W        W48453  22.693  10.401  26.583  0.0320  0.1779  0.1944
47590W        W48454  14.479   5.446  23.520  0.1136  0.1647  0.1229
47591W        W48455   7.866  16.474  14.803 -0.1323  0.3981 -0.0980
47592W        W48456  22.634  18.839   7.648  0.2487  0.2154  0.2485
47593W        W48457   6.353  12.707  19.606  0.1250  0.0765  0.0091
47594W        W48458   9.054  14.379   5.078  0.2514  0.1281 -0.1428
47595W        W48459  11.594   0.105   9.565 -0.0453  0.0231 -0.1076
47596W        W48460  11.752  13.094  20.275  0.3172  0.1008 -0.0464
47597W        W48461  11.554  15.483  21.797 -0.0502  0.0926  0.1644
47598W        W48462  14.193  21.778   0.559  0.0813 -0.4042  0.1597
47599W        W48463  11.943   9.922   1.475 -0.3239 -0.0126  0.0569
47600W        W48464   0.046  14.635   8.939 -0.2022 -0.3124  0.0093
47601W        W48465   7.125  19.076   3.299 -0.1751 -0.1809 -0.2509
47602W        W48466   9.467  27.799   5.360  0.3929  0.0622  0.1527
47603W        W48467  23.371  21.417  13.373  0.1542 -0.0466 -0.0152
47604W        W48468  17.154   5.901  10.333 -0.1804  0.0911 -0.2478
47605W        W48469  19.634   7.625   1.973  0.0113 -0.2308 -0.0760
47606W        W48470  15.221  22.411  11.903 -0.1862  0.0825  0.1300
47607W        W48471  19.158  25.356   4.624 -0.2684  0.0742  0.1971
47608W        W48472  18.444   3.940  26.825 -0.0572  0.1231  0.0798
47609W        W48473  15.913  10.035  20.691 -0.0417  0.1335 -0.0464
47610W        W48474   4.456  23.852  20.133 -0.2475  0.2363  0.2637
47611W        W48475   0.518  28.245  21.594  0.3756 -0.3156  0.2357
47612W        W48476  15.145   7.832   3.090  0.0056  0.0341  0.2862
47613W        W48477   1.849  16.084  28.341 -0.1133  0.0649 -0.2900
47614W        W48478  27.452  13.610  15.926  0.0485 -0.1517  0.0849
47615W        W48479  22.539  19.969  13.369  0.3690  0.1551 -0.2972
47616W        W48480  18.604  13.620  22.496  0.2302 -0.0738  0.2308
47617W        W48481   4.571  11.461  17.934 -0.4517  0.0076 -0.2982
47618W        W48482  19.851  21.449  27.605  0.0354  0.3378  0.0698
47619W        W48483   2.242  11.009   1.759  0.0234  0.4029  0.1257
47620W        W48484  14.993   0.329  10.038  0.2492 -0.2856  0.0067
47621W        W48485  23.788   2.266   9.713 -0.1466 -0.0597 -0.1506
47622W        W48486  21.695  16.682  10.256 -0.0168 -0.1118 -0.0537
47623W        W48487  16.852  25.586   8.952  0.0970 -0.0618  0.3034
47624W        W48488  22.519  17.295  21.325  0.1873 -0.2710 -0.2071
47625W        W48489  12.779  15.727  22.346  0.0384 -0.1651 -0.0191
47626W        W48490  28.987  15.040  17.738  0.1243 -0.1478 -0.3426
47627W        W48491  11.673  16.175  28.029  0.3174 -0.1088  0.0933
47628W        W48492  21.292   8.001  23.841 -0.0119 -0.0744 -0.0815
47629W        W48493  26.724  18.939  28.175 -0.2148  0.1870 -0.0129
47630W        W48494   7.542   4.962  26.746  0.2462  0.1141  0.4395
47631W        W48495   1.117  13.033  25.149  0.1203 -0.2702  0.0949
47632W        W48496   9.199   8.281   3.354  0.0536  0.0088 -0.2014
47633W        W48497  28.782  18.979   1.705 -0.1718 -0.2084 -0.0768
47634W        W48498  24.109  18.651  26.714  0.2169 -0.1263  0.1926
47635W        W48499   5.328  16.996   0.917  0.1703  0.2553 -0.0502
47636W        W48500   5.447   7.480   2.587 -0.2747  0.2656  0.1200
47637W        W48501  22.192   1.170   0.939  0.0599 -0.0265 -0.0946
47638W        W48502  15.788   0.959  11.642 -0.0535  0.0082  0.0516
47639W        W48503   4.607  14.578  26.994  0.1065 -0.1457  0.1626
47640W        W48504  11.423  18.460   2.806 -0.4382 -0.2244 -0.2981
47641W        W48505  11.014  16.441   3.738  0.0120 -0.0204  0.1347
47642W        W48506  25.798  14.118   1.702  0.0448 -0.3950  0.0603
47643W        W48507   0.071  20.465   0.032 -0.0366  0.1853 -0.0581
47644W        W48508  16.872   3.158  14.216  0.0873  0.1012 -0.3026
47645W        W48509  11.387  28.087   6.966 -0.1795  0.0044 -0.5015
47646W        W48510  20.885  14.170   1.718 -0.2123  0.0038  0.1223
47647W        W48511   0.922  24.922   5.258 -0.0095  0.0612 -0.3806
47648W        W48512   1.160  27.237   7.930  0.0413 -0.3672 -0.2744
47649W        W48513  21.377  28.781   0.345 -0.1606 -0.0470  0.0812
47650W        W48514  26.349  14.912   1.266 -0.1235 -0.0175  0.1480
47651W        W48515  12.648   8.412   3.991 -0.0763  0.2991  0.1563
47652W        W48516  11.312  17.392  15.496  0.0874 -0.2384  0.0994
47653W        W48517   3.675  22.264  11.322 -0.0276 -0.2067  0.0842
47654W        W48518  25.012  25.863   8.448  0.2259  0.0026  0.2111
47655W        W48519  16.315  16.483   0.337 -0.0485 -0.0917  0.2260
47656W        W48520   6.316  21.801   5.945 -0.0877 -0.1854 -0.4729
47657W        W48521   3.780  26.859   8.395  0.2500  0.0130 -0.0108
47658W        W48522  14.507  23.771  17.392 -0.0132 -0.2259  0.1317
47659W        W48523  25.025  26.912  27.767 -0.0024  0.0844  0.1143
47660W        W48524  12.485  13.370   4.935 -0.1822  0.0386  0.1737
47661W        W48525   0.981   7.220  26.665 -0.0795  0.2865  0.0043
47662W        W48526   6.309  16.861  24.237  0.3610 -0.1024  0.0324
47663W        W48527  25.509  17.749  24.387 -0.1762  0.2504 -0.0216
47664W        W48528  17.834  10.419  14.120 -0.3467  0.0203 -0.0099
47665W        W48529  19.651  23.088  22.619  0.0328 -0.0474  0.2629
47666W        W48530  19.570  15.700   4.974 -0.0975 -0.3032 -0.0378
47667W        W48531  26.478  25.976  12.755  0.0029 -0.0473 -0.0639
47668W        W48532  11.922  18.017  15.008  0.0302  0.1141 -0.3946
47669W        W48533  14.041  29.142  16.043  0.2996 -0.0818 -0.2100
47670W        W48534   2.352  14.191   4.813  0.0620 -0.1240  0.2830
47671W        W48535  20.656  19.871  14.973  0.2953 -0.0385 -0.1178
47672W        W48536   3.335  23.893  10.911 -0.0247  0.0041  0.2901
47673W        W48537   1.015  19.619  12.761 -0.1242  0.0810  0.2636
47674W        W48538  22.785  22.685  18.696  0.0874 -0.0844  0.1379
47675W        W48539  28.387  21.307  28.732  0.1650 -0.5575 -0.2653
47676W        W48540   2.630  12.696   5.472 -0.0725 -0.0571 -0.0963
47677W        W48541  21.211  28.087  10.646  0.0626  0.2168  0.0130
47678W        W48542  27.864  18.195   9.236 -0.1571 -0.0068  0.3199
47679W        W48543  26.800   0.385   8.854  0.1213  0.0289  0.1133
47680W        W48544  13.977  28.199   8.464  0.1451 -0.1948  0.1360
47681W        W48545  13.149   5.484   9.763 -0.0078  0.3306  0.0408
47682W        W48546  21.140   0.078  13.888  0.1123  0.2132 -0.0530
47683W        W48547  27.917  20.516   3.067 -0.0905 -0.1027 -0.2760
47684W        W48548  17.312  19.069  10.614 -0.1315 -0.2098 -0.1846
47685W        W48549  16.345   3.697   0.864 -0.1634  0.0417 -0.1440
47686W        W48550  20.501   6.586   2.615 -0.1074 -0.0421 -0.1470
47687W        W48551  23.722  25.094  26.489 -0.0222  0.1123 -0.2033
47688W        W48552  26.539   5.845   8.119  0.1978 -0.0976  0.1575
47689W        W48553  22.834  25.958  17.005 -0.0131  0.0211 -0.0236
47690W        W48554   5.822  13.703  27.191 -0.4181  0.2375  0.1084
47691W        W48555  22.866  20.195   4.198  0.1827  0.0969  0.2287
47692W        W48556  24.788   9.156   6.581 -0.0308  0.0786  0.2542
47693W        W48557  27.457  23.188   3.959 -0.4063 -0.3128 -0.0931
47694W        W48558  27.826   3.476   7.389  0.0447  0.0321 -0.4040
47695W        W48559  25.572   8.493  25.385  0.0677 -0.0985 -0.1101
47696W        W48560  19.592   7.279  18.139  0.1041 -0.1402  0.0025
47697W        W48561  10.778  11.676   8.056 -0.1439  0.2092 -0.1266
47698W        W48562   9.234   0.023  12.495 -0.1111  0.1082 -0.2053
47699W        W48563  21.213  19.725  16.775 -0.1682  0.0922 -0.1065
47700W        W48564  14.117   0.553   5.443  0.1108 -0.3222  0.0524
47701W        W48565  15.397  21.132   2.679 -0.0534  0.1325 -0.0210
47702W        W48566   5.736   1.373   2.069  0.0055 -0.1080 -0.4119
47703W        W48567  18.166  19.054  15.543 -0.1564 -0.0932  0.0108
47704W        W48568   6.086  27.397  26.362  0.0688  0.1046 -0.0072
47705W        W48569   0.571  27.027  17.796 -0.0818  0.1290 -0.1648
47706W        W48570   8.923  12.250  13.138 -0.0730  0.1162  0.0364
47707W        W48571   6.211  23.573  11.778 -0.1671  0.2104 -0.1545
47708W        W48572   8.850  21.781  23.648  0.4029 -0.1641  0.3220
47709W        W48573   1.231   0.050   5.980  0.2606  0.3422  0.3514
47710W        W48574  23.679   1.100   6.485  0.1101  0.1756 -0.1356
47711W        W48575  26.702  17.433  27.954 -0.1284 -0.2443  0.2924
47712W        W48576  27.799   0.371   9.953  0.2239 -0.4506  0.1460
47713W        W48577  15.366  23.453  16.019 -0.1780  0.0311  0.0396
47714W        W48578  12.673  28.495  23.081 -0.0208  0.0272 -0.2073
47715W        W48579  13.491  27.037   4.661  0.0002  0.1241 -0.0700
47716W        W48580  19.625  17.576  27.740 -0.0477 -0.0387 -0.0678
47717W        W48581  10.249  14.701  22.239  0.0056 -0.3273  0.0101
47718W        W48582  23.312  26.870  13.502  0.3890 -0.3287 -0.0326
47719W        W48583  14.124  20.956   3.362 -0.0191  0.1610  0.1117
47720W        W48584  15.641   4.162   2.495  0.0623  0.1176  0.0449
47721W        W48585  14.242   9.356  13.443 -0.0343 -0.0791 -0.0067
47722W        W48586   0.028  23.721   4.799 -0.1955  0.2136  0.1030
47723W        W48587  16.443  14.939   0.348 -0.0806  0.5462 -0.1996
47724W        W48588  19.243  10.679  16.258  0.0530 -0.1204  0.1975
47725W        W48589  28.658  10.588  10.979  0.1407  0.1794  0.2764
47726W        W48590  16.989  17.171  18.808 -0.0812  0.0146  0.0279
47727W        W48591  22.542   2.403   3.670 -0.2429  0.2340 -0.4376
47728W        W48592  12.909  21.724   0.745  0.0232 -0.0688 -0.1535
47729W        W48593   1.137   3.668  23.200  0.1377 -0.0212  0.2428
47730W        W48594   3.464  28.416   1.451 -0.0952  0.1307  0.2569
47731W        W48595   2.418   1.949   9.325  0.0276  0.1309 -0.1770
47732W        W48596   6.704  17.473  26.842 -0.0125  0.0106 -0.1476
47733W        W48597  13.290  22.698  26.693  0.1111 -0.2564 -0.2096
47734W        W48598  21.744   3.189  13.963  0.2245  0.1457 -0.1272
47735W        W48599  23.182   2.086   2.954  0.2502  0.2408 -0.0639
47736W        W48600  13.690  17.046   4.868  0.0084  0.0181 -0.1907
47737W        W48601   5.751  15.021  12.423 -0.0007 -0.1471 -0.0199
47738W        W48602  12.439   4.084   5.602  0.0735 -0.0286  0.0867
47739W        W48603   0.595   7.050  18.790 -0.0978 -0.2902  0.4486
47740W        W48604  25.505  20.989  24.000 -0.2792  0.2187 -0.0975
47741W        W48605  15.118   3.075  14.365 -0.3558 -0.1217 -0.0579
47742W        W48606  26.497  18.260   4.459  0.0365  0.2377  0.1711
47743W        W48607  25.368   5.814  25.405 -0.1744  0.1477  0.0468
47744W        W48608  19.443  10.034  16.191 -0.0236  0.1998  0.1187
47745W        W48609   1.465  13.961   6.971 -0.2784  0.1486  0.0203
47746W        W48610  12.528  17.154  22.352  0.3176 -0.1138 -0.2853
47747W        W48611  17.462   3.364  16.514 -0.0858  0.4099  0.0556
47748W        W48612  27.558   6.379  26.058  0.0945  0.1070 -0.2467
47749W        W48613  22.487   9.335   5.603  0.2519 -0.0149 -0.0424
47750W        W48614  16.047  29.110  27.028 -0.1258 -0.0653  0.0860
47751W        W48615  18.381  13.014  14.753  0.1383 -0.0605  0.1685
47752W        W48616  22.230  25.243   4.798  0.0488 -0.1102  0.1161
47753W        W48617   7.433   6.586  12.371 -0.2934  0.0840 -0.1387
47754W        W48618  15.898  19.230   4.582  0.3741 -0.1989  0.0153
47755W        W48619  10.572   1.511   1.586 -0.0312 -0.2224  0.2241
47756W        W48620  18.461  27.205   9.268 -0.1387 -0.1129 -0.0883
47757W        W48621  19.116  14.509  15.926  0.0206 -0.0343  0.1573
47758W        W48622  14.640  27.806  22.751 -0.0762  0.2071  0.0036
47759W        W48623  19.407  18.047  15.348  0.0354  0.1945  0.3235
47760W        W48624  12.877   0.673   6.116 -0.0114  0.2092  0.0186
47761W        W48625   9.126   5.638   8.012 -0.1910  0.1848  0.0669
47762W        W48626   0.493  11.785  26.571 -0.1731 -0.3094  0.0117
47763W        W48627  21.720   2.136  28.743  0.0010 -0.1999  0.0634
47764W        W48628  29.065  18.255  26.867 -0.0616 -0.2945 -0.2133
47765W        W48629  13.185  27.672  10.587 -0.0305  0.3559  0.1184
47766W        W48630  14.504  23.631  28.011  0.1218  0.0189  0.1650
47767W        W48631  19.037  28.443  25.585 -0.2444  0.2769 -0.1149
47768W        W48632   4.336  21.058  19.891 -0.0813 -0.2777  0.0290
47769W        W48633  17.106  10.358  25.454 -0.0855  0.0372 -0.1130
47770W        W48634  11.879  25.188   6.742 -0.2221  0.0465 -0.1565
47771W        W48635   4.558  11.811  16.212 -0.0619 -0.1349 -0.4679
47772W        W48636   8.755  27.817  13.432 -0.0471  0.0198  0.1591
47773W        W48637  14.857   1.691   8.680  0.2791 -0.1813  0.0967
47774W        W48638  18.041   7.050   7.816 -0.1358  0.0694  0.3037
47775W        W48639  15.062  19.933  17.429  0.2570 -0.3431 -0.0068
47776W        W48640  24.777  21.664  24.464  0.0068 -0.1291  0.2821
47777W        W48641  14.520  15.767  14.805  0.0344  0.3352  0.1243
47778W        W48642  17.636  23.768  10.365  0.2216 -0.1383  0.3125
47779W        W48643  24.917  14.770  15.866 -0.1365 -0.1032  0.0415
47780W        W48644  12.255  24.751  14.465 -0.1894 -0.0642  0.0745
47781W        W48645  10.691   3.181  17.488  0.0980  0.1143 -0.1023
47782W        W48646  21.018  18.266  11.733 -0.0797 -0.0459  0.2452
47783W        W48647  15.557   0.317   7.697 -0.2160 -0.0503 -0.0046
47784W        W48648  21.944   9.410   5.726 -0.0286  0.2636  0.1533
47785W        W48649  27.802  10.679   3.625 -0.0154 -0.0469 -0.3694
47786W        W48650   7.830  24.846   2.322 -0.2174  0.0608 -0.5747
47787W        W48651   6.928  19.005   6.812  0.0625 -0.0981  0.2667
47788W        W48652   8.505  21.362   2.624  0.1751  0.2036 -0.0975
47789W        W48653  23.658   1.372  27.231 -0.0614  0.2001 -0.3579
47790W        W48654  27.722  24.322  11.634 -0.3812 -0.0066 -0.0946
47791W        W48655  17.350   4.003  25.785 -0.1873 -0.2555  0.2970
47792W        W48656  26.708  15.792   4.878  0.0104  0.1000  0.0841
47793W        W48657  10.619  10.917   0.398  0.0278  0.3347  0.1000
47794W        W48658  12.595  17.275  25.655  0.1359 -0.2071  0.0285
47795W        W48659  22.155  16.080   1.299 -0.0321 -0.0709  0.0630
47796W        W48660  16.363  22.513  19.525 -0.2781  0.0575  0.2777
47797W        W48661  18.795  15.819   9.010 -0.0317 -0.3099  0.0681
47798W        W48662  11.815  18.515   7.929 -0.1434  0.0536 -0.2438
47799W        W48663   0.930   1.875  18.330  0.0770 -0.4308 -0.1119
47800W        W48664  14.883  18.156  19.014  0.0321  0.0976  0.1574
47801W        W48665   4.214  11.127   4.285  0.0830  0.0596  0.1896
47802W        W48666   8.593   4.430  24.372 -0.1838 -0.0011  0.1361
47803W        W48667  24.158   2.975   9.599  0.3979  0.2998  0.0381
47804W        W48668   9.840  19.468   7.316 -0.2979  0.5057  0.0055
47805W        W48669  14.937  13.551   5.885  0.0179 -0.1384 -0.0942
47806W        W48670  18.571  17.556  28.222  0.2556  0.1492  0.4870
47807W        W48671   9.143  24.099   2.712 -0.0186  0.0358 -0.1763
47808W        W48672   7.642   3.392  24.484  0.1587 -0.0153  0.4647
47809W        W48673  10.624   1.397   6.228  0.3007  0.1496 -0.3583
47810W        W48674   4.649   9.961  28.710 -0.2746  0.0698 -0.0271
47811W        W48675   7.668  18.164  23.117 -0.0335  0.3879  0.2660
47812W        W48676  16.673  21.565   9.084 -0.3325 -0.3435 -0.3021
47813W        W48677  17.895  29.060   4.415 -0.0679  0.0407  0.1958
47814W        W48678  24.600  17.784  14.249  0.2041  0.0396 -0.1464
47815W        W48679  11.008  25.109  27.004  0.2012  0.2311  0.1572
47816W        W48680  15.961  23.813   0.356  0.0970  0.2665  0.3719
47817W        W48681   8.140   8.788   9.590  0.1208  0.3445  0.1479
47818W        W48682  11.107   6.922  19.041 -0.3431 -0.1531  0.4286
47819W        W48683   4.594   1.432   7.624 -0.0606 -0.0643  0.2629
47820W        W48684  27.347   2.533  12.891  0.3523  0.0586 -0.0060
47821W        W48685   3.682   1.265   5.407  0.1410  0.1213  0.0895
47822W        W48686  17.060  19.816   9.638  0.0816  0.1833  0.1758
47823W        W48687   1.686  26.428  29.066 -0.1100 -0.0343 -0.3876
47824W        W48688  13.724   8.580   9.612  0.0663  0.0031 -0.1762
47825W        W48689   5.429  20.729   9.293  0.2529  0.2920 -0.2231
47826W        W48690   1.320  23.629   6.431 -0.0238  0.2256 -0.0603
47827W        W48691   9.313   8.821   7.415 -0.0676  0.1722 -0.4260
47828W        W48692   5.100  23.214  15.015 -0.1697 -0.1071  0.0863
47829W        W48693   2.938  21.238  27.847  0.1719 -0.1208  0.2194
47830W        W48694  16.377  21.605  14.350  0.1061 -0.1908 -0.1151
47831W        W48695  23.948   4.961   2.515  0.2459  0.1139  0.1156
47832W        W48696  21.519  26.239  25.724  0.0232  0.2740  0.1281
47833W        W48697  19.227  17.856   5.802 -0.0306 -0.0655 -0.2725
47834W        W48698  26.987  12.515  26.679  0.0527  0.0384 -0.1113
47835W        W48699   9.935  13.322  24.682 -0.0571  0.2110 -0.0941
47836W        W48700  21.701  27.041  14.106 -0.0067 -0.0932 -0.0868
47837W        W48701   4.419  16.428  15.691  0.2174 -0.1765  0.1878
47838W        W48702  22.765   4.944  19.530 -0.2702  0.2038  0.1113
47839W        W48703  10.072   7.010  20.849  0.3315  0.1003  0.0379
47840W        W48704   3.198  27.356   3.670 -0.0176 -0.0356 -0.2763
47841W        W48705  28.652  26.904   4.486 -0.1709 -0.1712 -0.1797
47842W        W48706   3.116  23.631  21.532 -0.1304 -0.0438  0.0988
47843W        W48707  27.685  12.523   1.730  0.1689 -0.5631  0.3035
47844W        W48708  10.784  14.496   5.191 -0.1019 -0.0125  0.1492
47845W        W48709  11.505  12.110  26.333 -0.2679 -0.0828 -0.1523
47846W        W48710  21.487   2.505  22.347  0.1985 -0.3851  0.1627
47847W        W48711  26.929   1.433  27.400  0.1014  0.0206  0.2619
47848W        W48712  25.003   4.057   4.969  0.1284  0.1566  0.2897
47849W        W48713  17.100   4.706  25.377  0.2132  0.1288 -0.0751
47850W        W48714  27.181   0.548   9.840  0.1166 -0.0038  0.0468
47851W        W48715  15.211   3.099   4.460 -0.1047  0.0401  0.1979
47852W        W48716   3.321  23.975  24.796  0.0191 -0.0341 -0.3631
47853W        W48717  23.486   2.725  22.422  0.0593 -0.1071  0.1228
47854W        W48718  21.478   8.904   1.366  0.2950  0.3204  0.1949
47855W        W48719  17.264  22.824   9.214 -0.0809  0.1004  0.1670
47856W        W48720  17.536  18.666   3.855  0.1642 -0.1809  0.1435
47857W        W48721  16.565  28.848  25.384 -0.1126  0.0230 -0.2579
47858W        W48722  12.999  10.350  26.370  0.1726  0.0625  0.0301
47859W        W48723   6.385   2.134  21.182 -0.0208  0.4372  0.0425
47860W        W48724   9.820  17.176  27.350  0.0339 -0.0299  0.0147
47861W        W48725   1.994  24.748  22.711  0.1836 -0.3761 -0.1030
47862W        W48726  14.184  25.892   7.310 -0.3642  0.1800  0.3011
47863W        W48727   9.666  25.728  25.614  0.0594  0.1658 -0.2745
47864W        W48728  13.768  16.657   3.141 -0.0991 -0.0297  0.1139
47865W        W48729  16.101   9.605  10.278 -0.1025 -0.1578  0.1986
47866W        W48730   4.380  22.512  26.168 -0.2430 -0.0565 -0.0723
47867W        W48731  11.199  25.680  23.684  0.1841  0.0344  0.1863
47868W        W48732  15.458  19.799  24.297  0.3662  0.2339 -0.0637
47869W        W48733  12.050   8.376   4.773  0.0973 -0.2584 -0.0044
47870W        W48734  10.600   0.986   7.684  0.2425  0.2345 -0.1001
47871W        W48735  15.199  24.152  21.922  0.0164 -0.1294 -0.1518
47872W        W48736  19.260  10.205  13.057  0.0345  0.2507 -0.1120
47873W        W48737  23.473  20.685   1.833 -0.1619  0.0224  0.0477
47874W        W48738  24.068   1.925  12.142  0.0296  0.2211 -0.2212
47875W        W48739  26.039  22.296   7.874  0.0791 -0.1183  0.1507
47876W        W48740   1.524  22.339  19.679 -0.2666 -0.0779  0.0957
47877W        W48741   3.949  10.926   3.926 -0.1297  0.2596 -0.0741
47878W        W48742   6.088  28.552  11.479  0.0449  0.1108 -0.4637
47879W        W48743   8.105  16.670  28.878  0.1082 -0.0247  0.0043
47880W        W48744   0.722  16.221  10.286  0.0005 -0.0985  0.0762
47881W        W48745  28.536   4.163  23.462 -0.2246 -0.3664 -0.2185
47882W        W48746  20.416   8.564   0.403 -0.1055 -0.2262  0.2508
47883W        W48747  25.332  24.601  12.703 -0.1227 -0.0017  0.1026
47884W        W48748   5.436   7.104   0.584 -0.2219 -0.0287 -0.0562
47885W        W48749  25.052   1.517  22.989  0.0732  0.3118 -0.0486
47886W        W48750  15.941  16.635  28.644  0.0534 -0.1704  0.2322
47887W        W48751  12.403  24.063  12.062  0.0535  0.1340 -0.1184
47888W        W48752  24.128   4.716  21.757 -0.3377 -0.4392 -0.2997
47889W        W48753  23.080   2.638  13.596  0.1519  0.2247  0.0169
47890W        W48754  21.295  15.912  11.571 -0.1492  0.2092  0.1562
47891W        W48755   1.813   8.858  19.944 -0.2833 -0.4640 -0.1435
47892W        W48756   6.598   0.726  16.329 -0.0551 -0.0004  0.0278
47893W        W48757  16.108  25.294  13.189 -0.0987 -0.0725 -0.2041
47894W        W48758  20.584  27.645  27.431  0.0231 -0.0890 -0.0849
47895W        W48759   1.970  26.572   7.666 -0.0456 -0.3027 -0.2726
47896W        W48760  19.836   8.883  10.782 -0.2338 -0.0584  0.0568
47897W        W48761  27.315  14.000   3.573  0.0581 -0.0465  0.0905
47898W        W48762  21.676  27.827   3.349 -0.0725  0.1714 -0.0947
47899W        W48763   9.825  20.934  23.979  0.4639  0.0839  0.1793
47900W        W48764  21.317  27.179   5.909  0.0262 -0.1105 -0.1166
47901W        W48765  11.025  23.857  27.512 -0.0426  0.5139  0.2037
47902W        W48766  14.661  14.383   5.163  0.1914  0.0709  0.1821
47903W        W48767  13.895  15.213  20.668 -0.1413  0.0065  0.0199
47904W        W48768  21.161  27.220   5.283  0.0987 -0.3012  0.1224
47905W        W48769   5.235  15.360   4.299 -0.0647 -0.1025  0.2738
47906W        W48770  16.370   1.994   3.231  0.1930 -0.0765  0.1270
47907W        W48771  15.299   8.720  20.411  0.2990  0.2902 -0.0036
47908W        W48772   3.847  15.934   6.932  0.0034 -0.2136  0.0539
47909W        W48773  24.607  18.853  20.162  0.1602  0.3841 -0.3914
47910W        W48774   4.016   9.377   5.778  0.2262 -0.2170 -0.2669
47911W        W48775   7.275   2.661   3.543  0.0233 -0.0673  0.3032
47912W        W48776   7.154   3.824  21.493 -0.2790 -0.2566  0.1939
47913W        W48777   9.192   8.604  13.497 -0.1619  0.0548  0.2393
47914W        W48778  20.498  22.350   9.025 -0.2228  0.0845 -0.1219
47915W        W48779  12.633  25.897   4.170 -0.3422 -0.2765 -0.0770
47916W        W48780  21.741   2.073   7.856 -0.0781 -0.1282 -0.2426
47917W        W48781   7.550   2.856  11.435  0.1701 -0.3473  0.3080
47918W        W48782  12.352  25.358  10.416 -0.1936  0.2860  0.0970
47919W        W48783  22.150   1.453   9.500 -0.1198  0.0022  0.1904
47920W        W48784   0.102  11.162   9.744  0.3249  0.0473 -0.1630
47921W        W48785  26.170  16.290   4.191 -0.1643  0.3100 -0.0214
47922W        W48786  14.671  16.430  25.381 -0.1113  0.2276  0.1383
47923W        W48787  13.507   5.193  21.963 -0.2014  0.1176  0.1326
47924W        W48788   1.504   5.613   6.844  0.1254 -0.2413 -0.1552
47925W        W48789  20.476   5.905  26.896  0.1391  0.3851 -0.2749
47926W        W48790  19.621  20.131  12.701 -0.0685 -0.1377  0.1110
47927W        W48791  19.016   3.214   5.240  0.0386  0.1079 -0.1107
47928W        W48792  14.685  24.723  27.210 -0.1984 -0.1685 -0.2211
47929W        W48793  29.084  28.792  22.456 -0.2033 -0.1434  0.2759
47930W        W48794  12.340  23.673   9.973 -0.0365 -0.2448 -0.0292
47931W        W48795   0.677   2.650  27.440 -0.1744 -0.3338  0.0883
47932W        W48796   2.988  13.782  21.640  0.0243  0.0448  0.1675
47933W        W48797  10.945  24.050   4.510 -0.1691 -0.1735 -0.0537
47934W        W48798  25.856  25.388  15.657  0.1555 -0.2410  0.0091
47935W        W48799   1.899  11.118  24.331  0.0668  0.1152 -0.2138
47936W        W48800  21.555  24.127   6.530 -0.4411  0.1962 -0.0310
47937W        W48801   3.160   3.705   8.214  0.4682 -0.1285 -0.0974
47938W        W48802  27.626   0.740   3.098  0.0002 -0.1980  0.0007
47939W        W48803   5.649   3.628  13.240 -0.2542  0.3115 -0.1356
47940W        W48804  27.846   7.308   7.701 -0.1674  0.0486  0.0986
47941W        W48805   5.905  18.978   1.739  0.0924  0.2845  0.0161
47942W        W48806   6.516  23.619   0.583 -0.3751  0.2181  0.0740
47943W        W48807  23.434  13.263  19.536  0.0837  0.1846 -0.1135
47944W        W48808  20.700  19.263   4.622 -0.2024 -0.2623  0.1225
47945W        W48809  21.406  26.108  13.161 -0.1713 -0.0575 -0.0506
47946W        W48810  28.408   8.824  28.174  0.0135  0.2394 -0.4583
47947W        W48811   7.961  14.743  12.713 -0.1241 -0.1573  0.0853
47948W        W48812   9.626  16.417  15.767 -0.1030  0.0809  0.2199
47949W        W48813  27.880  12.629   4.845 -0.0562 -0.1361  0.0854
47950W        W48814  10.538   2.019   0.598  0.0121 -0.0701  0.0552
47951W        W48815  17.375  22.010   4.670 -0.1696  0.0177  0.3545
47952W        W48816  17.938  18.530  25.297 -0.0975  0.0218  0.0852
47953W        W48817   3.038  27.688  10.977 -0.1853  0.2753  0.0089
47954W        W48818  21.031  22.309  12.512  0.1506 -0.1382 -0.0268
47955W        W48819  23.108  15.069  24.897  0.1613  0.2195  0.0798
47956W        W48820  27.984  24.009  28.676  0.1498 -0.1350  0.0898
47957W        W48821  22.301  21.179  10.426  0.2716  0.0977  0.1711
47958W        W48822   7.641   6.125  25.050  0.0470 -0.1407  0.0298
47959W        W48823  26.828   7.613  27.929  0.1744  0.2425 -0.0518
47960W        W48824   9.939  23.254  22.204 -0.1527  0.3650 -0.0243
47961W        W48825  18.534  15.830   6.694  0.0325  0.0730  0.0726
47962W        W48826   5.324  27.913  26.435  0.2097  0.1984 -0.1482
47963W        W48827  21.822   1.498   1.333 -0.0861 -0.0656 -0.0622
47964W        W48828   7.310   1.995  20.811  0.1014  0.1067 -0.0400
47965W        W48829  12.387   0.641   9.529 -0.1106  0.0203 -0.2989
47966W        W48830  21.195  17.569  10.324  0.2029  0.0592  0.1126
47967W        W48831  10.807  24.119  28.264 -0.2086  0.0964  0.2702
47968W        W48832   7.797   8.937  17.332 -0.0572 -0.1275 -0.1497
47969W        W48833   3.331   3.345   6.874 -0.2437  0.1155 -0.0236
47970W        W48834  22.822  16.473   0.705 -0.1677  0.0118  0.0287
47971W        W48835  26.127   6.057   9.181  0.4839  0.4108  0.0126
47972W        W48836  12.848   6.906  18.120  0.0838 -0.1230  0.1209
47973W        W48837  20.061  23.940  15.704  0.2639 -0.0490 -0.3636
47974W        W48838   3.117  10.534  21.695  0.2235 -0.1464 -0.1585
47975W        W48839  17.892  27.042   8.463  0.1788  0.3898  0.3033
47976W        W48840  22.947  14.773   5.226 -0.1169  0.1627  0.1707
47977W        W48841  24.325  28.679   0.635  0.2297 -0.0731 -0.1763
47978W        W48842   8.044  26.720   8.285 -0.0003  0.0663 -0.1931
47979W        W48843   0.238  18.729   6.203 -0.2723  0.0353  0.4281
47980W        W48844  26.319   8.863  14.241  0.1188  0.0118  0.1193
47981W        W48845   1.147   2.331   6.464  0.0618  0.2219 -0.1143
47982W        W48846  25.843  14.360  24.038 -0.0571 -0.0079 -0.0748
47983W        W48847  11.846  15.100  13.594  0.2623 -0.2847 -0.3090
47984W        W48848   9.542   3.967   3.720 -0.2357 -0.0325 -0.1955
47985W        W48849  25.466  22.689  28.059 -0.0229  0.1761 -0.0625
47986W        W48850  25.421  13.875   8.549  0.0063 -0.0164  0.1407
47987W        W48851  20.724   5.426   1.055  0.2063  0.1469  0.0225
47988W        W48852  15.010  24.739  21.923  0.1943  0.2559 -0.3313
47989W        W48853   9.292   2.601  10.082  0.1272  0.3188  0.0075
47990W        W48854   7.010  25.431  18.704  0.0215 -0.2586  0.2673
47991W        W48855  14.534  10.695   7.509  0.0737 -0.3355 -0.0901
47992W        W48856  28.734  10.717  18.704 -0.0530  0.0213 -0.0467
47993W        W48857   6.172   9.477  25.057 -0.0201  0.0927 -0.3568
47994W        W48858  26.742   9.937   9.152  0.1923  0.4562 -0.3741
47995W        W48859  23.240  27.565  24.612  0.2915 -0.1104  0.0126
47996W        W48860   6.431   0.458   8.689  0.0053  0.0666 -0.0449
47997W        W48861  20.122  16.530   5.606 -0.0117  0.0303  0.1080
47998W        W48862  24.109  13.712   5.061 -0.0949  0.2743 -0.1617
47999W        W48863   1.049  22.535  24.728 -0.1114 -0.0223 -0.0291
48000W        W48864  17.199   0.104   0.645 -0.4465 -0.0952  0.0688
48001W        W48865  10.640   6.803  27.822 -0.0387  0.0857  0.0755
48002W        W48866  22.575  21.281  26.799 -0.0619 -0.3920  0.3016
48003W        W48867  17.877   6.187  26.687 -0.0324 -0.1009  0.1576
48004W        W48868  24.947   1.288   4.088 -0.1255  0.2644  0.1206
48005W        W48869  11.940   7.825  24.568 -0.2874  0.2693 -0.3062
48006W        W48870   5.128  14.015  10.989 -0.0249 -0.1130  0.1376
48007W        W48871  21.383  16.484  14.076 -0.0425  0.0925  0.0655
48008W        W48872  26.328  11.700  13.714  0.3600 -0.0544 -0.1778
48009W        W48873  10.217  18.599   9.713 -0.0912  0.0987 -0.2802
48010W        W48874  15.985  14.981   9.596 -0.0249 -0.0539 -0.3651
48011W        W48875  16.819   9.969   1.775  0.0162  0.1266 -0.2215
48012W        W48876  21.128   1.494  15.450 -0.0816 -0.1223  0.1610
48013W        W48877  18.525   4.062  13.231  0.4740  0.0610  0.1025
48014W        W48878   0.471  27.379  25.890 -0.0127 -0.3027 -0.1145
48015W        W48879  17.082   4.982   8.167  0.2521  0.2994 -0.0289
48016W        W48880   6.895  11.044   0.196  0.0226  0.2944  0.1659
48017W        W48881  26.764  25.132  28.892  0.0972  0.0920  0.0989
48018W        W48882   1.569   5.284  20.314  0.1377 -0.4118 -0.2164
48019W        W48883  12.737  12.564  26.586  0.2662 -0.3569  0.0251
48020W        W48884  24.111  16.868   0.130  0.0173 -0.2401 -0.0535
48021W        W48885   0.236  11.964  21.259  0.2157 -0.1810  0.2222
48022W        W48886  23.463  24.894  10.107 -0.0109  0.3543 -0.0010
48023W        W48887  25.577  11.291  27.633 -0.0039  0.0521  0.1606
48024W        W48888  10.901  21.905  27.545  0.1327 -0.1821  0.2895
48025W        W48889  14.666  19.172  20.482  0.0967 -0.0008 -0.1523
48026W        W48890  22.465  16.115   9.524  0.1695 -0.0938 -0.3978
48027W        W48891  17.784  17.784  26.720  0.0970  0.0039 -0.1317
48028W        W48892   6.650   7.121  24.569  0.1505 -0.3335 -0.1193
48029W        W48893  14.130  10.977  13.176 -0.0771  0.2656  0.0900
48030W        W48894  17.991   9.955   0.402 -0.1576 -0.1468  0.1714
48031W        W48895  10.539  17.169   6.082  0.0980  0.1219 -0.0060
48032W        W48896  24.136   1.470   5.757  0.0001 -0.2622 -0.0155
48033W        W48897  25.533  25.971   9.759 -0.3607 -0.1441  0.0343
48034W        W48898   5.135  25.491  26.634 -0.1006  0.0493  0.2422
48035W        W48899  17.914  22.730   9.965  0.2911 -0.1196 -0.1909
48036W        W48900   6.058  10.019  17.053 -0.2594  0.2405 -0.1998
48037W        W48901   0.934   9.424  10.764 -0.4354  0.1803 -0.1841
48038W        W48902  23.077  10.265  11.451  0.3295 -0.0256  0.3300
48039W        W48903  21.954  28.471  12.930 -0.1541  0.1822 -0.0232
48040W        W48904  11.976   2.091  11.445 -0.0644  0.1633  0.4782
48041W        W48905  25.480  26.827  25.437 -0.2049  0.3370 -0.2311
48042W        W48906   3.940  18.132  27.873  0.0309  0.0785 -0.2537
48043W        W48907  15.458  10.060   2.804  0.0133  0.0050 -0.2350
48044W        W48908  13.186  23.728   8.599 -0.1646 -0.1454  0.1068
48045W        W48909  27.024  16.847   7.578  0.0138 -0.2807  0.1172
48046W        W48910   0.594   3.057  21.375 -0.1824  0.0041  0.0094
48047W        W48911   1.633  24.003  28.491  0.1544 -0.2021 -0.0131
48048W        W48912  21.935  14.033  28.551 -0.1736  0.2214  0.0206
48049W        W48913  18.700  21.613  16.168 -0.3945  0.0601  0.1828
48050W        W48914  17.244  23.398   3.270 -0.0710 -0.2408 -0.0433
48051W        W48915  20.251  14.311   2.372  0.0964  0.0591 -0.1557
48052W        W48916  22.517   0.583   4.548  0.2205 -0.2761  0.0704
48053W        W48917  20.693  14.713  24.388  0.0794  0.0381 -0.0613
48054W        W48918  20.619  28.694  14.167  0.0459 -0.1124  0.0147
48055W        W48919  23.647  19.143  24.096 -0.1723  0.0469 -0.1040
48056W        W48920   2.831   1.808  13.817  0.2599  0.1425  0.3467
48057W        W48921   6.452   5.810  21.493  0.0008  0.2555 -0.2135
48058W        W48922  25.161  20.002  12.723  0.1461  0.1052 -0.2601
48059W        W48923  18.206  24.692  12.022 -0.0598 -0.0857 -0.0544
48060W        W48924  13.291  23.863   9.143 -0.3218 -0.3963  0.2130
48061W        W48925  22.852   1.523  27.898 -0.0224 -0.0387 -0.0955
48062W        W48926  12.715  28.091  24.706 -0.1178 -0.1323  0.1364
48063W        W48927  26.397   7.472  13.203  0.0461 -0.2731 -0.0145
48064W        W48928   2.891  18.546  26.971 -0.1725 -0.3024 -0.1395
48065W        W48929  23.766  24.552  20.856  0.0728  0.0689  0.0393
48066W        W48930   2.193   6.009  22.472  0.1132  0.1351  0.1821
48067W        W48931  22.889   8.330  14.817  0.1784  0.1891 -0.0413
48068W        W48932  20.533  22.264  14.021 -0.1296  0.0041  0.1892
48069W        W48933   9.889  12.867  16.904 -0.1312 -0.1416 -0.0206
48070W        W48934  21.920   3.621  17.864 -0.0040 -0.1782  0.0593
48071W        W48935   0.258   5.013  27.162 -0.1400  0.0573 -0.2306
48072W        W48936  10.757   2.229   1.979 -0.2340 -0.1788 -0.0895
48073W        W48937  28.410  10.390   2.764  0.1656  0.0414 -0.0559
48074W        W48938  25.878  23.629  18.692  0.4043 -0.1243  0.0939
48075W        W48939   7.285   4.377   5.408 -0.1407  0.3940  0.2775
48076W        W48940  20.057  26.549  11.895 -0.0041 -0.1049  0.0580
48077W        W48941  13.103   6.837  12.406  0.0782  0.0110  0.1091
48078W        W48942  21.194   1.734  16.749 -0.2464 -0.1383 -0.0573
48079W        W48943   6.236  17.829  25.769 -0.0789 -0.0328 -0.0834
48080W        W48944  15.413  25.421   7.517  0.2569 -0.1866 -0.0576
48081W        W48945  24.244  16.097   4.257 -0.0099  0.2257 -0.1567
48082W        W48946   4.314   7.181  15.379  0.5527 -0.2234 -0.0813
48083W        W48947   5.351  26.113  21.906 -0.6487  0.1980 -0.0636
48084W        W48948  29.057  13.844   5.919  0.1215 -0.0887 -0.4086
48085W        W48949   5.298   6.373  12.127  0.0500  0.1489  0.1401
48086W        W48950   8.829   5.673   6.345  0.0854 -0.2355 -0.0584
48087W        W48951  17.834  18.092   0.979  0.2112  0.3206 -0.0578
48088W        W48952  27.928  26.661   1.217 -0.0520 -0.0940 -0.2343
48089W        W48953  17.679  12.403  25.662 -0.0927  0.0208 -0.0175
48090W        W48954  26.896  17.806  23.043 -0.1787 -0.0182 -0.1926
48091W        W48955   1.688  16.448  24.498 -0.0792  0.1271  0.1004
48092W        W48956  13.471   1.182   5.320 -0.0797 -0.2360 -0.1159
48093W        W48957  12.703  18.668  24.675  0.0841 -0.0455 -0.1101
48094W        W48958  13.019  13.976   9.601 -0.2544  0.0845 -0.0850
48095W        W48959  15.327  18.970   2.394 -0.0426  0.0875 -0.1774
48096W        W48960  20.999   9.355   6.008  0.2023  0.1547  0.1186
48097W        W48961  19.994  15.221  17.195  0.0255 -0.1896 -0.2814
48098W        W48962   9.749   3.468  23.978 -0.0833 -0.2476 -0.2029
48099W        W48963   5.789   6.208  15.085  0.3874 -0.0251  0.3096
48100W        W48964  17.104  19.549  26.208  0.0773  0.0134 -0.0012
48101W        W48965  10.268  23.961  13.235 -0.4540  0.0186  0.0408
48102W        W48966  14.933  28.794   7.256 -0.0337  0.1129  0.0362
48103W        W48967  21.683   3.914   5.819  0.0192 -0.1460  0.0600
48104W        W48968   2.769  24.502   2.161 -0.0729  0.2569  0.1605
48105W        W48969  22.420   8.375   1.610 -0.0339  0.1504 -0.1423
48106W        W48970  20.296   1.538  21.667 -0.1232 -0.0867 -0.0236
48107W        W48971  22.072  10.232   9.053  0.0502 -0.0295 -0.4223
48108W        W48972  26.342  14.842  24.470  0.1323 -0.0394 -0.2291
48109W        W48973  26.151  24.750   9.335  0.2179  0.1857 -0.3418
48110W        W48974  18.877   6.374   2.382  0.1840 -0.2288  0.3993
48111W        W48975  13.686  23.663   8.854  0.3765  0.0410  0.0868
48112W        W48976  28.830   5.466   0.048  0.2011 -0.3258 -0.0340
48113W        W48977   4.477   8.924  10.470 -0.0123  0.2101 -0.1032
48114W        W48978  14.933  23.566  13.087 -0.0852  0.0405  0.0523
48115W        W48979  19.752  25.496  13.358  0.2080  0.0648 -0.1178
48116W        W48980  19.945  14.358  26.956 -0.0497  0.1406  0.1060
48117W        W48981   7.803  18.244   1.262  0.1132 -0.2553  0.1203
48118W        W48982  11.093  21.599  11.008 -0.1773  0.1709 -0.2459
48119W        W48983  19.233   5.658   3.694 -0.0090  0.0350 -0.1702
48120W        W48984  22.553  19.228  22.258  0.0341 -0.2663  0.2149
48121W        W48985  11.339  22.335  18.258 -0.1701  0.1063  0.0014
48122W        W48986  10.816   1.868  10.132  0.2224 -0.0922 -0.1130
48123W        W48987  27.631  28.103  22.386  0.0955  0.3272  0.1397
48124W        W48988  21.976  28.664  22.803 -0.1871  0.0197 -0.2059
48125W        W48989  21.545  17.510   4.947 -0.1771  0.2292 -0.3335
48126W        W48990  13.370  26.301  11.820  0.2198  0.0817 -0.4776
48127W        W48991  15.231  17.427   6.464  0.1707 -0.0540 -0.1433
48128W        W48992  13.535  24.805  13.585 -0.1047  0.2305 -0.0876
48129W        W48993   8.382   1.118  12.444 -0.0881 -0.1986  0.3886
48130W        W48994  15.761   1.630  14.146  0.1019  0.0637  0.0233
48131W        W48995  17.018  22.208   2.561  0.0598 -0.0080  0.1349
48132W        W48996   9.708   9.332  27.051 -0.0737  0.0362  0.0031
48133W        W48997  13.775  11.332   1.609 -0.1292 -0.0454 -0.1682
48134W        W48998  10.257  27.917  25.906  0.0413  0.2976 -0.2131
48135W        W48999   3.050  26.623  14.373  0.0809 -0.1973 -0.3520
48136W        W49000  17.886  18.329  10.876  0.0879  0.0686  0.0690
48137W        W49001  15.568   3.485   1.566  0.1235 -0.5013 -0.1643
48138W        W49002  18.864  13.175  17.964 -0.1314 -0.0910  0.2420
48139W        W49003   4.767  26.217  14.868  0.1758  0.2692  0.0311
48140W        W49004  24.883   3.414  24.117  0.0381  0.2731  0.1560
48141W        W49005  15.630  20.554  25.859  0.1046  0.0602  0.0300
48142W        W49006  17.253   3.113  16.050 -0.0661  0.0554  0.0141
48143W        W49007  19.513  19.129   5.320  0.0418 -0.1068  0.2367
48144W        W49008  26.312   6.683   7.874  0.1070  0.1716 -0.3375
48145W        W49009  11.744  22.310  17.418  0.0053  0.0387  0.2279
48146W        W49010  21.921  16.494   7.296 -0.0894  0.1303 -0.3269
48147W        W49011   1.892  24.348  25.958 -0.1416  0.2041  0.1239
48148W        W49012  25.090  22.671  20.641 -0.0452 -0.3676 -0.3231
48149W        W49013   4.562  20.179  25.355  0.1666  0.1487 -0.1360
48150W        W49014  18.130  27.909   1.002 -0.0168  0.1084 -0.0146
48151W        W49015   4.389  14.074   9.446 -0.2430 -0.1387  0.2894
48152W        W49016  25.033  16.076  12.909  0.2071 -0.1555 -0.2597
48153W        W49017  16.657  15.306  26.546  0.1675 -0.0083 -0.1852
48154W        W49018  16.677   4.844   7.186 -0.0147 -0.1307  0.1348
48155W        W49019  22.852   2.412   9.710  0.0266 -0.2731 -0.1700
48156W        W49020   3.258  21.620  20.428  0.0353 -0.0023  0.2742
48157W        W49021  24.469  20.090  18.414  0.2120 -0.0088 -0.0978
48158W        W49022  11.481   5.777  28.503 -0.0980  0.0145  0.1114
48159W        W49023  14.259  28.213  23.910 -0.1485  0.1420  0.2261
48160W        W49024  21.937  26.974  28.856 -0.1323  0.1066  0.3521
48161W        W49025  20.076   2.006  19.685 -0.1802 -0.3041  0.1682
48162W        W49026   5.656  18.829  20.463  0.0481  0.1509 -0.0698
48163W        W49027   1.235  11.837  19.552  0.4664  0.1875 -0.1097
48164W        W49028  14.369  28.140  11.484  0.0697  0.0779 -0.1618
48165W        W49029  28.339  10.368   4.526 -0.1132  0.0053 -0.3952
48166W        W49030  23.846   0.684  28.018  0.1005 -0.3430  0.3631
48167W        W49031   0.740  11.828  16.402 -0.0522  0.0436  0.3798
48168W        W49032   8.437  22.005  18.038 -0.0944  0.1188 -0.0089
48169W        W49033  21.793  21.363   4.526 -0.1098 -0.1794  0.1188
48170W        W49034  15.197   0.178   1.359  0.1107 -0.1391 -0.3395
48171W        W49035  21.292  25.380  27.756 -0.0041  0.0287  0.1676
48172W        W49036   6.373  22.289  22.842  0.0815  0.1385 -0.2730
48173W        W49037  26.096  16.725  25.992  0.0785  0.1709 -0.2084
48174W        W49038  25.304  24.060  25.663  0.1737  0.0966  0.0202
48175W        W49039  17.799  21.586  17.436 -0.1058  0.2779  0.1643
48176W        W49040   6.441  11.215  14.307  0.0096 -0.2829 -0.0459
48177W        W49041   2.352   7.159  12.170 -0.2516  0.0292 -0.4346
48178W        W49042   4.725   1.397  17.907  0.0811 -0.1207  0.0372
48179W        W49043  12.462   8.952  13.274 -0.0067  0.0899  0.0875
48180W        W49044  23.538  21.795  14.844 -0.1623 -0.0863  0.1815
48181W        W49045  15.238  22.954   2.138  0.1373 -0.0545 -0.2769
48182W        W49046  24.794  24.740  19.050  0.0407  0.1293  0.0053
48183W        W49047  10.220  15.849  19.100  0.3162  0.1178  0.0896
48184W        W49048   7.171   7.229   6.306 -0.3891  0.0854 -0.0874
48185W        W49049  29.001   0.957   0.466 -0.2659 -0.2188  0.1563
48186W        W49050  21.305   9.423  12.338 -0.1670  0.1613 -0.0432
48187W        W49051   4.693   8.318   5.907  0.2089  0.0857 -0.0499
48188W        W49052  18.834   8.318  15.252  0.0139  0.0312  0.3373
48189W        W49053  18.341  19.546  11.424 -0.0252  0.0546 -0.2942
48190W        W49054  22.618  19.768   1.341 -0.1877 -0.0930 -0.1079
48191W        W49055  17.673   5.248   1.117  0.2510  0.2131  0.0752
48192W        W49056  14.936  14.992  28.970  0.2226  0.0125  0.1818
48193W        W49057  14.342   4.742   6.184 -0.3695 -0.0264 -0.0460
48194W        W49058  14.054   7.286  19.036  0.1378  0.1302  0.2509
48195W        W49059  28.031   4.058   4.159  0.0104 -0.1951  0.0116
48196W        W49060  11.742   0.535  20.045  0.1775 -0.2483  0.0278
48197W        W49061   5.925  26.515   7.215 -0.1753  0.2305 -0.2639
48198W        W49062  13.240  26.279  14.666 -0.1792  0.1850 -0.1323
48199W        W49063  23.868  22.763  27.698  0.0592  0.3824 -0.4840
48200W        W49064  20.893  22.411  17.533  0.1714 -0.1589  0.1475
48201W        W49065  25.446   8.183  23.920  0.1668 -0.1949  0.0370
48202W        W49066  22.454   2.908   9.418 -0.1647  0.2937  0.0496
48203W        W49067  19.505   2.493  18.333 -0.3650  0.2167  0.3129
48204W        W49068  27.516  27.923   1.966 -0.0172  0.0892 -0.2719
48205W        W49069  15.806  11.431  12.581  0.0884  0.1222 -0.3261
48206W        W49070  18.873   8.880   1.854  0.0495  0.1806  0.0615
48207W        W49071  24.506  22.518  15.576  0.1375  0.2938 -0.2881
48208W        W49072  11.892  28.408  12.044  0.0572 -0.0317 -0.1168
48209W        W49073  14.356  17.006  28.873 -0.0945 -0.1449  0.0630
48210W        W49074  25.824  25.089  11.574 -0.1558  0.2019 -0.3568
48211W        W49075  16.581  13.990   4.928 -0.1207 -0.2962  0.0947
48212W        W49076  22.510  21.522   8.837 -0.1110  0.0998  0.0874
48213W        W49077   0.363   5.352  21.838 -0.0415 -0.0831 -0.3756
48214W        W49078   9.066  18.741   4.792 -0.1539  0.0978  0.2505
48215W        W49079   0.466  21.583  11.976  0.2465  0.3386  0.2379
48216W        W49080  23.348  14.945  28.251  0.3049 -0.0089  0.1139
48217W        W49081  13.554  18.209  14.757  0.1131  0.0172 -0.1391
48218W        W49082   2.016  18.187  16.108  0.0419 -0.1400  0.0799
48219W        W49083   4.286  11.369  22.960 -0.1778 -0.0585 -0.2204
48220W        W49084  20.148  15.098  26.424 -0.2027 -0.2149  0.2800
48221W        W49085   7.426  27.673   6.852 -0.0496  0.1855 -0.0138
48222W        W49086  22.374  10.424   4.549  0.0946 -0.3359  0.0425
48223W        W49087  22.023  19.817   4.987 -0.1485 -0.0593 -0.1758
48224W        W49088   2.934  12.790   2.838  0.0996 -0.1656 -0.0258
48225W        W49089  21.432  20.374  12.039  0.0141  0.2706 -0.1739
48226W        W49090  26.508  17.922   2.680  0.2403  0.0216 -0.3213
48227W        W49091  28.637  14.737  15.153  0.0372  0.0863  0.1714
48228W        W49092   2.706  28.642  16.272 -0.0537  0.0782  0.2004
48229W        W49093  11.124   6.822  18.443 -0.1308  0.0664  0.4975
48230W        W49094  12.241  12.555   8.689  0.2186  0.1633  0.3167
48231W        W49095  20.376  16.238  20.068 -0.1137  0.2998 -0.0182
48232W        W49096  13.853   9.479  11.843 -0.3790  0.0374  0.3027
48233W        W49097  28.959  27.342  16.926 -0.0320  0.3984 -0.3233
48234W        W49098  14.957  17.456   3.571 -0.1574  0.1562 -0.1193
48235W        W49099  17.868  20.057   4.048  0.2795 -0.0275 -0.0790
48236W        W49100   6.909   4.062   2.770  0.1549  0.0976 -0.0073
48237W        W49101  15.770   4.215  22.427  0.0946 -0.0526  0.1038
48238W        W49102   2.617   1.019   6.823  0.1605  0.1182  0.0173
48239W        W49103  24.075  17.852   9.102 -0.0862  0.0876 -0.1325
48240W        W49104   7.799  18.646  18.936  0.2461  0.1759 -0.0547
48241W        W49105  21.788   9.462  11.850  0.1591  0.0385 -0.2319
48242W        W49106   6.465   3.725   4.725  0.0343 -0.0042 -0.3462
48243W        W49107  15.707  20.421  23.002  0.1755 -0.0487 -0.2389
48244W        W49108  17.982  14.820   8.392  0.3643 -0.1440  0.0191
48245W        W49109  27.672  25.646  16.830  0.0091 -0.1613 -0.2135
48246W        W49110  14.408   5.829   4.062 -0.2505 -0.0557 -0.1314
48247W        W49111   9.079  18.332   4.470  0.3190  0.4622 -0.2887
48248W        W49112  10.145  11.730  22.051 -0.0348 -0.0683 -0.1876
48249W        W49113  13.017  29.071  27.680 -0.5042  0.2003  0.4896
48250W        W49114  19.895  15.449   6.734 -0.0037  0.1552  0.1877
48251W        W49115  10.903  11.099  20.600 -0.2572 -0.2067  0.0090
48252W        W49116   1.169   1.919   2.114  0.0893 -0.2161  0.0182
48253W        W49117  24.812   5.653  18.281 -0.3505  0.1362 -0.3308
48254W        W49118  15.244  28.087   9.166 -0.3612  0.1293 -0.1136
48255W        W49119  20.585  12.590  21.003 -0.0409  0.0491  0.0206
48256W        W49120  21.726  23.399  10.908  0.1814 -0.1674  0.0184
48257W        W49121  19.747  26.636   1.816 -0.3731 -0.0267 -0.0351
48258W        W49122  20.279  24.387   8.032  0.1643  0.0880 -0.1536
48259W        W49123   6.927   6.763  15.189 -0.1458  0.0708  0.0082
48260W        W49124  20.065  19.499  20.872  0.0849 -0.2035  0.1592
48261W        W49125  14.850  22.884   2.910 -0.3385 -0.0963 -0.2563
48262W        W49126   2.203  20.314  26.233 -0.3011  0.1991 -0.1111
48263W        W49127  13.383   0.796   6.280 -0.0715 -0.1842  0.1330
48264W        W49128  16.322   9.506  21.725 -0.0371 -0.0573  0.1896
48265W        W49129  15.019   5.548  28.526 -0.0139 -0.1801  0.0516
48266W        W49130  15.265  23.375  22.189  0.2129  0.1532 -0.0797
48267W        W49131  28.085   5.637  17.023 -0.0204 -0.1979  0.0150
48268W        W49132   0.300   9.650   1.303  0.0737 -0.3396 -0.2168
48269W        W49133  27.025   3.679   5.693 -0.0299 -0.0735 -0.1233
48270W        W49134  16.734  27.069  16.894 -0.0722 -0.1713  0.0015
48271W        W49135  20.019   6.720   0.280  0.3369 -0.1654 -0.0730
48272W        W49136   7.476  17.964  12.172 -0.0882 -0.1450  0.1174
48273W        W49137  10.732  27.200   8.335  0.0954  0.1443  0.1046
48274W        W49138  12.135  28.131   9.717 -0.0690 -0.1356 -0.1499
48275W        W49139   3.879   1.750   1.818  0.0435  0.0753 -0.0069
48276W        W49140  19.691   3.031  11.799  0.1638 -0.0538 -0.2392
48277W        W49141  22.657  25.239   1.600  0.0475 -0.0582  0.0468
48278W        W49142  18.940   1.809  28.015 -0.0423 -0.1140 -0.0489
48279W        W49143  16.535  14.154  16.019 -0.4740  0.1293  0.0000
48280W        W49144   9.894  24.053  16.986  0.0371 -0.1378  0.2006
48281W        W49145   8.740  29.015  13.292 -0.0384  0.1850 -0.1850
48282W        W49146  26.962  11.118  28.066 -0.1195  0.2547 -0.2778
48283W        W49147   6.165  27.593  20.106 -0.1378  0.1763  0.0313
48284W        W49148   8.285  25.917   5.635 -0.2544  0.1703  0.2182
48285W        W49149  17.489  26.215  22.215 -0.0545 -0.0702  0.2289
48286W        W49150  18.387  28.341  28.707  0.0290 -0.0159  0.1409
48287W        W49151  13.944   8.641  13.069 -0.2032 -0.0504  0.0122
48288W        W49152  10.033   4.269  16.739  0.2088  0.1391  0.1994
48289W        W49153   3.901  18.163   0.888  0.1344 -0.2797  0.3982
48290W        W49154  25.564   2.830   6.924  0.0992 -0.2089 -0.1489
48291W        W49155   9.291  17.549   4.389  0.0275  0.0490  0.2468
48292W        W49156  25.453  20.936   0.065  0.0645  0.0333 -0.0350
48293W        W49157  21.127  26.184   4.962  0.0213 -0.0550 -0.0401
48294W        W49158  13.158   1.325   7.344  0.0414  0.2427  0.2926
48295W        W49159  15.402  28.430  28.442  0.2967  0.3715 -0.0526
48296W        W49160  26.669   1.615   2.744 -0.1589  0.1749  0.3456
48297W        W49161  28.560   2.149   9.163  0.0970 -0.2795 -0.2752
48298W        W49162  15.507  13.292  18.240  0.3350  0.1782 -0.2152
48299W        W49163  13.037  26.639  16.335  0.0066  0.1423 -0.1656
48300W        W49164  11.325  11.868  27.863 -0.3371 -0.0054  0.2465
48301W        W49165  22.253  24.944   2.433 -0.1147  0.0082  0.1167
48302W        W49166   8.447  11.139   6.011 -0.0066 -0.4016  0.1413
48303W        W49167  25.653  18.837  26.056  0.0596 -0.1649 -0.4023
48304W        W49168  22.900  23.689   7.191 -0.2091 -0.1199  0.0667
48305W        W49169  19.200   7.875  15.122 -0.0640 -0.1399 -0.0312
48306W        W49170  24.229   3.564  16.580 -0.3072 -0.1715 -0.0021
48307W        W49171   1.118   9.405   0.909 -0.0365  0.1003  0.0146
48308W        W49172  18.158   0.670   6.084  0.0157  0.4356  0.0610
48309W        W49173   4.706   1.090  14.783 -0.0152 -0.1163  0.0321
48310W        W49174  14.976  21.511   4.844 -0.1304  0.2671  0.1862
48311W        W49175  13.784  23.848  26.472 -0.2407  0.2959 -0.0921
48312W        W49176  20.322  24.318  26.702  0.3248  0.0365  0.1206
48313W        W49177   1.049  24.174  26.410 -0.0383 -0.0785  0.1885
48314W        W49178   2.734  20.929   8.133 -0.3992 -0.1143 -0.3216
48315W        W49179  14.609   3.067  14.259 -0.2150  0.0711  0.2994
48316W        W49180  28.565  20.394   6.787 -0.0476  0.3407 -0.1591
48317W        W49181  10.218  23.938  12.723 -0.2524 -0.2550 -0.3788
48318W        W49182  14.815   6.892  17.659 -0.2054  0.3225 -0.1387
48319W        W49183  18.021  23.181  12.472 -0.1503 -0.1147  0.0326
48320W        W49184  23.600   2.311   5.883 -0.0174  0.0414 -0.1547
48321W        W49185  26.411   0.044   3.260 -0.0442  0.0765 -0.0601
48322W        W49186  19.518   2.994  11.163  0.3943  0.0496 -0.0202
48323W        W49187  28.831  27.842  28.525  0.1564 -0.2206 -0.1377
48324W        W49188  23.083  19.843   3.542  0.2475  0.0882 -0.2412
48325W        W49189  26.508  21.277   3.424 -0.1869 -0.0834 -0.1737
48326W        W49190   0.099   0.358  16.196 -0.1723 -0.1254  0.1500
48327W        W49191  19.156   2.710  21.255 -0.0138 -0.1529 -0.1540
48328W        W49192  12.306  18.322   2.301 -0.1115 -0.2992 -0.1467
48329W        W49193  22.064  26.028   9.503 -0.2347  0.0383 -0.0604
48330W        W49194  10.473   2.246  10.170  0.2382 -0.0525 -0.1494
48331W        W49195  12.416   3.135   8.543  0.2285 -0.0135  0.0572
48332W        W49196   0.473  16.447  12.361  0.0851  0.0319 -0.2442
48333W        W49197   4.565  22.599  28.055  0.3472  0.0653  0.1729
48334W        W49198  11.245  24.198   5.047  0.0781 -0.3710 -0.2610
48335W        W49199  17.990   2.286   1.791 -0.1247 -0.0856 -0.0254
48336W        W49200  26.139  20.614  20.209  0.1453  0.2432 -0.0557
48337W        W49201   9.230  23.467   1.913 -0.2991 -0.4193  0.2023
48338W        W49202  17.676  27.799  21.310 -0.0864 -0.0590  0.0532
48339W        W49203   1.932   1.410  27.760  0.2296  0.0922 -0.2040
48340W        W49204  26.697  26.504   0.414 -0.1101  0.0457 -0.0990
48341W        W49205   0.811   8.338  17.323  0.0828 -0.1568  0.1346
48342W        W49206   2.426  27.077  19.969 -0.0937  0.1550  0.4441
48343W        W49207   6.882  21.655   9.872  0.0493 -0.0891  0.4480
48344W        W49208  24.120  28.581  12.656 -0.0481 -0.1450 -0.0755
48345W        W49209  26.796  21.949  28.193 -0.4101 -0.1413 -0.0886
48346W        W49210  20.307  19.837  22.423  0.1991 -0.1435 -0.0144
48347W        W49211  19.401   2.430  28.842  0.1557 -0.0166 -0.2278
48348W        W49212  12.824   3.197   6.472  0.1480  0.1568 -0.1493
48349W        W49213  17.651  17.907   2.704 -0.0289 -0.0217  0.0390
48350W        W49214  26.631  27.740   5.612  0.3473  0.2949 -0.1329
48351W        W49215  18.348   3.389   8.610 -0.1090 -0.4361  0.0683
48352W        W49216  10.224  26.367  19.080  0.1942  0.0572 -0.2879
48353W        W49217  24.934  20.164   5.985 -0.0620  0.0424 -0.3604
48354W        W49218   8.369   0.448  24.764  0.0239  0.1885 -0.2183
48355W        W49219  11.747  25.607   3.894 -0.1129  0.2175 -0.1543
48356W        W49220  21.300  17.463   3.886 -0.5037  0.1371 -0.0885
48357W        W49221  14.197   3.578  16.861  0.0030 -0.2266 -0.0314
48358W        W49222  12.863  13.913  22.166 -0.0239 -0.1742 -0.1391
48359W        W49223   2.944   2.588   1.306  0.1477  0.1193  0.2371
48360W        W49224  15.371   0.153   8.261 -0.0023 -0.2809 -0.0175
48361W        W49225  25.325  20.464   6.705 -0.2093 -0.1233 -0.2311
48362W        W49226  24.694  28.807   0.324  0.0557 -0.0675 -0.2778
48363W        W49227  21.090  16.014   5.490  0.0093  0.1272 -0.2733
48364W        W49228  20.089  20.748  19.376  0.1124  0.1539 -0.2195
48365W        W49229   4.202  10.329  24.487 -0.1677 -0.2718  0.1536
48366W        W49230  15.464  22.459  12.429  0.0913 -0.2108 -0.0330
48367W        W49231  10.289  21.807  27.870  0.0057 -0.2171 -0.1235
48368W        W49232  18.920  22.337  15.221  0.1814  0.1049 -0.0570
48369W        W49233   9.279   7.571  13.565  0.1451  0.1407  0.0381
48370W        W49234   7.096   1.693  17.397  0.0115 -0.1928 -0.3863
48371W        W49235  20.327  17.443  14.537 -0.2729  0.2992  0.1222
48372W        W49236  25.908  24.358   1.874 -0.1454  0.1311  0.0290
48373W        W49237   4.713   9.875  23.998  0.0589 -0.1970  0.0056
48374W        W49238  27.607   8.365   9.741 -0.0284 -0.1055 -0.0357
48375W        W49239  27.066  27.956   7.476  0.3287  0.1463  0.0195
48376W        W49240   9.104  24.436   5.432  0.1603  0.0847 -0.0912
48377W        W49241   1.458  28.307   6.441  0.1730 -0.2943  0.1511
48378W        W49242   1.761  22.456   9.926  0.1580 -0.1388  0.1324
48379W        W49243  22.029  20.956   7.939 -0.0116 -0.1966  0.0656
48380W        W49244  25.849  20.295  12.237  0.0086  0.1365  0.0895
48381W        W49245   6.712   4.094  12.403  0.2419  0.0873 -0.1284
48382W        W49246  13.495  14.419  24.869  0.0205 -0.1311  0.2421
48383W        W49247  28.077   6.172  16.847  0.2347  0.1542  0.1072
48384W        W49248  21.444   0.274  19.483 -0.0564 -0.1646 -0.0404
48385W        W49249  18.586  28.834  28.812 -0.0797 -0.1315  0.1415
48386W        W49250  14.160   4.279  12.392  0.1257 -0.1889 -0.0407
48387W        W49251  15.691   0.672  19.931  0.2152  0.2897  0.2375
48388W        W49252   4.965  16.951   9.310  0.2161  0.4801 -0.1012
48389W        W49253  22.798  24.142  28.707 -0.0541 -0.2840 -0.0491
48390W        W49254   9.039  27.956  23.366 -0.1277  0.0546  0.3486
48391W        W49255  19.461  26.169  24.539 -0.1624  0.2665  0.1784
48392W        W49256   3.098   6.167  27.662 -0.0331 -0.0587 -0.1190
48393W        W49257   7.926  10.243  27.495 -0.1024 -0.0163  0.3234
48394W        W49258  18.217  13.066  25.054  0.0977  0.0659  0.2696
48395W        W49259  10.195  10.895  11.709 -0.3167  0.1450 -0.4627
48396W        W49260  23.112   7.759   1.356 -0.1671  0.1580 -0.0622
48397W        W49261  16.716   1.009   8.957 -0.2362  0.1500 -0.3053
48398W        W49262   0.951  23.656   0.241 -0.0866 -0.0943 -0.3259
48399W        W49263   0.195  20.095   4.989  0.3221  0.0507 -0.0808
48400W        W49264  18.084  11.259  11.279 -0.0649  0.2184  0.1837
48401W        W49265  10.774  25.869   4.348 -0.2051 -0.0079  0.0683
48402W        W49266   3.714   7.239   1.991  0.0708 -0.2840  0.0103
48403W        W49267  28.999  20.502  28.388  0.0567 -0.3788 -0.2185
48404W        W49268  16.165  26.143   1.068  0.2121 -0.1260 -0.0007
48405W        W49269  14.391   6.576  26.561  0.1706  0.1099 -0.0609
48406W        W49270  24.476  22.621  17.468  0.1859 -0.1353  0.1766
48407W        W49271  13.854   0.973   3.847 -0.3656  0.1011  0.1090
48408W        W49272   8.101   5.068   6.517 -0.2245 -0.3323 -0.1651
48409W        W49273   8.196  28.009  27.878 -0.1013 -0.1301 -0.2217
48410W        W49274  12.848  23.545  27.347  0.1276  0.0064 -0.2701
48411W        W49275  15.398  19.087  18.865  0.1817  0.2056  0.0208
48412W        W49276  17.224  21.062   9.775  0.1436 -0.3110  0.1169
48413W        W49277  11.208   6.632   8.549 -0.0519 -0.0131  0.1706
48414W        W49278  17.725  14.835   2.552 -0.3202 -0.0689 -0.1221
48415W        W49279   1.631  21.769  11.913  0.0018  0.0381 -0.2945
48416W        W49280  24.002   5.973  13.906 -0.2404 -0.0527 -0.1245
48417W        W49281  13.201  23.060  23.910 -0.1206  0.0373  0.0186
48418W        W49282  15.621   1.169  10.323  0.0177  0.2348  0.3070
48419W        W49283   2.931   6.375   4.745 -0.0192 -0.2304 -0.2184
48420W        W49284  16.435  16.702  10.847  0.1469 -0.2057  0.1689
48421W        W49285  21.211  10.784  25.218 -0.2953 -0.0449 -0.0196
48422W        W49286  26.079   3.621  13.126 -0.1068 -0.2211 -0.3249
48423W        W49287  27.930  24.619  16.370 -0.0210  0.2487  0.0888
48424W        W49288  13.133  12.298  22.176 -0.0997 -0.0059  0.2763
48425W        W49289  22.227  10.498  24.163  0.1337 -0.1331  0.0611
48426W        W49290  19.361  28.221   9.051 -0.1150  0.0073  0.2510
48427W        W49291  28.105   3.240   6.685  0.0890 -0.0772 -0.4575
48428W        W49292   0.127  21.520   7.916  0.1956 -0.0028 -0.1148
48429W        W49293   4.607  26.186  13.065  0.0533 -0.2543 -0.0341
48430W        W49294  18.386  27.056  25.531 -0.1862 -0.1859 -0.0304
48431W        W49295  10.323  13.308   9.471 -0.1827  0.0900 -0.0956
48432W        W49296   0.654  13.319  12.731  0.0073  0.0617  0.0208
48433W        W49297  11.992  25.414   7.296 -0.0696 -0.1018 -0.0146
48434W        W49298  16.467  24.068  21.468  0.0576 -0.1868  0.0953
48435W        W49299  12.056  27.323   5.159  0.1113  0.1129 -0.0514
48436W        W49300  13.718   3.604  22.875 -0.0925  0.1920 -0.2208
48437W        W49301  27.523  21.106  19.201 -0.0461  0.0299 -0.1713
48438W        W49302  19.707  27.885  22.306 -0.3397 -0.1811  0.1264
48439W        W49303  13.626   0.487  11.359  0.2647 -0.3162  0.0572
48440W        W49304   8.681  28.624   7.074  0.0913 -0.0924  0.0249
48441W        W49305  10.432  28.015  14.087  0.2223  0.1664 -0.2250
48442W        W49306  24.516   5.784  23.725  0.1308 -0.0471  0.1911
48443W        W49307  12.134   8.290  15.769  0.1706  0.1256 -0.3087
48444W        W49308   2.660  20.436  17.424  0.3837  0.0557 -0.1301
48445W        W49309  11.513  28.712  10.770 -0.1544  0.0992 -0.1403
48446W        W49310  10.532  14.384  28.419 -0.0025 -0.1786 -0.0926
48447W        W49311   3.282  19.930  26.473  0.3689  0.1373  0.2887
48448W        W49312  23.233   0.895  18.906  0.0228  0.0998  0.1194
48449W        W49313  25.084   5.274  15.256 -0.1509 -0.3928 -0.3866
48450W        W49314   7.927  26.043  22.425 -0.1229 -0.0167 -0.1254
48451W        W49315   0.196  14.000  28.906  0.0189  0.0634  0.2269
48452W        W49316  26.653  22.785  17.813  0.3356  0.1551  0.0835
48453W        W49317  28.169  25.942   8.562 -0.1768 -0.1605  0.1341
48454W        W49318  18.158  16.657   8.040  0.2165 -0.0986 -0.1462
48455W        W49319  26.167  24.598  18.977  0.0924  0.1483  0.0349
48456W        W49320  15.403  25.762  22.555  0.5456  0.0541  0.1620
48457W        W49321  22.781  12.488  29.061  0.1822  0.2945 -0.1028
48458W        W49322  17.137  17.478   2.970 -0.4029 -0.1017 -0.0016
48459W        W49323  28.152   4.076  17.463  0.0649  0.1131 -0.0149
48460W        W49324  12.612  15.242   6.011  0.0866 -0.1388  0.1661
48461W        W49325  19.623  15.188  25.279  0.3657  0.0560  0.0486
48462W        W49326   3.833  25.587   7.313 -0.2085  0.2594 -0.1659
48463W        W49327  12.640   0.789  19.184  0.4509  0.2584  0.1848
48464W        W49328  24.778  28.908   1.167 -0.0033  0.0957 -0.1340
48465W        W49329   6.336  21.470  26.390 -0.6555  0.0874 -0.3439
48466W        W49330   0.633  26.501  13.481 -0.1678 -0.1774  0.4077
48467W        W49331  21.835   6.572  17.534 -0.0647 -0.1879 -0.1356
48468W        W49332  14.828  27.413   9.782 -0.0862  0.2045  0.1500
48469W        W49333   2.398  28.641   3.374  0.0347 -0.1071 -0.1394
48470W        W49334   1.852  20.664  18.937 -0.1852  0.1410  0.2851
48471W        W49335   2.575  19.385   6.981  0.3315 -0.0399 -0.0117
48472W        W49336   9.378   5.937   4.347 -0.2846 -0.2482  0.1589
48473W        W49337  20.719  12.149   7.861 -0.0557 -0.0624  0.2147
48474W        W49338  20.140  27.275  19.198  0.1386  0.2515  0.1829
48475W        W49339   5.095  28.080  27.427  0.2713  0.1156 -0.3196
48476W        W49340  24.953   0.034  14.245  0.1819  0.1450  0.1014
48477W        W49341  22.433  14.972  13.964  0.2060 -0.1368 -0.0459
48478W        W49342  15.282  21.756   6.520 -0.1569  0.1560  0.2353
48479W        W49343   1.674  10.210  10.753 -0.1437 -0.1923 -0.1044
48480W        W49344  12.348   9.086   6.718  0.0555  0.0905 -0.0399
48481W        W49345  21.326  11.298  24.258 -0.0024 -0.1758  0.1564
48482W        W49346  26.057   4.603  23.483  0.2906  0.1781  0.0702
48483W        W49347  28.887   7.267   2.478 -0.0051 -0.0255 -0.0246
48484W        W49348  16.072  23.730   0.842  0.1888  0.2383 -0.2966
48485W        W49349  28.202  16.097  10.850 -0.2151  0.2206  0.2348
48486W        W49350  27.607  10.589  19.974 -0.3129 -0.1588 -0.2147
48487W        W49351  22.230  27.022  18.116 -0.0009  0.1839 -0.3228
48488W        W49352  19.051  10.550  21.654  0.1892 -0.2727  0.0604
48489W        W49353  19.409  14.068  23.058  0.0881  0.2199  0.4774
48490W        W49354   0.411  26.476  12.170  0.0651 -0.0120 -0.2326
48491W        W49355  18.698  16.875  22.542 -0.0630 -0.0155 -0.2811
48492W        W49356  28.005  25.094  28.950  0.1477  0.0486 -0.1225
48493W        W49357  14.113  14.776  17.935 -0.2239 -0.2727 -0.2056
48494W        W49358  19.563  10.070  20.566  0.0205 -0.2072 -0.0504
48495W        W49359  25.014  24.777  17.619 -0.2351 -0.2308 -0.1657
48496W        W49360  24.590  15.999  28.547  0.1256  0.0241  0.4186
48497W        W49361  23.634  17.766  15.131  0.0102 -0.0807  0.0874
48498W        W49362   0.734  27.931  13.927 -0.1584 -0.4002 -0.0831
48499W        W49363  20.736  19.349  15.079  0.2095 -0.2756  0.0663
48500W        W49364  19.768  27.465  19.835 -0.1142  0.0944 -0.1856
48501W        W49365   8.972   7.590   6.451 -0.0776 -0.2027 -0.0800
48502W        W49366  22.114  22.687  13.120  0.2916 -0.1536 -0.0248
48503W        W49367  28.673  18.637   6.886  0.1971 -0.1251 -0.1561
48504W        W49368   6.304  16.863  11.541 -0.2479 -0.0863 -0.1191
48505W        W49369  20.942   9.329   3.756  0.1389  0.0676  0.1861
48506W        W49370   3.959  28.015  17.296 -0.0016 -0.1974  0.2461
48507W        W49371  19.194  16.487   4.583 -0.0225  0.3633 -0.2450
48508W        W49372   7.154   0.922   3.857  0.0477  0.2254  0.1610
48509W        W49373   9.164  22.348  13.384 -0.3073 -0.3985 -0.2539
48510W        W49374   5.696  20.239  22.360 -0.1846  0.0183  0.1408
48511W        W49375  27.069  18.683  12.178  0.0362 -0.0388  0.3672
48512W        W49376  18.291  22.112  19.253 -0.2491 -0.1497 -0.0055
48513W        W49377  12.134   7.085  16.411  0.3358 -0.1739 -0.1367
48514W        W49378   5.784  17.425  23.275 -0.0198 -0.0020 -0.2465
48515W        W49379  24.687  28.816  10.296 -0.0072 -0.4976  0.0646
48516W        W49380   5.794  25.103  14.568 -0.0777  0.2154 -0.1039
48517W        W49381  19.765  16.279   5.909 -0.1597  0.0880 -0.2324
48518W        W49382  26.486  15.420  26.539  0.0529  0.3128  0.1326
48519W        W49383  11.804  23.071   6.392  0.2786 -0.1226  0.1876
48520W        W49384   1.401   1.076  15.353  0.0803  0.1010 -0.2317
48521W        W49385  25.194  15.162   3.556 -0.0599  0.0299 -0.0554
48522W        W49386  26.250  26.095   2.548 -0.2739  0.1343 -0.0150
48523W        W49387  18.466  11.289  15.279 -0.2030 -0.2556 -0.1077
48524W        W49388  22.131   3.773  20.551  0.1433 -0.1412 -0.1691
48525W        W49389   7.680  28.460   1.991 -0.1468  0.0823  0.0614
48526W        W49390   0.578  11.747  14.431 -0.0518 -0.0813  0.0030
48527W        W49391   8.179   2.037   2.282  0.0903  0.2875 -0.3105
48528W        W49392   3.145   6.795  16.941  0.0472 -0.0571  0.0397
48529W        W49393  26.977  13.358  19.174  0.0438  0.0696  0.2119
48530W        W49394   7.902   1.603  26.078  0.0703 -0.0644 -0.1376
48531W        W49395   5.705  24.628  12.583 -0.4174  0.0814 -0.0916
48532W        W49396  14.381  13.818   1.755 -0.0075 -0.2213  0.4748
48533W        W49397  18.842   2.558   3.311 -0.0922  0.4192 -0.2874
48534W        W49398  15.582  12.881   7.645  0.3315  0.1561 -0.1564
48535W        W49399  18.017  27.990   8.743 -0.0737  0.0038 -0.1580
48536W        W49400  15.011  22.699   8.475  0.2069  0.1823  0.1181
48537W        W49401  17.414   0.967  26.275 -0.2689  0.1880  0.2147
48538W        W49402  26.368  26.640   4.774 -0.1457 -0.0914  0.0932
48539W        W49403  11.716  19.442  12.287  0.2600 -0.1541  0.0697
48540W        W49404   6.899  28.030  21.364 -0.1927  0.1919  0.0178
48541W        W49405  23.046   9.483  22.630 -0.3349  0.0484  0.0801
48542W        W49406   8.244   7.811  25.292 -0.3015 -0.0931  0.0149
48543W        W49407   8.834  20.503  15.812 -0.0779 -0.1512  0.1028
48544W        W49408   5.435  24.610   6.212  0.0241 -0.1538  0.2710
48545W        W49409   8.667  12.017   5.586 -0.4359  0.0806 -0.0333
48546W        W49410   8.976  29.061  20.289  0.3898 -0.0767 -0.0728
48547W        W49411  24.603  11.927  16.942  0.1120 -0.1478  0.0654
48548W        W49412  29.077  22.441  23.402 -0.0761  0.1540  0.3490
48549W        W49413  11.308   4.921  12.724  0.0876 -0.0316 -0.0025
48550W        W49414   2.641  26.766  19.575 -0.0564  0.0330 -0.0138
48551W        W49415   3.803   3.129  18.261  0.1164 -0.1098  0.2438
48552W        W49416  21.139   6.040  16.912 -0.0457  0.3280 -0.2687
48553W        W49417  21.694  14.035  23.093 -0.5000 -0.1412  0.2124
48554W        W49418  28.924  28.896  25.446  0.0368 -0.2548  0.1250
48555W        W49419  20.503   0.817  14.689  0.1109 -0.0311 -0.1387
48556W        W49420  24.710   3.705  15.453 -0.0244 -0.1103 -0.3212
48557W        W49421  27.334  23.034  24.120  0.0156  0.1652 -0.0968
48558W        W49422  22.445  11.773  21.491 -0.1222 -0.0869  0.0714
48559W        W49423  16.541  18.198  17.539 -0.0914  0.0593  0.1929
48560W        W49424  20.838   5.291  21.417  0.0407  0.0821 -0.1549
48561W        W49425  25.515  20.265  11.475  0.1245 -0.0866 -0.0360
48562W        W49426  20.612  26.169   6.165 -0.2750 -0.0665 -0.1643
48563W        W49427  20.942   9.861  19.161  0.0437  0.3920  0.0915
48564W        W49428  17.079   0.192   7.910  0.4469  0.0070 -0.0548
48565W        W49429  13.284   7.987  13.708 -0.2602 -0.1295 -0.2335
48566W        W49430   2.372  27.917  24.086  0.0163 -0.0366 -0.1941
48567W        W49431  13.359  19.546  18.117 -0.5053  0.2203  0.1111
48568W        W49432  18.582  21.876   0.951 -0.0957 -0.0577 -0.0822
48569W        W49433  20.173   0.037   6.404 -0.1314  0.3927  0.2120
48570W        W49434  25.135  15.257   5.334 -0.0050  0.0993  0.0472
48571W        W49435   1.456   0.695  26.549  0.0988  0.2101  0.4964
48572W        W49436  17.268  26.583   2.003 -0.0344 -0.0612  0.1284
48573W        W49437  27.228  24.815  19.576 -0.0456  0.1897 -0.0363
48574W        W49438  24.027  27.695   8.965  0.1857  0.1138  0.0762
48575W        W49439  22.448   1.990  13.494  0.0824  0.1036  0.0818
48576W        W49440  26.997  11.750   6.240 -0.3641  0.0401  0.1593
48577W        W49441  14.230  12.854   2.021  0.2154 -0.0438  0.0890
48578W        W49442  10.612  17.637  11.489 -0.0526  0.0537 -0.1259
48579W        W49443  12.329  28.344   3.286  0.2210  0.2817  0.2747
48580W        W49444  20.704  11.042   7.948  0.1830  0.2050 -0.3306
48581W        W49445   9.239  17.705  13.334  0.2552 -0.2755  0.1505
48582W        W49446  20.931  21.719  15.671 -0.0418  0.0175 -0.2024
48583W        W49447  15.756  26.151  14.152  0.0902 -0.0967  0.2116
48584W        W49448  27.489  27.046   7.792 -0.2240 -0.1523  0.1710
48585W        W49449  22.769  25.534  17.255 -0.2380  0.4860  0.4906
48586W        W49450  20.734  25.532   1.592 -0.1509 -0.1195 -0.1563
48587W        W49451  18.889  15.442  26.588 -0.1959  0.2623  0.1263
48588W        W49452  19.279  19.372  27.026  0.0733 -0.1890  0.2104
48589W        W49453  16.485  24.031  11.970 -0.0318  0.0927 -0.0438
48590W        W49454  22.950  15.657   7.108  0.0632  0.1194  0.3002
48591W        W49455  27.354   4.940  16.507  0.2120 -0.0218 -0.5350
48592W        W49456  13.683  23.464   9.437  0.3705 -0.0383  0.0778
48593W        W49457  28.532  11.351  21.864 -0.3433 -0.3384 -0.0880
48594W        W49458  26.937   3.826   0.286 -0.0650 -0.1826 -0.2086
48595W        W49459   9.757  15.370   2.368  0.1062 -0.0339 -0.1562
48596W        W49460  15.103  19.872   9.748  0.1997 -0.1338 -0.2547
48597W        W49461  22.904  21.455   1.526 -0.2542 -0.0456  0.0670
48598W        W49462  12.151  17.139  17.187  0.1040  0.0716 -0.0532
48599W        W49463  18.045  16.614  18.848  0.1182 -0.1462  0.0694
48600W        W49464  16.803   6.752  18.956  0.1330  0.1057 -0.4409
48601W        W49465  24.878  16.495  12.573  0.2373  0.0680 -0.1110
48602W        W49466  25.060   2.442   2.899 -0.3382 -0.0916  0.0211
48603W        W49467   8.755   3.556  18.349  0.2637 -0.1254 -0.1973
48604W        W49468  12.775  12.372  22.911 -0.0742 -0.3158  0.2883
48605W        W49469  10.774   1.913  19.754 -0.1125  0.1487  0.4819
48606W        W49470   9.673  19.375  12.858 -0.1074 -0.3125 -0.1339
48607W        W49471  15.959  26.813   8.498  0.0067  0.0550  0.0027
48608W        W49472   5.523  19.439  16.648  0.1480 -0.0819  0.0920
48609W        W49473  22.059   7.723   5.017 -0.0384  0.2964 -0.0186
48610W        W49474   5.352  15.487   7.613 -0.0222 -0.1477 -0.2149
48611W        W49475  23.039  12.536   7.878  0.1555 -0.3003  0.0718
48612W        W49476   8.661  28.953  19.698  0.0003  0.0227  0.1041
48613W        W49477   0.342  15.220  22.917 -0.0354 -0.1256  0.0797
48614W        W49478  13.363  25.326   2.326  0.0314  0.0545 -0.1135
48615W        W49479   0.021   0.538   9.203 -0.0594  0.2726 -0.2118
48616W        W49480   2.430  20.477  10.838 -0.5418  0.1800  0.1716
48617W        W49481   8.536  13.856  24.099  0.2108 -0.4411 -0.0704
48618W        W49482  23.603  15.318  20.647 -0.0311  0.0753  0.4048
48619W        W49483   5.809   9.156  14.588  0.0127  0.0799  0.0635
48620W        W49484  28.508   5.858   1.671  0.0050  0.3673 -0.2539
48621W        W49485  19.117  18.191  16.353 -0.2702 -0.0806  0.2209
48622W        W49486  20.970  22.549  26.787 -0.1236  0.0879 -0.2045
48623W        W49487  25.446  18.610   8.870 -0.0886 -0.5381 -0.1701
48624W        W49488  16.265  15.669  25.574  0.0617 -0.0776 -0.2016
48625W        W49489  19.463  13.239   4.085 -0.0572 -0.2412  0.1280
48626W        W49490  22.740  10.778   4.590 -0.4666 -0.0858 -0.1365
48627W        W49491  14.254  11.368   5.376  0.4167  0.2955  0.1615
48628W        W49492   9.005  13.349  11.059 -0.0888  0.0082 -0.0894
48629W        W49493  23.581  18.729  20.660 -0.3497  0.1029 -0.0946
48630W        W49494  17.663   9.733  21.071 -0.0801 -0.3469 -0.1928
48631W        W49495  27.478   5.392  11.835 -0.0634 -0.1580  0.2244
48632W        W49496  24.103  23.400  28.849 -0.2384  0.1590  0.0497
48633W        W49497  14.748   4.936  25.039  0.0121 -0.2068 -0.0437
48634W        W49498   2.489  21.302   8.898  0.1447  0.1596 -0.0067
48635W        W49499  16.388   7.745  19.084 -0.0184 -0.0795  0.0009
48636W        W49500  17.028   7.819  14.420 -0.1167  0.0486 -0.0494
48637W        W49501  13.730  22.801  10.105  0.0689  0.1450 -0.4261
48638W        W49502  28.432  26.612  14.897 -0.1636  0.1899 -0.3310
48639W        W49503  15.953  15.023  28.819 -0.2192 -0.2529 -0.3155
48640W        W49504   3.796  24.148  17.205  0.2873  0.0078 -0.1154
48641W        W49505  24.089  27.087  12.790  0.1208  0.1083  0.1112
48642W        W49506  25.552  13.170  24.325 -0.1686 -0.0764 -0.0773
48643W        W49507  23.450  21.749  10.391 -0.1344 -0.3057  0.2359
48644W        W49508   1.417   3.606   5.378  0.3159 -0.2739 -0.1562
48645W        W49509  16.039  24.913   2.091 -0.0815 -0.1375 -0.1285
48646W        W49510  15.295   7.932   8.168 -0.2429  0.1760 -0.1200
48647W        W49511   4.182  23.343   6.353 -0.0250  0.0472  0.0800
48648W        W49512  20.835  23.372  19.472 -0.2269 -0.1331  0.1436
48649W        W49513  11.419   3.155  12.653 -0.0381 -0.0677 -0.0056
48650W        W49514  27.315  17.399  23.196 -0.1917 -0.1717 -0.1071
48651W        W49515   6.287   7.955   1.314 -0.3622 -0.0105 -0.2277
48652W        W49516  11.635   0.312  15.225  0.0561  0.1227 -0.0236
48653W        W49517   2.653  19.727  19.370 -0.1344  0.0118 -0.3160
48654W        W49518  27.721  21.186  23.215 -0.1290  0.2907  0.2096
48655W        W49519   1.133  23.004   9.336  0.0041  0.1143 -0.0068
48656W        W49520  19.928   0.912   5.284  0.0559 -0.0419  0.2821
48657W        W49521  11.808   1.405  22.111 -0.0417 -0.0107 -0.3123
48658W        W49522  19.754  28.033  23.164 -0.1575  0.2219  0.0502
48659W        W49523  13.826   7.970  11.290 -0.1361 -0.1184  0.3293
48660W        W49524   5.128   0.780  19.298 -0.1962  0.0843  0.3662
48661W        W49525  23.301  21.143  18.026  0.3819 -0.1256  0.1518
48662W        W49526  12.901   0.023  15.010  0.0514 -0.0148  0.1948
48663W        W49527  25.236  14.368   8.695 -0.0534  0.0642  0.0144
48664W        W49528  16.902  24.705  13.898  0.1115  0.2279  0.2987
48665W        W49529  19.630  14.834  10.348  0.3414  0.1111  0.1217
48666W        W49530  24.796  15.266   6.831 -0.1255 -0.0288  0.4764
48667W        W49531  19.449  16.398   9.517 -0.0514  0.2534  0.4041
48668W        W49532  13.986  16.778   1.978  0.0163 -0.0866 -0.1042
48669W        W49533  14.346  20.979   0.336  0.1012 -0.0277  0.3564
48670W        W49534  28.658  13.130   5.819  0.2298 -0.0899  0.2960
48671W        W49535  23.600  25.027   1.382  0.2411 -0.0263 -0.0928
48672W        W49536   6.614  27.546  13.952  0.1870  0.0905  0.1325
48673W        W49537  11.228  19.174  25.681  0.3453 -0.2028  0.0101
48674W        W49538  10.033  22.415  14.314  0.0376 -0.3166 -0.1278
48675W        W49539  28.422  23.433  10.966  0.1409  0.0343  0.2571
48676W        W49540  21.692   1.639  19.759 -0.0484 -0.3173  0.0778
48677W        W49541  22.412  24.913  22.110  0.0069 -0.2452  0.0781
48678W        W49542   9.172  12.830  15.290  0.2381  0.2478 -0.0520
48679W        W49543  23.464  18.198  14.827 -0.0048  0.0893  0.0993
48680W        W49544   1.624  25.656   5.169 -0.0933 -0.1505 -0.1153
48681W        W49545  18.368  24.378  13.252 -0.2235 -0.1645  0.1092
48682W        W49546   1.715   5.734  16.244 -0.0237  0.1429 -0.1380
48683W        W49547   1.008  22.452   5.813  0.0667  0.1563  0.0727
48684W        W49548   2.515   0.588   0.771  0.3001 -0.0288 -0.0697
48685W        W49549   3.671   0.030  28.177 -0.1813  0.0414 -0.0996
48686W        W49550  16.350  14.899  15.566  0.0061  0.0063  0.3346
48687W        W49551   5.886  10.972   2.263 -0.1370 -0.0696 -0.1082
48688W        W49552  13.915  17.539   6.096 -0.1912 -0.0123  0.2600
48689W        W49553  22.282   6.089   9.382  0.1099  0.1909 -0.2809
48690W        W49554  19.081  24.890  11.277  0.3347  0.1338  0.1431
48691W        W49555  22.911  18.318  13.610  0.0136 -0.0908 -0.0625
48692W        W49556   2.146  23.017   8.429  0.2152 -0.1021  0.0086
48693W        W49557  21.840  25.360  25.773  0.0573 -0.0125  0.0703
48694W        W49558  11.264  27.631   4.158  0.0033 -0.0983  0.1580
48695W        W49559  26.583  28.059   1.699  0.2278  0.1821 -0.2627
48696W        W49560   1.128  20.971  11.133  0.0349  0.1072 -0.0735
48697W        W49561  17.432  20.553  21.604 -0.2072  0.2558 -0.0039
48698W        W49562  23.923  19.198  12.541 -0.0408 -0.3941 -0.4716
48699W        W49563  19.465  24.938  10.973 -0.2658 -0.0633 -0.0055
48700W        W49564  21.063  10.609  22.520 -0.0142 -0.1910  0.1417
48701W        W49565   8.451  24.357  12.212  0.0288  0.0679  0.0057
48702W        W49566  11.086  28.591   6.714 -0.1600  0.0873 -0.3164
48703W        W49567  15.747  25.706  19.093 -0.1534  0.1676 -0.0959
48704W        W49568  28.524  21.856   8.218  0.0587 -0.0218  0.1119
48705W        W49569  11.158  18.112   2.141 -0.0163 -0.2942 -0.0037
48706W        W49570  22.624  19.451  16.146 -0.0600  0.1407  0.0001
48707W        W49571   0.527  17.298   7.354  0.2215 -0.4002  0.1634
48708W        W49572  16.658   8.975  23.454  0.1751  0.1216  0.1173
48709W        W49573  22.735  20.911   0.927  0.1463 -0.2566  0.0448
48710W        W49574  13.119  10.764  25.247 -0.1782  0.0876  0.2469
48711W        W49575   7.485  26.299   4.076 -0.1378 -0.0727  0.3080
48712W        W49576   5.485   2.485  17.166  0.0000 -0.1553  0.2191
48713W        W49577   1.463  17.072  16.947 -0.0083 -0.1925 -0.3121
48714W        W49578   9.738   0.054  26.522  0.2389 -0.0489  0.2610
48715W        W49579   5.614  26.046  15.049  0.0844 -0.3717 -0.1021
48716W        W49580  16.002  22.614  28.179 -0.0012 -0.1594  0.0856
48717W        W49581   9.566  21.539  27.147  0.0562  0.1940 -0.0926
48718W        W49582  18.419  14.950  20.583 -0.0606  0.1855 -0.1399
48719W        W49583   0.785  14.858  15.268  0.0900 -0.0740 -0.0012
48720W        W49584  11.983  21.472   1.265 -0.0124 -0.0014 -0.0877
48721W        W49585  21.323  19.359   0.898  0.0702  0.3805 -0.1099
48722W        W49586  18.605  26.796  20.234 -0.2048 -0.1098  0.1701
48723W        W49587   5.492   0.850  13.687 -0.1028  0.1556 -0.0393
48724W        W49588  27.976  26.428  25.617  0.1132  0.2743 -0.0492
48725W        W49589   4.355   8.609  14.021 -0.0675 -0.0567 -0.2728
48726W        W49590  23.705  20.485   4.727  0.2351  0.2287  0.1947
48727W        W49591  20.568   2.308  10.208  0.1616  0.2443 -0.2274
48728W        W49592  20.668  20.974  15.285 -0.1326  0.0685 -0.0062
48729W        W49593  12.920  20.594  10.052 -0.5489 -0.0872 -0.0417
48730W        W49594  26.859  25.555  13.077 -0.0341  0.2881  0.1077
48731W        W49595  25.504  24.251  23.997 -0.0613  0.0819  0.1136
48732W        W49596  12.140   4.925  13.966 -0.0315  0.1552 -0.0717
48733W        W49597   2.958   5.522  13.760  0.1131 -0.3226 -0.0743
48734W        W49598  19.527  25.232  21.484  0.0191 -0.1908  0.3384
48735W        W49599  26.270   4.960  23.845 -0.1165  0.0630  0.0667
48736W        W49600  15.767  24.274   9.264 -0.2184  0.0593  0.2386
48737W        W49601  14.945  28.257   6.933  0.0857 -0.1761  0.3296
48738W        W49602   1.511  14.018  15.100  0.1311  0.0641 -0.0448
48739W        W49603  21.444   3.284  18.578  0.0071  0.0123  0.0670
48740W        W49604  16.340  17.242  10.380  0.0828 -0.0249  0.2306
48741W        W49605   3.596  28.004  14.862 -0.1353 -0.2348  0.0099
48742W        W49606  22.568  27.059  13.013 -0.2768  0.1954 -0.0585
48743W        W49607  27.365  14.532  11.259 -0.4147 -0.0874 -0.0844
48744W        W49608   6.786   7.911   1.520 -0.2638  0.2553 -0.0985
48745W        W49609  16.828  18.208  18.743 -0.0601 -0.1646  0.0120
48746W        W49610   2.253   9.334  23.959  0.0471 -0.0219 -0.0243
48747W        W49611  17.754  10.515  19.019 -0.1968  0.0295  0.0501
48748W        W49612  23.561  14.427  26.928 -0.2601  0.2379 -0.1499
48749W        W49613   4.985  22.532  27.666 -0.2490  0.1659 -0.2166
48750W        W49614  14.422   8.489   7.557  0.4595  0.0188  0.1003
48751W        W49615   3.780  15.667   9.802 -0.3296 -0.0310 -0.1629
48752W        W49616  14.298   0.011  22.141 -0.0145 -0.1604  0.4146
48753W        W49617  11.189   5.965  18.409  0.1796  0.1011  0.2179
48754W        W49618  10.457  26.866   9.770 -0.0679  0.1415  0.3597
48755W        W49619  24.662   2.778  26.506 -0.1323 -0.0080 -0.0743
48756W        W49620  12.412  27.969  17.171  0.0568 -0.1843 -0.2301
48757W        W49621   4.640  21.326  20.811  0.2016  0.0313 -0.0271
48758W        W49622   9.642  24.894   6.193 -0.0577 -0.1787 -0.1518
48759W        W49623  18.141  16.122   9.885 -0.0989 -0.0340 -0.3831
48760W        W49624   0.550  20.147   7.919 -0.1436  0.0438  0.3520
48761W        W49625  16.891   1.298  28.672  0.2388 -0.2281 -0.4850
48762W        W49626  19.104   3.048  16.918  0.1516 -0.1468 -0.0079
48763W        W49627  23.357  25.530  16.089 -0.2112 -0.2211  0.1923
48764W        W49628  17.754  27.817  14.323 -0.0302  0.1649  0.0114
48765W        W49629  19.812  18.963  22.436 -0.1037  0.0333  0.0542
48766W        W49630   8.169  20.963   0.193  0.1875  0.0205 -0.3225
48767W        W49631  15.700  21.786   3.927  0.0397 -0.0894  0.1380
48768W        W49632  16.385   4.146  11.977  0.1634 -0.1033 -0.5070
48769W        W49633  19.275   2.350  25.344 -0.3293  0.0805 -0.1461
48770W        W49634  16.745   8.148  16.526 -0.0171  0.0891  0.3123
48771W        W49635   5.469   8.580  24.164 -0.0308 -0.2903 -0.1607
48772W        W49636  28.412  26.741  27.657 -0.1537 -0.0288 -0.4004
48773W        W49637  11.846  17.970   4.940  0.2965 -0.2557 -0.3519
48774W        W49638  13.707  21.260   3.599  0.1702 -0.0401  0.6338
48775W        W49639  25.555  19.489   4.031 -0.0969 -0.0102 -0.1147
48776W        W49640  13.230  26.793  28.040 -0.0082  0.2575  0.2448
48777W        W49641  17.493  15.730  19.380  0.0868  0.2504  0.3143
48778W        W49642  22.075  28.183  15.129 -0.1224  0.0479 -0.0102
48779W        W49643  18.946  27.492  24.314 -0.1741  0.1215  0.0427
48780W        W49644   9.904   7.425  15.844 -0.0147  0.0142 -0.4160
48781W        W49645  10.057  24.442   4.635 -0.2048  0.1672 -0.1398
48782W        W49646   8.156  21.435   5.744  0.1824  0.0719  0.0936
48783W        W49647   1.216  20.935  23.956  0.1216 -0.1630 -0.2318
48784W        W49648  26.789  26.539   8.016 -0.4399 -0.2102 -0.1705
48785W        W49649  11.105  16.183  16.177  0.1702 -0.1018 -0.1364
48786W        W49650  27.704   4.860   2.536  0.0848  0.2685  0.2149
48787W        W49651  25.873  27.776   8.660 -0.0827 -0.1480 -0.2786
48788W        W49652  10.909  26.243   8.007  0.0181  0.2021 -0.0994
48789W        W49653  28.584  28.354   3.543  0.2810  0.1493 -0.0005
48790W        W49654  16.527  26.704  10.947 -0.0470  0.1761 -0.1358
48791W        W49655  28.545   6.214  10.230  0.1224 -0.1409 -0.0204
48792W        W49656  20.458  20.433   0.705  0.1127 -0.0596 -0.2436
48793W        W49657   0.014   6.360   6.549 -0.2908 -0.0570  0.0730
48794W        W49658  20.227   3.060  25.885  0.1115  0.0598  0.1437
48795W        W49659   6.575  27.674  26.547  0.1032  0.2190 -0.1652
48796W        W49660  14.566  20.314  11.015 -0.1214  0.0669  0.2034
48797W        W49661  19.472  11.282   8.566 -0.0339 -0.1100 -0.2059
48798W        W49662  22.675  11.526   4.903  0.0231 -0.1440 -0.1458
48799W        W49663  27.059  21.011   6.607  0.2260 -0.1320  0.0719
48800W        W49664   5.090  28.701  19.172  0.3397 -0.0378  0.1975
48801W        W49665   5.669   8.952   3.107  0.0287 -0.0075  0.2426
48802W        W49666  20.289   8.241  12.075  0.1468 -0.2496 -0.0927
48803W        W49667  15.248   2.291  12.132  0.4205 -0.0867 -0.0503
48804W        W49668  23.271  16.195   2.458  0.4550  0.0484 -0.2700
48805W        W49669  27.410   0.577  19.223 -0.0121 -0.2389 -0.3721
48806W        W49670  27.599  23.830  13.772 -0.0320 -0.0960  0.0489
48807W        W49671  10.141   3.045   6.833 -0.3193 -0.3036 -0.3210
48808W        W49672  13.392  26.612  18.271  0.0873 -0.0346 -0.1869
48809W        W49673   9.675  26.508  28.784  0.0293  0.2166 -0.4868
48810W        W49674  13.621   5.597   6.813 -0.3705  0.1594  0.0599
48811W        W49675   4.993  15.312  21.994  0.3233  0.0167 -0.1591
48812W        W49676  18.581  17.059   5.056  0.1434  0.0606 -0.1931
48813W        W49677  25.317  11.547   6.990 -0.1904  0.1991 -0.0019
48814W        W49678  22.524  22.166  11.580 -0.1492  0.1879 -0.1579
48815W        W49679  21.701  18.489  11.532  0.0676 -0.1373  0.2355
48816W        W49680  15.550  24.278   9.896  0.0486 -0.1318 -0.1776
48817W        W49681  11.572  16.887  13.451  0.1583 -0.0833 -0.0037
48818W        W49682  23.089   5.577   1.339 -0.2740 -0.0822 -0.0435
48819W        W49683   6.065   4.601   0.372  0.0790 -0.1664  0.1744
48820W        W49684   9.702  12.043  12.236  0.3205 -0.1901 -0.3626
48821W        W49685   5.154  27.770  11.712 -0.2373 -0.1451 -0.1716
48822W        W49686  26.229  14.310  28.746  0.0799  0.1412 -0.0095
48823W        W49687  12.193  21.626  23.450  0.0800 -0.2106  0.0316
48824W        W49688   6.517  27.193  14.753 -0.0582  0.0659 -0.2093
48825W        W49689  12.771   8.909  15.069 -0.1329  0.2598  0.2448
48826W        W49690   8.779  17.891   1.329  0.2377 -0.0736  0.0864
48827W        W49691  15.388  28.318  18.609  0.0986  0.0773  0.1096
48828W        W49692  16.636  12.868   8.658  0.1871  0.1389  0.0542
48829W        W49693  27.868  21.352  29.094  0.1917 -0.1437 -0.1502
48830W        W49694  19.906  12.962  25.630  0.0139 -0.0550  0.2834
48831W        W49695  10.097  21.064  19.841 -0.1046  0.1036  0.0900
48832W        W49696  21.092  27.930  16.403 -0.1580  0.0501 -0.1573
48833W        W49697   4.369   4.473  10.965  0.3659  0.1655  0.2522
48834W        W49698  26.579   4.865  11.147  0.2302 -0.0634 -0.2294
48835W        W49699   0.026  14.741   9.470 -0.0431  0.0323 -0.1214
48836W        W49700  25.595  27.173  21.349  0.0777 -0.3555 -0.3550
48837W        W49701   7.486  24.278  28.354 -0.0930 -0.1888  0.1155
48838W        W49702  27.300   4.118  21.943  0.1433  0.0328 -0.1510
48839W        W49703  16.281   9.667   3.413 -0.1784  0.1764  0.1278
48840W        W49704  18.450  18.556   3.756 -0.0120  0.2336 -0.1010
48841W        W49705   0.590   9.919  25.710 -0.0798  0.0111  0.0944
48842W        W49706  22.271  28.831  25.913 -0.0433 -0.2417 -0.2983
48843W        W49707  15.865   6.754  10.593 -0.0358  0.0697 -0.0803
48844W        W49708  15.814  19.333   4.086 -0.0874 -0.0690  0.1044
48845W        W49709  17.498  27.203  15.064 -0.2070  0.0576  0.2391
48846W        W49710   4.989  20.276  21.134 -0.0593 -0.1223  0.1288
48847W        W49711  24.960   5.235   8.934 -0.1404 -0.2164  0.0796
48848W        W49712   7.712  18.179  18.965 -0.0149 -0.0107  0.2092
48849W        W49713  24.478   5.756   7.404 -0.2502  0.3182 -0.0673
48850W        W49714  23.075   3.975  28.677 -0.0172 -0.0703 -0.0579
48851W        W49715  12.205  21.366  20.464 -0.0330 -0.2725 -0.1387
48852W        W49716  10.967  11.809  10.718  0.3678 -0.0763 -0.1878
48853W        W49717  21.106  23.056   0.663 -0.1383 -0.0502  0.2500
48854W        W49718   1.149  22.415   8.416 -0.3708  0.0198  0.1472
48855W        W49719  12.907  10.563  21.176 -0.1659  0.1926 -0.0358
48856W        W49720  22.117  13.007   2.803  0.3057 -0.1555 -0.1697
48857W        W49721  11.165  15.815   2.507  0.0633 -0.1496 -0.0062
48858W        W49722   4.798   5.740   9.915  0.3209 -0.2387 -0.1598
48859W        W49723   1.938  15.336  17.882  0.0011 -0.1163 -0.0583
48860W        W49724   5.374  22.415  19.823 -0.0501 -0.1559  0.1639
48861W        W49725  17.130  10.387   1.855 -0.2091  0.2147 -0.1909
48862W        W49726  17.583   8.357   6.777 -0.1721  0.1733 -0.0712
48863W        W49727  13.091  17.646   3.248  0.1877  0.0294  0.1210
48864W        W49728  18.680  21.102  22.759 -0.0689  0.3453 -0.2527
48865W        W49729  18.032   0.649   3.470 -0.2975 -0.1062 -0.2955
48866W        W49730  26.670   3.794  20.665 -0.1777 -0.0424  0.0917
48867W        W49731  14.353  18.514   6.479  0.0099 -0.1337 -0.0996
48868W        W49732  26.610  19.471  24.222 -0.2256  0.1459  0.1307
48869W        W49733   8.928  21.024   4.301  0.0357  0.1108  0.1725
48870W        W49734   8.444   4.078   2.103  0.0297 -0.0661  0.0051
48871W        W49735  28.182  28.623  21.173  0.2525  0.2572 -0.4728
48872W        W49736  16.371  28.240  11.132  0.2808  0.0809 -0.0711
48873W        W49737   0.896  23.288   9.722 -0.1326 -0.0634 -0.0259
48874W        W49738  17.364  10.747  25.518  0.0224 -0.0830  0.2123
48875W        W49739  25.785  17.372  10.802 -0.1030 -0.2938  0.1643
48876W        W49740  18.626  22.132  11.306 -0.1261  0.1714 -0.1385
48877W        W49741  19.188  10.257  17.034  0.2397  0.2272  0.0252
48878W        W49742  23.084  17.168   9.690  0.0516  0.1186  0.1480
48879W        W49743   9.070   2.002  20.366 -0.2847  0.2084 -0.1693
48880W        W49744  21.232  13.185  22.198  0.1891  0.4445 -0.2859
48881W        W49745  16.209  21.351  28.610 -0.0624  0.1731 -0.1895
48882W        W49746  19.634   0.582  19.056  0.0590  0.1563 -0.1482
48883W        W49747   1.536  21.406   1.888 -0.3326  0.3040 -0.1432
48884W        W49748  25.305  17.322  25.832  0.1471  0.0486 -0.2223
48885W        W49749   1.922  17.290  10.552 -0.0904  0.3067 -0.0382
48886W        W49750   6.800  24.658   7.999  0.1779  0.1832  0.0755
48887W        W49751   0.846  21.794  11.190  0.1037 -0.4154  0.0699
48888W        W49752  26.014  15.283   6.234 -0.1540  0.4985  0.1372
48889W        W49753  10.869  12.683  17.190  0.0960  0.0582 -0.0222
48890W        W49754  15.816   0.680   8.867 -0.0697 -0.0518  0.3242
48891W        W49755   7.229  17.031   3.639 -0.0638  0.3287  0.1822
48892W        W49756  16.451  18.386   5.492 -0.0708 -0.0796 -0.1331
48893W        W49757  13.013   8.664  20.438 -0.6598  0.1724 -0.3970
48894W        W49758  16.009  28.639  20.944  0.1769 -0.1243  0.1026
48895W        W49759  19.814  15.696   8.651 -0.0115 -0.2837  0.0160
48896W        W49760  18.360  11.851   8.343  0.3331  0.2113  0.1155
48897W        W49761  10.573  13.582  19.300 -0.0680  0.2649  0.3144
48898W        W49762  13.685   0.210  21.364  0.1846 -0.1270  0.0708
48899W        W49763  16.475  28.414  21.691 -0.0326  0.2926  0.5818
48900W        W49764  10.627  12.897   2.480  0.2165  0.1584 -0.0797
48901W        W49765   2.787  15.805  11.893  0.0272 -0.1046 -0.0126
48902W        W49766  20.825  25.945  26.699 -0.0604 -0.2122  0.2880
48903W        W49767   5.362  29.002   6.997  0.1121 -0.1254 -0.0277
48904W        W49768   6.175   2.897  14.776  0.1953 -0.1033 -0.0377
48905W        W49769  21.654   8.383  16.571 -0.2746 -0.1285 -0.0729
48906W        W49770   0.862  20.679   6.987 -0.1368  0.0480  0.1791
48907W        W49771  27.772  19.658   4.712  0.1870  0.0758  0.3721
48908W        W49772  23.771  17.971  15.678 -0.0588  0.0574 -0.1476
48909W        W49773  10.302  16.254  22.586 -0.1491  0.1512  0.1634
48910W        W49774  18.804  28.170  27.809 -0.3331 -0.0493  0.0851
48911W        W49775  20.656  25.822   9.670  0.0006  0.2031 -0.1114
48912W        W49776  17.433   9.109  28.430  0.5449  0.3559  0.1776
48913W        W49777   6.225  18.674  14.661  0.1915 -0.1813 -0.1467
48914W        W49778   0.449   4.315  25.068  0.2314  0.0641  0.1461
48915W        W49779  28.545  26.247  21.712 -0.0383 -0.0088  0.1129
48916W        W49780  27.380  11.479   8.724 -0.2235 -0.4073  0.0460
48917W        W49781  24.755   0.033  25.463 -0.2588 -0.1173  0.0266
48918W        W49782  27.890  28.116  24.645  0.1329 -0.0036 -0.2577
48919W        W49783  21.540  12.657  17.621  0.3872 -0.2472  0.2785
48920W        W49784  20.551  14.601  12.929  0.1161 -0.1746 -0.3555
48921W        W49785   1.486  24.338  14.305 -0.0145 -0.0403  0.1120
48922W        W49786  16.282   7.829  13.817 -0.0286  0.1570 -0.2797
48923W        W49787  14.235  19.850  14.863 -0.1407  0.0803 -0.3968
48924W        W49788  17.538  14.834   3.985  0.0721 -0.1522 -0.2287
48925W        W49789   9.175  18.509  24.446  0.2415 -0.0671  0.2139
48926W        W49790  20.001   5.172   4.739 -0.0126  0.1023  0.0093
48927W        W49791  22.468  17.693  11.465  0.0786  0.3886  0.0045
48928W        W49792   9.717  22.553  24.929  0.0894 -0.1085 -0.0255
48929W        W49793  20.614  18.360  15.071  0.0645  0.0378 -0.2243
48930W        W49794  23.711   4.861  20.031 -0.0822 -0.0359  0.1302
48931W        W49795  16.096  24.714  18.801  0.2548  0.0969 -0.0316
48932W        W49796  18.172  28.460  19.170 -0.0303 -0.3195 -0.0460
48933W        W49797  18.237  23.830  13.150 -0.0249 -0.0583 -0.0703
48934W        W49798   7.551   8.327   6.012 -0.1032 -0.0688  0.2916
48935W        W49799  16.755  18.365   0.810  0.2542 -0.0131  0.0754
48936W        W49800  20.642   5.739  17.335 -0.1820  0.0095 -0.0326
48937W        W49801  14.472  11.602  28.652  0.0426  0.1086 -0.1101
48938W        W49802  11.812  26.654  16.658  0.3636  0.3617  0.1321
48939W        W49803  18.689  27.859   5.022  0.2517  0.1050  0.0149
48940W        W49804  25.752  20.828  17.620  0.0917 -0.0429  0.0936
48941W        W49805   2.715  24.639   0.259 -0.0611 -0.2198 -0.1973
48942W        W49806  28.891  20.990   7.425 -0.2750  0.1404 -0.0512
48943W        W49807  13.241  22.682   9.952  0.2707 -0.1865 -0.3806
48944W        W49808  18.577   2.181  26.720 -0.1687  0.0014 -0.3472
48945W        W49809   0.818  18.192   3.200  0.2489  0.0751  0.1580
48946W        W49810  11.530   3.271  25.788 -0.1645  0.1768 -0.2318
48947W        W49811  11.859  24.590  15.778 -0.1221 -0.0380 -0.0935
48948W        W49812   9.058  26.174  11.492 -0.0654  0.1866 -0.1955
48949W        W49813   0.714  16.794  11.084 -0.5561  0.0441  0.1190
48950W        W49814   0.559  26.146   3.262 -0.0076 -0.0103  0.3307
48951W        W49815  21.708  11.707  22.962 -0.0434  0.0887  0.0668
48952W        W49816  28.671  14.936   7.591  0.1057  0.0872 -0.1325
48953W        W49817   6.243   1.706   4.905  0.0751  0.0245 -0.2758
48954W        W49818   9.123  23.606  27.755 -0.1941 -0.2352 -0.0768
48955W        W49819  16.108  23.963  16.682 -0.4242  0.1479 -0.2958
48956W        W49820  22.371  21.791  13.510 -0.1337 -0.1444 -0.3283
48957W        W49821  20.383   4.689   1.631  0.2050 -0.2326 -0.2222
48958W        W49822  28.997  21.866  28.294  0.1869 -0.1343  0.1023
48959W        W49823  12.732  18.185   9.915 -0.2353 -0.1469 -0.2181
48960W        W49824  27.390  24.699  12.547 -0.2961  0.0445 -0.1172
48961W        W49825  26.866  17.472  23.448 -0.1680 -0.1682 -0.2155
48962W        W49826  24.271  26.847  10.529 -0.0319 -0.1670 -0.1253
48963W        W49827  15.338   0.648   4.482  0.0672  0.3223  0.2310
48964W        W49828  25.111  15.147   6.455  0.0307  0.0165 -0.0471
48965W        W49829  26.162  10.951   1.482 -0.0878 -0.2020 -0.3083
48966W        W49830  19.098  13.588   8.372  0.2729  0.2977  0.0935
48967W        W49831   7.492  16.443  16.977 -0.1025 -0.1544  0.2186
48968W        W49832  23.175  26.258  19.116  0.0216  0.2194  0.0425
48969W        W49833  22.529  13.821  11.798  0.0860 -0.1599  0.1550
48970W        W49834  19.050  18.305  27.710 -0.1562  0.0916  0.1450
48971W        W49835  23.575  27.008   8.992 -0.0313  0.0882 -0.2129
48972W        W49836   5.973  20.033  10.345 -0.1897 -0.1863 -0.0056
48973W        W49837  16.840  28.672  17.718  0.0981 -0.0491 -0.2586
48974W        W49838  20.188   0.477  21.157 -0.0592  0.1833 -0.0390
48975W        W49839   3.979  18.116  21.450  0.0979 -0.3404 -0.0841
48976W        W49840  26.310   8.105  14.637 -0.1301  0.0548 -0.1174
48977W        W49841  17.088  25.933  14.453  0.2312 -0.0712 -0.0772
48978W        W49842  25.340  22.906   6.737  0.1120 -0.0365  0.0635
48979W        W49843  19.126   5.012   9.302 -0.2624  0.0428 -0.1577
48980W        W49844  21.170   4.049  26.301 -0.2413 -0.1266 -0.1762
48981W        W49845  27.237   1.075  11.195  0.0080 -0.2934  0.2272
48982W        W49846  14.653  21.152   6.331  0.0060 -0.5769 -0.2764
48983W        W49847   8.388   8.690  19.803 -0.0280  0.2776  0.3851
48984W        W49848   6.405   7.896  19.985  0.1195 -0.1057 -0.0322
48985W        W49849   8.817   9.809  17.655 -0.1380 -0.1822  0.0453
48986W        W49850   2.389  29.124   7.573  0.0862  0.1838 -0.0069
48987W        W49851   0.127   2.912   8.905 -0.1615 -0.0324 -0.1530
48988W        W49852   5.692   4.027  12.498 -0.1453 -0.0562  0.1602
48989W        W49853   1.068  25.571   9.443 -0.0708  0.0791 -0.1279
48990W        W49854  17.207   6.981  27.934  0.2660 -0.0749  0.0807
48991W        W49855  21.190   4.476  11.196 -0.0203  0.0411  0.1267
48992W        W49856   7.833  19.211  27.738 -0.0819 -0.0066  0.0347
48993W        W49857  13.758   5.188   5.500  0.0396 -0.0706  0.0905
48994W        W49858  15.816   7.323  22.697 -0.1484  0.2222 -0.2876
48995W        W49859  29.006  25.383  11.982  0.4708 -0.0187  0.4489
48996W        W49860  19.480  14.232  17.683  0.1341 -0.0588 -0.1860
48997W        W49861  20.915   5.850  25.380  0.2965  0.0199 -0.1137
48998W        W49862  15.076  13.678   7.263 -0.0276  0.0894  0.0798
48999W        W49863  13.216  17.067  24.376 -0.2561 -0.0526 -0.0113
49000W        W49864  12.172  21.011   7.449 -0.1104 -0.1577 -0.0599
49001W        W49865  20.825   5.240  15.841  0.1631 -0.3782  0.2678
49002W        W49866  23.013  10.960  20.074 -0.0230  0.0810 -0.2800
49003W        W49867  24.760  17.131   1.589 -0.1443 -0.0437 -0.2520
49004W        W49868  21.038  12.778  22.477  0.2020  0.1021 -0.0808
49005W        W49869  19.119  11.904   7.356 -0.1224  0.0173  0.2252
49006W        W49870   6.103  21.761  13.452  0.0324  0.1055 -0.1663
49007W        W49871  17.830  14.962  24.227 -0.2174 -0.2805 -0.3062
49008W        W49872  25.482   7.932  19.091 -0.1685  0.2571 -0.2053
49009W        W49873  19.830  11.619   8.482 -0.0630  0.0889  0.0581
49010W        W49874   2.957  14.515  26.829 -0.2910 -0.1192 -0.2571
49011W        W49875   1.085   1.641  11.116 -0.0636  0.0247 -0.3385
49012W        W49876  28.591  15.068  14.098 -0.0112  0.0447 -0.1663
49013W        W49877  28.721  11.112   9.517 -0.2426  0.0094 -0.2026
49014W        W49878  28.540   8.476  19.747  0.3375  0.0327  0.1937
49015W        W49879  13.791  11.017  22.285 -0.1988  0.5684  0.3284
49016W        W49880   1.201  18.429  18.244 -0.0937 -0.3607  0.2534
49017W        W49881   6.198  19.206  17.355  0.0221  0.4310  0.2876
49018W        W49882   4.678  25.258  23.069 -0.3872 -0.5390  0.0608
49019W        W49883  10.300  22.450  12.921  0.0426  0.0381 -0.0398
49020W        W49884  22.509  21.190   8.108  0.2416 -0.4153 -0.4143
49021W        W49885   7.013   3.923  10.349  0.1655  0.1444 -0.1344
49022W        W49886  28.195  17.526   5.004  0.0426 -0.0521 -0.0996
49023W        W49887  11.284  28.225  15.560 -0.0572 -0.3139  0.0449
49024W        W49888   4.966   0.395   1.679 -0.1413 -0.1297  0.2367
49025W        W49889  27.662  15.357  20.811 -0.1236 -0.0910  0.0893
49026W        W49890  12.420  25.739  22.544 -0.0637  0.2383 -0.0690
49027W        W49891   0.206  22.931   0.487 -0.0318  0.1315 -0.3933
49028W        W49892  13.972   2.569   1.366  0.1357  0.1232 -0.1582
49029W        W49893   4.350  14.246   4.303 -0.0155 -0.0259 -0.2116
49030W        W49894  19.734   1.255  25.879 -0.0869  0.2056  0.2604
49031W        W49895  27.698  12.093  18.151  0.1475  0.0675  0.0653
49032W        W49896  22.762   0.370  21.183  0.2142  0.1809 -0.1819
49033W        W49897   7.667  20.514  23.037  0.1292  0.2659 -0.2046
49034W        W49898  10.521   0.654  16.765  0.0632 -0.1862  0.0096
49035W        W49899   8.773  23.604  26.461 -0.0749  0.0771  0.3562
49036W        W49900   1.240  21.872  10.111 -0.2236  0.1669  0.1114
49037W        W49901  25.039  27.458  17.683 -0.0893  0.1953  0.0274
49038W        W49902  13.328  21.824  13.252 -0.0937  0.1197  0.0253
49039W        W49903  11.534   2.611  21.736  0.0389  0.0145 -0.1340
49040W        W49904   3.861  11.480  23.768  0.0142  0.1075 -0.0370
49041W        W49905  12.344  24.540   4.239 -0.0549  0.2090  0.2204
49042W        W49906   5.983  24.359  22.167  0.1612  0.0992 -0.0165
49043W        W49907   8.589  20.504   2.911  0.2773 -0.1493 -0.0344
49044W        W49908  28.117  21.076  26.128  0.0366  0.2560  0.0198
49045W        W49909  24.292  21.184  16.573  0.2108  0.2371  0.2523
49046W        W49910  21.811  14.816   9.320 -0.2336 -0.2163  0.1403
49047W        W49911  24.994  27.508   5.346  0.0554 -0.1013  0.3090
49048W        W49912  22.065   5.788   6.607  0.2729  0.0366  0.1630
49049W        W49913  25.251  28.513  17.640 -0.1701 -0.2049  0.0839
49050W        W49914  12.029  29.029   9.515  0.0656  0.2357 -0.4709
49051W        W49915  19.798   4.230  18.199 -0.0217 -0.1731 -0.1160
49052W        W49916  27.406   4.903  26.160  0.0483  0.2596 -0.4158
49053W        W49917  16.720  15.179  15.803  0.0237 -0.0462  0.1776
49054W        W49918  13.585   8.271   3.200 -0.0925  0.0614  0.1959
49055W        W49919  26.718  18.985  21.554 -0.0969 -0.0763 -0.2941
49056W        W49920   9.491   8.780  21.092  0.0247 -0.0742 -0.2330
49057W        W49921  13.185  24.824  21.247  0.2681  0.1983 -0.0584
49058W        W49922  19.609  16.277  15.399  0.1658  0.1568 -0.1942
49059W        W49923  21.816  24.930  19.654  0.2419  0.4750  0.0467
49060W        W49924  14.853  24.039   6.921 -0.1049  0.0243 -0.0518
49061W        W49925  10.102  23.529  20.412 -0.1217  0.0661 -0.0424
49062W        W49926  12.521   2.707  12.913  0.1617 -0.0621  0.0298
49063W        W49927  21.076   3.616  15.217 -0.0073  0.2294  0.0119
49064W        W49928  22.137   1.850  27.725 -0.4013  0.0737  0.1213
49065W        W49929   2.173  27.097  16.350  0.0002  0.2741 -0.2515
49066W        W49930  10.535   1.747  19.299  0.0184  0.1620  0.0624
49067W        W49931  26.255  16.505   7.829  0.1789 -0.1572 -0.3183
49068W        W49932  14.067  20.757  21.095  0.0835  0.0157 -0.0266
49069W        W49933  26.607  22.824  27.225 -0.1582  0.2008 -0.0006
49070W        W49934  16.639  17.664  22.050 -0.0112  0.0999  0.1671
49071W        W49935  26.932  18.513   1.716  0.3104  0.0649  0.0233
49072W        W49936  28.685   6.219  18.737  0.0502  0.0613 -0.2223
49073W        W49937  27.031  18.119  11.156 -0.1041  0.0893 -0.1826
49074W        W49938   5.168  16.215  27.339  0.2064  0.1489 -0.2239
49075W        W49939   7.064   6.216  17.095  0.0117 -0.0579  0.1894
49076W        W49940  23.039   4.647  12.667 -0.0547  0.0859 -0.1018
49077W        W49941  18.523   5.675  18.667 -0.3104 -0.1707  0.1043
49078W        W49942  23.931   0.764   1.144  0.1417  0.0624  0.2126
49079W        W49943  22.302  14.680   9.468 -0.0305 -0.4678 -0.3117
49080W        W49944   9.780  17.042   0.953 -0.1877  0.0708  0.2791
49081W        W49945   1.135   7.376  12.458 -0.0533  0.2055 -0.0337
49082W        W49946  17.579  21.733   9.283  0.1828 -0.0789 -0.3285
49083W        W49947  18.438  19.187  25.435 -0.0969  0.0438  0.1957
49084W        W49948  15.321   6.570   5.659 -0.2174 -0.3786  0.0074
49085W        W49949  12.246   8.510   0.943 -0.2560  0.1217  0.1292
49086W        W49950  27.245  12.333   1.498 -0.3022 -0.0175 -0.0633
49087W        W49951  22.716   1.004  17.717 -0.0122  0.0642 -0.3285
49088W        W49952   3.893  27.313  19.295 -0.0065 -0.1395 -0.2285
49089W        W49953  17.309  17.246   6.423 -0.3736  0.0687 -0.1955
49090W        W49954   8.603  17.606  17.536 -0.2936  0.3496  0.1853
49091W        W49955  16.517  27.193   1.998  0.1305  0.0329  0.1870
49092W        W49956   5.440  27.121  27.120  0.0959  0.0148 -0.1528
49093W        W49957   5.424  23.586  13.531 -0.0166 -0.2317  0.1841
49094W        W49958  25.734  16.706   8.231  0.0318 -0.1365  0.1689
49095W        W49959  18.512  27.524  20.290  0.0869  0.0317 -0.0763
49096W        W49960   9.349  28.435  13.409 -0.0903  0.0755  0.0595
49097W        W49961  18.624  16.773  18.539  0.0221 -0.0002  0.0596
49098W        W49962  11.497  19.391  19.286  0.1000  0.1121 -0.2427
49099W        W49963   2.763  28.500  25.091  0.0764  0.0674 -0.1329
49100W        W49964  10.332  26.986  17.975  0.0744  0.2663 -0.0421
49101W        W49965  19.856  27.540  27.922 -0.0711 -0.0600 -0.1084
49102W        W49966   5.929  21.589  22.647  0.1964 -0.0655 -0.2049
49103W        W49967  14.817  28.026   9.974 -0.0515  0.0645 -0.0352
49104W        W49968  11.697   7.602   4.621  0.0039  0.0297 -0.3453
49105W        W49969  13.796  21.767  20.693  0.1264 -0.2692  0.0567
49106W        W49970   5.375   0.908  17.669  0.2682  0.1245 -0.1126
49107W        W49971   8.711  15.279  20.708  0.0473 -0.0013  0.0929
49108W        W49972  25.353  20.517   2.048  0.1568  0.2168 -0.0162
49109W        W49973  20.909  24.795   6.800 -0.2163 -0.0428 -0.5647
49110W        W49974  17.102  28.462  19.751 -0.0454  0.0959  0.0010
49111W        W49975  21.366   3.021  28.210  0.0806 -0.0978  0.3508
49112W        W49976  16.463  25.230   0.614  0.1907  0.2515 -0.1034
49113W        W49977  17.005   3.451  27.887  0.3265  0.0097  0.0137
49114W        W49978  23.677   1.151  15.823 -0.1671 -0.0681  0.1059
49115W        W49979   5.540   6.017   3.636  0.1014 -0.0731 -0.1536
49116W        W49980  25.585   8.192  27.319 -0.2191 -0.1730  0.0454
49117W        W49981  15.685   1.162   8.753  0.0956  0.1969 -0.0369
49118W        W49982  11.644   5.368  16.095 -0.0222  0.0109 -0.1770
49119W        W49983  20.587  25.595   7.122  0.0337 -0.1485 -0.4324
49120W        W49984   4.431  19.621  24.666 -0.3114 -0.1298 -0.2673
49121W        W49985  14.564  24.246  21.157  0.1974 -0.0445  0.1271
49122W        W49986   9.621  16.979  26.549  0.2756  0.0582  0.0700
49123W        W49987  19.637  24.573  24.373  0.0161 -0.2854  0.1326
49124W        W49988  10.635  23.218  10.982 -0.1997  0.0989  0.1013
49125W        W49989   6.390   0.561   4.159  0.2376  0.2397  0.0369
49126W        W49990  18.460  19.238  15.872 -0.0422 -0.0536 -0.0546
49127W        W49991   1.581  20.110  22.002 -0.0091  0.1087 -0.2106
49128W        W49992  22.390  12.188  21.778  0.1723 -0.1650  0.1884
49129W        W49993  28.673  19.146   7.781 -0.0773  0.0821  0.1373
49130W        W49994  20.731   9.820  19.939  0.2578 -0.0631 -0.1409
49131W        W49995  19.583   0.341   7.802  0.0652  0.0551 -0.1965
49132W        W49996  21.005   0.492  16.752  0.3409 -0.0933  0.0477
49133W        W49997   4.606  12.724  23.413 -0.1041 -0.2336 -0.0496
49134W        W49998   7.825   4.360  15.946  0.2101  0.0142  0.0781
49135W        W49999  19.533   9.134   1.129  0.0077  0.0238  0.1766
49136W        W50000   0.700   6.858  20.919  0.1949 -0.0673  0.0054
49137W        W50001  26.079   3.785  19.519  0.1275  0.2336 -0.0513
49138W        W50002  20.103  29.070  10.778  0.1624 -0.0007 -0.1927
49139W        W50003  19.464  15.900  23.244 -0.2837 -0.0882 -0.1144
49140W        W50004  20.547  26.303  17.053  0.0788  0.0257  0.1175
49141W        W50005   4.633  21.831  16.618 -0.0094  0.2906  0.2267
49142W        W50006   9.103  26.216  14.821  0.2035 -0.0519  0.0373
49143W        W50007   7.985   8.273   5.575 -0.2936  0.2626 -0.2467
49144W        W50008  23.640  16.970  13.540 -0.1391 -0.4054  0.0972
49145W        W50009   3.419   8.780  10.383 -0.1412  0.1131 -0.0747
49146W        W50010  20.979  11.420   8.872  0.0160  0.0965  0.0410
49147W        W50011  24.464  20.560  13.869  0.2422  0.0245 -0.1493
49148W        W50012  21.749   8.412  25.693  0.1178  0.3050 -0.1202
49149W        W50013  25.933   7.185  13.452 -0.0272 -0.0097  0.1488
49150W        W50014  15.449  16.920  13.401  0.0609 -0.0574 -0.0845
49151W        W50015  14.401  27.664  13.373 -0.1770  0.1467 -0.0124
49152W        W50016  24.735  19.317  12.219  0.0938 -0.3382  0.0175
49153W        W50017  25.928  27.494  21.468 -0.0650 -0.0095  0.2061
49154W        W50018  19.045  12.642  10.408  0.1033  0.0048  0.0854
49155W        W50019  14.833  19.093   8.857 -0.5641  0.0513  0.0982
49156W        W50020  13.740  15.369  25.228  0.1042  0.0286  0.0175
49157W        W50021   8.014   8.868  22.757 -0.0790 -0.0740  0.1938
49158W        W50022   9.282  26.125   7.303  0.2381  0.0226  0.1469
49159W        W50023  18.413  24.513  10.643  0.0874  0.0885 -0.0203
49160W        W50024  28.230  17.508  26.624 -0.0329  0.1699 -0.2478
49161W        W50025   2.420  27.023  27.400 -0.2884  0.0213  0.1439
49162W        W50026   5.420   5.631  16.984 -0.4014 -0.1022 -0.1383
49163W        W50027  25.821   4.528  15.127 -0.0379  0.1033 -0.0532
49164W        W50028  20.240  21.973  23.794  0.0368  0.1079 -0.0446
49165W        W50029  28.434  20.252   2.275  0.1384 -0.1651  0.0909
49166W        W50030  20.796  28.552  19.542  0.1242 -0.0198 -0.0430
49167W        W50031  21.167  21.990  27.128 -0.1378 -0.3894 -0.1744
49168W        W50032  13.831  19.755  27.244  0.0336  0.2033  0.0444
49169W        W50033   4.635   2.506   6.623 -0.0313  0.0553 -0.0968
49170W        W50034  22.969   9.938  20.175  0.0815  0.2662  0.4415
49171W        W50035   5.327  12.771  28.449 -0.0260 -0.3707  0.0996
49172W        W50036   1.974  14.702  21.795  0.1185  0.2119  0.2178
49173W        W50037  20.836  13.285   1.350  0.1621  0.0328 -0.0514
49174W        W50038  28.456   9.466  12.915  0.0731  0.0590 -0.0972
49175W        W50039  25.641   0.348  15.275  0.1262  0.1294 -0.0988
49176W        W50040  14.573  15.622   4.391  0.1617  0.0037 -0.1320
49177W        W50041  19.822  26.569  24.127 -0.1881  0.3656 -0.1238
49178W        W50042  20.009   0.947   6.285  0.2801 -0.0309  0.2279
49179W        W50043  23.495   3.589  20.677 -0.2415 -0.0201 -0.2624
49180W        W50044   3.537  14.609  20.522 -0.1481 -0.0768 -0.0185
49181W        W50045  21.319  23.237  12.877  0.2541 -0.2116  0.1160
49182W        W50046  18.660  16.543  15.301  0.0957  0.1365 -0.0954
49183W        W50047   5.087  27.207   9.096  0.1832  0.1795  0.0185
49184W        W50048  18.132   2.521  15.421 -0.2380 -0.1786  0.2105
49185W        W50049  11.447  26.637   8.768  0.0750 -0.2197  0.0357
49186W        W50050  26.977   0.844  20.117 -0.1409 -0.0389  0.0649
49187W        W50051  28.474  11.219   1.522  0.1992  0.1527  0.2811
49188W        W50052  12.268  18.008  28.300  0.2589  0.0833 -0.1882
49189W        W50053  24.608  22.411  22.271  0.1242 -0.0015  0.1232
49190W        W50054   6.488  27.318   1.378  0.0043 -0.0355 -0.0027
49191W        W50055  15.072  24.409   3.385  0.2489  0.0273  0.0751
49192W        W50056   1.795  11.088  17.823  0.6478 -0.2544  0.2410
49193W        W50057  22.297   8.920  13.431  0.1891  0.1445  0.0548
49194W        W50058  15.126   2.373   9.800  0.0133  0.4069 -0.1315
49195W        W50059  20.315  16.516  13.782  0.2765 -0.2379  0.0626
49196W        W50060  27.396   5.936  10.522 -0.4248  0.2220 -0.0512
49197W        W50061  24.595   9.972  26.361  0.0431  0.1771 -0.3600
49198W        W50062   6.990   5.953   0.936 -0.3485 -0.3955  0.2661
49199W        W50063  19.321  10.033   1.498  0.1279 -0.4341 -0.1199
49200W        W50064  11.982   3.580  27.085 -0.4369  0.1268 -0.2473
49201W        W50065  28.809  19.393  10.276 -0.0298  0.1171  0.0996
49202W        W50066  10.816   3.015  18.754 -0.0462  0.2684 -0.2778
49203W        W50067  26.776   6.297  16.844  0.0339 -0.2619  0.1430
49204W        W50068  11.902  25.567  15.642  0.4203 -0.0166  0.1200
49205W        W50069   0.181   8.927   6.168  0.1942 -0.3015  0.0455
49206W        W50070   9.506  14.105  22.833  0.0803  0.0187  0.0569
49207W        W50071  16.778   4.004   1.558 -0.0797  0.2965 -0.3765
49208W        W50072  18.959  17.592  16.566  0.0610 -0.3176 -0.2555
49209W        W50073  28.523   1.544  12.165  0.1127 -0.1798  0.0165
49210W        W50074  25.566  13.101  19.915 -0.2173 -0.2315  0.1515
49211W        W50075  25.472   9.638  23.874 -0.0123  0.2674 -0.2328
49212W        W50076  19.090   6.169  16.253 -0.1438 -0.1696  0.0516
49213W        W50077  17.725  22.274   3.904 -0.1524  0.0048  0.3550
49214W        W50078   6.674  11.330  11.971 -0.3042  0.1483 -0.1598
49215W        W50079   8.143   6.254   4.319  0.2623  0.0060 -0.1950
49216W        W50080  19.307   0.882  18.030 -0.0779 -0.1545 -0.2515
49217W        W50081  23.423   8.637  20.470 -0.1311  0.1014 -0.0073
49218W        W50082   0.108  11.207  13.729 -0.3842  0.0728 -0.2626
49219W        W50083   9.085  24.201  19.967 -0.2630 -0.0378 -0.2513
49220W        W50084  21.944   2.150  13.218 -0.1216 -0.1648 -0.1638
49221W        W50085   8.960  21.048  27.912  0.2114 -0.2175  0.1470
49222W        W50086  12.277   4.008  21.466 -0.2194  0.0260 -0.0190
49223W        W50087  21.052   2.351   7.612 -0.1344  0.3053 -0.0182
49224W        W50088  16.346   7.811  16.687  0.0943  0.0753 -0.0897
49225W        W50089  23.155  29.077  16.748 -0.1210  0.2202  0.3301
49226W        W50090  18.625  11.211  23.517  0.0994  0.0531 -0.1618
49227W        W50091  27.280  20.426  11.151  0.0828  0.0624 -0.1893
49228W        W50092  25.329  19.363  18.941 -0.2273  0.1317  0.1376
49229W        W50093  22.947   9.884  11.063 -0.2249 -0.0955  0.1035
49230W        W50094  21.259  11.719  15.376 -0.2033  0.3493  0.0902
49231W        W50095  23.983  17.869  24.097  0.4608  0.2546  0.1358
49232W        W50096  22.640  27.708   4.089  0.2571 -0.0102  0.1517
49233W        W50097  25.286   5.521  18.421 -0.3274  0.1803  0.1165
49234W        W50098  17.815  19.491  11.340  0.2015 -0.0699  0.4910
49235W        W50099  13.599  10.636   8.453  0.2412  0.0393 -0.1115
49236W        W50100  22.197  23.433   6.944  0.0748  0.2142  0.0799
49237W        W50101  14.716  18.200  12.402  0.1915  0.0807 -0.4297
49238W        W50102  14.332  26.794  11.736  0.0680 -0.1856 -0.1602
49239W        W50103  25.462  26.223  27.481 -0.0121 -0.2260  0.0753
49240W        W50104  28.512  20.136  11.849  0.0372 -0.0594  0.0316
49241W        W50105   9.188  13.151   9.287  0.2835  0.0957 -0.0317
49242W        W50106  26.420  19.488  18.019  0.2346 -0.3032  0.0746
49243W        W50107  19.614  18.627  26.509 -0.1222  0.0879  0.1439
49244W        W50108  28.311  15.049   8.974 -0.0547 -0.1929  0.1267
49245W        W50109  13.267  10.995   9.419 -0.1269 -0.1838 -0.0634
49246W        W50110  12.233  13.850  15.448 -0.2213  0.1266  0.0396
49247W        W50111   8.754  25.483   9.578  0.2128 -0.1974  0.1208
49248W        W50112  27.872  28.885  13.179  0.0818  0.2016 -0.0121
49249W        W50113   5.224  17.235  24.909 -0.0136  0.2954  0.0127
49250W        W50114   5.989  21.935  26.190 -0.1570 -0.0553 -0.1315
49251W        W50115  11.441  20.979  10.231  0.0530  0.2038 -0.1125
49252W        W50116   6.294  28.578  18.472  0.0537  0.4188  0.2674
49253W        W50117  20.725  11.095   5.684 -0.1217 -0.3677 -0.0708
49254W        W50118  15.651  21.248   5.318 -0.1784 -0.0149 -0.1077
49255W        W50119  14.864   6.126   6.388  0.0816  0.0201 -0.2902
49256W        W50120  21.202  17.102  27.001 -0.0440 -0.0286 -0.0506
49257W        W50121   3.427  19.420  11.098 -0.0172  0.0449  0.3045
49258W        W50122  17.206   4.520   6.054  0.0998  0.5932 -0.1969
49259W        W50123   0.060  21.167   5.798 -0.1054  0.2148 -0.1215
49260W        W50124  19.993  19.034  22.990 -0.1366 -0.3026 -0.0382
49261W        W50125  15.964  19.986  23.053  0.2519  0.0623  0.1763
49262W        W50126  25.538  27.520  22.893 -0.2062 -0.0111  0.1254
49263W        W50127  16.797  22.072   7.525 -0.2162 -0.1199  0.2175
49264W        W50128  23.874   0.902  14.861 -0.1532  0.0861 -0.0687
49265W        W50129   1.347  21.139  19.007 -0.6012  0.0555 -0.2449
49266W        W50130  27.301  24.509  17.743  0.0531  0.0884 -0.0898
49267W        W50131  12.187  14.458  20.542 -0.0421  0.0903 -0.0334
49268W        W50132  14.655  19.611  14.594  0.0690  0.0259 -0.0404
49269W        W50133   3.772  25.234  12.539 -0.2118  0.1899  0.2248
49270W        W50134  10.697  18.121   2.550 -0.1678 -0.1221 -0.2906
49271W        W50135  25.182  26.502  17.613  0.0393  0.0377 -0.2363
49272W        W50136  23.660  22.318   3.797 -0.2025  0.0483 -0.1105
49273W        W50137  23.111   8.050  16.573  0.0894  0.0903  0.0296
49274W        W50138  14.130   5.110   8.962 -0.1995 -0.0065 -0.0370
49275W        W50139  19.637  28.918  14.907 -0.2628 -0.3291  0.0152
49276W        W50140   9.492  23.065   1.954 -0.0809  0.1589  0.0443
49277W        W50141  17.046   2.505  14.550  0.0961 -0.0459 -0.1554
49278W        W50142   0.904  23.698   6.739  0.1820  0.0690 -0.0132
49279W        W50143  25.195  17.573  23.471 -0.0520  0.1662  0.0467
49280W        W50144  17.486  19.316  15.550  0.0971  0.4240  0.3657
49281W        W50145  16.950   7.056   6.121 -0.1312 -0.1202  0.1109
49282W        W50146  11.448   7.764  23.332  0.1021 -0.2166  0.0081
49283W        W50147  25.496  20.820  10.347 -0.0724  0.0663 -0.2013
49284W        W50148  23.898   3.095  23.082  0.0888 -0.1704  0.2042
49285W        W50149   8.863   9.137   7.529 -0.1601  0.1250 -0.1311
49286W        W50150  24.625   4.895  17.654 -0.1119 -0.0052 -0.1250
49287W        W50151  10.955  13.333  17.694  0.0843 -0.1036  0.0754
49288W        W50152  23.637  22.031   0.858 -0.0475  0.1033 -0.2308
49289W        W50153  26.871  26.993  24.230 -0.1186  0.0347 -0.3154
49290W        W50154  26.151   4.827  29.051 -0.2141 -0.0394 -0.1789
49291W        W50155  16.081  22.089  15.622  0.1325  0.2006 -0.2319
49292W        W50156   4.043  10.024  14.747  0.1269 -0.3303  0.0267
49293W        W50157  28.423   0.075  24.589 -0.2130  0.0228 -0.1111
49294W        W50158  26.504   7.617   3.098 -0.0348 -0.3618  0.0253
49295W        W50159  20.845   2.054  16.856  0.1424  0.0288 -0.0357
49296W        W50160  10.039   3.408  11.946  0.2725 -0.1074  0.1201
49297W        W50161   6.074  27.043   1.537 -0.0001 -0.0196  0.0377
49298W        W50162   6.579   0.263  20.722 -0.1286 -0.0083 -0.4192
49299W        W50163  26.086   9.261  20.199  0.2645  0.0451 -0.0837
49300W        W50164  16.722  20.692  12.089 -0.2171 -0.2990  0.0193
49301W        W50165   9.185  10.021  28.241 -0.1279  0.2095 -0.3018
49302W        W50166  28.017  24.142   6.683  0.1336  0.1447 -0.1942
49303W        W50167  18.689  16.906   1.819 -0.0795 -0.2545  0.3066
49304W        W50168  26.758  22.891  12.296  0.3788  0.2933  0.1865
49305W        W50169   5.890  16.762  11.823  0.2988  0.1304 -0.0293
49306W        W50170  27.817   4.408  26.471 -0.0876  0.0523  0.0943
49307W        W50171  16.604   3.818  17.611 -0.3698  0.1995 -0.1434
49308W        W50172   5.166  13.628  13.394 -0.3746  0.0437 -0.1305
49309W        W50173   0.927  17.924  14.030 -0.1389 -0.1566 -0.0124
49310W        W50174   2.565  20.743  16.004  0.2239  0.3183 -0.1314
49311W        W50175  23.094   5.794  17.229  0.0984  0.1943 -0.2154
49312W        W50176   5.215  27.330   5.717  0.0124  0.4763 -0.1970
49313W        W50177  16.009  17.652   8.108 -0.0643  0.0204  0.1485
49314W        W50178  23.655   4.594  22.487 -0.0034  0.1087 -0.1136
49315W        W50179  26.657  25.406   4.406 -0.1819  0.0145  0.1927
49316W        W50180  14.598   4.910   9.111  0.1075  0.0328 -0.0785
49317W        W50181  10.907  27.102  27.312 -0.0477  0.1205 -0.0289
49318W        W50182  18.164   3.093  13.783  0.0622 -0.2650 -0.1840
49319W        W50183  27.469  22.209  23.831 -0.1383 -0.0828 -0.2369
49320W        W50184  27.700  25.665   2.262  0.0238  0.2147  0.0112
49321W        W50185  27.044  21.022   9.946  0.0439 -0.0149  0.1170
49322W        W50186   0.396  24.414  20.798 -0.1784 -0.2003  0.2938
49323W        W50187   7.501  22.863  11.700 -0.1651  0.1432  0.0899
49324W        W50188  27.705  17.196  27.844 -0.0477  0.0273 -0.2446
49325W        W50189  22.719  15.487  14.878  0.1830  0.0559  0.1279
49326W        W50190   1.323  17.477   3.137  0.1473 -0.0142  0.1655
49327W        W50191   6.054  20.825  21.378  0.0012 -0.0234 -0.0175
49328W        W50192  28.660  29.114  23.264 -0.1420  0.1036  0.1221
49329W        W50193  27.763   4.701   6.278 -0.0486  0.0572 -0.1984
49330W        W50194  26.113  19.496  19.414 -0.3674  0.0858  0.2456
49331W        W50195   1.889   7.596  18.471  0.1347  0.1140  0.1621
49332W        W50196   5.098  26.434  23.564 -0.1458  0.1664 -0.3348
49333W        W50197  21.987  26.073   0.787 -0.0699 -0.1943  0.1643
49334W        W50198  19.328   7.299  26.547 -0.0531  0.0552 -0.0053
49335W        W50199   1.417  12.314  25.012 -0.1809  0.0674  0.2542
49336W        W50200  23.906  16.845  27.980  0.0502 -0.0947  0.3026
49337W        W50201  13.242  24.163  26.610  0.0854  0.0510 -0.1089
49338W        W50202   1.885  17.573   9.143 -0.1841  0.0845 -0.2455
49339W        W50203  26.218  24.765  17.501  0.1023  0.0296 -0.0194
49340W        W50204  28.382  25.214  11.925 -0.0508 -0.0194 -0.4057
49341W        W50205  25.954   7.333  12.892 -0.0907 -0.1010  0.1085
49342W        W50206   7.437   9.406   1.574 -0.1458 -0.0826  0.1678
49343W        W50207  15.018   0.080  12.651 -0.0318 -0.0278 -0.1838
49344W        W50208  19.697   2.366  28.444 -0.2394 -0.2581  0.0690
49345W        W50209  11.638   5.447  18.905 -0.1824  0.0728  0.2389
49346W        W50210  11.632  19.560  23.549 -0.2249  0.2002  0.3232
49347W        W50211  12.832   0.834   1.539  0.2508 -0.2941 -0.1281
49348W        W50212  18.625   1.412   7.602 -0.0002  0.1793 -0.1054
49349W        W50213   0.266  28.756  23.340  0.2545 -0.0960 -0.4425
49350W        W50214  13.909  28.509  13.844  0.1090  0.1528  0.2370
49351W        W50215  24.043  12.255   0.281 -0.1178  0.1742 -0.1518
49352W        W50216  13.538  24.901  10.354  0.1745 -0.1129 -0.2016
49353W        W50217  25.309  25.585  13.595  0.3238  0.3704  0.2759
49354W        W50218  12.765  26.336  11.763 -0.0230 -0.3566  0.1247
49355W        W50219   3.197  16.562  14.268 -0.0871  0.5612  0.3404
49356W        W50220  14.753  27.578  24.171  0.2300 -0.3997 -0.0081
49357W        W50221  13.836  11.665  10.560 -0.1031  0.1497  0.1467
49358W        W50222  28.058   1.894  19.091  0.1425 -0.3527 -0.0703
49359W        W50223  26.774  27.016  22.940 -0.1737 -0.0414 -0.0481
49360W        W50224  15.546  21.512  15.285  0.0419  0.2491  0.2756
49361W        W50225  23.941  27.946   4.872 -0.1890 -0.0032 -0.1241
49362W        W50226  20.962   7.057  20.692  0.2067  0.1031 -0.0604
49363W        W50227  19.941  16.006  26.303  0.0005 -0.0096  0.4855
49364W        W50228  11.199  14.769  21.428 -0.0737  0.2479 -0.2301
49365W        W50229  24.978   8.391  16.123  0.0658 -0.3910 -0.0381
49366W        W50230   2.068  28.873  13.394 -0.3404 -0.1329 -0.0680
49367W        W50231  14.600  17.694   6.155 -0.0616 -0.1252 -0.0855
49368W        W50232  22.226  28.251   1.791 -0.0238  0.1465  0.1037
49369W        W50233  19.058  23.202   6.510  0.0386  0.0376 -0.2476
49370W        W50234  17.050   0.560   3.547 -0.3078 -0.2981 -0.1061
49371W        W50235   7.091  24.752  15.111 -0.0353  0.0688 -0.1656
49372W        W50236   4.900  23.842  18.476  0.1812 -0.0301  0.0534
49373W        W50237  15.710   2.614  20.924  0.2438  0.1037  0.2774
49374W        W50238   0.967   9.744   5.432 -0.1047 -0.0285  0.2955
49375W        W50239  16.658  15.787   7.586  0.0859  0.2437 -0.3566
49376W        W50240   9.756  18.928  20.156 -0.1446 -0.1091 -0.0422
49377W        W50241  18.257  15.137  24.049 -0.0299 -0.3941  0.2534
49378W        W50242  14.581  27.097  23.446 -0.1691  0.0901 -0.1210
49379W        W50243  16.933  17.270  20.833  0.1759 -0.0155 -0.0282
49380W        W50244  19.631  19.723  20.761 -0.2840 -0.3575  0.2656
49381W        W50245   1.875   9.323  19.402 -0.0138 -0.0012 -0.0106
49382W        W50246  26.026  14.337  21.491  0.2452 -0.2007  0.2475
49383W        W50247  23.854   0.348  13.619 -0.2555 -0.1103  0.2820
49384W        W50248  27.536  25.764   0.243  0.2682  0.1333  0.2051
49385W        W50249   1.226  29.012   1.182 -0.1589  0.0108 -0.3334
49386W        W50250  23.547  21.637   6.288  0.1517  0.0023  0.3103
49387W        W50251  23.270   3.097  13.805 -0.2147  0.1161  0.1073
49388W        W50252   7.222  28.776   1.973  0.0420  0.3175  0.0927
49389W        W50253  23.744  27.331  12.360 -0.0531  0.0431 -0.0576
49390W        W50254   0.332   3.073   4.978 -0.1511 -0.0404 -0.2998
49391W        W50255   3.362  14.164  22.252  0.0893 -0.1607  0.2481
49392W        W50256  17.729   5.642  23.626 -0.0817  0.1697 -0.1286
49393W        W50257  27.314   3.653  26.011 -0.0508  0.1249  0.0091
49394W        W50258   8.915  21.283  10.927 -0.1768 -0.4165 -0.0801
49395W        W50259  18.305   0.453  26.571  0.0800  0.2208 -0.0961
49396W        W50260  25.664  21.568  21.134 -0.0642  0.3983  0.0557
49397W        W50261  18.877  24.538   9.809 -0.0350 -0.1432  0.0964
49398W        W50262   0.228   5.371   6.187 -0.1524  0.1466 -0.0497
49399W        W50263   7.711  14.692  17.833 -0.0359  0.1377 -0.0460
49400W        W50264  23.574  15.739   7.690 -0.1758  0.0502 -0.2593
49401W        W50265  22.313  29.092  14.796  0.0914 -0.0165  0.0104
49402W        W50266   8.494  16.848  10.808  0.1459 -0.0316  0.0545
49403W        W50267  23.474  23.990  14.059  0.2148  0.1764 -0.0689
49404W        W50268  22.425  20.742  15.010 -0.3602 -0.2653  0.0273
49405W        W50269   3.236   1.204  27.989 -0.0178  0.0697 -0.2800
49406W        W50270   8.303  12.454   3.246  0.0043  0.1845  0.2620
49407W        W50271  24.408   0.645  27.675 -0.1674  0.3161 -0.1072
49408W        W50272  21.842  15.623  13.952 -0.2033  0.2944  0.3766
49409W        W50273   9.531  10.511  14.723  0.2058  0.0492 -0.1890
49410W        W50274  17.287  24.883  22.763 -0.0955  0.0517 -0.0730
49411W        W50275  27.950  23.103  16.645  0.3291 -0.0435 -0.0240
49412W        W50276  22.868   6.927  12.182  0.0663  0.3965 -0.0422
49413W        W50277   0.855  27.307   6.853 -0.0495 -0.1428 -0.0615
49414W        W50278  10.609  18.565  18.592 -0.1022  0.1189  0.1075
49415W        W50279  23.205   4.112  10.408 -0.4208 -0.3144  0.1494
49416W        W50280  16.365   5.655  11.776 -0.4366 -0.2055  0.2112
49417W        W50281   2.530  27.592  27.528 -0.1796 -0.1395 -0.2266
49418W        W50282   9.676  19.571  22.343 -0.1277 -0.2226 -0.0213
49419W        W50283   4.382   6.741  10.860  0.1186 -0.0437  0.2335
49420W        W50284  18.908  23.268   2.798 -0.2356 -0.2634  0.2217
49421W        W50285  15.777  26.134  22.463  0.1506 -0.4187  0.3072
49422W        W50286   9.013   4.873  12.408 -0.0802  0.0438 -0.0774
49423W        W50287  10.276   7.222  15.595  0.0474 -0.4060  0.1383
49424W        W50288   7.428   6.258  28.898 -0.3730 -0.4059  0.1329
49425W        W50289  28.733   4.989  15.808 -0.3919 -0.1373  0.0370
49426W        W50290   4.251  26.067  26.951  0.2560  0.1722 -0.2695
49427W        W50291  26.066   5.650  25.679  0.0437 -0.1430  0.1089
49428W        W50292  13.755   5.869  14.566  0.1123 -0.3616 -0.2431
49429W        W50293   6.383  20.908  10.231  0.2691  0.1676  0.2455
49430W        W50294  24.268  14.567  16.653 -0.1729  0.0202  0.1065
49431W        W50295   0.488   2.107   9.146 -0.1775 -0.0727 -0.1335
49432W        W50296   9.391  20.933  19.626 -0.2512  0.2275 -0.0028
49433W        W50297  14.980  14.952  19.511  0.1028 -0.1773 -0.1882
49434W        W50298  23.574  25.863  26.206 -0.0186  0.4180 -0.0442
49435W        W50299  21.371  13.079  22.778 -0.2354  0.1549  0.0924
49436W        W50300  19.111   7.972   6.832  0.3010 -0.2539 -0.2969
49437W        W50301   0.592  13.489  16.512 -0.0287 -0.1966  0.2391
49438W        W50302   5.436  27.312   7.600 -0.1056  0.0652  0.1858
49439W        W50303  27.821  17.632   9.915  0.0090 -0.2372 -0.0111
49440W        W50304   8.596  29.077  21.967  0.0243  0.1019 -0.3164
49441W        W50305  22.703  19.699  21.349 -0.1831 -0.2470 -0.0416
49442W        W50306  15.844   1.786  22.067 -0.3301  0.0457 -0.2862
49443W        W50307  26.468  16.175   6.200  0.0168  0.0975 -0.3132
49444W        W50308  20.087   8.038   0.345  0.1528  0.2234 -0.0255
49445W        W50309  23.980   2.307  18.483  0.2963  0.1201 -0.0593
49446W        W50310  27.325   1.138  26.520  0.6151 -0.0088 -0.0504
49447W        W50311  23.923  18.311   9.809 -0.2891 -0.3462 -0.0785
49448W        W50312  23.044  15.342  15.323 -0.2828  0.1275 -0.0765
49449W        W50313  15.076  15.161  28.520 -0.0447 -0.1358  0.0701
49450W        W50314   2.907   7.409  27.119 -0.1216 -0.1226  0.0921
49451W        W50315   9.795  10.009   5.105  0.2001  0.2402  0.0791
49452W        W50316  14.828   5.271  26.868  0.0233  0.0470 -0.0539
49453W        W50317  16.875  28.033   9.228 -0.0707 -0.0739  0.2629
49454W        W50318  12.615   1.884   1.262 -0.0582  0.1757  0.0247
49455W        W50319  10.919  20.707  12.796 -0.1204 -0.3432  0.3961
49456W        W50320   9.125  23.353  19.931  0.1433 -0.1024  0.2446
49457W        W50321  10.765  15.242  18.768  0.1844  0.2581 -0.1039
49458W        W50322  16.151  23.834  17.992  0.2064  0.2140 -0.0152
49459W        W50323  22.366  16.525  20.004  0.1227  0.1147 -0.1045
49460W        W50324  20.284  25.305  19.577  0.0213 -0.3610  0.3069
49461W        W50325  18.095  29.042  10.144 -0.2070 -0.0003 -0.4477
49462W        W50326  16.163   9.657  28.506 -0.1730 -0.1755 -0.1224
49463W        W50327  15.078   6.828  20.592 -0.1659  0.0315 -0.2039
49464W        W50328  15.384  25.381  24.130 -0.5724  0.0329  0.4728
49465W        W50329  17.574   6.062  20.525 -0.3221  0.1164  0.1270
49466W        W50330  16.682  20.896   6.009  0.1932 -0.2719 -0.1082
49467W        W50331   4.485  12.151  23.399 -0.5436 -0.2278  0.0329
49468W        W50332  12.867  13.863  24.987  0.0055 -0.4269 -0.6321
49469W        W50333  13.347  21.915  22.592 -0.0418  0.2186  0.0985
49470W        W50334  26.458  15.805  13.842 -0.1716  0.2166 -0.0739
49471W        W50335  15.274  27.798   1.425  0.0456 -0.0838 -0.2487
49472W        W50336  24.060  27.609   5.261  0.0489  0.2144 -0.2027
49473W        W50337  18.025  22.547   2.360  0.0969 -0.0001 -0.1307
49474W        W50338  21.915  20.069  17.599 -0.0831 -0.0828  0.1598
49475W        W50339  28.382  25.823   5.123  0.2399 -0.0405  0.1948
49476W        W50340   4.744  18.368  16.734 -0.0553  0.0418 -0.0849
49477W        W50341  27.893   7.437  15.900 -0.3003  0.1115  0.0270
49478W        W50342   8.250   9.884  27.709  0.3126  0.2761  0.2199
49479W        W50343  11.601   7.431  22.952 -0.0826 -0.0889  0.0604
49480W        W50344  18.146  19.765   0.534  0.0644  0.1051 -0.2236
49481W        W50345  23.749  17.585   9.949 -0.0917  0.0201  0.3323
49482W        W50346   1.321  10.563  19.579 -0.0716  0.1234  0.2137
49483W        W50347   0.393  22.295  17.725  0.2808 -0.1298 -0.1388
49484W        W50348  14.180  18.888   0.458 -0.1124  0.0070 -0.0440
49485W        W50349  21.968  17.558  16.807  0.0917 -0.1793  0.1819
49486W        W50350  11.561   0.981  17.680  0.1342  0.0912 -0.1266
49487W        W50351  26.156  23.823  26.797 -0.1710  0.1355  0.2723
49488W        W50352  28.326  19.320   9.476 -0.4979  0.0926 -0.1585
49489W        W50353  25.645  15.862  22.223 -0.1061  0.0993 -0.0693
49490W        W50354  17.144  18.064  18.365  0.0593 -0.0626 -0.0891
49491W        W50355   6.707  25.187  16.892 -0.1742  0.0264 -0.0800
49492W        W50356  26.759  24.827   3.209 -0.2023 -0.1329 -0.0622
49493W        W50357  19.521   0.746  11.437  0.2064  0.0426 -0.1585
49494W        W50358   7.829   4.697  26.394  0.1539 -0.2265  0.0870
49495W        W50359  12.923  22.659  17.687  0.1303 -0.1339 -0.0500
49496W        W50360  12.640   7.678   7.656 -0.0683 -0.2077  0.0831
49497W        W50361  26.334   1.273  25.796 -0.0599 -0.1381 -0.0039
49498W        W50362  15.984  24.476   3.149 -0.2023 -0.0525 -0.0614
49499W        W50363  13.899   7.708  25.987 -0.1016  0.0161  0.0411
49500W        W50364  22.747   1.526   6.910  0.1360  0.1772 -0.1803
49501W        W50365   0.718   3.662   0.151  0.0181  0.1481  0.3620
49502W        W50366  11.505  22.423   2.361 -0.1061  0.2919  0.1826
49503W        W50367   2.823   4.386  16.472  0.2723 -0.1590 -0.0710
49504W        W50368   2.183  16.460  13.406 -0.1558  0.0133 -0.2012
49505W        W50369   7.324   4.694  29.121  0.0853 -0.2065 -0.0052
49506W        W50370  25.659  15.321  24.045 -0.2333  0.0884  0.0535
49507W        W50371  20.204   6.850  19.608  0.3918 -0.0141  0.0404
49508W        W50372  25.035   6.186   9.225 -0.0418  0.2000 -0.2360
49509W        W50373  16.210   2.860  24.023  0.0797 -0.0337 -0.3786
49510W        W50374   8.477  27.777  21.338 -0.0580 -0.0691  0.0963
49511W        W50375  11.687  15.720  16.878  0.1730 -0.0652  0.2874
49512W        W50376  16.503   9.887  23.499  0.0695  0.2896 -0.0744
49513W        W50377  22.359  26.408  24.588 -0.1812 -0.3345 -0.1534
49514W        W50378  10.298  13.062  20.109 -0.0335 -0.1658  0.1315
49515W        W50379  26.017  25.843   4.570 -0.1908 -0.2687  0.0308
49516W        W50380  16.376   3.082  21.994  0.0268  0.1897 -0.1069
49517W        W50381  21.642  27.856  22.891  0.1750  0.0586  0.1543
49518W        W50382  25.415  13.318   3.882  0.0056 -0.2356  0.0067
49519W        W50383  25.491   4.564  18.115 -0.0212 -0.0765  0.4613
49520W        W50384  11.999  10.181   4.461 -0.4332 -0.2389 -0.0505
49521W        W50385  10.609  11.446  22.916 -0.0968 -0.1276  0.2286
49522W        W50386   2.302  17.708  24.598 -0.2095 -0.2472  0.0935
49523W        W50387  14.578  26.237  22.124  0.5062 -0.0910 -0.0641
49524W        W50388   9.421  21.608  13.569 -0.1227 -0.3488 -0.0078
49525W        W50389   2.720  17.014   6.593  0.0412 -0.0768  0.0602
49526W        W50390  20.957  27.659  12.137 -0.2884 -0.2523 -0.0206
49527W        W50391  16.472   5.466  26.578 -0.1704  0.1421  0.2219
49528W        W50392  21.713  22.230  27.555  0.3484 -0.1145 -0.0867
49529W        W50393  20.636   3.828   3.121 -0.1024 -0.1539  0.0010
49530W        W50394  14.604   6.851  28.585  0.2820  0.0279 -0.3174
49531W        W50395   4.679   9.023  28.487  0.0338 -0.1607 -0.1970
49532W        W50396  28.652  24.880  16.706  0.0291 -0.3614  0.2365
49533W        W50397  16.930  12.605  24.197 -0.0081  0.0941 -0.2375
49534W        W50398   2.018  11.418  18.787 -0.1734  0.0525  0.0019
49535W        W50399  24.641   9.350   7.689  0.4224  0.1531 -0.1866
49536W        W50400   1.218  21.562  10.552  0.0306 -0.0692  0.2889
49537W        W50401   8.023  14.552  19.588 -0.1773 -0.0667  0.0625
49538W        W50402  19.162  10.640  27.308 -0.0619 -0.2052  0.0692
49539W        W50403  19.181   6.310  11.814  0.1669  0.1967  0.0296
49540W        W50404   3.954   8.583  12.245  0.2429  0.1896  0.0839
49541W        W50405  22.751  27.834   5.077 -0.4437  0.1170 -0.1444
49542W        W50406  23.450  19.782  15.854  0.0001 -0.3273  0.1760
49543W        W50407  24.942  26.912   2.511  0.0443  0.1308 -0.3109
49544W        W50408  19.797  19.940   3.820 -0.0166  0.0844 -0.2215
49545W        W50409  19.586  20.758  15.150 -0.3800  0.5461 -0.2686
49546W        W50410   1.190  20.643  10.134 -0.0175  0.2492  0.1213
49547W        W50411   0.028  27.054   4.750  0.1038  0.0803 -0.1773
49548W        W50412  18.432  23.038  20.773 -0.1710  0.5010 -0.0747
49549W        W50413  25.836  19.536  25.470 -0.1895  0.1298 -0.3082
49550W        W50414  26.020  13.846  10.638 -0.1363 -0.0730 -0.0324
49551W        W50415   9.058  27.667   0.749  0.3120  0.0115 -0.1848
49552W        W50416  18.963  25.946  25.305 -0.0329 -0.0402  0.4574
49553W        W50417  28.180   4.309  17.972 -0.4379 -0.2143  0.2081
49554W        W50418  28.578  28.031  21.825  0.0917 -0.2549  0.0527
49555W        W50419  25.821  28.085  24.617  0.4048 -0.0539 -0.0323
49556W        W50420   0.512  22.642   4.030  0.0856  0.0462  0.0515
49557W        W50421  12.840  21.975  15.301 -0.0746 -0.2959 -0.0471
49558W        W50422  12.570  19.787  12.066 -0.0048 -0.1890 -0.2312
49559W        W50423   4.323   4.867  27.556  0.1312 -0.0712  0.0384
49560W        W50424   7.658  13.073   7.605  0.1879 -0.0297  0.1740
49561W        W50425  23.780   5.041   6.174  0.1190  0.1404  0.2239
49562W        W50426  27.197  19.660  25.550 -0.0662 -0.0933  0.0706
49563W        W50427  27.945   8.927  27.600  0.0083 -0.1610 -0.3897
49564W        W50428  17.569   1.827   6.144  0.0138 -0.1840  0.1609
49565W        W50429  26.704  23.479  13.234  0.1484 -0.0574  0.0310
49566W        W50430  18.518  27.422  17.707  0.0630  0.2908  0.1051
49567W        W50431  11.534   2.892  20.048 -0.0121 -0.1087  0.2645
49568W        W50432  28.235  19.239   8.049 -0.0768  0.1843 -0.0386
49569W        W50433  13.080   1.897  12.952  0.1124  0.1266  0.0231
49570W        W50434  25.853   7.414   2.504 -0.0522 -0.0552  0.2125
49571W        W50435  27.293  15.790  10.490  0.0664  0.1313 -0.2129
49572W        W50436   6.899  21.409  23.893 -0.1639  0.2555  0.0429
49573W        W50437  17.777  12.234  21.638 -0.0567 -0.0693  0.0717
49574W        W50438  14.611  19.395  24.873 -0.0171  0.0045  0.2184
49575W        W50439  13.697   3.468  26.089 -0.0729 -0.1396 -0.1018
49576W        W50440  22.820   2.220  23.391 -0.1649  0.1129 -0.1582
49577W        W50441  19.504  27.394  22.115 -0.0043 -0.0611 -0.0243
49578W        W50442   1.499  23.243   2.354 -0.0832  0.1918 -0.0045
49579W        W50443  17.223  16.403   8.670 -0.0834 -0.2531  0.3096
49580W        W50444  16.385   2.003  20.868 -0.0151 -0.0494 -0.0848
49581W        W50445  17.604   3.443   5.287 -0.0395  0.1632 -0.1361
49582W        W50446   2.053  14.308  21.544  0.0754 -0.4245  0.2264
49583W        W50447  27.589  20.836  11.980  0.0217  0.1450 -0.1292
49584W        W50448  22.304  11.492   8.462  0.1327 -0.1026  0.0017
49585W        W50449  16.867  21.508   8.557 -0.1065 -0.0536 -0.1773
49586W        W50450  14.137   3.825   0.370  0.1721 -0.0667  0.0653
49587W        W50451  24.208   4.657  17.455  0.0059  0.2949 -0.1271
49588W        W50452  17.501  11.720  21.575  0.0967 -0.1824 -0.0805
49589W        W50453  15.376  17.234   9.275 -0.4060  0.1411 -0.0954
49590W        W50454  15.661  13.732  13.650  0.3167  0.1931 -0.3513
49591W        W50455  19.728   0.984  10.576  0.1287 -0.1389  0.0308
49592W        W50456   4.826   0.850  18.662 -0.1018 -0.3709 -0.0830
49593W        W50457  14.626  10.009  17.682  0.0724  0.0291  0.3384
49594W        W50458   5.403  14.808  17.788  0.3603  0.2797 -0.0832
49595W        W50459  12.837  22.891   6.196 -0.1723  0.1515  0.1251
49596W        W50460  17.513  15.091   0.238 -0.0002 -0.0516  0.2671
49597W        W50461  21.978  23.168  17.660  0.1235  0.0797 -0.2736
49598W        W50462   0.654   9.686  18.333  0.1290  0.0709 -0.0994
49599W        W50463  15.869   0.642  22.662 -0.2244  0.1264  0.2397
49600W        W50464  23.014  10.862   2.358  0.1665  0.0161 -0.0981
49601W        W50465   9.399  27.390  18.297  0.0004  0.1211  0.0083
49602W        W50466   3.176  21.871  10.978 -0.3027  0.1849  0.0184
49603W        W50467   4.164  22.678   0.542  0.0947 -0.4292  0.1694
49604W        W50468   7.482   4.747   6.740 -0.0432  0.2137  0.0269
49605W        W50469  23.018  14.030  11.179 -0.0270 -0.0580  0.1475
49606W        W50470  18.198  18.344  10.092 -0.3169 -0.2276  0.2069
49607W        W50471  28.517  20.127  21.060  0.1360 -0.0266  0.0199
49608W        W50472   9.299  26.183   3.525 -0.1321 -0.2121 -0.0542
49609W        W50473  10.407   7.694  19.129 -0.0049 -0.0109  0.2042
49610W        W50474  23.932   2.771  18.700 -0.1313  0.0498  0.1793
49611W        W50475  24.511  17.702  18.387 -0.2917  0.0786 -0.1372
49612W        W50476  24.943  17.870  18.651  0.0128 -0.0759  0.3344
49613W        W50477  19.475   7.419  23.767  0.3883  0.0490  0.0017
49614W        W50478  20.891  28.770  13.725 -0.2281  0.0331 -0.0405
49615W        W50479  25.231  26.554  15.549  0.1312 -0.2195 -0.0547
49616W        W50480  21.059  11.676  12.759  0.4186 -0.0164  0.4220
49617W        W50481  17.017   2.023  13.741 -0.1359 -0.0700 -0.2620
49618W        W50482   4.383   0.364  22.161 -0.3071 -0.1748  0.1479
49619W        W50483  27.388  14.730  12.328 -0.0328  0.1923 -0.2991
49620W        W50484  10.199  17.050  19.292  0.1152 -0.3276  0.0248
49621W        W50485   8.525   7.211  25.459  0.5589  0.0175 -0.2684
49622W        W50486  28.767  22.664  19.272  0.0113  0.1523  0.1674
49623W        W50487   4.003  14.671   9.967 -0.1400 -0.1014  0.1679
49624W        W50488  20.036  11.953   3.365 -0.0543  0.1437 -0.2773
49625W        W50489  24.515  24.822  22.150  0.1844 -0.0170 -0.0244
49626W        W50490   1.041   6.336  14.852  0.0467 -0.1211  0.1718
49627W        W50491  14.747  27.179  24.480 -0.0584  0.0487  0.1367
49628W        W50492  27.778   3.550  22.186 -0.2447  0.3663 -0.3060
49629W        W50493  16.243  14.156  18.150  0.2683 -0.4273  0.0296
49630W        W50494   4.582   2.415  25.426  0.2033 -0.0883  0.3632
49631W        W50495   7.739  27.602   6.394  0.1116 -0.2383 -0.0992
49632W        W50496  18.659  12.690  25.549 -0.2619 -0.1343 -0.2093
49633W        W50497   2.386  27.564   7.612 -0.0880  0.1413  0.0827
49634W        W50498   2.416  23.903  16.309  0.0309  0.1110  0.1278
49635W        W50499   2.366   3.371   5.441 -0.0523  0.1469 -0.0956
49636W        W50500  25.911  12.735  17.708  0.0580  0.0600 -0.2164
49637W        W50501   8.240  18.479  16.950  0.0897 -0.1889  0.3063
49638W        W50502   3.790  28.571  26.014 -0.2466  0.1072  0.3079
49639W        W50503  13.825  12.201  26.583 -0.1836 -0.2225 -0.0977
49640W        W50504  12.723  23.105  26.092 -0.3625  0.0824  0.1164
49641W        W50505   8.818  15.083  18.230 -0.1320  0.1125  0.3869
49642W        W50506  13.012   1.465  16.175  0.0887  0.3300  0.1186
49643W        W50507  13.986  15.774  21.564 -0.2599 -0.0138  0.1008
49644W        W50508  19.944   7.185  10.677  0.1325  0.0000  0.1106
49645W        W50509  17.017  17.256  22.450 -0.1835  0.0190 -0.2384
49646W        W50510  27.687  19.235  24.227  0.1131 -0.1912  0.1343
49647W        W50511  18.270  24.937  20.968  0.2922 -0.2292 -0.0092
49648W        W50512  11.477  18.363   5.073  0.1588 -0.3054  0.0640
49649W        W50513  12.803   6.338  13.406  0.1489  0.0315 -0.1745
49650W        W50514   3.140  11.444  18.067  0.1643  0.2413 -0.1868
49651W        W50515  11.144  23.389  21.902  0.1468  0.1718 -0.1693
49652W        W50516  18.397   9.278  21.021 -0.2351  0.1576  0.0047
49653W        W50517  25.634   4.000  24.414 -0.2059 -0.1333 -0.5278
49654W        W50518  20.357   5.302  18.870 -0.0068 -0.0850  0.0963
49655W        W50519  13.549  16.198  24.620  0.1197  0.1514  0.2276
49656W        W50520  11.441  11.918  16.153 -0.4718 -0.1496  0.0475
49657W        W50521  17.390  13.585  21.429  0.0528  0.2297 -0.2884
49658W        W50522   5.937   2.506  11.730  0.0491 -0.1097  0.1908
49659W        W50523   2.396   1.143  16.712  0.0238 -0.2640  0.4901
49660W        W50524  16.384  12.860  22.038  0.1577 -0.3115 -0.2893
49661W        W50525  16.506   2.370  16.077  0.3251 -0.5420 -0.1817
49662W        W50526  26.137  25.717  28.337  0.0177  0.0154 -0.1808
49663W        W50527  18.426  17.360   5.518  0.0487 -0.0179  0.0046
49664W        W50528  10.876  24.489  19.771 -0.0397 -0.3760  0.1313
49665W        W50529   2.214  24.087  19.861  0.3775 -0.1698 -0.0923
49666W        W50530  22.377   6.781   7.635  0.1134 -0.1237  0.2058
49667W        W50531  22.118   1.701  20.643 -0.3458 -0.2941  0.2291
49668W        W50532  12.764   0.947  25.579  0.2337 -0.1314 -0.0243
49669W        W50533  10.610  28.161  24.547 -0.0599 -0.2040 -0.0865
49670W        W50534  25.163   8.852  26.653  0.0993 -0.2027 -0.0100
49671W        W50535  12.851   2.570   5.087  0.0969  0.1086 -0.1789
49672W        W50536   8.630   8.247   7.189  0.1398 -0.2488  0.0945
49673W        W50537   4.779  25.328  13.377 -0.5048  0.1489 -0.2488
49674W        W50538  28.358   9.582  15.740  0.0044  0.0875 -0.4091
49675W        W50539  26.825   1.715  29.056 -0.1267 -0.2161  0.1093
49676W        W50540  20.808  10.094  15.605 -0.1368 -0.0587 -0.2409
49677W        W50541   8.412  18.767  12.619  0.2528 -0.3437 -0.2070
49678W        W50542   2.823  13.885   9.854  0.5203  0.4755 -0.2258
49679W        W50543  11.504  28.251  17.002  0.0107  0.2924  0.0798
49680W        W50544  22.219   5.228  13.668 -0.0467  0.2863  0.0016
49681W        W50545   7.143  20.220   7.158 -0.0074 -0.2171  0.1679
49682W        W50546  19.283  13.258  24.289 -0.1261  0.2842  0.0140
49683W        W50547  18.922  15.867  17.624 -0.1735 -0.0907  0.3958
49684W        W50548  28.498  22.201  12.492  0.1088  0.1358  0.0937
49685W        W50549  20.331  16.528  12.821  0.3654  0.0998  0.1452
49686W        W50550   3.430  20.524  13.500  0.1451 -0.0024 -0.2077
49687W        W50551  21.870   8.824  21.277  0.1454  0.0918  0.4756
49688W        W50552  22.373  16.476  16.893  0.0059  0.3533  0.0038
49689W        W50553  11.445   1.028  20.005 -0.0934 -0.2184  0.2210
49690W        W50554  15.783   0.293  25.358  0.0990 -0.0140  0.1753
49691W        W50555   3.490   2.723  19.698 -0.2023  0.0740 -0.1001
49692W        W50556   0.806   3.247  26.955  0.1515  0.1077 -0.0029
49693W        W50557   4.862   6.966  11.025 -0.0268 -0.1356 -0.4457
49694W        W50558   5.309  16.718   1.696 -0.1948  0.1921  0.4395
49695W        W50559  15.571  24.326  15.763  0.0086  0.1913  0.0310
49696W        W50560   6.445  23.373   2.896 -0.1442  0.1684  0.1955
49697W        W50561  18.391   0.333   3.184 -0.1331  0.0984  0.1950
49698W        W50562  24.469   6.887  19.791 -0.0655  0.4207  0.2535
49699W        W50563  24.031   2.136   0.184  0.1156  0.2475 -0.0021
49700W        W50564  11.609  21.759   8.325  0.1353  0.0598 -0.0085
49701W        W50565  12.810  24.280  19.796  0.3620  0.0428  0.0663
49702W        W50566   9.238  20.260   4.977  0.0186 -0.0414  0.1490
49703W        W50567  13.879   5.736  13.587 -0.2409  0.0073  0.0158
49704W        W50568   1.225  25.799  25.896 -0.0914 -0.1073  0.1581
49705W        W50569   1.155   2.898   0.947 -0.1103  0.2445 -0.2337
49706W        W50570  19.513  21.707  20.342 -0.0547  0.4297  0.3892
49707W        W50571  19.412   0.877  16.365 -0.0767 -0.0833  0.1289
49708W        W50572  13.321   9.090  24.446  0.1627  0.0209  0.2527
49709W        W50573  24.123   1.740  20.971 -0.0379  0.0791 -0.0418
49710W        W50574  12.681  25.967  24.888 -0.3828  0.2602 -0.2190
49711W        W50575  19.530  24.355   1.971  0.3213 -0.4878  0.2106
49712W        W50576  13.303   5.651  21.517 -0.0197  0.2679  0.3560
49713W        W50577   8.785  25.698  18.378 -0.0547 -0.3681 -0.4441
49714W        W50578  19.862  11.356   4.100  0.0469 -0.1226  0.1361
49715W        W50579  21.190  22.575  28.102  0.0222 -0.1366 -0.2494
49716W        W50580  27.901  28.820  25.464 -0.1807  0.0373  0.1046
49717W        W50581  18.684  26.592  19.072  0.1129  0.1070  0.1460
49718W        W50582  24.205  15.413  13.537  0.0556 -0.0989  0.0137
49719W        W50583  18.143  18.562  23.553 -0.1189  0.0181  0.0634
49720W        W50584   1.973  28.527  23.218 -0.1126 -0.0704 -0.0036
49721W        W50585  19.105  22.174  19.862 -0.0681 -0.1741 -0.2294
49722W        W50586  10.981   7.878  10.782  0.1102 -0.0311  0.3030
49723W        W50587  21.721   7.284  21.293  0.1020  0.1408 -0.0824
49724W        W50588  20.895   5.796  18.318  0.2892 -0.0868  0.2210
49725W        W50589  21.312   7.047   9.195 -0.4103 -0.0094 -0.0666
49726W        W50590  19.278   5.639   4.760 -0.0350 -0.1706  0.0227
49727W        W50591  24.015   8.907  10.496  0.2928  0.3106 -0.1016
49728W        W50592  21.312  21.922   0.118 -0.1391  0.0383  0.0328
49729W        W50593   6.202   0.743  20.025  0.3068  0.4715 -0.0136
49730W        W50594  23.858  16.810  26.902  0.1117  0.2086 -0.1246
49731W        W50595  14.648   8.093  18.208 -0.0276  0.0710  0.3034
49732W        W50596  10.881   6.323  21.688  0.3106 -0.2917  0.1610
49733W        W50597  28.250   3.389  28.714  0.2039 -0.0533 -0.2155
49734W        W50598  16.891  16.084  20.026 -0.0517  0.0534 -0.1776
49735W        W50599  14.193  29.097  15.557  0.2036  0.5290  0.0446
49736W        W50600  22.048  16.393  25.633 -0.1267 -0.1928  0.0406
49737W        W50601   2.302  14.008  28.041  0.0418 -0.0192  0.2343
49738W        W50602   9.425   5.598   9.597  0.0600  0.2598 -0.2256
49739W        W50603  15.793   3.709  19.726  0.0097 -0.0239  0.0785
49740W        W50604  10.831   7.084  20.872 -0.0578  0.0565 -0.0306
49741W        W50605  20.742  25.501   5.653 -0.0178  0.0563  0.2314
49742W        W50606  12.441  21.902  27.233  0.0666 -0.1051 -0.0531
49743W        W50607  18.230  11.045  20.897  0.2241  0.2827  0.0833
49744W        W50608  17.528  25.782   9.028 -0.1477  0.0743 -0.0964
49745W        W50609  23.213  21.054   1.607  0.1765  0.0326  0.0545
49746W        W50610  27.620   4.637   3.585  0.1138  0.1161  0.0560
49747W        W50611  24.103  26.766  19.111  0.0065 -0.2758  0.1261
49748W        W50612  27.319  10.671  23.091  0.0357 -0.3113 -0.0625
49749W        W50613  12.778  16.191  12.575 -0.0666  0.0368 -0.1450
49750W        W50614   6.824  19.968   8.818  0.5258 -0.0233 -0.0394
49751W        W50615   2.562  20.174  11.878 -0.0493  0.0877  0.1161
49752W        W50616  10.523  28.111  25.454  0.0141 -0.2251 -0.1005
49753W        W50617  22.604  28.684   6.232 -0.1980 -0.1293 -0.2073
49754W        W50618   9.675   6.314  23.276  0.0298  0.0845 -0.0205
49755W        W50619   5.458  14.943  24.052  0.1343  0.1138  0.1039
49756W        W50620  19.909  24.824  20.665 -0.0001 -0.0141  0.0620
49757W        W50621  28.189  18.270  26.160 -0.1652 -0.1003 -0.2385
49758W        W50622  26.283  28.200  14.094 -0.1211 -0.2602 -0.1201
49759W        W50623  12.707   6.705  13.810  0.3611  0.2477 -0.2006
49760W        W50624   4.643   2.350   9.329 -0.0617 -0.0251 -0.0936
49761W        W50625  10.201  24.684  23.367  0.0669  0.1780 -0.0592
49762W        W50626  24.932  15.804  21.579 -0.0696  0.1685 -0.1627
49763W        W50627  18.710  28.433  15.080  0.0517  0.0932 -0.0793
49764W        W50628  23.160  16.484   1.110  0.0335 -0.0146 -0.1222
49765W        W50629  15.546   2.665  12.305  0.1725 -0.1604 -0.2838
49766W        W50630  19.526  14.196  15.930 -0.2453 -0.0009  0.0012
49767W        W50631  25.530  21.152  22.976  0.2740 -0.0233 -0.1558
49768W        W50632  11.818  20.091  18.159 -0.1225 -0.1273 -0.1381
49769W        W50633   5.222   0.069  20.788  0.1487 -0.0416  0.1212
49770W        W50634  22.714   5.207  28.575 -0.0648  0.2518 -0.0423
49771W        W50635  16.713  29.080   7.132 -0.1035 -0.3439 -0.0047
49772W        W50636  23.797   5.922  27.094  0.0410  0.1916  0.0289
49773W        W50637  12.465  27.634  23.655 -0.0496 -0.1098 -0.0860
49774W        W50638   8.381  10.607  10.054  0.4400  0.0672 -0.1859
49775W        W50639  10.216  22.104  21.426 -0.0887  0.3851 -0.0409
49776W        W50640  25.334   0.578  17.063  0.1894  0.1646  0.2042
49777W        W50641  26.514  22.962   2.132  0.2663  0.1283 -0.0494
49778W        W50642   0.367  29.039  13.991 -0.3646  0.0965  0.1880
49779W        W50643   4.439  13.616   6.817 -0.1831  0.2682 -0.1129
49780W        W50644   0.059  18.673   3.976  0.0524 -0.0685 -0.0105
49781W        W50645  25.183  15.381   9.584 -0.1943 -0.1081  0.2293
49782W        W50646  15.563  12.979  22.732 -0.2685  0.0032  0.2585
49783W        W50647  22.020   0.257  11.198  0.3693 -0.0747 -0.2709
49784W        W50648   9.730   3.790  13.680  0.2619  0.2377  0.3882
49785W        W50649  10.712   1.150  28.054 -0.0326 -0.0716 -0.1615
49786W        W50650  23.366  27.904  24.941 -0.0280 -0.1087 -0.1793
49787W        W50651  18.664  28.484  16.466 -0.1582  0.0157  0.2055
49788W        W50652   7.358  26.573  28.869 -0.1326 -0.1572  0.1459
49789W        W50653   8.738  28.781  20.667 -0.2740  0.0701  0.0467
49790W        W50654  13.078   3.449   3.882 -0.1253 -0.1589 -0.2631
49791W        W50655  17.062  23.561  22.011 -0.1200  0.1477  0.0559
49792W        W50656  25.722  18.293  16.224  0.2343  0.0003  0.2595
49793W        W50657  27.839  14.414   9.636 -0.3469  0.0863  0.3243
49794W        W50658  27.542  25.274  21.075 -0.1113 -0.1248 -0.3822
49795W        W50659   6.885  16.896   0.744 -0.1318 -0.2314 -0.0423
49796W        W50660  14.924  28.147   3.140  0.1854 -0.0596 -0.3942
49797W        W50661  13.270  28.086  14.654  0.1985 -0.1069 -0.0206
49798W        W50662   3.910  27.480  16.108 -0.0170  0.1743  0.0123
49799W        W50663  25.302   1.100  26.790  0.1193 -0.1353  0.1916
49800W        W50664  11.745  21.127  26.785  0.1280 -0.0092 -0.1174
49801W        W50665  25.488   4.827   0.859 -0.2834 -0.0521  0.2090
49802W        W50666   7.311   9.150  10.773  0.0854  0.0639 -0.1675
49803W        W50667  11.061  24.885   2.226 -0.3154 -0.2808 -0.3096
49804W        W50668  27.699  13.797  22.806 -0.1321 -0.1379  0.0490
49805W        W50669  26.532  20.085  20.916  0.0971 -0.1973 -0.0139
49806W        W50670  25.024  10.560  21.938 -0.1788 -0.0059 -0.0618
49807W        W50671  28.251  16.581  17.244  0.1465 -0.0540 -0.1349
49808W        W50672  26.994  13.599  21.828 -0.2828 -0.0246  0.3271
49809W        W50673   3.416  12.031  11.251 -0.0540 -0.0815 -0.3203
49810W        W50674  22.981  23.713  23.011  0.1743 -0.1365 -0.1067
49811W        W50675  19.567  21.729   8.375 -0.1682  0.0449  0.0288
49812W        W50676   9.927  21.922  28.516 -0.0480  0.2616  0.1906
49813W        W50677  23.454  17.047  18.577  0.0414  0.3878  0.0682
49814W        W50678   7.716  25.229  19.156  0.0275  0.0089 -0.0244
49815W        W50679  18.791  24.780  10.272  0.5222 -0.1687  0.0220
49816W        W50680   6.580  22.440  14.650  0.0083  0.1875  0.2635
49817W        W50681   4.158   2.251   8.644 -0.0115  0.1183 -0.1746
49818W        W50682  13.321  20.803   0.040  0.3587 -0.1599  0.0264
49819W        W50683  17.818   6.543  23.952 -0.1037 -0.0257  0.2012
49820W        W50684  17.517   3.159  20.932 -0.1481 -0.1747  0.4674
49821W        W50685  24.195  22.864  13.659  0.0190 -0.1952  0.2222
49822W        W50686  25.986   6.815  17.816  0.2758 -0.2322  0.3020
49823W        W50687  24.424   5.386   5.880 -0.3215  0.0406  0.2209
49824W        W50688  15.934   8.108  14.136 -0.0702  0.0876  0.1180
49825W        W50689  13.978   2.967   0.581  0.0502 -0.0746 -0.0514
49826W        W50690  23.730  21.566  24.138  0.0668  0.0107 -0.0856
49827W        W50691  26.819   6.949  17.346  0.0596 -0.1752 -0.0361
49828W        W50692   9.647  18.828   8.369  0.0445 -0.0336 -0.0606
49829W        W50693  10.876   1.619  27.796  0.1540  0.1758  0.1362
49830W        W50694   5.938  19.373   0.639 -0.0206  0.0207 -0.0069
49831W        W50695   1.109  28.596  26.320  0.3114  0.0280 -0.3175
49832W        W50696  11.704  27.180   6.970  0.3751  0.3091  0.2586
49833W        W50697  15.220  15.811  17.271  0.2849  0.2267  0.0478
49834W        W50698  26.036  15.207  10.033  0.1252  0.2705  0.2135
49835W        W50699   9.858  23.827   0.034  0.0837  0.1282 -0.0632
49836W        W50700  22.808  26.162   1.362  0.0123  0.1941  0.1147
49837W        W50701  15.983  12.623  28.986 -0.2875  0.2228 -0.0517
49838W        W50702  15.940  25.263  22.113  0.0472 -0.0152 -0.0930
49839W        W50703  19.873  13.417  14.204  0.0508 -0.0945 -0.1853
49840W        W50704   0.672  20.732  23.048  0.0343 -0.3163  0.0475
49841W        W50705  13.459  10.928  25.573 -0.2452 -0.1564  0.0467
49842W        W50706   4.983  27.235   0.002  0.1229  0.2595  0.0941
49843W        W50707  21.749  25.044  17.521 -0.1996 -0.0603  0.3353
49844W        W50708   2.953  12.927   0.580  0.0207 -0.1833  0.3402
49845W        W50709  19.727  18.863  12.204  0.2675  0.1214  0.0757
49846W        W50710  25.165  18.491  23.675 -0.1553  0.0063  0.1217
49847W        W50711  11.487  12.456   3.018  0.3721  0.1193 -0.1830
49848W        W50712  26.135   2.302  25.015 -0.0271  0.0860  0.4281
49849W        W50713  10.877  26.894  23.533 -0.2704  0.1844  0.1170
49850W        W50714  21.385  23.196  17.762  0.1244 -0.0238 -0.0450
49851W        W50715  12.881   1.898   5.143  0.0670  0.0595  0.2247
49852W        W50716  18.113  16.469  27.647 -0.1090  0.0663  0.0147
49853W        W50717   6.204  13.977   0.689 -0.1864 -0.0873 -0.1652
49854W        W50718  22.079   9.889  10.800 -0.0321  0.0415  0.1082
49855W        W50719  22.119  15.237  21.183 -0.0743  0.2825  0.0703
49856W        W50720  19.186   5.886  21.495  0.0635 -0.1728  0.0746
49857W        W50721  20.233  14.633  13.886  0.0006 -0.0778 -0.0908
49858W        W50722   7.247   5.764  25.043 -0.2139  0.1749 -0.0888
49859W        W50723  11.002  21.726   0.649  0.1071 -0.1073 -0.0213
49860W        W50724  22.806  24.063  17.959  0.1166 -0.2626  0.0161
49861W        W50725   9.838   7.457  22.331 -0.0986 -0.0512  0.1224
49862W        W50726  22.181   8.171  12.174  0.1900 -0.0769  0.0393
49863W        W50727   1.394  13.297  22.501 -0.1524 -0.1549  0.3619
49864W        W50728  19.351  20.171  25.230 -0.3255 -0.3856  0.0312
49865W        W50729  17.940  25.997  28.469  0.1559  0.1346 -0.0230
49866W        W50730   0.289  21.525  25.707  0.1087 -0.0427  0.0789
49867W        W50731  28.501   7.986   5.884 -0.0120 -0.1035 -0.1810
49868W        W50732  25.064  23.784  27.430 -0.0858 -0.0635 -0.1498
49869W        W50733   2.543  15.834  18.658 -0.2697 -0.1430 -0.0791
49870W        W50734   0.465  16.396   5.223  0.1301 -0.2118  0.3634
49871W        W50735  16.085  24.230   7.281 -0.0236  0.1032  0.2894
49872W        W50736  13.434  26.772  10.491  0.0695  0.0075 -0.0009
49873W        W50737   8.890   6.036  22.595 -0.0272  0.1769 -0.0775
49874W        W50738  16.845  11.009   1.059  0.0026  0.0302 -0.0870
49875W        W50739  17.418  22.628  21.579  0.0708 -0.1094  0.0475
49876W        W50740  15.661  17.422  10.521  0.2496  0.6900 -0.0650
49877W        W50741   5.258  11.925  13.213  0.0144 -0.1784 -0.3851
49878W        W50742  16.571   9.392  21.259  0.2505  0.2390  0.0912
49879W        W50743  23.632  21.106  22.591 -0.1031 -0.1156  0.1247
49880W        W50744  25.288   4.026   3.035  0.1716 -0.0871 -0.2175
49881W        W50745  12.111  27.600   0.695  0.5635  0.1961 -0.2528
49882W        W50746  16.582  12.428  14.494  0.2332  0.2638 -0.1970
49883W        W50747  27.523  15.058  11.006 -0.0011  0.0859 -0.1604
49884W        W50748  26.595  22.164  22.978  0.1295  0.0182  0.1528
49885W        W50749   7.446   7.721   9.308  0.1041  0.0199 -0.0927
49886W        W50750  28.585   7.693  20.565 -0.0613  0.2354  0.2752
49887W        W50751  13.410  13.008  15.124  0.2626  0.3367  0.0603
49888W        W50752  24.380  17.352  11.688  0.3342 -0.2070  0.0382
49889W        W50753   7.843  19.677  13.582 -0.2209 -0.0935  0.1314
49890W        W50754  14.324  10.285  24.288 -0.0385  0.0825  0.1090
49891W        W50755  26.296  26.922  16.631  0.2657  0.1181  0.0896
49892W        W50756  11.683  27.260  12.437 -0.2882  0.0264 -0.1112
49893W        W50757  19.672  20.882  18.075 -0.1418 -0.3071  0.1108
49894W        W50758   6.328  13.639   2.640  0.4651  0.1692  0.1004
49895W        W50759  21.258  22.370  13.199  0.2579 -0.1618 -0.1698
49896W        W50760  21.804  21.143  13.135 -0.1566 -0.0803 -0.3155
49897W        W50761  22.313  18.749  25.472  0.1095  0.1359 -0.4894
49898W        W50762  24.294   2.412   9.631  0.0081 -0.0069 -0.1216
49899W        W50763   9.260  25.085  14.628  0.4016 -0.0708  0.0178
49900W        W50764  27.613  25.299   3.452 -0.0221  0.1415 -0.2631
49901W        W50765  21.049   2.041  13.471 -0.1929 -0.2353 -0.1627
49902W        W50766   1.406   3.204   9.426 -0.3506  0.0422  0.0394
49903W        W50767   7.943  14.461  12.050 -0.1314  0.1786 -0.1962
49904W        W50768  16.086  18.956  28.399  0.3162  0.0288 -0.1518
49905W        W50769   3.250   7.578  16.141 -0.0512 -0.0862  0.1758
49906W        W50770  16.014  28.653   9.122  0.1264 -0.2829 -0.0706
49907W        W50771   1.509  18.261   2.399  0.0060 -0.1506  0.1071
49908W        W50772  16.187   1.510  17.793  0.1254  0.3314 -0.0312
49909W        W50773  11.417  19.625  22.082  0.1179 -0.1933  0.0341
49910W        W50774  13.621   0.793   7.705  0.0618 -0.0104 -0.0006
49911W        W50775   6.294  24.556  25.792  0.1198  0.0098 -0.1980
49912W        W50776   9.950  10.721  14.662  0.0339  0.1773 -0.1198
49913W        W50777  27.099  17.698  24.277  0.0113 -0.0912 -0.2412
49914W        W50778  25.812  25.311  24.593 -0.2849  0.0398 -0.1376
49915W        W50779  17.718  25.239   0.927 -0.0442  0.1658 -0.0227
49916W        W50780   8.364  15.151  23.978  0.1319 -0.0816 -0.0933
49917W        W50781  23.263  20.089  18.016  0.1361 -0.1722 -0.1592
49918W        W50782   5.958  24.785   5.432 -0.2102  0.0092  0.1201
49919W        W50783   1.614  11.009  13.834  0.2362 -0.1083  0.2408
49920W        W50784   5.172   9.343  28.080  0.0142 -0.0742  0.0734
49921W        W50785  13.445   3.266   9.289 -0.2094 -0.3740 -0.2522
49922W        W50786  15.513  13.433   3.298 -0.2879 -0.0793 -0.4398
49923W        W50787   8.441   6.197  21.205  0.3737 -0.0047 -0.0626
49924W        W50788  12.757  11.190  13.915  0.0368  0.2178  0.0329
49925W        W50789  11.438  16.118   2.827 -0.2195 -0.2994  0.1152
49926W        W50790  12.626  13.932  19.749  0.1310  0.1254  0.4610
49927W        W50791  12.248  15.454  25.665  0.0300  0.2853  0.1721
49928W        W50792   7.891  26.459   7.696 -0.0118 -0.1497  0.1932
49929W        W50793  18.233  27.072  23.959  0.2316  0.1356 -0.0626
49930W        W50794  25.835  26.609  24.398 -0.0251  0.2960  0.3583
49931W        W50795  23.547  15.241   2.244  0.2939  0.2131 -0.1791
49932W        W50796  15.417   5.809  27.290 -0.1844  0.2337 -0.0661
49933W        W50797   8.618   9.966  12.194  0.1280  0.0349  0.1633
49934W        W50798   0.426  21.130   3.715 -0.0753 -0.4620  0.2195
49935W        W50799  14.363   2.942  15.099 -0.0185  0.3240 -0.2214
49936W        W50800   9.174  17.148  13.300  0.1286  0.0288 -0.2096
49937W        W50801  22.198  13.834  21.433 -0.1382  0.1433  0.3422
49938W        W50802  23.587  24.046  15.338  0.2655 -0.2567  0.1628
49939W        W50803  19.244  24.831   9.937  0.1433  0.0970 -0.3922
49940W        W50804  12.778  16.239  21.889  0.1038 -0.1743  0.3608
49941W        W50805  10.982  25.353   0.458  0.1148 -0.5072 -0.0396
49942W        W50806  12.279  10.952  27.304  0.0530  0.2539 -0.2326
49943W        W50807   6.610  23.508  27.114  0.1461 -0.1510  0.0805
49944W        W50808   8.182   2.034   6.683 -0.0109  0.3506  0.0033
49945W        W50809  12.704  27.040  10.141 -0.1074 -0.3184  0.0499
49946W        W50810   4.854  18.739  15.020  0.0423  0.0744  0.2763
49947W        W50811  18.302  23.037  21.859 -0.0070 -0.1187 -0.0722
49948W        W50812  13.927   2.548   1.932 -0.0214 -0.1369  0.1912
49949W        W50813  23.335  29.091   4.612 -0.3371  0.2819 -0.2117
49950W        W50814  18.663  22.260  16.065  0.0253 -0.0300  0.1804
49951W        W50815   5.719  26.667  23.137  0.2303  0.2203 -0.1013
49952W        W50816  10.610   7.562  12.149  0.0018 -0.1632 -0.0491
49953W        W50817  14.040  21.439  18.587 -0.2043  0.1579 -0.0780
49954W        W50818  15.523  14.298  24.940 -0.2686 -0.0936  0.0937
49955W        W50819   2.273   3.022   2.526 -0.1378  0.1320 -0.2157
49956W        W50820  26.307  26.383   1.202 -0.1523  0.0370  0.0379
49957W        W50821  21.730   9.171  27.394 -0.3818 -0.2996 -0.3478
49958W        W50822   1.704   2.043  19.835 -0.1150 -0.1522 -0.1414
49959W        W50823   0.963   5.534   2.453  0.0269 -0.0010  0.3126
49960W        W50824   1.790  11.105  21.572 -0.0799 -0.0441  0.0321
49961W        W50825  17.759  12.450   8.474  0.5026  0.0633  0.3089
49962W        W50826  25.134  14.359   4.897 -0.1779 -0.3316  0.1253
49963W        W50827   3.748  15.406   9.022  0.3546  0.0091  0.3245
49964W        W50828  12.853   0.764  24.195  0.0606  0.0888 -0.1426
49965W        W50829  26.853  19.406   4.497  0.1100  0.0942  0.1460
49966W        W50830  27.717   7.396  19.597 -0.1793  0.0403 -0.0087
49967W        W50831   1.543  14.431  21.600  0.1558 -0.2969 -0.4209
49968W        W50832  10.770  25.918   6.705  0.1493 -0.0403  0.2435
49969W        W50833   5.032  11.323  28.115  0.1417 -0.0126  0.1240
49970W        W50834  19.770   3.973   0.206 -0.0350 -0.4431 -0.1126
49971W        W50835  13.272  14.343   1.800  0.0404  0.1313  0.3569
49972W        W50836  14.499  21.077   4.198 -0.1717  0.2575  0.0152
49973W        W50837  18.833   8.732  18.532 -0.0666 -0.2062 -0.0604
49974W        W50838  22.040  18.359   2.684  0.2301 -0.1932 -0.0113
49975W        W50839  25.814  15.998  15.524  0.1682 -0.2045 -0.2452
49976W        W50840  12.827   0.610  19.833  0.0785 -0.4110  0.0090
49977W        W50841  13.884  18.208  26.029 -0.0986 -0.2117 -0.1439
49978W        W50842  18.814  11.337   2.730  0.3520  0.1769 -0.1324
49979W        W50843  16.187  11.221   0.391 -0.2261 -0.1041 -0.1372
49980W        W50844  17.581  26.361   0.448 -0.0305 -0.0501 -0.0157
49981W        W50845   3.976  23.969   7.297  0.0532 -0.1153 -0.0123
49982W        W50846  26.688  26.986  21.958 -0.1715  0.0628 -0.0234
49983W        W50847  17.487  27.899  28.980  0.0374  0.0668 -0.0134
49984W        W50848   1.779  22.170   9.515  0.2405 -0.2374 -0.2822
49985W        W50849  11.128   4.383  26.440 -0.0262  0.0874  0.3928
49986W        W50850  21.038   1.487   7.183 -0.3764  0.0456 -0.0930
49987W        W50851  17.578  22.602   6.661 -0.1728  0.1166  0.2698
49988W        W50852   4.237  12.643   1.017 -0.3372  0.2763  0.5305
49989W        W50853  18.535   2.355  20.538 -0.2348  0.1586  0.0145
49990W        W50854  12.733  16.651   3.005 -0.3023 -0.0928 -0.2082
49991W        W50855  24.417  28.691  20.490 -0.0052 -0.2152 -0.1405
49992W        W50856  18.997   9.297  20.705  0.2432 -0.0744 -0.0458
49993W        W50857  15.699  21.628  28.640  0.0720  0.0656  0.0752
49994W        W50858  14.330  24.463   7.433  0.1420 -0.1099 -0.2305
49995W        W50859  25.761  14.580  27.870  0.0447 -0.0742  0.1839
49996W        W50860  20.229  14.715  25.548  0.0701  0.1977 -0.2175
49997W        W50861  28.946  21.754  16.472 -0.0053 -0.3326 -0.3605
49998W        W50862  25.524  26.831  19.489 -0.0402 -0.0467 -0.2685
49999W        W50863  12.293  28.566  12.360  0.2127  0.0045 -0.0756
50000W        W50864  24.203   9.585   3.651  0.2387  0.4125 -0.2474
50001W        W50865   8.837   1.677   8.963  0.0564  0.3575 -0.3523
50002W        W50866  19.140  19.607  22.886 -0.2482  0.1652 -0.1679
50003W        W50867  24.758  14.874   2.843  0.3307  0.1210 -0.2082
50004W        W50868  21.111  24.660   4.701  0.0415  0.3160 -0.0416
50005W        W50869  22.990  21.460  16.346  0.1457 -0.1782  0.3037
50006W        W50870  28.477  25.348  24.579 -0.0137  0.1638  0.0765
50007W        W50871  16.513  24.843  17.102  0.0202  0.3050  0.5625
50008W        W50872   9.647  27.345   6.027  0.3875 -0.2198  0.0289
50009W        W50873  29.097  24.249   1.747 -0.1892  0.0688  0.0107
50010W        W50874   6.653  19.545  15.720 -0.2104 -0.0006 -0.0489
50011W        W50875  28.814   5.446  26.851 -0.1205  0.2266  0.0462
50012W        W50876  15.863  23.644  21.451  0.2001  0.3827  0.0547
50013W        W50877   9.163  22.430   2.982  0.0163  0.0604 -0.2832
50014W        W50878  18.999  27.148  16.476  0.1205 -0.1689  0.0622
50015W        W50879   4.034  22.011  16.977 -0.1252 -0.1649 -0.4067
50016W        W50880  22.868  24.982   7.622  0.1830 -0.1162 -0.1464
50017W        W50881  13.424  15.722  20.321  0.0113  0.1528 -0.0463
50018W        W50882  21.260   5.930   8.131  0.1152  0.2672  0.2943
50019W        W50883  29.026  22.829   2.715 -0.1267  0.0097  0.3935
50020W        W50884   4.081  19.132  24.405  0.2697 -0.2483  0.0405
50021W        W50885   8.762  12.966  27.144  0.1697  0.1610 -0.1428
50022W        W50886  25.775  11.894  13.879  0.1129 -0.1222 -0.1082
50023W        W50887  10.259  28.653  28.878  0.1077  0.1708 -0.0212
50024W        W50888  26.062   2.447  16.356 -0.1617  0.2595 -0.1193
50025W        W50889  12.669  25.503   3.063 -0.1290  0.0813 -0.2882
50026W        W50890  23.242  17.420   0.840  0.0043  0.0922 -0.1220
50027W        W50891  13.355   7.611   1.437  0.0450  0.1199 -0.1640
50028W        W50892   9.006  23.602  23.758  0.0239 -0.2167 -0.2895
50029W        W50893  22.636  11.644   8.044 -0.1144 -0.1375  0.0033
50030W        W50894  17.870  10.247  20.281 -0.0273 -0.1316  0.3873
50031W        W50895   8.056  21.439  20.966 -0.1601 -0.0105  0.1138
50032W        W50896  26.305  28.339  26.704 -0.2457  0.0710  0.2789
50033W        W50897  12.978  17.874  23.172 -0.0723  0.3196  0.0727
50034W        W50898  19.549  16.568   2.944 -0.1665 -0.0418 -0.0097
50035W        W50899  26.252  20.747  11.902 -0.2348 -0.0189 -0.2949
50036W        W50900  15.672  15.967  17.358  0.1009 -0.2924 -0.2443
50037W        W50901  18.800  24.992   2.050 -0.1720 -0.0337  0.0124
50038W        W50902  25.266   9.104  28.420 -0.1929 -0.1518  0.2800
50039W        W50903  25.513  26.095  20.573  0.0224 -0.0531  0.0040
50040W        W50904  22.783  25.135   1.106 -0.2863 -0.1404 -0.0055
50041W        W50905  16.536  25.125   5.769  0.1192  0.0893 -0.2375
50042W        W50906  20.738  28.566  21.433 -0.1652 -0.2165 -0.1406
50043W        W50907   1.292  15.177  26.492 -0.0437  0.4019 -0.1302
50044W        W50908  19.954  21.720  10.246  0.0102  0.0156 -0.0784
50045W        W50909   3.883   7.515  20.953  0.0308  0.0108 -0.0513
50046W        W50910  22.592  27.200  27.891  0.0455 -0.1509  0.2360
50047W        W50911  18.889  27.035  15.581  0.3133 -0.1233 -0.1563
50048W        W50912   8.053  25.351   3.089  0.0668 -0.0721 -0.1327
50049W        W50913  22.980   4.190   0.002  0.2099 -0.0157 -0.0405
50050W        W50914   3.849  23.645   5.921 -0.2360  0.1498  0.1286
50051W        W50915  10.809   2.229   4.817 -0.1569  0.0069 -0.0606
50052W        W50916  14.855  11.693   1.229 -0.0060  0.1458 -0.3098
50053W        W50917  23.709   7.718  22.227 -0.0575 -0.1890 -0.0829
50054W        W50918  19.654   0.395   4.278  0.1677 -0.2712  0.0798
50055W        W50919  19.386  27.736  15.785 -0.0569  0.0705  0.1682
50056W        W50920  16.972  26.227  25.939  0.2125  0.0378  0.1272
50057W        W50921  22.853  18.627  19.433 -0.1051 -0.0969  0.0959
50058W        W50922  18.350   1.207  16.023 -0.0179 -0.0157  0.0284
50059W        W50923  14.703   1.661  13.229  0.4661 -0.2566  0.1684
50060W        W50924  27.511  27.808   1.354 -0.2888  0.2075 -0.0917
50061W        W50925  21.880   4.659  27.905  0.3111 -0.1636  0.1670
50062W        W50926  29.040   5.228  15.433  0.2614  0.1008  0.0017
50063W        W50927  20.114  28.786  10.299  0.1937 -0.0880 -0.0148
50064W        W50928  16.729  28.758  20.704  0.0510 -0.1244  0.1347
50065W        W50929  22.589  12.660  26.842 -0.1052 -0.1164 -0.0467
50066W        W50930  21.510  14.349  18.703 -0.0807  0.1238 -0.0585
50067W        W50931  15.801  28.445   5.911  0.0471 -0.2287  0.0531
50068W        W50932   0.813  18.393  27.628  0.2050 -0.3580 -0.2379
50069W        W50933  21.438  13.415  19.226  0.2062  0.4271 -0.1193
50070W        W50934   3.166   4.620   9.147 -0.0704 -0.0373  0.0266
50071W        W50935  27.912  13.002   4.135 -0.0216  0.5889 -0.0452
50072W        W50936  18.238  23.068  13.500 -0.1169  0.2206 -0.2520
50073W        W50937  27.080   1.166   4.972 -0.1577 -0.1910 -0.2022
50074W        W50938  12.820   0.128  20.323  0.0586 -0.0586 -0.0817
50075W        W50939  17.916  21.659  10.871  0.1956 -0.1219  0.1316
50076W        W50940   3.979   0.328  25.777 -0.3674  0.0510  0.3093
50077W        W50941   9.270  27.549   1.176 -0.1342  0.1132  0.1954
50078W        W50942  16.216  27.746  24.565 -0.1400  0.1564 -0.4225
50079W        W50943  25.067  26.023  26.215  0.1472 -0.1043 -0.1637
50080W        W50944  26.962  13.882  16.654 -0.0877 -0.1781 -0.3176
50081W        W50945  22.209   7.561   6.851 -0.1435  0.0788  0.2860
50082W        W50946  10.053  18.412   0.971 -0.0293 -0.0919 -0.1886
50083W        W50947  18.332  28.902  15.010  0.1726 -0.0529  0.0783
50084W        W50948   8.707  15.185  16.419  0.2472  0.1327 -0.1156
50085W        W50949   2.622  18.024  24.208  0.1318 -0.2069  0.0017
50086W        W50950   3.155  20.743  10.892 -0.1885 -0.2203 -0.1519
50087W        W50951  11.672  22.320   4.342  0.3121 -0.2625  0.2033
50088W        W50952  18.792   1.267  24.031 -0.1194  0.1175  0.1414
50089W        W50953  13.027   8.814  28.214 -0.0975  0.0415  0.0346
50090W        W50954  21.043   0.767  19.918  0.0363  0.0076  0.0281
50091W        W50955  14.791   8.249  21.867  0.1463 -0.2368 -0.2363
50092W        W50956  24.966   1.153  25.450 -0.0400  0.1727  0.0109
50093W        W50957   1.514  17.523  10.179  0.1946  0.5212 -0.2375
50094W        W50958  16.006  19.908  26.302 -0.1373  0.4191  0.1757
50095W        W50959  12.392  11.169  20.858  0.1495  0.2135 -0.0392
50096W        W50960  20.310  22.941   3.248  0.0865 -0.0032 -0.0911
50097W        W50961  13.707  20.962   1.444  0.1997  0.1217 -0.0875
50098W        W50962   3.656   0.526  11.973 -0.1407  0.1373  0.0198
50099W        W50963  20.804  19.564  12.457  0.1847  0.0171 -0.1745
50100W        W50964  27.600  19.969  28.656 -0.0356 -0.0920  0.2544
50101W        W50965  28.371   7.150  26.231 -0.0903 -0.1086  0.0883
50102W        W50966  12.409  17.073  17.869 -0.0574 -0.2044  0.2130
50103W        W50967  27.385  12.338  26.462 -0.2699 -0.0258  0.0243
50104W        W50968  17.436  12.509   4.729  0.0757 -0.0272 -0.1302
50105W        W50969  21.102  11.321   7.578  0.2073 -0.2390 -0.0042
50106W        W50970  14.321  20.466   7.197  0.0702  0.0790  0.1721
50107W        W50971   8.609  13.557  28.108  0.1945 -0.0632  0.4774
50108W        W50972  27.272  15.302  19.370  0.2157 -0.1677  0.2457
50109W        W50973  13.897  23.666   1.708  0.2950 -0.0975  0.0315
50110W        W50974  10.008  15.256  28.507  0.2384  0.1102 -0.2093
50111W        W50975   6.290   9.137  26.264 -0.0035 -0.1194  0.1361
50112W        W50976   5.786   5.943   4.366 -0.1212 -0.4163 -0.0239
50113W        W50977  18.800  25.097  22.738 -0.0838 -0.2204 -0.2268
50114W        W50978  17.523   5.873  21.210 -0.0138 -0.0125  0.0903
50115W        W50979  11.385  11.369  26.453 -0.0222 -0.2048  0.5703
50116W        W50980  12.332  22.198  21.451 -0.2398 -0.0721 -0.0128
50117W        W50981   4.775  18.736   6.243 -0.3425 -0.1842 -0.1189
50118W        W50982  19.195  27.535  24.965  0.0080  0.0282 -0.2102
50119W        W50983  18.258  11.275  16.276 -0.3996 -0.1355 -0.1540
50120W        W50984  11.734  26.632  21.440  0.1074  0.1348  0.0719
50121W        W50985  14.514  20.893  23.398  0.2173 -0.1263 -0.0976
50122W        W50986  19.622  13.653   2.191  0.2003  0.0124 -0.1624
50123W        W50987  25.438   1.560   3.225 -0.3685  0.0940 -0.1679
50124W        W50988   2.033  23.066  25.982  0.0340  0.0576 -0.3611
50125W        W50989  23.937  28.516  10.625 -0.2715 -0.0126  0.0341
50126W        W50990   4.417  23.453  12.961 -0.2585  0.3009  0.1187
50127W        W50991  12.322   1.694  25.499 -0.0668 -0.0373  0.0468
50128W        W50992  21.961  21.165  25.850  0.1108  0.2447  0.2745
50129W        W50993  14.605  24.453   5.054 -0.0283  0.0871  0.0359
50130W        W50994  15.815   2.841  16.735  0.0641  0.0803 -0.1875
50131W        W50995  17.350   3.369   2.009  0.0542 -0.2271 -0.3958
50132W        W50996  28.369  28.306  27.317  0.0102  0.2510 -0.0434
50133W        W50997   5.236  26.856  19.336 -0.0585  0.3732 -0.0087
50134W        W50998   7.090  14.438  26.622 -0.2189 -0.0204  0.0992
50135W        W50999  22.983   3.050  23.511  0.0969 -0.2961  0.1131
50136W        W51000  13.136  14.940  23.616  0.3666 -0.1811  0.0112
50137W        W51001   9.121   0.987   9.416  0.2353  0.0646  0.0849
50138W        W51002  13.731   4.869  13.860 -0.0360 -0.1688 -0.0200
50139W        W51003  19.992  24.058  28.678 -0.1337 -0.2155  0.0069
50140W        W51004   0.096   6.643   7.744  0.0524  0.2344  0.1309
50141W        W51005  20.834   6.868  17.089 -0.1287  0.1064  0.0259
50142W        W51006   3.638  23.204  13.919 -0.1915  0.2443  0.3014
50143W        W51007   1.823  28.587  18.993  0.1532 -0.1495  0.2138
50144W        W51008  18.823  11.726   4.230  0.1673  0.0829 -0.4317
50145W        W51009  22.039   3.022   7.557 -0.1485  0.1014  0.0432
50146W        W51010  13.059  21.359  16.518  0.0719 -0.3448 -0.2625
50147W        W51011  20.944  16.003  17.657 -0.1446 -0.3474  0.0249
50148W        W51012  25.978  25.365   3.897 -0.0616  0.2251  0.0854
50149W        W51013   8.450  28.581  25.112 -0.1892  0.1185  0.1672
50150W        W51014  22.770   0.918   8.237  0.0839  0.1932 -0.2112
50151W        W51015  17.994  10.191   3.931 -0.3689  0.1087 -0.0312
50152W        W51016  12.063  19.039  24.780 -0.0426 -0.1969 -0.0178
50153W        W51017  15.966  12.264  26.561 -0.0743  0.3607  0.0054
50154W        W51018   5.189   4.885  29.105  0.2000 -0.2815  0.3336
50155W        W51019  18.418  23.791  23.459 -0.2573 -0.0026  0.2264
50156W        W51020  15.757  20.317  26.249 -0.2868 -0.1847 -0.0937
50157W        W51021  11.924  17.925   2.144  0.1655 -0.1635 -0.0139
50158W        W51022  20.510  23.672  23.564  0.0947  0.0038 -0.0111
50159W        W51023  16.659  14.229   4.519  0.0320  0.3397  0.1825
50160W        W51024   3.352  13.688  23.209 -0.1553  0.0126 -0.0937
50161W        W51025   2.428  22.021  27.378  0.0477  0.0146  0.0193
50162W        W51026  28.278  11.887  14.656 -0.2592  0.0999  0.2159
50163W        W51027  24.155   4.328   3.505 -0.0759  0.1270  0.1763
50164W        W51028  12.071   3.158  28.196 -0.1039 -0.0729  0.2604
50165W        W51029  20.365  23.828  18.571  0.4237  0.0051 -0.1084
50166W        W51030  22.800  21.266  16.780  0.2309 -0.1680  0.0594
50167W        W51031  19.293   0.245  11.380  0.0289 -0.5149  0.0061
50168W        W51032  18.922   5.246  28.791  0.0009  0.2063 -0.2924
50169W        W51033  25.304  27.634   9.515  0.2026  0.0659 -0.0330
50170W        W51034  10.091   8.116  25.418 -0.0166  0.0328 -0.3758
50171W        W51035  18.735  24.982   1.150  0.0441 -0.2264  0.0166
50172W        W51036  24.486  18.477  17.472 -0.0534 -0.2427  0.1069
50173W        W51037  14.358  20.383  17.835  0.1483  0.2817 -0.0094
50174W        W51038  28.145   6.560   9.650 -0.0313 -0.1633 -0.0858
50175W        W51039  24.471  15.858  12.909  0.2681  0.1199  0.1779
50176W        W51040  15.999   4.295   8.605  0.0994 -0.0836  0.3652
50177W        W51041   7.833  25.014   6.397  0.0487  0.3428  0.0713
50178W        W51042   8.647  26.953  15.832 -0.2045 -0.0975  0.2723
50179W        W51043  14.013  19.654  18.669 -0.1983  0.1176 -0.0783
50180W        W51044  19.142  24.950  26.335  0.0671 -0.0975  0.0854
50181W        W51045  12.767  15.314  27.422 -0.0972 -0.0882  0.2081
50182W        W51046  29.076   4.358  22.655  0.0529  0.3118  0.1852
50183W        W51047  17.233  13.719   1.856 -0.1525 -0.2175  0.2576
50184W        W51048   8.684  13.124  28.386  0.1458 -0.0355  0.1654
50185W        W51049  21.575  18.727  20.737  0.0269  0.1270  0.3366
50186W        W51050   3.609  20.863   2.404 -0.0353  0.0654  0.0863
50187W        W51051   2.486  27.225   4.898  0.0073  0.0916  0.0840
50188W        W51052  19.512   5.975  17.863 -0.1003 -0.1440 -0.1186
50189W        W51053   3.773  13.148  20.785 -0.4460 -0.0166  0.0785
50190W        W51054   5.284   6.086   5.031 -0.1839  0.1376 -0.0697
50191W        W51055  21.675   6.004  20.668  0.3937  0.2372  0.0966
50192W        W51056  16.863  22.889   3.040  0.0906  0.0290 -0.1816
50193W        W51057  22.796   2.228   6.250  0.2810  0.1091 -0.0507
50194W        W51058   9.024  15.168  22.720 -0.2131  0.3312 -0.3696
50195W        W51059   9.885   6.899   2.478 -0.0419  0.0950 -0.0468
50196W        W51060  18.567  12.394  28.846  0.0748  0.2089  0.1794
50197W        W51061   1.938  21.704  13.678  0.1165  0.1408  0.2064
50198W        W51062   4.189  27.047   4.122 -0.1674  0.0858 -0.1827
50199W        W51063   5.699   6.692  28.610 -0.1812 -0.0510  0.0570
50200W        W51064  25.971   9.687  15.975  0.1942  0.2037  0.0806
50201W        W51065  24.493  24.011  28.120  0.1257  0.4317 -0.1879
50202W        W51066  21.472  20.054   2.809  0.0023 -0.1184 -0.2789
50203W        W51067  20.133   3.389   1.304 -0.2875 -0.0947 -0.2275
50204W        W51068  17.630  26.450  15.462  0.3015  0.2067 -0.1715
50205W        W51069  28.416   0.699  18.491  0.1452 -0.2485 -0.2631
50206W        W51070   4.645   6.459  20.721 -0.3075  0.1520 -0.3183
50207W        W51071  24.354  14.176   3.448 -0.1982 -0.0678 -0.0535
50208W        W51072   2.944  19.452  17.841 -0.2875 -0.1188  0.0188
50209W        W51073   4.531  19.903  15.758 -0.0071 -0.1910  0.1787
50210W        W51074  25.626   2.228  16.156  0.1875  0.0987 -0.1512
50211W        W51075  12.067  24.773   4.649  0.0780  0.2001  0.0917
50212W        W51076   9.239  25.476  18.422  0.0076  0.2638 -0.3845
50213W        W51077   6.559   0.408  24.187 -0.1558  0.2208 -0.0552
50214W        W51078   4.181   5.184   6.489 -0.1385 -0.1015  0.3291
50215W        W51079   6.047  16.735  24.993 -0.1364 -0.1194  0.2083
50216W        W51080  20.359  12.504  26.531 -0.1496 -0.0003 -0.0750
50217W        W51081   1.964   8.503   8.344 -0.4452 -0.2361  0.2062
50218W        W51082  27.979  18.320  24.660  0.1815  0.0521 -0.1266
50219W        W51083   8.630   1.262   9.276 -0.1421 -0.4184  0.0311
50220W        W51084  26.645  20.540  22.086 -0.1978  0.1404 -0.0085
50221W        W51085  21.371  19.086   5.151  0.3279 -0.0054 -0.0789
50222W        W51086  13.197  17.973  23.918 -0.0913  0.1576 -0.1451
50223W        W51087  19.154   1.249   0.543  0.3668  0.4498  0.1009
50224W        W51088  13.748  19.556   5.716 -0.0588  0.1297 -0.0347
50225W        W51089  19.573   3.536   0.528  0.2140  0.1359  0.0484
50226W        W51090   9.401  20.830  16.573 -0.3441  0.0879  0.1133
50227W        W51091  22.433   4.727  24.088 -0.0146 -0.1632  0.0901
50228W        W51092   4.427   0.483  26.116 -0.1118  0.3243 -0.2215
50229W        W51093   4.200  24.322  17.947  0.0497 -0.1922 -0.0583
50230W        W51094  13.184  22.284  11.223 -0.2691  0.0473  0.1282
50231W        W51095  10.892  26.897   5.817 -0.1806  0.0334 -0.0045
50232W        W51096   1.433  19.305  26.744 -0.0064  0.3077 -0.0789
50233W        W51097  22.547  26.413  18.774 -0.1346 -0.5643  0.0788
50234W        W51098  16.758   2.337   5.194 -0.0462  0.0379 -0.0020
50235W        W51099   0.637   1.549  22.911  0.0669 -0.2689  0.1428
50236W        W51100  11.910   9.528  28.392 -0.2747  0.0487  0.1133
50237W        W51101  25.457  17.299  17.530  0.2009 -0.1123  0.1333
50238W        W51102   5.339   5.595  18.133  0.0113 -0.2142 -0.1682
50239W        W51103  25.979  20.143   0.102 -0.0740  0.0805  0.0949
50240W        W51104  20.286  12.964  18.494  0.0576  0.1006 -0.2084
50241W        W51105  21.100  17.863  21.374 -0.0478 -0.0071 -0.0042
50242W        W51106  22.789  14.794   2.268  0.0064  0.1097  0.0411
50243W        W51107  16.975  22.404   0.169 -0.0389 -0.1140  0.1050
50244W        W51108  18.801  24.943  20.419  0.0807 -0.0777 -0.3030
50245W        W51109   4.696   4.473   3.748  0.0248  0.4408  0.0994
50246W        W51110  10.889  28.525   2.065  0.0429  0.2898 -0.3303
50247W        W51111   0.816  28.463   3.999  0.2130 -0.0814 -0.0032
50248W        W51112  28.318  21.615  24.167  0.0689  0.3013  0.4073
50249W        W51113  10.432  25.566  23.038  0.0419 -0.1366  0.0002
50250W        W51114  11.777  20.400   7.589  0.1532  0.1229 -0.0817
50251W        W51115  24.778  21.536  16.947  0.1153  0.0962 -0.0303
50252W        W51116   3.835   7.518  23.033  0.0057  0.2677 -0.1794
50253W        W51117  17.412  25.730   1.716 -0.0839  0.2435 -0.0925
50254W        W51118  13.447  17.167  22.802  0.2838 -0.4028  0.1413
50255W        W51119   4.477  13.597  28.683 -0.0505 -0.0948  0.2247
50256W        W51120   1.860  26.882  24.316  0.2337 -0.1714 -0.0226
50257W        W51121   2.870  24.868   3.626 -0.2316  0.0402 -0.0330
50258W        W51122  25.746  12.812   5.482 -0.0223 -0.1847 -0.1160
50259W        W51123  22.017  23.611  26.727  0.0223  0.0073  0.1941
50260W        W51124   8.709  18.581  27.690  0.1457 -0.2744 -0.0592
50261W        W51125   4.006  11.735   1.882 -0.0757 -0.0062 -0.2532
50262W        W51126   9.024   8.418   2.871 -0.4171 -0.2274  0.3006
50263W        W51127  21.692  23.908  26.436  0.0308 -0.0342 -0.3342
50264W        W51128  12.471   0.296   2.054 -0.0204 -0.2812  0.0688
50265W        W51129   9.389  27.537   8.528  0.0007 -0.0662  0.3966
50266W        W51130  24.580   1.478  27.125 -0.1941  0.1595  0.1832
50267W        W51131  21.493  27.761   4.114  0.1976 -0.3532 -0.3656
50268W        W51132  18.850   9.739  13.295 -0.1016  0.0571 -0.0649
50269W        W51133  27.219  13.381  28.109  0.1105 -0.1753 -0.3765
50270W        W51134  17.232   8.105  20.891  0.1733 -0.0746  0.0868
50271W        W51135  15.836  23.890   9.636 -0.1696 -0.0303 -0.1634
50272W        W51136  21.252   5.290  22.827  0.2030 -0.2256  0.3893
50273W        W51137   5.882  23.921   0.057 -0.0348 -0.0575 -0.2311
50274W        W51138  24.197  25.205   4.795 -0.2071  0.2086  0.2494
50275W        W51139  11.241  20.316   8.397 -0.1487  0.1229 -0.0272
50276W        W51140  20.247  16.799  26.651  0.1075 -0.1706  0.0136
50277W        W51141  20.370   4.021  27.393 -0.1341 -0.1117 -0.0345
50278W        W51142  14.508   2.764   7.583  0.1588  0.3939 -0.3096
50279W        W51143   8.574  23.627  19.464  0.0960 -0.2583  0.0838
50280W        W51144  23.778  21.919  21.118 -0.0333  0.0144 -0.1422
50281W        W51145   3.582   5.503  23.867  0.0698 -0.1227  0.1894
50282W        W51146  17.454   2.293   9.890 -0.0803 -0.1044  0.0253
50283W        W51147   8.625   9.636  24.642 -0.1245  0.1029 -0.3916
50284W        W51148  25.188  21.965   3.786 -0.0441 -0.1657  0.0324
50285W        W51149  16.236  27.298  26.852 -0.2517  0.0478 -0.1573
50286W        W51150  24.963  22.847  27.817 -0.0436 -0.3809  0.0598
50287W        W51151  12.308  22.794  21.853 -0.0790 -0.1280  0.0203
50288W        W51152   6.563  18.871  21.034  0.0361 -0.1854  0.1574
50289W        W51153  24.747  25.314  15.424  0.2104  0.1981  0.2234
50290W        W51154  24.205  18.380  24.623 -0.2450  0.0103 -0.2967
50291W        W51155  15.014  20.882  23.236  0.1626 -0.3269  0.0218
50292W        W51156  26.898  13.861   3.925 -0.0976  0.0105 -0.0433
50293W        W51157  23.064  11.968   2.991 -0.2999 -0.1613 -0.0861
50294W        W51158  12.084   7.264  24.885 -0.3780 -0.1283  0.0011
50295W        W51159  22.003  18.634   8.210 -0.2360  0.0161 -0.1409
50296W        W51160  21.810  20.064  15.092 -0.0468 -0.2853  0.0360
50297W        W51161  10.516  14.685   2.368 -0.3290 -0.3709  0.0498
50298W        W51162  12.981  25.436  11.591 -0.1306  0.0531  0.1869
50299W        W51163   9.534  25.319  24.803 -0.1575  0.0557 -0.2280
50300W        W51164   6.061  19.986  28.608  0.4877 -0.0154 -0.0223
50301W        W51165  17.944   8.267  12.340  0.2843  0.1554  0.0263
50302W        W51166   3.390  11.234   6.477  0.2490 -0.0915 -0.1637
50303W        W51167   3.645  28.115  18.510 -0.0467 -0.2447 -0.0701
50304W        W51168  13.639  12.412   2.404  0.1380  0.0443  0.0859
50305W        W51169  15.002  23.748  14.478  0.2301 -0.1125 -0.1859
50306W        W51170  19.193   5.733  12.694  0.2847 -0.0489  0.2150
50307W        W51171   2.046   6.077   5.293 -0.1029  0.2038 -0.1955
50308W        W51172  15.443   2.215   2.979  0.1089 -0.0566  0.1114
50309W        W51173  14.140  22.396  14.544  0.0096  0.2599 -0.1031
50310W        W51174   8.862  15.212  22.030 -0.3018  0.0546  0.0957
50311W        W51175  26.654  28.352   9.426  0.0950  0.0164  0.0807
50312W        W51176   2.307   9.438  17.085  0.0583  0.0656  0.1471
50313W        W51177   1.747  19.106  17.523 -0.0826  0.0118  0.1551
50314W        W51178  24.461  21.567  26.354  0.0744 -0.1570  0.0738
50315W        W51179  10.138  23.867   2.169  0.3258  0.0539 -0.0078
50316W        W51180  10.584   4.879  14.675  0.0629  0.0545  0.1593
50317W        W51181  10.023  24.067  25.071  0.2602 -0.0922  0.1774
50318W        W51182   8.138  26.400  25.974  0.0129  0.1820 -0.0730
50319W        W51183  23.111  19.054  25.143 -0.0818  0.3502  0.2426
50320W        W51184   2.225  25.257  13.737  0.4027 -0.1265  0.2996
50321W        W51185   9.221  22.894   4.158  0.0137  0.2729  0.0575
50322W        W51186  24.522  21.203   4.677 -0.1026  0.0159 -0.3825
50323W        W51187  13.375  10.716  21.004  0.2359  0.1624  0.0151
50324W        W51188  24.611  17.340   4.225  0.0783  0.0574 -0.0162
50325W        W51189   4.544  22.890  19.947 -0.0422 -0.1184 -0.0030
50326W        W51190   1.594  11.496  24.736  0.0243  0.0841  0.2195
50327W        W51191  20.316  21.873  19.954  0.0697 -0.1914 -0.2392
50328W        W51192  10.606   5.322  16.884 -0.3304 -0.3036  0.0859
50329W        W51193   3.029   0.171  11.335 -0.1054 -0.2323  0.0794
50330W        W51194  15.006  21.627  17.506 -0.1230  0.2489  0.1669
50331W        W51195  16.544   5.211   9.376 -0.0303 -0.0320 -0.2522
50332W        W51196   6.042  18.719  13.650  0.1390 -0.0492  0.3203
50333W        W51197  12.111  26.729  20.493  0.2234 -0.0933 -0.3157
50334W        W51198   3.465  21.747  22.767 -0.1633 -0.1426 -0.0654
50335W        W51199  17.774   1.129   1.728  0.0542 -0.1022  0.0821
50336W        W51200  21.092   0.882  23.885 -0.3017 -0.1577  0.3671
50337W        W51201  24.948  21.833  13.406 -0.0711 -0.1558  0.1470
50338W        W51202  20.945   7.134  11.314 -0.1533 -0.0869  0.0338
50339W        W51203  17.998   2.456   6.133 -0.1968  0.2186  0.3253
50340W        W51204  14.454   2.937  11.454 -0.0452 -0.0369  0.0555
50341W        W51205   0.308  28.148  26.980  0.2568  0.1820 -0.2654
50342W        W51206  15.168   4.670   5.027 -0.2535 -0.0129 -0.0208
50343W        W51207  19.412  16.672  22.611  0.0510 -0.1440  0.0972
50344W        W51208  17.682  25.014   4.309  0.0913  0.3569  0.0649
50345W        W51209  11.185   8.070  19.379  0.1027 -0.2104 -0.0054
50346W        W51210   2.704  14.435   3.142 -0.1788  0.2417  0.0085
50347W        W51211  13.562   9.762  25.183 -0.3543 -0.1273 -0.1164
50348W        W51212  11.495  29.030  25.262 -0.2030 -0.0340  0.2548
50349W        W51213  14.400  12.400  24.823 -0.1783 -0.0057  0.0127
50350W        W51214  13.467  25.435  28.918 -0.0880 -0.0542  0.1325
50351W        W51215   0.042   1.750  26.297 -0.1104 -0.1542  0.1769
50352W        W51216  19.626  28.916   4.366  0.1238  0.0184  0.1618
50353W        W51217  24.835  22.743   6.638 -0.3498 -0.4219  0.0673
50354W        W51218  12.857  24.336   1.636 -0.1224 -0.0010 -0.1600
50355W        W51219  24.554  23.452   6.461 -0.1925 -0.0302 -0.2303
50356W        W51220  10.978  15.187  24.981  0.5665  0.0834 -0.3177
50357W        W51221  23.000   0.129  13.851 -0.1496 -0.1449  0.3317
50358W        W51222  22.031  16.793   5.506  0.0607 -0.0748  0.1283
50359W        W51223   8.166  27.675   5.887  0.0283  0.0569 -0.0167
50360W        W51224   5.619   3.123   3.436 -0.0291  0.0680 -0.2007
50361W        W51225   2.670  15.936  20.926 -0.1627 -0.2815 -0.0480
50362W        W51226  17.686  24.068   4.016 -0.2246 -0.1069 -0.0022
50363W        W51227  25.552  25.182  11.995  0.1181 -0.1157  0.2015
50364W        W51228  24.079  23.532   7.939 -0.0261  0.1611  0.1521
50365W        W51229  25.923  17.416  26.531  0.1978 -0.0797  0.1914
50366W        W51230  23.360  28.235  13.178  0.0845  0.0250  0.0107
50367W        W51231  28.962  18.101   7.596 -0.1196  0.5355  0.0028
50368W        W51232  21.776   9.951  24.904 -0.0629 -0.0491 -0.5736
50369W        W51233   6.002  14.663  15.675  0.0062 -0.0687 -0.0344
50370W        W51234  15.847  12.628  16.160  0.0314 -0.0916  0.4528
50371W        W51235  11.486   0.621  12.375  0.2247  0.1286 -0.0130
50372W        W51236  22.001  16.449  27.047  0.0228 -0.0224 -0.1608
50373W        W51237   2.966  19.246  24.830  0.2889 -0.0148 -0.3164
50374W        W51238  27.159  22.593  24.808  0.1048  0.2300 -0.0624
50375W        W51239  20.644  20.215   3.703  0.0452  0.0862 -0.0671
50376W        W51240  14.429  11.045   8.894  0.0751 -0.0276  0.1132
50377W        W51241  18.509  19.708  27.536  0.2707 -0.3542 -0.1454
50378W        W51242  18.723  18.033   2.566  0.0860 -0.1214 -0.0903
50379W        W51243   2.202  20.857  11.330 -0.3925  0.0936  0.1099
50380W        W51244   6.909   5.084  20.995 -0.2828 -0.1308  0.2224
50381W        W51245   6.245  25.549   5.429 -0.2204 -0.2138  0.1064
50382W        W51246  18.105   4.911  28.115  0.1641 -0.2105 -0.2543
50383W        W51247   7.055  24.787   7.545 -0.0023  0.1417  0.2535
50384W        W51248  14.512   4.227   4.052 -0.0026 -0.0735 -0.0496
50385W        W51249   8.359   8.608  25.310  0.0408  0.1903  0.0022
50386W        W51250  24.356   4.701  22.984 -0.2960  0.0865  0.1294
50387W        W51251   5.695  23.295  28.638  0.1852  0.0221  0.0876
50388W        W51252  22.734   6.494  12.372 -0.2180 -0.3661  0.1087
50389W        W51253  19.405  25.905   8.075  0.0806  0.1057 -0.4557
50390W        W51254  15.392  29.134   9.587 -0.3613  0.1094 -0.3567
50391W        W51255  21.582  28.980  13.607  0.4269 -0.0005 -0.0647
50392W        W51256  27.582   4.611  17.252 -0.1984 -0.2767  0.3889
50393W        W51257  17.201  27.662   2.291 -0.1076 -0.0731 -0.0823
50394W        W51258  22.265  17.805   3.857  0.0400 -0.0985  0.1092
50395W        W51259  13.382  13.409  10.438 -0.0786 -0.1261 -0.0700
50396W        W51260   8.294   2.503  12.440 -0.1633  0.1521 -0.0484
50397W        W51261   9.250  12.461  25.579  0.1620 -0.1504 -0.0515
50398W        W51262  23.965  27.822  23.846 -0.1166  0.1555  0.1756
50399W        W51263   5.666   4.452  10.953  0.1612 -0.0921  0.1144
50400W        W51264   2.481   4.714  18.308 -0.0703  0.1718 -0.1077
50401W        W51265   2.860  14.809  26.074  0.0293  0.0207 -0.2474
50402W        W51266  18.594  24.151   0.811  0.0278 -0.1068 -0.2345
50403W        W51267  23.786  18.299   0.991 -0.0305  0.0094  0.1626
50404W        W51268  21.413  25.936  13.689  0.1814  0.1166 -0.0781
50405W        W51269   2.485  10.101   3.666  0.1464  0.0428  0.1882
50406W        W51270  19.584   3.290  18.745  0.0046 -0.1163  0.1274
50407W        W51271   9.225  27.734   7.510  0.0817 -0.1172 -0.0575
50408W        W51272  22.055  12.725  22.141  0.0598  0.0838 -0.1046
50409W        W51273  14.671  25.736  23.827  0.2332 -0.0319  0.0537
50410W        W51274  19.741   4.338   6.882 -0.2099 -0.1338 -0.1282
50411W        W51275   6.356  23.192   3.922  0.0474  0.0118 -0.1536
50412W        W51276  17.355   2.727  26.553  0.1160 -0.0117 -0.0556
50413W        W51277  25.501  19.298  16.374 -0.0476 -0.2118  0.1028
50414W        W51278  15.316  23.801   4.495  0.1886  0.0205 -0.1135
50415W        W51279  19.463  12.920  18.542  0.1563  0.0074 -0.0719
50416W        W51280  17.514  18.904  13.499 -0.1825 -0.1353 -0.1100
50417W        W51281  19.212   9.387  22.853 -0.1775 -0.4259  0.3981
50418W        W51282  11.784  27.722  25.206 -0.0485 -0.1193 -0.0309
50419W        W51283   7.984   2.685   7.765  0.1277  0.0045 -0.0643
50420W        W51284   4.944  16.473   4.270 -0.0652  0.0866 -0.0524
50421W        W51285  23.989   4.992  11.522  0.2089 -0.0235  0.0999
50422W        W51286  24.073  11.608  11.978 -0.1568  0.2608 -0.0681
50423W        W51287  15.142  18.515  20.843 -0.0977  0.1210 -0.1591
50424W        W51288  16.327   4.255  27.983 -0.1016  0.1743 -0.2637
50425W        W51289  23.805   5.183  15.772 -0.0616 -0.3670  0.2575
50426W        W51290  10.159  10.998   7.635  0.0642  0.1605  0.3369
50427W        W51291  20.166  10.880  15.722  0.1359  0.4450  0.2365
50428W        W51292  14.042  21.547  19.606  0.3915  0.1607 -0.1779
50429W        W51293  15.643  13.753   4.313 -0.0037  0.2358  0.1330
50430W        W51294   8.457  14.344  26.718  0.1018 -0.2832  0.0784
50431W        W51295  11.110  28.615  15.300  0.2365 -0.0067  0.2278
50432W        W51296  11.852  29.121  27.235 -0.1872 -0.2341 -0.0985
50433W        W51297  23.026  28.885   5.158  0.3574  0.1430  0.3420
50434W        W51298   2.358   6.289   3.158  0.4271  0.1175  0.0140
50435W        W51299  13.947   2.534  21.671 -0.0170  0.1078  0.0836
50436W        W51300  24.408  18.168   6.960  0.0026 -0.1712 -0.1762
50437W        W51301   0.002  23.431   9.366 -0.0912 -0.2255  0.2230
50438W        W51302  28.511  16.753  27.164 -0.3562  0.1029  0.0551
50439W        W51303   6.805  16.666  27.489  0.5403  0.2139  0.0777
50440W        W51304  26.954   9.845  27.799  0.0089  0.1854 -0.1485
50441W        W51305  24.143  11.547  22.497  0.1166 -0.2930 -0.2127
50442W        W51306   2.203   7.668   0.599  0.3015  0.2119  0.1183
50443W        W51307  24.397  15.580   6.504  0.4721  0.1710  0.1427
50444W        W51308  21.807   1.556  28.609 -0.1500 -0.2260 -0.0725
50445W        W51309  20.132   7.593   1.646  0.0408  0.2998  0.1353
50446W        W51310  13.265  14.410  17.901 -0.1560 -0.1662  0.2383
50447W        W51311   0.836  23.867  28.084 -0.1126  0.3751 -0.2291
50448W        W51312  28.618  22.187   6.448  0.1791  0.0823  0.0946
50449W        W51313   0.541   9.015   9.978  0.1155 -0.1871 -0.2234
50450W        W51314  21.972   7.915  11.811  0.0668  0.3630 -0.1552
50451W        W51315  10.564  17.656   1.101 -0.2538 -0.2566 -0.0976
50452W        W51316   7.146  27.309   4.269  0.0791 -0.1741  0.0250
50453W        W51317  14.544  25.428  14.980  0.0549  0.1849 -0.0530
50454W        W51318  22.257  24.810   0.771 -0.1600  0.0878 -0.3950
50455W        W51319  16.835  17.037   6.821 -0.0450 -0.3707 -0.0634
50456W        W51320   7.211  14.164  18.411  0.1115 -0.0160 -0.0795
50457W        W51321  24.161   7.932  22.480 -0.3890  0.1099 -0.1164
50458W        W51322  20.543  27.318  20.410 -0.1328 -0.1532  0.1055
50459W        W51323  18.817  27.780  15.828 -0.0600  0.0915  0.0419
50460W        W51324  18.982  23.738  24.357  0.1457  0.2876  0.3837
50461W        W51325  15.609  26.413  16.662 -0.1410 -0.3833 -0.0776
50462W        W51326  11.206  17.569  26.392 -0.0763  0.0248  0.0462
50463W        W51327  14.101  27.928  21.032  0.0174 -0.1417 -0.0121
50464W        W51328  26.844  25.916   8.922  0.1899  0.0579 -0.1284
50465W        W51329   1.525  15.165  18.737 -0.0918 -0.1539 -0.5095
50466W        W51330  21.961  18.410   9.525 -0.1791 -0.0162 -0.2972
50467W        W51331  22.320  24.214  12.051  0.2154  0.0983 -0.0277
50468W        W51332  26.982  22.665  21.739  0.5117  0.1709  0.0122
50469W        W51333  23.224   9.664   9.396 -0.2088 -0.1538  0.0057
50470W        W51334  28.183   2.541   0.143  0.0284  0.0019  0.2714
50471W        W51335  21.798  23.831   7.867  0.0904  0.1034 -0.1559
50472W        W51336   8.200  23.424  14.368  0.0336 -0.0693  0.1080
50473W        W51337  13.122   8.954   9.988  0.3116 -0.0343  0.0384
50474W        W51338  24.366  27.330   8.766  0.0166 -0.0331  0.2058
50475W        W51339  14.502  17.468   5.007  0.1694  0.2586 -0.0413
50476W        W51340   8.917  25.652  20.489  0.4321  0.0743  0.2191
50477W        W51341  21.159  14.706   2.887  0.0752  0.1095 -0.0658
50478W        W51342  10.680   7.498  28.964 -0.1732 -0.0306 -0.1420
50479W        W51343  22.413  19.880  28.157  0.3074 -0.1276 -0.1159
50480W        W51344  17.562   9.680  19.610 -0.0880 -0.0702 -0.2511
50481W        W51345  17.306  25.454   7.416  0.1045 -0.1231  0.0647
50482W        W51346   8.999  27.343  24.578  0.0876  0.0755 -0.0560
50483W        W51347  14.353  22.645   6.962 -0.3881  0.1705  0.0448
50484W        W51348   5.933   1.953   5.724  0.2038 -0.0257  0.1846
50485W        W51349   6.599  22.585  19.296 -0.1962  0.1461  0.0665
50486W        W51350  14.240  16.471  28.717 -0.2205  0.0249  0.0092
50487W        W51351  10.095   7.811  13.942  0.2962 -0.0181 -0.3995
50488W        W51352  14.004  16.553  16.603 -0.0123  0.1818 -0.1060
50489W        W51353   3.404  15.091  20.712  0.3797  0.0230 -0.2192
50490W        W51354   7.390   8.184  14.959 -0.1442 -0.0960  0.1362
50491W        W51355  25.322   9.755   8.240 -0.2371 -0.3404  0.0276
50492W        W51356   6.217  16.523   3.585 -0.1378  0.1031 -0.3348
50493W        W51357   6.391  28.589  23.432  0.0639  0.0692 -0.3407
50494W        W51358  23.300   0.871   8.178 -0.0384 -0.2266  0.0905
50495W        W51359  27.450   7.217   0.368 -0.2850  0.1292  0.0258
50496W        W51360   2.113  23.848   7.751  0.0759  0.1616  0.0238
50497W        W51361  11.276   3.211  26.800  0.0305  0.3648  0.0085
50498W        W51362  14.179   1.517   2.977  0.0419  0.0132 -0.2032
50499W        W51363  20.768  23.946   4.087  0.1249  0.2722  0.2222
50500W        W51364   3.758  22.199  24.952  0.0899 -0.1036  0.1447
50501W        W51365  21.024  26.249  25.841 -0.4100 -0.0594  0.3067
50502W        W51366   4.110  25.607   1.796  0.1153 -0.0028  0.3934
50503W        W51367  16.922   6.257  15.060  0.0485  0.1102  0.0534
50504W        W51368  17.805   0.596   1.603  0.2524 -0.0634  0.1846
50505W        W51369  11.140   4.204  18.351  0.0226  0.1848 -0.2699
50506W        W51370   4.181   2.864  12.051 -0.1444  0.3068  0.3165
50507W        W51371   0.395  17.422  27.369  0.1632 -0.1634 -0.1001
50508W        W51372  28.912  24.724   3.408  0.0893  0.3488 -0.2345
50509W        W51373  18.920  27.252  23.464  0.0096 -0.0692 -0.0952
50510W        W51374   9.547  27.995  12.026 -0.6140 -0.0073 -0.0378
50511W        W51375  14.939  12.689  24.251 -0.1056 -0.0593  0.0863
50512W        W51376  17.360  10.475   9.884 -0.0612 -0.3340 -0.0002
50513W        W51377  23.677  25.207   3.910  0.0745 -0.2253 -0.5262
50514W        W51378   7.344  11.064  20.612 -0.2382  0.3165 -0.2991
50515W        W51379   2.224  12.201  14.374  0.0624  0.1884 -0.0374
50516W        W51380   4.085  21.466  17.748  0.0327  0.1903  0.1344
50517W        W51381  22.640   0.785  26.679  0.2410 -0.2632  0.0701
50518W        W51382   8.242  21.457  27.652  0.2705  0.0878  0.1177
50519W        W51383  24.010   1.173   0.845 -0.1588 -0.1038  0.3350
50520W        W51384  20.127   4.927  19.939 -0.2564  0.0350 -0.1008
50521W        W51385  24.603  20.043   0.530  0.2369  0.0232  0.0357
50522W        W51386  26.142   0.252  10.221 -0.2000 -0.0142 -0.2166
50523W        W51387  27.671  20.452   8.363  0.1582 -0.1337 -0.0026
50524W        W51388  10.716  27.678  24.727 -0.0162  0.0554 -0.0691
50525W        W51389  16.037  19.798  29.019  0.1029  0.2690  0.1455
50526W        W51390  25.272   3.178  25.301 -0.1326 -0.2214  0.0402
50527W        W51391  15.563  11.904  23.206  0.0859 -0.0736 -0.1028
50528W        W51392  23.944   6.795  25.783  0.3036 -0.2772 -0.2753
50529W        W51393  12.687  14.708   5.162  0.2296 -0.1487  0.1556
50530W        W51394  18.185   9.919  12.042  0.0184  0.1528  0.1668
50531W        W51395  12.076   3.512  28.538 -0.3068  0.1495  0.1834
50532W        W51396  18.612   1.482  22.605  0.3950 -0.2712 -0.1445
50533W        W51397  28.024  21.400  24.857 -0.0810 -0.3874 -0.0960
50534W        W51398  11.646  28.038   6.356  0.0263  0.0359  0.1022
50535W        W51399   9.753  24.766  12.557 -0.0344 -0.0271 -0.3112
50536W        W51400  22.988  20.876   3.902 -0.1025 -0.0919  0.4302
50537W        W51401   6.548  22.057  25.647  0.0829 -0.1939  0.2710
50538W        W51402  22.305   4.455  13.068 -0.1239 -0.1992  0.1063
50539W        W51403  17.409  20.640  14.168 -0.2645 -0.0099  0.1272
50540W        W51404   4.091  16.136  21.004 -0.0698  0.2035 -0.1437
50541W        W51405  19.779  13.849  16.355 -0.1442 -0.0468  0.2409
50542W        W51406  25.970  18.387   7.016 -0.1513 -0.0032  0.0994
50543W        W51407   5.784  12.814  20.067  0.1989  0.1617  0.0565
50544W        W51408  20.533  17.853  27.943 -0.0234 -0.0872 -0.1147
50545W        W51409  19.337   6.012   0.618  0.1258  0.0275  0.0198
50546W        W51410  10.352   2.033   7.007  0.1191  0.0301  0.1406
50547W        W51411  14.253  17.474   8.679 -0.1109 -0.1815  0.1171
50548W        W51412  16.187  24.152   8.917 -0.2488 -0.1439  0.0266
50549W        W51413  20.362  26.123   5.274 -0.2375  0.0399  0.0077
50550W        W51414  12.825  26.326   4.407  0.2290  0.0733  0.1737
50551W        W51415  24.113  23.393  26.866 -0.1569 -0.2750  0.1515
50552W        W51416   7.521  18.861   6.708  0.1677 -0.1806 -0.0573
50553W        W51417   7.923  26.064  19.948  0.1555  0.1305  0.3647
50554W        W51418  25.062   3.640  26.369 -0.2840 -0.0495 -0.0545
50555W        W51419   6.771  25.332  28.458 -0.1316  0.0288  0.0283
50556W        W51420   0.608  22.921  16.900 -0.3819 -0.2174 -0.2282
50557W        W51421  15.352  19.053   8.779  0.0158  0.1399 -0.0759
50558W        W51422   7.900  12.531   5.424  0.2372 -0.1840  0.2254
50559W        W51423  25.248   3.213  20.603  0.0438  0.0270  0.2817
50560W        W51424   6.600  25.710   1.165  0.0468 -0.2580  0.0957
50561W        W51425  14.675  19.092   3.366  0.1928 -0.3171 -0.0409
50562W        W51426  21.603  25.485  17.666 -0.0352  0.2704 -0.0012
50563W        W51427  11.355  22.443  20.755 -0.0127 -0.0952 -0.0407
50564W        W51428   1.076  22.299   0.331  0.1684  0.0322  0.0648
50565W        W51429   5.859  20.066   0.809 -0.0164  0.1012  0.2098
50566W        W51430   0.810  17.335  22.703  0.2838  0.2219  0.0191
50567W        W51431  17.392  10.004  10.040 -0.0023 -0.2419  0.2196
50568W        W51432  19.913   8.776   3.454 -0.0181  0.0441  0.4384
50569W        W51433  19.866   0.081  23.666 -0.0595  0.0809  0.4497
50570W        W51434   4.916  22.351  13.252 -0.1982 -0.0268 -0.2681
50571W        W51435  21.252  12.329   1.351 -0.0028  0.0535 -0.1543
50572W        W51436  24.751  27.119  20.716  0.0618 -0.0415  0.1002
50573W        W51437   9.484   3.999  27.345 -0.0153 -0.0679  0.1648
50574W        W51438  11.851  19.754   4.283 -0.1406 -0.0347  0.0352
50575W        W51439  20.496  20.944  22.595  0.1542  0.0210 -0.1549
50576W        W51440  10.418  18.794  26.716 -0.1913 -0.0644  0.3429
50577W        W51441  16.585  19.068  17.325  0.2238 -0.3871  0.2807
50578W        W51442  13.248   2.778   1.178 -0.2054  0.0477 -0.0386
50579W        W51443  16.840  17.576  23.507 -0.0394  0.3072 -0.0259
50580W        W51444  17.692  27.807  21.792  0.1694  0.0910  0.2098
50581W        W51445  18.976   4.272  28.632  0.0628 -0.0642 -0.1874
50582W        W51446   5.316   0.157   2.059  0.1614  0.3744 -0.1270
50583W        W51447  24.776  10.886  14.422 -0.1415  0.0700 -0.0938
50584W        W51448  14.995  15.947  14.924  0.0820 -0.0139  0.3665
50585W        W51449  26.970  24.721   6.775 -0.1215 -0.1598  0.1900
50586W        W51450   4.499  24.038  12.838 -0.0179 -0.1601 -0.0224
50587W        W51451  17.193  14.628  25.467 -0.1052  0.0317 -0.3409
50588W        W51452  21.323   4.404  23.491  0.2697  0.0412  0.0697
50589W        W51453  16.364  18.361  20.668 -0.0016  0.2223  0.1104
50590W        W51454   6.709  16.670   0.300 -0.1333 -0.1344 -0.1075
50591W        W51455   9.997  21.972   6.375  0.1779  0.0941 -0.0783
50592W        W51456  16.145   6.222  25.440 -0.2661  0.0595 -0.0767
50593W        W51457  19.227  20.282   2.896  0.1620  0.1228  0.1599
50594W        W51458  16.602  14.673  28.180  0.3277  0.0881 -0.2515
50595W        W51459  17.864  26.667   9.167  0.1483 -0.0862  0.2818
50596W        W51460  23.696   6.235  23.271 -0.0608  0.3124 -0.1411
50597W        W51461  17.851  10.350  22.072  0.3002  0.1057  0.3451
50598W        W51462  17.819  23.017  16.855 -0.1584 -0.0863  0.2181
50599W        W51463   2.558  28.312  11.371  0.2164  0.1001  0.4063
50600W        W51464   0.941   8.995  27.406  0.1003  0.3149  0.0745
50601W        W51465  15.295  19.798  19.005  0.2321 -0.1337  0.0183
50602W        W51466  16.139   5.282  11.312  0.1946  0.1804  0.0753
50603W        W51467  27.500  24.108   5.534  0.0183  0.2277 -0.2193
50604W        W51468  11.505  18.187   5.785 -0.3206 -0.0809 -0.5918
50605W        W51469  24.057  26.712   9.861 -0.1442 -0.0577 -0.1233
50606W        W51470   1.394   0.147  14.846  0.2419  0.0785 -0.1464
50607W        W51471  21.699  22.702  29.078  0.2345 -0.0782  0.0496
50608W        W51472  14.681  20.235  25.101  0.0220 -0.2888 -0.1715
50609W        W51473  12.619  12.881   7.038 -0.0002  0.2443  0.1353
50610W        W51474  19.794  20.948  13.756  0.0027  0.2249 -0.2245
50611W        W51475  20.627   0.044  25.505 -0.1938 -0.1756  0.3077
50612W        W51476  27.141  20.251  18.667 -0.1121 -0.2376  0.0982
50613W        W51477  22.656  25.059  11.364 -0.0392 -0.0002 -0.3468
50614W        W51478  19.958  17.163  10.335 -0.1111  0.0802  0.1441
50615W        W51479  27.232   1.496   2.780 -0.1877 -0.2062 -0.1850
50616W        W51480  19.616  18.702   7.360 -0.1157 -0.1050  0.0934
50617W        W51481   2.487  12.740  12.173 -0.0984 -0.1441  0.0745
50618W        W51482  10.033   1.166  24.068  0.2677  0.1779  0.0609
50619W        W51483  26.838  21.593  13.049 -0.1650  0.1377  0.2593
50620W        W51484   0.445   5.490  11.667  0.0113 -0.3237  0.0861
50621W        W51485  28.710  10.506  27.126  0.4349 -0.1885  0.0216
50622W        W51486  20.220  27.539  26.178  0.0186  0.2207 -0.0307
50623W        W51487   3.547  22.088  16.813 -0.0616 -0.0570 -0.1278
50624W        W51488  22.514  15.628  20.262  0.1918  0.0981  0.1167
50625W        W51489  17.275   6.134  29.131  0.2193  0.0335  0.2587
50626W        W51490  17.195  21.538   0.340  0.1736  0.0273  0.1393
50627W        W51491  14.984   1.364  20.753 -0.2182  0.0296  0.0259
50628W        W51492  19.893  14.611  15.355 -0.1586 -0.2519 -0.0494
50629W        W51493  14.971  29.115   5.791  0.0246 -0.1992 -0.1820
50630W        W51494  16.083  23.267  14.340  0.0574 -0.0800 -0.0109
50631W        W51495   1.164  20.217   8.153  0.0334  0.1905  0.2177
50632W        W51496   7.642  23.402   6.850  0.1660 -0.0417  0.1070
50633W        W51497   6.615  28.728   3.132 -0.0505  0.1064  0.2243
50634W        W51498   2.621  18.463   2.460 -0.2135  0.1043 -0.2978
50635W        W51499  10.585   9.814  15.727 -0.0871 -0.0447  0.1377
50636W        W51500   3.234   9.143  18.693 -0.0469 -0.1512  0.0445
50637W        W51501   7.929   0.477  12.269  0.1695 -0.1987 -0.0462
50638W        W51502  21.684  26.372  12.599  0.2748  0.0349  0.1768
50639W        W51503   9.020  28.148   2.018 -0.2641 -0.0998  0.0477
50640W        W51504  21.358  19.092  10.702  0.1082  0.0271  0.0370
50641W        W51505  17.517   7.178   0.636  0.3033 -0.0367 -0.0201
50642W        W51506  24.666  19.669   4.576 -0.5338  0.0438  0.3413
50643W        W51507   2.055  25.103   4.494  0.1443  0.2373  0.2170
50644W        W51508  17.040  27.488   6.612 -0.1797  0.1823 -0.2947
50645W        W51509   6.731  27.502  15.776  0.0266 -0.1305 -0.0425
50646W        W51510   0.609  11.137  27.726  0.0616 -0.2049 -0.1500
50647W        W51511  11.041   3.315  10.043  0.1804 -0.3659  0.0543
50648W        W51512  15.095   9.543   7.234 -0.4491 -0.2523  0.0199
50649W        W51513  18.903  13.756  12.568  0.1550  0.2852  0.1196
50650W        W51514  24.069  19.366   5.210 -0.2348 -0.0112  0.0888
50651W        W51515  19.988   1.138   7.906  0.1906  0.0091  0.0301
50652W        W51516  18.498  10.015  12.894  0.0360  0.0584  0.3389
50653W        W51517  10.654  18.712   7.357  0.2560 -0.1067 -0.1092
50654W        W51518  27.209  17.615  25.167  0.1601 -0.1859  0.1179
50655W        W51519   3.604   4.234   2.615  0.0751 -0.2227 -0.2239
50656W        W51520   2.520  16.709   2.644 -0.1593  0.2137 -0.1228
50657W        W51521  16.148  20.479  15.752 -0.1773  0.2855  0.3053
50658W        W51522   6.365  26.132   3.954  0.1769  0.0533 -0.0708
50659W        W51523  16.402  21.029  10.290  0.3202  0.1184  0.1564
50660W        W51524  29.028  28.509  28.888  0.0251 -0.0212  0.0938
50661W        W51525  19.168  15.904   7.765 -0.2747 -0.0853  0.0046
50662W        W51526   4.131  24.066  28.139  0.0404  0.1544 -0.2388
50663W        W51527  28.198  18.473   2.158  0.2218 -0.0485  0.0639
50664W        W51528  19.709  24.468  26.677  0.0066 -0.2690  0.2501
50665W        W51529   8.835  16.179  24.823 -0.0171 -0.0274  0.1911
50666W        W51530  27.128   0.775   2.227  0.1651 -0.0589  0.0618
50667W        W51531  18.217   0.230  28.374 -0.1403 -0.4067 -0.0018
50668W        W51532  13.210   6.290  23.582  0.1126  0.2135  0.2530
50669W        W51533  14.489   2.736  23.218 -0.0032 -0.1741  0.0591
50670W        W51534  17.972   5.810  12.618 -0.3271 -0.1743 -0.0589
50671W        W51535   0.778  10.786   7.367  0.1670 -0.3935  0.3609
50672W        W51536  14.140  26.759   6.315  0.0983  0.0520  0.0645
50673W        W51537  20.406   5.260   6.501 -0.1643 -0.0898 -0.1773
50674W        W51538  19.155  21.473  10.670  0.0161  0.0185 -0.1426
50675W        W51539  18.093  17.276  13.121 -0.0629 -0.0045 -0.3217
50676W        W51540  12.066  12.893  23.819  0.3725 -0.1508 -0.0368
50677W        W51541  21.832  17.833  14.879 -0.0725 -0.2329  0.1007
50678W        W51542  16.585   5.953   8.683 -0.3852 -0.0522 -0.5375
50679W        W51543  20.901   1.599   8.269  0.1018  0.0519  0.0171
50680W        W51544   3.710  24.720  28.687  0.2104 -0.1568  0.0865
50681W        W51545  16.194   5.306   4.339  0.0012 -0.0898 -0.2341
50682W        W51546  26.458   4.282   5.393 -0.0032  0.1390  0.2301
50683W        W51547  17.666  24.706   5.278  0.0121  0.2006 -0.1229
50684W        W51548  13.587  25.127  21.560 -0.1432 -0.0860  0.3940
50685W        W51549  18.598  17.192  13.060 -0.1151 -0.2353 -0.1946
50686W        W51550  19.527  18.913  15.264  0.0815  0.0590 -0.1750
50687W        W51551   4.304  20.431  25.743  0.1405  0.4352  0.3084
50688W        W51552  10.983  16.086   4.595 -0.1296 -0.0712  0.1040
50689W        W51553  16.192   0.388  22.403 -0.2289 -0.2681 -0.2098
50690W        W51554  25.290  14.700  20.377  0.2561  0.0494  0.0665
50691W        W51555  17.785   3.392  14.368 -0.0336 -0.0666 -0.0329
50692W        W51556  18.550  27.223  28.228  0.1345  0.1423  0.0978
50693W        W51557  13.141   6.714   8.131 -0.1320 -0.0986 -0.0063
50694W        W51558  28.071  10.576   9.815  0.1001 -0.1457 -0.1616
50695W        W51559  13.890   0.725   6.506 -0.0703 -0.0954  0.0275
50696W        W51560  22.360   8.296  19.942  0.3864  0.1930 -0.3631
50697W        W51561   8.947   3.607   2.258  0.1510 -0.0690  0.5552
50698W        W51562  29.140  27.490  14.072  0.0565  0.0590 -0.2079
50699W        W51563  21.284  25.750  17.389 -0.1725  0.3393 -0.0358
50700W        W51564  28.866   7.880   3.248  0.0217  0.0224 -0.2122
50701W        W51565   9.474  24.649   8.665  0.0567  0.1830  0.1300
50702W        W51566  15.925  21.070  15.104 -0.0595  0.2551  0.0077
50703W        W51567  26.138   5.107   8.088  0.0198  0.0497 -0.0706
50704W        W51568  13.154  23.142   8.018  0.0567  0.1157  0.2672
50705W        W51569  10.453   0.955  14.893 -0.2068 -0.2432  0.1881
50706W        W51570   5.272   1.631  26.291  0.2361 -0.3522  0.1281
50707W        W51571  21.359  24.055  19.476  0.0245  0.3105  0.1725
50708W        W51572  18.589  24.710  25.245  0.0447 -0.1368  0.0028
50709W        W51573   6.783  25.042  18.952 -0.0795  0.0118  0.1398
50710W        W51574  10.802   0.882   5.297 -0.1886  0.1630  0.1112
50711W        W51575  21.597  16.113  27.859  0.1627  0.2851 -0.3226
50712W        W51576  22.825   9.520   3.029  0.0008  0.1376  0.0777
50713W        W51577  13.561  18.221  28.887  0.3337  0.1527  0.1538
50714W        W51578   4.763  17.564   5.645 -0.0632 -0.1701 -0.0743
50715W        W51579  19.894   9.503   1.238  0.0765 -0.2246  0.2267
50716W        W51580  14.555  26.272  26.499  0.1178 -0.0422  0.1749
50717W        W51581  10.049  28.831  23.831 -0.0516 -0.0173  0.1412
50718W        W51582  27.359   9.073   4.880 -0.3191  0.0815 -0.3671
50719W        W51583  23.557   0.264  24.929 -0.4139 -0.0700  0.0493
50720W        W51584   6.479   8.623  19.211  0.0688 -0.0557 -0.1604
50721W        W51585   0.706  26.854  11.327  0.0242 -0.3231  0.1153
50722W        W51586   7.191   3.860  24.003 -0.1888  0.1935 -0.0688
50723W        W51587  18.833  12.876   3.055  0.0612  0.0747 -0.0049
50724W        W51588  26.088  19.192   6.345 -0.1743  0.3094 -0.1673
50725W        W51589  19.610   6.498  18.056 -0.2968  0.3534 -0.1660
50726W        W51590  18.268   6.825  26.093 -0.1119 -0.0979 -0.3596
50727W        W51591  24.931  27.079   5.036  0.3144  0.0055  0.2149
50728W        W51592  23.410  26.388   2.038 -0.0378  0.0244  0.1136
50729W        W51593   6.940   0.711  15.683 -0.4308 -0.2086 -0.2761
50730W        W51594  26.060   1.827   3.509 -0.0314  0.2386  0.2999
50731W        W51595   6.770  13.448   3.404 -0.0707  0.1305  0.1957
50732W        W51596  18.439   7.717   0.409  0.4281 -0.1660  0.0842
50733W        W51597   0.882  20.647   7.555 -0.2133  0.0267 -0.3171
50734W        W51598  12.260  22.986  26.654 -0.0542  0.2630 -0.1070
50735W        W51599  20.945   0.616  28.409 -0.2750 -0.2788 -0.0346
50736W        W51600  12.318   4.062   7.412  0.2796  0.0622 -0.4239
50737W        W51601  23.603  21.319   4.318 -0.2914 -0.0129  0.2096
50738W        W51602   8.680  25.539  17.458  0.0482  0.0867  0.0475
50739W        W51603  23.246  19.133  26.623 -0.0129 -0.1101  0.0207
50740W        W51604  18.045  17.974  26.242 -0.3380 -0.0557 -0.2025
50741W        W51605   3.443  10.696  27.908  0.1439 -0.1630 -0.0116
50742W        W51606  12.855   5.746  28.498 -0.0092  0.0843 -0.1874
50743W        W51607   9.312  22.315  23.558 -0.1801  0.3122  0.1925
50744W        W51608   9.911   8.487   6.704 -0.1609  0.2465  0.0202
50745W        W51609  23.668  21.395  18.934  0.2908 -0.2375 -0.1611
50746W        W51610   4.573  18.423  12.249  0.3636  0.1183  0.2201
50747W        W51611  22.285  18.399   6.840 -0.1468  0.1379 -0.1701
50748W        W51612   3.061   1.709   3.393 -0.2126  0.1103  0.0249
50749W        W51613   1.350  17.940  29.078  0.2560 -0.4634  0.1483
50750W        W51614   5.781  25.340  24.685  0.1055 -0.1230  0.0184
50751W        W51615   1.205  28.937   4.633  0.1721 -0.1283  0.0286
50752W        W51616  10.075  27.477  17.016 -0.1225 -0.0077 -0.0002
50753W        W51617  25.646   6.418   2.715 -0.1409 -0.0943 -0.0478
50754W        W51618  24.676  21.808   9.282  0.0125 -0.2222  0.1875
50755W        W51619  19.006  25.033  21.226  0.0832 -0.1500 -0.1618
50756W        W51620  22.577   7.134  10.565  0.2479  0.1938  0.0710
50757W        W51621  11.510  26.923  21.092 -0.2744 -0.0396 -0.0744
50758W        W51622  16.704  15.895   1.163  0.2321  0.1025 -0.4571
50759W        W51623  26.171   4.196   8.712  0.2283 -0.0371 -0.1373
50760W        W51624  12.974   5.457  14.656  0.0980  0.0970 -0.1150
50761W        W51625  20.325  27.930  25.866 -0.0073  0.0314  0.2775
50762W        W51626  27.868   2.496  12.217  0.2874 -0.1586 -0.0182
50763W        W51627  22.831   5.847  18.583  0.0632 -0.0551  0.0707
50764W        W51628  16.216  29.000  26.292 -0.1560  0.1945 -0.0274
50765W        W51629  16.858  27.175  18.781  0.0322 -0.2073  0.0179
50766W        W51630  17.885  13.897  25.684 -0.0582  0.1172 -0.1306
50767W        W51631  17.486  21.414  28.668  0.2244 -0.1365  0.1071
50768W        W51632   3.017   0.749  27.674 -0.4267  0.0650  0.1002
50769W        W51633  15.603  25.100   2.673 -0.0653 -0.0895 -0.1140
50770W        W51634   8.713   0.618   4.951 -0.0016  0.0698  0.2129
50771W        W51635  21.516  19.893  17.931  0.2898  0.0145  0.1690
50772W        W51636   8.256   1.867  15.474 -0.2880  0.2563  0.1175
50773W        W51637  12.399  26.849  27.234  0.0689  0.0127 -0.0812
50774W        W51638   7.787  27.014  20.805  0.0076 -0.0107  0.1532
50775W        W51639   8.106   3.152   7.753 -0.1144  0.0913  0.0490
50776W        W51640  14.220   0.111  27.946 -0.0850  0.3436 -0.1731
50777W        W51641   7.258  12.040  17.843  0.0624  0.0565 -0.0348
50778W        W51642   8.264   0.738  11.081 -0.0838 -0.2562  0.2613
50779W        W51643  18.293  22.085  27.410 -0.3395 -0.0863  0.3197
50780W        W51644  22.400   6.284  27.448  0.0694  0.5229 -0.1767
50781W        W51645  26.851  22.652  26.409 -0.0738 -0.0629 -0.2360
50782W        W51646  16.136   5.792   6.934 -0.0711 -0.0957  0.0835
50783W        W51647  21.062   0.914  24.913  0.1486 -0.0853  0.0372
50784W        W51648  24.905  16.189   2.730  0.1429 -0.0417  0.1980
50785W        W51649   5.005  27.098   2.462  0.0569 -0.0178  0.1091
50786W        W51650  13.489  24.782  20.345  0.0089 -0.0367  0.1279
50787W        W51651  15.805   0.558  13.410  0.0515 -0.1096 -0.2151
50788W        W51652  17.825  24.130   5.439 -0.2317 -0.2591  0.3359
50789W        W51653  13.995  12.183   8.080  0.0310  0.1224  0.0421
50790W        W51654   5.129  13.589   0.654  0.1449  0.0142  0.0114
50791W        W51655   1.522   7.524   7.785 -0.0829 -0.0832  0.3120
50792W        W51656   1.449  27.613  14.983 -0.0045  0.1527 -0.0916
50793W        W51657   8.560   9.725  13.942  0.1521 -0.0037  0.0506
50794W        W51658  12.892  16.459  25.026  0.1094 -0.1963 -0.2810
50795W        W51659  22.617  10.104   4.875 -0.0891 -0.2081  0.1275
50796W        W51660  12.700   9.368  28.784 -0.1533  0.0345  0.0472
50797W        W51661  14.830  27.239  13.662 -0.0765  0.0564 -0.0381
50798W        W51662   6.955  12.659  28.407 -0.1493 -0.2607  0.3395
50799W        W51663  22.169  27.201   6.052 -0.0583 -0.0741 -0.0271
50800W        W51664  26.986  15.760   2.174 -0.0801  0.0515  0.1696
50801W        W51665  21.657  24.570   2.729  0.1083 -0.2602 -0.1893
50802W        W51666   8.632  23.350  11.029  0.2930 -0.0706  0.0505
50803W        W51667  20.442   5.509  23.541 -0.1301 -0.1153  0.1099
50804W        W51668   2.276   2.175  16.761 -0.3063  0.0507  0.0096
50805W        W51669  28.861  15.686  23.785  0.0518  0.1643  0.0395
50806W        W51670   4.250  25.253   7.511  0.1238 -0.1467  0.0741
50807W        W51671  12.870   2.338  17.925 -0.1436 -0.1638  0.2117
50808W        W51672   0.320  17.531  19.956  0.2771 -0.0773  0.0482
50809W        W51673  18.730  23.655  21.417  0.0893 -0.0359 -0.0077
50810W        W51674  19.342  11.045  23.079  0.0159  0.1701 -0.0068
50811W        W51675  13.666  21.709   4.485  0.1864 -0.0200 -0.2044
50812W        W51676   5.481  21.201   9.003  0.0929 -0.0574  0.0411
50813W        W51677  29.042  27.327  25.883  0.0655 -0.0710 -0.0957
50814W        W51678   8.762  24.788  26.216  0.1405  0.2521 -0.0712
50815W        W51679  15.014  24.848  27.582  0.2102  0.3389 -0.1121
50816W        W51680  28.496   7.508  21.306  0.0701 -0.1510 -0.3334
50817W        W51681  14.139  18.405  13.361  0.2107 -0.0736  0.1473
50818W        W51682   6.288  24.248  23.820 -0.0101 -0.0776 -0.0443
50819W        W51683  19.853  20.055  10.371  0.1447  0.2164 -0.1116
50820W        W51684  11.541  15.623   7.660 -0.1248  0.2909 -0.2084
50821W        W51685   9.261  28.465   4.875 -0.1185 -0.4252  0.1744
50822W        W51686  17.206   3.699  11.424  0.2079  0.4537 -0.0502
50823W        W51687  24.722  11.404   9.066  0.0802  0.1116  0.1021
50824W        W51688   7.405  13.814  14.058  0.2707  0.3040  0.0080
50825W        W51689  11.986   7.183  21.282  0.1428 -0.3878  0.3808
50826W        W51690  18.083   9.962  16.285  0.3850  0.2589  0.0543
50827W        W51691   0.705   1.961   5.748  0.2863  0.1999 -0.0778
50828W        W51692  15.353   3.103  21.520 -0.1252 -0.0371  0.0413
50829W        W51693  11.081   9.884   9.479  0.0056 -0.0643 -0.2292
50830W        W51694  17.355   1.510  26.823  0.1535 -0.1320  0.0183
50831W        W51695  14.075  27.583  26.986 -0.1145 -0.3623  0.3664
50832W        W51696   4.685  27.768   8.726  0.0971 -0.2811 -0.0302
50833W        W51697  28.085   1.634  11.598  0.0620  0.0609 -0.0061
50834W        W51698  17.811   8.300  14.488  0.1339  0.2049 -0.0379
50835W        W51699   4.382  23.396  17.399 -0.1477  0.2127  0.2771
50836W        W51700   8.672  14.111  22.585 -0.1846  0.1117  0.2878
50837W        W51701   1.041  28.532  28.100 -0.0209  0.0519  0.0438
50838W        W51702  24.353  17.015  28.798 -0.1096 -0.5270  0.0681
50839W        W51703  25.979   0.145  28.473  0.1784 -0.2551 -0.1559
50840W        W51704  23.134  16.727  28.253 -0.0103 -0.1136  0.1122
50841W        W51705  24.868  25.310  25.633 -0.2083  0.2422 -0.2084
50842W        W51706  24.566   2.854  27.058  0.1971  0.2330  0.1287
50843W        W51707  25.695   9.969  20.991  0.0271  0.0480 -0.3915
50844W        W51708  14.898  19.088  26.359 -0.0473 -0.0377  0.2046
50845W        W51709  11.413   4.995  21.318  0.1446  0.0311  0.2513
50846W        W51710   9.796   0.170   2.803  0.0716  0.2337 -0.1022
50847W        W51711  25.263   8.163   3.127  0.0094 -0.2335  0.0135
50848W        W51712  20.046   0.614  14.742 -0.1045  0.0086 -0.0753
50849W        W51713  20.097  23.920   8.780 -0.0597  0.2334  0.1151
50850W        W51714  27.896  27.401   4.878 -0.0918  0.2951  0.0458
50851W        W51715   5.029  16.991  15.498  0.3384  0.1170 -0.2989
50852W        W51716  25.509  24.018  23.610  0.0936  0.3437 -0.0401
50853W        W51717  27.497   3.245  19.117 -0.2322  0.3716  0.0816
50854W        W51718  17.143  26.874  18.964 -0.0858  0.1078  0.2229
50855W        W51719  16.963  27.706   8.380  0.1727  0.1377  0.1688
50856W        W51720  21.651   4.588  12.057 -0.1667  0.3668 -0.2359
50857W        W51721  12.963  28.228  28.108 -0.1642 -0.2211  0.0443
50858W        W51722  14.024  15.493  18.955 -0.1287 -0.1552  0.1116
50859W        W51723   8.118  21.205  25.507  0.2540 -0.0092  0.2287
50860W        W51724  18.245  21.899   7.610 -0.1448 -0.0998  0.1274
50861W        W51725  25.806   5.371  22.633  0.1454 -0.2392 -0.4316
50862W        W51726  21.246  14.684  19.192  0.0200 -0.3214 -0.0905
50863W        W51727   5.791   5.714  10.349 -0.1055  0.2882 -0.0188
50864W        W51728   9.463  26.967  14.513 -0.1039 -0.2715 -0.0097
50865W        W51729  16.091  15.683  23.341  0.3163  0.0509 -0.0257
50866W        W51730  10.495  27.272   4.095 -0.0552 -0.0776  0.1819
50867W        W51731  24.437  27.642  26.314  0.1462  0.1637  0.2588
50868W        W51732  25.967  19.345  25.966  0.2676 -0.0546 -0.1178
50869W        W51733  28.350  20.683  13.629 -0.1855  0.1209  0.0700
50870W        W51734  28.304  27.701  19.649 -0.0975  0.1850 -0.1975
50871W        W51735   8.011  11.954   4.134 -0.0066  0.0156  0.1637
50872W        W51736   5.333   2.878   9.114  0.3430  0.0954  0.3917
50873W        W51737   1.765  20.989  16.171 -0.3619  0.0463 -0.1517
50874W        W51738  15.409  27.734   8.843  0.1502 -0.2221  0.0938
50875W        W51739  24.109  17.721  14.184 -0.1186  0.1778 -0.1755
50876W        W51740  20.781   4.935  22.094 -0.2211 -0.1074 -0.1344
50877W        W51741  20.366  18.124   2.744 -0.1507  0.1405  0.2690
50878W        W51742  15.888  23.647  10.379 -0.0459 -0.0796  0.0048
50879W        W51743  23.517   2.652  28.828  0.1311 -0.1172  0.1473
50880W        W51744  24.212   2.569  14.973 -0.2631  0.2283 -0.0771
50881W        W51745   3.866   5.322   6.129  0.2444  0.0767 -0.2288
50882W        W51746  24.155   3.909   8.111 -0.1562 -0.0590 -0.2832
50883W        W51747  19.230  17.870   0.409  0.1874 -0.0178 -0.1230
50884W        W51748   7.133  20.834   1.978 -0.1497 -0.1798 -0.1051
50885W        W51749   6.344  12.528  12.400 -0.0200 -0.0608  0.0308
50886W        W51750  28.206   0.298  19.709 -0.1454 -0.2562 -0.0611
50887W        W51751  18.278  29.133  27.900  0.1273  0.1748  0.0114
50888W        W51752  16.112  12.555   8.356 -0.2445  0.1742  0.1025
50889W        W51753   5.726  24.898   9.714 -0.1391 -0.1091 -0.1387
50890W        W51754  13.923  18.306  10.749  0.0209  0.1031  0.0039
50891W        W51755  20.767   5.311  14.873 -0.0995 -0.1172  0.1656
50892W        W51756  12.245  10.431   7.936 -0.1883  0.0289  0.0329
50893W        W51757  25.087  26.373  28.493 -0.1654 -0.3683  0.1875
50894W        W51758   3.795  23.706   1.817 -0.1604 -0.1518  0.2662
50895W        W51759   6.285   8.702  26.471 -0.0918  0.0143 -0.3758
50896W        W51760  21.515   4.600  10.702 -0.1564 -0.1031 -0.0492
50897W        W51761  15.713  19.748  14.568  0.2446 -0.1651  0.1754
50898W        W51762   9.873  22.050  21.771  0.2193 -0.2545  0.2470
50899W        W51763   4.034   8.098   2.594  0.3192  0.0687 -0.2346
50900W        W51764  27.924  24.922  26.252 -0.3695 -0.2248  0.1636
50901W        W51765  11.952  14.050  21.537 -0.3162  0.0735 -0.0128
50902W        W51766   8.227   2.122  13.665  0.2007 -0.2195  0.0739
50903W        W51767  22.742   9.278  28.254 -0.0211  0.0756 -0.2633
50904W        W51768  12.471   9.178  24.828  0.0334 -0.1935  0.0509
50905W        W51769  28.570  17.270   1.658 -0.2322 -0.2233  0.1260
50906W        W51770  25.961   6.907  26.905  0.0938 -0.1458  0.1562
50907W        W51771  25.797  20.962   1.467  0.1035  0.0771 -0.1606
50908W        W51772  15.791  10.040  22.791 -0.0106 -0.1856  0.1508
50909W        W51773  11.593   7.189  28.930 -0.1547  0.3270  0.2011
50910W        W51774   4.969  15.763  22.326  0.3929 -0.3787  0.1342
50911W        W51775  17.927  27.722   2.352  0.0738 -0.0630  0.0489
50912W        W51776  13.197   6.928  23.558 -0.1985  0.0151  0.3481
50913W        W51777   5.531   0.364  24.302  0.1569  0.0357 -0.0668
50914W        W51778  18.968   5.070   1.996 -0.1231 -0.1967  0.0802
50915W        W51779  25.997  17.407  14.885  0.1442 -0.0703 -0.0132
50916W        W51780   1.838   4.373  28.396 -0.1677  0.0868 -0.1727
50917W        W51781  17.518  26.312   1.608  0.1036 -0.2479  0.0758
50918W        W51782  10.832  14.636  20.378 -0.0099  0.2917 -0.0775
50919W        W51783   6.775  15.914  12.470 -0.1173  0.2720 -0.0135
50920W        W51784  25.243  16.550  14.635 -0.2546 -0.1316 -0.3035
50921W        W51785  18.369  18.841   3.269 -0.2446 -0.0697  0.0656
50922W        W51786  23.199  23.654  18.498  0.1297 -0.0109  0.1904
50923W        W51787  19.001  24.662   2.985 -0.0365 -0.3288  0.2059
50924W        W51788   9.173  15.774   0.927 -0.1117 -0.3846 -0.0406
50925W        W51789  24.283  17.546  11.131 -0.0353 -0.0557 -0.2447
50926W        W51790   1.716   6.829  11.120  0.0072 -0.1711 -0.1978
50927W        W51791  25.188  18.978   6.313  0.2450  0.3116 -0.1100
50928W        W51792  11.609  16.228   5.424  0.0695 -0.0512  0.0089
50929W        W51793  21.671  21.731   9.225 -0.1914  0.1763  0.0639
50930W        W51794  20.382   3.676  15.459  0.0870 -0.2011 -0.1297
50931W        W51795  16.613  26.945  18.246  0.1490 -0.0060 -0.1253
50932W        W51796  19.172  15.092  21.541  0.1344 -0.0625  0.0385
50933W        W51797  19.281   7.262  28.672 -0.0376 -0.1488  0.3905
50934W        W51798   4.079   9.305  26.157  0.2561 -0.2157 -0.0875
50935W        W51799  26.103   5.457  10.120  0.2014 -0.1659  0.3482
50936W        W51800   5.159  26.403  12.304  0.0016 -0.1604  0.0729
50937W        W51801   8.257  11.201  16.275 -0.0580  0.0261 -0.2536
50938W        W51802  18.853   1.082   6.667 -0.1092 -0.1708 -0.1777
50939W        W51803  22.719  19.300  10.451 -0.0885 -0.0647 -0.0195
50940W        W51804  13.062   4.173  23.274  0.0402  0.0030 -0.1633
50941W        W51805  23.562  19.969  21.490  0.1420  0.1039 -0.1531
50942W        W51806  11.566  15.358  14.224  0.0998  0.1437 -0.0996
50943W        W51807   4.398   3.094   6.475 -0.0188  0.0692 -0.1816
50944W        W51808  26.199  25.447  16.436 -0.0353  0.0364 -0.0498
50945W        W51809  28.345  16.574   6.374  0.0873 -0.2188  0.2128
50946W        W51810   0.280  28.563   7.736 -0.2063  0.1498  0.0825
50947W        W51811  19.906   5.684  27.423 -0.0435  0.0117 -0.1103
50948W        W51812  10.339  11.799   4.020  0.0393  0.4039 -0.3140
50949W        W51813  27.419  23.575  10.073  0.1320 -0.0086  0.0619
50950W        W51814  19.034  18.590  18.141  0.0165  0.3834 -0.0920
50951W        W51815  10.490   5.189  13.015 -0.2130 -0.1367 -0.1405
50952W        W51816   4.261   4.747  12.268  0.0344 -0.0203 -0.2818
50953W        W51817  26.109  24.077  11.465  0.1068  0.1114 -0.3361
50954W        W51818   5.917  22.245   0.779  0.1476 -0.1867  0.2022
50955W        W51819  18.513  14.920  20.051  0.1622  0.1201 -0.1166
50956W        W51820  22.957  23.151   0.211 -0.1834  0.4083 -0.1737
50957W        W51821  21.403   1.621   5.624 -0.1857  0.3447  0.0438
50958W        W51822  19.297   0.251   2.966  0.0934  0.0688  0.0170
50959W        W51823  12.174  27.302  27.478 -0.0672 -0.2167  0.0665
50960W        W51824   5.802  21.939   1.551  0.1182  0.1474 -0.0039
50961W        W51825   6.750  22.122   9.767  0.0610  0.5477 -0.1914
50962W        W51826  23.904  16.033  16.375 -0.0076 -0.0387  0.2517
50963W        W51827  25.913  28.352  19.041  0.3793 -0.2427 -0.2393
50964W        W51828   4.777  27.780  26.440 -0.0971 -0.0779  0.0701
50965W        W51829  28.639  25.115  22.848 -0.0025 -0.1665  0.1297
50966W        W51830   1.003  19.831   5.859 -0.0190 -0.0519 -0.0335
50967W        W51831  21.172   1.166  23.440  0.3480  0.0991  0.1158
50968W        W51832  27.558   7.944   1.944  0.0504  0.0038  0.1502
50969W        W51833  22.750  24.672   0.964  0.0197  0.1495  0.1819
50970W        W51834   1.587  11.454  10.101  0.0558  0.0053  0.1243
50971W        W51835  22.620  27.175  15.944  0.1044 -0.0518  0.0030
50972W        W51836  20.359  28.083   5.083  0.1360  0.0523 -0.0672
50973W        W51837  12.778  24.357   5.449  0.1762  0.0946  0.0543
50974W        W51838  17.374  15.006  28.591  0.0853  0.0404 -0.2308
50975W        W51839  20.268   3.563   9.093 -0.0934  0.0337 -0.0656
50976W        W51840  15.661  16.389   2.107  0.0363  0.2374 -0.1470
50977W        W51841  20.085   2.591   1.225 -0.4692 -0.0900  0.2853
50978W        W51842   3.138  25.118   8.328  0.1861 -0.0381  0.1532
50979W        W51843   9.558  12.284  14.623 -0.1589  0.0533 -0.0485
50980W        W51844  24.854  19.798  18.369  0.3384  0.1393 -0.1170
50981W        W51845  21.840  10.154  23.929 -0.1087  0.1678  0.2561
50982W        W51846   2.478   7.650   7.542  0.2344  0.2924 -0.2093
50983W        W51847  22.694   0.067  14.449 -0.3365 -0.2031 -0.2755
50984W        W51848   7.895  24.768  25.258 -0.0181  0.3138  0.0648
50985W        W51849  26.846  22.942   7.966  0.0493 -0.0023  0.1077
50986W        W51850  24.241   1.571  14.509 -0.2666  0.1224  0.0618
50987W        W51851  11.062   0.813  28.081 -0.1304 -0.3347 -0.2311
50988W        W51852  19.129   4.966   6.995 -0.1477  0.0617 -0.2024
50989W        W51853   9.198  13.218  27.943  0.1535 -0.0468  0.0245
50990W        W51854   7.381  11.983   7.294  0.0267  0.0704 -0.4198
50991W        W51855  26.066  15.382   7.284  0.0084 -0.0056 -0.1308
50992W        W51856  20.605  16.376   0.962  0.0867  0.0762 -0.1892
50993W        W51857  11.660  26.155   6.880  0.4109 -0.1957 -0.0361
50994W        W51858   8.752   4.997  24.362  0.0084 -0.1222  0.0123
50995W        W51859  21.903   6.260  11.144 -0.2464  0.3673  0.0555
50996W        W51860  23.050  26.217   7.005 -0.1118  0.1186 -0.1625
50997W        W51861  14.204  21.026   6.052 -0.1341 -0.1240  0.5068
50998W        W51862   5.452  10.013   8.183  0.1492 -0.1775  0.3209
50999W        W51863  22.411   7.460   7.356  0.3712  0.1644 -0.1718
51000W        W51864   6.859   3.485  18.816  0.0656  0.1396 -0.2065
51001W        W51865  13.155   8.969  28.838 -0.1007  0.1621  0.0938
51002W        W51866  11.353   3.314  21.342  0.1626 -0.1305 -0.2377
51003W        W51867   0.559  26.302  26.259  0.0326  0.0268 -0.1175
51004W        W51868  23.895  22.266  19.501  0.2427 -0.1770  0.0607
51005W        W51869  15.613  12.069   6.838 -0.1672  0.1822 -0.0023
51006W        W51870  25.959   9.254  27.096 -0.0523  0.0853 -0.1075
51007W        W51871  20.547  26.672   5.590 -0.1074 -0.1292 -0.0648
51008W        W51872   4.357   6.318   1.276 -0.3574  0.0768  0.0014
51009W        W51873   9.642  16.199  12.470  0.1571 -0.1014  0.2225
51010W        W51874  16.986   8.348  21.456 -0.0072  0.0257 -0.0597
51011W        W51875  20.737   7.146   6.362  0.1454  0.0365 -0.2554
51012W        W51876  22.600  17.402  23.179  0.1892  0.0513  0.0346
51013W        W51877  21.202  24.715   5.598 -0.1222  0.0694  0.1217
51014W        W51878  17.588  23.493   5.372  0.3363  0.2760 -0.1325
51015W        W51879  23.288  20.634   4.968  0.0178 -0.0100 -0.1060
51016W        W51880  11.038  22.966   3.455 -0.1103  0.1581  0.0184
51017W        W51881  25.824  17.307   4.530 -0.0012  0.0364  0.3120
51018W        W51882  12.184  27.806   6.032  0.0748 -0.0619 -0.0142
51019W        W51883  28.481   2.729   7.161  0.1927 -0.1187 -0.0611
51020W        W51884  11.981   7.525   4.978  0.2028 -0.0516  0.1767
51021W        W51885  15.559  13.211  10.101 -0.1937  0.0779 -0.2008
51022W        W51886   5.490  19.039   2.444 -0.1709  0.1898 -0.2365
51023W        W51887  16.515   0.510   1.076 -0.1248  0.3393 -0.1636
51024W        W51888  18.665  28.539   8.850  0.0777  0.0232  0.0213
51025W        W51889   3.174  21.521  27.519  0.1850 -0.2656  0.1137
51026W        W51890  21.361  26.638   5.139  0.0034 -0.0044 -0.1649
51027W        W51891  20.359  10.154   2.913 -0.3097 -0.1302  0.1142
51028W        W51892  18.962  20.522   1.238  0.0922 -0.1568 -0.0035
51029W        W51893   1.296   0.837  28.291  0.4075 -0.1650  0.1151
51030W        W51894  18.868  22.276  21.572 -0.0244  0.2786  0.2161
51031W        W51895   3.793  16.261   5.759 -0.1177  0.0441  0.0217
51032W        W51896  18.976   4.145   2.985 -0.1369  0.3344 -0.0952
51033W        W51897  19.003  17.014  16.579  0.0231  0.0855  0.1695
51034W        W51898   7.569  27.398  27.483  0.0417 -0.0737  0.3207
51035W        W51899  20.078   1.273  15.450  0.1705  0.0495  0.2811
51036W        W51900   3.070   0.231  24.928 -0.0291  0.1063  0.0212
51037W        W51901  12.619  28.288  25.683 -0.0278  0.1423  0.1115
51038W        W51902  24.884   3.934  15.053 -0.0512  0.1213  0.0553
51039W        W51903  13.987   9.682   6.024  0.0341 -0.2608  0.3166
51040W        W51904  27.982  14.999  14.464  0.1877 -0.0281  0.0219
51041W        W51905   0.310   3.042  16.108 -0.0959  0.0768  0.0583
51042W        W51906  21.194   6.570  10.698 -0.0921  0.0348  0.1269
51043W        W51907  21.664  15.834   6.512  0.0133 -0.2884  0.0657
51044W        W51908  16.897  22.160   6.487  0.2500 -0.0569  0.0444
51045W        W51909  22.345  18.267  25.420 -0.0916  0.0488  0.2262
51046W        W51910   2.936  22.446  12.891  0.0351  0.2062 -0.3312
51047W        W51911   8.112  18.364  25.137 -0.1493  0.0607 -0.1016
51048W        W51912  21.407  26.434  14.448  0.0961  0.3532 -0.4087
51049W        W51913  25.293  27.393   6.048 -0.0495  0.4799 -0.1634
51050W        W51914  24.962   2.703   3.419 -0.0750  0.1568 -0.1703
51051W        W51915  27.553  21.754  25.544  0.2837  0.0051  0.2150
51052W        W51916  21.948  20.907  10.804  0.2007 -0.0459  0.0370
51053W        W51917   9.837  22.914   2.355 -0.1997  0.1522  0.0281
51054W        W51918   4.505   9.276  25.641 -0.2235 -0.3186 -0.0453
51055W        W51919  10.058  27.910   5.309  0.1607 -0.0840 -0.0532
51056W        W51920  25.419   7.425  19.032 -0.1409 -0.1949 -0.2799
51057W        W51921  14.805  22.231  25.647  0.1836  0.1311 -0.0056
51058W        W51922  18.278  24.620  12.784  0.2736 -0.2996 -0.2557
51059W        W51923  11.259   1.443   4.309  0.3607 -0.1085  0.0157
51060W        W51924   1.451   1.424   6.112 -0.2311  0.0845  0.2813
51061W        W51925  23.312   0.440   8.408  0.1499 -0.1363 -0.0850
51062W        W51926  27.469  24.790   1.918  0.1406  0.1078 -0.2889
51063W        W51927  16.676  11.826   3.703 -0.4242  0.2041 -0.2227
51064W        W51928   4.505  12.765  10.985  0.1394 -0.1783 -0.1511
51065W        W51929  19.886  26.620   0.759  0.0386 -0.2143  0.0441
51066W        W51930  14.526  24.469   3.551  0.0619 -0.0829 -0.0800
51067W        W51931  24.772   9.281  27.842  0.0404  0.1903 -0.1270
51068W        W51932  27.988  18.703   9.186  0.1899  0.0735  0.0886
51069W        W51933  24.107  25.009  19.777  0.0077 -0.1133  0.1347
51070W        W51934   1.052  20.697  21.872 -0.2985  0.0325 -0.0442
51071W        W51935   4.222   6.976   6.464  0.1934 -0.0898  0.3475
51072W        W51936  21.646  24.479  24.452 -0.2065  0.0896  0.1296
51073W        W51937   1.435   4.042   0.248  0.1165  0.0851 -0.1846
51074W        W51938   9.779  11.676  23.063  0.1258 -0.0130  0.2447
51075W        W51939  17.880   5.842   1.801 -0.1293 -0.3912  0.4493
51076W        W51940  28.440  21.160  23.691 -0.0336  0.0835  0.0611
51077W        W51941  15.470  27.752  11.284 -0.0479  0.4708  0.0707
51078W        W51942  23.108  27.150  19.941  0.0967  0.2071 -0.2937
51079W        W51943   9.900   7.419   4.879  0.1303  0.1913  0.4310
51080W        W51944  11.172   3.900   1.836  0.0662  0.0277 -0.0801
51081W        W51945   4.737  26.054  26.056  0.1008  0.0053  0.0935
51082W        W51946  16.139  12.064  23.899 -0.1724  0.1211  0.0857
51083W        W51947  17.338  25.834  21.554 -0.0758  0.1530 -0.1108
51084W        W51948  23.108  21.227   0.046  0.0413 -0.1442 -0.0910
51085W        W51949  15.621   1.000  13.686  0.2205  0.2394  0.2409
51086W        W51950  25.718  13.761   2.049  0.0331 -0.1376  0.4976
51087W        W51951  17.740  12.192  26.675  0.5176 -0.0225 -0.0910
51088W        W51952  11.767   2.135  26.871 -0.0916  0.0904 -0.0321
51089W        W51953  11.185   1.264   2.253  0.3797  0.0139 -0.0586
51090W        W51954  27.039   9.561  21.060  0.0314  0.1389  0.1233
51091W        W51955  15.430  11.191  18.004 -0.0922  0.2101 -0.1031
51092W        W51956  27.584  14.052  18.778  0.1877 -0.1006 -0.2998
51093W        W51957   4.359  27.308  18.186 -0.0972 -0.0403  0.3748
51094W        W51958  28.630  28.972   4.108  0.2665  0.1439 -0.2809
51095W        W51959   6.173  26.723  17.937 -0.3367 -0.0251  0.2426
51096W        W51960  27.091   2.700  15.174  0.0763  0.1000  0.0803
51097W        W51961  18.844  24.738  23.814 -0.2229  0.0537 -0.2676
51098W        W51962  27.949  15.069  28.962  0.0214 -0.2694 -0.0283
51099W        W51963  16.895   2.556   6.012 -0.0040  0.1791  0.0360
51100W        W51964  16.108   1.125  10.092  0.1298  0.0707 -0.1845
51101W        W51965  14.081  11.035  25.178 -0.2292 -0.0560 -0.2745
51102W        W51966   4.029   3.241  16.385 -0.0331 -0.0311 -0.0937
51103W        W51967  27.456  20.787  18.852  0.1268  0.0227  0.1273
51104W        W51968  18.396  16.552   1.705  0.0876 -0.2303 -0.1198
51105W        W51969   7.909  20.892  19.694  0.4822 -0.0301 -0.1357
51106W        W51970  27.401  10.725   4.534 -0.1411  0.4226 -0.0222
51107W        W51971  21.926   3.096  21.842  0.2144 -0.3652  0.2763
51108W        W51972  28.883   6.816  28.658  0.1205  0.0952  0.0354
51109W        W51973   9.371  20.934  26.316  0.3865 -0.0118  0.0317
51110W        W51974  15.837  29.012  14.360 -0.2526  0.0632 -0.0450
51111W        W51975   0.714   7.503  24.747 -0.2774 -0.1389  0.3272
51112W        W51976  16.435  17.889   3.159  0.2145  0.0950 -0.2113
51113W        W51977   4.997  14.700   6.159  0.4263  0.2122 -0.0353
51114W        W51978  16.286  14.551  24.475 -0.0230 -0.2292 -0.0335
51115W        W51979   8.876   4.574  16.548  0.0515  0.0400  0.2383
51116W        W51980  17.708  22.409  22.343  0.0808  0.1216  0.0330
51117W        W51981  14.752  25.675   6.300  0.1686  0.0238 -0.0165
51118W        W51982  22.515  12.397   7.674 -0.0478  0.0676  0.1116
51119W        W51983  17.246  11.683  10.101  0.0882 -0.0151 -0.2165
51120W        W51984  28.840   2.351  21.771 -0.0673 -0.0515 -0.5332
51121W        W51985  16.133  12.357   0.752 -0.4801  0.1609 -0.1334
51122W        W51986  24.646  21.687   0.727 -0.0245  0.1496  0.1339
51123W        W51987   8.321   7.482   0.220  0.1451  0.0199  0.0250
51124W        W51988   9.528  26.612  17.960  0.1019  0.0158  0.0102
51125W        W51989  20.030   5.106  27.383  0.0855  0.2845  0.2373
51126W        W51990   4.234   0.083  10.923 -0.2378 -0.2440  0.4229
51127W        W51991   0.286   9.826  20.297 -0.1473  0.1316  0.3629
51128W        W51992  22.715  18.546   6.574 -0.0257 -0.1537  0.1101
51129W        W51993  14.176  27.371   5.622 -0.0982  0.1399  0.0600
51130W        W51994  16.270   0.885   6.767  0.1163 -0.0539  0.2996
51131W        W51995  16.459  27.260  11.244  0.2369 -0.0858  0.1076
51132W        W51996   7.197   6.356  15.312  0.1443  0.1312 -0.2595
51133W        W51997   8.623  25.598   0.802 -0.0479 -0.4905 -0.2762
51134W        W51998   5.599  27.644   3.091 -0.0262 -0.0544 -0.1413
51135W        W51999   2.449  28.644  10.744 -0.1949 -0.3074 -0.0183
51136W        W52000   1.775   7.736   1.762  0.0279 -0.1007  0.1254
51137W        W52001  25.285  14.933  13.196  0.2456  0.1098  0.1401
51138W        W52002  13.728  16.118  21.864  0.0847 -0.4014  0.1850
51139W        W52003  22.662   5.899  22.905  0.1654 -0.0343 -0.0753
51140W        W52004  14.680   4.182   5.509  0.0998 -0.1331 -0.0251
51141W        W52005  14.489  25.280   4.198 -0.1058 -0.0615  0.3520
51142W        W52006   2.035  27.238   7.185  0.1963  0.2609  0.0119
51143W        W52007  22.417  16.574   0.381  0.0748 -0.2454  0.0051
51144W        W52008  17.722   2.078   4.844 -0.4248  0.2126  0.1070
51145W        W52009  26.616   7.725   4.009 -0.1910 -0.1681 -0.1268
51146W        W52010   1.169  10.289   3.891 -0.2807  0.2904 -0.0587
51147W        W52011  12.368  24.570  13.063 -0.2105 -0.0438 -0.2439
51148W        W52012  26.786  21.556   0.986  0.3362  0.2276 -0.0025
51149W        W52013  22.184  10.318  19.238 -0.1525 -0.2743  0.1069
51150W        W52014  25.992   5.794   9.621  0.0626 -0.3202 -0.0216
51151W        W52015  28.723   8.611  24.549  0.2033  0.1611 -0.0207
51152W        W52016  19.990   4.819  26.963  0.0420  0.4084  0.2626
51153W        W52017  19.175  28.657   8.854 -0.1975  0.2086 -0.1370
51154W        W52018  17.945   0.917   7.751 -0.2727 -0.0519  0.0287
51155W        W52019   1.782  26.666  12.439  0.0675  0.2073 -0.1553
51156W        W52020   7.215  23.549  10.748 -0.0840 -0.0951  0.0383
51157W        W52021  28.198  19.726   1.623 -0.3415 -0.1602 -0.3888
51158W        W52022  23.964  15.550  16.476  0.0663 -0.1686  0.1518
51159W        W52023   2.835   3.904  10.823  0.0893  0.1387 -0.0863
51160W        W52024   7.261  15.957   4.355 -0.1494 -0.3469  0.0778
51161W        W52025  19.455  13.666  15.398 -0.2126  0.1673 -0.1070
51162W        W52026  20.688   4.118  25.637  0.1158  0.4056 -0.0924
51163W        W52027  14.362  27.036  28.013 -0.0322 -0.1413 -0.0620
51164W        W52028   4.324  19.392  28.010  0.1316  0.1083 -0.0189
51165W        W52029  10.993  23.342  20.882 -0.0637  0.3835  0.1770
51166W        W52030  20.998   3.905   2.331 -0.0891  0.2965  0.0912
51167W        W52031  12.404  17.312  23.606 -0.3264 -0.0075  0.1330
51168W        W52032  16.502  21.412  22.775  0.1078 -0.1792 -0.1289
51169W        W52033  19.697  25.009  14.260 -0.0717  0.1552  0.0177
51170W        W52034   7.375   6.771   9.843 -0.0773 -0.0810 -0.0974
51171W        W52035  16.874  24.446  28.736  0.1163  0.0354 -0.0872
51172W        W52036   0.181  28.322  16.002  0.0863 -0.1485  0.1095
51173W        W52037  20.961  28.525  12.909  0.2452 -0.2293 -0.1604
51174W        W52038  18.290   1.634  18.648  0.0788 -0.1647  0.1250
51175W        W52039   8.591   7.488  17.823 -0.1217 -0.3148 -0.0798
51176W        W52040  27.653  23.535   6.412  0.1723  0.1711  0.1701
51177W        W52041  11.915   0.988  18.791  0.0868  0.0960 -0.0969
51178W        W52042  16.703   8.903  11.244  0.1842 -0.0381 -0.0279
51179W        W52043  23.389  23.936  24.381 -0.2634 -0.0638  0.1302
51180W        W52044  24.984  28.916   9.924 -0.0524 -0.1631  0.3336
51181W        W52045   6.972  13.870   3.764  0.3230 -0.2548  0.1541
51182W        W52046   0.641   4.277  15.061 -0.0962 -0.0813 -0.0784
51183W        W52047  14.543  27.209  18.803 -0.2579 -0.1064 -0.1608
51184W        W52048   8.914  22.536   9.788  0.2108 -0.0280  0.0706
51185W        W52049  25.852   2.922  26.294  0.0133 -0.2578  0.4356
51186W        W52050  16.794  29.109  19.111  0.1091  0.3397 -0.0944
51187W        W52051   7.904   9.040  11.681 -0.1800 -0.2240 -0.0489
51188W        W52052  28.015   3.821  19.259 -0.1752 -0.2225 -0.1558
51189W        W52053  17.544   8.260  20.043 -0.0314 -0.1066  0.1109
51190W        W52054  20.478  26.926   8.956  0.0579 -0.0424 -0.1269
51191W        W52055   3.202  29.091  21.160 -0.3659 -0.2077  0.0312
51192W        W52056  25.934  24.821  26.634 -0.0584  0.1419 -0.3664
51193W        W52057   2.383   3.923   5.383  0.1530  0.1500  0.0035
51194W        W52058  14.812  17.440  11.736  0.2323 -0.0155 -0.0762
51195W        W52059   7.778   6.470  18.397 -0.3935  0.0295  0.0972
51196W        W52060   3.578  18.268  21.091 -0.0466  0.2510  0.0374
51197W        W52061  25.515  14.396  14.166  0.0367 -0.3243 -0.1795
51198W        W52062  24.453  16.313  28.124 -0.3739  0.0355  0.0323
51199W        W52063   5.323  25.234   4.535  0.1331  0.1339  0.1542
51200W        W52064   1.788  17.848   8.133 -0.1606 -0.1991  0.1550
51201W        W52065  19.585  23.362  23.733  0.2268 -0.1883  0.1291
51202W        W52066   4.813   4.695   4.647  0.0023 -0.0652  0.2616
51203W        W52067  25.650  22.856   2.033 -0.0155 -0.1948 -0.1213
51204W        W52068  19.080  13.331   7.834  0.0473  0.0767 -0.0737
51205W        W52069  28.563   5.226   4.412 -0.1852  0.0358  0.1688
51206W        W52070  26.700  23.382  16.708  0.1386  0.0170 -0.3694
51207W        W52071   1.857  16.753  13.180  0.0375 -0.2715 -0.0311
51208W        W52072  14.659   6.115  12.496  0.3933 -0.2280  0.1370
51209W        W52073  28.513   5.358   3.436 -0.1234 -0.1096 -0.0511
51210W        W52074  26.040  24.118   3.350 -0.0250  0.3288 -0.1210
51211W        W52075  12.221  12.312  21.495 -0.0383  0.0667  0.1179
51212W        W52076  19.346  25.388  10.604 -0.2407 -0.2562  0.1310
51213W        W52077  21.181  26.902   4.492  0.0485 -0.0533  0.1330
51214W        W52078  12.433   1.418  11.802  0.3054  0.0263  0.2495
51215W        W52079  19.403   8.131  25.551 -0.4227 -0.0887 -0.2191
51216W        W52080   1.123  12.117   5.818  0.0591 -0.3180  0.0974
51217W        W52081   2.720   3.393  10.156 -0.0712 -0.2996  0.1312
51218W        W52082  24.320   5.033   0.062  0.1188 -0.1652 -0.0415
51219W        W52083   4.185   5.714   0.474  0.4206  0.3607  0.1521
51220W        W52084  22.017  15.318  10.657  0.1813  0.0583 -0.1477
51221W        W52085  22.098  11.229   9.025  0.1814  0.4461 -0.0936
51222W        W52086  16.590   5.891  22.269 -0.1673 -0.1710 -0.3529
51223W        W52087  17.956   2.735   2.852 -0.0663 -0.1149 -0.0563
51224W        W52088  11.930  28.610  14.768 -0.0842 -0.0777 -0.1779
51225W        W52089   9.019  17.627   6.967 -0.2405 -0.3233  0.0458
51226W        W52090  16.239   2.551  13.372 -0.2103 -0.1816 -0.1106
51227W        W52091   5.602   0.387   6.980  0.0316  0.2052 -0.3349
51228W        W52092   7.489  23.943  25.650 -0.0315 -0.0140 -0.2878
51229W        W52093  25.805  29.087  17.028  0.1021 -0.0441 -0.0025
51230W        W52094  10.188   2.687  28.399 -0.2229  0.1897 -0.1028
51231W        W52095  21.751  26.199  14.138  0.1053 -0.0598  0.0460
51232W        W52096   0.352  17.901   4.460  0.0694 -0.2625 -0.0183
51233W        W52097  23.599   3.504  23.140 -0.0502  0.1754  0.2770
51234W        W52098  14.834   0.691   8.548  0.0525 -0.2614  0.0555
51235W        W52099  25.915  12.347  10.271  0.2378 -0.4275 -0.2015
51236W        W52100  11.940   6.809  17.784  0.1553  0.2304  0.0713
51237W        W52101  23.615   1.175   1.127 -0.2475 -0.0262 -0.2287
51238W        W52102  12.003   7.622   5.514 -0.0650 -0.1955  0.1150
51239W        W52103  28.936   3.036  23.256  0.1675  0.0442  0.0481
51240W        W52104  18.746  17.618  18.151 -0.2915  0.0737 -0.1370
51241W        W52105  23.129   0.480  13.425 -0.0651  0.2389  0.0918
51242W        W52106   1.780   6.923   1.521  0.1096 -0.3389 -0.0479
51243W        W52107  10.633  20.378   8.603  0.0978 -0.1829 -0.0607
51244W        W52108  23.593  18.837  21.679 -0.1919  0.0999  0.2848
51245W        W52109  16.792  14.485   8.471  0.0847 -0.1588  0.1547
51246W        W52110  11.680  23.381   3.690 -0.0562 -0.0172  0.0666
51247W        W52111   4.169  15.875   8.416  0.0890  0.0128 -0.1919
51248W        W52112  21.193  23.734  21.714  0.1258  0.1623  0.1361
51249W        W52113   6.626  26.289  24.825  0.1582 -0.0046 -0.2124
51250W        W52114  15.063   5.399  12.167 -0.1129  0.2350 -0.0099
51251W        W52115   6.878  26.164  26.569  0.0132 -0.2922 -0.0789
51252W        W52116   0.189  28.220  13.432 -0.0436 -0.2370  0.0759
51253W        W52117   3.502   0.359   8.202  0.1652 -0.0119 -0.0310
51254W        W52118  23.675   1.036  28.781  0.0623 -0.2320 -0.0520
51255W        W52119  14.487   1.224  28.327 -0.4973 -0.1380 -0.1616
51256W        W52120  15.490  20.640   0.567 -0.0174  0.1740  0.1360
51257W        W52121  10.642  16.571   8.660 -0.1842 -0.0630  0.0409
51258W        W52122  19.997   9.471   6.578  0.2047 -0.1719  0.2639
51259W        W52123   0.001   0.135  21.197  0.2333 -0.0901 -0.2687
51260W        W52124  19.969  14.564   2.015 -0.1216 -0.3368  0.1689
51261W        W52125   8.969  11.198  17.820 -0.1307  0.1153  0.1399
51262W        W52126  23.512  14.661   6.572 -0.2940  0.0711  0.0414
51263W        W52127  21.489  10.195  13.241 -0.2228 -0.4361 -0.0119
51264W        W52128   5.573  18.641  21.315  0.1095  0.0595 -0.2851
51265W        W52129  16.112   0.643  26.253  0.0149  0.0852 -0.1327
51266W        W52130  19.177   5.294  10.975  0.1022 -0.4640 -0.1595
51267W        W52131  23.821   9.045  12.350 -0.2244  0.1076 -0.0998
51268W        W52132  20.469  22.473   5.785  0.1297  0.0517  0.1098
51269W        W52133  24.911  21.258  10.553 -0.2518  0.1003 -0.1225
51270W        W52134  16.351   5.132  20.346  0.0423 -0.0262  0.0635
51271W        W52135  28.350   6.510  11.115 -0.1862  0.0960  0.1987
51272W        W52136  25.250   0.222  28.946 -0.4129  0.0716  0.1842
51273W        W52137   6.716  12.059   8.615  0.0892 -0.0650 -0.1259
51274W        W52138  22.038  20.737  13.993  0.2420 -0.1863 -0.1308
51275W        W52139   2.117  25.357   6.570  0.0475  0.2834  0.0433
51276W        W52140  27.324  22.535  15.373  0.0028 -0.1856  0.1047
51277W        W52141  23.791  20.010  19.466  0.0182 -0.1698  0.0731
51278W        W52142  23.499   9.665  15.837  0.1560  0.1376  0.1131
51279W        W52143   2.559  20.978   2.396  0.1410  0.0501 -0.0912
51280W        W52144  26.887  27.158  25.131 -0.1275  0.1949  0.0575
51281W        W52145  24.140   2.159   1.860 -0.2042  0.2580 -0.0525
51282W        W52146  11.193   9.840   4.357 -0.2460 -0.0917  0.0771
51283W        W52147  24.666   6.489  11.493  0.1685 -0.0634 -0.0994
51284W        W52148  13.869  28.893  10.009 -0.1095  0.0611  0.1310
51285W        W52149   3.200  16.964  16.647  0.0236  0.0481 -0.2520
51286W        W52150  19.739   5.154  16.269 -0.0948 -0.1162  0.0386
51287W        W52151  24.583  24.837  18.151  0.0139  0.0127  0.3109
51288W        W52152   4.206  15.313  28.429  0.1539 -0.2328  0.1188
51289W        W52153  15.563   4.976   9.397 -0.2977  0.0734  0.0145
51290W        W52154  27.846  17.237  10.710  0.1824  0.0750 -0.1129
51291W        W52155  10.764   0.317  11.862 -0.2394  0.0806  0.2616
51292W        W52156  14.775  10.391  12.827  0.2356 -0.0492  0.0787
51293W        W52157   6.571   6.065  18.818 -0.0832 -0.3994  0.1083
51294W        W52158  24.922  23.195  13.123  0.2643 -0.1175  0.0372
51295W        W52159  22.119  12.229  12.156 -0.2884  0.1347  0.1486
51296W        W52160  17.262   9.117  23.428  0.0933  0.1580  0.0329
51297W        W52161   5.120   5.296  10.147  0.3715 -0.1458 -0.0507
51298W        W52162  16.459  28.585  14.917 -0.3068  0.0448  0.0326
51299W        W52163  27.482   2.239  16.445  0.1006  0.0919 -0.0048
51300W        W52164  19.748  10.940  20.933  0.3610 -0.5221 -0.1117
51301W        W52165  18.007   6.131   3.363  0.0085 -0.1317 -0.2609
51302W        W52166   9.269  20.697  22.227 -0.0341 -0.0841 -0.1636
51303W        W52167   9.858   3.817  19.111 -0.1436 -0.0064 -0.0352
51304W        W52168  21.795  25.567  23.652 -0.0173  0.0945 -0.1461
51305W        W52169   3.249   9.501  22.092  0.0342  0.0632 -0.0147
51306W        W52170   4.449  28.634   9.806 -0.0753 -0.1195 -0.1097
51307W        W52171   6.799  10.211   4.599  0.2318 -0.0705  0.0876
51308W        W52172   2.485   2.024  17.878  0.3120  0.3379  0.3971
51309W        W52173  18.517   3.968  16.636  0.2658 -0.1017 -0.1101
51310W        W52174  19.102  25.725  27.056  0.0900  0.1139  0.1262
51311W        W52175  22.187   6.741  16.141 -0.0712  0.4791  0.1622
51312W        W52176  26.191  16.257  23.642  0.1943 -0.1548  0.0824
51313W        W52177  16.622  13.368   8.042  0.0277 -0.3342 -0.0935
51314W        W52178  12.102   8.256  12.715 -0.0347  0.0402 -0.2501
51315W        W52179  12.491  25.659   8.611  0.4870 -0.1169 -0.2297
51316W        W52180   5.914  14.792  13.288  0.2220  0.1807 -0.1028
51317W        W52181  14.043  28.818  16.649 -0.1976  0.0179  0.0791
51318W        W52182  10.087   0.148  26.933  0.2106 -0.0044 -0.0859
51319W        W52183  28.977   2.947   4.606 -0.0990 -0.1376  0.3415
51320W        W52184  22.063  11.363  14.074  0.1666 -0.0818 -0.2186
51321W        W52185  10.226   1.527  21.018  0.3394 -0.3501  0.2052
51322W        W52186  11.081   8.864   7.214 -0.0275 -0.1484 -0.1391
51323W        W52187  23.041   0.321  24.560  0.3177 -0.0441 -0.1356
51324W        W52188  25.412   5.836  19.455  0.2765 -0.1158  0.0351
51325W        W52189  17.174  15.204  13.851  0.0947 -0.1312  0.0768
51326W        W52190   6.725  14.805  12.758  0.3620 -0.0416 -0.1015
51327W        W52191   6.397  25.970   1.997  0.1079  0.0017 -0.0385
51328W        W52192  24.577   3.674   8.064  0.0590  0.1612 -0.1186
51329W        W52193  18.234  12.303  12.889  0.1813 -0.3038  0.0849
51330W        W52194  22.174   6.277  19.289  0.0528  0.1154  0.0034
51331W        W52195  16.127  22.772   6.046 -0.1553  0.1495  0.0738
51332W        W52196  13.900  21.619   2.655 -0.2073 -0.1009  0.0763
51333W        W52197  13.013  12.697  24.453 -0.1534  0.0602 -0.1765
51334W        W52198  21.682  24.417   8.348 -0.1730 -0.2108  0.0735
51335W        W52199  24.906   0.092  11.127  0.1653  0.2563 -0.1309
51336W        W52200  24.958   2.006  24.907  0.1827 -0.0720 -0.2357
51337W        W52201   8.248  28.315  28.243 -0.0675  0.0252 -0.0194
51338W        W52202  11.069   0.440  28.653  0.0865 -0.0282  0.0943
51339W        W52203   4.050   1.683  20.073  0.2099 -0.1217 -0.0023
51340W        W52204  29.091  21.966  10.843  0.4584 -0.1511  0.0838
51341W        W52205  21.766  13.993   0.420  0.1272  0.1211  0.1996
51342W        W52206  26.559   3.051  15.861 -0.0313 -0.3699 -0.3458
51343W        W52207  13.538  19.506  16.120 -0.1519 -0.1677  0.1926
51344W        W52208  23.751  20.591   0.187  0.2354 -0.0128 -0.0038
51345W        W52209  19.853  24.017  11.247  0.0199 -0.2315  0.0487
51346W        W52210  21.336  14.319  11.288  0.2621  0.3637 -0.2131
51347W        W52211  10.289  10.904   8.170 -0.1771  0.1829  0.0497
51348W        W52212   8.956  16.728  28.155 -0.2761  0.3202  0.0681
51349W        W52213  22.674  13.856  18.354  0.0868  0.0151 -0.1691
51350W        W52214  20.342   5.733  13.589  0.1037  0.1021  0.1626
51351W        W52215  22.920  26.264  23.961 -0.2010 -0.2604 -0.0633
51352W        W52216   5.247  24.382   8.753 -0.3816  0.0679 -0.1892
51353W        W52217  24.122  21.412   4.344 -0.4627 -0.1088  0.0698
51354W        W52218  17.012   0.653  17.247 -0.2122  0.1244 -0.1799
51355W        W52219   2.582  27.800  21.693 -0.2131 -0.0358 -0.0279
51356W        W52220  21.114  28.943  17.302  0.1914  0.2064 -0.3152
51357W        W52221   7.810  12.136  18.647  0.0374  0.0178 -0.0227
51358W        W52222  21.073  19.690  15.241  0.2848 -0.0924 -0.0677
51359W        W52223   9.735  22.549  11.942  0.0389 -0.0499 -0.1307
51360W        W52224   1.768  26.996   9.495  0.0176 -0.1894  0.0153
51361W        W52225   9.111   4.518  14.758 -0.2152 -0.2199  0.0177
51362W        W52226  11.231  21.742  20.599 -0.0958  0.1024 -0.1931
51363W        W52227  13.181  18.274  14.430  0.2374 -0.0600  0.1928
51364W        W52228  19.375  25.579   9.168  0.0037  0.1752 -0.0885
51365W        W52229  17.339  27.241  28.531 -0.0388  0.1210 -0.3261
51366W        W52230  22.171  23.445  17.124  0.0921  0.0606  0.1796
51367W        W52231  24.417   3.404  20.979  0.1034 -0.0885  0.0214
51368W        W52232  10.569  17.328  10.435  0.3530 -0.2709  0.0945
51369W        W52233  23.768  26.541   3.076 -0.1977 -0.0880 -0.2519
51370W        W52234   5.458  28.389   4.338 -0.0869 -0.0690 -0.3755
51371W        W52235  20.109  10.872  29.092  0.1334  0.0559  0.2814
51372W        W52236  27.429  26.743  20.918  0.3589  0.2910 -0.2198
51373W        W52237  14.789  17.538   0.710  0.1951 -0.0574  0.1077
51374W        W52238   4.203  21.793  14.568 -0.0382  0.0109 -0.1724
51375W        W52239  18.601  15.091  10.989  0.1437 -0.2215  0.0532
51376W        W52240  20.746   4.826   8.766 -0.1979  0.2346  0.1381
51377W        W52241  24.990  18.363  22.978 -0.1090  0.2875 -0.0931
51378W        W52242   6.417  17.147  28.675 -0.0932 -0.0854 -0.1388
51379W        W52243   8.599  21.836   0.818 -0.1246 -0.0217 -0.0917
51380W        W52244  21.464  17.857  21.770  0.0120  0.3082  0.2675
51381W        W52245   1.742   7.806  23.077  0.2155  0.2886  0.2717
51382W        W52246  24.302  14.051   4.436  0.1890  0.0249  0.1215
51383W        W52247  23.166  26.055  12.778  0.0353  0.0086  0.1923
51384W        W52248   5.206  21.348   2.851  0.0852 -0.0082  0.1270
51385W        W52249  17.365   5.627  25.535  0.0937 -0.0843  0.3127
51386W        W52250  11.976  10.510  27.576  0.0570  0.0399  0.1403
51387W        W52251  16.847   8.773  22.754 -0.0905  0.3086  0.1303
51388W        W52252  29.096  27.809   7.627 -0.0330  0.1381 -0.0075
51389W        W52253   0.350  23.600   8.184  0.0536 -0.0267  0.0230
51390W        W52254   9.126  19.096   9.059  0.0332  0.0510  0.3123
51391W        W52255  27.491   5.151  15.580 -0.4254 -0.0077  0.2811
51392W        W52256  22.683   9.118   0.401 -0.2314  0.0629  0.1718
51393W        W52257  19.892  13.622  10.125 -0.1479 -0.0806  0.0516
51394W        W52258  11.492  25.787   7.181 -0.0861 -0.3525 -0.1970
51395W        W52259  18.303   5.794  12.224  0.0804  0.0871  0.1661
51396W        W52260  18.436   4.227   0.626  0.1141 -0.1016 -0.2882
51397W        W52261  27.254   4.521  13.030  0.0805  0.0410  0.1006
51398W        W52262   8.725  24.857   8.183 -0.3496  0.2567 -0.3089
51399W        W52263  22.721  25.423  19.449 -0.1265 -0.2422 -0.0639
51400W        W52264   2.014  29.112  28.952  0.1318 -0.0096 -0.2350
51401W        W52265  29.038  25.118  16.366  0.0244 -0.0778  0.2674
51402W        W52266   9.203  22.708   9.384  0.0754  0.0259 -0.0397
51403W        W52267  13.861  28.043   3.181  0.0581  0.0758 -0.0028
51404W        W52268  12.228   4.855   3.029 -0.0037  0.1250 -0.0352
51405W        W52269  19.780  13.768  17.465  0.0499 -0.1663 -0.0616
51406W        W52270  23.388  21.823   2.384 -0.3281 -0.3445  0.0587
51407W        W52271  13.213  25.977  21.103  0.0741 -0.1975  0.3760
51408W        W52272   0.717  18.323   9.122  0.1025 -0.0279  0.5415
51409W        W52273  15.994   0.194  15.248  0.0684 -0.2094  0.5295
51410W        W52274   7.203  28.228   7.570  0.0204  0.1906 -0.2190
51411W        W52275  22.616   2.533  28.794  0.1953 -0.1497  0.4308
51412W        W52276  26.162  17.094  28.094  0.2775 -0.2511  0.0174
51413W        W52277  24.479  20.438   9.730  0.0408 -0.1389  0.1151
51414W        W52278  11.535  10.285  17.027  0.3149 -0.1790 -0.2381
51415W        W52279  10.444  15.923  14.647  0.2383  0.2012 -0.0317
51416W        W52280   9.521  14.263  27.081 -0.1777  0.1988 -0.0613
51417W        W52281  16.348   7.213   8.654  0.2287 -0.1174 -0.2939
51418W        W52282  21.974   4.237   4.932 -0.0099 -0.0135 -0.0637
51419W        W52283  21.439   9.000  28.999 -0.2347 -0.1681  0.1618
51420W        W52284  19.542  18.636  22.753 -0.1986  0.3417  0.2475
51421W        W52285   3.907  28.942   4.114  0.0143  0.0275 -0.1920
51422W        W52286  16.031   2.553  12.242 -0.0190  0.1994 -0.1612
51423W        W52287  21.678  16.323   1.927 -0.1876 -0.0452 -0.2711
51424W        W52288  28.004   2.310   8.366  0.0431  0.0016  0.3612
51425W        W52289  20.107  27.428   9.327  0.2866 -0.0407 -0.0523
51426W        W52290  15.020  20.749  17.316 -0.1747  0.2427 -0.1940
51427W        W52291  19.999  27.131  26.546 -0.0185  0.0356 -0.1619
51428W        W52292   5.235   6.356  27.721  0.1997 -0.1143  0.0355
51429W        W52293   0.894  26.482   9.877 -0.2791  0.1712 -0.0411
51430W        W52294   2.819   2.992  27.500  0.0095 -0.1895  0.1568
51431W        W52295  24.346  11.752   7.413 -0.3581  0.2753 -0.1104
51432W        W52296  15.441  20.991  23.705 -0.1156  0.1036 -0.1020
51433W        W52297  19.811   9.182  26.364 -0.0002 -0.0224  0.0310
51434W        W52298   9.685   6.086   9.717 -0.0484 -0.2290  0.1435
51435W        W52299  15.151  27.086  12.865  0.0118  0.3036  0.0694
51436W        W52300   0.982  28.134   5.218  0.2196 -0.2551 -0.2404
51437W        W52301  18.762  22.591  11.136 -0.1055  0.0616  0.1040
51438W        W52302  24.560  23.780   4.316 -0.0829 -0.0782  0.2766
51439W        W52303   1.324   7.826  18.422 -0.1942  0.0984  0.5092
51440W        W52304  17.474  26.614  29.140  0.1036  0.2407 -0.1804
51441W        W52305  28.174   1.021  23.698  0.3643 -0.0427  0.0200
51442W        W52306   7.039   7.042   5.289 -0.1354 -0.0525 -0.0652
51443W        W52307  25.201  19.112   9.060 -0.0385 -0.0480 -0.1440
51444W        W52308  14.449  16.111  18.637 -0.2185 -0.0163  0.1259
51445W        W52309  13.317  12.794   8.664 -0.1608 -0.0609  0.0609
51446W        W52310   7.258  10.559   7.044  0.1192  0.0805 -0.0283
51447W        W52311  11.079  25.044  22.382 -0.1485 -0.4371 -0.2339
51448W        W52312  25.717  17.461  23.496 -0.1506  0.0389  0.0263
51449W        W52313  18.788  27.699   3.151 -0.0369 -0.0405 -0.2804
51450W        W52314  26.894   6.512  21.465 -0.3679  0.2537  0.1090
51451W        W52315  14.774  24.570  10.152  0.1327 -0.1470  0.0193
51452W        W52316  11.077   7.856  12.821 -0.0373 -0.1383  0.1002
51453W        W52317   5.788  26.894   3.952 -0.1139 -0.1218  0.0683
51454W        W52318  23.910   5.929  12.448 -0.0079 -0.1967  0.1330
51455W        W52319  22.704   2.720  23.221  0.1369 -0.2206 -0.2126
51456W        W52320  26.942  17.334  20.023  0.0499  0.1652  0.0480
51457W        W52321  22.316   0.614   2.994 -0.1028 -0.2480 -0.0209
51458W        W52322  10.681  22.973  26.656 -0.0516 -0.0635  0.0311
51459W        W52323   0.769   3.241   2.051  0.0097 -0.1434 -0.1605
51460W        W52324  13.570   2.223  17.849  0.2579 -0.0782  0.1012
51461W        W52325  15.853   0.838   2.619 -0.2264  0.2065 -0.0398
51462W        W52326  19.720   3.898  13.409  0.0118  0.1282 -0.1531
51463W        W52327  14.730  14.449   9.750  0.3079  0.0975  0.2289
51464W        W52328  28.267  24.652  10.409 -0.1936 -0.2716  0.1811
51465W        W52329  20.172  21.644   7.851  0.0192 -0.0250  0.3031
51466W        W52330   6.095  25.978   9.955 -0.2119 -0.2098  0.0034
51467W        W52331  18.004  18.088   6.594 -0.0319 -0.1957  0.2444
51468W        W52332  18.849  25.310  14.399 -0.1853  0.4265 -0.0023
51469W        W52333  11.841  13.628   4.393 -0.0004 -0.3381 -0.0393
51470W        W52334  11.873   3.855  20.157  0.3224 -0.1769  0.1772
51471W        W52335  20.317  22.355  20.187 -0.2795  0.1500  0.1329
51472W        W52336  18.881  26.881  25.530  0.2925  0.2513 -0.2995
51473W        W52337   9.663   4.961  22.936 -0.1826 -0.2071 -0.1950
51474W        W52338  26.475   5.240  20.622  0.0342 -0.0359  0.0857
51475W        W52339  19.861  19.508  28.718  0.1540  0.0440  0.2067
51476W        W52340  12.568  24.955  25.984  0.1271 -0.1561  0.3183
51477W        W52341  19.481  21.590  25.625 -0.0181  0.2089 -0.1143
51478W        W52342   7.011   9.283   4.612  0.1037  0.1702  0.3214
51479W        W52343   1.334  17.484  20.977 -0.2000 -0.0299 -0.0408
51480W        W52344  28.923   9.684  21.240 -0.0878  0.2086  0.2671
51481W        W52345  21.970  26.224  18.734 -0.0420 -0.3312  0.0365
51482W        W52346   0.024  28.613  19.190  0.0567 -0.1310 -0.2678
51483W        W52347   6.912  18.980   2.347  0.1372  0.0371  0.2550
51484W        W52348  28.930  21.983  18.095 -0.0284  0.0227 -0.1800
51485W        W52349  21.385  17.293  14.534 -0.1736  0.3056  0.1542
51486W        W52350  24.199  28.171  26.572 -0.1274 -0.3011  0.1644
51487W        W52351  14.788  13.976  15.667 -0.1257 -0.2610 -0.0750
51488W        W52352   1.985   9.947  13.241 -0.1944 -0.1695  0.0586
51489W        W52353  11.232   2.252  27.083 -0.1603 -0.2790  0.0362
51490W        W52354  23.279  27.025  12.612  0.0419 -0.2191 -0.2556
51491W        W52355  12.270  17.182   8.682 -0.4511  0.1189 -0.0231
51492W        W52356   1.125   2.712   2.007  0.0932  0.1088  0.0239
51493W        W52357   7.508  24.172  11.932 -0.0481 -0.0582  0.0412
51494W        W52358  21.140  25.972   2.930 -0.1745  0.0500  0.1006
51495W        W52359  23.404  20.061  23.882 -0.0770 -0.3931  0.0030
51496W        W52360   6.364  20.474  18.439  0.1729  0.2441 -0.0554
51497W        W52361  20.248  10.240  24.156 -0.0028  0.0352  0.1474
51498W        W52362  25.654  25.656  20.349 -0.3215 -0.0865  0.0929
51499W        W52363  18.048  23.516   6.615 -0.0703 -0.1585  0.1949
51500W        W52364  12.608   8.282  12.578 -0.0135 -0.0568  0.0437
51501W        W52365  17.224  24.246  26.799  0.0565  0.0182 -0.1248
51502W        W52366   9.687   8.776  10.620  0.0761  0.0150 -0.1146
51503W        W52367  24.606  13.713   1.845 -0.1581  0.2113  0.3432
51504W        W52368   7.159   3.250  23.224  0.0575 -0.2265  0.1856
51505W        W52369  27.854  26.566  18.104  0.2986 -0.1936 -0.3375
51506W        W52370  10.164  15.223  11.343 -0.1485  0.0098 -0.0924
51507W        W52371   6.112   6.317  10.371 -0.0614  0.0562 -0.0828
51508W        W52372   2.478  24.487  15.723  0.0975 -0.2521  0.3476
51509W        W52373  12.765  13.690  23.886  0.0737  0.0867 -0.3473
51510W        W52374  13.723   8.881   2.195  0.0429 -0.0604  0.2284
51511W        W52375   0.952  19.160   1.171 -0.1032 -0.0206  0.3092
51512W        W52376  13.755  23.134   1.802 -0.1790 -0.1271  0.1023
51513W        W52377   3.752  22.488   4.679  0.0289  0.0420 -0.0783
51514W        W52378   5.500  27.426  26.297 -0.1255 -0.0498  0.2056
51515W        W52379  24.648  25.854  12.858 -0.1998  0.0264 -0.1398
51516W        W52380  24.707  16.596  16.194 -0.0774  0.2806  0.0321
51517W        W52381  22.222  17.344  26.156  0.1687  0.1380  0.2364
51518W        W52382  27.564  24.583  12.106 -0.2715 -0.1947  0.0613
51519W        W52383  21.317  27.457  13.376  0.1282 -0.0355 -0.2001
51520W        W52384  22.382  10.807  16.502  0.0517 -0.0427 -0.1829
51521W        W52385  19.470  27.190  11.928 -0.1555  0.3797 -0.2991
51522W        W52386  17.735   6.340  14.881 -0.0923 -0.0127  0.2291
51523W        W52387   9.064   0.970  14.697 -0.0771  0.0805  0.2307
51524W        W52388  12.603   7.251  18.352  0.0351 -0.0196  0.1534
51525W        W52389  26.550   3.437   8.232  0.0712 -0.3056 -0.2157
51526W        W52390  29.121   6.304   8.597 -0.0145  0.0945 -0.1856
51527W        W52391   5.412  10.365  16.047 -0.2743  0.1832 -0.0530
51528W        W52392  19.890   0.335   1.465 -0.1292  0.0018 -0.0036
51529W        W52393  11.378  18.160   8.790  0.2399 -0.1872 -0.2286
51530W        W52394  18.081  14.435  20.748 -0.1270 -0.2536 -0.0698
51531W        W52395  23.496  28.203  19.351 -0.5711  0.0676 -0.0752
51532W        W52396  23.009   9.851  17.918 -0.1850 -0.1334  0.1332
51533W        W52397   9.556   3.802   5.519  0.1936 -0.0501 -0.2956
51534W        W52398   6.085  23.068  13.697  0.1036  0.2822 -0.2545
51535W        W52399  27.826  14.956   5.794  0.1547  0.0813  0.3428
51536W        W52400  11.656  23.605  24.020 -0.2010 -0.1672  0.0280
51537W        W52401   2.106  26.019  15.309  0.1257  0.1238  0.3239
51538W        W52402  21.150  15.297  12.248  0.0821  0.0140  0.2228
51539W        W52403  13.091  16.793   6.129  0.1875 -0.1494 -0.0348
51540W        W52404  24.199  19.144   9.287 -0.3402  0.0622  0.0570
51541W        W52405  23.459   3.606  14.006  0.0149  0.1598 -0.0612
51542W        W52406  16.564  23.869  26.519  0.0604  0.0778  0.0497
51543W        W52407  23.727  11.119  26.885  0.1274 -0.1428  0.1201
51544W        W52408  15.450  23.952  16.041  0.1930  0.2144 -0.0070
51545W        W52409  10.890   8.108   0.281  0.0836  0.0677 -0.0502
51546W        W52410  18.349  10.101   2.085 -0.0429 -0.0447  0.0356
51547W        W52411  13.635   3.064   1.356 -0.1335  0.0118 -0.1165
51548W        W52412   9.487  14.703  20.488  0.0829  0.2788 -0.0161
51549W        W52413  26.065  26.574   3.547  0.1685 -0.0567 -0.0924
51550W        W52414   3.908  22.868  15.244 -0.0943 -0.4251 -0.0741
51551W        W52415  20.000   2.804   9.186 -0.2092  0.3241  0.0193
51552W        W52416  26.980   6.561  29.124 -0.0322 -0.0426 -0.0954
51553W        W52417  22.289   1.287  22.446  0.0412  0.0588 -0.3967
51554W        W52418   8.491  16.367  25.284  0.1296 -0.0161  0.0786
51555W        W52419  18.094  28.791  22.592  0.1158  0.2535 -0.2519
51556W        W52420  10.249   0.232   7.300  0.1167 -0.1113 -0.1363
51557W        W52421  19.631  22.793  23.879 -0.4649 -0.0095 -0.1001
51558W        W52422  24.380   7.254  27.612 -0.1851  0.0071  0.3007
51559W        W52423   4.422  21.615  16.234  0.1676 -0.1448  0.0950
51560W        W52424  17.783   9.212   2.902  0.0983  0.1378 -0.1669
51561W        W52425   3.281  24.800  20.645  0.1221  0.0696 -0.0480
51562W        W52426  25.519   5.588   5.884 -0.0140 -0.0135 -0.3346
51563W        W52427   7.455  26.210   1.007 -0.2605 -0.2911 -0.1506
51564W        W52428   6.814  22.948   6.706  0.1436 -0.1409 -0.1371
51565W        W52429  19.823  27.367  27.026 -0.2781  0.0699  0.0875
51566W        W52430  17.567   0.227   2.751  0.2429  0.0412 -0.0887
51567W        W52431  26.203  26.239   6.910  0.3425  0.1490  0.4048
51568W        W52432   3.052  24.449  25.382 -0.1302  0.0612 -0.0342
51569W        W52433  29.004  23.715  15.772  0.0018  0.1119  0.2184
51570W        W52434  25.490   5.807   9.494 -0.1532  0.1500  0.0698
51571W        W52435  28.397   2.577  12.191  0.1501 -0.3342 -0.1250
51572W        W52436  11.612  25.681   1.865 -0.2675  0.0484 -0.0691
51573W        W52437   6.414  21.068  21.670  0.0157  0.0176 -0.1224
51574W        W52438  26.149  22.152  19.235  0.1127 -0.0524 -0.0130
51575W        W52439  13.437   6.874   3.841  0.0080 -0.0212 -0.0050
51576W        W52440  16.240  21.770  22.989  0.4256  0.0059  0.2325
51577W        W52441  24.878  17.436  24.072 -0.3742 -0.2842  0.3903
51578W        W52442  22.577  18.589  11.393 -0.0455 -0.0832  0.1114
51579W        W52443   9.215   4.134  18.344  0.0725 -0.1326 -0.0932
51580W        W52444  18.942   5.997   4.654  0.1261  0.2335  0.1804
51581W        W52445   0.184  26.971   6.500  0.1629  0.0963  0.1487
51582W        W52446  21.906   5.722  26.546  0.1642  0.0021 -0.1469
51583W        W52447  23.341  24.826  12.658  0.1350 -0.0099 -0.1612
51584W        W52448  25.912  25.582   5.565  0.1525  0.2535  0.2114
51585W        W52449  28.744  27.300  19.701 -0.1544  0.0769 -0.0088
51586W        W52450  16.034   1.602  12.405  0.2983 -0.1785  0.0531
51587W        W52451  18.697   6.089  11.020 -0.0760 -0.3651  0.4603
51588W        W52452   2.918  23.374   3.838 -0.0874  0.0318 -0.2462
51589W        W52453  22.887  22.315   9.288 -0.0089 -0.0604 -0.2039
51590W        W52454  27.653  12.389   6.603 -0.0617  0.0323  0.1345
51591W        W52455  12.279  10.235  26.760 -0.0198  0.3267  0.0656
51592W        W52456  14.735  17.122   3.855 -0.1517 -0.2051  0.1424
51593W        W52457  18.715   5.766  28.873 -0.0140  0.2103  0.3153
51594W        W52458  22.883   1.606  17.321  0.0104 -0.1342 -0.2463
51595W        W52459  23.064  14.145  14.603 -0.0319  0.0263 -0.0542
51596W        W52460  17.990  17.120  10.752 -0.0479 -0.2229 -0.0707
51597W        W52461  17.875  27.394   5.320 -0.0626  0.0013 -0.0955
51598W        W52462  28.792  17.606  14.760  0.0335  0.2626  0.0286
51599W        W52463  16.461  10.590  12.358  0.1210  0.1870  0.1131
51600W        W52464   2.016  27.436  12.176  0.0864  0.5921 -0.1542
51601W        W52465  26.497  17.879   0.256 -0.1971  0.0553  0.1523
51602W        W52466  18.217  13.462   6.069  0.2561 -0.0036 -0.0294
51603W        W52467  26.403  22.507   3.961 -0.1960  0.0140  0.2640
51604W        W52468  13.649  14.203  12.437  0.0051  0.0594  0.3458
51605W        W52469  23.574  29.140   0.382 -0.2145 -0.1167 -0.2458
51606W        W52470   9.078   0.463  26.711  0.0465 -0.2113 -0.1228
51607W        W52471  24.257   6.096  16.602 -0.0193  0.1736 -0.0126
51608W        W52472  22.168  17.164  23.300 -0.2379 -0.1640  0.0286
51609W        W52473  21.453  25.298  14.148 -0.0708  0.1727  0.3828
51610W        W52474  22.826  22.925  14.321 -0.5184  0.3405  0.2949
51611W        W52475  15.619  10.028  27.261 -0.1573  0.0154  0.0238
51612W        W52476   5.883   4.183  27.118  0.1211 -0.1316  0.1623
51613W        W52477  18.434   9.148  16.167  0.0791 -0.0912 -0.0571
51614W        W52478  18.340  20.085   2.209  0.2072 -0.1597  0.0875
51615W        W52479  14.569  28.106   8.291  0.0044  0.1797  0.1580
51616W        W52480  13.274  24.703   0.098  0.1610  0.3381 -0.3046
51617W        W52481   1.258  18.361   5.348  0.0250  0.2056  0.1061
51618W        W52482  19.656   3.431  27.760 -0.0401  0.1039 -0.1526
51619W        W52483   9.294  25.437  23.657 -0.2597  0.2295 -0.1506
51620W        W52484  12.933  26.563  22.067 -0.3115  0.2127  0.3102
51621W        W52485  26.852  26.064  28.716  0.2849  0.1857 -0.1631
51622W        W52486  18.112   2.796   4.358 -0.0790  0.1795  0.0010
51623W        W52487  24.507   9.520  24.286 -0.0758  0.1269  0.0158
51624W        W52488  25.534  27.997   1.674 -0.0286  0.0914  0.2243
51625W        W52489  20.909  26.466   5.925  0.1853 -0.0192  0.5217
51626W        W52490  23.486   6.722  12.852 -0.0084 -0.0825 -0.0302
51627W        W52491  22.680   1.993   4.684 -0.2954  0.0555  0.1597
51628W        W52492  20.823  27.974  14.630  0.3172  0.0874 -0.0189
51629W        W52493   0.859   9.123   4.619 -0.2361  0.0851  0.2653
51630W        W52494   8.238  25.591   2.676 -0.2014 -0.0075 -0.1234
51631W        W52495   1.187  25.701  14.452 -0.2875  0.0338 -0.6854
51632W        W52496  21.907  18.778  24.743 -0.0903 -0.0927 -0.0410
51633W        W52497  10.586  20.176  13.739  0.0169 -0.1066 -0.0520
51634W        W52498  13.316  28.057  26.646 -0.0718 -0.1032 -0.0804
51635W        W52499   0.876  14.349  16.153 -0.3093  0.0075 -0.2291
51636W        W52500  28.496   6.408  26.999  0.0181  0.2393 -0.0151
51637W        W52501   8.165   0.242  27.203  0.1217  0.1083  0.0273
51638W        W52502   0.981  22.900  14.253 -0.1951  0.1678  0.2247
51639W        W52503   5.943   1.141   3.473 -0.0105 -0.1489  0.3416
51640W        W52504   2.659  13.495  17.415 -0.0041 -0.0811  0.3864
51641W        W52505  26.491  23.973   7.527  0.0323 -0.0698  0.1276
51642W        W52506   0.146  13.247   8.263  0.0310  0.0055 -0.1954
51643W        W52507  16.814  19.862   9.063  0.1829 -0.1108 -0.1372
51644W        W52508  23.258  12.178  11.290  0.1597  0.1210 -0.2650
51645W        W52509   3.812  27.111  11.677 -0.1873  0.2935  0.3825
51646W        W52510  28.339  26.195  16.339  0.1045  0.2191 -0.2440
51647W        W52511  23.541  24.310   4.735  0.1246 -0.4351 -0.0997
51648W        W52512  22.408  27.449  12.193  0.1611  0.0763  0.1074
51649W        W52513  23.342  16.160   3.289  0.0281 -0.0440 -0.0896
51650W        W52514   7.952  12.057   7.919  0.3922  0.0830  0.2383
51651W        W52515  23.506  15.181  17.813 -0.2740  0.2266 -0.0086
51652W        W52516  14.947  22.545  25.283 -0.0379  0.1304  0.3419
51653W        W52517   8.027  15.224   2.298 -0.0591  0.1126 -0.1655
51654W        W52518  12.848   8.933  12.324 -0.3456 -0.1825 -0.1583
51655W        W52519  23.704  10.710   7.755  0.2746  0.0406  0.3824
51656W        W52520  19.921  20.134   2.823  0.2026  0.1343  0.3264
51657W        W52521  24.946  25.564   6.935 -0.3719 -0.1309 -0.2789
51658W        W52522   9.009  24.209  24.102  0.0808 -0.2139  0.3755
51659W        W52523  25.282  20.739   3.768  0.2347 -0.0916 -0.1775
51660W        W52524   6.189  23.901  24.596  0.0024 -0.1007  0.2470
51661W        W52525   3.050  13.635   9.513 -0.0776 -0.1286 -0.0499
51662W        W52526   7.452  17.993   0.973 -0.1642  0.0048  0.2240
51663W        W52527   4.796  28.071   0.454 -0.0455  0.1149 -0.0320
51664W        W52528  25.583  24.463  13.978  0.2038 -0.1479 -0.1981
51665W        W52529  23.632  14.088   0.603 -0.3014 -0.0044 -0.1955
51666W        W52530  21.691  20.367  25.909  0.2487  0.0292 -0.1225
51667W        W52531  10.567  15.086  17.923 -0.0065 -0.1319  0.1694
51668W        W52532  14.853  19.484   6.989 -0.1306  0.2269  0.3448
51669W        W52533   2.162  12.937  23.913  0.1648 -0.3806 -0.3804
51670W        W52534  28.672   1.825   0.393  0.0362  0.2192 -0.1896
51671W        W52535  19.431  19.724  12.513 -0.0924 -0.2605  0.1137
51672W        W52536   4.213   2.087   7.674 -0.0361  0.0917  0.3768
51673W        W52537   3.536   9.986  14.854 -0.1254  0.0551  0.0263
51674W        W52538  14.054   3.789  14.140  0.0908 -0.3043 -0.0889
51675W        W52539  18.062   9.415  13.626  0.1365  0.3213 -0.2685
51676W        W52540  20.675   7.114  18.288 -0.0239  0.0945  0.0712
51677W        W52541  20.162   4.335  24.535  0.0540  0.0004 -0.1162
51678W        W52542   8.933  20.977  23.032  0.1787  0.1219  0.0885
51679W        W52543  13.678  11.135  13.309 -0.2894  0.2350 -0.0340
51680W        W52544  16.065   3.295   6.618  0.1888 -0.0598  0.3984
51681W        W52545   8.694  19.809  17.062  0.1982 -0.0402  0.1845
51682W        W52546  15.270   3.969   4.761  0.1088  0.0162 -0.1727
51683W        W52547  19.602  24.968  21.930  0.0379 -0.0580 -0.0209
51684W        W52548  12.430  13.826  27.266  0.0467  0.2103  0.4253
51685W        W52549  13.778  25.303  13.079  0.0111  0.0468  0.1941
51686W        W52550   0.657  10.874  25.636  0.1530  0.1768 -0.3471
51687W        W52551   8.685  27.739  25.356  0.2887  0.3472 -0.1657
51688W        W52552  19.732  16.793   1.188  0.3475 -0.1807 -0.0151
51689W        W52553  20.192  21.982  25.033  0.2388  0.1208 -0.0788
51690W        W52554  10.546   2.934   3.962  0.0565  0.0165  0.2063
51691W        W52555  17.236  23.463  10.284 -0.2322 -0.0341 -0.1853
51692W        W52556  20.136  21.305   6.912 -0.2110 -0.2446  0.1147
51693W        W52557  20.583  23.732  27.915 -0.0317  0.2070 -0.0569
51694W        W52558  26.076   5.496  15.212 -0.1990  0.0120  0.1770
51695W        W52559  11.138  22.240  24.127 -0.0624  0.0333 -0.1218
51696W        W52560  23.738  19.940  11.750  0.0234  0.0880  0.2213
51697W        W52561   9.181  24.371   3.824 -0.1669  0.1698  0.1651
51698W        W52562  21.181   9.279  13.905 -0.0624 -0.0938  0.0676
51699W        W52563   4.431  11.365  25.787  0.0770  0.0583  0.1908
51700W        W52564   9.574  12.920  10.501  0.6489  0.0901 -0.0308
51701W        W52565  14.177  23.174  28.622 -0.0237  0.0551 -0.2789
51702W        W52566  20.987   4.722   0.560  0.1192  0.1636  0.0166
51703W        W52567  20.744  27.913  15.469  0.0067  0.1265 -0.2014
51704W        W52568  16.067  19.258   8.751 -0.0114 -0.0945  0.0209
51705W        W52569  20.937   8.151   4.426  0.3539 -0.0017  0.0181
51706W        W52570   2.521  10.591   7.658  0.0374 -0.0066  0.1613
51707W        W52571  24.472   3.356  18.652 -0.0201 -0.3637  0.1039
51708W        W52572  23.148  23.591  12.018  0.1810 -0.2634  0.0235
51709W        W52573  13.879   8.030  17.274  0.1952 -0.1402  0.1456
51710W        W52574  12.268  23.113  21.058  0.2214  0.0337  0.2042
51711W        W52575  26.220   9.244  26.648  0.0619  0.0692 -0.5023
51712W        W52576  21.085  27.805  13.090  0.0943 -0.2955 -0.0530
51713W        W52577  21.336  25.174   0.933 -0.0265 -0.1907 -0.4001
51714W        W52578   8.771   0.808  11.216  0.2423  0.0412  0.0480
51715W        W52579  14.437  26.537   6.609  0.3470 -0.0682  0.2118
51716W        W52580   4.046  17.286   8.781 -0.1035  0.3414  0.1454
51717W        W52581  22.407  25.942  18.546 -0.1316  0.2938  0.0483
51718W        W52582  19.916  28.026   0.502  0.2754  0.1725 -0.2277
51719W        W52583  25.608  19.984   0.511 -0.1104  0.1002  0.2865
51720W        W52584  20.948  28.838   6.794  0.0943 -0.1146 -0.0901
51721W        W52585   3.653  26.530   8.678  0.2611 -0.2529 -0.0783
51722W        W52586  21.872   3.010  28.228 -0.0968 -0.1600  0.2192
51723W        W52587   2.619  23.988   7.817  0.1356  0.1554  0.1873
51724W        W52588  10.582  12.717  10.270 -0.2546  0.2657 -0.0651
51725W        W52589  12.739  17.255  12.970  0.0158 -0.0460 -0.0165
51726W        W52590   5.905   9.572   0.550 -0.1609  0.4057 -0.0086
51727W        W52591   1.692   6.051  23.145 -0.1151  0.1139  0.4550
51728W        W52592   9.992   2.071  11.445  0.2243  0.2287 -0.0343
51729W        W52593  14.064   2.953   9.893 -0.2151  0.0279  0.0525
51730W        W52594   8.734   1.377   2.133 -0.1207  0.2934  0.1281
51731W        W52595  21.271  19.194  13.266  0.4149 -0.2154  0.0299
51732W        W52596   1.794  11.036   1.991  0.0934  0.0074 -0.0659
51733W        W52597  21.902  11.087   5.244  0.1495 -0.0783 -0.0759
51734W        W52598  17.096  20.323  22.392 -0.1975 -0.2295 -0.1944
51735W        W52599   4.849  19.967   5.194 -0.0084  0.1236  0.3194
51736W        W52600   6.119   9.689   5.172  0.1067 -0.1281 -0.0426
51737W        W52601   1.094  17.488  13.782 -0.0424 -0.3311  0.1007
51738W        W52602  26.650  20.768  20.265 -0.2074 -0.1671  0.1280
51739W        W52603  20.991   5.715  20.084 -0.1305 -0.2821 -0.0678
51740W        W52604  27.612  27.261   7.391 -0.2999  0.3811  0.0072
51741W        W52605  19.085  26.257   7.928 -0.1378  0.0484 -0.0669
51742W        W52606  26.511  27.208  12.558 -0.0383 -0.0227  0.0716
51743W        W52607  12.789  28.554  18.119 -0.1697  0.3079  0.2319
51744W        W52608   9.941   0.527   1.499  0.1611  0.3543  0.1591
51745W        W52609   5.994  25.355  11.982 -0.0733 -0.1133 -0.2387
51746W        W52610  18.124   2.136  12.773 -0.1868 -0.1056 -0.0822
51747W        W52611  15.616  25.616  22.091  0.1601  0.0018 -0.0261
51748W        W52612  25.958   6.397  15.880 -0.2681 -0.2081  0.1422
51749W        W52613  16.163   8.863   8.872  0.1775  0.0774 -0.3184
51750W        W52614  27.163  28.382   7.733  0.0173  0.0014  0.1259
51751W        W52615  14.243  11.297   2.952  0.0954  0.1288  0.3825
51752W        W52616  19.163   0.168   8.155 -0.0993  0.0804 -0.0563
51753W        W52617  14.718  20.828  22.852 -0.1013  0.2844  0.1164
51754W        W52618  25.425  24.485  10.491  0.0917 -0.2256 -0.2084
51755W        W52619  13.622   3.551  15.691  0.0511  0.2509 -0.0211
51756W        W52620  11.917  16.956  12.517  0.0744  0.2027  0.0202
51757W        W52621  18.070   0.346   2.476 -0.3248 -0.1061  0.2930
51758W        W52622   1.894  21.123   2.855  0.0310  0.3293 -0.3322
51759W        W52623  26.559   1.668  16.628 -0.1924 -0.1121  0.3334
51760W        W52624   2.188  23.826  13.159 -0.0947 -0.0916 -0.0436
51761W        W52625  24.980   0.930  18.490  0.2135 -0.1397 -0.0917
51762W        W52626  21.056  11.007  22.977 -0.1164 -0.1518  0.0407
51763W        W52627  25.973  19.722  18.985 -0.0931 -0.0711  0.4525
51764W        W52628  14.498   6.789   0.945 -0.1097  0.2013  0.1989
51765W        W52629  22.584  12.244  12.476 -0.1358 -0.0003 -0.2698
51766W        W52630  25.175   7.735   0.450 -0.1420 -0.1134  0.0317
51767W        W52631   1.753  11.687   9.175 -0.1340  0.1582  0.1189
51768W        W52632  14.602  19.191  19.442 -0.0013 -0.1276 -0.1938
51769W        W52633  17.848  26.691   5.889 -0.4003  0.0338  0.1518
51770W        W52634   5.358  20.659  26.398 -0.2281  0.1857  0.0786
51771W        W52635   1.123  26.701  20.541  0.2249 -0.3974 -0.0379
51772W        W52636   4.429   5.073   0.926  0.2154 -0.1323 -0.2418
51773W        W52637  15.667  10.051  16.925  0.1466  0.2647 -0.0660
51774W        W52638  11.588  24.728   9.601 -0.0383 -0.1369  0.1321
51775W        W52639  20.574  20.984  16.228 -0.1639 -0.1333 -0.0096
51776W        W52640  22.578  26.002   3.300 -0.2665 -0.0091  0.1917
51777W        W52641  22.369  12.203  20.640  0.0926  0.1602  0.0016
51778W        W52642  24.396   5.232   8.305  0.0642  0.0157  0.1934
51779W        W52643  20.435   7.452   1.230  0.0750 -0.0089  0.1543
51780W        W52644  19.276  17.622  18.311 -0.4167  0.0032 -0.1535
51781W        W52645  25.079  20.305   8.243  0.1468 -0.1749  0.2788
51782W        W52646  21.209  25.894  10.502  0.0486 -0.0069 -0.1518
51783W        W52647  11.653  22.426  25.343 -0.2723  0.2510  0.3079
51784W        W52648  18.085  27.056  18.628  0.3582  0.0452 -0.3041
51785W        W52649  21.358   3.700  28.681  0.0095  0.2246  0.0101
51786W        W52650  21.028  26.373   3.203 -0.0531  0.1213 -0.1228
51787W        W52651   1.180   8.834   7.395 -0.2413  0.1453 -0.2632
51788W        W52652  16.909   8.485   2.620  0.2188  0.3809 -0.1288
51789W        W52653  21.453  17.760   4.239  0.1718  0.0712 -0.1033
51790W        W52654  26.232  13.009   1.378  0.1064 -0.0472 -0.3502
51791W        W52655   6.226  13.866  12.100  0.1177  0.0583 -0.0316
51792W        W52656  17.861  21.339   7.726 -0.1057  0.0003  0.2416
51793W        W52657  10.037  26.839   3.740 -0.1836  0.3484  0.2531
51794W        W52658  25.807   5.626   9.113  0.0014  0.2922 -0.0279
51795W        W52659  23.058  17.735  28.379 -0.1397  0.0880 -0.0244
51796W        W52660  19.852   3.917  11.588 -0.1060 -0.1399  0.2163
51797W        W52661  28.247  26.291   8.205 -0.2839  0.0370 -0.0288
51798W        W52662  22.537  16.620  23.516 -0.0653  0.2086 -0.2587
51799W        W52663  25.238   3.306   9.871 -0.0679  0.0355  0.3251
51800W        W52664  13.762  28.749   8.423  0.0969 -0.1542 -0.2293
51801W        W52665  24.553   2.741  21.946  0.3347 -0.1900  0.0776
51802W        W52666  27.425  27.801  13.681  0.0901 -0.1729  0.1275
51803W        W52667   5.125   9.959  11.606  0.2468  0.3257  0.2447
51804W        W52668   8.808   2.501  14.962  0.2896 -0.2815 -0.0470
51805W        W52669  14.952  20.888   1.119  0.2071 -0.0093 -0.2277
51806W        W52670  15.267  22.093   5.619  0.0767 -0.0841 -0.0615
51807W        W52671  19.800  26.717  14.513 -0.1853 -0.4930  0.0301
51808W        W52672   7.642   5.188  19.145  0.1056 -0.0811  0.0460
51809W        W52673  10.077  24.160  16.464  0.1034 -0.1474 -0.1580
51810W        W52674  13.594   0.626  14.479 -0.0256 -0.2403  0.0647
51811W        W52675  15.696  12.266  24.150  0.0206 -0.1156  0.0687
51812W        W52676   4.946  17.925  14.629 -0.1253  0.0337 -0.0534
51813W        W52677  17.458   6.567   2.548  0.2824 -0.0668 -0.2325
51814W        W52678  17.682  28.371  11.099 -0.1574 -0.0881 -0.0386
51815W        W52679  16.405  26.570   4.740 -0.0471 -0.1472  0.0241
51816W        W52680  21.634  19.840  25.941  0.1960 -0.1776 -0.2085
51817W        W52681  28.500  19.967   8.519 -0.2385 -0.1135  0.1289
51818W        W52682   8.182  20.904  20.412  0.2110  0.0587 -0.1621
51819W        W52683   4.879   0.888   7.781  0.1411 -0.0498 -0.0183
51820W        W52684   6.995  22.028  24.371  0.1160 -0.3554  0.1202
51821W        W52685  25.623   5.041  18.006  0.2455  0.0762 -0.0615
51822W        W52686  28.829   0.659   7.437 -0.0848 -0.1225 -0.1445
51823W        W52687  15.361  10.686  17.856 -0.0902 -0.1985 -0.2233
51824W        W52688  26.729  19.625  27.229 -0.2579 -0.2569 -0.3182
51825W        W52689  22.942   1.940  25.844  0.0219  0.0678 -0.0385
51826W        W52690  12.446  28.939  20.051  0.1776 -0.0479 -0.3416
51827W        W52691   2.617   2.280   8.176  0.0628 -0.2064 -0.0508
51828W        W52692  18.348  18.177   7.242  0.0360  0.3377  0.1164
51829W        W52693  25.892  10.996   4.417  0.2903  0.0222  0.1012
51830W        W52694  14.142  20.001  13.428  0.0884  0.0985  0.0681
51831W        W52695   2.192   0.870  14.297 -0.1997  0.2344 -0.1585
51832W        W52696  14.723  28.509  23.639  0.2463  0.1838  0.0908
51833W        W52697  18.874  26.242  28.286 -0.1333 -0.0040  0.1937
51834W        W52698  21.289  10.697  10.753 -0.1725  0.0345 -0.1550
51835W        W52699  27.163  14.258  16.237  0.2677  0.3350  0.3372
51836W        W52700   9.483  24.290  24.459 -0.0594  0.2262 -0.1579
51837W        W52701  27.536   0.557  21.853 -0.2960  0.1469  0.0773
51838W        W52702  12.046   0.459  10.481  0.0332  0.3630 -0.2001
51839W        W52703  16.722  27.545   1.599  0.1189  0.1465 -0.0747
51840W        W52704  21.923   5.653  20.376  0.1640 -0.0860  0.0225
51841W        W52705  16.340  17.870   3.718 -0.1080 -0.1503  0.1384
51842W        W52706   6.292  14.372   0.371 -0.0535  0.3406  0.3236
51843W        W52707  26.671  24.972   7.189 -0.1382 -0.0867 -0.0477
51844W        W52708  25.958  27.507  17.260  0.3198 -0.4194  0.1122
51845W        W52709  12.756  10.842  22.976  0.0298 -0.2241  0.1543
51846W        W52710   1.665  22.163  17.486 -0.0834  0.0799  0.0665
51847W        W52711  10.695   3.585   0.633 -0.1252  0.0695 -0.2452
51848W        W52712   7.605  19.475  26.775  0.0927  0.1982 -0.1411
51849W        W52713  26.487  22.887  12.814 -0.0034  0.1885  0.0417
51850W        W52714  21.124  20.668   3.749  0.2418 -0.0657  0.1154
51851W        W52715   0.964   8.169  19.395 -0.0031 -0.1585 -0.2779
51852W        W52716  19.537  19.329  22.759 -0.2321  0.4398 -0.1548
51853W        W52717  14.540  16.587  14.404  0.2191  0.1630 -0.0155
51854W        W52718   5.471  10.211   4.199  0.1798  0.0969  0.4479
51855W        W52719  21.638  17.925   8.041  0.1423 -0.0836 -0.1764
51856W        W52720   5.855  19.322   7.684  0.0485  0.1837  0.2036
51857W        W52721  25.930  18.258  18.189 -0.0280 -0.3157  0.0033
51858W        W52722   9.077  21.467  14.416 -0.0902 -0.0812 -0.3030
51859W        W52723   4.853  28.903  23.828 -0.0230  0.0086  0.3467
51860W        W52724  14.586   2.505   9.130  0.2251 -0.2283  0.1335
51861W        W52725   6.490  21.410   2.066  0.0281 -0.2755  0.0020
51862W        W52726   3.663   0.114  11.764 -0.1096 -0.0526  0.2058
51863W        W52727  19.354  28.133  22.888 -0.1108 -0.1173  0.0132
51864W        W52728  23.343   4.650  23.827  0.0085 -0.1272  0.2444
51865W        W52729   1.732   0.226   4.107 -0.2690 -0.1522  0.3139
51866W        W52730  17.439  27.954  20.066 -0.1777  0.4824  0.0325
51867W        W52731  17.109   0.176  15.667 -0.0275  0.0022  0.3428
51868W        W52732  17.279   1.539  12.297 -0.1583  0.3790  0.3717
51869W        W52733   3.371  27.968  19.224  0.0182  0.2491  0.3830
51870W        W52734  27.249  26.169  18.091 -0.0150 -0.0326  0.2601
51871W        W52735  10.893  19.039  24.067  0.3069 -0.1065 -0.2059
51872W        W52736   7.467  16.473   7.762  0.0584 -0.4686 -0.0446
51873W        W52737  18.426  25.706  24.193  0.1825  0.0422 -0.0105
51874W        W52738  27.555  19.123  14.053 -0.0542 -0.1692 -0.1581
51875W        W52739  27.942  22.643  22.650 -0.1753  0.1781 -0.1065
51876W        W52740  25.355  24.023  21.463 -0.1398 -0.1734 -0.0425
51877W        W52741  14.377   2.222  24.906  0.0359 -0.1888 -0.0974
51878W        W52742   8.650   5.928   8.685 -0.0349  0.0281  0.0895
51879W        W52743  21.117  24.404   3.667 -0.2145  0.1217  0.1565
51880W        W52744  12.285   9.055  16.841  0.0316 -0.0967 -0.0524
51881W        W52745   0.862   2.704  14.659 -0.0153 -0.1769  0.1901
51882W        W52746   1.662  21.345   5.630 -0.4997 -0.0176 -0.4905
51883W        W52747  21.603  24.022  17.551 -0.2295 -0.0596 -0.0128
51884W        W52748  25.026   9.810   0.441  0.0110 -0.1330 -0.2661
51885W        W52749  16.787   4.795  17.606  0.2945 -0.0217  0.1393
51886W        W52750  22.419  24.749  16.652 -0.0579  0.1698 -0.1469
51887W        W52751   6.181   9.245  11.343  0.2869 -0.0508  0.0336
51888W        W52752  29.127   1.105   0.004  0.1894  0.3865  0.0207
51889W        W52753  22.789  10.507  13.901  0.2816  0.0436 -0.3173
51890W        W52754  10.171  13.658   1.201 -0.2219 -0.2726 -0.3939
51891W        W52755   0.429   5.042   1.862 -0.0019 -0.1498  0.0460
51892W        W52756  15.373   5.727  15.959 -0.1688  0.2048 -0.2667
51893W        W52757   1.432   8.894  21.418 -0.0177  0.0646 -0.0242
51894W        W52758  18.720  15.684   3.571 -0.3882 -0.0567  0.0124
51895W        W52759  16.455   8.966  15.083  0.2561 -0.2237 -0.0068
51896W        W52760  18.351  27.692   1.404 -0.1360 -0.0216 -0.0727
51897W        W52761  20.745   6.603  18.496  0.0651  0.2473  0.0342
51898W        W52762  25.771  13.207  27.372  0.4453 -0.1716 -0.1249
51899W        W52763  21.745   4.114  13.438  0.4722  0.0907  0.2188
51900W        W52764  16.817  14.749  25.175  0.0058 -0.0477  0.0143
51901W        W52765   0.297  14.139  25.767 -0.0046  0.0539 -0.3104
51902W        W52766   8.163   0.827  26.752  0.0557  0.3092  0.2563
51903W        W52767  27.370   8.611   9.329  0.2076  0.0871  0.1545
51904W        W52768  20.818   3.128  19.156  0.1637 -0.6636  0.0041
51905W        W52769  12.318   6.612   9.315  0.2896 -0.0058  0.0422
51906W        W52770  16.735  23.054  19.891 -0.1905  0.0896 -0.2002
51907W        W52771   7.369  10.864  14.320 -0.5436  0.0996 -0.1541
51908W        W52772  23.369   3.695   9.672 -0.1727 -0.0153 -0.2469
51909W        W52773  13.809  27.235   1.782 -0.2948  0.1219 -0.0730
51910W        W52774  26.925   2.805  25.353  0.0636  0.3753 -0.0100
51911W        W52775  18.609  10.844  17.681 -0.0065  0.1892 -0.4180
51912W        W52776  20.304  10.924  25.450  0.1537  0.0118 -0.3329
51913W        W52777  13.448   2.955  21.810  0.0699 -0.0398  0.1562
51914W        W52778  20.211  24.515  14.885  0.2044 -0.0803 -0.3127
51915W        W52779  18.086   1.164   2.969  0.0016 -0.0461 -0.2064
51916W        W52780  22.194  23.743  19.770  0.3371  0.0743  0.2913
51917W        W52781  21.605   6.187   7.635  0.1512 -0.1258  0.0652
51918W        W52782   0.673  24.452   4.490  0.2074 -0.2551  0.0434
51919W        W52783  27.101  19.616  24.403 -0.2630 -0.1081 -0.2405
51920W        W52784   6.523   4.926  25.631  0.1678  0.0399 -0.1219
51921W        W52785   6.204   0.981   4.308  0.1488 -0.0838  0.0445
51922W        W52786  26.065   5.106  20.345  0.1047  0.2216 -0.0934
51923W        W52787   0.563  19.322   7.471 -0.4287  0.3885 -0.1048
51924W        W52788  22.733  25.773  27.267 -0.1766 -0.0578  0.0198
51925W        W52789  27.518  27.949  20.963  0.2335 -0.0054 -0.0859
51926W        W52790  23.635  21.975  23.858  0.2378 -0.0479 -0.1001
51927W        W52791  13.406   5.397  17.421  0.1276  0.1687 -0.2019
51928W        W52792  26.947  24.172  21.298 -0.1266  0.3928  0.1837
51929W        W52793  27.510  19.322   9.518  0.3638 -0.5630  0.2112
51930W        W52794  21.182  27.728   9.612 -0.1529  0.0333  0.0549
51931W        W52795   2.533  10.664   2.036  0.1192  0.2252 -0.0204
51932W        W52796   1.811  20.814  11.671 -0.1382  0.1952 -0.0705
51933W        W52797  24.031  14.487  17.132 -0.0475 -0.0058 -0.0283
51934W        W52798  11.266  14.897   0.221 -0.1352  0.3124 -0.0719
51935W        W52799   2.589   8.950   8.870 -0.2827  0.2242 -0.3695
51936W        W52800   4.050   9.721   4.325 -0.3749 -0.2296 -0.1102
51937W        W52801   6.881  16.496  12.314  0.3420  0.0024 -0.0989
51938W        W52802  13.457   0.062  11.931 -0.3799  0.0287  0.1942
51939W        W52803  26.977  13.778  12.144 -0.0070  0.0772 -0.0175
51940W        W52804   7.031  20.959  18.384  0.0059 -0.1534  0.2342
51941W        W52805   3.061  16.268   4.181  0.2069 -0.2464  0.2878
51942W        W52806  25.853  25.798  14.376 -0.2072 -0.0176 -0.0476
51943W        W52807  17.497  12.732  21.665 -0.2779 -0.1952  0.4154
51944W        W52808  15.905   5.621   2.111  0.0370  0.3419 -0.3852
51945W        W52809  17.059   0.815  25.011  0.0288  0.0992 -0.1951
51946W        W52810  25.548   2.268   6.891 -0.1738 -0.1411 -0.1396
51947W        W52811  15.638   5.164   2.134 -0.0368 -0.0243 -0.3516
51948W        W52812  21.854  22.697  11.497  0.0528 -0.3105 -0.4439
51949W        W52813  19.270  14.943  26.360  0.1749 -0.0372  0.1885
51950W        W52814   3.736  21.908  14.616  0.2089 -0.0399  0.1677
51951W        W52815  17.436  28.809  21.406 -0.0242 -0.0167 -0.1796
51952W        W52816  22.871   6.652  10.218  0.2382  0.3245 -0.3518
51953W        W52817  21.927   4.133  15.020 -0.0287  0.0510 -0.0557
51954W        W52818   0.223  27.994  22.762  0.1583  0.1989 -0.0916
51955W        W52819  23.729  23.745   3.622  0.1742  0.0974 -0.0273
51956W        W52820  23.159   4.032  27.658 -0.0436  0.3255  0.2016
51957W        W52821   8.876  11.425  11.469  0.1542  0.0620 -0.1341
51958W        W52822  20.222  21.130  17.276 -0.0612 -0.1227  0.0814
51959W        W52823  11.883   9.489   6.908  0.2108  0.0063  0.1695
51960W        W52824  21.500  20.768  13.450  0.2552 -0.2880  0.0206
51961W        W52825   0.390   6.846   0.180 -0.0467  0.0060  0.3858
51962W        W52826   1.465  14.983   1.234  0.0005  0.1858 -0.0300
51963W        W52827   8.802  23.134   4.391  0.0854  0.0034 -0.2512
51964W        W52828  20.408   6.637  15.845  0.2164 -0.1930  0.1662
51965W        W52829  25.791  11.272  14.568  0.0372 -0.0261  0.2033
51966W        W52830  26.391  18.425   7.875  0.2652 -0.5326  0.0769
51967W        W52831  12.984  22.479  12.897  0.1194 -0.1641  0.2680
51968W        W52832  25.784   5.874  22.381  0.3737 -0.2476 -0.0735
51969W        W52833  22.904  16.425  17.500  0.3704  0.3048  0.2824
51970W        W52834   4.685  11.400  25.076 -0.1425  0.2623  0.0805
51971W        W52835  22.110  29.021  19.238 -0.2282  0.0213 -0.0584
51972W        W52836  23.970  27.337   6.878 -0.0139 -0.0452 -0.1307
51973W        W52837  14.450  24.129  25.349  0.0362 -0.0539  0.1525
51974W        W52838  19.833   2.138  13.363 -0.0399  0.0226  0.1212
51975W        W52839   9.066  18.043   9.261 -0.3873  0.0569  0.3082
51976W        W52840  17.649   6.308  26.248 -0.0997  0.4146 -0.0686
51977W        W52841   0.837  23.365   1.600  0.0577 -0.0668  0.0961
51978W        W52842   5.748  26.697  11.271 -0.0905 -0.0573  0.3804
51979W        W52843  23.661  23.677  12.608  0.1047  0.2194 -0.0372
51980W        W52844  24.240  23.936  12.688 -0.1232 -0.1411  0.1642
51981W        W52845  15.729  19.721   1.458 -0.0178 -0.0319 -0.1783
51982W        W52846  25.533  16.449  10.518 -0.3598 -0.0608  0.0817
51983W        W52847   6.193  26.588   7.690  0.2430 -0.0579 -0.3510
51984W        W52848   3.834  11.970   7.079  0.0135 -0.0617  0.2081
51985W        W52849  25.250   9.925   1.435  0.3081 -0.0537 -0.1332
51986W        W52850  16.543   1.344  13.755 -0.0426 -0.0249 -0.0363
51987W        W52851  28.216  11.771   5.728  0.0664  0.2096  0.1973
51988W        W52852  28.557  27.445  10.497 -0.1787  0.2379 -0.0906
51989W        W52853  20.076  13.000  26.447  0.3365 -0.2483  0.1550
51990W        W52854   5.074   2.318  17.542 -0.0221  0.4083 -0.0102
51991W        W52855  12.652   1.908  13.840 -0.1275 -0.0679  0.3137
51992W        W52856  22.833  21.509  23.941  0.1716 -0.2410 -0.1597
51993W        W52857  28.953  18.115  16.401  0.0518 -0.0149 -0.0804
51994W        W52858  25.490  10.785   7.159 -0.2689 -0.1969 -0.1028
51995W        W52859  14.977  19.936  28.630  0.1195  0.0392 -0.1072
51996W        W52860   9.362   5.468  14.565  0.1979 -0.0119  0.0979
51997W        W52861  27.271  26.548   0.332  0.3320 -0.0065  0.2084
51998W        W52862   6.762  20.249  18.930  0.0465  0.4109 -0.2406
51999W        W52863   5.299   0.026  17.071 -0.0218  0.1850  0.0995
52000W        W52864  19.490   1.696  12.206 -0.2693 -0.2690 -0.0394
52001W        W52865  15.965   1.004   6.344  0.2246 -0.2522  0.3532
52002W        W52866  16.747  28.997  12.269  0.0536  0.1998 -0.0911
52003W        W52867   3.049  27.524  17.975  0.1937 -0.0286 -0.0841
52004W        W52868  14.190  28.469  19.190  0.0558  0.0926 -0.2228
52005W        W52869  21.353  24.376   5.199  0.0644  0.0421 -0.0501
52006W        W52870   1.364  23.929   9.074  0.1635 -0.1324  0.0610
52007W        W52871   1.121  25.121  13.685  0.1504 -0.0251 -0.4388
52008W        W52872  23.547   5.678  20.406 -0.0479  0.2504 -0.0252
52009W        W52873  18.655  24.716   0.239  0.2330  0.3084  0.3113
52010W        W52874   4.690   0.966  26.437  0.2139 -0.2152 -0.0168
52011W        W52875  12.154  11.604  20.729  0.3622 -0.1408  0.0379
52012W        W52876  11.517  10.388  12.149  0.0417  0.0014  0.1557
52013W        W52877  20.906  25.085  27.921  0.0228 -0.1759  0.0408
52014W        W52878   8.888  28.066  21.349 -0.2246  0.2641 -0.1283
52015W        W52879  25.329   4.991  17.383 -0.0784  0.1309  0.0170
52016W        W52880   3.775   3.898  14.282  0.3215  0.1905  0.1350
52017W        W52881  21.150  10.905   9.696 -0.0333 -0.1192 -0.0290
52018W        W52882   9.663  15.587  15.984 -0.1504 -0.1325 -0.0342
52019W        W52883  21.951  19.006   6.084 -0.2990  0.2125  0.2766
52020W        W52884  25.471   3.407   7.792  0.0579  0.0300 -0.0414
52021W        W52885  13.906   7.168  20.568  0.2749  0.0933 -0.0271
52022W        W52886  11.552  28.180  13.795 -0.0497  0.0656  0.2481
52023W        W52887  14.901   5.150  28.153  0.0724 -0.1441  0.1941
52024W        W52888  19.724   6.865  25.151 -0.3049 -0.0164  0.1280
52025W        W52889  24.944  25.052   7.087  0.0828 -0.2794  0.1794
52026W        W52890   9.709  21.270  14.077  0.0909 -0.2699 -0.2314
52027W        W52891   6.141  17.848   7.016  0.1603  0.1881  0.0109
52028W        W52892  17.167  17.627  28.163 -0.1577 -0.0809 -0.0801
52029W        W52893  18.838   0.272   7.641  0.1631 -0.3344 -0.0135
52030W        W52894  11.145   3.458  25.468 -0.1424 -0.3828  0.0243
52031W        W52895  11.254  16.920  16.772 -0.1417  0.0207  0.1385
52032W        W52896  28.713   9.104   9.989  0.1100  0.1206  0.4502
52033W        W52897  20.164  19.558  19.452  0.0856 -0.0716  0.0263
52034W        W52898  21.074  23.860  28.095 -0.1607 -0.0635  0.0005
52035W        W52899   0.323  28.273   6.863  0.0326 -0.1259 -0.0708
52036W        W52900  21.040  10.206  11.811 -0.2236  0.0875 -0.0473
52037W        W52901  11.740  17.242  10.911  0.3112  0.0743 -0.2228
52038W        W52902   5.321  21.404   6.009 -0.0096 -0.0624 -0.1649
52039W        W52903  26.985   6.833  10.016 -0.0001  0.2230  0.2455
52040W        W52904  13.009   1.319  15.071  0.0153 -0.1168  0.3204
52041W        W52905  21.716  26.986  17.996  0.0031 -0.0967 -0.2948
52042W        W52906  10.331  21.490  11.334  0.1266 -0.5706 -0.1220
52043W        W52907  27.473   1.626  16.459  0.4559  0.0075 -0.0932
52044W        W52908   2.488  11.448  15.017  0.0369  0.1392 -0.1462
52045W        W52909   5.285   2.213   3.541 -0.1542  0.1746  0.0345
52046W        W52910   5.223   1.265   2.951 -0.0314  0.1356 -0.1663
52047W        W52911   1.068  23.458  27.831  0.0377 -0.0699 -0.0996
52048W        W52912   0.581  12.701  26.376  0.0176  0.2302  0.2992
52049W        W52913  13.943  21.010  16.780  0.0353 -0.0322 -0.1928
52050W        W52914  14.373   5.929  13.385 -0.0206 -0.0908  0.1440
52051W        W52915  13.076  14.330  26.361 -0.0722  0.0858  0.1209
52052W        W52916  24.441  23.094  24.059  0.0004 -0.0130 -0.2147
52053W        W52917  24.368   6.653   9.836 -0.1667 -0.0872  0.1793
52054W        W52918   8.696  28.761  25.453 -0.0690 -0.3489 -0.4284
52055W        W52919  22.798   2.242  14.327 -0.2357  0.0773 -0.2557
52056W        W52920   8.160  26.004   2.262 -0.1981  0.1346 -0.0232
52057W        W52921  24.929  28.233  14.188 -0.3203  0.1516  0.0495
52058W        W52922   9.810   5.472  21.706 -0.0768  0.1341  0.3261
52059W        W52923  18.810  28.723  13.413 -0.1513 -0.0114  0.0928
52060W        W52924  21.286   0.724  16.048 -0.0899  0.1615  0.0006
52061W        W52925  11.593   7.851   5.341 -0.1359 -0.2632  0.1291
52062W        W52926   9.159  14.293  12.794  0.3545  0.0451 -0.2135
52063W        W52927  15.778   7.616  19.369 -0.1043 -0.0632  0.3815
52064W        W52928  11.652  19.007  11.348 -0.3504 -0.0167  0.3554
52065W        W52929  15.633   4.518  13.020 -0.0508  0.0859 -0.0212
52066W        W52930  24.501  24.576  13.670 -0.2433  0.1788  0.0587
52067W        W52931  27.870  12.991  24.479 -0.1096  0.0618 -0.1158
52068W        W52932   6.858   4.456  10.280  0.1936 -0.0753 -0.3774
52069W        W52933  11.895   2.752  27.921 -0.1434 -0.0540  0.0349
52070W        W52934  27.326  27.863  11.431 -0.0777 -0.3463  0.2343
52071W        W52935  17.797  22.922  17.455 -0.0348  0.2160  0.1271
52072W        W52936  14.529  13.487  25.841 -0.0672 -0.1718  0.0114
52073W        W52937   9.459   3.473   9.786  0.2579 -0.0332  0.0082
52074W        W52938  28.593  28.012   6.102  0.0099  0.3028 -0.1348
52075W        W52939  11.743  17.034  19.098 -0.0259 -0.3591  0.0317
52076W        W52940  16.427  25.778  23.410 -0.0270 -0.2778  0.1973
52077W        W52941  23.481   1.795  12.451  0.0854 -0.1065  0.1457
52078W        W52942   3.714  22.558  19.060 -0.0263 -0.0322 -0.0118
52079W        W52943  12.639   7.075  13.511  0.0118  0.1136  0.0150
52080W        W52944  21.878  24.637  20.086 -0.0771  0.3131 -0.4491
52081W        W52945   6.301   1.233  16.162 -0.1481  0.1691  0.2073
52082W        W52946  19.872   8.614  18.370 -0.0825  0.1514 -0.3398
52083W        W52947   6.189  12.827  18.787 -0.3386 -0.0862 -0.0765
52084W        W52948   6.006   9.506  26.521  0.2315  0.0694 -0.0812
52085W        W52949  22.675  21.414  11.515 -0.0805  0.1232  0.0541
52086W        W52950  18.892  19.390   3.340  0.1672  0.1758 -0.2552
52087W        W52951  17.947   8.973  19.316 -0.0414  0.1955 -0.0625
52088W        W52952  14.838   5.322   6.213 -0.0588  0.5056  0.1419
52089W        W52953  13.589   2.669  18.896  0.3454 -0.0300  0.0979
52090W        W52954  27.757  24.716  19.964  0.0377 -0.3225 -0.0530
52091W        W52955  14.610  25.445  10.642  0.2591  0.2836 -0.2261
52092W        W52956  10.878   5.346   6.301  0.0299 -0.0150  0.0236
52093W        W52957  26.365  13.901  12.873 -0.1168  0.2055 -0.0031
52094W        W52958   5.534  20.411   5.569 -0.0492 -0.0042 -0.2764
52095W        W52959  26.536  10.344  24.686 -0.0580  0.0560  0.0334
52096W        W52960  12.984  25.558  13.367 -0.1062 -0.1079 -0.2119
52097W        W52961  12.107   4.317   7.056 -0.0436 -0.1579  0.3866
52098W        W52962   0.986  10.650  26.849 -0.0361 -0.1958  0.3206
52099W        W52963  20.765  25.207  20.424 -0.1026  0.1474 -0.2307
52100W        W52964   6.727   1.699  25.130  0.4013 -0.0373 -0.2702
52101W        W52965  20.368   5.358  13.913  0.3631 -0.1507  0.1015
52102W        W52966  23.014  22.520  12.839  0.1187  0.0025  0.1858
52103W        W52967  26.168  27.096  15.662 -0.1689  0.2075  0.0594
52104W        W52968  27.036   6.659  22.763  0.0394  0.3409 -0.1941
52105W        W52969  24.487   1.124  16.611  0.1250 -0.2537  0.0719
52106W        W52970  24.097   7.296  25.535  0.2368  0.0238 -0.3246
52107W        W52971   9.203   1.308   6.495  0.1970 -0.1485 -0.3940
52108W        W52972  21.642  29.111  19.131 -0.0459  0.2822 -0.0762
52109W        W52973  21.848  27.415  20.460  0.0010 -0.0574 -0.1121
52110W        W52974  23.511  28.375  14.194  0.1265  0.2267 -0.0803
52111W        W52975  12.700  19.706  10.334  0.4351 -0.0010  0.0093
52112W        W52976   8.830   6.577   9.846 -0.1036  0.1888  0.0679
52113W        W52977  23.024  13.775   4.316  0.1673  0.1795  0.0173
52114W        W52978   3.525  27.301   9.060  0.2646 -0.1891 -0.2596
52115W        W52979  26.672   8.109   2.395  0.1918  0.2434  0.0010
52116W        W52980  28.231  16.461   0.005  0.1119 -0.1337 -0.0599
52117W        W52981  18.280  22.772  28.039  0.1490  0.3083 -0.0420
52118W        W52982  16.892  18.848  16.543 -0.2421  0.2341  0.0280
52119W        W52983  12.537  21.749  23.759  0.1814 -0.0530  0.0287
52120W        W52984  23.056  18.887   2.432 -0.0051  0.1138 -0.2560
52121W        W52985  20.119   2.020   4.191 -0.0662 -0.0866  0.0799
52122W        W52986   0.403  28.750  26.039 -0.1890 -0.3240  0.0204
52123W        W52987  26.530   5.380  12.023  0.2561 -0.1854 -0.0132
52124W        W52988  27.967  20.973  13.940  0.0464  0.2627 -0.2167
52125W        W52989  11.250   0.174  21.533 -0.1598 -0.1238  0.0447
52126W        W52990   1.787  10.594   9.747  0.4042  0.1613 -0.2040
52127W        W52991  27.975  15.746  13.317  0.2157  0.2047  0.3478
52128W        W52992  15.909  27.052  17.066  0.2621  0.2200 -0.1221
52129W        W52993  17.959  16.772   9.391  0.0568  0.1095  0.1792
52130W        W52994   3.321  25.721  20.087  0.0687  0.0509 -0.0555
52131W        W52995  15.549  25.778   7.897 -0.1741  0.1992  0.0666
52132W        W52996  23.461  25.879   8.655  0.1028 -0.1426  0.0184
52133W        W52997   5.939   3.449   9.221 -0.3433 -0.1214 -0.0340
52134W        W52998  17.856  10.416  27.878 -0.1310 -0.1174  0.3053
52135W        W52999   1.942   6.534  14.908  0.0533  0.1570  0.0605
52136W        W53000  24.987   2.687  16.399  0.1244  0.2394 -0.1270
52137W        W53001  19.008   5.379   1.538 -0.0511  0.2455 -0.1513
52138W        W53002  20.271  13.092  11.814 -0.0598 -0.0100 -0.0748
52139W        W53003   5.041   5.765   2.878 -0.0912  0.0065  0.2921
52140W        W53004  20.019  24.463  17.840  0.1715  0.1700  0.2241
52141W        W53005  16.891  25.515  23.912  0.2117  0.1785 -0.0958
52142W        W53006  25.146  11.320  22.647  0.1709 -0.3138 -0.0234
52143W        W53007  13.055  22.501  18.800 -0.1966 -0.0807  0.1148
52144W        W53008   5.959   5.604  26.381 -0.2364  0.1221  0.1614
52145W        W53009   0.914  11.787  12.123 -0.1618 -0.3180 -0.3987
52146W        W53010   4.020  14.449  20.564 -0.1230  0.3160  0.2341
52147W        W53011   1.063   7.970   9.369 -0.5534 -0.0758  0.0030
52148W        W53012  27.398  20.565   2.744 -0.0379 -0.1961  0.0468
52149W        W53013  18.998   5.374  16.991 -0.3207 -0.1665  0.1058
52150W        W53014  18.979  20.998  13.523 -0.0063 -0.2243  0.1391
52151W        W53015  24.474  14.815   8.744  0.1117  0.0702  0.0169
52152W        W53016  14.487  17.215  16.126 -0.0570  0.1980 -0.3366
52153W        W53017  20.963  23.887  24.157 -0.0349  0.1577  0.0035
52154W        W53018  15.306  23.238  18.228 -0.0839 -0.2214  0.0996
52155W        W53019  23.145   9.772  11.619  0.1329  0.2951 -0.0769
52156W        W53020  21.015  17.592  12.733 -0.1676  0.1449 -0.1868
52157W        W53021  19.994  10.780  16.188 -0.0860 -0.0356  0.2985
52158W        W53022  12.137  27.220  16.462  0.2227 -0.0248 -0.1826
52159W        W53023  14.612  19.651   0.870 -0.3038 -0.0480  0.0732
52160W        W53024  27.420   6.139   5.902 -0.1176 -0.3158 -0.0872
52161W        W53025  14.914   7.141   0.958  0.0776  0.1255 -0.0862
52162W        W53026  22.164  19.539  26.965  0.0464  0.0959  0.2226
52163W        W53027  13.560   6.546  12.381 -0.1263 -0.0684 -0.0592
52164W        W53028  10.825   5.742  23.982 -0.2365 -0.0482  0.2578
52165W        W53029  19.794  20.556  25.240 -0.1627  0.0326  0.0783
52166W        W53030  19.719   1.356   6.248 -0.0162 -0.0951  0.1237
52167W        W53031  26.594   9.465  12.129  0.0284 -0.2454  0.0037
52168W        W53032  29.140  15.762   3.156  0.1754 -0.1520  0.1842
52169W        W53033  20.787   1.295  26.175 -0.2708  0.1246 -0.4449
52170W        W53034  22.541  17.494  16.905 -0.0020 -0.0878  0.0332
52171W        W53035   1.212  26.614  22.464 -0.1224 -0.1564  0.3567
52172W        W53036  14.517   4.692  17.357 -0.1033 -0.3142 -0.1360
52173W        W53037  21.741   1.529  27.662 -0.1130 -0.0926 -0.3152
52174W        W53038  28.449   0.573  28.421 -0.0530  0.0201  0.1992
52175W        W53039  27.694   8.576   8.835 -0.0298 -0.0867 -0.3761
52176W        W53040  22.021   1.954   5.956  0.1929  0.2848  0.1686
52177W        W53041   3.237  27.579  15.633  0.1623  0.0230  0.2156
52178W        W53042  18.595   4.648  22.840  0.5167  0.1940  0.0084
52179W        W53043   6.928  16.993  12.624 -0.0374  0.2565 -0.0145
52180W        W53044   3.080   0.771   4.177 -0.3180 -0.1110  0.2058
52181W        W53045  28.299   5.231  16.780  0.0921 -0.1731  0.0712
52182W        W53046   0.529  12.216  17.469 -0.0284 -0.0601  0.0211
52183W        W53047  28.902   9.133  24.610 -0.0008 -0.2259 -0.0681
52184W        W53048  10.009  28.102  10.215  0.1240 -0.0398  0.1776
52185W        W53049  27.925  10.906  15.542  0.2549  0.0880  0.1965
52186W        W53050  15.536  11.878  12.736  0.2732  0.1980 -0.1603
52187W        W53051  22.231  26.198  19.223  0.0799 -0.0419  0.1307
52188W        W53052  16.347  20.978  21.155 -0.2283 -0.0013  0.0432
52189W        W53053  12.411  29.050  22.281  0.6619  0.0153  0.2329
52190W        W53054  19.062  15.094  12.930  0.1614 -0.0251 -0.0472
52191W        W53055   3.648   8.572   4.987 -0.3426 -0.2061  0.1008
52192W        W53056  25.409  13.962  20.906  0.1691  0.0260 -0.0750
52193W        W53057  17.047   1.025  28.228  0.0791 -0.3715 -0.0888
52194W        W53058  21.171   2.083  23.934 -0.0160  0.2756  0.2929
52195W        W53059  15.848  15.749  12.935 -0.2986  0.3927 -0.2207
52196W        W53060   9.228   1.507  14.017  0.0835  0.0868 -0.1651
52197W        W53061  19.225  27.669  21.267  0.1159  0.2252  0.1466
52198W        W53062  20.757  20.862   3.410  0.1092 -0.0469 -0.2734
52199W        W53063  20.899  13.975  24.624  0.2280 -0.4788  0.2040
52200W        W53064   8.164  27.819  17.452 -0.0598  0.0250  0.1053
52201W        W53065  20.703   5.994   0.895  0.0902 -0.0317  0.1779
52202W        W53066  12.369   7.050  14.239 -0.3554  0.4339  0.0303
52203W        W53067  26.777  27.210  15.463 -0.3101 -0.0143 -0.1672
52204W        W53068  21.024  18.767  26.256  0.1133  0.0643 -0.1352
52205W        W53069  21.615  23.748   9.333 -0.1175  0.0910 -0.2471
52206W        W53070   7.053   8.586  11.932  0.0026  0.0281  0.1888
52207W        W53071  15.792  18.755  17.225  0.1876 -0.1545 -0.1469
52208W        W53072  21.109  19.433  19.146  0.1094 -0.0022  0.3957
52209W        W53073  16.862   9.543  23.387 -0.1124  0.3364 -0.1497
52210W        W53074  10.032  28.330  24.797 -0.1576 -0.0293  0.1992
52211W        W53075   8.731  28.893  19.011  0.2527 -0.1037  0.0638
52212W        W53076  11.225   1.622  22.738  0.0986 -0.1507 -0.0634
52213W        W53077   4.553   0.696  19.900  0.2318  0.0518 -0.0918
52214W        W53078  11.266  19.216   5.516 -0.0938 -0.0267  0.0036
52215W        W53079  25.675  27.349  11.475 -0.1858 -0.0242  0.4471
52216W        W53080  16.188   5.790   1.737  0.0114 -0.0821  0.2716
52217W        W53081  10.679   8.594   6.980 -0.3426  0.0620 -0.0263
52218W        W53082  28.203   6.030   6.412  0.1123  0.0346  0.1992
52219W        W53083  19.724  23.904   3.750  0.1835 -0.3484  0.1925
52220W        W53084  22.325  20.972  13.073  0.0894 -0.0286  0.0789
52221W        W53085  14.755   6.857  17.070  0.0455  0.2811  0.0926
52222W        W53086   7.774   6.490   7.913 -0.1618  0.1918  0.1836
52223W        W53087  20.142  14.616  23.562  0.3607 -0.0824 -0.0011
52224W        W53088  16.670   6.170  22.708 -0.1118  0.1435  0.0099
52225W        W53089   8.930  22.502   9.030  0.2722  0.0180  0.1247
52226W        W53090  28.971  20.511   0.529  0.1286  0.1398 -0.0178
52227W        W53091   7.434  20.875  10.038  0.0014  0.0090  0.1275
52228W        W53092  14.834   4.846  16.938  0.3957  0.1479  0.0857
52229W        W53093  27.411  24.398  21.297  0.1085 -0.1748  0.1445
52230W        W53094  15.353  19.960  12.819  0.0078 -0.0447 -0.2163
52231W        W53095  28.092   5.144  21.905 -0.0177 -0.0693 -0.0427
52232W        W53096  28.887  17.051  18.052 -0.2482  0.1468  0.1003
52233W        W53097  19.576  12.295  11.262 -0.1001  0.1246  0.0179
52234W        W53098  29.013   4.805  13.267  0.2201  0.0711  0.3889
52235W        W53099  20.592   9.366   0.891 -0.3225  0.1792  0.0200
52236W        W53100  27.710  24.106  22.919  0.0981 -0.2243 -0.1530
52237W        W53101  12.362  26.783   7.763 -0.2238  0.1083 -0.2955
52238W        W53102   4.534   0.584  18.197  0.1366  0.0963  0.2977
52239W        W53103  11.016  27.921  13.796  0.4627 -0.1975 -0.0326
52240W        W53104   0.534   2.136  26.554 -0.3868  0.2245  0.1079
52241W        W53105  17.740   9.001  20.505  0.1779  0.1938  0.4383
52242W        W53106  21.922  20.447  19.691 -0.2457 -0.3708 -0.0038
52243W        W53107  22.833  21.165   2.428  0.3507  0.0689 -0.1268
52244W        W53108  24.941   5.700   9.855 -0.2082  0.0196  0.1199
52245W        W53109   8.042  15.194   4.752 -0.0648 -0.0303  0.1036
52246W        W53110  13.360   8.011  17.417  0.0099  0.1829 -0.0475
52247W        W53111  22.319  21.598  12.291 -0.3284 -0.1309 -0.1597
52248W        W53112  10.751  17.688   9.935 -0.0714  0.1662 -0.0318
52249W        W53113  14.758  24.627  12.305 -0.3415  0.1732 -0.1441
52250W        W53114  20.735  19.825  13.234  0.0720 -0.1115 -0.0976
52251W        W53115  20.883  19.686   6.562 -0.2016 -0.1233 -0.5212
52252W        W53116  19.834  23.758   9.310  0.0260  0.0595  0.1109
52253W        W53117  18.290  15.719  19.840 -0.3399 -0.2141 -0.1062
52254W        W53118   4.343   1.154  26.076  0.2529  0.1562 -0.0531
52255W        W53119   8.614  23.750   0.560 -0.0742 -0.1713  0.0687
52256W        W53120  20.032  18.818   9.113  0.0592  0.4072 -0.3083
52257W        W53121   3.214   4.739   4.512 -0.0290 -0.0554  0.0229
52258W        W53122  25.610   3.312  12.575 -0.0523 -0.0169  0.0548
52259W        W53123  12.221  26.219  26.061  0.0404  0.4461 -0.0910
52260W        W53124  11.422  28.178   8.365 -0.3971  0.0996 -0.0872
52261W        W53125  27.640  21.221  22.602  0.1730  0.0756  0.2730
52262W        W53126  28.776   3.190  22.017  0.0024 -0.0382 -0.0106
52263W        W53127   0.899  20.163   2.105  0.1938  0.1390 -0.0973
52264W        W53128   7.025  16.910  14.512  0.3720 -0.2051  0.0667
52265W        W53129  13.513   7.572   9.755 -0.0169 -0.1166 -0.2623
52266W        W53130   9.383   3.776  19.972 -0.0571  0.1207  0.1233
52267W        W53131  17.728  28.824   1.569 -0.2471  0.0282 -0.0204
52268W        W53132  15.666   9.171  24.730  0.4127  0.1242  0.0390
52269W        W53133   8.596   2.925   6.858 -0.0075 -0.0229 -0.0387
52270W        W53134  12.338  13.129  24.928  0.1004  0.3226  0.0421
52271W        W53135  26.362  12.023  21.127  0.1106 -0.2721 -0.0293
52272W        W53136   0.979  21.190  16.558 -0.1069  0.2753  0.0287
52273W        W53137   0.627   1.130   4.865  0.2276  0.0050  0.4118
52274W        W53138  20.846  16.016  26.787 -0.0537  0.1352  0.0039
52275W        W53139  18.403  25.514  23.141  0.0250  0.0714  0.1359
52276W        W53140  26.421  27.828  11.428  0.1562  0.1264 -0.2340
52277W        W53141  27.740  26.237  27.316  0.2329 -0.1894 -0.0596
52278W        W53142  20.111   5.068  26.043 -0.0447  0.1335 -0.0084
52279W        W53143  28.388  27.936  10.378  0.0270  0.1507 -0.0022
52280W        W53144  21.999  16.305  22.132  0.1096 -0.2105  0.3026
52281W        W53145  26.895  25.012  16.528  0.4378 -0.0129 -0.2123
52282W        W53146   0.872   3.741  15.576  0.0149  0.2568 -0.2226
52283W        W53147  28.575   2.701  21.547  0.0001  0.0262  0.0302
52284W        W53148  28.153  22.811   9.187  0.0463  0.1110  0.1573
52285W        W53149  18.972  22.230   2.103 -0.1677 -0.0885  0.1298
52286W        W53150  22.738  24.447  11.862  0.0579  0.1891 -0.1370
52287W        W53151  15.489  25.516  21.486 -0.1913 -0.1245  0.0269
52288W        W53152  13.308  26.928   7.455  0.4274  0.1091  0.1962
52289W        W53153  24.062   4.473  25.309  0.0650 -0.2916 -0.0672
52290W        W53154   7.916  24.999  27.505 -0.4508 -0.1721  0.0646
52291W        W53155  25.063   1.149   5.498 -0.5077 -0.0497 -0.0207
52292W        W53156  24.150  25.708   4.917  0.1447  0.0171  0.2676
52293W        W53157  17.387   4.635   3.994  0.2180  0.0767 -0.0745
52294W        W53158   2.794  22.079   1.828  0.3680 -0.0481  0.0346
52295W        W53159   2.292   5.577  14.029  0.1098 -0.0220 -0.0796
52296W        W53160  17.605   3.996  12.743 -0.1003  0.0936 -0.0814
52297W        W53161  25.200  10.311  16.114  0.0108  0.0655  0.1770
52298W        W53162  16.554  21.663   5.760  0.1348 -0.1057  0.1344
52299W        W53163   2.880  13.002  16.026 -0.0317  0.1192 -0.3047
52300W        W53164  28.098   3.725   9.790 -0.3098 -0.0962 -0.3521
52301W        W53165  12.687  20.780   2.754  0.1165 -0.3410  0.0224
52302W        W53166   9.056   4.846   1.766 -0.3028 -0.1658 -0.0662
52303W        W53167  27.918  26.588   7.019  0.2717 -0.0361  0.3387
52304W        W53168  17.012  13.787   9.342  0.0268  0.4469  0.0120
52305W        W53169   4.346  24.603  16.380  0.3452 -0.1837  0.1050
52306W        W53170  20.489  14.143   9.225 -0.1777  0.0425  0.0809
52307W        W53171  11.962  13.161  14.213  0.6598 -0.1636  0.0714
52308W        W53172  16.220  21.555  18.083  0.0962 -0.2524  0.1733
52309W        W53173  16.670   4.478  25.310  0.0402  0.2577 -0.1973
52310W        W53174  25.491   3.838   6.018  0.1021  0.0210 -0.1362
52311W        W53175  18.484   3.669  17.594  0.0870 -0.0285 -0.0689
52312W        W53176  12.513  26.813  10.544 -0.0583  0.3437 -0.1253
52313W        W53177  23.016  28.179  16.029  0.0500  0.0378  0.0227
52314W        W53178   3.570   0.793   8.621  0.3036 -0.0682 -0.2894
52315W        W53179  25.268  28.988  10.942  0.0415 -0.0063 -0.0490
52316W        W53180   9.712   3.840  28.378 -0.0411 -0.1266 -0.1653
52317W        W53181  19.515   1.481   1.307 -0.2963 -0.1706 -0.2397
52318W        W53182  14.903  11.925  12.076  0.0429 -0.2114  0.0894
52319W        W53183   0.498  17.481   9.289 -0.1417 -0.0967  0.1140
52320W        W53184  26.330  16.490  17.102 -0.1436  0.0070  0.0219
52321W        W53185  27.379  22.444  13.568 -0.2988  0.1765  0.1245
52322W        W53186  20.715  16.416  23.917 -0.1006 -0.0974  0.0978
52323W        W53187  25.185  23.537  25.398  0.1988 -0.0830  0.1006
52324W        W53188  18.793  27.207   2.126  0.0557  0.0024 -0.0825
52325W        W53189  18.174  11.405  14.223 -0.2934 -0.0802 -0.0857
52326W        W53190  23.326  20.661  25.961  0.1477 -0.0569 -0.0488
52327W        W53191  26.320  11.216   0.974 -0.0548 -0.2026  0.0665
52328W        W53192   1.577  28.290  22.458 -0.0998  0.0326 -0.0047
52329W        W53193  27.536  22.164  12.271  0.0325  0.0115 -0.3285
52330W        W53194  12.617   0.750  22.905  0.0698  0.1686  0.0688
52331W        W53195   5.004  13.483   1.762  0.3195  0.1879 -0.0757
52332W        W53196  12.235  26.873  14.541  0.1418  0.0938 -0.0956
52333W        W53197  15.104  11.827  15.397  0.0166 -0.1624 -0.0995
52334W        W53198  13.190  14.488   7.826  0.1308 -0.2332 -0.0551
52335W        W53199   8.819  20.314  17.125  0.1931  0.0269 -0.0833
52336W        W53200  20.098   3.546  24.691  0.0101  0.0495  0.0624
52337W        W53201  23.026   2.474   8.762  0.2039 -0.0828  0.0334
52338W        W53202  16.397   1.091  21.769  0.0171 -0.0836 -0.1621
52339W        W53203  15.789  10.457  18.205 -0.0476 -0.0292 -0.4242
52340W        W53204  21.105   4.200   4.156  0.0284  0.2359 -0.0687
52341W        W53205  19.449  20.465  26.805  0.0940  0.1342  0.2117
52342W        W53206   0.497   0.308  17.762  0.0525 -0.1366 -0.0054
52343W        W53207   2.153   4.592  20.000 -0.0284 -0.1863  0.2615
52344W        W53208   2.253  21.739  14.905 -0.0657 -0.2665  0.2462
52345W        W53209  18.811  17.418  13.590  0.0735  0.2050  0.1147
52346W        W53210  25.475   8.393  18.179  0.1810  0.0244 -0.1254
52347W        W53211   7.364   9.473  21.379  0.1213  0.0167 -0.1304
52348W        W53212  19.437  20.776  24.008 -0.1849 -0.3264  0.1482
52349W        W53213  22.630  16.805  26.213 -0.1537  0.4360  0.1112
52350W        W53214  19.238   1.115  17.516  0.5188  0.1887 -0.0310
52351W        W53215  16.160   0.707   3.942  0.0522  0.0986  0.0372
52352W        W53216   8.203   6.999  21.595  0.2060 -0.0479  0.3414
52353W        W53217  11.358  24.844  13.151 -0.0827  0.0392  0.0462
52354W        W53218  21.607  12.068   2.797 -0.0181  0.1348  0.0358
52355W        W53219  13.202  14.628  12.423  0.3821 -0.0851 -0.0453
52356W        W53220   2.581  18.997  18.522 -0.0262  0.1274  0.0321
52357W        W53221  13.145   8.942  27.689  0.0651 -0.4340  0.0819
52358W        W53222   7.640  26.543  19.769  0.1522  0.0850  0.1185
52359W        W53223  19.597  10.896  27.031  0.2936  0.0374 -0.0696
52360W        W53224  18.839  16.646  28.096  0.2522  0.2589  0.0357
52361W        W53225  15.460  21.564  17.134  0.2820  0.1808 -0.0876
52362W        W53226  16.114  27.331   6.566 -0.1003  0.0380  0.0513
52363W        W53227  13.718   5.823  16.770  0.0365 -0.0070  0.1657
52364W        W53228  13.016   0.160  10.556 -0.0329  0.0399 -0.1953
52365W        W53229  20.403  16.089  19.513  0.1645 -0.1881  0.4318
52366W        W53230  29.075  23.971  13.116 -0.0879 -0.1060  0.2084
52367W        W53231  18.333   3.392  25.919 -0.1212  0.2898  0.1712
52368W        W53232  22.859  19.750  14.982 -0.0683  0.1748  0.2105
52369W        W53233  26.550   1.231  14.078 -0.1305 -0.0458 -0.1297
52370W        W53234  19.121   4.047  19.892  0.0382  0.3487  0.0407
52371W        W53235  27.897   1.342   6.765 -0.1623  0.1668  0.0903
52372W        W53236  28.219   6.477  14.985 -0.1356  0.0504  0.1537
52373W        W53237  26.655  17.490   6.239  0.0034 -0.0735 -0.0710
52374W        W53238  28.123  22.054  10.724 -0.1050 -0.0823 -0.2286
52375W        W53239  27.098  24.131  24.450  0.0264  0.2493 -0.1703
52376W        W53240  10.800  22.586  16.580 -0.0721 -0.0742  0.2202
52377W        W53241  10.813   4.366  25.567 -0.2570 -0.1421  0.3521
52378W        W53242  11.626   6.929  18.250 -0.3607  0.2180  0.1334
52379W        W53243  17.512  19.412  16.099 -0.0222  0.1393  0.1396
52380W        W53244  18.668  13.319   2.887 -0.0249 -0.1964 -0.1910
52381W        W53245   1.560  18.816  21.492 -0.2670 -0.1533  0.2716
52382W        W53246  13.469  25.470   6.597 -0.0913  0.0704 -0.0616
52383W        W53247  18.229  10.124  21.824  0.2590 -0.0385 -0.0114
52384W        W53248  12.487  16.685   6.966  0.0259 -0.0377  0.1508
52385W        W53249  15.513   7.275   7.722  0.0512  0.0072  0.1373
52386W        W53250  17.555   1.094  11.601 -0.1050  0.0384 -0.0179
52387W        W53251  27.271  28.703   0.158  0.3104 -0.0825 -0.4244
52388W        W53252  18.024  19.755   9.546  0.1238  0.3549  0.0088
52389W        W53253  17.790   2.773  22.182  0.2195  0.0602  0.0616
52390W        W53254   9.095  16.321  26.147 -0.2990 -0.3689 -0.0252
52391W        W53255   3.134  18.858  12.681 -0.0396  0.0699  0.0223
52392W        W53256  22.767  20.007  19.617 -0.0826 -0.2077 -0.1489
52393W        W53257  26.016  27.793   9.517  0.0759  0.0503  0.0394
52394W        W53258  14.998  23.635  10.045  0.1287 -0.3868 -0.0049
52395W        W53259   7.905  16.959   8.626 -0.3698 -0.0690  0.0196
52396W        W53260  25.842  18.890  24.058  0.0966  0.3157  0.1978
52397W        W53261  23.507  18.891  26.132 -0.2506 -0.0251 -0.1007
52398W        W53262  27.299   0.890  25.651  0.1845 -0.1274  0.0399
52399W        W53263  21.464  14.939   2.524  0.1289  0.0617 -0.2691
52400W        W53264  14.142   4.817  20.715  0.1839 -0.1351 -0.1570
52401W        W53265  26.408  15.229   7.670  0.1599 -0.0321  0.1331
52402W        W53266   0.410  10.803   4.767  0.0353  0.1531  0.2987
52403W        W53267  10.781   3.346  11.421  0.2170 -0.0856 -0.2310
52404W        W53268   4.360  22.688   7.381  0.0970  0.1308 -0.0324
52405W        W53269   9.591  12.181  17.655 -0.0037 -0.3227  0.1028
52406W        W53270  16.029   4.331  12.264  0.0988 -0.0167  0.0630
52407W        W53271  18.751  29.023   2.019 -0.0980  0.2164 -0.3365
52408W        W53272  12.091  11.997  21.985  0.0623 -0.2533  0.0762
52409W        W53273  19.151  14.466  19.332 -0.1192 -0.1154  0.1653
52410W        W53274  13.354  23.223  27.374 -0.1406 -0.3609 -0.2545
52411W        W53275  12.391   6.977  12.896 -0.1730 -0.0536  0.0746
52412W        W53276   2.212  28.050  13.215  0.2179  0.0597  0.0034
52413W        W53277  26.237  24.052  10.387  0.0760  0.4023 -0.4443
52414W        W53278  16.254  18.398  11.912 -0.2335 -0.1885  0.3603
52415W        W53279  27.647   2.899   2.919 -0.0522  0.2136  0.4825
52416W        W53280  17.181  16.882   8.861 -0.2048  0.0133  0.0874
52417W        W53281  23.451  17.424  17.503 -0.0414 -0.0210 -0.2258
52418W        W53282   2.667   7.739  20.008  0.0678 -0.1422 -0.0956
52419W        W53283   3.166  10.628  24.287  0.1302 -0.0034 -0.1137
52420W        W53284   8.524   2.360  25.026  0.0329 -0.1314  0.2119
52421W        W53285   1.435   8.315  13.768 -0.1636  0.1335  0.1611
52422W        W53286  21.473  28.892  24.032 -0.1532  0.2073 -0.0646
52423W        W53287  23.002  20.692   0.088  0.0629  0.1797 -0.2292
52424W        W53288  10.344   7.760  21.312 -0.0991 -0.3811  0.2031
52425W        W53289   0.034  14.719   3.170  0.1852 -0.0802 -0.0287
52426W        W53290  26.215  23.572   8.499 -0.0256 -0.0603 -0.1062
52427W        W53291  11.467  12.726   4.820 -0.0058  0.1047 -0.0968
52428W        W53292  11.262  28.789  12.664  0.0030  0.1073  0.1678
52429W        W53293   1.577   0.530  14.572  0.1227  0.0933 -0.3403
52430W        W53294  14.705  26.688  21.162 -0.3620 -0.0043 -0.0713
52431W        W53295  21.198   2.219  16.553 -0.1141  0.2409 -0.0244
52432W        W53296  22.375  23.619  16.482  0.2438 -0.1549  0.1766
52433W        W53297  15.235  22.805   0.659 -0.0506 -0.1273 -0.1913
52434W        W53298  22.359  13.511  27.727 -0.1958 -0.1139  0.0633
52435W        W53299   0.662   4.007   3.328 -0.4103  0.1497  0.6561
52436W        W53300   4.431   5.893  15.654 -0.1073 -0.1392  0.2715
52437W        W53301   0.079   2.057  21.673 -0.1922 -0.0471 -0.2576
52438W        W53302  23.359  12.542  13.077 -0.0378  0.0847  0.1774
52439W        W53303   3.637   9.963  17.779 -0.0102  0.0863 -0.2136
52440W        W53304  28.352  23.757   7.338  0.1890 -0.3925 -0.0553
52441W        W53305  15.847  14.959   5.658  0.1217 -0.1318  0.1771
52442W        W53306  13.565  29.024   5.927  0.0393 -0.0342  0.0560
52443W        W53307  11.938   1.770  19.348  0.1177 -0.0168  0.0918
52444W        W53308  16.891   0.598  28.507 -0.3555 -0.1216  0.1724
52445W        W53309  16.642  12.466  16.500  0.1389 -0.0542  0.1805
52446W        W53310  22.950  14.010  13.558  0.1100  0.0408 -0.0698
52447W        W53311   0.708   1.999   2.387 -0.0539 -0.1211 -0.0039
52448W        W53312   0.493   4.754  14.295 -0.1464 -0.2880  0.1368
52449W        W53313   3.108   5.087  17.894  0.2211 -0.1637 -0.1466
52450W        W53314  13.057  10.893   7.739 -0.3445 -0.2333 -0.2661
52451W        W53315  18.625   1.856  23.961  0.2744 -0.0524  0.2854
52452W        W53316  25.139   6.023  24.559  0.1203  0.3527  0.3221
52453W        W53317  14.176   7.502  25.252  0.0834  0.1716 -0.0258
52454W        W53318   6.978  11.089  27.027 -0.1008 -0.0594 -0.0153
52455W        W53319   3.910   6.090  21.029  0.2345  0.0667  0.1924
52456W        W53320  15.290  26.970   3.911 -0.1941 -0.2157  0.4109
52457W        W53321  21.922  14.934  10.340  0.0195 -0.3667 -0.0459
52458W        W53322  14.840  23.193   3.921 -0.3080  0.0609 -0.1290
52459W        W53323   8.563   9.302  20.720  0.1654  0.0356 -0.1234
52460W        W53324  21.448   9.051  20.421 -0.0780 -0.1270 -0.2763
52461W        W53325  20.327   9.126  11.565  0.2694 -0.1709 -0.0958
52462W        W53326  20.332  21.516  17.566 -0.0397 -0.0713  0.0282
52463W        W53327  24.761  11.096   9.939  0.2749 -0.3061 -0.2611
52464W        W53328   2.482  24.270  26.610 -0.1528  0.3096  0.0062
52465W        W53329  12.884   6.023   7.111 -0.2895 -0.2059 -0.1225
52466W        W53330  14.198  21.885  10.048 -0.0128  0.0435 -0.1271
52467W        W53331  17.770  26.330   8.338  0.1226  0.0147 -0.0258
52468W        W53332  29.041  12.008  15.335  0.1759 -0.3258  0.1114
52469W        W53333  20.017   5.065   8.114  0.1710  0.0587 -0.0215
52470W        W53334  22.904   5.171   2.657  0.1316  0.2745  0.1783
52471W        W53335  22.039  20.765  18.046 -0.0861 -0.0280 -0.0340
52472W        W53336   6.631   8.955   0.948 -0.3241  0.3059  0.0820
52473W        W53337   2.372   4.361   5.565  0.1172  0.0362  0.0114
52474W        W53338  20.447  25.788  14.097  0.2776 -0.1644  0.1206
52475W        W53339  28.821  20.921  24.989  0.0240  0.1235  0.0297
52476W        W53340   4.019   9.837  22.659 -0.1989 -0.0261  0.0708
52477W        W53341  10.160   7.729  11.900 -0.1921 -0.0801  0.1748
52478W        W53342  10.194   9.808  24.200  0.0826 -0.2845  0.0960
52479W        W53343  27.989   2.037  21.359 -0.0593 -0.1919  0.0476
52480W        W53344  14.567   7.667   2.969 -0.0610  0.1890  0.3022
52481W        W53345   2.552   0.081  13.603  0.3767 -0.0383  0.1897
52482W        W53346  22.085  16.082  27.487 -0.0932 -0.0079 -0.2231
52483W        W53347  23.293  19.750   4.833  0.3121 -0.0767  0.0392
52484W        W53348  20.517  26.505  14.873 -0.1738 -0.1287  0.1388
52485W        W53349  15.028   9.733  17.611  0.2442 -0.2698 -0.2622
52486W        W53350  28.450  28.107  19.965 -0.3681  0.4657 -0.1039
52487W        W53351  18.461  17.650  13.232 -0.1027  0.0197 -0.3545
52488W        W53352  19.977  13.991  27.825 -0.4174 -0.4361 -0.1564
52489W        W53353  24.313  21.620  28.997  0.2004 -0.1093  0.0837
52490W        W53354  27.406   5.788  21.501 -0.1984  0.3216 -0.2294
52491W        W53355  14.471   4.702  25.591  0.0394  0.1189 -0.1662
52492W        W53356  22.465  12.147  13.249  0.0272  0.0781  0.1584
52493W        W53357  24.204  11.178  17.252 -0.0604 -0.0815 -0.0661
52494W        W53358  15.681  22.431  17.315 -0.0592 -0.1680  0.0544
52495W        W53359  17.791   9.787  12.510 -0.0409 -0.0461 -0.0415
52496W        W53360  15.065   7.968  20.409 -0.0529  0.1100 -0.3172
52497W        W53361  16.152  18.941  26.393  0.0068  0.2211 -0.0609
52498W        W53362  13.574   1.270  21.987  0.1382  0.0019  0.2534
52499W        W53363   8.076  18.437   6.067  0.0181  0.0180  0.3655
52500W        W53364   4.400   3.139  24.050 -0.1419 -0.0187 -0.1019
52501W        W53365   2.939  19.634  25.510  0.2056  0.1617 -0.1564
52502W        W53366   8.537  28.815   2.956 -0.1135  0.0061  0.1964
52503W        W53367  25.898  10.180   1.972  0.0917  0.4333 -0.0656
52504W        W53368  18.291  23.395  28.692 -0.1227  0.0178 -0.1807
52505W        W53369  20.398  11.812   4.285  0.1719  0.5103  0.1826
52506W        W53370   3.843  16.517  22.686  0.1738  0.1424 -0.0559
52507W        W53371   0.047  20.777   2.141 -0.0363 -0.1231 -0.0494
52508W        W53372   0.004   1.553   8.921  0.2382 -0.2509  0.3083
52509W        W53373  24.910  27.762  28.416  0.3532  0.3661 -0.2300
52510W        W53374  21.249   4.662  14.026 -0.1384  0.0259 -0.1115
52511W        W53375  27.349  18.111   2.563 -0.1545  0.1307 -0.1347
52512W        W53376  16.654  22.233  24.820 -0.0735  0.0714 -0.1331
52513W        W53377   4.105   2.694   2.333  0.0294 -0.1896 -0.0128
52514W        W53378  11.370  25.739  11.405 -0.0755 -0.0185 -0.0811
52515W        W53379  22.538   7.568  21.634 -0.3917 -0.4849 -0.1849
52516W        W53380  20.631   0.332  28.670  0.0657  0.0250 -0.2248
52517W        W53381   1.386  28.488  18.564 -0.0715 -0.0761 -0.1686
52518W        W53382  11.235   1.978   1.166 -0.1247 -0.2964 -0.2795
52519W        W53383  12.513  21.890  11.107  0.0315  0.3351  0.1547
52520W        W53384  22.797  18.740  18.745 -0.1631 -0.0043  0.4258
52521W        W53385  21.373  21.938   4.706 -0.2576  0.0687 -0.0707
52522W        W53386  12.878  20.145  12.650  0.1831 -0.0482  0.2409
52523W        W53387  15.231   6.291  15.862 -0.0175 -0.2845 -0.1852
52524W        W53388   9.275  25.157  16.286 -0.2936 -0.0958  0.1655
52525W        W53389   7.021  13.985  14.850 -0.1113  0.1673  0.2797
52526W        W53390  17.615   3.319  18.251  0.3301 -0.0017  0.1123
52527W        W53391  11.661  17.856  20.225  0.1919  0.1361 -0.0532
52528W        W53392  10.329  23.429   0.761 -0.2351  0.0737  0.0278
52529W        W53393   9.167  13.729  18.532 -0.0376 -0.0401 -0.2930
52530W        W53394  27.002   2.945  19.646  0.1153 -0.0626 -0.1439
52531W        W53395  19.375   9.805  13.338 -0.0080  0.0772 -0.0769
52532W        W53396   5.224  12.569  20.961 -0.0385 -0.0632  0.1906
52533W        W53397   9.937   3.284  20.384  0.1882  0.3877 -0.0254
52534W        W53398  19.732  27.285   2.462  0.1887  0.3513 -0.0070
52535W        W53399  23.696  25.288   5.900 -0.1237  0.1934 -0.1130
52536W        W53400  10.734  23.708  27.955 -0.0789  0.0455  0.3953
52537W        W53401  18.660   7.641  18.459 -0.3424  0.0901  0.3366
52538W        W53402  17.365  24.546   8.552  0.0287  0.0484 -0.2623
52539W        W53403  21.294  18.823  23.046  0.4738 -0.3255  0.0990
52540W        W53404   4.406  27.007  10.276 -0.3600 -0.1512 -0.0281
52541W        W53405  19.440   5.173   1.028  0.0437  0.0514 -0.0533
52542W        W53406   4.586   2.302  17.392 -0.0929  0.0457 -0.0579
52543W        W53407  28.095   9.712  10.054 -0.0004  0.1915  0.3446
52544W        W53408  19.404  26.316  27.167  0.0004  0.1959 -0.1383
52545W        W53409  27.523   7.664  11.232 -0.1252  0.1221 -0.4010
52546W        W53410   0.196  21.784   9.919  0.1418  0.2732 -0.0854
52547W        W53411  26.054   0.086  15.083  0.0355 -0.1342  0.3080
52548W        W53412  25.003   2.348  12.450  0.0752 -0.1192 -0.0076
52549W        W53413  13.171  26.799   0.403 -0.0403  0.1767  0.1732
52550W        W53414  14.485  24.088  28.460  0.0144  0.0786 -0.1768
52551W        W53415  25.262  16.439  25.795 -0.0453  0.2610  0.0871
52552W        W53416   6.391  27.025   3.927  0.0516  0.4525 -0.1109
52553W        W53417  28.826  28.820  26.944  0.1232 -0.0961 -0.1819
52554W        W53418   4.622   2.651  14.814 -0.1444 -0.1255 -0.0738
52555W        W53419   7.150   6.761  23.933 -0.2523 -0.0291  0.0048
52556W        W53420   2.516  16.319  23.962 -0.2860  0.0830  0.0235
52557W        W53421  19.628  25.016  11.487 -0.4391  0.0511 -0.2898
52558W        W53422  13.563   6.324  28.873 -0.1671  0.0229 -0.1939
52559W        W53423  18.922  10.730   5.253  0.0451  0.0633 -0.0075
52560W        W53424   1.945   0.518  18.727 -0.2800 -0.1820 -0.1076
52561W        W53425  18.309  10.345  19.978 -0.1306 -0.0460 -0.1895
52562W        W53426   7.687   1.976  16.871  0.2156  0.1516  0.0279
52563W        W53427  13.695   8.806   3.090  0.1368 -0.0042  0.0618
52564W        W53428  21.402   8.125  16.962 -0.3944  0.3703 -0.0271
52565W        W53429  24.107  18.822   5.358 -0.0080 -0.0116  0.0941
52566W        W53430  11.110   8.901  22.084 -0.0015 -0.0894  0.2132
52567W        W53431  26.160   3.175  23.737  0.1188 -0.2043  0.0193
52568W        W53432  19.807  19.531  15.985 -0.3806 -0.0998  0.2826
52569W        W53433  21.965  26.383  19.690  0.3943 -0.1356  0.1407
52570W        W53434   3.131   3.705  21.075  0.3472 -0.1269 -0.0326
52571W        W53435   5.114   0.351  17.414 -0.0465  0.1578  0.0819
52572W        W53436  29.022  20.875  22.580 -0.2004  0.0155  0.0650
52573W        W53437   5.941   6.866  25.468 -0.0546 -0.0031  0.1086
52574W        W53438  18.799  22.148  19.435 -0.2426 -0.1501 -0.1805
52575W        W53439  16.831   0.766  29.004 -0.0150 -0.3240 -0.0813
52576W        W53440   1.994  27.167   1.578 -0.2747 -0.2999  0.3026
52577W        W53441  27.937   0.784  26.362 -0.0532 -0.0813 -0.0270
52578W        W53442  16.134   3.298  15.646 -0.2452 -0.1222  0.1227
52579W        W53443  25.423   2.616  29.103 -0.3434  0.2484 -0.1865
52580W        W53444   9.242  21.167  25.162  0.2804 -0.2594  0.4087
52581W        W53445  18.961   4.717   8.811 -0.1182  0.4287 -0.1469
52582W        W53446  21.417  28.340   3.009 -0.0614 -0.2003 -0.1378
52583W        W53447  24.366  15.818  21.649  0.0573  0.0581  0.0981
52584W        W53448   2.024  22.363  19.813 -0.2346  0.0444  0.1044
52585W        W53449  19.308   5.654  18.397  0.2250  0.3027  0.0088
52586W        W53450   1.418  19.399  18.886  0.0061  0.1077  0.3023
52587W        W53451  15.727  19.129  21.473 -0.2334 -0.3844 -0.3427
52588W        W53452   4.147  15.035  10.382 -0.1461  0.0522 -0.1078
52589W        W53453   8.771  25.927  19.493 -0.0522 -0.0348 -0.3287
52590W        W53454   6.518   2.946  19.712 -0.1433  0.1539  0.2789
52591W        W53455  18.989   0.825  16.533  0.4359 -0.1390  0.3333
52592W        W53456  17.371  22.220  28.832 -0.0027  0.2702 -0.2741
52593W        W53457  12.835   1.782  20.593 -0.2550 -0.0899  0.0790
52594W        W53458  19.619  19.355   3.073  0.0328  0.2415  0.1397
52595W        W53459  12.464   4.301  26.980 -0.0612 -0.2588 -0.0796
52596W        W53460   6.616   3.184  11.480 -0.0434 -0.0851  0.2193
52597W        W53461  14.014   5.045  21.662 -0.0437 -0.2484  0.1808
52598W        W53462   4.543  15.123   0.516  0.0648  0.3465  0.0710
52599W        W53463   0.792  26.566  17.929 -0.0060  0.2410  0.4845
52600W        W53464   5.815  19.514  15.692 -0.2230  0.1796  0.0412
52601W        W53465  17.916  21.656  20.700 -0.0083 -0.0542 -0.1355
52602W        W53466  11.105  21.505  21.042 -0.2421 -0.1413 -0.0188
52603W        W53467   6.264  18.954   1.288 -0.2116  0.0993 -0.2670
52604W        W53468  15.051   3.474  20.140 -0.0672 -0.0403 -0.1481
52605W        W53469   5.277  20.380  13.249 -0.2461  0.4515 -0.2062
52606W        W53470  26.592  14.425  13.747 -0.1240  0.0957 -0.3196
52607W        W53471  28.126  22.205   6.637 -0.2031 -0.0478  0.1132
52608W        W53472  14.412   9.492   6.633 -0.1896 -0.0217  0.0088
52609W        W53473  22.361   9.598  24.348 -0.0846  0.0341 -0.2381
52610W        W53474   5.746  19.067   3.283 -0.1036 -0.0921  0.0182
52611W        W53475  20.123   7.666  28.500  0.0043 -0.0991 -0.1451
52612W        W53476  25.435  15.211  18.148  0.0413 -0.1602 -0.0085
52613W        W53477   0.844  14.136  28.764  0.0074 -0.0118  0.1263
52614W        W53478  13.740   2.704  15.682 -0.1772  0.0497  0.1868
52615W        W53479  13.715   0.531  11.942 -0.1832  0.0688 -0.0296
52616W        W53480  16.832   2.574  24.426 -0.0450  0.2180 -0.1435
52617W        W53481  13.722  23.505   4.858  0.4561  0.0389 -0.0100
52618W        W53482  23.728  24.458  11.368  0.1769 -0.2114 -0.1360
52619W        W53483  14.582   2.921  22.235  0.2054 -0.0010  0.1173
52620W        W53484   5.925   6.360  11.449 -0.1062 -0.3365  0.0029
52621W        W53485  19.624  14.624   6.181  0.2183 -0.0863 -0.3023
52622W        W53486  14.369   8.182   2.375 -0.0428  0.1443  0.0428
52623W        W53487   5.666  25.877  28.012  0.2741  0.2909 -0.2081
52624W        W53488  22.341   4.052   7.281 -0.1621 -0.0063  0.0649
52625W        W53489  20.602  17.971  23.896  0.4360  0.0202  0.2746
52626W        W53490   6.432  16.431  24.942 -0.0473 -0.1189 -0.1842
52627W        W53491  20.581   6.556  19.783  0.1381  0.2442  0.0562
52628W        W53492  21.006   5.456  14.237 -0.0306  0.2132 -0.1623
52629W        W53493  10.580  26.493  16.050  0.3597  0.0094 -0.1939
52630W        W53494   9.636  22.588  28.787 -0.2051  0.1013  0.0376
52631W        W53495  18.966  15.983   2.554  0.1095 -0.0954 -0.1506
52632W        W53496   2.561   7.022  10.652  0.2243 -0.0252  0.3737
52633W        W53497  18.075   5.512  10.300 -0.1130  0.0168  0.1715
52634W        W53498   9.868  27.020   8.559  0.1530 -0.2253  0.0580
52635W        W53499  22.031   7.394  24.139  0.0083 -0.0320 -0.2349
52636W        W53500   2.612  23.833  17.270 -0.1763 -0.0136  0.2574
52637W        W53501   4.964   2.425  27.177 -0.0439  0.0075  0.2351
52638W        W53502  25.688  15.882  26.985  0.0282  0.0001  0.2280
52639W        W53503  14.337  14.330  15.071  0.0000 -0.1335 -0.0246
52640W        W53504  26.778  17.024   1.025 -0.0315 -0.0921  0.0741
52641W        W53505  13.591  19.016  26.086 -0.3533  0.0979 -0.1607
52642W        W53506  28.621   4.188  21.551  0.1243 -0.0428 -0.1651
52643W        W53507  12.412  22.869  25.453 -0.1519 -0.0978 -0.1144
52644W        W53508  28.402  18.485  23.821  0.1529 -0.0143  0.0841
52645W        W53509   1.865  21.697  17.356 -0.0787 -0.2483 -0.1697
52646W        W53510  16.970   4.099  19.713  0.0114  0.0939 -0.0519
52647W        W53511  13.619  21.860   5.257 -0.1203 -0.3660  0.2520
52648W        W53512  26.508   9.842  14.638 -0.2688 -0.1489  0.0964
52649W        W53513  20.483  24.218  15.477  0.1532 -0.1347 -0.2140
52650W        W53514   2.913  26.976  20.780 -0.1343  0.3615  0.0434
52651W        W53515  12.505   6.550  20.616  0.2208  0.4378 -0.0944
52652W        W53516   4.298  26.503  26.581  0.1219 -0.1756 -0.3337
52653W        W53517   6.613  10.620  20.279  0.0261  0.0390 -0.2823
52654W        W53518  22.488   2.920  14.526  0.1509 -0.0461 -0.1020
52655W        W53519  20.909  17.636  11.843  0.1664  0.0485  0.3580
52656W        W53520  19.532   6.392  25.084 -0.0098 -0.0597  0.2014
52657W        W53521  13.255  22.790   8.367  0.0190 -0.2710  0.0455
52658W        W53522  19.962  21.620  18.835  0.1153 -0.1643 -0.2205
52659W        W53523  12.371   0.933  12.179  0.3349  0.1983 -0.1320
52660W        W53524  24.466  10.121   1.774 -0.0379 -0.1932 -0.2398
52661W        W53525  25.415  27.034  11.053 -0.1408  0.1293  0.3639
52662W        W53526   8.529   8.439   0.126  0.1128 -0.1996 -0.0656
52663W        W53527  10.463   5.976  13.782  0.3021  0.3453 -0.0242
52664W        W53528  27.708   8.735  14.176  0.1658 -0.2433  0.2349
52665W        W53529  23.867  26.908  21.491 -0.1089 -0.2085 -0.0439
52666W        W53530  10.123  24.681  13.629 -0.0763  0.1185 -0.1459
52667W        W53531  18.753  25.590   4.767  0.0715  0.0386  0.2922
52668W        W53532  18.691  23.864  23.939 -0.0718  0.0463  0.1065
52669W        W53533  18.189   4.239  14.227  0.0875  0.2207 -0.1013
52670W        W53534  19.036  27.300   3.128  0.0098  0.0793  0.2399
52671W        W53535  16.678  16.937   8.146  0.3367  0.2201  0.0381
52672W        W53536   3.752  21.482   2.958 -0.1294  0.0554  0.0195
52673W        W53537  12.390  23.285  18.885  0.0379 -0.1284  0.0967
52674W        W53538  26.694  28.196  27.708  0.2529 -0.2048 -0.2874
52675W        W53539  18.022  13.173  28.794  0.0814  0.2398  0.2621
52676W        W53540   0.692  19.242  28.097 -0.1561  0.2018  0.1152
52677W        W53541  25.194  26.540  27.097  0.2969 -0.0694  0.2592
52678W        W53542   1.635  27.428   0.376 -0.3053  0.0638  0.0931
52679W        W53543  12.838  17.525  21.289  0.0658 -0.0653  0.1449
52680W        W53544  17.544  11.313  11.204 -0.0199  0.0782  0.0682
52681W        W53545  12.615   5.688  20.005  0.1572 -0.0335  0.1699
52682W        W53546   0.110   3.464   8.998  0.0892 -0.3356 -0.1722
52683W        W53547  12.726  10.414   7.183  0.1288 -0.0764  0.0667
52684W        W53548  19.828  19.951  22.505  0.1383 -0.1227 -0.0325
52685W        W53549   4.902   0.324  19.645  0.2027 -0.0201  0.1072
52686W        W53550  10.662  11.505  16.544  0.1141 -0.0518  0.2118
52687W        W53551   5.502  12.924  22.409 -0.0918 -0.0555 -0.0507
52688W        W53552  14.308  17.585   4.563 -0.2153  0.0115 -0.1173
52689W        W53553  22.197  27.274  15.240 -0.2015  0.0130 -0.1018
52690W        W53554  13.894  23.857   6.595 -0.3106  0.1776 -0.0018
52691W        W53555  27.637  23.857  28.973 -0.0866 -0.1471 -0.1875
52692W        W53556  15.611   5.887   8.457  0.2507  0.3282 -0.1665
52693W        W53557  26.576  21.923  16.874  0.1313 -0.1656  0.1060
52694W        W53558  23.453  26.736  21.210 -0.4413 -0.1230 -0.1690
52695W        W53559   4.248   7.227   1.825  0.0129  0.3439 -0.1645
52696W        W53560  26.072   8.298  28.715  0.0235 -0.1633 -0.2667
52697W        W53561  22.175  27.286  15.735  0.0136 -0.3297  0.2432
52698W        W53562   0.892  27.349  11.394 -0.1459 -0.3345  0.0120
52699W        W53563   1.813   2.752  29.079 -0.0442 -0.2368 -0.3689
52700W        W53564  16.464  24.119  12.475  0.1935 -0.2136  0.1640
52701W        W53565  18.798  26.484  27.823  0.2946 -0.3067  0.1429
52702W        W53566  11.250  21.694  18.354  0.3105 -0.0464 -0.5062
52703W        W53567  27.257  16.577  13.881  0.0902 -0.3135 -0.3636
52704W        W53568  21.060  23.544  18.696  0.0719 -0.1834  0.1124
52705W        W53569  17.568   8.925   1.874 -0.1322  0.0356 -0.1221
52706W        W53570   1.171  25.806   5.654  0.2604  0.1619  0.1919
52707W        W53571  23.224   6.046  29.049 -0.0463 -0.0398 -0.0966
52708W        W53572  28.319  22.756  14.064 -0.1281  0.3942  0.0137
52709W        W53573  22.942  29.107  18.702 -0.2573  0.2945 -0.1345
52710W        W53574  16.402  12.574  24.709 -0.1131  0.0225  0.0978
52711W        W53575  12.965   0.502  25.452  0.1414 -0.3819  0.2563
52712W        W53576   6.739   4.530  27.290  0.4170  0.2384  0.1263
52713W        W53577  18.122  25.590  28.728 -0.1317  0.1948 -0.0083
52714W        W53578  25.646  23.865  15.690  0.0211  0.0131  0.0181
52715W        W53579  18.866   3.174  16.383 -0.2701 -0.1189 -0.0674
52716W        W53580  19.260   0.726   9.779  0.1215  0.1277 -0.0191
52717W        W53581   1.205  19.932   4.978  0.0460 -0.0108 -0.2986
52718W        W53582  27.100   5.238  27.804  0.2176  0.1572  0.1440
52719W        W53583  10.450   3.189  20.915  0.2059 -0.2195 -0.1290
52720W        W53584  20.881  19.674  21.114 -0.3398  0.3887 -0.0456
52721W        W53585  20.766   3.001   1.844  0.1578  0.0724 -0.0144
52722W        W53586  23.272  27.425  13.851 -0.1074 -0.1928  0.0364
52723W        W53587  16.191  19.092  28.980  0.0760  0.1807 -0.3287
52724W        W53588  13.326   6.368  25.784 -0.0742  0.1971 -0.4811
52725W        W53589  29.011  18.671   5.397  0.0286  0.2178 -0.0263
52726W        W53590   1.126  20.559   0.223 -0.0057 -0.0301 -0.3040
52727W        W53591   4.204   0.164   5.091  0.2746 -0.2696 -0.0013
52728W        W53592  27.970  14.022   5.644 -0.1749 -0.0234  0.0486
52729W        W53593   1.475  13.645   9.398 -0.1119 -0.1646 -0.1491
52730W        W53594  11.794  11.167   4.328  0.0496 -0.1575 -0.0146
52731W        W53595  19.285   0.573  23.617 -0.0253  0.1563 -0.1747
52732W        W53596  14.410   7.238  20.036 -0.2214 -0.0559  0.1149
52733W        W53597  18.586   3.275  18.495  0.0600 -0.3501 -0.1871
52734W        W53598   4.344  19.351   9.637 -0.3074  0.0366 -0.1085
52735W        W53599  26.881  22.517  15.625  0.3716  0.1281 -0.1499
52736W        W53600   4.737  26.500   0.627 -0.1007 -0.1341  0.2590
52737W        W53601  26.529   8.755  16.744  0.0927 -0.2652 -0.0905
52738W        W53602  21.595   9.794   6.555 -0.1906  0.0391 -0.0889
52739W        W53603  18.127  21.713  16.590  0.0550  0.4158 -0.0726
52740W        W53604  25.367   4.738  25.092  0.0065  0.1068  0.2318
52741W        W53605  18.265   2.325  27.461  0.2107 -0.2015  0.1468
52742W        W53606  16.234  26.102   4.438  0.3661 -0.1812 -0.0656
52743W        W53607   7.254   2.803  28.005 -0.0282  0.2666 -0.1553
52744W        W53608   2.374   8.360  21.052  0.0259 -0.0437 -0.1071
52745W        W53609  24.452   7.329   9.844 -0.2142 -0.1574 -0.2439
52746W        W53610  16.543  26.978  10.208 -0.1390  0.0200  0.1101
52747W        W53611  25.070   9.799  28.837  0.0720  0.0884  0.0609
52748W        W53612  19.344  26.488   5.853 -0.1625  0.0000 -0.1959
52749W        W53613  27.880   2.344  14.728  0.3198 -0.0845  0.3205
52750W        W53614  26.976  11.440  27.631  0.1140  0.0498  0.1011
52751W        W53615  15.065   1.561   3.108 -0.2759  0.2669  0.1618
52752W        W53616  26.634   3.136   7.360 -0.0144  0.0368  0.1118
52753W        W53617  16.763  17.275   7.741 -0.2394 -0.0382 -0.1376
52754W        W53618   9.707  22.501  17.768 -0.0172  0.3263 -0.2010
52755W        W53619   7.996  21.973  19.360 -0.1116 -0.0509  0.1794
52756W        W53620   2.927  25.458  15.766 -0.0508 -0.1749 -0.1497
52757W        W53621  26.045   6.054   5.541  0.0622 -0.1954  0.0304
52758W        W53622  16.889  23.971  27.066  0.0756 -0.0361  0.1872
52759W        W53623   5.583  25.871  19.964  0.2222 -0.0977  0.0872
52760W        W53624  23.234  28.234   6.851  0.1112  0.1724 -0.1527
52761W        W53625  22.252   1.599  22.026 -0.2600  0.1134  0.2023
52762W        W53626  28.864  19.375  27.073 -0.0074 -0.1293 -0.1973
52763W        W53627   1.051   7.771  13.026 -0.0062 -0.2693  0.1851
52764W        W53628  28.859   7.368  13.475 -0.1912 -0.0364 -0.4190
52765W        W53629  20.839  25.389  21.639 -0.2503  0.2305  0.0224
52766W        W53630  19.497  18.267   2.962 -0.1299  0.1570  0.2998
52767W        W53631  26.391  16.825   4.105  0.1211 -0.0676 -0.0792
52768W        W53632  14.741  24.652  25.142 -0.1250  0.2376  0.1527
52769W        W53633  21.608   9.916  16.584 -0.1807  0.0174  0.3089
52770W        W53634   6.328   6.115  14.836  0.1248 -0.2188  0.2046
52771W        W53635  11.919   4.864  22.898 -0.2245 -0.0976  0.4042
52772W        W53636  25.598  16.764  18.203 -0.0404  0.1281  0.0499
52773W        W53637   7.037  27.548   7.619 -0.3416  0.2715 -0.2370
52774W        W53638   6.273   9.675  20.078  0.1666 -0.2995 -0.0148
52775W        W53639  16.315  13.116  22.878  0.2129 -0.0055  0.2342
52776W        W53640   6.155  24.305  22.690  0.2582 -0.0625 -0.0765
52777W        W53641   0.775   3.862  11.177 -0.0303 -0.0344  0.3033
52778W        W53642  20.449   0.795  20.198 -0.1732 -0.0257 -0.1386
52779W        W53643   3.904  22.145   6.855  0.2720  0.0856  0.0701
52780W        W53644  25.233  14.965  27.955 -0.1064  0.0059 -0.0665
52781W        W53645  13.927  12.145  16.195 -0.0146  0.1564  0.0439
52782W        W53646   9.718  10.311  19.237 -0.1170 -0.2186  0.0231
52783W        W53647  22.378  16.660  23.018  0.3477  0.0138  0.1798
52784W        W53648  25.197  21.708  15.660 -0.3425  0.3621 -0.3337
52785W        W53649  24.449   2.275  20.265  0.0336  0.1455 -0.0907
52786W        W53650  20.953  21.545  24.942 -0.3867  0.1376  0.0024
52787W        W53651  23.377  26.474   0.758  0.1061 -0.3597 -0.0280
52788W        W53652  12.953  10.495  15.028  0.2993  0.1405  0.0081
52789W        W53653  23.763  27.880   1.368 -0.0136 -0.0680 -0.2059
52790W        W53654  25.063  20.124  25.639 -0.2258 -0.0112  0.0552
52791W        W53655  16.962  24.513   1.636  0.1273 -0.1418  0.0869
52792W        W53656   1.469  16.772  17.307  0.0779  0.4157  0.1116
52793W        W53657  12.133   2.425  22.838 -0.2237  0.0016 -0.1813
52794W        W53658  20.151  24.871  13.079  0.1782 -0.1981  0.1945
52795W        W53659  24.945  27.794  28.986  0.3481  0.2640 -0.0704
52796W        W53660  16.983  10.846   9.954  0.1858  0.2726 -0.2383
52797W        W53661  25.018   2.561  11.137  0.0232 -0.1456  0.0853
52798W        W53662  20.661  20.616  17.969 -0.1605 -0.0763  0.2868
52799W        W53663  15.993   8.726  15.643 -0.3798  0.1861 -0.0500
52800W        W53664  21.930  16.307   6.350 -0.1378 -0.1628 -0.0620
52801W        W53665  18.286   0.067  13.206 -0.1964 -0.3543  0.0838
52802W        W53666  17.643  16.583  27.370 -0.0792 -0.0776  0.0045
52803W        W53667  11.726   7.400  15.708 -0.3814 -0.1372 -0.0881
52804W        W53668  12.292  14.237  15.110  0.1716 -0.1215  0.2729
52805W        W53669  25.502  28.421   2.966 -0.2122 -0.2911 -0.2076
52806W        W53670   2.912   3.427  19.737 -0.0336  0.0442 -0.0596
52807W        W53671  20.880   0.647  23.415  0.3028 -0.0386 -0.0087
52808W        W53672  27.529   4.909   4.129  0.0675 -0.0919  0.0831
52809W        W53673  27.775   6.266  27.294  0.0149 -0.1551  0.1915
52810W        W53674  23.872   3.253   2.829 -0.0747 -0.2037  0.0607
52811W        W53675  25.482   1.811  19.095  0.1569 -0.0147  0.2392
52812W        W53676  27.444   0.013  16.625  0.4362 -0.1963  0.0594
52813W        W53677  18.626  17.821  15.450  0.1446 -0.0572 -0.0959
52814W        W53678  17.833   2.863  17.945  0.1083  0.2042  0.2326
52815W        W53679  23.463   2.706   9.800  0.0623 -0.4395 -0.1262
52816W        W53680   2.008  22.179   2.579 -0.1349 -0.3556  0.1776
52817W        W53681  14.832  23.117  23.700  0.1393 -0.2676  0.3175
52818W        W53682   4.615  24.037  26.392 -0.2209 -0.0392  0.0974
52819W        W53683  24.665   3.773  15.985  0.0949 -0.1981  0.0818
52820W        W53684  20.716   9.137  27.201 -0.0354 -0.1468  0.2786
52821W        W53685  26.791  19.757  26.440  0.1592 -0.0345 -0.1324
52822W        W53686   0.178   1.800  14.761 -0.1649  0.1002  0.1118
52823W        W53687   2.039   9.816  11.526 -0.4238  0.0705  0.0965
52824W        W53688  11.763  19.872  10.323 -0.0681 -0.0384 -0.0030
52825W        W53689   1.168   7.991  21.839 -0.2804  0.2140 -0.2106
52826W        W53690   7.185   1.761  24.560 -0.1173  0.0449  0.0401
52827W        W53691  17.056  18.632  14.385 -0.0135  0.0650 -0.1712
52828W        W53692  24.505  24.821  20.873  0.0495  0.0398  0.0110
52829W        W53693  10.561   0.632  27.111 -0.0033  0.0588 -0.0878
52830W        W53694  16.899  11.938  15.110 -0.0968  0.2380  0.0688
52831W        W53695   9.418   4.431  20.885  0.1401  0.1625  0.3404
52832W        W53696  15.740   6.019  22.089 -0.0338 -0.0198 -0.0373
52833W        W53697  19.468  20.846  28.438 -0.1640  0.0300  0.4845
52834W        W53698   3.861  22.793   2.046 -0.0661 -0.2256  0.1948
52835W        W53699   9.535  11.684  17.508  0.3329  0.4011 -0.1293
52836W        W53700   3.930   4.939  15.840  0.0293  0.1632 -0.1538
52837W        W53701  25.565   1.417  15.821  0.2991 -0.0308 -0.3879
52838W        W53702  18.730   2.820  23.607 -0.2297  0.0728  0.0261
52839W        W53703  21.393  28.093  21.644  0.0443 -0.2980  0.2357
52840W        W53704   0.355  13.466   3.085 -0.1503 -0.0908  0.0086
52841W        W53705  28.340  24.818  11.550  0.0360 -0.2496  0.1222
52842W        W53706  19.169   3.926  23.448  0.4256 -0.1860  0.1103
52843W        W53707  23.930  17.426  27.259 -0.1781  0.1071 -0.0595
52844W        W53708   7.283   9.456  15.219 -0.0265 -0.0616 -0.0814
52845W        W53709  23.162   6.568  19.356  0.0991 -0.3063  0.0405
52846W        W53710   9.728  12.133  18.117 -0.1348  0.0802 -0.2474
52847W        W53711  24.564   8.381  11.007 -0.2023  0.0888 -0.1715
52848W        W53712  20.714  27.992   9.185 -0.0712 -0.2519  0.1794
52849W        W53713  20.124  25.756   7.573 -0.0594 -0.0486  0.1851
52850W        W53714  22.944  10.539  26.108  0.0943 -0.2828 -0.1627
52851W        W53715  24.753  18.141   0.846  0.1796 -0.2633  0.0878
52852W        W53716  14.540  21.067   3.634 -0.1854 -0.1720 -0.1334
52853W        W53717  10.924  13.058   3.347  0.1060 -0.0360 -0.1949
52854W        W53718  13.607  25.914  21.835 -0.2000 -0.0336 -0.0237
52855W        W53719   5.299  25.394  24.576 -0.2196 -0.3591  0.3967
52856W        W53720  17.124   1.017   9.751  0.1925  0.0232  0.0019
52857W        W53721  29.101   2.883  20.034  0.1319  0.5595  0.1664
52858W        W53722  28.467   3.670   8.010  0.0011 -0.0980  0.0563
52859W        W53723  25.576  25.139   1.525 -0.1902  0.0909  0.2442
52860W        W53724  23.764  16.753  12.985  0.1345  0.1362 -0.2218
52861W        W53725   9.277   1.427  24.798  0.0754  0.2383  0.0426
52862W        W53726  24.217  21.759  28.470 -0.0592  0.3613 -0.3480
52863W        W53727  20.917  24.291  15.316  0.2562 -0.0881 -0.1532
52864W        W53728  20.916  16.226  12.257 -0.0256 -0.1970  0.1331
52865W        W53729   6.062  19.581  23.322 -0.0662 -0.0386  0.2504
52866W        W53730  11.130  18.215  27.046  0.1821 -0.1250  0.2607
52867W        W53731   9.028   0.627  23.783  0.2214 -0.1933 -0.0032
52868W        W53732   9.052  14.222  21.493  0.1141 -0.0398  0.1428
52869W        W53733   4.825  15.555  24.363 -0.1968 -0.2041  0.0355
52870W        W53734  27.834  28.737  23.708 -0.1865 -0.1809  0.1962
52871W        W53735  25.756  12.975   3.625 -0.0053  0.1023  0.2457
52872W        W53736   9.772   1.743  19.578  0.0083  0.0104 -0.4173
52873W        W53737  27.225   0.893  22.704  0.1910  0.0955  0.0435
52874W        W53738  10.065  28.244   6.342 -0.1493  0.0151 -0.4661
52875W        W53739  14.095   3.620  22.065  0.2405 -0.3550  0.1979
52876W        W53740   8.285   1.842  18.493  0.2275  0.0410  0.2360
52877W        W53741  23.086  12.930  19.406 -0.1705 -0.3658  0.2476
52878W        W53742  17.791  23.006   6.022  0.2385  0.1442  0.1749
52879W        W53743   5.400  21.139  11.394  0.0779 -0.0310  0.0179
52880W        W53744  26.408  11.434  13.255  0.0038  0.0474 -0.0442
52881W        W53745  28.599  21.581  27.076  0.0672 -0.0013  0.1340
52882W        W53746  27.631   5.704   3.324  0.1917  0.0077  0.0921
52883W        W53747   9.808  19.539  25.965 -0.2340  0.0360  0.2565
52884W        W53748  13.733   1.204  29.077  0.3657  0.1331 -0.1159
52885W        W53749  17.152  23.888  18.341 -0.3294  0.1091 -0.1724
52886W        W53750  18.598  22.301  27.707 -0.3016  0.0246  0.0603
52887W        W53751  20.521  29.085  16.764  0.1447 -0.0933  0.3938
52888W        W53752  11.264  22.621  17.876 -0.0771  0.1534  0.2376
52889W        W53753  26.039   1.717   1.366 -0.1433  0.0799  0.2441
52890W        W53754   7.988  24.188  25.250 -0.1147  0.3944  0.1793
52891W        W53755  24.838  26.510  27.559  0.1812  0.1010  0.1041
52892W        W53756  16.599  28.040  26.078 -0.1075  0.2258 -0.2113
52893W        W53757  10.976  20.547   3.857 -0.4063 -0.2852 -0.0677
52894W        W53758  17.107   1.065  14.017  0.3512  0.0385  0.0180
52895W        W53759  14.923  24.012  22.340 -0.0178 -0.3657 -0.0211
52896W        W53760  11.534  22.690  10.629  0.0761  0.0500  0.3042
52897W        W53761   4.065  22.113   8.653 -0.1220 -0.1441  0.0206
52898W        W53762  23.985  28.279  20.804  0.1933 -0.0780 -0.1418
52899W        W53763   9.395  18.525  28.417 -0.2300 -0.0656  0.0920
52900W        W53764  18.272  22.299   0.319 -0.1386  0.0995  0.1740
52901W        W53765   2.725  23.504   1.460 -0.0956  0.1021 -0.1044
52902W        W53766  23.350  16.230  27.555 -0.3946 -0.3312  0.2216
52903W        W53767  17.682  14.082  20.314  0.1130  0.0489  0.4683
52904W        W53768  26.495  17.829  18.850 -0.0653 -0.3120  0.2101
52905W        W53769   8.887  10.076  18.512  0.2855 -0.0541 -0.1044
52906W        W53770  11.264   9.111  11.795  0.3829  0.2245 -0.1044
52907W        W53771  15.372   1.312   9.152  0.2616  0.2929 -0.0450
52908W        W53772  10.683   6.247  28.063 -0.3282 -0.0428  0.3182
52909W        W53773  11.362   1.028   5.521  0.0668  0.0899 -0.1257
52910W        W53774  26.575   3.663  18.048 -0.0112 -0.0920 -0.1663
52911W        W53775  22.335  11.923   1.129  0.1708  0.0758  0.1838
52912W        W53776  10.147  18.588  13.747 -0.0418 -0.2064  0.0713
52913W        W53777  27.719  10.936   0.558  0.1543 -0.2703 -0.1140
52914W        W53778  13.300   7.151  15.745  0.0175 -0.2403 -0.0980
52915W        W53779   9.989  25.669  17.740  0.0118 -0.1554  0.0300
52916W        W53780  22.146   6.591  21.583 -0.1229 -0.1162  0.1264
52917W        W53781   4.515   9.735   0.276 -0.0082 -0.0099 -0.2565
52918W        W53782  11.281   6.717   8.051  0.2202  0.0416 -0.0764
52919W        W53783  13.864  26.608   7.646 -0.1829  0.0917  0.0304
52920W        W53784  28.734   3.822  18.701  0.0515  0.1751 -0.0223
52921W        W53785  15.545  11.566   7.120 -0.1647 -0.0028  0.2963
52922W        W53786  26.216  12.324  13.094  0.0005 -0.1164  0.0302
52923W        W53787  22.560  19.055   2.492  0.2887  0.1310  0.0735
52924W        W53788  22.199   5.442  24.844  0.0238  0.3093 -0.0534
52925W        W53789  22.368  27.991   1.113  0.4592  0.2301 -0.0176
52926W        W53790  28.531  22.696  22.652  0.2170  0.1531  0.1526
52927W        W53791   1.467   6.966  28.700 -0.1194  0.0275 -0.0135
52928W        W53792   4.211  24.025   5.231 -0.2664 -0.2142  0.0170
52929W        W53793  17.581  11.160   2.450 -0.1094  0.2915  0.2213
52930W        W53794  27.517  18.868   3.280 -0.0471  0.1488  0.3704
52931W        W53795   3.358  19.122  12.169 -0.2337  0.3665  0.0133
52932W        W53796  17.545   9.479   3.415  0.2139 -0.6134 -0.0150
52933W        W53797  10.238   4.219  23.091  0.0118 -0.0408  0.4930
52934W        W53798  23.867  22.379  27.269 -0.1817  0.1747 -0.0945
52935W        W53799  25.519  21.307  17.987 -0.0824 -0.1107 -0.0714
52936W        W53800  28.905   4.644  21.119  0.0713  0.2285  0.1511
52937W        W53801  22.682  28.647   9.443 -0.0733  0.2356 -0.3442
52938W        W53802   5.079   1.776  16.124 -0.0436 -0.1349 -0.0319
52939W        W53803   0.479   0.741   7.966  0.1595  0.2142  0.1492
52940W        W53804  22.512  24.715   9.643 -0.0169  0.0563 -0.4585
52941W        W53805  14.690   2.327  26.839 -0.0521 -0.0929 -0.3424
52942W        W53806  19.872  21.679  24.160 -0.1990 -0.1072  0.1810
52943W        W53807  12.367   4.299  18.256  0.0705  0.0906 -0.0913
52944W        W53808  25.362   6.846   2.056 -0.1977  0.2023  0.1306
52945W        W53809  16.759  21.477  13.830  0.2444  0.1595  0.2283
52946W        W53810   7.875   8.959   0.713 -0.0568 -0.2087  0.0642
52947W        W53811  20.348   6.387  20.224 -0.1070 -0.2857  0.2297
52948W        W53812   2.947  14.723  29.038 -0.2003  0.2049 -0.1885
52949W        W53813  20.278  10.625  20.165 -0.0462  0.0252  0.0669
52950W        W53814  22.441   4.402  17.867 -0.0990  0.2665  0.1011
52951W        W53815  25.473  24.661  22.944  0.0655  0.0122 -0.0116
52952W        W53816  14.698  28.545  20.598 -0.0506 -0.3492  0.1501
52953W        W53817  11.335  16.896   9.137 -0.0048  0.2348 -0.4707
52954W        W53818  22.940  24.860  22.979 -0.0671  0.0158 -0.1173
52955W        W53819   0.504  23.734   7.093 -0.2391  0.0744  0.3234
52956W        W53820  10.789  15.602  15.505  0.1163  0.2209  0.1030
52957W        W53821  23.108   5.311   5.555 -0.2542  0.1861 -0.1283
52958W        W53822  13.165  24.294   2.536 -0.0977  0.0058 -0.0928
52959W        W53823   0.966  20.110  16.077 -0.2478 -0.0514 -0.1094
52960W        W53824  26.132  17.013   1.873 -0.1156  0.0486  0.2424
52961W        W53825   7.943   1.506  21.178  0.1761  0.0763 -0.0440
52962W        W53826  24.917   5.932  19.428 -0.0761  0.0298 -0.1733
52963W        W53827   6.416  13.596  28.143 -0.0184  0.1790 -0.0138
52964W        W53828   0.098  13.719  25.606 -0.0188 -0.2587  0.2015
52965W        W53829  21.940   3.679   3.961  0.1240  0.1605 -0.2006
52966W        W53830  27.325  22.065   8.383  0.0089 -0.1847  0.0455
52967W        W53831  18.268  23.043  18.801  0.0150  0.1221 -0.1927
52968W        W53832  25.677  19.002  27.683  0.1183 -0.0789 -0.0617
52969W        W53833   0.391  12.069  10.087  0.0816 -0.1540 -0.0165
52970W        W53834   6.031  27.941  22.591 -0.0979 -0.0212 -0.0043
52971W        W53835  22.249  17.831  28.393 -0.0539  0.0675 -0.3410
52972W        W53836  28.575  19.561   6.865 -0.1344  0.0110  0.1076
52973W        W53837  16.679   8.373  23.359  0.3020  0.4111 -0.0619
52974W        W53838  14.497  20.005  25.921 -0.3277  0.1296  0.2211
52975W        W53839   7.996  10.400   5.580  0.0412 -0.4194  0.0188
52976W        W53840  20.743  26.368  22.565 -0.2203 -0.1842  0.2008
52977W        W53841   4.263   9.385   6.513  0.0602  0.0599 -0.4733
52978W        W53842  18.870  12.316  20.428 -0.0805  0.1783 -0.1129
52979W        W53843   5.402   2.869  27.022  0.1041  0.0797  0.0911
52980W        W53844   1.783  26.739   6.008 -0.1324 -0.1561 -0.3336
52981W        W53845  20.317   4.630  26.661 -0.0597 -0.0785 -0.0319
52982W        W53846  10.961  19.828  23.530  0.1206  0.1097  0.2969
52983W        W53847  26.828   2.322   2.862  0.0654  0.2136 -0.1735
52984W        W53848   1.600  25.848  26.408  0.0448 -0.0054  0.0287
52985W        W53849   0.453   0.160  20.840  0.3331 -0.0703  0.2912
52986W        W53850  20.812  16.835   1.642 -0.0064 -0.3690  0.0475
52987W        W53851  27.976  26.061   6.942 -0.1738  0.0009 -0.0948
52988W        W53852  11.543  27.704  10.737  0.1432  0.0837 -0.3283
52989W        W53853   4.237   8.275  25.190  0.0453  0.0137 -0.0085
52990W        W53854  15.475  21.378   4.203 -0.4175  0.0229 -0.0493
52991W        W53855   1.120  27.027  10.148  0.0176  0.1686  0.0813
52992W        W53856  24.034  25.103  19.298  0.2247  0.1435 -0.1882
52993W        W53857   1.053   0.123  17.087 -0.0145 -0.0881 -0.4134
52994W        W53858   7.139  20.372  16.522 -0.0087 -0.0058  0.0845
52995W        W53859   6.440   3.249  20.670  0.3098 -0.3463  0.4325
52996W        W53860  25.466  12.970  14.592 -0.2070 -0.2967  0.2589
52997W        W53861  14.913  28.174  22.477  0.1717 -0.0083  0.4611
52998W        W53862   9.138   7.355   3.094  0.1153 -0.0918  0.0602
52999W        W53863  27.318  25.290  19.435  0.2956  0.0345 -0.1542
53000W        W53864  14.846  18.988  27.795 -0.1138  0.1431  0.0050
53001W        W53865  21.282   6.823   9.740 -0.1384  0.3010  0.3927
53002W        W53866  11.937  24.630   5.994  0.1360 -0.2554 -0.0462
53003W        W53867   8.907  27.475  23.289  0.0400 -0.3504  0.1431
53004W        W53868  23.920  28.528  20.279  0.0791 -0.1084  0.0576
53005W        W53869  27.489  14.592  19.664  0.2588  0.0375  0.0090
53006W        W53870   5.441  10.096  16.803  0.1382 -0.1105  0.1238
53007W        W53871   6.653   8.421   5.570 -0.0177 -0.1556  0.1756
53008W        W53872   4.431   2.688  23.173 -0.2403 -0.2204  0.3368
53009W        W53873  15.074  11.473  11.950  0.0211 -0.0741 -0.0510
53010W        W53874  22.320   0.820  24.556  0.2143 -0.3933  0.3170
53011W        W53875  10.134   9.092  14.930  0.2785  0.0202 -0.1742
53012W        W53876  23.890  21.112  24.778  0.1963  0.1943  0.2085
53013W        W53877  18.537   8.128   9.347 -0.0695  0.1765 -0.1641
53014W        W53878   5.667   1.991   9.841  0.1446 -0.0111  0.1549
53015W        W53879   6.757  18.683  22.811  0.0063  0.1709  0.2022
53016W        W53880  11.171  24.076   2.679  0.0957  0.0739 -0.0356
53017W        W53881   5.924  17.873   1.805  0.1203  0.2321  0.2710
53018W        W53882  24.338  11.947   6.284 -0.1292  0.0406  0.0108
53019W        W53883  24.476  24.815  26.897  0.1977 -0.0674  0.3528
53020W        W53884  12.811  27.420  20.987  0.1814 -0.0048 -0.1101
53021W        W53885  17.504  24.483  20.483  0.1589 -0.0400  0.0822
53022W        W53886  16.374  24.442  17.361 -0.1294  0.0820 -0.3408
53023W        W53887  18.798  11.966  21.394  0.1647  0.0818 -0.3914
53024W        W53888  14.984   6.576  14.127  0.0022 -0.2756 -0.0851
53025W        W53889   1.904   7.894   4.650  0.3113 -0.2925  0.0457
53026W        W53890  17.570   4.247  28.849  0.0846  0.0383  0.3057
53027W        W53891  20.117   0.745   5.814 -0.1769  0.0778 -0.0858
53028W        W53892  28.617   8.674  23.743 -0.0257 -0.1728 -0.0464
53029W        W53893  27.392  12.796  18.885 -0.0216 -0.2218 -0.0331
53030W        W53894  19.397  23.497  27.075 -0.3278  0.0634  0.0795
53031W        W53895  19.689  20.553  16.221 -0.2863 -0.1927  0.0239
53032W        W53896  29.022  28.826  23.042 -0.3087 -0.1030 -0.3205
53033W        W53897  24.310   4.426  14.589 -0.1906 -0.0950  0.1229
53034W        W53898  18.754  20.473  27.201  0.0003 -0.0372 -0.2069
53035W        W53899  28.863   8.428   1.610 -0.1900 -0.2602  0.1951
53036W        W53900  16.931   8.298   9.830  0.2471  0.1632 -0.1845
53037W        W53901  26.169  25.291  27.547  0.3459  0.0170  0.1032
53038W        W53902   6.075  14.592  12.422  0.1682 -0.1917 -0.0966
53039W        W53903  25.366   9.449  26.447 -0.0979  0.0530 -0.4980
53040W        W53904   2.385  12.468  21.940  0.2427 -0.0549 -0.1682
53041W        W53905  20.507   6.932  27.056  0.3421  0.1763  0.1675
53042W        W53906  29.030  10.986  28.801  0.1013  0.1286 -0.0961
53043W        W53907  28.656  26.271   1.611  0.0295 -0.1433 -0.0371
53044W        W53908  23.566  19.871   9.377 -0.2398 -0.0804 -0.2860
53045W        W53909  19.492  17.393  23.720  0.1427  0.0080 -0.0007
53046W        W53910  22.634  26.561  15.247 -0.3412  0.2463  0.0279
53047W        W53911  17.433   6.866  24.209  0.0495  0.0276  0.0696
53048W        W53912  13.354  19.126  24.405 -0.0918  0.0597 -0.0989
53049W        W53913  15.618   2.149  20.056  0.0155  0.0859 -0.1640
53050W        W53914  19.496  22.894  19.400 -0.2551  0.1134 -0.0656
53051W        W53915  20.752   4.099  10.968  0.0041 -0.3116 -0.0393
53052W        W53916   9.962  26.055  18.042  0.0072 -0.4195 -0.1112
53053W        W53917   9.566  21.286  26.641  0.0786 -0.2241 -0.1271
53054W        W53918  19.360  27.399  28.775 -0.1093 -0.1483 -0.0879
53055W        W53919   5.328  27.332   0.371 -0.1723 -0.1364 -0.0805
53056W        W53920   7.957   7.939  24.842  0.0774  0.5391  0.0185
53057W        W53921   3.718  17.058  27.351  0.0438 -0.2501 -0.1556
53058W        W53922   2.799   8.289  10.234  0.0827 -0.0876  0.1538
53059W        W53923  14.966  19.949  13.155 -0.1596 -0.0975  0.0331
53060W        W53924  17.868   3.511   1.208  0.0298 -0.2442  0.1359
53061W        W53925  26.645  15.485  26.074  0.0263 -0.1060 -0.0365
53062W        W53926  19.048  22.195  22.844  0.1706 -0.0184  0.0825
53063W        W53927   6.566  16.836   5.514  0.0369  0.2717 -0.1118
53064W        W53928   3.586  11.534   7.332  0.2276  0.2689  0.0533
53065W        W53929   1.185  26.599  18.354  0.1885 -0.2013  0.0416
53066W        W53930   2.848  12.761  28.826  0.0859  0.0441 -0.0485
53067W        W53931  26.176  24.348   0.904  0.2012 -0.3015 -0.0245
53068W        W53932   5.393  27.612  21.625  0.1690 -0.1418  0.0200
53069W        W53933  14.486  19.487   4.032 -0.0106 -0.3483  0.1447
53070W        W53934  13.028  24.268  14.750 -0.3201  0.0614 -0.1653
53071W        W53935  20.208  11.701  26.237  0.0528 -0.1208  0.1588
53072W        W53936  23.740  28.523  23.136  0.1395  0.1161  0.1452
53073W        W53937  25.807   9.356  28.124  0.0349  0.1614 -0.0737
53074W        W53938  12.818   0.107  28.070 -0.0752  0.0895  0.2324
53075W        W53939  13.208  11.686   3.284  0.1140 -0.0361 -0.1527
53076W        W53940  27.988   1.036  25.969 -0.1435 -0.2049  0.5601
53077W        W53941  11.986   1.859  10.187 -0.1220 -0.1231  0.0296
53078W        W53942  24.275  22.928   1.577  0.1196 -0.3203 -0.2271
53079W        W53943  28.493  12.738   0.789 -0.1711  0.1570  0.0824
53080W        W53944   3.751   2.278  10.043 -0.0631  0.0395 -0.0292
53081W        W53945  17.641  16.804  22.221 -0.0707 -0.1882 -0.1132
53082W        W53946   7.406  19.122  18.074  0.0143 -0.1738  0.0936
53083W        W53947  21.709   6.887   8.910 -0.0287  0.2629 -0.0883
53084W        W53948  11.454  24.336   4.550 -0.3319  0.2055 -0.1170
53085W        W53949  23.529  27.080  26.312 -0.2130  0.0206 -0.1916
53086W        W53950  10.633  24.856  23.136  0.0754 -0.0155 -0.0600
53087W        W53951  26.853  21.100   2.299  0.0720 -0.0853  0.1009
53088W        W53952  17.812  17.136  18.940 -0.0644  0.0473 -0.1427
53089W        W53953   8.898  19.669   6.079 -0.1770 -0.3730 -0.2290
53090W        W53954  10.106  18.926  19.373  0.0866 -0.2636  0.0719
53091W        W53955   5.293   7.017  21.496  0.3265 -0.4207 -0.3775
53092W        W53956  20.519   1.617   4.401 -0.2420  0.2999  0.0886
53093W        W53957  18.808  17.558   8.360  0.0246  0.2309  0.3854
53094W        W53958   0.258   6.468  23.236  0.0476 -0.2889  0.2593
53095W        W53959   4.153  21.718   9.209  0.2692  0.2075 -0.0115
53096W        W53960  16.531   1.656   0.480  0.0070 -0.2475  0.1348
53097W        W53961  23.457  25.872  23.213 -0.3379  0.0547  0.2860
53098W        W53962  27.986   9.991  19.703  0.2326 -0.0780  0.0451
53099W        W53963  23.023  20.652  19.054  0.0311  0.0424 -0.2954
53100W        W53964  14.950  22.511  17.092  0.1637  0.1187 -0.2281
53101W        W53965   5.287   5.949  26.250  0.1557  0.0571 -0.0789
53102W        W53966  24.803   0.649  27.289  0.2524  0.0354  0.0448
53103W        W53967  26.840   5.743  23.745 -0.2234 -0.1713  0.1619
53104W        W53968   5.501  26.888  23.545  0.0932  0.0367  0.0175
53105W        W53969  26.235  20.392  18.115  0.2199  0.1743 -0.0530
53106W        W53970  18.647   6.465  14.980  0.1362  0.4110  0.0689
53107W        W53971  25.071   7.585  26.149 -0.1525 -0.1523  0.0437
53108W        W53972  17.729  26.001  22.601 -0.2577  0.1292  0.1144
53109W        W53973  24.676   3.005  28.414 -0.2440  0.0272 -0.2783
53110W        W53974  19.711  26.203   2.720 -0.2712  0.3587  0.3704
53111W        W53975  22.229  17.482   0.270 -0.2469  0.1769  0.0369
53112W        W53976  28.873   3.873  25.821 -0.0396  0.0223 -0.0299
53113W        W53977   5.958  20.424  23.370 -0.0337  0.1210  0.0877
53114W        W53978  14.214  11.933   4.630 -0.3014 -0.1862 -0.1264
53115W        W53979  22.613  19.274   1.105  0.1812 -0.2770 -0.0000
53116W        W53980   2.883  23.993  28.025  0.0899 -0.1852 -0.1126
53117W        W53981   9.986   8.677  19.682 -0.1933  0.0544 -0.0829
53118W        W53982   4.321  15.850   1.991 -0.0353 -0.1113  0.0403
53119W        W53983  22.413  18.126  20.905 -0.0410 -0.3448  0.1024
53120W        W53984  10.301  16.064  13.709 -0.2967 -0.2904  0.0025
53121W        W53985  18.252  24.586   6.847 -0.2618 -0.2448  0.0864
53122W        W53986   7.655  13.831  26.679 -0.1085  0.1118  0.0460
53123W        W53987  24.315  12.841  25.099  0.0052 -0.0386  0.2087
53124W        W53988   8.876  26.625  18.243 -0.1234  0.4770 -0.1053
53125W        W53989  15.255   3.192   9.876 -0.1929 -0.0721  0.1178
53126W        W53990  18.707  20.659   0.371 -0.1452  0.2645  0.0699
53127W        W53991  13.969  22.146  26.132 -0.0647  0.1636  0.0040
53128W        W53992  26.875   1.066   5.393 -0.2129 -0.0931 -0.1683
53129W        W53993   7.095  12.163  15.082 -0.0181 -0.3555 -0.0586
53130W        W53994  21.012  19.369  10.607  0.1527  0.1856  0.0186
53131W        W53995  27.652  25.074  13.500 -0.0861 -0.1316 -0.0650
53132W        W53996  17.757   1.712  10.362  0.1486  0.0320  0.1025
53133W        W53997  18.206  26.875  28.985  0.2542 -0.0731 -0.0403
53134W        W53998  11.594   0.500  10.907 -0.0911 -0.1370 -0.0907
53135W        W53999  14.869  25.159  11.943  0.0843 -0.0458  0.1756
53136W        W54000   2.439   4.495  23.042  0.1354  0.0433 -0.2324
53137W        W54001   2.785  28.669  19.607  0.2236  0.0264  0.0744
53138W        W54002  26.424   9.091  18.958  0.0604  0.2534 -0.2330
53139W        W54003  10.612  29.112  19.620 -0.0355  0.1207  0.2461
53140W        W54004  13.995  12.430   7.594  0.0877  0.0185 -0.1234
53141W        W54005  14.928  25.147  17.446 -0.3226 -0.0116 -0.2023
53142W        W54006  15.068   4.826  18.149 -0.1572 -0.0278 -0.1009
53143W        W54007  28.011  26.554  29.045 -0.0298  0.2912  0.1492
53144W        W54008  16.505  28.471  10.533  0.3415  0.0136 -0.0112
53145W        W54009  12.270   4.434  23.798 -0.2587 -0.0031 -0.0045
53146W        W54010  13.145  24.494  19.470  0.2872 -0.1576 -0.1045
53147W        W54011   5.022  15.393  12.483 -0.1420  0.0068  0.0592
53148W        W54012   5.097  16.688   5.822 -0.2623 -0.3834 -0.3242
53149W        W54013  19.558  27.717  28.338 -0.1108  0.0658 -0.1714
53150W        W54014  14.996  20.886  14.036 -0.1226 -0.0382 -0.3442
53151W        W54015  10.745   2.415   0.250  0.0113  0.0314 -0.0131
53152W        W54016  17.048  22.816   1.885  0.4477 -0.2782 -0.2406
53153W        W54017  20.846  28.611  28.061 -0.0083  0.0381  0.0299
53154W        W54018  21.982   0.315   3.923 -0.1191  0.0625 -0.1228
53155W        W54019  24.179   4.717   4.388  0.0414 -0.1084  0.1325
53156W        W54020  12.276  28.709   7.422  0.0380  0.2229  0.1487
53157W        W54021  10.867   5.150  12.616 -0.0422  0.4332  0.3087
53158W        W54022  20.453  21.331   1.754  0.1266 -0.0906 -0.1693
53159W        W54023   7.619   1.680  26.916 -0.0340 -0.3727  0.2818
53160W        W54024  27.277  18.359  17.452  0.1095 -0.0642  0.1158
53161W        W54025  27.291  26.949   3.101  0.0850 -0.3491 -0.2523
53162W        W54026  23.711  22.177  12.852  0.1362 -0.0443  0.1895
53163W        W54027  16.463   3.439  12.396  0.2839  0.0790 -0.3421
53164W        W54028  27.451  22.976  26.083 -0.1114  0.0674  0.1988
53165W        W54029  26.757   5.412  11.241  0.1951 -0.1217  0.1499
53166W        W54030   9.263  22.605  21.930 -0.1166  0.1457 -0.0930
53167W        W54031  10.049  20.652  23.145  0.0894  0.0790 -0.0562
53168W        W54032  23.047  26.180  11.492  0.1116 -0.0049 -0.1766
53169W        W54033  25.960  26.004  10.749  0.0389  0.1275  0.1998
53170W        W54034  14.281  15.051   1.913  0.0867 -0.0366  0.2386
53171W        W54035  10.262   3.859  22.757 -0.0237  0.0375 -0.2838
53172W        W54036   0.387  11.807   7.358  0.0574 -0.2101  0.0108
53173W        W54037   4.871   1.467   1.010 -0.3232  0.4330 -0.0863
53174W        W54038  17.873  25.447  14.751 -0.5038 -0.1847 -0.1980
53175W        W54039   6.169  13.307  27.338  0.1888 -0.0163  0.1237
53176W        W54040  17.234   3.627  21.957 -0.1267 -0.0419 -0.2111
53177W        W54041   5.473  25.521   9.357  0.2230  0.0102  0.1172
53178W        W54042  23.569  28.262  21.106 -0.2271 -0.1002 -0.4391
53179W        W54043  18.233  25.548  27.058  0.0627  0.1104 -0.1991
53180W        W54044  26.542  28.529  18.665 -0.1105 -0.0592  0.0523
53181W        W54045   8.852  24.188  17.923 -0.3006 -0.2109  0.0589
53182W        W54046   3.544  26.050  16.700  0.0696 -0.2070  0.0226
53183W        W54047  11.173  23.265  24.014 -0.0678  0.1552 -0.1459
53184W        W54048   8.465  28.643   6.194 -0.3426  0.0843  0.0416
53185W        W54049  16.198   1.649  26.124 -0.1214  0.0245  0.1791
53186W        W54050  19.202  10.214  22.008 -0.0106  0.2566 -0.3636
53187W        W54051  21.866  20.835  10.311 -0.0468  0.0356 -0.3973
53188W        W54052   5.056  28.743   9.911 -0.1696  0.0530  0.3117
53189W        W54053  20.635   3.086  28.698 -0.0814  0.0924 -0.0965
53190W        W54054  24.411   0.913   3.442 -0.0524 -0.4802  0.0609
53191W        W54055  26.446  28.652   2.957 -0.0548  0.0909 -0.0536
53192W        W54056  27.098  22.378   1.490  0.0372  0.0414 -0.0840
53193W        W54057  15.720  16.238  20.060 -0.0087  0.2844 -0.3017
53194W        W54058  27.463  24.700  22.836  0.0465  0.1783 -0.0888
53195W        W54059  26.389  16.939  16.934  0.1860  0.0340 -0.1695
53196W        W54060   0.013   7.873  27.753  0.0399 -0.1999 -0.2138
53197W        W54061  17.432  26.650  18.090 -0.2530 -0.0831  0.0596
53198W        W54062  15.199  12.812   8.411  0.1176 -0.2892  0.0552
53199W        W54063  11.461   1.665  17.098  0.0038  0.0123 -0.2687
53200W        W54064  18.549  14.296  21.012 -0.1124 -0.0700  0.0213
53201W        W54065   5.377  13.709  10.495  0.1016  0.1073 -0.0118
53202W        W54066   3.346  15.651   4.763 -0.0427 -0.0987 -0.3202
53203W        W54067   6.910  22.863  15.461 -0.1091  0.1216 -0.3103
53204W        W54068  10.134  15.706  22.794  0.3303 -0.2752 -0.0184
53205W        W54069  21.773   4.698  24.873 -0.0666  0.2333 -0.1047
53206W        W54070  25.224  25.351   1.179 -0.1011  0.1207  0.2492
53207W        W54071  24.350  16.611  23.127  0.2118 -0.0846  0.1642
53208W        W54072  13.222  22.028   2.521  0.0744 -0.1831  0.1539
53209W        W54073  23.409   1.672   8.983 -0.0991 -0.2649  0.4107
53210W        W54074  18.913  29.021  15.746 -0.2408 -0.0167  0.0808
53211W        W54075  17.447  17.552   0.927 -0.0273  0.0061 -0.0094
53212W        W54076  28.364  28.999  25.467 -0.0005  0.2710 -0.0795
53213W        W54077  10.925  23.030  17.956  0.2554 -0.0242  0.1033
53214W        W54078  22.576  11.166   1.044 -0.2234  0.2606 -0.0682
53215W        W54079  26.057  20.116   1.516  0.0339  0.0698 -0.1338
53216W        W54080  16.568  25.136  24.114 -0.0305 -0.0352  0.0932
53217W        W54081  25.651  22.508  20.494 -0.1752  0.0424  0.1157
53218W        W54082  20.800   8.403  19.590  0.0319  0.1343  0.3196
53219W        W54083  24.447  17.491  27.196 -0.0304  0.2416  0.1276
53220W        W54084  12.890  24.950  15.002  0.0232  0.0542 -0.1359
53221W        W54085  16.912  16.006  23.061  0.0385  0.0687  0.2064
53222W        W54086  28.725  13.350  12.500 -0.0577 -0.0662  0.0725
53223W        W54087  23.223  10.735   5.219 -0.0860  0.2801  0.2617
53224W        W54088  17.738  26.328  14.999  0.0540 -0.1918  0.4556
53225W        W54089   2.362   4.513  24.579  0.0334 -0.0071 -0.0400
53226W        W54090  15.947  25.090  23.857  0.0783 -0.0428  0.3681
53227W        W54091   7.337  20.463   6.226  0.2586  0.0131 -0.5403
53228W        W54092  13.938  11.149   3.353  0.3272  0.1017  0.1631
53229W        W54093   0.336  15.494  13.535  0.0173  0.2413  0.0918
53230W        W54094   4.176   0.488  18.854  0.1865 -0.2588 -0.0225
53231W        W54095  25.281   9.082   5.298 -0.0667  0.2585  0.0915
53232W        W54096   6.915  17.140  10.939 -0.0881  0.2160 -0.0073
53233W        W54097  19.038  26.758   0.204 -0.1387 -0.0974 -0.2554
53234W        W54098   9.932  11.283  27.053 -0.0548  0.0593  0.1819
53235W        W54099  28.274   4.187  10.854  0.2735  0.2420  0.4562
53236W        W54100   1.495  28.357  21.328 -0.0736  0.0665 -0.0966
53237W        W54101  17.436   8.776  19.926  0.2687  0.0519 -0.2601
53238W        W54102   9.020  10.156   7.471 -0.1647  0.2086 -0.2148
53239W        W54103   2.653  28.532  27.049  0.0464  0.0501 -0.1230
53240W        W54104  15.217  12.574   3.989  0.1023  0.3030 -0.0462
53241W        W54105   1.583  24.094  15.813  0.1602 -0.0862  0.0351
53242W        W54106  17.874  10.654  26.920 -0.0613 -0.0254  0.1770
53243W        W54107  16.765   0.305   8.280  0.0790  0.3072 -0.0564
53244W        W54108   2.936  22.979   0.886  0.0110  0.2139  0.1807
53245W        W54109  19.876   3.735   7.703  0.1512 -0.1478  0.1174
53246W        W54110   7.035  12.829   0.778 -0.2777  0.0529 -0.2118
53247W        W54111   1.830  27.568   4.361 -0.0675 -0.3356  0.1850
53248W        W54112  13.469  23.670  23.012  0.2910  0.1790 -0.0635
53249W        W54113   7.024  15.867  15.533 -0.0265  0.0414  0.2626
53250W        W54114  24.707  27.956   3.399  0.0648 -0.2399  0.1096
53251W        W54115  20.056  14.940   0.760  0.2181 -0.6483 -0.1200
53252W        W54116  17.205  13.445  19.405 -0.1956 -0.0782  0.2871
53253W        W54117   4.312  15.137  23.018 -0.0446  0.0843 -0.0051
53254W        W54118  25.076   1.062   4.820  0.2699  0.2045  0.2623
53255W        W54119  18.106   1.709  24.251  0.1434 -0.2600 -0.0277
53256W        W54120  23.687  25.486  16.506  0.0904  0.0155  0.1695
53257W        W54121  21.783  15.655   9.285  0.0603 -0.1471  0.1195
53258W        W54122  20.692   5.041  23.288  0.0639  0.0787  0.1813
53259W        W54123  17.262  25.403  18.889  0.2761  0.2571 -0.0525
53260W        W54124   4.619  10.185   2.028 -0.0808 -0.0560  0.1899
53261W        W54125  23.733  27.887  24.400  0.0470  0.1600  0.2015
53262W        W54126  24.471  23.483  28.097  0.1937 -0.2184  0.1300
53263W        W54127  14.584  13.512  16.358 -0.1391 -0.1575 -0.4526
53264W        W54128   3.969  23.567   8.592 -0.0821  0.1023 -0.0271
53265W        W54129   9.768   7.294  20.487 -0.0044  0.2514  0.2546
53266W        W54130  16.842  24.822   2.059  0.0170 -0.3910  0.3267
53267W        W54131  19.972  17.395  28.626 -0.1437 -0.2759  0.0948
53268W        W54132  12.945  27.439  21.870  0.1501 -0.1636  0.1104
53269W        W54133   2.261  24.564  25.525 -0.1623 -0.0932  0.0544
53270W        W54134   6.613  27.571  19.862 -0.0186 -0.1592  0.1280
53271W        W54135  10.240   2.635  28.902 -0.3281  0.1562  0.2585
53272W        W54136   5.395   9.901   0.017 -0.2971 -0.0330 -0.1530
53273W        W54137  22.103  23.020  18.996 -0.1206  0.3788 -0.1854
53274W        W54138  23.860   2.871  26.946 -0.3283  0.0271  0.1360
53275W        W54139  20.444   7.684   2.041  0.0100 -0.0717 -0.0805
53276W        W54140  17.557  27.559   6.452 -0.0625 -0.2020  0.2964
53277W        W54141  10.801  27.746  20.831 -0.0181  0.1141  0.0916
53278W        W54142  16.141  25.946   0.006  0.1258  0.3515  0.0875
53279W        W54143  17.163  26.103  21.078  0.2429 -0.1331  0.0797
53280W        W54144  10.523  10.381   0.481  0.3724 -0.3621 -0.0429
53281W        W54145   7.445   1.749  26.418  0.0394 -0.1327  0.0976
53282W        W54146  16.079   5.929   8.556 -0.1943  0.0592  0.0300
53283W        W54147  12.978   5.391  11.202 -0.0398  0.2728  0.0246
53284W        W54148  17.702  21.647   0.477  0.3488 -0.1351  0.0050
53285W        W54149  14.954  27.596  28.708 -0.1146  0.0847  0.1408
53286W        W54150  12.621  24.988  16.802  0.3997 -0.1772 -0.1421
53287W        W54151   3.370   0.068   0.737  0.2309  0.3265  0.1258
53288W        W54152  13.055   0.421  27.700 -0.0145  0.1428 -0.2828
53289W        W54153  16.480  27.471   2.771  0.0476 -0.2089 -0.0080
53290W        W54154  18.098   5.308   8.129  0.1995  0.1202 -0.1870
53291W        W54155  16.738  12.873  20.837  0.1213 -0.3788  0.1773
53292W        W54156   1.593   3.038  20.703 -0.0478  0.1272  0.4525
53293W        W54157   6.237  22.873   5.286 -0.0599 -0.1175  0.1845
53294W        W54158  20.195  19.718   0.321 -0.1626 -0.1113  0.1044
53295W        W54159   9.708   4.350  26.069  0.2773  0.0250 -0.0644
53296W        W54160  16.269   6.944  18.942  0.2645  0.0928  0.0924
53297W        W54161   4.677  27.483  23.015  0.2659 -0.0919  0.1452
53298W        W54162  18.042  10.066  27.527  0.0326  0.0516 -0.1750
53299W        W54163  25.399   1.015  16.156 -0.3161  0.3449  0.3070
53300W        W54164  16.882  12.164   9.452  0.0812  0.1641  0.0627
53301W        W54165   0.050  26.527   7.874 -0.0219  0.0581 -0.0881
53302W        W54166  19.740   7.262   6.366  0.0404 -0.0651 -0.2888
53303W        W54167  10.758   4.346   6.286 -0.0478 -0.1005 -0.1316
53304W        W54168  26.211  10.102  23.491 -0.0323 -0.0305 -0.1335
53305W        W54169   9.578   0.196  13.365 -0.1653  0.2563  0.0651
53306W        W54170   7.946  16.420  23.519  0.0919 -0.3232  0.1981
53307W        W54171  19.698  26.594  21.347 -0.2058 -0.2334 -0.0829
53308W        W54172  28.148   7.091  22.782  0.0625 -0.0238  0.2251
53309W        W54173   6.641   9.484   6.344 -0.1269 -0.1874  0.2417
53310W        W54174  23.755  18.666  25.715  0.1625  0.2723  0.1405
53311W        W54175  17.152  16.182  21.933  0.0306  0.1127 -0.3784
53312W        W54176  23.060  18.871  26.997 -0.2848  0.1187  0.0023
53313W        W54177  14.652   2.579  16.030  0.0862  0.0948  0.0351
53314W        W54178  12.233  23.696  25.719 -0.1958  0.1663  0.0065
53315W        W54179  22.645   6.705  21.484  0.2864 -0.1233  0.1291
53316W        W54180  20.024  16.005  15.595 -0.1019  0.0922 -0.1489
53317W        W54181   6.115  17.738  27.991  0.0481 -0.0548 -0.2185
53318W        W54182  20.392   3.060   7.989 -0.1005  0.1054  0.4360
53319W        W54183  23.867   8.863   1.916 -0.3776  0.1881 -0.0507
53320W        W54184  15.494  17.473  18.944 -0.1220 -0.2354  0.0796
53321W        W54185   1.517  28.218  18.004  0.2905  0.3151  0.1567
53322W        W54186  14.030  25.276   1.586 -0.3261 -0.2217 -0.1700
53323W        W54187  20.060  25.511  21.444 -0.0927 -0.0903 -0.1260
53324W        W54188  15.136  17.208   6.960  0.3589 -0.0501  0.1119
53325W        W54189  25.335   0.147  24.409 -0.2293 -0.2536  0.3089
53326W        W54190   2.750   3.686   1.462  0.5017  0.3429 -0.3690
53327W        W54191  16.222   0.343   3.282 -0.0071 -0.3126 -0.1555
53328W        W54192  23.846  18.123   8.097  0.1330 -0.1294  0.3733
53329W        W54193  14.967  27.823  16.717  0.1282  0.0774 -0.1821
53330W        W54194  24.304   5.692  22.703  0.0861  0.1038 -0.0508
53331W        W54195  26.266   4.315   4.636  0.1534 -0.1480 -0.4825
53332W        W54196  20.043  21.797  24.590  0.0825  0.2398 -0.0649
53333W        W54197  14.110  27.019   2.759  0.1591 -0.0073 -0.0654
53334W        W54198  19.611  23.576   2.322  0.1991 -0.1635 -0.1216
53335W        W54199  26.887   9.853  13.526 -0.0575 -0.0554  0.0781
53336W        W54200  20.943   4.045   2.798 -0.2199 -0.0070 -0.2002
53337W        W54201  20.470  19.973  19.492  0.3110 -0.1492 -0.4301
53338W        W54202  18.766  11.537  18.914 -0.0491 -0.0477  0.0515
53339W        W54203  23.266  27.407   1.348  0.3007  0.0986 -0.0338
53340W        W54204  14.729  27.230  15.569 -0.2908 -0.1819 -0.1755
53341W        W54205  19.303  23.771   7.402  0.2524  0.1470 -0.0288
53342W        W54206  19.816   9.169   6.195 -0.3303 -0.2526  0.1951
53343W        W54207  25.316  13.837  11.953 -0.0880  0.4228 -0.0776
53344W        W54208  21.140   5.910   2.131  0.1456  0.3560  0.3413
53345W        W54209   4.670  25.690  22.658 -0.3403  0.3175  0.0030
53346W        W54210  19.419  17.524  22.595  0.0745  0.0231 -0.1511
53347W        W54211  17.691   3.794   5.704  0.0902  0.1875 -0.0691
53348W        W54212   9.062   1.117  26.518 -0.1672 -0.1639 -0.0673
53349W        W54213   1.428  23.406   9.053 -0.2056  0.1405  0.1180
53350W        W54214   4.080  25.502  10.672  0.0759  0.0848 -0.1396
53351W        W54215  16.212  24.249   2.618 -0.1628 -0.1280  0.2630
53352W        W54216  21.383   4.091  13.023  0.0717  0.0971 -0.0992
53353W        W54217   2.816  16.355   2.911  0.1025  0.0536  0.1983
53354W        W54218  11.904  20.488  24.224  0.1169  0.0628 -0.1363
53355W        W54219  25.991  23.189  21.703  0.0514 -0.0151  0.0469
53356W        W54220  23.982  28.841  22.764  0.0433 -0.2369 -0.2793
53357W        W54221  16.465   6.325  10.076 -0.2354  0.0092 -0.1910
53358W        W54222  19.154  26.589   8.736 -0.2205  0.1450  0.2873
53359W        W54223  25.049   7.526  24.891 -0.1821  0.2313  0.1902
53360W        W54224  24.630  19.320  16.492  0.2207 -0.0948 -0.0915
53361W        W54225   6.312  21.447   9.960 -0.2204  0.0363  0.2653
53362W        W54226  10.217   5.945   8.496  0.1777  0.2758  0.4906
53363W        W54227  24.743  11.319  13.134  0.5080  0.0400 -0.1037
53364W        W54228  21.737  24.973  16.625  0.0692 -0.2117 -0.0273
53365W        W54229  11.157  22.527   2.752  0.0028  0.1904 -0.2416
53366W        W54230   9.979  20.441   9.059 -0.2696 -0.2204  0.1225
53367W        W54231   2.843   1.428   6.979 -0.1953  0.0334  0.0338
53368W        W54232  12.096  18.091  19.399  0.1141 -0.0250  0.0594
53369W        W54233  21.420  27.128  23.340 -0.1328 -0.1172 -0.4265
53370W        W54234  10.881  20.291  28.302 -0.1466 -0.0578 -0.1381
53371W        W54235  23.479  18.065  28.272 -0.0185  0.0533  0.1189
53372W        W54236  13.172   9.122   9.186 -0.2856 -0.0720 -0.1183
53373W        W54237  19.051   5.999  13.523 -0.2846 -0.1864 -0.1766
53374W        W54238  17.522   5.709   2.185  0.1750  0.0518  0.2401
53375W        W54239  25.781  20.713   5.546  0.0650  0.2026 -0.0444
53376W        W54240  26.826  10.005  22.683 -0.2965 -0.4578  0.1474
53377W        W54241  27.932  15.379   5.020 -0.3221  0.2120 -0.0380
53378W        W54242   5.000   1.628  28.242  0.1264 -0.0072 -0.0227
53379W        W54243  27.249  25.096   3.845 -0.0000  0.0780  0.0925
53380W        W54244  28.583  15.585  22.564 -0.3080  0.0734 -0.0834
53381W        W54245  22.305   0.906  20.553  0.1191  0.0349  0.1414
53382W        W54246  26.933   0.798   1.727  0.2688 -0.2445  0.1074
53383W        W54247   1.757  13.152  14.007 -0.1242  0.0770  0.1782
53384W        W54248  19.595   7.506  20.520 -0.0608 -0.2029  0.1654
53385W        W54249  14.165  14.700  15.360 -0.2954 -0.2164 -0.3197
53386W        W54250  21.239   6.376  13.668 -0.0068 -0.3310 -0.0075
53387W        W54251  25.434  17.989   7.049  0.2300  0.0618 -0.0369
53388W        W54252  27.424  11.704  27.633  0.2163 -0.1615  0.1141
53389W        W54253  12.250  22.774  23.559  0.3250 -0.2973  0.0160
53390W        W54254   7.889   2.847   9.834  0.0556  0.0990 -0.0992
53391W        W54255  14.451  22.249  19.100  0.4302  0.1439 -0.1581
53392W        W54256  24.489  23.237   7.189 -0.2163  0.0850  0.0830
53393W        W54257   4.174  21.006  24.345  0.1559  0.1751 -0.2033
53394W        W54258  13.836  21.333  27.293 -0.2450 -0.2377  0.0407
53395W        W54259  18.680   0.164  14.858  0.0444 -0.0746 -0.0137
53396W        W54260   8.652  20.418   5.554 -0.3519 -0.3002  0.0146
53397W        W54261  12.780   2.537  25.792  0.3614 -0.1272  0.1760
53398W        W54262  27.981  15.302  23.369  0.0604  0.3089  0.1350
53399W        W54263  10.768  10.817   7.595  0.1266 -0.3654  0.2372
53400W        W54264  10.488  14.281   3.616 -0.2388 -0.0557  0.3699
53401W        W54265  20.855   6.220  16.545 -0.0497  0.2430 -0.1152
53402W        W54266  13.592   6.934   1.729 -0.3738  0.0818  0.0840
53403W        W54267  16.785  27.336  17.983  0.0720 -0.0685  0.0390
53404W        W54268  18.213  20.636   9.614  0.0086 -0.2368 -0.1534
53405W        W54269  19.613   1.763  13.927 -0.1126 -0.1028  0.2575
53406W        W54270   8.960  27.210  25.078  0.0502  0.1391 -0.1145
53407W        W54271  17.106   7.464   8.583  0.1392 -0.3062 -0.0346
53408W        W54272  25.821   2.204  17.193 -0.1028 -0.0554  0.1340
53409W        W54273  26.028  28.965  20.146 -0.2028  0.0022  0.2639
53410W        W54274  14.252   6.404   1.370  0.1226  0.0392  0.1470
53411W        W54275  21.833  13.993  24.059 -0.3114  0.2770  0.0481
53412W        W54276   7.959  14.276  23.440  0.1250  0.1683  0.0312
53413W        W54277  17.752  14.593   5.041 -0.0642 -0.3259  0.0218
53414W        W54278   8.250  23.911  21.654 -0.0251  0.0850  0.1685
53415W        W54279  22.998  10.581  10.356 -0.2908  0.1789  0.2483
53416W        W54280  19.315   0.568   2.544  0.0878  0.0433 -0.1876
53417W        W54281  22.326  19.750   0.248  0.2466 -0.0112  0.0534
53418W        W54282   0.692   5.288   8.672  0.0154  0.2276  0.3568
53419W        W54283  25.571   5.413  23.510  0.0866  0.2021  0.3615
53420W        W54284  16.662  11.484  10.382  0.1037 -0.1308 -0.0164
53421W        W54285   4.025  26.148  11.863  0.2093 -0.1099  0.0097
53422W        W54286  13.460  17.021  26.823  0.1289  0.0086  0.1706
53423W        W54287  15.147  18.007  16.061 -0.1784 -0.0143  0.0168
53424W        W54288  27.788   7.019   0.747 -0.0514 -0.6402 -0.0012
53425W        W54289   9.794  19.431  17.283 -0.2261 -0.2098  0.1803
53426W        W54290  15.847  10.241  22.304  0.2131  0.2213  0.0107
53427W        W54291   3.660  25.068  20.965 -0.1766 -0.2909 -0.2750
53428W        W54292  11.928   2.802  15.655  0.3398 -0.1477  0.0530
53429W        W54293  12.285   7.387   9.761  0.3244  0.0550 -0.2712
53430W        W54294  28.043   7.680   2.031 -0.2758  0.1976  0.0940
53431W        W54295   6.889  20.875  10.214 -0.0460  0.3842  0.0423
53432W        W54296  21.101   3.965  14.887 -0.0426 -0.0370  0.0247
53433W        W54297  26.526   8.828  16.243  0.2750 -0.1612  0.1249
53434W        W54298  22.448   1.457  19.341  0.3337 -0.2182  0.0634
53435W        W54299  22.673   5.020  15.241 -0.0748 -0.5089 -0.0177
53436W        W54300  13.975  14.737   1.502  0.4547 -0.1741 -0.2594
53437W        W54301  19.458  28.922   2.490  0.4318  0.0708 -0.0438
53438W        W54302   2.186  28.252  19.088 -0.3056 -0.0553  0.1162
53439W        W54303  15.364  18.186  28.195 -0.1196 -0.0790 -0.3390
53440W        W54304  26.065  21.460  14.071  0.0523 -0.2478 -0.1356
53441W        W54305  18.922   6.934  28.483 -0.2114  0.1035  0.1455
53442W        W54306  26.367  24.969  26.828 -0.2398 -0.2926  0.1963
53443W        W54307   1.567  28.999   9.062  0.0593 -0.0794 -0.4313
53444W        W54308  28.537  26.997   5.776 -0.4178 -0.0484  0.0116
53445W        W54309  28.023  14.869   7.244  0.0747  0.0231 -0.0008
53446W        W54310  28.019  17.263  24.791 -0.0952  0.3028  0.2111
53447W        W54311  22.518  22.729   0.041  0.0111 -0.0912 -0.0406
53448W        W54312  20.581   4.277  23.677 -0.2176  0.2898  0.0590
53449W        W54313  25.388   2.769  18.038  0.1157 -0.0106 -0.0563
53450W        W54314  16.085   0.695  10.763 -0.0085  0.1548  0.1698
53451W        W54315  13.723   4.571   1.177 -0.5085  0.2223 -0.1118
53452W        W54316   6.761  27.241  11.075  0.1741  0.3630 -0.1433
53453W        W54317   7.277   2.385   5.328 -0.4087  0.0327 -0.1139
53454W        W54318  22.432  15.314  24.179  0.0785  0.1623  0.1520
53455W        W54319  25.241   0.034  17.075  0.0054  0.0983  0.0939
53456W        W54320  16.777  28.595   0.286  0.0430 -0.0132  0.3137
53457W        W54321   8.313  20.965   4.307 -0.0408 -0.1422 -0.4510
53458W        W54322  17.773  28.243   9.277  0.0232  0.0911 -0.4130
53459W        W54323  11.708  17.298  21.303 -0.0525  0.0552  0.3805
53460W        W54324  17.328  17.968   7.179  0.3491 -0.2787 -0.0697
53461W        W54325  17.920  16.986   4.276 -0.1538  0.0935 -0.1823
53462W        W54326  23.847  26.523  27.123  0.0351  0.0511  0.2369
53463W        W54327   7.947   7.080   3.381  0.1152 -0.3134 -0.2530
53464W        W54328  11.738   0.294   6.431  0.1471  0.5756  0.0297
53465W        W54329  22.775  25.773  26.588 -0.4379 -0.1439 -0.0902
53466W        W54330   3.874  27.797  27.482  0.1194 -0.2514 -0.1136
53467W        W54331   0.366   5.323  18.585  0.0334  0.2527 -0.0575
53468W        W54332  15.285  22.781   1.639 -0.1436 -0.2235  0.2043
53469W        W54333  24.026  10.263  18.948 -0.1655  0.0142 -0.0251
53470W        W54334  12.557   4.155  19.701  0.3137 -0.1081 -0.1581
53471W        W54335  22.948   1.525  17.868 -0.0273 -0.3984 -0.1514
53472W        W54336  22.431   3.218  27.584  0.2444 -0.1307  0.0545
53473W        W54337  25.026   4.607   8.676 -0.2682 -0.0533 -0.2860
53474W        W54338  27.366  26.081   1.121 -0.0276  0.1316  0.1242
53475W        W54339  24.601  18.985  27.936 -0.0088 -0.0508  0.0888
53476W        W54340  12.876  17.489  28.789 -0.0359 -0.1143 -0.5726
53477W        W54341   1.215   5.914  16.993  0.3292  0.0687 -0.1592
53478W        W54342  17.723  17.885  17.961  0.0334  0.2245  0.3000
53479W        W54343  13.821  10.428  18.379 -0.0627  0.2728 -0.0580
53480W        W54344  26.872  22.543   6.499 -0.2433  0.4943  0.0524
53481W        W54345  20.020   7.997   1.952  0.1310  0.4294  0.1942
53482W        W54346   9.075  18.300   0.437 -0.1336  0.2602 -0.0883
53483W        W54347  22.374  19.548  19.716  0.1947 -0.0655 -0.1531
53484W        W54348   2.500   5.409   6.549  0.0006 -0.3189  0.0158
53485W        W54349   0.395  24.493  17.241 -0.0139 -0.2074 -0.0865
53486W        W54350  24.823  25.549  17.248 -0.2218  0.2282  0.1776
53487W        W54351   9.733  28.100  22.791  0.0850 -0.0551 -0.0124
53488W        W54352  24.414   3.852   1.901 -0.1878 -0.1441  0.0546
53489W        W54353   8.640   5.116   3.924 -0.0068 -0.0888  0.2088
53490W        W54354  11.804   9.581  10.355  0.4329  0.1166  0.1435
53491W        W54355  10.020  25.236  20.524 -0.1111 -0.0149  0.1476
53492W        W54356   8.984  12.393  13.661  0.1329  0.2068 -0.2489
53493W        W54357  16.153  13.011  21.593  0.1877  0.0094  0.2317
53494W        W54358   4.064   3.057  25.797 -0.3243  0.2707  0.1249
53495W        W54359  22.067  21.884  25.092  0.1310 -0.2221  0.3601
53496W        W54360  22.870  19.413  16.975  0.1114 -0.1731  0.0104
53497W        W54361  24.963  14.422  14.719  0.0083  0.3586  0.0361
53498W        W54362   9.691   0.444  12.505 -0.0968  0.0016 -0.2657
53499W        W54363   4.429   0.615   7.593  0.1399  0.0360 -0.0319
53500W        W54364  25.917  14.244  10.197 -0.3340 -0.2207  0.1762
53501W        W54365  20.900   8.924  20.327 -0.3830  0.0249  0.0481
53502W        W54366  14.420  25.018  18.460  0.0294 -0.1313 -0.0980
53503W        W54367   2.945  16.411  19.353 -0.4839 -0.1022  0.0913
53504W        W54368  10.772  28.998  23.424  0.1399  0.0473  0.1903
53505W        W54369  27.768   8.323  25.898  0.1270  0.0202  0.0210
53506W        W54370  15.387  23.742  23.800  0.2723  0.0992 -0.1397
53507W        W54371  24.149  10.458   1.899  0.0338 -0.0397 -0.1719
53508W        W54372  23.063   3.870   6.638  0.0225 -0.3303 -0.0933
53509W        W54373  27.678   5.433   4.996 -0.0756 -0.3732 -0.2688
53510W        W54374  11.087  26.818  25.764  0.0084  0.0579 -0.4308
53511W        W54375  26.443  17.735  28.877  0.2605  0.0715  0.0892
53512W        W54376   6.800  10.021  21.955  0.1604 -0.1957  0.0439
53513W        W54377  20.374  16.989  12.525 -0.0232  0.1933 -0.2479
53514W        W54378  26.216   3.939  28.416  0.2366  0.2470 -0.1475
53515W        W54379  20.059  17.676  27.008  0.0361 -0.1639  0.0262
53516W        W54380  19.959   9.426   9.441 -0.4293  0.1900  0.0209
53517W        W54381  24.697  20.317   7.821  0.0473 -0.1957 -0.2118
53518W        W54382   8.311  27.063  28.731 -0.0305 -0.6360  0.0128
53519W        W54383  12.101  17.865  27.822  0.0573  0.1051 -0.1819
53520W        W54384   4.939  27.473  24.288 -0.0688 -0.0446 -0.2360
53521W        W54385  12.538   6.881  24.294 -0.2973 -0.2059  0.1338
53522W        W54386   6.085   3.910   9.092 -0.1844  0.0259  0.2120
53523W        W54387  28.146  12.541   6.318 -0.2157  0.2346 -0.1238
53524W        W54388   2.264   3.773   7.906  0.2682 -0.2078 -0.1410
53525W        W54389  19.626  27.595  14.111 -0.0484 -0.1957 -0.1801
53526W        W54390  18.150  20.714   2.990 -0.4246  0.3333  0.3429
53527W        W54391  27.151   3.475  19.709 -0.0784  0.1756  0.0931
53528W        W54392  20.740  21.707  19.019 -0.1969  0.3398  0.1411
53529W        W54393  27.453  16.482   0.696  0.1541 -0.2199 -0.1376
53530W        W54394  15.357   0.612  17.250  0.2139  0.1227  0.0798
53531W        W54395   0.174   2.071  22.157 -0.1834  0.0821 -0.1538
53532W        W54396  17.933  28.820   2.015  0.0237 -0.2284  0.0611
53533W        W54397  25.005  20.890  26.554 -0.2783  0.0170 -0.2067
53534W        W54398  13.931  23.468   8.126 -0.0232 -0.4683  0.1287
53535W        W54399  24.062  21.766   0.883 -0.0262  0.0730  0.0639
53536W        W54400  11.477  16.993   3.232 -0.1629  0.3209  0.3091
53537W        W54401   3.641   3.938  27.678  0.2615 -0.1240  0.0446
53538W        W54402  22.202  15.852  23.387 -0.4813 -0.0932  0.1474
53539W        W54403   2.898  28.658  23.831 -0.2017 -0.2713  0.0091
53540W        W54404  20.219  20.264  24.238  0.2693  0.0398 -0.0264
53541W        W54405  23.932  18.824  19.989  0.1013 -0.2775  0.1824
53542W        W54406  21.238  21.343  13.933 -0.1449 -0.0329 -0.2105
53543W        W54407   7.506  12.953   3.733 -0.3286  0.0630 -0.1453
53544W        W54408  18.256   5.401  18.324 -0.0358 -0.0560 -0.1284
53545W        W54409  13.186  17.425  19.039  0.2478  0.1147 -0.2011
53546W        W54410   4.811  13.266   6.816 -0.3475  0.3039  0.1071
53547W        W54411  24.426  14.131  28.001 -0.5087  0.2911 -0.0940
53548W        W54412  26.819   1.247  20.976 -0.1162  0.0341 -0.1094
53549W        W54413  28.930  25.632  22.710 -0.1628  0.0748 -0.0684
53550W        W54414  15.216  26.809  26.235  0.1860  0.0696 -0.0203
53551W        W54415  25.589   9.804  17.899 -0.1299  0.1632  0.1426
53552W        W54416   1.241   6.640  16.035  0.0612 -0.2725  0.0101
53553W        W54417  12.891   3.118  21.075 -0.4835  0.0528 -0.3605
53554W        W54418  12.923  20.529   3.604 -0.2278 -0.1538 -0.2058
53555W        W54419  22.670  15.096  18.243 -0.4400 -0.0514 -0.2178
53556W        W54420  27.294  14.170   5.890  0.0126  0.1006 -0.0971
53557W        W54421  17.167   7.321   0.309  0.1218 -0.2239  0.1133
53558W        W54422   1.529  26.318  20.437 -0.0820  0.0333  0.0034
53559W        W54423   6.571   6.608  14.906  0.1124  0.0115  0.2095
53560W        W54424  20.221   3.654  13.222  0.0250  0.1010  0.0933
53561W        W54425  24.472  16.856   8.343  0.2234  0.2531  0.0715
53562W        W54426  20.996   1.431   4.480  0.1036  0.2807  0.1107
53563W        W54427   5.868  19.816  20.181  0.0988 -0.0100 -0.1281
53564W        W54428  22.298  22.899  11.533  0.0599 -0.2710 -0.1876
53565W        W54429  21.519  18.274  22.121 -0.3023 -0.0340 -0.1123
53566W        W54430   6.730  16.797   8.252  0.0648 -0.0235  0.1092
53567W        W54431  17.613   3.969  19.026  0.0272  0.0185  0.2315
53568W        W54432  16.796   9.848   6.169  0.0735  0.1077  0.3655
53569W        W54433  15.952  14.001  27.253  0.3528 -0.0759 -0.0796
53570W        W54434  24.146  25.989  21.391 -0.0892 -0.2201  0.0553
53571W        W54435  27.701   4.176  16.597 -0.1781 -0.0190  0.0843
53572W        W54436  26.796   3.169   4.604  0.0255 -0.0308  0.1720
53573W        W54437  25.055  18.326  18.426  0.0991 -0.1459  0.1556
53574W        W54438   2.235   0.523  20.341 -0.1641 -0.4845 -0.1610
53575W        W54439   1.183  25.014  25.176  0.2043  0.1265  0.1006
53576W        W54440   2.263   0.790  17.132  0.0225 -0.0597  0.4524
53577W        W54441  26.393  10.439   2.856  0.1195  0.3106 -0.1354
53578W        W54442  21.677  20.879   8.990  0.0011 -0.2262 -0.3474
53579W        W54443  10.522  17.636  18.565 -0.4457  0.0391  0.0462
53580W        W54444  15.364   0.957   3.489 -0.0015 -0.2347 -0.1515
53581W        W54445  13.224   7.568  25.376 -0.2215 -0.3516 -0.0752
53582W        W54446  23.704   2.247   0.561 -0.0410  0.0845 -0.2272
53583W        W54447  22.562   1.034  28.646  0.0191 -0.2357 -0.1175
53584W        W54448   9.958   5.806  29.141  0.1490  0.0631 -0.1051
53585W        W54449   0.329   9.405  17.788  0.3137 -0.1420 -0.0774
53586W        W54450  23.080  25.270   3.378 -0.0864  0.1998 -0.2178
53587W        W54451  24.838   6.432  24.839 -0.1339 -0.1648 -0.1472
53588W        W54452  22.363   4.025  18.794  0.3728  0.0199  0.2819
53589W        W54453   6.025   3.142  25.633 -0.3330 -0.3893 -0.2570
53590W        W54454  20.414  12.523  27.840  0.1275  0.1326  0.0112
53591W        W54455   6.425  13.425   4.440 -0.0769  0.1589 -0.2050
53592W        W54456   9.915   0.906  20.506  0.1294  0.3701 -0.1490
53593W        W54457   4.599  25.369   3.789 -0.0212 -0.0891 -0.1148
53594W        W54458  25.559   1.144  18.343 -0.0149  0.0287  0.1795
53595W        W54459  20.679  19.337  22.354  0.0842  0.1034  0.1893
53596W        W54460  17.728  25.535  28.449  0.2579 -0.5096 -0.2116
53597W        W54461   4.460  23.093  13.419 -0.2637 -0.0696  0.0287
53598W        W54462  27.614   3.847  28.553 -0.0345  0.0020 -0.2449
53599W        W54463  22.992  26.941  16.269  0.0220 -0.1999  0.1336
53600W        W54464   2.535  17.164  26.994 -0.2601 -0.0388  0.2913
53601W        W54465   4.096  28.916  12.529  0.3452  0.3763 -0.0692
53602W        W54466  22.109  19.522  25.943 -0.0488  0.2396  0.1478
53603W        W54467  28.789  15.466  12.337  0.2580 -0.0681 -0.0546
53604W        W54468  22.830   0.513   3.044 -0.1430  0.0521 -0.0983
53605W        W54469  14.231  26.163   6.934 -0.0768 -0.0402 -0.0827
53606W        W54470  12.005   6.384   6.694  0.1634  0.1392 -0.1388
53607W        W54471  17.506   0.630  24.542  0.0811  0.0547  0.2181
53608W        W54472  12.661   0.468   3.231 -0.0021  0.1042  0.2520
53609W        W54473   2.237  23.474  25.137 -0.3825  0.0033 -0.2360
53610W        W54474  14.713   7.750   0.128 -0.0973 -0.0053  0.0273
53611W        W54475  16.187   0.666   5.133  0.2141 -0.1912  0.0761
53612W        W54476  23.955  28.414   6.217 -0.2903  0.3074  0.0806
53613W        W54477  21.249  10.196  24.009 -0.1041  0.0016 -0.3162
53614W        W54478  26.213   2.847  26.626 -0.3588  0.3089 -0.4279
53615W        W54479   5.143   7.829   4.505 -0.1321  0.1491  0.1297
53616W        W54480  28.702   9.372   5.649 -0.1382 -0.0194  0.0271
53617W        W54481  22.751  25.671  16.644  0.4317  0.2493 -0.0598
53618W        W54482   6.612   9.873  23.908  0.0368 -0.0911  0.0185
53619W        W54483  25.629  28.565  14.865  0.0727 -0.1776 -0.1673
53620W        W54484  20.137   1.334   5.688  0.1921  0.1483 -0.0722
53621W        W54485  16.250  16.862  18.817 -0.1682 -0.1076 -0.3597
53622W        W54486  26.652   2.958   1.827  0.2321  0.1026  0.1130
53623W        W54487  27.128   0.126  25.094 -0.2138 -0.1040 -0.0010
53624W        W54488   7.478   4.125   8.418  0.0540  0.0237  0.1093
53625W        W54489   7.906   4.801  19.508 -0.2000  0.0760  0.3202
53626W        W54490  17.125  21.215   5.115  0.1271  0.0690  0.0933
53627W        W54491   8.749   3.034  26.286  0.0797  0.0987 -0.0391
53628W        W54492  13.209  12.889  13.962 -0.4514 -0.0022 -0.0234
53629W        W54493  23.324  26.925   1.237  0.0969  0.0940  0.2050
53630W        W54494  23.277   1.184  26.935  0.1118 -0.0330 -0.1556
53631W        W54495   3.659  26.794   7.556 -0.2863 -0.1085 -0.0837
53632W        W54496   3.180  19.323   1.697 -0.3072  0.1709 -0.1481
53633W        W54497  25.804  17.223  21.389 -0.1837  0.2369  0.0543
53634W        W54498  22.548  28.602  29.047  0.1614  0.0053  0.2256
53635W        W54499   6.642   7.836   1.997  0.3443  0.0882  0.2244
53636W        W54500  11.713  17.940  22.091  0.2807  0.0919 -0.0130
53637W        W54501  14.005   1.898   7.663  0.3024  0.0201  0.3740
53638W        W54502   9.636  23.665   6.262 -0.1426 -0.0825  0.3769
53639W        W54503  27.267   2.990  14.817 -0.1293 -0.1668  0.1002
53640W        W54504  10.448  15.270  26.536  0.2852  0.1832  0.2223
53641W        W54505   1.459  24.309   7.025 -0.0953  0.3712 -0.0326
53642W        W54506  16.441  24.148   6.284 -0.2027 -0.4511  0.1366
53643W        W54507  27.300   2.646   9.018  0.1637  0.0153 -0.0258
53644W        W54508  19.646  11.562  21.978  0.0332  0.0947  0.3601
53645W        W54509  23.050  17.879  13.301 -0.1234  0.0884 -0.0372
53646W        W54510   8.987  19.548  20.636  0.2683 -0.0512 -0.1833
53647W        W54511  26.853  12.612  23.459  0.0002  0.1202 -0.1968
53648W        W54512   2.704  21.583   7.134 -0.0303  0.1118  0.2200
53649W        W54513  21.299   1.335   9.061  0.0328  0.0274  0.2171
53650W        W54514  26.029  22.208  21.903  0.1860  0.1012  0.1562
53651W        W54515   8.271  23.362   5.207  0.1750  0.1411  0.0997
53652W        W54516   8.464  28.249  14.701  0.4001 -0.1569 -0.2115
53653W        W54517  29.012  26.219  12.833  0.0380  0.1517 -0.4029
53654W        W54518   5.323  13.939  14.330  0.0516 -0.0995  0.1101
53655W        W54519  14.193  16.175  14.455  0.0403  0.1711  0.3545
53656W        W54520  13.684   1.569  15.512 -0.1052 -0.0476 -0.4227
53657W        W54521   9.845  24.373   3.412 -0.0191  0.1459 -0.0417
53658W        W54522  26.536  23.790  11.720  0.0502  0.0381  0.2649
53659W        W54523   5.320   8.553   2.422  0.0966  0.3371 -0.0360
53660W        W54524  22.737   2.840   1.807  0.0999  0.2670 -0.2863
53661W        W54525   0.018   5.016   1.196  0.0797 -0.1735  0.4349
53662W        W54526  11.721   4.723   4.243 -0.1133 -0.2357  0.0603
53663W        W54527   2.937  24.860  13.229  0.1857  0.1141 -0.2041
53664W        W54528  14.840  15.967  27.052  0.0695 -0.0075  0.0003
53665W        W54529  26.901  11.791   9.572  0.0666  0.4100 -0.1394
53666W        W54530  18.542   1.448   2.234 -0.2168 -0.0645  0.0987
53667W        W54531   5.905  24.106   2.491  0.0876 -0.1867 -0.0345
53668W        W54532   0.062  28.003  19.809  0.0090 -0.0509  0.1372
53669W        W54533  12.243   4.867  21.135  0.2200  0.2611 -0.1226
53670W        W54534  27.134   3.342  15.130  0.0485 -0.2852 -0.3899
53671W        W54535  27.843   1.244   9.752 -0.0085 -0.3762  0.0331
53672W        W54536  27.253   6.580  25.451  0.0792  0.0478  0.0607
53673W        W54537  18.000   6.901  18.382  0.4352  0.1092  0.0732
53674W        W54538   4.452  16.540  21.215 -0.2511  0.0607 -0.1108
53675W        W54539  19.344   5.155  13.418  0.0815  0.1244  0.0699
53676W        W54540   2.127  10.716  28.560  0.0300  0.1249  0.1084
53677W        W54541   3.384   9.165   7.231  0.0391  0.3085 -0.0407
53678W        W54542  21.795  12.820  18.277  0.2090  0.0764 -0.1399
53679W        W54543  12.458  24.887   8.056 -0.2185  0.0539  0.1460
53680W        W54544  17.135  23.852  19.561  0.0398 -0.0591  0.2523
53681W        W54545   0.133   2.474  22.603 -0.1681  0.2383 -0.3695
53682W        W54546  25.356  11.022  12.298 -0.0759  0.1343  0.0018
53683W        W54547   6.620  23.044  12.497  0.1423 -0.1842 -0.3273
53684W        W54548  21.555   3.555  18.204  0.4858 -0.1124 -0.3232
53685W        W54549  18.658   2.964  27.176  0.0458  0.0430  0.0465
53686W        W54550  20.466   1.838  25.966  0.1932 -0.0383  0.1709
53687W        W54551  24.510  28.264  22.979 -0.2916  0.4303  0.1166
53688W        W54552  26.475   1.548   8.586  0.1434 -0.3335 -0.0354
53689W        W54553   9.377   4.841   6.058  0.0639  0.1195  0.0672
53690W        W54554  12.747  11.681   6.390  0.3381 -0.2591  0.0725
53691W        W54555  27.931  10.785   2.252  0.0694 -0.1376  0.2499
53692W        W54556   5.043   0.783  25.392  0.1453  0.1985 -0.1188
53693W        W54557  14.390  18.742  24.728 -0.0724  0.1311 -0.2743
53694W        W54558  18.463   6.945  18.097  0.2516 -0.1967  0.0132
53695W        W54559  25.283  23.777   1.892 -0.2407  0.1817  0.0214
53696W        W54560  11.524  26.035  23.923  0.2206 -0.0473  0.0975
53697W        W54561   5.921  21.243  19.648  0.3784  0.2046 -0.2811
53698W        W54562  16.066  18.241  22.426  0.1990  0.2675  0.2573
53699W        W54563   3.978  20.806  26.735 -0.2387  0.0045 -0.1296
53700W        W54564  20.476   0.556  15.083 -0.0739  0.3777 -0.2617
53701W        W54565   6.246  17.620  17.503 -0.0103  0.1002 -0.3459
53702W        W54566   6.000  22.479  28.324  0.0739  0.3177 -0.0736
53703W        W54567  25.915  12.625  11.660  0.1456  0.1213 -0.1872
53704W        W54568  12.260  18.755   4.647  0.3516 -0.0814  0.7757
53705W        W54569   6.926  23.292  18.304  0.0454  0.0153  0.1160
53706W        W54570  28.386  23.771   2.143 -0.3272  0.1450  0.3917
53707W        W54571  25.270   0.580  28.159 -0.0617  0.2766 -0.1254
53708W        W54572  24.164   9.613   2.483  0.1017 -0.0257 -0.0367
53709W        W54573  24.773   4.040  26.404  0.1704  0.0979 -0.1708
53710W        W54574  20.702   9.250   5.005  0.0155 -0.0977 -0.0710
53711W        W54575  15.470  16.012  15.867 -0.2202 -0.4387  0.1701
53712W        W54576   4.887   1.937   2.229 -0.0511 -0.1468 -0.2316
53713W        W54577  23.810  18.193  29.066 -0.0833  0.0314 -0.0865
53714W        W54578   5.580   3.947   8.275  0.2226 -0.0222 -0.0806
53715W        W54579  19.178  18.469   2.107 -0.2942 -0.0197 -0.1335
53716W        W54580  15.435   7.746  11.424 -0.3034  0.2836 -0.1772
53717W        W54581   3.310  14.665  16.587  0.2098  0.1800  0.2067
53718W        W54582  22.494  16.129  23.098  0.1623  0.1944 -0.1980
53719W        W54583  17.362  10.436  22.113  0.1123  0.3419  0.0833
53720W        W54584  20.180  24.744   0.611 -0.1526  0.1000  0.0351
53721W        W54585   4.513  20.280   8.677  0.0202  0.1107  0.2266
53722W        W54586  18.750  27.553  10.765 -0.1303 -0.1092 -0.0200
53723W        W54587  16.418  11.825   9.504 -0.1086 -0.1276 -0.1665
53724W        W54588  25.183  22.454  11.596  0.0416 -0.2080 -0.0738
53725W        W54589  10.408  23.984   2.565  0.1277 -0.2222 -0.2465
53726W        W54590  18.114   0.493   5.645  0.1233 -0.0685  0.2016
53727W        W54591  17.537  20.582  20.637  0.3831  0.2232  0.1392
53728W        W54592   2.524  11.069   9.135 -0.1402  0.2510 -0.1307
53729W        W54593  19.894   0.291  14.349 -0.2482  0.2503  0.2745
53730W        W54594   8.402   9.792   3.393  0.2396  0.1696  0.0316
53731W        W54595   5.787  25.336  26.113  0.1026  0.0904  0.0326
53732W        W54596  28.916   0.081  20.794  0.0472 -0.1392  0.0058
53733W        W54597   2.530  21.823  24.763  0.1572 -0.0431  0.1327
53734W        W54598   9.616  27.704   4.113 -0.1338 -0.2377 -0.0273
53735W        W54599  13.457   3.455   8.746  0.0700  0.0562  0.0847
53736W        W54600  23.840  13.580   0.764  0.0772  0.3183 -0.1999
53737W        W54601   5.941  26.155  12.658  0.0094  0.0489 -0.1222
53738W        W54602   5.761  28.715   1.994 -0.0884 -0.2371 -0.0666
53739W        W54603  21.966   1.717  14.335 -0.1119 -0.1699  0.4431
53740W        W54604  10.104   0.784  18.156  0.0766 -0.2499 -0.0409
53741W        W54605   4.547  19.327   5.920  0.0271  0.0690  0.0788
53742W        W54606  12.956   0.954  27.941  0.2680 -0.1188 -0.4206
53743W        W54607  26.927   8.048   4.370  0.1839  0.0682  0.1029
53744W        W54608   6.416  22.593  12.519 -0.3635 -0.1456  0.0450
53745W        W54609  26.697  20.213  23.409  0.2337 -0.1255  0.0805
53746W        W54610   4.115  17.709  17.662  0.1956  0.2267  0.1618
53747W        W54611   8.275   3.208  19.391  0.0152  0.1430  0.1108
53748W        W54612  28.356   7.891  25.164  0.1194  0.1882  0.0407
53749W        W54613   8.143  29.119   2.025  0.3276 -0.0892 -0.1215
53750W        W54614  23.955  28.311  19.796 -0.1544 -0.0296  0.0786
53751W        W54615  19.650   2.899  27.700 -0.0197  0.1514 -0.1270
53752W        W54616  23.637   9.110  12.996 -0.0213  0.1637 -0.1227
53753W        W54617   1.460  21.365   7.709 -0.1408  0.1168  0.2362
53754W        W54618  13.872  28.675  15.810 -0.1183 -0.1592  0.1613
53755W        W54619  21.806  13.246  17.436  0.4984 -0.0345 -0.2689
53756W        W54620   2.685  10.381  24.678 -0.1900  0.2901 -0.1404
53757W        W54621   7.036  20.589  13.958 -0.0869  0.1401 -0.1039
53758W        W54622  21.307  19.907   3.241  0.1611  0.0025 -0.0592
53759W        W54623  17.763   8.448   3.480 -0.1399  0.1766 -0.0790
53760W        W54624  19.112  19.384  18.846  0.0432  0.0815 -0.1261
53761W        W54625  27.548  15.937  28.019 -0.1448  0.1411  0.0595
53762W        W54626  12.777  20.101   9.432 -0.1085 -0.3387 -0.1050
53763W        W54627   2.854  14.684   5.627  0.1699 -0.0623  0.1807
53764W        W54628  23.515  23.043  18.442  0.0466  0.2314 -0.1337
53765W        W54629  24.185   9.789   5.168  0.0627 -0.0988  0.0306
53766W        W54630   1.778  26.085  25.025 -0.1833  0.0566 -0.1961
53767W        W54631  25.919  21.441   1.511  0.0163 -0.0429 -0.0747
53768W        W54632   7.015   0.612  16.990  0.1833  0.2318 -0.0305
53769W        W54633   7.188  11.442  22.323  0.3042  0.1092 -0.3483
53770W        W54634  21.110   7.056   5.623 -0.1458 -0.2286 -0.1052
53771W        W54635   4.335   3.852  21.856 -0.1021 -0.0706  0.1386
53772W        W54636  13.427   2.877  28.929 -0.3551 -0.1191  0.0101
53773W        W54637   6.325  22.747  17.393  0.2354 -0.1341  0.0886
53774W        W54638   7.876  26.215   0.601  0.1243  0.0871  0.0145
53775W        W54639  22.434  21.402  24.747  0.2812 -0.0982  0.0557
53776W        W54640  17.111  18.798  11.821 -0.0830  0.0237  0.0000
53777W        W54641   4.829   5.008   4.236  0.0665 -0.0948 -0.2393
53778W        W54642   8.157  25.840  13.386 -0.1180  0.1213 -0.0445
53779W        W54643  18.111  28.139  27.246 -0.2238  0.0240  0.2097
53780W        W54644  28.181   0.824  10.155  0.1320  0.5715  0.2237
53781W        W54645   5.361  27.641   9.124  0.0586  0.0262 -0.0293
53782W        W54646   4.328  17.361  27.951  0.1518 -0.0154  0.0353
53783W        W54647  26.312   0.800  25.786  0.1513  0.0557 -0.2262
53784W        W54648   1.773  26.583  28.067  0.2476  0.0062  0.3683
53785W        W54649  19.184   3.136   0.269 -0.1517  0.1471 -0.1108
53786W        W54650   5.308  23.399  20.967 -0.3599 -0.1953 -0.0223
53787W        W54651   2.463  11.375  11.755 -0.2413 -0.1663  0.0486
53788W        W54652   5.761  20.361  14.427 -0.1870  0.0508  0.0463
53789W        W54653   0.886   2.573   3.375 -0.2287 -0.0012 -0.0632
53790W        W54654   6.409  18.559   3.660 -0.4491  0.2987 -0.3194
53791W        W54655  16.610  26.904  26.771  0.3380  0.0984  0.0838
53792W        W54656   4.016  11.544  26.229  0.0291  0.2344  0.4867
53793W        W54657  26.879   6.019   5.525  0.0507 -0.2975  0.0003
53794W        W54658  27.263  28.175   5.431 -0.2150  0.0453 -0.1499
53795W        W54659  24.053  26.296   3.435  0.0304  0.2449  0.1317
53796W        W54660   2.016   8.529   3.889  0.0251 -0.0340  0.3283
53797W        W54661  24.611   8.956  13.381 -0.1722 -0.0921 -0.4119
53798W        W54662   5.457  18.456   7.283  0.0129 -0.1269 -0.0012
53799W        W54663   0.279   4.095   2.836  0.2269  0.2491  0.0940
53800W        W54664   2.692   2.783   0.411 -0.2357  0.3336  0.0622
53801W        W54665  28.924  22.191   2.228  0.1585 -0.1744  0.1214
53802W        W54666  20.127  11.298   9.386  0.0548 -0.0728  0.0369
53803W        W54667  27.440   6.144   0.559  0.0168 -0.1703 -0.1292
53804W        W54668  15.527   8.421  28.148 -0.2213  0.0851  0.1927
53805W        W54669  21.798   3.070  17.923  0.1379  0.0533  0.3816
53806W        W54670  21.257  26.500   9.962 -0.1445  0.2768  0.0197
53807W        W54671  22.728  27.534  10.888 -0.0118 -0.2348 -0.0574
53808W        W54672  20.808   8.970   8.155 -0.2885 -0.0821 -0.0173
53809W        W54673  26.017  18.334   3.178  0.3759 -0.0652  0.3076
53810W        W54674   6.201  14.892   0.415 -0.0822  0.0223 -0.0036
53811W        W54675  23.478   7.239  29.005 -0.3685 -0.1239 -0.0952
53812W        W54676  28.817  13.293  22.157 -0.1052  0.2993 -0.1385
53813W        W54677  27.210  12.530  20.937  0.3280 -0.1066  0.1443
53814W        W54678  23.823   1.947  20.560 -0.0789  0.2544 -0.2593
53815W        W54679  19.037  23.280  28.149 -0.0218 -0.1112  0.1551
53816W        W54680  21.316  22.210   2.306  0.2895  0.1899  0.0313
53817W        W54681  27.485   1.698  28.162 -0.1837  0.0014 -0.1614
53818W        W54682  27.965   4.091  20.238 -0.0522  0.0905 -0.0615
53819W        W54683  19.525  11.589  19.804 -0.0537 -0.1064  0.2843
53820W        W54684  17.708   6.794   2.089 -0.0859 -0.1951 -0.0844
53821W        W54685   7.567  10.012  11.188  0.1246  0.0664 -0.1689
53822W        W54686  28.022   2.118   0.341  0.0780  0.0777 -0.2138
53823W        W54687  28.309  28.631   1.567  0.0711  0.0601 -0.3406
53824W        W54688   8.222  27.867  25.657  0.1228 -0.1344 -0.2371
53825W        W54689  21.691  27.550  25.803  0.0391  0.2069 -0.0404
53826W        W54690  13.795  12.994  19.825 -0.1654  0.0550 -0.2258
53827W        W54691  19.038   9.214  12.543  0.0712 -0.0644 -0.0039
53828W        W54692  21.537  28.721  24.530  0.0003 -0.0722  0.2325
53829W        W54693  14.546   7.567  14.032  0.2837 -0.2242  0.0880
53830W        W54694   5.394  15.623  19.471 -0.1830 -0.0064 -0.1740
53831W        W54695  15.927  21.405  26.196 -0.0998  0.0067 -0.0303
53832W        W54696   4.191  13.047  23.332 -0.0452  0.2061  0.0080
53833W        W54697  10.196   6.759   4.329 -0.1467 -0.5740 -0.3638
53834W        W54698   8.896   6.701  24.644  0.1114 -0.0377 -0.2151
53835W        W54699  11.381   8.985  23.110 -0.1435 -0.1188 -0.1440
53836W        W54700   0.777  25.572   1.932  0.1021 -0.1811  0.2452
53837W        W54701  27.489  16.143  24.130  0.3021  0.0103 -0.3855
53838W        W54702  10.420  27.499  17.825  0.0237 -0.2027 -0.0281
53839W        W54703   1.632  23.637   5.815  0.3082 -0.2283 -0.3796
53840W        W54704  22.835  11.693   6.639  0.2910  0.0483 -0.0649
53841W        W54705  21.855  12.573  25.476  0.0780  0.1945  0.0131
53842W        W54706  19.958  18.610   4.205  0.2090  0.0150  0.1569
53843W        W54707  24.580  28.753  26.041 -0.4365  0.3537  0.1602
53844W        W54708  19.832   2.095   4.540 -0.3462  0.3025 -0.0066
53845W        W54709  28.968  20.029  25.156  0.2060 -0.0581 -0.1735
53846W        W54710  22.231   1.273   6.795  0.2996 -0.0482 -0.2713
53847W        W54711   5.257   2.129  29.140 -0.0520  0.0886 -0.0521
53848W        W54712  14.055  26.589  16.811 -0.1016 -0.0210 -0.0022
53849W        W54713  25.099   4.196  12.552 -0.1767 -0.0591  0.1189
53850W        W54714  24.288  10.085  17.324  0.0391 -0.0995  0.0486
53851W        W54715  21.456  20.827   1.467 -0.1926 -0.1420  0.2290
53852W        W54716  25.028  20.088   6.644 -0.0014  0.1669 -0.3577
53853W        W54717   4.269  25.511  12.601 -0.1471 -0.2482  0.2115
53854W        W54718  15.129  12.697   6.122 -0.0959 -0.1118 -0.0893
53855W        W54719  16.774  18.937  24.552 -0.1126 -0.0616 -0.2827
53856W        W54720  18.457   3.538  26.459  0.3151 -0.0455  0.1352
53857W        W54721  13.041  12.180  10.926 -0.1516 -0.0182  0.1429
53858W        W54722  22.965   5.662  26.970 -0.0729 -0.0776 -0.1127
53859W        W54723  23.186  11.562  25.680  0.0669 -0.0396 -0.5086
53860W        W54724  25.867   6.943  28.140  0.0711  0.0292 -0.1583
53861W        W54725  22.296  21.394  24.235  0.1082  0.0603 -0.3029
53862W        W54726  17.764  27.864  23.523  0.1082 -0.1444  0.1827
53863W        W54727  10.920   1.055  27.235 -0.0210 -0.0178  0.1037
53864W        W54728   0.485   7.836   8.359  0.4490  0.2971  0.0326
53865W        W54729  15.713  20.289   5.467  0.2349  0.3034  0.0941
53866W        W54730  18.562   6.168  25.247  0.2425 -0.0680  0.1794
53867W        W54731  25.214   8.003  10.052  0.1785  0.2155  0.0849
53868W        W54732  11.335  18.443   9.648  0.3723  0.0954 -0.0214
53869W        W54733  26.745   4.069  10.669  0.0690  0.2118  0.0045
53870W        W54734  28.342  27.524  24.212  0.0707  0.1786  0.4005
53871W        W54735  15.087   0.215   4.105 -0.0920  0.1697  0.1203
53872W        W54736  20.585  24.870  23.668 -0.0279 -0.2049  0.0871
53873W        W54737   0.155  12.399   3.569  0.2356 -0.4366  0.0418
53874W        W54738  25.465  12.231   1.179 -0.1913 -0.1630  0.3070
53875W        W54739  24.302  22.769   4.509  0.1649 -0.0198  0.4660
53876W        W54740   3.862  29.021  13.512 -0.3697  0.0135 -0.0065
53877W        W54741  21.140  22.072  28.205  0.1732 -0.3939  0.1430
53878W        W54742  19.176  17.273  11.785  0.0792 -0.2557 -0.3515
53879W        W54743   8.145   1.994  27.087  0.2623 -0.0840 -0.1540
53880W        W54744  21.715  16.345  10.692  0.1854  0.0495  0.0042
53881W        W54745  20.007  10.775  11.034  0.3799 -0.1468 -0.1041
53882W        W54746  18.500   6.252  13.367  0.0617  0.3863 -0.0414
53883W        W54747   1.847  11.873   4.486 -0.3133  0.1330 -0.0060
53884W        W54748  14.515  21.871  24.614 -0.4039  0.2687  0.3367
53885W        W54749  29.091   6.557  12.485 -0.0838 -0.1983  0.1021
53886W        W54750   1.351  27.648  14.385 -0.1405 -0.2413 -0.2312
53887W        W54751  24.828  25.226   9.391 -0.4420  0.1196  0.1349
53888W        W54752   7.718   4.186  21.674  0.4672  0.2337  0.1413
53889W        W54753   2.918  25.823   1.148 -0.1323 -0.1644 -0.1973
53890W        W54754  16.370   2.309  14.730  0.2667  0.4610  0.1586
53891W        W54755   4.765  15.683  24.942 -0.0639 -0.6067 -0.2897
53892W        W54756  16.034  28.030  11.426 -0.2252 -0.0326  0.2128
53893W        W54757   7.842   7.486  13.034  0.1227  0.0497  0.2274
53894W        W54758   4.102  15.057   5.280  0.1110  0.1070 -0.1929
53895W        W54759  26.868  24.848  15.481  0.0753 -0.1331 -0.0381
53896W        W54760  26.566   3.375  16.287 -0.0674  0.3267 -0.1866
53897W        W54761  27.314  28.077   6.790  0.1877 -0.2312  0.0328
53898W        W54762  23.588  10.881   2.401 -0.1506  0.2563  0.1039
53899W        W54763   3.494  16.489  15.228 -0.1109 -0.1546 -0.0914
53900W        W54764   2.039   9.366  10.539 -0.2023 -0.1741  0.1298
53901W        W54765  23.241  23.247   5.096 -0.2170  0.1322 -0.0370
53902W        W54766  11.758   6.299  12.699  0.3172  0.3072  0.1629
53903W        W54767  22.134   4.240   6.894  0.2621  0.0917  0.1395
53904W        W54768  29.112   1.808  20.701 -0.0731 -0.1947  0.2365
53905W        W54769  26.143   0.222  23.655  0.3484 -0.0784  0.0129
53906W        W54770  27.238  12.851   4.780  0.0127  0.2597  0.0618
53907W        W54771   0.934   3.825  17.957  0.2186 -0.0828 -0.0288
53908W        W54772   1.421   4.323  20.335 -0.1273 -0.1345 -0.1831
53909W        W54773  22.912  21.005  11.092  0.1006  0.1032 -0.0222
53910W        W54774  24.206   4.437  22.186 -0.3212  0.1839 -0.0819
53911W        W54775  11.355   2.320  23.592  0.1452 -0.0794 -0.2167
53912W        W54776  13.411  18.027  20.284  0.0997  0.2909  0.1497
53913W        W54777   1.855  20.785   8.496  0.0670 -0.1568 -0.1334
53914W        W54778  24.337  22.843  27.591  0.3083 -0.1331 -0.1512
53915W        W54779   4.689  28.340  21.421  0.1017  0.0537 -0.0049
53916W        W54780  16.023  28.192   4.150  0.0266  0.0964  0.0295
53917W        W54781  21.423   4.130   1.621 -0.1307  0.1371 -0.0801
53918W        W54782   0.919  26.954   9.675  0.1416  0.0058 -0.2369
53919W        W54783  24.489   2.639   9.203 -0.0031 -0.0720  0.5194
53920W        W54784  24.327  20.821   3.622  0.0589 -0.0075  0.1439
53921W        W54785  18.510  18.761  11.576  0.0727  0.0871  0.2511
53922W        W54786  21.605   7.503  24.422  0.0694 -0.2509 -0.3703
53923W        W54787  22.257  15.606   9.595  0.0137 -0.1207  0.0920
53924W        W54788  21.545  17.579  11.183 -0.0794  0.1451 -0.0110
53925W        W54789  20.928   9.431  18.815  0.0716 -0.0969 -0.1576
53926W        W54790  16.245   8.842  28.968 -0.4021 -0.0390 -0.3674
53927W        W54791  11.137   9.972  27.988  0.4322  0.1621 -0.0469
53928W        W54792  21.078  23.918  16.586 -0.3178  0.0731  0.1736
53929W        W54793  13.347  16.915  11.009  0.2980  0.0208  0.5939
53930W        W54794   5.428  28.881   6.502 -0.1576  0.0398 -0.1238
53931W        W54795  15.903   1.604   9.129  0.0961 -0.0599 -0.0986
53932W        W54796  23.151  12.525  21.782 -0.1894  0.2170 -0.0126
53933W        W54797  18.050  20.838   0.235  0.2245  0.2440  0.0720
53934W        W54798   3.097  26.590   7.007 -0.1632 -0.2543  0.0301
53935W        W54799  16.813  23.244  11.425 -0.1661  0.0433 -0.2173
53936W        W54800   9.755  24.956  19.032 -0.1756  0.1340  0.0890
53937W        W54801   9.165   3.360  28.072  0.0665 -0.0533  0.0571
53938W        W54802  12.103  10.750  26.006  0.1827 -0.0519 -0.0187
53939W        W54803  26.069   4.343  20.489  0.0919 -0.2539 -0.1691
53940W        W54804  16.033   7.540   4.170  0.1143  0.2951 -0.1547
53941W        W54805  18.261   9.412  20.503  0.2307  0.0040  0.0466
53942W        W54806   3.559   8.440   6.896  0.1222 -0.3737  0.0816
53943W        W54807  17.797  17.156  15.538  0.0244 -0.0495  0.2591
53944W        W54808   3.602   5.715   1.818  0.1795  0.0675  0.3229
53945W        W54809  26.590  22.372   1.117  0.2559  0.1384  0.2830
53946W        W54810   2.925   1.605  14.500 -0.0922  0.1058  0.0602
53947W        W54811   8.744   7.529   3.294  0.0248 -0.3604  0.2336
53948W        W54812  25.879   3.971  24.919 -0.1643 -0.0337  0.2495
53949W        W54813   1.512  24.089  26.190 -0.0580 -0.0765 -0.2548
53950W        W54814  20.393  18.349   4.120 -0.2306  0.0331 -0.1648
53951W        W54815   8.671  24.348  14.804  0.0232 -0.2576  0.0272
53952W        W54816  24.403   6.053  22.395 -0.1552 -0.0700  0.1969
53953W        W54817   2.977   2.980   3.790 -0.0514 -0.0198 -0.1513
53954W        W54818   4.924   0.691   8.707  0.0034  0.0422  0.3160
53955W        W54819  15.791   9.909   5.367  0.0801 -0.0658  0.0976
53956W        W54820  25.015  23.756   0.695  0.1032  0.2904 -0.0147
53957W        W54821  24.547   3.892  19.337  0.1503 -0.2770  0.0554
53958W        W54822   5.917   5.103   3.743  0.1780  0.2169 -0.1562
53959W        W54823   4.932  15.328  11.979 -0.1429  0.0224  0.1403
53960W        W54824  17.080  11.058  14.984 -0.1703  0.0300  0.2209
53961W        W54825   1.947  16.745  11.957 -0.0171 -0.2312 -0.2634
53962W        W54826   3.592  27.857  28.178  0.1139  0.2018 -0.0751
53963W        W54827   0.374   5.419   9.530 -0.1038 -0.0497 -0.0648
53964W        W54828  26.269   9.536  24.403 -0.2010 -0.0875 -0.1120
53965W        W54829  13.084  23.652   3.446  0.1522  0.1053  0.2007
53966W        W54830   3.174   8.386  12.128 -0.2014  0.0361 -0.0251
53967W        W54831  23.762  21.901  19.086 -0.2050  0.2956 -0.1542
53968W        W54832   8.470  27.468  13.198  0.0164 -0.0114 -0.0856
53969W        W54833  25.755  15.557   1.839  0.1428  0.1160  0.0151
53970W        W54834   2.399  14.136  26.248  0.1469  0.0408  0.2381
53971W        W54835  25.929  25.780  24.717  0.2909  0.3469  0.1817
53972W        W54836   8.156  13.030  11.732 -0.1310  0.1538  0.1684
53973W        W54837  22.535   0.545  11.555  0.1117  0.0066  0.0041
53974W        W54838  12.105   4.568  17.219  0.3122  0.0482 -0.0568
53975W        W54839   4.342   6.855  11.412  0.0874 -0.4016 -0.0134
53976W        W54840  12.395  23.797  23.525 -0.1129  0.0333  0.2156
53977W        W54841  10.776  26.852  28.451  0.3085 -0.1066  0.0378
53978W        W54842  27.050   2.877  12.018 -0.0891  0.2253  0.0814
53979W        W54843  23.296  27.143  29.102 -0.0181  0.3374 -0.1436
53980W        W54844   6.706   3.067   1.004  0.2544 -0.0863  0.0535
53981W        W54845  21.669   2.686   3.149  0.0112 -0.2617 -0.4195
53982W        W54846  23.165   1.370  27.448 -0.0215 -0.0960 -0.1021
53983W        W54847   9.140   4.570  24.393 -0.1462  0.2492 -0.0395
53984W        W54848   7.037   6.591   5.988 -0.1078  0.1750  0.1167
53985W        W54849  17.808  25.387   8.914 -0.0476 -0.2823 -0.1105
53986W        W54850  24.837   6.645   2.253  0.0055  0.4113  0.0666
53987W        W54851  16.060   1.466   8.408  0.2404 -0.1338 -0.1362
53988W        W54852  25.669   4.075   1.249  0.1641  0.1661  0.3968
53989W        W54853  14.507  12.824  21.844  0.0786  0.5425  0.1128
53990W        W54854   3.347   0.289  10.490 -0.2057 -0.0362  0.1134
53991W        W54855  27.434   1.045   8.975 -0.0118  0.2066 -0.1555
53992W        W54856   9.890   3.109  24.668 -0.1891 -0.0078  0.0340
53993W        W54857  24.519  18.685  25.943  0.0076  0.0416 -0.1599
53994W        W54858   0.352  28.029   0.835 -0.3649  0.1584 -0.3182
53995W        W54859   9.506  28.472  11.415 -0.1028  0.2016  0.1759
53996W        W54860   1.137   9.686   4.319  0.2902  0.2994 -0.0030
53997W        W54861   4.635  29.074  25.240  0.1468 -0.0730  0.2852
53998W        W54862  25.383  14.924  15.749 -0.0901 -0.3503  0.1923
53999W        W54863  22.488  20.999   9.561 -0.1448  0.0422 -0.0597
54000W        W54864  24.245  10.087  24.913 -0.1506 -0.1941 -0.0004
54001W        W54865   9.768  15.789   1.498  0.1514 -0.2341 -0.2135
54002W        W54866   3.444  27.953   5.462  0.2201 -0.2466  0.3718
54003W        W54867  24.475   1.092  23.604 -0.0826 -0.0504  0.1095
54004W        W54868  18.036  18.972   6.747 -0.2646  0.2198 -0.0652
54005W        W54869  21.978   5.330   5.644  0.1797 -0.3303  0.1023
54006W        W54870  24.046  28.824  26.994  0.1549 -0.2906  0.0834
54007W        W54871  16.814  28.036  15.236 -0.2913  0.0887 -0.0646
54008W        W54872  10.311  25.196   7.161  0.0118  0.1625 -0.2604
54009W        W54873  27.523   1.757   3.148  0.0769  0.1388  0.3464
54010W        W54874  15.037  27.163  23.308  0.1723  0.1907  0.2929
54011W        W54875  19.849  18.453   9.677  0.1583 -0.2739 -0.0126
54012W        W54876  14.864  27.484   5.021  0.1028  0.3076  0.0732
54013W        W54877  20.440   7.222   1.681 -0.2342 -0.2292  0.0041
54014W        W54878   8.322   5.939   2.749 -0.2078 -0.2154 -0.1293
54015W        W54879  15.457   7.377  10.143 -0.0297  0.0955  0.0701
54016W        W54880  20.392  18.764   6.770  0.0167 -0.2688  0.0940
54017W        W54881  17.193   8.547  24.687 -0.1242  0.1787  0.1161
54018W        W54882  23.716   3.682   0.334  0.0071  0.0826  0.2030
54019W        W54883  17.802  20.785  28.248 -0.1944 -0.1520  0.3783
54020W        W54884  24.993  22.628  21.178  0.0412 -0.0140 -0.0608
54021W        W54885  10.582  11.436   0.611 -0.1615  0.1477 -0.2727
54022W        W54886  16.628   1.237  21.328  0.5732 -0.1327 -0.1010
54023W        W54887  17.993   4.973   1.929  0.0131 -0.0826 -0.0884
54024W        W54888   1.293  14.812   3.913 -0.0340  0.4315 -0.0327
54025W        W54889   2.550   1.555  19.206 -0.1826 -0.1539  0.0145
54026W        W54890  20.033  18.633   0.651 -0.2007  0.2913  0.3382
54027W        W54891  12.670  25.534  28.827  0.0248  0.1528 -0.1329
54028W        W54892   3.818  28.751   1.649  0.0642  0.0984 -0.0098
54029W        W54893  21.923  21.467   2.329  0.1032 -0.3804 -0.1042
54030W        W54894   4.597  15.932  22.642  0.2346 -0.1809  0.1222
54031W        W54895   1.907  17.412  13.258 -0.3553  0.3298 -0.0563
54032W        W54896  21.593  25.329  18.465 -0.0725 -0.1020  0.0418
54033W        W54897  14.368  21.601   4.155  0.3744  0.2173  0.1690
54034W        W54898  15.462  10.913  16.972  0.1360 -0.1016  0.0751
54035W        W54899   7.117   4.496  25.123  0.1503 -0.1297  0.1459
54036W        W54900   4.231  25.727  26.057  0.1850  0.1699 -0.1339
54037W        W54901  23.150  13.703   3.323 -0.1267  0.0910 -0.0412
54038W        W54902  17.133  20.073  26.474  0.2617  0.1444  0.0132
54039W        W54903   1.248  22.644  27.156  0.2456  0.0034  0.0734
54040W        W54904   0.283  18.918  11.877 -0.2534  0.2112 -0.2785
54041W        W54905  22.120   1.605  13.328 -0.0764 -0.2276 -0.1727
54042W        W54906  18.477   3.860   9.232  0.0054  0.1852 -0.0587
54043W        W54907  17.297  23.619   2.116  0.1354 -0.1715  0.1537
54044W        W54908  14.794  20.296  29.045  0.5136  0.0435  0.0316
54045W        W54909  26.453   4.594   5.816  0.1379 -0.0020 -0.1014
54046W        W54910  21.472  21.250   6.795 -0.2026 -0.0410 -0.2366
54047W        W54911   8.789  27.127  13.789 -0.0464  0.0268  0.1064
54048W        W54912   0.764  28.538  12.367 -0.4375 -0.0754  0.0590
54049W        W54913  28.000  15.644  10.609  0.0001 -0.0577  0.2369
54050W        W54914  11.263  17.552   7.176 -0.0273  0.0193 -0.1277
54051W        W54915  10.432  26.438  22.860 -0.0845  0.0313 -0.0553
54052W        W54916  26.033   4.950   4.969  0.4299  0.3723 -0.2199
54053W        W54917  14.291  21.392  25.519 -0.0714  0.0483  0.1515
54054W        W54918  13.331   6.422   2.178 -0.2171  0.0619  0.2800
54055W        W54919  16.033  19.647  27.745  0.1504  0.0828  0.2529
54056W        W54920   1.021  23.700   9.421 -0.1927 -0.1925  0.0604
54057W        W54921   3.727   6.808  25.579  0.1210  0.1457 -0.0380
54058W        W54922  17.281  17.873   5.737  0.0773 -0.0955  0.0693
54059W        W54923  26.797   4.156   3.441 -0.1024 -0.1827  0.0659
54060W        W54924  20.279  13.256   1.548  0.2438 -0.2986 -0.0133
54061W        W54925  24.934  22.384   0.206  0.3048  0.0351 -0.0594
54062W        W54926   5.602   7.351   1.519 -0.2083  0.0149 -0.1599
54063W        W54927  20.177   5.867   3.470 -0.4251 -0.2912  0.2755
54064W        W54928  24.966  21.057  27.963  0.0454  0.0013 -0.0221
54065W        W54929  28.370   1.010  12.805  0.2261  0.2913 -0.0753
54066W        W54930   2.834   2.337  16.535  0.2534 -0.1615  0.0520
54067W        W54931  13.909  16.286   7.908 -0.0149  0.0894  0.0996
54068W        W54932   2.553   9.766   6.009 -0.3618  0.0693  0.0611
54069W        W54933   8.986  27.409  10.784  0.0915 -0.0432 -0.1031
54070W        W54934  14.602  20.675   2.830  0.0383  0.1060 -0.0750
54071W        W54935   0.216  27.081   9.023 -0.0876  0.1795  0.0544
54072W        W54936  26.452   5.013   3.199  0.1370 -0.1875  0.2424
54073W        W54937   9.414  13.533  14.873  0.0576  0.0592  0.1116
54074W        W54938  17.464  22.598  16.542 -0.2754 -0.4117  0.0121
54075W        W54939   7.413  28.236   2.420 -0.0920 -0.2252  0.1461
54076W        W54940   8.696  25.764   7.930 -0.2052 -0.1632  0.2968
54077W        W54941  20.643   6.741  25.479 -0.1541 -0.1164 -0.0220
54078W        W54942  24.738  26.513  17.396  0.2399 -0.3226  0.3200
54079W        W54943  11.491   1.830  22.240 -0.0384 -0.2186  0.1698
54080W        W54944   9.711   5.191   4.922 -0.1426  0.1778 -0.2031
54081W        W54945  27.931  25.472   3.011  0.1605 -0.2533  0.1385
54082W        W54946   3.329   6.532   3.139 -0.0712 -0.3079  0.2821
54083W        W54947   4.412  27.414  15.748 -0.0923 -0.2800  0.3932
54084W        W54948  19.634  22.178  27.515 -0.3284 -0.0497 -0.3647
54085W        W54949   5.236  26.048   2.401  0.1359  0.2054 -0.1821
54086W        W54950  13.819   9.381   6.431  0.2774 -0.1447  0.2995
54087W        W54951   1.578  23.419  10.892 -0.1543  0.1737 -0.1706
54088W        W54952  22.895  27.342  21.524  0.3085  0.3378  0.2250
54089W        W54953   8.768   6.588   1.461  0.2313  0.1865  0.1333
54090W        W54954  23.433  28.438  20.621  0.1355 -0.0221  0.3017
54091W        W54955  18.321  28.412   2.935  0.3220  0.4300  0.1785
54092W        W54956  27.353  21.589  14.715  0.2556  0.4150  0.3272
54093W        W54957   0.866  16.597   2.922 -0.3284  0.1669 -0.0844
54094W        W54958  27.054  26.894   1.104  0.1655 -0.0865 -0.0291
54095W        W54959   5.238   5.597  28.440 -0.1659  0.0375  0.0751
54096W        W54960  21.712  11.585   4.872 -0.2276  0.4100  0.1484
54097W        W54961  27.072   7.534  16.439 -0.0330  0.3292  0.2060
54098W        W54962   9.358  11.965  26.422  0.0924 -0.0925 -0.5290
54099W        W54963   2.982  11.790  26.361 -0.0585 -0.0741  0.1311
54100W        W54964  21.850   2.649  15.835  0.2160  0.0178  0.0278
54101W        W54965  25.132   8.819  16.276  0.1009  0.0145  0.0428
54102W        W54966  15.802  11.541  26.233 -0.1335  0.0166 -0.0607
54103W        W54967  24.259  24.404  17.947 -0.1927  0.1328 -0.1394
54104W        W54968  23.360   9.256  18.901  0.0689  0.0388 -0.3123
54105W        W54969   6.925  26.947  20.687 -0.3064 -0.1355  0.0741
54106W        W54970  28.413   2.055  13.712 -0.0587 -0.0566  0.3791
54107W        W54971  15.942  25.627  23.454 -0.1100  0.0861 -0.0660
54108W        W54972  28.267  28.378  21.637  0.2130  0.1149 -0.0347
54109W        W54973  27.150  24.212   9.215 -0.1576 -0.0240 -0.2923
54110W        W54974  26.907  10.982  17.169 -0.3176  0.0482  0.0391
54111W        W54975  10.823  17.368   3.335  0.1163  0.0005 -0.1421
54112W        W54976   0.081   0.570  12.065  0.2451 -0.1823  0.3334
54113W        W54977  19.346   1.328   5.807  0.1798  0.0393  0.2078
54114W        W54978  15.859  22.213   3.523 -0.0490  0.1426  0.1322
54115W        W54979  16.274  24.447  10.224 -0.0290  0.2280 -0.1312
54116W        W54980   5.946   9.296   2.184 -0.1697 -0.4647  0.0225
54117W        W54981  25.766  29.139  19.226 -0.0546 -0.0720  0.2378
54118W        W54982  26.671   7.368  12.730 -0.2458  0.0429 -0.2021
54119W        W54983  24.048  15.147  11.317  0.1874  0.0049  0.0374
54120W        W54984  12.085   5.654  12.593 -0.1069 -0.1961 -0.4896
54121W        W54985   9.362   4.270  19.934 -0.1834  0.0272  0.0893
54122W        W54986  19.595  25.990   7.166 -0.1755  0.2388  0.1268
54123W        W54987  28.076   1.576  13.072 -0.0595  0.2177  0.0917
54124W        W54988  13.364   3.839  28.167  0.2100  0.0811 -0.1535
54125W        W54989   3.728  19.738  25.274 -0.1259 -0.1079 -0.0018
54126W        W54990  22.451   6.126  18.804 -0.1587 -0.0407  0.0070
54127W        W54991  16.432  11.742   8.572 -0.1079 -0.1266  0.0323
54128W        W54992  19.843   3.263  14.086 -0.0063 -0.3300  0.0008
54129W        W54993   3.349  22.056   7.064 -0.3024  0.0124  0.4799
54130W        W54994  22.061  24.647  24.627 -0.1154 -0.0106 -0.0579
54131W        W54995  26.859  11.472   2.061 -0.2715  0.1602 -0.4914
54132W        W54996   2.557  25.539   4.739 -0.1845 -0.0612 -0.0102
54133W        W54997   8.242   2.770  15.929  0.1238 -0.3341 -0.0241
54134W        W54998  26.758   5.397   5.104 -0.0580 -0.0102 -0.0561
54135W        W54999  27.663   3.503  24.658 -0.0921  0.0217  0.1293
54136W        W55000   6.653  24.523   4.887 -0.1465 -0.1658 -0.0266
54137W        W55001  24.732  22.401  27.915 -0.0134  0.0070 -0.2128
54138W        W55002  13.498  20.070  28.147 -0.2611  0.0759  0.0692
54139W        W55003  11.505  28.130  19.209  0.2987 -0.0814 -0.1229
54140W        W55004   2.213  26.956   8.176  0.1306 -0.0786  0.0249
54141W        W55005   9.584   3.792   8.958 -0.3052  0.1509 -0.1968
54142W        W55006   2.314   0.977   9.489 -0.2176  0.4552 -0.1568
54143W        W55007  28.304   3.311  22.968 -0.1636  0.2504 -0.3884
54144W        W55008  29.125  19.279   7.518  0.1363 -0.2275 -0.1288
54145W        W55009   5.931  12.232  12.056  0.0672  0.1426 -0.2685
54146W        W55010   2.194   2.679  27.939  0.3569 -0.3030 -0.0957
54147W        W55011  22.181  18.220  10.835 -0.2709  0.0448  0.2606
54148W        W55012  11.131  19.694   4.211  0.2434 -0.2784 -0.0537
54149W        W55013  13.882  18.513  16.955  0.0034 -0.2458 -0.0273
54150W        W55014  25.338  28.928   9.554  0.1717  0.1848 -0.0744
54151W        W55015  12.942   3.140   5.292 -0.0718 -0.2979  0.0878
54152W        W55016   6.951  18.938  20.699 -0.1015  0.0821 -0.0839
54153W        W55017  12.686   0.308   8.634 -0.0730 -0.1916  0.0462
54154W        W55018   7.709  27.915  11.281 -0.0752 -0.1398  0.2274
54155W        W55019  13.598   2.936   6.038  0.1508  0.1832 -0.0767
54156W        W55020  27.843  10.732   8.293  0.2318  0.2714  0.1438
54157W        W55021   4.186   5.896  19.773 -0.2342 -0.0516 -0.2426
54158W        W55022  28.749  28.785  12.822 -0.1028 -0.1295 -0.1950
54159W        W55023  28.156  18.081   2.483 -0.0394 -0.0949 -0.0897
54160W        W55024  23.051   7.261   0.301 -0.1046 -0.0812 -0.1121
54161W        W55025   9.267  20.903  21.479 -0.4457 -0.1318 -0.1352
54162W        W55026  25.182   9.077  17.258  0.4942 -0.0274  0.1712
54163W        W55027  21.767   2.105   7.291 -0.2455  0.5151 -0.0200
54164W        W55028  23.953  14.075  23.921 -0.1959  0.0131  0.1609
54165W        W55029   0.868   1.913  10.081  0.1980 -0.0119 -0.0152
54166W        W55030  23.713  22.114   2.038 -0.1310  0.2888 -0.3007
54167W        W55031  28.570   2.124   3.262 -0.1613 -0.0882 -0.0379
54168W        W55032  13.419  25.003  22.007 -0.0450 -0.2351  0.0153
54169W        W55033  16.221   6.544  12.908  0.0496 -0.2010 -0.1474
54170W        W55034   6.506  22.620  16.906 -0.2058  0.2030  0.2625
54171W        W55035  15.481   3.670   5.648  0.0030 -0.2312 -0.0419
54172W        W55036  12.068   8.667  27.289 -0.0570  0.0609 -0.4193
54173W        W55037  27.488  23.408  21.664  0.3153 -0.3695  0.0737
54174W        W55038   3.049  14.940  26.487 -0.1899  0.0369  0.0484
54175W        W55039  19.897  14.378  25.722  0.0518 -0.0209 -0.0724
54176W        W55040  14.217  23.290   1.662 -0.0892 -0.0012 -0.1761
54177W        W55041  24.675  18.515  24.606  0.0627  0.1062 -0.1263
54178W        W55042   0.987   9.917  17.319 -0.1012  0.2406 -0.1956
54179W        W55043  15.769  12.577   5.079 -0.2659  0.2089 -0.0911
54180W        W55044   6.809  27.467  21.842 -0.2926  0.2125 -0.0959
54181W        W55045  28.077  22.593  20.016  0.0072 -0.2750  0.0846
54182W        W55046  19.630  24.488  28.939 -0.1242  0.1190 -0.2359
54183W        W55047   6.508   1.928   1.903  0.0238  0.1376  0.1331
54184W        W55048   5.846   3.135  15.306 -0.1168  0.1034  0.2395
54185W        W55049  26.679  24.916   4.483 -0.0188 -0.0672 -0.0971
54186W        W55050   5.394   2.047  16.922  0.1805 -0.2211 -0.2885
54187W        W55051  25.852   0.027   2.062 -0.0996  0.2635 -0.1676
54188W        W55052   9.383  21.472   0.255  0.1684  0.1829  0.2565
54189W        W55053  28.177   2.739   8.015  0.1088 -0.0585 -0.0095
54190W        W55054  19.344   4.263  16.362  0.0119 -0.4407 -0.2713
54191W        W55055   0.809  16.351   1.746  0.3858 -0.1220 -0.1214
54192W        W55056  29.113  26.818  19.599  0.4615  0.2983  0.0194
54193W        W55057  14.805  26.697   5.677  0.1960  0.0405 -0.1823
54194W        W55058   1.790  11.734  26.983  0.0906  0.1775  0.3326
54195W        W55059  26.672  24.705  11.676 -0.2018  0.0686  0.0474
54196W        W55060   1.629  28.600  17.078  0.1136 -0.0844 -0.1211
54197W        W55061  24.580  23.366  21.702  0.1140 -0.0893  0.4056
54198W        W55062  20.783  26.446   9.424  0.2194  0.2240  0.2291
54199W        W55063  10.892  15.773  10.127 -0.4222  0.0031  0.2351
54200W        W55064   4.905  29.024   8.462 -0.1396 -0.1648  0.0525
54201W        W55065   0.605  24.503   0.129 -0.0516  0.0546 -0.0184
54202W        W55066  21.263  21.131  13.057 -0.2112 -0.0183  0.0948
54203W        W55067  20.927  22.556   2.385  0.3238 -0.0506  0.1886
54204W        W55068   3.793  15.289  23.037 -0.0968 -0.0534 -0.0407
54205W        W55069  12.883  24.863  24.834 -0.1876  0.0183  0.1047
54206W        W55070  26.782   6.467  15.838 -0.0275 -0.1843 -0.0024
54207W        W55071  17.820  28.061  19.401  0.0578  0.1544 -0.0218
54208W        W55072  24.342   6.697  10.720  0.0511 -0.0322 -0.3898
54209W        W55073  25.641   7.706  27.146  0.1852 -0.0929  0.1712
54210W        W55074   0.344  28.645  12.676 -0.3752  0.1793  0.0864
54211W        W55075  24.014   6.629  28.205 -0.0472 -0.2341  0.3228
54212W        W55076  25.912  10.409  14.586 -0.1934  0.0721  0.1133
54213W        W55077  27.620   0.751   0.445 -0.2334  0.2492 -0.3677
54214W        W55078  14.525  13.744  29.123 -0.0332 -0.0777  0.0490
54215W        W55079  15.846  29.025   8.231 -0.3244  0.0726 -0.2439
54216W        W55080  18.461  27.314  16.328 -0.2374  0.1115 -0.0205
54217W        W55081   8.510  11.289  19.953  0.1512 -0.1945 -0.0169
54218W        W55082   5.032  28.617  12.885  0.0092 -0.2503  0.0997
54219W        W55083  21.106  19.866   1.224  0.0995 -0.2666  0.1172
54220W        W55084  16.009   9.195   6.761 -0.1535  0.1581 -0.0528
54221W        W55085   1.165   4.463   9.934  0.2001  0.3600  0.1436
54222W        W55086  20.586   1.613  16.917  0.1121  0.2627  0.0125
54223W        W55087   4.271   7.996  15.385  0.0049  0.1279 -0.2739
54224W        W55088   4.544  24.289   2.109 -0.0150 -0.1980 -0.2568
54225W        W55089   1.502  23.253  21.653 -0.1156 -0.1554  0.3378
54226W        W55090  16.867  14.772  17.359  0.1755  0.3252  0.1413
54227W        W55091  10.553  15.361   0.233  0.0647  0.0133 -0.3286
54228W        W55092  15.846  17.194  18.686 -0.1761  0.0864 -0.0506
54229W        W55093  21.459  22.955   7.929  0.0565 -0.1547  0.0091
54230W        W55094  15.818  23.150   4.949  0.0641 -0.3329 -0.1042
54231W        W55095  24.437  11.586  23.274  0.3682 -0.0614 -0.1003
54232W        W55096  20.951  28.264  15.071 -0.1058 -0.0618 -0.0400
54233W        W55097  13.558   2.437  26.207 -0.0373  0.1818  0.0559
54234W        W55098   1.083  16.915   4.542 -0.0506  0.0569  0.1937
54235W        W55099  23.522  10.857   9.488  0.1720  0.2035 -0.0119
54236W        W55100   9.189   1.422   5.458  0.1757 -0.2435 -0.1114
54237W        W55101  22.371  19.159   3.307 -0.3221 -0.2775 -0.1879
54238W        W55102  24.190  17.786   2.404 -0.0641  0.4609 -0.0650
54239W        W55103  18.687  14.369   6.759  0.2882  0.1919 -0.0407
54240W        W55104  26.036  24.818  14.825  0.1760  0.1714 -0.0607
54241W        W55105  27.536  24.020  24.574  0.1912  0.1948  0.1529
54242W        W55106   2.056  14.036   7.491  0.0618  0.0349  0.2830
54243W        W55107  15.431  23.270   3.967 -0.0954 -0.2403 -0.2113
54244W        W55108  19.518  24.427  27.124  0.0922  0.2578 -0.0282
54245W        W55109  24.217  28.175   5.230 -0.1107  0.0933 -0.2593
54246W        W55110  12.615  27.293  16.541 -0.0883  0.0182  0.1408
54247W        W55111   8.415  21.879   5.870  0.0140  0.0667 -0.2265
54248W        W55112  13.102   8.607   1.920 -0.0856  0.0562 -0.1091
54249W        W55113  15.731   3.119   7.649 -0.0073  0.0942  0.0374
54250W        W55114  24.934  26.070  17.186  0.2376  0.0711 -0.1510
54251W        W55115   4.534  21.608   1.116  0.1800 -0.4501  0.1064
54252W        W55116  21.107   7.153   8.298 -0.0209  0.0659 -0.1670
54253W        W55117  11.967  16.206  26.120 -0.0439 -0.0614 -0.2553
54254W        W55118   4.366  19.980  13.348 -0.3307  0.0404  0.0284
54255W        W55119  19.833   8.176  18.616 -0.0925 -0.1285  0.1784
54256W        W55120  27.098   0.383   6.164  0.1689 -0.0743 -0.1146
54257W        W55121   6.871  26.892   5.008  0.1895  0.2562  0.0676
54258W        W55122  25.361  17.398   0.791  0.2532  0.1487 -0.0870
54259W        W55123  22.908  14.395  25.931 -0.0818  0.0092 -0.0356
54260W        W55124  11.272   3.538   9.730  0.1408  0.0542  0.1731
54261W        W55125   6.067   6.812  11.180 -0.0977 -0.0090 -0.2118
54262W        W55126   4.423  27.171  17.669  0.4877  0.3189 -0.0087
54263W        W55127  26.733   7.383  26.406  0.0137  0.0031 -0.1749
54264W        W55128   4.166   0.962  25.061  0.5888  0.0020 -0.0097
54265W        W55129   5.682  23.673   0.507  0.2169 -0.0039 -0.0590
54266W        W55130  24.207   5.099  21.383  0.0545  0.0843 -0.1612
54267W        W55131  20.844  17.672   7.673 -0.1815 -0.1141 -0.2133
54268W        W55132  17.280  11.300   7.082 -0.3220  0.1167  0.0525
54269W        W55133  17.182   4.836  11.453 -0.0796  0.0159  0.0437
54270W        W55134   4.118   6.766   7.838  0.0186  0.1425  0.2713
54271W        W55135   5.832   5.567   1.218 -0.2639  0.2098  0.1451
54272W        W55136  21.762   5.820  22.518  0.2033 -0.1629 -0.0269
54273W        W55137  12.793  20.376  13.234  0.3154  0.1238 -0.2661
54274W        W55138   4.842  10.839   7.485  0.0111  0.2545 -0.0308
54275W        W55139  13.295   4.166  15.115  0.0795 -0.1496 -0.0744
54276W        W55140   5.714  26.117  11.042 -0.0751  0.0624 -0.0667
54277W        W55141   3.328  23.882   1.862  0.1030 -0.0275 -0.1397
54278W        W55142   2.897  28.689   5.718 -0.3404 -0.2338  0.0079
54279W        W55143  28.689   5.455   2.518 -0.3775 -0.1226 -0.0448
54280W        W55144  27.558   4.154  18.206 -0.3061 -0.2249  0.0202
54281W        W55145   2.418   1.797   2.250 -0.0205 -0.2554  0.1437
54282W        W55146   1.912   5.478  27.726  0.1712 -0.0382  0.3975
54283W        W55147   1.969   9.673  28.733 -0.1331 -0.0178 -0.1089
54284W        W55148  17.534  21.488  27.469 -0.3043  0.0537  0.1443
54285W        W55149  28.420   3.412   8.676  0.0330 -0.0366 -0.0033
54286W        W55150  25.171   4.027  26.696  0.1801 -0.0341 -0.1036
54287W        W55151  15.600   0.415  19.284  0.2328 -0.1946 -0.2989
54288W        W55152  18.984  12.741  21.752 -0.1616 -0.2198 -0.1865
54289W        W55153  24.036   2.352  12.489 -0.2410  0.2894 -0.1265
54290W        W55154  10.983  14.347   5.644 -0.1372 -0.1372  0.1565
54291W        W55155  24.319  24.062   7.319 -0.2488  0.1397 -0.0225
54292W        W55156  24.132  15.819  10.796  0.0272 -0.0863  0.0011
54293W        W55157   4.755  28.672   0.526 -0.0685  0.3039  0.1283
54294W        W55158  17.529  20.431   2.787 -0.5071  0.0668  0.0861
54295W        W55159  13.728  25.014   8.544  0.0089 -0.0193  0.1632
54296W        W55160  13.984  11.567   0.296 -0.2681 -0.2429 -0.0010
54297W        W55161   5.951  23.614   2.719 -0.0527  0.0407 -0.1356
54298W        W55162   2.242   3.830  10.821 -0.1200 -0.0264 -0.0763
54299W        W55163  23.054  11.770  26.610 -0.1912  0.1295  0.2582
54300W        W55164   6.348   5.415   3.751 -0.0228  0.0396 -0.1678
54301W        W55165   6.118   4.389  18.627 -0.0436 -0.0230 -0.2030
54302W        W55166  27.703   5.003  20.319 -0.1885  0.1423 -0.1955
54303W        W55167   1.080  11.112  14.676  0.2313 -0.4600  0.2273
54304W        W55168  22.455   3.106   1.148 -0.2423  0.2066 -0.1582
54305W        W55169  22.632   7.220   2.488  0.0153  0.0605  0.3290
54306W        W55170  11.794  22.141  13.055  0.1488  0.0855 -0.1397
54307W        W55171  10.631   3.501  25.435 -0.2565  0.2745 -0.1044
54308W        W55172   9.295  25.644  28.468 -0.1722  0.1995 -0.0963
54309W        W55173  15.718  29.133  23.355  0.1868 -0.2514 -0.2244
54310W        W55174   6.734  22.513   4.524  0.2027 -0.0134 -0.0022
54311W        W55175  20.200   6.997   6.431 -0.0550  0.1675 -0.1992
54312W        W55176   9.711  25.489   3.303 -0.0448  0.0105  0.1664
54313W        W55177  26.846  22.389  19.861 -0.0255 -0.0263  0.0362
54314W        W55178   5.179   5.701  11.279  0.3786 -0.4327  0.2125
54315W        W55179  12.369   0.024   3.168 -0.1536  0.1080  0.2556
54316W        W55180  15.640   1.749   8.323 -0.0978 -0.1988 -0.0338
54317W        W55181  26.494   2.641  17.906 -0.0300 -0.0836  0.3578
54318W        W55182  10.880  15.580  12.969  0.3114 -0.0297 -0.0825
54319W        W55183   7.953   1.842   9.571 -0.1944 -0.1017  0.0072
54320W        W55184  15.059  13.062  25.413  0.2798 -0.4605 -0.0625
54321W        W55185  12.547  26.077   7.234 -0.0022  0.1660  0.0948
54322W        W55186   8.213   7.951   7.854 -0.0144 -0.0360  0.0447
54323W        W55187  14.153  23.830   2.923 -0.1149 -0.1578  0.0654
54324W        W55188  14.937   7.147  27.674  0.1846  0.1731  0.0459
54325W        W55189  16.174  12.356  27.834  0.3478 -0.0967 -0.1074
54326W        W55190  22.694   5.109  12.541 -0.2070  0.5004  0.0776
54327W        W55191  22.650  18.081  11.735 -0.0851  0.0472  0.2278
54328W        W55192  23.061  17.381   7.953  0.0535 -0.0814 -0.2515
54329W        W55193   9.322  24.701  28.321 -0.1967 -0.2374 -0.2866
54330W        W55194   1.169   7.407   7.451  0.0748 -0.0147  0.3189
54331W        W55195  16.892  24.173   9.454 -0.0664  0.0038  0.0383
54332W        W55196   1.073   0.405   0.456 -0.0637  0.1107  0.1694
54333W        W55197  24.760  16.063  22.476 -0.2776  0.0017  0.2460
54334W        W55198  18.907  26.386  14.755  0.0556 -0.0108  0.0653
54335W        W55199  19.744  22.290  23.251  0.0478 -0.0407 -0.0160
54336W        W55200  27.229  16.134  20.562  0.0006  0.0064  0.2334
54337W        W55201   2.801   8.117  15.603 -0.1228 -0.1572 -0.0835
54338W        W55202  27.701  22.833   9.573  0.1904  0.1254  0.0969
54339W        W55203  26.481  18.239   0.546  0.3857 -0.1974 -0.0921
54340W        W55204   6.027   7.295  26.643 -0.1066 -0.1347  0.0808
54341W        W55205  11.352   7.532   5.664 -0.0321 -0.3158 -0.0224
54342W        W55206  26.537  12.063   7.258  0.0686 -0.0754 -0.1796
54343W        W55207  24.538  27.994   8.166 -0.1364 -0.1353 -0.3823
54344W        W55208   4.777  25.659   0.486  0.1350 -0.1222 -0.4710
54345W        W55209  28.421  16.591  26.727  0.1130  0.0317 -0.1847
54346W        W55210  23.818   4.499   2.433 -0.1585 -0.1407  0.1683
54347W        W55211  23.049  14.178  12.261 -0.2007 -0.2068 -0.0044
54348W        W55212  28.880  24.954  21.364 -0.2114  0.0787  0.1315
54349W        W55213  13.739  25.630  19.116  0.1212  0.1533  0.0837
54350W        W55214  20.238   4.946   3.586 -0.2674  0.2455 -0.1239
54351W        W55215   6.653   6.372  25.633 -0.1168 -0.0959 -0.0438
54352W        W55216  14.328   3.180  28.741 -0.0149  0.0640  0.1615
54353W        W55217   0.472   7.385  22.777 -0.3436 -0.0900  0.2764
54354W        W55218   8.259   7.604  26.592  0.1418 -0.1218  0.0057
54355W        W55219   7.502  14.175   4.049  0.5117  0.0951  0.0094
54356W        W55220  15.257   6.329  21.579 -0.0583  0.1616 -0.2102
54357W        W55221  26.772   1.380   2.001  0.3518 -0.0389  0.4886
54358W        W55222  20.007   6.118  13.457  0.0487 -0.0330  0.2612
54359W        W55223  13.641   8.549  19.846  0.1393  0.1130 -0.1655
54360W        W55224   8.751  24.466   7.796  0.2771 -0.1592  0.0863
54361W        W55225  21.653   5.592  22.021  0.0397  0.1523  0.0840
54362W        W55226   8.017  14.726   3.950 -0.2947 -0.2158  0.1571
54363W        W55227  28.181   4.760   5.941  0.2841 -0.3183  0.3308
54364W        W55228  28.101  28.972  25.981  0.0737 -0.1670  0.2909
54365W        W55229  16.812   9.700  17.162  0.0447 -0.3145  0.0034
54366W        W55230  23.855  12.128   3.655 -0.1288 -0.1964  0.0752
54367W        W55231  27.229   3.424  12.228  0.2727 -0.2520 -0.0776
54368W        W55232  10.082  10.603  25.426 -0.1102 -0.0507 -0.3001
54369W        W55233  24.586   1.024   1.838 -0.1378  0.1798  0.1296
54370W        W55234  27.394  17.986  14.229 -0.0786  0.0037  0.1692
54371W        W55235  19.625  27.942   9.935  0.0034  0.2933  0.1383
54372W        W55236   0.591   4.006   5.154  0.1155 -0.3295 -0.2423
54373W        W55237  14.181  23.640   1.276 -0.2440 -0.2751  0.0814
54374W        W55238  11.159   8.688  19.368  0.3444 -0.2465 -0.0505
54375W        W55239  24.305  12.869  21.979  0.0515  0.0048 -0.4344
54376W        W55240  28.343   4.453  20.145 -0.3235  0.1497 -0.0059
54377W        W55241   4.524  17.672   7.004 -0.1002  0.0809 -0.2988
54378W        W55242  15.387   3.735  16.458  0.1633  0.0571 -0.0573
54379W        W55243  18.228  16.960  17.488 -0.1465  0.0028 -0.0981
54380W        W55244  11.642   4.959  25.324 -0.1181 -0.2262 -0.1921
54381W        W55245   1.071  25.187  17.354 -0.0352 -0.2088  0.1356
54382W        W55246   2.700  28.276  14.984  0.2380 -0.0723 -0.0829
54383W        W55247  28.922   9.472   6.278  0.2035  0.1296 -0.2607
54384W        W55248  22.261   2.111  14.046 -0.2182 -0.2506 -0.0855
54385W        W55249  14.057  14.619   9.213  0.2896  0.0265 -0.0762
54386W        W55250  26.255  17.821  15.749  0.3019 -0.2734  0.0562
54387W        W55251   0.026   2.935  10.699 -0.4395 -0.1590  0.0137
54388W        W55252   0.204   2.300  19.548 -0.0419 -0.0257 -0.0668
54389W        W55253   1.462  11.799  14.389  0.2450  0.1127 -0.2702
54390W        W55254   8.435   1.927   6.018 -0.1384 -0.0258  0.1257
54391W        W55255   6.929  23.915   7.680  0.0344  0.0134 -0.0131
54392W        W55256  19.203  24.301   6.023 -0.0710 -0.1175 -0.1449
54393W        W55257   2.533   8.714  10.232  0.1685  0.0915  0.1611
54394W        W55258  24.200   2.738  27.369 -0.2913 -0.1802  0.2233
54395W        W55259  29.078   7.884  17.775  0.5183 -0.0165 -0.0932
54396W        W55260  12.710  17.716   5.540  0.2056 -0.2893  0.0207
54397W        W55261  25.194  18.897  27.536 -0.0845  0.1055 -0.0204
54398W        W55262  23.826   1.744  23.265 -0.0691 -0.2172  0.3673
54399W        W55263  20.829   5.125  18.880  0.0796  0.2823 -0.3198
54400W        W55264   3.323   9.428  14.182  0.2202  0.1649  0.0572
54401W        W55265  23.946  16.136   1.421 -0.2754 -0.0961  0.0705
54402W        W55266   1.943  13.676   7.145 -0.1460  0.0640  0.0865
54403W        W55267  13.155   2.253   1.082  0.2011  0.0890  0.0265
54404W        W55268  17.199   1.267   7.077  0.0670 -0.2187 -0.0018
54405W        W55269  19.869  27.296  28.527  0.0256 -0.0078 -0.0131
54406W        W55270  17.780  19.434  26.846  0.0024  0.3096 -0.0078
54407W        W55271  24.344  26.237  20.569  0.2049  0.0848 -0.1753
54408W        W55272   9.843  27.297  13.278  0.0018  0.1501 -0.3109
54409W        W55273   7.261  21.442  12.897  0.0099  0.0291  0.0977
54410W        W55274  12.144  25.794  19.201 -0.0832  0.3475 -0.2155
54411W        W55275  16.717  28.067   6.752  0.0694  0.2100  0.1830
54412W        W55276  27.169  20.483   8.476  0.2858  0.1124  0.2855
54413W        W55277  21.125  11.225   9.351  0.1774 -0.1861  0.1276
54414W        W55278  27.782  12.590  26.788 -0.1993  0.0969 -0.3349
54415W        W55279   2.616   4.140  11.666  0.2426  0.0135 -0.3333
54416W        W55280  14.894  25.134  18.430 -0.1997 -0.1885 -0.4134
54417W        W55281   1.564  26.095  10.618  0.0998 -0.1463  0.1286
54418W        W55282   9.931  15.137  14.462  0.2008  0.3103  0.0532
54419W        W55283   0.442   1.642  27.464 -0.1216  0.0084  0.1347
54420W        W55284  26.716  20.140  12.965 -0.0765  0.3211 -0.0540
54421W        W55285  24.274  17.191  19.037 -0.2011  0.0264  0.0584
54422W        W55286  23.856  28.227   7.215  0.1822  0.0162 -0.1296
54423W        W55287  28.815  26.186  18.104 -0.0988  0.0668  0.0224
54424W        W55288  28.331  22.222  25.368 -0.1596 -0.1931 -0.0773
54425W        W55289  21.610   0.645  14.208  0.1864 -0.0808 -0.2246
54426W        W55290  27.160  11.266   8.307  0.1647 -0.1675 -0.0991
54427W        W55291  15.265  18.267  11.665 -0.1137 -0.0042  0.2716
54428W        W55292  17.671  18.454  27.360 -0.3147 -0.0795 -0.0762
54429W        W55293  23.362   5.521  20.911  0.1680 -0.0002  0.1613
54430W        W55294  15.935   2.757  11.404 -0.0731  0.1831 -0.0902
54431W        W55295   8.249   0.955   9.714  0.0700  0.2508 -0.2351
54432W        W55296  24.888  28.179   5.285  0.0975 -0.1776 -0.1641
54433W        W55297  10.601  21.980   1.441 -0.1970 -0.1374 -0.1630
54434W        W55298   6.392   0.022  12.345 -0.2224 -0.1483 -0.1721
54435W        W55299  13.091   1.171  28.855 -0.0625 -0.0460 -0.0375
54436W        W55300   9.225  12.932  10.935  0.0386  0.0081 -0.0100
54437W        W55301   7.337   5.509  24.592 -0.0969  0.1968  0.0570
54438W        W55302  27.135  24.909   0.918 -0.0207 -0.0317 -0.0388
54439W        W55303  12.858  26.833  26.550 -0.0975  0.1227  0.1598
54440W        W55304  21.216  12.802  11.647 -0.4077 -0.0242  0.2961
54441W        W55305  15.558  20.406   3.901 -0.0293  0.0591 -0.2099
54442W        W55306  27.584  28.200  27.184 -0.0317  0.1910  0.1201
54443W        W55307  17.664   6.159   7.954  0.0845 -0.1428 -0.0992
54444W        W55308  22.350   3.784   2.671  0.1525 -0.0084 -0.0187
54445W        W55309  11.183   8.569  20.812  0.0268 -0.3972  0.3057
54446W        W55310   2.131   5.226   4.262  0.0924 -0.0853 -0.3868
54447W        W55311  24.343  14.059  19.190 -0.4692  0.0537 -0.3393
54448W        W55312   3.093  23.451   0.019  0.2129  0.2819 -0.3713
54449W        W55313   3.383  27.824   0.223 -0.0252  0.0097  0.1597
54450W        W55314   1.782  14.079   6.360  0.0072 -0.1919  0.1902
54451W        W55315  10.907  28.050  20.366 -0.0946 -0.0019  0.0848
54452W        W55316  22.806  11.809  12.414  0.1234 -0.1782 -0.2245
54453W        W55317  25.142  17.860  15.297  0.0376 -0.2710  0.1211
54454W        W55318   2.170  14.910   3.956 -0.0537  0.1953 -0.0364
54455W        W55319   4.281   8.080  28.745 -0.0837  0.0511  0.1950
54456W        W55320  15.662  17.798  10.060 -0.1128 -0.0253 -0.3177
54457W        W55321   1.862  24.423  21.056  0.0204  0.0672  0.1841
54458W        W55322  27.663   2.029  13.852 -0.0458  0.0132  0.1960
54459W        W55323  23.713   5.928  12.906 -0.0456 -0.2980 -0.0744
54460W        W55324  29.003  27.856   2.996 -0.0179  0.0344  0.0386
54461W        W55325  27.490   5.279   8.550 -0.0986 -0.4808  0.3628
54462W        W55326   5.431  17.131   9.407 -0.0672 -0.1375 -0.0234
54463W        W55327  22.401   7.640  27.576 -0.2367 -0.1640  0.1073
54464W        W55328   8.004   2.476  24.854  0.1559  0.0355 -0.3149
54465W        W55329  28.278  14.745   1.523  0.1730  0.0748  0.3086
54466W        W55330   1.873  11.732  18.323  0.0658 -0.1563 -0.2615
54467W        W55331  18.668   0.096   4.082  0.0758 -0.2421  0.1552
54468W        W55332  27.860   4.657  19.349  0.1309 -0.0080 -0.3299
54469W        W55333  27.311   1.991  28.755  0.3675 -0.2550  0.3147
54470W        W55334  23.472  25.077  11.920 -0.2283 -0.0598  0.3549
54471W        W55335  24.773   5.881   5.508  0.1637  0.1367 -0.1466
54472W        W55336  18.820  10.528  23.000 -0.0177 -0.3354 -0.1127
54473W        W55337   6.784  22.107  15.470  0.0722 -0.1192  0.1238
54474W        W55338  18.180   7.554  22.380 -0.0757 -0.4384 -0.1514
54475W        W55339   8.074  19.316   0.956  0.0832  0.0833 -0.3526
54476W        W55340  16.843   5.070  14.005  0.0198 -0.0621  0.3511
54477W        W55341  27.708  26.486   0.812  0.2618 -0.1088 -0.1214
54478W        W55342  21.075  15.701   4.743 -0.2206  0.0341 -0.2738
54479W        W55343  28.829  12.826  25.493  0.1108  0.3080 -0.0100
54480W        W55344  12.076   8.914  20.660 -0.2653  0.0412 -0.1574
54481W        W55345  18.442   1.572   0.729  0.0944  0.1852  0.1170
54482W        W55346   3.928  24.936  13.138 -0.0105 -0.0405  0.1399
54483W        W55347   9.223  27.990  22.539 -0.3002  0.0011 -0.0156
54484W        W55348  27.890  23.560   2.186  0.2228 -0.2406  0.2005
54485W        W55349  21.752   7.931  26.115  0.3066 -0.1424 -0.0536
54486W        W55350  22.372  15.824   4.262 -0.0608 -0.0080 -0.2834
54487W        W55351   5.777   3.655  11.133  0.1619  0.1518 -0.2388
54488W        W55352  19.448   7.768   5.409 -0.2365  0.0048 -0.1050
54489W        W55353   1.278  24.088  11.090  0.1580 -0.4340 -0.0997
54490W        W55354   0.324  28.453  13.893 -0.0906 -0.2757  0.0832
54491W        W55355  25.137  13.133  20.903 -0.2244  0.1443 -0.0473
54492W        W55356  28.215   8.049  10.688  0.4194 -0.1895  0.1603
54493W        W55357   0.031   6.380  27.509  0.0013 -0.1932 -0.2697
54494W        W55358   3.557  26.526  28.649  0.2624  0.2704 -0.0210
54495W        W55359   9.335  26.049   5.828  0.4880 -0.0398  0.3548
54496W        W55360  13.636  13.171   5.266 -0.0543 -0.0983  0.1598
54497W        W55361  23.847   3.653  26.320  0.1181  0.0746 -0.1218
54498W        W55362   1.807  15.857   7.138  0.0500 -0.1451  0.4535
54499W        W55363  10.473  21.791   7.397 -0.0781  0.0271 -0.1126
54500W        W55364  25.898  24.628   3.450  0.0797  0.2163 -0.2769
54501W        W55365   1.857   9.652   4.985  0.0369 -0.1132 -0.0007
54502W        W55366  10.520  18.102  25.087 -0.1581 -0.1652  0.2032
54503W        W55367  14.386  15.513  20.582  0.2426  0.0364  0.0843
54504W        W55368   1.985   4.842  28.587 -0.2969  0.2786  0.2339
54505W        W55369  21.982  23.214   8.002 -0.0594 -0.0898 -0.0046
54506W        W55370   1.555   0.052   1.632  0.0993  0.2095  0.4187
54507W        W55371   3.404   1.453  11.635  0.2431  0.0522  0.3000
54508W        W55372  27.709  11.855   2.124  0.3181  0.1680 -0.0313
54509W        W55373  25.026   9.423   2.356 -0.2139  0.1194  0.0203
54510W        W55374  28.331   1.667  21.497 -0.3837  0.0353 -0.2885
54511W        W55375   9.643   6.061  27.856  0.1548  0.0788 -0.2434
54512W        W55376  15.123  20.501   0.865  0.0709 -0.3349 -0.0267
54513W        W55377  15.018  19.092  17.967  0.0773 -0.3488  0.1841
54514W        W55378  18.601   0.541  17.868 -0.1335  0.1762 -0.1494
54515W        W55379  15.162  26.348  28.586  0.1716 -0.0566 -0.0206
54516W        W55380  22.318   1.416  11.513 -0.0129  0.2857  0.1533
54517W        W55381  18.096   4.014  15.635 -0.0295  0.0587 -0.0319
54518W        W55382  28.073   8.811  23.453  0.1065 -0.3017  0.0469
54519W        W55383  23.709   5.222   6.941  0.1514 -0.0729  0.5128
54520W        W55384   4.073  26.380  13.264 -0.0023  0.0627  0.0137
54521W        W55385  10.574  12.984  19.283  0.0021 -0.0757 -0.0587
54522W        W55386   7.984   1.089  13.816 -0.0247 -0.0161 -0.0923
54523W        W55387   6.004   7.916   3.256 -0.1286 -0.3308  0.3241
54524W        W55388  26.962  10.796   4.765 -0.1820 -0.0248 -0.2049
54525W        W55389  10.754  22.125  11.891  0.0204  0.0687  0.1593
54526W        W55390  11.020   8.626  12.017 -0.0947  0.2615  0.1184
54527W        W55391  19.863  21.095   2.256 -0.0047 -0.3442 -0.2184
54528W        W55392  26.964   2.915   7.127 -0.0314  0.1436 -0.0182
54529W        W55393  20.985  26.349  12.215  0.1353  0.2798 -0.1232
54530W        W55394   3.708   3.509   5.454  0.2270 -0.3798  0.0528
54531W        W55395  18.886  12.159  12.206 -0.1911 -0.1685  0.2414
54532W        W55396  13.741  12.183  28.561 -0.3334  0.0508 -0.0017
54533W        W55397  19.310   1.245  11.467  0.0979 -0.1794 -0.1153
54534W        W55398  10.264  26.249   4.503 -0.0493  0.2422 -0.1258
54535W        W55399  23.433  12.308  26.773  0.1641 -0.1251  0.0158
54536W        W55400  15.975  28.776  24.123  0.0523  0.1286  0.1419
54537W        W55401  22.857  21.095   7.623  0.0746  0.0926 -0.1844
54538W        W55402  24.528  26.013  18.865  0.2362 -0.1765 -0.1001
54539W        W55403   6.585   8.412  14.344  0.1337 -0.1452  0.0065
54540W        W55404  11.338   0.774  16.308 -0.0902  0.0978  0.1307
54541W        W55405  20.077   3.335   2.255  0.5156 -0.0452 -0.2103
54542W        W55406  10.921  10.310   9.200  0.0669 -0.1003  0.0257
54543W        W55407  11.162   9.170  15.173 -0.0350 -0.1206 -0.0016
54544W        W55408   0.315  12.359   4.884  0.0231 -0.0708  0.0083
54545W        W55409  27.081  11.986  12.649 -0.1768 -0.2767  0.0490
54546W        W55410  25.177  21.522  13.087  0.0952 -0.0670 -0.1499
54547W        W55411  27.326  17.285  12.772  0.2578  0.0601  0.1151
54548W        W55412  22.745   1.103   6.611  0.1321 -0.2671 -0.2031
54549W        W55413  18.010  24.414   8.899  0.1145  0.1806 -0.1921
54550W        W55414  17.486  22.035  11.104 -0.4151  0.1183 -0.0087
54551W        W55415  21.832  21.949  25.690  0.1037 -0.0200  0.2142
54552W        W55416  20.293  24.947   8.296 -0.2900 -0.1186 -0.0503
54553W        W55417  18.809  11.392  14.920  0.2418  0.1674 -0.0842
54554W        W55418   4.307   4.818   8.524  0.4345 -0.1103 -0.1601
54555W        W55419  15.717   6.834   3.784 -0.3461 -0.1424  0.0780
54556W        W55420   4.552   5.285  13.528 -0.0680  0.1243  0.2540
54557W        W55421  23.618   7.029   8.400 -0.1008 -0.1720 -0.0506
54558W        W55422   1.207   3.301  12.113 -0.0564  0.2690 -0.2148
54559W        W55423  21.367   4.460   9.638  0.0639 -0.1356  0.3544
54560W        W55424  17.621  28.298   6.331 -0.1136 -0.0165  0.0293
54561W        W55425  26.458  11.397   3.734  0.1040 -0.1441 -0.1596
54562W        W55426  17.912  17.809  20.021 -0.1971  0.0412 -0.0840
54563W        W55427  17.205   0.195   7.025  0.2789  0.1603  0.1022
54564W        W55428  25.354   4.772  10.993 -0.1585 -0.1811  0.1972
54565W        W55429   3.230  10.091  22.913  0.0083  0.1680 -0.1871
54566W        W55430   1.519  26.183  21.514 -0.2445 -0.0652 -0.0833
54567W        W55431   2.661   2.942  17.429 -0.1758  0.0905 -0.4711
54568W        W55432   5.251   7.051  10.695  0.4207  0.2215  0.0199
54569W        W55433  24.884  10.562  12.061 -0.0162 -0.1702 -0.1971
54570W        W55434  27.492  11.239  27.821  0.1337 -0.0512  0.0727
54571W        W55435   1.770   5.494   3.993  0.0244 -0.1274  0.2383
54572W        W55436  22.099  27.783   8.284  0.3150  0.1346  0.3522
54573W        W55437  26.862   2.494   9.415  0.0560  0.1332  0.4113
54574W        W55438  12.732  10.492  26.877 -0.1409  0.1289 -0.1892
54575W        W55439  26.411  25.594  17.225 -0.4224  0.2111 -0.2257
54576W        W55440   5.127  16.753  14.360  0.1641  0.2012 -0.0935
54577W        W55441  26.026   5.350  24.776 -0.0651  0.0955  0.3720
54578W        W55442  27.063  16.570   8.033 -0.1411  0.0743  0.0208
54579W        W55443   0.748  23.569  15.735 -0.0090 -0.2215 -0.2399
54580W        W55444   9.067  17.216   8.579 -0.1803 -0.2006 -0.1699
54581W        W55445  20.288  15.098   2.067  0.4037  0.1879  0.0814
54582W        W55446  10.518  22.737  12.566 -0.2953 -0.1634 -0.0623
54583W        W55447  18.475   2.410  24.745 -0.1102 -0.0914  0.3428
54584W        W55448  24.226  10.674  20.253 -0.2494  0.3336 -0.3003
54585W        W55449  24.174   6.332  14.264  0.2778  0.0072  0.2875
54586W        W55450  19.119  10.150  27.376 -0.1771  0.2335 -0.0720
54587W        W55451  18.714   3.334  10.814 -0.0259  0.0929 -0.3473
54588W        W55452  28.158  17.969   5.617  0.0779 -0.0351 -0.0770
54589W        W55453   0.273  16.197   1.688  0.1081 -0.0381  0.1931
54590W        W55454  11.689   5.715  26.099 -0.0268  0.0717 -0.0799
54591W        W55455  23.085  28.466   8.472  0.0758 -0.0415 -0.1544
54592W        W55456  22.423  27.971   6.563 -0.0658 -0.2203  0.2043
54593W        W55457   5.589  11.819   5.184  0.0201  0.0636 -0.0990
54594W        W55458  10.287  13.966   0.355 -0.1513  0.1577  0.0467
54595W        W55459  17.618  21.114  20.499 -0.1158  0.2824 -0.1451
54596W        W55460   3.042  15.863  27.168  0.0162  0.3359 -0.1717
54597W        W55461   3.685  22.411   8.884 -0.1361 -0.0564  0.0640
54598W        W55462  16.860  13.274   4.411 -0.1499  0.1046 -0.1368
54599W        W55463  18.763   2.790  17.155 -0.1506  0.0009 -0.2581
54600W        W55464  23.119  13.019  14.157 -0.1417  0.1747  0.1006
54601W        W55465   4.557  22.040  18.250  0.1374 -0.3132  0.0018
54602W        W55466   2.775  10.119   0.950  0.0839 -0.2401 -0.0336
54603W        W55467  24.508  24.946  16.054 -0.1507 -0.3552 -0.1363
54604W        W55468  11.512   1.009   1.912 -0.2082 -0.1857  0.0786
54605W        W55469  10.936   5.866  14.226 -0.0839 -0.0737  0.3254
54606W        W55470   0.227  12.263  26.679  0.0931  0.0248 -0.1244
54607W        W55471  11.276  16.768  14.395  0.1096  0.2765 -0.0640
54608W        W55472  13.223   3.435   7.772  0.0178  0.0792 -0.2902
54609W        W55473   9.278   4.252  10.092 -0.1062  0.0399  0.0494
54610W        W55474  10.497  23.689  10.070  0.0298 -0.1208  0.0813
54611W        W55475  27.184   4.832  14.303  0.0094  0.0152  0.5656
54612W        W55476  14.331  12.410   1.180  0.3481 -0.2485 -0.0764
54613W        W55477  15.536  19.075  10.294 -0.0156  0.1746  0.0814
54614W        W55478  11.836  22.014  23.591 -0.2141 -0.3174  0.2310
54615W        W55479   4.525  24.326  28.294 -0.1812 -0.2581  0.0142
54616W        W55480   0.792  16.978   1.340  0.1488 -0.0663 -0.0034
54617W        W55481  24.726  26.487   9.431 -0.2020 -0.2372  0.0963
54618W        W55482  10.890  14.599   1.559  0.3204  0.0158 -0.1147
54619W        W55483  18.890  19.663  22.464 -0.0500  0.5759 -0.0185
54620W        W55484   0.142   4.489  27.895 -0.0523 -0.1105  0.0763
54621W        W55485  18.105   6.623  14.636 -0.2860 -0.1265  0.0055
54622W        W55486  20.976   2.768  13.782 -0.2288  0.1453 -0.0041
54623W        W55487  11.203   6.071  16.304  0.3540 -0.1599 -0.2554
54624W        W55488  27.973  14.551  22.133 -0.2038  0.2472 -0.2477
54625W        W55489  23.307  24.618   8.207 -0.1874  0.2299 -0.0076
54626W        W55490   5.659   2.882  18.042  0.1344  0.5063  0.1145
54627W        W55491  17.859   8.810  12.207  0.0928 -0.1409 -0.0760
54628W        W55492   2.150   1.945   9.949  0.0755  0.0408  0.2101
54629W        W55493   6.892   8.895  22.178  0.1970 -0.0470 -0.1727
54630W        W55494   7.351  15.387  19.696  0.2656 -0.2612  0.2547
54631W        W55495  24.732   8.228   5.223  0.1444 -0.3497 -0.1522
54632W        W55496  28.404  14.269   6.518  0.2560  0.1284  0.0755
54633W        W55497  25.793   7.304   9.843 -0.0511  0.2766  0.0862
54634W        W55498  12.889  21.274  11.284 -0.0914  0.3548 -0.2826
54635W        W55499   8.587   6.841  17.160 -0.0276 -0.1231 -0.2207
54636W        W55500   7.783  24.409  17.773 -0.2984  0.1939 -0.0823
54637W        W55501  24.677   3.491  16.769 -0.0183 -0.1513  0.0349
54638W        W55502  20.103  22.493  22.746 -0.0682  0.0981  0.4298
54639W        W55503   4.155   7.289   5.811 -0.2207  0.0874  0.0504
54640W        W55504  20.657   2.042   0.294 -0.1450 -0.2990 -0.2503
54641W        W55505   5.341  11.059  20.553 -0.0573  0.0261  0.2261
54642W        W55506  16.419  10.512  22.454 -0.1907  0.1049 -0.0519
54643W        W55507   5.699  27.173   3.178  0.1200  0.0301 -0.1081
54644W        W55508   1.014   0.073   6.791 -0.1215 -0.2414  0.0487
54645W        W55509  13.092  24.497  28.852  0.0315  0.1552 -0.0083
54646W        W55510   0.591  15.403   3.633  0.1320  0.1737 -0.1124
54647W        W55511  26.447  24.549  16.130  0.0170  0.1377  0.1544
54648W        W55512  12.581  13.563   8.787  0.1134  0.0202 -0.0507
54649W        W55513   9.410   8.445  16.724  0.0458  0.2373 -0.0805
54650W        W55514  20.924  13.049  26.587  0.2240  0.1873  0.1491
54651W        W55515  26.544   9.876  14.130  0.1859  0.2040  0.1453
54652W        W55516  12.746  14.932  22.783  0.0285  0.2697  0.1485
54653W        W55517  17.803  18.506  26.317  0.2023 -0.1216  0.3206
54654W        W55518  25.857  28.067   5.102  0.1773  0.0380  0.0071
54655W        W55519   3.893  28.378  13.906  0.2241  0.0319  0.3279
54656W        W55520  22.547  21.049   8.587 -0.0527  0.2122 -0.0375
54657W        W55521   2.608  20.549  10.232  0.1048  0.1266 -0.2943
54658W        W55522  20.714   3.110   3.745 -0.0521  0.1030 -0.2146
54659W        W55523   7.156   6.098  10.683  0.0802 -0.0289  0.0450
54660W        W55524  10.012  24.743  19.624 -0.1755 -0.0352 -0.0938
54661W        W55525  28.401   1.292  20.081  0.2354 -0.2122  0.1141
54662W        W55526  18.891   2.646  26.880  0.0491  0.0838 -0.0753
54663W        W55527  18.071  28.521  14.795 -0.3439  0.0887 -0.1462
54664W        W55528  10.326  16.934  10.520 -0.1084 -0.1995  0.1248
54665W        W55529  28.350   9.176  19.652 -0.0142 -0.0808  0.0539
54666W        W55530  18.245  26.512  14.067 -0.2528 -0.2936 -0.0852
54667W        W55531   9.101   5.050  21.825  0.2973 -0.0512  0.1893
54668W        W55532  10.144  21.342  28.559 -0.1363 -0.0128 -0.2778
54669W        W55533  23.718   4.652  15.345 -0.3130 -0.0723  0.1179
54670W        W55534   0.780  23.112  15.675  0.1696  0.0347  0.0067
54671W        W55535  28.864  26.145  16.765 -0.0740 -0.0045  0.0459
54672W        W55536  11.850   1.008  24.441 -0.1450 -0.1503 -0.0981
54673W        W55537   0.122  20.060   9.051  0.0205  0.0845 -0.0422
54674W        W55538  13.817  12.238  19.385 -0.0386  0.1952  0.5182
54675W        W55539  24.989  21.992   7.426 -0.1007  0.0494  0.0912
54676W        W55540  23.437   7.829   6.936 -0.1811  0.5003  0.0539
54677W        W55541  14.315  23.766  10.101  0.0706  0.1273  0.1892
54678W        W55542   2.754  25.444   7.523  0.2212 -0.2250  0.0311
54679W        W55543   9.878  28.182  11.586  0.0150  0.1518 -0.2878
54680W        W55544   0.176  13.540   1.711 -0.2760  0.0382 -0.0994
54681W        W55545  20.375   1.906  11.811 -0.1557 -0.0659 -0.1249
54682W        W55546   3.397   1.239   6.393  0.0765  0.1916 -0.1413
54683W        W55547  18.432  12.160   2.416 -0.0545 -0.0641  0.0596
54684W        W55548  19.805   7.174  14.899  0.1473  0.0957  0.3576
54685W        W55549  23.722  25.683  27.606  0.0821 -0.1466  0.0021
54686W        W55550   5.262  28.101  20.452  0.1011  0.0781  0.2757
54687W        W55551  28.369  19.538  12.640  0.4376  0.1462  0.0273
54688W        W55552  28.602  27.818  13.678 -0.0575  0.2291 -0.3035
54689W        W55553  14.510   9.157  17.224 -0.0817  0.0798  0.2580
54690W        W55554  15.692  15.455  27.412  0.3087 -0.0612 -0.2869
54691W        W55555  29.102  21.794  25.385  0.0223 -0.0765 -0.0171
54692W        W55556   2.787  22.235  19.963 -0.0445 -0.1635  0.0891
54693W        W55557  18.655   1.908  20.719  0.1302  0.1092  0.3017
54694W        W55558   7.816   7.391  19.031 -0.3014  0.2782 -0.4753
54695W        W55559  21.961   4.525  11.599 -0.1450  0.2102  0.5196
54696W        W55560  23.674  14.106  17.884 -0.2943  0.0551 -0.2753
54697W        W55561  28.867   7.541  28.663 -0.3099  0.1208 -0.0446
54698W        W55562  14.920  25.144   1.497 -0.1086 -0.2880  0.1831
54699W        W55563  13.467   7.113  11.149 -0.0625 -0.1810 -0.1777
54700W        W55564  21.675  28.921  11.106 -0.1902 -0.2084  0.0808
54701W        W55565  21.104  16.333  11.318  0.2077  0.1085 -0.0192
54702W        W55566   8.097  20.237   8.942 -0.0602  0.1480 -0.0400
54703W        W55567  25.261   5.610   0.069  0.2738  0.4333 -0.0718
54704W        W55568  19.651  13.741  23.360 -0.1134 -0.0797  0.0791
54705W        W55569  22.767  18.186   8.876 -0.1372 -0.3943 -0.1039
54706W        W55570  18.180  11.125  19.789 -0.1428  0.1455  0.1439
54707W        W55571   6.506   1.284   3.470  0.3806  0.0890 -0.0511
54708W        W55572  13.688  28.183   0.616 -0.0327  0.1679 -0.3844
54709W        W55573  29.085   2.731  15.619  0.4455 -0.1541 -0.2470
54710W        W55574   3.057   1.561   3.935 -0.0158 -0.0973 -0.1137
54711W        W55575  16.467  24.285  26.190  0.3659  0.1332 -0.1867
54712W        W55576  25.701  14.137   3.618 -0.2966  0.0430  0.1156
54713W        W55577  20.776  20.240  17.552 -0.1259 -0.2117 -0.1658
54714W        W55578  17.751   3.265  27.402  0.2904  0.0671 -0.1921
54715W        W55579  24.047   5.035  12.077 -0.0866 -0.1921  0.1960
54716W        W55580  13.860  13.110   4.532  0.4266 -0.1238 -0.1912
54717W        W55581  25.377  26.134  15.383  0.1521  0.0403  0.3390
54718W        W55582   9.674  25.855  17.323  0.0002 -0.1607  0.2799
54719W        W55583   2.008   2.094   8.888  0.0650 -0.0582 -0.0967
54720W        W55584  12.442   6.989  18.853 -0.3181  0.0091 -0.0178
54721W        W55585  28.096  21.356   4.928 -0.0154 -0.1908 -0.1634
54722W        W55586  20.421   8.893   8.500  0.0999 -0.0395  0.1168
54723W        W55587  24.580  19.595   5.273  0.0872 -0.1520 -0.0065
54724W        W55588  28.780  19.806  13.075 -0.1085 -0.1099 -0.1137
54725W        W55589  15.720  24.788  25.404  0.0026  0.2901 -0.2080
54726W        W55590   1.444  23.020  26.055  0.1953 -0.1514 -0.1443
54727W        W55591  25.931   5.561   0.992  0.1913 -0.0829  0.3174
54728W        W55592  19.885  19.294   9.738 -0.1872  0.2075  0.2165
54729W        W55593   2.615   5.837  21.602  0.0106 -0.1585 -0.0255
54730W        W55594  16.638  28.588  25.948  0.2679  0.4738  0.1448
54731W        W55595  27.269  27.659  12.478 -0.0416 -0.1947  0.0530
54732W        W55596  19.163  14.067   8.487  0.3284 -0.1262 -0.1442
54733W        W55597  20.484  17.962  13.409 -0.1166  0.1883  0.0764
54734W        W55598  25.607  22.954  19.472  0.0047  0.0464 -0.0482
54735W        W55599  22.953  28.082   3.110 -0.2330 -0.1196  0.2229
54736W        W55600   8.368   2.336   9.969 -0.0985  0.0979 -0.4981
54737W        W55601  15.494  25.228  26.975 -0.3599 -0.0854 -0.0760
54738W        W55602   6.887   5.613  21.437 -0.0426  0.0916 -0.1986
54739W        W55603  23.772   1.722  26.446 -0.0760 -0.2198 -0.2399
54740W        W55604  19.562  11.079  10.159 -0.1210  0.1692  0.0824
54741W        W55605  12.573   3.379  11.834 -0.1317  0.1725 -0.0370
54742W        W55606  23.090   3.324   8.888  0.2366 -0.1027 -0.3432
54743W        W55607   3.912  23.994   8.298  0.1026 -0.3735 -0.1731
54744W        W55608   8.149  29.028   5.512  0.1245  0.1340 -0.3529
54745W        W55609  25.843  15.055   8.824  0.0210 -0.1372  0.0599
54746W        W55610   6.127  29.107   8.655 -0.1409 -0.2085  0.0200
54747W        W55611  12.932  27.747   5.184  0.1112  0.2058 -0.1714
54748W        W55612  14.254  13.202   2.472  0.2972  0.0678 -0.1087
54749W        W55613  20.292   3.331  12.746 -0.2002 -0.0293 -0.0589
54750W        W55614  22.770   8.919  24.667  0.1149 -0.1404  0.2389
54751W        W55615  24.786  24.268  13.848 -0.0643 -0.0483  0.1768
54752W        W55616  27.341  23.691   1.182 -0.0235 -0.2014  0.0025
54753W        W55617  16.975   4.716  22.638  0.0003 -0.1224  0.2288
54754W        W55618   5.220   4.783  12.578 -0.1026  0.1658  0.0311
54755W        W55619  21.316   7.445  16.388  0.1349  0.0891  0.3172
54756W        W55620   0.171  20.465   1.797 -0.2830 -0.0798 -0.2614
54757W        W55621  24.553  22.936  28.085 -0.0014  0.0761  0.2201
54758W        W55622  19.617  10.944   5.039  0.1936 -0.1560 -0.0576
54759W        W55623  22.498  27.879  12.603  0.0497  0.0071  0.0932
54760W        W55624  12.179  16.233  10.098 -0.0232 -0.0018  0.2266
54761W        W55625  23.887   3.131   2.263 -0.1686  0.0982  0.2037
54762W        W55626  22.759   7.049   7.389  0.0397 -0.0729  0.2383
54763W        W55627   1.982  21.779   2.202 -0.0387 -0.4621  0.1092
54764W        W55628  15.226   8.063  12.318  0.0761 -0.1688 -0.0207
54765W        W55629  26.155  28.578  27.063 -0.1466 -0.0648 -0.3024
54766W        W55630  16.554  10.798   7.256  0.1943  0.0082  0.2107
54767W        W55631   5.779  28.262   3.945  0.2148 -0.1627 -0.1319
54768W        W55632   8.647  13.417  13.578 -0.2073 -0.2176 -0.0140
54769W        W55633  11.859   9.937   3.167  0.1589 -0.0365  0.0787
54770W        W55634   8.902   6.669   9.333 -0.1627  0.2312 -0.1409
54771W        W55635   9.481  11.757  11.905 -0.0246  0.6547 -0.1884
54772W        W55636  23.055  12.315  19.486  0.0992 -0.2708  0.0523
54773W        W55637  24.985  19.245   3.287 -0.2833  0.0389 -0.3092
54774W        W55638  18.440  11.400   0.901 -0.0131 -0.1410  0.0888
54775W        W55639   0.053   7.846  22.758  0.0627  0.0748 -0.0169
54776W        W55640   0.840  16.954  15.986  0.1167  0.1442 -0.2070
54777W        W55641   3.857   0.136  27.116  0.1229  0.1275 -0.1814
54778W        W55642  16.232  25.107   0.157 -0.1216  0.2187 -0.1977
54779W        W55643  20.805  20.591  24.331  0.2583 -0.2070 -0.4142
54780W        W55644  11.579   6.085  22.834 -0.0447  0.2854 -0.0391
54781W        W55645  20.117  12.620  24.516 -0.1126 -0.1051  0.1355
54782W        W55646  23.033  19.495  23.204 -0.3075 -0.3920  0.0019
54783W        W55647  22.019  12.011  13.593  0.0097  0.1109 -0.2558
54784W        W55648  27.036  12.550  13.848 -0.0090 -0.3013 -0.1767
54785W        W55649  23.437  21.341  14.479 -0.1780 -0.1580 -0.1638
54786W        W55650  16.005   0.720  15.896 -0.0533  0.0404 -0.0594
54787W        W55651  25.116   7.249  11.946  0.1103 -0.0846 -0.0798
54788W        W55652  24.813  24.945  22.595 -0.2101 -0.0689  0.0255
54789W        W55653  17.071   5.940  12.708 -0.0127  0.1950  0.1980
54790W        W55654  12.232   5.339  19.789 -0.0205  0.0424  0.1738
54791W        W55655   2.920   1.530   9.996  0.2077 -0.0926  0.3030
54792W        W55656  16.287  23.585   9.155  0.0648 -0.0876  0.1808
54793W        W55657  26.880   6.489   7.537 -0.4416 -0.2909  0.0412
54794W        W55658  24.388   2.280  24.274 -0.1162  0.2341  0.1332
54795W        W55659  26.994  27.422  19.949  0.0854  0.4217 -0.0983
54796W        W55660  18.963  10.742  16.954  0.0812 -0.0242  0.0365
54797W        W55661  23.978   3.686  10.298  0.0459 -0.5087  0.0237
54798W        W55662  23.209  19.374  24.160 -0.2903  0.2459 -0.1750
54799W        W55663   4.970   5.110   7.772  0.0317  0.1716 -0.3039
54800W        W55664  13.419   0.786  24.268  0.0325 -0.0541 -0.1678
54801W        W55665  10.010   3.371  26.224  0.1378  0.1135 -0.0556
54802W        W55666  17.013   8.483   2.148 -0.0371  0.1252 -0.2858
54803W        W55667  29.093  19.491   4.438  0.0234  0.2395 -0.0309
54804W        W55668  20.101  23.758  20.567  0.2290 -0.2445  0.0368
54805W        W55669   6.780  23.558  10.405 -0.0926  0.0286 -0.4286
54806W        W55670   1.777   9.009  10.224  0.3132 -0.0201  0.0536
54807W        W55671   7.589   4.729   1.103 -0.0867  0.1762 -0.0031
54808W        W55672  28.877  13.095   7.907  0.0480 -0.1248  0.1182
54809W        W55673  28.373  21.660  26.036  0.0631  0.0230 -0.1345
54810W        W55674  24.218   6.393  17.780  0.1750  0.0256 -0.2399
54811W        W55675  28.961  12.005   2.536  0.0090 -0.4242  0.3395
54812W        W55676  24.261  16.010  26.982 -0.4015  0.2453 -0.1780
54813W        W55677  26.253   0.265  21.754 -0.0259  0.0598  0.2669
54814W        W55678   3.276   0.153  12.750  0.0164  0.2141  0.1056
54815W        W55679  28.347   5.859  25.791  0.2036 -0.2329  0.0737
54816W        W55680  15.415   4.383   8.714  0.1323  0.0776 -0.1981
54817W        W55681   7.817  25.095  13.954  0.2285  0.0157 -0.1513
54818W        W55682  25.746   2.000  12.781 -0.0169  0.2573  0.1989
54819W        W55683   9.521  14.055   7.492 -0.0084 -0.1694 -0.4242
54820W        W55684  18.120  21.040   2.083  0.0332  0.0076  0.3963
54821W        W55685  17.177  27.536  26.410  0.0622  0.0626 -0.2943
54822W        W55686  22.198   8.991  27.410  0.0036  0.0494  0.1269
54823W        W55687  21.655  17.318  16.510  0.1167 -0.0353 -0.1099
54824W        W55688   6.033   8.082   1.802  0.1722 -0.0206  0.3978
54825W        W55689   5.848  20.943  28.572  0.2241  0.0388 -0.1118
54826W        W55690  11.094  11.833  27.300 -0.1396  0.3505 -0.1452
54827W        W55691   2.124  19.159  24.631  0.2747  0.1764  0.0225
54828W        W55692   0.251  26.966   2.036 -0.2040 -0.2061  0.1061
54829W        W55693   2.132  13.330  22.261 -0.2552 -0.2435 -0.0597
54830W        W55694  20.065  15.441  12.847  0.1811 -0.2116  0.4941
54831W        W55695  21.797   4.483   8.671 -0.1560  0.1276  0.0445
54832W        W55696  15.305  19.264  11.652 -0.0287  0.0710  0.0303
54833W        W55697  21.814  12.321  19.932 -0.0990  0.1935 -0.0921
54834W        W55698  16.367   0.276   5.343 -0.0871  0.2165 -0.0392
54835W        W55699   0.609  23.752  27.651 -0.0210 -0.0174 -0.0096
54836W        W55700   5.406  25.882  19.443 -0.1618 -0.2340  0.0672
54837W        W55701   3.057   4.085   3.307 -0.0732 -0.3077  0.1965
54838W        W55702  23.042  10.006   2.802 -0.2087 -0.2770  0.0720
54839W        W55703   9.318  18.615  14.819  0.4236  0.0437  0.0740
54840W        W55704  13.263  20.622   7.267 -0.1481  0.4759 -0.0674
54841W        W55705  14.182  26.923  26.449 -0.2460  0.3191 -0.0655
54842W        W55706   8.194   6.916   3.846 -0.3231 -0.1281 -0.2598
54843W        W55707   4.405   2.538  15.765  0.0293 -0.0390 -0.2165
54844W        W55708  19.630  20.433   8.282 -0.0752 -0.3108  0.0022
54845W        W55709  10.442  25.072  18.274 -0.1173 -0.0672 -0.1877
54846W        W55710  18.663   6.309  18.037  0.3120 -0.4831  0.0356
54847W        W55711   2.508  13.677   1.494  0.0932 -0.1609  0.0359
54848W        W55712  20.133   7.790  18.553 -0.2554 -0.0888 -0.1181
54849W        W55713  25.280   6.156  22.035  0.1479  0.0469  0.1043
54850W        W55714   4.012  15.839  20.620 -0.2048 -0.0911  0.0453
54851W        W55715  26.532   4.412  11.978 -0.1721 -0.3564  0.2094
54852W        W55716   4.374   3.672  16.407  0.1078  0.1525  0.0279
54853W        W55717  26.001  24.376   7.676 -0.3164 -0.0672  0.0374
54854W        W55718   6.864  23.729  11.865 -0.1486 -0.2167  0.1648
54855W        W55719  26.018  26.221   9.842  0.2635 -0.0766  0.0180
54856W        W55720  14.195   0.856  14.864  0.0983  0.0494  0.4401
54857W        W55721  24.605   4.626  28.896 -0.0895 -0.0728 -0.0204
54858W        W55722  22.080   1.252  19.020  0.3058  0.3407 -0.1614
54859W        W55723   4.765  28.711   7.692  0.3679 -0.0740 -0.0849
54860W        W55724  14.774   2.585  12.871  0.2868 -0.1434  0.2736
54861W        W55725  18.915  23.254   0.037  0.1390 -0.0029  0.0494
54862W        W55726  21.509   5.007  13.116  0.2924 -0.0274 -0.0421
54863W        W55727  14.964   4.974  15.524 -0.3138  0.2526  0.0873
54864W        W55728   1.792  21.972  14.093 -0.2303  0.2177 -0.2211
54865W        W55729   2.946  10.760   9.006  0.0538 -0.0728  0.0388
54866W        W55730  27.585   5.184  28.881  0.0072 -0.0009 -0.1526
54867W        W55731  19.862   5.468  13.541  0.0645 -0.0524  0.2261
54868W        W55732   9.853  26.278  28.377 -0.0195  0.0375 -0.3905
54869W        W55733   6.815  23.013   5.442  0.2611 -0.2195  0.1360
54870W        W55734  26.628   6.727  16.646  0.2907 -0.0403 -0.3541
54871W        W55735  23.918   0.992  24.451 -0.0558  0.0983 -0.2456
54872W        W55736   2.404  12.236   0.158 -0.0769 -0.4421  0.2081
54873W        W55737   0.189   0.850  18.097  0.1085 -0.2611 -0.1849
54874W        W55738  21.737   3.918   2.937  0.1019  0.0810 -0.1573
54875W        W55739  16.967  23.862  16.921 -0.0703 -0.1308  0.0512
54876W        W55740  15.386   0.959  12.973 -0.0802  0.0387  0.5807
54877W        W55741  18.429   4.473  26.040 -0.0076 -0.1798 -0.2958
54878W        W55742   3.886  19.608  12.829 -0.4657  0.2695  0.1544
54879W        W55743  13.492  25.529  10.888 -0.0785  0.0277  0.1758
54880W        W55744   2.046  10.485   8.589  0.0179 -0.0988 -0.2809
54881W        W55745  24.102   7.159  10.827  0.1747  0.1763 -0.1549
54882W        W55746  22.502  27.120  10.827  0.1120 -0.0106  0.0008
54883W        W55747  12.317   9.977   1.875  0.1869 -0.0005 -0.2412
54884W        W55748  23.930   9.944   4.354  0.0574  0.3530 -0.2447
54885W        W55749  20.241  12.035  19.432 -0.0025 -0.3330 -0.0573
54886W        W55750  25.717   5.032   5.454 -0.0283 -0.0594  0.2177
54887W        W55751  12.297   2.266  25.586 -0.0079 -0.0555  0.0981
54888W        W55752  15.157  20.067  23.391  0.1224  0.2294 -0.0177
54889W        W55753   9.551   1.713  23.181 -0.2363  0.0191 -0.1185
54890W        W55754  20.659   0.814  19.331 -0.0120  0.1612 -0.0026
54891W        W55755  17.308  14.794  10.834  0.0255 -0.3324  0.1976
54892W        W55756  24.926  12.857  11.148 -0.2087 -0.1646  0.1801
54893W        W55757  24.767   8.044  20.360 -0.2396 -0.0137  0.4151
54894W        W55758   5.060  22.551  24.874 -0.1897  0.1566 -0.2455
54895W        W55759  26.305  28.254  16.027 -0.1965 -0.0278 -0.0441
54896W        W55760  23.611  25.192  12.380 -0.1017  0.0269  0.0330
54897W        W55761   9.265   5.782  13.291 -0.0836  0.2394 -0.1370
54898W        W55762  11.631  18.200  10.122 -0.3356 -0.1176 -0.0667
54899W        W55763  21.769  18.732  26.417 -0.3048  0.0317 -0.0914
54900W        W55764   2.843  19.878  18.321  0.1061  0.3663  0.1594
54901W        W55765   8.266   8.995  16.401  0.3986  0.0818 -0.1861
54902W        W55766  12.675  26.786  22.548 -0.0213 -0.4044  0.1302
54903W        W55767   6.403  21.365  11.556 -0.1928  0.0154  0.1829
54904W        W55768  28.860  19.871  27.398  0.1336  0.0950  0.0394
54905W        W55769  17.694  14.566   5.557 -0.0478 -0.2370 -0.0576
54906W        W55770   4.622   5.843  13.970 -0.0464 -0.2952  0.0531
54907W        W55771  11.838   0.255  11.556 -0.0803 -0.1577 -0.0183
54908W        W55772  17.559   6.815  15.818  0.2005  0.0770  0.0022
54909W        W55773  18.221   2.939  15.115 -0.1419 -0.1440 -0.2349
54910W        W55774  10.405  28.720  23.259  0.0028 -0.0929  0.0796
54911W        W55775   3.880  14.405  16.263  0.0498  0.2956  0.2608
54912W        W55776  20.293  12.564   6.718  0.0703 -0.1882  0.1108
54913W        W55777  23.573  17.084   9.898 -0.0195 -0.0419  0.1213
54914W        W55778   0.909  18.854   2.562  0.2010  0.1895 -0.1092
54915W        W55779  29.006  10.366  22.456  0.3999  0.2185  0.1094
54916W        W55780  28.048   4.972   9.241 -0.0325  0.1345 -0.1860
54917W        W55781   0.247  13.726   9.370  0.2006  0.0180 -0.0077
54918W        W55782  10.711   9.000  19.243  0.2160  0.3984 -0.0475
54919W        W55783  25.513  23.895   6.643  0.0357  0.1609 -0.1335
54920W        W55784  19.487  21.771  28.888  0.0301  0.0346 -0.1613
54921W        W55785   6.048   1.517  20.844  0.3291  0.0363 -0.0712
54922W        W55786  13.165   7.573  17.307 -0.1806 -0.0369 -0.1427
54923W        W55787   2.359   2.975  12.070 -0.0454 -0.0771  0.0717
54924W        W55788  14.472  16.749  26.866  0.2993 -0.1599  0.0747
54925W        W55789  18.910   3.989  28.223  0.1885 -0.0766 -0.1774
54926W        W55790   9.668   7.588  17.378  0.1126  0.0767  0.2040
54927W        W55791  15.810  19.077  22.698 -0.1845  0.0283  0.1326
54928W        W55792  27.884  28.678   2.512  0.0480 -0.2619  0.1655
54929W        W55793  20.507   8.991  24.083  0.1174  0.0190 -0.1621
54930W        W55794   3.926  12.343  27.233  0.3027  0.0397 -0.1187
54931W        W55795  17.666  19.954   1.379  0.1280  0.0825 -0.2859
54932W        W55796   0.048  21.319  16.814 -0.0943  0.0817  0.1085
54933W        W55797  23.732  18.166  14.270  0.2620  0.1109  0.0792
54934W        W55798   7.423  28.863  17.398  0.2118 -0.0035  0.2394
54935W        W55799  13.085  19.576  18.581  0.0331  0.0084 -0.0801
54936W        W55800  25.242  26.667  18.551  0.1225  0.0674  0.1673
54937W        W55801  25.088   0.653  21.101  0.4488 -0.1442  0.1495
54938W        W55802  18.718  14.380   8.147 -0.2714  0.2825 -0.1017
54939W        W55803   8.216  23.588  26.242  0.1814  0.0611  0.0429
54940W        W55804  10.441  14.586  24.272  0.1004 -0.0228  0.0708
54941W        W55805  25.436   6.662   8.133 -0.0142 -0.0832 -0.4601
54942W        W55806  13.375  25.556  14.196  0.2299 -0.1129 -0.5730
54943W        W55807  25.145  21.395  16.568 -0.1031 -0.0029  0.2088
54944W        W55808  20.237  11.677  12.523 -0.0856 -0.0687 -0.1247
54945W        W55809  22.501  23.766  28.868 -0.0332  0.1757 -0.1958
54946W        W55810  11.757   3.480  18.714  0.3558  0.0150  0.3892
54947W        W55811  18.320  26.238  18.433  0.3075  0.2496 -0.1473
54948W        W55812  18.937  22.808  27.409  0.0131  0.0618  0.4158
54949W        W55813  18.718   4.132   4.459  0.2606  0.1724  0.4662
54950W        W55814  17.358  20.644   9.526  0.0090  0.1191  0.0273
54951W        W55815  19.198   4.594   3.732 -0.0068 -0.0829 -0.0543
54952W        W55816  12.948  27.662  18.529 -0.0522 -0.2784  0.1484
54953W        W55817  25.898  19.716  15.823  0.0525  0.1542 -0.2037
54954W        W55818  15.088   2.601   6.177 -0.0158  0.0907  0.0959
54955W        W55819  25.537  15.939  16.450  0.0160  0.2010 -0.2721
54956W        W55820  23.504  24.628   7.695  0.0985  0.1244 -0.0386
54957W        W55821  18.742  23.595  16.390 -0.3157 -0.1258  0.5977
54958W        W55822  22.865   1.762  11.128 -0.2714  0.1149 -0.2381
54959W        W55823  21.375   2.832   8.704  0.1959 -0.3619 -0.0062
54960W        W55824   1.078  21.466   4.897  0.0459 -0.2381 -0.0935
54961W        W55825   5.022   7.434  21.636 -0.0242 -0.3743 -0.0611
54962W        W55826   0.689  15.233  13.760 -0.0629  0.3220  0.4494
54963W        W55827  16.693  18.929   6.654 -0.0552  0.4258 -0.1148
54964W        W55828   1.697  21.064  11.265 -0.0925 -0.0971 -0.1686
54965W        W55829  21.701  12.748  14.062 -0.2579  0.3167 -0.2792
54966W        W55830  25.706   8.886  16.446 -0.1690 -0.0226  0.0460
54967W        W55831   0.226  18.408  25.364  0.0066 -0.0609  0.0310
54968W        W55832  13.597  25.812  18.108  0.0171 -0.3734 -0.0075
54969W        W55833  23.445  13.778   9.079  0.2528 -0.2653 -0.1596
54970W        W55834  26.797  16.137  23.246 -0.1217 -0.0776  0.1190
54971W        W55835   6.394  17.049  10.883  0.0063 -0.2706 -0.2041
54972W        W55836   1.390   7.590  20.210 -0.0530 -0.2015 -0.2675
54973W        W55837   7.447  19.775  13.236  0.1843 -0.2031  0.3325
54974W        W55838   2.515  10.493   0.637 -0.0651  0.0113 -0.3316
54975W        W55839  22.636   9.579  14.354 -0.2455 -0.0930  0.2364
54976W        W55840  28.942  28.044  12.084 -0.0659 -0.1067  0.2605
54977W        W55841   7.498   6.082  26.734 -0.0677  0.1095  0.0703
54978W        W55842  27.596   2.292  20.185 -0.5689  0.0435  0.0928
54979W        W55843  19.228   6.529  21.573  0.0378  0.0664  0.1913
54980W        W55844   0.442  21.910  13.598 -0.0505  0.3860  0.4178
54981W        W55845  16.219   1.846  18.219 -0.1062 -0.0725  0.0820
54982W        W55846  25.605  16.578   6.205 -0.1414 -0.0434 -0.0589
54983W        W55847   8.589  24.784  12.586  0.2342 -0.2136  0.1201
54984W        W55848  29.070   5.828   5.103  0.1637 -0.2598 -0.0366
54985W        W55849  25.225  16.659  23.843 -0.1353 -0.0471  0.0712
54986W        W55850  14.210  28.951  27.144  0.2034 -0.0350  0.1522
54987W        W55851  18.690   2.152   0.177 -0.0490 -0.0315 -0.0804
54988W        W55852  20.524  15.896   8.007 -0.0342  0.2474 -0.0796
54989W        W55853  16.691   6.813  28.880 -0.0785  0.0513  0.1096
54990W        W55854   7.342  14.905  18.873 -0.0779 -0.1709 -0.0160
54991W        W55855  15.497   2.447  16.539 -0.1135 -0.0554  0.3185
54992W        W55856  26.330  28.240  11.868 -0.0147 -0.0923 -0.2923
54993W        W55857  27.912   8.991  25.516 -0.2877 -0.3687 -0.0374
54994W        W55858   1.186  10.823  23.722 -0.0788  0.2626  0.0981
54995W        W55859   5.487   0.250  16.624  0.1494 -0.1215  0.1059
54996W        W55860   5.778  18.919   6.562  0.0058  0.0528 -0.3141
54997W        W55861   9.064  19.433   3.149  0.2689 -0.1199 -0.5062
54998W        W55862  27.330  21.443   5.520 -0.0635 -0.0328  0.2271
54999W        W55863   5.382  27.796   5.474  0.1411  0.2756 -0.0112
55000W        W55864  23.313   3.006   5.249  0.3012  0.1667 -0.0457
55001W        W55865  21.102  14.746  16.569 -0.1524  0.0095 -0.1383
55002W        W55866  22.618   7.736  28.130 -0.0686  0.1169 -0.0848
55003W        W55867   5.428  17.250  18.838  0.0182  0.2635  0.0056
55004W        W55868  13.244   1.755   7.179  0.0451 -0.1285  0.1173
55005W        W55869  14.368   5.809  25.451 -0.0534  0.1526 -0.2295
55006W        W55870   6.116  16.342  16.696 -0.2051 -0.2335  0.1006
55007W        W55871  15.243   7.210  16.062  0.1079  0.0105  0.1233
55008W        W55872   0.143   6.337   0.114 -0.1668 -0.1873 -0.0593
55009W        W55873  26.894  28.386  18.976 -0.2895  0.1345  0.2093
55010W        W55874  15.061  26.999   9.045 -0.2128 -0.0793 -0.0148
55011W        W55875  27.804  18.747   1.333 -0.1161  0.2347  0.3956
55012W        W55876  12.433   3.593  12.986 -0.0709 -0.3425  0.2235
55013W        W55877  23.478  26.503  13.887  0.0497 -0.3473 -0.0059
55014W        W55878  21.617   2.104  22.679  0.3695 -0.0677  0.0715
55015W        W55879   1.957   1.400  16.564 -0.0541 -0.0547  0.2243
55016W        W55880  24.797  20.859  14.605 -0.0161 -0.1008  0.0597
55017W        W55881  17.095  28.286   1.499  0.2375 -0.1241 -0.2794
55018W        W55882  18.241  18.910  16.147 -0.1503 -0.0447  0.1308
55019W        W55883  18.392   1.674  17.711 -0.1796 -0.1210 -0.1262
55020W        W55884  12.705   5.684  15.003 -0.0759 -0.0787  0.1754
55021W        W55885   0.385  27.009  18.719 -0.0907  0.0451  0.0014
55022W        W55886   7.727  15.289  18.906  0.1546 -0.0874  0.1134
55023W        W55887  21.842   2.610  14.222  0.1987 -0.1275 -0.4278
55024W        W55888   9.704  12.823  15.434  0.2402 -0.1820 -0.2239
55025W        W55889  24.884   0.498   9.324  0.0499  0.1232  0.0277
55026W        W55890  16.521  17.651   7.419 -0.0060 -0.1977 -0.2687
55027W        W55891   1.565  22.720  21.784 -0.3125  0.0904 -0.1541
55028W        W55892  14.107  17.311  28.291  0.1429  0.0637 -0.0183
55029W        W55893  25.772   0.055   1.052  0.0121  0.1063  0.3622
55030W        W55894  18.953  15.559  10.188 -0.1399 -0.0753  0.1273
55031W        W55895  27.183  20.017   9.847  0.0986 -0.0201  0.0846
55032W        W55896   0.408  26.094  17.360  0.1507 -0.1885 -0.0840
55033W        W55897  27.053  27.863   8.616 -0.2106 -0.4033 -0.1399
55034W        W55898  27.759   9.195  24.673  0.0787 -0.0902  0.2276
55035W        W55899   4.012  24.585   2.727  0.0219 -0.3681 -0.1792
55036W        W55900  23.225  16.172  15.384  0.4903  0.5098 -0.1995
55037W        W55901   5.767   2.776  12.520 -0.2236 -0.3060 -0.0899
55038W        W55902   1.053   8.328   6.486  0.0539  0.0798 -0.1693
55039W        W55903  26.243  17.649   0.668  0.0503 -0.3066  0.1052
55040W        W55904   9.645  14.255  11.277 -0.4738  0.2705  0.1631
55041W        W55905   0.458   1.293  14.883  0.0938 -0.0774 -0.0544
55042W        W55906  18.048  26.113   7.267  0.1315 -0.0305  0.0121
55043W        W55907  14.589   9.665  13.241  0.0028  0.0868  0.1667
55044W        W55908  12.703   6.233  15.129 -0.0502 -0.0834 -0.2808
55045W        W55909  12.445   7.361  21.456  0.1184  0.0149  0.2268
55046W        W55910   5.189   3.420   2.916  0.1698 -0.2308 -0.1086
55047W        W55911   0.455   2.373  25.684 -0.1832  0.0428  0.1710
55048W        W55912   9.835  19.651  16.454 -0.0265  0.0644 -0.0112
55049W        W55913   5.867  17.027   5.323  0.2551  0.2778  0.2376
55050W        W55914  12.549   6.588  25.117 -0.0433  0.0025 -0.0833
55051W        W55915  15.594  13.415  17.308  0.2149  0.2812 -0.0989
55052W        W55916  11.491   4.139  11.006  0.1708  0.2543 -0.3757
55053W        W55917  17.579  15.095   8.203  0.1819 -0.1944  0.1218
55054W        W55918   0.659   5.162   6.232  0.3019 -0.2699 -0.0637
55055W        W55919  20.149   8.756  24.576  0.0356 -0.0499 -0.2444
55056W        W55920  24.341  16.898   1.707 -0.1114  0.0176 -0.1478
55057W        W55921  27.594   4.345  28.777  0.0630  0.0731 -0.0448
55058W        W55922   0.536   6.492  14.785  0.3391 -0.1873  0.1630
55059W        W55923   1.978   4.728  17.268  0.2683 -0.1219 -0.0334
55060W        W55924  26.949  20.176   5.016 -0.1643 -0.0575  0.0503
55061W        W55925  21.870  24.342   3.226  0.2502 -0.3842  0.0661
55062W        W55926  22.213  15.109  20.121  0.0931 -0.2580 -0.0384
55063W        W55927  20.477  28.089   8.666 -0.4191 -0.0143  0.2571
55064W        W55928  23.981  23.567  11.829 -0.1029 -0.1204 -0.2237
55065W        W55929  18.123  20.578   7.036 -0.1816 -0.2575  0.0105
55066W        W55930  25.776   0.388  17.845  0.0337  0.3406  0.1816
55067W        W55931  22.723  11.932  12.860 -0.0832 -0.0087 -0.0795
55068W        W55932  10.830   5.733   4.061 -0.0019  0.2979 -0.2665
55069W        W55933   8.682  28.225  22.886 -0.0238  0.1648  0.1110
55070W        W55934  23.052  22.304   8.467 -0.0773 -0.1608 -0.1830
55071W        W55935  21.795  28.945   4.761  0.0146  0.0287  0.1033
55072W        W55936  26.304  18.624  17.063  0.0480  0.1058 -0.0781
55073W        W55937   4.481  26.006  26.489 -0.0773 -0.2272 -0.1280
55074W        W55938  25.246  13.079  13.345 -0.1040  0.0881  0.2187
55075W        W55939   3.748   5.135  17.044 -0.0153 -0.0866 -0.0372
55076W        W55940  10.637   3.302  21.835 -0.1994  0.1394 -0.3124
55077W        W55941  14.355   7.423  21.825  0.0426 -0.0480 -0.1531
55078W        W55942  16.097  27.124  13.027 -0.0253  0.0975 -0.1489
55079W        W55943  21.238  19.002   9.320  0.2351 -0.1269  0.2137
55080W        W55944  10.157   7.659  17.278  0.0815  0.3521  0.1047
55081W        W55945  29.022  28.957  13.194 -0.3001 -0.2270  0.2426
55082W        W55946  29.071  24.958  15.109 -0.1952  0.1456  0.0137
55083W        W55947   3.494   1.635  24.883  0.0926  0.1341  0.2153
55084W        W55948  12.497  26.021   5.194  0.3725 -0.5059 -0.0377
55085W        W55949  22.965  23.037  23.788  0.0009  0.3057  0.0246
55086W        W55950   1.556  22.960   0.832  0.0570  0.2798  0.1114
55087W        W55951  21.456   6.958  17.272  0.0944 -0.0519 -0.1829
55088W        W55952  26.264   7.114  28.513 -0.2798 -0.0467  0.3214
55089W        W55953  13.870  20.011  17.212  0.2619  0.1492  0.4678
55090W        W55954   3.061   3.736   0.551  0.1215  0.0689 -0.1642
55091W        W55955  24.206  11.236   8.773  0.1098 -0.2676  0.0777
55092W        W55956   2.129   4.244  17.205  0.2724 -0.0248  0.3631
55093W        W55957  27.495  12.713  11.419  0.3845  0.0799 -0.2214
55094W        W55958   0.289  25.483  16.694 -0.0576  0.1082  0.0742
55095W        W55959  23.600   6.341   1.181  0.2180  0.0916  0.0295
55096W        W55960   1.517  22.286  20.225  0.0714  0.0288  0.1091
55097W        W55961  26.846   0.422   1.395  0.0266 -0.1707 -0.0620
55098W        W55962  18.166  15.064   7.829 -0.0996 -0.2296  0.2365
55099W        W55963  20.764  25.105  11.900  0.1057 -0.0944  0.1917
55100W        W55964   3.832  18.702  15.157  0.0280  0.0627 -0.0676
55101W        W55965  27.012  27.930  24.672 -0.1926  0.0818  0.0877
55102W        W55966  19.119  20.064  11.086  0.2396 -0.1966  0.2772
55103W        W55967  22.120  19.195   1.260  0.1585  0.1968 -0.0318
55104W        W55968  20.096   9.066  26.760 -0.0635 -0.3614 -0.0825
55105W        W55969  22.149  23.697  17.599 -0.2078  0.0552  0.0560
55106W        W55970  20.662   6.799  15.257  0.0773  0.1230  0.2650
55107W        W55971  10.459  20.229  19.231 -0.0644  0.1512 -0.0705
55108W        W55972   6.777   4.122  14.619 -0.2827 -0.2250  0.0568
55109W        W55973  22.138  24.749   3.526  0.1441 -0.1318 -0.1212
55110W        W55974  18.033  10.904  10.126 -0.0725 -0.1188  0.2180
55111W        W55975   5.334  17.473   8.044 -0.0424  0.1944 -0.2559
55112W        W55976  22.058  26.370  20.660  0.1107 -0.0175  0.1920
55113W        W55977  21.936  13.267  10.089  0.1137 -0.0537  0.0909
55114W        W55978  17.319   2.791   0.949  0.1149  0.0004  0.0036
55115W        W55979  26.024  27.445  24.164 -0.0209 -0.0327  0.4017
55116W        W55980  19.440  24.355   2.983 -0.0241  0.1339  0.2258
55117W        W55981  23.277   6.693  18.828 -0.1761 -0.0281  0.2206
55118W        W55982   5.951   2.865  10.074  0.1595 -0.1040 -0.0703
55119W        W55983  26.800   3.265  21.940  0.0249  0.2702  0.0614
55120W        W55984  21.921  23.405  15.908  0.0032  0.2867 -0.1341
55121W        W55985  22.539  18.061  15.529 -0.0741  0.1049  0.0098
55122W        W55986   8.836  26.315  22.781  0.2786  0.2760  0.0423
55123W        W55987  27.590  16.657   9.865  0.2215  0.3150  0.1632
55124W        W55988   4.795   3.235  13.762  0.1589  0.0020 -0.0404
55125W        W55989  12.274   0.267  11.783 -0.1035 -0.3454  0.0793
55126W        W55990  20.540  10.046  11.953 -0.3719 -0.1260 -0.0698
55127W        W55991  10.811  10.014  26.332 -0.0963 -0.0758  0.1369
55128W        W55992   7.596  11.764   9.770  0.0059  0.1318 -0.0507
55129W        W55993   6.321   0.387  10.431 -0.1346  0.5942  0.0546
55130W        W55994   2.842   7.112  24.391 -0.0796  0.0292  0.0420
55131W        W55995  17.173  16.811  28.850 -0.0612  0.3941  0.0567
55132W        W55996  25.948  27.972  20.044 -0.1847  0.1325 -0.0450
55133W        W55997  11.409   5.165  28.474  0.0487  0.0648  0.1572
55134W        W55998  16.623   7.492   6.197  0.1483  0.5074 -0.1680
55135W        W55999   0.456   0.174   3.915 -0.0442 -0.2409 -0.1573
55136W        W56000  15.083   4.320  20.210 -0.0819  0.1454 -0.1806
55137W        W56001  20.698   4.471  22.403  0.1519  0.0773 -0.1194
55138W        W56002  23.691  26.576   6.206  0.2301  0.0869 -0.1786
55139W        W56003  22.973  11.933  18.371 -0.1353 -0.2543  0.1376
55140W        W56004  17.914   9.858  13.463  0.0039  0.2331 -0.2475
55141W        W56005  13.109  17.745   4.264 -0.0087  0.1026  0.0783
55142W        W56006   9.618  18.790  10.235 -0.0427  0.1850  0.0854
55143W        W56007  19.350  21.294  13.714  0.5319 -0.0717  0.0469
55144W        W56008  16.268  26.785  14.680 -0.3007  0.1239  0.1021
55145W        W56009   7.102  16.006  10.638 -0.0384  0.1635  0.1931
55146W        W56010  15.418  27.795  28.638  0.0964  0.1017 -0.2186
55147W        W56011  29.086  13.189  17.946 -0.0390 -0.0200 -0.0817
55148W        W56012  28.897  10.697   5.216 -0.0645 -0.3038 -0.1145
55149W        W56013  28.097   2.788  10.966 -0.2203  0.0378 -0.4150
55150W        W56014  23.810  10.726  21.208 -0.0790  0.0119 -0.0156
55151W        W56015  17.017  10.034  12.001 -0.0097  0.2275 -0.1435
55152W        W56016  12.839   6.847   3.790  0.3641  0.0903  0.1578
55153W        W56017  18.631   4.310   9.587  0.0710 -0.0191  0.2088
55154W        W56018  13.146  28.667  16.400 -0.1213 -0.1149  0.0865
55155W        W56019   0.879  14.806  17.955  0.2169  0.0330 -0.0066
55156W        W56020   2.776   3.988  27.508 -0.2996 -0.2161  0.1524
55157W        W56021  24.442   7.883  14.538 -0.4076  0.0003 -0.1207
55158W        W56022  28.249  14.068  16.601  0.2897  0.0393  0.1039
55159W        W56023  28.294  21.934   5.662 -0.0548  0.0200  0.0432
55160W        W56024   8.829  28.768  22.928  0.2378  0.4596 -0.0593
55161W        W56025   8.766  11.757   2.498  0.1208  0.0101 -0.2805
55162W        W56026  25.999  27.185  27.230 -0.0520 -0.2352 -0.2022
55163W        W56027  19.858   2.148  26.270 -0.0493 -0.1873  0.1854
55164W        W56028   0.828  25.545  15.912  0.3241  0.1615  0.0253
55165W        W56029  26.633   6.342   4.768  0.0798  0.0992 -0.1823
55166W        W56030  11.816  16.240  26.997  0.3642 -0.1871 -0.1076
55167W        W56031   0.137   7.619   2.459 -0.5212 -0.0840  0.2533
55168W        W56032  26.622   3.692  16.720  0.5012  0.0509  0.0936
55169W        W56033  24.508  15.830   7.977  0.3089 -0.4058  0.0655
55170W        W56034  14.116  19.608   8.999 -0.0314 -0.2563 -0.0334
55171W        W56035  15.967  20.397   6.168 -0.0085 -0.2718  0.2142
55172W        W56036  11.213   6.028  17.907 -0.0541 -0.1248  0.1328
55173W        W56037   4.301  18.822   7.951 -0.1150  0.2452  0.1241
55174W        W56038   7.362  28.780  18.881 -0.2649 -0.1449  0.1523
55175W        W56039   3.737   5.423  24.410  0.0719 -0.1829  0.2054
55176W        W56040  19.742  17.855  24.025 -0.1804 -0.0293 -0.1953
55177W        W56041  14.660  13.754   3.470 -0.2186  0.1393  0.2033
55178W        W56042   2.233   2.392  19.232 -0.1394 -0.3029  0.3817
55179W        W56043  27.439  25.906  24.818 -0.1414  0.0230  0.0588
55180W        W56044  25.944  22.645  10.477  0.1734 -0.1378 -0.1505
55181W        W56045  28.566  20.049  13.483 -0.0673  0.2490 -0.1042
55182W        W56046   2.072  18.246  11.486  0.3128  0.0151  0.1850
55183W        W56047   9.741  21.784  21.141  0.1621  0.2513 -0.0441
55184W        W56048   2.011  26.534  27.054 -0.1718  0.0904 -0.1357
55185W        W56049   0.726  12.255  28.898  0.1173 -0.0896 -0.2270
55186W        W56050  22.117   7.492   6.320 -0.2727  0.0269 -0.1945
55187W        W56051   7.087   6.118   5.467 -0.4596 -0.1604 -0.1055
55188W        W56052   9.167  13.615  20.046 -0.2356  0.0828  0.1290
55189W        W56053  13.011   4.209  28.100  0.0565  0.0540 -0.0721
55190W        W56054  27.358   5.251   1.543 -0.1889  0.1718  0.2291
55191W        W56055  14.926  10.841  18.057 -0.0126  0.0306  0.1587
55192W        W56056  27.787  24.420   1.922  0.2019  0.0173  0.0315
55193W        W56057  22.301  11.415  24.408  0.0111 -0.1024 -0.0255
55194W        W56058   6.258  11.679  13.938 -0.0361 -0.0371  0.2550
55195W        W56059  23.045  25.538   1.301  0.1624  0.1179 -0.1791
55196W        W56060   7.148  19.014  18.551  0.1853 -0.0283  0.0956
55197W        W56061   8.297  17.551   9.926  0.0574  0.1280  0.0429
55198W        W56062  21.409  26.097  12.133 -0.2991  0.1463  0.2371
55199W        W56063   0.018  10.569  14.730 -0.0792  0.0432 -0.2437
55200W        W56064  16.428  28.328  13.385  0.0299 -0.1795 -0.1225
55201W        W56065  28.853  15.585  10.230  0.0924  0.0705 -0.1193
55202W        W56066  16.340  25.437   8.924  0.1117  0.0909 -0.1282
55203W        W56067  14.934   3.357  25.798 -0.0107 -0.1221 -0.2399
55204W        W56068  26.655   0.514   9.587 -0.1401  0.0277  0.1684
55205W        W56069  21.263  16.733   2.980 -0.0303 -0.0300  0.2813
55206W        W56070  28.630  25.977   2.504  0.2563 -0.1029 -0.2848
55207W        W56071  16.209  26.754  20.471 -0.1169  0.3087 -0.1162
55208W        W56072  17.218  26.910  20.620  0.1435 -0.1650 -0.0456
55209W        W56073  22.516   5.718  21.903 -0.0049  0.1555 -0.0827
55210W        W56074  17.341  16.829  13.323  0.0544 -0.0457  0.3671
55211W        W56075  15.038  23.932  15.709 -0.0373  0.0436 -0.0035
55212W        W56076  21.702   2.760  16.393 -0.3197 -0.0719 -0.1866
55213W        W56077   4.066  20.534  11.818 -0.3482  0.0798 -0.0357
55214W        W56078  24.814  27.400  24.115 -0.1098 -0.1552  0.0797
55215W        W56079  19.592  15.021  13.008  0.2146 -0.0759 -0.0552
55216W        W56080   4.842   4.351  12.980 -0.1615 -0.3711  0.0857
55217W        W56081   9.534   7.894  25.944 -0.2630 -0.2675 -0.0039
55218W        W56082  24.158   2.935  26.334 -0.0760 -0.0413  0.0361
55219W        W56083  28.767  15.125   8.803 -0.0944  0.1323 -0.1633
55220W        W56084  23.699   2.671  19.784 -0.2777  0.1879  0.0754
55221W        W56085  16.512   2.733  17.393  0.0930 -0.4160  0.3006
55222W        W56086   9.811   9.908  26.962 -0.0873 -0.0591 -0.2788
55223W        W56087  13.306  21.460   2.719  0.1777  0.0238 -0.0069
55224W        W56088  16.402  22.757   2.771 -0.0173 -0.5313  0.3673
55225W        W56089  22.236  19.234   8.247  0.0095  0.1090  0.0588
55226W        W56090   0.994   1.910  21.408 -0.0589  0.3373 -0.0158
55227W        W56091  25.056   0.598  11.124 -0.0436 -0.2550  0.2409
55228W        W56092  23.073  18.965  16.679 -0.1803 -0.1709  0.1937
55229W        W56093  24.903   5.985  29.010  0.1329 -0.4593 -0.1298
55230W        W56094  25.757  14.154  10.978 -0.1209 -0.1729 -0.0941
55231W        W56095  21.913   3.835   7.195  0.0652 -0.1746 -0.1643
55232W        W56096  16.676  17.230   6.374 -0.1049  0.2813 -0.0454
55233W        W56097   0.617  14.558   7.631 -0.0911 -0.1180  0.2671
55234W        W56098   4.152  24.957  20.787 -0.2535  0.0825  0.1330
55235W        W56099  18.590   2.706   1.406  0.0200 -0.0718 -0.1818
55236W        W56100  21.863  27.233  25.445 -0.2257 -0.3375  0.2504
55237W        W56101  25.664  13.574   5.464 -0.1078 -0.1659  0.2199
55238W        W56102  12.472   1.774  16.063 -0.4449 -0.1073  0.0161
55239W        W56103   9.531  11.964   1.328 -0.1212  0.1526  0.2782
55240W        W56104  23.793   2.591   3.549 -0.1510  0.3259  0.1269
55241W        W56105  18.068  19.509  19.710 -0.1303  0.2115 -0.0508
55242W        W56106  24.288  11.420  26.175 -0.1189  0.0295  0.0733
55243W        W56107  28.029  25.925  20.583  0.1998 -0.0126 -0.1681
55244W        W56108  14.621   2.377  27.333  0.1041 -0.3152  0.0871
55245W        W56109  26.949   5.177  11.714  0.0880 -0.2971  0.0630
55246W        W56110  16.140   8.524  24.915 -0.1980 -0.4800 -0.1123
55247W        W56111  12.544  17.174  28.534 -0.0716  0.1630 -0.0641
55248W        W56112  27.740  21.451  10.245 -0.0210 -0.1334  0.2521
55249W        W56113   4.157   1.244  22.110 -0.0905 -0.0634 -0.0721
55250W        W56114   4.612  14.686  20.276  0.0890  0.1968 -0.0359
55251W        W56115  27.919  26.682   6.334  0.3214 -0.1230 -0.1296
55252W        W56116  10.908  16.985   8.532 -0.2886  0.0473 -0.0800
55253W        W56117  27.680  24.095  19.126  0.0486 -0.0359 -0.5150
55254W        W56118  27.444   7.044  23.971  0.0897  0.0388  0.1064
55255W        W56119  10.819  13.281   0.810 -0.0101  0.1341  0.1016
55256W        W56120  23.239  17.148   7.000 -0.1522 -0.2668  0.2603
55257W        W56121  24.687   9.964   6.523 -0.1029  0.1581  0.1605
55258W        W56122  28.765  23.418   7.162 -0.1287  0.2166  0.1100
55259W        W56123   7.389  19.720  28.433  0.1245  0.1962 -0.0026
55260W        W56124  22.029   4.089  12.413 -0.0265 -0.1384  0.1178
55261W        W56125   3.437   2.863   4.836 -0.0797  0.0604 -0.3257
55262W        W56126  13.248   4.712  15.292  0.2824  0.0472  0.2499
55263W        W56127  19.459  24.501  19.935  0.2801  0.1652 -0.0673
55264W        W56128  21.891   6.032  23.601 -0.1199 -0.2385  0.0133
55265W        W56129  29.085   9.855   2.184  0.0755 -0.1071 -0.2038
55266W        W56130  25.344  12.271  17.464 -0.0388  0.2101 -0.1680
55267W        W56131  24.484  12.123   1.862  0.1195 -0.1171 -0.2319
55268W        W56132  11.553  13.372  25.899 -0.3429  0.0396 -0.2843
55269W        W56133  27.685  21.591   5.003 -0.3523 -0.0999  0.1715
55270W        W56134  24.978   3.668  18.386  0.0498 -0.2220  0.1053
55271W        W56135  23.286  26.602  14.401  0.2738 -0.0147  0.0605
55272W        W56136  13.379   8.830  23.167  0.0973 -0.0122  0.2674
55273W        W56137   5.647   5.877  17.716 -0.1634 -0.1390 -0.1914
55274W        W56138  17.154  25.928  17.905 -0.1030  0.4345  0.0206
55275W        W56139   7.862   6.916  21.179  0.1642  0.0030  0.1540
55276W        W56140   5.752  24.985   7.387 -0.0344 -0.2617 -0.0900
55277W        W56141  16.841  28.289  20.788 -0.1194 -0.1987 -0.0159
55278W        W56142  29.105   3.323   6.716 -0.3002  0.0469 -0.0155
55279W        W56143  15.660  27.225  18.414 -0.0749  0.0974 -0.1163
55280W        W56144  17.609   6.334  17.222 -0.1622 -0.0958 -0.0845
55281W        W56145  13.452   2.998  16.472 -0.1182  0.5058  0.2535
55282W        W56146   8.622  17.097  14.536  0.0728 -0.2481 -0.1509
55283W        W56147  20.518  14.156   7.475  0.3173 -0.0194 -0.0308
55284W        W56148   7.533  26.314  18.953 -0.2053  0.2978  0.1763
55285W        W56149  18.156  23.856   1.685 -0.0807 -0.0708  0.3240
55286W        W56150  19.978   9.038  15.140  0.0058 -0.2221 -0.1551
55287W        W56151   6.485  21.072  11.167 -0.3151  0.1885  0.1727
55288W        W56152   8.520  27.876  18.686 -0.0372  0.0732  0.0025
55289W        W56153  20.192  27.654  11.198 -0.4558  0.1954 -0.2549
55290W        W56154  23.872  19.497   8.467 -0.2560  0.0015 -0.3300
55291W        W56155  10.960   6.564  25.041  0.2578 -0.1486  0.0786
55292W        W56156  11.158  12.763   1.012 -0.0367  0.0551  0.1145
55293W        W56157  19.834   3.571  12.578 -0.1311 -0.1489 -0.1645
55294W        W56158   6.112   8.922   9.097  0.0545  0.0873  0.5018
55295W        W56159  27.459   2.178  13.396  0.2211  0.1699 -0.0708
55296W        W56160   3.527  20.992  13.773 -0.1041 -0.0326 -0.0057
55297W        W56161   0.548  25.614  27.618  0.0234  0.0441  0.0698
55298W        W56162   9.857  26.350  13.409 -0.0489  0.2867 -0.0506
55299W        W56163   0.854  17.640  18.519 -0.1713 -0.0584  0.1060
55300W        W56164  17.135  27.082  17.739 -0.1212 -0.1755 -0.1325
55301W        W56165   0.746  22.665  21.375 -0.3781 -0.0503  0.0134
55302W        W56166   1.678  24.977   6.410 -0.0583  0.0521  0.4610
55303W        W56167   3.242  20.658  14.552 -0.2277 -0.0008 -0.0721
55304W        W56168  28.706  24.389  20.378 -0.1345  0.1371 -0.3127
55305W        W56169  26.621  21.220   7.795 -0.3299  0.1949  0.2305
55306W        W56170   7.373  10.013  23.307  0.3151  0.0105 -0.0806
55307W        W56171  11.719   3.126  26.706 -0.0073 -0.0566 -0.0528
55308W        W56172  23.495  10.605  17.072 -0.0199  0.1595 -0.1423
55309W        W56173  26.464   1.518  27.134 -0.0097  0.1912 -0.2906
55310W        W56174  23.732   9.926   9.931  0.0137 -0.0261  0.0970
55311W        W56175  22.091  20.986  15.228  0.0007 -0.0494 -0.3764
55312W        W56176  28.627  24.430  14.464  0.0247  0.0025  0.0555
55313W        W56177  10.919   5.001  27.014 -0.1201 -0.1861  0.0509
55314W        W56178  11.965  24.870   7.903  0.2071  0.0467 -0.0803
55315W        W56179  19.653  12.182  28.209 -0.1113  0.0424  0.0742
55316W        W56180   5.939  25.422  21.624  0.2594 -0.0317 -0.0641
55317W        W56181   7.866   2.554  26.270  0.2721 -0.2798  0.3389
55318W        W56182  18.679   1.251  10.402  0.1123  0.2145 -0.1868
55319W        W56183   0.695   4.776  16.606  0.2655  0.1494  0.0552
55320W        W56184  22.293  10.168  15.230  0.2285 -0.0185 -0.0637
55321W        W56185   9.155   7.949  11.666  0.0230  0.0003  0.2802
55322W        W56186  17.793   9.660  14.029  0.1166  0.2408  0.0626
55323W        W56187  26.062  17.001  19.205 -0.1968 -0.1741  0.1822
55324W        W56188  18.748  22.141  18.922  0.1259 -0.0258  0.2769
55325W        W56189  22.812  28.140  21.087 -0.0857  0.2274 -0.0202
55326W        W56190  13.509   2.917   0.452  0.1017  0.0617 -0.1104
55327W        W56191   0.497  25.850   3.690  0.1549  0.0465 -0.3669
55328W        W56192   9.849  15.688  18.276  0.2271  0.0103  0.3899
55329W        W56193  26.403  26.467  27.592 -0.0961  0.1966  0.0434
55330W        W56194  25.714   4.874  16.358 -0.0357  0.0084 -0.2848
55331W        W56195  25.977  21.245   3.264 -0.1467 -0.0033  0.0189
55332W        W56196  18.882  10.428   7.479  0.2801 -0.0377  0.0486
55333W        W56197  12.864  11.278   8.731 -0.0915  0.0458 -0.3682
55334W        W56198  23.993   9.550  23.626 -0.0690 -0.1975 -0.1551
55335W        W56199  17.598  28.361   0.746 -0.2898  0.0638  0.0783
55336W        W56200   4.996   2.229   5.119  0.3796  0.2721  0.2242
55337W        W56201  27.396  24.768   3.431 -0.1033  0.0967  0.1437
55338W        W56202  19.442  17.737   4.197 -0.0978  0.3057 -0.0936
55339W        W56203  19.752   4.632  14.465 -0.0843  0.2225 -0.5297
55340W        W56204  28.019  23.824   6.242  0.4265 -0.0259  0.0688
55341W        W56205  19.458  28.631   9.317 -0.0771  0.1283 -0.0202
55342W        W56206  23.107  17.080  12.725  0.2665 -0.1210  0.0922
55343W        W56207  17.296  10.172  24.669 -0.0285 -0.1143  0.2232
55344W        W56208  16.647   8.278   1.266 -0.0377 -0.0386  0.3978
55345W        W56209  15.228  25.324   8.056 -0.0722 -0.1239  0.0249
55346W        W56210  23.642  26.535   7.813  0.0411 -0.0186 -0.0667
55347W        W56211  17.161   2.740  28.469 -0.0515  0.0012  0.3143
55348W        W56212   2.655   2.236  22.090  0.0027  0.2320 -0.1007
55349W        W56213  20.150   3.412  19.948  0.0342 -0.4116  0.1913
55350W        W56214  16.527  10.996   4.662  0.0265 -0.0954  0.1467
55351W        W56215   3.229  18.226   1.758 -0.0208 -0.1158 -0.0384
55352W        W56216  10.906  22.076  28.025  0.1313 -0.2205  0.0331
55353W        W56217  20.542  25.569  24.191  0.0381 -0.0911 -0.1491
55354W        W56218  10.934  14.236  10.932 -0.0307 -0.0498  0.1637
55355W        W56219   3.329   7.320  23.154  0.0650 -0.1515 -0.1391
55356W        W56220   8.728  10.173  10.861  0.0971  0.2977  0.1957
55357W        W56221   6.900   3.389   7.124 -0.2812  0.1203 -0.4373
55358W        W56222  19.033   7.124   3.582 -0.2187  0.3665 -0.2012
55359W        W56223  17.812   2.506  26.298 -0.0306 -0.0405  0.0101
55360W        W56224  21.158   3.681  18.537 -0.0747  0.0030  0.2187
55361W        W56225  26.329  27.324  25.083 -0.0732  0.2171  0.1290
55362W        W56226   0.431   1.608  15.694 -0.4981  0.0975 -0.1388
55363W        W56227  11.644  11.005   3.855 -0.0324  0.0958  0.2854
55364W        W56228   2.143  25.747   5.306 -0.0211 -0.1646 -0.1078
55365W        W56229  22.619  21.718  20.484 -0.1154 -0.1795 -0.0844
55366W        W56230  23.184   6.040  20.610 -0.0284 -0.0820  0.1058
55367W        W56231  17.717  19.115  17.778 -0.0780 -0.2068  0.1128
55368W        W56232  25.788   2.106  20.361  0.0781  0.0465 -0.0422
55369W        W56233  23.831   9.737   9.261 -0.2399  0.2602  0.1087
55370W        W56234  28.057  20.706  18.044  0.0472 -0.0142  0.0516
55371W        W56235   3.271   2.314   8.781  0.1429 -0.2489  0.2410
55372W        W56236  22.323  27.974  12.047  0.0894  0.0098  0.0523
55373W        W56237  16.504  16.400   5.351 -0.0982  0.1967  0.0223
55374W        W56238  16.712  10.384  27.889  0.3318  0.1015  0.3430
55375W        W56239  26.993  12.814   0.294  0.1514 -0.0713  0.2416
55376W        W56240  22.711  26.592  11.633 -0.0032 -0.2819  0.6669
55377W        W56241  27.135   0.635  16.165 -0.2826  0.0465 -0.0021
55378W        W56242  25.673   5.827  21.921  0.0354  0.4764  0.1974
55379W        W56243   1.699  18.047   9.394  0.1768  0.0513  0.2546
55380W        W56244   0.559  22.800  19.750 -0.2828  0.0578  0.1974
55381W        W56245  21.339  27.070  11.097 -0.0684  0.2069  0.2238
55382W        W56246  22.396   2.051   0.462  0.3455 -0.2032  0.2500
55383W        W56247  15.089  13.302  11.202  0.1819 -0.0817 -0.2516
55384W        W56248  27.172  16.033  17.212 -0.0043 -0.0960  0.3288
55385W        W56249   0.779   9.170  22.573 -0.4112  0.1160  0.0125
55386W        W56250  15.358  27.436   1.935 -0.1221  0.1485  0.1121
55387W        W56251  19.517  13.274   7.162 -0.1300  0.1874 -0.4811
55388W        W56252   5.138  25.559   0.798 -0.3026 -0.4065  0.0317
55389W        W56253   1.096  27.852  13.598 -0.2042 -0.1045 -0.1694
55390W        W56254  26.764   0.928  11.494  0.3688  0.1456  0.2513
55391W        W56255   1.659  26.308  13.350 -0.1946 -0.1830 -0.1748
55392W        W56256   8.187  22.586  10.602 -0.0214 -0.0899  0.0492
55393W        W56257   6.938   9.474   8.541 -0.0824 -0.0362  0.0314
55394W        W56258   4.639   5.691  26.973  0.0537  0.0410  0.2179
55395W        W56259  27.771  23.765  15.868 -0.1937 -0.0797 -0.0112
55396W        W56260  17.652  28.518  11.983 -0.0715 -0.2616  0.0200
55397W        W56261  29.078  10.467  17.315  0.1280  0.0700  0.0140
55398W        W56262   5.287  14.453  21.447 -0.1159 -0.3678  0.1275
55399W        W56263  27.293  27.500   4.259 -0.2428 -0.2487  0.1079
55400W        W56264  20.373  17.794  16.396 -0.0262 -0.0569 -0.1096
55401W        W56265  21.670  18.972   1.448 -0.1736 -0.2434 -0.0284
55402W        W56266  19.263   5.094  11.828  0.0560 -0.0716  0.4290
55403W        W56267   4.286  21.627  10.935 -0.2249 -0.3389  0.1473
55404W        W56268  29.089  22.706  22.442 -0.2381  0.0431 -0.1213
55405W        W56269  15.418  26.988  13.870  0.1785 -0.1174 -0.1757
55406W        W56270   4.496  16.277  16.646  0.1408  0.1986 -0.0167
55407W        W56271   0.536  14.034  15.166  0.3940  0.3095 -0.0936
55408W        W56272   5.610  18.833  24.875  0.0393 -0.1459  0.1449
55409W        W56273   9.909   0.572  25.191 -0.0792 -0.3599  0.1170
55410W        W56274   5.671   0.488  17.755 -0.3137 -0.1779 -0.1505
55411W        W56275  14.281  20.057  16.048  0.0028  0.2370 -0.1163
55412W        W56276  13.850   6.301  16.916  0.3747  0.1676 -0.1011
55413W        W56277  18.211   3.386   7.055  0.3737  0.3177 -0.1091
55414W        W56278   9.501   6.562  24.603 -0.0148 -0.2687  0.1452
55415W        W56279  15.646   0.175  16.743  0.0549  0.0762 -0.2860
55416W        W56280   7.171  14.778  12.894 -0.0996  0.2748  0.4299
55417W        W56281  15.223  17.761  11.693 -0.1283 -0.1027 -0.0671
55418W        W56282  27.570  22.801  25.052  0.1269  0.0005 -0.0091
55419W        W56283   2.106   8.357  18.772  0.0975 -0.2326  0.2950
55420W        W56284   4.566  25.174  17.086  0.0809  0.1374  0.0411
55421W        W56285   2.148  26.348  16.836  0.0262  0.2055 -0.1044
55422W        W56286  20.995  20.414  12.211  0.3293 -0.1769  0.0097
55423W        W56287  11.994   2.905   4.283 -0.3055  0.0450 -0.1608
55424W        W56288   9.544   3.667  22.101 -0.0028  0.1365 -0.2055
55425W        W56289  24.278   0.385  20.369  0.3149  0.0524 -0.1427
55426W        W56290  20.383  22.285   3.085 -0.0830 -0.0334 -0.1123
55427W        W56291   9.881  18.589  17.671 -0.6195  0.0509 -0.1092
55428W        W56292   3.066   6.264  13.064 -0.0502  0.0155  0.1151
55429W        W56293  23.969  17.521  12.933 -0.0092  0.0508 -0.0238
55430W        W56294  24.999  26.308  21.309  0.2079 -0.3357  0.1581
55431W        W56295  24.354  27.781  22.506 -0.0617 -0.1069  0.0784
55432W        W56296  12.366   0.410   6.926  0.0904 -0.1603 -0.0227
55433W        W56297  12.885  28.757  21.454 -0.2114  0.3166  0.0932
55434W        W56298  22.204   1.835  14.795 -0.0273  0.2976  0.1638
55435W        W56299  20.869   3.127  23.491 -0.0050  0.2528  0.1450
55436W        W56300   1.156  12.454   2.499  0.2405 -0.2789 -0.0948
55437W        W56301  21.930   9.325  21.181 -0.1502  0.3144  0.2096
55438W        W56302  12.675   2.588   9.017  0.4164 -0.0733 -0.1025
55439W        W56303  28.330  12.403  14.769  0.0784  0.0560  0.3280
55440W        W56304  16.972   7.295  24.812 -0.2917 -0.1081 -0.1131
55441W        W56305  19.958  25.320  23.444 -0.2908 -0.0464  0.0086
55442W        W56306  20.875   7.553   3.711 -0.1768  0.1404  0.3170
55443W        W56307  10.167   3.737  19.532 -0.3155  0.0932 -0.3090
55444W        W56308   3.732   0.854  11.326 -0.2599 -0.1385 -0.0542
55445W        W56309  26.058  18.441   3.685 -0.0505 -0.2256  0.1587
55446W        W56310  23.226   6.881   7.594 -0.1603  0.0093  0.0409
55447W        W56311  10.168   9.208  27.352  0.0389 -0.2616 -0.1426
55448W        W56312  23.674  20.812  12.676 -0.0993  0.0419  0.1030
55449W        W56313  28.584  25.845  24.347  0.0365  0.1795 -0.0783
55450W        W56314  15.694  18.998  11.544 -0.1484 -0.1342 -0.0330
55451W        W56315  25.379   1.039   3.972 -0.3997 -0.1750  0.0124
55452W        W56316   3.487  21.419  12.560  0.0258 -0.0072 -0.0906
55453W        W56317   3.277   9.933  20.816  0.2151 -0.0781  0.2632
55454W        W56318  17.764  26.744   8.052 -0.2305  0.1012 -0.3430
55455W        W56319  11.670   2.532   8.836 -0.2784 -0.0373  0.1062
55456W        W56320  12.144  23.199  28.842 -0.0036 -0.0276 -0.1752
55457W        W56321   0.737   1.912  20.425 -0.1993 -0.1330  0.0447
55458W        W56322  15.206   1.421  25.927 -0.1794 -0.0567 -0.1362
55459W        W56323   5.158   7.592   5.469 -0.0899  0.2286  0.1112
55460W        W56324   2.074  19.052   3.214 -0.0223 -0.0013 -0.2601
55461W        W56325  26.415   7.641  15.460 -0.0225  0.0403 -0.0440
55462W        W56326  23.353  26.895  15.834 -0.1259 -0.3209 -0.0234
55463W        W56327  24.802  12.206  25.072  0.0571 -0.2226 -0.0127
55464W        W56328   0.704  18.898  22.252 -0.2272  0.0738  0.0011
55465W        W56329   5.735  18.279  11.538  0.1839 -0.2646  0.1266
55466W        W56330  25.255  10.098  12.006  0.1880 -0.0721  0.1116
55467W        W56331   9.714  24.420  10.210  0.1048 -0.1921  0.3631
55468W        W56332  28.667   2.272   5.805 -0.2786  0.0467  0.0827
55469W        W56333  20.901   4.599   1.634  0.2062 -0.3546  0.0144
55470W        W56334  22.758  26.986  11.239 -0.1308  0.2278 -0.3370
55471W        W56335  11.283  11.717   8.770  0.1958 -0.1454  0.2069
55472W        W56336   1.204   0.314  24.933  0.2419 -0.2178 -0.1275
55473W        W56337   1.354  27.723  20.159 -0.2072 -0.3341  0.1771
55474W        W56338  25.787  28.217   6.080 -0.1260  0.2485 -0.0452
55475W        W56339  25.887  28.307  11.584 -0.1600  0.3949  0.2339
55476W        W56340  26.719  13.742  17.733 -0.0212 -0.2091  0.0595
55477W        W56341   1.443  12.749  25.387 -0.3934  0.2260 -0.0576
55478W        W56342  17.382   2.579  26.044 -0.1671  0.2696 -0.2196
55479W        W56343  20.686   3.603  19.301  0.2279 -0.0019 -0.1726
55480W        W56344   5.744   6.340   7.798  0.2152  0.2345 -0.1863
55481W        W56345  23.704  22.943  17.431  0.1061  0.2513 -0.0023
55482W        W56346  17.572   0.041  24.829  0.0530  0.1098  0.0326
55483W        W56347   2.946  26.843   1.040  0.1139 -0.2833  0.2030
55484W        W56348  19.780  25.271  16.485  0.0737  0.1440  0.1916
55485W        W56349  17.579   2.569   1.339  0.1699 -0.1950 -0.2436
55486W        W56350  17.826   3.000  18.832  0.1208 -0.0393 -0.0904
55487W        W56351  26.781  27.320  10.763  0.0841 -0.3139 -0.0830
55488W        W56352   7.434  23.262   5.528 -0.2838 -0.1270 -0.1661
55489W        W56353  20.174   2.026  21.530  0.1080 -0.2591 -0.0943
55490W        W56354  10.374  28.304  14.599 -0.0048 -0.0838  0.1515
55491W        W56355  10.358  19.801  16.270  0.0029  0.2714 -0.0885
55492W        W56356  23.417  12.867  15.264 -0.0627  0.1672  0.5506
55493W        W56357   8.776   5.499  14.758 -0.2223 -0.0585 -0.1243
55494W        W56358   9.084   9.884  24.390 -0.1054  0.1919  0.0805
55495W        W56359  10.710   9.960  22.155  0.1998 -0.0829  0.1439
55496W        W56360   6.558   9.433  11.745 -0.1850  0.0967  0.0107
55497W        W56361  24.487  18.650  11.492  0.0633 -0.4018 -0.0536
55498W        W56362  26.370   7.405   2.044 -0.1211  0.2574  0.0032
55499W        W56363  20.380   2.620  25.585 -0.1998 -0.2709 -0.3479
55500W        W56364   1.080  21.514  16.156  0.0029 -0.2165 -0.3168
55501W        W56365   4.330  18.714  24.640 -0.2514  0.2116 -0.0904
55502W        W56366  14.038  12.903  12.990  0.2341 -0.0135  0.0555
55503W        W56367  10.171  26.806  18.490  0.1037 -0.0098  0.0256
55504W        W56368  26.029  16.819   4.431 -0.0164 -0.2806  0.1410
55505W        W56369   0.840  19.535  20.504 -0.0054  0.3169  0.2719
55506W        W56370   2.513   7.587  24.519 -0.3690  0.2228 -0.2030
55507W        W56371  19.723  18.066  11.342 -0.0113  0.1642 -0.0473
55508W        W56372   0.388  11.786  15.075 -0.4196 -0.2439 -0.3412
55509W        W56373  24.385  28.652  11.286 -0.0823  0.0355  0.1213
55510W        W56374   9.219  20.320  15.522  0.0731 -0.0165 -0.1175
55511W        W56375  22.735   3.631  28.521 -0.0518 -0.1868 -0.0924
55512W        W56376  25.872   5.473  14.697 -0.1014 -0.1571 -0.1498
55513W        W56377  18.663  24.195  25.163  0.4408  0.1111 -0.2365
55514W        W56378   0.081   5.321  23.903  0.4409 -0.1508  0.0654
55515W        W56379   5.245  21.739  18.462  0.1479  0.1883  0.1194
55516W        W56380   2.018  20.488   7.657  0.1721  0.2311 -0.1567
55517W        W56381  26.941   4.784  17.805  0.1033  0.1002 -0.0925
55518W        W56382  22.144   0.806  16.833  0.1289 -0.2277 -0.1981
55519W        W56383  25.297  28.848   7.334  0.1163 -0.0789 -0.3157
55520W        W56384  24.683  26.269   5.458  0.0234  0.3132 -0.3481
55521W        W56385  26.536  26.883  23.382 -0.1796 -0.2335  0.1032
55522W        W56386   8.050  17.544  16.651  0.2910 -0.0599  0.0606
55523W        W56387   6.192   7.238  21.096  0.1464 -0.1754  0.1045
55524W        W56388   0.532   9.824  19.209  0.1774  0.0454 -0.1214
55525W        W56389  19.560   9.757  24.609  0.1777  0.4420 -0.0523
55526W        W56390   0.245  22.629  13.774  0.2310 -0.0640  0.0469
55527W        W56391  14.036  17.164   1.641  0.1640  0.1710 -0.0258
55528W        W56392  13.413  29.102   8.119 -0.0187 -0.1863  0.0155
55529W        W56393   5.584  19.458   9.804  0.0858 -0.1773  0.0154
55530W        W56394   1.106   8.941  20.337 -0.1229  0.0785 -0.0434
55531W        W56395  22.052  12.958  28.485 -0.0138  0.0996  0.4000
55532W        W56396  22.050  28.936   5.738  0.1162  0.0233  0.3828
55533W        W56397  21.212  21.772   8.300  0.0899  0.0945 -0.5005
55534W        W56398  17.499   1.599  11.820  0.2910 -0.2167 -0.4450
55535W        W56399  10.435  24.107  24.259 -0.0901 -0.0043 -0.2138
55536W        W56400  28.813   7.937   4.241 -0.2187 -0.2369  0.0740
55537W        W56401   8.880   2.767   8.600  0.0007  0.0264 -0.0680
55538W        W56402  25.286   0.381  20.734 -0.2561 -0.1892  0.0913
55539W        W56403  18.168  21.245  13.601 -0.0359 -0.0499  0.1284
55540W        W56404   7.416   4.486  26.584 -0.0044 -0.0275 -0.2578
55541W        W56405   2.555  21.167  16.737  0.0172  0.1072  0.0100
55542W        W56406  14.398  11.971   7.970  0.1192 -0.0453  0.1473
55543W        W56407   6.956  24.663   3.783  0.0699 -0.1137  0.1517
55544W        W56408  19.769  20.977  18.604 -0.0129 -0.0188 -0.3551
55545W        W56409  28.262   0.075  22.888 -0.0725 -0.0200 -0.1996
55546W        W56410  25.534  16.946   4.345  0.1095 -0.0985 -0.2203
55547W        W56411  28.496  27.662  16.689 -0.3607 -0.1305 -0.1966
55548W        W56412   0.160  11.832  11.523  0.0075  0.0393  0.1754
55549W        W56413  17.685  27.312  12.938  0.3539 -0.1328 -0.4444
55550W        W56414   9.562  16.406  10.531  0.3213 -0.1276  0.0203
55551W        W56415   3.572  26.886  10.343  0.1504  0.2379 -0.0110
55552W        W56416  16.791   1.604  17.079  0.2823 -0.1495 -0.0234
55553W        W56417  26.922  12.776  18.970  0.0526 -0.4401  0.1385
55554W        W56418   7.930   5.811  16.605  0.1413 -0.2181  0.1728
55555W        W56419  20.156  18.577  24.598 -0.4165  0.0391 -0.0933
55556W        W56420   1.347  23.560  19.295  0.1161 -0.0347  0.2132
55557W        W56421  24.988   8.442  24.364 -0.1305  0.0005  0.2044
55558W        W56422  10.213  16.464   9.334  0.3692  0.0083 -0.1446
55559W        W56423   0.532   8.949  28.624 -0.1035  0.1244  0.1351
55560W        W56424   0.093   5.406   1.691 -0.0603  0.1749 -0.1065
55561W        W56425  10.570  11.230   7.303 -0.1213 -0.2871 -0.0993
55562W        W56426  17.090  28.841  18.722 -0.1350 -0.1452  0.1066
55563W        W56427  26.458   2.730  28.188 -0.0860  0.3730  0.0816
55564W        W56428   1.851  13.716  11.254  0.3558  0.1574 -0.0693
55565W        W56429  10.112  19.854  11.454  0.2135  0.3911  0.0567
55566W        W56430   8.933   9.795  10.000  0.0856  0.1228 -0.1311
55567W        W56431  19.826  26.179  16.354 -0.0249  0.2269 -0.2412
55568W        W56432   8.488   6.760  23.170 -0.0077  0.0124 -0.0216
55569W        W56433  11.685  24.283  27.327  0.1589 -0.1833  0.0484
55570W        W56434  13.016  26.575   2.312  0.0291  0.0594 -0.1459
55571W        W56435   1.635   8.024  18.067 -0.0033 -0.1034 -0.0294
55572W        W56436   0.369  10.111   2.453  0.4563  0.2905 -0.2461
55573W        W56437  15.901  27.210  23.826  0.0582  0.2398 -0.0756
55574W        W56438   4.247  18.491   8.853  0.1784 -0.1120  0.0841
55575W        W56439  24.349   8.688  11.631 -0.3849 -0.0949  0.0288
55576W        W56440   2.058   7.237   7.741 -0.1667  0.3066  0.0878
55577W        W56441  28.013   8.676   6.977 -0.0139 -0.1885  0.1593
55578W        W56442  28.614  20.508   8.507  0.1278 -0.0033 -0.3703
55579W        W56443  27.218  23.306   8.876  0.0494  0.0372 -0.1294
55580W        W56444  22.498  23.122  16.873 -0.0175 -0.2168  0.0923
55581W        W56445  19.487  17.783  12.963 -0.0672 -0.1075  0.1537
55582W        W56446  10.026   8.506  24.623 -0.2086 -0.0530  0.0470
55583W        W56447   1.498   9.093   0.603  0.0822 -0.1463  0.3421
55584W        W56448  26.739  11.467  28.315  0.1269 -0.0539  0.0215
55585W        W56449  24.997   8.615  26.185 -0.1306 -0.0524 -0.3453
55586W        W56450   9.733   1.712  20.082  0.0679  0.2652  0.0738
55587W        W56451  12.057  24.912   9.539 -0.0181  0.3157 -0.2341
55588W        W56452  22.596  19.544  28.505 -0.0848 -0.1750  0.1325
55589W        W56453  11.776  20.248  16.761 -0.2235 -0.0360 -0.0840
55590W        W56454  22.640   9.169  12.206  0.0921  0.3204 -0.1169
55591W        W56455  28.778  16.860  23.637 -0.0894  0.1683  0.0731
55592W        W56456  19.282   4.214  22.398  0.2039 -0.1991  0.1263
55593W        W56457   6.971  10.193  23.793 -0.0563 -0.1940  0.0621
55594W        W56458  26.395  18.780  27.397 -0.1452 -0.3217  0.1713
55595W        W56459  25.251   9.259   0.265 -0.2909  0.1309  0.0717
55596W        W56460  24.672  29.022  19.079  0.0749  0.1396 -0.2544
55597W        W56461   0.096  25.059  24.569 -0.3064  0.1619 -0.1548
55598W        W56462  27.605   2.390   8.062  0.4006 -0.0056  0.0917
55599W        W56463   8.356  17.521  15.812  0.0638  0.0926  0.0931
55600W        W56464   7.722   2.439   5.570  0.0472  0.1821 -0.1418
55601W        W56465  28.523  15.372  14.494 -0.3815  0.1950 -0.0022
55602W        W56466  16.199  21.327  18.760 -0.1737  0.0039  0.3847
55603W        W56467  18.801  10.544  11.530 -0.3937  0.0981 -0.2132
55604W        W56468  20.330  19.233  25.627  0.1388  0.3274 -0.3343
55605W        W56469  19.940  17.088  21.101  0.1348  0.1795  0.0745
55606W        W56470  13.821  15.167  15.980  0.2925  0.2762  0.0872
55607W        W56471  10.552   7.802  22.958 -0.3243 -0.0841 -0.0309
55608W        W56472  22.037  22.822  27.604 -0.0686  0.0353  0.5113
55609W        W56473  19.046  17.734   2.169 -0.2606  0.0284  0.2186
55610W        W56474   6.866   6.166  14.948  0.1002  0.0392  0.0509
55611W        W56475  28.079   7.353  21.739 -0.2561 -0.1176 -0.2351
55612W        W56476  23.750  18.746  14.094  0.1526  0.3543 -0.1866
55613W        W56477  18.075  11.464   6.828 -0.0842 -0.1743  0.0079
55614W        W56478  14.342   2.289   5.130  0.0033 -0.2561 -0.3478
55615W        W56479   2.470   6.217   2.689  0.1744 -0.4893 -0.1137
55616W        W56480  19.539  25.187  16.030 -0.0416  0.2337  0.1508
55617W        W56481  27.013  28.832  16.380 -0.0301  0.0051  0.0127
55618W        W56482  23.434   0.837  17.966 -0.1398  0.2845  0.0129
55619W        W56483  21.407  26.606  26.230  0.1347 -0.1145  0.0543
55620W        W56484  23.970  23.113  24.281 -0.3427 -0.1398  0.1467
55621W        W56485   2.255  17.513   7.372  0.0729 -0.1300 -0.1281
55622W        W56486  17.660   2.232  11.896  0.3980  0.0099 -0.2224
55623W        W56487  27.074  19.332  27.369 -0.1649  0.2812 -0.0715
55624W        W56488  12.394  14.652  14.540 -0.2052 -0.0402  0.3924
55625W        W56489   4.839  10.459  19.397 -0.3385  0.1846  0.2256
55626W        W56490  14.722  27.306  19.279 -0.0453 -0.5710 -0.2313
55627W        W56491  23.434   3.375  16.637 -0.3553  0.1160  0.0276
55628W        W56492   5.167   4.007   1.388  0.3014 -0.0023 -0.2062
55629W        W56493   7.572   8.418  12.095  0.1382 -0.2306  0.1727
55630W        W56494  18.271  15.676   1.638  0.0356 -0.0914  0.0726
55631W        W56495  23.963  27.760  21.969  0.1299  0.0283 -0.0340
55632W        W56496  25.392   6.059  12.587 -0.0036 -0.0008 -0.1856
55633W        W56497  22.928  28.258  22.845  0.4167  0.1605  0.0505
55634W        W56498  21.394  10.629  18.552 -0.1161 -0.1778  0.3131
55635W        W56499  25.651   5.747  10.011 -0.3193  0.0740 -0.3144
55636W        W56500  25.864  10.256  21.818 -0.2099 -0.3434  0.3380
55637W        W56501   1.765  13.516   5.142  0.3742 -0.0217  0.1823
55638W        W56502   8.235   9.727  13.156  0.0269  0.0657 -0.1397
55639W        W56503  15.350  25.993  16.425  0.0824  0.0617  0.1939
55640W        W56504   4.346   4.440  14.025  0.0836  0.1342 -0.3166
55641W        W56505  21.568  28.292  18.725  0.0790 -0.2541  0.2164
55642W        W56506  15.925  27.412  26.393 -0.1848 -0.0147 -0.3087
55643W        W56507  24.109  24.011   8.137  0.1817  0.1022  0.0590
55644W        W56508  18.503  25.865  17.109 -0.0641 -0.0316  0.0475
55645W        W56509  18.399  19.095  19.599  0.5214 -0.0898 -0.2947
55646W        W56510  25.824  11.666  15.057  0.2421 -0.1477  0.0390
55647W        W56511  23.252  21.929  21.254 -0.1113 -0.3734  0.0291
55648W        W56512   4.158  11.931   4.241  0.3084 -0.1343  0.0303
55649W        W56513   9.958   5.791  11.020 -0.2112  0.1679  0.0360
55650W        W56514   0.686   4.606   9.571  0.0535  0.2047  0.0360
55651W        W56515  16.052   9.651  23.605 -0.0526 -0.0111  0.2749
55652W        W56516  22.267  12.811  25.258 -0.0939 -0.1138 -0.0292
55653W        W56517   9.083   2.207  21.922 -0.3587  0.2193  0.1152
55654W        W56518  18.186   9.702  24.850 -0.1792  0.1858 -0.0564
55655W        W56519  13.085   1.325  17.579 -0.0031 -0.0709 -0.0340
55656W        W56520  26.340   7.766  21.150 -0.1735 -0.2179  0.0702
55657W        W56521  13.345   6.972  20.420 -0.0786 -0.1559 -0.1720
55658W        W56522   9.050   3.017  20.263 -0.0461 -0.1061 -0.0797
55659W        W56523  21.239   0.997  20.928  0.0322  0.1396 -0.3389
55660W        W56524   6.849   2.061  18.161  0.1593  0.0815  0.0992
55661W        W56525   5.641   8.391  24.820 -0.0905 -0.0989 -0.0512
55662W        W56526   2.583   5.161  11.738 -0.2675 -0.0402  0.1984
55663W        W56527   1.378  12.289   8.862 -0.1308 -0.2347 -0.2331
55664W        W56528  24.713  14.140  10.791 -0.2151 -0.0186 -0.3075
55665W        W56529  13.873  21.227  25.774  0.3601 -0.2140  0.0522
55666W        W56530  19.088   0.740  17.137  0.1853 -0.0797 -0.1351
55667W        W56531   0.905   2.804  12.752  0.1799  0.3813  0.0495
55668W        W56532  10.020  14.583  16.161 -0.0668  0.1144 -0.1117
55669W        W56533   3.429   0.997   1.936 -0.0169 -0.0461  0.0926
55670W        W56534   5.971   5.357   7.730  0.0453 -0.1269  0.0289
55671W        W56535  25.912  15.217  22.861  0.4602  0.1448  0.2084
55672W        W56536   5.423   7.052   3.373 -0.1368  0.2492 -0.0005
55673W        W56537  18.077  14.472  10.148  0.0673  0.1470 -0.0106
55674W        W56538   9.142  21.207   9.093 -0.0181  0.0299  0.0373
55675W        W56539   3.315  28.178  23.135  0.1104 -0.3403  0.0841
55676W        W56540   8.885   2.653   7.207  0.2050 -0.1815 -0.1125
55677W        W56541   3.781  28.519  14.692 -0.1808  0.1363 -0.2137
55678W        W56542  20.859   8.830  16.979 -0.0278  0.1328  0.2375
55679W        W56543  18.573   3.402  13.818 -0.2164  0.0698  0.1410
55680W        W56544   0.626  21.145   2.335  0.2521  0.1005 -0.0579
55681W        W56545  15.929  12.992  23.555 -0.1253 -0.0283 -0.2330
55682W        W56546   1.181   8.589  26.980  0.4095  0.1225  0.1086
55683W        W56547  20.768   1.831  12.596  0.1390  0.1216  0.0224
55684W        W56548  27.702  13.743  27.998  0.1531 -0.3307  0.0665
55685W        W56549  21.872   7.265  14.917 -0.1489  0.4113 -0.1331
55686W        W56550  24.390  12.647   2.768 -0.0986  0.1415  0.1905
55687W        W56551  24.021   6.497   3.930  0.1563 -0.2472  0.0757
55688W        W56552   1.692  26.030   8.469  0.2513 -0.2552 -0.3255
55689W        W56553  15.836  28.718  24.807  0.3387  0.1213 -0.1412
55690W        W56554  18.984   6.939   6.961 -0.0819  0.0303  0.1149
55691W        W56555  25.668   0.315  14.792  0.1397 -0.1284  0.0263
55692W        W56556  16.285   6.868  21.046 -0.1564 -0.0211 -0.1042
55693W        W56557  26.631  26.684  22.378  0.1484 -0.4439 -0.1735
55694W        W56558  15.818  14.508  25.264 -0.1430  0.1056  0.0164
55695W        W56559  19.337   2.230  14.086  0.3712 -0.0606 -0.0271
55696W        W56560   6.366  11.394  11.369  0.0836 -0.0823  0.2264
55697W        W56561   0.339  14.097  22.007  0.2666  0.0488  0.1101
55698W        W56562  23.639   6.567  19.253  0.0323  0.0336  0.1020
55699W        W56563   1.601   0.221  28.094 -0.2093  0.1261 -0.0816
55700W        W56564  14.423   6.735  18.803  0.2099 -0.2620  0.1111
55701W        W56565  24.576   8.258  19.080  0.0883 -0.1551  0.1641
55702W        W56566  20.193   7.963  25.403  0.1671 -0.3388 -0.0618
55703W        W56567  26.686   7.384  23.792 -0.1673  0.2600  0.0608
55704W        W56568  15.662   2.142  21.599 -0.2130 -0.3763  0.0437
55705W        W56569  23.003   7.216  16.017 -0.0608 -0.1107 -0.4934
55706W        W56570   3.171  26.669   0.271  0.1041  0.1011  0.0594
55707W        W56571   2.114  16.631   7.714  0.0773  0.2393  0.0692
55708W        W56572  27.308  16.017   1.832  0.2726  0.0794 -0.1663
55709W        W56573  10.281   4.416  18.216  0.0634 -0.0543  0.2611
55710W        W56574  10.722  16.286  26.880  0.1762  0.1058  0.0204
55711W        W56575   3.739   2.129  20.256 -0.1248 -0.0911  0.1830
55712W        W56576   5.783   7.335  17.749 -0.0213  0.1335 -0.0528
55713W        W56577  20.085  17.366   6.325 -0.1292 -0.0952  0.0897
55714W        W56578  21.335   9.578  13.552 -0.0681 -0.1868 -0.1510
55715W        W56579  27.802  23.428  16.287  0.0795 -0.0374  0.2276
55716W        W56580  22.068  26.941  12.985 -0.0585 -0.2926 -0.0719
55717W        W56581  22.877   9.042   5.259 -0.0200  0.2697  0.0499
55718W        W56582  15.005  13.323  26.776 -0.2580  0.0342 -0.0086
55719W        W56583  16.200  24.784   5.232  0.0066  0.2998 -0.2715
55720W        W56584   8.290  13.503  16.958 -0.0908 -0.2319 -0.1098
55721W        W56585  25.725   9.435  18.265 -0.3157  0.1484  0.0037
55722W        W56586   5.750  28.109  27.331 -0.0619 -0.0711 -0.1465
55723W        W56587  16.461   7.161  24.808 -0.0658 -0.0413 -0.2054
55724W        W56588   0.053  23.864  21.362  0.3142  0.1432 -0.0694
55725W        W56589  27.137  28.846  24.797 -0.1374 -0.0675  0.0898
55726W        W56590   5.932  16.073  23.684  0.1361 -0.2049  0.0510
55727W        W56591  11.081  24.447  23.153 -0.2094 -0.3090  0.0603
55728W        W56592   0.365  27.892  16.348  0.0085 -0.0050  0.3552
55729W        W56593   0.940  28.974  10.198 -0.1926 -0.1709 -0.1885
55730W        W56594   5.553  22.629  23.351  0.1276  0.1346  0.1954
55731W        W56595  15.604  11.127  28.261 -0.2129  0.3656 -0.1886
55732W        W56596  20.076  18.247  11.721  0.2052 -0.0428 -0.0549
55733W        W56597  22.469  20.149  11.988  0.4303 -0.0106  0.0477
55734W        W56598  18.699  28.446  17.023  0.2765  0.0182 -0.1812
55735W        W56599  22.672  19.591  14.591 -0.0538 -0.1350  0.2378
55736W        W56600   8.303   1.598  17.720  0.0365 -0.1489  0.1310
55737W        W56601  18.277  15.671  21.782 -0.2312  0.2525 -0.1584
55738W        W56602  22.493   1.948  23.655  0.0516 -0.0255  0.4787
55739W        W56603  22.706  11.609   9.558  0.1385 -0.0585 -0.1655
55740W        W56604  27.981  22.925   7.325 -0.0753 -0.2681  0.1022
55741W        W56605  28.905   3.694  25.369 -0.1522  0.1316 -0.1292
55742W        W56606  16.425   2.688   5.897  0.0278  0.0840  0.3073
55743W        W56607  29.077   8.382   3.266 -0.2930 -0.0706  0.1236
55744W        W56608   5.229   0.359   2.894  0.0907  0.1628  0.2507
55745W        W56609  25.978  22.048  22.772  0.0821  0.0707 -0.1241
55746W        W56610   0.391   4.140   7.054  0.0860  0.1932  0.0242
55747W        W56611  23.650  18.565  12.101 -0.0950 -0.1458 -0.1809
55748W        W56612   6.059  20.529  12.149 -0.2954 -0.0835 -0.3064
55749W        W56613  25.212  11.015   7.598 -0.1416  0.1827  0.2210
55750W        W56614   4.711   0.858  25.919  0.0227 -0.5651 -0.1202
55751W        W56615  27.577  26.946  28.361  0.0510  0.1493  0.0401
55752W        W56616   8.716   6.468  18.711 -0.2039 -0.0231 -0.2341
55753W        W56617  11.350  12.601  14.266 -0.0145 -0.0853 -0.3700
55754W        W56618  10.722  19.986   1.588 -0.1137 -0.0642  0.0930
55755W        W56619  24.900   8.801  10.344  0.0676 -0.0988  0.0886
55756W        W56620   0.328  22.303  19.709  0.4336  0.0331 -0.0065
55757W        W56621  23.219  11.439   1.472  0.3619  0.2997 -0.0700
55758W        W56622  27.693   6.112  21.689 -0.1137 -0.2703 -0.2243
55759W        W56623   0.241  21.365  24.266  0.0608 -0.0059  0.4932
55760W        W56624  23.147  10.454  19.917 -0.1703 -0.1533 -0.2117
55761W        W56625  22.814  21.207  10.605 -0.1510  0.0395  0.1062
55762W        W56626  20.136   9.713  14.317 -0.0565 -0.0368 -0.0659
55763W        W56627  28.555  16.936  11.317 -0.0474  0.0182 -0.0802
55764W        W56628  28.265   4.049   0.240  0.2390  0.0461 -0.1584
55765W        W56629  22.801   0.318   0.458 -0.0740 -0.1050  0.1811
55766W        W56630  28.381  11.702   0.613  0.0949 -0.0929  0.0302
55767W        W56631  19.213   8.103   8.722  0.1352  0.2803 -0.3339
55768W        W56632  18.729  26.780  22.644  0.0983  0.1976  0.0356
55769W        W56633  23.730  19.559   7.069 -0.0951 -0.0289  0.0874
55770W        W56634  15.665  16.214  14.329  0.1066 -0.1587  0.0795
55771W        W56635  18.423   1.497   4.741  0.1850 -0.1936  0.0905
55772W        W56636  26.173   8.743  20.196 -0.1332 -0.1778  0.0656
55773W        W56637   0.232  22.671   0.954  0.0238  0.1062 -0.4349
55774W        W56638  26.021  17.667  11.184  0.0648 -0.3376 -0.1946
55775W        W56639   0.816  18.519  10.793  0.0207 -0.0863 -0.2499
55776W        W56640  22.758   4.913   4.911  0.0903  0.2060  0.2643
55777W        W56641  23.248   5.143  12.625 -0.3071 -0.0145 -0.1306
55778W        W56642   6.521   3.420  25.043 -0.4224  0.2280  0.1307
55779W        W56643   7.704   3.052  22.687 -0.0501  0.3093  0.2277
55780W        W56644  17.854  16.398  24.611  0.3010  0.0298 -0.0066
55781W        W56645  18.314  21.216  16.884  0.3313  0.0441  0.0546
55782W        W56646  21.802  21.408   4.022 -0.2330 -0.1294 -0.1670
55783W        W56647   6.311  23.405  16.262  0.2205 -0.0942  0.3011
55784W        W56648  11.480   1.958  11.547 -0.0019 -0.1438  0.0597
55785W        W56649   2.906   2.372  12.086 -0.2061  0.1107  0.2858
55786W        W56650  24.402   7.392  14.071  0.2129 -0.2102 -0.0919
55787W        W56651  23.872   7.157  28.304  0.0816 -0.0641  0.1905
55788W        W56652  14.147  24.969  25.621  0.0301  0.1542  0.0727
55789W        W56653  20.027  29.018  11.570 -0.1455  0.0182  0.1010
55790W        W56654   5.869   4.432  13.707  0.1321 -0.1308 -0.2574
55791W        W56655  19.835   9.110  23.438  0.0784  0.0263  0.0163
55792W        W56656  26.607  15.675  15.399  0.1659  0.1158  0.3083
55793W        W56657   5.674  20.669  13.441 -0.3166 -0.0727 -0.0955
55794W        W56658  22.207  13.178  24.185 -0.0249 -0.0405  0.1644
55795W        W56659  14.573   2.551  14.060 -0.2294  0.0625 -0.1271
55796W        W56660  12.095  23.214  22.269  0.2206 -0.2876 -0.0317
55797W        W56661  28.465  17.368  22.347 -0.2582 -0.2179 -0.1036
55798W        W56662   9.577   4.208  17.025  0.0354 -0.3152 -0.0670
55799W        W56663  23.707  12.715  22.685  0.3602 -0.0996  0.0053
55800W        W56664   1.738  27.299  19.377 -0.2386  0.2230 -0.0744
55801W        W56665  28.843  21.214  27.319  0.0070 -0.0323  0.1254
55802W        W56666  25.469   2.944  18.512  0.1749 -0.1402  0.1232
55803W        W56667  22.979  24.066  25.172 -0.2583 -0.0865  0.0667
55804W        W56668   1.470  10.432  14.638  0.1068  0.0992 -0.0672
55805W        W56669   2.128  20.002   0.378 -0.1392 -0.1204 -0.0993
55806W        W56670   9.475  10.510  27.415  0.0125  0.1334 -0.2024
55807W        W56671  16.460  12.662  23.784 -0.0743 -0.0598 -0.0026
55808W        W56672   4.175  14.049  18.075 -0.0612 -0.0025  0.2067
55809W        W56673   1.359   7.164  23.341  0.0383 -0.0485  0.2175
55810W        W56674  17.796   7.686  28.212 -0.1161  0.1263  0.0272
55811W        W56675  14.915  15.214  26.040  0.1207 -0.0326 -0.1481
55812W        W56676  20.922  11.564  22.284 -0.2113  0.2453  0.1112
55813W        W56677   0.113   8.809  20.276 -0.0987 -0.1599  0.0242
55814W        W56678  18.036  18.284  20.798  0.0334 -0.1607 -0.1257
55815W        W56679   6.625   5.685  25.089  0.1787  0.1208  0.0532
55816W        W56680   3.475   6.204   2.824 -0.0383  0.1727 -0.1547
55817W        W56681   9.387   2.352   7.866  0.2040 -0.0946 -0.1260
55818W        W56682   0.309   2.689   7.055  0.0808 -0.0574 -0.1449
55819W        W56683  25.053  28.771  16.610  0.1788 -0.2368  0.1156
55820W        W56684   4.123  22.389  19.853  0.0356  0.1157  0.0890
55821W        W56685  14.359  23.567   5.213 -0.2925 -0.1803  0.0274
55822W        W56686  11.743  29.126  10.554 -0.0489  0.1251 -0.1238
55823W        W56687   3.107   7.249   0.187  0.1714 -0.0138 -0.0187
55824W        W56688  15.865   5.454  15.463 -0.2554  0.0969 -0.0351
55825W        W56689  25.614  27.321   9.281 -0.0163  0.4017  0.1041
55826W        W56690   9.085   5.133  17.368 -0.1443  0.0448 -0.3495
55827W        W56691   2.012  14.705  16.688 -0.0298 -0.2617  0.3520
55828W        W56692  14.229  26.257  26.990 -0.0164 -0.0757  0.0141
55829W        W56693  27.016  17.376  18.390  0.0013 -0.1808 -0.0643
55830W        W56694   3.498  11.059   0.065  0.1724  0.0459 -0.1152
55831W        W56695  21.674  11.881   2.343  0.3743  0.2175 -0.0425
55832W        W56696  10.282  19.600   5.139  0.2213  0.0036 -0.0621
55833W        W56697  25.412   8.242  22.798  0.3484  0.4600  0.0653
55834W        W56698  13.317  15.404   1.125 -0.0325 -0.0704  0.1866
55835W        W56699   0.857   2.700  21.177 -0.0133  0.0935  0.0112
55836W        W56700  21.600   6.974  10.487  0.0671  0.1691 -0.0312
55837W        W56701  19.820   2.625  17.287  0.0153 -0.1536 -0.0194
55838W        W56702   7.811  24.589  15.792 -0.0389 -0.1149  0.1093
55839W        W56703  22.970   0.489   7.221  0.2452  0.3460  0.1388
55840W        W56704   0.073  28.862  24.672 -0.2035  0.2553  0.0172
55841W        W56705  18.388   2.008   3.837  0.2456 -0.2102 -0.0306
55842W        W56706  22.272  19.604  21.589 -0.1544  0.0198 -0.3970
55843W        W56707   2.059   8.164  17.645  0.1815 -0.2624 -0.0538
55844W        W56708  21.081  18.150  19.926 -0.0833  0.0028 -0.1829
55845W        W56709   5.514  18.242  16.020 -0.2223  0.0979 -0.3874
55846W        W56710  25.240  20.592  22.462 -0.0962  0.2660 -0.0884
55847W        W56711  26.390  20.169   4.366  0.0043  0.1600  0.0219
55848W        W56712  18.897  23.647  27.357 -0.1428  0.2054  0.2225
55849W        W56713  18.131   4.834  24.685 -0.0755 -0.2296  0.2092
55850W        W56714  26.054   6.525  29.110 -0.2137  0.2011  0.2553
55851W        W56715   8.462   3.157  11.554 -0.0682 -0.0366 -0.1363
55852W        W56716  27.289  13.685  23.047  0.1632 -0.3356 -0.0606
55853W        W56717  14.139  29.126  18.511 -0.3606  0.0356  0.0716
55854W        W56718  23.756   4.283  28.157  0.1536 -0.0735  0.1104
55855W        W56719   4.173  26.136   8.910  0.2568  0.0427 -0.1097
55856W        W56720  24.446  23.040  25.763 -0.2401 -0.0296  0.1286
55857W        W56721  28.590   8.139  24.385  0.1024 -0.1468  0.1865
55858W        W56722   0.730   3.920  18.881 -0.1913  0.0126 -0.3489
55859W        W56723  25.401  28.945  12.798 -0.0986 -0.0619  0.1110
55860W        W56724  19.333  10.023  21.509  0.0572 -0.0135 -0.1812
55861W        W56725   4.541   4.660   7.537 -0.0177 -0.2971  0.5305
55862W        W56726  24.881  21.144   0.796 -0.1749  0.0728 -0.0802
55863W        W56727   0.753  17.086   3.600  0.3865 -0.2600  0.1127
55864W        W56728   5.135   9.574  24.044  0.0346  0.0744 -0.1844
55865W        W56729  21.268  11.509  22.736  0.1493  0.1585  0.2508
55866W        W56730  18.113   2.004   8.622 -0.2111  0.0990  0.0219
55867W        W56731  22.632  23.397  17.335 -0.3607 -0.1747 -0.1494
55868W        W56732  22.336  21.944  25.531 -0.2131 -0.0978  0.0906
55869W        W56733  28.242   6.967  21.398 -0.0960  0.1916  0.0294
55870W        W56734  11.892   0.656   9.160  0.1514 -0.1890 -0.2789
55871W        W56735  24.657  11.010  11.734  0.0278  0.1411  0.1471
55872W        W56736  26.413  21.915  18.811  0.0803  0.1397 -0.0158
55873W        W56737  22.448  27.393   8.222 -0.0466 -0.0033 -0.0087
55874W        W56738  17.148  22.742  15.565 -0.0058  0.0842  0.2651
55875W        W56739  29.024   2.962  21.539 -0.0480 -0.1031  0.1605
55876W        W56740  17.640   8.640  24.287  0.1672  0.0041 -0.2076
55877W        W56741  10.198   1.717  20.048  0.0161  0.3076  0.0200
55878W        W56742   4.562  26.825  16.908  0.0570  0.0003  0.0095
55879W        W56743  26.119  22.339  23.523 -0.1515  0.0006 -0.3543
55880W        W56744  13.610  19.310  18.555  0.0712  0.2435  0.1638
55881W        W56745  25.815   7.620  18.034  0.0953 -0.0904 -0.2394
55882W        W56746   3.556   0.615  17.839  0.1811  0.0800  0.2113
55883W        W56747  22.218   5.381  11.543  0.3820 -0.0970  0.2553
55884W        W56748  14.707  13.414  11.873  0.2048  0.1933  0.0094
55885W        W56749  12.209   0.800  13.864  0.0470 -0.0593 -0.2569
55886W        W56750  19.874  13.468   0.613  0.0112 -0.0162 -0.1112
55887W        W56751  27.976   3.357  22.605  0.1820 -0.3242 -0.0857
55888W        W56752  10.764   0.904  13.084  0.0738 -0.1450  0.1989
55889W        W56753  22.810   9.081  12.666 -0.0017 -0.2111 -0.1821
55890W        W56754  10.577  20.013  23.769  0.1989 -0.1449 -0.1015
55891W        W56755   7.808  23.264   7.336 -0.0553  0.1559 -0.0859
55892W        W56756  22.996  24.587   8.693  0.0101 -0.0364  0.4002
55893W        W56757   2.006   6.954  14.599  0.1409  0.0680 -0.2639
55894W        W56758  21.489  23.248  11.559 -0.1220 -0.3350  0.2464
55895W        W56759  23.141  28.975  19.910  0.2944 -0.1374  0.2220
55896W        W56760  21.350   5.906  26.043  0.1512  0.1660 -0.1222
55897W        W56761   7.569  16.163  19.818 -0.1020 -0.2368  0.1111
55898W        W56762  20.906  24.522  14.142  0.0067 -0.2977 -0.2421
55899W        W56763  11.007  28.911  27.152  0.0817  0.1667 -0.0274
55900W        W56764  21.431  10.848  17.491 -0.0154  0.2878  0.3543
55901W        W56765  12.532  28.186  23.859 -0.1315 -0.0653 -0.2347
55902W        W56766  18.416   7.264   0.708 -0.0151 -0.1062 -0.1542
55903W        W56767   4.438  15.185   4.981 -0.1395  0.4112  0.0782
55904W        W56768  20.460   8.038  20.496 -0.0232  0.0684  0.3275
55905W        W56769  27.503  13.873  15.458  0.0933 -0.1275 -0.2829
55906W        W56770   7.607   1.880  22.680 -0.2697 -0.1115 -0.0783
55907W        W56771  13.996  28.618  18.314  0.1223  0.1856 -0.2836
55908W        W56772  21.987   5.573   0.615 -0.2872 -0.1531  0.1613
55909W        W56773  25.882   3.698   7.420 -0.0506 -0.1484  0.0914
55910W        W56774  23.100  12.493  15.116 -0.1565  0.0455 -0.3816
55911W        W56775   8.121   1.709  20.364 -0.2633 -0.0046 -0.2178
55912W        W56776  11.971   0.359  18.937 -0.0146  0.0646 -0.0976
55913W        W56777   2.476   0.507  25.544  0.3317 -0.0153  0.0012
55914W        W56778  13.394   8.219  15.674 -0.0356 -0.5308  0.0997
55915W        W56779   6.833  16.762  26.981  0.1268 -0.1972 -0.1270
55916W        W56780  12.467   4.103   0.636 -0.2006 -0.1578  0.0661
55917W        W56781   0.799   1.901  25.113 -0.3534  0.0331 -0.2634
55918W        W56782   1.862   6.399  24.422 -0.0584 -0.0239  0.0472
55919W        W56783   2.653  19.555  21.019  0.0734 -0.0815  0.2074
55920W        W56784   8.691   3.083  19.789  0.3054  0.0612 -0.2368
55921W        W56785  14.796   5.057  11.360 -0.0362  0.0949 -0.1533
55922W        W56786  14.625   6.068  10.518 -0.1237 -0.0614  0.0860
55923W        W56787  15.413  10.923  20.213 -0.0028  0.0262 -0.0410
55924W        W56788   1.170  13.990  27.231 -0.1806 -0.0273 -0.0480
55925W        W56789  17.853  28.594  13.401  0.0060 -0.0809 -0.0582
55926W        W56790  27.389  10.401  22.599  0.0681 -0.2226 -0.0572
55927W        W56791   1.717  23.157  20.096  0.2780  0.1430  0.1293
55928W        W56792   8.849  15.233  17.727  0.1647  0.0473 -0.2873
55929W        W56793  10.683  16.205  26.399 -0.1263 -0.2783 -0.0052
55930W        W56794  19.345  26.185  17.378  0.0122  0.1240 -0.0899
55931W        W56795  15.705  14.412  20.785  0.2768 -0.0405 -0.2295
55932W        W56796  11.993   0.689  15.190  0.2564  0.2580  0.3840
55933W        W56797  24.772  21.332   9.839  0.0334 -0.0797  0.1798
55934W        W56798   1.542   1.065  22.695 -0.5372  0.0577  0.4887
55935W        W56799   0.593  11.439  14.785  0.0045  0.0231  0.2395
55936W        W56800  26.268   1.106   7.110 -0.2357  0.0680  0.0126
55937W        W56801  24.357   3.652  21.636  0.0039  0.1378 -0.0283
55938W        W56802  28.179  26.898  23.297  0.1931 -0.2767 -0.0227
55939W        W56803  14.849  18.755  16.074  0.1336 -0.0425  0.0944
55940W        W56804  11.798  26.299  28.144 -0.2243 -0.0232 -0.3156
55941W        W56805  27.661  26.913   3.553 -0.1816  0.0756  0.0345
55942W        W56806   5.313   0.304   3.759  0.1764  0.0995  0.1248
55943W        W56807  16.456  18.877   0.996  0.0829 -0.0343 -0.2176
55944W        W56808  28.974  20.957   9.924 -0.0713  0.0144  0.0441
55945W        W56809  25.674   0.406  25.854  0.2375  0.0374 -0.0546
55946W        W56810  21.874   3.002  26.064 -0.0196  0.2445 -0.1376
55947W        W56811   5.536  19.623   2.507  0.2241 -0.0052  0.3168
55948W        W56812   5.788  14.655  11.214 -0.0706  0.1673  0.2002
55949W        W56813  25.243  25.325  20.893  0.1783  0.0348  0.0772
55950W        W56814   4.132  21.308   4.548 -0.2575 -0.3669 -0.1460
55951W        W56815   2.469   1.792  29.033  0.1904  0.1448 -0.1585
55952W        W56816  18.904   2.326  11.007  0.1914 -0.1983  0.1710
55953W        W56817  14.511   7.278  10.539  0.1380 -0.0483  0.1538
55954W        W56818   2.758  24.571  17.467  0.1581  0.0918  0.0638
55955W        W56819   5.778   4.816  27.325 -0.2776  0.0997  0.1062
55956W        W56820   0.873   5.279  23.446 -0.1087  0.0611 -0.0791
55957W        W56821  25.806  13.313   4.139 -0.0425  0.1123  0.0511
55958W        W56822   3.259  17.247   0.906 -0.1856  0.0605 -0.0451
55959W        W56823  17.325  10.310   7.265  0.0319 -0.1123 -0.1467
55960W        W56824  24.786  14.097  22.090  0.1154 -0.1169 -0.0703
55961W        W56825  18.155   9.422  19.030  0.1138 -0.0891  0.0369
55962W        W56826  11.602  17.998  17.314 -0.0868  0.1206  0.0480
55963W        W56827  17.438   8.138  15.728 -0.2904 -0.0353  0.2891
55964W        W56828   2.851  26.527  13.124 -0.1759  0.1176 -0.1679
55965W        W56829  25.156   6.052  18.594  0.2375 -0.0992  0.0024
55966W        W56830  10.762  24.888  17.330 -0.2350  0.0435  0.2330
55967W        W56831   9.425  26.752  21.280 -0.3095  0.2233  0.0200
55968W        W56832  13.337   9.235   5.627 -0.0128  0.0805 -0.1404
55969W        W56833  26.179   2.222  26.654  0.2598 -0.0530  0.0569
55970W        W56834  17.226  22.595  26.066 -0.0639 -0.0473 -0.1811
55971W        W56835  21.926  28.854  23.709 -0.0833 -0.1164 -0.4340
55972W        W56836  26.701  25.550  26.159 -0.0568 -0.0551  0.1980
55973W        W56837  23.908   7.285  27.407 -0.0457  0.1923 -0.3135
55974W        W56838  24.149  20.616  10.940  0.3952  0.0219  0.1081
55975W        W56839  13.216   7.091   8.848 -0.0513 -0.2720 -0.2908
55976W        W56840  22.231   4.561  20.001  0.0019  0.0347  0.1052
55977W        W56841  27.906  16.039  11.378  0.0612 -0.1775 -0.1364
55978W        W56842  21.451  15.902  20.895 -0.0252  0.1588  0.1112
55979W        W56843   6.362  24.632  16.353 -0.1601  0.0192  0.1579
55980W        W56844   0.237  28.645  21.955 -0.2759 -0.1108  0.1710
55981W        W56845  10.058  17.589  13.598  0.1353  0.2452 -0.1357
55982W        W56846  15.016   8.431  27.992 -0.0775 -0.2383  0.0276
55983W        W56847  27.309   1.057  28.548  0.0951 -0.0733 -0.1128
55984W        W56848  22.755  18.942  24.394  0.0149 -0.0700  0.1847
55985W        W56849   3.291  28.869  25.855  0.0219  0.1116 -0.2751
55986W        W56850  21.397  19.310   7.813 -0.0875  0.0821 -0.1761
55987W        W56851  28.309  12.792   3.905 -0.1173 -0.0185 -0.0261
55988W        W56852  24.845   6.160   7.846  0.0916 -0.1407  0.1312
55989W        W56853  25.529  19.728   6.725  0.1487 -0.1226  0.0688
55990W        W56854   3.190  15.583  17.337 -0.1218 -0.0874  0.1345
55991W        W56855  16.018   4.309  12.770 -0.1529 -0.0830 -0.1062
55992W        W56856  15.821  27.729  25.828  0.1250  0.0515  0.0671
55993W        W56857  16.255  10.969  23.626 -0.1990  0.1190 -0.1064
55994W        W56858   1.271  17.302  21.436 -0.0996  0.0305  0.2568
55995W        W56859  20.655  22.214  19.243  0.0073 -0.1015  0.0290
55996W        W56860  14.823  17.143  21.046  0.2200 -0.1136  0.0429
55997W        W56861  15.389  15.922  25.855  0.1093  0.0283 -0.1121
55998W        W56862  23.475  24.463  27.115 -0.2478 -0.1770  0.2667
55999W        W56863   5.791  10.082   0.361  0.0638  0.1061  0.1796
56000W        W56864   9.312  13.593  23.189  0.0345  0.0104  0.3462
56001W        W56865  22.626  26.287   6.741  0.1953 -0.0004  0.0444
56002W        W56866   0.772  24.552  12.437 -0.0738  0.0228  0.0317
56003W        W56867  23.432  21.227  21.958 -0.0835 -0.2401  0.1034
56004W        W56868   6.792  20.315  21.360  0.0118 -0.1426  0.1634
56005W        W56869   7.657   5.005  28.884  0.1692 -0.0236  0.0272
56006W        W56870   0.917   4.446  27.593  0.1619  0.1096 -0.0222
56007W        W56871  18.524   9.255  22.104 -0.0174  0.0781  0.0414
56008W        W56872  28.264   1.338  21.826  0.1480  0.2766 -0.0962
56009W        W56873  16.125   2.403  20.068 -0.1993  0.2466  0.0356
56010W        W56874  10.928  23.581  22.318 -0.2236 -0.0806 -0.0136
56011W        W56875  20.564   4.597   1.165  0.0565 -0.0391 -0.3762
56012W        W56876   6.720  28.187   1.752  0.0812 -0.0319  0.0404
56013W        W56877   8.707  26.617  21.835 -0.0341 -0.3987 -0.0467
56014W        W56878   0.941   0.539  17.842  0.0552  0.0449 -0.1204
56015W        W56879   3.365   2.745  22.964 -0.4345  0.0312  0.9304
56016W        W56880  25.463   9.490  26.969  0.0089  0.2494  0.0674
56017W        W56881  27.039  10.324   7.286 -0.0172 -0.1223 -0.5122
56018W        W56882  21.217  16.147  24.549 -0.0336  0.2962 -0.1796
56019W        W56883   9.721  25.447  21.466  0.3621  0.1997  0.1024
56020W        W56884  11.880   3.061   9.767  0.3234  0.0882 -0.1952
56021W        W56885  21.082  18.239  24.353 -0.2411  0.1904 -0.1077
56022W        W56886  25.390   8.333  15.081  0.0867 -0.4497  0.0531
56023W        W56887  25.180   1.065   7.614  0.0078  0.0672 -0.1189
56024W        W56888  15.365   7.434  23.582  0.5049  0.2283  0.1683
56025W        W56889  11.192   7.921   6.074  0.1842  0.0564  0.4406
56026W        W56890   6.268   3.891   0.666  0.0233 -0.1763 -0.2974
56027W        W56891  28.164   3.761  22.353  0.1163  0.3685 -0.0582
56028W        W56892  14.239  23.500  14.163  0.1473 -0.0356 -0.0326
56029W        W56893  14.454  14.462  28.432  0.0890 -0.2348  0.0127
56030W        W56894  20.952  14.351  17.040 -0.4102 -0.0245  0.2118
56031W        W56895   4.702  10.920  23.912  0.1089  0.2272  0.0967
56032W        W56896  28.042   3.757  26.540  0.0593  0.1869 -0.0770
56033W        W56897  21.389   6.262   9.885 -0.4929  0.1651  0.2974
56034W        W56898  28.538  19.414  13.299  0.0983  0.1326  0.1693
56035W        W56899   8.001  14.743  22.863 -0.2648 -0.0485 -0.2593
56036W        W56900  22.071  20.712  24.111  0.1003  0.1249 -0.1162
56037W        W56901  25.682   0.969  19.758  0.1239 -0.2069 -0.0530
56038W        W56902  15.884  27.773  17.788  0.0948  0.0836  0.0409
56039W        W56903  27.409   1.243   3.763  0.0532 -0.0297  0.2269
56040W        W56904  21.474   7.284   8.676 -0.1481  0.2350 -0.0192
56041W        W56905  24.328  13.873   7.933 -0.0219  0.1959  0.1173
56042W        W56906  15.363   9.578   6.830  0.1583  0.0584 -0.0018
56043W        W56907  18.459  10.399  10.231 -0.1535  0.3104 -0.1555
56044W        W56908  16.606  25.334  16.017 -0.1849 -0.2644  0.2861
56045W        W56909  20.686  11.457  20.909  0.2131  0.2350 -0.0805
56046W        W56910  24.444  28.086  27.611  0.0603  0.0554 -0.0287
56047W        W56911  21.237   9.416  13.052 -0.2862  0.0909  0.1774
56048W        W56912   1.792  23.956   6.788 -0.3932 -0.2528  0.2126
56049W        W56913  27.844   9.042   2.761  0.1932 -0.0631 -0.1404
56050W        W56914   3.316   9.580  24.620 -0.1721 -0.2363  0.0339
56051W        W56915  12.146  25.681  11.420  0.0986  0.1061  0.0201
56052W        W56916  13.695  11.478   6.562  0.0880 -0.0502  0.1182
56053W        W56917  25.010   8.536  27.902  0.0632  0.2026 -0.1526
56054W        W56918   1.091   8.297   7.295 -0.0257  0.2058  0.2545
56055W        W56919  11.658  24.500   8.918 -0.0915  0.0317  0.2652
56056W        W56920  21.480  12.999  28.627  0.1278 -0.1403  0.0918
56057W        W56921   6.141   5.605  20.640 -0.0995  0.0692  0.1601
56058W        W56922  12.313  11.476  11.006 -0.0251  0.0423 -0.0856
56059W        W56923   4.523  28.957  21.372  0.0672 -0.2089 -0.0332
56060W        W56924  28.430  11.436   3.757 -0.2086  0.1045  0.2597
56061W        W56925   3.090  15.565   5.891 -0.1455 -0.1160  0.0060
56062W        W56926  15.700   8.674  11.811 -0.1159 -0.1458 -0.0413
56063W        W56927  24.437  17.726  23.208 -0.0042 -0.1209 -0.2075
56064W        W56928  21.251  27.759  19.643  0.3214 -0.1100 -0.1263
56065W        W56929   9.213  22.924  19.585  0.1566 -0.1059 -0.0689
56066W        W56930  11.938   6.085  16.118 -0.0026 -0.1839  0.1403
56067W        W56931   5.571  26.311  20.238 -0.1414 -0.1175  0.2727
56068W        W56932  20.199  28.625   9.797 -0.2942 -0.1515 -0.0144
56069W        W56933  19.829  27.470  17.322  0.0225  0.0451  0.1831
56070W        W56934   6.486   2.712  26.485 -0.3112 -0.2368  0.2657
56071W        W56935   0.913   3.766   4.413  0.0593 -0.1499 -0.1920
56072W        W56936   2.654  12.688  17.281  0.1179 -0.1081  0.1751
56073W        W56937   0.294  26.424   1.072  0.1034  0.0376 -0.0192
56074W        W56938  26.314  24.535   6.766  0.1050 -0.1936  0.2835
56075W        W56939   3.037   8.634   4.235 -0.0823  0.1061  0.1006
56076W        W56940  14.330  28.584  15.657 -0.1947  0.1449  0.1755
56077W        W56941  10.651  18.190  25.982  0.2979 -0.1338 -0.4605
56078W        W56942   0.605   1.071  26.481 -0.0723  0.0631  0.1058
56079W        W56943  13.523   7.462  19.691  0.1017  0.1044 -0.1560
56080W        W56944  15.877   8.706  17.012  0.0744 -0.0319  0.0044
56081W        W56945  24.929   3.909   6.008 -0.0789  0.0920 -0.1753
56082W        W56946  27.073  17.582  27.603  0.3219 -0.1792 -0.1297
56083W        W56947   1.311   7.554  22.763 -0.2902  0.2811  0.1081
56084W        W56948  14.679  17.012  20.460 -0.2573 -0.0676  0.2746
56085W        W56949   3.988  23.835  20.934 -0.0695  0.1836  0.0710
56086W        W56950   1.512  10.941   9.428 -0.2448 -0.0143  0.0413
56087W        W56951  22.026  13.842  19.922  0.0079  0.0507 -0.1231
56088W        W56952  14.699   7.898  13.126 -0.0734 -0.2016 -0.1042
56089W        W56953   8.946  17.264  22.455 -0.0303 -0.0487 -0.3021
56090W        W56954  16.399  15.389  10.404  0.0927 -0.0968 -0.0698
56091W        W56955  21.364  14.565   6.078 -0.3703 -0.0092 -0.0824
56092W        W56956   4.562   1.075  24.733 -0.0107 -0.1174  0.2781
56093W        W56957  27.893  20.988  19.878  0.3439 -0.1340 -0.0795
56094W        W56958   1.587  19.806  21.593  0.1201  0.1982 -0.0012
56095W        W56959  16.656  10.567  21.014  0.0890  0.2708 -0.0604
56096W        W56960  12.781   5.997   0.799 -0.4089  0.2011  0.1139
56097W        W56961  23.800   6.914   4.456 -0.1417  0.1039 -0.0140
56098W        W56962  28.349  15.173  11.527  0.0355 -0.1366  0.0923
56099W        W56963   2.313  14.142  28.788  0.1385 -0.0223 -0.0253
56100W        W56964  17.201  13.591  12.989 -0.4548 -0.0100  0.0250
56101W        W56965   3.596   1.686  23.513  0.1750 -0.2314  0.2484
56102W        W56966  27.684  15.748  23.213  0.0495  0.3563  0.0637
56103W        W56967   2.718  24.422  27.614  0.1218 -0.3267  0.4483
56104W        W56968  23.718  16.212  25.848 -0.1159 -0.0415  0.0166
56105W        W56969   6.210  13.977   0.042 -0.3219  0.0824 -0.1552
56106W        W56970  26.542   6.577   0.300  0.5409  0.0183 -0.2950
56107W        W56971   4.892  25.425  25.211  0.1696  0.4679 -0.0939
56108W        W56972   4.065  22.271  20.599  0.0037  0.1229  0.2213
56109W        W56973   5.810  27.032  26.028  0.0154  0.1172  0.1298
56110W        W56974  27.227  20.056  12.099 -0.1619 -0.1676 -0.0690
56111W        W56975   4.809  20.852  15.417  0.0727  0.2562 -0.0850
56112W        W56976   3.814  12.609  19.390  0.1284  0.0038 -0.1559
56113W        W56977  20.534  19.191  27.444  0.0463  0.0211  0.1905
56114W        W56978  21.389  24.966  22.297 -0.2454 -0.2339  0.0839
56115W        W56979  20.848  18.493  21.385  0.0003 -0.0489 -0.2954
56116W        W56980  27.301  18.047   9.523 -0.0778 -0.3895  0.1297
56117W        W56981  11.184   1.988  14.729 -0.0788  0.0533 -0.0377
56118W        W56982   6.712   8.351  12.256  0.3649 -0.1615  0.3137
56119W        W56983  21.774  21.216  24.279 -0.1845 -0.0131  0.1431
56120W        W56984  11.625   5.185  11.832 -0.0942  0.3798  0.2339
56121W        W56985  19.908   6.673  22.018 -0.2285 -0.0693  0.1901
56122W        W56986  27.877  27.377  11.662 -0.0601  0.1172 -0.0548
56123W        W56987  10.284  16.674  12.150  0.4830  0.0966  0.0649
56124W        W56988   9.283   2.524  18.097  0.0493  0.0752 -0.0450
56125W        W56989  25.848  11.679  26.953 -0.0874  0.1141 -0.3064
56126W        W56990  17.804  16.938  21.771 -0.0084 -0.0857  0.1536
56127W        W56991  13.131  24.167   1.208  0.0865  0.0707  0.0679
56128W        W56992   0.530  21.301  16.277  0.0912  0.1340 -0.0597
56129W        W56993  28.661  11.443  19.393 -0.0837 -0.0282 -0.2865
56130W        W56994   5.175  27.384  10.080 -0.0537 -0.1957 -0.3822
56131W        W56995   3.693  17.016   9.103  0.0409  0.0719  0.0443
56132W        W56996  18.549   8.758  28.160 -0.0759  0.1340 -0.1017
56133W        W56997   1.670   8.630   5.369 -0.1785 -0.0703  0.4103
56134W        W56998  22.508   0.768   2.278  0.2522 -0.2409  0.2191
56135W        W56999   2.308  28.256  26.010  0.0453  0.2135  0.2994
56136W        W57000  24.581  28.428   7.160 -0.0795 -0.1330 -0.2502
56137W        W57001  28.934   6.327   2.164  0.3385 -0.0099  0.0131
56138W        W57002   9.482   6.430  28.283 -0.0225 -0.0090 -0.0715
56139W        W57003  25.531  19.739  18.079  0.1328  0.0930 -0.1590
56140W        W57004  11.467  24.741   5.309 -0.2163 -0.1454 -0.1130
56141W        W57005   8.741   9.037  12.183  0.3484  0.1667  0.0804
56142W        W57006   5.860   7.745  17.380  0.1005  0.0127 -0.1690
56143W        W57007  26.874   3.575   2.187  0.2072  0.1597 -0.1270
56144W        W57008  16.106   1.827  15.390 -0.0608  0.0285  0.0051
56145W        W57009   1.758   3.461  10.260  0.3620  0.1653 -0.2361
56146W        W57010  11.787  21.367  28.363 -0.5149  0.2584  0.1857
56147W        W57011  25.253  27.221  24.091  0.0956 -0.4538 -0.2764
56148W        W57012  13.694  23.210  15.475  0.3562 -0.2831 -0.0844
56149W        W57013  23.829  21.677  17.236  0.0165 -0.0558  0.0804
56150W        W57014  27.805  21.097   7.140 -0.1367 -0.2745  0.0665
56151W        W57015   8.292  27.106  28.184 -0.1504  0.0546 -0.0562
56152W        W57016   3.902  10.953   1.797  0.2158  0.1661 -0.1085
56153W        W57017   9.964  24.515   9.333 -0.0742 -0.2406 -0.0689
56154W        W57018   8.674  13.209   8.402 -0.1359  0.0098  0.0442
56155W        W57019  16.106  24.313  22.417 -0.2190  0.0496  0.1430
56156W        W57020  27.136  15.330  24.933  0.0684  0.0764  0.1321
56157W        W57021   4.493   0.439  20.790  0.1034 -0.1807 -0.2257
56158W        W57022  23.833   7.781   8.737 -0.1747  0.1011  0.1252
56159W        W57023   2.483  21.853   3.828  0.1868 -0.1377  0.0619
56160W        W57024  23.442  15.390   7.246  0.2144  0.1245 -0.1358
56161W        W57025  14.064   7.544  11.521 -0.1886 -0.1517 -0.0768
56162W        W57026   3.864   8.621  20.080  0.3861 -0.0647  0.3208
56163W        W57027   6.624  15.543   9.783 -0.0877  0.1225  0.0143
56164W        W57028   4.616   4.049  23.133 -0.0524 -0.1176  0.0807
56165W        W57029  20.102   5.717  21.265  0.1740 -0.0071  0.0475
56166W        W57030  19.047  11.181   0.928  0.2494  0.0725 -0.1491
56167W        W57031   6.606  15.188  14.566  0.3890 -0.1534  0.1704
56168W        W57032   1.648  22.679  25.296  0.1664 -0.0806  0.0363
56169W        W57033  16.745   3.605   0.493  0.2972 -0.1222  0.2781
56170W        W57034   2.813   8.868   3.373  0.4229  0.1083 -0.2776
56171W        W57035  27.033   2.871  20.635 -0.1968  0.0726 -0.0281
56172W        W57036  27.013  23.661  21.417 -0.1950  0.0658 -0.0086
56173W        W57037   4.066  19.502  19.916 -0.0756  0.1339  0.1477
56174W        W57038  28.436   9.334  18.663  0.0971  0.3237 -0.2540
56175W        W57039  27.364  26.389  23.087  0.0538  0.4674  0.0441
56176W        W57040  22.608  21.214  20.672  0.2530  0.0619 -0.3093
56177W        W57041  10.468  27.397   2.687 -0.1454  0.1694  0.1411
56178W        W57042  19.014   8.622   4.613 -0.0043  0.0248  0.2215
56179W        W57043   1.681  14.589  18.160 -0.1164  0.2078  0.1813
56180W        W57044   5.745   1.851  25.732  0.0522  0.3023 -0.0772
56181W        W57045  21.358  15.851  16.807 -0.0833 -0.1437  0.0244
56182W        W57046  28.249  17.898  28.337 -0.1427 -0.3099  0.0003
56183W        W57047   0.762  25.754  24.650  0.0295  0.3444  0.3062
56184W        W57048  21.331  27.876  20.976  0.0762 -0.2144 -0.0021
56185W        W57049   3.830  19.538   5.356 -0.0030 -0.0943  0.0195
56186W        W57050  26.432   2.923  12.424  0.2734 -0.2283 -0.2463
56187W        W57051   8.953   4.025  24.406  0.1089  0.3158 -0.1681
56188W        W57052  25.156   8.899   4.509 -0.0537  0.2084  0.3624
56189W        W57053   0.878  27.091  18.942  0.0209  0.2475 -0.1420
56190W        W57054  23.732  25.689  12.577 -0.0931  0.0712  0.1182
56191W        W57055  23.939   8.189  27.223 -0.0062  0.0919 -0.2432
56192W        W57056  19.363  15.841  11.856 -0.1334 -0.1072 -0.0168
56193W        W57057  11.627  22.244  26.585  0.0295  0.1172  0.2880
56194W        W57058  22.789  11.187  28.781  0.1308 -0.0604 -0.0108
56195W        W57059   3.773   2.372  24.805 -0.0669 -0.2153  0.1077
56196W        W57060  10.160  26.003  27.547 -0.0417  0.1218 -0.2514
56197W        W57061   1.843  12.533  24.028 -0.1467  0.1118 -0.2759
56198W        W57062   8.725   3.372  19.275  0.2927  0.2339  0.1045
56199W        W57063   2.221  14.556   2.785 -0.0094 -0.0877  0.0822
56200W        W57064  17.472   5.701   0.848 -0.1835 -0.0018  0.0908
56201W        W57065  26.075  21.916  19.738  0.0536 -0.1477 -0.1321
56202W        W57066  26.194   0.930  17.801  0.0689 -0.2203  0.0164
56203W        W57067   9.952  11.932  15.625 -0.0772  0.3230 -0.0681
56204W        W57068  14.340  11.646  19.492 -0.1461 -0.2898  0.1983
56205W        W57069  20.126  24.815  23.474  0.7301  0.0296  0.1052
56206W        W57070  24.424   0.308   9.192  0.2397  0.1494 -0.0028
56207W        W57071  20.430  25.657  19.927  0.0548  0.0459  0.1157
56208W        W57072   6.901   8.447  10.534 -0.0738 -0.0666  0.0991
56209W        W57073   2.717   2.071  20.278  0.1322 -0.1479  0.0674
56210W        W57074   6.078   0.173  15.455  0.2941 -0.0753 -0.0392
56211W        W57075  25.502   9.008  20.799  0.2751  0.3361  0.0653
56212W        W57076   1.193  17.830  21.443  0.1958  0.0537 -0.1547
56213W        W57077  27.915   8.953  26.379 -0.1493  0.3363 -0.1672
56214W        W57078  21.655  18.598   3.093 -0.2551  0.1813  0.1738
56215W        W57079  22.356  25.244   8.308 -0.3235 -0.0244  0.3411
56216W        W57080   8.580  27.185  17.692  0.0292 -0.0410 -0.1048
56217W        W57081  17.914  26.440  14.566 -0.2426 -0.2743  0.1337
56218W        W57082  17.950  13.327  23.820 -0.1621 -0.0962 -0.2359
56219W        W57083  21.796  27.086  11.337  0.0209 -0.2196 -0.2655
56220W        W57084   7.646   3.352  19.041  0.0074 -0.0476 -0.2674
56221W        W57085  17.687  21.778   6.603 -0.0586  0.1754 -0.1079
56222W        W57086  27.701  11.749   4.931 -0.0807 -0.2422 -0.3067
56223W        W57087  20.817  20.116   6.961  0.2687  0.0838  0.2225
56224W        W57088  25.486  17.050  14.567  0.0728 -0.3881 -0.2128
56225W        W57089  25.194  22.703   0.496 -0.3706 -0.3265 -0.2156
56226W        W57090   1.062   4.347   1.473  0.2409  0.0277 -0.0514
56227W        W57091   4.325  27.165   2.347 -0.1342 -0.1648  0.3029
56228W        W57092  26.926  24.778  17.011 -0.1675 -0.0075  0.4050
56229W        W57093   4.860  22.465  11.275 -0.2478 -0.0926 -0.0551
56230W        W57094  13.411   6.799  25.015 -0.0654 -0.2053 -0.0291
56231W        W57095  24.740  22.897   1.819  0.1041  0.0553 -0.2171
56232W        W57096  23.196  27.494  14.332  0.1069 -0.2172  0.1193
56233W        W57097  15.538  21.716  28.200 -0.0911  0.0017  0.0592
56234W        W57098  28.123   8.078  26.200 -0.2591 -0.2245 -0.2623
56235W        W57099  12.632  17.159   5.593 -0.0209 -0.0550 -0.1560
56236W        W57100  15.331  25.536  20.070 -0.0923 -0.3957  0.0074
56237W        W57101  18.968  21.340   8.160  0.0897 -0.0096  0.3016
56238W        W57102   8.655  18.323   1.984  0.1891 -0.1333  0.0308
56239W        W57103  26.279  17.047   2.714  0.1392  0.0348 -0.0640
56240W        W57104  19.298  27.988  22.028 -0.0994 -0.0900 -0.1758
56241W        W57105  12.523  27.035  17.856 -0.0655  0.2926  0.1747
56242W        W57106   0.100  11.273   7.459 -0.2256 -0.3257 -0.1191
56243W        W57107  26.546   9.532  18.691 -0.0541 -0.1300 -0.1712
56244W        W57108   4.930  24.102  27.038  0.1084 -0.0574  0.3696
56245W        W57109  28.854  23.242   1.499  0.0867  0.1866  0.1154
56246W        W57110   0.912   0.422  10.285  0.0711  0.1873  0.2297
56247W        W57111  25.579   5.012  25.904  0.0846 -0.0744 -0.2994
56248W        W57112  14.130   9.323  10.177  0.0123 -0.2358  0.1221
56249W        W57113  12.454  17.243  14.315 -0.0621  0.0768 -0.4082
56250W        W57114  14.976   6.566   4.277  0.1553  0.2714  0.0359
56251W        W57115  19.986  25.342  17.832 -0.1382  0.3009 -0.1346
56252W        W57116   2.636   6.240  17.870 -0.1021 -0.1596 -0.1487
56253W        W57117  15.275  23.980  19.789 -0.0787  0.1304 -0.2562
56254W        W57118  26.149  27.883  26.283  0.0574  0.1331  0.1401
56255W        W57119   4.491  11.504   1.885 -0.1432 -0.2096 -0.0150
56256W        W57120   3.427  18.205   6.295 -0.2971 -0.4793  0.0692
56257W        W57121  11.437   6.114  23.304  0.1997 -0.0091  0.2369
56258W        W57122  28.645  18.898   2.992 -0.3079  0.1070  0.3183
56259W        W57123  11.861  27.212  21.938  0.1630 -0.1655  0.0748
56260W        W57124  22.699   3.151  15.919 -0.0440 -0.0960 -0.0235
56261W        W57125  18.696  23.723  11.749  0.0178 -0.2706  0.0319
56262W        W57126  14.160   5.562  24.043 -0.2242  0.1440  0.0528
56263W        W57127  18.601  20.761  21.273 -0.0018 -0.4370 -0.0716
56264W        W57128  14.333  21.578  21.411 -0.0960 -0.0298 -0.0013
56265W        W57129  13.603   9.387  15.502  0.1396  0.2204  0.0635
56266W        W57130   3.219  25.595   7.304  0.1612  0.0711  0.1078
56267W        W57131  10.662   6.941  15.213 -0.0104 -0.3754  0.0754
56268W        W57132  12.746  28.926  16.282  0.2395  0.4683  0.3205
56269W        W57133  24.703  19.365   7.157  0.1132  0.3649 -0.1557
56270W        W57134  25.654   8.698  15.938 -0.3901  0.1020  0.1337
56271W        W57135  16.455  28.151   6.149  0.0133  0.0251  0.0507
56272W        W57136   8.288  25.123  24.453 -0.0204 -0.0364  0.1547
56273W        W57137   3.760  18.482   4.678 -0.1934 -0.1094 -0.1497
56274W        W57138  18.778   3.709  23.287 -0.2622 -0.0897  0.0413
56275W        W57139  24.678  10.517  13.984 -0.2690 -0.0485 -0.0044
56276W        W57140  21.805  20.492  15.393  0.0886  0.2583 -0.0223
56277W        W57141  15.204   8.562  19.331 -0.0578  0.0618  0.0559
56278W        W57142  20.766  13.989  21.200 -0.1009 -0.2906  0.2579
56279W        W57143   4.984  17.570   1.513  0.0175  0.2938 -0.0667
56280W        W57144  19.284  17.866   6.610 -0.1134 -0.1739 -0.2207
56281W        W57145  21.674  10.503   7.170  0.2088  0.0279 -0.0782
56282W        W57146  27.112  28.896  15.768 -0.1776  0.3107  0.1293
56283W        W57147  12.701   5.788  14.449 -0.3142  0.1054  0.1988
56284W        W57148   3.590   9.883  10.625  0.1622 -0.0809 -0.0649
56285W        W57149  13.563   6.327   5.231 -0.2058 -0.3472  0.0848
56286W        W57150  17.522   2.835   9.403 -0.3385  0.0315 -0.2980
56287W        W57151  18.920   8.199   7.435 -0.0090  0.4636  0.0504
56288W        W57152  14.955  26.632  22.527  0.0931  0.3076 -0.0016
56289W        W57153  13.164  17.937  17.116  0.1235  0.3167 -0.3500
56290W        W57154  28.851   9.228  27.491 -0.1392  0.1774  0.0931
56291W        W57155  25.821  25.209  15.143 -0.4404 -0.1646 -0.1362
56292W        W57156  13.131   0.490  22.082  0.3799 -0.2293 -0.1046
56293W        W57157  22.516   1.863  10.351 -0.2401  0.0196 -0.2748
56294W        W57158   7.149  23.501  12.996 -0.1032 -0.0232  0.2001
56295W        W57159  26.297  28.997  14.699  0.0943 -0.0077 -0.0187
56296W        W57160   6.088  23.298  28.992 -0.2078  0.0164  0.2710
56297W        W57161  28.958  15.482  27.459 -0.0932 -0.1345 -0.2160
56298W        W57162   3.335   4.579  19.927 -0.0278 -0.0649  0.0327
56299W        W57163  27.563  11.281  20.946  0.0599 -0.0681  0.1104
56300W        W57164   0.703   5.969  28.527  0.2669  0.1391  0.0418
56301W        W57165  27.470   3.174   0.130 -0.2866 -0.0419  0.1134
56302W        W57166   9.841  25.451  19.282 -0.1932  0.1019 -0.0680
56303W        W57167   7.725  28.013  28.880  0.2668  0.0210  0.0847
56304W        W57168   8.881  23.923   4.773  0.1241 -0.0120  0.2557
56305W        W57169  11.857   8.156   0.469  0.0599  0.0046  0.0642
56306W        W57170  17.820   4.597   8.835  0.0250  0.0226  0.4928
56307W        W57171   8.857   4.091  28.798  0.0643 -0.0788 -0.1281
56308W        W57172  17.537   5.756  28.452  0.2900  0.1982 -0.0508
56309W        W57173  12.344  16.145  23.792 -0.0746  0.1460  0.0127
56310W        W57174  27.558  14.063  19.567  0.4893  0.0310  0.0062
56311W        W57175  24.308  26.917  21.112 -0.0069 -0.3203  0.1547
56312W        W57176  26.961   0.939  13.738 -0.4182 -0.2241 -0.0616
56313W        W57177  13.633  28.297  22.456  0.4203 -0.0837 -0.0012
56314W        W57178   4.446  25.138  11.890  0.1986 -0.0087 -0.1033
56315W        W57179  26.657   5.089  28.013  0.2770  0.1376  0.0328
56316W        W57180  20.225  27.746  18.158  0.3080 -0.0349 -0.2477
56317W        W57181  16.264  10.991  16.072  0.0420  0.1801  0.2702
56318W        W57182   1.206   1.965  16.203  0.0001 -0.3120  0.0901
56319W        W57183   1.543  18.003  26.874 -0.1157 -0.0038  0.0880
56320W        W57184   6.620  28.854  12.744 -0.0531 -0.2253  0.0626
56321W        W57185  21.042   3.587   4.973  0.1231  0.1426 -0.3220
56322W        W57186  23.798  10.275  24.658  0.1250  0.2380  0.1814
56323W        W57187   1.762  21.948  19.953  0.0127 -0.2552  0.0952
56324W        W57188  19.941  28.710  11.145  0.2566 -0.2652 -0.1684
56325W        W57189  18.379  11.836  21.032  0.2949  0.0161  0.1030
56326W        W57190  28.989   8.701  21.625  0.1327 -0.5730  0.2191
56327W        W57191  24.313   9.819   6.203 -0.1789 -0.0308 -0.1100
56328W        W57192  16.244   7.777   2.843 -0.0188  0.0612 -0.4251
56329W        W57193  23.961  10.660   0.221 -0.3035 -0.1997 -0.0954
56330W        W57194   1.436  17.930  24.538  0.2569 -0.1311  0.0129
56331W        W57195  25.992  23.843   7.703  0.2203  0.3425  0.2905
56332W        W57196   7.648  18.506  27.238 -0.2286 -0.3059 -0.2110
56333W        W57197   9.323   5.332   4.493  0.3258 -0.1655  0.3174
56334W        W57198  21.037  10.316   3.679  0.1360 -0.0938 -0.0058
56335W        W57199   9.605  15.579   8.832 -0.2373  0.2747  0.0217
56336W        W57200   8.008   1.858   0.858  0.0361  0.3765 -0.0780
56337W        W57201   8.047  12.227   1.851  0.0450 -0.2199 -0.1143
56338W        W57202  11.421  11.426  21.233 -0.0633  0.4422 -0.1516
56339W        W57203   9.970  24.117  24.507 -0.1839 -0.0745  0.3478
56340W        W57204  23.413  21.278  16.567 -0.3137 -0.0335 -0.3185
56341W        W57205  27.254   3.980  17.124 -0.1351  0.0612  0.1329
56342W        W57206  18.871   4.744  27.573  0.3918 -0.1183 -0.0276
56343W        W57207  20.866  22.153  17.996 -0.1081  0.1805 -0.1374
56344W        W57208   4.751  20.543  22.625 -0.1780  0.0406 -0.1639
56345W        W57209   0.494  24.283  22.188 -0.1372 -0.1510  0.2187
56346W        W57210   6.162  12.717  11.956  0.2919  0.1290  0.2207
56347W        W57211  19.559  14.903   0.756 -0.4751 -0.1447 -0.1126
56348W        W57212  11.351   0.265  28.274 -0.2515 -0.0764  0.2156
56349W        W57213  22.501  15.986  18.211  0.1099 -0.2756 -0.1933
56350W        W57214  28.776  15.229  24.708  0.0368 -0.1028 -0.3130
56351W        W57215   2.943  13.058  18.166 -0.0356  0.0512 -0.0053
56352W        W57216  22.189  23.619  23.219  0.1631 -0.0378  0.0105
56353W        W57217  16.063  23.990   6.546  0.0105  0.0665  0.1745
56354W        W57218   4.004   4.168  28.060 -0.1436  0.1390  0.1886
56355W        W57219  23.062  10.802  19.558 -0.1506  0.0209 -0.3872
56356W        W57220  20.667   1.308   2.471 -0.1632 -0.0558  0.2065
56357W        W57221  15.096   7.419  12.953 -0.0644 -0.0316 -0.1128
56358W        W57222  18.509  11.752  23.598  0.0129 -0.0465 -0.0270
56359W        W57223   1.662   7.757   6.748 -0.1035  0.0149  0.6265
56360W        W57224  14.341   2.230  21.916 -0.0263  0.2800 -0.0716
56361W        W57225   8.413  26.188  26.354  0.0624  0.2151  0.2374
56362W        W57226   3.601  11.760  16.842  0.0833 -0.1117  0.0640
56363W        W57227  16.497   9.479  14.165 -0.2321 -0.0539  0.0552
56364W        W57228  13.463  26.055  23.206 -0.2154  0.2378 -0.3144
56365W        W57229  18.311   2.843  17.505  0.0969 -0.3811  0.1135
56366W        W57230   0.006  28.558   4.661  0.3025 -0.0767  0.2299
56367W        W57231   3.399   0.058  16.834  0.0534  0.0934 -0.2110
56368W        W57232   8.692   5.171   5.359  0.2874 -0.2480  0.1155
56369W        W57233  16.820  10.541  11.927  0.2409  0.1056 -0.2159
56370W        W57234  17.754  29.095  22.800 -0.1425  0.0735 -0.3718
56371W        W57235  17.551  13.677  24.591 -0.0589 -0.0646  0.0722
56372W        W57236   2.861   4.497   4.121 -0.0051  0.4219 -0.2804
56373W        W57237  27.694  20.986  24.036  0.2083 -0.2155  0.2346
56374W        W57238  25.082   6.569  21.145  0.1081  0.3670  0.2819
56375W        W57239  20.761   6.985  15.781  0.1386 -0.1257  0.3866
56376W        W57240  23.228  23.289   1.700 -0.1618 -0.0354  0.0272
56377W        W57241  28.569   7.279  21.782 -0.2989  0.2355 -0.1729
56378W        W57242  26.631  28.937  14.297  0.1332  0.1322  0.1724
56379W        W57243   8.466  16.438   1.353 -0.1129  0.1739  0.1654
56380W        W57244  20.268  21.101   4.693 -0.0758  0.0613 -0.4662
56381W        W57245   1.515   9.759   3.220 -0.0286 -0.1643 -0.0151
56382W        W57246   3.583  20.505  19.345 -0.0432 -0.1823  0.0410
56383W        W57247  24.992   7.106  26.085 -0.4158 -0.2160 -0.1924
56384W        W57248  13.573  28.513  18.529  0.3232  0.1737  0.0802
56385W        W57249  13.529  20.897  20.993  0.3026 -0.0936 -0.2364
56386W        W57250   6.641   3.560  25.894  0.1567 -0.1681 -0.0589
56387W        W57251  13.603  25.928  27.697  0.0227  0.0281 -0.1641
56388W        W57252   5.434  21.967  26.073 -0.2479  0.1237 -0.0069
56389W        W57253  27.380  21.021  27.490  0.0250  0.0059  0.1022
56390W        W57254   5.633   7.268  27.548  0.1557  0.0662  0.3263
56391W        W57255   3.444  22.442  16.451  0.4132  0.2285  0.3313
56392W        W57256  22.748  24.601   2.120 -0.2032  0.0372 -0.1510
56393W        W57257   4.665  10.667  28.533 -0.1051 -0.0809  0.0802
56394W        W57258   3.383  12.324  10.257  0.0952 -0.0964  0.0133
56395W        W57259  27.181  24.646  23.750  0.0679  0.1757 -0.0583
56396W        W57260  24.462  11.666   4.394 -0.0407 -0.3022 -0.2522
56397W        W57261  22.070  20.510   4.297 -0.2049  0.1194 -0.2175
56398W        W57262  28.845   2.564  23.408 -0.3740 -0.0821 -0.0208
56399W        W57263   4.216  22.707  19.067  0.1912 -0.0546  0.1213
56400W        W57264   7.136   1.105   6.728  0.3237  0.0404  0.0072
56401W        W57265  17.183  18.727  24.840 -0.1639  0.2787  0.1527
56402W        W57266   0.171   1.797   3.009  0.1498 -0.1052  0.0475
56403W        W57267   6.475  21.781   9.569 -0.3653 -0.2427 -0.0599
56404W        W57268  29.072  26.224  12.350 -0.0721  0.1769  0.1159
56405W        W57269  19.542   6.104   4.085  0.2703  0.0721 -0.1701
56406W        W57270   8.446  24.854  20.709  0.2035 -0.3173 -0.0649
56407W        W57271  21.329  28.391   1.191  0.1013  0.1155 -0.3669
56408W        W57272  19.631  15.198   9.888  0.0397 -0.0019  0.0653
56409W        W57273  28.853   9.855  20.750 -0.1010  0.0793  0.3715
56410W        W57274   6.181   9.583   6.227  0.3497  0.0645  0.0677
56411W        W57275  22.990   5.231  21.569 -0.2966  0.2085  0.0735
56412W        W57276  18.974  10.961  22.041 -0.0243  0.1719  0.1069
56413W        W57277  20.137  27.491   0.832  0.2097  0.1967  0.2429
56414W        W57278  28.578   1.590  29.043 -0.0120  0.2367 -0.1192
56415W        W57279  12.931  27.773  23.462 -0.0637  0.0466  0.0352
56416W        W57280  29.131  27.286  24.248  0.1755 -0.0417 -0.0458
56417W        W57281  24.898  17.802  14.777 -0.1204 -0.1304  0.1224
56418W        W57282   5.773  19.544  27.595 -0.2477 -0.0657  0.1002
56419W        W57283   5.436  24.103  23.922 -0.0512 -0.3571 -0.2159
56420W        W57284   7.923   6.758  16.959  0.2329  0.4204  0.1227
56421W        W57285  20.216  11.724  17.939 -0.5674  0.5088  0.2132
56422W        W57286   0.638  16.070   4.887 -0.1128  0.2572 -0.1163
56423W        W57287  15.826  25.202   1.385 -0.2330  0.0537  0.1415
56424W        W57288   7.365   1.230   0.503  0.1861 -0.0661 -0.1397
56425W        W57289   7.773   7.825  16.125  0.0002 -0.1166  0.1124
56426W        W57290   8.294  12.405   0.233 -0.0643 -0.0460  0.1276
56427W        W57291  16.286   0.704  10.273 -0.0730  0.1642  0.2366
56428W        W57292   1.260  14.667  22.614  0.0815  0.1564 -0.0330
56429W        W57293  24.659   6.179   2.212 -0.1615  0.0910  0.1705
56430W        W57294   7.942   9.900   5.426  0.1789 -0.0244  0.0903
56431W        W57295  16.837  16.539  19.849 -0.0320  0.2419 -0.1800
56432W        W57296  23.876  10.500  21.821  0.0416 -0.0866  0.2833
56433W        W57297   0.626  13.478  21.952  0.0613 -0.0988  0.2389
56434W        W57298  24.386  20.793   7.103 -0.0686  0.0380  0.0112
56435W        W57299  16.988  24.074  14.150  0.2105  0.0230 -0.5821
56436W        W57300  24.148   5.464  18.492 -0.0688  0.0018 -0.0251
56437W        W57301   0.120  26.326   4.311 -0.3809  0.0105  0.2788
56438W        W57302  22.783  17.482   1.257  0.1131  0.1069  0.0369
56439W        W57303   8.834  14.381   4.343  0.0241 -0.1019  0.0628
56440W        W57304  24.297  26.119   5.168  0.3975  0.0746 -0.1323
56441W        W57305   1.676   2.951  23.865  0.1957 -0.0700 -0.1843
56442W        W57306  27.250  18.259  16.812 -0.0581  0.0445  0.0677
56443W        W57307  21.144  13.746   5.853 -0.0051 -0.0340 -0.3700
56444W        W57308  16.099   7.254  21.349  0.1884  0.1116  0.1869
56445W        W57309  20.451  12.401  26.010 -0.0030  0.2079  0.0089
56446W        W57310   9.769  27.954  27.725  0.0987  0.1424  0.2799
56447W        W57311   7.057  13.732   0.514  0.0422 -0.1604 -0.1639
56448W        W57312  12.835  26.092  23.430  0.1686  0.2220  0.2976
56449W        W57313  17.558  26.122  10.509  0.0953 -0.1766  0.0525
56450W        W57314   8.151  11.122   2.403 -0.0554 -0.2584 -0.0135
56451W        W57315  23.376   2.927  26.795 -0.1126  0.0303  0.0891
56452W        W57316  27.867  25.110   1.840  0.0102  0.1380  0.0992
56453W        W57317  13.327  23.906  19.835 -0.1289  0.2032 -0.4499
56454W        W57318  18.508  12.844  13.631 -0.0691  0.0333  0.1690
56455W        W57319  25.813   4.981  12.527 -0.2682  0.1790 -0.0201
56456W        W57320   1.633  21.474  26.593 -0.0933  0.0469  0.0180
56457W        W57321  19.266  25.310  16.577 -0.0363 -0.3143  0.1181
56458W        W57322  16.094  14.677   1.068  0.0486 -0.0416  0.0151
56459W        W57323  26.912  15.874   9.168  0.2070  0.1564 -0.1371
56460W        W57324  28.098   4.962  16.420 -0.2245  0.0732  0.0604
56461W        W57325  25.665  25.980   0.043  0.1518 -0.0675  0.2139
56462W        W57326  26.444  19.160  20.851  0.1190 -0.2437 -0.0334
56463W        W57327  15.862  17.584  22.695  0.2226  0.0809 -0.1333
56464W        W57328   2.018  15.530   5.893  0.3877 -0.0476 -0.2703
56465W        W57329   6.629   2.495  24.680  0.1285  0.1576  0.0944
56466W        W57330  19.749  11.858   9.984  0.1871 -0.1524 -0.2377
56467W        W57331  21.757  26.109   4.432 -0.3251  0.0892 -0.4644
56468W        W57332  22.976  19.809  17.630 -0.0322 -0.0548 -0.1863
56469W        W57333   2.104  26.367   9.409  0.1432  0.1901 -0.0709
56470W        W57334  17.205  28.601  12.484  0.1210  0.1710 -0.1287
56471W        W57335  22.227  25.153  23.858 -0.1010  0.1972 -0.0773
56472W        W57336  17.536  26.860  10.230 -0.1182 -0.0930  0.0379
56473W        W57337  21.299   1.901  20.047 -0.1238  0.1618  0.5055
56474W        W57338  22.437  16.031   8.644 -0.2350  0.3048  0.0303
56475W        W57339  23.992   6.560   7.480  0.0503 -0.1134 -0.0938
56476W        W57340  17.352  21.104   8.014 -0.0790 -0.0040  0.1029
56477W        W57341  18.953  17.512  24.856  0.0908 -0.0729 -0.0293
56478W        W57342   3.453  23.335   7.319 -0.1408 -0.3032  0.1726
56479W        W57343  22.037  26.885  22.429 -0.1688 -0.1771 -0.2887
56480W        W57344  29.063  26.625  28.763  0.1313  0.0795 -0.0548
56481W        W57345  16.800  11.521   5.932 -0.2432 -0.0266  0.1513
56482W        W57346  10.959  25.434   4.547 -0.2579 -0.2547 -0.0494
56483W        W57347  22.612   6.935  18.554 -0.1759 -0.1103 -0.0694
56484W        W57348  23.073   5.373  19.408 -0.0411  0.0850  0.0094
56485W        W57349   0.153  16.522  24.301 -0.0436  0.1144  0.0673
56486W        W57350  27.248  17.685  28.318  0.0145  0.0021 -0.2284
56487W        W57351   0.505  11.773  12.398 -0.1533 -0.1028 -0.0958
56488W        W57352  26.845   3.605   3.490  0.1511  0.0044  0.1209
56489W        W57353   3.303  20.765  22.450  0.3645  0.2538  0.1531
56490W        W57354   0.978  22.946  28.721 -0.0454  0.0875  0.0592
56491W        W57355   0.673  12.348  20.373  0.2109  0.2051  0.1169
56492W        W57356   7.135   0.522  24.844 -0.0057 -0.0087 -0.4565
56493W        W57357   6.540  28.888   7.264 -0.0591  0.1391 -0.0784
56494W        W57358  27.839   6.528  28.943  0.0327  0.0406  0.0863
56495W        W57359   4.099  10.900   3.130 -0.1742  0.0687  0.1731
56496W        W57360  23.470  23.757  24.873 -0.1226  0.0811  0.2164
56497W        W57361   2.095  22.391  26.801  0.1139  0.3189  0.2418
56498W        W57362  12.083  25.931  22.959  0.0445  0.1578  0.2449
56499W        W57363  23.360  24.156   7.213 -0.0658 -0.1410  0.1692
56500W        W57364  11.549   0.488  18.739 -0.2115  0.2551 -0.2822
56501W        W57365  15.050   6.051  16.794  0.1176  0.2739 -0.1661
56502W        W57366  27.737  29.040   1.091 -0.0670  0.1109 -0.1365
56503W        W57367   4.189   8.235  20.513  0.1175  0.1848 -0.0099
56504W        W57368  23.806   3.747  12.355 -0.0500  0.1822 -0.0709
56505W        W57369  24.382   3.921  20.885  0.0773 -0.0006  0.0819
56506W        W57370  19.795  17.084  27.742  0.2708 -0.0271 -0.0813
56507W        W57371  15.568  28.953  28.396 -0.0020  0.2095 -0.2870
56508W        W57372  26.570   5.565  22.006 -0.1691  0.1962 -0.0211
56509W        W57373  22.775   4.157  11.206 -0.1298 -0.0682  0.2120
56510W        W57374   4.873   1.037  22.858 -0.3449 -0.0297  0.1672
56511W        W57375  25.011   8.656  28.583 -0.1971  0.2120  0.0303
56512W        W57376   9.785   0.731  11.463  0.2247 -0.0456 -0.0059
56513W        W57377  21.526   9.556  19.396  0.2942 -0.0363  0.0576
56514W        W57378  26.377  27.073   9.872 -0.2822  0.2833  0.1881
56515W        W57379  14.223   4.016   5.387  0.0018 -0.0679 -0.2460
56516W        W57380  12.050  24.434  25.469 -0.2028 -0.1591  0.3249
56517W        W57381  20.647  24.811  10.677 -0.0474 -0.2955  0.2527
56518W        W57382  27.520  12.350   0.179  0.0742 -0.0199 -0.0576
56519W        W57383   7.666  12.758   8.348  0.1561  0.0199 -0.1268
56520W        W57384  26.810   9.473  27.292  0.1651 -0.1801  0.0129
56521W        W57385  28.577  10.615  13.716 -0.0555  0.0291 -0.0101
56522W        W57386  11.619  28.957  28.362  0.0698 -0.2420 -0.4437
56523W        W57387  13.960  26.262  23.269  0.1274 -0.1162 -0.2158
56524W        W57388   7.278  18.899  24.925  0.1971 -0.1450  0.0275
56525W        W57389   1.671  24.374   5.819  0.4586 -0.0305 -0.1545
56526W        W57390  10.745  22.449   7.164  0.5005 -0.1453  0.0427
56527W        W57391   7.224  23.801  23.305  0.0160 -0.1245 -0.2334
56528W        W57392  20.789   0.130  16.441 -0.1848 -0.1503  0.0676
56529W        W57393  22.080  21.830  27.284  0.0114 -0.1819  0.0969
56530W        W57394  12.044   5.348   1.483 -0.1404 -0.0973  0.0758
56531W        W57395   0.047  20.673  15.751 -0.4293  0.1955  0.0212
56532W        W57396  16.013  27.937  12.431 -0.0413  0.1953 -0.1821
56533W        W57397  23.580   5.452   6.514  0.1662  0.3756  0.0503
56534W        W57398   6.090  28.379  24.266 -0.0655 -0.2102 -0.1704
56535W        W57399  22.378  15.380  10.966 -0.0249 -0.1533  0.1753
56536W        W57400  27.009   1.696   0.549  0.1777  0.2394  0.0592
56537W        W57401  15.309   2.173   5.999 -0.2316 -0.0629  0.0198
56538W        W57402  12.546  20.052  28.988 -0.0329  0.1035 -0.2664
56539W        W57403   7.015  25.034  25.721  0.0230  0.0059  0.3363
56540W        W57404  10.926  27.719   9.582  0.0051  0.0034 -0.3343
56541W        W57405   4.564  17.623  25.875 -0.0163  0.0045 -0.1820
56542W        W57406  20.862  18.066   8.691 -0.0585 -0.0983 -0.1419
56543W        W57407   5.815   3.232   0.319 -0.2673  0.1126  0.2087
56544W        W57408   3.292  28.673  28.513  0.1923  0.2081 -0.2939
56545W        W57409  22.193  22.273  27.503  0.0519 -0.2364  0.1806
56546W        W57410  20.154  26.997   1.031 -0.1796 -0.3741 -0.1594
56547W        W57411  18.300  28.557  24.662  0.3742 -0.0708 -0.0205
56548W        W57412   4.566  27.421   5.131 -0.1533  0.3486 -0.3255
56549W        W57413  13.476   5.319  25.411 -0.0748 -0.1693  0.1465
56550W        W57414  26.976  18.731  27.453  0.4407  0.1424 -0.0990
56551W        W57415  22.183   6.043  13.912 -0.1389 -0.0068 -0.0885
56552W        W57416  23.189  15.376  16.650 -0.0643 -0.0636  0.0090
56553W        W57417  23.707   7.948  26.343  0.1283  0.1673  0.2446
56554W        W57418   5.063  28.600  19.728  0.4557  0.1827 -0.1705
56555W        W57419  25.178  12.002  12.069  0.3390 -0.2385 -0.2992
56556W        W57420   4.185  12.092   5.859 -0.0763 -0.1126  0.0674
56557W        W57421  10.915  25.086   1.516 -0.0811 -0.0114  0.0361
56558W        W57422  28.468  21.552  13.323  0.4138 -0.0925  0.1505
56559W        W57423  24.913  17.008   5.111 -0.2005 -0.0218  0.4183
56560W        W57424  25.398   5.844  28.799 -0.1560  0.1872 -0.0271
56561W        W57425  14.379  26.712  20.704  0.0103  0.1817 -0.0505
56562W        W57426  25.261  17.317   1.783 -0.0376  0.1223 -0.1577
56563W        W57427  26.338  14.126  24.865  0.0060  0.0245 -0.0770
56564W        W57428  26.473   0.885  14.413 -0.2743  0.0623  0.2830
56565W        W57429   1.914  24.014  14.432  0.0468  0.3776 -0.2030
56566W        W57430  15.593   3.731  26.434  0.1465 -0.0595 -0.0988
56567W        W57431   3.230   8.114  27.103 -0.2279 -0.2421 -0.0723
56568W        W57432   2.779  25.965  12.597 -0.2242 -0.1747 -0.1046
56569W        W57433  19.323  29.096  17.040 -0.0979 -0.3261 -0.1246
56570W        W57434  27.273   3.504  15.620  0.0283 -0.0095 -0.1703
56571W        W57435   3.751   8.445   8.970 -0.1021 -0.0297  0.3367
56572W        W57436  16.683  26.744   0.311  0.2163  0.3706 -0.2390
56573W        W57437  24.820   2.576   0.581  0.0165  0.0384  0.0077
56574W        W57438  23.648  28.866  12.037  0.1625 -0.4145 -0.1812
56575W        W57439   9.104   3.351  21.936  0.3659 -0.1609  0.3444
56576W        W57440   0.530  23.124  19.399 -0.0874 -0.1489  0.0579
56577W        W57441  11.840  25.369   5.434  0.0036  0.1097  0.1826
56578W        W57442   6.171   0.776  22.349 -0.1960  0.1115 -0.0999
56579W        W57443  20.130  21.170  28.392 -0.0633  0.0103  0.0645
56580W        W57444   4.281   6.512   0.709  0.1738  0.1227  0.2614
56581W        W57445   1.029  12.288  27.244 -0.0508 -0.1711  0.1755
56582W        W57446  25.148  25.969  19.744 -0.1299  0.0637  0.1596
56583W        W57447  17.200  24.862  10.350  0.0308  0.2236 -0.1319
56584W        W57448   0.101  26.466   6.733 -0.0446  0.4837  0.0799
56585W        W57449  11.065   3.275  15.769  0.1000  0.3716 -0.0110
56586W        W57450  28.847   7.436  26.154 -0.2935 -0.1722  0.2914
56587W        W57451  16.470   2.247   6.138 -0.0551  0.2098 -0.0516
56588W        W57452  28.101  22.057   1.834 -0.1084  0.0198  0.1944
56589W        W57453   6.711  22.137   5.207  0.0319 -0.0749 -0.1854
56590W        W57454   1.724   1.168  25.916  0.1042 -0.0734  0.0340
56591W        W57455  23.488   7.524  20.845  0.1348  0.1317 -0.0080
56592W        W57456  27.806  28.845   4.877  0.1801 -0.0207  0.2615
56593W        W57457  14.403  27.246   3.619 -0.1180  0.0292 -0.0401
56594W        W57458  25.483   7.931   2.244  0.2473  0.5332  0.0309
56595W        W57459  20.357   5.811  22.227 -0.2537 -0.0693 -0.0892
56596W        W57460  27.652   4.375   8.626 -0.2264  0.1815  0.1794
56597W        W57461   4.764  13.428  13.103 -0.0276 -0.2501 -0.0009
56598W        W57462  17.533   9.143  18.429  0.3111 -0.1886  0.4065
56599W        W57463   3.214  24.728  27.643  0.0321 -0.2938 -0.1249
56600W        W57464   1.968  26.248  26.384 -0.0087 -0.0664  0.0613
56601W        W57465  17.517   8.547  27.079  0.1172  0.1622 -0.1514
56602W        W57466  21.739  27.631   7.044 -0.2933 -0.2344  0.2463
56603W        W57467  25.596   4.785  19.582 -0.0285 -0.0217 -0.1693
56604W        W57468   6.642  18.920  27.254 -0.1413  0.0743  0.2739
56605W        W57469  22.091  11.354   4.730 -0.0624  0.2337  0.1287
56606W        W57470  12.087   4.692  27.550 -0.0383  0.2020 -0.2793
56607W        W57471  13.371  26.159  17.418  0.0585  0.1780 -0.0645
56608W        W57472  15.246   1.314  21.591  0.0680 -0.1719 -0.3318
56609W        W57473  22.780  26.200  13.349  0.0839  0.0614  0.0942
56610W        W57474   3.360  11.400  26.296 -0.2002 -0.0586  0.2153
56611W        W57475  18.752   1.307   5.500 -0.1356 -0.1928 -0.0039
56612W        W57476   3.453   3.146  16.818 -0.3832  0.0464  0.1325
56613W        W57477  27.152   9.548  15.256 -0.0701 -0.0341  0.4724
56614W        W57478   4.369   5.486  15.320  0.0856  0.0848 -0.0373
56615W        W57479  24.822   1.785  26.245 -0.1806 -0.0334 -0.2017
56616W        W57480  22.592  17.571   3.476 -0.3245 -0.0067 -0.0075
56617W        W57481  21.711   6.330  21.353 -0.1381  0.0910 -0.1107
56618W        W57482  14.519  29.131  18.811 -0.0488 -0.2218  0.0752
56619W        W57483  21.870  10.722  24.658 -0.3558  0.0870  0.1585
56620W        W57484  22.920   1.391   3.239  0.1212  0.0923  0.2734
56621W        W57485   3.366   0.101   7.738 -0.1652 -0.0547  0.1354
56622W        W57486  21.767  22.269  19.839  0.1393 -0.0232  0.1771
56623W        W57487   4.915  27.670   5.552 -0.1618 -0.3366 -0.0164
56624W        W57488   1.260  21.947   1.358 -0.1239  0.1448  0.2121
56625W        W57489  16.068   4.936   3.828 -0.2280  0.1913  0.3754
56626W        W57490  15.677  26.863  29.031  0.1145 -0.0988 -0.4427
56627W        W57491  10.323  22.824   6.424 -0.2976 -0.2816 -0.0218
56628W        W57492  25.797   6.008   7.379  0.1381  0.0071  0.0467
56629W        W57493  28.677   0.529  24.812 -0.0937  0.2810  0.0220
56630W        W57494  22.713  26.729  14.171 -0.0503  0.2730 -0.3406
56631W        W57495  19.538   3.712  19.013  0.1093  0.1825 -0.0336
56632W        W57496  12.970   5.222  17.235 -0.0012  0.3152  0.1250
56633W        W57497  17.975  13.842  15.904 -0.0334  0.0397 -0.2316
56634W        W57498  19.841  18.039  15.007 -0.0728 -0.0877 -0.0063
56635W        W57499   4.869  11.625   7.389 -0.2279 -0.2077 -0.0423
56636W        W57500  14.229   8.180  15.498 -0.0363 -0.1598 -0.2292
56637W        W57501   2.050  13.209  19.938 -0.0259 -0.2051 -0.0074
56638W        W57502  26.408   7.626   4.480  0.3178 -0.1204  0.2365
56639W        W57503  12.440  17.884  18.676 -0.1347 -0.0723 -0.0747
56640W        W57504  22.652   6.927  25.902  0.1487  0.0682  0.0831
56641W        W57505  24.511   9.470  24.766  0.2908 -0.1487  0.0633
56642W        W57506   0.959   6.400  28.512 -0.1739 -0.2634 -0.0609
56643W        W57507  24.141   9.334  20.732 -0.1338 -0.0320 -0.0516
56644W        W57508  27.267  15.267   5.285  0.0433  0.0452  0.0003
56645W        W57509  27.201  27.230  15.218  0.0143  0.0569 -0.2207
56646W        W57510  13.799  23.568  24.210  0.2842 -0.2394 -0.0659
56647W        W57511   6.780  12.635  16.971  0.0093  0.0003  0.0842
56648W        W57512  10.235   8.200  15.149 -0.1847  0.0042 -0.3181
56649W        W57513   5.978  21.775  20.834 -0.2077 -0.0574 -0.3379
56650W        W57514   2.263  24.725   4.226 -0.0306  0.2637  0.0235
56651W        W57515   4.016   2.631  10.842 -0.0080 -0.0630  0.1065
56652W        W57516  21.085   8.077  18.831  0.1939 -0.0859  0.2085
56653W        W57517  24.158  26.810   7.869  0.0043  0.0625 -0.1948
56654W        W57518   7.270  24.892  13.205 -0.1590  0.0688  0.0194
56655W        W57519  25.066  13.380   4.905  0.0597 -0.0608  0.0476
56656W        W57520  22.424  26.253  27.231 -0.0013  0.2232 -0.0064
56657W        W57521  13.787   3.187   6.514 -0.0701 -0.1212  0.1455
56658W        W57522  15.356  19.487  28.388 -0.2918  0.1257  0.1796
56659W        W57523  10.012   5.618   2.934 -0.0819  0.0259 -0.1492
56660W        W57524   1.079  10.000  25.598 -0.2013 -0.2506 -0.2883
56661W        W57525  21.655   1.598   7.829 -0.1377  0.0812 -0.0808
56662W        W57526  26.847  20.564   0.354  0.2189 -0.2037  0.1076
56663W        W57527  29.101   5.160  25.149 -0.1554  0.1992  0.2187
56664W        W57528  28.274  12.097   0.886 -0.0793 -0.0882 -0.0066
56665W        W57529  18.829  10.624  26.458  0.1448 -0.0576 -0.2221
56666W        W57530  14.111  23.084   6.048 -0.0468 -0.3345  0.1250
56667W        W57531  26.402   1.715   3.932 -0.0241  0.2451  0.0079
56668W        W57532  10.392   4.310   2.791 -0.1412  0.0004  0.1716
56669W        W57533  14.319  22.850  23.764 -0.0473  0.1674 -0.0502
56670W        W57534   3.541  20.410   5.539  0.0399 -0.4406 -0.3953
56671W        W57535  13.635   3.297  16.927  0.1226  0.1658  0.1414
56672W        W57536  19.185  18.341   4.480  0.2283 -0.1288  0.2008
56673W        W57537  22.767  11.348  24.347  0.0557 -0.0352  0.1002
56674W        W57538  14.795  12.125  24.333 -0.0137 -0.3197 -0.1680
56675W        W57539   5.652  23.854   8.545 -0.0338 -0.0307  0.0910
56676W        W57540  20.407  27.320  13.374 -0.1440  0.0668  0.2433
56677W        W57541  11.993  22.523   8.911 -0.2999  0.0324  0.1901
56678W        W57542  17.943   3.605   0.025 -0.0656 -0.1266  0.0418
56679W        W57543   0.927  23.704  22.334 -0.1167  0.0580  0.0185
56680W        W57544   1.659   8.853   3.572  0.3753 -0.0967 -0.0865
56681W        W57545   9.749  21.565  25.182  0.0760 -0.1172  0.3395
56682W        W57546  23.103  21.605   3.655 -0.0506  0.3283 -0.2577
56683W        W57547   1.929  22.444  12.613  0.2898 -0.0606 -0.3073
56684W        W57548  27.318  21.180  14.389 -0.2077 -0.3095  0.1933
56685W        W57549  17.551   6.362  17.742 -0.3146 -0.0315 -0.0535
56686W        W57550   6.656  23.762  24.577 -0.1913 -0.0303  0.0683
56687W        W57551  10.365  27.048  11.206  0.2305  0.1496  0.1098
56688W        W57552   8.602  16.773  22.354 -0.0095  0.4092 -0.1330
56689W        W57553   4.957  11.384  25.994 -0.1671  0.1249  0.4429
56690W        W57554  20.835  10.840  27.503  0.0571 -0.1378  0.0978
56691W        W57555   1.813  22.394   4.649  0.1020 -0.0464 -0.1865
56692W        W57556  22.821  20.630   5.696 -0.3871 -0.2578 -0.0794
56693W        W57557  13.372  20.370   3.705 -0.3006  0.0829  0.0537
56694W        W57558  25.215  28.103  13.299 -0.1318  0.0991  0.0922
56695W        W57559  12.504  20.046  27.209 -0.2827  0.0051  0.2546
56696W        W57560  27.049   8.690   0.377 -0.0105 -0.0613 -0.0246
56697W        W57561  27.816  17.420  23.020 -0.1172  0.0663  0.0448
56698W        W57562   1.435   3.067   0.172  0.1332  0.0754 -0.0248
56699W        W57563  13.331   3.035   4.258 -0.2718  0.0730  0.0934
56700W        W57564  29.087   7.399  22.645  0.1403  0.0668  0.2691
56701W        W57565  21.784  25.128  24.768 -0.2273  0.0770  0.0218
56702W        W57566  26.734  22.240   4.345  0.1703  0.0205 -0.3577
56703W        W57567  21.879  14.579  26.910 -0.2948 -0.2333 -0.0623
56704W        W57568   2.009  23.137  20.504 -0.0948  0.1315 -0.1157
56705W        W57569   5.443  22.249   0.741 -0.0512 -0.1388  0.0215
56706W        W57570   0.051   4.651   3.998 -0.3876 -0.3389  0.2381
56707W        W57571   9.310  12.510  26.828 -0.1675  0.1491  0.0003
56708W        W57572   5.640   6.535   0.105 -0.1045  0.3054  0.1709
56709W        W57573  11.026   8.388  19.804 -0.0023  0.0615  0.0057
56710W        W57574  15.076  12.066  21.893  0.0487  0.0497 -0.0361
56711W        W57575  12.486  22.189   9.666  0.4715 -0.0435  0.0629
56712W        W57576   1.994  19.628  10.355  0.0892 -0.0079 -0.0106
56713W        W57577  25.475   3.073   4.780 -0.1936  0.2974 -0.2205
56714W        W57578   5.905   7.327   3.614  0.0144  0.0831  0.0965
56715W        W57579  22.677  22.862  23.391  0.3775 -0.1898  0.1772
56716W        W57580   8.946   3.996  27.506  0.1095 -0.1306  0.5443
56717W        W57581   1.419  19.441  13.065  0.4445  0.0898 -0.0149
56718W        W57582  26.052  22.603  24.548 -0.2178 -0.1983 -0.2089
56719W        W57583   1.811   0.551  17.231  0.2651  0.0033 -0.0596
56720W        W57584  18.283   0.239   6.270 -0.1501 -0.2287  0.1685
56721W        W57585  23.820  19.488   4.751 -0.1904  0.0457 -0.0075
56722W        W57586  25.828  19.742  20.856 -0.2673  0.6691  0.3834
56723W        W57587  15.186   2.518  22.380  0.0733  0.0483 -0.1523
56724W        W57588   2.217  13.591  25.624 -0.3258  0.0957 -0.1085
56725W        W57589  11.292  14.677   5.061 -0.0111  0.4222  0.0914
56726W        W57590  28.079  25.803  22.219 -0.1600  0.1213  0.4551
56727W        W57591  27.264   3.933  25.387 -0.2051  0.1136  0.2257
56728W        W57592  16.358   0.714   9.046 -0.0194  0.1539 -0.1096
56729W        W57593  13.469  25.125   0.180 -0.1342  0.2796  0.1673
56730W        W57594   3.061  10.972  22.794 -0.3631  0.0758 -0.2452
56731W        W57595  19.698   4.215   5.989  0.0601  0.1242 -0.1068
56732W        W57596  23.668   1.494  12.062 -0.0223 -0.0807  0.1031
56733W        W57597  27.128  12.015  21.079 -0.1375 -0.2316  0.0659
56734W        W57598   0.767  27.244  22.786  0.1835 -0.1416 -0.0366
56735W        W57599   1.954   8.016   3.800  0.0092 -0.2105  0.1639
56736W        W57600   7.786   7.693   1.887  0.2134 -0.0973  0.1638
56737W        W57601  21.986  24.475   6.781  0.0222 -0.3058 -0.2941
56738W        W57602   2.682  27.351  12.810  0.1446  0.2646  0.2943
56739W        W57603   1.468  15.996   8.360  0.2332 -0.0903  0.0483
56740W        W57604  25.810  17.526  27.420 -0.0954  0.2237  0.0883
56741W        W57605  13.034  10.267  28.654 -0.1932 -0.2115  0.3844
56742W        W57606  28.970   0.619  28.418  0.0548  0.0017 -0.1338
56743W        W57607  12.629   6.471   8.384  0.0076  0.0732 -0.2478
56744W        W57608   5.238  27.053  26.607  0.1756  0.0949 -0.2419
56745W        W57609  18.904  26.623   1.791  0.1828  0.3330 -0.1733
56746W        W57610   4.918  10.301   8.284 -0.0429  0.2709  0.0919
56747W        W57611  14.554  25.540  17.495 -0.0340  0.1407 -0.0870
56748W        W57612  28.429  14.034   2.868 -0.0718  0.1976 -0.0977
56749W        W57613   7.024   3.085   9.927  0.2202  0.1764 -0.1165
56750W        W57614  24.704   7.822   2.698 -0.1960  0.2273 -0.2421
56751W        W57615  26.120  17.266   5.925 -0.3395 -0.2694 -0.4481
56752W        W57616   8.811   2.175  10.845 -0.1918 -0.0566  0.2370
56753W        W57617   5.205   7.431   3.687  0.2009  0.0180 -0.0869
56754W        W57618  27.393   2.722   7.556 -0.1220 -0.1414 -0.3284
56755W        W57619   1.598   2.883   1.829 -0.0755  0.2055  0.3314
56756W        W57620  13.921  17.121  16.610 -0.0987  0.2304 -0.1498
56757W        W57621   1.359  24.781  20.412  0.1483 -0.2266 -0.0543
56758W        W57622  24.841  24.395   2.049  0.0167  0.0785  0.0367
56759W        W57623  24.772  22.365   9.122 -0.0062  0.0604 -0.1264
56760W        W57624  21.558  18.142   3.294 -0.1502 -0.0554 -0.1793
56761W        W57625   2.489  10.556  26.064 -0.0638 -0.2331 -0.0041
56762W        W57626  13.987   2.590   5.996  0.2039  0.3684 -0.1606
56763W        W57627  13.225   0.969   2.023 -0.2200  0.0545  0.1403
56764W        W57628  22.094  20.113  13.429  0.1086 -0.0724 -0.0395
56765W        W57629  20.707   6.317   5.266 -0.4796 -0.4158 -0.1471
56766W        W57630  20.005  12.320  28.714  0.3081 -0.2369  0.0565
56767W        W57631  28.144   1.758  28.837 -0.1763  0.1424 -0.0910
56768W        W57632  25.843   0.292  24.193  0.1611  0.0444  0.2444
56769W        W57633  22.175  24.496  16.065 -0.1211 -0.0262  0.3179
56770W        W57634   7.633   4.313  27.393 -0.2551 -0.1601  0.0070
56771W        W57635   0.120   5.310  10.932 -0.0713  0.0406 -0.2439
56772W        W57636   5.604   7.455   7.316  0.0707  0.0470 -0.0582
56773W        W57637   9.698   5.302  25.145 -0.1740  0.0648 -0.2528
56774W        W57638   4.551  18.654  20.111  0.0147  0.0640 -0.3840
56775W        W57639   4.863   3.171  28.589  0.1531 -0.1349  0.2128
56776W        W57640  22.691  20.838  27.101  0.0556 -0.0972 -0.0931
56777W        W57641  20.953  10.253  22.202  0.0725 -0.1598 -0.1048
56778W        W57642  21.307  26.216   1.582  0.1044 -0.3729 -0.2941
56779W        W57643  12.260  18.491  22.831 -0.1575 -0.2578 -0.1053
56780W        W57644   1.217   4.097   2.339 -0.1476 -0.2327  0.1400
56781W        W57645   2.887  27.854  19.303  0.1723  0.1286  0.1448
56782W        W57646   2.997   3.339  22.290 -0.3205  0.0792  0.2892
56783W        W57647  12.291  10.950   6.521 -0.3735  0.1282 -0.1224
56784W        W57648   0.272   3.666  26.465  0.0167 -0.0134  0.3506
56785W        W57649   6.624  27.032  27.091  0.0822  0.1768 -0.0865
56786W        W57650  17.607  25.509  16.542  0.1303  0.1191  0.0318
56787W        W57651  28.863  29.062  28.798 -0.1398 -0.0119  0.0483
56788W        W57652  19.842  13.984  24.404 -0.1235 -0.0346  0.0952
56789W        W57653  11.942  22.038  18.709 -0.1953  0.0651 -0.1933
56790W        W57654  28.834   5.561  20.783  0.2686 -0.1355  0.1823
56791W        W57655  24.087   1.245  26.272  0.2173  0.2229 -0.1528
56792W        W57656   7.906  19.690  16.442  0.2431  0.0255  0.3272
56793W        W57657   7.211   2.037  27.995 -0.0458  0.1963 -0.1261
56794W        W57658   3.381   0.172  14.065 -0.2187  0.3910  0.3816
56795W        W57659   0.486  12.962   4.624 -0.1792  0.1814  0.1146
56796W        W57660  15.936   2.393   8.743  0.1253  0.1004  0.0778
56797W        W57661  13.238  17.327   2.251 -0.2512 -0.0508  0.0955
56798W        W57662  19.969   5.965  18.079  0.0847 -0.1635 -0.0066
56799W        W57663   4.709  12.101   7.441  0.2241  0.1751 -0.0559
56800W        W57664  23.251  23.879   3.020 -0.3333 -0.0488 -0.0282
56801W        W57665  18.734  26.848  12.412  0.1395 -0.1082 -0.1493
56802W        W57666   6.918  14.764  27.866  0.2388  0.0524  0.0508
56803W        W57667  14.567   7.183  23.695 -0.0631  0.1860 -0.2098
56804W        W57668  16.046  19.176  19.450 -0.1899  0.0598 -0.0491
56805W        W57669  28.144   5.710   2.413 -0.2668  0.0556 -0.0378
56806W        W57670  22.778  20.791  26.074  0.0976 -0.2948 -0.1278
56807W        W57671  25.386   0.698   2.072 -0.3120  0.0049 -0.0486
56808W        W57672  24.825  16.148   2.248 -0.3053 -0.2297  0.0238
56809W        W57673   0.946  20.061   0.162  0.0443 -0.1861 -0.1417
56810W        W57674   5.053  27.588   1.724  0.1397  0.0770 -0.1515
56811W        W57675  23.027   2.396  18.018 -0.0518  0.1665  0.1091
56812W        W57676   2.070   5.463   0.805 -0.0287 -0.0343  0.0152
56813W        W57677  20.762  27.051  22.262 -0.0841  0.1922  0.0884
56814W        W57678   5.257  19.012   3.114 -0.0916 -0.0469 -0.4669
56815W        W57679   7.001  28.341   8.037 -0.1854 -0.1029  0.1987
56816W        W57680  10.094  10.336   7.722  0.1702 -0.0057 -0.0266
56817W        W57681  14.942   0.804   7.889 -0.4223  0.2961 -0.0815
56818W        W57682  18.959  13.340  20.853 -0.0346 -0.1710 -0.0888
56819W        W57683   8.403   2.582  24.590  0.1030  0.0063  0.2540
56820W        W57684   3.562  14.380  11.809 -0.1086 -0.1254  0.1334
56821W        W57685  14.676   8.447   0.867 -0.0239 -0.0654  0.1030
56822W        W57686  18.117  27.454   3.768  0.0748 -0.1248  0.1172
56823W        W57687  21.181  28.656  27.260  0.2911  0.1112 -0.0268
56824W        W57688   7.474  27.543  29.061  0.4256  0.2625  0.1168
56825W        W57689  11.364  29.089   7.903 -0.0212 -0.2705  0.1415
56826W        W57690  28.793   5.067  21.595  0.0079 -0.0204  0.2055
56827W        W57691   2.061  22.309  10.362  0.0082  0.0483 -0.0834
56828W        W57692  10.290  27.313   9.537  0.1698  0.4030  0.1683
56829W        W57693  17.709   0.343  16.103 -0.1884 -0.6226 -0.3149
56830W        W57694   3.848  27.236  28.264  0.1854 -0.1802  0.0688
56831W        W57695  11.957  26.570  13.036 -0.0380 -0.1611  0.1924
56832W        W57696  14.927   3.874  20.464  0.3719 -0.0654  0.0355
56833W        W57697   2.738   4.061   7.224 -0.1568  0.0792  0.0447
56834W        W57698  27.139  13.519  13.095  0.3022  0.1039  0.0373
56835W        W57699  23.747   0.893  19.535 -0.1147  0.1165 -0.3517
56836W        W57700  22.276  25.492   5.724  0.0011 -0.2801 -0.2619
56837W        W57701   9.642  20.669   3.582  0.3101  0.1449  0.1826
56838W        W57702  20.925  23.229  24.738  0.3567  0.0292  0.0845
56839W        W57703  13.450  15.867   9.640 -0.1397  0.0611  0.0187
56840W        W57704  22.494   1.744  21.126  0.1660 -0.2015 -0.0226
56841W        W57705  23.849   6.222  18.308 -0.0065  0.1106 -0.0572
56842W        W57706   7.343  27.357   0.865 -0.1307 -0.0818 -0.1978
56843W        W57707   5.300  12.794  24.505  0.4740  0.3038 -0.1078
56844W        W57708  28.119   2.375  12.681 -0.1052 -0.0264 -0.3177
56845W        W57709   5.527   9.193  24.040  0.1644 -0.2195 -0.1047
56846W        W57710   8.302  20.524  10.008 -0.0855 -0.2633 -0.3861
56847W        W57711  17.713  12.741  18.790 -0.0285 -0.2361  0.1556
56848W        W57712  21.549   8.311  28.682 -0.2903  0.0820 -0.0380
56849W        W57713   9.058  27.976   5.616  0.1322 -0.0179 -0.2861
56850W        W57714  21.078  10.747   7.706  0.3429  0.0148  0.1366
56851W        W57715  14.483   1.673  20.527 -0.2125 -0.0542  0.1452
56852W        W57716   9.595  23.639   5.779 -0.0099 -0.1054 -0.0363
56853W        W57717  15.139   7.641  24.382 -0.2630 -0.1159 -0.3817
56854W        W57718  19.449  27.088  17.310 -0.0412 -0.1615  0.1306
56855W        W57719  25.691   5.540   3.515  0.0957 -0.0592  0.1820
56856W        W57720  26.299  20.285  15.660  0.0160  0.1488 -0.2078
56857W        W57721  12.894  23.028  19.806 -0.1261  0.2133 -0.0425
56858W        W57722  14.007   3.865  24.312 -0.1613  0.1337 -0.0544
56859W        W57723  20.844  10.219   5.254  0.0660 -0.3650  0.0257
56860W        W57724  18.612   8.535  10.899  0.0223  0.0139  0.1861
56861W        W57725   4.705   1.609  11.473 -0.1147 -0.4188  0.1302
56862W        W57726  24.313   4.530   3.961  0.1199 -0.1182 -0.0560
56863W        W57727   7.819  20.612  20.579  0.0676  0.0779 -0.4023
56864W        W57728  28.019  29.142  28.044 -0.0833 -0.0038 -0.0984
56865W        W57729   0.693  20.809  28.764  0.0960 -0.0584 -0.2723
56866W        W57730   4.210   9.955   3.895 -0.3542  0.3335 -0.1275
56867W        W57731  22.400   8.699   2.506  0.1128  0.2197 -0.0266
56868W        W57732   5.048  21.005  26.754 -0.4409  0.0882  0.0128
56869W        W57733  21.849  17.063   8.200 -0.0615 -0.1768  0.0006
56870W        W57734  26.029  19.658   7.937 -0.0521 -0.1382 -0.0529
56871W        W57735   2.211  18.158  26.174  0.0968 -0.2061  0.0244
56872W        W57736  18.980  10.428   1.330  0.1767 -0.3197  0.2957
56873W        W57737  21.045   1.804  16.207  0.0084  0.0875 -0.0622
56874W        W57738  19.708  21.859  11.573  0.2148 -0.0177 -0.1642
56875W        W57739  16.172  13.918   8.771  0.0205  0.0083  0.0157
56876W        W57740  15.777   3.767  16.949  0.0506  0.0481 -0.1031
56877W        W57741  28.281   8.702  19.343  0.0209  0.1582  0.1836
56878W        W57742  27.973   1.822   3.956 -0.2475 -0.1501 -0.4742
56879W        W57743  23.349   6.603  26.580 -0.1176  0.0559 -0.3668
56880W        W57744  19.795  22.462   4.910  0.0022 -0.1632 -0.1621
56881W        W57745  18.158   6.284  20.660 -0.1985  0.0868 -0.1582
56882W        W57746  23.919  23.810   2.114  0.0637 -0.1400 -0.1227
56883W        W57747  20.334   5.429   7.360 -0.0387  0.2467 -0.0077
56884W        W57748   5.639   8.767   0.140 -0.1853  0.3124 -0.1214
56885W        W57749   3.700   0.188  21.864  0.0743 -0.0355 -0.1646
56886W        W57750   9.338   5.506  14.034  0.0375  0.0179  0.1293
56887W        W57751   8.588   7.217  23.016  0.0096  0.0845 -0.2224
56888W        W57752   5.442   8.990   6.740  0.0461 -0.1470 -0.3115
56889W        W57753   1.259   9.353  13.419  0.1327 -0.1412 -0.1350
56890W        W57754   0.196  16.658  23.742 -0.0175  0.1033  0.0322
56891W        W57755  11.594  11.947  12.784  0.1488  0.3280 -0.3659
56892W        W57756  27.893   1.536   1.159  0.0002 -0.2242  0.1544
56893W        W57757  12.048   0.150  10.988  0.0446  0.0797  0.1745
56894W        W57758   1.795  10.607   3.231 -0.3635 -0.0733  0.2091
56895W        W57759   3.971  18.160   0.137 -0.0954  0.1076 -0.2563
56896W        W57760  26.503   1.712   0.727 -0.1725  0.0508  0.1079
56897W        W57761  20.590  21.975  24.801 -0.4605  0.1134 -0.3745
56898W        W57762  19.258   9.725   1.138 -0.1193  0.0980  0.0619
56899W        W57763  27.872  26.982  11.366 -0.0254 -0.3470 -0.2572
56900W        W57764  19.846   9.645  13.682  0.0923  0.2195 -0.1654
56901W        W57765  28.592  27.366  22.390 -0.4825 -0.0712  0.4330
56902W        W57766   2.379  27.655  19.270 -0.1289  0.0856 -0.0322
56903W        W57767  22.977  10.722  25.570 -0.1221  0.0174  0.0521
56904W        W57768  23.369  22.718  14.003  0.0297  0.0915 -0.4014
56905W        W57769   3.793  24.547   5.679  0.5121  0.0666  0.2183
56906W        W57770  19.794  13.749  15.764 -0.0260 -0.1216 -0.1872
56907W        W57771   1.435   9.422  27.610 -0.1070 -0.2638 -0.0454
56908W        W57772  26.889  23.565  19.151  0.0771  0.0104  0.2048
56909W        W57773  15.503  20.018   6.391  0.1874  0.0903  0.1162
56910W        W57774  14.301  24.440   6.022 -0.0136 -0.0662 -0.0443
56911W        W57775  26.778  23.774  15.257 -0.0609 -0.1149 -0.2572
56912W        W57776   5.494  12.505   0.120  0.1233 -0.0453  0.1898
56913W        W57777  14.478  28.506   8.749 -0.1527  0.1779 -0.1150
56914W        W57778  17.080  21.270  23.631  0.3529 -0.2819  0.0319
56915W        W57779  11.602  23.371   7.796  0.0245  0.2741 -0.0309
56916W        W57780  11.878  28.663  23.025  0.1529  0.3716  0.6869
56917W        W57781   1.113   4.739  10.905 -0.0243  0.1538 -0.0047
56918W        W57782   0.068   9.996   0.776 -0.0321 -0.2007 -0.0588
56919W        W57783  14.685  16.690  15.999 -0.2378 -0.1640  0.2910
56920W        W57784   1.017  21.984   5.051 -0.1198 -0.0722  0.1851
56921W        W57785  21.212  15.121  19.501 -0.0951  0.3628  0.1546
56922W        W57786  12.224  10.800   8.920  0.0255 -0.5883 -0.0270
56923W        W57787   5.452   7.971   9.060 -0.1815 -0.3277 -0.2638
56924W        W57788  24.014  14.596  23.950  0.2649 -0.4173  0.2004
56925W        W57789   2.518  17.957  12.964  0.0782 -0.1081  0.0110
56926W        W57790  18.524  16.726  25.480  0.2622 -0.1130  0.3625
56927W        W57791  28.599  15.626  14.067  0.1154 -0.0567  0.1688
56928W        W57792  24.586   7.947   5.698 -0.1391  0.2162 -0.0763
56929W        W57793  20.273   1.343  11.359 -0.1843 -0.0277 -0.2729
56930W        W57794  12.456   6.048   7.820 -0.1131  0.1560 -0.1418
56931W        W57795  18.840   4.262   3.536  0.1538  0.0698 -0.0761
56932W        W57796   3.978  28.580  23.070 -0.1138 -0.1760  0.0481
56933W        W57797  10.680   7.367  23.716 -0.1464  0.1062 -0.3536
56934W        W57798  18.313  20.087  12.269 -0.4329  0.1710  0.1472
56935W        W57799   4.794   9.319   9.608  0.2421  0.0719  0.0193
56936W        W57800   1.852  11.446   6.593  0.2772  0.2951 -0.2827
56937W        W57801   1.640  28.570   2.645  0.3693 -0.2630 -0.0635
56938W        W57802  13.366  12.800   3.876  0.0273  0.0420 -0.0630
56939W        W57803  19.485  15.589  25.652 -0.1463 -0.3494 -0.1135
56940W        W57804  25.036  12.052   5.709 -0.2533 -0.1231  0.1702
56941W        W57805   4.129  10.543  25.308  0.0234  0.0980  0.0333
56942W        W57806  21.968  18.104   9.986 -0.1005 -0.1232 -0.1911
56943W        W57807  21.067   4.477  11.902 -0.2329 -0.2704  0.1216
56944W        W57808  21.507   5.742  11.258  0.0635 -0.2086  0.4413
56945W        W57809  16.941  25.937  28.530 -0.0253  0.1304  0.0647
56946W        W57810  17.671   4.182   4.043 -0.1546  0.0065  0.1816
56947W        W57811  16.926   2.479  12.235  0.1332 -0.0342 -0.2703
56948W        W57812  14.409  15.604  22.473 -0.1588 -0.0024 -0.1428
56949W        W57813  11.519  14.775  16.245 -0.2164  0.2374 -0.0256
56950W        W57814   7.518   3.537  18.234  0.0241 -0.1078  0.0404
56951W        W57815   5.021  28.317   9.086  0.2411 -0.0108  0.3549
56952W        W57816  29.099  16.220  28.615 -0.1329 -0.0711  0.1115
56953W        W57817  25.248   7.386  20.019  0.0942  0.1722  0.1437
56954W        W57818   9.894   9.457   7.552 -0.2510 -0.2972  0.0698
56955W        W57819  17.110  17.624  15.054  0.2103 -0.0577  0.0851
56956W        W57820   1.474  12.938   4.269 -0.2675  0.2397 -0.0574
56957W        W57821  15.677  10.720   9.105  0.1466 -0.1349  0.1374
56958W        W57822  15.400   2.075   7.970 -0.0534  0.0336 -0.3295
56959W        W57823  22.101   9.329  27.030  0.2654  0.2620  0.3057
56960W        W57824  22.650   0.737   8.952  0.1958 -0.1595 -0.0614
56961W        W57825  17.305   9.410  27.493 -0.0081 -0.2479 -0.1148
56962W        W57826   7.396   6.789   6.720 -0.2013  0.0483 -0.2205
56963W        W57827  23.645   0.662  28.447  0.1172 -0.1195 -0.0237
56964W        W57828   8.410  20.186  18.266 -0.2198  0.1552  0.1267
56965W        W57829  19.780  12.549   6.655  0.1424 -0.4036 -0.1767
56966W        W57830  19.383  19.733  15.250 -0.0323 -0.3584 -0.3380
56967W        W57831   5.762   9.898  27.795 -0.0320 -0.0048  0.2858
56968W        W57832   2.911  19.680  16.980 -0.0937 -0.1566  0.0849
56969W        W57833  23.053  18.709  27.761 -0.2758  0.2480 -0.0652
56970W        W57834   7.234   5.080  15.002 -0.2288  0.0091  0.0087
56971W        W57835  25.699  21.891  23.306 -0.1886 -0.1019  0.1815
56972W        W57836  12.296  14.649  11.254 -0.0695  0.0383 -0.0308
56973W        W57837   9.830   0.951   5.869 -0.1455  0.0683 -0.3167
56974W        W57838   3.321   2.737   7.072 -0.2269 -0.3820 -0.1319
56975W        W57839   6.141   4.460  27.457  0.0491  0.0899  0.1130
56976W        W57840  23.452  10.146   6.595 -0.1631  0.1171  0.0973
56977W        W57841   9.055  16.585  16.768  0.1130 -0.0699  0.0306
56978W        W57842  25.012   8.734   1.075 -0.1440 -0.1545 -0.2004
56979W        W57843  28.571   8.876   3.174 -0.2266  0.1934 -0.2397
56980W        W57844   4.124   2.694   4.925  0.0760  0.0585  0.2160
56981W        W57845   5.118  14.034  23.478  0.2420  0.2317  0.0890
56982W        W57846  28.841  12.397  24.193  0.1726  0.1501  0.4317
56983W        W57847  17.870   5.960  11.068  0.0170 -0.0846 -0.1479
56984W        W57848   7.078   6.549   0.016 -0.1392 -0.0788  0.1476
56985W        W57849  27.584  13.343   5.631  0.0076 -0.1407 -0.0882
56986W        W57850  28.603  25.297   0.699 -0.0332  0.3062 -0.0918
56987W        W57851  27.804  26.937  24.145  0.0813  0.2228 -0.2636
56988W        W57852   3.562  13.095  27.853  0.2134 -0.1665 -0.0324
56989W        W57853   7.897   4.182   1.325  0.1990 -0.0332 -0.1391
56990W        W57854  11.094  17.980   7.994  0.0006  0.1907 -0.1563
56991W        W57855  23.494   0.425  26.343 -0.3223 -0.1804  0.0794
56992W        W57856  28.909  16.424   8.951  0.0581 -0.0494 -0.0258
56993W        W57857  20.241  23.551  16.797  0.0437 -0.1147 -0.0328
56994W        W57858  24.541   9.818  28.785  0.0900  0.2236  0.2474
56995W        W57859  25.389  12.707  15.774  0.0968 -0.0607 -0.3883
56996W        W57860  20.878  26.339   0.614 -0.1376  0.1354 -0.2087
56997W        W57861  14.258  14.849  13.219 -0.1503  0.2489 -0.1766
56998W        W57862   2.642  14.370  23.943  0.0122  0.0420  0.0557
56999W        W57863  19.837  18.734   2.218 -0.2018  0.2861  0.1282
57000W        W57864  24.508   4.723  13.816 -0.0057 -0.2216 -0.1089
57001W        W57865  18.723  11.794   2.542 -0.0242  0.0705  0.0270
57002W        W57866  20.036  28.620   4.648 -0.1902  0.1670 -0.1772
57003W        W57867  13.655  10.109  14.770 -0.0552 -0.0047 -0.0724
57004W        W57868   2.606   0.096   3.168 -0.1572  0.1253 -0.1653
57005W        W57869  25.994  23.565   2.343 -0.1035 -0.2294 -0.1940
57006W        W57870   2.991  26.725  25.813 -0.0025  0.0822 -0.0107
57007W        W57871   5.133   5.246  19.510 -0.0220  0.0566 -0.1992
57008W        W57872  26.382  12.762  24.873 -0.1989 -0.2888  0.1969
57009W        W57873   1.468   2.100  14.881  0.2644 -0.1305  0.0431
57010W        W57874   5.033  22.064  16.375  0.3531  0.0042  0.1204
57011W        W57875   2.591  26.812  20.335 -0.0182  0.2149 -0.4609
57012W        W57876  23.968  16.279  19.876 -0.1265 -0.1238 -0.2005
57013W        W57877   9.331  10.552  11.213 -0.1618  0.1723  0.0266
57014W        W57878  27.122   5.770  13.072  0.1623 -0.0440 -0.2269
57015W        W57879   2.925  12.944   7.993 -0.3042  0.1280  0.3227
57016W        W57880  20.037   2.903  13.826  0.2181  0.0138 -0.2192
57017W        W57881  21.934  11.209  22.201 -0.1231  0.1175 -0.6702
57018W        W57882   2.578  26.349   1.675  0.2548 -0.2627 -0.0637
57019W        W57883   8.775   8.107   0.472  0.2916 -0.1182 -0.1373
57020W        W57884  16.930  18.702  12.670 -0.2841 -0.0174 -0.1262
57021W        W57885  21.529  25.023  25.530 -0.0972  0.1130 -0.1519
57022W        W57886  25.097   3.018   7.129 -0.2523  0.2683 -0.0567
57023W        W57887  28.993   1.304  12.087  0.2101 -0.2051 -0.1014
57024W        W57888  18.761  10.313  13.188  0.1533 -0.0687 -0.2156
57025W        W57889  24.096  28.779  17.882 -0.0223  0.1127 -0.0734
57026W        W57890  27.956  11.567   1.756 -0.0478  0.3244 -0.0294
57027W        W57891   7.360   5.418  12.994  0.0089  0.3434  0.2697
57028W        W57892  15.345   9.725   4.495 -0.1603 -0.2041 -0.0773
57029W        W57893   4.707  27.614   1.417  0.0345 -0.1959  0.1897
57030W        W57894  15.309   7.629  13.938 -0.3199  0.0416  0.2723
57031W        W57895   2.988   4.355  22.313  0.0072 -0.0545  0.0603
57032W        W57896   8.049  25.795  29.008  0.1502  0.0626  0.0830
57033W        W57897   2.212  22.736  18.525 -0.0620  0.1078  0.1143
57034W        W57898  11.875   2.280  19.216  0.1239 -0.0207 -0.0502
57035W        W57899  24.460  27.953  16.958  0.2927 -0.2143  0.1347
57036W        W57900  14.912  14.264  10.596  0.0038  0.3255 -0.1646
57037W        W57901   6.306  14.676   1.332  0.0983  0.0656  0.0857
57038W        W57902  28.691   9.363   0.046  0.0371 -0.2985  0.0889
57039W        W57903  16.171  20.514   3.238 -0.1323  0.0869  0.2065
57040W        W57904  23.395   6.627  25.217  0.2337  0.2170  0.1123
57041W        W57905  24.470  26.038  28.365 -0.1641  0.1931  0.1640
57042W        W57906  22.295  14.410   7.606 -0.3657  0.0704  0.1852
57043W        W57907  11.059   6.762  21.317  0.0072 -0.0512  0.2092
57044W        W57908  12.197  23.568   9.517 -0.0021  0.2862 -0.0631
57045W        W57909   0.894   4.400   9.164  0.0266 -0.1235  0.2862
57046W        W57910  23.921   2.927  24.744 -0.1931  0.1453 -0.1747
57047W        W57911  25.666  25.250  27.292 -0.1010 -0.1062  0.2813
57048W        W57912  25.469  17.522  15.085 -0.2755  0.0679  0.0642
57049W        W57913  15.172  23.271   9.827  0.0844 -0.0771  0.0371
57050W        W57914  23.830   8.021   5.218  0.0905  0.0527 -0.1465
57051W        W57915  20.501   4.927  25.379 -0.1397  0.0102  0.1737
57052W        W57916   8.659  22.257  10.705  0.2247 -0.0155 -0.1513
57053W        W57917  17.971  28.993  12.073 -0.2287 -0.2172 -0.0910
57054W        W57918   1.570  22.430  26.755  0.2705 -0.1365 -0.1927
57055W        W57919   3.413   0.406  26.764 -0.1208 -0.1202  0.1632
57056W        W57920   3.932  21.576   8.705 -0.1866 -0.1220  0.0141
57057W        W57921  14.859  26.209   2.161  0.0296 -0.3093 -0.0481
57058W        W57922  17.072   8.535  25.944 -0.0143  0.2213 -0.0552
57059W        W57923  23.612  22.518  20.460 -0.2282  0.2669  0.2844
57060W        W57924  13.979  20.212   0.789  0.1710 -0.1379  0.3534
57061W        W57925  27.416  10.820   5.057 -0.1316 -0.0863 -0.1698
57062W        W57926  25.008  26.947  12.162  0.0140 -0.0359  0.0421
57063W        W57927  14.231   5.836  14.825 -0.1490  0.0528 -0.2206
57064W        W57928  21.374   8.475  12.697 -0.3292  0.1252 -0.3481
57065W        W57929   8.943   4.040  25.520  0.0836 -0.0513  0.1556
57066W        W57930  12.084   3.645  11.393  0.0571  0.0489 -0.0001
57067W        W57931  26.516   2.493   1.146 -0.1333  0.4547 -0.1225
57068W        W57932   3.290  11.668  15.202 -0.2696  0.2986 -0.1470
57069W        W57933  25.852  12.127  19.138 -0.2217 -0.0862  0.3326
57070W        W57934  23.930  17.377  24.284  0.2290  0.0037  0.1610
57071W        W57935   0.278   1.268   8.017  0.1072  0.1809 -0.1300
57072W        W57936  19.338  23.900   2.706 -0.0653 -0.0806 -0.2376
57073W        W57937  26.640  22.170  12.037  0.2033 -0.0871 -0.0106
57074W        W57938  23.957  25.301   5.519  0.0240 -0.3643  0.0502
57075W        W57939  20.997   4.568   3.741  0.2468 -0.0867  0.0212
57076W        W57940   8.506  15.478   9.674  0.0876  0.2042 -0.2714
57077W        W57941  16.896  25.791  18.875 -0.0717 -0.1717  0.1494
57078W        W57942  29.017   8.379  26.059  0.1497 -0.0996 -0.3468
57079W        W57943  24.224  28.152   1.141  0.2849  0.0873  0.2200
57080W        W57944  29.094  11.556   2.705 -0.2050  0.0942 -0.1372
57081W        W57945   9.280   7.845  29.045  0.0561 -0.2390 -0.1686
57082W        W57946  12.414  18.222  16.757 -0.2634 -0.0736 -0.2721
57083W        W57947  21.891  27.233  23.168  0.0678 -0.1238  0.0679
57084W        W57948  28.225   2.692   3.956 -0.0612 -0.1821 -0.0845
57085W        W57949   4.008   1.532   1.371  0.2786  0.2021  0.2101
57086W        W57950  19.927  16.997   5.585  0.1287 -0.5074 -0.4887
57087W        W57951  19.063   7.312  21.081 -0.2535 -0.0826 -0.2261
57088W        W57952  19.758   8.580  19.737 -0.1149 -0.0430 -0.0390
57089W        W57953  19.639   3.202  26.931  0.0073 -0.0789  0.1296
57090W        W57954   9.036   6.281   3.927  0.0467  0.0889  0.2757
57091W        W57955   7.043  13.290  26.936 -0.0782 -0.0610 -0.1050
57092W        W57956  18.885  25.363  10.831  0.2015 -0.1822 -0.1520
57093W        W57957  22.220   8.577  10.526  0.1890 -0.3024  0.1238
57094W        W57958  16.155  18.167  14.738  0.3245  0.1515 -0.2162
57095W        W57959  14.291  12.757  23.138 -0.0648 -0.2518  0.1059
57096W        W57960  24.861   0.590  16.732 -0.2121 -0.1095 -0.0567
57097W        W57961  12.853  19.030  17.480  0.0458 -0.2295  0.2532
57098W        W57962   0.100   6.999  12.344  0.1214 -0.0798 -0.1584
57099W        W57963   5.731   4.334  15.149  0.0339  0.3494  0.2207
57100W        W57964   7.786  12.171   4.506 -0.1265  0.1036 -0.0170
57101W        W57965  17.515  28.776  22.449 -0.2431 -0.0602  0.0494
57102W        W57966   0.181  20.208   0.883  0.0320 -0.0682  0.0385
57103W        W57967  14.665  10.447   0.891  0.0078 -0.3564 -0.2468
57104W        W57968  18.174  24.183   7.801 -0.2021 -0.0427  0.2340
57105W        W57969   0.212  21.146   8.388 -0.3817 -0.0559 -0.2134
57106W        W57970  29.083  14.661   4.703  0.1098 -0.1638  0.2573
57107W        W57971   3.485   9.843  19.799 -0.0690 -0.4882  0.0643
57108W        W57972  17.725  23.805  13.027  0.1496  0.2005  0.3718
57109W        W57973  24.173  11.058  24.084 -0.3349  0.0227 -0.0093
57110W        W57974   9.901  11.824  27.108 -0.0541  0.2677  0.1267
57111W        W57975  16.869   1.548   0.907 -0.0003 -0.1979  0.0633
57112W        W57976  20.146  10.925  19.748 -0.0544 -0.0756  0.0910
57113W        W57977  14.552  25.810  25.921 -0.1330  0.1360 -0.1196
57114W        W57978  11.227  20.627   1.659  0.0431 -0.1288  0.0913
57115W        W57979  19.823   4.117   3.125 -0.1251 -0.0647 -0.0995
57116W        W57980  24.463  13.982  14.032  0.1168  0.2039  0.0848
57117W        W57981   1.118   4.106  20.712 -0.0360 -0.0906 -0.0773
57118W        W57982   1.629   9.024   7.517 -0.4094  0.1859  0.0039
57119W        W57983   5.570   1.945  28.140 -0.0905  0.0056 -0.3595
57120W        W57984  27.292  23.876  24.046  0.1942  0.1644  0.1886
57121W        W57985  26.280  21.348   5.296  0.2322 -0.1102  0.0437
57122W        W57986  21.661  15.408  10.253 -0.2253 -0.0324 -0.1764
57123W        W57987  21.101   8.392   3.080 -0.2393 -0.1060  0.0570
57124W        W57988   0.280  18.561   0.637  0.0246  0.1067 -0.3955
57125W        W57989  28.945  11.557  15.141  0.0321  0.1711  0.3251
57126W        W57990  12.512  20.495  25.875  0.0125  0.0470  0.1204
57127W        W57991  22.569  11.302  28.178  0.0919  0.1486  0.0912
57128W        W57992   2.858   5.161  28.289  0.3825 -0.0041 -0.2438
57129W        W57993  16.173  22.298  10.146 -0.0066 -0.2192 -0.0074
57130W        W57994   1.329  25.098   9.572  0.4647 -0.3387  0.0220
57131W        W57995  21.382   4.342  28.027  0.0700  0.1084  0.0775
57132W        W57996  13.941  25.612  12.519 -0.0556 -0.0109 -0.1484
57133W        W57997  29.100   9.903  22.733  0.0228  0.1279  0.4425
57134W        W57998  25.908   5.887  15.498  0.1900 -0.0464  0.4178
57135W        W57999   3.320   4.062  16.222 -0.3095 -0.3005 -0.0269
57136W        W58000  16.244   5.221   6.323  0.3032 -0.3745  0.1701
57137W        W58001  26.090  23.317   6.967  0.1741 -0.1092  0.0805
57138W        W58002  23.082   2.044   7.593  0.2030  0.1519 -0.0225
57139W        W58003  21.337   6.181  12.290 -0.4314  0.1445 -0.0096
57140W        W58004  25.121   7.035  28.221 -0.1373  0.2041 -0.0273
57141W        W58005   7.031  11.807  21.965 -0.1017 -0.0582  0.1271
57142W        W58006  21.522  22.461  12.477 -0.1282  0.0970 -0.1276
57143W        W58007   7.246   6.603  26.611 -0.1020  0.1422  0.2255
57144W        W58008  27.400  14.693  14.213 -0.0920 -0.1525 -0.0969
57145W        W58009   1.357   7.827  10.559  0.3998 -0.0045  0.0255
57146W        W58010   0.801  13.072   9.089  0.2422 -0.1503 -0.0684
57147W        W58011  19.243   6.748   7.347  0.3009  0.1265 -0.0762
57148W        W58012  28.058  25.251  24.978  0.2372  0.1533  0.3618
57149W        W58013   6.556  21.917   3.621  0.3969 -0.0303 -0.0936
57150W        W58014  12.965  10.292  25.393  0.2481 -0.0083 -0.0943
57151W        W58015   3.492   0.303   3.531 -0.2031 -0.0411  0.0317
57152W        W58016   1.031  13.412  17.464  0.1466 -0.3329 -0.4051
57153W        W58017  24.823  26.821  21.296 -0.0879  0.0640 -0.1249
57154W        W58018  25.057  16.290   9.648 -0.1209  0.0414 -0.2327
57155W        W58019  13.327  12.028  11.866 -0.0050 -0.2028 -0.2617
57156W        W58020  16.512  13.928   0.481  0.2590 -0.1659 -0.0086
57157W        W58021   0.834  21.860   7.659 -0.0197  0.3848 -0.0805
57158W        W58022   5.270  18.625   8.234  0.1249 -0.0358  0.1154
57159W        W58023  12.641   4.403  25.945 -0.2462 -0.1014 -0.1164
57160W        W58024   4.229  20.709   0.516  0.1641 -0.0385 -0.2949
57161W        W58025  20.515  12.423  10.043  0.0210  0.0271  0.0099
57162W        W58026  28.935   4.220   5.867  0.0515  0.0560  0.2308
57163W        W58027  17.771  28.481  23.615  0.0186 -0.2550  0.0804
57164W        W58028   6.807  15.214  26.441  0.0575  0.0738  0.1811
57165W        W58029  27.125   7.012  26.563  0.0148  0.1864 -0.2088
57166W        W58030  20.587  13.620  11.815  0.0199  0.2692 -0.2779
57167W        W58031  22.929  20.307  10.301  0.1459  0.0135 -0.0102
57168W        W58032  20.182  27.750  22.624 -0.1732  0.1373 -0.3794
57169W        W58033   8.608  15.873   1.664 -0.2527 -0.0571  0.1342
57170W        W58034   4.883   1.580  20.449  0.0213 -0.0851  0.2838
57171W        W58035   5.478   0.154   5.860  0.1344  0.1882  0.1953
57172W        W58036  21.216   0.853   8.661  0.2021 -0.3077  0.0810
57173W        W58037  16.572  14.855   4.456 -0.0820 -0.1857  0.2021
57174W        W58038  11.349   8.243  28.956 -0.0635 -0.1612 -0.1457
57175W        W58039  25.099   5.984  17.487  0.1603 -0.1179  0.0858
57176W        W58040  11.669   4.381   6.042 -0.0878  0.1194 -0.0056
57177W        W58041  23.547  13.434  27.256 -0.1104 -0.2505 -0.1465
57178W        W58042   4.496  19.486  15.233  0.0968  0.2781  0.2721
57179W        W58043  15.448   3.532   7.397  0.0074  0.0995  0.3309
57180W        W58044   4.600  12.437   3.834 -0.3860 -0.2408  0.2572
57181W        W58045  27.191   9.922  11.621  0.0850  0.2259  0.0675
57182W        W58046   8.295  28.201  26.452 -0.0320 -0.0328 -0.0635
57183W        W58047   9.651  13.110   2.180 -0.0315  0.1109 -0.1626
57184W        W58048   0.029  20.534  26.626 -0.1963 -0.1000  0.0622
57185W        W58049  26.474  25.481   2.149 -0.0186  0.4362  0.2665
57186W        W58050  25.095  21.902   8.044  0.2474  0.0838 -0.0410
57187W        W58051   5.837   0.429  25.755  0.0100  0.0516  0.1494
57188W        W58052   7.205  15.553  15.161  0.0988 -0.2872 -0.3131
57189W        W58053  17.643  14.535   0.137  0.3201 -0.0372 -0.0485
57190W        W58054  22.219  17.537  26.584  0.2379  0.2056 -0.0538
57191W        W58055  18.268   0.235   0.785  0.2330  0.2007  0.4995
57192W        W58056   1.212  25.799   3.211  0.0461 -0.2033  0.0117
57193W        W58057   6.554   2.439   0.416 -0.1331  0.1971  0.0596
57194W        W58058  27.972   9.992  21.160  0.3265  0.1653 -0.1098
57195W        W58059  29.143   9.056  16.340 -0.0322 -0.2037 -0.0129
57196W        W58060  26.146   0.144  27.865 -0.0008 -0.0389 -0.2368
57197W        W58061  19.183  21.812  16.842 -0.0538  0.0650 -0.3357
57198W        W58062  26.805  24.030   4.862  0.0619  0.2077  0.1905
57199W        W58063   2.864   4.230  13.260  0.0090  0.1925  0.5652
57200W        W58064  28.535   2.345   1.201 -0.0060 -0.0873 -0.1786
57201W        W58065  15.526  14.585   6.939 -0.1909  0.0747  0.0741
57202W        W58066  25.092   0.469   2.936  0.2356  0.0256 -0.1664
57203W        W58067  26.921  20.748   6.173  0.0502 -0.0665 -0.1338
57204W        W58068   4.964  12.094  19.877  0.0330 -0.0573 -0.1129
57205W        W58069   7.649  28.776   8.736  0.0435 -0.1109  0.0691
57206W        W58070   0.422  22.977   6.216  0.2281  0.0016  0.2709
57207W        W58071  18.938  13.434  19.024  0.2596  0.3718  0.2261
57208W        W58072  25.438  22.255  14.538  0.1074  0.2449  0.0506
57209W        W58073  24.647   5.439  22.354  0.0138 -0.3238  0.1761
57210W        W58074  25.289   9.507  15.155  0.0028 -0.1204 -0.0876
57211W        W58075  19.176  14.278  13.234  0.1944  0.5119 -0.1125
57212W        W58076  16.093   7.700   1.040 -0.1883 -0.0831  0.2459
57213W        W58077  27.871   2.595   6.633 -0.4921 -0.0715  0.1010
57214W        W58078   5.919  22.639   4.375  0.0891 -0.0799  0.2174
57215W        W58079  21.825  17.263  24.035 -0.0553 -0.0655 -0.1057
57216W        W58080  19.933  21.670  14.749  0.0600 -0.1632  0.0931
57217W        W58081   4.268   9.973   9.841  0.0441 -0.2948  0.4013
57218W        W58082   1.692  14.232  18.893 -0.0950  0.2534  0.0536
57219W        W58083  29.098  17.890  12.521 -0.2134 -0.3601 -0.0113
57220W        W58084  15.839  27.173  14.072 -0.2301 -0.1638  0.3489
57221W        W58085   2.361   7.850   9.914  0.1714  0.3032 -0.0056
57222W        W58086  22.732  15.021  10.971 -0.2032  0.0161 -0.2510
57223W        W58087  12.616   7.011   4.939 -0.1540 -0.2483 -0.0100
57224W        W58088   2.545   5.256  24.138 -0.2187  0.0347 -0.0027
57225W        W58089   5.636  23.977   9.401 -0.2746 -0.1355  0.0303
57226W        W58090  18.832   0.337   0.188  0.0017  0.2952  0.1363
57227W        W58091   8.173  22.952  23.375  0.0254  0.0531 -0.2666
57228W        W58092  19.483  25.784  14.110 -0.0657 -0.0809  0.1635
57229W        W58093  21.525   8.671  13.145  0.0366 -0.4042 -0.1478
57230W        W58094  12.008   3.641  10.346 -0.1129 -0.1740  0.2165
57231W        W58095  21.693   5.377   2.522 -0.0694  0.1785 -0.1622
57232W        W58096  23.212   3.508  22.806 -0.0379 -0.0936 -0.1731
57233W        W58097  23.542  15.292  11.445  0.2025 -0.1271  0.2810
57234W        W58098  12.984  12.617  16.086 -0.0668 -0.0614 -0.0697
57235W        W58099   7.924  24.652  23.115  0.0216  0.0457  0.1108
57236W        W58100  15.309  20.015  17.891  0.1695  0.0019 -0.1761
57237W        W58101   3.774  18.955  27.217 -0.0451 -0.2596 -0.1994
57238W        W58102  26.990  13.111  18.521 -0.0526 -0.4010  0.1769
57239W        W58103   8.822   9.201  13.318 -0.1107  0.2013  0.0662
57240W        W58104   8.847   0.135  24.618 -0.1934  0.0238  0.0765
57241W        W58105   9.912  10.045  24.570 -0.0986 -0.1641 -0.2223
57242W        W58106  22.778  24.703  13.566 -0.0974 -0.0587  0.1068
57243W        W58107   2.965   6.380  23.121 -0.1494 -0.1424 -0.0001
57244W        W58108  13.239  14.561  23.952  0.0010 -0.0846 -0.0593
57245W        W58109  16.394  13.024  11.785 -0.1120  0.2085  0.1384
57246W        W58110   4.314  27.734  22.560 -0.3504 -0.0700 -0.2317
57247W        W58111  19.564   6.507   5.026  0.2585 -0.0886  0.4336
57248W        W58112  27.104   1.766  15.415 -0.0058 -0.0266 -0.1202
57249W        W58113  23.713   4.223   8.829 -0.2268 -0.0455 -0.0752
57250W        W58114   7.329  11.733  11.438 -0.0472  0.0972  0.1523
57251W        W58115   6.292   0.072  22.031 -0.3084  0.1497  0.1590
57252W        W58116  20.988  16.173  22.215  0.1576  0.2065  0.2252
57253W        W58117  22.783   2.573   0.108  0.1004  0.0163  0.1121
57254W        W58118  16.137   2.354  23.379  0.1003  0.0240 -0.2704
57255W        W58119  26.092   8.140   4.875 -0.2068  0.2367 -0.2087
57256W        W58120  23.559  14.690  12.571 -0.1463 -0.1791  0.4852
57257W        W58121   7.866  18.734  22.693 -0.0831 -0.0535  0.0083
57258W        W58122  25.142  12.609  27.361 -0.1631 -0.1203  0.1181
57259W        W58123   3.649  28.333  21.340 -0.1811 -0.1492 -0.2685
57260W        W58124   6.767   9.090  19.280  0.0256 -0.1157  0.4165
57261W        W58125  23.213  13.665   6.851 -0.0410  0.1458 -0.2781
57262W        W58126  17.994   9.123   1.988  0.0042 -0.1804  0.0194
57263W        W58127   9.040  16.808  18.159 -0.3543 -0.0171 -0.0716
57264W        W58128  22.122   9.067  12.104  0.4041  0.1207 -0.0951
57265W        W58129  25.867   9.404  11.162  0.0018  0.2703  0.2073
57266W        W58130   5.539   7.903  22.788 -0.1229 -0.0072 -0.0154
57267W        W58131  24.946  24.957  11.772 -0.1291 -0.0375 -0.3152
57268W        W58132  17.584  21.787  13.550 -0.0169 -0.0615  0.3414
57269W        W58133  16.628  10.290  13.404  0.1126  0.0180  0.1379
57270W        W58134  15.417  12.740  27.410  0.2064  0.1231  0.0312
57271W        W58135   2.996  25.437  11.070  0.1270 -0.1167  0.2616
57272W        W58136  28.346   5.331   2.895  0.1408  0.1786 -0.2176
57273W        W58137  16.811  13.079   2.816  0.0194 -0.0782 -0.3415
57274W        W58138   0.630   9.755   2.771  0.0287  0.3216 -0.1467
57275W        W58139  17.770  15.770  11.067 -0.0785 -0.0251 -0.1932
57276W        W58140   3.708   6.732  13.608  0.0026  0.0620 -0.1065
57277W        W58141  18.023  22.344  21.915 -0.0217  0.1402  0.3583
57278W        W58142  11.296   0.862  24.252 -0.2690  0.1212 -0.0329
57279W        W58143   6.029  24.613   6.348 -0.1122 -0.1360  0.1779
57280W        W58144  13.663   8.566   7.322 -0.4225 -0.2917  0.1109
57281W        W58145   6.544  13.049  14.782  0.2884 -0.1777  0.2055
57282W        W58146   9.637  24.366   1.053 -0.0588  0.1772  0.1171
57283W        W58147  22.298  16.368   9.143 -0.0514 -0.0647  0.2515
57284W        W58148  19.564   6.236   9.299 -0.0191 -0.1624 -0.1832
57285W        W58149  25.030  14.782  19.306 -0.3009  0.2372  0.1894
57286W        W58150  15.946  13.261  28.884  0.2096 -0.0185 -0.0035
57287W        W58151  17.276   8.340   3.687  0.3366 -0.2495 -0.2784
57288W        W58152  15.358   9.775   8.114  0.4198 -0.2121  0.2255
57289W        W58153   0.764  21.892   9.177  0.2939 -0.2061 -0.0542
57290W        W58154  22.790  15.851   3.379 -0.2808 -0.4098 -0.2513
57291W        W58155  12.598   2.309  22.737 -0.0091  0.0794  0.1072
57292W        W58156   0.497   9.457  28.825  0.0153 -0.2531 -0.0417
57293W        W58157  22.821  23.167   5.354 -0.1531  0.0997 -0.1953
57294W        W58158  17.400   2.768   2.800  0.1363  0.1503 -0.0286
57295W        W58159  27.674   0.515   6.344  0.1796  0.3274 -0.0306
57296W        W58160  21.554  21.618   2.667 -0.0886  0.0565  0.0432
57297W        W58161  11.917  24.889   5.195 -0.1292  0.0508 -0.1172
57298W        W58162  26.311   8.775   7.868  0.1494  0.0906  0.2243
57299W        W58163  21.483   4.393   0.766 -0.1605  0.0321  0.0069
57300W        W58164   3.328   1.338   6.905  0.2908 -0.0057  0.1301
57301W        W58165  24.262  27.605   4.548  0.0040 -0.0024 -0.1295
57302W        W58166  28.706  25.899   1.257 -0.1161  0.1964 -0.1255
57303W        W58167  27.436  14.677  26.610  0.0884 -0.1292  0.3549
57304W        W58168  17.283   5.256   4.746 -0.1339 -0.3202 -0.1087
57305W        W58169  24.328   1.265  20.834 -0.1448 -0.1335  0.1438
57306W        W58170  20.777   3.770  11.535 -0.0177 -0.3477  0.0038
57307W        W58171  14.840  18.612   9.058 -0.1279 -0.1224  0.2614
57308W        W58172  26.028  21.336  25.286  0.1785 -0.0245  0.0061
57309W        W58173   7.126   3.092  27.195  0.3017 -0.2331 -0.4569
57310W        W58174  17.675   3.933  26.267 -0.3182 -0.0380  0.0495
57311W        W58175  14.867   6.339  13.714  0.0765  0.1048  0.3559
57312W        W58176  10.052  26.263  15.895  0.2922  0.1425 -0.1986
57313W        W58177  25.430   3.767  27.603  0.1941 -0.2731  0.1957
57314W        W58178  26.134  13.177  24.712 -0.0861  0.2825 -0.1514
57315W        W58179  19.720   1.272  24.286 -0.0187 -0.2112 -0.2442
57316W        W58180   7.540  23.756  11.109 -0.0576 -0.0037 -0.2385
57317W        W58181  25.231   3.764  25.343  0.2754  0.1811 -0.0991
57318W        W58182   3.705  18.399   7.460 -0.1939 -0.1020 -0.0174
57319W        W58183  27.263   2.655  26.205  0.0820 -0.1341 -0.1022
57320W        W58184  20.734   5.008   3.718 -0.3073  0.2930 -0.0820
57321W        W58185  19.000  17.056  19.707  0.0165 -0.0275  0.1024
57322W        W58186  11.085  10.385  27.558 -0.1370 -0.2391 -0.2551
57323W        W58187  17.059   9.946  24.240  0.1741 -0.0017 -0.0720
57324W        W58188  24.439   5.180  10.498 -0.0269  0.1413  0.1716
57325W        W58189  19.604  27.372  14.834  0.2185  0.0361 -0.0786
57326W        W58190  27.117  26.819   5.007 -0.1490  0.2618  0.2767
57327W        W58191  10.885  27.433   5.824 -0.0270  0.0724 -0.0723
57328W        W58192   6.242  16.499   9.624 -0.0873 -0.1510  0.1907
57329W        W58193  10.075  25.231  15.163  0.1017 -0.0262 -0.3625
57330W        W58194  17.298  22.584   0.595 -0.2234 -0.1321  0.0222
57331W        W58195   2.900  11.349  15.366  0.1176 -0.1609  0.0539
57332W        W58196  16.739  11.391   6.456 -0.1350  0.0237 -0.1361
57333W        W58197  11.411  21.075   2.355 -0.2541 -0.1925 -0.1551
57334W        W58198  24.333   6.673   3.000 -0.2783  0.1612  0.0057
57335W        W58199  14.758   0.913  22.011  0.0946 -0.0129 -0.0386
57336W        W58200   1.478   5.490  28.071  0.2392 -0.0129  0.1273
57337W        W58201   4.655   5.956  21.683 -0.0592  0.0173 -0.0960
57338W        W58202  20.525  11.270   7.531  0.3421  0.2461 -0.2152
57339W        W58203   7.109   0.647  11.131  0.0669 -0.0700 -0.0949
57340W        W58204   0.395  22.174  28.441 -0.2370  0.1051  0.0216
57341W        W58205  15.162   9.639  23.351  0.0380  0.5828 -0.0909
57342W        W58206  20.458  13.555   9.047  0.2069  0.0165 -0.3151
57343W        W58207  25.147   7.243  21.097  0.3271  0.1887  0.3464
57344W        W58208  18.729  24.418  16.411  0.0182  0.2870 -0.1275
57345W        W58209  25.185  19.404  18.172  0.0253  0.1399 -0.1263
57346W        W58210  26.133  11.618   2.035  0.1698  0.2264 -0.4165
57347W        W58211  23.276  11.680  13.854  0.0411  0.0677 -0.2401
57348W        W58212  19.732  10.407  28.295 -0.1856 -0.0722  0.1480
57349W        W58213   5.867   8.415   5.163 -0.1780 -0.0844 -0.0912
57350W        W58214   8.020  11.739   9.431  0.1295 -0.0337  0.0881
57351W        W58215  22.415  14.401  26.082  0.4281  0.2133 -0.5239
57352W        W58216  20.666  15.129  15.563 -0.2019  0.0633 -0.0846
57353W        W58217  10.304  12.688   8.471  0.1270  0.4073  0.1216
57354W        W58218  24.998   9.719  27.767 -0.1955  0.2676  0.0663
57355W        W58219   4.839  23.059   5.020 -0.0881  0.0371 -0.1492
57356W        W58220   4.756  29.024   5.709  0.1182  0.0798  0.0808
57357W        W58221  26.037   6.479  11.515 -0.0153 -0.0518 -0.0271
57358W        W58222  23.973   9.770  26.938 -0.1563 -0.2099 -0.2379
57359W        W58223  23.414  16.909  22.843  0.0238 -0.4576  0.0283
57360W        W58224  19.056   0.257   5.058 -0.4166 -0.0280 -0.1093
57361W        W58225  19.783  13.022   4.886 -0.1412  0.2757 -0.0713
57362W        W58226  26.015  27.989  12.202 -0.0877 -0.2416 -0.1789
57363W        W58227  13.306  13.878  26.217 -0.2087 -0.0591 -0.0821
57364W        W58228  21.368  10.753  20.419  0.1728 -0.1376 -0.3259
57365W        W58229  19.338  17.837  24.820  0.1958 -0.1200 -0.1007
57366W        W58230  23.437   6.688  14.842 -0.3118  0.1335  0.0327
57367W        W58231   8.757  15.156  25.728  0.3011 -0.1826 -0.3173
57368W        W58232   6.569   6.348  20.918 -0.0322 -0.0580  0.3260
57369W        W58233  17.551  20.327   7.101 -0.1179  0.0868 -0.2167
57370W        W58234  20.891  12.213  25.806  0.0606 -0.0563  0.1897
57371W        W58235  13.380   9.249  10.739 -0.0428 -0.0650 -0.0540
57372W        W58236  16.987  17.424  10.994  0.1602 -0.0147 -0.1254
57373W        W58237  25.726  28.584  26.818 -0.1019  0.1287  0.3825
57374W        W58238   9.401  23.277  24.592 -0.3115  0.0227  0.1534
57375W        W58239  10.921  10.500  14.517 -0.3741 -0.1184 -0.0565
57376W        W58240  19.209  25.327   7.557 -0.0702 -0.1756  0.2675
57377W        W58241  20.946   4.250  14.048 -0.3744  0.4449 -0.0127
57378W        W58242   1.634  10.170  19.291 -0.2980 -0.0474  0.0832
57379W        W58243   2.326  10.211  14.508 -0.1793  0.1143 -0.1465
57380W        W58244  25.936  22.860   7.754  0.1484  0.1608  0.2099
57381W        W58245  27.434  10.097  19.357 -0.0224  0.4818  0.1437
57382W        W58246  17.463  22.788  27.576 -0.1531 -0.1421  0.0473
57383W        W58247   5.242  27.353  15.200  0.2383 -0.2898  0.3575
57384W        W58248  23.031  24.371  12.572  0.0634  0.1038  0.0211
57385W        W58249   5.820  13.136   3.713 -0.1879  0.0834 -0.2607
57386W        W58250  25.474  25.864  21.826  0.1801 -0.0197  0.0031
57387W        W58251   8.040   5.272   2.067  0.3357  0.0797  0.4320
57388W        W58252  19.847  18.579  21.722  0.2221 -0.1547 -0.1232
57389W        W58253  24.019   5.026  27.715 -0.0436 -0.3562 -0.1416
57390W        W58254  24.936   6.290   5.750 -0.4378  0.1136 -0.0268
57391W        W58255  25.237   5.866  25.910 -0.0677 -0.2804 -0.0742
57392W        W58256  20.399  21.074  23.954 -0.3230  0.2498 -0.2760
57393W        W58257  23.125   3.619  13.541 -0.1186 -0.2536  0.0347
57394W        W58258   5.013  10.792   0.454 -0.0041  0.2067  0.0883
57395W        W58259   4.219   3.374   6.808  0.1581 -0.0420 -0.0535
57396W        W58260   2.291   8.692  20.103  0.0634  0.1874 -0.2344
57397W        W58261   6.874   8.014  23.535  0.2867 -0.2020 -0.2007
57398W        W58262   4.308  26.584   4.123  0.0541  0.2197  0.0024
57399W        W58263  12.996   5.185  11.628  0.0686  0.1528  0.1770
57400W        W58264  22.630  25.893  11.278  0.3023 -0.0496  0.0507
57401W        W58265  17.477  20.396   9.099  0.0138 -0.1452  0.0590
57402W        W58266   8.482   7.307   1.093 -0.3352  0.1680  0.1274
57403W        W58267   8.860   8.147  10.169 -0.0092  0.1081 -0.0788
57404W        W58268  20.627  27.060  19.936 -0.6199  0.1068  0.0185
57405W        W58269   4.984  13.961   6.153  0.1662 -0.1705 -0.2271
57406W        W58270   6.320  15.956  12.758  0.2409  0.0914 -0.0308
57407W        W58271  20.910  20.029  28.981  0.1107 -0.0066 -0.1009
57408W        W58272  22.184  15.908  13.558  0.1027 -0.3383 -0.3003
57409W        W58273  26.870  19.196   0.667 -0.0830 -0.1634 -0.0725
57410W        W58274  26.857  22.978   5.298 -0.0396 -0.1130  0.1844
57411W        W58275   2.287   4.189   6.517  0.2036 -0.0056  0.1102
57412W        W58276   6.536  22.548   5.435 -0.0703  0.0087  0.0773
57413W        W58277   9.644   7.212   5.269 -0.3290 -0.1235 -0.0697
57414W        W58278  20.826  16.922   4.260 -0.4805 -0.0821 -0.0024
57415W        W58279  15.620   1.292  22.540 -0.0913  0.1542 -0.3408
57416W        W58280   6.071   6.277   8.263 -0.0209 -0.1996  0.0793
57417W        W58281  19.739  17.055  19.165 -0.1271  0.1080  0.1525
57418W        W58282   1.002   6.969   3.695 -0.2727  0.0043  0.0128
57419W        W58283   0.323  23.738  27.212  0.0140 -0.1840  0.0009
57420W        W58284   5.879   6.413   1.163 -0.0130 -0.0515  0.0048
57421W        W58285  28.038   0.838  28.297  0.0754 -0.3672  0.0520
57422W        W58286   3.300  14.385  24.748  0.2785 -0.0277  0.0132
57423W        W58287   2.091   7.300  20.828  0.1978  0.0364 -0.2075
57424W        W58288   0.041   6.614  19.906 -0.2661 -0.1591 -0.0900
57425W        W58289  23.407  26.345   4.324  0.1342 -0.1915 -0.0884
57426W        W58290  26.361  27.184  15.218  0.1040  0.2651 -0.0649
57427W        W58291  18.254  19.403  10.484  0.0181 -0.2049 -0.1234
57428W        W58292   7.022  25.801   0.059 -0.0470  0.1042  0.0502
57429W        W58293   7.987   1.392   4.409 -0.0171 -0.1209  0.1200
57430W        W58294  28.768  15.616   3.796 -0.2158 -0.1752  0.0049
57431W        W58295   6.091  27.647  23.582  0.0991  0.1443  0.0519
57432W        W58296  28.653   9.769   1.958  0.0543 -0.0843 -0.2663
57433W        W58297   1.456   0.215   3.154  0.0618 -0.0627  0.0091
57434W        W58298  29.003  14.698   0.355 -0.0232 -0.3382  0.4027
57435W        W58299   4.675  27.310   2.016 -0.3845 -0.0557  0.3400
57436W        W58300  23.072   6.233   6.040  0.2892  0.0093 -0.1414
57437W        W58301  10.396   3.489  12.290  0.1110 -0.0529  0.0474
57438W        W58302  10.185  12.725  10.551 -0.0643  0.0871  0.2856
57439W        W58303  17.171   7.384   9.710  0.2760  0.3219  0.1598
57440W        W58304  28.908   7.992  11.618  0.0635  0.2810  0.0611
57441W        W58305  18.823   8.776   7.315 -0.1428 -0.0223 -0.0165
57442W        W58306  16.564   9.321   6.030 -0.1000  0.0387 -0.1311
57443W        W58307  16.184  22.396  18.665  0.1867  0.2200  0.1078
57444W        W58308   8.210  24.824   6.907 -0.0774 -0.2399  0.1986
57445W        W58309  15.780   8.571  20.604  0.0899  0.1637  0.2701
57446W        W58310  25.611   5.329  21.063  0.0079 -0.0663  0.0817
57447W        W58311  19.226  27.243   2.459 -0.0576 -0.3313  0.3729
57448W        W58312  24.014  19.844  23.744 -0.4261 -0.0740 -0.2166
57449W        W58313  12.755   5.382   3.586  0.1974 -0.0195 -0.0650
57450W        W58314   8.600  14.125  27.184  0.0087  0.2973 -0.4448
57451W        W58315   9.312  18.543  22.590  0.0551 -0.0549 -0.4042
57452W        W58316   2.775   2.113  25.148  0.1011  0.1227  0.3994
57453W        W58317  22.647  11.826  10.616 -0.5695  0.1119  0.0945
57454W        W58318  22.122   5.697   2.915 -0.1864  0.1155 -0.1443
57455W        W58319  24.157  15.440   0.289  0.3680 -0.1546  0.1155
57456W        W58320  22.866  11.884   7.278 -0.0004 -0.3998  0.1457
57457W        W58321  25.500   6.348  27.036 -0.0378 -0.1413  0.1393
57458W        W58322  26.632   3.373  23.649  0.1230 -0.0465 -0.2870
57459W        W58323  11.557  14.266   5.976 -0.3683  0.2377 -0.1069
57460W        W58324  25.786  25.916   0.850  0.1597 -0.0708  0.2413
57461W        W58325  15.216  26.838  28.655  0.1134 -0.1705  0.0061
57462W        W58326  22.656   5.031   7.920 -0.2160 -0.0477  0.0622
57463W        W58327  16.470   7.042   6.032  0.2046  0.1023  0.0726
57464W        W58328   7.576   4.527   4.051 -0.1570  0.0524 -0.1272
57465W        W58329  28.382  23.195   6.922 -0.1152  0.0309  0.1668
57466W        W58330  28.028   4.691   8.199  0.1683 -0.0618  0.0792
57467W        W58331   8.550   6.895  17.664 -0.1058 -0.0130 -0.1828
57468W        W58332   8.108  10.744  25.003  0.2951  0.2806 -0.0891
57469W        W58333  13.848  20.944  29.130  0.2147  0.1102 -0.0751
57470W        W58334  12.184   7.418  26.376  0.2346 -0.0212  0.1127
57471W        W58335   3.020   2.516   6.215  0.1032 -0.2842 -0.0871
57472W        W58336  23.872   3.873  17.806 -0.0728 -0.0899  0.3161
57473W        W58337  17.467   2.764  27.567 -0.0294  0.0749 -0.4243
57474W        W58338  17.633   8.977   0.954  0.1329  0.0913  0.1451
57475W        W58339  21.921   8.462   9.165  0.0208 -0.0912  0.2193
57476W        W58340  27.845   9.475   1.310  0.1636  0.1281 -0.0083
57477W        W58341  26.327  18.879  20.333  0.0163  0.1927 -0.0633
57478W        W58342   1.818  27.904   8.003  0.0517  0.2259  0.0878
57479W        W58343  10.689  13.933   7.570  0.3002 -0.1134 -0.2451
57480W        W58344  27.159  29.003  14.684 -0.1051 -0.0484  0.1011
57481W        W58345  28.821  17.472   0.643 -0.3408 -0.1020  0.0383
57482W        W58346  28.507  15.552   9.029  0.0089  0.1086 -0.2894
57483W        W58347  19.899  17.048   8.387  0.0642  0.1799  0.2215
57484W        W58348  20.254  21.239   0.777  0.2449 -0.3641  0.0491
57485W        W58349   3.070  28.221  28.492 -0.0321 -0.1490 -0.0102
57486W        W58350   0.661  13.901  23.902 -0.1201 -0.0256 -0.0616
57487W        W58351  11.012   4.658  15.326 -0.1245  0.1871  0.1694
57488W        W58352  19.037  26.725  26.089  0.2242 -0.0988 -0.1199
57489W        W58353  18.860  28.286  21.425 -0.2593 -0.2916 -0.0343
57490W        W58354  24.971  22.064  12.530 -0.1805  0.1352 -0.3391
57491W        W58355  26.826  21.792   6.859  0.0001 -0.0003  0.1424
57492W        W58356  14.972  14.420   5.618  0.2850  0.0443 -0.1572
57493W        W58357  12.313  16.388  15.761  0.2057  0.1520 -0.0033
57494W        W58358  26.183  10.660   8.669  0.3285 -0.2776 -0.0772
57495W        W58359  22.404   0.593  28.373 -0.1799 -0.1012 -0.2959
57496W        W58360   1.400   3.058  17.368 -0.2152 -0.4264  0.3207
57497W        W58361   4.693   2.787  17.391 -0.1386  0.0159  0.1128
57498W        W58362  14.007  27.405  25.326 -0.0434  0.2213  0.2408
57499W        W58363  13.989  18.085  11.597 -0.1975  0.0142  0.1269
57500W        W58364   9.486  28.327  12.899 -0.0688  0.0439  0.1612
57501W        W58365  17.526   9.146  15.313 -0.1405  0.1936  0.0018
57502W        W58366  13.894  27.391   0.308  0.0552 -0.1322 -0.2022
57503W        W58367  17.489  18.079  21.881 -0.2364  0.1961 -0.1320
57504W        W58368  21.253   0.044  12.062 -0.0036  0.2105 -0.0591
57505W        W58369  13.336  17.321   0.732 -0.1618 -0.6501  0.3233
57506W        W58370   2.691  10.087  28.947 -0.1479  0.1117 -0.2615
57507W        W58371  23.406  27.040  14.586  0.1117 -0.0496  0.0624
57508W        W58372  27.250  15.482  25.421  0.0884  0.2320 -0.1933
57509W        W58373   5.460   1.659  24.303  0.0282  0.3171 -0.1757
57510W        W58374  24.168   2.567  20.009  0.3928 -0.0377  0.2810
57511W        W58375  22.876  16.823  28.640 -0.1594 -0.2680  0.4040
57512W        W58376  25.089   9.666  23.518  0.1154  0.2064 -0.0472
57513W        W58377   8.201  19.161   7.853  0.1739  0.3361 -0.0449
57514W        W58378   9.405   6.257  26.082  0.0942 -0.0030 -0.0090
57515W        W58379  20.098   2.199  22.537  0.1015  0.0119  0.1022
57516W        W58380   9.063  24.594  27.023  0.0319  0.0893  0.1633
57517W        W58381  23.669  29.009  18.176  0.0783 -0.0247  0.2840
57518W        W58382  24.820  26.975   6.037 -0.0515  0.0065 -0.0230
57519W        W58383  22.467  23.884  28.347 -0.3801  0.0138 -0.0128
57520W        W58384  27.796   0.151   4.677 -0.0981  0.1834 -0.1274
57521W        W58385  16.139   6.847  26.040  0.2167 -0.0843 -0.1940
57522W        W58386  15.975   9.663   4.814  0.0356 -0.0948  0.6176
57523W        W58387  20.599   3.945   4.897 -0.1219  0.0754  0.2691
57524W        W58388  11.582  23.417  21.641 -0.2377  0.0435  0.0287
57525W        W58389   9.778   2.947   8.721  0.1121 -0.1339  0.0682
57526W        W58390   3.003   5.648   5.735  0.1003 -0.0447 -0.0177
57527W        W58391  21.037   5.407  26.895  0.1608  0.0837 -0.1079
57528W        W58392  27.775  23.415   0.061  0.2572  0.0764 -0.0484
57529W        W58393  27.934   9.306  16.498 -0.2145  0.4999  0.5973
57530W        W58394  28.271  26.256   0.435 -0.2975  0.0021 -0.2391
57531W        W58395   2.618  22.793  28.595 -0.2622 -0.0724  0.1447
57532W        W58396   3.957  25.934  25.192 -0.2903  0.0152  0.0461
57533W        W58397  16.076  28.396  15.612 -0.2172  0.0368  0.0892
57534W        W58398   3.496  27.770   7.272  0.0175 -0.1229  0.1464
57535W        W58399  24.220   6.461  24.776  0.3625 -0.1500  0.1065
57536W        W58400  20.171   3.846   2.377  0.0583 -0.0129  0.3748
57537W        W58401  26.427  11.568   8.907  0.1433 -0.0942 -0.1476
57538W        W58402  26.688  15.574   4.376 -0.2086 -0.0776  0.1601
57539W        W58403  19.432   9.339  16.135 -0.0679  0.0967  0.2019
57540W        W58404   2.727   6.081  14.888 -0.1669 -0.2623 -0.2326
57541W        W58405  24.238   7.397   0.796 -0.0991 -0.3722 -0.3761
57542W        W58406  11.595  14.309   3.944  0.1090  0.1255 -0.0385
57543W        W58407  21.514   2.257  13.602 -0.0698  0.0100  0.0873
57544W        W58408  18.929   3.946  17.627 -0.0622 -0.3094 -0.0439
57545W        W58409   4.014   3.320   7.317  0.2174 -0.0640  0.2005
57546W        W58410  11.755  11.904  27.651 -0.0516  0.0574  0.0466
57547W        W58411   3.918   7.355   3.286 -0.1738 -0.0505 -0.1364
57548W        W58412  23.320   8.020  23.040 -0.1823 -0.1922 -0.1439
57549W        W58413   6.984  12.457  10.488  0.2038  0.0188 -0.0014
57550W        W58414  22.620   5.881   2.987 -0.1246 -0.0204  0.1169
57551W        W58415  16.228   4.061  26.682  0.1145  0.1285 -0.0935
57552W        W58416  26.008  29.122   6.239  0.0229  0.0093  0.3694
57553W        W58417   4.427  11.602  13.232  0.0245  0.0526 -0.0555
57554W        W58418  19.818  11.548  14.676 -0.1354 -0.1019  0.1407
57555W        W58419   1.185  25.349  11.376  0.2758  0.1843  0.1555
57556W        W58420  18.351   1.355  12.316  0.0463 -0.1020  0.2989
57557W        W58421   0.943  11.341  15.118 -0.1456 -0.1870 -0.0515
57558W        W58422  19.107  27.474  19.344 -0.3148  0.2598 -0.3374
57559W        W58423  12.708  12.611  16.647 -0.1878 -0.0678 -0.2296
57560W        W58424  17.155   7.921   7.004  0.2682 -0.3221 -0.1161
57561W        W58425  10.924   3.144   3.674 -0.0972  0.2514 -0.1196
57562W        W58426  12.338   0.557  24.247  0.1067 -0.1890 -0.2449
57563W        W58427  21.915   2.853   4.360 -0.1880  0.1075 -0.0806
57564W        W58428  25.113   4.684   6.798 -0.0332 -0.0466 -0.1434
57565W        W58429   4.122  22.663   6.921 -0.0526  0.1068  0.2913
57566W        W58430  25.644  27.918   4.668 -0.3938  0.0490  0.1214
57567W        W58431   9.623   3.886   9.973  0.0337  0.1504 -0.0840
57568W        W58432  24.027  15.610  28.586  0.1802  0.3990  0.1761
57569W        W58433  22.136  28.382  26.101  0.5446  0.0916  0.0194
57570W        W58434  21.456   5.389   1.815 -0.1401  0.2845 -0.2793
57571W        W58435  18.799   3.167   0.607 -0.1543  0.2118 -0.2024
57572W        W58436  17.310   0.376  20.594  0.0612  0.0351  0.2945
57573W        W58437  17.914  21.978   1.844 -0.1334  0.5156 -0.3169
57574W        W58438  15.290   6.691   6.938 -0.0724  0.0251  0.3588
57575W        W58439  25.246  17.535  29.006 -0.1620  0.2319 -0.1285
57576W        W58440  12.265  27.707  16.489  0.1663  0.2524  0.4006
57577W        W58441  14.907  11.308  17.875 -0.1506 -0.0261  0.0171
57578W        W58442  28.668  14.441  10.344 -0.1820 -0.0286  0.2062
57579W        W58443   7.384   0.336  13.766  0.0087  0.2508 -0.1462
57580W        W58444  13.323   2.912  10.618 -0.0612 -0.3312 -0.0757
57581W        W58445  26.034   7.439   8.972 -0.0417  0.0686 -0.1276
57582W        W58446  23.581   1.910  11.264 -0.0227 -0.0252  0.2663
57583W        W58447  21.021  12.219   6.941  0.0432 -0.1093  0.1212
57584W        W58448  20.779   6.674   8.542  0.3075 -0.2389 -0.1848
57585W        W58449  14.077  10.291  10.292  0.0715 -0.2883 -0.1161
57586W        W58450   7.295  10.223  20.338  0.2126 -0.1266  0.2157
57587W        W58451   2.087   1.375  26.234  0.0153 -0.1287  0.0877
57588W        W58452  12.315   3.825   4.077 -0.1017  0.0869 -0.0384
57589W        W58453   3.066   8.886   0.561  0.2180 -0.2670  0.4144
57590W        W58454   2.035   1.982  28.715 -0.2167  0.1221  0.0375
57591W        W58455  28.594  21.560   3.583 -0.1015 -0.1282  0.0556
57592W        W58456  20.452  11.301  17.818 -0.1043  0.1777  0.2610
57593W        W58457  18.084  12.714  18.410 -0.0149 -0.0703  0.2781
57594W        W58458  10.717  16.919  11.006  0.1307 -0.1731  0.1502
57595W        W58459  27.763  14.244   3.606 -0.2836  0.2595 -0.0425
57596W        W58460  16.759  13.867  12.697 -0.1222 -0.0087  0.3505
57597W        W58461  17.437   0.725  15.156 -0.0139 -0.0574  0.1535
57598W        W58462   2.682   1.328  25.396  0.0534 -0.6003  0.3697
57599W        W58463  23.379  20.295  10.487  0.0789  0.0273  0.0300
57600W        W58464   1.676  19.376  16.946  0.2212 -0.1471  0.0707
57601W        W58465  21.719   1.819   3.354  0.1482  0.0520 -0.1475
57602W        W58466   3.812   5.064   3.691  0.2109  0.2535 -0.3861
57603W        W58467   5.410  26.962   3.548 -0.2766  0.0758  0.1731
57604W        W58468   0.206  23.181  19.786  0.0107  0.0809 -0.0430
57605W        W58469  11.280  22.077  13.590  0.1187 -0.2412 -0.0004
57606W        W58470  23.508  15.260   7.759  0.3818  0.1720 -0.1242
57607W        W58471  16.872  18.081  23.496 -0.4063  0.0985  0.0155
57608W        W58472   0.851  13.299  11.855 -0.4600 -0.0794  0.2973
57609W        W58473  22.278  28.410   7.095 -0.1136  0.0221 -0.5205
57610W        W58474  19.441  12.622  21.737 -0.2740 -0.3687 -0.1677
57611W        W58475   2.655   2.662  12.956  0.1505 -0.1342 -0.0149
57612W        W58476   8.276  20.917  19.365  0.2894  0.1097  0.0627
57613W        W58477   0.914  13.662   1.735  0.3492  0.0551  0.0584
57614W        W58478  10.524   0.158  16.031  0.2592 -0.0253  0.4032
57615W        W58479  26.214  23.264  16.496  0.2328 -0.0889  0.0754
57616W        W58480  28.103   4.247  25.047 -0.1759  0.1143 -0.0866
57617W        W58481  15.646  18.016  11.456  0.3397 -0.1134 -0.0906
57618W        W58482  17.563   3.727  17.930  0.0484 -0.1690 -0.0736
57619W        W58483  12.626  18.685   1.008 -0.1363 -0.1258 -0.0607
57620W        W58484  27.300  24.324  23.227 -0.2201 -0.1329 -0.1239
57621W        W58485  23.991  15.360  14.388  0.1721 -0.0864  0.1660
57622W        W58486   9.621  13.016   4.233  0.1182 -0.0415  0.0169
57623W        W58487   0.011   8.730   5.067  0.1345 -0.1192  0.1854
57624W        W58488   5.465  13.343   4.548 -0.0034  0.3800 -0.0426
57625W        W58489   2.915  25.166  21.662 -0.3665  0.1407  0.1603
57626W        W58490   8.536  13.201  10.654  0.1001  0.1221  0.3058
57627W        W58491  18.965  27.995   0.092  0.1691 -0.0681  0.0106
57628W        W58492  21.166  11.538   5.630  0.1098  0.1006 -0.2362
57629W        W58493  28.792  25.016   7.260 -0.2230 -0.2880 -0.0307
57630W        W58494   9.015  25.872  27.067  0.2309  0.0361  0.1871
57631W        W58495  16.254  13.436   7.705 -0.2536 -0.1776  0.1058
57632W        W58496   7.217   4.933   3.356 -0.0516  0.0264  0.3145
57633W        W58497   3.490   8.073  17.088  0.0356 -0.0977 -0.2296
57634W        W58498  16.314  10.366  11.085  0.0629 -0.0039  0.2288
57635W        W58499  17.154  28.167  14.724 -0.0070 -0.1416  0.2937
57636W        W58500   1.305  26.827   1.247  0.2240  0.0040  0.2017
57637W        W58501   5.976  16.892  12.876  0.0382 -0.1930 -0.1811
57638W        W58502   1.405   1.915   6.480  0.1849 -0.0274 -0.1784
57639W        W58503   3.001   4.605   2.135 -0.2960  0.0673 -0.0950
57640W        W58504   3.626  10.829   7.907 -0.1007  0.0271  0.0417
57641W        W58505  14.343   1.636  13.785 -0.1642  0.0735  0.0953
57642W        W58506  16.415   8.219  20.291  0.0061  0.1823 -0.3328
57643W        W58507   6.035  18.905  10.912 -0.0966  0.1896  0.2678
57644W        W58508  25.582  27.454  23.397  0.1644  0.2225 -0.1041
57645W        W58509   3.937   0.756  16.428 -0.3543 -0.1613  0.2627
57646W        W58510  28.329  22.940  11.143 -0.0008  0.1009 -0.0187
57647W        W58511  14.248  15.240  10.842 -0.0867  0.1309 -0.2118
57648W        W58512  21.804  17.572  28.657  0.2104  0.0542 -0.1630
57649W        W58513  25.972   6.859  14.458 -0.0130 -0.0799  0.0134
57650W        W58514   4.478  17.832  14.436  0.1928 -0.0706  0.0604
57651W        W58515   9.798  12.271   8.972 -0.0032  0.2939 -0.3216
57652W        W58516  18.045  23.368   8.585 -0.2999  0.1693  0.1504
57653W        W58517  19.854  25.253  13.851 -0.0485  0.1835 -0.3629
57654W        W58518  20.733  24.619   8.503  0.2414  0.1888 -0.0384
57655W        W58519  23.632  25.894  10.898 -0.0832 -0.1219 -0.2704
57656W        W58520  27.565  15.313   6.057  0.0179  0.0142  0.0746
57657W        W58521  15.699   6.243  20.269 -0.3497  0.1608 -0.1984
57658W        W58522   6.646  26.332   3.442  0.0925 -0.2348 -0.0980
57659W        W58523  19.322  24.015   3.420 -0.1779  0.1950  0.2256
57660W        W58524  20.854  20.014  22.741 -0.0042  0.0483  0.0233
57661W        W58525  15.983  20.386   8.147  0.1428  0.0849 -0.1882
57662W        W58526  26.181  18.091  11.550  0.1682 -0.2433 -0.1040
57663W        W58527  21.220   1.273  28.213  0.0154 -0.0402  0.4757
57664W        W58528   1.286  10.440   3.302 -0.4318  0.1343  0.0800
57665W        W58529   0.300  14.074   6.259  0.1178  0.1926  0.2006
57666W        W58530  19.594  10.945   9.611 -0.2970 -0.2467 -0.0021
57667W        W58531  24.161   1.123   4.371  0.0758  0.0436  0.1808
57668W        W58532   3.071   5.908   2.785 -0.1345  0.1105  0.3982
57669W        W58533   8.634  19.557   2.392 -0.0424  0.3941 -0.0971
57670W        W58534  14.005   2.872  19.040 -0.3337 -0.1255  0.3234
57671W        W58535   9.478   0.398  11.620 -0.1119 -0.1408 -0.1049
57672W        W58536  13.400  10.468  25.775  0.1678 -0.3802  0.1328
57673W        W58537   2.630  20.315   9.796 -0.0068  0.0166  0.0083
57674W        W58538  13.752  15.613  23.708 -0.0497 -0.2370  0.1238
57675W        W58539   2.144   3.884  25.269 -0.0475 -0.0757 -0.0561
57676W        W58540  26.422  25.457  27.144  0.3233  0.1448  0.1575
57677W        W58541   8.098   7.522  19.503  0.1364  0.2470 -0.1370
57678W        W58542  14.628  11.057  20.988 -0.0725 -0.0345 -0.2037
57679W        W58543  18.578   6.013   9.889  0.2472 -0.1517  0.2049
57680W        W58544  21.977  16.805   6.327  0.1314  0.0061 -0.1661
57681W        W58545  17.355  21.361   4.566 -0.1506 -0.0950  0.1775
57682W        W58546   9.658  11.036   6.038 -0.0320  0.1120 -0.0704
57683W        W58547   3.522   1.153   7.684 -0.1509 -0.2570 -0.2367
57684W        W58548  17.568  10.711  15.866  0.0360  0.1618 -0.0162
57685W        W58549  12.594  26.285  10.646  0.3441  0.2808 -0.0338
57686W        W58550  26.253  25.313   5.221 -0.2888  0.0072 -0.0584
57687W        W58551  17.518  11.750   0.129  0.1203 -0.1108 -0.0103
57688W        W58552  10.012  13.207  16.374  0.1569 -0.0766 -0.2686
57689W        W58553   1.694  17.238   3.431  0.0060 -0.1818  0.2562
57690W        W58554  11.956  27.713  18.498 -0.1474 -0.0579 -0.0701
57691W        W58555  18.338   8.483   9.641 -0.2993  0.5075  0.2843
57692W        W58556   6.939   6.763   2.464 -0.0171 -0.0820  0.1351
57693W        W58557  10.525  23.889  25.974 -0.3519 -0.0757 -0.1161
57694W        W58558  20.168   0.431  15.511  0.3665  0.4097  0.4290
57695W        W58559  18.329  23.617  12.273  0.2167 -0.1843 -0.2305
57696W        W58560  21.584   1.496  14.050  0.1912  0.1210 -0.1290
57697W        W58561  17.675   4.546  18.271  0.0420 -0.1351 -0.0633
57698W        W58562  27.568  20.780  19.538 -0.0484 -0.2302 -0.1942
57699W        W58563   7.632   2.443  17.685  0.3102 -0.0360  0.1521
57700W        W58564   4.171  28.370  14.385  0.1502  0.1940  0.1870
57701W        W58565  27.979  24.992   6.421  0.1516  0.4649 -0.0271
57702W        W58566  25.716  21.738   6.546 -0.0570 -0.0693 -0.3216
57703W        W58567  14.232  10.575  26.693  0.4547 -0.1660 -0.0084
57704W        W58568   6.664  25.469  24.441  0.1499 -0.1218  0.1628
57705W        W58569  26.121  13.378   1.955  0.0104 -0.2482 -0.0220
57706W        W58570   4.348   4.009  23.599  0.0126 -0.1136 -0.2110
57707W        W58571  27.923  19.455  17.157  0.2895  0.4254 -0.1878
57708W        W58572  27.268  12.419  14.405  0.1123 -0.1390 -0.1586
57709W        W58573   9.534   1.097  16.466 -0.1662 -0.2850 -0.0283
57710W        W58574   7.468   3.703  23.472  0.1674 -0.1899  0.0909
57711W        W58575   2.344   9.066   1.049 -0.0183 -0.3471 -0.0872
57712W        W58576  26.486   1.614  27.624 -0.2419  0.0777  0.0043
57713W        W58577  19.805  27.331   7.282  0.0041  0.2547 -0.2716
57714W        W58578   1.794   1.725   5.750 -0.0140  0.1907  0.0623
57715W        W58579  13.773   6.580   7.853  0.1756 -0.4980  0.1766
57716W        W58580  28.689  10.584   3.664  0.0187 -0.0633 -0.0224
57717W        W58581  26.872   5.694   9.697  0.0766 -0.2686  0.3227
57718W        W58582  22.205  23.750   4.915  0.1603 -0.0178  0.2259
57719W        W58583  18.398  14.584  17.319 -0.0971 -0.1081  0.1904
57720W        W58584  24.094   8.954  19.186  0.0601 -0.1231  0.3523
57721W        W58585  14.431   9.394  16.778  0.2578 -0.0880 -0.1827
57722W        W58586  15.102   0.203  25.622  0.0581 -0.0663 -0.0723
57723W        W58587  16.646   5.004  27.021 -0.2211 -0.2421  0.3432
57724W        W58588  11.626  10.359   0.093 -0.3549 -0.1400  0.0964
57725W        W58589  16.116   4.945   7.563 -0.0938 -0.1256  0.0251
57726W        W58590  22.897   9.970  14.666  0.0495  0.2206 -0.0579
57727W        W58591  20.069   9.655   7.101  0.0330  0.0431  0.1850
57728W        W58592  22.651   0.589   6.823  0.1569  0.0123  0.0819
57729W        W58593  15.617  20.557   1.071 -0.2160 -0.1793  0.0080
57730W        W58594  20.133   2.109   1.478 -0.0093  0.1776 -0.0937
57731W        W58595  17.270  27.197   4.651  0.2084  0.1680  0.0729
57732W        W58596  21.459  21.420  13.502  0.1130 -0.0043 -0.3379
57733W        W58597  27.010  24.738   9.549 -0.1951 -0.0072 -0.0916
57734W        W58598   4.530  14.705   5.222 -0.0574 -0.0014  0.2085
57735W        W58599  13.641  13.529  22.782  0.0696  0.0144 -0.0991
57736W        W58600   6.110  10.682  10.712 -0.0704  0.1230  0.3107
57737W        W58601   0.780   0.312   9.290  0.1926  0.3739 -0.0025
57738W        W58602   4.168   3.018  14.955 -0.0080 -0.2200 -0.3067
57739W        W58603  25.024   6.563   5.188  0.1263  0.1816  0.0428
57740W        W58604  17.580   4.919  25.457 -0.0844  0.1462 -0.1764
57741W        W58605  19.415  22.643   3.329 -0.0203  0.2952  0.0594
57742W        W58606  20.265   4.692  25.756  0.1338 -0.1724  0.1196
57743W        W58607   2.456   5.744   7.006  0.2307  0.2535 -0.0821
57744W        W58608   7.356  11.388   7.052 -0.2353  0.2277 -0.3382
57745W        W58609  13.406  23.850  10.428  0.0526  0.3027 -0.3896
57746W        W58610  18.913  10.484  23.906  0.0713  0.1829 -0.1162
57747W        W58611  12.696   0.661   7.768 -0.3277 -0.0291  0.0108
57748W        W58612  21.721   9.435  18.084 -0.1875 -0.0553  0.0248
57749W        W58613   6.495   2.764  20.362 -0.1943  0.1182  0.1739
57750W        W58614  13.030   1.777   1.009  0.0118 -0.4342 -0.0763
57751W        W58615  19.030   6.611  17.770 -0.1548  0.1307 -0.1069
57752W        W58616   2.111  20.978   5.039  0.0557 -0.0457 -0.1988
57753W        W58617   9.884   4.642  27.920  0.1921 -0.1854 -0.0100
57754W        W58618  19.209   2.829  17.416  0.0829  0.0476 -0.1625
57755W        W58619  17.848   6.408  11.890 -0.0103 -0.1582  0.0927
57756W        W58620  28.190  10.946  18.861  0.2027  0.2398 -0.0368
57757W        W58621  13.381  10.729   8.841 -0.2397  0.1631  0.3820
57758W        W58622  22.443  27.451  22.082 -0.1155  0.3031 -0.0385
57759W        W58623  29.055  11.341  24.295 -0.0528  0.2166  0.0064
57760W        W58624  24.589  13.161   6.051  0.0995  0.3643 -0.1720
57761W        W58625  15.288   9.545  10.148  0.0355  0.1647  0.4399
57762W        W58626   8.661  11.654   6.643 -0.0901 -0.0915  0.0217
57763W        W58627   7.507   2.796  26.080  0.2567  0.0281  0.0466
57764W        W58628   0.962  20.558   3.669  0.1432  0.1299 -0.1797
57765W        W58629  21.369   5.752  27.406 -0.0433  0.0673  0.1550
57766W        W58630  17.472   0.037   9.387 -0.0538 -0.0800 -0.1786
57767W        W58631  17.074   1.091   0.599 -0.1042  0.1667  0.0057
57768W        W58632   2.441  26.512   6.185  0.1613 -0.2089 -0.2805
57769W        W58633   6.808  13.249  17.152 -0.0467 -0.1595  0.1725
57770W        W58634  16.357   1.189   5.228  0.1138 -0.1344 -0.1952
57771W        W58635  28.195  18.573   3.823  0.2395  0.0319 -0.0484
57772W        W58636  17.134  16.403  25.761  0.0233 -0.1533 -0.2835
57773W        W58637  20.425  28.479  11.055 -0.0198  0.4482 -0.0268
57774W        W58638  17.502  16.292  12.330 -0.1797  0.0353 -0.0292
57775W        W58639  25.396   0.180   5.677 -0.2122 -0.3660 -0.2041
57776W        W58640  15.221   8.667   8.890  0.0093 -0.2577 -0.0409
57777W        W58641  24.627   2.774  28.863 -0.0706 -0.0264 -0.0254
57778W        W58642   5.070  12.709  16.309 -0.0693 -0.2145  0.0760
57779W        W58643  12.549   9.553  26.600 -0.1090  0.0254  0.0692
57780W        W58644   1.970   5.212  27.175 -0.2015  0.2391 -0.0476
57781W        W58645  19.751   6.258   7.001 -0.1187 -0.0414 -0.1610
57782W        W58646  21.385  18.481  14.359 -0.2022  0.0624 -0.1268
57783W        W58647  28.657  13.601  28.620  0.1156  0.0947 -0.1920
57784W        W58648  21.059   7.189  12.477  0.0188 -0.1396  0.0327
57785W        W58649  22.389   1.818  11.857  0.1737  0.3518 -0.2522
57786W        W58650  22.273  13.483   9.186  0.1317  0.2310 -0.0096
57787W        W58651  17.466   9.131  18.915 -0.1418  0.2174  0.1170
57788W        W58652  25.404  12.506   1.631 -0.4254  0.0614  0.1725
57789W        W58653  12.233   6.342  10.532 -0.1648 -0.0396  0.3533
57790W        W58654  26.244  20.462  18.904  0.0440  0.1371  0.0792
57791W        W58655   3.051   9.271  28.843  0.2135  0.0621 -0.0657
57792W        W58656  13.774  24.468  18.761  0.1124 -0.2304  0.2272
57793W        W58657  20.540   1.639  16.093 -0.3146 -0.1181 -0.0911
57794W        W58658   6.459  27.787   6.278  0.0531  0.2212 -0.2790
57795W        W58659  22.924   5.048  22.941 -0.5639 -0.0517 -0.2778
57796W        W58660  24.581   4.353   2.618 -0.2553 -0.1321  0.0454
57797W        W58661   1.657  21.324   9.897  0.2088  0.0379 -0.0836
57798W        W58662  14.229   0.071   5.351 -0.1988 -0.0089  0.1434
57799W        W58663  17.768   2.958   4.017  0.1163  0.0362  0.1807
57800W        W58664  13.812  17.922   0.531 -0.4685 -0.0165  0.1091
57801W        W58665  27.615  26.887   0.527 -0.0057 -0.2355  0.0059
57802W        W58666   6.050  24.000   4.504 -0.1459 -0.1149 -0.1179
57803W        W58667   2.708   7.757   2.020 -0.0605 -0.2497 -0.3736
57804W        W58668  20.853  27.787   1.567  0.1943 -0.2443 -0.0291
57805W        W58669  23.489  24.803  23.222  0.1630 -0.0410 -0.2334
57806W        W58670   4.179   1.110  16.142  0.0133 -0.3597 -0.0106
57807W        W58671  21.726   9.748  13.304  0.0215  0.1350 -0.0516
57808W        W58672  25.623   4.206  20.769  0.1434  0.3290 -0.1746
57809W        W58673  28.793   0.768  12.749  0.0885  0.1956 -0.5068
57810W        W58674  14.548  14.300  22.285 -0.1941 -0.0729 -0.2286
57811W        W58675   6.105   7.355   0.052 -0.2712  0.0875  0.0494
57812W        W58676  26.195   0.347   4.645  0.0822 -0.3309 -0.1305
57813W        W58677   1.558  22.416   7.586  0.0621 -0.1465  0.0013
57814W        W58678  22.287   0.736  19.550  0.0897  0.1735  0.1940
57815W        W58679   7.556  24.962   0.422 -0.1067  0.1755 -0.0046
57816W        W58680  22.987   1.808  14.555  0.1851  0.1567  0.0225
57817W        W58681  20.179  18.037   9.529 -0.0372  0.0195 -0.1534
57818W        W58682  28.674  12.132   2.948 -0.1322 -0.2509  0.2308
57819W        W58683   8.679   0.779  22.538  0.0478 -0.3638 -0.0980
57820W        W58684  12.921  14.120  21.177  0.0058 -0.1062 -0.2127
57821W        W58685  18.244  27.938  19.032  0.2460  0.1783  0.0023
57822W        W58686  28.132  13.689  21.242  0.1282  0.3374 -0.2076
57823W        W58687  13.904  28.408   0.130 -0.1099  0.4026  0.1810
57824W        W58688   7.601  28.237  23.889 -0.2700  0.0074 -0.0793
57825W        W58689   4.946  25.857   5.657 -0.2701  0.0394 -0.1058
57826W        W58690  23.563  20.225  26.086 -0.0817 -0.1521 -0.2668
57827W        W58691  23.355  17.481   6.467  0.1304 -0.0745  0.1748
57828W        W58692  20.547  21.573   6.752  0.2640  0.0292 -0.4473
57829W        W58693  26.439  13.087  15.883 -0.2962  0.1178  0.3307
57830W        W58694  27.971   0.086  23.740 -0.1451 -0.4381 -0.1849
57831W        W58695  20.458   3.089   9.015 -0.0868 -0.1676  0.1283
57832W        W58696  19.317   8.418  15.295  0.0574 -0.0432  0.1106
57833W        W58697  14.458   7.907  13.594 -0.1802  0.0097  0.0641
57834W        W58698  10.552  12.833  29.111 -0.1066  0.1687 -0.0557
57835W        W58699  14.034   0.840  14.306 -0.1758  0.0845 -0.0564
57836W        W58700   8.055  28.166  14.934 -0.1484 -0.1406 -0.1544
57837W        W58701  19.690   6.171   0.257  0.3548  0.2202 -0.0503
57838W        W58702  15.578  28.095   4.956  0.1207 -0.0024  0.0638
57839W        W58703   0.336  24.667  13.362 -0.1418 -0.1809 -0.0280
57840W        W58704  12.746  20.881  25.686  0.2844  0.0560  0.1024
57841W        W58705  24.677   8.378   0.931 -0.0068  0.2644  0.0013
57842W        W58706  11.044  24.579   2.827 -0.1518  0.0846 -0.1033
57843W        W58707   1.248  10.039   7.122 -0.3143 -0.0131  0.0100
57844W        W58708  23.690  12.868  19.888 -0.0132  0.0424  0.0872
57845W        W58709  24.561  19.636  20.190  0.0660 -0.0181 -0.3640
57846W        W58710  11.488   0.115  24.071  0.1456 -0.0255 -0.1908
57847W        W58711  21.448  27.451  24.516 -0.2324 -0.1361  0.2119
57848W        W58712  12.263  19.525   5.807 -0.2880  0.0884  0.1362
57849W        W58713   9.229   3.296  16.218 -0.3801 -0.3420 -0.0311
57850W        W58714  20.650  16.414   4.321  0.0406 -0.1178 -0.2193
57851W        W58715  11.519  27.965  20.934 -0.0457 -0.1300  0.1626
57852W        W58716  23.526   4.886  14.193  0.0174  0.2406 -0.0269
57853W        W58717  10.077   9.306  23.134  0.0575 -0.0226 -0.1132
57854W        W58718   4.006  10.769  15.452 -0.3014  0.2470  0.1590
57855W        W58719  16.781   4.594  16.013 -0.2337  0.4504  0.2221
57856W        W58720  22.551  22.363  28.766  0.1226  0.1212  0.0682
57857W        W58721  14.864  19.663   5.450  0.1397 -0.0809  0.1339
57858W        W58722  21.232   7.675   8.413 -0.1799  0.0463 -0.0484
57859W        W58723   5.377   6.939   8.297  0.3445 -0.3827  0.2058
57860W        W58724   1.904  23.653  19.235 -0.1580 -0.0913 -0.3647
57861W        W58725  27.393  10.812   1.211  0.0403 -0.1027 -0.2254
57862W        W58726  23.274  21.826  13.656 -0.0054 -0.1417  0.3971
57863W        W58727   5.262  28.535   8.625 -0.0668  0.0449  0.2464
57864W        W58728  13.129  17.641  13.621  0.0175 -0.0263 -0.2248
57865W        W58729   5.156  12.018  19.086 -0.0303 -0.0433  0.1634
57866W        W58730  18.873  14.120  10.003 -0.1292  0.1286 -0.0598
57867W        W58731  29.038   8.050   7.555  0.0689  0.0149 -0.0511
57868W        W58732   2.930   1.968  21.301 -0.1834  0.1242  0.0843
57869W        W58733   4.988   2.812  19.107  0.2604  0.1887  0.0266
57870W        W58734  18.825  27.313   1.040 -0.0922 -0.3428  0.1142
57871W        W58735   2.112  22.424  11.696  0.2290 -0.1381  0.2489
57872W        W58736  21.946  14.099  25.746  0.4027  0.1941  0.0762
57873W        W58737   1.193   6.198  27.467  0.1608  0.0014  0.0735
57874W        W58738  21.921   1.148   6.323  0.1152  0.3003  0.5973
57875W        W58739   4.266   2.897  17.096  0.0745  0.0129 -0.1881
57876W        W58740   1.492   3.160  18.011 -0.0015 -0.2708  0.0998
57877W        W58741  19.725  24.020   5.752  0.4672 -0.3106  0.3387
57878W        W58742  26.108  14.949   8.026 -0.0338  0.1419  0.1070
57879W        W58743   3.848  10.857  14.161 -0.1097  0.0014  0.1426
57880W        W58744   6.045  13.746  27.681 -0.1848  0.1461 -0.1012
57881W        W58745   8.187   8.504  18.160 -0.4696 -0.1483 -0.1033
57882W        W58746  22.908  10.936  12.077 -0.2589  0.0256 -0.0701
57883W        W58747   5.580   9.040   7.780 -0.0907 -0.1998 -0.1963
57884W        W58748   9.091  15.622   7.843  0.0723 -0.1209 -0.0029
57885W        W58749  27.437  17.132  20.205  0.1351  0.4434  0.0231
57886W        W58750   0.535   7.470  12.213  0.0974  0.0238  0.0009
57887W        W58751  15.371  13.905  28.897  0.2187  0.1080 -0.4431
57888W        W58752  13.963   1.034  28.268  0.1331 -0.3325 -0.0466
57889W        W58753  19.796   8.851   9.382  0.1707  0.0932 -0.2466
57890W        W58754   3.492  11.695  25.902 -0.0821 -0.0093 -0.1141
57891W        W58755  18.860  25.107   6.472 -0.0644 -0.2380  0.4599
57892W        W58756  19.942  12.741   8.598  0.0893 -0.3842 -0.2414
57893W        W58757  25.376  21.218   3.009  0.3642  0.0436  0.3922
57894W        W58758  11.857  12.938  18.939 -0.1450  0.1242 -0.1321
57895W        W58759  28.805   0.130   5.527 -0.2012 -0.2423 -0.2703
57896W        W58760  22.048  14.884  17.786  0.0174 -0.1923  0.0520
57897W        W58761   3.498   0.809   3.380 -0.1440  0.0985 -0.1569
57898W        W58762   8.336   1.263   7.346  0.1359 -0.0515  0.1150
57899W        W58763  26.967  21.628  16.379  0.1175  0.1981  0.0732
57900W        W58764  17.738   4.179   9.192  0.1409 -0.3394 -0.0399
57901W        W58765  25.087  13.275   6.786 -0.2258  0.3761 -0.0500
57902W        W58766   5.134   1.261  14.446  0.1751  0.0959  0.1382
57903W        W58767   6.634   3.555  10.293  0.2066 -0.1907  0.3414
57904W        W58768  22.066   9.523  11.213  0.3070  0.1668  0.4401
57905W        W58769  20.947  25.863  13.830 -0.3576 -0.2072 -0.1169
57906W        W58770  19.555   4.327  23.651  0.1531 -0.0596 -0.0242
57907W        W58771  14.159  23.288  10.337 -0.0436  0.0295 -0.4867
57908W        W58772  23.282   9.077  20.140 -0.1478 -0.0147 -0.0264
57909W        W58773  28.965   9.631   3.113  0.1023  0.0605 -0.1767
57910W        W58774  17.156  25.957  11.778  0.1307 -0.1867 -0.2138
57911W        W58775  14.901  21.432  23.520  0.0800 -0.3022  0.0741
57912W        W58776  20.819   2.639  29.027 -0.2296  0.4243 -0.0771
57913W        W58777  20.828  18.979   6.604  0.1055 -0.4184 -0.1010
57914W        W58778   4.384   4.662  22.210  0.4288 -0.1318 -0.0565
57915W        W58779  20.369  22.673  11.759 -0.1019 -0.1516 -0.1898
57916W        W58780  16.551   0.024  10.180  0.0584  0.0726  0.2369
57917W        W58781   8.947  21.093   8.227 -0.1927  0.1480 -0.0389
57918W        W58782   7.284   3.050  14.403 -0.1865  0.2950 -0.0003
57919W        W58783   0.275  13.552   4.126 -0.0963 -0.0942  0.3023
57920W        W58784  18.965  11.211  12.281  0.0608  0.0819  0.1439
57921W        W58785  14.696  22.161   8.582 -0.0470  0.0938  0.2441
57922W        W58786  14.894   7.624  22.667 -0.2261 -0.1250 -0.0083
57923W        W58787  19.098   3.932   9.473 -0.3052  0.1863  0.0840
57924W        W58788  19.840  22.597  10.917 -0.2036 -0.2705 -0.1703
57925W        W58789   1.981  19.367  27.589 -0.1515 -0.0219  0.0127
57926W        W58790  22.504   0.942  15.612  0.2423  0.0881  0.1458
57927W        W58791  17.850  17.719  10.730 -0.3456 -0.2252  0.3576
57928W        W58792  17.015  13.430   5.176  0.0426 -0.2171 -0.0112
57929W        W58793  13.164   7.356  18.045 -0.0294 -0.1837  0.0761
57930W        W58794  18.779   6.619  21.384 -0.1805 -0.3201  0.2485
57931W        W58795  10.322  21.568   2.383 -0.1246 -0.0642  0.7233
57932W        W58796   1.720  14.160   1.742 -0.3839  0.2057 -0.1360
57933W        W58797  25.590  17.993  21.356  0.2627  0.0199 -0.1280
57934W        W58798  17.348  22.322   9.342 -0.3749 -0.0809  0.0785
57935W        W58799   0.545   1.668  18.792  0.1521 -0.4194  0.0130
57936W        W58800  21.928  28.589  13.644 -0.1571  0.0668 -0.1734
57937W        W58801  15.723  28.695  16.110 -0.0287  0.1568 -0.0493
57938W        W58802   5.592  18.889   0.757  0.0981  0.1990 -0.3590
57939W        W58803  24.547  27.514  14.589  0.0299  0.1698  0.1666
57940W        W58804   0.764   4.933  28.583 -0.2504  0.0012  0.0566
57941W        W58805  13.029   4.922  16.373  0.3018 -0.3627  0.1326
57942W        W58806  27.353  28.780  11.795 -0.0939 -0.2361 -0.0855
57943W        W58807  24.144  15.081  15.264 -0.0406  0.2831 -0.2717
57944W        W58808  24.935  26.007  19.278 -0.0453  0.1258  0.1752
57945W        W58809  25.650   5.785  20.899  0.0489 -0.1404  0.0122
57946W        W58810  25.917  14.038   5.306 -0.0920  0.1532 -0.0993
57947W        W58811  18.756   6.745  14.389  0.4143 -0.0437  0.0326
57948W        W58812  11.913   3.030   6.203  0.0200 -0.1502 -0.2703
57949W        W58813   4.494   2.300   2.298 -0.1526 -0.1193 -0.0987
57950W        W58814  17.492  13.239   1.701 -0.2442  0.0336  0.1853
57951W        W58815  11.456   5.274   2.311 -0.2074  0.1644 -0.4786
57952W        W58816  19.215   7.992  25.153 -0.3152 -0.1405 -0.3468
57953W        W58817  21.201  18.385  26.660  0.0344 -0.0582  0.0134
57954W        W58818  22.363  14.225  21.142  0.0027 -0.1858 -0.1042
57955W        W58819   4.989  18.372  10.621  0.0619 -0.2310 -0.0262
57956W        W58820  15.390  17.639  15.245 -0.0323  0.0167  0.2834
57957W        W58821  23.275  15.559   3.581 -0.2543 -0.2436 -0.1803
57958W        W58822   7.215   8.503   9.575  0.1390  0.1674  0.0194
57959W        W58823  13.480   2.518   9.417  0.0036  0.0470  0.0085
57960W        W58824  26.137   2.386   6.036 -0.2897  0.0865  0.1212
57961W        W58825  17.479  10.708   6.294 -0.0280 -0.0904  0.0331
57962W        W58826  13.588  14.181  26.459 -0.3802  0.2201 -0.0538
57963W        W58827  23.262  18.915  18.675 -0.0093 -0.0300  0.5015
57964W        W58828  23.353  28.562  16.045  0.1886  0.2007 -0.1516
57965W        W58829  10.098   5.874  13.264 -0.1976 -0.1138 -0.0196
57966W        W58830  23.571  25.961  19.108 -0.2844 -0.0003 -0.2187
57967W        W58831   8.705  25.390  17.954  0.1383 -0.0581 -0.1440
57968W        W58832  12.823  14.809  18.408 -0.0323 -0.0533  0.0898
57969W        W58833  11.235   7.583  23.828 -0.1050 -0.0215  0.0790
57970W        W58834  15.252  20.873   3.120 -0.1069 -0.1487  0.0690
57971W        W58835   6.929  11.023   5.220 -0.2235  0.3780 -0.0746
57972W        W58836  24.286  27.623  15.990  0.2596  0.0728  0.0334
57973W        W58837  11.837  26.506  10.443 -0.0562  0.0788 -0.0061
57974W        W58838  26.406  24.511   7.437 -0.1272 -0.1179  0.0772
57975W        W58839  24.650   7.517   5.996 -0.0002  0.1344  0.0205
57976W        W58840   6.101   4.301   3.653  0.1852 -0.1791  0.1147
57977W        W58841  15.761   2.401   9.870  0.4992  0.2356  0.0292
57978W        W58842  20.718   3.913  17.260 -0.1408 -0.0529  0.1154
57979W        W58843  24.468   4.038   7.694  0.2442 -0.3084 -0.6236
57980W        W58844   6.521  19.779   9.848 -0.0408  0.1705 -0.1253
57981W        W58845  16.161  27.545   0.279  0.2634 -0.0950  0.0475
57982W        W58846  24.216   2.503  28.950  0.1436 -0.0388 -0.0841
57983W        W58847  13.695   0.618   1.176  0.0421  0.0180 -0.0138
57984W        W58848  19.557  26.447   7.578  0.3165  0.1445 -0.1463
57985W        W58849  18.290   8.841   7.161  0.3352 -0.0893  0.2096
57986W        W58850  17.033   1.887  18.262  0.0655  0.1693  0.0858
57987W        W58851   2.093   0.611   8.626 -0.0913  0.1214  0.3503
57988W        W58852  23.484  28.087  16.066 -0.2772 -0.2409  0.1988
57989W        W58853  19.575  20.745  21.079  0.0761  0.0671 -0.0600
57990W        W58854  28.228   4.296  23.067 -0.0515 -0.0967 -0.4618
57991W        W58855  12.173  10.637  20.313 -0.0658  0.0802 -0.5805
57992W        W58856  27.283  23.406   6.086  0.2912  0.1972  0.1578
57993W        W58857  23.412   7.729   0.909 -0.0042  0.1074  0.4670
57994W        W58858  14.411  28.481   4.478 -0.2579  0.0766  0.1774
57995W        W58859  11.503   7.512   8.621 -0.1752 -0.0144 -0.2178
57996W        W58860  12.113   2.653  21.595  0.1130 -0.1667 -0.2022
57997W        W58861  20.866   3.096  15.033 -0.1316  0.2708  0.0101
57998W        W58862  14.113  28.368  16.928  0.2782 -0.0229 -0.1900
57999W        W58863  12.213  13.803  18.233 -0.4054  0.0525  0.1349
58000W        W58864  17.722  11.874  10.064 -0.1261  0.1932 -0.0986
58001W        W58865   8.087   9.754   6.160  0.1071  0.4588  0.1393
58002W        W58866   3.265  27.848  17.021  0.1392  0.1201  0.2495
58003W        W58867  19.367  16.812  12.698 -0.1867  0.0946  0.2021
58004W        W58868  28.556   9.862  18.510 -0.2656  0.2174  0.0810
58005W        W58869  19.586   7.832   4.907  0.0134  0.3608  0.1690
58006W        W58870  13.309  10.685   6.547  0.1337 -0.1567  0.0240
58007W        W58871   5.299   7.035   2.872  0.0133 -0.3019 -0.0925
58008W        W58872   8.085   5.633  11.620  0.2130 -0.3828 -0.3886
58009W        W58873   8.918   8.915   9.058 -0.1841 -0.2071  0.0579
58010W        W58874   6.375  17.186  13.792 -0.1645  0.4581  0.1065
58011W        W58875  20.671  25.954  26.198 -0.1956 -0.1930  0.0943
58012W        W58876   8.755  13.336  27.634 -0.1941 -0.0378  0.0173
58013W        W58877  21.830  29.009  17.005 -0.0237 -0.0796  0.3120
58014W        W58878  12.335  14.739  24.353  0.1624 -0.1873 -0.1087
58015W        W58879  21.826  15.698  24.545 -0.1161 -0.0907 -0.1138
58016W        W58880  14.653  23.008  15.839 -0.1629 -0.2926 -0.0449
58017W        W58881  24.992  24.722   6.412  0.0961  0.0233 -0.0891
58018W        W58882  27.881  11.061   5.413  0.0911 -0.2743 -0.1230
58019W        W58883   1.011  10.662   2.178  0.2258 -0.0780  0.1279
58020W        W58884  21.804  12.648   7.926 -0.0825  0.2050  0.2993
58021W        W58885  22.719   7.685  19.561  0.0134  0.0192  0.0664
58022W        W58886  28.946  11.753  14.325 -0.0807  0.2110 -0.1298
58023W        W58887  16.050  11.851   5.585  0.1215  0.0479 -0.0542
58024W        W58888   8.449   3.352   3.199 -0.1505 -0.1061 -0.1418
58025W        W58889  18.517   5.151  21.941 -0.0031  0.2086  0.0228
58026W        W58890  21.843  10.580   2.845 -0.1801  0.1528  0.1735
58027W        W58891  18.559   5.105   8.819  0.0236  0.1339  0.3162
58028W        W58892  10.222  18.113  15.344  0.2498 -0.0081 -0.2391
58029W        W58893   8.409  19.786   9.232 -0.1122 -0.0738 -0.0568
58030W        W58894   4.821   3.246  21.254  0.0026 -0.0577 -0.1887
58031W        W58895  18.194  28.748   2.510  0.1874 -0.3445  0.2973
58032W        W58896  17.863   4.708  12.133  0.1940 -0.0826 -0.2557
58033W        W58897   7.612  13.848   3.143  0.1263  0.1388  0.0607
58034W        W58898   9.382  12.159  11.333  0.1591  0.1907 -0.0188
58035W        W58899   8.953  27.714  26.806  0.2097  0.2575 -0.2184
58036W        W58900  15.296  14.240  13.517 -0.2122 -0.0333 -0.0352
58037W        W58901  12.309   5.378  21.223  0.0425  0.0444  0.0137
58038W        W58902  26.762  27.401   0.755  0.1323 -0.0282 -0.0026
58039W        W58903   3.573  17.695   6.630 -0.2407  0.0526 -0.2674
58040W        W58904  28.315  19.243   2.911 -0.4018 -0.3016  0.1245
58041W        W58905  24.623  17.621  17.862 -0.0516  0.0765 -0.2468
58042W        W58906  18.506  13.584  16.728 -0.4347  0.0865 -0.2246
58043W        W58907  20.596   5.320  15.380  0.1000  0.0382  0.2528
58044W        W58908   1.473  13.875   9.915  0.2296 -0.0564  0.1105
58045W        W58909   0.429  10.035   5.748  0.2064 -0.2171  0.0826
58046W        W58910  27.186  14.248  19.338 -0.1285 -0.1393 -0.1446
58047W        W58911  21.848   6.415  11.657 -0.0788 -0.3090  0.1625
58048W        W58912  28.181   4.934  15.891 -0.0129  0.0044  0.0502
58049W        W58913  15.253   9.029   4.725 -0.2185 -0.2401 -0.1065
58050W        W58914  22.231  24.802  12.732 -0.2740 -0.0524 -0.2308
58051W        W58915   3.007   6.931  24.836  0.1343  0.2550 -0.2295
58052W        W58916  27.604   4.903  26.647  0.1307 -0.2186  0.1528
58053W        W58917  16.506   0.031  25.932 -0.0823 -0.2247  0.0781
58054W        W58918  12.685   1.484   8.182  0.2481  0.2420  0.2934
58055W        W58919   4.137   9.804  10.766  0.0808  0.0248 -0.2353
58056W        W58920  21.915  24.690   7.733 -0.0152  0.1940  0.3388
58057W        W58921  22.847   1.712   0.474 -0.0203  0.3194 -0.1524
58058W        W58922  26.311  27.761  21.202  0.1807 -0.0700 -0.3263
58059W        W58923  16.398   3.818  27.624 -0.1813  0.2270 -0.1660
58060W        W58924   6.570   4.571  11.443 -0.1278 -0.1457 -0.3158
58061W        W58925   0.105   6.077  25.319 -0.1629  0.1928  0.0534
58062W        W58926   5.753   9.032   8.749 -0.0980  0.0152  0.0072
58063W        W58927  14.367  13.920  17.652 -0.2205 -0.1864 -0.1557
58064W        W58928  23.340  18.480  24.382 -0.4675  0.2846 -0.0358
58065W        W58929   2.408  20.381   3.687 -0.0012  0.2536  0.1291
58066W        W58930  23.620   4.492  10.326 -0.1263 -0.0087  0.0302
58067W        W58931   2.938  23.844  21.081  0.0672  0.3895  0.2503
58068W        W58932   1.270   2.855  20.273  0.1132  0.0731  0.1626
58069W        W58933  22.327  20.141   7.045 -0.2306 -0.0879 -0.0103
58070W        W58934  25.763  25.607  14.894  0.2989 -0.2480  0.3961
58071W        W58935   0.960  13.603  21.097  0.1031  0.0577 -0.0415
58072W        W58936   4.146  10.520  13.882 -0.3090 -0.2048 -0.1754
58073W        W58937  10.820  13.632   3.249 -0.2320 -0.2720  0.0309
58074W        W58938  16.753   0.852  10.168  0.3534  0.0318  0.0534
58075W        W58939  17.821  17.475   3.909  0.2427 -0.3071  0.0152
58076W        W58940  26.642   0.477  15.772 -0.2700  0.1574  0.0941
58077W        W58941  19.172   0.678  15.527  0.1672 -0.3950 -0.3152
58078W        W58942   0.822   6.350   9.563 -0.0158 -0.0045 -0.1154
58079W        W58943  20.803  10.280  10.183 -0.0735  0.0649  0.0225
58080W        W58944  15.939   3.151  10.629 -0.0509  0.1121 -0.1429
58081W        W58945   0.644  28.712  21.693  0.2683  0.0269 -0.0008
58082W        W58946   8.589   0.719   5.545 -0.0928 -0.2467  0.1529
58083W        W58947  18.773   7.960   9.961  0.1567 -0.0354  0.3456
58084W        W58948  23.819  13.678   7.601  0.3155  0.0789  0.0838
58085W        W58949  15.524  15.313  23.944  0.2884  0.2724 -0.3566
58086W        W58950  12.216  15.157  27.434  0.1163 -0.1749 -0.0020
58087W        W58951   0.059  23.636   2.366  0.0706 -0.1315 -0.0583
58088W        W58952   1.732  18.851   1.823 -0.5286  0.0627  0.0422
58089W        W58953  16.593   6.522   4.489  0.0210 -0.2431  0.0029
58090W        W58954  11.518  11.269   3.485  0.0383 -0.0257  0.1521
58091W        W58955   0.174   0.251  18.281 -0.0590 -0.1402  0.1333
58092W        W58956   9.797  25.846  16.008  0.1591 -0.5408  0.0122
58093W        W58957   3.707  17.886  28.208  0.1763  0.4332  0.0394
58094W        W58958  11.518  25.755   1.290  0.3673 -0.1843 -0.0948
58095W        W58959   8.791  15.010   6.605 -0.0162 -0.1679  0.1186
58096W        W58960  16.669  10.504   8.080 -0.1935 -0.0722  0.2723
58097W        W58961   7.613  10.005  10.717 -0.3287 -0.2277 -0.0616
58098W        W58962  11.474   8.594  12.166 -0.0319  0.1492  0.0250
58099W        W58963  16.591  25.886  14.661  0.3664  0.0552  0.0678
58100W        W58964   2.346   6.849  18.080  0.0474  0.0745  0.0302
58101W        W58965  13.531   7.570  26.316  0.0117  0.0185 -0.0638
58102W        W58966  25.384   5.646  22.675 -0.2911 -0.0446  0.3584
58103W        W58967  15.520  14.657   5.939  0.2368 -0.0796 -0.0822
58104W        W58968   2.227  27.169  26.053  0.1565  0.0058  0.3457
58105W        W58969  18.819  22.056  22.395  0.0984  0.1498 -0.1469
58106W        W58970  13.766   5.721   5.823 -0.0627  0.2010 -0.0823
58107W        W58971  20.799   0.571  10.685 -0.0213  0.1176 -0.6162
58108W        W58972  28.188  28.827   6.352  0.0953 -0.2622  0.0960
58109W        W58973   2.402  18.186  17.998  0.0061  0.2562 -0.0144
58110W        W58974   9.629  26.440   7.021 -0.0002 -0.1458  0.2485
58111W        W58975  10.818   2.321  11.470  0.3671  0.0085  0.0136
58112W        W58976  19.961  21.652  26.755 -0.0393  0.2180 -0.0562
58113W        W58977  28.194   6.088   4.033  0.1246 -0.2994 -0.2076
58114W        W58978  23.201   5.330  28.306  0.2231  0.1218 -0.1028
58115W        W58979   4.863  15.388   7.966  0.1948  0.0790 -0.2348
58116W        W58980  20.209   0.703  12.712  0.0139 -0.0622  0.2644
58117W        W58981  14.156   8.666  14.086  0.0025  0.2226 -0.0648
58118W        W58982  20.725  29.063  28.949 -0.3472  0.1949 -0.0942
58119W        W58983   0.438  25.623   6.209 -0.1581  0.2077  0.1309
58120W        W58984  14.863   8.855  26.216  0.1320 -0.0232  0.1505
58121W        W58985  26.018  11.914   9.095 -0.3207  0.4430  0.3665
58122W        W58986  27.993   2.165  17.264  0.0193  0.2890  0.0400
58123W        W58987  19.098  26.960   9.875 -0.1863 -0.1171  0.4659
58124W        W58988   5.362  11.023   1.365  0.1382 -0.0528  0.2387
58125W        W58989  10.215  27.931  22.454  0.0611 -0.0814  0.0591
58126W        W58990  17.466  21.290   5.532 -0.1382  0.0568 -0.0900
58127W        W58991  11.096   7.833  28.992  0.0555  0.0723  0.1110
58128W        W58992  16.269   5.111   5.668 -0.1191 -0.3410 -0.1062
58129W        W58993  26.860   1.177   0.650 -0.1314 -0.0008 -0.1327
58130W        W58994  25.794  11.701  11.765  0.1497  0.0009 -0.0262
58131W        W58995  24.569   2.568  13.191 -0.1480 -0.1132  0.1152
58132W        W58996  18.519  15.784   2.597  0.0275 -0.1299  0.2636
58133W        W58997  10.386  21.244   8.300 -0.0228  0.0261 -0.2713
58134W        W58998  15.368  15.788   9.407 -0.2579 -0.2292 -0.1249
58135W        W58999  17.319   6.086  20.010 -0.1312  0.3398 -0.0038
58136W        W59000  15.801  16.057   9.672 -0.3999 -0.2432 -0.0653
58137W        W59001   6.099  24.398  18.968  0.1473 -0.1859  0.1311
58138W        W59002  13.925  25.546  21.542 -0.0872 -0.3565  0.2839
58139W        W59003  11.304  27.883   1.284 -0.2209 -0.1897 -0.1415
58140W        W59004  15.416  27.446  21.905  0.3183 -0.0644  0.2590
58141W        W59005  19.507  28.591   5.052  0.0220  0.3101 -0.2064
58142W        W59006   8.395  28.566  11.296  0.1786  0.1101  0.0326
58143W        W59007  26.425   0.052  13.596  0.5513 -0.0775 -0.0281
58144W        W59008  24.898   4.489  27.521 -0.1438 -0.2400  0.1988
58145W        W59009  10.487  18.075  28.132 -0.1837 -0.2303  0.1096
58146W        W59010   2.926  27.030  19.912 -0.0209  0.1837  0.0414
58147W        W59011   5.360  17.666   7.593 -0.3645 -0.0117 -0.0425
58148W        W59012  22.221   0.903  18.572 -0.0301  0.0933 -0.3523
58149W        W59013  25.676  19.105  10.402 -0.0687  0.0713 -0.2460
58150W        W59014   3.469  22.209   0.608  0.1136  0.1026  0.0661
58151W        W59015   2.906   0.430  19.212  0.0775  0.3161 -0.0693
58152W        W59016  29.091  19.736  14.689  0.1512 -0.0634  0.0684
58153W        W59017   3.863   6.354   7.996  0.0078 -0.4241  0.1336
58154W        W59018  15.795  28.721  17.067  0.1336  0.0787  0.2992
58155W        W59019   0.273  12.403  10.888  0.0054  0.0446 -0.0837
58156W        W59020  27.996   0.712   1.755 -0.0798 -0.2228 -0.0138
58157W        W59021   8.353   5.058  19.707  0.0660 -0.1113 -0.1515
58158W        W59022  23.723  26.762  14.167 -0.2528 -0.1540  0.0410
58159W        W59023   2.896  28.860   2.550 -0.1158  0.2779 -0.3137
58160W        W59024  28.544   1.279  11.710  0.0686  0.0325 -0.1054
58161W        W59025  26.360  13.977  15.901  0.0552 -0.0649 -0.2807
58162W        W59026   1.335  23.809   6.889  0.2197 -0.2508 -0.1413
58163W        W59027  27.822   5.197  10.614 -0.1064 -0.0842  0.0832
58164W        W59028  18.840   1.745   0.460 -0.2243 -0.0818  0.2011
58165W        W59029   1.182   5.177   6.360 -0.0551  0.3424 -0.0449
58166W        W59030   2.056  11.196  12.109  0.1326 -0.0276 -0.0801
58167W        W59031   6.240   4.080  13.935 -0.2726  0.0729  0.0510
58168W        W59032   9.306   8.436  14.457  0.0342  0.0057 -0.1051
58169W        W59033   4.173  28.293  10.023  0.2446 -0.1179  0.3426
58170W        W59034  18.077   6.070  13.886 -0.0455  0.1779  0.1272
58171W        W59035   0.966   3.746  16.350 -0.0824  0.1557  0.1046
58172W        W59036   3.981  25.588   6.152  0.0460 -0.0656  0.2072
58173W        W59037  23.164  16.835  22.425  0.1683  0.4480  0.2369
58174W        W59038  22.456  28.094  27.621 -0.0847  0.2261  0.0280
58175W        W59039   9.430   2.549  27.693 -0.2767  0.0617  0.1747
58176W        W59040  12.247   7.853   8.204 -0.0758 -0.1842 -0.0153
58177W        W59041  21.538  15.725  19.201 -0.0065 -0.1499  0.3300
58178W        W59042  20.428  28.863  11.328  0.2648 -0.1977  0.0632
58179W        W59043   1.208   8.776   7.958 -0.2943 -0.0222  0.3582
58180W        W59044  28.886  12.062   3.467  0.0780 -0.1091  0.1118
58181W        W59045  12.429  19.544  21.399 -0.0901  0.0089 -0.1910
58182W        W59046  12.492  27.990  21.806 -0.0846 -0.0572 -0.1765
58183W        W59047   3.340  25.326   0.130 -0.1808  0.3374 -0.0820
58184W        W59048  21.419  11.013  15.684 -0.2830 -0.1431 -0.2480
58185W        W59049  16.564  11.536   3.292 -0.1365 -0.3262 -0.3243
58186W        W59050  17.308  10.308  17.294 -0.0927 -0.1384 -0.0375
58187W        W59051  16.132  28.875  15.753  0.3274 -0.0976  0.1548
58188W        W59052   1.599  17.161  13.600 -0.2975  0.2114 -0.1655
58189W        W59053  23.231  26.376  23.380  0.1438 -0.3332  0.2394
58190W        W59054   3.228   2.244   7.215 -0.0390 -0.0832 -0.4233
58191W        W59055   1.614   1.213  12.656  0.0326  0.0095 -0.1266
58192W        W59056   0.356   1.351  25.690  0.1464  0.1674  0.0171
58193W        W59057  21.903  23.968  28.404 -0.2078 -0.1101  0.1788
58194W        W59058  23.453  21.187   3.825  0.1791  0.0761  0.0729
58195W        W59059  17.798  26.102  18.444 -0.0275 -0.0472  0.2899
58196W        W59060   0.463   2.890  27.020 -0.1069 -0.1082 -0.0266
58197W        W59061  18.948   3.511  14.137 -0.1025  0.0894  0.2141
58198W        W59062  18.723  24.584  28.867 -0.1292 -0.1279  0.2216
58199W        W59063  28.728   6.398  19.240  0.0092 -0.0889  0.2658
58200W        W59064  13.231   9.832  15.044 -0.3623  0.0639 -0.1392
58201W        W59065   2.617  10.606  13.176  0.3341  0.1504  0.0992
58202W        W59066  15.201  17.087  17.959  0.0662 -0.1687 -0.0064
58203W        W59067  26.326   6.499  10.047 -0.1121  0.1881  0.1129
58204W        W59068  21.334   0.677  18.533 -0.1875 -0.4005 -0.2364
58205W        W59069  11.748  25.478   0.132 -0.0298 -0.0387  0.0442
58206W        W59070  12.644  19.187   8.524  0.1124  0.1706  0.0288
58207W        W59071   6.206  27.488  26.870  0.0879 -0.2514 -0.3865
58208W        W59072   1.181  14.739  26.227  0.1793 -0.1039 -0.1658
58209W        W59073  22.415  18.665   4.869  0.0583 -0.0231 -0.3935
58210W        W59074   8.620  22.111   9.091  0.2110  0.1491  0.1670
58211W        W59075  20.961  14.830   1.925 -0.0652  0.0605  0.0192
58212W        W59076  13.758  22.917  27.240  0.0720  0.0698 -0.0778
58213W        W59077  15.413  10.977   7.875 -0.4236  0.0243  0.0628
58214W        W59078   2.065   7.041   5.834 -0.3170 -0.3137  0.2109
58215W        W59079  16.783   0.131  13.300 -0.2312 -0.0642 -0.1307
58216W        W59080   3.581  26.100  12.066  0.1881  0.1723 -0.1748
58217W        W59081  15.490   5.287  25.051  0.0061 -0.1524  0.3243
58218W        W59082   8.192  22.562  15.603  0.0483  0.0151  0.3209
58219W        W59083   6.909  28.037   2.218  0.0601 -0.1834 -0.0646
58220W        W59084   8.252   2.058  22.509 -0.5505 -0.0834 -0.2703
58221W        W59085  25.056  26.068   9.686  0.1478  0.0717 -0.0171
58222W        W59086   3.695  17.263   2.478 -0.3180 -0.3286  0.1576
58223W        W59087  22.890  19.771  22.833  0.0929 -0.1634 -0.0762
58224W        W59088  24.256  15.474   1.353  0.1221 -0.1965  0.1662
58225W        W59089  24.116  17.534  15.134  0.0321 -0.1195  0.2792
58226W        W59090  27.726  28.199  15.823  0.0802 -0.3029  0.0268
58227W        W59091  17.290  19.166  23.537  0.0385 -0.1355 -0.3255
58228W        W59092   9.074   7.315  21.726 -0.1085 -0.2557  0.1020
58229W        W59093   1.032  22.366  11.543 -0.0934  0.0513  0.0233
58230W        W59094   2.718  11.726  18.163  0.2732 -0.1522 -0.0095
58231W        W59095  17.137  16.779  22.777  0.0956 -0.2489  0.1332
58232W        W59096  14.892  19.353   0.056 -0.1033 -0.0895  0.1412
58233W        W59097  20.021  10.204  14.455  0.1035 -0.0993 -0.1748
58234W        W59098   9.522   5.385  13.173 -0.0008  0.1383 -0.0024
58235W        W59099  23.177   1.137  18.308 -0.1607  0.0185  0.0976
58236W        W59100   4.498  17.397   0.198  0.1576  0.0146  0.0290
58237W        W59101   4.076  12.435  23.352  0.0994  0.2446 -0.1053
58238W        W59102  21.548  18.859  18.544  0.0745 -0.0198  0.0133
58239W        W59103   1.176  23.065  10.674  0.1480  0.1299  0.0687
58240W        W59104  24.255  15.008  20.078 -0.0223 -0.2559  0.0908
58241W        W59105  23.837  14.343  28.861  0.3490  0.1349  0.0590
58242W        W59106   4.153   4.913  13.249 -0.2638 -0.0373 -0.1806
58243W        W59107  16.179  22.130  17.962  0.0858  0.2459 -0.0512
58244W        W59108   2.338   4.890  12.720  0.2170  0.1867  0.2370
58245W        W59109  12.876   6.047   1.432 -0.2342  0.0766 -0.4848
58246W        W59110  14.501   8.662  22.766 -0.0486  0.2153  0.0076
58247W        W59111  18.138  16.769  13.777 -0.1625  0.2156 -0.0238
58248W        W59112  21.129   8.415  19.205 -0.0072 -0.2046 -0.0442
58249W        W59113  21.996   4.874  16.985 -0.3131  0.0216 -0.0739
58250W        W59114  11.633   3.957  15.235  0.4024 -0.1336  0.2083
58251W        W59115  11.339   8.435  17.278  0.0933 -0.1232 -0.2315
58252W        W59116  15.507   0.766  21.037 -0.1264 -0.0421  0.1224
58253W        W59117  10.156  29.142  21.052 -0.0821  0.0713  0.0244
58254W        W59118   5.979  22.963  14.161  0.0167 -0.0355 -0.1583
58255W        W59119  16.140  20.423  16.706 -0.0200 -0.0220  0.0226
58256W        W59120   0.099   9.182  22.271 -0.2341  0.1852 -0.0375
58257W        W59121   9.658  15.302  23.382  0.0978  0.0515  0.1597
58258W        W59122   3.883   8.672   1.382 -0.2503  0.0792 -0.1273
58259W        W59123  23.665   5.215  21.726 -0.1152  0.1604 -0.1209
58260W        W59124   1.778  13.726  10.272  0.0414 -0.2008 -0.1233
58261W        W59125   5.507  25.369  14.025  0.0056  0.0270  0.1887
58262W        W59126   4.695  21.385  25.884  0.0136 -0.0261 -0.1529
58263W        W59127  23.232   9.981   7.990  0.1161  0.0129 -0.0381
58264W        W59128  25.930  20.710  16.392 -0.1054  0.0850  0.0279
58265W        W59129  11.929   5.902  24.892 -0.1482  0.0246  0.0744
58266W        W59130   5.872  18.625  12.308  0.0029  0.0282 -0.1962
58267W        W59131  16.855  11.552  17.412 -0.0530  0.0266  0.3248
58268W        W59132  11.047   9.352  19.325 -0.2097 -0.0896  0.1972
58269W        W59133  17.165   7.657  14.840  0.0085  0.2491 -0.3782
58270W        W59134   6.528  27.871   3.644 -0.1338 -0.1687 -0.3840
58271W        W59135  25.698  11.398  10.590  0.1654  0.0167  0.2817
58272W        W59136  26.865  11.805   0.119 -0.0796 -0.0685 -0.1236
58273W        W59137  13.645   1.398  22.477  0.0844 -0.1011  0.2414
58274W        W59138   2.404  16.395   8.122 -0.0797  0.0714  0.2280
58275W        W59139   6.393   4.627  16.340  0.4934 -0.0494  0.0058
58276W        W59140  17.534   3.304   5.768  0.0835  0.0524 -0.0809
58277W        W59141  12.247   3.234  13.696  0.5499 -0.0184  0.0731
58278W        W59142   6.539  13.012  12.179  0.2454  0.1420 -0.2620
58279W        W59143  26.683  13.114  11.207  0.0631 -0.1635 -0.2865
58280W        W59144  27.907   7.700  28.217  0.2829  0.2812 -0.0940
58281W        W59145   8.407   0.604  12.135 -0.3918 -0.2485 -0.0965
58282W        W59146  19.792   8.434  11.900 -0.0788  0.0519 -0.2891
58283W        W59147  14.363   6.647  11.389  0.0737  0.1435  0.0115
58284W        W59148  26.603  11.667  12.448  0.1821 -0.0214  0.0493
58285W        W59149  24.327  15.143  27.913  0.1405 -0.2289 -0.1125
58286W        W59150  22.419  17.703  10.986  0.0441  0.0064  0.1798
58287W        W59151   1.812  10.252   2.324 -0.0904 -0.4254 -0.0713
58288W        W59152  22.528   0.696  12.751  0.2700  0.0629  0.3120
58289W        W59153  24.856  28.199  13.018 -0.1824  0.2107  0.2145
58290W        W59154   1.411  22.529   9.334 -0.0920  0.4484  0.2231
58291W        W59155  11.611  28.115  17.665 -0.2914  0.0593 -0.0363
58292W        W59156  18.619   9.204   4.920 -0.0851 -0.0564 -0.1289
58293W        W59157  18.505   9.848  23.184  0.3689  0.1221 -0.0228
58294W        W59158  27.132  26.102  11.349 -0.3372  0.3242  0.0631
58295W        W59159   9.971   2.023  15.396 -0.2864 -0.0338  0.0841
58296W        W59160   7.007   7.487  24.567  0.1565  0.0516 -0.2220
58297W        W59161  14.521  15.607   8.264 -0.0916  0.0478 -0.2767
58298W        W59162   9.939  23.621  19.498  0.0764  0.0462  0.2434
58299W        W59163  24.272  18.839  16.230  0.3727  0.1317  0.0604
58300W        W59164  12.489   9.032   0.412  0.2344  0.1344 -0.2649
58301W        W59165   7.221   0.590  27.309 -0.1912 -0.2600 -0.1090
58302W        W59166   9.983   7.866  21.685  0.1118 -0.0223  0.1781
58303W        W59167  10.619   9.174  26.020 -0.4082  0.1477 -0.0738
58304W        W59168  25.245  11.075  14.804  0.2542  0.1517  0.1210
58305W        W59169   3.837   6.040  12.109 -0.2071 -0.0854 -0.1316
58306W        W59170   7.084  12.208  21.171 -0.2444 -0.2995 -0.0910
58307W        W59171  23.675  26.600   3.753  0.1325 -0.3739  0.2194
58308W        W59172  10.550   5.316   7.223  0.2307 -0.0212 -0.0850
58309W        W59173  26.113   1.590  20.518  0.0740 -0.2783  0.1446
58310W        W59174  10.485   0.109  10.249  0.1040  0.0812 -0.0039
58311W        W59175  28.274  20.490  16.627  0.1145 -0.3883 -0.0129
58312W        W59176   3.324   4.150  17.891 -0.2089 -0.1009  0.1361
58313W        W59177  17.635   3.434  26.920 -0.0553 -0.2284 -0.0225
58314W        W59178  25.406   4.799  20.968 -0.0096 -0.1732 -0.1425
58315W        W59179  26.313  14.985  10.874  0.0459  0.0185  0.1101
58316W        W59180   7.000  25.967   1.390 -0.1971  0.2004 -0.0242
58317W        W59181  20.309   7.174   9.389  0.1634 -0.2307  0.3710
58318W        W59182  13.955  28.173  13.483 -0.0992  0.3368  0.1430
58319W        W59183   2.439   0.585  12.387 -0.0228  0.0399 -0.1272
58320W        W59184   1.494   0.204  26.568  0.0242 -0.1594  0.1094
58321W        W59185  21.866   4.156  20.622 -0.1708 -0.1517  0.0964
58322W        W59186  11.599  12.212  14.410 -0.3675  0.0492 -0.1672
58323W        W59187  21.746  19.015  18.109 -0.0203  0.2795 -0.0973
58324W        W59188   2.457   7.726  25.543 -0.2316  0.1969  0.2188
58325W        W59189  28.681  18.876  14.431  0.2410 -0.1033 -0.0692
58326W        W59190   4.339  12.477   5.554  0.1868  0.0656  0.2310
58327W        W59191  16.396  12.251  25.951  0.0295  0.0276  0.4949
58328W        W59192  20.004  10.340  12.573  0.0898 -0.0422  0.0159
58329W        W59193  21.787   8.956  25.486  0.1057 -0.1559  0.3168
58330W        W59194   2.224   0.433   0.369 -0.1539  0.0647 -0.1510
58331W        W59195  19.064   9.396  19.272  0.0191 -0.0015  0.1052
58332W        W59196  10.764  11.147   9.407 -0.0134 -0.0439 -0.0307
58333W        W59197   7.575   8.492  23.334 -0.0694 -0.2095  0.1489
58334W        W59198  19.256  22.534  13.250  0.3055  0.2728 -0.0055
58335W        W59199   9.592  22.054  27.235 -0.5701  0.2877 -0.1971
58336W        W59200  27.346  18.375   3.072  0.0495  0.0346 -0.1685
58337W        W59201  18.249  29.045  27.407  0.0862 -0.0636 -0.2142
58338W        W59202  23.014   0.083   8.182  0.2148 -0.2715  0.1196
58339W        W59203  26.073   1.446  17.598  0.1351 -0.0958  0.1526
58340W        W59204  20.328   4.154  11.363  0.3501  0.1878 -0.1872
58341W        W59205  25.742   4.855  21.313  0.3214  0.3577  0.1415
58342W        W59206  25.758  23.204  14.757  0.0088 -0.0360 -0.1282
58343W        W59207   9.267  27.389  19.626  0.4474 -0.1474 -0.2307
58344W        W59208  24.232  16.585  27.681  0.0577 -0.2237 -0.1793
58345W        W59209   6.050   1.845  25.265  0.1846  0.0794 -0.3059
58346W        W59210  20.281   2.246  28.079  0.1670  0.0367 -0.0744
58347W        W59211  27.902   2.914   1.478  0.0337 -0.0994  0.0657
58348W        W59212  22.362   9.716  17.193 -0.4067 -0.2549 -0.1454
58349W        W59213   2.632  21.069  11.609 -0.1772 -0.1947  0.1648
58350W        W59214  16.964  17.777  14.070  0.4063  0.1112 -0.2210
58351W        W59215   0.910   0.224   3.331  0.1633  0.0348 -0.1046
58352W        W59216  14.238  17.737   0.705 -0.2295 -0.0084  0.2705
58353W        W59217   4.357   4.719  19.115 -0.3379 -0.1378 -0.1867
58354W        W59218  25.671  28.510  17.884 -0.3435  0.3094 -0.2287
58355W        W59219   5.013  19.237  20.838 -0.1995 -0.1358  0.1745
58356W        W59220   7.314   8.245  11.088  0.1379 -0.2532 -0.4043
58357W        W59221   6.872  10.678   8.972  0.1060  0.1164  0.0292
58358W        W59222  14.546  17.959  17.795 -0.2258  0.2396 -0.2070
58359W        W59223  22.182   8.646  21.826 -0.1303  0.1480  0.2812
58360W        W59224  27.805  13.396  12.056 -0.0956 -0.2106 -0.2070
58361W        W59225  23.039   2.670   4.289  0.2695 -0.0934  0.1086
58362W        W59226  17.559   8.675   8.688 -0.0037  0.0889  0.1955
58363W        W59227   1.830  15.255  21.550  0.2144  0.0236 -0.3141
58364W        W59228   6.293  12.165  19.453 -0.0467 -0.1572  0.0329
58365W        W59229  10.891  18.723  15.539 -0.2578 -0.1468  0.3045
58366W        W59230  24.034  14.867  10.301 -0.1374 -0.3345 -0.2664
58367W        W59231  18.171   6.389  18.868 -0.2695  0.5367  0.1139
58368W        W59232  24.546  17.769   6.577 -0.0711 -0.0008 -0.4779
58369W        W59233  19.676  27.048  24.319 -0.2902  0.1887 -0.0912
58370W        W59234  20.715  11.294  26.165 -0.0098  0.1112 -0.0769
58371W        W59235  15.951  17.488   4.912  0.1695  0.2959 -0.1463
58372W        W59236   4.534   1.284  17.312  0.1282 -0.4637 -0.1480
58373W        W59237   9.566  27.355  17.235 -0.0553 -0.0702  0.0405
58374W        W59238  20.847   1.413   9.888  0.0233 -0.1723 -0.1802
58375W        W59239  21.803  12.623   9.513 -0.1743  0.2660  0.1303
58376W        W59240   9.730  16.303  19.704 -0.2220  0.0868  0.2629
58377W        W59241  27.324  22.559   0.615  0.2344 -0.0915  0.1130
58378W        W59242  19.847  11.993  14.366  0.0067 -0.1992 -0.0028
58379W        W59243  25.067   3.358  14.194  0.0615  0.0638 -0.0883
58380W        W59244  28.233  13.256  11.733 -0.2815 -0.0570 -0.0623
58381W        W59245   7.145   8.871   1.568 -0.3033 -0.3285  0.0497
58382W        W59246  18.654  10.703  13.501  0.1519 -0.1926  0.0425
58383W        W59247  12.618   1.480  19.790 -0.0666 -0.0016  0.0403
58384W        W59248  28.174  21.333  16.933  0.0966  0.0544  0.0653
58385W        W59249   9.523  15.780  25.397 -0.1952 -0.0050  0.0107
58386W        W59250  20.804  22.133   2.133 -0.1313 -0.3200 -0.2090
58387W        W59251   7.894  24.930  10.981 -0.3824 -0.0030  0.1259
58388W        W59252  25.459   2.497  20.252 -0.1300  0.1878  0.0028
58389W        W59253   3.583  11.181  25.915  0.0822 -0.1091 -0.1301
58390W        W59254  28.163   6.224  18.597 -0.0539  0.0180  0.0715
58391W        W59255  25.984   1.303  27.855  0.3061  0.0971 -0.1264
58392W        W59256  22.721   4.237  15.413 -0.0512 -0.1676 -0.0714
58393W        W59257  27.557  13.218   6.109  0.1159 -0.0282 -0.3020
58394W        W59258  12.723   8.928   5.342  0.1574  0.2018 -0.2175
58395W        W59259  11.979   3.102   0.189 -0.0194  0.0206  0.2072
58396W        W59260   1.598  14.849  11.849  0.0941  0.1824 -0.0847
58397W        W59261  27.021   7.205  22.420 -0.3081  0.0629 -0.2880
58398W        W59262  24.123  12.862   4.853 -0.1096  0.1787  0.1158
58399W        W59263  20.768  16.564   7.460  0.1154  0.0640 -0.0777
58400W        W59264  23.593   8.152  20.231  0.0980 -0.1178  0.1608
58401W        W59265  27.506  22.438   1.063 -0.3283 -0.0662  0.4232
58402W        W59266   3.027  16.475  10.784 -0.0665  0.3174  0.0427
58403W        W59267   7.997  10.474   3.359  0.1842 -0.0116  0.2169
58404W        W59268  24.486  24.791   7.185 -0.0957  0.2278 -0.1901
58405W        W59269   2.424  23.949  11.924  0.1771  0.3004  0.1213
58406W        W59270  21.543   0.856  13.313 -0.0701  0.3845 -0.1431
58407W        W59271   7.977   8.505  18.894  0.1359  0.1082 -0.1489
58408W        W59272  22.141  28.231  16.632 -0.0979 -0.0817  0.0604
58409W        W59273  22.494   1.303  18.662 -0.0355  0.1412  0.0614
58410W        W59274   6.342  17.870  13.793 -0.1224  0.2243  0.1060
58411W        W59275  13.341  28.498   1.637  0.2087 -0.2436  0.0703
58412W        W59276   9.414  26.272  20.192 -0.0316  0.0525 -0.1771
58413W        W59277   7.900  19.945  13.130 -0.0640 -0.1412  0.1291
58414W        W59278  22.745   2.844  11.195 -0.1570 -0.0448 -0.0063
58415W        W59279  18.153  27.757  11.548 -0.5048  0.0572  0.0532
58416W        W59280   9.752   1.060   9.934 -0.1799 -0.2226 -0.0717
58417W        W59281   3.770  17.559  27.329  0.0293  0.0373  0.4550
58418W        W59282  20.505   0.637   8.934  0.0481 -0.1234 -0.1978
58419W        W59283  26.746   2.171  24.297 -0.1266 -0.2882 -0.0247
58420W        W59284   9.557  27.028   2.914 -0.0252 -0.0620 -0.1314
58421W        W59285  14.992  10.358  25.016  0.0353  0.1482 -0.0534
58422W        W59286   5.035   8.079  17.263  0.1303  0.1371  0.0546
58423W        W59287  20.046   1.677  10.783 -0.0750 -0.1695  0.1031
58424W        W59288   9.893  13.475  23.643 -0.4322  0.1189 -0.0197
58425W        W59289   6.409   0.404  26.665  0.1217  0.3588  0.0970
58426W        W59290  23.173  20.203  22.794 -0.2774  0.0425 -0.1118
58427W        W59291  16.535  10.431  15.253 -0.0749 -0.2328  0.1488
58428W        W59292   0.833  24.328   8.285 -0.2527 -0.1875 -0.2549
58429W        W59293   1.160  10.777  17.407  0.1750 -0.0257 -0.1449
58430W        W59294  29.131  18.103  21.158 -0.0735 -0.0915 -0.1302
58431W        W59295  27.635   3.287   5.058  0.0086  0.1679 -0.0562
58432W        W59296   1.864  24.802  15.108  0.2562 -0.0624 -0.0759
58433W        W59297  21.595  19.473  14.364  0.1199  0.0955  0.1629
58434W        W59298  10.438   0.333  24.144  0.1776 -0.0158  0.1116
58435W        W59299  13.053  12.692  19.299  0.1317 -0.3511 -0.2248
58436W        W59300   4.556  24.682  16.799  0.1211 -0.0298  0.0834
58437W        W59301   2.620   3.055  22.538  0.4321 -0.1981 -0.1730
58438W        W59302   0.808   7.522  18.638  0.2592 -0.1778  0.2300
58439W        W59303  19.953  13.845  20.519  0.2764 -0.0292  0.0687
58440W        W59304  22.246  14.977  13.248 -0.1352  0.0928  0.1950
58441W        W59305   8.897   1.395  19.920  0.2751 -0.3426 -0.1084
58442W        W59306  27.452   8.718  11.831 -0.1992 -0.0137  0.1155
58443W        W59307   7.948   5.253  21.036  0.2603 -0.2722  0.2749
58444W        W59308   1.024  26.789   6.712  0.3044 -0.1318  0.0043
58445W        W59309   5.731  11.598  18.594  0.0016  0.1540  0.4669
58446W        W59310  28.868  14.300  11.257 -0.3302 -0.0835  0.0167
58447W        W59311  22.516  26.902   2.800  0.0226  0.1772 -0.0138
58448W        W59312  21.145   7.634   4.917  0.1412  0.3062 -0.0126
58449W        W59313   0.156   1.339  18.563 -0.1840 -0.2154  0.0857
58450W        W59314  26.245   8.941   1.462  0.1017  0.0157 -0.0358
58451W        W59315  25.164   1.707  16.722  0.2076  0.2914  0.0128
58452W        W59316   0.617   4.869  20.753 -0.0027  0.0763  0.0895
58453W        W59317  20.798  28.043  26.209 -0.1148  0.2269 -0.2571
58454W        W59318   3.658  10.294   7.889  0.0013 -0.2483  0.0245
58455W        W59319   5.438   5.516  20.625 -0.2378  0.2230 -0.0044
58456W        W59320   5.727  11.334   2.615 -0.2663 -0.0831 -0.2396
58457W        W59321  11.769   8.028   8.979  0.0033 -0.2151 -0.0570
58458W        W59322  18.986  12.643   0.695 -0.0758  0.0154 -0.3652
58459W        W59323  16.963  22.459  16.542 -0.1748 -0.3141  0.3686
58460W        W59324  24.634  23.575  17.344  0.1754 -0.1430 -0.1101
58461W        W59325  12.178  19.989   7.070  0.1206 -0.0529 -0.0552
58462W        W59326  13.248   2.075   9.116 -0.0021  0.1630  0.2792
58463W        W59327   3.805  13.136  22.049 -0.4888 -0.0577  0.1931
58464W        W59328  24.604  18.463  21.140  0.3407  0.2294 -0.0757
58465W        W59329  14.464  17.876   5.334  0.1112  0.0906  0.2951
58466W        W59330  11.272  24.142   1.716  0.0039 -0.2801  0.4220
58467W        W59331  20.923  12.423   9.064  0.0560  0.0474 -0.1201
58468W        W59332  11.311   4.220  28.454 -0.1088 -0.1119  0.0203
58469W        W59333   5.800   4.035  23.779  0.0009  0.0263  0.0584
58470W        W59334  21.556   4.902  15.513  0.3885  0.1739 -0.3468
58471W        W59335  17.546  19.633   9.723 -0.0266 -0.1273  0.0736
58472W        W59336  27.293   0.087  22.078 -0.0736 -0.1947 -0.1571
58473W        W59337  17.827  24.738   8.541 -0.2385 -0.0038 -0.1614
58474W        W59338  10.829   1.881  15.681  0.0434 -0.2023 -0.3309
58475W        W59339   5.385   8.778  24.737 -0.0867 -0.3803  0.4443
58476W        W59340  18.379  22.152  21.363 -0.0929 -0.0482  0.0466
58477W        W59341   7.398  22.184  23.230 -0.3069  0.0411 -0.2388
58478W        W59342  28.047   3.473  23.449 -0.1610 -0.0245 -0.2593
58479W        W59343  20.253   0.050  18.077  0.0034 -0.2077 -0.3929
58480W        W59344   7.664   7.838  15.253 -0.0395 -0.0944 -0.0694
58481W        W59345   8.416  10.207  21.210  0.0065 -0.0363 -0.0868
58482W        W59346   1.425   0.172  15.348  0.4145 -0.2720 -0.0609
58483W        W59347  19.546  19.964  22.947 -0.1154  0.1016  0.2540
58484W        W59348  16.904  28.620  13.304  0.1177 -0.0269 -0.1676
58485W        W59349   6.179  26.528   9.619  0.2243 -0.0607  0.1146
58486W        W59350   6.953  13.746  17.239  0.2019  0.0505 -0.0475
58487W        W59351  17.909   4.887  20.272 -0.3579  0.4377 -0.0834
58488W        W59352   9.793  25.624   2.591  0.1882  0.1624  0.2466
58489W        W59353  12.252  27.388   6.885 -0.0451 -0.0282  0.0090
58490W        W59354  20.563  21.746  11.414 -0.1555  0.0914 -0.0587
58491W        W59355  24.275  13.165   2.809  0.1441  0.3545 -0.2417
58492W        W59356   5.838  15.315  16.135 -0.0077  0.3063  0.0494
58493W        W59357  25.935  23.316   7.512  0.1309  0.1139  0.3618
58494W        W59358  24.863  16.383  11.528  0.1544  0.0313  0.0248
58495W        W59359  19.068   0.347   1.918 -0.1471 -0.0399  0.0098
58496W        W59360  26.606   8.093  26.831  0.0079 -0.1387 -0.1310
58497W        W59361  22.540  26.417  21.252 -0.2168  0.2697 -0.1174
58498W        W59362   7.117   5.387  10.024  0.0573 -0.1611 -0.2976
58499W        W59363   5.877   6.887   0.981  0.0754 -0.2344 -0.0033
58500W        W59364  14.046  22.388   2.410  0.1507 -0.1494  0.0832
58501W        W59365  27.504   0.392  26.320  0.0414  0.1479  0.1528
58502W        W59366  20.317  11.700  15.643  0.1385  0.0578 -0.2354
58503W        W59367   3.745  14.832  16.457  0.1217  0.2388 -0.3130
58504W        W59368  10.692  10.734  15.371  0.1038  0.1957 -0.3598
58505W        W59369  18.552  17.828  18.538 -0.1688  0.2947  0.0616
58506W        W59370  18.590   9.805  17.596 -0.2619  0.2955  0.2145
58507W        W59371  21.022  13.858   8.255 -0.0319 -0.0462  0.1049
58508W        W59372  27.881  17.734  23.981  0.2612  0.0059  0.2183
58509W        W59373   2.168  16.426  16.039  0.0926  0.0586  0.1251
58510W        W59374  14.729  24.341  13.954  0.1673 -0.2520  0.3293
58511W        W59375  18.307   7.983  28.851  0.2789 -0.0912  0.1342
58512W        W59376   8.066   8.994  28.303 -0.0821 -0.0469 -0.0948
58513W        W59377  11.686   5.950  17.635  0.0311 -0.0494  0.0048
58514W        W59378  23.476  20.354   4.204 -0.0672  0.1898 -0.1534
58515W        W59379   0.131  26.492   2.910  0.0944 -0.1749  0.1892
58516W        W59380  26.866  29.109  27.696  0.2745  0.2078  0.0821
58517W        W59381  26.940   2.805  14.515 -0.1496 -0.0104 -0.3924
58518W        W59382  27.869  26.577  15.173  0.1419 -0.1036 -0.2284
58519W        W59383  10.342  11.110  11.272  0.0509 -0.3887  0.0539
58520W        W59384   0.299  20.755   4.461  0.0806 -0.3885 -0.2420
58521W        W59385  26.897  27.765  11.203 -0.0415 -0.2177  0.1676
58522W        W59386  12.355   9.881  14.290 -0.3136  0.0228  0.0832
58523W        W59387  22.338  12.706   3.187  0.1753  0.2581  0.1829
58524W        W59388  11.956   0.147  20.905  0.3821 -0.2137 -0.0364
58525W        W59389   7.424  25.956   4.571 -0.1668 -0.2474 -0.1178
58526W        W59390  25.482  22.339  11.240 -0.2025 -0.0923 -0.0507
58527W        W59391  29.088  18.736  11.523  0.2019 -0.1460  0.1788
58528W        W59392   3.867   5.650   0.938  0.1438 -0.0498 -0.0312
58529W        W59393   8.179   2.484   3.631  0.0954 -0.0741 -0.0583
58530W        W59394   9.698  20.778  13.915 -0.1963  0.0509  0.0236
58531W        W59395  27.796  10.421  15.668 -0.1427  0.4731 -0.1905
58532W        W59396  26.538  13.544   9.971  0.2626 -0.2175  0.0772
58533W        W59397   2.068   5.960  27.545 -0.1328  0.0619 -0.3355
58534W        W59398  27.467   5.629   2.716  0.0536  0.2241 -0.0064
58535W        W59399  21.917  28.577  20.921 -0.0985 -0.1351 -0.1234
58536W        W59400  22.029  22.113   9.351  0.1123 -0.0600 -0.4065
58537W        W59401  13.659   5.772  27.522 -0.2286  0.0665  0.2008
58538W        W59402  12.826  14.688  25.436 -0.1770  0.2343 -0.0743
58539W        W59403   3.499  27.592   7.989  0.0030  0.1977  0.1803
58540W        W59404  20.415   8.114   8.149  0.0720 -0.1849  0.0402
58541W        W59405  22.901  22.178   6.008  0.0090 -0.0970 -0.0568
58542W        W59406  24.168   8.371  22.253  0.4436 -0.0716  0.2082
58543W        W59407   2.069  26.793  10.909 -0.0184  0.3323 -0.0285
58544W        W59408   6.413  14.249  11.504  0.2032  0.1796  0.1546
58545W        W59409  19.159  28.859  10.560 -0.2075 -0.2479  0.0144
58546W        W59410  23.349  29.137  11.036  0.0609  0.1774  0.1196
58547W        W59411  27.671   6.798  20.869 -0.0403 -0.2009 -0.0718
58548W        W59412  18.988  23.068  14.832  0.1300  0.0994  0.0643
58549W        W59413   3.781  27.117   2.227  0.0002 -0.0505 -0.0384
58550W        W59414  27.716  29.023  18.606 -0.1735  0.0759 -0.1452
58551W        W59415  16.875  18.247  20.812 -0.0013 -0.1403  0.3651
58552W        W59416  28.641   0.854   8.752  0.0980 -0.0690  0.5523
58553W        W59417  18.151   0.888  25.906 -0.4570  0.0211 -0.1073
58554W        W59418   3.881  14.429   0.290  0.2201 -0.0703 -0.0766
58555W        W59419   0.578   3.713  19.669 -0.0886  0.2998  0.2147
58556W        W59420   2.263   9.549  15.799  0.2030  0.1276  0.1435
58557W        W59421   8.387  15.982  21.346 -0.0284 -0.0290 -0.1596
58558W        W59422  23.887  23.959   6.066 -0.0752 -0.0426  0.3396
58559W        W59423  24.777   6.299  17.179 -0.1507 -0.4013 -0.0891
58560W        W59424   5.500  19.517  21.623 -0.3011  0.0816 -0.3669
58561W        W59425  18.848   6.277  16.758  0.0032 -0.1369  0.0308
58562W        W59426  25.632  12.866  13.649  0.0986  0.0299  0.0974
58563W        W59427  12.336   9.568  22.628 -0.3297  0.1230 -0.1591
58564W        W59428  12.882  13.689  19.408  0.1429  0.2487 -0.2777
58565W        W59429  22.784  28.367   1.272 -0.0093 -0.0330 -0.0972
58566W        W59430  10.442  15.094   7.906  0.1818 -0.2597 -0.1688
58567W        W59431  11.163  20.811   1.084 -0.1368 -0.1328 -0.1611
58568W        W59432   5.592   8.699  21.604 -0.1708 -0.0821  0.4145
58569W        W59433  13.991   4.565  14.673 -0.0043  0.0559  0.1805
58570W        W59434   0.738  26.950   7.885 -0.4291 -0.2996  0.1350
58571W        W59435   1.389  14.807   3.390 -0.0525 -0.1135  0.0216
58572W        W59436  13.242  28.970  12.317 -0.0717  0.2162  0.0382
58573W        W59437  20.070  17.732  11.566  0.0758  0.0060  0.0435
58574W        W59438  19.948  24.962  19.616  0.2192 -0.0994  0.0848
58575W        W59439  21.869  15.060   2.230  0.0571  0.0329 -0.1284
58576W        W59440  22.466   5.002  23.368 -0.0609 -0.0384  0.0043
58577W        W59441  26.555   3.097  16.832  0.0528  0.0884  0.2636
58578W        W59442  15.763  11.869  28.884 -0.1062 -0.2055 -0.0278
58579W        W59443  10.276  28.330  21.104 -0.0476  0.1331  0.0573
58580W        W59444  28.349   7.995   3.628  0.0957  0.1589  0.0201
58581W        W59445  23.917  26.487   5.330 -0.2943 -0.1120 -0.1035
58582W        W59446  10.517  22.198  26.514  0.0980 -0.0423  0.0982
58583W        W59447   4.677  27.905  13.285 -0.2538 -0.0862 -0.0400
58584W        W59448  27.325  23.867  17.095 -0.1232 -0.1852 -0.2358
58585W        W59449  18.408  10.463  23.315  0.1428 -0.1940  0.2837
58586W        W59450  19.926  28.740   6.444 -0.0425  0.0106 -0.2937
58587W        W59451   6.279  27.087  16.512 -0.1442 -0.4243 -0.1646
58588W        W59452  14.737   6.758   3.880  0.1317  0.0614  0.2366
58589W        W59453  28.541   2.486  18.038 -0.0946 -0.1536  0.1151
58590W        W59454  22.187   2.398   5.156  0.2281 -0.0468  0.1058
58591W        W59455  27.580   2.783  10.935 -0.0476  0.0973 -0.1790
58592W        W59456  18.010  13.966  22.516 -0.1697 -0.1768  0.0716
58593W        W59457  10.265  27.701  24.552  0.1954  0.1880  0.0291
58594W        W59458  11.890   2.638  16.436 -0.1082 -0.0557  0.2073
58595W        W59459  17.522  25.702  23.079  0.0006  0.0613  0.0379
58596W        W59460   3.472   1.589  20.343  0.1407 -0.2690  0.2307
58597W        W59461   7.462  27.436   5.508  0.1585 -0.3015 -0.2702
58598W        W59462  17.297   8.977  17.909  0.1275  0.3362  0.1668
58599W        W59463  23.725  10.554  11.044 -0.2268  0.2647 -0.0278
58600W        W59464  21.033   7.020  18.631  0.0173  0.0066 -0.0943
58601W        W59465  25.534  19.579  17.265  0.3149 -0.2876  0.4311
58602W        W59466  16.739   4.545  26.719  0.1133  0.2991  0.0149
58603W        W59467  24.906  23.904  16.653  0.1309  0.2647 -0.0956
58604W        W59468  13.721  23.624  21.288 -0.0717  0.1980  0.1087
58605W        W59469  15.889   9.875  17.405 -0.1456 -0.1923 -0.1496
58606W        W59470  27.314  16.410   5.774 -0.2949 -0.0736  0.3175
58607W        W59471  28.398   0.945  25.064 -0.0128  0.0851  0.1364
58608W        W59472   6.815   6.655  26.344  0.0821 -0.1632 -0.1442
58609W        W59473  19.904   0.618  22.957 -0.0747  0.0520 -0.0233
58610W        W59474  18.218  26.257  10.650 -0.0781 -0.1296 -0.0032
58611W        W59475   6.512  13.288  18.862  0.1130  0.1792 -0.0687
58612W        W59476  22.327   9.086   3.737  0.0311 -0.2916  0.0779
58613W        W59477   1.126   8.146  12.139  0.3260  0.1020  0.1604
58614W        W59478  20.799   6.077  20.883  0.1920  0.3046 -0.0714
58615W        W59479  23.224  25.500   9.893  0.1654 -0.0360 -0.0472
58616W        W59480  11.817  27.438  15.085 -0.2077 -0.1563  0.1177
58617W        W59481   2.108  27.543  26.636  0.1268 -0.2998  0.1285
58618W        W59482  17.537  27.987  10.229 -0.0125 -0.2222 -0.0185
58619W        W59483  27.030  16.958  13.611 -0.0441 -0.0244  0.3542
58620W        W59484  10.106   4.561   0.329  0.3796 -0.0967 -0.1652
58621W        W59485   4.583  24.660  12.883 -0.2794 -0.2469  0.0038
58622W        W59486   7.655   8.451  12.629  0.1127 -0.0280 -0.2252
58623W        W59487  25.619   5.082  20.014  0.1441 -0.0172 -0.0907
58624W        W59488  22.893  18.998  14.877 -0.2171 -0.0427  0.5435
58625W        W59489  17.982   1.836  11.901  0.3128  0.1570  0.0267
58626W        W59490  27.313  10.995  19.241  0.1143 -0.2622  0.2782
58627W        W59491  26.186  23.397  10.791  0.3192 -0.3003 -0.4766
58628W        W59492   6.580  14.250  25.220  0.0745  0.1172 -0.0220
58629W        W59493   2.135   2.821  14.162 -0.0810 -0.1950 -0.0121
58630W        W59494  26.071   5.392  23.605 -0.0314 -0.3059 -0.4043
58631W        W59495  26.336  26.613   6.229 -0.0749  0.1573  0.1377
58632W        W59496  24.875  20.656   6.228 -0.2287  0.0515 -0.1701
58633W        W59497   4.928  13.107  11.525  0.0975 -0.1098  0.2422
58634W        W59498   9.118  27.031   9.782 -0.0565  0.0011 -0.1449
58635W        W59499   5.916   3.199  18.568 -0.1216 -0.0230  0.1347
58636W        W59500  25.910   8.804  23.374  0.4213 -0.1845 -0.2874
58637W        W59501  15.920   9.469  24.322 -0.3286  0.1051 -0.1490
58638W        W59502   3.321  25.097  28.662  0.2175  0.0553 -0.0200
58639W        W59503  28.675  13.395  14.607 -0.1663  0.2537 -0.0277
58640W        W59504   5.328  15.011  20.126 -0.1628  0.2152  0.1056
58641W        W59505  16.062  13.214  12.656 -0.1422  0.1959 -0.1974
58642W        W59506  19.453   3.290   5.495  0.2134 -0.1551 -0.1627
58643W        W59507  26.870   2.686   3.405  0.0245 -0.5083 -0.2504
58644W        W59508  22.673   0.853   2.721 -0.0838 -0.2891  0.0274
58645W        W59509   0.615   6.330  13.113  0.0722  0.0454 -0.1063
58646W        W59510  18.929  17.166   2.937  0.1984  0.0068 -0.1082
58647W        W59511  17.847  18.111  10.388 -0.0986  0.0199  0.1117
58648W        W59512  24.008  10.717  26.035 -0.1025  0.0695  0.0222
58649W        W59513  14.594  28.708  14.307  0.2817  0.1135 -0.1681
58650W        W59514  20.394  21.628  20.824  0.0546 -0.1349  0.0969
58651W        W59515  25.846  14.304  22.998 -0.0596  0.0046 -0.1370
58652W        W59516  16.824   8.142  11.534  0.1146  0.1025 -0.0452
58653W        W59517  15.224  20.731  21.085  0.0333  0.2791  0.2048
58654W        W59518  17.400  25.162  14.823  0.3279 -0.0388 -0.0075
58655W        W59519   9.603   0.532  18.178  0.2335 -0.0030  0.1972
58656W        W59520  22.056   6.499   7.938 -0.1510 -0.1571  0.0177
58657W        W59521  19.716  11.367   1.457 -0.1505  0.3684 -0.1947
58658W        W59522   8.070   1.586  19.521  0.2224 -0.1890  0.1877
58659W        W59523  25.740  17.880   7.519  0.0885 -0.0090 -0.2278
58660W        W59524  16.782  15.553   6.820  0.1634 -0.0772 -0.0009
58661W        W59525  15.615  14.706  14.965 -0.1721  0.1307  0.1765
58662W        W59526  11.132  17.028  20.175  0.0938 -0.2664 -0.1384
58663W        W59527  25.146  29.065  10.396  0.0298  0.2739  0.0779
58664W        W59528  25.911   6.572  19.039 -0.0920 -0.1013  0.1629
58665W        W59529  20.681  17.302   5.535  0.0727 -0.0497 -0.0401
58666W        W59530   5.933  10.892  17.080  0.1625 -0.2616  0.1040
58667W        W59531  21.768   5.369  14.403  0.1078  0.0902 -0.2461
58668W        W59532  28.656  10.232  27.565 -0.2225  0.1030  0.2087
58669W        W59533  13.300   5.759  18.470  0.1853  0.0806 -0.3792
58670W        W59534  11.747   4.029  22.767  0.0073 -0.0367  0.1154
58671W        W59535  15.162  16.280   6.224 -0.2001  0.3348  0.0999
58672W        W59536   7.709  27.163  24.485 -0.1461 -0.0436  0.1608
58673W        W59537   6.385   0.105  22.804 -0.2034  0.0119 -0.2072
58674W        W59538  17.327  28.552  15.367 -0.0602  0.0284  0.1825
58675W        W59539  10.825  25.016   7.148 -0.0696 -0.0969  0.0800
58676W        W59540   7.936  18.974  21.592 -0.2601 -0.1900  0.2140
58677W        W59541  10.054   6.873  26.136  0.0773  0.0892  0.0747
58678W        W59542  22.817  15.838  22.157 -0.0987  0.4357  0.0383
58679W        W59543  12.759  24.899  19.468 -0.0815 -0.1265  0.0483
58680W        W59544   8.522  11.467  27.441  0.1929  0.0801  0.1546
58681W        W59545   9.582  29.000  27.853  0.1029  0.0502  0.3353
58682W        W59546   7.119   0.383  15.338 -0.1237  0.0219 -0.0903
58683W        W59547  21.413   2.343  11.991  0.0677  0.1817 -0.2804
58684W        W59548  17.490  25.489   4.991  0.0254  0.0165 -0.0172
58685W        W59549  23.512  10.979   1.018  0.3048 -0.2397 -0.4656
58686W        W59550  23.750  17.911   7.667 -0.0257 -0.1214  0.0287
58687W        W59551   8.102   9.476  20.262 -0.0141 -0.2089  0.3278
58688W        W59552   5.074   4.006   2.556 -0.0399  0.1720  0.1771
58689W        W59553  14.276   7.592  18.350 -0.1254 -0.1831 -0.0547
58690W        W59554  19.127  14.960  19.147 -0.1968 -0.2396 -0.2640
58691W        W59555   4.918  10.238  10.541  0.2227 -0.1721  0.3100
58692W        W59556  24.911  11.325  17.711 -0.0302 -0.0635  0.1746
58693W        W59557  18.958  23.381  24.687  0.1090  0.0183 -0.2354
58694W        W59558  14.056  10.602  16.873  0.1889  0.0445  0.2809
58695W        W59559  26.602  21.983  19.742  0.2315 -0.1027  0.1264
58696W        W59560   3.049  10.643  12.924  0.1803  0.2848  0.2636
58697W        W59561  18.276  17.332   5.954 -0.0115  0.2578 -0.0559
58698W        W59562   5.922  20.861  10.190  0.1037 -0.0452  0.0869
58699W        W59563  18.279  14.013   8.008  0.2540  0.2664 -0.0929
58700W        W59564  22.853  12.761  27.650 -0.4956  0.1784 -0.1435
58701W        W59565  24.772   2.373  20.612 -0.1340 -0.0584  0.1308
58702W        W59566   4.001   6.565  22.901  0.1501  0.0336 -0.2644
58703W        W59567   7.016   3.859   1.187  0.3019 -0.2691 -0.2669
58704W        W59568  14.784   0.866  12.714  0.2990  0.0805  0.1160
58705W        W59569  19.518   1.615   4.496 -0.0878 -0.1028  0.1399
58706W        W59570  20.872   7.106  25.752 -0.2216  0.1434  0.1290
58707W        W59571   7.893  11.456   1.294 -0.1626 -0.0278  0.1756
58708W        W59572  27.213  15.102  14.045  0.1323  0.0230 -0.0938
58709W        W59573   2.403  21.899  20.720 -0.4052  0.0678  0.3072
58710W        W59574  24.425  18.031  18.853 -0.2654  0.0083 -0.0146
58711W        W59575   7.915  19.480  17.137 -0.3715  0.1687 -0.1082
58712W        W59576   6.022  11.878   7.260 -0.0660  0.1075  0.1560
58713W        W59577  17.553  14.007  11.646  0.2834  0.0661  0.1293
58714W        W59578  17.808  18.305  21.287  0.2197 -0.1832 -0.2422
58715W        W59579  26.228  19.788  20.438 -0.0662  0.0562  0.3406
58716W        W59580  27.697  23.988  23.474  0.2253  0.2547  0.1178
58717W        W59581   6.473  14.787   7.780  0.0848 -0.1255 -0.1155
58718W        W59582  24.547   1.840  14.836  0.0563  0.1049 -0.0325
58719W        W59583   0.848  25.551   7.926 -0.2247  0.0599 -0.1163
58720W        W59584  24.008  14.366  10.380 -0.0407  0.2871  0.3897
58721W        W59585  25.693  14.656  18.573  0.2513  0.1052 -0.1256
58722W        W59586  25.219  11.193  15.678  0.0504  0.1218 -0.0041
58723W        W59587  15.572   0.036  20.173  0.3057  0.0354 -0.1361
58724W        W59588  17.498   9.391  11.309  0.2202  0.2241  0.1653
58725W        W59589  27.332  12.009   3.596 -0.0654  0.1600 -0.1162
58726W        W59590  16.524  12.895  13.725  0.1300  0.0558 -0.1302
58727W        W59591  18.569  16.705  28.887 -0.0402 -0.0577  0.3312
58728W        W59592  28.666   0.921  27.384 -0.0356 -0.1597 -0.2126
58729W        W59593  23.108  27.065  24.481 -0.0612 -0.0269  0.1509
58730W        W59594  15.700  21.912   1.786 -0.2035 -0.4843 -0.2246
58731W        W59595  21.079  14.306  20.959  0.1822 -0.0850  0.0125
58732W        W59596   7.101  10.031   1.846  0.2532 -0.0244  0.0265
58733W        W59597  12.398  25.429  25.767 -0.0324  0.5248 -0.1160
58734W        W59598  18.028  22.083  26.311 -0.0968  0.0899  0.3383
58735W        W59599  17.728  10.343  27.278  0.2163  0.0727  0.0888
58736W        W59600  16.372  12.433   0.224  0.0353 -0.0971  0.1361
58737W        W59601  24.772  25.465   8.939 -0.0162 -0.2043 -0.2248
58738W        W59602  25.649   5.931  12.145 -0.1735 -0.0938 -0.1439
58739W        W59603  19.828   8.988  11.288 -0.0480  0.1047 -0.1640
58740W        W59604  21.460  12.510  20.905  0.1785 -0.0027  0.0795
58741W        W59605  16.773  17.345  28.395 -0.2286  0.1870  0.0160
58742W        W59606  27.265  27.532   1.710  0.2659 -0.1418 -0.1695
58743W        W59607  26.741   7.633  22.687  0.2972  0.1968  0.0869
58744W        W59608   8.359  19.347  13.512 -0.1404 -0.0458  0.0423
58745W        W59609   7.742   5.935   0.590  0.3887 -0.1494  0.1714
58746W        W59610  19.679   6.566  16.345  0.1793  0.1925 -0.2241
58747W        W59611   3.301   5.079  16.863 -0.3093  0.0911  0.0391
58748W        W59612  19.396  18.089  15.862 -0.0856 -0.0143 -0.1170
58749W        W59613  13.048   7.095  11.922  0.4424 -0.1165  0.1194
58750W        W59614  19.505  28.330  17.692  0.0943 -0.0092  0.2214
58751W        W59615  18.337  12.483  28.438 -0.0986 -0.1916  0.1316
58752W        W59616  12.520   0.162  16.707  0.3342 -0.1686  0.1091
58753W        W59617   7.488   6.862  11.628 -0.2059 -0.4011 -0.1629
58754W        W59618  28.439  13.666  22.312 -0.2576 -0.1738 -0.3079
58755W        W59619  25.204   4.063  20.538  0.0394  0.0471  0.1677
58756W        W59620   6.824  24.971  14.709  0.0898 -0.0501 -0.4052
58757W        W59621  25.623  16.292   5.569  0.0601 -0.2909 -0.0285
58758W        W59622   7.515  27.193  27.943  0.1514  0.1676 -0.1429
58759W        W59623  16.878   5.475  10.221 -0.1085  0.0438 -0.1979
58760W        W59624  13.787   5.225  19.080 -0.0447 -0.0325 -0.2719
58761W        W59625   7.758  19.097   2.529 -0.1052 -0.1501 -0.1590
58762W        W59626   0.870  16.888  14.902 -0.0557 -0.2266 -0.1249
58763W        W59627   4.214   4.841   3.552 -0.3443  0.2270  0.0984
58764W        W59628  22.166   2.730  18.078  0.0819 -0.1307  0.0644
58765W        W59629   0.997   5.732   8.439  0.2762 -0.1103 -0.2082
58766W        W59630   7.792  23.306  21.191  0.3047 -0.1244  0.0394
58767W        W59631  17.681  25.362   9.770  0.0938  0.1874  0.0020
58768W        W59632  23.712   0.677   4.198 -0.0636 -0.3364 -0.1257
58769W        W59633  22.864  17.638   5.219  0.1875  0.1676 -0.1032
58770W        W59634   5.920   3.604  27.782 -0.2840 -0.2854  0.2004
58771W        W59635  19.833  11.693  12.095  0.0158 -0.1516  0.1224
58772W        W59636  25.390  27.614  21.162 -0.2174 -0.0040 -0.0563
58773W        W59637  13.031  11.910  28.920 -0.0495  0.1679 -0.1385
58774W        W59638  25.800  15.917  21.406  0.0921  0.0376  0.0595
58775W        W59639   6.773   6.184   5.884 -0.3218 -0.0535 -0.0249
58776W        W59640   8.557   8.641  13.020 -0.0992  0.2854 -0.0219
58777W        W59641  18.952  13.888   5.814  0.3675 -0.1333  0.2132
58778W        W59642  29.131   9.454  24.222 -0.1074 -0.0305  0.0412
58779W        W59643  26.215   7.224  15.656 -0.1690  0.3289  0.1214
58780W        W59644  25.902  18.661  23.095  0.1311 -0.0413 -0.0567
58781W        W59645   4.324  21.789   6.226  0.1359 -0.0377  0.5467
58782W        W59646  12.012  16.541  26.559 -0.1757  0.3843 -0.0973
58783W        W59647  26.210   5.429  13.372 -0.2721 -0.1134 -0.0342
58784W        W59648  24.924   5.998  27.989  0.1316 -0.0695 -0.1161
58785W        W59649  25.236   8.258  28.318  0.0859 -0.2463 -0.0379
58786W        W59650   2.395   0.562  12.912 -0.1171 -0.2286  0.1365
58787W        W59651  19.877  12.172  13.846  0.0507 -0.0248 -0.2046
58788W        W59652  20.824  18.603   4.376  0.0605 -0.2658  0.0589
58789W        W59653  21.657   6.064  24.688 -0.0420 -0.0377  0.2320
58790W        W59654  27.666   7.000  19.901 -0.7367  0.0697  0.2222
58791W        W59655  27.347  18.106  18.517  0.0072 -0.2812 -0.2060
58792W        W59656   4.307  13.188  16.039 -0.4502 -0.3108 -0.1928
58793W        W59657  26.630  24.198   0.485 -0.0764 -0.1445  0.0332
58794W        W59658  24.301  12.358   9.336  0.2745 -0.0010 -0.0732
58795W        W59659  21.777  17.772  19.923 -0.0502  0.0514 -0.1827
58796W        W59660   8.898  20.400  28.248  0.2260  0.1778  0.0356
58797W        W59661  17.897  19.638   6.049  0.1680  0.1541 -0.2203
58798W        W59662  25.059   5.959  26.867  0.1638  0.2128  0.1410
58799W        W59663  27.955  27.252   7.914 -0.1855  0.0042  0.4085
58800W        W59664  21.972  12.461   4.075 -0.1744 -0.4734 -0.3066
58801W        W59665  27.100   7.485  23.988 -0.0151  0.1423  0.0406
58802W        W59666  20.691  12.808  18.170 -0.1547 -0.0267 -0.1438
58803W        W59667  23.378  11.389   8.818 -0.0083 -0.2667 -0.2517
58804W        W59668  27.889  22.756  17.070  0.0691 -0.2513 -0.0295
58805W        W59669  20.296  12.002   6.028 -0.0708 -0.1753  0.0004
58806W        W59670  23.359  20.537   8.964  0.0187 -0.1165 -0.4240
58807W        W59671  25.326   2.360  18.308  0.2510 -0.1108 -0.2090
58808W        W59672   7.385  23.331  21.545  0.1220 -0.0806 -0.0288
58809W        W59673  12.567   5.413   7.230  0.0515  0.3949  0.1352
58810W        W59674   6.186  20.814  23.605  0.6011 -0.3600  0.1083
58811W        W59675   4.340  27.802   8.005 -0.0345  0.1262 -0.0291
58812W        W59676  20.443  26.974  15.064 -0.1587  0.0419  0.1167
58813W        W59677  11.092  19.645  25.873  0.1528  0.2630  0.2040
58814W        W59678   6.128  17.164  24.669  0.2891  0.1886 -0.0613
58815W        W59679   2.962  28.016  15.654  0.0108 -0.0170  0.3438
58816W        W59680   5.017  23.242  19.896 -0.3763 -0.1643 -0.1222
58817W        W59681  21.653   2.865   0.013 -0.0341  0.0439 -0.0107
58818W        W59682  20.323   1.582  24.775  0.0849 -0.2001 -0.0369
58819W        W59683  28.819  10.552  20.247  0.1240 -0.1512  0.5358
58820W        W59684  25.513   4.014  22.228  0.1864 -0.0817 -0.0718
58821W        W59685   0.178   2.476   8.650 -0.2543 -0.0524  0.2665
58822W        W59686  26.534  18.905   8.148  0.2686 -0.1151 -0.1489
58823W        W59687  26.912   5.139  12.997  0.0105 -0.2184 -0.0774
58824W        W59688   4.392   7.679  22.171 -0.2461 -0.2793  0.5357
58825W        W59689  22.789   5.922  24.108  0.1653  0.3376 -0.1397
58826W        W59690  26.711  17.800  25.868  0.1018 -0.0634 -0.0082
58827W        W59691  25.389   9.182  18.505  0.1435  0.0116  0.0656
58828W        W59692  25.624  24.456  17.541 -0.4144 -0.1323  0.0221
58829W        W59693   6.595  14.256  12.935  0.0426 -0.0233  0.0118
58830W        W59694  26.531  10.234  19.857 -0.1043 -0.1939  0.1432
58831W        W59695   2.046  22.322  14.341 -0.1242  0.1995 -0.0621
58832W        W59696  14.023   2.116  26.309  0.1485 -0.3181  0.0318
58833W        W59697   0.451  28.926  11.035  0.1137 -0.0516 -0.0836
58834W        W59698   1.242   4.406   5.854 -0.0814 -0.0827  0.3846
58835W        W59699  26.028   3.242   0.070  0.1616 -0.0804  0.2481
58836W        W59700   9.818   6.787   8.909 -0.2222  0.1620 -0.1291
58837W        W59701   5.694  20.483  26.025  0.0612  0.0337 -0.1293
58838W        W59702   3.550   9.027   5.360 -0.1305  0.0264 -0.1440
58839W        W59703  12.887  24.531  24.400  0.0215  0.0838  0.1628
58840W        W59704   9.727  23.131  16.829 -0.2243 -0.0169  0.1139
58841W        W59705  17.598   7.975  23.661 -0.3837  0.1006 -0.2920
58842W        W59706  24.566  26.149   9.873 -0.1041  0.0743 -0.3975
58843W        W59707  21.285   3.507   7.939  0.0090 -0.0044  0.0467
58844W        W59708  25.187  20.994  17.675  0.0290  0.2277  0.1184
58845W        W59709  26.807   6.681  11.899  0.2118  0.1112 -0.2305
58846W        W59710  24.358  27.851   0.269  0.2752  0.0427 -0.3264
58847W        W59711   1.926   3.987  21.716  0.1823  0.2658  0.0838
58848W        W59712  23.013  12.729  13.433 -0.5144 -0.1146 -0.2252
58849W        W59713   1.963   5.076   6.256 -0.0777 -0.0177 -0.0805
58850W        W59714  12.279  12.996  22.201  0.1986  0.0097  0.0016
58851W        W59715  24.601  14.800  23.716  0.2406 -0.1135  0.2829
58852W        W59716   4.885  16.982  14.026  0.0018 -0.1861  0.0150
58853W        W59717   6.635  28.795  24.708  0.2641  0.1141 -0.3524
58854W        W59718   6.376  10.200  20.234 -0.0724 -0.1734  0.0137
58855W        W59719   3.538  17.884  12.650  0.2395  0.2967  0.1014
58856W        W59720  18.235   8.604  18.726  0.1124 -0.0635  0.1403
58857W        W59721  21.966  21.962   3.882 -0.1726  0.0337  0.1128
58858W        W59722  16.545  14.787  12.120 -0.1025 -0.1759 -0.0346
58859W        W59723  23.052   2.872   2.412 -0.2540  0.0247  0.1339
58860W        W59724  13.303   7.389  20.188 -0.1158  0.0654 -0.3472
58861W        W59725  22.346   5.868   4.992  0.1396 -0.0771  0.4110
58862W        W59726  22.416  15.450  21.582  0.0026  0.3939 -0.0635
58863W        W59727   9.039   1.028   8.001  0.0225 -0.1687  0.0465
58864W        W59728  25.288  25.802  18.637  0.0024  0.0105 -0.2577
58865W        W59729  13.574  18.840  19.981  0.0517  0.0777 -0.2882
58866W        W59730   4.512  25.022   8.988  0.0293  0.2265 -0.0619
58867W        W59731  28.081  25.571   3.587 -0.1305  0.3228  0.0468
58868W        W59732  20.070   4.870  16.544 -0.3002 -0.0553  0.2467
58869W        W59733   3.763  16.407  13.294 -0.0506 -0.2411  0.0232
58870W        W59734  27.306  11.095   5.685 -0.3301 -0.3289 -0.2352
58871W        W59735  10.161  16.497  10.787 -0.0223  0.0874  0.0144
58872W        W59736  22.634  23.660   5.122 -0.0854  0.1713  0.2301
58873W        W59737  26.183   4.135  20.935 -0.1413 -0.2264  0.2017
58874W        W59738   1.321  13.348  11.573  0.1506  0.0213 -0.2240
58875W        W59739  12.863  21.512   9.039 -0.1227  0.1715 -0.0360
58876W        W59740   1.923  12.698  17.563 -0.3942  0.0022 -0.0386
58877W        W59741  26.214   2.086  14.663  0.1286 -0.2363  0.3078
58878W        W59742   6.505   3.993   8.792  0.0808 -0.1778  0.2973
58879W        W59743  18.823   1.121  25.262  0.1503  0.0454  0.3115
58880W        W59744  13.871  25.264  25.312  0.0111  0.3443 -0.2161
58881W        W59745  25.327  28.980  12.289  0.1427 -0.3176 -0.1987
58882W        W59746  21.247  11.899  16.328 -0.1693  0.2813  0.6570
58883W        W59747   8.851   6.625  11.960  0.2000  0.0243 -0.4403
58884W        W59748  14.548   3.279  16.231 -0.0167 -0.0054  0.0020
58885W        W59749  23.448  24.598  21.973  0.1604  0.2460 -0.0297
58886W        W59750  14.647  18.897  26.770  0.1820 -0.2012  0.2030
58887W        W59751  24.659  12.799  17.822  0.2114  0.1589 -0.0224
58888W        W59752   1.166   1.002  16.828 -0.0810  0.0050 -0.1953
58889W        W59753   1.863  12.656  23.463 -0.0023 -0.1452  0.0690
58890W        W59754  23.608  28.514   4.088  0.2317 -0.4765  0.1399
58891W        W59755  12.819   5.231   0.198 -0.1191  0.3025 -0.0303
58892W        W59756  19.963  13.606  15.264  0.0189  0.2262 -0.2555
58893W        W59757  24.496  19.064   5.146 -0.0701  0.0126 -0.1519
58894W        W59758   1.876  21.875  18.299 -0.0418  0.2267 -0.0692
58895W        W59759  27.764  24.824  21.386  0.1152 -0.1434  0.2456
58896W        W59760  20.673  10.786   4.781  0.1647  0.2144  0.0940
58897W        W59761   4.993  21.044  21.762  0.0879 -0.1459  0.2433
58898W        W59762   0.956   2.837   8.336  0.6406 -0.2294 -0.0495
58899W        W59763  26.776   4.283  26.490 -0.0344 -0.1908 -0.1945
58900W        W59764  15.683  26.030   9.285 -0.1996 -0.3960 -0.2514
58901W        W59765  26.757  12.257   1.535  0.0335  0.0141 -0.4374
58902W        W59766  26.474  20.977  18.863 -0.1412 -0.0003 -0.0687
58903W        W59767  14.535   6.617  13.913  0.2254  0.1714 -0.3377
58904W        W59768  17.278  25.577  24.915  0.0226 -0.1716  0.0343
58905W        W59769  23.855  15.510   5.375  0.1718  0.1453  0.2592
58906W        W59770  21.453   1.581   6.344 -0.0474 -0.0904  0.2540
58907W        W59771   2.872   7.274   7.561  0.2554  0.1132  0.1641
58908W        W59772   1.554   1.062  21.015 -0.1209  0.1824  0.2278
58909W        W59773  21.834  11.315  19.568  0.4499  0.0463 -0.1670
58910W        W59774  24.830   2.430  26.808 -0.1065 -0.1882  0.2958
58911W        W59775  24.128  23.829   3.956 -0.0197 -0.0214  0.1564
58912W        W59776   3.787  15.260  27.890  0.0580 -0.1832 -0.1437
58913W        W59777   0.568  12.516  19.844 -0.3052 -0.0666 -0.3752
58914W        W59778  22.760   2.983  18.406  0.1508 -0.1470 -0.1358
58915W        W59779  12.315   5.598  13.192  0.2194 -0.1555 -0.0713
58916W        W59780  28.776   6.975  17.263 -0.1095  0.0260 -0.2986
58917W        W59781  18.800  13.097   5.603 -0.3199  0.0569  0.2635
58918W        W59782  28.368  16.467  28.299 -0.3419  0.1944  0.3830
58919W        W59783  27.263  17.896  20.814 -0.0718  0.0467  0.0359
58920W        W59784  26.101  18.548   0.701 -0.0983  0.0759 -0.1836
58921W        W59785   4.042   7.061   5.411 -0.0794  0.0077 -0.0846
58922W        W59786   4.833   2.565  25.957  0.0173  0.3818  0.2091
58923W        W59787   0.474   9.698  21.958  0.1066  0.0168 -0.0998
58924W        W59788  10.496   4.076  20.514 -0.0273  0.2325 -0.1576
58925W        W59789   0.654   0.600  23.431 -0.1547 -0.2127  0.0139
58926W        W59790  14.572  26.479  16.714 -0.0254  0.2936  0.1562
58927W        W59791   3.850   4.265   7.972 -0.4028  0.2273 -0.0629
58928W        W59792  27.815   9.307   7.412  0.2072 -0.0911 -0.0452
58929W        W59793   2.663  21.444  23.832  0.3076  0.0842 -0.2764
58930W        W59794   3.881   7.484  20.052 -0.0186  0.0389  0.0085
58931W        W59795  23.822  25.347  18.315 -0.2609  0.1649 -0.1933
58932W        W59796  13.543  17.781  19.145  0.2359 -0.0539 -0.0528
58933W        W59797  10.859  10.160   4.663  0.1541 -0.1736 -0.1345
58934W        W59798   0.709   5.781  25.360  0.4910  0.0825  0.1593
58935W        W59799  28.593  14.151  17.822 -0.0490 -0.0829 -0.2062
58936W        W59800  15.262  20.190  24.481  0.1458 -0.0369 -0.1540
58937W        W59801   6.244  26.560  20.619  0.3356  0.3536 -0.1877
58938W        W59802  23.870  10.261  24.166  0.1578 -0.1040 -0.4090
58939W        W59803  21.238   4.402   7.190 -0.1508 -0.1454 -0.0865
58940W        W59804   8.673   2.034  14.815  0.1807 -0.2636 -0.0897
58941W        W59805  22.402  10.684  26.229  0.0178 -0.0743  0.1885
58942W        W59806  25.948  21.567  21.886  0.2461  0.0565 -0.0611
58943W        W59807   4.635   9.139  21.701 -0.3022 -0.1246 -0.2300
58944W        W59808  22.102   5.180  26.279  0.0423 -0.1696  0.3888
58945W        W59809   0.484   3.875  16.093 -0.3737  0.0854 -0.1883
58946W        W59810  28.232  14.379  23.522 -0.0578 -0.1494 -0.2820
58947W        W59811  11.706   1.372  19.527 -0.0476  0.2143 -0.1976
58948W        W59812   9.383  27.502  14.705 -0.1394  0.1422  0.0420
58949W        W59813  25.587   3.637  13.016  0.0601 -0.2905 -0.1561
58950W        W59814  15.206   9.099  16.326 -0.0004 -0.0585  0.3748
58951W        W59815  24.258  11.898  16.106 -0.0437  0.3335  0.2623
58952W        W59816  24.298  10.594  23.432  0.2038  0.0670 -0.2248
58953W        W59817  19.579  19.772   5.419 -0.0729 -0.1966  0.0029
58954W        W59818  20.007   0.202  12.957 -0.0815  0.3648 -0.0253
58955W        W59819  16.493  23.540   2.335  0.1365  0.0173  0.1702
58956W        W59820  16.802  24.525  12.557  0.2290  0.0695  0.2238
58957W        W59821  23.057   6.292  15.736 -0.1857  0.1764 -0.0593
58958W        W59822   6.664  11.182  27.339 -0.0900  0.0754 -0.2404
58959W        W59823   1.251  14.134  25.700  0.1816 -0.0307 -0.0754
58960W        W59824  28.894  19.794  22.290 -0.1101  0.1927  0.1034
58961W        W59825   6.218  24.140  25.584 -0.0630  0.2485  0.0079
58962W        W59826  10.202   7.727  12.451  0.0145  0.2386  0.0671
58963W        W59827   7.628  21.003  15.120  0.1313 -0.3553 -0.3574
58964W        W59828  12.464  20.030   1.858  0.2876  0.0078  0.2587
58965W        W59829  19.903  18.350  24.244  0.0870  0.1845  0.0788
58966W        W59830  27.748   8.169  23.366 -0.0613 -0.1609  0.5128
58967W        W59831  18.024  15.531  18.097 -0.1812  0.0302 -0.2133
58968W        W59832  28.395   4.298  18.869 -0.0149 -0.1167 -0.0681
58969W        W59833   1.861  17.353  28.740  0.1054 -0.2582  0.2332
58970W        W59834   4.911   2.583   8.629 -0.0604 -0.0453 -0.0506
58971W        W59835  27.784  27.299  25.076 -0.1546  0.2532  0.1180
58972W        W59836  27.637  22.577  18.262  0.0831  0.1641 -0.2437
58973W        W59837   4.147   3.312  11.684 -0.6483 -0.3231 -0.2192
58974W        W59838  24.490   8.693   6.294 -0.1054  0.1638 -0.0996
58975W        W59839  27.117  26.666  15.954  0.1099  0.0394 -0.1471
58976W        W59840  24.422  16.214   7.637  0.0527  0.1836 -0.1103
58977W        W59841   3.251   1.736   0.857 -0.0760  0.3219 -0.0817
58978W        W59842   9.766   4.718  17.026 -0.1503  0.1377 -0.1591
58979W        W59843  22.700  27.613  28.878  0.2014  0.1024 -0.1079
58980W        W59844   4.815   8.654  24.615  0.0330 -0.0471  0.4385
58981W        W59845  22.104  17.367   6.338 -0.0867  0.1822 -0.3020
58982W        W59846  15.411   8.805  23.921  0.3254  0.0743 -0.1790
58983W        W59847  22.909   8.724  12.261 -0.2484  0.1388 -0.1346
58984W        W59848  13.254  24.399  13.441 -0.2425  0.0814  0.1322
58985W        W59849  13.616   0.870  18.079 -0.0604 -0.0577  0.1671
58986W        W59850   4.501  13.517   5.789 -0.0299 -0.1309 -0.2357
58987W        W59851  13.415   6.850  12.835  0.1077 -0.1439 -0.1139
58988W        W59852  23.553  13.297  20.081  0.0074 -0.0745  0.1526
58989W        W59853  25.850   3.094   4.276  0.0669 -0.0505 -0.3083
58990W        W59854   8.084  15.096  17.633  0.0080 -0.3509 -0.0036
58991W        W59855   0.569   9.027  19.168  0.2423 -0.0697 -0.0412
58992W        W59856  11.091  26.852   2.456  0.0488 -0.1443  0.3120
58993W        W59857  27.055  20.027  27.397 -0.0843 -0.0094  0.2421
58994W        W59858  21.939   4.817   9.722 -0.2757 -0.4026  0.0238
58995W        W59859  20.339  25.893  17.265  0.1488 -0.1237 -0.1669
58996W        W59860  17.099  20.034  23.591 -0.3245  0.0603 -0.0537
58997W        W59861  19.951  18.946  10.612 -0.0310 -0.2407  0.2482
58998W        W59862  23.263  26.484   5.230  0.2256 -0.0046  0.0753
58999W        W59863  28.770  12.541  15.163  0.1915  0.2415 -0.2549
59000W        W59864  13.121   8.410  17.199  0.2240 -0.2349 -0.1715
59001W        W59865   2.014  25.908   9.707  0.0303  0.0313 -0.2078
59002W        W59866  20.154  11.115  23.496 -0.0964  0.0082  0.0948
59003W        W59867  24.309  28.825  21.524  0.1709  0.2247 -0.2780
59004W        W59868  10.753  28.615  25.656  0.0599  0.4042  0.1732
59005W        W59869   5.134   9.888   2.520 -0.2048 -0.0792  0.1429
59006W        W59870  21.568   4.921  28.776 -0.0113  0.0955 -0.1035
59007W        W59871   0.622  15.390   0.146 -0.1750 -0.1200  0.0066
59008W        W59872  25.724   9.814  14.253  0.2138 -0.2481 -0.0343
59009W        W59873  20.858   9.757  26.560 -0.2214 -0.1102 -0.3601
59010W        W59874  27.956   4.877  26.287 -0.0530  0.0504  0.1740
59011W        W59875  23.410  26.447  15.671  0.2076  0.0368 -0.4750
59012W        W59876  28.347  20.073  11.324  0.0625  0.2262 -0.1545
59013W        W59877  12.009   9.249  15.046 -0.2449 -0.1711 -0.0293
59014W        W59878  14.191   6.084  28.385  0.1399 -0.1214  0.0240
59015W        W59879   2.536   2.567  20.069  0.3391  0.0115 -0.0166
59016W        W59880   2.986   2.597  23.716  0.0234 -0.1053 -0.4036
59017W        W59881  22.916   2.404  11.210 -0.1528 -0.1566 -0.0696
59018W        W59882  14.429  16.648  18.651  0.3078  0.0789  0.1164
59019W        W59883  11.817   9.605   7.368 -0.0144  0.0626 -0.0540
59020W        W59884  29.124   3.091  14.751  0.1176 -0.1691 -0.0182
59021W        W59885  14.570  22.052   6.076 -0.0344  0.0961 -0.3907
59022W        W59886   4.171   0.671  19.515 -0.0577 -0.1430 -0.0123
59023W        W59887  18.467  28.545  17.565 -0.1232 -0.1297 -0.0682
59024W        W59888  18.456   8.122  15.037  0.4483  0.1198  0.1592
59025W        W59889  12.858  24.381  12.548 -0.1354  0.0400 -0.1775
59026W        W59890  23.707  24.429  10.258  0.1539  0.0282  0.1447
59027W        W59891  20.839  26.339  27.081  0.1948 -0.0793 -0.0428
59028W        W59892   8.246   1.071  25.581  0.0283  0.0146  0.2440
59029W        W59893   8.536  11.603  19.458  0.0201  0.0483  0.1684
59030W        W59894  17.669  28.848  10.944 -0.1311 -0.1171 -0.0752
59031W        W59895   0.258  22.463  11.665  0.3521 -0.1763 -0.3022
59032W        W59896  15.637   2.948   4.208 -0.1729  0.2992 -0.1805
59033W        W59897   7.802  15.560  15.813  0.4161 -0.0099  0.0441
59034W        W59898  26.809  13.350  21.021 -0.3495  0.0694 -0.0665
59035W        W59899   0.410  24.071   3.941 -0.0557  0.3630 -0.1203
59036W        W59900  27.186  12.568   5.217  0.0829  0.0417  0.1902
59037W        W59901  15.625  19.451   8.949  0.0330 -0.0313  0.0092
59038W        W59902  25.322  21.155  16.085 -0.0607 -0.1193 -0.0826
59039W        W59903  27.850  15.329  19.033 -0.1120  0.2885  0.1129
59040W        W59904  26.171  28.476   1.032  0.1086 -0.0361 -0.0145
59041W        W59905   9.074   0.808   0.323  0.0900  0.2883 -0.1350
59042W        W59906  14.515  21.536   3.348  0.0638 -0.2806  0.1538
59043W        W59907  14.195  14.978   7.680  0.0224 -0.1946  0.1478
59044W        W59908  26.613  13.103  20.598 -0.1168  0.2924 -0.2024
59045W        W59909  19.154  22.862  22.162 -0.1459  0.3400 -0.1682
59046W        W59910  26.017  28.444   2.714 -0.0418 -0.1389 -0.0167
59047W        W59911   8.337  19.330  10.224  0.0100  0.1174  0.3287
59048W        W59912  14.724  26.129  15.550 -0.0519  0.1112 -0.0690
59049W        W59913   2.838  27.793  22.110  0.0494  0.0851 -0.0082
59050W        W59914  22.817  12.072  21.551 -0.2050 -0.2284  0.0022
59051W        W59915  28.575  22.422   1.304  0.0519 -0.2201 -0.4735
59052W        W59916  27.530  24.461   9.852 -0.1249 -0.1621 -0.1436
59053W        W59917  22.858  21.098  27.458  0.0740 -0.0665 -0.1229
59054W        W59918  20.583  24.977  13.308 -0.2341 -0.0437 -0.0772
59055W        W59919   9.271   2.091  18.901  0.2852 -0.0201  0.0743
59056W        W59920   7.512  10.990  18.830  0.1750 -0.2006  0.1676
59057W        W59921  27.728  11.023  23.739 -0.0326 -0.4263 -0.0360
59058W        W59922   8.246  27.139   5.801 -0.2827 -0.2299 -0.0664
59059W        W59923  20.800   4.655  25.771  0.1816  0.0473 -0.1264
59060W        W59924  25.504   3.122  17.029 -0.3317  0.0231 -0.2855
59061W        W59925   0.700   9.392   3.068 -0.3324  0.1396  0.1774
59062W        W59926   9.798  11.022   3.145  0.1976  0.2370 -0.0030
59063W        W59927   2.142  20.173  21.196 -0.1214 -0.0643  0.1234
59064W        W59928  23.770  23.038  12.444  0.1265 -0.1082 -0.0834
59065W        W59929  24.536   4.719  18.520  0.0237 -0.0639  0.0980
59066W        W59930  21.862  10.821  21.439  0.0814 -0.3166  0.1023
59067W        W59931  18.947   4.587   1.929  0.1038 -0.1950  0.3150
59068W        W59932   3.838  23.059  27.209  0.0961  0.0659 -0.1910
59069W        W59933  17.173  18.337   0.523 -0.1514  0.0706  0.0222
59070W        W59934  24.564   7.825  24.334  0.3326 -0.2473 -0.1126
59071W        W59935  13.436   8.127  27.860 -0.0429 -0.1699  0.0948
59072W        W59936   9.039  15.950  16.232 -0.0800 -0.0355  0.2693
59073W        W59937   6.878  20.595   8.204 -0.0819 -0.0313 -0.3317
59074W        W59938  23.109  17.455  20.007  0.2365  0.0379  0.4019
59075W        W59939  22.465   7.475  28.961 -0.1112 -0.0195 -0.1153
59076W        W59940   5.744   0.864   8.815 -0.0293 -0.3272 -0.1757
59077W        W59941  25.197  22.380   5.551  0.3156 -0.0149  0.0429
59078W        W59942  10.332  22.036  14.241  0.2796 -0.1907  0.2860
59079W        W59943  26.325  12.582  12.668 -0.2495  0.0778 -0.0581
59080W        W59944  24.945   4.432  12.953 -0.2335 -0.0461  0.2442
59081W        W59945  16.479  15.790  10.769  0.0647 -0.0543 -0.1335
59082W        W59946  12.170   8.133  12.221 -0.2755  0.0111  0.2661
59083W        W59947  11.408   9.133  25.809 -0.0178 -0.0145 -0.1559
59084W        W59948   2.928   6.267  27.220  0.2546 -0.0179  0.0602
59085W        W59949  16.410  13.971   5.783 -0.1791  0.2221 -0.1034
59086W        W59950  26.540  20.293  24.713 -0.0235 -0.0077 -0.2577
59087W        W59951  12.598   1.098  20.147  0.1898  0.0521  0.0683
59088W        W59952  23.492   1.673   5.492  0.1242 -0.5372  0.0324
59089W        W59953  25.347  26.495  17.062  0.2341  0.1832 -0.0553
59090W        W59954  22.600  21.937  27.673 -0.2754  0.2573  0.3856
59091W        W59955   8.708   9.084   2.525  0.2334 -0.1322 -0.0338
59092W        W59956   7.708   7.721  14.788 -0.0870 -0.2455 -0.0591
59093W        W59957  28.177  12.367  27.947  0.0774  0.1254 -0.1560
59094W        W59958  17.212   6.242  22.738  0.0335  0.0119 -0.1807
59095W        W59959  20.918  10.727  16.416 -0.1116 -0.0130 -0.1048
59096W        W59960   1.417  24.092  25.293 -0.3958 -0.2244  0.2231
59097W        W59961  17.116  11.156  25.427  0.1852 -0.1540 -0.2666
59098W        W59962   2.590  23.827   2.339  0.0936  0.1924  0.0673
59099W        W59963  13.770   3.879   5.337 -0.4300  0.3760  0.0743
59100W        W59964  25.580   3.314  19.574  0.3665  0.3084 -0.1327
59101W        W59965   1.552  27.267   5.183  0.2827 -0.1050 -0.1487
59102W        W59966  10.199  22.392  11.829 -0.5706  0.0609 -0.2877
59103W        W59967   6.376   7.754   2.933  0.1904 -0.3106 -0.0104
59104W        W59968  24.551   0.543  20.909  0.1064 -0.0595  0.4027
59105W        W59969  16.025  21.236   8.209  0.3374 -0.1595 -0.2514
59106W        W59970  13.524  10.879  27.510  0.0726 -0.2269 -0.0358
59107W        W59971  28.655  23.245  11.892  0.0417 -0.0273  0.1436
59108W        W59972  22.858  12.642  20.885  0.1177 -0.1332  0.1589
59109W        W59973   5.047  21.909  20.608  0.1537  0.1458  0.0520
59110W        W59974   6.651   8.885  17.030  0.1758  0.1877 -0.1192
59111W        W59975  17.203   5.618  18.180  0.0888 -0.0634  0.0501
59112W        W59976   0.123  15.988  17.411 -0.0644 -0.1522 -0.1124
59113W        W59977   3.727   2.234  27.818  0.3575 -0.0339 -0.2265
59114W        W59978  28.194  26.980   0.314 -0.2031  0.4037  0.2310
59115W        W59979  26.017  11.202  25.229 -0.0094 -0.0099 -0.2819
59116W        W59980   1.964   8.159   6.652  0.0515 -0.2252  0.1253
59117W        W59981  25.953  24.591  16.308 -0.0860  0.0286  0.2811
59118W        W59982   1.722   7.498  19.623 -0.0437 -0.0380  0.0273
59119W        W59983  29.011   0.009  18.570 -0.1391 -0.0130  0.0571
59120W        W59984  27.467  16.799   5.557 -0.0817  0.1196  0.1469
59121W        W59985  23.817   7.289  20.321  0.1787  0.2749 -0.0108
59122W        W59986  16.966  26.764  18.543 -0.0611  0.2027  0.3191
59123W        W59987  26.592   5.703  14.802 -0.2444  0.1527  0.1824
59124W        W59988  21.206  17.693   8.743  0.0900  0.1934 -0.1407
59125W        W59989  10.945  18.828  13.549  0.0613  0.1988  0.1022
59126W        W59990  19.945  24.834   3.178  0.0989  0.1743  0.2024
59127W        W59991  18.280  27.294  20.796  0.1419  0.0778  0.0543
59128W        W59992  27.355  19.999  22.001  0.0589  0.1767 -0.0796
59129W        W59993  24.767  12.629  20.041  0.1628  0.1300  0.1484
59130W        W59994  27.821  18.175   2.855 -0.1343 -0.1606  0.3157
59131W        W59995  15.587   6.561   0.434 -0.1271  0.0148 -0.2280
59132W        W59996  13.658  28.847  16.205  0.0385  0.3687 -0.0314
59133W        W59997  17.471  14.502  23.913  0.1044 -0.0539 -0.2648
59134W        W59998  11.072   3.405  22.241 -0.0565  0.1015  0.0854
59135W        W59999  23.939   8.345   1.845  0.1516 -0.3112 -0.1549
59136W        W60000  17.518   4.911  21.829 -0.0126 -0.3430  0.1222
59137W        W60001   8.828   3.208   4.135  0.1282 -0.0708  0.1759
59138W        W60002  24.345   1.621  16.439 -0.1524  0.0313  0.0463
59139W        W60003   4.101  27.833   1.498 -0.1584 -0.1089  0.2512
59140W        W60004  15.026  27.621  25.249 -0.0776 -0.4013  0.1731
59141W        W60005  24.727   1.172  10.033  0.2661 -0.3215  0.2152
59142W        W60006  25.389   5.356  19.355  0.2828 -0.2751 -0.0431
59143W        W60007   9.453  28.846   0.998 -0.0146  0.0590 -0.0768
59144W        W60008   7.493  18.159   9.271 -0.2233  0.1235 -0.0570
59145W        W60009  17.957  24.286  17.303  0.1854  0.2161  0.0934
59146W        W60010  19.540  14.241  25.296 -0.2336  0.0915  0.0832
59147W        W60011  24.162  22.914  17.801  0.0181  0.2525 -0.4416
59148W        W60012   6.857   1.814  26.483 -0.2916 -0.0412  0.2434
59149W        W60013  27.841  22.651   8.356  0.1595  0.2623 -0.0104
59150W        W60014  20.417   3.078  10.774  0.1136 -0.2252 -0.2347
59151W        W60015  12.982  17.387  18.130  0.3277 -0.0412  0.3686
59152W        W60016  17.629  27.608  24.981 -0.0075 -0.0465  0.1444
59153W        W60017  26.423   7.099  23.383 -0.0226  0.0030 -0.0940
59154W        W60018  27.010  11.950   1.901 -0.0848  0.0764  0.0930
59155W        W60019   4.264  17.231  22.392  0.0577  0.2033  0.0870
59156W        W60020  23.483  16.953   2.361  0.1973 -0.1656 -0.2631
59157W        W60021  13.451  28.308  20.542 -0.1917 -0.1112  0.0475
59158W        W60022  26.466  11.357  27.888 -0.0402 -0.1428  0.0268
59159W        W60023   8.977  11.356   9.548  0.0338  0.1940 -0.1791
59160W        W60024   7.010  13.349  13.554 -0.0375  0.0764 -0.1500
59161W        W60025  24.365  19.271  14.382  0.0756 -0.3200 -0.1251
59162W        W60026  11.596  13.958  14.751  0.0766  0.1924 -0.5226
59163W        W60027   8.515   8.993  22.703 -0.1858 -0.0117 -0.0050
59164W        W60028  21.857  11.003   3.697 -0.0346  0.1077  0.0914
59165W        W60029  21.199  27.999  13.815 -0.1793 -0.0254 -0.0534
59166W        W60030   0.111   6.954  25.638 -0.3951 -0.2169  0.1583
59167W        W60031   1.459  12.689  20.312 -0.5405 -0.0824  0.1178
59168W        W60032  28.743   7.262   0.906 -0.2994  0.0911 -0.1582
59169W        W60033  28.994   9.618  17.988  0.3062 -0.0480  0.1356
59170W        W60034   9.398   5.146  20.507 -0.1292 -0.1628 -0.0109
59171W        W60035  15.779   3.144   3.763  0.0038 -0.0799 -0.0587
59172W        W60036  10.725  12.138   4.498  0.0207  0.0298  0.0200
59173W        W60037  27.835  25.582  28.880 -0.0118 -0.0793 -0.0007
59174W        W60038  10.679  19.946   1.041 -0.0200 -0.1500 -0.0727
59175W        W60039  16.526  21.117  14.140  0.1181 -0.0831 -0.2742
59176W        W60040  18.697   1.474  22.134  0.1469  0.3597 -0.0306
59177W        W60041  22.278  14.447  12.819 -0.2203  0.0090  0.0545
59178W        W60042  21.131  23.392  15.226 -0.0067  0.0103 -0.1896
59179W        W60043  21.645  13.131  23.194 -0.1628  0.0192 -0.0531
59180W        W60044   3.010  22.960   8.781  0.0882  0.3377  0.2109
59181W        W60045  27.604  16.580   3.062 -0.2735 -0.0959  0.0337
59182W        W60046  27.302   9.958   7.561 -0.0201 -0.1205 -0.2088
59183W        W60047  28.773  25.177  22.139 -0.1187  0.1592 -0.1729
59184W        W60048   5.243  20.124   8.243  0.1130 -0.0028  0.0172
59185W        W60049  23.723  17.275  21.135  0.1715  0.0498 -0.2141
59186W        W60050  20.963   4.003  23.356  0.1481 -0.1722  0.1800
59187W        W60051   9.567  26.221  15.718  0.0609  0.0584 -0.2698
59188W        W60052  18.115  27.607   1.822  0.0295 -0.1441 -0.0693
59189W        W60053  25.383  12.175  19.791  0.0033 -0.0175  0.0688
59190W        W60054  22.020   6.465  26.567 -0.2665  0.2597  0.1970
59191W        W60055  14.666  15.131  24.027  0.1556  0.3604 -0.0438
59192W        W60056  19.512  16.877  17.069  0.1886  0.1137 -0.0405
59193W        W60057  28.354   7.943  15.038 -0.1889  0.2725 -0.1752
59194W        W60058  26.650  14.553   8.525  0.1247  0.0491  0.1243
59195W        W60059  29.111   6.176  17.455 -0.0394  0.3017  0.0417
59196W        W60060  21.062   3.559  26.469 -0.1086  0.2775  0.3099
59197W        W60061  16.882  15.469  20.875  0.0133  0.1474  0.1755
59198W        W60062  26.417   3.340  26.806  0.3939 -0.1340  0.1924
59199W        W60063  11.955  18.166   0.211  0.0571 -0.0110 -0.0162
59200W        W60064  13.238  24.971  11.774  0.0741 -0.1980  0.3494
59201W        W60065  26.329  24.947  16.544  0.1231 -0.3428  0.0749
59202W        W60066  24.250  10.339  18.430  0.0242  0.0467  0.1861
59203W        W60067  14.869   2.687  28.215  0.0239  0.0638  0.1978
59204W        W60068  17.844  14.920  26.085 -0.0549 -0.1213  0.1186
59205W        W60069   2.216   3.769  10.367 -0.0471 -0.1104  0.1641
59206W        W60070  16.140  22.097   5.707  0.1304  0.0946  0.3193
59207W        W60071   1.296  16.761  15.938 -0.0795  0.1162  0.1305
59208W        W60072  15.577  10.740   5.984 -0.1090  0.4398 -0.3745
59209W        W60073  21.149   5.288  12.243  0.2685  0.0544 -0.0841
59210W        W60074  19.361  17.554  19.548  0.2638  0.0695 -0.0504
59211W        W60075   9.969   9.760  13.112  0.1893 -0.1196 -0.1531
59212W        W60076  23.454  24.927  23.726  0.0220 -0.0701 -0.2367
59213W        W60077  12.494  24.117  12.884  0.2344  0.0104  0.0154
59214W        W60078   1.863  15.420   2.679 -0.2394 -0.0724  0.1680
59215W        W60079   7.667   8.599   3.226 -0.0751 -0.1402 -0.3035
59216W        W60080  11.018   1.560  27.252  0.0542 -0.1916  0.1469
59217W        W60081  12.556  11.701  22.231  0.1512  0.0170  0.0954
59218W        W60082   3.944  11.296  16.921  0.2239 -0.1431  0.1429
59219W        W60083   0.213  16.012  12.311 -0.1413 -0.0188 -0.1659
59220W        W60084  11.799   9.229  20.445  0.0156  0.3391  0.0436
59221W        W60085   6.540  16.050  22.762  0.0380  0.0392  0.0773
59222W        W60086  18.804  29.121  16.655 -0.1107  0.1026  0.2053
59223W        W60087  20.774   3.608  28.085  0.0728 -0.0361 -0.0619
59224W        W60088  15.747  16.398  12.143 -0.0805 -0.1054  0.0492
59225W        W60089   8.895   6.116  26.289 -0.3103 -0.0753 -0.2289
59226W        W60090   2.144  27.554  17.777 -0.0314  0.0184  0.1047
59227W        W60091   2.966   6.089  26.554  0.7636 -0.3378 -0.2413
59228W        W60092   0.925  26.558  15.270  0.4008 -0.2427 -0.0896
59229W        W60093  27.399  18.564  21.608  0.2865 -0.1661 -0.0924
59230W        W60094   7.522   4.850  28.037  0.0776  0.2287  0.1676
59231W        W60095  16.522  28.674  24.060  0.3231  0.3565 -0.2143
59232W        W60096  26.234   4.003  17.882 -0.0183 -0.0167  0.0756
59233W        W60097  11.826  14.247  20.747 -0.0547 -0.0878 -0.0062
59234W        W60098  10.110  26.953  22.331 -0.2682  0.1821  0.2930
59235W        W60099  29.007  24.844  13.425  0.1745 -0.1302  0.2689
59236W        W60100  20.937  13.655  25.043  0.3418 -0.2944 -0.1506
59237W        W60101   4.649   8.991   0.879  0.2520 -0.1115  0.1189
59238W        W60102  28.077  25.067   3.220  0.1461  0.0197 -0.1956
59239W        W60103  27.535   4.179  17.608  0.0824 -0.4479 -0.3003
59240W        W60104  17.977  15.423  21.195  0.0418  0.0767  0.1104
59241W        W60105   4.994  23.988  23.663  0.0932  0.2873  0.2330
59242W        W60106   3.120   7.739   4.958 -0.1069  0.1493  0.1838
59243W        W60107  25.111   5.191  25.791  0.0725 -0.1840 -0.0566
59244W        W60108  28.036  17.351  21.563 -0.4159  0.0962  0.1625
59245W        W60109  21.724  11.045  18.478 -0.0348  0.0533  0.2436
59246W        W60110  27.439  27.480  10.233  0.0665 -0.0157 -0.3639
59247W        W60111  28.902  18.538   8.241  0.0003 -0.2153 -0.0889
59248W        W60112  12.484   1.517  18.126 -0.2283  0.1087 -0.0587
59249W        W60113  27.452  13.650   2.391  0.0711 -0.0328 -0.2501
59250W        W60114  25.083   4.652   3.479 -0.0413 -0.0427  0.4143
59251W        W60115  26.633  28.757  20.892  0.2888  0.2403 -0.0164
59252W        W60116  21.053  15.394  19.974  0.1781 -0.2573  0.0083
59253W        W60117  20.570   2.653  12.192  0.2448 -0.2941  0.1197
59254W        W60118  28.228   9.019   5.876 -0.0931  0.0478 -0.0274
59255W        W60119  19.170  21.632   3.716  0.0423 -0.0241 -0.2530
59256W        W60120  12.146   2.306   5.491  0.4490 -0.0972 -0.2670
59257W        W60121   1.612  12.762   0.074  0.1911  0.2373  0.3072
59258W        W60122   5.608  16.249   2.385 -0.0542  0.1637  0.0066
59259W        W60123  13.390  26.878  25.987  0.0745  0.0452  0.0957
59260W        W60124  15.454   2.449  18.120  0.0867  0.0046  0.0909
59261W        W60125  17.930   7.102  26.782  0.1808 -0.0998  0.1089
59262W        W60126  21.193   5.463  25.162  0.1207  0.0044 -0.0029
59263W        W60127   6.901  26.209  19.836  0.1266  0.0611 -0.2635
59264W        W60128  11.706   9.371  22.189  0.2071 -0.3079  0.2689
59265W        W60129  20.321  14.632   7.313  0.1733 -0.2342 -0.0054
59266W        W60130   5.064  14.477   1.594 -0.2513 -0.0461  0.1241
59267W        W60131  19.531   9.931   3.306 -0.1489  0.1055  0.0918
59268W        W60132  19.523  10.454  18.379  0.0257 -0.2435 -0.0205
59269W        W60133   3.462  21.557  26.716 -0.0697  0.1604 -0.0415
59270W        W60134  12.294   7.989   4.675  0.0566 -0.0859  0.0961
59271W        W60135  15.570  16.098  20.901  0.0702 -0.3252 -0.2140
59272W        W60136   2.544  10.388  10.579  0.0148  0.0240  0.1085
59273W        W60137  19.825  26.202  28.220  0.0791 -0.0809 -0.1048
59274W        W60138  24.377   2.089  19.770  0.0904  0.0609 -0.2158
59275W        W60139  11.398  16.663  19.345  0.1930 -0.1940  0.0336
59276W        W60140  12.856   8.244  18.662  0.0061 -0.2589 -0.2691
59277W        W60141  18.784  29.042   9.732 -0.2050  0.1577  0.1384
59278W        W60142  21.874  10.947   7.145 -0.0033  0.0466 -0.0411
59279W        W60143  18.005  10.477  21.536  0.3515  0.0145  0.1882
59280W        W60144  22.798   2.714  15.683 -0.4352 -0.0092 -0.1731
59281W        W60145   6.389  27.001  20.728  0.2018  0.0424  0.1063
59282W        W60146  26.685   4.720   7.396 -0.0974 -0.1137 -0.0043
59283W        W60147  25.193   3.020  19.122 -0.0036  0.0012 -0.0453
59284W        W60148  16.011   4.532  27.754 -0.0680  0.2492 -0.1604
59285W        W60149  23.855  21.175   5.502  0.2190 -0.2857  0.0872
59286W        W60150   3.705   6.445   6.054  0.2457 -0.1838 -0.0768
59287W        W60151  27.978   0.788  22.431  0.1701 -0.2374  0.1938
59288W        W60152   1.107  28.779  14.473 -0.1937  0.1238  0.1814
59289W        W60153  24.941   4.205   9.290 -0.1939 -0.1682 -0.0430
59290W        W60154   4.535  21.416   9.214  0.2794  0.0478 -0.0009
59291W        W60155  20.585   8.043   3.139  0.1252 -0.3359 -0.0489
59292W        W60156  26.503   2.116  16.337  0.0845  0.1420 -0.0144
59293W        W60157   0.160   3.759  15.563  0.1368 -0.0611  0.2078
59294W        W60158   0.698   9.962  27.433  0.0266  0.6812  0.1756
59295W        W60159  18.526  28.322   5.996 -0.4085  0.3603  0.0464
59296W        W60160   0.064  23.561  25.419  0.1548 -0.3818  0.1775
59297W        W60161   1.051   1.472   6.559  0.0051  0.2006 -0.1621
59298W        W60162  14.511   8.525  10.308  0.1845 -0.1712  0.0270
59299W        W60163  28.320  16.462  24.212 -0.0919  0.1333 -0.2839
59300W        W60164  22.942  12.493   2.701 -0.0579  0.1607  0.1979
59301W        W60165  26.419  11.804  26.859  0.2035  0.2430 -0.1612
59302W        W60166  10.471   8.344   4.403 -0.1382  0.2198  0.0757
59303W        W60167  27.019   2.292  10.348 -0.2442  0.1792 -0.0600
59304W        W60168  18.995   3.059  20.046  0.1312  0.0615  0.0160
59305W        W60169  25.169   5.335  17.007  0.0638 -0.1363  0.2039
59306W        W60170  23.741  22.391  28.340 -0.0488  0.2675  0.0641
59307W        W60171   4.867   5.798  23.894  0.0446 -0.2130  0.3119
59308W        W60172  21.182  23.527   8.693 -0.1882 -0.1026  0.1433
59309W        W60173  20.459  11.514   1.777  0.1661  0.0461  0.0305
59310W        W60174   1.841  27.487   2.853  0.3183  0.1879  0.1020
59311W        W60175  22.706   5.277   1.226  0.1052 -0.1997 -0.2145
59312W        W60176  21.390  26.283   7.190 -0.2609  0.0456 -0.3447
59313W        W60177   6.170   5.078  28.638 -0.1442  0.1232 -0.1260
59314W        W60178   4.575   9.499  10.604 -0.1443  0.0274  0.0094
59315W        W60179   0.360   5.020  11.849  0.0858  0.1714 -0.0502
59316W        W60180   7.566   6.794   3.240  0.0026  0.2944  0.2558
59317W        W60181  10.205  21.730  27.400  0.0808  0.1087  0.3694
59318W        W60182   6.784   5.359  22.294  0.0602 -0.0114 -0.1814
59319W        W60183   3.438  25.512  28.427  0.0682 -0.2188  0.1843
59320W        W60184  15.057   1.570  15.306  0.1160 -0.2839 -0.2510
59321W        W60185   0.240  13.046  13.044  0.0387  0.0060 -0.1314
59322W        W60186   0.772   9.678  23.437  0.3033 -0.2959  0.4224
59323W        W60187  25.107   7.751   9.623 -0.2015 -0.1523 -0.0138
59324W        W60188   7.201   7.578  20.858  0.0680 -0.0026 -0.1938
59325W        W60189  28.285   4.245  27.322  0.3216 -0.1524 -0.0266
59326W        W60190  16.153  10.205  13.380  0.1889 -0.0991  0.0851
59327W        W60191  26.671  25.681   9.442 -0.1110  0.0703 -0.0710
59328W        W60192  24.388  18.147  22.809 -0.2159  0.1662 -0.0214
59329W        W60193  23.082  19.307  28.458  0.1823  0.1233 -0.0942
59330W        W60194   1.976  28.462   4.177 -0.0163 -0.0263  0.0930
59331W        W60195  20.604  19.325   1.403 -0.2679  0.1804 -0.1799
59332W        W60196  20.181  11.611  28.070 -0.2981  0.0517  0.4520
59333W        W60197  27.418  19.727   1.289  0.2371 -0.3405 -0.0662
59334W        W60198  21.948   2.232  15.472 -0.2544  0.0407  0.1375
59335W        W60199  19.119   1.409  18.969  0.1379  0.1425  0.1711
59336W        W60200   4.722  10.869  19.743  0.1683 -0.1504  0.3212
59337W        W60201  15.980  24.178  12.572 -0.1228 -0.3841  0.3677
59338W        W60202   4.904  20.425   2.019  0.1768 -0.1273 -0.0106
59339W        W60203  23.652   0.787  24.940 -0.1607  0.3112  0.1223
59340W        W60204  21.139  25.300   8.797  0.1980  0.0804  0.0453
59341W        W60205   9.248   9.093  13.640  0.0276  0.2115 -0.0669
59342W        W60206  28.317  23.444  24.975 -0.2439  0.2096  0.0887
59343W        W60207  22.470  18.396   0.487 -0.0354  0.2226  0.0302
59344W        W60208  26.379   6.034  12.759  0.2688  0.1412 -0.0539
59345W        W60209   9.213  19.287  15.388  0.1587  0.0527  0.1812
59346W        W60210  19.953  22.597  25.160 -0.1510  0.1926 -0.2075
59347W        W60211  24.034  10.177  23.052  0.4216 -0.1070 -0.1820
59348W        W60212  27.607  10.054   1.108 -0.2104  0.0733 -0.0287
59349W        W60213  23.401   7.178   0.748  0.1658  0.3059  0.2901
59350W        W60214  17.972   8.624  27.389 -0.1094 -0.0933 -0.0245
59351W        W60215   9.081  12.514  16.944 -0.5260  0.0377  0.1943
59352W        W60216  22.148  24.282  11.521 -0.1838  0.1242  0.0530
59353W        W60217   8.817   1.554  12.384  0.0535 -0.0716  0.0898
59354W        W60218  13.125   8.125   0.483  0.2355  0.1197  0.1441
59355W        W60219   9.924   9.166  16.648  0.1684 -0.0414  0.1848
59356W        W60220  27.572  16.425  20.570 -0.1643  0.2251  0.2558
59357W        W60221  18.706   2.757  10.732  0.0366 -0.0091  0.1696
59358W        W60222  22.317   2.573   8.552  0.2001  0.0487  0.2619
59359W        W60223   5.170  14.409  26.610 -0.1137 -0.1688  0.0792
59360W        W60224  11.225  17.081  21.696 -0.1845  0.0231 -0.0090
59361W        W60225  24.359  12.381  23.528  0.0689 -0.0707  0.0908
59362W        W60226   5.304  19.095   6.346 -0.1460  0.1719 -0.0919
59363W        W60227  27.168   7.225   0.811 -0.2390  0.2904 -0.0873
59364W        W60228  28.561   4.990  22.766 -0.1578 -0.4277 -0.0836
59365W        W60229   2.348  27.477  25.600 -0.1526  0.0063  0.2116
59366W        W60230  22.024   9.338  17.459  0.2253  0.1114  0.3519
59367W        W60231   4.111   0.692  27.775 -0.3381 -0.2488 -0.0547
59368W        W60232  19.162   6.502   9.190 -0.2259  0.2100  0.0264
59369W        W60233  19.231   0.643  24.090 -0.0393  0.1819  0.1667
59370W        W60234  24.164   4.072   2.361  0.0841 -0.1369  0.2033
59371W        W60235  28.904  16.312  20.538 -0.2456 -0.3577 -0.0049
59372W        W60236  18.277   7.026  14.331  0.0839  0.0361 -0.2016
59373W        W60237  21.701   3.411   1.158  0.2815  0.0309  0.1500
59374W        W60238  13.077   9.392  18.561  0.0930 -0.1206  0.2421
59375W        W60239  10.839  15.285   8.254  0.0701 -0.2222 -0.2132
59376W        W60240   8.405   6.771   9.541  0.2299 -0.2497  0.1104
59377W        W60241  28.570   3.947  27.133 -0.2300  0.3788  0.1166
59378W        W60242   7.593  15.420   0.208  0.2208 -0.6975  0.1548
59379W        W60243  19.212   4.765  20.449  0.0028  0.2105  0.3706
59380W        W60244  26.068  17.812  13.536  0.1395 -0.3203  0.1111
59381W        W60245   4.122   9.011  19.937 -0.0383  0.4352  0.0316
59382W        W60246  25.744  13.050   4.606 -0.2258  0.0060 -0.1571
59383W        W60247   7.076   4.192   4.160 -0.1019  0.0774  0.0769
59384W        W60248   0.968  12.625  20.104 -0.0877  0.0665 -0.1936
59385W        W60249  25.110   0.389  16.272 -0.1081  0.0753  0.1520
59386W        W60250   9.026   3.628   6.569 -0.1152  0.1377  0.1959
59387W        W60251  27.255  27.625  20.610  0.1560 -0.0913 -0.1037
59388W        W60252  12.038  14.558   0.780  0.1375  0.1836  0.2024
59389W        W60253  28.587   8.498  25.915  0.0708 -0.0365  0.2339
59390W        W60254   1.798  25.859   1.451  0.3869 -0.1010 -0.0441
59391W        W60255  25.072  13.176   9.657  0.0745  0.0582  0.1562
59392W        W60256  13.878  28.049  27.923 -0.0024  0.1530 -0.0220
59393W        W60257   2.671  18.079   1.650 -0.0453  0.1409  0.1084
59394W        W60258  24.927   2.329  23.118  0.2666  0.1718 -0.1549
59395W        W60259   3.894   0.583  26.173 -0.0141  0.1191  0.4102
59396W        W60260  24.553   5.330  25.697 -0.0711  0.0659  0.3087
59397W        W60261  27.290   5.549  23.553 -0.2578 -0.2954  0.1101
59398W        W60262  25.908   2.705   0.004  0.2942 -0.1134 -0.1834
59399W        W60263  15.116   7.346  27.158 -0.1216 -0.0073  0.0910
59400W        W60264  14.670  10.563  14.646  0.0070 -0.0341 -0.0845
59401W        W60265  26.657  12.856  18.283  0.0269  0.1373  0.1065
59402W        W60266  26.066  12.813  20.915 -0.0773 -0.1153  0.1676
59403W        W60267   7.048  26.341  19.062 -0.1285 -0.1020 -0.0959
59404W        W60268   3.328   1.560  21.433  0.2822 -0.3913 -0.4011
59405W        W60269  21.265   5.851  26.949 -0.0747 -0.0915 -0.2371
59406W        W60270  14.679   7.981   0.619  0.0611 -0.1481  0.2598
59407W        W60271  12.947  11.446  12.998  0.0561 -0.1714 -0.1261
59408W        W60272  11.553   1.301  14.486 -0.1056 -0.0492 -0.1496
59409W        W60273   6.546   7.978   4.514  0.1656  0.2244  0.2334
59410W        W60274   3.055  11.912  10.269  0.1399  0.1191  0.2104
59411W        W60275  28.362  12.196  10.472 -0.1021 -0.4976 -0.1225
59412W        W60276  19.665  24.566  23.512 -0.0621 -0.0469  0.2039
59413W        W60277   7.054   7.510  25.532  0.1472  0.0572  0.0449
59414W        W60278  26.317  24.563  23.576 -0.2960 -0.0239 -0.1049
59415W        W60279   3.398  23.409   2.058  0.3257  0.0307  0.0553
59416W        W60280  19.796   6.257  19.389  0.0589  0.0441  0.4632
59417W        W60281   3.368  14.086  26.859 -0.0048  0.0288  0.0174
59418W        W60282  19.032   0.192  18.010 -0.2424 -0.0825 -0.0725
59419W        W60283   9.011  25.383  25.756 -0.5302 -0.1462 -0.2384
59420W        W60284  21.360  22.772   3.954  0.0474  0.1740 -0.0678
59421W        W60285  13.718  11.655  18.111  0.2161  0.1374 -0.2212
59422W        W60286  22.908  24.635  11.373  0.3503 -0.2800  0.2544
59423W        W60287  12.811  11.364  10.826 -0.0715 -0.1902  0.1433
59424W        W60288   5.177  17.676  17.391 -0.2671 -0.2759  0.3845
59425W        W60289  16.189  12.214  21.187 -0.1411 -0.3515 -0.0167
59426W        W60290  27.875  15.102  27.480 -0.0833 -0.1280  0.0159
59427W        W60291  13.362   8.617   8.526  0.1923  0.0533  0.2611
59428W        W60292  27.959   1.763  28.289 -0.1695  0.2233 -0.0270
59429W        W60293  18.583   9.486   9.387 -0.2032  0.0578  0.0022
59430W        W60294  15.386   9.893  28.397  0.0165  0.2558  0.2753
59431W        W60295   8.528  21.774   7.610  0.2443 -0.1601 -0.3036
59432W        W60296  18.213  11.088  27.282 -0.1308  0.2183 -0.2161
59433W        W60297  29.046  12.920   9.079 -0.1166  0.0686  0.1686
59434W        W60298   3.960  11.294  25.636  0.0480  0.2402  0.0448
59435W        W60299   3.010   4.343  19.624  0.2449 -0.0529 -0.1814
59436W        W60300  20.643  17.138  28.037  0.1454 -0.0154 -0.1345
59437W        W60301   6.375   8.303  20.394  0.3209  0.3233 -0.0373
59438W        W60302   1.882  27.698  27.020  0.0267  0.1832 -0.1490
59439W        W60303   5.615   4.705   4.672  0.0177 -0.0157  0.1192
59440W        W60304   3.305   0.757  21.426  0.1723 -0.0630 -0.1483
59441W        W60305  24.611  15.344   9.628 -0.0417 -0.0038  0.0339
59442W        W60306  12.788  16.302  14.923 -0.1281 -0.0887  0.0912
59443W        W60307  26.888   4.765   0.895  0.3480  0.0408  0.1505
59444W        W60308  27.612  22.773  16.601 -0.1414  0.0665  0.0520
59445W        W60309  11.811   8.880  26.770 -0.0495 -0.0417  0.0155
59446W        W60310   0.256   7.244  10.927 -0.0066  0.0312 -0.4347
59447W        W60311  23.734   2.530   1.023  0.2960 -0.0608 -0.2580
59448W        W60312  24.961  24.412  10.939 -0.0102 -0.3832  0.2699
59449W        W60313   3.054  22.155  18.806  0.0037  0.3023  0.0874
59450W        W60314   2.921   9.596   6.528  0.1293  0.0011 -0.0901
59451W        W60315  10.800  28.187   2.949 -0.1440  0.0701  0.1709
59452W        W60316  22.210   4.312  23.906 -0.2508  0.0875 -0.0551
59453W        W60317   0.764  14.976   5.763  0.0018 -0.0299 -0.0111
59454W        W60318  28.029  27.210  12.761 -0.0585  0.3061 -0.0015
59455W        W60319  24.558  14.702   1.811  0.1474 -0.0727 -0.0627
59456W        W60320  14.447  25.969  27.350 -0.4002 -0.0283 -0.1960
59457W        W60321  11.271   4.265  15.534  0.0424 -0.0344  0.1052
59458W        W60322  21.441   1.081  17.462 -0.0541  0.0552 -0.1967
59459W        W60323  20.460   7.233  17.783 -0.0089  0.3948 -0.0142
59460W        W60324  29.028  16.890  21.503 -0.1763 -0.1605  0.2200
59461W        W60325   6.123  21.642  22.069 -0.0022 -0.2748  0.1342
59462W        W60326   5.777   3.896  20.268 -0.0077 -0.0311  0.1203
59463W        W60327  19.423   7.002   4.581 -0.0171  0.2515  0.2162
59464W        W60328   1.464  25.638  10.771 -0.2735 -0.0727 -0.1892
59465W        W60329   1.874   8.787  20.879 -0.3004 -0.3073 -0.3660
59466W        W60330   0.413   8.714  24.294 -0.1520  0.0103  0.1796
59467W        W60331  24.976  24.938  26.947  0.0840 -0.1433 -0.1629
59468W        W60332  28.529  22.925   7.430  0.1494 -0.2234  0.2732
59469W        W60333   0.038  20.405  18.932 -0.3192  0.1052 -0.1130
59470W        W60334   6.397  16.450   4.658  0.2312 -0.0182  0.1828
59471W        W60335   2.937  21.019  24.673  0.1497  0.0040  0.0355
59472W        W60336  14.426   4.419   5.132  0.2742  0.0487 -0.0475
59473W        W60337  24.989  28.797  21.860  0.0886  0.0947 -0.0641
59474W        W60338  22.038   5.242  12.846 -0.1816 -0.1793 -0.1107
59475W        W60339   3.866  12.576  26.659 -0.3073 -0.1841  0.1123
59476W        W60340  21.575  26.585   4.697  0.1779  0.0887  0.2142
59477W        W60341  22.466   0.270   4.153 -0.0153  0.0655  0.1565
59478W        W60342   3.702  14.437  21.981 -0.0494 -0.1883 -0.0269
59479W        W60343  21.720  15.047   3.397 -0.1158  0.2311  0.1848
59480W        W60344  21.197   2.786  19.386  0.4269  0.0496  0.0270
59481W        W60345  23.354  27.795  20.283 -0.2296  0.1760  0.1170
59482W        W60346   1.403  13.445   4.251  0.0938 -0.0125  0.1061
59483W        W60347   9.746  14.653   8.515  0.1232 -0.6107  0.3053
59484W        W60348  16.534   5.309  19.842  0.0685  0.2032 -0.0397
59485W        W60349  24.565  24.161   8.277 -0.3837 -0.3201  0.1518
59486W        W60350  22.424   8.006   4.122 -0.3521  0.0872  0.1910
59487W        W60351  25.378  13.211  15.675  0.3515  0.4696 -0.1424
59488W        W60352  27.396  13.440   7.996  0.0346 -0.2680  0.2098
59489W        W60353  24.654  20.119  17.050  0.0355  0.3923  0.0011
59490W        W60354  13.555  26.014  10.824  0.2603  0.2387  0.3408
59491W        W60355  25.312  13.258   2.017  0.1244  0.2876  0.0664
59492W        W60356   3.840  23.142  26.383 -0.0571  0.0223 -0.0543
59493W        W60357  22.173   8.322  12.771  0.2006  0.0939  0.0691
59494W        W60358   4.587  21.255  13.104 -0.0579  0.1086  0.0004
59495W        W60359  15.507   1.822  27.405  0.2266  0.2111  0.3973
59496W        W60360  24.372  22.952  24.695  0.0566 -0.0116  0.2131
59497W        W60361   8.073  20.808  17.494  0.2297  0.0798  0.3105
59498W        W60362  16.051   1.849  22.645  0.1935 -0.0955 -0.0403
59499W        W60363  17.348   3.804  13.831 -0.0853 -0.0725  0.1393
59500W        W60364   0.425   5.379  17.562 -0.1766  0.3365  0.2699
59501W        W60365  19.010   1.024  22.768  0.0332 -0.3017  0.1856
59502W        W60366   0.093   9.990  17.278  0.0610 -0.1929  0.1643
59503W        W60367  14.713  21.416  18.438 -0.2099 -0.0567  0.1240
59504W        W60368  27.229   7.135  18.376 -0.0705 -0.0387 -0.3105
59505W        W60369   4.629  24.646  10.354  0.0927 -0.1770  0.1459
59506W        W60370  16.014  12.083   3.137 -0.1859  0.2071  0.0631
59507W        W60371  21.264   8.398   5.730  0.0020  0.2140 -0.0965
59508W        W60372  14.242  14.053  18.640  0.3446  0.2446 -0.0224
59509W        W60373   1.537   9.424  26.049 -0.5290  0.3073  0.3275
59510W        W60374   8.159  14.502  28.102  0.1378 -0.2150  0.0961
59511W        W60375   1.379  14.546  24.786  0.4394 -0.2040 -0.1370
59512W        W60376  12.504  22.974  21.466  0.1607 -0.6593  0.2463
59513W        W60377   8.643   7.648   7.903 -0.0385  0.0204 -0.0128
59514W        W60378  13.076  25.355   0.065  0.1064 -0.0756 -0.0468
59515W        W60379   2.017  26.912  15.847  0.1106  0.0456 -0.1904
59516W        W60380  20.319   8.264  28.628 -0.0050 -0.0874 -0.4758
59517W        W60381   6.594  22.361  24.516  0.2297  0.1100 -0.0622
59518W        W60382  25.073   7.727   7.944 -0.1468 -0.1213  0.0189
59519W        W60383   6.458   4.362  21.303 -0.3188 -0.0546 -0.1717
59520W        W60384   6.085   9.798  20.547  0.1188 -0.0188 -0.0707
59521W        W60385  25.664  13.463   2.956  0.0809 -0.1033  0.0179
59522W        W60386  12.219  22.369  23.220  0.2316 -0.1365  0.1206
59523W        W60387   6.879  22.055  23.855  0.1237  0.1911  0.2555
59524W        W60388   5.535   9.289  18.942 -0.1717  0.3257 -0.2189
59525W        W60389  25.580  27.811  22.200 -0.3968  0.2423 -0.2299
59526W        W60390   6.236  27.503  19.564 -0.0134 -0.0591 -0.0363
59527W        W60391  17.876  16.521  16.030  0.2776  0.0418  0.0204
59528W        W60392  28.995   6.208  19.698  0.0507  0.0606 -0.1800
59529W        W60393  20.849   1.874   7.501  0.0208 -0.1423  0.0522
59530W        W60394  17.615   1.215   8.834 -0.1097 -0.3519 -0.1915
59531W        W60395  28.815   4.390  13.557 -0.2618  0.0235 -0.0353
59532W        W60396  28.202  21.576  12.464 -0.4215  0.0843  0.1916
59533W        W60397  21.688   7.214   2.585 -0.1977  0.2708  0.0531
59534W        W60398   6.166   5.271  15.885  0.1534  0.0992 -0.2049
59535W        W60399   0.253  19.747   5.359 -0.0367  0.2627 -0.1034
59536W        W60400   8.912  20.007   2.416  0.1917 -0.1729 -0.0723
59537W        W60401  14.443  12.476   6.790 -0.1503  0.1664  0.2597
59538W        W60402  27.560  13.408   1.516 -0.1766 -0.2414 -0.0770
59539W        W60403  12.488  17.055  26.324  0.2253 -0.0901 -0.0216
59540W        W60404  23.261   4.499   0.266 -0.1227 -0.1324 -0.0367
59541W        W60405   2.163  17.832   9.520  0.3163 -0.2156 -0.3112
59542W        W60406  23.137  20.426  27.675  0.0009 -0.1086  0.4541
59543W        W60407  20.142   7.487  22.075  0.3269  0.2877 -0.0646
59544W        W60408   6.895  19.849  21.450 -0.0754  0.1652 -0.1536
59545W        W60409  26.647   9.730   5.052 -0.1694 -0.1848  0.1731
59546W        W60410   4.536  20.917  14.484  0.2088  0.0042  0.1172
59547W        W60411  21.038  13.674  25.527 -0.1904  0.1357  0.0306
59548W        W60412  29.002  20.247   8.688  0.3014 -0.2190 -0.0079
59549W        W60413  18.159  24.724  11.325 -0.1341  0.1303 -0.2698
59550W        W60414   0.564   3.780  22.111  0.1586  0.0730 -0.0040
59551W        W60415  18.299  27.643  21.505  0.0866  0.3420 -0.1346
59552W        W60416  26.136   8.803   6.894 -0.1926  0.2781  0.1036
59553W        W60417  29.077   6.206  12.172  0.1534  0.0401  0.2074
59554W        W60418  19.523   7.053  11.298 -0.2795 -0.2454  0.2272
59555W        W60419  18.210   3.493  14.140 -0.1791  0.0164 -0.2227
59556W        W60420  25.090   6.216   6.276  0.3097  0.1384  0.2333
59557W        W60421  22.455  21.405  19.760  0.1907 -0.1308 -0.0576
59558W        W60422   3.973   6.882  27.919 -0.1196  0.0617 -0.0068
59559W        W60423  21.110   1.590  20.451 -0.1431  0.0426 -0.0571
59560W        W60424  20.390   2.824  24.148 -0.2161  0.0094 -0.0288
59561W        W60425  16.618  27.021  23.696  0.0362  0.1096 -0.0173
59562W        W60426  12.331  16.736  19.715  0.0436  0.1170  0.6861
59563W        W60427   8.521   1.587   7.919 -0.0439  0.0429  0.1638
59564W        W60428  25.701  12.176   4.235  0.2479 -0.0295 -0.2410
59565W        W60429  11.925  13.472  15.542 -0.1511 -0.0558 -0.1458
59566W        W60430  18.446  27.854  28.040 -0.1506 -0.0859  0.3980
59567W        W60431   2.512  10.373   6.615  0.2364  0.0299  0.0995
59568W        W60432  26.611  27.334  21.004  0.3534 -0.0476  0.0368
59569W        W60433   9.366  20.417  19.785 -0.2522 -0.2909 -0.2623
59570W        W60434   3.127  17.966   5.413  0.0839  0.1293 -0.0129
59571W        W60435  15.391  16.611  17.801 -0.0441 -0.0482 -0.1793
59572W        W60436  17.935   5.735  27.645 -0.0963 -0.2082  0.3088
59573W        W60437  17.114  10.250   7.868  0.1638 -0.3072  0.1165
59574W        W60438   0.257   1.962  12.387 -0.3940 -0.1262 -0.0125
59575W        W60439  28.235  20.971   2.696 -0.1047  0.1469 -0.0613
59576W        W60440   1.168  25.805  20.642  0.1105  0.0196 -0.1566
59577W        W60441   2.616   6.309  27.570  0.0320 -0.1505 -0.4851
59578W        W60442  17.640  24.415  26.468  0.1501  0.1296  0.0802
59579W        W60443  20.851   5.592  10.119 -0.0780 -0.3924  0.1021
59580W        W60444  27.396   4.013  13.137  0.0414  0.1778 -0.1686
59581W        W60445  22.273  12.945  24.633  0.1735  0.1916 -0.1092
59582W        W60446  23.286   1.195  17.683 -0.2319 -0.1076  0.0668
59583W        W60447  15.382   7.725  21.678  0.1628  0.1830 -0.1805
59584W        W60448  21.555   4.509   3.693 -0.1036  0.1195  0.2436
59585W        W60449  11.587  21.120  18.775  0.1261 -0.0643 -0.0580
59586W        W60450   3.459  24.615  22.206 -0.2027  0.1245  0.0603
59587W        W60451  22.341  25.758   2.948 -0.2463  0.0279 -0.0434
59588W        W60452  24.219  23.156  20.449  0.0991  0.1576 -0.3273
59589W        W60453  21.004  18.997  22.661 -0.1454 -0.0446  0.1681
59590W        W60454   0.523  16.867  17.450  0.1418  0.0474 -0.0039
59591W        W60455   5.207   2.989   7.733  0.0710  0.0758  0.2527
59592W        W60456   9.444  19.962  22.229  0.3591 -0.0926 -0.1647
59593W        W60457  25.038  12.085  28.336 -0.0531 -0.0626 -0.0961
59594W        W60458  28.125  27.365  22.553 -0.1168  0.1158 -0.1802
59595W        W60459   5.084  18.483   0.021  0.4779  0.0523  0.3620
59596W        W60460  19.415   5.487  26.402 -0.1392  0.2169 -0.0949
59597W        W60461  22.747   9.298   2.261 -0.0977 -0.3082  0.2553
59598W        W60462  24.815   9.761  19.583 -0.1227  0.1658  0.0828
59599W        W60463  15.607   3.922  21.074 -0.2347 -0.1249  0.0243
59600W        W60464  12.578  19.216   3.847 -0.1581  0.1158  0.0577
59601W        W60465  28.413  24.804  12.291 -0.0372  0.0050 -0.2978
59602W        W60466  18.595  16.889  28.427  0.0332 -0.1060  0.1726
59603W        W60467   4.734   1.219  19.098  0.2099  0.1492  0.0685
59604W        W60468  18.922   1.680  18.069 -0.0075 -0.2262 -0.1761
59605W        W60469  21.550   4.650  25.986  0.0101 -0.0814 -0.0498
59606W        W60470  23.247  25.963  23.696  0.2779 -0.0113 -0.0938
59607W        W60471  23.292  17.753   9.836 -0.1460  0.3641  0.1403
59608W        W60472   1.452   4.018  22.341  0.1774  0.2071 -0.0857
59609W        W60473  20.017   7.845   3.379 -0.0428 -0.0390 -0.1453
59610W        W60474  28.130  10.819  13.396 -0.1513  0.1361  0.1610
59611W        W60475  22.261  26.747  21.063  0.1871  0.0531 -0.0421
59612W        W60476  12.215  19.680   0.036 -0.0208  0.1087 -0.0093
59613W        W60477   9.162   8.449  21.045 -0.0903  0.0251 -0.1214
59614W        W60478  20.629   3.699  21.419  0.0202  0.2157  0.0865
59615W        W60479  21.802   8.393  23.115  0.2429 -0.1289  0.1492
59616W        W60480  20.082   7.410  20.794  0.2378 -0.0694  0.0463
59617W        W60481  15.701  18.074  21.709  0.0435 -0.6369 -0.2948
59618W        W60482   4.877  12.386   6.929 -0.3442  0.1896  0.0505
59619W        W60483  17.088  19.798  25.691  0.0738 -0.0792 -0.4088
59620W        W60484  28.410   4.687  24.280 -0.0845 -0.0883 -0.0785
59621W        W60485   9.853  14.973  22.575  0.0332  0.1614 -0.1495
59622W        W60486  26.821  28.867  20.403  0.0788  0.0528 -0.0220
59623W        W60487   1.593  15.177   1.940  0.0453 -0.2168  0.1454
59624W        W60488  17.510  14.892  25.702  0.0008 -0.3861  0.1698
59625W        W60489   3.938   5.778   9.696  0.3160 -0.0312  0.2812
59626W        W60490  20.111   0.311  13.938 -0.4003 -0.1861  0.2114
59627W        W60491  12.262  24.938   0.569 -0.2076 -0.0767 -0.0634
59628W        W60492  27.759  25.598  25.108  0.0177 -0.1882 -0.3033
59629W        W60493  25.101   9.404   4.729 -0.1822  0.0475  0.0282
59630W        W60494  16.030  21.997  12.259  0.1067 -0.2107 -0.0516
59631W        W60495  27.898   4.573  16.189 -0.0430 -0.1526  0.0464
59632W        W60496  16.368   5.885  23.304 -0.2569  0.0444 -0.2591
59633W        W60497   2.495   8.553  27.798 -0.2598  0.3454  0.1408
59634W        W60498   0.988  16.500  16.311 -0.0254  0.1812  0.1524
59635W        W60499   1.178   7.873  28.912 -0.2310 -0.1285  0.0141
59636W        W60500  12.511   7.882  15.588 -0.0577  0.1778 -0.1087
59637W        W60501  19.380  12.962  28.399 -0.1556 -0.1482  0.2280
59638W        W60502  16.262   2.141  27.883  0.2087 -0.1689  0.1421
59639W        W60503  28.706   4.141  26.567 -0.0897 -0.3415 -0.1513
59640W        W60504  24.953  26.762  19.517  0.1182  0.1201 -0.0194
59641W        W60505  24.319   0.140   2.865  0.2159  0.1158 -0.0495
59642W        W60506   3.858  26.322  26.788 -0.4043 -0.0705  0.0880
59643W        W60507  25.502   9.131  21.892  0.2355 -0.4147 -0.0744
59644W        W60508  24.576  19.878  24.905 -0.0973 -0.0140  0.0670
59645W        W60509   7.981  12.266   2.730 -0.0776 -0.0736  0.1702
59646W        W60510  22.511  27.306  19.052  0.1967 -0.0743 -0.1040
59647W        W60511   7.783   9.191  12.139 -0.0958  0.1118  0.4063
59648W        W60512   3.821   5.518   2.374  0.3097  0.1872 -0.0857
59649W        W60513  24.959   7.705  14.326 -0.0768  0.1706 -0.3386
59650W        W60514   7.331   5.824  24.217  0.0534 -0.0532  0.3081
59651W        W60515   1.292  16.218   1.830  0.1020 -0.0490 -0.3447
59652W        W60516   0.136  14.696   1.205  0.0677  0.1470 -0.0756
59653W        W60517   7.521   6.930  19.859 -0.1879  0.0807 -0.0283
59654W        W60518  13.165   7.059  25.372  0.2661 -0.0527 -0.1308
59655W        W60519  12.539   9.332  14.245  0.3224  0.4432 -0.0239
59656W        W60520  23.186  23.086  11.344 -0.1205 -0.1404  0.0421
59657W        W60521  19.483   8.676  10.356 -0.1831 -0.0692 -0.1168
59658W        W60522  28.013   0.343  28.404  0.0523 -0.0194 -0.2591
59659W        W60523  18.410  16.206   0.369 -0.1302  0.0720 -0.0582
59660W        W60524  14.607   5.647   6.487  0.2507  0.1664  0.2062
59661W        W60525  10.329  20.223   4.383  0.1762 -0.1001 -0.2548
59662W        W60526   2.456  19.919  18.695 -0.3142  0.1892  0.1229
59663W        W60527  15.332  29.026  11.610 -0.0680  0.3501  0.1172
59664W        W60528   4.786   5.176  24.328 -0.2038 -0.0084  0.3003
59665W        W60529  28.783   5.751   0.525  0.0799 -0.0914 -0.0869
59666W        W60530  12.866  23.561  13.876 -0.0544 -0.2021 -0.1689
59667W        W60531  26.768   7.243  28.198 -0.1280  0.1390  0.1697
59668W        W60532  24.408   2.359  21.610  0.1850  0.0342  0.1359
59669W        W60533  27.853   9.825   0.381 -0.0295 -0.0384 -0.0299
59670W        W60534  11.989  21.190  27.264 -0.0884 -0.0050 -0.2196
59671W        W60535  27.824  28.383  14.736  0.0425 -0.2320  0.1076
59672W        W60536   6.303   5.797   6.836  0.0903 -0.0031  0.2150
59673W        W60537   3.609   1.428   4.929  0.0971  0.0357 -0.3647
59674W        W60538  20.349  12.577  10.622 -0.2540 -0.0454 -0.3132
59675W        W60539  27.279  19.322   3.282  0.1733  0.2813  0.2560
59676W        W60540   4.849  21.262  26.383 -0.1333 -0.0809  0.0139
59677W        W60541  14.911  23.409  25.886  0.0747  0.1560 -0.5934
59678W        W60542  20.071  23.622   5.890  0.0474  0.1646  0.0846
59679W        W60543  26.300   3.803   1.903  0.2913  0.1191  0.0161
59680W        W60544   1.886  22.049  16.030 -0.0763 -0.0589  0.0106
59681W        W60545  23.659  11.706  22.506 -0.1720 -0.2779 -0.0146
59682W        W60546  16.028   5.935   4.040  0.1868 -0.0661  0.2448
59683W        W60547   3.100   4.145  23.748  0.0160  0.1030  0.0952
59684W        W60548  22.143  28.483   6.543  0.3634  0.0099 -0.2020
59685W        W60549   3.289  19.349  29.016 -0.2787 -0.0638 -0.1295
59686W        W60550   7.460  27.065   6.163  0.2970 -0.1321 -0.4825
59687W        W60551   3.999  24.789  12.262  0.2518 -0.1731  0.0076
59688W        W60552   0.612   0.010   3.065  0.1371 -0.0635 -0.2546
59689W        W60553  27.090   0.751   3.316 -0.3645  0.1159 -0.3381
59690W        W60554  25.656  21.891  14.862  0.1632 -0.0798 -0.0214
59691W        W60555  26.609   4.308  20.729 -0.0240 -0.1537 -0.1093
59692W        W60556  18.957  22.406  28.925 -0.1262  0.5518 -0.1867
59693W        W60557   3.787  19.111  18.703 -0.2865 -0.0018  0.0192
59694W        W60558  24.363   7.673  10.403 -0.2150  0.0709  0.0538
59695W        W60559  25.794  23.425  20.801 -0.3700 -0.0760 -0.0641
59696W        W60560  22.520  13.837   2.682  0.2598  0.2219 -0.0526
59697W        W60561   8.416  24.017  26.522  0.0557  0.1185  0.0401
59698W        W60562   2.880   3.462  22.850 -0.1487  0.5522 -0.0988
59699W        W60563  19.887  12.043  23.682 -0.1333 -0.3167 -0.1865
59700W        W60564  23.198  22.877   3.276  0.1011 -0.1488  0.1622
59701W        W60565  17.385   4.346  26.091  0.1867 -0.2035 -0.1817
59702W        W60566   2.371   5.918  26.621 -0.0294  0.2233 -0.1668
59703W        W60567  24.040  28.889  28.114  0.1003 -0.1849  0.0209
59704W        W60568  10.332  26.884  23.836 -0.0215  0.1835 -0.1708
59705W        W60569   1.877  12.317   4.805  0.0360  0.1706 -0.1598
59706W        W60570  26.178   9.570   3.651  0.1485  0.0921  0.0118
59707W        W60571  15.066  27.660   4.150 -0.2510 -0.1184  0.0625
59708W        W60572  12.571  26.086  23.827 -0.0912 -0.1272 -0.0651
59709W        W60573   8.615  24.373  25.620  0.0148 -0.0537  0.3331
59710W        W60574  24.072   3.682   6.435  0.0318  0.2247 -0.1187
59711W        W60575  21.706  23.526  28.434  0.2135  0.2278 -0.1146
59712W        W60576   8.218  21.188  22.442 -0.1704 -0.1061  0.2226
59713W        W60577  25.012  15.297   4.806  0.0025 -0.2441 -0.0043
59714W        W60578   2.567  17.029  21.687  0.1548  0.0106  0.1131
59715W        W60579   8.222  23.734  28.914  0.0367 -0.2544  0.0049
59716W        W60580  16.190  23.787  22.241  0.1227  0.0228 -0.1452
59717W        W60581   8.500   3.476  26.400 -0.3808  0.1176  0.0518
59718W        W60582  15.434   0.694   2.937  0.1856  0.1567 -0.2010
59719W        W60583  22.067  17.686   9.610 -0.4201 -0.2618  0.0606
59720W        W60584  15.799  23.803  25.793  0.0125 -0.1973 -0.1063
59721W        W60585   2.508  27.921   8.364  0.3268 -0.2145 -0.1639
59722W        W60586  13.346  16.426  28.052  0.4092  0.1203  0.2601
59723W        W60587  26.767   8.662   7.665 -0.0190  0.3679 -0.0577
59724W        W60588  16.104  26.386  25.497  0.0131 -0.0016 -0.0344
59725W        W60589   5.850  20.734   2.591 -0.2846  0.0679  0.0386
59726W        W60590  19.967  25.265   2.255  0.3859  0.1057 -0.0311
59727W        W60591  22.258   6.267  15.352 -0.1123 -0.0598 -0.0737
59728W        W60592  12.667  10.476   5.748 -0.0663  0.0495 -0.0031
59729W        W60593   2.899  16.769  24.524  0.1301  0.3130 -0.1380
59730W        W60594  10.029  10.392  15.035 -0.1203  0.1577 -0.2306
59731W        W60595   0.485  20.574   0.944  0.1767  0.0019  0.0360
59732W        W60596  17.258   3.304  18.670  0.1632 -0.1998  0.0070
59733W        W60597  20.871  11.970   0.672  0.1593  0.1234 -0.0369
59734W        W60598   4.427  16.084  28.102 -0.3008 -0.2042 -0.0996
59735W        W60599   2.731   1.636  27.244 -0.0203  0.3551  0.0163
59736W        W60600  20.835  18.532  10.538 -0.1107 -0.1230  0.0131
59737W        W60601   6.459   4.041  22.303 -0.1170  0.0214 -0.0975
59738W        W60602  26.218  14.130  27.089  0.1825 -0.2216 -0.3147
59739W        W60603   2.263  24.699  23.794  0.2908 -0.0663  0.0255
59740W        W60604  23.107  27.054  13.057 -0.1691  0.0079  0.1356
59741W        W60605  14.716  25.786  25.065  0.0040  0.3221  0.0927
59742W        W60606   0.305  27.318  16.969 -0.0506  0.3699  0.3471
59743W        W60607  16.361  13.755  16.252  0.1777 -0.0170 -0.1957
59744W        W60608  26.924  22.219  26.637 -0.2392  0.0123  0.1033
59745W        W60609  27.704   1.250   3.003  0.3074 -0.0759  0.3046
59746W        W60610   3.229  26.368  13.400 -0.0791 -0.4227 -0.0586
59747W        W60611   5.870   2.904   9.198  0.0497  0.1412  0.1190
59748W        W60612  19.746  24.997  15.609 -0.0799  0.0279 -0.0203
59749W        W60613  22.366  21.313  28.647 -0.1043  0.0870 -0.1420
59750W        W60614  17.351   2.108  18.847  0.1968  0.2125 -0.0801
59751W        W60615  28.825   8.529   4.462  0.2546  0.0126 -0.3477
59752W        W60616  19.313  10.524  12.185 -0.4994  0.1947 -0.3007
59753W        W60617  25.908  28.348  18.471 -0.0616  0.3061  0.4061
59754W        W60618  12.175   9.433  11.412 -0.2283  0.0369 -0.1935
59755W        W60619  10.073  14.387  28.258 -0.4088  0.1244 -0.3128
59756W        W60620  16.945  21.703  22.711  0.0045 -0.1624 -0.0168
59757W        W60621   0.692  19.194  12.537 -0.4588 -0.0765  0.1227
59758W        W60622   6.534  15.624   1.580 -0.0678 -0.2029 -0.3034
59759W        W60623  11.143   7.878  24.258  0.0709 -0.0636  0.0586
59760W        W60624  24.912   7.090  25.572  0.2851 -0.1698  0.2326
59761W        W60625  11.171  28.696   5.248 -0.1221  0.1225 -0.0268
59762W        W60626  24.090   5.579  23.183 -0.0213  0.1049  0.0389
59763W        W60627   2.739   2.693  10.949  0.1947  0.1146 -0.0305
59764W        W60628  18.108  13.308   6.532 -0.2101 -0.1822  0.0370
59765W        W60629  29.120  19.007   2.654  0.3390  0.1183 -0.0172
59766W        W60630  27.828  22.329  25.662 -0.0061 -0.0876  0.0545
59767W        W60631   5.010  20.783  28.011 -0.4736  0.1655 -0.0033
59768W        W60632  26.451  12.286  16.808  0.0757 -0.0114  0.1263
59769W        W60633  24.615  22.662  11.375 -0.0837 -0.0861  0.0205
59770W        W60634  20.336   2.076  20.644 -0.1508  0.0645  0.1560
59771W        W60635   6.044  15.806   9.355  0.0806 -0.0521  0.0270
59772W        W60636  19.260  18.104   2.502 -0.0135  0.1020 -0.0062
59773W        W60637  20.035   0.366  28.682  0.1292 -0.0018  0.1267
59774W        W60638   1.508   3.457  14.195  0.0191 -0.1910  0.1389
59775W        W60639   7.354   8.566  21.520 -0.0190  0.0262 -0.0086
59776W        W60640   5.511  16.591  19.239 -0.2253 -0.3102 -0.0947
59777W        W60641   2.689  10.868   5.330 -0.1937 -0.3486 -0.3498
59778W        W60642   3.941  25.321  26.938  0.0225  0.1074 -0.2740
59779W        W60643   3.168   8.527  18.024 -0.1513 -0.2888  0.2381
59780W        W60644  19.492   3.262  28.222  0.0849  0.0178 -0.0413
59781W        W60645   1.062  20.864   2.486  0.0001 -0.2710  0.0550
59782W        W60646   4.609   0.334   5.415  0.1049  0.2951 -0.0538
59783W        W60647  28.093   7.564   3.635  0.0164 -0.2283  0.0135
59784W        W60648  28.070  12.352  23.821 -0.3694 -0.0194 -0.0338
59785W        W60649  27.418   4.494  12.466  0.2559 -0.1498 -0.0164
59786W        W60650  13.333   6.852  28.210  0.4215  0.1415 -0.0791
59787W        W60651  27.021   9.756   1.828 -0.1031  0.0248 -0.0274
59788W        W60652  28.153  11.143  17.331  0.0373 -0.0155 -0.4878
59789W        W60653  23.916  14.293   5.323 -0.1528  0.1460  0.0269
59790W        W60654  10.935  10.456   7.253 -0.4486 -0.0995  0.1547
59791W        W60655   5.681  23.102   2.855 -0.1044 -0.0160 -0.2309
59792W        W60656  28.258   1.329  25.335  0.0575  0.0669 -0.0904
59793W        W60657  27.488  24.902  13.020  0.0599  0.0208  0.0913
59794W        W60658  15.750  18.834   2.674 -0.1352 -0.0251  0.0495
59795W        W60659  15.932  18.046   9.345  0.0721 -0.1928  0.0344
59796W        W60660   3.069   4.474   4.963 -0.0637 -0.0884  0.0884
59797W        W60661  25.613   7.905  15.171 -0.3840  0.0175 -0.0575
59798W        W60662  22.125  24.420  28.184 -0.2909 -0.0044 -0.1028
59799W        W60663  27.887  20.424   1.053 -0.1450  0.1475 -0.3225
59800W        W60664  20.941  28.684   0.008  0.2180  0.2278 -0.1527
59801W        W60665  17.169  13.231  27.384 -0.1503  0.0731 -0.1684
59802W        W60666   0.893  26.954   2.811  0.0942  0.2077  0.1861
59803W        W60667  14.814  28.613   8.405 -0.2448  0.2184  0.1028
59804W        W60668  21.372  27.260  21.576  0.2594  0.1719  0.0854
59805W        W60669  27.413  20.820  15.898 -0.0094  0.2202  0.0792
59806W        W60670  19.870  27.226  15.805 -0.0994 -0.0143  0.0308
59807W        W60671  22.349  25.299  12.899 -0.1297  0.1922 -0.2042
59808W        W60672   1.915  26.371   3.686  0.1441 -0.1033  0.0228
59809W        W60673  22.260  22.665   1.989 -0.2502  0.1343  0.4207
59810W        W60674  11.146   6.616   0.881  0.0687 -0.0045  0.0360
59811W        W60675  25.706  23.599  28.013  0.0581 -0.0298 -0.1338
59812W        W60676   5.736  27.774   1.687  0.1860 -0.2665  0.2928
59813W        W60677   3.629  25.538  23.819  0.0164  0.0457 -0.0140
59814W        W60678  22.087  10.747   0.124  0.2374  0.0073  0.0282
59815W        W60679   4.174  18.820  13.985  0.2196  0.0590 -0.1313
59816W        W60680  13.034  21.708  17.817 -0.2504 -0.0461  0.0153
59817W        W60681   7.368  17.847  27.718  0.2180  0.0408 -0.2927
59818W        W60682  19.967  16.818  16.774  0.1654  0.4182  0.1248
59819W        W60683  26.495  27.538   3.090  0.0159 -0.0894 -0.5820
59820W        W60684   2.815   4.213   1.860  0.0340  0.1064  0.1314
59821W        W60685  24.330   0.377  17.551 -0.1553  0.1525 -0.1525
59822W        W60686  13.330   7.102   0.805  0.0414 -0.0268  0.0769
59823W        W60687   6.402   2.376  28.279 -0.0615  0.0020 -0.0911
59824W        W60688   0.444   2.037   8.201 -0.2667 -0.1394 -0.2558
59825W        W60689  18.695   9.366  25.777 -0.0309 -0.3552  0.1032
59826W        W60690  28.633   9.683  28.752 -0.1154  0.3332 -0.0422
59827W        W60691   0.380  25.794  21.590 -0.3225 -0.2396 -0.1541
59828W        W60692  27.829   3.406   5.571 -0.0454 -0.1349 -0.1783
59829W        W60693  13.362  24.675  28.387  0.2322 -0.1487 -0.2299
59830W        W60694  22.604   9.036  17.564  0.2014 -0.0550 -0.3289
59831W        W60695  27.679   6.582  11.284 -0.0612  0.0357  0.0754
59832W        W60696  23.873  13.907   0.111  0.1504 -0.4284 -0.0284
59833W        W60697  25.405  28.921   3.200  0.1083  0.3463  0.1719
59834W        W60698  24.419   2.672  20.646 -0.0242  0.1262 -0.0115
59835W        W60699   2.186  22.163  21.389 -0.2942  0.0800 -0.0424
59836W        W60700  15.317   0.019  26.479 -0.0846  0.0389 -0.2139
59837W        W60701  20.800   3.703   7.179 -0.1100  0.2147  0.0723
59838W        W60702  28.657  21.614   5.823  0.2016  0.2014 -0.4218
59839W        W60703  18.937  21.809   5.112 -0.2969  0.2369 -0.1570
59840W        W60704  27.081  21.284  15.047  0.2584 -0.2033  0.0695
59841W        W60705  26.731  19.516  15.674  0.0020  0.1737  0.1857
59842W        W60706   0.833  12.657  27.528 -0.0290 -0.2183 -0.1678
59843W        W60707  16.468  21.257  16.114  0.0077  0.0621  0.1525
59844W        W60708  11.822  17.914  12.301 -0.2502  0.0004  0.3019
59845W        W60709  21.749  14.189  27.247  0.2159 -0.0224  0.0526
59846W        W60710  22.459  28.818   4.817  0.2076  0.2800 -0.1782
59847W        W60711  26.067   9.468   1.334  0.2528 -0.2356 -0.0391
59848W        W60712  27.136  16.968   0.692 -0.0361  0.3431 -0.0622
59849W        W60713  21.013  20.143  11.667 -0.3237 -0.2469 -0.3954
59850W        W60714  28.350   2.660  19.508 -0.0928 -0.0779  0.3787
59851W        W60715  25.189   4.657   1.676  0.0985 -0.0520 -0.1897
59852W        W60716  18.295   7.287   2.978 -0.1051 -0.2104 -0.0333
59853W        W60717   1.795   5.611  24.796 -0.1385  0.1841 -0.0450
59854W        W60718   5.881   5.074   6.075  0.0208  0.1629  0.0448
59855W        W60719  27.169   9.120   3.456 -0.0497 -0.2320  0.0270
59856W        W60720   8.005   9.398  19.405 -0.0739 -0.1537 -0.5760
59857W        W60721   1.169  28.967  21.109  0.1070  0.1881  0.0556
59858W        W60722  12.085  17.417   9.174  0.4632 -0.4934  0.0862
59859W        W60723   3.059  27.026   1.511 -0.1369 -0.3824  0.1122
59860W        W60724  16.640   6.628  21.720 -0.0090 -0.0623  0.0397
59861W        W60725   3.050   4.504  18.229 -0.1483 -0.1115  0.2004
59862W        W60726   7.958  27.828  21.225 -0.0535 -0.1672 -0.2640
59863W        W60727   7.387   1.113  18.356  0.1421  0.0445 -0.2075
59864W        W60728   1.499  16.595   0.718 -0.5274 -0.1295  0.1862
59865W        W60729  13.194  25.271  23.287 -0.1811  0.1523  0.1472
59866W        W60730   4.939  28.496   2.380 -0.0732 -0.0540  0.2252
59867W        W60731  25.316   2.059  20.630  0.1580  0.1029 -0.1536
59868W        W60732  22.252  13.323  23.364  0.0355 -0.0748 -0.2305
59869W        W60733  21.853  10.618  11.464  0.1449  0.2522  0.0412
59870W        W60734   4.170   9.371   0.310 -0.2891  0.1597 -0.1981
59871W        W60735  13.756   4.754  13.337 -0.3160 -0.1033 -0.2442
59872W        W60736  14.596  16.950  28.020 -0.1561  0.0486  0.0311
59873W        W60737   0.072  25.947  26.246  0.0742 -0.2579 -0.0833
59874W        W60738  10.810  12.462   1.395 -0.1539 -0.2447  0.0708
59875W        W60739   8.737  10.226   2.605 -0.1970  0.0302  0.1191
59876W        W60740  17.413  12.864  22.124  0.1894 -0.0652 -0.0445
59877W        W60741   3.915  12.853   5.574  0.4914  0.0664  0.4133
59878W        W60742  11.406  10.194   6.299  0.1955  0.1595  0.3351
59879W        W60743   4.418  29.142  13.475  0.0138  0.0365  0.1126
59880W        W60744   0.631   9.880  28.538 -0.1844 -0.1173 -0.1711
59881W        W60745  10.508  17.354   2.284 -0.0345  0.0174  0.0035
59882W        W60746   3.658  10.881  23.204  0.1133  0.0852 -0.0121
59883W        W60747   0.704   6.276   9.120  0.2257  0.0074 -0.1336
59884W        W60748  10.058  28.231  25.554  0.1459 -0.0987 -0.0131
59885W        W60749  19.023  22.971  13.149 -0.1450  0.1632 -0.0975
59886W        W60750  24.709  25.747  19.743  0.1940  0.4978 -0.1565
59887W        W60751  15.680  26.085  28.672  0.3491 -0.1380 -0.2954
59888W        W60752  17.189  26.988  20.048 -0.2458 -0.2937 -0.1386
59889W        W60753  12.214  23.245  15.802  0.0204 -0.0269  0.1107
59890W        W60754  12.595   2.841  19.302  0.0535  0.4497  0.1487
59891W        W60755  12.589  10.809   6.123 -0.1549  0.0221  0.0660
59892W        W60756  19.609  20.906   8.598  0.0165  0.1552 -0.0633
59893W        W60757   0.422  17.968   3.457  0.2009  0.2167  0.1387
59894W        W60758   6.919   3.392  16.036  0.1413  0.2258  0.1111
59895W        W60759   7.096  18.541   3.247 -0.0874 -0.2374  0.0221
59896W        W60760   1.108  26.325   3.919  0.0866  0.0260  0.3036
59897W        W60761  16.139   0.091   0.162  0.3852 -0.1555  0.2045
59898W        W60762  15.232  27.757   3.352  0.0778 -0.1735 -0.1136
59899W        W60763  18.047   8.282   9.162 -0.2290  0.0128  0.0608
59900W        W60764   3.554  16.430  15.798 -0.1138 -0.2267 -0.0216
59901W        W60765  15.001   7.128  18.080 -0.0642 -0.0905 -0.1032
59902W        W60766   8.824  24.643   1.890  0.3591  0.1155  0.0611
59903W        W60767  23.749  26.460   1.699  0.0471 -0.0378 -0.1664
59904W        W60768  17.230   4.693  18.508 -0.2146 -0.2314  0.3021
59905W        W60769  22.532  12.307  24.033  0.2727 -0.2841 -0.0754
59906W        W60770  28.519   8.459  25.452  0.2140 -0.1651 -0.0837
59907W        W60771  13.677  14.968   1.931  0.2211  0.0530  0.1338
59908W        W60772   8.188  12.216   1.277 -0.1148  0.2297  0.0911
59909W        W60773   2.363  22.009  21.820  0.0900  0.1344 -0.1795
59910W        W60774  29.027  10.945  22.647  0.0920 -0.1659 -0.1094
59911W        W60775   9.949  24.696   0.275  0.0027  0.2445 -0.3208
59912W        W60776  16.783  27.796  20.462 -0.0231 -0.0745 -0.1637
59913W        W60777   1.977  27.439   2.084  0.3514  0.0569 -0.0372
59914W        W60778  20.929  16.046  26.062 -0.1179 -0.3383 -0.2864
59915W        W60779   7.263  13.891  20.610 -0.0056 -0.0835  0.1430
59916W        W60780  14.908   7.930   9.144  0.1163 -0.0332 -0.2498
59917W        W60781   9.379  11.228  15.968 -0.0803 -0.0147 -0.2843
59918W        W60782   1.944  24.949  17.891 -0.2404  0.1575  0.1935
59919W        W60783  28.274  14.488  13.978 -0.3188 -0.0195  0.0595
59920W        W60784  15.806  15.227  18.536  0.1362  0.1412  0.1737
59921W        W60785  15.341   3.467  22.372 -0.2190  0.0240 -0.1652
59922W        W60786  26.764   5.561   0.743  0.1575  0.2285 -0.1873
59923W        W60787  16.780  22.977  13.284  0.2753  0.0892  0.1139
59924W        W60788  13.355  11.183   3.011 -0.1667  0.0188 -0.2617
59925W        W60789  19.715   2.419   0.645  0.0997 -0.1601  0.0501
59926W        W60790   0.364  13.014  16.152  0.1230  0.1934 -0.0643
59927W        W60791  28.408   5.636   6.251 -0.1190  0.0297  0.0007
59928W        W60792  24.630  23.592   3.351 -0.3327  0.3342 -0.2000
59929W        W60793  22.498  19.182  18.805 -0.0924  0.2323  0.1517
59930W        W60794  13.880   3.162  22.968  0.1984  0.1631 -0.2891
59931W        W60795  24.504  10.165   5.137  0.2326  0.0767 -0.1406
59932W        W60796  12.154   1.063  17.929  0.1947 -0.2396  0.0028
59933W        W60797  22.869  27.679   0.227 -0.3147 -0.2746  0.1536
59934W        W60798   9.235  24.883  25.418 -0.0114  0.1222  0.0361
59935W        W60799   9.168   7.051   0.408 -0.1783 -0.0961  0.1470
59936W        W60800  25.312   2.792  24.815  0.0926 -0.0856  0.1729
59937W        W60801   4.230  13.090   2.345  0.1617  0.2477 -0.3940
59938W        W60802  15.324  28.935  17.749 -0.0809  0.1913 -0.1621
59939W        W60803  24.927   2.260  26.252 -0.0045  0.0541 -0.0519
59940W        W60804  10.837  17.270  24.720 -0.1729 -0.0483  0.1325
59941W        W60805   5.080   8.610  17.094 -0.0958 -0.1425  0.0264
59942W        W60806  17.705  23.264  27.661 -0.0559 -0.0229 -0.1146
59943W        W60807  17.168   9.740   8.395  0.0314 -0.1706  0.0174
59944W        W60808  25.825   2.896  15.130  0.0139  0.0305  0.1543
59945W        W60809   3.620  24.066  24.403  0.2572  0.1759 -0.3419
59946W        W60810  10.520   3.119  28.238 -0.2262  0.0691 -0.2060
59947W        W60811  11.443  12.182  27.107  0.1943  0.3033  0.3166
59948W        W60812  11.320  18.438   7.876 -0.0490  0.2429 -0.0700
59949W        W60813   1.173  14.029  21.283  0.0146  0.1304 -0.0460
59950W        W60814  23.920  24.262  16.568  0.0873 -0.1926  0.0800
59951W        W60815  27.990  23.555  19.806 -0.0088  0.1319  0.0421
59952W        W60816   2.252   5.015  15.359 -0.1013 -0.0258 -0.0267
59953W        W60817  27.054   7.916  11.527  0.0584  0.0792  0.3153
59954W        W60818   5.420   9.262   4.088  0.1859 -0.0709  0.0467
59955W        W60819  11.018   2.969   6.598  0.1341 -0.1553  0.0986
59956W        W60820  27.253  11.486  12.738 -0.2012 -0.1654 -0.0282
59957W        W60821  25.610  11.177  17.739 -0.1592  0.0748 -0.0081
59958W        W60822  19.515   0.936   1.392  0.0486 -0.0813 -0.2048
59959W        W60823  25.843   9.783  25.733 -0.1677  0.1319 -0.2036
59960W        W60824   1.116   4.624  13.667  0.0021  0.0421  0.1559
59961W        W60825   9.802  28.158  18.756 -0.2013  0.1452 -0.1492
59962W        W60826  27.391  12.129  10.802  0.1584 -0.1741  0.3090
59963W        W60827  28.666  13.852  11.058  0.1712 -0.1336 -0.0377
59964W        W60828   2.513  28.811  16.742  0.0071  0.0471 -0.3395
59965W        W60829  20.087  27.402  27.444  0.2245  0.0161 -0.1296
59966W        W60830  24.696  27.030   2.951  0.1003  0.1903  0.1138
59967W        W60831   8.720  27.875   5.233 -0.1323  0.0065  0.1274
59968W        W60832  23.869  16.982   9.550 -0.1006  0.0793  0.1393
59969W        W60833   8.674   2.941  20.634  0.0808 -0.4244  0.2515
59970W        W60834   5.718  20.671   7.328  0.0026  0.0302  0.1314
59971W        W60835   2.846  27.476   4.541  0.2228 -0.1967  0.1943
59972W        W60836  13.238  11.977  21.363 -0.2026  0.2851  0.0291
59973W        W60837   3.387  28.298   7.417  0.0094  0.0387 -0.3277
59974W        W60838  10.473  27.700  19.913 -0.2175  0.0707  0.1046
59975W        W60839  21.581  27.738  18.605  0.2417 -0.1168 -0.0574
59976W        W60840  25.906  27.297  25.930  0.1023 -0.0447  0.0505
59977W        W60841   0.503   2.569  12.938 -0.1571  0.1156 -0.1889
59978W        W60842  24.387  14.041  25.384  0.3225  0.0109 -0.0233
59979W        W60843  18.963  12.571  17.238 -0.1811  0.0141 -0.0413
59980W        W60844   6.122   5.608  13.578 -0.0832  0.3497 -0.1635
59981W        W60845   1.374   1.141   8.473  0.2198 -0.2278  0.0928
59982W        W60846  27.091   7.627  26.148 -0.1627  0.1530  0.0478
59983W        W60847   7.649  23.070  22.736  0.2129  0.1607  0.1464
59984W        W60848  20.586   8.690   7.013  0.0426 -0.1980  0.2269
59985W        W60849   8.166  17.809  27.326 -0.1991  0.1144  0.2005
59986W        W60850  24.444  23.605  27.185  0.2697  0.1779 -0.2460
59987W        W60851  25.604  23.727   9.932  0.1530 -0.1597  0.2010
59988W        W60852  23.274  24.467   5.980  0.0378  0.2362 -0.1112
59989W        W60853  11.624   5.009  13.864  0.0991  0.0255 -0.1282
59990W        W60854  23.938   2.936  28.861 -0.1155  0.1668 -0.0605
59991W        W60855  18.738  24.800   6.813  0.2277 -0.0409  0.1649
59992W        W60856   2.475   8.188  16.013  0.1057 -0.0997 -0.2984
59993W        W60857   5.942  21.739   9.696  0.0655  0.1175 -0.0935
59994W        W60858  10.471   3.794  10.092 -0.3173  0.1326 -0.0546
59995W        W60859  10.907   7.027   8.424  0.1167  0.3514 -0.1089
59996W        W60860  25.132   3.910   5.485  0.0291  0.0481 -0.2475
59997W        W60861  22.256  20.800  22.603 -0.3045  0.3123 -0.0765
59998W        W60862   4.077   7.197  16.473  0.0894 -0.2019  0.0191
59999W        W60863  18.109  26.293  20.868  0.0453 -0.1226 -0.1096
60000W        W60864  28.614  21.622   8.705 -0.2058  0.0713 -0.1710
60001W        W60865  19.360  18.104   1.835  0.0074 -0.1807 -0.1517
60002W        W60866  18.676  19.648  26.412  0.0988  0.1857  0.1197
60003W        W60867  26.696  24.463   5.135  0.0557 -0.1826  0.0872
60004W        W60868  12.728  12.020  18.787 -0.3406  0.1583 -0.0308
60005W        W60869   1.043   9.059  23.607  0.0196 -0.1259  0.1425
60006W        W60870  24.048  22.674  14.660 -0.1232 -0.2529 -0.0470
60007W        W60871   2.109  13.727   2.801  0.2537 -0.0729  0.1347
60008W        W60872  24.948  16.810   6.775 -0.0242 -0.1526  0.0852
60009W        W60873   0.246   7.845   3.260  0.1731  0.3917  0.1129
60010W        W60874  27.060   5.398   6.201  0.1557  0.0691  0.4017
60011W        W60875  17.437  17.175   4.164 -0.1568 -0.1355  0.2724
60012W        W60876  20.667   8.834  16.394  0.1394  0.1334 -0.1097
60013W        W60877   7.847  20.519   4.441 -0.0582 -0.0073  0.0280
60014W        W60878  27.561  16.375   8.033  0.1552 -0.0326  0.0701
60015W        W60879   7.198  22.804   6.227  0.0956  0.1796 -0.1305
60016W        W60880  15.784   9.611  13.181 -0.0178  0.0382  0.0037
60017W        W60881   3.895   8.198  24.855  0.3499  0.0460  0.0999
60018W        W60882  26.539  10.788   5.025 -0.2533 -0.2520 -0.2296
60019W        W60883  27.375  11.804  11.177  0.4099 -0.1117  0.1726
60020W        W60884  28.093   1.134   2.056  0.0177  0.2263 -0.1725
60021W        W60885  21.625  27.481  23.604  0.1034 -0.2442 -0.0064
60022W        W60886  19.196  23.042  23.701  0.1789 -0.0795  0.0569
60023W        W60887   8.798  25.084  10.716  0.1835 -0.4188 -0.0398
60024W        W60888  12.559  23.418   0.938 -0.3191 -0.3594  0.2627
60025W        W60889  22.242   2.102  21.853  0.1229  0.1240 -0.3172
60026W        W60890  25.750   4.874   2.286 -0.2154  0.0430 -0.1261
60027W        W60891   1.266   9.477  15.656 -0.3106  0.0197 -0.0217
60028W        W60892  22.701  21.169  17.279 -0.1602  0.0147  0.1793
60029W        W60893  16.668   5.591  15.847 -0.2261  0.4349 -0.0135
60030W        W60894  22.626  17.923  10.550  0.2363  0.0253 -0.0924
60031W        W60895   5.795  15.267  27.320  0.2600  0.0615 -0.2233
60032W        W60896  17.137  11.740  23.698 -0.1498 -0.1437  0.2369
60033W        W60897  18.595   5.581  10.389  0.2590  0.0058  0.0595
60034W        W60898  29.038   0.424   2.454 -0.0004  0.3233 -0.3625
60035W        W60899   4.330   6.829   8.414 -0.1034  0.1391 -0.1418
60036W        W60900  20.647   2.557   1.072 -0.3029  0.1284  0.1578
60037W        W60901   1.787  27.701  14.144 -0.2244 -0.1723 -0.1617
60038W        W60902  19.018  21.420  17.699  0.1677  0.0140 -0.0004
60039W        W60903   6.862  11.096  20.551  0.0148 -0.2087  0.0259
60040W        W60904   0.174  18.632   9.868  0.1997 -0.2587  0.1304
60041W        W60905  27.383   4.531   0.861  0.0968 -0.0560 -0.0721
60042W        W60906  26.398  17.813   1.640  0.0292 -0.2500  0.3221
60043W        W60907   4.506   7.234   4.294 -0.0117  0.0556  0.0443
60044W        W60908  24.869  16.983  25.823  0.2966 -0.2530 -0.0905
60045W        W60909  28.596  19.108   6.070  0.1836 -0.5393  0.3573
60046W        W60910  25.951   6.004  10.354  0.1096  0.0407 -0.0453
60047W        W60911  20.744  11.970  19.310  0.0698  0.1171 -0.0705
60048W        W60912  21.020   0.213  23.576 -0.2134  0.3042  0.2005
60049W        W60913  15.296  20.490  26.327  0.1845 -0.0371 -0.2477
60050W        W60914  18.886  25.822  25.763 -0.2774  0.1654 -0.3559
60051W        W60915  15.579   5.183  22.470  0.1412  0.2941  0.0954
60052W        W60916  27.053   5.636  20.265  0.2106 -0.2513 -0.1796
60053W        W60917  20.702   2.710  25.167 -0.0790 -0.2453  0.0929
60054W        W60918  13.982  13.544   3.115 -0.0722  0.0858 -0.1355
60055W        W60919  21.194  26.441  11.735 -0.3055 -0.1952 -0.4432
60056W        W60920   1.831  28.277  26.689 -0.0144  0.3276  0.1543
60057W        W60921  12.081  16.356  13.661  0.0971 -0.2301 -0.0540
60058W        W60922   6.266   9.582  26.052 -0.0970 -0.0150  0.1646
60059W        W60923   7.293   3.965   5.126 -0.0406 -0.2211  0.0085
60060W        W60924  25.677  15.217  25.974 -0.1088 -0.0309  0.0837
60061W        W60925   5.600   2.367  12.137  0.2821 -0.2320  0.2037
60062W        W60926  24.553  12.279  19.237  0.0546  0.1909  0.0028
60063W        W60927  10.511  16.296  24.649  0.0776  0.0908 -0.0012
60064W        W60928   4.691  24.508  18.185 -0.2402 -0.0532  0.1494
60065W        W60929  22.716  21.467   0.921 -0.1048 -0.0208 -0.0693
60066W        W60930  19.400   2.572   1.877 -0.1532  0.0666 -0.0597
60067W        W60931  12.972  25.643  20.093  0.0997 -0.0077  0.1115
60068W        W60932   0.629  12.944  21.516  0.1187 -0.1115 -0.1286
60069W        W60933  10.530   9.594  28.548 -0.0997  0.1665 -0.0837
60070W        W60934  22.771  11.315  10.823 -0.4347 -0.1568 -0.3988
60071W        W60935  13.644   2.786   0.925  0.0235 -0.1301 -0.0040
60072W        W60936  24.061  10.627  23.894 -0.2978  0.0332  0.2530
60073W        W60937  28.101   8.888  16.646 -0.1183 -0.1017 -0.1374
60074W        W60938  19.249  15.415  23.619  0.0207  0.0861  0.3160
60075W        W60939   2.151   3.148  21.598 -0.0219  0.2073 -0.2825
60076W        W60940   1.329  13.131  24.465 -0.0305 -0.0205 -0.0312
60077W        W60941  12.121  25.075  12.047 -0.0925 -0.0223  0.1183
60078W        W60942   2.717  24.884  11.725 -0.1462  0.0387  0.2693
60079W        W60943   2.511   9.744  23.603 -0.1767  0.0155 -0.1099
60080W        W60944  23.071  12.714  17.906  0.1634 -0.2139  0.0949
60081W        W60945   0.768   4.628  13.170  0.1036  0.1828  0.1249
60082W        W60946  14.435   5.868   2.464  0.0954 -0.0675  0.0117
60083W        W60947  16.125   9.965  23.196 -0.1266 -0.0360 -0.1412
60084W        W60948  18.526   4.120   1.163  0.0920  0.2276  0.0687
60085W        W60949  17.031   1.126  27.024 -0.4526 -0.1534  0.1139
60086W        W60950  22.645  24.250  10.177  0.2121 -0.2724  0.1593
60087W        W60951  24.319  25.582  14.667  0.0220 -0.1871  0.1551
60088W        W60952  23.138   9.094  13.849 -0.2508  0.1999  0.0063
60089W        W60953  21.907   1.713  10.876 -0.0766 -0.1739  0.2424
60090W        W60954  11.152  12.500  26.811  0.0807 -0.0105  0.1022
60091W        W60955  22.588  29.063  21.385  0.1050  0.0064  0.0155
60092W        W60956   2.223  16.881   6.420  0.1954  0.2284 -0.0652
60093W        W60957   1.360  21.119  23.516  0.0278 -0.0077  0.0442
60094W        W60958   2.172   8.697  13.379 -0.3342  0.3535  0.0415
60095W        W60959   4.926  26.450  11.888 -0.2208 -0.2397  0.0048
60096W        W60960  21.453  18.448  26.187 -0.0616 -0.2176  0.2929
60097W        W60961   4.762  15.211   1.065  0.1070 -0.0530 -0.2748
60098W        W60962   4.609   0.593  29.061 -0.1804 -0.3140  0.2353
60099W        W60963   2.046  10.836  27.366 -0.3379  0.2339  0.1197
60100W        W60964  14.929   6.992  29.084 -0.1605 -0.0736  0.0391
60101W        W60965  13.379  24.568   4.251  0.1329  0.3196  0.3146
60102W        W60966  24.951   7.254  18.150 -0.2186  0.1301  0.2570
60103W        W60967  19.553   6.501  11.231 -0.2128  0.3687 -0.1031
60104W        W60968  19.510   0.947  13.277  0.0584  0.0806 -0.2589
60105W        W60969   2.401   9.593   0.981  0.2748 -0.1785  0.2475
60106W        W60970  24.287   9.814  18.706  0.0703 -0.2427  0.0365
60107W        W60971   8.151  26.917   9.482 -0.1199 -0.0971 -0.0205
60108W        W60972  27.093  24.565  10.677  0.0216 -0.0230  0.1904
60109W        W60973  11.551  18.421  16.517 -0.2984 -0.1760 -0.0522
60110W        W60974  19.239  11.186   2.987 -0.0249  0.0703 -0.0027
60111W        W60975  28.785  19.484  25.238 -0.0859 -0.5346 -0.1137
60112W        W60976  19.068  19.679  10.692 -0.0801 -0.0130  0.3045
60113W        W60977  19.719   5.121   3.964  0.1256 -0.1108  0.0535
60114W        W60978  12.982   9.994   0.413  0.1265 -0.0792 -0.0165
60115W        W60979  26.371  13.522  23.452  0.4227  0.0892  0.1883
60116W        W60980  11.236  21.230  28.915 -0.0033 -0.2306  0.0044
60117W        W60981   2.408  17.357  25.288 -0.0759 -0.3447  0.0529
60118W        W60982   1.304  24.270  25.804  0.2897  0.1100  0.1808
60119W        W60983  21.668   7.736   0.542  0.1581 -0.0995  0.1307
60120W        W60984  20.195  24.159   9.326  0.0390  0.1825 -0.1712
60121W        W60985   3.309  25.648  22.309 -0.3135  0.0994  0.0918
60122W        W60986  24.603   6.993  13.835 -0.1710 -0.0412  0.2561
60123W        W60987  20.483  25.101  21.903  0.1060 -0.2054  0.2061
60124W        W60988  26.537  12.377  25.294 -0.2582 -0.1517 -0.0831
60125W        W60989  14.164  10.844  21.240  0.2776 -0.0098  0.0546
60126W        W60990  15.336  15.232  18.751 -0.1684  0.3143 -0.2450
60127W        W60991   1.027   7.264   2.029 -0.0537 -0.2319 -0.0133
60128W        W60992  12.519  16.094  22.464  0.1827 -0.0644 -0.2756
60129W        W60993  16.223  17.646  20.790  0.1428 -0.0509  0.3716
60130W        W60994  22.881  12.239   5.347 -0.1595  0.0663  0.2039
60131W        W60995  17.651  14.312  15.596 -0.1882  0.3398  0.0799
60132W        W60996  23.759   8.875  23.159  0.1801 -0.0672 -0.0288
60133W        W60997  25.302  10.269  22.719 -0.0489  0.1178 -0.0060
60134W        W60998   6.926   4.947   4.733 -0.0735 -0.0654 -0.2528
60135W        W60999  11.377   7.874  26.116 -0.3586 -0.0224  0.3284
60136W        W61000   2.373  10.380  12.647  0.0226  0.3883  0.1452
60137W        W61001  27.565  25.821  21.354 -0.0661  0.0921  0.1447
60138W        W61002  12.986  23.328  22.242  0.0739  0.0664 -0.3480
60139W        W61003  12.282   1.520   0.391  0.0182 -0.0541  0.1431
60140W        W61004   5.516   4.585  15.659  0.0007 -0.1789  0.2972
60141W        W61005   4.197  25.048   1.054  0.0054 -0.2002  0.2042
60142W        W61006   7.551   8.617  24.237 -0.0280  0.1089  0.2574
60143W        W61007  28.833  22.592  17.257 -0.1672  0.0599  0.0605
60144W        W61008  29.110  24.098  25.811  0.0618  0.0539  0.0128
60145W        W61009  15.370  27.464   3.810 -0.2204  0.0573 -0.2907
60146W        W61010  18.785  22.670   2.332  0.1875  0.1405 -0.1438
60147W        W61011  24.482  21.524  28.116 -0.0304 -0.0125  0.1955
60148W        W61012   9.118  16.608  10.447  0.1913  0.4287 -0.0443
60149W        W61013  25.429  22.504  28.682  0.0749 -0.2009 -0.2509
60150W        W61014  28.342  24.284   4.785  0.1447 -0.3497 -0.1949
60151W        W61015  18.774   4.182  25.291  0.1435 -0.0181  0.1935
60152W        W61016  13.930   8.135   0.075 -0.0150 -0.0203 -0.0657
60153W        W61017  12.245  24.703  11.536  0.1418 -0.1397 -0.1980
60154W        W61018  18.226   7.979   3.668 -0.1725 -0.0192 -0.0990
60155W        W61019   0.355  16.569   2.156  0.1593  0.1177 -0.1020
60156W        W61020  20.657  22.903   6.324 -0.4495  0.2058  0.0059
60157W        W61021  22.413   6.983  15.255  0.0812 -0.1755  0.3520
60158W        W61022   7.737  23.674   1.053  0.0582  0.1299  0.0293
60159W        W61023  24.252  12.181  12.312  0.0883  0.0170 -0.4378
60160W        W61024  22.346   5.716  19.795 -0.2284  0.0956 -0.1576
60161W        W61025  23.140   3.423  15.809  0.1816 -0.1265 -0.1686
60162W        W61026   9.283   4.436   2.481 -0.0774  0.2347  0.0190
60163W        W61027  11.586  11.314   5.948 -0.1202 -0.6135  0.0570
60164W        W61028  20.129   8.302  27.408  0.1823  0.1560  0.1526
60165W        W61029  20.159   9.048   2.613  0.2813 -0.1990  0.1802
60166W        W61030   5.429  23.778  18.517 -0.0195  0.0016  0.0408
60167W        W61031   2.368  19.661  26.392 -0.0105 -0.0525  0.0885
60168W        W61032  20.812  10.173   5.758  0.1727 -0.1646 -0.1468
60169W        W61033  26.182  26.791   5.323 -0.2548  0.0019 -0.0328
60170W        W61034  26.646  27.098   4.866  0.0133 -0.1155 -0.0234
60171W        W61035   1.245  19.788  27.087 -0.2612  0.0136  0.2260
60172W        W61036   2.431   7.321  26.161  0.0112  0.1054  0.0293
60173W        W61037  27.266  10.690  20.456  0.4738 -0.0438 -0.2378
60174W        W61038   4.016   7.196   7.590  0.0424  0.2096 -0.2231
60175W        W61039  26.376  14.427  14.231  0.2541  0.4373 -0.1469
60176W        W61040  17.590   5.608  14.132  0.1264 -0.0558  0.2414
60177W        W61041   0.035  12.025   2.946  0.1659  0.0606  0.0418
60178W        W61042  26.835  11.945  28.206  0.0014 -0.0478  0.0323
60179W        W61043  18.359   6.802  22.729 -0.0595 -0.1125  0.0149
60180W        W61044   1.233   5.771  10.269  0.0820 -0.0806 -0.0606
60181W        W61045  10.927  25.362  25.870 -0.2274 -0.1316 -0.0513
60182W        W61046  18.560   0.066   8.961  0.1515  0.1151  0.1536
60183W        W61047   8.657  28.276  27.821 -0.3187  0.2254  0.0041
60184W        W61048  26.762  17.776  28.546 -0.0269 -0.2307  0.0644
60185W        W61049  14.947  27.499   0.079 -0.1671 -0.1635  0.1313
60186W        W61050  14.077   9.720  10.536 -0.1902 -0.1290  0.0230
60187W        W61051   2.974  25.644  19.233  0.2331 -0.2485 -0.0897
60188W        W61052  24.936   2.225  18.010 -0.0098 -0.2549 -0.2352
60189W        W61053  27.130   2.898  27.855 -0.0671  0.0787 -0.0924
60190W        W61054  21.991  11.274  17.876  0.3922  0.4515  0.0666
60191W        W61055  16.868  18.141  22.916 -0.1885  0.0811 -0.1982
60192W        W61056  29.018  11.368  28.413  0.0563 -0.0364  0.3514
60193W        W61057  24.851  13.286  28.582 -0.0225 -0.3967 -0.0082
60194W        W61058  18.780  21.172  13.000 -0.0126  0.0283  0.0437
60195W        W61059  14.771   5.205  12.687  0.0312 -0.0601  0.1252
60196W        W61060  13.338  16.125  14.874 -0.0984 -0.0893  0.1098
60197W        W61061  18.578  28.400  11.047 -0.2484 -0.2624  0.0099
60198W        W61062   7.084  10.682  20.365  0.0153  0.1408  0.0413
60199W        W61063  19.026  19.673   9.204  0.1244 -0.0269 -0.0584
60200W        W61064  13.532   3.396  27.219 -0.0040 -0.0925 -0.1085
60201W        W61065   8.347   2.623  27.579 -0.0259  0.1017  0.1446
60202W        W61066  23.984  17.446  20.341 -0.2114 -0.0829 -0.0593
60203W        W61067  27.521   7.423  16.668  0.0294 -0.1422 -0.1598
60204W        W61068  27.436  13.153  28.614  0.2389 -0.2731 -0.0242
60205W        W61069  12.507  11.634  26.676 -0.0893 -0.0840  0.1823
60206W        W61070   1.938   0.856  26.319 -0.1781 -0.1905  0.0547
60207W        W61071  22.149   0.939   4.722 -0.0910  0.1279  0.1145
60208W        W61072   2.477   0.986   7.897 -0.1146 -0.0183  0.1148
60209W        W61073   9.268   3.884  15.384  0.1360 -0.1914  0.2369
60210W        W61074   4.541   8.204   0.523 -0.0474 -0.0033 -0.0230
60211W        W61075  15.762  26.972  20.161 -0.0319 -0.2404  0.0117
60212W        W61076  23.230  12.068  25.403  0.0939 -0.0429 -0.0369
60213W        W61077  13.447   9.848  26.626 -0.2227  0.1553 -0.1040
60214W        W61078  28.826  11.366  22.904 -0.1683 -0.3235 -0.1688
60215W        W61079  21.040  11.543  25.571  0.3384 -0.1970 -0.1281
60216W        W61080   5.824   6.224  27.529 -0.0342  0.0187 -0.1638
60217W        W61081  16.479  29.057  26.834 -0.2038  0.2147 -0.3238
60218W        W61082  23.153   9.977  13.185  0.1282  0.3081  0.0621
60219W        W61083  19.803  20.839  26.624 -0.0295 -0.1926 -0.0577
60220W        W61084   3.395   0.991   3.805 -0.6117  0.1022 -0.1212
60221W        W61085   5.102   0.389  14.747  0.2082 -0.3153  0.6010
60222W        W61086   7.512  25.360  23.631 -0.1141 -0.0783 -0.4610
60223W        W61087  20.387  24.154  19.578  0.1110 -0.0493  0.0202
60224W        W61088  11.548  23.860   8.438 -0.2274 -0.2788  0.3749
60225W        W61089  17.687  23.890   3.049 -0.0830  0.1015 -0.1984
60226W        W61090   0.010   4.598  20.686 -0.3210  0.0228 -0.1507
60227W        W61091  21.871  22.965   0.757 -0.1223 -0.0672 -0.0529
60228W        W61092  11.436   8.721   7.610 -0.0497 -0.0318  0.1317
60229W        W61093   7.961  19.071  13.560  0.3326  0.0919  0.0206
60230W        W61094  24.854  13.829   6.720  0.0718  0.1390  0.4159
60231W        W61095  19.353  26.696   4.642 -0.0617  0.0066  0.0999
60232W        W61096   5.162  10.459   1.371  0.0729 -0.3593 -0.2314
60233W        W61097  24.096   4.287  22.645 -0.1865 -0.3243  0.1198
60234W        W61098  20.129  18.668   7.168  0.2168 -0.4008 -0.1624
60235W        W61099   4.042  26.757  28.203 -0.0495 -0.3412 -0.0642
60236W        W61100  19.817  12.581  26.531 -0.0418 -0.2928  0.0655
60237W        W61101  17.568  20.809   4.301  0.0305 -0.3689 -0.1951
60238W        W61102  21.326  22.712  19.660  0.4507 -0.2584  0.1526
60239W        W61103  22.558   9.671   2.565 -0.1426 -0.3274 -0.1135
60240W        W61104  26.931  22.886   7.278 -0.3205  0.0155 -0.0959
60241W        W61105  23.987   2.417  23.449 -0.2076  0.1369  0.1478
60242W        W61106  25.978  10.750  13.670 -0.0488  0.1701 -0.1231
60243W        W61107  23.859   9.650   6.759  0.0450  0.3579 -0.0529
60244W        W61108  27.191  12.417   3.778 -0.0782  0.0188 -0.1131
60245W        W61109  18.276  29.085  14.444  0.1316 -0.1292 -0.0691
60246W        W61110  28.283  20.186   5.738  0.2241 -0.2020 -0.2048
60247W        W61111   4.599   0.575   2.561 -0.0177 -0.0286 -0.2194
60248W        W61112   8.175   9.502   2.973  0.1823 -0.0964 -0.4969
60249W        W61113  20.178  22.637  25.919 -0.1955  0.0335 -0.3178
60250W        W61114  27.340  16.078   8.426  0.2557 -0.1900 -0.0275
60251W        W61115  24.970  13.119  11.631  0.0712 -0.0663  0.1250
60252W        W61116   8.922  27.085   5.408  0.1137 -0.2116 -0.0979
60253W        W61117  26.728  14.368   8.989  0.0411 -0.2730 -0.2983
60254W        W61118  24.634   4.158  23.840 -0.1875 -0.0460  0.0499
60255W        W61119  13.808  22.232  16.484  0.0262 -0.2529 -0.5047
60256W        W61120  22.005  22.666   5.465 -0.1276 -0.3417  0.1133
60257W        W61121  24.646   2.634   1.766  0.0209  0.0018 -0.0265
60258W        W61122   6.444   5.681  24.232  0.1620  0.2303  0.0234
60259W        W61123   8.170  16.366  27.464  0.1507 -0.0004 -0.0136
60260W        W61124  16.776   9.289   9.253 -0.3574 -0.0453 -0.1936
60261W        W61125  18.724   4.923   8.348  0.0701 -0.0801 -0.1666
60262W        W61126   4.609  25.148  20.860 -0.1289  0.3012  0.0911
60263W        W61127   9.723   8.766   8.782  0.0502  0.0434  0.1467
60264W        W61128   8.326  14.588  20.705 -0.1765 -0.3665  0.0641
60265W        W61129   4.860   2.103  16.642 -0.0009 -0.1031  0.5212
60266W        W61130   0.184  21.186  20.309  0.0947  0.2126 -0.0916
60267W        W61131  23.580  19.076   7.210 -0.0742  0.2375 -0.2647
60268W        W61132  25.641  17.823  22.675 -0.1976 -0.3139 -0.2728
60269W        W61133   5.053   4.383  11.577 -0.1168  0.3940 -0.2017
60270W        W61134   5.916  18.066  13.586 -0.0110 -0.1321 -0.3611
60271W        W61135   7.052   7.913  17.672 -0.0170  0.2621 -0.0877
60272W        W61136  19.039  22.602  14.819  0.1565 -0.0014  0.1873
60273W        W61137   7.294   8.172   8.862 -0.3421 -0.0457  0.0934
60274W        W61138  20.012  23.635   6.419 -0.0147 -0.0390 -0.0634
60275W        W61139  22.614   1.439   5.459 -0.1302 -0.2700 -0.0401
60276W        W61140  24.774  24.957  18.573 -0.3635  0.0990 -0.3165
60277W        W61141   0.333  27.441  10.750  0.2544  0.0521 -0.0094
60278W        W61142   1.312  27.416  26.947 -0.1712  0.0915 -0.1237
60279W        W61143   8.460   3.896  25.250 -0.1157 -0.0327  0.0218
60280W        W61144  15.528   0.211  18.732 -0.2239 -0.2094 -0.1665
60281W        W61145  24.253  13.210   7.281 -0.0443 -0.4457 -0.0925
60282W        W61146  26.076  13.408   4.517  0.4774 -0.1054 -0.0020
60283W        W61147  11.333   3.135   7.472 -0.0900  0.0803  0.1205
60284W        W61148   0.141  22.016  11.897 -0.1106  0.0298  0.1715
60285W        W61149  21.195   7.602   0.758  0.1030 -0.0319 -0.3297
60286W        W61150  13.812  11.049   2.779 -0.1616 -0.3148 -0.2035
60287W        W61151  25.488  19.836  19.013  0.2362  0.0887 -0.2590
60288W        W61152  18.703  15.425  10.615  0.2284  0.0096 -0.2809
60289W        W61153  26.481  27.100  25.758  0.1305 -0.5359  0.2424
60290W        W61154   0.236  20.956  22.202  0.0427  0.0924 -0.0652
60291W        W61155   6.735  14.946   9.148  0.1571  0.2235  0.0195
60292W        W61156  17.725  12.606  17.440  0.2702  0.1992 -0.1066
60293W        W61157  18.020  17.038   5.628  0.0638 -0.2250 -0.0135
60294W        W61158  11.175   0.330  22.230  0.0368  0.2804  0.0391
60295W        W61159  25.005   4.619  11.383  0.0427 -0.1795  0.1492
60296W        W61160  20.610   1.703  13.412  0.2285 -0.0983  0.3026
60297W        W61161  25.085   2.751   4.052  0.0823  0.3152  0.0167
60298W        W61162  28.352  20.257  24.581  0.2555  0.4480  0.0151
60299W        W61163  12.171  21.242   2.921 -0.0550  0.1564  0.1394
60300W        W61164  10.475  24.663   9.988  0.1417  0.0474  0.0077
60301W        W61165  28.358   8.770   6.311 -0.0133  0.2417  0.0943
60302W        W61166  22.930  18.366  18.465  0.0392  0.2814  0.1901
60303W        W61167   0.257   5.110  28.538 -0.1761  0.1163  0.0027
60304W        W61168  25.096   3.679  17.717  0.0855 -0.0204  0.3211
60305W        W61169  11.956  17.606   8.560  0.1134  0.0454 -0.4419
60306W        W61170   2.451  14.566   2.344 -0.1402 -0.3078 -0.0331
60307W        W61171  18.777  11.837  23.097  0.0084 -0.2532  0.1928
60308W        W61172  22.499   2.773  12.113 -0.1287  0.3079  0.2062
60309W        W61173  17.707   7.892  18.528  0.2609  0.1614  0.2087
60310W        W61174   1.324  21.362  22.573 -0.0350 -0.1681  0.0334
60311W        W61175  21.854  11.472   6.975 -0.0761 -0.2188 -0.2270
60312W        W61176  27.526  15.753  21.243 -0.0912 -0.1392 -0.0156
60313W        W61177  20.576  25.853   6.705  0.0221  0.0215 -0.1256
60314W        W61178   5.000  25.236  21.785  0.0482  0.0556  0.0769
60315W        W61179  26.692   1.851  26.305 -0.0757  0.0760 -0.0426
60316W        W61180   1.976  10.029  12.705  0.0208  0.2702 -0.0177
60317W        W61181   7.420   3.566   3.929 -0.2032  0.1096  0.0910
60318W        W61182   4.096  15.508  18.787 -0.0766 -0.2589 -0.1465
60319W        W61183  19.427  19.649  11.074  0.2425  0.2098 -0.1387
60320W        W61184  20.399   4.995  12.464 -0.2052  0.3319 -0.0772
60321W        W61185  22.911  16.834  11.534 -0.0916 -0.0282  0.0172
60322W        W61186  24.591  25.737   0.915  0.0323  0.0196  0.4643
60323W        W61187  25.190   8.669  13.369  0.3547  0.3690 -0.0826
60324W        W61188  16.128  13.849  28.592 -0.0833  0.4712  0.1665
60325W        W61189   7.368  14.437  21.316  0.3991  0.0792  0.0918
60326W        W61190   3.900   6.765   9.444  0.0534 -0.2136  0.0131
60327W        W61191  14.736  17.580   8.077  0.2561  0.0682  0.3913
60328W        W61192   8.756   2.722  10.912  0.1764  0.1732 -0.0376
60329W        W61193  25.152  22.410   8.262  0.1127  0.0519 -0.1127
60330W        W61194   0.692  29.048  27.970 -0.1452  0.0675  0.0660
60331W        W61195  24.796  13.180  16.444  0.1722  0.2086  0.3244
60332W        W61196  19.970  28.929   3.506 -0.1341 -0.1361 -0.0971
60333W        W61197  23.471  10.556  24.353  0.0474  0.0704  0.3015
60334W        W61198  19.808   5.451  17.204 -0.0935 -0.0679  0.3523
60335W        W61199  27.603   7.368   6.750  0.3016 -0.0580  0.0428
60336W        W61200  28.068  16.674   3.205 -0.1406  0.0216 -0.1055
60337W        W61201   1.387  22.689   5.280  0.1503  0.2646 -0.1588
60338W        W61202   1.116   8.320   5.422 -0.2391  0.1344  0.1258
60339W        W61203  16.268  25.089  17.442  0.0865 -0.1216 -0.1920
60340W        W61204  22.036  28.588  10.928 -0.3011  0.0645  0.4188
60341W        W61205  19.878   0.560   4.750 -0.3236 -0.0783 -0.0713
60342W        W61206   1.050  28.222  18.273 -0.0001  0.0188 -0.0674
60343W        W61207  10.415  25.287  20.216 -0.1724 -0.2171 -0.1259
60344W        W61208  17.751  10.021  24.932 -0.0979  0.2912  0.0837
60345W        W61209  13.549   1.112   6.739  0.0957 -0.1539  0.0919
60346W        W61210  28.972  12.619   3.208 -0.1487 -0.1697 -0.0060
60347W        W61211  10.645  14.704  18.488  0.3880  0.1518  0.2824
60348W        W61212   2.351   6.130  10.934  0.1454  0.0280 -0.1643
60349W        W61213   1.730  20.710  20.818 -0.3719  0.2692  0.0200
60350W        W61214  19.648  24.633   0.320 -0.2930  0.1755 -0.1354
60351W        W61215  13.487   5.514  18.044  0.0572 -0.2350 -0.1183
60352W        W61216  25.199  26.320   3.984  0.2016  0.2923 -0.0563
60353W        W61217   2.891  18.929  17.470  0.0503  0.0369 -0.3151
60354W        W61218   2.804   1.001  26.295  0.0111  0.2672  0.0612
60355W        W61219   5.577  10.972  23.765 -0.1038  0.1034 -0.0368
60356W        W61220  19.044  25.567   8.791  0.2926  0.0558  0.1627
60357W        W61221  20.670  17.295  25.971  0.2000 -0.0282 -0.1442
60358W        W61222  25.095   2.352   4.814  0.0881  0.4976 -0.1168
60359W        W61223   4.230  25.761   2.273 -0.4349 -0.2731  0.0168
60360W        W61224  12.478  18.756  27.324 -0.2426 -0.1317 -0.3846
60361W        W61225   5.339  12.795   5.244 -0.0897  0.1365  0.0222
60362W        W61226  18.407   5.307  28.793 -0.2897  0.0071  0.0794
60363W        W61227  19.152  20.441  13.215 -0.0482 -0.0214 -0.0154
60364W        W61228   9.247  23.253  12.866  0.2315  0.0582 -0.0085
60365W        W61229  27.852   3.025  15.780 -0.0316 -0.1508 -0.4149
60366W        W61230   7.598   3.505  28.437 -0.0810 -0.0334  0.0376
60367W        W61231  12.330   8.389  26.201  0.0837  0.0104 -0.1862
60368W        W61232   9.320  25.146   4.105  0.0019 -0.1985 -0.3390
60369W        W61233  21.640  12.109  21.232 -0.0136 -0.1518  0.1036
60370W        W61234   5.806  24.924  11.691  0.2201  0.0044  0.1759
60371W        W61235  11.148  24.583   4.202  0.1615  0.0389 -0.1150
60372W        W61236  28.373   7.869   8.184  0.1479 -0.1025 -0.0607
60373W        W61237  18.537  21.765   4.014  0.0744 -0.2619 -0.1557
60374W        W61238   6.897  21.217  21.743 -0.1621  0.1021 -0.0305
60375W        W61239  22.186  16.865  13.704  0.1417  0.0999 -0.0565
60376W        W61240  18.698   8.799  24.736  0.0324 -0.0634 -0.1351
60377W        W61241  27.587  13.739   7.520 -0.1729  0.5401 -0.0608
60378W        W61242  11.597   4.888   5.851 -0.0097 -0.1961  0.2071
60379W        W61243  25.813  28.527  28.490  0.2655  0.2513 -0.2561
60380W        W61244  26.908  10.937  17.713 -0.0532 -0.1668 -0.0787
60381W        W61245  25.041   6.324  20.137 -0.0539  0.0183  0.2089
60382W        W61246  19.685  14.907  23.500  0.1592 -0.3076  0.1229
60383W        W61247  28.537   4.484   6.947  0.0448 -0.1291 -0.2815
60384W        W61248  27.423   1.653   0.937 -0.0254  0.2148 -0.1163
60385W        W61249  21.565   7.737  22.094 -0.0056  0.4047 -0.1499
60386W        W61250   8.399  10.694   0.940  0.1746  0.1798 -0.0704
60387W        W61251  25.716   5.807  20.400  0.1736 -0.0793  0.1101
60388W        W61252  21.645   6.700   2.045  0.1135 -0.1416  0.2078
60389W        W61253   9.254   9.211  27.251 -0.3178 -0.0070 -0.0284
60390W        W61254   8.605   0.190   9.404 -0.1375 -0.3992  0.0384
60391W        W61255  28.191  14.437  10.570 -0.0136  0.1911 -0.0488
60392W        W61256  14.038  10.255  13.690  0.1566 -0.3260 -0.0740
60393W        W61257  13.526  11.542  21.431  0.1140 -0.4720 -0.3408
60394W        W61258   6.154  12.435  25.716 -0.1423  0.0983 -0.3124
60395W        W61259   0.931   4.916   6.689  0.0576 -0.0384 -0.0347
60396W        W61260   2.898   1.994   3.753  0.3484  0.0542  0.2317
60397W        W61261  18.042  10.895  17.456  0.1849 -0.0864 -0.0872
60398W        W61262  22.431   6.731  19.521  0.0672 -0.0981 -0.0792
60399W        W61263  28.096   7.565   6.741 -0.2968 -0.2502  0.2460
60400W        W61264  25.697   1.094   1.912 -0.1232  0.1005 -0.1055
60401W        W61265  21.450   8.735   9.790 -0.1431  0.0342  0.0028
60402W        W61266  24.450  22.335   6.750 -0.0770  0.0295  0.1341
60403W        W61267   0.848  26.811   7.219  0.0161  0.0202  0.2830
60404W        W61268   9.405   7.774   3.008 -0.1845  0.0286 -0.0690
60405W        W61269   4.735   5.779  21.190  0.3012  0.4141  0.1225
60406W        W61270  24.061   0.339  14.836 -0.0618  0.5587  0.4306
60407W        W61271  13.032  12.798   2.432  0.0835 -0.1710 -0.1389
60408W        W61272  10.357  27.709  10.992 -0.1020 -0.2824 -0.0062
60409W        W61273  11.199   7.179  20.378 -0.1211 -0.1246  0.1467
60410W        W61274  26.487  11.492  15.445  0.0917  0.0202 -0.2292
60411W        W61275  28.724   6.306   2.622 -0.2654 -0.0731  0.1711
60412W        W61276   9.830  10.637  17.417  0.0434  0.0161 -0.0986
60413W        W61277   9.807  25.931   5.251  0.1177 -0.1339  0.0268
60414W        W61278  13.656   0.082   7.717 -0.1020 -0.1349  0.0038
60415W        W61279  24.932  21.523  26.679  0.0701  0.0200 -0.3392
60416W        W61280  11.155   4.768  26.074 -0.3381  0.1345  0.2719
60417W        W61281  19.988  23.229   3.574  0.0990 -0.2275 -0.2031
60418W        W61282   6.360   9.199  23.848 -0.2862 -0.0547  0.0998
60419W        W61283  17.275   1.699   4.194 -0.0588  0.1993 -0.0835
60420W        W61284   3.993  15.097  13.562  0.1271  0.0907  0.1351
60421W        W61285   5.966  14.905   1.779 -0.0694  0.1237 -0.1077
60422W        W61286   0.649  10.926   9.379  0.1039  0.1948  0.0847
60423W        W61287  25.820  28.947   3.580  0.3232 -0.1519  0.1262
60424W        W61288   9.719  22.759  10.650 -0.1543  0.2415 -0.2462
60425W        W61289   5.364  17.692   4.026 -0.2252 -0.0453 -0.0175
60426W        W61290   3.348  10.104   8.694  0.2310 -0.0104  0.0627
60427W        W61291   0.462  16.306  14.939 -0.0189 -0.2930 -0.1834
60428W        W61292  26.792  22.458  27.799  0.2990  0.1416 -0.0074
60429W        W61293  26.533  17.472   2.853 -0.2057 -0.0323  0.0641
60430W        W61294   1.898  25.713  21.577  0.2921  0.1442  0.0265
60431W        W61295   2.476  20.344   1.144  0.1018 -0.0204 -0.0461
60432W        W61296  25.207  10.280  18.987 -0.0183 -0.2782 -0.1233
60433W        W61297  11.815   9.720  22.544  0.4328  0.0253 -0.2523
60434W        W61298   0.162  21.393  27.139 -0.0123 -0.4894 -0.1763
60435W        W61299  22.705  14.961   5.638  0.2115 -0.1598  0.1952
60436W        W61300  21.303  16.803   1.974  0.0812  0.0849 -0.0019
60437W        W61301  18.336   9.460  14.715 -0.2755 -0.1233  0.0234
60438W        W61302  24.414   0.611  23.494  0.2235 -0.1207 -0.1255
60439W        W61303  12.099   6.995  26.117  0.2494 -0.0570  0.0771
60440W        W61304   5.376  13.129  19.844  0.0754 -0.0650 -0.1346
60441W        W61305   1.222  19.075   4.484 -0.3076  0.1836 -0.2451
60442W        W61306  16.671  12.308  22.536  0.1183 -0.0262 -0.0150
60443W        W61307   9.847   4.690  18.371  0.0745  0.0099 -0.2820
60444W        W61308  18.289  17.059  14.193 -0.0958  0.1998 -0.1173
60445W        W61309   8.412   8.154  28.895  0.0581  0.3175  0.1008
60446W        W61310   6.281  25.703  19.430 -0.0003  0.1952  0.2016
60447W        W61311   1.104  21.877   8.701 -0.1378  0.3667  0.1239
60448W        W61312  23.195   5.348  10.128 -0.2436  0.0858 -0.0309
60449W        W61313   3.437  25.111  18.598 -0.1861 -0.0173 -0.0762
60450W        W61314  24.048  10.052  25.470  0.2510 -0.0932 -0.4463
60451W        W61315   2.831  21.634   3.083 -0.1863 -0.0962  0.0446
60452W        W61316   7.212  15.389  26.814  0.1280 -0.3531  0.0721
60453W        W61317  10.628   8.540  23.436 -0.2071 -0.0252  0.1978
60454W        W61318  24.366   7.008   4.065 -0.3288  0.0274 -0.0298
60455W        W61319  15.539  21.443  12.908 -0.0397  0.1757  0.3682
60456W        W61320   3.655  26.074  24.760 -0.1542  0.1315  0.0514
60457W        W61321  22.910  17.769  11.288  0.2062 -0.1007 -0.1001
60458W        W61322  19.374   3.623  16.973  0.2164 -0.1694 -0.0362
60459W        W61323  14.734  18.376   8.277 -0.1160 -0.0570  0.0960
60460W        W61324   3.520   1.867   9.306  0.0751 -0.0334 -0.1077
60461W        W61325   5.682  23.443  22.846 -0.0851 -0.1504 -0.0092
60462W        W61326   2.751  26.016  25.272 -0.4772  0.1210 -0.2327
60463W        W61327  22.631  14.559  20.311 -0.0169 -0.0450  0.5152
60464W        W61328  16.362   0.266   4.262  0.0834  0.3168 -0.2339
60465W        W61329   2.481   5.776   0.854 -0.1352 -0.1919  0.0364
60466W        W61330  24.747  20.358  22.201 -0.1612 -0.2959  0.0594
60467W        W61331  18.197   5.826  25.142  0.0694 -0.2300  0.3141
60468W        W61332   8.945   4.704  11.086  0.2383 -0.0804  0.0325
60469W        W61333   7.933   5.917   5.300 -0.1913 -0.1148 -0.0902
60470W        W61334  16.364  17.890  25.517 -0.0322 -0.1324 -0.1556
60471W        W61335  19.089  20.580  12.195  0.1210  0.0221  0.3467
60472W        W61336  28.064  20.097   0.445  0.1221  0.0643 -0.1260
60473W        W61337  17.487  15.709   6.035  0.0746 -0.2378 -0.0137
60474W        W61338  15.806   4.891  12.115  0.3133 -0.0779  0.1867
60475W        W61339  17.988  11.694  20.746  0.0180  0.1070 -0.0099
60476W        W61340  16.676   9.656  12.933  0.0819  0.1044  0.1131
60477W        W61341   0.398  21.013   7.665  0.0398  0.0771  0.0654
60478W        W61342  20.035  14.215  20.860  0.0079  0.1953  0.2519
60479W        W61343  26.819  12.354  28.440  0.2444 -0.0776 -0.0352
60480W        W61344   2.990  18.903  15.306  0.0493 -0.4235  0.1278
60481W        W61345  14.369   6.896   1.533 -0.1781  0.1179 -0.1078
60482W        W61346  25.388   8.622   6.237  0.3391 -0.0170 -0.2490
60483W        W61347   5.530  21.269  15.900  0.1217  0.0223  0.2416
60484W        W61348  15.121  25.952  27.949  0.1091  0.0950 -0.0586
60485W        W61349   0.098  22.520  16.934 -0.1414 -0.2835 -0.0321
60486W        W61350  16.994   8.973  10.413 -0.0153 -0.1326  0.1145
60487W        W61351   7.626  13.995  12.454 -0.1830 -0.0919  0.1631
60488W        W61352  25.227  16.028   0.243  0.0720  0.2072  0.1923
60489W        W61353  22.369  28.335   8.812 -0.2536  0.1247  0.2672
60490W        W61354  20.913  28.967  27.657 -0.1034 -0.1517 -0.2271
60491W        W61355  14.508   0.434   4.118 -0.3798 -0.1806 -0.0374
60492W        W61356   5.693  19.272   2.865 -0.0168  0.0482  0.0425
60493W        W61357  26.129  19.268   5.214  0.1527 -0.1989  0.1011
60494W        W61358  15.338  20.902  16.568 -0.0244 -0.1678 -0.0476
60495W        W61359  22.126  21.422   5.650 -0.0125  0.1187  0.0328
60496W        W61360  22.199   6.027  24.092  0.1729 -0.1897 -0.2199
60497W        W61361   1.840  13.090   1.588  0.1273 -0.0481  0.3345
60498W        W61362  17.949  11.797  18.412 -0.0099  0.0308  0.1452
60499W        W61363  24.511  24.760  25.077 -0.0994 -0.0290 -0.2629
60500W        W61364  10.345  13.326  28.423 -0.0066  0.3785  0.0693
60501W        W61365  23.713  11.460   2.384 -0.2875 -0.2754  0.1210
60502W        W61366   9.380  26.213  15.266  0.0433 -0.3303 -0.0334
60503W        W61367  18.698  13.798   8.591  0.1827  0.1065 -0.2908
60504W        W61368   1.485   7.597  28.643 -0.2515 -0.0818  0.0395
60505W        W61369  23.921  19.707  28.937 -0.2628  0.1542  0.2736
60506W        W61370  19.808  17.261  29.114 -0.2169 -0.0955  0.1070
60507W        W61371   6.830   8.392   2.913  0.0881  0.1931 -0.1515
60508W        W61372   7.678   1.638   1.244  0.0639 -0.0819  0.0062
60509W        W61373  12.882   3.454  26.751 -0.2563 -0.0109 -0.1918
60510W        W61374   1.426  28.837  21.501  0.2213  0.1203  0.0547
60511W        W61375  20.714  17.311  16.297 -0.0380  0.1596 -0.0405
60512W        W61376  24.149   3.214  18.224  0.0642 -0.1858 -0.0920
60513W        W61377  15.780  15.616  20.702 -0.3139 -0.2347 -0.1267
60514W        W61378  14.295   9.340  11.060  0.2066 -0.0754  0.0734
60515W        W61379  23.206   4.216   1.940  0.1711  0.1015 -0.2062
60516W        W61380  11.322  13.526   2.548 -0.1974 -0.1563  0.1183
60517W        W61381  29.112   4.970  26.765 -0.1081 -0.1192  0.0910
60518W        W61382  22.164   4.410   3.429  0.2092 -0.0561  0.1043
60519W        W61383   5.126  15.094  25.753 -0.1864 -0.1381  0.1438
60520W        W61384  14.975  11.510   7.373 -0.0237 -0.0581  0.1445
60521W        W61385  28.855  10.992  12.220 -0.1660 -0.0017  0.0600
60522W        W61386   0.045   5.893  18.066  0.0356 -0.0041  0.1794
60523W        W61387   4.561   0.174  11.284 -0.0083 -0.1412 -0.0312
60524W        W61388  17.461   7.776   2.221 -0.1158 -0.1054 -0.1403
60525W        W61389   1.006  13.931  15.084 -0.1987  0.0057  0.0900
60526W        W61390  12.879   1.087  19.579 -0.0847  0.3750  0.1637
60527W        W61391  26.142   2.514  16.949  0.0307  0.0367 -0.1783
60528W        W61392  24.646   0.452   8.110  0.1708 -0.2966 -0.4958
60529W        W61393  25.865   5.075  13.026 -0.2896  0.1629 -0.1503
60530W        W61394  13.314  11.856   4.245  0.1047 -0.0186 -0.2858
60531W        W61395   2.836  22.421  10.009 -0.1585  0.4529 -0.0610
60532W        W61396  27.421  13.197   1.999  0.1978 -0.0834  0.0756
60533W        W61397  21.712  27.197  17.475 -0.0146  0.1953 -0.0643
60534W        W61398  14.670  23.708   3.901 -0.3315  0.0785 -0.0770
60535W        W61399  12.270   6.373   2.340 -0.1016 -0.0680 -0.2734
60536W        W61400  11.682   7.544  26.656  0.0303  0.0767 -0.2993
60537W        W61401   1.593   6.019   2.482  0.0563  0.0641 -0.2169
60538W        W61402  28.492  16.522   5.027 -0.2293  0.3047 -0.0990
60539W        W61403  21.466   6.378  17.233 -0.0857  0.1833 -0.0120
60540W        W61404  13.246  21.801   8.786  0.1511 -0.0901  0.0676
60541W        W61405   5.466  15.861  23.548  0.1755  0.0526  0.2408
60542W        W61406  29.020   2.794   7.348  0.0954 -0.2502 -0.0070
60543W        W61407  25.875  17.864  15.023 -0.1544 -0.1581 -0.3610
60544W        W61408  24.991   3.583  11.086  0.0778  0.0379 -0.1439
60545W        W61409  13.313  11.399  10.168  0.0360  0.0101 -0.1388
60546W        W61410  16.656  25.646  11.795 -0.2852  0.2679  0.1325
60547W        W61411   4.357  12.687   0.068 -0.1070  0.0236 -0.2032
60548W        W61412  24.996  28.389   3.130 -0.1460  0.1561  0.0709
60549W        W61413  16.244  11.080  13.812 -0.1399  0.0857  0.0491
60550W        W61414  16.878  21.889   8.061  0.0800 -0.1119  0.0136
60551W        W61415  19.968  20.105   1.706 -0.1679 -0.0658  0.0327
60552W        W61416  23.630  24.300   6.512 -0.3229 -0.0502 -0.0199
60553W        W61417  27.575   2.731   5.299  0.0293  0.2385  0.2331
60554W        W61418  27.534  19.487  24.619 -0.0548  0.3340  0.4253
60555W        W61419  12.313   1.850  12.187  0.1227  0.0072 -0.1295
60556W        W61420  24.210   1.084   4.877  0.1202 -0.0596 -0.1702
60557W        W61421  24.077   8.790   9.804 -0.1561  0.1735 -0.1483
60558W        W61422   0.061  13.200   4.531  0.0792  0.0165  0.0650
60559W        W61423  12.519  16.519  14.040 -0.1193 -0.0443  0.1067
60560W        W61424  23.796  13.408   0.003  0.1872 -0.1049 -0.0905
60561W        W61425  19.181  16.417  19.537 -0.0870  0.0056 -0.0337
60562W        W61426  14.040  20.110  12.892  0.2532  0.1602 -0.1812
60563W        W61427   6.753  26.799   3.578 -0.0161  0.0479  0.1819
60564W        W61428  19.155  10.357   5.542  0.0557  0.4787  0.0374
60565W        W61429  18.393  22.365  13.720  0.0668  0.1505 -0.0525
60566W        W61430  21.916  28.076  18.977 -0.0527  0.0775 -0.0391
60567W        W61431  25.921   8.084  21.129 -0.0459 -0.1610 -0.0476
60568W        W61432  24.662   4.591  16.335  0.2849  0.1335 -0.2069
60569W        W61433  18.985   8.563   9.009  0.2919 -0.1231  0.2385
60570W        W61434  27.302   4.240  28.343  0.1343  0.1125  0.2946
60571W        W61435   2.333   8.209   4.142 -0.0526  0.1602  0.1736
60572W        W61436  10.551  14.751  19.903  0.0436  0.0013 -0.2103
60573W        W61437  25.448  11.425  19.854  0.2953 -0.2373  0.0400
60574W        W61438   2.105  19.125   4.622 -0.0577  0.0799  0.0777
60575W        W61439  19.282  19.151   4.095  0.1116  0.1087 -0.1436
60576W        W61440  17.136  14.369   5.218 -0.0099  0.2702 -0.1123
60577W        W61441  16.940  27.229   6.206 -0.0475 -0.2134 -0.1469
60578W        W61442  29.087  15.353  26.653 -0.0911  0.1445  0.4841
60579W        W61443   2.320  27.646   2.434  0.1998  0.0143 -0.1540
60580W        W61444  15.543   7.091  28.363 -0.1117  0.1666 -0.1598
60581W        W61445  19.299  27.611  10.787 -0.1438 -0.0889 -0.1401
60582W        W61446  11.739  12.113  25.428 -0.2912  0.1265 -0.1328
60583W        W61447  25.584   8.788   7.076  0.0457  0.2985 -0.0845
60584W        W61448  10.791  20.331  25.336  0.1121 -0.2049  0.0478
60585W        W61449  28.178   6.169  20.764 -0.1957 -0.0655 -0.1798
60586W        W61450  25.699  25.494  28.394  0.0411  0.0456 -0.0961
60587W        W61451  23.895  14.428   0.202 -0.1141 -0.0273  0.2656
60588W        W61452  12.963   5.782   2.281  0.2177  0.0559  0.0956
60589W        W61453   0.528  28.117   8.932  0.1300 -0.2289 -0.0672
60590W        W61454  11.534   2.767   4.312  0.1287 -0.0550 -0.1974
60591W        W61455  28.130   3.757  13.524 -0.3024 -0.4448 -0.1340
60592W        W61456   1.567  24.980   2.336  0.0484 -0.2662 -0.0724
60593W        W61457  27.913  10.333   8.705 -0.0080  0.0996  0.0407
60594W        W61458  20.569   1.222   7.143  0.0809  0.2220 -0.0406
60595W        W61459  15.803  11.583   3.281 -0.2963 -0.1099  0.0600
60596W        W61460  15.877  28.550   7.281  0.0512  0.0368 -0.0925
60597W        W61461  21.034  17.142   2.812 -0.1220 -0.0586  0.0336
60598W        W61462  23.097  17.242   2.374  0.0557 -0.0787 -0.1309
60599W        W61463  26.807   7.813  23.510 -0.0883 -0.2643 -0.1910
60600W        W61464   0.724   7.474  25.321 -0.2731 -0.1242  0.1412
60601W        W61465   7.354  20.085   1.600  0.2320  0.1423 -0.1259
60602W        W61466  19.734  26.825  19.097 -0.0425  0.2828 -0.1122
60603W        W61467  15.570  16.673  16.797  0.1472  0.0702 -0.2578
60604W        W61468  16.171  25.393   4.841  0.1781  0.0641  0.0783
60605W        W61469  10.625   9.799   6.536  0.1759 -0.2921 -0.1884
60606W        W61470  27.175  15.998  12.537 -0.1567 -0.0340 -0.0483
60607W        W61471  10.151  11.345  10.404  0.1150  0.2253 -0.0578
60608W        W61472   4.375  28.133  21.018  0.0882 -0.0292  0.0462
60609W        W61473   7.436  22.951  25.420 -0.0870 -0.0702  0.2198
60610W        W61474   6.464  25.453   2.800 -0.0219  0.1621 -0.2135
60611W        W61475   9.279   3.798   2.557  0.0620  0.0309 -0.0671
60612W        W61476   9.314   2.359  14.268 -0.4474 -0.0698 -0.3439
60613W        W61477  22.134  13.682  16.671 -0.1297  0.0531 -0.4013
60614W        W61478   0.706  15.571  26.289  0.3043  0.2003  0.1497
60615W        W61479  14.774  23.676   3.108  0.2349  0.1502  0.1462
60616W        W61480  26.832  24.021  12.518 -0.1803  0.0843 -0.1409
60617W        W61481   3.859  12.650  26.089  0.3657 -0.1554  0.0847
60618W        W61482   4.926   4.218  18.869  0.0854 -0.0975 -0.1267
60619W        W61483   0.992   6.214  21.945 -0.2640 -0.2005  0.0490
60620W        W61484  14.714   1.822  24.736  0.3541 -0.0465 -0.1268
60621W        W61485  24.187  13.527  14.140  0.1240  0.0915  0.2456
60622W        W61486   9.610  15.461  12.647 -0.0509  0.4836  0.1659
60623W        W61487  11.200  26.696  13.489  0.1251 -0.3675  0.4065
60624W        W61488  19.161  21.817   5.604 -0.3145  0.0736 -0.1357
60625W        W61489  13.455  13.056  25.498  0.0235  0.1731 -0.0156
60626W        W61490   3.082  22.937  16.855 -0.1592  0.1034 -0.0543
60627W        W61491   3.372  11.689   2.863  0.0543  0.2484 -0.0482
60628W        W61492   0.759  13.933  26.745 -0.0653 -0.3028 -0.4682
60629W        W61493  28.633  13.052   9.404  0.0114  0.0300 -0.0739
60630W        W61494   1.307   6.501  13.667  0.0604 -0.1801 -0.1987
60631W        W61495  18.749   7.455   8.617  0.0181 -0.0001  0.4634
60632W        W61496   8.871  25.604  23.389 -0.1696  0.2540 -0.0255
60633W        W61497  17.709  27.902  24.031  0.0277  0.2139  0.0603
60634W        W61498  11.819  11.361  25.211 -0.4655  0.0866 -0.0692
60635W        W61499  25.937   9.840   5.331 -0.1907 -0.0417  0.2723
60636W        W61500   0.544  15.580  28.106 -0.1214 -0.1360 -0.1176
60637W        W61501  25.289  17.144  10.794  0.3329  0.1660  0.3373
60638W        W61502   8.509  16.223   7.772 -0.2059  0.0479 -0.2590
60639W        W61503   9.835  19.896   6.324  0.1846  0.1625  0.0634
60640W        W61504  11.912   4.782  26.285 -0.4190  0.0454  0.0132
60641W        W61505  23.843   6.142  19.672  0.0311 -0.1307 -0.1180
60642W        W61506  20.081  12.290  19.824 -0.1286 -0.0163  0.0078
60643W        W61507   6.505   1.052  19.519 -0.0764 -0.0591  0.1311
60644W        W61508  20.630   5.755  25.772  0.0048  0.1293  0.2102
60645W        W61509  15.623   7.734   0.222  0.1020  0.1946 -0.0869
60646W        W61510   5.527  13.435   1.513 -0.0059  0.0892 -0.0880
60647W        W61511   3.802   6.206  12.615 -0.1331 -0.2998  0.1240
60648W        W61512  12.453  13.096  23.483  0.1648  0.1236 -0.1562
60649W        W61513   9.827   1.366  10.345 -0.1887 -0.0483 -0.0186
60650W        W61514   3.108  16.225  22.682 -0.0455 -0.3544 -0.0611
60651W        W61515  22.150   1.775   3.837  0.0175  0.0248  0.2355
60652W        W61516  20.346  15.630   6.088  0.0796  0.2592 -0.2819
60653W        W61517   1.549   1.559  22.658 -0.2507  0.0623  0.0827
60654W        W61518   8.792  15.616   1.280 -0.0741 -0.1100 -0.0289
60655W        W61519  24.262  20.877   5.500  0.1396  0.0373  0.0413
60656W        W61520  27.942  12.848  11.476  0.1449 -0.1363 -0.0185
60657W        W61521  24.706   5.595   1.381 -0.1729 -0.0790 -0.4058
60658W        W61522   4.239   1.697  20.964 -0.1231 -0.0194 -0.2102
60659W        W61523  13.610  27.514  28.106  0.0775 -0.0120 -0.0255
60660W        W61524  16.299   5.931   2.193  0.0243  0.0147 -0.1537
60661W        W61525  28.090  13.364  17.555 -0.3018 -0.0814 -0.0452
60662W        W61526  23.712  10.347  25.766 -0.2974 -0.0153 -0.0851
60663W        W61527   3.322   1.888  18.439 -0.0331  0.3396  0.1412
60664W        W61528  16.984  13.885   0.978 -0.2356 -0.0749  0.1579
60665W        W61529  17.730   8.476   1.796 -0.0268 -0.0751  0.1353
60666W        W61530   7.316  10.885   9.902  0.1185 -0.0977 -0.1412
60667W        W61531  19.742  14.825  16.839 -0.5130 -0.0064 -0.3142
60668W        W61532  28.615  24.600   1.166 -0.0581 -0.0529 -0.0817
60669W        W61533  17.873  13.999   2.816 -0.2010 -0.2471  0.0815
60670W        W61534   0.519   7.076  24.999  0.0753  0.2879  0.1148
60671W        W61535   2.378  22.636  21.470 -0.0641 -0.1024 -0.1872
60672W        W61536  13.159  16.211  18.118 -0.0688  0.3729 -0.3149
60673W        W61537  27.878  10.855  28.138  0.0723  0.2187  0.1397
60674W        W61538  14.439  14.051   9.557 -0.0515  0.1092  0.0862
60675W        W61539  18.037  17.933   2.269 -0.1605  0.1337  0.1122
60676W        W61540  18.498  13.463  12.475  0.1689  0.1392 -0.0537
60677W        W61541  22.432  29.099  27.180 -0.0192 -0.1356 -0.0811
60678W        W61542  23.070  17.491  25.611  0.1327  0.3061 -0.1608
60679W        W61543  12.056   7.250  22.617  0.1595  0.3076  0.0026
60680W        W61544   5.202  14.254  20.125  0.1971 -0.1090 -0.1673
60681W        W61545  20.538  10.562  15.600 -0.1132  0.0544  0.0311
60682W        W61546  11.485  20.551  13.605 -0.1790 -0.0869 -0.2267
60683W        W61547  19.462  21.872  10.426  0.0892  0.2993  0.1740
60684W        W61548  14.389  12.081  19.226 -0.0953 -0.1883  0.2435
60685W        W61549  23.722  10.653   5.171  0.3468 -0.0241 -0.2750
60686W        W61550  24.311  20.477   2.267  0.0757  0.0704 -0.0600
60687W        W61551  17.378  16.565  15.987  0.0067  0.1375  0.0248
60688W        W61552  15.143  12.750  20.579  0.0359 -0.0070 -0.0980
60689W        W61553  27.363  18.837   6.489  0.4047 -0.0516 -0.0744
60690W        W61554  10.432   3.487   4.704  0.0199 -0.1274 -0.2139
60691W        W61555  14.556   9.762  22.141  0.0157 -0.0015 -0.3823
60692W        W61556   1.947  11.501   7.855 -0.0001 -0.1940 -0.0389
60693W        W61557   0.487  11.322   1.811 -0.2267 -0.1661 -0.3326
60694W        W61558   6.271  28.352  19.257 -0.2205 -0.2933  0.2958
60695W        W61559  27.806  26.466  11.673 -0.0028  0.2485 -0.2779
60696W        W61560  21.670  28.263  12.424  0.0686 -0.1071 -0.1214
60697W        W61561  19.786   3.669  26.715 -0.1339  0.1415  0.3919
60698W        W61562   2.168  14.655  15.788 -0.0259 -0.0110  0.1299
60699W        W61563  27.913  12.514  24.368 -0.2937  0.1540 -0.0465
60700W        W61564  17.273   9.908   0.025 -0.1114 -0.0636 -0.0820
60701W        W61565   6.745  13.534  25.325  0.0371  0.0384 -0.0135
60702W        W61566   2.038  23.510  21.461  0.0098 -0.0045  0.2777
60703W        W61567  27.665  16.716  12.002 -0.0222  0.0356  0.0874
60704W        W61568  20.766  22.521   9.463 -0.1367  0.0537  0.0202
60705W        W61569  28.435   9.944   0.511 -0.1855 -0.0222  0.0499
60706W        W61570   9.729   0.333  11.177  0.2422  0.0262 -0.2989
60707W        W61571  20.941   7.147  17.651  0.1743 -0.0504  0.0219
60708W        W61572  21.842   2.438  18.511 -0.1223 -0.2128  0.1582
60709W        W61573   2.510  17.745  22.424 -0.1915 -0.1030  0.0005
60710W        W61574   0.167   8.839   2.985  0.0791  0.1568 -0.0400
60711W        W61575  20.819   9.877  24.615  0.1136  0.1078 -0.1374
60712W        W61576   7.373   6.453   2.320 -0.0291 -0.0045 -0.1665
60713W        W61577  18.185  13.039   5.519 -0.1825 -0.1335  0.3604
60714W        W61578  16.191  28.464  22.755  0.1820  0.0307  0.1055
60715W        W61579   3.183   3.613  23.587 -0.0925  0.2922 -0.1400
60716W        W61580   0.677  17.333  12.556  0.2430 -0.2490  0.3262
60717W        W61581   5.624  17.504  19.629 -0.0658  0.2334 -0.2175
60718W        W61582  21.186  23.645   0.785 -0.1314  0.1069 -0.1203
60719W        W61583   2.048   8.653   5.023  0.1425  0.0850 -0.4293
60720W        W61584  20.021  11.988   6.823  0.1944  0.2405 -0.1818
60721W        W61585  18.836  12.360  15.334 -0.1606 -0.0139 -0.2552
60722W        W61586  10.383  14.548   1.386 -0.2445  0.0075  0.0013
60723W        W61587  19.765  16.819   7.849 -0.0689  0.3968 -0.0465
60724W        W61588  16.039  18.954   7.340  0.0452 -0.0140 -0.1537
60725W        W61589   2.016   1.849   0.823  0.1213 -0.1696 -0.1457
60726W        W61590   1.300  19.472  13.653  0.1807 -0.1941  0.0818
60727W        W61591  13.119  25.971  14.150 -0.0239 -0.0214  0.2566
60728W        W61592   4.584  24.338  13.916 -0.1230 -0.0555 -0.3064
60729W        W61593  28.207  23.707  16.155  0.3700 -0.1708 -0.0578
60730W        W61594   3.303  10.432  11.835 -0.2178  0.2568  0.0832
60731W        W61595   5.081   8.347  17.954 -0.1163 -0.0368  0.1850
60732W        W61596   0.367   2.807  14.286 -0.2285 -0.2519 -0.1946
60733W        W61597   0.515  13.834   1.400 -0.1383 -0.0053 -0.0163
60734W        W61598  20.397  24.083   2.918 -0.0611  0.1092  0.2124
60735W        W61599  17.585  25.247  24.026  0.3014  0.1768  0.1213
60736W        W61600   9.156   8.394  19.211 -0.2062  0.0531 -0.0328
60737W        W61601   5.145  17.376  27.400 -0.3265 -0.1814 -0.1404
60738W        W61602   3.680  22.453  15.937 -0.0450 -0.4575  0.1325
60739W        W61603  23.889  22.011   5.024  0.0552  0.0198  0.0284
60740W        W61604  14.746   1.108  27.894 -0.0130  0.0930 -0.1125
60741W        W61605  17.134  11.203  10.310 -0.3183 -0.2106 -0.2042
60742W        W61606  17.025  21.715   4.947 -0.0836  0.1299  0.2343
60743W        W61607   6.125  20.741   4.132 -0.2614  0.1633 -0.4694
60744W        W61608   7.599   7.174  27.721 -0.0368 -0.3017  0.1140
60745W        W61609  22.980   7.431   0.969 -0.1535  0.2758 -0.0447
60746W        W61610  18.353   5.603  22.070 -0.2684  0.0910 -0.3054
60747W        W61611  20.680  21.751   7.778 -0.0905  0.1880  0.3106
60748W        W61612  15.791  16.877   5.765 -0.0825 -0.0842  0.3094
60749W        W61613   4.217  11.275   7.978  0.1527 -0.1631 -0.1201
60750W        W61614  20.224  25.836  24.557  0.0903 -0.1058 -0.0672
60751W        W61615  17.400  13.895   4.110  0.1088  0.0698 -0.0031
60752W        W61616  23.433  24.290   8.679 -0.3104  0.1666  0.0264
60753W        W61617  22.623   9.554   0.117  0.3255 -0.1971  0.1660
60754W        W61618  24.166  11.949  28.618  0.1304 -0.0964  0.2615
60755W        W61619  16.843  25.337   7.702 -0.3725 -0.0668 -0.0846
60756W        W61620  21.282  16.165  16.371  0.1313  0.2906  0.0466
60757W        W61621   1.981  19.590  12.803  0.0981 -0.1815 -0.0376
60758W        W61622   6.144  13.046   2.814 -0.0523  0.3539  0.0504
60759W        W61623  24.725  21.626  23.987  0.0734  0.0842 -0.0518
60760W        W61624  20.155   5.562  15.620 -0.2103 -0.0182 -0.2659
60761W        W61625  28.740  20.985  17.788  0.1540  0.2542 -0.1061
60762W        W61626  24.127   0.185  15.472  0.1234 -0.1875  0.0962
60763W        W61627  27.566   4.321  25.347 -0.0645  0.0822  0.0314
60764W        W61628   5.534   1.985  17.447  0.1844  0.2138  0.1508
60765W        W61629  11.288   2.472  15.268  0.2227  0.0548  0.1276
60766W        W61630  17.639   6.805  17.411 -0.0310  0.1358  0.0574
60767W        W61631   3.554   3.308  14.563  0.2123 -0.1499 -0.2110
60768W        W61632  17.768  10.809   1.186  0.0313 -0.0440  0.3159
60769W        W61633  17.578  21.087  14.888 -0.1120  0.0323 -0.0185
60770W        W61634   8.486  23.005  16.336  0.2102 -0.1363 -0.3698
60771W        W61635  24.478  29.033  25.074  0.1229 -0.0748 -0.2609
60772W        W61636   9.327  11.070  27.014  0.1861 -0.0310 -0.0853
60773W        W61637  10.537   5.407  21.622 -0.0223 -0.0905  0.1698
60774W        W61638  10.872  11.690   3.096  0.1097 -0.3779 -0.1168
60775W        W61639  16.455  26.813   8.069 -0.2258  0.1377 -0.3241
60776W        W61640  15.985  24.368   2.112 -0.1750 -0.0203  0.0827
60777W        W61641  19.312  26.224  23.876  0.4268 -0.0792  0.0698
60778W        W61642   7.700  20.159  24.089 -0.0233 -0.2958 -0.2153
60779W        W61643  16.064  12.315  19.852 -0.0361 -0.1272 -0.1902
60780W        W61644  27.234  19.900   0.703  0.0770 -0.0450 -0.0977
60781W        W61645   0.664   6.881  24.505 -0.2827  0.3333 -0.1577
60782W        W61646  10.643   0.405  24.677 -0.0057 -0.0183 -0.3101
60783W        W61647   7.838   0.056   8.765  0.0380  0.0809  0.0885
60784W        W61648  17.399   5.940  11.882 -0.3038  0.0138  0.1692
60785W        W61649  17.519   8.926   7.681  0.1322  0.1908 -0.0364
60786W        W61650  26.504   3.335   9.118 -0.5308 -0.1081 -0.0660
60787W        W61651  12.684  19.012  25.963  0.1222 -0.0166 -0.0651
60788W        W61652  16.260  18.809   4.371  0.5686 -0.0833  0.0087
60789W        W61653  10.215  10.025  13.954  0.1525  0.0091  0.0329
60790W        W61654  28.154  26.289   2.349  0.4281  0.3631  0.0644
60791W        W61655  24.335  22.946  25.223  0.2759 -0.2359  0.0473
60792W        W61656  28.721   5.348  19.270  0.2046 -0.0725  0.2553
60793W        W61657  29.017  28.954  23.704 -0.2188  0.0352  0.1617
60794W        W61658  17.954   1.033  12.571  0.0390 -0.0338 -0.0405
60795W        W61659  18.781   0.555  23.611  0.0334 -0.5040  0.1370
60796W        W61660  14.890   7.221   0.467 -0.0352  0.1164  0.2780
60797W        W61661   1.860  10.062  20.067 -0.0385  0.0286 -0.0375
60798W        W61662  14.866  22.147   7.724  0.1710  0.1082 -0.1139
60799W        W61663   0.123   0.331   8.043  0.2059 -0.1888 -0.0900
60800W        W61664   9.424   6.561  11.083  0.0312  0.0952  0.0453
60801W        W61665   2.180   2.393   7.406 -0.4137 -0.1463  0.1587
60802W        W61666  22.919  26.442  17.726  0.0110 -0.1639  0.4060
60803W        W61667  11.190   3.380  10.578  0.1129  0.0281 -0.1227
60804W        W61668  10.619  20.954   8.672 -0.1123 -0.1197  0.0373
60805W        W61669   6.399  16.430  27.657 -0.0007  0.1224 -0.1631
60806W        W61670  10.697   9.083  28.505  0.0734  0.2597 -0.0683
60807W        W61671  13.798  12.763  10.530 -0.1449 -0.0130 -0.1727
60808W        W61672   1.003  14.260  16.676 -0.1188  0.2182 -0.0338
60809W        W61673  12.259  14.427  21.805 -0.0105  0.0092 -0.1386
60810W        W61674  19.958   3.054  14.970 -0.0217 -0.0509  0.3800
60811W        W61675  20.748  13.352   4.042  0.1004  0.3647  0.0058
60812W        W61676  25.079  26.670  22.931  0.3248  0.6510 -0.0316
60813W        W61677  23.100   3.383   6.492  0.0770 -0.3015 -0.1829
60814W        W61678  27.181   8.572   5.794  0.1943 -0.0313  0.1084
60815W        W61679  28.623   3.064  24.888  0.1791  0.2113  0.6209
60816W        W61680  28.902   7.513  10.452 -0.0387 -0.1059  0.0024
60817W        W61681   9.802   4.846  23.449 -0.1127 -0.0506  0.1127
60818W        W61682  16.434  14.584   6.126  0.0079 -0.0996  0.3758
60819W        W61683  13.020   8.069  28.150  0.3930  0.0042  0.1615
60820W        W61684   4.437   1.701   2.103 -0.0925  0.1121 -0.2509
60821W        W61685  13.606  16.188   6.428  0.1284  0.1461 -0.2078
60822W        W61686  11.537   6.620   6.699  0.2568  0.1524  0.1587
60823W        W61687  12.544  26.974   6.898 -0.1217 -0.2986 -0.1293
60824W        W61688   7.721   5.972  29.141  0.0850  0.1209 -0.0474
60825W        W61689   3.240   5.152   3.817  0.2196  0.2912  0.1458
60826W        W61690  22.879  10.703  24.674 -0.0567  0.0135 -0.4877
60827W        W61691  12.968  18.892   3.979  0.0297 -0.4564  0.3179
60828W        W61692   1.042  10.985  12.493  0.2257  0.1674 -0.0168
60829W        W61693   0.901   4.471  24.177  0.0663  0.0048  0.0984
60830W        W61694  17.892   7.582  23.690  0.1417  0.0549 -0.0215
60831W        W61695  22.430   2.492  26.825 -0.0617 -0.2543 -0.2640
60832W        W61696   5.163  12.021  10.055 -0.1958 -0.0516 -0.3434
60833W        W61697   4.632  11.066  26.950  0.2648 -0.0109 -0.1126
60834W        W61698   0.776   5.373   2.923  0.1702 -0.2359 -0.0439
60835W        W61699   0.798  28.546   9.027 -0.4594  0.0134  0.1546
60836W        W61700  16.381  18.833  23.557 -0.0301 -0.3504 -0.2723
60837W        W61701   4.980   6.836   3.637 -0.0204 -0.1224  0.0074
60838W        W61702   3.269  28.989   5.759 -0.2749 -0.1871  0.1788
60839W        W61703   6.866   6.743   9.329  0.3692 -0.2049 -0.0440
60840W        W61704  28.120  27.624  12.009 -0.0949 -0.1540 -0.2081
60841W        W61705  21.964  20.749  27.239  0.1329 -0.2318  0.2552
60842W        W61706   0.605  29.003   8.790 -0.3434 -0.1506  0.0955
60843W        W61707   8.662   8.018  24.297 -0.1264 -0.0924 -0.0371
60844W        W61708  10.705  26.023   8.466 -0.1036 -0.0966 -0.1937
60845W        W61709  19.934  25.868   8.798  0.0437 -0.1490  0.0528
60846W        W61710  16.073  28.184  21.780  0.1453 -0.1206  0.1671
60847W        W61711  24.456  11.366  25.028 -0.2122  0.1832 -0.2374
60848W        W61712  16.876  19.364   8.869 -0.2298 -0.1198 -0.1321
60849W        W61713  25.909  12.566  16.477 -0.3248 -0.0086  0.3200
60850W        W61714  19.265   2.957   4.637  0.0413  0.0399 -0.1275
60851W        W61715  17.545  20.073   3.106 -0.0704 -0.0175  0.2456
60852W        W61716  20.159  21.693   8.350  0.1020  0.4992  0.0818
60853W        W61717  18.135  12.515   7.120 -0.2376 -0.0049 -0.1940
60854W        W61718  15.561   0.298   5.676 -0.3500  0.0626  0.1120
60855W        W61719  17.984  20.811  25.281 -0.1485  0.1292  0.1884
60856W        W61720  25.473   0.062  22.556  0.2446 -0.0130 -0.1649
60857W        W61721  20.707   9.380  26.224  0.0977  0.0831  0.0025
60858W        W61722  18.562  22.843  22.237 -0.2161 -0.5414  0.0932
60859W        W61723  25.774  13.151  18.755  0.0368  0.1078  0.1525
60860W        W61724  19.034  14.786   0.691 -0.1590  0.3202  0.0026
60861W        W61725  23.314  19.201  23.665  0.0440 -0.1120 -0.0504
60862W        W61726   4.750  10.763  10.406  0.1802 -0.1660 -0.0020
60863W        W61727  17.482  26.970  13.847  0.1975  0.0842 -0.0214
60864W        W61728   5.038   6.270  19.302  0.1273 -0.2620 -0.1213
60865W        W61729   7.748  17.972   6.937  0.0522  0.0118  0.1719
60866W        W61730  28.827   5.606  13.605  0.2534 -0.0277 -0.2130
60867W        W61731  20.265   5.841   7.653  0.2688  0.0902  0.1311
60868W        W61732  16.266   4.801  11.309  0.1996 -0.4074  0.0952
60869W        W61733  15.711  14.361  15.824  0.2783  0.1369 -0.0881
60870W        W61734  23.725  24.285  19.855 -0.0286 -0.0778 -0.2530
60871W        W61735   9.837   3.594   8.574  0.2254 -0.2610 -0.0786
60872W        W61736  20.891  13.504  27.479  0.1849  0.0725 -0.0080
60873W        W61737  17.591   1.479   1.100  0.0119 -0.0224 -0.0571
60874W        W61738  21.746  26.357   9.746 -0.1055 -0.0522  0.3546
60875W        W61739  22.114   7.525   0.557  0.2998 -0.3532  0.2419
60876W        W61740  24.466  19.452   9.606 -0.0032 -0.4037 -0.0456
60877W        W61741   2.985  11.312   2.964  0.0111 -0.1673 -0.3418
60878W        W61742   2.538  23.146  27.771  0.1031  0.1708 -0.2586
60879W        W61743   8.873  13.311  14.076 -0.1392  0.0917 -0.0911
60880W        W61744  22.946  12.188  20.623  0.2790  0.1209 -0.0269
60881W        W61745  10.910  18.226  13.201  0.2212 -0.0118 -0.2440
60882W        W61746  28.238  26.945   4.234 -0.5460 -0.1281  0.0280
60883W        W61747   1.872  10.802   6.410  0.1481  0.2535  0.0657
60884W        W61748  20.076  16.932   6.665  0.1167 -0.1284  0.0356
60885W        W61749   1.523   5.135   6.774 -0.0832  0.1350 -0.0533
60886W        W61750  15.908   2.124  13.119  0.1408  0.1669  0.0901
60887W        W61751  19.790  20.501  18.463  0.1434 -0.1183 -0.0436
60888W        W61752   0.881  23.069  12.070  0.0201 -0.0974 -0.0247
60889W        W61753  11.902  26.245   6.413 -0.2316  0.0114  0.0781
60890W        W61754  10.729  12.996  10.797  0.0417  0.0643 -0.1175
60891W        W61755  20.863  23.265  21.697  0.3019 -0.2417 -0.0258
60892W        W61756   7.543  27.236  25.724  0.1230 -0.0070  0.1834
60893W        W61757   3.633  13.269  12.880  0.1569 -0.4236 -0.0002
60894W        W61758  19.298  12.713  24.295  0.3850  0.3712 -0.1087
60895W        W61759  24.436  14.547  20.004 -0.1052  0.2756  0.1864
60896W        W61760   9.429  13.687  27.776 -0.1593  0.2224 -0.1164
60897W        W61761   3.890   8.270  11.809  0.1802  0.1513  0.1727
60898W        W61762  23.886  11.495  24.068  0.2136 -0.0632  0.0690
60899W        W61763  27.134   3.752  18.361 -0.0196 -0.2398 -0.1787
60900W        W61764  18.156   5.048  12.957 -0.2971 -0.1011 -0.1374
60901W        W61765  17.314  17.108  17.427 -0.3040 -0.1923 -0.1350
60902W        W61766   2.630  10.250  18.476 -0.2500  0.1230  0.1446
60903W        W61767   8.715  15.451   6.998  0.0668 -0.1928  0.0543
60904W        W61768  11.247   1.304   7.541 -0.0309 -0.1696  0.0112
60905W        W61769  13.130  12.140   0.762  0.0397  0.1657 -0.2542
60906W        W61770  18.181  17.807   1.783 -0.0950 -0.0289  0.3855
60907W        W61771   5.339   5.210   6.962 -0.1554 -0.2032  0.1172
60908W        W61772  24.712  19.429  19.093  0.0950  0.4008  0.0588
60909W        W61773   1.542   1.771  22.149 -0.0920 -0.1963  0.0354
60910W        W61774  13.411   2.791  27.251 -0.0052  0.0196  0.1415
60911W        W61775  10.960  12.888  11.602  0.3753  0.0159 -0.1425
60912W        W61776  12.984   5.502  17.836  0.0709  0.0858  0.0892
60913W        W61777   3.885  10.070   8.561 -0.2428  0.1851  0.2206
60914W        W61778  20.947  23.675  22.447  0.0319  0.3018 -0.1992
60915W        W61779   7.591  15.523   7.113  0.0011  0.1871 -0.1419
60916W        W61780   2.199  18.673   2.920  0.1811 -0.1470 -0.1017
60917W        W61781  25.439  28.359   9.296 -0.0612  0.0573 -0.1664
60918W        W61782   2.101  23.677  27.623  0.2170  0.1191  0.2015
60919W        W61783  23.536  25.654   6.302 -0.1891 -0.0246 -0.2964
60920W        W61784  24.438  26.697   2.496 -0.3295 -0.1867 -0.4025
60921W        W61785   0.373   7.421  25.837 -0.0964 -0.0048 -0.0189
60922W        W61786  22.307  23.409  18.041  0.0216  0.1775  0.0419
60923W        W61787   0.968   5.095   3.709 -0.0463 -0.1384 -0.1511
60924W        W61788  24.075  24.409  18.400 -0.0766 -0.1154  0.0189
60925W        W61789  17.397  14.179  12.053  0.0245 -0.1523 -0.1120
60926W        W61790  26.227  27.321   1.775 -0.2726  0.3215  0.0963
60927W        W61791  15.745   5.609   0.689  0.2202 -0.0365 -0.1264
60928W        W61792  16.691   0.999  26.110 -0.2367 -0.3113 -0.1748
60929W        W61793  18.559  12.035  28.456 -0.2408  0.0371  0.0757
60930W        W61794  26.895  17.099   4.354 -0.3006 -0.3018  0.0718
60931W        W61795  17.082  16.080  26.136 -0.0221  0.3028 -0.2144
60932W        W61796  22.691   1.143  28.138  0.0908 -0.0478 -0.0401
60933W        W61797   3.739  24.403  18.117 -0.1347 -0.1834  0.1495
60934W        W61798  14.409  19.693   2.743 -0.0870 -0.1002  0.1129
60935W        W61799  18.519  15.745  12.456  0.2125 -0.2637 -0.4567
60936W        W61800  14.232  10.124   0.177 -0.1833  0.1134  0.0438
60937W        W61801  11.654  14.900  12.752  0.1673  0.1628  0.3555
60938W        W61802   0.435  22.637  25.834  0.4192  0.0635  0.0065
60939W        W61803   5.990   5.352  11.785  0.2420 -0.4179  0.5471
60940W        W61804   9.849  19.687  15.628  0.1934  0.0470 -0.0877
60941W        W61805   2.917   0.651  12.933 -0.1968  0.1407  0.0142
60942W        W61806  15.726  15.172  13.611 -0.3380 -0.0324  0.0993
60943W        W61807  24.109  14.352  14.209 -0.0366  0.0268 -0.1635
60944W        W61808  23.912   1.840   7.977  0.0594 -0.1349 -0.3877
60945W        W61809  28.077  14.469  28.120  0.0944  0.0127  0.0565
60946W        W61810   8.195  10.481  12.870  0.1281  0.1952 -0.0177
60947W        W61811   4.800   9.518   3.240  0.1203  0.0366 -0.1511
60948W        W61812  23.636  22.583  12.561 -0.2044  0.4180 -0.1371
60949W        W61813  28.962  19.761   8.688 -0.2590  0.0468 -0.0990
60950W        W61814  13.979   7.579  12.646  0.2779 -0.1425  0.0721
60951W        W61815  10.393   2.423  20.496 -0.0810 -0.0930  0.0670
60952W        W61816  20.182   2.714  20.407  0.2479  0.0141 -0.3548
60953W        W61817  10.922   2.952  10.435  0.0479 -0.0797 -0.0072
60954W        W61818  13.914  23.233   3.815 -0.2197  0.2423 -0.0488
60955W        W61819  20.195   6.887   4.326  0.0057 -0.3050 -0.2092
60956W        W61820  25.991  11.022   7.005  0.2755  0.0923 -0.0623
60957W        W61821   1.016   4.760  28.097  0.3062  0.4110 -0.0228
60958W        W61822   5.784  16.072  17.533 -0.0793  0.1932 -0.4484
60959W        W61823  25.479  14.222  14.702 -0.2257  0.1501  0.0106
60960W        W61824  18.526   6.948  16.290  0.0616  0.0324  0.0371
60961W        W61825   1.205  13.178   9.402 -0.0817  0.0421  0.3158
60962W        W61826  24.069  15.170   6.356  0.2194 -0.4715 -0.1375
60963W        W61827   4.969   8.624   5.515  0.1365  0.0583  0.1013
60964W        W61828  10.044  20.609  25.544 -0.1910 -0.2128 -0.0033
60965W        W61829  25.409  24.807   3.295  0.1449 -0.1803  0.3841
60966W        W61830   7.523  27.995   4.483  0.1232  0.2603 -0.1984
60967W        W61831  20.948   4.581  15.497 -0.1789 -0.0391  0.1046
60968W        W61832   1.725  24.425   0.934 -0.2565  0.2070  0.2945
60969W        W61833  22.194   9.371  18.262  0.0249  0.0509  0.2379
60970W        W61834   2.910   8.304  19.223 -0.0054  0.0462  0.0531
60971W        W61835  25.277  27.846  14.334 -0.0898  0.1993  0.2098
60972W        W61836   8.585  13.144  20.858  0.0285  0.0686  0.5359
60973W        W61837  26.586  13.182   7.568 -0.1358 -0.0928  0.3251
60974W        W61838  15.468  26.786   8.771  0.1413 -0.2763 -0.1593
60975W        W61839   0.455  12.914  14.394  0.0268 -0.0744 -0.4741
60976W        W61840   1.676  12.744   7.446  0.0865  0.1374  0.1727
60977W        W61841   1.288  21.515  16.859 -0.0389  0.0288  0.2843
60978W        W61842   2.941  10.660  25.798  0.1207  0.2931  0.1654
60979W        W61843  25.740  25.039   9.642  0.3836  0.5437  0.2535
60980W        W61844   4.810   4.050   0.527 -0.0897  0.1008 -0.2748
60981W        W61845   8.132  13.197  12.204  0.1231 -0.2266  0.1910
60982W        W61846   9.244  12.700   7.246  0.1480 -0.3537 -0.0272
60983W        W61847  13.963  13.702   3.933 -0.1367  0.0148 -0.3340
60984W        W61848   3.364  13.060   8.123  0.0231 -0.1919 -0.0752
60985W        W61849  25.759  12.472   6.694  0.1093 -0.0425  0.0314
60986W        W61850   4.517  28.105  12.838 -0.0717  0.2745  0.2322
60987W        W61851  24.675  24.696  12.160  0.1028  0.1837 -0.2166
60988W        W61852   4.626  16.389   0.879  0.0048 -0.0897  0.2415
60989W        W61853   7.156  14.411   5.730 -0.0543  0.1338  0.2218
60990W        W61854  26.096   2.868  24.827 -0.2086 -0.2075 -0.1792
60991W        W61855  18.834  20.687   3.587 -0.2404  0.0270  0.0389
60992W        W61856   9.313  14.698  27.366  0.0335 -0.0555 -0.1073
60993W        W61857  14.355  28.365   2.032 -0.0811 -0.0107  0.0968
60994W        W61858  27.182   3.187  10.602 -0.1141  0.1130 -0.1350
60995W        W61859   2.388   0.150   2.664 -0.2374  0.2593  0.0007
60996W        W61860  21.952  27.409  26.374 -0.1421  0.0964  0.2268
60997W        W61861   9.273  22.769  26.159  0.0496 -0.0818  0.1059
60998W        W61862  23.922   7.934  15.226 -0.0305  0.1390  0.1190
60999W        W61863   3.355   7.183  20.166 -0.1264  0.3761 -0.2157
61000W        W61864  16.242  17.331  12.511 -0.0495 -0.2528  0.2249
61001W        W61865   5.046  12.004  16.909 -0.0271 -0.1220  0.1064
61002W        W61866  25.732   2.241   2.713 -0.2510 -0.2324  0.0827
61003W        W61867  13.282  27.066   7.998  0.0907 -0.0349 -0.1719
61004W        W61868   7.893  28.748   8.279  0.1551 -0.1986 -0.0128
61005W        W61869  15.991   4.150  13.311  0.1614  0.2803  0.2140
61006W        W61870   2.592  28.167  19.555  0.2298  0.0485 -0.1617
61007W        W61871   9.618   7.535  24.549 -0.1265  0.0410  0.0503
61008W        W61872  26.889   1.446  19.491  0.1182 -0.0802 -0.0253
61009W        W61873  10.448  13.809  11.627 -0.0867 -0.1483 -0.0051
61010W        W61874   2.765  26.509   0.486 -0.2066 -0.0782 -0.2031
61011W        W61875  15.272   6.813  18.355  0.1807 -0.1761  0.1901
61012W        W61876   6.192  12.956   3.419  0.3225 -0.2028  0.0712
61013W        W61877  22.375  24.183  26.834  0.2615 -0.1347  0.0844
61014W        W61878  15.992  27.898  15.433 -0.1167  0.0374  0.1108
61015W        W61879  18.215   2.460   9.672  0.3069 -0.2082 -0.0319
61016W        W61880  27.889  25.816  23.361  0.1729 -0.0513  0.1513
61017W        W61881   3.163  13.016   0.117  0.0685 -0.2166  0.0658
61018W        W61882  25.062  20.635  26.106  0.0847  0.2170 -0.0996
61019W        W61883  26.883  26.926   3.458  0.2240  0.0036 -0.1165
61020W        W61884  15.283  14.149   6.639  0.1889  0.1143  0.0341
61021W        W61885  21.667  25.760   3.689 -0.0493 -0.2372  0.0476
61022W        W61886   8.174  11.725  27.279 -0.0487  0.0101 -0.1384
61023W        W61887  18.226   6.787  27.286  0.0249  0.1838 -0.1392
61024W        W61888   2.007  28.984   4.028  0.0763 -0.0662  0.0479
61025W        W61889   1.941   1.380  17.788  0.1368 -0.1257  0.0651
61026W        W61890  11.502   4.763  27.477 -0.1957 -0.1780  0.0127
61027W        W61891  25.302  24.258  26.525  0.1601 -0.2943  0.0717
61028W        W61892  19.228  17.101  13.550  0.2825 -0.1000  0.1052
61029W        W61893  17.119   8.076  17.940  0.1078 -0.2780  0.1524
61030W        W61894  17.666  20.327  13.858 -0.0966  0.1316 -0.3052
61031W        W61895  23.440   7.536  28.622  0.0501 -0.2003  0.0535
61032W        W61896  14.092  17.075  13.955 -0.0519 -0.2576  0.1392
61033W        W61897   2.779   3.652  11.746 -0.2257  0.1592 -0.0427
61034W        W61898  27.760  15.508  27.073  0.0084  0.0914  0.0352
61035W        W61899  16.058  28.277  15.116  0.0846  0.1181 -0.3160
61036W        W61900  26.577  15.915  21.185  0.3887  0.0612 -0.3048
61037W        W61901   1.293  14.050  29.103  0.0986  0.1775  0.0015
61038W        W61902  12.456  16.779  17.362 -0.1678 -0.0720 -0.0545
61039W        W61903  26.200   6.911   4.199 -0.0822  0.1302  0.0079
61040W        W61904  19.815  14.052   4.233 -0.0496 -0.2396  0.1641
61041W        W61905   3.297   6.346  28.921 -0.1360 -0.1354 -0.0312
61042W        W61906  10.900  28.831   6.295  0.0986 -0.2236  0.1158
61043W        W61907  19.942  12.221  16.839  0.0638  0.0680 -0.0983
61044W        W61908  19.286  15.496   6.037  0.1065 -0.2786 -0.2129
61045W        W61909  13.831  20.262   8.440 -0.1045 -0.0314  0.1507
61046W        W61910  26.559   1.714  16.053 -0.0132 -0.3672  0.1906
61047W        W61911   2.336   9.541  10.125 -0.1244  0.2906 -0.0054
61048W        W61912  27.447   7.769  14.146 -0.1487 -0.0994 -0.2696
61049W        W61913  25.434  19.188   4.865 -0.2339  0.0626  0.2506
61050W        W61914  11.560  14.189  13.243 -0.1020 -0.1800 -0.2305
61051W        W61915  24.025   4.503   6.094  0.0249 -0.3391 -0.1140
61052W        W61916  18.925  11.639  28.496 -0.0069  0.3384  0.0898
61053W        W61917  12.803  13.623   6.825 -0.0313  0.0039  0.0577
61054W        W61918  26.572  28.427  14.502  0.1082 -0.4140  0.2681
61055W        W61919  17.814   6.233  12.787 -0.3406  0.0323 -0.0076
61056W        W61920  27.498   0.407   2.393  0.0073 -0.2145  0.1676
61057W        W61921  10.381  23.675   4.298  0.2279 -0.0106  0.3090
61058W        W61922   1.765   1.367   1.745 -0.4391  0.0391 -0.1604
61059W        W61923  24.763   5.251  21.241  0.1199  0.0436 -0.1896
61060W        W61924  28.848   5.851  21.597  0.1070 -0.1138  0.1607
61061W        W61925  25.964  16.803  15.799 -0.0317  0.1010  0.3174
61062W        W61926   1.111  19.577  28.366  0.1413 -0.0182  0.1056
61063W        W61927   8.162   3.638  15.335 -0.1646 -0.0976  0.0417
61064W        W61928  14.500   6.676   1.955 -0.3172  0.2342 -0.3163
61065W        W61929  12.565  17.232  16.145  0.0608  0.0077 -0.1127
61066W        W61930  25.657   5.349   5.017  0.2210 -0.1271 -0.1858
61067W        W61931   8.919   1.333  15.317  0.0595  0.0747  0.0708
61068W        W61932  22.493  15.541   6.903  0.0343  0.1353  0.3211
61069W        W61933  18.685  19.876  14.808 -0.0408  0.1535  0.0305
61070W        W61934  26.948  13.892  23.354 -0.0798 -0.0449 -0.1966
61071W        W61935   1.092  10.105  28.683  0.1911 -0.2016  0.1310
61072W        W61936  10.482   3.951  19.210  0.1783 -0.0067 -0.1606
61073W        W61937  18.670   6.000  27.025 -0.0466 -0.3401 -0.0893
61074W        W61938  16.441  13.913  15.596 -0.1727 -0.2591 -0.0777
61075W        W61939  26.087  14.691  10.344 -0.0782  0.1125 -0.0996
61076W        W61940  25.995  25.560  25.596 -0.2869  0.5832 -0.0514
61077W        W61941  11.695  12.697   6.740  0.1615  0.2870 -0.2029
61078W        W61942  27.268   1.095  27.056 -0.1522 -0.2545  0.0249
61079W        W61943  28.723   5.213   0.467  0.4111 -0.0941  0.1796
61080W        W61944  19.865   0.675   8.123  0.0853 -0.2690  0.2647
61081W        W61945  12.413  24.711   5.165  0.2366 -0.0951  0.2994
61082W        W61946  12.234   0.863  26.663  0.1368 -0.2216  0.0082
61083W        W61947   5.358  14.456   9.456  0.3688 -0.1010  0.0830
61084W        W61948  19.845  17.940   0.186  0.4335  0.4352  0.0579
61085W        W61949  18.574  17.070   8.253  0.0983  0.0805 -0.2390
61086W        W61950  26.099  23.647   9.224 -0.2303 -0.2023 -0.0544
61087W        W61951  25.467   8.509   8.699 -0.1765  0.1724  0.0453
61088W        W61952  10.682  21.261  13.252 -0.3517  0.0736  0.2215
61089W        W61953  19.514  11.006   0.608 -0.0083 -0.1291 -0.2796
61090W        W61954  10.656  11.423  17.082  0.3596 -0.2350 -0.0489
61091W        W61955  27.711  17.016   3.296 -0.2158  0.0343  0.2117
61092W        W61956   9.554   9.794   4.137  0.1966 -0.3545  0.1666
61093W        W61957  21.254  18.173  10.932 -0.3353  0.2658  0.0461
61094W        W61958  22.302   0.815   6.043 -0.0375  0.0065  0.0679
61095W        W61959   5.327  14.534  12.391  0.1137  0.0840  0.2332
61096W        W61960   6.340  12.311  17.336 -0.1908 -0.0025  0.2448
61097W        W61961  26.506   6.912  21.498 -0.1658 -0.1105 -0.3044
61098W        W61962  16.165   5.566  23.650 -0.0630  0.0291 -0.3206
61099W        W61963  24.995  27.784   8.262 -0.1476  0.2398  0.1367
61100W        W61964  18.366  15.855  11.967  0.2576 -0.0825  0.1383
61101W        W61965  12.177  14.878  18.508 -0.0073 -0.1567 -0.3259
61102W        W61966  21.899   7.577   7.754  0.0329 -0.1906 -0.0152
61103W        W61967  23.991  18.762   8.959  0.0785 -0.0049  0.0313
61104W        W61968   0.595  26.728  12.723  0.0661 -0.0452  0.0719
61105W        W61969  26.877   7.039  13.017  0.0389 -0.1452 -0.0564
61106W        W61970  19.294  14.112  27.906  0.1804  0.1039  0.1093
61107W        W61971  22.650   2.217   5.153 -0.0428  0.1715 -0.4954
61108W        W61972  18.707  24.029  12.250  0.0684 -0.0264  0.1822
61109W        W61973   0.993  16.248   8.522 -0.2419 -0.0179 -0.0374
61110W        W61974  14.528   7.274   8.031 -0.3482 -0.0437  0.0722
61111W        W61975  20.227  18.215   6.755 -0.1119 -0.0805 -0.2918
61112W        W61976   3.455   9.180   2.942 -0.1353 -0.1727  0.0762
61113W        W61977  24.041   4.116  26.517 -0.3030  0.2663  0.1520
61114W        W61978   3.612   1.339   8.679  0.0922 -0.2254 -0.1980
61115W        W61979   1.787   7.003  19.581  0.1902 -0.0925 -0.0784
61116W        W61980  27.304  13.637   1.164 -0.2628 -0.1313  0.1194
61117W        W61981  26.524  24.003   8.530 -0.1816 -0.0309  0.2864
61118W        W61982  15.208  26.700   5.369 -0.1855  0.0116  0.2172
61119W        W61983  21.463  28.165  26.963  0.3837  0.0652  0.0508
61120W        W61984   6.798   7.390   4.928  0.2436 -0.0088 -0.0959
61121W        W61985   7.516  11.231  15.657  0.3592  0.2690 -0.0892
61122W        W61986  22.355  23.019  25.948  0.0309  0.1474  0.1556
61123W        W61987  26.700  15.862  22.218  0.0354  0.0847  0.0666
61124W        W61988   0.448  22.546   5.548  0.0603  0.2142  0.1523
61125W        W61989   4.743  19.776  20.873 -0.2839  0.0832 -0.0148
61126W        W61990  19.029  21.373  25.877 -0.0260 -0.0497 -0.1122
61127W        W61991   0.294   5.018   4.340 -0.0836 -0.1109  0.0908
61128W        W61992   7.819   9.865  21.930  0.1343  0.3150  0.1652
61129W        W61993  14.934   0.300   4.590  0.0147  0.1785  0.2504
61130W        W61994  21.272  22.647   4.698 -0.0147 -0.0554  0.2053
61131W        W61995  25.574  26.012  13.702 -0.1634  0.2067 -0.2633
61132W        W61996  15.252   6.194  15.385 -0.0651  0.2115 -0.1677
61133W        W61997  28.883   6.132  12.660 -0.0111  0.0456 -0.2074
61134W        W61998   8.668   0.235  20.030 -0.3239  0.0617  0.1427
61135W        W61999   8.577  10.129  13.112 -0.0706  0.0949  0.1236
61136W        W62000   6.677  10.747  18.388  0.0119 -0.1723 -0.0603
61137W        W62001  17.108   0.287  16.834 -0.0779 -0.0599  0.0862
61138W        W62002  13.478  13.371  22.208  0.0618  0.0761  0.0207
61139W        W62003  12.467  24.357   6.749 -0.0154 -0.1999 -0.1915
61140W        W62004  18.564  25.603   5.203  0.2166  0.1781 -0.2072
61141W        W62005  12.557  28.703  15.274 -0.0315 -0.1600 -0.2567
61142W        W62006   9.490   4.939  16.200  0.1354  0.2546  0.2216
61143W        W62007  11.195  14.645  23.580 -0.0290 -0.0429  0.0108
61144W        W62008  19.740   7.826  25.110  0.1129  0.1668 -0.0892
61145W        W62009   8.581   6.037  19.863  0.1274 -0.3426  0.2354
61146W        W62010  19.351   6.286   7.316 -0.0780 -0.0647 -0.0612
61147W        W62011  19.077   8.080  13.145 -0.2277 -0.1590  0.6186
61148W        W62012  27.599  15.481  15.083 -0.4203  0.0018 -0.1087
61149W        W62013  19.435   2.239  27.140 -0.0089  0.0460  0.0023
61150W        W62014  25.536  28.692  14.353  0.0541  0.2208  0.3282
61151W        W62015  18.432  21.379   0.905  0.1248  0.3439  0.0091
61152W        W62016  25.621   1.933  15.669 -0.2061  0.1107 -0.1598
61153W        W62017  22.090  28.152  28.434 -0.0812  0.1259 -0.0467
61154W        W62018   5.634  25.177  15.584  0.0428 -0.1110 -0.1156
61155W        W62019  19.169   7.500  16.243  0.2748 -0.1173 -0.0401
61156W        W62020  15.372  10.594  23.734  0.0222  0.0652 -0.3604
61157W        W62021   6.929   9.194   1.269  0.1655 -0.0172  0.3644
61158W        W62022   3.151   8.055  27.948 -0.2745 -0.0384  0.0546
61159W        W62023   0.001  24.447  19.469 -0.0153  0.2142 -0.2167
61160W        W62024  11.912  22.594  26.965 -0.4356  0.0017  0.0302
61161W        W62025   2.927   4.619  16.900  0.3589 -0.3400 -0.0750
61162W        W62026  16.088   8.151  21.892 -0.1993 -0.0494  0.3036
61163W        W62027  14.606   1.287   5.855 -0.2420 -0.1607 -0.0014
61164W        W62028   6.498  10.805  20.778  0.0145  0.2640  0.2661
61165W        W62029   7.753  13.469  22.015  0.0415 -0.1541  0.3336
61166W        W62030   5.588   3.625  12.040  0.4263  0.0202  0.2022
61167W        W62031  21.538  20.928  16.562  0.3700  0.1504  0.2816
61168W        W62032  12.072  12.989  10.200 -0.0665  0.0056 -0.0180
61169W        W62033  27.243  13.611  11.313 -0.0831 -0.0426  0.2414
61170W        W62034  15.668   5.450  13.421  0.0322  0.0418  0.1857
61171W        W62035   4.213  17.457   3.373 -0.1191  0.1953  0.2701
61172W        W62036  24.617  23.359   8.072  0.1283 -0.0709  0.2725
61173W        W62037   4.043  22.301  14.411  0.0100  0.0303  0.0478
61174W        W62038  18.257  17.886  19.071 -0.1139  0.2159  0.2311
61175W        W62039  17.397  19.607  11.661  0.0008 -0.2776 -0.1293
61176W        W62040  11.754  16.405   8.142 -0.3746 -0.1937 -0.3631
61177W        W62041  14.803  13.996   6.983 -0.0914  0.1033  0.1935
61178W        W62042  22.154  11.163  10.118 -0.2223  0.0990 -0.2502
61179W        W62043  17.184  14.719   7.123 -0.0695 -0.0205  0.0896
61180W        W62044  22.210  23.749  13.675 -0.0446  0.2512 -0.3879
61181W        W62045  12.766   2.844  19.868  0.0109 -0.1447 -0.0805
61182W        W62046   3.212   0.105  16.323  0.0975  0.3115 -0.1104
61183W        W62047   9.388  17.052  10.365 -0.3483  0.0761 -0.3180
61184W        W62048  10.563  13.183  21.697  0.1640  0.0275  0.0217
61185W        W62049   4.481   3.454  14.114 -0.0517 -0.1070 -0.2625
61186W        W62050  23.228  13.892  25.006 -0.0828 -0.0784  0.1017
61187W        W62051  19.707  18.969   2.768 -0.2589 -0.2425  0.0432
61188W        W62052   8.913   5.856  15.788 -0.2380  0.0706  0.1097
61189W        W62053  19.385  16.589  11.037 -0.0267  0.1632  0.4198
61190W        W62054  26.345  12.907  27.728  0.0548  0.0382  0.4373
61191W        W62055  23.548  11.319  24.424  0.1155  0.1776  0.1770
61192W        W62056  28.660  20.660  11.883 -0.2509  0.2037 -0.1691
61193W        W62057  14.221   1.482   8.000 -0.1532 -0.1458 -0.2198
61194W        W62058  21.482  13.231  10.309  0.1291 -0.1767  0.0673
61195W        W62059   6.665  26.553   4.005 -0.1717 -0.1212  0.0542
61196W        W62060  26.490  26.063  10.758 -0.0061 -0.3028  0.0919
61197W        W62061  23.299   9.296  20.707  0.1485  0.1669 -0.1459
61198W        W62062   1.025  11.639  14.703  0.3645 -0.1809 -0.1081
61199W        W62063  23.012  13.885  11.853  0.1240 -0.0260 -0.0267
61200W        W62064  28.388   8.965   3.623  0.1573  0.0916 -0.2426
61201W        W62065  18.482  20.060  25.770 -0.0159  0.2039  0.0916
61202W        W62066   9.786  17.104   5.405 -0.0581  0.2695 -0.3877
61203W        W62067   2.527  15.094   2.267 -0.0607  0.1285 -0.0479
61204W        W62068   4.167   3.777  25.187 -0.1430 -0.0630  0.2319
61205W        W62069  28.715  28.804  21.071 -0.1284 -0.1581  0.0058
61206W        W62070  19.143  15.479  18.521  0.1020  0.1042 -0.1229
61207W        W62071  21.524  19.299   6.031  0.1595 -0.1467 -0.0200
61208W        W62072  18.329   5.442   3.381  0.0541  0.0021 -0.2431
61209W        W62073   0.768  12.694   9.391 -0.1707 -0.1657 -0.1044
61210W        W62074  21.132   8.638   2.606  0.0603  0.1179 -0.0661
61211W        W62075  20.860  27.483   9.268 -0.1712  0.0041  0.1890
61212W        W62076   2.073  25.970  24.566 -0.0456 -0.0627 -0.3362
61213W        W62077  28.403  22.528  28.677  0.0579  0.2787 -0.1568
61214W        W62078  24.346  27.422   4.105  0.2550 -0.1197 -0.0121
61215W        W62079  21.948  16.311   8.760 -0.0243 -0.3593 -0.2548
61216W        W62080  20.611   6.438  24.319  0.2011  0.1763  0.1502
61217W        W62081   7.303  26.112   3.575 -0.1398 -0.2244  0.0714
61218W        W62082  24.035  10.344  12.660  0.1548 -0.1066  0.1837
61219W        W62083   2.118  15.668  23.339 -0.3217  0.0978  0.2392
61220W        W62084  16.669  24.983  27.140 -0.3285  0.2630 -0.1265
61221W        W62085  22.522  25.542  11.650 -0.0259  0.1919  0.3775
61222W        W62086  16.153  24.000   3.180 -0.2047 -0.0213 -0.1620
61223W        W62087   2.057   7.568  28.652 -0.1142 -0.2822 -0.2641
61224W        W62088  18.488  21.018  18.963  0.0587  0.1272 -0.2464
61225W        W62089  24.610   7.810  16.980 -0.0628  0.2145  0.0488
61226W        W62090  19.705  21.982   4.542 -0.1472  0.0615  0.0380
61227W        W62091  23.440  28.908   2.065 -0.0850  0.0791 -0.3832
61228W        W62092  10.412   1.223  13.072  0.0747 -0.0160  0.0578
61229W        W62093  28.351   6.241  19.601 -0.0633  0.0023  0.0903
61230W        W62094   8.829  17.322  25.198  0.0972 -0.0028  0.3177
61231W        W62095  24.590   4.746   6.929 -0.2957  0.3981  0.0076
61232W        W62096  15.162  22.061   0.014  0.2567 -0.2724 -0.2219
61233W        W62097  23.146  12.102  17.893 -0.1059  0.0922 -0.0781
61234W        W62098  15.804  16.148  28.541 -0.0114  0.1922 -0.0313
61235W        W62099  15.424  18.159  19.096 -0.1544  0.0374  0.0142
61236W        W62100   0.500   2.552  22.063 -0.1722 -0.0739  0.2268
61237W        W62101  28.822  20.156  28.022  0.3533  0.0394  0.0581
61238W        W62102  27.512   9.445  20.715 -0.2259  0.2200 -0.2959
61239W        W62103   5.301   8.882   1.000  0.2023  0.0637 -0.1916
61240W        W62104  22.906   6.798  14.220 -0.0551 -0.0875  0.0672
61241W        W62105  16.385   3.022  10.381  0.2059  0.0231 -0.0674
61242W        W62106  29.097   5.500   6.626  0.0850 -0.0043 -0.5485
61243W        W62107  23.369  21.606  16.895  0.0293 -0.0791  0.0601
61244W        W62108   7.745  24.646  28.651  0.1658 -0.0820 -0.0428
61245W        W62109  25.151  19.050   7.147  0.2723  0.2005 -0.1467
61246W        W62110  27.581   0.750   4.614 -0.0131  0.3059  0.2245
61247W        W62111  25.961  14.678  16.540 -0.1527 -0.0619 -0.0046
61248W        W62112   0.151  25.007   0.060  0.2163 -0.0851 -0.2406
61249W        W62113  19.590   6.855  27.507  0.1124 -0.0056  0.0420
61250W        W62114   1.279   4.644   8.948  0.2643 -0.2276 -0.2939
61251W        W62115  16.587  11.379   3.879 -0.2011  0.2309 -0.1005
61252W        W62116  28.266  19.973   6.715  0.3374  0.2502 -0.0520
61253W        W62117  27.795  21.302  12.508 -0.1827 -0.1524 -0.0316
61254W        W62118  20.079  24.113   6.129 -0.2156  0.1714  0.0381
61255W        W62119   2.499   2.680   6.756 -0.0048 -0.3462  0.3390
61256W        W62120  26.076  10.200   0.119  0.0569 -0.2941  0.1890
61257W        W62121  18.414  10.494  12.703  0.1238  0.0958 -0.1238
61258W        W62122  28.869  28.611  16.036  0.0689  0.2153 -0.0260
61259W        W62123  28.940  22.734  14.863  0.0207  0.1289 -0.1347
61260W        W62124  25.501   3.132  21.175 -0.2535 -0.0860  0.1626
61261W        W62125   4.150   0.589  14.459  0.0975 -0.0385 -0.0461
61262W        W62126  25.936   8.562  20.903 -0.0271  0.2542  0.3566
61263W        W62127  17.045  26.126  27.457  0.0271  0.0839  0.5333
61264W        W62128  11.893   0.200   9.098 -0.1199 -0.1780  0.0991
61265W        W62129  21.286  14.233  26.941 -0.4303  0.0153 -0.2583
61266W        W62130  28.817  16.478  21.539 -0.1526  0.0598  0.0264
61267W        W62131   5.086   9.864   1.957 -0.0116  0.0408 -0.1887
61268W        W62132   5.172  17.188  19.735  0.0171  0.0299  0.1168
61269W        W62133   9.993  14.049  21.784  0.0866 -0.1726 -0.0645
61270W        W62134  14.817   5.632   3.739 -0.0681  0.1737 -0.0288
61271W        W62135   2.209   1.428  22.557  0.1900  0.0191 -0.3950
61272W        W62136   7.932   9.205   7.310  0.1701 -0.0459  0.1607
61273W        W62137  19.303   9.556   7.661  0.3035  0.0681 -0.3571
61274W        W62138  22.399  17.790  23.451  0.1566  0.1838  0.0375
61275W        W62139  28.870  25.386  14.307  0.1060 -0.0684 -0.2884
61276W        W62140  19.471  12.902  16.630 -0.1975  0.2238  0.1942
61277W        W62141  16.483  17.629   6.085  0.1983  0.0603  0.1098
61278W        W62142  28.968   6.742  23.268  0.1737  0.1478 -0.0391
61279W        W62143   7.553  18.820  13.687 -0.0108  0.0878  0.0139
61280W        W62144  19.731  10.239  27.297  0.2106  0.2859 -0.3399
61281W        W62145   2.630  13.109  16.966 -0.0975 -0.0317 -0.1358
61282W        W62146   6.377  26.234  11.651 -0.2420  0.0286  0.0918
61283W        W62147  27.756  28.853  16.919  0.2930 -0.0883  0.2290
61284W        W62148  20.146  21.827  11.884  0.1791  0.1583 -0.1483
61285W        W62149  11.423   6.654  10.341  0.0961 -0.1058  0.2247
61286W        W62150  15.244   7.089  18.780 -0.1176  0.1940  0.0497
61287W        W62151   1.963  28.418   0.673  0.2108 -0.0248  0.0525
61288W        W62152  28.202  18.424  13.694  0.0040 -0.0966 -0.0325
61289W        W62153  16.149  28.544   9.572 -0.3629  0.2216 -0.0931
61290W        W62154   8.287  12.868  15.660 -0.0173  0.1509  0.1578
61291W        W62155  19.591  23.649  19.018  0.0116  0.1259  0.0354
61292W        W62156  24.555  10.213  16.442 -0.4189 -0.0734  0.1602
61293W        W62157  14.251   8.287  26.971 -0.0782  0.1214  0.4345
61294W        W62158   4.858  13.622  11.325  0.1738 -0.2333 -0.1804
61295W        W62159  14.858  17.077  15.758 -0.0883  0.4346  0.0643
61296W        W62160  14.079  24.794   7.179 -0.0405  0.1452 -0.2668
61297W        W62161  22.656  15.872  11.985  0.0026 -0.0767  0.3101
61298W        W62162   8.201   5.638  18.319  0.1597 -0.0584  0.1005
61299W        W62163  23.743   5.771  15.208 -0.0073  0.0986 -0.1076
61300W        W62164  23.967  19.014  11.992 -0.3635 -0.4534  0.1143
61301W        W62165  22.478  24.751  24.069  0.2769  0.1608  0.2873
61302W        W62166   3.156  24.657  15.243  0.1108  0.0328 -0.0569
61303W        W62167  12.336  20.080   6.016  0.3861 -0.3067  0.1923
61304W        W62168  28.351  23.118  25.576  0.0655  0.3233 -0.4132
61305W        W62169  24.228  19.663  19.193  0.4340  0.3217  0.1125
61306W        W62170   0.325  19.694   7.787 -0.1863  0.0568  0.0745
61307W        W62171  15.755  19.072  13.954  0.1032 -0.3580  0.0371
61308W        W62172   4.756  14.769  20.736 -0.4090  0.0289  0.0102
61309W        W62173  19.935   4.377  25.137 -0.0885  0.1509  0.0320
61310W        W62174  20.203  19.251   9.347  0.1218 -0.0617  0.2654
61311W        W62175   8.300  11.711  16.406 -0.0296  0.1015 -0.2014
61312W        W62176  27.158   8.143  14.838 -0.1027  0.1471  0.0407
61313W        W62177  26.912   2.000  17.237  0.0836 -0.1906 -0.1425
61314W        W62178  27.299   8.336  10.654  0.0949  0.1287  0.1147
61315W        W62179  22.843   8.654   9.013  0.2251  0.2578  0.0556
61316W        W62180   3.160  28.910  10.201  0.1524  0.1443  0.1416
61317W        W62181  15.812   4.301   6.325  0.0607 -0.2722  0.0682
61318W        W62182  25.382  13.651  20.105  0.0555  0.1434 -0.0165
61319W        W62183  18.030   7.808  19.863 -0.2361  0.1469  0.0824
61320W        W62184  16.786   5.927  16.177  0.2412 -0.1474 -0.2883
61321W        W62185  11.934   9.909   8.924 -0.1000 -0.1458 -0.3844
61322W        W62186  27.090   6.013  14.049 -0.0081  0.0971 -0.4237
61323W        W62187  24.780  26.526  12.707 -0.1041  0.1600 -0.0177
61324W        W62188  20.800  18.523  12.456  0.0248 -0.0116  0.1425
61325W        W62189  10.755  16.131   0.816  0.0525  0.1064 -0.2774
61326W        W62190   7.678  16.502  23.128 -0.1557 -0.0703  0.0469
61327W        W62191   1.725  11.754  15.946 -0.1789 -0.0706  0.0475
61328W        W62192   3.283  24.321   5.894 -0.2478  0.1231 -0.3289
61329W        W62193  27.790  11.149  21.768  0.0445  0.3577 -0.1167
61330W        W62194   4.758   1.365  26.042  0.0221  0.0214  0.0490
61331W        W62195  13.276  16.775  22.344  0.2144 -0.1631 -0.2303
61332W        W62196  15.522   7.741   9.757 -0.1696  0.2557 -0.3340
61333W        W62197  20.494  12.996   6.202 -0.2228  0.0993 -0.2871
61334W        W62198   6.540   7.861   2.496 -0.3214  0.1623  0.1555
61335W        W62199  17.915  27.254  10.479  0.0361  0.0686 -0.1109
61336W        W62200   1.931  19.230   9.341  0.0529  0.2404  0.4410
61337W        W62201  10.802  27.736  25.208  0.1820 -0.0860  0.0827
61338W        W62202  26.413  16.849  14.853 -0.2958  0.1886 -0.0918
61339W        W62203  26.607  16.279  21.923  0.0824 -0.0616  0.0425
61340W        W62204   5.462   6.959  25.291  0.1610 -0.0803  0.0084
61341W        W62205  15.420  22.076  16.412  0.0647  0.0832 -0.2175
61342W        W62206   7.865   2.635  12.105  0.0346 -0.0383 -0.0992
61343W        W62207  27.853  20.631  18.566  0.0081  0.0112 -0.4157
61344W        W62208  24.698  10.789   1.250 -0.1584  0.0383 -0.1176
61345W        W62209   2.193  13.100  12.556 -0.4267  0.2094 -0.0112
61346W        W62210  13.430  28.002  11.184  0.1403  0.1438  0.0183
61347W        W62211  22.639   2.353  10.158 -0.2382 -0.0472  0.3004
61348W        W62212  19.957  10.310  10.830 -0.1265  0.1303  0.0635
61349W        W62213   0.542  18.107   6.939 -0.0349  0.1292 -0.2128
61350W        W62214  16.095  20.176  10.874  0.0138  0.0921 -0.0679
61351W        W62215   8.259  17.863  20.680  0.1942 -0.0377  0.0365
61352W        W62216  22.406   7.628  25.688 -0.1416 -0.1871 -0.0430
61353W        W62217  25.402   0.142   3.584 -0.1015  0.1936  0.0151
61354W        W62218  11.446  20.825  12.768  0.3971  0.2016 -0.0420
61355W        W62219   2.265  18.915   1.346  0.2837 -0.1665 -0.0910
61356W        W62220  27.316   1.614  27.658 -0.2086  0.1976 -0.0625
61357W        W62221  28.316  17.974   8.850 -0.2461  0.1552 -0.3822
61358W        W62222  11.694  11.508   2.349 -0.1321 -0.0867 -0.0322
61359W        W62223  27.335  13.272  12.694 -0.5114 -0.0524 -0.2307
61360W        W62224  18.772  17.572  21.066  0.1085  0.1818 -0.0145
61361W        W62225   7.157   5.635   1.870 -0.1047  0.0094 -0.0529
61362W        W62226  11.079   9.126  18.811  0.1584 -0.0603  0.2866
61363W        W62227  14.299  13.339  15.362  0.1529  0.2393 -0.1313
61364W        W62228  12.077  17.262  16.197  0.0539  0.3922  0.0822
61365W        W62229  28.305  19.546   9.020 -0.1833  0.0624  0.1368
61366W        W62230  17.826   8.919   6.356 -0.1701  0.0496  0.2839
61367W        W62231   1.460   4.558  27.888 -0.1255 -0.1414 -0.1221
61368W        W62232  26.676   9.062  28.752 -0.0719 -0.2868  0.0066
61369W        W62233  18.087   8.600  15.744  0.2592  0.0993 -0.0535
61370W        W62234   5.237  12.527   5.697  0.0040  0.0634 -0.2180
61371W        W62235   6.570  13.777   0.319 -0.0314  0.0255 -0.0613
61372W        W62236  19.939  18.415  12.201  0.0703 -0.0642  0.0615
61373W        W62237  26.427  10.257  11.255 -0.0623  0.1497 -0.0639
61374W        W62238  24.894  12.722   8.434 -0.0588 -0.0040 -0.2421
61375W        W62239  15.907  17.676   3.851  0.1524  0.1240 -0.0413
61376W        W62240   4.573   8.074   8.860  0.0268  0.2076 -0.0561
61377W        W62241   8.470   6.949   4.280  0.1827  0.0497  0.1579
61378W        W62242   9.423  23.836   4.727 -0.0979  0.1419 -0.1594
61379W        W62243  18.182   9.972  16.801 -0.1263  0.0050 -0.0918
61380W        W62244  26.640   8.002  13.725 -0.0723  0.1549 -0.2170
61381W        W62245  23.978   2.679   9.973  0.1294 -0.1038 -0.0409
61382W        W62246   8.821  24.804   5.603  0.1418  0.0017  0.2028
61383W        W62247   3.022  25.002  14.925 -0.2425  0.1476  0.0228
61384W        W62248  13.240  12.551  21.467  0.1487 -0.0820  0.2963
61385W        W62249  10.880   0.673  24.045  0.0230 -0.3017  0.0744
61386W        W62250   9.475  12.184  24.172  0.2964 -0.0732  0.2393
61387W        W62251   0.274   4.526   9.859  0.0860 -0.0880 -0.0421
61388W        W62252  26.289  13.227  16.900  0.3020 -0.2735  0.1992
61389W        W62253   9.272   7.926  26.941  0.0255 -0.1491  0.0750
61390W        W62254  16.769  16.991  14.401  0.0801  0.2769  0.1167
61391W        W62255  13.753  20.523  23.116  0.0673  0.0891  0.1319
61392W        W62256  19.199  11.620  22.265 -0.0872 -0.2736  0.0489
61393W        W62257   9.227  11.723  10.931 -0.0610  0.1653 -0.1141
61394W        W62258   4.023  25.108  20.040 -0.3213 -0.0136  0.1986
61395W        W62259   4.728  16.483   1.596 -0.1003 -0.2161 -0.1163
61396W        W62260   6.214   9.961  26.344 -0.0569  0.0959  0.1266
61397W        W62261  26.564  10.116  26.527  0.2517 -0.2431  0.0562
61398W        W62262  24.416   1.734  13.150 -0.2533 -0.0744 -0.2539
61399W        W62263  29.104  14.964  13.886  0.0011 -0.0566  0.0925
61400W        W62264  14.437  15.362  28.670  0.1431  0.0239  0.4591
61401W        W62265   1.816  15.459   6.415 -0.2762  0.0627 -0.3290
61402W        W62266  26.727  21.604   7.288 -0.1657 -0.2870 -0.0604
61403W        W62267  22.554   4.360  17.285 -0.2644 -0.2770 -0.1296
61404W        W62268  18.038  13.066  13.646 -0.2237  0.2720  0.1011
61405W        W62269  13.828  11.313  12.876 -0.0315  0.0151 -0.3533
61406W        W62270  28.112   4.499   6.606  0.0173 -0.0320  0.1248
61407W        W62271  19.282  14.979  15.844  0.1242  0.2245  0.0407
61408W        W62272  15.655   8.732   9.676  0.2930 -0.1704 -0.0406
61409W        W62273  12.883   4.798  12.931 -0.0825 -0.3507  0.1217
61410W        W62274  19.501  18.875  11.788  0.2701 -0.1524 -0.3125
61411W        W62275   0.476  21.818   0.611 -0.4188 -0.1557  0.2177
61412W        W62276  18.249   7.343  20.839  0.2269 -0.2777 -0.2308
61413W        W62277   1.980  18.656  13.246  0.1356  0.0386  0.0170
61414W        W62278   4.289   8.777  22.674 -0.0553 -0.1758 -0.2305
61415W        W62279  10.351  26.841  28.805  0.2130  0.0413  0.0779
61416W        W62280   4.236  15.696  22.194 -0.2690 -0.0860 -0.2641
61417W        W62281   6.537  15.954   6.291 -0.0326 -0.0448 -0.2525
61418W        W62282   6.712  16.933  22.462  0.0517 -0.0826 -0.0319
61419W        W62283   2.570   0.883   1.450  0.0521 -0.3066 -0.1310
61420W        W62284  14.987  10.625  18.965 -0.3253  0.1250 -0.0422
61421W        W62285  25.256  13.894   1.327  0.1745  0.0539 -0.0210
61422W        W62286  10.132  19.363  19.124 -0.0430 -0.1184  0.0529
61423W        W62287  15.451  24.189  10.922  0.1339 -0.0627  0.1317
61424W        W62288  10.868  16.271   5.856 -0.1060 -0.0405  0.1447
61425W        W62289   1.824  25.861  14.870 -0.1512 -0.1957  0.0515
61426W        W62290  18.185  24.401  23.466  0.0326 -0.1863 -0.2561
61427W        W62291  23.092   2.251   4.630 -0.0811  0.1970  0.0880
61428W        W62292   2.727  19.601  28.844 -0.0964 -0.3097 -0.0239
61429W        W62293  17.317  18.410  18.778 -0.1731 -0.0720 -0.3989
61430W        W62294  22.295  25.063  11.003  0.1657  0.0682 -0.0719
61431W        W62295  13.480  19.778  18.756  0.0715  0.2216  0.2425
61432W        W62296  26.288   5.548   7.725  0.3469  0.0192  0.3023
61433W        W62297   6.983   7.561  13.317 -0.1236  0.1173 -0.0390
61434W        W62298  12.592   4.116  10.950  0.6614 -0.2216  0.3012
61435W        W62299   7.700  27.988  16.603 -0.2064 -0.0325 -0.2103
61436W        W62300  22.057  29.074  20.945 -0.1233 -0.1831 -0.2501
61437W        W62301  28.053   6.685   4.042  0.1141 -0.0471 -0.1452
61438W        W62302  28.207  20.416   6.417  0.1204 -0.2058  0.0199
61439W        W62303  20.266   3.622   9.627  0.3157 -0.1476 -0.0095
61440W        W62304  24.369   7.075  20.419 -0.0126  0.0303  0.1048
61441W        W62305  22.112  15.905  19.236 -0.0595  0.0242  0.0650
61442W        W62306  26.487  25.566   0.505  0.0043 -0.1329  0.0774
61443W        W62307   7.424   2.557  16.104  0.1768 -0.1121  0.3455
61444W        W62308  27.491  17.162  12.088  0.1074 -0.0801  0.3218
61445W        W62309  15.751  26.234   7.255  0.0548 -0.2068  0.1615
61446W        W62310  27.575  27.465  21.122 -0.0604 -0.1875  0.1156
61447W        W62311  24.999   6.724  19.795  0.1006  0.3219 -0.0545
61448W        W62312   5.263  15.848  16.731  0.0033 -0.1235  0.2832
61449W        W62313  26.604  25.956  15.982  0.0170  0.1193  0.0652
61450W        W62314   7.253   5.490  27.926  0.0839 -0.1362 -0.0274
61451W        W62315  20.781  26.306  11.286  0.1804  0.0096 -0.0305
61452W        W62316   2.721   0.808  17.575  0.0820  0.1929  0.3612
61453W        W62317  21.490  18.546   6.573 -0.2269 -0.1907 -0.1423
61454W        W62318   5.815   7.023   2.837 -0.0653  0.2978 -0.4617
61455W        W62319   8.752   3.617  17.261 -0.0279  0.1019  0.1123
61456W        W62320  12.191   2.416  22.335  0.3334  0.1425  0.1817
61457W        W62321  21.468  27.576   7.465 -0.2071 -0.2027 -0.0261
61458W        W62322  27.334  22.507  27.808  0.0150 -0.1924  0.0104
61459W        W62323  26.299   0.868  16.016 -0.0031  0.1650  0.1377
61460W        W62324   0.192  10.824   6.287  0.0529 -0.3391 -0.0590
61461W        W62325   2.791   6.731  17.794  0.2468  0.0712 -0.2703
61462W        W62326  19.591   2.890   8.470 -0.2157  0.0162 -0.0129
61463W        W62327   5.684  26.183  14.370 -0.2229  0.2439  0.2524
61464W        W62328  18.803   5.337  24.958 -0.1877  0.0523  0.1342
61465W        W62329  22.060   3.794  18.516 -0.3182 -0.1172  0.1129
61466W        W62330  18.698  16.885  14.445  0.0732  0.1899  0.4110
61467W        W62331   2.224  18.094  12.569 -0.1306 -0.0151 -0.2893
61468W        W62332   4.000  21.084  17.487  0.1416  0.2162 -0.1930
61469W        W62333   3.841  18.520  26.176  0.0372  0.0683  0.0202
61470W        W62334  22.509   7.557   4.860 -0.2488  0.3417 -0.0576
61471W        W62335  23.619  19.910  14.529 -0.0325  0.0196  0.1187
61472W        W62336  15.507   7.473   3.093  0.1623  0.1871 -0.1236
61473W        W62337  13.914  22.883  14.062 -0.0963 -0.0103  0.1408
61474W        W62338  27.540  10.710  15.258 -0.4001 -0.1530  0.2589
61475W        W62339  26.901   8.640  11.770 -0.1626  0.3131 -0.1434
61476W        W62340  23.292  17.080   0.364  0.0966  0.1280 -0.0224
61477W        W62341  24.465  28.055  15.125  0.0470 -0.0676 -0.0337
61478W        W62342   5.103  18.430   0.705 -0.0912 -0.3634 -0.1545
61479W        W62343  25.887   7.003  11.580 -0.0724 -0.2618 -0.5404
61480W        W62344   6.841   7.015  19.854 -0.0938  0.0350  0.3179
61481W        W62345  21.463  27.660   5.480  0.1188 -0.0240 -0.0118
61482W        W62346  22.199  17.257   5.355  0.0653  0.0534 -0.1128
61483W        W62347   2.693   3.460  16.684 -0.2614 -0.0534 -0.3207
61484W        W62348  16.398  16.551  10.391 -0.2080  0.3238 -0.0354
61485W        W62349   5.485  21.890   3.459 -0.2150 -0.0627 -0.3119
61486W        W62350  17.040  14.343  16.093  0.1191  0.2051 -0.2013
61487W        W62351  22.077  27.344  16.253  0.3979 -0.3199 -0.3190
61488W        W62352  20.397   0.289  10.536  0.1691  0.1804  0.1162
61489W        W62353  22.046   0.386   3.408 -0.0612 -0.0623  0.2925
61490W        W62354   1.265  27.350   8.895 -0.3244 -0.1248 -0.2523
61491W        W62355   1.311   7.583   9.108 -0.1475  0.1044  0.2238
61492W        W62356  17.442  23.742  24.535 -0.0424  0.1276 -0.0184
61493W        W62357  23.205  18.939   6.876  0.0543 -0.2713  0.1631
61494W        W62358  25.006  13.562  16.851 -0.2091  0.0835 -0.0597
61495W        W62359  22.115   3.338   3.654 -0.0429  0.4182 -0.0425
61496W        W62360   7.090  25.167   5.155  0.0512  0.5496  0.2320
61497W        W62361   4.816  17.256   0.594  0.4758  0.1896  0.0364
61498W        W62362  24.659   7.839   1.688  0.1272 -0.0195 -0.2757
61499W        W62363  17.589  14.481  26.286 -0.0342 -0.0016 -0.0646
61500W        W62364  14.874   9.701   8.028  0.1644  0.1671  0.1629
61501W        W62365   1.911  17.084  18.181  0.1420  0.0835  0.4069
61502W        W62366  10.520  16.830  24.650 -0.1125 -0.1968 -0.2138
61503W        W62367  18.879   8.780  26.597  0.0157 -0.3553 -0.0881
61504W        W62368  19.433  16.028  20.493 -0.1587  0.1238 -0.2017
61505W        W62369  24.149  18.705   1.901 -0.2918 -0.1475  0.0444
61506W        W62370  12.392   4.133  19.163 -0.0030  0.4664  0.1595
61507W        W62371  23.511  14.382  15.809 -0.1187  0.1508  0.0991
61508W        W62372   0.645  13.227  26.248 -0.2241 -0.1120  0.1564
61509W        W62373   8.695  16.927   0.944  0.0385 -0.1597 -0.0683
61510W        W62374   6.346   0.749   8.301 -0.2158 -0.0854 -0.2315
61511W        W62375  24.699  21.928   0.082  0.1455 -0.1336 -0.1795
61512W        W62376   5.586   2.023  23.031 -0.7060 -0.3363 -0.1731
61513W        W62377  20.531   3.460  16.414 -0.1266  0.0040 -0.0139
61514W        W62378   0.978  26.191  22.511 -0.0962  0.1998 -0.3800
61515W        W62379  12.427   0.734  25.111  0.0895 -0.3806 -0.0660
61516W        W62380   8.930  21.576  22.344  0.1918  0.3100  0.2353
61517W        W62381  15.846   9.808  19.416  0.0842 -0.2919  0.2020
61518W        W62382   5.511  27.139   2.293 -0.1211  0.2427 -0.1916
61519W        W62383  18.912  13.119   6.107  0.0444 -0.1277 -0.2773
61520W        W62384  27.508   8.789  15.632  0.0600 -0.1626 -0.2512
61521W        W62385  11.514   9.875  21.502 -0.1913  0.2985  0.1035
61522W        W62386   8.193  27.399  12.720  0.0516  0.1375 -0.3047
61523W        W62387  13.168   8.734   0.532  0.0094 -0.1210  0.1800
61524W        W62388  27.103  19.523  14.126  0.1228  0.2713 -0.4925
61525W        W62389   7.961  16.531   4.352  0.1111 -0.2782 -0.2514
61526W        W62390  26.361   8.249  26.008 -0.2817  0.0693 -0.0760
61527W        W62391   4.194  18.248  26.426  0.2611 -0.2869 -0.2797
61528W        W62392  25.266  19.001  12.245 -0.1075  0.3267 -0.0317
61529W        W62393  11.326   9.986   7.821 -0.0020  0.1230 -0.0585
61530W        W62394   0.929  20.209  18.960  0.0664  0.0248  0.0079
61531W        W62395  28.961   1.418  24.016  0.3054  0.0967  0.2412
61532W        W62396   9.521  12.190   5.704  0.0234 -0.3957 -0.3344
61533W        W62397   3.158  25.233  20.828  0.0975 -0.0527  0.1019
61534W        W62398  18.990   3.859   8.342 -0.0858  0.3653 -0.0811
61535W        W62399  26.624   2.754  26.934  0.3160 -0.1135  0.1140
61536W        W62400  26.134  13.203  20.499  0.5820 -0.0808 -0.5585
61537W        W62401   8.420   2.742   9.610 -0.0829  0.2295 -0.0216
61538W        W62402   5.713  14.661  14.181  0.0187 -0.2760  0.2022
61539W        W62403  17.538  13.485  18.580 -0.3783  0.0869  0.0151
61540W        W62404  13.385  10.911  10.245  0.5025 -0.0997  0.1849
61541W        W62405  24.475   9.892  27.595  0.2420 -0.0734 -0.0994
61542W        W62406   7.855  21.744  16.443 -0.4100  0.0357 -0.0031
61543W        W62407   3.419   4.310   3.530  0.0772 -0.0887 -0.0413
61544W        W62408  17.900  13.660   7.850 -0.0395 -0.1827 -0.1022
61545W        W62409  16.300   6.872  27.046 -0.2225  0.1599  0.0709
61546W        W62410  15.019  28.117  16.370  0.0886  0.2072  0.1714
61547W        W62411  14.199  13.923  22.135  0.2885 -0.0638  0.1133
61548W        W62412  17.196  13.796  21.899  0.3292  0.1831 -0.0469
61549W        W62413   0.598   3.078  12.474  0.0618 -0.1751 -0.0142
61550W        W62414  24.021   4.955  24.994  0.1097 -0.1187 -0.1769
61551W        W62415   9.817  19.315  23.293  0.1605 -0.1062 -0.0563
61552W        W62416   5.394   0.144   7.966 -0.3678 -0.0549  0.1835
61553W        W62417   6.992   5.935   5.026  0.1174  0.0810 -0.0149
61554W        W62418  10.942  11.985  11.607  0.2829 -0.0091  0.3866
61555W        W62419   7.274  13.548   2.175  0.1736 -0.0685 -0.0064
61556W        W62420  28.630   0.738  24.302 -0.1060  0.0470 -0.0703
61557W        W62421   1.516  28.291  28.011 -0.1386  0.1220 -0.1858
61558W        W62422   2.629  27.073   4.214 -0.1430  0.3762  0.2515
61559W        W62423  13.146  18.626  17.419 -0.2885  0.0032  0.2232
61560W        W62424   1.540  14.053   4.380  0.0392  0.2368 -0.2704
61561W        W62425  24.297  25.642  23.477  0.0684 -0.0358  0.0703
61562W        W62426  23.712   7.928   6.418 -0.0818 -0.1207  0.0263
61563W        W62427  28.998   5.077   6.297  0.0691  0.0190  0.1048
61564W        W62428  26.227   8.359  13.466 -0.1526 -0.1880 -0.0055
61565W        W62429  28.338  21.484   0.275  0.2396  0.0651 -0.2779
61566W        W62430  22.338  23.083  14.475 -0.2988  0.1433  0.3131
61567W        W62431  25.034   0.007   5.302 -0.1409  0.1377  0.1564
61568W        W62432  28.882  16.843  14.456 -0.3748  0.4273 -0.0205
61569W        W62433   2.528  21.433   8.109 -0.0849 -0.0447 -0.2381
61570W        W62434  23.501  21.660  12.961 -0.2271  0.1486 -0.1185
61571W        W62435   6.459  11.714   8.270 -0.4392 -0.2699  0.2759
61572W        W62436  25.602   1.601  18.602 -0.1802  0.0864 -0.0662
61573W        W62437  18.691  12.319  27.123  0.2924  0.0632 -0.1648
61574W        W62438  17.703  23.546   3.948  0.2138 -0.0786  0.1170
61575W        W62439  24.485  12.020   7.068 -0.1785 -0.0822 -0.1651
61576W        W62440  17.376   5.574  19.631  0.1581  0.4035 -0.4276
61577W        W62441  14.150  13.292  29.024 -0.0195  0.1007 -0.2687
61578W        W62442   1.983  18.185  17.633  0.0204 -0.1676  0.0402
61579W        W62443   2.151  27.022  26.988  0.1213 -0.1332 -0.1854
61580W        W62444  27.932   6.017   2.014  0.1443  0.0742  0.2132
61581W        W62445  23.175   2.405  15.388  0.0472  0.0540 -0.2460
61582W        W62446  22.138  12.551  15.555  0.2507 -0.1586  0.1454
61583W        W62447   3.071  11.389  12.018  0.1329 -0.0111  0.0604
61584W        W62448  14.784  18.313  16.294 -0.1817  0.2562 -0.0202
61585W        W62449  17.493  19.552  22.146  0.0912  0.0716 -0.1368
61586W        W62450   6.826  17.464  15.124 -0.2439 -0.1953 -0.1136
61587W        W62451  14.686  12.406  18.888  0.1565 -0.0868 -0.0846
61588W        W62452  25.318  19.088  15.511 -0.0826 -0.0813 -0.0767
61589W        W62453  20.530  25.145   4.352  0.0595 -0.1033  0.4359
61590W        W62454  20.391   1.339   1.381 -0.1408 -0.0176  0.0325
61591W        W62455  17.209  15.486  24.953  0.0034 -0.1598  0.1950
61592W        W62456  18.592   8.263  24.882  0.1621  0.0181 -0.2997
61593W        W62457  22.664   8.567  13.241 -0.3305  0.0288 -0.1673
61594W        W62458  18.598  15.465   4.063  0.0675  0.0128  0.0973
61595W        W62459   5.042   7.086  25.540 -0.1552  0.1795 -0.0835
61596W        W62460  22.730   9.756  19.606  0.3649 -0.1319  0.0106
61597W        W62461  24.167   1.349  15.750 -0.1184 -0.2328 -0.1880
61598W        W62462   0.635  12.168  14.839  0.1356  0.1303  0.0808
61599W        W62463  23.476  17.110   3.562  0.0518 -0.0295 -0.0683
61600W        W62464   0.257   0.749   0.185 -0.2501  0.0007  0.3717
61601W        W62465  24.298   9.822   9.718 -0.1073  0.1168  0.0739
61602W        W62466  20.023   7.048  11.625 -0.2859  0.2667 -0.1594
61603W        W62467  24.900  16.928   3.747 -0.2273  0.0746 -0.0434
61604W        W62468  25.073  19.421  27.548  0.0996  0.0982 -0.0824
61605W        W62469  19.427   0.230  18.341 -0.0660 -0.1155  0.1824
61606W        W62470   3.461  10.201   3.893  0.0578 -0.0264  0.1625
61607W        W62471  20.952   6.607  19.060  0.4062  0.0172  0.1540
61608W        W62472  21.273   0.449  13.540  0.1228  0.0107  0.2527
61609W        W62473  26.731  21.374  27.556 -0.2248  0.0216  0.4204
61610W        W62474  25.907  10.900  12.333 -0.0605 -0.1408  0.1425
61611W        W62475  14.166  10.173   3.071  0.1894 -0.3828  0.0558
61612W        W62476   4.949  28.644  16.483  0.1763  0.0196 -0.0145
61613W        W62477  19.733  10.592  28.851  0.0801  0.1795  0.2423
61614W        W62478  21.606  20.270  22.115  0.2316 -0.1819  0.2324
61615W        W62479  18.520  11.155  26.007 -0.3282  0.3971  0.1588
61616W        W62480   4.148  22.498  15.842  0.0278 -0.2542 -0.5267
61617W        W62481  21.730   2.994  20.913 -0.2624  0.0553 -0.3077
61618W        W62482  21.707   6.505  15.974 -0.0857  0.0942 -0.0037
61619W        W62483   0.882  28.831   7.145  0.0265  0.0898  0.0966
61620W        W62484   4.508   2.370   7.171  0.3240  0.2172  0.0597
61621W        W62485  24.790   7.775  12.089 -0.2184 -0.2911  0.1950
61622W        W62486   3.258   0.399   2.961  0.0020 -0.1068  0.0413
61623W        W62487   3.289  11.713  17.625  0.0006 -0.0896 -0.1119
61624W        W62488  10.740  24.344  15.074 -0.0042  0.0643  0.0493
61625W        W62489  10.853   8.433   6.530  0.0426  0.1239  0.3027
61626W        W62490  23.914   3.065   3.306  0.2485  0.1379 -0.0207
61627W        W62491  25.357   7.232   0.476 -0.2529 -0.0973 -0.2545
61628W        W62492  20.306  24.900   2.447 -0.1459 -0.0148  0.2123
61629W        W62493  19.299   0.231  29.004 -0.1519 -0.2994 -0.3976
61630W        W62494   7.448  25.518   4.337  0.0176  0.0950  0.3341
61631W        W62495  26.697   2.156  22.175 -0.0319  0.1375 -0.1266
61632W        W62496  12.044   9.158  23.094  0.1856 -0.2356  0.0844
61633W        W62497  21.649   9.599  21.597 -0.1202  0.1392 -0.3265
61634W        W62498   2.725   1.380   8.695 -0.0729 -0.0207 -0.0592
61635W        W62499  26.047  11.725   5.409  0.0048 -0.1527  0.0779
61636W        W62500   7.756   4.452   2.423 -0.5184 -0.0834 -0.0543
61637W        W62501  15.878   4.071  24.902 -0.1871 -0.1596  0.0457
61638W        W62502  24.479   4.993   6.551 -0.0197 -0.1006 -0.0173
61639W        W62503  24.426   3.911  19.864 -0.3985 -0.0081 -0.0729
61640W        W62504  22.851  23.204  22.972  0.0656 -0.1874  0.2368
61641W        W62505   6.182  21.470  25.333 -0.4400 -0.1269 -0.1397
61642W        W62506  28.663  20.686  27.324  0.2406  0.1738 -0.0889
61643W        W62507  12.602  15.439   9.468 -0.0789 -0.3107  0.1068
61644W        W62508  17.156  27.460  17.127  0.0469 -0.0553  0.0961
61645W        W62509  14.447  16.623   3.337 -0.1034 -0.1662 -0.3058
61646W        W62510  28.454  20.457  22.287 -0.3307 -0.1445 -0.0477
61647W        W62511  22.769  17.765   2.195 -0.0159  0.0682 -0.0315
61648W        W62512  22.574  29.023   0.599 -0.0935  0.0412  0.1692
61649W        W62513   9.434  18.293  14.460 -0.0936 -0.0683  0.2260
61650W        W62514  28.520  20.331   0.555  0.1873 -0.0117 -0.2224
61651W        W62515   9.516  25.612  13.781 -0.0607 -0.1567 -0.0833
61652W        W62516   9.540  16.165   4.557 -0.0055  0.3219  0.2026
61653W        W62517  13.618  20.997  17.237  0.0818 -0.0720  0.0847
61654W        W62518   1.584   3.550  12.935  0.1819 -0.0321  0.1068
61655W        W62519   1.898   2.556   2.550  0.3075 -0.0625  0.0193
61656W        W62520  26.334  17.640  11.648  0.0215  0.0126  0.0962
61657W        W62521  26.836   0.841  26.547 -0.1312 -0.0263 -0.3227
61658W        W62522  11.863  17.672  16.019 -0.2488 -0.0208  0.3427
61659W        W62523   5.214   0.690   1.391 -0.0790 -0.0865 -0.1264
61660W        W62524  25.590  11.993  20.913 -0.1141 -0.0863  0.1044
61661W        W62525  23.944  15.621  11.504  0.1891 -0.0111  0.2161
61662W        W62526  16.887  17.470  16.115 -0.1099 -0.0588 -0.0965
61663W        W62527  26.644   7.047  15.877  0.1465  0.0983 -0.0621
61664W        W62528  22.532  25.158  16.991 -0.1194  0.2621 -0.0215
61665W        W62529  11.345  17.141   2.279 -0.0301 -0.1438 -0.0351
61666W        W62530  26.207   8.545  15.265  0.1004  0.1720  0.0263
61667W        W62531  21.548  12.825  16.266  0.0094 -0.0523  0.2048
61668W        W62532  10.048   4.082  13.861  0.0282  0.1782  0.0528
61669W        W62533  20.488  21.500  27.545 -0.1158  0.1274 -0.1225
61670W        W62534  16.464   0.282  18.804 -0.1557  0.1937 -0.0216
61671W        W62535   9.379  13.575  19.081 -0.0456 -0.0465  0.1385
61672W        W62536   3.391   3.740   4.090 -0.0660 -0.0723  0.0980
61673W        W62537   0.365   8.710  25.607  0.1833  0.1586 -0.2283
61674W        W62538  28.525  11.506  27.158 -0.0603 -0.1429  0.2757
61675W        W62539  20.171   1.786  13.984 -0.1462  0.3154  0.0642
61676W        W62540   2.891  12.182  22.312 -0.0796 -0.2478 -0.0324
61677W        W62541   0.189   1.224   4.628 -0.0179  0.4846  0.3857
61678W        W62542  26.510  23.390  26.895  0.0986 -0.2533  0.2381
61679W        W62543  24.671  17.122   9.785  0.2844 -0.2339  0.0450
61680W        W62544  20.043  10.574  21.682  0.2088  0.0240 -0.0630
61681W        W62545  24.277  26.089  27.360 -0.1975 -0.2124 -0.1095
61682W        W62546  24.162  11.846  14.922  0.0024  0.0407 -0.0650
61683W        W62547   9.306   9.741   8.271 -0.0709 -0.0541  0.0024
61684W        W62548  19.527  10.458   3.511  0.1141  0.1718  0.2703
61685W        W62549  20.661   9.478  27.945  0.1947  0.0878  0.0838
61686W        W62550   2.176  16.843  18.752  0.2138  0.2176 -0.1174
61687W        W62551  14.227  22.684  13.604 -0.0472 -0.0528  0.0413
61688W        W62552   8.836  21.502  18.161  0.3656 -0.5924 -0.0777
61689W        W62553  22.427   6.488   7.106 -0.1094 -0.0156  0.1284
61690W        W62554  28.219  15.055  21.019 -0.1260  0.0074 -0.1918
61691W        W62555   2.043  18.170  26.991 -0.0194 -0.2803 -0.1487
61692W        W62556  22.239  16.823  12.640  0.2657 -0.0557 -0.2318
61693W        W62557   6.761   7.056  27.380  0.2504  0.0131 -0.2150
61694W        W62558  24.617   7.278  11.971 -0.1307 -0.3929  0.1135
61695W        W62559  28.278  25.141   2.655 -0.1088  0.0489  0.1116
61696W        W62560  22.749  13.513  25.725  0.0256 -0.5706  0.0479
61697W        W62561  13.521  19.292  27.594  0.1742  0.0160  0.1382
61698W        W62562  21.202  12.775  25.422  0.0908 -0.1282  0.1484
61699W        W62563   5.355  21.395   2.319 -0.2811  0.0039 -0.0075
61700W        W62564  14.366  11.419   3.410 -0.1816 -0.1086 -0.4543
61701W        W62565   8.533  11.845  25.241 -0.0504  0.0035  0.1455
61702W        W62566   2.637  27.189  10.265 -0.0958 -0.0127 -0.1555
61703W        W62567   5.398  17.571  16.932  0.1383  0.2650  0.0871
61704W        W62568   1.933  22.158   0.626 -0.1155 -0.0965  0.1116
61705W        W62569   2.142  12.160  24.182 -0.0066 -0.0496 -0.1057
61706W        W62570  25.805  21.805   4.323  0.0111  0.1567  0.0285
61707W        W62571   5.353   2.718  12.791 -0.2353  0.0085  0.4135
61708W        W62572   1.248   3.588   0.228 -0.1652 -0.1113 -0.1322
61709W        W62573   0.741   7.706  26.840  0.4043 -0.1259 -0.1960
61710W        W62574  16.678  26.959  20.670  0.0520 -0.3162  0.3452
61711W        W62575  22.047  28.155  29.048 -0.0174  0.2655  0.1476
61712W        W62576  18.061   7.771   9.345  0.0640 -0.1922  0.3989
61713W        W62577   8.957  10.775  12.417 -0.1018 -0.1988  0.0213
61714W        W62578  24.911  21.083   6.565 -0.2443 -0.0305 -0.1996
61715W        W62579  26.685  11.195  12.208  0.2706 -0.0245  0.2422
61716W        W62580  17.499  20.132   9.581  0.3222 -0.0040  0.0439
61717W        W62581   6.121  14.891  13.806  0.4989 -0.2425 -0.0640
61718W        W62582   1.534  14.617   8.672  0.0760  0.0031  0.4381
61719W        W62583  14.170   1.309  18.267 -0.1938  0.1337  0.0787
61720W        W62584   3.922  18.116  10.006  0.3826  0.0629  0.1522
61721W        W62585  27.133   2.433  17.960  0.0109  0.0682  0.3259
61722W        W62586   5.429   3.297   0.666 -0.2253  0.1231  0.0684
61723W        W62587  18.759   2.440   9.072 -0.2655 -0.0843 -0.0711
61724W        W62588  16.518   1.836  22.344 -0.2258 -0.1711  0.1719
61725W        W62589  11.752  13.299  15.079  0.1336 -0.1435  0.0943
61726W        W62590  19.660  11.227  23.580  0.1473  0.1154  0.2585
61727W        W62591   9.180   9.322  20.058 -0.1679 -0.0587 -0.0906
61728W        W62592  14.872   3.143  15.235 -0.0360 -0.3085  0.1441
61729W        W62593  21.681  24.176   7.022 -0.2172 -0.0880 -0.0014
61730W        W62594  15.737  13.892  10.948  0.0404  0.0716  0.2229
61731W        W62595  11.398  26.099   5.348 -0.1165  0.0023  0.0347
61732W        W62596  23.484   3.209  14.765 -0.0693 -0.1048 -0.1217
61733W        W62597  10.669  17.834  25.504  0.0965 -0.2262 -0.3779
61734W        W62598   7.599  13.708   0.770 -0.2084  0.0318  0.2555
61735W        W62599   9.627   5.070  27.960  0.0528  0.3272 -0.3051
61736W        W62600   8.031   5.237  13.816  0.1399 -0.1058 -0.0002
61737W        W62601  11.459  25.151   0.491  0.0232  0.1670  0.0108
61738W        W62602  22.093  27.756  22.003 -0.3712  0.0504 -0.1813
61739W        W62603  17.803  15.815  23.338  0.0689 -0.1489  0.0207
61740W        W62604  23.900   0.355  18.300 -0.2346 -0.0104 -0.2874
61741W        W62605  18.195  23.504   9.835  0.0851 -0.5571 -0.3800
61742W        W62606  23.204  10.968  24.151 -0.0167 -0.4217 -0.1119
61743W        W62607  20.237  23.006  18.909  0.1325 -0.0896  0.1579
61744W        W62608  22.332  26.933   9.311  0.0502 -0.0303  0.1615
61745W        W62609  16.599   1.753  15.224  0.3527  0.0471  0.2695
61746W        W62610   9.772  11.550  25.373  0.4219 -0.1596 -0.2956
61747W        W62611  22.382  23.971  13.033  0.1591 -0.4015  0.2268
61748W        W62612  11.760   9.833  14.336  0.1497  0.1097 -0.0706
61749W        W62613  25.512   6.878   4.533  0.0937 -0.0804  0.1327
61750W        W62614   8.952  27.112   1.991  0.1268  0.2683 -0.2312
61751W        W62615  17.209  17.966  19.586  0.0388 -0.0773  0.1309
61752W        W62616   0.197  18.972   3.601 -0.1290 -0.0753  0.1095
61753W        W62617  11.889  15.046   7.681  0.0867  0.0704  0.1502
61754W        W62618  19.734  17.621  18.501  0.1787 -0.0328  0.1540
61755W        W62619  11.918  21.981   1.411  0.1349 -0.0143  0.3701
61756W        W62620  19.809   4.692   7.879 -0.0160 -0.2264  0.1174
61757W        W62621  13.315   5.978  20.502  0.0803  0.1353 -0.2777
61758W        W62622  14.472  21.318  20.007 -0.2314 -0.0042  0.2782
61759W        W62623  26.786   5.061   5.853 -0.0837 -0.1190  0.3686
61760W        W62624  24.512  11.484  26.685  0.2682 -0.0192 -0.1292
61761W        W62625  15.964  12.800  21.021  0.3258  0.0186 -0.2238
61762W        W62626  24.345  20.123  20.525  0.0044 -0.3313  0.2737
61763W        W62627  23.962  25.575  19.580 -0.0301 -0.4080  0.1694
61764W        W62628  21.128  15.054  14.111 -0.0178 -0.2524  0.1608
61765W        W62629  15.887  24.677  12.209  0.1813 -0.1489 -0.1741
61766W        W62630   2.280   8.044  13.612 -0.0625  0.2291  0.0299
61767W        W62631  26.738  18.379   8.428  0.2070  0.0235 -0.3296
61768W        W62632  22.145   6.972  24.934  0.0543  0.0169 -0.3077
61769W        W62633  26.528   0.616  28.883  0.0783 -0.0066  0.0501
61770W        W62634  19.955  16.700  11.451  0.2457 -0.1090 -0.0671
61771W        W62635   3.323   4.540  12.051 -0.2842 -0.0478  0.0679
61772W        W62636  27.172  20.694  28.694  0.0237  0.2332  0.1034
61773W        W62637   1.114  26.201   6.162 -0.2693 -0.1876  0.1421
61774W        W62638  23.630  16.331  12.623  0.3059 -0.0296  0.0555
61775W        W62639  28.898  28.229  25.553 -0.0398  0.1600  0.0239
61776W        W62640  24.660  12.012  23.332  0.0295  0.2242 -0.2886
61777W        W62641  11.796  19.966  11.347 -0.1225 -0.1611 -0.1211
61778W        W62642  17.061  26.523  21.964  0.1066 -0.0782 -0.1361
61779W        W62643   8.029   7.955  15.640 -0.1388  0.0606 -0.2365
61780W        W62644  15.403  25.719  18.403 -0.2965 -0.0071 -0.0214
61781W        W62645  20.436   7.175  10.322 -0.4856  0.2237 -0.2072
61782W        W62646  21.088   3.245  25.867 -0.3049 -0.0214  0.0655
61783W        W62647  16.867   7.588  17.242 -0.1838  0.1791  0.2969
61784W        W62648   3.028   2.939   9.969  0.3274 -0.0864  0.1771
61785W        W62649  24.151   1.257  17.102 -0.0510  0.2868 -0.2169
61786W        W62650  10.990   6.466  15.125 -0.1056  0.4156  0.3221
61787W        W62651  12.763   2.116  11.342 -0.1300  0.0439  0.0376
61788W        W62652  14.801   4.242  13.871  0.0762 -0.0411 -0.1176
61789W        W62653  23.859   9.507  12.082  0.2813 -0.1390  0.2267
61790W        W62654  17.852  23.820   7.438  0.2702  0.1586  0.0423
61791W        W62655  24.340   6.973   3.563  0.2144 -0.1305 -0.3641
61792W        W62656   0.171  22.446  10.919  0.1174 -0.0305  0.1471
61793W        W62657  12.376  27.752  12.341 -0.1359  0.0711 -0.1238
61794W        W62658  17.790  11.030   6.686 -0.0247 -0.0476  0.0461
61795W        W62659  24.457  22.418  14.940 -0.2583  0.2629 -0.1213
61796W        W62660  10.122   0.317   5.199 -0.2416  0.0246 -0.2029
61797W        W62661  18.027   6.591  19.772  0.1211 -0.0813  0.1995
61798W        W62662   9.915   3.361  16.628  0.0043 -0.1194  0.0550
61799W        W62663  11.710   3.743  27.645  0.1713 -0.1519 -0.2105
61800W        W62664  28.120   9.109  12.940 -0.0248  0.0186 -0.0763
61801W        W62665  15.438  20.424  22.593 -0.0614  0.3219 -0.1373
61802W        W62666   2.442  20.454   2.471 -0.2947 -0.2224 -0.1559
61803W        W62667   2.834  10.183  25.778  0.0160 -0.1417 -0.1696
61804W        W62668  16.332   8.873   2.851 -0.0990  0.0863  0.0018
61805W        W62669  24.540  14.516  21.939 -0.2008  0.0120  0.0860
61806W        W62670  13.682  11.557  17.013  0.3475  0.2543  0.0045
61807W        W62671  12.008  19.857  27.248  0.0652 -0.1199 -0.0860
61808W        W62672  25.817  13.476   8.272 -0.1573  0.0330 -0.1463
61809W        W62673   6.283  12.084  20.824 -0.0869  0.3316  0.2718
61810W        W62674  28.104   8.640   5.528 -0.1649 -0.1550 -0.0461
61811W        W62675  27.152   0.841  28.108  0.0333 -0.1269  0.6802
61812W        W62676  27.084  19.802  21.007 -0.3125 -0.3791 -0.2583
61813W        W62677  15.150   3.632  24.899 -0.2107 -0.1382  0.2452
61814W        W62678  18.128  16.700  22.585  0.2925  0.0016 -0.2736
61815W        W62679  23.783  11.580  27.212 -0.2189 -0.2204 -0.0710
61816W        W62680  17.194  21.565  12.036 -0.0818 -0.0225  0.2499
61817W        W62681   4.044  15.192  21.838 -0.7182 -0.1043 -0.0886
61818W        W62682   4.172  22.832  19.582 -0.1930 -0.0635 -0.1082
61819W        W62683  23.427  27.320  16.163 -0.1685  0.0238 -0.0970
61820W        W62684  26.413  17.321   0.331 -0.0171  0.3411  0.0611
61821W        W62685  17.469  26.711   1.281  0.1519 -0.2263  0.5414
61822W        W62686  10.393   2.675  14.997 -0.0226 -0.0156 -0.1571
61823W        W62687  21.761  12.175  20.711 -0.0415 -0.0202  0.1526
61824W        W62688  24.156  18.178  23.279 -0.0118  0.0841 -0.1510
61825W        W62689   2.333  21.886  28.509  0.1054  0.1130 -0.0507
61826W        W62690  25.179  12.183   9.132 -0.2042  0.3248 -0.3782
61827W        W62691   6.942   9.597  22.680 -0.0176  0.2199  0.1331
61828W        W62692  21.892   9.242   7.974 -0.0129 -0.1730 -0.1074
61829W        W62693  18.798   1.646  26.629  0.1814  0.0728 -0.3700
61830W        W62694  12.667   1.667  10.975 -0.2485  0.2425 -0.0950
61831W        W62695   6.889  25.891  18.315 -0.0398  0.0705 -0.0368
61832W        W62696  18.713   7.272  13.567 -0.0340  0.2189  0.0479
61833W        W62697   4.264  19.836  21.380 -0.2577  0.0885 -0.0887
61834W        W62698  17.853   5.926  15.192  0.2063  0.1569 -0.3774
61835W        W62699   1.119   5.256  20.754  0.1321 -0.1753  0.0558
61836W        W62700  19.547   6.958  13.999 -0.2724 -0.1453 -0.0894
61837W        W62701   7.115   5.991  13.859  0.3243 -0.2923 -0.0742
61838W        W62702  28.689   2.489  14.651 -0.3635 -0.0374  0.3605
61839W        W62703  22.695   4.297  15.913 -0.2332  0.0858 -0.2811
61840W        W62704  19.791   0.453   6.096  0.1674  0.1931  0.0281
61841W        W62705  16.803  22.581  25.391  0.3275 -0.3410  0.0003
61842W        W62706   4.725  27.760  27.556  0.0604  0.0291 -0.2616
61843W        W62707  19.819  12.532  18.685  0.2309  0.1235  0.3450
61844W        W62708   4.597  27.110  13.392  0.1073  0.0504 -0.1374
61845W        W62709  22.497   7.826  22.782 -0.2795 -0.0725  0.2773
61846W        W62710  28.389  21.245  19.807 -0.1364 -0.1532  0.0406
61847W        W62711  25.835   4.131  13.072 -0.0418  0.0786  0.3165
61848W        W62712  23.153  17.069  20.404  0.0474 -0.2390 -0.0699
61849W        W62713  24.362  16.059  27.458 -0.0475  0.1087 -0.0410
61850W        W62714   1.246  13.960  20.751 -0.1181 -0.1282 -0.2370
61851W        W62715   9.334   2.750  22.479 -0.0510 -0.1808  0.1291
61852W        W62716  13.029  23.830  23.309 -0.1084 -0.0270  0.2430
61853W        W62717   4.675   2.754  20.972 -0.0331  0.1289  0.1562
61854W        W62718  24.355  24.768  19.383  0.0294  0.1146 -0.1992
61855W        W62719  13.837  18.830   0.800  0.1223  0.0261  0.0620
61856W        W62720  20.766   8.803  21.113 -0.0532  0.1221  0.2343
61857W        W62721  27.072  14.008   0.212 -0.1448 -0.1335 -0.1127
61858W        W62722   5.336  24.935  19.853 -0.1768 -0.0696 -0.1203
61859W        W62723  19.759   1.721   5.834  0.3278 -0.0949 -0.1610
61860W        W62724   2.099  11.991  20.475 -0.0743 -0.0287 -0.5478
61861W        W62725   6.329   4.360  24.490 -0.1130 -0.0826  0.0081
61862W        W62726   3.079   7.562   3.320 -0.1961  0.0419 -0.0709
61863W        W62727  21.469  15.229  24.513  0.0473  0.0286 -0.1508
61864W        W62728   8.502  19.833   4.882  0.1520 -0.4055  0.0411
61865W        W62729  20.821  11.813   2.113 -0.1830  0.2944  0.2168
61866W        W62730   9.456  26.171  12.129 -0.1457  0.2224 -0.1276
61867W        W62731  13.382   6.630   8.603 -0.1471  0.2333 -0.2603
61868W        W62732  11.778   7.698   5.983 -0.0137  0.0832  0.1812
61869W        W62733  20.971   6.966  16.591 -0.1447  0.1418  0.0654
61870W        W62734  20.817  27.372  15.446 -0.1276  0.0927  0.0017
61871W        W62735  21.791  13.430  12.279 -0.1132 -0.0280 -0.2339
61872W        W62736   1.732  14.365  17.026  0.0690  0.0140 -0.0925
61873W        W62737  27.350  12.820  14.185 -0.0331 -0.1035  0.0630
61874W        W62738  12.392   4.054   8.829  0.0984 -0.0674 -0.2154
61875W        W62739  19.384  11.026  15.189  0.0261  0.1086 -0.1120
61876W        W62740  18.679  28.864   2.512  0.1860 -0.1973  0.0714
61877W        W62741  28.141   7.874  19.029  0.0510  0.1880 -0.1196
61878W        W62742  26.045  14.437   1.027  0.3654 -0.1322 -0.1798
61879W        W62743   4.626   3.644  17.623 -0.0784  0.1734 -0.2723
61880W        W62744  20.580  12.068  10.448 -0.0400  0.3070  0.3472
61881W        W62745  21.930   6.497  24.951  0.1268 -0.3243 -0.1409
61882W        W62746  24.284   9.386  23.079  0.1862  0.1749  0.1014
61883W        W62747   9.303   9.503   9.650 -0.2426  0.0731  0.0128
61884W        W62748  17.569  24.715   3.855 -0.1089 -0.2297  0.0295
61885W        W62749  12.052  12.157  18.358  0.0754  0.3249 -0.0962
61886W        W62750  20.700  11.227   8.497 -0.0068 -0.2615  0.3121
61887W        W62751  24.424  27.924  28.103 -0.0846  0.2248 -0.2141
61888W        W62752  24.500   5.964   8.956  0.1766  0.0237 -0.0025
61889W        W62753  27.692  28.096  13.258  0.0437 -0.1055  0.2910
61890W        W62754  23.695  17.581  12.474  0.0006 -0.1513 -0.1884
61891W        W62755   1.526   9.874  17.273 -0.2858 -0.1677  0.1104
61892W        W62756  17.241   3.604  21.046  0.1546 -0.1380  0.1379
61893W        W62757  26.285   9.091  23.637 -0.0998 -0.0454 -0.1251
61894W        W62758  17.381  21.471  25.038 -0.4438  0.1635 -0.1472
61895W        W62759  12.974   1.502  18.183 -0.1578  0.1513 -0.1588
61896W        W62760   4.487   7.798  13.159 -0.1349 -0.0367  0.2460
61897W        W62761  26.885   3.641   8.979  0.5235 -0.2427  0.1073
61898W        W62762  25.209   0.248  21.540  0.0212 -0.1790  0.0841
61899W        W62763  17.429  23.545  14.467  0.3751  0.2247 -0.2316
61900W        W62764  12.147   1.085   9.025  0.2300  0.1115  0.0615
61901W        W62765   5.237   5.757  13.161  0.2801 -0.1069 -0.3665
61902W        W62766  12.855   8.623   9.270 -0.1083 -0.3279 -0.2953
61903W        W62767  22.390   1.768  19.769  0.0549 -0.0115 -0.0695
61904W        W62768  19.996   2.567   1.721 -0.0122 -0.1072  0.2864
61905W        W62769   3.240   3.857  25.333  0.3485  0.2690 -0.0357
61906W        W62770   6.733  12.992  11.162  0.0290 -0.2696 -0.3219
61907W        W62771  19.304  13.006  11.822  0.0967 -0.0733 -0.2145
61908W        W62772  15.479  10.690   3.012 -0.3137 -0.0541 -0.0306
61909W        W62773  14.636  10.065   3.872  0.3890 -0.0531 -0.1565
61910W        W62774   0.138   7.422   9.487  0.1108  0.2780 -0.1454
61911W        W62775   0.546  17.980  18.742 -0.2019 -0.2117  0.5002
61912W        W62776  21.588  24.241  13.064  0.1886 -0.2783 -0.1280
61913W        W62777  15.238   6.829  25.971 -0.4074  0.1811 -0.2006
61914W        W62778  22.810   3.809  22.911  0.0456 -0.1533  0.0048
61915W        W62779  22.141   9.844  12.493 -0.0416 -0.2525 -0.1062
61916W        W62780  20.560  14.563   8.814  0.2213 -0.2102  0.0608
61917W        W62781  15.566  23.564  27.742 -0.4106 -0.2243 -0.3067
61918W        W62782  21.647   2.624  24.447 -0.1970 -0.1653  0.1822
61919W        W62783  20.434  22.270  17.232 -0.0093  0.1581  0.0101
61920W        W62784  26.362   3.326  14.096 -0.1218 -0.1384 -0.1006
61921W        W62785   9.060  27.442  28.865  0.2316  0.4381 -0.0678
61922W        W62786  16.714   9.159  13.839  0.1766 -0.1494  0.0063
61923W        W62787  27.077   7.946   0.593  0.1029 -0.1385 -0.0522
61924W        W62788  26.477   4.538  19.139  0.1593  0.0420 -0.2794
61925W        W62789  26.475   4.040   9.815  0.0406  0.1108 -0.0622
61926W        W62790   4.137   7.122  19.151  0.1678 -0.2291  0.1337
61927W        W62791   9.104  17.766  25.307  0.2401 -0.0964 -0.1331
61928W        W62792  25.352  21.845   8.422  0.0279  0.0111 -0.2182
61929W        W62793  12.940   9.028   7.491  0.0066  0.3539  0.0581
61930W        W62794  19.109  11.023  27.033 -0.3134  0.2343 -0.1308
61931W        W62795  15.460  13.041  18.744 -0.0140 -0.1229 -0.1155
61932W        W62796   4.013  17.247  18.288 -0.1747 -0.3344  0.0156
61933W        W62797  26.932   0.013   0.252 -0.0529  0.1595 -0.0334
61934W        W62798  25.687  13.919  19.315  0.0157  0.0503  0.0288
61935W        W62799  19.957  11.459   3.242 -0.0041  0.1741 -0.0262
61936W        W62800   0.844  26.750  22.753  0.1255 -0.0679  0.1589
61937W        W62801   3.040  22.145  25.880  0.0813  0.0803 -0.2671
61938W        W62802  19.343   2.527  19.478 -0.2439 -0.2611 -0.1504
61939W        W62803  13.819  17.547  21.300  0.0571 -0.0200  0.3884
61940W        W62804   2.483   1.935   8.802 -0.3805 -0.0937 -0.0378
61941W        W62805   2.929  24.383   9.044  0.2546 -0.3112  0.1666
61942W        W62806  24.507  23.243  19.927  0.1182 -0.2163 -0.0185
61943W        W62807  23.912  22.895  18.778 -0.3087  0.2499 -0.1690
61944W        W62808  22.718   5.656   3.456 -0.3538  0.1886 -0.1036
61945W        W62809  13.232   9.323  20.743 -0.4000  0.2007  0.0124
61946W        W62810   2.482  23.134  20.343 -0.2143  0.0615  0.1226
61947W        W62811  13.433  20.077  27.024 -0.1784  0.0904  0.3736
61948W        W62812   5.553   6.116  11.711 -0.1993  0.2582 -0.0762
61949W        W62813  24.897   9.969  15.138 -0.0399  0.1397 -0.2789
61950W        W62814   2.945  10.450   8.603 -0.0126  0.0562 -0.0364
61951W        W62815   7.706  19.487  10.271 -0.0528 -0.1271  0.1719
61952W        W62816  20.732   3.934  16.250 -0.1250  0.0396 -0.0491
61953W        W62817   6.381  26.576  27.124  0.2041 -0.2530 -0.2762
61954W        W62818  26.177  22.733   8.739 -0.3575  0.0210  0.1087
61955W        W62819   7.542  16.643  13.184  0.2378 -0.0686 -0.0727
61956W        W62820   7.429  20.246  11.713  0.3855  0.0128  0.2608
61957W        W62821   3.599  18.594  22.723 -0.4061 -0.3089  0.1232
61958W        W62822  23.784  23.522  24.573  0.1028 -0.2029 -0.1973
61959W        W62823  28.969  29.052   3.340  0.1814 -0.0862 -0.1321
61960W        W62824  22.697   0.790  12.003 -0.0463  0.1298  0.2169
61961W        W62825  21.032   2.422  19.954 -0.1205  0.0030  0.0660
61962W        W62826  19.982   6.744  10.346  0.0087  0.2244  0.1371
61963W        W62827  18.454   7.484   1.159  0.1045  0.1523  0.1076
61964W        W62828  23.681   3.940  27.783 -0.0653 -0.1154  0.2016
61965W        W62829  16.456  19.577   3.158 -0.3198  0.3144 -0.0660
61966W        W62830  20.680   8.727  13.185 -0.4049 -0.1563 -0.3487
61967W        W62831   6.834   7.726  16.377  0.1190 -0.1722 -0.1077
61968W        W62832   6.659  12.115  24.472 -0.1031  0.1405  0.1846
61969W        W62833  23.637   5.013  26.105 -0.3547  0.0508  0.0205
61970W        W62834   1.024   3.730  19.253 -0.0182  0.1047 -0.1994
61971W        W62835  27.024  15.390  19.800  0.1162  0.2698 -0.0289
61972W        W62836  24.663  17.847  26.305 -0.2697  0.1730 -0.2355
61973W        W62837   4.638   8.285  20.241  0.1524 -0.3090 -0.1299
61974W        W62838  11.741  18.814   4.478  0.1943 -0.2535 -0.0520
61975W        W62839  12.629  13.209   3.187 -0.2201 -0.1826 -0.2151
61976W        W62840  19.918  16.526  19.985 -0.1239  0.0024 -0.0394
61977W        W62841  22.297   8.753  18.654  0.0468 -0.3545  0.0388
61978W        W62842   2.127   5.875  18.722  0.1515  0.1865 -0.3173
61979W        W62843  20.772  20.105  12.491  0.1325 -0.1185 -0.0654
61980W        W62844  14.144   0.379   7.414  0.0119  0.0957 -0.2303
61981W        W62845  16.526  23.147  24.787 -0.0562  0.1193  0.0769
61982W        W62846   9.053   9.825  12.139 -0.2386 -0.1997  0.0870
61983W        W62847  24.110   6.442  23.500 -0.1506 -0.1011 -0.0527
61984W        W62848  11.385  25.510  17.989 -0.0500  0.2048 -0.3227
61985W        W62849  27.151  22.176  24.447  0.0196 -0.2493 -0.0652
61986W        W62850  19.109  12.562  24.890  0.3903  0.1388  0.0513
61987W        W62851   9.734  17.964  12.629 -0.0631  0.2136  0.0002
61988W        W62852  18.043  14.334  22.849 -0.2765 -0.1645 -0.3512
61989W        W62853   6.596  28.554   6.262 -0.0448 -0.0240 -0.3319
61990W        W62854  15.888  10.075  14.115 -0.1857 -0.2010 -0.1934
61991W        W62855  26.993  28.681  27.227  0.1747 -0.1937  0.1011
61992W        W62856  26.021  29.082  14.275  0.0438  0.3323 -0.2040
61993W        W62857  22.969   4.014   7.111  0.3728 -0.0947 -0.0753
61994W        W62858   5.957  13.256  24.813  0.1255  0.0003 -0.0407
61995W        W62859  18.943  16.276  16.421  0.3292  0.0812  0.1700
61996W        W62860  27.716   1.850   7.800 -0.1703 -0.2283 -0.1190
61997W        W62861  23.925  16.983   8.312  0.0487  0.1176 -0.0392
61998W        W62862  18.422  10.621   8.605 -0.1636 -0.1779 -0.3695
61999W        W62863  20.151  16.643  28.880 -0.0623  0.0889  0.1550
62000W        W62864   3.534   0.969  13.235 -0.1085  0.1582 -0.1638
62001W        W62865   9.882   5.155  24.369  0.0361 -0.3650  0.1036
62002W        W62866  22.047  17.655  15.742  0.2044  0.4677  0.3023
62003W        W62867  15.885   1.887  14.575  0.2195  0.1754 -0.0251
62004W        W62868  28.747  11.878  13.881 -0.1356  0.2472 -0.5837
62005W        W62869   4.609  17.521  13.583 -0.1295 -0.0321  0.2045
62006W        W62870  10.006   0.493  13.470  0.0237  0.3701  0.4291
62007W        W62871  28.491   0.544  13.074 -0.1033 -0.2692 -0.0894
62008W        W62872   5.810   2.683  25.389 -0.0005  0.1340 -0.0523
62009W        W62873  22.202  13.418   7.576  0.0747  0.1126  0.2245
62010W        W62874   0.488  18.299   4.128 -0.0295  0.0309 -0.1216
62011W        W62875  17.854  16.509   5.136  0.1069  0.0457 -0.1914
62012W        W62876  21.807  10.246  15.448  0.0336  0.1032  0.0229
62013W        W62877  11.102   6.314  11.870  0.0550 -0.0775 -0.0526
62014W        W62878   1.067   3.575  14.589 -0.2779 -0.0083 -0.1797
62015W        W62879   1.348  28.784  24.032 -0.0540  0.1015 -0.0480
62016W        W62880  15.253   6.662  14.980 -0.0340 -0.0382  0.0302
62017W        W62881   1.347  17.624  14.694  0.0463 -0.0688 -0.1962
62018W        W62882  26.208  11.753   6.477  0.1920 -0.1230 -0.1440
62019W        W62883  11.517  23.517   6.255 -0.0683 -0.1858  0.4540
62020W        W62884   8.289  10.547   7.885  0.1676  0.3068 -0.0600
62021W        W62885  25.475   2.690  19.455 -0.3426 -0.0509 -0.0489
62022W        W62886  19.392  11.050  14.036 -0.3459  0.1700  0.2275
62023W        W62887   0.110  13.641   6.484  0.0790  0.4165  0.0416
62024W        W62888   4.328   2.487  21.465 -0.0127 -0.0646 -0.0938
62025W        W62889   8.646  15.964  12.662 -0.1218  0.1009  0.2346
62026W        W62890  14.301   8.807   0.762 -0.1479 -0.0848  0.1395
62027W        W62891   8.623  26.060  26.754  0.2393  0.3471  0.3474
62028W        W62892  24.087  11.913  26.320  0.0687 -0.1340 -0.0499
62029W        W62893  22.390  16.990  22.234  0.2451  0.1472 -0.0751
62030W        W62894  24.389  13.804  24.832  0.1394  0.1731  0.4555
62031W        W62895  11.446  28.028   3.354  0.1750 -0.1799 -0.6559
62032W        W62896  24.575   8.442  15.763 -0.2655  0.2088 -0.3044
62033W        W62897  19.786   0.633   1.109 -0.1553 -0.1573  0.1679
62034W        W62898  16.888  12.954   8.213 -0.1212  0.1986  0.0708
62035W        W62899  27.373   1.707  22.341 -0.0416  0.0622  0.1486
62036W        W62900  26.010  14.672  15.231  0.1396 -0.1432 -0.1923
62037W        W62901   9.995  12.770   9.605 -0.1685  0.2717 -0.2032
62038W        W62902   7.859   5.119  11.131  0.0886  0.0768 -0.0378
62039W        W62903  20.422  24.976   1.459  0.1096 -0.2290  0.3271
62040W        W62904  10.017   7.414  20.071  0.0898  0.0340 -0.3593
62041W        W62905  16.883   8.711  11.670 -0.0331  0.2978  0.2486
62042W        W62906  26.468   6.019  13.387  0.3255  0.0934  0.0436
62043W        W62907  27.762  18.035  12.296 -0.0412  0.0334 -0.1433
62044W        W62908   4.445  17.908  13.884  0.0801  0.2449 -0.3474
62045W        W62909  21.215  15.738  13.405  0.1547 -0.3162  0.2908
62046W        W62910   7.524  15.263   3.128  0.0052 -0.2240 -0.2021
62047W        W62911  23.796  11.751  16.813  0.0383 -0.0350  0.3562
62048W        W62912  20.183  15.589  12.327 -0.0245  0.2088 -0.0743
62049W        W62913  22.996   7.131  10.299  0.0202 -0.0172 -0.0502
62050W        W62914  14.066  20.529  20.165  0.0606 -0.3224 -0.3134
62051W        W62915  16.883  21.940   6.962  0.0023  0.0478  0.2568
62052W        W62916  11.776  17.760  10.889 -0.0535  0.0222  0.0326
62053W        W62917   6.444  19.290  11.714  0.0872  0.1350 -0.2053
62054W        W62918   0.296  11.003  17.842  0.0373  0.1608 -0.4497
62055W        W62919   8.532  26.030   8.326 -0.1329 -0.1172 -0.1489
62056W        W62920  18.628   8.440  19.086 -0.1802  0.3119 -0.2757
62057W        W62921  17.113  13.949  11.160 -0.0276  0.0690 -0.1284
62058W        W62922   9.422  10.966  21.463  0.0368  0.1864  0.0234
62059W        W62923  16.334  16.381  27.018  0.0412 -0.0765 -0.1634
62060W        W62924  29.066   5.490  28.396  0.0836 -0.0331  0.3566
62061W        W62925  12.043  22.763   7.044 -0.2025  0.0652 -0.0998
62062W        W62926  10.848  21.706   8.937  0.1433 -0.1079 -0.1255
62063W        W62927  12.634   7.810   6.394 -0.0233 -0.1750 -0.0031
62064W        W62928   4.103   7.691  11.318 -0.0837  0.0679 -0.1172
62065W        W62929  24.982   3.007   5.746  0.0135 -0.0765  0.0981
62066W        W62930  26.691  22.993  14.113  0.0138  0.0242  0.0577
62067W        W62931   2.594   6.644  19.742 -0.2648 -0.3117 -0.1571
62068W        W62932  21.052   8.777   3.588  0.1595 -0.2080 -0.4078
62069W        W62933   0.132  16.919   8.159  0.1889 -0.1531  0.1651
62070W        W62934  16.191  16.905  18.300 -0.1544  0.0348 -0.0290
62071W        W62935  18.782  23.435   1.336  0.3792 -0.1669  0.1254
62072W        W62936  23.069   0.426   0.028  0.0735 -0.1157 -0.2941
62073W        W62937  18.137   9.413   4.043  0.0628 -0.0434  0.1580
62074W        W62938  20.671  11.883  24.198 -0.2419  0.2098 -0.0063
62075W        W62939   5.051  25.925  15.225  0.0128  0.1907 -0.1477
62076W        W62940  26.595  16.168   8.137 -0.0052 -0.1902 -0.2546
62077W        W62941  10.416  23.245   7.230 -0.0541 -0.0196  0.1251
62078W        W62942   7.736   9.536  25.940 -0.2621 -0.0847 -0.1692
62079W        W62943  13.684  23.845  17.946 -0.1113  0.0135 -0.0920
62080W        W62944  27.441  12.253  21.390 -0.0573  0.0676  0.3565
62081W        W62945  26.794  21.601  18.824  0.1223 -0.0111  0.0510
62082W        W62946  26.971  10.403  21.305  0.3296 -0.0358  0.3156
62083W        W62947  28.901   2.945  28.875  0.0337  0.1959 -0.0771
62084W        W62948  21.646   6.591  10.872  0.1039 -0.0465 -0.0084
62085W        W62949  21.348  18.721  21.840 -0.1584  0.1173 -0.2484
62086W        W62950  26.438  25.353   3.709 -0.1312  0.1792 -0.1888
62087W        W62951  17.966  23.022  20.808 -0.0442 -0.0837  0.3466
62088W        W62952  28.237  11.831  26.480  0.0642  0.0862 -0.0819
62089W        W62953  12.935  14.768  15.762 -0.4495  0.1922  0.1217
62090W        W62954   9.936   7.902   3.804  0.1526 -0.2524 -0.0646
62091W        W62955  10.492   2.704  25.739  0.1835 -0.2056 -0.1311
62092W        W62956  16.979  16.532  10.112  0.1777 -0.2115 -0.2731
62093W        W62957  13.126  28.403  25.716  0.3264  0.1069 -0.0270
62094W        W62958   2.811  14.098  20.507  0.1074 -0.4074  0.1899
62095W        W62959  18.647  12.523  11.686  0.2399  0.0074  0.3840
62096W        W62960  23.016  14.673  25.427 -0.0424 -0.0889  0.3411
62097W        W62961  28.980   8.572   6.152 -0.1074 -0.1222  0.0696
62098W        W62962   6.995   2.225  22.054 -0.0540 -0.1913 -0.0206
62099W        W62963  18.386  25.726   7.516  0.0205  0.1358 -0.0038
62100W        W62964  14.341  16.328   5.862 -0.2847  0.3696  0.0862
62101W        W62965   6.530  10.799  14.652  0.1839  0.0127  0.2006
62102W        W62966  21.243   7.985  16.506  0.1186 -0.0983  0.0593
62103W        W62967  12.665   6.018   1.979  0.1145 -0.0666 -0.2182
62104W        W62968  27.404  25.853  11.832 -0.2428 -0.0629  0.4181
62105W        W62969   0.853  18.188  26.093  0.1831 -0.0012 -0.3343
62106W        W62970  24.513   4.128   4.953 -0.0117  0.0240 -0.1839
62107W        W62971  18.049   1.027   9.273 -0.0760 -0.1932 -0.0874
62108W        W62972   8.659  11.206  27.898  0.1504  0.0229  0.0542
62109W        W62973  23.605  16.571  22.505 -0.0992  0.0441 -0.1202
62110W        W62974   3.664  16.344  23.182  0.1016 -0.0538  0.0661
62111W        W62975  11.637   3.385  29.022 -0.4753 -0.1910 -0.0727
62112W        W62976   1.247   4.046  17.593  0.1977  0.2874  0.2440
62113W        W62977  26.502   5.939  16.537 -0.3185  0.0022 -0.1901
62114W        W62978  27.477   5.613   1.194 -0.1360 -0.1975 -0.3537
62115W        W62979  25.795   9.205   9.491  0.2054 -0.1504 -0.0196
62116W        W62980  11.654  25.228  12.116 -0.1695  0.0309  0.1612
62117W        W62981  11.868   4.300  24.116  0.0522 -0.0071 -0.0605
62118W        W62982  15.818  25.119  12.007  0.2962 -0.4006 -0.0420
62119W        W62983  26.716   6.189  22.772 -0.1840 -0.0162 -0.1304
62120W        W62984   8.996   1.341  11.880 -0.1894 -0.0789 -0.1440
62121W        W62985  14.460  17.876  24.062 -0.2599 -0.0139  0.4042
62122W        W62986  26.328  14.058  20.688 -0.0873  0.1008 -0.0421
62123W        W62987  18.143  12.604  13.916  0.4515 -0.0568 -0.0221
62124W        W62988  21.312   9.809   3.795  0.3897 -0.0006 -0.2141
62125W        W62989  19.458   8.123  24.702  0.1102 -0.3252  0.1636
62126W        W62990   4.881  10.461  14.304  0.1994  0.0486  0.0717
62127W        W62991  12.349  26.274  19.331  0.0200  0.0679 -0.2432
62128W        W62992  24.878  11.494  23.101  0.1686 -0.2552 -0.2676
62129W        W62993  23.541   6.761  20.239  0.1524 -0.1754 -0.1350
62130W        W62994  19.898  22.072  20.343 -0.2649  0.0174  0.1099
62131W        W62995   5.248   9.826  14.100  0.0953 -0.0776 -0.1101
62132W        W62996  26.310  14.294  12.608 -0.0378  0.1761 -0.3317
62133W        W62997  22.743   2.945  23.994  0.1130 -0.0156 -0.1390
62134W        W62998   5.894  16.025  21.283  0.1208  0.0054  0.1494
62135W        W62999  27.885  15.460  12.225 -0.0165  0.2450 -0.0455
62136W        W63000   5.071   4.212  21.638 -0.0508 -0.1156 -0.0397
62137W        W63001  23.161   2.449  27.681 -0.0717 -0.1586  0.0452
62138W        W63002   0.310   4.622  17.880 -0.0055  0.1049  0.0737
62139W        W63003  26.818  28.917   4.103 -0.3760 -0.5426  0.1746
62140W        W63004   5.994  18.107   4.694 -0.0100 -0.0899  0.0650
62141W        W63005   7.715  19.340  21.208 -0.2135 -0.1214 -0.1621
62142W        W63006  27.512   3.595  10.736  0.2211  0.0894  0.0096
62143W        W63007  24.302  14.113  15.378 -0.2065 -0.1743 -0.0642
62144W        W63008  27.726  28.438  12.837  0.2372 -0.1659 -0.1108
62145W        W63009  18.479   4.493   0.199 -0.5537 -0.1096 -0.0767
62146W        W63010   0.020   9.820   5.227  0.0341  0.1822  0.0556
62147W        W63011   8.796   1.689   1.709  0.1019  0.1863  0.0730
62148W        W63012   2.161  20.884  10.763 -0.0358 -0.1431 -0.3240
62149W        W63013  22.130  24.037  27.857  0.2693 -0.2474  0.0086
62150W        W63014   5.169  12.941  16.834  0.0196 -0.2867  0.1216
62151W        W63015  20.933  19.530  22.878 -0.0294  0.0542  0.2044
62152W        W63016   4.054  18.663  26.668  0.2048  0.1116 -0.3341
62153W        W63017   1.975   0.878  27.316  0.0810  0.0946 -0.0176
62154W        W63018  21.483  10.939  14.495  0.1624 -0.0077 -0.3458
62155W        W63019  18.484  12.022  25.706  0.1533 -0.3108  0.0090
62156W        W63020  23.952  16.715  21.686  0.0081  0.3297  0.1733
62157W        W63021  28.769  23.993  14.320 -0.0724 -0.2639 -0.0457
62158W        W63022   3.484  18.362  27.689 -0.1413 -0.0376 -0.0163
62159W        W63023  21.429  25.130   5.060 -0.1483 -0.1646  0.0251
62160W        W63024  25.268  15.587  27.977 -0.1868 -0.0785 -0.0839
62161W        W63025  26.007  16.384   6.389  0.5665 -0.1087  0.1766
62162W        W63026  20.141  11.774   2.421 -0.0760 -0.3585 -0.2760
62163W        W63027  13.562  12.474  27.053  0.2114  0.2534  0.4712
62164W        W63028   6.367  19.793  20.109 -0.0682  0.0785  0.1482
62165W        W63029   9.415  23.481   8.003 -0.0394  0.0245 -0.2064
62166W        W63030  18.071  21.163  17.292 -0.3056 -0.1026 -0.0133
62167W        W63031  17.893  10.525  19.514  0.0256  0.2767  0.1393
62168W        W63032  17.645  14.935   3.023  0.1276  0.0578  0.2361
62169W        W63033  26.688  18.852   2.725 -0.1236  0.0420  0.0827
62170W        W63034  21.262  13.569   2.891 -0.3582  0.1837 -0.0781
62171W        W63035  27.229  12.017  17.964  0.0799  0.2587  0.0799
62172W        W63036   9.830   7.313  13.645  0.1847  0.2911  0.2054
62173W        W63037  28.651  28.335  11.175  0.0364  0.0807  0.3659
62174W        W63038  17.619  17.963  12.838 -0.1344  0.0744  0.0145
62175W        W63039  27.242   4.834   6.068 -0.0443  0.0435  0.2012
62176W        W63040  18.925   8.146   4.927  0.0963  0.1162 -0.1432
62177W        W63041   8.576   4.428   5.959  0.0338 -0.0611 -0.0301
62178W        W63042  13.684  14.630  12.161 -0.0868  0.0138 -0.1906
62179W        W63043  28.281  11.582  17.161 -0.0919 -0.0193  0.1635
62180W        W63044  15.494   3.017  13.185 -0.1213  0.0111  0.0773
62181W        W63045   3.246   8.758  28.832  0.0552 -0.0141 -0.0735
62182W        W63046  21.272  16.184   2.969 -0.1075  0.2110 -0.2925
62183W        W63047  21.067  20.487  15.840  0.3198 -0.0227 -0.2625
62184W        W63048  14.039  11.648   2.546  0.3664 -0.1213  0.0303
62185W        W63049  21.450   7.189  14.610  0.1127  0.0484  0.0128
62186W        W63050  26.549   2.595  14.862 -0.0521 -0.0321 -0.0250
62187W        W63051  22.126  27.841  26.185  0.2621  0.2112  0.2914
62188W        W63052  25.954   5.796  14.275  0.2833  0.1217  0.2745
62189W        W63053   1.092   8.523  21.447  0.0927 -0.1274  0.0440
62190W        W63054  20.837  20.488  22.617  0.3293 -0.0626  0.3229
62191W        W63055   1.200   1.952  20.023 -0.0085  0.2298 -0.1956
62192W        W63056  19.368  14.795  16.392 -0.1522  0.0598 -0.0384
62193W        W63057  18.158  19.529  18.899  0.2132 -0.0492  0.0460
62194W        W63058   3.708  20.850  12.155 -0.0337 -0.1538 -0.0828
62195W        W63059   2.214   0.685   1.173 -0.1115 -0.2243  0.1948
62196W        W63060  20.262  16.809  22.007 -0.0005  0.1762 -0.0935
62197W        W63061  20.834  10.348  11.366  0.0136 -0.2069 -0.1127
62198W        W63062   0.195  20.644  26.059  0.0848  0.0118  0.0810
62199W        W63063  23.337   9.070   2.385 -0.0976 -0.0528 -0.2665
62200W        W63064  15.060  17.153  24.665 -0.3339 -0.4218 -0.2514
62201W        W63065   5.063   5.533   4.966 -0.0334 -0.0693 -0.0965
62202W        W63066   7.004   0.406   5.657 -0.1111  0.1785 -0.1542
62203W        W63067  11.886  23.832  19.744 -0.1270 -0.1682  0.0137
62204W        W63068   4.067  19.062  22.995 -0.0904 -0.0152 -0.1231
62205W        W63069  16.564  26.331  21.328  0.3617 -0.3786 -0.1024
62206W        W63070  15.972  27.689  14.446 -0.1589 -0.1773 -0.0765
62207W        W63071  13.465  20.658  15.701 -0.2357 -0.0678 -0.0922
62208W        W63072   1.912  16.164  20.476  0.0248  0.1079 -0.0458
62209W        W63073  23.855   1.262  23.142  0.1926 -0.0625  0.2736
62210W        W63074   8.698  24.691  10.419 -0.0349  0.1937 -0.0028
62211W        W63075  21.946   1.772  11.426 -0.3125 -0.0227  0.0927
62212W        W63076   3.738  25.446  15.383  0.0317  0.1578  0.1070
62213W        W63077  27.454   0.647  10.816 -0.3579 -0.0550  0.1098
62214W        W63078  27.404   7.901  28.423 -0.0946  0.0468  0.0100
62215W        W63079  11.915   0.898  14.540 -0.1240  0.0526  0.1245
62216W        W63080  13.530   1.001  20.478  0.3645 -0.1190  0.0460
62217W        W63081  17.889   1.492  17.493  0.0979  0.3135  0.2580
62218W        W63082  26.580  15.845   0.157  0.1073 -0.2781  0.0424
62219W        W63083  12.602  23.930  17.895  0.1936  0.0224  0.0575
62220W        W63084  18.096   5.501  23.956  0.0186 -0.2749 -0.2325
62221W        W63085   7.960   2.097   5.297 -0.1978 -0.0480  0.0264
62222W        W63086  15.709   6.612  17.971  0.0906  0.1384  0.2818
62223W        W63087  20.628  27.347  22.727  0.0894 -0.0949  0.0434
62224W        W63088   4.859   6.659  12.168  0.1603  0.0710  0.0988
62225W        W63089   7.388   5.296  20.635  0.1882  0.0391  0.0844
62226W        W63090   4.214   5.812  10.129 -0.2563  0.0111 -0.0775
62227W        W63091   2.010   6.574  26.408  0.0118 -0.2322 -0.0229
62228W        W63092   8.915  23.946   5.492 -0.0021  0.0533 -0.0845
62229W        W63093   4.858  28.357   0.967 -0.2477 -0.4151 -0.0098
62230W        W63094  12.342  19.838   2.366  0.1522  0.3212 -0.0943
62231W        W63095  27.828  21.264  28.590  0.0947  0.0033  0.0147
62232W        W63096   6.464  27.409  27.354  0.3237 -0.3155  0.1112
62233W        W63097   4.198  10.116  21.794 -0.2558 -0.2719 -0.0547
62234W        W63098  18.860  10.015   3.873  0.0594  0.2087 -0.0458
62235W        W63099  10.112  10.735  24.936  0.2285 -0.1094  0.2707
62236W        W63100  22.315  27.282   8.922  0.0464 -0.0945  0.2046
62237W        W63101  16.272  15.265   3.160 -0.1310 -0.2410 -0.4118
62238W        W63102  18.012  11.664   0.039 -0.0688  0.3003  0.3066
62239W        W63103  18.268  18.113  24.691  0.0216  0.0712  0.4100
62240W        W63104  28.122  25.963  17.052 -0.1032  0.1228  0.1336
62241W        W63105  26.824   1.617  22.357 -0.0931 -0.0230  0.0970
62242W        W63106  21.299   7.451  10.629  0.3034 -0.0467  0.0312
62243W        W63107   9.889  11.270  22.280 -0.1535  0.2063 -0.1271
62244W        W63108  23.358  20.038  27.321 -0.3696 -0.4311  0.1390
62245W        W63109  19.740  24.061  24.448 -0.0033  0.2416 -0.0712
62246W        W63110  21.748   3.525  24.938  0.0731  0.2603 -0.3428
62247W        W63111  14.738  16.422  27.849  0.1977  0.0273 -0.1113
62248W        W63112   4.304   2.660  25.853  0.1382 -0.2255  0.1374
62249W        W63113  16.083   4.057   2.681 -0.0755 -0.1868 -0.2238
62250W        W63114  25.610   6.868   2.947 -0.0756 -0.1643  0.0992
62251W        W63115  19.880   8.614   4.957 -0.0479  0.2029 -0.1903
62252W        W63116  22.434  17.872   1.345 -0.0935 -0.1757  0.1295
62253W        W63117   0.284   7.100   2.472  0.1081  0.0639  0.2427
62254W        W63118  23.365  25.133   5.122  0.0528 -0.1557  0.2391
62255W        W63119  13.116   5.606   6.969  0.2233  0.2342  0.1180
62256W        W63120   2.226  12.391   4.175  0.0107  0.0081 -0.0791
62257W        W63121  23.714   3.362   6.269 -0.4468 -0.1519  0.2045
62258W        W63122  17.321  24.106   1.387 -0.0566  0.0037  0.3043
62259W        W63123  27.445  22.173   8.922  0.2188 -0.2522 -0.1226
62260W        W63124  18.727   5.610   8.662 -0.0971 -0.0200 -0.0555
62261W        W63125   1.249  27.516   1.121 -0.0975 -0.2776  0.0827
62262W        W63126  17.237  20.316  26.916  0.2204  0.0255  0.3011
62263W        W63127  20.634  15.038   6.801  0.1517  0.1164  0.0339
62264W        W63128  20.684  23.892   9.190  0.1683  0.2290  0.1294
62265W        W63129  28.657   1.050  12.353  0.4441 -0.0858  0.0644
62266W        W63130  21.844   5.952  14.448  0.3103  0.0091 -0.0751
62267W        W63131  24.588   1.012  14.889  0.1338 -0.0516  0.0380
62268W        W63132  27.032   2.819   5.745  0.2003 -0.3468 -0.1436
62269W        W63133  21.904  18.718   0.190 -0.0554 -0.2233  0.1914
62270W        W63134   6.921  16.645   7.381 -0.0512 -0.5252  0.2113
62271W        W63135  27.903  12.772  18.624  0.1512  0.2473  0.4311
62272W        W63136   7.034  21.880  19.666  0.1782  0.0879 -0.3495
62273W        W63137  25.253  24.147   3.788  0.1108  0.0340 -0.0160
62274W        W63138  23.262   1.166  25.176 -0.0360 -0.4951 -0.2334
62275W        W63139   9.559  10.969  11.521 -0.1350 -0.0153  0.0038
62276W        W63140  28.009  10.258   0.059 -0.0441 -0.0732  0.3723
62277W        W63141  17.105  28.729  16.404  0.1693 -0.0214  0.0419
62278W        W63142  20.619  11.038   6.686 -0.1804 -0.1394 -0.1781
62279W        W63143  25.513  25.586   2.571 -0.5129 -0.3967  0.0608
62280W        W63144   4.549  20.771  20.890  0.1947 -0.3796 -0.1531
62281W        W63145   2.813  15.777  20.208 -0.1680  0.0974 -0.0997
62282W        W63146  25.133  27.858  18.298  0.1472 -0.1470 -0.2201
62283W        W63147  11.813  19.053   6.640  0.0662  0.4328 -0.0375
62284W        W63148   7.808   5.943  25.956 -0.0436 -0.1221  0.0540
62285W        W63149  27.771  28.600   1.625 -0.0318  0.4043 -0.4360
62286W        W63150  15.397   7.972  15.385 -0.0991  0.3431  0.0696
62287W        W63151  16.589  28.811   2.844 -0.1119  0.3197 -0.0384
62288W        W63152  27.577   6.757   8.331 -0.4556 -0.2737  0.2763
62289W        W63153   1.925   7.124   6.276  0.1988 -0.1656  0.0846
62290W        W63154   2.064  15.187  12.995 -0.0554  0.1045 -0.1018
62291W        W63155  28.890  21.169  12.525 -0.0111 -0.0544 -0.1125
62292W        W63156  10.550   1.986  14.419 -0.0631 -0.1170  0.0603
62293W        W63157  21.713   3.399   9.695  0.2225 -0.1539 -0.0575
62294W        W63158   5.232  12.940  18.731  0.0481  0.1213  0.0984
62295W        W63159  22.411   8.548  15.973 -0.2117  0.3202 -0.3625
62296W        W63160   1.270   5.841  12.652 -0.0500 -0.2111  0.3886
62297W        W63161  20.703   9.958   8.021  0.1908 -0.2433 -0.2548
62298W        W63162  17.367  25.925  18.653 -0.1665 -0.1859 -0.1598
62299W        W63163  21.160  18.277  21.710 -0.1500  0.3010 -0.1028
62300W        W63164  17.869  10.584  26.403 -0.1033  0.1814  0.0863
62301W        W63165  12.442  15.419   6.442  0.0213  0.0813  0.0205
62302W        W63166  21.746  14.853  17.396  0.1477  0.0947 -0.1841
62303W        W63167  25.606  16.359  16.734 -0.1845 -0.3392 -0.1012
62304W        W63168  26.688  16.189  20.744 -0.1248  0.0983 -0.1238
62305W        W63169   0.563  19.089  24.041  0.1537 -0.0628 -0.0833
62306W        W63170  24.558  14.657   0.777 -0.0385 -0.1655 -0.1592
62307W        W63171  16.988  10.255   8.868 -0.1120  0.0853  0.1089
62308W        W63172  24.624  18.432  23.706 -0.1039  0.0393  0.0655
62309W        W63173  14.434   5.566   8.307 -0.0457 -0.0747  0.2078
62310W        W63174  24.352  17.603   1.569 -0.0931 -0.0403  0.4474
62311W        W63175  25.218  11.637  24.682 -0.1447  0.1185 -0.1550
62312W        W63176  12.462   3.199   0.345 -0.1028  0.1222 -0.0042
62313W        W63177  21.844  24.291   0.929 -0.0550 -0.0513  0.4797
62314W        W63178  17.846   1.663   8.036  0.1613  0.0102  0.1612
62315W        W63179  19.170   6.904   9.987  0.1784  0.0235 -0.0613
62316W        W63180  13.220   1.370  26.161 -0.2185 -0.2132  0.0178
62317W        W63181   4.401   9.407  12.568 -0.2050  0.0934 -0.0806
62318W        W63182  27.023  19.348  18.086 -0.0391  0.0824  0.1972
62319W        W63183  19.748  11.386  16.812  0.1020 -0.3067  0.0482
62320W        W63184  24.333   2.880   2.089  0.3887  0.2074 -0.1034
62321W        W63185  19.329   4.737  15.825 -0.0386  0.0912  0.1100
62322W        W63186   2.158  12.419  15.863  0.1673  0.1510 -0.3000
62323W        W63187  18.564   8.552  11.443 -0.0768  0.0235 -0.1496
62324W        W63188  26.797   1.360  11.253  0.1856 -0.2585  0.0759
62325W        W63189  26.037   4.220   9.195 -0.0721  0.4268 -0.1178
62326W        W63190  17.938   1.191  19.664 -0.0926 -0.0938 -0.1515
62327W        W63191   1.361  25.163   3.999 -0.2504  0.3613  0.1089
62328W        W63192  16.639  25.656  22.433 -0.3081  0.0610 -0.2372
62329W        W63193  20.867   7.867  27.136 -0.0543 -0.1352 -0.0090
62330W        W63194   2.665   8.143  19.644  0.0675  0.3052 -0.0034
62331W        W63195  21.131  21.266  26.217 -0.0037  0.1466 -0.1589
62332W        W63196  22.256   5.583  14.205 -0.1772  0.0052  0.0080
62333W        W63197  23.416   3.674   5.995  0.0837 -0.0217  0.2455
62334W        W63198  24.147   4.614  28.060 -0.2330 -0.0142  0.2810
62335W        W63199  21.492   3.860  15.268 -0.0756  0.1446  0.0838
62336W        W63200   7.472   6.077  17.960 -0.1980  0.2696  0.0543
62337W        W63201   6.846   7.723  18.476  0.1100  0.3357 -0.0826
62338W        W63202  12.354  29.088  26.322  0.0574 -0.1089  0.1573
62339W        W63203  25.819  29.025  17.910  0.3685  0.0415 -0.1567
62340W        W63204  24.333   9.746  16.288  0.0663 -0.0398 -0.0760
62341W        W63205  22.502  23.971   2.719  0.2169  0.0894  0.2124
62342W        W63206  22.702   4.684  19.925  0.0681 -0.0155 -0.0116
62343W        W63207  22.831   9.494   8.955 -0.0732  0.0348  0.0951
62344W        W63208   1.991   0.547  11.536 -0.1875 -0.0111  0.0024
62345W        W63209  12.940   8.750  25.758  0.2338 -0.1896  0.1243
62346W        W63210  14.756  26.909  22.962 -0.3489  0.1398 -0.0723
62347W        W63211   0.262  14.167   9.011  0.0449  0.0725  0.1090
62348W        W63212  12.565  24.631  14.103 -0.2937 -0.0809 -0.1173
62349W        W63213  13.765   7.850  13.511  0.1029  0.1214  0.0508
62350W        W63214   0.140  10.433  22.875 -0.0538  0.1300 -0.3691
62351W        W63215  23.392  21.389  13.899  0.3002 -0.2739 -0.1005
62352W        W63216  25.040  14.613   1.566 -0.0363  0.0598 -0.2295
62353W        W63217   5.777  21.087   6.402 -0.0501 -0.1447  0.0664
62354W        W63218   1.241   1.362  21.308 -0.2072 -0.3069  0.2758
62355W        W63219   4.808  24.190  19.741  0.3159  0.1250 -0.3025
62356W        W63220  21.295  17.315   2.108  0.1366  0.2075 -0.0867
62357W        W63221  15.534   0.573  27.819  0.0854 -0.2323 -0.0220
62358W        W63222  11.875   7.345   3.495 -0.0186 -0.0045  0.1663
62359W        W63223  24.839  16.850  14.542 -0.0206 -0.1577  0.2190
62360W        W63224  23.857   2.899   4.349  0.2341 -0.0897  0.2870
62361W        W63225  16.955  22.494  24.473  0.0185 -0.1626  0.1876
62362W        W63226  27.647  20.469  23.358  0.1970  0.0640 -0.1633
62363W        W63227   9.308  16.182   5.184 -0.0704  0.3757 -0.3173
62364W        W63228   8.031   6.092   9.466 -0.3065 -0.1546  0.2979
62365W        W63229  26.488   7.207  20.996 -0.1920  0.1807 -0.1277
62366W        W63230  26.245   7.038  16.460 -0.3239 -0.0742 -0.2015
62367W        W63231  23.753  28.399  11.870  0.0596  0.1354  0.0920
62368W        W63232  23.201   7.874  12.961  0.0258 -0.1558  0.3408
62369W        W63233  22.741   5.212  19.950  0.1742 -0.4233 -0.1590
62370W        W63234   1.213   8.726  18.535 -0.0175  0.5485  0.1028
62371W        W63235  24.757   4.960  15.161 -0.0622 -0.1836  0.3593
62372W        W63236   8.167  11.841  23.413  0.0261  0.0404 -0.0392
62373W        W63237  23.903  13.392  19.710 -0.4034  0.1903  0.2118
62374W        W63238  10.273   7.936  27.291 -0.1066  0.0960 -0.0217
62375W        W63239  18.173  11.376  14.822  0.0783  0.0897 -0.2301
62376W        W63240  16.604  17.714  26.034  0.0873  0.0683  0.0952
62377W        W63241   4.329   8.532  11.455 -0.2719 -0.0443  0.3098
62378W        W63242   5.947  28.229  10.941  0.2439  0.0035 -0.2816
62379W        W63243  18.952  15.080  28.402  0.1670  0.4814  0.2578
62380W        W63244  29.126  28.852  15.620  0.0623 -0.1098  0.3514
62381W        W63245  12.816  12.343   2.777  0.0930 -0.1372 -0.0137
62382W        W63246  23.582   1.033  10.842 -0.1417  0.2238 -0.1396
62383W        W63247   4.165  14.583  26.635  0.2773 -0.0831 -0.3277
62384W        W63248   4.802   8.782  26.139  0.0598  0.0261  0.0686
62385W        W63249  13.298  14.662  25.507 -0.3241  0.0339  0.1365
62386W        W63250  11.075  19.051  19.128 -0.0875 -0.0643 -0.0320
62387W        W63251  28.423  26.958   1.145 -0.1499  0.0975 -0.1253
62388W        W63252   8.071   6.559  14.271  0.0865  0.1381  0.0496
62389W        W63253   1.963   6.932  22.219  0.0810  0.1503  0.0533
62390W        W63254  27.562  21.020   1.755 -0.0692  0.1695 -0.2390
62391W        W63255  19.460  17.775  27.129 -0.0275 -0.1462  0.0625
62392W        W63256  14.380   9.125   2.631 -0.4252  0.3431  0.0757
62393W        W63257  26.496   6.724  28.869 -0.1053  0.1983 -0.0628
62394W        W63258  13.320   9.018  20.162 -0.0685  0.1604 -0.2189
62395W        W63259  25.379  13.918  18.223  0.2293 -0.1121 -0.0591
62396W        W63260   0.716   5.404  21.069 -0.3296  0.1188  0.1625
62397W        W63261  12.710  25.917  21.331  0.1430  0.1697  0.0855
62398W        W63262  23.576  23.689   8.031 -0.0222 -0.2381  0.0454
62399W        W63263  13.057  13.489  22.020  0.2139  0.3100 -0.0095
62400W        W63264  16.058   6.321  26.007  0.5067  0.0479  0.0473
62401W        W63265  24.992  13.348  20.416 -0.0820 -0.1172 -0.0908
62402W        W63266  27.103  11.511  21.122 -0.1335 -0.4343 -0.1034
62403W        W63267  20.781  10.833   4.244  0.1759 -0.1157  0.4544
62404W        W63268  23.368  11.597   3.258 -0.1256  0.1366  0.0180
62405W        W63269  15.871  25.432  10.127 -0.0794  0.0910  0.0218
62406W        W63270  23.615  19.224   8.944  0.0205  0.1201 -0.0609
62407W        W63271  25.773   0.081  20.724  0.1070 -0.0727 -0.1871
62408W        W63272  25.455  13.653  24.569  0.1396 -0.0931  0.1333
62409W        W63273  28.403   5.959  21.740  0.2081 -0.0443  0.1212
62410W        W63274  16.662  13.632  23.724  0.2884  0.2736  0.1544
62411W        W63275  17.332   3.176   8.206 -0.0269 -0.1155 -0.3471
62412W        W63276  27.736   5.864   9.114  0.0228  0.0750  0.1240
62413W        W63277  23.368  23.153  25.731 -0.0414 -0.3571  0.4961
62414W        W63278  28.998  15.243   6.308 -0.4495  0.2799  0.1976
62415W        W63279  18.482  14.466   9.290 -0.1499 -0.2740 -0.0663
62416W        W63280  27.233   7.722   9.946 -0.0044  0.1055  0.1898
62417W        W63281   6.717   0.474  27.718 -0.1507 -0.0481 -0.0419
62418W        W63282   3.950   8.992  18.954 -0.2680 -0.3205 -0.0900
62419W        W63283   6.961  11.168  14.309  0.0414  0.0672  0.0297
62420W        W63284   2.813  27.356  11.767  0.2122 -0.1067 -0.0466
62421W        W63285   0.459  28.240  19.993  0.1727  0.0135  0.0842
62422W        W63286  21.073  12.653   3.922 -0.0372 -0.1539 -0.0888
62423W        W63287  15.681   4.243  23.898  0.1327 -0.0662 -0.0462
62424W        W63288  13.427  20.056   5.752  0.0356  0.4241  0.1695
62425W        W63289  16.369   7.083  16.555 -0.4959 -0.0089 -0.1784
62426W        W63290  21.077   0.211   4.843  0.1227 -0.0533  0.0600
62427W        W63291  15.692  25.666  14.395  0.0204 -0.0328  0.1398
62428W        W63292   6.368  26.555   5.671 -0.0265  0.0342 -0.0184
62429W        W63293  14.661  14.610  15.399  0.0093  0.3111 -0.3040
62430W        W63294  16.275   7.003  24.349 -0.1398  0.1297  0.0633
62431W        W63295  11.686  12.939  20.817 -0.0887 -0.0032 -0.1402
62432W        W63296  28.942  13.417  18.435 -0.4576 -0.1544  0.1668
62433W        W63297   0.243  24.905  18.685  0.0955  0.1694 -0.1421
62434W        W63298  22.254  24.513  13.571 -0.3405 -0.3224  0.1955
62435W        W63299  15.323  13.283   6.124 -0.1123 -0.2276 -0.0597
62436W        W63300  10.169  23.783  18.412 -0.3301  0.0462  0.0224
62437W        W63301   9.336  14.253  13.337 -0.1813  0.1135  0.1590
62438W        W63302   7.459   9.949  21.036 -0.2964  0.1597  0.0178
62439W        W63303  16.130  17.227  19.740  0.0285 -0.1446  0.1147
62440W        W63304   8.218   4.606  16.142  0.0040 -0.1159  0.1172
62441W        W63305  26.472  16.937  17.407  0.1523  0.0313 -0.2744
62442W        W63306  25.352  11.381  11.918 -0.0031 -0.2842 -0.0163
62443W        W63307  14.445   9.560  23.143  0.0280  0.4292  0.3312
62444W        W63308  22.134  28.310  27.948  0.0392  0.2132  0.3186
62445W        W63309   0.320  16.763   4.931 -0.0493 -0.0246 -0.4507
62446W        W63310  14.981   4.359  10.729 -0.0518 -0.2005  0.2035
62447W        W63311   6.781   9.574  22.217 -0.0352  0.0226 -0.2751
62448W        W63312  22.591  12.090  21.071  0.2561 -0.1017 -0.1676
62449W        W63313  27.142  24.494   6.297  0.2701  0.1043  0.0472
62450W        W63314  23.030  17.950  21.666  0.1834 -0.0275  0.0079
62451W        W63315  17.734  10.298  17.617 -0.0819  0.3998  0.0039
62452W        W63316  17.463   5.245  19.288  0.0265 -0.1135  0.2119
62453W        W63317   2.567  16.426  20.775 -0.1757  0.1860  0.2836
62454W        W63318  28.475  20.401  21.448 -0.1771  0.2157 -0.2862
62455W        W63319   5.517  22.437   6.782 -0.1616 -0.1537 -0.3662
62456W        W63320   9.618  11.111  27.505  0.1059  0.0342 -0.2577
62457W        W63321  18.915   1.841   7.938 -0.2975  0.0135 -0.0879
62458W        W63322  16.454   2.938  24.560  0.0692  0.2524 -0.1712
62459W        W63323  16.607   5.936  11.384  0.0668 -0.0515  0.2815
62460W        W63324   7.800   6.605   0.729 -0.4528  0.2247  0.0354
62461W        W63325   5.752  18.420  25.105  0.1494 -0.3898 -0.1061
62462W        W63326   7.385   7.611  18.839 -0.1550 -0.2299  0.0974
62463W        W63327  16.759  27.988   7.811 -0.3405  0.1872  0.0690
62464W        W63328  15.278   8.395  15.703  0.2928  0.1222 -0.5339
62465W        W63329  19.662  17.777   0.830  0.0742 -0.0616  0.1574
62466W        W63330  24.475  11.502   5.016  0.0453 -0.0436 -0.1479
62467W        W63331  18.337   2.944   0.470  0.0707  0.0319  0.0098
62468W        W63332  20.768   6.767  10.500  0.1299  0.0770 -0.0108
62469W        W63333  26.723   8.060  22.623 -0.0751 -0.1494 -0.0226
62470W        W63334  22.701  24.805  20.817  0.2606 -0.1207  0.0451
62471W        W63335   5.247   1.370  25.251 -0.2913 -0.0732  0.0795
62472W        W63336  18.944  16.718  21.154  0.0020  0.1727 -0.1111
62473W        W63337   0.763   1.461   2.807 -0.0534 -0.1875 -0.0237
62474W        W63338  25.170   8.744   7.269  0.0602  0.0008 -0.0587
62475W        W63339  19.529  11.029  11.095  0.2118 -0.0784  0.0418
62476W        W63340  19.576   5.758   6.208  0.2508 -0.4240  0.2262
62477W        W63341  22.860  10.197  22.008  0.1040 -0.1503  0.1149
62478W        W63342  25.416   6.057   5.756 -0.1591  0.0730 -0.0425
62479W        W63343  18.648   5.803  19.560 -0.0832  0.1628  0.0287
62480W        W63344   1.421   6.104  18.157 -0.3429 -0.0412 -0.2332
62481W        W63345  13.610   7.253   1.205  0.0450  0.0890 -0.0654
62482W        W63346  20.943  25.804   4.652  0.3178  0.2428 -0.1510
62483W        W63347  17.028   9.085   6.778  0.1196  0.0295 -0.1663
62484W        W63348  17.066  13.128  26.378 -0.1406 -0.1532 -0.0149
62485W        W63349   0.378   3.530  17.131  0.0877  0.0507 -0.0301
62486W        W63350   6.993  11.773  28.709 -0.0889 -0.1837  0.1090
62487W        W63351  23.741   8.087  22.715  0.0191  0.0056 -0.2510
62488W        W63352  12.688  13.235   5.395 -0.0376  0.0661 -0.0956
62489W        W63353  19.151  10.608  24.811 -0.2040 -0.1089  0.0641
62490W        W63354  27.765  25.093  19.565 -0.1852  0.0387  0.2429
62491W        W63355  25.873  15.820  16.075 -0.0130  0.0716  0.0555
62492W        W63356  24.211  22.755  20.751  0.0823 -0.0611 -0.1967
62493W        W63357  25.490  10.947  10.796 -0.2545  0.0486  0.0971
62494W        W63358   6.853   2.728   4.071 -0.0017 -0.0709  0.1383
62495W        W63359  14.498  25.010   5.842  0.2208 -0.1266 -0.0847
62496W        W63360  24.326  10.207  11.261  0.4380  0.1341  0.1073
62497W        W63361   6.329  15.859  12.181 -0.2776 -0.0046 -0.0451
62498W        W63362   3.570  23.012   2.451 -0.1250  0.0866  0.3071
62499W        W63363  13.722  17.797  11.925 -0.2158 -0.2015 -0.2883
62500W        W63364  22.890   0.246   5.810 -0.1812  0.1885 -0.2664
62501W        W63365  14.974   9.850  15.253  0.1397  0.1672  0.1200
62502W        W63366   5.402   8.145  27.897  0.2792 -0.3326 -0.0060
62503W        W63367   1.097   9.944  28.206 -0.1437 -0.1338 -0.1224
62504W        W63368   6.058  20.333  20.096 -0.2134 -0.3510  0.0997
62505W        W63369  14.526  22.631  27.532 -0.1028 -0.1060  0.3368
62506W        W63370  16.775  17.654  22.973 -0.1079  0.4095  0.4516
62507W        W63371  26.964   5.569  18.483  0.0120 -0.2176 -0.0235
62508W        W63372   7.632  18.548  17.752 -0.0063  0.0338  0.2657
62509W        W63373   1.522  16.227  24.092  0.1216  0.1395  0.3378
62510W        W63374  18.232   5.561  11.768 -0.2475 -0.4391 -0.1046
62511W        W63375  17.937  10.383  16.023  0.1370  0.0425 -0.0868
62512W        W63376   5.205   2.420   9.102 -0.1098 -0.1263  0.1572
62513W        W63377   1.880  14.546  13.980  0.0966  0.0363  0.2128
62514W        W63378  15.324  11.787  27.716 -0.1198  0.1142 -0.1695
62515W        W63379  27.913  26.100  24.886  0.1711  0.1368 -0.0970
62516W        W63380   8.792   5.485   1.079  0.0414  0.1627 -0.0672
62517W        W63381  28.421   7.099  20.374  0.0335 -0.1629  0.1318
62518W        W63382  23.977   7.820  20.185 -0.0565 -0.0533 -0.3262
62519W        W63383  23.455  10.711  10.702 -0.1199  0.0737  0.0308
62520W        W63384   6.732  15.267   3.924 -0.0452  0.0974 -0.3435
62521W        W63385  29.044   4.769   8.813 -0.0287  0.0860 -0.0385
62522W        W63386  21.810   4.227  23.467 -0.0346  0.1585  0.1020
62523W        W63387   4.426   3.110  26.767 -0.2039  0.1534  0.0942
62524W        W63388   3.381   6.009  17.621 -0.1876  0.0284  0.1483
62525W        W63389   2.737  10.201  21.378  0.1683 -0.1806  0.1261
62526W        W63390  29.099  11.202  20.934 -0.1966 -0.2614 -0.0595
62527W        W63391   7.772   7.413   8.924  0.2076 -0.0295  0.2175
62528W        W63392  22.562   5.807  12.190 -0.1879  0.2577 -0.1914
62529W        W63393  22.658   2.423  25.869 -0.0466  0.0633  0.1137
62530W        W63394   4.765  25.027   5.043  0.0140 -0.1041  0.1954
62531W        W63395   0.114  19.063  20.888 -0.1418 -0.1446  0.3887
62532W        W63396  14.383   7.071  17.357  0.2408  0.2103 -0.0047
62533W        W63397  26.162   4.818  15.811 -0.0772  0.1144 -0.2282
62534W        W63398  27.430  12.101  22.755  0.0638  0.0720 -0.0314
62535W        W63399  28.050   1.188  10.421 -0.1698 -0.0627 -0.0460
62536W        W63400  16.080   3.892  14.256 -0.1212  0.2950 -0.1069
62537W        W63401  18.515  11.348  15.843  0.3372 -0.0151  0.2858
62538W        W63402   1.781   7.600  20.477 -0.0631 -0.2402  0.2511
62539W        W63403   1.038   5.674  26.210 -0.1017 -0.2708  0.3088
62540W        W63404  24.418  15.030  17.949  0.2275  0.0482  0.2295
62541W        W63405  10.930  25.825  22.201 -0.1703  0.3086 -0.1717
62542W        W63406   2.878   4.994   0.838  0.1908  0.2883 -0.2085
62543W        W63407  17.688  22.364  26.009 -0.4070  0.0543  0.0824
62544W        W63408   8.277  18.741  26.454  0.0176  0.0908  0.0788
62545W        W63409  24.154  19.900   4.829 -0.0765  0.0319  0.0358
62546W        W63410   8.814  15.931  25.325 -0.1253  0.1550 -0.4125
62547W        W63411  10.550  16.504  21.735  0.2691  0.3059 -0.1514
62548W        W63412  26.697   1.385  13.546 -0.0637 -0.1292  0.0187
62549W        W63413   5.047  26.922  21.297  0.0450 -0.2190 -0.1724
62550W        W63414  25.673  10.877   9.482 -0.1766  0.2928 -0.1926
62551W        W63415  10.265   6.209  10.923  0.0116  0.0121  0.0215
62552W        W63416   1.926  14.482   0.374  0.3973 -0.2943  0.1232
62553W        W63417  10.010  16.459   0.208  0.2392  0.0574 -0.0491
62554W        W63418  18.091  23.437  27.362  0.1934 -0.0763 -0.1499
62555W        W63419   4.700  19.736  17.877 -0.2159  0.1167  0.0509
62556W        W63420  28.905   7.915  15.026 -0.0276 -0.0180  0.1407
62557W        W63421  23.180   7.109  12.609  0.1577 -0.5047 -0.0806
62558W        W63422  11.354   8.432  24.204 -0.2482 -0.2107  0.1601
62559W        W63423  24.152  15.914  16.803  0.0142 -0.0715 -0.0150
62560W        W63424  21.528  14.642   6.531  0.0078 -0.0422 -0.2364
62561W        W63425  26.881   6.135  26.350  0.1860  0.1193 -0.0933
62562W        W63426   7.205  18.003  20.118 -0.1296 -0.1163 -0.2638
62563W        W63427  17.038  28.848  25.082 -0.0644  0.0867 -0.0698
62564W        W63428   1.927  13.142   4.003  0.1029  0.1569  0.0335
62565W        W63429  21.331  19.440  11.613  0.1989 -0.1668 -0.3608
62566W        W63430  14.432   0.718   3.694 -0.1746  0.1073 -0.0391
62567W        W63431   2.491  20.497  25.795 -0.0031  0.2199 -0.1366
62568W        W63432  26.860  28.736  29.035 -0.0170  0.2539 -0.0555
62569W        W63433  27.147   0.376  13.848  0.1014 -0.0858  0.1532
62570W        W63434  16.998  10.766   4.901  0.1256  0.2507 -0.1134
62571W        W63435  19.435  28.497  10.359  0.1246 -0.1862  0.1854
62572W        W63436  25.131  19.436  22.613 -0.1280 -0.1585  0.0683
62573W        W63437   6.665  19.609  22.812  0.0917  0.1257  0.1559
62574W        W63438  11.077  24.927  19.815 -0.1981 -0.3322  0.2148
62575W        W63439  12.546  17.167  28.017 -0.2619 -0.0419  0.0504
62576W        W63440   0.860   7.325  15.192  0.0438 -0.2754  0.1000
62577W        W63441   9.635   6.902   9.712 -0.1914 -0.0028 -0.1069
62578W        W63442  16.941  25.183  21.109  0.1710 -0.3258  0.0371
62579W        W63443  13.179   4.735  11.515  0.2524  0.2780  0.0978
62580W        W63444  12.659  27.398   9.152 -0.1591  0.1571 -0.1836
62581W        W63445   1.597  25.369  22.167  0.2260  0.0731 -0.1626
62582W        W63446   9.424  17.179  24.668  0.2683 -0.2204  0.0122
62583W        W63447  23.116  14.798  23.807 -0.2272  0.2430  0.1153
62584W        W63448   4.211  12.273   1.878  0.0401  0.1338  0.2780
62585W        W63449   4.894  23.362  23.566 -0.2218  0.0207 -0.0018
62586W        W63450  28.764  26.998  10.333 -0.3520 -0.2423 -0.2329
62587W        W63451  14.635   9.107  19.932 -0.1427  0.2575 -0.0009
62588W        W63452   0.433  18.174  14.693 -0.0069 -0.1794 -0.1202
62589W        W63453   5.941   0.364   6.101 -0.0926 -0.2741  0.1924
62590W        W63454  24.211  24.962  21.761 -0.2576 -0.0609  0.0126
62591W        W63455  21.810  12.048  25.462  0.0531 -0.0628  0.2245
62592W        W63456   2.594   8.016  26.423  0.2687  0.0361 -0.0257
62593W        W63457  14.266  17.940  10.326 -0.0170  0.0177 -0.1353
62594W        W63458  25.607  22.526   2.831  0.1169  0.0398 -0.2220
62595W        W63459  19.286   1.375  26.542  0.1705 -0.0444 -0.0021
62596W        W63460  16.031  12.219  16.645  0.1953 -0.2547 -0.0804
62597W        W63461  20.815   3.743   7.874 -0.2313  0.1911  0.0925
62598W        W63462   0.226  19.989   3.877  0.1836  0.2110  0.1488
62599W        W63463  24.046  26.860  28.107 -0.0853  0.0932  0.3621
62600W        W63464  18.308  25.724  20.902  0.1005 -0.1815 -0.1236
62601W        W63465   1.794  24.569   8.161  0.0239 -0.3211  0.4236
62602W        W63466  14.937  13.748  17.745  0.1367  0.0214  0.1651
62603W        W63467   4.822  11.090   1.820  0.1312 -0.4180 -0.3208
62604W        W63468  24.605  13.205  19.133  0.2986 -0.1343  0.1428
62605W        W63469  28.429   9.655  24.602  0.0202 -0.1056  0.0924
62606W        W63470  22.292  15.807   5.417  0.0006  0.1632 -0.2633
62607W        W63471  19.260  21.315   8.571  0.4016 -0.0075  0.0919
62608W        W63472  20.080  23.250  23.847  0.0384  0.1517 -0.0848
62609W        W63473  14.757   6.422  15.938  0.0938 -0.2953  0.1697
62610W        W63474  28.047  13.629  18.075 -0.2201 -0.3603  0.2365
62611W        W63475  28.722  24.111   5.574  0.1334 -0.1378  0.0466
62612W        W63476  22.041  16.822   6.848 -0.0463  0.3559 -0.1143
62613W        W63477  12.230  24.822  17.624  0.2223  0.2039 -0.0074
62614W        W63478  25.231  14.355   8.118 -0.0297  0.0783 -0.1364
62615W        W63479  22.464   6.531  28.657  0.1476 -0.2551  0.0259
62616W        W63480  14.559  21.293  22.320  0.2471 -0.2920 -0.0578
62617W        W63481  24.008  17.971   1.752  0.0891  0.0594  0.0922
62618W        W63482   8.427  14.240  23.628 -0.2702 -0.2071  0.4004
62619W        W63483  26.322   7.162  26.666 -0.3430 -0.0308 -0.2527
62620W        W63484  29.009  11.792  19.554  0.0985 -0.4103  0.5105
62621W        W63485  18.734  11.314   1.304 -0.2725  0.0627 -0.0320
62622W        W63486  19.318  20.859  20.693 -0.1424  0.3759  0.1146
62623W        W63487  21.007  13.164  19.161  0.0937  0.2061  0.0296
62624W        W63488   8.284  24.006   0.236 -0.1666  0.1929 -0.2559
62625W        W63489  20.145  17.634  17.483 -0.1284 -0.3981  0.3517
62626W        W63490   3.582   2.634  28.098  0.1395  0.4630 -0.2840
62627W        W63491  12.643   5.508  24.373  0.2441  0.0177  0.0795
62628W        W63492  16.959  27.428  24.223 -0.0380  0.2013 -0.0934
62629W        W63493  27.260  21.398  17.585  0.0309 -0.2090  0.4536
62630W        W63494  25.886   7.505  24.558  0.0678  0.0048 -0.1585
62631W        W63495   4.191  15.637  12.883  0.0324 -0.1658  0.0502
62632W        W63496   1.038   3.459   4.009 -0.1479  0.0070  0.2174
62633W        W63497  26.283  19.986  12.504  0.1452 -0.0199  0.2440
62634W        W63498   0.245   2.703  24.370  0.0069 -0.3452 -0.0037
62635W        W63499   0.118  26.861  14.689  0.4318 -0.3233  0.1405
62636W        W63500  16.719  10.014  11.038  0.0370 -0.2190 -0.0491
62637W        W63501   9.415  15.230   7.936 -0.0900  0.1281 -0.1115
62638W        W63502  17.994  13.637  18.152  0.1931 -0.0220  0.0156
62639W        W63503   4.545  12.330   8.321 -0.0155  0.2272  0.0971
62640W        W63504   0.600   0.172   5.154  0.1188 -0.0362 -0.4563
62641W        W63505  20.156  14.304  21.702  0.0275 -0.3427  0.2041
62642W        W63506   2.063  14.750  17.189  0.2592  0.1846  0.0917
62643W        W63507  25.031  23.359  25.863 -0.1529 -0.2435 -0.2772
62644W        W63508  25.004   8.799   5.664  0.0182  0.3343  0.1873
62645W        W63509   5.166  11.032   8.031 -0.1064 -0.2081 -0.0725
62646W        W63510   1.307   7.078  20.098 -0.1371 -0.1174  0.1600
62647W        W63511  18.106  14.605  21.775  0.0451 -0.0143  0.1490
62648W        W63512  28.557  25.142   9.611  0.0795 -0.0682  0.0160
62649W        W63513  21.299  22.355   4.231  0.3464 -0.0370 -0.2694
62650W        W63514  10.347   3.457  18.902  0.1277 -0.0100 -0.3703
62651W        W63515  28.412   6.441  27.817 -0.1008 -0.0728 -0.0613
62652W        W63516  22.863  22.238  24.670 -0.0299 -0.0283  0.1229
62653W        W63517   0.770  21.015   8.189  0.2489 -0.0803  0.1686
62654W        W63518   9.936   8.262  24.183 -0.4077 -0.5230  0.4267
62655W        W63519  19.487  18.089  24.392 -0.0839  0.1783 -0.1738
62656W        W63520  10.279  11.939  18.048  0.0732  0.2931  0.1033
62657W        W63521  14.945  14.877   4.414 -0.1862 -0.1356  0.1543
62658W        W63522  28.857  20.516  19.395 -0.0035  0.1641 -0.1142
62659W        W63523   4.709   3.525  26.839  0.2455  0.0313  0.0084
62660W        W63524  17.901   6.043  13.413  0.0511 -0.0710 -0.0538
62661W        W63525   7.361   2.588  11.990 -0.0356 -0.1032 -0.0616
62662W        W63526  16.447  16.224  20.995  0.2595  0.1196 -0.0094
62663W        W63527   7.745  12.891  27.881 -0.1323  0.1753  0.2500
62664W        W63528  22.049   8.614   0.692 -0.1366  0.0700 -0.0543
62665W        W63529   0.989   3.376  17.287 -0.1977 -0.1096  0.1656
62666W        W63530  15.371   1.421  19.050  0.2099 -0.0155 -0.3644
62667W        W63531   4.589  18.920  11.280 -0.1181 -0.1069 -0.3035
62668W        W63532  21.596  20.365   4.120 -0.0838  0.1060 -0.2335
62669W        W63533  21.216   1.118  26.989 -0.0272  0.0303 -0.1622
62670W        W63534  25.909  15.699  19.630  0.3704  0.0318 -0.2801
62671W        W63535   3.110  18.055  21.319  0.1904 -0.1295  0.0177
62672W        W63536   8.769  26.933  22.260 -0.1258 -0.1477  0.1259
62673W        W63537  10.714   0.785  13.573  0.3655  0.0452  0.1519
62674W        W63538  27.174  16.112  21.548 -0.2492 -0.1833 -0.2006
62675W        W63539  13.016  15.110   5.255  0.1834 -0.0530 -0.0147
62676W        W63540  13.963   7.186  17.110 -0.1412 -0.0987  0.1144
62677W        W63541  25.241   3.480  12.088 -0.2024  0.0754 -0.0932
62678W        W63542  12.552  27.982   4.759 -0.0092  0.2269 -0.2078
62679W        W63543   1.347  10.638  24.205 -0.0759 -0.0999  0.1069
62680W        W63544   5.401   3.802  21.889 -0.2074  0.1345 -0.0614
62681W        W63545  19.118  28.328  18.078  0.0239 -0.0909  0.1498
62682W        W63546  26.309  13.754  16.838  0.2773 -0.1727 -0.0318
62683W        W63547  11.806  12.384  22.045  0.4378 -0.0645 -0.2792
62684W        W63548   9.242  26.761  27.312 -0.0270  0.1049  0.0632
62685W        W63549   9.133   2.539  20.569 -0.0644  0.2813  0.5414
62686W        W63550  17.628   3.359  24.278 -0.4570  0.0802 -0.1423
62687W        W63551   0.450  16.992   7.769 -0.1509  0.2432  0.1178
62688W        W63552  22.857   3.467  20.508  0.1034 -0.2216  0.0465
62689W        W63553  16.127  20.750   1.260  0.0270 -0.2135 -0.3528
62690W        W63554  14.519   3.320   7.435 -0.2665 -0.2060 -0.1520
62691W        W63555  25.976  18.165  22.901 -0.1500 -0.2676 -0.0473
62692W        W63556  12.338  11.344  23.925  0.0009  0.0115  0.0656
62693W        W63557   1.949   7.454   2.320 -0.1027 -0.0469 -0.4559
62694W        W63558  26.303  14.565  25.406 -0.0825 -0.1310 -0.0852
62695W        W63559   2.671   9.997  22.656  0.3872  0.0128  0.2832
62696W        W63560  17.775  14.905  24.718  0.0850  0.0512 -0.0186
62697W        W63561  12.636   2.803  26.264 -0.0826 -0.2862 -0.0019
62698W        W63562   1.652  24.413  13.345  0.0290  0.3719  0.2493
62699W        W63563  15.575  26.805  10.190 -0.3113 -0.0434 -0.1755
62700W        W63564  21.062  18.135   3.525 -0.0747 -0.1035  0.0310
62701W        W63565   4.596  18.566   5.805  0.0578 -0.1101 -0.1595
62702W        W63566  28.208  28.419  23.182 -0.1445 -0.1655  0.3196
62703W        W63567  10.675  16.414   9.651  0.1590 -0.0156  0.1856
62704W        W63568  19.274  13.291  27.578  0.0932 -0.0783 -0.3689
62705W        W63569  24.930  13.459  27.631 -0.0498  0.2772 -0.2451
62706W        W63570  21.850   8.684  28.895 -0.3183  0.0549  0.2298
62707W        W63571  25.487  27.548  17.380 -0.1665 -0.0926 -0.3738
62708W        W63572   8.155   9.199  22.147  0.0139  0.0492  0.1626
62709W        W63573  11.217   5.975  11.082  0.0039  0.2279  0.0529
62710W        W63574  25.441   1.492  12.859 -0.0872 -0.1402 -0.2974
62711W        W63575  23.841   0.403  17.290  0.0043  0.3046  0.1096
62712W        W63576  15.613  16.731  10.851 -0.0661  0.0964  0.0955
62713W        W63577   0.530  28.973  22.928  0.0799 -0.0016 -0.2208
62714W        W63578   0.757   4.018  21.634  0.0904 -0.0752 -0.1480
62715W        W63579  27.903  26.402   7.879 -0.2165 -0.2792  0.0373
62716W        W63580  24.414  25.733  10.750 -0.3880  0.1191  0.0707
62717W        W63581  20.805  24.039  21.508  0.0710 -0.4406  0.1134
62718W        W63582  19.389  19.776  18.573  0.1750  0.0353  0.1910
62719W        W63583   2.165  20.614   1.570 -0.0150  0.1435 -0.0311
62720W        W63584   2.520  10.761   8.653 -0.0589 -0.1600 -0.2590
62721W        W63585  12.147  15.808  10.849 -0.1512 -0.3365 -0.0489
62722W        W63586  20.675  25.868  23.794  0.2084  0.1856 -0.1190
62723W        W63587  20.928  13.185  26.115 -0.0162 -0.4571  0.0267
62724W        W63588  24.918   6.487   1.803  0.1201  0.1732  0.0867
62725W        W63589   9.511   8.597   6.257 -0.1167 -0.3262 -0.1635
62726W        W63590  15.571  16.223  26.270  0.0867  0.0170  0.0088
62727W        W63591  22.670  20.178   0.354 -0.0709  0.2344  0.0207
62728W        W63592  19.446  13.106  15.941 -0.2343 -0.0693  0.2545
62729W        W63593  19.925  20.614  14.760  0.0222 -0.0149  0.0178
62730W        W63594  17.253  19.898  17.904 -0.0137  0.0649 -0.0560
62731W        W63595   6.783  27.559  19.400 -0.2475 -0.1275 -0.2474
62732W        W63596  26.656   1.390   6.996  0.0062  0.1028  0.0903
62733W        W63597  23.906   2.623  25.224  0.2954 -0.0302  0.0912
62734W        W63598  11.919  23.886   9.800  0.2795 -0.1354  0.0721
62735W        W63599  21.749   6.235  18.903  0.2645 -0.0082  0.0919
62736W        W63600  22.794   9.763  16.947  0.0403  0.2759 -0.2000
62737W        W63601   6.244  26.101  22.750 -0.0803 -0.0387  0.0308
62738W        W63602  19.177   9.111   7.507 -0.0920  0.0846 -0.5148
62739W        W63603   3.455  15.167   5.864  0.1439  0.0934  0.1389
62740W        W63604  26.216   3.855  22.942 -0.2084  0.0147  0.1392
62741W        W63605  27.340  11.699   0.937  0.2436  0.1287 -0.0790
62742W        W63606  28.465  26.961  13.944 -0.1052 -0.1015 -0.1662
62743W        W63607  23.275  20.414  17.027  0.2312  0.3209 -0.2014
62744W        W63608   8.033   5.920  10.695  0.1566 -0.0935  0.4172
62745W        W63609  20.925  16.941  22.616 -0.1425 -0.0106  0.2542
62746W        W63610   6.702  25.387  25.427  0.1002  0.3233  0.4283
62747W        W63611   1.079  19.793  25.181  0.2892  0.0036  0.0313
62748W        W63612   8.634  13.345  17.293  0.0380  0.1720 -0.0186
62749W        W63613  11.579   3.293  15.803  0.0714  0.1786  0.0644
62750W        W63614   6.507  18.247  11.061  0.1725  0.2238 -0.1131
62751W        W63615  21.435  27.653   9.141 -0.1771 -0.1166 -0.1671
62752W        W63616  23.212  23.179  14.055  0.0514 -0.2556  0.0061
62753W        W63617  21.617  11.352  15.344  0.3413 -0.1234  0.0548
62754W        W63618  15.499  13.749  24.965 -0.1056  0.1512 -0.1944
62755W        W63619  13.749  10.418   2.676 -0.1038 -0.1374  0.2261
62756W        W63620  18.299  20.197  11.788 -0.1960  0.2775  0.0872
62757W        W63621   2.415  19.607   1.579  0.0370  0.1278 -0.2854
62758W        W63622  20.271   8.268  23.286  0.0092  0.1807  0.0932
62759W        W63623   5.928   6.348  18.223 -0.0742 -0.0146  0.1277
62760W        W63624  13.806  28.694   0.555 -0.1416  0.1787  0.2348
62761W        W63625  15.175   5.332  27.701  0.2585 -0.2524  0.1536
62762W        W63626  14.742  11.414   4.513 -0.1387  0.2417 -0.1180
62763W        W63627   8.461   5.171  26.488  0.1137  0.4572  0.1986
62764W        W63628  10.504  24.885  17.817 -0.0890 -0.1109  0.0929
62765W        W63629  11.357   7.544  21.544 -0.1926 -0.0973 -0.1018
62766W        W63630  12.440  12.444  10.415 -0.1125 -0.1859 -0.0136
62767W        W63631  28.913   3.807  28.834 -0.1968 -0.0941 -0.1946
62768W        W63632  19.666   1.038  22.174  0.0850 -0.0835 -0.1251
62769W        W63633  21.277   3.113   9.128  0.1051  0.3068 -0.1708
62770W        W63634  24.552   3.479  27.648 -0.2231  0.1605 -0.2147
62771W        W63635  27.254  10.779   3.016  0.0359 -0.3004  0.0965
62772W        W63636  22.448  16.300  17.851  0.2765  0.1903  0.1292
62773W        W63637  11.780  10.608   6.367  0.0737  0.0578 -0.0903
62774W        W63638  16.823   1.619   3.242 -0.0044  0.0627  0.1868
62775W        W63639   2.635   4.332  23.852  0.0760 -0.4698 -0.0619
62776W        W63640  20.287   0.076  20.052  0.0928 -0.0347 -0.1123
62777W        W63641   1.895  13.961   9.454 -0.0358 -0.0834 -0.1019
62778W        W63642  12.083  26.050  28.454  0.2945  0.0466 -0.0230
62779W        W63643  25.444   8.328  17.507 -0.1876  0.2723  0.1146
62780W        W63644  16.197  16.399  12.696 -0.3297  0.2058  0.0773
62781W        W63645  27.234  10.032  11.083  0.0071 -0.1378 -0.2110
62782W        W63646  15.138   1.575  27.107 -0.0807 -0.0277  0.1664
62783W        W63647  28.392   0.840  23.251 -0.0125  0.0272 -0.2839
62784W        W63648  12.353  11.511  28.201  0.0119  0.0288 -0.0600
62785W        W63649  24.612   9.707  14.461 -0.1500  0.1889 -0.4012
62786W        W63650  21.413  23.246  17.187  0.0805  0.0321  0.1546
62787W        W63651   6.814  28.993  20.887 -0.1618  0.3394  0.0343
62788W        W63652  14.242  23.033  20.616 -0.0931 -0.4441 -0.0535
62789W        W63653  22.634  16.083  20.108  0.0597 -0.0499  0.1403
62790W        W63654  23.664   6.048  26.491 -0.2651  0.0855  0.0656
62791W        W63655  22.709  13.992   0.697  0.2949  0.1064  0.2815
62792W        W63656  18.844  15.242  15.622 -0.0687  0.2456  0.0732
62793W        W63657   0.917   8.388   2.377 -0.1641 -0.1157  0.0172
62794W        W63658  23.310  26.312   3.841 -0.0951 -0.2539  0.0802
62795W        W63659  21.374   9.482  22.417  0.1320  0.0052 -0.3373
62796W        W63660  22.731  16.162  22.655 -0.1381 -0.1827 -0.2094
62797W        W63661   0.445  12.760  20.712  0.2258  0.0232 -0.1184
62798W        W63662  11.580  10.054   5.239  0.2499  0.1756  0.0593
62799W        W63663  16.291  16.482   3.296 -0.4165 -0.2911 -0.1270
62800W        W63664   0.694   1.489   3.759 -0.2316 -0.5176  0.3387
62801W        W63665  18.783   4.601  20.287  0.0425  0.1883 -0.1021
62802W        W63666  21.617  21.925  21.474  0.0890  0.1107 -0.1016
62803W        W63667  24.187  28.787   6.455  0.1454 -0.0906 -0.2887
62804W        W63668  19.087  28.425  28.093  0.0757 -0.1088 -0.2230
62805W        W63669  17.091  14.726   3.270 -0.0819  0.1824 -0.0602
62806W        W63670  19.645   8.224   7.818 -0.0219 -0.0892 -0.0710
62807W        W63671  13.815   9.468  10.845  0.3187  0.2231  0.2299
62808W        W63672  21.218  13.458  27.058  0.2091  0.0734  0.0405
62809W        W63673  21.638   7.289  11.941 -0.2161 -0.0382  0.1643
62810W        W63674   0.465  15.023  27.823 -0.0804 -0.0377  0.0428
62811W        W63675  14.610  17.465  28.410 -0.2637 -0.0087 -0.0780
62812W        W63676  13.771   0.446  23.342  0.1581  0.0626  0.2615
62813W        W63677  20.495  14.178  28.173 -0.0292 -0.1284 -0.0091
62814W        W63678  22.739  15.346  17.308  0.1831  0.2621 -0.0738
62815W        W63679  21.289  24.509  23.873  0.2918 -0.2879 -0.3056
62816W        W63680  24.052  13.407   3.248  0.2038 -0.0216  0.0509
62817W        W63681  11.313  25.354   2.272  0.1366 -0.2826 -0.1537
62818W        W63682  22.224   6.591  18.863 -0.3579  0.2203  0.1392
62819W        W63683  17.346  11.355   0.383 -0.0742  0.3613 -0.0035
62820W        W63684  12.471  25.261   2.488 -0.0779 -0.0206  0.1274
62821W        W63685  25.550   7.220  16.006  0.3022  0.4603  0.0261
62822W        W63686   3.065  13.119   9.371 -0.2682 -0.2580  0.1580
62823W        W63687   6.408   7.439   2.182 -0.1020  0.2204  0.2630
62824W        W63688  10.320   6.730   7.065  0.6217  0.0227 -0.1429
62825W        W63689   0.866  22.047  25.843 -0.0820 -0.0910  0.1772
62826W        W63690  13.910  19.362  17.319  0.0842  0.1720  0.1956
62827W        W63691  16.263   2.621  26.335  0.4173  0.0867 -0.1179
62828W        W63692  25.440  25.288   3.194 -0.0160  0.1079  0.2407
62829W        W63693  17.867  20.692   6.099 -0.0724  0.3313 -0.0821
62830W        W63694  26.533   5.483   3.435 -0.2243  0.0317 -0.1783
62831W        W63695  24.148  28.266   3.476 -0.1341  0.2214  0.1656
62832W        W63696   7.879  10.462  15.303 -0.0576 -0.1639  0.0209
62833W        W63697  19.981  13.651   1.479 -0.1233 -0.1865 -0.0693
62834W        W63698  11.585   3.327  22.887  0.0191 -0.0834 -0.1905
62835W        W63699  24.580  10.884  24.953 -0.3722 -0.1587  0.1818
62836W        W63700  22.495  18.963   1.692  0.1896  0.1807  0.1131
62837W        W63701   9.550  25.196  22.827  0.1608  0.0815  0.0083
62838W        W63702   5.972  16.346  11.600  0.2624  0.0877  0.1834
62839W        W63703   5.911  27.736  25.940  0.1194  0.3125 -0.1042
62840W        W63704   2.049  11.854  17.052  0.0555  0.0907 -0.1094
62841W        W63705  11.236   7.518   5.171  0.0674 -0.1189 -0.0984
62842W        W63706  20.138   6.506  16.522 -0.1253  0.1846  0.0373
62843W        W63707  23.284  15.678   4.234  0.2606  0.1135  0.2284
62844W        W63708   5.361  27.193  23.958  0.5008  0.4118 -0.0660
62845W        W63709  26.946   2.471  16.293 -0.1137  0.3310 -0.2296
62846W        W63710   3.196  26.375  18.879 -0.1224  0.1526 -0.2916
62847W        W63711  18.371  15.721  24.278 -0.4746  0.3319  0.1634
62848W        W63712  24.958  28.683  25.695  0.1345  0.0602 -0.0214
62849W        W63713  21.156  19.243  21.262 -0.0200 -0.0514  0.0135
62850W        W63714   9.890   5.590  14.566  0.0866  0.1814  0.1113
62851W        W63715  23.752   8.637  23.558  0.1880 -0.1412 -0.4069
62852W        W63716  16.953  14.714  17.868 -0.1877  0.2501 -0.3019
62853W        W63717   2.687  25.604   0.774 -0.0585 -0.0167  0.0861
62854W        W63718   4.069   9.703  20.400  0.1103 -0.0555  0.0761
62855W        W63719  13.134  17.644  12.171 -0.2927 -0.0647  0.2056
62856W        W63720   4.896   9.681  19.052  0.0077  0.2826  0.1428
62857W        W63721  14.727  19.834   2.258  0.1076 -0.2810 -0.1925
62858W        W63722  26.429  17.219   7.533  0.2535  0.2122  0.1035
62859W        W63723  18.917  16.629   4.962  0.0374  0.2621 -0.2654
62860W        W63724   3.495  19.594  24.114  0.4009  0.0435  0.0484
62861W        W63725  16.509  15.842  19.070 -0.0389  0.0481  0.1879
62862W        W63726  25.599  29.028  28.683  0.0241 -0.3682  0.1828
62863W        W63727   2.874  18.477  10.343  0.0929  0.0037 -0.2141
62864W        W63728  17.594   4.456  16.450  0.1360 -0.1412  0.2657
62865W        W63729  15.142   3.218   3.299 -0.1993 -0.1682 -0.0627
62866W        W63730   0.875  18.442  20.781  0.0797 -0.0876 -0.1489
62867W        W63731  21.784   3.841  28.021 -0.0551 -0.1507  0.0109
62868W        W63732  12.855  12.833  25.765  0.0713  0.2081 -0.0904
62869W        W63733  13.876   4.069  27.249  0.0495 -0.4520  0.0036
62870W        W63734   6.357  12.222  28.835 -0.0779  0.3775  0.0652
62871W        W63735  18.778   3.146   1.091 -0.0333 -0.0059 -0.3491
62872W        W63736   8.619   5.114  28.903 -0.3283  0.2129  0.0098
62873W        W63737  10.565  13.826  16.844 -0.0844 -0.2942  0.3513
62874W        W63738   8.857  19.125   5.432  0.0153  0.1610  0.0328
62875W        W63739  25.014   9.299  26.841 -0.3048 -0.1079  0.0372
62876W        W63740  19.474   6.845  11.771  0.1395 -0.0010 -0.0760
62877W        W63741   9.337   2.097  27.368 -0.0309  0.1605 -0.1518
62878W        W63742   9.399   6.914  27.809  0.1348  0.0479 -0.1024
62879W        W63743  16.322   2.358  29.054 -0.2877  0.1527 -0.1713
62880W        W63744  23.056  12.173  25.899 -0.0122  0.4499 -0.1236
62881W        W63745  11.891  15.999  11.219 -0.0358  0.1421 -0.4644
62882W        W63746   1.463   2.525  27.871 -0.2564 -0.0842 -0.0985
62883W        W63747  23.266  15.636  24.451  0.3699 -0.1766  0.0137
62884W        W63748  18.980   2.737  11.251 -0.0350 -0.1813 -0.1504
62885W        W63749  24.358  18.627   7.501  0.0125 -0.0601 -0.0184
62886W        W63750  25.275  11.399   3.154 -0.0022 -0.0814 -0.1268
62887W        W63751  26.188  15.986   4.969 -0.0020 -0.0378 -0.0061
62888W        W63752  26.197  17.006  10.655  0.2116 -0.0693  0.0893
62889W        W63753   5.170  10.216  20.753  0.0003  0.0638  0.0711
62890W        W63754   4.858  10.653  13.506 -0.1713 -0.2187 -0.0718
62891W        W63755   0.785  12.928   2.034  0.0558 -0.0403 -0.1657
62892W        W63756  18.934  17.325  16.130  0.1521  0.3042  0.2816
62893W        W63757  13.974   1.900  24.980 -0.0585 -0.2593  0.3373
62894W        W63758  25.431  11.056   2.136 -0.0947  0.0667 -0.0761
62895W        W63759   5.649   8.180  18.514 -0.1165  0.3851 -0.2170
62896W        W63760  10.381  16.848  20.171  0.1066 -0.0005  0.0682
62897W        W63761  28.385   6.522   4.402  0.1729 -0.3005 -0.1912
62898W        W63762  14.245   3.457  26.537 -0.3121 -0.1927  0.3165
62899W        W63763  20.296  16.942   7.925 -0.1845  0.3548  0.0298
62900W        W63764  18.100   9.568  23.345 -0.0752  0.4695  0.2832
62901W        W63765   0.888   0.709  27.595  0.2455  0.1473  0.6531
62902W        W63766  26.106  14.484   5.366  0.1235 -0.0468  0.1109
62903W        W63767   8.079   7.380   1.467 -0.1585  0.0289  0.2028
62904W        W63768   0.436   1.921   3.582  0.0372  0.0757 -0.1964
62905W        W63769  18.820  14.478  16.346 -0.0256 -0.1297 -0.0342
62906W        W63770   0.999  15.831   5.782 -0.2305 -0.1616 -0.1374
62907W        W63771   6.703   9.959   2.446 -0.1987  0.1746 -0.1986
62908W        W63772  12.381  10.217  25.063  0.0728 -0.0424 -0.0562
62909W        W63773  26.480   0.237  28.565 -0.0876 -0.0528 -0.4779
62910W        W63774  16.543  14.876  24.190 -0.2563  0.0068  0.2699
62911W        W63775  27.698   4.272  12.808  0.1926  0.0303  0.3126
62912W        W63776  19.743   8.731  16.155  0.2359 -0.4266 -0.1970
62913W        W63777  13.298  15.158  13.502  0.3946 -0.2777 -0.1387
62914W        W63778  26.248  23.541   1.542 -0.0230 -0.2349 -0.0169
62915W        W63779   2.415  23.161  21.317  0.2475  0.0214  0.3077
62916W        W63780  25.868   2.370  12.385  0.1296  0.0747  0.2468
62917W        W63781  24.902   4.887   6.334 -0.2191  0.0576  0.0921
62918W        W63782  13.696  14.189  16.973  0.1482  0.1007  0.2281
62919W        W63783  26.918   3.931  24.874  0.2398 -0.0809  0.0148
62920W        W63784   1.288  24.332   1.181  0.1699 -0.2125  0.0909
62921W        W63785  16.845  13.910  21.479  0.0050  0.3238  0.0731
62922W        W63786  19.032  12.306  26.304 -0.2394  0.2459  0.2972
62923W        W63787  22.295  10.804  28.219 -0.0027  0.1290 -0.1196
62924W        W63788  24.675  19.027   3.799 -0.3841 -0.3341 -0.2612
62925W        W63789   4.763  19.991  10.464  0.0163 -0.1293 -0.3388
62926W        W63790   9.213   8.030  15.402 -0.1074 -0.1740 -0.1060
62927W        W63791  20.312  18.990  16.899 -0.0229 -0.0483 -0.0920
62928W        W63792  22.666  18.199  22.636  0.2829 -0.1422  0.1525
62929W        W63793  21.394  11.341  19.282 -0.0322 -0.2347 -0.0336
62930W        W63794   0.575   4.958  19.487 -0.0731 -0.1751  0.2162
62931W        W63795  16.099   3.017  20.903 -0.1413 -0.3169  0.0186
62932W        W63796  23.361  17.289  19.022 -0.2386  0.0964 -0.1111
62933W        W63797   4.059   1.669  10.819  0.0479 -0.3759  0.3854
62934W        W63798   2.546  19.248  18.030  0.1311 -0.4633 -0.0494
62935W        W63799  15.959   9.887  26.067 -0.3227 -0.0015 -0.0056
62936W        W63800  24.184   6.626   4.375  0.1307  0.1711 -0.1168
62937W        W63801  20.442  12.937   3.213  0.1755 -0.0552 -0.0155
62938W        W63802  12.811   1.584  19.315 -0.0940  0.1439  0.2067
62939W        W63803   3.226  21.727  21.374  0.0167  0.0248 -0.2690
62940W        W63804   8.601  12.004  23.700  0.0846  0.0128 -0.0367
62941W        W63805  10.424  22.995  21.961  0.2344 -0.0746  0.2036
62942W        W63806   0.039   2.736  13.888  0.6630  0.2302 -0.1823
62943W        W63807  22.074   3.269  29.136  0.0868  0.3062 -0.2220
62944W        W63808  23.525   3.997   1.574 -0.1314 -0.1161 -0.0203
62945W        W63809  22.333  13.997  12.631 -0.2388  0.1874 -0.1221
62946W        W63810   1.144  20.080   3.003 -0.2583  0.2331 -0.6130
62947W        W63811  26.030  16.688  16.691 -0.0051 -0.1130  0.1093
62948W        W63812  27.615   7.158   6.139  0.1212 -0.2697  0.0983
62949W        W63813  28.523   6.855  25.297  0.0973 -0.0818  0.2325
62950W        W63814  21.572  23.058  15.145 -0.0989  0.2767 -0.0700
62951W        W63815  16.932  11.997   0.903 -0.1960  0.2311 -0.2914
62952W        W63816   2.377   9.376  21.846  0.0797  0.0410  0.0028
62953W        W63817   2.609   5.677  29.043  0.0123 -0.1337  0.2606
62954W        W63818  28.859   2.140  16.326  0.1223 -0.1100 -0.0955
62955W        W63819  12.342  19.366  20.191 -0.1481  0.2453  0.1569
62956W        W63820  26.473   8.504  12.968  0.0549  0.5198  0.0543
62957W        W63821   3.511   9.304  28.624  0.2540  0.2666  0.2165
62958W        W63822  10.120   9.226   7.994  0.1117 -0.3355  0.0683
62959W        W63823  26.385  25.695  14.333 -0.1532  0.1470 -0.0807
62960W        W63824  21.692  21.616   8.318 -0.1254 -0.0360  0.0407
62961W        W63825  12.450  22.536  27.992  0.0014  0.2493  0.2700
62962W        W63826  20.870  24.846   4.102  0.0097  0.0978 -0.2533
62963W        W63827  23.418   0.524   0.438  0.3603 -0.1241  0.0901
62964W        W63828  21.312   3.362  20.932 -0.2082 -0.0737  0.1150
62965W        W63829  12.221  28.460  28.637  0.1484 -0.0738 -0.0679
62966W        W63830  25.978  20.139  26.754  0.5297  0.1251 -0.1548
62967W        W63831  28.134  20.397  23.579  0.0576 -0.0999  0.0291
62968W        W63832  24.922   1.706  25.422  0.1909  0.1418  0.2302
62969W        W63833  13.694  19.820   8.722  0.1456  0.2955 -0.1988
62970W        W63834  20.701  26.238  27.574 -0.1701  0.0832  0.0336
62971W        W63835   9.984  15.137  24.982  0.1569  0.1028 -0.1825
62972W        W63836   3.843  21.588   1.329 -0.1097 -0.0721 -0.0312
62973W        W63837  18.312   9.990  18.102 -0.5762 -0.0617 -0.0809
62974W        W63838  23.853  23.250  14.054  0.1206 -0.0798  0.0483
62975W        W63839  27.488  13.817  10.106  0.2917  0.1150 -0.1179
62976W        W63840  26.479   2.125  13.972  0.1564 -0.0016  0.1158
62977W        W63841   9.499   7.393   6.719 -0.2964 -0.1033 -0.0095
62978W        W63842  23.290  10.014  27.562 -0.1224  0.1540  0.3423
62979W        W63843  11.525   8.375  18.339 -0.1446  0.1032  0.0387
62980W        W63844  24.005  16.680  22.169  0.0807 -0.1140  0.0339
62981W        W63845  16.317  12.812  19.075  0.2153 -0.0377  0.1040
62982W        W63846  27.170  19.531   3.762  0.0887  0.0038  0.1017
62983W        W63847  23.475  12.940  19.038  0.0859 -0.0957 -0.1826
62984W        W63848  19.785   5.673  11.659  0.2473  0.2410 -0.2580
62985W        W63849  23.772  28.012   1.856  0.0603 -0.0656  0.1009
62986W        W63850  21.529   8.927  23.909  0.1374  0.3529  0.0980
62987W        W63851  21.030  23.913  23.666 -0.1117 -0.3044  0.3344
62988W        W63852  23.091  14.618  20.647 -0.0850 -0.0846 -0.0466
62989W        W63853  12.263  17.679  14.097  0.0653  0.0363 -0.1695
62990W        W63854  19.629  25.727   6.743  0.0420  0.2703  0.1333
62991W        W63855  20.221   9.974   0.818  0.2030 -0.1770  0.0029
62992W        W63856  13.172  23.336  28.246 -0.2765 -0.2779 -0.2156
62993W        W63857  25.621   6.585   5.009 -0.0815  0.3513 -0.1802
62994W        W63858  20.343   6.326  12.684  0.0201  0.0233 -0.0096
62995W        W63859  14.896  10.012  20.298 -0.0276  0.2596 -0.0758
62996W        W63860  20.995   8.794  26.739 -0.2179  0.1945 -0.1059
62997W        W63861  14.847   9.688  14.491 -0.0295  0.1623  0.1561
62998W        W63862  27.653  21.595  28.180 -0.0414 -0.2743  0.0756
62999W        W63863  20.911   7.957   5.800  0.1090 -0.0744 -0.0876
63000W        W63864  14.814  18.014  27.410 -0.1994  0.2175  0.0803
63001W        W63865   5.179  18.452   7.807 -0.1071  0.2199 -0.2258
63002W        W63866  28.378   8.179  21.260  0.0897 -0.4318  0.0346
63003W        W63867   7.032  26.526  24.637  0.1299  0.0028 -0.0578
63004W        W63868   2.610  26.352   7.054 -0.2073 -0.0884  0.3155
63005W        W63869  15.937   5.115  23.833  0.1518 -0.0015 -0.0825
63006W        W63870  25.259   5.493  10.165  0.1332 -0.0910  0.0917
63007W        W63871  25.913  13.547  24.359 -0.3683  0.1963  0.0611
63008W        W63872  18.705  21.916  12.087 -0.0459  0.1620 -0.0777
63009W        W63873  28.284   9.250   4.038  0.0488  0.1406  0.1356
63010W        W63874   7.992  14.528  22.188  0.3993 -0.1406  0.3108
63011W        W63875   7.896   1.245  20.512  0.0110 -0.2352  0.0403
63012W        W63876   7.399   3.590   8.663 -0.0912  0.0179 -0.0289
63013W        W63877  10.357  24.278  24.791  0.0093 -0.3276 -0.1082
63014W        W63878  19.546  28.438  14.664 -0.0626 -0.1330 -0.1962
63015W        W63879  18.984   0.546  13.296 -0.1385  0.1152  0.0241
63016W        W63880  13.546   1.281  14.404 -0.1903 -0.1028  0.1678
63017W        W63881  19.344   9.940  25.888 -0.2880  0.4214  0.2065
63018W        W63882  17.159   4.995  17.193  0.1216  0.1905 -0.0012
63019W        W63883  24.371  11.099   4.521  0.1030  0.0693 -0.0556
63020W        W63884  23.779  12.725  29.064  0.1002 -0.0355 -0.2259
63021W        W63885  16.035  13.593  15.198 -0.2201  0.0736  0.4195
63022W        W63886  26.049  18.617   0.208 -0.4006 -0.1418  0.3160
63023W        W63887  22.319  17.883  26.253 -0.0081 -0.0044  0.0530
63024W        W63888   5.131   3.977  13.789  0.1494 -0.0222  0.2067
63025W        W63889   1.157  11.425   3.165 -0.1356 -0.0433 -0.1883
63026W        W63890  26.731   2.312  20.874 -0.3808 -0.1581 -0.1452
63027W        W63891  27.973  24.018  14.127 -0.2249 -0.0044 -0.0160
63028W        W63892   1.821  10.917  20.548 -0.3893 -0.2237  0.1956
63029W        W63893  25.621  10.561   4.297  0.0297 -0.2724 -0.1318
63030W        W63894  19.400  12.161   3.929  0.0323 -0.2103  0.0772
63031W        W63895  15.056   7.605  21.240 -0.0451 -0.1422  0.3453
63032W        W63896  23.676   1.244   6.971 -0.0860  0.0692  0.1713
63033W        W63897   5.307  24.760  11.738  0.1333 -0.0947  0.1508
63034W        W63898  22.878   5.702  28.780 -0.0111  0.0031 -0.1695
63035W        W63899  12.066  11.171  12.258  0.2041  0.0214 -0.1575
63036W        W63900  12.539  26.741   2.165  0.0274  0.0010  0.0689
63037W        W63901  24.853  20.484   4.964  0.2661 -0.0135 -0.0339
63038W        W63902   3.258  13.492   6.215  0.2869 -0.0968  0.2280
63039W        W63903  13.767   6.530   6.516  0.1901 -0.0169  0.1735
63040W        W63904  17.894  24.833  14.793 -0.1420 -0.1855  0.1111
63041W        W63905  23.888  28.736  24.735  0.0982  0.1352 -0.2950
63042W        W63906  22.001  28.442   0.757  0.1303  0.0591 -0.0516
63043W        W63907  28.802  27.751   4.079 -0.1896 -0.0507  0.1771
63044W        W63908   6.783  28.622  23.748 -0.0473  0.0028 -0.1258
63045W        W63909   2.372  15.836  28.497  0.1329 -0.3415 -0.2480
63046W        W63910  16.106   1.304  21.334  0.0328 -0.0362  0.0794
63047W        W63911  12.122   3.205  11.671 -0.0822 -0.1545  0.0094
63048W        W63912  23.484  16.468  11.280  0.2849 -0.1782 -0.0432
63049W        W63913  25.196   4.136  26.156 -0.1664 -0.1875 -0.0530
63050W        W63914   6.522   7.175  23.316 -0.2134 -0.0563  0.0372
63051W        W63915  25.106   1.046  27.247  0.0371 -0.6083 -0.0026
63052W        W63916  28.603  16.321   2.547 -0.0190  0.0438  0.0254
63053W        W63917  21.759  20.833  14.436 -0.0434  0.2459  0.1943
63054W        W63918  27.314   7.845  23.708 -0.2237  0.5515 -0.1083
63055W        W63919   8.172  15.960  13.929 -0.0194  0.2191  0.1797
63056W        W63920  27.933  10.876  20.343 -0.1510  0.1224  0.0234
63057W        W63921  28.452   4.423   2.776 -0.1603  0.1545 -0.0014
63058W        W63922  10.256  17.476  25.605  0.0685 -0.4445 -0.3830
63059W        W63923  27.235   1.781   3.767 -0.1171  0.0841  0.2290
63060W        W63924   5.741   2.564   4.260 -0.0160  0.2425  0.3905
63061W        W63925   2.419  20.132   8.710 -0.1283  0.1258 -0.1620
63062W        W63926  29.034  12.180  13.508  0.0335  0.0454  0.0789
63063W        W63927   1.421  20.591  22.381 -0.2285  0.0900  0.0294
63064W        W63928   8.944   0.593  26.203  0.0518  0.2251 -0.1006
63065W        W63929  25.086  15.686  12.300 -0.0514  0.0875 -0.0263
63066W        W63930  19.943   8.740  28.804 -0.0296 -0.5060 -0.2162
63067W        W63931  14.404   1.300  25.871  0.2418 -0.0132 -0.0122
63068W        W63932  26.856  25.905  18.385 -0.2878 -0.0326 -0.0638
63069W        W63933  25.764   9.239  23.514 -0.0026 -0.1288  0.2562
63070W        W63934  17.071   7.638   6.055 -0.1065  0.4081  0.0947
63071W        W63935   1.668  22.470   0.917 -0.0490 -0.0927 -0.0194
63072W        W63936  19.930   9.906  15.318  0.0676  0.2095  0.2733
63073W        W63937  24.044   2.334  27.153  0.2810  0.0570 -0.1852
63074W        W63938   1.359  13.412  24.049  0.0522 -0.2047 -0.3962
63075W        W63939  15.361  28.737  23.233 -0.0954  0.2014 -0.0996
63076W        W63940   7.393  15.387   4.391  0.0165 -0.4817  0.1869
63077W        W63941  18.967  10.288  14.414  0.0881  0.3815  0.1531
63078W        W63942  12.434  10.358  25.990 -0.3060 -0.0067  0.2623
63079W        W63943  27.127   4.269   8.471  0.1367 -0.0740  0.0459
63080W        W63944  25.119  21.840  11.047 -0.1475  0.0533 -0.2646
63081W        W63945   0.309   8.714  19.527  0.0787  0.3087  0.1082
63082W        W63946   0.565  26.134  27.808 -0.0955  0.0495  0.1109
63083W        W63947   3.734  26.786  24.043  0.0349 -0.2614  0.2874
63084W        W63948  13.776  23.328  22.317 -0.1503 -0.3791 -0.1281
63085W        W63949  22.361   6.454   5.473  0.0281 -0.3805  0.1317
63086W        W63950  20.471  19.445   0.676 -0.1068  0.2176 -0.0824
63087W        W63951  21.454  15.786  25.686  0.2515 -0.0340 -0.0600
63088W        W63952  27.081  10.008   0.951  0.0169  0.0302  0.0891
63089W        W63953  22.922  27.694   8.957 -0.2950  0.0536  0.1148
63090W        W63954  26.551  17.957   1.034 -0.0648 -0.0315  0.5805
63091W        W63955  24.789  12.276  23.810  0.0135  0.2593  0.0683
63092W        W63956  28.090   8.019   8.532 -0.1151  0.0596  0.1497
63093W        W63957   0.655  10.176  10.134 -0.4200  0.0100 -0.1818
63094W        W63958  28.064   9.690  27.452  0.0086 -0.3628  0.2027
63095W        W63959   9.832  17.906  14.169  0.0317 -0.2058  0.0125
63096W        W63960  17.086  22.249  15.904  0.2063 -0.0381 -0.2567
63097W        W63961  17.979   9.207  18.271 -0.0289 -0.2627 -0.1737
63098W        W63962  19.326   1.128  25.581  0.1165  0.1068  0.0079
63099W        W63963  12.741  12.528   7.537  0.1406  0.0902  0.0193
63100W        W63964  26.841   7.292   9.797 -0.3176 -0.0783  0.2043
63101W        W63965  11.629   6.808   6.253  0.4308 -0.2477  0.1790
63102W        W63966  25.155   4.117   1.095 -0.3078  0.0508 -0.0747
63103W        W63967   7.883  25.001  25.721 -0.1864  0.0560  0.0763
63104W        W63968   6.496   7.355  16.330 -0.0087  0.0073 -0.1707
63105W        W63969   0.396   2.854   4.524  0.0938  0.0878 -0.0557
63106W        W63970  20.078   7.748  14.192  0.0972  0.2841 -0.0643
63107W        W63971  28.016  28.930   7.538  0.0560 -0.1544  0.1755
63108W        W63972  21.337  23.309  24.413  0.0835  0.1290 -0.0025
63109W        W63973  21.484   8.400  27.347 -0.0666  0.2390  0.0783
63110W        W63974  19.051  14.679   6.982 -0.0752 -0.2128  0.2892
63111W        W63975  27.244  24.472   7.743 -0.0974  0.1324 -0.2735
63112W        W63976   6.128  17.474  11.079 -0.3013 -0.0370 -0.0224
63113W        W63977  22.600  18.814  16.772  0.0978  0.2641 -0.1451
63114W        W63978   1.952  24.575   6.186  0.2273  0.1096 -0.1164
63115W        W63979  24.073   6.419  27.213 -0.0901 -0.0713 -0.2418
63116W        W63980  26.913  19.713  21.941 -0.0167 -0.2606  0.0462
63117W        W63981  18.484  25.129  29.069  0.1096 -0.1980  0.3807
63118W        W63982   3.734  12.381   9.224 -0.1174 -0.2327  0.0158
63119W        W63983  20.645   7.692  24.726  0.1137 -0.0102 -0.0028
63120W        W63984  23.362  14.011  15.012  0.1726 -0.2006 -0.0320
63121W        W63985  21.131  14.974  21.055 -0.2507 -0.0228  0.0655
63122W        W63986  16.562  13.794  26.895 -0.0783  0.2300  0.0753
63123W        W63987  20.947   3.948  20.141 -0.0052  0.4124 -0.1578
63124W        W63988  25.791   6.833  13.037 -0.1745 -0.0135  0.1466
63125W        W63989  21.882   3.505  25.959  0.0145  0.1938 -0.0473
63126W        W63990   8.748  23.447  21.839  0.0179  0.0899 -0.0699
63127W        W63991  13.209   7.973   6.208 -0.0409  0.1799 -0.2216
63128W        W63992   4.032  16.444  11.749  0.1242 -0.2531  0.1478
63129W        W63993   0.443   0.342   0.960  0.2309  0.0544 -0.1937
63130W        W63994   1.349  17.642  17.188  0.0091  0.0955  0.0977
63131W        W63995   9.522  16.940   5.008  0.0069 -0.2049  0.0303
63132W        W63996  27.149   2.396   7.932 -0.3594  0.3482  0.2633
63133W        W63997  26.247  25.229  29.036 -0.1965 -0.1804 -0.3421
63134W        W63998  19.715  20.483  13.164  0.1983  0.1118 -0.0735
63135W        W63999  18.196  25.907  21.333  0.2554  0.0179 -0.1932
63136W        W64000  28.610   5.503  28.187 -0.0057 -0.2579  0.0369
63137W        W64001  24.562   8.568  20.205 -0.1046 -0.1820  0.1016
63138W        W64002   1.978  27.293  27.391  0.0527 -0.0779  0.0016
63139W        W64003  24.413  10.982  28.303 -0.0099 -0.1347  0.0698
63140W        W64004   1.594   4.367  20.890 -0.1670  0.3560 -0.1211
63141W        W64005   3.774  25.205  21.455 -0.2336 -0.3520 -0.0542
63142W        W64006  13.162   0.544  25.968 -0.0405  0.0208  0.2035
63143W        W64007  24.906  12.311  18.251  0.0819 -0.0612 -0.0300
63144W        W64008  22.922  27.982  11.281  0.1146 -0.0192  0.3991
63145W        W64009  26.741  12.494  16.404 -0.0232  0.0386 -0.0647
63146W        W64010   2.193   5.407  11.986 -0.1408 -0.0337 -0.0034
63147W        W64011  15.152   0.634  18.017  0.3094 -0.0726 -0.1546
63148W        W64012  28.150  19.650   3.943 -0.1791  0.1485 -0.0542
63149W        W64013  21.466  13.759  20.399  0.1122 -0.0258 -0.0322
63150W        W64014  17.041   0.591   0.286 -0.1349 -0.0369 -0.1719
63151W        W64015  27.962   7.635  14.101 -0.0883 -0.1536  0.0313
63152W        W64016  24.778   4.779  18.936 -0.0801 -0.1477 -0.1115
63153W        W64017  27.251   4.217  15.637 -0.0634  0.0044 -0.2384
63154W        W64018  16.649   8.439  12.902  0.1463 -0.2072 -0.2341
63155W        W64019  27.234   3.449  18.748 -0.0123 -0.2817  0.2591
63156W        W64020  19.447   7.254   2.828 -0.1704  0.0239 -0.1118
63157W        W64021  20.674  12.285   0.264 -0.1353 -0.0355 -0.2009
63158W        W64022   3.705  10.092   4.302  0.0684  0.0788 -0.0131
63159W        W64023  27.023   7.805   7.492  0.1317  0.1214 -0.1182
63160W        W64024  28.168  24.191  21.423  0.1904 -0.0514  0.3096
63161W        W64025  24.454  26.910   3.411 -0.0570 -0.1597  0.0197
63162W        W64026  27.614   3.321   0.621  0.1841  0.0480  0.0819
63163W        W64027  19.295   9.555  17.412  0.0061 -0.0699  0.1443
63164W        W64028   0.471  25.445   0.956 -0.3825  0.0814 -0.0479
63165W        W64029   1.591   1.563   0.425  0.1445  0.0847  0.1077
63166W        W64030   0.920  22.044  23.667 -0.0995 -0.0716  0.1912
63167W        W64031  26.416  25.096  12.315  0.0111  0.3609 -0.2343
63168W        W64032  22.718   5.375  11.574 -0.1415  0.2748 -0.0807
63169W        W64033   9.195   5.873   8.470  0.0222  0.1975 -0.0631
63170W        W64034  12.560  19.561   1.944 -0.1070  0.2109  0.0870
63171W        W64035   0.164  22.133  25.078  0.0814  0.1807 -0.1369
63172W        W64036   9.431   6.226   0.564 -0.1013 -0.0485 -0.0776
63173W        W64037  23.432  12.461  18.779 -0.0660  0.1499  0.3187
63174W        W64038  22.024   4.648  14.607  0.0681 -0.0365  0.1769
63175W        W64039   7.208   9.260   4.095  0.0128  0.1529 -0.2742
63176W        W64040  21.050  15.439  21.426 -0.2340 -0.0531 -0.0702
63177W        W64041   0.400   4.369  16.034  0.0665  0.1113  0.0324
63178W        W64042  11.917   7.298  25.380 -0.3043  0.0966  0.4035
63179W        W64043  17.139   8.288  22.937 -0.0644 -0.2585  0.1163
63180W        W64044  21.348  11.713   1.382 -0.1562 -0.0705  0.1036
63181W        W64045  27.802   7.562   6.332 -0.4331 -0.0580  0.0179
63182W        W64046   2.645  11.676  23.472 -0.2051 -0.3547 -0.0529
63183W        W64047   1.513  11.334  21.998 -0.1181 -0.1106 -0.0135
63184W        W64048  23.428  25.226  25.725  0.0408 -0.3028  0.1864
63185W        W64049  19.303   0.451   6.447  0.0451  0.4063 -0.2699
63186W        W64050  19.849  16.907  26.444 -0.2025  0.1967 -0.0350
63187W        W64051  10.973  14.439  27.844 -0.1809  0.0283 -0.0244
63188W        W64052   4.532  16.342   8.713  0.0354 -0.0425  0.2697
63189W        W64053  11.564  10.813  25.621  0.0852 -0.1011  0.0366
63190W        W64054  27.893  23.134  23.938  0.3024  0.1073  0.0710
63191W        W64055   5.108   2.860   1.573  0.1139  0.3730 -0.0038
63192W        W64056  28.295   2.720  28.230  0.2727  0.0343  0.1425
63193W        W64057   4.098  15.568   0.507 -0.1539 -0.1673 -0.0106
63194W        W64058   8.534  13.624  23.632 -0.0744  0.3172  0.0686
63195W        W64059   4.073   6.065  19.273 -0.3175 -0.0917  0.0313
63196W        W64060  20.527  23.787  15.809  0.0390  0.2089  0.1297
63197W        W64061  16.844   7.214  15.237 -0.2931  0.1646  0.0719
63198W        W64062  18.952   2.746   0.845  0.0073  0.2010 -0.1677
63199W        W64063  25.906  27.139  25.232  0.0188  0.2162 -0.2357
63200W        W64064   0.092  10.120  19.929 -0.1957  0.2692  0.1907
63201W        W64065   2.400   0.496  22.711  0.4014 -0.1257 -0.0575
63202W        W64066  11.417  18.702  13.400  0.0548 -0.0739 -0.2132
63203W        W64067  16.664  13.839  15.153  0.0672  0.1799 -0.0767
63204W        W64068   0.165  28.846  18.308  0.1662 -0.1170  0.3312
63205W        W64069  23.682   0.122   8.565  0.2469  0.1238 -0.0989
63206W        W64070  18.840  18.056  17.602 -0.1377  0.0615 -0.0470
63207W        W64071  14.397   5.993  11.009 -0.0764  0.0459 -0.1333
63208W        W64072  27.838  20.730  27.566  0.0341 -0.2875  0.2144
63209W        W64073  24.758  21.807  20.906  0.0295 -0.0884  0.2800
63210W        W64074   5.533  11.615  19.034  0.0106 -0.1392 -0.1600
63211W        W64075  17.523  13.078  11.029 -0.3669 -0.1311  0.0403
63212W        W64076  27.303   3.838  15.272 -0.0464  0.0783 -0.1962
63213W        W64077  10.801  24.924  12.196  0.1115 -0.0140 -0.2117
63214W        W64078   3.129  15.685  25.277 -0.2606 -0.0444 -0.1272
63215W        W64079  10.746  26.820   7.888 -0.3298 -0.0767  0.2178
63216W        W64080  19.848  20.084  23.778  0.2379 -0.3926 -0.2897
63217W        W64081  21.482   8.412  24.027  0.1152  0.2577 -0.3744
63218W        W64082  14.077   8.075  17.729 -0.0576  0.0663 -0.3345
63219W        W64083  15.896  11.804  22.056  0.1330  0.0273  0.2463
63220W        W64084  18.232   4.197  25.495  0.2438  0.0173  0.0311
63221W        W64085  13.592   9.100  27.865  0.0979  0.0575 -0.3358
63222W        W64086  16.218   3.209   1.097 -0.1694  0.0149 -0.0021
63223W        W64087   1.140   9.662  18.997  0.1713 -0.2490  0.1911
63224W        W64088  18.387  13.539   3.594 -0.1523 -0.2067  0.3369
63225W        W64089  18.454  21.744  20.992 -0.0006  0.0891  0.0639
63226W        W64090  20.367   8.391   4.994 -0.0481 -0.0703  0.0471
63227W        W64091   2.955  27.004   0.575  0.0777  0.2837  0.1109
63228W        W64092   8.312   9.522   9.194  0.0112 -0.0521 -0.2132
63229W        W64093  24.052  27.852  25.436  0.0696  0.0796  0.2857
63230W        W64094  28.710   2.334   2.558  0.5627 -0.0690  0.2454
63231W        W64095   4.224  15.619  10.113 -0.2306  0.1658  0.0810
63232W        W64096  25.511  11.184   1.535 -0.4331 -0.1871 -0.1703
63233W        W64097   0.006  21.046  14.950 -0.2767 -0.0235  0.2848
63234W        W64098   2.168   7.447  23.608  0.1651 -0.1229  0.0433
63235W        W64099  19.022   2.925  23.201  0.2346 -0.1613  0.2306
63236W        W64100  28.640  11.993   8.384 -0.1521 -0.2475 -0.1857
63237W        W64101  17.328   2.371  15.161 -0.0806  0.0160 -0.3710
63238W        W64102  17.529   8.107   3.156  0.0895 -0.1451  0.3675
63239W        W64103  28.306   3.258  15.624 -0.0733  0.1108 -0.2704
63240W        W64104  19.021   4.235  11.570  0.2783 -0.1652  0.0855
63241W        W64105  23.442   2.846  25.556  0.0156 -0.1280 -0.0143
63242W        W64106  15.215  20.421  23.038 -0.2727  0.4483 -0.1702
63243W        W64107  20.299  17.642  25.886  0.0093 -0.1366  0.1353
63244W        W64108  27.649  27.883  17.912  0.1522  0.1547  0.0617
63245W        W64109  17.706  19.007   7.982  0.1905  0.0288  0.1147
63246W        W64110  27.321  11.698  20.114  0.1062 -0.0271  0.2472
63247W        W64111  20.931  27.012  16.879  0.2670  0.0654  0.2944
63248W        W64112  23.711  14.820   5.434  0.2026 -0.1052 -0.0762
63249W        W64113   7.213  23.578   1.994 -0.0875 -0.1327  0.0592
63250W        W64114  18.697   7.367   6.179 -0.1543 -0.0819 -0.1659
63251W        W64115  12.751  28.703  27.272 -0.1478  0.0727  0.0945
63252W        W64116  23.172  20.951   2.804 -0.1344 -0.0299 -0.2773
63253W        W64117  19.826   9.535  26.726 -0.0764 -0.2074 -0.1751
63254W        W64118   2.687  19.657  25.104 -0.0714  0.0111  0.0121
63255W        W64119  24.366  20.584  22.468  0.2356  0.0044  0.0208
63256W        W64120   2.385  26.436  28.178 -0.2475 -0.2624 -0.0442
63257W        W64121  14.084  17.946  15.023  0.2695 -0.1032  0.2371
63258W        W64122  23.471   8.390  13.577 -0.1941  0.2773 -0.2678
63259W        W64123  29.043  12.173   8.053  0.1872  0.2594  0.0158
63260W        W64124   3.331   6.563  21.818 -0.0133  0.1755 -0.0259
63261W        W64125  23.868  26.493  13.136 -0.0178  0.1745 -0.0057
63262W        W64126  24.312   7.745  15.867 -0.0912 -0.1677  0.3688
63263W        W64127  19.250   8.120  16.126  0.2216 -0.1500 -0.0588
63264W        W64128  23.698   4.936  11.136 -0.2476 -0.2190  0.0340
63265W        W64129  19.620  12.492   5.010 -0.0534 -0.1501  0.2151
63266W        W64130  26.593   0.312  10.515  0.0332 -0.2277  0.1190
63267W        W64131   8.949   9.056  27.692 -0.1137  0.0953  0.1665
63268W        W64132  11.031   6.579   1.405  0.0388 -0.1929 -0.0961
63269W        W64133   9.435  14.475  25.256 -0.1259  0.0425 -0.1147
63270W        W64134  23.764   3.998   0.790  0.0066  0.0311 -0.2322
63271W        W64135   4.632  23.952   7.683  0.1884  0.0145 -0.3434
63272W        W64136  16.602  15.115  22.097  0.0287  0.0475  0.0486
63273W        W64137  23.182  14.623  24.428  0.3283  0.0360  0.1381
63274W        W64138  16.289  17.556  23.008  0.0298  0.2408  0.0406
63275W        W64139   4.289  13.053   3.668  0.0957 -0.0770 -0.2529
63276W        W64140  13.959  14.589  27.609  0.2690 -0.0818  0.2538
63277W        W64141   0.585   2.355   3.773  0.1866  0.0704 -0.2418
63278W        W64142  19.777  12.714  22.500  0.0642 -0.5064 -0.1804
63279W        W64143  13.214  29.114  21.568 -0.0927 -0.0342 -0.2006
63280W        W64144  22.687  13.148  24.235  0.1323  0.0178 -0.1394
63281W        W64145  27.585   5.006   7.492 -0.0464  0.2018 -0.1214
63282W        W64146  14.028  25.622   7.872 -0.1680 -0.1743 -0.2423
63283W        W64147  22.940  15.154  26.413  0.0500  0.1445  0.1160
63284W        W64148   3.817  20.390   0.731  0.1827  0.0240  0.2970
63285W        W64149   5.455  14.701  27.825  0.0809 -0.1364 -0.3166
63286W        W64150   8.156  22.275   2.915  0.0784 -0.1359  0.0420
63287W        W64151   3.633   3.811  28.124 -0.1071  0.0278  0.2677
63288W        W64152   6.076  26.552  26.682 -0.0379 -0.2393  0.0807
63289W        W64153   2.288   9.463   2.642  0.0847  0.0701  0.0149
63290W        W64154  28.337   0.172  21.610 -0.1769 -0.0642  0.0519
63291W        W64155   7.270   1.663  16.427  0.1739 -0.1767 -0.0725
63292W        W64156  21.567  25.704  21.779 -0.1304  0.1357 -0.2031
63293W        W64157   0.766  12.335  23.202 -0.1624  0.5022 -0.4280
63294W        W64158   3.658   1.494  24.038  0.1384 -0.1180  0.3018
63295W        W64159  14.345   8.472  20.314 -0.0011 -0.2883 -0.1272
63296W        W64160  13.420  20.690   2.312 -0.2031 -0.0122 -0.0345
63297W        W64161   2.112   1.878   4.732 -0.4058  0.2639 -0.2002
63298W        W64162  12.082   4.519  10.844 -0.1308 -0.1287  0.2438
63299W        W64163  21.727  11.562  26.709  0.0633  0.1444 -0.1026
63300W        W64164  13.553  16.563  27.049 -0.0444 -0.1605  0.0761
63301W        W64165  12.804  19.466   8.948  0.0475 -0.1977  0.2064
63302W        W64166  18.571   4.763  15.402 -0.1760  0.0248 -0.0810
63303W        W64167   6.456  15.485  24.705  0.1527 -0.2393 -0.1329
63304W        W64168  14.250  15.004  17.122 -0.0829 -0.1608  0.0554
63305W        W64169   3.723  18.861   3.931  0.2604 -0.0236  0.1972
63306W        W64170   5.788   5.783   9.570  0.1473  0.0076 -0.0786
63307W        W64171  26.972  27.520   3.911  0.2811  0.2689 -0.0667
63308W        W64172   3.134  22.564  28.713 -0.0588  0.0764 -0.1053
63309W        W64173   7.162   0.162  25.201 -0.3641  0.0528  0.0112
63310W        W64174  15.893  13.721   2.461 -0.0246  0.1659  0.0972
63311W        W64175  19.187  13.696   9.786  0.1982  0.1926 -0.1068
63312W        W64176  14.691   2.542   6.418 -0.1557  0.3356 -0.1464
63313W        W64177  21.970  18.612  13.372 -0.2178  0.2800 -0.1438
63314W        W64178  14.687   7.556  27.689  0.1497 -0.1902 -0.3409
63315W        W64179  28.815   8.620   2.798 -0.1922 -0.3897  0.0252
63316W        W64180   5.177  10.375   0.243 -0.2380 -0.3233 -0.1411
63317W        W64181   4.276  27.843  15.979  0.2380  0.0833  0.1957
63318W        W64182  13.368  25.158  26.629 -0.0671  0.2667 -0.3513
63319W        W64183  24.915   2.963  13.070 -0.1512 -0.0786  0.0443
63320W        W64184   0.589  15.742   7.349  0.1365  0.0593 -0.1217
63321W        W64185   5.056  23.898  27.566  0.0034 -0.0892  0.1272
63322W        W64186  20.660   2.823  15.530 -0.0803 -0.1201 -0.1407
63323W        W64187  28.946   7.004  11.255 -0.1500  0.0255 -0.2492
63324W        W64188  13.153   0.472  23.952  0.4797 -0.0917  0.3085
63325W        W64189   9.696   7.418  20.941 -0.1591  0.0251  0.0237
63326W        W64190   9.170  13.897   7.098  0.3010 -0.1361 -0.3400
63327W        W64191  13.693  13.461   3.502  0.2303  0.1910  0.1948
63328W        W64192  16.164   2.529  19.221 -0.2004 -0.1243  0.0553
63329W        W64193  27.585   6.278  18.673 -0.1006  0.2156 -0.2540
63330W        W64194  15.868  26.548  19.340 -0.1961  0.2806 -0.2280
63331W        W64195   9.512  17.056  19.058 -0.1084 -0.0768  0.1473
63332W        W64196   9.243   6.712   7.858 -0.4012  0.0075 -0.0451
63333W        W64197  22.599  23.614  26.730 -0.0451  0.0306  0.2774
63334W        W64198   7.657  21.052   9.417 -0.1851  0.0075 -0.0601
63335W        W64199   7.385   6.158   7.577  0.1208 -0.0252  0.0013
63336W        W64200   6.581   7.448   0.802  0.2470  0.1299  0.0185
63337W        W64201   4.125   6.346  11.380 -0.1245  0.2163 -0.0335
63338W        W64202   1.494  18.979   3.148 -0.1522 -0.2935 -0.2615
63339W        W64203   3.591  17.595   0.030 -0.0096  0.4680  0.2299
63340W        W64204  11.079  22.766   6.793  0.0888  0.0039 -0.1885
63341W        W64205  15.419  20.449   9.285  0.1842 -0.4206 -0.0315
63342W        W64206   3.829   0.251  12.650  0.1238  0.0050 -0.1346
63343W        W64207   8.713  10.369  23.336 -0.0550  0.1496 -0.1833
63344W        W64208  17.228   7.041  25.244  0.0383 -0.2330  0.1232
63345W        W64209  20.001   8.534  23.602 -0.2195 -0.0272 -0.1417
63346W        W64210  26.571   7.416  22.206  0.2328  0.0969  0.1599
63347W        W64211  27.621   3.264   9.124  0.1326 -0.0202  0.0940
63348W        W64212   3.455   6.212   9.141  0.0360  0.2108 -0.0581
63349W        W64213  19.209   9.388  20.153  0.0490  0.0486 -0.2788
63350W        W64214   9.651  13.417  19.510 -0.0415  0.3716 -0.2992
63351W        W64215   9.828  18.483  25.562 -0.0795  0.1022  0.3481
63352W        W64216  15.080   4.248  25.916  0.1242  0.3115  0.2282
63353W        W64217  14.161   5.819  10.556 -0.1943 -0.4289 -0.0450
63354W        W64218   0.759  13.116  15.900  0.1990 -0.1482  0.0013
63355W        W64219  19.046   8.771  16.838 -0.0811 -0.4051  0.0597
63356W        W64220  11.389  11.325  23.672  0.0517  0.0689 -0.0883
63357W        W64221   0.066  28.585  27.784 -0.1820 -0.2577 -0.1374
63358W        W64222  27.643  14.079  21.970  0.1971 -0.1897 -0.0072
63359W        W64223   0.324   2.238   5.980  0.2137 -0.3561 -0.0697
63360W        W64224   7.489  28.134  22.742 -0.0694  0.2556 -0.2053
63361W        W64225  21.782   6.376  23.270 -0.1613  0.2916 -0.0801
63362W        W64226  28.060   9.515  12.606  0.0706 -0.1093 -0.1230
63363W        W64227  25.729  19.185  18.155  0.0889  0.2736 -0.2971
63364W        W64228  23.728   5.760  13.433  0.0668  0.0189 -0.2707
63365W        W64229  16.202  24.669   6.308  0.0574  0.2692 -0.1587
63366W        W64230  14.036  21.342  18.061 -0.0369  0.0469  0.0275
63367W        W64231  13.414   5.902   0.084  0.3091 -0.0738  0.1814
63368W        W64232  21.110   9.196  28.164 -0.0030  0.0800 -0.2041
63369W        W64233  23.407  11.048  25.569 -0.0464  0.0012 -0.2251
63370W        W64234  22.634  16.150   6.327 -0.0772  0.2565 -0.0826
63371W        W64235   2.958  17.312  21.735 -0.0791  0.0235 -0.1833
63372W        W64236   4.197  28.826  23.428  0.2528 -0.1182 -0.1784
63373W        W64237  24.937  13.797   0.889 -0.1903  0.1201  0.0523
63374W        W64238  23.127  11.298  16.226  0.0435  0.3114  0.1442
63375W        W64239  21.409   8.255   9.877 -0.0785  0.1886  0.1571
63376W        W64240  12.893   3.098  21.603 -0.3661 -0.0310 -0.0849
63377W        W64241   6.886   0.733   7.464  0.2731 -0.0736 -0.2181
63378W        W64242  16.716  21.471  26.143 -0.0430  0.2576  0.0169
63379W        W64243  25.112  23.347   2.449  0.4199  0.3553 -0.0996
63380W        W64244  11.523   5.973   9.255 -0.2327  0.1116 -0.0225
63381W        W64245  22.953   6.789  22.480  0.0998 -0.3695 -0.0377
63382W        W64246  23.593  13.725  23.062  0.0478 -0.0912 -0.1974
63383W        W64247  26.502  16.989  16.412 -0.0499 -0.3266  0.1982
63384W        W64248   6.631  19.170   5.552 -0.2607  0.0708  0.3751
63385W        W64249  18.123   3.379   3.955  0.0475  0.0567  0.0374
63386W        W64250  14.895  10.733  15.829 -0.2734 -0.1683 -0.1321
63387W        W64251  23.194   8.011  26.349  0.0176 -0.3157 -0.0949
63388W        W64252  24.821  17.201   1.050  0.2031  0.0436 -0.2985
63389W        W64253   2.988  26.768  28.695 -0.1843  0.1472  0.2941
63390W        W64254  14.209  17.021  24.643  0.1300 -0.0206 -0.0657
63391W        W64255   8.619  23.344   6.726 -0.1176 -0.3107 -0.0098
63392W        W64256   8.042  25.413  28.651  0.1926 -0.0300 -0.2065
63393W        W64257   2.192  10.080  21.364 -0.1908  0.1139  0.2436
63394W        W64258   6.129  25.429  26.489  0.5074 -0.1790 -0.0676
63395W        W64259  19.237  23.563  26.091  0.0629  0.0205  0.1531
63396W        W64260  13.976   8.441  24.143 -0.0383  0.0557 -0.0442
63397W        W64261  14.131  23.979   9.641 -0.0826 -0.1469 -0.0498
63398W        W64262  11.527   6.611   1.213  0.1117  0.1340  0.0221
63399W        W64263  29.097  12.282  22.136 -0.1915 -0.0095 -0.0690
63400W        W64264  12.983   5.526   4.122 -0.0096  0.0148  0.0171
63401W        W64265  23.380   4.318  12.395  0.0102 -0.1768 -0.2416
63402W        W64266  21.160   6.244   7.394  0.1944 -0.1406 -0.0736
63403W        W64267  16.373   0.473  28.389 -0.0649  0.0687 -0.0635
63404W        W64268   2.836   6.824   7.999  0.0668 -0.2808 -0.0405
63405W        W64269   3.260  21.375  25.382  0.1539  0.2937  0.2102
63406W        W64270   0.629  14.132   4.452  0.0346  0.3793  0.0932
63407W        W64271  16.429   6.941  28.408  0.0869  0.1960 -0.0188
63408W        W64272  23.153  27.286  23.660 -0.0383  0.1083 -0.2839
63409W        W64273  27.935   9.569   2.855 -0.0435 -0.1841  0.1223
63410W        W64274  18.711  23.909  13.323  0.0740  0.2349  0.0441
63411W        W64275  11.420   1.000  28.364 -0.1161  0.1052  0.1950
63412W        W64276  28.267   4.802  20.585 -0.0473  0.1021 -0.1617
63413W        W64277  22.250   3.163   1.688 -0.2839  0.2620 -0.0985
63414W        W64278  20.841   9.288  12.546 -0.0308  0.0004  0.1564
63415W        W64279   4.701  25.839  26.950  0.0679 -0.0507  0.0612
63416W        W64280  22.928   7.930   3.197 -0.1703 -0.1713 -0.0974
63417W        W64281  27.090  13.853  19.007  0.0022 -0.0501 -0.1540
63418W        W64282   1.680  14.683   5.163 -0.0564 -0.5310  0.1538
63419W        W64283  16.273  16.831  17.578 -0.3547 -0.0075  0.0643
63420W        W64284  14.168  12.908  28.339  0.1707  0.3799 -0.0935
63421W        W64285  27.723  24.444  28.469 -0.0130  0.1646 -0.1289
63422W        W64286  11.026  15.631  25.286  0.1616  0.1456  0.3622
63423W        W64287  26.568   8.615  11.384  0.0555  0.2814  0.0091
63424W        W64288   7.402  26.738  23.293 -0.2504  0.0599  0.1713
63425W        W64289  23.250  10.776  16.223 -0.0316  0.2271 -0.1332
63426W        W64290  19.490   3.496  10.934  0.0141 -0.4549  0.1231
63427W        W64291  14.932  11.376  23.636  0.0589  0.0277  0.4153
63428W        W64292   9.832  28.306  22.310  0.1157  0.1043 -0.3190
63429W        W64293  14.547  19.372   1.338  0.3041 -0.1165  0.1832
63430W        W64294  26.300  14.254  15.210 -0.2571  0.1561  0.0391
63431W        W64295  17.633  19.510  28.270  0.2571 -0.0535 -0.0277
63432W        W64296  20.428  26.648  27.830  0.1508  0.1236 -0.0436
63433W        W64297  13.228  15.409  24.864 -0.2035 -0.1772 -0.2254
63434W        W64298  27.087  11.665   5.179 -0.2615 -0.1019  0.0449
63435W        W64299   2.279  10.045  16.634 -0.2996 -0.1135  0.1475
63436W        W64300  13.906  10.834  12.578  0.1362 -0.0921  0.0912
63437W        W64301  18.840  15.348  18.916 -0.3479  0.0909 -0.3495
63438W        W64302   3.169  26.365  15.832  0.0729  0.4610 -0.0713
63439W        W64303   3.016   7.598  24.282 -0.3476 -0.2558 -0.1830
63440W        W64304  25.393   1.190   8.850  0.0944  0.2681  0.1199
63441W        W64305  11.938  21.855   7.548 -0.0105 -0.1280  0.2674
63442W        W64306  17.773  20.339   6.630  0.4029 -0.1080 -0.0286
63443W        W64307  16.428  16.738  26.090 -0.4062  0.0580 -0.1180
63444W        W64308  27.932  19.015   9.615 -0.1038 -0.1268 -0.2810
63445W        W64309   6.781  11.325   7.358 -0.0170  0.1213 -0.3112
63446W        W64310   7.664   5.186  14.763  0.0677  0.1632 -0.2044
63447W        W64311   9.015  15.284   7.457  0.2081  0.3005  0.1072
63448W        W64312  16.110  17.278   1.916  0.3185  0.1736 -0.3653
63449W        W64313  23.986  15.368   7.776  0.1793  0.2663 -0.2641
63450W        W64314  24.570  18.268   6.446 -0.1020 -0.0012  0.1383
63451W        W64315  11.637  13.672  17.091 -0.3057  0.0571  0.2076
63452W        W64316  21.157  26.958  11.836 -0.3483  0.2067  0.0077
63453W        W64317  27.350  18.546  28.454  0.0082 -0.5253 -0.4180
63454W        W64318  14.914   4.399  24.942 -0.0866 -0.2155  0.0410
63455W        W64319  12.538  25.069   6.015  0.0047  0.2046  0.0461
63456W        W64320  11.406  26.759  26.294 -0.0685  0.1159 -0.1231
63457W        W64321  27.635  12.260  28.003 -0.1025  0.0246 -0.0827
63458W        W64322  20.452  21.872   3.982  0.1982  0.4396  0.0006
63459W        W64323  19.221   4.610  10.760 -0.2832 -0.1808 -0.1375
63460W        W64324   5.046   8.903  27.021 -0.0999  0.1639  0.0990
63461W        W64325  15.869  23.104  24.923  0.1075  0.0606 -0.1551
63462W        W64326  12.727  29.030  18.818  0.2058 -0.0925  0.5458
63463W        W64327  18.804  19.357   2.645  0.2516 -0.1361 -0.1425
63464W        W64328  27.596  12.362   9.830 -0.1259  0.0029 -0.1378
63465W        W64329   4.710   5.137   2.205  0.0719  0.2433 -0.1728
63466W        W64330   2.135  20.823  23.070  0.3697 -0.1314  0.0138
63467W        W64331  21.120  25.252  13.174  0.2085 -0.0263 -0.0994
63468W        W64332  17.740  20.602   3.314 -0.1079  0.2354 -0.0255
63469W        W64333  25.368   2.352   2.430  0.0120 -0.2367  0.2920
63470W        W64334  29.017  27.344   6.622 -0.1777 -0.1219 -0.0194
63471W        W64335  26.754   7.429  17.581  0.0013 -0.2452  0.0309
63472W        W64336  28.240   2.656  11.475 -0.0931 -0.0449 -0.1347
63473W        W64337  22.287  15.318  27.837  0.0574 -0.1834  0.0903
63474W        W64338  12.949   9.683   1.192 -0.1591 -0.2679 -0.2534
63475W        W64339  19.014   7.529  15.737  0.1716 -0.2600 -0.1025
63476W        W64340  19.410  19.286  19.246 -0.1579 -0.1381  0.1255
63477W        W64341   5.072  11.370  17.823  0.0417 -0.1169 -0.2334
63478W        W64342   7.550  18.921  29.048  0.1563  0.1265 -0.1285
63479W        W64343  21.801  10.500  13.001  0.2489  0.3407  0.0125
63480W        W64344   8.735   9.846   5.109 -0.1904 -0.2575  0.2580
63481W        W64345   6.932  10.489  14.671 -0.3489  0.1195 -0.0817
63482W        W64346  19.222  13.646  19.854 -0.0624  0.0493  0.0555
63483W        W64347  10.822   4.219  15.117  0.0965  0.0822  0.0890
63484W        W64348  25.445   6.143   0.192 -0.0034  0.2454  0.4099
63485W        W64349  26.074  10.783   0.033  0.0355  0.2450 -0.0962
63486W        W64350  23.824   8.250  28.105 -0.1915  0.0318 -0.2418
63487W        W64351  17.537  11.875   7.826 -0.0127  0.2025 -0.0486
63488W        W64352  17.669   6.404  13.904 -0.0601 -0.1668  0.1775
63489W        W64353   0.111  15.329   3.781 -0.1267  0.2585 -0.1212
63490W        W64354   5.404   6.697  19.027 -0.0224  0.1483 -0.0160
63491W        W64355   2.994  23.174  23.934  0.3186 -0.3145 -0.0404
63492W        W64356  21.341  19.752  28.790  0.0636 -0.0204  0.3829
63493W        W64357  10.767  19.237  22.454 -0.1564  0.2566 -0.1048
63494W        W64358  19.901  19.223   3.490  0.1848  0.1283 -0.2026
63495W        W64359  14.058  26.385  14.886  0.2662  0.0898  0.4023
63496W        W64360  13.050  12.879   7.295  0.2651  0.0613 -0.1510
63497W        W64361   1.774  25.077  27.190 -0.2530  0.0532  0.1980
63498W        W64362  24.754  12.379  11.218  0.0417  0.3053  0.4954
63499W        W64363  27.143  25.929  17.149  0.2669 -0.1896  0.0227
63500W        W64364  13.671   1.759   1.790  0.0672 -0.0218  0.3205
63501W        W64365   2.287  25.923  21.853 -0.0078 -0.2398  0.0363
63502W        W64366   3.512  24.804   4.488  0.1273 -0.4434 -0.1102
63503W        W64367  26.627  22.417   5.134 -0.0071 -0.0615 -0.2108
63504W        W64368  25.033  12.431   7.193  0.1377 -0.0890 -0.3836
63505W        W64369  18.225   8.022   9.813  0.0828 -0.1651 -0.1329
63506W        W64370  25.450  10.983  28.175  0.4018  0.0092 -0.1350
63507W        W64371  27.818  26.477   9.229  0.1944 -0.0944 -0.0844
63508W        W64372  17.771  10.848  21.763  0.1894 -0.1095 -0.2002
63509W        W64373   2.381   1.662  28.576  0.0057  0.0376  0.0944
63510W        W64374  23.939  22.652  10.941  0.1988  0.0315  0.1417
63511W        W64375   9.659   5.296   5.981  0.3533  0.0907 -0.1143
63512W        W64376   8.158   2.995  19.927  0.1961 -0.0744 -0.0764
63513W        W64377  19.154   9.135  26.925  0.1869 -0.0959 -0.3372
63514W        W64378   2.947  12.905   5.808  0.1995 -0.0775 -0.0622
63515W        W64379  16.519   3.378  27.899  0.0215 -0.1029 -0.0215
63516W        W64380   9.564  28.141   9.310 -0.0749  0.2560  0.1129
63517W        W64381  17.022  15.863  28.442  0.2332 -0.2033 -0.2262
63518W        W64382   0.120  27.511  23.028 -0.1188  0.0160  0.2548
63519W        W64383  11.645  11.516  14.939 -0.2621 -0.2464  0.2757
63520W        W64384   1.352   4.679   3.338 -0.0093  0.1725  0.2524
63521W        W64385   0.801  19.291   0.489  0.0199  0.0427  0.0275
63522W        W64386  27.446  26.554   4.273 -0.2872  0.2640  0.0876
63523W        W64387   4.766  14.974   5.826 -0.0332  0.1364 -0.1401
63524W        W64388  16.260   6.906   5.586 -0.1886  0.2164  0.1980
63525W        W64389  19.958  13.427  10.840  0.2667  0.1979  0.1525
63526W        W64390  25.232  21.202   1.302 -0.1514  0.1264 -0.3220
63527W        W64391  27.215  10.269  28.009 -0.0356  0.1162  0.2162
63528W        W64392  15.978  12.198   7.105 -0.3040  0.1874  0.1126
63529W        W64393  19.913  20.478  28.754 -0.1639  0.2991  0.1514
63530W        W64394  28.514   0.575  26.473  0.0391 -0.2122  0.1582
63531W        W64395  21.021   5.203   6.563 -0.0237 -0.1392 -0.1241
63532W        W64396  18.098   9.564  16.589 -0.1873  0.0556 -0.1303
63533W        W64397   3.487   4.512  26.936  0.1766  0.1080  0.1740
63534W        W64398  20.802  16.810  24.902  0.0471 -0.0398  0.1397
63535W        W64399  27.618  23.000   5.880 -0.2620  0.0301  0.2494
63536W        W64400   7.026   2.526   9.862 -0.0607  0.1598 -0.1555
63537W        W64401  17.947  13.787   2.229 -0.0243  0.1260 -0.1007
63538W        W64402   6.123  16.046   9.836  0.3139 -0.0944 -0.1794
63539W        W64403  24.707  10.715   7.130  0.4685 -0.5457  0.0946
63540W        W64404  14.704  17.696  20.442  0.1637 -0.3401 -0.3293
63541W        W64405  18.722  12.587  19.136  0.1898 -0.0123  0.1151
63542W        W64406  23.673  14.980  12.174  0.2783 -0.1605 -0.4282
63543W        W64407   5.034   0.033  12.727 -0.2182  0.0652 -0.4279
63544W        W64408   7.407   7.103  18.881  0.1135  0.1511 -0.0687
63545W        W64409  19.513   1.722  17.246  0.2729  0.1475 -0.0605
63546W        W64410   1.640  22.535  28.652 -0.2552 -0.1063 -0.4172
63547W        W64411  25.640  11.498  15.833  0.0267  0.0084  0.0916
63548W        W64412  24.321  22.971   6.130  0.0814 -0.0158 -0.1008
63549W        W64413  13.407  21.018   1.821  0.0392 -0.0236  0.0272
63550W        W64414  28.335   8.500   1.442 -0.3014 -0.0001  0.0688
63551W        W64415  16.449  12.007  28.079  0.1439 -0.2834 -0.1621
63552W        W64416   9.008   3.017  15.019 -0.0626  0.1552  0.5590
63553W        W64417  18.257   6.274   6.348 -0.0993 -0.2273  0.1509
63554W        W64418  18.427   7.776   3.036 -0.0064 -0.3266  0.0986
63555W        W64419  22.984  23.695  22.009  0.1831  0.0455 -0.1661
63556W        W64420  28.058  16.455  22.308 -0.2106 -0.2695 -0.2283
63557W        W64421  21.882  22.801  15.415  0.0225  0.0614 -0.3861
63558W        W64422   9.901  23.771   2.668 -0.1041  0.0776 -0.2984
63559W        W64423  20.462  18.585  17.620  0.3267 -0.0283  0.0881
63560W        W64424   0.926  28.465  20.041 -0.0718 -0.2139  0.1166
63561W        W64425  28.856  26.822  27.195 -0.3884  0.2962  0.2343
63562W        W64426  15.675   0.694  10.483  0.1940  0.1905  0.0334
63563W        W64427  23.026  20.814  16.616 -0.2492 -0.1060  0.0093
63564W        W64428   9.936  10.736  27.051 -0.0101  0.1248  0.1197
63565W        W64429   2.238  10.361  24.454  0.0670 -0.1634  0.1714
63566W        W64430  15.132  23.829  26.954 -0.0282 -0.1622 -0.0970
63567W        W64431   4.454  18.567  25.376  0.2300 -0.4895 -0.1152
63568W        W64432   9.162  13.204   7.474  0.1528 -0.0169  0.1896
63569W        W64433  21.862   6.620  19.429 -0.1131  0.0370 -0.1016
63570W        W64434  21.637   7.321  28.770 -0.5903 -0.0586  0.2801
63571W        W64435  20.982   3.219  27.313 -0.2622  0.1134  0.3276
63572W        W64436  14.503   6.343  18.423  0.2342  0.2862 -0.1328
63573W        W64437   9.401  12.396  20.884  0.1885  0.0950  0.1278
63574W        W64438  24.539   5.666   4.353 -0.0439 -0.1187 -0.0866
63575W        W64439  26.880   6.724  10.805  0.1317 -0.0042  0.0072
63576W        W64440   9.797  18.650   2.703  0.0058 -0.1302  0.2038
63577W        W64441  14.565   7.842   1.103 -0.0918  0.3690 -0.0349
63578W        W64442   5.997  13.291  15.580  0.0307 -0.1790 -0.0724
63579W        W64443   9.707  16.513   0.752 -0.2970  0.2445  0.0526
63580W        W64444  19.509   8.684  13.783 -0.0121 -0.0192 -0.2165
63581W        W64445  20.033  23.460   3.149 -0.0873  0.2846  0.3926
63582W        W64446   1.806  13.858  19.223  0.2348  0.0456 -0.3647
63583W        W64447  14.886   9.924   1.525 -0.3520 -0.1233  0.1979
63584W        W64448   5.187  22.395  22.700 -0.0671 -0.0741 -0.0233
63585W        W64449   6.072   9.836  27.364 -0.0477 -0.0994 -0.2801
63586W        W64450  14.954  22.586   6.861 -0.0385 -0.0894  0.2191
63587W        W64451  20.828   9.336  20.041 -0.1784 -0.3274 -0.2970
63588W        W64452  21.430  16.339  12.348 -0.0578 -0.2931  0.1013
63589W        W64453   7.124  24.923  26.799  0.1385  0.2174  0.3801
63590W        W64454  11.897  10.970  26.537  0.0978 -0.1830  0.1786
63591W        W64455  16.911  13.632   4.044 -0.2057 -0.0203  0.1330
63592W        W64456  15.772  23.362   1.323 -0.0687 -0.2057 -0.2140
63593W        W64457  21.082  21.266  10.535  0.1855  0.1964 -0.2054
63594W        W64458  20.316  15.468  15.529  0.1143 -0.0771 -0.1065
63595W        W64459  22.388  15.315  22.792 -0.2070  0.1894 -0.1294
63596W        W64460  24.067  15.372  17.843  0.3620 -0.1317  0.2200
63597W        W64461  18.068  12.124   2.698  0.0900 -0.1401  0.5318
63598W        W64462  18.172  11.631   4.180 -0.1824  0.1427  0.1605
63599W        W64463  19.254  18.661  17.058  0.1970 -0.0408 -0.1760
63600W        W64464   4.715  22.306   0.110  0.0248 -0.1554  0.0565
63601W        W64465  24.920  18.840  13.003 -0.1281 -0.1395  0.0217
63602W        W64466  20.137   6.112  27.297 -0.2056 -0.2542 -0.1922
63603W        W64467   0.075  22.890  23.331 -0.0131 -0.0704 -0.0107
63604W        W64468  25.703  21.259  28.376 -0.0728  0.1544  0.1648
63605W        W64469   0.339  22.679   9.768  0.0355  0.1701  0.1061
63606W        W64470  28.734  14.671  19.193 -0.2589  0.3249  0.1568
63607W        W64471  16.749  13.893  25.489  0.0852 -0.0634  0.1950
63608W        W64472   2.447   8.432  28.317 -0.0779 -0.0427  0.1134
63609W        W64473   5.811   3.551  25.004 -0.0007 -0.0636  0.3328
63610W        W64474  15.743  15.908   4.494 -0.0355 -0.3182 -0.1082
63611W        W64475  29.045   2.496  26.534  0.2117 -0.1614  0.1589
63612W        W64476   8.119   4.834  13.284  0.0278  0.1615  0.0575
63613W        W64477  27.199   1.372  25.672 -0.0349  0.2157 -0.1680
63614W        W64478  23.281  27.495  20.660 -0.1428 -0.0314 -0.3079
63615W        W64479  17.100  15.451  29.040 -0.1922 -0.4545 -0.1171
63616W        W64480   9.719  12.966  23.704  0.5490  0.0360 -0.0742
63617W        W64481  16.935   3.111  24.541  0.0996  0.2253  0.0860
63618W        W64482  13.344  23.346  22.621  0.1770  0.2655 -0.0155
63619W        W64483   2.138   4.556   3.010  0.3648 -0.1272 -0.0006
63620W        W64484  26.592  17.768   4.299 -0.1517 -0.2815 -0.2654
63621W        W64485   5.082  12.643  22.465  0.1046 -0.0844  0.0694
63622W        W64486  23.112  15.215   8.102 -0.1638  0.0441  0.3941
63623W        W64487   7.226  19.108   1.512 -0.1790  0.1685  0.1745
63624W        W64488  16.711  26.378   5.059  0.0775  0.2126 -0.0237
63625W        W64489   3.886   1.797   9.846 -0.1592  0.0217 -0.1751
63626W        W64490  20.685   1.034  17.825 -0.0072  0.0368 -0.0689
63627W        W64491  15.976  16.951  24.455  0.1220  0.1591  0.0060
63628W        W64492  25.465   9.191  19.117 -0.2715 -0.0943 -0.1523
63629W        W64493  26.803   6.005  15.985  0.1359 -0.1887 -0.1776
63630W        W64494  23.462  17.828  16.090  0.0281 -0.1574  0.5238
63631W        W64495   3.568   3.419  24.126 -0.3530  0.2466  0.0488
63632W        W64496  16.002  18.183  17.532 -0.3941 -0.2334 -0.2631
63633W        W64497  26.386   2.637  19.609 -0.1072  0.0444  0.1205
63634W        W64498  12.815   2.558  18.439 -0.0811 -0.0430  0.1407
63635W        W64499  23.986   3.074   0.544 -0.1798 -0.0473 -0.1231
63636W        W64500   1.182   1.196  11.375  0.0652  0.0029  0.3687
63637W        W64501  20.453  21.228   9.330 -0.0235  0.2752 -0.2576
63638W        W64502  23.880  23.506   1.661  0.2791 -0.0574  0.3375
63639W        W64503  16.064   0.620  27.865  0.1930 -0.1586  0.1365
63640W        W64504  28.840   7.344  27.938 -0.2911 -0.0545 -0.1992
63641W        W64505  17.651  22.642   3.560 -0.2137 -0.1424 -0.1298
63642W        W64506  26.136  15.741   2.108  0.1700  0.0177 -0.0365
63643W        W64507  27.989   8.395  21.487  0.1162 -0.0967  0.0613
63644W        W64508  25.874   9.611  26.674 -0.0540 -0.0710 -0.2071
63645W        W64509  13.885  17.366  28.766  0.2597  0.1789 -0.1447
63646W        W64510   9.931  10.913  14.080  0.5209 -0.2435  0.1863
63647W        W64511  24.854   2.273   9.327  0.1567 -0.0802 -0.0589
63648W        W64512   5.073  26.927  13.168 -0.0757  0.0812  0.0211
63649W        W64513  26.726  14.679  20.065 -0.3408 -0.0391 -0.0121
63650W        W64514  14.676  17.666   1.164 -0.2482 -0.4095 -0.3058
63651W        W64515   5.713  21.304  12.279  0.0886 -0.0606 -0.3460
63652W        W64516  26.886   7.557  15.510 -0.0055  0.1364 -0.0284
63653W        W64517  23.526  17.117   4.633 -0.0671 -0.0749  0.0027
63654W        W64518  25.092   2.726   9.432  0.3479  0.0372  0.2789
63655W        W64519  11.342  16.840  16.283 -0.3370  0.0746 -0.0762
63656W        W64520  18.760  21.691  26.133 -0.1079  0.1261  0.1329
63657W        W64521  24.033  14.471  22.537  0.0399 -0.0082  0.4241
63658W        W64522  15.726  15.948  27.323  0.1547 -0.3980  0.2988
63659W        W64523  12.254  23.068   4.311  0.2008 -0.1016  0.0443
63660W        W64524  23.114   5.161   4.587  0.1111  0.2267  0.0178
63661W        W64525   9.655  10.828  22.441 -0.0210  0.0301 -0.1477
63662W        W64526  22.529   5.431  23.097  0.1252 -0.0824 -0.0606
63663W        W64527  21.560  18.215  20.756 -0.1263  0.3557 -0.0545
63664W        W64528  27.666   0.678  22.861 -0.0038 -0.2242 -0.0039
63665W        W64529  10.938  16.836   3.427  0.1720 -0.1316 -0.3555
63666W        W64530  22.064   8.549  16.337 -0.0021 -0.0474 -0.1477
63667W        W64531  16.204  10.854   9.574 -0.0415 -0.1676  0.0674
63668W        W64532  27.606   3.157  17.492  0.3387 -0.0036 -0.0779
63669W        W64533  21.805   9.984  12.845 -0.1520  0.4348 -0.0846
63670W        W64534  11.794  11.640  11.220 -0.1992 -0.0893  0.1382
63671W        W64535  24.479   2.588  26.060 -0.1073 -0.1725  0.1673
63672W        W64536  22.225  14.952  25.609  0.1776  0.2217 -0.0122
63673W        W64537  26.812  11.755   0.873 -0.3763 -0.0642  0.0985
63674W        W64538  17.863  20.694  14.901 -0.0850 -0.0337 -0.2308
63675W        W64539  13.618  19.241   7.397 -0.1242  0.1884  0.3957
63676W        W64540   6.839  14.664  17.170  0.0638  0.1258  0.4567
63677W        W64541  15.736  23.444  26.560 -0.1393 -0.0521 -0.0756
63678W        W64542  13.888  21.363  11.346  0.1595  0.2985  0.0341
63679W        W64543  20.439   5.258   7.845  0.1040 -0.0869 -0.0608
63680W        W64544  10.185   8.247  11.790 -0.0918 -0.0441 -0.2009
63681W        W64545  28.481  15.983  22.228 -0.3619  0.0571 -0.0630
63682W        W64546   5.273   3.221   4.769  0.1092 -0.0613 -0.0924
63683W        W64547   4.809  17.875   9.104  0.0208 -0.0409 -0.1038
63684W        W64548  24.011  17.394   5.684  0.1305 -0.0528  0.0396
63685W        W64549  25.629  18.709   2.377  0.4616 -0.1120 -0.2480
63686W        W64550  26.092   4.799  14.256  0.0066  0.3644  0.1046
63687W        W64551  21.850  25.768   8.912 -0.0878 -0.1444  0.1844
63688W        W64552  17.164  11.645   6.726 -0.0181  0.2465 -0.2209
63689W        W64553   0.130  10.344   8.499 -0.0465  0.1527 -0.1201
63690W        W64554   1.556  25.332  12.282  0.4161  0.0089  0.0085
63691W        W64555   0.193   9.145  26.770  0.4105  0.0608 -0.1301
63692W        W64556  24.259  28.691  20.993  0.1340  0.0952  0.1357
63693W        W64557  13.908  16.728  12.881 -0.0503 -0.0614  0.1456
63694W        W64558  13.549  15.115   2.373  0.0834  0.0742  0.2205
63695W        W64559  24.169  15.833  23.797 -0.0988 -0.2059  0.1411
63696W        W64560  18.659  26.087   9.715  0.0960  0.4100  0.0014
63697W        W64561  24.218   4.897   7.954 -0.1444 -0.1522  0.2112
63698W        W64562  24.387   2.047   0.547 -0.1919  0.2894 -0.1066
63699W        W64563  25.556  18.565   3.701  0.0253  0.1205 -0.2698
63700W        W64564   5.533   2.911  19.833 -0.1544 -0.1416  0.2314
63701W        W64565  25.891  24.560  23.888  0.1054  0.2440  0.1895
63702W        W64566  27.756  11.459   5.754 -0.2609  0.1357  0.2709
63703W        W64567  19.831  23.538   8.390  0.0017 -0.2737  0.2307
63704W        W64568   0.471   8.723  26.578 -0.0760 -0.0444 -0.0520
63705W        W64569  11.931  11.097  17.211  0.1415 -0.1919 -0.1462
63706W        W64570   0.052  11.803   9.105  0.1001 -0.3372 -0.1930
63707W        W64571  11.180  16.684   7.621 -0.2607  0.0235  0.1281
63708W        W64572  26.664  24.547  14.647 -0.3000 -0.0287 -0.0615
63709W        W64573   8.375  10.777   2.005 -0.1369 -0.1519 -0.0061
63710W        W64574  14.208   1.446   5.440 -0.0474 -0.0297  0.0212
63711W        W64575   5.340  28.880  23.739 -0.2028  0.0035  0.3348
63712W        W64576   9.326   6.554  27.400  0.2128 -0.2233 -0.0299
63713W        W64577  12.966   8.374   5.198  0.0203  0.1209 -0.0509
63714W        W64578  19.884   8.756  27.840  0.1703 -0.4263  0.0681
63715W        W64579   5.174   3.739   7.561  0.1428 -0.1311 -0.1600
63716W        W64580  19.372   8.759   5.119  0.1088 -0.2032  0.0454
63717W        W64581   9.586   1.456  25.801  0.1545  0.0716  0.0989
63718W        W64582  25.432  14.010   5.700  0.2439  0.2214  0.1177
63719W        W64583  22.453   3.038   2.958  0.2996  0.1807 -0.3025
63720W        W64584   1.835  18.522   3.237 -0.0537 -0.5398 -0.1062
63721W        W64585  10.110  24.626   6.347 -0.1274 -0.2866 -0.1678
63722W        W64586  22.317   4.314   6.428  0.5665 -0.0503  0.0380
63723W        W64587   5.489   8.189  27.300 -0.0582  0.3267  0.3345
63724W        W64588  17.297  19.780   6.963  0.0494  0.1623  0.0257
63725W        W64589  26.811  25.890  17.862 -0.0531 -0.2766 -0.0336
63726W        W64590  24.290  18.441   0.088  0.1142  0.1872 -0.0601
63727W        W64591  16.548  20.210   2.494  0.0489 -0.2149 -0.2597
63728W        W64592  25.786  17.120  26.179  0.1203  0.1322 -0.0466
63729W        W64593  25.579  10.810  11.306 -0.1504 -0.1544 -0.0095
63730W        W64594   3.842   3.730   0.882  0.3580  0.0615 -0.2491
63731W        W64595   2.132  11.149  20.183  0.1514  0.1022  0.1488
63732W        W64596  28.873   6.124   4.684 -0.2553 -0.0257 -0.0049
63733W        W64597   2.272  25.822  12.769  0.2052  0.0883 -0.1647
63734W        W64598  27.250  25.960  20.006 -0.2026 -0.0428 -0.1481
63735W        W64599  26.660  18.862  12.340  0.0315 -0.0648  0.1668
63736W        W64600  23.650   9.765  27.951  0.1004 -0.2809  0.2799
63737W        W64601   1.806  11.337  28.777  0.0556  0.1018  0.0929
63738W        W64602  24.045  14.108  28.395  0.2236 -0.0578  0.0382
63739W        W64603   3.669   6.162  13.791  0.0103  0.3909  0.0845
63740W        W64604  16.047  20.572  15.227 -0.1262 -0.0166  0.2961
63741W        W64605   2.643   4.469   0.928 -0.1886  0.1678  0.1742
63742W        W64606   6.565  25.870  25.618  0.2393 -0.0291 -0.2089
63743W        W64607  21.996  14.984  26.459  0.1909 -0.0877  0.2005
63744W        W64608  12.898   6.916  29.015 -0.0126 -0.1260 -0.2058
63745W        W64609  24.732   7.878  13.534 -0.0843 -0.1942 -0.0195
63746W        W64610  25.247  10.657   9.902  0.3489  0.3127  0.0007
63747W        W64611  28.279  25.156  23.279  0.1510 -0.1116 -0.1319
63748W        W64612  24.051  21.592  12.288  0.0334  0.0950 -0.0810
63749W        W64613   0.927  12.959  14.212 -0.2633  0.0760 -0.0848
63750W        W64614  14.478  11.988   9.850  0.1801  0.1512 -0.1609
63751W        W64615   3.776  28.307   3.808  0.0294  0.0987  0.1437
63752W        W64616  13.327   3.322  23.232 -0.0231  0.0599 -0.2098
63753W        W64617   6.953  19.549   6.708 -0.1513  0.1109 -0.2210
63754W        W64618   4.937  26.633   3.588 -0.0120 -0.0187  0.1521
63755W        W64619  12.525   4.796  16.535 -0.3148  0.0335 -0.2602
63756W        W64620   9.780  22.606   9.927 -0.1527  0.2242  0.0492
63757W        W64621  17.786  19.063  16.404 -0.0048  0.0140 -0.0134
63758W        W64622  13.476  14.493  12.800 -0.0013 -0.1539  0.0020
63759W        W64623   3.310   8.961  16.545  0.1136  0.1800  0.1284
63760W        W64624  20.729  12.394   1.398  0.0811  0.0289 -0.0481
63761W        W64625   1.496  10.867   4.814  0.0463  0.4362 -0.1398
63762W        W64626  25.377   4.188  12.138 -0.0046 -0.1180  0.0561
63763W        W64627  14.515   9.585  10.620  0.1284 -0.0184  0.0328
63764W        W64628  19.460  19.793  25.529  0.1037  0.0552 -0.0035
63765W        W64629   3.863  21.557  11.546  0.1061  0.2508  0.2372
63766W        W64630  19.278  24.373   1.278  0.3395 -0.1570  0.0463
63767W        W64631  23.302  11.139   0.499 -0.0879 -0.1449  0.1014
63768W        W64632  10.553  19.110  18.830 -0.0935  0.1864 -0.1401
63769W        W64633  26.824   6.940  12.470 -0.2350  0.3707 -0.2379
63770W        W64634  11.983  21.682   6.576  0.0847  0.0890 -0.1316
63771W        W64635  22.071   5.818  11.269  0.3094  0.1005 -0.1488
63772W        W64636   1.856  11.423  21.179 -0.0553  0.1238  0.2408
63773W        W64637   4.536   1.924  25.615  0.1995  0.0103  0.1527
63774W        W64638  11.474   0.247   3.245  0.0233 -0.0582 -0.0661
63775W        W64639   7.733   0.644  27.197  0.0017 -0.3396 -0.0492
63776W        W64640   3.302  23.909  29.004 -0.0391 -0.0264 -0.0529
63777W        W64641  25.348   7.386  12.379 -0.3814 -0.1542 -0.0418
63778W        W64642  20.211  20.441  10.295 -0.2227 -0.2425 -0.2939
63779W        W64643   1.740  20.777  27.199 -0.0022 -0.4184 -0.1497
63780W        W64644  26.819  23.181  19.508 -0.1234  0.1079 -0.1375
63781W        W64645  18.780   4.414  24.754 -0.2037  0.0644  0.0842
63782W        W64646  24.627  27.069  23.678  0.2858  0.0719 -0.0072
63783W        W64647  12.597   4.646   1.483 -0.1685 -0.0838 -0.0062
63784W        W64648  13.582  19.324  14.663 -0.1020  0.2229  0.2862
63785W        W64649   2.263  23.946   0.098  0.0648 -0.1219  0.3869
63786W        W64650  24.825   3.173  27.895  0.1077 -0.0467 -0.0883
63787W        W64651  15.490   7.385  28.748 -0.0344  0.2098  0.0823
63788W        W64652  27.094   2.183   2.123  0.0180 -0.1440  0.0369
63789W        W64653   4.791  13.284   8.531 -0.0716 -0.2809 -0.0527
63790W        W64654  13.992   9.182  28.689 -0.0664  0.2083 -0.2512
63791W        W64655  17.939  14.239  10.857  0.0083 -0.1649 -0.1454
63792W        W64656   8.301  15.702   7.897  0.0470  0.1207 -0.2666
63793W        W64657  10.165   7.649  26.115 -0.2106 -0.2818  0.2207
63794W        W64658  27.229  12.570  28.608  0.2696  0.1213  0.0061
63795W        W64659  25.019   5.079  24.773 -0.0621 -0.4185  0.0923
63796W        W64660  19.703  23.354  14.195  0.1272 -0.0780 -0.0822
63797W        W64661  12.379   9.107  14.689 -0.0368 -0.0994  0.1308
63798W        W64662   6.507   7.659  13.488 -0.0674  0.1066  0.0385
63799W        W64663  14.869   5.976  16.120  0.1177  0.1132  0.0784
63800W        W64664  24.445  12.239   3.632  0.0871  0.0016 -0.0939
63801W        W64665  20.041   4.557  26.214 -0.1420 -0.2306  0.1135
63802W        W64666  12.022  14.735  11.626 -0.0901 -0.1404  0.4820
63803W        W64667  17.341  25.196   3.949 -0.1145  0.1706  0.1314
63804W        W64668  10.565  14.557   7.706 -0.0731  0.0561 -0.2818
63805W        W64669  21.974   2.329   3.433  0.3987 -0.2252  0.2711
63806W        W64670   0.311  11.132  22.271  0.2959 -0.3206  0.0069
63807W        W64671  20.844  13.446   7.793 -0.1593  0.2104 -0.0324
63808W        W64672  18.227  24.049   9.280 -0.4006 -0.1182 -0.2278
63809W        W64673   3.710  26.541   4.551 -0.0823 -0.0705 -0.0597
63810W        W64674   7.533   9.715   6.217  0.0516 -0.0760 -0.0923
63811W        W64675  21.561   8.752   8.788  0.0641  0.1268  0.0683
63812W        W64676   5.846  13.205  26.293  0.2563 -0.0927  0.3449
63813W        W64677  16.325  27.744   5.391  0.2671  0.1773 -0.0418
63814W        W64678  26.317   4.154  22.047 -0.1764  0.0766 -0.1980
63815W        W64679  12.593  16.848  23.803 -0.0949 -0.0701 -0.1642
63816W        W64680   2.939   6.919   0.548 -0.0514  0.2621  0.1070
63817W        W64681   2.045  26.561  25.178 -0.2150  0.0433  0.1597
63818W        W64682   3.968  18.411  22.371 -0.0293 -0.3744  0.1556
63819W        W64683  22.295   1.934  26.075 -0.1077 -0.4070  0.4270
63820W        W64684   9.641  19.138   7.666 -0.2024 -0.0787  0.2348
63821W        W64685   3.468   8.724  18.598 -0.1448  0.1285  0.0957
63822W        W64686  21.921   3.696  15.462 -0.3102  0.0524 -0.0792
63823W        W64687   6.986  16.841   2.245 -0.0713 -0.0869 -0.1897
63824W        W64688  12.498  18.171  16.267  0.1210  0.1108 -0.3185
63825W        W64689  17.539  12.530  14.452 -0.3047  0.1751  0.4078
63826W        W64690  11.212  17.122   4.927  0.3073 -0.0949 -0.1742
63827W        W64691  16.092   9.828   9.757 -0.1949  0.0866 -0.1626
63828W        W64692  13.034   6.198  27.245  0.1196 -0.0851 -0.3081
63829W        W64693  22.270  17.705   2.168  0.3185  0.1285 -0.1218
63830W        W64694   5.894  20.010  25.388  0.0155  0.0609 -0.1047
63831W        W64695  14.534  12.130   8.430 -0.0825 -0.0495 -0.1030
63832W        W64696   3.323  10.098   2.045  0.1095  0.0159  0.1309
63833W        W64697  20.727  10.908  18.152 -0.0999 -0.1593  0.1712
63834W        W64698  14.724   3.653   1.562 -0.1009 -0.1317  0.0903
63835W        W64699   5.766  28.555   8.849 -0.2908  0.1188  0.1434
63836W        W64700  22.964  19.551  22.225  0.0860 -0.0755  0.1284
63837W        W64701  24.818  19.298  15.067  0.1771  0.0850  0.4104
63838W        W64702   8.385  24.571  11.760  0.2068  0.0201 -0.0353
63839W        W64703  17.598   2.747  20.627  0.0569  0.0210 -0.4288
63840W        W64704  20.687   8.698  11.719 -0.1668 -0.2484  0.2672
63841W        W64705  20.447  24.378  10.512  0.1394  0.2040  0.0223
63842W        W64706  25.427  19.547   0.286  0.2314  0.0649  0.1201
63843W        W64707  18.368  20.006   4.217 -0.0174  0.0241  0.3002
63844W        W64708  20.661  18.040  19.107  0.1766 -0.3914 -0.0401
63845W        W64709   3.269   7.714  22.755  0.3932  0.0242  0.1329
63846W        W64710  10.426  20.003  22.461 -0.0068 -0.1407 -0.0647
63847W        W64711  15.476   1.867   9.801 -0.2448  0.3075 -0.0585
63848W        W64712  11.831   0.546  24.116 -0.2152 -0.0586  0.4957
63849W        W64713  27.853   8.326  12.151 -0.1683  0.0391  0.2199
63850W        W64714   6.073   5.337   8.627  0.2795  0.0185 -0.1609
63851W        W64715  10.841  25.723   0.944 -0.4003 -0.0760 -0.2042
63852W        W64716  29.006  19.581  24.787  0.1670  0.1647  0.0006
63853W        W64717  17.254   1.189   4.035 -0.0166  0.0074 -0.4164
63854W        W64718   2.154  12.336  27.218  0.0352  0.1910 -0.0457
63855W        W64719  16.673   0.008   5.029 -0.4108 -0.0711 -0.2473
63856W        W64720  10.564  25.144  24.676 -0.1948  0.1478 -0.0106
63857W        W64721   0.920   2.667   7.323  0.1633 -0.0558 -0.2315
63858W        W64722  22.680  10.490  28.836 -0.0281  0.2520 -0.1290
63859W        W64723   4.527  18.202  24.496 -0.1700 -0.3426 -0.0455
63860W        W64724  22.825   7.136  24.850 -0.0999  0.0840  0.1371
63861W        W64725  11.915  20.615  27.230 -0.1835 -0.1719  0.1652
63862W        W64726   9.045   3.900  12.609  0.0933  0.1210  0.1058
63863W        W64727   8.656  14.853  20.992 -0.0878  0.0924  0.1243
63864W        W64728   3.281   3.122   7.361  0.0998  0.0683  0.1890
63865W        W64729   7.842   4.941   2.402 -0.0293  0.0490  0.1076
63866W        W64730  23.139   2.951   4.761 -0.1145  0.0283  0.2941
63867W        W64731  28.847  18.377  16.843  0.2905 -0.1816  0.0332
63868W        W64732  14.728  23.493  27.510  0.0966 -0.2478 -0.0021
63869W        W64733  25.343  11.689  23.210  0.2578  0.2139  0.3251
63870W        W64734  27.063   9.856   4.199  0.0026  0.2260  0.0952
63871W        W64735   5.537  17.122  28.118  0.3447 -0.0596 -0.4185
63872W        W64736  21.080   9.318  28.735 -0.0378 -0.0002 -0.0694
63873W        W64737   3.342   9.728  15.673 -0.0249  0.0848  0.0261
63874W        W64738  11.443   6.777  17.424  0.0115  0.2888  0.0024
63875W        W64739   2.257  15.488   7.838 -0.0963 -0.1910  0.1939
63876W        W64740  27.453   9.840   3.836 -0.1066  0.0015 -0.1341
63877W        W64741   6.381  23.324   6.762 -0.0576  0.3538 -0.3129
63878W        W64742  15.723   5.796  11.280 -0.2157  0.1512 -0.0308
63879W        W64743  17.278   3.656   0.931 -0.0705  0.2414  0.0672
63880W        W64744  25.589  24.078  19.461  0.1925 -0.1650  0.3648
63881W        W64745  25.797   7.669  20.898 -0.1355 -0.2077 -0.3199
63882W        W64746   6.313  16.773  20.145  0.0245  0.2877 -0.1463
63883W        W64747  10.968  12.009  18.033 -0.0782 -0.2538 -0.1687
63884W        W64748  21.956  17.060  10.444  0.0196 -0.1143 -0.0927
63885W        W64749  18.019   7.863   0.069 -0.0472  0.2742  0.2325
63886W        W64750   9.356  26.131  25.723 -0.1768 -0.1627  0.2961
63887W        W64751  15.907  26.533  23.294 -0.0368 -0.1091 -0.2353
63888W        W64752  15.567   7.133  25.117  0.0140  0.0885 -0.0298
63889W        W64753  20.818   4.759  21.125  0.3846  0.0369 -0.0396
63890W        W64754   8.517   1.059   8.262 -0.0766 -0.2987  0.1748
63891W        W64755  23.689   3.181  19.789  0.3809 -0.4052 -0.1415
63892W        W64756  19.776  20.140   4.343  0.0472  0.2068  0.0790
63893W        W64757  22.702  13.544   0.416 -0.0492 -0.2469 -0.1115
63894W        W64758  17.261  28.545  24.740  0.0572  0.0107  0.0799
63895W        W64759  12.002  12.531   6.329  0.1626 -0.0637  0.0980
63896W        W64760  26.793  22.056  10.650  0.0568 -0.1506 -0.0627
63897W        W64761   7.703  25.974   8.136  0.0614  0.1025 -0.1943
63898W        W64762  24.730  12.980   7.226 -0.2022  0.2030 -0.1665
63899W        W64763   1.538  28.738   4.962 -0.1856 -0.2371  0.1931
63900W        W64764  27.313  17.279   7.670 -0.4393 -0.0873 -0.1518
63901W        W64765  24.638   6.595  12.958 -0.0628  0.0849 -0.2348
63902W        W64766  26.076   2.557   8.153 -0.0840  0.1569 -0.0323
63903W        W64767   9.524   5.816  23.372  0.3386  0.2137  0.0741
63904W        W64768  21.254  21.404   9.230 -0.1011  0.0957  0.2248
63905W        W64769   6.016   4.500  10.199 -0.1435 -0.2602  0.1975
63906W        W64770  23.011  17.876  13.986 -0.1993  0.2830 -0.0373
63907W        W64771   7.072   9.677  25.632  0.0511  0.0200 -0.0301
63908W        W64772  23.630  24.434  18.118  0.3760  0.2408  0.0868
63909W        W64773   6.185  21.991   8.800  0.2931 -0.0866 -0.2784
63910W        W64774  16.749  28.538   6.977  0.0222  0.1949 -0.1610
63911W        W64775   5.420   1.222  11.276  0.2434 -0.0606 -0.1773
63912W        W64776   2.320  19.503   2.146  0.4397  0.1186  0.3408
63913W        W64777  27.239  14.725   9.657 -0.0175  0.0221  0.0996
63914W        W64778   8.150  15.047   4.291 -0.2950  0.2721 -0.2656
63915W        W64779  23.744  18.739  17.309  0.0886 -0.0221  0.2893
63916W        W64780  10.303  19.972   0.330  0.2572  0.0018 -0.1604
63917W        W64781   6.155   8.088  16.725  0.1024  0.0958 -0.1127
63918W        W64782  26.744  27.593   7.568  0.2259  0.1107  0.0190
63919W        W64783   9.819  16.459  25.846  0.0363 -0.2479  0.0016
63920W        W64784   6.002   8.657  10.038  0.2529 -0.0813 -0.0935
63921W        W64785   2.166  18.690   3.778 -0.0350 -0.0492  0.0649
63922W        W64786  16.938  22.856  21.889  0.1127  0.3764  0.1220
63923W        W64787   0.062  18.227  20.666 -0.1784  0.1633  0.1923
63924W        W64788  28.108  20.245   8.227  0.0012  0.0519  0.1992
63925W        W64789  15.544  20.978  12.641 -0.3360 -0.0592  0.3871
63926W        W64790  19.239  11.534   1.317 -0.2334  0.1707  0.1581
63927W        W64791  16.600  14.628  20.838 -0.1377 -0.1876  0.2509
63928W        W64792  27.083   7.515  26.718 -0.1846  0.0145 -0.1275
63929W        W64793  22.216   1.750   2.598  0.2676 -0.0255 -0.0859
63930W        W64794   5.329   8.478   7.467 -0.1218 -0.1834  0.0719
63931W        W64795   0.460  26.298  11.354  0.1483 -0.0138 -0.0316
63932W        W64796  22.293   9.296  19.804  0.1739  0.0079 -0.1872
63933W        W64797  10.829   4.453  26.977  0.0076 -0.1635  0.0998
63934W        W64798  28.884  20.357  18.228 -0.0988 -0.0221  0.0233
63935W        W64799  10.337   3.957  27.872  0.0520 -0.1333  0.0993
63936W        W64800   1.371  16.148  15.330  0.2155 -0.0060  0.0582
63937W        W64801  24.112  19.917   0.567 -0.3194 -0.3296 -0.2336
63938W        W64802   2.694  13.434  26.481 -0.0116  0.0833 -0.0751
63939W        W64803  27.071  15.397  14.976  0.0850 -0.1938 -0.1520
63940W        W64804  16.313  25.683   2.109 -0.1248 -0.2266  0.1766
63941W        W64805  16.533  15.570  23.220 -0.0092  0.0367  0.0782
63942W        W64806   9.271   7.587   5.566 -0.1536 -0.3017  0.0357
63943W        W64807  10.562  16.745  28.008 -0.0993  0.0529 -0.2187
63944W        W64808  16.230  16.265  12.230 -0.1342 -0.0920 -0.0097
63945W        W64809  24.075  24.554  22.512 -0.2008  0.0468 -0.1507
63946W        W64810  22.117  11.663  19.370  0.3250 -0.4748 -0.2083
63947W        W64811   1.756   3.981  18.511  0.1119 -0.0589 -0.0056
63948W        W64812  26.288   6.193  16.150  0.1437  0.0302  0.1311
63949W        W64813   7.809  16.748  21.299 -0.1979  0.3075  0.2092
63950W        W64814   7.663  28.154  27.609 -0.0261  0.1854 -0.2384
63951W        W64815  12.356   0.881   4.462  0.0683  0.0582  0.0500
63952W        W64816  11.998   1.262  28.419 -0.1004 -0.1984 -0.1311
63953W        W64817  10.644   3.469  13.158 -0.2079  0.1414  0.1628
63954W        W64818  12.130  12.577  19.140 -0.1009  0.1855  0.1588
63955W        W64819   8.360   9.447  26.698  0.2637 -0.1031  0.0472
63956W        W64820  13.642  18.084  19.673 -0.1249 -0.2066 -0.2981
63957W        W64821  21.407  25.632  10.923 -0.2163 -0.0111 -0.0796
63958W        W64822   2.389   4.581   1.802  0.1080 -0.0911  0.0360
63959W        W64823  28.453   7.121  19.342 -0.4782 -0.2280  0.0381
63960W        W64824  12.418   9.868  12.661 -0.0313  0.1618 -0.0242
63961W        W64825   8.172   7.776   7.028 -0.1409 -0.0656 -0.1306
63962W        W64826  12.582  26.313  25.715 -0.1750  0.0620 -0.0462
63963W        W64827  17.286  17.745  22.698 -0.0530 -0.0459 -0.2519
63964W        W64828  11.095  12.588  29.138  0.3051 -0.2298  0.1154
63965W        W64829  26.674  11.749   7.569  0.0442 -0.3359 -0.0605
63966W        W64830  13.046  22.108   5.229 -0.0395  0.4597 -0.3461
63967W        W64831   7.084  21.845  13.577  0.1302  0.0118 -0.2608
63968W        W64832  27.274  11.588   7.870 -0.0298  0.0408 -0.1051
63969W        W64833  19.432   3.832   3.133  0.1940 -0.1606 -0.0645
63970W        W64834  15.565   4.857   1.123 -0.1518  0.1204 -0.3715
63971W        W64835  25.345  24.341   4.965  0.0326 -0.0235 -0.1873
63972W        W64836  20.196  19.073   3.007  0.2131 -0.3241  0.0134
63973W        W64837   0.714   0.732  19.137 -0.4036  0.0892 -0.0825
63974W        W64838  20.016  26.542  14.084  0.1538  0.1612  0.0889
63975W        W64839  27.387   5.524  27.423  0.0960  0.1734  0.0813
63976W        W64840   3.297  26.096  20.372 -0.0925  0.0773  0.0410
63977W        W64841  26.295  15.236   4.247  0.0092 -0.0380 -0.1365
63978W        W64842  19.292  14.457   0.386 -0.2712  0.1222  0.3033
63979W        W64843   9.343  14.044   0.377 -0.0375  0.0202  0.1912
63980W        W64844  24.196  12.479   8.894 -0.0952 -0.1719 -0.2810
63981W        W64845  27.290  10.669   3.565 -0.2677 -0.2993  0.1342
63982W        W64846  27.194   6.878  10.497 -0.0511 -0.0636  0.3349
63983W        W64847  28.881   5.143  14.567  0.2247 -0.2246 -0.1103
63984W        W64848  25.499  23.346   2.072  0.2575 -0.0361 -0.0042
63985W        W64849   0.608  10.800  28.451  0.0404 -0.0481 -0.0968
63986W        W64850  19.168  23.411  17.631  0.0408 -0.1492 -0.0639
63987W        W64851  22.675  17.642   5.737  0.0401 -0.0424 -0.3731
63988W        W64852   0.583  10.170  13.496 -0.1857  0.2735  0.4207
63989W        W64853   8.218  22.981  22.616  0.0878  0.0804  0.0458
63990W        W64854  14.240   8.552  21.278  0.0725  0.0338 -0.0650
63991W        W64855  23.590   8.280   7.072  0.1379 -0.1728  0.0234
63992W        W64856  16.199  20.653   5.809 -0.0929 -0.0791 -0.1516
63993W        W64857   5.836  15.151  22.633  0.1129 -0.3803 -0.1007
63994W        W64858  21.621  20.218  24.811 -0.2602  0.2648  0.0717
63995W        W64859  24.307   7.316  28.209 -0.3833 -0.0424  0.1693
63996W        W64860  15.851  22.693   3.253 -0.3083  0.1963  0.0084
63997W        W64861  27.237  20.226   4.124  0.0709  0.0767  0.0361
63998W        W64862  10.340  15.390  16.739  0.0891 -0.0246  0.0387
63999W        W64863  28.628  20.377  26.905  0.2330 -0.0924  0.1421
64000W        W64864   9.491   3.717  24.379  0.0355 -0.1957 -0.0717
64001W        W64865  23.052   6.435  14.982  0.3537  0.0883 -0.1249
64002W        W64866   0.426  11.008  23.598 -0.1296 -0.1293 -0.1794
64003W        W64867  24.451  17.250  15.333 -0.1125 -0.0760  0.0405
64004W        W64868  19.708  15.912   7.782  0.0202  0.0938 -0.1441
64005W        W64869   9.320   5.011  14.056 -0.0802  0.0242 -0.0040
64006W        W64870   4.516  19.762   6.297  0.1777 -0.0427 -0.2181
64007W        W64871  17.598   6.760  19.146 -0.0886 -0.1444  0.0496
64008W        W64872   5.103   8.861   5.088  0.3625  0.1167 -0.0311
64009W        W64873  27.110   6.310   4.945  0.1452  0.0006 -0.0336
64010W        W64874  18.626  26.310   1.479 -0.0385 -0.0078  0.0678
64011W        W64875  27.897   0.022   2.493  0.2107  0.0886 -0.2050
64012W        W64876   4.877   6.433   7.210 -0.0271 -0.0079  0.1879
64013W        W64877  21.886  20.020  11.850 -0.1227  0.2854 -0.0423
64014W        W64878  25.025   0.457  28.563  0.1958  0.0662  0.0851
64015W        W64879  13.357   1.944  10.537 -0.0391 -0.0469 -0.2501
64016W        W64880   8.641  22.747   7.201 -0.1071  0.0345 -0.1482
64017W        W64881  11.418  21.049   5.252 -0.1311 -0.0105 -0.1341
64018W        W64882  15.713  16.569  19.467  0.0273  0.2898  0.0774
64019W        W64883   0.861  27.084  20.078 -0.1576 -0.0544  0.2691
64020W        W64884  17.970  22.415  17.615 -0.0969  0.2738  0.0859
64021W        W64885  25.293  23.118  15.076 -0.4772 -0.0661 -0.0403
64022W        W64886   3.921  28.733  10.232  0.0725  0.0728 -0.1365
64023W        W64887   0.531   0.805  17.672 -0.0460 -0.4214 -0.0078
64024W        W64888  12.615   4.733   0.207  0.1807 -0.2413  0.0587
64025W        W64889  10.775  10.723   6.049  0.0322  0.0356 -0.1697
64026W        W64890  26.851  18.437  17.112 -0.1000 -0.2670 -0.1786
64027W        W64891   4.367   1.860  12.618 -0.0016  0.2964 -0.0712
64028W        W64892  15.544  11.088   4.441 -0.0828  0.0416  0.6288
64029W        W64893  16.879  22.284  27.967  0.0773  0.1937  0.2367
64030W        W64894  23.779   6.367   9.281 -0.2922 -0.1988 -0.0408
64031W        W64895   5.788  29.020  16.893  0.1744 -0.3565  0.0641
64032W        W64896  18.257  17.269   9.206  0.0749 -0.1305 -0.2156
64033W        W64897  22.960  12.263  26.463 -0.1597 -0.0505  0.1570
64034W        W64898  20.920  21.287   8.098 -0.0119 -0.0262  0.1854
64035W        W64899  17.066  16.764  27.238  0.0210  0.0176 -0.0636
64036W        W64900  28.354   6.228  16.428 -0.2855 -0.0185  0.0273
64037W        W64901  13.612  14.723  14.596  0.0148 -0.1121 -0.0486
64038W        W64902  16.560   2.062  25.045  0.3081  0.1441  0.0002
64039W        W64903  19.670  17.742   1.412  0.1570 -0.2465  0.2293
64040W        W64904  10.758   9.604   0.751 -0.1633  0.0440  0.4079
64041W        W64905   2.123  21.353  20.866  0.0432  0.1397 -0.1942
64042W        W64906  18.292  20.522  25.538  0.0495 -0.1350 -0.2525
64043W        W64907  10.803  12.468   9.838 -0.2850  0.1088  0.4576
64044W        W64908   9.359   9.816   0.806 -0.2169 -0.0077 -0.0503
64045W        W64909  13.936  20.637  11.816 -0.2912 -0.2054  0.0800
64046W        W64910   2.419  15.011   6.708 -0.0887  0.0196  0.0159
64047W        W64911   8.314  22.968  23.881 -0.2927 -0.0567 -0.1861
64048W        W64912  10.194  15.480  10.354  0.0333 -0.0263 -0.2081
64049W        W64913  14.439   2.518  18.430 -0.0733  0.1925 -0.1010
64050W        W64914  19.749   8.303  27.999  0.2915 -0.3102  0.1843
64051W        W64915  21.973   7.884  27.630  0.1726 -0.0527 -0.0739
64052W        W64916  18.378  22.558  20.047 -0.1525 -0.1593 -0.1715
64053W        W64917   0.139   6.583  20.452  0.0522 -0.2448 -0.0250
64054W        W64918   6.495  14.214  16.461  0.1540 -0.1185  0.0219
64055W        W64919  24.381   3.138  24.727 -0.2921  0.1775  0.1937
64056W        W64920  25.093   9.296  14.413 -0.0835 -0.2167 -0.1778
64057W        W64921   4.590  27.814  12.017  0.1491  0.4061  0.0545
64058W        W64922  18.978  19.974  18.358  0.0529 -0.0093 -0.0921
64059W        W64923  25.945  19.215  11.332 -0.0842  0.3943 -0.1028
64060W        W64924  22.366  13.653   7.146  0.0252 -0.0106  0.0127
64061W        W64925   1.504   2.561  11.221 -0.1628 -0.1011  0.2999
64062W        W64926   6.337   9.777  18.030  0.3415  0.1234 -0.0981
64063W        W64927  18.655   5.844  16.383 -0.0606  0.3395  0.0847
64064W        W64928  14.251  17.125   4.715 -0.1047  0.0269 -0.1087
64065W        W64929  19.024   5.346  10.261 -0.1377 -0.4117 -0.1645
64066W        W64930  25.509   0.006   8.890 -0.0500 -0.1747 -0.2958
64067W        W64931  19.823  20.772  14.244 -0.0071  0.0333  0.1314
64068W        W64932   0.124  24.520  15.301 -0.0995 -0.3646  0.0504
64069W        W64933  19.476  19.056   8.008 -0.1333 -0.0460  0.0921
64070W        W64934  19.440  24.744  21.488  0.3261  0.1809  0.0924
64071W        W64935   9.929  18.864  12.634  0.1719  0.0550  0.1186
64072W        W64936  19.278  21.706  14.543  0.0289  0.2289 -0.2377
64073W        W64937   2.564  27.822   4.975 -0.0694 -0.1162  0.3285
64074W        W64938  25.144  15.506  23.197  0.1337 -0.0099 -0.1283
64075W        W64939  23.082   8.397  10.452 -0.0718  0.1960 -0.1332
64076W        W64940   3.904  26.567  14.338  0.1274 -0.0354  0.1994
64077W        W64941  26.207   5.029  22.584 -0.1976  0.0106  0.1843
64078W        W64942  14.180  23.048   5.149  0.1961 -0.0021  0.2507
64079W        W64943  11.999  28.514   8.861 -0.1267 -0.1238  0.1128
64080W        W64944  22.930  13.543  17.186  0.1284  0.2415 -0.0944
64081W        W64945   9.639  11.913  22.188 -0.0946 -0.0134 -0.3660
64082W        W64946   3.812  18.015   3.766  0.1876  0.1242  0.2275
64083W        W64947  28.341  18.040  12.607 -0.1740 -0.0805  0.0783
64084W        W64948   2.735   0.329  27.057 -0.1964 -0.1374 -0.1032
64085W        W64949   8.686   1.128  18.117  0.0069 -0.1870  0.2059
64086W        W64950  10.845   7.617  15.809  0.1847 -0.0843 -0.0354
64087W        W64951   6.062   5.413  19.844 -0.1958 -0.0529  0.0189
64088W        W64952  14.447  24.734   3.955 -0.1353 -0.1223  0.2999
64089W        W64953   2.690  13.667   0.586 -0.0468 -0.0818 -0.1451
64090W        W64954  21.408   5.274  12.739  0.0041 -0.1406  0.2975
64091W        W64955  19.408  26.395  12.511 -0.3431  0.1429  0.1084
64092W        W64956  22.645  21.869   6.405 -0.2367 -0.1743  0.0817
64093W        W64957  26.479   4.663  19.606 -0.1499  0.0646  0.1144
64094W        W64958  19.701  19.497  26.424  0.0591 -0.3046 -0.0176
64095W        W64959  27.430  11.846  14.324 -0.0845 -0.4149  0.0562
64096W        W64960  10.705  19.883  26.096 -0.4766 -0.1366 -0.1592
64097W        W64961   1.272   1.101   4.196  0.1910 -0.1844  0.0690
64098W        W64962  22.045   0.127   2.877 -0.3050 -0.4537 -0.0440
64099W        W64963  20.671   8.392  22.578 -0.1402 -0.1388  0.0211
64100W        W64964  16.248  13.164  19.885  0.1077 -0.1273  0.0794
64101W        W64965  17.029   6.812   9.370  0.2815  0.5911  0.0105
64102W        W64966  28.795  11.240  21.403 -0.0219 -0.0618 -0.1640
64103W        W64967  14.780  17.070  14.304 -0.1644 -0.0518  0.1231
64104W        W64968  21.597   6.825  28.597  0.0092  0.1019  0.0234
64105W        W64969  26.102   6.058  18.415 -0.3310 -0.1555 -0.3041
64106W        W64970  27.558   9.577   5.033 -0.1409 -0.0888 -0.1736
64107W        W64971  14.292  16.776   2.435  0.3146 -0.3941 -0.1781
64108W        W64972   0.345  21.348   6.946  0.0423 -0.1553 -0.3403
64109W        W64973   6.525  22.052  23.328 -0.2559 -0.0525 -0.0072
64110W        W64974   0.247  28.211  26.367  0.1904  0.2013 -0.0565
64111W        W64975  21.153  27.778  15.027 -0.0503 -0.1829 -0.2594
64112W        W64976  15.794   9.426   3.483 -0.0625  0.0805  0.0199
64113W        W64977  15.125  13.637   3.101 -0.0224  0.2795  0.0604
64114W        W64978  16.811  15.452  11.862  0.2382  0.1212 -0.2474
64115W        W64979  13.894  18.417  14.310 -0.1625  0.4299 -0.2494
64116W        W64980   6.757  19.089  24.220  0.1341  0.3720 -0.1858
64117W        W64981  23.625   8.548  21.780  0.2353  0.3028  0.1305
64118W        W64982  17.515   2.152  22.726 -0.2704  0.0381  0.0632
64119W        W64983   6.309  22.144  28.966 -0.3300 -0.0575  0.0338
64120W        W64984  25.233   8.027   5.250  0.2607 -0.1973  0.1021
64121W        W64985  17.555  28.338  21.399  0.0122  0.0143  0.0228
64122W        W64986   7.632   6.286   5.396 -0.1476  0.2772 -0.0335
64123W        W64987  26.663  27.064   6.222  0.3038  0.2716 -0.2542
64124W        W64988  14.143  20.088  14.443  0.2593 -0.1506 -0.3126
64125W        W64989  10.200  20.029   6.064  0.0449  0.2987  0.2416
64126W        W64990  15.935  14.230  26.552  0.1463 -0.0693 -0.2316
64127W        W64991   1.819  22.874   6.596  0.2523  0.1871  0.2332
64128W        W64992  10.895  13.595  11.894 -0.4708 -0.1140 -0.0434
64129W        W64993  24.803  25.710   8.041 -0.1433  0.0235  0.1362
64130W        W64994  21.194  13.628  17.881  0.0720 -0.0795  0.3233
64131W        W64995  23.188  16.718   7.334 -0.1384 -0.1295  0.1435
64132W        W64996  14.798  11.456   5.970  0.0470  0.2660 -0.2869
64133W        W64997  16.764  20.608  10.318  0.2696  0.1312 -0.2783
64134W        W64998   1.381   7.616   5.416 -0.0625 -0.1205  0.3440
64135W        W64999  15.831  20.678  18.253 -0.0099  0.3026 -0.2651
64136W        W65000   9.264  14.351  22.426  0.0926  0.0938 -0.0154
64137W        W65001  15.023   8.367   8.349  0.0231 -0.3069 -0.0950
64138W        W65002  26.953  15.066  15.892 -0.1869  0.1438  0.1234
64139W        W65003  20.624  13.754   4.698  0.2044  0.0204 -0.0720
64140W        W65004  10.263   0.634  27.507  0.2640  0.1406  0.3085
64141W        W65005  27.282  22.690   0.103 -0.1249  0.3167  0.0388
64142W        W65006  25.255   6.180   0.800  0.3722 -0.0162 -0.0203
64143W        W65007   8.086  22.241   4.980 -0.0648 -0.1835  0.1047
64144W        W65008  18.895  20.719  22.522 -0.1113 -0.0681  0.1921
64145W        W65009  15.383  10.874   6.478  0.1189 -0.0644  0.4622
64146W        W65010   6.064   0.004  29.076 -0.3881 -0.0984  0.0457
64147W        W65011   9.597   8.265  10.612 -0.0133 -0.0047  0.2229
64148W        W65012  10.641   9.095   7.068 -0.0079 -0.0301 -0.3910
64149W        W65013   9.214  19.943  29.103 -0.0949 -0.3453 -0.2333
64150W        W65014   1.691  18.141  23.158 -0.3106 -0.2029  0.2936
64151W        W65015  27.123   5.365   4.785 -0.0407 -0.4378 -0.2294
64152W        W65016   6.913  12.804  26.876 -0.1702  0.5541 -0.2957
64153W        W65017  20.659   1.003  19.830  0.0519  0.1037 -0.0440
64154W        W65018  16.932  17.419   6.001 -0.1316 -0.0958  0.1913
64155W        W65019   8.695  20.560   4.366  0.0845 -0.2822 -0.1703
64156W        W65020  25.680  22.054  18.602 -0.1129 -0.0400  0.0335
64157W        W65021  20.834  18.718   9.535  0.0385 -0.0087  0.0955
64158W        W65022  11.423  15.858  17.281  0.0279  0.2739  0.2523
64159W        W65023  22.884  12.514   8.912 -0.0476 -0.0255 -0.1729
64160W        W65024  13.856  23.459  15.906  0.0657 -0.3585  0.2989
64161W        W65025  12.778  29.094  23.713  0.2375  0.3059 -0.1445
64162W        W65026  25.991  18.642  22.628  0.2590 -0.2112 -0.3429
64163W        W65027  15.726  19.369  28.779 -0.0732 -0.4583 -0.1315
64164W        W65028  25.410  13.848   3.146  0.2113 -0.2023  0.1910
64165W        W65029  24.404  15.646  19.374 -0.2367 -0.1135 -0.0680
64166W        W65030   6.274  16.615   0.055  0.0035 -0.1693 -0.0197
64167W        W65031  11.473  22.042   6.013  0.0051 -0.1574 -0.0328
64168W        W65032  12.886  10.665   3.974 -0.2049  0.0893  0.1649
64169W        W65033  17.893   7.850   7.683  0.1943 -0.2094  0.1562
64170W        W65034  14.212  17.807  12.343 -0.0499 -0.1990 -0.0176
64171W        W65035  20.876   5.884  27.259  0.0233  0.0581  0.4108
64172W        W65036  18.432  14.789  19.552 -0.1987  0.0324 -0.0563
64173W        W65037  20.258  20.229  27.363 -0.1839  0.2866  0.0210
64174W        W65038  23.596   1.732  13.029  0.0471 -0.1797  0.0926
64175W        W65039  15.108  25.479   8.966  0.0915  0.1580 -0.0473
64176W        W65040  21.158  10.675   9.303 -0.1968 -0.0024 -0.0582
64177W        W65041  16.875  11.116   3.290  0.4993  0.1623 -0.0661
64178W        W65042   5.460  10.672  22.304 -0.1681 -0.0305 -0.3995
64179W        W65043  14.278  21.203   9.582  0.0630 -0.2262  0.4527
64180W        W65044  17.314  10.561  11.839 -0.0392  0.0728  0.3678
64181W        W65045   1.782  21.258  22.459 -0.0777  0.3137  0.3373
64182W        W65046  19.451  17.352   6.799  0.1823 -0.0787 -0.1106
64183W        W65047   0.871   2.469   9.420  0.1719 -0.1952 -0.1706
64184W        W65048   0.583   4.767  20.175  0.2048  0.0486  0.3008
64185W        W65049   0.266   5.528  13.676  0.0404 -0.2068  0.0026
64186W        W65050  23.229  10.345   6.079 -0.0563  0.3062  0.3057
64187W        W65051  11.157   1.901  10.700  0.0815 -0.0588 -0.0602
64188W        W65052  16.859  17.651  14.561  0.0420 -0.0063  0.0078
64189W        W65053   4.990  18.786   8.601  0.0467  0.2562 -0.0721
64190W        W65054  17.989   9.354  22.225 -0.1972  0.0778 -0.2224
64191W        W65055  14.381  24.421  15.770  0.3643  0.0791 -0.0225
64192W        W65056   2.038   5.031  23.722  0.1046  0.0831  0.5538
64193W        W65057   8.030   8.291  11.953 -0.0025  0.0686 -0.0213
64194W        W65058  27.679   1.143  12.267 -0.0398 -0.0655  0.1866
64195W        W65059  21.890  14.160   0.927  0.4812 -0.2467  0.3127
64196W        W65060  13.031  28.783  18.511 -0.0090 -0.1628  0.2418
64197W        W65061  23.064  13.101  20.932  0.0801  0.0541  0.0831
64198W        W65062  22.099  18.701   1.234 -0.2536  0.1807 -0.0492
64199W        W65063  22.645   3.865  10.329 -0.2217  0.2200  0.1438
64200W        W65064   1.964  19.690   3.088  0.1687  0.0823 -0.0055
64201W        W65065  23.753   0.051  28.588 -0.1062  0.3915  0.4489
64202W        W65066  14.684   6.231   2.212  0.1420  0.2069  0.0031
64203W        W65067  28.010  25.136   5.492  0.1283  0.0143  0.0872
64204W        W65068  28.666  27.037  12.948 -0.2398  0.1818 -0.0882
64205W        W65069  20.156  10.323  26.433 -0.1928  0.2006 -0.0893
64206W        W65070  16.612   3.405   5.327  0.0720  0.0096  0.1767
64207W        W65071   8.920  15.106  24.043  0.3907 -0.0629 -0.2303
64208W        W65072   2.357  16.442  17.695 -0.1683  0.0843  0.1061
64209W        W65073  25.956   1.327  16.173 -0.1388  0.0761 -0.0564
64210W        W65074  25.095   9.986  17.811 -0.1863 -0.5522  0.1720
64211W        W65075   7.287  22.063  12.245  0.0042  0.0776 -0.0723
64212W        W65076  25.091  14.674  22.741  0.1176  0.0124 -0.1107
64213W        W65077   2.324   1.626  12.323 -0.1917  0.0575 -0.2143
64214W        W65078   0.366  12.222  26.206 -0.2597  0.1687 -0.0529
64215W        W65079  22.193  20.335  10.829 -0.0332 -0.0286  0.0384
64216W        W65080  13.238  21.474  22.212 -0.2102 -0.2893 -0.5622
64217W        W65081  28.994  12.554  25.924  0.1093  0.2796 -0.0329
64218W        W65082  21.815  12.354  11.164  0.1861  0.0354 -0.0447
64219W        W65083  19.197  14.714  11.550  0.0757 -0.2190 -0.1539
64220W        W65084   1.163  28.037  18.808  0.1075 -0.2293  0.2272
64221W        W65085  14.804  27.886   1.535 -0.1722  0.0145 -0.1776
64222W        W65086   7.146  13.022   4.040 -0.5715  0.3343 -0.2311
64223W        W65087   6.945  15.377  18.203 -0.1558 -0.0831 -0.2751
64224W        W65088  24.429  10.714  11.148 -0.2444 -0.0098  0.0608
64225W        W65089   9.629  10.154  17.299  0.1250  0.3313  0.0200
64226W        W65090  26.520  28.626  27.392  0.0064 -0.2635 -0.2812
64227W        W65091   4.801   5.959  27.383  0.0566  0.1530 -0.3257
64228W        W65092  14.212   6.541  25.662  0.1237  0.1612 -0.3145
64229W        W65093   1.288  16.561   9.363  0.0418  0.1007  0.1883
64230W        W65094   4.111  20.796  14.686 -0.3809 -0.0947 -0.2915
64231W        W65095  25.161   3.013   2.507  0.1417 -0.1964 -0.1335
64232W        W65096   1.252  20.295  17.994 -0.0804  0.1776 -0.1329
64233W        W65097   4.083  11.806  16.472  0.1632  0.3115  0.3172
64234W        W65098  11.504  14.219  16.128 -0.0295 -0.0697 -0.0871
64235W        W65099   1.569   0.881  23.720  0.0005 -0.2801  0.3428
64236W        W65100  21.511   6.136  27.768  0.1399  0.1623 -0.0373
64237W        W65101   2.394  14.938  19.889 -0.1295  0.1630  0.1048
64238W        W65102  18.040  18.634  28.727  0.2605  0.0385 -0.2213
64239W        W65103   7.723  17.446   8.602  0.1574 -0.1189  0.3268
64240W        W65104  18.613  20.455  19.458 -0.4118 -0.1612  0.3239
64241W        W65105  10.946  25.164  18.585  0.0194  0.0526  0.0187
64242W        W65106  26.575  12.911   8.335  0.1049  0.3111  0.1686
64243W        W65107  23.465  24.344  22.492  0.2004  0.0966  0.1226
64244W        W65108  28.924  12.051  11.136 -0.1368 -0.1702 -0.0995
64245W        W65109  23.125  20.156  12.004 -0.0778  0.0458  0.0010
64246W        W65110  26.275  23.163  17.599 -0.0085  0.1325 -0.3774
64247W        W65111  22.464   2.438  15.960  0.1656 -0.2965  0.3741
64248W        W65112   9.795   9.612  23.504 -0.1314 -0.2812 -0.1932
64249W        W65113  24.149  27.898   2.754 -0.0394 -0.1775  0.1067
64250W        W65114   8.652   6.217  10.833  0.1987  0.3372  0.0372
64251W        W65115  28.440   9.416  10.263  0.1746 -0.3179 -0.0845
64252W        W65116  19.343  11.379  26.658 -0.0485 -0.1350  0.1297
64253W        W65117  19.183  20.443   2.314  0.1658 -0.0893 -0.2889
64254W        W65118  17.355  22.161   3.401 -0.1618  0.1981  0.0003
64255W        W65119  12.909  24.869   6.324  0.0658 -0.0121  0.0833
64256W        W65120  19.337   3.860  12.382  0.2160  0.2926  0.1320
64257W        W65121  15.799   9.580   7.594  0.0990 -0.1525 -0.1147
64258W        W65122   6.182   4.850  15.547  0.1071 -0.1028 -0.3050
64259W        W65123   3.396  16.644  22.844  0.1620  0.1721 -0.2276
64260W        W65124   7.222  25.831  19.168 -0.2975  0.0916 -0.2327
64261W        W65125   8.149  16.634  11.136 -0.1962 -0.0528 -0.1065
64262W        W65126   0.094  15.334  18.658 -0.1547 -0.1307  0.2338
64263W        W65127  26.201   1.954   2.404  0.0127  0.1072 -0.1629
64264W        W65128   7.165  14.431  14.856  0.2357  0.0976 -0.0835
64265W        W65129   1.638  23.423   6.674 -0.3085 -0.0146 -0.0106
64266W        W65130   6.879  16.347  10.312 -0.2658  0.1494  0.0673
64267W        W65131   3.584   6.833  28.794  0.1724 -0.3241 -0.0162
64268W        W65132  13.606  24.000   9.514  0.2576  0.1083 -0.1757
64269W        W65133  24.831  11.496  21.689  0.0855  0.2177 -0.1217
64270W        W65134  12.052  14.116   6.540  0.0742 -0.3176 -0.3635
64271W        W65135   4.403  21.929  26.510  0.0311  0.1427  0.1372
64272W        W65136  20.994  19.623   5.733 -0.0840 -0.1970 -0.2968
64273W        W65137  20.664   5.906   4.924  0.1196 -0.0884 -0.0548
64274W        W65138  13.765  13.429   2.628  0.0316 -0.1233  0.1541
64275W        W65139  25.630  18.542  28.996  0.0982  0.2987  0.0109
64276W        W65140  26.703  14.159  17.024  0.1625  0.0047 -0.0652
64277W        W65141  11.820  26.171  17.422  0.1898 -0.1593  0.2071
64278W        W65142  17.837   7.404   6.592  0.0983 -0.2235  0.0179
64279W        W65143  10.271  18.140   6.836 -0.1264  0.0180  0.1133
64280W        W65144  20.124  14.946  16.516  0.1781  0.1716  0.0934
64281W        W65145  15.552  10.830  25.744  0.0826  0.2761  0.0304
64282W        W65146   2.538  16.807   9.992  0.3773 -0.2096 -0.0249
64283W        W65147  21.387  14.246   0.570  0.0295  0.0086  0.1368
64284W        W65148  13.691   8.878   5.446 -0.1218 -0.0065  0.0893
64285W        W65149  15.653   1.435   5.018  0.2042  0.1630  0.0235
64286W        W65150   8.242  10.299  13.407  0.1703 -0.1224  0.0000
64287W        W65151  14.815  18.734  12.330 -0.0583 -0.0637  0.0542
64288W        W65152  25.766   7.301   4.222 -0.2155  0.1406  0.1002
64289W        W65153  10.750  15.441  17.139 -0.1250  0.1819  0.0931
64290W        W65154   1.896  15.549  10.981  0.2337  0.2031 -0.0781
64291W        W65155   7.525  13.091   2.303 -0.2973  0.0295 -0.0691
64292W        W65156   3.076   5.214   0.023  0.0991  0.2542  0.1129
64293W        W65157  15.958  18.268   8.843  0.1088  0.1626  0.2740
64294W        W65158  10.697  14.124   3.145  0.0072  0.3289  0.1165
64295W        W65159  24.870  20.607  17.778  0.1117  0.2725 -0.0854
64296W        W65160  12.513   8.490  10.278 -0.1108  0.1734  0.1500
64297W        W65161  28.019  17.896  15.916  0.2515 -0.0797 -0.0687
64298W        W65162  21.198  11.086  17.033  0.2502 -0.2555 -0.1189
64299W        W65163  26.078  15.257  17.142 -0.0750 -0.5642  0.0248
64300W        W65164   5.839  13.634  23.363  0.1295  0.0505 -0.3453
64301W        W65165  23.378  15.391  10.524  0.0302 -0.2202  0.2250
64302W        W65166  26.214  24.597  10.735 -0.0639 -0.0910  0.1349
64303W        W65167  14.010   6.350  17.513  0.0182  0.1777  0.0535
64304W        W65168   5.221  15.118   2.246  0.1645 -0.2402  0.2908
64305W        W65169  20.691  28.951  17.824  0.4469 -0.1050  0.0649
64306W        W65170   6.227   1.307   3.001  0.2695  0.2357  0.1280
64307W        W65171  25.684  28.507   5.271  0.1141  0.1390 -0.0037
64308W        W65172  20.844   8.925  27.703 -0.0934  0.3644  0.1550
64309W        W65173   4.368  22.329   5.490  0.2575  0.0426 -0.1299
64310W        W65174  12.924   4.179  15.991  0.1956 -0.2274 -0.0586
64311W        W65175   8.779  14.752  10.222  0.1903 -0.0902  0.2954
64312W        W65176   6.817  13.681  26.124  0.0928  0.0390  0.2525
64313W        W65177  11.028  12.831   2.798 -0.0288 -0.3662  0.1079
64314W        W65178  26.170   8.742  21.301  0.0148  0.1447 -0.0562
64315W        W65179  27.141  14.694   7.778  0.4417 -0.0402  0.2003
64316W        W65180  15.579  26.567  11.663 -0.3568  0.2537 -0.2896
64317W        W65181   5.171  13.159  13.265  0.3378 -0.3088 -0.2033
64318W        W65182  16.744  13.424  24.645  0.3020  0.1868 -0.0199
64319W        W65183  10.760  26.208   0.885  0.1735 -0.2287 -0.3052
64320W        W65184   2.652   9.886  18.769 -0.2124  0.0217 -0.0618
64321W        W65185  21.215   9.919   8.338 -0.2890 -0.0068 -0.0298
64322W        W65186  23.230  12.307  14.492 -0.2353  0.0737  0.0981
64323W        W65187  26.155  26.219  13.351 -0.0377 -0.2230  0.1711
64324W        W65188  12.645   3.034  25.793 -0.0089  0.0285  0.0694
64325W        W65189  21.788  26.872  26.722 -0.0406  0.2174 -0.0700
64326W        W65190   0.284  16.487  21.447  0.1347  0.2613  0.3525
64327W        W65191   8.577  22.171   9.595  0.0302 -0.0675 -0.2937
64328W        W65192   8.134  22.085  15.688  0.0543  0.1808  0.2681
64329W        W65193  26.692  17.487  14.317 -0.0397  0.0775 -0.2071
64330W        W65194  22.731  15.658   9.576 -0.2474  0.5058 -0.1465
64331W        W65195  11.280  26.096   4.413 -0.1784 -0.3307  0.0348
64332W        W65196   1.526   7.448   3.648 -0.2141  0.0773 -0.0472
64333W        W65197  16.090  13.301   5.127  0.4515 -0.1950  0.0063
64334W        W65198  15.568  19.375  21.897  0.0604  0.2396  0.1171
64335W        W65199  19.915  17.241  11.610 -0.1883  0.2790 -0.2720
64336W        W65200   0.499  26.453  18.353  0.0385 -0.0125  0.1290
64337W        W65201  14.455   0.343  15.178  0.0490  0.0416  0.0468
64338W        W65202  17.655  19.630   2.806  0.0843  0.1086 -0.0077
64339W        W65203  11.064  26.269   8.744  0.1638  0.0129 -0.0427
64340W        W65204   9.524  26.659   9.601  0.1629  0.4715 -0.0155
64341W        W65205   1.024   3.306  29.071 -0.1241 -0.0885 -0.3660
64342W        W65206  18.611  23.618   0.018 -0.1911 -0.1244 -0.2082
64343W        W65207   9.234  10.280   8.873 -0.3000  0.0448 -0.0682
64344W        W65208  24.741  13.544   9.697 -0.2837  0.1411 -0.0242
64345W        W65209   5.261  12.709  13.643 -0.1114 -0.0350  0.0808
64346W        W65210  22.483   8.233   9.138 -0.0704 -0.1600  0.2040
64347W        W65211  16.042  23.914  26.342 -0.1280  0.1257 -0.0478
64348W        W65212  27.009  15.344   8.996  0.0811 -0.0906  0.0753
64349W        W65213   6.002  20.495   9.303 -0.0445 -0.1566  0.1051
64350W        W65214  16.959  17.585   2.408 -0.0671  0.1750 -0.0364
64351W        W65215   0.981  21.542   2.084  0.1961  0.2094 -0.2200
64352W        W65216  20.132  15.081  25.152  0.0380 -0.0755  0.1576
64353W        W65217  13.692  21.677  18.369  0.0342 -0.2863 -0.2146
64354W        W65218  20.966  12.152  15.100  0.1112 -0.0586 -0.1236
64355W        W65219   5.314   6.273  13.516 -0.4101 -0.0915 -0.3884
64356W        W65220   1.652   2.314  16.099  0.4311  0.0704  0.2692
64357W        W65221  24.090  16.175  20.893  0.1956 -0.4007  0.0392
64358W        W65222  13.919  25.797   1.476 -0.2103  0.0191 -0.2787
64359W        W65223  19.471  12.880  13.255  0.2357  0.2054 -0.1862
64360W        W65224   3.694   2.163  16.763  0.2418 -0.2001  0.1877
64361W        W65225  27.350   2.670   0.096 -0.0520  0.0115 -0.2176
64362W        W65226  24.480  25.259   1.018  0.1343 -0.1277  0.0059
64363W        W65227  25.408   5.585  10.979 -0.0295 -0.0640  0.1446
64364W        W65228  26.337  24.546  19.463 -0.0115  0.5690 -0.1128
64365W        W65229  26.987  13.388  28.617  0.0693 -0.2189  0.1348
64366W        W65230   4.440  13.978   8.948 -0.0067 -0.0681 -0.1715
64367W        W65231  25.891   7.932  10.549 -0.1357  0.2156  0.3210
64368W        W65232  25.225   1.113  13.086 -0.2836 -0.3238  0.2828
64369W        W65233  26.420   1.636  13.116 -0.0896  0.1979  0.1295
64370W        W65234  28.282  15.629  25.742 -0.2955  0.0964 -0.0657
64371W        W65235  26.443   1.450  24.352 -0.5296 -0.2255 -0.2009
64372W        W65236   1.325   3.977   9.898  0.1471  0.1721 -0.1399
64373W        W65237  22.901   7.194   5.676 -0.0124  0.1148 -0.1064
64374W        W65238   1.395  18.551   3.501  0.4312 -0.0984 -0.2201
64375W        W65239   8.305  22.466  12.945  0.0807  0.0537  0.0018
64376W        W65240  28.563   4.988   9.742 -0.0048  0.2849  0.2143
64377W        W65241  25.313   0.133  13.181 -0.1041  0.2030  0.1687
64378W        W65242  26.646  11.686  21.308  0.2623  0.2386 -0.2840
64379W        W65243   6.680  13.326  17.721  0.0122  0.1229  0.0656
64380W        W65244  20.048  20.467   7.542 -0.0056  0.1425 -0.2270
64381W        W65245   7.240  26.104  11.009  0.1948 -0.0494  0.0572
64382W        W65246  10.609   4.441  15.587 -0.2150  0.1269 -0.0215
64383W        W65247  21.586  13.685   9.761 -0.1870 -0.3417  0.0316
64384W        W65248  24.078  19.221  19.497  0.1483 -0.3539 -0.1170
64385W        W65249  16.386  19.006  19.022 -0.1409 -0.0249 -0.0436
64386W        W65250   4.222  15.626   5.222  0.3419 -0.3457  0.1537
64387W        W65251  25.981   9.005  14.637 -0.1167  0.1890 -0.0708
64388W        W65252  28.623  24.526  25.724  0.0364 -0.0271 -0.0177
64389W        W65253  19.597  22.483   6.064  0.1795 -0.1888 -0.0372
64390W        W65254  15.980  12.204  17.760  0.1981  0.1496  0.2246
64391W        W65255  21.916  14.671  27.415  0.1233  0.0226 -0.0735
64392W        W65256  16.527   8.521  10.040  0.1533 -0.2322  0.1292
64393W        W65257  26.136  10.003  14.376 -0.0858 -0.1283 -0.0121
64394W        W65258  13.110  19.407  21.708  0.0799  0.2367  0.2720
64395W        W65259  13.552  10.770   7.958  0.1922  0.1370 -0.0898
64396W        W65260   4.882  24.894  22.156  0.0861  0.0076  0.1411
64397W        W65261  16.447  20.769  20.061 -0.1885  0.0465 -0.0813
64398W        W65262   4.159  14.532  17.022 -0.0283 -0.0541  0.1088
64399W        W65263  10.627   0.964   9.821 -0.1301  0.3857 -0.3629
64400W        W65264   8.728   8.470  15.992  0.0876  0.1084  0.1670
64401W        W65265   9.545   6.818   4.261 -0.0787 -0.1817 -0.1551
64402W        W65266   6.884   7.342   6.823 -0.2773  0.3380  0.3166
64403W        W65267  23.257   3.858   2.396 -0.0380 -0.2686 -0.0997
64404W        W65268   0.826  24.743  28.560  0.4708 -0.1043 -0.0498
64405W        W65269  25.713  20.688  18.092  0.1589  0.1635 -0.1924
64406W        W65270   9.019   1.998  24.011 -0.1875  0.1119 -0.2688
64407W        W65271   2.733  13.406   7.643  0.1395  0.0961  0.1101
64408W        W65272  24.688  25.423   1.976  0.1023  0.1571  0.0567
64409W        W65273  26.499  10.728   0.807 -0.0194  0.0092 -0.0676
64410W        W65274  14.115   5.609  23.092 -0.2896  0.2177  0.1193
64411W        W65275   2.361  12.522  23.321 -0.4184 -0.1334  0.0881
64412W        W65276   3.463  23.908  19.190 -0.0488  0.1747 -0.1496
64413W        W65277   1.577   2.412  11.967 -0.0900 -0.1313  0.0463
64414W        W65278  12.420   7.539   5.228 -0.0824  0.1119  0.0480
64415W        W65279  27.194  25.766   9.826 -0.0441  0.0939 -0.1366
64416W        W65280   5.910  12.507  19.690 -0.0811  0.1277 -0.0193
64417W        W65281  21.197   5.690  10.476 -0.2504 -0.0086  0.2127
64418W        W65282  18.629   5.826   5.817 -0.1508 -0.1066 -0.2064
64419W        W65283   0.717   6.303  27.586  0.2129  0.0086  0.0737
64420W        W65284  20.046   1.190   0.447 -0.0753  0.1260 -0.2052
64421W        W65285   1.193  27.935  19.308  0.0301  0.2186 -0.0694
64422W        W65286   0.732  21.093  15.074 -0.0546 -0.1207  0.0826
64423W        W65287  13.849   9.990  12.285  0.0091  0.1673  0.2333
64424W        W65288   1.427   6.647  14.698  0.0175  0.2149  0.2479
64425W        W65289  28.781  11.080   7.385 -0.6485 -0.1823  0.0013
64426W        W65290   4.841   7.727  22.470 -0.2947 -0.1140  0.0044
64427W        W65291  21.978  27.363   5.565 -0.1058  0.0082  0.3161
64428W        W65292   2.823   7.643   7.920 -0.2281  0.1424 -0.1181
64429W        W65293  23.481  22.829  11.038  0.0143 -0.0774 -0.0959
64430W        W65294  18.549  11.493  28.805 -0.2598 -0.2070  0.2511
64431W        W65295  16.169   7.726  22.750 -0.4687 -0.0333 -0.1019
64432W        W65296  18.698  13.968  11.464  0.0577  0.2564 -0.0442
64433W        W65297  18.129  17.607   0.914  0.2964  0.3728  0.1480
64434W        W65298  14.212  26.418  17.745 -0.2105 -0.0685  0.0368
64435W        W65299   3.770   3.173  13.565 -0.3111 -0.1086 -0.0014
64436W        W65300  21.431  17.666  24.985  0.0140  0.0091 -0.0281
64437W        W65301  25.098   9.099  25.551  0.0027 -0.3263 -0.3040
64438W        W65302  14.940  13.728  16.607 -0.0872  0.1093 -0.1241
64439W        W65303  27.402  14.727  21.376  0.1246 -0.1224 -0.1114
64440W        W65304  23.550   7.548   7.854  0.0591  0.1265  0.0204
64441W        W65305  16.407  26.322  16.306 -0.0176 -0.0417  0.2361
64442W        W65306  10.117  13.463  22.797  0.0857 -0.0704  0.1002
64443W        W65307  23.790  21.693  15.240 -0.1529  0.0331 -0.0099
64444W        W65308  24.152  15.811   7.594 -0.2494 -0.1782  0.1351
64445W        W65309   0.505   1.555  26.622 -0.2350  0.2786 -0.0613
64446W        W65310   3.098  17.314  11.783 -0.0357 -0.4300 -0.0185
64447W        W65311  11.633  16.448  23.851  0.0989  0.1733 -0.2645
64448W        W65312  20.008  12.181   0.851 -0.0822 -0.0873  0.0280
64449W        W65313   6.685  16.275  12.810  0.1514  0.0277 -0.0238
64450W        W65314  12.944  14.237   9.968 -0.0230 -0.1365 -0.0216
64451W        W65315  25.851  25.001   6.013  0.2058 -0.0364 -0.0913
64452W        W65316  18.937  17.908  19.656 -0.0637 -0.1526  0.1453
64453W        W65317  27.762   1.002   8.166  0.1962 -0.0230  0.1891
64454W        W65318  27.849  27.149   8.749 -0.1876  0.0257 -0.1211
64455W        W65319   1.528  24.311  27.647 -0.0973  0.1500 -0.3663
64456W        W65320  13.527  20.800  24.837 -0.2306 -0.0373 -0.1447
64457W        W65321  19.970  20.654   8.815  0.0251 -0.2223 -0.0228
64458W        W65322  23.994  15.729  10.244 -0.0464  0.1453  0.1155
64459W        W65323  23.016  17.123  16.548 -0.0907 -0.2021 -0.2276
64460W        W65324   4.960  16.269  12.309  0.0775  0.1498 -0.0199
64461W        W65325   1.240  12.010  26.004  0.1752  0.0077 -0.1025
64462W        W65326  15.402  23.093  17.099 -0.0452  0.0627 -0.1752
64463W        W65327  10.895   5.982   3.303  0.0355  0.1053 -0.1687
64464W        W65328  22.747  11.077   1.499 -0.1987  0.3828 -0.2470
64465W        W65329  24.606   4.762  21.420 -0.3135 -0.1667 -0.4135
64466W        W65330  11.726  14.581  23.286  0.1473  0.1313  0.0030
64467W        W65331  21.464  13.710  22.086  0.3917  0.0484  0.1472
64468W        W65332  18.134  10.869  19.221 -0.0010 -0.2792  0.0707
64469W        W65333   6.463   7.230  27.062  0.2129  0.3825 -0.0694
64470W        W65334  19.757  23.022  15.728  0.1970  0.1026 -0.0227
64471W        W65335  12.638   8.068   6.811  0.0301  0.0481 -0.1558
64472W        W65336  18.126  19.408  16.238 -0.1856 -0.0251  0.0188
64473W        W65337  26.880  19.714   8.962  0.2287 -0.0187 -0.2216
64474W        W65338  28.554   1.190  25.849  0.0996  0.1306 -0.0284
64475W        W65339  11.451   5.327   0.638 -0.0148  0.1970 -0.1616
64476W        W65340  24.179  17.796  11.981  0.2772 -0.0140  0.0676
64477W        W65341  17.183  13.255   9.205 -0.0122 -0.0331  0.1651
64478W        W65342  15.298   4.998  24.033 -0.0249 -0.1614  0.0077
64479W        W65343   7.027  20.315  15.407 -0.3412  0.1611 -0.4489
64480W        W65344   0.245  27.781  19.431 -0.2701  0.4349  0.1560
64481W        W65345   0.792  26.434   8.976 -0.0772 -0.0344 -0.3015
64482W        W65346  26.250  19.570   9.715  0.1291  0.0896 -0.0953
64483W        W65347   1.626  19.705  15.678  0.3071 -0.1152  0.0852
64484W        W65348  10.917  26.107   9.222  0.0035  0.2159 -0.0856
64485W        W65349  23.421   7.558  26.177  0.1299  0.0825  0.0610
64486W        W65350  17.771  13.083   8.963  0.1175 -0.0841 -0.0102
64487W        W65351  11.051  17.466  22.416 -0.0475  0.0391  0.0895
64488W        W65352  10.143   5.428   4.935 -0.0970  0.0888 -0.0180
64489W        W65353  27.137  19.995   1.572 -0.0174  0.4669  0.0054
64490W        W65354  19.286   7.650  21.341  0.0567  0.0255  0.2579
64491W        W65355  10.822  22.739   7.707  0.0438 -0.5565 -0.1013
64492W        W65356  17.639   6.654   0.759  0.1385  0.0832  0.0924
64493W        W65357   3.867  20.818  15.286 -0.0717  0.2374  0.1342
64494W        W65358  17.078   7.324  21.291  0.3012  0.1084  0.0036
64495W        W65359  20.732  16.421  16.575  0.2619 -0.1063  0.0104
64496W        W65360  13.259  12.097  13.706  0.2150  0.1014 -0.1673
64497W        W65361  17.728  12.717   3.384  0.2452 -0.0277  0.2021
64498W        W65362  14.531  10.657  10.039 -0.0720 -0.1718 -0.1911
64499W        W65363  24.802  23.242  24.477  0.0596  0.0357  0.3974
64500W        W65364   9.226  10.370  25.951 -0.1405 -0.3142 -0.0130
64501W        W65365  24.278   9.204  15.153 -0.0195 -0.0014  0.2059
64502W        W65366  25.738  24.877  12.388 -0.0878  0.0964  0.1886
64503W        W65367   0.002  15.771  18.528 -0.2000  0.1558  0.1558
64504W        W65368  26.828  15.889  19.790 -0.2020  0.3253  0.0062
64505W        W65369  11.276   1.448  18.036  0.0981  0.0628 -0.0774
64506W        W65370  20.517  17.439   7.989  0.2838  0.2360  0.2609
64507W        W65371  11.419   9.368  28.133 -0.1437  0.2549 -0.0222
64508W        W65372  12.395  21.035  25.332 -0.0821  0.1326 -0.0045
64509W        W65373   5.443  24.827  24.735  0.0473 -0.0825 -0.2250
64510W        W65374  22.934  12.366   7.363 -0.0340 -0.2786  0.0376
64511W        W65375  20.587  11.431   6.275 -0.0217 -0.2392  0.2823
64512W        W65376   8.489  14.477  19.380  0.0722 -0.0031  0.0718
64513W        W65377  26.863  18.864  21.017  0.0080 -0.0195  0.0505
64514W        W65378  26.561   5.665  21.472  0.2703 -0.6275 -0.0810
64515W        W65379  11.783  17.485   7.157  0.4194 -0.0400  0.2495
64516W        W65380   6.598  15.642  16.379 -0.0065  0.0069  0.2355
64517W        W65381  23.044   1.952  16.384  0.1832 -0.0359 -0.3522
64518W        W65382  20.053  23.350  21.010 -0.1884 -0.0877 -0.0810
64519W        W65383  14.231  17.649   7.909  0.1198 -0.1400  0.1833
64520W        W65384   6.361  11.732  13.477 -0.0955  0.0520 -0.0595
64521W        W65385  20.315  20.941   1.998 -0.0626  0.2549  0.2470
64522W        W65386  11.135   8.257   7.278 -0.2786  0.5347 -0.0832
64523W        W65387  24.631  22.297  17.793 -0.2555 -0.0560 -0.1048
64524W        W65388   8.823  14.107  17.972 -0.1637  0.1459  0.2579
64525W        W65389  17.375  19.394  21.004 -0.0818 -0.0180 -0.1989
64526W        W65390  22.210  10.526  15.712  0.1654 -0.3433 -0.2492
64527W        W65391   0.050   1.124  23.693  0.0139  0.1870  0.5482
64528W        W65392  12.624   4.843  28.468  0.0326 -0.2482 -0.1203
64529W        W65393  22.306  13.321  11.992 -0.1358  0.0288 -0.1078
64530W        W65394  23.871  19.362   6.202  0.1471 -0.3862  0.1777
64531W        W65395  17.680  13.345  24.273 -0.1837  0.3418 -0.1876
64532W        W65396  24.177  13.169   0.871 -0.1152  0.1994  0.0009
64533W        W65397   9.727  17.074   7.410 -0.0240 -0.4076  0.2036
64534W        W65398   3.850   1.188  11.645  0.1651  0.0919  0.1500
64535W        W65399  28.639   1.368  19.587 -0.1603  0.1640  0.0542
64536W        W65400  21.135  15.734   8.004  0.1211  0.0610  0.1672
64537W        W65401  21.566  23.802  14.615 -0.2409 -0.5512  0.0423
64538W        W65402  12.668  10.232   9.931  0.1507  0.0879 -0.1422
64539W        W65403  20.353   8.784  14.024  0.1685 -0.2119  0.0687
64540W        W65404  29.045   9.141  23.082 -0.0762  0.2572  0.2094
64541W        W65405  10.599  12.618  24.332 -0.0152  0.0006 -0.1947
64542W        W65406  18.618  12.515  24.900  0.0142  0.0632 -0.2874
64543W        W65407  17.878  18.598  17.614 -0.1001  0.0658 -0.0609
64544W        W65408  21.511  27.021  16.755 -0.2274 -0.4658  0.0821
64545W        W65409  20.540  25.058  24.219 -0.1892 -0.0310 -0.2052
64546W        W65410  27.206  21.659   0.000 -0.0463  0.0070 -0.1200
64547W        W65411  28.357  13.382  27.494  0.1742 -0.2189  0.0098
64548W        W65412  27.346   2.476   4.195 -0.2996  0.2527 -0.3447
64549W        W65413  12.063  18.085   8.801  0.1940  0.1671  0.0676
64550W        W65414  15.519  12.590   4.528 -0.0802  0.2305 -0.0940
64551W        W65415   6.626  16.011   4.675  0.1668 -0.3632 -0.2437
64552W        W65416  12.379  14.928   3.675  0.0376 -0.1971 -0.2186
64553W        W65417  24.493   9.628  15.212  0.3059  0.2642 -0.1611
64554W        W65418   1.232  27.731   1.648  0.0259  0.0897  0.1279
64555W        W65419  27.233  13.340   8.880 -0.1390 -0.1273 -0.1062
64556W        W65420  15.581  20.243   0.201 -0.0161 -0.2424 -0.0792
64557W        W65421  22.885   5.447   5.994  0.1167 -0.0315 -0.1825
64558W        W65422  22.337  14.563  21.579  0.1769 -0.3619 -0.1806
64559W        W65423  21.655  23.270   6.685  0.0306 -0.0998  0.1865
64560W        W65424  17.268   3.611   7.359 -0.1689  0.0240 -0.0331
64561W        W65425   7.743   6.454   4.641 -0.0015 -0.0027 -0.0950
64562W        W65426  21.066  12.479   5.950 -0.1719 -0.1304  0.1871
64563W        W65427  26.128  14.218  27.983 -0.0457 -0.0159 -0.1239
64564W        W65428   4.070  22.216   9.112  0.0268 -0.1033 -0.3138
64565W        W65429  21.455  13.701  17.421  0.1081 -0.1262 -0.0014
64566W        W65430  11.205  11.324   2.158  0.3139  0.2229 -0.2093
64567W        W65431  21.601  28.856  21.403  0.0240 -0.1625 -0.1243
64568W        W65432  21.226   3.560  12.248 -0.1822  0.1585 -0.0339
64569W        W65433  18.337   1.011   5.033 -0.0865  0.1486  0.1587
64570W        W65434  18.375  10.113   3.021  0.3759 -0.2683  0.2456
64571W        W65435   2.040  20.905   7.347 -0.0316 -0.0338  0.2026
64572W        W65436   3.894   8.394  22.592 -0.0116 -0.1799  0.3963
64573W        W65437   7.874  13.274   9.734 -0.0002 -0.3227  0.0070
64574W        W65438  10.394  14.024   4.469  0.2084 -0.0688  0.1234
64575W        W65439  11.222  25.512   3.214  0.0355  0.1398  0.0038
64576W        W65440   2.423  10.018  15.629 -0.1952  0.0121  0.0451
64577W        W65441  19.770   4.488  15.420 -0.0464 -0.3106 -0.2916
64578W        W65442  20.895  10.309  19.458  0.2080  0.2554  0.2164
64579W        W65443   8.235  23.199  15.392  0.2230 -0.0997 -0.0187
64580W        W65444   4.860  10.099   1.559 -0.1028  0.0158  0.0877
64581W        W65445  17.783  22.325  27.139 -0.0326  0.1490  0.3331
64582W        W65446  24.732  17.427   5.996 -0.0642 -0.2519  0.1042
64583W        W65447  23.053  24.471   2.501  0.2165 -0.0105 -0.0095
64584W        W65448  25.210  11.368   0.062  0.1615 -0.1574  0.2362
64585W        W65449  21.378  19.623   1.666  0.1424 -0.0292  0.2017
64586W        W65450   5.408  14.943  14.554  0.2189 -0.1391  0.1824
64587W        W65451  22.001  11.990  20.305  0.1661  0.0795 -0.2174
64588W        W65452   1.213  16.997  12.592  0.0097 -0.0407  0.3249
64589W        W65453  18.224   1.777  13.983  0.2451  0.1694 -0.1344
64590W        W65454  26.127  13.939  19.120  0.2320 -0.0290  0.0497
64591W        W65455  13.299  23.443  24.897  0.1305  0.2008  0.0755
64592W        W65456  26.871  17.830   3.788  0.0062  0.0404  0.0755
64593W        W65457  21.978  25.271  21.188 -0.2733 -0.1497  0.1823
64594W        W65458  12.726  28.916   2.073  0.0270 -0.0402 -0.2671
64595W        W65459  27.573  18.082  11.003  0.1476  0.0054 -0.1417
64596W        W65460  10.726  11.578   8.576 -0.1011 -0.2932 -0.0310
64597W        W65461  16.178  22.129   3.948 -0.1726 -0.1449  0.0048
64598W        W65462  19.882  14.565   8.912 -0.0724 -0.0502  0.0740
64599W        W65463   2.438   7.324  10.108  0.3811 -0.0487  0.1634
64600W        W65464  29.040   0.387  19.324  0.2138 -0.2144  0.1599
64601W        W65465  13.088   6.975  16.565 -0.1835 -0.2157  0.1381
64602W        W65466  14.990  17.215   5.233 -0.1255  0.0321  0.4631
64603W        W65467  25.604  19.894  21.280 -0.1950  0.4332 -0.0295
64604W        W65468   6.875   4.036   0.653 -0.2525  0.1659 -0.3795
64605W        W65469  23.932  13.512  20.523  0.1319 -0.0957  0.2177
64606W        W65470  25.457   2.077  12.327 -0.1120  0.2901 -0.0155
64607W        W65471  22.750  17.734  14.427 -0.1975  0.4248 -0.1588
64608W        W65472  27.867  25.731  10.623  0.3491 -0.0474  0.1099
64609W        W65473  16.947  23.401   0.067  0.4336  0.0125  0.4498
64610W        W65474   1.002  19.546  20.959 -0.0344  0.0558 -0.1516
64611W        W65475  29.140  22.249   7.665 -0.0653  0.1135 -0.3077
64612W        W65476  14.310  17.805  25.945 -0.1250 -0.3632 -0.0713
64613W        W65477  24.715  21.638   4.573 -0.1372 -0.0776  0.1454
64614W        W65478  19.037   9.130  17.535 -0.1446 -0.1866  0.2083
64615W        W65479  15.479   1.119  23.506  0.0372 -0.1167 -0.0167
64616W        W65480  12.242  15.674  10.309 -0.1662 -0.1858  0.0070
64617W        W65481  24.570  12.337   4.991  0.2632  0.1587  0.2912
64618W        W65482  14.790  26.629  16.206  0.1557  0.0646 -0.0625
64619W        W65483  18.018   3.849   7.900  0.1052  0.1262  0.0653
64620W        W65484  21.301  19.373  22.476  0.1024 -0.0999  0.0085
64621W        W65485  15.753  15.684  25.027 -0.1294  0.0399 -0.3047
64622W        W65486   3.676   9.483   3.328  0.0801  0.1705  0.2293
64623W        W65487  22.200   7.816  19.512 -0.1576 -0.0874 -0.4349
64624W        W65488  26.966  10.027   6.195  0.0721  0.0024  0.2750
64625W        W65489   7.877  12.743   8.903 -0.1254 -0.1030  0.0500
64626W        W65490  12.469   7.648  14.234  0.0460  0.0012  0.0394
64627W        W65491  16.730  27.121  20.182 -0.1014 -0.1526  0.1555
64628W        W65492  12.769  16.805  25.997  0.2466  0.1149 -0.2854
64629W        W65493   5.284  13.870  26.911 -0.2801 -0.2751  0.3139
64630W        W65494  19.774   4.424   4.073 -0.0122  0.2660  0.0507
64631W        W65495  29.089   8.653  11.834  0.0953  0.0126 -0.1263
64632W        W65496   0.662  23.083   2.853  0.0641 -0.3125 -0.0127
64633W        W65497  18.684   0.680   6.270 -0.1610 -0.2266  0.0670
64634W        W65498   2.098  23.099   3.159  0.2048 -0.0168  0.3354
64635W        W65499  13.484  17.099   6.094  0.0492 -0.2105 -0.0005
64636W        W65500  14.773  26.171  27.036  0.1223  0.0820  0.2238
64637W        W65501  25.495   2.656   5.117 -0.1340  0.2212  0.3067
64638W        W65502   7.486  12.036  22.700 -0.0442 -0.0949  0.0078
64639W        W65503   5.666  16.374  10.513 -0.0695  0.2140 -0.0713
64640W        W65504   1.487  15.788  15.778  0.2013 -0.0539  0.0132
64641W        W65505  22.192  19.819  27.401 -0.2973  0.0855  0.2269
64642W        W65506  27.258  21.673   9.739 -0.0379  0.0079  0.2211
64643W        W65507  15.818  18.269  10.073  0.1368 -0.0821  0.2869
64644W        W65508  12.832  16.254  15.858  0.1455 -0.2323  0.1439
64645W        W65509  22.002  12.384  14.284  0.3509  0.1894  0.1636
64646W        W65510  14.285   6.888   7.868 -0.0467 -0.0329  0.1585
64647W        W65511   1.708  10.230  23.217 -0.0101 -0.1645 -0.0374
64648W        W65512  27.700  16.572  10.903 -0.0652  0.0912  0.1257
64649W        W65513  22.519  10.233  17.238 -0.0314  0.2830 -0.0715
64650W        W65514  17.888  22.633   4.243 -0.2372 -0.1191  0.1333
64651W        W65515  28.654  13.238  16.464 -0.0950  0.0301 -0.0092
64652W        W65516  21.517  11.402  28.067 -0.0692  0.1204 -0.1549
64653W        W65517   6.434   8.719  24.720 -0.0620 -0.1132 -0.2430
64654W        W65518  13.779  16.471  23.903  0.1429 -0.1483 -0.0714
64655W        W65519  22.910  26.688  20.740  0.1353  0.0142 -0.0022
64656W        W65520  14.207   3.041   4.361  0.2127  0.1891 -0.3163
64657W        W65521   3.999   8.535   9.965  0.1807  0.0485  0.2124
64658W        W65522   0.566   2.894  27.894 -0.0956 -0.1325  0.0455
64659W        W65523  24.869  29.083  17.540 -0.0156  0.0993  0.2702
64660W        W65524  26.127  12.553  19.373  0.0988  0.5567  0.1728
64661W        W65525  22.593   9.694   0.700 -0.1647  0.2347 -0.1057
64662W        W65526   6.239  28.446  12.982  0.0998 -0.1518  0.2622
64663W        W65527  25.180  24.465  14.836  0.1571 -0.1576  0.2248
64664W        W65528   2.648  15.783  12.775  0.2413  0.1608  0.0488
64665W        W65529   6.802   5.822  10.449  0.2316 -0.0215  0.1779
64666W        W65530  19.124  21.784   1.841  0.0397 -0.0996  0.0522
64667W        W65531  18.037  26.967  19.584 -0.2347 -0.0377 -0.0697
64668W        W65532  15.792  24.393  28.535 -0.2472  0.0107  0.1778
64669W        W65533   9.012  11.844   9.788  0.2269 -0.1649 -0.1472
64670W        W65534   6.949   0.143  17.248  0.1967 -0.1074 -0.0394
64671W        W65535  26.447  18.560  19.875 -0.0910 -0.3420  0.1802
64672W        W65536  10.791  13.729  11.256 -0.0609 -0.1353  0.0813
64673W        W65537  21.060   9.035  17.953  0.0341  0.3128  0.0468
64674W        W65538  25.812  25.629  17.415  0.3952  0.1511 -0.0611
64675W        W65539  25.432  14.614   7.106  0.1345 -0.0975  0.1635
64676W        W65540   6.504   0.216  21.489 -0.0080  0.0175 -0.1973
64677W        W65541  25.284  21.762  25.005 -0.0019 -0.1380 -0.1348
64678W        W65542  28.879  11.721   0.731  0.1486 -0.0713 -0.1289
64679W        W65543  26.251  14.314  10.640  0.0149  0.2715 -0.0042
64680W        W65544   8.739   1.662  19.477  0.0604 -0.0911  0.0916
64681W        W65545  25.916  16.809   6.646 -0.3056 -0.0694 -0.3084
64682W        W65546  14.814   1.786   0.360  0.4115 -0.0286 -0.1129
64683W        W65547  28.484  14.884  16.995 -0.2523  0.1094 -0.0537
64684W        W65548  24.059  27.030   5.319  0.0113  0.0002  0.0015
64685W        W65549   4.176  13.391   0.778 -0.0912 -0.1885 -0.2545
64686W        W65550   4.973   6.149  20.980 -0.3500  0.0420  0.0495
64687W        W65551  11.478   9.323  12.978  0.0837  0.2908  0.0383
64688W        W65552  11.250  17.412  20.494  0.1324  0.0556 -0.2532
64689W        W65553  17.739  10.401  13.583 -0.1582 -0.0511 -0.0958
64690W        W65554   2.932  21.164  19.846 -0.2010 -0.0519 -0.2479
64691W        W65555   6.779  24.706   6.637  0.1057  0.0705 -0.0108
64692W        W65556  25.654  20.624  20.419  0.2776  0.1946 -0.0807
64693W        W65557  22.479   9.883   9.063 -0.0998 -0.2295 -0.0433
64694W        W65558  14.985  25.296   8.523  0.2896 -0.2608 -0.0569
64695W        W65559  19.195  22.625   7.991  0.2137  0.0529  0.0412
64696W        W65560  29.042   4.845  26.096  0.3034  0.0514 -0.4125
64697W        W65561  16.204  19.733  20.676 -0.1670  0.2716  0.1318
64698W        W65562   6.170  26.267   3.295 -0.0433 -0.0077 -0.0138
64699W        W65563   3.972  12.236  17.397 -0.0305  0.0313 -0.0118
64700W        W65564  22.750   6.127  21.564  0.3385  0.0621  0.2358
64701W        W65565  28.355  21.190  14.396 -0.0332 -0.1396  0.1030
64702W        W65566  27.896  10.268  16.444  0.0706  0.0425  0.2985
64703W        W65567  21.244  21.686   9.675  0.2934 -0.0260  0.2381
64704W        W65568  10.241  23.661  16.765  0.2393 -0.1042 -0.0938
64705W        W65569  26.601   9.970   7.232  0.0586 -0.3661  0.1596
64706W        W65570  13.542   5.571   0.572 -0.2161  0.0683  0.0169
64707W        W65571   6.864   5.017   6.137  0.1749  0.2108  0.2446
64708W        W65572  22.977  18.941   8.040 -0.2236 -0.0310  0.0566
64709W        W65573  19.707  15.405  23.147  0.1839 -0.2256  0.1207
64710W        W65574  22.018  12.060  15.372  0.1077  0.1131 -0.1126
64711W        W65575  11.331  11.956  21.245 -0.1832  0.1562 -0.0071
64712W        W65576  25.787  11.338  10.037 -0.2496  0.2712  0.0203
64713W        W65577   7.623   1.688   5.399  0.1621  0.1982 -0.0260
64714W        W65578   2.252  15.483  24.081 -0.0398 -0.1612 -0.2134
64715W        W65579  21.213   6.656  12.331 -0.1146 -0.1136 -0.3833
64716W        W65580  26.219   1.016   0.887 -0.1177 -0.2430 -0.2784
64717W        W65581  24.505  15.729  22.190 -0.1872 -0.2345  0.0382
64718W        W65582   9.928  15.144   8.153 -0.1504 -0.1583  0.0588
64719W        W65583  14.728  28.112  18.464  0.0142 -0.1214  0.5633
64720W        W65584  27.804   0.394  19.451 -0.1353 -0.1833 -0.0053
64721W        W65585  16.506   0.075  19.801 -0.1142  0.0434 -0.3361
64722W        W65586  24.301  20.148  10.908 -0.2341  0.2401 -0.2758
64723W        W65587  23.955   5.279   5.657 -0.1849  0.2123  0.4066
64724W        W65588   4.733  20.408  17.347  0.0151 -0.2212  0.1909
64725W        W65589  28.307  17.553  23.313 -0.1214  0.2672  0.3787
64726W        W65590  18.262   5.906  18.279  0.0457  0.0378 -0.1860
64727W        W65591   7.548  28.660   1.038 -0.1021  0.2158  0.1629
64728W        W65592  17.974  13.076  15.504 -0.1492 -0.1346 -0.0500
64729W        W65593  13.798   8.856   6.290  0.0377 -0.1253  0.0190
64730W        W65594  28.748  16.392  15.912 -0.0290  0.0966  0.0759
64731W        W65595   3.366  27.317  18.377  0.0096 -0.0443 -0.3271
64732W        W65596  24.158  22.605  28.204 -0.1130  0.0097  0.0378
64733W        W65597  28.128  11.168   9.253 -0.3628  0.0597 -0.0340
64734W        W65598  14.047  22.173  25.006 -0.1098 -0.2994 -0.1520
64735W        W65599  28.730   8.946  16.655  0.2535  0.0127 -0.0974
64736W        W65600  16.046   0.258  26.589  0.0190 -0.3011  0.0517
64737W        W65601   9.250   7.225   2.222 -0.1532  0.0334 -0.4205
64738W        W65602  25.681   6.975   9.322 -0.1830 -0.1724  0.1249
64739W        W65603  26.488  13.684   8.594  0.2888 -0.1096  0.2190
64740W        W65604  23.629  13.827   4.828  0.0468 -0.2127 -0.1392
64741W        W65605  17.225   4.075  18.028  0.2842 -0.1793  0.2307
64742W        W65606  18.596  15.915   4.253 -0.2187  0.2323  0.1998
64743W        W65607  28.748  20.412  16.529 -0.1292 -0.5402  0.0712
64744W        W65608  12.691  23.454  18.073 -0.1133 -0.2609 -0.0372
64745W        W65609  24.657   8.061  25.705  0.1546  0.1495  0.2162
64746W        W65610  12.533  10.545  26.410  0.0029  0.0596 -0.2168
64747W        W65611  17.597  25.860  15.958 -0.0263  0.0075  0.0640
64748W        W65612  27.759   6.397   5.577  0.1295  0.0676 -0.2687
64749W        W65613  23.653  12.782  17.786  0.0555 -0.3878 -0.0636
64750W        W65614   8.045   8.402   6.071  0.0531 -0.3272  0.1701
64751W        W65615  13.632  26.168  26.782 -0.2367  0.2167  0.1619
64752W        W65616   2.810   8.872   1.553  0.2354 -0.2007 -0.2444
64753W        W65617  18.632   9.411  21.649  0.0054 -0.2547  0.4267
64754W        W65618  22.791  16.750  19.728  0.2397 -0.1472  0.1535
64755W        W65619  27.527   7.861  12.454  0.0910  0.0168  0.1148
64756W        W65620  22.231  22.539  24.307  0.2160  0.0475  0.1626
64757W        W65621  17.027   9.005  13.427  0.2358  0.1301 -0.4601
64758W        W65622  18.803  15.294  25.786  0.1043  0.0075  0.2812
64759W        W65623  17.984  10.092  28.798  0.2974  0.0423 -0.1167
64760W        W65624   6.741   5.436   3.409 -0.0785  0.0514 -0.1003
64761W        W65625  28.387  19.351  26.244 -0.0288  0.0905 -0.2479
64762W        W65626  12.625  28.748   3.039 -0.1182 -0.0033  0.0905
64763W        W65627  22.923  23.917  24.679  0.3686  0.0795  0.0382
64764W        W65628  17.007  20.240   9.305 -0.0318 -0.2083  0.1637
64765W        W65629   6.179  24.460  11.889  0.0662  0.1433 -0.2515
64766W        W65630   9.383  21.881   4.237  0.2889 -0.1343 -0.3526
64767W        W65631  15.552   9.091  16.953  0.2809 -0.1483 -0.3132
64768W        W65632  25.846  13.257  13.896 -0.0359 -0.0831  0.1523
64769W        W65633  19.590   6.696   1.938 -0.0269 -0.1889 -0.0111
64770W        W65634  14.985  26.629  17.992 -0.2126  0.0081  0.1418
64771W        W65635  12.698  10.222  18.537 -0.1312 -0.0856 -0.1295
64772W        W65636   6.917  16.864  21.511 -0.1344 -0.2723  0.3118
64773W        W65637  17.624  17.519  13.067  0.3411 -0.1462 -0.0602
64774W        W65638  13.527   3.922  12.157 -0.0100  0.1569 -0.0121
64775W        W65639  19.340  14.273   6.965  0.0748  0.0045 -0.4353
64776W        W65640  27.239  11.716   9.170  0.0796 -0.0154 -0.1493
64777W        W65641  15.572   5.935   1.295 -0.1215 -0.1481  0.1197
64778W        W65642  12.787  18.823  20.933 -0.2693  0.2410  0.0507
64779W        W65643   8.489  26.313   6.886  0.2452 -0.2195  0.0045
64780W        W65644   5.237  17.865  26.197  0.2851  0.1306  0.0851
64781W        W65645  26.440   3.412  27.284  0.2764 -0.2257  0.1413
64782W        W65646  16.295  12.587   6.414  0.0831 -0.2687 -0.3190
64783W        W65647   5.785  12.090  23.427  0.0568  0.1188 -0.1544
64784W        W65648  21.405  23.356   9.129  0.3104 -0.2137 -0.1922
64785W        W65649  19.415  24.192  28.574  0.2172  0.5943 -0.3283
64786W        W65650  19.534  10.294  14.670  0.1090  0.2315  0.1702
64787W        W65651   3.817  21.388  14.567 -0.0649  0.1018 -0.0439
64788W        W65652  19.358  17.493   1.100 -0.2220  0.1677  0.0518
64789W        W65653  26.512  12.290  26.745 -0.2267  0.1094 -0.0093
64790W        W65654  28.738   0.579   5.307  0.2894  0.0118  0.0794
64791W        W65655   9.151  19.144  16.306 -0.0659  0.2337  0.0698
64792W        W65656  16.271  21.745   5.356  0.1439 -0.0130 -0.0279
64793W        W65657   0.047  26.185  23.224 -0.1636 -0.0796  0.3215
64794W        W65658  20.469  12.983  26.720  0.2043 -0.0064  0.0716
64795W        W65659   1.696  26.454   2.625  0.1577  0.2336 -0.1741
64796W        W65660   9.102  26.806  17.791 -0.0515 -0.0215  0.4422
64797W        W65661  28.652  29.059   7.195 -0.1687 -0.2360 -0.2241
64798W        W65662  15.644   9.846  10.321 -0.0404 -0.0540 -0.2093
64799W        W65663  23.361  19.389   4.463  0.0557  0.0657  0.0437
64800W        W65664  21.162   8.512  15.308  0.0545 -0.4050 -0.0660
64801W        W65665   0.374  28.871  17.321  0.1616  0.0650 -0.2847
64802W        W65666  26.184   9.064  25.828 -0.0033  0.3353  0.0929
64803W        W65667  16.362   1.297  15.404  0.0856  0.0263  0.2465
64804W        W65668   1.964  21.976   8.273  0.0727 -0.0684 -0.1067
64805W        W65669  28.592  15.888  13.498  0.0025  0.1670  0.2015
64806W        W65670  28.673   8.579   9.954 -0.2868  0.1092 -0.3489
64807W        W65671   1.032  23.856  26.004 -0.0763  0.1876 -0.0710
64808W        W65672  16.764  13.135  10.530  0.0707 -0.3530  0.0421
64809W        W65673  17.836   7.546  17.582 -0.1691 -0.1303  0.3645
64810W        W65674  15.130  12.268  14.350  0.0378  0.1337  0.2729
64811W        W65675  10.069  19.501  16.045  0.0354 -0.2514  0.2172
64812W        W65676  26.301  12.522  19.866 -0.4160 -0.1138 -0.0578
64813W        W65677  23.422  21.254   3.107  0.2630  0.0975 -0.2095
64814W        W65678  27.810  13.697   9.098 -0.1325 -0.4728 -0.1117
64815W        W65679  13.793   8.496  21.520 -0.0348  0.0307  0.3617
64816W        W65680  11.766  24.918   9.118  0.1275 -0.4029  0.2374
64817W        W65681  28.107  11.269  20.083 -0.1144  0.1244  0.0044
64818W        W65682   6.781   6.371  23.161 -0.1444 -0.0753 -0.2369
64819W        W65683   7.838   8.699  23.787  0.2490  0.0255 -0.2056
64820W        W65684  23.604  21.468  12.115 -0.0787 -0.2226  0.2093
64821W        W65685  12.331   1.610   1.809 -0.1351 -0.3011  0.2364
64822W        W65686   9.083  13.007  11.395  0.3985 -0.0516  0.0580
64823W        W65687  16.311  18.487  10.280 -0.0409 -0.0335 -0.1683
64824W        W65688  12.438  17.814  19.154 -0.1253  0.0971 -0.0306
64825W        W65689  18.204  13.726  11.436  0.0116 -0.0809 -0.2270
64826W        W65690  16.218  20.999  15.528  0.1582  0.1671  0.2125
64827W        W65691  22.068   5.696  17.233 -0.1166  0.0628 -0.1848
64828W        W65692  15.358   4.184  24.784 -0.3693  0.1126  0.0168
64829W        W65693  15.409  19.807   2.610  0.0661 -0.2357  0.3682
64830W        W65694  25.836   1.644  19.383 -0.1551  0.2511 -0.2435
64831W        W65695  23.827  24.641  23.998  0.1476  0.4153  0.0398
64832W        W65696  10.951  27.963   6.846  0.0325  0.1870  0.1187
64833W        W65697  10.054  20.286   7.036  0.0854 -0.0125 -0.1797
64834W        W65698  20.131   9.339   7.475 -0.0738  0.0181 -0.1976
64835W        W65699   9.780  11.372  21.302  0.0126  0.2045  0.2724
64836W        W65700  12.789   4.102   7.564  0.0809  0.0226 -0.2576
64837W        W65701  24.210  24.525  14.695  0.0182 -0.3186  0.3880
64838W        W65702  28.409   2.345  10.954  0.0994  0.3271  0.0975
64839W        W65703  24.530   0.819  17.028 -0.2750 -0.1853  0.0581
64840W        W65704   3.336   4.859  11.292 -0.2125  0.1692  0.1084
64841W        W65705   9.651  18.345   0.586  0.0331 -0.2579  0.2121
64842W        W65706  18.733   1.753   5.046 -0.1583 -0.2160 -0.0794
64843W        W65707   7.316  10.590   5.282  0.0067  0.0568  0.2939
64844W        W65708  22.500  11.969  27.971 -0.0588  0.3112 -0.2508
64845W        W65709  10.627  20.377  21.665 -0.0658 -0.1353 -0.1145
64846W        W65710  21.887  10.888  15.408  0.1132 -0.1812  0.0884
64847W        W65711   1.712  15.261   8.967  0.0473 -0.1066 -0.1082
64848W        W65712  23.063   4.531  22.379  0.2373  0.0229  0.3784
64849W        W65713  25.155   7.106  28.749 -0.0738 -0.2005 -0.0269
64850W        W65714  21.604   3.566   5.360 -0.2168 -0.1383  0.1504
64851W        W65715   4.121   9.351  27.787 -0.2098 -0.0638  0.0599
64852W        W65716  17.280  19.862  20.961  0.1980  0.0497 -0.0444
64853W        W65717  27.255  11.799  26.364 -0.3126 -0.1259  0.0681
64854W        W65718  13.907  17.373  11.018  0.1451 -0.2422 -0.0659
64855W        W65719  15.879  21.174  18.414  0.2977 -0.0058  0.1532
64856W        W65720  24.571   6.482   6.017 -0.0827  0.1869  0.2235
64857W        W65721  19.995   1.486  16.969 -0.2127 -0.3764  0.1087
64858W        W65722  24.074  19.278  22.259 -0.0800  0.0788  0.0358
64859W        W65723  20.649  26.938   1.257 -0.0813 -0.4330  0.2974
64860W        W65724  16.037  23.847  20.474 -0.0948  0.2375  0.2279
64861W        W65725  19.976  28.904  13.665  0.0190  0.1799  0.3389
64862W        W65726  24.417  10.800   0.597 -0.1596  0.0037  0.2240
64863W        W65727  17.912  11.815  21.875 -0.0535 -0.0584 -0.0445
64864W        W65728  10.142   4.840   0.775 -0.1670 -0.0805  0.2314
64865W        W65729  18.052  16.373  27.124 -0.2443  0.1712 -0.2068
64866W        W65730  18.632  23.676  16.889 -0.1779  0.0400 -0.1911
64867W        W65731   7.839  11.451  25.449 -0.0632  0.1283 -0.0819
64868W        W65732  27.075  10.727  18.830  0.0057 -0.0944 -0.1688
64869W        W65733   7.868  20.525  19.333  0.2876  0.0105  0.1365
64870W        W65734  14.352   8.986  20.475 -0.0514 -0.2931  0.2857
64871W        W65735   2.873   9.959   8.851  0.2155  0.3027  0.0463
64872W        W65736  14.948  19.705  28.173 -0.1299  0.0437  0.6391
64873W        W65737  21.851  16.772  15.201 -0.2347  0.0976  0.0539
64874W        W65738  16.101  18.757   9.633  0.4256 -0.0219 -0.0904
64875W        W65739   5.182   4.428  22.082  0.0854 -0.1388 -0.0685
64876W        W65740   1.733   0.085   6.772  0.2274  0.0158 -0.0669
64877W        W65741  20.646  11.164   1.214 -0.0024 -0.2423 -0.1431
64878W        W65742   9.456   6.126   5.943  0.0525  0.0274  0.1210
64879W        W65743  13.162  14.125  23.316  0.2625  0.0731 -0.0940
64880W        W65744   7.832   7.877  26.361  0.1051 -0.1788  0.3920
64881W        W65745  17.047  21.954   9.187 -0.0002  0.1596  0.0194
64882W        W65746   4.418  10.152  25.347 -0.1588 -0.3958 -0.2528
64883W        W65747  16.430  20.143   3.969 -0.1915  0.1962 -0.0886
64884W        W65748  24.924  23.975   5.100 -0.1193 -0.0462  0.2542
64885W        W65749   2.054  18.759  17.062  0.0782 -0.3787  0.1108
64886W        W65750  21.383   6.767   1.545  0.0490 -0.1245  0.1598
64887W        W65751  12.630  17.159  15.380 -0.0917  0.1565 -0.2251
64888W        W65752  12.504  28.241  12.030 -0.2094  0.0232 -0.0068
64889W        W65753  19.903  13.953  26.713 -0.4610 -0.0103  0.0714
64890W        W65754   6.631  21.558  17.886  0.0843 -0.2983 -0.3826
64891W        W65755  26.577  19.851  28.502 -0.1175  0.0225 -0.0853
64892W        W65756  17.648   2.163  16.152  0.1332  0.0850 -0.2497
64893W        W65757   5.864  14.322  14.536 -0.3515  0.0096  0.0280
64894W        W65758  20.038  13.933  28.901 -0.1562  0.0321 -0.0340
64895W        W65759  27.753  12.624   9.264  0.0298  0.0303  0.3120
64896W        W65760   9.861  16.960  10.105 -0.1914 -0.0303 -0.3165
64897W        W65761  22.832   0.177  28.806  0.1470  0.2189 -0.1040
64898W        W65762  18.981  19.915  25.494 -0.2761 -0.1250 -0.1454
64899W        W65763  19.524  13.752  12.584 -0.2937 -0.1348  0.0215
64900W        W65764  23.196  27.266   9.125 -0.0578 -0.3667  0.1460
64901W        W65765   3.528   7.645  12.143  0.1417 -0.2342  0.1989
64902W        W65766  21.374   4.992   2.395  0.1786 -0.0213 -0.0165
64903W        W65767   9.697   4.806  28.885  0.3587  0.0654  0.1608
64904W        W65768  26.460  10.494   9.991 -0.2935 -0.0565 -0.2387
64905W        W65769  16.663  13.004  15.891 -0.1886  0.1031  0.0187
64906W        W65770  25.356   9.680  17.268  0.2302 -0.0763  0.1764
64907W        W65771  21.380   8.681   5.326  0.1538  0.1591  0.1572
64908W        W65772  19.751   6.247  24.588  0.0829 -0.3669 -0.1730
64909W        W65773   3.674  15.223  24.753  0.0986 -0.0779 -0.0355
64910W        W65774   0.015  19.349   8.437 -0.1296 -0.0893 -0.1397
64911W        W65775  10.491  19.476  21.819  0.2345 -0.0795 -0.0307
64912W        W65776  18.780  17.892  19.073  0.1660 -0.2937 -0.6666
64913W        W65777  13.964  18.485  28.874 -0.1583  0.1753 -0.4856
64914W        W65778  11.407  14.719  27.039  0.1692  0.1165  0.0253
64915W        W65779  22.727   3.742  24.657  0.4702 -0.2386  0.3380
64916W        W65780  25.714  15.806  25.953 -0.0470 -0.0058 -0.2086
64917W        W65781  25.639   9.753   6.835 -0.2199 -0.1018 -0.1271
64918W        W65782  16.489  18.025   5.796 -0.0974  0.0646  0.1803
64919W        W65783  24.523  18.981  14.767  0.1044  0.0152 -0.1635
64920W        W65784   2.083  19.251  16.685 -0.2963 -0.1937 -0.0076
64921W        W65785  11.051  20.187   9.101 -0.4507 -0.1106  0.2848
64922W        W65786   5.627  15.194  21.793  0.0472 -0.5421 -0.2093
64923W        W65787  24.161  17.171  21.625 -0.3609 -0.2122 -0.0249
64924W        W65788  19.257  15.069  23.102  0.0616  0.3139  0.0165
64925W        W65789  27.199  18.419  16.299  0.1473 -0.1439  0.0450
64926W        W65790  18.526  12.774  16.281 -0.2608 -0.1954 -0.0564
64927W        W65791   7.179  14.011   4.417  0.0628  0.0538  0.1925
64928W        W65792   7.583  15.291  25.678  0.0544 -0.2261  0.1589
64929W        W65793   3.639   3.221   1.695 -0.0328 -0.0261  0.0811
64930W        W65794   3.208   8.565  27.247 -0.2936 -0.2198  0.1850
64931W        W65795  16.807  12.871  14.450 -0.1614 -0.1800  0.1086
64932W        W65796  21.187   7.759  24.678 -0.2515  0.0426  0.2924
64933W        W65797  12.141  23.680   1.208 -0.0819  0.0104 -0.1672
64934W        W65798   8.270  21.146   6.204 -0.2002 -0.0780 -0.3018
64935W        W65799   2.207   1.960  27.730  0.0338  0.3381 -0.0464
64936W        W65800   4.814  27.407   7.067  0.1038  0.2649  0.0176
64937W        W65801  24.068   8.404  21.539 -0.0284  0.2505 -0.1740
64938W        W65802   1.408  15.880  22.220  0.0408  0.3537 -0.3304
64939W        W65803  16.758  16.092  18.246  0.4252  0.1314  0.0351
64940W        W65804  28.248  26.949  28.939 -0.2787 -0.0240  0.0651
64941W        W65805  23.660   2.622  22.978  0.0262 -0.3529 -0.4575
64942W        W65806  18.068   1.953   5.309  0.1224  0.0062  0.1755
64943W        W65807  14.728  15.749  20.853 -0.0269  0.1247 -0.0877
64944W        W65808  14.095   3.678  15.503  0.1192  0.2615  0.0233
64945W        W65809   0.861  19.580   1.363  0.1527 -0.1861 -0.0504
64946W        W65810   0.192  22.411   8.104 -0.1567 -0.0397 -0.0981
64947W        W65811  22.979  17.663  17.705 -0.3277  0.0197 -0.0952
64948W        W65812  25.288  22.147  21.362  0.2529  0.1581 -0.3533
64949W        W65813   1.348   5.521   4.396 -0.1585 -0.1055  0.2252
64950W        W65814  24.031   1.414  23.589 -0.0735  0.2036  0.3208
64951W        W65815  12.426  17.748   2.449 -0.1150  0.0244  0.1098
64952W        W65816  11.751  28.906  15.248 -0.0194 -0.1725  0.0197
64953W        W65817   8.236  12.242   3.783  0.2268  0.0177  0.1870
64954W        W65818  12.639  19.318  18.338  0.1982  0.0558  0.1683
64955W        W65819  24.459   3.692  26.672 -0.0876 -0.3018 -0.0599
64956W        W65820  28.893  22.015   9.900 -0.0711  0.1844 -0.0156
64957W        W65821   3.326  13.284  27.408 -0.3692  0.3086  0.2005
64958W        W65822  17.659  22.835  12.550  0.2551 -0.1636 -0.4018
64959W        W65823  18.715  14.624   7.415 -0.0078 -0.0616  0.1036
64960W        W65824   1.919  22.873   4.308 -0.3370  0.3688  0.1641
64961W        W65825  17.856  12.137  29.116  0.0474  0.0147 -0.1231
64962W        W65826  23.209  19.462  28.983 -0.0911  0.0134 -0.2113
64963W        W65827   1.366   1.560  19.600 -0.4369 -0.1963 -0.4471
64964W        W65828   4.214  18.843   3.562  0.3605 -0.0103  0.2038
64965W        W65829  15.224   5.677   1.533 -0.2264  0.2743 -0.1109
64966W        W65830  18.010  21.094   1.177  0.0663  0.1042 -0.0554
64967W        W65831  18.317  11.362  17.097 -0.0662 -0.3716  0.1150
64968W        W65832  21.097  22.291  14.558  0.0834  0.1394 -0.1789
64969W        W65833  15.362   4.771  26.647  0.0551  0.0644  0.0809
64970W        W65834  18.768   3.778  20.729 -0.2575  0.2138  0.1928
64971W        W65835  12.149  26.866  12.566 -0.1277  0.1814 -0.2118
64972W        W65836   0.820  22.228   3.855  0.3335  0.1253  0.1824
64973W        W65837  28.900  21.435  19.196  0.2219  0.2206 -0.0035
64974W        W65838  16.253  26.541  22.908  0.1088 -0.0256  0.0817
64975W        W65839  11.693  24.698  22.080  0.2139  0.2276 -0.0162
64976W        W65840   6.426  16.482  17.042 -0.1754  0.0063 -0.0780
64977W        W65841  21.174  15.241  20.440 -0.2372 -0.1675 -0.0842
64978W        W65842  23.599  28.103  27.040  0.3109 -0.1533  0.2261
64979W        W65843   6.280  19.160  15.897 -0.0185  0.0517  0.0773
64980W        W65844   4.221   0.620  15.971 -0.0364 -0.1343 -0.1842
64981W        W65845  18.093   9.495   4.945 -0.2098 -0.2050 -0.1339
64982W        W65846  22.891  20.555  13.632  0.2255 -0.0024  0.1151
64983W        W65847  15.763  15.399  25.550 -0.0567 -0.0339 -0.1610
64984W        W65848  26.266  14.040  25.357 -0.0633 -0.2675  0.1423
64985W        W65849  19.714   6.730  17.275  0.0934 -0.1399 -0.0226
64986W        W65850  16.804   8.821  21.190  0.1001  0.0209  0.0746
64987W        W65851   0.304  17.132  16.361 -0.1984 -0.0275 -0.4449
64988W        W65852   7.766  11.640  13.825 -0.0121 -0.0316 -0.1281
64989W        W65853   5.850  13.010  17.418  0.0484 -0.2908  0.2161
64990W        W65854   5.682   8.265  13.353  0.1404  0.0104 -0.1047
64991W        W65855  27.444  13.827  13.988 -0.1526 -0.0489  0.0655
64992W        W65856   4.507   1.723  16.818  0.1370 -0.1245  0.1750
64993W        W65857  14.827  13.607  23.001 -0.0846 -0.2251  0.2210
64994W        W65858  14.782   9.305  21.811 -0.0793  0.0609  0.2134
64995W        W65859  11.746  16.366   0.912  0.2552  0.1123  0.1306
64996W        W65860  28.753  13.347  10.888  0.1105  0.4833 -0.0473
64997W        W65861   3.915  24.917  18.695  0.0766 -0.1700 -0.4981
64998W        W65862  23.921   5.864  18.663  0.0826 -0.3061  0.2133
64999W        W65863   7.595  15.233  17.549  0.0600 -0.0215 -0.1529
65000W        W65864  13.395  12.949   4.354  0.0835  0.0261 -0.2172
65001W        W65865  27.584  14.462  11.718  0.1685 -0.3314 -0.0110
65002W        W65866   1.425  15.661   0.031 -0.0808  0.0537 -0.3027
65003W        W65867  24.813  12.872   6.751  0.2064  0.0238  0.2391
65004W        W65868   0.775  14.697   0.922 -0.2503 -0.1086  0.1270
65005W        W65869  21.380  25.858   0.133  0.1948  0.1409  0.0254
65006W        W65870  26.091   6.937  12.599  0.2247 -0.4396  0.2372
65007W        W65871   9.721   4.474   8.146  0.1205 -0.0623 -0.2255
65008W        W65872  15.057   4.678  24.482 -0.0864 -0.1684 -0.0435
65009W        W65873  12.966   2.890  23.990  0.0718 -0.1520 -0.1404
65010W        W65874  27.185  21.124  18.008 -0.0356  0.2062  0.1264
65011W        W65875   2.877   4.469  19.169  0.0936  0.0801 -0.1256
65012W        W65876  26.780  13.586  11.167  0.0424  0.0229 -0.0192
65013W        W65877   4.738   3.578  22.097  0.2534 -0.1889  0.0272
65014W        W65878   5.960  28.436  23.235 -0.0591 -0.3619  0.1994
65015W        W65879  18.026   9.529  22.735 -0.0437 -0.1361 -0.2038
65016W        W65880  28.532  20.075   3.688  0.1581  0.1373 -0.3897
65017W        W65881  19.926  12.235  25.127  0.1891 -0.1480 -0.3643
65018W        W65882  18.766   5.549   2.006 -0.0455 -0.0176 -0.1190
65019W        W65883  22.090  15.967  17.862 -0.0142  0.0403 -0.2139
65020W        W65884  26.193  23.270  12.078 -0.0214  0.2071  0.1202
65021W        W65885  23.582  14.861   1.359  0.0587  0.0172 -0.3313
65022W        W65886  25.613  23.654  11.658  0.0199 -0.1916  0.0008
65023W        W65887  12.053  12.812  13.152 -0.0094  0.3450 -0.1583
65024W        W65888  25.738   5.693  21.403  0.0648  0.0727  0.0802
65025W        W65889  26.981  15.305   6.261 -0.1541  0.1609  0.3477
65026W        W65890   0.254   8.218  19.746 -0.1931  0.0366 -0.0911
65027W        W65891  28.894  24.668  21.784  0.2091 -0.1817  0.0866
65028W        W65892  24.067  26.152   9.853  0.1364  0.3606 -0.0870
65029W        W65893  13.807  19.236   5.230 -0.1827  0.1116 -0.0284
65030W        W65894  14.921  17.653   7.097  0.1867  0.1924 -0.0061
65031W        W65895  23.629   3.251   7.278 -0.0599 -0.1158  0.1672
65032W        W65896   0.874   9.722  15.407  0.1759  0.0518  0.0244
65033W        W65897  24.058  13.775  16.366  0.3500  0.1278 -0.1935
65034W        W65898   8.886  20.249  13.849 -0.0752  0.0991 -0.2345
65035W        W65899  25.299   3.688  20.878 -0.0625 -0.0293  0.0302
65036W        W65900  15.601   8.634  13.596 -0.3851  0.1930  0.2530
65037W        W65901  27.315  17.632  11.168 -0.0231 -0.1503 -0.2638
65038W        W65902  27.502  26.961  16.124 -0.0093 -0.1163 -0.0442
65039W        W65903   9.796  11.361   5.647 -0.0205 -0.1507  0.4661
65040W        W65904   8.497  14.246  20.407 -0.0327 -0.1198 -0.2704
65041W        W65905  15.467  18.121  14.190  0.3270 -0.0107 -0.1765
65042W        W65906   9.054   3.014  26.878 -0.2321 -0.1325  0.0477
65043W        W65907  25.548  11.975  13.002  0.2424  0.1351 -0.2361
65044W        W65908  13.432  14.344   4.771  0.0777 -0.1957 -0.2721
65045W        W65909  28.977  11.356  19.807  0.0775  0.1961 -0.1821
65046W        W65910  26.460   3.693  21.807 -0.0453  0.1321  0.0108
65047W        W65911  13.838  13.825   1.818 -0.0955  0.0261 -0.0601
65048W        W65912   4.258  11.600  19.358  0.0285 -0.1548 -0.0516
65049W        W65913  28.350  22.679  12.566  0.0085 -0.3116  0.2092
65050W        W65914  20.314  21.364  10.178  0.0385 -0.0703 -0.3043
65051W        W65915   6.726  11.009   9.422  0.2641 -0.1244  0.0758
65052W        W65916  24.535  24.002  19.301 -0.2731 -0.2402 -0.1080
65053W        W65917  11.090  18.540  18.345  0.3809  0.0288  0.2229
65054W        W65918  22.899   9.235  15.257  0.5704 -0.0199  0.1145
65055W        W65919  26.963   6.999  24.086 -0.3411  0.6001 -0.1992
65056W        W65920  13.972   1.011  13.098 -0.4377 -0.0106  0.2626
65057W        W65921  22.955  16.406  11.263  0.0277  0.2918 -0.0202
65058W        W65922   3.684  17.225  19.565  0.0434  0.0157  0.0494
65059W        W65923  15.006  19.812   5.959 -0.0559  0.1031  0.0116
65060W        W65924  14.744  18.040  14.627 -0.3039 -0.0673 -0.0541
65061W        W65925  22.123  24.549   7.219 -0.3046  0.3661 -0.1153
65062W        W65926  11.138  12.522  15.000  0.0450  0.0480  0.1838
65063W        W65927  18.841  17.787  26.428  0.0050  0.1950  0.0717
65064W        W65928  26.844   1.937  27.477 -0.0628  0.0132  0.0107
65065W        W65929   4.514  19.812   4.137  0.3538 -0.0540  0.0156
65066W        W65930  23.438  11.089   7.473  0.2947  0.2318 -0.1952
65067W        W65931   7.350  16.551  15.050  0.0525 -0.2376  0.1624
65068W        W65932  18.842  19.071  17.908 -0.0682 -0.1510 -0.3905
65069W        W65933  18.472  25.910  19.937 -0.0268  0.4910 -0.1596
65070W        W65934  20.326   5.846   1.872  0.2185  0.0137  0.0358
65071W        W65935   3.305  15.876  12.647 -0.0269  0.0997 -0.0798
65072W        W65936  22.132  11.631   7.421 -0.0674  0.1759 -0.1532
65073W        W65937  17.743  21.978  13.099 -0.0726 -0.0902  0.1843
65074W        W65938  12.153  18.595   4.083 -0.0739  0.0610 -0.2316
65075W        W65939  28.112  10.164  25.363  0.0523 -0.1423 -0.3032
65076W        W65940   8.305  20.816  25.253 -0.0471 -0.2405 -0.1217
65077W        W65941   1.668  17.907  14.972  0.0424 -0.1598  0.0610
65078W        W65942  23.048  22.980  19.094  0.3864  0.0209  0.4527
65079W        W65943  27.998  21.907   7.037 -0.0685 -0.0493  0.1580
65080W        W65944  27.496  21.851   2.359 -0.1175 -0.2258  0.2800
65081W        W65945  14.745  13.660  14.018  0.0332  0.1893  0.1111
65082W        W65946  22.104  16.586  11.818 -0.0160  0.0422  0.0870
65083W        W65947   6.995   0.285  12.194  0.2672  0.0554  0.2455
65084W        W65948  20.582  19.799  15.942  0.0957  0.2433  0.0289
65085W        W65949  25.777  14.251  15.072 -0.2293  0.4627  0.0633
65086W        W65950  24.235  11.008   1.905 -0.0095 -0.3070 -0.3151
65087W        W65951  11.659  20.759   9.786  0.0135 -0.0227  0.0064
65088W        W65952  27.841   4.532  20.873  0.0949  0.0232  0.2782
65089W        W65953  25.453  11.452  15.360 -0.1762 -0.0046 -0.1354
65090W        W65954   3.487  13.245  24.664 -0.2066  0.1070  0.2104
65091W        W65955  10.514   4.525  19.012  0.0540  0.2506 -0.2466
65092W        W65956  26.335  25.558  12.091  0.0810  0.0679 -0.1304
65093W        W65957  24.714  16.538   7.940 -0.0310 -0.2745  0.1776
65094W        W65958  24.580   2.347   0.132 -0.0016 -0.1312 -0.1782
65095W        W65959  29.105  10.771  13.165 -0.1140  0.1283  0.0052
65096W        W65960  25.509  17.103  20.903 -0.0046 -0.0693  0.3080
65097W        W65961  15.109  12.217  11.728  0.0350 -0.1070  0.1080
65098W        W65962  27.129   4.278  18.429  0.1154  0.3360 -0.3957
65099W        W65963   0.313   1.352  23.180 -0.2690  0.3216 -0.2190
65100W        W65964  13.269  14.235  28.711  0.1547 -0.1965  0.1293
65101W        W65965   3.776   8.175  24.206 -0.4149 -0.0001  0.3650
65102W        W65966   6.925   3.430  22.379 -0.2119  0.0872 -0.0084
65103W        W65967  11.598  13.152   5.371  0.1117  0.1571 -0.3528
65104W        W65968  26.615  11.750  23.729  0.3414 -0.4552 -0.0076
65105W        W65969   6.757  17.664   9.657  0.0657  0.3343 -0.0064
65106W        W65970   0.664  19.343  11.584 -0.4217 -0.1164  0.0429
65107W        W65971  15.422  25.302  19.169  0.2523 -0.0098 -0.0188
65108W        W65972  16.683   9.830   8.783 -0.1454  0.0690  0.0757
65109W        W65973   6.475  25.138  27.500  0.1514 -0.0019  0.2506
65110W        W65974  25.456  17.085   5.238 -0.0040 -0.1202  0.0626
65111W        W65975   1.697   8.140   5.519  0.3547  0.0281  0.0832
65112W        W65976  25.825  25.185  28.792 -0.2325  0.2508  0.0024
65113W        W65977   5.615  20.408  19.163  0.0284 -0.0828  0.0730
65114W        W65978  22.651  10.935  25.225  0.2156  0.0651 -0.1790
65115W        W65979  14.184  16.244   9.445  0.2237  0.1563 -0.0354
65116W        W65980  24.616   0.764  21.903  0.0938  0.1133 -0.2299
65117W        W65981  17.044   4.834  15.055  0.2751 -0.2468  0.0319
65118W        W65982   3.962  13.029  26.479  0.0348 -0.0599  0.1239
65119W        W65983  17.752  27.567  20.739  0.2327  0.1652  0.0416
65120W        W65984  28.286  21.606   7.789 -0.1544  0.0640 -0.3067
65121W        W65985  13.147   6.394   3.677  0.2648 -0.0032  0.0079
65122W        W65986  24.705   0.002  21.650  0.0803  0.1656 -0.1079
65123W        W65987  22.070  26.057  26.352  0.0525 -0.1424  0.2233
65124W        W65988  10.246   5.844  21.628  0.4316  0.0941  0.1182
65125W        W65989  26.494  18.697   9.896  0.3370  0.2485 -0.1259
65126W        W65990  28.011  27.175   3.376  0.0013 -0.2578  0.0645
65127W        W65991  15.419  12.829   5.384 -0.0436  0.3791 -0.2272
65128W        W65992  24.835  26.340  23.541 -0.2957 -0.0224  0.0502
65129W        W65993  22.697   5.969   9.145 -0.2009 -0.2430  0.3179
65130W        W65994  16.519   5.031  19.390 -0.0765  0.0405  0.2510
65131W        W65995   0.808  19.389  22.590 -0.1769 -0.0822  0.2867
65132W        W65996   8.776  27.480  15.248  0.0376 -0.0299  0.1382
65133W        W65997   2.754  22.417   9.143  0.2088 -0.1758  0.0160
65134W        W65998   3.725   1.669  22.752 -0.0763 -0.1089 -0.3553
65135W        W65999  15.692  25.014   5.253  0.0918  0.1537  0.0321
65136W        W66000  25.540  17.525  10.368 -0.2180 -0.1527 -0.2377
65137W        W66001  17.435  25.848   3.810  0.1442 -0.2414  0.0518
65138W        W66002  18.412   9.161  22.584  0.2766  0.1076  0.1130
65139W        W66003   3.213  12.004  25.527 -0.3557 -0.1499  0.0707
65140W        W66004  28.791   6.844  27.930 -0.1720  0.0581  0.3713
65141W        W66005  28.506   0.545   4.170 -0.1348 -0.1095  0.1840
65142W        W66006   8.541  12.471  15.904  0.2095 -0.0981  0.0927
65143W        W66007  14.492  15.857   3.126  0.0076 -0.0227  0.1419
65144W        W66008  26.022  17.666   0.107 -0.1167 -0.0901 -0.1546
65145W        W66009  29.042   7.708  21.823 -0.2178  0.5369  0.1719
65146W        W66010  22.745  21.789  16.752  0.0779 -0.3661  0.2144
65147W        W66011   4.537  22.686   9.790 -0.1988  0.0193 -0.1582
65148W        W66012  25.503   8.700   1.896  0.2215 -0.2462  0.0760
65149W        W66013  28.682  26.730  12.129 -0.2670 -0.0664  0.0688
65150W        W66014  20.198  18.603  21.351  0.1208  0.2615 -0.2561
65151W        W66015  21.736  14.171   9.713  0.0165  0.1520  0.2695
65152W        W66016  27.297  14.568   6.813 -0.1998  0.2230 -0.2083
65153W        W66017  12.245  15.726  20.950  0.1043  0.1993  0.0380
65154W        W66018  16.177  19.755  22.677  0.1362  0.0632  0.0387
65155W        W66019  20.032  12.930  19.445 -0.3548  0.1983  0.2309
65156W        W66020  23.218  18.007  14.410  0.1332 -0.1330 -0.1772
65157W        W66021  13.286   4.369   1.217  0.0200  0.2318 -0.2272
65158W        W66022  16.870  27.060  26.325  0.2442  0.1259 -0.1895
65159W        W66023  25.095   6.863   6.825  0.1839 -0.1649  0.0896
65160W        W66024  13.985  19.882  25.970 -0.1762 -0.1917  0.0070
65161W        W66025   9.992  14.211   8.475 -0.0584  0.1730 -0.1503
65162W        W66026  27.764  24.772  25.041  0.0854 -0.1171  0.0908
65163W        W66027   5.420  14.672   8.612  0.3086  0.5496 -0.1647
65164W        W66028  26.751  21.356  19.298 -0.1645  0.0845 -0.1260
65165W        W66029  18.771  23.509  18.383 -0.0383  0.0679 -0.0965
65166W        W66030  25.685   2.281  10.532  0.1567  0.0214  0.3008
65167W        W66031  27.780  28.860   3.880  0.1120 -0.3018  0.0357
65168W        W66032   8.456  11.280  13.516  0.0111 -0.2318  0.1647
65169W        W66033   2.504  16.810  21.062  0.2785 -0.1339 -0.0613
65170W        W66034  21.486   2.394   1.932  0.4881 -0.1382  0.1820
65171W        W66035   5.484   5.116   9.700 -0.1936 -0.1245  0.0677
65172W        W66036  25.655   8.238  17.050  0.0093 -0.1185 -0.0386
65173W        W66037  11.737  14.875  10.657 -0.0266 -0.0025 -0.0026
65174W        W66038  18.809  24.183  14.791 -0.0797  0.0346  0.0319
65175W        W66039  10.800  22.496   0.620 -0.0953 -0.2925  0.2064
65176W        W66040  12.854  24.632   5.879  0.1897 -0.2666 -0.0813
65177W        W66041  13.288  15.869   5.812  0.5686 -0.1612 -0.4325
65178W        W66042  28.179   3.812   6.574 -0.0667  0.0653  0.1901
65179W        W66043  25.023   6.088  20.981 -0.1407 -0.0268 -0.1052
65180W        W66044  20.199   5.387  16.560 -0.0573  0.1301  0.2616
65181W        W66045  24.448  11.098  17.709 -0.0596 -0.2975  0.2351
65182W        W66046   0.734  21.513  25.441  0.0260  0.2261 -0.5259
65183W        W66047  17.459   0.165  21.325 -0.0108 -0.1124  0.0566
65184W        W66048  23.144  15.496  17.137 -0.1821 -0.3632 -0.0142
65185W        W66049  14.260  17.482  20.283 -0.0213  0.4475  0.1362
65186W        W66050  15.660  20.502   5.061  0.1462 -0.1344  0.2475
65187W        W66051  14.576  18.394   6.916 -0.1382 -0.0853 -0.1184
65188W        W66052  16.551  20.576   7.561  0.2307  0.0353  0.1481
65189W        W66053  25.739   4.931  23.581  0.1041 -0.2065 -0.0934
65190W        W66054  22.045   5.025  15.387 -0.1090 -0.1749  0.1661
65191W        W66055  22.798   4.953  22.398  0.0927 -0.3442 -0.1967
65192W        W66056  16.814  13.007  23.046  0.0138  0.0048 -0.0644
65193W        W66057  25.095   9.926  10.957  0.0907 -0.2277 -0.1285
65194W        W66058  10.916  15.743   2.967  0.2226 -0.3007  0.0008
65195W        W66059   0.450   0.364  16.540  0.0792  0.0661  0.0347
65196W        W66060  15.693   0.708  18.854  0.0108  0.1164 -0.0038
65197W        W66061   9.528  19.716   2.956 -0.3512 -0.4182  0.0205
65198W        W66062  24.338  11.806   0.927 -0.0269  0.0324 -0.0012
65199W        W66063  24.871  12.148  19.801  0.2606  0.0421 -0.0391
65200W        W66064   3.213  11.549  10.650  0.2992 -0.1551  0.1363
65201W        W66065   4.072   7.940  18.826 -0.0364 -0.2395  0.4128
65202W        W66066   1.519  18.058  15.826  0.0477 -0.0392  0.2442
65203W        W66067   7.473  22.819  24.016  0.0839  0.2121  0.1285
65204W        W66068  18.882  21.006  18.082  0.3373  0.0941 -0.0432
65205W        W66069  26.879   4.123   5.531  0.0250 -0.1252  0.0812
65206W        W66070   1.527   6.237  16.086  0.0391  0.0108 -0.2676
65207W        W66071  18.538   7.159  28.768  0.0729 -0.3558 -0.2492
65208W        W66072   0.529   3.552  10.862 -0.0887 -0.0599  0.0025
65209W        W66073  14.223  12.001  22.491  0.2194 -0.0113  0.1460
65210W        W66074   6.035   8.772   3.437 -0.0579  0.2256 -0.0018
65211W        W66075  10.933  17.413  12.234 -0.1484 -0.0314 -0.0418
65212W        W66076   8.399  12.928  25.247 -0.0323 -0.0788  0.0275
65213W        W66077  16.619  21.080  23.848  0.1109  0.1506 -0.1916
65214W        W66078  23.534  15.794  11.344  0.2360  0.1473 -0.2929
65215W        W66079  19.023  20.714  28.480  0.0635  0.3231  0.0373
65216W        W66080  22.668   9.750   9.777 -0.2916 -0.1527  0.3912
65217W        W66081   7.753  18.405  16.750  0.1287 -0.0397 -0.3659
65218W        W66082  25.769   5.755  23.923 -0.2412  0.0427 -0.3904
65219W        W66083   0.091   0.156  13.553 -0.0778 -0.1019  0.0214
65220W        W66084   1.366   0.959  14.812  0.0226 -0.0609  0.1384
65221W        W66085  19.390  26.032   6.198  0.0499 -0.1982 -0.1255
65222W        W66086   5.055  17.116  21.265 -0.2639  0.0108 -0.1690
65223W        W66087  10.446  21.180   9.717 -0.1723 -0.0404 -0.1628
65224W        W66088  13.840   7.521  15.595  0.0939  0.0005 -0.0357
65225W        W66089  12.465  11.913   5.045 -0.1564  0.1829  0.2186
65226W        W66090   7.766   7.765  25.377 -0.3078  0.0376  0.2122
65227W        W66091   1.053  10.982   5.601  0.0627 -0.1091  0.2419
65228W        W66092  25.768   4.140  21.253  0.1916  0.0108 -0.0949
65229W        W66093   7.123  18.403  14.835  0.1998 -0.3372  0.1319
65230W        W66094  26.513  23.458  22.578  0.0755 -0.1020 -0.1282
65231W        W66095  22.091  19.028  15.573 -0.3006 -0.1224  0.2208
65232W        W66096  21.494   1.853  11.109  0.2570 -0.0640 -0.0250
65233W        W66097  10.982  11.399   3.772 -0.1061  0.2338 -0.1331
65234W        W66098   5.289   7.277  26.135  0.0839 -0.4366  0.0243
65235W        W66099  10.473  26.598  10.862  0.1545  0.0294 -0.3434
65236W        W66100   9.591   5.795  28.781 -0.3794  0.0101 -0.1835
65237W        W66101  18.114  12.035  10.301 -0.3149  0.2134 -0.0187
65238W        W66102  25.625   9.973  16.318  0.2723 -0.4697  0.2900
65239W        W66103   2.362   6.118  27.121 -0.1501 -0.2215 -0.4740
65240W        W66104  10.930  14.552  14.456  0.0494 -0.0704  0.3348
65241W        W66105  21.407  23.784   5.468  0.0801 -0.1647 -0.0610
65242W        W66106  23.697   7.195  18.973 -0.0124  0.0645  0.0762
65243W        W66107   0.682  16.846  22.770 -0.0999  0.1021 -0.0748
65244W        W66108  24.193  26.166  23.695 -0.2214 -0.0964  0.1056
65245W        W66109  28.106  26.061  17.527  0.2102 -0.1349 -0.3277
65246W        W66110  15.681  18.575   6.638 -0.0421 -0.1889  0.0574
65247W        W66111  25.281  17.303   3.390  0.0674 -0.0775  0.3059
65248W        W66112  20.937  18.650   0.080  0.0436  0.1598  0.3313
65249W        W66113   4.727  19.744  18.498 -0.0317 -0.0582 -0.0313
65250W        W66114  26.493  26.696   8.949 -0.0657 -0.0749 -0.3296
65251W        W66115  25.467   0.242  17.439 -0.2930 -0.4088 -0.3934
65252W        W66116   4.731  11.411   2.917 -0.1033 -0.4283 -0.3817
65253W        W66117   3.179  26.313   8.477  0.3810  0.0616  0.0406
65254W        W66118  23.723  27.306  16.641 -0.3554 -0.0590 -0.2030
65255W        W66119   0.602  14.560   0.006 -0.0015 -0.2558 -0.0419
65256W        W66120  17.749  11.913  16.678  0.0856 -0.0534 -0.0314
65257W        W66121   3.434   1.699  26.581 -0.0803  0.1182  0.0883
65258W        W66122  19.275   3.087  10.066 -0.1480 -0.1059 -0.0539
65259W        W66123   2.317  28.521  22.894  0.1358 -0.1313  0.1091
65260W        W66124  18.988   6.067  17.719  0.1000 -0.0702  0.1649
65261W        W66125  22.827  14.291  15.039 -0.0263  0.0341 -0.0932
65262W        W66126  10.428  21.193  25.836 -0.0601  0.0757  0.0926
65263W        W66127  11.108   8.001  27.572  0.0878 -0.1918  0.0048
65264W        W66128  16.970  10.479  19.961 -0.1859  0.0980  0.2023
65265W        W66129  23.205  18.858  24.072  0.2175  0.0553 -0.0892
65266W        W66130  22.520   8.976   4.572 -0.0971  0.0100 -0.0895
65267W        W66131  18.765  26.401   4.990 -0.0718  0.1410 -0.3103
65268W        W66132  15.294  16.047  28.629 -0.2536  0.0528  0.2947
65269W        W66133  15.136  12.337  23.427  0.0077 -0.0322  0.2469
65270W        W66134  19.795  16.217   5.044 -0.1131 -0.3350 -0.0284
65271W        W66135  26.432   3.467  20.174  0.2609  0.3160 -0.0540
65272W        W66136  19.002  14.295  24.799 -0.1956 -0.2490  0.1378
65273W        W66137  13.398  12.568  23.555 -0.0215 -0.1202 -0.0295
65274W        W66138  11.993   6.685  15.300  0.1068 -0.1323 -0.1185
65275W        W66139  18.549  16.860   6.697 -0.1589 -0.0518  0.1319
65276W        W66140   3.314  27.654   3.217  0.3368  0.0305 -0.0054
65277W        W66141  19.513  10.558  22.329 -0.2948 -0.0919 -0.1092
65278W        W66142  21.737  13.707  23.493  0.1377 -0.0777 -0.1584
65279W        W66143  27.472   8.974  25.079 -0.1360  0.0205 -0.0391
65280W        W66144  18.758  13.877  24.720 -0.0479 -0.1576 -0.2745
65281W        W66145  15.799  17.883   3.375 -0.4089  0.4071  0.1651
65282W        W66146   9.298  12.060  25.861  0.0282  0.2492  0.1689
65283W        W66147  27.963   4.383  24.422  0.0482  0.0152 -0.2310
65284W        W66148   7.956   3.032  25.967 -0.0948 -0.3168 -0.0032
65285W        W66149  16.601  27.525  13.684  0.0836 -0.1975 -0.0799
65286W        W66150  24.985  21.586  23.560 -0.1375 -0.2417  0.0072
65287W        W66151  15.819  10.672  11.355 -0.3297  0.1187 -0.0519
65288W        W66152   2.164  21.327   5.608 -0.1616 -0.0057 -0.2690
65289W        W66153  16.885  26.258  17.670 -0.1500 -0.3709  0.1622
65290W        W66154  12.427  12.519  28.844  0.4352 -0.3032  0.2135
65291W        W66155  28.808  25.595   9.589 -0.0498  0.1205 -0.1046
65292W        W66156   0.230  18.506  14.305  0.0027  0.1461  0.0046
65293W        W66157  20.722  16.508  26.921 -0.0544  0.2933 -0.3190
65294W        W66158  10.420  18.130  29.042 -0.0447  0.0614  0.1017
65295W        W66159  22.142  21.474  14.492 -0.1100  0.3443 -0.0889
65296W        W66160   7.258   9.256   2.054 -0.1697 -0.1974  0.0791
65297W        W66161  25.066   1.318  18.188 -0.0128  0.2130 -0.3241
65298W        W66162   4.093  15.076  15.230  0.2680  0.2603  0.2657
65299W        W66163  23.252   7.985  13.452 -0.0822 -0.0687  0.0982
65300W        W66164  25.243  15.377  27.441 -0.0942 -0.1291  0.1447
65301W        W66165  25.479  19.112  22.340  0.1068  0.0881 -0.0255
65302W        W66166  17.500  13.747  25.117  0.1432  0.0567 -0.0836
65303W        W66167   2.315  14.518   6.716 -0.3809  0.1287 -0.2363
65304W        W66168  12.836  27.888   0.316 -0.0832  0.1844  0.0429
65305W        W66169  17.724  28.637  20.452 -0.2327 -0.2968 -0.1516
65306W        W66170  24.509  16.094  18.339  0.1769  0.0410 -0.0448
65307W        W66171   3.224  12.904  16.774 -0.1470 -0.0927  0.0844
65308W        W66172   2.975  14.008  23.401  0.0507  0.0405  0.1443
65309W        W66173  10.457   5.172   8.151 -0.1480  0.0859 -0.1836
65310W        W66174  18.824   9.924  16.977  0.0737  0.2192  0.1350
65311W        W66175  25.804   1.487  22.548  0.0014  0.0160 -0.0972
65312W        W66176   1.491  14.089  18.004 -0.0838  0.4717  0.1686
65313W        W66177  25.690  23.692   1.650 -0.0626 -0.2276  0.0600
65314W        W66178  28.378  28.915  14.021  0.0517 -0.4108  0.0150
65315W        W66179   4.297  15.153  11.634  0.3219 -0.1982  0.1870
65316W        W66180  18.746  14.108   5.387  0.0869 -0.0282  0.1867
65317W        W66181  17.233   4.911  15.723  0.6153  0.1423 -0.0435
65318W        W66182  12.154   0.316  25.136 -0.1245  0.2913 -0.1044
65319W        W66183  26.061  23.248  23.486  0.0547 -0.1251 -0.1463
65320W        W66184  15.594  16.661  14.377 -0.0127 -0.2184 -0.2379
65321W        W66185  27.461  26.073   7.886  0.3398  0.0159 -0.0382
65322W        W66186  23.290  13.005   7.558 -0.1936  0.0278 -0.1252
65323W        W66187   0.241  16.892   4.070  0.2809  0.0887 -0.1534
65324W        W66188   6.732  25.777  14.502 -0.1305 -0.0547 -0.1145
65325W        W66189  17.090  15.240  10.573  0.1146  0.0194 -0.0341
65326W        W66190  18.550  12.199  16.586 -0.0578 -0.2839 -0.3200
65327W        W66191  19.222  22.363   7.128 -0.2077 -0.2790 -0.1711
65328W        W66192  22.594  11.468  26.111  0.2619 -0.1598  0.3483
65329W        W66193  15.405  15.269   5.908  0.2540  0.1308 -0.1854
65330W        W66194  11.235   0.061   0.023 -0.1634 -0.2220  0.2000
65331W        W66195   5.095  17.223  12.055  0.0895  0.2702 -0.1587
65332W        W66196  23.691  28.552   3.412  0.0920 -0.0586 -0.0127
65333W        W66197  23.754   4.022   6.871 -0.1438  0.1179 -0.1423
65334W        W66198  24.315  26.339  26.920  0.1826  0.1314 -0.1179
65335W        W66199   2.015  23.974   2.403  0.0746 -0.0024  0.0508
65336W        W66200  24.558  14.450  27.550  0.0518 -0.0965  0.1449
65337W        W66201  22.844  14.842  18.800 -0.1165 -0.2428 -0.0260
65338W        W66202  18.844   1.742   8.503 -0.0120  0.0466 -0.0105
65339W        W66203   0.581  13.956  19.812  0.1012  0.0744  0.0752
65340W        W66204   3.511  21.457   2.517  0.1763  0.0187 -0.1644
65341W        W66205   4.530   9.554  13.093  0.1637  0.0637 -0.0755
65342W        W66206  21.597  21.289  11.362 -0.2680  0.0174 -0.0409
65343W        W66207  16.090  27.715  14.988  0.2146  0.0436  0.2485
65344W        W66208   2.342  10.497  17.140  0.0602  0.0139  0.0535
65345W        W66209  23.624  18.836   9.385 -0.0369  0.0651 -0.2559
65346W        W66210  15.708   7.066  26.316 -0.1153  0.0121  0.0281
65347W        W66211   6.951  12.807  21.854  0.1481 -0.0717  0.4156
65348W        W66212  17.203  12.839  17.579  0.3445  0.1253 -0.1136
65349W        W66213   0.347  22.178  28.912  0.3616  0.0458 -0.1229
65350W        W66214  24.688  18.609  22.013 -0.2330  0.0960 -0.0698
65351W        W66215  23.278  19.323  19.254  0.5354  0.1787  0.1474
65352W        W66216  23.908   5.191  16.728 -0.1172 -0.0804  0.0327
65353W        W66217  24.232  24.341   3.984  0.3198 -0.2869 -0.2668
65354W        W66218   8.340  10.256  20.665 -0.0233  0.0192  0.1221
65355W        W66219  14.760  20.114   8.906  0.0119  0.1619  0.0584
65356W        W66220  23.665  28.783  22.377  0.3227  0.1087 -0.0920
65357W        W66221   2.816  20.079  25.739 -0.1313 -0.0930 -0.0393
65358W        W66222  23.675   7.721  24.360 -0.1115 -0.1923 -0.1903
65359W        W66223  10.964  23.482  26.410  0.2181 -0.2604  0.0675
65360W        W66224  10.637   5.887   9.423  0.0630 -0.2012  0.3273
65361W        W66225  21.012  20.194   2.470  0.4795  0.0893 -0.1672
65362W        W66226   7.445  23.221  24.606 -0.1903  0.0831 -0.0275
65363W        W66227  16.426  12.739  18.456 -0.0805  0.2881  0.0463
65364W        W66228   5.017  10.436   6.231  0.0143 -0.0093  0.0218
65365W        W66229  27.897  23.104  22.739  0.2299  0.0925 -0.0071
65366W        W66230   3.535  23.588   0.245  0.0361 -0.1083 -0.1842
65367W        W66231  21.377  18.401  25.686 -0.0742 -0.1042  0.0125
65368W        W66232  25.969  18.134  17.629  0.1690  0.0797 -0.3239
65369W        W66233  19.080   8.782  20.924  0.3779 -0.4082  0.0381
65370W        W66234  14.740  27.400  16.602  0.2647  0.0467  0.0664
65371W        W66235  23.965  15.628   2.136  0.1133  0.3575 -0.1217
65372W        W66236  14.237  16.488  25.630  0.1364 -0.0060 -0.1232
65373W        W66237  11.176  25.669  16.195  0.2081 -0.0107 -0.1650
65374W        W66238  14.960   1.357  21.993 -0.2681 -0.1019 -0.0428
65375W        W66239  16.676   7.994  25.439  0.0237 -0.0174 -0.1433
65376W        W66240  26.381  25.973  21.109 -0.0921 -0.0190 -0.0404
65377W        W66241  28.170   4.637  28.055 -0.4895 -0.0266  0.2212
65378W        W66242  22.549  19.414  16.648  0.1537 -0.1253 -0.0094
65379W        W66243  28.519  26.043  23.867  0.1883 -0.2131  0.1530
65380W        W66244  20.124  21.284  16.193 -0.0597 -0.1309 -0.0204
65381W        W66245  15.022  19.166  28.245  0.1318 -0.2313 -0.0507
65382W        W66246   0.881   1.024  21.238 -0.1785  0.1875  0.2643
65383W        W66247  24.518  14.342  26.829  0.0534 -0.2707 -0.0322
65384W        W66248   6.655  10.933  27.915 -0.0237 -0.2529 -0.3369
65385W        W66249  14.234  19.190  18.211  0.0408 -0.2118 -0.1015
65386W        W66250  24.589  19.412  22.105  0.3284 -0.0971 -0.3028
65387W        W66251  10.069  15.103   5.354 -0.1402  0.0135 -0.0818
65388W        W66252   1.587  18.861  28.081  0.2980  0.1203  0.0931
65389W        W66253  25.778  21.754   9.939 -0.4358 -0.0789  0.1642
65390W        W66254   3.017  11.644  24.830 -0.0040  0.2160 -0.0761
65391W        W66255  25.176  14.730  16.886  0.1210  0.0243  0.1594
65392W        W66256  12.536  27.072  27.726 -0.0543 -0.0038 -0.0762
65393W        W66257   1.938  23.605   1.526  0.0679  0.2864  0.1611
65394W        W66258  22.649  15.644  25.570  0.2236 -0.0651  0.2220
65395W        W66259  15.884   2.916  14.888 -0.0092  0.0593  0.1416
65396W        W66260   3.256   2.597  10.901 -0.0604  0.0746  0.2719
65397W        W66261  24.574   9.487   4.857 -0.1197 -0.0863 -0.0767
65398W        W66262  26.096  27.930   4.441 -0.1330 -0.3325 -0.1810
65399W        W66263   5.177   8.754  12.602 -0.0734 -0.0996  0.1750
65400W        W66264  15.184  22.621  14.595 -0.0561  0.1380 -0.1210
65401W        W66265   5.404  10.690  26.323  0.0633  0.1066  0.0342
65402W        W66266  20.566  15.906  22.220 -0.0818  0.1713 -0.0530
65403W        W66267  17.045  11.690  24.516 -0.0716  0.2501  0.2352
65404W        W66268  28.856  20.682  21.638  0.1463  0.1124  0.0766
65405W        W66269  10.683   5.646   1.131 -0.1504  0.0302 -0.1402
65406W        W66270  20.234  22.085  15.620 -0.0954 -0.1779  0.2014
65407W        W66271   8.290  10.000   5.757 -0.0004 -0.0192  0.0207
65408W        W66272  28.971   9.862  24.453  0.1694 -0.0146 -0.1107
65409W        W66273  27.782  14.684  25.599 -0.4229 -0.0658 -0.0652
65410W        W66274   3.782  16.461  18.290 -0.0853 -0.0126  0.1711
65411W        W66275  24.789   6.112  24.128 -0.0363  0.3925  0.3241
65412W        W66276  12.005  13.702   1.294 -0.2537  0.1286 -0.0159
65413W        W66277  19.613  13.788  18.945 -0.3076 -0.2572  0.1013
65414W        W66278  16.950  27.087   8.827 -0.2553 -0.2227 -0.2106
65415W        W66279   0.060  10.417  14.186 -0.2505  0.1266 -0.0864
65416W        W66280   3.657  21.625  19.478  0.3427  0.2788  0.0379
65417W        W66281   1.174   3.464  24.550  0.0465 -0.3446 -0.4592
65418W        W66282  23.744   0.983  25.368 -0.2109  0.2236  0.1344
65419W        W66283  19.323  10.115   4.687 -0.0423 -0.3178  0.0790
65420W        W66284   3.630  18.671   0.043 -0.0331 -0.5232  0.1919
65421W        W66285  24.817  24.386  19.523 -0.2426  0.1654  0.2347
65422W        W66286  10.040  15.251  17.496  0.0502 -0.3158  0.1305
65423W        W66287  26.557  22.547   8.444 -0.1424 -0.0801  0.0287
65424W        W66288   0.272  19.137  24.962  0.1242  0.0805 -0.0793
65425W        W66289  14.832  17.529  25.279 -0.1456 -0.1563 -0.0249
65426W        W66290   6.088  14.022  17.596 -0.0718 -0.3250 -0.4047
65427W        W66291   1.934  25.315  14.876 -0.1529 -0.4737 -0.0481
65428W        W66292   4.727   7.708  20.126  0.0736  0.0095 -0.0659
65429W        W66293  25.191  18.801  10.111 -0.3076  0.1486 -0.0282
65430W        W66294  20.641  19.737   1.119  0.0948 -0.1198  0.1602
65431W        W66295  13.254  27.149  13.220  0.0847 -0.0042  0.0625
65432W        W66296  17.705   7.131  25.435  0.0683 -0.0779  0.2486
65433W        W66297  22.825  21.366  18.192  0.0197  0.4014  0.0798
65434W        W66298  13.289  24.276   7.294 -0.1103  0.0930 -0.2943
65435W        W66299   0.824  11.933  25.092 -0.3606  0.1259  0.0136
65436W        W66300   7.619   2.440  21.598 -0.2090  0.3047  0.1628
65437W        W66301  27.230  15.790  22.849  0.2144 -0.0953  0.0015
65438W        W66302  29.136   7.754  12.901  0.0971 -0.2874  0.1533
65439W        W66303   0.306  10.484  10.299 -0.2126 -0.0975  0.1594
65440W        W66304  24.074   6.858  12.783  0.1508 -0.0517 -0.1392
65441W        W66305  21.861  13.062  22.707  0.0500  0.1528  0.0582
65442W        W66306  13.714  13.140  14.700 -0.3110 -0.1853 -0.2487
65443W        W66307  28.931   5.748  10.963 -0.2202 -0.0443  0.1678
65444W        W66308  25.381  13.960  17.457 -0.3422 -0.2395 -0.0668
65445W        W66309  25.573  15.895  26.464  0.1059 -0.0679  0.1941
65446W        W66310  18.703  11.734   1.862  0.0531  0.1573  0.2576
65447W        W66311  24.665  17.377   2.984 -0.0755 -0.0214 -0.1450
65448W        W66312  19.991  14.744  28.285 -0.1870 -0.5465 -0.1788
65449W        W66313  21.880   4.021   2.504  0.1943 -0.2640  0.0748
65450W        W66314   5.990  14.556  10.715 -0.2086  0.1038  0.1405
65451W        W66315  28.090  27.763   5.213 -0.2591  0.0396  0.1175
65452W        W66316  22.061   4.966  25.209 -0.3669  0.0030 -0.2175
65453W        W66317   2.307  10.852  24.654 -0.1092 -0.0900  0.0057
65454W        W66318  27.068  21.012   8.488 -0.2267  0.0296  0.0443
65455W        W66319  29.070  11.131  21.804 -0.0286 -0.0564 -0.0519
65456W        W66320  24.544  19.457  25.449 -0.0099  0.2839 -0.0421
65457W        W66321   0.627   6.062  15.043  0.0573 -0.1694  0.0207
65458W        W66322  22.237  13.013  13.660  0.4552 -0.0626 -0.1728
65459W        W66323  12.651  24.414   7.973 -0.1474  0.2308 -0.0665
65460W        W66324  28.503  22.577  27.357  0.2177 -0.0580 -0.2908
65461W        W66325  28.207  22.448  20.489 -0.1270  0.0534  0.2003
65462W        W66326   7.268  13.246  27.445  0.1316  0.2139 -0.2673
65463W        W66327   0.569   1.656   0.516  0.1620 -0.0510 -0.1438
65464W        W66328  16.870  11.319  15.422 -0.3360  0.2316  0.1876
65465W        W66329   7.114  14.419  21.810  0.1932 -0.1664 -0.2232
65466W        W66330  22.149  10.772   9.194 -0.4906 -0.1500  0.0267
65467W        W66331  16.492  20.579  17.797  0.0170 -0.0486 -0.1960
65468W        W66332  22.217   1.278   5.104 -0.1084 -0.1611  0.0061
65469W        W66333  12.647   2.613   5.538  0.1636 -0.0735 -0.1031
65470W        W66334  14.799  26.969  25.872 -0.1869  0.1466  0.0162
65471W        W66335  11.489  10.701  18.206  0.0667  0.1925  0.3447
65472W        W66336   7.061   7.492  23.536  0.0253 -0.0256  0.2479
65473W        W66337   1.530  24.145  18.434  0.2527  0.0356 -0.2111
65474W        W66338  20.077   9.726  18.679  0.1740 -0.3029  0.2038
65475W        W66339  28.560  22.201  16.965 -0.1630  0.2766  0.1411
65476W        W66340  26.753   4.432   1.250  0.0290  0.1940  0.0856
65477W        W66341  24.225  26.455  19.564 -0.1715  0.0563 -0.0007
65478W        W66342  23.593  21.815  12.532  0.0098 -0.5220  0.1824
65479W        W66343   8.093  22.118  10.369  0.1960 -0.2227  0.0195
65480W        W66344  21.950   5.041  23.120 -0.4270  0.0449 -0.2113
65481W        W66345  21.343  13.870  14.002 -0.0417  0.2879  0.0099
65482W        W66346   5.102  22.556  23.235 -0.1415  0.0260  0.0738
65483W        W66347  20.996  18.220   2.044 -0.0038  0.0318  0.0605
65484W        W66348  21.907  20.249  27.155 -0.0324  0.3085  0.1197
65485W        W66349   8.555  16.949   8.493 -0.1032 -0.0043  0.2324
65486W        W66350  27.649  10.007  28.404 -0.2140 -0.1488  0.0092
65487W        W66351   0.937  17.608  24.219 -0.1823  0.0799  0.1049
65488W        W66352  28.281   7.760   4.069  0.0216 -0.1592 -0.0306
65489W        W66353  23.377  12.779   9.106  0.3553 -0.2038  0.3261
65490W        W66354  16.778   4.192   2.198 -0.1110  0.0614  0.1988
65491W        W66355  18.270  19.481  15.018 -0.1152  0.0501 -0.0494
65492W        W66356  26.843  27.016  17.176 -0.3287 -0.3198  0.1844
65493W        W66357  17.057  13.518  28.745  0.3164  0.2980  0.0036
65494W        W66358  15.319   6.397  23.139  0.3578 -0.0838 -0.3464
65495W        W66359  16.488   3.345   7.704 -0.2334 -0.1571  0.2224
65496W        W66360  18.465  14.145  25.013  0.1335  0.1430  0.0585
65497W        W66361  28.254  15.525  19.326  0.1753 -0.4790  0.0886
65498W        W66362  28.041  10.213  14.100 -0.0740  0.2445  0.3201
65499W        W66363  14.566  14.469  24.945  0.3224  0.0375  0.0344
65500W        W66364  24.126  14.209  18.665 -0.2570  0.1597  0.5254
65501W        W66365  22.624   4.606  26.258 -0.0960 -0.1105 -0.2387
65502W        W66366   0.839   6.702  15.737 -0.0161 -0.1173 -0.2788
65503W        W66367  22.002   9.566  20.736  0.2050 -0.0865  0.0765
65504W        W66368   3.875   5.883   6.093 -0.2071 -0.0623  0.0564
65505W        W66369   4.491   7.444  23.384  0.1700  0.2006  0.2772
65506W        W66370  11.257  14.776  20.218  0.0561  0.0142 -0.1395
65507W        W66371  21.895  28.258   6.042  0.1612 -0.0905  0.1256
65508W        W66372   7.128  14.073  20.121  0.0691 -0.1230 -0.3257
65509W        W66373  23.448   2.908  12.992  0.0360  0.2033  0.0059
65510W        W66374   3.672  18.563   6.595 -0.0459 -0.0395 -0.2831
65511W        W66375   9.162   7.910  19.142 -0.2097 -0.3931  0.3175
65512W        W66376  27.419   5.957  15.067  0.1639  0.0816  0.0975
65513W        W66377  10.191  21.244  13.336  0.2801  0.0741  0.3147
65514W        W66378  24.826  18.862  15.590 -0.0720 -0.0763  0.4049
65515W        W66379  22.917  10.939  26.390 -0.0382 -0.2388 -0.0563
65516W        W66380  23.036  11.702  19.494  0.1317 -0.1918 -0.1076
65517W        W66381  12.719   9.888  21.951  0.1926  0.1273 -0.1918
65518W        W66382   2.254   6.213  19.563  0.3149  0.2725  0.0407
65519W        W66383  25.990  19.011  16.666 -0.0298  0.2276  0.0359
65520W        W66384  14.865   2.256   4.066 -0.1168  0.4308  0.1935
65521W        W66385  18.599   3.903  15.847  0.0124 -0.0199  0.0822
65522W        W66386  25.289  13.441  14.970  0.1768 -0.0295  0.2018
65523W        W66387   3.023  24.767  19.064 -0.0258 -0.0217  0.1721
65524W        W66388   3.776  18.859  17.388 -0.0051 -0.1595  0.1816
65525W        W66389  23.679  13.024   3.381 -0.1083 -0.4813  0.1111
65526W        W66390  17.887  24.235  25.892 -0.1246  0.0923 -0.0737
65527W        W66391   7.105  19.712  19.486 -0.0337 -0.0050 -0.0662
65528W        W66392  17.465   3.012   3.284  0.1872  0.1049  0.1287
65529W        W66393   0.651   4.907  23.163  0.1699 -0.1693 -0.3487
65530W        W66394  16.813  27.527  12.457 -0.1143  0.0629  0.3656
65531W        W66395  21.128  24.767  15.287  0.4364  0.0813 -0.1495
65532W        W66396  13.048   5.027  18.596  0.3953  0.1126  0.1773
65533W        W66397  12.731   7.526  27.083  0.0264 -0.2315  0.2255
65534W        W66398  22.096  16.739  17.980 -0.1504 -0.0112 -0.0182
65535W        W66399  23.120  16.819  13.742 -0.0165  0.1342 -0.1432
65536W        W66400  20.657   6.907   5.281  0.1353  0.0313  0.0972
65537W        W66401  25.276   5.690  18.999  0.1135 -0.0638  0.0288
65538W        W66402  23.064  27.272   7.500  0.0916 -0.0173  0.7450
65539W        W66403  27.440  13.234   0.282  0.0497 -0.0357 -0.1633
65540W        W66404  14.116   5.182  17.893  0.0391  0.0150  0.0150
65541W        W66405  23.066  12.828   0.740  0.0572  0.1958 -0.1076
65542W        W66406  15.053  13.760  20.459 -0.0093 -0.2803  0.2705
65543W        W66407   2.509  24.862  19.189 -0.2020  0.0165 -0.4197
65544W        W66408  22.717   9.433  22.981  0.0308  0.2079  0.2610
65545W        W66409  23.172  18.946  11.435 -0.2367 -0.1690 -0.0898
65546W        W66410   9.823  18.056   7.389 -0.1340  0.1888  0.0757
65547W        W66411  23.620   4.643   1.983 -0.2203  0.2085  0.2786
65548W        W66412  14.316  21.845  18.836  0.0685 -0.1813 -0.0119
65549W        W66413  10.556  17.492   3.772 -0.0513  0.0463  0.2959
65550W        W66414  11.024   9.557   0.329  0.0997 -0.3612  0.2780
65551W        W66415   1.204  10.137  12.360  0.1942  0.2205 -0.2001
65552W        W66416   0.497  24.101  13.931  0.0109  0.1412 -0.4631
65553W        W66417  24.502   8.350  12.773 -0.4659 -0.0197  0.0835
65554W        W66418   3.815   3.845  24.233 -0.0815  0.2037  0.1827
65555W        W66419  13.694   2.265   1.100  0.0010 -0.1311  0.0903
65556W        W66420  24.298   9.881   8.589 -0.2533  0.1764  0.1344
65557W        W66421  28.835  24.155   0.854 -0.1807 -0.0403  0.2040
65558W        W66422  15.032  24.840  20.953 -0.0879 -0.3435  0.3520
65559W        W66423  12.092  13.515  29.073  0.0364  0.1078 -0.0872
65560W        W66424  19.066  10.261   0.491  0.0743  0.1213  0.1341
65561W        W66425  18.323  20.078   8.173 -0.3410 -0.1280 -0.0380
65562W        W66426   1.204   7.249   0.464  0.1599 -0.1606 -0.1880
65563W        W66427  20.789   5.081  17.401  0.1485 -0.0157 -0.0363
65564W        W66428  13.125  18.302  28.641  0.1107  0.2672  0.1313
65565W        W66429  15.236  10.893  13.081 -0.1775  0.1086  0.3007
65566W        W66430   8.708   9.766  15.099 -0.0887 -0.0763  0.0588
65567W        W66431  26.763  26.556   1.275 -0.1951  0.0248  0.3028
65568W        W66432  20.247  11.305  28.845 -0.3125  0.1381  0.0714
65569W        W66433  21.898  19.256  24.785  0.0108  0.1307  0.2245
65570W        W66434  24.555  14.089  24.476 -0.0301  0.1012  0.2953
65571W        W66435   2.276  13.246  28.708  0.0343  0.2402 -0.3178
65572W        W66436  24.232  19.813  27.032 -0.1451 -0.0917 -0.1140
65573W        W66437  14.885  19.580  19.091 -0.2309 -0.1971 -0.1115
65574W        W66438   6.274  15.667  28.952 -0.1677 -0.0159 -0.0814
65575W        W66439  26.634  13.063  16.361  0.1633  0.2693 -0.0195
65576W        W66440   2.398  24.176  21.240  0.3806 -0.0585  0.0093
65577W        W66441   9.647  25.824   0.779 -0.0232 -0.3885 -0.0319
65578W        W66442  13.065   8.249   6.647 -0.1746 -0.2087  0.3429
65579W        W66443  29.123   4.627  12.754 -0.1579  0.0320  0.1307
65580W        W66444  26.715  12.739  14.816  0.0713  0.1968 -0.0326
65581W        W66445  17.114   5.611  26.320 -0.1779 -0.1720 -0.1998
65582W        W66446  24.832   0.372  17.197 -0.1852 -0.0408 -0.0743
65583W        W66447   9.398  12.259   2.217 -0.3251 -0.2563 -0.3678
65584W        W66448   0.334  23.436  21.002 -0.1891  0.0209 -0.4770
65585W        W66449  11.965  22.341  15.109 -0.3329  0.1967 -0.0399
65586W        W66450  14.976  12.287   3.514 -0.3955  0.2026 -0.1423
65587W        W66451  27.380  11.949  17.125  0.0576  0.2357  0.2805
65588W        W66452  24.530  14.519   2.480 -0.0759  0.3319  0.2281
65589W        W66453  24.285  11.789  29.045 -0.0102  0.1486  0.1964
65590W        W66454  25.597   9.360  14.468  0.0464  0.4101  0.0313
65591W        W66455  15.418  25.981  16.898  0.0619  0.0743  0.0447
65592W        W66456  17.025   6.488  26.453  0.2067  0.0348 -0.2529
65593W        W66457  12.223  12.537  12.634 -0.0587 -0.0024 -0.3484
65594W        W66458  16.890  10.716  25.805  0.1953  0.1225 -0.2063
65595W        W66459  27.337   3.035  28.845 -0.0871 -0.0878  0.2503
65596W        W66460  16.084  10.649  24.073  0.1729 -0.0240 -0.1649
65597W        W66461  15.918  11.446  28.637 -0.3056  0.0909  0.0272
65598W        W66462  26.405   0.617  18.154 -0.2027 -0.3113  0.0314
65599W        W66463  19.485  18.403  20.798  0.2815  0.0028  0.0073
65600W        W66464  23.142  11.570   8.084  0.0611  0.0468 -0.1195
65601W        W66465  22.213  19.995  28.933 -0.0349  0.0896 -0.0695
65602W        W66466  26.252  27.558  25.511 -0.3242 -0.2418  0.0263
65603W        W66467  25.930  25.380  12.317  0.0056 -0.1449 -0.0956
65604W        W66468  16.913   6.857   0.208  0.0288  0.1836  0.1659
65605W        W66469   8.625  26.050   0.114  0.0868  0.0559 -0.2501
65606W        W66470  14.108  15.951  16.916 -0.1341 -0.4976 -0.2728
65607W        W66471  15.029  12.081  12.584 -0.3565 -0.0505 -0.1006
65608W        W66472  22.338  25.681  16.927 -0.0629  0.3407 -0.0286
65609W        W66473  27.367   4.385  23.439 -0.3207 -0.0014  0.1242
65610W        W66474   4.883  24.659   6.365  0.2316 -0.3376 -0.2758
65611W        W66475   1.021  10.320  21.587 -0.0030 -0.1261  0.0738
65612W        W66476   9.091  21.905  21.399 -0.2568 -0.4048  0.1419
65613W        W66477  23.808  24.160  12.500 -0.5790  0.1842  0.0501
65614W        W66478   7.626   3.214   2.601  0.1260 -0.0012 -0.0052
65615W        W66479  23.742  19.036  15.518  0.5161  0.1380 -0.1424
65616W        W66480   2.865  17.620   4.886 -0.3417 -0.0453 -0.0479
65617W        W66481   3.763   7.789  22.561 -0.3342 -0.1723 -0.0529
65618W        W66482   0.180   7.208  10.429  0.0935  0.2839 -0.1006
65619W        W66483  12.670  15.599   5.138  0.1284 -0.0421 -0.2900
65620W        W66484  17.034   9.516  15.494  0.0203  0.2460 -0.1667
65621W        W66485  27.116  19.402  16.044  0.0009 -0.0544 -0.0303
65622W        W66486  22.412  20.165  23.581  0.1539 -0.0981  0.2884
65623W        W66487  24.467  13.935   9.858 -0.2662 -0.0350 -0.1859
65624W        W66488  26.637  14.879  22.037 -0.3273 -0.0660  0.0960
65625W        W66489   7.079   3.963  11.065  0.0844  0.1325 -0.3070
65626W        W66490   2.043  17.349  25.684 -0.0817  0.1382  0.1266
65627W        W66491   4.036  23.720  21.447  0.0830 -0.0991  0.1379
65628W        W66492  20.306  13.171   2.125 -0.3264 -0.1126 -0.1480
65629W        W66493  27.804  27.635  13.191 -0.1463  0.2512  0.2276
65630W        W66494  25.051  16.407   3.156  0.0395  0.1032  0.0834
65631W        W66495   4.315   8.111  11.141  0.1263  0.0350  0.1288
65632W        W66496   3.298  11.712  12.283 -0.1339 -0.0674 -0.2526
65633W        W66497   5.694  20.505  12.966  0.1599  0.2835 -0.0290
65634W        W66498  26.947  18.203  28.328  0.0298  0.0529 -0.0859
65635W        W66499  23.591  22.965   8.002 -0.0471  0.0405  0.1445
65636W        W66500   4.591   6.341  21.232 -0.1838  0.4034 -0.1006
65637W        W66501  18.135   6.862  10.530  0.1039 -0.1464  0.0875
65638W        W66502  25.552   5.021  26.426 -0.0477 -0.1958  0.0255
65639W        W66503   0.125  13.356  12.658  0.1387  0.1035  0.0385
65640W        W66504  27.463  10.922  11.584  0.0741  0.0293  0.1960
65641W        W66505  12.419   5.111   2.689  0.1543 -0.1751  0.3947
65642W        W66506  28.612   9.388  26.089  0.0478 -0.2042 -0.1730
65643W        W66507  16.268  14.236  22.805  0.0789  0.0623 -0.0703
65644W        W66508  20.472  16.745   7.106  0.1762  0.3962  0.1236
65645W        W66509  12.532  18.438  12.587  0.0376 -0.0334 -0.0444
65646W        W66510   0.664   6.428  17.273  0.1033 -0.0727 -0.1900
65647W        W66511  22.358  14.888   9.995 -0.0740  0.0959  0.1411
65648W        W66512   4.964  11.324  18.317 -0.0535  0.0834  0.0594
65649W        W66513  27.443  26.293   6.275  0.2899 -0.1611 -0.2816
65650W        W66514  15.023  23.053   4.445  0.0717  0.1576  0.1270
65651W        W66515   0.303  18.344  13.808 -0.1000 -0.0560  0.0634
65652W        W66516   2.668  26.047  24.739 -0.1263 -0.1007  0.1578
65653W        W66517  17.234   8.210  13.300 -0.0917 -0.1777 -0.0167
65654W        W66518  13.441  19.382  15.165  0.1344 -0.0206 -0.1361
65655W        W66519  24.713  29.016  16.932 -0.1375  0.0603  0.1033
65656W        W66520   5.204   2.681   9.567 -0.1327  0.1364  0.2164
65657W        W66521  13.444   1.757  10.073  0.1353 -0.1351  0.2005
65658W        W66522  25.711  20.820   9.321 -0.1421 -0.1598 -0.0679
65659W        W66523  20.049  16.787  27.477  0.2264  0.1741  0.0630
65660W        W66524  27.838  14.666  21.680 -0.1515  0.1764  0.0633
65661W        W66525   2.125   7.517  16.739  0.2274 -0.2383 -0.1276
65662W        W66526  11.817  16.919   8.375  0.1307 -0.0104  0.0722
65663W        W66527   2.876  18.395  21.644 -0.3327 -0.0438  0.2944
65664W        W66528  12.865  14.731  17.790  0.0661  0.2643  0.2774
65665W        W66529  14.446  23.463   7.298 -0.3537  0.1809  0.1593
65666W        W66530   3.673  12.184  28.220  0.3420 -0.0641 -0.4002
65667W        W66531   1.502   9.630  25.540 -0.0666  0.0858  0.0327
65668W        W66532   6.716   6.918  22.955  0.1474  0.1485 -0.1285
65669W        W66533  15.475  17.671  28.726  0.1062  0.3317  0.0160
65670W        W66534  13.901   5.437   8.105  0.0654  0.0079  0.3056
65671W        W66535  20.889   9.491  15.543 -0.0344 -0.0560 -0.0419
65672W        W66536  28.856  20.358  26.280 -0.4090  0.0206 -0.0942
65673W        W66537  16.323  15.544  26.783  0.2849 -0.1103  0.0347
65674W        W66538   1.566  17.378  25.497  0.2468  0.3044 -0.1642
65675W        W66539  23.693  20.308  20.122 -0.3150 -0.2461  0.1011
65676W        W66540  15.923  26.654  12.552 -0.0111  0.0798 -0.0184
65677W        W66541  16.263  13.409   2.835  0.1822  0.0652 -0.2445
65678W        W66542   6.693   3.216   5.493  0.3150  0.4736 -0.0397
65679W        W66543  16.556  17.393  22.579  0.0709  0.0013  0.0816
65680W        W66544   3.411  23.734  25.241 -0.0154  0.2257  0.0068
65681W        W66545   4.809  18.856  19.624  0.0196  0.2088 -0.1092
65682W        W66546   0.468   5.888  17.750  0.3404 -0.0240 -0.0707
65683W        W66547   1.620   4.394   9.741  0.2652  0.2848  0.2149
65684W        W66548   2.343  12.802   8.817  0.3260  0.0873  0.2757
65685W        W66549   2.199  25.941  22.945 -0.4898  0.0754  0.0878
65686W        W66550   5.408   6.956   1.142  0.0939 -0.2375  0.0888
65687W        W66551  23.217  13.636  28.280 -0.0888  0.1021 -0.0129
65688W        W66552   2.274   4.276  28.189  0.0426  0.0519 -0.4357
65689W        W66553   1.241   4.340  14.776 -0.1998 -0.2650 -0.2755
65690W        W66554   0.495  13.672  18.961 -0.4037  0.0010  0.0045
65691W        W66555   3.850   7.789   0.974 -0.1780  0.1219 -0.1948
65692W        W66556  19.445  17.512  24.236 -0.2843 -0.0570 -0.3041
65693W        W66557  21.706   5.886  21.550  0.0221  0.0538 -0.1503
65694W        W66558   0.469  19.444  21.038 -0.0217  0.2029  0.3882
65695W        W66559  20.283  20.092  26.840 -0.0812  0.3455 -0.1853
65696W        W66560  14.091  11.939  27.403 -0.1694  0.1086  0.4700
65697W        W66561  27.344  22.075  16.376  0.1595  0.2319  0.0358
65698W        W66562  24.704  16.364  15.548  0.1431 -0.1085  0.0620
65699W        W66563  16.829  22.168   4.850  0.2744  0.2081  0.2754
65700W        W66564  16.277  18.736  14.754  0.1883  0.1503 -0.2636
65701W        W66565  21.432  21.102  20.194  0.0916 -0.0168  0.0277
65702W        W66566  25.883  13.029   3.123 -0.1355 -0.1876  0.0952
65703W        W66567  26.765  20.030  26.877 -0.1612  0.0655 -0.0062
65704W        W66568  22.608  12.515  11.984  0.1926 -0.2259  0.0662
65705W        W66569  18.818  11.987  28.950 -0.0892  0.2173 -0.1004
65706W        W66570   3.232  25.160  21.291 -0.0395 -0.1330 -0.1399
65707W        W66571  10.708  26.945   2.939  0.1247 -0.3144 -0.0207
65708W        W66572  28.222  24.028  23.541 -0.0309  0.1587  0.0829
65709W        W66573   7.689   8.977  19.439 -0.1073  0.2069 -0.0862
65710W        W66574  14.314  27.079   1.641  0.0594 -0.2958  0.3042
65711W        W66575  14.790  13.646  18.968 -0.0808 -0.3464 -0.1412
65712W        W66576  20.415  16.875  20.881  0.1668  0.1196 -0.1926
65713W        W66577  22.613  12.142   6.911  0.2196 -0.1358  0.3462
65714W        W66578  22.169   9.248  22.420  0.1994  0.0747 -0.3094
65715W        W66579  24.030  25.152   3.584  0.0154  0.2939  0.1347
65716W        W66580   6.508  13.833  17.984 -0.0117 -0.0662  0.0402
65717W        W66581  20.780  15.619   7.124 -0.1580  0.1669  0.0475
65718W        W66582  25.289   8.378   2.230  0.3955 -0.0113 -0.1263
65719W        W66583  14.718  27.958  15.080 -0.1791 -0.2033 -0.1524
65720W        W66584  18.553  25.795  28.370 -0.0657 -0.2320  0.3249
65721W        W66585   0.674  10.050  28.004 -0.0250 -0.1267 -0.1993
65722W        W66586  15.769  22.871  15.216 -0.2800  0.1532  0.4889
65723W        W66587  26.618  28.682  24.616 -0.1611  0.3133 -0.0542
65724W        W66588  14.408  13.325  13.157 -0.1535  0.1572 -0.1524
65725W        W66589  25.243  17.189   4.038  0.1540 -0.2319 -0.0931
65726W        W66590  21.427  19.709  25.128 -0.0101 -0.1121 -0.1563
65727W        W66591  21.849   3.649   6.244  0.2300  0.0511 -0.1256
65728W        W66592   8.205  12.168  13.332  0.1817 -0.0544  0.0326
65729W        W66593  25.811   4.838  25.360  0.0983 -0.0743  0.1820
65730W        W66594  26.270  28.345   4.152 -0.1119  0.0909 -0.3669
65731W        W66595   8.757   3.288  24.153 -0.0481  0.0647  0.1466
65732W        W66596  15.345  11.130  11.354  0.1441  0.0591  0.2441
65733W        W66597  15.837  26.501   2.688 -0.2234 -0.0702  0.0005
65734W        W66598   9.267   5.368  20.058 -0.1252  0.0781 -0.3474
65735W        W66599  16.664  24.679   4.275 -0.1819  0.0547  0.2114
65736W        W66600   5.839  24.593  10.098  0.3232 -0.2142 -0.0734
65737W        W66601  25.900   7.399  27.451  0.2632  0.1336 -0.1060
65738W        W66602  24.745  14.602  22.357 -0.3476  0.2253  0.0191
65739W        W66603  21.509  24.054  11.668  0.0223  0.0280 -0.3276
65740W        W66604   2.295   6.517   4.971 -0.1937  0.2550 -0.0970
65741W        W66605  17.533   6.047   9.144 -0.1148  0.1918  0.3085
65742W        W66606  17.317  12.761  26.243  0.0146 -0.2108 -0.4156
65743W        W66607  26.415  23.564  16.085 -0.0569  0.0430  0.2002
65744W        W66608   9.304  22.425  27.450 -0.1059 -0.0982 -0.0385
65745W        W66609   0.322  14.993   0.200 -0.0117  0.0215  0.2169
65746W        W66610  25.549  20.136  13.108  0.0055  0.0480  0.0593
65747W        W66611  25.212  28.814  27.998  0.0364 -0.1283  0.0211
65748W        W66612  11.763  25.140   9.859  0.1389 -0.0993  0.1239
65749W        W66613  26.594  25.906  20.620 -0.0058 -0.0142 -0.1228
65750W        W66614  22.516   9.802  20.707 -0.1352 -0.1257 -0.0424
65751W        W66615  18.545  20.107  25.238 -0.0040 -0.0307 -0.2008
65752W        W66616   5.625   8.422  13.862 -0.0064 -0.0004 -0.2025
65753W        W66617  29.044   7.914  14.210 -0.0042  0.0538  0.0617
65754W        W66618   6.809  10.876  13.571 -0.1378  0.2651  0.4789
65755W        W66619  16.278   4.610  19.542 -0.3015  0.0543  0.2522
65756W        W66620  16.298   6.532  25.039  0.0340 -0.0103  0.2128
65757W        W66621  28.654  20.613   1.849  0.0532  0.0781 -0.3661
65758W        W66622   9.376  13.024  19.257  0.1186 -0.0861  0.1891
65759W        W66623  14.665   4.387  21.757 -0.3674  0.0318  0.1937
65760W        W66624   5.775  23.862  28.544 -0.2096  0.1347  0.1344
65761W        W66625  27.022  13.026   5.373  0.1718  0.0011 -0.0278
65762W        W66626  21.292   0.315  19.955  0.0701  0.0471 -0.1665
65763W        W66627   4.219  24.255  22.095  0.3710  0.1885 -0.1421
65764W        W66628   9.206   1.995  13.926  0.3150 -0.1097  0.3500
65765W        W66629  26.748   8.977  25.693  0.1250 -0.4314  0.0052
65766W        W66630  21.842  12.135  24.282  0.0239  0.2070  0.1154
65767W        W66631   2.430  26.926  28.928 -0.1004  0.3020  0.1723
65768W        W66632  19.247  22.165   3.429 -0.2643  0.2893  0.1249
65769W        W66633  14.637  24.728  14.273 -0.0170 -0.1282  0.0506
65770W        W66634  13.203   8.009  23.639 -0.1728 -0.0961  0.3554
65771W        W66635   9.200  10.246  24.041 -0.1299 -0.0578  0.0035
65772W        W66636   3.040  16.318  28.220  0.5967 -0.1633  0.1426
65773W        W66637   1.478   2.708   2.407 -0.1462  0.2201  0.1265
65774W        W66638  12.477   9.301  10.085 -0.4524  0.0571  0.2533
65775W        W66639   4.371  23.669   8.261 -0.1004 -0.1875  0.2137
65776W        W66640  19.560  16.812  13.797 -0.3127  0.0841 -0.1524
65777W        W66641   8.275  11.436  22.229 -0.1510 -0.0842  0.0352
65778W        W66642  22.617  12.092  15.674 -0.0901  0.1702  0.3804
65779W        W66643   2.979   0.549  23.211  0.0830 -0.2623 -0.1145
65780W        W66644  14.281   0.886  10.683 -0.1844 -0.0793 -0.0581
65781W        W66645   8.214   2.441  23.842  0.2544  0.0460 -0.1244
65782W        W66646   0.643  15.454   2.655 -0.0942 -0.0785 -0.0987
65783W        W66647  13.397  20.556  27.223 -0.0042  0.0195 -0.1061
65784W        W66648  25.264  24.423  25.346 -0.3689  0.0241 -0.0101
65785W        W66649  19.706   1.320  14.238  0.1356 -0.1079 -0.1941
65786W        W66650   8.400  10.798  18.825  0.1225 -0.1792 -0.0442
65787W        W66651   9.276  27.000   2.500 -0.0011 -0.0945  0.1831
65788W        W66652  16.342   3.246  27.469 -0.2761  0.3951 -0.0165
65789W        W66653  17.633  26.854  20.306  0.1652  0.0036 -0.0212
65790W        W66654   3.666   6.938   3.646  0.0408  0.1321  0.1820
65791W        W66655  17.993  12.629  24.753 -0.0327 -0.0949 -0.0951
65792W        W66656  18.515  24.012  11.011  0.0595  0.1100  0.1344
65793W        W66657   0.456   3.242   0.224  0.2519 -0.0294  0.0623
65794W        W66658   7.310  16.413   2.444  0.0597  0.1263 -0.0127
65795W        W66659  15.276  13.410   0.821  0.0665 -0.2292 -0.1019
65796W        W66660  27.209   9.021  25.821 -0.1447  0.0813  0.0288
65797W        W66661  19.645  25.150   5.739 -0.0538 -0.1999  0.0503
65798W        W66662   9.559  27.449  21.804  0.0550 -0.1231 -0.0006
65799W        W66663  25.239  15.981  26.032  0.0516  0.1585  0.0860
65800W        W66664   3.360  23.422  18.159  0.0387 -0.0883  0.0691
65801W        W66665  18.075  27.901   6.390  0.0068 -0.1489 -0.0381
65802W        W66666  24.229  19.612  12.577 -0.0590 -0.2078  0.0960
65803W        W66667  21.750  12.301  18.076 -0.0442  0.4229  0.1217
65804W        W66668  13.624  28.194   4.511 -0.2971 -0.0441 -0.0970
65805W        W66669  26.609  17.125   9.186 -0.0321  0.0729 -0.3467
65806W        W66670  25.825   1.438  26.086 -0.2131  0.1557 -0.0463
65807W        W66671   1.742   3.853  28.463  0.1991  0.1952 -0.1225
65808W        W66672  20.028   7.467   4.926  0.0600 -0.2020 -0.1333
65809W        W66673  23.200   6.826  25.962 -0.1298 -0.0881  0.1610
65810W        W66674  26.072  11.888  28.695 -0.0588 -0.0533  0.0398
65811W        W66675  21.752   0.102   2.466  0.2292 -0.4013  0.1472
65812W        W66676  19.725  15.226   0.432 -0.0820  0.1868 -0.4122
65813W        W66677  17.321  10.727   3.994 -0.0414  0.1647  0.0613
65814W        W66678  13.185  21.286   0.727  0.1627  0.2221 -0.0565
65815W        W66679   1.281  11.921   3.645  0.0888  0.0339 -0.1327
65816W        W66680   4.885  19.443  11.367  0.0361  0.0821 -0.2316
65817W        W66681  16.499  21.636   6.740 -0.3498  0.2067 -0.1946
65818W        W66682   6.223  18.670  24.912 -0.0180 -0.1924 -0.1324
65819W        W66683  13.685   4.080  15.536  0.0108 -0.3008 -0.0932
65820W        W66684  26.021  24.086  25.354  0.0389  0.2971 -0.4495
65821W        W66685   4.139  11.752  17.948  0.5691  0.0633 -0.1915
65822W        W66686   5.854   0.027  22.932 -0.1929 -0.4603  0.0444
65823W        W66687   7.221   1.593  21.590 -0.0994  0.2199 -0.1706
65824W        W66688  27.606  10.453  27.638  0.0001  0.1005  0.1005
65825W        W66689   2.041  27.443  13.651 -0.2768  0.0045  0.1436
65826W        W66690   2.998  21.154  26.306  0.0558  0.1426  0.0709
65827W        W66691  22.038  11.365  10.911 -0.0388 -0.4946 -0.1789
65828W        W66692  23.092  13.427  25.116  0.0262 -0.0985 -0.0009
65829W        W66693  17.014  14.046  23.868  0.2115  0.2102  0.1002
65830W        W66694   5.474  10.511   8.915 -0.3209 -0.1725 -0.1863
65831W        W66695  13.858  18.766   2.950  0.1647  0.1710  0.1166
65832W        W66696  27.029  26.520  22.667 -0.1701 -0.0993 -0.0756
65833W        W66697   5.173   0.571  22.709  0.5189  0.2869  0.0270
65834W        W66698  19.963   2.931  16.014  0.1515  0.6212 -0.0349
65835W        W66699  25.302  13.282  10.688 -0.1651  0.2451 -0.0972
65836W        W66700  23.381  22.391  23.098 -0.0618  0.0130 -0.0241
65837W        W66701  23.152   6.482  23.331 -0.0997 -0.0593 -0.0682
65838W        W66702  18.684  28.247  28.271  0.0653  0.2953 -0.0104
65839W        W66703   1.489  12.414  20.805  0.1287  0.1441 -0.0434
65840W        W66704   9.623   9.102  20.226  0.3089  0.2589 -0.1001
65841W        W66705  25.510  18.602  15.762  0.3357  0.0832  0.0168
65842W        W66706  14.268  12.873  22.622 -0.0523 -0.1426 -0.0112
65843W        W66707  11.011  16.890   2.454 -0.3845 -0.0864 -0.0921
65844W        W66708  22.053  19.535  24.331 -0.1427  0.2158  0.2823
65845W        W66709   3.879  12.400  21.694  0.0422 -0.1309  0.4002
65846W        W66710   1.819  21.309  28.161 -0.4606  0.1219  0.1403
65847W        W66711  17.776  13.545  11.644  0.1993  0.0159  0.1816
65848W        W66712  18.213  10.428  24.295 -0.2927  0.1031 -0.0847
65849W        W66713  13.807  18.883  14.276  0.0944  0.2211  0.0779
65850W        W66714  17.110   6.077   8.714  0.0150  0.1631  0.2858
65851W        W66715   4.794  15.079  20.011 -0.1176  0.1445 -0.1715
65852W        W66716   5.181  25.953  20.239  0.0448 -0.3637  0.1353
65853W        W66717  17.581  12.558  24.182  0.1216 -0.2881 -0.0589
65854W        W66718   2.977  27.164  15.881 -0.2879  0.0677  0.2078
65855W        W66719   5.029  11.477   8.305 -0.1787  0.1273  0.0207
65856W        W66720  23.234  24.563  21.042 -0.0636 -0.4240 -0.4142
65857W        W66721  16.935  19.127  19.151  0.0912  0.2014 -0.1485
65858W        W66722  21.723  26.668   3.503 -0.1598 -0.0962 -0.1037
65859W        W66723  22.163   5.349  21.738 -0.0813 -0.1224 -0.2516
65860W        W66724  23.976  27.646  27.839 -0.0082  0.3770 -0.0204
65861W        W66725  14.464  11.546   6.334  0.1917 -0.1304  0.2030
65862W        W66726  27.695   6.510   2.830  0.0515 -0.1007 -0.0002
65863W        W66727  16.535   6.901  20.100 -0.2840  0.2365  0.3539
65864W        W66728  28.848  22.228  25.246 -0.0861  0.1004  0.3305
65865W        W66729  21.060  26.863  13.295  0.3167 -0.0980  0.1211
65866W        W66730  21.941  25.530  28.976  0.0684 -0.0709  0.0350
65867W        W66731   9.599   1.965  22.669 -0.2783  0.0649  0.1368
65868W        W66732  19.032  14.065  13.720 -0.3604 -0.4098 -0.0625
65869W        W66733  21.446  27.508  19.218  0.2633 -0.0121 -0.3352
65870W        W66734   0.408  26.484  23.023  0.2587 -0.0643  0.0590
65871W        W66735  12.676  21.250   0.583  0.1900 -0.2653 -0.0724
65872W        W66736  15.443  21.409  12.294  0.2753  0.2572  0.1041
65873W        W66737  19.605  23.915  26.928  0.0830  0.3249 -0.3616
65874W        W66738  27.677  14.076  26.855  0.0967 -0.0831 -0.0502
65875W        W66739   0.510  17.368  10.184 -0.0605  0.2062  0.1626
65876W        W66740   0.152   0.091   5.947 -0.3193  0.1405  0.0275
65877W        W66741   3.260   4.665  12.610  0.1031 -0.2051 -0.1164
65878W        W66742   3.854  11.065   1.282  0.0077  0.2327 -0.2229
65879W        W66743   3.296  12.363  27.102  0.0913 -0.0188  0.0406
65880W        W66744  22.566   5.101  24.970  0.1018 -0.3416  0.1088
65881W        W66745  28.112   9.644  17.156  0.1070  0.1543 -0.1411
65882W        W66746  16.375  18.014  16.147 -0.1467 -0.0522 -0.0874
65883W        W66747   0.001  20.220   7.885 -0.0682  0.1393 -0.0796
65884W        W66748  27.804  20.431  25.330 -0.1182  0.2909  0.2542
65885W        W66749   3.397  25.858  17.152  0.2922 -0.0475 -0.1401
65886W        W66750  15.880   4.981  15.709  0.2816  0.2421 -0.0016
65887W        W66751  28.740   3.364   3.668  0.1056  0.1227 -0.0260
65888W        W66752  18.234   7.857  13.490 -0.1333  0.0242  0.2289
65889W        W66753  10.615   6.720  21.088  0.0814 -0.2130  0.0325
65890W        W66754   0.316   0.296  26.037  0.1789  0.1938  0.0534
65891W        W66755  25.787  14.773  24.337 -0.1204  0.1552  0.1125
65892W        W66756  20.791  24.377   5.683 -0.0109 -0.2252  0.2633
65893W        W66757  11.365  23.124  12.385 -0.0291  0.3799 -0.0456
65894W        W66758  18.256  22.817   6.326 -0.0498 -0.1638 -0.4513
65895W        W66759  22.368  14.424   3.250 -0.1835  0.1800  0.0120
65896W        W66760  18.003  16.129  14.678  0.1179 -0.0964  0.0992
65897W        W66761  27.484  20.308  21.129  0.0935  0.1315  0.0245
65898W        W66762  20.447  10.257  13.670  0.0413 -0.1356 -0.1242
65899W        W66763  17.326  23.136  21.713 -0.3009  0.0958  0.2529
65900W        W66764  27.769  17.694   2.384  0.1568 -0.1217 -0.2072
65901W        W66765  25.758  20.381  10.254  0.1309  0.1590  0.1861
65902W        W66766  14.721  17.951  28.371 -0.0645  0.1558  0.0721
65903W        W66767  24.376   2.635  16.988 -0.2541  0.2288  0.0809
65904W        W66768  14.047   0.800  19.128  0.2297  0.0173  0.2089
65905W        W66769   1.030  28.126  27.813  0.0331  0.0114 -0.1800
65906W        W66770  27.485   6.686  24.981  0.0189 -0.0151 -0.2554
65907W        W66771   7.161  20.381  23.012  0.0226  0.3260 -0.0436
65908W        W66772  21.721  11.028  25.588  0.0551 -0.1050 -0.0982
65909W        W66773  18.023   8.277  25.069 -0.0433 -0.1396  0.1647
65910W        W66774  28.475  25.337  11.474 -0.1739 -0.0728 -0.1244
65911W        W66775   4.275  19.057  18.862 -0.0733  0.1918 -0.3516
65912W        W66776  22.044   6.694   4.000  0.2959  0.1017  0.0806
65913W        W66777  24.891  15.631   6.475  0.1119  0.1699  0.0201
65914W        W66778   8.857   7.273   0.030  0.0425  0.3510  0.1259
65915W        W66779  19.551  15.404  24.602  0.4738  0.1747  0.1317
65916W        W66780  15.419  18.292  13.001  0.1510 -0.0733 -0.0976
65917W        W66781   6.617  18.171   3.190  0.0765  0.3332  0.0730
65918W        W66782   8.204   1.301  11.971  0.1625 -0.3555 -0.0282
65919W        W66783  15.971  13.713   6.139 -0.2103  0.2364 -0.0272
65920W        W66784  27.421  22.600  24.382  0.1655 -0.1905 -0.1571
65921W        W66785  12.471   2.370  11.686  0.0967  0.0648 -0.1980
65922W        W66786  26.904  16.831  22.571  0.2494 -0.0175 -0.1015
65923W        W66787   1.554  20.830  27.942 -0.3358  0.0277 -0.1563
65924W        W66788  19.392  15.523  21.277  0.1952 -0.2673 -0.0933
65925W        W66789  11.255  15.293   5.947 -0.1618 -0.2686  0.0045
65926W        W66790   4.131   6.811  25.190 -0.1081  0.1586 -0.3523
65927W        W66791   6.098  14.087   2.606 -0.1834  0.2460 -0.2555
65928W        W66792   3.435  24.586   2.994 -0.0208  0.0089  0.0758
65929W        W66793  23.174  17.009  21.841 -0.2794  0.1791 -0.0450
65930W        W66794  21.956   2.294  24.585  0.0836  0.0109  0.0785
65931W        W66795  21.744   9.150  19.709 -0.3257 -0.0826  0.0210
65932W        W66796  16.392  12.875  12.562  0.2537 -0.2767 -0.1249
65933W        W66797   3.830  10.040  20.075  0.0227 -0.1459 -0.1167
65934W        W66798  18.119  12.676  19.972  0.2800  0.1588  0.2704
65935W        W66799  16.505   8.580   8.617  0.3396 -0.0239  0.0402
65936W        W66800  20.175  24.950  27.811 -0.3076  0.1191 -0.1187
65937W        W66801   0.587  20.855  20.446 -0.1168  0.4801 -0.1240
65938W        W66802   7.954   4.922  20.016  0.2480  0.1982 -0.3068
65939W        W66803   0.338   3.524  22.473 -0.1133  0.0025 -0.0317
65940W        W66804  24.598  11.428  20.608 -0.2558 -0.0993 -0.0131
65941W        W66805  16.521  12.070   3.258 -0.1132  0.3509 -0.2403
65942W        W66806  23.209   8.628   0.002 -0.2684 -0.0717  0.1739
65943W        W66807   0.129   5.965  14.823 -0.1107 -0.0674  0.0578
65944W        W66808   5.286  25.252  27.491 -0.0230 -0.2874  0.2477
65945W        W66809  24.380  15.415  24.835 -0.0777  0.1647 -0.0369
65946W        W66810  16.148   4.400  19.994 -0.3468  0.0670  0.0810
65947W        W66811  22.415   4.964   9.588 -0.0224 -0.1144 -0.0410
65948W        W66812  22.236  14.826   3.604  0.3323  0.2611 -0.2322
65949W        W66813  28.968  16.876  19.264  0.2559  0.0834  0.2095
65950W        W66814  22.502  15.169  17.712 -0.1653  0.2579 -0.2379
65951W        W66815  27.234  20.364  28.289  0.2787  0.1260 -0.1693
65952W        W66816   6.224  14.706  20.208  0.3521 -0.2246 -0.2589
65953W        W66817   2.900   1.899  17.506  0.1010 -0.1086 -0.1823
65954W        W66818   4.048   6.005  24.493 -0.0524  0.0565  0.0263
65955W        W66819  22.546  14.113  28.874  0.2170  0.1389  0.1989
65956W        W66820   8.246  11.953  19.147 -0.0793 -0.1060  0.1084
65957W        W66821  12.497  28.346  19.337  0.1842 -0.2004  0.0062
65958W        W66822  25.853  12.257  22.377  0.0748 -0.1649  0.0989
65959W        W66823  21.999  25.077  26.165  0.1059 -0.0794 -0.0188
65960W        W66824  10.100  15.067  19.879  0.2364 -0.0729 -0.0146
65961W        W66825   3.943   2.470  28.411  0.2328 -0.1404 -0.0109
65962W        W66826  15.595  15.328   3.793  0.4440  0.1183  0.0427
65963W        W66827   1.942   3.838   0.856 -0.3931 -0.2604 -0.2521
65964W        W66828  16.896  14.991  15.358 -0.0964 -0.1933 -0.1776
65965W        W66829  21.421   2.758   4.049  0.1563  0.1316  0.5145
65966W        W66830   3.793  15.072   8.149  0.2024 -0.0265  0.1737
65967W        W66831   2.608   3.391  17.764 -0.0034 -0.1865  0.2830
65968W        W66832   1.143   5.447   4.847  0.1204 -0.0760  0.2513
65969W        W66833  10.191  26.383  27.955  0.0594  0.0784 -0.2352
65970W        W66834  28.753  27.741  26.937 -0.1359  0.0677  0.0807
65971W        W66835   6.978  24.138  17.527 -0.0425  0.2176  0.1145
65972W        W66836   0.321  15.392   0.530  0.0274  0.1556 -0.0418
65973W        W66837  10.206  13.305  17.159  0.1824 -0.0849  0.0214
65974W        W66838  15.054  10.704   1.241 -0.0213 -0.1970  0.1051
65975W        W66839  24.584  10.691   6.683 -0.0929 -0.0129  0.1908
65976W        W66840  18.933  22.536  24.604  0.0828 -0.1160 -0.0133
65977W        W66841   0.056   5.161  17.792  0.0569 -0.5243 -0.0557
65978W        W66842  11.584   1.803  24.593  0.1631  0.1283 -0.1667
65979W        W66843   9.307  19.503  13.214  0.0651 -0.1861 -0.0731
65980W        W66844  25.179   4.831  14.834  0.0230  0.1057 -0.0580
65981W        W66845   4.930  18.857  12.557  0.0623 -0.1855  0.1870
65982W        W66846   0.045   0.994  27.255  0.1403 -0.0714  0.0832
65983W        W66847  26.033  18.753  20.840 -0.0475 -0.1253 -0.1112
65984W        W66848  27.986  23.940  26.097  0.3134  0.0841 -0.1110
65985W        W66849  15.954  28.252  24.893 -0.4503  0.0966 -0.1340
65986W        W66850  26.921  19.441  20.183 -0.2151 -0.0346  0.3726
65987W        W66851  24.894  17.861   6.202  0.1351 -0.0239 -0.2168
65988W        W66852   6.130   3.590  26.402 -0.0106  0.0280  0.2644
65989W        W66853  21.048  11.787  27.954  0.1201 -0.0878  0.2403
65990W        W66854  16.097  24.227  15.786 -0.2257  0.4654  0.0005
65991W        W66855   1.149  22.488  28.601 -0.2468  0.1181 -0.0003
65992W        W66856  15.230  12.481  26.542 -0.1300  0.3672  0.1526
65993W        W66857   2.203  13.744   8.806  0.2678  0.0840 -0.1182
65994W        W66858   0.070   4.189  26.326 -0.1214 -0.0450 -0.0524
65995W        W66859  26.522  11.472   9.608  0.1064  0.2788  0.1932
65996W        W66860  26.706   9.833  21.814 -0.2650 -0.0001 -0.1219
65997W        W66861  23.603  17.528  26.884  0.4064 -0.2067  0.4385
65998W        W66862   3.551   8.381  13.832 -0.3798 -0.1053  0.0187
65999W        W66863  24.754   7.689  23.858  0.0113  0.1429 -0.1563
66000W        W66864   9.610   9.671   1.764  0.2048  0.1516  0.1616
66001W        W66865  27.871  23.335  21.959 -0.0776  0.1304  0.3716
66002W        W66866  23.182  28.651  14.536  0.1831  0.3847 -0.1078
66003W        W66867  27.535  25.562   1.300 -0.2047 -0.0646  0.0239
66004W        W66868  18.093  12.227  22.792 -0.2130 -0.0244  0.2877
66005W        W66869   3.802  17.119  29.116  0.1130  0.0896 -0.2020
66006W        W66870  15.852  10.338   7.141 -0.1037  0.0835  0.1949
66007W        W66871  13.137  19.629   6.351  0.4036  0.1721 -0.1456
66008W        W66872  28.506  15.053  20.560  0.0598  0.0842  0.2634
66009W        W66873   9.449  19.844  24.604 -0.2191  0.2985 -0.0119
66010W        W66874  19.433   8.254  17.531 -0.1472 -0.0426  0.2148
66011W        W66875  12.196  16.072  18.235 -0.0986 -0.1248 -0.0518
66012W        W66876  15.316  25.501  16.513 -0.1559 -0.5623 -0.0249
66013W        W66877  12.933  18.627  18.328 -0.1165 -0.1361 -0.0898
66014W        W66878   5.131  21.437   8.270 -0.0149 -0.0542  0.1861
66015W        W66879   8.440  14.484  14.438 -0.0721 -0.1167 -0.0208
66016W        W66880   7.988  10.287  16.100  0.1039  0.1870  0.0009
66017W        W66881  19.090  23.954  25.804 -0.2134 -0.1966 -0.1382
66018W        W66882  11.811  25.922   9.695  0.1286 -0.1101  0.0093
66019W        W66883  15.980  22.701  12.501  0.3185  0.0020  0.0262
66020W        W66884  17.012  18.440   8.067 -0.2397 -0.1782 -0.3150
66021W        W66885  23.585  14.993  20.237  0.1375  0.2812  0.2642
66022W        W66886  20.880  11.849   4.508  0.0518  0.3343  0.0243
66023W        W66887  18.880  20.987  26.238  0.3002  0.0073 -0.0042
66024W        W66888   7.128  15.389  18.931 -0.2075 -0.3636 -0.1011
66025W        W66889  18.470  22.461   2.664  0.0421  0.0030 -0.4524
66026W        W66890   8.237  22.351  28.792 -0.0761 -0.0536  0.3061
66027W        W66891  28.933   6.934   9.666 -0.0294 -0.1489  0.1744
66028W        W66892  19.463   9.446  27.498  0.1450  0.1336 -0.3939
66029W        W66893  18.577  22.804  24.827  0.0667 -0.0383 -0.1598
66030W        W66894   6.953  12.939  16.649 -0.0969  0.1282 -0.2425
66031W        W66895  18.819  13.740  23.003 -0.1573 -0.0096  0.1309
66032W        W66896   4.221   9.910   6.621 -0.1365 -0.0659 -0.1462
66033W        W66897  25.244  22.942   1.197  0.0870 -0.0064 -0.2313
66034W        W66898  12.840  10.237  16.957  0.1261 -0.1118  0.0526
66035W        W66899  28.054   8.390   5.971 -0.3294 -0.2787  0.0434
66036W        W66900  23.266  15.124  24.318 -0.1543  0.0804 -0.2259
66037W        W66901   7.943  13.507   8.140  0.0699 -0.0950  0.1548
66038W        W66902  28.062  19.902  23.462  0.0149 -0.1317 -0.1461
66039W        W66903  28.238   4.928   0.484  0.1813  0.1315 -0.1541
66040W        W66904   0.851  22.139  22.630  0.1232 -0.0251  0.4618
66041W        W66905   9.045  24.480  27.669  0.2098  0.1033  0.3175
66042W        W66906   9.430  22.199  23.005 -0.0309  0.0254  0.4539
66043W        W66907  11.904   0.827  13.300  0.2783  0.0612 -0.2872
66044W        W66908  27.537  24.490  14.356 -0.1113  0.0275 -0.0502
66045W        W66909  27.982  19.653   2.998  0.2231  0.1618 -0.1667
66046W        W66910  22.840   5.313  17.768  0.1844 -0.3062  0.3452
66047W        W66911  24.075  24.436  21.676 -0.4266 -0.2089 -0.4284
66048W        W66912  25.341   9.568  24.394 -0.0730 -0.3296 -0.1155
66049W        W66913  11.637  16.249   8.613 -0.0816 -0.0414  0.1115
66050W        W66914  26.339  21.095  19.425  0.1746 -0.1416 -0.2416
66051W        W66915  19.928  13.317   1.895  0.2747 -0.2242  0.2386
66052W        W66916  25.977   2.170  27.174  0.0957 -0.1677 -0.1357
66053W        W66917  17.385  16.462  10.885 -0.0888  0.3463 -0.1993
66054W        W66918  20.686   3.100  25.475 -0.0441  0.3751  0.1454
66055W        W66919  16.091   9.411  24.886  0.0111 -0.0357  0.0243
66056W        W66920  13.031  15.436   6.432 -0.0198 -0.3354 -0.1024
66057W        W66921  28.317   8.795  18.782 -0.1678  0.1943 -0.0140
66058W        W66922  22.444   9.771  23.233 -0.1958 -0.0225  0.1794
66059W        W66923  24.698  12.907  27.731 -0.2296 -0.1173 -0.1406
66060W        W66924   1.042   4.529  23.701 -0.1778 -0.3145 -0.3623
66061W        W66925   9.203   3.976   0.785 -0.2415  0.4595  0.0408
66062W        W66926  22.034  13.777   6.437 -0.0868 -0.2690 -0.2756
66063W        W66927  12.934  16.822   2.372  0.1724 -0.2471  0.0756
66064W        W66928  27.056  21.204  17.135  0.3230  0.1433  0.1692
66065W        W66929   4.500  14.738   4.101 -0.0635 -0.2870 -0.1956
66066W        W66930  15.337  12.316  10.493 -0.1597  0.0891 -0.1328
66067W        W66931  14.116  26.526  14.334 -0.0164 -0.0763  0.2620
66068W        W66932  28.827   3.776   6.721  0.1283  0.1107 -0.1348
66069W        W66933  27.831   4.851  24.157  0.0855 -0.1158 -0.2638
66070W        W66934  28.656  23.630   0.046  0.1404  0.1176  0.1688
66071W        W66935   1.467   8.157  26.803 -0.0194 -0.3036  0.2540
66072W        W66936  18.143  19.264  16.794  0.2691  0.2040  0.0230
66073W        W66937   7.569  13.959   2.381 -0.2061 -0.0114 -0.3106
66074W        W66938  23.025  28.952  17.276 -0.1970  0.1325 -0.1202
66075W        W66939   3.264   0.434   6.297  0.1146 -0.0420  0.0199
66076W        W66940  19.919  16.351   9.330  0.2536  0.0963  0.1348
66077W        W66941  26.675   4.945  17.410  0.0457 -0.2232  0.0720
66078W        W66942  28.112   9.682  16.191  0.2169 -0.1909 -0.1080
66079W        W66943  23.321  24.551  18.918 -0.2298 -0.2879 -0.0698
66080W        W66944  28.832   9.563  25.387  0.1520  0.1055 -0.2759
66081W        W66945   9.375  19.629  26.997 -0.1269  0.2392  0.1002
66082W        W66946  12.632   8.023  10.420 -0.0352  0.3387  0.0489
66083W        W66947  24.984  15.541   3.176 -0.0129 -0.4251 -0.0827
66084W        W66948   7.360  19.605   0.286 -0.0964  0.0441 -0.0885
66085W        W66949   2.392  16.251   3.315 -0.0035 -0.1197 -0.1581
66086W        W66950  16.189   6.766   2.947  0.0916 -0.0062 -0.1448
66087W        W66951  12.228  19.329   1.018  0.4068 -0.5015  0.3043
66088W        W66952  21.481   6.482  16.406  0.1442  0.2956  0.0690
66089W        W66953  17.489   4.262  26.661  0.1212 -0.0295 -0.0531
66090W        W66954   2.219  16.040  21.325  0.1620  0.0485  0.0839
66091W        W66955  13.122  17.612   1.726 -0.0311 -0.3051  0.0514
66092W        W66956  27.998   5.061  28.109 -0.0575 -0.1567 -0.4330
66093W        W66957  24.440  22.559  16.983  0.0393  0.1369  0.2416
66094W        W66958   7.218  12.768   7.458  0.1197 -0.2090  0.1668
66095W        W66959   0.580  15.872   6.093  0.1426 -0.2966  0.3574
66096W        W66960  23.840   0.645   9.845  0.2375  0.1822  0.3307
66097W        W66961   3.817   4.471  20.234  0.3870 -0.1752 -0.1471
66098W        W66962   9.843   7.266  28.928 -0.0710  0.0740  0.1866
66099W        W66963  10.486   4.883  21.696 -0.1360 -0.1499 -0.1507
66100W        W66964  22.153   7.353   2.040 -0.1552  0.1014  0.0416
66101W        W66965   5.862  13.586   3.460  0.1559  0.1578  0.0390
66102W        W66966  11.944  12.093  21.080  0.1014  0.2122 -0.1861
66103W        W66967  14.527   9.149   5.182  0.2745  0.3847  0.3462
66104W        W66968  20.715   3.126  26.868 -0.1487 -0.1796 -0.2906
66105W        W66969   1.483  15.142  22.501 -0.0527  0.1104  0.2770
66106W        W66970  27.643  12.077  16.380 -0.0100  0.0302 -0.0419
66107W        W66971  29.029  13.625   3.212 -0.2662 -0.0551 -0.2258
66108W        W66972  16.378   9.264  23.766  0.2118  0.2818 -0.0221
66109W        W66973   2.290   9.251  21.338  0.1638 -0.0960 -0.2801
66110W        W66974  21.645   1.949  16.851  0.1638 -0.2863  0.1347
66111W        W66975   9.028   3.161  15.566 -0.3351 -0.2216  0.0753
66112W        W66976  15.294  11.158   0.655 -0.1520 -0.0764  0.3074
66113W        W66977   0.776   6.646   1.156  0.0658 -0.1207  0.0087
66114W        W66978   3.554  25.694   1.859 -0.0032  0.0745  0.1379
66115W        W66979   4.928  24.708  19.643 -0.0573 -0.0652 -0.0650
66116W        W66980  16.794  14.076  22.130  0.2969  0.0108 -0.2858
66117W        W66981  14.888  15.975   0.433  0.1274 -0.1173  0.0536
66118W        W66982   8.996   4.918  23.512 -0.1059  0.0470 -0.2946
66119W        W66983   3.043   6.538   1.947 -0.1798  0.0116  0.3062
66120W        W66984  21.740   5.768   3.402 -0.2570 -0.1567 -0.0820
66121W        W66985  26.770  10.932  13.469  0.3247  0.0002  0.2080
66122W        W66986  14.480  26.535  14.699  0.0810  0.0479 -0.1241
66123W        W66987   2.874  13.574  16.302 -0.1638  0.2894  0.1575
66124W        W66988  11.584  20.437  21.581  0.0837 -0.2227 -0.2201
66125W        W66989  11.513  10.195  23.552 -0.0411 -0.0538  0.2924
66126W        W66990  18.048  24.716  21.302 -0.2062 -0.3197 -0.0107
66127W        W66991  26.917   6.666  25.031 -0.1887  0.3009  0.3210
66128W        W66992  26.971  25.631  22.800  0.0585  0.0346 -0.1675
66129W        W66993   7.290  12.494  20.822  0.0842  0.2058 -0.2908
66130W        W66994   2.501  20.412  13.483  0.1566  0.1025  0.2252
66131W        W66995   4.816   1.031  28.900  0.0499  0.1981  0.0919
66132W        W66996  22.769   2.782  16.289  0.0420  0.0293 -0.3895
66133W        W66997   8.275  24.598  17.763 -0.0361 -0.1969 -0.1229
66134W        W66998  26.491  24.344  23.026 -0.1335  0.0302 -0.1308
66135W        W66999   3.870  27.699   8.635 -0.1695 -0.1158 -0.1632
66136W        W67000  19.040  24.304  27.211 -0.0081 -0.0768 -0.2310
66137W        W67001   2.982  24.045   9.826 -0.0331 -0.0095  0.2095
66138W        W67002   9.245   6.975   1.691  0.0621 -0.2217 -0.3374
66139W        W67003   5.317   6.140  14.995  0.1625 -0.1355  0.0658
66140W        W67004   2.304  10.583  19.624 -0.2828  0.3328  0.0152
66141W        W67005  26.097  27.489   3.687  0.0492 -0.2803  0.0951
66142W        W67006  24.460  12.813  26.032  0.2158 -0.1454  0.0270
66143W        W67007  16.562  21.755  24.722 -0.1364 -0.0585 -0.2647
66144W        W67008   1.417  20.842   6.867 -0.1230 -0.2596  0.1786
66145W        W67009  11.639  12.099  23.671  0.3488  0.0941  0.1891
66146W        W67010   8.939  18.902   7.233  0.0301  0.3898  0.2550
66147W        W67011   5.757  23.042   4.626  0.0152 -0.1434 -0.1519
66148W        W67012  18.544  15.556  22.222  0.2869  0.0215  0.1909
66149W        W67013   1.936  19.363  24.255 -0.3199 -0.0406  0.2796
66150W        W67014  28.975  13.526  14.188  0.1145 -0.2754  0.1303
66151W        W67015   3.353  11.821  21.046  0.2223 -0.2833  0.1130
66152W        W67016   1.889  25.508   7.053  0.1971  0.2589  0.1092
66153W        W67017  27.552   4.761  10.993 -0.0272  0.1553 -0.1959
66154W        W67018  23.404  27.961  27.447 -0.0388 -0.3338  0.3426
66155W        W67019  24.854  27.454  18.991 -0.2765  0.0448  0.3083
66156W        W67020   3.805   4.264  16.536 -0.3192  0.0461 -0.2255
66157W        W67021   7.410  26.639   0.273  0.3622  0.4016 -0.2131
66158W        W67022   8.777  24.180  25.158  0.2583 -0.0728  0.0754
66159W        W67023  21.654   0.038   0.884 -0.4484  0.1771  0.3151
66160W        W67024  20.334  20.186   1.104  0.0615 -0.2993 -0.3867
66161W        W67025  26.479  14.529  20.561 -0.0759 -0.2322  0.1581
66162W        W67026  21.585  10.932  26.077  0.1555 -0.2155  0.1794
66163W        W67027  28.638  25.077  28.879 -0.0319  0.1045  0.3098
66164W        W67028  14.437   6.531   4.334 -0.0542 -0.3364 -0.1141
66165W        W67029   8.425  16.795  19.793  0.0383 -0.2429 -0.1804
66166W        W67030  28.892   4.761  18.157 -0.2670 -0.0847 -0.0778
66167W        W67031   8.301   5.537   5.499 -0.1952 -0.1039  0.2863
66168W        W67032  26.296   1.437  24.854 -0.0248  0.0030  0.2524
66169W        W67033  14.474   4.376  26.564  0.2548  0.0445  0.3468
66170W        W67034   8.654  14.919   7.128  0.1211  0.0060  0.2237
66171W        W67035  18.982  25.077  21.774  0.1159 -0.3262 -0.0711
66172W        W67036  17.958   9.653  10.585  0.2384 -0.1152  0.2333
66173W        W67037   3.276   1.623  14.059  0.0364  0.1130 -0.2778
66174W        W67038  12.843  12.938  17.010  0.1309  0.1310 -0.0969
66175W        W67039  20.711   9.020   4.530 -0.1404  0.0688 -0.1239
66176W        W67040  26.854  10.855  24.221  0.0142  0.2386 -0.0257
66177W        W67041  28.138  18.490   0.459  0.0362 -0.0058 -0.1773
66178W        W67042  27.079   2.912   5.182  0.0322 -0.3387  0.1244
66179W        W67043  26.676  16.906   0.488  0.0846  0.0104  0.3979
66180W        W67044  24.685  11.797   3.757  0.0429 -0.2313  0.1869
66181W        W67045   0.474  16.937   4.516  0.2430  0.1418  0.4672
66182W        W67046   1.165  21.065   7.281 -0.1013  0.0141 -0.1485
66183W        W67047  26.845  14.217  20.846  0.1387 -0.0537  0.0183
66184W        W67048   0.092   8.095  13.377 -0.0441 -0.1402 -0.2689
66185W        W67049  21.011  14.704  27.898 -0.1321 -0.0735  0.1442
66186W        W67050  27.905  18.927   2.116  0.0281 -0.1845 -0.1155
66187W        W67051  25.969   4.188   5.526  0.0875  0.1118 -0.0202
66188W        W67052   9.625  12.484  24.900 -0.0067  0.0999  0.0860
66189W        W67053  22.916  13.867   0.072 -0.0873  0.1771  0.3009
66190W        W67054  26.478  11.812  11.015 -0.1689 -0.2473  0.0339
66191W        W67055  15.971  20.904  25.023 -0.1802 -0.0671  0.3235
66192W        W67056  23.183  24.358  27.849 -0.0201 -0.0330 -0.0516
66193W        W67057   7.454  15.473  23.151  0.1002  0.0340 -0.1047
66194W        W67058  21.171  28.606  10.798 -0.0248 -0.0439  0.0796
66195W        W67059  19.066   3.403  24.755  0.3740  0.2537 -0.2205
66196W        W67060   1.921  18.781   8.663  0.0609  0.0331 -0.1312
66197W        W67061  24.205  20.224  26.190  0.0968 -0.0553  0.1610
66198W        W67062  11.656  14.227   8.753 -0.1659 -0.0229  0.0956
66199W        W67063  14.802  24.544  24.316 -0.2144 -0.2220  0.1807
66200W        W67064  22.420  10.454   6.378 -0.0841  0.0163  0.1622
66201W        W67065  17.467   6.389  22.337 -0.2198  0.3552  0.1124
66202W        W67066   4.852  24.850  23.849 -0.1124 -0.0317  0.1374
66203W        W67067   4.146   5.526  26.711  0.0315  0.0891 -0.0467
66204W        W67068  11.395  12.535   8.031  0.0886  0.1524 -0.2766
66205W        W67069   0.344   5.507   4.336  0.1740  0.1461 -0.0601
66206W        W67070  24.961   1.059  21.610 -0.0963 -0.1405 -0.0149
66207W        W67071  24.480   2.873  18.422  0.0866  0.0702  0.0025
66208W        W67072  17.805  16.828  23.574 -0.1555  0.1165  0.0377
66209W        W67073   5.111  24.362  21.124 -0.1548 -0.2260 -0.0539
66210W        W67074  12.960  10.980  11.174 -0.3609 -0.1914 -0.1672
66211W        W67075  16.217  18.445  28.449  0.0951  0.0946  0.3285
66212W        W67076  22.608  15.368   3.413 -0.4125 -0.1431  0.1739
66213W        W67077   4.720   3.998  14.087 -0.0385  0.0464 -0.1312
66214W        W67078  21.269   1.418   8.500  0.1031  0.0719  0.0978
66215W        W67079  14.073  26.059  19.336  0.2759  0.0428 -0.1746
66216W        W67080   0.681  16.476  23.775  0.0015 -0.0767  0.0239
66217W        W67081   7.148   4.480   3.138  0.2018 -0.0845 -0.0181
66218W        W67082   3.584  18.464  25.128  0.0069 -0.1802  0.1977
66219W        W67083   3.210   0.120  23.156  0.1669  0.2367 -0.0465
66220W        W67084   6.494  11.395  15.202  0.0086  0.2799 -0.0011
66221W        W67085  22.004  21.701  28.818 -0.1036  0.3306 -0.1658
66222W        W67086  26.332   9.248  21.112  0.3754 -0.1884  0.0888
66223W        W67087  14.002  15.200  19.900  0.0105  0.1342 -0.2570
66224W        W67088   1.252   7.347  25.438 -0.1612 -0.1990 -0.0878
66225W        W67089  19.104   1.532  26.113 -0.1070  0.2404  0.0952
66226W        W67090   0.157   4.673  25.328  0.4191  0.0311  0.2913
66227W        W67091  12.406  28.832  28.986  0.1318 -0.0688 -0.6267
66228W        W67092  14.880  28.677  13.383  0.2221 -0.0008 -0.3625
66229W        W67093  24.530  14.598  14.510 -0.1666  0.0416 -0.0266
66230W        W67094   8.628  22.012  18.511 -0.0905  0.0502  0.3783
66231W        W67095  24.580  14.454   4.053  0.2140 -0.4996 -0.0944
66232W        W67096  19.867  15.211  21.618  0.2165 -0.0477  0.0978
66233W        W67097   7.340  13.203  26.207  0.1393  0.0353  0.0827
66234W        W67098   0.066  17.026  28.411  0.1138  0.0554 -0.0462
66235W        W67099   8.378  11.462   9.092 -0.1581 -0.3368  0.1206
66236W        W67100  27.627  22.090  20.921  0.1181  0.0427  0.0947
66237W        W67101  25.598  14.809  23.804  0.1424 -0.0154  0.2526
66238W        W67102   6.441   3.514   1.037  0.1027  0.0745 -0.0925
66239W        W67103  25.598   7.496  26.109 -0.1406 -0.0419  0.2456
66240W        W67104  23.410  10.523  25.380  0.3279  0.1732  0.1054
66241W        W67105  28.047  12.098   6.507  0.1084  0.1485  0.1229
66242W        W67106  24.480   0.716   7.710  0.1188 -0.0216  0.3151
66243W        W67107  19.608  21.553  15.516 -0.2792  0.1046 -0.1596
66244W        W67108  13.239  22.770   0.765  0.0803  0.0675  0.0632
66245W        W67109   8.339   0.564  28.812 -0.0339  0.1261 -0.1766
66246W        W67110   4.193  22.714   5.012 -0.1914  0.1494  0.0592
66247W        W67111  21.983  17.099   8.739  0.1320 -0.1326 -0.1559
66248W        W67112   6.255   8.117   6.399 -0.1325 -0.4294  0.1844
66249W        W67113  23.651  26.296  14.476 -0.1510 -0.0997 -0.2791
66250W        W67114  12.150  20.652  24.715  0.0841  0.1084  0.4099
66251W        W67115   1.092  11.541  15.794 -0.1035 -0.1929 -0.0024
66252W        W67116  14.422   5.260   9.374 -0.3056  0.0880  0.1184
66253W        W67117  19.129  16.189   9.116  0.3556 -0.1710 -0.1575
66254W        W67118  28.982  19.896  15.380 -0.1216  0.0277  0.0222
66255W        W67119  20.319   8.696  19.895  0.2081  0.4673  0.1676
66256W        W67120  17.007  12.672  10.586  0.0890 -0.0047 -0.1399
66257W        W67121  26.895  15.871  24.082 -0.0614 -0.5303 -0.0205
66258W        W67122  22.052   4.331  15.959  0.0728 -0.0231 -0.1186
66259W        W67123   7.496  10.736  15.358  0.3613 -0.0614 -0.2125
66260W        W67124  27.557   2.492  23.346  0.1959  0.0090  0.1183
66261W        W67125  21.178  21.512   8.765  0.0294 -0.0564  0.1157
66262W        W67126  24.723  11.110  15.442  0.1501  0.0283 -0.2785
66263W        W67127  18.607   6.895  13.916 -0.1871  0.1774  0.4093
66264W        W67128  23.582  25.579  18.729 -0.2652  0.1461 -0.0505
66265W        W67129   7.049  28.243   1.422 -0.0475  0.0235 -0.2274
66266W        W67130  15.710  14.915  27.218 -0.0828  0.0172 -0.0975
66267W        W67131  25.701  27.732  12.529 -0.1488 -0.2264  0.1431
66268W        W67132   0.345   9.376  17.097  0.0738 -0.2474  0.2066
66269W        W67133  14.225  11.414  24.657  0.1035  0.2681 -0.0011
66270W        W67134  14.121   8.771  27.804  0.0505 -0.1095 -0.1592
66271W        W67135  25.153   5.928  13.477  0.1464 -0.3967  0.2074
66272W        W67136   7.983  22.385  11.778 -0.1173  0.1143  0.0113
66273W        W67137  16.593  14.219  23.588 -0.1311  0.2410  0.0466
66274W        W67138  17.253   4.116   9.362  0.0462  0.0535 -0.1869
66275W        W67139   6.504   4.847  18.373 -0.1498 -0.2917 -0.0941
66276W        W67140  14.660   4.632  28.820  0.1191 -0.3548  0.0656
66277W        W67141  23.659   4.679   3.246 -0.1864  0.0333  0.2536
66278W        W67142  26.784  14.997  24.824 -0.1278  0.0090  0.1101
66279W        W67143  13.473   6.621  11.104  0.1106  0.1038 -0.0467
66280W        W67144   3.204  10.760  17.046  0.0714 -0.1133  0.0312
66281W        W67145  15.533  18.467   5.080  0.1499 -0.1370 -0.1020
66282W        W67146  27.930  15.504   4.115  0.1194 -0.0665  0.1405
66283W        W67147  14.743  19.654  19.637 -0.3913  0.3659 -0.0945
66284W        W67148  16.792  19.893  24.201  0.1516  0.0790 -0.0885
66285W        W67149  24.804  23.687  28.464  0.3926  0.3099 -0.3111
66286W        W67150  21.537  18.709  16.186  0.1454 -0.1367 -0.1711
66287W        W67151  15.652  28.794   9.763 -0.0507 -0.2792  0.0991
66288W        W67152   6.135  25.742  24.141 -0.0386  0.1791  0.0937
66289W        W67153  18.484   3.309   4.236  0.0421 -0.0944 -0.1167
66290W        W67154   9.023   4.119   2.801  0.0144 -0.0169  0.3113
66291W        W67155   1.846   5.814   1.103 -0.2219  0.2086 -0.0811
66292W        W67156  27.745   7.027   5.565 -0.2648  0.1398  0.1195
66293W        W67157   4.810   7.403  15.519  0.3744 -0.3444 -0.0244
66294W        W67158   4.297   4.847  20.749  0.1721  0.0454  0.1566
66295W        W67159   1.455  24.978  18.166  0.0263  0.1450 -0.0091
66296W        W67160  20.401  18.017  21.266 -0.3207  0.0350  0.1778
66297W        W67161  13.405   6.270   8.146 -0.0178 -0.1207 -0.0617
66298W        W67162  26.169  14.777   4.468 -0.0617  0.0029 -0.1027
66299W        W67163  23.336   8.597  25.594  0.1257 -0.3551 -0.1387
66300W        W67164  15.960  18.095  20.369 -0.1012  0.0341 -0.0934
66301W        W67165  14.980  11.737   3.421 -0.1120 -0.0073  0.1985
66302W        W67166  16.149   7.690  21.694  0.0857  0.2148 -0.3098
66303W        W67167   6.109  17.027   8.721  0.0554  0.1276 -0.3108
66304W        W67168  16.072   4.019   3.479 -0.1259 -0.4784 -0.2650
66305W        W67169  21.469  11.463  24.794 -0.3146  0.0265  0.0112
66306W        W67170  13.789  24.553   6.123 -0.2433  0.2341  0.0571
66307W        W67171  15.791  28.284   8.234 -0.2188 -0.0335  0.0995
66308W        W67172  13.002  14.602  23.216 -0.0873  0.1215  0.0468
66309W        W67173  13.747   4.944   6.336  0.2146  0.0877 -0.2119
66310W        W67174  25.690   4.952   8.377 -0.0555 -0.2331 -0.0511
66311W        W67175   1.354  27.722   2.182 -0.0550 -0.3429  0.0665
66312W        W67176  22.089  16.277  25.157  0.0628  0.0657  0.0119
66313W        W67177  12.499  24.308   8.948  0.1348  0.1989 -0.0083
66314W        W67178  25.226  10.168  10.375  0.5382 -0.1317 -0.1245
66315W        W67179  11.016  22.635   3.843  0.1171  0.3625  0.1029
66316W        W67180   2.033  18.024  28.482  0.3140 -0.1545 -0.1503
66317W        W67181   7.927   5.895  22.867  0.0207  0.3476  0.2222
66318W        W67182  24.529   1.593  10.243  0.0048  0.1483 -0.4100
66319W        W67183  27.849   9.175  15.076 -0.0855  0.3185  0.3210
66320W        W67184  10.695   8.769  13.837 -0.3587  0.0018  0.0159
66321W        W67185  25.138  27.777  16.962  0.1566 -0.0003  0.1459
66322W        W67186  22.038  18.757   1.740  0.0445  0.1581  0.1474
66323W        W67187  13.930   9.640  20.167  0.1209 -0.0255  0.1666
66324W        W67188  26.068  17.396  26.974  0.0978 -0.0581 -0.0972
66325W        W67189   9.581  24.947  14.999  0.0545  0.0359  0.1764
66326W        W67190  19.036  19.118  23.052 -0.0980 -0.0384 -0.3384
66327W        W67191  24.900  21.530   7.251  0.0899 -0.1462  0.1554
66328W        W67192  26.901  15.284  16.745  0.4235  0.0472  0.1082
66329W        W67193  25.972  15.537   3.864  0.0374  0.1431 -0.3435
66330W        W67194  10.682  12.629   1.982  0.0300 -0.1006 -0.2178
66331W        W67195   2.380  20.479   0.073 -0.0018 -0.2125 -0.0946
66332W        W67196  28.196  22.839  24.197 -0.0480 -0.0263  0.1455
66333W        W67197   9.719   5.697   5.170  0.1120 -0.0007  0.0240
66334W        W67198  16.713  15.364  27.636 -0.1746 -0.1144  0.0269
66335W        W67199  11.921   5.685  27.115 -0.1819  0.1368 -0.2337
66336W        W67200  27.618   9.438  12.821 -0.1224 -0.1451  0.1384
66337W        W67201  15.465   5.217   6.177 -0.3124 -0.0676 -0.2701
66338W        W67202   0.686  24.180   7.374 -0.0774  0.1859  0.0020
66339W        W67203  21.399  11.982  18.602  0.1630  0.1110 -0.4096
66340W        W67204  12.484  22.919   3.892  0.0248 -0.3423 -0.1312
66341W        W67205  27.055   8.789  24.804 -0.2563 -0.0399  0.0828
66342W        W67206  16.051   4.625  15.030 -0.2430  0.1427  0.3068
66343W        W67207   9.576   8.451  19.418  0.0819  0.0778 -0.3324
66344W        W67208  18.919  25.996   0.086 -0.0808 -0.0668  0.0103
66345W        W67209  11.254  16.016   0.616 -0.0578  0.0929 -0.0841
66346W        W67210  24.136  26.032  28.848 -0.4029 -0.0646 -0.0609
66347W        W67211  27.862  16.833   2.199  0.1906 -0.0261 -0.1508
66348W        W67212  24.692   6.974  19.387 -0.5982  0.0173 -0.1131
66349W        W67213  14.799  20.210   2.657  0.2930 -0.0823 -0.1414
66350W        W67214  28.946   0.044   7.593  0.2087  0.0882 -0.3321
66351W        W67215  11.252  13.055   4.328 -0.1346 -0.2430 -0.1896
66352W        W67216   9.755  20.411  26.216 -0.2489  0.0621 -0.0849
66353W        W67217   4.328  12.657  27.397  0.3228  0.2142 -0.1959
66354W        W67218  21.541   4.795  27.021 -0.0425 -0.1995 -0.1423
66355W        W67219   3.239   9.232   4.947  0.0557 -0.2542  0.0487
66356W        W67220  20.419  27.594   1.775  0.0029 -0.1717  0.1236
66357W        W67221  18.959   2.716  28.558  0.0302  0.2705 -0.1910
66358W        W67222  12.804  15.770  23.899 -0.1166 -0.0126  0.2155
66359W        W67223  10.726  26.454  23.376  0.0086  0.1444  0.1463
66360W        W67224  15.126   8.173   6.110  0.3872 -0.0059 -0.1752
66361W        W67225  14.598  19.663  24.415  0.0515  0.3726  0.0052
66362W        W67226  21.729  14.314  20.037 -0.0110  0.1598  0.0112
66363W        W67227  17.305  12.833  22.876  0.3582 -0.1784 -0.0109
66364W        W67228  23.927  22.188  22.236  0.2183 -0.2424 -0.0772
66365W        W67229   9.848  10.978  16.630  0.0881 -0.0858  0.1419
66366W        W67230  25.098   5.690  14.955  0.2063 -0.0325 -0.0219
66367W        W67231  10.406  10.486   4.472 -0.3638 -0.0882  0.1372
66368W        W67232   2.615  16.368  28.974  0.1096  0.1304 -0.0773
66369W        W67233   5.042  27.128  22.800  0.0864  0.2568 -0.0717
66370W        W67234  26.581  13.845  14.934 -0.0063  0.2333 -0.1961
66371W        W67235  21.372   9.575  28.408 -0.0729  0.1709  0.0294
66372W        W67236  18.164   5.969  27.097 -0.0599 -0.2032  0.0766
66373W        W67237   0.202  22.817  12.644  0.0748  0.2118 -0.1165
66374W        W67238   8.179   6.213  24.866  0.4093 -0.2754  0.1372
66375W        W67239  13.139   1.935  25.165 -0.1182 -0.2099 -0.0362
66376W        W67240  18.760  23.427  23.603  0.1358  0.0579 -0.1846
66377W        W67241  24.866  15.264  16.529 -0.0897  0.3748 -0.2692
66378W        W67242   3.330   2.231  17.544  0.2415 -0.0663 -0.4675
66379W        W67243  12.973   4.304  20.578  0.0469 -0.0380 -0.0455
66380W        W67244  11.365  10.689  11.486 -0.0995  0.2183  0.0455
66381W        W67245  13.999   8.067   3.749 -0.0579 -0.1719 -0.0489
66382W        W67246   5.364  18.449  24.651  0.3849 -0.0495 -0.1424
66383W        W67247   2.692  13.422   3.484 -0.0718 -0.2175 -0.3054
66384W        W67248  11.306   7.782  13.282  0.0553  0.1424 -0.0517
66385W        W67249  15.342  15.003   6.850  0.1498 -0.0263 -0.1631
66386W        W67250   7.410   3.483  12.721 -0.0890 -0.0618 -0.3325
66387W        W67251   8.506   2.485   1.498 -0.0063  0.2447 -0.0097
66388W        W67252   0.269   2.134  24.450  0.0517  0.2095 -0.0069
66389W        W67253   4.380   7.841   0.922 -0.0874 -0.0232 -0.1026
66390W        W67254  20.970  23.814  27.111 -0.0797 -0.0235 -0.0820
66391W        W67255  13.178  23.754   2.132 -0.1301  0.1437  0.1159
66392W        W67256  28.106  14.643   3.582 -0.0268  0.1685 -0.2315
66393W        W67257  18.608  11.898  22.214  0.1117 -0.1646  0.1757
66394W        W67258  28.519   7.776  27.706 -0.0037  0.1616 -0.0919
66395W        W67259  13.779   9.267  19.170 -0.2821 -0.3198 -0.0582
66396W        W67260  17.025   1.590  13.945  0.2633 -0.6083 -0.0224
66397W        W67261  17.872  18.698   1.541 -0.3863 -0.0756 -0.3960
66398W        W67262  18.790  27.904   7.164  0.1411 -0.3089 -0.0639
66399W        W67263  22.396  17.800  21.273 -0.0961 -0.0290 -0.1036
66400W        W67264   9.211  14.829  20.898 -0.1388 -0.1267 -0.1361
66401W        W67265  10.599  18.960  19.591 -0.4019  0.1824 -0.0015
66402W        W67266   9.647   9.206  27.589  0.0298 -0.0622 -0.0810
66403W        W67267  26.137  20.353   5.122  0.1120  0.1610 -0.1517
66404W        W67268  17.379   0.651  23.623 -0.1693 -0.0231 -0.1339
66405W        W67269  28.547  24.159   1.929  0.0236 -0.0135  0.0665
66406W        W67270   5.053   5.948  28.746 -0.3216 -0.0788 -0.0490
66407W        W67271   7.753   2.238  25.285 -0.0063 -0.1369 -0.1610
66408W        W67272  11.564  16.517   2.001 -0.0064  0.2599  0.1282
66409W        W67273   5.527   7.386  26.571 -0.3638 -0.0119  0.3548
66410W        W67274  26.810  19.035  20.002 -0.2526 -0.2157  0.1457
66411W        W67275  26.865   9.040   6.639 -0.2097  0.0119 -0.1857
66412W        W67276  23.489  28.304  27.826  0.2982 -0.1698  0.0285
66413W        W67277  14.671  22.452  12.047  0.1151 -0.0730  0.0443
66414W        W67278  22.827   6.085  13.610  0.0145  0.1675 -0.0405
66415W        W67279  22.686  22.225   3.258 -0.0770 -0.3088 -0.2123
66416W        W67280  17.144  22.939  26.722  0.0523  0.0068 -0.0170
66417W        W67281  24.919  17.442  18.399  0.1048 -0.2210 -0.1112
66418W        W67282  26.773   7.861  17.952  0.0952 -0.1807  0.2968
66419W        W67283  14.635   0.107  27.006 -0.0101 -0.1739 -0.0372
66420W        W67284  27.139   3.144   9.007  0.2602 -0.0322  0.1451
66421W        W67285  18.947  22.953  19.431  0.1657 -0.1211  0.1899
66422W        W67286  18.815  14.725  17.756 -0.1305 -0.0824  0.0390
66423W        W67287  26.970  13.590  13.851 -0.2132 -0.0417 -0.0549
66424W        W67288   7.255  21.992  18.519  0.2174 -0.1223 -0.2151
66425W        W67289   2.319  19.582  27.862  0.4977  0.0793  0.0902
66426W        W67290  21.404  13.005  17.307 -0.0991  0.0928 -0.1381
66427W        W67291  28.047  16.492  11.609 -0.0034  0.0218  0.2968
66428W        W67292  26.405  12.548  28.657 -0.0877 -0.3756 -0.0785
66429W        W67293  12.557  26.357  20.406 -0.0131  0.2159  0.0139
66430W        W67294   3.265  16.715   0.905 -0.2020 -0.2150  0.0635
66431W        W67295   3.057   0.640   2.475 -0.3167  0.1561  0.0607
66432W        W67296  14.083  12.746  17.870  0.1038 -0.0100 -0.2091
66433W        W67297  18.979  18.045  16.791 -0.1684  0.0913 -0.1960
66434W        W67298  21.964   3.711  21.018  0.0247  0.1854 -0.4329
66435W        W67299   2.220  14.549  23.546  0.0765  0.2088  0.0562
66436W        W67300  11.954   1.505  11.391 -0.0099 -0.0291 -0.0195
66437W        W67301  20.217   8.587  24.096 -0.0331 -0.0143 -0.3250
66438W        W67302   1.921  14.227   8.756  0.1044 -0.2339  0.0609
66439W        W67303  19.730   7.614  19.525 -0.0617  0.1688  0.2522
66440W        W67304  27.125  24.043  22.274  0.1301  0.0382  0.1829
66441W        W67305  27.360   0.801  17.719 -0.0059 -0.0583 -0.1492
66442W        W67306  27.743  16.408  16.743 -0.2042  0.0986 -0.1663
66443W        W67307  28.533  16.918   3.673 -0.3019 -0.0838 -0.1793
66444W        W67308   3.021   9.754  26.935  0.0618 -0.0022  0.4298
66445W        W67309   7.038  21.815  20.805 -0.1822 -0.0858  0.1094
66446W        W67310   6.287  24.828   7.921  0.3982  0.2460  0.0625
66447W        W67311   3.536  23.668  20.201 -0.4155  0.1779  0.1117
66448W        W67312  18.575  28.933  12.888 -0.3973  0.0953  0.0906
66449W        W67313  24.216  21.250  28.597 -0.1096 -0.0215  0.0203
66450W        W67314  28.877  15.043   3.720 -0.1222 -0.0955  0.0776
66451W        W67315  24.426  17.761   2.838  0.1318 -0.0227 -0.3572
66452W        W67316  28.579  13.454  23.604  0.0120 -0.2168  0.3671
66453W        W67317  21.569   2.828  22.834 -0.0093 -0.4037  0.0371
66454W        W67318  22.302   4.089  23.339  0.2108  0.0850  0.1068
66455W        W67319  14.625  25.794   4.190  0.0210  0.2269  0.0246
66456W        W67320  12.074   6.042   2.645 -0.0855 -0.2743  0.0201
66457W        W67321  25.678   2.593   4.158  0.0320  0.0065 -0.0801
66458W        W67322  15.022   8.384  18.475 -0.1677 -0.0184 -0.1052
66459W        W67323  27.160  24.824  22.453  0.1993 -0.3529 -0.0597
66460W        W67324  10.014  20.463  28.650  0.1170 -0.0954  0.1026
66461W        W67325  25.886   2.188   4.278 -0.1340 -0.0836  0.0224
66462W        W67326  12.103   7.976  26.697  0.1784 -0.1762  0.2505
66463W        W67327  13.304  10.463  11.687 -0.3006 -0.0950 -0.0404
66464W        W67328  19.865  15.740   7.191 -0.0915 -0.0247  0.0124
66465W        W67329  23.091  10.681  21.816  0.2202  0.0611  0.1733
66466W        W67330  27.996  19.611  18.690 -0.2881 -0.0607 -0.2056
66467W        W67331  28.507  21.049  10.799 -0.2200  0.1519 -0.1446
66468W        W67332  24.492  22.362   9.770 -0.2387 -0.1210  0.0791
66469W        W67333   2.990  13.430   5.758 -0.2043 -0.2534 -0.1506
66470W        W67334  26.687  18.880  26.548 -0.1329 -0.0726 -0.3628
66471W        W67335  22.925  25.423   4.451  0.1901 -0.2233  0.3200
66472W        W67336  16.377  18.841   3.449  0.0480 -0.2627  0.0037
66473W        W67337  23.161  23.842  12.507  0.2057 -0.1028 -0.1653
66474W        W67338  23.056  22.993   4.158  0.0436  0.1252  0.0215
66475W        W67339   6.331   3.178  15.169 -0.1022  0.0644 -0.0477
66476W        W67340  14.040   4.011   7.448 -0.1629 -0.0239  0.0627
66477W        W67341  23.297   0.643  28.825  0.4073 -0.0795  0.0812
66478W        W67342  12.705  20.637   0.626 -0.0014  0.4097 -0.0562
66479W        W67343  23.744  22.065  22.912  0.2349 -0.1670 -0.1723
66480W        W67344  10.757  25.380   2.391  0.2247 -0.1640 -0.1019
66481W        W67345   5.878  21.075   5.069  0.0823 -0.1809 -0.0004
66482W        W67346   7.976  11.728   4.738  0.0058  0.2521  0.0569
66483W        W67347  22.872   7.735  26.089  0.2133 -0.1524 -0.0942
66484W        W67348  26.212   9.264  23.159 -0.2334 -0.1217 -0.0731
66485W        W67349  25.444  14.392  26.095  0.0193 -0.1963  0.2312
66486W        W67350  24.937  13.862  28.810  0.0304  0.1424  0.0818
66487W        W67351   7.703  26.774  28.122  0.0802 -0.1397  0.1982
66488W        W67352   7.246   6.362  16.304 -0.2592  0.1387  0.0246
66489W        W67353  15.755  14.967   8.626 -0.1740 -0.1965  0.0954
66490W        W67354  27.770  22.884   0.241  0.0511  0.0669 -0.0167
66491W        W67355  10.526   6.951   8.152  0.1914 -0.2830 -0.1256
66492W        W67356   4.139  22.112   5.886 -0.0749  0.1460  0.1590
66493W        W67357  13.247  13.322   3.773 -0.2308 -0.1184  0.2402
66494W        W67358   4.765  15.079   6.505  0.2040  0.1484 -0.3351
66495W        W67359  26.961  10.634  28.282 -0.1324  0.0715 -0.1342
66496W        W67360  13.700   6.909  23.726  0.1115 -0.0381  0.1036
66497W        W67361  15.749  16.811   0.084  0.1097 -0.4339 -0.1127
66498W        W67362   1.435  20.389   3.323  0.1723 -0.0045  0.0467
66499W        W67363   2.541  11.062  21.184  0.2103  0.0778 -0.2909
66500W        W67364  12.977  17.121  27.129 -0.1059  0.1614  0.0707
66501W        W67365   7.181   7.836   8.005  0.2649 -0.3171 -0.0008
66502W        W67366  16.392  11.028  19.619  0.3789 -0.2332 -0.2300
66503W        W67367  19.008   2.241   0.596  0.0969  0.2140 -0.0986
66504W        W67368  17.743   4.968  22.967  0.3491 -0.1580 -0.0027
66505W        W67369  26.439   7.610  14.876 -0.2410 -0.1806 -0.0769
66506W        W67370  13.035  12.847  25.277 -0.1655 -0.0469  0.0815
66507W        W67371  27.102  25.945   6.224  0.0066 -0.1068 -0.0916
66508W        W67372   9.612   9.955  12.517  0.2703 -0.3163 -0.0770
66509W        W67373  19.081  12.106   2.734  0.2251 -0.1601  0.0549
66510W        W67374  27.764  11.714   6.661  0.4673  0.2167  0.2217
66511W        W67375  18.588  10.348   8.975 -0.1674 -0.1333 -0.1293
66512W        W67376   1.797  17.024   4.294 -0.0863  0.0198 -0.2180
66513W        W67377  28.877  21.310  21.017  0.0126  0.1941  0.0221
66514W        W67378  26.527  24.844  23.197 -0.0847  0.0338 -0.0010
66515W        W67379   6.267  11.248   9.393 -0.1700 -0.0897  0.0171
66516W        W67380   0.267   8.620  23.855 -0.1153  0.3072 -0.0841
66517W        W67381  25.764  17.784  11.681  0.1813 -0.1295  0.0184
66518W        W67382  18.640  20.394   0.940 -0.1981  0.1266 -0.1880
66519W        W67383  25.542   5.489  25.724 -0.0899  0.2618  0.0010
66520W        W67384  18.715  23.201  19.841 -0.0776  0.2518 -0.3651
66521W        W67385   3.163  14.318  18.952  0.1058  0.0451  0.2375
66522W        W67386  18.509  20.900   6.663 -0.2604 -0.2140  0.0687
66523W        W67387   3.145  18.524   0.309  0.3516  0.2949 -0.1644
66524W        W67388  12.685  10.462  22.667  0.1092  0.0637  0.0894
66525W        W67389  10.996  16.200  25.983  0.1339 -0.3047 -0.0197
66526W        W67390   3.428  27.237  26.934  0.2274  0.3987 -0.2905
66527W        W67391  22.016  15.341  17.951 -0.2199 -0.0402  0.5658
66528W        W67392  19.714  24.086   4.620  0.1277  0.1576 -0.1253
66529W        W67393   7.037  24.471   3.345 -0.1522 -0.2610  0.3346
66530W        W67394  12.966  11.029   3.552  0.1557 -0.1500  0.2806
66531W        W67395   6.140  25.142   3.846  0.0866  0.1157  0.3270
66532W        W67396   7.628   0.508  25.003 -0.0427  0.2900  0.0455
66533W        W67397  12.553  18.445  10.726  0.1123  0.2124  0.0405
66534W        W67398  15.888  15.521   1.289  0.2282 -0.0503  0.0652
66535W        W67399   9.508   5.669   7.400  0.1930 -0.1453  0.1222
66536W        W67400   5.934  20.578  26.864 -0.0011 -0.0764  0.0819
66537W        W67401  15.428  20.081  26.990  0.3463 -0.0308 -0.2605
66538W        W67402  17.806  14.120  16.582  0.1321 -0.0380  0.1917
66539W        W67403  19.388  14.097  10.742 -0.0998  0.1942 -0.0400
66540W        W67404  28.545  12.868  12.391 -0.2854 -0.0047  0.2393
66541W        W67405  18.293  11.354  25.188  0.0312 -0.0281  0.2723
66542W        W67406  25.280   1.372  29.038 -0.2099 -0.0555  0.2097
66543W        W67407  16.609  15.717  25.213 -0.0164  0.2602 -0.0939
66544W        W67408  26.907  28.464  25.082 -0.1170  0.1804  0.2505
66545W        W67409  25.973   4.257  15.718  0.1026  0.1103  0.1861
66546W        W67410  13.046   7.610  11.936 -0.1865  0.0768  0.2944
66547W        W67411  20.454  22.491   7.126 -0.1632  0.3001 -0.3590
66548W        W67412   2.286  18.171   2.834  0.1514  0.0366  0.0485
66549W        W67413   1.841  25.824   2.440 -0.3491  0.1550  0.0949
66550W        W67414  14.690  15.049   2.372  0.1626 -0.0012  0.0338
66551W        W67415  25.747  13.249   7.391  0.2090 -0.1881 -0.4135
66552W        W67416  19.891  11.660  19.229  0.0505  0.1328  0.2315
66553W        W67417   1.502  10.360  27.176  0.1265  0.1460  0.0157
66554W        W67418  23.501   9.006  21.540  0.2352 -0.0287  0.1073
66555W        W67419  25.113  26.353  18.110  0.1363 -0.2587 -0.0568
66556W        W67420  11.478  21.495  27.049  0.0123 -0.4437 -0.0355
66557W        W67421   1.390  13.479   6.965  0.0923 -0.0877 -0.0863
66558W        W67422  20.433  10.250  24.653 -0.1232  0.2518 -0.2194
66559W        W67423  22.546  21.775  27.034  0.0824 -0.0340  0.1535
66560W        W67424   8.828  16.499   2.542 -0.0451  0.0431 -0.0334
66561W        W67425  18.459  24.562   1.309  0.0930 -0.2254  0.1931
66562W        W67426  13.371  25.814   2.212 -0.1964 -0.3851 -0.0131
66563W        W67427  16.210  20.939  11.201 -0.0258  0.3017  0.0052
66564W        W67428  10.184   9.325  29.086  0.1656 -0.2183  0.0579
66565W        W67429   9.090  22.302  21.017 -0.1700 -0.3670 -0.2498
66566W        W67430  23.056  17.313   3.307  0.0653  0.0465 -0.3348
66567W        W67431  13.548  27.723  27.016 -0.0143  0.2363  0.1517
66568W        W67432  22.924  13.766  28.726 -0.0139 -0.1423 -0.1412
66569W        W67433  23.226  13.967   5.844  0.0483 -0.1689 -0.0278
66570W        W67434  25.375  15.638   1.500 -0.3862 -0.1424 -0.0643
66571W        W67435  24.786   8.130   4.216  0.0417 -0.0879 -0.2004
66572W        W67436   3.818  18.964   1.557 -0.1762 -0.4156 -0.2041
66573W        W67437   4.920   7.829   3.682  0.0371 -0.1684  0.0608
66574W        W67438  12.854   3.322   0.612  0.0610  0.0894  0.0703
66575W        W67439   7.100  14.195  12.672 -0.1233  0.2195 -0.1018
66576W        W67440   2.637  26.103   0.810  0.0448 -0.0712  0.4514
66577W        W67441  19.357  19.206  24.189 -0.2168  0.4154  0.1710
66578W        W67442  18.504  25.108   1.564  0.2565  0.1550 -0.0400
66579W        W67443   5.281  16.516  26.268  0.0392 -0.0224 -0.0355
66580W        W67444  21.627   7.519  15.536  0.0233  0.3451 -0.0552
66581W        W67445   1.469   3.501  26.447 -0.3205  0.4320  0.3281
66582W        W67446   6.320  12.024  25.362 -0.0564  0.1576  0.1179
66583W        W67447   4.370  18.944  14.425 -0.0318  0.1669  0.0657
66584W        W67448  28.280   1.243  13.771 -0.0453 -0.4647  0.0970
66585W        W67449  16.760   7.302  29.139 -0.2583 -0.0979  0.3429
66586W        W67450  22.268  17.318  11.832 -0.0634  0.0415 -0.0096
66587W        W67451   0.854   0.814   0.099  0.2116  0.0830 -0.2426
66588W        W67452  28.376  26.506   4.544 -0.0265 -0.0628 -0.1554
66589W        W67453   3.512  13.294  22.903 -0.1585  0.0300 -0.1996
66590W        W67454   0.156  16.573   6.348  0.0803  0.0592 -0.0588
66591W        W67455  27.571   0.909   4.164  0.0488  0.0686 -0.1044
66592W        W67456   1.765  17.206  19.130  0.4198  0.1803  0.3594
66593W        W67457   9.570  24.833  26.939  0.0204 -0.1073 -0.2575
66594W        W67458   0.137   6.726  17.412  0.2001  0.0781 -0.0457
66595W        W67459  15.853   4.553  16.010  0.2411  0.3220 -0.1210
66596W        W67460  18.196  11.585  22.218  0.0476 -0.0611  0.1235
66597W        W67461  28.471   7.407   6.205  0.1657  0.2429 -0.2673
66598W        W67462  20.307  19.765  10.369  0.1392 -0.1937  0.0084
66599W        W67463  24.773   7.111  20.121 -0.0511 -0.0384 -0.0449
66600W        W67464  19.950  27.455  24.262 -0.1365 -0.1157 -0.0992
66601W        W67465  26.520  10.664  15.033  0.1758  0.0628 -0.0287
66602W        W67466   2.289  29.142  18.852 -0.0760 -0.1308  0.1230
66603W        W67467  22.064   4.185  28.969  0.2355 -0.0629  0.0560
66604W        W67468  20.170   8.375  29.132  0.0329  0.3145  0.2178
66605W        W67469  21.835   7.338  26.857 -0.0181 -0.2271  0.0586
66606W        W67470   1.349  19.952   9.589 -0.2841 -0.1439 -0.3206
66607W        W67471  12.048  14.760  14.880 -0.2198 -0.2309 -0.0211
66608W        W67472   3.774  18.632  23.189  0.1704  0.1507 -0.1880
66609W        W67473   6.829  12.493   7.664 -0.1580  0.1389 -0.1001
66610W        W67474  19.757  14.507   2.647  0.2147 -0.0009  0.0717
66611W        W67475  17.615   1.479  20.295  0.0421 -0.0488  0.0591
66612W        W67476  21.703   4.228   3.296 -0.2747  0.0243  0.1641
66613W        W67477  20.737  19.346   9.411 -0.0763  0.0860  0.1622
66614W        W67478  23.081   6.629  21.845  0.2053  0.2251 -0.1686
66615W        W67479   8.260  17.780   3.600  0.2732 -0.4534  0.1968
66616W        W67480  20.283  20.116   5.954  0.1611  0.0933  0.0558
66617W        W67481  13.192   5.757  20.962 -0.2311  0.0289  0.0103
66618W        W67482  16.470  10.129  26.985  0.0942 -0.3010  0.1034
66619W        W67483  20.808  12.615   6.715 -0.1302  0.0368  0.0499
66620W        W67484   2.997  10.335   0.538 -0.0126 -0.1812  0.0185
66621W        W67485  18.289  15.818  11.409 -0.0591  0.1800 -0.0738
66622W        W67486  25.733  25.522  10.529 -0.0040 -0.1085 -0.0561
66623W        W67487  16.480  18.435   7.960  0.0799  0.0239 -0.2719
66624W        W67488  26.999  23.154  21.624 -0.0162  0.0409 -0.1397
66625W        W67489   7.066  22.125   7.604  0.0306  0.1746 -0.0523
66626W        W67490  12.038  15.310  14.080  0.0929  0.0882  0.0499
66627W        W67491   0.975  25.372  23.500 -0.3414  0.2885  0.1628
66628W        W67492  27.374   6.130  26.525  0.0221 -0.0726  0.0361
66629W        W67493  27.661   4.885  23.403 -0.0513 -0.3632  0.2684
66630W        W67494  10.344   0.234  16.944  0.2370  0.0618 -0.1202
66631W        W67495  27.468  28.758  21.613  0.2656  0.2121  0.1595
66632W        W67496   5.017  21.181  25.391  0.0338 -0.0507 -0.2349
66633W        W67497  16.076  23.055   4.178 -0.0503 -0.2537  0.3194
66634W        W67498  24.985  23.587   7.788 -0.4000 -0.2035 -0.0348
66635W        W67499  12.690  20.345  15.577 -0.4002 -0.3424 -0.1895
66636W        W67500  23.100   6.972   5.208 -0.3048  0.2021 -0.1539
66637W        W67501  14.721  12.989  22.861 -0.1367  0.2637 -0.1311
66638W        W67502  13.540  14.473   9.252 -0.1940 -0.1568 -0.0892
66639W        W67503  20.907  10.094  16.393 -0.0780 -0.0094  0.0088
66640W        W67504   4.142  12.662  10.024 -0.0142 -0.0030  0.2469
66641W        W67505  15.858  18.949  19.998  0.0643  0.3245  0.0546
66642W        W67506   6.548  20.287  10.828 -0.0007  0.3470 -0.0269
66643W        W67507  20.420  18.163  27.503  0.0834  0.1205  0.0918
66644W        W67508   5.512   0.260   6.360 -0.0150  0.0037 -0.1349
66645W        W67509  13.465  21.136   8.570 -0.1036 -0.0147  0.2066
66646W        W67510   0.653   5.388  12.729  0.4823  0.3039 -0.2804
66647W        W67511  25.548   5.259  20.596 -0.0437 -0.2966 -0.1917
66648W        W67512  19.876  15.834  28.145  0.0882 -0.2184  0.0289
66649W        W67513   8.467  11.530   7.090  0.0700 -0.0181 -0.0976
66650W        W67514   3.475  13.726  13.366 -0.0695 -0.2813  0.0592
66651W        W67515   9.712   7.843   9.041  0.1561 -0.2708 -0.0775
66652W        W67516  11.036  24.522  19.268  0.2552  0.0178  0.1499
66653W        W67517  22.295  22.535   8.429  0.0141 -0.0773  0.2160
66654W        W67518  19.867  23.265  27.066  0.1538  0.1699 -0.0079
66655W        W67519   6.622   7.829  26.242  0.0632 -0.0104  0.1844
66656W        W67520  17.540  16.524  12.947 -0.0888  0.1691 -0.2160
66657W        W67521   2.464  17.670  15.578  0.1128  0.2364  0.3686
66658W        W67522  15.628  13.906  16.183 -0.0044  0.0816 -0.2772
66659W        W67523  22.626   1.558  26.218  0.4313 -0.2263 -0.2397
66660W        W67524  26.884  19.846  18.805  0.1376 -0.0676 -0.1081
66661W        W67525   0.290  22.082   9.035  0.3273 -0.1158 -0.2542
66662W        W67526  13.623  26.003   5.200  0.1815  0.3101 -0.0096
66663W        W67527  15.213   5.229  19.677 -0.0814 -0.0722  0.0793
66664W        W67528   4.319  20.583  11.024  0.0458  0.0787 -0.0996
66665W        W67529   2.131  26.075  27.872  0.0831  0.0941 -0.0193
66666W        W67530   2.964  27.192  10.725  0.0850 -0.0079 -0.1201
66667W        W67531  27.378   2.855  17.779 -0.0108 -0.0414 -0.2054
66668W        W67532  20.421  14.546  14.412  0.1046 -0.4022  0.1625
66669W        W67533   5.400  10.769  14.534  0.1652  0.0617  0.4119
66670W        W67534  18.799  18.185   2.036  0.1063 -0.1942 -0.0042
66671W        W67535  28.166  10.485  27.707 -0.1808  0.0318 -0.0357
66672W        W67536  13.308  14.670  19.989  0.1909  0.1433  0.2085
66673W        W67537  21.975  16.392  17.527 -0.1906 -0.1043 -0.0712
66674W        W67538  26.780  20.964  13.670 -0.0430 -0.1689  0.3495
66675W        W67539   8.674  12.220  10.308  0.0972  0.1626 -0.0493
66676W        W67540   9.907  28.760  25.734  0.1256  0.3022  0.2523
66677W        W67541  13.417  24.123  21.836 -0.1396  0.0082  0.0029
66678W        W67542  16.214  28.406   1.450 -0.2588  0.1364  0.0824
66679W        W67543   3.810  13.254  16.098  0.0274 -0.2602 -0.0586
66680W        W67544  19.673  20.375  24.191  0.1927  0.3474 -0.0539
66681W        W67545  18.446   7.036   5.293  0.0359  0.1687  0.1469
66682W        W67546   9.070  22.803  13.630  0.0171  0.0794 -0.0734
66683W        W67547  14.944   8.403  23.835 -0.0779 -0.0385  0.0180
66684W        W67548   0.273  16.393   3.837 -0.3318 -0.1703  0.0071
66685W        W67549   0.811  12.214  28.106 -0.1145  0.1535  0.1672
66686W        W67550   9.343  28.444   0.643  0.1486 -0.1268  0.1249
66687W        W67551  13.664  19.900  25.610  0.2613 -0.3558  0.1084
66688W        W67552  24.457  22.681  21.311  0.0400  0.0177 -0.0628
66689W        W67553  11.612  21.456  10.148 -0.1518 -0.1940  0.1196
66690W        W67554  14.702  21.999  12.322  0.0318 -0.1645  0.0247
66691W        W67555   2.271   3.720  18.844  0.1421 -0.0569 -0.1930
66692W        W67556  23.143  25.246  17.458  0.0028  0.2630 -0.0726
66693W        W67557   3.147  22.678  25.951 -0.0382  0.0179 -0.1069
66694W        W67558   8.762  21.261   0.358 -0.0267  0.1460  0.0998
66695W        W67559  17.644  22.543  20.885  0.0262 -0.0255 -0.3630
66696W        W67560  15.304   0.731   9.167  0.0696 -0.3167 -0.0091
66697W        W67561   6.722  22.980   1.058  0.0560 -0.1214 -0.1325
66698W        W67562  18.762  17.117   0.885  0.1882 -0.3601  0.0441
66699W        W67563  15.501  21.019   9.258 -0.0923  0.0816  0.0710
66700W        W67564   0.361  17.259   0.013 -0.0139 -0.2388  0.2899
66701W        W67565  19.313  23.394  13.279 -0.0888  0.1513 -0.0982
66702W        W67566   7.143   7.227   0.106  0.5004 -0.2300 -0.0868
66703W        W67567  14.471  24.172   1.502  0.1743  0.1492  0.2279
66704W        W67568  26.143  28.669  17.796  0.2606  0.3179 -0.4225
66705W        W67569  22.604  22.271   2.741 -0.0671  0.0976  0.2133
66706W        W67570  20.557   3.871   2.052  0.0113 -0.1723  0.0642
66707W        W67571  19.998   3.259   4.597 -0.2434  0.0694 -0.0342
66708W        W67572  27.684   2.459  10.115  0.1372  0.6593 -0.3709
66709W        W67573  21.649  20.607  26.853 -0.0744  0.2618  0.0544
66710W        W67574  25.665   6.291  19.484  0.1074  0.0489  0.0468
66711W        W67575   4.491   2.392   1.103 -0.1891  0.1509  0.1335
66712W        W67576  12.012  15.441  16.577 -0.1150  0.1626  0.1655
66713W        W67577  24.582   6.361  26.406  0.0562 -0.1315  0.2192
66714W        W67578   0.784  23.289  18.344  0.1206  0.1265 -0.2133
66715W        W67579  25.838   8.884  15.518 -0.1513 -0.0634  0.1338
66716W        W67580  20.296   9.608  19.193 -0.1166 -0.0825 -0.0956
66717W        W67581  12.872   4.084  17.858  0.0351 -0.1363  0.1982
66718W        W67582  22.572  23.008   7.638 -0.0291 -0.0083  0.0420
66719W        W67583  25.356  25.128   0.448 -0.0027 -0.1801  0.1882
66720W        W67584  17.918  11.766  14.066  0.0226 -0.1231  0.0721
66721W        W67585   4.425  18.952   0.838  0.0010  0.2241 -0.3633
66722W        W67586  15.411  14.636   4.485  0.2040 -0.1500 -0.3652
66723W        W67587  23.821  21.047  25.326  0.1737  0.2126  0.4380
66724W        W67588  25.775  12.654  14.458 -0.0882  0.0881  0.0394
66725W        W67589   3.832  21.764  25.200 -0.1535 -0.0536 -0.2356
66726W        W67590  26.276  27.550   4.629 -0.0829 -0.0519  0.0954
66727W        W67591  19.532  15.186   5.773  0.0495 -0.2115  0.0389
66728W        W67592  27.366  18.714   1.547  0.1182 -0.2646 -0.3004
66729W        W67593  22.714  21.069  25.145  0.1634 -0.0829 -0.2991
66730W        W67594  18.670  25.578  28.908 -0.0482 -0.3936  0.0097
66731W        W67595  22.624  16.311   1.221  0.0324 -0.0048  0.0280
66732W        W67596  23.392   4.531   1.560 -0.0872 -0.1790  0.2933
66733W        W67597  13.871  16.720  20.152  0.0703 -0.2295 -0.1578
66734W        W67598  28.043  15.893   1.513 -0.0518 -0.0062  0.1333
66735W        W67599   4.283   6.372   7.533  0.0720  0.0710  0.2167
66736W        W67600  15.685  19.378  25.686 -0.1756  0.0697  0.2299
66737W        W67601  22.663   3.848  28.973  0.0758 -0.1339  0.2559
66738W        W67602  28.050  26.548  14.495  0.4102 -0.0041 -0.2673
66739W        W67603  25.205  22.959   1.952  0.1258 -0.5216 -0.1191
66740W        W67604  19.504  23.078  16.795  0.0431 -0.0926  0.2025
66741W        W67605  22.621  19.015  24.867  0.0346 -0.0288 -0.2269
66742W        W67606  21.436  17.380  11.614 -0.0746 -0.0531  0.0742
66743W        W67607   0.689  22.502   1.119 -0.2240 -0.0130 -0.0379
66744W        W67608   9.039  26.190  20.570 -0.0856  0.1852 -0.0425
66745W        W67609   9.387  19.385  14.442 -0.1220 -0.2225  0.0952
66746W        W67610  19.492  21.680  21.931  0.0835 -0.0667 -0.1391
66747W        W67611   7.345  14.821  27.007  0.1844  0.2103  0.2723
66748W        W67612   7.974  23.390  28.633 -0.1554  0.1081 -0.0977
66749W        W67613  17.399  16.039  12.838 -0.0961 -0.1843 -0.1212
66750W        W67614  15.143  27.802   6.536 -0.2558  0.2086 -0.1387
66751W        W67615  19.912  18.084  17.111 -0.1274  0.0985  0.1970
66752W        W67616  22.255  14.531   5.792 -0.2194  0.2119  0.0831
66753W        W67617  28.752   7.868   6.328 -0.2031 -0.0225 -0.2131
66754W        W67618  14.090  19.636  23.099 -0.1782  0.2726 -0.0413
66755W        W67619  21.196   5.329  19.186  0.2644 -0.0144 -0.0711
66756W        W67620  25.327  22.597  13.806  0.0762  0.3065 -0.0622
66757W        W67621  20.866  12.075  18.704  0.6674 -0.1991 -0.2136
66758W        W67622   5.492  12.444   4.071 -0.0717  0.1787  0.0264
66759W        W67623   4.463  13.008  26.645 -0.3700 -0.1309 -0.1057
66760W        W67624  29.108   3.612   2.472 -0.1511 -0.2777 -0.2403
66761W        W67625   0.731  26.029   6.543  0.0384  0.0188  0.1233
66762W        W67626  25.599  21.464  15.052 -0.0557  0.0453  0.2896
66763W        W67627  14.212   8.456   4.867 -0.1031  0.1450 -0.2411
66764W        W67628  24.495   1.922  21.215  0.0285 -0.0091  0.0152
66765W        W67629  16.740  28.899   2.073  0.3728 -0.3305 -0.0887
66766W        W67630  17.491  15.966   0.203  0.0228 -0.0144 -0.1805
66767W        W67631  18.557  26.205  13.050 -0.1433  0.0180 -0.2056
66768W        W67632  28.749  19.461   2.675  0.0989  0.2251  0.1017
66769W        W67633  18.016   6.130   7.496 -0.1034  0.0130  0.0560
66770W        W67634  24.146  16.375   5.543 -0.2338  0.0665 -0.1689
66771W        W67635   5.965  22.031  22.302  0.1487 -0.1258 -0.3722
66772W        W67636   0.161   1.519  21.011  0.1463  0.0247 -0.1996
66773W        W67637  17.623  20.410  13.314  0.0583 -0.2217  0.0048
66774W        W67638  29.004   7.091  11.758 -0.0353  0.3378  0.1039
66775W        W67639   0.807  11.331  28.741  0.0409 -0.1090  0.0850
66776W        W67640  17.098   5.220  27.296  0.2115  0.2683 -0.0162
66777W        W67641  23.510   2.426  26.968 -0.1757 -0.0277 -0.0799
66778W        W67642  22.111   9.773  26.693 -0.1661 -0.0273  0.2139
66779W        W67643  22.569  18.070   6.545 -0.1306  0.0840  0.1620
66780W        W67644  25.726  17.140  24.528  0.0538  0.4481  0.1177
66781W        W67645  22.933  20.908  23.556 -0.1608  0.0542 -0.1404
66782W        W67646  27.079   8.487  15.158 -0.1719 -0.1187  0.2437
66783W        W67647   0.737   8.612  23.885 -0.0102  0.0675 -0.1840
66784W        W67648   8.290  24.460   9.664 -0.0458 -0.0722  0.2104
66785W        W67649  12.529  26.394  25.194  0.2791 -0.1357 -0.0979
66786W        W67650  12.876  26.341  10.190 -0.0689 -0.1810 -0.0670
66787W        W67651   6.843   4.422   4.508 -0.0630  0.0653 -0.0597
66788W        W67652  28.526  26.216  25.636  0.3524 -0.0234 -0.2036
66789W        W67653   6.966  15.025  15.735  0.0721  0.2753 -0.2546
66790W        W67654  16.346   5.297   1.127  0.1006 -0.0417  0.0181
66791W        W67655  25.857   6.807  19.466  0.2656  0.1994 -0.0677
66792W        W67656  17.644  20.973  21.362 -0.1791 -0.1949 -0.0296
66793W        W67657  20.505  25.064   0.267 -0.2138 -0.0978  0.2269
66794W        W67658  17.259  21.281  21.384  0.0046  0.2047  0.1320
66795W        W67659  15.300  17.098   3.330  0.1372  0.2601 -0.0650
66796W        W67660  24.090   6.705   6.054 -0.0254  0.0376 -0.1397
66797W        W67661  18.306  19.931  24.307 -0.2139  0.1121  0.1273
66798W        W67662   6.533   0.722  10.833 -0.3383  0.0187  0.0656
66799W        W67663  25.349  25.427  12.404 -0.2059 -0.0273  0.1290
66800W        W67664   3.540   9.369  18.948  0.0894 -0.1928 -0.0054
66801W        W67665   5.359  13.402   3.525  0.0610  0.0510 -0.0071
66802W        W67666  24.011  22.389   9.974  0.1326 -0.2360  0.1073
66803W        W67667   6.603   8.623  28.791  0.0632 -0.0894 -0.1803
66804W        W67668  23.954   8.326   4.828 -0.3058  0.1733  0.0131
66805W        W67669  16.224  17.850   4.717 -0.1497  0.0201  0.0937
66806W        W67670  26.134  28.630  12.228 -0.1319  0.0839  0.0596
66807W        W67671  24.134  10.119  27.945  0.2420 -0.0765  0.1823
66808W        W67672   1.102   9.064  18.868  0.0882 -0.4316 -0.0144
66809W        W67673   3.439  19.579  19.231 -0.4145  0.1953 -0.1217
66810W        W67674  27.252  22.246   4.610  0.1664 -0.2938 -0.3142
66811W        W67675  23.032  23.541  22.526  0.6964 -0.0999  0.0957
66812W        W67676  26.245  16.216  27.665  0.0401 -0.1936  0.3512
66813W        W67677  27.825  25.525  27.738  0.0645 -0.2103  0.1423
66814W        W67678   3.695  20.273  15.370 -0.4567 -0.1096 -0.3036
66815W        W67679  17.735  25.545  19.538  0.0517  0.1010 -0.2543
66816W        W67680  16.760   8.796   1.347 -0.0790 -0.1951 -0.0092
66817W        W67681  13.774  20.515   1.149  0.0474 -0.2153  0.1196
66818W        W67682  27.974  11.304  28.268 -0.1038  0.1318  0.1684
66819W        W67683  20.039  21.445   3.155 -0.2547  0.1143 -0.2285
66820W        W67684  13.520  24.573  23.222 -0.1294  0.3015  0.0224
66821W        W67685   9.179  28.941   8.799  0.2180 -0.2735 -0.0805
66822W        W67686   1.998  24.615   5.228 -0.1824 -0.0238  0.2993
66823W        W67687  13.780   8.581  15.857 -0.0622  0.0056 -0.1517
66824W        W67688   8.907   2.086   0.590  0.1406 -0.1338 -0.1138
66825W        W67689  18.007   7.452   3.389  0.1057  0.0270 -0.2523
66826W        W67690  20.217   2.118   8.691  0.0597 -0.4298 -0.1239
66827W        W67691  18.201  24.703  19.579  0.2513  0.0869 -0.4088
66828W        W67692  20.830   0.409   6.354 -0.0568 -0.1433  0.2131
66829W        W67693  24.536  12.967  25.578 -0.2672 -0.0574 -0.0639
66830W        W67694  27.124   7.998  15.958 -0.1307  0.1256 -0.0123
66831W        W67695  25.701   9.859  20.172  0.0546 -0.2587  0.0190
66832W        W67696   6.549  18.813  23.303 -0.1882  0.3463  0.1961
66833W        W67697   6.349   3.359   0.547 -0.2260  0.1453  0.0059
66834W        W67698  16.202   8.877  11.524 -0.1410  0.0069 -0.0005
66835W        W67699  26.631  21.673   3.072  0.5092 -0.2112  0.0521
66836W        W67700  19.406  18.379  11.098 -0.1087 -0.4533  0.0293
66837W        W67701  23.359  14.981  20.917 -0.0944  0.0101 -0.0148
66838W        W67702   0.953  22.237  27.237  0.0569 -0.1293  0.1244
66839W        W67703  28.531   8.506  13.244 -0.1174  0.0842  0.2826
66840W        W67704   2.901  17.999  25.290  0.0130 -0.0386 -0.0103
66841W        W67705  20.954   9.993  12.261 -0.2879  0.1075 -0.0491
66842W        W67706  27.248  25.447   3.127  0.0873 -0.0494  0.0493
66843W        W67707  22.015  25.346  10.165 -0.0102  0.0805 -0.2138
66844W        W67708   6.469  17.961   3.794 -0.0029  0.1865  0.0448
66845W        W67709  11.568  25.458  18.437  0.2509 -0.0924  0.1132
66846W        W67710   9.915  23.302   1.050  0.1395 -0.0994 -0.1048
66847W        W67711  28.994  19.876   6.160  0.0982  0.4125  0.1955
66848W        W67712  17.298   8.148   1.946 -0.1009 -0.0047 -0.0113
66849W        W67713  20.157  26.186   6.383  0.3015 -0.1071 -0.0866
66850W        W67714  26.107   9.618   4.469 -0.5258 -0.0536  0.4349
66851W        W67715  12.382  25.425  19.994  0.1155  0.2936 -0.0799
66852W        W67716  27.920  20.197  16.256  0.3268  0.0966 -0.2943
66853W        W67717  20.848  23.228  24.235 -0.3019 -0.0076 -0.2113
66854W        W67718   8.282  22.507  11.173 -0.1984 -0.0548 -0.0959
66855W        W67719   5.429   8.316  19.812 -0.2416  0.1484 -0.1349
66856W        W67720   9.248   8.693   2.084 -0.1230 -0.2027  0.1482
66857W        W67721   6.851   3.600  27.319 -0.0093  0.0799  0.1089
66858W        W67722  17.205   5.719   6.462 -0.1315 -0.2620 -0.2166
66859W        W67723  25.666   8.148  11.923  0.3791 -0.1835  0.0608
66860W        W67724  13.461   8.898  23.932 -0.1225 -0.3685 -0.2743
66861W        W67725   8.476   2.850   4.416  0.0929 -0.3703 -0.2329
66862W        W67726  23.198  21.013  16.210  0.0608  0.1859 -0.1622
66863W        W67727   0.459  20.183  10.600 -0.1574 -0.0096  0.2062
66864W        W67728  21.961  28.775  20.018 -0.0165 -0.0660 -0.1611
66865W        W67729  23.914   0.700  25.759  0.0093 -0.1156 -0.0360
66866W        W67730  23.690  13.384  16.369  0.2031  0.0139  0.1363
66867W        W67731  27.145  21.234  27.947 -0.0301 -0.2855 -0.5258
66868W        W67732   6.726  23.220  18.918  0.1990  0.1700 -0.0019
66869W        W67733  27.569   7.999   4.419  0.2247 -0.0446 -0.2487
66870W        W67734  24.336  14.451  10.011  0.1203  0.1119 -0.1225
66871W        W67735  10.126  22.998  12.558 -0.1977  0.2800  0.2644
66872W        W67736  27.211  16.038   3.914 -0.0888  0.2607 -0.1979
66873W        W67737  23.772  26.457   6.758  0.4020  0.0154  0.0216
66874W        W67738   9.061  29.136   5.944 -0.0889 -0.0921 -0.0078
66875W        W67739  15.914   6.241   6.369  0.0644 -0.2037  0.0295
66876W        W67740  19.043  27.204  10.975  0.1569  0.0582 -0.2852
66877W        W67741   5.532  28.058  21.255 -0.3502 -0.2579  0.0163
66878W        W67742  19.463   6.908  15.104  0.2035  0.1236 -0.0890
66879W        W67743  19.384  25.000   2.916 -0.0553 -0.0485 -0.0237
66880W        W67744  18.909   4.849  13.533  0.1869  0.3105 -0.0627
66881W        W67745   3.484  19.433   1.300 -0.0175  0.3683  0.0979
66882W        W67746  24.719  11.024   9.445  0.3281 -0.0301  0.1995
66883W        W67747  14.793  20.792  28.860  0.1551 -0.2875 -0.1760
66884W        W67748  20.855  27.221   1.624 -0.2839  0.0744 -0.2222
66885W        W67749  15.047   6.807  22.476 -0.1643  0.3694 -0.1270
66886W        W67750  11.423  20.740   8.020  0.2945 -0.2126 -0.0697
66887W        W67751   4.491   5.796  23.041 -0.1717  0.0927  0.1492
66888W        W67752   7.846   8.473   1.848 -0.0208 -0.1124  0.0174
66889W        W67753  24.632  23.176  17.722  0.0662 -0.0551  0.0092
66890W        W67754   2.116   6.457  24.892 -0.0595  0.1472 -0.0488
66891W        W67755  27.162  12.699  10.949 -0.2385  0.5011  0.1184
66892W        W67756  24.284   9.430  19.133 -0.0225 -0.1343  0.0315
66893W        W67757  12.910  20.151  18.952 -0.2076 -0.0264 -0.0071
66894W        W67758  12.281  15.765   6.031  0.1849  0.1198  0.1316
66895W        W67759   4.558  24.174  28.756  0.0412 -0.1393 -0.3509
66896W        W67760  18.795  11.964  28.031 -0.5095 -0.1925 -0.0671
66897W        W67761  22.047  16.563   1.699  0.0796  0.2420  0.3240
66898W        W67762  20.929   8.401  17.212  0.0382  0.3570  0.0438
66899W        W67763   0.365   2.383   3.316 -0.1832 -0.1360  0.2916
66900W        W67764  21.803  25.486  14.558 -0.0003 -0.1174  0.0270
66901W        W67765  16.647  21.641  12.065 -0.1242 -0.0146 -0.0638
66902W        W67766   3.751  21.785  21.574  0.0783  0.2308 -0.0698
66903W        W67767   5.143  14.668   3.483 -0.1243 -0.3517 -0.1026
66904W        W67768  17.490  13.111   7.168 -0.0608  0.0737  0.1115
66905W        W67769   4.641  23.844   2.345  0.2527  0.2985 -0.1421
66906W        W67770   3.287   9.058   6.045  0.0223 -0.1310  0.2412
66907W        W67771  18.001  13.552  15.513  0.1958  0.0477 -0.0923
66908W        W67772  26.417   0.114  29.081 -0.0964 -0.0331 -0.1654
66909W        W67773  10.020  19.245  14.559  0.0941 -0.1893  0.2251
66910W        W67774  15.140  15.926   3.580 -0.2367  0.2768 -0.0006
66911W        W67775  25.081   0.491   7.881 -0.0491 -0.1310 -0.1125
66912W        W67776   8.042   0.565   8.247 -0.1296 -0.0401  0.0258
66913W        W67777  19.687  25.003  12.728  0.0246 -0.0375 -0.2061
66914W        W67778   5.892  16.912  11.280  0.2122  0.2048 -0.2023
66915W        W67779  17.917  13.270   1.368  0.1786 -0.1276 -0.3005
66916W        W67780   2.392   9.705  10.642  0.1300 -0.0724  0.1614
66917W        W67781   6.866  28.479   4.798  0.1018  0.2760  0.0152
66918W        W67782   5.045  13.435  19.647  0.1292  0.1531  0.0172
66919W        W67783  15.996  27.276   1.137  0.1463  0.1844 -0.0973
66920W        W67784   8.734  14.017  18.530  0.0781 -0.3271  0.1364
66921W        W67785  18.036  27.101   4.925  0.0897 -0.0068 -0.3278
66922W        W67786  27.142  12.943  27.783 -0.0467 -0.3793  0.3856
66923W        W67787  18.833  17.757   0.151  0.2638 -0.1393 -0.1517
66924W        W67788  23.044   1.557  24.993  0.3332 -0.0762 -0.2399
66925W        W67789  12.582  20.424  14.345 -0.1123  0.1244  0.0836
66926W        W67790   9.426   9.258   1.679 -0.0332 -0.1707 -0.0514
66927W        W67791  19.702  21.002   9.090 -0.1014  0.1551  0.1665
66928W        W67792  11.185  26.984  13.967  0.2001 -0.1179  0.3105
66929W        W67793   5.570  18.913  11.132  0.0380 -0.1922 -0.1780
66930W        W67794   0.527   9.549  13.512 -0.0986  0.0353  0.0493
66931W        W67795   8.419  23.248   0.487 -0.1435  0.2775 -0.1588
66932W        W67796   9.609  13.662   8.973 -0.1024 -0.0704  0.2343
66933W        W67797  26.360  14.294   0.612 -0.0425  0.1095 -0.1852
66934W        W67798  28.666   9.229   1.769 -0.0180 -0.0012  0.1164
66935W        W67799  21.584  10.900  19.347 -0.1089  0.3060  0.2190
66936W        W67800   3.096  14.826   8.596 -0.0159  0.0175  0.4612
66937W        W67801  13.126  16.936  16.930  0.1692  0.2683  0.2389
66938W        W67802   3.714   9.573   0.432 -0.2807  0.1127 -0.0400
66939W        W67803  11.910  19.678   2.971 -0.0330 -0.2187  0.1348
66940W        W67804  27.401  17.670  11.985 -0.0893  0.3352 -0.0730
66941W        W67805  14.249  11.213  10.518 -0.0845  0.2351 -0.0877
66942W        W67806  17.570  25.048  24.533 -0.1861 -0.1410  0.1661
66943W        W67807   8.517  24.793   4.664 -0.2811  0.0773 -0.2417
66944W        W67808  25.657  15.198  27.863 -0.0636 -0.0797  0.2323
66945W        W67809  24.677  25.465  18.249 -0.1095  0.1693 -0.2164
66946W        W67810   4.763  27.755  16.016 -0.0718  0.1371  0.1335
66947W        W67811   0.958  27.774   7.406  0.1533 -0.0373 -0.1907
66948W        W67812  18.593   1.956  24.457 -0.0270  0.0368 -0.0692
66949W        W67813   7.866  19.755   9.138 -0.1075  0.4162  0.0823
66950W        W67814  11.912  11.650  24.743  0.0068 -0.4257  0.3354
66951W        W67815  14.710  10.129   4.395  0.0089 -0.0538  0.5995
66952W        W67816  18.666  14.406  20.034 -0.2381  0.0496 -0.0527
66953W        W67817  23.841  23.991   9.454  0.0984  0.2893 -0.1333
66954W        W67818  15.877  11.700  12.173 -0.3673  0.2314 -0.0687
66955W        W67819  15.460  17.624   0.609 -0.3514  0.0268  0.2577
66956W        W67820  23.741  21.787   4.589  0.2270 -0.0645 -0.1557
66957W        W67821  25.228   1.882  28.786 -0.1323 -0.2267 -0.1230
66958W        W67822  20.569   7.626   9.011 -0.0106  0.0451  0.2117
66959W        W67823   3.634  23.792   2.811  0.1364  0.1913 -0.0237
66960W        W67824  21.825  22.437   4.042  0.1600  0.1194 -0.1068
66961W        W67825  23.404  28.200  10.067 -0.2571  0.1209 -0.0262
66962W        W67826  23.636  15.064  23.832  0.0739 -0.2902  0.1824
66963W        W67827   2.519  18.641  14.114 -0.0576  0.1037 -0.1625
66964W        W67828   1.171  14.437  18.113  0.1104 -0.1700 -0.1035
66965W        W67829  17.992   3.319  25.082  0.2200  0.1396 -0.1780
66966W        W67830  24.651  29.018  14.728  0.2456 -0.0267  0.0028
66967W        W67831  20.294  15.100  27.860  0.1968 -0.1388 -0.0477
66968W        W67832   1.181  22.938  17.730  0.0375 -0.3599  0.0291
66969W        W67833  16.685  11.660  28.786 -0.1418 -0.3125  0.1480
66970W        W67834   5.956  26.116   9.506 -0.2993  0.0825  0.1424
66971W        W67835  18.407   3.825  10.645 -0.2137 -0.1250  0.1574
66972W        W67836  18.493   0.950  24.775  0.1025 -0.2605  0.0853
66973W        W67837   8.801  19.771   1.643  0.0423  0.0058  0.1233
66974W        W67838   1.464   2.729  16.534  0.0955  0.0317 -0.1468
66975W        W67839  27.586   3.811  16.285 -0.2723 -0.2580  0.0426
66976W        W67840  15.104  20.701  11.656  0.1271 -0.3129  0.0653
66977W        W67841   6.977  20.624  21.728 -0.0826 -0.0407  0.2573
66978W        W67842   9.876  19.910  12.649  0.0708  0.4524  0.2402
66979W        W67843  23.295  21.040  18.897 -0.2960  0.3556 -0.1922
66980W        W67844  26.265   0.059  26.256 -0.0645  0.1799 -0.1157
66981W        W67845  20.423  21.647  15.574  0.0617 -0.0101 -0.3830
66982W        W67846   3.142  17.277  10.689  0.2153  0.0102  0.2533
66983W        W67847  23.874  17.803  17.306 -0.0255  0.2125  0.0903
66984W        W67848   1.827  24.098  25.024 -0.0836 -0.1642 -0.6152
66985W        W67849  26.525  13.691  21.960  0.2305  0.0516  0.3979
66986W        W67850  20.721  10.015  14.947 -0.0060 -0.2404  0.0732
66987W        W67851  22.145  13.465  28.437  0.4398 -0.0325 -0.2981
66988W        W67852  25.684  19.097  26.812  0.1151 -0.0882  0.0196
66989W        W67853  12.729  16.421   3.509 -0.3024  0.0635 -0.1886
66990W        W67854   4.204   9.444  17.118  0.2614  0.1728 -0.0530
66991W        W67855   6.194  15.535  14.773  0.2197 -0.0271 -0.1141
66992W        W67856  12.032   7.100  18.566 -0.2359  0.2901 -0.1636
66993W        W67857  24.290   9.654  12.256  0.0286 -0.1917 -0.0441
66994W        W67858  17.540  15.385  17.791  0.3921  0.0033  0.0239
66995W        W67859  21.306  26.598  11.263  0.1951 -0.0757 -0.1837
66996W        W67860   5.048  17.663  22.439  0.0982  0.1001  0.1170
66997W        W67861  10.544   5.657   8.064 -0.0296  0.0002  0.2180
66998W        W67862   3.394  17.479   3.942  0.1369  0.1543 -0.1378
66999W        W67863  20.059  17.122   9.857 -0.3901  0.2419  0.0057
67000W        W67864  18.229   0.456   9.072 -0.0665  0.1615  0.2982
67001W        W67865  13.044  28.764  15.430  0.1973  0.1454  0.0457
67002W        W67866   3.579  12.379   2.309  0.5217 -0.0758  0.1485
67003W        W67867   8.898   2.847   4.799  0.5227  0.0176 -0.1999
67004W        W67868  10.698  13.137   6.481 -0.0110 -0.2523 -0.1553
67005W        W67869  22.653   1.972   1.734 -0.4561  0.0099 -0.1551
67006W        W67870   8.819   7.754   0.109  0.1509 -0.0262  0.0964
67007W        W67871  16.799  20.585   6.863  0.1519 -0.2251 -0.4288
67008W        W67872  27.028  10.923  29.095  0.1017 -0.0589  0.0231
67009W        W67873  15.547  22.037  26.913  0.3030 -0.4458  0.2344
67010W        W67874  24.171   1.773  20.077 -0.1846  0.1861  0.0391
67011W        W67875  11.036  11.054  13.364 -0.2897  0.2687  0.0006
67012W        W67876  23.535   5.716  15.989 -0.2782 -0.0364  0.1241
67013W        W67877  21.853  21.317   7.597  0.0039 -0.2470 -0.1426
67014W        W67878  25.424  10.360   6.590  0.1226 -0.3978 -0.1822
67015W        W67879  18.712  18.827  20.467  0.0580 -0.1117  0.1976
67016W        W67880  11.984  20.109  28.920 -0.0590 -0.0121  0.0163
67017W        W67881  22.782   5.633  27.467 -0.2462  0.1560  0.0853
67018W        W67882  21.709   0.645  27.807 -0.1396 -0.0720 -0.1208
67019W        W67883   1.163  10.906  25.725  0.1137 -0.1905  0.2592
67020W        W67884  14.806  16.623  17.800 -0.0326  0.1727 -0.0839
67021W        W67885  25.664   1.593  23.121 -0.0188 -0.1224  0.0040
67022W        W67886  28.728   6.164  27.562 -0.2113  0.3054 -0.2122
67023W        W67887   9.408   1.809  21.167  0.1482 -0.3689 -0.2743
67024W        W67888  18.671   7.776  12.615  0.0550 -0.0122 -0.5588
67025W        W67889   6.592  12.299   5.926 -0.0254  0.0836 -0.1224
67026W        W67890  10.874  27.426   2.355  0.2130  0.2400  0.0412
67027W        W67891   6.683   2.686  12.881 -0.0884  0.1778  0.0712
67028W        W67892   8.387  25.553  13.737 -0.2098 -0.2924 -0.0085
67029W        W67893  15.335  25.383   2.993 -0.2241 -0.0526 -0.1481
67030W        W67894  18.241  26.529   8.465  0.0483  0.0089  0.1512
67031W        W67895   7.868  28.852  14.307 -0.1431 -0.0010 -0.3215
67032W        W67896  16.117   2.293  16.863 -0.2778 -0.1713  0.1917
67033W        W67897  16.602   8.080   7.211 -0.0333  0.2723  0.0460
67034W        W67898   0.769  23.924   3.531 -0.0808 -0.1552  0.1385
67035W        W67899  27.800  23.585  22.704 -0.0877 -0.0855 -0.0813
67036W        W67900   3.042  16.719  10.006 -0.0831  0.1140 -0.0244
67037W        W67901   0.685  23.495   6.018 -0.2150 -0.0144 -0.1607
67038W        W67902  17.705  22.973   2.215  0.0103  0.1356  0.2106
67039W        W67903  17.944  19.631  17.117  0.0634 -0.0685 -0.1723
67040W        W67904  14.520  22.617   6.134  0.1121 -0.2525  0.0968
67041W        W67905  14.134  23.209  18.516  0.0165  0.1430  0.0866
67042W        W67906  17.388  10.961  28.396 -0.0666 -0.1723 -0.0594
67043W        W67907   6.692  18.622  25.414  0.0642  0.0002  0.0145
67044W        W67908   4.065   8.087  12.801  0.0784 -0.5478 -0.2347
67045W        W67909  17.224  13.418   2.663 -0.0817  0.1815  0.1627
67046W        W67910  15.629   6.559  26.302 -0.1760 -0.2742  0.2321
67047W        W67911  21.197   2.452  24.393  0.1614 -0.2362 -0.0144
67048W        W67912  25.806  11.108   8.156  0.0244 -0.0589  0.3494
67049W        W67913  22.154  24.820  26.682 -0.0794 -0.4102  0.0178
67050W        W67914  25.709   0.537   9.627  0.3461  0.2258 -0.1348
67051W        W67915   9.565  18.814   6.147 -0.3949 -0.0550 -0.0771
67052W        W67916   3.298  17.789  26.070 -0.2269  0.0016 -0.0895
67053W        W67917  18.429  24.383  21.344 -0.1849 -0.0828  0.2088
67054W        W67918  25.664  16.542   4.710  0.2719  0.0334 -0.1664
67055W        W67919  13.519  22.555  16.817 -0.2797  0.0332  0.0178
67056W        W67920  25.706   9.877  12.732  0.1485  0.0111  0.1682
67057W        W67921   5.337  18.922  28.012 -0.3487 -0.1142 -0.2693
67058W        W67922  20.734   7.934  26.113  0.2501 -0.2279  0.3497
67059W        W67923  23.964  22.887  16.277 -0.2280 -0.0819  0.1906
67060W        W67924   3.728  23.670   7.806 -0.1078 -0.1233  0.1847
67061W        W67925  17.512   6.275   2.151 -0.0208  0.0836 -0.2041
67062W        W67926   2.825  15.669  10.909  0.3730 -0.0323  0.0607
67063W        W67927  27.782  22.521  14.358  0.0343 -0.0445  0.0350
67064W        W67928  15.583  18.757   3.798  0.0685  0.0419  0.2387
67065W        W67929   3.691   5.481   6.596 -0.0307  0.2147  0.3330
67066W        W67930  21.604  26.016  26.173 -0.1371  0.2429 -0.1684
67067W        W67931  18.961  17.847  28.301 -0.0569 -0.1860 -0.3354
67068W        W67932  18.130  17.034   6.345 -0.0080 -0.1736  0.2893
67069W        W67933  22.008  26.741  24.111  0.1130 -0.1111  0.0709
67070W        W67934   8.003   5.670  21.928 -0.1796 -0.0949  0.0710
67071W        W67935  19.329  14.579  12.845 -0.1107  0.2800  0.1076
67072W        W67936  21.207   8.545  27.791 -0.2629 -0.0625 -0.1742
67073W        W67937   6.343  22.414  14.213 -0.1547  0.0599 -0.0293
67074W        W67938  27.478  20.963   2.300 -0.0954 -0.1327 -0.0112
67075W        W67939  11.554  14.830   3.646 -0.3097  0.2682  0.0276
67076W        W67940  17.794   7.449  11.880 -0.1605  0.0653 -0.0167
67077W        W67941  16.733  16.609  16.520  0.0498  0.0405 -0.0514
67078W        W67942  22.495  25.639  24.743  0.0731 -0.0821  0.0379
67079W        W67943  18.619  14.806   8.349 -0.3641 -0.2184  0.2176
67080W        W67944  11.525   4.832  16.943 -0.0703  0.0548  0.3596
67081W        W67945  17.210  29.029   2.428  0.1994 -0.1458 -0.2636
67082W        W67946  15.141  22.568  23.256 -0.0054 -0.0672  0.1392
67083W        W67947   4.932   3.980  10.310 -0.0763 -0.0494 -0.2485
67084W        W67948   9.203  16.967  11.333  0.0129  0.1692  0.0604
67085W        W67949  27.328  29.123   4.012 -0.1958  0.0908  0.2578
67086W        W67950   6.565   5.598   4.190  0.0173  0.1226  0.1323
67087W        W67951  17.363  18.310   7.697  0.2081 -0.2344  0.1553
67088W        W67952   2.645  13.220   6.659 -0.0085 -0.0422  0.0255
67089W        W67953   0.401  19.450   1.785 -0.2281 -0.2166  0.1663
67090W        W67954  19.129   8.650   3.096  0.4278 -0.1945 -0.1735
67091W        W67955  22.246  17.219  25.305  0.0417 -0.2349  0.0700
67092W        W67956  12.494   9.160  23.600 -0.1037 -0.1346  0.1849
67093W        W67957  25.694  16.264  11.020 -0.1131 -0.0279 -0.0455
67094W        W67958  19.524  18.701  29.100  0.1067  0.2672 -0.0220
67095W        W67959   1.403  21.530   8.879 -0.1418  0.1504  0.1539
67096W        W67960  27.385  14.022  13.069 -0.0392  0.2318  0.2061
67097W        W67961   6.934  12.702  14.988 -0.2503  0.0367  0.4807
67098W        W67962  22.360  15.396  12.419 -0.2527  0.2117  0.1154
67099W        W67963  20.963  17.982  23.472 -0.1234  0.1551 -0.0355
67100W        W67964   4.241  27.581   4.272  0.0348 -0.4521  0.1590
67101W        W67965  16.726   6.123  27.394 -0.3896 -0.4406 -0.0899
67102W        W67966   4.811   6.275   5.196  0.4474 -0.0178 -0.0627
67103W        W67967  26.784  18.009  23.499  0.0589 -0.2611 -0.0608
67104W        W67968   2.919  25.048   0.001  0.3721 -0.3566 -0.2810
67105W        W67969  28.732  24.462  26.660  0.1839  0.0461  0.2902
67106W        W67970   8.825   2.611  11.782 -0.3790  0.0586 -0.3782
67107W        W67971  13.679   3.075   2.768 -0.1792 -0.0361  0.1975
67108W        W67972  20.211  10.868  12.905 -0.2299  0.0843  0.0160
67109W        W67973   5.136  25.145  15.575  0.1830 -0.0816  0.0377
67110W        W67974  20.037   7.364   5.944 -0.0018 -0.1795  0.0692
67111W        W67975   8.170   1.553  25.575 -0.2299 -0.1522  0.0709
67112W        W67976  28.106  11.920  11.528  0.0189 -0.0027 -0.0842
67113W        W67977  25.923  13.093   9.143 -0.0572  0.0582 -0.3567
67114W        W67978   4.038   5.480  15.700 -0.0709  0.2027  0.0106
67115W        W67979  20.578  27.407  11.437  0.0806  0.0467 -0.1399
67116W        W67980  16.594  23.334   3.876  0.2298  0.2885  0.0955
67117W        W67981  12.937   8.237  22.903  0.1757  0.0566  0.0648
67118W        W67982  11.609   4.308  18.513 -0.3878  0.3385  0.1730
67119W        W67983  11.778  18.915  26.202  0.2753 -0.0145  0.1940
67120W        W67984  18.554  17.638   9.266 -0.1110  0.2024 -0.1355
67121W        W67985  13.121   0.329   6.398 -0.0520 -0.2296  0.0566
67122W        W67986  24.413   3.333  17.305  0.2787 -0.2936 -0.1117
67123W        W67987   0.852  12.746  25.439  0.2841 -0.0150  0.0785
67124W        W67988  22.589   8.511  16.982  0.0668  0.0744  0.2007
67125W        W67989  11.138  21.399  18.852  0.0414 -0.1964  0.0282
67126W        W67990  23.454  28.501   6.141 -0.1174  0.1119 -0.0027
67127W        W67991  21.256   6.157  16.008  0.0499 -0.6165 -0.3039
67128W        W67992  13.156  22.548   5.301  0.1845  0.1083 -0.3172
67129W        W67993  24.824  14.834  28.791 -0.1086 -0.3046 -0.2114
67130W        W67994  11.655   7.864   1.400  0.2570  0.1776  0.1858
67131W        W67995  17.989  15.084  10.856 -0.0638 -0.2874 -0.1605
67132W        W67996  14.574   8.704  21.673  0.1999 -0.4598  0.2693
67133W        W67997   2.129  25.560  25.340  0.1497  0.1417  0.1564
67134W        W67998  15.284   6.292  26.529  0.2496  0.1070 -0.3853
67135W        W67999  18.645  15.184  27.839 -0.0470 -0.1297 -0.2150
67136W        W68000  18.344   6.680  12.092  0.1026  0.1070 -0.0220
67137W        W68001   0.367   7.299  23.758 -0.2379 -0.1036  0.2085
67138W        W68002  24.306  11.380   2.291 -0.1291 -0.1699 -0.2080
67139W        W68003  16.126   6.196  11.880 -0.0160 -0.0506  0.2315
67140W        W68004  19.285  18.449  12.051 -0.2825 -0.2237  0.1654
67141W        W68005  13.143   2.885   9.376 -0.0110 -0.0586 -0.1237
67142W        W68006  13.793  17.809   7.101 -0.0708 -0.0118 -0.1200
67143W        W68007  20.170  20.324  19.696  0.0324 -0.1806  0.2177
67144W        W68008  12.504  25.152   9.443 -0.1897 -0.1225 -0.1273
67145W        W68009  14.788   6.376  23.159  0.1929 -0.1034 -0.0397
67146W        W68010  13.334  18.071   1.815  0.0085  0.1170  0.0167
67147W        W68011  27.548   4.667  22.926  0.1848  0.1344  0.1063
67148W        W68012  11.833   6.227  15.567  0.1304  0.1692 -0.0826
67149W        W68013  23.178  27.176   5.442 -0.1886 -0.0431 -0.1800
67150W        W68014  21.257  24.425  11.342 -0.0711 -0.1757  0.2604
67151W        W68015   3.980  14.596  12.167  0.2121  0.1847 -0.2955
67152W        W68016  27.132   8.947   2.905 -0.0023 -0.1967 -0.0498
67153W        W68017  15.589  14.898   3.537  0.2013 -0.0115 -0.0930
67154W        W68018   1.185   2.018  22.327 -0.2361 -0.1320  0.0501
67155W        W68019  26.605  15.193  12.250  0.1185  0.4958 -0.0048
67156W        W68020   9.019  14.885   3.288 -0.1857 -0.2259  0.1146
67157W        W68021  12.721  15.595  16.630 -0.1541  0.2542 -0.1181
67158W        W68022  16.556   3.517   4.313 -0.0353  0.1842  0.1282
67159W        W68023   9.987  20.596  27.857  0.0183 -0.1078  0.1801
67160W        W68024   2.478  10.591  16.646 -0.0409  0.2002 -0.0936
67161W        W68025   0.964   1.476  18.635  0.0374 -0.1103  0.0771
67162W        W68026   3.212  13.537  12.495 -0.0256 -0.0857 -0.0819
67163W        W68027  13.301  18.103  11.973 -0.2849 -0.0682  0.2937
67164W        W68028  23.801  15.382   5.978 -0.0028  0.2033 -0.3854
67165W        W68029  21.982   6.006   2.568  0.0748  0.1363 -0.1404
67166W        W68030  12.471   5.293  28.448  0.2009  0.1491  0.1082
67167W        W68031  13.045  26.347  25.033 -0.0672  0.0604 -0.0535
67168W        W68032  14.283  24.113   5.293  0.2362  0.1083  0.2249
67169W        W68033   7.555   0.645   3.678  0.0149  0.0045 -0.1945
67170W        W68034   2.048   2.763   9.562  0.1011  0.0985  0.1951
67171W        W68035  23.862   7.240   8.800  0.0406  0.1220  0.2035
67172W        W68036  10.261  18.231  17.694  0.1091 -0.1951  0.2761
67173W        W68037  15.613   5.863  29.011  0.1554 -0.0017 -0.3738
67174W        W68038   7.411  25.833   2.528 -0.2004 -0.0692  0.1187
67175W        W68039  19.705  11.724  12.697  0.0069 -0.2141  0.0460
67176W        W68040   1.605  20.752  17.808 -0.3356 -0.1310 -0.5417
67177W        W68041   7.924   2.498  28.709  0.1011  0.3031 -0.2801
67178W        W68042  15.081  21.963  11.465 -0.0802 -0.0766  0.1728
67179W        W68043  24.087  21.064  27.028  0.0352 -0.3159  0.0479
67180W        W68044  19.063   3.741   3.477 -0.0640  0.0649  0.0333
67181W        W68045   8.964  16.515  19.166 -0.0439  0.4602 -0.3132
67182W        W68046  23.580  25.096   6.996 -0.1618  0.1610 -0.1520
67183W        W68047  10.481  16.954   1.217  0.0627 -0.1001 -0.0420
67184W        W68048  19.806   0.916   9.220  0.0321  0.0626 -0.0624
67185W        W68049   0.519   2.604   9.077  0.0572  0.2296  0.1497
67186W        W68050  10.802  23.244   7.664 -0.0191  0.1893  0.0648
67187W        W68051   9.095  13.406  15.252  0.0616  0.2263  0.1206
67188W        W68052  23.711  22.351   5.303 -0.1350  0.3361  0.1838
67189W        W68053   9.689  20.755  12.425  0.5407 -0.3050  0.0517
67190W        W68054  23.728  10.729  12.847  0.1552  0.1556  0.1711
67191W        W68055   8.484  23.887  20.564  0.2752  0.2310  0.1544
67192W        W68056  14.190  19.087  10.371 -0.3024  0.0173 -0.0932
67193W        W68057   3.182  19.629   0.902 -0.2461 -0.0181  0.3899
67194W        W68058  10.429   2.624  11.667  0.1886  0.0388 -0.1422
67195W        W68059  21.292  20.083  17.113  0.0179  0.0088  0.1651
67196W        W68060   0.803  10.673   8.057  0.5737 -0.1130  0.0000
67197W        W68061  15.589  26.362  12.189  0.2369 -0.1293 -0.1497
67198W        W68062  21.984   3.243  27.428 -0.1422 -0.0943 -0.0584
67199W        W68063  20.391  10.387  11.080  0.2144  0.0766  0.2185
67200W        W68064  22.486  20.231  20.314  0.0782 -0.1034 -0.4496
67201W        W68065  22.403  11.252  16.763 -0.0538  0.0829  0.2124
67202W        W68066   7.152  20.082   5.943 -0.0996  0.2182 -0.0884
67203W        W68067  11.093   4.436   1.517 -0.3339 -0.1408 -0.0473
67204W        W68068  14.283  17.954   5.864 -0.1526  0.2313  0.2186
67205W        W68069  28.879   2.864   6.249  0.0623  0.1630  0.2450
67206W        W68070  12.527   5.837  27.118  0.1947  0.0260  0.0573
67207W        W68071  17.112  18.921  20.039  0.0482  0.1451  0.0193
67208W        W68072   6.541  20.177   2.807  0.2629 -0.2462  0.0929
67209W        W68073   4.343  24.848   8.215  0.0895 -0.0979  0.0664
67210W        W68074   6.545  22.004  24.200  0.2104 -0.3242  0.1601
67211W        W68075  21.777  12.446   9.030  0.0082  0.3191  0.1126
67212W        W68076   2.447   5.246  25.150 -0.0758  0.4266 -0.0604
67213W        W68077  11.419  18.153   1.675  0.1221  0.5383  0.0023
67214W        W68078  14.012  10.342  15.444 -0.3221 -0.3234  0.4224
67215W        W68079  13.596   7.482   0.358 -0.1380  0.0738  0.2342
67216W        W68080  26.622  21.217   1.285 -0.1860 -0.3732  0.1477
67217W        W68081   8.772  15.374  23.577 -0.1000  0.1092  0.0792
67218W        W68082   3.234  13.751  27.934 -0.0834  0.1232  0.3321
67219W        W68083   2.922   5.251  14.626  0.1571  0.0078  0.0252
67220W        W68084  21.964   0.496   1.441  0.0965 -0.0203  0.2974
67221W        W68085  25.718  25.876  10.200  0.2204 -0.0233 -0.0575
67222W        W68086  28.907  14.684  25.015 -0.1197  0.3334 -0.1347
67223W        W68087  22.773  25.423   6.691 -0.1792 -0.0957  0.1349
67224W        W68088   0.516  27.213  14.858 -0.1163 -0.1646 -0.0190
67225W        W68089  24.445   2.007  26.917  0.0299 -0.0961 -0.1428
67226W        W68090   9.838  28.857   7.313 -0.2850 -0.2700  0.0002
67227W        W68091  14.568  25.365   0.144 -0.2250  0.1727 -0.1002
67228W        W68092  17.196  11.217  14.545 -0.0717 -0.4311  0.0246
67229W        W68093  16.651  18.216  22.075  0.1242  0.1643 -0.1341
67230W        W68094  24.232   4.156   8.964  0.1153  0.0777  0.0522
67231W        W68095  22.897  14.548  19.842  0.2778 -0.1284 -0.2409
67232W        W68096   1.627  16.530   4.968 -0.2784 -0.1083 -0.1230
67233W        W68097  12.932  29.006  15.832  0.1817  0.0581  0.1805
67234W        W68098  26.092  28.568  25.560 -0.0374  0.3448  0.3449
67235W        W68099  24.451  14.729  24.197 -0.0834  0.1486  0.0004
67236W        W68100  17.811   6.287   8.495 -0.2107 -0.1379 -0.1094
67237W        W68101  27.983   6.931   7.399  0.2211  0.1747  0.2402
67238W        W68102  16.796   1.865   1.351  0.2391  0.1605  0.0069
67239W        W68103   6.219  20.944  11.851  0.0845  0.3204  0.0623
67240W        W68104  29.135   8.145  28.485 -0.1617  0.1137 -0.0516
67241W        W68105  27.310  15.078   3.452  0.0677  0.2117  0.2062
67242W        W68106  26.049  10.596  15.171  0.0131 -0.0610 -0.1837
67243W        W68107  18.759  15.843   1.683  0.1337  0.1975 -0.1282
67244W        W68108   6.668  20.936   5.444 -0.0311  0.1491  0.1990
67245W        W68109  22.939  13.297  10.900  0.2304 -0.0964  0.0958
67246W        W68110  27.279   7.743  10.533 -0.1267 -0.1430 -0.1595
67247W        W68111  13.800  26.698   3.051 -0.0353  0.3305 -0.0937
67248W        W68112  17.167   0.763  11.698 -0.0462 -0.1275  0.0850
67249W        W68113   2.822  10.368  15.826 -0.2912  0.1202 -0.1531
67250W        W68114  18.317   3.800   3.757 -0.2277 -0.2160  0.1758
67251W        W68115  20.623  17.788  15.033 -0.3241  0.0064  0.1005
67252W        W68116  17.705  16.248  17.499  0.1034 -0.0167 -0.0431
67253W        W68117  15.449  20.463  10.775  0.2338 -0.3010  0.1180
67254W        W68118   9.160  28.803  27.570 -0.0560  0.2012 -0.1663
67255W        W68119  16.194  10.499   9.888  0.0109  0.1460 -0.0508
67256W        W68120   6.628  15.153   4.399  0.1424  0.1487 -0.1433
67257W        W68121  15.094   8.922  11.164  0.1862 -0.0105 -0.0290
67258W        W68122  22.339   6.196  29.018 -0.0865  0.3478  0.2030
67259W        W68123   3.733   9.591   7.226 -0.1520 -0.1965 -0.2211
67260W        W68124  19.426   1.124   9.555 -0.0162 -0.0095  0.4326
67261W        W68125   1.801   2.604  15.591  0.2111  0.1718 -0.2788
67262W        W68126  18.916   0.780   8.806  0.1465  0.0098 -0.2705
67263W        W68127  14.351  25.615  13.178 -0.0629  0.2787  0.2897
67264W        W68128   8.110   9.259  15.346 -0.0282 -0.3447 -0.3743
67265W        W68129   2.786  21.409   2.512  0.0709  0.1152  0.3327
67266W        W68130   0.636  20.736   8.582  0.1472  0.0030 -0.1760
67267W        W68131  25.063   3.195  19.596 -0.0647  0.1309  0.1706
67268W        W68132   4.820   8.933  25.669 -0.2460  0.2303  0.0279
67269W        W68133  11.633   7.518   2.562  0.5323  0.1623  0.4646
67270W        W68134  27.439  16.369  27.003 -0.2015 -0.0694  0.1932
67271W        W68135   3.326  21.747  17.705 -0.2706  0.1854 -0.0330
67272W        W68136  19.965   6.744  11.141 -0.4590  0.1323  0.4376
67273W        W68137  22.637  17.352  20.400  0.0009  0.1430  0.2544
67274W        W68138  16.916  17.574   1.811  0.0345  0.1120 -0.0355
67275W        W68139   3.559  25.164  11.155  0.1483 -0.0159  0.0308
67276W        W68140   1.077  14.590   1.277 -0.1106  0.0336  0.1075
67277W        W68141  18.268  28.236  27.761 -0.1142  0.1637  0.0956
67278W        W68142   3.842  22.300   4.212 -0.1347  0.2583  0.0239
67279W        W68143  13.306  23.020  25.911  0.2458  0.0020 -0.3864
67280W        W68144  14.741  14.126   0.586 -0.0210 -0.2715  0.0705
67281W        W68145  21.241  28.707  16.737 -0.1347  0.1171 -0.2174
67282W        W68146   9.091   8.789  13.019  0.3001 -0.0461  0.1832
67283W        W68147   7.706  13.505   3.731 -0.1048  0.2388  0.0651
67284W        W68148  28.690  16.364   2.056  0.1596 -0.0157  0.0937
67285W        W68149  14.974  19.445   7.452  0.1870  0.0214  0.1008
67286W        W68150   9.096  11.671   0.875 -0.1394  0.0430 -0.0050
67287W        W68151  20.437  28.769  11.841  0.1541 -0.1301 -0.1246
67288W        W68152  16.110  17.968  22.015 -0.0441  0.0276 -0.1866
67289W        W68153  17.539  13.318  19.055  0.0759  0.0595 -0.3413
67290W        W68154  15.431  14.117   3.990  0.3150  0.1708 -0.1340
67291W        W68155  18.034  23.762  23.137 -0.3553 -0.2094 -0.0849
67292W        W68156   0.179  10.023  27.606 -0.3038 -0.0740 -0.0112
67293W        W68157  27.576  21.233  10.801  0.2299  0.1329  0.1523
67294W        W68158   1.411  14.778   5.756 -0.0848 -0.1017 -0.0297
67295W        W68159  25.097  11.184  13.508  0.0881  0.1196 -0.0193
67296W        W68160   1.605  19.932  12.982 -0.2959  0.0804 -0.3921
67297W        W68161   0.245   6.378   8.977  0.3605  0.2289  0.0510
67298W        W68162  22.944  19.789  10.622  0.2131 -0.0747  0.1101
67299W        W68163  20.188  18.410  14.774 -0.1921  0.1304 -0.3672
67300W        W68164  17.954  22.133  13.673  0.0493  0.3508  0.0727
67301W        W68165   7.719  12.064  15.878  0.0274 -0.2336 -0.1400
67302W        W68166  22.328   1.748  18.955  0.2005 -0.1700  0.0121
67303W        W68167   6.930  20.631  13.457 -0.0573 -0.1730  0.0836
67304W        W68168  11.912   6.620  12.120  0.3486 -0.1310  0.2597
67305W        W68169  26.434   1.869   6.888  0.0107 -0.3488 -0.3270
67306W        W68170  27.276  28.993   4.885 -0.4111 -0.1553 -0.2238
67307W        W68171  20.697  26.492  10.042 -0.2024 -0.0415 -0.1047
67308W        W68172   8.430  17.849  22.232 -0.3580  0.1005 -0.0901
67309W        W68173  21.518  26.129   8.727 -0.0420 -0.0580 -0.3275
67310W        W68174  20.555  20.663  10.635 -0.2443  0.1045  0.2575
67311W        W68175  18.709  21.851  14.742  0.0099  0.0186  0.1100
67312W        W68176   2.998  24.370  26.540  0.1613 -0.0963 -0.2932
67313W        W68177  20.596   4.991   7.414  0.2185 -0.1077  0.2218
67314W        W68178  16.797   8.326  14.215  0.1310 -0.0915  0.0563
67315W        W68179  28.247  29.080  12.377 -0.1613  0.1479  0.0147
67316W        W68180   2.334   2.912   7.349  0.0777  0.0356  0.1802
67317W        W68181   9.794  22.679  15.635  0.0854 -0.1414  0.1451
67318W        W68182  22.905  13.501  13.775 -0.2985 -0.0877  0.1208
67319W        W68183  15.437   5.241  26.692  0.1866 -0.2547  0.2602
67320W        W68184   2.994   5.188   2.201 -0.0201  0.1607  0.0726
67321W        W68185  23.143  16.477  12.572  0.0484  0.0676 -0.3081
67322W        W68186   2.370  27.136   3.401 -0.0088 -0.2774 -0.0979
67323W        W68187  22.612   3.691  21.567 -0.1361 -0.0686 -0.1054
67324W        W68188  19.960   2.638  24.364 -0.1087  0.3344 -0.0556
67325W        W68189  11.852   3.190   7.381  0.0008  0.0761 -0.1064
67326W        W68190  21.882  17.664  16.267  0.5609 -0.0225  0.1192
67327W        W68191  28.827   0.923  11.383  0.1788 -0.0109 -0.2733
67328W        W68192  12.138  19.563  17.336 -0.0892 -0.0439 -0.1905
67329W        W68193  23.064  21.938  14.914 -0.2985 -0.0043 -0.2490
67330W        W68194  21.854   4.144  26.801 -0.1641  0.0011  0.2177
67331W        W68195  25.299   5.679   7.436  0.0425  0.1179 -0.2177
67332W        W68196  18.629   1.244   0.237 -0.1516 -0.1178 -0.2275
67333W        W68197  22.613  15.364  21.060  0.2945 -0.1228 -0.0084
67334W        W68198   3.921  27.089  17.612 -0.0646  0.1147 -0.1821
67335W        W68199  10.851  19.729  17.561 -0.0159  0.0044 -0.2439
67336W        W68200  25.208  25.316  17.436 -0.1364  0.1163  0.3009
67337W        W68201   6.117  13.724  24.895 -0.0418 -0.3278  0.1662
67338W        W68202  18.885  17.779   4.102 -0.1691  0.0000  0.0564
67339W        W68203  26.149  26.656  14.478 -0.3266  0.1033  0.1064
67340W        W68204  23.570  14.201   6.737  0.0528  0.1342  0.0977
67341W        W68205  25.646   8.620  28.636 -0.2989 -0.1898 -0.1224
67342W        W68206  17.090  21.989  20.923 -0.0329  0.2085 -0.1461
67343W        W68207  11.804   9.740   3.791  0.1594 -0.1944 -0.1561
67344W        W68208  26.485   8.529  10.359 -0.1225 -0.0066  0.2116
67345W        W68209  10.876  28.383  26.321 -0.0733  0.0578 -0.5128
67346W        W68210  19.654  15.741   9.899  0.0506  0.0214 -0.3029
67347W        W68211  11.469  26.943   4.129  0.0773  0.0584  0.0548
67348W        W68212  26.375  19.232  11.865  0.4027  0.0514  0.1244
67349W        W68213  23.161  17.401   5.540 -0.0100  0.1106 -0.1453
67350W        W68214  24.654  15.641  17.633  0.1699 -0.2246 -0.0861
67351W        W68215  22.894  14.979  28.547 -0.1385 -0.0279 -0.1874
67352W        W68216   8.077  27.313   6.256  0.1146 -0.2883  0.0508
67353W        W68217   1.980  17.017   1.414  0.1057  0.0007  0.3449
67354W        W68218  18.530   4.365   5.838 -0.1546 -0.0272 -0.0321
67355W        W68219  16.275   8.638   8.133  0.1675  0.0649  0.0779
67356W        W68220  15.103  11.719   8.299  0.0271  0.0391 -0.1772
67357W        W68221  27.611   8.412   5.558  0.0646 -0.0139 -0.2273
67358W        W68222  18.920  13.139  26.557 -0.1095 -0.2443  0.0434
67359W        W68223   3.169  10.056   5.238  0.2024  0.1943  0.0616
67360W        W68224  17.634  15.904  24.587  0.1126 -0.1984  0.0282
67361W        W68225   6.307  12.964  21.708 -0.2010  0.0071 -0.0148
67362W        W68226  26.108  13.275  23.785  0.0249  0.1467 -0.0716
67363W        W68227  15.112  20.171  11.299  0.0980 -0.0611 -0.2846
67364W        W68228   5.391  25.161   6.051 -0.2595 -0.0687 -0.0258
67365W        W68229  18.873  25.983  20.164  0.2443  0.2275  0.1735
67366W        W68230  27.073   0.014  23.335 -0.1297  0.0096  0.1469
67367W        W68231   7.685  17.130   6.555  0.0095 -0.1422  0.0569
67368W        W68232   0.572  21.450  14.700 -0.0108  0.4375 -0.2737
67369W        W68233   9.503  21.824   8.260  0.0416  0.1999 -0.2693
67370W        W68234  18.695  21.076  16.075 -0.1462 -0.1717  0.0387
67371W        W68235  21.749  11.278   8.031 -0.1672  0.3121 -0.0146
67372W        W68236   2.320  21.408   2.229 -0.0410  0.1455  0.3335
67373W        W68237  26.340  18.501  18.392 -0.2369 -0.2507 -0.0183
67374W        W68238   7.802  24.019  15.247 -0.1767 -0.1640  0.2034
67375W        W68239   8.979  13.811  27.969  0.1827  0.0596 -0.0194
67376W        W68240   1.345  24.038   9.601 -0.3411 -0.1684 -0.3923
67377W        W68241  23.573  11.866   9.183  0.4018  0.0025  0.5024
67378W        W68242   3.067  14.469  12.265 -0.0737  0.0923 -0.0394
67379W        W68243  27.373  16.937  17.838  0.1767 -0.4119  0.0710
67380W        W68244   6.076  20.457  13.676 -0.2267 -0.0250  0.1466
67381W        W68245  26.864  14.349   1.847  0.1917  0.1744  0.1011
67382W        W68246  26.872  18.662   7.704  0.1699 -0.1777 -0.0022
67383W        W68247  14.489  20.055  26.497 -0.0092 -0.0840  0.1567
67384W        W68248  27.253  12.964  21.164 -0.1833 -0.1352  0.0202
67385W        W68249  18.400  17.508   7.953 -0.0613 -0.1045  0.1601
67386W        W68250  26.566   7.070   0.158 -0.2229  0.1876 -0.1881
67387W        W68251  25.630  14.629   8.881 -0.2330  0.2293 -0.1114
67388W        W68252   1.255   2.226  17.504  0.0539  0.3406  0.0792
67389W        W68253  25.555   1.717  17.342 -0.0496  0.3521  0.4179
67390W        W68254  16.911  20.643  17.186  0.3119  0.0106 -0.1040
67391W        W68255  16.828   8.563  13.395  0.1039 -0.2935  0.0896
67392W        W68256  27.082   8.594   6.943  0.1157  0.1644  0.1066
67393W        W68257   9.554  21.878  25.919 -0.3009  0.0618 -0.0471
67394W        W68258   6.733  13.778  23.204  0.0091  0.2324  0.1576
67395W        W68259  24.339  21.204   7.884  0.2016 -0.0840  0.1015
67396W        W68260  26.523  21.244  27.058 -0.0185  0.0089 -0.0814
67397W        W68261  24.581  28.792   3.912  0.1466 -0.1229  0.1885
67398W        W68262  27.338  10.023  10.138  0.1481 -0.0991 -0.1698
67399W        W68263  16.462   8.431  22.575 -0.3766  0.1810  0.0823
67400W        W68264  26.079   5.200   8.603  0.0880  0.0613 -0.0697
67401W        W68265   5.582  14.675  26.692  0.0589 -0.2485  0.1171
67402W        W68266  17.478   7.077   6.836  0.4583 -0.1013  0.2255
67403W        W68267  21.452   0.725  15.187  0.2820 -0.0630  0.2103
67404W        W68268  17.353  17.340  23.437 -0.2727 -0.0793  0.0777
67405W        W68269  10.709   2.940  14.508  0.2296 -0.1243  0.1439
67406W        W68270  17.955  23.707   2.619 -0.0663  0.0319  0.2200
67407W        W68271  17.981  23.319  22.458 -0.0329  0.1027  0.3865
67408W        W68272  25.534  23.394  10.330 -0.0423  0.1512 -0.2849
67409W        W68273  27.626  20.149  10.891 -0.2175 -0.0911 -0.3016
67410W        W68274  22.643   1.215   0.390  0.0392 -0.0307  0.1109
67411W        W68275  25.864  25.734  16.144 -0.0370  0.5491  0.0295
67412W        W68276  13.937   4.694   5.879 -0.0687 -0.3497  0.3104
67413W        W68277  24.267  24.393  15.369 -0.0609 -0.0753 -0.3450
67414W        W68278  13.943   3.278   8.467 -0.2437  0.0668 -0.1873
67415W        W68279  18.209  17.303  25.746 -0.0324  0.1972  0.1752
67416W        W68280  22.248   0.384  22.957  0.0083 -0.0114  0.0482
67417W        W68281   3.749  10.253  26.665 -0.2407 -0.1795  0.0268
67418W        W68282  11.924  21.064  10.067 -0.1427 -0.0829  0.2631
67419W        W68283  18.854  12.614   4.419  0.1797 -0.0838  0.1041
67420W        W68284   4.180  14.956   7.293 -0.0884  0.2492 -0.2093
67421W        W68285   1.670   6.789  15.785 -0.0944  0.0238 -0.3929
67422W        W68286  22.219   2.078  28.721  0.1180  0.0568 -0.0111
67423W        W68287  23.989  16.959   4.815 -0.1904 -0.0848 -0.0571
67424W        W68288  27.642   5.428  12.974  0.3148 -0.1057  0.0233
67425W        W68289  27.098  14.955  11.415 -0.1346 -0.0763  0.0583
67426W        W68290  23.629  26.071  16.524  0.1953 -0.0894  0.1025
67427W        W68291  24.777  18.653   9.868  0.0723  0.0091 -0.1968
67428W        W68292  11.992  15.938  16.527 -0.2965 -0.0673 -0.2473
67429W        W68293  22.620  24.572  14.005  0.0035  0.0223  0.2990
67430W        W68294  16.731  22.721  12.621 -0.3258  0.2847 -0.1152
67431W        W68295  21.331   4.263   4.674 -0.0124 -0.4329 -0.3075
67432W        W68296  10.812  21.350   0.431  0.0816 -0.0803  0.2716
67433W        W68297  25.720  17.195   2.060  0.0991  0.0958  0.0016
67434W        W68298   1.298   1.034   6.479  0.0915  0.2003 -0.0657
67435W        W68299  17.135  12.426  16.391 -0.0206  0.1920 -0.1579
67436W        W68300  26.862  27.293  26.100 -0.0823 -0.0974  0.0721
67437W        W68301  20.832   3.488  28.946  0.2485 -0.1766  0.2192
67438W        W68302  14.649  18.381   1.386  0.2109  0.0069  0.1241
67439W        W68303  27.663   8.982   1.623 -0.1535  0.2997  0.1649
67440W        W68304  18.765  28.605  20.233 -0.2512  0.2054 -0.0039
67441W        W68305   2.991  24.819  25.922 -0.1977 -0.3494 -0.0671
67442W        W68306  11.574   8.049  12.856 -0.2089  0.0511  0.1150
67443W        W68307  17.158  18.311  27.512 -0.1419 -0.2548 -0.0785
67444W        W68308  25.553  18.686  26.533  0.0139 -0.0280 -0.2445
67445W        W68309  11.012  25.156  10.094 -0.2277  0.2158 -0.0514
67446W        W68310  20.842  20.512   6.648  0.1342 -0.0435  0.0338
67447W        W68311  26.886   6.388  12.359 -0.2834  0.0923  0.0842
67448W        W68312  11.402  21.407   4.035 -0.1655  0.1898 -0.0810
67449W        W68313  10.308  27.060   6.827 -0.0980 -0.2154  0.0201
67450W        W68314  15.073   6.750  20.114 -0.0904 -0.0067 -0.2213
67451W        W68315  27.626  20.822   9.333  0.0416 -0.3675 -0.0652
67452W        W68316  22.365  13.045  19.513  0.1090 -0.1690 -0.3903
67453W        W68317  22.249   5.888   9.956 -0.2378  0.2579  0.1222
67454W        W68318   5.903  22.656  13.292  0.2151 -0.1939  0.0823
67455W        W68319  19.836   4.337  16.359 -0.0057  0.1002  0.0692
67456W        W68320   0.068  26.806   5.644 -0.1460  0.3009  0.0861
67457W        W68321  28.570  15.811   4.312  0.2790  0.0319  0.2565
67458W        W68322  15.906  19.641  10.978  0.2064  0.0971  0.1938
67459W        W68323   0.506   4.966   2.996 -0.1337 -0.0077  0.4117
67460W        W68324   4.452  19.744   0.323  0.1636 -0.0165  0.0107
67461W        W68325   3.628   8.700  22.116  0.4017 -0.0718 -0.0589
67462W        W68326  15.415   8.574   0.411  0.1762  0.0049 -0.2048
67463W        W68327   6.676  15.753   0.391 -0.1896  0.2509  0.0861
67464W        W68328   3.190  26.140  24.505 -0.2854 -0.2656  0.0133
67465W        W68329  14.487  16.412  16.863 -0.1245 -0.1194 -0.1110
67466W        W68330  13.193   2.515   7.640  0.1343 -0.0476  0.1543
67467W        W68331  22.252  15.878   6.582  0.0349  0.3108  0.0074
67468W        W68332  23.282  21.690  23.766 -0.1821  0.0813 -0.0014
67469W        W68333  13.871   0.086  24.927  0.1446 -0.2539 -0.1825
67470W        W68334  21.991  23.194  10.565  0.1630 -0.3330 -0.0239
67471W        W68335   0.478  17.059  19.657 -0.0584  0.1083  0.0524
67472W        W68336   5.078   5.317   5.429  0.4204  0.2090 -0.0865
67473W        W68337   4.548  10.401   7.848  0.3323  0.4812 -0.0360
67474W        W68338  11.241  18.545   2.332 -0.0239  0.1147  0.0145
67475W        W68339  18.477  14.005   4.962  0.2800  0.0268 -0.0478
67476W        W68340  27.964  19.254  12.197  0.0759  0.0142  0.2077
67477W        W68341  16.362  27.201  18.813 -0.0438  0.0062 -0.1595
67478W        W68342   9.569  25.244   7.833  0.2409 -0.0121  0.3218
67479W        W68343  10.010  24.469   1.720  0.0881  0.0914  0.0997
67480W        W68344   7.359  15.602   8.487 -0.0083  0.2406 -0.0559
67481W        W68345  19.379  16.599  26.754  0.2115 -0.0875  0.0330
67482W        W68346  14.320   9.819  16.143 -0.2272  0.0331 -0.2467
67483W        W68347  18.169  28.032  10.140 -0.0437 -0.2702 -0.1956
67484W        W68348  22.706  10.842  16.102 -0.1877 -0.2195  0.1438
67485W        W68349  14.880  23.577  19.872  0.0861  0.2372 -0.2086
67486W        W68350   3.106  19.959   9.635  0.0223  0.3267 -0.1884
67487W        W68351  26.413   6.262  15.037  0.1086  0.2136  0.3339
67488W        W68352   2.613  19.689  14.018 -0.2604 -0.1330  0.1249
67489W        W68353  16.296  19.280  10.215  0.0413 -0.0449 -0.2277
67490W        W68354  21.152  25.786   6.521 -0.0789 -0.0700 -0.0463
67491W        W68355  12.025  16.997  11.880  0.1244  0.1051 -0.0323
67492W        W68356  18.327  19.556  15.505 -0.1487  0.0619  0.0817
67493W        W68357  13.284  19.680   9.130 -0.0772  0.1205  0.0398
67494W        W68358   3.401   3.440   5.005 -0.4967 -0.0111  0.2598
67495W        W68359  24.293   5.816  16.136  0.0683  0.3240 -0.0816
67496W        W68360  22.311   3.442  16.904 -0.0583  0.0287 -0.3720
67497W        W68361   4.012  11.849  28.605 -0.0495  0.0259  0.2613
67498W        W68362  15.703  21.744   7.447  0.1170  0.1662  0.0631
67499W        W68363   3.393  16.174  26.192 -0.1929 -0.2069  0.1126
67500W        W68364  26.259   4.381  10.402 -0.1094  0.2643 -0.0332
67501W        W68365  21.401  14.914  10.575  0.0319 -0.0958 -0.0432
67502W        W68366  20.461   2.270   1.846  0.1007  0.0030 -0.1180
67503W        W68367  15.279  19.289  28.858 -0.1633 -0.1929 -0.0402
67504W        W68368   5.966  11.788  10.194  0.1317 -0.2835 -0.0614
67505W        W68369  19.484  20.131  16.601  0.0091 -0.0999 -0.2435
67506W        W68370  24.449   2.136  12.378 -0.0310  0.1785 -0.0938
67507W        W68371  19.852  23.015  28.177 -0.2699 -0.4519  0.0958
67508W        W68372  15.104  12.710   9.318  0.1758  0.0229  0.0294
67509W        W68373   0.475  12.760  24.501  0.2499  0.1068 -0.2491
67510W        W68374   0.625  13.475   6.471 -0.1466 -0.0154  0.4247
67511W        W68375  22.498  17.997  23.039 -0.0700  0.2227  0.0349
67512W        W68376  15.080  13.708  13.466 -0.0583 -0.2527  0.0935
67513W        W68377  22.409  14.578   0.008 -0.0215  0.1086 -0.0399
67514W        W68378  19.206  18.783  10.843  0.1047  0.0250  0.0090
67515W        W68379  16.524  22.367  24.012 -0.1067 -0.2554  0.0706
67516W        W68380  20.619  20.305   9.150 -0.1708 -0.0690 -0.0092
67517W        W68381  27.011   6.824   4.953 -0.0679  0.0867 -0.2641
67518W        W68382  13.997   8.328  27.581  0.2364  0.0708  0.0821
67519W        W68383  12.344   6.991  28.269 -0.0736 -0.2608 -0.2743
67520W        W68384  23.382  19.385   0.401  0.0074  0.0667  0.3708
67521W        W68385  25.143  24.515  15.317  0.1625 -0.3178  0.0722
67522W        W68386  17.335  13.686  11.958 -0.2263 -0.0725 -0.1298
67523W        W68387   1.275  22.843   6.684 -0.0445  0.3157  0.0274
67524W        W68388   4.363  27.221   7.939 -0.4225  0.0727 -0.0734
67525W        W68389  24.039  11.239  20.785 -0.0617  0.0633  0.2402
67526W        W68390  18.289  20.094  26.225 -0.1105  0.0933  0.0180
67527W        W68391   9.022  25.151   2.985 -0.1196  0.3588 -0.2207
67528W        W68392   5.501  26.613  24.424  0.0141  0.0148  0.3633
67529W        W68393  16.884   3.661   3.831  0.0531 -0.2394 -0.1590
67530W        W68394  17.489  23.576  21.532 -0.0762 -0.0637  0.3228
67531W        W68395  19.584  22.193  13.312  0.0397  0.3452 -0.1729
67532W        W68396  10.123  13.811  26.069  0.1360  0.3355  0.1658
67533W        W68397  19.270  24.735   3.361 -0.0132  0.0579  0.0945
67534W        W68398  21.039  14.737  27.401 -0.0215  0.1763 -0.0991
67535W        W68399   9.420  17.746  21.328 -0.4940  0.3879  0.3697
67536W        W68400  21.030  18.980  22.144 -0.0374 -0.0431  0.0321
67537W        W68401   8.667  17.272  11.972  0.0402  0.1533  0.0161
67538W        W68402  19.220  14.731  20.864 -0.0789  0.0722  0.2914
67539W        W68403   1.500  17.854  28.607  0.1428 -0.2715 -0.2250
67540W        W68404  16.780  21.938  18.063 -0.1595 -0.1047 -0.0048
67541W        W68405  19.548  14.991   7.669 -0.2856 -0.3024 -0.0519
67542W        W68406  16.620   8.163   6.732  0.1638 -0.4530  0.2171
67543W        W68407   7.043  15.268   0.982 -0.0181 -0.1374  0.0365
67544W        W68408   8.299  10.042   7.139  0.0439  0.0133  0.2046
67545W        W68409  27.967   7.738   4.578  0.0716 -0.0500  0.0132
67546W        W68410  25.266  24.994  13.250 -0.1395 -0.0168 -0.1250
67547W        W68411  19.022   9.728   4.719  0.0142 -0.0044  0.1517
67548W        W68412  24.009  27.022  10.980  0.0302  0.3440  0.0145
67549W        W68413  23.796  25.992  22.687 -0.0990  0.0946 -0.0968
67550W        W68414  28.332  11.616  28.655 -0.2757  0.0710 -0.2244
67551W        W68415  21.507   7.279  11.418  0.2610  0.0941  0.1826
67552W        W68416  20.724  18.569   1.798  0.1565  0.1015 -0.1108
67553W        W68417  28.765  28.358   5.005  0.0269 -0.1457  0.1958
67554W        W68418   9.194  11.773  23.946  0.1965 -0.3404 -0.1266
67555W        W68419  21.067  11.217   6.623 -0.0504  0.2322 -0.2716
67556W        W68420  10.334  10.777   1.944 -0.2255  0.1003 -0.1217
67557W        W68421  10.517   0.740  25.106 -0.2782  0.0569  0.0024
67558W        W68422  24.075  17.097  10.978 -0.1653 -0.2675 -0.1548
67559W        W68423   9.079  19.951   5.734 -0.0699 -0.0615  0.0418
67560W        W68424  16.525  10.937   4.159 -0.0693  0.2579 -0.0280
67561W        W68425   4.828  19.350  17.510 -0.3633 -0.1716 -0.0280
67562W        W68426  27.503  23.649   4.401 -0.1091 -0.0874  0.1795
67563W        W68427   7.168  26.694   8.442 -0.0821  0.2836 -0.2512
67564W        W68428   0.954  22.812  24.236 -0.4278  0.3243  0.1753
67565W        W68429  27.745  27.486  20.408 -0.2831 -0.0117 -0.1356
67566W        W68430   2.195  19.831  24.549  0.0818 -0.0493 -0.2282
67567W        W68431  25.798  16.737   0.355 -0.2558 -0.2885 -0.3251
67568W        W68432   5.452  10.779  11.131 -0.2406  0.3910  0.2851
67569W        W68433  15.744  13.896  15.516 -0.0042 -0.2925  0.0465
67570W        W68434   4.435  19.231   2.300 -0.1484  0.0159 -0.0774
67571W        W68435   8.106  17.729   4.791  0.1459 -0.1665  0.2371
67572W        W68436   1.670   4.851  13.400 -0.1626  0.0518 -0.0118
67573W        W68437  22.672  26.530   6.253 -0.0717 -0.1020 -0.1569
67574W        W68438  24.692   7.771  15.195  0.0564  0.1039  0.0494
67575W        W68439  23.662  19.108  22.722  0.1496  0.2532  0.1807
67576W        W68440  23.733  27.795   6.860 -0.1385 -0.2857 -0.0287
67577W        W68441  13.204   1.447   9.837  0.1759  0.1371 -0.0796
67578W        W68442  22.200  13.226   3.354  0.0275  0.1076  0.0496
67579W        W68443  28.845  11.713   8.772 -0.1329 -0.0375  0.0375
67580W        W68444   6.321  16.414   3.070 -0.2513  0.3634 -0.3460
67581W        W68445  22.062   0.627  26.124  0.2056  0.2205  0.1673
67582W        W68446   2.386  24.293   9.873  0.1574  0.0474  0.2041
67583W        W68447   5.639  14.016   2.698  0.3764 -0.1358  0.3125
67584W        W68448  10.547  25.032   3.685  0.3515  0.2195  0.2921
67585W        W68449  10.972  25.206  12.618  0.1229 -0.0723 -0.2988
67586W        W68450   7.964  10.428  10.313 -0.2336  0.1122 -0.1115
67587W        W68451  18.304  13.759  15.188 -0.1952  0.1598 -0.3264
67588W        W68452  11.386  15.639  23.816 -0.0555 -0.2309  0.0863
67589W        W68453  21.479  12.748  23.523 -0.1292  0.1242  0.0097
67590W        W68454  17.210  27.713   4.098  0.3375  0.0056  0.1331
67591W        W68455   5.021   7.726   7.942  0.1162  0.2139 -0.5430
67592W        W68456   4.245  27.889  13.603  0.0669  0.1929 -0.1289
67593W        W68457  14.567  21.940  11.404 -0.5719  0.0463  0.0136
67594W        W68458  11.671  17.765  25.195 -0.0987  0.1284 -0.3005
67595W        W68459  14.696  14.732  21.917 -0.0567  0.3658 -0.1110
67596W        W68460   3.150   6.094  19.061 -0.0140  0.1005 -0.1029
67597W        W68461  19.544  24.588  22.739 -0.0803  0.1001  0.2164
67598W        W68462  24.916  18.714   5.897 -0.0532  0.0247  0.1075
67599W        W68463  28.687  26.411   0.658 -0.0768  0.0832  0.3063
67600W        W68464  24.271  14.556   5.506  0.2476 -0.1702  0.0938
67601W        W68465  26.362  14.325  25.810  0.0164 -0.1165 -0.2212
67602W        W68466   8.064  13.016  17.798  0.1423  0.0216 -0.2632
67603W        W68467   4.751   7.282   7.507  0.2148  0.2867 -0.0092
67604W        W68468   5.576  13.985  28.194  0.1447 -0.0017 -0.4959
67605W        W68469  27.285  18.195  13.358  0.0528 -0.3310  0.0605
67606W        W68470  17.796  22.383  26.647 -0.2002 -0.1065 -0.1408
67607W        W68471  27.830   8.162  22.855 -0.4378  0.1113  0.0764
67608W        W68472   1.657  22.248  11.809  0.3325  0.1689  0.1902
67609W        W68473  17.587  19.695  12.752 -0.0657 -0.2371  0.0156
67610W        W68474  25.184  13.811  27.355 -0.2828 -0.2307 -0.3560
67611W        W68475   2.526  16.048  13.691 -0.1429 -0.1731 -0.3742
67612W        W68476   0.489  15.684  12.588 -0.1345  0.3196  0.0739
67613W        W68477  20.503  15.470   8.280  0.0242  0.3337  0.1424
67614W        W68478   7.163  29.070  28.834 -0.0613 -0.2964  0.4226
67615W        W68479  13.925  27.834   4.378 -0.1136  0.0256 -0.0166
67616W        W68480  28.843   5.432   2.997  0.0012 -0.0859  0.2108
67617W        W68481  14.992  25.523  26.008 -0.1663  0.1376  0.0459
67618W        W68482   9.371   3.983  12.206 -0.0562 -0.1520 -0.2214
67619W        W68483  26.884   0.437   7.995  0.0437 -0.0179  0.0633
67620W        W68484  21.426  26.506  17.981 -0.2635 -0.0445  0.3043
67621W        W68485   2.616   5.112   2.959  0.4160 -0.1541  0.2158
67622W        W68486  19.746  24.740  14.791  0.0150  0.4362 -0.0839
67623W        W68487  10.040  12.012   1.112  0.2208 -0.0033  0.1003
67624W        W68488  14.248  16.469  21.026  0.3882  0.0096  0.1407
67625W        W68489  10.927  15.627  20.732  0.1301 -0.0562 -0.0508
67626W        W68490  11.788   1.571  26.840 -0.0583  0.3435  0.3361
67627W        W68491  12.286  23.291   7.386 -0.0796 -0.3076 -0.3716
67628W        W68492   2.632  19.054   3.112 -0.0407  0.0792  0.0341
67629W        W68493  23.150  19.312  12.004  0.1754  0.0553 -0.3384
67630W        W68494  27.498   4.803  25.037 -0.0852  0.0492 -0.2469
67631W        W68495  20.639   6.826   4.464 -0.1933 -0.0813 -0.0758
67632W        W68496  14.854  19.498  11.838  0.0582  0.3018  0.2572
67633W        W68497   5.602   8.487  17.985 -0.0403  0.1562 -0.1261
67634W        W68498  22.827  21.529  13.709  0.3742 -0.1053 -0.0958
67635W        W68499  24.890  12.396  15.065  0.1364  0.1381  0.0071
67636W        W68500  19.343  16.976   8.536  0.1784  0.1832  0.0091
67637W        W68501  13.008   3.274  27.632 -0.1984 -0.0945 -0.4914
67638W        W68502  29.076  19.997   4.350  0.1371 -0.1660  0.1491
67639W        W68503  24.686  10.453  17.178  0.0394  0.0469  0.0223
67640W        W68504  16.607  25.713  15.697  0.0170 -0.1923  0.1046
67641W        W68505  14.774   1.234   5.259 -0.0470  0.0307 -0.1867
67642W        W68506  10.456   3.641  17.551 -0.0546  0.0813 -0.0414
67643W        W68507  26.089   4.411   4.073  0.1687  0.2901  0.0525
67644W        W68508  15.128  13.579   4.381  0.1650  0.1162 -0.1969
67645W        W68509  11.919   5.087  23.360  0.1047  0.2883  0.1429
67646W        W68510  28.699  20.089  19.175  0.4976  0.0539  0.0983
67647W        W68511   7.085  18.893  17.041 -0.2057 -0.0478  0.0050
67648W        W68512  22.615  18.165  11.130 -0.0869  0.2121  0.2137
67649W        W68513  28.382  19.247  15.328  0.2568 -0.2076  0.1047
67650W        W68514  21.404  20.114  23.424  0.1211 -0.1283 -0.1600
67651W        W68515  25.296  15.706   6.076  0.1348 -0.0912 -0.4044
67652W        W68516  17.568  10.867   3.009  0.1022  0.1879  0.3335
67653W        W68517   3.508  24.542   3.597  0.0110  0.1425 -0.1990
67654W        W68518  15.078  12.791  22.591  0.3601  0.1325 -0.1349
67655W        W68519  24.969   8.934  20.883  0.1663 -0.1706 -0.0983
67656W        W68520  20.082  10.701  25.831  0.2929 -0.1691  0.0358
67657W        W68521   0.240  24.133  24.676 -0.2102 -0.0402  0.1366
67658W        W68522   5.097  16.380  23.196 -0.3766  0.0291 -0.0993
67659W        W68523  18.049  12.802  21.576 -0.1931  0.1308  0.0545
67660W        W68524  18.163  22.449  17.163  0.0669 -0.1236  0.3118
67661W        W68525   2.315  19.883   9.943 -0.1095 -0.2460  0.1415
67662W        W68526  15.468  20.895  20.338 -0.1500 -0.0314 -0.1127
67663W        W68527   2.286  18.779  12.340 -0.1764 -0.2326 -0.3588
67664W        W68528  15.477  23.510   7.495  0.2114 -0.3498  0.0196
67665W        W68529   8.697  11.525  10.979 -0.0355 -0.0508  0.0784
67666W        W68530   0.830  18.670  24.135 -0.1844  0.0121 -0.1971
67667W        W68531  22.749  19.537   5.580 -0.0434  0.3531  0.0928
67668W        W68532  12.529  12.842  10.879  0.0573  0.0894 -0.0302
67669W        W68533  28.954   0.695  15.994 -0.1277  0.4352  0.0138
67670W        W68534  15.605  20.514  11.518  0.0774  0.0323 -0.0618
67671W        W68535  23.275  11.687   1.986 -0.0231 -0.1124 -0.1919
67672W        W68536  21.269  14.121   2.864 -0.1286  0.0044 -0.0970
67673W        W68537  14.076  12.837  13.985 -0.2108  0.1830 -0.1846
67674W        W68538  28.283  11.457  16.581 -0.0163 -0.2047  0.0151
67675W        W68539  17.395   7.998  11.643  0.0552  0.0955 -0.0323
67676W        W68540  17.807  25.590  24.917  0.4349 -0.0448  0.0187
67677W        W68541  18.290  18.017  14.217  0.0792 -0.2655  0.3139
67678W        W68542  28.873   9.290   8.771  0.1377 -0.1363  0.0793
67679W        W68543  26.703   2.721  10.415  0.2556 -0.0861  0.0587
67680W        W68544  15.073  21.608  10.671  0.2874  0.0654 -0.3835
67681W        W68545  18.934   9.431   2.736  0.0113  0.0137 -0.0285
67682W        W68546   6.004  13.056   2.008  0.2990 -0.1185 -0.0403
67683W        W68547  11.679   7.437  11.162 -0.1313 -0.1048 -0.1910
67684W        W68548  28.913  25.809   9.087  0.0859  0.3632 -0.1094
67685W        W68549  20.404  24.249  15.978 -0.1516  0.2998  0.1202
67686W        W68550  23.137  10.987   9.956  0.0754  0.3365 -0.1276
67687W        W68551  14.063  11.281  12.320 -0.0609 -0.0234  0.2057
67688W        W68552  27.468  15.077   0.297 -0.2842  0.0196 -0.2508
67689W        W68553   4.901  15.208   2.852  0.0911 -0.0618 -0.3407
67690W        W68554  22.227  14.181  13.653 -0.2550 -0.0406 -0.2024
67691W        W68555   2.893  19.757  20.109 -0.1200 -0.2545 -0.0746
67692W        W68556   8.806   2.822  19.342 -0.0790  0.2648  0.1189
67693W        W68557  26.970   6.805   8.405 -0.0770 -0.0270 -0.1599
67694W        W68558  14.759  16.005   4.653 -0.2625  0.0653  0.0153
67695W        W68559  19.332  25.376  11.146  0.1860  0.1565  0.0939
67696W        W68560  27.321  16.367   6.268  0.0779 -0.0580  0.0524
67697W        W68561  14.792  22.318  24.466  0.1501  0.2212 -0.1304
67698W        W68562   7.426   4.766   9.080  0.1106  0.1874  0.1061
67699W        W68563   9.668  21.136  12.755 -0.0724  0.0373  0.0011
67700W        W68564  18.508  12.351  10.326  0.0849 -0.0494 -0.0031
67701W        W68565  24.347   8.203   1.520 -0.1440  0.0200 -0.2381
67702W        W68566  17.240  25.991  19.167  0.0348  0.0173 -0.1507
67703W        W68567   0.431   9.419  11.307 -0.0214  0.2486  0.0847
67704W        W68568  25.506  17.822  25.766  0.3384 -0.1599 -0.4339
67705W        W68569   7.435  18.303   6.574 -0.1430 -0.0069 -0.4361
67706W        W68570  15.062   9.521   3.810 -0.0462 -0.0337  0.1609
67707W        W68571  28.042   8.206  13.150  0.3086  0.2147  0.0075
67708W        W68572  15.081  19.041   2.823  0.2343 -0.0199  0.0590
67709W        W68573   9.481  26.670  10.142  0.0634 -0.4948  0.0436
67710W        W68574  19.214  24.958  25.713  0.0411  0.2664  0.1893
67711W        W68575  14.493   3.891  16.513 -0.0835  0.2464 -0.2053
67712W        W68576  22.233  26.708   6.084 -0.1580 -0.1367 -0.2343
67713W        W68577   0.452  17.838   8.887 -0.0890 -0.1761 -0.1116
67714W        W68578   6.354   4.858  17.129 -0.1378  0.1176 -0.0707
67715W        W68579   1.835  14.891   7.412  0.1702 -0.0859  0.3476
67716W        W68580  17.934  14.894  13.578  0.0329 -0.1080  0.1138
67717W        W68581  20.343  13.924  23.675 -0.0398 -0.0700 -0.0065
67718W        W68582   2.824   1.492  16.675  0.2125 -0.0149  0.2159
67719W        W68583  20.977  19.751   7.296 -0.0524  0.1907 -0.2185
67720W        W68584  14.085   0.458  10.520  0.2347 -0.4433 -0.1409
67721W        W68585  17.078  15.860   4.741  0.0196  0.0599  0.2129
67722W        W68586   3.669   9.001  26.500 -0.0851  0.0348 -0.0777
67723W        W68587  21.383   5.324  11.630 -0.1687 -0.0856  0.0008
67724W        W68588  20.101   6.930  26.265  0.2575  0.3557 -0.0782
67725W        W68589  21.389  12.556  19.807  0.0951  0.0567  0.2199
67726W        W68590  18.643  13.896  28.637  0.2574  0.4537  0.5276
67727W        W68591  16.554  24.013  17.697 -0.0378 -0.3066 -0.1843
67728W        W68592  21.046  25.697  24.098  0.0980  0.0632 -0.0914
67729W        W68593   9.420  26.333   8.317  0.1845 -0.0929 -0.0580
67730W        W68594  14.837   7.476   6.552 -0.2781  0.1361  0.0811
67731W        W68595   4.988  10.851  15.485 -0.3134 -0.1771 -0.3236
67732W        W68596   0.687  24.874  13.681  0.0319 -0.1257 -0.2650
67733W        W68597  23.858  21.858  27.347 -0.2532 -0.0048 -0.0727
67734W        W68598  25.343  16.337  17.252 -0.0683 -0.1509  0.0317
67735W        W68599  23.532  14.084  28.460 -0.1538 -0.3046 -0.5557
67736W        W68600  18.862   0.485  19.709  0.0528 -0.2147  0.2217
67737W        W68601   2.094  13.181  26.592 -0.2892  0.2129  0.0407
67738W        W68602  14.252   1.690  16.321  0.2061 -0.1250  0.0090
67739W        W68603  17.873  12.965  19.172  0.0763 -0.0720 -0.2710
67740W        W68604  27.170  27.362  19.287  0.0857 -0.0161 -0.0474
67741W        W68605  16.492  27.447  26.309  0.2068  0.0213  0.2206
67742W        W68606  10.752  10.797   9.054 -0.0696 -0.0867 -0.3087
67743W        W68607   9.884  11.367   8.029 -0.1584  0.0121  0.0744
67744W        W68608   4.063  24.805  10.572 -0.0565  0.2803 -0.0205
67745W        W68609   6.918   0.428  28.204 -0.1439 -0.0948 -0.0310
67746W        W68610  27.342   5.768   7.524 -0.2647  0.0294 -0.3494
67747W        W68611   1.050  26.239   2.908  0.1137 -0.1735  0.3942
67748W        W68612  17.178  27.188  16.691  0.1894  0.0563  0.1220
67749W        W68613  13.663   8.834  10.042 -0.0341 -0.1654 -0.0297
67750W        W68614  12.998  27.915  11.390 -0.0930 -0.1967 -0.0225
67751W        W68615  16.557  17.552   4.896 -0.1077 -0.2480 -0.0869
67752W        W68616   2.720   1.220   9.574  0.1084 -0.3099 -0.0961
67753W        W68617  16.884  19.420   6.041 -0.2091 -0.0986 -0.1019
67754W        W68618  10.767   2.282   7.949 -0.2146  0.0933 -0.1095
67755W        W68619  15.893   1.780  18.662  0.0610  0.0018 -0.1331
67756W        W68620  22.545  14.472   5.228 -0.1277  0.0140 -0.1061
67757W        W68621  18.874   7.240   0.915  0.0734  0.0016  0.2910
67758W        W68622  19.231  20.333  22.291 -0.0270 -0.3603  0.0450
67759W        W68623  16.463  13.818  20.547  0.0225 -0.0918  0.1245
67760W        W68624  18.655  27.410  23.923  0.1145 -0.2407  0.1068
67761W        W68625  23.369  26.502  20.618 -0.2224  0.0164  0.1510
67762W        W68626  23.379  22.582  26.432 -0.1297  0.1388 -0.0420
67763W        W68627   4.161   2.399   9.149 -0.0250 -0.0395  0.1958
67764W        W68628  21.522  17.488  18.893 -0.3019  0.2313  0.0720
67765W        W68629   0.599  23.889  28.656 -0.2541 -0.3256  0.0598
67766W        W68630   3.907  27.676  15.026  0.1235 -0.1762  0.0849
67767W        W68631   2.932  18.431  17.574  0.0846  0.1735  0.1833
67768W        W68632  10.567   2.280  27.510 -0.0419  0.0949 -0.0543
67769W        W68633   5.291   9.948  18.409  0.0106  0.1864 -0.2066
67770W        W68634   2.633   0.945   5.272  0.2652 -0.0743  0.1201
67771W        W68635  12.784  22.865  26.788 -0.2468  0.1797 -0.0024
67772W        W68636  14.279   5.322  12.072  0.2334 -0.1482  0.0867
67773W        W68637  12.835  27.001  14.260  0.0302 -0.0049 -0.1345
67774W        W68638  23.966   8.784  11.975  0.0811 -0.3074  0.1471
67775W        W68639  23.428  23.867   9.005  0.2891  0.0480 -0.1771
67776W        W68640   3.569  22.763   5.734  0.0509 -0.1884 -0.0262
67777W        W68641   1.187  19.857  21.852  0.1850  0.0631 -0.0622
67778W        W68642  19.122   3.634   2.718 -0.0253 -0.1630 -0.1528
67779W        W68643  12.168  24.851   3.336 -0.1642  0.0762 -0.1675
67780W        W68644  27.525  25.198  18.348  0.3322 -0.0201 -0.2359
67781W        W68645   3.729  16.251   3.440  0.1325 -0.0969  0.0103
67782W        W68646   0.759  19.807   6.286  0.1723  0.2225  0.0914
67783W        W68647   7.408  13.498  13.154  0.2518 -0.0903  0.0675
67784W        W68648  16.739   8.081  19.117 -0.0686 -0.2779 -0.0104
67785W        W68649  18.842   2.706  16.587  0.0692  0.0680 -0.3289
67786W        W68650  22.504   5.552   4.362 -0.2090  0.1169 -0.2628
67787W        W68651  10.753  17.325  27.129 -0.0625  0.1579  0.1558
67788W        W68652  26.685   2.408  22.995  0.2569 -0.2154 -0.1370
67789W        W68653  23.988  23.322  20.054  0.2166  0.0543 -0.1148
67790W        W68654   2.748  17.095  11.430 -0.1482  0.0758 -0.1343
67791W        W68655   8.417  11.196   5.061  0.0814  0.1014  0.4201
67792W        W68656   0.161   6.609  28.840  0.0602  0.2321  0.2844
67793W        W68657  26.522  26.556  15.267  0.0273  0.0645 -0.0002
67794W        W68658  23.304  11.077  17.057  0.1973 -0.2605  0.1987
67795W        W68659  14.462   1.376  27.565 -0.2169  0.3468 -0.1750
67796W        W68660  23.700   7.520   9.715 -0.0107 -0.1650 -0.2980
67797W        W68661  28.026   1.192   3.965  0.1257  0.1063  0.0649
67798W        W68662  15.168  14.785  18.567  0.2314  0.0683  0.1597
67799W        W68663  20.648   1.674   6.903 -0.2262  0.1694 -0.3521
67800W        W68664   7.024  27.796   8.039  0.4209 -0.3124  0.1427
67801W        W68665  27.200  14.224  26.818 -0.0677 -0.0625  0.1584
67802W        W68666  18.811   0.501  21.856 -0.1140 -0.1123 -0.1086
67803W        W68667  17.241  24.339   4.068  0.3271 -0.1188 -0.2695
67804W        W68668   0.514  19.647  12.545  0.1708 -0.0222 -0.1205
67805W        W68669  14.082  19.294  15.427 -0.0605  0.0592 -0.2369
67806W        W68670   0.650  25.593  12.187  0.0027 -0.2164 -0.1165
67807W        W68671   2.527  18.395  14.648 -0.1230 -0.0405  0.1220
67808W        W68672  26.494  13.056   6.473 -0.2670  0.1259  0.0964
67809W        W68673   8.996  10.432  16.989 -0.2014 -0.1463  0.2141
67810W        W68674  17.531  21.502   6.039  0.0132 -0.1312 -0.2222
67811W        W68675  28.006  10.056   2.959  0.0255  0.0989  0.0028
67812W        W68676  13.027  18.420   0.700 -0.0874  0.1621 -0.1063
67813W        W68677  28.904  24.623  16.363 -0.0344  0.1032 -0.1848
67814W        W68678  24.700  10.800  13.564 -0.1306 -0.3007  0.1577
67815W        W68679  21.474   9.749  17.522 -0.1008 -0.0105  0.1771
67816W        W68680  22.191  18.835   2.856 -0.3940 -0.0883  0.1604
67817W        W68681   2.514  18.084  20.614 -0.0672 -0.3284  0.1092
67818W        W68682  25.320  15.420   2.113 -0.0059 -0.1397  0.1149
67819W        W68683  18.592  17.350   6.943  0.2175 -0.2791 -0.0888
67820W        W68684  10.573   9.642   3.881  0.0845 -0.0450 -0.0801
67821W        W68685   8.758  26.258  28.566 -0.0364  0.0756 -0.1129
67822W        W68686   1.792  13.529  16.781 -0.0384  0.3485 -0.3457
67823W        W68687   7.109  17.861   9.144  0.1415  0.3137  0.0578
67824W        W68688  11.159  17.004  11.914  0.0289 -0.3477  0.1023
67825W        W68689   3.861  12.434   3.111  0.0740  0.0155 -0.2450
67826W        W68690  16.647   7.420   9.965 -0.1870 -0.2804  0.0800
67827W        W68691  26.969  28.433   3.308 -0.2889 -0.2188  0.3069
67828W        W68692  24.746   0.440  12.377  0.0993 -0.0040  0.0096
67829W        W68693  22.944  10.222  17.014 -0.1972 -0.2965  0.2486
67830W        W68694  16.325  14.416   8.764 -0.0846  0.0974 -0.0900
67831W        W68695  20.323  11.253  13.819 -0.4026  0.1067  0.0982
67832W        W68696  25.460   2.118  21.289  0.1271  0.1559  0.0086
67833W        W68697  22.979  22.503  23.572  0.2737 -0.1059  0.1348
67834W        W68698  27.972  19.272  28.345  0.0145  0.1551 -0.0382
67835W        W68699  12.449  28.122   1.254  0.2663 -0.1146  0.2531
67836W        W68700  24.511  23.055  15.560  0.0489  0.3769 -0.1950
67837W        W68701  14.429   4.164   8.534 -0.0396  0.0325  0.2618
67838W        W68702   4.709   6.114  22.718  0.0864  0.2202 -0.1179
67839W        W68703  24.247   8.661  12.434 -0.2240  0.0239  0.1614
67840W        W68704   7.872  16.512   2.086  0.0466 -0.0947 -0.1659
67841W        W68705  11.927   8.828   7.513  0.1454 -0.3273 -0.2490
67842W        W68706  27.490   4.258   2.527 -0.0929 -0.1347 -0.3903
67843W        W68707  11.693  14.768  29.128  0.0923 -0.3298 -0.1934
67844W        W68708   2.267  16.111  17.380  0.0005  0.0234 -0.0018
67845W        W68709   8.851  20.788  10.358 -0.1109 -0.1435  0.1598
67846W        W68710   2.577  20.202   0.612 -0.3583  0.0965 -0.0516
67847W        W68711   7.055  11.753   8.145  0.0458  0.2366  0.3375
67848W        W68712  20.135  10.924   2.730 -0.0184  0.1705  0.0998
67849W        W68713  22.343  17.736   5.275  0.1727  0.3487 -0.0722
67850W        W68714   6.209  28.617   8.612  0.0063  0.1394  0.0094
67851W        W68715  16.833  23.618   7.602  0.0582  0.1112 -0.0050
67852W        W68716   8.401  19.812  26.942  0.0582  0.1326 -0.1095
67853W        W68717   8.308  13.272   9.394  0.0384 -0.0509 -0.1632
67854W        W68718  25.111   4.826  17.797  0.2186 -0.0152 -0.1297
67855W        W68719   2.923  14.948   8.177  0.0297  0.0171 -0.0460
67856W        W68720  25.379  26.820   8.617 -0.0504  0.0458  0.0487
67857W        W68721  27.554  26.623  16.563 -0.0976  0.1510 -0.0711
67858W        W68722  25.984   3.409  19.817  0.1503 -0.1319  0.1231
67859W        W68723  21.955  25.848   5.466 -0.1162  0.2579  0.0049
67860W        W68724   8.129  18.025  19.737 -0.0572  0.1007  0.1976
67861W        W68725   3.128   6.325  10.450  0.0025 -0.1875 -0.1691
67862W        W68726   7.634  13.018   5.988  0.1686  0.0913  0.0216
67863W        W68727  16.491   8.786  11.986  0.0525 -0.0480 -0.0349
67864W        W68728  26.882  28.180   8.282 -0.0627  0.0444 -0.0429
67865W        W68729  26.911  14.086   8.577 -0.2852  0.2183 -0.2477
67866W        W68730   4.118   2.277  25.202 -0.1044 -0.0185  0.1449
67867W        W68731  21.673  21.858   7.571  0.2685 -0.0852 -0.0992
67868W        W68732  17.577   0.362   4.882  0.0191  0.1039 -0.0576
67869W        W68733  28.552   4.175   3.362  0.0244  0.0542 -0.0001
67870W        W68734  11.553  14.028  27.596 -0.0626  0.0807 -0.0212
67871W        W68735  26.650  12.047  18.758 -0.3283 -0.2147 -0.3482
67872W        W68736  20.637  28.410  11.546  0.1424  0.0260 -0.0439
67873W        W68737  14.761  24.652  16.520  0.1143 -0.1419 -0.0881
67874W        W68738   4.884  27.778  18.712  0.2744  0.0380  0.1335
67875W        W68739  18.563   2.816   9.276 -0.0962 -0.3208  0.0040
67876W        W68740   1.864  18.712  23.112 -0.1327 -0.1189 -0.0159
67877W        W68741  27.465  29.067  12.943 -0.0146  0.2213 -0.1741
67878W        W68742  14.167  23.799  12.691  0.0266 -0.0154  0.1506
67879W        W68743  11.271  27.970   9.371  0.0270 -0.1947 -0.3205
67880W        W68744  28.195  12.939  21.344 -0.1199  0.2006 -0.1220
67881W        W68745  12.208  17.216   8.166  0.0496 -0.1049 -0.0733
67882W        W68746   4.983  25.778   7.912  0.0203  0.1358 -0.1743
67883W        W68747  20.470  16.854   5.663  0.0851 -0.4045  0.1216
67884W        W68748  27.325  17.632   8.072  0.0294  0.0979 -0.2156
67885W        W68749  10.156  23.618  11.809 -0.0276 -0.1953 -0.1410
67886W        W68750  19.888  20.547  24.703  0.0533  0.4264  0.2555
67887W        W68751  20.089   6.066  19.066 -0.0518 -0.1042  0.0253
67888W        W68752  19.377  15.373  11.694 -0.0613  0.1637  0.1192
67889W        W68753  10.921  20.899   3.312  0.2445 -0.0223  0.1504
67890W        W68754  15.616  26.212  19.543  0.0446 -0.1691  0.0972
67891W        W68755   5.258   5.920  13.907  0.1667 -0.1116  0.0820
67892W        W68756   5.331  22.342  15.788 -0.2000  0.1026 -0.1646
67893W        W68757  15.965   2.904   2.519 -0.0579 -0.1791 -0.0877
67894W        W68758   7.772  27.143   9.070 -0.0502 -0.0669 -0.0242
67895W        W68759  16.716  28.610  24.496  0.2325  0.3455  0.1079
67896W        W68760   9.121  25.663  13.114  0.0357 -0.2466 -0.2352
67897W        W68761  10.461  14.514   5.605  0.0979 -0.0032  0.0584
67898W        W68762  16.675  28.961  27.859 -0.4058 -0.0141 -0.0384
67899W        W68763   2.736   0.106  20.268  0.0522  0.3103 -0.0680
67900W        W68764  17.061   1.584  14.876 -0.3075 -0.2121 -0.0792
67901W        W68765   5.170  26.432  10.396 -0.0158 -0.0698 -0.1015
67902W        W68766   0.260  19.422  13.751 -0.3420  0.1745  0.1007
67903W        W68767  27.831  23.215   9.945  0.1169 -0.1865  0.1931
67904W        W68768  21.667   4.802   1.894  0.1355 -0.0650  0.0804
67905W        W68769   2.609  18.589   4.041 -0.1272  0.2483 -0.0678
67906W        W68770  21.158   6.637   4.541  0.0917 -0.1554  0.2561
67907W        W68771  23.210  23.865  13.421 -0.1048 -0.0092  0.3253
67908W        W68772   4.451  11.904   1.533  0.0576 -0.0497  0.0469
67909W        W68773  27.566  12.577   2.999 -0.1502  0.1327  0.1191
67910W        W68774  21.595  27.090   4.743 -0.4230  0.2534  0.1893
67911W        W68775  12.595  22.212  26.569  0.0640 -0.1632  0.3948
67912W        W68776  12.615  13.859   0.276 -0.2280  0.0562 -0.1112
67913W        W68777   2.761  12.914  24.076  0.3967  0.0765  0.0030
67914W        W68778  26.433  28.270  22.453  0.0551 -0.1581 -0.1341
67915W        W68779  22.689  22.297   0.338 -0.1606 -0.1505 -0.0542
67916W        W68780  22.740  25.213   4.937  0.0019 -0.0737 -0.2334
67917W        W68781  24.378  16.492  17.531 -0.5431 -0.1362 -0.2331
67918W        W68782  17.845  12.551  20.454 -0.0994  0.1309 -0.1343
67919W        W68783   1.858  17.512  15.402  0.0962 -0.1171 -0.2624
67920W        W68784  22.389  18.761  15.874 -0.1782  0.0720  0.0991
67921W        W68785  26.909  11.066   5.324  0.3329  0.1656  0.2603
67922W        W68786  18.285  10.378   5.065 -0.0758 -0.1619 -0.1057
67923W        W68787  10.710  12.612  20.854  0.0723  0.2657 -0.1638
67924W        W68788   7.224  16.081   3.869  0.2890 -0.1585 -0.0628
67925W        W68789  26.194  27.689   7.463 -0.2183  0.0054 -0.0735
67926W        W68790  17.975  20.612  11.838  0.0351 -0.0942  0.0949
67927W        W68791  26.103  25.614  22.290  0.2648 -0.2234 -0.1687
67928W        W68792   4.884   3.568  11.865 -0.1258 -0.0817 -0.0040
67929W        W68793  11.539  14.644  19.024  0.2014 -0.4094  0.2041
67930W        W68794  23.242   3.239  20.323  0.1952 -0.0427  0.1387
67931W        W68795  13.507  25.358  13.495  0.1879 -0.0391 -0.0554
67932W        W68796  14.767  24.302  15.466 -0.1484 -0.0381 -0.0654
67933W        W68797  18.683   9.688  20.808 -0.1825 -0.2428 -0.2464
67934W        W68798  19.768   5.110  27.772 -0.1369 -0.1134 -0.0239
67935W        W68799   8.466   9.121  20.122  0.4224  0.2306 -0.3612
67936W        W68800  10.956  25.271  13.709  0.0430 -0.1333 -0.1561
67937W        W68801  29.087  24.519  16.924 -0.3745  0.0539  0.2253
67938W        W68802  26.908  22.585  11.824 -0.0641  0.0138 -0.0788
67939W        W68803  17.089  15.040   1.960 -0.0456  0.0343 -0.1085
67940W        W68804   0.741  22.415  23.984 -0.2670 -0.0671  0.2481
67941W        W68805  28.859   4.396  26.116  0.0039  0.2724  0.0862
67942W        W68806   2.446  13.469  15.941 -0.2871 -0.0126  0.0181
67943W        W68807  13.494  19.391  21.252  0.1374 -0.0645 -0.0171
67944W        W68808   7.064  12.768   6.164  0.0772 -0.1214 -0.2086
67945W        W68809  14.496  24.358   8.470 -0.1864 -0.1889  0.1267
67946W        W68810   2.284  24.611  12.609  0.0508  0.0833 -0.0247
67947W        W68811   9.052  21.403  21.612 -0.0433 -0.1561 -0.3019
67948W        W68812   7.927  16.262  24.581  0.2458 -0.2078 -0.1238
67949W        W68813  24.484  18.008  19.548 -0.0200  0.0099 -0.2659
67950W        W68814  25.619  18.667  28.240 -0.0176 -0.1187 -0.3659
67951W        W68815  24.084  22.633  28.759  0.4218  0.0890  0.0345
67952W        W68816  24.841  21.146  12.927  0.0317 -0.5054 -0.2611
67953W        W68817  29.057  19.046  28.796  0.2413 -0.0026 -0.5238
67954W        W68818  13.479   7.080  24.625 -0.1212  0.1408 -0.0622
67955W        W68819   1.525  12.343   9.887  0.1943 -0.1947 -0.4666
67956W        W68820   0.172  15.258   9.554  0.2126 -0.0262  0.0932
67957W        W68821  25.703   1.098  12.994  0.1223 -0.1238  0.1207
67958W        W68822   0.248  11.621  20.915 -0.0494 -0.1170 -0.0316
67959W        W68823   3.411  26.795  15.802 -0.1641  0.2724 -0.3240
67960W        W68824  28.218  19.086  17.496  0.2577 -0.1875  0.1887
67961W        W68825  18.655  21.149  10.415 -0.2087 -0.2370 -0.0321
67962W        W68826  16.854  23.968  20.903  0.0297  0.0932  0.2091
67963W        W68827   0.444   4.850   0.177  0.0889  0.0381 -0.0309
67964W        W68828  28.053  28.291   9.240  0.3690  0.4031 -0.1619
67965W        W68829  21.041  11.848   7.511  0.0383 -0.0050  0.1698
67966W        W68830  19.763   6.537  13.314 -0.0981  0.2619  0.0572
67967W        W68831  27.422   7.007  13.003 -0.0343  0.1562  0.2532
67968W        W68832  19.470  23.215  16.197 -0.2064  0.2131  0.0057
67969W        W68833   8.519   5.204  14.410 -0.1840  0.0312 -0.1756
67970W        W68834  19.365  20.801   3.684 -0.0681  0.1490  0.1488
67971W        W68835  27.984   3.607  14.944 -0.2018  0.2705  0.0594
67972W        W68836   2.440   1.478  23.315  0.0573 -0.1589  0.0358
67973W        W68837  27.909  17.331  19.999  0.0551 -0.0058 -0.0196
67974W        W68838  18.551  14.792  23.557  0.0553  0.1868 -0.1485
67975W        W68839  25.412   1.923   8.089  0.2126 -0.0333  0.0584
67976W        W68840  12.375  17.946  15.577 -0.0469 -0.0768  0.0207
67977W        W68841   0.723   5.224  26.049  0.1269 -0.0309 -0.0524
67978W        W68842  20.210  12.536  15.685 -0.1148 -0.2276 -0.2640
67979W        W68843  15.214   0.391  11.199 -0.1224 -0.1907  0.0760
67980W        W68844  24.828  22.348   1.783 -0.1664 -0.1948 -0.3266
67981W        W68845   4.976  21.552  12.827  0.2704  0.3299  0.1817
67982W        W68846  27.495  18.338   8.591  0.0464 -0.0264 -0.2237
67983W        W68847  29.090  17.788   0.332 -0.0672  0.0170 -0.0198
67984W        W68848  12.960   6.899   9.276  0.0606  0.0313 -0.2305
67985W        W68849  12.287  21.530   7.523 -0.0912  0.1695  0.0556
67986W        W68850  26.733  17.807  17.117 -0.1457 -0.0137 -0.1626
67987W        W68851  11.814  18.313  28.866  0.0085 -0.0279 -0.2912
67988W        W68852  19.240  18.924   7.121  0.0708  0.0283 -0.2596
67989W        W68853  11.488  28.753   6.119 -0.1266  0.0476 -0.0897
67990W        W68854  19.327  21.287  23.160 -0.0945  0.1412 -0.0999
67991W        W68855  23.934  14.729   8.611 -0.4128 -0.0409 -0.1350
67992W        W68856  25.613   6.538   7.485 -0.5428 -0.0268 -0.1334
67993W        W68857  11.802  12.890  26.037 -0.0902 -0.2369 -0.3353
67994W        W68858   9.696  20.347   1.135 -0.2717 -0.0131  0.2435
67995W        W68859  20.020  13.719   7.432 -0.0945  0.1555  0.1780
67996W        W68860   5.899  11.952   1.232  0.1353 -0.0893 -0.3044
67997W        W68861  24.622   3.224   4.883  0.2411 -0.1336  0.3377
67998W        W68862  10.083  18.947   1.207 -0.0065  0.2216  0.0649
67999W        W68863   9.730  18.184  18.351 -0.1404  0.0221  0.1302
68000W        W68864  12.486  16.509  23.438 -0.2070  0.3325 -0.3091
68001W        W68865   6.883  25.292  26.990 -0.0173  0.0503  0.1869
68002W        W68866   4.397   5.608   7.588 -0.2883 -0.3717 -0.0128
68003W        W68867  20.505  18.281   1.428 -0.0788 -0.2930  0.0451
68004W        W68868   5.279  20.464   7.391 -0.4018 -0.0761  0.0967
68005W        W68869  25.057  23.565  18.312  0.1442  0.2222  0.1800
68006W        W68870  21.705   6.116  19.436 -0.0726  0.2038 -0.1035
68007W        W68871  12.701   7.493  10.344  0.1983 -0.0604 -0.2805
68008W        W68872   3.346  10.786  20.618 -0.1803 -0.3029  0.1114
68009W        W68873  20.410   8.681   1.905 -0.1303 -0.2305  0.0842
68010W        W68874  26.050   3.681  22.119  0.0211 -0.0970 -0.3193
68011W        W68875   0.220   4.787   9.459 -0.1523 -0.1661  0.2731
68012W        W68876  12.505  14.902   3.205 -0.4155 -0.2038  0.2479
68013W        W68877  27.551   6.348   4.635  0.1167 -0.1494 -0.2632
68014W        W68878  21.547   8.492  22.691  0.3710  0.1083  0.3012
68015W        W68879  28.443   4.457   1.450  0.1870  0.4555  0.1034
68016W        W68880  27.534   9.074  10.136  0.2524 -0.0053  0.0473
68017W        W68881  12.465   1.286  17.574 -0.0247  0.1916  0.1419
68018W        W68882  13.797  11.282  10.161  0.0181 -0.2494  0.0679
68019W        W68883  28.755  16.012  14.974  0.2584 -0.1795  0.1616
68020W        W68884   7.475  20.586   9.584 -0.1537 -0.2778 -0.1476
68021W        W68885  15.012  16.914   6.474  0.0829  0.0722 -0.1262
68022W        W68886  21.087  26.928  21.896 -0.3325 -0.1358  0.1222
68023W        W68887  17.987  10.786   4.693 -0.1805  0.3452 -0.0959
68024W        W68888  27.201  21.833  21.113  0.1976 -0.0941  0.1059
68025W        W68889   8.719  20.028  11.551 -0.1951  0.0838 -0.1786
68026W        W68890  16.028  13.796   5.111 -0.2841 -0.1116 -0.0381
68027W        W68891  16.469  19.591  17.058 -0.2279  0.1142  0.0502
68028W        W68892   2.514  25.136  16.806  0.0102 -0.3073 -0.3508
68029W        W68893  21.082  14.144  16.547 -0.1593  0.1189  0.2536
68030W        W68894  16.684  15.591  12.332  0.0025 -0.0255 -0.1244
68031W        W68895   6.060  21.333  11.115  0.0280 -0.3884 -0.1883
68032W        W68896  25.554  22.829  12.246  0.1296  0.1134 -0.1442
68033W        W68897  27.618   9.202  28.139  0.0054  0.0674 -0.0429
68034W        W68898  26.295   1.973  16.862  0.3540  0.3095  0.0753
68035W        W68899  16.126  16.975   3.308  0.0344  0.0857 -0.2058
68036W        W68900  12.479   4.109  14.999 -0.1765 -0.1112 -0.0088
68037W        W68901  28.478   0.252  17.327  0.0691  0.0637  0.4550
68038W        W68902  13.835   5.268  14.174  0.3528  0.3161  0.2329
68039W        W68903   2.893  12.093  11.479  0.1109 -0.2511 -0.2965
68040W        W68904   6.206   4.182  23.305 -0.0023  0.0668 -0.1073
68041W        W68905  21.272  23.930   9.011  0.2664 -0.2715  0.1563
68042W        W68906  14.605   9.802  24.054  0.1541 -0.0268  0.1529
68043W        W68907  20.871  13.377   6.411 -0.0010 -0.1731 -0.0008
68044W        W68908  24.145  19.522  10.032 -0.0802  0.1026 -0.0634
68045W        W68909  18.332  14.645   6.035 -0.4289 -0.1166 -0.1621
68046W        W68910   3.359  25.730   0.481 -0.1343  0.1841  0.1195
68047W        W68911  25.344   4.556  13.427 -0.1223  0.0633 -0.3642
68048W        W68912   3.697  22.424   1.736  0.0327  0.2019 -0.3157
68049W        W68913  22.237  21.115  21.420 -0.0155  0.1106  0.2753
68050W        W68914  14.964   8.735  16.602 -0.1310 -0.2592 -0.0478
68051W        W68915  16.621  20.104  12.573 -0.0593 -0.4070  0.2782
68052W        W68916  26.378  17.892  17.826  0.2372 -0.0028  0.1344
68053W        W68917  11.971  12.460  26.230  0.3016  0.0105 -0.0521
68054W        W68918   0.591  16.742  17.910  0.0796 -0.4544  0.0670
68055W        W68919  19.267   1.232   6.927  0.0916  0.2624 -0.2562
68056W        W68920  22.296   4.471   8.706  0.1041  0.0308  0.2430
68057W        W68921  27.606   2.036   1.253 -0.2768 -0.2879  0.0844
68058W        W68922   1.792   4.039  15.332 -0.2082  0.0841 -0.3172
68059W        W68923   6.795  10.165  27.542 -0.1428  0.1974 -0.0870
68060W        W68924  25.355  15.735  21.240  0.1275  0.2415 -0.0165
68061W        W68925  28.894   6.927  20.791 -0.2013 -0.4971 -0.1372
68062W        W68926  22.239  13.849  23.274  0.2362 -0.1747  0.0227
68063W        W68927  24.228  23.962  26.852 -0.1002  0.1088  0.0199
68064W        W68928  14.591  11.269  28.166 -0.1143  0.0629 -0.0739
68065W        W68929  18.746  21.677   2.201 -0.0827  0.0786 -0.1887
68066W        W68930  25.802   8.754  25.937 -0.0566  0.3466  0.0260
68067W        W68931   0.462  15.275  19.038 -0.1457 -0.0725  0.0792
68068W        W68932  24.180  14.552  12.276  0.1528  0.1115  0.0818
68069W        W68933   0.928  14.449  24.565  0.0471 -0.2346  0.0321
68070W        W68934  12.891  17.820   1.231 -0.0596 -0.3499 -0.0570
68071W        W68935  26.525  13.697   7.839 -0.0747  0.3440 -0.1352
68072W        W68936  28.844   9.112  18.849 -0.3574  0.0185 -0.0989
68073W        W68937  10.218  22.788  16.046 -0.0893 -0.0003 -0.1194
68074W        W68938   7.954  17.458   9.522 -0.0947  0.1200 -0.1624
68075W        W68939  25.053  13.506  23.069 -0.1649  0.1063 -0.0682
68076W        W68940   4.669  25.077   7.073 -0.0627  0.1804  0.0778
68077W        W68941   8.468  11.647  15.292 -0.1729 -0.0098  0.2686
68078W        W68942  13.441   7.500   6.202  0.0845 -0.0404 -0.0828
68079W        W68943  21.782  14.757  12.729 -0.1867  0.0041  0.1222
68080W        W68944  15.559  11.323  23.221 -0.0839 -0.0789 -0.0201
68081W        W68945  11.200  24.804  24.046 -0.0152 -0.1493  0.0247
68082W        W68946  18.028  14.416  14.077  0.0976 -0.2424  0.1901
68083W        W68947  24.555  23.501  12.834 -0.0996 -0.0267  0.3542
68084W        W68948  18.301  29.019  22.941 -0.0853  0.2231  0.1250
68085W        W68949   8.240  22.466  21.068 -0.0099 -0.1609 -0.1506
68086W        W68950  23.748  11.982  20.253  0.1095  0.1402 -0.2487
68087W        W68951   4.027  13.422   2.625 -0.2415 -0.1356  0.1506
68088W        W68952   2.782  21.750  17.348  0.0864  0.2069  0.0154
68089W        W68953  17.568   0.117  18.065  0.1729 -0.0700 -0.1658
68090W        W68954  10.268   9.882  11.732 -0.2706 -0.1640 -0.5916
68091W        W68955  21.610  12.969   5.397  0.0366  0.1023  0.1533
68092W        W68956  13.455  12.801   2.144  0.1761 -0.1135 -0.1915
68093W        W68957   2.788   2.866  18.418  0.0401 -0.0177  0.0277
68094W        W68958  17.648  10.022   7.563 -0.0075 -0.3161 -0.0593
68095W        W68959  17.925  11.556   2.494 -0.0022 -0.1383  0.0621
68096W        W68960  25.472   4.529  17.596  0.0026  0.1323  0.3381
68097W        W68961  12.628  26.410  26.791  0.0451  0.0362 -0.1696
68098W        W68962   1.276   8.499  22.732 -0.0457  0.1958 -0.2121
68099W        W68963  24.527  18.083  24.331  0.1968  0.3832  0.1780
68100W        W68964  17.511  19.373  24.159 -0.0783  0.2911 -0.0585
68101W        W68965  18.761  19.312  28.698 -0.0865  0.0462 -0.1314
68102W        W68966  12.932  15.957  11.296  0.1099  0.4252 -0.0159
68103W        W68967  27.711  19.398  19.885  0.4193  0.2423  0.3503
68104W        W68968  21.681  15.055  23.398 -0.3145 -0.0389 -0.4201
68105W        W68969  23.318   5.846  10.274  0.1179 -0.1772  0.2232
68106W        W68970  28.066   2.522  27.767 -0.1003  0.2805  0.1876
68107W        W68971  19.423   5.718  16.927 -0.0944  0.1454  0.2435
68108W        W68972  13.378  12.464   9.395  0.1582  0.5000 -0.2609
68109W        W68973   6.350  10.676  13.454 -0.2030 -0.2685  0.1045
68110W        W68974  14.288  19.483   7.006  0.3784  0.0432 -0.1807
68111W        W68975   0.192  28.778   1.395 -0.2983 -0.0959  0.0340
68112W        W68976  26.293   6.225  18.883 -0.2631 -0.1502 -0.0144
68113W        W68977   1.355  18.482  18.772 -0.0912  0.2612 -0.0109
68114W        W68978  19.085  24.073  19.621  0.2542 -0.2084  0.2445
68115W        W68979  19.161  28.137  15.272  0.1149 -0.0310 -0.1791
68116W        W68980   3.520   6.328  10.775 -0.4438  0.0757 -0.1974
68117W        W68981   7.018   0.643  11.621  0.2740 -0.0120  0.1421
68118W        W68982  18.398  29.040   7.283  0.1282  0.2105 -0.1934
68119W        W68983   0.724   8.719  15.765 -0.1634  0.1458 -0.1565
68120W        W68984  20.513  25.423  27.197  0.1050 -0.0087  0.3073
68121W        W68985  28.817   0.561  27.867  0.3785  0.0191  0.1122
68122W        W68986  23.004  20.546  19.534 -0.2659 -0.0259  0.2593
68123W        W68987  19.103  26.596  28.593  0.0004 -0.2498  0.2501
68124W        W68988  27.747   0.626   9.136 -0.2009  0.0691  0.1346
68125W        W68989  26.087  15.792   1.487 -0.2311  0.0760 -0.1595
68126W        W68990  26.537   2.592  24.966  0.0784 -0.1340  0.0910
68127W        W68991  22.544  26.410  12.125 -0.0343  0.0448  0.1980
68128W        W68992  18.219   3.812  20.784 -0.1227  0.1035  0.0079
68129W        W68993   3.525  23.289   5.621  0.0466  0.1321 -0.1106
68130W        W68994   2.577   2.997  21.965 -0.0702  0.1190 -0.0197
68131W        W68995  19.107   8.056  22.710  0.1222 -0.0440 -0.2037
68132W        W68996  10.360  23.240  24.819 -0.1853 -0.2052 -0.0943
68133W        W68997  23.379  15.856  23.542  0.0580  0.2936  0.1189
68134W        W68998   9.986  15.379  27.847 -0.0383  0.0886  0.1755
68135W        W68999  11.417  14.219  18.072  0.1081 -0.2375  0.0003
68136W        W69000   6.876  26.051  21.020  0.4167  0.1726 -0.0886
68137W        W69001  28.075  17.897  13.688 -0.0592  0.1868 -0.0458
68138W        W69002   2.982  21.776  22.521 -0.1320  0.1738 -0.2841
68139W        W69003  15.800  20.789  16.529 -0.1157  0.1229  0.2708
68140W        W69004   1.099  21.482  14.287 -0.0047 -0.1695 -0.0372
68141W        W69005  25.587   8.479  13.118 -0.1059  0.0234 -0.1047
68142W        W69006  16.878   7.786  28.957 -0.3352 -0.0446  0.4087
68143W        W69007  11.489   1.101   7.139 -0.0251  0.0044  0.2419
68144W        W69008  22.643  23.912  11.774  0.4308 -0.2008  0.0381
68145W        W69009   3.442  26.694  11.812  0.0662  0.2890  0.3302
68146W        W69010  20.104  22.327  19.297 -0.1967  0.2316 -0.1097
68147W        W69011  21.676  12.309   0.967 -0.0278  0.1256 -0.1874
68148W        W69012  14.038  23.179   1.097  0.1007  0.0146  0.0898
68149W        W69013  22.049  28.041  14.382 -0.0253 -0.0682 -0.2450
68150W        W69014  22.806   1.307  16.875 -0.2250  0.1490 -0.1037
68151W        W69015  16.358  20.055  19.167 -0.1444 -0.3609  0.0098
68152W        W69016  28.091  26.068  24.407 -0.0833  0.0595  0.0755
68153W        W69017   3.918  21.187  20.121  0.0171  0.1980  0.3013
68154W        W69018  12.030  19.103   9.672 -0.1303 -0.1083  0.0660
68155W        W69019  12.984  18.891  15.234  0.0167  0.1616 -0.0112
68156W        W69020   4.969  26.505   6.786 -0.1107  0.2600 -0.1395
68157W        W69021   3.100   7.061  14.865  0.1466 -0.1954 -0.0707
68158W        W69022   8.035  25.295  21.001 -0.0826 -0.2408 -0.0565
68159W        W69023  28.657  28.277   1.598 -0.0583  0.1710 -0.0729
68160W        W69024  22.632  15.314  16.185 -0.2860 -0.2496  0.2206
68161W        W69025  23.965   8.167  15.696 -0.1910 -0.0165 -0.0046
68162W        W69026  24.770  11.106  20.931  0.0717 -0.1779 -0.0377
68163W        W69027  28.819  10.912  28.330 -0.4486  0.2997  0.1661
68164W        W69028  15.412  12.742   8.889 -0.0595  0.0059  0.2603
68165W        W69029   4.425  13.146  25.508  0.2848 -0.1888  0.0901
68166W        W69030  25.150  20.465  25.153 -0.0320 -0.4602 -0.0446
68167W        W69031  22.734  25.557  14.057  0.0709  0.2528  0.2488
68168W        W69032   2.223   1.371   1.506 -0.0055 -0.0632  0.2419
68169W        W69033  28.396   0.940  11.085  0.3003 -0.0202 -0.0163
68170W        W69034   7.822  10.614  24.604 -0.2845  0.3066 -0.3064
68171W        W69035   0.309  19.063  11.345 -0.1034 -0.0919 -0.0667
68172W        W69036  22.454  22.238  19.015 -0.4855  0.1959 -0.1943
68173W        W69037  27.507  10.876  13.997 -0.0376  0.2748 -0.0915
68174W        W69038  23.309  12.155  24.618  0.0678  0.0021 -0.3030
68175W        W69039  13.555   6.926  11.939 -0.1019 -0.1889 -0.0416
68176W        W69040  14.373  21.052  17.131 -0.2081 -0.0474  0.2221
68177W        W69041  27.262  29.091  13.437 -0.3344  0.0369  0.2564
68178W        W69042   0.312  13.986  26.867  0.2141 -0.3679 -0.0510
68179W        W69043   5.542   6.512  15.889  0.1862  0.0599 -0.1190
68180W        W69044  29.069  28.131  12.549  0.0294 -0.0133  0.1178
68181W        W69045  16.038  18.586  25.943  0.6032 -0.0805 -0.1322
68182W        W69046  26.134  10.396  23.911  0.3070 -0.0826  0.0034
68183W        W69047   0.224   6.929  19.136 -0.3876 -0.3072 -0.1574
68184W        W69048  20.480   8.062   5.475  0.4443 -0.1916 -0.2288
68185W        W69049  16.503  22.399   8.904 -0.0304 -0.0480  0.0077
68186W        W69050  19.647   9.343  10.824 -0.3065  0.0678  0.0495
68187W        W69051   8.685  21.390   5.820 -0.0001  0.0857 -0.1529
68188W        W69052  27.628   8.752  18.177  0.0052  0.1567  0.0577
68189W        W69053   1.825   3.466   9.318 -0.1752 -0.0824  0.5310
68190W        W69054   0.646   7.001  20.438  0.5089 -0.1112 -0.0802
68191W        W69055  18.991   4.373  17.336  0.1147 -0.2238 -0.0791
68192W        W69056  26.900  11.373  20.486 -0.1368 -0.3353  0.0545
68193W        W69057  21.138  11.951  19.667  0.1410  0.1497 -0.0185
68194W        W69058   4.830  14.720   8.840 -0.1137  0.1123 -0.2673
68195W        W69059  15.381  16.983   6.128  0.0141 -0.2273 -0.0264
68196W        W69060  11.060  10.631  14.025 -0.1257 -0.0178 -0.1156
68197W        W69061  17.063   3.470  10.567 -0.3691 -0.1580 -0.0752
68198W        W69062   6.134  28.037  14.646  0.1237  0.2461 -0.0929
68199W        W69063  27.415   9.075   7.622  0.0083  0.0443 -0.0547
68200W        W69064  17.159  25.154  23.726  0.1603  0.1719 -0.0198
68201W        W69065  18.863  14.690  25.038  0.0960 -0.0958 -0.0330
68202W        W69066  10.572  14.953   7.443 -0.1201 -0.1126  0.1723
68203W        W69067  23.706  12.760   5.660  0.1256 -0.0432  0.0941
68204W        W69068  26.024  10.841  11.507  0.1332  0.0020  0.0601
68205W        W69069   6.599  27.461  10.665  0.1122 -0.0876 -0.0091
68206W        W69070  26.281  23.249   8.863  0.0220 -0.0214  0.4342
68207W        W69071   5.900  18.841  21.812 -0.0681 -0.0801 -0.0454
68208W        W69072  16.310   1.143   8.090  0.0079 -0.0748 -0.1145
68209W        W69073  11.536  12.981  13.959  0.0042  0.0836 -0.4250
68210W        W69074  10.842   6.046  25.102  0.0849  0.0183 -0.1598
68211W        W69075  27.565  15.826  27.548 -0.0345  0.1058  0.0220
68212W        W69076  13.186   2.080  13.842  0.0114 -0.0287 -0.1119
68213W        W69077  23.665  12.224  22.544 -0.0334 -0.0298 -0.0067
68214W        W69078  13.491  14.354  17.453  0.1541 -0.2086 -0.0260
68215W        W69079   1.019  15.842   8.235 -0.0780 -0.0007 -0.1396
68216W        W69080  24.033   2.542   2.295  0.0354 -0.1479 -0.0195
68217W        W69081  26.067  18.612  24.562  0.0873 -0.2592  0.0142
68218W        W69082  12.145   8.037  25.731 -0.2098  0.0398  0.1595
68219W        W69083  16.054  11.552  14.072  0.1607 -0.3476  0.0455
68220W        W69084  23.660   6.628  19.757  0.1365  0.0187 -0.1198
68221W        W69085  13.395  16.873  25.312  0.0534 -0.1110 -0.1640
68222W        W69086  27.645  28.895  14.562 -0.1661 -0.1038  0.0287
68223W        W69087  29.129  21.044   0.744 -0.0900 -0.2223  0.3540
68224W        W69088  15.144  19.412  14.481  0.4832 -0.2662  0.0011
68225W        W69089  26.118   5.166  16.091 -0.1531 -0.2519  0.3140
68226W        W69090  28.953   6.399  13.124  0.0605 -0.0861  0.1195
68227W        W69091  25.041   6.660  26.361 -0.1691  0.0647 -0.0716
68228W        W69092   7.657  10.984   2.205 -0.0262 -0.0784  0.2116
68229W        W69093   3.232   9.995  11.700 -0.0623 -0.1611  0.2897
68230W        W69094  26.499  21.401  24.723 -0.1103 -0.0754  0.0408
68231W        W69095  13.487  13.816  15.653 -0.2994  0.3460  0.1407
68232W        W69096  20.356  17.505  13.361  0.0712  0.0533  0.0041
68233W        W69097  20.940  23.422  10.339 -0.2576  0.1075 -0.0959
68234W        W69098   6.124   9.815  23.707  0.1404 -0.1477  0.1150
68235W        W69099  17.371   2.408  25.437  0.0379 -0.3211  0.0946
68236W        W69100   0.276  18.156  22.586  0.1217  0.1747  0.1465
68237W        W69101  26.852  10.034   4.709 -0.1075  0.2478  0.0288
68238W        W69102  27.166  23.652   5.597 -0.1315  0.0850  0.0858
68239W        W69103  25.788   3.193  11.278 -0.0519 -0.1263  0.1464
68240W        W69104  25.377  28.439  25.498  0.0494 -0.0537 -0.1186
68241W        W69105  26.442   9.209  19.434  0.1870  0.0166 -0.0930
68242W        W69106  23.226   6.719  21.338 -0.2961 -0.3437  0.0399
68243W        W69107   2.658   0.009  14.041  0.3412 -0.1460 -0.1075
68244W        W69108  25.017  23.175  15.497  0.0589 -0.1152  0.0225
68245W        W69109  22.518  17.088  12.982  0.0198 -0.1262 -0.1654
68246W        W69110  21.271  22.777  18.514  0.2667  0.0496  0.3491
68247W        W69111  24.069   4.325  21.384  0.0570 -0.1442 -0.0360
68248W        W69112  17.187   6.617  18.488 -0.0336  0.0580  0.1588
68249W        W69113  10.724  11.271   9.980  0.0203 -0.2662 -0.0478
68250W        W69114   4.395  10.448  12.733 -0.0585 -0.3375 -0.0529
68251W        W69115  20.467  14.072   6.578  0.1268 -0.0984  0.0695
68252W        W69116  27.213   2.134   0.118 -0.3869  0.1223 -0.3585
68253W        W69117  18.236  17.162  28.057 -0.4855 -0.1144 -0.0538
68254W        W69118  12.822  10.110   8.552 -0.0204  0.0247 -0.1150
68255W        W69119   3.067  23.799  12.691 -0.0308  0.0537 -0.0376
68256W        W69120  15.210   2.100  21.262 -0.0330  0.1878 -0.1089
68257W        W69121  20.680  25.086  26.902 -0.1860  0.1359  0.0632
68258W        W69122  26.957   0.871  28.897  0.0528 -0.0014 -0.2162
68259W        W69123  19.889  12.785  12.492  0.2976 -0.0864 -0.0927
68260W        W69124  24.111  16.869   5.384 -0.0005 -0.1877 -0.0545
68261W        W69125  18.278   4.959  23.128  0.1188 -0.2087 -0.2392
68262W        W69126  14.167  10.074  12.701  0.0166  0.3818 -0.4769
68263W        W69127   6.040  27.099  28.192 -0.0924 -0.0218 -0.1422
68264W        W69128  27.466  28.028   7.808  0.0283  0.1041  0.2341
68265W        W69129  17.175  28.746   7.822  0.0736  0.0526  0.1543
68266W        W69130  18.752   1.757  16.804 -0.1085  0.1793 -0.0244
68267W        W69131  22.232  15.467  16.607 -0.1289 -0.2118 -0.1497
68268W        W69132  28.412  12.298  23.442 -0.2905 -0.0862  0.2634
68269W        W69133  26.822  16.584  23.872 -0.1843  0.3572  0.0217
68270W        W69134   0.771  15.847  19.701  0.0191  0.2709  0.1860
68271W        W69135   0.816   7.929  17.659  0.1046 -0.0807 -0.0141
68272W        W69136  26.457  10.977   6.204 -0.0102  0.0644  0.1079
68273W        W69137   2.588  22.603  27.917  0.3304 -0.0981  0.1483
68274W        W69138   4.097  16.056  14.620  0.0359  0.1975  0.3709
68275W        W69139  20.066  18.506  26.279 -0.0517  0.3240 -0.1370
68276W        W69140   5.993  12.227  26.252  0.3876 -0.1997  0.0820
68277W        W69141  17.060  16.332   0.987  0.3109 -0.4059  0.2492
68278W        W69142  23.241   4.903   9.815  0.2245 -0.3604  0.0547
68279W        W69143  23.882  10.308   3.127  0.1227 -0.0535 -0.2308
68280W        W69144  19.148   0.120  16.207 -0.4241 -0.2219  0.2475
68281W        W69145  14.878  14.996  27.325 -0.1082 -0.1523 -0.3781
68282W        W69146  27.309   4.985  13.264 -0.0489  0.1494  0.0510
68283W        W69147  12.174   3.471  16.807  0.0149  0.2997 -0.1210
68284W        W69148  21.401   9.550   5.412  0.2888  0.0094 -0.4378
68285W        W69149   6.347  12.385  19.985  0.3232 -0.0764  0.1233
68286W        W69150   0.855  23.254  13.082 -0.1379 -0.3533 -0.2396
68287W        W69151   6.890  25.428  11.545  0.0474 -0.0098 -0.2499
68288W        W69152  26.829   3.104   3.728 -0.1370  0.2091  0.0942
68289W        W69153  28.968   5.217  11.901  0.0848 -0.2487  0.0826
68290W        W69154  24.136  29.141   8.196 -0.1953  0.1585  0.0317
68291W        W69155  13.745   2.279  29.128  0.0548  0.2847  0.3131
68292W        W69156  25.760  20.168   6.515 -0.0609  0.1788  0.3385
68293W        W69157  24.655  15.266   8.596 -0.0217  0.0934 -0.0230
68294W        W69158  14.090  25.668  27.640  0.1724  0.2093  0.1115
68295W        W69159  25.680  25.772   4.161  0.0196 -0.3087  0.0846
68296W        W69160  18.892  27.378   3.601  0.2082 -0.2976  0.1815
68297W        W69161  22.875  16.561   1.604  0.2143 -0.2567 -0.0660
68298W        W69162  15.165  23.306  24.494  0.1674 -0.1441  0.0576
68299W        W69163   2.041   9.060  20.322 -0.3309 -0.2199 -0.2773
68300W        W69164  12.065  18.750   7.013  0.1184  0.0473  0.1787
68301W        W69165  12.802  26.946   9.119 -0.0686  0.0663 -0.0001
68302W        W69166  12.437  18.209  25.279  0.4359 -0.5074 -0.0291
68303W        W69167   4.427  17.123   9.190 -0.0938 -0.0962 -0.1996
68304W        W69168  16.891  15.932  21.615 -0.0072 -0.0402 -0.1672
68305W        W69169   3.632   2.176   6.873  0.0448  0.1106  0.1800
68306W        W69170  24.078   4.530  16.973 -0.0927  0.1313  0.0656
68307W        W69171  27.499  16.623  19.239 -0.0043 -0.1059 -0.1745
68308W        W69172  10.967  13.320  19.032 -0.3933 -0.0091  0.4817
68309W        W69173  18.300   7.418  13.263  0.0817 -0.0856 -0.1708
68310W        W69174   9.886  14.231  16.517 -0.2762  0.0474  0.2520
68311W        W69175  15.035  24.146   2.500 -0.1612  0.1921 -0.1806
68312W        W69176  18.316  14.768  17.749 -0.2546 -0.0872  0.1678
68313W        W69177  17.424  19.881  23.246 -0.1020  0.1708 -0.2159
68314W        W69178  20.524   9.449  23.580 -0.0628  0.1082  0.0303
68315W        W69179   2.845  14.763  20.018 -0.1975 -0.2065 -0.4443
68316W        W69180   1.679  27.744  28.718 -0.2869 -0.2105  0.2385
68317W        W69181   0.369  14.995  16.603  0.4249 -0.0033 -0.1240
68318W        W69182   4.539   6.097  17.142  0.3310 -0.1476 -0.1606
68319W        W69183  22.668  22.136  21.983 -0.0230  0.0936  0.0473
68320W        W69184  18.649  12.025   6.035 -0.0129  0.2496 -0.3295
68321W        W69185   0.045  24.185  11.396  0.0752 -0.2674  0.2328
68322W        W69186   0.740  23.709  11.938  0.0739  0.3238 -0.1368
68323W        W69187  13.022  25.292   7.451 -0.2531  0.2867  0.2363
68324W        W69188   7.033  13.302  28.769  0.0091  0.0202 -0.2357
68325W        W69189  16.635   1.214  11.979 -0.1857  0.1137 -0.2852
68326W        W69190  13.541  24.748   7.431  0.2689 -0.0796  0.0993
68327W        W69191  20.501  27.927  11.502 -0.0369  0.0430  0.1689
68328W        W69192   2.200   5.886  12.169 -0.2624  0.2866  0.2157
68329W        W69193  23.257  22.086  19.128  0.1161 -0.1086 -0.0068
68330W        W69194  22.980  28.980  24.634  0.2373  0.1148  0.2434
68331W        W69195   3.331  23.785   8.030  0.1194  0.1633 -0.0927
68332W        W69196  12.267  19.379  12.004 -0.0833  0.1590 -0.0051
68333W        W69197  23.119  23.916   7.570 -0.0905  0.0459  0.2949
68334W        W69198  14.389  19.316  12.025  0.1631  0.1526 -0.1074
68335W        W69199   8.840  14.632   1.166  0.2509 -0.1041  0.1384
68336W        W69200  27.688  10.201  10.653 -0.1480 -0.0722  0.0092
68337W        W69201   7.284  26.239   8.302 -0.2882 -0.1671 -0.1465
68338W        W69202  13.646   8.979   7.066 -0.2281 -0.1191  0.0554
68339W        W69203  27.730  16.355   8.575  0.0880 -0.2899  0.0080
68340W        W69204  16.961   0.662  15.485  0.1691  0.2269 -0.0748
68341W        W69205  21.361  27.165  25.522 -0.2592 -0.2748  0.0407
68342W        W69206  25.696   3.671   3.059  0.1545  0.2220  0.2605
68343W        W69207   3.328   9.475  12.335  0.0222 -0.1960  0.0762
68344W        W69208  19.428   8.086  18.898  0.1491 -0.1975 -0.0878
68345W        W69209  19.937  20.124  13.496 -0.2367  0.1057 -0.3386
68346W        W69210  22.896  14.830  29.103  0.1773 -0.0552  0.1643
68347W        W69211  19.948  18.455  10.439  0.1967 -0.1639 -0.0946
68348W        W69212  16.783  18.187  26.114  0.0441 -0.3618 -0.2405
68349W        W69213  25.724  22.305  23.092 -0.0468  0.1304  0.4136
68350W        W69214  21.021  17.670   1.067  0.2133  0.1721 -0.1246
68351W        W69215  24.633  17.233  26.813  0.1650 -0.0879  0.0106
68352W        W69216   0.826  25.588  25.579 -0.3207  0.0574  0.2350
68353W        W69217   6.283  27.464   3.790  0.1192  0.4620  0.1725
68354W        W69218  12.382  25.851  15.693  0.0849  0.3035 -0.1153
68355W        W69219  21.859  13.246  23.690 -0.0618 -0.1036  0.0804
68356W        W69220   1.219  13.150   0.893 -0.1794 -0.2103 -0.1232
68357W        W69221  20.166  20.898  15.195 -0.0254  0.1327 -0.1536
68358W        W69222  23.201   0.962  21.884  0.0781 -0.1446 -0.0995
68359W        W69223  11.017  24.450  17.481  0.1022  0.0690  0.1934
68360W        W69224  22.524  20.684  24.194 -0.0207 -0.0351 -0.1527
68361W        W69225  19.292   9.521  10.505 -0.4098 -0.1895 -0.1480
68362W        W69226  16.109  17.150  21.026 -0.2220  0.0652 -0.1057
68363W        W69227  27.649  17.148   7.280 -0.0475 -0.0083 -0.0044
68364W        W69228  24.477   8.221  27.843 -0.0074  0.1309 -0.1257
68365W        W69229  15.484  25.417  23.582  0.1871 -0.4652  0.0091
68366W        W69230   2.503   4.240  16.043 -0.1605 -0.0876 -0.0664
68367W        W69231  18.547  10.144  23.744  0.0251 -0.0868 -0.1840
68368W        W69232  24.756  11.039  23.791 -0.2711  0.1388  0.1093
68369W        W69233   3.570  16.836  22.262 -0.0873 -0.1684 -0.0842
68370W        W69234   4.740   8.759  16.726  0.0883 -0.0531  0.1070
68371W        W69235  15.484  20.799  17.566 -0.0061 -0.0105 -0.0112
68372W        W69236  18.199  22.628   9.202 -0.1833 -0.1864  0.2194
68373W        W69237  21.084  28.982  20.333 -0.2580 -0.1912  0.3672
68374W        W69238  20.182   5.771  13.115 -0.0976  0.0011 -0.0793
68375W        W69239   0.558  23.094   5.734  0.2689 -0.2366  0.0033
68376W        W69240   3.136  23.304  19.809  0.1941  0.1005 -0.1984
68377W        W69241  28.516  11.520  17.628 -0.1150 -0.2941  0.0664
68378W        W69242  15.940  20.595  14.404  0.1178 -0.0966 -0.1410
68379W        W69243   3.195  19.960  23.172  0.3299 -0.5415  0.3931
68380W        W69244  20.240   3.909   6.254 -0.3059  0.6846  0.0064
68381W        W69245   5.597  20.298  26.621  0.2713 -0.1889 -0.1334
68382W        W69246  16.869   6.014  19.573 -0.0606 -0.0992  0.0653
68383W        W69247  15.614  12.236  12.317  0.1861  0.2204  0.2164
68384W        W69248  17.520  27.154   8.791 -0.0027 -0.0457  0.1165
68385W        W69249  18.563  12.363  13.600  0.1913  0.0587  0.3995
68386W        W69250  16.926  26.101  21.623 -0.0577  0.0249  0.0323
68387W        W69251   0.259  21.985  21.254  0.1606 -0.0891 -0.0305
68388W        W69252   5.492   7.842   3.514 -0.0401 -0.1863  0.3571
68389W        W69253  18.165  15.314  20.222  0.0369 -0.1938  0.1448
68390W        W69254  24.057  18.576  11.804 -0.1733  0.2330  0.0040
68391W        W69255   2.371  21.635  15.983 -0.0141  0.1812 -0.0866
68392W        W69256  21.234   1.042  17.900 -0.1491  0.0808  0.2398
68393W        W69257  24.047  24.828  13.123 -0.2214 -0.3079  0.1989
68394W        W69258   2.734  11.863   6.612 -0.2476 -0.1759 -0.0483
68395W        W69259  12.573  27.906   9.283 -0.2052  0.1599  0.1278
68396W        W69260  17.196  26.264  18.344 -0.1614  0.1063  0.0562
68397W        W69261   4.646  13.340   3.928  0.0717  0.1586 -0.2272
68398W        W69262  18.296   6.281  23.835  0.1609  0.1714  0.0269
68399W        W69263  22.806  22.748  11.547 -0.0471 -0.0262 -0.2807
68400W        W69264  21.324  11.552  10.444  0.0388  0.2764  0.1160
68401W        W69265   2.536   5.468  22.043 -0.1972 -0.2303 -0.1189
68402W        W69266  13.207  20.771   3.925  0.2627  0.0331 -0.3703
68403W        W69267   4.557  13.286   3.306 -0.0328  0.1451 -0.0930
68404W        W69268  14.981  15.832  15.823  0.1678  0.0851 -0.1559
68405W        W69269  25.101  10.997  16.253 -0.0241 -0.0866 -0.3481
68406W        W69270  17.658  17.265  19.416  0.2267 -0.2917  0.3048
68407W        W69271   2.085  17.212  28.222  0.0622 -0.3713  0.1863
68408W        W69272   0.370   1.220  11.378  0.0516  0.1398  0.3880
68409W        W69273  20.533  23.846  17.342 -0.0225  0.1770  0.0025
68410W        W69274  15.159   2.202   4.495 -0.2968 -0.0512 -0.0397
68411W        W69275  26.834  12.296  10.904  0.1942 -0.0955 -0.3930
68412W        W69276  20.685  19.810   2.449  0.0454 -0.0527 -0.1679
68413W        W69277   0.016  13.813  12.531 -0.0742  0.2317 -0.1387
68414W        W69278   3.608  21.404   9.107  0.1829 -0.3017  0.0636
68415W        W69279  16.265   6.654   1.611  0.0071 -0.2804 -0.0369
68416W        W69280  23.624  16.777  26.176  0.0565  0.0692  0.2648
68417W        W69281  19.696  26.844  12.665  0.0800 -0.2825 -0.1359
68418W        W69282  28.770  12.528   3.781  0.4669 -0.1190  0.1669
68419W        W69283  28.337  21.321  19.136  0.0330  0.0557  0.1846
68420W        W69284  10.492  14.734  16.021  0.3057  0.0356 -0.0995
68421W        W69285  17.621  26.973  17.753 -0.1684 -0.1058  0.1282
68422W        W69286  25.324  27.014   5.751 -0.1566  0.1799  0.2028
68423W        W69287   1.717  13.717  25.714  0.0797  0.1783  0.0690
68424W        W69288  28.874  18.783  23.587  0.0012  0.0305  0.1579
68425W        W69289   4.393   7.187  14.186 -0.2585  0.1524 -0.0705
68426W        W69290  13.901   4.339  11.966  0.2093 -0.0050 -0.1672
68427W        W69291  13.503  20.244  12.800 -0.3155  0.2037 -0.0027
68428W        W69292  18.783  21.010  14.051  0.0902 -0.1959 -0.0498
68429W        W69293  18.159   1.056   0.477  0.2861 -0.0762 -0.1353
68430W        W69294   4.011  11.828  14.045  0.0312  0.4732 -0.1005
68431W        W69295  19.996  12.082  24.663  0.0389  0.1303  0.0219
68432W        W69296  18.961   9.615  27.060 -0.0262 -0.1091 -0.0828
68433W        W69297  21.719  15.506  28.715 -0.1210  0.0788 -0.1032
68434W        W69298   2.620  14.931  17.235  0.0856  0.1473  0.2316
68435W        W69299   1.198  10.959   7.633  0.1450 -0.0081 -0.3391
68436W        W69300   9.821  18.886   9.061  0.0564 -0.1623 -0.0045
68437W        W69301  24.055  22.819  27.091 -0.0915  0.0362  0.0380
68438W        W69302   9.766  22.497   9.400 -0.2325  0.0653 -0.1135
68439W        W69303  14.076  28.980   6.689  0.3118 -0.0050  0.1095
68440W        W69304  12.076   8.353   7.330  0.0891  0.1037 -0.1240
68441W        W69305  21.239   7.088   4.362 -0.0154  0.1051 -0.2119
68442W        W69306   8.928  14.183   0.092  0.1058 -0.0636 -0.3035
68443W        W69307  24.417  23.113  13.193  0.1792  0.3307 -0.1848
68444W        W69308   0.024  21.297   9.167  0.0741  0.0879  0.1510
68445W        W69309   5.347  18.012  12.538 -0.0748  0.1041  0.1540
68446W        W69310  17.496  15.527   7.293 -0.0154  0.2430 -0.0754
68447W        W69311  21.027  18.869  17.609 -0.2581 -0.3772 -0.0305
68448W        W69312   6.828   0.016  16.754  0.3078  0.3890 -0.0201
68449W        W69313  26.435  17.365  19.195 -0.0710  0.0263  0.0733
68450W        W69314  20.628  12.817   0.073  0.1703 -0.2692  0.2432
68451W        W69315   9.438  16.907   2.088 -0.0324 -0.1691  0.2362
68452W        W69316   2.019  10.976   9.055 -0.1213 -0.0863 -0.0857
68453W        W69317  15.621   1.959  26.442  0.2083 -0.2794  0.1032
68454W        W69318  15.538  14.981   8.166  0.1353 -0.1481 -0.1222
68455W        W69319   2.435   0.129  24.624  0.0911  0.1458 -0.0699
68456W        W69320  22.576  18.228  16.264 -0.1054  0.0088 -0.0469
68457W        W69321   3.516  21.791  24.376 -0.2489  0.0182  0.1291
68458W        W69322  28.325  25.400  18.976 -0.0223  0.1398 -0.0363
68459W        W69323  22.871  18.380  23.354 -0.1779 -0.1264 -0.0367
68460W        W69324  21.504   6.370   5.107 -0.2553  0.4359 -0.1828
68461W        W69325   5.212   3.493   0.236 -0.1226 -0.0140  0.0634
68462W        W69326  17.455  18.928   6.036  0.0222  0.0480 -0.2246
68463W        W69327  17.731   6.608  24.538  0.1304 -0.3178 -0.0900
68464W        W69328  10.132  25.407  13.535  0.0598 -0.1828  0.0211
68465W        W69329   7.546  19.780  10.701 -0.1548 -0.0687  0.3836
68466W        W69330  15.330   5.741   3.059 -0.0345 -0.0318  0.0707
68467W        W69331  26.208  20.312  24.256 -0.1539 -0.1262 -0.0141
68468W        W69332  24.530  19.051   1.943 -0.0827  0.1213  0.0374
68469W        W69333  19.785  19.653  11.472  0.0273  0.0865 -0.2942
68470W        W69334   9.930  27.094   1.701 -0.0407 -0.0745 -0.2047
68471W        W69335  20.294   1.976  18.395  0.2905  0.2058 -0.0136
68472W        W69336  18.057  19.020   7.648  0.2141 -0.1265  0.1749
68473W        W69337  28.584  28.846   5.422 -0.2217 -0.3654 -0.2542
68474W        W69338   5.702  24.203   8.951 -0.0654 -0.0154 -0.0822
68475W        W69339   0.338  10.528  25.526  0.0414  0.4735 -0.2027
68476W        W69340  18.272  16.922  27.277 -0.1327  0.0723 -0.3059
68477W        W69341  26.689   2.133   2.438 -0.1035  0.1093  0.1031
68478W        W69342   6.272  15.555  19.349 -0.1052 -0.0178  0.0740
68479W        W69343  28.337  21.671  19.546 -0.1297  0.0218  0.1689
68480W        W69344  21.526   9.542  27.774  0.3109  0.0500  0.1072
68481W        W69345  16.897  26.603  20.981 -0.1592 -0.2185  0.1158
68482W        W69346  18.649  28.657   1.111  0.2278 -0.3572  0.1295
68483W        W69347  26.757  16.153  18.209 -0.0731  0.2022  0.0600
68484W        W69348  14.539  17.002  19.648 -0.0480  0.1046  0.0135
68485W        W69349   0.289   3.584   2.914 -0.0299  0.3307 -0.3789
68486W        W69350  19.026  12.157  22.249 -0.2727 -0.0236 -0.0586
68487W        W69351  16.093   7.766  10.560 -0.2750 -0.0887  0.2986
68488W        W69352  19.942  19.821  10.989 -0.2808 -0.0443  0.2330
68489W        W69353  24.513  12.739   6.299  0.0966  0.1793  0.1504
68490W        W69354  23.360  21.061  13.062 -0.2001  0.3334  0.2027
68491W        W69355  18.005   5.671   4.115 -0.1831  0.0112  0.1989
68492W        W69356  10.907  10.532   0.209  0.1342  0.0622 -0.3121
68493W        W69357  24.448   7.267  20.850 -0.0183 -0.1033 -0.0132
68494W        W69358  18.191  23.754  15.139  0.2449 -0.1091 -0.0725
68495W        W69359  17.784  14.656   7.002 -0.0350 -0.0401 -0.0167
68496W        W69360  18.557   3.239  23.933  0.1072 -0.1005  0.0099
68497W        W69361  20.061  20.625  20.897  0.1225 -0.0281 -0.1040
68498W        W69362   0.757  15.601   4.501  0.1182 -0.2256  0.0138
68499W        W69363  17.635  19.763  19.026  0.0195  0.2312  0.1105
68500W        W69364  24.727   2.058  18.738  0.0074 -0.3094  0.0647
68501W        W69365  13.683   8.476  17.147  0.0736  0.0359 -0.0925
68502W        W69366  26.158  12.804  18.516 -0.1383 -0.2839 -0.5991
68503W        W69367   8.326  16.618   4.763  0.0405 -0.4258 -0.1694
68504W        W69368  13.553  26.884   9.191  0.1277  0.1911  0.0719
68505W        W69369   6.685  11.368  18.287  0.0062 -0.0388 -0.1273
68506W        W69370   4.982  13.719   2.228 -0.0177  0.1172  0.1888
68507W        W69371   2.625  17.132   3.320  0.0916 -0.2034  0.0413
68508W        W69372   7.552   6.016   7.084 -0.0832  0.2783  0.2038
68509W        W69373  23.962  10.091  16.193  0.0476  0.1420 -0.0837
68510W        W69374  19.025   6.409  27.377  0.1049  0.2607  0.2513
68511W        W69375  26.986  10.153  29.120 -0.4568  0.0469  0.1920
68512W        W69376  16.374  18.306  19.456 -0.1595 -0.0086 -0.0732
68513W        W69377  21.567  25.605   2.265 -0.0495  0.1467 -0.0115
68514W        W69378   2.976   8.915   7.378  0.1583  0.0195 -0.2364
68515W        W69379  24.206  22.437  24.712 -0.0709  0.0166  0.1474
68516W        W69380  26.395  14.365  23.187 -0.1304  0.0783 -0.1889
68517W        W69381  19.449  21.384  23.749  0.2420  0.1924 -0.2450
68518W        W69382  19.796  20.622  19.009  0.1740  0.0447  0.1153
68519W        W69383  23.158   1.985  11.470 -0.0566  0.1514  0.0536
68520W        W69384  14.816  19.460  28.696  0.0404 -0.0538 -0.0731
68521W        W69385   7.614   9.766   3.905 -0.2713  0.0428  0.1694
68522W        W69386   3.114  19.201   7.305  0.0330  0.2124 -0.0690
68523W        W69387   1.095  22.786   1.572 -0.1277 -0.0970  0.3083
68524W        W69388   6.658  10.436  15.501 -0.0470 -0.1813 -0.0786
68525W        W69389  13.541  12.475  21.916 -0.0137 -0.0923 -0.1790
68526W        W69390  26.972   8.402  11.167 -0.1553  0.4121 -0.1287
68527W        W69391  23.859  20.395   0.629  0.1015  0.0253  0.2427
68528W        W69392  17.099   8.974   9.479 -0.1948  0.0891  0.2367
68529W        W69393  18.560  16.663   0.727  0.0502 -0.1674 -0.0406
68530W        W69394  18.050   1.497   2.526  0.0805  0.1569 -0.2196
68531W        W69395  21.688  16.837  18.269 -0.1275 -0.0682  0.1395
68532W        W69396  16.088  22.375  27.235  0.0511 -0.0758 -0.0530
68533W        W69397  22.055  12.937   4.887  0.2053 -0.0463 -0.0915
68534W        W69398  15.459   1.240  20.718 -0.0807  0.0939  0.0071
68535W        W69399  10.754  21.434  16.035  0.0041 -0.2935  0.0403
68536W        W69400   1.444   3.575  28.903 -0.0293  0.0303  0.0484
68537W        W69401  14.510  23.299   0.055  0.0162 -0.2103  0.0752
68538W        W69402  10.330  21.634   9.426  0.2178 -0.0422  0.1860
68539W        W69403   5.341   2.777  12.298  0.1565  0.0552  0.1802
68540W        W69404  22.141   9.193  15.752  0.3684  0.0424 -0.2117
68541W        W69405  26.960  28.308  26.860  0.1203  0.0544  0.4307
68542W        W69406  24.429  13.677   9.372  0.0394 -0.0192 -0.1909
68543W        W69407  17.532  16.623   9.646  0.1136  0.2497  0.0969
68544W        W69408  26.070  16.197  14.674  0.2523 -0.1871 -0.4141
68545W        W69409  14.872  20.630  20.569  0.0615  0.0806 -0.3003
68546W        W69410   2.825   5.656  17.874  0.0350  0.3470 -0.0836
68547W        W69411   1.414   7.086  18.024 -0.2852  0.2612 -0.2038
68548W        W69412  13.618   7.247  25.165  0.1452  0.1008  0.0602
68549W        W69413  17.797  13.905  15.162 -0.0605  0.0734 -0.2526
68550W        W69414   8.186  15.003  15.951  0.1360  0.2250 -0.4639
68551W        W69415  23.516  14.367   1.797  0.1493 -0.2717 -0.1742
68552W        W69416  23.951  13.943   1.930 -0.0580  0.0847 -0.1812
68553W        W69417  22.603  24.907  25.704  0.0201  0.1762 -0.0887
68554W        W69418  25.720  27.990  23.636 -0.1512 -0.1498  0.3249
68555W        W69419  16.220  15.711   4.649 -0.0276  0.0741 -0.1842
68556W        W69420  22.687  13.686  23.597 -0.0657  0.1247 -0.0264
68557W        W69421  11.255   2.868  28.575 -0.1493 -0.4140  0.0043
68558W        W69422  27.590  23.728   5.242  0.2566 -0.1514  0.1946
68559W        W69423  28.874  12.217  16.778 -0.0267 -0.1327 -0.0452
68560W        W69424  28.446  13.574  23.071 -0.0104  0.1515  0.1273
68561W        W69425  22.112  14.213  23.683 -0.2909 -0.2127  0.2566
68562W        W69426  22.714   2.742  20.898  0.1416  0.0665  0.0240
68563W        W69427  22.923  19.110   1.983  0.1415  0.0652 -0.1553
68564W        W69428  12.164  11.415  25.954 -0.1726  0.1683 -0.1218
68565W        W69429   2.272  27.806  12.374  0.0918 -0.0100  0.1867
68566W        W69430  24.588  18.952  17.290 -0.1054  0.0703 -0.1512
68567W        W69431  12.753  14.321  11.307 -0.1123  0.2120  0.2968
68568W        W69432  22.909  16.344  23.267  0.0281  0.1886 -0.0370
68569W        W69433   6.738  22.930  27.185 -0.4101 -0.1093 -0.0399
68570W        W69434   7.282  18.375  13.909 -0.0452 -0.1843  0.3525
68571W        W69435  28.838  13.692  19.256 -0.3616  0.0151 -0.1752
68572W        W69436   4.511  26.718   5.697 -0.1254  0.0884  0.1037
68573W        W69437  21.678  10.596  15.784  0.1697  0.1751 -0.2703
68574W        W69438  19.489   5.918  18.960  0.0856 -0.0215 -0.1275
68575W        W69439  10.360   5.967  16.251 -0.0100  0.1823  0.0086
68576W        W69440   4.398  19.556  17.446 -0.0027  0.1772 -0.3430
68577W        W69441   0.440  15.004  21.557 -0.0919  0.1131  0.0291
68578W        W69442  21.014  17.727  28.793  0.3289  0.1178 -0.1171
68579W        W69443  15.677  14.224  22.146 -0.2575 -0.3006 -0.0153
68580W        W69444  25.099   9.114  11.380 -0.0391  0.1447 -0.0822
68581W        W69445   1.758  21.703   0.610  0.0177  0.3700  0.1538
68582W        W69446  23.968  14.521   6.745  0.1805 -0.0630 -0.0841
68583W        W69447  20.289   1.433  16.489  0.1541  0.1318  0.0396
68584W        W69448  13.443   7.571  22.041 -0.2615 -0.0107 -0.0450
68585W        W69449  22.735  22.819  21.650 -0.1389  0.2690 -0.1559
68586W        W69450   3.484  12.517  15.512 -0.2623  0.0589 -0.2678
68587W        W69451  23.516  11.663   5.924  0.0565  0.0299  0.0548
68588W        W69452   0.344  27.321   6.983 -0.1637 -0.1914  0.0688
68589W        W69453   0.640  11.596   3.921 -0.0071  0.3527  0.1492
68590W        W69454  23.516  24.506  28.795 -0.3066  0.4661  0.0043
68591W        W69455  15.754  23.859  28.637 -0.1872  0.0935 -0.1992
68592W        W69456  18.307  20.865  19.427 -0.5254 -0.2182  0.1233
68593W        W69457  28.773  23.604  25.028 -0.3386  0.1228  0.0498
68594W        W69458   9.649  28.694   7.783 -0.3902 -0.0402 -0.1942
68595W        W69459  17.945  19.896  14.341 -0.0229 -0.2575 -0.1869
68596W        W69460  26.900   6.529   3.576  0.2493 -0.2339  0.2130
68597W        W69461  22.322  11.093   6.829  0.1648 -0.2834  0.0562
68598W        W69462  25.592  23.413   1.183  0.1134 -0.3508 -0.0217
68599W        W69463  11.334  11.699   3.310  0.0031  0.1762  0.1812
68600W        W69464   7.893  20.990  22.882  0.1416  0.1382 -0.1800
68601W        W69465  17.675   9.364  16.724 -0.1905  0.0249  0.2011
68602W        W69466   4.192  16.695  13.071 -0.1707 -0.0864 -0.0283
68603W        W69467   0.261  11.278   0.065 -0.0148 -0.2743 -0.2434
68604W        W69468   1.308  21.137  21.449  0.0273  0.1118  0.1522
68605W        W69469   1.352  14.140  12.238  0.4362  0.0333 -0.0520
68606W        W69470  22.538  26.140  24.946 -0.1592 -0.3397  0.1291
68607W        W69471  13.586  15.537  26.962  0.3063  0.0839 -0.0613
68608W        W69472  23.664  23.559  25.719 -0.0944  0.1396 -0.1950
68609W        W69473  16.450  21.626  15.518  0.3131 -0.1140 -0.0334
68610W        W69474  22.059  15.683   0.658  0.1542 -0.3337 -0.1318
68611W        W69475  12.216   7.818  24.006  0.0807 -0.3899 -0.0887
68612W        W69476  12.417   9.693  17.449  0.2881 -0.0779 -0.1859
68613W        W69477  22.197  21.662   6.209  0.2547 -0.2948 -0.1186
68614W        W69478  24.716   7.259  17.060 -0.0401  0.1412  0.2759
68615W        W69479  11.841  17.967   7.209 -0.2447  0.1320 -0.1371
68616W        W69480  12.067   6.916   0.987  0.0889  0.0520  0.0874
68617W        W69481   0.228  21.854  27.488 -0.1446 -0.3091  0.1458
68618W        W69482  20.309   6.492  13.141 -0.1183 -0.0825 -0.1639
68619W        W69483  14.955  12.498  10.824 -0.2093  0.0359  0.1234
68620W        W69484  12.421  28.431  24.318  0.1268  0.0856 -0.1499
68621W        W69485   5.673  19.819   1.292  0.2691 -0.2817  0.2029
68622W        W69486  28.102  22.207  12.121 -0.0798  0.0788  0.0236
68623W        W69487   4.367   8.600  28.612 -0.1891 -0.1581 -0.1002
68624W        W69488   0.723  22.903   9.062 -0.0499 -0.1702 -0.2065
68625W        W69489  19.801  18.381  19.495 -0.0856  0.2717 -0.2646
68626W        W69490  25.575   4.966   3.414 -0.1559  0.2949  0.2305
68627W        W69491   2.613   0.718  15.085  0.2058 -0.0615  0.0787
68628W        W69492  11.543  17.170  14.734  0.0612 -0.3566  0.0324
68629W        W69493  11.621  21.249   2.808  0.0086 -0.0770 -0.1370
68630W        W69494  20.520   5.560  10.917  0.1836 -0.2203  0.1425
68631W        W69495  27.218   3.802   1.898  0.0405  0.3110 -0.0108
68632W        W69496  24.930  16.080  17.894 -0.2235 -0.1263 -0.2945
68633W        W69497   9.795  17.307  19.370 -0.0367  0.1765  0.0775
68634W        W69498   9.649  21.541   2.337  0.0923  0.1274  0.1491
68635W        W69499   8.469   8.707  26.997  0.1207  0.4089 -0.3634
68636W        W69500  17.888  13.872  23.011 -0.3074  0.4232  0.0325
68637W        W69501  16.090  23.157   7.825 -0.0478 -0.0655 -0.1551
68638W        W69502  20.733  17.563   3.680 -0.0086 -0.2188 -0.0670
68639W        W69503  23.374   6.610   8.583 -0.2169  0.2627  0.2566
68640W        W69504  15.377  18.723  18.034 -0.0650  0.2586  0.0313
68641W        W69505  21.138  18.544   3.090 -0.0698  0.0396 -0.0007
68642W        W69506  22.773  28.087  17.219  0.5793  0.1231 -0.1361
68643W        W69507   6.987  14.167   9.568 -0.0160 -0.0062 -0.1229
68644W        W69508  12.360   5.853   8.965 -0.1017 -0.1031 -0.0305
68645W        W69509  26.639   8.043  27.867  0.0276  0.0160  0.0303
68646W        W69510   0.356   0.525  20.064 -0.2834  0.0425  0.2799
68647W        W69511  21.317  28.822  22.162  0.1609  0.1326  0.1664
68648W        W69512   2.202   1.541   9.381 -0.1093  0.4075  0.4064
68649W        W69513  10.651  10.239  22.572  0.0233  0.0674 -0.0024
68650W        W69514  18.628  12.293  27.652  0.0004 -0.4461 -0.0009
68651W        W69515  11.500  21.690   7.375  0.1688 -0.0622  0.1802
68652W        W69516  13.242  25.232  24.658  0.0997  0.2506 -0.0175
68653W        W69517   2.840   3.424  20.745  0.1559  0.0905  0.3756
68654W        W69518  11.861   5.594  17.318  0.0162 -0.0235 -0.4816
68655W        W69519  23.478  20.756   6.302 -0.1150 -0.0641 -0.1383
68656W        W69520   2.316  13.198   1.481 -0.0520  0.3139  0.1139
68657W        W69521  21.651  11.973   9.602 -0.1410 -0.0796 -0.0649
68658W        W69522  18.907   1.074  26.632 -0.1909 -0.1020  0.3313
68659W        W69523  24.919  18.751  28.785 -0.1922  0.0257  0.1441
68660W        W69524  17.403   1.156  23.722  0.1611 -0.0427 -0.0903
68661W        W69525  19.039  18.288  10.802 -0.0669 -0.2021  0.1126
68662W        W69526  16.041   8.822  21.106  0.0890  0.1950 -0.0727
68663W        W69527  15.841  17.358  29.104  0.1627  0.2383  0.1033
68664W        W69528  14.771  26.052   0.662  0.0077  0.3468 -0.2313
68665W        W69529  27.345  13.431  20.270 -0.0263 -0.1803 -0.1811
68666W        W69530  28.102   2.825   4.428  0.0406  0.2202 -0.3186
68667W        W69531  23.564  18.954   4.791  0.0857 -0.0001  0.0130
68668W        W69532  15.381  27.679   0.032  0.1643 -0.5553  0.0543
68669W        W69533   6.462  26.216  13.974 -0.0031  0.3429  0.2425
68670W        W69534  15.611   5.550  22.101 -0.1474  0.1712  0.4555
68671W        W69535  25.509   8.731   9.626  0.1134  0.1343 -0.1346
68672W        W69536  24.364   4.518   5.620 -0.0146 -0.2536 -0.0473
68673W        W69537  11.218  28.368   7.939  0.0705 -0.0407 -0.0368
68674W        W69538  24.977  16.353  28.106  0.0339  0.2390  0.1821
68675W        W69539  27.138  28.159  22.170 -0.0788  0.0385  0.0756
68676W        W69540   9.197  24.413  24.885  0.0374  0.1200 -0.0790
68677W        W69541  23.238   8.560  28.132 -0.0788  0.3232 -0.1324
68678W        W69542  28.797  16.558  24.126 -0.4812 -0.1809  0.2000
68679W        W69543  23.142  29.064  18.155 -0.1112 -0.0479  0.1221
68680W        W69544   5.277   4.847  26.470  0.1236  0.3255 -0.2988
68681W        W69545   9.352   9.436  26.717 -0.0732 -0.0388 -0.0124
68682W        W69546  19.122   5.276  22.693 -0.0183 -0.0755 -0.2429
68683W        W69547  12.137   9.502  21.347 -0.2217  0.0771  0.3688
68684W        W69548  26.756   6.377  17.360 -0.1172 -0.0644  0.2436
68685W        W69549   1.078  20.379  12.339 -0.0122 -0.1805  0.3824
68686W        W69550  17.944   0.390  13.340  0.2727 -0.0320  0.1454
68687W        W69551   7.728  17.540  12.078 -0.0811 -0.3417 -0.1475
68688W        W69552  10.718  21.623  12.894  0.0534  0.2986  0.0286
68689W        W69553  28.653  16.755  21.189 -0.1754 -0.1696  0.0742
68690W        W69554  13.695  25.894  11.686  0.0771  0.1510  0.0681
68691W        W69555  14.259  28.343  25.374  0.2846 -0.1913 -0.4746
68692W        W69556  28.560  16.438   1.585  0.0897  0.0274 -0.1086
68693W        W69557  27.622   0.652   8.563  0.2119  0.0400  0.0400
68694W        W69558   2.788  13.048  13.309  0.0355  0.1815  0.0014
68695W        W69559  12.427  26.801   1.679  0.2014  0.1410 -0.2995
68696W        W69560  11.741   0.637   6.043 -0.2165 -0.0106 -0.1741
68697W        W69561  28.740  10.394  20.710  0.1002  0.0987 -0.0064
68698W        W69562  12.415  28.210  11.571 -0.1001  0.0238  0.2377
68699W        W69563   5.612   2.969   9.637 -0.0774  0.0254 -0.2294
68700W        W69564  22.493   6.053   2.553 -0.2846  0.2118 -0.0322
68701W        W69565  20.247  21.136  20.625 -0.1148 -0.1657 -0.1033
68702W        W69566  19.835  11.873   6.321 -0.1478 -0.1342  0.3310
68703W        W69567  11.913  16.392  23.443 -0.2024  0.1412 -0.0173
68704W        W69568   3.763   0.912  25.367  0.0003 -0.1399 -0.1512
68705W        W69569  21.081  28.940  21.088  0.0819 -0.0875 -0.1074
68706W        W69570   9.471  14.039   0.967 -0.1113 -0.0389 -0.2624
68707W        W69571  23.803  16.697  28.919 -0.0184 -0.3860  0.1526
68708W        W69572  26.816  13.129  26.640 -0.0525  0.2210 -0.2841
68709W        W69573   9.845   2.250  17.063 -0.1211  0.1905  0.1046
68710W        W69574  21.840  24.642   3.923  0.1890  0.0638  0.1676
68711W        W69575  17.634  21.326  13.282 -0.1068 -0.2252  0.1668
68712W        W69576  27.307  22.657  10.591  0.0232 -0.1848 -0.3098
68713W        W69577  27.034  22.568   0.981 -0.1086 -0.2084 -0.1668
68714W        W69578  26.343  22.188  16.382 -0.0424  0.3455 -0.0510
68715W        W69579   7.011  14.464  11.924  0.0812  0.2196  0.2959
68716W        W69580  15.585   8.767  19.755  0.0698  0.3036 -0.1414
68717W        W69581  18.302  12.137  11.458 -0.1202  0.0881 -0.2874
68718W        W69582  21.858  24.100  14.274 -0.0922  0.1250  0.0633
68719W        W69583   9.465  27.060  24.419 -0.1578  0.2352  0.1159
68720W        W69584  20.139  14.595  29.133 -0.1921  0.1105 -0.0382
68721W        W69585  28.797   0.173  28.293  0.1375  0.4386 -0.2102
68722W        W69586  17.498  15.304   2.651  0.2922 -0.4078 -0.0723
68723W        W69587  29.132  25.217  18.434 -0.2355  0.2221  0.5698
68724W        W69588  27.188  13.053  17.008  0.2036 -0.0499  0.0869
68725W        W69589  21.001  12.440  19.443  0.0524 -0.2498  0.1406
68726W        W69590  20.410  10.553  10.586 -0.0566  0.2430 -0.0445
68727W        W69591   0.714   2.058  28.832  0.0001 -0.5210 -0.0355
68728W        W69592  23.483  24.041   5.712  0.1418  0.0530 -0.2947
68729W        W69593   3.745  22.539  16.777 -0.0500  0.2800 -0.0727
68730W        W69594   1.669  13.049   1.109  0.1713 -0.1812  0.1344
68731W        W69595  10.929  18.700   4.383 -0.1768 -0.1797 -0.4406
68732W        W69596   5.837  10.899  19.498 -0.0666 -0.0475  0.3053
68733W        W69597  11.375  15.854  22.090  0.0428  0.0777  0.0334
68734W        W69598  26.522  20.756  11.397 -0.0124  0.0924 -0.0359
68735W        W69599  15.989  20.670  26.822  0.0540 -0.1071  0.1106
68736W        W69600   9.013  26.643  15.110  0.2109 -0.1011  0.1279
68737W        W69601  16.437   7.678  22.147  0.2295 -0.1495 -0.0024
68738W        W69602  20.321   4.996  15.842  0.1845  0.3859  0.1863
68739W        W69603  25.504  22.031  16.593 -0.2410 -0.0453  0.2465
68740W        W69604  19.332  12.639  21.059  0.1638  0.1000  0.4090
68741W        W69605  26.900  20.836  14.236  0.1665 -0.1147 -0.1191
68742W        W69606  26.129   8.823   5.668 -0.5478  0.3308 -0.2674
68743W        W69607  23.081  23.622   5.337  0.0151 -0.1706 -0.4027
68744W        W69608   8.860  19.523   7.850  0.0684 -0.0595 -0.0059
68745W        W69609   8.609   2.027   4.473  0.0197  0.0411  0.1090
68746W        W69610  10.081   6.703  23.387 -0.4848 -0.0533  0.0178
68747W        W69611  17.126  13.563  23.504  0.0411 -0.0843  0.2093
68748W        W69612  23.957  14.722  24.702  0.3087 -0.0362 -0.0222
68749W        W69613  23.807  14.508   9.487  0.1417  0.0667  0.4632
68750W        W69614  13.375  10.460  13.382  0.4708 -0.1888  0.2168
68751W        W69615   8.084  12.868   4.041  0.2809  0.0584  0.2133
68752W        W69616   6.194   8.067  18.639 -0.1399 -0.0489 -0.0414
68753W        W69617  20.560  19.742  17.626  0.2943  0.0267  0.0826
68754W        W69618  11.084  25.688  18.422  0.2259  0.1961 -0.3957
68755W        W69619   7.407  22.687   1.483  0.0086 -0.3443 -0.3544
68756W        W69620  19.833  28.556   3.251  0.0162 -0.0801  0.2244
68757W        W69621   7.799  21.073  19.222  0.0596  0.0901 -0.2671
68758W        W69622  19.762  15.485  23.592  0.2802  0.0566 -0.0403
68759W        W69623   6.805   2.079  16.519 -0.2402 -0.3809  0.4240
68760W        W69624  19.203  16.987   0.069  0.0469  0.1911 -0.0567
68761W        W69625  28.603  18.273  25.190 -0.1951  0.0143 -0.1509
68762W        W69626  11.832  22.824  21.970  0.2596 -0.2271  0.1591
68763W        W69627  25.674  10.280  20.486  0.1282 -0.1122 -0.0067
68764W        W69628  27.742  14.205  26.304 -0.0014 -0.0064  0.1148
68765W        W69629  13.390  21.383  24.380 -0.0031  0.2352  0.2107
68766W        W69630  20.663   8.765  17.734 -0.4474  0.2099  0.1030
68767W        W69631   2.974  24.303   4.994  0.1839 -0.0954 -0.1021
68768W        W69632  13.105  15.358  14.719 -0.1256  0.0430  0.3823
68769W        W69633  15.839  23.144   6.230 -0.0193 -0.3233 -0.4886
68770W        W69634  10.339  11.542  27.705 -0.2472  0.3520  0.1045
68771W        W69635   9.563   9.099  14.984  0.2071 -0.1080 -0.2403
68772W        W69636   8.852  24.403  28.221 -0.0571  0.1774 -0.1824
68773W        W69637  17.850  13.424   0.080 -0.0358  0.2005 -0.0811
68774W        W69638   1.743  26.426   4.516  0.2154  0.0807 -0.2712
68775W        W69639  20.617  25.940   2.658  0.3074  0.0718  0.2503
68776W        W69640   0.899   9.661  22.951  0.0629 -0.1193 -0.0003
68777W        W69641  28.821   6.986  18.530 -0.0166 -0.4837  0.1281
68778W        W69642  25.469  21.475  23.654 -0.1011  0.1276  0.4385
68779W        W69643  18.627  12.388  14.209 -0.0411 -0.0648 -0.1403
68780W        W69644  25.827  19.279   7.661 -0.2461 -0.3899 -0.2638
68781W        W69645  19.517  15.071  17.316 -0.1546 -0.0562 -0.0765
68782W        W69646  23.531   4.379  14.950  0.4298 -0.2410 -0.0037
68783W        W69647  17.234  26.207   7.238  0.1458  0.2953  0.2678
68784W        W69648   3.464   6.943  28.035  0.0690  0.2618  0.1349
68785W        W69649  15.838  11.684  22.903  0.1034  0.1270  0.0978
68786W        W69650  24.132  21.619  15.707  0.0479  0.0570  0.0732
68787W        W69651   1.519   6.703   0.467 -0.4629  0.1926 -0.1994
68788W        W69652   5.664  22.853  11.250  0.1097 -0.0147  0.2791
68789W        W69653  26.172  14.687  21.828  0.1075  0.1980  0.0560
68790W        W69654  21.734  20.081  12.308  0.0344  0.2040 -0.3509
68791W        W69655   1.710  23.515  13.248  0.3118 -0.1481  0.2517
68792W        W69656  24.723  15.323   0.622  0.3886 -0.0943 -0.0954
68793W        W69657  14.096  27.614   3.971 -0.0269 -0.0486  0.1503
68794W        W69658  27.472  27.521  23.035  0.1243 -0.2009  0.0025
68795W        W69659  11.565  21.085  20.882  0.1883  0.1122  0.0404
68796W        W69660  12.803  17.841  24.218  0.1023 -0.0216  0.4486
68797W        W69661  22.966  12.967   3.823  0.4777  0.3014  0.2070
68798W        W69662  19.412  17.653  20.033 -0.0650 -0.2275  0.3932
68799W        W69663  14.866  12.228  28.257 -0.1991 -0.3203  0.0066
68800W        W69664   6.656  16.395  23.890 -0.1744  0.0145 -0.0064
68801W        W69665   2.457  15.154  13.847 -0.1494 -0.2668  0.1478
68802W        W69666  26.721   2.282  18.200  0.3230  0.0579  0.2124
68803W        W69667  26.169   4.801  11.793 -0.3756  0.2663 -0.1222
68804W        W69668  28.793   4.451  18.524  0.1603 -0.3513  0.1377
68805W        W69669  20.441  23.618  24.030  0.0569 -0.3640 -0.1542
68806W        W69670   2.849  23.712   3.310  0.1917 -0.1299 -0.0749
68807W        W69671  20.097  14.690  19.134  0.2338 -0.0843 -0.2839
68808W        W69672   6.217  25.954  18.124 -0.1702 -0.1158 -0.1629
68809W        W69673  11.265   7.570  15.550 -0.0417 -0.0192  0.0912
68810W        W69674   0.089   3.973  16.850  0.0632  0.0772 -0.0607
68811W        W69675  18.592  16.198  20.378  0.2647  0.2661 -0.0049
68812W        W69676  25.171   4.519  19.638 -0.0695 -0.0364 -0.3136
68813W        W69677  25.294  17.365   4.565 -0.1155  0.0108 -0.0952
68814W        W69678   0.521  22.198  14.008  0.2629 -0.3275  0.0338
68815W        W69679  19.781  26.211  10.277 -0.0198 -0.4365 -0.0019
68816W        W69680  23.483  12.597  19.388  0.2785  0.1705 -0.1445
68817W        W69681  17.220   1.811  22.976 -0.3414  0.4934 -0.3813
68818W        W69682   4.142   3.614  23.940  0.2181  0.3206 -0.0873
68819W        W69683  17.634   0.023   4.011 -0.4180  0.0921  0.1607
68820W        W69684  10.941  25.605  14.180  0.0347  0.0748  0.3541
68821W        W69685   1.465  29.139   8.592 -0.3136 -0.2324  0.0095
68822W        W69686  17.636  10.119  26.320 -0.3311 -0.0819  0.1516
68823W        W69687  13.668  14.741  10.584  0.2616 -0.2622 -0.0189
68824W        W69688  15.319  18.312   1.995  0.1854 -0.1354  0.2765
68825W        W69689   9.565   6.640  23.701  0.2723 -0.2577  0.1583
68826W        W69690  23.534  16.145  22.696 -0.0175  0.0829  0.0545
68827W        W69691  21.205   7.173  22.501  0.2181  0.2246 -0.0355
68828W        W69692   3.734   9.079   0.388 -0.0107 -0.0245 -0.2678
68829W        W69693   9.360  22.175  28.930 -0.0919  0.0023  0.1703
68830W        W69694   1.779  19.846  16.955 -0.0688  0.3061  0.1094
68831W        W69695  20.881  27.143  23.201  0.0628  0.1735 -0.0467
68832W        W69696  12.567  21.394   4.916  0.2434 -0.3603 -0.1056
68833W        W69697  17.751  20.276  26.888 -0.3330 -0.0305  0.1169
68834W        W69698  24.195  20.651  13.417 -0.1268  0.0728 -0.0766
68835W        W69699  20.739  25.974  12.453  0.1247 -0.1174 -0.2612
68836W        W69700   6.099  20.482  26.352 -0.2668 -0.0809  0.1764
68837W        W69701  24.293  10.959  15.241 -0.3101  0.0355 -0.2434
68838W        W69702   4.193   4.141  10.552 -0.0664  0.0438 -0.2069
68839W        W69703   1.171   3.618  18.794  0.0635 -0.0944  0.0098
68840W        W69704  15.120   5.533  20.053 -0.0076  0.3228 -0.4468
68841W        W69705   2.386  22.353  28.250 -0.2502 -0.0131 -0.3336
68842W        W69706  15.053  10.610  17.351  0.1646  0.3768 -0.0391
68843W        W69707  25.690   7.527  23.242  0.0860  0.2633 -0.2487
68844W        W69708  18.081  18.817   9.543  0.0725 -0.1085 -0.1372
68845W        W69709   0.636   0.311   2.552  0.3263  0.0508 -0.2716
68846W        W69710  22.266  17.577   3.059 -0.0315 -0.1670  0.0736
68847W        W69711  26.908  27.411  28.554 -0.1972 -0.0731 -0.1671
68848W        W69712   9.795  11.948  19.311  0.0434  0.2830 -0.0185
68849W        W69713  22.839  25.938  19.610  0.2205 -0.4216  0.2567
68850W        W69714  13.762  22.626   6.437  0.0093 -0.4365  0.3552
68851W        W69715   1.245  12.185  29.047 -0.0895  0.0258  0.0886
68852W        W69716  15.712  11.098  13.996  0.1309  0.1469  0.2641
68853W        W69717  27.097   3.428   2.677  0.2652  0.3510 -0.2758
68854W        W69718  22.200  12.452   1.166  0.3675  0.3051  0.1432
68855W        W69719  19.658   5.686  21.637  0.1941 -0.3904  0.2349
68856W        W69720  13.708   9.496  22.525  0.1068  0.0340 -0.0033
68857W        W69721  12.513  19.215  23.274 -0.0666 -0.0064 -0.0251
68858W        W69722  28.041   9.265   3.225 -0.0348 -0.0873  0.0722
68859W        W69723   8.564  23.391   9.925  0.1977 -0.1692  0.2969
68860W        W69724  19.492   7.333  15.844 -0.0190  0.0565 -0.2048
68861W        W69725   2.663  21.096  22.960 -0.0574 -0.1390  0.0391
68862W        W69726   3.240  20.521  19.711 -0.3123  0.0505 -0.1417
68863W        W69727  28.937  17.988  24.981  0.2385  0.1000  0.1681
68864W        W69728  20.608  21.169   1.218  0.1162  0.2389  0.0721
68865W        W69729  25.738  11.446   5.794  0.0495 -0.0281 -0.0776
68866W        W69730  24.639  12.686   1.442  0.1005 -0.1950 -0.0070
68867W        W69731  13.697  26.187  17.832  0.1905 -0.0924  0.0340
68868W        W69732  26.693  25.033  17.356 -0.0124  0.2721 -0.1558
68869W        W69733  27.697  13.591  23.739  0.1487 -0.0947 -0.2974
68870W        W69734  12.491  26.217  22.279 -0.1084 -0.0047 -0.0271
68871W        W69735  25.792  15.684   4.821 -0.1282  0.0140  0.1074
68872W        W69736  28.280   6.111   1.281 -0.0968  0.1408 -0.1989
68873W        W69737  18.164  14.579  26.048 -0.0998 -0.2450 -0.2909
68874W        W69738  23.324   7.522  21.849  0.0691  0.0079 -0.0157
68875W        W69739  16.763   7.215   7.362 -0.1510  0.0280  0.5671
68876W        W69740  28.929  24.449  14.883  0.1375 -0.2305 -0.2028
68877W        W69741  23.504  10.213  16.769  0.3338  0.3536 -0.2009
68878W        W69742  22.048  21.140   3.497 -0.0070  0.2739 -0.1155
68879W        W69743  26.676  16.075  19.353 -0.2511 -0.0215  0.2700
68880W        W69744  22.001  28.379  16.116 -0.0942  0.2112  0.2006
68881W        W69745   0.742  19.774   1.874  0.0914  0.1583 -0.1134
68882W        W69746  14.450  22.695   5.569 -0.1325 -0.0738 -0.1916
68883W        W69747  20.889   5.640  18.862  0.1107 -0.0862 -0.2058
68884W        W69748   1.140  22.154  11.997 -0.0009  0.2057 -0.0668
68885W        W69749  21.053   4.625  17.035 -0.0758  0.3412  0.2047
68886W        W69750  25.939  27.230  21.026 -0.0266  0.3484  0.5035
68887W        W69751   2.832  23.314  21.137  0.0412 -0.1538 -0.3585
68888W        W69752  17.096  21.997   2.967 -0.1846  0.0888 -0.3176
68889W        W69753   9.547  16.320  23.797 -0.0162 -0.0992 -0.4402
68890W        W69754  17.713  26.910   0.308  0.1254 -0.0126  0.0853
68891W        W69755   6.299  25.408   3.293  0.1283  0.1853 -0.3150
68892W        W69756  25.049   7.358  10.378  0.1632  0.1478  0.0444
68893W        W69757  22.207   0.085  12.430  0.0887  0.0662 -0.2244
68894W        W69758  23.113  24.317   1.994  0.0748  0.0401 -0.1258
68895W        W69759  19.834  22.127   3.125  0.1601  0.0508 -0.1306
68896W        W69760  14.159  10.127  21.354 -0.1491 -0.1734  0.0413
68897W        W69761  21.757   1.931  24.854  0.2040  0.0017 -0.0663
68898W        W69762  20.296  15.740  19.982 -0.1305  0.0226  0.0549
68899W        W69763  17.181  21.266  27.831  0.1656 -0.0781 -0.0106
68900W        W69764   5.206   1.376  10.759 -0.0690  0.0391 -0.1172
68901W        W69765  11.629  19.124  28.916 -0.0072 -0.2890  0.1655
68902W        W69766  11.428  16.477  24.372  0.4192 -0.1213 -0.1625
68903W        W69767  19.602  26.904  26.150  0.1319  0.2177 -0.0288
68904W        W69768   2.134  16.835  15.612 -0.1579 -0.2141  0.0306
68905W        W69769   6.986  26.612  28.226  0.1430 -0.1643  0.2835
68906W        W69770  26.131  22.218   1.150  0.0416  0.0434  0.0625
68907W        W69771  29.006  20.146  24.061  0.1989 -0.0245  0.2587
68908W        W69772  24.822  14.236  12.727  0.0558 -0.2386 -0.1345
68909W        W69773  25.955  21.170  24.473 -0.0647 -0.1094  0.1503
68910W        W69774  10.995  11.119  15.001  0.2548 -0.0221  0.1194
68911W        W69775  16.711   6.781  17.738  0.2085  0.2392 -0.4651
68912W        W69776  26.541  19.457  21.711 -0.3019  0.0581 -0.0096
68913W        W69777  28.416  19.328  20.425  0.1755 -0.2248 -0.2233
68914W        W69778  16.860   0.964  22.530  0.1630 -0.2624  0.1216
68915W        W69779  26.681  22.941   3.840  0.1299  0.3717 -0.0884
68916W        W69780   3.714  14.056   6.960  0.2237 -0.0378 -0.2799
68917W        W69781  26.663  14.299  14.672  0.3570 -0.1067 -0.2205
68918W        W69782   9.467  15.053  26.087 -0.1497  0.1301  0.1987
68919W        W69783  27.649  13.906  11.955  0.3269 -0.1181  0.3565
68920W        W69784  22.939  10.281  10.752  0.2723 -0.0414  0.1304
68921W        W69785  27.353  11.000  25.764 -0.1574  0.0384  0.2001
68922W        W69786  20.839  24.811  16.435 -0.0657 -0.0563 -0.4189
68923W        W69787   9.932   1.236   0.188  0.0176 -0.1663  0.1749
68924W        W69788  16.619  16.204  26.058 -0.0127  0.1689 -0.2819
68925W        W69789  26.127  11.296   4.105  0.1535  0.0081 -0.0223
68926W        W69790  15.723   3.004  15.732 -0.0813  0.1784  0.1052
68927W        W69791  17.124  20.069   3.535  0.0753 -0.1198 -0.2331
68928W        W69792  15.115  18.018  26.911 -0.0261  0.1552 -0.0137
68929W        W69793   2.603  25.092  15.741  0.1958  0.2333 -0.0579
68930W        W69794  29.084  11.513   2.074  0.0710 -0.0832 -0.3119
68931W        W69795  20.634  26.727  21.728 -0.1760 -0.0567  0.1628
68932W        W69796  13.267   9.697  16.477  0.1510  0.0676 -0.1507
68933W        W69797   4.471  12.425   2.914 -0.1829 -0.2005  0.5577
68934W        W69798   1.820   5.656  19.989 -0.0769 -0.0142  0.1089
68935W        W69799  27.716  13.364   8.771  0.1157  0.0647  0.0627
68936W        W69800  15.714   9.466  25.163  0.0269  0.0522  0.0605
68937W        W69801  25.412  18.641  24.161 -0.0758 -0.0631 -0.0378
68938W        W69802  22.985  14.170  14.122  0.2355 -0.0346 -0.0562
68939W        W69803  11.126   0.331   1.387  0.1585 -0.1366 -0.2648
68940W        W69804  18.955   4.189  19.437  0.0430 -0.0025 -0.0692
68941W        W69805   6.939  15.438  21.825 -0.0822  0.1054 -0.1442
68942W        W69806  26.050  18.471  20.342  0.0332  0.1851 -0.0369
68943W        W69807   2.630  12.713  15.616 -0.0353 -0.2335  0.2630
68944W        W69808  17.645   3.285  22.016  0.3636  0.0476  0.0272
68945W        W69809   0.239  23.467  21.617 -0.0250  0.1909 -0.2920
68946W        W69810  11.134  23.704   4.802  0.4102  0.1600 -0.1017
68947W        W69811  18.650  25.330  12.131  0.0980  0.4259  0.0463
68948W        W69812  23.551   5.493  26.789 -0.1558 -0.0446  0.0635
68949W        W69813   7.943  23.384   3.843 -0.0905 -0.0966  0.1886
68950W        W69814   3.636  21.581  25.618 -0.3658  0.0018 -0.0898
68951W        W69815  24.749  24.697  20.343 -0.1005 -0.3629 -0.1976
68952W        W69816  28.302  18.302  21.803 -0.0044  0.0879 -0.0256
68953W        W69817   8.472  25.131  21.137 -0.0595 -0.2096  0.1631
68954W        W69818  25.455  23.757  24.062  0.1568 -0.1916  0.0812
68955W        W69819   8.475  10.138  25.646 -0.0064 -0.1056  0.0228
68956W        W69820  26.672  22.928  17.031 -0.3106 -0.2202  0.0630
68957W        W69821   9.466  28.931   6.940  0.2520 -0.1093 -0.0902
68958W        W69822   1.165   9.044   8.926  0.3028 -0.0762  0.0706
68959W        W69823  24.097  18.484  28.685  0.0718  0.1906  0.3501
68960W        W69824  24.757  16.621   2.370 -0.1965  0.1650 -0.0627
68961W        W69825  22.133  19.545  18.588  0.0859  0.2340  0.2348
68962W        W69826  15.625  16.832   3.668 -0.2005 -0.0412  0.1472
68963W        W69827  11.471  12.927  16.294 -0.0727  0.0134 -0.0652
68964W        W69828  12.725  12.258  17.073  0.2194 -0.0760 -0.1497
68965W        W69829  15.297  20.219  20.396  0.0720 -0.3537  0.2366
68966W        W69830  16.325  11.122  18.708  0.1704  0.0918 -0.4173
68967W        W69831   5.771  23.396   8.752  0.2683 -0.0136 -0.1420
68968W        W69832   1.601  18.993  24.502 -0.2358 -0.4129  0.1732
68969W        W69833   8.089   3.803  26.713  0.1882 -0.3147 -0.1537
68970W        W69834  28.743   8.712  16.221 -0.1251  0.2825  0.1047
68971W        W69835  18.559  17.778   6.034 -0.0616  0.0919  0.1404
68972W        W69836   7.280   9.312  20.866  0.1757 -0.1157  0.1326
68973W        W69837   1.889  22.697  27.613  0.1524  0.1486 -0.1786
68974W        W69838  23.194  23.045  16.366  0.4601  0.1018 -0.0091
68975W        W69839  28.956  22.879  18.860  0.1701 -0.2029  0.1138
68976W        W69840  23.402  21.003  24.982  0.0170 -0.0062 -0.1993
68977W        W69841  10.001  14.082  12.490 -0.1668  0.0542 -0.2273
68978W        W69842   9.914   3.719  17.025  0.0872 -0.0231  0.0482
68979W        W69843  24.283  22.664  26.632 -0.2244 -0.0471  0.0613
68980W        W69844  20.070  21.944   1.137 -0.1394  0.1699 -0.0714
68981W        W69845   3.063  14.575   6.473  0.1731 -0.0252 -0.0596
68982W        W69846  26.998  12.601  20.406  0.0493  0.0240  0.2237
68983W        W69847  25.459  21.409  13.534  0.2117 -0.2183  0.0833
68984W        W69848  12.983  19.523  24.433  0.0793 -0.0107  0.0423
68985W        W69849   0.753  24.003  12.440 -0.2572 -0.1383 -0.0428
68986W        W69850  18.404  18.774   1.559 -0.2356 -0.0268 -0.1123
68987W        W69851  18.725   6.656   6.214 -0.1885 -0.1653  0.2386
68988W        W69852   5.098  27.613  25.173  0.0991  0.1008  0.0623
68989W        W69853   5.658   3.647   7.367  0.2878 -0.3316 -0.1690
68990W        W69854  29.087  14.404  26.629 -0.1881 -0.0094  0.4036
68991W        W69855  19.683  10.691   7.075  0.1923  0.0308  0.2218
68992W        W69856  15.172  26.500  18.824  0.0651  0.0448 -0.3488
68993W        W69857  23.782   3.572  19.153  0.0290  0.0102 -0.3631
68994W        W69858  18.882  15.102  20.383  0.1518  0.0985  0.4108
68995W        W69859  18.781  20.155   7.286 -0.0305  0.0587  0.0872
68996W        W69860   7.900   2.889  23.383  0.3867  0.0375 -0.0342
68997W        W69861  22.923  19.985  23.411 -0.2268  0.1629 -0.2841
68998W        W69862  24.951  21.824  13.896 -0.1239  0.0358  0.1632
68999W        W69863  18.926  13.146   0.225  0.0474  0.0929  0.1995
69000W        W69864  12.838  17.564   3.892  0.1202 -0.0156 -0.0979
69001W        W69865  19.518  14.511  18.178  0.1387  0.2272  0.0479
69002W        W69866  25.284   0.697  18.793  0.2529  0.0540 -0.0580
69003W        W69867  21.159   8.516  20.249  0.0435  0.1233  0.2040
69004W        W69868  23.240  14.584  12.138 -0.0784 -0.1505 -0.2195
69005W        W69869   2.203  26.126  25.428 -0.1229 -0.0739  0.1469
69006W        W69870  21.182  17.769   9.575  0.0856  0.0354 -0.1398
69007W        W69871  17.133  11.370   2.226  0.0352 -0.0919  0.1274
69008W        W69872   7.572  28.746  13.017  0.2247  0.0925 -0.0676
69009W        W69873   8.520   0.586  25.198  0.2421 -0.0293  0.2272
69010W        W69874   2.267  18.416  21.135  0.1453 -0.0991 -0.0215
69011W        W69875  25.250   3.870   4.601  0.1382  0.0810 -0.2404
69012W        W69876  27.659  16.444  10.428  0.1132  0.0740  0.0532
69013W        W69877  25.588   3.936  27.126  0.1382 -0.0782  0.0925
69014W        W69878  21.581  10.570  25.758 -0.0799 -0.2724  0.2928
69015W        W69879  27.421  11.275   2.916  0.0668  0.0487  0.0770
69016W        W69880  23.922  20.209  13.263  0.0600 -0.3435  0.1807
69017W        W69881  28.344  14.401  17.039 -0.3449  0.0751  0.0339
69018W        W69882  10.424  27.162  18.736 -0.0529 -0.0610  0.0103
69019W        W69883  25.335   6.638  19.275  0.2890  0.3016 -0.0809
69020W        W69884   0.561  22.607  12.356 -0.2442  0.1858  0.0008
69021W        W69885  19.543  28.601  28.149 -0.2609  0.3964  0.1515
69022W        W69886  17.909  25.425  20.860 -0.0358 -0.0846  0.0725
69023W        W69887  10.913   8.883   1.089  0.2135 -0.2788 -0.1838
69024W        W69888  18.306   3.851  10.151  0.1453 -0.0848 -0.1208
69025W        W69889  22.479  19.865  20.812  0.2941  0.0832 -0.0046
69026W        W69890  24.450  19.676  18.705  0.0959 -0.0830  0.0087
69027W        W69891  19.694  14.952  24.783 -0.0886 -0.2438 -0.1805
69028W        W69892  12.430   0.008   1.553  0.1290 -0.0101  0.1351
69029W        W69893  19.820  21.588   5.293  0.2558 -0.0953 -0.1325
69030W        W69894  24.100   9.524   4.140  0.0949 -0.0541 -0.2979
69031W        W69895  17.366  13.364  10.050  0.1636  0.0158 -0.1106
69032W        W69896  19.553  18.695  20.405  0.0924 -0.2606 -0.0049
69033W        W69897   7.908  10.417   5.087 -0.1065 -0.4027  0.3113
69034W        W69898   7.013  16.536  17.107 -0.1381  0.3870 -0.0763
69035W        W69899  18.938   7.612  28.728  0.4136  0.0952 -0.2748
69036W        W69900  15.325   2.945  25.599 -0.0762  0.0746 -0.1179
69037W        W69901  22.558  20.884  11.540 -0.2865 -0.0081  0.0696
69038W        W69902  27.210  16.316  25.273  0.3381 -0.2882  0.1200
69039W        W69903  29.052  16.879  27.056  0.3079 -0.3436  0.1857
69040W        W69904  11.121   7.372  13.013 -0.1021  0.0846  0.3685
69041W        W69905  25.228  27.531  11.493 -0.1658  0.0744  0.1400
69042W        W69906  14.878   6.110  28.436  0.2331 -0.2298 -0.1342
69043W        W69907  17.958  27.302  15.422  0.0866  0.0979  0.1345
69044W        W69908   6.458   5.097  25.074  0.1339  0.1225 -0.1378
69045W        W69909  19.027   5.546  13.263  0.0913  0.0445  0.0935
69046W        W69910  25.033  19.165  16.812  0.2144 -0.1023 -0.0876
69047W        W69911  10.800  15.805  26.115  0.3880  0.3322  0.1499
69048W        W69912   9.215  17.566  24.341  0.0584 -0.0354 -0.1909
69049W        W69913  25.260  16.507   0.004  0.2030  0.2339 -0.0707
69050W        W69914  23.991  21.786  12.766  0.0801  0.1061 -0.1847
69051W        W69915  17.952  25.219  25.890  0.0672  0.1817 -0.1698
69052W        W69916  15.503  10.654   0.023 -0.0333 -0.1729 -0.0581
69053W        W69917  25.559  18.494  20.489  0.1239  0.0769 -0.1885
69054W        W69918  22.897   8.773  15.968 -0.3313  0.1394 -0.1931
69055W        W69919   8.253  27.412   4.091 -0.0396  0.2984  0.0571
69056W        W69920  27.641  23.135  27.006  0.1112 -0.1777  0.0129
69057W        W69921  16.711  27.968  28.732 -0.0928  0.1643  0.0457
69058W        W69922  20.972   0.054  10.001 -0.0226  0.2034  0.0460
69059W        W69923  16.306  27.417  19.342  0.0542  0.3223  0.0413
69060W        W69924  21.453   6.505  19.235 -0.4239  0.0335  0.2907
69061W        W69925  19.471   6.922   5.307  0.2223  0.1178  0.1028
69062W        W69926   5.260  20.172  15.161  0.2933  0.3406 -0.1832
69063W        W69927  23.077  24.357  22.968 -0.3429  0.0411  0.4379
69064W        W69928  22.790   5.514   9.309 -0.1895 -0.1009  0.1919
69065W        W69929   1.600   1.743  28.969 -0.2209 -0.1733 -0.1817
69066W        W69930   5.929  16.253   0.023 -0.1355  0.0624 -0.0387
69067W        W69931   1.934  21.287   8.814  0.4342  0.0717  0.1464
69068W        W69932  14.655  13.760  18.540  0.0554  0.0325  0.1276
69069W        W69933  20.626  15.835   0.298 -0.3123  0.4753  0.0288
69070W        W69934   5.839  11.237  28.481  0.2622  0.3501  0.1238
69071W        W69935  14.427   6.666  14.881 -0.2266  0.4303  0.2560
69072W        W69936  21.684   1.394  24.512 -0.1409  0.0650  0.0950
69073W        W69937  24.793   4.419  17.853  0.0875 -0.2427  0.2193
69074W        W69938  18.848   2.798  11.734 -0.0977  0.4175 -0.1507
69075W        W69939  17.549  15.171   9.121  0.3283  0.0973 -0.0214
69076W        W69940  14.560  21.614  13.762  0.1542  0.2713  0.3940
69077W        W69941  25.054   5.516  16.486 -0.2353 -0.0620 -0.0028
69078W        W69942  17.333  24.446  23.029 -0.0139  0.0148  0.4317
69079W        W69943  13.144  15.527  27.906  0.1832 -0.4412 -0.1727
69080W        W69944  25.116  27.870  18.963 -0.1567  0.2651 -0.0516
69081W        W69945  23.036  10.986   9.458 -0.0972 -0.0779 -0.0336
69082W        W69946  23.533  19.181  24.964 -0.1452 -0.1281  0.4183
69083W        W69947  28.021  13.540  19.003 -0.1351  0.0467 -0.1038
69084W        W69948  15.958  17.273  27.540  0.3563 -0.2210  0.0457
69085W        W69949   2.240   2.756  11.056  0.0304  0.2155 -0.0098
69086W        W69950  17.090  18.198  22.326  0.0502  0.0764 -0.1086
69087W        W69951  24.364   3.481  25.663 -0.1508 -0.4830  0.1375
69088W        W69952  24.988   2.751  26.125  0.0494 -0.1544 -0.2820
69089W        W69953  14.109   7.066   2.079  0.0651  0.0643  0.1084
69090W        W69954   0.455   4.510  11.194  0.1624  0.0405  0.0717
69091W        W69955  21.081  16.708  24.058  0.3269  0.0241 -0.1437
69092W        W69956   5.460  16.436  14.070  0.0912 -0.1209 -0.1528
69093W        W69957  14.569  24.401  23.822  0.0951 -0.1794 -0.0599
69094W        W69958  26.336  12.957   3.763  0.1916  0.0403  0.1600
69095W        W69959   1.801   0.362  20.472 -0.1059 -0.0178  0.0705
69096W        W69960  27.750  25.519  12.137  0.0804  0.1825  0.3617
69097W        W69961   5.937  19.246  18.264  0.2386  0.0940  0.4198
69098W        W69962  26.381  12.684  16.146  0.2929 -0.2112 -0.2080
69099W        W69963  20.699  10.479  12.012 -0.1003  0.0386  0.0376
69100W        W69964   3.218  12.569  22.348 -0.0570  0.0196  0.0870
69101W        W69965  25.210  16.728  16.949  0.0045 -0.1324 -0.1062
69102W        W69966  15.052  15.719   8.249 -0.0936 -0.0106  0.0489
69103W        W69967   6.088   6.954  28.223 -0.0649 -0.3390 -0.1899
69104W        W69968  13.437   9.973  10.980  0.0768 -0.0817  0.1306
69105W        W69969   5.899  27.177  23.876 -0.0383 -0.0418 -0.0361
69106W        W69970   7.831  20.830  14.475  0.3743  0.1022 -0.0015
69107W        W69971   9.044   3.444  20.536 -0.0253  0.1074  0.1255
69108W        W69972   4.039  18.424  28.910  0.0919  0.1685 -0.3459
69109W        W69973  19.945  19.878  19.844  0.0091 -0.1008  0.0339
69110W        W69974  24.050  15.980  25.109 -0.3288  0.0857  0.1148
69111W        W69975   5.008  14.504   7.846 -0.1569  0.1325  0.0017
69112W        W69976  17.793  14.170   7.024  0.2589  0.3116 -0.3506
69113W        W69977  26.226  15.024   5.557  0.0034 -0.0780 -0.1185
69114W        W69978   0.252  12.006  23.044  0.0606  0.0067 -0.3530
69115W        W69979  21.860  11.585   9.357 -0.0709 -0.1211 -0.2031
69116W        W69980  12.686   7.305  23.471  0.1349  0.0034  0.0363
69117W        W69981  14.062  10.394  26.212  0.1004  0.1228 -0.2854
69118W        W69982   9.076  26.246  16.614 -0.3939  0.3053  0.1029
69119W        W69983   0.240  15.472  16.902 -0.0149 -0.1795 -0.2736
69120W        W69984  19.287   2.884  28.973 -0.2097 -0.4000  0.0695
69121W        W69985   2.416   4.317  22.594 -0.0755  0.0431  0.1561
69122W        W69986   1.680  11.869  25.517 -0.0898  0.1499 -0.1213
69123W        W69987  16.904   0.087  20.795 -0.1507 -0.0175 -0.2959
69124W        W69988  12.836  27.756  14.827  0.1346  0.1325 -0.0493
69125W        W69989  23.682  13.761  25.632  0.0174 -0.3328 -0.1039
69126W        W69990  14.827  22.577  23.670  0.0281  0.0597  0.1257
69127W        W69991  15.305  20.124   1.749  0.1091 -0.0724  0.0156
69128W        W69992  23.328  15.423  26.212 -0.1622 -0.1131  0.0997
69129W        W69993  17.880  28.634  21.615  0.1811 -0.0081  0.0697
69130W        W69994  25.315   9.399  27.441  0.2719 -0.0789  0.1992
69131W        W69995  13.071  22.460  20.873  0.1285 -0.1449  0.1956
69132W        W69996   3.633   5.331  20.328  0.0886 -0.0806 -0.1562
69133W        W69997   3.958  19.207   1.057  0.1789 -0.1959 -0.2427
69134W        W69998  25.438  15.120  25.552 -0.1536  0.3183  0.0939
69135W        W69999   4.045  17.413  10.199 -0.2122 -0.1298 -0.0193
69136W        W70000   1.775  20.766  17.301  0.0681 -0.2682  0.2424
69137W        W70001   0.516  16.012   9.809 -0.0245 -0.3035  0.1891
69138W        W70002  27.178  13.006  15.044 -0.1771 -0.0330  0.0077
69139W        W70003  16.249  25.303  25.683 -0.1312  0.2176 -0.0278
69140W        W70004  24.940  25.320   0.257 -0.3426 -0.0524  0.3169
69141W        W70005  19.948  16.778   7.253  0.1667 -0.1985 -0.4866
69142W        W70006   0.759  16.973   2.646 -0.1027 -0.0851 -0.0663
69143W        W70007  12.394  21.723   1.346 -0.2128 -0.1777  0.2903
69144W        W70008  14.929  27.493  21.227  0.4040  0.2587  0.4244
69145W        W70009  21.766  23.062  22.035  0.0433  0.2965 -0.4310
69146W        W70010  23.168  13.022  19.871 -0.1509 -0.2574 -0.1924
69147W        W70011   2.918   6.542  22.655 -0.0869 -0.3336 -0.0365
69148W        W70012   6.528   8.653   3.259 -0.0202 -0.1138  0.2252
69149W        W70013   5.780  23.745  20.705 -0.1871 -0.2074 -0.2786
69150W        W70014  16.449  24.157  23.166 -0.0668  0.5716  0.0765
69151W        W70015  20.763  19.530   8.217  0.1156  0.0602 -0.0069
69152W        W70016  14.683  15.855  10.166  0.2337 -0.0991  0.3628
69153W        W70017  18.075   6.652   5.111  0.0569  0.4733  0.1692
69154W        W70018   1.972   5.742  25.256  0.0555 -0.0053  0.1194
69155W        W70019  12.612   1.603  22.039  0.1670  0.3715  0.0029
69156W        W70020  15.063  13.188   6.957 -0.0149  0.3265 -0.0435
69157W        W70021   9.240  11.802   2.378 -0.0141  0.1533 -0.2852
69158W        W70022   4.168   6.480  18.297 -0.0957  0.0076  0.3533
69159W        W70023  21.453  20.722  27.333  0.0242 -0.1664 -0.2122
69160W        W70024   6.017  20.791  18.917 -0.2146  0.1914  0.0245
69161W        W70025   3.706  11.744   5.748 -0.0004  0.1670 -0.0632
69162W        W70026   5.159   7.983  25.415  0.3668  0.2150 -0.2287
69163W        W70027  23.421  19.060  11.011 -0.1579  0.1605  0.0532
69164W        W70028   4.222  23.311  18.016 -0.2530 -0.3686  0.4016
69165W        W70029   2.799   6.207   1.024  0.2071 -0.1450  0.0973
69166W        W70030  23.276  19.379  18.400 -0.0222  0.2899 -0.0246
69167W        W70031  21.794  26.952  20.762  0.1578 -0.2315  0.1254
69168W        W70032  13.918   3.992   1.878  0.2117  0.0360 -0.1183
69169W        W70033  25.772   5.574  11.343 -0.0049  0.0218 -0.0272
69170W        W70034  22.751  19.948  11.588 -0.0510  0.1503 -0.1424
69171W        W70035   0.644  14.953  20.188 -0.2403  0.3382  0.0300
69172W        W70036  11.932  27.068   0.528  0.2953 -0.2179 -0.0051
69173W        W70037  19.105   4.042  24.925  0.0882  0.3352  0.0013
69174W        W70038  24.191  12.810  27.921  0.1030 -0.0993  0.0814
69175W        W70039  24.137   4.788   0.494 -0.1839  0.0678 -0.0221
69176W        W70040   1.020  13.514   3.547  0.2183 -0.0518 -0.0976
69177W        W70041  26.241  23.855  15.732 -0.2162 -0.1827  0.1114
69178W        W70042  10.892   7.716   1.824 -0.2280 -0.1424  0.2663
69179W        W70043   5.860  15.859   6.274 -0.1710  0.0635 -0.2732
69180W        W70044  14.857  15.411  27.010 -0.3811  0.0676 -0.2141
69181W        W70045  21.077   0.051  27.157  0.1236 -0.2247  0.2129
69182W        W70046   1.201  24.908  19.020  0.0750  0.2724 -0.1907
69183W        W70047  26.866  10.998   6.511  0.0896  0.0589 -0.0601
69184W        W70048  10.530  12.266  17.058  0.1947 -0.1802  0.1355
69185W        W70049  18.964  15.216  22.040 -0.2551  0.1383  0.0491
69186W        W70050  14.012  18.583  27.648 -0.0477  0.1025 -0.0788
69187W        W70051   7.300  10.604   0.423 -0.1516  0.3665  0.1198
69188W        W70052   8.733  18.744  12.272 -0.3299 -0.1222 -0.0191
69189W        W70053  23.395  16.267   5.912 -0.0945  0.0324 -0.2497
69190W        W70054  23.887  26.656  11.369  0.0679 -0.0529 -0.2194
69191W        W70055   5.609  18.041   2.171 -0.2903 -0.0371 -0.1501
69192W        W70056  14.194  22.447   5.165  0.0554  0.0966 -0.2002
69193W        W70057   8.793  12.391  25.716 -0.0382 -0.0530 -0.0751
69194W        W70058  22.395  23.095   3.800 -0.1587 -0.2300 -0.2564
69195W        W70059  18.670  21.532  29.078  0.2665  0.2506  0.1239
69196W        W70060  22.816  18.430  15.803 -0.1709  0.1982 -0.2222
69197W        W70061   5.007  27.764  28.843  0.0405 -0.0931  0.0455
69198W        W70062  14.676  22.077   1.945  0.0561  0.3439  0.0425
69199W        W70063  10.504  20.797  19.935  0.0529  0.1142 -0.0816
69200W        W70064   3.190   8.772  11.541 -0.0083 -0.0895  0.1392
69201W        W70065  20.736  17.179  25.281  0.0517  0.3614 -0.1254
69202W        W70066   0.476  16.713  25.485 -0.1413  0.0536 -0.1521
69203W        W70067  12.894   3.395  10.204  0.4271  0.0267  0.2541
69204W        W70068  14.479  13.325  18.663 -0.1135 -0.1841 -0.2884
69205W        W70069  21.323  22.325   7.652  0.0559  0.1538 -0.0248
69206W        W70070  12.917   6.272  17.193  0.4877  0.1341 -0.0416
69207W        W70071  18.858  15.980  14.446  0.7053  0.1254 -0.0693
69208W        W70072  23.896  14.495   8.118  0.0955 -0.1430  0.0219
69209W        W70073   7.094  21.390   0.548  0.1624  0.0878 -0.3284
69210W        W70074   9.145  10.116   0.361 -0.0322  0.1566  0.0466
69211W        W70075  11.501  13.349   3.862 -0.2281 -0.1142  0.1680
69212W        W70076  26.294   7.095  19.420  0.1937 -0.0062 -0.2220
69213W        W70077   1.034  20.085  19.906  0.2175 -0.3454  0.4125
69214W        W70078   1.929  23.962  23.343  0.2357 -0.1821  0.0267
69215W        W70079  22.725  13.393  18.636 -0.0872 -0.0553  0.2413
69216W        W70080  25.643  19.366  12.488 -0.0814 -0.1875  0.1723
69217W        W70081  21.638   5.293  24.278 -0.1077  0.0509 -0.5975
69218W        W70082   5.823  19.993   6.585  0.0014  0.0441  0.3298
69219W        W70083  27.036   9.759  25.228 -0.2285  0.1189 -0.2042
69220W        W70084  18.896  17.149  21.378 -0.3180  0.0614  0.0038
69221W        W70085   8.486   2.867   0.270 -0.3697 -0.0179  0.0712
69222W        W70086   1.524   4.718  17.045  0.0305  0.0011  0.4520
69223W        W70087  15.963   6.287   2.554  0.3726  0.0874 -0.3425
69224W        W70088   8.119   6.904  23.418 -0.1452  0.2977 -0.4319
69225W        W70089   1.029  10.871  16.900 -0.1630 -0.0897 -0.1011
69226W        W70090  12.168  22.940  22.653  0.0274  0.2562 -0.0393
69227W        W70091  24.169   9.290  22.099 -0.0904  0.0367 -0.2760
69228W        W70092  19.532  20.304  14.925  0.1289 -0.2136 -0.1437
69229W        W70093   8.950   9.295   1.423  0.1393 -0.1979  0.1735
69230W        W70094  26.113  12.161  16.435 -0.1640 -0.0955  0.0352
69231W        W70095  14.020  27.740  24.672 -0.2755  0.1268  0.1408
69232W        W70096  21.293   2.329   8.741 -0.1883 -0.0488 -0.0269
69233W        W70097  16.772  12.847  12.911 -0.1487  0.1775 -0.2267
69234W        W70098  27.336  18.948  27.741  0.1200 -0.0612  0.0915
69235W        W70099  26.338   5.471  19.527 -0.0542  0.0143 -0.0918
69236W        W70100  10.201  17.069  11.900 -0.0131  0.0067 -0.0617
69237W        W70101  22.223   9.796   7.191  0.2995 -0.0308  0.1626
69238W        W70102  13.855  23.310   0.358 -0.1055  0.0116 -0.1779
69239W        W70103   9.343  18.764   0.472  0.0780 -0.1804  0.3234
69240W        W70104   8.499  21.072  10.048  0.0239  0.1708 -0.0164
69241W        W70105  23.553   4.564   9.260 -0.1193 -0.0361 -0.0191
69242W        W70106  10.477   2.280   2.738  0.0791 -0.3974  0.1028
69243W        W70107  19.361  23.263   8.121  0.0119 -0.1558  0.1939
69244W        W70108  16.101  16.366  18.429  0.1424  0.2298 -0.1581
69245W        W70109   0.793  23.811  16.652 -0.1747  0.0543  0.0110
69246W        W70110  16.915   7.194  23.487  0.2649  0.1330 -0.1169
69247W        W70111   7.037  10.434  19.944 -0.0566 -0.2907  0.0082
69248W        W70112  26.580  22.736   0.705  0.3275 -0.0841 -0.0884
69249W        W70113  12.303  17.452   0.873 -0.0653  0.2132  0.2145
69250W        W70114   7.777   9.721   3.442  0.3812  0.0194 -0.1147
69251W        W70115  16.023  23.535  15.386  0.1106 -0.0527  0.2017
69252W        W70116  21.585  22.815   9.752  0.2941  0.0262 -0.0794
69253W        W70117  21.125  22.986   2.167  0.0493 -0.2342  0.1223
69254W        W70118  27.801  15.878   2.437 -0.1131  0.3960 -0.0470
69255W        W70119  26.383  10.623   8.156 -0.1349 -0.1129  0.1395
69256W        W70120  25.906  20.926   8.889 -0.2528 -0.0455 -0.1124
69257W        W70121   1.272  17.827   4.109  0.1076  0.2262  0.2657
69258W        W70122  13.494   7.421  20.813  0.1435  0.0663  0.2152
69259W        W70123  26.891   5.251  23.288  0.2881  0.2104  0.1802
69260W        W70124  22.129   3.525  10.011  0.1332  0.0748  0.1420
69261W        W70125  17.650  11.933  19.356  0.2429  0.2245  0.0095
69262W        W70126  11.623   9.957  15.848  0.1534  0.3903 -0.5348
69263W        W70127  26.509  10.541  11.652 -0.0899 -0.0344  0.0411
69264W        W70128  28.715  23.455  17.585  0.1242  0.0570  0.2212
69265W        W70129  11.720  23.469   5.264  0.1992 -0.4617  0.0080
69266W        W70130  20.891  14.967  15.951 -0.1576 -0.0444  0.1272
69267W        W70131  18.613  12.407  26.551 -0.0421 -0.2208  0.2755
69268W        W70132   8.249   5.130  24.909  0.2089  0.1076  0.0737
69269W        W70133  17.083   5.124  23.474 -0.1987  0.0066  0.0697
69270W        W70134   3.397   5.860   7.391 -0.1611  0.2450 -0.1197
69271W        W70135  22.615  19.208  26.079  0.1762  0.1001 -0.2415
69272W        W70136  13.295  13.921   1.050 -0.0622  0.0395  0.0672
69273W        W70137  26.907  10.759   5.951  0.1457  0.4738 -0.0700
69274W        W70138   1.452  23.066  19.047 -0.0125  0.0046 -0.0787
69275W        W70139  16.770  26.637  22.814 -0.2239  0.1905  0.1821
69276W        W70140  16.123  23.887  22.771  0.4226  0.1170  0.0757
69277W        W70141  26.935   9.527  11.705 -0.0695  0.1590  0.0546
69278W        W70142  14.762  21.546  25.408 -0.0292  0.1214 -0.0416
69279W        W70143  21.704  24.719  27.436 -0.1887  0.1317  0.0267
69280W        W70144  20.492   3.931  14.121  0.2529 -0.0506  0.3165
69281W        W70145   0.227  21.174  20.815  0.0637  0.0998  0.0875
69282W        W70146  11.331  16.973  24.463 -0.1482 -0.1352 -0.1187
69283W        W70147  24.355   3.822   8.549  0.1944 -0.0477 -0.3153
69284W        W70148  21.545  25.978  27.809 -0.0797  0.0181  0.1869
69285W        W70149   6.502   8.993  15.151 -0.0051 -0.1620  0.3085
69286W        W70150   3.976  13.607   9.570 -0.2656 -0.1912  0.3340
69287W        W70151   0.633  26.698  10.859  0.3294  0.0212 -0.2657
69288W        W70152  23.197  21.740  19.965 -0.0325  0.1290 -0.1388
69289W        W70153  13.130   1.254  15.728 -0.1527 -0.0225 -0.1921
69290W        W70154  26.977  22.874  17.417 -0.1816  0.0808  0.2950
69291W        W70155   6.147  10.084   2.259 -0.0747 -0.1215 -0.0399
69292W        W70156   4.476  20.398  14.304 -0.1981  0.2852  0.0133
69293W        W70157  18.549  26.805  27.029  0.1909 -0.2282 -0.1611
69294W        W70158   8.035  12.594  12.978 -0.0055 -0.0416  0.3270
69295W        W70159  12.639  15.435  28.007  0.0096  0.1566  0.2689
69296W        W70160  19.191  12.176  27.764  0.0372  0.2681  0.0875
69297W        W70161  27.804  25.524  19.186 -0.0977  0.0438 -0.1678
69298W        W70162  16.308   7.727   6.611  0.1467 -0.0444 -0.2327
69299W        W70163  23.133   8.701  18.699  0.1481  0.0059 -0.1830
69300W        W70164  18.677  16.757  23.958  0.1242  0.1479 -0.1223
69301W        W70165  10.469  22.446  21.742 -0.0057 -0.3678  0.1578
69302W        W70166  23.589  20.086   5.614 -0.2967 -0.2407  0.1205
69303W        W70167  20.548   0.194  24.920 -0.0635  0.3831  0.0038
69304W        W70168   4.677  27.050  11.115  0.0122 -0.2563  0.5025
69305W        W70169  11.184  28.084  18.823  0.1329  0.3155  0.1129
69306W        W70170  12.300  13.430  23.914  0.2426  0.3732  0.0798
69307W        W70171   2.787   5.484   3.821  0.1626  0.0370  0.1977
69308W        W70172  21.468  25.595  26.017 -0.3941 -0.0838  0.3726
69309W        W70173  12.741  12.791  13.672  0.0860  0.1067  0.1437
69310W        W70174   0.783   0.518  13.527 -0.0030  0.1728 -0.1065
69311W        W70175   7.547   6.448  20.908  0.0597  0.0250  0.0010
69312W        W70176  12.725  16.111   3.950  0.0869  0.3315  0.0323
69313W        W70177  21.303  21.796  14.523 -0.1323  0.0474  0.0867
69314W        W70178  24.594   3.308  16.279  0.2710  0.1543  0.1645
69315W        W70179  15.628  16.200  23.589 -0.0116  0.0264  0.0896
69316W        W70180   9.838  14.973  22.078 -0.1670  0.0442  0.0246
69317W        W70181  26.821  19.034   3.583 -0.2339 -0.3087 -0.0630
69318W        W70182  20.411  15.651  24.337  0.3959  0.3311  0.1694
69319W        W70183  16.286  19.285  22.624 -0.2336  0.0047 -0.3371
69320W        W70184   4.559  18.046  28.461  0.0428  0.0691  0.1621
69321W        W70185  25.394  10.969  20.790 -0.1500 -0.2171  0.1764
69322W        W70186  16.077  22.333  15.043  0.2928 -0.1073 -0.0329
69323W        W70187  27.881  15.421  26.200  0.0713  0.1303 -0.0326
69324W        W70188  19.409  24.711  12.440 -0.0953  0.0808  0.0010
69325W        W70189  18.385  12.187  20.036 -0.0239 -0.1093 -0.1285
69326W        W70190  19.234   1.369  25.073 -0.3489  0.0795 -0.3976
69327W        W70191   1.433   4.457  14.331  0.0359  0.0831 -0.0116
69328W        W70192   3.229  21.225  23.125 -0.3808  0.0556 -0.0711
69329W        W70193  13.092  23.364  24.383  0.0600 -0.0605  0.1034
69330W        W70194  24.879   5.921  23.268  0.2061  0.1822 -0.3232
69331W        W70195  14.314   0.169   4.481 -0.1505  0.0101 -0.2911
69332W        W70196  24.547  19.909  28.107 -0.2079  0.0626 -0.1602
69333W        W70197   3.577   8.618   7.929 -0.1535  0.2005  0.2012
69334W        W70198  19.175  18.895  22.631 -0.3402 -0.0190 -0.1809
69335W        W70199  20.170   0.833  24.486  0.1895 -0.0482  0.0170
69336W        W70200   6.160  18.558  25.396  0.0401 -0.1030 -0.2181
69337W        W70201  28.975   6.262  27.106  0.0134 -0.1898  0.0698
69338W        W70202   1.936  18.807  25.466 -0.0210  0.0629  0.3073
69339W        W70203   0.992   9.912   9.355 -0.0587  0.1199  0.1995
69340W        W70204   1.441   9.863   2.518 -0.0418 -0.1563 -0.1600
69341W        W70205   7.662   0.077   6.027  0.0381 -0.0669 -0.0969
69342W        W70206   3.010  11.708   9.472  0.0893  0.0223 -0.1032
69343W        W70207  25.579  19.007  14.039 -0.0386 -0.1473 -0.1455
69344W        W70208  15.123  22.395  28.198  0.1363 -0.2048  0.1373
69345W        W70209  14.158   9.350   3.660  0.0529 -0.2034  0.2981
69346W        W70210   2.914  11.681  21.690 -0.0877  0.0738 -0.0454
69347W        W70211   8.792   1.543  13.817  0.2945 -0.0244 -0.1433
69348W        W70212  19.766  22.947   0.172 -0.2387 -0.1764  0.1748
69349W        W70213  20.467  20.802   2.949  0.1271 -0.0581 -0.1471
69350W        W70214  18.021  17.669   6.233  0.0542  0.3484  0.0317
69351W        W70215  17.890  12.591  22.049 -0.0518  0.1633 -0.2365
69352W        W70216  23.241  14.095  20.602 -0.2976  0.3739 -0.1001
69353W        W70217  26.238  22.554   4.740  0.0892 -0.0411 -0.1670
69354W        W70218  10.175  11.911  25.805  0.0508 -0.1781  0.1717
69355W        W70219  14.889  19.015  13.295 -0.0991 -0.0425 -0.1622
69356W        W70220   4.718   6.273   5.836 -0.0770 -0.3413  0.2790
69357W        W70221   4.578  23.826  11.210  0.1149 -0.0222  0.3164
69358W        W70222  21.292  18.712  28.391 -0.1489 -0.1329  0.1325
69359W        W70223  15.837  16.386  27.134  0.0356  0.1890  0.1018
69360W        W70224   9.799  13.865  17.811  0.0922 -0.1742  0.0320
69361W        W70225  24.566   8.873  23.364  0.0423  0.3400  0.0089
69362W        W70226  17.601  17.648  14.019 -0.2619 -0.0650  0.2819
69363W        W70227   8.818  20.676  26.127 -0.2284  0.1004 -0.0482
69364W        W70228   2.226   4.443  16.430  0.0373 -0.2308 -0.0602
69365W        W70229  13.611  14.479  19.105 -0.0958 -0.4029  0.0420
69366W        W70230  24.188   8.265  16.118 -0.1127  0.1658  0.3943
69367W        W70231  12.360  21.556  26.274  0.0868 -0.1254 -0.3539
69368W        W70232  23.928  12.899   7.072  0.0903 -0.0073  0.2893
69369W        W70233  23.229  24.789  24.790  0.0727  0.0405 -0.0125
69370W        W70234   2.451  18.151  23.299  0.1703  0.0645  0.1144
69371W        W70235  22.913   6.486  18.561 -0.0992  0.5053  0.0623
69372W        W70236  27.429   3.811   5.454  0.1159 -0.0301 -0.2719
69373W        W70237   7.884  15.853  23.635 -0.0788 -0.0166  0.2269
69374W        W70238  12.231   4.598  10.292  0.0395 -0.2680 -0.0529
69375W        W70239  14.177   2.536   4.092 -0.0474  0.0885  0.0272
69376W        W70240  18.830  26.256  23.898 -0.0615  0.0728 -0.3413
69377W        W70241   7.827   3.865   8.128 -0.3801 -0.1218 -0.3332
69378W        W70242  14.526  20.124   0.286 -0.1233  0.0305 -0.1992
69379W        W70243  28.319  15.352   9.537  0.2115  0.1038 -0.3554
69380W        W70244  11.097   6.207  28.829 -0.0735  0.0408  0.0022
69381W        W70245  27.694  19.570   1.664  0.0031 -0.0958  0.3101
69382W        W70246   7.302  11.835   0.543  0.1148  0.3533 -0.0329
69383W        W70247  24.333  18.905  18.319  0.0649  0.2834 -0.1794
69384W        W70248  23.434   1.318  19.757 -0.1362 -0.3558  0.0802
69385W        W70249  19.941  22.793  27.295  0.2857  0.0418 -0.0032
69386W        W70250  21.673  28.314  25.215 -0.3142 -0.1542  0.1820
69387W        W70251  26.768  16.081   2.663  0.1147  0.0775  0.0739
69388W        W70252   5.996  19.801   1.728  0.1453 -0.0835  0.0515
69389W        W70253  28.017  25.633   6.510  0.1029 -0.2620 -0.1028
69390W        W70254   7.959  20.559  13.587  0.3659  0.1399  0.0827
69391W        W70255  19.905   0.354  18.297  0.1540  0.3791  0.0262
69392W        W70256  18.947  16.021   4.633  0.3437  0.0932  0.0853
69393W        W70257  23.042  19.905   2.775 -0.2339 -0.2035  0.0096
69394W        W70258  27.128  23.719  11.896  0.2306  0.2984  0.1802
69395W        W70259  19.473  16.533  14.204  0.2261 -0.3002  0.4356
69396W        W70260   9.621  15.514   6.980  0.0252 -0.0163  0.3468
69397W        W70261  14.104  20.841  13.647  0.1561  0.1667 -0.1323
69398W        W70262  17.201   1.344   2.368  0.3173 -0.0055 -0.1493
69399W        W70263  10.050   9.568  21.976 -0.1288  0.1698  0.1325
69400W        W70264  16.958   1.767  26.621 -0.0104  0.3544 -0.0329
69401W        W70265   9.556  15.834  10.442  0.5290 -0.0584  0.0988
69402W        W70266  24.921  15.081  24.060 -0.2666 -0.0004 -0.0717
69403W        W70267   5.278   8.695  16.615  0.2054  0.2171  0.0866
69404W        W70268   5.940  12.036  19.749 -0.2135  0.1712  0.0534
69405W        W70269  16.662  13.518   4.807  0.2172  0.1747  0.0941
69406W        W70270  15.204  16.252  24.723  0.0762 -0.2043  0.0947
69407W        W70271  24.948  18.715  26.232 -0.2138 -0.1943 -0.3277
69408W        W70272  24.617  28.206  28.560  0.1309  0.0800 -0.2753
69409W        W70273  21.273   4.063   3.698  0.3197  0.0102  0.2365
69410W        W70274  18.071   9.347  24.114  0.1872 -0.0232 -0.0179
69411W        W70275  12.319  18.570  24.917  0.0263  0.4856  0.3292
69412W        W70276  25.649  27.357   8.286 -0.0479  0.2225  0.1934
69413W        W70277  10.853  13.216  28.710 -0.0093 -0.1702 -0.1419
69414W        W70278   4.448  11.433   9.939 -0.3746  0.1419  0.0088
69415W        W70279   6.290  11.766  17.754  0.1510 -0.0453  0.1013
69416W        W70280  16.957   5.279  13.352 -0.1647  0.1097  0.1213
69417W        W70281   9.580   9.655  19.905  0.1623 -0.2909 -0.0767
69418W        W70282  13.009  20.759  11.141 -0.1110  0.0575 -0.0163
69419W        W70283  27.872   3.854  22.980 -0.2916 -0.0100 -0.0840
69420W        W70284   7.993   0.825  11.916  0.0258  0.0727 -0.0052
69421W        W70285  17.535   5.211   0.609 -0.2337 -0.1700 -0.3015
69422W        W70286  21.914  22.470  17.224  0.1929 -0.0242 -0.0833
69423W        W70287  20.740  12.574  12.641  0.0631  0.0813  0.2882
69424W        W70288  18.957  10.864   2.582  0.0827 -0.0427 -0.1789
69425W        W70289  11.355   9.545   3.623 -0.0770  0.0853 -0.2780
69426W        W70290   9.089  13.985   1.324 -0.5456  0.1666 -0.1598
69427W        W70291   1.993   8.257  22.930  0.2060 -0.1868 -0.0088
69428W        W70292   0.014  24.373  23.625 -0.1340  0.0068  0.0493
69429W        W70293   1.539  21.844  24.379 -0.3357  0.0114  0.3652
69430W        W70294  21.604   2.716  28.580 -0.2973  0.0172 -0.3217
69431W        W70295  21.709   4.586  25.497  0.0340  0.2265 -0.1061
69432W        W70296  17.331  19.126   1.108 -0.3137 -0.1401  0.2147
69433W        W70297   3.468  15.741  26.498  0.4103  0.0648  0.2170
69434W        W70298  23.144  11.705  26.133  0.3769 -0.2199 -0.1891
69435W        W70299  18.195  16.522  26.192  0.0745 -0.2484 -0.0073
69436W        W70300  19.866  21.265   0.428 -0.1010  0.0047  0.2293
69437W        W70301  13.274   5.073  14.794 -0.0440 -0.0983 -0.3051
69438W        W70302  23.227  13.008   5.608  0.1536 -0.1914 -0.1491
69439W        W70303  24.859  15.290   2.539 -0.0357  0.1486 -0.2641
69440W        W70304   9.969   1.641   8.590  0.2236  0.2855  0.3023
69441W        W70305  22.652  23.747   6.123  0.0929  0.0823  0.0141
69442W        W70306   0.566  13.560   9.724  0.2213  0.1222 -0.3132
69443W        W70307  18.991  25.846  13.051  0.0253  0.2285 -0.0385
69444W        W70308  19.776  16.827  26.980 -0.2980  0.0377  0.1020
69445W        W70309   4.493  17.861   0.072 -0.2421  0.1531  0.0190
69446W        W70310  13.548   5.306  27.503  0.0396 -0.0006 -0.1407
69447W        W70311  22.270  22.123  19.819 -0.0335 -0.0557 -0.3386
69448W        W70312   9.575  26.826  26.499 -0.5768 -0.0534  0.0115
69449W        W70313  19.850  18.839  10.084  0.1114 -0.0262  0.0628
69450W        W70314  18.527  19.780  28.542  0.2468 -0.1148 -0.0937
69451W        W70315   2.734  18.370   4.642  0.0368 -0.0730 -0.1646
69452W        W70316   2.250  21.834  10.470 -0.0054  0.0953 -0.0438
69453W        W70317   1.658  13.857  21.092 -0.1353 -0.0515  0.1189
69454W        W70318  27.349  25.508  13.448  0.0342  0.0122 -0.0779
69455W        W70319  12.128   8.525  25.694 -0.0902  0.1962  0.0213
69456W        W70320   6.931  11.119   1.544  0.0631  0.0174 -0.1323
69457W        W70321  16.489  22.000  18.633 -0.2863 -0.0443 -0.1659
69458W        W70322  22.698  19.390  25.188  0.0901  0.0091  0.0693
69459W        W70323   0.829  22.700  22.884  0.1183  0.0769 -0.0496
69460W        W70324  11.393   3.346   3.661 -0.0736 -0.1406  0.0738
69461W        W70325  23.166  16.821   3.327  0.3380  0.1237 -0.0843
69462W        W70326  17.261  20.983  20.171  0.2714 -0.1659 -0.0399
69463W        W70327  21.815  12.317  18.946 -0.0217 -0.0596  0.0343
69464W        W70328   0.169   9.707   7.116 -0.0877  0.2538  0.2138
69465W        W70329   2.183  27.052  12.594 -0.2332  0.1542 -0.2801
69466W        W70330  20.005  20.763   8.246 -0.1721 -0.1434 -0.1125
69467W        W70331  24.905   7.360   0.640 -0.0452  0.0884 -0.0782
69468W        W70332  19.879  13.239  28.344  0.1079  0.1132  0.2640
69469W        W70333  24.826  15.604  22.542 -0.1007 -0.1209 -0.2489
69470W        W70334   2.585   9.774   2.317  0.0213  0.2306 -0.2858
69471W        W70335  18.562  18.870   2.377 -0.0214  0.1820 -0.1233
69472W        W70336  21.267  12.440   4.688  0.1964 -0.2022  0.0720
69473W        W70337   4.766  16.093  17.947 -0.1274  0.2365  0.0173
69474W        W70338  23.641  26.631  19.286 -0.4065 -0.0877 -0.0759
69475W        W70339   1.091   7.309  14.708 -0.0252 -0.1258  0.3935
69476W        W70340  20.998  11.663  26.047  0.1842 -0.1505 -0.1469
69477W        W70341  12.636  20.092   3.729  0.2250  0.1716 -0.2218
69478W        W70342  11.410  26.417   4.089  0.0975  0.0267 -0.1401
69479W        W70343  25.371   8.170   9.617 -0.0153  0.1624  0.0577
69480W        W70344   3.887  14.040   8.399 -0.0616 -0.0187 -0.2034
69481W        W70345  24.870  17.747   2.549 -0.1438  0.2550  0.1404
69482W        W70346   3.197  11.417   8.202 -0.2174 -0.0765 -0.3251
69483W        W70347  23.386   9.602   2.866  0.2631 -0.2485 -0.0776
69484W        W70348  28.653   6.429   6.429 -0.0555  0.1580 -0.1167
69485W        W70349   0.620   4.527   2.062 -0.0270 -0.2822 -0.3388
69486W        W70350  20.888   9.521   7.221 -0.0653 -0.0940  0.1379
69487W        W70351  11.902  20.915  29.120 -0.1588  0.0281 -0.0493
69488W        W70352  21.818   4.978   3.933  0.0777 -0.1525  0.1872
69489W        W70353  13.910  21.089  23.973  0.1904 -0.2162  0.1459
69490W        W70354  11.019   4.259   5.500 -0.0111 -0.0650 -0.2370
69491W        W70355  19.746  16.997   8.984  0.4705 -0.0225  0.0493
69492W        W70356  10.600  20.214   5.784 -0.0475  0.2051  0.1980
69493W        W70357  27.360   7.903  24.226  0.1067 -0.4200 -0.2625
69494W        W70358  12.975   6.059   0.247 -0.2255  0.3121  0.2445
69495W        W70359  27.908  11.178  19.521  0.3707  0.1854 -0.0422
69496W        W70360   0.655  12.076  19.475  0.0488  0.0447  0.0626
69497W        W70361  26.760   4.137  14.557 -0.0231  0.0560 -0.1554
69498W        W70362  25.482   5.955  19.925 -0.0768 -0.0271  0.3136
69499W        W70363   8.508  16.752   8.028 -0.0929  0.1176 -0.1403
69500W        W70364  10.396   8.857  14.533  0.3087  0.0909 -0.0468
69501W        W70365  28.009   3.714   5.020  0.0341 -0.0085 -0.2367
69502W        W70366  23.861  15.875  17.776  0.1310 -0.1697  0.2127
69503W        W70367   1.682  10.460   4.523  0.0162 -0.0809 -0.0885
69504W        W70368  15.446  14.478   5.508  0.2280  0.1390 -0.0631
69505W        W70369  15.936   5.283  12.363  0.0553 -0.0478  0.1761
69506W        W70370   9.889  27.109  29.048  0.0412  0.0398 -0.2876
69507W        W70371  22.875  18.957  15.821 -0.1988  0.2607  0.0374
69508W        W70372  29.078   7.855  18.332 -0.2682 -0.2119  0.1598
69509W        W70373  20.011   6.534  11.769  0.0657  0.4220  0.2778
69510W        W70374  13.315  26.791   5.724 -0.0931  0.3273 -0.0486
69511W        W70375  11.977  27.068   1.002  0.0196  0.2292 -0.3423
69512W        W70376  28.846  26.258  28.253  0.1907 -0.0647 -0.1693
69513W        W70377  27.694  17.881  28.483 -0.0099 -0.2545 -0.2103
69514W        W70378  21.645   6.637  26.810  0.0081  0.0564  0.1237
69515W        W70379  26.072   9.925  25.174 -0.2313  0.1553  0.1178
69516W        W70380  11.235  13.559  22.832  0.2211  0.0938  0.0515
69517W        W70381   9.934  22.086   5.818 -0.3386 -0.1758  0.0435
69518W        W70382  19.625  17.356   5.861 -0.0071  0.0751 -0.1075
69519W        W70383   9.600  28.444   7.179 -0.0427 -0.2153 -0.0099
69520W        W70384  10.277   5.767   3.956  0.1111  0.1029  0.5640
69521W        W70385  16.238  14.603  16.029  0.0991  0.1688 -0.0831
69522W        W70386  28.498   6.295  15.332  0.0029  0.0048 -0.1400
69523W        W70387  25.934  10.846   6.367 -0.1452 -0.1220  0.1472
69524W        W70388  15.857  26.767   0.750 -0.1363  0.1618 -0.3150
69525W        W70389  23.887  25.414  27.046 -0.2363 -0.2213 -0.4167
69526W        W70390  18.575  12.298   0.622 -0.1385 -0.3269 -0.0398
69527W        W70391  13.341   4.224  17.957 -0.2465 -0.1047  0.0114
69528W        W70392  15.127   1.813   3.915 -0.0750  0.1706 -0.1600
69529W        W70393  20.183  14.724   1.608 -0.1040  0.0107 -0.0864
69530W        W70394  16.588  26.728  18.892 -0.1433  0.3960 -0.0199
69531W        W70395   7.624  17.826   4.786 -0.0812  0.2782 -0.0906
69532W        W70396   0.405   7.063   7.892  0.1585  0.0500  0.1543
69533W        W70397  29.073  13.741   8.993  0.2393  0.0164 -0.0143
69534W        W70398  12.446  25.898  20.228  0.1767  0.3474 -0.2348
69535W        W70399  21.799   2.305  16.566 -0.2252  0.0619  0.1947
69536W        W70400  26.549   1.463   5.870 -0.3876 -0.0930 -0.0718
69537W        W70401  20.128  20.845  16.499  0.0324 -0.0188  0.3053
69538W        W70402  18.850  19.165   1.990  0.3944 -0.0331 -0.0104
69539W        W70403  25.402  21.832  20.098  0.0216 -0.2742 -0.0929
69540W        W70404  18.677  11.239  24.399 -0.0812  0.2736  0.2130
69541W        W70405  14.204  19.897   2.371  0.0653  0.0058  0.0789
69542W        W70406  14.359  14.330  20.358 -0.2372 -0.3319  0.1476
69543W        W70407  23.860   7.983   2.230  0.1254 -0.2256 -0.3484
69544W        W70408  28.369  24.543   3.020  0.1518 -0.2584 -0.2317
69545W        W70409   5.926  19.105  19.442 -0.1808 -0.0555  0.0685
69546W        W70410  14.946  13.684   9.497 -0.1646 -0.2135 -0.1942
69547W        W70411   5.362  27.122  25.812  0.2027  0.4000  0.0052
69548W        W70412   2.175  21.345   0.323  0.1115 -0.2122  0.0360
69549W        W70413  15.132  10.482  25.819 -0.1469 -0.2079 -0.2347
69550W        W70414  10.063   2.979  10.039  0.1423 -0.0556  0.1110
69551W        W70415   1.450  17.292   6.904  0.0761  0.0844  0.5542
69552W        W70416   9.944  13.695   7.668 -0.0650 -0.0761  0.1545
69553W        W70417   1.965   9.097   5.313 -0.0179  0.2890 -0.0704
69554W        W70418  14.525  20.366  22.734 -0.0237  0.0895 -0.1110
69555W        W70419  25.260  18.109  16.945 -0.0656 -0.2895  0.4649
69556W        W70420  26.352  14.661   7.654 -0.1294 -0.0721  0.1145
69557W        W70421  11.078  21.036  27.159  0.2659 -0.0528 -0.0326
69558W        W70422  22.094  10.067   4.803 -0.3050 -0.0418  0.1934
69559W        W70423  17.575  17.488  24.447 -0.1523 -0.1976 -0.1916
69560W        W70424   9.212   6.563  20.816 -0.0953  0.2662  0.0160
69561W        W70425   8.511  23.182  26.337 -0.1191  0.1216  0.0893
69562W        W70426   2.036   0.491  29.042 -0.0720 -0.0947  0.0203
69563W        W70427  15.547  17.704   9.526 -0.1526 -0.0385  0.3777
69564W        W70428   1.757  16.499  18.956  0.1080 -0.0016  0.2118
69565W        W70429  21.166  28.097  28.881  0.2804 -0.2070  0.1419
69566W        W70430   0.809   1.526  25.634 -0.2099 -0.1755 -0.0826
69567W        W70431  25.578  20.410   3.509  0.1485 -0.1083  0.0622
69568W        W70432   9.664  25.621  12.077  0.0748  0.1473  0.4936
69569W        W70433  16.942  20.024   6.303  0.2950 -0.0142  0.1624
69570W        W70434  23.699  23.784  19.553 -0.0860 -0.0936 -0.3690
69571W        W70435  13.739  17.455   0.435  0.2345  0.0029 -0.0816
69572W        W70436   7.956   2.546   1.702  0.0658  0.2165  0.0826
69573W        W70437  29.132  28.200  16.943  0.0049 -0.0790 -0.3434
69574W        W70438  28.047   4.962  23.676 -0.1906  0.1357 -0.1053
69575W        W70439  25.185  12.340   3.111  0.0602 -0.2649 -0.0426
69576W        W70440  15.888  13.574  16.491 -0.0173 -0.3010 -0.1526
69577W        W70441  22.057  15.355   8.288  0.2287 -0.2090 -0.0258
69578W        W70442  17.312  17.728  17.764  0.0069  0.1436 -0.1927
69579W        W70443  23.756  21.110   1.699  0.3081  0.1826 -0.2136
69580W        W70444  25.848  16.683   3.854  0.1546  0.2689  0.1154
69581W        W70445   8.190  12.419  25.466  0.0947 -0.1027 -0.1254
69582W        W70446  26.343   0.736   4.961  0.1767 -0.1542 -0.2510
69583W        W70447  28.326  11.396   3.181  0.0736 -0.1046 -0.0761
69584W        W70448  19.771  23.726  10.562  0.1490 -0.0803  0.3867
69585W        W70449   6.825  15.612  19.319  0.2382 -0.2219 -0.0209
69586W        W70450  26.163  12.138   1.944  0.0574  0.2943  0.1042
69587W        W70451   8.513  12.693   6.063 -0.0232 -0.3888  0.0857
69588W        W70452   2.588   5.452   2.241  0.2482  0.0718 -0.0915
69589W        W70453  20.797  15.591   2.544 -0.2416 -0.0556  0.1248
69590W        W70454   7.877   0.623  16.079  0.1267  0.0674  0.0537
69591W        W70455  19.655  19.705   0.030  0.2926  0.0688  0.1356
69592W        W70456   5.346  15.215  27.491 -0.2147  0.1192  0.1292
69593W        W70457  28.262  23.719  15.117 -0.3154  0.1854  0.1965
69594W        W70458  25.635  18.092  13.230 -0.2456 -0.2629 -0.1956
69595W        W70459  19.055  27.332  12.724  0.0436  0.0709  0.1151
69596W        W70460  19.439   9.829  27.039 -0.0921  0.0322 -0.2291
69597W        W70461   1.101   6.506   8.398 -0.0913 -0.0308 -0.0038
69598W        W70462  14.264  17.384  26.299  0.0562  0.1772 -0.0275
69599W        W70463   4.658  15.861   8.611  0.0307 -0.0024 -0.2573
69600W        W70464  27.028  20.813  19.283  0.1426  0.1381  0.1783
69601W        W70465  13.236  14.915  18.143  0.0678  0.0250 -0.4296
69602W        W70466  21.586   7.036  24.148 -0.0329 -0.5530 -0.0318
69603W        W70467  10.806   7.173  18.607  0.2146 -0.2411  0.0518
69604W        W70468  16.203   8.107   1.421  0.2432 -0.1207 -0.4257
69605W        W70469  24.232  11.967   4.799 -0.2392  0.2709  0.0433
69606W        W70470  21.087   8.945  12.974 -0.0633  0.2483 -0.0361
69607W        W70471  10.763  14.578  15.623  0.1365  0.1445 -0.0596
69608W        W70472   6.845  18.658  15.605 -0.0660  0.1790  0.0253
69609W        W70473   3.068  23.627  17.175  0.0246  0.4813  0.2070
69610W        W70474  14.946   5.750   5.994 -0.2746  0.1948  0.1625
69611W        W70475  17.925  14.030   1.322  0.1185 -0.0231  0.2017
69612W        W70476  16.180  24.726  25.554  0.2341 -0.3530  0.0127
69613W        W70477   9.411   6.257   7.331  0.1334  0.2577  0.3250
69614W        W70478  10.005  10.538   1.692 -0.0605 -0.3307  0.1501
69615W        W70479  13.175  15.620  13.877  0.1960 -0.1830  0.0264
69616W        W70480   1.758  23.238   1.152 -0.1476  0.0687  0.0613
69617W        W70481  22.249  28.698  26.536 -0.0695 -0.0883 -0.1907
69618W        W70482  15.486  23.371  20.786 -0.1506 -0.1062  0.0007
69619W        W70483   7.556  19.367  27.333 -0.0981  0.0976  0.1058
69620W        W70484  17.542   3.727   4.461  0.4016 -0.3833 -0.0709
69621W        W70485   7.974  21.025  23.757  0.1007 -0.1330 -0.0298
69622W        W70486  17.662  25.951  12.779 -0.0703  0.3911 -0.1486
69623W        W70487   6.185   5.952  17.480 -0.1517  0.0114  0.1282
69624W        W70488  26.203  19.779  24.145  0.1105  0.0772  0.1209
69625W        W70489  27.585  15.135  22.999  0.0308 -0.1693  0.0781
69626W        W70490  23.164   1.552  16.596 -0.2158  0.0451  0.3580
69627W        W70491   7.198  17.253   6.764 -0.2134  0.1305  0.0523
69628W        W70492  27.441  21.131   5.067 -0.0214 -0.1073  0.0556
69629W        W70493  13.686   6.142   1.992 -0.0718 -0.0936  0.3368
69630W        W70494  27.968  11.982  24.638 -0.0427  0.3752 -0.2835
69631W        W70495  21.065  24.365   2.101 -0.1755 -0.0467  0.2369
69632W        W70496  10.079  14.453  22.610  0.3551  0.1206 -0.0457
69633W        W70497   1.251  21.301   2.478 -0.2350  0.0331 -0.0530
69634W        W70498   6.595  15.836   1.015  0.0172  0.1095  0.2682
69635W        W70499   7.463  25.896  23.553 -0.1308 -0.3067  0.2596
69636W        W70500  17.151   6.677  12.278  0.0094 -0.1056  0.3086
69637W        W70501   2.736   1.555   2.530 -0.2310 -0.0232 -0.1065
69638W        W70502   3.452   4.798  22.208 -0.1090  0.0127  0.0888
69639W        W70503  25.575  28.047  25.297  0.2990  0.2794  0.0175
69640W        W70504  12.443   5.624  22.631  0.1183  0.0182  0.0256
69641W        W70505  14.063  23.206  23.922 -0.0698 -0.0389 -0.1062
69642W        W70506   2.095  26.673  21.787  0.0885 -0.1169 -0.2029
69643W        W70507  24.742  15.399  26.627 -0.1585  0.1733 -0.0744
69644W        W70508  17.882   2.470  17.501 -0.0664 -0.0478 -0.1394
69645W        W70509   5.337   9.032  14.470  0.0455  0.0022  0.1929
69646W        W70510  16.575  11.586  11.968 -0.0286 -0.0029  0.2275
69647W        W70511  17.338   1.394  24.764 -0.0857  0.5125 -0.0315
69648W        W70512   2.579  23.817   9.647 -0.2671  0.2473  0.2587
69649W        W70513  14.634  27.492  23.121  0.0507 -0.1730  0.1965
69650W        W70514   8.273  28.180  27.410 -0.1907 -0.2232 -0.1011
69651W        W70515  21.416   5.577   5.414  0.2298 -0.0941  0.0256
69652W        W70516  21.565  19.925  14.666 -0.0633 -0.0257 -0.0804
69653W        W70517  25.889  29.090  16.051  0.2005  0.0088  0.0564
69654W        W70518   8.987  13.244   7.977  0.4005 -0.1102  0.0286
69655W        W70519   4.594  19.225  12.610 -0.0165  0.0292  0.2284
69656W        W70520  19.867  25.934   5.820 -0.0937  0.0323 -0.0740
69657W        W70521   1.789  19.268  28.985  0.1876  0.1563 -0.1995
69658W        W70522  21.562  14.898   4.709  0.0868 -0.0334 -0.1626
69659W        W70523  11.216   2.595   0.225 -0.0890  0.2290 -0.0770
69660W        W70524   2.605  16.850  23.879 -0.0991 -0.2065  0.0041
69661W        W70525   1.311  25.420  25.555 -0.1306  0.0023 -0.1986
69662W        W70526  25.043  18.351   6.247  0.1564 -0.2914 -0.1634
69663W        W70527   1.280  24.131   5.011 -0.1044  0.0529  0.0406
69664W        W70528   5.754   4.463   8.188  0.1032 -0.1375  0.0194
69665W        W70529   6.966  27.885  23.698  0.3430 -0.1557  0.0300
69666W        W70530  22.437  19.741  23.296 -0.1805  0.1451  0.2543
69667W        W70531  12.384   7.562  27.871  0.1537 -0.2245  0.0570
69668W        W70532   1.952  13.378  16.326 -0.0008  0.0874 -0.2422
69669W        W70533  12.736  18.270   5.412 -0.1274  0.1653  0.1399
69670W        W70534  12.594  17.695   7.889  0.0651 -0.2340 -0.0272
69671W        W70535  13.963   0.179   1.867  0.0023 -0.0275 -0.1167
69672W        W70536   7.932   8.845   7.878 -0.1340  0.0615  0.0906
69673W        W70537  20.926   5.841  23.486  0.1396 -0.1319  0.0046
69674W        W70538  20.583  17.663  11.083  0.0993  0.1415  0.0297
69675W        W70539  11.382  16.926  22.139 -0.0379  0.3721 -0.1719
69676W        W70540   3.527  28.675   7.080  0.3767  0.3668  0.0349
69677W        W70541  21.306   1.369  22.072 -0.1257  0.3855 -0.0647
69678W        W70542  27.203   8.826  23.814 -0.0416  0.1501 -0.3637
69679W        W70543  21.662  18.404  21.594 -0.0625  0.0691  0.2396
69680W        W70544  15.509  20.518   2.029 -0.1515 -0.3867  0.0164
69681W        W70545  25.561   4.085   5.236  0.1567  0.0161 -0.0377
69682W        W70546   5.690  20.147   3.226  0.2357 -0.3298  0.1132
69683W        W70547  23.651  24.072  25.619  0.0801 -0.1178 -0.2600
69684W        W70548  27.692   5.157   0.218 -0.1136 -0.2662  0.0935
69685W        W70549  24.928  23.280  12.579 -0.2109 -0.1982 -0.0776
69686W        W70550   7.414  24.248  14.174  0.1093  0.1184  0.2719
69687W        W70551   5.465   1.675  28.886 -0.1175 -0.1031  0.1854
69688W        W70552  18.741  15.242   0.834 -0.3337 -0.1369  0.1522
69689W        W70553   0.459  14.778  23.821  0.1183  0.1759  0.1258
69690W        W70554  20.234  12.032   5.497  0.1604 -0.0859  0.3143
69691W        W70555  20.767  11.761  11.514  0.2092 -0.3318  0.1094
69692W        W70556  12.869  16.936  22.029 -0.0718 -0.2466  0.3239
69693W        W70557  23.504  26.902  16.378  0.2578 -0.1522  0.2437
69694W        W70558   3.522  18.425   4.187 -0.2559  0.1035 -0.2715
69695W        W70559  25.338   9.602   6.019  0.0672 -0.0632  0.2631
69696W        W70560  12.906  17.903  10.356 -0.2154  0.1685  0.1374
69697W        W70561  16.948  17.690   6.435  0.2916  0.2696  0.0747
69698W        W70562   6.538  25.097  19.420  0.2930 -0.2148  0.1166
69699W        W70563  10.493  19.286   6.733  0.1161  0.2257 -0.0440
69700W        W70564  14.323  26.355   9.471 -0.0351  0.0710 -0.3097
69701W        W70565  20.485   6.973  21.938 -0.1405 -0.2298 -0.1224
69702W        W70566   1.971  13.901  24.396  0.1186 -0.2032 -0.1111
69703W        W70567  17.590  13.224   7.993  0.0648  0.3224 -0.2246
69704W        W70568  24.394  26.448  24.227 -0.1446 -0.0116 -0.1963
69705W        W70569  15.858  20.763  18.787 -0.0936 -0.1044  0.0927
69706W        W70570  15.085   7.358  25.149  0.0480 -0.0185  0.2137
69707W        W70571  16.746  14.861   7.324 -0.2888  0.0038  0.0999
69708W        W70572   4.066  12.227   8.211  0.1495  0.0544  0.0200
69709W        W70573   5.236  22.974  14.639 -0.1565  0.0683 -0.1186
69710W        W70574  27.183  21.345  11.078 -0.0313 -0.0527  0.5242
69711W        W70575  17.436   3.001  22.769  0.2434 -0.2209  0.0177
69712W        W70576  23.206  21.627  11.675 -0.2537  0.0331 -0.1393
69713W        W70577  16.162  24.666  26.269 -0.1789  0.2154 -0.0362
69714W        W70578  17.755  27.428  26.750 -0.1528 -0.0781  0.0418
69715W        W70579  22.964   3.550   3.494 -0.1195 -0.2614 -0.1983
69716W        W70580  13.721  16.385  28.881 -0.1641 -0.0736  0.0790
69717W        W70581  17.004  19.880  27.188 -0.1748  0.1684 -0.1733
69718W        W70582   6.912  10.104  14.109  0.0057 -0.2090  0.0248
69719W        W70583   2.755  19.519   0.553 -0.1192 -0.0012  0.0590
69720W        W70584  23.622  21.791  26.675  0.3301  0.3615 -0.2555
69721W        W70585  24.217   5.611  16.555 -0.0578  0.3099 -0.3785
69722W        W70586  17.771  24.773  28.831 -0.1871 -0.0379 -0.0110
69723W        W70587  18.009  14.859  19.867  0.1446  0.0845  0.1779
69724W        W70588  19.656  10.788  14.866  0.2324 -0.1490  0.1656
69725W        W70589   6.752  13.876   9.083 -0.1691 -0.2631  0.0946
69726W        W70590   8.040  21.054  24.250  0.3277 -0.0420 -0.1357
69727W        W70591  26.871   8.973   5.665  0.0349 -0.2293 -0.0441
69728W        W70592  12.169  26.256   6.921  0.0854 -0.1491 -0.2872
69729W        W70593  14.332  18.606  25.890 -0.0360 -0.0340  0.4902
69730W        W70594   9.578  16.603  22.705 -0.2729 -0.2896  0.1571
69731W        W70595   1.213  18.002   3.575  0.0533 -0.4282  0.1964
69732W        W70596  18.735  22.572  19.097 -0.0691  0.0910  0.0426
69733W        W70597  28.177   3.238   8.236  0.1639 -0.0499  0.0300
69734W        W70598  15.751  19.792   6.846 -0.0112  0.1184 -0.0305
69735W        W70599  20.542  27.116  24.556 -0.1493  0.1213 -0.0066
69736W        W70600   4.755  12.680  27.086 -0.2126 -0.1148 -0.1497
69737W        W70601  20.067  27.100  25.153  0.0984  0.3747  0.2360
69738W        W70602   8.877   7.383  19.939  0.1146 -0.1150  0.2094
69739W        W70603  14.918  15.681  21.595  0.0247  0.0590 -0.0899
69740W        W70604  27.596  24.333  10.716  0.0903  0.3710 -0.1419
69741W        W70605  24.011  13.174   3.732 -0.2953 -0.3335  0.0122
69742W        W70606   1.971  16.995  25.340  0.1989 -0.1987 -0.4403
69743W        W70607  24.355   1.175   8.714 -0.1907 -0.0373  0.3524
69744W        W70608   9.052   8.223   2.220 -0.0176  0.0833  0.1158
69745W        W70609  16.486  26.890  28.606  0.0164 -0.0138  0.0019
69746W        W70610  17.300  27.052  10.749  0.3155 -0.1441  0.3740
69747W        W70611  14.711   0.214  23.918  0.1244  0.0551 -0.0047
69748W        W70612   1.875  24.557  20.513  0.3423  0.0394  0.0575
69749W        W70613   1.257   7.511  17.627 -0.1104 -0.0985  0.0406
69750W        W70614  15.390   0.708   2.114 -0.0659 -0.1357 -0.2089
69751W        W70615  15.486  19.659   4.307  0.0702  0.1646 -0.1850
69752W        W70616  13.567  14.938   8.905  0.0003  0.4857  0.0145
69753W        W70617  14.547  22.755  23.213 -0.1516 -0.0778 -0.0547
69754W        W70618  17.734   5.470   9.939  0.2738  0.0593 -0.1279
69755W        W70619   9.101  15.935  21.408 -0.2265 -0.2171  0.2197
69756W        W70620  10.097  16.067  23.108  0.2473  0.1505  0.1896
69757W        W70621  24.401  10.353   6.326  0.0513  0.1211 -0.0559
69758W        W70622   3.580  20.715  21.948 -0.1365 -0.1230 -0.1345
69759W        W70623  13.588  13.583   0.378 -0.1065 -0.1098  0.1013
69760W        W70624  10.393  22.230  20.605  0.0368  0.2403  0.1057
69761W        W70625   7.918  17.972  25.430  0.0121  0.1238 -0.0440
69762W        W70626  26.360  24.665  10.231  0.1156  0.0882  0.1981
69763W        W70627  13.488  19.553  25.303 -0.1926  0.0043  0.0252
69764W        W70628   4.080  19.525   4.477  0.1002 -0.2450 -0.3853
69765W        W70629   0.746  15.607   6.598 -0.0961 -0.0762  0.1752
69766W        W70630   4.918  14.545   3.973 -0.0267  0.2047  0.0413
69767W        W70631   2.285  12.014  18.004  0.0600  0.0895 -0.2133
69768W        W70632   2.486  26.882  15.264  0.1455  0.2416 -0.0385
69769W        W70633  14.814   7.772   6.157 -0.1862  0.1842  0.6578
69770W        W70634  19.304   1.799   6.059 -0.0670 -0.0875  0.2868
69771W        W70635  16.315   0.723   6.217  0.1080 -0.1798 -0.1213
69772W        W70636  24.465  13.575  28.857 -0.0300 -0.1060 -0.0811
69773W        W70637   0.119  26.204  24.969 -0.2099  0.2112  0.1767
69774W        W70638  23.540   9.312  27.619  0.0406  0.1695 -0.1266
69775W        W70639  22.121   1.003   2.465 -0.1306 -0.1955 -0.1048
69776W        W70640   0.158  24.515   9.448  0.3257  0.1480  0.0234
69777W        W70641  18.155  12.489  25.667  0.0445 -0.0053 -0.1708
69778W        W70642  24.993  20.357  14.083 -0.0086 -0.0283 -0.0326
69779W        W70643   0.188  18.583  29.068  0.0413 -0.0441  0.1452
69780W        W70644  13.239   6.802  26.760 -0.1062  0.2188 -0.0477
69781W        W70645  28.553  25.923  17.765 -0.1342 -0.3047 -0.1885
69782W        W70646  21.002  27.532  12.606 -0.2950 -0.0298  0.0739
69783W        W70647  22.243   7.937  27.138  0.0213  0.1272 -0.1417
69784W        W70648  28.335  10.409  15.518 -0.0508  0.2077 -0.2178
69785W        W70649   9.938  17.399   1.418 -0.1616  0.0035  0.5373
69786W        W70650  26.572  23.730   9.701 -0.0320 -0.1569  0.1044
69787W        W70651  20.756  20.169   1.427  0.0728  0.3348  0.0507
69788W        W70652   1.740  18.385  10.640  0.0503 -0.2960  0.1275
69789W        W70653  22.667   1.290  25.727 -0.2859  0.0444 -0.0850
69790W        W70654  21.485  15.154  19.025 -0.0083 -0.2487 -0.0418
69791W        W70655  14.714  24.027  19.927  0.2562  0.2598 -0.2399
69792W        W70656  17.666  16.542  19.136  0.1176 -0.0572 -0.4780
69793W        W70657   7.962   2.463   4.540 -0.1064  0.0523 -0.3548
69794W        W70658  12.980  16.145   8.818  0.2464 -0.0278  0.1077
69795W        W70659  11.387  18.713  14.346  0.0770  0.3648  0.2235
69796W        W70660   2.443   6.032  13.077  0.0069 -0.2564 -0.1227
69797W        W70661   0.664  22.386  25.487  0.2555 -0.1498 -0.2627
69798W        W70662   1.189  13.868  24.777 -0.0075 -0.3548 -0.1037
69799W        W70663   0.087  10.605  11.762  0.1994  0.2059  0.1892
69800W        W70664  23.986  26.976   6.520  0.0820  0.0577  0.2687
69801W        W70665  12.949   0.677   0.038 -0.0366 -0.2653 -0.0524
69802W        W70666   1.896  11.680  20.118 -0.1445 -0.0201 -0.1835
69803W        W70667  23.942  15.488   6.793 -0.0453 -0.0727  0.0324
69804W        W70668  12.118  26.658   6.691 -0.0974  0.1667 -0.2821
69805W        W70669  14.869   5.369  21.208  0.1428 -0.0187 -0.1100
69806W        W70670  23.998  21.688  23.688  0.0307 -0.3086  0.1557
69807W        W70671   9.876   3.414  11.441  0.1774 -0.0384 -0.1315
69808W        W70672  28.244  22.357  12.986  0.1199  0.0119 -0.1704
69809W        W70673  12.737  20.799  18.211  0.3853  0.2251  0.2718
69810W        W70674  28.519  21.260  16.047 -0.0144  0.2651 -0.0040
69811W        W70675  20.549  27.857   6.263  0.1093 -0.0843 -0.4261
69812W        W70676   6.649  29.142  19.388  0.1015 -0.2322  0.0592
69813W        W70677  15.017  28.890   6.421 -0.0258  0.1693  0.2347
69814W        W70678   4.238  12.196   9.156 -0.1661 -0.1010  0.1489
69815W        W70679   4.827  17.330   8.975 -0.0328 -0.1967  0.0202
69816W        W70680  15.082   5.169   1.139 -0.1599  0.3114 -0.2860
69817W        W70681   8.493  21.095  17.631 -0.1447 -0.0427  0.1719
69818W        W70682  27.416  12.154   6.235 -0.4660  0.0689 -0.2657
69819W        W70683  23.894   5.361  14.329  0.0687  0.1787  0.0410
69820W        W70684  25.297  28.624  21.065  0.2548  0.0892 -0.1749
69821W        W70685  21.494  11.515   6.574 -0.0482 -0.0863 -0.0486
69822W        W70686   3.590  28.077  26.762 -0.0083 -0.0998 -0.4517
69823W        W70687  16.222   9.304  26.804 -0.1447  0.0054  0.1279
69824W        W70688   0.559  14.475   1.280 -0.2518  0.1053  0.1003
69825W        W70689   6.030   5.635   4.760 -0.1033 -0.1621 -0.0821
69826W        W70690   0.926  27.661  21.373 -0.0200 -0.1681 -0.0743
69827W        W70691   4.200  23.698   2.694 -0.6067 -0.0923  0.1261
69828W        W70692  18.885   6.460   7.579  0.0603 -0.2573  0.0301
69829W        W70693  23.829   5.495   9.048  0.3757  0.1984 -0.0663
69830W        W70694   9.638  13.945  20.835  0.3036 -0.2875  0.0383
69831W        W70695  12.389   4.516   5.244  0.0154  0.0178  0.1713
69832W        W70696  10.238   0.886  22.347  0.1840  0.0774 -0.1179
69833W        W70697  21.965  12.927  13.189 -0.2243  0.3328 -0.1993
69834W        W70698  20.793  13.853   6.218 -0.1867  0.2243 -0.1514
69835W        W70699  15.359  14.660   0.167  0.0352  0.1060  0.2718
69836W        W70700  19.717  20.138   9.848  0.2138 -0.0762 -0.0032
69837W        W70701   6.844  28.888  23.319  0.1324  0.0322 -0.0008
69838W        W70702  22.242  16.335  12.743 -0.2917 -0.1941  0.0766
69839W        W70703   2.998  21.388   4.724 -0.0150 -0.1109 -0.0279
69840W        W70704   0.221  23.213  14.794 -0.0138 -0.0886  0.0284
69841W        W70705  15.076  11.772   4.590  0.0106  0.0735 -0.1802
69842W        W70706  20.994   7.972   7.616  0.1144  0.1445  0.2718
69843W        W70707  26.136   0.212  18.208 -0.0380  0.0001  0.1042
69844W        W70708  11.505   0.151  25.679 -0.4141  0.0867 -0.0951
69845W        W70709   3.040   4.978   1.738  0.0724  0.0236 -0.2866
69846W        W70710   6.221  15.461   6.084  0.0945  0.2565  0.1708
69847W        W70711  23.965  17.979  20.540 -0.1830  0.2414 -0.2080
69848W        W70712   7.312  19.543   8.859 -0.2102 -0.0835  0.0189
69849W        W70713   9.171  20.724  12.701 -0.1278 -0.1063 -0.1693
69850W        W70714   1.677  16.113  25.530  0.0829 -0.0484  0.1828
69851W        W70715  26.148  20.380  14.251 -0.4114 -0.3208  0.3740
69852W        W70716  25.281  12.791  29.027  0.1907  0.1678  0.0614
69853W        W70717  25.530   3.746  22.684  0.0165 -0.2513  0.1699
69854W        W70718   6.187  10.817  14.985  0.1233  0.0965  0.1008
69855W        W70719  15.517   4.411  15.123  0.1856  0.1177 -0.0555
69856W        W70720  11.823  20.273  23.825 -0.1016 -0.1661  0.1017
69857W        W70721  29.143  20.961   0.238  0.3321  0.4140  0.0625
69858W        W70722  27.978  17.415  15.039  0.0277 -0.1168  0.0143
69859W        W70723  25.984  14.492  26.625  0.0932 -0.0066 -0.1997
69860W        W70724  27.827   5.089  11.637  0.0024 -0.3095 -0.3265
69861W        W70725  22.185  28.184   7.898 -0.1500  0.1180 -0.0106
69862W        W70726  21.828  19.874  21.752  0.0135  0.0196  0.0035
69863W        W70727  17.405  14.900   9.748 -0.2386  0.1319 -0.0915
69864W        W70728  21.307   0.629   6.602 -0.2379  0.2003  0.2711
69865W        W70729  15.887  21.086  10.115  0.1967 -0.0836  0.2181
69866W        W70730  12.653  27.223  11.811 -0.1009  0.1029 -0.0149
69867W        W70731   6.549  24.420   6.299  0.1679 -0.1324  0.0982
69868W        W70732  17.196   4.126  22.078 -0.0125 -0.1798 -0.0183
69869W        W70733  26.418  21.034   8.870 -0.2754  0.0437  0.0823
69870W        W70734  17.571   1.714   5.197  0.1486  0.1085 -0.0740
69871W        W70735   9.484  26.723   3.711 -0.0176  0.4307 -0.0276
69872W        W70736  11.042   4.498   6.703  0.1211  0.1415  0.0191
69873W        W70737   8.059  21.644   6.452 -0.0877  0.2846  0.0208
69874W        W70738   8.985  16.518   5.503  0.1464 -0.0231  0.1217
69875W        W70739  15.596  24.545  15.353  0.0844  0.1206 -0.1337
69876W        W70740   5.693   9.206  12.598  0.1936  0.1544  0.1853
69877W        W70741   1.350   7.814  11.108  0.2291  0.0747  0.0844
69878W        W70742  23.836  26.994  17.526  0.0211  0.1212  0.4444
69879W        W70743   3.722  19.025  13.983  0.1017  0.1239 -0.0228
69880W        W70744  25.610  19.709   8.206  0.0610 -0.0529  0.2094
69881W        W70745  27.569  15.074   6.691  0.1394  0.0796  0.1458
69882W        W70746   3.902  25.051  17.212  0.3735 -0.2596 -0.3598
69883W        W70747   4.133  20.284  27.520  0.3585  0.2814  0.2191
69884W        W70748  22.913  12.734  26.243 -0.3560 -0.0983 -0.1355
69885W        W70749   2.247  16.076  25.550 -0.1005 -0.0925 -0.1158
69886W        W70750  27.915  12.486  17.636 -0.1454  0.2051 -0.0490
69887W        W70751  24.810   7.242   4.949 -0.1318  0.1592 -0.1077
69888W        W70752  23.775   4.461  24.115  0.1742  0.2716  0.0491
69889W        W70753  12.201  20.217   4.962 -0.0367  0.0331  0.0601
69890W        W70754  19.404  14.198  25.801 -0.0935  0.0965 -0.1129
69891W        W70755  20.026  12.009   7.443  0.1751  0.2310 -0.2116
69892W        W70756   1.485  10.282   8.458  0.0610  0.0810  0.0306
69893W        W70757  23.751  18.554  14.763 -0.1066  0.0783  0.0557
69894W        W70758  28.440   0.450   2.452 -0.0050  0.0312  0.0411
69895W        W70759  24.908   4.758   2.107 -0.3033  0.1066 -0.0846
69896W        W70760   0.175  12.534  14.270 -0.0314 -0.1288  0.0444
69897W        W70761  24.585  25.887  26.050 -0.1463 -0.2635 -0.0437
69898W        W70762  17.161  23.550  23.022  0.1591  0.3903 -0.1974
69899W        W70763  16.624  24.357  20.694  0.1347 -0.2328  0.2055
69900W        W70764   0.325   7.967  12.609  0.0307 -0.0334  0.0034
69901W        W70765  11.359   1.451   8.036  0.0404  0.2068  0.0798
69902W        W70766   2.427  19.750  12.058  0.0293  0.0362 -0.2631
69903W        W70767  22.540  23.766  21.341 -0.3371 -0.1553 -0.2195
69904W        W70768   0.657  17.193  11.993  0.3305 -0.0895  0.0204
69905W        W70769  21.816  22.101  12.834  0.2414 -0.0716  0.0369
69906W        W70770   1.031  27.994   9.297  0.0503  0.0807 -0.0836
69907W        W70771  21.713  23.239  22.577 -0.1216  0.3053  0.0963
69908W        W70772  16.889   8.991   5.720  0.0519  0.1341  0.1825
69909W        W70773  15.894  16.451  10.594 -0.0226 -0.2077  0.1222
69910W        W70774  18.783  23.522   4.741  0.0252 -0.1685 -0.0962
69911W        W70775  20.670  15.466   1.990 -0.1634 -0.2728 -0.0020
69912W        W70776   0.072  25.887  17.035  0.1131  0.1910 -0.0258
69913W        W70777  20.231   3.888   2.866 -0.1292 -0.0756  0.2489
69914W        W70778   2.808   2.942   2.756 -0.1015  0.3440  0.0140
69915W        W70779   4.818  12.904   0.125  0.0139  0.2120  0.0436
69916W        W70780   0.962  18.551   1.827 -0.2110 -0.1837 -0.1803
69917W        W70781  10.306  22.634  17.817 -0.2778 -0.1000  0.1506
69918W        W70782  26.058   5.738  10.842  0.2121  0.1296  0.2046
69919W        W70783  25.619  17.961  27.797 -0.3517  0.0738 -0.0777
69920W        W70784   1.605  10.734  23.298  0.0825 -0.0998  0.0355
69921W        W70785  23.955  26.226  25.419  0.2519 -0.0167 -0.1322
69922W        W70786   6.862  13.579   5.748  0.1873  0.0871  0.3902
69923W        W70787  10.472  22.095  18.710  0.0974  0.0845  0.1080
69924W        W70788   6.071  14.456  26.526 -0.3950 -0.0584  0.0498
69925W        W70789   3.689  12.904   3.285 -0.0386  0.1470 -0.0047
69926W        W70790   8.253  14.137  15.532 -0.3043 -0.1492  0.4342
69927W        W70791  19.107  25.977  24.219  0.1132 -0.0788 -0.1640
69928W        W70792  14.400  11.680  18.159 -0.2466 -0.1444  0.2167
69929W        W70793  24.474  19.529  11.180 -0.3886  0.1122  0.1041
69930W        W70794  16.055  23.636   6.046  0.0757  0.2161  0.2709
69931W        W70795   7.691   3.846  18.610  0.2032 -0.1043 -0.1986
69932W        W70796   2.415  15.156  25.603  0.1549 -0.2173  0.0567
69933W        W70797  10.799  20.709  23.900  0.0591 -0.2219  0.3074
69934W        W70798   5.284   7.933  21.486  0.3027  0.2133  0.0888
69935W        W70799  26.415  14.486   3.385 -0.3029 -0.3559  0.2915
69936W        W70800   8.181  22.246  18.939 -0.1300 -0.1870  0.0513
69937W        W70801  25.786  20.105  22.025 -0.2149  0.0909 -0.1831
69938W        W70802  18.777  16.121  25.467 -0.0013 -0.0914 -0.0242
69939W        W70803   9.546  28.905  27.268  0.1847 -0.0206 -0.1129
69940W        W70804  20.730  22.793   9.047  0.2112 -0.1590  0.0684
69941W        W70805  24.453  22.488  19.299  0.1412 -0.0172 -0.0289
69942W        W70806  15.651  18.443   6.055 -0.0542  0.1427  0.1088
69943W        W70807   5.468  18.559   0.334  0.0657 -0.0158  0.0710
69944W        W70808   9.386  17.316  21.004  0.0953 -0.0871 -0.0793
69945W        W70809  23.949  17.227  25.182  0.2440  0.0021  0.0455
69946W        W70810  23.234   7.457  24.635  0.0712 -0.3558  0.0613
69947W        W70811  17.135  20.017   1.486  0.1127  0.0016  0.1157
69948W        W70812  10.373  26.644   2.154 -0.1504 -0.2776  0.1241
69949W        W70813   0.189  16.849   5.926  0.3594 -0.2858 -0.2858
69950W        W70814   1.514   7.875  27.312  0.2833  0.0171  0.1413
69951W        W70815  12.292  27.071  14.030  0.0193 -0.0379 -0.1898
69952W        W70816  10.123  14.480  25.790 -0.3159 -0.2889  0.1149
69953W        W70817  22.008  26.647   0.555  0.1816  0.0680  0.2211
69954W        W70818  18.472  16.346  17.029 -0.0817 -0.0369  0.2366
69955W        W70819  11.711  13.982  11.103  0.0634 -0.0591 -0.0937
69956W        W70820  22.269  24.819  12.200  0.0909  0.0064  0.0408
69957W        W70821   0.085  23.695  10.416 -0.1949  0.1449  0.0455
69958W        W70822  17.226  12.105   3.016  0.0448  0.0579  0.1024
69959W        W70823  13.125  23.214  10.273 -0.0874 -0.2440  0.2641
69960W        W70824  22.059  13.443   5.815  0.1227 -0.0618  0.0760
69961W        W70825  12.821   9.498  22.618  0.1300 -0.0576  0.4233
69962W        W70826   5.371  27.678  24.380  0.1656 -0.1975  0.0835
69963W        W70827   1.146  23.739  23.732 -0.2026  0.3161  0.3019
69964W        W70828   7.204  20.969   8.131  0.0816  0.2236  0.0244
69965W        W70829  19.266   1.745  10.424  0.0126 -0.1701  0.0023
69966W        W70830  17.312  27.792   0.258  0.0826  0.2407 -0.1477
69967W        W70831   9.221  25.445   6.067 -0.2075  0.2268  0.2420
69968W        W70832  20.336  26.775  14.447  0.2169  0.4366  0.0172
69969W        W70833  25.652  25.593   1.201 -0.0668  0.0594  0.0601
69970W        W70834  21.448  19.350  21.703 -0.1254  0.0611  0.0981
69971W        W70835   9.409  11.574  22.552  0.1138 -0.0466  0.0025
69972W        W70836  20.234  11.151  10.204  0.3721  0.0004  0.0069
69973W        W70837   8.835  29.140  15.030  0.0989  0.1892  0.2513
69974W        W70838  10.869  16.877   0.268  0.0655  0.2593  0.0878
69975W        W70839   3.469  10.793   5.158  0.0614  0.1143 -0.3185
69976W        W70840  23.607   6.665  16.452  0.0150  0.1551 -0.1529
69977W        W70841  24.978  10.568  20.109 -0.3456  0.0565  0.1873
69978W        W70842  14.905   5.973  10.955  0.0924 -0.2836  0.0562
69979W        W70843  19.025  21.727  11.828 -0.3009  0.0469  0.2151
69980W        W70844  27.140   2.386  11.745  0.1519 -0.0692  0.1006
69981W        W70845  25.773  13.353  28.896  0.0610 -0.2803 -0.2293
69982W        W70846  24.687   4.091   5.439 -0.3738  0.2030 -0.2566
69983W        W70847   2.579  23.992  20.748 -0.2865 -0.0198 -0.2771
69984W        W70848  22.108   7.862  17.665 -0.1575  0.3736 -0.2094
69985W        W70849  26.401   7.079  26.163 -0.0069 -0.2859 -0.2898
69986W        W70850   1.382   8.198   6.817 -0.1164 -0.1875 -0.2128
69987W        W70851  25.769  19.874  19.428 -0.0630  0.0150 -0.0824
69988W        W70852  28.677  24.164   1.411  0.0287  0.0619 -0.0324
69989W        W70853  21.330  23.784  23.292  0.0345 -0.0052 -0.1379
69990W        W70854  24.025   9.817  29.097 -0.1355  0.1215 -0.0095
69991W        W70855  19.473  18.914  22.095  0.1511 -0.1240  0.0551
69992W        W70856  12.952   9.912   7.726  0.1365  0.1306 -0.1698
69993W        W70857  21.389  22.937   3.287 -0.2037 -0.2889  0.0854
69994W        W70858  11.502  18.451  24.192  0.0026 -0.0218 -0.4038
69995W        W70859  26.453  14.255  21.224 -0.1264 -0.0737 -0.5314
69996W        W70860  17.894   9.891  14.500 -0.2109  0.1933  0.1188
69997W        W70861  14.400  21.005  20.731 -0.1224 -0.0317  0.0252
69998W        W70862  16.418   6.438  11.493 -0.1592 -0.0768 -0.3008
69999W        W70863   3.342  28.790  28.033  0.0078 -0.0901  0.0008
70000W        W70864  12.681  17.077   0.473  0.0554  0.0709 -0.0463
70001W        W70865  27.274  14.014  11.642 -0.0497  0.0213  0.0529
70002W        W70866  17.252  22.229   1.000 -0.1181  0.0430 -0.1186
70003W        W70867   7.198  24.459  27.993  0.1387  0.0876 -0.2449
70004W        W70868  26.945  22.286  25.266  0.1666  0.2159 -0.1065
70005W        W70869  24.929   3.709  16.408 -0.0051  0.0697  0.0915
70006W        W70870   3.319  23.740  27.666 -0.0237  0.0796 -0.1232
70007W        W70871  11.199  21.459  21.914 -0.0085 -0.0825 -0.0950
70008W        W70872  18.707  23.254  25.075 -0.2258 -0.0394  0.0825
70009W        W70873  23.438   6.464  28.922  0.1588  0.2508  0.3345
70010W        W70874  21.139  21.519   5.450  0.1318  0.2762  0.1115
70011W        W70875   3.675   3.225   0.281 -0.1804  0.2117 -0.0368
70012W        W70876  12.426  28.335   0.736 -0.2141 -0.0984  0.1571
70013W        W70877  26.577  23.456   8.073 -0.4653 -0.0518  0.0388
70014W        W70878  22.236   4.824   6.297  0.1375  0.1403 -0.3806
70015W        W70879  23.504  13.505  10.617 -0.1003  0.0522 -0.3275
70016W        W70880   7.962  28.560   7.657  0.0470 -0.1503 -0.0140
70017W        W70881   8.680   5.687  26.270  0.1798 -0.1081  0.1163
70018W        W70882   5.075   7.488  21.072 -0.2433 -0.1171 -0.3286
70019W        W70883   1.532  12.253  24.285  0.0436  0.2356 -0.1304
70020W        W70884   5.408   8.235  23.860  0.4273 -0.2897  0.1087
70021W        W70885  23.531  18.995  16.387 -0.0253 -0.1496 -0.1497
70022W        W70886  24.087   6.911  27.113  0.1937  0.0145 -0.2863
70023W        W70887   8.793  26.544   0.442  0.1914  0.0324 -0.2180
70024W        W70888  12.220  16.077  26.678  0.1039  0.1401 -0.0765
70025W        W70889  16.013  25.264   3.855 -0.0321  0.1696  0.0306
70026W        W70890   2.105   7.424  14.465  0.1438  0.1343  0.1026
70027W        W70891  14.000  20.689  10.846  0.2879  0.1765  0.0481
70028W        W70892  17.195  28.846  17.356  0.0465 -0.0492 -0.1267
70029W        W70893   8.391   7.481  20.088  0.0315 -0.2378 -0.3109
70030W        W70894  28.232   7.878   6.334 -0.1137 -0.0109 -0.3287
70031W        W70895   1.654  13.070  10.991  0.0600  0.1831 -0.0377
70032W        W70896   8.399  21.156  11.171 -0.0085  0.1045 -0.0346
70033W        W70897   1.049  21.954  19.085  0.0850  0.1902  0.2275
70034W        W70898  25.631  23.837   0.922 -0.0530 -0.1180  0.0695
70035W        W70899   4.187  14.795  16.169  0.3684  0.1546 -0.0304
70036W        W70900  24.501   2.233   6.227 -0.0525  0.0492  0.0403
70037W        W70901  20.999  13.376  11.513 -0.0490  0.0434  0.0237
70038W        W70902  11.289  20.131   0.373  0.0903  0.0939 -0.3715
70039W        W70903   0.166  20.597  16.918  0.0364 -0.0050 -0.0463
70040W        W70904  23.375   2.605  16.316 -0.1986  0.1142  0.0135
70041W        W70905  10.433  21.681   0.253 -0.1809  0.1020 -0.2295
70042W        W70906  22.430  14.657  11.856 -0.1130 -0.0719  0.0737
70043W        W70907  18.505  20.568  26.399 -0.1704 -0.1037  0.0538
70044W        W70908   5.828  18.157  16.795  0.1220 -0.0951 -0.0833
70045W        W70909  11.008  20.723  17.101  0.4415  0.1973 -0.0493
70046W        W70910  16.373  15.674  26.135 -0.3657  0.4132  0.1379
70047W        W70911   0.915   2.993  11.021 -0.1628 -0.1899 -0.0171
70048W        W70912  25.660  20.927   3.992 -0.2954  0.1232  0.1030
70049W        W70913   5.316  10.808   0.030 -0.0990 -0.0462  0.0853
70050W        W70914   3.430  14.424  24.160 -0.0874  0.2183  0.1458
70051W        W70915  28.497  26.190  27.749  0.2714  0.0696  0.2840
70052W        W70916   2.450  27.712  28.602  0.1412 -0.1916 -0.0245
70053W        W70917   9.413  19.585   4.742 -0.2544  0.0861 -0.0458
70054W        W70918   6.449  23.442   8.051 -0.2776 -0.4505 -0.0219
70055W        W70919   1.833  16.951   2.451 -0.0087  0.1730 -0.0025
70056W        W70920  21.435  28.428   9.739 -0.1852 -0.0570  0.0628
70057W        W70921   2.187  29.047  21.153  0.0165  0.0646  0.0622
70058W        W70922  28.502  26.545  29.110 -0.0939 -0.1610  0.0565
70059W        W70923  14.773   0.508  27.229 -0.0905  0.0039 -0.0652
70060W        W70924  10.793  14.513  17.482  0.0186  0.2125  0.0906
70061W        W70925  25.888  10.352  11.352  0.1617  0.0810 -0.1531
70062W        W70926  19.174   7.117  24.058 -0.0575  0.0366  0.1918
70063W        W70927  16.583   6.370   5.792 -0.0448 -0.1231 -0.0603
70064W        W70928   4.831  18.468  11.567 -0.1009  0.0416 -0.1815
70065W        W70929  13.432   1.092  26.493  0.1022 -0.2879 -0.3572
70066W        W70930   7.688  21.560   4.295 -0.0837  0.2637 -0.1715
70067W        W70931  20.141   5.178  17.903 -0.0113  0.0812 -0.0593
70068W        W70932  26.800  10.829  10.079  0.0064  0.0117  0.0188
70069W        W70933  16.249  21.537   0.753 -0.0038  0.1090 -0.0831
70070W        W70934  19.118   1.405  20.737  0.3620 -0.1013  0.2252
70071W        W70935  21.408  10.241   7.542 -0.0843  0.0505  0.4333
70072W        W70936   4.878  19.854  12.481  0.1202  0.1505  0.2224
70073W        W70937   4.188  16.709   2.292  0.1006 -0.0704  0.2754
70074W        W70938  11.726  25.654   8.861  0.2184 -0.0432 -0.0249
70075W        W70939  28.597  14.795  26.082 -0.1774  0.0217 -0.2231
70076W        W70940  27.045  20.546  17.352  0.1236 -0.0808 -0.0601
70077W        W70941   3.148   0.018   4.388  0.0368 -0.3473 -0.1330
70078W        W70942  14.904   1.394   1.364  0.0659 -0.2439  0.2188
70079W        W70943  13.522  22.607  11.439  0.0837 -0.3438 -0.2468
70080W        W70944   5.594  14.877  23.489 -0.0720  0.0269 -0.0299
70081W        W70945   8.604  11.506   8.645 -0.1084 -0.0116  0.1091
70082W        W70946  13.375   9.484  28.841  0.0234  0.1448  0.2726
70083W        W70947  13.815  28.427  28.383  0.0041  0.3440  0.2702
70084W        W70948   3.589   7.073  21.069 -0.1981  0.0539 -0.4214
70085W        W70949  22.295   4.668   4.232  0.0778 -0.2308  0.0957
70086W        W70950  18.935  13.701  28.958 -0.0542  0.0698  0.0604
70087W        W70951  15.190  11.492   7.785  0.3437  0.1154 -0.1850
70088W        W70952   7.936  27.617   5.460 -0.2382 -0.0795  0.1973
70089W        W70953  16.668  21.307  28.214  0.0479 -0.0696 -0.1931
70090W        W70954  20.225   1.068   8.952 -0.2152  0.1788  0.2594
70091W        W70955  20.025  20.483  25.966 -0.0478  0.0046 -0.0090
70092W        W70956  23.070   7.342  23.669  0.1931  0.3435 -0.1290
70093W        W70957  27.769   0.362   1.473  0.0017  0.1950 -0.0366
70094W        W70958  22.815  10.649   1.763  0.1145 -0.2342 -0.1744
70095W        W70959   9.979  21.833  25.464  0.0340 -0.2050 -0.2309
70096W        W70960  20.800   4.250  22.820  0.3959  0.1149  0.0224
70097W        W70961  25.573  14.729   4.644  0.2165 -0.0481 -0.0344
70098W        W70962  28.926  13.649  16.152 -0.2374 -0.4059  0.0596
70099W        W70963  22.519   0.564  17.114 -0.0210  0.0797 -0.1929
70100W        W70964  27.485  23.042  27.928  0.0174  0.0344 -0.1559
70101W        W70965  14.575   2.821   6.780  0.0586 -0.0363  0.1880
70102W        W70966  22.887  10.174   8.985  0.1110  0.0761  0.3809
70103W        W70967  15.227  24.588  24.050  0.2772  0.0280  0.1880
70104W        W70968  12.024  22.943  10.695  0.0251  0.0591  0.0730
70105W        W70969  14.221  15.755   7.065  0.0798  0.1096 -0.0412
70106W        W70970  18.881   5.603  28.372 -0.0440 -0.1312 -0.1328
70107W        W70971   9.574   4.962   1.949  0.0901 -0.1983  0.0775
70108W        W70972  22.385   6.295   3.038  0.3330 -0.2990  0.2656
70109W        W70973   0.334  17.380  15.405 -0.1651 -0.0507 -0.1755
70110W        W70974  19.502  10.664  25.722  0.1608 -0.0684  0.1457
70111W        W70975  21.919  19.716  24.965  0.1192  0.2373 -0.0011
70112W        W70976  11.724   7.767  27.914  0.0744 -0.3144 -0.1076
70113W        W70977  12.472  19.398   5.405  0.1177  0.1070  0.0263
70114W        W70978  23.728   2.005  25.193  0.3232  0.2126  0.2108
70115W        W70979  11.232  11.638  11.197  0.2876 -0.0707 -0.1640
70116W        W70980  18.443  13.657   9.688 -0.1851  0.1730 -0.0726
70117W        W70981   6.389   6.048  20.538  0.1610 -0.1846  0.3650
70118W        W70982  27.485  18.948   2.346  0.1516 -0.0259 -0.1517
70119W        W70983  28.374  18.459   2.846 -0.2966 -0.0222 -0.1114
70120W        W70984   0.473  21.068   0.029  0.1383  0.0288 -0.1149
70121W        W70985   8.590  26.520  14.827  0.0938  0.1344 -0.0817
70122W        W70986   6.861   5.920   0.419 -0.3538 -0.0166  0.0480
70123W        W70987  22.247  13.371   2.481 -0.2081 -0.1362 -0.2796
70124W        W70988  19.161  12.805  16.189 -0.2908 -0.1648  0.3283
70125W        W70989  27.400   2.850  25.711 -0.1540  0.0199  0.1890
70126W        W70990  14.168  23.607   6.143  0.2680  0.3104  0.0682
70127W        W70991  17.880   2.015  28.249 -0.3123  0.1127  0.4030
70128W        W70992   5.669  27.630  16.308  0.0248  0.1584  0.0244
70129W        W70993  10.161  15.018  27.385 -0.0232  0.0833 -0.0523
70130W        W70994   5.645  17.284  14.434  0.1815 -0.2147 -0.1270
70131W        W70995  12.919  20.086   6.050  0.0750  0.3038  0.0120
70132W        W70996  24.027  11.768  18.352  0.1400  0.4810 -0.1240
70133W        W70997  27.903  28.537  10.930  0.2019 -0.2549 -0.0368
70134W        W70998  19.047  14.620  13.867  0.2034 -0.1025  0.0490
70135W        W70999  12.280  10.616   8.442 -0.0382  0.1252  0.1373
70136W        W71000  22.906  12.848  27.158  0.0324  0.0241  0.0772
70137W        W71001  25.094  25.246  26.538  0.0201  0.1853 -0.2473
70138W        W71002  15.250  26.872  22.910 -0.0212  0.0760 -0.2162
70139W        W71003   2.792  12.449   8.000  0.1520 -0.0348 -0.1238
70140W        W71004  17.790  11.370  12.667  0.2701 -0.2239 -0.0277
70141W        W71005  12.726  28.833   0.597 -0.0955  0.1598 -0.1662
70142W        W71006  28.727   9.572  11.599 -0.0759 -0.1895  0.0524
70143W        W71007   3.883  24.947   4.875  0.1185  0.0929  0.1161
70144W        W71008  26.160   3.768   1.330  0.3702  0.0482 -0.0761
70145W        W71009   0.526  10.767   9.851 -0.1546  0.1470 -0.1369
70146W        W71010  21.082  20.619   6.093 -0.2722  0.2196  0.0375
70147W        W71011   5.507  23.273  21.436 -0.0936 -0.1682 -0.0887
70148W        W71012  15.990  12.891   5.495  0.1701 -0.0574  0.1475
70149W        W71013  14.464  13.016   0.413  0.0455  0.1623  0.0501
70150W        W71014  14.923  17.501   2.985 -0.2551  0.5940  0.1644
70151W        W71015   9.458  27.312  11.665  0.3814  0.0428  0.0277
70152W        W71016  19.778  21.403  26.305 -0.4370 -0.1079 -0.0272
70153W        W71017  15.205  13.616   5.376 -0.0876  0.2776 -0.3194
70154W        W71018  25.864  28.809  26.328  0.4501  0.1240  0.3685
70155W        W71019  19.168  24.161   8.692 -0.1595  0.1911  0.2912
70156W        W71020  19.742  25.021   8.228  0.3787  0.0091  0.1639
70157W        W71021  26.205   1.175  13.216  0.1848 -0.1712 -0.3143
70158W        W71022  23.607  18.605   7.343  0.2574 -0.0366  0.0181
70159W        W71023  28.212  24.342   1.579 -0.4719 -0.1322 -0.0774
70160W        W71024   6.878  21.738  18.290  0.1754 -0.1674 -0.1870
70161W        W71025  16.787  27.298   3.847 -0.2192  0.0661 -0.1209
70162W        W71026   8.654   3.872   2.647 -0.0736  0.0679 -0.1248
70163W        W71027  24.296  22.163  28.191  0.0321 -0.3030 -0.2136
70164W        W71028  17.972   5.886   8.200 -0.0338 -0.3517  0.0120
70165W        W71029   8.287  16.928  17.261 -0.1826  0.0371 -0.0064
70166W        W71030  28.313   7.234  13.444  0.1585 -0.1833 -0.2001
70167W        W71031   5.908   2.891   6.464 -0.0666 -0.1712 -0.0844
70168W        W71032  15.614  21.268  22.864 -0.3132  0.4746  0.3164
70169W        W71033  11.739  12.075   4.083 -0.1810  0.1777 -0.1031
70170W        W71034  18.630   8.575  14.841 -0.0336 -0.0586 -0.2613
70171W        W71035  15.114   5.456   6.959 -0.0396  0.2078  0.0818
70172W        W71036   2.296  21.325  13.511  0.1423 -0.0197  0.1155
70173W        W71037   6.694   6.951   4.105 -0.0379 -0.0578  0.3163
70174W        W71038  21.043  10.581   2.202  0.2128  0.0526  0.0741
70175W        W71039  20.842  25.890   9.237 -0.1592 -0.1334 -0.3459
70176W        W71040   4.206  15.553  14.472 -0.2394 -0.1089 -0.2155
70177W        W71041  21.768  25.836  25.612 -0.1087  0.0870 -0.1799
70178W        W71042  25.225  14.591  27.137 -0.1871 -0.2079  0.2057
70179W        W71043  20.254  18.429   9.911  0.2100  0.3081 -0.1261
70180W        W71044  21.776  15.834  15.604 -0.1282  0.1137  0.2590
70181W        W71045  16.629  27.523  15.124  0.0974 -0.4512  0.1035
70182W        W71046  15.379  25.020   8.826 -0.1802  0.2619  0.1511
70183W        W71047   1.924   5.826   7.044  0.3217 -0.2574  0.2153
70184W        W71048  12.472  22.404  12.826  0.0249  0.0658 -0.0944
70185W        W71049   0.039  22.275   9.477 -0.1643 -0.1181  0.3284
70186W        W71050  13.788  14.000   0.592 -0.1864 -0.3658 -0.2262
70187W        W71051   2.047  23.639  10.803  0.0798 -0.1967 -0.4020
70188W        W71052  24.367  17.536  28.634  0.1997 -0.1467  0.5202
70189W        W71053  26.123  21.481  21.377 -0.0508 -0.1578 -0.0388
70190W        W71054  14.549  14.298  17.248  0.2072 -0.0460 -0.2453
70191W        W71055  27.933  26.599  10.249  0.0828 -0.1392  0.2782
70192W        W71056  15.279   0.920   5.286 -0.0920 -0.2636 -0.2000
70193W        W71057  26.805   7.545   2.239  0.1246 -0.1713 -0.1101
70194W        W71058  26.545  19.404  12.347 -0.2442  0.2029 -0.1212
70195W        W71059  21.318  19.743   6.946 -0.1417 -0.1020 -0.1354
70196W        W71060  23.848  19.979  10.258  0.2382 -0.0845 -0.0463
70197W        W71061  20.137  26.931  27.109  0.2355 -0.2211 -0.1095
70198W        W71062  25.270  12.933  23.968 -0.2824  0.0663 -0.1719
70199W        W71063  28.644  27.316  24.542  0.1472  0.0437 -0.2022
70200W        W71064  22.856  20.668  16.102 -0.3643 -0.0022  0.0886
70201W        W71065  21.376   3.547   6.157  0.1855  0.2128 -0.0526
70202W        W71066  14.500  12.413   7.692  0.2114  0.0113  0.0598
70203W        W71067  18.893   8.001  19.657 -0.2274 -0.1746 -0.2952
70204W        W71068  16.859  16.223   1.466  0.2454 -0.0652  0.0166
70205W        W71069  14.338  11.598  21.186 -0.2127  0.1421  0.1536
70206W        W71070   9.972  18.675   6.796 -0.3734 -0.1658  0.1375
70207W        W71071  16.011  14.263   2.294  0.2104 -0.0929  0.5156
70208W        W71072  10.255  27.251  14.833 -0.0227  0.1481  0.1731
70209W        W71073   3.034   6.803  28.788 -0.2945 -0.0194 -0.2004
70210W        W71074  13.624  16.555  22.886  0.2049  0.1975  0.2735
70211W        W71075   3.538   0.747  27.725  0.1561  0.2745  0.0883
70212W        W71076  26.337  24.095   1.575  0.3292 -0.3502  0.0034
70213W        W71077  17.363  22.125  22.691 -0.1880  0.0786  0.0920
70214W        W71078  18.931  25.590  23.307  0.0329 -0.1953  0.2602
70215W        W71079   8.486   1.870  23.824  0.1529  0.2083 -0.1117
70216W        W71080   6.569   6.394   6.945  0.3568  0.4057  0.0364
70217W        W71081  23.891   0.023   3.042  0.1005 -0.1566 -0.1544
70218W        W71082  17.528  27.736  18.330 -0.0353  0.0710  0.1173
70219W        W71083  29.074  14.620  19.574  0.0588  0.1790  0.2040
70220W        W71084   8.411  18.837  13.191  0.0732 -0.2976 -0.0319
70221W        W71085  20.028  21.858  23.279 -0.0744 -0.0790  0.0504
70222W        W71086  18.277  27.725   7.338  0.1932 -0.0348  0.1068
70223W        W71087  22.383  23.298   4.840  0.0592  0.2699  0.0326
70224W        W71088  27.434  22.392   3.567  0.3475  0.1280 -0.2352
70225W        W71089   2.532   3.184  15.587 -0.3001 -0.0085 -0.1637
70226W        W71090  26.905   0.322   7.461  0.0169 -0.0942 -0.0005
70227W        W71091  10.971  16.188   3.269 -0.2040 -0.0460 -0.0590
70228W        W71092   8.975  27.542   4.637 -0.1768 -0.0878 -0.0733
70229W        W71093  27.838  24.962   7.067  0.3290 -0.1492  0.1105
70230W        W71094  19.610  20.566  15.736  0.0873  0.2146  0.1388
70231W        W71095  27.911  18.043  27.885 -0.0181  0.0862 -0.0166
70232W        W71096  10.674  11.453  15.977 -0.0838  0.1192 -0.2472
70233W        W71097   2.141  17.559  22.677 -0.2188  0.1462  0.0107
70234W        W71098   6.052  15.533  11.219  0.1247  0.0739  0.3435
70235W        W71099   8.750  26.213  25.072 -0.2777 -0.4078 -0.1176
70236W        W71100   9.389   0.400  25.394 -0.0766 -0.0104 -0.0069
70237W        W71101   6.675   0.281   8.190 -0.0701 -0.0177  0.1061
70238W        W71102   6.739  26.227  11.064  0.1813 -0.0845 -0.0111
70239W        W71103   7.502   3.768   6.994 -0.0199 -0.3280  0.2969
70240W        W71104   2.841  14.328  21.641 -0.1660  0.0625 -0.2123
70241W        W71105  18.554  17.671  24.533  0.1768 -0.0644 -0.1935
70242W        W71106   5.974  16.845  28.256 -0.1304 -0.1614 -0.0170
70243W        W71107  11.609   7.001  22.557 -0.0522 -0.1915 -0.1976
70244W        W71108   8.340  25.597  14.716 -0.0994  0.4382  0.1512
70245W        W71109  12.521  19.748  15.044 -0.0970 -0.0162 -0.3063
70246W        W71110   4.498  15.975   3.251  0.1162 -0.1520 -0.0099
70247W        W71111  16.088   8.615   2.443 -0.0915 -0.1554  0.0120
70248W        W71112  28.858   8.303  13.636  0.0658 -0.1918 -0.0248
70249W        W71113  20.823  19.057  12.432 -0.3347  0.0169  0.2217
70250W        W71114  25.161  18.811   9.566  0.1044 -0.0625  0.2549
70251W        W71115  19.847  20.491  10.620  0.1036 -0.0953 -0.1820
70252W        W71116  11.857  20.970  22.710 -0.0168  0.2374 -0.0204
70253W        W71117  18.342  13.562   1.177  0.0609 -0.2782  0.0415
70254W        W71118   4.053  17.530  14.327  0.2145  0.2006 -0.2464
70255W        W71119  20.964   5.399  28.421 -0.3720 -0.0542  0.2013
70256W        W71120  15.551   7.915   2.401  0.0762  0.4668  0.2267
70257W        W71121  24.464   1.965  11.661  0.0277 -0.0330 -0.1679
70258W        W71122  22.741   5.678   5.260 -0.0239 -0.1624 -0.1255
70259W        W71123  26.931  26.920  11.862  0.2015 -0.1741  0.1190
70260W        W71124  15.676  25.946  11.898  0.0628 -0.0525 -0.2144
70261W        W71125  27.271   3.114  22.193 -0.1990  0.0684  0.3603
70262W        W71126   2.917  18.550   3.546 -0.3146  0.0957  0.1411
70263W        W71127  25.648  12.161  15.284  0.0115  0.1350  0.1495
70264W        W71128  15.342   3.743  19.435  0.0921  0.3963 -0.0265
70265W        W71129  27.637  14.528  24.092 -0.0623 -0.1835 -0.0325
70266W        W71130  23.792  10.774  14.090  0.2031 -0.0538  0.0114
70267W        W71131  25.047  24.425  22.664 -0.2882 -0.0586  0.1979
70268W        W71132   6.877  18.123  14.179 -0.0989 -0.5698 -0.0177
70269W        W71133  24.168  24.272  28.371  0.1342  0.0164 -0.2186
70270W        W71134  17.061   6.516  15.632 -0.2824  0.2722 -0.0343
70271W        W71135   9.373  22.030  11.676  0.0516  0.1626  0.0363
70272W        W71136   7.232  17.090  13.198  0.0281  0.1460 -0.2709
70273W        W71137   5.458  12.747   8.548  0.0247  0.1770 -0.1255
70274W        W71138  21.116  22.580   0.481  0.2670  0.1070 -0.1448
70275W        W71139  19.188  20.825   6.131 -0.1277  0.2565 -0.0995
70276W        W71140  18.427  10.314  11.841  0.0307 -0.2241  0.1470
70277W        W71141  17.164   5.463  28.727 -0.0084  0.1043 -0.1524
70278W        W71142  18.818  22.573   5.215 -0.0187  0.0151  0.0094
70279W        W71143  12.081  24.887  21.828  0.0695  0.0286  0.0451
70280W        W71144  17.447  19.564  27.225 -0.0237  0.0390 -0.2478
70281W        W71145  17.730  12.749  15.781 -0.1607  0.0235  0.1356
70282W        W71146   7.894  16.685   5.510  0.1170  0.1111 -0.2360
70283W        W71147  18.033  15.215  18.481  0.4837 -0.1424  0.1025
70284W        W71148  22.454  23.996  25.741 -0.2133 -0.1279 -0.1426
70285W        W71149  20.303  15.317  26.860 -0.1045  0.3392 -0.0791
70286W        W71150  14.481  17.989  13.315  0.1465 -0.0791 -0.1202
70287W        W71151  10.464   8.679  10.819  0.0986 -0.1283 -0.2586
70288W        W71152  15.150  16.551  10.881 -0.1694 -0.0697  0.4088
70289W        W71153  26.510  27.813  10.900 -0.0650  0.0026  0.2038
70290W        W71154   7.177   3.093   0.730  0.2593  0.5230 -0.2106
70291W        W71155  21.812  13.979  13.926  0.1989  0.4252 -0.4485
70292W        W71156   5.711   6.171  14.543 -0.0793  0.0102  0.2037
70293W        W71157   2.833  10.968   3.253 -0.0432  0.0380 -0.0638
70294W        W71158  12.239  11.965  11.084 -0.1066  0.0147  0.2664
70295W        W71159  17.217  17.732  23.180 -0.1645 -0.1684  0.1351
70296W        W71160   4.117   9.971  24.101 -0.1867 -0.1970 -0.0389
70297W        W71161  26.812  17.559  26.422 -0.0131  0.0841 -0.0495
70298W        W71162  17.026  28.413  24.053 -0.1944 -0.2077 -0.1604
70299W        W71163  11.731  26.395   5.660 -0.2707 -0.3954  0.0132
70300W        W71164  19.446  18.617  27.547 -0.0223 -0.0541 -0.1961
70301W        W71165  12.699  16.234  26.815  0.0820  0.1698  0.1570
70302W        W71166  24.020  16.800  26.417  0.0613 -0.2598 -0.1047
70303W        W71167  23.313  13.358   4.927  0.1227  0.3096 -0.0425
70304W        W71168  19.404  17.901  23.449 -0.2849  0.1993 -0.0442
70305W        W71169   6.384  10.934  21.315 -0.1024  0.3596 -0.1547
70306W        W71170   7.001  22.905  25.807 -0.0502 -0.3577 -0.2631
70307W        W71171  17.449   3.181  24.737 -0.2017  0.2126 -0.1069
70308W        W71172  13.202  21.331   1.218  0.4117 -0.2149 -0.0492
70309W        W71173   5.752  15.670  18.219 -0.2014 -0.3585 -0.0628
70310W        W71174  20.734   0.479  23.879  0.1569  0.2251  0.0388
70311W        W71175  25.061  27.284  21.471  0.1057  0.0959  0.0071
70312W        W71176  28.613  10.618  28.753  0.2673 -0.0587  0.0128
70313W        W71177  25.268  20.720  22.988 -0.3655 -0.0870  0.0529
70314W        W71178   2.917   9.724   9.360 -0.0560  0.1706  0.2214
70315W        W71179   6.822  23.425  25.717  0.0093  0.3671  0.0881
70316W        W71180  28.728   3.343   5.429 -0.0357 -0.1196  0.1302
70317W        W71181  21.160   3.703   8.462  0.0198 -0.4352  0.0253
70318W        W71182  11.455  17.369  24.115  0.1860  0.1346  0.1216
70319W        W71183  24.825  28.263  11.120  0.0664  0.3337 -0.0014
70320W        W71184   6.162  17.496   3.670  0.2840  0.1853  0.0389
70321W        W71185  23.416  12.283  12.364 -0.3352  0.0143  0.0001
70322W        W71186  13.609   5.406   4.080  0.1173  0.1623 -0.2704
70323W        W71187  15.485  14.754   0.776 -0.1634  0.2106  0.1514
70324W        W71188  13.249  13.021  17.976  0.0682 -0.1191  0.0332
70325W        W71189   8.934  26.816  22.764 -0.1241 -0.1546  0.0429
70326W        W71190  24.802  10.280   8.888 -0.4541  0.1294 -0.2777
70327W        W71191   8.800  21.360  28.307 -0.0857 -0.2197 -0.2231
70328W        W71192  16.110  17.935   8.530  0.1977  0.0467 -0.2585
70329W        W71193   8.975   9.826  26.516  0.1608  0.0939  0.2863
70330W        W71194  24.747  19.326   6.283 -0.0533  0.0816 -0.0361
70331W        W71195  27.226  13.680  17.629  0.1415  0.3550 -0.0655
70332W        W71196  23.000  10.001  26.238 -0.3971  0.1304  0.1596
70333W        W71197  11.587  27.959  23.599 -0.1538 -0.2193  0.0641
70334W        W71198   6.546  28.616   5.701  0.0574  0.3908  0.2224
70335W        W71199  10.366  22.780   2.322 -0.2490  0.0241 -0.0268
70336W        W71200  20.623  13.892  25.522 -0.0329 -0.1972  0.2485
70337W        W71201   2.681  14.077   2.031 -0.1599 -0.0725 -0.3753
70338W        W71202  14.392  10.514  13.394 -0.2438 -0.0546 -0.2163
70339W        W71203   2.125  14.141  23.953 -0.0074 -0.0531 -0.0004
70340W        W71204  16.877  22.712   2.400  0.5701 -0.1810  0.1265
70341W        W71205  12.752   7.606   3.534  0.1268  0.2750 -0.0625
70342W        W71206   3.401   6.642  26.367  0.1355  0.0696  0.2848
70343W        W71207  19.734  22.555  20.344 -0.0515  0.0587  0.0469
70344W        W71208  12.041  22.181   6.879  0.0284 -0.0978  0.2006
70345W        W71209   1.152  23.827  28.501  0.1330  0.2849  0.0728
70346W        W71210   5.984  20.799   6.026 -0.0900  0.0492  0.1136
70347W        W71211  26.760   5.440  15.259  0.0736 -0.0301  0.0275
70348W        W71212  24.028  16.923  24.043  0.2283  0.5060  0.2793
70349W        W71213  16.629  15.481  11.424 -0.0218  0.1607 -0.1033
70350W        W71214  16.709  26.730  15.077 -0.0195  0.0627 -0.0003
70351W        W71215  26.617  26.221   7.533  0.2219 -0.1673 -0.4270
70352W        W71216   7.554  12.010  26.768  0.0977 -0.0429 -0.0721
70353W        W71217   3.018  13.377  21.302 -0.0116  0.1322  0.1752
70354W        W71218   4.678   7.718  28.346 -0.1454 -0.0358 -0.3406
70355W        W71219  19.000   5.829  26.080  0.0131  0.0364 -0.4165
70356W        W71220  26.490  27.169   9.198 -0.0614 -0.0546  0.1224
70357W        W71221  23.217   2.305   0.952 -0.0046 -0.1328  0.1321
70358W        W71222  21.197  28.943   7.174 -0.0757  0.0898  0.0506
70359W        W71223   5.929  20.163  19.390 -0.1245 -0.0417  0.1376
70360W        W71224   6.020  27.860   3.612 -0.1300  0.1425 -0.1180
70361W        W71225  18.151  12.783  11.835  0.1826  0.0610  0.1110
70362W        W71226  28.788   4.357   8.403 -0.1519 -0.0863  0.0670
70363W        W71227  14.130  22.646   4.621  0.1664  0.2451  0.2226
70364W        W71228   9.819  21.758   1.208 -0.0593  0.1240 -0.0516
70365W        W71229  23.669  22.555   3.275 -0.1032 -0.3434  0.2591
70366W        W71230   4.642  19.095  14.828  0.2489 -0.0079 -0.3728
70367W        W71231   4.094   4.504  17.642 -0.1370  0.0144  0.1384
70368W        W71232  19.488  20.224   0.059 -0.1567  0.2135 -0.0000
70369W        W71233  27.474  26.344  18.513 -0.1682 -0.2572 -0.0264
70370W        W71234   6.709   9.232   5.101 -0.0489  0.0280 -0.2956
70371W        W71235  16.992  28.344  16.099  0.4855  0.1082 -0.0613
70372W        W71236  13.742  21.781  26.385  0.0592 -0.1170 -0.1113
70373W        W71237  23.964   4.537   1.352 -0.3721  0.0309 -0.0319
70374W        W71238  10.651  15.881  15.911  0.0815  0.1940 -0.1650
70375W        W71239   4.742  22.143   2.364 -0.0514  0.1695  0.0028
70376W        W71240  28.105  20.414   5.346 -0.1872  0.1288  0.1697
70377W        W71241   9.547  22.757   3.161 -0.1731 -0.0610  0.0150
70378W        W71242   3.536   9.429  17.879  0.0878 -0.3637  0.0116
70379W        W71243  25.494  27.336  12.355  0.3175 -0.0653 -0.6386
70380W        W71244   1.840  16.274   0.549  0.0039  0.0598  0.0349
70381W        W71245   4.468  20.381   3.842 -0.1850  0.0358 -0.1171
70382W        W71246  15.173  23.083   7.654 -0.3009 -0.2018  0.0612
70383W        W71247  28.903  20.610  24.379  0.0253 -0.0453  0.2048
70384W        W71248  17.764  12.906  11.463  0.1276 -0.3110  0.0191
70385W        W71249  13.139   7.134  19.368  0.4819 -0.2766  0.1154
70386W        W71250  27.027  25.513  29.127 -0.0208  0.2049 -0.1261
70387W        W71251  19.786  29.107  20.169  0.1350  0.2943 -0.1470
70388W        W71252  28.240  28.469   8.377  0.0331 -0.4600 -0.0971
70389W        W71253  23.501  20.129   1.919 -0.1055  0.2288  0.0305
70390W        W71254   4.644   6.966   4.861  0.0392 -0.1161  0.0221
70391W        W71255  18.538  15.393  20.812  0.1401 -0.3376 -0.2334
70392W        W71256   9.775  12.769  14.170  0.0911  0.0262  0.1480
70393W        W71257   2.052  18.654  24.422 -0.0267 -0.0205  0.0007
70394W        W71258   7.575  11.616  17.258 -0.1766 -0.0421  0.0204
70395W        W71259   0.672   2.870  15.157 -0.0675 -0.0352  0.1003
70396W        W71260  25.619  22.881   3.586 -0.0286 -0.0762  0.0416
70397W        W71261  14.112   3.177  20.024  0.0079  0.4339 -0.1531
70398W        W71262  15.878  24.731   1.249  0.2519  0.0034  0.3647
70399W        W71263  17.153   3.208  11.644  0.0857  0.1425  0.0158
70400W        W71264   3.937  13.077  22.862  0.0506  0.3181  0.0609
70401W        W71265   1.551  25.883  29.104 -0.0077  0.2709  0.0616
70402W        W71266  19.750  26.992  18.249 -0.1546  0.0656 -0.2147
70403W        W71267   4.437  18.699  10.180 -0.0006  0.0178 -0.2544
70404W        W71268  26.773  20.706  10.748 -0.0978  0.2095 -0.1195
70405W        W71269   2.645  22.686   7.576  0.1374 -0.2757  0.0743
70406W        W71270  27.303  18.466  24.571 -0.1334 -0.1131  0.1912
70407W        W71271  23.472   0.285  24.198  0.1354  0.2266  0.1776
70408W        W71272   0.868  21.094  11.759  0.1049 -0.1366  0.1091
70409W        W71273  22.812  24.745   5.797 -0.2209  0.0536 -0.2982
70410W        W71274  15.689   4.105   0.959 -0.1295 -0.1409 -0.2235
70411W        W71275   2.658  16.716   1.912 -0.0349  0.1720  0.3194
70412W        W71276  28.944   1.374   8.125 -0.0859 -0.0551 -0.1583
70413W        W71277   8.715  11.067  23.811 -0.1195  0.2034 -0.2438
70414W        W71278   6.190  16.936  21.846  0.0113  0.1760  0.1008
70415W        W71279  15.184   3.877  19.935  0.2746  0.2416  0.1207
70416W        W71280  10.419  16.642  26.504 -0.1808  0.0085  0.0510
70417W        W71281  26.321  22.911   6.740  0.0737  0.1111  0.0610
70418W        W71282   4.364  27.091  19.133  0.1188  0.0139  0.0436
70419W        W71283   9.446  11.669   5.546 -0.1785  0.0055  0.1005
70420W        W71284  16.444  17.919  26.459  0.0312 -0.0576 -0.1669
70421W        W71285  19.122   7.488  18.221 -0.1810 -0.1960 -0.3000
70422W        W71286   4.693  14.146   7.534 -0.3202  0.0595 -0.1163
70423W        W71287  16.121   0.218  23.491  0.0430 -0.2347 -0.0939
70424W        W71288  27.072  11.857   1.372  0.1661  0.0707  0.1660
70425W        W71289  24.847  18.685   8.320 -0.1802 -0.2126 -0.2791
70426W        W71290   6.443  13.615  20.442 -0.0692 -0.0875 -0.0610
70427W        W71291  15.466  28.222   0.934  0.4099 -0.0817  0.1153
70428W        W71292   2.534  23.655  12.823  0.1350 -0.1480  0.1555
70429W        W71293   7.614  11.732   4.352 -0.0067  0.1754  0.0420
70430W        W71294   5.681  22.673   2.685 -0.0636 -0.2486 -0.1178
70431W        W71295  15.578  23.964  12.380 -0.1462 -0.3450  0.1440
70432W        W71296  15.304  12.968  16.545  0.0824  0.0961  0.1033
70433W        W71297  27.059  17.113   1.658  0.0438  0.0373  0.1741
70434W        W71298  12.072  14.928   7.220  0.0158 -0.0565 -0.0472
70435W        W71299  28.396   7.479  10.689 -0.2499 -0.2336  0.0700
70436W        W71300  20.292  17.050  15.332  0.1664 -0.1139 -0.3365
70437W        W71301  11.533   7.147   7.714  0.1825  0.4475  0.1695
70438W        W71302  15.740   5.338   3.489 -0.0312 -0.1706  0.1241
70439W        W71303  24.383  16.447   2.073 -0.0331  0.0599  0.2356
70440W        W71304   7.716  17.680  10.198  0.2397 -0.2551  0.0841
70441W        W71305   3.007  19.366  12.652  0.4375 -0.0336  0.1168
70442W        W71306  23.044  22.012   4.583 -0.0895  0.0801  0.1657
70443W        W71307  21.116  23.325  26.240 -0.2178  0.0386 -0.0382
70444W        W71308  13.680   9.196  12.684 -0.1931 -0.2421 -0.0704
70445W        W71309  15.291   6.796   9.276 -0.0079 -0.0288  0.1053
70446W        W71310   9.304  15.594   4.876  0.0445  0.0749  0.1689
70447W        W71311  18.297  14.357   0.284  0.0470  0.0581  0.1061
70448W        W71312  15.389  26.797  25.236 -0.1585 -0.0110 -0.0313
70449W        W71313   1.147  13.386  15.677 -0.0640  0.1756 -0.2202
70450W        W71314  11.652  13.409   3.375 -0.0107 -0.0671 -0.1517
70451W        W71315  11.428  24.538  25.512  0.1386 -0.1615 -0.0271
70452W        W71316   6.871  27.761   0.998 -0.0005  0.1367 -0.2589
70453W        W71317  28.301  26.328   5.254 -0.0766  0.0280  0.2539
70454W        W71318  26.123  26.107  14.614  0.1247  0.1114 -0.3399
70455W        W71319   2.482  19.513   1.108  0.0851 -0.2189 -0.0996
70456W        W71320   6.471  13.855   3.853 -0.0663  0.2179  0.0450
70457W        W71321   8.574  14.764  17.458  0.3014 -0.0840 -0.0147
70458W        W71322  19.483  17.631   9.971 -0.3119  0.0836 -0.6595
70459W        W71323  28.228  21.595  22.382 -0.1831 -0.3417  0.2335
70460W        W71324  19.649  20.542  27.307 -0.1311 -0.1249 -0.3686
70461W        W71325   8.628  26.831   8.850 -0.2506 -0.2141  0.1526
70462W        W71326   9.315   0.942  20.928  0.1800  0.0302 -0.1668
70463W        W71327  16.822  19.386   2.815  0.1509  0.1810 -0.1135
70464W        W71328  22.015  23.731  21.658  0.0306  0.3157 -0.0982
70465W        W71329   9.969  15.084  15.023  0.4540 -0.1671 -0.1394
70466W        W71330  17.572   3.688  22.376  0.1216  0.3899  0.0995
70467W        W71331   6.295   6.537   2.308  0.1589 -0.1976  0.0809
70468W        W71332  15.226  26.474  19.739  0.1312 -0.2647  0.0687
70469W        W71333  17.808  14.655  11.108  0.1188 -0.2438  0.0782
70470W        W71334  24.248   0.966  17.582 -0.0905 -0.0379 -0.1342
70471W        W71335  23.476  21.489   5.426 -0.1190 -0.4550 -0.1417
70472W        W71336  27.252  10.762  17.399 -0.0741 -0.0055  0.0389
70473W        W71337   7.459   2.307  12.942 -0.0434 -0.0930 -0.1362
70474W        W71338  22.706  23.348  14.700  0.1737  0.1535 -0.0503
70475W        W71339  18.698   3.642  16.269 -0.3004 -0.2546 -0.2783
70476W        W71340  27.348  25.131   0.049 -0.2533 -0.1492  0.0250
70477W        W71341   5.529  27.847  13.010  0.3403  0.2415 -0.0728
70478W        W71342  22.055   2.952  10.396  0.3536 -0.0945 -0.6471
70479W        W71343  20.889  22.667  13.392 -0.0517 -0.0940  0.4043
70480W        W71344   6.546  12.314  27.090  0.0954  0.1716  0.0542
70481W        W71345  19.124   3.444  28.043  0.2514 -0.1377 -0.3378
70482W        W71346  27.929  27.868  24.202  0.0114 -0.2766  0.1304
70483W        W71347  10.038  26.026   6.215 -0.3145  0.1318  0.3662
70484W        W71348  24.129   7.917  21.550  0.0576 -0.0299  0.1743
70485W        W71349  17.697   4.111   2.196 -0.1731 -0.0045  0.4225
70486W        W71350  18.064  19.799   1.019  0.4248 -0.1436 -0.1449
70487W        W71351  14.474  19.651   7.441 -0.1574  0.0899 -0.1321
70488W        W71352   9.875   2.187  19.950  0.0769 -0.0486  0.0405
70489W        W71353  17.310  12.082  27.014 -0.0924 -0.1804  0.1065
70490W        W71354  12.129  20.491  14.124 -0.0479 -0.2756  0.1963
70491W        W71355  28.206  24.810   4.232  0.0589  0.0184  0.2981
70492W        W71356  23.762   8.674  19.477 -0.1545 -0.0816  0.4759
70493W        W71357  19.912   4.820  28.125 -0.0198 -0.2490  0.3354
70494W        W71358  19.862  10.123  27.956 -0.1168 -0.2064 -0.1096
70495W        W71359  20.694   2.241   9.250 -0.2689  0.1949  0.0672
70496W        W71360  15.382  18.361   1.050 -0.0868  0.2112 -0.0926
70497W        W71361   5.140  26.785  26.176  0.0566 -0.0315 -0.1577
70498W        W71362  20.865   6.177  14.346  0.1548 -0.3781  0.0136
70499W        W71363  19.781  11.981   0.401  0.0365 -0.0495 -0.1711
70500W        W71364  23.747  26.073  22.193  0.1686  0.0903 -0.1577
70501W        W71365  27.051  15.497   3.917  0.1165  0.0043 -0.2064
70502W        W71366  17.432  15.276  13.432 -0.2268 -0.0199 -0.0644
70503W        W71367  28.978   3.157   0.831 -0.2626  0.4540 -0.0081
70504W        W71368  14.293  28.757   9.816 -0.2031 -0.1017 -0.0491
70505W        W71369  18.949  26.117  13.521 -0.1358  0.1494  0.1186
70506W        W71370   8.491  12.221   2.600 -0.2448 -0.0200 -0.0676
70507W        W71371  15.694   4.122  13.987  0.1516  0.0416  0.2282
70508W        W71372  13.003   4.417  26.350  0.0152  0.0746  0.1103
70509W        W71373   0.886  27.744   8.881 -0.1065  0.1385 -0.1807
70510W        W71374   9.759  17.294  18.534  0.1076 -0.2064  0.0558
70511W        W71375  13.338  26.830  23.730  0.0443 -0.0574 -0.0891
70512W        W71376  19.319  24.739  24.749 -0.0599 -0.0977 -0.0112
70513W        W71377   4.275   2.563   4.414  0.0480 -0.0261 -0.1714
70514W        W71378  16.242   6.222  21.893  0.4157 -0.1382 -0.1120
70515W        W71379  18.341   6.975  19.796  0.1252  0.0539  0.3053
70516W        W71380   1.567  17.326   3.973 -0.1870 -0.1684  0.1280
70517W        W71381  14.190   4.546  15.087  0.2092 -0.0778  0.0234
70518W        W71382   7.227  21.492   4.440 -0.0708 -0.0191  0.2041
70519W        W71383  20.014  19.979  20.703  0.0202 -0.1330  0.4275
70520W        W71384  28.644  16.102   6.779  0.0592 -0.2628  0.2319
70521W        W71385  12.838  18.176  12.874  0.1091  0.1861  0.1769
70522W        W71386  19.210  19.302   4.960 -0.0733 -0.3042 -0.1671
70523W        W71387  24.724   3.206   4.288 -0.1808  0.2146 -0.0200
70524W        W71388  15.611   8.873  11.331 -0.0297 -0.0542 -0.0676
70525W        W71389  10.571  16.537  20.535  0.2537 -0.1589 -0.0713
70526W        W71390  13.904   9.110   2.714  0.0023  0.2608  0.0566
70527W        W71391  26.614  15.170  21.610  0.1379  0.0171  0.1096
70528W        W71392  11.873  11.601  23.841  0.0394 -0.0081 -0.0241
70529W        W71393   2.974  16.603   2.450 -0.3161  0.3887  0.1372
70530W        W71394  16.959   5.980   3.014  0.1792  0.4153  0.0084
70531W        W71395  19.969  24.347  19.828 -0.1030 -0.3206  0.1129
70532W        W71396   5.051   5.177  10.578  0.1474  0.0673  0.1177
70533W        W71397   3.482  21.173  19.805  0.1649  0.1865 -0.1386
70534W        W71398  24.360  26.574  27.386 -0.2503 -0.1436  0.0440
70535W        W71399  13.112   4.447   9.783  0.1380 -0.0020 -0.0432
70536W        W71400  24.855  29.124   9.503 -0.1350  0.1217  0.3004
70537W        W71401  20.395  16.461   9.221 -0.1421  0.3381 -0.4376
70538W        W71402  23.054  14.459  11.699  0.0893 -0.0284  0.2053
70539W        W71403  19.262  22.541   3.810 -0.0141 -0.1073  0.2311
70540W        W71404  27.842   8.306  26.540 -0.0325 -0.5532  0.0464
70541W        W71405  21.116   1.888   9.160  0.1645  0.2045 -0.0835
70542W        W71406  26.400   9.224   6.871 -0.1182  0.0915 -0.2343
70543W        W71407  28.049  13.194   1.677 -0.2059 -0.2039 -0.2031
70544W        W71408  28.052  19.423   2.020 -0.3508  0.2310 -0.4542
70545W        W71409  28.761  14.630   8.558 -0.1619 -0.0822 -0.0242
70546W        W71410  19.946  12.637  11.505 -0.2738  0.2061 -0.1949
70547W        W71411  20.351  22.035  20.544  0.0089 -0.0557  0.2199
70548W        W71412  19.262  14.821  13.410 -0.5345  0.1485 -0.0290
70549W        W71413  24.531   2.364   2.142 -0.0190  0.1361 -0.2329
70550W        W71414  13.788   0.163  20.263  0.0402  0.1354  0.1288
70551W        W71415  19.290  25.060   9.062 -0.0206  0.0125  0.2076
70552W        W71416  23.892  18.923   8.431 -0.0382  0.1346  0.0065
70553W        W71417  21.211   7.685   1.661 -0.1510  0.2036  0.0760
70554W        W71418  28.211   3.241  22.059 -0.2094 -0.1492 -0.0756
70555W        W71419   0.376   1.693   2.498  0.2225 -0.1080  0.0045
70556W        W71420  21.901  23.049  28.577  0.1528  0.1194 -0.1568
70557W        W71421  20.080  23.501   9.796  0.0267  0.0032  0.0072
70558W        W71422   1.450  17.137  14.074  0.0248 -0.2230  0.0589
70559W        W71423  28.826  11.144  27.307  0.0044 -0.1914 -0.0541
70560W        W71424  16.155  25.659  26.468 -0.2461 -0.0520 -0.0698
70561W        W71425  24.113   7.099  18.163 -0.3970 -0.1832 -0.2682
70562W        W71426  19.732  23.015   3.124 -0.2334  0.1847 -0.0644
70563W        W71427  18.429   7.815   8.451  0.0246  0.0433  0.0308
70564W        W71428  10.597   6.590   3.465  0.0921  0.0120 -0.0541
70565W        W71429   7.949  24.091  23.693  0.1534  0.1106  0.1872
70566W        W71430  24.966  23.326   8.838  0.0866 -0.1797 -0.0047
70567W        W71431  27.018  24.266  17.338 -0.3097 -0.0371  0.4948
70568W        W71432  27.761   2.585   8.830  0.0065 -0.0178  0.5075
70569W        W71433  23.214  27.685   6.885  0.0209  0.0432  0.2409
70570W        W71434  25.437   9.285   7.001 -0.2533 -0.0198 -0.1201
70571W        W71435   8.482  27.025   6.984 -0.2932  0.0554 -0.3224
70572W        W71436   2.184   3.777  11.648 -0.2328 -0.0779  0.2450
70573W        W71437  19.666  15.418   7.981 -0.0826 -0.4184 -0.2926
70574W        W71438  12.955  21.920   6.643 -0.3291 -0.4039  0.1176
70575W        W71439  13.129   3.562  20.398 -0.0451 -0.0859 -0.3881
70576W        W71440  28.199  22.864  13.106  0.2516  0.0160  0.2129
70577W        W71441   1.374  14.402   9.551 -0.2773  0.2886 -0.0355
70578W        W71442  21.607   1.263  11.088 -0.0736  0.2977  0.0748
70579W        W71443   0.333  17.005  26.083  0.1395  0.1979  0.1278
70580W        W71444  17.290   3.926  13.206 -0.1055  0.2526 -0.0151
70581W        W71445  26.459  10.374  16.244  0.0388  0.1749 -0.1238
70582W        W71446   1.476   6.189  19.069 -0.1286 -0.0973  0.0144
70583W        W71447  28.662  24.700   6.002 -0.1213 -0.1390 -0.2697
70584W        W71448  28.579  21.858   0.521  0.1604 -0.1402 -0.6133
70585W        W71449   3.289   6.846  18.172  0.2483 -0.2707 -0.2397
70586W        W71450   2.520  20.780   3.427 -0.0835  0.1962  0.1339
70587W        W71451  21.858  13.302   6.561  0.0594 -0.0097 -0.1103
70588W        W71452   8.226  20.165  24.305 -0.0014 -0.1917  0.0049
70589W        W71453   2.287  14.326  10.399 -0.0833 -0.1146 -0.1074
70590W        W71454  12.995  17.487   7.571 -0.2032 -0.1701 -0.1071
70591W        W71455   9.129   2.087   6.482 -0.1218 -0.1861 -0.1546
70592W        W71456  11.455  17.943  26.816  0.2514 -0.0167  0.1851
70593W        W71457  24.216  26.467   9.343  0.0086 -0.0565  0.0781
70594W        W71458  13.718  21.940  15.103  0.5266  0.0124  0.2329
70595W        W71459  27.304  22.826  19.447 -0.0997 -0.1911  0.1822
70596W        W71460   3.694   4.361  19.334  0.0003 -0.2336 -0.1161
70597W        W71461  27.443  14.417  18.075 -0.3120  0.1732 -0.2868
70598W        W71462  15.627  22.248  29.060 -0.0708  0.1317 -0.2149
70599W        W71463   2.835  11.467  20.819  0.0510 -0.0637  0.1933
70600W        W71464  22.210  13.598   8.031  0.4648  0.0098  0.2135
70601W        W71465  26.894  25.974  21.110  0.1882 -0.3690 -0.1751
70602W        W71466   7.410   0.949  10.810 -0.1112  0.0624  0.1792
70603W        W71467   4.955  15.993   3.993 -0.1208  0.4079 -0.0960
70604W        W71468  13.681  27.436  14.369 -0.1473 -0.0777  0.1824
70605W        W71469  14.389   0.634  12.284 -0.2548  0.4484 -0.3477
70606W        W71470  23.817  17.972   8.624 -0.1341  0.0291  0.0149
70607W        W71471  25.583  19.880   8.752  0.1483 -0.1136  0.0538
70608W        W71472   0.708   4.701   6.221 -0.1928 -0.1609 -0.2259
70609W        W71473  18.137  21.620   8.072 -0.0476 -0.1276 -0.1217
70610W        W71474  26.814  20.355  11.183  0.3007  0.0666 -0.1335
70611W        W71475  25.314   2.988  16.091 -0.1960  0.1888 -0.1435
70612W        W71476  17.428  19.735  21.564 -0.0348 -0.0739  0.1820
70613W        W71477  15.777  21.863   5.396 -0.0292 -0.2613  0.3080
70614W        W71478  19.005  25.211   7.001  0.1939 -0.0416 -0.0719
70615W        W71479  18.768  23.908  19.148  0.1432  0.1844 -0.0756
70616W        W71480  23.466  13.621  21.528 -0.0425  0.1048  0.0227
70617W        W71481  18.826  14.965  13.624 -0.0963  0.1218 -0.4144
70618W        W71482  20.660   4.096  28.984  0.0010  0.1994  0.2473
70619W        W71483  25.914  15.206  16.575 -0.0382  0.1990  0.0595
70620W        W71484  11.165  28.296  21.492 -0.2457  0.0131  0.1785
70621W        W71485   0.391   6.913   0.922  0.1031  0.0485  0.0069
70622W        W71486  21.789  28.227  17.297  0.0169  0.0608  0.2211
70623W        W71487  20.920   7.072   4.885  0.0779  0.1998  0.1486
70624W        W71488  23.686  15.492   8.153  0.0891  0.0979  0.0455
70625W        W71489  10.503   1.325   0.052 -0.1276 -0.1128  0.3246
70626W        W71490   2.931   3.421   0.896  0.1290  0.0746  0.0816
70627W        W71491  23.682  16.657  18.038 -0.0614 -0.1831 -0.1482
70628W        W71492  23.281   7.893  10.571 -0.2552  0.2019  0.0692
70629W        W71493  17.426   1.002   3.585 -0.1950  0.1325  0.1285
70630W        W71494  19.186  13.222  15.527  0.1656 -0.0489  0.0038
70631W        W71495  24.729  24.808  21.669  0.1091 -0.1002  0.1841
70632W        W71496  20.186   8.641  17.302 -0.3216 -0.3550 -0.0726
70633W        W71497  25.054  17.760   5.594 -0.0019 -0.0943 -0.1544
70634W        W71498  22.855  16.343  16.991  0.1067 -0.3171 -0.0025
70635W        W71499  12.232  26.194   9.901 -0.0375  0.3692 -0.0794
70636W        W71500   9.724   0.321  21.895  0.1162 -0.2238  0.0643
70637W        W71501  27.147  10.337   4.425 -0.1622  0.0235  0.0892
70638W        W71502  25.082  27.317  17.114 -0.0672 -0.2355  0.1293
70639W        W71503   1.785   6.796   8.817 -0.1420  0.2894  0.1035
70640W        W71504  18.476  11.883  16.191 -0.0335 -0.0728  0.3099
70641W        W71505  29.009  27.264  15.900  0.0307  0.1574  0.2174
70642W        W71506  11.355   8.408  21.240 -0.0234 -0.0270  0.4052
70643W        W71507  18.129  26.209   2.374 -0.0275 -0.0880 -0.2202
70644W        W71508  16.044  19.665   9.856  0.0979  0.3799 -0.3651
70645W        W71509  28.317  16.963  11.779  0.0350 -0.1379 -0.1582
70646W        W71510   7.364  22.214  26.235 -0.2152 -0.0522 -0.0045
70647W        W71511  24.374  18.317   1.598 -0.1917  0.3386  0.2930
70648W        W71512  19.711   4.742   0.824 -0.0594  0.2625 -0.1588
70649W        W71513  13.340   5.948  14.139 -0.0586  0.0284 -0.1748
70650W        W71514  15.398   0.765  22.750  0.1377 -0.0446  0.1046
70651W        W71515  18.308  28.414  12.779 -0.0003  0.3032  0.3833
70652W        W71516  27.587  27.702   7.100  0.2709  0.0363 -0.1988
70653W        W71517  22.503   1.933   9.384 -0.2014 -0.1733  0.3628
70654W        W71518  10.626   1.634  12.696  0.2530  0.4031  0.2379
70655W        W71519  24.311   0.747   9.908  0.1945 -0.2356  0.2282
70656W        W71520  11.249  27.614   2.572  0.2145 -0.0901 -0.1354
70657W        W71521  13.234  20.214   7.561  0.1831  0.1634  0.0724
70658W        W71522  23.079  13.611  15.793  0.1223 -0.0778  0.1039
70659W        W71523  22.820  22.337   6.480  0.0758 -0.1443  0.1280
70660W        W71524   7.452  25.468   9.833 -0.1744 -0.5168 -0.0009
70661W        W71525  23.821   6.033   7.318 -0.0108  0.0592 -0.0976
70662W        W71526   4.981  27.541  19.746 -0.0390  0.0036 -0.1652
70663W        W71527  19.201   3.606  20.967  0.1213 -0.0925 -0.0286
70664W        W71528   0.878  22.256   1.513  0.1219 -0.0781  0.0717
70665W        W71529  21.436  28.542  14.413  0.1267 -0.1284  0.1055
70666W        W71530  28.455  13.655   4.362 -0.0351  0.2900  0.3088
70667W        W71531   7.990   9.578   5.006 -0.0762  0.1012  0.0201
70668W        W71532   3.652  20.948  14.359  0.0923 -0.2662 -0.2416
70669W        W71533   9.164  28.710   2.888 -0.1191 -0.1265 -0.3033
70670W        W71534  14.283  19.917  21.387  0.2487  0.2568 -0.0203
70671W        W71535  25.457  14.716  13.663 -0.1389 -0.2821  0.1699
70672W        W71536  24.845  18.239  14.245  0.1858  0.1461  0.1993
70673W        W71537   9.140  24.313  16.615 -0.0100  0.0369 -0.0298
70674W        W71538  22.657   7.565   3.456  0.0651 -0.0898 -0.0867
70675W        W71539   0.925  24.331   6.070 -0.2321  0.1103 -0.2256
70676W        W71540  21.572  13.185  13.201  0.0089 -0.0594 -0.0170
70677W        W71541   6.267  20.256   1.639 -0.0925 -0.1139  0.1059
70678W        W71542  16.660   4.482   1.833 -0.0177  0.0587 -0.1629
70679W        W71543   2.779   3.102  18.892 -0.2013 -0.1227  0.1707
70680W        W71544  24.035  20.369   5.589 -0.1659  0.0839 -0.0878
70681W        W71545  20.946  18.837   6.063  0.0281  0.0912  0.1247
70682W        W71546  17.385  20.671  11.460 -0.0062 -0.1435  0.2456
70683W        W71547   1.620   6.523   3.321  0.1464 -0.2575 -0.0891
70684W        W71548  12.642  27.877   5.786 -0.2409  0.0848  0.0672
70685W        W71549  15.153  19.437  18.636 -0.0411 -0.4143  0.3243
70686W        W71550  13.396   6.773  29.030 -0.0245  0.1252 -0.0046
70687W        W71551  13.160  21.929   3.006 -0.2465 -0.2555  0.1727
70688W        W71552   5.646  17.388  11.279 -0.2346  0.0030  0.1225
70689W        W71553  26.601  17.726  10.040  0.1179 -0.0084  0.1043
70690W        W71554  12.998   2.262  15.902 -0.0961  0.1684  0.0234
70691W        W71555   2.180  10.971   4.113  0.0275 -0.1824  0.2520
70692W        W71556  19.174  17.012   9.579 -0.0058  0.0725 -0.2685
70693W        W71557  25.512  18.949  17.599  0.1441 -0.2290 -0.1182
70694W        W71558  26.232  20.054   6.267  0.3492 -0.0514 -0.1405
70695W        W71559  18.151   5.897  20.286  0.0371  0.2886 -0.1709
70696W        W71560  20.335  13.172   7.904 -0.1001  0.1776  0.1364
70697W        W71561  19.490   1.587  16.754  0.1281  0.0866  0.0893
70698W        W71562  24.227   1.879  27.778  0.0123 -0.1713 -0.3436
70699W        W71563  19.688  17.196  17.421 -0.1956  0.0938  0.1216
70700W        W71564  22.851  10.247   8.374 -0.2331  0.1098  0.1371
70701W        W71565  25.764  25.537   7.336  0.0937  0.1382  0.1794
70702W        W71566  14.760  28.286  15.558  0.1648 -0.0360  0.5598
70703W        W71567  28.142  18.678  29.129 -0.3419  0.1147 -0.0706
70704W        W71568  26.669  24.405  28.134  0.2277 -0.0597 -0.1005
70705W        W71569  27.831  24.658  13.274 -0.2618  0.0513  0.0570
70706W        W71570  17.063   5.550  16.197  0.1036 -0.0323  0.0904
70707W        W71571  28.418  25.784  10.784 -0.0389  0.0248 -0.0225
70708W        W71572  13.317  17.275  27.595 -0.0250  0.2891 -0.2769
70709W        W71573   1.072  15.526  11.405  0.2538  0.0079  0.2096
70710W        W71574   9.172  24.727  19.098 -0.4386 -0.1019 -0.2345
70711W        W71575   4.757  10.263   5.286  0.2231 -0.1027  0.4149
70712W        W71576  11.678  24.193  22.343  0.1385 -0.1292  0.1024
70713W        W71577   7.931  25.775  15.062  0.2195  0.0760  0.2238
70714W        W71578  10.870  13.952   1.941  0.2880  0.1263  0.2592
70715W        W71579  19.017  17.663   6.982  0.0736  0.1310 -0.1099
70716W        W71580   2.053  18.871  27.788  0.2426  0.0791 -0.0473
70717W        W71581  10.719  28.498  20.187  0.1010 -0.2870 -0.0214
70718W        W71582  26.073  22.566  25.100 -0.2190  0.0574 -0.0731
70719W        W71583   4.622   1.920  12.123  0.1622 -0.0589  0.2950
70720W        W71584   2.099  26.311   4.119 -0.2179 -0.0292  0.2286
70721W        W71585   8.295   0.419  15.717  0.2320 -0.1357 -0.0304
70722W        W71586  12.170   8.998  11.649 -0.2254 -0.2235 -0.3209
70723W        W71587  24.696  20.115  27.117  0.2410 -0.0365 -0.0376
70724W        W71588   0.094  16.052  24.870  0.1358 -0.1637 -0.2131
70725W        W71589  15.561  22.566  27.895 -0.1440  0.1189  0.1647
70726W        W71590  21.360  20.068   0.200  0.2210  0.0190 -0.0706
70727W        W71591  15.530  24.406  23.140  0.1192 -0.1629  0.2565
70728W        W71592   6.473  13.581  14.780  0.0687 -0.0203  0.3257
70729W        W71593  24.668  26.741  15.452 -0.1986 -0.1042  0.0317
70730W        W71594  21.031  16.072   8.821  0.0875  0.1572 -0.1403
70731W        W71595   6.593  19.540   5.149 -0.0312  0.2710 -0.2525
70732W        W71596  10.264  16.503  28.355  0.0605 -0.4127  0.1703
70733W        W71597  15.667   3.673   2.534  0.1823  0.0456  0.3500
70734W        W71598   2.064  26.795  28.364 -0.0420 -0.0482 -0.2329
70735W        W71599   0.296  25.665  18.042  0.3957 -0.0075  0.0407
70736W        W71600  17.472  14.901  26.542  0.0037 -0.2625  0.2082
70737W        W71601   9.806  26.027   4.543  0.1094  0.0568  0.1762
70738W        W71602  17.396  16.267   9.973 -0.1635  0.0510 -0.2779
70739W        W71603  19.017  20.847   6.740 -0.0164  0.2185  0.3315
70740W        W71604  14.508  20.074   3.040  0.2763 -0.1032 -0.1717
70741W        W71605  17.868  23.487   4.885  0.4559 -0.3391  0.1291
70742W        W71606  15.078  10.366   0.004  0.2249 -0.0136 -0.2052
70743W        W71607  25.016  11.031  16.731 -0.1101 -0.1439 -0.0650
70744W        W71608   7.357  24.435  24.517 -0.0797  0.0832 -0.1476
70745W        W71609  27.745  19.558  25.711  0.3077  0.1653 -0.1796
70746W        W71610  23.913  15.035  18.191  0.0452  0.1125  0.2729
70747W        W71611  13.321  24.631  24.053  0.1938  0.0717 -0.2044
70748W        W71612  12.383  27.165  19.218 -0.1054 -0.0169  0.3403
70749W        W71613  12.531  19.934  13.088  0.0104  0.0502  0.1040
70750W        W71614  17.606  13.935   6.118 -0.0509  0.2896 -0.0466
70751W        W71615  14.675   7.023  21.771 -0.4103 -0.2525 -0.2925
70752W        W71616   2.693   1.729   1.329 -0.1456  0.2505 -0.1106
70753W        W71617   1.900  14.246   5.162 -0.1360 -0.0058 -0.0375
70754W        W71618  12.414  14.344  27.039 -0.1058  0.0476  0.0708
70755W        W71619  12.450  14.384   3.510  0.1811  0.3523 -0.3102
70756W        W71620   9.614  23.587  22.366 -0.0951 -0.5153 -0.1246
70757W        W71621   4.202  14.489  24.444  0.0135  0.4327 -0.3083
70758W        W71622  25.178   2.296  16.759  0.2363  0.0906 -0.1917
70759W        W71623  16.717   7.260   0.505 -0.2562 -0.0165  0.1385
70760W        W71624  22.935  23.613   9.043  0.3192 -0.0360  0.2005
70761W        W71625  25.681  17.925   3.405 -0.2006 -0.4359  0.0910
70762W        W71626  19.134  25.671   5.613  0.2313  0.0444 -0.1453
70763W        W71627  23.006   9.900   0.358 -0.2736  0.1231 -0.1059
70764W        W71628  14.335  26.644  21.870 -0.1613  0.1406 -0.3228
70765W        W71629  15.769   9.043  10.081  0.1407 -0.1540  0.0586
70766W        W71630   7.337  25.961   2.969 -0.0558 -0.2777 -0.1728
70767W        W71631  16.143  17.523   0.310 -0.0758 -0.1748 -0.1407
70768W        W71632  20.174   0.766  14.300  0.1074 -0.2621 -0.0507
70769W        W71633  19.211  17.475  13.921  0.0650  0.3494  0.0309
70770W        W71634  26.398   2.049  20.328 -0.2613 -0.0789  0.0344
70771W        W71635  18.905  25.264  15.903  0.3591  0.0285 -0.1226
70772W        W71636  26.181  23.051  15.978 -0.2541  0.1709 -0.3105
70773W        W71637  19.320  26.279   2.435 -0.3299  0.0040 -0.1601
70774W        W71638  21.446  23.971   7.465 -0.0256  0.2256  0.2935
70775W        W71639   2.082   4.620  13.068  0.0223 -0.3000  0.2397
70776W        W71640  23.085  19.670   9.572 -0.3960 -0.0164  0.1881
70777W        W71641  26.548  23.841   5.296  0.1746 -0.1252  0.1669
70778W        W71642  27.329  18.256   7.709  0.1071  0.0162 -0.2186
70779W        W71643   1.801  27.555  22.049  0.0740 -0.1284  0.0559
70780W        W71644  11.137  22.526  25.351  0.1206 -0.1609  0.1268
70781W        W71645  14.811   0.277  17.862  0.2000 -0.1171 -0.1232
70782W        W71646  19.686  26.205  13.912 -0.0193 -0.0911  0.0899
70783W        W71647  23.584  23.846  23.779 -0.0940  0.1377  0.1494
70784W        W71648  16.528   8.298   5.249  0.0971  0.0294 -0.0648
70785W        W71649  25.270  17.585  22.962 -0.0439 -0.1026 -0.0996
70786W        W71650   7.478  17.858   8.770  0.1477  0.0314 -0.0099
70787W        W71651  22.283  12.316  11.672  0.0551  0.0359  0.0172
70788W        W71652   1.475  26.546   8.467 -0.1582 -0.3431 -0.0311
70789W        W71653  18.528  26.196  21.162  0.0333 -0.1919 -0.1167
70790W        W71654  22.394  21.267  13.798 -0.0056  0.2257 -0.0915
70791W        W71655  10.423  23.915  27.388  0.0430 -0.1118  0.1631
70792W        W71656  23.579  20.189  12.239 -0.3857  0.2809 -0.1146
70793W        W71657  20.401  17.627  21.956 -0.3730  0.2806 -0.2015
70794W        W71658   7.054  23.632   5.504  0.3942 -0.0594 -0.0094
70795W        W71659   3.601  15.662  12.054 -0.1212  0.0593 -0.4243
70796W        W71660   9.217  15.713  19.674  0.3142 -0.2083  0.1288
70797W        W71661   1.638  18.417   8.994 -0.1456  0.1680 -0.2420
70798W        W71662   5.086   9.509   0.179 -0.3770 -0.0989  0.0799
70799W        W71663  13.862  28.827  14.908 -0.2665 -0.1949  0.1575
70800W        W71664  16.043  25.768   7.004 -0.0724 -0.1261 -0.4183
70801W        W71665  24.089  24.764  26.523  0.1325  0.0200  0.0050
70802W        W71666  25.611   7.752  21.361  0.2892  0.0358  0.0886
70803W        W71667  24.357   7.084   9.070  0.1957  0.0290 -0.0776
70804W        W71668  19.190  18.303  20.149 -0.0181  0.2124 -0.1821
70805W        W71669  17.319  21.977  12.759 -0.1365 -0.0873 -0.3050
70806W        W71670  21.361  18.987   3.333 -0.1221 -0.2101 -0.0089
70807W        W71671  27.268  17.132  11.649  0.1875 -0.0322 -0.0302
70808W        W71672   8.024  10.023  22.913  0.0806 -0.0634  0.3551
70809W        W71673  26.690  23.156  11.855 -0.0072 -0.1046 -0.4075
70810W        W71674   1.637  25.478   2.139 -0.0105 -0.0312 -0.0122
70811W        W71675  11.331  19.933   8.723  0.1883 -0.0515  0.0571
70812W        W71676  14.132  21.807  14.075  0.1905 -0.0263  0.0424
70813W        W71677  19.976  17.575  10.033  0.3525  0.1648  0.0824
70814W        W71678  22.553   7.122  21.790  0.0902  0.2224  0.1621
70815W        W71679  13.386  24.019  11.656  0.0278  0.0997 -0.1043
70816W        W71680  15.545  16.116  12.501  0.1664 -0.3157 -0.0855
70817W        W71681  21.401  14.911  13.022  0.0566  0.0360  0.1716
70818W        W71682   9.318  16.254   8.984 -0.2472 -0.1526 -0.0912
70819W        W71683  12.961  22.156  13.442  0.0936  0.0073  0.1636
70820W        W71684  24.500  17.861  12.839 -0.2010  0.1652  0.3480
70821W        W71685  11.150   0.671   3.108  0.0046 -0.3262  0.1330
70822W        W71686  25.523  12.174  11.660 -0.0494  0.0986  0.2464
70823W        W71687  28.651  18.386  18.307  0.0594 -0.1340 -0.2177
70824W        W71688   8.950   9.116  15.762  0.0698  0.0186  0.0544
70825W        W71689   1.474  14.230   7.570 -0.1877  0.2921  0.1576
70826W        W71690   6.934  28.227   9.751 -0.3102 -0.0128  0.2181
70827W        W71691  26.924   5.882  15.192  0.1342 -0.0010 -0.1105
70828W        W71692   5.324  20.766  15.297 -0.0302  0.1686 -0.2128
70829W        W71693   9.506  21.900  20.511 -0.0960 -0.1720  0.2136
70830W        W71694   3.880  28.258   0.509 -0.1865  0.2039  0.0615
70831W        W71695  28.703   2.815   1.234  0.0816 -0.1614  0.1711
70832W        W71696  11.660  16.575  16.850  0.1484  0.0618  0.1048
70833W        W71697  13.187  14.990  19.225  0.1147  0.0359 -0.0746
70834W        W71698  23.811  11.762   4.104  0.0171 -0.1491  0.0340
70835W        W71699  13.951   7.258  16.609  0.1922  0.0041  0.0201
70836W        W71700  23.957  27.103  13.406  0.2132  0.0037 -0.0398
70837W        W71701  24.058  26.039  10.726  0.0384 -0.0601 -0.1919
70838W        W71702   3.022  22.574   7.197 -0.1283 -0.1258 -0.2582
70839W        W71703  11.897   8.949  12.884 -0.3871 -0.1831  0.0800
70840W        W71704   7.694   5.124   3.428  0.1155  0.0606 -0.1057
70841W        W71705  25.348  27.081   3.977 -0.2746  0.0610 -0.0456
70842W        W71706   3.203  27.095  22.113 -0.1502 -0.3475  0.0821
70843W        W71707  22.560  29.125  24.337  0.0902  0.2006 -0.3440
70844W        W71708   0.003   5.838   9.542  0.1735 -0.0349  0.0055
70845W        W71709   1.903  13.974   7.918 -0.1804  0.2890 -0.1063
70846W        W71710  15.296   3.136  15.574 -0.1297  0.1517 -0.3031
70847W        W71711  10.972  13.548   8.689 -0.2385  0.0362  0.2097
70848W        W71712  22.774  15.572   2.401  0.1796 -0.0220  0.0883
70849W        W71713  24.135  23.148  28.392  0.0107 -0.0336 -0.2652
70850W        W71714  23.069  14.129  12.817  0.0137 -0.2758 -0.0468
70851W        W71715  14.658  20.785  27.432 -0.2437  0.0783  0.4408
70852W        W71716  17.819  15.577   6.946  0.0431 -0.3901 -0.4774
70853W        W71717   7.058   4.981   9.401  0.1301  0.0180 -0.1805
70854W        W71718  24.707  10.272   6.902 -0.1337  0.2556  0.1300
70855W        W71719  26.909  20.826   3.056  0.2304  0.1225 -0.0279
70856W        W71720  23.364  14.402   5.299 -0.0217  0.2137  0.0467
70857W        W71721  23.710   1.776  28.182  0.0941 -0.2368 -0.0971
70858W        W71722  11.947  23.129   3.295 -0.2579 -0.0466 -0.1364
70859W        W71723  22.396  12.122   3.063 -0.2145  0.0143  0.3911
70860W        W71724   1.589  10.869  28.485 -0.3520 -0.1364 -0.0611
70861W        W71725  25.101  23.393   8.273  0.1764  0.0720 -0.2498
70862W        W71726   7.014   7.999  24.564  0.1676 -0.1112 -0.0210
70863W        W71727  24.896  22.964  21.534 -0.0291 -0.0102  0.1345
70864W        W71728   1.550  21.672   8.240 -0.3188 -0.0214  0.0014
70865W        W71729  21.865  21.659  12.589  0.0842 -0.0163 -0.1225
70866W        W71730   2.567  21.682   5.539  0.0964  0.0638 -0.2983
70867W        W71731  13.692  25.425  23.808  0.1008  0.1110  0.0624
70868W        W71732  17.069   1.988  12.003 -0.0952 -0.0025  0.3013
70869W        W71733  17.445  28.297  15.909 -0.0569 -0.0145 -0.1094
70870W        W71734  25.645  11.066  21.212 -0.2916 -0.1160  0.0641
70871W        W71735   5.020  17.875  13.478  0.1680 -0.0055 -0.0687
70872W        W71736  16.333  16.266  11.646  0.2078  0.0204  0.2758
70873W        W71737  16.873  15.205  12.824  0.1056 -0.1436 -0.0551
70874W        W71738   3.508  28.694   0.522  0.0962  0.0623  0.1826
70875W        W71739   3.575   2.508  10.561  0.1325 -0.0476  0.1387
70876W        W71740  11.636  27.362   2.757  0.0154 -0.1038  0.0299
70877W        W71741   2.184  19.519   4.331  0.3763  0.1498 -0.4121
70878W        W71742   7.148   2.299   6.272 -0.1220 -0.2003  0.0230
70879W        W71743  23.244   0.814  12.893 -0.0015  0.0507  0.4466
70880W        W71744  17.555  16.939  23.141  0.0650 -0.0735  0.1518
70881W        W71745  26.341  23.813  23.894 -0.0032  0.4470  0.1632
70882W        W71746  24.775  13.999  15.501  0.0310 -0.0968  0.0801
70883W        W71747  13.738  25.325  24.836 -0.2703 -0.2072 -0.0014
70884W        W71748  16.994  10.957  12.766  0.1425  0.0057  0.2547
70885W        W71749   4.247  18.659  27.182  0.0214 -0.0695 -0.0939
70886W        W71750  13.094   8.979  27.088  0.6807 -0.0727 -0.0172
70887W        W71751   4.827  28.331  18.919 -0.1460 -0.2178  0.1973
70888W        W71752  17.193  22.845  12.877  0.0470 -0.2650 -0.0526
70889W        W71753   1.642  26.993  10.076  0.0892 -0.0245 -0.0343
70890W        W71754   5.759   1.037  14.487 -0.0893  0.3784  0.0952
70891W        W71755   6.558  15.162  13.960 -0.1368 -0.0085  0.0173
70892W        W71756   3.581   3.664  20.864 -0.0226 -0.1893  0.1806
70893W        W71757  28.095  16.214  26.852 -0.2214 -0.1877  0.1112
70894W        W71758   6.936  15.578  12.115 -0.1043 -0.1279  0.0590
70895W        W71759  28.631   1.761  25.168 -0.1669  0.1553  0.2099
70896W        W71760  25.326   9.240   3.253 -0.0515  0.3315  0.1513
70897W        W71761  23.220  18.057  24.667  0.0369  0.1140 -0.1882
70898W        W71762   2.524  22.933   8.706  0.4102 -0.3272 -0.1819
70899W        W71763  19.915  12.976   6.941 -0.1148  0.1743 -0.1721
70900W        W71764   0.312   1.953   8.719 -0.0955  0.1087  0.1864
70901W        W71765  27.742  11.372  19.130 -0.0059  0.1907 -0.0774
70902W        W71766  12.236  22.319  11.478  0.0049 -0.2928  0.0190
70903W        W71767   8.712  25.326   9.044 -0.1529  0.0237 -0.2481
70904W        W71768   9.447  17.650   2.264 -0.0689  0.0584  0.0161
70905W        W71769  17.781  14.862  10.112  0.3505  0.2674 -0.1559
70906W        W71770  17.123  17.951  25.063  0.1957 -0.1554  0.3037
70907W        W71771   2.303   4.840  10.154  0.0469 -0.1465  0.0794
70908W        W71772  21.035  20.912  22.620  0.1413 -0.1015 -0.2249
70909W        W71773  12.468  11.060  10.081 -0.1133 -0.0962 -0.1633
70910W        W71774  18.338  12.163  20.637 -0.0191  0.0969 -0.2168
70911W        W71775  26.278  24.548  17.969  0.0743 -0.2098 -0.0197
70912W        W71776   3.270   9.731   3.638  0.2653  0.4434  0.1212
70913W        W71777   8.369  26.007  27.206 -0.0736  0.0531 -0.1521
70914W        W71778   3.079  22.670  24.378 -0.1727 -0.0178  0.0969
70915W        W71779   1.535  10.076   9.667  0.3002 -0.0838  0.2004
70916W        W71780  17.997  21.321  19.231 -0.1235  0.3335  0.1360
70917W        W71781  22.065  13.751   9.803 -0.0843 -0.0481 -0.3872
70918W        W71782  25.482  19.528  19.733 -0.2537  0.2857  0.1175
70919W        W71783   0.872  14.729  16.842 -0.1992 -0.3836 -0.1269
70920W        W71784  24.275  20.787  15.352 -0.0348  0.2187 -0.0015
70921W        W71785  26.399  28.047  12.820 -0.1328 -0.0315 -0.0703
70922W        W71786   4.037  20.370  19.179 -0.0292 -0.3033  0.1954
70923W        W71787  15.593  26.485  10.667 -0.2597  0.5283 -0.0543
70924W        W71788  21.757   4.880   5.939 -0.0402  0.0021 -0.0437
70925W        W71789  18.221  22.105   2.326 -0.1289  0.0293 -0.0600
70926W        W71790   2.699  11.383   6.986 -0.1059 -0.5001  0.0057
70927W        W71791  12.249  14.363  16.654  0.0900 -0.2142 -0.2379
70928W        W71792  13.096  11.963  15.217  0.4059  0.0005  0.3167
70929W        W71793  16.148   1.877   6.133  0.3601 -0.1682  0.0927
70930W        W71794  18.233   1.620  22.952  0.1173 -0.0617  0.0334
70931W        W71795  15.435  26.892   2.736  0.1246  0.2172 -0.1491
70932W        W71796  26.124  16.537   2.736  0.1575  0.0395  0.1922
70933W        W71797  24.608  16.453  18.052 -0.0298 -0.1725  0.1122
70934W        W71798  21.633  17.859  10.819 -0.3604  0.3123 -0.4660
70935W        W71799  17.981  25.303   5.932  0.0104 -0.0507  0.0134
70936W        W71800   5.433  24.614  19.485  0.1512  0.0432  0.0416
70937W        W71801   8.073  14.732  14.726  0.1433  0.2214  0.0175
70938W        W71802  19.492  28.804  13.931 -0.0871 -0.1953  0.1174
70939W        W71803  15.442  10.205  27.994  0.0902  0.0012  0.0010
70940W        W71804   2.778  14.266  10.307 -0.0253 -0.1442  0.1798
70941W        W71805   9.758   3.128  11.081  0.2679  0.0741 -0.0051
70942W        W71806  25.805  23.276  17.710 -0.1003 -0.1317 -0.1551
70943W        W71807  11.573  13.664  29.084  0.2389  0.0856 -0.0162
70944W        W71808   6.154  28.013  16.383 -0.2749  0.0729  0.2537
70945W        W71809  26.993  13.840   4.793  0.1229  0.1571  0.3165
70946W        W71810   7.250  23.983   9.585 -0.0761 -0.1498 -0.2958
70947W        W71811  11.986  13.775  13.888 -0.1266 -0.1498  0.0767
70948W        W71812   6.574   2.334   9.540 -0.2255 -0.0240 -0.0142
70949W        W71813   4.485  14.514  19.292 -0.1244  0.2566 -0.1101
70950W        W71814  25.820  26.368  11.403  0.3190 -0.1430  0.3259
70951W        W71815   2.513   5.523  17.369 -0.0785 -0.2629 -0.0695
70952W        W71816   1.715  18.295   6.852  0.2229  0.0071 -0.0537
70953W        W71817  20.558  26.201   7.138 -0.1440  0.1860  0.5560
70954W        W71818  11.100  11.794  26.752 -0.1273 -0.1139  0.2703
70955W        W71819  11.707   4.495  15.231 -0.1197 -0.3584 -0.1661
70956W        W71820  25.877  12.472   8.333 -0.2547 -0.1659  0.0513
70957W        W71821  16.780  16.216   3.112 -0.1639  0.0114 -0.2361
70958W        W71822   1.889  18.635  12.723  0.3258  0.0649 -0.0568
70959W        W71823   6.574  15.645  15.646  0.0042  0.2128  0.1021
70960W        W71824   0.573  26.516  18.842  0.1319 -0.1158  0.2079
70961W        W71825  24.791  17.967  20.076  0.0314  0.1587 -0.1818
70962W        W71826   5.312   9.374  24.587 -0.0839 -0.1574 -0.3032
70963W        W71827   4.332  23.896  14.351 -0.2660  0.0300 -0.0594
70964W        W71828  11.522  10.514   4.923  0.1294 -0.1444 -0.0104
70965W        W71829   5.600   5.208  10.609 -0.0972  0.0044  0.0133
70966W        W71830   8.869  10.420   7.935  0.4310 -0.3183 -0.3095
70967W        W71831   3.728  11.796   0.532  0.2524 -0.3704 -0.0317
70968W        W71832  13.546   1.731  13.620  0.2049 -0.0845 -0.2992
70969W        W71833  16.214  15.922   4.143  0.0532  0.0916  0.1418
70970W        W71834   8.813  27.550  26.307  0.1837 -0.0335 -0.2036
70971W        W71835  15.352  25.049   3.756  0.1663  0.0722  0.0986
70972W        W71836  11.100  16.046  13.272  0.1086  0.2971  0.1589
70973W        W71837  22.550  12.441   9.892  0.0061  0.1352 -0.1714
70974W        W71838  12.825   0.941   0.975  0.1204 -0.0087  0.1634
70975W        W71839   1.153  27.467  10.980 -0.1458  0.4193 -0.0318
70976W        W71840  24.378  20.577  14.914 -0.1009 -0.2493  0.3161
70977W        W71841  15.597  22.281   2.947  0.1136 -0.3838 -0.3675
70978W        W71842  23.471  12.051   1.092  0.0752  0.0626  0.0677
70979W        W71843  23.205  21.477  21.509 -0.3729  0.0099 -0.0687
70980W        W71844   6.998   2.790   1.617  0.0382 -0.1109  0.2151
70981W        W71845  25.015  28.569   2.001 -0.1743  0.1717 -0.3224
70982W        W71846  26.923  24.170  12.031  0.0044 -0.1688 -0.2184
70983W        W71847  24.528  10.294   2.217 -0.2165 -0.0353  0.1341
70984W        W71848  21.932   7.885  19.026  0.1362 -0.0209 -0.3241
70985W        W71849  19.520  21.381  16.646 -0.4253  0.1746 -0.0196
70986W        W71850  21.587   4.659  18.266  0.1320  0.4771  0.2672
70987W        W71851  18.762  16.852   9.846 -0.2194 -0.1304 -0.1419
70988W        W71852  25.838  21.885  25.137  0.0338  0.2675  0.1941
70989W        W71853  25.414  12.465   7.705 -0.2881 -0.0458  0.0623
70990W        W71854   9.011  16.931   9.957 -0.0012  0.1365  0.1293
70991W        W71855   4.967  27.905   9.292  0.0958 -0.2292  0.4011
70992W        W71856  19.066  19.065  13.874 -0.0716  0.2138 -0.1150
70993W        W71857  17.707  20.562  29.092  0.3385 -0.0606 -0.1149
70994W        W71858  26.693  12.919  25.497  0.2799 -0.0246 -0.0567
70995W        W71859  12.734  15.864   9.314  0.0557  0.1285 -0.1170
70996W        W71860  22.437   7.271  19.431  0.1353 -0.2027  0.0544
70997W        W71861  24.856  24.562  12.598 -0.1263 -0.1229 -0.0427
70998W        W71862  14.190  22.815   8.856 -0.1681 -0.2402  0.4085
70999W        W71863   8.460   9.582   4.846 -0.1205  0.1101  0.0383
71000W        W71864   7.294  28.356  19.179  0.2040 -0.0315 -0.4590
71001W        W71865  21.953   6.645   5.691  0.1541  0.3762  0.4432
71002W        W71866  20.634  26.452  14.023 -0.1473 -0.3249  0.2287
71003W        W71867   6.432   8.321   5.042 -0.0525  0.3985  0.1806
71004W        W71868  12.463  11.715  20.383  0.1511  0.0356 -0.1553
71005W        W71869  17.750  27.876  12.702 -0.1139  0.3240 -0.2319
71006W        W71870   1.937  22.707   0.617 -0.0386  0.2905  0.0533
71007W        W71871   7.420  16.545  12.322  0.0015  0.1859  0.0447
71008W        W71872  20.850  18.893  21.096  0.0539 -0.0920  0.2048
71009W        W71873  17.135  23.170  28.819 -0.0747  0.1172 -0.1310
71010W        W71874  22.159  16.563   9.593 -0.0981  0.0226  0.1075
71011W        W71875  26.375  24.462  11.285  0.0865 -0.0226  0.3691
71012W        W71876   0.572  24.843  15.157  0.2781 -0.1822 -0.3374
71013W        W71877   9.058  22.429   7.378 -0.0822  0.1259  0.0520
71014W        W71878  12.719   0.624  28.260  0.2255 -0.1160 -0.4787
71015W        W71879   2.025  26.913  12.101  0.1673 -0.0078  0.0047
71016W        W71880   1.292  26.813  12.255 -0.0493 -0.0596 -0.1871
71017W        W71881  18.839  12.422  16.030 -0.3669 -0.0239 -0.1042
71018W        W71882  20.283   8.055  14.973  0.1440  0.1545  0.1497
71019W        W71883  22.407  27.673  28.432 -0.1020  0.2995  0.0585
71020W        W71884  25.494   1.150   4.497 -0.1464  0.1960 -0.1184
71021W        W71885   0.865  17.915  14.570 -0.2212 -0.0773 -0.3363
71022W        W71886  25.887  13.488  21.892 -0.2025  0.0817 -0.1697
71023W        W71887  25.006  14.172  21.172  0.1019 -0.1358 -0.0854
71024W        W71888  24.561  26.880  27.990 -0.1148  0.2912  0.2105
71025W        W71889  26.241  25.811  25.267 -0.2230  0.2552  0.3508
71026W        W71890  12.090  21.301  21.272 -0.1333  0.2852  0.2553
71027W        W71891  19.957  15.508   9.633 -0.3948 -0.1610 -0.1879
71028W        W71892  18.306  21.671   1.343  0.2176 -0.0678  0.1386
71029W        W71893   3.311   4.161  17.014  0.0456 -0.0252 -0.2788
71030W        W71894  11.183  27.162  12.411 -0.0712 -0.1316  0.0075
71031W        W71895  27.855   2.024   0.782 -0.2342 -0.1466  0.0611
71032W        W71896   2.156  20.998  17.662 -0.1575  0.0668  0.0027
71033W        W71897   8.890  17.798  28.428  0.1455  0.0590 -0.3477
71034W        W71898   4.462  18.638   1.259 -0.0868 -0.0208  0.1371
71035W        W71899   1.137  15.571   2.642 -0.1034  0.1046  0.2231
71036W        W71900   1.450  21.916   7.785  0.1108 -0.2396 -0.1326
71037W        W71901  17.375   0.849   6.014  0.2530 -0.0234 -0.1611
71038W        W71902  12.270  15.474  15.867 -0.2155  0.1785 -0.2175
71039W        W71903  19.504   7.063  12.942 -0.2135  0.1626 -0.0212
71040W        W71904  19.154  17.699  17.818  0.4989 -0.3106 -0.0887
71041W        W71905  11.254   2.715   8.590 -0.0932 -0.1981 -0.0671
71042W        W71906  11.167  28.984   1.249  0.0911 -0.2784 -0.1410
71043W        W71907   1.537  12.321  17.694  0.0536 -0.1343 -0.1156
71044W        W71908  20.253  24.254  17.033  0.1756  0.2594  0.0844
71045W        W71909  27.430  15.861  11.361 -0.4756 -0.3394  0.0367
71046W        W71910  28.859   8.972   8.099  0.2673  0.1843 -0.0512
71047W        W71911   1.396  14.323   6.501 -0.1049  0.1400 -0.0460
71048W        W71912  11.603  11.721   4.421 -0.1512  0.3219 -0.0089
71049W        W71913  24.029   1.545   9.935  0.1004  0.0652  0.0253
71050W        W71914   1.443   5.092  24.977 -0.0165  0.2807 -0.5554
71051W        W71915   2.622   6.160  19.920 -0.0756  0.1609  0.4944
71052W        W71916   1.227  18.338  20.402 -0.0769  0.1429  0.0399
71053W        W71917   9.173  13.612   8.737 -0.1226  0.1300  0.1524
71054W        W71918   8.721   8.023  15.659 -0.0259 -0.3450 -0.3283
71055W        W71919   5.093  12.771  23.459 -0.4595 -0.0436 -0.1393
71056W        W71920   0.245  27.450  15.511 -0.1323 -0.1690 -0.2229
71057W        W71921  24.123  17.578  10.362 -0.0097 -0.1024  0.2618
71058W        W71922  27.283   9.203   5.361  0.0067 -0.1202 -0.1219
71059W        W71923  24.490  22.416  23.373  0.0257  0.0029  0.0283
71060W        W71924  23.371  16.014  15.878  0.2912  0.5534  0.4699
71061W        W71925  22.477  14.999   5.195 -0.3377 -0.0001  0.0044
71062W        W71926   0.495  13.822  12.628 -0.2086 -0.3500 -0.3186
71063W        W71927  23.474  13.890  26.971  0.2187  0.1122  0.2842
71064W        W71928   1.127  16.301  20.470 -0.1671  0.2948 -0.0570
71065W        W71929  25.988   0.474   3.440  0.2094  0.2404  0.1899
71066W        W71930  21.593  15.367   4.790  0.0681  0.0936  0.2985
71067W        W71931  13.114  19.377  10.441  0.0035  0.1506  0.1322
71068W        W71932  19.383  17.203  18.605  0.1567 -0.3998 -0.0549
71069W        W71933   7.073  13.978  16.805 -0.2559 -0.0086 -0.2194
71070W        W71934  16.748  22.741  21.387  0.2806 -0.1879 -0.1186
71071W        W71935  14.733   9.260   7.073 -0.0621  0.0283 -0.3323
71072W        W71936   4.524  17.069   7.973 -0.0684  0.0083 -0.0953
71073W        W71937   3.878  16.024  15.138 -0.0315 -0.0660  0.1676
71074W        W71938   9.916  16.487  10.220 -0.0008  0.0380  0.2243
71075W        W71939  22.069   6.676   6.215 -0.0632  0.1145 -0.0567
71076W        W71940  14.778  14.875  12.041  0.1349  0.0755 -0.0218
71077W        W71941  18.179  18.628   7.959 -0.2612  0.2950 -0.0281
71078W        W71942   9.536   7.865   1.466 -0.3384  0.1644  0.0211
71079W        W71943  12.195  21.669  17.379 -0.0127  0.2420 -0.0675
71080W        W71944  11.919  24.170  23.369 -0.0057  0.1003  0.0393
71081W        W71945   1.855  15.670  18.733  0.3024  0.1099 -0.1059
71082W        W71946   0.274   3.614   8.062  0.0741  0.1430 -0.2472
71083W        W71947   2.173   0.573  24.723  0.2134  0.1323  0.3342
71084W        W71948  26.065  28.799  27.680  0.0705  0.2366 -0.4655
71085W        W71949  24.556  13.580   8.868 -0.0266  0.0517  0.3507
71086W        W71950  14.049   9.018  16.653 -0.1766  0.2744  0.1724
71087W        W71951  22.011  25.113  18.737  0.2037 -0.2849 -0.1399
71088W        W71952  11.471  23.171  10.836  0.0192 -0.0607 -0.0155
71089W        W71953  17.823  22.468  23.565 -0.5483 -0.0996  0.3342
71090W        W71954  13.911  16.282  13.589  0.1563 -0.0713  0.2446
71091W        W71955  21.453  10.970  22.622 -0.1911  0.1403 -0.1187
71092W        W71956  23.698   2.803  26.065 -0.3183 -0.0380  0.1796
71093W        W71957  26.388  15.336  22.067  0.1656 -0.1040 -0.1748
71094W        W71958   5.790  26.118   8.651  0.1430 -0.0974 -0.2446
71095W        W71959   5.731  22.756  10.595  0.2085 -0.1206 -0.2254
71096W        W71960  15.125  19.096  10.608  0.1223  0.0478  0.2388
71097W        W71961  22.813   8.540  12.758 -0.1882 -0.0048 -0.0981
71098W        W71962   4.228  20.035   4.476 -0.2077 -0.0065 -0.0944
71099W        W71963  16.672   7.694  17.878  0.0092 -0.0782 -0.2961
71100W        W71964   8.494  16.079  11.914 -0.1016 -0.3015  0.0900
71101W        W71965  26.942  23.381  22.393  0.1949  0.1665 -0.1228
71102W        W71966  13.826  20.655   7.418 -0.0288 -0.1371 -0.2174
71103W        W71967   4.803  16.904  26.901 -0.1662 -0.4720 -0.1684
71104W        W71968  28.986  14.987  20.289  0.2312 -0.0044 -0.1045
71105W        W71969   3.626   6.108   0.746  0.2944 -0.3692  0.2670
71106W        W71970  25.846   2.303  27.671 -0.0244 -0.0206 -0.0485
71107W        W71971  28.287   3.359  26.400 -0.0321 -0.0501 -0.2762
71108W        W71972  28.710   0.424  29.036  0.0678  0.0576  0.1116
71109W        W71973   6.005  10.331  10.329 -0.2392  0.0373 -0.2360
71110W        W71974   3.637  14.863  15.939 -0.3552 -0.2291 -0.1997
71111W        W71975  20.672   3.292  26.111  0.0138 -0.0615 -0.2726
71112W        W71976  18.168  12.734  28.919  0.0302 -0.0035 -0.0007
71113W        W71977  20.388  13.595   6.548  0.1778  0.2838 -0.1733
71114W        W71978  13.959   6.745  10.890 -0.3999 -0.0032  0.2116
71115W        W71979  19.161  16.272  11.934 -0.4438 -0.0882  0.0051
71116W        W71980   2.617  24.591  14.806  0.3188  0.0599  0.3537
71117W        W71981  18.111   4.038  18.818 -0.0148 -0.1491 -0.2119
71118W        W71982  21.081  19.328  26.092  0.1924  0.1073  0.2633
71119W        W71983  24.809  22.422   2.374 -0.4569  0.0135 -0.3352
71120W        W71984  25.114   9.253  10.512  0.0379  0.1780 -0.1537
71121W        W71985  21.238  10.994  21.549  0.0610  0.3594  0.0487
71122W        W71986   1.745   0.462  27.607  0.1168  0.3202 -0.0800
71123W        W71987  19.948   1.565  17.527  0.1753 -0.1143 -0.0882
71124W        W71988  23.688  14.610   9.998  0.1338 -0.1806 -0.1022
71125W        W71989  23.741   9.507  25.275  0.0328  0.1302  0.2798
71126W        W71990   5.773   5.982  14.085 -0.2435 -0.0620 -0.0030
71127W        W71991  15.043  18.248   4.530 -0.0772  0.0664 -0.0281
71128W        W71992   5.176   7.811  24.451 -0.0142 -0.3007  0.0363
71129W        W71993  14.885  22.885  17.774 -0.0906 -0.3619 -0.0292
71130W        W71994  13.209  16.756   5.168  0.4515 -0.1115  0.0665
71131W        W71995  23.910  16.556   1.658  0.3666  0.1468 -0.1650
71132W        W71996   8.170  12.330  28.585 -0.1840 -0.2190 -0.0190
71133W        W71997   2.202   1.369  25.736  0.1832  0.1191 -0.1216
71134W        W71998  17.143  25.067   2.402 -0.2199 -0.0747 -0.3288
71135W        W71999  19.437   5.929  20.285 -0.0259 -0.1715  0.0191
71136W        W72000  21.200  27.217  27.688 -0.3901  0.1792  0.0723
71137W        W72001  27.510  17.288  20.883  0.0206  0.0287  0.5972
71138W        W72002   7.285  26.549   7.662 -0.1331  0.0562 -0.1098
71139W        W72003  24.582  22.363   4.368 -0.1014  0.1210 -0.0553
71140W        W72004  22.283  22.005   6.721  0.1539 -0.0410  0.1333
71141W        W72005   6.668  12.299  21.347  0.2792  0.2898  0.0331
71142W        W72006   6.595   4.952  22.579  0.3143  0.1443  0.2092
71143W        W72007  18.852  13.999   0.870 -0.1451  0.1894  0.1539
71144W        W72008  19.201   0.885  19.666 -0.0337  0.1601 -0.1154
71145W        W72009   7.707  23.717   6.269 -0.0518  0.3190  0.0061
71146W        W72010  22.694  13.418  15.484 -0.1032  0.1140  0.0412
71147W        W72011   0.497  23.499   2.291 -0.2646 -0.0199  0.1071
71148W        W72012  24.568  24.265  19.926 -0.0157 -0.0203 -0.0992
71149W        W72013   1.327  18.177  11.362 -0.0002 -0.1100 -0.2337
71150W        W72014   5.438  14.712   2.019 -0.4500 -0.0146  0.1829
71151W        W72015  21.302   1.378   0.788  0.1568 -0.0446 -0.4254
71152W        W72016  16.306   1.459  20.872  0.4449  0.1029 -0.1324
71153W        W72017  28.992  23.384  13.099  0.0395 -0.1175  0.0453
71154W        W72018  21.715  22.725  22.482  0.1283 -0.3556 -0.0721
71155W        W72019  20.435  11.491   9.844 -0.1792 -0.0443  0.2151
71156W        W72020  21.958   1.376  15.690  0.0768  0.1577 -0.1716
71157W        W72021  24.344   9.587   7.343  0.4192  0.1076 -0.0897
71158W        W72022  27.219  17.928  11.588  0.0481  0.1608  0.1272
71159W        W72023  18.599   5.123   0.450  0.2155 -0.1439  0.3318
71160W        W72024   3.870  15.391   7.602 -0.1776  0.1410  0.1064
71161W        W72025  20.662   9.004  19.671 -0.1013  0.0224  0.1527
71162W        W72026  26.788  13.259   9.083 -0.0136  0.5298  0.0209
71163W        W72027  15.839  14.448   3.814 -0.2290 -0.1239 -0.0963
71164W        W72028   4.112  18.336  10.405  0.0780  0.2548  0.3290
71165W        W72029  16.525  27.185   4.788 -0.0305  0.0085 -0.2989
71166W        W72030  11.027  11.318  10.577  0.1137  0.0222  0.0413
71167W        W72031  27.501  23.167   4.558  0.0746 -0.1098 -0.1098
71168W        W72032  22.543  27.932  18.135  0.0717 -0.2085  0.0598
71169W        W72033  16.349   4.626  13.640  0.0316  0.3138 -0.1143
71170W        W72034  15.450  12.447  10.953  0.2566 -0.0156 -0.1567
71171W        W72035   7.582  24.102  21.950 -0.2469 -0.0931 -0.2100
71172W        W72036  14.792  26.039   7.375  0.2051 -0.3208 -0.2708
71173W        W72037   6.405   5.428   8.976  0.1485  0.0580  0.1838
71174W        W72038   7.182  19.501  18.311  0.0715  0.2146  0.2422
71175W        W72039   0.964   1.126   3.847 -0.0462  0.1937 -0.0857
71176W        W72040   7.302  17.319   5.119  0.2432  0.0724 -0.0084
71177W        W72041  21.425  12.354   9.781 -0.1931  0.1488 -0.1283
71178W        W72042  27.261  20.305  12.608 -0.2279  0.2385 -0.1782
71179W        W72043   1.566   9.506  20.700 -0.2453 -0.1112 -0.1493
71180W        W72044  19.471  27.181   2.905  0.0704  0.3062  0.1518
71181W        W72045   5.815  12.020  13.091  0.0525  0.0551  0.0826
71182W        W72046  18.049   1.656  15.928 -0.1303  0.0543 -0.0061
71183W        W72047  10.167  23.586  10.934 -0.1617  0.2158 -0.1472
71184W        W72048  16.460  25.642  28.299 -0.2089  0.2639 -0.2500
71185W        W72049   2.170  12.958   2.408 -0.1839  0.3940  0.1072
71186W        W72050  11.876   8.105   4.409  0.2310 -0.3615  0.0570
71187W        W72051  22.356   2.110   5.580 -0.0891  0.0012 -0.0952
71188W        W72052   1.436   1.057   6.938 -0.3858 -0.1683  0.0743
71189W        W72053  21.364  25.714   8.507  0.0096  0.1381  0.2099
71190W        W72054  15.530  25.763   7.065  0.0379  0.2384  0.0536
71191W        W72055  10.449  21.214  20.212  0.1967  0.3787 -0.0675
71192W        W72056  24.647  27.224  15.766  0.1412  0.1030 -0.1122
71193W        W72057   8.711   1.827  11.282  0.3279 -0.0472 -0.4526
71194W        W72058  27.498  17.110  19.227 -0.1729  0.2549  0.2527
71195W        W72059  16.362  14.477   1.509  0.3849 -0.1558  0.0554
71196W        W72060   2.175   9.241   4.890 -0.3145  0.1304 -0.0451
71197W        W72061  15.020   0.654   3.304 -0.1018  0.0611  0.4382
71198W        W72062   8.544  28.076  19.251  0.2502  0.2762 -0.0992
71199W        W72063  10.341   4.591  25.469  0.2270  0.1769  0.0539
71200W        W72064  16.336  20.859   9.704  0.3286  0.1009 -0.2227
71201W        W72065  17.487  20.586   8.115  0.1399  0.0194 -0.0667
71202W        W72066  11.870  28.020  16.755 -0.1681 -0.4302  0.2111
71203W        W72067  23.381  23.277   5.581 -0.1151 -0.2441  0.0656
71204W        W72068  20.626  24.649  15.146  0.0973 -0.1018 -0.2333
71205W        W72069  25.934  10.387   5.650 -0.2104 -0.2239 -0.1635
71206W        W72070  24.300  17.230  14.233 -0.0703 -0.2172  0.1048
71207W        W72071  12.111  23.854  18.719  0.3469 -0.0235 -0.0463
71208W        W72072  19.012  28.409  10.588 -0.2087  0.0021 -0.1297
71209W        W72073   3.732  22.577  13.462  0.0940  0.1956 -0.0136
71210W        W72074  19.449  11.180  27.524  0.0704 -0.1761  0.0157
71211W        W72075  18.106  16.067  17.931 -0.0451 -0.0991 -0.0435
71212W        W72076  11.259   4.851  19.892  0.0332 -0.2792  0.1223
71213W        W72077  19.718  20.332  12.204 -0.0825  0.0007 -0.0976
71214W        W72078  18.161  24.520   9.382  0.3513 -0.0318 -0.0455
71215W        W72079  26.267   2.768   5.001  0.0168  0.4497 -0.1123
71216W        W72080  18.439  16.544  10.023 -0.0870  0.1020 -0.2083
71217W        W72081  23.336  14.797  26.218  0.3380  0.2331  0.1401
71218W        W72082  25.998  18.426   5.223  0.0027 -0.0017  0.0906
71219W        W72083  17.336  11.824  15.583 -0.2578 -0.1613 -0.1397
71220W        W72084  20.418   4.063  19.514 -0.0108  0.1934  0.0987
71221W        W72085  19.496  20.108   7.136  0.0012  0.1538  0.1150
71222W        W72086  28.612  24.920  27.842 -0.0963  0.2917  0.4005
71223W        W72087   4.227  24.842   5.297  0.0175  0.0644 -0.0066
71224W        W72088  20.912   7.050   8.851  0.1290  0.1012 -0.1599
71225W        W72089  15.901   4.196   4.120  0.0137  0.3742  0.0547
71226W        W72090  17.588  20.477  12.101 -0.0571 -0.1926  0.0536
71227W        W72091  24.430  12.403  24.677 -0.1716  0.2869 -0.1229
71228W        W72092   1.578  12.548  11.790 -0.0764 -0.2332  0.1266
71229W        W72093  26.739  27.557   6.135 -0.0478  0.2993  0.0910
71230W        W72094  13.303   2.259  12.680  0.0313  0.0493 -0.2116
71231W        W72095   4.489   2.704   8.922 -0.3301 -0.1220  0.2358
71232W        W72096  21.217  19.909  10.800 -0.0604  0.1701 -0.5458
71233W        W72097   6.382  23.376  18.483 -0.3946  0.1006 -0.1202
71234W        W72098  13.797   3.912   7.048  0.1421  0.3254 -0.2313
71235W        W72099  26.563  23.273   3.503 -0.1961  0.1824  0.2600
71236W        W72100  26.614  19.271   6.710 -0.6190  0.1795  0.0211
71237W        W72101  28.043  27.360  20.775  0.0148 -0.1525  0.0738
71238W        W72102  19.629  27.801  11.429 -0.1422  0.2592  0.4682
71239W        W72103  11.281  13.598  20.232  0.0841 -0.0978 -0.0424
71240W        W72104   1.031  27.637  27.904  0.0984 -0.3276  0.0371
71241W        W72105   6.603   3.201  16.891 -0.1359  0.0180 -0.1374
71242W        W72106  17.830   9.088  17.108 -0.0164 -0.1067 -0.2046
71243W        W72107  27.592  14.556  18.610 -0.2665  0.0756  0.2663
71244W        W72108  27.295  22.072  14.983 -0.0093 -0.1826 -0.2053
71245W        W72109  25.463  15.594  19.933 -0.0163 -0.1919  0.1114
71246W        W72110  27.733   3.430  28.865  0.2152 -0.0742  0.1066
71247W        W72111   5.350   5.825  14.396 -0.1250  0.1575  0.1603
71248W        W72112  15.429  18.056  23.462  0.0266 -0.0766  0.2797
71249W        W72113   4.457  14.388  20.691  0.0854  0.1187  0.1034
71250W        W72114   9.239   8.894  14.616 -0.0051 -0.1115  0.0904
71251W        W72115  13.142  17.444  15.278  0.1097  0.0366  0.2468
71252W        W72116  12.471   4.462  18.789  0.0480 -0.1497  0.2215
71253W        W72117   7.319   4.228  18.776 -0.1384 -0.0856  0.0831
71254W        W72118  28.905  23.613  18.138  0.0203 -0.0862 -0.0938
71255W        W72119   4.988   9.496   2.725 -0.2425  0.1238 -0.0174
71256W        W72120  12.351  25.057  23.353  0.0713 -0.0394  0.4921
71257W        W72121  10.276  24.209  14.834  0.4201 -0.0332 -0.1747
71258W        W72122  12.279  19.512  27.439  0.0183  0.1405 -0.1315
71259W        W72123  28.670   5.092  27.564  0.2304  0.4135  0.2231
71260W        W72124   5.081  22.593  20.184  0.0783  0.2646 -0.1015
71261W        W72125   8.576  12.907  18.680 -0.2481 -0.0619  0.3642
71262W        W72126   4.037   7.983   9.053  0.0300  0.0850  0.0886
71263W        W72127   4.322  12.387   7.179 -0.1593 -0.1182  0.2244
71264W        W72128  23.401  27.688  21.152 -0.0559 -0.0714  0.0193
71265W        W72129  19.738   7.752  14.522 -0.1798  0.0132 -0.0633
71266W        W72130   6.923  28.273  13.581 -0.0279  0.1385 -0.0562
71267W        W72131  15.942  27.686   7.948  0.2077  0.0027  0.0987
71268W        W72132  21.234   0.280  16.330 -0.1486 -0.3619 -0.0139
71269W        W72133   9.814  28.408   2.997  0.0731  0.3152  0.1189
71270W        W72134  12.060  19.675  19.789  0.3182 -0.1081  0.0042
71271W        W72135   6.326  27.251  24.959 -0.1676 -0.0488  0.0217
71272W        W72136   5.976  17.706  20.623  0.1125  0.1030 -0.2184
71273W        W72137  24.481  23.576  25.938 -0.0117 -0.6842  0.2103
71274W        W72138   4.753  17.651  18.431  0.2833  0.2356  0.0942
71275W        W72139  13.831  12.878  25.723 -0.1538 -0.0368 -0.1344
71276W        W72140  25.430   7.261  18.089 -0.1969 -0.0960 -0.1500
71277W        W72141   9.023  17.159   2.438  0.0018 -0.1575 -0.4675
71278W        W72142  23.101   2.442   5.086 -0.1415  0.2436  0.0854
71279W        W72143  21.754  19.504   9.352  0.1820 -0.0026  0.2155
71280W        W72144  20.525  14.680  11.425  0.0623 -0.3583  0.0734
71281W        W72145  22.601  16.636  22.562 -0.1767  0.0871  0.1622
71282W        W72146  19.563  18.463  18.002  0.0163  0.0284  0.0022
71283W        W72147  16.830  16.251  28.183 -0.1785 -0.2784  0.1206
71284W        W72148   4.284  14.980  19.997  0.0181  0.0355 -0.1389
71285W        W72149   2.526  20.955  20.277 -0.0378  0.1043  0.0689
71286W        W72150  21.891  28.104   7.296 -0.1288 -0.0445  0.0829
71287W        W72151  21.886   2.334  12.251  0.2921 -0.2911  0.1535
71288W        W72152   9.969  24.602   8.774 -0.0276 -0.2223  0.1702
71289W        W72153   2.300  12.083  26.756 -0.0464 -0.1563  0.0852
71290W        W72154   1.918   9.299  21.677  0.2870 -0.1498  0.3266
71291W        W72155   3.857   2.677   1.817  0.1561 -0.2459  0.2270
71292W        W72156  23.261  11.595  17.286 -0.2234  0.0935  0.3657
71293W        W72157   7.992  23.770  16.676  0.1308  0.4425  0.1506
71294W        W72158  24.644  17.117  21.353  0.0863  0.0277 -0.1862
71295W        W72159   4.028  25.868   0.473 -0.0279  0.0517 -0.1349
71296W        W72160  14.472   4.346  10.668  0.2358 -0.0162 -0.1125
71297W        W72161  17.352  23.386  24.927 -0.0606  0.0583  0.4667
71298W        W72162  22.779  13.684   8.001 -0.2183 -0.0605  0.0932
71299W        W72163   1.164  17.084  27.056  0.3579 -0.3385  0.0720
71300W        W72164  29.019  10.639   9.979 -0.1464  0.1282 -0.0099
71301W        W72165   9.684  14.972  16.227 -0.2883 -0.1289 -0.1562
71302W        W72166  11.820  17.231  15.711  0.2032 -0.1935 -0.2412
71303W        W72167   1.572  21.417  16.452  0.0325  0.0861 -0.1816
71304W        W72168  26.453  16.544  11.484 -0.1723 -0.2122  0.0619
71305W        W72169  27.916  22.044   9.017  0.2045 -0.0728  0.2434
71306W        W72170  23.847  10.269  20.284  0.1241 -0.0535 -0.2725
71307W        W72171  27.561  20.358  13.781  0.3658  0.1241  0.2516
71308W        W72172  27.865  14.876  12.357 -0.0358  0.1017 -0.0896
71309W        W72173  27.769  17.346  16.906  0.1972 -0.2912  0.0910
71310W        W72174  12.266   8.843  10.486 -0.1130 -0.0412 -0.0753
71311W        W72175   4.941   7.853  11.022  0.1710 -0.0343 -0.4460
71312W        W72176   5.594   5.262  17.677  0.1421 -0.1853 -0.3032
71313W        W72177  18.229  21.560  17.629  0.0459  0.0582  0.3277
71314W        W72178   7.638  18.790  11.975  0.2808  0.0667  0.2080
71315W        W72179  20.925  17.510   3.248 -0.0966  0.1142  0.3314
71316W        W72180  17.281  26.283  28.735 -0.1145 -0.0250 -0.1511
71317W        W72181  10.327  26.420  21.252  0.2091 -0.3344  0.0168
71318W        W72182   3.709  17.849  10.367 -0.0170 -0.2363  0.2977
71319W        W72183  17.963   9.184  10.418  0.1953 -0.2012  0.0684
71320W        W72184  24.987  19.812  17.794  0.0209 -0.1793 -0.0000
71321W        W72185  23.274  16.541  15.783  0.0443  0.3397 -0.0504
71322W        W72186  21.887   3.199  24.534 -0.2258  0.3220  0.1137
71323W        W72187   7.379  27.823  25.525 -0.0477 -0.1281  0.5219
71324W        W72188  16.864  27.563  15.580  0.2693 -0.0860  0.0349
71325W        W72189  25.669  24.020  13.224  0.0233  0.0787 -0.0802
71326W        W72190   3.629  23.330  24.663  0.3175  0.0169 -0.2904
71327W        W72191  25.549  17.768   4.785 -0.1685 -0.1365  0.4990
71328W        W72192  20.969   6.380  25.199  0.1987 -0.1011 -0.0766
71329W        W72193  20.598   1.666  10.422 -0.2547 -0.1826  0.2144
71330W        W72194   5.327  21.811  23.531  0.0362  0.2667  0.0507
71331W        W72195  27.367  12.819   3.426 -0.2765  0.0764 -0.3270
71332W        W72196  22.824  27.000  13.595 -0.0383 -0.1294  0.1227
71333W        W72197   3.716  18.385  15.517  0.1534  0.0440 -0.4486
71334W        W72198   0.689  18.285  18.338 -0.1397 -0.0521 -0.0167
71335W        W72199  26.065  10.893  22.619  0.3688 -0.1091 -0.0905
71336W        W72200  29.137  17.062  10.386 -0.0371 -0.0927 -0.1073
71337W        W72201  10.975   7.122  14.570  0.0921  0.2247 -0.2600
71338W        W72202  25.092  24.758   9.316 -0.1539  0.0227 -0.1771
71339W        W72203   5.260  28.273   6.914  0.0851  0.1882  0.1181
71340W        W72204  22.391   4.574  16.239 -0.1697  0.0162  0.0629
71341W        W72205   8.155  13.490   7.579  0.0738  0.3983  0.0429
71342W        W72206  18.972  13.618  26.214  0.0469 -0.0555  0.0698
71343W        W72207  17.270  19.403  19.955  0.0058 -0.0296 -0.0735
71344W        W72208  16.808  11.319  13.498  0.1955  0.1840 -0.4153
71345W        W72209   5.109  24.444   1.940  0.0716  0.1176  0.0058
71346W        W72210  22.143   4.804   1.713  0.0956  0.0901  0.1347
71347W        W72211  24.074  24.688  21.253  0.1520  0.0943  0.1192
71348W        W72212  10.129  20.862  28.242 -0.1023  0.1314 -0.0078
71349W        W72213  10.903  11.942   2.510  0.1480 -0.0774 -0.0818
71350W        W72214  14.672   3.805   7.624 -0.2445  0.4120  0.1862
71351W        W72215  28.254  14.819  19.243  0.1271  0.0270  0.0096
71352W        W72216  19.279  25.826  17.031 -0.1302  0.0044 -0.1275
71353W        W72217  23.830  27.079   1.872  0.0822  0.0864 -0.2048
71354W        W72218   6.006  24.437   8.014 -0.0422 -0.0464  0.1033
71355W        W72219   1.860  21.071  28.618 -0.0697  0.1790 -0.0752
71356W        W72220  25.697  13.445  12.828  0.0337 -0.1089 -0.1434
71357W        W72221  20.667  26.072  14.428  0.1062 -0.0727  0.0357
71358W        W72222   0.322  24.000   2.060 -0.0667  0.1506 -0.1477
71359W        W72223  19.331  21.390   0.610 -0.2412 -0.2025  0.5470
71360W        W72224   3.546  16.569  26.504  0.3198  0.2904  0.1655
71361W        W72225  29.120  23.809   6.815 -0.1364 -0.2497  0.3711
71362W        W72226  11.011   1.930  11.715  0.3644 -0.0519 -0.1068
71363W        W72227  17.093  16.903  24.938 -0.3284 -0.0850  0.1248
71364W        W72228  25.042  24.445  14.354 -0.0210  0.2071 -0.2505
71365W        W72229  24.646  29.135  12.086 -0.2126  0.0801  0.0301
71366W        W72230  23.118  20.994  25.488  0.1134  0.1096  0.0428
71367W        W72231   9.467   2.206   4.039 -0.4128  0.0513  0.3210
71368W        W72232  12.341  19.700  28.681 -0.2568 -0.0023 -0.0189
71369W        W72233  21.134  20.079  13.276 -0.1755 -0.0018  0.0624
71370W        W72234  25.837   5.611  27.608  0.0076  0.0397 -0.3166
71371W        W72235   4.391  13.053  14.434 -0.0460  0.0765  0.1190
71372W        W72236   5.984  21.259  20.119  0.2018 -0.0218  0.1515
71373W        W72237  27.164  15.557  14.215 -0.0516  0.1659 -0.1600
71374W        W72238  20.916  24.324  20.536 -0.2088 -0.1574  0.0949
71375W        W72239  26.393  19.410  10.971 -0.2251  0.2220 -0.2545
71376W        W72240  24.664  18.584  16.939  0.0237  0.4194  0.1063
71377W        W72241  28.651  23.163   1.002  0.0173 -0.0454 -0.4666
71378W        W72242  27.117   5.072  18.573  0.0863 -0.0072  0.2330
71379W        W72243  21.172  27.183  10.518 -0.1343 -0.3387 -0.0241
71380W        W72244   4.763   5.589  13.131 -0.2835  0.1097 -0.4141
71381W        W72245  15.346   5.015  14.001  0.1941 -0.1402 -0.0979
71382W        W72246  18.256  15.596  18.921  0.0877 -0.2722 -0.1312
71383W        W72247   7.772  15.932  24.174 -0.2441  0.0361  0.0766
71384W        W72248   2.058  26.803  15.028  0.3113 -0.1213  0.0641
71385W        W72249  26.951   7.621  15.013  0.0594  0.0233 -0.2995
71386W        W72250  14.777  17.683  20.965  0.0459 -0.1027 -0.2180
71387W        W72251   5.628  23.526   5.381  0.2924 -0.0273 -0.0782
71388W        W72252   0.924  19.593  16.207 -0.0014  0.0755 -0.0738
71389W        W72253  16.940  27.347   0.310  0.0434 -0.2890  0.0073
71390W        W72254  23.532  15.772  16.607 -0.0561 -0.0283  0.1360
71391W        W72255   4.150  21.118  21.129 -0.0223 -0.2122 -0.2320
71392W        W72256   7.521  20.204  12.229 -0.1631 -0.3092  0.1773
71393W        W72257  27.946   0.946  11.330 -0.4068  0.1649  0.3031
71394W        W72258   5.601  26.833  10.243 -0.2830  0.0783  0.0688
71395W        W72259   9.746  11.157  15.308  0.1437  0.2042  0.2262
71396W        W72260  26.782  19.361  16.738  0.0714  0.3135 -0.0352
71397W        W72261   3.208  13.462   9.020 -0.1477  0.1127 -0.3290
71398W        W72262   3.518  16.182  16.206  0.1437 -0.3935 -0.1101
71399W        W72263  24.623  20.637  19.575  0.2385 -0.0696 -0.0571
71400W        W72264   4.455  11.987  19.150  0.2086  0.1480 -0.0550
71401W        W72265  20.155  17.175   0.546 -0.0384 -0.2550 -0.4713
71402W        W72266  11.233   3.798  10.774  0.1442 -0.0867 -0.1259
71403W        W72267  14.037  16.138  29.111  0.1374  0.0017 -0.6013
71404W        W72268  27.033  20.836  11.211 -0.0206  0.1534  0.2060
71405W        W72269  19.493  22.809   8.409 -0.1934  0.0448 -0.0140
71406W        W72270  19.587  13.617  10.504 -0.0835  0.0295  0.1948
71407W        W72271  20.258  15.803  21.872  0.1100 -0.0409 -0.0568
71408W        W72272  18.951   5.850  10.114  0.0540 -0.1189 -0.0386
71409W        W72273  10.062   2.066  14.362  0.1635  0.3642  0.0135
71410W        W72274  11.732  25.438   9.417 -0.0770  0.2291 -0.0710
71411W        W72275  16.655   2.294  17.645  0.1115 -0.1116 -0.1310
71412W        W72276  21.820  23.454  13.786 -0.3600  0.0334 -0.0724
71413W        W72277  20.987  28.943   1.900  0.1748 -0.1923  0.1574
71414W        W72278  22.151  25.953  13.987  0.0520  0.0261 -0.1045
71415W        W72279  13.451  18.477  14.098 -0.0986  0.0202 -0.3646
71416W        W72280  22.515  23.497  20.335  0.1721  0.0737 -0.0647
71417W        W72281  24.535  21.468  19.849  0.1103 -0.1148 -0.2241
71418W        W72282  26.105  20.951  13.210 -0.1752  0.2418 -0.2043
71419W        W72283  26.723  25.078   3.972 -0.0538 -0.2133  0.1577
71420W        W72284  17.839   9.745   6.030  0.1074  0.1160 -0.0957
71421W        W72285  26.779  25.127  11.428  0.0380 -0.0661 -0.3216
71422W        W72286  27.275  27.572   7.806  0.0286  0.0250 -0.0039
71423W        W72287  21.687   7.218   8.207  0.0068 -0.1761 -0.2414
71424W        W72288  20.847   6.913   2.433  0.0719  0.2045 -0.0050
71425W        W72289   5.629  20.413  10.236 -0.1165  0.1758 -0.2303
71426W        W72290   4.199  15.690  25.828 -0.1381 -0.1010  0.0833
71427W        W72291  14.960  24.572  21.419 -0.1305 -0.2279 -0.1587
71428W        W72292  24.662  21.425  13.347  0.2193 -0.1361  0.1750
71429W        W72293  25.998   7.729   2.893  0.0825 -0.2368  0.1769
71430W        W72294  27.065  12.468   8.541  0.0753  0.0299  0.1721
71431W        W72295  24.514  20.330   5.332 -0.1721 -0.1501 -0.3445
71432W        W72296  20.101  22.572  15.807 -0.2942 -0.3938 -0.1539
71433W        W72297  20.759  23.721  21.932  0.0143 -0.0038 -0.1383
71434W        W72298  16.947  27.733   3.586 -0.1151 -0.1635 -0.0626
71435W        W72299  18.406  14.205  16.576  0.3181  0.2686  0.0066
71436W        W72300   7.890   3.185  11.514 -0.2312  0.0823  0.1084
71437W        W72301   1.085  15.447  13.034 -0.1064 -0.1674 -0.2304
71438W        W72302  18.663   5.274  15.174  0.2001  0.1064  0.1450
71439W        W72303  24.515   9.284  17.534  0.1974  0.3829 -0.2807
71440W        W72304   1.546  23.650   4.021  0.0164 -0.0927  0.0995
71441W        W72305  27.573  25.054   1.038 -0.1212  0.0782 -0.2121
71442W        W72306  22.492  17.384   9.764 -0.3459  0.2316 -0.3129
71443W        W72307   9.440   0.792   9.709 -0.0117 -0.0547 -0.0766
71444W        W72308  14.236   4.177   6.010  0.0365 -0.1960  0.0382
71445W        W72309  21.605   3.720   6.772  0.1108  0.3712 -0.1054
71446W        W72310  22.877  27.430   7.883  0.4243 -0.1399 -0.0179
71447W        W72311  23.273  17.306  13.322 -0.3713  0.0316  0.0076
71448W        W72312  12.717  16.753  14.645  0.3272  0.3641 -0.0056
71449W        W72313  28.078  10.131  21.945  0.1297  0.0530 -0.2151
71450W        W72314  18.969  16.382   0.482  0.2171 -0.2082  0.2377
71451W        W72315  22.215  19.912  24.585  0.2003  0.2297 -0.1173
71452W        W72316  10.950  14.475  26.969 -0.3078 -0.0809 -0.3147
71453W        W72317  25.617   6.198  14.251  0.3113 -0.0972  0.2705
71454W        W72318  15.543  12.225  18.083  0.0743  0.1291  0.3121
71455W        W72319  17.815   0.620  23.258 -0.3816 -0.1255 -0.0907
71456W        W72320  16.983  28.350  18.720  0.0636 -0.3561  0.0581
71457W        W72321   7.497  14.898  28.786  0.0817 -0.0004 -0.0989
71458W        W72322  15.389  23.644  21.235 -0.2205 -0.4023  0.0846
71459W        W72323  14.065   1.342  18.870  0.0914  0.0583 -0.0509
71460W        W72324  23.240  19.219   5.624  0.0887  0.2997 -0.0112
71461W        W72325  21.276  18.414  17.533 -0.0763  0.0016 -0.4032
71462W        W72326  19.288   4.877  21.829  0.0295  0.1989  0.1666
71463W        W72327  10.606   2.810  21.570 -0.1205  0.0759 -0.1884
71464W        W72328  18.482   8.801  13.221 -0.3201 -0.0570 -0.0955
71465W        W72329  25.094  20.331   7.576 -0.1798 -0.2833  0.2340
71466W        W72330  23.445  23.543  19.891 -0.2349 -0.1166  0.0664
71467W        W72331   5.553  15.533  16.521  0.0530 -0.2623 -0.1616
71468W        W72332   8.015  20.622  21.639  0.0061 -0.2370 -0.0704
71469W        W72333  22.856   0.012  26.923  0.0689  0.0496  0.1336
71470W        W72334  19.167  24.610  21.906 -0.0685 -0.1283  0.1409
71471W        W72335  26.372  24.066   8.963  0.2345  0.0973 -0.0957
71472W        W72336  20.706  27.446  16.433 -0.2577 -0.0768 -0.1948
71473W        W72337  28.230  24.224   5.286  0.3315 -0.0402  0.1299
71474W        W72338  18.033   8.055  20.328 -0.2401  0.2553 -0.1638
71475W        W72339   1.715   2.845  16.961  0.0005 -0.2625 -0.0925
71476W        W72340   1.274  17.427  23.490  0.3232 -0.1216  0.2015
71477W        W72341   4.824  18.829   5.416 -0.0783 -0.0314 -0.1342
71478W        W72342   2.315  27.491  18.276 -0.1432  0.1114 -0.0653
71479W        W72343   8.998  16.178  13.967  0.1475 -0.0385  0.4470
71480W        W72344  23.260  10.145  25.814 -0.2437 -0.1690 -0.2092
71481W        W72345   7.444  10.061   0.661 -0.3641 -0.0818 -0.0535
71482W        W72346   5.786  28.996   7.867 -0.2555  0.0524 -0.0838
71483W        W72347  26.535   1.240  17.561  0.3463  0.0001  0.4393
71484W        W72348  19.828  26.038  21.324  0.1668 -0.1471 -0.1122
71485W        W72349  20.441  10.645   2.970 -0.0180  0.0670 -0.0739
71486W        W72350   1.861  15.717  20.342  0.1157  0.1309 -0.0126
71487W        W72351  24.134  18.938  20.481  0.2396 -0.0171  0.1491
71488W        W72352  14.476   9.781  10.181 -0.1011  0.2873 -0.0196
71489W        W72353  26.047  13.705  13.169  0.1800  0.2024 -0.3547
71490W        W72354  27.437   0.092   7.521 -0.0160 -0.1779 -0.3375
71491W        W72355   7.205  12.708   2.066 -0.0733  0.2607 -0.3583
71492W        W72356  11.183  17.705  19.339  0.1780  0.0366 -0.0778
71493W        W72357   9.204  13.494   4.494  0.1290 -0.0095  0.0403
71494W        W72358  29.044   5.339  27.297 -0.0615  0.0751  0.0062
71495W        W72359  22.332  26.239  15.634  0.1378 -0.2491 -0.1765
71496W        W72360  12.117   2.670   3.464  0.2081  0.0771  0.0965
71497W        W72361  10.430  21.689  15.766  0.0273 -0.5834 -0.0185
71498W        W72362  16.884  18.516  17.363  0.1440 -0.2751  0.1077
71499W        W72363  28.626  19.026  26.620 -0.1300 -0.1035  0.0091
71500W        W72364   0.109  18.881  18.074  0.1289  0.0636 -0.1548
71501W        W72365  25.228  19.325  14.198  0.0389  0.2991 -0.1890
71502W        W72366   1.223   4.981  28.780  0.4161 -0.0859 -0.2063
71503W        W72367   0.604  26.296   1.472 -0.1200 -0.0498  0.1329
71504W        W72368  23.095  12.301  15.571 -0.2261  0.4519 -0.0581
71505W        W72369  13.164  18.923   5.782  0.0838 -0.0627 -0.0352
71506W        W72370   5.218  15.195   6.226  0.0747 -0.0101  0.4017
71507W        W72371  26.086  16.957  13.503 -0.1155  0.3007 -0.1723
71508W        W72372  17.875  12.309  28.550 -0.1354  0.2094 -0.1248
71509W        W72373  10.453   8.387  13.367 -0.4221 -0.2508  0.0766
71510W        W72374  24.341  19.661   7.839 -0.0215  0.5350  0.0208
71511W        W72375  21.672  22.436   4.561 -0.1536  0.3852  0.0825
71512W        W72376  16.639   5.427  11.379 -0.1316  0.0086  0.2503
71513W        W72377  10.253  11.434   8.412  0.0084 -0.2149 -0.2223
71514W        W72378   2.496   5.159  16.479 -0.0486  0.2200 -0.0832
71515W        W72379  14.134  19.168  20.701  0.0682 -0.1592  0.0812
71516W        W72380  11.819  24.033  25.722 -0.1998 -0.2506  0.0966
71517W        W72381   3.580  24.864  17.581  0.0445 -0.0060  0.0634
71518W        W72382   6.981   2.275  20.470  0.0166 -0.1749  0.4366
71519W        W72383  19.551  28.444   0.444 -0.0506 -0.2716  0.0974
71520W        W72384   8.543  28.145  17.793 -0.1380 -0.1657 -0.1003
71521W        W72385  18.979  12.611  12.540  0.2513 -0.4040  0.0046
71522W        W72386  23.833   0.139  10.199  0.2171 -0.0935 -0.2080
71523W        W72387  28.503  11.926  18.111  0.0231  0.1366 -0.0216
71524W        W72388  19.370  18.446  18.456  0.0653  0.3279  0.0735
71525W        W72389   5.252  19.901  20.772  0.1307  0.0876 -0.2588
71526W        W72390   7.591  13.522   7.730 -0.2461  0.0762 -0.0630
71527W        W72391  26.620  14.506  24.693 -0.2792  0.0817  0.0692
71528W        W72392  27.907  26.004  13.732  0.1738 -0.1537 -0.2430
71529W        W72393  21.470  20.165  15.471 -0.1986  0.0413 -0.2562
71530W        W72394  20.035   4.251  23.985 -0.1976  0.1469 -0.0621
71531W        W72395   9.593  18.000  22.264  0.1749  0.2857 -0.0927
71532W        W72396  18.070  20.522  14.153 -0.0156  0.4215  0.1372
71533W        W72397   5.024  24.117  28.497 -0.2939 -0.1563  0.0191
71534W        W72398  19.137  27.888  13.737 -0.0370 -0.1393  0.2785
71535W        W72399  16.991  20.472  21.949  0.1281 -0.1216  0.1140
71536W        W72400  15.447  11.960   8.583  0.0937  0.0876 -0.1479
71537W        W72401  24.592  15.054   7.230  0.1418  0.1530 -0.0644
71538W        W72402  25.616  10.249  10.643 -0.0217  0.0034  0.1082
71539W        W72403   8.902  28.778  14.743 -0.0309 -0.1971  0.2040
71540W        W72404  27.734  20.078  15.722  0.1377 -0.0126  0.3038
71541W        W72405  28.726  15.341  17.093 -0.1225  0.4012 -0.2778
71542W        W72406   2.906  14.792  16.872  0.2395 -0.0461  0.0496
71543W        W72407  14.158   3.593  16.361  0.3479  0.0058 -0.0125
71544W        W72408  23.236  18.124  16.793 -0.1926 -0.0077  0.1422
71545W        W72409  13.746  10.324  11.356 -0.0457  0.0568 -0.0229
71546W        W72410  27.030  11.442  17.318  0.0545 -0.1529  0.0796
71547W        W72411   6.116   2.653   4.685 -0.1976 -0.2122 -0.0284
71548W        W72412   7.371  10.861   1.604 -0.0872  0.2311 -0.0030
71549W        W72413  12.573  13.727  20.205 -0.2999 -0.0835 -0.3187
71550W        W72414  18.133  15.887  24.694 -0.0836 -0.0185  0.0297
71551W        W72415  19.402  24.428   5.539 -0.2785  0.1927 -0.0376
71552W        W72416   7.627  26.706  10.387  0.1808  0.1817  0.1255
71553W        W72417  24.030  12.791  10.301 -0.0441  0.1857  0.1691
71554W        W72418  10.254  18.425  15.770 -0.2103 -0.0134  0.0750
71555W        W72419  21.183  23.650  18.027 -0.0441  0.0750  0.1609
71556W        W72420   7.881  11.285  21.474  0.2875 -0.0704  0.2574
71557W        W72421   3.598  14.781   0.601 -0.0368 -0.0855  0.0390
71558W        W72422  26.773  23.917   9.249  0.2175  0.0197 -0.3126
71559W        W72423  11.718  19.967  13.518  0.1415  0.3878  0.2501
71560W        W72424  23.760  27.189  25.210 -0.1114 -0.0618 -0.0071
71561W        W72425  15.886  22.452  12.038  0.2762  0.1558 -0.0638
71562W        W72426  12.805  21.476  21.603  0.1970  0.0513  0.1013
71563W        W72427   4.194  13.263   7.741 -0.0978 -0.0919  0.1499
71564W        W72428  25.392   1.975   7.256 -0.0740  0.3079  0.2594
71565W        W72429  26.778  23.692  19.671 -0.0570  0.2867 -0.4450
71566W        W72430  13.167   8.896   7.104 -0.1337 -0.2006  0.0432
71567W        W72431  25.621  25.770  19.511  0.0049 -0.0940  0.2446
71568W        W72432   2.569  17.194   7.920  0.0675  0.3734  0.1903
71569W        W72433   0.538  23.219  25.936 -0.0530  0.0651  0.0328
71570W        W72434  28.251  19.752   2.605 -0.4047 -0.0515  0.0415
71571W        W72435  24.281  24.739  18.807 -0.1923  0.0890  0.0020
71572W        W72436   8.045  20.622   9.323  0.1587  0.3195 -0.1604
71573W        W72437  21.315  20.200   7.994  0.0534 -0.2334 -0.2445
71574W        W72438  22.229  19.946   0.661 -0.1698 -0.1038 -0.0497
71575W        W72439  22.779   9.450  23.560  0.1680  0.1260 -0.0346
71576W        W72440  19.497  23.858  16.503 -0.1184 -0.1748 -0.1282
71577W        W72441  19.619  19.919  21.958  0.0644 -0.1445 -0.2438
71578W        W72442  24.773  18.361  13.285 -0.0062 -0.0267  0.0174
71579W        W72443  14.003   1.111   6.778 -0.1677 -0.0872  0.0526
71580W        W72444   0.542  26.798  26.116  0.1922  0.1730 -0.2468
71581W        W72445   4.565  16.153  17.403 -0.4476  0.2128 -0.2196
71582W        W72446  22.884  15.198  13.212 -0.0231  0.0865  0.0809
71583W        W72447  19.778  13.247  11.691 -0.3012 -0.0402 -0.1788
71584W        W72448  26.903  19.241  12.614  0.2638 -0.3532 -0.1480
71585W        W72449  18.362  16.281  25.787 -0.3458  0.0732  0.0365
71586W        W72450  10.261  19.609  14.408  0.0133  0.0870 -0.0714
71587W        W72451  27.362   2.668  10.523  0.3141  0.1391  0.1261
71588W        W72452  24.871  24.098  23.000 -0.4827  0.1209 -0.0905
71589W        W72453  27.181   9.465  26.960 -0.0769  0.0038 -0.3947
71590W        W72454   8.085  20.142  26.660 -0.0239  0.3133 -0.1553
71591W        W72455  25.412  21.737   2.688  0.3337 -0.2114 -0.3621
71592W        W72456  27.414  26.065  14.225 -0.1760 -0.0267 -0.0913
71593W        W72457   0.073  17.676  26.819  0.0997 -0.1595 -0.0590
71594W        W72458  17.486   7.825  13.113  0.1363  0.0519  0.0701
71595W        W72459  16.818   6.463   8.606 -0.2504 -0.0012  0.2297
71596W        W72460  27.591  21.997  21.424  0.2037  0.2446 -0.0816
71597W        W72461   8.613   0.819  26.596  0.0101 -0.0937  0.2053
71598W        W72462  23.479  15.978   2.012  0.1819  0.1007  0.0111
71599W        W72463  26.933  22.380   0.343 -0.1128 -0.0909  0.1928
71600W        W72464  25.093   4.610  21.985 -0.1719 -0.3756 -0.0134
71601W        W72465  18.786   9.845   2.080 -0.3383 -0.1227 -0.3866
71602W        W72466   4.573  22.958  19.248  0.0267  0.0424  0.2038
71603W        W72467  14.175  29.030   0.436 -0.0805 -0.0875 -0.0150
71604W        W72468  24.565  13.272  24.901 -0.3324  0.0259  0.0912
71605W        W72469   8.896   4.318   1.774 -0.0031 -0.1295  0.1850
71606W        W72470   2.676  20.470   8.414  0.0240  0.2204  0.2301
71607W        W72471   8.660   1.230  16.929  0.0884  0.1316  0.0569
71608W        W72472  20.073  22.540  28.568  0.1152  0.2971 -0.0528
71609W        W72473  24.499  24.486  14.296  0.2081 -0.1650  0.0573
71610W        W72474   4.533  28.125  26.758 -0.3351 -0.0532  0.1356
71611W        W72475  25.122  17.392  14.697  0.2860  0.0820  0.1647
71612W        W72476  16.005   5.381  20.679 -0.0159 -0.0784  0.2053
71613W        W72477  28.262   8.638  12.265  0.0400  0.2094 -0.1405
71614W        W72478   3.161  24.709   7.068  0.1595 -0.0660  0.2696
71615W        W72479  17.739  20.815   0.811 -0.1901  0.4198 -0.1767
71616W        W72480   1.962  27.194   4.861 -0.0220 -0.1846  0.1357
71617W        W72481  18.002   4.646  16.801 -0.4608  0.0402  0.0984
71618W        W72482  26.544   8.734   9.087  0.1658 -0.0319  0.0608
71619W        W72483  11.876  19.133  19.867 -0.0488  0.0102 -0.1618
71620W        W72484  27.226  15.803  22.352  0.3787 -0.2714  0.0620
71621W        W72485   2.408  22.536   7.112 -0.1617  0.0998  0.1110
71622W        W72486  22.761  20.116  12.843  0.0096 -0.2180  0.1114
71623W        W72487  24.562  14.332  22.738  0.0508 -0.1501 -0.1787
71624W        W72488  10.682   1.701  14.791 -0.3370 -0.0932 -0.1252
71625W        W72489   4.047  18.334  12.507 -0.1127 -0.1008  0.2514
71626W        W72490  10.598  19.274  24.388  0.0530 -0.2061 -0.1742
71627W        W72491  28.675  23.406  15.080 -0.0208 -0.0073  0.0328
71628W        W72492  16.887  24.839   4.806  0.2361  0.0235  0.0576
71629W        W72493  19.804  12.973   9.759 -0.3127 -0.0434 -0.4181
71630W        W72494  26.684  10.561  10.476 -0.1206  0.0452 -0.0390
71631W        W72495   0.917   2.296  12.701  0.2354  0.0220 -0.0335
71632W        W72496  26.893  17.111  27.642  0.0400  0.1704 -0.1475
71633W        W72497   5.941  10.657  27.165  0.2172 -0.1939  0.2640
71634W        W72498  24.829  20.348  15.851  0.3862  0.2021  0.0661
71635W        W72499   2.171  29.016  10.911 -0.3019 -0.0586  0.1945
71636W        W72500   6.574  25.743   9.187  0.2882  0.5254  0.0482
71637W        W72501  19.037   9.517  17.803 -0.2042 -0.2689  0.3208
71638W        W72502  23.934  12.933  10.799 -0.6383 -0.0687  0.1480
71639W        W72503  18.699   1.303   8.922 -0.0591 -0.1568 -0.3408
71640W        W72504  19.280  22.636  22.658  0.0852 -0.1799 -0.0277
71641W        W72505  28.709  27.463  13.282  0.0118 -0.0623  0.0478
71642W        W72506  26.673  17.500   8.860 -0.1113 -0.1716 -0.2944
71643W        W72507   4.828   4.782  25.593 -0.1278 -0.0120  0.1176
71644W        W72508   7.301  21.604   6.931  0.1528 -0.0456 -0.0139
71645W        W72509  11.517  26.388   3.121 -0.1170  0.0551  0.3323
71646W        W72510   7.857   8.089   0.122 -0.0374 -0.0263  0.1428
71647W        W72511  23.451  27.891  14.025  0.1643 -0.0480  0.1415
71648W        W72512  11.267  19.220  22.365  0.0654 -0.1067 -0.0662
71649W        W72513   7.776  21.038  21.278 -0.0370  0.0389  0.1147
71650W        W72514  28.280  13.473  24.421 -0.0334 -0.0900  0.1553
71651W        W72515  16.282   6.995  20.581  0.1607 -0.2485  0.0281
71652W        W72516  23.174   0.821  16.252  0.1921 -0.0651  0.3893
71653W        W72517   4.768  24.356  17.571 -0.3405 -0.1011  0.1038
71654W        W72518  28.182  16.518  21.301  0.0196 -0.3324  0.0536
71655W        W72519  16.777  18.113   6.674  0.0675  0.1961 -0.0263
71656W        W72520   1.938   5.581   8.589  0.0773 -0.1802  0.0748
71657W        W72521  15.471  19.207  20.114  0.1426 -0.3372  0.4993
71658W        W72522  27.216  28.342  23.535  0.1992  0.0348  0.3116
71659W        W72523  22.770  13.786   5.847  0.0431  0.0287  0.0501
71660W        W72524  17.422  28.247  24.312  0.1012  0.1746 -0.0077
71661W        W72525  13.460  14.161  20.319 -0.1076 -0.1306  0.0416
71662W        W72526   1.844  16.212   0.046 -0.4443 -0.0963 -0.1056
71663W        W72527  17.264   5.201  15.288  0.1261 -0.2430 -0.0209
71664W        W72528   4.160   9.461  20.870 -0.2147 -0.1909 -0.0420
71665W        W72529  19.885   4.141  20.772  0.0082  0.0196 -0.0338
71666W        W72530  19.294  27.682  25.429 -0.0688  0.1685  0.4061
71667W        W72531   1.195  20.764  18.212  0.1905 -0.1467  0.1902
71668W        W72532  24.099  16.541   7.306 -0.0833 -0.1281  0.1720
71669W        W72533   7.669  23.291   0.483 -0.1439 -0.3039 -0.0072
71670W        W72534  16.809  13.182  27.755  0.3507 -0.2544 -0.3407
71671W        W72535  16.680   3.923  28.003 -0.2038  0.2601 -0.0840
71672W        W72536  16.977  24.387  16.894 -0.1103 -0.0317 -0.0991
71673W        W72537   3.483  11.436  18.789  0.0380 -0.1265 -0.2769
71674W        W72538  25.508  10.647  21.896 -0.1498  0.3470 -0.0808
71675W        W72539  17.101  28.968   0.253 -0.1377 -0.0142  0.0835
71676W        W72540  16.577  22.755   3.881  0.1301  0.0958  0.1035
71677W        W72541  29.010  26.176   0.950 -0.1997 -0.1095  0.0117
71678W        W72542  24.582  28.700  24.027 -0.1014  0.1923 -0.0088
71679W        W72543   9.154   5.118  23.057  0.0275  0.1383 -0.1756
71680W        W72544   7.773  21.757   3.751 -0.1307 -0.1576  0.2591
71681W        W72545   2.181  23.512  22.648 -0.4025 -0.0688 -0.2936
71682W        W72546  26.153  25.837  23.201  0.2848  0.0323  0.1970
71683W        W72547  21.866   2.141  19.729 -0.0968  0.1263 -0.2812
71684W        W72548   9.627  13.760  21.466  0.2808  0.2356 -0.2970
71685W        W72549  20.860  25.069   1.637 -0.1162 -0.0769 -0.1424
71686W        W72550   8.776  19.725  28.863 -0.0467  0.0262  0.0575
71687W        W72551  12.716  27.239  27.318 -0.0005 -0.0580  0.0894
71688W        W72552  28.969  15.805   7.949  0.2732  0.4013 -0.3866
71689W        W72553   6.054  19.788  19.661 -0.1273  0.1846  0.1192
71690W        W72554  21.068  24.899  23.637  0.2789 -0.0364  0.2437
71691W        W72555   1.885  20.879   5.895 -0.1611 -0.1750  0.0111
71692W        W72556  16.417   5.495  28.061 -0.2351  0.2021 -0.0345
71693W        W72557  26.953  19.882  19.437  0.3955  0.2592 -0.3856
71694W        W72558  21.620   6.937   1.105 -0.2014 -0.3897 -0.1102
71695W        W72559  10.642  25.401  22.368 -0.1607 -0.0062 -0.2562
71696W        W72560  19.678  12.410   8.115 -0.1248  0.0264  0.3818
71697W        W72561  17.005  13.637   3.225 -0.0226  0.3236 -0.5003
71698W        W72562  20.170  21.529   0.156 -0.0509 -0.0521  0.0478
71699W        W72563  20.203  10.059  21.855 -0.4133 -0.2393  0.0410
71700W        W72564  17.772   8.172   3.905 -0.0118 -0.0473  0.1455
71701W        W72565  22.608   7.338  16.732  0.2893  0.1984 -0.0090
71702W        W72566  25.488  16.256  16.061 -0.0575  0.1410 -0.0778
71703W        W72567   4.504   0.552  16.435  0.0266 -0.0175 -0.2335
71704W        W72568   0.905  10.976  11.775 -0.0560  0.0205  0.0232
71705W        W72569  14.764  15.446  16.285 -0.1681 -0.0089  0.3847
71706W        W72570  11.043   8.476  10.217 -0.3002  0.6065  0.2357
71707W        W72571  27.642  20.146  23.797  0.0545 -0.0256  0.1126
71708W        W72572   4.907  13.132   3.567 -0.3636 -0.0058  0.1353
71709W        W72573  10.654  27.530  18.539  0.1777  0.0792  0.0260
71710W        W72574   7.729  23.980  13.896  0.0896  0.1408  0.0429
71711W        W72575  12.959   2.633  27.044  0.3504 -0.2054 -0.0259
71712W        W72576  21.406  25.885  22.726  0.1689  0.4191  0.3792
71713W        W72577  14.326  22.365  25.391 -0.0148 -0.0142  0.0264
71714W        W72578  10.733  19.860  25.591 -0.0540  0.0940  0.2645
71715W        W72579  10.530  25.272  12.816 -0.0577 -0.0624 -0.0834
71716W        W72580   7.286  26.242  12.556  0.2130 -0.0681  0.0594
71717W        W72581   3.540   9.666  22.780 -0.0201  0.0700 -0.3474
71718W        W72582  12.998   2.465  26.300  0.0721  0.1755  0.4440
71719W        W72583   3.242  22.620   8.449  0.0692 -0.2807 -0.2252
71720W        W72584  13.149  25.404   1.878  0.1764  0.0338 -0.1797
71721W        W72585   1.515   1.182  16.441  0.1329  0.1012  0.2003
71722W        W72586  15.363  21.777  21.267  0.1942  0.3037  0.0345
71723W        W72587  18.246   6.149   0.659 -0.1238  0.1333  0.2634
71724W        W72588   9.082   7.592  17.704  0.1368 -0.1491  0.0379
71725W        W72589  22.253  12.359  27.024 -0.1113  0.1507 -0.1710
71726W        W72590  13.922  22.324  22.002  0.0758  0.0439  0.0038
71727W        W72591  24.657   1.663  19.560  0.0902 -0.2495  0.1613
71728W        W72592  20.260  19.868  27.998  0.0960  0.3948  0.0993
71729W        W72593   5.334  27.248  17.949 -0.1911  0.0077 -0.1071
71730W        W72594  26.882   9.041   5.103 -0.1711  0.1968  0.0633
71731W        W72595  16.467  16.290  20.473 -0.4211  0.0432  0.5088
71732W        W72596   3.851  17.986   4.784  0.1335  0.1064  0.1739
71733W        W72597  24.097   6.542  21.615 -0.1295  0.1446  0.0447
71734W        W72598  10.541   3.907  24.093 -0.1968  0.2892 -0.5306
71735W        W72599  12.790  23.434  21.762 -0.0199  0.2260  0.0452
71736W        W72600  23.430   5.622  24.068 -0.2914  0.0795  0.1870
71737W        W72601  20.323  21.532  20.288  0.1891 -0.0008 -0.0007
71738W        W72602  22.516  26.993  25.951  0.1899 -0.1827 -0.1905
71739W        W72603   6.615   1.139   1.647  0.1903  0.4500 -0.0848
71740W        W72604   7.436   3.042  27.611 -0.2558  0.2744 -0.1195
71741W        W72605  15.746  18.434  20.062 -0.1180 -0.3719  0.1098
71742W        W72606   3.206  11.280  11.083 -0.1833 -0.0503 -0.2112
71743W        W72607  24.772   9.423  11.074  0.3149 -0.2108  0.1231
71744W        W72608  10.262  16.609   9.817  0.0431 -0.2148  0.1185
71745W        W72609  25.821  18.557  25.491 -0.0379  0.2604  0.3657
71746W        W72610  16.722  15.632  24.706  0.0976  0.1943 -0.0657
71747W        W72611   7.481   7.966  21.163  0.0164  0.2750 -0.0772
71748W        W72612   2.453  20.608  21.062  0.0320 -0.0495 -0.0384
71749W        W72613  28.886  14.995   1.117 -0.0226  0.2003 -0.0900
71750W        W72614   5.200  18.111  19.095 -0.1751 -0.0795  0.0986
71751W        W72615  23.110   5.792  15.784 -0.1236  0.1385  0.1262
71752W        W72616  10.555  16.499  11.745  0.0413 -0.1122  0.0225
71753W        W72617  26.649  11.129  18.163  0.1553  0.0790 -0.2268
71754W        W72618  15.866   9.226  23.870 -0.1569  0.0600 -0.3520
71755W        W72619   0.689  14.588  14.805 -0.0900 -0.2889 -0.0121
71756W        W72620   3.893  24.054  19.457 -0.1007 -0.0512 -0.3276
71757W        W72621  16.229  18.157  27.994 -0.2210 -0.3664  0.3063
71758W        W72622   2.341  13.021  22.670  0.0072  0.1615  0.4783
71759W        W72623  17.812   6.130  29.110 -0.5095 -0.0944  0.0693
71760W        W72624  25.080  23.962   2.878 -0.1048 -0.0348 -0.1705
71761W        W72625  23.181  21.012  12.601  0.3261  0.4507  0.3033
71762W        W72626  20.908  27.732  11.232  0.0315 -0.2140  0.0182
71763W        W72627  12.982   8.007  29.054  0.0405 -0.4219 -0.0477
71764W        W72628   3.171  14.335   8.574 -0.1186  0.1239 -0.0540
71765W        W72629   2.794  13.811   3.840 -0.1510 -0.4718 -0.3360
71766W        W72630  28.692  17.004  18.791  0.0658  0.0488  0.0052
71767W        W72631  24.272  21.085  18.049  0.0749  0.2757 -0.2167
71768W        W72632   0.196  20.351  24.363  0.4111 -0.2468  0.3257
71769W        W72633  27.410  19.829  17.881  0.2067 -0.2476 -0.2612
71770W        W72634  20.663   0.345   3.472 -0.3733  0.0601 -0.4193
71771W        W72635   4.947   1.322  16.972 -0.2064 -0.1329 -0.0785
71772W        W72636  10.697  13.763  19.782 -0.1975  0.0677 -0.0023
71773W        W72637  17.945  22.549  24.416 -0.1487  0.0167  0.2886
71774W        W72638  28.066  19.233  18.398  0.0914  0.0515  0.5149
71775W        W72639  24.042  18.223  27.963 -0.3070  0.2772  0.0438
71776W        W72640  12.884  23.995   7.982 -0.1150 -0.1977 -0.0461
71777W        W72641   9.462  21.855  26.756 -0.3878  0.0829  0.2805
71778W        W72642   8.618   4.847   5.684 -0.2222  0.0516 -0.2233
71779W        W72643  14.125   0.146  24.432  0.0248  0.2088 -0.0256
71780W        W72644  19.389  21.238   6.149 -0.1634  0.0200 -0.1665
71781W        W72645  28.334   6.842  28.696 -0.0947  0.2014 -0.2637
71782W        W72646   5.174   8.213   5.201 -0.0568 -0.1438 -0.2298
71783W        W72647   0.239  13.616  23.737 -0.0155 -0.1530 -0.0985
71784W        W72648   4.073  26.347  24.760  0.0737  0.0850  0.0903
71785W        W72649  28.545  10.145  14.654 -0.1146 -0.0307  0.3171
71786W        W72650  12.240  12.586  21.903  0.0900  0.2599 -0.0744
71787W        W72651   0.659  26.038  11.904 -0.2685 -0.0461 -0.1080
71788W        W72652  20.974   4.417  10.341  0.2504  0.1420 -0.0334
71789W        W72653  14.193  17.420  15.340  0.0634  0.0939  0.0498
71790W        W72654   9.482   1.680  27.015  0.0481 -0.0669 -0.0780
71791W        W72655  28.427  17.865  19.302  0.0095  0.1810  0.0601
71792W        W72656  16.038   4.939  16.192  0.0779 -0.0020 -0.0238
71793W        W72657  20.570  18.591   2.930  0.0580 -0.5976 -0.2973
71794W        W72658  26.163  12.770   6.894  0.1873 -0.1334 -0.0439
71795W        W72659  17.179  14.226  24.287 -0.0888  0.0124 -0.0136
71796W        W72660  27.931  24.400   0.393 -0.1492 -0.0111  0.3047
71797W        W72661  12.263  27.383  24.062  0.3590 -0.0786 -0.1251
71798W        W72662   5.443  19.456   7.341  0.0985 -0.1751 -0.0416
71799W        W72663   0.520  10.025  16.197 -0.0883  0.1268 -0.3897
71800W        W72664  28.731   1.733   0.974  0.1344  0.1904 -0.1963
71801W        W72665  15.182  17.311  21.418 -0.1221 -0.0668  0.2177
71802W        W72666  20.443  27.652  11.952 -0.3343  0.0955  0.1107
71803W        W72667  27.478  24.762  26.256 -0.1636  0.2103  0.1605
71804W        W72668  22.813  20.003  26.478 -0.1607  0.0659 -0.0216
71805W        W72669  12.652  11.197  27.602  0.0412  0.0423  0.1511
71806W        W72670  23.819   9.935  17.605 -0.0819  0.0551  0.2213
71807W        W72671  27.560   6.736  27.507  0.1102  0.0797 -0.3665
71808W        W72672   1.125   7.847  14.767 -0.1791 -0.0898 -0.0349
71809W        W72673  22.334  22.694   9.113 -0.1916 -0.3336  0.3969
71810W        W72674  27.854   8.919  17.115  0.2615  0.0684 -0.0324
71811W        W72675  25.882  18.642  18.533 -0.0337 -0.0645 -0.1466
71812W        W72676  18.553  19.626   2.314 -0.3330  0.0063 -0.0929
71813W        W72677  21.773  24.244  20.427 -0.1401 -0.2125 -0.0125
71814W        W72678  24.039  18.607  26.231  0.0768 -0.2693  0.0626
71815W        W72679  24.312   6.291   8.632  0.2424  0.3319 -0.1489
71816W        W72680  28.483  15.002   7.115  0.0384  0.2570  0.0136
71817W        W72681  24.637  15.684  27.024  0.0102  0.0960 -0.0278
71818W        W72682  13.378  14.393   9.799 -0.1724  0.3987 -0.0318
71819W        W72683  16.255  20.564  26.305 -0.1892 -0.2305  0.5007
71820W        W72684   8.959  27.067   3.797  0.1478  0.3185  0.1329
71821W        W72685  29.080  23.662  16.243 -0.0841  0.0370 -0.1737
71822W        W72686  25.989  24.336  18.347 -0.1102  0.0398 -0.3076
71823W        W72687  27.835  21.657  14.550  0.0259 -0.0824 -0.1768
71824W        W72688   9.856  21.774   3.979 -0.2022  0.1443 -0.3484
71825W        W72689  12.234  15.140   0.307  0.1165 -0.0389 -0.0958
71826W        W72690  25.702  17.482  25.510 -0.1619 -0.0658  0.3630
71827W        W72691  14.759  15.402  25.191 -0.0473  0.0457 -0.2731
71828W        W72692  14.457  22.248   4.745  0.3096 -0.0186  0.3838
71829W        W72693  26.780   2.672  24.481 -0.0741  0.1567 -0.2073
71830W        W72694  19.856  29.025  27.429  0.1028  0.1992  0.0985
71831W        W72695   9.823  20.590  19.876 -0.0211 -0.1088 -0.0481
71832W        W72696  28.163  16.140  28.653  0.1227 -0.0133  0.0555
71833W        W72697   6.576  24.618  24.435  0.0670 -0.0640 -0.0022
71834W        W72698  25.904  23.919  20.167  0.0535 -0.0768  0.0481
71835W        W72699  11.516  17.870  25.693  0.1859 -0.0348  0.0946
71836W        W72700   3.352  14.865  26.076  0.0967  0.0120 -0.5251
71837W        W72701  25.613   3.847  19.708  0.3205  0.4269  0.0918
71838W        W72702   3.306  16.739  27.402  0.1839  0.1949  0.0514
71839W        W72703  26.443  15.310  11.741 -0.1641  0.0060  0.0129
71840W        W72704   3.392  11.355  13.127 -0.2775 -0.0473  0.1215
71841W        W72705   3.664   9.123  17.311  0.0788  0.0322  0.1763
71842W        W72706   7.335   0.019   8.705  0.2973 -0.0681 -0.2239
71843W        W72707  19.118  18.329  24.676 -0.2350  0.1995 -0.2703
71844W        W72708  12.030  16.560  28.093  0.0993  0.0121 -0.0960
71845W        W72709   4.040  14.464  14.667  0.1707  0.3643  0.0624
71846W        W72710  13.122   7.564   0.272 -0.1048  0.2137 -0.1674
71847W        W72711  19.046   0.623  16.113 -0.7284  0.0067  0.1915
71848W        W72712  28.551  16.120  11.922 -0.2922  0.0006  0.1512
71849W        W72713  15.837  13.226   9.295 -0.0791  0.0846 -0.3312
71850W        W72714   1.484  15.935  11.346  0.0422  0.0290  0.0480
71851W        W72715   3.289  22.518  16.998  0.0217  0.1098 -0.0289
71852W        W72716  26.683  10.085  19.372 -0.2255  0.1711 -0.1941
71853W        W72717  15.983  26.492  26.087  0.1935 -0.0663  0.0092
71854W        W72718   4.023  28.627  17.215 -0.0678 -0.1213  0.0391
71855W        W72719  15.607  23.800  15.616  0.1420  0.0631  0.2250
71856W        W72720  18.655  26.993  10.021  0.0122 -0.0503 -0.0941
71857W        W72721  20.527  11.665  25.829  0.0459 -0.1501  0.0183
71858W        W72722  24.281  23.412  24.484 -0.0387  0.2885 -0.2231
71859W        W72723   7.289  15.839  14.267 -0.0136 -0.0831 -0.1763
71860W        W72724   5.896  14.257   9.377  0.1139 -0.1762  0.2181
71861W        W72725   7.587  28.654   3.731  0.0316 -0.0082  0.1278
71862W        W72726  22.506  17.922  12.587  0.0095  0.3819  0.0583
71863W        W72727  16.853  14.842  11.719 -0.1002  0.0474  0.0288
71864W        W72728  28.235  10.307  22.758 -0.0924 -0.2944 -0.0276
71865W        W72729   7.974  10.371  28.250  0.2382 -0.3185 -0.2487
71866W        W72730  19.951   0.987  10.168 -0.1020 -0.0978  0.3472
71867W        W72731  17.166  22.533   2.888 -0.1156 -0.5341 -0.3671
71868W        W72732  18.774  21.319  24.358 -0.3098 -0.1833 -0.1535
71869W        W72733  10.831  24.327  26.714  0.3313  0.0304  0.0288
71870W        W72734   1.089  25.283  20.008  0.6106 -0.0297  0.2550
71871W        W72735  12.848  22.798  22.739 -0.1460  0.2344  0.0948
71872W        W72736  25.230  13.246  11.237 -0.0188 -0.0908  0.1268
71873W        W72737  19.014  25.019  13.463 -0.0955 -0.0830  0.3135
71874W        W72738  17.896  28.225  17.488  0.1750 -0.1820  0.0374
71875W        W72739  14.861  14.561  11.018  0.2710 -0.0433 -0.2317
71876W        W72740  23.829  13.390  14.584  0.1769  0.0362  0.0944
71877W        W72741   4.842   0.907  21.367  0.1335 -0.0484  0.0541
71878W        W72742  16.751  27.922   3.960 -0.0180 -0.1892 -0.0781
71879W        W72743  24.352  11.439  18.671 -0.0489 -0.1058 -0.3784
71880W        W72744  22.662  27.388  23.890 -0.0304 -0.1381  0.0299
71881W        W72745  14.630   3.132  22.959  0.2403 -0.0911  0.3968
71882W        W72746   2.356  17.982   9.955 -0.1988  0.1375  0.2017
71883W        W72747   2.311  19.248  15.831  0.1016 -0.0913 -0.1274
71884W        W72748   1.031  20.675  22.778 -0.0993  0.1021 -0.2993
71885W        W72749  20.652  27.099   6.991 -0.1301  0.1200 -0.1784
71886W        W72750   8.201  28.352  15.797  0.0365 -0.1441  0.0129
71887W        W72751  17.450   5.794  10.886  0.4025 -0.0852  0.0006
71888W        W72752  19.347   4.317   3.312  0.1133 -0.0672  0.2190
71889W        W72753   6.670   5.969   7.459 -0.0548 -0.1492  0.1998
71890W        W72754  20.675   4.882  18.135 -0.0451 -0.0761  0.2121
71891W        W72755  24.786  15.802  13.306  0.1910  0.0299 -0.0642
71892W        W72756   4.190  18.734   0.177 -0.5043  0.0645  0.2986
71893W        W72757   3.141  28.080   2.740  0.1151 -0.3389  0.0629
71894W        W72758  14.902  11.653   2.201  0.0043 -0.1338 -0.1390
71895W        W72759  10.546  28.757   6.819  0.1257 -0.0369 -0.2033
71896W        W72760  27.282   2.417   6.565 -0.0297  0.0132  0.1189
71897W        W72761  26.103   2.700  21.952 -0.0459 -0.0298 -0.0706
71898W        W72762   0.823  24.719  23.940 -0.1804 -0.0847  0.0648
71899W        W72763   8.146  27.840  19.502  0.1412  0.1237 -0.1335
71900W        W72764  28.909  13.851  21.077  0.2736 -0.0273  0.0282
71901W        W72765  15.017   7.900  19.900 -0.1581 -0.1989 -0.1471
71902W        W72766  20.890   8.922   0.734  0.0274  0.2056  0.1508
71903W        W72767  20.121  25.251   0.617 -0.1257 -0.0311 -0.0862
71904W        W72768  21.773  18.079  25.628  0.0354 -0.1788 -0.3452
71905W        W72769  16.833  18.170   7.180 -0.0602  0.2096  0.1007
71906W        W72770   8.087   8.245  22.008  0.0384 -0.1652 -0.1257
71907W        W72771  25.095   3.903  16.803  0.2972  0.2531 -0.1200
71908W        W72772  25.007  27.033  19.994  0.1673 -0.0971 -0.0441
71909W        W72773  15.719   4.411  14.542  0.1810  0.0442  0.3240
71910W        W72774  26.707  23.645   3.967  0.1908  0.0705 -0.0283
71911W        W72775  19.393  24.982  17.019  0.0006  0.2903 -0.1862
71912W        W72776  19.606   4.012  15.290 -0.0900 -0.0623 -0.4260
71913W        W72777  15.154  26.767  11.459 -0.0292 -0.2539 -0.0781
71914W        W72778  11.837  13.982   8.226  0.0551 -0.0697 -0.0853
71915W        W72779   5.540  18.689  26.543 -0.1530  0.1546  0.0857
71916W        W72780   1.056   5.126  22.920  0.0178  0.0650  0.0242
71917W        W72781  13.363  10.388  28.291 -0.0672  0.1742  0.3405
71918W        W72782  18.857  27.398   6.164 -0.2200  0.0494 -0.0583
71919W        W72783  24.178  14.182   7.378 -0.2363 -0.0513 -0.2710
71920W        W72784  17.378  16.865  20.381 -0.0761  0.0356 -0.1252
71921W        W72785  24.859  17.161  10.601 -0.1052 -0.1551 -0.0044
71922W        W72786  23.392   0.457   1.372  0.1179  0.1141 -0.1650
71923W        W72787   9.901   2.376  25.319  0.1170 -0.3872  0.0680
71924W        W72788  22.528  13.791  13.447  0.1055 -0.1463  0.2617
71925W        W72789   7.638  26.624  12.387  0.1599  0.1089 -0.1586
71926W        W72790  28.187  28.977  25.017 -0.2775  0.0700 -0.0134
71927W        W72791  16.163   8.535  15.211  0.2906 -0.1054  0.1843
71928W        W72792  23.579  12.271  17.750 -0.0267 -0.0728 -0.2959
71929W        W72793   6.128   2.457  20.407  0.1486  0.1078 -0.0142
71930W        W72794  17.006  22.004   8.658 -0.1395  0.0350  0.0884
71931W        W72795  29.039  11.318  13.105  0.0603 -0.1222 -0.2193
71932W        W72796  21.270  11.152  13.530  0.1935 -0.1010  0.4282
71933W        W72797  10.035  14.680   5.775  0.1725  0.1745 -0.0084
71934W        W72798  18.144  23.067  10.219  0.0539 -0.1146 -0.0852
71935W        W72799   2.143  11.971  16.348 -0.1579  0.0060 -0.1011
71936W        W72800   1.395  21.426  24.138 -0.0186  0.0965  0.0359
71937W        W72801   4.389  21.738  28.654 -0.3650 -0.0363 -0.0107
71938W        W72802   9.022   9.566  16.943  0.1559  0.2535  0.1708
71939W        W72803  25.361  16.909  19.740 -0.0794  0.0221 -0.1611
71940W        W72804  23.714   7.183  24.612  0.0761  0.3254 -0.3039
71941W        W72805  12.871  22.667  19.368  0.2165  0.1355  0.0410
71942W        W72806  27.656   6.581  12.299  0.0661 -0.2801  0.2942
71943W        W72807  10.225  17.226  27.849  0.0237  0.0451 -0.1411
71944W        W72808  22.750  11.529   4.055 -0.4144 -0.0865  0.3187
71945W        W72809  10.212  26.130  24.861 -0.0829  0.0216 -0.2285
71946W        W72810   3.119  11.573  16.764  0.1604  0.0217 -0.0305
71947W        W72811  24.345  22.901  22.437 -0.2206 -0.2693 -0.1929
71948W        W72812  26.577   0.904  13.405 -0.2048 -0.0342  0.4302
71949W        W72813  12.670  22.456   1.928 -0.2876 -0.5212 -0.0074
71950W        W72814   3.404   1.880   1.783 -0.0506 -0.1781 -0.0620
71951W        W72815  14.615  13.111  14.716 -0.2721 -0.0954 -0.1156
71952W        W72816  13.343   0.687  22.880  0.3076 -0.2311 -0.0350
71953W        W72817  17.157  20.691  16.713 -0.0573 -0.1674 -0.0943
71954W        W72818  22.451   8.304  28.339 -0.0159  0.1889 -0.1101
71955W        W72819  22.117  15.435  26.376  0.0514 -0.3226  0.0487
71956W        W72820   4.968  20.804  23.076  0.2565  0.0257 -0.0892
71957W        W72821  15.123  11.221  28.431 -0.1512  0.0710 -0.2275
71958W        W72822   7.208   2.028  17.691 -0.5211 -0.0761 -0.5609
71959W        W72823  10.233  16.203  26.803  0.0288  0.0619 -0.4136
71960W        W72824   9.961  21.844   0.338 -0.1337 -0.2004  0.1515
71961W        W72825   8.766   0.723  13.639  0.1798  0.2517  0.1973
71962W        W72826  12.699  19.644  20.901 -0.0714 -0.1005  0.1198
71963W        W72827  15.828  13.928  21.044  0.0375 -0.1966 -0.2208
71964W        W72828  24.745  26.514   2.857  0.0306 -0.1363 -0.1516
71965W        W72829   4.080  23.162  13.066  0.0255  0.1517  0.2951
71966W        W72830  22.995  13.793   2.850  0.0400  0.0488  0.0647
71967W        W72831  17.787  19.797  17.611  0.0664  0.1256  0.3324
71968W        W72832  13.919  12.640  23.650  0.0841  0.2693 -0.2744
71969W        W72833  28.498  12.919  27.409 -0.0107  0.2144 -0.0152
71970W        W72834   6.186   6.911  20.601 -0.1779  0.3134  0.5935
71971W        W72835   8.123  18.958  17.203  0.2912 -0.3425  0.2748
71972W        W72836  19.327  23.111  13.986 -0.0081  0.1142  0.2743
71973W        W72837  20.264  12.051   8.868  0.1722  0.0620  0.3296
71974W        W72838   4.638  14.208  24.332 -0.4388  0.2565  0.0018
71975W        W72839  25.166   3.568  19.326 -0.0333  0.0229 -0.1324
71976W        W72840  19.179   9.787  20.465 -0.0570 -0.1007  0.0988
71977W        W72841  21.211   8.958   8.462 -0.0432 -0.4388  0.1805
71978W        W72842   6.198  15.595  13.320  0.0151 -0.0216  0.1601
71979W        W72843  21.850  20.201  17.125 -0.0030  0.2337 -0.2243
71980W        W72844   5.415   0.434   8.821  0.0044 -0.1632 -0.0041
71981W        W72845  10.265  24.566  14.484  0.1616  0.0693  0.1075
71982W        W72846  13.516  17.067   3.411  0.2288  0.2859 -0.1706
71983W        W72847   5.662  10.731  14.050 -0.0106 -0.0526  0.1550
71984W        W72848  12.802  12.348  19.622  0.0828  0.1844  0.1866
71985W        W72849  17.120  14.897  15.981 -0.2729 -0.3929  0.0850
71986W        W72850  27.704  22.183   4.316 -0.0030  0.2501 -0.0536
71987W        W72851  27.400  14.525   4.687 -0.0111  0.1247 -0.0727
71988W        W72852  22.192  27.401   6.653  0.1565  0.1181  0.0698
71989W        W72853  27.543  13.171  27.340  0.1604 -0.3215  0.1202
71990W        W72854   8.943   7.698  27.270  0.2124  0.0708 -0.1802
71991W        W72855   6.658  19.142  15.396 -0.0792  0.1742  0.0240
71992W        W72856  24.322  12.764  15.126  0.1825 -0.0604  0.1517
71993W        W72857  17.097  15.851  13.307 -0.1390 -0.1855 -0.0176
71994W        W72858  23.522  22.270   8.590 -0.3221  0.0435  0.1901
71995W        W72859   0.807  25.964   8.192  0.1087  0.3505 -0.1213
71996W        W72860  13.448  19.736   7.386  0.1122  0.1843  0.1735
71997W        W72861  18.207  24.993  28.667 -0.3430 -0.1047 -0.0100
71998W        W72862   6.286  17.794  26.766 -0.0365 -0.0035 -0.1445
71999W        W72863  23.600  25.768  24.023 -0.0422 -0.0058 -0.0312
72000W        W72864   3.710   4.705  23.835 -0.0986 -0.1616  0.1563
72001W        W72865   0.509  14.072  26.305  0.1476  0.0695  0.0960
72002W        W72866   7.041  12.364  24.824 -0.0296 -0.1886 -0.2475
72003W        W72867  24.018  13.800  17.662  0.1523  0.2348  0.0742
72004W        W72868  20.124   3.672   1.921  0.3340  0.3828 -0.3050
72005W        W72869  20.367  23.835  13.934  0.1951 -0.0740  0.1267
72006W        W72870  25.447  10.236  19.978 -0.0941  0.0093  0.4097
72007W        W72871  21.934  15.571   5.794 -0.0906 -0.0057 -0.1307
72008W        W72872   9.968  28.998  13.248 -0.3035  0.0935  0.0883
72009W        W72873  16.395  11.690   0.144 -0.1504  0.0190 -0.1792
72010W        W72874  21.538  18.715   5.984 -0.0284 -0.0626  0.0142
72011W        W72875  11.454  19.620  23.050  0.0301 -0.4036 -0.3099
72012W        W72876   5.998  12.690   6.046  0.1935 -0.3058 -0.1147
72013W        W72877  29.115  23.340   4.442  0.4476 -0.1859 -0.3069
72014W        W72878   2.337   0.951  22.104  0.0571 -0.1185 -0.2724
72015W        W72879  23.978  25.080  22.949 -0.0272 -0.2320 -0.0668
72016W        W72880   1.233  12.493   4.204 -0.0314 -0.0065 -0.2407
72017W        W72881   9.017  13.209   1.557 -0.3187  0.0484  0.0191
72018W        W72882  24.063  24.688  16.301 -0.0166  0.0166  0.1992
72019W        W72883  22.655   9.802  10.626 -0.2784 -0.3159  0.2114
72020W        W72884  15.966  14.439  17.156  0.0609  0.0570 -0.0445
72021W        W72885  14.610  27.035  14.620  0.2912  0.3612  0.2375
72022W        W72886  14.251  18.008   2.999 -0.3225 -0.2134 -0.1033
72023W        W72887  24.443  20.965   4.212  0.2035  0.0637  0.1034
72024W        W72888   4.786   6.380  12.572  0.0191  0.2331 -0.1667
72025W        W72889  22.191  13.393  15.286 -0.0253  0.1433  0.0814
72026W        W72890  18.113   2.046  19.645 -0.1379  0.1894 -0.3474
72027W        W72891  18.644  12.408  11.162  0.1045 -0.0018 -0.2219
72028W        W72892  11.457  20.929  25.471 -0.3861 -0.0378  0.0970
72029W        W72893  15.466  10.900  19.243 -0.2302 -0.0211 -0.2086
72030W        W72894  28.544  17.223   5.175  0.2353 -0.3942  0.0159
72031W        W72895  18.504  14.181  22.578  0.4187  0.0816  0.0515
72032W        W72896  20.548   9.227   2.805  0.2833  0.1405  0.0366
72033W        W72897  21.457  15.426  18.164 -0.2305 -0.0401 -0.1227
72034W        W72898  16.895  12.266   0.448 -0.1198 -0.0117 -0.1133
72035W        W72899  10.102  23.996  28.691 -0.2439  0.0627 -0.0951
72036W        W72900  28.666  11.338   1.070 -0.0405 -0.1608 -0.0892
72037W        W72901  14.973   3.842   1.136 -0.1682  0.0743 -0.0516
72038W        W72902   8.819  17.217  13.947  0.0378  0.3903 -0.1711
72039W        W72903  13.306  22.220   6.491 -0.4292 -0.1869 -0.0652
72040W        W72904   6.506  11.967  26.358 -0.0039 -0.3630 -0.2153
72041W        W72905  12.324   3.734  23.191 -0.1844  0.0675 -0.1502
72042W        W72906  26.269  21.689  22.275  0.2317  0.1952 -0.1148
72043W        W72907  27.246   0.129  18.578 -0.3041  0.1621  0.0824
72044W        W72908   6.800  27.088  25.785  0.1099 -0.2654  0.0143
72045W        W72909   1.032  10.204  10.965 -0.1005 -0.1022 -0.0853
72046W        W72910   0.501  11.479  24.797 -0.3365 -0.0791  0.0788
72047W        W72911  17.612   1.215   4.660 -0.4300 -0.1786 -0.2185
72048W        W72912  16.716  11.378   8.300 -0.2370 -0.0120  0.0774
72049W        W72913  14.071   2.605  23.680  0.1691  0.0627 -0.4060
72050W        W72914   3.026  25.745  20.732 -0.0686  0.2651  0.2602
72051W        W72915   6.037  19.646   1.101  0.0046  0.1125  0.0787
72052W        W72916  10.544  15.193  27.136 -0.0396  0.2287 -0.0022
72053W        W72917   7.636   7.402  17.961  0.0866  0.1834  0.0799
72054W        W72918  12.847   3.630   7.423  0.0657 -0.1493 -0.2244
72055W        W72919   0.734  28.089  23.090  0.2308 -0.1440  0.0507
72056W        W72920  25.732  16.703  18.663 -0.1891  0.0330  0.2111
72057W        W72921  13.962  26.131  25.811  0.3072 -0.1567  0.0693
72058W        W72922  25.506  18.256   6.609 -0.3804 -0.1264 -0.5374
72059W        W72923   9.689  17.831  25.487  0.1970 -0.1058  0.0128
72060W        W72924   8.721  25.821  13.980  0.0192  0.0626 -0.3513
72061W        W72925   2.943  24.772   4.728 -0.0920  0.1988  0.2591
72062W        W72926  19.763  24.818  23.912 -0.1994  0.1310  0.3281
72063W        W72927  12.084  21.709   8.083  0.1232  0.2466 -0.0370
72064W        W72928   9.625  20.444  20.359  0.0141  0.0632  0.1567
72065W        W72929   4.637  18.430   6.720  0.2781  0.1712 -0.1361
72066W        W72930  10.023  18.023  21.025 -0.0687  0.3471  0.1866
72067W        W72931  13.398  16.855  12.951  0.0051  0.2369  0.2854
72068W        W72932   9.772  17.445   6.130  0.0212 -0.0007  0.2772
72069W        W72933  12.217  24.898   8.923  0.1954 -0.1337  0.0312
72070W        W72934   5.362  28.698   1.662 -0.2036  0.1582  0.0877
72071W        W72935  13.848  28.916   0.013  0.1610  0.0666 -0.2035
72072W        W72936   1.675  28.478  12.004 -0.0039  0.1262  0.2233
72073W        W72937  22.096  24.955  16.247  0.0524 -0.0224 -0.0821
72074W        W72938   3.722  22.070  15.062  0.0961 -0.4099 -0.0038
72075W        W72939   4.624   5.082  25.167 -0.0412  0.0199 -0.1888
72076W        W72940   8.079  18.506   0.603  0.1726 -0.1064 -0.3570
72077W        W72941   5.321   2.738  10.955  0.0292  0.2839  0.1536
72078W        W72942  15.285  23.723  28.823 -0.2226  0.3399 -0.2385
72079W        W72943   6.889   9.555   0.775  0.0411  0.1047  0.1731
72080W        W72944   0.324  20.678   8.048  0.0743 -0.2800 -0.1123
72081W        W72945   5.105  10.558   9.283  0.2205 -0.0560 -0.1310
72082W        W72946  27.447   6.341   9.178  0.1863  0.2580  0.4220
72083W        W72947  22.503  27.280   3.174 -0.2544 -0.2899  0.1413
72084W        W72948  26.052  23.110   1.318 -0.0252 -0.1751  0.0768
72085W        W72949  23.916  19.354  23.732  0.0485  0.2545  0.0485
72086W        W72950  21.214  15.141   5.088 -0.1862 -0.2896 -0.0201
72087W        W72951   2.243  27.967  25.527 -0.2436  0.4515 -0.0455
72088W        W72952  22.075   1.547  25.755 -0.0036  0.1817 -0.0100
72089W        W72953   7.766  25.114  29.039 -0.3725 -0.0791  0.2998
72090W        W72954  20.397   9.342  18.653  0.0143  0.1194 -0.1310
72091W        W72955  14.129  11.922  24.858 -0.0546 -0.0423 -0.0987
72092W        W72956   9.787  14.739  16.649 -0.0083  0.2715  0.3110
72093W        W72957  16.778  10.355  27.391  0.4055  0.0956 -0.2020
72094W        W72958  28.066  25.940   3.204  0.0939  0.1981  0.2638
72095W        W72959   8.159  24.744  28.857 -0.0568  0.1502 -0.1052
72096W        W72960  18.877  16.882   4.508  0.1142 -0.0398 -0.1283
72097W        W72961  10.411  23.964   4.765  0.0149 -0.3580 -0.0447
72098W        W72962  21.602  22.881  21.326 -0.0096 -0.0262  0.0550
72099W        W72963  18.548  17.506   2.664 -0.3418 -0.2717 -0.2620
72100W        W72964  22.181  12.130  26.104 -0.0079  0.0632  0.1091
72101W        W72965  28.479  16.300  17.569  0.1961  0.0833  0.1462
72102W        W72966  23.595  20.702  17.704 -0.0592 -0.1607  0.2463
72103W        W72967  16.825  10.982  26.423 -0.2000 -0.1599 -0.0875
72104W        W72968  26.709  22.282  27.306 -0.3356  0.4389  0.0005
72105W        W72969  21.407   0.682  25.260 -0.0669  0.2004 -0.1562
72106W        W72970  17.490  15.777  21.314 -0.0016  0.4347  0.2020
72107W        W72971  21.372   4.620   4.162 -0.4088 -0.2753 -0.2703
72108W        W72972   4.312  15.270  13.210 -0.0067 -0.0757 -0.2464
72109W        W72973  18.732  18.561   6.288 -0.1431  0.0553  0.0301
72110W        W72974   6.096  19.150  15.361  0.1339 -0.0791 -0.1949
72111W        W72975  10.953  10.590  11.163 -0.0902 -0.0691 -0.1168
72112W        W72976  16.511  26.543  17.134 -0.1049 -0.4811 -0.1052
72113W        W72977  22.772   8.339  17.482 -0.1817  0.0607 -0.1302
72114W        W72978  10.452   8.470   9.331 -0.0440  0.2098 -0.0304
72115W        W72979   4.122  13.734  14.220  0.1131  0.0645  0.1201
72116W        W72980  15.658   8.902  28.257  0.2423 -0.1368 -0.2428
72117W        W72981  24.136  15.996  12.559 -0.2294 -0.0188 -0.2930
72118W        W72982   4.233  17.771  12.676 -0.1361 -0.4497  0.0227
72119W        W72983   5.170   6.570  16.617  0.2725  0.2001  0.1013
72120W        W72984  21.841  26.177  13.647 -0.4380 -0.1492  0.1393
72121W        W72985  22.820  13.140  24.754 -0.1509 -0.0215  0.0313
72122W        W72986  22.774  25.179  15.676 -0.2268 -0.2921 -0.1157
72123W        W72987   8.953  11.116  20.152 -0.0660 -0.0865 -0.1662
72124W        W72988  29.026  21.544  11.159  0.1467 -0.2497  0.2476
72125W        W72989  12.616  12.520  19.180  0.1822  0.2313 -0.1006
72126W        W72990  24.492  15.456  13.141 -0.1278 -0.0024 -0.3329
72127W        W72991  18.597  20.178  24.626 -0.2008  0.1081  0.0101
72128W        W72992  14.174  27.721  11.737  0.2702 -0.0561  0.0573
72129W        W72993  12.626  27.465  15.186 -0.0969  0.0853 -0.3030
72130W        W72994  27.538  21.406   1.420 -0.2453  0.2501  0.0251
72131W        W72995  16.807   7.374   5.739 -0.0881  0.0994  0.0689
72132W        W72996  26.796  23.769  24.153  0.2780 -0.3759 -0.1719
72133W        W72997  24.803  14.364  17.567  0.0661 -0.3099  0.2672
72134W        W72998  20.712  12.362  22.276 -0.2013 -0.1017 -0.0698
72135W        W72999  27.120   0.749   4.294  0.0464 -0.0063 -0.1544
72136W        W73000  27.202  22.515  16.480  0.1142  0.0174  0.0649
72137W        W73001  28.799  15.696  25.863 -0.0070 -0.0069 -0.0114
72138W        W73002   2.801  12.534  16.833  0.4497 -0.1385 -0.2403
72139W        W73003   2.898  14.997  12.298  0.1758  0.1610 -0.3705
72140W        W73004  25.615   3.041  24.504 -0.0376  0.2670 -0.1184
72141W        W73005   0.596  17.430  24.861  0.0574  0.3950 -0.1191
72142W        W73006  16.060   9.907   7.966  0.0377  0.1018  0.0760
72143W        W73007   0.916  21.457  22.182  0.4312 -0.0397  0.2529
72144W        W73008  11.809  15.051  18.840  0.2951 -0.0216  0.0825
72145W        W73009  21.200  12.179  24.295 -0.0721 -0.1129  0.1121
72146W        W73010  19.479  22.411  14.512  0.0263  0.1715  0.1380
72147W        W73011  22.602  22.017  18.513 -0.1417 -0.0421  0.0038
72148W        W73012  20.551  23.225   1.348  0.2192 -0.0336  0.0555
72149W        W73013  11.219  28.176  28.032 -0.0307 -0.0487  0.0149
72150W        W73014  27.066   6.336  23.243 -0.0681  0.5639 -0.0986
72151W        W73015  14.658  19.888  16.529  0.0324  0.3049  0.0814
72152W        W73016  21.617   0.091   0.211  0.0268 -0.2580  0.3349
72153W        W73017   4.020  27.839  11.187 -0.2253 -0.0031 -0.0836
72154W        W73018  13.799  20.260  27.383 -0.2737  0.0565  0.1594
72155W        W73019   5.859  18.361  28.541 -0.0924 -0.3061 -0.0334
72156W        W73020  23.432  14.939  18.935 -0.0861 -0.1839  0.0895
72157W        W73021  14.106  12.669   5.349  0.2601 -0.0974 -0.1153
72158W        W73022  18.688  20.980  11.415  0.0510  0.3186  0.1113
72159W        W73023   9.337  19.113  21.673 -0.4869  0.1471 -0.0852
72160W        W73024  18.782  17.989  24.873 -0.3281 -0.2128 -0.1826
72161W        W73025  13.197  21.889   3.543 -0.1856  0.2477 -0.1083
72162W        W73026  24.529  14.159  13.227 -0.0852  0.0022  0.1728
72163W        W73027   7.845   3.589   8.561  0.0164 -0.0678 -0.1378
72164W        W73028  24.288   0.867  21.583 -0.1526  0.3887  0.0677
72165W        W73029   4.020  17.709  19.559  0.1513  0.2110  0.0472
72166W        W73030  12.065  16.530   1.859  0.1176  0.0479 -0.1192
72167W        W73031  28.250  14.553   6.125  0.2663  0.0928 -0.0252
72168W        W73032  22.435   6.941   5.823  0.2276  0.2411 -0.0000
72169W        W73033   4.385   0.164   1.723 -0.1354  0.4419 -0.4173
72170W        W73034   1.958   7.895   5.865 -0.0648  0.1686  0.0093
72171W        W73035  20.034  25.053   1.209  0.0080  0.1506 -0.2505
72172W        W73036  13.762   4.591  23.996 -0.2378  0.2982 -0.0154
72173W        W73037   4.944  13.008  28.094  0.0833 -0.2540 -0.2703
72174W        W73038  17.910  18.165   0.064 -0.0592  0.0660  0.2919
72175W        W73039  18.289  19.622  13.047  0.3158  0.1824  0.1380
72176W        W73040  18.022   5.175  21.994 -0.1083  0.2469 -0.3078
72177W        W73041  12.187  20.292  27.516  0.0036 -0.0427 -0.1025
72178W        W73042  14.755   0.931   7.404  0.1241  0.1644 -0.2759
72179W        W73043  19.440   8.065  11.389  0.0337 -0.0701 -0.0715
72180W        W73044  19.990  26.143  19.051  0.1429 -0.1546 -0.0008
72181W        W73045  16.688  14.764  26.343  0.1211  0.4168  0.0048
72182W        W73046  16.105  25.409  27.692 -0.1537  0.0885 -0.3063
72183W        W73047  21.415  12.878  20.540 -0.1012 -0.1399 -0.0390
72184W        W73048  28.524   1.686  13.386  0.0367 -0.3693 -0.0383
72185W        W73049   4.355  21.621  25.077 -0.2087  0.0411 -0.1667
72186W        W73050  10.239  26.216  20.083  0.4445 -0.0232  0.1979
72187W        W73051  17.436  18.664   1.311  0.0216  0.2054  0.1832
72188W        W73052   3.798  13.190   3.800  0.0342 -0.0469 -0.1588
72189W        W73053   8.735  23.736  27.091  0.0180 -0.0689 -0.1153
72190W        W73054   2.104  26.647  14.556  0.0123 -0.4013  0.2333
72191W        W73055  19.683   7.654  28.197  0.3542  0.0515  0.1192
72192W        W73056  21.784   3.386   1.691  0.0546 -0.0163 -0.1373
72193W        W73057  28.804   8.232  17.965 -0.0909  0.2879 -0.0247
72194W        W73058   2.848  22.529  26.561  0.0792  0.2619  0.4127
72195W        W73059   0.361  15.232  18.250  0.0527  0.5903  0.1501
72196W        W73060   3.720  17.746   2.499 -0.1282 -0.0464  0.1245
72197W        W73061   4.707  18.076   3.559  0.0288  0.1501  0.1858
72198W        W73062  24.021   0.325   1.296 -0.1920  0.0504  0.1418
72199W        W73063  27.194   9.999  14.934  0.4692  0.1412 -0.1274
72200W        W73064   0.239  22.547   2.365  0.0744  0.0517 -0.1184
72201W        W73065  26.594  12.429   3.290 -0.1716 -0.0903  0.0596
72202W        W73066  17.005  21.603  23.286  0.3329 -0.6365 -0.3121
72203W        W73067  23.526  18.307  27.609  0.0546 -0.1595 -0.1375
72204W        W73068  11.791   5.538  13.057 -0.0834  0.1777 -0.0919
72205W        W73069   4.659  12.403  24.992 -0.0218 -0.1305 -0.2923
72206W        W73070  24.344  16.279   3.676  0.0503  0.1558  0.2187
72207W        W73071  19.349   3.836  11.311 -0.0591 -0.1287 -0.1065
72208W        W73072   0.974  28.968   0.162 -0.0649 -0.0079 -0.1559
72209W        W73073  25.628   4.273  14.715  0.0249 -0.3671 -0.1863
72210W        W73074   4.617  17.024   1.039  0.1460  0.0446  0.2226
72211W        W73075   6.259   8.851  29.067 -0.3058  0.3512  0.0891
72212W        W73076  15.332  22.290   6.984  0.2204 -0.1035  0.1386
72213W        W73077  14.529  21.777  23.291 -0.1277  0.3072  0.1595
72214W        W73078  26.575  23.777   1.306 -0.0850  0.2988 -0.2400
72215W        W73079  25.269   8.731  22.161  0.0615 -0.2787  0.0259
72216W        W73080   1.591   0.155  22.265  0.1418  0.3207  0.2923
72217W        W73081   1.717  24.340  10.841  0.2096 -0.0538 -0.1329
72218W        W73082  21.549  13.578   4.624  0.1979 -0.3850 -0.1090
72219W        W73083  26.712   8.924  23.666  0.0999 -0.2686 -0.3831
72220W        W73084   0.565  22.139   2.609  0.0562 -0.1546 -0.0891
72221W        W73085   8.450  29.086  24.927 -0.0183 -0.0030  0.0334
72222W        W73086  14.770  21.144  17.449 -0.2557  0.1423  0.0800
72223W        W73087  17.555  15.050  18.591 -0.1883 -0.0115  0.1671
72224W        W73088   6.515  24.586   0.488  0.1481  0.1319  0.0662
72225W        W73089  24.822  25.790   5.499  0.1361 -0.0145  0.0361
72226W        W73090  22.457  13.878   8.524 -0.1167  0.0389  0.0634
72227W        W73091  24.944  23.970  22.253  0.0537 -0.1335  0.1029
72228W        W73092  14.910  18.312  19.862 -0.1386 -0.1999  0.2985
72229W        W73093  22.830  26.480  19.901 -0.2620 -0.2712 -0.0035
72230W        W73094   7.724  12.352  22.189  0.2956  0.2274  0.0921
72231W        W73095   6.514  20.654   0.797  0.0305 -0.1409 -0.0076
72232W        W73096   4.520  15.664  17.997 -0.3805  0.0979  0.0984
72233W        W73097   3.948  18.505   9.249  0.1451  0.0577  0.0747
72234W        W73098  11.645  18.065  20.692 -0.1355  0.2673 -0.1261
72235W        W73099   1.010  18.109  24.441 -0.3612  0.1029  0.2328
72236W        W73100  28.729  25.113   4.628  0.2825 -0.1922  0.0154
72237W        W73101  23.861  20.363  15.195  0.5450 -0.0277 -0.2502
72238W        W73102  18.159  14.314  17.875  0.3562 -0.0313 -0.2020
72239W        W73103   4.083  26.737  18.052  0.0713  0.1089  0.1692
72240W        W73104   9.207  11.594  14.142 -0.2107  0.2583  0.3491
72241W        W73105   0.349  22.589   6.636 -0.0816  0.0183  0.0396
72242W        W73106   7.230  13.967   5.931  0.3124 -0.0918 -0.1658
72243W        W73107  24.893  28.849   7.000 -0.0183 -0.2199  0.0311
72244W        W73108   6.732  11.322  21.367  0.0505 -0.2885 -0.1805
72245W        W73109  13.394   3.577  26.735 -0.1618 -0.0045  0.2260
72246W        W73110  25.660   6.295  24.203 -0.0819  0.1234 -0.2808
72247W        W73111   2.035  25.722  18.447  0.1329 -0.2411  0.0362
72248W        W73112   7.878   0.158  18.409 -0.1184 -0.0894  0.1679
72249W        W73113   9.070   0.510  20.156  0.0138 -0.1855 -0.0611
72250W        W73114  20.550   9.859  26.112  0.2836  0.1828 -0.1644
72251W        W73115  28.702  20.756  15.831 -0.2860 -0.2297  0.1393
72252W        W73116  16.644  18.409  16.538  0.0787 -0.0474 -0.0864
72253W        W73117  26.122  22.931  12.477  0.1541 -0.0705  0.0820
72254W        W73118  18.271   7.586  24.456  0.1164 -0.2620  0.1119
72255W        W73119  24.873  27.725  27.956  0.3013  0.0707  0.0872
72256W        W73120  24.498  22.122   1.078  0.2670  0.1947  0.2017
72257W        W73121  13.211   2.585   0.215  0.0178  0.0628  0.1237
72258W        W73122  21.402   0.538  24.059  0.1881  0.2077 -0.0905
72259W        W73123   5.065   3.210  15.967  0.0960 -0.2514  0.0817
72260W        W73124   0.477  28.941  19.151  0.0336  0.1542 -0.3203
72261W        W73125   5.527  19.338  15.255  0.1493  0.0447 -0.1290
72262W        W73126   7.952   7.680  24.060  0.4109 -0.2776 -0.0838
72263W        W73127   4.321  28.364   0.261  0.1417 -0.0987  0.1564
72264W        W73128   8.849  19.549  24.990  0.1935 -0.0908 -0.2381
72265W        W73129  10.070  11.211   4.089  0.1471  0.2035  0.0756
72266W        W73130  27.550  11.986   1.625 -0.2142  0.0154  0.2105
72267W        W73131  24.817  17.079   2.498 -0.0675 -0.0025 -0.0316
72268W        W73132  29.036  13.319  23.652  0.3012 -0.2902 -0.1346
72269W        W73133  17.518  24.392   9.993  0.0652 -0.0366 -0.1437
72270W        W73134   0.962  17.121  29.076  0.2340  0.1044  0.1346
72271W        W73135   0.124  28.952  20.506  0.0831  0.0079 -0.0244
72272W        W73136  27.236  15.472  16.127 -0.0724 -0.0158  0.1055
72273W        W73137  11.611  28.272   9.172 -0.1330 -0.1015  0.2747
72274W        W73138   8.661  19.251  28.985 -0.0654 -0.4954 -0.0976
72275W        W73139  17.520  20.857   3.775 -0.2663  0.0074 -0.1763
72276W        W73140  14.983  16.321   3.815 -0.4198  0.4035  0.2488
72277W        W73141  15.848  21.345   2.483 -0.1925  0.0637  0.1463
72278W        W73142  24.580   3.081   1.570 -0.0373 -0.2645 -0.0228
72279W        W73143  12.370   1.067  14.369 -0.1217  0.2295  0.2655
72280W        W73144  21.426  27.953  23.346  0.0101  0.1640  0.2748
72281W        W73145  23.609  20.464   9.422  0.1173  0.1443  0.3509
72282W        W73146  14.782   9.224   8.998  0.1857  0.4145  0.0920
72283W        W73147  15.976  20.509  19.923  0.0043 -0.3576  0.2392
72284W        W73148  14.595  10.382  26.998 -0.1693  0.0015  0.0582
72285W        W73149   2.460  13.046  17.943 -0.0213  0.0838  0.1549
72286W        W73150   3.329  20.240  10.669  0.0098 -0.0890  0.1428
72287W        W73151   4.520  20.783  16.634 -0.2411  0.0459  0.0194
72288W        W73152  13.532   2.252  23.986 -0.2428 -0.0600  0.0282
72289W        W73153  12.589   1.107  11.448 -0.1168  0.0778 -0.0581
72290W        W73154  11.903  17.254  13.533 -0.1800 -0.1991  0.3228
72291W        W73155  27.110  22.466   2.612 -0.0403  0.4873 -0.1242
72292W        W73156  18.971  13.958   6.802  0.1030  0.2854 -0.0596
72293W        W73157  24.998  16.733   7.293 -0.1154  0.0396 -0.0613
72294W        W73158  20.869   7.916  22.907  0.1534 -0.0251 -0.0491
72295W        W73159  11.683  28.618  14.082 -0.1365  0.0731  0.0497
72296W        W73160   1.413  27.008  24.783 -0.0667  0.2312 -0.3425
72297W        W73161   3.833  27.363  27.171  0.2385  0.1239 -0.1544
72298W        W73162   2.790  11.463  17.718 -0.2537  0.0068 -0.1258
72299W        W73163  10.406   0.073   6.445 -0.0460  0.0637 -0.0520
72300W        W73164  24.300  18.079   3.753  0.0801  0.3236 -0.2539
72301W        W73165   7.456  17.784   2.126 -0.2836 -0.0027 -0.2477
72302W        W73166   8.977  25.295   5.661  0.1149  0.2811  0.0233
72303W        W73167  27.385  13.855  27.201 -0.0063 -0.0704  0.0966
72304W        W73168  11.284  28.525  14.281 -0.0807  0.0327  0.0430
72305W        W73169   2.642  10.837  23.075  0.1381  0.1613  0.3604
72306W        W73170  24.289  11.280  20.169  0.0516 -0.1323 -0.0296
72307W        W73171  21.922   2.711  15.286 -0.1684 -0.1041 -0.2436
72308W        W73172   1.110  21.940  17.991 -0.0043 -0.3140 -0.0796
72309W        W73173  22.287  28.650   9.844  0.2027  0.0789 -0.0104
72310W        W73174   3.499   3.694   1.694  0.2306 -0.2376  0.2277
72311W        W73175  16.657  21.470  18.903 -0.1187 -0.1496 -0.0128
72312W        W73176  20.363  24.019   6.541 -0.0493 -0.0543  0.0792
72313W        W73177  19.883  24.918  22.581 -0.2997  0.0661  0.0930
72314W        W73178  12.572   0.238  18.502  0.5889 -0.0142  0.0178
72315W        W73179  28.852  27.933   9.552 -0.0399  0.1482 -0.4130
72316W        W73180  20.402  15.751  18.130  0.2137  0.2402  0.0936
72317W        W73181  14.102  28.446  22.853  0.0360 -0.0481  0.2574
72318W        W73182   3.973   6.367  17.381  0.0669 -0.2676  0.1423
72319W        W73183   1.378  14.506  11.190  0.0265  0.0036 -0.0125
72320W        W73184  12.734  14.143  23.698  0.1154 -0.0336 -0.1764
72321W        W73185   4.966  12.004  20.397  0.1009 -0.1672  0.0329
72322W        W73186  19.895   4.696  23.722 -0.3986 -0.0646  0.2701
72323W        W73187  17.870   3.256  28.183 -0.2383  0.1148 -0.4993
72324W        W73188  22.077  15.284  15.658  0.0794 -0.0556  0.0481
72325W        W73189  15.292  18.930  15.823 -0.4265 -0.2012 -0.0441
72326W        W73190  17.630  19.656   4.047 -0.0039 -0.0646 -0.2742
72327W        W73191  14.882  23.409  14.818  0.3186 -0.0697  0.0640
72328W        W73192   9.120  21.494   4.463 -0.2025 -0.2238 -0.0344
72329W        W73193   2.679  21.394  27.234 -0.2268 -0.2280 -0.0858
72330W        W73194  12.736   9.572   9.304 -0.2658 -0.1726 -0.0258
72331W        W73195  19.139  22.147  24.867  0.3642 -0.3255  0.1019
72332W        W73196  18.167  22.695  12.421 -0.1943 -0.1460 -0.0067
72333W        W73197   9.386   5.287  16.532  0.2412  0.1454  0.2020
72334W        W73198  23.647  16.546   6.383 -0.0355 -0.2345 -0.4047
72335W        W73199  21.604   1.249  24.089 -0.0160  0.0661 -0.0109
72336W        W73200  26.629  21.202  10.955  0.0116  0.1540  0.3192
72337W        W73201   3.019  13.181  28.106 -0.0247 -0.1690 -0.0165
72338W        W73202   1.976  15.426   4.600  0.1638  0.0455  0.1607
72339W        W73203   6.516   3.811  28.304  0.1711  0.1709  0.0564
72340W        W73204  24.039  11.996   1.725  0.1668 -0.2422 -0.2702
72341W        W73205  26.154  21.381  27.473  0.0615  0.1973  0.0949
72342W        W73206  10.150   8.200  17.162  0.0276 -0.0455 -0.0276
72343W        W73207  24.136   5.979  28.384  0.1515 -0.2964  0.0089
72344W        W73208  16.607   0.891   3.843 -0.0362 -0.2561 -0.1129
72345W        W73209  14.611  22.395  24.984 -0.2409  0.1358  0.0356
72346W        W73210   8.273   3.301  16.188  0.0244 -0.1177 -0.0452
72347W        W73211  13.274  25.746  22.214  0.0505 -0.1223 -0.2532
72348W        W73212  26.250  28.159   7.603  0.0419  0.1237  0.0578
72349W        W73213  16.573   8.565   7.246 -0.3194  0.4841 -0.0375
72350W        W73214  12.937   5.307  28.723 -0.0059 -0.0827 -0.1825
72351W        W73215  26.337  26.237  21.849 -0.2559 -0.1364  0.2633
72352W        W73216  14.987  21.111  18.808  0.0444 -0.0680 -0.0926
72353W        W73217  19.856  21.150  19.087 -0.2367 -0.1142 -0.0100
72354W        W73218   2.889  23.608   9.313 -0.2378  0.0966  0.0449
72355W        W73219  25.644  18.442  23.458  0.3593  0.0852 -0.2881
72356W        W73220   6.193  20.980  28.184  0.1511 -0.3116  0.0405
72357W        W73221  16.759  25.967  27.855  0.2923 -0.0709  0.0835
72358W        W73222  13.954   8.448  24.624  0.1894  0.1834  0.1739
72359W        W73223  24.986   0.530   2.487  0.0742 -0.0366  0.0885
72360W        W73224   7.519  25.841  12.838  0.3180 -0.0085  0.0438
72361W        W73225   5.741  10.626  11.871 -0.2835 -0.3356  0.1941
72362W        W73226   6.255  29.118  18.975 -0.0115  0.0128 -0.0386
72363W        W73227   2.219  10.687   5.847  0.0431  0.0311 -0.0353
72364W        W73228   2.269  11.262  23.069  0.1980  0.0491 -0.0331
72365W        W73229  15.054  16.237  23.426 -0.2426 -0.0857  0.0385
72366W        W73230  13.453  21.781   6.713  0.2273 -0.0407 -0.1151
72367W        W73231  20.621  18.392  13.034  0.0665 -0.3116 -0.1808
72368W        W73232  25.013   0.099   6.036  0.2017 -0.0257  0.1009
72369W        W73233  25.540  18.408  16.652 -0.0069  0.0690 -0.1869
72370W        W73234  26.969   8.247  27.184 -0.0709  0.1664 -0.2312
72371W        W73235  17.083  13.341  14.507 -0.1796 -0.0537 -0.0571
72372W        W73236  21.201  13.827   0.284  0.0461 -0.1774 -0.0103
72373W        W73237  15.740  26.028  18.628 -0.1154  0.1048  0.0964
72374W        W73238  25.000  16.029  18.382 -0.1161 -0.2704 -0.2189
72375W        W73239  16.541   7.050  21.411  0.0489 -0.2362 -0.1315
72376W        W73240  28.254  19.911  12.955 -0.1532  0.3012  0.1393
72377W        W73241  13.416  27.785   4.217  0.2189 -0.0268 -0.3230
72378W        W73242  12.830   1.948  27.872 -0.0200 -0.2549 -0.1755
72379W        W73243   7.823  17.794  29.117 -0.1162 -0.1087 -0.1260
72380W        W73244   3.331  18.884  25.118 -0.3292 -0.0209 -0.0276
72381W        W73245  25.259  10.844  17.756  0.0553  0.0385 -0.1518
72382W        W73246  28.416  10.774   8.379 -0.0234  0.0156 -0.0916
72383W        W73247  24.774  20.425   2.066  0.1829 -0.2875 -0.0120
72384W        W73248  28.761  19.430  21.254 -0.1883  0.3681 -0.1414
72385W        W73249  23.723  22.326  25.519  0.1309 -0.0742  0.1491
72386W        W73250  24.435  12.465   8.298  0.0480 -0.2346  0.2113
72387W        W73251   3.708  10.478  12.562 -0.0800 -0.3219  0.0597
72388W        W73252  22.906  19.969  24.006 -0.4664  0.1839  0.1069
72389W        W73253  27.456  14.425   5.476 -0.4032  0.0278 -0.1249
72390W        W73254   2.021  20.622   4.521  0.0202 -0.0735  0.0712
72391W        W73255  26.642  23.191   7.021 -0.0746 -0.0374 -0.0689
72392W        W73256  25.694  28.069  26.128 -0.0978 -0.2540  0.2738
72393W        W73257  22.620  21.940  21.217  0.4240 -0.0024  0.0486
72394W        W73258   3.799  21.242   5.378  0.1421 -0.0685 -0.0145
72395W        W73259  13.217  27.270  24.590 -0.0252 -0.0609 -0.1803
72396W        W73260  28.936   7.828  13.685  0.3249 -0.0364  0.1393
72397W        W73261  15.016  19.643  26.689 -0.0440 -0.3687  0.3363
72398W        W73262  10.139  15.264  25.443  0.1118 -0.3185 -0.2921
72399W        W73263  22.450  10.006  14.752 -0.1191 -0.0734 -0.1060
72400W        W73264  18.258  17.847  14.669  0.1212 -0.3247  0.0172
72401W        W73265  23.209   7.798   7.405  0.3056  0.0237 -0.0680
72402W        W73266  21.652  28.485  16.874  0.2269 -0.1577  0.0976
72403W        W73267  10.168   9.761   1.478  0.2477  0.1355 -0.1775
72404W        W73268   7.755   4.687  13.974  0.0967 -0.0065 -0.4545
72405W        W73269   7.230   0.424   2.756  0.1696 -0.0226 -0.1649
72406W        W73270  25.255  18.695  22.019  0.4850  0.2508 -0.3546
72407W        W73271  16.318  18.201  15.680 -0.0303  0.1074  0.1053
72408W        W73272   0.351  21.440  19.864  0.0666  0.2120 -0.0933
72409W        W73273  13.004   9.826   2.526  0.0235 -0.3265 -0.2187
72410W        W73274  24.596  16.950  19.860  0.1931  0.0990  0.0756
72411W        W73275  28.565  16.326  21.036 -0.1228 -0.0481 -0.0672
72412W        W73276  20.066   9.220  20.476  0.2082 -0.0239  0.0712
72413W        W73277  28.629  18.225   1.397  0.0332  0.1612  0.0965
72414W        W73278   3.245   7.243   6.777  0.0372  0.1654 -0.1181
72415W        W73279  16.831  15.410   8.694 -0.0842 -0.0902  0.1700
72416W        W73280  14.625  27.572  19.776  0.1709  0.0350  0.0606
72417W        W73281  20.767  19.043   8.014 -0.2102  0.0857  0.0310
72418W        W73282  24.847  10.837  10.835  0.1780  0.1690  0.0681
72419W        W73283  17.982   6.157  14.392  0.3777  0.0042 -0.1152
72420W        W73284  14.645   0.724  20.507 -0.0522 -0.1118  0.3665
72421W        W73285   3.885   0.479   2.378 -0.0292  0.0577 -0.1561
72422W        W73286   8.236  18.304  27.210 -0.3414  0.1905 -0.3428
72423W        W73287   9.863   9.624  27.429 -0.0291  0.0962  0.1322
72424W        W73288  12.490  16.287   1.593  0.0056 -0.0135 -0.0146
72425W        W73289  13.838  27.302  17.301  0.0737  0.1700 -0.0199
72426W        W73290  16.980  21.744  21.320  0.1422  0.0909  0.2627
72427W        W73291   9.523  22.372  24.097  0.3068 -0.1259  0.0953
72428W        W73292  21.514  23.091  25.422 -0.0655 -0.3789  0.0447
72429W        W73293   0.187   5.833   6.365 -0.0102 -0.0374  0.2921
72430W        W73294  18.564  18.896   4.154 -0.1673  0.1598 -0.2478
72431W        W73295  20.965  16.367  23.000  0.0412  0.0682 -0.1337
72432W        W73296   3.774  15.771  17.278  0.1947  0.0373 -0.1456
72433W        W73297  17.928  25.993   0.162 -0.3292  0.1059 -0.0077
72434W        W73298  18.442   7.716   2.559 -0.2328 -0.1968 -0.0672
72435W        W73299   6.354  26.668  24.902  0.0188  0.0473  0.2294
72436W        W73300   2.387  18.754  22.107 -0.0810 -0.1212 -0.5861
72437W        W73301   5.868  16.334  19.804  0.0005  0.2317 -0.1034
72438W        W73302  11.220  13.704  17.308 -0.1097 -0.0114  0.0555
72439W        W73303   1.055  20.454   9.074  0.0678 -0.0231 -0.0654
72440W        W73304  16.106   6.389  14.179  0.1475  0.0337 -0.0462
72441W        W73305  24.021  18.343  23.765  0.1365  0.0154 -0.1070
72442W        W73306  13.938  16.127  21.262  0.0028  0.1315  0.2238
72443W        W73307   5.876   4.217   5.888 -0.1396 -0.0237  0.1316
72444W        W73308  14.587   7.015  24.162 -0.2254 -0.1157  0.2791
72445W        W73309  21.365  22.278  22.125 -0.3118 -0.0192  0.0977
72446W        W73310   2.800  19.993  11.357 -0.2186  0.0869  0.1911
72447W        W73311  17.517  23.630  27.410 -0.0276  0.2245 -0.3116
72448W        W73312  19.399  12.612  27.997 -0.1406 -0.0563  0.1097
72449W        W73313  25.100  18.253  22.157  0.1109  0.0642 -0.1343
72450W        W73314  20.385   5.746  22.894 -0.2188 -0.0495  0.0552
72451W        W73315  18.777  21.942   1.423 -0.1288 -0.1950  0.0679
72452W        W73316  25.013  26.517   5.735 -0.1453  0.1327 -0.1625
72453W        W73317  17.735   4.587  13.900 -0.0510 -0.0077 -0.0197
72454W        W73318  23.201  25.058  22.607  0.1481  0.1786 -0.0695
72455W        W73319  26.160  21.709  12.058  0.0665 -0.1343 -0.3000
72456W        W73320   5.532   5.482   4.521  0.0692  0.0263 -0.2179
72457W        W73321   4.636   9.015   3.289 -0.0474 -0.2601 -0.0438
72458W        W73322  20.322   9.667  17.701 -0.2659  0.2260 -0.1210
72459W        W73323  27.729  22.186   8.080  0.1477 -0.0862 -0.0476
72460W        W73324  26.311  25.095  19.450  0.1872  0.0357 -0.2018
72461W        W73325   3.295  16.454   3.783  0.1055 -0.1615  0.1004
72462W        W73326   2.407  26.880  24.888 -0.1532 -0.1839 -0.1397
72463W        W73327   7.349  14.497  27.968 -0.0003  0.0499  0.1071
72464W        W73328   6.690  18.952  12.063 -0.0015  0.0661 -0.0461
72465W        W73329  12.826   5.383  27.529 -0.0878 -0.3187  0.2108
72466W        W73330  17.094   3.653   9.609 -0.4381  0.0214 -0.1633
72467W        W73331  11.109  20.157   1.874  0.1610  0.0258 -0.2849
72468W        W73332  25.723  22.458   1.726 -0.0042  0.0851  0.1494
72469W        W73333   8.939  21.297  17.719  0.0595 -0.1981  0.1595
72470W        W73334  24.421  19.202   7.506  0.3493  0.2334 -0.1507
72471W        W73335  23.945  14.114  27.887 -0.1344 -0.0207  0.0087
72472W        W73336  19.193  27.871  12.617  0.3228 -0.0275 -0.1026
72473W        W73337  27.701   7.690  17.861 -0.1679  0.0838  0.1555
72474W        W73338   7.984  21.281  12.444 -0.1101 -0.0049 -0.2679
72475W        W73339   8.291  19.305   9.507 -0.2274 -0.4567 -0.1360
72476W        W73340  25.463  23.145  21.658  0.1540 -0.1479 -0.2920
72477W        W73341   5.845  28.018   1.177 -0.0607 -0.1247  0.0018
72478W        W73342  15.607  12.937   6.373  0.0497 -0.2634 -0.2117
72479W        W73343  11.996  12.669  20.110 -0.0161 -0.3070 -0.2254
72480W        W73344  17.357   9.315   7.996 -0.0260 -0.1108  0.1022
72481W        W73345   9.423   6.018   4.814 -0.0198 -0.1474 -0.1993
72482W        W73346  18.810  19.709  24.252  0.3495  0.1571  0.1452
72483W        W73347   8.832  23.614  20.829 -0.1934  0.0291  0.4031
72484W        W73348  11.475  26.787   2.759 -0.0791 -0.0978 -0.1380
72485W        W73349  27.808  15.288  28.458  0.1544  0.1628  0.2029
72486W        W73350   5.520  23.516   4.733  0.4510 -0.0368 -0.3013
72487W        W73351   1.507   2.570   6.246 -0.0195 -0.0919  0.0179
72488W        W73352   9.359  10.401  10.305 -0.0406 -0.1318 -0.1653
72489W        W73353  20.453  12.131  21.934 -0.5487  0.2584  0.1825
72490W        W73354  14.439  20.091   1.115 -0.3276 -0.1444  0.1232
72491W        W73355  26.105  23.674  28.468 -0.2587 -0.1645  0.1927
72492W        W73356  21.903  26.266   4.959 -0.4975 -0.3483  0.3135
72493W        W73357   7.292  27.069  24.265 -0.0683 -0.2338 -0.0960
72494W        W73358   9.404  23.348  13.462  0.3113  0.1412 -0.0474
72495W        W73359   0.684   9.815   7.837 -0.0017 -0.0817 -0.2547
72496W        W73360   3.163  21.104   2.402 -0.1658  0.1174 -0.0569
72497W        W73361  28.247  15.605  11.086  0.0453 -0.1836  0.2290
72498W        W73362  17.148   2.407   9.506 -0.0441  0.1350  0.0217
72499W        W73363  28.888  14.494  18.683  0.2246 -0.1454 -0.1711
72500W        W73364  12.164   2.043  29.018  0.0613  0.0758 -0.0609
72501W        W73365  28.590  23.409  26.811  0.2151 -0.4605  0.2435
72502W        W73366  27.554  14.227  23.053 -0.0328 -0.0398 -0.2527
72503W        W73367  11.115  16.922  24.983  0.0884 -0.3947 -0.2957
72504W        W73368   2.025   4.753  10.726  0.4484 -0.2969  0.4849
72505W        W73369  23.353   9.629   6.632 -0.2861  0.1337  0.2795
72506W        W73370  21.835  24.058  12.088 -0.0117 -0.1009 -0.0222
72507W        W73371  12.895   0.123  22.384  0.2230  0.2269  0.2376
72508W        W73372  26.205  16.499   4.828 -0.0998 -0.0135  0.0027
72509W        W73373  23.863   9.796  18.962 -0.0808 -0.1699  0.2964
72510W        W73374  18.936  25.953  10.925 -0.1485 -0.4210  0.2263
72511W        W73375  14.176   2.557   7.924  0.2901 -0.2528  0.0906
72512W        W73376   5.869   9.723   1.987 -0.0728  0.0804  0.2694
72513W        W73377  11.829   4.063  11.589 -0.1248  0.0150  0.0664
72514W        W73378  23.247  26.817  24.862 -0.0663 -0.0874 -0.2007
72515W        W73379  27.498  23.511  28.220  0.0255  0.0631  0.0943
72516W        W73380  19.928   4.164  19.471  0.1846  0.1096  0.3983
72517W        W73381   8.643  28.070  20.928 -0.1665  0.2293 -0.0543
72518W        W73382   2.148  12.446  19.610 -0.2714  0.0978  0.1564
72519W        W73383  24.497  20.663  16.950 -0.1131  0.1438  0.2425
72520W        W73384  24.606   5.555  15.200 -0.0317  0.1909 -0.2766
72521W        W73385   0.930  23.509  12.362 -0.2335 -0.0499  0.0026
72522W        W73386   2.828   2.736   7.289 -0.0398  0.0666 -0.1816
72523W        W73387  16.372  21.370   9.406 -0.1787  0.0149  0.2002
72524W        W73388  20.061  25.742  16.373 -0.2465 -0.2662  0.2110
72525W        W73389  22.412  19.723   8.928 -0.4838 -0.2570  0.1637
72526W        W73390   5.140  13.084  22.684  0.1209 -0.1261  0.0965
72527W        W73391  17.126   3.413   4.466  0.1629  0.1197  0.1341
72528W        W73392  27.285  18.277  27.634 -0.1589 -0.1258 -0.2118
72529W        W73393  24.446  18.431  15.426  0.1310  0.1930 -0.1988
72530W        W73394  22.075  10.626   0.927  0.0127 -0.1928  0.3323
72531W        W73395   0.551   5.750   7.225  0.0375 -0.0880 -0.1332
72532W        W73396   7.834   6.592  12.017  0.0250 -0.4364  0.1431
72533W        W73397  16.551  23.214  18.975 -0.1559  0.0141 -0.1726
72534W        W73398   9.101  26.931  26.825  0.2283  0.2329  0.3333
72535W        W73399   3.471  10.266   5.534 -0.1094 -0.0317 -0.0712
72536W        W73400   9.809   1.638  14.686 -0.2518  0.0051 -0.2139
72537W        W73401  21.020   0.493  13.105 -0.1018  0.2982 -0.3969
72538W        W73402  22.730  17.831  20.239 -0.0099 -0.0318 -0.0228
72539W        W73403   9.222  16.464  16.250 -0.0555 -0.1174  0.1321
72540W        W73404   3.927  28.824  21.649 -0.1550  0.0635 -0.2276
72541W        W73405   8.559  18.719  29.058 -0.0389  0.2110  0.0558
72542W        W73406  24.797   1.131  26.852 -0.3282 -0.0599  0.0390
72543W        W73407  16.706   0.750  21.342  0.3568 -0.2524 -0.2217
72544W        W73408  20.264  21.789  12.807  0.1092  0.0571  0.4617
72545W        W73409   0.597  28.175   4.333 -0.0011  0.1033 -0.1191
72546W        W73410   4.418  24.192   9.876  0.1433 -0.1246 -0.0335
72547W        W73411  27.839  11.626  11.254 -0.0430  0.0622  0.1313
72548W        W73412  18.349  15.626   8.698  0.1301 -0.2004  0.0702
72549W        W73413  10.853   0.295   6.417 -0.3121 -0.0525 -0.1300
72550W        W73414   6.165   6.818  10.076  0.0931 -0.3385  0.3637
72551W        W73415  28.561   5.860  26.698 -0.3574  0.2225 -0.0987
72552W        W73416  17.019  28.629  25.562 -0.1299 -0.0736  0.1659
72553W        W73417   4.783  20.311  20.699  0.1091 -0.2468  0.0808
72554W        W73418  21.342  20.660   5.168  0.1580  0.5975  0.3034
72555W        W73419   8.341   5.664  14.484  0.0744 -0.1815 -0.1406
72556W        W73420  20.889  18.821  19.825 -0.0542 -0.0662 -0.3221
72557W        W73421   5.363  27.674  14.367  0.2850 -0.0390 -0.0476
72558W        W73422  13.934  15.257  22.976 -0.1846  0.0884 -0.1824
72559W        W73423  24.636  20.511  11.124 -0.0518 -0.0947 -0.2798
72560W        W73424   8.344  23.845  18.274 -0.1550 -0.1056  0.0030
72561W        W73425   8.643  28.666  15.154  0.1632  0.1492 -0.2090
72562W        W73426  14.117  13.155   5.493 -0.2001 -0.0839  0.1021
72563W        W73427  14.062   7.282   1.503 -0.0816  0.0781  0.1574
72564W        W73428   1.911  10.092  11.896  0.0914 -0.0658 -0.0420
72565W        W73429   7.844   7.500  11.454  0.0081  0.0853  0.0755
72566W        W73430  29.131  14.635  21.582  0.2468  0.6143  0.2728
72567W        W73431  11.052  24.421   5.423  0.0052  0.3579 -0.0193
72568W        W73432  15.003  25.006  25.459  0.0398 -0.3197 -0.0062
72569W        W73433   2.120  24.773   0.649 -0.0444  0.0677  0.2705
72570W        W73434   5.984  13.269   4.240  0.0559 -0.2928 -0.2225
72571W        W73435  24.167  24.228  27.774  0.2247 -0.0245  0.1333
72572W        W73436  24.660   8.409  25.227 -0.0241 -0.0217 -0.2451
72573W        W73437  22.396  27.943  25.739  0.0205  0.0445 -0.3283
72574W        W73438   8.995  14.769   4.669  0.1080  0.3254  0.2985
72575W        W73439  15.531   2.522   0.399  0.1503 -0.0832 -0.1269
72576W        W73440  23.809  16.294   0.682 -0.0620 -0.0854  0.1006
72577W        W73441  28.504  26.725  25.459 -0.1725  0.1882 -0.0405
72578W        W73442   4.464   9.848  24.524  0.0045  0.0255  0.1132
72579W        W73443  11.998   0.926   9.578  0.2494  0.2802  0.1630
72580W        W73444  25.732  20.757  22.572  0.2295  0.1402 -0.2229
72581W        W73445  21.645  26.705  17.538 -0.0369  0.2072 -0.0176
72582W        W73446  24.705  22.841   0.334 -0.1142  0.0474  0.0217
72583W        W73447   0.791  25.413  29.101  0.1363  0.0023 -0.0168
72584W        W73448   1.095  21.308  25.995 -0.2397 -0.1880 -0.1386
72585W        W73449  17.365   0.696  17.618 -0.1426  0.1623 -0.0358
72586W        W73450  28.150  26.919  26.474 -0.2735  0.1055  0.0133
72587W        W73451  18.106  28.760  26.484 -0.3437 -0.3104  0.0452
72588W        W73452  12.088   6.742  22.646  0.0045  0.0604 -0.0199
72589W        W73453  16.275  22.594  26.757  0.0011  0.0015  0.0537
72590W        W73454  25.715  19.067   8.804  0.2976 -0.2982 -0.0418
72591W        W73455  19.352   9.381   2.431 -0.1612  0.0002 -0.0780
72592W        W73456  21.880  19.966  28.184  0.1925 -0.0513 -0.0691
72593W        W73457  23.329  20.034  24.382 -0.0562  0.0810 -0.0051
72594W        W73458  21.177   2.043   1.754  0.4332  0.0605  0.0137
72595W        W73459  16.363  22.763  19.106 -0.0071 -0.0700 -0.0671
72596W        W73460   6.020  21.741   2.353 -0.0937 -0.1262  0.0129
72597W        W73461   0.462  15.217  10.038 -0.0153  0.1256  0.2210
72598W        W73462  11.943  16.330  16.169 -0.1792 -0.1491 -0.1536
72599W        W73463   0.780  15.330  25.469 -0.1082 -0.0494  0.0292
72600W        W73464  15.712  15.519  18.989 -0.0465 -0.1342  0.0966
72601W        W73465  20.378   0.326  14.557 -0.2928  0.1735 -0.2776
72602W        W73466  20.157  20.649   5.654  0.3124  0.2477  0.0299
72603W        W73467   8.262   6.312   6.590 -0.2152 -0.0095  0.3315
72604W        W73468  25.344  23.445   4.878 -0.3388 -0.1087 -0.3190
72605W        W73469  16.455  23.564  24.416  0.0657  0.0032  0.0351
72606W        W73470  18.027   6.067   2.831  0.2021  0.1477 -0.0671
72607W        W73471   7.386  10.662   2.581  0.1366 -0.4056 -0.2045
72608W        W73472  12.660  15.912   6.608 -0.1461 -0.2240 -0.0382
72609W        W73473  27.743  15.746  18.648  0.2766 -0.0410  0.1761
72610W        W73474  19.001  14.063  16.049 -0.0674 -0.2562 -0.1878
72611W        W73475  11.654   9.376  20.012 -0.2010  0.0800  0.0408
72612W        W73476  14.315   4.903   0.210 -0.1006  0.2612 -0.0187
72613W        W73477   7.876  10.305  17.162 -0.4487 -0.0363  0.0496
72614W        W73478  17.750  21.548   3.290  0.1175  0.1624 -0.2440
72615W        W73479   8.042  17.606  25.056  0.3009  0.1260  0.0957
72616W        W73480  13.795   9.167  25.953 -0.1786  0.0930 -0.0501
72617W        W73481  13.470  21.196  16.717  0.1794  0.0023 -0.0528
72618W        W73482  25.141  22.791  12.590 -0.1450 -0.0755  0.0363
72619W        W73483  14.694  25.993   1.169 -0.0192 -0.2941 -0.0907
72620W        W73484   6.133  10.319  23.626  0.1305  0.1066 -0.0202
72621W        W73485  27.711  16.984   2.795 -0.3590 -0.0105  0.2930
72622W        W73486  17.155  28.566  26.115  0.0405 -0.0746  0.3691
72623W        W73487  14.868  21.970   1.013 -0.0515 -0.1469  0.1632
72624W        W73488   7.932  13.678  12.195  0.1270  0.0642 -0.0594
72625W        W73489  24.607  13.610  16.634 -0.0176  0.0987  0.1517
72626W        W73490  21.947   2.517  17.627  0.1053 -0.1773 -0.0656
72627W        W73491  19.122  15.082  18.126 -0.1105 -0.1313  0.3401
72628W        W73492  18.217   0.470  27.098  0.0395 -0.0367  0.0979
72629W        W73493  26.249  14.090   3.000 -0.3214 -0.0141 -0.0750
72630W        W73494  24.652  24.860  27.356 -0.3464 -0.1917 -0.0701
72631W        W73495  22.194   7.799   2.301 -0.0602  0.1505 -0.1826
72632W        W73496   7.697   3.672  17.756  0.1272  0.1188  0.3227
72633W        W73497  24.635  24.112  27.083  0.0186  0.1603 -0.0513
72634W        W73498  16.984  16.462  24.759  0.3047 -0.1551 -0.1315
72635W        W73499  23.419   3.267  23.644 -0.2315 -0.2972 -0.0656
72636W        W73500   2.450  22.532  25.184  0.3459  0.0719  0.1513
72637W        W73501  12.479  22.380  17.958 -0.2932  0.1163  0.3452
72638W        W73502  17.757   3.573   8.805 -0.1029  0.0403 -0.2115
72639W        W73503   0.547  12.316  25.264 -0.1674 -0.2946 -0.0701
72640W        W73504   2.416   1.101   3.437 -0.0118  0.1057  0.2196
72641W        W73505  16.163  20.225   5.160 -0.0813 -0.1316  0.2802
72642W        W73506  22.799   8.934   0.889 -0.2004 -0.2795 -0.0493
72643W        W73507  16.324   0.142   2.142 -0.4405 -0.1770 -0.1163
72644W        W73508  20.936  20.802  21.269 -0.2632 -0.0430 -0.1770
72645W        W73509   0.672  21.908  17.623 -0.0591 -0.2543  0.0507
72646W        W73510  20.335   9.445   5.245 -0.0991 -0.0350 -0.1774
72647W        W73511   7.440   2.043   0.405  0.2542  0.2236 -0.2799
72648W        W73512  14.246   2.225  10.041  0.3417 -0.4266 -0.1901
72649W        W73513  22.846  13.106  20.408  0.5017 -0.1396 -0.1738
72650W        W73514  21.627   3.465  28.287  0.0804 -0.3972 -0.0437
72651W        W73515  19.858  16.006  22.138 -0.1977  0.0847  0.0190
72652W        W73516   3.084  13.256  26.008 -0.1503  0.1039 -0.1777
72653W        W73517  26.868  15.622   5.345 -0.2592 -0.1986  0.0167
72654W        W73518  24.528  10.881   3.702 -0.1701 -0.0148  0.0465
72655W        W73519   6.509  10.464  10.124  0.4412  0.1796  0.0132
72656W        W73520   3.710   4.393   2.132  0.0127 -0.1763 -0.1955
72657W        W73521   6.814  19.005   0.098  0.0258 -0.0732 -0.2848
72658W        W73522   3.898  15.971   0.774  0.2578  0.3541 -0.1453
72659W        W73523  27.059  27.508  22.771 -0.1071  0.1683  0.0050
72660W        W73524  12.330   1.846   8.169  0.1477  0.0060  0.2971
72661W        W73525  21.878   2.468  21.044 -0.0631 -0.3009 -0.1213
72662W        W73526   8.782  12.170  15.033  0.1893  0.2060  0.0457
72663W        W73527  23.090  27.628   1.827 -0.1528  0.1147  0.0465
72664W        W73528  12.568  21.839   6.192  0.1082 -0.2473  0.0021
72665W        W73529  20.432  15.471  24.961 -0.1645  0.0723  0.1003
72666W        W73530  14.684  13.956  20.152 -0.0235 -0.1048  0.0326
72667W        W73531  24.804  20.558  20.569 -0.1230  0.0110 -0.0141
72668W        W73532  23.246  20.877   6.756 -0.3177 -0.5409  0.2781
72669W        W73533   1.985  20.231   6.005 -0.2229  0.4357 -0.0121
72670W        W73534  20.507  27.685   9.524 -0.0511  0.0955  0.4045
72671W        W73535  25.327  24.920  22.479  0.3133 -0.0901 -0.1284
72672W        W73536  28.012  17.239  16.530  0.2590 -0.1667 -0.1045
72673W        W73537  15.101  25.876  22.168 -0.3030 -0.1650 -0.3098
72674W        W73538  27.601  26.275   0.060 -0.1963  0.0454  0.2533
72675W        W73539   7.901  19.307  10.667  0.0117  0.3311 -0.0453
72676W        W73540   5.294   5.398  13.985 -0.0442 -0.2080  0.1024
72677W        W73541   1.259  27.598  10.229 -0.1215  0.0642 -0.2369
72678W        W73542  25.109   4.818   0.453 -0.2174 -0.1888  0.1162
72679W        W73543  13.872  28.460  12.266  0.1857  0.1072 -0.2111
72680W        W73544  20.629  14.276  19.948  0.1340 -0.0704 -0.4388
72681W        W73545   4.934  22.799  19.679 -0.3688 -0.2795  0.0433
72682W        W73546  23.157  10.934   6.989  0.1385  0.2876  0.2830
72683W        W73547  19.884  19.185   4.330 -0.1336 -0.0007 -0.0571
72684W        W73548   0.929  11.046  15.586  0.0408  0.1704 -0.0140
72685W        W73549   2.389  17.406  11.591  0.1971  0.1510  0.0580
72686W        W73550  19.267  22.360   4.889 -0.0051  0.1941  0.1738
72687W        W73551   6.602  17.670  12.932 -0.0676  0.2021  0.0211
72688W        W73552  27.055  14.930   6.562 -0.1326 -0.0694  0.2884
72689W        W73553  22.248   2.774  18.573  0.2757 -0.0100 -0.1473
72690W        W73554  23.905   2.273  21.751 -0.0191  0.0929 -0.1098
72691W        W73555  20.566  20.849  12.684 -0.2188 -0.0974 -0.0080
72692W        W73556  12.740  10.042  24.221  0.1229 -0.1453 -0.2256
72693W        W73557  23.446   6.656   8.081 -0.4034  0.0882  0.0185
72694W        W73558  16.495  26.683  11.472  0.0147  0.2956  0.1534
72695W        W73559  21.371   6.295   2.377 -0.1155  0.1934  0.2352
72696W        W73560   5.597  18.999   9.634  0.1440  0.3006 -0.2224
72697W        W73561  25.369  27.272  29.075  0.1064  0.1067 -0.1552
72698W        W73562  13.980  19.424   8.474 -0.2431 -0.0733 -0.0711
72699W        W73563   2.006   6.385   4.203 -0.2241 -0.3423  0.0967
72700W        W73564   4.312  24.187  21.210 -0.3527  0.3634  0.2828
72701W        W73565  14.040  23.976  20.620 -0.0801 -0.1651  0.0829
72702W        W73566  27.694   0.095   8.480  0.1718  0.1817 -0.0130
72703W        W73567  27.263  26.898  11.468 -0.1723  0.1285  0.2050
72704W        W73568  22.440  19.279   2.079 -0.2439  0.3664 -0.1444
72705W        W73569  26.342  10.172   7.577 -0.4125  0.1659 -0.2110
72706W        W73570  17.847   5.931  12.079  0.1490  0.2342 -0.0084
72707W        W73571  24.536   4.018  16.519  0.4392 -0.0722 -0.1533
72708W        W73572   8.097  29.076   4.937  0.2682 -0.1338 -0.1042
72709W        W73573  17.420  13.420   8.710  0.0814  0.2407  0.2878
72710W        W73574  18.396   1.368  19.457  0.0424 -0.0556 -0.3265
72711W        W73575  15.536  16.676  23.522 -0.0372 -0.1520  0.0559
72712W        W73576  26.931   3.381   6.982  0.0494  0.0170 -0.0468
72713W        W73577  16.010   7.599  11.445 -0.0962 -0.0334  0.0583
72714W        W73578   8.118  13.414   5.178  0.1492  0.1283  0.1720
72715W        W73579   9.847   1.939   9.113  0.4116  0.2070 -0.3355
72716W        W73580   4.213   8.742   3.300 -0.1391  0.1384  0.2125
72717W        W73581  22.885  10.081  10.245 -0.0186  0.0143  0.1386
72718W        W73582  28.614  19.161  17.174  0.1702 -0.0070  0.0565
72719W        W73583   5.690  12.718  27.578  0.3388 -0.2411 -0.1963
72720W        W73584   5.320  10.189  26.362 -0.1200 -0.0867  0.0713
72721W        W73585  24.652   4.698   8.169 -0.0518  0.0347  0.1197
72722W        W73586  18.106   5.152  26.731  0.1390 -0.0893  0.1996
72723W        W73587  21.661  17.411  20.415  0.0861 -0.1880  0.0744
72724W        W73588   2.861  17.404   0.300  0.2394  0.0694  0.0416
72725W        W73589  10.723  12.217  25.081 -0.1070  0.1001 -0.1869
72726W        W73590   9.070  19.918   3.059  0.0678  0.0627 -0.1600
72727W        W73591  25.007  10.952   3.895  0.2228 -0.1153  0.0948
72728W        W73592  24.003  19.907  14.897  0.1226  0.3511 -0.1393
72729W        W73593  10.616   4.568   5.296  0.0466 -0.2119 -0.2488
72730W        W73594   6.453   8.528  20.885 -0.1194  0.4447 -0.1148
72731W        W73595  21.834  19.694  26.437  0.2190  0.2928  0.0851
72732W        W73596  18.978  25.730  14.069 -0.3224  0.3208 -0.0951
72733W        W73597   5.093   5.375  21.046  0.3633 -0.0743 -0.0699
72734W        W73598  15.195   8.706  11.625 -0.1683  0.0229  0.1062
72735W        W73599  20.321  13.612  14.301 -0.0717 -0.1296 -0.3334
72736W        W73600  15.807  19.581  27.206  0.1802  0.0999  0.1171
72737W        W73601  24.688   0.815  28.662 -0.2083 -0.0281 -0.0737
72738W        W73602   1.950  20.068  28.626 -0.0898 -0.0050 -0.4667
72739W        W73603  23.436  10.327  10.306 -0.0222  0.0354 -0.3153
72740W        W73604  10.506  26.800   7.283  0.1229 -0.1166  0.1327
72741W        W73605  25.444   8.390  12.400 -0.0200  0.0514 -0.0459
72742W        W73606  16.117  17.001   0.338 -0.1468  0.2267  0.1123
72743W        W73607  27.505   4.824  27.218  0.1905 -0.2460 -0.0497
72744W        W73608   0.765  12.413  26.729  0.0465  0.0879  0.4627
72745W        W73609  27.456   9.141  19.641  0.0791  0.4830 -0.0547
72746W        W73610  18.260  12.146   7.500 -0.1823 -0.1512 -0.2198
72747W        W73611   2.841   9.230  14.919 -0.0474  0.4684  0.2699
72748W        W73612   9.018   9.653   0.431  0.1879  0.0690  0.0740
72749W        W73613  22.066  11.168  16.349  0.1064 -0.0271 -0.0358
72750W        W73614  19.690  10.118  21.887 -0.2458  0.0552  0.4937
72751W        W73615  20.450  24.314  18.568  0.0926 -0.1862 -0.2377
72752W        W73616   5.243  27.527   4.433  0.1408 -0.1933 -0.0982
72753W        W73617   1.895   5.283  14.174 -0.1971 -0.2952 -0.1258
72754W        W73618   9.384   0.249   6.269 -0.0178  0.0767  0.1861
72755W        W73619  21.940   9.664   1.887  0.0382 -0.1014 -0.0967
72756W        W73620  24.482  28.274   6.296  0.1785 -0.0222 -0.0849
72757W        W73621  25.151  27.052  16.102  0.1456 -0.2477  0.0652
72758W        W73622  10.143  12.242  11.941  0.3557 -0.0811 -0.2458
72759W        W73623  19.778  17.395  20.177 -0.0876 -0.0822 -0.1017
72760W        W73624  21.314  21.564  28.324 -0.0292  0.2221 -0.0403
72761W        W73625   3.209   3.126  15.860 -0.1604 -0.1938 -0.1786
72762W        W73626  21.614   4.288  25.127 -0.0376 -0.0270 -0.1181
72763W        W73627  20.169   1.213  22.261 -0.3107 -0.2896 -0.0881
72764W        W73628  27.527  20.156   2.517  0.1990 -0.3902 -0.1222
72765W        W73629  28.942  24.487   0.389 -0.3722 -0.1819  0.0954
72766W        W73630   0.282   1.767  19.392  0.0553  0.0986  0.0260
72767W        W73631  10.549  14.620  28.009 -0.0373 -0.0724  0.1198
72768W        W73632  22.863  26.165  29.142 -0.0628 -0.2103 -0.0741
72769W        W73633   2.258  16.522  19.071 -0.0345  0.0951 -0.1849
72770W        W73634   9.832  28.530   1.854 -0.1317 -0.1516 -0.1654
72771W        W73635   1.859  28.678  28.275  0.2794 -0.1649  0.0412
72772W        W73636   5.163  10.909  28.698 -0.3064  0.0642  0.0779
72773W        W73637   3.404  27.082  13.686  0.0999  0.3003 -0.4383
72774W        W73638   6.252  19.817   0.612 -0.1119 -0.0362  0.1071
72775W        W73639   5.436  12.888  10.172 -0.0948  0.1996 -0.0485
72776W        W73640  25.273   3.238   6.261  0.1276 -0.2354 -0.0593
72777W        W73641  13.923  11.593  26.829 -0.1167  0.0432 -0.1042
72778W        W73642  26.660  25.123   0.827 -0.0335 -0.0817  0.0995
72779W        W73643  13.005  21.060   7.695 -0.1086 -0.0616 -0.3048
72780W        W73644  22.646  28.523  27.833 -0.0280  0.3472 -0.0341
72781W        W73645  16.276   0.850  16.632 -0.1043  0.0660  0.1210
72782W        W73646   4.278  11.145  13.033 -0.2016  0.1889  0.0417
72783W        W73647   1.450  15.093   8.064 -0.0457  0.2067 -0.1050
72784W        W73648   6.431  16.124  21.761 -0.0710 -0.1864 -0.2092
72785W        W73649   0.249  10.296   9.839  0.1973  0.1531 -0.0141
72786W        W73650  22.372  15.681  27.370 -0.1732 -0.2658 -0.0553
72787W        W73651  18.849   1.470  19.853 -0.1530  0.0553  0.3527
72788W        W73652  25.677   2.121  26.713  0.1690 -0.1538 -0.4175
72789W        W73653   4.655  17.519  23.267 -0.1553  0.0639  0.0974
72790W        W73654  26.455  10.399   9.122  0.2454 -0.0051  0.0889
72791W        W73655  14.954  20.577  25.200  0.0353  0.2170 -0.1108
72792W        W73656  21.762  20.740   3.707  0.1125  0.2138  0.1716
72793W        W73657   0.826   9.112   7.091 -0.2368  0.1200  0.1731
72794W        W73658  22.791  17.043  10.170  0.0603  0.0912  0.1393
72795W        W73659   2.752  21.749  20.211 -0.2714 -0.0328 -0.2494
72796W        W73660  25.141  10.437   7.075 -0.1378 -0.3471 -0.1737
72797W        W73661  26.512   8.305   8.800  0.4599 -0.2035  0.2489
72798W        W73662   5.493   1.297   3.641  0.0539  0.0172  0.2736
72799W        W73663  13.434  16.775   1.943 -0.0688  0.2381 -0.0666
72800W        W73664  23.080   2.535  23.826 -0.1012  0.0520  0.1678
72801W        W73665  13.309  23.390  14.080 -0.0980 -0.0228 -0.3753
72802W        W73666   4.977  21.274  11.932 -0.1765 -0.0302 -0.0254
72803W        W73667  24.409  20.520   1.669 -0.0005  0.2304  0.1538
72804W        W73668  17.408  27.347   0.496 -0.0890  0.1774  0.0732
72805W        W73669  24.519  17.491   8.999 -0.1803 -0.0870 -0.2038
72806W        W73670  14.776  26.087  10.435 -0.0189  0.1623  0.1057
72807W        W73671  27.526   9.164  11.092  0.3282 -0.1581  0.2913
72808W        W73672   0.765  28.044   5.694  0.4413 -0.0947  0.1309
72809W        W73673  18.416  13.453  26.605  0.3688  0.0095  0.0727
72810W        W73674   1.980  20.297   3.930 -0.0875  0.1859  0.1112
72811W        W73675  12.677  19.867   4.201  0.0174  0.1690 -0.1196
72812W        W73676  26.138  13.790  25.960 -0.0914 -0.2175 -0.1758
72813W        W73677   7.097   9.393   6.226  0.0831  0.1364  0.0347
72814W        W73678  27.946   2.011  25.898 -0.2420  0.3550 -0.3242
72815W        W73679  10.048  25.895  28.905 -0.1632 -0.1068  0.1419
72816W        W73680   5.761  26.163  25.386 -0.1933 -0.1443 -0.0184
72817W        W73681  21.855  24.385  10.745  0.1591 -0.0120 -0.1101
72818W        W73682   8.167  24.541  11.294 -0.1554  0.0355 -0.0861
72819W        W73683  19.457  14.213  28.359  0.1540  0.0578  0.2786
72820W        W73684  14.993   8.160  16.612 -0.0994 -0.0021 -0.3217
72821W        W73685  23.013  25.177   0.175 -0.0140  0.1160 -0.2473
72822W        W73686   8.236  22.994   7.417 -0.0640 -0.4117  0.1458
72823W        W73687  23.415  20.603  19.832 -0.0349  0.0193  0.0056
72824W        W73688  15.297  14.752   3.125  0.0948  0.0676 -0.0187
72825W        W73689  21.867  14.152   8.382 -0.0590  0.0086  0.2210
72826W        W73690   5.434  21.879  25.555  0.0457 -0.4107 -0.0284
72827W        W73691  21.762  16.604   4.922 -0.0555 -0.0682 -0.1221
72828W        W73692  18.360  17.540   3.904 -0.2787  0.1613  0.2034
72829W        W73693  16.112   8.645  27.601  0.3373  0.0559 -0.1342
72830W        W73694  12.502  16.963  18.724 -0.4739  0.0173 -0.0979
72831W        W73695  10.017  22.413   6.195 -0.2681 -0.2312 -0.0174
72832W        W73696   9.457  26.524  14.862 -0.0990  0.0239  0.0119
72833W        W73697   1.682   3.531   7.027 -0.0961  0.2647 -0.1645
72834W        W73698  20.595  23.116  22.751 -0.1418 -0.1844 -0.2190
72835W        W73699  26.348   7.380   0.603 -0.2057  0.0788 -0.4775
72836W        W73700  25.196  16.874   1.519 -0.0497 -0.1915 -0.1447
72837W        W73701  22.985  14.825   6.527 -0.0284  0.1053  0.2912
72838W        W73702  18.755  26.696   7.930 -0.2374  0.2583  0.1468
72839W        W73703  18.530  19.262  23.099 -0.1242 -0.1065 -0.2400
72840W        W73704   8.802  21.492  27.643 -0.1043  0.2456 -0.1631
72841W        W73705  28.166  24.999  16.748 -0.1310  0.0460 -0.1045
72842W        W73706  13.474  20.360  25.599  0.3747 -0.1151 -0.1952
72843W        W73707  26.550   1.061   9.807  0.1054  0.1208  0.1707
72844W        W73708  25.099  24.268  13.015 -0.0587  0.2802 -0.0152
72845W        W73709  15.466  14.462  21.679 -0.2478 -0.1763 -0.0879
72846W        W73710  15.485  13.763   7.539 -0.1182 -0.1020 -0.0016
72847W        W73711   2.499  11.567  11.099  0.0509  0.1856  0.2167
72848W        W73712   1.418  17.660  15.556 -0.2767  0.0903  0.0056
72849W        W73713  27.317   6.826   9.695 -0.0621 -0.2497  0.2684
72850W        W73714  25.851   7.418   5.900  0.2078  0.2139 -0.2205
72851W        W73715   0.433  13.127   4.007 -0.1885 -0.0581  0.1480
72852W        W73716  24.418  24.232   0.652 -0.0951  0.1005 -0.3078
72853W        W73717  20.472  10.617  26.818  0.2736 -0.2559 -0.3687
72854W        W73718  28.513   0.873   6.125  0.2660  0.0823  0.3335
72855W        W73719  24.367   8.424  28.602 -0.0804 -0.2035  0.1684
72856W        W73720  10.515  22.536  28.522 -0.2772  0.1220 -0.0085
72857W        W73721  14.682  15.523   5.811  0.1791 -0.1780 -0.0888
72858W        W73722  19.235  27.020  17.967  0.1132 -0.1013  0.0956
72859W        W73723  14.174  15.669  20.997 -0.0511  0.1808  0.2226
72860W        W73724   5.197  28.168  18.038  0.2194 -0.0151 -0.2190
72861W        W73725   1.009  17.332  10.095  0.4180  0.3379  0.2195
72862W        W73726  21.573   2.602   0.523  0.2646  0.3082  0.1275
72863W        W73727  17.779  25.112   2.907  0.2214 -0.3579 -0.1510
72864W        W73728  22.966   6.854   6.097  0.0391 -0.0680 -0.4328
72865W        W73729  14.287  21.323  10.175 -0.1057 -0.0020 -0.2461
72866W        W73730  25.575  24.073   7.545  0.1204 -0.0929  0.1966
72867W        W73731   3.851  16.672   4.514 -0.0700 -0.3374  0.4206
72868W        W73732  27.937   5.497  21.108  0.0055  0.2969  0.2083
72869W        W73733   5.922  18.622  24.520 -0.0992  0.1322 -0.1098
72870W        W73734   6.311   6.764   7.245  0.2812  0.1637  0.0034
72871W        W73735  22.707  16.263   2.648 -0.2333  0.0130  0.1488
72872W        W73736  24.750  20.527  20.107  0.0425  0.1479 -0.3001
72873W        W73737   4.317  11.817  11.051 -0.1108  0.0201 -0.1232
72874W        W73738   1.362  20.095  29.026 -0.1276  0.0134 -0.1908
72875W        W73739   2.940  15.250  18.239  0.0065  0.0608  0.0544
72876W        W73740  15.157  19.883  14.535  0.0153 -0.1754 -0.1073
72877W        W73741  13.548  11.659   2.889  0.0292 -0.0636  0.2895
72878W        W73742  11.298   8.968   1.440 -0.0276 -0.0102 -0.3330
72879W        W73743  24.456   7.673   3.103 -0.0973  0.0218  0.0026
72880W        W73744  27.210   5.422  24.001 -0.2314  0.0731 -0.2417
72881W        W73745   2.757   0.948  25.655 -0.0032  0.0059 -0.2090
72882W        W73746  19.144  27.857   1.786 -0.0141 -0.3049  0.1918
72883W        W73747  18.201  26.056   8.379 -0.0190 -0.1455 -0.4111
72884W        W73748   7.691   7.496  22.782 -0.1517  0.0301  0.1539
72885W        W73749   1.572   0.357  11.744 -0.3403  0.2460  0.0619
72886W        W73750  13.998  22.429   3.417 -0.0636  0.0483 -0.0587
72887W        W73751  24.965  11.417  18.560  0.1481 -0.0851 -0.0411
72888W        W73752  12.665   3.186  28.041  0.4462 -0.2150  0.0105
72889W        W73753   2.789   1.202   8.218 -0.0638  0.1742  0.2011
72890W        W73754  14.194   1.057  27.866  0.1106 -0.0141  0.0030
72891W        W73755   6.867  25.800   2.713  0.0065  0.2661 -0.1086
72892W        W73756   6.310  16.516  26.177  0.1956 -0.0209 -0.4345
72893W        W73757  13.762  15.935   2.103  0.2718 -0.1600 -0.0925
72894W        W73758   1.918   6.022  20.978  0.1691  0.5386  0.0420
72895W        W73759   9.055  24.889  26.624  0.1607  0.1905 -0.2385
72896W        W73760  23.649   6.818  24.065  0.1467 -0.0048 -0.1198
72897W        W73761   8.640  19.736   2.911  0.0450 -0.1489  0.2406
72898W        W73762   7.310  22.305   0.214 -0.0004  0.0240 -0.0492
72899W        W73763   4.885   6.885   9.472 -0.1129  0.0751 -0.1115
72900W        W73764  19.002  21.664  22.800 -0.0597  0.0034 -0.0316
72901W        W73765   7.713  20.921  11.310 -0.2402  0.2789  0.1549
72902W        W73766  17.677  21.033   8.864  0.1518 -0.1657 -0.0055
72903W        W73767  27.549   9.297  26.201  0.1956  0.1458 -0.1293
72904W        W73768  20.997  14.368  19.525  0.2109 -0.2788  0.1328
72905W        W73769  19.299  22.611   2.243  0.2666  0.0121 -0.0057
72906W        W73770  22.513  18.281  28.512 -0.0479  0.0822  0.2437
72907W        W73771  27.695  18.175  19.962  0.0671 -0.1454 -0.0074
72908W        W73772  18.069  19.905  20.482 -0.1131  0.1211 -0.0139
72909W        W73773  14.048  11.880   3.976 -0.3264 -0.1846 -0.0714
72910W        W73774   1.716   9.530   4.076 -0.1441 -0.0554 -0.0151
72911W        W73775  27.434  19.814  28.219 -0.1980  0.2151  0.0639
72912W        W73776  18.341  22.292   6.186  0.2216 -0.1178  0.0485
72913W        W73777  25.122  25.558   4.977  0.0247 -0.1970  0.1890
72914W        W73778  15.617  23.474   2.206  0.1467 -0.0180  0.1700
72915W        W73779   3.889  20.950   4.839 -0.1586 -0.1542  0.1958
72916W        W73780   1.597  23.753   2.235  0.1361 -0.2177  0.1851
72917W        W73781  23.470  28.412  21.949  0.1960  0.0901 -0.0747
72918W        W73782  14.778  14.469   3.002 -0.1381 -0.1816  0.0664
72919W        W73783  26.537  24.299  17.576  0.1103 -0.0983  0.2672
72920W        W73784  14.207  20.425   7.759 -0.2100  0.0663  0.0255
72921W        W73785  21.095  22.806  24.473  0.3228 -0.1140  0.0157
72922W        W73786   5.026  20.857   2.262  0.2934  0.4230  0.1402
72923W        W73787  16.670  17.194  25.107  0.1833  0.0414 -0.3193
72924W        W73788  15.545   2.556   7.624 -0.0562  0.3682  0.0735
72925W        W73789  18.555   0.310   1.750 -0.0094  0.1146  0.1874
72926W        W73790  23.348  23.539  16.005  0.1847  0.1517 -0.2867
72927W        W73791   3.675   5.642  26.229 -0.1256 -0.1928  0.0158
72928W        W73792  25.410   9.158   4.137  0.0757  0.2219 -0.6373
72929W        W73793   2.418  17.298  17.960 -0.0996  0.0987  0.0446
72930W        W73794   2.026  18.795   0.111 -0.0912  0.1673 -0.0816
72931W        W73795  15.635  16.733   8.181  0.1612  0.2831  0.0992
72932W        W73796  18.515  24.288  27.289 -0.1206 -0.2434 -0.0021
72933W        W73797  19.617  19.217   1.361 -0.1234 -0.3398  0.0243
72934W        W73798  21.727  12.086  26.334 -0.2620 -0.0836  0.1334
72935W        W73799  23.801  19.857  10.835 -0.0985  0.3027 -0.1926
72936W        W73800  23.884  13.551  17.259  0.2192 -0.0205 -0.1295
72937W        W73801  19.770  23.853   0.738 -0.0597 -0.0247 -0.1392
72938W        W73802  25.185  28.170  10.385 -0.0554  0.0797  0.1434
72939W        W73803  25.850   0.906  21.046 -0.1250 -0.1282  0.1568
72940W        W73804  22.759  23.656  11.317 -0.3327 -0.0609  0.1094
72941W        W73805  18.290  13.057   0.184  0.1295 -0.2833 -0.0784
72942W        W73806  18.367  26.878   5.817  0.0330  0.3645  0.1074
72943W        W73807  11.252   0.444  27.762 -0.1018  0.1162  0.1425
72944W        W73808  13.018   0.299  12.492  0.0954  0.1599  0.0196
72945W        W73809   1.054  26.460  26.673  0.2437 -0.0844 -0.1759
72946W        W73810   8.844  24.535   8.660  0.0619  0.0446 -0.3739
72947W        W73811   9.776   9.063   9.631 -0.3686  0.0456  0.2362
72948W        W73812  25.922  20.484   6.057 -0.2234  0.5009 -0.5284
72949W        W73813  26.598  16.519   2.397  0.0134  0.0450 -0.0618
72950W        W73814  13.732  13.401   6.746  0.3132  0.2042 -0.2222
72951W        W73815  19.494   5.137   4.984 -0.0739 -0.1379  0.2762
72952W        W73816  12.943   2.810   0.629 -0.1084 -0.0562 -0.2106
72953W        W73817  10.863  25.809  11.022 -0.0755 -0.4474  0.1231
72954W        W73818  19.965   3.728   8.762 -0.1036  0.0647 -0.1270
72955W        W73819  23.494  13.219  28.138 -0.0775  0.4020  0.0870
72956W        W73820  22.293  23.096  28.263  0.2462 -0.1173 -0.0662
72957W        W73821  16.262   1.732  20.431  0.3231  0.1396  0.1829
72958W        W73822  10.845  23.662   2.336 -0.0456 -0.0462  0.1588
72959W        W73823   2.183   9.061   0.452  0.2627 -0.3013  0.0939
72960W        W73824   2.324  20.779   2.873 -0.3491 -0.2244 -0.0241
72961W        W73825  16.518  26.391  20.668  0.1774  0.0865  0.2420
72962W        W73826   1.085  17.346  25.612 -0.1344 -0.1440 -0.2642
72963W        W73827  11.042  25.903  25.657  0.2269  0.0788 -0.2569
72964W        W73828  15.638  15.505   0.230 -0.0387 -0.1245  0.0383
72965W        W73829  19.095  25.859  24.744 -0.1026  0.3433  0.3390
72966W        W73830  15.823   0.158  27.951  0.1133 -0.1134  0.0008
72967W        W73831  21.004   5.391  27.472  0.3813 -0.0690 -0.2405
72968W        W73832   6.287  19.043   5.156 -0.0332 -0.1770 -0.2536
72969W        W73833   0.664   9.452  24.000  0.0462  0.0372 -0.0992
72970W        W73834  18.373   6.351   7.776 -0.1371 -0.0841  0.3768
72971W        W73835  12.006  13.450  24.703 -0.0580  0.0871  0.1730
72972W        W73836  20.024  26.815   6.140 -0.2349  0.1378 -0.1004
72973W        W73837  11.408   7.981  14.813  0.1864  0.2954 -0.0966
72974W        W73838   2.280  27.770  22.153 -0.0894  0.0615 -0.1666
72975W        W73839  17.915   8.652  19.683  0.0833 -0.0217 -0.2108
72976W        W73840   6.927  10.889   3.372  0.0498  0.2812  0.3050
72977W        W73841  22.352  25.554  22.723  0.2856 -0.0783  0.0012
72978W        W73842  10.174   3.966  28.682  0.0990 -0.1073 -0.2335
72979W        W73843  13.224  23.332  28.773 -0.0044 -0.1819 -0.0357
72980W        W73844  14.237  23.493  27.558  0.1454 -0.2671 -0.0630
72981W        W73845  22.653  13.359  28.711 -0.1276  0.4175 -0.1380
72982W        W73846  16.339  27.634  11.730  0.2527 -0.0480 -0.0904
72983W        W73847  13.780  10.401  21.244 -0.1553  0.3752 -0.0208
72984W        W73848  16.010  28.791  25.276 -0.0433 -0.1605  0.1762
72985W        W73849  23.572  24.493  20.403 -0.0573 -0.0836 -0.0887
72986W        W73850  25.508   5.769   1.207  0.0220  0.0906  0.1502
72987W        W73851  15.241  21.111   2.176  0.0798 -0.1269  0.0186
72988W        W73852   5.134  25.348   0.345 -0.0504 -0.1629 -0.1874
72989W        W73853   4.861   4.336  16.951 -0.1264 -0.1945  0.0114
72990W        W73854   6.253   1.751  27.008  0.1235 -0.0986  0.1211
72991W        W73855   2.912  26.773  15.476  0.1719  0.3411 -0.1397
72992W        W73856   6.012  17.849   1.265  0.1160  0.2078  0.1767
72993W        W73857   9.373   2.824   7.116 -0.1377  0.1757  0.3916
72994W        W73858  11.550  17.697   6.174  0.1876  0.1108  0.0310
72995W        W73859  16.992   9.980  19.988  0.1063  0.2066 -0.0034
72996W        W73860  25.363  13.639   9.489  0.1457 -0.0709  0.2681
72997W        W73861  13.717  28.468   3.692 -0.1952 -0.1634  0.0556
72998W        W73862   4.793  22.022   6.347 -0.0547 -0.0031  0.1412
72999W        W73863  18.648  23.394  24.090 -0.2488  0.0111 -0.0560
73000W        W73864  23.722  28.365   7.650 -0.1208 -0.1459 -0.1022
73001W        W73865  12.620  28.975  14.137 -0.1258 -0.2031 -0.0122
73002W        W73866   7.908   7.598   3.336  0.2083 -0.1144  0.0670
73003W        W73867  21.641  27.698  25.312 -0.1397 -0.1049  0.0159
73004W        W73868  15.894  19.343   3.575  0.2144  0.1149  0.2411
73005W        W73869  12.289  11.940   6.588 -0.0597  0.0439 -0.0291
73006W        W73870  19.874  19.701  28.252  0.0254  0.2664 -0.0901
73007W        W73871   6.618  11.607  16.793  0.2621 -0.0980 -0.0593
73008W        W73872  19.891  15.888  14.119  0.3401 -0.1689 -0.4723
73009W        W73873  15.744   3.196  17.913  0.2436  0.2869 -0.2564
73010W        W73874  26.911  19.793  23.355 -0.3378 -0.3344  0.0564
73011W        W73875  10.989   1.045  26.401 -0.0314 -0.0841 -0.1160
73012W        W73876   7.434   1.984   4.038  0.2087  0.0582  0.1219
73013W        W73877  24.904  16.042  25.656 -0.2221  0.1990  0.2569
73014W        W73878  17.429  26.883   7.053  0.0527  0.1739 -0.0978
73015W        W73879   4.061  24.616  11.689 -0.2050  0.0457  0.1419
73016W        W73880   4.038  22.194  26.049 -0.2059 -0.1271 -0.0400
73017W        W73881  26.884  11.448  23.439  0.0703 -0.2304 -0.0741
73018W        W73882  16.869  19.894   1.976 -0.3465  0.0590 -0.0662
73019W        W73883  10.038  19.976   5.434  0.0158 -0.0197  0.0562
73020W        W73884   5.646  26.387   4.130 -0.1259  0.1168  0.2031
73021W        W73885  11.425  19.502  25.194 -0.0720 -0.1784 -0.0883
73022W        W73886  14.623  14.726   7.418  0.0752 -0.4211 -0.1677
73023W        W73887  14.766  20.089  15.710  0.1831 -0.0189 -0.1852
73024W        W73888  10.443   3.220   0.404  0.1644 -0.2402 -0.1367
73025W        W73889  17.786  15.209   8.648 -0.0226 -0.0862  0.0265
73026W        W73890  11.458  10.468  22.112  0.1977 -0.0145  0.4341
73027W        W73891   0.924  18.713   1.401 -0.2419  0.1540  0.0464
73028W        W73892   5.081  24.857  13.262 -0.0695 -0.0046 -0.0936
73029W        W73893  12.997  23.301   4.931  0.2057 -0.1127 -0.2453
73030W        W73894  23.877   0.374   0.408 -0.0473  0.3665  0.0895
73031W        W73895   7.611  27.896   3.566 -0.0049 -0.4677  0.0890
73032W        W73896  18.839   8.429  22.034  0.2607 -0.2421  0.0990
73033W        W73897   0.283  12.180   0.157  0.2313  0.0190  0.1798
73034W        W73898  15.922  20.916  28.459  0.1021 -0.1119 -0.0041
73035W        W73899  10.555   3.509  28.569  0.2809  0.2755 -0.0822
73036W        W73900   3.135  11.174   5.368 -0.2052  0.3996 -0.3731
73037W        W73901  17.979   4.782  23.508  0.0104 -0.1275 -0.2003
73038W        W73902   7.339  21.028   4.336 -0.0084  0.0855 -0.0374
73039W        W73903  23.573  20.108   2.380 -0.0705  0.2335 -0.0389
73040W        W73904   3.353   0.200  18.963 -0.2786  0.1237  0.2178
73041W        W73905  26.273   4.751   3.746  0.0194 -0.1897  0.0677
73042W        W73906   4.023  15.771   3.070  0.0422  0.0645 -0.0543
73043W        W73907  27.057  28.457  24.034 -0.0605 -0.0508  0.1804
73044W        W73908  11.235   6.881  24.781  0.2218  0.3259  0.0120
73045W        W73909  18.749  21.602  28.540  0.2557  0.2039  0.1985
73046W        W73910  13.668  17.799  23.992 -0.2742 -0.0193 -0.3350
73047W        W73911   3.030  10.473  13.481  0.1859 -0.1568  0.0328
73048W        W73912   6.819   4.154   5.884  0.5496  0.0767 -0.0116
73049W        W73913   9.107  14.960  28.418  0.1217 -0.0864 -0.0945
73050W        W73914   5.863   3.560   0.777  0.2094 -0.1485 -0.3660
73051W        W73915  25.951   7.452  28.821 -0.0085  0.0780  0.1190
73052W        W73916  24.899  19.138  28.496 -0.2305  0.0207  0.0886
73053W        W73917   9.287  12.519   2.996  0.0853 -0.1476  0.0216
73054W        W73918  25.918  15.834   7.306  0.0639  0.1041 -0.1716
73055W        W73919  21.091  19.545  19.674  0.0853  0.2781 -0.0114
73056W        W73920  14.134  22.632   9.397  0.0609  0.0398 -0.0129
73057W        W73921   2.199   9.583  13.543 -0.1509 -0.2365 -0.2800
73058W        W73922  28.736   1.654  26.976  0.0617 -0.0106 -0.1187
73059W        W73923  15.645  19.802   2.003  0.1934 -0.2130  0.4113
73060W        W73924  16.951  17.959  16.377 -0.1394  0.1670  0.0707
73061W        W73925  19.025  21.895  28.848 -0.0269  0.2143 -0.3609
73062W        W73926  17.840  24.953  23.714  0.4685 -0.1396  0.1844
73063W        W73927   6.794  16.184   8.266  0.0958  0.2888  0.3191
73064W        W73928  26.923  21.143  12.701 -0.0424 -0.2543 -0.1131
73065W        W73929  16.062   6.564   5.174  0.2691 -0.4074  0.0275
73066W        W73930  18.628  26.480   0.232  0.1251  0.1318 -0.1313
73067W        W73931  25.623  25.014   7.140  0.2108 -0.2816 -0.0670
73068W        W73932  20.908  28.246  11.181  0.1375  0.3427 -0.1838
73069W        W73933   7.636  10.101  16.521 -0.0811  0.0395  0.2065
73070W        W73934  27.523  21.149  20.809  0.2456  0.0120 -0.0407
73071W        W73935  18.772  10.552  15.996 -0.0962  0.3144  0.1157
73072W        W73936  14.575  26.301   4.224 -0.3631 -0.0851  0.0935
73073W        W73937  23.692  28.016  26.592  0.0363 -0.0367  0.2877
73074W        W73938  24.686   9.617  27.201  0.4502  0.2195 -0.0889
73075W        W73939   3.396  18.710   4.986  0.2192  0.1463 -0.0910
73076W        W73940   4.780   5.850   7.242 -0.0597  0.2347  0.0910
73077W        W73941  19.675   6.825  19.801  0.0535  0.0172 -0.0974
73078W        W73942  18.959   3.765  27.262  0.0486  0.2121 -0.1001
73079W        W73943  18.877   2.048  14.352 -0.1272 -0.0981  0.2305
73080W        W73944  17.200  15.938   8.498  0.0691  0.1266  0.2445
73081W        W73945   1.957  19.320   3.863 -0.2521  0.1671  0.1334
73082W        W73946  11.769   2.349  26.026  0.1554 -0.0144  0.1402
73083W        W73947  25.723  22.803  24.276  0.0679 -0.0514  0.1256
73084W        W73948   4.717   2.328   0.008  0.2340 -0.0337  0.3057
73085W        W73949  21.305  23.388   5.116 -0.1175 -0.1820  0.0039
73086W        W73950  14.407   4.111   9.693 -0.0642  0.0382 -0.0962
73087W        W73951  22.970   4.703   1.204 -0.2361  0.0287  0.1194
73088W        W73952  20.158  13.396  21.342  0.3611 -0.2839 -0.1000
73089W        W73953  21.483  23.553   4.142  0.0356  0.1870 -0.0236
73090W        W73954  18.451   0.039  24.574 -0.0485  0.1360  0.2873
73091W        W73955   8.202  22.169  27.168  0.2780  0.0623 -0.0611
73092W        W73956   1.433  21.735   2.274 -0.1180 -0.2230  0.0439
73093W        W73957  23.507  29.063  24.576 -0.3105 -0.0104  0.1018
73094W        W73958  29.097  25.624  15.234 -0.3618  0.0055 -0.0044
73095W        W73959  27.709   6.937  22.012 -0.3984  0.0370 -0.0871
73096W        W73960   2.925  25.427   3.424  0.2135  0.0898 -0.2438
73097W        W73961   0.915  13.985  28.280 -0.0743 -0.1318  0.1428
73098W        W73962  28.032   0.233  26.467 -0.1533  0.3155  0.0455
73099W        W73963  11.133  28.970  28.418  0.2791  0.1766  0.2619
73100W        W73964   0.887  13.305   2.980  0.1001  0.2251 -0.0210
73101W        W73965   2.429   3.559  29.049  0.0643 -0.0875  0.0214
73102W        W73966  17.277  10.783   7.525 -0.0531  0.1127  0.1216
73103W        W73967   7.697  17.509  23.959  0.0332  0.1189 -0.0239
73104W        W73968  28.185   6.619   5.589  0.1215  0.1416  0.0878
73105W        W73969   4.353   7.919  17.005 -0.2237 -0.0704  0.0063
73106W        W73970  11.112   2.438   8.968 -0.2106 -0.1071  0.0640
73107W        W73971   3.542  15.684   5.894  0.1199 -0.4059 -0.0736
73108W        W73972   7.637  14.979   4.492 -0.1676 -0.0710 -0.0719
73109W        W73973   4.095  24.847   4.263 -0.0065 -0.0788 -0.2841
73110W        W73974  26.288  26.225   0.380  0.0761  0.2325  0.0088
73111W        W73975  26.716  21.464  28.043  0.2160 -0.2236 -0.1704
73112W        W73976  16.231   2.764  16.954  0.3052 -0.1012 -0.1771
73113W        W73977  22.352  28.798   0.975  0.1508  0.1301  0.1097
73114W        W73978   2.237  12.047  24.743 -0.1614 -0.0079 -0.1526
73115W        W73979  28.304  21.821   2.737 -0.1734  0.0583  0.0256
73116W        W73980  24.575  26.275   1.999 -0.2529 -0.5022 -0.0218
73117W        W73981   9.348   3.521  27.611  0.2845  0.1754  0.0571
73118W        W73982  16.430  26.923   5.187  0.1449 -0.4431  0.0479
73119W        W73983  22.396  14.618   1.937 -0.0008 -0.3122 -0.1944
73120W        W73984  17.618  13.400  25.727  0.1093  0.1445  0.0206
73121W        W73985  10.699  22.303  17.904 -0.0962  0.0522  0.1600
73122W        W73986  23.239  27.923  15.018 -0.1951  0.3371 -0.1072
73123W        W73987  25.577   8.090  28.664 -0.2759 -0.0944  0.1157
73124W        W73988  20.336  11.346  23.924  0.1858 -0.3128 -0.1948
73125W        W73989   0.777   5.848  23.528 -0.2185  0.1574 -0.0369
73126W        W73990  13.643  28.511  28.869  0.0491 -0.1413 -0.0303
73127W        W73991  12.682  11.605  26.175  0.0414  0.2924  0.0496
73128W        W73992   0.727   9.439  24.918 -0.0560 -0.2636  0.0949
73129W        W73993  23.673  12.689  28.082 -0.4164 -0.1709 -0.2766
73130W        W73994  20.480  28.406   1.702 -0.0515 -0.2037 -0.1816
73131W        W73995  24.693  26.490   3.930  0.3028  0.1666 -0.3956
73132W        W73996  21.035  20.386  27.588  0.0588  0.1295  0.0288
73133W        W73997   7.634  25.522   6.511 -0.1227 -0.0872 -0.3147
73134W        W73998  15.034  14.588  20.896  0.0797 -0.2317 -0.2217
73135W        W73999   3.618   6.410  19.143  0.2100 -0.0960  0.0779
73136W        W74000  22.583   5.260  18.619 -0.0532  0.3444 -0.0079
73137W        W74001  21.861  17.453   4.441  0.1782 -0.0732 -0.0789
73138W        W74002   6.683   2.611   9.126 -0.1789  0.1523 -0.2091
73139W        W74003  24.139  28.901  10.095 -0.0564  0.1181 -0.0907
73140W        W74004  15.340   6.325   2.659  0.2404  0.0884 -0.0849
73141W        W74005  28.230  15.286  25.389 -0.2062 -0.1167  0.0722
73142W        W74006   0.756  27.087  27.020 -0.1391 -0.1149 -0.2676
73143W        W74007  24.777  18.505   7.824 -0.3589 -0.0933  0.1189
73144W        W74008  26.246  21.036   1.628 -0.0682 -0.1486  0.2528
73145W        W74009  27.357  29.039   9.265 -0.1902  0.0857 -0.1801
73146W        W74010  11.230  21.438  22.417 -0.1390 -0.0133  0.0561
73147W        W74011  19.066   8.497  13.674 -0.3445 -0.2289 -0.1492
73148W        W74012  27.266  11.740  15.283  0.0093  0.1397  0.1498
73149W        W74013  10.012   8.320  27.404  0.1562  0.0847  0.0499
73150W        W74014  14.567  26.664  28.251 -0.1214  0.3544 -0.0338
73151W        W74015  20.987  14.410  18.447 -0.2110 -0.0170  0.0726
73152W        W74016  20.873  10.428   0.105 -0.4656 -0.2046 -0.1510
73153W        W74017   4.299  18.733  26.208  0.2309 -0.0173 -0.0733
73154W        W74018  27.192  22.933  20.875 -0.0822 -0.0151  0.1014
73155W        W74019  19.981  11.654   5.849 -0.1142  0.1563 -0.1150
73156W        W74020  17.836  15.415  27.928  0.1109 -0.0582 -0.3039
73157W        W74021  18.209  26.890  22.715 -0.2168  0.0223 -0.0115
73158W        W74022  12.593  11.966   0.659 -0.0237 -0.1092 -0.2637
73159W        W74023  26.689  17.252   6.709  0.1056 -0.1387 -0.0612
73160W        W74024   3.701  26.907  23.447  0.1315 -0.0947 -0.0464
73161W        W74025  22.767  16.855  12.437  0.1317  0.0106 -0.3093
73162W        W74026  11.049  19.955   7.813 -0.1723 -0.0442 -0.0372
73163W        W74027  24.869  28.567  23.287 -0.2124  0.4563  0.0255
73164W        W74028  24.486  23.120  27.085  0.0359  0.0345 -0.0449
73165W        W74029   1.679  19.892  27.318 -0.1232  0.2997  0.0539
73166W        W74030   2.789  15.055  26.864  0.2609 -0.2857 -0.0765
73167W        W74031  24.643  16.629  23.584  0.2174 -0.0243 -0.0943
73168W        W74032  14.244  17.901  20.560  0.2466 -0.0022 -0.0973
73169W        W74033   0.344  24.520   4.087 -0.0631  0.0156 -0.1155
73170W        W74034  15.951  15.596  23.814  0.0302  0.2758  0.0537
73171W        W74035  26.309   9.572   7.329 -0.3114 -0.0902  0.1360
73172W        W74036  27.667   8.877  16.476  0.2128 -0.3267  0.0531
73173W        W74037  24.817   6.472   8.246  0.3100 -0.0758  0.0154
73174W        W74038  10.609  28.044  10.723  0.1211  0.5757 -0.1288
73175W        W74039  18.400  13.945  13.481  0.3453 -0.2397 -0.2083
73176W        W74040  10.525  21.218  25.313  0.0396 -0.1710 -0.0611
73177W        W74041  11.452  20.931  21.846 -0.2789  0.2430 -0.2114
73178W        W74042  22.642  13.741  16.802 -0.0904  0.0240  0.0706
73179W        W74043  17.290  25.770  23.884  0.3034 -0.3120  0.0581
73180W        W74044  22.508  25.151  11.908  0.0302  0.0162  0.3012
73181W        W74045  15.266  21.349   9.596  0.2120 -0.0318  0.1096
73182W        W74046  10.727  20.827   0.560  0.0877 -0.1396 -0.0620
73183W        W74047   4.612   3.374  12.571 -0.1544  0.1856  0.0308
73184W        W74048   3.271  15.452   6.348  0.0971  0.1718  0.0642
73185W        W74049  21.226  22.479   1.888 -0.3236  0.0969 -0.2432
73186W        W74050  29.063   0.603  24.446  0.2190 -0.2140 -0.0306
73187W        W74051  28.448  16.828  19.271  0.0547  0.1995  0.0300
73188W        W74052   5.704  22.090  11.316 -0.0286  0.1975 -0.0337
73189W        W74053  28.162  18.058   5.078  0.1412  0.2062 -0.0958
73190W        W74054  27.540  21.418   2.633 -0.0223  0.2244 -0.0379
73191W        W74055   9.612  26.939  21.809  0.3116  0.1450 -0.3037
73192W        W74056  15.821   9.062  15.323  0.0548 -0.0379 -0.0102
73193W        W74057  27.015  15.759  23.527 -0.1796  0.0694 -0.0588
73194W        W74058  12.468   4.569   6.765  0.1299  0.1232  0.0749
73195W        W74059  14.832  26.253  29.007  0.0204 -0.0037  0.1723
73196W        W74060  15.666  26.088  22.000  0.1213 -0.1167  0.1185
73197W        W74061   9.339  22.851   9.903  0.2130  0.3570  0.1176
73198W        W74062  19.130   3.364  10.488 -0.0016  0.1733  0.0615
73199W        W74063  24.121  20.144  13.809  0.2905  0.1381  0.0778
73200W        W74064   0.879  27.858  11.295  0.1188 -0.1723  0.2120
73201W        W74065   1.701   1.133   7.876 -0.1810  0.1595 -0.4166
73202W        W74066   2.060  28.921   4.894  0.1998 -0.1839  0.0305
73203W        W74067  10.375  25.440   7.705  0.3191 -0.0209  0.2228
73204W        W74068  24.143  25.546  21.593 -0.1136 -0.0860  0.2660
73205W        W74069  24.291  16.275  20.352  0.0397  0.0437 -0.2831
73206W        W74070  21.986  22.746  26.175 -0.0522  0.1754 -0.0496
73207W        W74071   6.341   6.650   5.191  0.1276 -0.2811 -0.0407
73208W        W74072  20.474  27.435   7.393  0.2797  0.1306  0.1350
73209W        W74073  28.335  10.589  26.711  0.1401  0.1187  0.2509
73210W        W74074   1.528   6.777  10.197  0.1114  0.3486 -0.1764
73211W        W74075  25.785  28.561   9.646  0.2089  0.0624  0.1105
73212W        W74076   6.569  27.169  26.645  0.2025  0.2808  0.0004
73213W        W74077  20.869  23.612  25.198 -0.0094  0.3212  0.0249
73214W        W74078  26.075   0.543  28.727  0.0267 -0.1048  0.4784
73215W        W74079   0.540  28.302   7.410  0.4786  0.1280  0.3967
73216W        W74080  12.133  19.800   0.740  0.1785 -0.3199 -0.2286
73217W        W74081   0.386  17.839   7.391 -0.2129  0.3030  0.4190
73218W        W74082  22.369  22.738  17.790  0.1152 -0.0048 -0.3290
73219W        W74083  14.627  17.184   2.502  0.0496  0.0613  0.2210
73220W        W74084   9.044  18.533   5.342  0.0183  0.4161 -0.0282
73221W        W74085  22.393  10.617   7.101  0.0587 -0.3849  0.2774
73222W        W74086  10.812   1.543  14.253  0.1604 -0.1346 -0.2551
73223W        W74087  15.570  12.343  11.858 -0.1689 -0.2977 -0.2606
73224W        W74088   3.724  26.264  19.043 -0.1313  0.1575 -0.1504
73225W        W74089  25.919   4.859   6.249 -0.0341  0.2676 -0.0232
73226W        W74090   3.177   8.088  14.029 -0.1945  0.2169  0.2076
73227W        W74091  25.437   9.597   0.664  0.1843 -0.0611 -0.1336
73228W        W74092  20.085  11.565  24.302 -0.0366  0.1486  0.1670
73229W        W74093  16.138  25.297   6.570 -0.0738 -0.0636  0.0480
73230W        W74094  26.060  23.400   5.626 -0.0630 -0.0975 -0.1508
73231W        W74095  25.784  15.276  19.247 -0.0707 -0.2486 -0.1058
73232W        W74096   7.803  24.123  10.318 -0.0051  0.2893 -0.3163
73233W        W74097  11.866   8.047  27.176  0.1192 -0.1424  0.0536
73234W        W74098  21.925  28.553   0.139 -0.3526  0.0606  0.1842
73235W        W74099  26.657  20.548   5.230  0.2276 -0.1614  0.0096
73236W        W74100   1.320  19.954  12.118  0.0416 -0.5277  0.2817
73237W        W74101  27.008  21.943  28.727  0.2696  0.2320 -0.1536
73238W        W74102  14.742   9.874   1.032  0.2169 -0.0354  0.0765
73239W        W74103   0.013  18.295   5.128 -0.4151  0.4070  0.1573
73240W        W74104  20.782  12.510  23.472 -0.1062  0.1195 -0.1374
73241W        W74105   2.768  18.082   2.824  0.0724 -0.0135  0.1008
73242W        W74106   3.398  19.743   5.091  0.2151  0.2825 -0.1271
73243W        W74107  12.765  21.787   7.428  0.0076 -0.1507  0.4199
73244W        W74108  24.537  10.102  15.442  0.0227 -0.1500 -0.3893
73245W        W74109  21.382   3.099  19.749  0.1066 -0.0244  0.0797
73246W        W74110   0.037  17.564  27.732  0.4100  0.0281 -0.0613
73247W        W74111  17.719   9.155  13.948 -0.0748 -0.2451 -0.1622
73248W        W74112   0.480  23.654  14.713  0.4230  0.1008  0.0727
73249W        W74113  20.745  28.645  25.564 -0.0577 -0.1609 -0.0870
73250W        W74114  25.989   5.206  28.529  0.2363  0.2278 -0.0356
73251W        W74115  10.653   4.617  13.356  0.0320 -0.2595 -0.1951
73252W        W74116  22.921  21.734  13.284  0.2319  0.2068  0.1414
73253W        W74117   3.944  20.812  16.216 -0.1259  0.0395 -0.1609
73254W        W74118  15.449   8.150  18.861 -0.0827  0.1149 -0.1362
73255W        W74119  20.010   5.316  22.260  0.1701 -0.0178  0.1695
73256W        W74120  11.911  19.179   1.436 -0.1091 -0.0095  0.0902
73257W        W74121  23.580   1.064  27.687 -0.4159 -0.1832 -0.0658
73258W        W74122  26.489  28.863   7.936 -0.3316 -0.0460  0.0055
73259W        W74123  23.166  20.056   8.894  0.1777  0.1662  0.2238
73260W        W74124  28.535   3.701  21.408 -0.1813  0.2042  0.0913
73261W        W74125  12.434  13.027   1.866  0.0662 -0.2568 -0.1443
73262W        W74126  16.782  12.983   7.045 -0.2878 -0.0188  0.2110
73263W        W74127  11.830  10.174   2.737 -0.1488  0.0213 -0.0296
73264W        W74128  20.550   7.142  28.132 -0.1036 -0.2480  0.1435
73265W        W74129  22.327   8.650  26.618  0.0219 -0.1314  0.0518
73266W        W74130   1.895  25.740   2.944 -0.0515  0.0713  0.0524
73267W        W74131   0.761  20.067   4.048  0.0369  0.0305  0.1939
73268W        W74132  19.005  16.664   5.836 -0.2490  0.1522  0.1464
73269W        W74133  19.203  19.878  11.523  0.0024  0.0576 -0.1300
73270W        W74134   0.782  26.928  16.110  0.2851 -0.2802  0.1464
73271W        W74135  22.808  16.578  26.650 -0.0925 -0.1655  0.1872
73272W        W74136   8.845  14.759  14.315  0.1393 -0.0804  0.3300
73273W        W74137  28.553   4.068  25.195  0.3232 -0.0569  0.1808
73274W        W74138  27.664  19.897  10.043  0.2641 -0.0806 -0.0438
73275W        W74139  12.225  24.113  27.440  0.0840 -0.0304  0.1560
73276W        W74140  16.969   6.613  24.239  0.1800  0.4294 -0.1236
73277W        W74141  21.746  12.329  25.915 -0.1091  0.3537  0.0314
73278W        W74142   9.303  27.080   9.295 -0.2045 -0.1137  0.0938
73279W        W74143   9.948  27.750  28.775 -0.0381  0.3000 -0.2118
73280W        W74144   4.715   6.810   4.409  0.0948  0.0423 -0.1242
73281W        W74145  11.733  25.624  22.357 -0.0896  0.1155  0.2254
73282W        W74146   9.465  26.207  10.435 -0.1422  0.3280  0.0346
73283W        W74147  17.205   6.865  24.678  0.0716  0.0164 -0.2250
73284W        W74148   2.600  28.855   6.201 -0.1002 -0.2901  0.4004
73285W        W74149  13.522   4.860   4.351 -0.0825  0.0850 -0.0241
73286W        W74150   2.608  18.675   5.415  0.0921  0.0375  0.1066
73287W        W74151  18.721  24.766  28.428  0.0166 -0.3036 -0.1683
73288W        W74152   1.290   1.077   3.415  0.1157 -0.1626 -0.0841
73289W        W74153   5.265   6.600  12.539 -0.2038 -0.1834 -0.0060
73290W        W74154  24.330  28.268  14.322 -0.0277  0.0900  0.0948
73291W        W74155   7.927  17.968  17.036  0.0090 -0.0300  0.1113
73292W        W74156  18.015   3.633  11.417  0.2074  0.3407 -0.0810
73293W        W74157  12.085  27.235  22.825  0.4064  0.0478 -0.0021
73294W        W74158  18.728   7.376  21.477  0.1694 -0.1158 -0.0393
73295W        W74159  27.640   2.020   3.594  0.0539 -0.1756 -0.0113
73296W        W74160  23.700  28.040   8.996  0.0534 -0.1323  0.4911
73297W        W74161  18.291  14.849  10.473 -0.1786 -0.0936  0.5849
73298W        W74162  22.424  23.539  21.959 -0.3272 -0.0989 -0.0567
73299W        W74163   4.343  13.390   4.331 -0.1812 -0.1445 -0.0683
73300W        W74164  20.754  15.652   3.057 -0.1398  0.0567 -0.2470
73301W        W74165   0.030   6.331  18.471 -0.1374  0.0161 -0.3695
73302W        W74166   3.078  15.510  12.327  0.0436  0.2467 -0.1761
73303W        W74167  21.370   0.425  26.999  0.3215 -0.1321  0.1437
73304W        W74168  17.129  26.718  25.692  0.0874  0.0589 -0.1644
73305W        W74169  24.126   4.948   6.958 -0.0636  0.1770  0.0153
73306W        W74170   3.441  21.510   5.572 -0.2303 -0.2305 -0.0904
73307W        W74171  26.442  26.373  26.598 -0.1150 -0.0251  0.1674
73308W        W74172   3.672  17.512   4.630  0.2830  0.0034  0.2533
73309W        W74173  20.427  28.003  10.806  0.2200 -0.0571 -0.0020
73310W        W74174  11.835  21.387   7.476  0.2431  0.1557 -0.0113
73311W        W74175   1.608  21.267  19.492  0.0897 -0.3721  0.0695
73312W        W74176  20.079   7.830  13.081  0.0440  0.0729  0.0971
73313W        W74177   6.666  11.096   1.094 -0.0355 -0.2328 -0.0157
73314W        W74178  25.073   1.405  28.091 -0.0246 -0.2346  0.1925
73315W        W74179  23.934  27.994   4.265  0.2420  0.5572 -0.2769
73316W        W74180   4.973  21.101   9.155 -0.0488  0.0793  0.1424
73317W        W74181  18.549  14.284  28.936 -0.2785 -0.2510  0.0056
73318W        W74182  27.465   4.662  14.726  0.0294 -0.0846 -0.2410
73319W        W74183   9.117  10.695   4.254  0.2967 -0.1959  0.3108
73320W        W74184  23.112  20.501   7.664  0.0462 -0.1252  0.0815
73321W        W74185  26.785   1.187  24.925  0.0497 -0.0359 -0.0663
73322W        W74186   0.238   9.179   7.034  0.0024 -0.2214  0.1901
73323W        W74187  21.314   5.135  23.331  0.0725 -0.0496 -0.2453
73324W        W74188  20.839  11.749  14.748 -0.2583 -0.3204 -0.0496
73325W        W74189   1.058  12.938  17.301 -0.0754  0.0635 -0.0769
73326W        W74190  17.640  18.012  22.974  0.0926 -0.1454  0.2703
73327W        W74191   0.244  16.261   1.002  0.1856  0.0442  0.0243
73328W        W74192  10.054  22.169  12.357  0.1204 -0.0426 -0.2193
73329W        W74193  26.329  12.475   7.266  0.0037 -0.0589  0.1227
73330W        W74194  15.887   3.809   6.416 -0.1241 -0.0244 -0.1873
73331W        W74195   0.884  16.146  24.065 -0.0349 -0.0048  0.0736
73332W        W74196  14.942  23.934   0.002 -0.2180 -0.0532 -0.0976
73333W        W74197  24.325   9.212  26.412 -0.0625  0.0297 -0.0567
73334W        W74198  17.242  27.398  11.273  0.0474 -0.1866 -0.0073
73335W        W74199   4.394  15.504  26.688  0.0428 -0.0607 -0.2055
73336W        W74200  26.617  27.541  28.998 -0.1871  0.0466  0.0593
73337W        W74201  23.930   7.383  21.238  0.0726  0.2096 -0.0330
73338W        W74202   5.250  28.986  17.549  0.0292  0.1337 -0.2013
73339W        W74203  13.294   2.637  10.040 -0.2762 -0.2628  0.1578
73340W        W74204  20.462  27.478   8.128  0.0098  0.3062 -0.2114
73341W        W74205   9.623  24.924   8.238  0.0959 -0.1064 -0.1268
73342W        W74206   4.722  14.717  22.505 -0.2035 -0.1981  0.0733
73343W        W74207  17.842  25.423  16.023  0.0365  0.2013  0.2334
73344W        W74208  22.386  23.409   1.318  0.1317  0.3041  0.1664
73345W        W74209  20.121  24.042  20.181  0.0378  0.1518 -0.1137
73346W        W74210  28.190   3.603   2.168 -0.1365 -0.1748 -0.0859
73347W        W74211  21.339   9.185   3.453  0.2563  0.1888  0.2181
73348W        W74212  26.259  27.999   5.884  0.4017 -0.1790  0.1986
73349W        W74213   1.424  18.703   6.785 -0.0336 -0.2160  0.2192
73350W        W74214  14.882  14.616  28.036 -0.1207 -0.0814  0.0191
73351W        W74215   9.696  19.407  24.595  0.4066 -0.2287 -0.0152
73352W        W74216  19.772  27.263   5.311  0.0724 -0.0404  0.0254
73353W        W74217  20.383   2.494  14.611  0.0351  0.0477  0.1657
73354W        W74218   0.271   9.999  12.757 -0.2502  0.0403  0.0994
73355W        W74219   0.023  22.323   5.223 -0.0321 -0.0365 -0.0648
73356W        W74220  22.567  11.730  19.229 -0.3375  0.3013  0.0907
73357W        W74221   6.471   8.463   4.571 -0.1226 -0.1136  0.1820
73358W        W74222   3.612   5.549  10.744 -0.0461 -0.0950 -0.0402
73359W        W74223   4.231   2.481  14.381 -0.1307 -0.1661  0.2220
73360W        W74224  28.058  25.067  13.003  0.0374 -0.1095  0.3443
73361W        W74225  10.381  17.582  19.981 -0.3172 -0.0286 -0.0910
73362W        W74226  21.894  15.059   2.709  0.0284 -0.1032 -0.0253
73363W        W74227   5.784  21.740  17.237 -0.0603 -0.1037 -0.3652
73364W        W74228  12.998  28.068  10.874 -0.1476  0.5716  0.2984
73365W        W74229  23.005  15.024   1.286  0.4324  0.0143 -0.1363
73366W        W74230  20.624  17.053   7.555 -0.0101  0.2923 -0.0422
73367W        W74231   0.910  23.361  10.971  0.0105 -0.2088  0.1272
73368W        W74232   3.492   5.608   5.007  0.1926  0.1667  0.1163
73369W        W74233  12.620  27.940   6.324  0.2575  0.0292  0.0249
73370W        W74234  21.950  20.440   2.900  0.0154  0.1803 -0.5631
73371W        W74235  18.080  20.299  17.820 -0.0871  0.2862 -0.1142
73372W        W74236  23.074  24.401   3.124  0.0986  0.0389 -0.1430
73373W        W74237   5.501   5.474   9.316 -0.2231  0.0715  0.1092
73374W        W74238  24.991  20.429  18.391 -0.0560 -0.1643 -0.1263
73375W        W74239  12.989  18.628  22.522  0.0135  0.0771  0.1413
73376W        W74240  28.084   6.737   3.179  0.0807 -0.0876  0.3494
73377W        W74241   8.559  19.913   2.050  0.0282  0.0443 -0.0614
73378W        W74242  18.041   1.273  10.699  0.0181  0.1059 -0.0522
73379W        W74243  21.392   9.400  14.328 -0.1329 -0.1684 -0.0968
73380W        W74244  12.746  27.902   0.870  0.0628  0.2375 -0.1966
73381W        W74245  10.203   3.557   2.756  0.0337 -0.1970  0.0849
73382W        W74246   5.536  23.098  20.056 -0.2434 -0.0857  0.0281
73383W        W74247   4.386  20.247   5.678  0.1635 -0.1285 -0.0153
73384W        W74248  18.213  23.108  25.111  0.0211  0.1493  0.2750
73385W        W74249  20.475  16.095  18.618 -0.4138 -0.1041 -0.1984
73386W        W74250  28.636  20.942  25.534  0.2007  0.0414 -0.0380
73387W        W74251  28.403   7.225   4.080  0.1221 -0.2097  0.0959
73388W        W74252  14.327  13.746   5.428  0.0678  0.0819 -0.0382
73389W        W74253  26.771  11.809  25.483 -0.1313 -0.0539  0.0235
73390W        W74254  28.424   4.147   9.809  0.0756 -0.1526  0.2223
73391W        W74255  13.325  22.790  28.865 -0.1606  0.0893 -0.0112
73392W        W74256  15.316  16.714   2.999 -0.2645  0.1779  0.0190
73393W        W74257   9.284  18.444  10.791  0.2171 -0.1702 -0.0508
73394W        W74258   8.309  20.570  11.924  0.2238 -0.0847  0.1087
73395W        W74259  20.425   3.933   0.631  0.1916  0.1515  0.2844
73396W        W74260  18.822   0.026  27.746  0.0125 -0.0501 -0.0771
73397W        W74261   8.414   6.091   2.230 -0.4249 -0.0835 -0.0484
73398W        W74262  17.032  13.796  11.618 -0.2071  0.0172 -0.2331
73399W        W74263  26.849   0.560  22.576 -0.2768  0.2572 -0.2680
73400W        W74264   8.438  28.228   9.936 -0.1391  0.0985  0.0930
73401W        W74265  20.944  26.245   0.118 -0.2302  0.0468 -0.0093
73402W        W74266  21.959  20.807  12.730 -0.1457 -0.2765  0.0211
73403W        W74267   7.439  23.992   4.831  0.3357 -0.1831  0.2345
73404W        W74268  26.090  23.656   9.743 -0.2252  0.3081  0.0792
73405W        W74269  19.289  24.504  27.642 -0.0491  0.1202 -0.1313
73406W        W74270  15.218   9.652  22.099  0.2672  0.1781  0.1028
73407W        W74271  11.688  22.625  26.047  0.0103  0.2840 -0.1600
73408W        W74272   4.484  25.416   9.795 -0.1143 -0.1385 -0.2232
73409W        W74273   1.457  15.126   2.576  0.0033  0.3216 -0.1676
73410W        W74274  12.374  23.701  23.978 -0.1633  0.0760 -0.0000
73411W        W74275  25.744  27.054   6.485 -0.3571 -0.1453 -0.1123
73412W        W74276  23.523  17.084  28.988 -0.0592 -0.3039 -0.1088
73413W        W74277  20.148   7.184   3.901 -0.0911  0.0836  0.1442
73414W        W74278   4.568  24.328   7.407 -0.1988  0.1687 -0.1264
73415W        W74279   7.920  20.454   0.297  0.1454  0.3282  0.0723
73416W        W74280  13.256  28.993  22.666  0.1333  0.1677 -0.0825
73417W        W74281  28.799  19.886  21.401  0.0257  0.1103  0.0179
73418W        W74282   5.787  19.043   5.377  0.0387 -0.0402  0.1377
73419W        W74283   7.720   6.570   1.254 -0.0362 -0.1474  0.0902
73420W        W74284  26.535   0.065  20.216  0.0530  0.2206 -0.2352
73421W        W74285  11.843   5.996   8.807 -0.3080 -0.0633 -0.2189
73422W        W74286  27.223   0.519   2.818 -0.0533 -0.0645  0.2006
73423W        W74287   8.285  18.295  12.355 -0.1510 -0.0788 -0.1856
73424W        W74288  25.785   6.876  10.725 -0.0234  0.0114 -0.5047
73425W        W74289  10.370  27.941  22.970  0.1201  0.1592  0.1669
73426W        W74290  24.422  25.121   1.548  0.2198  0.1161 -0.3378
73427W        W74291  18.212   7.909  15.451 -0.2532 -0.1023  0.2151
73428W        W74292  19.811  14.493   3.555 -0.0176  0.1315 -0.0412
73429W        W74293  20.884   0.422   0.339  0.1126 -0.1102  0.0196
73430W        W74294  15.150  12.411  12.205  0.2074  0.0391 -0.1890
73431W        W74295   2.199  25.052  28.916  0.2388  0.3801  0.2471
73432W        W74296  19.320  26.959  23.527 -0.2067  0.2031 -0.0156
73433W        W74297   9.097  13.419   4.982 -0.1902 -0.1039 -0.1489
73434W        W74298  18.358   7.283  19.230 -0.0204 -0.0937  0.1105
73435W        W74299  20.312   7.118  15.608 -0.0025  0.1320  0.1013
73436W        W74300   5.837  16.512   4.532  0.1723 -0.0966  0.0104
73437W        W74301  22.603  20.502   9.457  0.0049 -0.0641 -0.3171
73438W        W74302  11.562  20.616  14.628 -0.1605 -0.2755 -0.0736
73439W        W74303  16.398  10.000  10.112 -0.2030 -0.0070  0.0400
73440W        W74304  24.441  24.763   4.816  0.0975  0.0115  0.2638
73441W        W74305  11.712  11.087  26.108 -0.1005  0.1495  0.3673
73442W        W74306  26.255  22.493  27.281  0.0068 -0.1062  0.0151
73443W        W74307   4.276  14.916  20.662  0.1159  0.3130  0.1936
73444W        W74308  22.892   2.344   6.736 -0.0676 -0.1792  0.0325
73445W        W74309  26.994  17.749  13.965  0.0759 -0.1601  0.3639
73446W        W74310   6.669  20.119   0.704 -0.0326  0.0431  0.1043
73447W        W74311   8.401  10.552   9.562  0.0261  0.2567 -0.1788
73448W        W74312  14.750   9.026  21.261 -0.0450  0.1610 -0.2426
73449W        W74313  28.895  13.396   7.534  0.2495  0.1931 -0.1490
73450W        W74314  15.091   9.002   2.760  0.1154 -0.1019 -0.3973
73451W        W74315  10.829  14.142  12.414  0.0710  0.2317 -0.1571
73452W        W74316  20.339  12.934  17.362 -0.1004 -0.1004 -0.1628
73453W        W74317  13.674  27.098  10.212 -0.2120  0.0359 -0.0360
73454W        W74318  10.712   6.359   9.242  0.2076  0.1219  0.1132
73455W        W74319   1.210  27.270   0.622 -0.1040 -0.0582  0.0802
73456W        W74320  27.346  26.803  23.322  0.0281 -0.0446 -0.3239
73457W        W74321  15.407  13.045  14.180  0.1014  0.0560 -0.1032
73458W        W74322  23.200   3.631  11.230  0.1645  0.1083  0.2945
73459W        W74323  18.264  13.852  19.497 -0.1188 -0.1132  0.0393
73460W        W74324  20.856   0.045   4.086  0.0622 -0.0173  0.0167
73461W        W74325   8.766   1.472   5.131  0.0427  0.2226  0.1741
73462W        W74326  26.406   5.942   5.902  0.4424 -0.1585  0.1761
73463W        W74327  18.118   9.930  11.029 -0.0749 -0.2817 -0.1442
73464W        W74328   4.891  12.993   6.340 -0.1630  0.1211  0.2393
73465W        W74329  17.011   9.254   3.045  0.0654 -0.0043  0.3944
73466W        W74330  18.330  18.492  15.958  0.0139 -0.0893  0.1464
73467W        W74331   5.714  17.872  25.047 -0.3527  0.2397  0.2252
73468W        W74332  13.326  16.466  11.968 -0.1331  0.1523  0.1010
73469W        W74333  23.970  27.415   0.670 -0.0422 -0.2679  0.0590
73470W        W74334  22.314  10.916   1.716 -0.2995 -0.1697  0.0008
73471W        W74335  26.043   3.869  16.730  0.2014 -0.2646 -0.1709
73472W        W74336   7.631  15.782  28.548 -0.0329  0.1672 -0.0119
73473W        W74337   7.023  12.690  11.458  0.0665  0.0157  0.0659
73474W        W74338  21.020  15.035   9.034 -0.0235 -0.2038 -0.0348
73475W        W74339  17.956   7.598  25.402  0.1012 -0.0883 -0.2940
73476W        W74340  21.852  28.588  10.086  0.1077 -0.4102 -0.0895
73477W        W74341  27.561  27.768  22.054 -0.2670  0.1207  0.1129
73478W        W74342  15.123  11.629  10.530  0.0600 -0.1320  0.0533
73479W        W74343  19.455   0.181  24.525 -0.3001  0.0029  0.2272
73480W        W74344   0.927  23.739  14.582 -0.1071 -0.1330 -0.0301
73481W        W74345  16.801  11.452  28.118  0.2144  0.2557 -0.0828
73482W        W74346   8.422  26.820   3.579 -0.1458  0.0058 -0.0527
73483W        W74347   2.894   0.395  12.056 -0.4740 -0.0179 -0.1121
73484W        W74348  19.503   5.493  28.022  0.0005  0.0466  0.1806
73485W        W74349  26.584   3.185   5.063 -0.0500 -0.1302  0.0541
73486W        W74350  13.803  15.396   2.731 -0.0874  0.1338 -0.0183
73487W        W74351  27.347   0.063   9.929 -0.0160  0.1505  0.0251
73488W        W74352  14.530   4.467   8.896 -0.0683  0.2790  0.0882
73489W        W74353   9.849  13.021  20.729 -0.3263 -0.1387 -0.1791
73490W        W74354  24.840   2.459  18.984  0.0728 -0.0182 -0.1016
73491W        W74355  26.098  12.979  18.097  0.0560  0.1448  0.0966
73492W        W74356  12.696  26.184   2.402 -0.0238 -0.1590 -0.2157
73493W        W74357  28.646  22.928  15.298 -0.0958  0.2252 -0.1057
73494W        W74358   3.043  11.957   1.224  0.0914  0.2405  0.0406
73495W        W74359  28.964  25.737  23.930 -0.1666 -0.2567 -0.0372
73496W        W74360  20.271  20.772  23.032 -0.0488 -0.1998  0.6645
73497W        W74361  21.481  20.694   0.851 -0.2024 -0.0895  0.2233
73498W        W74362   9.894   6.906   4.729 -0.0463  0.0141  0.2810
73499W        W74363  24.910  21.029   7.134 -0.0227  0.0813 -0.2096
73500W        W74364  22.641  10.245  14.317  0.1915  0.0464 -0.1625
73501W        W74365  23.588  27.381   6.524 -0.2955 -0.1887  0.0503
73502W        W74366   2.237  23.019   7.303 -0.2113  0.1131 -0.0298
73503W        W74367  18.462  10.274  11.221 -0.1728 -0.2287  0.0003
73504W        W74368  22.097  11.490  21.232  0.2831 -0.3506  0.3726
73505W        W74369  27.340   6.018  13.511  0.0962 -0.0603  0.1557
73506W        W74370  13.755  13.203  16.647  0.2882 -0.1199 -0.2736
73507W        W74371  19.367  25.314  13.705 -0.2240  0.3250  0.2197
73508W        W74372   3.219   6.745  19.141 -0.0346  0.0259  0.2762
73509W        W74373  27.197   3.856  16.036  0.1875 -0.1106  0.0057
73510W        W74374  20.434  27.199  21.839  0.4249 -0.0681  0.0238
73511W        W74375  17.398  19.109   1.667  0.0234 -0.1558 -0.1100
73512W        W74376  11.317  26.234  13.500 -0.0211 -0.0592 -0.0288
73513W        W74377  19.353   2.628  11.826  0.1410 -0.0699 -0.0741
73514W        W74378  27.836   3.079   3.790 -0.0929  0.0722  0.0226
73515W        W74379   6.948  27.337  11.906  0.1000  0.3549  0.1383
73516W        W74380  14.210   6.557  22.933  0.1985 -0.0965 -0.0145
73517W        W74381  21.117  10.508  25.635  0.1281 -0.0813  0.1269
73518W        W74382  16.256  21.085  26.402 -0.1601  0.3991  0.0901
73519W        W74383   8.796  20.049  25.174  0.0633  0.0182 -0.1213
73520W        W74384  17.819  21.337  10.339  0.1407 -0.3401  0.1044
73521W        W74385  15.058   6.571  10.154 -0.0717  0.0966 -0.1292
73522W        W74386   9.878  15.829  13.844 -0.0604  0.1920  0.1727
73523W        W74387   3.603   9.817  21.236  0.0655  0.2593  0.1954
73524W        W74388  20.828  19.445  20.684 -0.1258  0.2168 -0.1608
73525W        W74389   1.033  16.944   6.968  0.1981 -0.2115 -0.0512
73526W        W74390   7.026  13.313   8.943  0.0010  0.1513 -0.0922
73527W        W74391  16.645  27.579   1.114 -0.0019 -0.0868 -0.0445
73528W        W74392   3.082  21.668   5.289 -0.1438 -0.1239  0.1808
73529W        W74393  27.381  21.201   9.380  0.3947  0.1884  0.1408
73530W        W74394  16.465  10.715  21.734  0.1256 -0.0172  0.0145
73531W        W74395  26.158  14.710  18.349  0.0980 -0.0031  0.0635
73532W        W74396  20.086  17.878  28.701 -0.0478  0.0635  0.2428
73533W        W74397  13.647  11.065  15.633 -0.0402 -0.0163 -0.0746
73534W        W74398   6.280  19.442  28.813 -0.0137  0.0433  0.2528
73535W        W74399   4.769  20.309  23.881 -0.3087 -0.0571  0.1401
73536W        W74400  15.091  17.434   5.824  0.2166  0.2406 -0.0939
73537W        W74401  13.885  26.601  27.100  0.3787 -0.1149  0.1390
73538W        W74402  22.428   8.637  23.975  0.0547 -0.1249 -0.0515
73539W        W74403  23.262  23.839   3.502 -0.0022  0.0383 -0.0392
73540W        W74404  19.846  26.043   5.173  0.1763  0.1064  0.2131
73541W        W74405  28.017   9.619  13.103 -0.1718  0.1081 -0.1621
73542W        W74406  14.027  14.965   4.971  0.0152 -0.1641  0.0442
73543W        W74407   3.266   0.036  27.092 -0.0810 -0.0043  0.0048
73544W        W74408   2.375  16.940  20.634 -0.0084 -0.0135 -0.3605
73545W        W74409  15.711  10.462  20.819 -0.1755 -0.2374  0.3524
73546W        W74410  19.824   1.462  12.559  0.1698 -0.0908  0.3158
73547W        W74411  15.259   0.903  26.515 -0.0441 -0.1750  0.0619
73548W        W74412  15.300  22.437  18.764 -0.1629 -0.1406  0.1366
73549W        W74413   5.441   7.497  14.392 -0.1213  0.4822  0.2939
73550W        W74414   6.794  20.523   0.308 -0.1519  0.0868 -0.0638
73551W        W74415  20.863  16.454   2.436 -0.1235 -0.1234  0.1438
73552W        W74416  22.197   5.666   1.133 -0.0858  0.2270 -0.3867
73553W        W74417  15.688   1.278  25.459  0.3306 -0.2273 -0.1756
73554W        W74418  21.398  13.477  14.784  0.2633 -0.2752 -0.2278
73555W        W74419  27.445  26.016  10.930  0.1554 -0.4499  0.1716
73556W        W74420  17.371  20.112  22.807 -0.2142  0.1526  0.2371
73557W        W74421   6.835  12.203  12.370 -0.3667 -0.2272  0.2472
73558W        W74422  24.103  25.597   4.449  0.0246 -0.1964 -0.1975
73559W        W74423  19.532   8.185   0.408  0.4766 -0.1318 -0.2400
73560W        W74424  22.261  17.426  13.298  0.3605  0.0426 -0.0619
73561W        W74425  13.231  19.303  10.958  0.1008 -0.1270  0.4143
73562W        W74426   7.144  21.428   2.852 -0.0047 -0.0251  0.4280
73563W        W74427  23.136  22.366   9.905  0.0490 -0.0595  0.0851
73564W        W74428   1.465   8.017   5.063  0.0526  0.5801  0.0489
73565W        W74429  17.925   1.668  13.542 -0.0340  0.0073  0.2351
73566W        W74430  11.754   6.176   1.903 -0.0412 -0.0981 -0.1032
73567W        W74431  28.300  27.741  11.321  0.0477  0.2237 -0.0515
73568W        W74432   3.758  16.678  27.666 -0.4356  0.1734 -0.1898
73569W        W74433  19.995  27.124   2.939  0.0435  0.1569  0.0729
73570W        W74434  13.753  27.331  24.445 -0.2835  0.4407 -0.0735
73571W        W74435  20.470  18.833  12.110  0.0446 -0.0173 -0.1542
73572W        W74436  28.018  19.037  22.590 -0.0749  0.0876 -0.1807
73573W        W74437  25.197   7.014  16.691 -0.1420  0.1433  0.1016
73574W        W74438  14.792  19.544  13.409  0.0367  0.3203 -0.0281
73575W        W74439  27.532  16.344   5.228  0.3137 -0.1258 -0.3433
73576W        W74440  16.065   0.013   8.902 -0.0104  0.1582 -0.2903
73577W        W74441  19.975  22.421   6.871 -0.1110 -0.2260  0.0840
73578W        W74442  28.525  25.649   8.137  0.0839 -0.4938  0.2830
73579W        W74443   3.066  23.472   5.473 -0.3640 -0.0174 -0.0564
73580W        W74444  14.902   0.320  13.715 -0.2580  0.1660  0.2043
73581W        W74445  26.405   5.848  19.195 -0.2889  0.1486 -0.1716
73582W        W74446   0.135  10.123  24.739  0.1643  0.1805  0.1696
73583W        W74447   3.383  15.524   6.801 -0.0043  0.2431  0.0185
73584W        W74448  18.924   6.498  17.320  0.4087  0.0921  0.1523
73585W        W74449  19.069   1.491  17.033 -0.0606 -0.0627 -0.2063
73586W        W74450  15.962   1.358   1.544 -0.0339 -0.0237  0.0156
73587W        W74451  13.338  15.617  24.059  0.3503 -0.0570 -0.0516
73588W        W74452  10.031  16.082  10.419  0.0596  0.0058 -0.1970
73589W        W74453  14.506  11.176  18.224 -0.0611 -0.0244  0.0972
73590W        W74454   8.307   6.468  17.063  0.4050  0.0266  0.2018
73591W        W74455  18.496  22.961   3.471 -0.0456 -0.0261 -0.1788
73592W        W74456  20.908   1.833  13.910  0.0109  0.1676  0.2704
73593W        W74457  21.803  10.063   9.513 -0.1916  0.0048 -0.0541
73594W        W74458  17.328   7.184  25.854  0.4982 -0.0746 -0.2280
73595W        W74459  25.244  15.746   4.896 -0.1786  0.0947  0.2632
73596W        W74460  17.796  15.960  27.266 -0.2215  0.1090 -0.2731
73597W        W74461   7.643  16.010  26.801 -0.1866  0.0867  0.4549
73598W        W74462  22.991  21.969  12.837 -0.0285 -0.0414 -0.1830
73599W        W74463   5.647   0.553  17.255  0.1134  0.2098  0.1957
73600W        W74464  13.207  20.396  19.959 -0.3535  0.2037  0.1449
73601W        W74465   6.259  28.120  25.762 -0.2832 -0.0644  0.0287
73602W        W74466  24.368  20.502   4.004 -0.1038 -0.2143  0.2949
73603W        W74467   4.875  26.892  10.407 -0.1762  0.4467  0.2709
73604W        W74468  25.355  26.352  20.985  0.2529  0.1990  0.1878
73605W        W74469  19.631  28.534  27.667 -0.0302  0.2143  0.0479
73606W        W74470  21.573  16.326  22.745  0.2856 -0.0982 -0.0598
73607W        W74471  13.962  21.065   5.594 -0.0368 -0.0128 -0.1704
73608W        W74472   7.788  14.700  27.820  0.1918 -0.0138  0.0639
73609W        W74473  18.006  14.176  14.564  0.3262 -0.0775  0.1780
73610W        W74474  28.236  28.388   6.716 -0.3423 -0.1525  0.3478
73611W        W74475  25.177  15.563  17.568  0.3450 -0.2161 -0.4919
73612W        W74476  25.445  27.668  18.008 -0.1763 -0.0664 -0.1611
73613W        W74477  11.911   9.490   0.222  0.1758 -0.1601  0.0290
73614W        W74478  11.016   4.963  27.517 -0.1793 -0.1400 -0.1082
73615W        W74479  23.027   7.311   6.212 -0.1087 -0.1477 -0.4242
73616W        W74480   0.854  21.702   1.567  0.0372  0.2384  0.2384
73617W        W74481  17.318  19.432  17.674  0.0845 -0.2067  0.0838
73618W        W74482   2.421  15.176  22.762 -0.3760  0.0112 -0.0382
73619W        W74483  10.930   2.669   4.110 -0.5129 -0.2642  0.2033
73620W        W74484  23.256  12.071   8.075  0.1607 -0.1370 -0.3655
73621W        W74485  25.876   2.912  14.280 -0.3068 -0.0157 -0.0077
73622W        W74486  26.716  26.062  11.711  0.1195 -0.0599  0.0392
73623W        W74487  27.992  22.999   4.575  0.2205 -0.2133  0.0071
73624W        W74488   3.817   1.426   2.815 -0.0543  0.0396  0.1699
73625W        W74489  24.114   6.529   5.146 -0.0128 -0.0749 -0.0353
73626W        W74490   7.191   1.505   5.514  0.2039 -0.0832  0.2189
73627W        W74491   8.565   7.819   6.668 -0.2856  0.1293 -0.2101
73628W        W74492   9.184  12.259  10.858  0.2124 -0.0765  0.1342
73629W        W74493  23.620   6.207  22.692 -0.0561 -0.0197 -0.0611
73630W        W74494  12.523   0.312  24.642  0.1437 -0.2252 -0.0892
73631W        W74495   4.045  21.609   6.777  0.0541  0.1829  0.3099
73632W        W74496  21.626  14.965   1.641  0.3491 -0.0927  0.0778
73633W        W74497  26.958  24.248   2.541 -0.2213 -0.0600 -0.1649
73634W        W74498  28.322  13.747  15.870 -0.4071  0.0847 -0.0046
73635W        W74499  19.533  11.152  14.531 -0.2264 -0.1942 -0.0145
73636W        W74500   3.594   8.287  26.104  0.2683 -0.0076 -0.1750
73637W        W74501   4.121  23.990  15.311  0.1941 -0.0528  0.2199
73638W        W74502  20.358  14.179  11.029 -0.2527 -0.3414 -0.1564
73639W        W74503  25.716  14.744  22.714 -0.1325 -0.2290 -0.0542
73640W        W74504   9.950  27.648  15.038  0.1346  0.1422  0.0551
73641W        W74505  13.477  22.820  10.942 -0.0443 -0.2345  0.1184
73642W        W74506  20.951   1.004   7.366  0.1869 -0.2290  0.3119
73643W        W74507  16.459  23.808  13.271 -0.0673  0.1424  0.1426
73644W        W74508  15.697  14.552   1.374  0.0231 -0.3134  0.3145
73645W        W74509   5.176  27.056  24.419 -0.1230  0.3088  0.2960
73646W        W74510  20.455  21.819  14.897 -0.0993  0.4986  0.2448
73647W        W74511  23.515   5.328  24.551 -0.0871 -0.1637  0.2886
73648W        W74512   5.883  16.237   5.913 -0.2653  0.0245  0.0807
73649W        W74513   7.745   1.034   4.156 -0.0797  0.0245 -0.2029
73650W        W74514   5.640  12.964  21.916 -0.0138 -0.1416 -0.2232
73651W        W74515  26.487  10.489  19.087 -0.1509 -0.0633  0.3833
73652W        W74516   5.021  18.836  11.119  0.0698  0.0960  0.1740
73653W        W74517  14.291   2.920   8.973 -0.1912  0.0863 -0.0231
73654W        W74518  15.136  25.839  21.230 -0.0191  0.0121  0.0991
73655W        W74519  26.169  26.811  17.522 -0.0023 -0.0910  0.1353
73656W        W74520  13.958  13.906  11.544 -0.0797 -0.0359  0.1706
73657W        W74521  17.689  10.109  10.759 -0.0621  0.1956  0.1251
73658W        W74522  11.771  25.129   4.135 -0.2236  0.1912 -0.3440
73659W        W74523   2.371   6.245  24.381 -0.0021  0.0384  0.0450
73660W        W74524   4.667   1.914  20.817 -0.0223 -0.1689  0.1021
73661W        W74525   6.018  26.558  10.891  0.0823  0.1633  0.2279
73662W        W74526  28.225   4.360  11.772 -0.0181  0.3121  0.0272
73663W        W74527   7.355  14.515   1.898 -0.0784 -0.0616 -0.2146
73664W        W74528  11.022  26.031   2.565  0.0310 -0.0824  0.0517
73665W        W74529  16.627  20.509  22.345 -0.4194 -0.0083  0.0040
73666W        W74530   9.668   4.334   9.691 -0.0203  0.5267 -0.1317
73667W        W74531   0.682  19.309  17.923  0.2619  0.0877 -0.0442
73668W        W74532  14.756   7.400  22.147 -0.0446 -0.1162 -0.0897
73669W        W74533  20.085  26.344   8.954  0.0610  0.0094  0.2943
73670W        W74534   9.270  19.665  10.552 -0.0014 -0.1874  0.2884
73671W        W74535   3.601   4.547   1.306  0.1549 -0.1931  0.1309
73672W        W74536  27.092  13.946   9.678 -0.0119  0.0452  0.1509
73673W        W74537  25.756  20.703   6.491 -0.1186  0.1147  0.2094
73674W        W74538  21.008  16.954  10.969 -0.1587 -0.3464  0.2473
73675W        W74539  24.697   3.792  28.684 -0.2627  0.1014 -0.6553
73676W        W74540  11.147  13.911  16.216 -0.0905 -0.0019  0.0897
73677W        W74541  22.354  28.374  11.717 -0.1007 -0.0669  0.0705
73678W        W74542  29.068  13.061   7.122 -0.0697 -0.4836  0.3444
73679W        W74543  27.080   7.734  18.436  0.1546 -0.0958  0.0341
73680W        W74544  21.404   5.639   9.926  0.1126 -0.0974 -0.4573
73681W        W74545  25.220  16.979  13.192 -0.0593  0.2546 -0.0732
73682W        W74546  15.903  23.930   3.714 -0.0667  0.0602 -0.2468
73683W        W74547  26.070  21.868   9.091  0.0266 -0.1891  0.1092
73684W        W74548  18.092  13.319   9.206 -0.1680  0.0329 -0.0014
73685W        W74549  15.789   7.945  27.260  0.0410  0.2409  0.4416
73686W        W74550  26.248   1.993   9.159  0.0376 -0.1504  0.0460
73687W        W74551  20.255  18.404  18.671 -0.1807  0.0111 -0.2252
73688W        W74552  21.890  24.001  18.826  0.2348  0.0988  0.2491
73689W        W74553   7.255   3.610   4.816  0.1155  0.1398 -0.1846
73690W        W74554  16.856  21.633   2.696  0.0822 -0.1394  0.0668
73691W        W74555   3.487   8.070  14.799 -0.3127 -0.0312 -0.0649
73692W        W74556  14.423  19.005   4.739  0.0729  0.2516  0.1076
73693W        W74557  18.961  19.602   6.546  0.2468 -0.0531 -0.1612
73694W        W74558  23.604  21.520  24.637  0.0943  0.1526  0.2648
73695W        W74559   8.895   5.158   1.447  0.0448 -0.3012 -0.0517
73696W        W74560   3.070  27.487  22.458  0.2069  0.0501 -0.1641
73697W        W74561   0.367  17.102   6.886 -0.1023 -0.1314  0.2091
73698W        W74562   9.611  14.869  14.760  0.0298 -0.0902  0.1463
73699W        W74563  23.235   6.904  24.549  0.3105  0.0280  0.0290
73700W        W74564  27.236   3.425  20.494 -0.1605  0.0794 -0.1714
73701W        W74565  24.045  22.850   4.078 -0.1378 -0.3535  0.2491
73702W        W74566   9.336   4.750  15.721  0.1244  0.1413  0.0285
73703W        W74567  18.204   1.833  13.170 -0.1425  0.0786  0.0634
73704W        W74568   0.161  23.482  17.765  0.3162 -0.0006 -0.0050
73705W        W74569  28.163  14.412  26.067 -0.0106  0.2927  0.0571
73706W        W74570  16.516  14.957  10.778 -0.0777  0.3196 -0.2756
73707W        W74571  11.954  20.591   7.191 -0.2824  0.0354  0.0503
73708W        W74572  24.146  17.736   6.985  0.1178  0.1054  0.0422
73709W        W74573  17.699  22.813  14.136 -0.4130  0.1177 -0.2160
73710W        W74574  16.384  13.672  26.006  0.2435 -0.1589  0.2160
73711W        W74575  24.060   4.417   6.929 -0.0512 -0.0269  0.1254
73712W        W74576  22.512  26.890  21.474  0.1337  0.0101  0.1817
73713W        W74577  12.564   2.735   8.178  0.0031 -0.2326  0.3703
73714W        W74578  13.969   8.315   6.263  0.0238 -0.1217  0.1506
73715W        W74579  15.671  19.472  11.408  0.0574  0.0230  0.0872
73716W        W74580   3.296  16.979  23.881  0.0588  0.1787  0.0143
73717W        W74581  17.790  18.650   6.369  0.1825 -0.0986 -0.1479
73718W        W74582  16.803   0.341  17.545  0.2174  0.2461 -0.0486
73719W        W74583  21.365  25.662  27.396  0.0246  0.0140  0.3299
73720W        W74584  18.227  25.630  13.036 -0.2972 -0.1677 -0.0737
73721W        W74585  15.314  17.092  16.684 -0.1282 -0.2040 -0.1811
73722W        W74586  28.927   2.210   8.375 -0.1890  0.3132 -0.1701
73723W        W74587  20.397  20.515  18.424  0.0111 -0.2045 -0.1247
73724W        W74588  10.525   2.585  10.619  0.3140 -0.0428 -0.1378
73725W        W74589  11.280   9.763  19.796  0.2042  0.0577 -0.1644
73726W        W74590  25.937   8.058  16.668 -0.2037  0.2602  0.3271
73727W        W74591   7.949  19.078   9.801  0.1328 -0.1544  0.3943
73728W        W74592   8.756  12.506   9.561 -0.0457 -0.2014 -0.0971
73729W        W74593  23.330  26.098  17.042 -0.4710  0.3892  0.0267
73730W        W74594  24.851  10.511  16.694 -0.0227 -0.3810 -0.2374
73731W        W74595   3.664  26.121  28.935 -0.0727 -0.0867 -0.1523
73732W        W74596  17.438  14.119   9.152  0.0265 -0.1808  0.1835
73733W        W74597  22.078  14.083  19.365 -0.1173  0.0859  0.0617
73734W        W74598  25.474  15.924   7.771 -0.0184  0.1807  0.2543
73735W        W74599   4.556  19.440  13.360 -0.2983 -0.0688 -0.0374
73736W        W74600  25.947   3.942  10.121  0.2256 -0.0672  0.0953
73737W        W74601  18.000  13.968  13.148 -0.2063  0.2500 -0.1171
73738W        W74602   1.880  21.924   5.045 -0.0574  0.0722  0.0889
73739W        W74603  17.113  15.020   4.273 -0.0796  0.0939  0.1917
73740W        W74604  20.554  13.663  24.539  0.3284 -0.2778 -0.0243
73741W        W74605  27.969  17.680  13.257  0.1244 -0.2132  0.2613
73742W        W74606  28.571  22.637  25.294 -0.5427  0.2034  0.3058
73743W        W74607   6.355   9.666   3.343  0.0880  0.2293 -0.0768
73744W        W74608  22.935  24.606   6.317  0.1013  0.1645 -0.0260
73745W        W74609   9.832   3.853  18.552 -0.1549 -0.0300 -0.2135
73746W        W74610   4.768   1.895   0.289  0.1398  0.2873  0.0596
73747W        W74611  15.184  19.012   4.068 -0.1335  0.1769 -0.1201
73748W        W74612  10.291  17.797  25.978 -0.2149  0.2272  0.1841
73749W        W74613  12.921  26.513   2.803  0.0261  0.0499 -0.0624
73750W        W74614  29.138  16.072  22.926 -0.0659  0.1410 -0.4576
73751W        W74615  14.817  24.912   3.595 -0.1281  0.3942  0.1921
73752W        W74616  25.407  14.342  28.100 -0.1344 -0.2270  0.2373
73753W        W74617  19.935  22.171   9.063  0.1735 -0.2096 -0.0910
73754W        W74618  10.296   1.793   2.482 -0.2414  0.3800  0.1293
73755W        W74619  16.377  20.915   5.023  0.1198  0.0410 -0.1416
73756W        W74620   4.082   9.835   5.677  0.0199 -0.3323  0.0446
73757W        W74621  22.160  19.760  17.354 -0.1957  0.2654  0.3658
73758W        W74622  18.828  27.542   7.495 -0.3744  0.1709 -0.0040
73759W        W74623  14.334  16.246  21.731 -0.0160  0.0165  0.0314
73760W        W74624  12.062  19.939   8.824  0.0199  0.0279 -0.1678
73761W        W74625   2.473  15.156   7.219  0.0024  0.1040 -0.1333
73762W        W74626  23.559   0.710  12.465 -0.0157 -0.1889  0.3779
73763W        W74627  27.339  18.949   0.568  0.2788  0.0903 -0.0753
73764W        W74628  18.138   1.171   1.060 -0.0989 -0.3504  0.0269
73765W        W74629   3.430  18.410  16.875  0.0973 -0.0450 -0.0100
73766W        W74630   7.624  23.775   8.866  0.0061  0.0090  0.4710
73767W        W74631  15.134  27.034   7.052  0.2952 -0.3837  0.2349
73768W        W74632   7.328   8.823   2.381  0.2369 -0.1528 -0.2319
73769W        W74633  26.196   7.989  17.969  0.2387 -0.0320 -0.1406
73770W        W74634  28.390  24.492  14.923 -0.2533  0.0818 -0.3378
73771W        W74635   4.625   7.226  19.025 -0.1293  0.0460  0.3554
73772W        W74636  18.221  22.123   8.129 -0.4757 -0.2442 -0.1984
73773W        W74637   7.672  16.609  12.695 -0.0185 -0.2190 -0.0893
73774W        W74638   5.121   6.737  22.091  0.1957  0.1357  0.1873
73775W        W74639  25.559   9.375  20.445  0.5077 -0.1127 -0.0418
73776W        W74640  17.019  22.611  10.236  0.0729  0.0815  0.2470
73777W        W74641  25.551  24.897  19.835  0.0109  0.1508  0.0395
73778W        W74642  16.864  24.339   5.080 -0.0327 -0.3443 -0.1283
73779W        W74643   2.896  21.379   8.666 -0.1080  0.0996 -0.1009
73780W        W74644  18.068   0.215   7.114  0.0712  0.1774 -0.0552
73781W        W74645  14.346   4.331  28.132  0.0165 -0.2168 -0.1386
73782W        W74646  19.149  21.265  28.409  0.1687  0.0276  0.0252
73783W        W74647   5.322  28.090  21.829 -0.1362 -0.0849  0.0471
73784W        W74648   2.446  19.605  17.643 -0.0107  0.0000  0.2447
73785W        W74649   8.168  23.603  10.199  0.1525  0.1310 -0.0205
73786W        W74650   9.445   8.480  14.977  0.0257  0.4078 -0.1782
73787W        W74651  23.185  13.929   0.502  0.2162 -0.2381 -0.1265
73788W        W74652  14.986  26.454   8.842 -0.3238  0.0432 -0.0535
73789W        W74653  12.489  21.224  23.858 -0.0501 -0.0424 -0.0271
73790W        W74654  15.943  19.379  28.255 -0.0085 -0.0938  0.0540
73791W        W74655  11.906  23.859  24.727  0.1508  0.2090 -0.1761
73792W        W74656   2.031  14.949   6.445 -0.0100  0.0203  0.0522
73793W        W74657  27.105  28.655  20.795  0.3274  0.3900  0.0055
73794W        W74658  11.700  27.632  19.286 -0.1619  0.1920 -0.4527
73795W        W74659  15.514   2.337   9.479 -0.1764  0.1334  0.1252
73796W        W74660  15.661  18.102  12.537  0.0653  0.0495 -0.1741
73797W        W74661   1.549  22.190   8.605  0.3354 -0.0673  0.1020
73798W        W74662  13.350  15.874  10.105  0.2069 -0.1031 -0.1703
73799W        W74663   0.450  27.003  21.905  0.2279  0.2282 -0.0610
73800W        W74664   1.612  28.944   7.222  0.0572  0.1024 -0.1437
73801W        W74665  24.805  10.976  14.972 -0.1313 -0.0345 -0.0024
73802W        W74666  12.368  15.738  11.313  0.0837 -0.2528 -0.4046
73803W        W74667  16.523   0.509  11.434 -0.1898  0.1279 -0.1185
73804W        W74668  21.055   4.483  14.483  0.0391  0.3604 -0.0067
73805W        W74669  20.516  12.300   0.862 -0.0581  0.1620  0.0761
73806W        W74670  22.592   0.181   2.185  0.3495  0.0669 -0.1212
73807W        W74671  23.102  20.110  14.675  0.0087  0.2641 -0.2580
73808W        W74672  22.699  12.514  20.297  0.0394 -0.0477 -0.2423
73809W        W74673  10.694  23.100  24.006  0.1725 -0.0020  0.2349
73810W        W74674   0.826   6.709  28.155 -0.1104  0.0135  0.1712
73811W        W74675  24.223   2.622   1.551  0.0786 -0.0920  0.1442
73812W        W74676  25.519  26.812   0.694  0.1649  0.1348  0.0827
73813W        W74677  27.037  12.920  24.236  0.3098 -0.4008 -0.3105
73814W        W74678  10.287  27.521   7.150 -0.1586 -0.3309  0.0740
73815W        W74679   0.456  24.112  19.483  0.1619 -0.2584 -0.1832
73816W        W74680  28.702  24.168   7.661  0.3404 -0.2278  0.0576
73817W        W74681   3.971  18.744  12.085  0.0321  0.0397 -0.0306
73818W        W74682  27.007  25.082  25.148 -0.3370  0.0941  0.2942
73819W        W74683   2.777  22.937   3.565 -0.4085  0.0638  0.2355
73820W        W74684  15.494   8.605  10.302  0.0809 -0.2497  0.2446
73821W        W74685   4.034  12.356  14.265 -0.0674  0.1711  0.1526
73822W        W74686   0.165  20.832   9.300 -0.0057 -0.0411  0.1713
73823W        W74687  16.779  22.678   1.124 -0.0269  0.1803 -0.0345
73824W        W74688  27.515  25.672   0.808  0.2072  0.0299 -0.4591
73825W        W74689  25.406  13.824  10.559  0.0679 -0.2324  0.0160
73826W        W74690  13.072   0.769   3.345 -0.2527 -0.1189  0.2016
73827W        W74691  28.766  13.596   9.942  0.3487  0.0120 -0.0167
73828W        W74692  20.786   9.644  16.036 -0.1875  0.0633  0.0686
73829W        W74693  18.106  15.178  25.093  0.1493  0.0117 -0.3321
73830W        W74694  20.102   3.718  20.374 -0.1701 -0.0087  0.2859
73831W        W74695  20.150   7.015  22.286  0.4036  0.3284  0.1232
73832W        W74696  18.212  13.415  10.518  0.1721  0.1132  0.1153
73833W        W74697   7.362  28.986  13.490 -0.1511 -0.0830 -0.1399
73834W        W74698  17.769   1.670  10.848  0.0973 -0.0944 -0.2264
73835W        W74699  10.953  15.886   0.266  0.2582  0.2597  0.2877
73836W        W74700  28.215  10.417   3.389  0.1529 -0.2773 -0.0668
73837W        W74701   8.976  12.880  19.021 -0.0508 -0.1574  0.3418
73838W        W74702  23.577  24.978  14.935  0.2083 -0.0844 -0.0944
73839W        W74703   4.766  19.119  20.056  0.3126  0.0536  0.1848
73840W        W74704   3.514  25.038  15.189 -0.4283  0.3186  0.0461
73841W        W74705   1.753   5.348   5.566  0.0466  0.0566  0.3970
73842W        W74706   5.691  23.234  10.356 -0.1598 -0.2794  0.3400
73843W        W74707  21.410   2.521  16.900 -0.0263 -0.1055  0.1478
73844W        W74708  21.250  13.177  25.724 -0.1348  0.2452  0.1917
73845W        W74709   6.945  15.605   4.481  0.1778 -0.1834 -0.2652
73846W        W74710  20.907   9.916   0.182  0.0742 -0.0514 -0.0425
73847W        W74711  28.374   1.505   1.211 -0.3462  0.2723 -0.2723
73848W        W74712   2.433  16.966   7.457  0.0931 -0.1972  0.0701
73849W        W74713  24.306   4.661   4.836 -0.3725 -0.0726  0.0446
73850W        W74714   5.019   0.515   5.646  0.3028  0.2295  0.3198
73851W        W74715  17.959  14.139   4.766  0.0271  0.1823 -0.1754
73852W        W74716  20.007  11.711  25.249  0.0200 -0.2229  0.1014
73853W        W74717  10.188   2.890  20.558 -0.1891 -0.2110  0.1777
73854W        W74718   1.756   2.209  22.250  0.2187  0.0270 -0.1198
73855W        W74719  22.629   9.685  15.131 -0.0141  0.1054 -0.0494
73856W        W74720  18.324  21.941   3.256  0.1365 -0.0379 -0.1805
73857W        W74721  21.017   5.139  13.086  0.0315 -0.0291  0.4270
73858W        W74722  21.690   0.972   1.194 -0.1966 -0.2019 -0.0820
73859W        W74723  18.390  20.915  22.182 -0.1743 -0.0847 -0.2056
73860W        W74724  11.951  27.536   7.262  0.0316 -0.0508 -0.2402
73861W        W74725  21.832  10.549  14.312 -0.1249  0.1548  0.2064
73862W        W74726   4.389  23.224  22.189  0.1782  0.0632 -0.1312
73863W        W74727  13.364  17.357   4.473  0.2287 -0.0167 -0.1832
73864W        W74728   3.994  28.887   7.177 -0.0467 -0.1424 -0.1118
73865W        W74729  24.570  15.355   3.019  0.1248 -0.0445 -0.2107
73866W        W74730  16.014  16.505   1.193  0.2277 -0.0389 -0.1724
73867W        W74731  24.429  10.291   3.011 -0.0638  0.2717  0.1061
73868W        W74732   8.091  23.120   9.887  0.0953 -0.0096 -0.0322
73869W        W74733  20.690   8.203  20.100 -0.1312 -0.0058  0.2462
73870W        W74734  23.682  19.582  17.274  0.0886  0.0604  0.0818
73871W        W74735  26.752  18.841   4.551  0.2761 -0.1285 -0.2178
73872W        W74736   4.212  16.520   9.906 -0.1057  0.0143 -0.2084
73873W        W74737  21.847   4.273  18.547  0.2561  0.0557  0.5693
73874W        W74738   4.753  16.136   8.009 -0.1535  0.0660  0.1570
73875W        W74739  27.801  14.854   1.666 -0.0836 -0.1364  0.1164
73876W        W74740  17.992  19.926  11.527  0.0477 -0.2320 -0.0383
73877W        W74741   2.330   1.067   2.947  0.3233 -0.1335  0.1399
73878W        W74742  23.288  24.370  17.202 -0.0097  0.0703 -0.0218
73879W        W74743  14.964  22.230  19.089 -0.2102 -0.2520 -0.0013
73880W        W74744  13.646  17.004  28.341 -0.0705 -0.2259 -0.0722
73881W        W74745  19.319  19.579  16.642 -0.2837 -0.1071  0.0586
73882W        W74746  22.357  20.380  13.837  0.2110 -0.0826 -0.0889
73883W        W74747   3.028  18.080   4.897  0.4008  0.0282  0.0118
73884W        W74748  13.104   5.894  23.182 -0.1424 -0.1359 -0.4234
73885W        W74749   5.537  24.371  14.143 -0.1732  0.2997  0.1638
73886W        W74750  13.733   7.051  22.055 -0.0575 -0.0677  0.0001
73887W        W74751  12.439  27.692  23.069  0.0698 -0.1933 -0.3579
73888W        W74752   7.191  17.723  10.132  0.0606 -0.0106  0.1274
73889W        W74753  17.283  21.612  15.121 -0.2953 -0.1792  0.1915
73890W        W74754  12.982  19.475   2.612  0.1538  0.2935  0.3039
73891W        W74755  18.137   0.825   4.233 -0.2304  0.2628 -0.4409
73892W        W74756  21.239  27.117  24.200  0.1470  0.1481 -0.1181
73893W        W74757  16.464  24.757  17.741  0.1029 -0.0204  0.1550
73894W        W74758  23.120   6.283  10.479 -0.1454 -0.0458  0.0176
73895W        W74759  19.671  25.480  11.454 -0.3075 -0.0202  0.0373
73896W        W74760  25.685  17.314  15.926 -0.2733 -0.0201  0.2495
73897W        W74761  25.565  15.442   6.467 -0.5129  0.2434 -0.1039
73898W        W74762  18.863  25.815   9.225 -0.0907 -0.0048  0.2213
73899W        W74763  27.779  26.273   7.426 -0.3221  0.1800 -0.0990
73900W        W74764   5.838  15.220  17.333 -0.0296 -0.0540  0.1860
73901W        W74765  14.775   8.946   4.751 -0.1603 -0.0384 -0.2788
73902W        W74766  27.498  24.033  17.577  0.0885  0.0025  0.3130
73903W        W74767  24.004  23.751  16.766 -0.1524  0.1735 -0.0050
73904W        W74768  12.311  27.687  28.430  0.0293  0.3872 -0.0944
73905W        W74769   6.169   5.832  20.080 -0.2019  0.1131 -0.0842
73906W        W74770  29.069  22.759  11.342  0.0122 -0.3674 -0.1888
73907W        W74771  21.554  19.538   8.667  0.1277 -0.1737  0.0035
73908W        W74772  20.792  27.672   0.000 -0.1222 -0.3375  0.0030
73909W        W74773   9.768  17.293   1.881  0.0142 -0.4313 -0.0654
73910W        W74774  14.822  13.912  21.988 -0.1504  0.0004 -0.0387
73911W        W74775  23.725  23.788  17.855 -0.0055 -0.0977  0.0553
73912W        W74776  20.075  24.794   4.603  0.1676  0.1581  0.1657
73913W        W74777   3.671  15.238  18.131 -0.0366 -0.1400  0.1093
73914W        W74778  20.212   2.599   5.534  0.0201  0.1690  0.0622
73915W        W74779  15.216  17.472  17.069  0.1070 -0.0491 -0.0005
73916W        W74780   1.445  15.259   4.913  0.0317  0.1238  0.1138
73917W        W74781   1.276  18.751  12.082 -0.0221 -0.1316 -0.3146
73918W        W74782  24.289   2.665   5.981 -0.2478 -0.1375 -0.1028
73919W        W74783  22.323  25.693  18.169  0.0961 -0.0816 -0.0910
73920W        W74784   4.692   4.730  20.481  0.0980 -0.0109 -0.1138
73921W        W74785  21.004  23.920   7.222  0.0056 -0.1437 -0.0064
73922W        W74786   2.417  23.863   1.670  0.3584 -0.0096 -0.3692
73923W        W74787   4.837  24.036   4.862  0.3033  0.0569  0.0254
73924W        W74788  18.773   4.846  14.904 -0.0207 -0.1809 -0.1419
73925W        W74789   7.469  23.063  26.871 -0.2600 -0.0177 -0.1961
73926W        W74790  17.211  28.704   0.679 -0.1209  0.1027 -0.0918
73927W        W74791   2.476   7.127  24.783  0.0516  0.1153  0.1995
73928W        W74792  28.478   3.445  16.664  0.0547  0.0750  0.2106
73929W        W74793  15.868  17.998  27.614  0.0215 -0.0043 -0.2724
73930W        W74794  20.199  28.131   4.596  0.0072  0.0297 -0.1435
73931W        W74795  15.298  25.623  13.056 -0.0674  0.0268 -0.0460
73932W        W74796   5.201  11.670   8.768 -0.1014 -0.0748  0.1916
73933W        W74797  26.527   6.612   8.313 -0.2064  0.1457 -0.0882
73934W        W74798  25.430  23.605  25.952 -0.0371 -0.1183 -0.2476
73935W        W74799  22.506   7.771   0.838 -0.2150 -0.2522 -0.1990
73936W        W74800   3.508  24.758  18.997  0.0860 -0.0684 -0.0641
73937W        W74801   4.303  26.283   7.846  0.3336  0.0764  0.0359
73938W        W74802   5.210  11.805   9.565  0.0020  0.3491 -0.0892
73939W        W74803  26.630   7.241  15.137 -0.1775 -0.0008 -0.2120
73940W        W74804  10.354  22.142  10.818  0.1012  0.1674 -0.1536
73941W        W74805  21.543   1.572  12.606 -0.0493 -0.1720 -0.3443
73942W        W74806  25.924   7.542  10.883 -0.1384 -0.1233 -0.0419
73943W        W74807   1.246  19.116  10.380  0.1385  0.0924 -0.0864
73944W        W74808  26.787   2.171  15.847  0.0560  0.3868  0.5190
73945W        W74809  18.781  13.220  13.956  0.0225 -0.1030 -0.0789
73946W        W74810   5.772  16.169  27.595 -0.0149  0.0786  0.0888
73947W        W74811  15.964   7.221  27.610 -0.0611 -0.1165  0.0257
73948W        W74812  13.944  25.114  13.560  0.0702 -0.0709  0.2836
73949W        W74813   1.759  27.913   0.493  0.1460  0.2817 -0.0820
73950W        W74814  18.360  12.060  15.775  0.0052  0.0415  0.2571
73951W        W74815  27.049  13.535   9.832  0.0637  0.0388 -0.2820
73952W        W74816  20.093   2.742   6.707 -0.0238 -0.0886 -0.2971
73953W        W74817  21.277   6.914   3.299  0.2547  0.0636  0.2204
73954W        W74818  16.619  25.517   4.748  0.1061  0.2706 -0.0293
73955W        W74819   6.108  16.984   9.664  0.2234  0.1576 -0.0021
73956W        W74820  13.290   4.851  24.227 -0.0542 -0.0408 -0.1309
73957W        W74821   6.273  22.566   9.225 -0.1445 -0.2444  0.3050
73958W        W74822  24.673   4.088  10.850 -0.3056 -0.3340 -0.1566
73959W        W74823   8.580   4.100  17.493  0.1638 -0.1035 -0.0218
73960W        W74824   9.510  27.076  10.974  0.0863  0.5232  0.2491
73961W        W74825  19.621  24.133  15.534 -0.1462  0.0987 -0.1473
73962W        W74826  21.346  10.289   5.598  0.6619 -0.1510 -0.0170
73963W        W74827  20.619  21.465   5.958  0.0066 -0.0492  0.4014
73964W        W74828  22.819   4.777   8.613 -0.0667 -0.2180  0.1259
73965W        W74829  16.824  21.056  25.784 -0.0499 -0.0981 -0.0292
73966W        W74830  23.050  17.211  28.175 -0.0610 -0.1290 -0.1262
73967W        W74831  21.703   5.173   5.231 -0.3670  0.1191 -0.0696
73968W        W74832  15.629   9.098   5.990 -0.2720 -0.1410 -0.1349
73969W        W74833   7.108  20.705   5.805 -0.0320 -0.1634 -0.2278
73970W        W74834  21.563   7.826  28.027  0.0011 -0.1531  0.1473
73971W        W74835  15.632  13.006  20.635  0.0930 -0.1184 -0.0509
73972W        W74836  17.670  13.544  16.258 -0.0407  0.0441  0.0820
73973W        W74837   5.705  18.429   5.137 -0.3139 -0.0264 -0.2536
73974W        W74838  20.524  26.640   0.899  0.0364 -0.1951 -0.2053
73975W        W74839   4.055  27.695  20.977  0.1868 -0.1971  0.2735
73976W        W74840  10.628  19.482   1.211  0.2686 -0.1036 -0.1960
73977W        W74841  18.054  14.814   4.612  0.1359  0.0612  0.0987
73978W        W74842  24.687  21.353   4.165  0.4140 -0.0262 -0.0467
73979W        W74843  12.807  21.990   1.767  0.2248 -0.0518 -0.0916
73980W        W74844  21.976  13.847   5.440 -0.0324  0.0758  0.0516
73981W        W74845   1.787   2.003  26.121  0.0365 -0.1874  0.0349
73982W        W74846  23.428  18.963  12.375  0.2165 -0.3001  0.2878
73983W        W74847   6.799  12.872   6.623  0.4665 -0.0070 -0.2046
73984W        W74848  28.584  25.359  16.619  0.0478  0.0937  0.2921
73985W        W74849  24.764  18.111  15.630 -0.3133  0.1497  0.0586
73986W        W74850  18.875  16.221  19.195 -0.1397  0.2654  0.2090
73987W        W74851   0.892   6.096  10.044 -0.2969 -0.3109  0.1103
73988W        W74852  20.857  21.945  11.070 -0.0259 -0.0559 -0.0854
73989W        W74853  18.405  20.052   1.331 -0.1899  0.0191 -0.1577
73990W        W74854   2.525  14.205  18.638 -0.1561  0.1536  0.0250
73991W        W74855  20.011   7.303  18.616  0.2845  0.3763 -0.2672
73992W        W74856   5.683   1.045   4.415 -0.0736 -0.0808  0.1123
73993W        W74857  17.045  12.053  17.648 -0.2886 -0.0823  0.0971
73994W        W74858  11.910  24.018  11.811 -0.0217 -0.1080 -0.2460
73995W        W74859  10.155   0.094   0.481 -0.0052  0.2074 -0.3350
73996W        W74860  21.159   1.817  25.150 -0.2322  0.0040 -0.1002
73997W        W74861   1.028  25.757   0.255 -0.3333 -0.0205 -0.1028
73998W        W74862  20.323  22.575  16.403 -0.4122  0.3409  0.1696
73999W        W74863  25.805   4.174   2.851 -0.0803  0.0624 -0.0080
74000W        W74864  21.681   8.666  11.296  0.0333  0.2134 -0.0479
74001W        W74865  24.202   3.121  20.545 -0.1374 -0.1907  0.0386
74002W        W74866  17.604  28.955   0.857  0.1831  0.2496 -0.0270
74003W        W74867  15.125   0.545  13.272 -0.0579  0.1261  0.0543
74004W        W74868  25.755  24.191  11.847 -0.0068 -0.1564 -0.0963
74005W        W74869  19.816  12.659  18.007  0.2718 -0.0484  0.2157
74006W        W74870   9.956  19.906   4.403 -0.0814  0.2488 -0.4662
74007W        W74871   6.101   3.019  13.853 -0.1152 -0.2604 -0.2785
74008W        W74872   1.537  21.809   4.700 -0.0607  0.2162  0.2212
74009W        W74873  25.524   5.187  24.791  0.0881  0.1343  0.0760
74010W        W74874   0.148  11.698  18.555 -0.0890 -0.0822 -0.0702
74011W        W74875  11.988  23.702   6.156  0.1051  0.0210 -0.0625
74012W        W74876  16.277  25.951  23.892  0.1285 -0.0204 -0.2102
74013W        W74877   2.739  15.251  14.224 -0.0387 -0.0588 -0.1933
74014W        W74878   5.097  24.926   3.713  0.1280 -0.0253  0.1597
74015W        W74879   0.716   3.328  28.273  0.1330 -0.0452 -0.2456
74016W        W74880   7.334  28.085  10.030 -0.1403  0.1327  0.3093
74017W        W74881  28.591  26.100   9.526 -0.0089 -0.0183  0.1338
74018W        W74882  14.501   7.919  20.545  0.0149 -0.1814  0.1048
74019W        W74883   0.382  28.446  21.129 -0.1204  0.1772 -0.1174
74020W        W74884   0.724  17.916  15.819  0.2683 -0.0274 -0.0402
74021W        W74885  15.022  21.614  24.791 -0.2039  0.3084 -0.0177
74022W        W74886  15.620  27.805  18.722  0.0792 -0.1271  0.1076
74023W        W74887  23.546   9.928   7.535  0.3815  0.2200 -0.1542
74024W        W74888  28.392  12.546   9.280  0.0321  0.0680 -0.0192
74025W        W74889  25.371  26.506  10.358 -0.0206  0.0448  0.0558
74026W        W74890   8.075  24.936  28.312  0.1944 -0.0546  0.1768
74027W        W74891  20.685  28.202  18.960  0.0398 -0.2062  0.0248
74028W        W74892  24.787  19.481  27.954 -0.2477 -0.2099  0.0954
74029W        W74893  10.753   8.406  12.393 -0.0917  0.0969  0.1136
74030W        W74894  25.708   4.670   9.924  0.2964 -0.7181 -0.2740
74031W        W74895   3.790  15.181  27.210  0.2390  0.0137  0.0167
74032W        W74896  18.360  26.596   7.071 -0.1085  0.0415  0.0447
74033W        W74897  24.528  15.131   5.011 -0.1752 -0.0749  0.2111
74034W        W74898  28.730  26.121  17.322 -0.0375 -0.2518  0.0386
74035W        W74899  13.020  27.751   3.281  0.0216  0.0457 -0.0792
74036W        W74900  17.401  22.043  25.260 -0.2481 -0.0578 -0.0725
74037W        W74901  17.007   2.451  17.350  0.0046 -0.2554  0.0401
74038W        W74902   9.517  10.991   2.634 -0.2818  0.5318  0.0623
74039W        W74903   0.615   8.096  23.156 -0.0212 -0.1025 -0.1461
74040W        W74904  19.048  28.079  23.383  0.1402 -0.0495  0.1860
74041W        W74905  19.569   4.205   9.486 -0.0267 -0.0954  0.0872
74042W        W74906  11.079  27.224  22.560  0.3062 -0.2077 -0.2083
74043W        W74907  22.211   0.679  18.046 -0.1748  0.0795  0.2185
74044W        W74908   1.463  23.433  22.744 -0.2973 -0.0509 -0.0869
74045W        W74909  20.001  21.768  16.431 -0.2042 -0.0609  0.0230
74046W        W74910  16.670  13.315  12.802 -0.1912  0.1469  0.0707
74047W        W74911  22.083   4.541   2.957  0.0379 -0.0232  0.0574
74048W        W74912  11.505  24.875  21.011 -0.0424 -0.0242  0.0717
74049W        W74913  17.890  21.409   9.079  0.2430 -0.0835  0.0262
74050W        W74914   9.309  12.886  23.392  0.2013 -0.1123  0.0605
74051W        W74915   4.694  24.135  16.991  0.3406  0.1280  0.3620
74052W        W74916   2.158   2.372  26.020 -0.1852 -0.0234 -0.0354
74053W        W74917  25.479  17.081   6.813 -0.1804 -0.3128  0.1177
74054W        W74918  16.565  23.485   6.888  0.2164  0.0076 -0.0001
74055W        W74919  16.520  24.430  28.277 -0.0917 -0.0881 -0.1774
74056W        W74920   0.600  16.397  20.534 -0.0075  0.0524 -0.1088
74057W        W74921  28.995  13.312  28.066  0.2789 -0.0679 -0.0464
74058W        W74922  13.282  12.211  22.663  0.0385 -0.0604 -0.1793
74059W        W74923  21.673  17.146   5.318 -0.2390  0.0629  0.0412
74060W        W74924   8.642  13.646  20.667  0.2546  0.1436 -0.1580
74061W        W74925  26.322  13.336  27.434 -0.2273 -0.2489  0.1608
74062W        W74926   5.983  17.722  24.661  0.0926  0.1590 -0.0155
74063W        W74927  21.063   2.317  25.227 -0.1669 -0.2629  0.0453
74064W        W74928   3.206  22.709  10.057  0.0624 -0.2944 -0.3464
74065W        W74929   3.247   9.136  21.345  0.0674 -0.2879  0.0919
74066W        W74930  10.055  12.194  16.625 -0.0173  0.0112  0.1712
74067W        W74931  16.391  24.499   1.330 -0.1946 -0.2481 -0.0634
74068W        W74932  13.553  11.964   6.778 -0.1082 -0.1664 -0.0313
74069W        W74933   7.618  13.372  23.257 -0.2382  0.0627 -0.0964
74070W        W74934  19.453   4.967  28.181  0.0745  0.0957  0.0018
74071W        W74935   3.661  23.102   4.694  0.2723 -0.0476  0.2274
74072W        W74936  20.767  20.081   6.302 -0.0056 -0.0223  0.1763
74073W        W74937  18.369  23.746  27.660  0.0860 -0.0406 -0.0255
74074W        W74938  15.552   4.669  24.332 -0.2556 -0.0025 -0.0290
74075W        W74939   3.246  14.227  10.181  0.1736  0.0156  0.2021
74076W        W74940  16.978  28.769   4.779 -0.0496 -0.0005 -0.1772
74077W        W74941  22.799  28.368   7.930  0.0336 -0.1455 -0.0653
74078W        W74942   6.226  18.421   5.034 -0.1797 -0.0005  0.4300
74079W        W74943  21.389  17.130  10.359  0.1255 -0.1474  0.1663
74080W        W74944  28.592  16.439  22.530  0.0933  0.1520 -0.0622
74081W        W74945   0.665  12.626   3.373 -0.2380  0.1741  0.1748
74082W        W74946   1.037  15.753   3.763  0.1065 -0.0332 -0.3057
74083W        W74947   2.195  27.123  14.651  0.0289  0.0362 -0.0574
74084W        W74948   5.632  13.919  18.379  0.3920 -0.1402 -0.2467
74085W        W74949   3.448  28.306  24.618  0.1714  0.1695  0.2354
74086W        W74950  22.891  21.566   9.747 -0.1162  0.1772 -0.3326
74087W        W74951   6.505  25.743  11.328  0.1897 -0.0324  0.1346
74088W        W74952  23.150  19.001   9.286 -0.1178 -0.1133 -0.0784
74089W        W74953  23.892  25.221  23.466  0.0960  0.1028  0.1022
74090W        W74954  18.380  24.269  15.192  0.1855  0.0981  0.0402
74091W        W74955  23.684  19.218  20.356 -0.2795 -0.3733 -0.0475
74092W        W74956   8.072  12.922  16.281  0.1276 -0.1237 -0.4820
74093W        W74957  28.397  23.504   1.707  0.2852 -0.2189  0.2337
74094W        W74958  17.753  28.606   6.742  0.1567  0.0529 -0.2031
74095W        W74959  28.566  12.311   1.821 -0.0491 -0.2910 -0.0949
74096W        W74960  23.964   1.549  22.756  0.3762 -0.0441  0.0678
74097W        W74961  14.450  23.428  23.736  0.2523  0.2382  0.2147
74098W        W74962  18.782   2.402   3.891 -0.2563 -0.1105 -0.3105
74099W        W74963  12.222   4.826  19.035  0.1797 -0.0040  0.1183
74100W        W74964  22.551   2.682  16.741  0.2453 -0.4265 -0.3490
74101W        W74965  29.046   0.418  18.830 -0.0720  0.0483 -0.3440
74102W        W74966   4.829  26.327  18.100 -0.0179 -0.0627  0.2126
74103W        W74967  22.970  22.336  13.452 -0.1877 -0.1226 -0.0678
74104W        W74968  23.616  29.050  15.969 -0.0876  0.1605  0.1071
74105W        W74969   3.989  21.761   1.800  0.2646  0.0385  0.3782
74106W        W74970  14.637   3.400   3.123  0.0727 -0.1987  0.0724
74107W        W74971  24.930  18.112  28.512 -0.2173 -0.0239 -0.1418
74108W        W74972  21.778   3.151  23.164  0.1880  0.2993  0.1974
74109W        W74973  13.603   1.297  18.899 -0.3802 -0.1769  0.0051
74110W        W74974  12.173  24.474   8.079 -0.2392  0.3400  0.1311
74111W        W74975  20.500  20.308  11.447 -0.4699 -0.2192 -0.0382
74112W        W74976  12.792  13.066  22.173  0.0329 -0.2998  0.0463
74113W        W74977  20.537  19.418  27.996 -0.2281 -0.1002 -0.1739
74114W        W74978  18.264  24.962   0.361  0.2372  0.0933 -0.2130
74115W        W74979   2.498  19.067   3.609 -0.1808 -0.2905 -0.1872
74116W        W74980  22.206  10.737  13.494 -0.0720  0.1611  0.0262
74117W        W74981  23.275  17.670  22.070  0.0674 -0.2280  0.0252
74118W        W74982  15.772  21.401   8.738 -0.0970  0.2115 -0.3388
74119W        W74983  14.452  10.043  11.425 -0.0707 -0.2676 -0.1414
74120W        W74984  25.411  14.781  12.379  0.0640  0.0736 -0.1048
74121W        W74985  14.634  12.574  19.664  0.3133 -0.0773  0.1889
74122W        W74986  20.269  21.379   2.192  0.0652  0.0292  0.1758
74123W        W74987  24.217  17.422  18.136  0.0128 -0.1296 -0.2662
74124W        W74988  17.746   8.755   2.651 -0.0866 -0.0736  0.0185
74125W        W74989   4.213   8.916   0.058 -0.1686 -0.1913 -0.1860
74126W        W74990  26.069  28.200  18.010 -0.2852 -0.0428 -0.0854
74127W        W74991  10.126   7.323   7.805  0.0957 -0.1258  0.1556
74128W        W74992  25.746  24.435  24.455 -0.0811 -0.0209  0.0886
74129W        W74993   3.311  13.810  15.376  0.2741  0.2416  0.2025
74130W        W74994  23.699  17.475   7.189 -0.3476 -0.0926 -0.0301
74131W        W74995  28.224  15.786  20.299  0.0328 -0.2280 -0.1505
74132W        W74996   9.625  21.820   2.811 -0.0762 -0.1357 -0.0749
74133W        W74997  28.129  17.776  22.863 -0.1119 -0.0910 -0.1969
74134W        W74998  24.485  21.602  17.362 -0.3575  0.0578 -0.4601
74135W        W74999  25.840   0.337   7.658 -0.0203 -0.0898  0.0360
74136W        W75000  12.565  16.365   2.626  0.0144  0.1855 -0.0695
74137W        W75001  19.448   0.777  14.512 -0.2309 -0.3755  0.1369
74138W        W75002  25.559  27.859   8.219 -0.2083 -0.2393 -0.2650
74139W        W75003  23.858   7.807  11.773  0.0943  0.2201 -0.0751
74140W        W75004   4.086   7.010   4.158 -0.0473  0.1012 -0.0463
74141W        W75005  25.741  23.633   7.112  0.1049  0.0651  0.1025
74142W        W75006  20.941   3.469  18.135  0.1626  0.1547  0.1359
74143W        W75007  24.572  11.850  18.476  0.1136  0.1703 -0.1431
74144W        W75008  23.746  12.893  24.200  0.1999 -0.0298 -0.1013
74145W        W75009  12.796  11.131   5.470  0.1034 -0.2455  0.0572
74146W        W75010  20.006  17.032  13.793  0.1746 -0.2826  0.3394
74147W        W75011  23.681  13.946  18.434  0.2020 -0.3474  0.0512
74148W        W75012   6.525  11.720  28.616  0.1297  0.2626  0.1203
74149W        W75013  13.605   0.338  16.168 -0.1050  0.0353 -0.2341
74150W        W75014  28.403   1.829   1.932  0.1522  0.1189  0.0880
74151W        W75015  22.653  24.718  19.854  0.2410 -0.0074 -0.0969
74152W        W75016  28.250  26.803  20.030 -0.1007  0.0078  0.0891
74153W        W75017  25.073  14.279   7.373 -0.1157  0.1846  0.3360
74154W        W75018  22.308  22.060   3.576 -0.0086  0.2699  0.0221
74155W        W75019  28.239  12.322   3.736  0.1290 -0.1816  0.1809
74156W        W75020   1.828  20.546  15.424 -0.3297 -0.1080  0.1773
74157W        W75021   1.152   3.654  26.046 -0.0548  0.0327  0.0019
74158W        W75022  11.394   4.800   6.869 -0.0403  0.1291  0.1090
74159W        W75023  25.684   1.155  13.741 -0.1781  0.1272  0.3814
74160W        W75024   9.355  18.891  19.526  0.1624 -0.1072 -0.2686
74161W        W75025   0.917   2.114  14.038 -0.1697  0.2796  0.0365
74162W        W75026  24.515  26.667   5.770  0.0026  0.0706  0.2068
74163W        W75027   4.215  19.667  11.820  0.0304  0.0564 -0.0323
74164W        W75028  22.550   5.309  12.019 -0.1180  0.0193 -0.0059
74165W        W75029   9.253  25.647  14.559  0.3369  0.0158  0.0725
74166W        W75030  20.065   1.705  10.166  0.0666  0.2336 -0.1448
74167W        W75031  25.143  23.840   2.357  0.1448  0.0154 -0.1028
74168W        W75032   1.470  10.823  12.896  0.1224  0.2525  0.2185
74169W        W75033   2.538   8.726   0.414  0.2221  0.0753 -0.3806
74170W        W75034  20.403  11.015  20.938 -0.0908  0.0457 -0.0238
74171W        W75035   6.883  27.032   6.412 -0.3092  0.0540 -0.3833
74172W        W75036   3.759  16.035   2.652 -0.1599 -0.4563  0.0671
74173W        W75037   1.229  19.999  11.511  0.1276  0.0364 -0.0526
74174W        W75038   3.212  23.276  22.594  0.0768  0.0128  0.0421
74175W        W75039  24.817  23.013   5.473 -0.2915 -0.0465 -0.3112
74176W        W75040   4.862   3.917  18.419 -0.1435  0.3349 -0.2981
74177W        W75041   1.691   8.814  19.436  0.1293 -0.0913 -0.0290
74178W        W75042  20.840  17.518   9.889  0.1705 -0.0927  0.1544
74179W        W75043  11.594   0.070  27.843  0.0764  0.4295  0.0428
74180W        W75044  26.309  22.976  22.660  0.1757 -0.0135 -0.1363
74181W        W75045  12.184  11.544  12.620 -0.0520  0.1253  0.1424
74182W        W75046  14.902  11.771   6.422  0.2958  0.0592 -0.1869
74183W        W75047  26.485  10.052  15.786  0.0467  0.0750 -0.0270
74184W        W75048  28.553  27.017   1.849 -0.0455  0.0629 -0.0487
74185W        W75049  20.263  20.518  14.386 -0.0695 -0.2106 -0.2727
74186W        W75050  26.749   7.387  23.170 -0.0405  0.0833  0.3806
74187W        W75051  27.335   5.427  26.054  0.1727  0.3560  0.1534
74188W        W75052   8.713  10.677   8.778  0.0278  0.1871 -0.0136
74189W        W75053  28.031  20.479  28.581 -0.1813 -0.1386 -0.0613
74190W        W75054   5.258  19.232   8.352  0.0310  0.2387  0.1238
74191W        W75055  20.155  20.018  14.012  0.1174  0.1743  0.0887
74192W        W75056  16.880   2.413  16.463 -0.1178 -0.2084  0.2358
74193W        W75057  23.886  27.478   4.239  0.0173 -0.0872 -0.1395
74194W        W75058   8.516  23.490   0.926 -0.3296  0.1210 -0.1371
74195W        W75059  16.212  11.150  17.880 -0.0409  0.1786 -0.0999
74196W        W75060   9.544  24.712   2.529 -0.1256 -0.1565  0.2089
74197W        W75061  20.777  28.804   8.623  0.1306  0.3450  0.1504
74198W        W75062  21.244  25.230  17.379 -0.0910 -0.4055 -0.3314
74199W        W75063   1.858   9.620   8.685  0.2185 -0.1326  0.1251
74200W        W75064  12.759   7.445  13.915  0.1973 -0.0195 -0.2990
74201W        W75065  27.114   0.460  13.196 -0.0591  0.1585 -0.2082
74202W        W75066  22.930  18.673   6.025  0.3415  0.2436  0.0625
74203W        W75067   4.068  14.383   6.977  0.0309 -0.0009 -0.0837
74204W        W75068  27.515  22.045   9.872 -0.0259 -0.2369  0.2966
74205W        W75069  21.322  12.939  26.245  0.1864  0.0374 -0.0018
74206W        W75070  12.250  12.932  18.595 -0.0098  0.0473 -0.0131
74207W        W75071   2.550  14.205   7.620 -0.0492  0.1092 -0.0816
74208W        W75072  11.031  22.778  22.687 -0.1117  0.2502  0.0178
74209W        W75073  23.703   9.873  12.451  0.0972  0.1256 -0.5663
74210W        W75074  25.152  19.616   8.936  0.0868 -0.0005  0.2594
74211W        W75075  22.083  20.072   2.267 -0.0320  0.0173  0.1775
74212W        W75076   3.497   3.519  16.246  0.1595  0.0019  0.0657
74213W        W75077  21.313  24.903   1.398  0.1474 -0.1711  0.0683
74214W        W75078   4.677   1.771  18.712  0.3451  0.1823  0.0005
74215W        W75079  11.686  21.625   9.689  0.2181  0.0106 -0.0989
74216W        W75080   6.981  23.013  11.553  0.0140 -0.2063 -0.2802
74217W        W75081   9.041  10.505  14.892  0.2665  0.0504  0.1392
74218W        W75082  18.763   9.886  14.181  0.4335  0.3040 -0.0217
74219W        W75083   2.767   8.342  15.120 -0.0693  0.3219 -0.1248
74220W        W75084  13.246   2.022  11.568  0.0152  0.0378  0.2525
74221W        W75085  12.073   5.978  25.632  0.2846 -0.0531 -0.2368
74222W        W75086  24.647  12.091  10.388 -0.0403 -0.2665  0.0924
74223W        W75087  17.759  15.776   3.705  0.0744  0.2474 -0.0725
74224W        W75088  20.991  17.680   2.083 -0.0301  0.2785 -0.0985
74225W        W75089  22.382  26.713   0.138 -0.1197  0.2849  0.0243
74226W        W75090  16.625  27.770  17.827 -0.0208  0.2219 -0.0839
74227W        W75091  15.847  21.742  27.783  0.2681  0.5157  0.2401
74228W        W75092  26.276   6.788  15.141 -0.4036 -0.2986 -0.1897
74229W        W75093  12.581  19.611  19.648  0.5000 -0.1431 -0.1365
74230W        W75094  14.754  18.070   9.858  0.1857  0.3516  0.1421
74231W        W75095  26.256   1.112  22.439 -0.1193 -0.0038 -0.3977
74232W        W75096  26.179  26.680  18.945 -0.1032  0.0034 -0.1646
74233W        W75097   9.302   2.897   5.015 -0.0622  0.1988 -0.0552
74234W        W75098  26.394  27.083  18.791  0.0131 -0.0058  0.0090
74235W        W75099  16.796   5.667  13.016  0.0987  0.2812  0.0916
74236W        W75100  22.587  21.603   8.367  0.0859  0.0222 -0.1008
74237W        W75101   0.350  22.099   1.544 -0.1643 -0.2220 -0.0472
74238W        W75102  15.455  23.616  16.915 -0.2395 -0.1255 -0.0480
74239W        W75103  20.436  24.526  18.117  0.0940 -0.0004  0.1641
74240W        W75104   3.683   3.788  17.123  0.0530  0.1944  0.1303
74241W        W75105   4.535  21.983  27.451 -0.0993  0.1279 -0.0083
74242W        W75106  12.131  22.367   5.955 -0.1148 -0.2190  0.0212
74243W        W75107   2.821  22.102   7.192  0.0169 -0.0182 -0.0108
74244W        W75108  12.535  12.801  11.737  0.1238 -0.1566 -0.3656
74245W        W75109   0.941   1.203  15.012 -0.1892  0.1258  0.1545
74246W        W75110   7.412   0.707   5.764  0.3185 -0.2043  0.0299
74247W        W75111  26.565  20.690  18.323 -0.3250  0.0251  0.0294
74248W        W75112   8.857   0.526   2.777  0.0460  0.0411  0.3048
74249W        W75113   3.212  28.169  27.038 -0.0331 -0.0231  0.0052
74250W        W75114   3.629  25.084  16.526 -0.0427 -0.2865 -0.1334
74251W        W75115  27.953   4.562   4.457 -0.0263 -0.0759  0.2945
74252W        W75116  10.670  22.036  24.954  0.0082  0.2145 -0.3603
74253W        W75117   8.546   3.895   8.000 -0.1279  0.2628 -0.3018
74254W        W75118  26.781  28.067  14.204 -0.0594 -0.3067  0.0884
74255W        W75119   1.431   2.263  16.572  0.1312  0.1856  0.0223
74256W        W75120   1.096  24.326   3.395 -0.0285 -0.0535  0.0245
74257W        W75121  28.175  22.461   8.795 -0.3983  0.5813 -0.0090
74258W        W75122  22.402  24.892   7.966  0.0788 -0.1881  0.0132
74259W        W75123  24.836  13.946   2.227 -0.1766  0.0535 -0.1028
74260W        W75124  18.078  28.337  10.744 -0.0352  0.0453 -0.1318
74261W        W75125   0.240  15.715   2.083  0.4166 -0.1102 -0.0409
74262W        W75126  21.618   1.541  20.312 -0.0838  0.5043  0.3450
74263W        W75127  27.422   1.870   5.903  0.1604  0.0703 -0.1603
74264W        W75128  14.005   7.171  11.202  0.2882 -0.2098  0.0832
74265W        W75129  24.204  12.753  19.999 -0.1467 -0.0372 -0.1380
74266W        W75130  15.125  21.559  28.587 -0.0734 -0.2650 -0.0128
74267W        W75131   6.159  24.381   0.137 -0.1019 -0.0762 -0.1697
74268W        W75132  28.488   0.851   0.576 -0.2401 -0.0629  0.1157
74269W        W75133   2.467  16.163   4.740 -0.0056  0.4175  0.0345
74270W        W75134  24.699  15.005  14.007 -0.0812  0.0649 -0.1081
74271W        W75135  10.949   4.044  12.190 -0.2044 -0.1543 -0.1187
74272W        W75136  19.213  15.249   0.619 -0.2290 -0.1549 -0.2116
74273W        W75137  20.095  13.032  15.802  0.0328 -0.1124 -0.4768
74274W        W75138  10.220  28.223  27.561  0.0225 -0.2555  0.1085
74275W        W75139  17.490  22.611   6.080 -0.2447 -0.2332 -0.2434
74276W        W75140   0.630  26.221  24.928 -0.5175 -0.1508  0.0222
74277W        W75141  13.805  18.575   1.970 -0.0576 -0.0395  0.0154
74278W        W75142  11.106  22.146   8.500  0.1502  0.2316 -0.0668
74279W        W75143  13.860  10.395   8.968  0.3052 -0.1079  0.0412
74280W        W75144   8.162  17.006  19.232 -0.0334  0.2605  0.0583
74281W        W75145   0.512  25.015  28.857  0.4786 -0.1664 -0.0099
74282W        W75146  14.311   4.615  12.017 -0.1513 -0.5032 -0.0161
74283W        W75147  11.361   4.497  21.481  0.0294  0.0352  0.0062
74284W        W75148  12.040   0.916  28.001  0.0543  0.1923 -0.2433
74285W        W75149  23.287  25.010   6.093 -0.1929  0.1017 -0.1742
74286W        W75150  16.882  14.811   5.314  0.1263 -0.2238  0.0999
74287W        W75151   5.382  23.830  14.249  0.1312  0.1178 -0.1853
74288W        W75152  26.293   1.897  17.391  0.0409  0.1663 -0.1127
74289W        W75153  23.627   9.563   1.871  0.0365 -0.1657  0.2753
74290W        W75154  28.099  21.148  24.377 -0.1425  0.2597  0.1919
74291W        W75155  22.704  15.551  17.980  0.1448 -0.1631 -0.1515
74292W        W75156  16.583  24.238   8.588 -0.1816 -0.1273  0.1570
74293W        W75157  25.261  16.641  10.017 -0.1668  0.1160 -0.2698
74294W        W75158   6.356  12.016   4.736  0.0870 -0.1454  0.1384
74295W        W75159   4.732   1.525   2.454  0.1025 -0.0752 -0.0002
74296W        W75160  28.326  16.766  16.734 -0.0730 -0.0279 -0.3736
74297W        W75161   5.964  15.489  22.234 -0.1238  0.2818  0.0766
74298W        W75162   0.218   6.567  21.728 -0.1568  0.0016 -0.2262
74299W        W75163  26.785  17.738  11.362  0.3456  0.1184 -0.3818
74300W        W75164  28.828  15.714   2.030 -0.0602  0.0134 -0.1910
74301W        W75165  22.847  18.674  21.321 -0.1774 -0.5103 -0.3560
74302W        W75166  14.624  17.763   2.608 -0.0528  0.0126 -0.2909
74303W        W75167  17.170   8.754  28.748  0.1095  0.0937 -0.2162
74304W        W75168   3.708  25.782  23.051 -0.1770  0.0484 -0.0220
74305W        W75169   4.065  22.081  18.075 -0.3642  0.0623 -0.1302
74306W        W75170   0.787   2.057  15.580  0.0268 -0.2228 -0.1258
74307W        W75171  29.024  16.906   6.851  0.2556 -0.0197 -0.1552
74308W        W75172  14.054  21.455  21.013  0.0749  0.1397  0.2397
74309W        W75173  20.004   8.265   5.376 -0.1226 -0.0943 -0.3336
74310W        W75174  21.453  18.005  10.117  0.2665  0.0306 -0.0714
74311W        W75175  17.371  22.779  16.010 -0.2583  0.2567 -0.1483
74312W        W75176  23.027  11.912  15.882  0.1444 -0.1100  0.0362
74313W        W75177  26.466  17.869  14.876  0.0994 -0.0568  0.1543
74314W        W75178   6.979   2.207  24.479 -0.1350  0.4903  0.1448
74315W        W75179  10.754  21.785  20.867 -0.1386 -0.4374  0.1336
74316W        W75180  15.049  11.878  20.612 -0.1341 -0.1269  0.0917
74317W        W75181  14.336   3.553  25.363 -0.2749 -0.2081  0.1428
74318W        W75182  25.414  25.480  13.100  0.3068  0.0037  0.3318
74319W        W75183  25.992  15.411   5.743 -0.4287 -0.3595  0.0131
74320W        W75184   0.250  25.206  13.470 -0.4627  0.1088  0.0934
74321W        W75185  22.714   7.082   0.729  0.0230  0.1393  0.0460
74322W        W75186   1.097  24.682  13.982 -0.3228  0.0333 -0.1393
74323W        W75187  26.300  10.577  10.875  0.1834 -0.0742 -0.1118
74324W        W75188  22.799   1.954  16.899  0.0001 -0.0218  0.0445
74325W        W75189  22.189   4.653  18.307  0.1047 -0.1453 -0.0001
74326W        W75190  21.542   7.800  12.002  0.3269 -0.1813 -0.0187
74327W        W75191  23.267  14.877   2.494 -0.2631 -0.2384 -0.0987
74328W        W75192  25.902   5.134  24.069  0.0130 -0.0911 -0.1014
74329W        W75193  20.814  23.121  18.564 -0.0858 -0.0225 -0.0478
74330W        W75194  29.051  18.464   5.946 -0.1239 -0.0597 -0.1089
74331W        W75195  22.771  25.313   9.619  0.1319  0.0333  0.0976
74332W        W75196   9.722   8.792   8.166 -0.3447 -0.0502  0.0912
74333W        W75197  25.458  19.316  11.121 -0.0008  0.0842 -0.2034
74334W        W75198   3.828  17.479   7.420 -0.2027 -0.0543  0.3051
74335W        W75199  16.390  18.521   6.582  0.4008  0.0052  0.0678
74336W        W75200  26.368   3.746  15.555  0.1489 -0.0681 -0.0703
74337W        W75201  27.871  13.548  14.078  0.0157 -0.3034 -0.0079
74338W        W75202  14.369  23.938  27.602 -0.1651  0.0769  0.0051
74339W        W75203  12.878  26.354   9.309 -0.2771 -0.1175 -0.3068
74340W        W75204  26.446  17.463  10.511  0.3379 -0.0190  0.3344
74341W        W75205  25.952  23.605  24.236  0.0711 -0.1866  0.3738
74342W        W75206  18.466  27.358   5.837 -0.2957  0.3801  0.2125
74343W        W75207   6.977   5.136  22.842 -0.0523  0.3019  0.1052
74344W        W75208   5.277  14.300  16.186 -0.1373  0.1129 -0.0182
74345W        W75209  11.018  28.360   9.037  0.1289 -0.3093  0.0644
74346W        W75210   0.786  25.049  14.161 -0.2769  0.1936  0.0301
74347W        W75211   1.997  20.339  11.608  0.2773  0.1094  0.1238
74348W        W75212   6.695   2.209   3.377  0.2267 -0.1089  0.1658
74349W        W75213  26.155  26.562  13.807  0.2243 -0.2860 -0.1205
74350W        W75214  23.993  17.059  12.570  0.0095 -0.0823  0.0893
74351W        W75215  27.853   3.925   2.054 -0.2957 -0.2688  0.0867
74352W        W75216  28.554   9.650  27.289 -0.0738 -0.0019  0.2561
74353W        W75217  12.688  20.885   5.546  0.2028 -0.0170 -0.3281
74354W        W75218   3.495   2.102  16.195  0.0725 -0.1849 -0.0985
74355W        W75219  18.436   2.546  16.799 -0.0160 -0.2923  0.4349
74356W        W75220   0.745   3.423   7.997 -0.0739 -0.0980  0.0491
74357W        W75221   0.089   3.134   1.304 -0.2708 -0.3729  0.1946
74358W        W75222  23.849  21.989  24.574 -0.0199  0.1052  0.1190
74359W        W75223  23.692  12.175   5.253  0.0232 -0.1111 -0.0211
74360W        W75224  20.139  16.322  27.588 -0.0383 -0.2316  0.0967
74361W        W75225  25.622   1.879  23.535  0.3484  0.0061  0.0883
74362W        W75226  20.098  18.798  14.499  0.0907  0.0269  0.3359
74363W        W75227  14.358   8.681   6.262 -0.0321  0.0893 -0.2047
74364W        W75228  28.357  10.521   2.240  0.0478  0.0810 -0.0342
74365W        W75229   1.247   9.187   4.329  0.0883  0.2344 -0.0337
74366W        W75230   7.935  24.075   3.020  0.1058 -0.0376  0.0609
74367W        W75231  18.165  27.783  21.022 -0.2172  0.0800 -0.0280
74368W        W75232  13.562   2.532  11.297  0.3504  0.2811 -0.2639
74369W        W75233   5.763   4.520   8.923  0.1778  0.2928 -0.0316
74370W        W75234   3.844  13.908   2.046 -0.1879  0.3135  0.0033
74371W        W75235  26.262  15.881  15.740 -0.0420 -0.0139  0.2929
74372W        W75236  16.589  23.605  28.367 -0.1762 -0.2398 -0.2638
74373W        W75237  22.682  17.092  23.667  0.3965 -0.1731 -0.3946
74374W        W75238  28.852   3.555  19.132  0.1305 -0.0548 -0.0938
74375W        W75239  22.756   3.900  18.012 -0.0264  0.1595 -0.1738
74376W        W75240  22.972  22.379  11.256 -0.0335  0.1888  0.0381
74377W        W75241  16.578  19.766   9.555  0.2896  0.1016  0.0707
74378W        W75242  22.543   6.460   7.957  0.2308  0.2973  0.0148
74379W        W75243  23.812  15.748  26.955  0.1144  0.2976 -0.0495
74380W        W75244  26.661  28.440   7.506 -0.2547  0.0508  0.2349
74381W        W75245  11.063   4.571   1.068 -0.2167 -0.0392 -0.0565
74382W        W75246  11.091  26.213  18.290  0.1085  0.0991  0.2050
74383W        W75247  21.566  24.245   9.810 -0.2621  0.1514  0.0664
74384W        W75248  19.298  22.860  10.050 -0.1350  0.0733 -0.1607
74385W        W75249  14.998  19.719  21.109 -0.1193 -0.0366  0.1005
74386W        W75250  19.220   9.636  12.859 -0.0738  0.1357 -0.1595
74387W        W75251   0.014   7.707  17.036 -0.0742 -0.3799  0.0301
74388W        W75252  28.848   7.012   2.918  0.1086 -0.2380  0.1845
74389W        W75253  23.678  25.569  20.571 -0.2755  0.2566  0.0220
74390W        W75254   3.226   2.090  10.825 -0.1891  0.0653 -0.0141
74391W        W75255   3.896   4.183  11.543  0.2441  0.0437  0.0911
74392W        W75256   2.285  26.384  14.941  0.1356 -0.2771 -0.0696
74393W        W75257  28.203  22.454  18.398 -0.1079 -0.2418 -0.0490
74394W        W75258  17.499  13.799  12.536  0.0734  0.2627  0.0120
74395W        W75259  16.419  16.539   4.889 -0.0103  0.0504  0.1154
74396W        W75260  20.417  21.514  24.851 -0.2709  0.0589  0.0686
74397W        W75261  27.166  21.023  11.769 -0.2157 -0.2742  0.0127
74398W        W75262  22.060  26.353  15.243  0.2893  0.1504  0.3981
74399W        W75263   8.463   5.130   4.727 -0.1846 -0.0400 -0.1877
74400W        W75264  25.121  15.521  18.977 -0.0297  0.2600 -0.0170
74401W        W75265  21.676  21.596  26.961  0.0718  0.0335 -0.0202
74402W        W75266  14.522   3.479  18.235  0.0342 -0.1682 -0.0592
74403W        W75267   4.781  24.215   8.615  0.1868  0.0478 -0.0745
74404W        W75268  16.843   5.554  19.499  0.4971 -0.0532 -0.4330
74405W        W75269  10.502   3.783  16.199 -0.0643  0.1485 -0.0780
74406W        W75270  19.145  13.253  18.361  0.1330 -0.0763  0.2920
74407W        W75271   6.003  19.553  28.396 -0.2394 -0.1011 -0.0576
74408W        W75272  24.529  20.561  21.437  0.3024 -0.2619 -0.2683
74409W        W75273  18.565   0.267   9.421 -0.0563 -0.0200 -0.0907
74410W        W75274  17.583  19.068   4.088 -0.0708  0.0673  0.0835
74411W        W75275   0.783  21.372  10.463  0.0226  0.1720  0.2907
74412W        W75276  17.595  17.320  25.817  0.1735 -0.1989  0.1502
74413W        W75277   6.238   9.413  10.828  0.0463 -0.0546 -0.0349
74414W        W75278   2.465  11.213  27.332 -0.0171 -0.1442 -0.2188
74415W        W75279  18.429  26.620  25.245 -0.1051  0.1219 -0.0037
74416W        W75280   0.782  25.223   5.799 -0.0734 -0.0046 -0.1122
74417W        W75281  11.827  24.467  14.808  0.2648 -0.1419  0.5013
74418W        W75282   0.035  18.268  22.046  0.0794 -0.3808  0.1029
74419W        W75283   7.385  25.368   5.639 -0.1377 -0.1461 -0.2636
74420W        W75284  21.859  15.849  25.072 -0.1377 -0.3857 -0.1264
74421W        W75285  22.222  23.046  19.578  0.2869 -0.1566 -0.1035
74422W        W75286  22.504  18.295  14.555  0.4322 -0.4375 -0.0266
74423W        W75287   1.417  17.373  23.050  0.1654 -0.2142 -0.3536
74424W        W75288  19.883  20.476   1.388 -0.0376 -0.0503 -0.0415
74425W        W75289  27.690  10.266   5.734  0.0268 -0.3405 -0.1258
74426W        W75290   1.163  15.719  14.429  0.1429 -0.1263 -0.0164
74427W        W75291   9.241  26.788   0.472  0.0276 -0.0631 -0.3748
74428W        W75292   7.730  26.704  20.301 -0.0534  0.4774  0.0113
74429W        W75293  25.302  26.577  14.384  0.4819 -0.1697 -0.0169
74430W        W75294  10.872   0.240  27.428 -0.2109  0.1313 -0.1017
74431W        W75295  26.120   6.347  23.275  0.1437 -0.1853 -0.0357
74432W        W75296   9.593  15.165  26.928 -0.3075  0.1274  0.2429
74433W        W75297   1.598  17.154  25.038  0.1765  0.0580  0.0794
74434W        W75298  29.054   0.225  22.319  0.1511  0.0127  0.0328
74435W        W75299  19.149   7.287   7.793  0.0542  0.1880 -0.0838
74436W        W75300   4.218   8.987   1.117 -0.3044 -0.0664  0.0026
74437W        W75301  20.830  16.443   3.028  0.0749 -0.1356  0.1912
74438W        W75302  10.244  22.794  13.978  0.0735  0.1601  0.0046
74439W        W75303  21.357  14.311  13.826 -0.0158 -0.2930 -0.1559
74440W        W75304  17.480  24.372  15.737 -0.3536  0.1532  0.0425
74441W        W75305   2.263   5.603   3.449 -0.1037 -0.2039 -0.2271
74442W        W75306  28.519  27.422   6.825 -0.1476  0.1587  0.1876
74443W        W75307  25.361  21.756  12.415  0.0698 -0.3330 -0.0940
74444W        W75308   0.302   0.697  18.593 -0.0927 -0.1445 -0.0690
74445W        W75309  20.434   7.284   4.473 -0.0704  0.1444  0.1395
74446W        W75310  28.226  23.600   0.296 -0.1918  0.1554 -0.2102
74447W        W75311  18.906  17.180  17.945  0.0378 -0.0274 -0.2674
74448W        W75312  26.640   2.886  20.029 -0.1170  0.0035 -0.0638
74449W        W75313  14.526  20.476  19.901 -0.0760  0.3653  0.0177
74450W        W75314   0.746  12.882  16.461  0.2413 -0.0935 -0.1229
74451W        W75315   5.180   1.401  18.888  0.0341  0.1601  0.0336
74452W        W75316   7.547   0.134  19.749  0.4090 -0.0708 -0.2841
74453W        W75317  18.762  26.403  28.920 -0.2138  0.0046 -0.0192
74454W        W75318  22.351  21.778   0.063  0.2919  0.4282  0.0022
74455W        W75319  10.388   0.026  19.147 -0.2128 -0.0251 -0.1628
74456W        W75320  14.604  23.601  22.378  0.2067 -0.0940  0.1386
74457W        W75321  16.735   2.206   3.531  0.0113  0.0409  0.0471
74458W        W75322  23.805  26.083  12.200  0.2585 -0.1368 -0.0349
74459W        W75323  25.678   3.656  19.234 -0.2138  0.1404 -0.1241
74460W        W75324  12.670  18.120  11.277 -0.0028 -0.0532 -0.3065
74461W        W75325  12.693   0.809   5.131  0.1282 -0.0977  0.0430
74462W        W75326  28.511  27.637   3.077 -0.3544 -0.2128  0.0851
74463W        W75327  12.630  21.349  27.912 -0.4195 -0.0707 -0.0797
74464W        W75328  27.322   6.560  17.754 -0.2647  0.1177 -0.1729
74465W        W75329  22.371   2.698  14.104 -0.2083 -0.0840 -0.0021
74466W        W75330  22.211   9.884  11.559 -0.0119 -0.3068  0.2076
74467W        W75331  26.330  14.810  23.391 -0.1977 -0.0539 -0.0531
74468W        W75332   2.516   2.460  18.743 -0.1210 -0.2739  0.0217
74469W        W75333   2.496   8.898   7.471 -0.1260  0.0658 -0.2799
74470W        W75334  25.413  17.101  20.329 -0.1772 -0.1027  0.0154
74471W        W75335  10.638  18.213  26.874 -0.2613 -0.0389 -0.0729
74472W        W75336  19.124   0.003  10.120 -0.0051  0.2044  0.2115
74473W        W75337  22.736  19.270   7.116  0.0159  0.2417 -0.3349
74474W        W75338  27.727  23.139  13.103  0.0944 -0.0632  0.0686
74475W        W75339   9.364  18.921  27.009 -0.0491  0.0465 -0.2248
74476W        W75340   5.510   1.391  14.799  0.0354 -0.4269  0.0925
74477W        W75341  17.539   3.804   7.731  0.2592  0.0620  0.2357
74478W        W75342   3.456  28.825  13.734 -0.2599 -0.2468 -0.0451
74479W        W75343  20.080   5.765   1.249 -0.0292 -0.0289  0.1691
74480W        W75344   3.828  18.408  13.855  0.2240 -0.0779  0.2426
74481W        W75345  15.554  16.125  25.076  0.0056  0.0575 -0.2048
74482W        W75346  28.507  17.845  28.819 -0.1817 -0.1073  0.4274
74483W        W75347  15.563  26.971   1.371 -0.0687 -0.1663 -0.0000
74484W        W75348  28.819   3.194  18.736 -0.0368  0.0483  0.1944
74485W        W75349   0.065  29.143   9.142  0.1592  0.0647  0.0568
74486W        W75350  15.269  26.485  24.798 -0.1453 -0.2714  0.2440
74487W        W75351  12.137   4.659  11.757  0.2673 -0.0222  0.3065
74488W        W75352  23.540  26.937   2.936 -0.0763  0.1967 -0.1335
74489W        W75353   2.100   9.752  12.206 -0.1145 -0.3080  0.2183
74490W        W75354  21.999   4.945  11.324  0.1737 -0.3287  0.0408
74491W        W75355  18.504  23.766  24.434  0.0124  0.1270 -0.1074
74492W        W75356   9.510  19.970  20.556  0.1792  0.1291  0.1082
74493W        W75357  17.092  28.170   2.416 -0.2360 -0.1221 -0.4529
74494W        W75358  24.049  25.929   8.544  0.2754  0.0546  0.0901
74495W        W75359   4.497  16.209  12.038 -0.1681  0.1260  0.0066
74496W        W75360   5.704  21.312   6.843 -0.0153 -0.0591  0.3602
74497W        W75361  13.992   6.843  15.079 -0.1243 -0.0177  0.3954
74498W        W75362  27.383  27.732  19.964 -0.0249  0.2417  0.0515
74499W        W75363  13.842   7.210   9.716 -0.3250 -0.1077 -0.1711
74500W        W75364  14.694   0.394  12.969 -0.2715  0.2686 -0.1361
74501W        W75365   7.217  26.773  25.694  0.1142  0.3964 -0.0214
74502W        W75366  10.940   7.856   0.794 -0.0873 -0.0100 -0.1454
74503W        W75367  23.975   8.569  13.583 -0.4071 -0.0199  0.0466
74504W        W75368  22.430  21.926  24.620 -0.1484 -0.4037 -0.0731
74505W        W75369   9.355  28.371   5.736 -0.1421 -0.2825 -0.0881
74506W        W75370  12.869  20.247   7.219 -0.0199  0.0830  0.1400
74507W        W75371  13.972  26.876  19.773 -0.1597 -0.0556  0.2084
74508W        W75372  26.509  18.995  10.531 -0.0694 -0.0586 -0.2121
74509W        W75373  10.630  18.522  17.550  0.0156  0.0125 -0.1776
74510W        W75374   6.774   7.634  10.017 -0.0035 -0.1306 -0.2234
74511W        W75375  27.984  25.306  13.987  0.0117  0.0038 -0.3017
74512W        W75376   3.767  22.643  24.075  0.0255  0.0742 -0.0788
74513W        W75377  27.296  19.292  11.381  0.1769  0.1465  0.0271
74514W        W75378  28.215  27.452   9.563 -0.0802 -0.3230  0.4298
74515W        W75379   8.476  21.702  11.628 -0.0087  0.1413 -0.2902
74516W        W75380  29.004  10.102  17.714  0.2384 -0.3868 -0.0931
74517W        W75381  26.945  26.564  17.908 -0.1658 -0.0835  0.0295
74518W        W75382   2.990   5.762  24.638  0.0306 -0.3146 -0.0447
74519W        W75383  15.947  22.674  21.333 -0.0075  0.2519  0.3226
74520W        W75384  20.084  11.927  13.004 -0.3904 -0.2402 -0.0700
74521W        W75385  23.566  21.813  11.323  0.1746 -0.0778 -0.3653
74522W        W75386  21.767   7.857  17.225  0.0704  0.0242  0.0933
74523W        W75387  27.951  17.959  19.546 -0.0997 -0.3307 -0.0467
74524W        W75388   2.361  20.442  23.693  0.1215 -0.1061  0.1678
74525W        W75389  17.873  26.005  17.169  0.1937  0.0389 -0.0771
74526W        W75390  16.214  17.177  16.471  0.0925  0.0767 -0.1086
74527W        W75391  22.297  10.706  23.343 -0.0416  0.3352  0.0188
74528W        W75392   2.866  18.019  22.604 -0.2071  0.0397 -0.1826
74529W        W75393  18.575  22.613  28.593 -0.2500  0.0106 -0.1508
74530W        W75394  13.623  27.101  28.384 -0.2276  0.0970 -0.2654
74531W        W75395   2.669   3.995   9.263 -0.0139  0.1988  0.0698
74532W        W75396  28.838  17.173   9.045 -0.2195  0.0765 -0.1309
74533W        W75397   8.110  16.860  23.279 -0.1251  0.1800  0.1963
74534W        W75398   1.210  24.204   5.575 -0.0283 -0.0116 -0.1259
74535W        W75399  19.545  19.178   7.544 -0.2093 -0.2225  0.0612
74536W        W75400  10.794  14.184  16.526 -0.0832  0.2334 -0.1370
74537W        W75401   2.405  19.924   7.709 -0.1246  0.1138  0.0057
74538W        W75402   6.209  28.823   9.089  0.0050  0.0121 -0.0043
74539W        W75403  21.592   9.258  16.566  0.1528 -0.3603  0.0445
74540W        W75404   1.078  14.195   4.149  0.1950 -0.1804  0.0405
74541W        W75405   8.215  17.034   6.268  0.1274  0.3114 -0.1577
74542W        W75406   3.946   5.075  12.092  0.1381  0.0355 -0.2706
74543W        W75407  20.910  18.221  26.302  0.2186  0.2486 -0.3962
74544W        W75408  11.218  26.722   8.309 -0.0754  0.2308  0.1275
74545W        W75409   1.020   0.128  25.334 -0.1735 -0.0699 -0.0793
74546W        W75410  28.386  14.541  26.495  0.0433 -0.0308  0.0115
74547W        W75411  21.633  15.403   8.801 -0.1321 -0.1820  0.0527
74548W        W75412  25.482  22.576  20.997 -0.0764  0.0651  0.2061
74549W        W75413  15.319  24.440   7.839 -0.1051  0.1869 -0.2863
74550W        W75414  10.370  16.198  15.027  0.1120 -0.1321 -0.3206
74551W        W75415  10.775  16.844   6.723  0.0243  0.1773  0.1172
74552W        W75416  18.134  24.301  11.616  0.3035 -0.0103  0.0622
74553W        W75417   8.457  27.409  20.506 -0.4891  0.0221 -0.0035
74554W        W75418  14.514  27.899   2.169  0.2811  0.1629  0.0809
74555W        W75419   6.408  22.836  13.968 -0.0305 -0.3643 -0.0099
74556W        W75420  15.589   5.392  25.592 -0.1028  0.1801  0.0225
74557W        W75421  28.072   6.989  18.991  0.1934 -0.1316 -0.1290
74558W        W75422  18.419  24.997  22.974  0.1792  0.1573 -0.0992
74559W        W75423  23.764   9.387  23.190  0.0795  0.1180  0.1476
74560W        W75424   5.793  20.470  18.620  0.1661  0.0111  0.2374
74561W        W75425   4.352  11.820  27.591  0.1432  0.0746 -0.1751
74562W        W75426   1.368  18.879   9.921  0.0955  0.0662 -0.1306
74563W        W75427  24.991   1.813  13.972  0.0146  0.0155 -0.1404
74564W        W75428  27.132   8.827  12.760 -0.2981  0.1000  0.1530
74565W        W75429  26.291  17.063   0.955  0.0185  0.2347  0.0572
74566W        W75430  18.340   6.457  10.728  0.0716 -0.3084 -0.2250
74567W        W75431   3.329  24.128  13.948 -0.2390  0.1069 -0.3722
74568W        W75432  28.674  21.854  15.550  0.3755 -0.3631 -0.0789
74569W        W75433  25.622   5.148   5.966 -0.0463 -0.0356  0.0156
74570W        W75434   8.735   6.232  12.239 -0.0502  0.1886  0.0401
74571W        W75435   6.889   6.160  20.605  0.0088  0.3408 -0.0460
74572W        W75436  14.804  21.841  18.900 -0.2212 -0.1605  0.2983
74573W        W75437  13.349  14.856  18.644 -0.1540 -0.1047 -0.0381
74574W        W75438  26.538   5.958   3.466 -0.0556 -0.1858  0.1706
74575W        W75439  22.501   8.119  17.835 -0.0549  0.0590 -0.1288
74576W        W75440  23.017  17.553  10.556  0.1407  0.2053  0.0740
74577W        W75441  18.513  25.624   8.541 -0.0988 -0.1476  0.0030
74578W        W75442  11.155   6.275  25.896  0.0636 -0.0476 -0.7315
74579W        W75443  21.857  28.071   1.097  0.0531 -0.1645  0.2738
74580W        W75444  25.416  11.784  17.617  0.1857  0.1011  0.4273
74581W        W75445  13.219   1.702  19.032  0.1320 -0.2189  0.0403
74582W        W75446  21.379  17.766  28.468 -0.0562 -0.0477  0.1621
74583W        W75447   8.659   2.997  18.073 -0.1746 -0.1062 -0.0629
74584W        W75448  25.619   3.761  14.908 -0.1275  0.1846  0.0332
74585W        W75449  23.587   0.413  15.660  0.2049  0.2189 -0.0162
74586W        W75450  27.108  25.123  18.049  0.3642  0.1749  0.4925
74587W        W75451  22.575  22.738  14.778  0.1569 -0.0946 -0.3319
74588W        W75452  24.058  20.145   4.296  0.0210  0.1014 -0.0502
74589W        W75453   2.614  19.211  22.051 -0.1412 -0.1408  0.3037
74590W        W75454   0.524   4.174  18.062 -0.0724 -0.1633  0.0037
74591W        W75455  26.151  10.167   8.141  0.0029  0.0861  0.1819
74592W        W75456   3.938   5.628  28.668  0.0593  0.0832 -0.0800
74593W        W75457  17.135   0.251  14.581 -0.2212  0.1614  0.2414
74594W        W75458   8.342  22.225  13.446  0.0446  0.1072 -0.1542
74595W        W75459  23.152   0.903   9.100 -0.1658 -0.1550  0.1791
74596W        W75460  19.143  19.527   7.281 -0.3948 -0.0556 -0.0074
74597W        W75461  24.661  26.266   0.340 -0.2337  0.2713  0.2486
74598W        W75462   7.822  19.203  15.230 -0.1497  0.0348 -0.1097
74599W        W75463  22.721   8.439  10.100 -0.0681 -0.1396 -0.0501
74600W        W75464  20.209   9.549  26.395  0.0561  0.1775  0.3204
74601W        W75465   1.322  25.138  10.900  0.3025  0.1689 -0.1463
74602W        W75466  12.849  24.634  13.139 -0.0575  0.1413 -0.0719
74603W        W75467  10.264  19.802  25.909 -0.1478 -0.0453 -0.1185
74604W        W75468  28.157  24.008  29.144 -0.1529 -0.1700 -0.0364
74605W        W75469   1.996  12.206  10.852 -0.1648  0.1124  0.1426
74606W        W75470  24.266  15.415   8.987  0.0252 -0.1825  0.0559
74607W        W75471  26.047  21.050  15.501  0.2834  0.2298 -0.0519
74608W        W75472   5.982  17.949   8.461  0.3011 -0.0514  0.0784
74609W        W75473  16.715  23.567  27.878  0.1815  0.1926  0.1393
74610W        W75474  15.891  27.261  18.843 -0.0400 -0.0659 -0.0249
74611W        W75475  28.807  24.599   9.187  0.0754  0.1180  0.4387
74612W        W75476  23.814   2.768  15.500  0.0281 -0.2279 -0.0078
74613W        W75477  19.232   6.463   8.642 -0.2755 -0.1453 -0.0820
74614W        W75478  16.311   0.955   8.619  0.2807  0.1107  0.0048
74615W        W75479  14.359   4.284  10.194  0.1030 -0.1291 -0.1766
74616W        W75480  20.077   2.803   8.467 -0.1173 -0.2218 -0.1075
74617W        W75481  15.094  27.620  12.326  0.3331  0.1169  0.1393
74618W        W75482  19.584   8.506  20.297  0.0816 -0.0128 -0.0636
74619W        W75483  25.627  14.517  21.797 -0.0287  0.0980 -0.1040
74620W        W75484   0.047   7.437   8.310  0.1445  0.3487 -0.2029
74621W        W75485  24.887  21.906  20.064  0.0047  0.1833 -0.0982
74622W        W75486   3.992   3.305  17.200 -0.0999 -0.2192 -0.0198
74623W        W75487  12.889  18.246  14.815 -0.0603 -0.2369 -0.0989
74624W        W75488  20.591  15.656   4.010  0.2560 -0.2352  0.0538
74625W        W75489  12.401  18.160  13.398 -0.1665 -0.1230 -0.1874
74626W        W75490   0.562  28.590  15.649 -0.0800  0.0310  0.1829
74627W        W75491  23.395  10.520  19.326  0.1390 -0.1272  0.4354
74628W        W75492  20.002   3.291  28.613 -0.3460 -0.4440 -0.1568
74629W        W75493  21.174  20.300  23.045  0.1955  0.3098 -0.0117
74630W        W75494  22.123  14.588  14.590 -0.0157  0.1567 -0.0990
74631W        W75495  12.042   6.628  21.553  0.1588  0.1379 -0.1247
74632W        W75496  22.637  13.944  22.915  0.1614 -0.2414  0.1202
74633W        W75497  12.923  15.631  25.293 -0.1384 -0.2019 -0.0017
74634W        W75498  20.479   0.834  28.500  0.1685  0.1951 -0.4210
74635W        W75499  15.295   4.667  19.201 -0.1129  0.2475  0.3999
74636W        W75500  18.689  28.115  22.946 -0.1976 -0.1516  0.2069
74637W        W75501  17.552  12.028  18.870  0.2515 -0.5065 -0.3418
74638W        W75502  28.878   2.154  18.285 -0.2324 -0.2227 -0.1818
74639W        W75503  25.324  24.777   1.217 -0.1044  0.1923  0.0676
74640W        W75504  20.582  11.800   7.137 -0.5066 -0.0157 -0.1771
74641W        W75505   4.126   5.306  27.758  0.1223  0.2404 -0.0015
74642W        W75506   4.799  11.995  15.651  0.1574  0.2613  0.1333
74643W        W75507  27.112  28.748   3.710 -0.0430  0.2015 -0.3703
74644W        W75508  16.212  19.653   3.841  0.1745  0.0584  0.0938
74645W        W75509  28.566  10.254  16.472 -0.0454 -0.0424 -0.0234
74646W        W75510  11.185  27.666  18.487 -0.0731 -0.2941  0.3175
74647W        W75511  19.749   0.271  11.606  0.2779 -0.0966  0.1261
74648W        W75512  26.277  25.974   5.623 -0.3421  0.3653 -0.0231
74649W        W75513  24.393  20.305   4.780 -0.0741 -0.1556 -0.2739
74650W        W75514   3.144  20.688  26.473 -0.2211  0.2381 -0.1035
74651W        W75515  10.276  27.608   0.974  0.2268 -0.0470  0.0331
74652W        W75516  19.814   5.132  12.394  0.2594  0.4017 -0.2466
74653W        W75517  14.286   1.786  11.108  0.3003 -0.1252  0.0049
74654W        W75518   0.662   2.621  11.858 -0.0765  0.0239  0.0824
74655W        W75519  15.844  11.489  18.115  0.2355 -0.2898 -0.1026
74656W        W75520   9.081  21.788  11.039 -0.0943  0.1493  0.0567
74657W        W75521  19.599  26.334  17.799 -0.0528 -0.2157 -0.0431
74658W        W75522  21.751  27.903  12.115 -0.1477 -0.0264  0.0837
74659W        W75523  28.863  23.918   2.684  0.1301 -0.1120  0.1305
74660W        W75524   1.080  16.825  14.369  0.1113  0.1220  0.4364
74661W        W75525  22.783   1.266  10.962 -0.2344  0.2435 -0.2257
74662W        W75526  25.921  14.241  25.652 -0.1324 -0.0085  0.1401
74663W        W75527   1.723   5.026  23.317 -0.0740 -0.3433  0.1768
74664W        W75528  29.136  22.320   2.727  0.2887 -0.1386  0.0830
74665W        W75529   9.065  15.659  15.266  0.0816  0.2230 -0.1432
74666W        W75530  13.794  18.754  27.002  0.3867 -0.4490  0.0315
74667W        W75531   0.653   8.286  17.979 -0.1553 -0.0731 -0.1893
74668W        W75532  17.034   9.074  15.189 -0.0266  0.0940  0.0929
74669W        W75533  16.482  19.032  22.202  0.1497 -0.0503  0.2689
74670W        W75534  24.860  17.087  15.726  0.3395  0.3443 -0.2462
74671W        W75535  14.022  19.439  21.228 -0.2030  0.0804 -0.0073
74672W        W75536   2.139  18.202  18.463 -0.3585  0.1858  0.0955
74673W        W75537  20.334  25.717  15.950  0.0135  0.0435  0.0386
74674W        W75538   5.182  21.476  14.452 -0.1616  0.0767 -0.0176
74675W        W75539   5.749   7.745   0.093  0.0538  0.0038 -0.0815
74676W        W75540  27.465  23.323  26.553  0.0166  0.1927 -0.2737
74677W        W75541  25.428   4.563  12.886  0.1636 -0.2345  0.1065
74678W        W75542  18.923  12.192   9.544  0.4008  0.1838  0.3366
74679W        W75543   6.866  17.722  13.864 -0.2461 -0.2288  0.1415
74680W        W75544  28.569  13.577   3.001  0.1398 -0.1983 -0.4397
74681W        W75545   0.797   7.615  23.050  0.1690  0.1201 -0.0582
74682W        W75546   4.705  20.633  21.349  0.2803 -0.0652  0.0610
74683W        W75547  26.501  26.764  13.459 -0.0727  0.0402  0.1459
74684W        W75548  15.934  18.443  15.074  0.2347  0.2095 -0.0321
74685W        W75549  11.174  11.662   4.649  0.3511 -0.2264  0.0213
74686W        W75550  28.686   6.117  17.780 -0.1294  0.0050 -0.1353
74687W        W75551  24.429  18.762  12.838 -0.0463  0.0620 -0.0586
74688W        W75552  25.468  11.189  24.615  0.2952 -0.3336  0.3343
74689W        W75553  25.809  29.111  19.747 -0.2068  0.0512  0.0540
74690W        W75554   7.868  28.137   8.749  0.0040  0.1263  0.2858
74691W        W75555  14.116   4.738  14.214 -0.1941  0.1041 -0.2770
74692W        W75556   6.371  15.700  21.410 -0.3209 -0.0497  0.0071
74693W        W75557  19.869  20.909   3.652 -0.1185  0.0603  0.0335
74694W        W75558  25.297   1.907   1.221  0.0625  0.4139 -0.1089
74695W        W75559  10.219  15.625  13.437 -0.0207  0.3592 -0.0450
74696W        W75560   3.917  25.241  17.809 -0.1035  0.1234  0.0298
74697W        W75561  13.473  27.772  15.431 -0.0929  0.0971 -0.1767
74698W        W75562  22.279  19.406  22.802  0.2000 -0.2571 -0.1103
74699W        W75563   5.899   8.318  17.571  0.2380  0.0315  0.2509
74700W        W75564  19.555  10.035   5.253  0.3492  0.0963 -0.1159
74701W        W75565   8.661  11.710   1.885 -0.0228  0.0586 -0.4958
74702W        W75566  23.868  25.091   4.351 -0.0282 -0.2934 -0.1482
74703W        W75567  18.651  25.057  17.535 -0.1164 -0.0875  0.1747
74704W        W75568  28.381  25.058  18.506 -0.1870 -0.2699 -0.0752
74705W        W75569   4.944  22.309  21.064  0.0725 -0.0322  0.0520
74706W        W75570  26.264   5.660  11.745 -0.0225  0.0649 -0.1029
74707W        W75571   9.510  23.604  11.568 -0.0326 -0.0425  0.1214
74708W        W75572   9.960  19.255  27.555  0.0444  0.0602 -0.2126
74709W        W75573   5.875  21.804  14.328  0.1476  0.1573  0.2140
74710W        W75574  24.464  14.172  23.180 -0.1365 -0.1725  0.1800
74711W        W75575  12.812  22.951  15.149  0.2411  0.1523 -0.1111
74712W        W75576  23.121  15.231  16.028  0.1410 -0.0990  0.1305
74713W        W75577  22.829  19.445   2.390  0.0891 -0.2042  0.1933
74714W        W75578  23.904  22.423   2.802 -0.4554 -0.0666 -0.2006
74715W        W75579  17.737   0.830  16.756  0.2704  0.2802  0.1066
74716W        W75580  12.590  26.107  14.127 -0.1535 -0.0926 -0.0603
74717W        W75581  28.807   9.368  13.434 -0.2701 -0.0575  0.3350
74718W        W75582  16.352  24.047  24.217 -0.1342  0.1022 -0.1893
74719W        W75583   0.380  27.526  23.943  0.3585  0.5230  0.0479
74720W        W75584  20.091  26.055   0.300 -0.1489 -0.0391 -0.0941
74721W        W75585   2.097  12.365  26.367  0.2929 -0.1299 -0.0322
74722W        W75586  25.436  22.664  21.512  0.1294  0.1627 -0.2110
74723W        W75587   8.274  23.159  18.945  0.2467  0.0816 -0.0169
74724W        W75588   3.726   9.411  20.579  0.1875 -0.1663  0.0518
74725W        W75589  20.855   3.477   1.811 -0.0106  0.0626 -0.0893
74726W        W75590  20.957  21.950  14.865 -0.0760 -0.3538  0.1673
74727W        W75591  22.202  15.567  18.433 -0.0851  0.1405 -0.1428
74728W        W75592  18.125  13.429  25.809 -0.0421  0.1130  0.1041
74729W        W75593  26.911  18.393   5.863  0.2783  0.0123  0.0483
74730W        W75594  21.165  20.441  10.761 -0.2258 -0.0347 -0.1222
74731W        W75595   0.655  21.539   7.318 -0.0549  0.3060 -0.0968
74732W        W75596  18.648   4.551  23.910  0.2960  0.2011  0.1317
74733W        W75597  13.617  14.878   4.638 -0.2230  0.1661  0.0292
74734W        W75598  21.218  18.825  18.975 -0.2808 -0.2248  0.1229
74735W        W75599  16.540  24.506   9.775 -0.2292 -0.2962  0.0904
74736W        W75600  14.509  19.515  15.109 -0.0024 -0.0751  0.0240
74737W        W75601  26.629  10.152   8.251 -0.1475 -0.0131  0.4597
74738W        W75602   1.090  23.022  13.515 -0.1618 -0.1891 -0.2758
74739W        W75603   7.079  22.407  24.675 -0.1403  0.0277 -0.1177
74740W        W75604  26.210  17.933   3.592  0.2181  0.0093 -0.1035
74741W        W75605  11.475  12.044  25.813  0.1806 -0.1354  0.4106
74742W        W75606  27.051   7.817  25.608 -0.2913 -0.1111 -0.1578
74743W        W75607   3.135  22.859  13.133 -0.2523  0.1294 -0.0150
74744W        W75608  12.903   1.293   8.684  0.0051  0.2262  0.0562
74745W        W75609   1.814  20.547  28.345 -0.0220  0.2532 -0.2681
74746W        W75610  25.643  22.583  18.597  0.1189 -0.0633 -0.3210
74747W        W75611   5.566  24.898  25.323  0.0979 -0.0057 -0.1566
74748W        W75612   6.794   3.690  14.333  0.0765 -0.2067  0.0973
74749W        W75613   6.045   5.891   0.899  0.0183 -0.2907  0.0732
74750W        W75614   5.477  26.338   3.590  0.0479 -0.1363 -0.1327
74751W        W75615  13.513  27.565   7.799 -0.1408  0.3174  0.0956
74752W        W75616   9.521   5.340  10.133 -0.1642  0.2716 -0.3314
74753W        W75617  17.015   3.385  12.085 -0.0314 -0.0589 -0.0974
74754W        W75618   7.930   7.539  25.902 -0.0171 -0.1974  0.1144
74755W        W75619  19.936  24.903  12.258 -0.3361  0.0227 -0.0501
74756W        W75620  25.630  26.574  15.229  0.0142  0.0071  0.2631
74757W        W75621  22.972  25.886   6.542 -0.0921  0.2908  0.2836
74758W        W75622  24.911   2.244   4.282  0.1911  0.3246 -0.1007
74759W        W75623   6.917   6.490  19.182  0.1478  0.1298  0.2631
74760W        W75624  10.796   1.376   7.377  0.1144  0.1393  0.0812
74761W        W75625  12.768  24.691  14.596 -0.2654  0.0447 -0.0084
74762W        W75626  24.956  27.832  10.762 -0.1990 -0.1962  0.1741
74763W        W75627   0.253  16.507  25.963  0.1869  0.0923 -0.1025
74764W        W75628  28.981  22.679  21.904 -0.0628  0.0778 -0.0253
74765W        W75629  17.354   1.239  17.647  0.0810  0.2212  0.1763
74766W        W75630  20.367  21.066   0.333  0.0752  0.0065 -0.1185
74767W        W75631   3.092  22.269  13.453 -0.1006 -0.0622  0.1389
74768W        W75632  24.896  15.962  14.584  0.3479  0.2707  0.0861
74769W        W75633  10.406  10.302  16.408  0.1665 -0.1797 -0.1376
74770W        W75634  24.623  18.524  16.021 -0.2831 -0.0655 -0.0553
74771W        W75635  12.821  17.823   0.634 -0.2722 -0.0075  0.1435
74772W        W75636   4.859  17.336  13.126 -0.1783  0.2508 -0.2437
74773W        W75637   7.395  16.323   1.936 -0.1833 -0.3304  0.3502
74774W        W75638  23.626  28.913   6.831 -0.0681 -0.0024 -0.3494
74775W        W75639   2.507  20.065   6.603 -0.2010 -0.0656 -0.0810
74776W        W75640  15.542  22.889   5.308  0.1715 -0.2303 -0.2944
74777W        W75641   0.755  11.425  13.030 -0.1748  0.1289  0.1140
74778W        W75642  22.759  10.889  21.330 -0.1858 -0.3662 -0.1319
74779W        W75643   2.200  21.480   5.089 -0.0766  0.1226 -0.0235
74780W        W75644  16.997  18.791   9.791  0.0241  0.0267 -0.1985
74781W        W75645  18.797  22.362  20.353 -0.1654  0.2171  0.0559
74782W        W75646  26.431  21.857  12.810 -0.2390  0.0328 -0.0562
74783W        W75647  17.084  25.449  22.720  0.0265  0.0013 -0.3498
74784W        W75648  22.443   0.435  24.270  0.3181 -0.0117 -0.0973
74785W        W75649  23.306   0.495  22.056 -0.0773  0.1788 -0.2474
74786W        W75650  18.865  26.792  18.216  0.2541 -0.0967 -0.1958
74787W        W75651   8.838  14.744  24.694 -0.0675  0.0031  0.3195
74788W        W75652  29.041  26.894  20.492 -0.3137 -0.0221 -0.2304
74789W        W75653  12.511  14.771  16.731 -0.4172  0.2789 -0.0220
74790W        W75654   8.986   9.250  14.225 -0.2380  0.1569 -0.1779
74791W        W75655  28.713  20.105   8.091  0.1130 -0.2448 -0.0024
74792W        W75656   9.745  14.958  12.658  0.0461 -0.0064 -0.0301
74793W        W75657  22.957  10.445  27.613 -0.1052 -0.0212 -0.1106
74794W        W75658   2.391   8.552  25.962  0.1423  0.1319 -0.0008
74795W        W75659  23.210  23.071  23.335 -0.0468  0.1632  0.2350
74796W        W75660  20.633  10.631  25.721  0.1028 -0.2419 -0.0029
74797W        W75661   4.843  12.652  13.952  0.3902 -0.0827 -0.1973
74798W        W75662  25.159  22.576   6.301 -0.1921  0.0570  0.0431
74799W        W75663  17.137   8.103   5.946  0.1275  0.2439 -0.1212
74800W        W75664  26.507  25.616   2.644  0.1959  0.0193  0.1414
74801W        W75665   0.099   3.941  19.245 -0.1844 -0.0973  0.0624
74802W        W75666   4.671   2.633  26.481  0.1947  0.1571  0.0871
74803W        W75667  19.932   3.923   0.742 -0.0032 -0.0778 -0.0218
74804W        W75668  20.589  19.370  16.801 -0.0707  0.0797  0.1017
74805W        W75669  13.546   3.436  21.263 -0.1749 -0.1045 -0.0809
74806W        W75670  23.536   5.356   1.267  0.0247 -0.0936 -0.1188
74807W        W75671   3.483   3.379  10.018  0.5155  0.0181 -0.0019
74808W        W75672   9.891  26.878  28.586  0.0689 -0.1303 -0.0206
74809W        W75673  24.449  11.929   9.067  0.0609 -0.1441  0.2394
74810W        W75674  23.000  28.370  14.129  0.0221 -0.2602 -0.1578
74811W        W75675   4.395  23.954  14.833  0.1236 -0.0806  0.1348
74812W        W75676   0.407  16.601   1.352  0.1391 -0.1433  0.0005
74813W        W75677  24.458  21.251   7.275 -0.0801 -0.1845  0.2137
74814W        W75678  26.238  24.935  24.037 -0.1372 -0.1313  0.1482
74815W        W75679   9.279  11.484   3.554 -0.2516  0.1316  0.0279
74816W        W75680   2.600  24.404   4.550 -0.0152  0.0179  0.0869
74817W        W75681  25.456  19.159  21.045 -0.0801 -0.2008  0.4588
74818W        W75682  24.710  14.001  16.957  0.0302  0.0991 -0.0229
74819W        W75683  22.132  26.195  11.277  0.1759  0.1960  0.3835
74820W        W75684  16.054  14.007  15.950  0.2385  0.4785  0.2363
74821W        W75685  18.745  13.305  26.973 -0.0956 -0.1073  0.1433
74822W        W75686  18.951  21.403  23.799 -0.0720  0.0591  0.0104
74823W        W75687   8.866  18.707   8.672 -0.1406 -0.0584  0.1182
74824W        W75688  18.513  10.157   6.010 -0.1488  0.0954  0.1233
74825W        W75689  13.421  14.442   7.365 -0.1428  0.4028 -0.1359
74826W        W75690  10.387  16.856  16.212 -0.0421 -0.2425 -0.0455
74827W        W75691  20.860  20.412  28.485 -0.0324 -0.0707 -0.2498
74828W        W75692  22.114   5.524  12.070  0.2728  0.1298 -0.1330
74829W        W75693   7.821  18.478  11.594 -0.0744 -0.1235  0.2342
74830W        W75694   1.044   2.432  19.131 -0.2824 -0.0903 -0.0003
74831W        W75695   3.595  23.696  11.271 -0.0481 -0.1326  0.0996
74832W        W75696   8.016   0.196   4.200 -0.1036  0.2284 -0.0354
74833W        W75697  15.532  18.590   0.057  0.2611 -0.0113 -0.0481
74834W        W75698   1.705  22.571  14.749 -0.1935  0.2219 -0.1850
74835W        W75699   0.737  19.775   0.536 -0.0281 -0.1390 -0.2463
74836W        W75700  14.541   6.022   5.960 -0.0073  0.1904  0.0584
74837W        W75701  25.627  16.891  25.734  0.1099  0.0254  0.1622
74838W        W75702  22.862  26.004  28.127  0.2184  0.0567 -0.4729
74839W        W75703  20.996  24.324  19.667 -0.1458 -0.0493  0.0906
74840W        W75704  21.834  23.142   0.264 -0.1433 -0.2426  0.0621
74841W        W75705  15.963   2.361   6.893 -0.0788  0.0790 -0.0204
74842W        W75706  12.673  24.141   0.263 -0.0187 -0.0632 -0.0575
74843W        W75707  27.499   4.000   1.082  0.1101 -0.1398  0.1286
74844W        W75708   5.280   2.617  20.141 -0.0841 -0.1189 -0.1708
74845W        W75709  15.556  18.762  20.391  0.0568  0.0278 -0.3590
74846W        W75710  28.633   3.943   7.638 -0.1496  0.0485 -0.2706
74847W        W75711   3.091  28.011   7.102 -0.4240  0.1213  0.0543
74848W        W75712  21.848   2.484  26.020 -0.0707 -0.0117 -0.2791
74849W        W75713  23.365  15.550  23.936 -0.0942 -0.0949  0.0269
74850W        W75714   3.643   7.126   0.106  0.0375 -0.1911  0.0738
74851W        W75715  18.446  20.803  14.461  0.0088 -0.2023  0.1228
74852W        W75716  18.914  25.459  20.407  0.2860 -0.2287  0.2214
74853W        W75717  16.406  25.418  14.522 -0.2418  0.0311  0.2534
74854W        W75718  16.663  13.956   2.021  0.1208 -0.1868  0.1435
74855W        W75719  17.386   1.546  25.658  0.2063  0.2534  0.3040
74856W        W75720  26.320  13.818  18.647  0.0729 -0.2868 -0.2046
74857W        W75721  20.350  13.764  19.034 -0.1548  0.0472 -0.1160
74858W        W75722   4.920  24.960   4.586  0.1780 -0.0213  0.1314
74859W        W75723  23.920  12.920  27.179 -0.0462 -0.0480  0.0996
74860W        W75724  12.866  13.834  13.845  0.0882  0.1777  0.2294
74861W        W75725  26.979  21.153   0.715  0.2335 -0.0822  0.2595
74862W        W75726   7.524  27.051  18.496  0.0078 -0.1094 -0.0136
74863W        W75727  22.545  19.805  15.391  0.3551 -0.1614 -0.0710
74864W        W75728   7.257  21.107   3.597 -0.0408  0.2456  0.0569
74865W        W75729   5.252   6.416  28.642 -0.0661  0.2023 -0.2748
74866W        W75730  24.889  17.162   0.561 -0.1250  0.2116 -0.0446
74867W        W75731  17.397  27.988   7.953 -0.0215 -0.2876  0.0004
74868W        W75732   4.685  23.458   2.633  0.2684  0.0428 -0.0565
74869W        W75733   3.614  24.662  22.814 -0.0152 -0.1558  0.1078
74870W        W75734  19.248  26.701  26.537  0.1250  0.0707  0.0595
74871W        W75735  18.033  28.793   3.729  0.0102  0.2147  0.4365
74872W        W75736   1.865  10.035  24.770 -0.1459  0.1927  0.0686
74873W        W75737   0.260  13.589  23.208 -0.1717 -0.1857  0.1318
74874W        W75738  24.840  26.981   1.658 -0.0424 -0.2305  0.1625
74875W        W75739  23.257  22.115  26.503 -0.0652 -0.3783  0.1957
74876W        W75740  17.445  18.189  24.149 -0.0917  0.1523 -0.0367
74877W        W75741   0.223  26.819  18.251 -0.2085  0.0194  0.1737
74878W        W75742  28.368  15.347  10.407  0.0155  0.1752 -0.0773
74879W        W75743  22.620   9.614  11.714  0.0202  0.0506  0.0237
74880W        W75744  22.228   0.700  19.008  0.0697  0.0615 -0.1068
74881W        W75745   7.963  17.164  24.270  0.1331 -0.0135  0.1481
74882W        W75746   1.194  18.478  15.870  0.3565 -0.0772 -0.0573
74883W        W75747  19.972  15.028  22.148 -0.0900  0.0977  0.1361
74884W        W75748  15.892  10.287   1.761 -0.1485 -0.2078  0.1150
74885W        W75749   4.759  19.499   2.745  0.1055  0.0271 -0.0293
74886W        W75750  25.377  24.189  22.029  0.0081  0.2126 -0.2004
74887W        W75751  27.593  19.342  20.684 -0.0386  0.2040  0.0685
74888W        W75752  23.543  17.541  28.440  0.2464 -0.4411 -0.1896
74889W        W75753   2.981   1.107  27.118 -0.2692  0.0797 -0.1169
74890W        W75754   6.811   7.486   5.411  0.1487  0.1204 -0.2032
74891W        W75755  22.225  28.968  29.024 -0.2047 -0.4462  0.1453
74892W        W75756  12.198  17.813  12.725  0.0421 -0.3301  0.1684
74893W        W75757  25.875  20.154  20.276 -0.0116  0.3067  0.0268
74894W        W75758   4.272  20.443  13.262 -0.1211  0.2317  0.2878
74895W        W75759  20.921  25.503  18.575 -0.1079 -0.3552  0.2674
74896W        W75760   4.659  15.626   3.685  0.1886 -0.2274 -0.2484
74897W        W75761  18.821  16.752  27.073 -0.0131  0.0749  0.1380
74898W        W75762  25.067   2.973  25.684  0.3382 -0.0028 -0.0303
74899W        W75763  10.465  17.471   1.602  0.0513  0.1799  0.2472
74900W        W75764   4.741  17.465  14.270 -0.2405  0.0460  0.2607
74901W        W75765  16.687  12.433  26.895  0.0865 -0.1566  0.0957
74902W        W75766   4.510  16.375  23.322 -0.1685 -0.2881 -0.2090
74903W        W75767   1.814  27.947  11.979 -0.0103 -0.0890  0.1290
74904W        W75768  21.724   2.615  21.917 -0.0949 -0.1919 -0.0421
74905W        W75769  10.292  26.668   4.154 -0.1055 -0.1087  0.1537
74906W        W75770  29.118  22.855  11.877 -0.2902  0.0178 -0.0011
74907W        W75771  26.539   5.383   8.491  0.1034 -0.0412  0.1238
74908W        W75772  14.682  20.108  15.230  0.1531  0.0284 -0.1339
74909W        W75773  14.371  25.358  19.764  0.0098 -0.0654  0.4551
74910W        W75774  23.280  26.623  20.080 -0.1880  0.0968  0.0808
74911W        W75775  20.161  18.555   6.333 -0.1118 -0.0283  0.0357
74912W        W75776   0.358  25.718  19.311 -0.0339 -0.0028 -0.2267
74913W        W75777  16.965  24.388  12.985  0.3169 -0.0615  0.2562
74914W        W75778  10.672  22.623   4.634 -0.4202 -0.1418 -0.0383
74915W        W75779  10.959  18.340   0.626 -0.0845  0.1012 -0.0084
74916W        W75780  15.283  20.810   4.904  0.3410 -0.2170 -0.0812
74917W        W75781  18.062  23.719  22.212 -0.2846  0.2047 -0.0527
74918W        W75782   4.391  20.766  22.931 -0.1056  0.2763  0.1793
74919W        W75783  27.261   3.148  26.181 -0.1503 -0.1947 -0.3100
74920W        W75784  17.270  24.283   5.366 -0.0372  0.0482 -0.0867
74921W        W75785   7.356  15.182  23.586  0.2320 -0.2434  0.1810
74922W        W75786   6.691  12.382  11.116  0.0586 -0.0911  0.0770
74923W        W75787   2.626   7.215  20.171 -0.0179  0.0433  0.1849
74924W        W75788  24.755  22.266   7.958 -0.1088  0.1490  0.0627
74925W        W75789  26.892   3.644  27.202 -0.0940 -0.0895  0.0814
74926W        W75790  22.382  20.948  12.470 -0.0353  0.3891 -0.0504
74927W        W75791  25.769  16.672  17.156  0.1692 -0.0098 -0.0212
74928W        W75792  16.627  25.157  10.726 -0.0934 -0.0305  0.0088
74929W        W75793   2.593   0.578  23.872 -0.2066  0.0202  0.0142
74930W        W75794   0.043  16.216  16.005 -0.2224 -0.1282  0.1158
74931W        W75795  17.356  18.126  26.084 -0.0562  0.1618  0.1844
74932W        W75796   3.237  17.690   7.555 -0.3493 -0.1146 -0.0157
74933W        W75797   2.723   9.255  16.721 -0.0343  0.4110  0.0455
74934W        W75798  11.554  27.067  26.734 -0.2945 -0.0810 -0.0757
74935W        W75799  21.817  13.472  25.859  0.0133 -0.1483 -0.0588
74936W        W75800  25.115  28.691  13.991 -0.0874 -0.3733  0.1529
74937W        W75801  14.660  23.905   1.136 -0.1428  0.1328  0.1961
74938W        W75802  15.024   1.913   9.970  0.1395  0.1264  0.2612
74939W        W75803   2.755   9.228   7.699 -0.0193  0.0605 -0.1814
74940W        W75804   3.439   3.204  23.683 -0.1254  0.5147 -0.2367
74941W        W75805  15.875  11.141  19.461 -0.0009 -0.3923  0.1761
74942W        W75806   4.364   6.508   7.060 -0.0413  0.0485 -0.1982
74943W        W75807  15.362  15.847  11.024  0.2519  0.2892 -0.1447
74944W        W75808  29.043  22.748   0.177  0.1030  0.0967 -0.1933
74945W        W75809  13.093  10.258  20.092  0.1146 -0.2302  0.1589
74946W        W75810  18.978  11.161   8.672  0.1144 -0.0626  0.0090
74947W        W75811  20.109  26.713  20.096 -0.0356 -0.2185 -0.1938
74948W        W75812  20.474  26.611  10.945 -0.1634 -0.0347 -0.1674
74949W        W75813  12.925   5.385  19.300  0.2799 -0.1385 -0.0583
74950W        W75814   0.156  27.806  17.191  0.0593  0.0291 -0.0805
74951W        W75815  18.588  17.669  16.228  0.2400 -0.1404  0.2063
74952W        W75816  20.538  27.907   4.289 -0.0553 -0.0655  0.0773
74953W        W75817  22.751  13.840   6.915  0.1384 -0.1169 -0.0574
74954W        W75818  25.377   9.163  27.913 -0.1821 -0.1998  0.0671
74955W        W75819   7.533  18.981  15.623 -0.1934  0.1043  0.3021
74956W        W75820  16.632   6.852  27.717  0.1064  0.0342  0.1087
74957W        W75821  19.161   8.263  21.618 -0.0098 -0.1592  0.1126
74958W        W75822  25.997   3.561  25.818 -0.0787 -0.0350 -0.1890
74959W        W75823   8.859  27.880  28.679  0.0473 -0.3468  0.0303
74960W        W75824   2.937  24.300  19.293  0.0834 -0.0742 -0.1015
74961W        W75825  13.597  17.914  18.277  0.2096 -0.0248  0.0650
74962W        W75826  24.191  28.753   1.770 -0.0136 -0.0874  0.1485
74963W        W75827  17.880  20.726   2.575  0.4086 -0.1246 -0.2291
74964W        W75828  21.862   2.816  12.454  0.2618  0.0382  0.4217
74965W        W75829   5.921   0.883  23.539  0.1110 -0.2183  0.0985
74966W        W75830  18.405  22.592  14.252  0.3522 -0.0085 -0.0565
74967W        W75831  23.522  21.702   7.294  0.1580 -0.1250 -0.2522
74968W        W75832  22.421  26.820   3.500  0.1059  0.2260  0.1185
74969W        W75833  10.260  18.458  19.651  0.2953  0.1265  0.0759
74970W        W75834  19.520   6.515   3.137 -0.0969  0.0257  0.1941
74971W        W75835   1.380  27.845  25.544 -0.2392  0.1605  0.1935
74972W        W75836   1.799   4.854  15.759 -0.1247  0.4134 -0.1914
74973W        W75837  22.692  12.942  10.652 -0.2538  0.1110 -0.0793
74974W        W75838  16.787  18.349  20.273  0.2625 -0.4324  0.4274
74975W        W75839   5.136  28.963  28.757 -0.0698 -0.3581  0.0665
74976W        W75840   2.500  22.046  22.352 -0.0024  0.0216 -0.0134
74977W        W75841   7.261   7.685   6.051 -0.1628 -0.0887 -0.2668
74978W        W75842  10.164   7.760  19.661  0.0011  0.1279 -0.1918
74979W        W75843  26.580  14.119   8.151  0.0838 -0.1404  0.0105
74980W        W75844  21.962  19.862  23.433 -0.0224 -0.0810 -0.0479
74981W        W75845  12.194  21.936  16.966 -0.1721  0.0896 -0.0613
74982W        W75846   8.604   4.862  27.624 -0.2315  0.3065  0.3064
74983W        W75847  28.096  11.667  27.383  0.5146  0.0602 -0.1531
74984W        W75848  24.803   3.450  12.313 -0.3202 -0.0025  0.0742
74985W        W75849   4.363  14.345  22.523 -0.1337  0.3174 -0.3277
74986W        W75850   2.955  28.944  14.509 -0.0841 -0.3399  0.1656
74987W        W75851  28.833  20.460  10.186 -0.1435 -0.2088 -0.0686
74988W        W75852  28.430  16.716  20.247 -0.0752  0.0168  0.0542
74989W        W75853  15.405   8.480  28.975 -0.1762 -0.2095 -0.1005
74990W        W75854  24.579  22.204  18.853  0.0565 -0.1327 -0.0175
74991W        W75855   4.242  11.928  15.760 -0.0754 -0.0375 -0.1278
74992W        W75856   0.002  18.015  28.576 -0.2112  0.1483 -0.2177
74993W        W75857   8.217  26.634   4.384  0.2947  0.0496  0.0859
74994W        W75858  18.566   7.770  23.037  0.0104  0.2627  0.1929
74995W        W75859   1.046   0.929  26.264  0.1972 -0.1371  0.2372
74996W        W75860  19.019  20.038  16.966 -0.1130  0.1769  0.1673
74997W        W75861   5.041  28.721  16.005 -0.1128  0.1587 -0.0849
74998W        W75862  24.442  23.372  24.996  0.3097  0.1216  0.0992
74999W        W75863  25.932   0.764  14.571  0.1250  0.1737  0.0384
75000W        W75864  15.440  19.408   9.924  0.1730  0.3484 -0.2250
75001W        W75865   1.113   6.027  15.289  0.1209 -0.1840 -0.0801
75002W        W75866   3.866  20.017  21.696 -0.2177  0.1511  0.2437
75003W        W75867  18.674  10.972  28.137  0.3828 -0.0350  0.1895
75004W        W75868   3.356   0.564  22.843 -0.1783 -0.0699  0.1540
75005W        W75869  11.624   2.401  16.077  0.1418  0.0811 -0.5123
75006W        W75870   9.792  25.298  20.958 -0.1627 -0.1058 -0.2443
75007W        W75871   0.688   5.473   9.149 -0.1999  0.0116  0.0525
75008W        W75872  19.450   7.857  16.558 -0.1673  0.0012  0.0247
75009W        W75873  28.205  14.615  24.102 -0.0300 -0.2369  0.1307
75010W        W75874   1.768  20.934   5.399  0.0692 -0.0901 -0.1140
75011W        W75875  22.553  25.645   6.174 -0.2356 -0.0329  0.0168
75012W        W75876  25.739  28.479  27.302  0.1588  0.0403  0.2729
75013W        W75877   4.778  27.154  19.993  0.0624 -0.0049 -0.1966
75014W        W75878  24.663  17.958  20.787 -0.1978  0.0607  0.1474
75015W        W75879  18.119  20.873  12.700  0.0462  0.0553  0.2041
75016W        W75880  17.355  20.846  25.046 -0.1301  0.1238  0.1008
75017W        W75881   0.928  14.416  19.440 -0.1737 -0.2012  0.0056
75018W        W75882  22.295  20.726   3.065  0.3031 -0.1351 -0.1311
75019W        W75883  19.346   4.456  18.201 -0.3265 -0.1686  0.2189
75020W        W75884  11.348   7.078  26.089  0.2148 -0.3492 -0.2090
75021W        W75885  20.076  13.614   2.946  0.0055 -0.1549  0.2746
75022W        W75886  18.622  17.646  17.557 -0.1743 -0.0118 -0.0912
75023W        W75887   1.563  25.817  12.196 -0.0812  0.1307  0.0333
75024W        W75888  18.378  15.946  19.226 -0.0012 -0.0569 -0.2543
75025W        W75889   4.154  23.601   7.535  0.1901 -0.0631 -0.2493
75026W        W75890  14.636  14.102  22.861  0.0634  0.2412 -0.2551
75027W        W75891   3.259  20.376   4.475  0.1457 -0.3062 -0.0232
75028W        W75892  11.432  13.634  12.850  0.1874  0.2244 -0.1027
75029W        W75893  27.062  25.410   0.449 -0.0951 -0.3365 -0.0160
75030W        W75894   4.249   3.581  12.788  0.0169 -0.0332 -0.2833
75031W        W75895  16.982  16.255  15.640 -0.2670 -0.0426 -0.2607
75032W        W75896   6.173   7.213  11.492 -0.2345 -0.0280  0.1390
75033W        W75897  17.240   1.389   3.230 -0.3939 -0.0785  0.2412
75034W        W75898  20.015  22.792  19.429 -0.1758 -0.1396 -0.1391
75035W        W75899  19.854  12.206  18.281  0.1622  0.0379  0.1878
75036W        W75900  17.130  22.347  13.113  0.0290  0.1854  0.0672
75037W        W75901   6.153  25.230  17.468 -0.1557  0.2507 -0.0762
75038W        W75902  21.215   8.520  23.517  0.3193 -0.0421  0.1228
75039W        W75903  28.278  12.799  13.874 -0.0969 -0.2055 -0.0917
75040W        W75904   7.805   1.084  23.080 -0.0275 -0.2318  0.1288
75041W        W75905  12.931  28.495   8.659 -0.2499 -0.1489 -0.1316
75042W        W75906  27.445  19.619  13.378  0.2864 -0.2172  0.1290
75043W        W75907  22.112  28.683   4.499 -0.0913 -0.0838  0.1949
75044W        W75908  10.708  22.264   8.812 -0.0384 -0.0261  0.2972
75045W        W75909   0.632  28.534  17.608  0.1913  0.0358 -0.1169
75046W        W75910  17.128   4.274  10.949 -0.3799 -0.3912 -0.0802
75047W        W75911  19.455  12.472  18.306  0.1701  0.1267  0.3569
75048W        W75912   6.317  16.523  20.775  0.3424  0.0473 -0.0359
75049W        W75913  26.531   0.124  22.324 -0.1152 -0.3366  0.3373
75050W        W75914  26.513  24.852  21.998  0.0163 -0.0332  0.1752
75051W        W75915  22.012  16.281  23.610 -0.2055 -0.0047  0.0597
75052W        W75916   1.006   1.370   4.701  0.0830  0.0062 -0.1455
75053W        W75917  24.570  20.760  27.887 -0.1776 -0.1878 -0.0526
75054W        W75918   3.523  21.890  25.943  0.0093  0.3214  0.0846
75055W        W75919   9.571  11.577   6.061 -0.0120 -0.1196  0.0564
75056W        W75920  10.427  15.988  25.266  0.0365 -0.0939  0.1538
75057W        W75921  25.183  23.137  22.942 -0.0574 -0.1928 -0.0425
75058W        W75922  27.734  27.470  17.596 -0.0527 -0.0511  0.0614
75059W        W75923  21.819  24.268  18.376 -0.1405 -0.0298  0.0741
75060W        W75924  20.824   1.338  28.563 -0.3732 -0.0686 -0.0122
75061W        W75925  16.773  20.971   9.903 -0.0160 -0.0295 -0.1644
75062W        W75926   8.127   1.159  19.971 -0.0969  0.1109 -0.0719
75063W        W75927   5.431   7.252  13.580 -0.1715 -0.1200 -0.0893
75064W        W75928   6.480   7.667  14.923 -0.0006 -0.3018  0.1096
75065W        W75929  29.057  21.894  25.863 -0.0419 -0.3160 -0.1759
75066W        W75930   4.356   8.724  23.190  0.1748  0.0886 -0.0679
75067W        W75931  22.669   1.370  27.456 -0.0745 -0.2007  0.1956
75068W        W75932  16.463  11.052  12.600 -0.0091 -0.0569 -0.1334
75069W        W75933   5.140  22.577  22.278 -0.3399 -0.1696 -0.0490
75070W        W75934  14.359   5.696  19.524 -0.1216 -0.2163 -0.3687
75071W        W75935  12.685   6.720  17.456  0.1710  0.0694  0.0403
75072W        W75936   5.174  27.336  23.375 -0.0541 -0.1080 -0.0321
75073W        W75937  17.451  20.178  11.730 -0.0245 -0.1486 -0.0735
75074W        W75938   4.427   8.357  12.978  0.0288 -0.1147  0.1851
75075W        W75939   8.670  16.173  13.555 -0.4207  0.0283 -0.3076
75076W        W75940  24.443   8.817  15.352  0.1658 -0.2070  0.0151
75077W        W75941  13.223   1.377  26.844  0.3927 -0.0006 -0.0840
75078W        W75942   1.678   6.178   1.998 -0.2762 -0.0722  0.3057
75079W        W75943  16.171  21.009  23.605  0.3278 -0.4893  0.1849
75080W        W75944  28.936  17.383  15.279  0.0068  0.1804 -0.2932
75081W        W75945  10.559   6.469  23.600 -0.0195  0.0623  0.4480
75082W        W75946  23.247  11.301  19.691  0.0100  0.0194  0.0310
75083W        W75947  27.096  17.147  24.165 -0.0753 -0.0921 -0.3186
75084W        W75948   9.837  18.321   9.886  0.2684  0.0222 -0.0600
75085W        W75949  23.170  16.823  12.138  0.0839 -0.1058  0.1520
75086W        W75950  13.531  17.201   1.652 -0.4104  0.0453 -0.2267
75087W        W75951  22.453  16.314  16.067 -0.1480  0.0792 -0.0256
75088W        W75952  23.429  13.386  17.057 -0.1011 -0.0746 -0.2084
75089W        W75953  28.484   0.348  20.790  0.0270  0.1471 -0.0753
75090W        W75954  13.750  14.817  18.358 -0.2067 -0.0621 -0.2858
75091W        W75955   0.471  17.091   3.087  0.1221 -0.0557  0.2089
75092W        W75956   1.980  26.587  17.240  0.0102  0.4219  0.2846
75093W        W75957  23.339  19.554  22.774  0.1111 -0.1523  0.1359
75094W        W75958   7.423  19.773   3.446 -0.0543  0.2892 -0.0077
75095W        W75959  24.225  15.724   8.502  0.0117 -0.4044  0.0716
75096W        W75960   0.719   3.016   1.164 -0.2904 -0.3692  0.1786
75097W        W75961   1.202  18.193   9.226  0.0062 -0.2011  0.0274
75098W        W75962   8.452  28.205  12.590 -0.0385 -0.0455 -0.0477
75099W        W75963  13.902   5.753   7.582 -0.1569  0.1702 -0.0232
75100W        W75964  15.858   2.689  27.255  0.2081  0.2467  0.1189
75101W        W75965  25.210  10.250  26.891 -0.2499 -0.1001  0.2882
75102W        W75966  25.389   6.970  10.323  0.0073 -0.1200 -0.0568
75103W        W75967  18.925  28.621  28.509 -0.0134 -0.2181 -0.2140
75104W        W75968  27.134  18.471   2.153  0.0311  0.2679 -0.1679
75105W        W75969  15.542  19.706  26.038  0.2162  0.0940 -0.0029
75106W        W75970  26.839  17.135  15.124 -0.0078 -0.1551  0.0947
75107W        W75971  18.314  17.383  21.052 -0.0899 -0.0050  0.0451
75108W        W75972  22.581   2.457  23.775  0.1756  0.0810  0.2038
75109W        W75973   7.837  23.099  23.834  0.1059  0.0485  0.0683
75110W        W75974   0.986   1.149  19.115 -0.0790 -0.2290  0.2755
75111W        W75975  28.918  22.623  22.964  0.1394 -0.2646 -0.1543
75112W        W75976  16.418  14.810   3.004  0.0422  0.2964 -0.0211
75113W        W75977   2.244  23.286   3.571  0.1583 -0.0958  0.2048
75114W        W75978  23.257  14.219  25.505  0.2364  0.1801 -0.1498
75115W        W75979  20.668  18.024  21.673  0.3128  0.0513  0.1068
75116W        W75980  21.422  22.696   1.479  0.1617  0.0739 -0.1697
75117W        W75981   7.045   2.188  11.545 -0.0259 -0.1398  0.3790
75118W        W75982  14.675  23.204  18.529  0.2867 -0.3051  0.2747
75119W        W75983  21.236  19.214  15.385 -0.1795  0.1456 -0.0159
75120W        W75984  14.917  25.324   6.038 -0.3781  0.0494 -0.3232
75121W        W75985   0.652   7.401  27.638  0.1347 -0.2303  0.1418
75122W        W75986  24.781  24.893  14.021 -0.2890  0.3032 -0.0268
75123W        W75987  13.439  18.460  10.583 -0.2565 -0.0244 -0.2957
75124W        W75988  19.715  18.539   8.860  0.2281  0.0901 -0.0393
75125W        W75989  13.566  23.691  28.698  0.0890 -0.0304  0.0121
75126W        W75990  28.663  15.215  25.707 -0.2888 -0.0113 -0.0635
75127W        W75991   6.082  18.784   9.527  0.1327  0.1550 -0.1191
75128W        W75992  22.115  18.389  14.107 -0.0161 -0.0923 -0.1658
75129W        W75993  21.858  18.633  27.410  0.1347 -0.1554 -0.0934
75130W        W75994  26.529   6.593  23.040  0.0011  0.0957  0.3287
75131W        W75995  27.462  17.678   6.059 -0.0409  0.1221 -0.1189
75132W        W75996   1.708  28.639  19.475 -0.0531  0.2189 -0.2123
75133W        W75997  25.592  11.813   5.016  0.2216  0.1778 -0.0825
75134W        W75998  20.840   0.356  15.969  0.0404 -0.2055 -0.2259
75135W        W75999  22.713  19.791   8.173 -0.0757 -0.0873 -0.2841
75136W        W76000  21.861   1.141  14.335 -0.1581  0.1167 -0.2518
75137W        W76001  16.211   1.177  10.988  0.1568  0.0415 -0.2244
75138W        W76002  23.268  24.713  10.604  0.2051 -0.4757 -0.0704
75139W        W76003  16.545  16.999  16.839 -0.0824 -0.3299 -0.0333
75140W        W76004  24.499  15.999  26.515  0.2037 -0.2465  0.0548
75141W        W76005  16.294  15.271  21.568 -0.0279  0.3100 -0.0708
75142W        W76006  26.937  29.068  13.913  0.4326  0.0219 -0.3319
75143W        W76007   5.137   7.116   2.200 -0.1067 -0.3330  0.0092
75144W        W76008   2.339  12.531   9.266 -0.1143  0.0373 -0.1070
75145W        W76009   9.665  21.139   4.880  0.0917 -0.1164 -0.2048
75146W        W76010  28.078  18.586  15.232 -0.0625 -0.0992 -0.2067
75147W        W76011   5.052   0.584   2.333 -0.0827 -0.1679  0.0711
75148W        W76012  11.623   9.703  10.927  0.1461 -0.2781  0.0337
75149W        W76013  18.333  21.256  16.404 -0.0332 -0.0583 -0.3923
75150W        W76014  20.796  11.086  21.207 -0.1093 -0.0906 -0.3683
75151W        W76015  25.549   3.124  14.034 -0.2398 -0.1781  0.1359
75152W        W76016   3.639  17.316  25.853  0.4293  0.4079 -0.2219
75153W        W76017  19.364   7.375  27.671  0.0667 -0.1615  0.0779
75154W        W76018  14.403  23.932  13.980  0.2940 -0.1611  0.1960
75155W        W76019  15.504  28.613  18.128  0.2831  0.2475 -0.0410
75156W        W76020  14.787  22.140  26.492  0.0859  0.3133 -0.0833
75157W        W76021  21.098   2.840   3.692  0.1891  0.1058 -0.0254
75158W        W76022   5.255   1.952  12.045 -0.2447  0.0582 -0.0452
75159W        W76023  20.391   2.855  15.054 -0.1231 -0.0225  0.2201
75160W        W76024   7.749  26.156  21.516 -0.2890 -0.0383 -0.0621
75161W        W76025  18.694  12.933  28.997 -0.3103  0.1564  0.2688
75162W        W76026  27.029  16.651  19.288 -0.1325 -0.1725 -0.2108
75163W        W76027  17.567   3.040  11.447 -0.1438  0.2403  0.0417
75164W        W76028  15.843  18.556  21.966  0.1640 -0.2023  0.0011
75165W        W76029   9.727  27.669   3.585 -0.3023  0.0455  0.0377
75166W        W76030  22.684   5.686   2.172  0.0361 -0.2564 -0.2014
75167W        W76031  25.664  19.977  16.941 -0.0623  0.1829  0.1759
75168W        W76032  20.768   0.923  15.798  0.0089  0.4021 -0.0923
75169W        W76033  19.294  28.133   5.607  0.0857  0.2984  0.1893
75170W        W76034   2.884  13.013  25.416 -0.0995 -0.1082 -0.0078
75171W        W76035  15.637  16.852   4.187  0.0947  0.0096 -0.0923
75172W        W76036  25.289   0.770  25.537 -0.2361 -0.2220 -0.0368
75173W        W76037  25.240   6.487  23.247 -0.1843 -0.1021 -0.0355
75174W        W76038  11.427  26.613  17.582 -0.0388  0.3321 -0.0333
75175W        W76039  27.965   5.726   1.016 -0.1450  0.0116 -0.1027
75176W        W76040  25.882  15.447  15.094 -0.0325 -0.1452 -0.0734
75177W        W76041  24.355  28.927  17.379 -0.2767  0.1455 -0.1622
75178W        W76042  19.778   3.024  15.490  0.0827 -0.2107 -0.1345
75179W        W76043   5.652  23.915  11.171  0.0843 -0.0002  0.2917
75180W        W76044  26.902  14.362  22.523 -0.2213 -0.1813  0.0422
75181W        W76045  16.744  13.612   2.770  0.0618  0.2244 -0.0012
75182W        W76046  11.844  27.710  17.891 -0.0350 -0.0579  0.0052
75183W        W76047  28.685  16.520   0.375  0.0572  0.0882 -0.0848
75184W        W76048   2.473   2.033  21.098 -0.0102  0.0947  0.0242
75185W        W76049  25.583  29.081   1.602 -0.1768 -0.4527 -0.1465
75186W        W76050  26.086   8.527  19.608 -0.0741 -0.2627  0.0879
75187W        W76051  22.944  23.528  19.010  0.0753 -0.0498  0.2134
75188W        W76052  24.615   0.454  23.966 -0.2655  0.0902 -0.0507
75189W        W76053  23.474   7.105   4.142 -0.1457  0.2109 -0.1976
75190W        W76054  22.782   6.587   2.970  0.1215 -0.0363  0.3121
75191W        W76055  14.296  26.613  10.879  0.1911  0.1174  0.0564
75192W        W76056  19.767  18.198  21.365 -0.0313 -0.0130  0.0073
75193W        W76057   0.833  22.419  29.029  0.1828 -0.1243 -0.0232
75194W        W76058   6.808   4.142  12.976 -0.1381  0.3601  0.1577
75195W        W76059  27.116  11.181  11.833 -0.1651  0.0089  0.2383
75196W        W76060  19.291   4.230  22.900  0.0193 -0.1727 -0.4302
75197W        W76061  12.110  19.284  25.326 -0.0711  0.2325  0.1465
75198W        W76062   7.717  19.360  19.528  0.3761 -0.3113  0.0885
75199W        W76063  25.445  26.019  14.187 -0.0043 -0.0288  0.2258
75200W        W76064   5.195   6.815   4.581  0.0617 -0.2247 -0.0011
75201W        W76065   3.321  23.016  14.761 -0.0316 -0.1600  0.1339
75202W        W76066  20.790  18.274  11.227 -0.0800 -0.0449  0.2384
75203W        W76067  24.759  27.649  24.640  0.2392  0.1127 -0.0854
75204W        W76068   4.785  19.133   9.314  0.3031  0.1499  0.0174
75205W        W76069  17.621  12.455  16.228 -0.2770 -0.0086 -0.0088
75206W        W76070  21.215  11.031  25.739  0.0526  0.0010 -0.1145
75207W        W76071  19.045  19.207   6.820 -0.0778  0.0062 -0.4172
75208W        W76072  25.580  22.416  26.846 -0.0658 -0.1437  0.1127
75209W        W76073  21.865   9.478  25.813  0.0448 -0.0352  0.1831
75210W        W76074   4.626  28.679  27.029 -0.1562  0.0454  0.0667
75211W        W76075  15.226   7.958  18.171 -0.2916  0.1093  0.2175
75212W        W76076  13.917  19.311   2.143  0.2032 -0.0681 -0.1144
75213W        W76077  23.114  14.360  22.073  0.0291  0.1574 -0.1120
75214W        W76078  24.213  21.445  18.807 -0.0232 -0.0506  0.0649
75215W        W76079  20.238  22.218  28.903  0.1437 -0.2013 -0.1633
75216W        W76080   2.702  26.971   6.045 -0.1746  0.3072  0.2071
75217W        W76081   4.508   3.158  13.029  0.2309  0.1763  0.2769
75218W        W76082  10.327   1.740   9.332  0.2497  0.0896  0.1299
75219W        W76083   3.783  14.448  17.318 -0.1161  0.1539  0.1473
75220W        W76084  22.585   2.457  25.310  0.2869  0.0063 -0.3470
75221W        W76085  17.477  10.915   9.890  0.0482 -0.1127  0.1055
75222W        W76086  25.405  26.723   6.746  0.1512 -0.0728  0.0102
75223W        W76087  26.021  23.938   4.466  0.2506  0.1594 -0.2610
75224W        W76088   9.356  18.095   2.093 -0.1014 -0.2522 -0.2579
75225W        W76089  26.030  26.660   8.102 -0.0703  0.1045 -0.0818
75226W        W76090  19.296  28.087   4.286 -0.0354  0.0361  0.3768
75227W        W76091   2.221  13.186  21.332  0.2097  0.1531 -0.4769
75228W        W76092  24.749  26.203   7.975 -0.1706  0.0114 -0.1471
75229W        W76093  24.139  24.536  19.987  0.1683 -0.2850 -0.1156
75230W        W76094  10.893   8.653  14.436 -0.2420 -0.2538 -0.0534
75231W        W76095  12.434   5.187   5.320 -0.2904  0.1935 -0.1081
75232W        W76096  22.414   1.119  21.920 -0.0079 -0.1060 -0.2680
75233W        W76097  24.847  17.850  19.188 -0.0028  0.2255 -0.0090
75234W        W76098  21.705  20.816  12.054  0.2378  0.1930  0.2817
75235W        W76099   9.470  27.190  10.119  0.0826  0.0573 -0.3002
75236W        W76100  28.655  11.818   1.174  0.2082 -0.1707  0.0361
75237W        W76101  16.723   1.750  10.327  0.0873  0.0113 -0.1864
75238W        W76102  10.025  12.375   6.554 -0.1201  0.0276 -0.2042
75239W        W76103  11.473  23.504  26.643  0.2778 -0.1122  0.3057
75240W        W76104   1.874   9.690  16.795  0.1070 -0.0051 -0.3111
75241W        W76105   4.749   0.003  16.764 -0.3596  0.0494  0.1856
75242W        W76106   8.364  19.963   7.773 -0.1929 -0.0635  0.1097
75243W        W76107   5.498  21.792   7.459  0.1106  0.0100  0.1057
75244W        W76108  14.061   5.581   3.877 -0.0229  0.0242 -0.0077
75245W        W76109  18.989  21.932  10.818  0.0999  0.0480 -0.1101
75246W        W76110  22.663  21.837  19.974  0.0400  0.1703 -0.0507
75247W        W76111  27.067  12.024  16.459  0.3889 -0.0781  0.1116
75248W        W76112  12.553  11.643   9.500 -0.0878 -0.0832  0.0127
75249W        W76113  21.319  13.532   9.226 -0.0219  0.3537  0.0158
75250W        W76114  24.974  28.688  10.665  0.0362  0.2980 -0.1916
75251W        W76115  21.055  28.820  24.303  0.2688  0.0490  0.0453
75252W        W76116  18.945   8.982  23.716  0.3766  0.1163 -0.0964
75253W        W76117   0.853  11.797  13.379 -0.2680  0.0001  0.2012
75254W        W76118   5.021  18.940  14.448  0.1643 -0.0790 -0.4461
75255W        W76119   7.107  10.334  22.508 -0.0816  0.2370 -0.2944
75256W        W76120   0.937   2.179  14.586  0.1360 -0.2056 -0.0460
75257W        W76121   4.483  19.506   7.252 -0.0099  0.2895  0.1383
75258W        W76122  18.638   7.340   5.609 -0.2099 -0.1187  0.1847
75259W        W76123  10.233  20.048   4.828  0.1609  0.0571 -0.3803
75260W        W76124  20.945  11.019  28.645 -0.0782  0.1101 -0.2298
75261W        W76125   9.808   7.406  14.202  0.0337 -0.0523  0.1429
75262W        W76126   4.080  23.699  27.225 -0.2606  0.5309  0.1291
75263W        W76127   3.569  18.088  16.506  0.3923 -0.3072  0.0775
75264W        W76128  21.720   2.837  17.366 -0.0911  0.0006 -0.1929
75265W        W76129  20.416  19.783  12.254  0.2151  0.0216 -0.1345
75266W        W76130  27.610  20.233  27.362 -0.1436 -0.3475  0.5085
75267W        W76131  22.729  28.285   4.195 -0.1546 -0.0885 -0.1262
75268W        W76132  23.102   3.369  20.956  0.1813  0.0393  0.1942
75269W        W76133  21.792   7.921   2.812  0.1649 -0.1450  0.0528
75270W        W76134   5.067  24.188   6.359  0.0660 -0.0062  0.3464
75271W        W76135  14.920   6.950  10.557 -0.0571  0.3595 -0.0839
75272W        W76136  19.759  11.127  27.980  0.0192 -0.0280 -0.1914
75273W        W76137  13.694  24.315  26.490  0.2930 -0.1321 -0.0456
75274W        W76138  23.281   4.153  11.407  0.0230  0.1094  0.0745
75275W        W76139  26.919  17.936   0.509  0.3130 -0.1321  0.0355
75276W        W76140  27.265  11.106   0.851 -0.1899  0.2013 -0.2115
75277W        W76141   0.897  27.952  10.236  0.1026  0.1325  0.0433
75278W        W76142  17.222   3.975   6.943  0.2246  0.3180  0.1956
75279W        W76143   4.500  18.852   8.410 -0.1368  0.0845  0.0408
75280W        W76144  27.149  21.590  11.538 -0.0122  0.1806  0.0305
75281W        W76145  23.786  25.298  13.250  0.0731  0.1769  0.2268
75282W        W76146  25.100   2.871  28.245  0.0135  0.0538  0.0066
75283W        W76147  24.806   7.721   5.282 -0.1276  0.0830  0.1405
75284W        W76148  11.656  17.067  28.123  0.1436 -0.2161  0.3045
75285W        W76149  13.016   7.820  14.127  0.1221 -0.3353 -0.2070
75286W        W76150  17.769  18.354   9.456  0.2407  0.0155  0.2846
75287W        W76151  19.487   5.284   6.985 -0.2540 -0.0091  0.2042
75288W        W76152  26.412  14.901   8.849  0.2478  0.1990 -0.1044
75289W        W76153  19.330   1.015  26.053  0.1920  0.0809 -0.2161
75290W        W76154   5.849  17.134  22.469 -0.2064 -0.2074 -0.0411
75291W        W76155  26.559   5.128   0.902 -0.0574  0.1797  0.0506
75292W        W76156  17.578  17.844   3.655  0.0083  0.0212 -0.1089
75293W        W76157  15.917  10.936   0.085 -0.0091 -0.1017 -0.1332
75294W        W76158  25.707  25.422  21.405  0.0654  0.2704  0.1509
75295W        W76159   0.421  11.138  26.139 -0.0461  0.2161 -0.2137
75296W        W76160  27.399  16.951  14.363 -0.4413  0.2085  0.0390
75297W        W76161  17.259  18.487   2.383 -0.0225  0.0297  0.0502
75298W        W76162  26.829  28.119   3.805  0.1305 -0.2376  0.3855
75299W        W76163  26.180  20.751   8.498 -0.1283  0.0245 -0.2623
75300W        W76164  22.768   6.904   4.841 -0.2769  0.2797  0.1695
75301W        W76165  27.868   5.323   8.236 -0.2700 -0.0340  0.1624
75302W        W76166  18.333  22.054  24.268 -0.0853  0.0657 -0.0141
75303W        W76167  25.938  25.821  27.935 -0.2305 -0.0341  0.1493
75304W        W76168  18.572  27.207  12.744 -0.1758  0.3580  0.2537
75305W        W76169  23.691  10.045  11.784  0.0656  0.0755 -0.1072
75306W        W76170   4.170  27.771   3.459  0.1852  0.2566  0.0067
75307W        W76171  27.808  25.904  13.015  0.0192  0.2859 -0.0745
75308W        W76172  16.713   4.490  22.942 -0.1750 -0.2770 -0.2103
75309W        W76173  27.857  18.936  18.043  0.1161  0.1396  0.1501
75310W        W76174  27.515  27.986  28.748  0.3710 -0.0856  0.2418
75311W        W76175  27.679  26.924  11.848 -0.1301 -0.0023 -0.0494
75312W        W76176  21.143   9.029  10.093  0.0905 -0.0685 -0.1299
75313W        W76177  12.244  22.519   2.163 -0.2139  0.0020  0.2586
75314W        W76178  28.771   2.357  22.920 -0.2890 -0.2612 -0.3567
75315W        W76179  27.238  20.737   1.044  0.1064 -0.3048 -0.0455
75316W        W76180   8.081  21.809   7.312 -0.1145  0.3326 -0.0838
75317W        W76181   4.466  20.658  24.091 -0.1443 -0.0607  0.0467
75318W        W76182   1.986  24.171  27.484 -0.1783  0.0007  0.3238
75319W        W76183   1.569  21.750  17.934  0.3270  0.3429  0.2979
75320W        W76184  25.470  25.579  23.846 -0.1076  0.0160 -0.0354
75321W        W76185  14.734  14.335  18.620  0.1835  0.1502  0.0137
75322W        W76186   1.017  26.265   0.567 -0.2856  0.0919 -0.0279
75323W        W76187   2.579   0.753   4.057  0.3126  0.4099  0.0788
75324W        W76188   0.361  23.620  24.397  0.0188 -0.1149  0.1675
75325W        W76189   1.378  16.578  24.834 -0.1556  0.0263 -0.1744
75326W        W76190   0.518   7.791   9.424  0.0187 -0.1243  0.1245
75327W        W76191   0.013   2.070   4.550  0.1363 -0.0038 -0.2088
75328W        W76192  17.060  23.326  14.824 -0.2710 -0.2388  0.2694
75329W        W76193  26.012  26.769  27.475  0.1565 -0.1411 -0.0342
75330W        W76194  14.980  20.470   1.889 -0.1017 -0.0425 -0.0805
75331W        W76195   1.554   3.226  24.249  0.0184 -0.2866  0.2138
75332W        W76196  24.928   2.772   0.146 -0.1657  0.1626  0.2348
75333W        W76197  19.546   2.635  23.632 -0.1361 -0.0329  0.2419
75334W        W76198   0.814  25.092   1.908  0.2335 -0.0051  0.2149
75335W        W76199  28.877  16.380  11.206  0.1722 -0.2533  0.3570
75336W        W76200   3.340  13.363   3.747 -0.0021 -0.0534  0.1366
75337W        W76201  20.140  15.759  13.283 -0.0689 -0.0200 -0.1603
75338W        W76202  18.448   2.270  10.688 -0.2509  0.1183  0.4778
75339W        W76203  22.943  21.333  19.671  0.1980  0.0931  0.1427
75340W        W76204   7.242  19.429   2.976  0.0361 -0.0740 -0.2079
75341W        W76205  15.804   4.953  25.763 -0.0804  0.1242 -0.3215
75342W        W76206   5.700  28.527  24.573  0.2104 -0.2124 -0.1945
75343W        W76207  21.070  19.851  14.660 -0.2007  0.0609  0.0502
75344W        W76208  12.816   0.975  10.099  0.2852  0.1699  0.3060
75345W        W76209  18.776   3.757  11.116  0.3179 -0.1761 -0.3084
75346W        W76210   6.646  14.315  20.069 -0.1794  0.0746  0.1261
75347W        W76211  18.921   1.355  27.648 -0.5610 -0.1313  0.3999
75348W        W76212  14.087  21.329   2.999 -0.0540 -0.1475 -0.1183
75349W        W76213   4.464   9.868  20.713 -0.3244  0.0424 -0.2372
75350W        W76214  19.527  11.627  25.825 -0.2257 -0.1190 -0.0806
75351W        W76215   6.619   5.587   7.150 -0.0569  0.0386 -0.4498
75352W        W76216  22.874   1.859   5.446  0.1348 -0.0207 -0.2438
75353W        W76217  21.051   4.780  22.504  0.1094  0.1158  0.2449
75354W        W76218  17.557  16.726  21.220  0.1578 -0.3648 -0.0929
75355W        W76219  22.010  16.436  18.923  0.1326 -0.2040 -0.0300
75356W        W76220  15.818  25.548  16.764  0.0796 -0.0968 -0.1483
75357W        W76221  22.295  26.941  10.021  0.0799  0.1283 -0.2636
75358W        W76222  19.721   0.229   0.506 -0.0106  0.0567  0.0519
75359W        W76223   4.308   7.500  27.411 -0.1695  0.0137  0.3823
75360W        W76224  28.587  14.551   4.670 -0.1854 -0.2400  0.2130
75361W        W76225  27.770   1.934  17.699 -0.0147  0.0324 -0.0400
75362W        W76226   7.059  16.794   2.752  0.1820 -0.1316 -0.2220
75363W        W76227   9.897   6.719  29.005  0.0171  0.1174  0.1552
75364W        W76228  20.729  17.342  21.677 -0.0753 -0.1558 -0.1604
75365W        W76229  24.307  21.564  14.603  0.1157 -0.0211 -0.0116
75366W        W76230   7.755   1.215  26.661 -0.2779 -0.0270 -0.1225
75367W        W76231  10.549  28.900   9.828  0.1344 -0.4493 -0.0286
75368W        W76232  20.591  22.462  20.624  0.0716 -0.3254 -0.2203
75369W        W76233  16.757  11.270  27.550  0.1973 -0.0960  0.1910
75370W        W76234  23.524  27.607   8.116 -0.2094 -0.2239 -0.2345
75371W        W76235   0.849  18.518   3.655 -0.0082  0.2399 -0.2384
75372W        W76236   9.732  12.195  14.165  0.0791  0.2314 -0.0797
75373W        W76237   7.220  16.366  21.084 -0.0508 -0.2024 -0.3447
75374W        W76238  22.326   1.995   9.926  0.1693 -0.1735 -0.1767
75375W        W76239  27.489  10.247   2.773 -0.0044 -0.0257  0.2113
75376W        W76240  19.202   9.080  24.596  0.0654  0.0237 -0.1679
75377W        W76241  14.642  19.475   1.829 -0.3074 -0.1999  0.0795
75378W        W76242   4.527  23.873   3.099 -0.0868  0.3128  0.1768
75379W        W76243  25.359  26.339   5.276 -0.0574 -0.1882 -0.2084
75380W        W76244  17.961  18.219  22.712  0.0927 -0.3054  0.2504
75381W        W76245   6.856   7.245  21.158 -0.1050 -0.0144 -0.1476
75382W        W76246  17.468  24.647  14.363  0.0816 -0.0166  0.2712
75383W        W76247   9.747  21.026   7.254  0.1385  0.3132  0.3616
75384W        W76248  25.432  24.024  28.010 -0.2079 -0.1381 -0.0651
75385W        W76249  15.122  16.135  19.448  0.1160  0.3470  0.0687
75386W        W76250   1.594  20.756  21.646 -0.0157 -0.0564  0.2493
75387W        W76251  14.525  27.382  26.046  0.2110  0.1399 -0.1758
75388W        W76252  20.895  25.338   2.069  0.1042  0.3053 -0.2304
75389W        W76253   6.643  26.706  26.723  0.0777  0.2118 -0.0498
75390W        W76254  23.559   7.012  25.497 -0.1662  0.2414  0.0604
75391W        W76255  19.753  16.357  24.533  0.0438 -0.3388 -0.2214
75392W        W76256  12.820  10.339  18.999 -0.0312  0.2286 -0.0564
75393W        W76257  22.178  17.849   7.086  0.3646 -0.1494  0.0390
75394W        W76258  11.497  20.065   1.525  0.0936 -0.2842 -0.0531
75395W        W76259  23.146  10.053  24.274  0.0811 -0.1611 -0.1109
75396W        W76260  20.570  28.451   2.929  0.3754 -0.0080 -0.1396
75397W        W76261   3.907  26.572  22.074  0.1658 -0.0101  0.0685
75398W        W76262  13.227  19.080  19.680  0.0301 -0.0072 -0.1552
75399W        W76263  20.668  26.687  15.422  0.0402 -0.0706  0.0675
75400W        W76264  15.559  22.933  28.757 -0.1264 -0.2238  0.1744
75401W        W76265  23.011  24.952  16.104  0.2589  0.0196  0.1756
75402W        W76266  19.365  15.376  19.361 -0.1646 -0.2683  0.1899
75403W        W76267  28.972   7.037  17.893 -0.2855 -0.0448  0.2158
75404W        W76268  18.324   8.507  23.832  0.1067  0.0358 -0.1943
75405W        W76269   2.895  27.940  18.816 -0.1636 -0.2053  0.1384
75406W        W76270  17.717  23.998   2.194  0.0920  0.1236 -0.1150
75407W        W76271  17.071  20.488   9.966  0.0567  0.1018  0.3469
75408W        W76272  21.223  23.971   0.381 -0.1400 -0.0420  0.0216
75409W        W76273  25.218   4.095   8.640 -0.0000  0.0417  0.0402
75410W        W76274  24.261  28.689  23.169  0.1382 -0.1025  0.1539
75411W        W76275  24.102  17.576  21.986  0.0784 -0.1968 -0.2525
75412W        W76276  27.565   1.534  24.496 -0.4445 -0.4281  0.1887
75413W        W76277  22.316  19.551   4.095  0.3613  0.1630  0.0112
75414W        W76278  20.429   1.783  28.191 -0.0420  0.0225  0.0818
75415W        W76279   9.992   3.403   4.907  0.0256  0.0152  0.1660
75416W        W76280  17.817  28.454  17.907 -0.0676 -0.0248  0.1827
75417W        W76281   7.212   4.056  27.880  0.1835 -0.0252 -0.1243
75418W        W76282  14.022  21.788   3.284 -0.0893 -0.0137 -0.0704
75419W        W76283  22.017   4.335  15.441  0.2454 -0.0358  0.0715
75420W        W76284  11.869   8.732   4.490  0.0823  0.1027  0.1567
75421W        W76285  21.705  14.595  12.221 -0.0865 -0.3206 -0.0906
75422W        W76286  12.555  16.502  21.527 -0.1239  0.4310  0.2687
75423W        W76287  27.557   2.632  16.086  0.1220 -0.6665 -0.0773
75424W        W76288   4.578   4.494  23.628  0.0923 -0.1149  0.0396
75425W        W76289  12.668  11.590  20.784  0.0366 -0.1860 -0.1191
75426W        W76290  23.418  19.106   6.106 -0.1770 -0.1472 -0.2906
75427W        W76291  20.216   5.443  24.092  0.0940 -0.0369 -0.3810
75428W        W76292  20.467  20.237   5.462  0.4348  0.1250  0.2598
75429W        W76293  25.397  16.281   2.416  0.0635  0.1228  0.1720
75430W        W76294  11.943   9.255  27.085 -0.0710 -0.1022 -0.0430
75431W        W76295  16.104  22.086  19.895  0.2360 -0.1965  0.1220
75432W        W76296  24.218  11.234  22.118  0.0157 -0.0627 -0.2080
75433W        W76297   5.780  19.988   5.612  0.2035 -0.1819  0.1160
75434W        W76298  22.652   9.659   3.979 -0.1721  0.1755  0.2890
75435W        W76299  25.424  24.636  11.042 -0.0528  0.1720 -0.0600
75436W        W76300   8.781  26.405  19.533 -0.2196 -0.1732  0.1619
75437W        W76301  18.944  27.055  26.811 -0.1563  0.0095 -0.0032
75438W        W76302  18.734   4.160   6.413 -0.0401  0.0820  0.3985
75439W        W76303  24.987  27.674   6.454  0.1423  0.0347  0.0391
75440W        W76304  24.280  26.056   4.560 -0.5038  0.2811  0.2252
75441W        W76305  21.350  16.210   5.081 -0.0631  0.2614  0.0155
75442W        W76306   3.364   3.712  24.742 -0.2165 -0.3471 -0.1540
75443W        W76307  26.409  24.176  27.695  0.1609  0.0904  0.0910
75444W        W76308   1.592  24.158  20.094 -0.2206  0.1868  0.1011
75445W        W76309  22.138  15.049   5.886  0.1212  0.2173 -0.1214
75446W        W76310   8.593  26.016  16.651  0.0962 -0.0768 -0.1347
75447W        W76311   1.141  26.067  23.359 -0.0604 -0.2060  0.3758
75448W        W76312  16.727  22.055  24.352  0.2491  0.3017 -0.1015
75449W        W76313  21.706  25.046  26.625 -0.1018 -0.0285 -0.0164
75450W        W76314   6.037  13.734  18.127 -0.1057 -0.1145  0.0735
75451W        W76315  10.291  13.601  20.085  0.0119 -0.1020  0.0771
75452W        W76316  19.561  17.768   3.284  0.2728 -0.1563 -0.1933
75453W        W76317   0.405  28.458  18.937 -0.1486  0.2819 -0.0634
75454W        W76318   7.288   3.829  11.668 -0.0806 -0.1146 -0.1499
75455W        W76319   7.387  13.664   4.063 -0.1419  0.1729  0.0601
75456W        W76320  19.250   6.586   3.528  0.0120 -0.0601 -0.1700
75457W        W76321   7.993   4.212   3.373  0.0241  0.0089 -0.0058
75458W        W76322  18.850   0.024  19.480 -0.2120 -0.2791 -0.0926
75459W        W76323  23.159  21.122  26.136 -0.1017  0.1629 -0.1539
75460W        W76324   2.225   0.819  17.738  0.0188 -0.2162 -0.1038
75461W        W76325  20.647  12.000  26.223  0.0116 -0.2752 -0.3282
75462W        W76326  25.908  12.743   5.020 -0.1363 -0.1206 -0.2316
75463W        W76327   7.606   2.187   8.101  0.0621 -0.1824 -0.0624
75464W        W76328  29.039   4.671  17.606 -0.2868 -0.5782 -0.0571
75465W        W76329  13.944  28.464   9.621 -0.0401 -0.0392 -0.3680
75466W        W76330  22.535  17.492  15.625  0.1440 -0.2113 -0.1126
75467W        W76331  20.834   2.527  23.297 -0.1734  0.0851  0.2039
75468W        W76332  20.327   4.075   9.868  0.0846  0.2644  0.1729
75469W        W76333  23.952   2.724  22.083  0.1332 -0.1131 -0.1291
75470W        W76334  20.860  25.024   1.156 -0.2852 -0.1662  0.3320
75471W        W76335  23.881  24.149  11.842 -0.1234 -0.0833 -0.1333
75472W        W76336   0.099  26.633   7.286  0.1306  0.0941 -0.4089
75473W        W76337  19.850  12.577   0.481 -0.0897 -0.1620 -0.1719
75474W        W76338  27.375  27.816  16.967 -0.0818 -0.0448 -0.1084
75475W        W76339  27.058  26.680   7.028 -0.1795  0.0249  0.0681
75476W        W76340   1.401  11.838   3.106 -0.2290  0.0824 -0.1843
75477W        W76341  25.241  20.208  18.008 -0.1963 -0.0016  0.1515
75478W        W76342  17.096   3.259   6.996 -0.0428 -0.1390  0.2037
75479W        W76343   5.296  10.761  19.595  0.3851 -0.1092 -0.1743
75480W        W76344  21.260   7.241  25.456 -0.0964 -0.1182 -0.1188
75481W        W76345  21.900  11.852  17.218 -0.0627 -0.0614 -0.0057
75482W        W76346  26.671   7.596  25.478 -0.0700 -0.2836 -0.0035
75483W        W76347  26.097  26.157  24.391  0.1401 -0.2325 -0.3328
75484W        W76348  24.152   8.535  18.778  0.2454  0.0252  0.2237
75485W        W76349  18.130   0.279   4.926 -0.0235 -0.1850  0.2399
75486W        W76350  16.792  27.641  28.367  0.1883 -0.0895  0.1056
75487W        W76351  23.301  24.359  25.355 -0.0426 -0.5285 -0.0615
75488W        W76352  15.279  24.242   5.500  0.0226  0.0330 -0.2467
75489W        W76353  18.899   0.176  12.011  0.0537  0.1123  0.2125
75490W        W76354  12.829  14.036  27.910 -0.0418  0.1063 -0.0165
75491W        W76355  10.636   7.240  22.818 -0.0034 -0.1335  0.2556
75492W        W76356   7.045  10.615  10.915 -0.0557  0.1175 -0.1485
75493W        W76357  13.456   4.376  27.977  0.1343 -0.2482  0.0885
75494W        W76358  13.093  26.597  20.039 -0.0327  0.4599 -0.2279
75495W        W76359   9.852  21.326  20.364 -0.0294  0.1867  0.1648
75496W        W76360  14.962  25.051   5.615 -0.1301 -0.2674  0.1852
75497W        W76361  27.608  16.549   3.622 -0.3826  0.3013  0.3088
75498W        W76362  24.419   8.195   4.502  0.3432 -0.0486 -0.1746
75499W        W76363  16.436  18.157   1.915 -0.1551 -0.0405  0.3842
75500W        W76364  26.086  28.380  15.019  0.0650  0.2852  0.1720
75501W        W76365   2.648  18.473   9.214 -0.0407 -0.0071  0.1259
75502W        W76366   1.402   6.458  17.763  0.0414 -0.1766  0.4680
75503W        W76367   7.901   8.991  18.472 -0.0447  0.0117 -0.2724
75504W        W76368  27.635  18.878   4.993 -0.2052 -0.1173 -0.3209
75505W        W76369   1.281  20.147  17.101  0.1070 -0.0099 -0.1371
75506W        W76370   2.272  24.359  16.168 -0.1875  0.2488 -0.1248
75507W        W76371  15.040  28.439   3.654 -0.0631 -0.0011 -0.0749
75508W        W76372  19.030  26.647  17.355 -0.0178  0.0446 -0.0384
75509W        W76373   8.299  13.991   5.115  0.0041  0.1881  0.0282
75510W        W76374  23.037  24.021  23.515 -0.0201 -0.1334 -0.1339
75511W        W76375  20.359  16.852  16.485 -0.0211  0.2311  0.0566
75512W        W76376  25.588  19.272  23.904  0.2725 -0.2113  0.1152
75513W        W76377  25.079  13.389   7.334 -0.1654 -0.0596 -0.2032
75514W        W76378  16.908  27.033  29.062  0.0663  0.0774  0.1108
75515W        W76379   7.776  18.839   5.764  0.0502 -0.1667 -0.2545
75516W        W76380   5.290   4.226   3.771  0.4186 -0.1879 -0.1451
75517W        W76381  16.048  16.448  23.244 -0.2129 -0.0330  0.0326
75518W        W76382  11.442  22.121  15.976 -0.0022 -0.2785  0.0470
75519W        W76383  14.896   0.952   2.308  0.2152 -0.0504 -0.2050
75520W        W76384   7.336   0.766   1.124 -0.0463  0.3391 -0.0289
75521W        W76385  15.449   4.152   6.667  0.0204  0.0819 -0.0512
75522W        W76386  23.044  22.592  15.673  0.3149  0.0507 -0.0216
75523W        W76387   0.444  24.517   2.070  0.0147 -0.2606 -0.0986
75524W        W76388   7.066   1.511  18.323 -0.2979  0.2420 -0.0493
75525W        W76389  28.701  15.326  10.794  0.0414 -0.0491 -0.2735
75526W        W76390  11.938  13.654  25.726 -0.1473  0.0131  0.1321
75527W        W76391   0.879   8.997  24.179  0.1134 -0.2132 -0.2863
75528W        W76392   0.386  10.213  11.530  0.1223 -0.1164 -0.1263
75529W        W76393  18.225  10.817  10.614  0.0173  0.0468 -0.0138
75530W        W76394  28.855   1.787  21.871 -0.0609  0.1392 -0.5093
75531W        W76395   7.616  23.874  20.959 -0.0307 -0.2490 -0.0734
75532W        W76396  17.954  20.218   2.840  0.3278  0.1649 -0.1080
75533W        W76397  17.958  11.424  15.276 -0.1074  0.1610  0.1149
75534W        W76398   3.255   5.098  13.616 -0.0500 -0.0757  0.0443
75535W        W76399   6.834   7.719  24.962 -0.0786  0.2384  0.1150
75536W        W76400   0.815  22.603  11.952 -0.5048  0.2430  0.0109
75537W        W76401   3.080  23.747  23.806 -0.0940  0.1945  0.0901
75538W        W76402  26.496  27.364  23.336 -0.2425 -0.1878 -0.3338
75539W        W76403  28.899  25.432   4.005  0.2822  0.0229  0.2627
75540W        W76404  16.383  21.867  17.424 -0.0763  0.0081  0.1399
75541W        W76405  11.789   3.565  28.101 -0.2403 -0.1058 -0.0917
75542W        W76406  27.083   5.168   0.070  0.0346 -0.1790 -0.0433
75543W        W76407  24.235  23.551   5.830 -0.2527  0.0038 -0.0089
75544W        W76408  15.544  13.681  20.699  0.1447 -0.1870  0.1836
75545W        W76409  22.262   9.447  14.797  0.3406 -0.0699 -0.1293
75546W        W76410   3.852  26.363   7.989 -0.0747 -0.1470 -0.1213
75547W        W76411  22.624  25.066  26.796 -0.2779  0.0633 -0.0376
75548W        W76412   7.371  16.607  10.127 -0.0038  0.1479 -0.2674
75549W        W76413   5.658  26.703  18.541 -0.0283  0.1559  0.0474
75550W        W76414  27.333  11.948  19.592 -0.0873  0.1337  0.0061
75551W        W76415   5.120  23.107   4.575 -0.0659  0.1621 -0.2845
75552W        W76416   5.922   6.714  23.257  0.1371 -0.0507  0.2623
75553W        W76417   0.226  26.220  26.664 -0.1295 -0.2980  0.1023
75554W        W76418  22.993  20.883  24.044  0.0251  0.2876  0.0640
75555W        W76419   6.820  26.834   8.908 -0.1468  0.0482 -0.0696
75556W        W76420  13.937   5.915   2.562  0.1297 -0.1782  0.1745
75557W        W76421   3.662  22.801  17.232  0.3275 -0.1861  0.2950
75558W        W76422  28.261  16.567   0.969  0.0725  0.0941  0.0752
75559W        W76423   0.413   6.401  10.759 -0.0467 -0.3782  0.1529
75560W        W76424  20.679   5.303  18.404  0.1784  0.0279 -0.1133
75561W        W76425  18.686  22.068  25.115  0.1909  0.0313 -0.3160
75562W        W76426  20.194  17.098  28.274  0.1525 -0.1287  0.1914
75563W        W76427  24.773  17.510   2.113  0.4227 -0.0929 -0.1255
75564W        W76428  21.438  15.308  26.912 -0.1079 -0.0902 -0.0031
75565W        W76429   4.784  22.046  19.238  0.1072 -0.0378 -0.0048
75566W        W76430   1.196   4.604  21.566  0.0873  0.1521 -0.4243
75567W        W76431  28.615  27.431  10.992  0.1257 -0.0301 -0.3235
75568W        W76432   3.016  16.158  21.473 -0.0105  0.2207  0.0549
75569W        W76433   3.840  20.442  11.033  0.2573  0.0060 -0.4811
75570W        W76434   0.218   6.921  15.065 -0.0272 -0.4327  0.0833
75571W        W76435  18.603  16.216  26.282 -0.2029 -0.0497  0.0307
75572W        W76436   5.914   4.005  10.222 -0.2977  0.0970 -0.1482
75573W        W76437   0.126  16.561  15.613  0.3279 -0.2504  0.1924
75574W        W76438  26.791  23.914  10.316 -0.0584 -0.0037 -0.2000
75575W        W76439  28.612  22.991  15.800 -0.0583 -0.0072  0.2569
75576W        W76440  10.930  19.542   0.769 -0.2256 -0.1383 -0.0327
75577W        W76441  18.193  26.063  27.071 -0.2919 -0.1510  0.1544
75578W        W76442   1.087  11.601  23.256  0.0756  0.0612 -0.1517
75579W        W76443  17.946   0.460   2.961  0.0199 -0.0057 -0.0240
75580W        W76444   4.394  28.120  14.020 -0.0306  0.1977  0.2893
75581W        W76445  14.072  22.706  28.680  0.1767 -0.0847 -0.0049
75582W        W76446  24.871  18.570  14.554  0.0666  0.0757  0.1775
75583W        W76447   2.890  20.694  18.912  0.1567  0.2695 -0.0338
75584W        W76448   4.474   6.307  14.769 -0.0785  0.0242 -0.3124
75585W        W76449  20.198  18.711   2.545  0.2044 -0.2281 -0.2422
75586W        W76450  24.071  16.368  12.112  0.1807 -0.1472  0.1971
75587W        W76451  19.903  26.649  23.548  0.0146  0.0698 -0.1957
75588W        W76452   6.567  10.413  19.788 -0.0734 -0.0584  0.3954
75589W        W76453   6.800  19.239   0.631 -0.0690 -0.1673  0.0168
75590W        W76454   0.017  17.570  24.201 -0.0102 -0.0853 -0.3343
75591W        W76455  23.358   2.043  20.419 -0.0204 -0.2315 -0.2566
75592W        W76456   8.447   2.236  25.842 -0.0806  0.2092  0.1657
75593W        W76457   3.455  22.810  27.548 -0.1989 -0.2705  0.0630
75594W        W76458  22.755  20.943  28.195 -0.2545 -0.1054 -0.0808
75595W        W76459  25.169  27.189   6.487 -0.0097 -0.2918  0.0610
75596W        W76460   1.078   9.087  12.561  0.0145  0.0470 -0.0081
75597W        W76461  28.280  20.493   3.499 -0.2700  0.0273 -0.0350
75598W        W76462  15.918  18.424   4.220  0.0600  0.4351 -0.1338
75599W        W76463  17.411   1.703  13.537  0.0750  0.0599 -0.0004
75600W        W76464   6.253  24.673  23.082 -0.1771 -0.0878  0.2686
75601W        W76465   2.157   7.124   8.791  0.4548 -0.3332 -0.0768
75602W        W76466  18.686   2.352  12.028 -0.1506  0.0534 -0.3270
75603W        W76467  22.240  26.300  27.872  0.1427  0.2067  0.1185
75604W        W76468  15.186  20.122  21.408 -0.2375 -0.2778  0.0017
75605W        W76469   8.739  24.357  16.221  0.0190 -0.1700 -0.1190
75606W        W76470  23.088  27.225  19.325 -0.2038  0.1824  0.0702
75607W        W76471  20.887   5.089  28.000 -0.6021  0.2991 -0.3222
75608W        W76472   1.065  14.887  17.376 -0.1253  0.1554  0.2010
75609W        W76473  24.133   9.237  25.516  0.2020  0.0288 -0.5474
75610W        W76474  23.118  19.798   1.662  0.2826  0.0459  0.0883
75611W        W76475   0.791   9.349   4.124  0.0953  0.0675  0.2871
75612W        W76476  23.779  20.746  15.547 -0.1377  0.1383 -0.0116
75613W        W76477  27.590   6.170   7.239  0.0528 -0.0580  0.3027
75614W        W76478  18.943  19.222  15.824 -0.1244 -0.1664  0.0239
75615W        W76479  25.906   3.409   4.722  0.0119 -0.2147 -0.0768
75616W        W76480  16.251   8.616  17.940 -0.2504  0.1184 -0.3054
75617W        W76481  21.480  16.926  21.833 -0.1021  0.4042  0.0407
75618W        W76482   0.866  11.246  25.838  0.0076  0.0982 -0.1718
75619W        W76483  13.647  28.297  24.500  0.1161  0.0536  0.1277
75620W        W76484  22.661  15.657  13.301 -0.0886  0.1051  0.0409
75621W        W76485  22.538  20.739  10.768  0.2097  0.1405 -0.0400
75622W        W76486  18.065  24.936  24.216  0.3187 -0.0574 -0.0405
75623W        W76487  26.305   8.535   7.406  0.1683  0.0323 -0.2306
75624W        W76488  23.116   5.345   0.800 -0.1997 -0.1302  0.0391
75625W        W76489  25.866  14.719   0.378 -0.0425  0.1339 -0.0473
75626W        W76490  22.038  24.687   1.182 -0.0535  0.0725  0.0071
75627W        W76491   5.866  11.242  23.397 -0.2782 -0.0047 -0.0672
75628W        W76492   9.098  28.951   0.211  0.1795  0.0522  0.1635
75629W        W76493   1.066  15.476  19.788  0.1453 -0.3389  0.2245
75630W        W76494   4.796  20.638  11.282  0.1086  0.0094  0.1687
75631W        W76495  19.710  20.935  24.385 -0.0666  0.1273 -0.0877
75632W        W76496   8.906  24.986   7.020  0.6379 -0.3665 -0.0797
75633W        W76497  24.179  20.121  14.313  0.2403 -0.0628 -0.0529
75634W        W76498  19.188  19.599  23.836  0.0599 -0.1041 -0.0486
75635W        W76499  10.843   5.228  25.260 -0.1141 -0.0695 -0.1423
75636W        W76500  22.072  22.102  28.469 -0.1022 -0.0261 -0.1465
75637W        W76501  16.371  18.447   6.015 -0.1520 -0.1697 -0.0567
75638W        W76502  16.723  26.092   3.258  0.1095 -0.4656  0.0479
75639W        W76503  24.665  20.375   9.201 -0.1008  0.3974  0.2852
75640W        W76504  10.701  26.809  14.714  0.0151  0.1360  0.0858
75641W        W76505  14.722  21.049  25.333 -0.0249 -0.2328  0.0291
75642W        W76506   6.707   1.819  19.995  0.1219  0.0862  0.1496
75643W        W76507  22.650  28.146  17.696  0.4351  0.0721  0.0939
75644W        W76508  17.170  19.132   6.609  0.1500 -0.2230 -0.1932
75645W        W76509  10.744  10.634   1.502  0.0718 -0.1042  0.0063
75646W        W76510  21.926  28.115  24.756  0.0660 -0.1614 -0.1073
75647W        W76511   0.259  28.635   8.926 -0.0427 -0.2480 -0.0425
75648W        W76512  23.938   5.194  26.994 -0.1344  0.0005  0.4032
75649W        W76513  26.585   2.619   5.903  0.0385  0.2357 -0.0105
75650W        W76514  28.290  23.809  22.711 -0.0313  0.0133 -0.0356
75651W        W76515  15.074  22.186  20.142 -0.0253  0.3722 -0.2127
75652W        W76516  27.282  14.967  12.738  0.0925 -0.3227  0.5248
75653W        W76517  13.160  26.180  18.143 -0.1788 -0.3628  0.0259
75654W        W76518  13.247  28.487  10.989  0.0949 -0.0801  0.1520
75655W        W76519  13.829  21.366  22.610 -0.0358 -0.2570 -0.0370
75656W        W76520  19.741   3.148  13.531 -0.1795 -0.1749 -0.1167
75657W        W76521  13.772  22.333   5.474 -0.0427  0.0926 -0.2908
75658W        W76522  27.355   5.927   4.325 -0.0793 -0.2605  0.0479
75659W        W76523  24.747  12.246  18.744  0.0251 -0.1061  0.0084
75660W        W76524  15.771  11.671  17.329  0.0341  0.3157  0.2529
75661W        W76525  11.804  20.578  25.382  0.3416  0.4587  0.0407
75662W        W76526  15.600  15.356   2.492 -0.3069 -0.0709  0.0164
75663W        W76527  18.778  26.978   8.912  0.0745  0.3584 -0.2780
75664W        W76528   1.119  17.510  21.829  0.1078 -0.1119 -0.1737
75665W        W76529  20.061   0.938  17.605  0.0175  0.1889 -0.0210
75666W        W76530  27.861  12.718   3.512  0.0468  0.0892  0.3658
75667W        W76531  14.793  28.022  23.917 -0.0304  0.0500  0.1111
75668W        W76532  24.724  21.631  14.285 -0.1401 -0.0696  0.1500
75669W        W76533   7.334   9.627   6.707 -0.1777 -0.1612 -0.0415
75670W        W76534  13.545  22.456  21.014  0.0238  0.0599  0.4369
75671W        W76535   2.061  25.104   7.420 -0.0241 -0.2265  0.3365
75672W        W76536  16.718  15.281  18.874 -0.0182  0.1256 -0.1453
75673W        W76537  11.453  17.087  22.602  0.1847 -0.1916 -0.1307
75674W        W76538  20.527  28.510   6.588 -0.1899  0.2235 -0.1089
75675W        W76539  28.428  22.186  17.457  0.1532  0.2052  0.1985
75676W        W76540  15.799   7.050  23.613 -0.0803 -0.2625 -0.1033
75677W        W76541  22.540  28.316  14.312  0.1339 -0.1062 -0.1146
75678W        W76542  26.709  22.490  16.542  0.0398  0.1301 -0.0115
75679W        W76543  23.217  10.967  15.755  0.1539  0.0865 -0.3649
75680W        W76544  15.137   8.351  17.935 -0.1872 -0.0440  0.0420
75681W        W76545   5.989  16.115   3.356  0.1484 -0.0387  0.4202
75682W        W76546  11.637   6.919   9.234  0.1735 -0.1054  0.1374
75683W        W76547   5.636   6.396  28.037 -0.2503  0.2956 -0.0435
75684W        W76548  20.068  25.327   8.627 -0.1196 -0.1870 -0.1232
75685W        W76549   7.615  18.092  17.485  0.0191  0.0058  0.1590
75686W        W76550   8.799   1.341  16.397 -0.0144 -0.2278  0.0659
75687W        W76551  10.987  17.032  25.978  0.0235  0.1566  0.0597
75688W        W76552   3.200  23.408   0.613 -0.1226  0.1315  0.1118
75689W        W76553  20.446  25.429   3.933  0.1968  0.2977  0.0418
75690W        W76554  21.220  25.386   1.439  0.0750 -0.0734  0.0252
75691W        W76555  24.389   3.500  28.306  0.1291 -0.0846 -0.0301
75692W        W76556   3.723   6.052   5.017  0.0560  0.1204  0.2465
75693W        W76557  28.495  15.211  23.111  0.2614  0.0037  0.2812
75694W        W76558  17.711  23.217  10.227  0.2766 -0.0103  0.0510
75695W        W76559   6.954  22.174   2.184  0.0381  0.0815 -0.1002
75696W        W76560  19.405  17.140  22.892  0.1453  0.1329  0.3081
75697W        W76561  25.300   9.080  16.705  0.1843  0.1589 -0.0057
75698W        W76562   1.679  25.822  20.344  0.0572  0.3047  0.0727
75699W        W76563   6.042  11.398   3.432 -0.1540 -0.0295  0.0826
75700W        W76564  26.396  18.906  22.733 -0.3839  0.1398  0.2366
75701W        W76565  25.551  14.821  27.490  0.2755 -0.0078  0.0357
75702W        W76566  20.484  16.937   3.602  0.1469  0.0412  0.0278
75703W        W76567  13.390  21.399  23.249  0.0986  0.1080 -0.0325
75704W        W76568  21.000  25.106   4.466  0.5353  0.3073  0.0838
75705W        W76569  17.834   6.353  20.174  0.2290 -0.2922 -0.0498
75706W        W76570  25.966  23.529  25.957  0.2003 -0.2696  0.2222
75707W        W76571  21.332   3.459   2.021 -0.1173 -0.0210 -0.1438
75708W        W76572   5.685  24.087  23.035 -0.0453  0.1439  0.1097
75709W        W76573   2.632   1.880  28.178  0.1497  0.1695 -0.0522
75710W        W76574   8.279  11.676  17.929 -0.0322 -0.1709  0.0205
75711W        W76575   0.662  28.325  22.063  0.1431 -0.1879 -0.0325
75712W        W76576  19.206  13.850  25.082  0.2142 -0.1390  0.2297
75713W        W76577   8.081  25.176   9.994  0.0336 -0.0194  0.0478
75714W        W76578  19.216  17.411   5.509  0.3433  0.0576 -0.0206
75715W        W76579  15.845   2.753   9.312  0.1559  0.0781 -0.2694
75716W        W76580  17.647  14.929  23.731  0.0759  0.2901  0.0430
75717W        W76581  22.361  10.954  24.398  0.2275  0.0135 -0.2053
75718W        W76582  11.689  24.914   6.420 -0.2717  0.1445  0.1054
75719W        W76583  18.758  28.371  12.035 -0.0607 -0.0217 -0.4453
75720W        W76584   8.317  24.302   2.823  0.0218  0.1119 -0.1427
75721W        W76585   2.247  24.255   8.039 -0.1297  0.1575  0.3816
75722W        W76586  22.921  19.402  10.929  0.2786 -0.2996 -0.0326
75723W        W76587   5.639  27.375  10.308  0.1914 -0.1282 -0.2737
75724W        W76588  20.631  28.049  27.853 -0.2537 -0.1972  0.0755
75725W        W76589   9.366  19.910   1.151  0.2878  0.0957 -0.0091
75726W        W76590  12.823  13.093  29.143  0.0010 -0.1577  0.3069
75727W        W76591  16.426  15.792  13.212 -0.0143 -0.0520 -0.0629
75728W        W76592   4.662  29.010  10.007 -0.0005  0.1713  0.1502
75729W        W76593  20.288  15.060   5.173  0.0690  0.1120  0.2587
75730W        W76594  19.291  27.171  25.891  0.0851 -0.1161 -0.2110
75731W        W76595   1.919   2.331  27.793  0.1289 -0.0963 -0.0573
75732W        W76596   3.290  26.699   4.286 -0.0625 -0.1034  0.2520
75733W        W76597   2.029   4.615  20.851 -0.0192 -0.1067  0.0213
75734W        W76598  24.735   6.037   5.021 -0.1549  0.0224  0.1707
75735W        W76599  12.793  19.682  14.446 -0.2344  0.0984  0.2583
75736W        W76600  27.896  20.268   2.080 -0.3785  0.2617 -0.3716
75737W        W76601   5.565  20.488  27.233  0.0173  0.1226  0.0062
75738W        W76602  11.276  19.946  17.789  0.2837  0.2840 -0.4225
75739W        W76603   2.743  21.135  19.333 -0.0309  0.1133  0.0730
75740W        W76604  16.979  11.800  19.708 -0.1400 -0.1274 -0.1521
75741W        W76605  19.260  20.322  16.083  0.0591  0.0492 -0.0982
75742W        W76606   2.601  23.289   9.639 -0.1407 -0.0381 -0.0396
75743W        W76607  27.297  28.634   1.765  0.1591  0.3042  0.2120
75744W        W76608   0.670  28.272   4.844  0.0016  0.1467 -0.4295
75745W        W76609   4.608  22.349  20.571  0.0261  0.3316 -0.0484
75746W        W76610  13.865  12.418   1.535  0.1552  0.1670  0.0397
75747W        W76611   4.127   2.263  24.470  0.2426 -0.1878  0.0444
75748W        W76612  15.708  23.976   6.221  0.2171  0.2653  0.2022
75749W        W76613   8.714   3.888   0.881 -0.1276 -0.0745 -0.0709
75750W        W76614   5.166  15.717   4.705  0.1391 -0.0342 -0.0514
75751W        W76615  21.726  13.250   2.012  0.0151 -0.1222 -0.2658
75752W        W76616  19.382  21.901  22.452  0.0198  0.1546 -0.0857
75753W        W76617  15.460  24.152   1.423 -0.3631  0.0020  0.3471
75754W        W76618  21.103   2.095  23.460  0.1124 -0.2001 -0.0363
75755W        W76619  21.898   3.272   3.219  0.1737 -0.1414 -0.0956
75756W        W76620  27.045   0.756  22.119  0.2740  0.0999 -0.2518
75757W        W76621   9.017  27.576  13.899  0.1262  0.1670 -0.0743
75758W        W76622  20.562   8.270  27.116  0.2637 -0.3462  0.1954
75759W        W76623  18.335   0.968   3.772  0.1422 -0.1991  0.1511
75760W        W76624  19.665  12.877   1.962 -0.0143  0.0952 -0.3627
75761W        W76625  22.604  15.118   6.067 -0.1209  0.2060 -0.1625
75762W        W76626  13.349  21.015  16.091 -0.2600 -0.0800  0.1530
75763W        W76627  21.745   0.613  21.305  0.2895 -0.3899  0.2331
75764W        W76628   7.063  25.509  24.761  0.2118  0.1329  0.0382
75765W        W76629  17.544  11.647  12.088  0.3449  0.0749  0.0736
75766W        W76630  27.702   5.771   8.565 -0.3808  0.0721 -0.0147
75767W        W76631   0.441  14.481  21.484  0.3192  0.1551 -0.1047
75768W        W76632  14.063  23.744   5.650 -0.4232 -0.1561 -0.0369
75769W        W76633  26.076  16.115   6.820  0.0634 -0.0462  0.2900
75770W        W76634   2.064  24.321   8.584  0.1428 -0.1687 -0.2486
75771W        W76635  27.995  20.622  24.545  0.0224 -0.1819 -0.0178
75772W        W76636  16.367  17.251  29.093  0.2558  0.2415  0.0072
75773W        W76637  21.300  18.482  10.093 -0.0375 -0.1181 -0.2249
75774W        W76638   6.338   3.250   0.000  0.0790 -0.0200  0.0003
75775W        W76639  18.404   0.818  15.674  0.1330  0.1839 -0.0901
75776W        W76640   8.046  17.298  26.209 -0.2383  0.0165  0.2252
75777W        W76641   6.455  25.240  24.995  0.0841 -0.0777 -0.0546
75778W        W76642  21.108  20.559  22.194 -0.2014 -0.0451  0.2640
75779W        W76643   8.253  28.154  11.632  0.0075 -0.0478 -0.0123
75780W        W76644  20.821  17.141   8.771  0.4075 -0.1037 -0.0721
75781W        W76645   4.770   7.808   6.065 -0.1511 -0.0955  0.1350
75782W        W76646  13.880  27.494   2.847 -0.0872  0.1894  0.3918
75783W        W76647  20.973  18.260   1.014  0.0925  0.1591 -0.0682
75784W        W76648  22.244  28.989  12.842  0.1784  0.0776  0.0969
75785W        W76649  17.895  23.883  17.950  0.0361 -0.1688 -0.1042
75786W        W76650  27.853  13.693   3.624  0.0893 -0.2150  0.3726
75787W        W76651  27.586  20.964   6.557 -0.0358 -0.0371  0.3629
75788W        W76652  21.535  22.614  28.491 -0.1758 -0.0350 -0.0874
75789W        W76653  21.803   4.842  10.262 -0.0196 -0.3697 -0.0013
75790W        W76654  28.277  11.702  19.750 -0.1117 -0.5042 -0.1242
75791W        W76655  22.813  24.592   8.031  0.0369  0.1104  0.0074
75792W        W76656  15.254  28.035  19.400  0.2651  0.0427  0.0708
75793W        W76657   7.009  21.895  25.947  0.1181  0.1605 -0.0681
75794W        W76658   2.742  15.255   5.778 -0.1979  0.5554 -0.1977
75795W        W76659  25.879  17.896  10.627 -0.0085  0.0855 -0.1488
75796W        W76660  25.977  20.880  18.977 -0.0419 -0.4065 -0.1241
75797W        W76661   3.678   3.686  12.873  0.3232 -0.0689 -0.0306
75798W        W76662  23.101   2.949  25.114 -0.2483 -0.1290 -0.4142
75799W        W76663   6.069  26.154  27.160 -0.0914  0.1129  0.2169
75800W        W76664   9.132   2.743  12.771 -0.0415  0.1938 -0.2962
75801W        W76665   5.894  28.794  23.611 -0.0960  0.2294 -0.3010
75802W        W76666  26.490   6.478   3.263  0.1332  0.1063  0.0693
75803W        W76667  23.987  14.779  21.846 -0.0490 -0.3450 -0.0514
75804W        W76668  26.471  21.268   4.640  0.2883  0.0166  0.3392
75805W        W76669  22.114   9.481   0.923  0.1887  0.1171 -0.0721
75806W        W76670  17.710   9.877   0.926 -0.0851  0.0846  0.0242
75807W        W76671  25.113  15.446  20.344  0.1264  0.0353 -0.1257
75808W        W76672  19.336   3.479  13.454  0.0310 -0.4450 -0.1157
75809W        W76673  28.360  13.915  23.518 -0.1036  0.2459 -0.1853
75810W        W76674  25.271  17.177  15.551 -0.1223 -0.1763  0.0793
75811W        W76675   5.604   1.657   1.622 -0.1108  0.0754  0.0183
75812W        W76676   6.956  17.330   2.816  0.3273 -0.0935  0.2050
75813W        W76677  13.475   4.304   6.472 -0.0554 -0.4056 -0.0900
75814W        W76678   0.798  11.774  27.839  0.1738  0.0459  0.0224
75815W        W76679  19.674  25.834  20.636  0.1185 -0.1988  0.2818
75816W        W76680  12.848   6.648  28.155 -0.2680 -0.0212  0.0062
75817W        W76681  19.550  25.330   6.354 -0.0492  0.0797  0.1858
75818W        W76682  14.136  29.140  23.553  0.2446  0.0627  0.2039
75819W        W76683  15.739  19.394  19.113 -0.0091 -0.0644 -0.0655
75820W        W76684  11.118  24.489  21.713  0.1678  0.0125 -0.2462
75821W        W76685  18.228  20.651  23.092  0.1400  0.0524 -0.2294
75822W        W76686  23.428   4.040  25.253 -0.1214 -0.1400  0.0165
75823W        W76687  27.766   2.698  14.113  0.1228 -0.0052 -0.3812
75824W        W76688  15.046  23.792   0.777  0.2265 -0.1280 -0.0282
75825W        W76689   1.121  19.796   2.409  0.0498 -0.2152  0.0018
75826W        W76690  14.526   1.450  20.979 -0.2000  0.0704  0.2240
75827W        W76691   3.634   1.475   2.273  0.2316  0.1906  0.2100
75828W        W76692  24.347  27.456   2.697  0.0331  0.0306  0.0073
75829W        W76693   7.737  24.569  26.860  0.1599  0.2015 -0.2437
75830W        W76694  18.197  25.742  11.355  0.2110  0.2981 -0.1895
75831W        W76695  20.383  26.198  11.559  0.2009  0.2622  0.0140
75832W        W76696   1.923   8.019   8.229  0.0748 -0.1827  0.0150
75833W        W76697  11.985  14.188  13.556  0.1651 -0.0234 -0.0209
75834W        W76698  27.733  20.407  11.636  0.0593  0.1944 -0.0369
75835W        W76699  16.064  26.646   4.413  0.2569 -0.0440  0.1776
75836W        W76700  22.391  21.668  28.175 -0.0038  0.2368  0.1993
75837W        W76701   3.782  26.447  24.358 -0.0121  0.2523  0.2926
75838W        W76702  21.581  22.252   1.260 -0.0229 -0.2656  0.1885
75839W        W76703  11.170  21.148   8.939 -0.1302 -0.3059 -0.0864
75840W        W76704  24.556  28.731  22.719 -0.0185  0.3425 -0.0960
75841W        W76705  10.675   2.962  23.648 -0.2287  0.2669 -0.1317
75842W        W76706   9.595  17.747  29.008  0.1305 -0.1085 -0.0792
75843W        W76707  23.772  20.533   2.229 -0.0718  0.0851  0.0804
75844W        W76708  17.964  18.652  22.070  0.1582  0.2336 -0.0678
75845W        W76709   1.820  25.071  15.732 -0.0314  0.3195  0.2944
75846W        W76710  23.965   1.940  16.460  0.1723 -0.0715  0.0045
75847W        W76711   5.247  25.432  21.137  0.0408 -0.3914 -0.3857
75848W        W76712  24.428  21.804  12.536 -0.4426  0.1549 -0.1769
75849W        W76713  26.873  23.247  16.155  0.0901 -0.0519  0.0011
75850W        W76714   5.458  18.316  27.614  0.1272  0.2538 -0.1292
75851W        W76715   9.904  27.620  23.803 -0.1348  0.2511 -0.3842
75852W        W76716  17.888   8.157   1.117 -0.0072  0.3923  0.0996
75853W        W76717  12.220  19.303  25.926  0.0869 -0.1763  0.1777
75854W        W76718   4.592  22.400  20.046 -0.0533  0.0341  0.1456
75855W        W76719  28.535   9.423  26.725  0.0771  0.1339  0.1806
75856W        W76720   3.076  11.742   8.576  0.3053  0.0359  0.0323
75857W        W76721  28.510  23.799   3.043 -0.1305 -0.1268 -0.0774
75858W        W76722  24.125   8.153  20.548  0.0423 -0.0808 -0.1352
75859W        W76723  11.123  14.105  11.889  0.2713  0.1808 -0.2291
75860W        W76724   1.421  14.694   2.138 -0.0732  0.1289  0.1406
75861W        W76725  15.587   7.114  17.136  0.4188 -0.0291  0.0354
75862W        W76726  29.072  16.378  22.529  0.4001  0.2268 -0.1837
75863W        W76727  26.517   3.398  21.370  0.0884  0.0153 -0.0548
75864W        W76728  19.280  25.084   8.563 -0.0287  0.1084 -0.1679
75865W        W76729  10.130  20.567   8.069 -0.1560  0.0484 -0.1282
75866W        W76730   0.218  25.569   7.717  0.1369 -0.1842  0.0118
75867W        W76731  26.962  28.939   7.652 -0.0944  0.1133 -0.0163
75868W        W76732  28.806  18.245  17.426  0.1458 -0.0250 -0.1201
75869W        W76733  17.252  28.060  10.975  0.2133  0.2243  0.1133
75870W        W76734  21.060  28.494  20.162 -0.1180 -0.0175  0.0530
75871W        W76735  19.884  24.737  27.041 -0.0536  0.0907  0.0623
75872W        W76736  28.680   0.647  21.582  0.1768 -0.4629 -0.1450
75873W        W76737  13.562  10.879  11.605  0.3037  0.1297  0.0304
75874W        W76738  21.814  10.820   0.569  0.2137 -0.1050 -0.1271
75875W        W76739  19.670   0.508  13.100 -0.0353 -0.1340  0.1965
75876W        W76740  16.225  22.381   6.812  0.0825  0.0620  0.2440
75877W        W76741  20.902   3.724  27.562  0.1874 -0.3645  0.0615
75878W        W76742  14.945  20.186  26.734  0.0948 -0.0905  0.0109
75879W        W76743  17.595  13.232  20.378 -0.2037  0.0655  0.0536
75880W        W76744  23.679   4.019  14.181  0.4817  0.1377  0.4673
75881W        W76745  16.707  24.921   1.443  0.0126  0.1385 -0.0501
75882W        W76746   3.912  21.889   4.507  0.0636  0.1060 -0.2607
75883W        W76747   0.089  24.642  26.403  0.1476 -0.2392  0.1573
75884W        W76748  28.340   5.128   1.835  0.2580  0.1994 -0.0697
75885W        W76749  15.127   3.904   9.049 -0.2737 -0.1237 -0.0389
75886W        W76750  22.991  11.238  17.555  0.0691  0.0856 -0.2487
75887W        W76751   1.046   7.526   2.655  0.1715  0.0244 -0.0721
75888W        W76752  17.316  27.243   3.085  0.2375 -0.3569 -0.0962
75889W        W76753  10.825  19.891  21.537  0.1642  0.0095 -0.1211
75890W        W76754   9.040  17.681  20.944  0.0228 -0.0964 -0.0211
75891W        W76755  11.315  25.550   6.116 -0.0090 -0.0419  0.0450
75892W        W76756   4.415   1.252   1.088 -0.3821  0.0810  0.1366
75893W        W76757  23.818  25.211   8.816 -0.3681  0.1513 -0.0851
75894W        W76758   1.924  12.219  22.116 -0.0319  0.1011  0.0470
75895W        W76759  20.550   8.987  24.928 -0.2649  0.0085  0.0381
75896W        W76760   6.101   0.932   9.212  0.1525  0.3200 -0.3044
75897W        W76761  11.237   0.279  12.794  0.1966 -0.2276  0.3761
75898W        W76762  22.913  23.264   4.737  0.0686 -0.3399  0.0988
75899W        W76763  14.400   0.381  16.633 -0.2026  0.1353  0.2017
75900W        W76764   0.153  13.264  18.755  0.0823  0.1096 -0.1804
75901W        W76765   7.548  18.031  23.943 -0.3861 -0.0539 -0.0399
75902W        W76766   9.553  12.222   0.261 -0.0724  0.1159 -0.3424
75903W        W76767  26.425   2.376   6.766  0.0195 -0.0751  0.0411
75904W        W76768   1.466  17.940  20.039  0.1348  0.0766 -0.0965
75905W        W76769  15.328  22.612  21.887 -0.1055  0.1516 -0.0304
75906W        W76770  14.119   1.964   5.478  0.1653  0.0714  0.0785
75907W        W76771  19.594   1.392  13.056 -0.0243  0.0798  0.4743
75908W        W76772   1.920  20.183   3.451  0.2786 -0.1074 -0.2140
75909W        W76773  16.819   0.886  18.250 -0.2033  0.1220  0.2975
75910W        W76774  13.092  28.649   9.636 -0.0131  0.1605  0.2304
75911W        W76775  22.801   1.660   9.046  0.1761  0.1752 -0.0402
75912W        W76776  22.220  22.579  15.146 -0.2228 -0.2913 -0.1978
75913W        W76777  10.579  11.656  27.154 -0.0501  0.3752 -0.2366
75914W        W76778  24.399  23.622   2.204  0.2269  0.1931 -0.0184
75915W        W76779   8.106   5.440  12.713 -0.3085  0.0243 -0.3611
75916W        W76780  10.582  19.966  14.261  0.3951  0.0937 -0.1711
75917W        W76781  10.354  18.021   8.841  0.0906  0.1688 -0.0876
75918W        W76782  13.104   6.093  21.354 -0.2016  0.1179  0.0476
75919W        W76783  17.972  16.586  17.108  0.2559 -0.0941  0.0845
75920W        W76784  10.821  21.815  26.581  0.1333 -0.0481  0.2260
75921W        W76785  25.507   9.418   5.582 -0.1215  0.1475 -0.0378
75922W        W76786   4.238  25.158  27.977  0.0655 -0.1278 -0.0542
75923W        W76787   2.380  22.239  15.360 -0.0863  0.0247  0.2640
75924W        W76788  24.413  25.173  26.261 -0.3547 -0.0672 -0.0058
75925W        W76789  10.601   7.995  26.879  0.0859  0.2190  0.1702
75926W        W76790   0.294   8.261   2.152  0.1431  0.0264 -0.1713
75927W        W76791  27.263   9.641   3.389 -0.1263  0.0143  0.0683
75928W        W76792  23.217  20.001  20.066 -0.0114  0.0321 -0.1850
75929W        W76793  22.075  16.963  21.544  0.1554  0.0002  0.1811
75930W        W76794   7.241  20.592   7.790 -0.2752  0.2761 -0.1752
75931W        W76795   7.379   0.466  19.282 -0.1975  0.0596  0.0365
75932W        W76796  23.073  13.015   1.698 -0.0268 -0.3383 -0.0235
75933W        W76797  28.374  24.483  16.861  0.0546 -0.1523 -0.1979
75934W        W76798  20.604  16.570  13.294 -0.1659 -0.2352 -0.0522
75935W        W76799  27.986  17.622  25.341 -0.2844  0.1737 -0.1282
75936W        W76800  23.794  26.307   5.818 -0.3615 -0.1097 -0.2711
75937W        W76801  13.176  26.102   2.575  0.1096  0.0760 -0.2880
75938W        W76802  28.986  16.833  26.170  0.0010  0.0004  0.1510
75939W        W76803  25.670  24.448   0.975  0.2835  0.2255  0.3583
75940W        W76804   2.202  24.479  28.018  0.3478  0.2236 -0.1376
75941W        W76805   1.926  10.022  27.823 -0.1724  0.0850 -0.3023
75942W        W76806   1.999  15.922   9.227  0.2283 -0.0302  0.1501
75943W        W76807  28.857  20.873  19.816 -0.0720  0.3082  0.3038
75944W        W76808  23.448  14.640  28.610 -0.0843 -0.0257 -0.4117
75945W        W76809  26.876   7.377   7.830 -0.0096  0.1936 -0.2940
75946W        W76810   7.680  15.624   7.626  0.1208 -0.2417  0.1773
75947W        W76811  28.250  13.282  13.790  0.0003 -0.0384 -0.2117
75948W        W76812  18.028  18.408  14.277  0.4740 -0.0354  0.1696
75949W        W76813  25.697  15.163  19.707 -0.0753 -0.3759  0.2629
75950W        W76814  10.790  25.338   9.662  0.2211  0.1540 -0.0832
75951W        W76815  12.780  13.065   9.897 -0.1420 -0.3008  0.2170
75952W        W76816  26.534  22.098   0.321  0.0369 -0.1394 -0.0173
75953W        W76817  19.999  27.230  24.651  0.0021  0.4616 -0.0972
75954W        W76818  14.597   6.492  21.525 -0.0115 -0.4428  0.1049
75955W        W76819   1.146  21.585   7.298 -0.0646  0.1609 -0.1484
75956W        W76820   1.437   3.641  12.403  0.0664 -0.1486  0.1470
75957W        W76821   6.486  25.673   7.029  0.1758 -0.0980 -0.0721
75958W        W76822  23.164   5.000  19.870  0.2077  0.0484 -0.0755
75959W        W76823  19.118  18.486   3.463 -0.2730  0.0534 -0.0172
75960W        W76824   2.795  14.959   9.187 -0.1710  0.1969  0.2679
75961W        W76825  18.867  18.421  19.157 -0.1357  0.1734  0.0947
75962W        W76826  20.579  18.567   8.693  0.2172 -0.0684 -0.3384
75963W        W76827  10.998   5.151  26.501  0.2108 -0.0458  0.1071
75964W        W76828  27.841  22.043  26.959 -0.1829 -0.0179 -0.0560
75965W        W76829   0.575  16.215   5.726 -0.1451  0.0558  0.5443
75966W        W76830  18.820  27.263  15.990  0.0729  0.0157  0.1868
75967W        W76831   4.499  20.878  13.449 -0.5008  0.1420  0.1057
75968W        W76832  15.959  17.745  18.757 -0.3377 -0.2045 -0.3611
75969W        W76833   2.907   1.319  16.224 -0.1670 -0.0824  0.3485
75970W        W76834   8.037  10.983  28.003  0.1023 -0.3629  0.3382
75971W        W76835   3.222  18.440   4.580 -0.0277  0.1844  0.0961
75972W        W76836   8.267  24.870  12.227 -0.3146  0.0220 -0.0583
75973W        W76837   7.568   3.193   7.657  0.1294  0.2798 -0.2310
75974W        W76838   1.736  18.707  10.233  0.2561  0.2604 -0.1726
75975W        W76839  23.228  24.721   1.242 -0.2824  0.2705  0.1987
75976W        W76840  26.210   9.181  11.948  0.1120  0.2015 -0.0094
75977W        W76841   1.723   1.583  17.364  0.0365 -0.1604  0.0558
75978W        W76842   1.787  17.895  12.058  0.3975  0.1274  0.2506
75979W        W76843  26.095  28.767  22.966 -0.0051  0.1267  0.0677
75980W        W76844   4.449  27.192   6.283  0.0652 -0.1993  0.0374
75981W        W76845  20.195  27.084  27.901 -0.0049  0.0412  0.0122
75982W        W76846  10.310  14.882   6.122 -0.0553  0.0418  0.1026
75983W        W76847   8.213   8.728  13.369  0.1663  0.1327 -0.0847
75984W        W76848  14.314  17.424   4.113 -0.1717  0.0177  0.1233
75985W        W76849  11.936  25.473  27.208  0.0665  0.1741 -0.1390
75986W        W76850  17.686  24.587  25.247  0.1026 -0.0524 -0.1327
75987W        W76851  25.500  12.347  28.151 -0.1155  0.1659 -0.2099
75988W        W76852  25.306  12.977  25.571  0.0278  0.0154  0.0890
75989W        W76853  18.035   0.803   7.112  0.1293  0.1895 -0.0973
75990W        W76854  26.855  20.766  21.173  0.2158 -0.0669  0.1544
75991W        W76855   2.496  20.342  27.691  0.2078  0.0532  0.1872
75992W        W76856  14.501   5.691  28.561 -0.1370 -0.1005  0.0214
75993W        W76857  13.864  22.603   6.879  0.1202  0.1532  0.0363
75994W        W76858   9.108   9.772   8.772 -0.1057  0.0668 -0.0737
75995W        W76859   0.507  28.729  20.774 -0.2492 -0.1171  0.0042
75996W        W76860  10.992   1.309  17.293 -0.0870  0.2227 -0.1542
75997W        W76861  27.695   2.066  27.754  0.1445  0.1306 -0.3375
75998W        W76862   8.366  27.817   8.620 -0.1951  0.2864 -0.1186
75999W        W76863  10.043  25.083   3.440  0.3184 -0.1986  0.0704
76000W        W76864  28.270  15.943   8.945 -0.1639 -0.1609  0.1610
76001W        W76865   5.763   2.369  20.063 -0.0207  0.2329  0.1252
76002W        W76866   4.425  28.250  17.967  0.2571 -0.0228  0.0476
76003W        W76867   0.659  26.816   1.200  0.1543 -0.0846  0.1586
76004W        W76868  23.059  20.557   9.872 -0.2523 -0.0207  0.2453
76005W        W76869   4.444  17.177   3.771 -0.2272 -0.1452 -0.0595
76006W        W76870  28.105   6.515   8.525 -0.1729  0.3047 -0.1772
76007W        W76871   0.787  28.887  23.481  0.0392  0.3192 -0.3933
76008W        W76872   3.468  27.850  20.542 -0.1801  0.0382  0.2704
76009W        W76873   3.548  17.849   1.809 -0.2215  0.0891 -0.0178
76010W        W76874  28.253  19.610   5.507  0.0413  0.2388 -0.0246
76011W        W76875  20.227  15.845   6.717  0.0116 -0.2302  0.0952
76012W        W76876  20.276   6.888  18.625 -0.3032  0.3008  0.1067
76013W        W76877  19.751  21.651   1.386  0.2378 -0.0562 -0.2741
76014W        W76878   4.900  21.517   8.906 -0.2605  0.0924 -0.0284
76015W        W76879  24.244   6.981  14.645 -0.0199  0.1236  0.1423
76016W        W76880  18.707  10.648  10.626 -0.3742 -0.1202 -0.2424
76017W        W76881  17.708  11.737   6.126  0.1128 -0.3723  0.1049
76018W        W76882  24.206  22.542  12.044  0.1574  0.0173 -0.2509
76019W        W76883   1.479  25.099  27.649 -0.0114 -0.0863 -0.2566
76020W        W76884  24.786  27.880  22.173  0.0996  0.0572 -0.0319
76021W        W76885   2.121  19.550   0.112 -0.2405  0.0368  0.0659
76022W        W76886  17.319  21.752   2.470  0.0896  0.0791 -0.1712
76023W        W76887   4.130  10.604   2.206 -0.0658  0.1519  0.0637
76024W        W76888   8.534   6.052  26.658  0.0015  0.1470 -0.0436
76025W        W76889   2.995   8.466  27.712 -0.0995  0.0838  0.0171
76026W        W76890   5.037   9.983   3.077 -0.0796 -0.0637 -0.0309
76027W        W76891  11.716  24.792   2.880 -0.0623 -0.0821  0.1657
76028W        W76892   8.373  21.326  24.990  0.0131 -0.1200  0.1269
76029W        W76893   9.219  20.062  11.860  0.0997  0.1079  0.0221
76030W        W76894  23.138   5.016   1.527  0.1303 -0.0423  0.0767
76031W        W76895   7.691  27.858  15.126  0.1228 -0.2371 -0.2797
76032W        W76896  15.571  23.799  25.231 -0.1916  0.2371  0.1291
76033W        W76897  26.136  24.162   7.186 -0.0375 -0.1820 -0.0580
76034W        W76898  28.869  27.784   1.367 -0.1995  0.0453  0.0843
76035W        W76899  25.790  27.361   4.648 -0.0202  0.1163  0.0191
76036W        W76900  24.698  18.071  28.002  0.0917  0.2716 -0.0901
76037W        W76901   6.456  12.181   7.377  0.3593 -0.3347  0.2223
76038W        W76902  26.257  24.278  16.605  0.1468 -0.1271  0.0220
76039W        W76903  14.996   6.478  28.805 -0.0987 -0.1153 -0.0144
76040W        W76904  16.159  11.238  27.586  0.1619 -0.3021  0.1949
76041W        W76905  11.645  17.520  28.358 -0.0698  0.1710 -0.1357
76042W        W76906  28.820   3.242  26.442  0.0173 -0.0424 -0.1979
76043W        W76907  18.111  21.738  11.846 -0.3282  0.1547  0.1586
76044W        W76908   4.556  27.018  21.154  0.3550 -0.2278 -0.0278
76045W        W76909  16.443  12.720   5.337  0.0849 -0.0246 -0.1091
76046W        W76910  13.775   1.632  10.570  0.0158 -0.1975 -0.2463
76047W        W76911  21.802  18.171  27.102 -0.1769  0.2060 -0.3239
76048W        W76912  25.750   7.292  21.667  0.1211 -0.0115 -0.2159
76049W        W76913  10.186  28.083  15.026 -0.3140  0.1957  0.2345
76050W        W76914   0.537   4.429  28.690  0.1230 -0.0998 -0.1396
76051W        W76915   7.173   6.604  19.672  0.3530  0.0926  0.0150
76052W        W76916  11.508  10.618  12.665  0.0098 -0.0848  0.1794
76053W        W76917   5.102   1.092  27.177 -0.1895  0.0093  0.1402
76054W        W76918  26.636  11.226   7.626  0.0991 -0.0918  0.0926
76055W        W76919   9.427   1.189  14.431  0.0654 -0.2048  0.0354
76056W        W76920   8.484  12.647  28.325  0.1155 -0.2074 -0.0666
76057W        W76921   8.637   2.773  12.754  0.1362 -0.2093 -0.4741
76058W        W76922  21.589  21.121  12.676 -0.1452 -0.1740  0.0709
76059W        W76923  25.755  10.021  12.244  0.1689  0.3420  0.1159
76060W        W76924   3.889  12.587  15.052  0.1924  0.2050 -0.1005
76061W        W76925   1.629   8.768  26.777  0.1901  0.0036  0.1356
76062W        W76926  20.874  24.539  26.920 -0.0398 -0.2130 -0.3425
76063W        W76927  13.381   7.748  28.258 -0.0940 -0.3334 -0.1555
76064W        W76928  20.163   0.597  13.246  0.3361 -0.2087  0.2474
76065W        W76929  22.919   9.266   8.426  0.0191  0.2862 -0.0048
76066W        W76930  20.660   8.568   4.680 -0.0766  0.0918  0.0692
76067W        W76931  27.171  18.901  26.197  0.1076  0.3369 -0.0119
76068W        W76932  26.373   4.216  15.443 -0.0334  0.2196 -0.6257
76069W        W76933  19.140   2.720  10.415  0.1896  0.0426  0.1820
76070W        W76934  20.744  19.841   3.404  0.1305 -0.1547  0.1374
76071W        W76935  17.644  22.567  17.144 -0.1299 -0.1455  0.0903
76072W        W76936  20.349  25.197   5.774  0.2280  0.4096  0.2055
76073W        W76937  11.746  13.440  14.605  0.1378 -0.3681 -0.1182
76074W        W76938  27.617  29.081   0.573  0.0356 -0.2265  0.2787
76075W        W76939  27.585  25.561  10.244 -0.0936 -0.0874  0.1208
76076W        W76940  13.784  20.303  11.460 -0.0986 -0.0671 -0.1218
76077W        W76941  16.346  23.271  13.250 -0.0935  0.1828 -0.2470
76078W        W76942  11.547   7.344  22.037 -0.1456  0.0046  0.1794
76079W        W76943  15.168   8.874  21.485 -0.0039 -0.1413  0.1148
76080W        W76944   0.587  19.819   3.622 -0.0808 -0.3303  0.0056
76081W        W76945  27.488   2.420  28.104 -0.1205  0.0284  0.1470
76082W        W76946   8.179  28.416  19.047 -0.4223 -0.1138 -0.1023
76083W        W76947   7.880  24.639   5.930 -0.0149  0.2526  0.0770
76084W        W76948  25.870  15.747  14.467 -0.0156 -0.0053  0.3470
76085W        W76949  14.563  12.414   2.177  0.1169 -0.1323  0.3657
76086W        W76950  23.988  12.921   1.943  0.1628 -0.4657  0.0673
76087W        W76951   7.029  18.692   6.461 -0.0032  0.0385  0.0488
76088W        W76952   9.954  17.511   7.645 -0.0163  0.1839  0.0321
76089W        W76953  14.817  15.791   1.310  0.0415  0.1383  0.0640
76090W        W76954  22.692  23.581  12.193 -0.1378  0.0432  0.0512
76091W        W76955  25.400  26.225  18.960 -0.0605 -0.1910 -0.1033
76092W        W76956  15.117  26.867  24.498  0.0550 -0.0960 -0.0647
76093W        W76957  19.961  25.501  15.008 -0.1329  0.0600  0.1475
76094W        W76958   5.043  18.935  17.832 -0.0441 -0.1663 -0.1379
76095W        W76959  13.072  20.364  18.021  0.0251  0.3600 -0.0691
76096W        W76960  21.185   8.455   7.996  0.0379  0.0975  0.0422
76097W        W76961   3.597   3.632  27.285 -0.1454 -0.0717 -0.0027
76098W        W76962  15.834  10.103   8.368  0.3067 -0.1638 -0.1682
76099W        W76963  25.766  24.215  27.724  0.0500  0.1130  0.0552
76100W        W76964  21.765   3.372  20.571 -0.2190  0.0405  0.2578
76101W        W76965   2.278  21.737   6.370  0.1634  0.3717  0.2887
76102W        W76966   7.508   4.184   3.344  0.1716  0.0888 -0.1656
76103W        W76967  14.926   9.405   6.462  0.3301  0.0029 -0.1598
76104W        W76968  24.822  10.545  27.582  0.1529 -0.1353 -0.1020
76105W        W76969  28.085  24.258  21.966 -0.1868  0.1224 -0.2682
76106W        W76970  19.283   5.312  16.581  0.3354 -0.1521 -0.3342
76107W        W76971   8.045   8.295  23.292  0.0709 -0.0651  0.1655
76108W        W76972  23.789   8.486  26.649  0.1614 -0.1219 -0.3314
76109W        W76973  19.296  28.484  18.554  0.0378 -0.0985  0.2536
76110W        W76974  13.020  20.984  23.009  0.0331  0.0185  0.1143
76111W        W76975   4.845  27.185  13.980  0.1518 -0.2039  0.1741
76112W        W76976   8.448  22.851  26.779  0.1872 -0.2357 -0.1124
76113W        W76977  25.046  25.044  24.699 -0.0491  0.0903 -0.0707
76114W        W76978  10.181  18.957   2.755  0.1687  0.0449 -0.0079
76115W        W76979   9.009   1.852   8.502  0.0229 -0.4533  0.0853
76116W        W76980   9.809   1.445  28.257 -0.1517 -0.2319  0.1597
76117W        W76981  16.829  27.894  11.854  0.3422  0.1456  0.0977
76118W        W76982   2.001   2.702  20.770 -0.0913 -0.0033 -0.0733
76119W        W76983   0.680  10.959  18.802 -0.2038 -0.3039  0.0034
76120W        W76984  28.605  14.597   3.902 -0.0953  0.0429 -0.1551
76121W        W76985   1.483   2.813   0.581 -0.0545 -0.3702 -0.0900
76122W        W76986  25.562  10.368  21.352  0.2563 -0.2204 -0.0174
76123W        W76987  24.657   8.709   1.423  0.1300 -0.0729 -0.1060
76124W        W76988   4.577  15.941  14.623 -0.3099  0.0637 -0.0061
76125W        W76989  27.861  20.303  26.937  0.2037  0.0538 -0.0068
76126W        W76990  25.600  25.734  27.440 -0.1037 -0.1197 -0.0034
76127W        W76991  21.035  13.780   9.717  0.1514  0.0403  0.1066
76128W        W76992  10.619   9.544  27.174  0.2017  0.0587 -0.1112
76129W        W76993  22.349  11.208  19.323  0.1465  0.0416  0.0198
76130W        W76994  16.172  23.395   9.653 -0.0798 -0.2080 -0.1904
76131W        W76995  15.377  11.701  17.959  0.0902 -0.0141  0.0039
76132W        W76996  24.786  25.775  10.114 -0.3979  0.1202  0.4539
76133W        W76997  29.101  17.420   9.998 -0.0518 -0.1131  0.0475
76134W        W76998   9.663   4.722   0.565 -0.2491 -0.0762  0.1224
76135W        W76999  10.261  25.788  23.519 -0.0024  0.0377 -0.2517
76136W        W77000  18.320  11.747  15.235  0.2513  0.0655 -0.1874
76137W        W77001  18.485  15.108  26.902  0.1709 -0.0866  0.2479
76138W        W77002  23.099  22.671  16.760  0.0702  0.2281  0.0549
76139W        W77003  13.789   2.440   6.492  0.1076 -0.4716  0.1374
76140W        W77004  26.685   2.151   5.587 -0.2723  0.2244  0.0845
76141W        W77005   1.259  20.329   6.797  0.1797 -0.0975 -0.0303
76142W        W77006  23.787   0.104   7.601 -0.3886 -0.1613  0.0723
76143W        W77007  21.958  27.561   4.096 -0.0136 -0.2602  0.1098
76144W        W77008  29.107  23.776   4.139  0.2518  0.1432  0.2948
76145W        W77009   2.569  24.354  10.434 -0.0003 -0.1175  0.0192
76146W        W77010  17.243   0.920  13.008  0.0055  0.2154 -0.1570
76147W        W77011  25.151  18.968   0.705 -0.2681 -0.1695 -0.1695
76148W        W77012  17.487   4.336  16.912  0.2302 -0.0694  0.0997
76149W        W77013  26.709   3.815  24.458 -0.0203 -0.2225 -0.0472
76150W        W77014  16.820   7.761  13.925 -0.0322  0.1944 -0.0467
76151W        W77015  26.329  26.598  24.085  0.2332 -0.0482 -0.2653
76152W        W77016  23.452  22.274   2.941 -0.1361 -0.0039 -0.3907
76153W        W77017   0.621  21.805   3.987  0.2472 -0.0257  0.1563
76154W        W77018  13.710  19.432  20.765 -0.2593 -0.0541  0.1263
76155W        W77019  23.809  19.464  11.679  0.1918 -0.1656 -0.2385
76156W        W77020  28.221  27.227  24.800  0.1076  0.0074  0.1982
76157W        W77021  27.537  16.229  11.676  0.1771  0.3446 -0.0269
76158W        W77022  19.906  20.333   9.440  0.1972 -0.0794  0.0559
76159W        W77023   4.686  22.106  18.764 -0.0891  0.1216 -0.0166
76160W        W77024  14.086  25.846   5.509 -0.0906  0.4146  0.0410
76161W        W77025  17.686  14.399  23.174  0.0224  0.2865  0.2679
76162W        W77026   8.855   5.628  22.333 -0.1656 -0.0203  0.1939
76163W        W77027   8.762   9.794   1.407  0.1130  0.0396 -0.0375
76164W        W77028  24.259   7.642  23.983 -0.1328 -0.1883  0.0355
76165W        W77029   5.801  23.535  14.116  0.1180 -0.2002  0.0618
76166W        W77030  20.831   6.839   9.984 -0.1662 -0.0202  0.1404
76167W        W77031  26.676  11.799  20.833  0.0037 -0.0906 -0.1412
76168W        W77032  16.238  18.065  10.787  0.0660  0.2197 -0.0721
76169W        W77033   2.702  19.881  22.422 -0.0578  0.4897  0.1160
76170W        W77034   1.619  21.411  20.087  0.1108  0.0276 -0.2177
76171W        W77035  22.849  23.404   9.529  0.0333 -0.1071  0.0659
76172W        W77036  23.886   0.065  22.413 -0.0418  0.1930  0.2628
76173W        W77037  12.163  20.747   0.460  0.1962  0.1958 -0.0887
76174W        W77038  25.131  15.261   8.309  0.4785 -0.1677 -0.1822
76175W        W77039  26.342  25.561   4.770 -0.1744  0.0525  0.0360
76176W        W77040  15.756   1.344   2.763  0.1634 -0.2565 -0.3417
76177W        W77041  13.074  15.873  28.373 -0.1812  0.0775  0.0790
76178W        W77042  19.443   0.637   8.905  0.2864  0.0355 -0.2250
76179W        W77043  13.923  15.384  12.522 -0.3806 -0.2363 -0.0695
76180W        W77044  13.411   3.379  24.677  0.0726  0.2517  0.0422
76181W        W77045  18.881  15.645  13.081  0.1605  0.0147  0.1809
76182W        W77046   4.779  27.468   0.390 -0.1002  0.1751  0.1875
76183W        W77047   4.795  13.150  16.087 -0.1636  0.1480 -0.0640
76184W        W77048  23.015  24.953   6.858  0.0330  0.3073 -0.3119
76185W        W77049  25.310  23.927   4.718  0.3564  0.2273  0.4801
76186W        W77050  13.182  16.849  17.394  0.0078  0.0908 -0.1554
76187W        W77051  27.267  27.332  11.752  0.2185 -0.0559  0.1625
76188W        W77052  22.465  25.601  21.579  0.0951  0.0509 -0.2333
76189W        W77053   6.614  23.040   0.564  0.0152 -0.1587 -0.0129
76190W        W77054  15.864   7.103  20.310 -0.1668  0.0135  0.2864
76191W        W77055  21.737  24.298  23.722 -0.2567  0.0640  0.1070
76192W        W77056  22.454   1.999  24.382 -0.0071  0.1632 -0.0958
76193W        W77057  21.607  22.374  28.077 -0.4027 -0.0070  0.0890
76194W        W77058  13.319  14.505  16.498  0.1000  0.0624  0.2990
76195W        W77059  23.751  16.289   4.113  0.3971 -0.0032  0.0076
76196W        W77060  15.086  15.511  24.114  0.3574 -0.1027 -0.1825
76197W        W77061   8.899  11.506  13.178 -0.0778  0.2120  0.0444
76198W        W77062  18.515   7.145  11.503 -0.1429 -0.2282  0.3667
76199W        W77063   0.470  22.396   6.047 -0.1910 -0.2132 -0.1756
76200W        W77064  22.640   1.799   3.127  0.2740 -0.1464 -0.1475
76201W        W77065  16.457   7.172  11.148  0.2216  0.2902  0.1586
76202W        W77066   3.430  15.654   9.330  0.0115  0.0986  0.1286
76203W        W77067   4.286  20.729  22.421  0.1732  0.1325  0.1470
76204W        W77068   3.282  17.196   9.991  0.1168  0.0316  0.1628
76205W        W77069  20.401   0.812   7.982  0.2644 -0.4256  0.2607
76206W        W77070  20.825  13.657  10.402 -0.0895 -0.2236 -0.2341
76207W        W77071  24.656  11.031  22.029 -0.1863  0.3481 -0.1744
76208W        W77072  24.187  29.068  26.060  0.4292 -0.1941 -0.2609
76209W        W77073   3.744   8.441   5.495 -0.1852  0.0034  0.2493
76210W        W77074  23.625   9.365  17.734  0.0536  0.0156 -0.0444
76211W        W77075  13.993   0.992   5.237 -0.0098  0.2295 -0.0385
76212W        W77076  23.196  20.152  21.924  0.1694 -0.1189  0.1084
76213W        W77077  23.069  19.945   5.753  0.1518  0.1770 -0.0655
76214W        W77078   2.840   9.591   0.705  0.4805  0.0200  0.1745
76215W        W77079   9.999  27.971  26.812 -0.2431  0.1908 -0.1992
76216W        W77080   7.778  18.449   6.973  0.1598  0.1424  0.0562
76217W        W77081  25.321   3.207  27.837  0.0213  0.0455  0.2165
76218W        W77082  22.331  28.199  26.555  0.1822 -0.1748  0.0205
76219W        W77083  18.064   5.058  15.299 -0.1289 -0.2877 -0.1585
76220W        W77084   5.034  13.004   5.614  0.1030 -0.4052 -0.0020
76221W        W77085   4.078   5.628  20.163  0.0922  0.0164 -0.0197
76222W        W77086  21.303   1.866   2.215 -0.3621 -0.2196  0.1329
76223W        W77087   5.540  11.543  17.652  0.2705  0.3567  0.1187
76224W        W77088   2.132   4.339   9.371  0.2842 -0.1680 -0.1985
76225W        W77089   1.946  15.498   3.743 -0.0999  0.1084 -0.0875
76226W        W77090  18.593   1.015   4.555  0.0654 -0.1020 -0.2671
76227W        W77091  26.426   5.958   6.870 -0.0587  0.0730  0.2829
76228W        W77092  14.632   9.316  13.701  0.0010 -0.0042  0.0161
76229W        W77093  20.619  18.783  25.527 -0.0395  0.0362 -0.2492
76230W        W77094  24.308  28.651   1.223  0.0755 -0.0026 -0.2257
76231W        W77095   3.883  28.174  15.734  0.1406  0.0246  0.0211
76232W        W77096  20.106  22.974   1.359  0.3382 -0.3615  0.2530
76233W        W77097  21.546  24.348  25.284  0.3663  0.0204  0.0097
76234W        W77098  24.588   8.311  19.597 -0.0925  0.1851 -0.0799
76235W        W77099  12.261   1.138  20.542 -0.0212 -0.1534 -0.0094
76236W        W77100  15.974   6.520   5.877  0.0319 -0.3125 -0.0005
76237W        W77101   0.677  25.409  13.738 -0.2672  0.2463 -0.0101
76238W        W77102  21.099  16.774   0.300 -0.0244  0.1279 -0.0114
76239W        W77103  19.690   8.691   6.267  0.0171  0.0424  0.1361
76240W        W77104  26.607   6.774   9.389 -0.1626  0.0023  0.0155
76241W        W77105  21.607  25.756   3.188  0.1110 -0.0088  0.3705
76242W        W77106  19.368  26.629  27.582  0.1104  0.0586  0.0478
76243W        W77107  28.414  21.948  20.619 -0.0830  0.2568  0.0063
76244W        W77108  15.881  12.904   8.637  0.2380  0.0874  0.0689
76245W        W77109   0.212   4.522  18.442 -0.0754  0.2018 -0.1566
76246W        W77110   1.245   2.121  28.783  0.2006 -0.1226 -0.0032
76247W        W77111  26.785  20.927   4.509 -0.0045 -0.3486  0.3570
76248W        W77112   0.209  18.098  25.876 -0.4116  0.0435  0.1492
76249W        W77113   5.756  25.809   5.239 -0.0910 -0.1258 -0.0627
76250W        W77114   1.600   4.395   4.625  0.4515 -0.1394  0.1945
76251W        W77115  17.578   2.904  26.987  0.0111 -0.0600 -0.0038
76252W        W77116  25.997  26.304   8.480  0.1546  0.0491  0.1302
76253W        W77117   3.739   1.549   0.406  0.1208 -0.1757  0.0795
76254W        W77118   7.362   7.726   0.215  0.0753 -0.0529  0.1428
76255W        W77119  16.872  11.717  27.470  0.3273  0.0341 -0.2683
76256W        W77120  27.242   0.324   4.575 -0.0811 -0.0483  0.0181
76257W        W77121  15.092   5.185  25.392  0.1271  0.0895 -0.0663
76258W        W77122   1.848  16.122  21.012 -0.1180  0.1604  0.0927
76259W        W77123   1.775  17.811   4.049  0.2096 -0.0540 -0.0648
76260W        W77124  27.254  14.464  20.958  0.2791 -0.0977  0.0131
76261W        W77125  11.537  19.534   1.573 -0.0853  0.2563 -0.0069
76262W        W77126  23.254  21.929  12.121 -0.2479  0.2594  0.0009
76263W        W77127   6.023  24.351  25.065  0.0326  0.1698 -0.0634
76264W        W77128   4.854  17.504  10.556  0.0674  0.0345  0.1353
76265W        W77129  10.801   6.480   7.023  0.0495  0.0896  0.0995
76266W        W77130   2.692   4.714   5.830  0.1834 -0.1066  0.0032
76267W        W77131  23.259   9.814  10.546  0.1970  0.0323 -0.0071
76268W        W77132  18.170  19.608  24.993  0.1325 -0.2689 -0.0334
76269W        W77133  28.416  17.341  22.846  0.0840  0.0928 -0.3065
76270W        W77134   1.256   3.783  25.535 -0.1591 -0.1306 -0.2131
76271W        W77135  19.650  25.269   3.296  0.1939  0.1331 -0.3216
76272W        W77136   4.786  21.015   0.383  0.0231  0.1130  0.1139
76273W        W77137  15.423  16.560   6.964  0.1170 -0.1028 -0.2221
76274W        W77138   2.099  27.019  26.495 -0.0248  0.2236  0.2226
76275W        W77139   1.565  27.208   7.481 -0.0574  0.2008  0.0232
76276W        W77140  13.947  10.716   6.183 -0.2082  0.2661 -0.0894
76277W        W77141   6.572   9.371  12.642 -0.1169 -0.0475  0.0857
76278W        W77142  20.874  13.036  17.205 -0.1014  0.1219 -0.1554
76279W        W77143   7.171   1.718  27.147 -0.0656  0.0168  0.1925
76280W        W77144  17.656  14.281  17.985  0.1442  0.0165 -0.2011
76281W        W77145  18.225   4.053   6.639 -0.1140  0.0708 -0.0186
76282W        W77146  22.796  26.585  23.546  0.0200 -0.0689  0.1725
76283W        W77147   1.388  26.458  17.201  0.1667  0.2865  0.1196
76284W        W77148   0.900  20.849  21.435 -0.0193 -0.0616 -0.0951
76285W        W77149  10.334  28.232  12.590  0.1648 -0.2307  0.0136
76286W        W77150  13.368  19.557   6.777  0.0351 -0.3431  0.0045
76287W        W77151  25.910  26.454  27.879  0.1968 -0.1506  0.1733
76288W        W77152  15.632  13.815  27.584 -0.1889 -0.1868 -0.2323
76289W        W77153  12.187  24.255   2.262 -0.0187  0.0016  0.0648
76290W        W77154  21.909   5.499  27.619 -0.1906  0.3156 -0.0316
76291W        W77155   6.335   4.671  13.408 -0.4586  0.0626 -0.0756
76292W        W77156  26.593   8.336   3.377  0.1752 -0.0053  0.0037
76293W        W77157  19.840  11.206   7.116  0.1776 -0.0395  0.1028
76294W        W77158  20.532  11.060  22.705  0.1911  0.2105  0.5227
76295W        W77159  14.642   3.707   5.297  0.1498 -0.0192  0.0158
76296W        W77160  18.820  10.509   2.202  0.0477 -0.4349  0.0496
76297W        W77161  23.353  21.052  10.839  0.0437  0.0242  0.2326
76298W        W77162  14.224  21.465   6.302 -0.0754 -0.0802 -0.0999
76299W        W77163  13.868  24.656  22.876  0.2990  0.4634  0.5087
76300W        W77164  20.414  24.183  11.956 -0.0435  0.0084 -0.0821
76301W        W77165  17.609  24.877   6.183  0.1408 -0.0025 -0.0531
76302W        W77166   1.984  16.515  25.445  0.0735 -0.2428  0.0910
76303W        W77167   3.445   0.146  17.710 -0.0947  0.0635  0.2594
76304W        W77168   0.258   5.669  19.029  0.1347  0.2860 -0.0024
76305W        W77169   2.005  24.064   1.335 -0.1531 -0.2055 -0.1033
76306W        W77170  24.411  12.731  12.417 -0.1819  0.0492 -0.1366
76307W        W77171  22.182   6.542  23.490  0.2581 -0.1459  0.0496
76308W        W77172  18.445  12.399   4.265  0.1787  0.1125 -0.2499
76309W        W77173   0.550  16.393   2.613 -0.1739 -0.0127  0.2041
76310W        W77174  18.209  25.262   3.148 -0.0251  0.2095  0.0596
76311W        W77175   3.487  16.011  26.946 -0.1518 -0.2876 -0.0489
76312W        W77176  27.230   9.005  14.500 -0.0213 -0.0568  0.0278
76313W        W77177   3.887   3.671  15.357 -0.3982 -0.1353 -0.1311
76314W        W77178  16.300  26.285  20.237  0.3873  0.1320  0.2324
76315W        W77179  12.389   1.593  14.316 -0.4629 -0.0311  0.0780
76316W        W77180  17.768   4.932   2.510  0.1132 -0.0668 -0.1957
76317W        W77181  23.517  20.847   9.882 -0.1641 -0.1671 -0.3875
76318W        W77182   9.074  12.829   9.643 -0.0458 -0.0955 -0.0097
76319W        W77183  28.436  12.884   8.887 -0.0687 -0.3066 -0.0287
76320W        W77184  21.780  28.372  26.471  0.1594  0.2551 -0.1237
76321W        W77185  27.711   9.928   9.754 -0.1160 -0.1557 -0.1562
76322W        W77186   2.057  14.934  27.210  0.1500  0.1462 -0.0762
76323W        W77187  17.143  18.899   2.830 -0.0421 -0.3030 -0.2447
76324W        W77188   7.135  28.204   5.151  0.0275 -0.1734  0.1039
76325W        W77189  18.254   6.170  17.730 -0.0562  0.2587  0.1952
76326W        W77190  22.297  22.539   0.747 -0.2115  0.1037 -0.1144
76327W        W77191  25.996  26.478   7.281  0.2222 -0.3482 -0.2705
76328W        W77192   7.478  12.923   4.786  0.1589  0.1319 -0.0871
76329W        W77193  16.739  15.947  20.713  0.0792  0.0772 -0.1217
76330W        W77194   9.391   0.752   4.099 -0.1391 -0.2119 -0.3340
76331W        W77195   2.178  21.664   1.322  0.1055  0.1136  0.1770
76332W        W77196   9.226  27.432  13.457  0.0619 -0.0161  0.0092
76333W        W77197   3.001  20.732  27.880  0.0864 -0.6757 -0.0746
76334W        W77198   9.343  23.255  19.159  0.1464 -0.3150 -0.0992
76335W        W77199  10.101  16.782  24.923  0.0158 -0.0802  0.1970
76336W        W77200   0.234  11.001  10.176  0.1162 -0.1532  0.0992
76337W        W77201   5.422   4.410  14.008  0.3956 -0.0170  0.0119
76338W        W77202   5.898   7.862  27.877 -0.1230 -0.0838  0.0728
76339W        W77203  25.291  26.527  22.094 -0.0334 -0.2341  0.1392
76340W        W77204  12.306   9.369  17.825  0.0165 -0.1603  0.3209
76341W        W77205   8.752  29.073  10.255 -0.2814  0.2335  0.0097
76342W        W77206  11.821   4.388  28.474  0.2032 -0.2667 -0.1225
76343W        W77207  11.955  19.252   2.298  0.0996  0.1685  0.1320
76344W        W77208  23.693   1.936   1.730  0.2611 -0.1207 -0.1233
76345W        W77209   0.290  22.183  10.523 -0.0792 -0.2458  0.5311
76346W        W77210  19.140   2.948  12.128 -0.0071 -0.0063  0.0067
76347W        W77211  17.936  14.963   6.482 -0.0793  0.2388 -0.3151
76348W        W77212  21.725   7.071   3.097 -0.0724 -0.1337  0.0356
76349W        W77213  10.378   2.703  27.908  0.1481  0.0773 -0.1216
76350W        W77214  22.269  21.273   1.140 -0.1069 -0.2370  0.1523
76351W        W77215   7.134  15.396   0.366 -0.0974 -0.1541 -0.1684
76352W        W77216  18.292   2.462   0.471  0.2160 -0.1234 -0.1309
76353W        W77217  24.440   0.666   5.238 -0.1376  0.1725 -0.2047
76354W        W77218  19.356  24.046  10.476  0.1342 -0.1525 -0.0371
76355W        W77219  23.304  21.037   7.906  0.0870 -0.0104 -0.2644
76356W        W77220  28.345   5.093   5.087 -0.0760  0.2940 -0.1244
76357W        W77221  17.429  19.614  23.735  0.5451  0.2199  0.0299
76358W        W77222  20.011  16.761  17.320 -0.0442 -0.2059 -0.1018
76359W        W77223  13.663  21.441  15.325 -0.0601 -0.4230  0.2164
76360W        W77224  10.649  18.542   6.140  0.1234 -0.3194 -0.0975
76361W        W77225   9.466  10.869  15.669 -0.1359  0.3189  0.0649
76362W        W77226  17.658  11.547  28.234  0.2822 -0.1881  0.1534
76363W        W77227  23.659   4.314   6.457  0.0200  0.2339 -0.1044
76364W        W77228  11.262  10.819   7.535  0.0238 -0.2366 -0.1470
76365W        W77229  22.774   6.098  27.763  0.1135  0.0238 -0.2283
76366W        W77230   8.769   5.468  17.047  0.0552  0.3098 -0.4355
76367W        W77231  26.581  16.310  25.972  0.2186  0.3620 -0.3649
76368W        W77232  24.111  28.049   2.315 -0.0095  0.4569  0.2128
76369W        W77233  28.382   1.414   4.628  0.2086 -0.1493 -0.0094
76370W        W77234   0.773   8.964  24.713  0.4050  0.1648 -0.0868
76371W        W77235  26.717   2.138   0.826  0.1186  0.4421 -0.0788
76372W        W77236  28.666  12.146   0.532  0.2351 -0.1915  0.0558
76373W        W77237  22.417  16.716  25.393 -0.2034 -0.0165  0.1334
76374W        W77238  23.191  13.009   8.065 -0.1214  0.1851  0.1092
76375W        W77239   2.184  28.193  20.571  0.0595 -0.0486  0.1276
76376W        W77240  21.353   5.635  24.036  0.0787 -0.0929  0.1419
76377W        W77241  12.710  18.822   0.508  0.1621  0.0020 -0.0344
76378W        W77242  18.080   0.758  11.592 -0.2777  0.0331  0.3529
76379W        W77243  19.847   8.119  28.520  0.0456 -0.1204 -0.2629
76380W        W77244  14.309  23.096   0.539  0.0332 -0.2990 -0.0418
76381W        W77245  21.843  23.769  25.055 -0.2136 -0.0367  0.0450
76382W        W77246  24.835   0.812   3.204 -0.0311 -0.0634 -0.0017
76383W        W77247  25.793  13.323  14.812  0.2698 -0.3250 -0.2380
76384W        W77248  19.280   5.679  11.803  0.0396  0.0337 -0.0511
76385W        W77249  20.320  15.630  11.524 -0.3482 -0.1329 -0.2047
76386W        W77250   3.341  10.220  28.152 -0.3468 -0.1382  0.1811
76387W        W77251   7.616  13.825  14.690 -0.0860 -0.0099  0.0784
76388W        W77252   7.383  20.870  22.960  0.0302  0.0152  0.2016
76389W        W77253   0.589  28.436   6.053  0.3247 -0.2264 -0.2425
76390W        W77254  25.695  20.873   4.460 -0.2474  0.1243 -0.3145
76391W        W77255   1.006  21.069  28.495 -0.0295  0.3364  0.4315
76392W        W77256   2.705  27.092   9.732  0.0250  0.0245  0.2344
76393W        W77257  16.467  18.279   8.714 -0.0729 -0.1321  0.2720
76394W        W77258  25.941  22.572  20.887  0.0536 -0.0657  0.0878
76395W        W77259  26.433   6.084  17.159  0.0695  0.3344  0.2050
76396W        W77260  19.527   1.802   2.885  0.1164 -0.0564  0.0923
76397W        W77261   4.631  11.228  10.565  0.1426 -0.1165 -0.1825
76398W        W77262  12.869   0.925   2.938 -0.0941  0.2070 -0.1382
76399W        W77263   7.212   1.474  23.918 -0.0537 -0.4218  0.1628
76400W        W77264   0.244   5.054   7.427 -0.0516  0.2038 -0.0443
76401W        W77265   2.154   4.007  28.662  0.0663  0.4914 -0.1809
76402W        W77266  17.465   0.288  19.751 -0.1550  0.0955  0.0330
76403W        W77267  25.205   2.288   0.883  0.0073  0.3374  0.0676
76404W        W77268   9.152  23.835   6.078 -0.1952 -0.1592  0.0685
76405W        W77269  18.829  19.955   4.154 -0.1718  0.5644  0.0068
76406W        W77270   7.808  28.866  22.167  0.1068 -0.1805 -0.2476
76407W        W77271  16.199  27.076  15.545 -0.4155 -0.0910  0.6645
76408W        W77272  25.838  26.811  10.076  0.0334 -0.0605 -0.0740
76409W        W77273   4.890   1.875  28.939  0.4591  0.1278  0.0861
76410W        W77274   4.151   1.772  21.977 -0.0557  0.1741  0.1247
76411W        W77275  28.102  15.393   5.637 -0.0168 -0.1632  0.1156
76412W        W77276  27.428  22.262  26.657  0.5026  0.4155 -0.0433
76413W        W77277   1.800   2.603   5.333  0.1547 -0.2825 -0.0017
76414W        W77278  19.241   3.454   4.804  0.1302  0.1107 -0.0479
76415W        W77279  10.398  18.560  28.223  0.1143  0.0937 -0.0733
76416W        W77280  21.558   2.050  15.129 -0.1992  0.4142 -0.0735
76417W        W77281   6.049  25.749  14.831  0.1897 -0.2015  0.1213
76418W        W77282  24.334  28.665   0.072  0.0924  0.0768  0.1086
76419W        W77283   9.027   2.852  25.209 -0.0893 -0.2399  0.1503
76420W        W77284  12.177   6.494   4.890  0.0482  0.1373  0.0076
76421W        W77285  24.991   5.343  14.054 -0.0925 -0.1810 -0.1886
76422W        W77286   0.902  15.121   3.301  0.3758 -0.0366 -0.1546
76423W        W77287  29.107  11.301   1.402 -0.3211  0.0678  0.0265
76424W        W77288  25.496   3.042   9.529  0.0781 -0.1007 -0.0328
76425W        W77289  22.513  25.421   3.390  0.2710  0.1052  0.1088
76426W        W77290   8.536   7.962  22.466 -0.0241 -0.0613 -0.3497
76427W        W77291  20.926  21.388   0.925  0.4267  0.2193  0.0275
76428W        W77292  24.045  25.920  15.715 -0.0685  0.2127 -0.2219
76429W        W77293   2.836  23.536  27.672  0.1139  0.1282  0.0754
76430W        W77294  22.917  20.000  20.531 -0.2223 -0.4849 -0.1178
76431W        W77295  25.268   3.732  12.464  0.0554  0.1441  0.2107
76432W        W77296   1.603   2.934  10.791 -0.1510  0.1528  0.0596
76433W        W77297   6.850  23.790  18.355 -0.1098  0.0540 -0.2625
76434W        W77298  19.286  20.019  20.992  0.0801  0.0592  0.0902
76435W        W77299   9.816  16.976  10.649 -0.1278  0.1640  0.0594
76436W        W77300   6.740  19.061   5.053 -0.1639 -0.2708 -0.1574
76437W        W77301  27.925   4.316   5.805 -0.2926 -0.0082 -0.0623
76438W        W77302  13.381   1.307  17.988 -0.1396  0.1172  0.2606
76439W        W77303  25.511  27.751  13.642  0.4942 -0.5001 -0.2126
76440W        W77304  25.684  19.818   1.351 -0.1418 -0.0476  0.0120
76441W        W77305  21.825  25.087  11.931 -0.2259  0.0196  0.0518
76442W        W77306   4.381  17.669   8.874  0.1170  0.2395 -0.2326
76443W        W77307  22.726  21.869   3.955 -0.1771 -0.0259 -0.2799
76444W        W77308   1.381  13.564   2.305 -0.1304 -0.1965  0.0321
76445W        W77309  19.564  10.500   1.409  0.1349  0.0337  0.0493
76446W        W77310  24.522   1.295   1.106 -0.1234 -0.1359  0.3239
76447W        W77311   5.151   0.632   6.190  0.3113  0.0854 -0.1283
76448W        W77312  26.668  25.149   0.257  0.4543  0.0048  0.1293
76449W        W77313   7.319   2.634  27.139 -0.1417  0.0681  0.0313
76450W        W77314   7.972  11.201   1.933  0.2483  0.0243 -0.0453
76451W        W77315  22.476   4.391  24.438 -0.1516  0.1096 -0.1451
76452W        W77316  11.414   2.374  14.341 -0.2368 -0.0981 -0.1955
76453W        W77317  20.479  19.011  28.842 -0.1344  0.1544  0.2826
76454W        W77318  15.775   9.281   8.852 -0.3838  0.0504  0.2316
76455W        W77319   0.957   4.051   7.720  0.0068 -0.1011  0.0673
76456W        W77320  13.406  25.678   2.732 -0.0986 -0.1471 -0.1426
76457W        W77321  23.185   6.092  24.930 -0.0549 -0.4662  0.0819
76458W        W77322  16.551   6.614   5.285 -0.2216 -0.0087  0.2507
76459W        W77323  18.215  20.924   4.206  0.0181 -0.0281 -0.1016
76460W        W77324  21.142  25.856   7.972 -0.0784  0.1208  0.1127
76461W        W77325  22.057   0.407   6.144  0.0671  0.1229 -0.0020
76462W        W77326  20.193  26.228  24.199 -0.1038 -0.0874 -0.1821
76463W        W77327  11.055  25.050  20.887 -0.0090  0.0790 -0.1746
76464W        W77328   9.936  17.700  19.785 -0.2862 -0.1406 -0.1608
76465W        W77329   0.810   2.833   0.057 -0.1551  0.0874 -0.1762
76466W        W77330   5.075  11.397  11.493  0.2159 -0.1254  0.0078
76467W        W77331  13.286  26.744  19.361  0.2187 -0.1394  0.1386
76468W        W77332  14.647  14.746   3.956  0.1410  0.1745 -0.0807
76469W        W77333  18.325  15.031  27.429 -0.0119 -0.0495 -0.0549
76470W        W77334   6.703  16.811  28.919  0.2081  0.1983 -0.0647
76471W        W77335  21.243   8.215  24.876 -0.0940  0.1643 -0.0412
76472W        W77336  28.114   7.172  29.008  0.1029 -0.4008  0.0690
76473W        W77337   0.715  12.224  25.753 -0.0078 -0.2954  0.1853
76474W        W77338   6.626  14.296  11.046 -0.1405 -0.0921  0.0755
76475W        W77339   9.191  25.084   9.514  0.1776 -0.0187 -0.2308
76476W        W77340  21.791  27.714  17.405 -0.0657  0.3148 -0.2665
76477W        W77341   5.704  12.064  26.719 -0.1574 -0.0228  0.2360
76478W        W77342  24.559   8.344   6.680  0.0741 -0.0297  0.1112
76479W        W77343  15.511  26.593   6.490 -0.1020 -0.0566 -0.0637
76480W        W77344  10.827  26.028  21.256  0.1404  0.2242  0.0969
76481W        W77345  28.636   3.107   6.843  0.1708 -0.0929 -0.3499
76482W        W77346   2.834  18.807   7.802 -0.0715 -0.0641  0.1202
76483W        W77347   2.928  19.157   8.283 -0.0093 -0.2325  0.2332
76484W        W77348  15.550   4.980   5.160  0.1716  0.1945 -0.2130
76485W        W77349  15.135   0.517  26.772 -0.1120  0.2354 -0.3796
76486W        W77350   5.244   5.419  23.045 -0.0245 -0.1135 -0.0584
76487W        W77351   2.723  26.113  22.080  0.0693 -0.0304 -0.1046
76488W        W77352  25.505   1.210  20.949 -0.1547 -0.4796  0.0922
76489W        W77353   0.755  28.383  26.031 -0.1367  0.0372 -0.0388
76490W        W77354  18.504  25.881   2.198  0.1791  0.3141 -0.1758
76491W        W77355  19.598  25.481  17.112  0.4373 -0.0476 -0.4236
76492W        W77356  27.402  18.899   7.497  0.2477  0.1038 -0.0814
76493W        W77357  15.545  10.639  15.330 -0.2147 -0.1706  0.0775
76494W        W77358   7.458  19.331  25.050  0.0856  0.1387 -0.3665
76495W        W77359  26.153  22.514  20.386  0.1719 -0.3001  0.0062
76496W        W77360  18.377   6.404   3.261 -0.0579 -0.0966  0.2850
76497W        W77361  24.707  27.553  11.222  0.2689  0.2023 -0.1623
76498W        W77362  26.982  11.227   9.690 -0.0003 -0.1722  0.4838
76499W        W77363  18.059  12.984  25.572  0.0366  0.0524  0.2179
76500W        W77364  18.490  20.021  19.715 -0.0664 -0.0457  0.0680
76501W        W77365  18.234  24.869  20.462  0.1522  0.1861 -0.1507
76502W        W77366  23.027  19.714  12.910 -0.1477  0.0441 -0.0288
76503W        W77367  12.386   9.777  14.785  0.3066  0.1265  0.0123
76504W        W77368   8.092  15.522   8.909 -0.3767  0.0877  0.0247
76505W        W77369   1.743   2.610  21.505 -0.0974 -0.2883  0.0581
76506W        W77370  12.216  11.037  28.652 -0.1173 -0.0814  0.1218
76507W        W77371  10.879  11.697  27.791 -0.1585  0.3199  0.0067
76508W        W77372   8.565   1.615  17.276  0.2978 -0.0700  0.3666
76509W        W77373  21.310  15.786  28.856  0.1238  0.3109  0.0392
76510W        W77374  24.950   6.674   0.755 -0.2452 -0.2895  0.1227
76511W        W77375  12.936  11.424  26.800 -0.3632  0.2936 -0.2784
76512W        W77376  23.169  21.638  17.931  0.1780 -0.2181  0.1988
76513W        W77377  26.778  21.193  21.401 -0.3627  0.1457  0.0935
76514W        W77378  23.309   2.470   9.370 -0.0255  0.0708 -0.0507
76515W        W77379  12.135  21.427   0.023 -0.1739 -0.3055  0.0866
76516W        W77380   1.509   2.127  25.704 -0.1750 -0.1109 -0.2042
76517W        W77381  20.151  19.880  15.136  0.1274 -0.1669 -0.0458
76518W        W77382  24.607   7.440  13.010 -0.2568 -0.0889  0.3231
76519W        W77383  10.486  17.153  26.080  0.2256  0.3565 -0.0817
76520W        W77384  20.505   2.878  18.799  0.0139 -0.1236 -0.0713
76521W        W77385  21.227   6.703  20.514 -0.3111  0.1735 -0.1092
76522W        W77386   3.480  28.335  20.712  0.2853  0.0534  0.0497
76523W        W77387  11.652   9.279   8.296  0.1937 -0.2642 -0.1670
76524W        W77388  25.906  11.132   1.907 -0.2839 -0.3695 -0.0448
76525W        W77389  25.546   2.015   3.507 -0.1286  0.1531 -0.1218
76526W        W77390  23.583  23.042   8.973  0.0099  0.0880  0.1018
76527W        W77391  24.355  12.480  11.929 -0.2008 -0.1230  0.0281
76528W        W77392  23.785  22.067   0.412  0.1089 -0.0419  0.1449
76529W        W77393   2.221  22.206  27.818  0.2009  0.1184  0.1184
76530W        W77394  15.724   2.259   0.865  0.4952  0.5221  0.1524
76531W        W77395   7.902   4.243  25.410  0.0627 -0.4482  0.0622
76532W        W77396  13.785  15.297   7.890  0.0821  0.0510 -0.1193
76533W        W77397  20.799  24.776   2.182  0.1194  0.1260  0.2749
76534W        W77398   3.574  10.603  28.882  0.0938 -0.1769 -0.0448
76535W        W77399  26.457   5.968   1.573 -0.4860 -0.0677 -0.2704
76536W        W77400   8.595  20.121  28.061  0.0896 -0.0414  0.1375
76537W        W77401  21.032   4.901   2.816  0.0911 -0.0158 -0.4128
76538W        W77402  16.972  20.984  26.960  0.1754 -0.4175  0.1404
76539W        W77403  11.342  16.572  21.751 -0.4385  0.0521 -0.2336
76540W        W77404   1.854   8.178   2.032  0.0174 -0.2126 -0.2389
76541W        W77405  13.709  25.925   8.996 -0.2945 -0.0776 -0.1617
76542W        W77406  20.269   3.838  14.640 -0.1313  0.0345 -0.0414
76543W        W77407  16.270   4.348  10.026 -0.0964 -0.1780 -0.2973
76544W        W77408   2.170  14.611  28.805 -0.1153 -0.0635 -0.0875
76545W        W77409  12.289  25.709   4.732  0.1417 -0.0435 -0.0534
76546W        W77410  19.016  17.333  15.618  0.1106  0.0612  0.0060
76547W        W77411  14.296   8.311   8.100 -0.1223 -0.1447  0.3304
76548W        W77412  25.381  23.560   3.989 -0.2076  0.1915  0.0845
76549W        W77413  13.957  23.550  20.378 -0.0121 -0.0835 -0.1145
76550W        W77414  11.694  15.292  27.864 -0.1726  0.0709 -0.1535
76551W        W77415   1.623  14.372  10.049 -0.3706 -0.1742  0.0420
76552W        W77416  18.031  27.181   2.147 -0.1367 -0.1407  0.1990
76553W        W77417  14.703  17.419   4.383  0.0380 -0.0524 -0.4589
76554W        W77418  14.196   8.764  14.881  0.3011  0.1755 -0.0153
76555W        W77419  19.000  21.751   0.728 -0.0444 -0.0800 -0.1755
76556W        W77420   9.077   8.316  21.666  0.0749 -0.0977 -0.0757
76557W        W77421  29.051   6.523   3.004 -0.1409 -0.0326 -0.1454
76558W        W77422   7.818   8.670   4.026  0.0098  0.2154  0.4430
76559W        W77423  22.575   7.798  20.643  0.0730  0.0187 -0.1380
76560W        W77424   0.045  15.088  10.759  0.1225 -0.3571 -0.1121
76561W        W77425   9.979   4.985  10.667 -0.1447  0.1832  0.2516
76562W        W77426  23.590  21.911  25.043 -0.0486 -0.0180 -0.0503
76563W        W77427   3.084   5.050  14.128  0.1046  0.0318  0.2716
76564W        W77428   1.182  27.876  16.189  0.1148  0.0114 -0.1184
76565W        W77429  28.569  14.529   1.002  0.3775 -0.1631  0.2798
76566W        W77430  22.194  21.584   8.036  0.0524 -0.2467 -0.2275
76567W        W77431  15.621  26.619   7.491 -0.4344  0.0666 -0.1410
76568W        W77432  11.010   1.415  10.722 -0.2086  0.1114 -0.2033
76569W        W77433   0.612  23.618   3.905 -0.0338 -0.1695 -0.1268
76570W        W77434  23.542  28.892  24.118 -0.0100  0.1499  0.0133
76571W        W77435   9.554  23.873   6.707 -0.2155  0.1263  0.0933
76572W        W77436  19.540  21.863  17.276 -0.2117  0.1624 -0.1641
76573W        W77437  18.639   3.984  26.354 -0.4273 -0.0482 -0.0439
76574W        W77438  22.391   8.624  28.876  0.0435  0.0393  0.3427
76575W        W77439  17.237   4.843  16.674  0.2177  0.0408 -0.2502
76576W        W77440   2.807  18.292   7.646 -0.0348  0.0650 -0.2350
76577W        W77441   6.837   9.682   4.054 -0.1956  0.1351 -0.3197
76578W        W77442  28.926   2.207   0.867 -0.4529 -0.1061  0.0315
76579W        W77443  20.565   4.475  10.700  0.0859 -0.0141  0.1422
76580W        W77444  22.378  23.713  27.515 -0.0915  0.0329 -0.0420
76581W        W77445  28.713   4.502  19.391  0.0647 -0.2851 -0.1472
76582W        W77446   1.341   3.973   4.124 -0.1515 -0.1655 -0.1175
76583W        W77447  23.755   3.147   7.787 -0.0048  0.2394  0.1717
76584W        W77448  28.640  21.339  22.588 -0.0872 -0.1542  0.0515
76585W        W77449  23.226   4.446  14.264  0.3666  0.0236  0.0121
76586W        W77450  15.379   0.959  11.922 -0.1721  0.0800  0.1640
76587W        W77451  28.796   2.392  10.070 -0.2315 -0.0032 -0.0031
76588W        W77452  25.562  27.557   3.418  0.0723 -0.1496 -0.3660
76589W        W77453  14.197  25.779   2.503 -0.1602  0.2368 -0.4643
76590W        W77454   6.217  25.624  24.710 -0.0036 -0.2478  0.0686
76591W        W77455   5.293   6.584   6.660  0.0087 -0.0203 -0.1699
76592W        W77456  10.371   0.406   4.177 -0.3886  0.3873  0.0371
76593W        W77457  10.033  25.242  28.464  0.1072  0.1384 -0.0915
76594W        W77458  15.509  27.984  21.713  0.1767 -0.0998  0.0359
76595W        W77459   1.097   4.161  15.275  0.0780 -0.2665  0.3106
76596W        W77460   2.320  27.740  26.032  0.0392  0.0101 -0.1900
76597W        W77461  25.720  13.098   1.659  0.3531  0.1661  0.1529
76598W        W77462  20.034   2.557   2.854 -0.1231  0.0405  0.2534
76599W        W77463  25.051   9.934   9.243 -0.2861  0.1092 -0.2137
76600W        W77464  10.639   6.439  12.178  0.0102  0.1060  0.0553
76601W        W77465   4.074  26.188  11.333  0.3255 -0.1890  0.1905
76602W        W77466  27.108  21.636  28.397 -0.0369  0.0267  0.0490
76603W        W77467  19.988  20.716   2.598 -0.0973 -0.0034 -0.0188
76604W        W77468  15.497  26.443  26.008 -0.0106 -0.0558  0.0499
76605W        W77469  26.508  27.551   8.790  0.0192 -0.0816  0.0766
76606W        W77470  17.965  26.318  26.104  0.0815  0.3112  0.0458
76607W        W77471  26.545   3.536   6.714 -0.1622 -0.1666 -0.1473
76608W        W77472  28.329   9.305   4.944  0.5813  0.1515  0.0658
76609W        W77473  25.350  11.713  11.499  0.1485 -0.1505 -0.0490
76610W        W77474  23.576   0.473   8.916 -0.3169 -0.1628 -0.0808
76611W        W77475  13.892  18.692  25.171  0.2029  0.1051  0.1657
76612W        W77476  12.388  13.292  11.576 -0.1728  0.1330 -0.1214
76613W        W77477  26.052  18.245  14.097  0.3267 -0.2880  0.2033
76614W        W77478  21.520  18.184  15.308 -0.1134  0.3051 -0.3557
76615W        W77479  25.416   5.161   0.148 -0.1911 -0.1877 -0.0783
76616W        W77480   5.481  11.651   0.565  0.1515  0.2633  0.0323
76617W        W77481  18.881  11.990   8.227  0.0313 -0.2409  0.0634
76618W        W77482  15.974   4.808  21.332  0.0749  0.0310  0.1128
76619W        W77483  15.984   3.920   0.562 -0.0929  0.2818 -0.3065
76620W        W77484   9.541   3.241   0.318 -0.2702 -0.0662  0.1142
76621W        W77485  23.850  21.388  26.006 -0.3323 -0.0762  0.0358
76622W        W77486  16.894  28.562  23.134 -0.2203  0.0044 -0.0741
76623W        W77487  21.091   4.952  14.450 -0.0789  0.1523 -0.0311
76624W        W77488   6.724  28.921  11.981  0.2628 -0.0590 -0.4094
76625W        W77489  22.322  28.488   1.356 -0.3957  0.0795  0.3587
76626W        W77490   7.594  22.363   7.726 -0.3290  0.3313  0.0386
76627W        W77491  28.931  14.383  22.083 -0.1547  0.2438 -0.0513
76628W        W77492  23.101  22.964   0.658 -0.2425  0.1638 -0.0640
76629W        W77493  19.640   0.448   9.327 -0.0791 -0.0194  0.1417
76630W        W77494  21.939   5.721  24.479  0.0180  0.1723  0.0429
76631W        W77495  22.504  26.635  12.726  0.3062  0.2532  0.0855
76632W        W77496  10.796   2.891   7.131 -0.1625  0.1023  0.0028
76633W        W77497  24.551  28.660  13.013  0.1438  0.2152  0.0211
76634W        W77498  23.757  19.736  12.537 -0.0434 -0.3159 -0.3349
76635W        W77499   0.568  27.078   4.750 -0.0139  0.1431 -0.1095
76636W        W77500   7.467  15.662   6.234  0.2528  0.1507  0.2801
76637W        W77501   7.158   0.059   2.378  0.1323 -0.1278  0.1908
76638W        W77502  23.083  26.604   2.950  0.0259 -0.3526  0.0446
76639W        W77503   1.907   1.506  12.935 -0.2372 -0.1606  0.1530
76640W        W77504  16.224  22.021  19.349 -0.0805  0.1770  0.0440
76641W        W77505  25.223  14.698  15.164 -0.2996  0.0158 -0.2145
76642W        W77506   8.308  12.242  12.349 -0.0480 -0.2748 -0.0566
76643W        W77507  12.874   6.297  24.063 -0.3425  0.0570 -0.1468
76644W        W77508  13.196  11.725   8.774  0.2036  0.0901 -0.0911
76645W        W77509  11.951  10.380   0.645  0.1913 -0.0929 -0.3224
76646W        W77510   9.476  22.512   9.011  0.5770  0.0121  0.0940
76647W        W77511  14.815  23.314   4.863  0.1270  0.2726  0.0701
76648W        W77512   1.999   8.110   2.972  0.0138 -0.2747  0.1043
76649W        W77513   4.313   1.975   3.876  0.0997  0.2177  0.1428
76650W        W77514  22.900   1.319  19.464 -0.1332 -0.1469  0.2113
76651W        W77515   4.136   5.783  14.384  0.0138  0.2648 -0.1150
76652W        W77516  27.263   1.166   4.539  0.1093  0.0220 -0.2004
76653W        W77517  16.734  22.589  20.856 -0.4031 -0.0728  0.1156
76654W        W77518  15.565  12.094   4.342  0.1494  0.3066 -0.1961
76655W        W77519  21.458  19.714   2.438 -0.1624 -0.0289  0.1483
76656W        W77520   2.482   1.176  22.966 -0.3169 -0.0611  0.3121
76657W        W77521   1.371  24.559   6.206  0.0636 -0.0102  0.0108
76658W        W77522  21.344   0.924  22.374  0.4134  0.0984 -0.1371
76659W        W77523   1.256  11.755  17.652  0.1618 -0.0355  0.0809
76660W        W77524   3.584  24.786  11.891  0.0842 -0.0368 -0.1375
76661W        W77525  22.673  23.140  17.843 -0.2359  0.2526 -0.1540
76662W        W77526   0.140  14.451  26.137  0.1304 -0.0460  0.0938
76663W        W77527   3.879  18.784  16.943 -0.3567  0.0727  0.0279
76664W        W77528   1.447  15.412  28.595 -0.2619 -0.1413 -0.0521
76665W        W77529  14.679   0.372  15.648 -0.0266  0.2412 -0.0563
76666W        W77530  26.447  20.289   0.270 -0.0657 -0.2083  0.0553
76667W        W77531  21.104  14.755  11.976  0.1117  0.0770  0.1920
76668W        W77532  26.483   2.287  11.048  0.2041 -0.0362 -0.3449
76669W        W77533   0.164   3.615  28.370  0.1536  0.2265 -0.1971
76670W        W77534  18.714  10.958  15.658 -0.0458  0.1534 -0.1826
76671W        W77535  11.403  28.472  10.098 -0.1424 -0.1525  0.1224
76672W        W77536   4.827  22.742  20.928 -0.1150 -0.0361 -0.0850
76673W        W77537   9.370   2.358  17.062  0.0950  0.0090 -0.0015
76674W        W77538  28.615  22.483  15.859  0.0394 -0.1255 -0.0704
76675W        W77539  10.385  17.439  28.827  0.2078 -0.2909 -0.1187
76676W        W77540  20.433  27.528  24.734 -0.0854  0.0718  0.0507
76677W        W77541  14.474   9.627  17.296  0.1831  0.1739 -0.0815
76678W        W77542  26.590  21.909   1.275 -0.0436 -0.2681 -0.1954
76679W        W77543   1.312  14.775  21.177 -0.2141  0.0880 -0.0799
76680W        W77544   0.725  27.874   2.433 -0.1877  0.0106  0.1655
76681W        W77545   9.869   9.039  24.674  0.0548 -0.1351  0.3596
76682W        W77546   3.078   3.092   5.114 -0.0190  0.1739  0.0862
76683W        W77547  13.831   6.761  18.738 -0.0562 -0.1553  0.1434
76684W        W77548  22.893  27.947   1.023  0.0020 -0.1002  0.0384
76685W        W77549   5.066   1.330  23.304 -0.0859 -0.2650 -0.0503
76686W        W77550  11.706  11.763  19.582 -0.4152 -0.0378 -0.0737
76687W        W77551  11.190  12.158  11.094 -0.2177  0.2696 -0.2566
76688W        W77552   1.559   1.113  19.839  0.0516 -0.1117  0.2804
76689W        W77553  18.267  16.540  18.284 -0.1695 -0.5370  0.1436
76690W        W77554   2.063  27.363  24.194 -0.1043 -0.2247  0.2262
76691W        W77555  26.275  25.270  28.505  0.0956  0.1393  0.0254
76692W        W77556   4.204  17.633  23.421  0.0643 -0.2420 -0.4390
76693W        W77557   0.776   3.965  10.708  0.2099 -0.1143  0.4519
76694W        W77558  21.946  10.874  24.135 -0.0896  0.2587  0.0156
76695W        W77559  12.832  16.819  12.697 -0.2095 -0.4153  0.0263
76696W        W77560   0.391  13.026  11.985 -0.1478 -0.1370 -0.1827
76697W        W77561  16.581   5.344  10.594 -0.2157  0.0390  0.0493
76698W        W77562  19.963  13.910  10.608 -0.1704 -0.1516 -0.0844
76699W        W77563  26.410  12.979   8.997 -0.0515 -0.2731 -0.0537
76700W        W77564   8.512  21.790   6.844  0.0730  0.1641 -0.1087
76701W        W77565  18.232  24.386  28.464  0.1049 -0.0484  0.0608
76702W        W77566  28.574   3.683  15.980  0.2564  0.2493  0.0633
76703W        W77567  26.915  27.831  20.225  0.1345  0.1617 -0.2745
76704W        W77568  20.421   0.766  22.471 -0.0744 -0.1079  0.0387
76705W        W77569  20.855   4.164  28.031  0.2399 -0.0969  0.0462
76706W        W77570   4.869  18.979  22.578 -0.1452  0.2200 -0.0892
76707W        W77571  18.389  20.874  14.995 -0.5979  0.1457 -0.4061
76708W        W77572  27.317  22.786   2.267 -0.1927  0.1761 -0.2700
76709W        W77573  23.490   0.254  16.309 -0.1745 -0.1867 -0.0145
76710W        W77574  10.238   1.209   3.424 -0.1412  0.2421 -0.2291
76711W        W77575  14.205  24.070  24.916 -0.0896 -0.2089  0.0659
76712W        W77576   8.199   4.233  24.868  0.1538 -0.1023  0.0658
76713W        W77577  22.242  11.567  13.678  0.1646  0.3829  0.0836
76714W        W77578  18.514  10.134  20.900  0.0276  0.2004  0.0289
76715W        W77579  19.839   6.611  14.995 -0.1159 -0.1482 -0.0282
76716W        W77580  20.556   1.272  13.192 -0.3250  0.0057 -0.2290
76717W        W77581  11.257   0.184   4.690  0.0654  0.2699  0.0507
76718W        W77582  25.766  19.604   5.035  0.1933  0.1600 -0.1392
76719W        W77583  19.485  13.027   7.642  0.1248 -0.1840 -0.0799
76720W        W77584   6.651  28.835  26.419  0.2464 -0.0205 -0.0394
76721W        W77585  11.450  12.252   5.135  0.0045 -0.1676  0.1420
76722W        W77586  28.817  22.882   4.650 -0.1540  0.1639 -0.0325
76723W        W77587  23.291  14.427  15.289 -0.2059 -0.3815  0.1217
76724W        W77588   7.621  10.862  25.620 -0.1576 -0.0437  0.0000
76725W        W77589  25.172   1.843  23.341  0.2298 -0.1278 -0.0230
76726W        W77590  22.334  18.532  15.409 -0.0013 -0.1012 -0.2671
76727W        W77591   8.791   2.439   9.644 -0.0545 -0.1984 -0.2106
76728W        W77592  14.416   0.043   1.027  0.3088 -0.0375 -0.0356
76729W        W77593  16.427   1.205  24.514 -0.1821  0.2614  0.3064
76730W        W77594  24.512  29.119   1.557  0.1253  0.2074  0.0387
76731W        W77595   7.982  21.170   6.648 -0.2199 -0.0701  0.0757
76732W        W77596  23.045   6.608   0.358 -0.0996 -0.0597 -0.0088
76733W        W77597  28.556   0.359  25.711  0.1369  0.0520  0.2049
76734W        W77598   0.960  14.600   6.482 -0.0733  0.0217 -0.3486
76735W        W77599  20.134  23.275   5.098 -0.0930 -0.2182 -0.2212
76736W        W77600  16.704  17.705  25.041 -0.4272  0.0599 -0.2028
76737W        W77601  18.491  24.741   0.773 -0.0152  0.2357  0.0444
76738W        W77602  26.462   2.398  13.424  0.0055 -0.0097  0.3302
76739W        W77603  26.756   8.889  21.971 -0.3182  0.2010 -0.0849
76740W        W77604  21.084  23.182   4.172 -0.0006 -0.1247  0.2542
76741W        W77605  26.796   4.409   6.544  0.3906  0.1585  0.3612
76742W        W77606  27.448  16.537  14.711  0.1127 -0.1648 -0.1140
76743W        W77607   1.309  26.948  28.738 -0.2989 -0.0988  0.0191
76744W        W77608  24.006  11.141   8.284  0.0057 -0.0032 -0.0556
76745W        W77609  15.832   2.581   3.863  0.2053  0.2187 -0.1759
76746W        W77610   2.809   0.896  14.278 -0.0405  0.0560  0.0883
76747W        W77611  13.981  24.361  16.188 -0.0108  0.1848  0.2192
76748W        W77612  20.827  24.461   0.541 -0.1974 -0.1928 -0.0275
76749W        W77613  10.895  12.375  23.908  0.0537  0.1984  0.0493
76750W        W77614  14.005   3.166  15.457  0.0532 -0.1645  0.0344
76751W        W77615  24.989   9.894   4.642 -0.0218 -0.0119  0.1057
76752W        W77616  28.090  18.309  16.179  0.0349 -0.0666  0.0961
76753W        W77617  18.927  11.299  25.235 -0.0017 -0.0522  0.0774
76754W        W77618   7.639   6.879   3.751  0.1193  0.1051  0.1992
76755W        W77619   9.284   1.192   7.517  0.3610  0.1700  0.2868
76756W        W77620  17.594   3.222   7.129 -0.1390 -0.3179 -0.1751
76757W        W77621  21.509   3.001  24.776  0.0796 -0.1276  0.2187
76758W        W77622   4.737  21.137   6.390  0.0795  0.0927  0.1181
76759W        W77623  28.034  11.593  24.363  0.3496  0.0217  0.3608
76760W        W77624  13.545  25.937  24.044  0.3481 -0.0121  0.2331
76761W        W77625   8.758  28.239  24.259 -0.2047  0.2080 -0.0189
76762W        W77626  12.856  16.491  24.438 -0.2062  0.2129  0.0331
76763W        W77627  21.830  19.792  13.757  0.0792  0.1400  0.2226
76764W        W77628  11.928  13.942  28.816  0.1346  0.0219  0.3169
76765W        W77629  24.746  26.132   5.965 -0.0081 -0.0591 -0.0900
76766W        W77630   8.038   8.674  12.900 -0.0289 -0.3585  0.0001
76767W        W77631  16.956  26.902  28.364  0.1349 -0.1600  0.2333
76768W        W77632  14.781   0.305   3.647  0.0676 -0.0366 -0.3830
76769W        W77633   3.044  13.962  18.585  0.2728  0.1256 -0.1730
76770W        W77634  26.138  20.538   7.556 -0.0515 -0.0868 -0.3039
76771W        W77635  10.382  20.665  26.596  0.3007 -0.0664 -0.0098
76772W        W77636  24.063   9.378  21.287 -0.0745  0.1484 -0.1763
76773W        W77637  25.054  25.319   4.536  0.4013  0.0081  0.0523
76774W        W77638   7.968   1.187  10.978  0.1429 -0.3286  0.0462
76775W        W77639  22.589   0.614  14.284  0.0027  0.3970 -0.0441
76776W        W77640  22.396  27.227  24.935  0.0105 -0.6457 -0.2840
76777W        W77641   2.265  28.467  15.967  0.2047  0.1740  0.2605
76778W        W77642   6.140  26.531   1.638 -0.0956 -0.0669  0.0977
76779W        W77643  25.380  26.794  18.031  0.0274  0.0581 -0.1136
76780W        W77644   4.809  23.040   8.590  0.0358 -0.1615  0.1416
76781W        W77645  14.013   6.561  14.061  0.0279  0.5713 -0.1047
76782W        W77646   0.726  27.170   0.506 -0.2536 -0.0030 -0.0806
76783W        W77647  10.881   7.498  26.149 -0.0405 -0.1797 -0.0664
76784W        W77648   7.274  26.601  27.853  0.1606 -0.1641  0.0218
76785W        W77649  11.151  19.542  15.538 -0.1279 -0.0785  0.2013
76786W        W77650   7.445  27.094  15.533  0.0790  0.0279 -0.2125
76787W        W77651   0.114  18.038   5.640  0.3560  0.1560  0.0679
76788W        W77652  27.786   6.399  24.710  0.0937  0.1874  0.2634
76789W        W77653   0.479  16.942   6.397 -0.0762 -0.3173  0.0377
76790W        W77654  16.766   8.637  17.734 -0.0226  0.0894  0.0307
76791W        W77655  14.518  18.304   5.533 -0.0848  0.2017 -0.0431
76792W        W77656  19.697   1.209   8.253  0.0760 -0.1017  0.0405
76793W        W77657  11.815  16.693   3.503 -0.0364  0.1531 -0.0392
76794W        W77658  10.755  22.590  26.304 -0.3370 -0.3940 -0.2910
76795W        W77659   7.193   4.887   2.807  0.2421 -0.1660 -0.0799
76796W        W77660  10.885   5.520  12.976  0.1438  0.0520 -0.0786
76797W        W77661  25.689  25.329  27.781  0.0549 -0.1281 -0.1668
76798W        W77662   3.192   2.659   5.262 -0.0787  0.3339 -0.0820
76799W        W77663  16.224  11.351   6.917 -0.2240 -0.0497  0.1501
76800W        W77664  20.653   4.733  14.752 -0.0517 -0.0816 -0.0608
76801W        W77665  18.523  27.505  17.237 -0.1667 -0.1328  0.4760
76802W        W77666  14.655  21.431   4.495 -0.0479  0.1847 -0.0453
76803W        W77667  11.560  27.352  12.968  0.0278 -0.0002  0.1772
76804W        W77668   4.467  23.697  22.159 -0.0170 -0.2377 -0.2152
76805W        W77669  28.453  13.964   0.159 -0.2158 -0.1047  0.3809
76806W        W77670   6.174   9.074   0.730  0.0059 -0.0874  0.0594
76807W        W77671  22.844  22.625  27.665 -0.0710  0.2120  0.0321
76808W        W77672   2.226  15.549  21.965  0.1802 -0.0889 -0.1247
76809W        W77673   5.864   6.795  18.001  0.1410  0.0330 -0.0936
76810W        W77674  11.682  18.478  13.037 -0.2755  0.0393  0.0154
76811W        W77675  28.106   1.341  17.791 -0.1584  0.1625 -0.0089
76812W        W77676   9.669  26.364   6.091  0.1978 -0.0545  0.0159
76813W        W77677   9.875  21.167  16.585 -0.1630 -0.2407 -0.0145
76814W        W77678  10.964  25.997  27.561  0.1166 -0.0066  0.2897
76815W        W77679  11.397   9.984  15.394  0.2921 -0.0193 -0.0438
76816W        W77680   0.776  25.030  11.030 -0.1082 -0.1066 -0.1562
76817W        W77681  13.553   7.964   1.861 -0.0488 -0.1503  0.0885
76818W        W77682  21.019   5.753   6.789  0.1429  0.1307  0.2843
76819W        W77683  23.013  13.255  27.963 -0.0024 -0.1630 -0.0143
76820W        W77684  22.300   6.749  17.535  0.1712  0.0184 -0.2129
76821W        W77685   0.020  19.491   5.856  0.2275  0.4163 -0.0867
76822W        W77686   3.006  13.907   4.303 -0.1792  0.0571  0.0250
76823W        W77687   7.469  16.848   8.879  0.2102 -0.0383  0.3687
76824W        W77688  20.915  23.431  23.443  0.0372  0.2335  0.0664
76825W        W77689  26.726  28.827  11.367 -0.3044  0.0376 -0.1208
76826W        W77690  22.012  23.601  22.196 -0.0966  0.1760  0.0439
76827W        W77691   3.241   4.608   5.900 -0.0795 -0.0039 -0.0657
76828W        W77692  23.737  28.780   7.316  0.2460 -0.1943 -0.0279
76829W        W77693  28.485   8.826  20.605 -0.4156 -0.0244 -0.1559
76830W        W77694  19.880   0.031   9.222 -0.5007 -0.0541 -0.2047
76831W        W77695   2.383   2.096  12.425  0.0596 -0.0949 -0.0754
76832W        W77696  19.070  25.289   5.962  0.2535  0.0141 -0.2760
76833W        W77697  18.080  23.965   8.211  0.0615  0.0405  0.0013
76834W        W77698   5.593   1.257  19.162 -0.2730  0.4357 -0.2169
76835W        W77699  13.052  15.123   3.260  0.1489  0.2765 -0.0201
76836W        W77700  16.133   2.230  11.742 -0.0973  0.2649  0.0326
76837W        W77701  17.157  22.920  24.189  0.1257 -0.0367  0.1267
76838W        W77702  23.562  21.846  14.075  0.0491 -0.0602 -0.1444
76839W        W77703  28.670  26.225   4.889 -0.0766 -0.0433 -0.0289
76840W        W77704  18.770  23.848  22.700  0.0137  0.0157  0.0810
76841W        W77705  28.820  14.696   9.909  0.1667  0.0462 -0.1320
76842W        W77706  25.648   9.255   3.689 -0.0460 -0.2725 -0.0194
76843W        W77707   1.087   1.261  22.851 -0.0301 -0.1654  0.0595
76844W        W77708   8.229   4.769   9.809  0.0013 -0.0296 -0.0124
76845W        W77709   7.645  18.911  10.881  0.1587 -0.1715  0.2906
76846W        W77710   2.280  19.639  16.910  0.0308  0.0407  0.1839
76847W        W77711  28.762  16.912   1.930 -0.2352 -0.1971  0.1579
76848W        W77712   8.379  19.340  11.718  0.1123 -0.0583 -0.0054
76849W        W77713  26.572  27.156  14.448 -0.1759 -0.0748  0.2497
76850W        W77714   9.113   5.479   2.588  0.2822  0.0156 -0.0869
76851W        W77715  21.908  25.100  15.779 -0.0099 -0.0570 -0.2488
76852W        W77716  13.636  22.501  25.907  0.1180 -0.3946  0.1849
76853W        W77717  26.073  18.205  18.736  0.1060 -0.2635  0.1285
76854W        W77718  22.670  16.124   3.939  0.1294  0.2115 -0.2303
76855W        W77719  14.806  14.344  11.865 -0.2830 -0.1745  0.0599
76856W        W77720  23.122   0.877  10.166 -0.0420 -0.0317 -0.0354
76857W        W77721   7.003   5.841  16.787  0.1926  0.1433 -0.0883
76858W        W77722  22.022   1.799  19.335 -0.0355 -0.0517 -0.4292
76859W        W77723   9.432  23.534  24.991  0.2826 -0.0401  0.0921
76860W        W77724  20.513   2.679   9.356  0.0992  0.0952 -0.4102
76861W        W77725  26.833   7.437   0.437  0.2735  0.0423  0.0947
76862W        W77726  11.386  28.003  19.720 -0.1751  0.1238 -0.1923
76863W        W77727   0.699   4.451  10.129 -0.0985 -0.2719 -0.0163
76864W        W77728  18.727   2.232  25.484 -0.1257 -0.0921  0.0751
76865W        W77729  23.236  14.273  21.054  0.3138 -0.1233 -0.1297
76866W        W77730  23.719  21.788  11.795  0.0075  0.1610 -0.1261
76867W        W77731  29.044   5.131  13.722 -0.1102  0.1608  0.0942
76868W        W77732  26.066  24.188  17.673 -0.1306 -0.4946  0.0435
76869W        W77733  21.888   5.479  16.359 -0.0114  0.1989 -0.2340
76870W        W77734  23.698  20.526   3.805  0.0387  0.0367  0.0025
76871W        W77735   7.965  16.350   3.581 -0.3397 -0.3636  0.0251
76872W        W77736   5.133  23.381  17.725  0.0496  0.0787 -0.0864
76873W        W77737  26.205  14.387  11.271  0.0128  0.4707 -0.2754
76874W        W77738  25.085   6.562  18.732  0.2389  0.2047  0.2243
76875W        W77739  13.143  25.736  17.335  0.1504  0.0841 -0.1892
76876W        W77740  21.348  24.489  20.271  0.0423 -0.1846  0.1000
76877W        W77741   2.708  17.636   8.235  0.0564  0.2325 -0.1974
76878W        W77742  26.105  15.043  14.859 -0.0145  0.2469  0.2662
76879W        W77743  27.252  14.077  11.086  0.0254  0.2115  0.3453
76880W        W77744   2.414  27.595  13.212  0.0477  0.1309  0.0072
76881W        W77745  25.898  21.418   6.103 -0.1266  0.1473  0.0369
76882W        W77746   4.377  24.145   4.771 -0.2180 -0.2553 -0.2959
76883W        W77747  15.332  13.954  13.968  0.1094  0.0118 -0.1792
76884W        W77748  26.951  10.010  14.478  0.0449 -0.1714 -0.0903
76885W        W77749  24.600   4.796  12.878  0.0878 -0.1789 -0.1377
76886W        W77750  26.815  11.749  15.717 -0.0024  0.2385 -0.2024
76887W        W77751   5.802  15.523  19.194  0.2598 -0.1628  0.1870
76888W        W77752  19.027  11.624  15.965 -0.0962  0.2546 -0.0282
76889W        W77753  22.360   6.773   2.789 -0.1096  0.3978 -0.2276
76890W        W77754   9.522  21.909   8.760 -0.2026  0.0423 -0.1585
76891W        W77755  26.129  17.710  23.341 -0.1415  0.0610 -0.1001
76892W        W77756  19.448  12.965   6.745  0.0788  0.0390  0.0885
76893W        W77757  23.462  17.274  13.866  0.0852 -0.1782  0.1888
76894W        W77758  17.524  11.984  25.455 -0.2487  0.2114 -0.0478
76895W        W77759  10.024  28.271  23.143 -0.1750 -0.1590 -0.1553
76896W        W77760  28.151  17.582   7.551 -0.0909 -0.0565 -0.0724
76897W        W77761  24.800   6.380   8.744  0.1996 -0.1094  0.3570
76898W        W77762  20.838  26.846  22.722 -0.2495  0.1696  0.0880
76899W        W77763  26.105   2.058  13.675 -0.0387 -0.3135 -0.1129
76900W        W77764   1.045   7.482   3.487 -0.0030  0.0290 -0.1603
76901W        W77765  10.346  28.981  11.889  0.3230  0.1252 -0.1507
76902W        W77766  23.754   8.817  25.180  0.2476 -0.0793  0.0515
76903W        W77767   1.611  28.776  14.643 -0.2377 -0.0268  0.0680
76904W        W77768  10.959  27.341   7.947 -0.1929 -0.1172  0.2554
76905W        W77769   1.309  10.766   6.201  0.1441 -0.1286 -0.1336
76906W        W77770  23.094  19.420  10.006 -0.2002 -0.1084 -0.0713
76907W        W77771   3.211   8.700  21.125  0.0735 -0.0534  0.1556
76908W        W77772   6.413   9.771  16.697  0.0705  0.1580 -0.4734
76909W        W77773  17.265   6.197   4.633 -0.0778  0.1793  0.1087
76910W        W77774  22.627   7.199  17.548  0.0758 -0.1389 -0.2487
76911W        W77775  15.910  26.085  16.905  0.2340  0.1467 -0.2064
76912W        W77776  17.272  14.156   3.121  0.1775 -0.0428  0.0936
76913W        W77777  15.811   2.494  20.415  0.0832 -0.1636 -0.0859
76914W        W77778  18.491  23.189   8.189  0.0303 -0.0098  0.0606
76915W        W77779  26.550  27.984  28.710 -0.1070  0.4066  0.1364
76916W        W77780  17.615   2.737   7.194  0.4214 -0.0959  0.0354
76917W        W77781  18.744  22.875   1.185 -0.1754 -0.4578  0.0965
76918W        W77782   8.999  22.247  28.413 -0.1349  0.0321  0.0673
76919W        W77783   4.786   6.789   9.972 -0.0184  0.0098  0.0320
76920W        W77784   3.052  20.936  27.308  0.0347  0.0035  0.2450
76921W        W77785  13.205   8.919  14.841  0.1011 -0.1354  0.2583
76922W        W77786   8.092  20.034  15.486 -0.0532  0.0742 -0.1680
76923W        W77787  13.972   7.495   0.653 -0.2168  0.2663  0.0812
76924W        W77788  28.030   0.258  25.489  0.1039  0.1659  0.0490
76925W        W77789  21.277  14.998  21.523 -0.1318 -0.2543  0.1035
76926W        W77790   9.318   7.415   4.984  0.0883 -0.0734 -0.3071
76927W        W77791   4.873  11.922  27.652  0.2819 -0.1272  0.0644
76928W        W77792  27.423  23.095  28.985 -0.0900 -0.0542  0.0344
76929W        W77793  25.152   0.183   1.913  0.0144 -0.0271 -0.0477
76930W        W77794   6.475  28.042  15.985 -0.0562 -0.0179 -0.2299
76931W        W77795  27.361  24.465  24.881  0.1255  0.3427  0.1334
76932W        W77796  28.827   7.986  16.833  0.4192 -0.0558  0.0866
76933W        W77797  12.609  28.066  14.432 -0.0886 -0.0079  0.0929
76934W        W77798  25.725  12.155  27.106 -0.2185 -0.3586 -0.0693
76935W        W77799   8.600  28.547  12.903 -0.0388 -0.3158 -0.2017
76936W        W77800  11.721  25.043  19.571  0.2711  0.0831  0.0920
76937W        W77801   5.621  23.068   3.615 -0.2322  0.0128  0.0006
76938W        W77802  16.932  24.301  19.782  0.0498  0.1322 -0.2947
76939W        W77803  16.596  22.020  20.831  0.0835 -0.2131 -0.3421
76940W        W77804   5.724  25.878   9.123 -0.0525  0.0025 -0.0740
76941W        W77805   6.689  23.569   4.592 -0.1870 -0.1840 -0.3413
76942W        W77806   8.231  15.472  16.220 -0.3457  0.0447  0.0684
76943W        W77807   7.629  14.392   9.380  0.4470 -0.0057  0.5038
76944W        W77808  18.813  14.076   6.323  0.2230 -0.0954 -0.0043
76945W        W77809  14.152  27.998   0.605  0.0922  0.0553 -0.0430
76946W        W77810  25.998  25.416   6.903  0.3116  0.2277  0.0280
76947W        W77811  24.879  25.486  22.721 -0.1270  0.1487 -0.0834
76948W        W77812   7.763   4.732  21.795 -0.0266 -0.2043 -0.0855
76949W        W77813  28.644   5.843  22.138  0.1623 -0.1586 -0.2229
76950W        W77814   7.715   9.895   9.625 -0.2675 -0.2182 -0.0973
76951W        W77815  22.976   7.750   2.627  0.3954  0.0541  0.0645
76952W        W77816  25.886  10.602  28.316 -0.1061 -0.0153 -0.3715
76953W        W77817   1.800  10.419  19.678  0.0268  0.2284 -0.1579
76954W        W77818  16.918   7.271  12.743  0.0869  0.2207  0.0041
76955W        W77819  24.914  24.817  25.354  0.1306 -0.2203  0.2885
76956W        W77820  10.214  25.037  12.394  0.0615  0.1981 -0.4431
76957W        W77821  27.465  28.033   4.849 -0.0752  0.0487  0.1033
76958W        W77822  12.501  24.977   3.713 -0.2081 -0.0485 -0.0697
76959W        W77823  17.759  26.473   2.685 -0.0534 -0.0413 -0.2893
76960W        W77824   7.098   3.444  23.680  0.1080 -0.0396  0.1408
76961W        W77825  17.413  26.570  24.785 -0.0832 -0.0983  0.1430
76962W        W77826   3.670  16.109   9.529  0.2601 -0.1152 -0.0805
76963W        W77827   6.605   2.915   5.034 -0.2965 -0.2270 -0.0344
76964W        W77828   6.055   6.293  28.496  0.0140 -0.0837  0.0991
76965W        W77829  11.478  24.243  16.593  0.2449 -0.1529 -0.0296
76966W        W77830   1.909  17.262  11.385 -0.0606  0.0851 -0.0702
76967W        W77831   4.784   6.441   2.030  0.0590  0.1687  0.0423
76968W        W77832  20.841  24.053   8.706  0.2131 -0.2510 -0.0462
76969W        W77833  24.636   0.591   6.854 -0.2710 -0.0866  0.1891
76970W        W77834  13.855  22.173  17.872  0.1187 -0.0163 -0.2865
76971W        W77835  12.893  22.438   9.622  0.0374  0.0937 -0.3233
76972W        W77836   0.235  13.592  11.769  0.1633  0.0425  0.2727
76973W        W77837  18.095  24.804  23.214 -0.0939  0.0774 -0.3622
76974W        W77838  28.976  10.276   9.559  0.1048  0.1372 -0.2540
76975W        W77839  19.741  22.636  16.956 -0.2335  0.0253  0.2089
76976W        W77840  15.678  22.616   6.146  0.0485 -0.1935  0.1753
76977W        W77841  25.412   0.297  10.168 -0.1409  0.0767 -0.0173
76978W        W77842  16.502  16.877   8.981 -0.1519 -0.0264  0.2431
76979W        W77843  12.039  17.470  25.122  0.0965  0.0447  0.2219
76980W        W77844  27.219   2.601   0.972 -0.2027  0.1727 -0.1712
76981W        W77845  17.379  10.158  25.881  0.0678 -0.0459  0.1388
76982W        W77846  17.568  15.139  11.100 -0.1479  0.1934  0.0398
76983W        W77847  23.636  21.604   1.146  0.0003  0.0343  0.0274
76984W        W77848  19.302   7.315  28.201 -0.1420 -0.0655 -0.0027
76985W        W77849   7.915  12.593   3.594 -0.3278 -0.1448  0.0235
76986W        W77850  28.699  20.003  20.068 -0.1402 -0.1424 -0.2886
76987W        W77851  13.846  16.548   0.984  0.1500  0.2122 -0.0439
76988W        W77852  28.771   0.081  26.618 -0.0554 -0.0457 -0.2199
76989W        W77853  26.975  11.345  15.415 -0.0450  0.2297  0.2610
76990W        W77854   3.721  14.522   6.580 -0.2115 -0.3795  0.1880
76991W        W77855  26.333  27.705  13.855  0.0002  0.0290  0.0724
76992W        W77856  19.226  23.689  27.882  0.1722  0.1444 -0.0887
76993W        W77857  23.345  19.116   8.361  0.2346  0.1234  0.2326
76994W        W77858  16.202  25.740  18.851  0.1823  0.0497 -0.2412
76995W        W77859  27.063  27.250  11.214  0.0687 -0.1997  0.0975
76996W        W77860  25.818  24.761   6.734 -0.0524  0.2746 -0.0306
76997W        W77861  17.330  26.093  16.844  0.1285  0.0706 -0.0511
76998W        W77862  29.098   2.794  13.399 -0.2089 -0.1737 -0.0086
76999W        W77863   3.333   2.347   1.269  0.0227  0.0047  0.2889
77000W        W77864   5.108   4.594  17.881 -0.2031  0.3719 -0.2567
77001W        W77865  15.653   4.039  12.515 -0.0510 -0.2022  0.0232
77002W        W77866   1.375  20.318   5.941  0.2444  0.2319  0.0514
77003W        W77867  24.269  25.187   2.043 -0.2471 -0.0073 -0.2161
77004W        W77868  21.043  16.293  10.760  0.1691 -0.1466  0.0935
77005W        W77869  12.442  19.549   1.483  0.1335  0.1629 -0.3329
77006W        W77870   1.515  21.610   3.747 -0.0111 -0.1589  0.1661
77007W        W77871  24.579  19.225  20.513  0.0164  0.2206 -0.3827
77008W        W77872  27.428  12.448   7.564  0.2039  0.1016  0.1060
77009W        W77873  16.426   9.661   8.265  0.0935 -0.4053  0.0932
77010W        W77874  23.538  23.099  26.204 -0.0271 -0.0959  0.1703
77011W        W77875  21.983  24.453  12.423  0.2480  0.1852 -0.0457
77012W        W77876  26.216  12.221  21.986  0.0709 -0.1151  0.1521
77013W        W77877   5.821  24.956  13.724  0.1160  0.2301 -0.1248
77014W        W77878   8.802   7.220  20.971 -0.1367 -0.0727  0.2746
77015W        W77879   9.618   1.057  27.244 -0.0090  0.0724  0.4035
77016W        W77880   9.076   0.784  25.271  0.0260 -0.0012 -0.0363
77017W        W77881   5.007  16.111  13.455  0.0544 -0.2038  0.2002
77018W        W77882   6.081  24.513   8.723 -0.0438 -0.0281  0.1713
77019W        W77883  18.399  26.802  17.333 -0.1062  0.0780 -0.2796
77020W        W77884   9.537  17.763   9.190 -0.0533 -0.0235  0.0180
77021W        W77885  21.957  11.011  26.753  0.0213 -0.0622 -0.3048
77022W        W77886  26.075   5.376  21.193  0.2147  0.2518  0.0472
77023W        W77887   1.811  14.099   3.908 -0.0360  0.3081  0.1256
77024W        W77888  23.285  21.330   8.872  0.2339 -0.2185 -0.0695
77025W        W77889  10.696   9.952  23.255  0.3510  0.2447  0.1553
77026W        W77890  21.203   2.694  16.450  0.0217  0.1088  0.0112
77027W        W77891   6.268  11.442   1.022  0.2321 -0.0021 -0.0615
77028W        W77892  28.517   0.941   2.650 -0.1815 -0.0003 -0.2901
77029W        W77893   5.891  19.786   8.879 -0.0620 -0.0591 -0.1377
77030W        W77894   3.000   6.878  11.336  0.0979  0.1505  0.0859
77031W        W77895  10.478  22.792   4.140  0.0851 -0.0348 -0.0993
77032W        W77896   2.723   6.083  15.425 -0.2062 -0.0423  0.1760
77033W        W77897  18.582  20.193  13.789  0.2531  0.1285  0.3431
77034W        W77898  25.281  22.556  22.453 -0.1992 -0.0894  0.0544
77035W        W77899  28.829  18.817  24.515 -0.0983 -0.0645  0.2417
77036W        W77900  28.352  11.078   2.384 -0.1527 -0.1341  0.1345
77037W        W77901  27.120  26.294   7.451  0.0856 -0.0540 -0.0014
77038W        W77902   8.150  28.905  19.067 -0.1846 -0.1167 -0.1221
77039W        W77903  17.401  27.667   8.774 -0.2714  0.0973  0.0919
77040W        W77904  27.504  14.754  27.586 -0.0765 -0.0401  0.1791
77041W        W77905  21.417  26.653  13.980  0.0312 -0.2447  0.1458
77042W        W77906   7.965  23.068   4.178 -0.0171 -0.1069 -0.1601
77043W        W77907  16.302  27.151  11.712  0.2633  0.0290  0.3127
77044W        W77908  14.773   3.456  11.213 -0.2608  0.2941  0.0240
77045W        W77909  20.009  20.493   2.032  0.0755  0.1202 -0.0203
77046W        W77910  10.218  27.234  19.213  0.1913  0.1240 -0.0497
77047W        W77911   0.741  24.097  15.814 -0.1952 -0.2349  0.1538
77048W        W77912   8.295  28.821  27.413  0.0421  0.0426  0.1309
77049W        W77913  22.099  10.059  28.540  0.2531 -0.2554 -0.0163
77050W        W77914  21.648  16.453   3.163 -0.2878 -0.2314 -0.1388
77051W        W77915  19.299  17.458   8.486  0.0484  0.1193  0.1510
77052W        W77916   2.006   2.824   7.017  0.2907 -0.3256  0.0675
77053W        W77917   5.979   0.521  14.171  0.0743 -0.1883 -0.1036
77054W        W77918   0.200  21.247  12.373 -0.0515  0.2858  0.3769
77055W        W77919   5.088  19.683   8.536  0.0189 -0.0526 -0.2062
77056W        W77920  26.626  27.225   4.356  0.0832  0.0040  0.2536
77057W        W77921   9.515   9.474  15.603  0.2412 -0.1397 -0.1408
77058W        W77922   1.871   4.750  14.109  0.1676 -0.2485  0.1330
77059W        W77923  21.780  19.072  24.222 -0.2050 -0.0886 -0.0932
77060W        W77924   1.703  15.352  14.249 -0.0151  0.2365 -0.3883
77061W        W77925  23.644  16.571  16.383 -0.3123 -0.2889  0.3519
77062W        W77926   0.347  22.334   3.118  0.0299  0.1061 -0.0262
77063W        W77927   7.263   7.238  15.888 -0.1351  0.1632 -0.1500
77064W        W77928  13.549  24.292  14.835  0.0628 -0.1176 -0.2000
77065W        W77929  16.129   7.097  12.919  0.1740  0.0054  0.0739
77066W        W77930   2.915  12.814  27.256  0.1252  0.0398 -0.1188
77067W        W77931  15.473  19.920   5.808 -0.0826 -0.0902 -0.1702
77068W        W77932  27.232   1.216  12.121 -0.1835 -0.3320  0.0469
77069W        W77933   7.914  25.711   7.059 -0.3582 -0.0436  0.0437
77070W        W77934  16.044  26.329   8.314  0.1057  0.0108 -0.1086
77071W        W77935  24.916  19.161   9.864  0.0641 -0.1113 -0.1536
77072W        W77936   1.120   8.088  20.844 -0.1102  0.1256  0.0242
77073W        W77937  15.121  23.420   1.962  0.0033 -0.3205  0.1189
77074W        W77938   3.262  13.684  22.144  0.0441  0.0372  0.1094
77075W        W77939  14.328  21.243   8.566  0.0225  0.2261 -0.0357
77076W        W77940  20.188   7.254   0.634 -0.0962  0.0878  0.0763
77077W        W77941  20.642  21.243  29.093  0.4196  0.0365  0.0481
77078W        W77942  13.830  27.305  13.324  0.1289  0.2848 -0.0520
77079W        W77943  20.031  19.794   4.728  0.0585  0.1022  0.0969
77080W        W77944  20.681  24.453  19.213 -0.0292 -0.0139  0.0984
77081W        W77945  23.023  13.102  23.326  0.4627  0.1376 -0.1613
77082W        W77946  25.819   8.538   3.005 -0.2093  0.0393  0.0765
77083W        W77947  21.067   4.660   1.126  0.0856 -0.3623 -0.1036
77084W        W77948  27.844   1.977  18.599 -0.1890 -0.1614 -0.1248
77085W        W77949  15.559   6.213  19.130  0.1644 -0.2165 -0.0312
77086W        W77950  12.573  14.856   7.288  0.0722 -0.1343 -0.1510
77087W        W77951  11.875  21.870   8.852 -0.2146  0.1027  0.1621
77088W        W77952  13.573  11.551   7.584  0.2722  0.0093 -0.1307
77089W        W77953   0.636   2.381   6.801  0.2694  0.1758 -0.0244
77090W        W77954   0.722  27.081   6.339 -0.0563  0.0144  0.0381
77091W        W77955  22.869  24.129   5.036 -0.1251 -0.1620 -0.2698
77092W        W77956  28.648   5.988  28.303  0.1815 -0.0488  0.1371
77093W        W77957   1.796  19.535   6.612 -0.0348 -0.1706 -0.3239
77094W        W77958  19.799   9.557  12.166  0.0411 -0.3025  0.4609
77095W        W77959  20.214  28.972  24.825  0.1981  0.0462  0.1764
77096W        W77960  20.984   6.484   1.793 -0.3560  0.1291 -0.0598
77097W        W77961  21.320  16.649  15.466  0.0093  0.1264  0.1362
77098W        W77962  28.902  23.281  15.504  0.0281 -0.0295 -0.1012
77099W        W77963  24.429  24.424   3.574  0.1480  0.0896  0.2005
77100W        W77964  13.416   3.983   3.422  0.0444  0.3669  0.1379
77101W        W77965  29.003   4.652  16.040  0.0353 -0.0931  0.4151
77102W        W77966  28.130  17.192   3.101  0.1357  0.0525 -0.2218
77103W        W77967  28.632  19.631  15.072 -0.2269  0.3208 -0.1068
77104W        W77968  25.217  25.834  18.160 -0.1001 -0.0922 -0.2381
77105W        W77969  15.048  26.557  10.323  0.1948  0.2356  0.1507
77106W        W77970  13.486  12.473  14.243 -0.0327  0.0054 -0.2002
77107W        W77971  12.235  28.685  23.343 -0.0701  0.1679  0.0842
77108W        W77972  28.790  18.166  12.939  0.4293  0.5015 -0.0443
77109W        W77973   7.773  22.391  21.518  0.0274 -0.0616  0.0776
77110W        W77974  25.909   2.363   3.754  0.1438  0.2638 -0.1564
77111W        W77975  12.074   9.995  25.922  0.0981 -0.2939 -0.0349
77112W        W77976  26.947   3.364  28.633  0.2881 -0.3418  0.0987
77113W        W77977  10.692   0.366  23.207 -0.3127  0.1094 -0.2176
77114W        W77978  23.212   8.544  10.899 -0.0440  0.3487 -0.4222
77115W        W77979  26.324  25.119  17.942  0.0385  0.0347 -0.0134
77116W        W77980   8.227  17.795   7.631 -0.0613  0.0987 -0.1390
77117W        W77981  24.334  29.117   3.594 -0.0710 -0.0932 -0.2002
77118W        W77982  14.081   2.403   9.583 -0.2599  0.0738 -0.1932
77119W        W77983   8.253   8.320   8.690 -0.0775 -0.4721  0.0466
77120W        W77984  27.065   6.045   7.830 -0.1236  0.1048  0.0524
77121W        W77985  24.781   9.807   7.152  0.0331 -0.0235 -0.0828
77122W        W77986  23.182  25.889   5.268 -0.0622 -0.0845 -0.0873
77123W        W77987  22.418   2.518  11.012  0.0688 -0.0350  0.1072
77124W        W77988  26.419  11.399  16.310  0.1705 -0.0951 -0.0131
77125W        W77989  25.789  12.456  21.873  0.1988  0.0700 -0.1182
77126W        W77990  18.064   2.289   4.482  0.3247  0.1701  0.0602
77127W        W77991  28.240  28.554  15.042  0.1883 -0.1302 -0.0372
77128W        W77992  26.425  16.560  13.519  0.0897  0.0513  0.1097
77129W        W77993   0.463   6.443  11.693  0.0503 -0.1090 -0.0474
77130W        W77994  25.207  13.086   2.481  0.2711 -0.0128 -0.2578
77131W        W77995  22.279   3.138   7.090  0.0462 -0.0049  0.0544
77132W        W77996  20.140  25.697  20.979  0.0351 -0.1468 -0.0906
77133W        W77997  17.748  26.301   4.301  0.1115  0.2381 -0.1126
77134W        W77998   3.193  23.422  14.391  0.2008  0.0536 -0.0184
77135W        W77999   0.251  28.696   2.603  0.3903 -0.1600 -0.3783
77136W        W78000  19.414  21.543  19.782 -0.2086 -0.0185 -0.0475
77137W        W78001  18.467  19.313   3.004 -0.0970 -0.1197 -0.0314
77138W        W78002   9.755   8.107  23.268 -0.0291 -0.0089  0.0638
77139W        W78003  23.312   1.422  15.639  0.0721 -0.1704  0.3055
77140W        W78004   1.360  28.500  13.821 -0.0590  0.0331  0.2498
77141W        W78005  14.384  22.882  21.055 -0.1195  0.2147 -0.0163
77142W        W78006  22.341  11.274  11.323  0.0399  0.0781 -0.0079
77143W        W78007  18.405   0.547  22.193 -0.3288 -0.0143 -0.2173
77144W        W78008   5.050  22.570   1.570  0.2337 -0.2981 -0.0751
77145W        W78009  17.572  12.558   7.182 -0.0768 -0.0321 -0.1693
77146W        W78010   3.318  21.253  18.115 -0.1483  0.2694  0.0553
77147W        W78011  24.100  23.742  10.798 -0.0140  0.0073 -0.1283
77148W        W78012  16.092   7.524  24.994 -0.0359  0.0212 -0.2773
77149W        W78013   5.577  25.129   1.108  0.2109 -0.1216  0.1627
77150W        W78014  19.705  15.876  19.194  0.1207  0.0214  0.0915
77151W        W78015  19.535  25.287  19.251 -0.1408 -0.0990 -0.4596
77152W        W78016  28.327  26.842   5.357 -0.3887  0.0552 -0.0061
77153W        W78017  25.156   7.626   9.020  0.0849  0.1397 -0.2136
77154W        W78018  17.277   1.892  11.507  0.1039 -0.4091  0.0668
77155W        W78019   4.758  15.180   2.314  0.3691 -0.1144 -0.2192
77156W        W78020  16.093  12.126   1.435 -0.1690 -0.0684 -0.0101
77157W        W78021   9.927  19.852  23.162  0.1198  0.0802  0.0772
77158W        W78022  20.263   1.349  23.262 -0.0402  0.2095  0.0315
77159W        W78023  17.896   8.672  22.325  0.0744  0.2310  0.2535
77160W        W78024  19.023   6.337  22.036  0.1564 -0.0490 -0.1412
77161W        W78025  21.337  14.050   3.682 -0.0217  0.1192  0.0684
77162W        W78026  15.687   0.621   5.309  0.0692 -0.0506  0.0520
77163W        W78027  19.055  18.666  17.576  0.1136 -0.1074 -0.0662
77164W        W78028  21.432   0.747   5.671  0.1455 -0.0277  0.0214
77165W        W78029   0.623   0.242   6.055 -0.2064 -0.2336  0.2197
77166W        W78030  16.219  15.412   7.705 -0.0234 -0.1254  0.1665
77167W        W78031  27.483   2.562  27.656 -0.2971  0.3071  0.2244
77168W        W78032  16.961  26.182  20.575  0.0776  0.2587 -0.1864
77169W        W78033  22.457  24.752   8.895 -0.4548  0.3512 -0.1111
77170W        W78034  11.024  13.206  27.716  0.0518 -0.0606  0.0935
77171W        W78035  16.635   2.619   8.196 -0.0385 -0.0300 -0.0200
77172W        W78036  25.820  17.217   3.975 -0.0838  0.2338 -0.0416
77173W        W78037   2.752  22.010  10.527 -0.0316 -0.2440 -0.0244
77174W        W78038  27.215  23.938  20.868 -0.1544  0.1534  0.1112
77175W        W78039  16.038  22.016  11.054  0.0479  0.2406  0.2411
77176W        W78040   4.065   8.938  20.880 -0.0346  0.3351 -0.0526
77177W        W78041  10.958   9.964   3.938 -0.2437 -0.1983  0.2762
77178W        W78042  21.600   1.189   9.460 -0.4514 -0.0984 -0.3821
77179W        W78043   5.991   4.233  16.394 -0.1870  0.0627  0.0496
77180W        W78044  10.031  10.528   0.922 -0.1546 -0.2967 -0.1251
77181W        W78045  12.577  23.657  25.323  0.5609  0.3050  0.0218
77182W        W78046   1.597  28.342  10.765  0.1806 -0.0303  0.0029
77183W        W78047   0.570   3.703   1.418  0.0105  0.0478 -0.0638
77184W        W78048  17.136  15.015   7.902  0.1707 -0.0568 -0.2898
77185W        W78049  15.287   5.523   8.649 -0.2653  0.2659 -0.2657
77186W        W78050  10.000   8.903  15.714 -0.1056 -0.1913 -0.2249
77187W        W78051   1.032   7.646   6.678  0.3599 -0.1188 -0.1794
77188W        W78052  22.764   1.432  29.045 -0.1960  0.0419 -0.0924
77189W        W78053  12.881   6.601   1.419  0.0497 -0.3861  0.1137
77190W        W78054  16.137   5.818  12.780 -0.1476  0.2907  0.1816
77191W        W78055   3.371  27.410  28.212 -0.1385  0.1112  0.4378
77192W        W78056  10.533  22.371  12.248  0.2153  0.0364  0.2565
77193W        W78057   7.272   9.106  27.084  0.0242  0.1998 -0.0635
77194W        W78058  21.230  28.317  19.729  0.2680  0.4343  0.2014
77195W        W78059  25.663  22.934   0.019  0.2243  0.1930  0.0703
77196W        W78060  29.084  26.531  11.943  0.2809  0.0770 -0.0281
77197W        W78061  11.973  15.145  15.219 -0.0914  0.0179 -0.1494
77198W        W78062  12.482  13.420  20.672 -0.1031  0.0701  0.1894
77199W        W78063   1.159  27.246   1.517 -0.0384  0.0377 -0.1577
77200W        W78064  20.543   3.176  18.354  0.0289  0.3532  0.1389
77201W        W78065  19.846  22.118   6.281  0.0273  0.0324 -0.2698
77202W        W78066  20.625   6.730   6.150  0.2027 -0.0575 -0.0353
77203W        W78067   8.770  21.036   3.396 -0.1557  0.0846 -0.1321
77204W        W78068  11.263   5.071  10.809 -0.1304  0.3680  0.1509
77205W        W78069   6.965  13.566  21.278 -0.1199 -0.3970 -0.1362
77206W        W78070  19.706   3.304  19.282 -0.0096 -0.0544 -0.1558
77207W        W78071  20.521   4.634   2.394  0.1407  0.1772  0.2215
77208W        W78072  29.081  10.856  11.400 -0.1043  0.1046 -0.2484
77209W        W78073  15.263  14.341  27.907 -0.0778  0.1987 -0.4258
77210W        W78074  24.495  16.314  25.852 -0.1469 -0.3802 -0.2384
77211W        W78075  27.996  20.322  26.032 -0.0351  0.2641  0.0176
77212W        W78076   3.312  23.065   6.559 -0.0032  0.0680 -0.0858
77213W        W78077  21.447  27.818   6.578  0.2174 -0.2890 -0.0345
77214W        W78078   3.953   4.346  22.904 -0.1809 -0.2436  0.3165
77215W        W78079  10.402   7.356  20.480 -0.2828 -0.1145 -0.4737
77216W        W78080   2.428  12.271   9.702 -0.1135 -0.1017 -0.0899
77217W        W78081  26.721  24.234   7.110 -0.1430 -0.1245  0.0267
77218W        W78082   9.946  23.847   3.406 -0.1684 -0.0736 -0.0316
77219W        W78083  26.522  13.611  20.566 -0.2087  0.1547 -0.0010
77220W        W78084   4.679  12.844   8.158  0.1334 -0.1366 -0.0552
77221W        W78085   0.904  21.512  20.098 -0.0086  0.1631  0.1564
77222W        W78086   6.325  24.387   2.472 -0.0596  0.1537 -0.0130
77223W        W78087   4.074  11.752  24.105  0.3938  0.1020  0.0606
77224W        W78088  25.769  21.230   5.309 -0.0087  0.1686 -0.1900
77225W        W78089  25.129   2.598  11.731 -0.2339 -0.0211  0.1014
77226W        W78090   2.357   1.104  26.524  0.1634  0.0336 -0.0032
77227W        W78091  25.340   3.260  18.064 -0.0762  0.2734  0.1923
77228W        W78092  23.760   6.042   0.753  0.0835  0.1135 -0.2336
77229W        W78093  25.607   5.885  13.803  0.1163 -0.0155 -0.0141
77230W        W78094  10.405  25.046   2.821 -0.0662 -0.2050  0.4132
77231W        W78095   3.312  11.872  13.489 -0.0608 -0.2096  0.0951
77232W        W78096  20.737  23.082  15.809 -0.2907 -0.0009  0.0992
77233W        W78097  17.886  15.656   2.471 -0.3481  0.1989  0.1065
77234W        W78098   3.249  28.065  10.279  0.1442  0.0401 -0.1613
77235W        W78099   8.059  26.849  22.838  0.0662 -0.1079  0.0554
77236W        W78100  23.783  11.226   0.678 -0.2610  0.0919  0.0599
77237W        W78101   3.066  21.107   5.220  0.1773 -0.1336  0.0919
77238W        W78102  25.076  19.590  16.336  0.0472 -0.4254  0.0928
77239W        W78103  21.369  24.723  21.753 -0.1919 -0.1164  0.3712
77240W        W78104  20.207  27.992   9.143 -0.1959  0.0146 -0.1855
77241W        W78105  21.879  19.285  13.879 -0.0861 -0.0514  0.0402
77242W        W78106   2.746  27.995  10.733 -0.2752 -0.3324 -0.2808
77243W        W78107  20.622  24.183   4.504 -0.0421 -0.2035  0.2791
77244W        W78108  15.527  21.970  20.145 -0.0295  0.1755  0.3584
77245W        W78109  21.894   2.220  22.183 -0.0069  0.3598  0.0847
77246W        W78110  25.491  18.219  10.966  0.1039 -0.0149  0.3220
77247W        W78111   3.250  22.020  23.189  0.1991 -0.2198 -0.4796
77248W        W78112   3.698  10.046  21.765 -0.0963  0.1291 -0.0719
77249W        W78113  22.818  23.146   9.985 -0.0627  0.0701 -0.1667
77250W        W78114  23.451  15.698   0.716 -0.2070 -0.1286 -0.0409
77251W        W78115  17.395   1.816  20.526 -0.0311  0.0262 -0.0977
77252W        W78116   8.823   7.845  13.399  0.0767  0.0163 -0.0883
77253W        W78117  22.369   6.191   7.522  0.0480  0.0225 -0.1392
77254W        W78118  13.334  18.177  17.567  0.0440 -0.1920  0.2022
77255W        W78119  25.605  21.213   6.509  0.1420  0.3060  0.2278
77256W        W78120   9.572  16.818  18.514  0.0211 -0.1279  0.1590
77257W        W78121  21.358   2.749  25.905 -0.0099 -0.3937 -0.3438
77258W        W78122  26.006   4.662  18.168 -0.2249 -0.0472  0.0188
77259W        W78123   1.171   8.229  25.926  0.0878  0.1200  0.1227
77260W        W78124  15.855  14.351  18.916  0.5516 -0.0815  0.0852
77261W        W78125  16.584   3.667  27.168  0.0744 -0.1420  0.1056
77262W        W78126   0.825  20.925  20.818  0.0642  0.0474 -0.3123
77263W        W78127  17.086   5.012  11.993 -0.0250 -0.1308  0.4258
77264W        W78128   5.418  25.442  21.621  0.0466  0.1667  0.2161
77265W        W78129  26.183   9.710  13.865  0.2908 -0.2269  0.4578
77266W        W78130  19.257   1.130   4.519  0.0700  0.0953 -0.3768
77267W        W78131  24.418   2.735   5.497  0.1390 -0.0404 -0.0871
77268W        W78132  20.053   2.943  17.005  0.1993  0.5273 -0.1200
77269W        W78133  26.050  13.342   0.423 -0.1163  0.0630 -0.0406
77270W        W78134  28.602   0.162  12.803  0.2186  0.1870 -0.2449
77271W        W78135  12.165   7.747  22.694 -0.1196 -0.0524  0.0917
77272W        W78136  28.137  13.823   6.941 -0.1506  0.2675 -0.2339
77273W        W78137   0.053  27.656   6.191  0.0541  0.1670  0.1249
77274W        W78138   5.370  28.454   3.240 -0.0554  0.1322 -0.0285
77275W        W78139  15.938  17.539  20.370  0.1886  0.0306 -0.2253
77276W        W78140   9.906  10.210   2.565 -0.0282  0.1229  0.2349
77277W        W78141  22.883  21.591  20.921 -0.2908 -0.2931 -0.0487
77278W        W78142  27.610   4.680   7.957 -0.1056 -0.1491  0.3675
77279W        W78143   5.190  21.112  23.391  0.1928 -0.0772  0.2817
77280W        W78144  16.241   1.970  17.700 -0.3084 -0.0100 -0.1432
77281W        W78145  15.012  24.706  17.612  0.2059  0.2818 -0.2126
77282W        W78146   9.824   4.216  18.231 -0.0682  0.0505 -0.1049
77283W        W78147   2.183   6.507   8.447 -0.0731  0.1461 -0.2487
77284W        W78148  14.807   9.656  18.022  0.0828 -0.1722 -0.2618
77285W        W78149  22.681  28.021  10.829  0.2274 -0.3201  0.2595
77286W        W78150   4.150  12.346   3.995  0.0648  0.0779  0.2833
77287W        W78151  26.623   4.374  17.757  0.1568 -0.3146 -0.0759
77288W        W78152   6.568  25.334  11.084  0.0303 -0.1061 -0.0448
77289W        W78153   8.137  16.246  28.508 -0.0341  0.0741 -0.0722
77290W        W78154  19.469  19.092  15.837  0.0216 -0.0031 -0.1299
77291W        W78155  24.071  25.869  16.618  0.3913 -0.0063  0.0184
77292W        W78156  16.812   4.375  14.539 -0.6845 -0.1309  0.0961
77293W        W78157  21.723   3.821   1.910 -0.0505 -0.1508 -0.2454
77294W        W78158  27.747  10.366  13.442  0.2989 -0.0768  0.1870
77295W        W78159  26.391   8.299  19.994 -0.0180 -0.0904  0.0185
77296W        W78160  15.087  10.508  20.363  0.0602 -0.3781 -0.0563
77297W        W78161  24.952  28.293   8.267 -0.0254 -0.0832 -0.1021
77298W        W78162  19.684  27.403   1.111 -0.0486  0.1027  0.1154
77299W        W78163  23.114   0.593  18.216  0.2062  0.0067  0.5209
77300W        W78164  20.317  15.429   7.001 -0.1427 -0.1033  0.0644
77301W        W78165  28.557  14.531  13.172  0.1744  0.2956 -0.4097
77302W        W78166   3.446  28.932  21.634  0.1600 -0.2290  0.1649
77303W        W78167  22.450  11.650   2.601 -0.2618  0.1922  0.1233
77304W        W78168  22.379   8.086  26.664 -0.3171  0.0969  0.2924
77305W        W78169  13.688   1.487  12.309  0.0553 -0.0357  0.1245
77306W        W78170  27.573  14.365  28.228  0.1528 -0.1581  0.2290
77307W        W78171  24.682  11.903  28.713 -0.2912  0.0033  0.0189
77308W        W78172  17.200  21.451   9.026 -0.0368  0.1476  0.2312
77309W        W78173  18.798  12.452   8.215  0.0162 -0.1220  0.0739
77310W        W78174  14.437  26.542   2.956 -0.2893  0.0847 -0.4823
77311W        W78175  19.151  22.596   1.272  0.3261  0.2980 -0.1567
77312W        W78176   0.959  12.716  22.939 -0.1054  0.2937  0.0492
77313W        W78177   0.958   2.835   6.786 -0.0986 -0.0659 -0.0594
77314W        W78178  11.472  15.710   6.120  0.1371 -0.1405 -0.0094
77315W        W78179  17.023  23.291  19.436 -0.0027 -0.4208 -0.1283
77316W        W78180   7.110  13.754  19.246 -0.0293 -0.0403 -0.0711
77317W        W78181   3.218  20.921   8.171  0.2698  0.0043  0.0362
77318W        W78182  17.416  23.630  15.534 -0.1632  0.3894  0.0916
77319W        W78183  26.008  13.138  23.233 -0.0720  0.0000  0.0929
77320W        W78184  10.320   9.789  17.138 -0.0839 -0.2558 -0.5027
77321W        W78185  15.781  17.040  12.676  0.1888  0.1560 -0.1772
77322W        W78186  18.892  24.778   7.410 -0.1697 -0.0602 -0.0945
77323W        W78187  19.101  15.546  23.036  0.0044 -0.1595  0.1287
77324W        W78188  27.012  23.808   9.865 -0.0179 -0.4120  0.1091
77325W        W78189  10.103  10.371  25.988  0.0069 -0.1148  0.0574
77326W        W78190  12.369   9.502  27.655 -0.3018 -0.0813  0.0606
77327W        W78191  24.794  14.773   4.753 -0.0528  0.0734  0.0279
77328W        W78192  10.473  25.881  14.246  0.1506 -0.0880 -0.1088
77329W        W78193  14.514  10.639  11.485 -0.1253 -0.2174  0.0310
77330W        W78194   1.391   5.159  16.833  0.0910 -0.0942 -0.1475
77331W        W78195   7.625  27.107  19.545 -0.1390 -0.0072  0.2352
77332W        W78196   8.261  19.886  17.866 -0.2862 -0.0025  0.0437
77333W        W78197  16.959   4.373  12.402  0.1379  0.0618 -0.2986
77334W        W78198  28.258   7.371  12.409 -0.0119 -0.2581 -0.1892
77335W        W78199  20.892  15.766  27.368  0.2657 -0.0734  0.0815
77336W        W78200  19.063  23.627   3.616 -0.2288 -0.1892 -0.0596
77337W        W78201   4.639  27.550  13.684  0.4874  0.0696  0.1242
77338W        W78202   7.727  29.044   5.234  0.1011 -0.1037  0.0904
77339W        W78203  27.227   2.351   3.680  0.1729 -0.0984 -0.1938
77340W        W78204  23.530   9.980   5.984  0.1446 -0.2437  0.3294
77341W        W78205  20.088   5.831  19.544 -0.2586  0.0106  0.0825
77342W        W78206  14.871  26.840  15.096 -0.1039  0.2050  0.2047
77343W        W78207   6.121  25.214  20.577 -0.1924 -0.1279  0.1027
77344W        W78208   4.933  12.565  12.720 -0.0864  0.0945 -0.0050
77345W        W78209  29.108  28.381  23.459  0.1993 -0.1470  0.7453
77346W        W78210   2.795  17.816  16.415 -0.0875 -0.0495  0.1318
77347W        W78211   0.452   5.158  16.328  0.0150  0.1199 -0.2467
77348W        W78212   6.874  25.415  13.912  0.1264  0.3794 -0.0112
77349W        W78213   2.704  23.715  18.760  0.0153  0.0361  0.1908
77350W        W78214  20.989  26.865  10.155 -0.1206 -0.1157 -0.1553
77351W        W78215  17.495   3.491   2.690 -0.0614 -0.1032  0.2152
77352W        W78216  19.337  27.444  27.090  0.3710  0.0045 -0.4710
77353W        W78217  23.204  23.302   8.312 -0.1181  0.2471  0.2138
77354W        W78218   1.927   3.675   5.272  0.2661  0.3269  0.1235
77355W        W78219  14.441   1.104   6.491 -0.0722 -0.0150 -0.2893
77356W        W78220  20.667  20.231  25.218  0.5765 -0.1566  0.0951
77357W        W78221  18.922  14.188  12.793 -0.1008  0.2058 -0.0340
77358W        W78222   1.662  28.844  11.654 -0.1373 -0.0079  0.1469
77359W        W78223  14.382  21.945   3.599 -0.0666 -0.1807  0.1143
77360W        W78224  21.980  22.695  23.856 -0.1529 -0.6059  0.1540
77361W        W78225   2.387  19.068  17.583  0.0860 -0.1680  0.0286
77362W        W78226  24.982   6.637  14.658 -0.0481  0.1605 -0.1765
77363W        W78227  11.616  12.914  24.033 -0.0191 -0.0977  0.0222
77364W        W78228  28.634  13.254  21.337 -0.3646 -0.3053  0.1237
77365W        W78229  21.038  12.587  18.563  0.1245  0.3417  0.2025
77366W        W78230  24.059  16.849  13.931 -0.0226  0.3499 -0.0590
77367W        W78231  25.210  20.289  23.322  0.1686  0.1558  0.0181
77368W        W78232  26.651  16.829   3.634  0.0848 -0.4126  0.0230
77369W        W78233  17.540   0.988   7.379  0.2690 -0.0167  0.0165
77370W        W78234  10.322  12.553  15.430  0.0968  0.0422  0.1213
77371W        W78235  12.031  16.414  10.899  0.0246 -0.0042  0.0822
77372W        W78236  13.113  20.017  13.114 -0.1082  0.1440 -0.0170
77373W        W78237  15.992  14.773  25.650 -0.0174  0.0444 -0.2206
77374W        W78238  27.148  14.391  14.706  0.1585  0.2168 -0.0173
77375W        W78239   3.636   7.153  11.975 -0.0394 -0.2428  0.0088
77376W        W78240  17.772  28.777  17.259  0.0074 -0.0350 -0.0523
77377W        W78241  24.583  21.375  21.875 -0.2002 -0.1776  0.3115
77378W        W78242  13.892  28.712  12.754 -0.3349  0.1043  0.0314
77379W        W78243  14.759  24.938  23.261 -0.1315  0.1823 -0.3310
77380W        W78244  23.709   2.178  14.718 -0.0613 -0.1810 -0.1851
77381W        W78245  24.675  10.503  14.744  0.1911  0.1423 -0.2966
77382W        W78246  16.517  25.649  18.377 -0.3293  0.2122  0.1268
77383W        W78247   1.598   2.125   5.428  0.0741 -0.0647 -0.1069
77384W        W78248  20.481  19.069  19.604  0.0397  0.2051  0.2000
77385W        W78249  26.156  12.986  19.632 -0.1475  0.0964  0.1511
77386W        W78250  24.617  27.604   3.732 -0.1062  0.1684  0.2023
77387W        W78251  28.862  26.982  17.311  0.1166 -0.0108 -0.1076
77388W        W78252  19.896   6.773  23.885 -0.1972 -0.0406 -0.0412
77389W        W78253   1.112  10.749  28.692 -0.0235  0.5203  0.1203
77390W        W78254  23.358   6.659  22.772 -0.1585  0.1181 -0.2196
77391W        W78255  28.806   3.224  19.614  0.4696  0.1463  0.0508
77392W        W78256  21.071  21.517   0.043 -0.2229 -0.0377  0.0702
77393W        W78257  21.379  25.899  15.652  0.1278 -0.4371  0.0278
77394W        W78258   2.514  17.025  24.351 -0.0191 -0.0400  0.1436
77395W        W78259   9.231   8.108   5.678  0.3473 -0.0198 -0.1607
77396W        W78260   1.955   2.134   9.453  0.2321 -0.0322  0.1271
77397W        W78261   6.074  24.085  13.418  0.0024 -0.2363 -0.1409
77398W        W78262   4.136  20.129   7.142  0.1806 -0.3184 -0.1324
77399W        W78263  24.015  14.474   4.367  0.0237 -0.2236 -0.1122
77400W        W78264  20.382  28.151   5.698 -0.1771 -0.2836  0.3741
77401W        W78265  25.899  16.242  18.000 -0.0276  0.1815 -0.0566
77402W        W78266  14.629   3.394  16.691  0.3096 -0.0778  0.1429
77403W        W78267  19.293  12.484  12.969 -0.0903 -0.0616  0.1539
77404W        W78268  19.861  22.325  26.988  0.1439  0.0211 -0.1086
77405W        W78269  24.947  29.126   6.587 -0.0344 -0.2044  0.1171
77406W        W78270   4.720  20.959   6.894  0.1806 -0.1267 -0.2870
77407W        W78271   5.433   2.025   5.373 -0.1523 -0.3157 -0.2498
77408W        W78272  19.935  23.806   4.205 -0.0550 -0.0906 -0.1985
77409W        W78273  14.834   4.160   1.586 -0.1027  0.1709  0.1872
77410W        W78274  27.992  18.554  20.290  0.0440  0.1094 -0.0074
77411W        W78275  18.218  13.333  12.881 -0.0427 -0.0622 -0.2752
77412W        W78276  28.029  15.238  13.253  0.3188 -0.2483 -0.1618
77413W        W78277  20.039   6.051  18.599  0.2791 -0.0204  0.1043
77414W        W78278  20.487  25.385   6.698 -0.3028 -0.1516 -0.1374
77415W        W78279   8.283  23.318   2.778 -0.4278  0.3519  0.0095
77416W        W78280   2.504  26.743   7.707 -0.1377 -0.2127  0.0771
77417W        W78281  15.242   0.754  16.307  0.1278  0.0938 -0.4026
77418W        W78282  19.274  17.365  12.597 -0.0961 -0.1841  0.2073
77419W        W78283  21.851   9.060  21.742  0.1726 -0.1494 -0.2088
77420W        W78284   8.259  18.788  27.039 -0.0412  0.1882  0.4526
77421W        W78285  16.645   8.094  22.029  0.1625 -0.3044 -0.0944
77422W        W78286  28.928  22.931  12.943  0.0525  0.0730 -0.1664
77423W        W78287  27.703  26.135  17.869  0.1679  0.1120  0.1509
77424W        W78288   0.361   6.806   6.625 -0.2077 -0.0151 -0.0014
77425W        W78289  14.288   4.928  20.212  0.0793 -0.1237  0.0936
77426W        W78290  17.578   3.732  25.442 -0.1982  0.1668 -0.0263
77427W        W78291   4.901  11.759  20.851  0.0373 -0.3042 -0.1402
77428W        W78292  21.690  13.499  28.662 -0.1699 -0.2333  0.2729
77429W        W78293  21.882  17.190  26.771 -0.2097 -0.0040  0.2941
77430W        W78294   3.666  15.315  23.549  0.0344 -0.2048 -0.0482
77431W        W78295  23.650  21.029  14.161  0.0415  0.1354 -0.2777
77432W        W78296   3.232   1.204   2.423  0.0535 -0.1114 -0.1443
77433W        W78297  26.784  11.495  27.092  0.0755  0.4308  0.1469
77434W        W78298  11.895   1.849  15.411  0.0849 -0.4375  0.0027
77435W        W78299  24.088  17.248  14.734  0.0918 -0.0444  0.1015
77436W        W78300  12.780  18.959  13.775  0.1557  0.1631  0.1695
77437W        W78301  24.128  27.047  23.727  0.2381  0.0813 -0.0182
77438W        W78302   4.819   2.486   3.116  0.0545  0.2891 -0.0641
77439W        W78303   6.599  10.345  16.046 -0.0229 -0.0683 -0.2484
77440W        W78304  10.914   4.050  17.299 -0.2850  0.0895  0.2117
77441W        W78305  28.852   2.648   6.734  0.6473 -0.0685  0.0495
77442W        W78306   9.465   5.743  10.515 -0.0811 -0.0035  0.2055
77443W        W78307  25.184   0.278   4.401  0.1993 -0.0125  0.0980
77444W        W78308   7.993  23.429   2.351  0.4192  0.1876 -0.0729
77445W        W78309  24.888  16.523  19.090  0.0962  0.1319  0.2075
77446W        W78310   0.423   0.927  12.145  0.3245 -0.2058 -0.1721
77447W        W78311  22.533  26.600  17.450 -0.1446 -0.2189 -0.5057
77448W        W78312  23.829  16.827   7.757  0.2047 -0.1670 -0.0722
77449W        W78313   0.726   4.507   5.730  0.0832  0.1240  0.1030
77450W        W78314   4.866  28.157   5.487 -0.0795 -0.1422 -0.1580
77451W        W78315   3.637  22.792   4.218 -0.0278 -0.2888  0.3967
77452W        W78316  19.833   0.353  27.326 -0.0234  0.1138 -0.0796
77453W        W78317  27.697  22.409   0.009  0.0252 -0.1620 -0.1662
77454W        W78318  24.767  22.804   4.200 -0.0255 -0.1848 -0.1127
77455W        W78319  11.682  27.784   5.924  0.1908 -0.0226 -0.0024
77456W        W78320  20.714  20.596  14.189  0.1039  0.1010 -0.0125
77457W        W78321  25.859  23.919  17.018  0.0798 -0.0045 -0.1209
77458W        W78322  16.440  22.945   7.129 -0.0028 -0.1561  0.0834
77459W        W78323  13.896  25.255   1.012  0.0396  0.1719  0.2103
77460W        W78324  25.306  21.277  12.662  0.1024 -0.3295 -0.5250
77461W        W78325  15.531   6.298  18.569  0.0895 -0.3671  0.1465
77462W        W78326   5.572  11.205   5.043 -0.1294  0.0035 -0.0838
77463W        W78327  24.140  25.316   6.090  0.0775 -0.0250  0.1521
77464W        W78328   3.367  17.156  25.413 -0.1676 -0.0832 -0.2424
77465W        W78329  14.623  18.438  24.068 -0.0364 -0.1264  0.1887
77466W        W78330   0.508  27.543   5.612 -0.1880  0.1178  0.1918
77467W        W78331   1.830  15.697  11.884  0.0739  0.2426 -0.0924
77468W        W78332  10.983  16.574  17.497  0.1175  0.0852  0.0309
77469W        W78333  18.086   2.100  18.273  0.2296  0.0164 -0.0292
77470W        W78334  27.938  11.322   9.621  0.1115  0.0949 -0.2111
77471W        W78335  18.796  20.221  11.964 -0.0575 -0.1294  0.3302
77472W        W78336  23.394  16.940  16.086  0.2494 -0.1006  0.0863
77473W        W78337  20.693   3.192  21.604 -0.3658 -0.1639 -0.3091
77474W        W78338   1.870   0.287  21.470 -0.2152 -0.1941 -0.4719
77475W        W78339  17.865  23.969  16.421  0.3126  0.4677 -0.0721
77476W        W78340  19.577   0.255  14.771 -0.1070 -0.1981 -0.0740
77477W        W78341   1.037   1.606   3.287 -0.0987  0.1316 -0.0367
77478W        W78342   5.460  12.461  10.380  0.2850  0.3851 -0.0783
77479W        W78343  27.623  17.590  20.345  0.1507  0.0452  0.0219
77480W        W78344   8.640  16.674   3.066 -0.0750 -0.0703 -0.0384
77481W        W78345  20.730  12.386   1.911 -0.0257  0.0433 -0.0390
77482W        W78346  22.228   0.743  11.237 -0.0347 -0.0882  0.4044
77483W        W78347  25.444   2.945  27.019 -0.2367  0.1885  0.1260
77484W        W78348  16.080  15.026  12.804  0.2379 -0.1567 -0.2613
77485W        W78349   8.085   4.677  27.973 -0.0123 -0.2340 -0.1322
77486W        W78350   8.465  26.169   4.320 -0.2899  0.2100  0.0499
77487W        W78351  22.139   7.243  10.051 -0.2617 -0.0151  0.3451
77488W        W78352   2.329  14.814  11.161 -0.1015 -0.2594  0.1500
77489W        W78353   1.714  14.465  29.067 -0.0772  0.2028 -0.1381
77490W        W78354  26.670  27.318  19.236  0.0857  0.5309  0.2077
77491W        W78355  14.202  28.706  23.853  0.0722 -0.0865  0.0907
77492W        W78356  23.720  24.640   9.741 -0.0048 -0.2210  0.3878
77493W        W78357  14.777  24.715  19.210  0.0789 -0.0574  0.0573
77494W        W78358   1.440  20.331  18.982  0.2868  0.1663 -0.0782
77495W        W78359   5.516  12.314  13.399  0.0289 -0.0251  0.1057
77496W        W78360  14.404  22.309  21.963 -0.2295  0.2925 -0.1642
77497W        W78361  17.850   7.287   9.100  0.1564  0.1014 -0.1860
77498W        W78362  10.075  20.997   3.703 -0.3953 -0.2713 -0.0672
77499W        W78363  18.867  19.114  26.648  0.1423  0.0367  0.1993
77500W        W78364  20.678  26.168  28.645  0.2306  0.0394  0.0646
77501W        W78365  19.165  21.368  15.379 -0.0086 -0.2003  0.0636
77502W        W78366  15.440  11.266  12.214  0.3349 -0.0270 -0.1523
77503W        W78367  17.555  28.602   2.384 -0.2147 -0.1841  0.0426
77504W        W78368  28.072  20.293   9.157  0.1606  0.0537 -0.0822
77505W        W78369  21.420   5.706  26.499  0.0560  0.2270 -0.1082
77506W        W78370   0.091  11.395  27.577 -0.0459 -0.0587 -0.1495
77507W        W78371  13.981   5.168  27.152 -0.3980 -0.1996 -0.1661
77508W        W78372   5.231  14.121   8.469  0.0666 -0.0797  0.1863
77509W        W78373  19.416   5.142   8.912 -0.1465 -0.1391 -0.0668
77510W        W78374   4.494  12.440  11.887  0.2451 -0.1550  0.1827
77511W        W78375   5.816   2.433  10.731 -0.0582 -0.0752  0.2853
77512W        W78376  19.417  11.122  13.544  0.2993 -0.0951 -0.1349
77513W        W78377  25.706  22.995  17.197  0.2637 -0.0634 -0.2336
77514W        W78378  16.460  25.942  25.069 -0.2081 -0.0933  0.2304
77515W        W78379  17.435  25.014  27.884 -0.1405 -0.0481  0.0585
77516W        W78380  25.179  23.213  18.000  0.0833 -0.1658  0.0898
77517W        W78381   6.374   9.461  22.827 -0.0676 -0.0748 -0.1629
77518W        W78382   0.501  28.532  13.215  0.0184 -0.3213 -0.2034
77519W        W78383  23.491   2.506  24.976 -0.2588 -0.1063  0.1330
77520W        W78384  22.752  26.141  10.375  0.1577 -0.0464  0.2123
77521W        W78385   3.414  27.008   0.851 -0.4017  0.0693  0.1532
77522W        W78386  16.327  24.010  14.963 -0.1726 -0.1273 -0.3307
77523W        W78387  12.524   9.037  18.187  0.0415 -0.0997 -0.2394
77524W        W78388  24.820  26.234  22.938  0.0289 -0.1731 -0.0915
77525W        W78389   9.003  21.900  13.678  0.2394  0.0009 -0.0076
77526W        W78390  24.928   0.385  12.891 -0.0271 -0.0447  0.0665
77527W        W78391   3.506  18.452  20.096 -0.1580  0.2638  0.0344
77528W        W78392  23.058  17.846   6.756  0.2377  0.3860 -0.0904
77529W        W78393   5.564  25.308  23.729  0.3029  0.2380  0.0528
77530W        W78394   8.194   4.399  11.738 -0.1247  0.0177  0.1818
77531W        W78395   7.554  20.550  12.622 -0.4156  0.0771 -0.2960
77532W        W78396  17.318   2.449  18.394  0.1714  0.0745  0.1435
77533W        W78397   4.982  23.356  14.398  0.0565  0.0917  0.3449
77534W        W78398  15.249   9.838   5.899 -0.1589 -0.0285 -0.2445
77535W        W78399  14.503   4.923   8.625  0.1221  0.1591  0.0049
77536W        W78400   0.169  14.716  12.964 -0.2199 -0.0046  0.0954
77537W        W78401  15.400  10.808  18.308  0.0806  0.1788 -0.1368
77538W        W78402  11.907  25.418  13.568  0.2652 -0.2625 -0.3289
77539W        W78403  10.957  28.632  16.189 -0.1767  0.2937  0.2342
77540W        W78404   1.072  19.125   8.759 -0.0727  0.1419 -0.0020
77541W        W78405  15.093  28.329  13.025 -0.1033 -0.0175 -0.0562
77542W        W78406  24.777  13.352   4.454 -0.1386  0.2467  0.0596
77543W        W78407  23.251  13.149  15.661 -0.1795  0.2615  0.0276
77544W        W78408  24.704  26.329  25.120 -0.0673 -0.0188 -0.2281
77545W        W78409  11.819  14.722  22.409 -0.1445  0.0087  0.0024
77546W        W78410  25.383  19.634  16.781  0.3128  0.1193  0.1446
77547W        W78411  21.327  21.688   6.631 -0.4079 -0.1408  0.1537
77548W        W78412   6.134  19.104  28.163 -0.0727  0.0086  0.0804
77549W        W78413   4.959   1.255   5.300 -0.0272 -0.1148  0.1870
77550W        W78414   1.002  15.375  10.850  0.0066 -0.1250  0.0432
77551W        W78415  19.073   8.421  10.208  0.1206 -0.2079  0.1629
77552W        W78416   0.096  21.238   1.235 -0.1330 -0.0637  0.2020
77553W        W78417  28.586   5.089  10.235  0.5211 -0.0103 -0.0772
77554W        W78418  29.130   4.293  15.797 -0.3600  0.0055  0.0406
77555W        W78419  24.594   9.754  28.121 -0.0564 -0.0638 -0.1179
77556W        W78420   1.732  28.880   3.037 -0.1226 -0.4061  0.1621
77557W        W78421  11.689   8.206  14.068 -0.1085  0.1850  0.1908
77558W        W78422  26.987   7.431   1.437 -0.1461 -0.0133  0.0752
77559W        W78423  22.928  15.445  12.118 -0.0547 -0.2038  0.0026
77560W        W78424  22.661  14.192  21.905  0.2375 -0.2089 -0.0349
77561W        W78425  13.410  13.531  19.129 -0.0519  0.2819 -0.3439
77562W        W78426   6.970  20.121  11.157  0.1463  0.1450 -0.1361
77563W        W78427  12.250  14.622  19.218  0.0248  0.0868 -0.1715
77564W        W78428  23.000  10.247   5.281  0.3191 -0.3179 -0.2009
77565W        W78429   0.495  20.113  19.756 -0.1975 -0.3334 -0.0389
77566W        W78430  19.621  24.542   6.721 -0.1589 -0.1241 -0.0603
77567W        W78431  24.707   2.407  15.916  0.0970  0.4423 -0.1577
77568W        W78432  24.849  25.172   6.390  0.2540 -0.0243  0.2534
77569W        W78433  22.086  23.330  20.126  0.0155 -0.0236 -0.1020
77570W        W78434   3.868   8.734  22.993  0.4753  0.3936  0.2849
77571W        W78435  18.189   9.439  25.698 -0.0632 -0.1893 -0.0644
77572W        W78436  27.785  16.377  21.538 -0.2643  0.1989  0.1481
77573W        W78437  13.095  24.831  17.665 -0.0076 -0.0132  0.0380
77574W        W78438  10.215  27.147   7.498  0.0858 -0.1644  0.0721
77575W        W78439   1.111   2.460  27.531  0.3510  0.2846 -0.1011
77576W        W78440  13.093  28.501  27.595 -0.0568  0.2269  0.0542
77577W        W78441  24.272  25.332  17.951 -0.0330 -0.1370 -0.0481
77578W        W78442  27.756  10.043  22.733 -0.1115  0.0661 -0.0493
77579W        W78443  21.995  17.776  18.980  0.1363  0.1365  0.0078
77580W        W78444  14.702  18.938  17.507  0.0316  0.2973 -0.1860
77581W        W78445  18.044  27.780  14.708 -0.1009  0.1007  0.2158
77582W        W78446  15.806   9.284  19.633  0.1390  0.1924  0.3328
77583W        W78447  17.606   7.025  18.645  0.3945 -0.0982 -0.0219
77584W        W78448  22.706  10.831  12.509 -0.0840  0.4276  0.1695
77585W        W78449   7.522   8.502   5.517 -0.0427  0.1875  0.2612
77586W        W78450   0.144  10.604   0.606  0.3162  0.1394  0.0387
77587W        W78451  18.479   1.601  23.449  0.0101  0.0176  0.2238
77588W        W78452   9.122  22.488   2.483  0.0491 -0.3064 -0.2747
77589W        W78453   5.079   6.021  22.017  0.1565 -0.0986  0.3176
77590W        W78454  25.656  18.473  21.683 -0.0105 -0.1098 -0.2737
77591W        W78455  24.852  17.219  24.609 -0.2907 -0.1331 -0.3214
77592W        W78456   0.056   9.591   9.105 -0.1097  0.1898  0.0035
77593W        W78457   0.750   1.306   7.775 -0.1456 -0.3170  0.2353
77594W        W78458  13.128  28.969  11.144 -0.0450 -0.0374  0.0027
77595W        W78459  20.833  16.977   5.060  0.1038 -0.1184 -0.1501
77596W        W78460  28.018   3.792  20.677  0.1034  0.0424 -0.1313
77597W        W78461   0.808  26.513  22.166 -0.0345  0.1528 -0.1034
77598W        W78462   0.873  17.768  12.700 -0.0124 -0.0847  0.0562
77599W        W78463  26.474  10.265  18.017 -0.0564 -0.0990  0.2784
77600W        W78464  21.704   3.836   9.923 -0.1234 -0.2201 -0.1128
77601W        W78465  27.889  29.000  19.768  0.2423  0.0394 -0.2543
77602W        W78466  16.010  17.989  11.846 -0.1002  0.0873  0.0491
77603W        W78467  27.462  12.759  22.300 -0.1147  0.0697 -0.1459
77604W        W78468  25.197   6.433  18.265  0.0752 -0.2369  0.0529
77605W        W78469  28.658   5.616  27.621 -0.0355  0.1781 -0.0328
77606W        W78470  17.861   6.025   4.531 -0.0241 -0.0365  0.0193
77607W        W78471  22.799  28.499  16.343  0.1924  0.2105  0.2211
77608W        W78472   0.564  20.087   5.444 -0.2070  0.1896  0.2856
77609W        W78473  20.603  16.943  14.688  0.4494 -0.2557 -0.0761
77610W        W78474  20.440   1.566   3.865 -0.2649  0.0752  0.1868
77611W        W78475  23.619   1.075   2.796  0.0003  0.2015 -0.1798
77612W        W78476  28.741  25.336  15.080  0.2225 -0.0497 -0.0497
77613W        W78477  11.232   9.687  14.934  0.0463 -0.2505 -0.0770
77614W        W78478  19.954  17.319   3.058  0.1031 -0.1485 -0.1013
77615W        W78479  19.069   6.973  13.215  0.0917 -0.1880 -0.0458
77616W        W78480  23.842  28.079  10.376  0.0059  0.1555 -0.3410
77617W        W78481  23.050  14.953  17.882  0.1190  0.0756  0.0212
77618W        W78482  10.414  22.282  13.775  0.2427 -0.0921 -0.3353
77619W        W78483  24.672  21.339  18.396  0.2620 -0.1093  0.4640
77620W        W78484  20.186  28.849  22.235 -0.0713 -0.2937  0.1971
77621W        W78485   8.461  11.475   0.245  0.2975 -0.0363  0.1339
77622W        W78486   6.505   7.671  24.633 -0.0486  0.2564  0.3859
77623W        W78487  17.396  16.792  10.165  0.1485 -0.3838  0.1985
77624W        W78488   0.436   1.817   1.971  0.1692 -0.3373  0.4867
77625W        W78489   7.398  18.123  16.197  0.0939  0.0653 -0.0942
77626W        W78490  17.576  21.280  15.394  0.1465 -0.2383  0.1399
77627W        W78491  12.086  19.205   7.134 -0.1596  0.0379  0.1253
77628W        W78492  16.137  14.227  23.437  0.0398 -0.2158  0.2992
77629W        W78493   7.533  19.139   0.742 -0.0206 -0.0250  0.0715
77630W        W78494  25.866  24.242   3.793 -0.0184 -0.1408 -0.1353
77631W        W78495  25.690   7.629  26.630 -0.1807  0.1168 -0.1851
77632W        W78496  19.797   9.817  10.598  0.0784  0.1177 -0.1056
77633W        W78497   3.367  28.658   6.571  0.0318 -0.1023  0.0169
77634W        W78498  24.805  12.820  25.188  0.1492  0.1786 -0.0109
77635W        W78499  20.373  22.959  20.886 -0.0883 -0.3597  0.2033
77636W        W78500   3.361  26.435   6.199 -0.1645  0.1200  0.1067
77637W        W78501  17.296   1.422   5.835  0.2962  0.0764  0.2593
77638W        W78502  22.683  16.588  12.908 -0.3465 -0.3650 -0.0137
77639W        W78503   2.984   8.174   5.830  0.0064  0.0778  0.3964
77640W        W78504  25.022  27.955  16.212 -0.0704 -0.1834  0.0336
77641W        W78505   1.096   6.575  24.017 -0.0425 -0.0088 -0.1089
77642W        W78506  23.642   5.916  21.159  0.2902 -0.2795 -0.1321
77643W        W78507   1.187  23.637  16.339 -0.2092 -0.1114  0.2413
77644W        W78508  23.000  28.778  10.970  0.1180 -0.3188 -0.0888
77645W        W78509  26.444  26.888  21.105  0.0638  0.0096 -0.2829
77646W        W78510   8.593  26.426  14.252  0.2374 -0.3420  0.0567
77647W        W78511  13.186  22.039  18.464  0.3362 -0.2163 -0.0269
77648W        W78512   0.300  20.536  19.588  0.2701  0.0445 -0.3205
77649W        W78513  23.406  13.036  25.421 -0.1299  0.0182  0.0127
77650W        W78514   9.942   1.357  11.545 -0.0793 -0.2544 -0.1622
77651W        W78515   6.742  28.597  28.972 -0.0466 -0.0959 -0.0465
77652W        W78516  10.536   0.332   3.194  0.2569  0.2271 -0.0011
77653W        W78517  20.940  18.664  12.013 -0.3833  0.0382  0.3269
77654W        W78518  23.981   7.880   1.710 -0.1353  0.0387  0.0779
77655W        W78519   5.661  20.964  14.972  0.0392 -0.0059 -0.0415
77656W        W78520   4.581  24.791  24.686 -0.0958 -0.1658  0.0788
77657W        W78521  21.858   5.427  15.651  0.1935  0.1561 -0.1022
77658W        W78522  21.959  15.407  22.536  0.2272 -0.3332 -0.2296
77659W        W78523  28.609  10.202   4.020 -0.2739  0.0640  0.1074
77660W        W78524  14.950  25.129  26.968 -0.0219  0.0515  0.0835
77661W        W78525   0.586  28.137  17.335 -0.0427  0.0282 -0.2813
77662W        W78526  22.643  14.142  10.873 -0.1266  0.0927 -0.0527
77663W        W78527  17.701  18.799   9.134  0.0957 -0.1904  0.2484
77664W        W78528  27.677   9.882   7.888  0.0914 -0.0778  0.2153
77665W        W78529  27.608  19.930  11.738 -0.1202 -0.1285  0.1420
77666W        W78530  24.124   4.054   7.309 -0.0667  0.1238  0.0817
77667W        W78531  24.199   7.909  19.588  0.2653  0.0903 -0.1814
77668W        W78532  11.730  22.716   7.419  0.1210 -0.2072 -0.0054
77669W        W78533  13.739   2.500  16.628  0.1231  0.1214  0.2038
77670W        W78534  17.095  12.513  27.164  0.4203 -0.1183  0.0229
77671W        W78535  27.083  20.028  10.904 -0.2914 -0.0152  0.2403
77672W        W78536  25.045   2.755  17.548  0.0311 -0.1584 -0.0348
77673W        W78537   6.441  14.762  19.703  0.1614  0.1292 -0.5469
77674W        W78538  22.475  28.203  21.571  0.1091  0.3034  0.0918
77675W        W78539  27.848   1.386   9.240 -0.2149  0.1786 -0.1294
77676W        W78540   8.982  28.602  12.167  0.1386  0.0182  0.1703
77677W        W78541  15.253  23.221   1.440  0.1356 -0.0358  0.1593
77678W        W78542  21.373  15.735  24.813  0.0784  0.0368  0.0321
77679W        W78543   8.187  22.321  15.143  0.0994 -0.0213 -0.0987
77680W        W78544  10.333   3.162  13.695  0.1208 -0.0226  0.3204
77681W        W78545   7.999   0.863  17.589 -0.1382 -0.0386  0.2588
77682W        W78546  12.467  17.410  18.354  0.2726  0.0530 -0.3167
77683W        W78547  13.558  24.391  18.258  0.0147  0.1854 -0.0784
77684W        W78548  15.216  11.183   5.348  0.0792  0.0354 -0.1267
77685W        W78549  21.580  27.487  28.600 -0.1768  0.0464  0.1129
77686W        W78550  28.539   2.890   4.904  0.0563 -0.0024  0.0265
77687W        W78551  21.367  13.307  24.966 -0.3063 -0.1272 -0.3104
77688W        W78552  28.686  24.603   1.688  0.2111 -0.1368  0.0872
77689W        W78553  14.685   9.563  16.394 -0.2723 -0.0678  0.3675
77690W        W78554  17.774   5.123  14.074  0.0073 -0.3450 -0.0928
77691W        W78555  20.063  12.406  14.604  0.0865 -0.0191  0.1337
77692W        W78556  11.659  26.462  23.656 -0.3160 -0.1026 -0.0402
77693W        W78557   4.821  25.326  18.923 -0.0584  0.2134 -0.1324
77694W        W78558  20.985  20.771  10.341 -0.0750  0.0854  0.0146
77695W        W78559  18.614  28.860  12.001  0.4125 -0.0097 -0.4174
77696W        W78560  12.809   0.891  17.510 -0.3261 -0.3646 -0.0756
77697W        W78561   0.719  27.820  10.721  0.0876 -0.1141  0.1417
77698W        W78562  27.238  15.995  15.956 -0.0765 -0.0129  0.1763
77699W        W78563  15.873  21.960   7.892 -0.2056 -0.2153  0.1228
77700W        W78564  16.930  10.814  24.607  0.1968  0.3861  0.1940
77701W        W78565   1.723  28.939  23.149  0.0641  0.1160  0.1707
77702W        W78566  19.563  10.539  11.007 -0.0682  0.0481  0.1043
77703W        W78567  27.841  10.591  28.688 -0.1492  0.0233 -0.1288
77704W        W78568  18.954  10.233  12.030  0.1060 -0.0266 -0.2382
77705W        W78569   8.931  26.289  13.897 -0.0429  0.0059 -0.0370
77706W        W78570   9.359  12.656   8.621 -0.0434  0.1461  0.1146
77707W        W78571  21.584   7.983  10.283 -0.3259 -0.0694  0.1083
77708W        W78572  11.170   8.518  15.448  0.0419  0.1952  0.0057
77709W        W78573   7.795  13.829  27.696 -0.0735  0.3063 -0.0914
77710W        W78574   8.415  17.783   0.920 -0.3039 -0.1740 -0.0503
77711W        W78575  18.593   9.237  10.907 -0.0210  0.2129  0.3196
77712W        W78576  16.562   2.983  18.563 -0.0600  0.2030 -0.3101
77713W        W78577  18.492   3.969   7.745  0.2792  0.0597 -0.1754
77714W        W78578  19.358  16.338   2.481 -0.1413  0.1383 -0.0833
77715W        W78579  20.632  28.851  22.565 -0.0932  0.0754 -0.0777
77716W        W78580   0.138  23.236  19.121 -0.0982 -0.0043 -0.0442
77717W        W78581  26.858  20.966  15.857 -0.0303  0.2394 -0.1953
77718W        W78582  10.570   1.799  26.719  0.0295 -0.0828  0.1485
77719W        W78583  22.379  15.829  22.469  0.0920 -0.3425 -0.0502
77720W        W78584  28.593  10.597  16.872 -0.0007 -0.1216 -0.0968
77721W        W78585  27.233  17.236   8.992 -0.0336 -0.4439 -0.2889
77722W        W78586  25.290   5.890  24.085  0.1367 -0.2407 -0.0615
77723W        W78587  12.074  21.739  20.806 -0.4461 -0.0860  0.0108
77724W        W78588  15.515   7.719   1.023 -0.1624 -0.0289  0.1035
77725W        W78589  27.541  24.428  22.243  0.2157  0.2105 -0.1063
77726W        W78590   0.647   3.739  13.423  0.0626  0.1509 -0.2022
77727W        W78591   7.456  25.912  17.620 -0.0671 -0.0588  0.1598
77728W        W78592  12.207  17.667  15.140  0.3061 -0.0888 -0.1459
77729W        W78593  24.319  27.189   1.913 -0.0561 -0.0160  0.0518
77730W        W78594  18.211  10.408   6.651 -0.1356  0.1691 -0.0139
77731W        W78595   0.744   3.653  24.731  0.1806  0.1908 -0.4537
77732W        W78596  10.186  22.897  18.346 -0.0630 -0.0132 -0.0555
77733W        W78597  27.303  17.959   5.009 -0.1076 -0.1230 -0.1496
77734W        W78598   4.524  21.096  11.007  0.0724 -0.0532 -0.1413
77735W        W78599  22.776  14.794  19.366  0.1420 -0.0688  0.1979
77736W        W78600  11.171   5.244  11.552 -0.1065  0.0701  0.1310
77737W        W78601  12.868  16.880  11.091 -0.0715  0.1612 -0.1994
77738W        W78602   1.212   0.712   4.633  0.1526 -0.1134 -0.0570
77739W        W78603  12.264  26.912  15.500 -0.0541  0.1338 -0.2527
77740W        W78604   0.211   9.240   3.929  0.0318 -0.1224  0.1555
77741W        W78605  13.033  26.180  22.418 -0.0714 -0.1515 -0.0704
77742W        W78606   9.916  11.876   5.787  0.3146 -0.1728  0.2122
77743W        W78607   8.330  25.165  16.390  0.0885  0.0761 -0.1980
77744W        W78608  24.848  11.742   6.157  0.3145  0.1752 -0.0520
77745W        W78609  20.399   6.154   9.898  0.1151  0.1229 -0.1638
77746W        W78610  18.459  17.952  20.842 -0.0138  0.3077 -0.0803
77747W        W78611  20.087  27.773   8.097  0.1545  0.0556 -0.0194
77748W        W78612  21.805  22.336  10.507 -0.0594 -0.1958 -0.1065
77749W        W78613   5.151  26.698  24.058  0.0167  0.2865 -0.0750
77750W        W78614  10.936  27.263  18.852 -0.0901  0.0373  0.2300
77751W        W78615  17.642  20.047   6.143  0.3006 -0.0937 -0.0156
77752W        W78616  18.972  25.046  23.263  0.0959  0.2317 -0.1394
77753W        W78617  13.223  13.568  13.681 -0.1721  0.1524 -0.1382
77754W        W78618   7.949  24.807  18.043 -0.1458 -0.0471 -0.1187
77755W        W78619  17.067   0.421   2.600 -0.0681 -0.2132 -0.1703
77756W        W78620  28.939   3.597  27.447  0.0865  0.1130  0.1608
77757W        W78621  10.344  27.466  11.495 -0.1032 -0.0956  0.0445
77758W        W78622  15.669  26.877  13.023 -0.2026 -0.0028 -0.1682
77759W        W78623  15.040  14.377  23.941 -0.0834  0.1550 -0.1378
77760W        W78624  22.162  26.565  26.499 -0.1501  0.1003 -0.1334
77761W        W78625  12.234   0.069  14.433 -0.0656 -0.0050  0.3223
77762W        W78626  24.848   7.510  12.490 -0.0341  0.0281 -0.1985
77763W        W78627  12.511   6.343   8.872 -0.0232  0.3934  0.2848
77764W        W78628   5.717  20.021   4.597 -0.0717 -0.1917 -0.1503
77765W        W78629  22.783   7.774  26.581  0.0101 -0.1809 -0.1156
77766W        W78630  22.325  27.018  16.654  0.1389  0.0429  0.0207
77767W        W78631   9.949  12.587   4.318  0.2404  0.1739  0.3863
77768W        W78632   7.602  25.533  24.074 -0.0541  0.2821  0.1598
77769W        W78633  15.728  11.942  19.738  0.2405  0.2243 -0.0311
77770W        W78634  18.419  19.373  18.019  0.3171  0.1306  0.2528
77771W        W78635   5.490  21.772  20.897  0.1271  0.0685  0.1929
77772W        W78636  17.324  27.885   9.237 -0.1522 -0.0120  0.3556
77773W        W78637   2.883  27.516   9.938  0.3925 -0.2602  0.1797
77774W        W78638  22.533   7.181   6.216 -0.2437 -0.1791 -0.0390
77775W        W78639  28.102   6.304  11.596  0.2295 -0.0195 -0.1982
77776W        W78640   5.326  23.354  23.164 -0.1816 -0.0033  0.1916
77777W        W78641  15.682  18.367  23.778 -0.1445  0.1434 -0.0296
77778W        W78642   0.677  25.659   4.145  0.1740 -0.0574  0.0309
77779W        W78643   1.593  10.476   0.324 -0.2785  0.0900  0.0093
77780W        W78644  22.659  21.755   1.926  0.0738  0.0510  0.0082
77781W        W78645  19.421  16.415   6.849  0.0937 -0.1682 -0.2696
77782W        W78646   3.820  21.531  27.411  0.0399 -0.1093 -0.0390
77783W        W78647  13.897  20.628  14.561 -0.2537 -0.1405 -0.0780
77784W        W78648  27.240   0.164  10.965  0.4005 -0.1334  0.1225
77785W        W78649   2.062  12.814  22.067  0.2355  0.1442  0.1518
77786W        W78650  23.449  24.575  16.688 -0.0221  0.3408 -0.0940
77787W        W78651  17.246  28.975  20.461  0.1630 -0.1081  0.0006
77788W        W78652  15.948   7.078  11.334 -0.0582  0.3640 -0.4527
77789W        W78653   3.988   2.173  28.894 -0.0700 -0.0210 -0.3834
77790W        W78654  20.034  16.085  13.709  0.3315  0.2116 -0.0727
77791W        W78655  13.494  26.560  20.346  0.2370 -0.5290  0.0709
77792W        W78656   0.758  17.098  18.398 -0.0207  0.0648  0.1868
77793W        W78657  19.510  13.500  11.252 -0.4331 -0.3919  0.4153
77794W        W78658   5.601  24.142  13.407 -0.0909 -0.1252  0.0318
77795W        W78659   0.855  22.042  28.727  0.0598 -0.0174 -0.1563
77796W        W78660   5.883   2.724  18.668  0.0642  0.1231  0.0262
77797W        W78661  28.559  18.020  13.446  0.2938 -0.1162 -0.1643
77798W        W78662  16.219  25.117   1.063  0.0825  0.1162  0.0231
77799W        W78663  24.852   8.508  20.633  0.0478  0.2637 -0.0048
77800W        W78664  24.953  12.875  10.584 -0.0218 -0.1544 -0.2323
77801W        W78665  12.759   0.624  10.601  0.1536  0.3803  0.0109
77802W        W78666   8.188   6.438  16.223 -0.0159  0.0295 -0.3171
77803W        W78667   4.179   3.819   7.150 -0.3541  0.0634 -0.1997
77804W        W78668  19.808  22.427  16.307  0.1037  0.3244 -0.1061
77805W        W78669   8.164  18.173  13.782 -0.4638  0.0250 -0.0113
77806W        W78670  20.278  11.077  18.272  0.3909  0.2320  0.2084
77807W        W78671  24.409   5.998  12.319  0.1351 -0.1688 -0.0471
77808W        W78672   4.271  13.262   7.173 -0.0280 -0.0688 -0.1663
77809W        W78673   5.832  26.337  10.416  0.0029 -0.1803 -0.1384
77810W        W78674   1.178  11.700  11.328  0.1138 -0.0363 -0.2386
77811W        W78675  14.411   7.532   6.324  0.0892 -0.2051  0.2311
77812W        W78676   3.526  22.065  10.626  0.1761 -0.0763  0.0453
77813W        W78677  24.811  16.018  25.024 -0.1031 -0.0366 -0.3441
77814W        W78678  20.840  27.278   6.522  0.0187  0.0264  0.1180
77815W        W78679  28.541   6.333   1.828 -0.0228  0.1025 -0.0037
77816W        W78680  15.600   3.644  23.236  0.1647 -0.0044  0.0087
77817W        W78681   9.906   4.835  12.086  0.1159  0.0769  0.0736
77818W        W78682   6.729  25.356  29.051  0.0232 -0.0931  0.1444
77819W        W78683  23.728   9.361   0.498 -0.0957 -0.0962 -0.0277
77820W        W78684   7.569  20.959   6.620 -0.0880 -0.0108  0.0403
77821W        W78685  19.945  11.811   7.982 -0.1213  0.1160 -0.1884
77822W        W78686   7.660  27.646   2.705 -0.2830 -0.3308 -0.0935
77823W        W78687   2.408   0.361  21.310 -0.1773 -0.2044 -0.0084
77824W        W78688  24.581  19.652  16.087  0.0945  0.0885  0.0905
77825W        W78689  24.394   6.498   7.771  0.0773 -0.0371  0.0347
77826W        W78690   5.083  23.899  11.064  0.1153  0.1142 -0.0169
77827W        W78691  18.418  12.696  20.396  0.0063 -0.0923 -0.0710
77828W        W78692  20.455   6.631  14.203 -0.2722 -0.2100 -0.4602
77829W        W78693   2.612   1.337  22.054 -0.3709  0.1728 -0.0399
77830W        W78694  27.025  12.894   7.719  0.1675  0.0740  0.1284
77831W        W78695  22.662   0.330  13.417  0.0178  0.1286 -0.1026
77832W        W78696  20.302  18.435  12.613 -0.3531  0.4640 -0.2332
77833W        W78697  20.752  26.176   1.821 -0.1188  0.0859 -0.0449
77834W        W78698   7.827  10.663  11.999 -0.2175  0.0138 -0.4008
77835W        W78699  17.743  24.755   9.667  0.0219 -0.1330 -0.0362
77836W        W78700  16.475  24.388   3.361 -0.0936  0.4154 -0.2101
77837W        W78701  22.818  11.866   0.329 -0.1094  0.1013 -0.3577
77838W        W78702  12.017  23.454  10.891  0.0996 -0.0760 -0.1824
77839W        W78703  16.814   4.727  11.123 -0.0220  0.1234  0.0274
77840W        W78704   9.145  16.345   4.286  0.2040 -0.1918 -0.0964
77841W        W78705  22.840  15.380  23.956  0.0637 -0.0444 -0.0900
77842W        W78706  22.754   2.426  24.435  0.2912 -0.0347 -0.4909
77843W        W78707   2.116   4.865  16.217  0.0267 -0.0026  0.1549
77844W        W78708  12.313  25.158  16.291 -0.1196 -0.0552  0.1833
77845W        W78709   7.651   4.187  24.952 -0.1759 -0.0622 -0.2546
77846W        W78710  27.831   3.464  15.428  0.0878 -0.2572  0.0980
77847W        W78711  23.119  17.472  26.663  0.0732  0.0676  0.5094
77848W        W78712  27.968  13.667  13.625 -0.1968 -0.0018 -0.1844
77849W        W78713  15.137   5.342  14.334  0.2278  0.1932 -0.1628
77850W        W78714  14.981  16.630  15.539  0.1123 -0.0975 -0.0290
77851W        W78715  11.052   7.434   6.517  0.1353 -0.0901 -0.3326
77852W        W78716   4.390   8.983   4.196  0.0069 -0.1080  0.0932
77853W        W78717  24.307   2.198  16.178 -0.2015 -0.1075 -0.3597
77854W        W78718  25.133  28.114  15.633  0.0510  0.0478  0.0822
77855W        W78719  23.695   8.731   6.924  0.0422 -0.1442  0.1380
77856W        W78720   2.620  26.293  16.884  0.2605 -0.0186  0.1320
77857W        W78721   8.932   9.135   0.571  0.1361 -0.0432 -0.0901
77858W        W78722   3.745   1.250  13.826  0.2000  0.2735  0.0988
77859W        W78723   7.982  27.666  16.927 -0.0589  0.1271  0.0525
77860W        W78724   9.934  15.937  15.166 -0.2181  0.0603  0.1847
77861W        W78725  23.547  23.288  23.664 -0.0635  0.2691 -0.1799
77862W        W78726  22.457  11.156   4.430  0.0431  0.2202 -0.0263
77863W        W78727  26.020   8.407  10.494  0.3604  0.2908  0.0526
77864W        W78728  28.843   0.707  23.394  0.3314 -0.2393 -0.2533
77865W        W78729  27.970  26.862  20.987  0.0048 -0.3574 -0.1013
77866W        W78730   8.977  13.856   0.813  0.2405 -0.0364 -0.0662
77867W        W78731  14.456   0.245  14.040 -0.3925 -0.3347 -0.0310
77868W        W78732  23.476   8.891  15.952 -0.0371 -0.3525  0.0026
77869W        W78733  10.770  24.179   6.591 -0.0763  0.2768  0.1566
77870W        W78734  25.631  23.793  22.279 -0.1686 -0.2351 -0.0330
77871W        W78735   6.367  21.079  19.167  0.2473 -0.1250  0.2844
77872W        W78736  25.563  28.721  20.176  0.0507  0.0189  0.0851
77873W        W78737  12.243  24.160   0.900 -0.1142  0.0386 -0.1629
77874W        W78738  27.336  24.306  28.822  0.3422  0.0478 -0.2463
77875W        W78739  14.206  18.736  14.018  0.1100  0.0877 -0.1503
77876W        W78740  24.662   0.630  11.931 -0.0756  0.1072 -0.3727
77877W        W78741  29.135  25.654  23.139 -0.1522 -0.0805 -0.0070
77878W        W78742   5.278   7.498  22.656 -0.3581  0.1173 -0.2322
77879W        W78743   0.589  12.758   7.565 -0.3720  0.0324 -0.2756
77880W        W78744  18.578   5.257  17.502  0.0917 -0.1673 -0.0270
77881W        W78745  20.284  13.108  14.319 -0.2492  0.1913  0.0824
77882W        W78746  25.948  26.909  23.394 -0.3257  0.0149  0.2949
77883W        W78747  28.825  29.094  20.207 -0.1425  0.0306  0.0922
77884W        W78748  28.035  21.268  14.827 -0.1032  0.2032 -0.3884
77885W        W78749   5.862  16.600  16.306  0.0576  0.1074 -0.0083
77886W        W78750   3.863   5.272  23.571  0.0747  0.0991  0.0509
77887W        W78751   6.273  26.122  17.593 -0.0432  0.1110  0.1460
77888W        W78752   9.358  19.515  16.494 -0.0603 -0.0586 -0.1098
77889W        W78753   6.489   5.459  28.549  0.0796 -0.1977  0.0205
77890W        W78754  25.324   7.296   2.793 -0.0711  0.2066  0.0598
77891W        W78755  23.566  27.606   6.087  0.2989  0.1952 -0.1509
77892W        W78756   9.849   1.676  18.066  0.1822 -0.1286 -0.4371
77893W        W78757   0.916   8.752  21.007  0.0984  0.1126  0.3738
77894W        W78758   1.742   7.127  14.201 -0.3165  0.2900 -0.2665
77895W        W78759  11.606  10.040  28.275  0.1790  0.2467 -0.1413
77896W        W78760  16.558  17.370   3.112  0.0978 -0.0668 -0.0046
77897W        W78761   8.962  27.361  12.262 -0.0194  0.0897 -0.1848
77898W        W78762  15.768   9.737  18.192  0.0576 -0.0871  0.1353
77899W        W78763  19.931   7.499  29.093  0.2672 -0.0701 -0.0606
77900W        W78764  23.419  22.484  18.324  0.2607  0.0379  0.1251
77901W        W78765  20.060  27.585   0.317  0.1452  0.0374 -0.2840
77902W        W78766   4.289   3.449  21.613 -0.0613  0.3296 -0.2245
77903W        W78767   5.282   7.136  14.725 -0.0140 -0.2226 -0.1153
77904W        W78768  15.808  26.809   8.030  0.1588 -0.1341 -0.0065
77905W        W78769   0.301  26.245  22.080  0.2421  0.1460 -0.3358
77906W        W78770  23.039   5.924  21.162 -0.0861  0.0411 -0.0778
77907W        W78771  25.347   4.526  28.503 -0.1867 -0.1334 -0.3171
77908W        W78772  22.856   3.269  21.970  0.0689 -0.0258 -0.0687
77909W        W78773  17.370  24.177  11.823 -0.0718  0.1817  0.1767
77910W        W78774  23.213   4.922  19.336 -0.1431  0.1210  0.0057
77911W        W78775   0.716   0.589   4.819  0.1238  0.2049  0.0588
77912W        W78776   9.014   6.055   0.829  0.1356 -0.1135 -0.0005
77913W        W78777   5.999   4.721   3.374 -0.0364 -0.1790  0.0368
77914W        W78778  15.381   1.559  11.058 -0.0407  0.1135 -0.0272
77915W        W78779  26.987  19.657   4.911  0.0241 -0.1914  0.0208
77916W        W78780   0.625  15.783  12.086 -0.0638 -0.0485 -0.2646
77917W        W78781   4.123  24.016  24.493 -0.1681  0.0867  0.0155
77918W        W78782  12.404   1.765  17.347  0.1502 -0.4885  0.0906
77919W        W78783   5.633  17.440  27.226  0.0684 -0.0794  0.0692
77920W        W78784  18.276  14.189  14.927 -0.0602 -0.1504 -0.1010
77921W        W78785   5.123  19.648   1.070  0.1708  0.0622  0.0921
77922W        W78786  27.747   2.670  17.361 -0.1480  0.0134 -0.1349
77923W        W78787  25.652   9.270   4.522  0.0768  0.0572  0.0778
77924W        W78788  10.703  23.817   9.441  0.1374 -0.0885 -0.0728
77925W        W78789   1.916  15.078  10.115 -0.1241  0.1110  0.2972
77926W        W78790  14.547   0.503  27.919 -0.3080  0.1432  0.2150
77927W        W78791   9.968   6.870  16.006  0.0265  0.0182 -0.0787
77928W        W78792  28.141   2.222   3.670 -0.0302 -0.0344 -0.1030
77929W        W78793   8.181  26.706  16.709  0.2094 -0.0645 -0.1899
77930W        W78794  20.868  24.033  14.073  0.0801 -0.0717  0.2664
77931W        W78795  19.748  28.916   9.659 -0.2341  0.2952  0.1105
77932W        W78796   6.985   8.973  15.084  0.1957  0.1970  0.2123
77933W        W78797  20.416  16.615   5.226  0.0731  0.0027 -0.0986
77934W        W78798  14.993   3.293  19.652  0.0954  0.1176  0.1810
77935W        W78799  22.662  21.442  19.274  0.3331  0.1584 -0.0344
77936W        W78800  10.670   8.890  23.921 -0.0028 -0.1718  0.2571
77937W        W78801   6.786  21.013  15.518 -0.1058  0.0649 -0.0169
77938W        W78802   7.053   6.017  18.926  0.1158  0.2199  0.0234
77939W        W78803  16.883  12.482  11.530 -0.1212  0.3580  0.0153
77940W        W78804  27.156  12.379  26.052  0.0550 -0.3654  0.1036
77941W        W78805  19.468  10.206   2.891 -0.0736 -0.2108  0.3444
77942W        W78806  21.518   3.616  14.238  0.0523 -0.1176  0.0726
77943W        W78807  17.754  25.208  19.153 -0.5234 -0.0419  0.3191
77944W        W78808   2.702   5.916  13.964 -0.1606  0.1327 -0.1097
77945W        W78809  15.021  27.005  29.081  0.0350 -0.3668  0.0323
77946W        W78810   4.673   0.379  17.102  0.0183  0.2545  0.0928
77947W        W78811  13.923  25.518  16.544 -0.0652  0.2236  0.1087
77948W        W78812  16.987  12.003   7.810  0.0090 -0.0491  0.3034
77949W        W78813   2.592  25.487  12.873 -0.1815 -0.1206  0.1439
77950W        W78814   6.620   1.173   6.501 -0.1098 -0.2548 -0.0533
77951W        W78815   1.948  13.328  23.719  0.0334  0.1090  0.1848
77952W        W78816  21.918  27.543  24.904 -0.2128  0.1204 -0.1285
77953W        W78817  16.163  13.566  21.529  0.0613 -0.0970  0.0219
77954W        W78818  24.256  26.545  12.677  0.1406 -0.0493 -0.0557
77955W        W78819  15.383  12.924  13.579  0.2158  0.0963  0.4633
77956W        W78820  11.964  10.123  17.314  0.0791  0.0651 -0.2967
77957W        W78821   6.433  19.209  14.982 -0.1844  0.0167  0.0979
77958W        W78822  27.210  15.556  21.719 -0.0719 -0.1932 -0.1520
77959W        W78823   5.226   9.403  12.674 -0.0329  0.0471 -0.0859
77960W        W78824  13.642  19.757  20.395 -0.0480 -0.1693  0.0589
77961W        W78825  23.835  22.150  18.237  0.0386 -0.1964 -0.1530
77962W        W78826  19.747   5.580  12.637  0.1755 -0.2917 -0.1443
77963W        W78827  22.955   1.074  15.861 -0.2834 -0.0976  0.1341
77964W        W78828  17.556   5.389  22.061 -0.0488 -0.1176  0.1404
77965W        W78829  26.184  18.272  21.072 -0.0534 -0.1768 -0.0157
77966W        W78830   7.902   5.912  13.271 -0.0090  0.0356  0.0558
77967W        W78831  27.292   6.475  11.729 -0.0474  0.0967 -0.1699
77968W        W78832  16.867  26.291  13.733  0.1134 -0.3102  0.1983
77969W        W78833  13.660  11.393  14.387 -0.0376  0.2554 -0.1501
77970W        W78834   2.683   1.742  22.346  0.3343  0.0050  0.0221
77971W        W78835   5.602  17.576  28.277  0.0619  0.1643 -0.0955
77972W        W78836  22.196   1.105   8.196  0.0976 -0.0733  0.1173
77973W        W78837   1.941  27.814  17.332 -0.1329  0.1359  0.0529
77974W        W78838  13.023  12.081  25.941  0.1773  0.1719  0.2259
77975W        W78839   1.388  16.040  12.026 -0.2556  0.1004  0.0658
77976W        W78840  10.273   9.958  17.560 -0.0033  0.1111 -0.2458
77977W        W78841   7.819   5.224   7.569  0.0671  0.1420  0.0755
77978W        W78842  15.223   7.725   4.889 -0.0302 -0.1881 -0.1017
77979W        W78843  23.246  15.958  21.417  0.1326 -0.1087  0.1302
77980W        W78844  19.918   9.936  19.378 -0.0152 -0.0642  0.2935
77981W        W78845  18.986  14.272   7.718  0.3662 -0.1741  0.0485
77982W        W78846  24.692  18.307   8.698 -0.2481  0.0870 -0.1132
77983W        W78847  15.986  23.707   2.423  0.3527 -0.0408 -0.0153
77984W        W78848  20.671  19.011  10.631 -0.2537  0.0934 -0.1064
77985W        W78849  28.632   6.526  28.292 -0.0709 -0.1163  0.0292
77986W        W78850  19.449  21.906   5.087  0.0651 -0.0189  0.2428
77987W        W78851   9.360   6.449  12.001  0.1128  0.1301 -0.1304
77988W        W78852  28.148  23.498   7.934 -0.2881 -0.1313 -0.0876
77989W        W78853  16.655  29.047  18.546  0.3194 -0.0765 -0.0235
77990W        W78854  22.874  10.777   0.178 -0.1016 -0.1681  0.1574
77991W        W78855  12.987  28.615   6.463 -0.4475 -0.0232 -0.0224
77992W        W78856  18.831   7.576  26.408 -0.3726  0.0832  0.0122
77993W        W78857  28.392   0.323  27.978 -0.1045 -0.3509  0.0445
77994W        W78858  23.311   2.972  27.736  0.0495 -0.1521 -0.0350
77995W        W78859  12.150   8.692  17.203 -0.1724 -0.0253 -0.2985
77996W        W78860   1.879   5.404  10.595 -0.0930  0.0802  0.1183
77997W        W78861   0.312  26.790   4.424  0.0256 -0.0486  0.2354
77998W        W78862  25.787  16.877   8.740 -0.3178 -0.3626 -0.1266
77999W        W78863  11.468  23.952   7.001 -0.0605  0.2863 -0.2215
78000W        W78864   8.857  16.228  21.146 -0.1245  0.0586  0.0815
78001W        W78865   6.878   8.777  18.830 -0.2228  0.0151  0.2446
78002W        W78866  14.867  24.454   7.625 -0.0162 -0.1356  0.0127
78003W        W78867  13.436   8.493   6.329 -0.1550  0.2120 -0.1192
78004W        W78868  19.738   2.869  24.742 -0.0350 -0.2301  0.3204
78005W        W78869  27.730   9.050  11.945 -0.2850  0.1175 -0.3354
78006W        W78870   1.856  19.803  13.902  0.0652 -0.3880  0.1541
78007W        W78871  18.854   1.482  13.533 -0.1807 -0.0385  0.3442
78008W        W78872  20.289  14.343   9.706  0.0893  0.2751  0.0608
78009W        W78873  26.651   3.973  28.645 -0.1940 -0.1302 -0.0275
78010W        W78874  26.454   4.307   6.193  0.3928 -0.0129 -0.0518
78011W        W78875   7.112  19.240  13.846  0.3581  0.2636 -0.0957
78012W        W78876  21.309  24.421  22.192  0.1761 -0.1025  0.3748
78013W        W78877  10.620  24.015  23.754  0.1862  0.1255 -0.1750
78014W        W78878  23.363   1.504  23.137 -0.3590 -0.1041  0.2591
78015W        W78879  22.929   3.837  19.801 -0.2174  0.2059 -0.2197
78016W        W78880  24.360  12.541  15.606 -0.0041  0.2325  0.1402
78017W        W78881  28.598   3.070  14.693 -0.2890  0.1261 -0.2427
78018W        W78882   5.177  18.222   5.264 -0.0447  0.0772  0.1603
78019W        W78883  20.237  24.479  26.188 -0.2050 -0.0099  0.1676
78020W        W78884  23.116  16.455   2.905 -0.0492  0.0804  0.2077
78021W        W78885  26.989  28.269  23.086  0.2781 -0.1651 -0.0916
78022W        W78886  21.267   9.166   0.332 -0.1946  0.1872  0.1952
78023W        W78887   5.488  15.642  22.026 -0.0936  0.2566 -0.1856
78024W        W78888  27.591  15.086  20.360 -0.0314 -0.0186 -0.1260
78025W        W78889   1.415  22.039  26.458  0.0964  0.0147 -0.1916
78026W        W78890  26.039   3.551  21.622 -0.2838 -0.1593 -0.1200
78027W        W78891   3.941  25.902  16.138 -0.1011  0.0404 -0.2076
78028W        W78892  13.459   4.679   9.500  0.0788 -0.1060  0.0634
78029W        W78893  20.562  29.052   1.020  0.0942 -0.1448  0.1348
78030W        W78894  18.917  24.863   8.819  0.1165  0.0591  0.1289
78031W        W78895  23.615  25.574   5.263  0.3594  0.2351 -0.0905
78032W        W78896   5.085  22.672   6.936  0.0498 -0.0468  0.1224
78033W        W78897  10.631   4.548   2.420  0.2281  0.1100 -0.0038
78034W        W78898  19.814  25.709  10.163  0.0808 -0.1929  0.2257
78035W        W78899  13.979  28.937   2.603 -0.3201  0.2097 -0.1037
78036W        W78900   3.454  18.582  14.732 -0.0184  0.0191 -0.2377
78037W        W78901   0.315   7.757  17.506  0.2025  0.1825  0.1834
78038W        W78902  28.294  26.185   7.714  0.0670 -0.1852 -0.0708
78039W        W78903   4.496  21.890  25.458 -0.1322 -0.1847 -0.0001
78040W        W78904  25.803  28.088   0.215  0.0588 -0.2128 -0.4327
78041W        W78905  19.175  28.049  11.721 -0.1929  0.1078 -0.0919
78042W        W78906  17.791   2.121  14.518  0.1345  0.1961  0.1536
78043W        W78907  26.988  22.496   5.977 -0.0771 -0.1844 -0.1745
78044W        W78908  16.703  11.893  26.080 -0.2521  0.0186  0.0249
78045W        W78909   3.866  27.265   6.989  0.0632 -0.1179 -0.1826
78046W        W78910  16.904   1.682  22.597 -0.0709  0.2547  0.0867
78047W        W78911  19.220  17.774  26.133  0.1285 -0.0433 -0.2055
78048W        W78912  10.393  26.622  10.213 -0.0147 -0.2003 -0.3516
78049W        W78913   9.588  17.698  18.361 -0.2341 -0.1142 -0.1652
78050W        W78914   6.312   2.209  23.258 -0.1489 -0.0788  0.0371
78051W        W78915  17.615  10.005  27.761  0.0062 -0.1292 -0.0059
78052W        W78916  22.553   5.105  25.611  0.0239 -0.3365 -0.0338
78053W        W78917  25.443  21.713   2.176 -0.2997 -0.2314  0.1032
78054W        W78918   4.147  28.388  27.416  0.2650 -0.1055 -0.1237
78055W        W78919  26.682  25.538  28.625  0.2337  0.0913 -0.1624
78056W        W78920  24.798  28.704   6.198  0.0606  0.0857  0.0398
78057W        W78921  27.349   8.290   0.414 -0.1310 -0.0860  0.1212
78058W        W78922  22.943   9.229   7.492  0.1589  0.1477  0.1239
78059W        W78923  26.978  22.101   4.997  0.1324  0.1779  0.1282
78060W        W78924  21.989   8.827   3.999  0.0258  0.3720 -0.1338
78061W        W78925  16.613  10.265   1.045  0.5056  0.0462 -0.4077
78062W        W78926   5.278  11.600  13.754 -0.1612 -0.0905  0.0897
78063W        W78927  23.340   8.003   8.718  0.1774  0.4147 -0.2476
78064W        W78928  24.998  24.877   0.765 -0.0973 -0.3488  0.1484
78065W        W78929   8.074  10.422  22.590 -0.0639  0.2317  0.1579
78066W        W78930  27.336   1.901   4.674 -0.0622 -0.1357 -0.0174
78067W        W78931   3.533   7.134   5.792  0.0750  0.0774 -0.1688
78068W        W78932  23.380   7.403   5.826  0.1990 -0.0644 -0.2533
78069W        W78933   2.555  28.245   1.650 -0.1676  0.2420 -0.2198
78070W        W78934  28.126  15.768  28.067  0.2376  0.1749 -0.4193
78071W        W78935  27.217  23.978  19.346 -0.2002 -0.5328  0.0755
78072W        W78936   5.100  21.730   7.775  0.1165 -0.1795  0.0264
78073W        W78937  12.867  27.855   1.379  0.0537  0.0810  0.0095
78074W        W78938  17.376   0.979  25.447 -0.0134 -0.0907  0.0707
78075W        W78939  24.152  25.573   9.760  0.3073  0.1333 -0.3000
78076W        W78940   8.026   5.377  14.298 -0.2559  0.1388 -0.1426
78077W        W78941  15.322   1.598  28.706 -0.0105 -0.3171 -0.1548
78078W        W78942  11.887   4.606  18.097  0.0718  0.2384  0.1007
78079W        W78943   1.368  22.595  18.821  0.2087 -0.1526  0.1851
78080W        W78944  10.355  27.302   4.582 -0.0659 -0.2541 -0.0064
78081W        W78945   2.960  18.252  20.406  0.1216  0.0209 -0.1090
78082W        W78946   8.985  12.772  26.044  0.1398  0.1797  0.0014
78083W        W78947  17.971  17.716  15.088 -0.1549  0.1614  0.1090
78084W        W78948   4.702  18.760   9.719 -0.0810 -0.3401 -0.0723
78085W        W78949   4.763   4.414   3.005 -0.0890  0.3094  0.0018
78086W        W78950  18.033  19.763  12.532  0.0831 -0.1905  0.3513
78087W        W78951   3.320  15.100  28.241 -0.3462  0.0294 -0.0663
78088W        W78952  17.759   9.643   7.020  0.2155 -0.0940 -0.0172
78089W        W78953  21.221  22.602  23.296  0.1888 -0.0113  0.0274
78090W        W78954  10.898  22.099   1.009 -0.0538  0.1692 -0.1452
78091W        W78955   1.192  26.762   8.075  0.2003  0.1563  0.0316
78092W        W78956   0.634   9.152  18.080  0.0682  0.2012  0.2963
78093W        W78957   4.057   7.049  21.242  0.0542  0.1479  0.0131
78094W        W78958  23.464   8.655   2.127 -0.0354  0.1390 -0.1070
78095W        W78959  22.486  27.846   3.140  0.2710  0.1227  0.0158
78096W        W78960  27.191  12.566  23.793  0.0683 -0.0434 -0.1146
78097W        W78961  23.098   8.200   5.889  0.0869  0.0509 -0.1958
78098W        W78962  13.852  21.674  25.347  0.1475 -0.1450  0.1513
78099W        W78963  24.630  24.112  17.594 -0.5935 -0.1552 -0.0496
78100W        W78964  19.156  28.397  13.896  0.4196  0.3246 -0.2678
78101W        W78965  23.004  28.758   6.996 -0.1678  0.2670 -0.1776
78102W        W78966  20.938   1.285   6.348 -0.3912 -0.2835 -0.1115
78103W        W78967   1.925  22.873  19.677 -0.4604  0.1580  0.3329
78104W        W78968  20.508   8.591  27.519  0.0926 -0.3646  0.0866
78105W        W78969   2.158   9.095  17.985  0.2647 -0.5537  0.1913
78106W        W78970   3.800  16.624  19.701 -0.1968  0.1278 -0.0858
78107W        W78971  23.453   3.250  18.957 -0.3014 -0.1750 -0.1916
78108W        W78972  19.792   7.657   3.897  0.0189  0.3962 -0.1241
78109W        W78973  27.457  21.611   8.226 -0.1187 -0.2726 -0.0540
78110W        W78974  10.252   7.198   2.329  0.1428  0.0507 -0.0884
78111W        W78975  25.033  18.103  27.050  0.1377 -0.0261 -0.0435
78112W        W78976  18.033  17.612  13.657  0.0636 -0.1908 -0.0202
78113W        W78977  19.692   4.732  21.584 -0.3542 -0.2492  0.1215
78114W        W78978  19.497  12.442  28.677 -0.0943  0.1103 -0.1302
78115W        W78979   3.268  21.596  17.184 -0.1124 -0.2222  0.2485
78116W        W78980  13.681  25.259   1.953  0.0387  0.0279  0.0272
78117W        W78981  24.900   1.815  20.514 -0.0875 -0.2647 -0.2611
78118W        W78982  15.579  17.692  21.311  0.1395  0.3760  0.0962
78119W        W78983  14.005   7.252   5.441  0.1279 -0.1532  0.2419
78120W        W78984  28.955  23.860  17.680 -0.2474 -0.1952  0.0069
78121W        W78985   6.217  26.989  22.092 -0.0454 -0.0299  0.0810
78122W        W78986  22.171   3.563   7.498  0.0760 -0.4627  0.1720
78123W        W78987  13.182   1.550   8.299  0.0478  0.0641 -0.1798
78124W        W78988  26.803   7.441  13.597  0.2896 -0.0890  0.1295
78125W        W78989  16.714   1.630  20.534  0.0456  0.1687  0.1468
78126W        W78990  12.084  24.215  16.578  0.1296 -0.2981 -0.4333
78127W        W78991  28.858  13.030   9.901 -0.2379 -0.0201 -0.0403
78128W        W78992  21.314  27.895  18.977 -0.2864 -0.0453  0.5207
78129W        W78993  19.629   0.633  25.895 -0.0831 -0.2489  0.1775
78130W        W78994  24.653  17.483   5.128  0.0136 -0.0705  0.2342
78131W        W78995   9.114  16.761   5.899 -0.3391  0.0252 -0.2550
78132W        W78996  27.203  25.581   8.721  0.0391 -0.3267  0.0172
78133W        W78997   6.579  28.505  24.303 -0.0657 -0.2877 -0.0712
78134W        W78998   4.549  27.843  24.414 -0.1223  0.0519  0.1477
78135W        W78999  24.225  21.261   8.769 -0.1704 -0.3665 -0.1413
78136W        W79000  22.562  28.847  19.247 -0.1824 -0.0069 -0.1160
78137W        W79001   6.966  13.606  20.274 -0.0147  0.1344 -0.1074
78138W        W79002   1.471  20.943  22.722 -0.0314  0.0225 -0.0558
78139W        W79003   5.830  28.777   4.813 -0.3154  0.2287  0.0841
78140W        W79004  22.734   4.713   3.481  0.0902  0.3089 -0.0286
78141W        W79005  11.366  27.306  20.340  0.0312  0.1602  0.3351
78142W        W79006  20.539  25.509  22.218  0.4408 -0.0896 -0.1566
78143W        W79007   1.763   2.964   7.773 -0.2684  0.3189 -0.0878
78144W        W79008  29.084  12.048  18.216  0.0783  0.0561  0.0439
78145W        W79009  18.849   1.315  28.198  0.0928 -0.0297 -0.0423
78146W        W79010  22.461  15.897  14.977  0.1567 -0.0461  0.0925
78147W        W79011  21.792  22.416  18.370  0.3151  0.0647 -0.0297
78148W        W79012   0.183   4.516   7.333  0.0605  0.0767  0.1807
78149W        W79013  24.523   3.091  12.433 -0.1662 -0.0320  0.0849
78150W        W79014  26.788   7.249   7.152  0.2677 -0.0399  0.1915
78151W        W79015   9.754  27.481  15.880 -0.2541  0.0039  0.0356
78152W        W79016   3.952  24.493   5.157  0.0875  0.1451  0.1407
78153W        W79017   4.734  27.516  28.054 -0.0538  0.2117  0.1705
78154W        W79018   4.498  18.192   9.951  0.2932  0.1791 -0.3610
78155W        W79019   0.219  15.668  10.400 -0.0357  0.1486 -0.1107
78156W        W79020  11.966  28.262   6.904  0.3812  0.3358 -0.1099
78157W        W79021  11.247  24.637  22.672 -0.0215 -0.0925  0.1392
78158W        W79022  10.296  19.725  13.001  0.0483 -0.1284  0.4399
78159W        W79023  13.531  27.755  17.409  0.3193  0.0637 -0.1031
78160W        W79024  10.659  18.054   0.349  0.0652 -0.1824  0.2046
78161W        W79025  12.253  24.493  15.431 -0.0980  0.0627 -0.2105
78162W        W79026   4.529  10.606   8.271  0.2838  0.0649  0.0037
78163W        W79027   5.544  18.179  29.107  0.2147  0.2602 -0.2395
78164W        W79028  11.430  23.891  12.070 -0.2403 -0.0465  0.1416
78165W        W79029  26.094  12.737  13.471 -0.1371 -0.2772 -0.1587
78166W        W79030  21.837   5.858  19.891  0.3171 -0.2679  0.1193
78167W        W79031  21.091  21.277  27.525  0.0069  0.2408  0.4146
78168W        W79032  14.410  13.959  26.027 -0.0516 -0.0995  0.1070
78169W        W79033   5.261  12.110  22.064  0.4245 -0.0662 -0.0797
78170W        W79034  25.796   1.350  10.760  0.0699  0.0681 -0.1682
78171W        W79035  24.005  22.064  14.891 -0.1879  0.1151 -0.3217
78172W        W79036  18.615  29.114  20.868 -0.1511 -0.0125  0.0203
78173W        W79037  15.132  11.834  19.300  0.1827 -0.1283 -0.0987
78174W        W79038   5.432  27.726   1.295  0.3689 -0.0573 -0.1035
78175W        W79039  24.222   1.291   7.569  0.0383 -0.1903 -0.0640
78176W        W79040  21.963   3.616   8.827  0.3205 -0.4607  0.0959
78177W        W79041   3.946   6.952  17.414  0.1710 -0.0190  0.2537
78178W        W79042  18.984   5.633  23.117  0.0011 -0.1350  0.0480
78179W        W79043  19.664  26.807   3.246 -0.1442  0.0569 -0.1132
78180W        W79044  14.547   0.713  19.089 -0.0420 -0.0476  0.0694
78181W        W79045   3.218  16.856  11.662 -0.1110 -0.2377  0.2949
78182W        W79046  16.222   6.117  27.548 -0.1460  0.0189 -0.2365
78183W        W79047  21.715  28.425   1.571  0.2276  0.2256  0.1690
78184W        W79048   1.275  25.110   1.802  0.1116  0.1385 -0.0330
78185W        W79049   8.727   6.259  21.676  0.2277  0.3325 -0.1660
78186W        W79050   2.377  16.571  12.207 -0.1507  0.0222 -0.2503
78187W        W79051   0.041  17.507   2.349 -0.1897  0.0707 -0.1687
78188W        W79052  20.399  16.131  14.269  0.0261 -0.1667 -0.0413
78189W        W79053  24.056  20.761  11.719  0.0274  0.1356 -0.0187
78190W        W79054  28.569  24.149  18.623 -0.1142  0.0982  0.4197
78191W        W79055  21.241   3.973  11.280  0.4169  0.1679  0.0111
78192W        W79056   0.889   0.401  18.809 -0.1936  0.0644 -0.1517
78193W        W79057  27.531  20.936  28.919 -0.0711  0.2716 -0.2297
78194W        W79058  23.739   3.815  16.446  0.1007 -0.3191  0.0332
78195W        W79059  11.002  29.107  21.149  0.0179  0.0758  0.1222
78196W        W79060   3.508   6.493   2.211  0.0299  0.1639 -0.0461
78197W        W79061  17.496  14.326  14.304 -0.1671  0.0871  0.1172
78198W        W79062  21.336  16.992   8.123  0.1511 -0.0005 -0.6296
78199W        W79063   0.324  18.388  20.273 -0.2473  0.1665 -0.1088
78200W        W79064  29.110   1.578   5.064  0.2802  0.0835 -0.2855
78201W        W79065  23.879   6.232   8.352  0.3435  0.0567 -0.0247
78202W        W79066   7.590  24.169   6.064 -0.2373 -0.1141 -0.1180
78203W        W79067  22.506   3.461   0.091 -0.0513 -0.1144 -0.0630
78204W        W79068  23.826   0.902   4.679  0.0689  0.0045 -0.3984
78205W        W79069   6.806   1.410   5.788  0.2965 -0.3644 -0.1051
78206W        W79070  13.162  13.821  27.655 -0.1956 -0.1515 -0.2518
78207W        W79071   1.249  10.781  27.768 -0.0970 -0.0756 -0.0883
78208W        W79072  20.955   5.724  21.194 -0.2421 -0.1738 -0.0634
78209W        W79073  20.395  26.642  23.945 -0.2283 -0.0166 -0.1833
78210W        W79074  25.842   2.934   3.802  0.2973 -0.2226  0.2899
78211W        W79075  20.927  23.480   5.411  0.3842 -0.1489  0.0784
78212W        W79076   8.942  20.049  19.180 -0.1583  0.2105  0.2806
78213W        W79077  11.274  12.618  20.651 -0.1912  0.0553 -0.0651
78214W        W79078   1.204  23.114   2.828 -0.0283 -0.1073  0.5913
78215W        W79079  10.554   1.709   6.656  0.0416  0.3670 -0.1996
78216W        W79080   3.677  17.970   5.861 -0.0544 -0.0122  0.2957
78217W        W79081  21.047   6.614   0.486  0.3593 -0.0256 -0.0320
78218W        W79082  14.633  25.674   9.037 -0.0472  0.3824  0.0241
78219W        W79083  28.094   5.581  10.897 -0.0430  0.2365 -0.0785
78220W        W79084  11.458   4.460  20.583 -0.2445  0.1824 -0.0736
78221W        W79085   9.769   5.805   2.497  0.2756  0.0544 -0.0697
78222W        W79086   6.310   9.756   0.132  0.0697  0.3780 -0.1352
78223W        W79087   4.737  18.271  19.296 -0.4179  0.0744 -0.2662
78224W        W79088  22.596  13.210   7.911 -0.0652  0.0279 -0.0048
78225W        W79089  18.913  22.829  21.695  0.1521 -0.0387  0.2400
78226W        W79090  17.259  20.385  10.414  0.1464  0.0611  0.2373
78227W        W79091  11.417   9.638  20.489  0.1326  0.1646  0.1230
78228W        W79092  18.464   2.957  19.883 -0.1537 -0.1259 -0.0102
78229W        W79093  21.936   4.063  11.905  0.1323  0.0531 -0.0133
78230W        W79094  23.654  24.678  25.067  0.0980 -0.2640  0.3343
78231W        W79095   3.433  28.384  25.670 -0.4569 -0.0636  0.0537
78232W        W79096  27.357  22.588   8.609 -0.2457  0.1189  0.0999
78233W        W79097  28.733  26.594  18.790  0.2502 -0.5651 -0.2591
78234W        W79098  20.087   7.268   2.046  0.0918  0.0039  0.0744
78235W        W79099   1.809  17.729  19.718  0.3317  0.0045 -0.2280
78236W        W79100  13.186   0.122  15.406  0.1351  0.2355 -0.0906
78237W        W79101   1.569   4.462  12.629  0.0506  0.0816  0.0682
78238W        W79102  26.018  19.631   6.552  0.0321 -0.3148  0.1790
78239W        W79103  21.934  26.781  22.988  0.0348 -0.1590 -0.2026
78240W        W79104   0.954   3.413   8.975  0.2553  0.0893 -0.1634
78241W        W79105  27.693  12.673  28.896  0.0362 -0.2761 -0.1884
78242W        W79106  26.768   3.593   0.718 -0.1926  0.1516 -0.2116
78243W        W79107  10.590   1.139  25.979  0.0928 -0.0857 -0.1479
78244W        W79108   0.853  21.214  13.301 -0.0726 -0.0560  0.4266
78245W        W79109  14.502  22.437  14.083 -0.4444 -0.1187  0.0934
78246W        W79110   5.071  23.616   2.449  0.0308  0.2116  0.2972
78247W        W79111  14.482   7.296   8.650 -0.0884  0.1342  0.1466
78248W        W79112   7.162   1.801  22.338  0.3445  0.0700 -0.0152
78249W        W79113  17.647   8.227  13.846 -0.0988  0.5115  0.3005
78250W        W79114  23.308  16.723  16.768  0.1310  0.1054 -0.0502
78251W        W79115  10.989   4.743   2.854 -0.4441  0.2653 -0.1143
78252W        W79116  28.471   0.752  13.549 -0.0182  0.1089  0.0701
78253W        W79117  24.794   6.778   9.070  0.2006 -0.0435 -0.0678
78254W        W79118  23.629   0.243  28.147  0.3050  0.3945 -0.0822
78255W        W79119  19.181  19.311  22.349 -0.0862  0.1285 -0.1699
78256W        W79120  15.922   1.375  20.283  0.3294 -0.2214 -0.1889
78257W        W79121   8.880   5.727  14.306 -0.0540  0.0499 -0.1348
78258W        W79122  20.654   0.171  11.552  0.2549 -0.0292  0.0658
78259W        W79123  16.191   8.203  19.211  0.2425 -0.2082  0.0134
78260W        W79124   6.620   5.391  10.089 -0.2631  0.1150 -0.0877
78261W        W79125   3.075   0.985  28.672 -0.1272 -0.0905 -0.2179
78262W        W79126  22.708   4.146  24.066 -0.0488 -0.3378  0.1552
78263W        W79127  26.847  21.811   4.585 -0.2062 -0.0551  0.0201
78264W        W79128  16.829  18.622  10.304 -0.0750 -0.1051 -0.1629
78265W        W79129  24.480  12.662  24.117  0.2654 -0.1623 -0.2803
78266W        W79130  25.733  21.812  13.835 -0.4124  0.0746 -0.2028
78267W        W79131  25.681  20.615   2.466  0.1238  0.2270 -0.1459
78268W        W79132  13.350  11.407  28.213  0.2749 -0.1924 -0.4184
78269W        W79133  25.707  21.929  15.557  0.0834 -0.1824  0.1283
78270W        W79134   1.326  18.607  24.354 -0.0916  0.4734 -0.0567
78271W        W79135   9.728   5.861   8.465  0.2839  0.2171 -0.1587
78272W        W79136   4.110  16.509  18.744  0.1645  0.2094  0.0191
78273W        W79137   6.040  19.692   4.847 -0.0989 -0.1564  0.0065
78274W        W79138   5.263  15.541  13.468  0.0180 -0.0121  0.0650
78275W        W79139  26.350  27.859  27.840  0.0987 -0.0006  0.3825
78276W        W79140   5.687   0.528  22.675  0.2352  0.0934 -0.1117
78277W        W79141  22.852  25.654  18.453  0.0733  0.1526 -0.3689
78278W        W79142  14.602  25.687  19.306  0.1923 -0.2398 -0.0712
78279W        W79143  28.200  15.040   5.281  0.1207  0.0344  0.1376
78280W        W79144  14.894  25.362   5.181 -0.1953  0.0644  0.0441
78281W        W79145   0.451   3.829   4.333  0.0027  0.1850  0.0216
78282W        W79146   2.295  18.439  15.130 -0.0770 -0.2235 -0.0452
78283W        W79147  25.123   3.489  23.251 -0.4419 -0.2443 -0.1356
78284W        W79148   9.487  24.851  27.877 -0.1519 -0.1811 -0.1570
78285W        W79149   4.441  18.382   2.701 -0.0997  0.1650 -0.1901
78286W        W79150  19.264  18.508   5.422  0.2288 -0.1827  0.1448
78287W        W79151  11.239   7.072  15.495 -0.1019 -0.1995  0.1298
78288W        W79152  17.385  21.518  20.070  0.1736 -0.0694  0.1495
78289W        W79153  26.922  26.539  26.425  0.2538 -0.0385  0.1711
78290W        W79154  25.853   4.001  21.766  0.0501 -0.4303 -0.1620
78291W        W79155  16.717   9.365   1.324  0.2090 -0.2552 -0.3205
78292W        W79156   7.603  24.205  20.041 -0.1747  0.0646 -0.3447
78293W        W79157  11.623  26.767  13.292  0.4202 -0.1457  0.2840
78294W        W79158   0.385  14.719  28.167 -0.0044 -0.2569  0.0834
78295W        W79159  23.311   9.485  18.122  0.1972  0.1398  0.2342
78296W        W79160   6.267  22.895  18.834  0.0417 -0.3505 -0.0743
78297W        W79161  12.161  24.344   1.409  0.2108 -0.1047  0.1819
78298W        W79162  14.850  16.830   3.000 -0.0433  0.2507 -0.2250
78299W        W79163  10.669  24.642  21.565  0.0073  0.0568 -0.1301
78300W        W79164   5.940  18.008  19.253 -0.0372 -0.0985  0.1689
78301W        W79165   3.219  22.026  12.889 -0.0743  0.1347 -0.0549
78302W        W79166  14.994  24.262  27.214  0.2584 -0.0956 -0.1988
78303W        W79167   5.291  23.589  16.147  0.3404  0.4450  0.4285
78304W        W79168  12.041  14.879   4.635  0.0151 -0.3142 -0.0944
78305W        W79169  28.434   2.969  28.653  0.1867 -0.0208  0.0477
78306W        W79170  27.034   0.026  28.505  0.1454 -0.3138  0.4141
78307W        W79171   3.091  18.660   7.352 -0.0723 -0.1805 -0.3014
78308W        W79172   2.962   0.978  24.146 -0.1511  0.1700 -0.0779
78309W        W79173  12.311  19.968  16.254  0.2005  0.1716 -0.3272
78310W        W79174  10.294  16.858  14.353 -0.2459  0.2893 -0.0756
78311W        W79175   9.585   3.862  17.369  0.2067  0.2771  0.1348
78312W        W79176  13.107  19.714   8.568 -0.1928  0.0622 -0.2349
78313W        W79177  14.623   3.363  10.699 -0.3371  0.3833 -0.2316
78314W        W79178  21.986  20.364  23.668  0.1080  0.3475  0.0138
78315W        W79179  19.871   0.373   7.285  0.2812 -0.0803  0.1419
78316W        W79180  22.641  15.982  13.710  0.0575  0.1046 -0.0130
78317W        W79181  18.380   9.233  28.260 -0.0167  0.1175 -0.4083
78318W        W79182   8.541   9.675  20.355 -0.3556 -0.0081 -0.3217
78319W        W79183   1.769   7.144  26.987 -0.0350 -0.0840  0.0843
78320W        W79184  18.843  14.625  14.315  0.0746  0.2298 -0.2044
78321W        W79185   2.446  25.249  13.315  0.0703 -0.0709  0.1020
78322W        W79186   4.191  19.379  17.979  0.2134  0.0297  0.1973
78323W        W79187   2.372  27.755   0.954 -0.1672  0.0049 -0.1133
78324W        W79188  17.224  16.097  20.364  0.2177  0.3093 -0.0247
78325W        W79189   7.835  18.033  22.486  0.0099  0.2482 -0.1755
78326W        W79190   8.275   5.863   0.360  0.1118  0.2309  0.2726
78327W        W79191   5.954   8.605   8.456 -0.0556 -0.3623 -0.0980
78328W        W79192   3.888  17.559   2.028 -0.2428  0.2476  0.0836
78329W        W79193   6.032  14.985  22.178 -0.0626  0.1341 -0.0956
78330W        W79194  13.584   2.833   7.834 -0.2248 -0.2289  0.0860
78331W        W79195   2.384  11.073  16.595  0.2591  0.0169 -0.3128
78332W        W79196  22.588  10.347  19.709  0.0066  0.0447 -0.3272
78333W        W79197  15.002   2.556   7.655 -0.1810  0.0790 -0.1458
78334W        W79198   5.510  19.185   0.364 -0.4261  0.1342  0.1453
78335W        W79199  25.105  21.472  25.901 -0.1644  0.0888  0.1317
78336W        W79200   4.962  13.261  12.246  0.0770  0.0297  0.0354
78337W        W79201   9.730  15.875   0.659 -0.1392 -0.2621  0.1267
78338W        W79202  14.552  17.324   1.633  0.0463 -0.1178  0.2108
78339W        W79203  17.172  27.464  21.727 -0.1807 -0.1133 -0.2021
78340W        W79204  19.955  24.206  10.311 -0.0522 -0.3728 -0.1610
78341W        W79205   8.688  21.253  28.774  0.2578 -0.0489 -0.1553
78342W        W79206  13.799  22.985  24.658 -0.0674  0.1612  0.0461
78343W        W79207  21.575  25.729  11.386 -0.1243  0.2789  0.2019
78344W        W79208  27.802   2.760  24.144  0.1075 -0.3640 -0.3041
78345W        W79209  20.761   9.544  12.955  0.2499  0.2824  0.1105
78346W        W79210  18.354  25.529  20.173 -0.1382  0.0872  0.1301
78347W        W79211  24.406  24.005  16.568  0.0629 -0.0992 -0.0095
78348W        W79212  28.492  27.437  15.826  0.0860  0.0562  0.1174
78349W        W79213  25.380   5.688   2.718  0.2716  0.1843  0.0502
78350W        W79214   6.617   7.752  17.904  0.2153  0.1473 -0.2895
78351W        W79215  19.071   5.125  26.310  0.1031  0.2664 -0.0163
78352W        W79216  12.704  12.491  14.541 -0.0557 -0.6961  0.1246
78353W        W79217  22.311  16.345  19.411 -0.1175 -0.0473 -0.1106
78354W        W79218   5.398   1.736   8.821 -0.0211  0.1561  0.1401
78355W        W79219  15.022   8.524   3.004  0.1340  0.3298 -0.0270
78356W        W79220   2.645  27.238  15.524  0.1998  0.0007  0.0463
78357W        W79221   5.482   0.503   1.762 -0.0664 -0.0683  0.0258
78358W        W79222   9.871  24.136   8.562  0.0812 -0.2093 -0.2611
78359W        W79223  22.615   2.452  20.414  0.1668 -0.0724  0.0294
78360W        W79224  22.564  21.424   5.383  0.1629 -0.1583 -0.2140
78361W        W79225  19.521  14.090  22.504  0.0611 -0.0526  0.2739
78362W        W79226   7.022  18.245  21.499 -0.0214  0.1783 -0.0692
78363W        W79227  18.043   6.936  27.744  0.2449  0.2940 -0.0191
78364W        W79228  23.652   9.156  19.290 -0.1797 -0.3304 -0.1343
78365W        W79229   2.406   2.507  16.328 -0.0349 -0.0976 -0.4429
78366W        W79230   2.810   8.382  21.834 -0.2029 -0.0736  0.1262
78367W        W79231  28.231  21.804  16.790  0.2255  0.3628  0.3910
78368W        W79232   8.952   8.977   1.830 -0.5761 -0.1905 -0.0938
78369W        W79233   5.970   8.569   4.004 -0.3490  0.0712 -0.1004
78370W        W79234  21.759  16.226  24.439 -0.1002 -0.2364 -0.1246
78371W        W79235  26.270  24.082  10.893 -0.3079  0.3841  0.2672
78372W        W79236   1.019  26.051   1.730 -0.0043 -0.0402  0.0693
78373W        W79237  18.051   5.925  21.290  0.0808  0.1151  0.1988
78374W        W79238   4.248   4.121  16.329  0.2505 -0.2189 -0.1445
78375W        W79239  27.816   8.048   6.282 -0.1924 -0.0629 -0.0518
78376W        W79240  28.131  16.192  15.306  0.0298  0.1395 -0.2611
78377W        W79241  22.426  23.088   0.444 -0.2133  0.0922  0.1666
78378W        W79242  18.091  25.321  14.311 -0.1883  0.0005 -0.1066
78379W        W79243  26.887   8.259  20.506 -0.0097 -0.1650  0.0997
78380W        W79244  17.799   0.956  21.495  0.0722 -0.0225 -0.1272
78381W        W79245   6.201   4.239   2.289 -0.2298 -0.2350  0.3127
78382W        W79246  27.994  11.112  25.216 -0.3004  0.0632 -0.0717
78383W        W79247  16.759  18.281  21.613  0.1174 -0.3460  0.0721
78384W        W79248  19.270  16.063  16.847 -0.1067 -0.2772 -0.3275
78385W        W79249  14.494  18.678  28.748  0.0699  0.0580 -0.3235
78386W        W79250  21.694   2.815  23.577  0.1215 -0.0968  0.2669
78387W        W79251   3.384  27.590  14.522  0.1227 -0.0169 -0.3159
78388W        W79252  18.437  27.263  19.454  0.2029  0.0639  0.3425
78389W        W79253  10.794  19.920   8.741  0.0720  0.0504 -0.2611
78390W        W79254  18.734  23.161  11.938 -0.1020  0.3829 -0.2628
78391W        W79255  17.638  29.033   7.155  0.2512 -0.0971  0.2452
78392W        W79256  12.756  24.092   2.179  0.1974 -0.1177 -0.1644
78393W        W79257  22.179  11.883   8.146  0.1309 -0.1492  0.1341
78394W        W79258   4.980  24.449   7.671 -0.1177 -0.1304 -0.1545
78395W        W79259  12.107   6.675   0.562 -0.1179  0.0370  0.0088
78396W        W79260  25.706  12.923  12.032  0.2690  0.3151  0.1778
78397W        W79261  11.346  16.448  26.921 -0.0157  0.1106 -0.0042
78398W        W79262   4.854  19.862  17.442 -0.1020  0.0017  0.0532
78399W        W79263  11.144   1.044  23.799  0.1066 -0.1051  0.0170
78400W        W79264  10.299   5.617  22.056  0.0517 -0.0522 -0.0756
78401W        W79265  21.431  22.060  20.145  0.0347  0.1064  0.1363
78402W        W79266   6.006   1.745  16.356 -0.1269 -0.0091  0.3272
78403W        W79267  18.553  25.580  18.738 -0.1015  0.1080 -0.1561
78404W        W79268  10.760  12.062  19.515 -0.0471 -0.1742 -0.0005
78405W        W79269  19.584   6.996  20.280  0.0388  0.1229 -0.0364
78406W        W79270  23.843  19.841  26.045  0.0923  0.1331  0.0905
78407W        W79271  25.174   4.993  19.800  0.0424 -0.2346 -0.0994
78408W        W79272  26.323  19.187   1.396 -0.1421  0.1773 -0.0969
78409W        W79273   1.261  22.714   8.859  0.1230 -0.3416 -0.3389
78410W        W79274   2.107   6.632   2.722  0.1946 -0.3369  0.1496
78411W        W79275  24.289  13.692  28.344  0.0485 -0.1827  0.1295
78412W        W79276  27.882  18.130  18.581  0.2149 -0.0483  0.0388
78413W        W79277  24.354  17.249  17.628 -0.0863  0.3216 -0.0041
78414W        W79278  19.447   7.571  19.116  0.1145 -0.2567 -0.1102
78415W        W79279  18.686  26.894  21.693 -0.1566  0.0511  0.0577
78416W        W79280  20.105  20.076   8.474  0.0334  0.0420  0.0447
78417W        W79281  13.850  18.228  19.165  0.0725 -0.0222  0.1269
78418W        W79282  17.945  23.515  20.621  0.1830 -0.1567  0.1257
78419W        W79283   7.244  16.351  16.566  0.0618  0.2766 -0.2214
78420W        W79284  21.938   8.895  17.722  0.1594  0.1747 -0.1199
78421W        W79285   4.432  10.216  23.591 -0.3311  0.4148  0.1453
78422W        W79286  21.206   6.887  24.718 -0.3975  0.1383 -0.0324
78423W        W79287   4.755   2.786   0.772 -0.4356  0.2953  0.0026
78424W        W79288  13.473  27.726   2.881 -0.1579  0.1296 -0.1746
78425W        W79289  23.300  10.133  15.637  0.0695  0.1016 -0.0452
78426W        W79290  19.889  13.854  14.428  0.0700 -0.0877 -0.2400
78427W        W79291  14.946  16.926  26.928 -0.3816 -0.1510 -0.1271
78428W        W79292  20.514  12.014   3.570 -0.2041  0.0352  0.0651
78429W        W79293   4.085  24.495  19.508  0.2848 -0.2976 -0.1351
78430W        W79294   6.712  14.855  20.117  0.1031 -0.0524  0.1254
78431W        W79295  25.959   1.379  21.031 -0.1741  0.1946  0.1091
78432W        W79296  15.783   2.609  10.487  0.3160  0.0534  0.1591
78433W        W79297   9.363  23.951   9.318 -0.2520  0.0860 -0.3318
78434W        W79298  15.087   7.408  20.592  0.0044  0.0546 -0.0656
78435W        W79299  13.026  20.496  23.173  0.0877 -0.0847 -0.0061
78436W        W79300  10.896   1.059  13.987  0.1256  0.0750  0.0605
78437W        W79301  17.166   2.918  21.333  0.2956  0.1963  0.1879
78438W        W79302  24.774  25.700  14.638 -0.0361 -0.3103  0.0236
78439W        W79303   1.476  25.518  12.786  0.1461  0.2468  0.0563
78440W        W79304  19.481  28.890   0.755 -0.1359  0.0857 -0.0051
78441W        W79305   9.692   9.282  22.193  0.0339  0.1473  0.2124
78442W        W79306  25.663  17.877  26.297 -0.0314  0.2349 -0.1396
78443W        W79307  28.958  21.559  21.869  0.0708 -0.0985  0.2735
78444W        W79308  20.003   8.535  18.972 -0.0652  0.0220 -0.3413
78445W        W79309   8.976  18.651   0.869 -0.2670  0.0354 -0.0778
78446W        W79310  28.925  21.210   6.216 -0.0343  0.1583  0.0760
78447W        W79311  27.136  14.956  16.441 -0.0116  0.1773  0.3454
78448W        W79312   1.555  26.841  16.941 -0.1982  0.0534  0.2983
78449W        W79313   8.758  16.299  16.457  0.2621 -0.0443  0.1639
78450W        W79314  11.449  21.711  28.822 -0.0253  0.0146  0.0633
78451W        W79315  26.637  25.474  18.709  0.1478 -0.1750 -0.1451
78452W        W79316  15.246  12.294  24.428  0.2547  0.4065 -0.0419
78453W        W79317   7.404  19.751  17.705  0.0651 -0.1548 -0.3749
78454W        W79318   7.612  24.592  12.726 -0.0428 -0.0616  0.0805
78455W        W79319  27.773  26.056  26.305  0.0047  0.1376  0.1403
78456W        W79320  22.473  23.004  23.851 -0.0991  0.0043 -0.2700
78457W        W79321  12.058   5.896   9.664 -0.1117 -0.3966  0.0492
78458W        W79322   8.109  24.333  20.088 -0.1352  0.0769  0.1518
78459W        W79323   2.351   0.347  17.361 -0.1775 -0.2177 -0.0525
78460W        W79324  22.976  18.622   9.000  0.3377 -0.1146 -0.0760
78461W        W79325  22.541  22.894  21.191 -0.0473  0.0346  0.2144
78462W        W79326  24.488  10.882  27.350 -0.0397 -0.1993  0.0888
78463W        W79327   2.212   5.379  25.607  0.0267 -0.1492  0.0112
78464W        W79328  25.054  29.071  19.498  0.0101  0.2778  0.0355
78465W        W79329  20.441   7.578  26.402 -0.1281 -0.1228 -0.0749
78466W        W79330   0.723   6.213   7.088 -0.3106  0.3365  0.1375
78467W        W79331   3.392   9.726   9.156  0.1723 -0.0538 -0.0007
78468W        W79332   4.145  17.014   8.273 -0.0562  0.0581  0.0372
78469W        W79333  25.676   0.527  22.754  0.3060  0.0343 -0.0703
78470W        W79334  21.387  25.511  25.536 -0.1159 -0.0011  0.3927
78471W        W79335  22.255  20.427  24.533  0.2568 -0.0524 -0.0017
78472W        W79336  18.851  22.270  27.168 -0.1840  0.1388 -0.0819
78473W        W79337  25.218  20.065  16.654  0.0292  0.0934  0.0947
78474W        W79338  23.283  22.374  10.412 -0.0318  0.1841  0.1896
78475W        W79339  23.831  16.054   8.482  0.2090  0.2100  0.0255
78476W        W79340  16.072  26.538  19.817 -0.0097  0.0006  0.1960
78477W        W79341  24.950   3.626  24.549 -0.2566  0.0360  0.2642
78478W        W79342  23.014  27.404  22.527 -0.0759 -0.2448  0.2962
78479W        W79343  22.634   9.694  21.975  0.1558  0.0033 -0.1945
78480W        W79344  24.189  14.211  19.740 -0.1472 -0.1534 -0.0303
78481W        W79345  21.869  13.836   1.713 -0.1395  0.2156 -0.0001
78482W        W79346  17.231   1.703   4.776  0.2407 -0.0257  0.3151
78483W        W79347  21.422  21.034  21.475 -0.2163  0.3807 -0.3446
78484W        W79348  26.274  12.669  14.490 -0.0146 -0.1083  0.2668
78485W        W79349  27.667  26.348   3.825  0.3283 -0.0586  0.1355
78486W        W79350  23.999  14.970   0.993 -0.0054  0.2770 -0.2230
78487W        W79351  27.621   3.045  24.563  0.0287  0.1261 -0.1503
78488W        W79352  18.249  24.118  23.989  0.1051 -0.2126 -0.0357
78489W        W79353  26.808  23.719  24.675  0.4715  0.1226 -0.1571
78490W        W79354  28.155   6.732  28.231  0.0898 -0.3472 -0.2925
78491W        W79355  26.740  14.714  12.282  0.0070 -0.0029  0.0793
78492W        W79356  25.124  17.409   9.702 -0.0435  0.0864  0.2064
78493W        W79357  20.365   4.889  20.823 -0.2661 -0.1435  0.4106
78494W        W79358  28.989   2.633  18.276  0.0429  0.0243  0.4816
78495W        W79359  16.465  12.695  21.245  0.0008 -0.4336  0.0968
78496W        W79360   7.418   8.961   4.426  0.0553 -0.2931  0.1436
78497W        W79361  23.063  10.447  28.520 -0.0419  0.0251  0.2484
78498W        W79362  21.169   0.885  19.275  0.0332 -0.1179  0.0521
78499W        W79363   3.377   8.603  17.079 -0.2946 -0.3632 -0.0291
78500W        W79364   1.121   8.092  27.809 -0.2284 -0.0369  0.1783
78501W        W79365   1.673   9.810  21.904  0.3604 -0.0390 -0.2557
78502W        W79366  26.888  12.436   7.481 -0.2061  0.2790  0.2941
78503W        W79367   4.325  19.516  16.386 -0.0963  0.0535 -0.1946
78504W        W79368  14.469  17.128   0.276 -0.0614  0.1197 -0.1649
78505W        W79369  19.279  10.771  21.164 -0.1818 -0.1305 -0.0252
78506W        W79370  17.614   1.310   9.586  0.1579 -0.0255 -0.3398
78507W        W79371  21.928  10.883  17.497  0.0119  0.4157 -0.2102
78508W        W79372  25.448  25.977   8.964  0.1575  0.4196 -0.0918
78509W        W79373  16.737  18.462  28.459 -0.4833  0.1680 -0.2313
78510W        W79374  19.204  19.987  19.967 -0.1476  0.1949  0.0935
78511W        W79375  28.539  13.231   4.611  0.1623 -0.1814 -0.0391
78512W        W79376  18.152  25.688   6.565  0.1818  0.4718 -0.1649
78513W        W79377  24.058  26.811   5.871  0.0805 -0.0291 -0.1091
78514W        W79378  18.600  25.128   4.533  0.0374 -0.0802  0.0165
78515W        W79379  27.545  11.103   3.820 -0.0225 -0.2159  0.0022
78516W        W79380  14.598  26.327  18.059  0.2488  0.3240  0.2595
78517W        W79381  29.001   2.348   7.135  0.1032  0.2328 -0.0806
78518W        W79382  26.754   5.431  25.227 -0.2243 -0.0069  0.0193
78519W        W79383  28.785  24.953  24.455  0.1808 -0.1714  0.1224
78520W        W79384  13.411  18.729   7.051  0.0246  0.0983 -0.3373
78521W        W79385  17.949  21.176  17.907  0.0671 -0.2149 -0.0225
78522W        W79386  21.173  21.042  22.109  0.0741 -0.2369 -0.0832
78523W        W79387  21.867  16.479  28.783  0.0727 -0.2906 -0.3307
78524W        W79388  15.191   7.357   2.206  0.4802  0.0024 -0.1675
78525W        W79389  18.889  27.836   4.159  0.0166 -0.2307  0.5016
78526W        W79390   6.974  17.986  12.004  0.0627  0.0781 -0.1397
78527W        W79391  21.158  10.463   6.065 -0.4801  0.0547 -0.1810
78528W        W79392   5.387   2.550   2.925 -0.0643  0.0190  0.2321
78529W        W79393   5.832   7.266  16.392 -0.2997  0.1329 -0.0099
78530W        W79394  25.722   4.132  17.895 -0.0114 -0.1725 -0.1925
78531W        W79395   0.728  25.272  25.146 -0.0672 -0.1033  0.0093
78532W        W79396  15.138   6.624   8.213 -0.1443  0.1374 -0.2174
78533W        W79397  19.497  16.889  21.123  0.0704  0.0617 -0.3506
78534W        W79398  15.231  17.868  19.458  0.3194  0.2507 -0.1207
78535W        W79399  25.703   4.023  18.821 -0.0563  0.2567 -0.2766
78536W        W79400   8.390  13.832   8.157 -0.0234 -0.2927  0.1010
78537W        W79401  14.390  24.061  22.328 -0.2741 -0.1197 -0.0044
78538W        W79402   7.239  22.528   1.928 -0.1676 -0.2772 -0.0116
78539W        W79403  11.194  11.036  24.441  0.0596  0.0139 -0.1291
78540W        W79404   9.611   6.973  14.968 -0.0903  0.0614  0.0555
78541W        W79405  25.526  28.979  15.112 -0.3700 -0.2743 -0.1424
78542W        W79406   3.368  22.233   1.110 -0.1517  0.1162 -0.0082
78543W        W79407  20.356  19.712   1.551 -0.1191 -0.0602  0.1893
78544W        W79408   6.173  27.427  25.427 -0.0299  0.0246 -0.0242
78545W        W79409  15.479  22.220  22.587 -0.0332 -0.1884 -0.1636
78546W        W79410  22.705  19.773   7.447  0.0010  0.0095  0.1106
78547W        W79411  24.935  25.946  28.136 -0.0547 -0.1626 -0.0741
78548W        W79412  28.746  17.780  10.822  0.2113 -0.0679 -0.1140
78549W        W79413  21.396  28.182  12.911  0.1191  0.2026  0.0321
78550W        W79414  25.291  22.661  27.166  0.0227 -0.0429  0.2815
78551W        W79415   5.409   4.343   0.383  0.1676 -0.0073 -0.0287
78552W        W79416   0.613  27.803   5.087  0.1776 -0.1346 -0.2853
78553W        W79417   7.532   5.200  14.256  0.1024  0.0069 -0.2531
78554W        W79418  16.736   3.758   7.497  0.2008 -0.1224  0.1213
78555W        W79419  19.680   5.181  21.428  0.1668 -0.0943 -0.0226
78556W        W79420   6.907  25.355   0.919 -0.2819  0.1542 -0.2878
78557W        W79421  28.242  23.453   6.545  0.1665 -0.1635  0.0063
78558W        W79422  16.301  27.729  21.199  0.2601  0.1498  0.0560
78559W        W79423  22.025  24.670  23.851  0.1420 -0.0361  0.0995
78560W        W79424  26.362  25.409  28.016 -0.0411  0.0647  0.5549
78561W        W79425   6.692  14.534   9.694 -0.3079  0.0132 -0.0104
78562W        W79426  22.642  12.551  11.445 -0.0855  0.3125 -0.0885
78563W        W79427  20.301  17.572   2.223 -0.0665 -0.4826  0.0179
78564W        W79428  14.780  21.037  19.735  0.2706  0.2009 -0.0948
78565W        W79429   0.877  27.150  11.833 -0.0585  0.0619 -0.0781
78566W        W79430  24.040  28.725   3.809 -0.0306 -0.2480 -0.0654
78567W        W79431  22.930  14.045   5.328  0.2927 -0.1450 -0.2207
78568W        W79432  28.635   8.179   2.820  0.1858 -0.0640  0.1798
78569W        W79433  10.786   3.621  16.584  0.0621  0.3126  0.2331
78570W        W79434   1.742  13.239  25.349  0.2237 -0.2262 -0.0485
78571W        W79435   1.802   2.856  26.703 -0.0867 -0.2003 -0.3131
78572W        W79436   3.389  27.786  12.081 -0.2532  0.1583  0.0052
78573W        W79437   5.332  20.183  28.072  0.2020  0.3315  0.0473
78574W        W79438  10.105  16.566   2.254 -0.3639 -0.1737 -0.0474
78575W        W79439  16.627  13.874  28.601  0.1085  0.2018 -0.1146
78576W        W79440   1.387   2.682  12.978 -0.0850 -0.4126 -0.2246
78577W        W79441  21.632  12.913   7.050  0.1229  0.1050  0.2152
78578W        W79442  14.289  18.882  27.119 -0.0967 -0.1102 -0.2209
78579W        W79443  23.276   7.129  25.046  0.3521 -0.0096  0.1934
78580W        W79444  21.464  17.018   4.024  0.0204 -0.1228 -0.0823
78581W        W79445  26.608   9.516  21.416  0.2086  0.0180 -0.1796
78582W        W79446  26.594  11.489  20.019 -0.0494 -0.0564 -0.0431
78583W        W79447  20.849  23.019  25.998  0.0435 -0.1652 -0.1745
78584W        W79448  19.060   0.312  27.223  0.3714  0.2199  0.1065
78585W        W79449  25.617  28.641   0.421 -0.4008  0.0316  0.3535
78586W        W79450  17.999  13.926  20.679 -0.0200 -0.2599 -0.3394
78587W        W79451  21.691  22.070  27.050  0.1886  0.1203 -0.1441
78588W        W79452  22.014  11.973  26.793 -0.3594  0.1213 -0.0250
78589W        W79453  11.392  13.862  16.646 -0.0026 -0.0789  0.0639
78590W        W79454  16.308  17.304  22.133  0.1959  0.1081  0.0924
78591W        W79455   4.099  20.100  20.122  0.4060 -0.0061  0.1327
78592W        W79456  28.386   9.779  25.095  0.2626  0.0183 -0.1039
78593W        W79457  26.395  23.330   9.467 -0.1421  0.3358  0.0568
78594W        W79458  20.296   1.397   9.862 -0.1278 -0.3828 -0.0336
78595W        W79459  28.868  19.219  13.614 -0.1923 -0.0867 -0.0363
78596W        W79460  21.929  20.680   5.123  0.0881 -0.1602  0.2707
78597W        W79461   8.320  11.402   7.584 -0.1755  0.1425  0.0483
78598W        W79462  24.209   9.784  22.784  0.0804 -0.0649  0.1669
78599W        W79463  18.127  22.913   8.803  0.0738  0.0735  0.1844
78600W        W79464  10.142  18.262  17.105  0.2467  0.0707 -0.0637
78601W        W79465   3.724   4.003  25.433 -0.1003  0.2742 -0.0142
78602W        W79466  10.109  27.335   3.775  0.0770 -0.1944  0.2655
78603W        W79467   4.643   0.965  14.181 -0.0532  0.0736 -0.2643
78604W        W79468  15.401  27.824   2.349  0.0294  0.2236  0.2693
78605W        W79469   9.209  29.122   2.327 -0.0171  0.0448 -0.0612
78606W        W79470  28.625  19.208  28.439 -0.0521 -0.0730 -0.2796
78607W        W79471  20.997   7.995  14.366 -0.2291  0.3227  0.1558
78608W        W79472   1.930  28.904  25.318 -0.1371 -0.1766 -0.0370
78609W        W79473   1.027  26.457  27.412  0.0854 -0.0252 -0.0661
78610W        W79474  12.827  20.239  10.436 -0.0808 -0.0063 -0.0931
78611W        W79475  25.788   3.632  16.329 -0.2936 -0.2368  0.0629
78612W        W79476   1.705  22.668  11.512 -0.0942 -0.0909  0.0518
78613W        W79477  18.639  12.196   8.597 -0.1884  0.0954  0.0877
78614W        W79478  17.651  14.758  14.089  0.2502 -0.2338 -0.2857
78615W        W79479   3.388  19.649  28.614 -0.0490  0.1802 -0.5313
78616W        W79480  10.129  19.140  17.498  0.0160 -0.0038 -0.0472
78617W        W79481   2.538   5.812  15.777  0.0490  0.0583 -0.1107
78618W        W79482  24.745   9.988  16.015 -0.1955  0.1532  0.0243
78619W        W79483  16.336  28.274  28.687 -0.1623  0.3957 -0.0641
78620W        W79484  22.669   2.104  26.925 -0.1812 -0.0424  0.0276
78621W        W79485  12.749   4.594   9.472 -0.3540 -0.4028 -0.0130
78622W        W79486   7.328   5.460  16.843 -0.1194  0.0095  0.0170
78623W        W79487  27.021   5.241  18.071  0.1636  0.0553 -0.3038
78624W        W79488   6.029   9.686  11.639 -0.1152 -0.2774  0.1303
78625W        W79489  22.088  22.922   4.632 -0.0126 -0.0426  0.1601
78626W        W79490  21.735  26.035  23.340  0.0402  0.0169 -0.0169
78627W        W79491  26.027  28.778   5.533  0.1166 -0.0046  0.2669
78628W        W79492   6.172  18.382  22.066  0.2186 -0.2056 -0.2756
78629W        W79493   7.550  12.619  12.982 -0.0866  0.1971  0.0943
78630W        W79494  21.526  24.632   6.868 -0.0784 -0.1082  0.2432
78631W        W79495  17.841  27.837  16.721 -0.0867 -0.0036 -0.0319
78632W        W79496   0.164   5.032  16.779  0.1313  0.2347 -0.1241
78633W        W79497   6.808  13.736  13.844 -0.0364 -0.3197 -0.0627
78634W        W79498  23.609  23.679   0.832 -0.0469 -0.3218 -0.0103
78635W        W79499   5.097  17.690  20.458 -0.0966 -0.0234 -0.0956
78636W        W79500  23.145   3.551  14.965  0.0549  0.3242 -0.0230
78637W        W79501  15.427  16.854  22.210  0.0466 -0.1271  0.1728
78638W        W79502   2.151   1.832  21.432 -0.0509  0.1673 -0.2608
78639W        W79503  17.125  22.834  28.410  0.0008 -0.0731  0.1353
78640W        W79504   0.712  15.576   2.156  0.0967  0.1860 -0.1792
78641W        W79505  27.294   8.206  23.289 -0.0694 -0.2766 -0.0523
78642W        W79506  15.266   1.860  21.682  0.0610 -0.0230 -0.2165
78643W        W79507  16.339  15.011  27.802 -0.0119  0.1678 -0.2335
78644W        W79508  15.758  27.881   7.477  0.1446 -0.0205 -0.1325
78645W        W79509   6.706   9.998  22.462  0.0996  0.1529 -0.0927
78646W        W79510  19.391   4.832  12.299  0.0718 -0.3585 -0.1489
78647W        W79511  28.340  18.669  22.728 -0.1045  0.2762 -0.0342
78648W        W79512  23.456  11.491  15.216 -0.1696 -0.3306  0.2736
78649W        W79513  23.322  11.811   8.524  0.1406 -0.2282 -0.2546
78650W        W79514   9.706   6.619   1.949  0.5202 -0.1979 -0.2148
78651W        W79515   4.097   6.752  28.847 -0.0526 -0.0446 -0.1907
78652W        W79516  14.659   6.262   0.931 -0.1295 -0.0624  0.1218
78653W        W79517  26.436  23.271   2.578 -0.1625 -0.3924  0.2647
78654W        W79518  18.162  11.622  16.607 -0.2685 -0.0718  0.2582
78655W        W79519   9.753  16.494   9.730  0.1102 -0.0922  0.1327
78656W        W79520  15.952  20.862  26.055 -0.0845  0.0396  0.0492
78657W        W79521  12.000  26.122  23.492  0.0157 -0.0964  0.4351
78658W        W79522   0.265  23.413   0.645  0.1474 -0.0749  0.1522
78659W        W79523   2.654  23.512  13.684 -0.2717  0.1891 -0.1787
78660W        W79524  13.473  27.178  27.772  0.2828  0.2190 -0.1361
78661W        W79525   1.247  10.883  13.474 -0.1030  0.3909  0.0886
78662W        W79526   2.023  12.878  19.383 -0.1096  0.1519 -0.2652
78663W        W79527  17.273   4.641  10.438 -0.1685 -0.2094 -0.1456
78664W        W79528  17.454   1.568  21.944  0.1595 -0.1382  0.1396
78665W        W79529   2.083  24.720   9.996 -0.0467 -0.0278 -0.4521
78666W        W79530  19.660  28.623  25.730 -0.0813  0.2309 -0.0679
78667W        W79531  15.568  13.932  18.839 -0.1921 -0.1037  0.1504
78668W        W79532   8.869   2.685  14.083 -0.2569 -0.1166 -0.0849
78669W        W79533  27.631  16.099   1.347  0.0470 -0.1911 -0.1182
78670W        W79534  26.170  16.833   5.708 -0.2472  0.0709 -0.0668
78671W        W79535   5.627  14.524  12.807  0.1280  0.1989 -0.1804
78672W        W79536   1.610   8.232  28.032 -0.1221 -0.0239 -0.0685
78673W        W79537   6.391  20.164   2.146 -0.0670  0.0938 -0.2676
78674W        W79538   0.860  22.803  26.640 -0.2294 -0.1397  0.0832
78675W        W79539  22.266   4.326  22.771  0.2006  0.1119 -0.2269
78676W        W79540   2.072  24.307  28.510 -0.0121 -0.0015 -0.2017
78677W        W79541  17.316  27.197  28.005 -0.1061  0.1790 -0.0416
78678W        W79542  17.018  23.846   5.281  0.3716  0.0852  0.3104
78679W        W79543  28.026   2.466  18.621  0.1857 -0.0214 -0.2074
78680W        W79544  23.652  20.297  22.895  0.2171 -0.0471  0.2678
78681W        W79545  28.435   8.387   5.000 -0.0434 -0.2655 -0.0964
78682W        W79546   3.694   0.299   4.543 -0.1800 -0.0036  0.3615
78683W        W79547  14.770   7.403   9.334  0.1739  0.0624 -0.0773
78684W        W79548  12.508  20.143  20.644  0.1817  0.0181  0.0812
78685W        W79549   4.034  11.275  18.073  0.1488  0.2764  0.0076
78686W        W79550   0.424  13.617  25.988  0.1395  0.0071  0.2142
78687W        W79551   7.978   2.019  14.138 -0.0282 -0.1749 -0.1575
78688W        W79552  20.965  12.969   7.489 -0.1159  0.0651  0.2948
78689W        W79553  17.910  20.851  11.339 -0.0694 -0.2196  0.2644
78690W        W79554  19.194   2.242  21.459 -0.0250 -0.3756 -0.0385
78691W        W79555  11.888  15.609  20.259 -0.1191  0.0800  0.3420
78692W        W79556  17.254  19.822  25.103 -0.1172 -0.1583 -0.1353
78693W        W79557  22.668   3.708   6.469 -0.0662  0.3483  0.0612
78694W        W79558  18.112   8.729  25.078 -0.1753 -0.3940 -0.0817
78695W        W79559   8.091   9.020  21.065  0.0588 -0.0228  0.1291
78696W        W79560  29.065  27.471  21.119 -0.0814  0.1195  0.1742
78697W        W79561   2.312  10.202  13.569  0.2914  0.0182 -0.0515
78698W        W79562  22.290  24.378  26.367 -0.0264  0.2179 -0.1538
78699W        W79563   8.866  20.535  25.139  0.0528 -0.2911  0.5266
78700W        W79564  14.293   1.627  21.438  0.0699 -0.0501  0.1312
78701W        W79565  19.251  22.668   6.457 -0.0729 -0.1031  0.0449
78702W        W79566  27.674   0.854  20.497  0.3527  0.2330  0.1476
78703W        W79567   1.528  28.682  26.601 -0.0664  0.0118 -0.2054
78704W        W79568  25.526  24.320  27.316 -0.1266  0.0440 -0.0830
78705W        W79569  20.910  14.249   0.299 -0.1601 -0.3393  0.1245
78706W        W79570   5.648  18.958  17.465 -0.0078  0.0683 -0.2142
78707W        W79571   0.301   5.103  22.317 -0.0607  0.4451  0.0474
78708W        W79572  17.654  20.613  16.717  0.1093  0.0313 -0.0173
78709W        W79573  12.112  25.152  26.112  0.3594  0.0821  0.3150
78710W        W79574  11.776  22.672  18.007  0.2893  0.0425 -0.0319
78711W        W79575  18.138  26.948   9.552 -0.1662  0.2825  0.1298
78712W        W79576  19.655  23.071  23.287  0.4118  0.0938 -0.0241
78713W        W79577  26.860   3.196  14.155 -0.6038 -0.0274 -0.0116
78714W        W79578  16.465  23.455  19.781 -0.1374  0.1975 -0.1601
78715W        W79579  25.998   7.791  17.151  0.1252 -0.0199 -0.1660
78716W        W79580   7.243  11.806   1.657  0.2454  0.1969 -0.1237
78717W        W79581  20.928  17.942  22.638 -0.0444 -0.3119 -0.0931
78718W        W79582  23.364  23.204  20.799  0.1359 -0.3338 -0.0490
78719W        W79583  28.740   7.392   3.224  0.1240  0.1449 -0.0893
78720W        W79584   1.710   2.381  13.320  0.0339 -0.3720 -0.1379
78721W        W79585   0.035  13.369  16.457 -0.2396  0.2307  0.1056
78722W        W79586  21.401   1.310  14.551  0.1669  0.0314  0.0241
78723W        W79587  13.240  28.634  22.316  0.2620 -0.0575 -0.1058
78724W        W79588  26.112  28.425  26.202  0.1609  0.0133  0.1245
78725W        W79589  17.778  19.151  27.948 -0.3095  0.0826  0.2515
78726W        W79590   0.950   8.575  25.466 -0.1706 -0.1540  0.0274
78727W        W79591   0.553   1.990  23.231  0.1303 -0.2801 -0.0110
78728W        W79592  22.136   6.253  15.838  0.1585 -0.0188  0.0817
78729W        W79593  22.330   4.101   8.124  0.3457 -0.0861  0.0923
78730W        W79594   9.971   7.945   4.549 -0.0853  0.3762  0.0442
78731W        W79595  10.904   6.160  21.193 -0.1720  0.3676  0.1410
78732W        W79596   1.965  22.038  22.100 -0.2302  0.0191  0.1929
78733W        W79597  22.897   5.979   4.312 -0.0254  0.3566  0.3113
78734W        W79598   2.809  24.648  14.043  0.1393 -0.2217  0.1850
78735W        W79599  23.400  28.309   2.354  0.0908 -0.0206 -0.0474
78736W        W79600  19.088  17.881   9.927 -0.0145 -0.1117 -0.1349
78737W        W79601   2.387  16.774  27.320 -0.2135  0.1061  0.1792
78738W        W79602  16.784  18.416  18.229  0.0054 -0.0899  0.2545
78739W        W79603   5.975  28.721  18.818 -0.2145  0.2543  0.1140
78740W        W79604  25.995   1.709  20.081 -0.0336 -0.0425 -0.1640
78741W        W79605  21.661   0.021  20.058 -0.0028 -0.0130 -0.3727
78742W        W79606   3.877  15.420  11.713 -0.0113  0.1530  0.0146
78743W        W79607   7.946  25.555   5.563 -0.1071  0.6466  0.1494
78744W        W79608   9.051   9.280   4.288  0.2767 -0.1434 -0.0439
78745W        W79609  22.406  11.637   6.994 -0.0328  0.3083 -0.0591
78746W        W79610   8.598   9.052  11.633  0.0883  0.3449 -0.0331
78747W        W79611  26.812   3.867  17.601  0.1273  0.2080  0.0202
78748W        W79612   1.485  23.725  17.709 -0.0417 -0.0117 -0.2222
78749W        W79613  29.109  24.129  26.474  0.0162  0.0146 -0.0310
78750W        W79614  23.193  19.487  20.076  0.0493 -0.0194 -0.0538
78751W        W79615   1.251  15.273  27.546  0.1293 -0.0036  0.4710
78752W        W79616  19.639  26.867   1.102 -0.1590  0.0029 -0.4626
78753W        W79617   3.033   9.543  16.351 -0.3577 -0.1500  0.1387
78754W        W79618  24.176   0.858   5.948  0.1934  0.0402 -0.0567
78755W        W79619  27.935  13.009   5.400  0.1784  0.2696  0.1285
78756W        W79620  23.346  18.927   2.988  0.0409  0.2134 -0.0270
78757W        W79621   5.940  21.302  23.988 -0.1216  0.2046  0.3738
78758W        W79622  13.895  16.107  23.599  0.0636 -0.0039  0.2922
78759W        W79623  26.991   0.437  21.162  0.0078  0.0596  0.2040
78760W        W79624   0.979   5.728   3.331  0.0230  0.0689  0.3016
78761W        W79625  27.615  14.247  16.013 -0.4157  0.0710 -0.1453
78762W        W79626  19.352   2.189  26.232 -0.1780  0.0416 -0.0249
78763W        W79627  26.918  18.766  10.136  0.0868 -0.2239 -0.0101
78764W        W79628   0.187   2.907  25.785  0.3797  0.1088 -0.1463
78765W        W79629  28.465   5.770   6.771  0.2845  0.1308  0.0490
78766W        W79630  26.396  19.512   3.807  0.0697  0.1446 -0.2207
78767W        W79631  27.165  24.557  14.733 -0.2814  0.0564  0.2261
78768W        W79632  16.438   0.530  12.751  0.1709  0.2589  0.0603
78769W        W79633  11.902  22.633  24.685  0.2243  0.1912 -0.1704
78770W        W79634  25.663   9.481  25.174 -0.1514  0.1613  0.0318
78771W        W79635   4.225  26.531  14.915  0.0658 -0.1308 -0.0957
78772W        W79636  24.882  18.782  10.527  0.1235  0.3642  0.2106
78773W        W79637  25.425  27.690   7.476  0.0708 -0.1707 -0.0637
78774W        W79638   7.721   4.833  16.076 -0.1952 -0.4515  0.1382
78775W        W79639  19.095  24.251  17.382  0.1339 -0.0243  0.1805
78776W        W79640   0.210  21.741  17.755  0.1543 -0.0707 -0.1067
78777W        W79641   2.111  20.685  27.547 -0.1579 -0.1534  0.0503
78778W        W79642   3.245   3.607  12.006 -0.2968 -0.0478  0.0939
78779W        W79643   3.483  28.528  18.393  0.0584  0.4817 -0.4701
78780W        W79644   5.663  12.482  15.980 -0.1178  0.0823  0.1154
78781W        W79645  16.796  22.693  17.787  0.0775  0.1729 -0.2082
78782W        W79646   2.061  24.090   5.064  0.1870 -0.0079  0.1085
78783W        W79647  23.584   4.209  23.710  0.3134 -0.2080 -0.0533
78784W        W79648  17.853   4.412  12.568  0.3669 -0.0084 -0.2529
78785W        W79649  22.326  24.598  10.672 -0.2095 -0.1572 -0.0846
78786W        W79650   0.565  17.624  16.331 -0.1817  0.1067 -0.0467
78787W        W79651  24.567  26.576  10.198  0.2236 -0.3466 -0.1774
78788W        W79652  22.333   3.713  14.657  0.0175  0.3498  0.1082
78789W        W79653  25.743   5.491  18.147 -0.1378  0.1194 -0.0914
78790W        W79654  15.480   9.867  20.918  0.1971  0.0602  0.0083
78791W        W79655  20.514   5.646  21.557  0.1030  0.3252 -0.0554
78792W        W79656   8.057  26.282   7.122  0.1922  0.4655  0.2430
78793W        W79657   2.996  10.396   6.836 -0.2393 -0.0130  0.0092
78794W        W79658  27.650  15.536   5.538  0.2084  0.1497 -0.1660
78795W        W79659  25.636   9.993   5.731 -0.0580  0.0744 -0.0664
78796W        W79660   7.714  20.168  21.589  0.2771  0.2421 -0.0713
78797W        W79661  28.802  23.674   9.738  0.0152  0.0213 -0.0096
78798W        W79662   7.506   4.804   2.057 -0.2592  0.0112 -0.0983
78799W        W79663  19.292  25.189  15.553 -0.0767  0.0562 -0.2169
78800W        W79664   3.276  28.849   1.552  0.0241  0.1840 -0.0134
78801W        W79665  21.195  26.457  25.327 -0.1729  0.0548  0.0155
78802W        W79666  11.289   6.818  24.196 -0.2285  0.2167 -0.0557
78803W        W79667  26.163  15.876  24.793 -0.3761  0.2393 -0.0315
78804W        W79668   1.066  25.133   8.613 -0.3060 -0.1888  0.2016
78805W        W79669   3.705  17.522   6.137  0.0360  0.1884  0.1392
78806W        W79670  11.891   5.770  24.126  0.0478 -0.2044 -0.3171
78807W        W79671   0.186  13.992   8.559 -0.2334  0.2602  0.1248
78808W        W79672  15.502   7.722  16.101 -0.2023  0.1461  0.2765
78809W        W79673  22.747   0.436   8.441 -0.1265 -0.0074  0.0339
78810W        W79674  27.890   4.710  21.400 -0.0740 -0.4469  0.0567
78811W        W79675  20.734  18.670  23.608 -0.1569  0.0783 -0.2719
78812W        W79676  27.594  22.491  26.091 -0.0461 -0.0975  0.1621
78813W        W79677  21.144   3.179  15.657  0.2697  0.2253  0.0710
78814W        W79678   9.120  17.768   8.815 -0.0733 -0.1370 -0.2365
78815W        W79679   0.729  24.489   5.436 -0.0871  0.0299  0.0521
78816W        W79680  26.765  19.625  25.849  0.0078  0.2030 -0.1817
78817W        W79681  14.816   2.320  25.928  0.1168  0.2075  0.0140
78818W        W79682  23.645   8.172  16.445  0.1602  0.2077 -0.1238
78819W        W79683  20.454  23.315   5.636 -0.1399 -0.1733  0.1117
78820W        W79684   8.155  27.469  18.268  0.1014  0.0119  0.0250
78821W        W79685  26.960  27.145  15.997 -0.1095  0.0347  0.1628
78822W        W79686   9.552   2.375  25.896 -0.0279  0.4426 -0.0720
78823W        W79687  27.072  24.514   2.021 -0.2812  0.2271  0.0734
78824W        W79688  27.675   0.199   9.503  0.1606  0.2288 -0.0946
78825W        W79689  26.038  24.315  22.700 -0.0402  0.2847  0.0076
78826W        W79690  25.845   1.841  25.102  0.0315 -0.1269 -0.0807
78827W        W79691   4.786  26.102  19.009 -0.0360  0.1767  0.0593
78828W        W79692  17.980  20.462  26.147 -0.1646 -0.1541 -0.1356
78829W        W79693  11.259  21.757  13.995  0.3384  0.1294 -0.2301
78830W        W79694  14.030  28.968  17.555 -0.0129  0.1117  0.0479
78831W        W79695   4.790  22.933   5.653  0.1671  0.0659 -0.0831
78832W        W79696  23.422  26.111  11.825  0.1126  0.0702 -0.2284
78833W        W79697   1.681  17.290  22.585 -0.0233 -0.1574  0.4590
78834W        W79698  17.729  25.951  13.639  0.1375  0.0732  0.3493
78835W        W79699  24.164  27.836  17.339 -0.0117  0.2122 -0.1822
78836W        W79700  23.465  28.742  13.403 -0.2274  0.1555 -0.1227
78837W        W79701  15.297  19.409  13.997  0.0713 -0.1863 -0.0631
78838W        W79702  23.130   4.126  18.319 -0.0456  0.0671 -0.0102
78839W        W79703  21.554  20.789  22.372 -0.0744  0.3814  0.0375
78840W        W79704  19.638  10.933  22.644  0.1578 -0.4481 -0.0855
78841W        W79705   4.475  28.238   4.555  0.0834 -0.1864 -0.1979
78842W        W79706  12.358   9.574  10.959  0.0228  0.1937 -0.3722
78843W        W79707  18.762  26.856   9.428  0.1756  0.0162  0.1891
78844W        W79708  24.702  28.844   2.445 -0.1351  0.1790 -0.0412
78845W        W79709  24.753  14.828  27.903 -0.5965  0.3281 -0.1961
78846W        W79710  17.894  12.040  22.385 -0.0432  0.1284  0.2463
78847W        W79711   5.609   2.314  23.467 -0.1221  0.0950  0.0214
78848W        W79712  17.598  21.840  11.840 -0.0538  0.3541  0.0780
78849W        W79713   2.183  10.478  18.451  0.0726  0.1266  0.1619
78850W        W79714  20.719  22.944  12.155  0.2789  0.1243  0.2959
78851W        W79715  24.901  21.337  13.822 -0.1591 -0.0484 -0.0290
78852W        W79716  12.171  13.115   9.715 -0.2194  0.1361 -0.0822
78853W        W79717  16.002   0.308  18.597  0.1842  0.0473 -0.0813
78854W        W79718  21.801   2.604   7.262  0.3442  0.1838 -0.0124
78855W        W79719  18.488  14.004  18.561 -0.0407 -0.3148 -0.1695
78856W        W79720  14.954  20.979   2.763 -0.0624  0.1085 -0.0544
78857W        W79721  18.393  28.616   3.406 -0.1714  0.3476  0.3614
78858W        W79722  17.657  19.154   4.954  0.2899  0.0515 -0.2355
78859W        W79723  24.020  19.286  25.366 -0.2030 -0.1328 -0.1813
78860W        W79724   0.744   7.750  25.914  0.1046  0.2842 -0.0207
78861W        W79725  15.555  24.754  22.764  0.0692 -0.3747  0.0339
78862W        W79726  10.746  18.416  20.572 -0.1070 -0.3018  0.1601
78863W        W79727  14.979   9.287  15.234 -0.2731 -0.2731  0.0910
78864W        W79728  17.187  26.573   7.611 -0.2051  0.1368  0.4562
78865W        W79729  10.118  14.065   3.345  0.0158  0.0313 -0.2797
78866W        W79730  24.612  21.009  20.396 -0.0950  0.0460 -0.2420
78867W        W79731  27.814   1.167  13.688  0.2118 -0.2215  0.0394
78868W        W79732   8.201  15.010  19.632 -0.1776  0.2197  0.0158
78869W        W79733  24.624   1.260   6.093  0.0880 -0.0664  0.3658
78870W        W79734  24.010   8.416  26.195 -0.0401  0.1841 -0.0934
78871W        W79735  22.304   9.923   5.217 -0.1282  0.3274  0.3130
78872W        W79736  19.979  27.325  21.593  0.1290  0.0968 -0.2056
78873W        W79737  16.298   1.142   9.225 -0.1075  0.2689 -0.2022
78874W        W79738  10.143  13.362  25.259 -0.3062  0.3193  0.0633
78875W        W79739  12.030  25.875  17.085 -0.4034 -0.0648  0.0183
78876W        W79740  15.692   7.233   9.160 -0.1883  0.1727  0.0735
78877W        W79741  18.633   7.865  27.424  0.1225  0.2493  0.3463
78878W        W79742   5.953  28.531  19.839 -0.1844  0.0085  0.2765
78879W        W79743   4.179  27.613  17.081  0.2880 -0.0943  0.0785
78880W        W79744  28.140  22.437  10.367 -0.1371 -0.1321 -0.1966
78881W        W79745  14.288  25.171  16.736  0.0058 -0.1030 -0.3221
78882W        W79746  10.861  20.460  20.813 -0.0299 -0.1311 -0.2569
78883W        W79747   2.657  21.235  15.594 -0.0970  0.1121 -0.1316
78884W        W79748  11.743  23.069  13.072  0.0794 -0.1733 -0.3153
78885W        W79749  25.474  12.448  12.028  0.0619 -0.3018 -0.3211
78886W        W79750  24.656  21.907  27.841 -0.0994  0.1730  0.1229
78887W        W79751  11.220   8.295  10.639 -0.0654 -0.0466  0.0283
78888W        W79752  25.757  16.550  28.962 -0.0303  0.0241  0.1140
78889W        W79753  28.894  27.398   5.098  0.0023 -0.0483 -0.0549
78890W        W79754  13.926  14.269   9.541  0.0937 -0.0856 -0.1443
78891W        W79755  13.765  27.181  27.306 -0.5302 -0.0275 -0.0420
78892W        W79756   4.879  15.286  28.051 -0.0513  0.0918 -0.1444
78893W        W79757  23.058   5.575   3.033  0.2600 -0.1024 -0.0658
78894W        W79758  11.554  10.172  11.194  0.3373 -0.0330  0.0486
78895W        W79759   8.094  24.103   6.360  0.3352  0.2143  0.0450
78896W        W79760  22.880   8.762  23.638  0.1871 -0.2097  0.0718
78897W        W79761  28.388   1.328   8.860 -0.3587 -0.1397  0.1995
78898W        W79762  12.622  21.081  27.499  0.2954  0.1725 -0.2595
78899W        W79763   0.900  27.465  28.450 -0.0600 -0.3082 -0.0470
78900W        W79764  25.236  20.073  19.793 -0.0679 -0.1503 -0.1262
78901W        W79765   7.106  19.904  22.766  0.0790 -0.1412 -0.2305
78902W        W79766  25.744   3.437  27.814 -0.1438  0.0207 -0.0914
78903W        W79767   0.041  23.790  19.544  0.2796  0.2147 -0.1476
78904W        W79768  16.710  26.952  24.154  0.3515 -0.3260  0.1294
78905W        W79769  17.949   2.596   4.831  0.0582 -0.5024  0.1043
78906W        W79770  24.474  25.215  18.964  0.1205  0.1283  0.0532
78907W        W79771  25.154  28.851   1.608  0.0372  0.0332  0.3369
78908W        W79772   0.880   2.657  11.390  0.0133  0.1257  0.1899
78909W        W79773  28.977  15.127  27.075  0.2286  0.2637 -0.0240
78910W        W79774   6.484  18.977   2.596  0.0285  0.1619  0.2428
78911W        W79775  15.807  24.722   1.720  0.0747  0.2261 -0.0997
78912W        W79776  15.007  28.678   5.497  0.3145 -0.0855  0.0190
78913W        W79777  21.344   0.715   7.574 -0.1747 -0.2967 -0.0296
78914W        W79778  23.771  24.197  18.756 -0.1509 -0.0661 -0.0006
78915W        W79779   0.191  22.198   8.591  0.1103 -0.1354 -0.1344
78916W        W79780   7.597   3.647   2.141 -0.1819 -0.1521 -0.1871
78917W        W79781  28.874  28.790   2.889  0.0585  0.1296  0.2174
78918W        W79782   2.493  15.187  12.732 -0.1638  0.2418 -0.2319
78919W        W79783   6.145  24.770   9.153 -0.2322  0.0224  0.0472
78920W        W79784   1.671  23.200  17.844 -0.2852  0.0032  0.1985
78921W        W79785   3.433   1.628  15.389  0.0987 -0.1664 -0.1322
78922W        W79786  18.875  15.868   5.958 -0.1811 -0.0503 -0.2904
78923W        W79787  17.361  16.374  23.784  0.0354 -0.1172 -0.2216
78924W        W79788  13.384   7.109   9.653 -0.1042 -0.0486 -0.2700
78925W        W79789  20.128   3.449   0.660  0.5007 -0.2093  0.4634
78926W        W79790  24.419   2.306   5.206 -0.2098 -0.0987  0.2634
78927W        W79791  24.897  17.217  11.915 -0.0401  0.0449 -0.0044
78928W        W79792  14.863   1.581  28.965 -0.1982 -0.0096 -0.1329
78929W        W79793  10.391  12.056   6.687 -0.2182 -0.2386 -0.3651
78930W        W79794  26.950   0.766  23.059  0.1617  0.1180 -0.2242
78931W        W79795  24.739  13.717  25.702 -0.2709  0.0418  0.0009
78932W        W79796   0.728  25.267   6.416 -0.2720  0.3207  0.2034
78933W        W79797  10.956  15.797   7.352  0.0158  0.0624 -0.2665
78934W        W79798  27.366  13.834  16.351  0.0169 -0.2903  0.0168
78935W        W79799  23.268  28.317  18.573 -0.0709 -0.4472  0.0249
78936W        W79800  14.971   0.787   3.795 -0.1653 -0.0165 -0.3003
78937W        W79801   3.450  21.948   5.118  0.1727  0.3838 -0.0504
78938W        W79802  26.789  23.347  21.009  0.3464  0.0216 -0.2201
78939W        W79803   3.554  15.732   0.496 -0.0566  0.3028 -0.1064
78940W        W79804  19.180  25.051  18.318 -0.0504 -0.0317 -0.0735
78941W        W79805  18.382  27.323  13.717 -0.0261 -0.2463 -0.1516
78942W        W79806  24.392   4.940  25.361 -0.1409  0.3085  0.1278
78943W        W79807  19.452  27.981  16.191  0.1731  0.2784  0.0249
78944W        W79808  22.017  19.801   1.710 -0.1967  0.3980  0.1804
78945W        W79809  10.397  28.208   1.561 -0.0982 -0.4128  0.0054
78946W        W79810  24.561   6.866  26.262 -0.1780  0.2353  0.2013
78947W        W79811  22.953  11.926  10.047  0.3332 -0.0333  0.0721
78948W        W79812  17.683  20.345  14.521  0.1701  0.0659 -0.5049
78949W        W79813  21.093   6.202   0.806 -0.2236  0.0022  0.0329
78950W        W79814  11.689  14.733  20.580  0.1652 -0.1070  0.2564
78951W        W79815  26.002  25.431   0.885 -0.2448  0.2298  0.1487
78952W        W79816  19.948   2.192   5.012  0.0610 -0.1004 -0.2062
78953W        W79817  29.094   3.382   0.221  0.1153  0.1099  0.0803
78954W        W79818   2.758  20.953   3.869  0.1613  0.2991  0.1035
78955W        W79819  14.064  24.799  13.144  0.2771  0.1570  0.0198
78956W        W79820  10.432   7.532  18.697  0.1112 -0.2129 -0.4109
78957W        W79821   7.756   8.656  21.277 -0.0414  0.2750 -0.0281
78958W        W79822  17.043   9.646  20.326  0.0573 -0.3064  0.1118
78959W        W79823  15.655  17.370   3.461  0.0757  0.1371 -0.0723
78960W        W79824  13.320  12.788   0.891  0.2587  0.0520  0.0687
78961W        W79825  16.773   6.920   4.837 -0.4216 -0.0003  0.2876
78962W        W79826  21.375  13.408   1.185  0.0497  0.1549  0.1328
78963W        W79827  15.185  19.229  25.820 -0.0317 -0.1493 -0.2236
78964W        W79828  18.308   6.056  27.830 -0.3636 -0.2811 -0.0917
78965W        W79829   4.267   1.645  25.868  0.0548 -0.3018  0.1147
78966W        W79830  13.626  26.913  17.799  0.0879  0.0664 -0.1403
78967W        W79831  27.961  20.490  19.635  0.1378 -0.0613  0.2787
78968W        W79832  28.232   8.938   8.154  0.1471 -0.1436 -0.0382
78969W        W79833  12.802   5.878  19.186  0.0507  0.4084  0.1864
78970W        W79834  15.679  27.575  24.041 -0.1001 -0.1275 -0.2551
78971W        W79835  19.982  25.413   6.579 -0.3025 -0.2329  0.0122
78972W        W79836  14.949  18.031   2.283  0.1664  0.3724  0.0090
78973W        W79837  19.511   7.247   5.917 -0.0579  0.1399  0.1263
78974W        W79838   5.836   7.282  20.663  0.2545  0.2234 -0.2452
78975W        W79839   9.595   0.881  12.365  0.0402 -0.1536  0.2844
78976W        W79840   9.079  15.231  19.537  0.3374  0.2446  0.1003
78977W        W79841  10.772  18.122  18.422 -0.5247  0.1711  0.1573
78978W        W79842  25.109  25.992   0.107 -0.3694  0.0425  0.1294
78979W        W79843   2.064   9.746   6.034  0.1892  0.2345 -0.1995
78980W        W79844  19.652   5.598   4.215 -0.4547  0.1994 -0.4089
78981W        W79845  22.305  20.691  27.918 -0.0428  0.1306  0.0550
78982W        W79846  13.678  27.456  22.584 -0.0000 -0.0674 -0.3395
78983W        W79847  13.779  28.775   6.355 -0.0346  0.0621 -0.0995
78984W        W79848   1.632  25.453  11.247 -0.0321  0.2590  0.0080
78985W        W79849   2.167  21.599  27.069  0.1250 -0.1381  0.2296
78986W        W79850  22.711  18.551  20.832  0.2349 -0.1549 -0.0341
78987W        W79851  15.660   0.849   5.797  0.0697 -0.0930 -0.0185
78988W        W79852   0.399  25.133  12.132 -0.4801 -0.2262  0.3477
78989W        W79853  23.879  28.594   5.779 -0.3064 -0.0322 -0.0205
78990W        W79854  27.646  26.778  12.392 -0.1602  0.1371 -0.0070
78991W        W79855  22.514  23.093  24.381 -0.1727  0.1300 -0.1534
78992W        W79856  27.349   4.771  29.065 -0.1401 -0.1907 -0.1298
78993W        W79857  20.129   6.310  24.277  0.0690  0.1571 -0.1308
78994W        W79858   9.490  25.406  13.302 -0.2088  0.1076 -0.1924
78995W        W79859  26.552   3.082   4.129 -0.0789  0.1033  0.0987
78996W        W79860  19.166  13.329  28.167 -0.0993  0.0529 -0.1723
78997W        W79861   3.397   4.536  23.080 -0.1964  0.3136  0.0914
78998W        W79862  22.969   1.909   8.121  0.1521  0.1579  0.0432
78999W        W79863  14.872   4.662  11.856 -0.0425  0.1946  0.1487
79000W        W79864  22.145   9.078  25.062 -0.0256  0.1468 -0.0086
79001W        W79865  16.126   0.709  15.309  0.1082 -0.3740 -0.0303
79002W        W79866   7.315  10.549  23.670 -0.1273  0.0334  0.0625
79003W        W79867   8.026   5.094   8.497  0.0472  0.0533 -0.1143
79004W        W79868  25.144  13.054  16.060 -0.1111  0.1183 -0.0332
79005W        W79869  13.714  27.700   2.369  0.0908 -0.2072 -0.1299
79006W        W79870  15.999  28.300  25.389  0.0555  0.2728 -0.0841
79007W        W79871  24.922  22.168  25.607 -0.0671  0.1257  0.2509
79008W        W79872   6.192   3.095   0.914  0.2255  0.3168  0.0218
79009W        W79873   2.714   1.419   7.693  0.2069  0.2178  0.0629
79010W        W79874   7.536   2.739  15.180 -0.1359 -0.1400  0.1623
79011W        W79875   7.712   0.186   2.440  0.0120  0.1655  0.0905
79012W        W79876  13.753  19.664  26.768 -0.1184 -0.2653 -0.1547
79013W        W79877   0.456  11.379  11.591  0.2059 -0.1260  0.1680
79014W        W79878   1.622  26.003  20.857  0.3265  0.2095 -0.0653
79015W        W79879  25.342  15.645  14.604  0.1426 -0.0544 -0.0636
79016W        W79880  24.988  23.413  19.012 -0.2563  0.3870 -0.2775
79017W        W79881  25.361  14.659  17.391  0.2750  0.2649  0.0503
79018W        W79882  17.465   8.609   2.239  0.0565  0.0272  0.1642
79019W        W79883  27.315   3.737   9.306 -0.0114  0.2514  0.3052
79020W        W79884   1.205  23.553  23.131 -0.3005 -0.0779  0.1707
79021W        W79885  10.676   6.132  14.833  0.2102  0.2295  0.1040
79022W        W79886  22.322   2.664   1.551 -0.4648  0.0608 -0.0896
79023W        W79887   4.485  27.620   2.453 -0.0160 -0.0257  0.1558
79024W        W79888   1.488   1.291   9.836  0.1409 -0.0078 -0.0425
79025W        W79889   0.479  21.141   0.905  0.3591  0.2226  0.0294
79026W        W79890  20.778  24.215   1.228  0.1913 -0.1491  0.1179
79027W        W79891   0.779  16.107  20.147  0.2951  0.1643 -0.0751
79028W        W79892   0.279  16.353  20.067 -0.0981 -0.1196  0.1332
79029W        W79893  28.834  24.780  20.163  0.2151  0.0725 -0.0892
79030W        W79894  27.335  16.275  27.485  0.1501 -0.4444 -0.3373
79031W        W79895  13.695  20.342   6.967  0.1076 -0.2037  0.0413
79032W        W79896  27.013  21.471   8.365 -0.0584  0.0350  0.0285
79033W        W79897   3.949  27.902   5.454 -0.3370  0.0627 -0.1241
79034W        W79898  22.523  14.936  21.338 -0.1487  0.0556  0.2254
79035W        W79899   2.023   7.875  27.220  0.2439 -0.4124  0.1053
79036W        W79900  24.743   9.460  16.053 -0.0583  0.0551  0.0753
79037W        W79901  28.557   0.454  17.871  0.0703 -0.0973  0.4348
79038W        W79902  18.468  26.663  12.040 -0.0383 -0.1902 -0.3314
79039W        W79903  18.533   3.159  12.119 -0.2437 -0.0968 -0.0341
79040W        W79904  23.719  10.563   6.901 -0.0823 -0.4105  0.0543
79041W        W79905  22.108  26.852  24.670 -0.2114  0.1576 -0.2441
79042W        W79906  19.508   7.833   3.247 -0.0240  0.0396 -0.1811
79043W        W79907  15.235  18.651  28.098  0.1749 -0.2458  0.0197
79044W        W79908   5.632  28.187  26.762  0.1164  0.0420 -0.1789
79045W        W79909   6.014  23.644   8.268  0.1294  0.0310  0.0319
79046W        W79910  16.449  15.937  17.189  0.1460 -0.1009 -0.1997
79047W        W79911   6.863  19.256   3.995  0.0658 -0.0715  0.0231
79048W        W79912  20.903  26.474  24.912  0.1504  0.0048  0.2342
79049W        W79913   7.899  27.133  27.142 -0.2167  0.1604 -0.1879
79050W        W79914   8.835   9.237   7.023  0.2627 -0.0761 -0.3433
79051W        W79915  19.019   5.352  23.591  0.0036 -0.1437 -0.0110
79052W        W79916  12.525  19.288   0.252  0.2051  0.2272 -0.1061
79053W        W79917  27.002   5.147  19.854 -0.0942 -0.0303 -0.3472
79054W        W79918  12.987   1.362  23.616 -0.2782 -0.1116  0.1052
79055W        W79919   8.509  21.048  26.281  0.1655 -0.0523  0.0314
79056W        W79920  28.713   5.822   7.622 -0.2158 -0.0844  0.3182
79057W        W79921  24.554  22.085  16.931  0.1290  0.2217  0.0191
79058W        W79922   7.892  10.895  12.464  0.0299 -0.0555  0.0586
79059W        W79923  16.529   9.274  19.804 -0.3300  0.2812 -0.0644
79060W        W79924   5.029  17.584  10.065 -0.1484  0.2896  0.0574
79061W        W79925  19.880  27.562  10.218  0.0391 -0.1015  0.0482
79062W        W79926   5.606  23.053  27.807  0.2194 -0.1356  0.0781
79063W        W79927   1.783   6.416  16.820 -0.3738 -0.0107 -0.0310
79064W        W79928  13.279  20.853   4.449  0.0115  0.0313  0.3780
79065W        W79929  28.892  21.214   3.188  0.0589  0.2006  0.0940
79066W        W79930   1.487  16.177   4.517  0.1643 -0.2692  0.0372
79067W        W79931   3.307  17.150  27.685 -0.0448 -0.0251  0.2232
79068W        W79932  26.011   3.208   1.201  0.0068 -0.4926  0.0559
79069W        W79933   5.902  10.499  13.244 -0.2267 -0.1286 -0.0275
79070W        W79934  18.811  22.390  25.694 -0.0345 -0.1282  0.2041
79071W        W79935  15.075   0.494   5.999 -0.2111  0.2026  0.1284
79072W        W79936  18.780  14.864  28.839  0.0996  0.2705 -0.0204
79073W        W79937  25.791  12.252   6.237  0.0711 -0.1013  0.2320
79074W        W79938  27.246   4.005   3.385  0.0827  0.0359 -0.0081
79075W        W79939  22.266  12.828   7.673  0.1633  0.2402 -0.2590
79076W        W79940   4.136  22.757   5.527  0.1954 -0.0841 -0.0674
79077W        W79941  13.257  27.030   6.974 -0.0527  0.0744  0.1348
79078W        W79942  26.659  20.904  12.271 -0.2412  0.0619 -0.1722
79079W        W79943  23.537  28.310  22.714  0.1829 -0.0112 -0.2666
79080W        W79944   1.846  20.960  19.867  0.0237 -0.2221 -0.1625
79081W        W79945   2.112   1.313   9.882 -0.0352  0.0717  0.1735
79082W        W79946  21.018   1.715  21.372  0.0979 -0.0341 -0.3085
79083W        W79947   9.959  21.835   7.321 -0.1854  0.1767 -0.1377
79084W        W79948   1.068   6.216  23.645 -0.0514  0.1035  0.2645
79085W        W79949  20.759  11.883   0.008  0.2921 -0.0439  0.0712
79086W        W79950  25.751  25.673  26.027  0.0374 -0.2233  0.2715
79087W        W79951   2.885  27.975  29.001 -0.0092 -0.0758 -0.0376
79088W        W79952   0.381   3.855  15.107 -0.1693  0.0803  0.0548
79089W        W79953  20.745  22.574  23.507 -0.3485  0.2260 -0.0846
79090W        W79954   2.296   7.929  26.776  0.3722 -0.3582 -0.1469
79091W        W79955   4.127   3.075  12.600 -0.1258 -0.1648 -0.2715
79092W        W79956  27.022  28.673  13.141 -0.0075  0.3696  0.0844
79093W        W79957  21.976   9.947  16.914  0.2969  0.1720 -0.2482
79094W        W79958   9.197  16.541  23.046  0.0761  0.2451 -0.1610
79095W        W79959  10.838   3.007  22.588 -0.2640 -0.0359 -0.0544
79096W        W79960  19.738  18.048  14.522  0.0838  0.3129  0.1039
79097W        W79961   2.836  17.112  27.557  0.1208 -0.2069 -0.1192
79098W        W79962  10.679  28.848  18.695  0.1335 -0.0326  0.1911
79099W        W79963  16.335  11.947  18.049  0.1040  0.3313  0.0489
79100W        W79964  28.655  28.586   6.171 -0.1772 -0.0614  0.6110
79101W        W79965   9.354   6.218  28.854  0.0522  0.3406  0.2283
79102W        W79966  16.058  27.131  12.186  0.2195  0.0897  0.0447
79103W        W79967  13.686  28.724   4.228 -0.0362  0.1082  0.2015
79104W        W79968   1.183   8.617  23.667 -0.0422 -0.0537  0.1640
79105W        W79969   0.951  10.641   3.618 -0.1262  0.0986  0.2401
79106W        W79970   1.878   9.078  12.122  0.0476 -0.0047  0.0196
79107W        W79971  16.530  28.230   0.055 -0.3355 -0.1193 -0.1609
79108W        W79972  18.565  10.996   5.510  0.3283 -0.0428 -0.1024
79109W        W79973  15.258   4.871  12.834  0.2574  0.2018  0.0654
79110W        W79974  13.134  25.980  27.375 -0.1349 -0.1143  0.1850
79111W        W79975  15.639   6.581  23.620 -0.0381 -0.0083  0.0807
79112W        W79976  29.140  20.426   4.623  0.1436 -0.0196 -0.0554
79113W        W79977  15.746   9.580  28.214 -0.1739 -0.2959  0.1302
79114W        W79978  26.248  19.041  24.809 -0.0183  0.0442  0.1441
79115W        W79979   8.691  27.023  10.598 -0.2474  0.0343  0.0294
79116W        W79980  15.164   9.339  26.470  0.3372  0.0321 -0.2861
79117W        W79981  23.294  23.941  20.176 -0.0808  0.1892  0.2205
79118W        W79982  18.237  14.628  26.988  0.1339  0.1153 -0.3819
79119W        W79983  28.407  25.521  17.394 -0.1199  0.0986 -0.0249
79120W        W79984  25.319  19.894  28.565 -0.0799  0.0818  0.2663
79121W        W79985  26.461  27.756   2.106  0.1474  0.0112 -0.1979
79122W        W79986   7.844  27.521  18.696 -0.0258  0.0837 -0.3558
79123W        W79987  22.752   0.513   3.897  0.0708  0.2373 -0.3468
79124W        W79988  17.560  10.913  24.676  0.0323  0.0332  0.0534
79125W        W79989  13.656  15.081  28.504 -0.0935  0.0127 -0.0316
79126W        W79990  10.198  11.465  17.387  0.1958 -0.1399  0.1087
79127W        W79991  15.431  23.864  17.485 -0.1745  0.1280  0.3009
79128W        W79992   0.509  19.986  24.491  0.1627  0.0586 -0.0535
79129W        W79993  28.971  25.387  25.373  0.2641  0.2506 -0.1486
79130W        W79994   4.354  19.274  26.387 -0.2848  0.1664 -0.0631
79131W        W79995   3.021  26.735  17.204  0.1139 -0.0360  0.4539
79132W        W79996   8.872  12.913  23.005  0.1001 -0.1754 -0.2238
79133W        W79997  16.298  25.214  28.184  0.0177  0.0196  0.0133
79134W        W79998   0.853  23.676  20.962  0.2355 -0.2095  0.0010
79135W        W79999   6.872  22.345  10.578 -0.0612 -0.1232 -0.2143
79136W        W80000  22.450  16.751  10.456  0.2438 -0.0544  0.0588
79137W        W80001  15.231   2.387  19.739 -0.1819  0.0383 -0.0219
79138W        W80002  15.057  19.222   9.680  0.3884 -0.2918  0.0037
79139W        W80003  26.806  22.941  23.793  0.3266 -0.2687 -0.0326
79140W        W80004  18.747   9.181  24.437 -0.1955  0.0506 -0.3056
79141W        W80005  16.582  11.585  25.164  0.1215  0.1418 -0.4637
79142W        W80006  15.578  27.319  10.092  0.0568 -0.0122  0.0084
79143W        W80007  26.515   5.277  29.096  0.0938 -0.0430  0.2320
79144W        W80008   5.577   1.747   0.518  0.0713  0.0156 -0.2015
79145W        W80009  24.695  25.287  14.888  0.1624 -0.2017 -0.3040
79146W        W80010   1.742  13.979   5.844 -0.1177 -0.2824  0.4587
79147W        W80011   3.956  13.333  12.535 -0.2854  0.3025  0.0033
79148W        W80012  15.065   7.290   3.025  0.1158  0.1338  0.1966
79149W        W80013  20.087   5.132  18.417  0.0967 -0.3548 -0.2854
79150W        W80014  28.833   9.216   5.185 -0.2560 -0.1042 -0.0891
79151W        W80015   0.889   9.599  14.837  0.1617  0.1602  0.2839
79152W        W80016  27.932  10.505  18.651 -0.2994 -0.1566 -0.0142
79153W        W80017  15.203   0.459  26.275 -0.2077  0.1800 -0.1287
79154W        W80018  25.832  27.748   0.868  0.1000  0.2249 -0.1397
79155W        W80019  20.516   4.257  28.431  0.2306 -0.2088  0.2773
79156W        W80020   5.018   4.389  26.525 -0.1396 -0.0007 -0.0289
79157W        W80021  27.886   9.301  23.471  0.0577  0.2025  0.0895
79158W        W80022  19.718  16.835  17.790  0.3179  0.2683 -0.0504
79159W        W80023  26.976  13.332  17.377 -0.1871 -0.1991 -0.2133
79160W        W80024  22.016  24.043   8.925  0.3606 -0.1373 -0.4654
79161W        W80025   5.377  12.840  11.390  0.0090 -0.2265  0.3545
79162W        W80026  15.887  28.575   2.349  0.0688 -0.0763 -0.2160
79163W        W80027  24.243  23.126  12.751  0.0004  0.0863  0.0100
79164W        W80028  26.621  26.458  28.450 -0.0243 -0.3546  0.1352
79165W        W80029  20.353  23.191  24.332  0.0403  0.2456  0.1176
79166W        W80030  20.371  16.290  26.608  0.1584  0.0618  0.0700
79167W        W80031  24.955  12.252   1.503  0.0714  0.0658 -0.1753
79168W        W80032  28.835  27.019  28.915 -0.1270 -0.0794 -0.2405
79169W        W80033   6.804  28.729  15.437  0.1976  0.0657 -0.0894
79170W        W80034  24.354  26.211  15.282 -0.1480 -0.1808 -0.0866
79171W        W80035  27.151  18.933  26.819 -0.0855  0.0806  0.3811
79172W        W80036  21.118   5.318  19.677  0.2121  0.2406  0.1148
79173W        W80037  22.242  25.169  27.685  0.0944  0.0786 -0.0307
79174W        W80038  26.230   8.435   1.587 -0.0558  0.1270  0.2538
79175W        W80039   3.709  18.660  21.305  0.3015  0.1965 -0.2872
79176W        W80040  12.926  21.993  16.312  0.0630  0.2527  0.3182
79177W        W80041   8.036   8.371   2.817 -0.0696  0.1988  0.1134
79178W        W80042  18.501  26.467  17.677  0.0193  0.0684 -0.1820
79179W        W80043  14.398  27.699   9.562 -0.0193  0.2934 -0.2068
79180W        W80044  12.858   8.228  20.305 -0.1294  0.1152 -0.2166
79181W        W80045  20.362   2.658  22.293  0.1750 -0.0648 -0.0030
79182W        W80046   6.388   9.194  16.663 -0.3212 -0.0541  0.1200
79183W        W80047  23.016  25.309  12.090  0.0298  0.0300  0.0714
79184W        W80048   1.691  17.805  11.537 -0.0723 -0.4194  0.0442
79185W        W80049  22.904   4.974  11.679  0.0888  0.1088 -0.1932
79186W        W80050  28.577  26.798  19.619  0.0331 -0.1566 -0.1794
79187W        W80051  25.904   5.969   1.435 -0.3618 -0.0875 -0.0159
79188W        W80052  26.818   3.097  21.044  0.0079  0.2943  0.0892
79189W        W80053  24.580  28.268   0.235  0.1924 -0.1319 -0.1290
79190W        W80054   4.916  13.543  18.904 -0.2967  0.3967 -0.2836
79191W        W80055   8.323   6.671  24.753  0.2851 -0.2065 -0.4293
79192W        W80056  25.748  26.686   5.671 -0.2300 -0.3499  0.1706
79193W        W80057   0.822  26.729  21.670 -0.0535 -0.0659 -0.2557
79194W        W80058  15.138  18.568  18.919 -0.0878 -0.0863  0.0374
79195W        W80059  11.710   8.394  22.508  0.0302  0.1408 -0.1688
79196W        W80060  11.068  18.747  22.039 -0.1040  0.1092  0.1826
79197W        W80061  19.281  15.878   6.779 -0.2416  0.0495  0.0262
79198W        W80062  13.376  17.880   2.347  0.1987 -0.0739 -0.3022
79199W        W80063   7.743  23.020   3.240  0.0481  0.1736  0.3059
79200W        W80064  22.780  24.961  20.238  0.3872 -0.0413 -0.3101
79201W        W80065  18.612  12.446  26.024 -0.0393 -0.0032  0.3404
79202W        W80066  21.085  21.912  28.755 -0.3700  0.1297  0.0455
79203W        W80067  23.858   8.749  11.514  0.1299  0.1188 -0.1420
79204W        W80068  27.829   2.869  28.995  0.1928 -0.0801  0.1801
79205W        W80069  15.133   6.878  21.957 -0.1178  0.0663  0.2440
79206W        W80070  12.784  14.831   5.724  0.0953  0.0408  0.0628
79207W        W80071  28.909  27.455  28.234  0.1636 -0.0309 -0.0356
79208W        W80072   6.574  18.362  13.101  0.3676 -0.0864  0.2374
79209W        W80073  17.547   0.289   9.839 -0.0856 -0.0130 -0.0926
79210W        W80074   4.243  22.519  22.742 -0.0507 -0.0197 -0.2511
79211W        W80075  22.819  17.062   4.348 -0.0451 -0.3205 -0.0536
79212W        W80076   2.650  13.897  25.687  0.0723 -0.3180  0.2587
79213W        W80077  23.763  23.651   5.640 -0.1478  0.1357  0.0628
79214W        W80078  13.031   4.457  27.672 -0.1698 -0.0760  0.2542
79215W        W80079  11.177   3.780  10.218 -0.0829  0.0831 -0.0107
79216W        W80080   2.254  22.574  12.151 -0.0327  0.0984 -0.3959
79217W        W80081   0.638   8.728   0.374 -0.2360  0.2801 -0.3189
79218W        W80082  21.525  16.143  26.785 -0.0825  0.2502  0.1623
79219W        W80083   9.764  19.343  28.626 -0.2071  0.1788  0.0233
79220W        W80084   1.740   1.003  22.169 -0.0340  0.1582 -0.2139
79221W        W80085  25.241  16.536  12.968 -0.3595 -0.3073  0.4009
79222W        W80086  24.621  10.110  13.590  0.0636  0.1162  0.2609
79223W        W80087  10.276  10.698  23.537  0.0990 -0.0578  0.0646
79224W        W80088  14.862  21.826   0.534 -0.2508 -0.1488  0.1363
79225W        W80089  25.483  10.980  26.159  0.2181  0.1219 -0.0981
79226W        W80090  20.936   3.623  11.070  0.1909  0.0769  0.2302
79227W        W80091  27.139  25.366  10.137 -0.0060  0.3280 -0.1354
79228W        W80092  18.179  21.016  26.379  0.1325  0.1883 -0.0980
79229W        W80093  16.817  12.884   9.131  0.1691  0.1098  0.3422
79230W        W80094  17.810  24.364  13.279  0.1614  0.1967  0.2146
79231W        W80095  16.755   4.938   1.214  0.1333  0.1487 -0.0243
79232W        W80096   8.620  13.043  12.383 -0.0962  0.2486  0.1726
79233W        W80097  27.208  12.952   2.735  0.1121  0.2560  0.1264
79234W        W80098   9.144  15.742  27.631 -0.0451 -0.0955  0.0247
79235W        W80099  25.648   8.241   3.415 -0.0807  0.0695  0.1557
79236W        W80100  13.209   8.945  26.584  0.2414  0.0199  0.1991
79237W        W80101  14.206   8.235  23.048 -0.0458  0.0891  0.0681
79238W        W80102  14.131  27.347  19.522 -0.1548 -0.2148  0.0378
79239W        W80103   5.944  19.830   2.233 -0.0751 -0.0200 -0.3354
79240W        W80104  12.098   3.695  11.932 -0.4474  0.0864  0.2202
79241W        W80105  21.460  25.211  28.174  0.0299  0.3076  0.1020
79242W        W80106   1.815  28.374  16.690  0.0441  0.1460 -0.0906
79243W        W80107  17.862   0.816  23.754  0.1431  0.0826 -0.0815
79244W        W80108  24.278   4.414   7.981 -0.0359  0.2653  0.0177
79245W        W80109   6.840   4.890  21.589  0.1385 -0.1712 -0.0712
79246W        W80110  11.253   6.614  28.164 -0.0690  0.0707  0.1191
79247W        W80111  25.745  11.699  27.419 -0.1438 -0.0330  0.1937
79248W        W80112  12.195   3.648   6.178 -0.0916  0.2664  0.1195
79249W        W80113   3.562   3.268   5.896  0.0937  0.1821  0.0806
79250W        W80114  28.474  26.313  10.879  0.0542 -0.5722  0.0186
79251W        W80115  11.805   5.560  27.588  0.1632 -0.1596 -0.0268
79252W        W80116  18.245   4.089  12.753  0.1704  0.0736  0.1792
79253W        W80117   0.405  15.820  22.783  0.0871 -0.1204 -0.0414
79254W        W80118  17.665  27.800  15.953 -0.3568 -0.1262 -0.0929
79255W        W80119  28.766   2.866   0.231  0.1208 -0.1321 -0.1775
79256W        W80120  12.857  21.897   1.207  0.0478 -0.0679  0.0436
79257W        W80121  16.367   4.021  10.413 -0.2010 -0.0285  0.1255
79258W        W80122  16.522  17.231   7.163 -0.3148  0.3322  0.1515
79259W        W80123  25.963  24.868   1.838  0.2641  0.1944  0.1473
79260W        W80124   7.770   2.166   3.562  0.0343  0.1548 -0.2426
79261W        W80125  24.955  27.220   3.607  0.4499  0.1356  0.2055
79262W        W80126   0.385  21.010  14.583  0.1628  0.0352 -0.0168
79263W        W80127  23.489  27.733   5.097  0.0377  0.1514  0.0561
79264W        W80128  13.315  24.506   1.559  0.0639  0.0477 -0.2516
79265W        W80129   2.006  23.838   4.081  0.3848 -0.2861  0.2275
79266W        W80130  12.765   6.954   8.426 -0.3036  0.1308  0.1657
79267W        W80131  10.687   7.677   6.109  0.0209 -0.1440 -0.4191
79268W        W80132  18.547  21.924   2.695 -0.1555  0.0171 -0.0953
79269W        W80133   0.955  25.738  14.020  0.2262 -0.1133  0.0182
79270W        W80134   5.660  10.765  10.559 -0.1911 -0.2716  0.0232
79271W        W80135  28.547  18.759  11.588 -0.1177 -0.1053 -0.2309
79272W        W80136  12.112  24.280  28.454 -0.1116  0.2667 -0.2857
79273W        W80137  24.609  26.630   1.370 -0.2133  0.1133  0.0391
79274W        W80138  26.144  25.834   6.142 -0.0819 -0.4308  0.0403
79275W        W80139  27.255  28.690  20.280  0.1443 -0.1890 -0.0489
79276W        W80140   2.548   6.279  19.135  0.0874 -0.2819 -0.1091
79277W        W80141  18.813  22.175   3.015  0.3977 -0.2780 -0.0423
79278W        W80142   1.670   7.418   1.373  0.2647  0.1922 -0.1522
79279W        W80143   6.082  23.768  21.609 -0.0828  0.2001 -0.2458
79280W        W80144  23.277   8.764   3.227  0.0354  0.1162 -0.2396
79281W        W80145   3.926   6.891  20.660 -0.0342  0.1920 -0.2306
79282W        W80146  22.776   1.152   3.724 -0.1153  0.1492  0.1109
79283W        W80147  18.805  26.803  15.091  0.0829 -0.0725 -0.1351
79284W        W80148  13.559  13.934   9.758  0.0113  0.2540 -0.0934
79285W        W80149   2.102   2.678  17.186  0.1559 -0.1164 -0.2854
79286W        W80150  15.739   5.936  24.391  0.0462  0.3254  0.0688
79287W        W80151  27.879   7.559  22.749  0.3668 -0.1459 -0.2153
79288W        W80152  24.657  20.998  28.378  0.0351 -0.0238  0.0296
79289W        W80153   6.473  12.264   2.041  0.0366 -0.1279  0.5549
79290W        W80154  15.550   3.103  11.494 -0.0396 -0.0131  0.2735
79291W        W80155  21.710   3.113  26.547 -0.2309 -0.0457 -0.0199
79292W        W80156  27.445  10.003   0.141 -0.4165  0.0280 -0.3257
79293W        W80157  28.747   8.993  20.988  0.0551 -0.3195  0.0275
79294W        W80158  27.338  11.153  24.001  0.2092  0.1235 -0.2304
79295W        W80159  21.413  19.452  27.488  0.5106  0.0357  0.0374
79296W        W80160  14.056  27.648   3.448  0.0624  0.0823  0.2011
79297W        W80161   4.346  11.657  14.829 -0.0857 -0.0197 -0.2403
79298W        W80162  26.508  22.412  24.694 -0.4826 -0.0965 -0.0152
79299W        W80163   6.160  28.662  21.210  0.0295 -0.0498 -0.3465
79300W        W80164  22.733   8.737  13.872  0.4144  0.0410  0.1047
79301W        W80165  21.427  18.038   1.848 -0.0376  0.1265  0.0059
79302W        W80166  23.155  19.397  15.103 -0.2032  0.0574  0.0664
79303W        W80167  18.516  15.248  25.407 -0.2777 -0.2526 -0.0956
79304W        W80168  29.087   7.038   8.094  0.1193 -0.0431  0.0016
79305W        W80169  24.342   5.313  24.140 -0.0469 -0.0617 -0.0054
79306W        W80170  28.922  20.964  20.676 -0.1149 -0.0187 -0.1277
79307W        W80171   9.131   2.016   4.367 -0.1754  0.1275  0.0705
79308W        W80172  23.861   6.732   1.365 -0.3704  0.0603 -0.1045
79309W        W80173   3.646   4.823  22.771 -0.1400  0.0217  0.3646
79310W        W80174  16.964   4.351  13.284 -0.2503  0.1037 -0.0663
79311W        W80175   0.446  21.321   4.673  0.1535 -0.0736 -0.0425
79312W        W80176   0.127  10.833  28.315  0.1527 -0.2364  0.0765
79313W        W80177  14.609  27.713  18.209  0.0118  0.2125 -0.1267
79314W        W80178   9.690   1.713   0.172 -0.4427  0.0382 -0.1851
79315W        W80179  28.234  13.731  28.293  0.0694  0.0456  0.0293
79316W        W80180  27.227  18.881   8.511  0.2477  0.1371 -0.2431
79317W        W80181  12.078   6.211  11.389  0.0307 -0.1444 -0.0332
79318W        W80182  19.549   6.610  25.561 -0.3524 -0.1098 -0.1739
79319W        W80183   4.958  23.793   3.419  0.0506 -0.3412 -0.0698
79320W        W80184  23.266   1.328  17.197 -0.1128 -0.0099  0.4107
79321W        W80185   8.875   8.847   8.034 -0.2666 -0.1012 -0.2784
79322W        W80186   5.040  20.120  17.060  0.2843  0.1494 -0.2284
79323W        W80187  27.452  21.543  28.733 -0.2249 -0.3196 -0.2197
79324W        W80188   9.615   7.835  19.986  0.0174 -0.2265  0.3013
79325W        W80189  19.687  22.137  20.750  0.0337  0.2024  0.0550
79326W        W80190   7.631   9.624  18.562  0.0427  0.0748  0.0535
79327W        W80191  24.588  25.778   0.389 -0.1715 -0.3841 -0.1795
79328W        W80192   4.621   1.491   9.901 -0.1583 -0.0751  0.0431
79329W        W80193   0.249  26.019   6.781 -0.0005 -0.0501 -0.1606
79330W        W80194   1.552  14.925  13.893  0.1645  0.1653  0.1902
79331W        W80195   1.875   1.204  26.731 -0.0523 -0.0102  0.2448
79332W        W80196  25.652  28.869  22.096 -0.0529 -0.3806 -0.0343
79333W        W80197   9.512   6.700   6.573 -0.0901  0.1464  0.1710
79334W        W80198   4.670  16.907  12.970  0.1785  0.0360  0.2787
79335W        W80199   1.659  12.916   5.604 -0.0609 -0.1189 -0.1272
79336W        W80200   0.791  23.956   4.197  0.0848 -0.0602 -0.2710
79337W        W80201   4.828  19.823  18.999  0.1310  0.1105 -0.2631
79338W        W80202   2.032  25.897   6.785 -0.1523  0.1399  0.3318
79339W        W80203  20.399   1.681  26.961 -0.0592  0.3468 -0.0263
79340W        W80204  15.826   8.147   7.457 -0.1390  0.1540  0.1309
79341W        W80205  22.565  16.066   0.726  0.1573 -0.2061  0.0037
79342W        W80206  18.355  20.578   8.026  0.1568 -0.0220  0.0023
79343W        W80207  28.341   1.353   6.180 -0.1466  0.1961  0.0550
79344W        W80208  18.627  25.377   2.276 -0.1111  0.0103  0.4125
79345W        W80209   4.381  28.666   6.786 -0.1045 -0.0033 -0.3551
79346W        W80210   4.045   6.471  21.344  0.0557  0.1838 -0.3422
79347W        W80211  25.885   7.530  13.913 -0.0802 -0.0035 -0.0992
79348W        W80212   8.764  23.774  10.166  0.1405 -0.1589  0.0234
79349W        W80213  22.773   0.117   6.821 -0.1176  0.1031  0.0256
79350W        W80214  18.453  19.759   9.929  0.3277  0.5703  0.3841
79351W        W80215  14.611  28.578  21.036  0.1914  0.0875 -0.2243
79352W        W80216   5.181  15.490   8.734  0.0831 -0.1954  0.3020
79353W        W80217  24.496   8.523   0.290  0.0806  0.0595  0.2797
79354W        W80218  26.164  11.558  24.932  0.0163 -0.2060  0.5256
79355W        W80219  20.367  12.609   0.431  0.0938 -0.0743 -0.0116
79356W        W80220  17.565  27.160   1.431 -0.2074  0.0350 -0.0535
79357W        W80221  26.632  20.764  25.431 -0.0035 -0.1087 -0.2982
79358W        W80222  14.334  28.078   5.427 -0.0483  0.1901 -0.3710
79359W        W80223  10.858   3.704  20.414 -0.2869 -0.2892 -0.0421
79360W        W80224   7.001  19.439   8.429 -0.1990 -0.1611  0.0191
79361W        W80225  20.568  22.270  11.299  0.2780 -0.1622 -0.4103
79362W        W80226   7.686  20.095  10.311  0.1844 -0.0108 -0.1145
79363W        W80227   0.037  21.605  17.217  0.1152  0.0165 -0.2112
79364W        W80228  14.469  19.341   0.368  0.0053  0.0540 -0.0472
79365W        W80229  22.468  14.714   1.335 -0.2431  0.0483  0.1622
79366W        W80230  26.843  21.774  24.303 -0.1897  0.2098  0.3635
79367W        W80231  24.046  28.570  13.270 -0.0734 -0.1598  0.1186
79368W        W80232  13.096  15.042  20.231 -0.2316 -0.0292 -0.0910
79369W        W80233  25.739  27.681  28.950  0.0122 -0.3020  0.1497
79370W        W80234  20.328  27.920  18.607 -0.1179  0.0458 -0.1641
79371W        W80235   3.736  26.146   4.203 -0.1645 -0.1287  0.1166
79372W        W80236  23.262  28.335   7.564  0.2388  0.0163  0.1682
79373W        W80237   4.860  18.516   4.910  0.0247  0.0366  0.0554
79374W        W80238   2.245   9.776  20.055 -0.1242  0.0936  0.1200
79375W        W80239  21.130   5.488   3.718 -0.4302  0.0702 -0.0953
79376W        W80240  28.030   0.522  27.761 -0.0735 -0.1543  0.3294
79377W        W80241   8.254   4.648  11.221  0.0121 -0.0220  0.0800
79378W        W80242   2.004  26.897   6.821 -0.0696 -0.0924  0.1192
79379W        W80243   9.574  24.789   7.693 -0.1306  0.2609  0.4095
79380W        W80244  14.788  20.993   4.891  0.0227 -0.0039 -0.0017
79381W        W80245  13.117   0.799  11.400  0.1530 -0.1515 -0.2699
79382W        W80246  20.879   3.109  22.091 -0.0215  0.1236  0.1252
79383W        W80247  14.616  19.589   3.208  0.0562 -0.3133  0.1661
79384W        W80248  14.862   9.993   2.790  0.1823  0.1560 -0.0196
79385W        W80249   0.163  14.198   1.077 -0.0147  0.0604  0.2086
79386W        W80250  25.138  11.382  27.938 -0.0854  0.0452 -0.1204
79387W        W80251   4.398   0.887   8.794  0.0301 -0.0916  0.2133
79388W        W80252  23.189   0.434   6.196 -0.1233 -0.3144 -0.0617
79389W        W80253  19.801   2.009   7.079 -0.0218 -0.0661 -0.2209
79390W        W80254  19.839  26.835   3.758 -0.2259 -0.0788 -0.1665
79391W        W80255   9.993   9.223  10.117 -0.0397  0.2011  0.2320
79392W        W80256  20.584   6.580  16.742  0.0116  0.1337 -0.0422
79393W        W80257  29.112   3.723  11.388 -0.0309 -0.0316  0.1742
79394W        W80258  19.064   5.497   2.732  0.0954  0.0262 -0.0171
79395W        W80259  26.539  18.216  21.542 -0.0581  0.1577  0.1655
79396W        W80260  29.115  22.140   3.400  0.1952 -0.0896 -0.0179
79397W        W80261  14.848  22.952  27.445 -0.4479 -0.0261 -0.2326
79398W        W80262   8.302   2.984  22.467  0.0706  0.2581  0.1341
79399W        W80263   1.489   0.787  26.068 -0.0396  0.3000  0.0868
79400W        W80264   6.760   0.097   2.779 -0.1625  0.1594  0.1362
79401W        W80265  10.612   1.625   7.778  0.2601 -0.0254 -0.2696
79402W        W80266  28.644  28.979  19.131 -0.0556 -0.2454 -0.0115
79403W        W80267   4.053  22.182  21.468  0.4856  0.3514  0.1627
79404W        W80268  10.725  15.952   1.445  0.0369 -0.1011  0.1070
79405W        W80269   7.039  16.252  24.732 -0.0586 -0.1199 -0.0828
79406W        W80270   6.674   4.028  16.935 -0.0782  0.0457 -0.0782
79407W        W80271   0.023  25.173  27.762  0.1871  0.0897  0.0276
79408W        W80272  12.943   4.160  18.847 -0.0323 -0.2198  0.1032
79409W        W80273   3.770  13.406  26.126  0.0484 -0.4987 -0.2466
79410W        W80274  14.935  13.288  18.464 -0.0806  0.3257 -0.2495
79411W        W80275  20.086   4.796   1.176 -0.1451  0.2309 -0.0311
79412W        W80276   4.333  14.870  23.792  0.3449 -0.1770  0.0643
79413W        W80277   0.453  15.197  24.047  0.0287 -0.2626  0.1502
79414W        W80278   3.434   1.509   0.025 -0.2912 -0.4213 -0.0918
79415W        W80279  14.357  26.932  14.108  0.0311  0.2160 -0.0797
79416W        W80280  12.148  19.606  11.051  0.1949  0.1478 -0.1791
79417W        W80281  23.386   2.516   2.249 -0.3433 -0.1178  0.0755
79418W        W80282  20.128   6.278  13.976  0.0608  0.0808  0.1577
79419W        W80283  13.439   9.948   3.858  0.0777 -0.2605  0.2179
79420W        W80284  16.455  15.419   3.598 -0.0937  0.2338  0.1285
79421W        W80285  16.751  21.104  25.175 -0.3640 -0.3352 -0.1691
79422W        W80286  22.900   3.969   0.817 -0.1563 -0.1741 -0.1253
79423W        W80287  27.254   1.416   5.477  0.1663 -0.3034  0.1746
79424W        W80288   2.227   9.217  29.068  0.0160 -0.0609  0.2806
79425W        W80289  25.969   9.766   2.253 -0.2663 -0.3934 -0.0618
79426W        W80290  19.880  26.791   8.661  0.0071  0.0726 -0.0037
79427W        W80291  22.627  22.203  14.809 -0.1328  0.3205  0.1246
79428W        W80292  21.794   1.094  22.615  0.1884  0.1792 -0.1164
79429W        W80293   6.075  22.844  16.937 -0.0554  0.0283 -0.2278
79430W        W80294   0.025  28.154  24.029 -0.1192  0.0827  0.1052
79431W        W80295   5.062  13.902  28.374  0.2722  0.0728  0.1675
79432W        W80296  21.122  28.579  25.935 -0.1947 -0.0214  0.0260
79433W        W80297   0.702   1.563  13.695 -0.1044 -0.0789 -0.1049
79434W        W80298   7.029   2.551   0.752 -0.1547 -0.1024  0.1170
79435W        W80299  20.824  22.736  24.018  0.0333  0.1489 -0.3242
79436W        W80300   1.455   8.642   4.458 -0.2737  0.2041 -0.2558
79437W        W80301  21.304  17.478  13.717  0.2121 -0.1915  0.0558
79438W        W80302   3.174  12.347   2.016  0.1845  0.0593  0.1948
79439W        W80303  17.275  10.028  25.137 -0.2757  0.1621  0.1927
79440W        W80304   9.274   5.892  25.096 -0.0088  0.0846 -0.4048
79441W        W80305   6.503  21.899   1.663 -0.1679 -0.0061 -0.1570
79442W        W80306  12.480   0.789  23.402 -0.2137 -0.1504 -0.0080
79443W        W80307   7.767   9.126  17.869 -0.1113 -0.0174 -0.1887
79444W        W80308  21.010  21.630  13.663 -0.2118 -0.0806 -0.2819
79445W        W80309  28.652   9.306   3.320 -0.1640  0.4091  0.1311
79446W        W80310  27.369   3.550  11.734  0.1210 -0.3160 -0.0690
79447W        W80311   1.107   1.350  14.535 -0.1184 -0.3464  0.2904
79448W        W80312   5.084   5.883  11.735 -0.0675  0.1189  0.4171
79449W        W80313  28.710   8.945   5.954  0.0485 -0.0335 -0.0045
79450W        W80314  26.110  11.207  11.912  0.0521 -0.0358  0.2159
79451W        W80315   1.149   6.015  26.555  0.1155  0.1968  0.0537
79452W        W80316   8.302   6.792   6.786 -0.2449 -0.0697 -0.1989
79453W        W80317   3.322  17.365  23.544  0.0274  0.3535  0.0938
79454W        W80318  26.947   3.044  12.456 -0.7928 -0.1137 -0.0073
79455W        W80319  18.940  12.800  26.893  0.0872 -0.1028 -0.0915
79456W        W80320  23.530  29.004  19.351 -0.2922  0.0480 -0.1306
79457W        W80321  27.402   6.936   9.097  0.2633 -0.2005  0.1549
79458W        W80322   6.320   0.672   1.781  0.0418  0.1354 -0.0648
79459W        W80323  24.021  15.417  21.613 -0.0075 -0.1789 -0.2245
79460W        W80324   2.576  21.831   2.204  0.1129  0.2292 -0.1570
79461W        W80325   5.930  22.547  23.036 -0.0649 -0.2917 -0.1909
79462W        W80326   2.060  17.631   3.655 -0.1269  0.0371  0.1709
79463W        W80327  20.359  16.369   3.650 -0.2284  0.0668 -0.0404
79464W        W80328   1.796  13.786  14.741 -0.0978 -0.0865 -0.0235
79465W        W80329  16.768  20.798  28.135  0.0181  0.0382 -0.2522
79466W        W80330   0.604   3.881  21.144  0.0151 -0.0413 -0.2433
79467W        W80331  17.422  18.671   4.997 -0.1356  0.0252 -0.1522
79468W        W80332  18.102  21.596   2.931 -0.1470  0.0596 -0.0250
79469W        W80333  25.087  24.705   0.222 -0.2155 -0.1593 -0.0596
79470W        W80334  16.996   7.975   7.954 -0.2062 -0.2591  0.0722
79471W        W80335   1.947  28.670   0.162  0.2265 -0.0944 -0.0876
79472W        W80336   3.708  25.251   0.918 -0.1676 -0.0177  0.0171
79473W        W80337  18.084  10.106  26.625  0.0210  0.1183  0.0360
79474W        W80338  28.438  16.755   7.087 -0.1370 -0.0873  0.1734
79475W        W80339   9.435   5.101  17.040 -0.0656  0.0900 -0.0305
79476W        W80340   3.387  27.623  27.728  0.1392 -0.0019 -0.5345
79477W        W80341  25.503  11.711  26.415 -0.0442 -0.2274 -0.0049
79478W        W80342   9.065  26.877   6.372  0.1758 -0.1651  0.4196
79479W        W80343   1.082  19.413   4.909  0.2308  0.0187 -0.0824
79480W        W80344   1.609   9.219  24.338 -0.0330 -0.3113 -0.3155
79481W        W80345  15.151   1.204   4.514  0.0592 -0.0451  0.0918
79482W        W80346   9.924  21.437   3.371 -0.0249  0.0217  0.0417
79483W        W80347  15.907   9.732  18.684 -0.1213 -0.1149  0.0970
79484W        W80348  14.126  25.986  28.703 -0.0755 -0.2284  0.2698
79485W        W80349  19.015  16.089  11.033  0.0535 -0.3547  0.0436
79486W        W80350   6.983  21.803  23.425  0.0268 -0.2643  0.3323
79487W        W80351  10.785  10.697  28.573  0.2386 -0.0403  0.1378
79488W        W80352   1.068   7.230  20.760  0.0969 -0.0729 -0.2171
79489W        W80353  25.678  11.068   0.498 -0.2661 -0.2239  0.2339
79490W        W80354  26.455  28.062   6.372  0.2062 -0.1102  0.0636
79491W        W80355  28.444  24.214  28.806  0.3032  0.0392  0.4082
79492W        W80356   4.112  16.963   0.899 -0.1733  0.1397  0.1530
79493W        W80357  19.313  10.151  12.576  0.0767  0.0729 -0.0428
79494W        W80358   0.514   4.489  12.684  0.2089 -0.1167  0.0108
79495W        W80359   4.769  27.669   4.406  0.1136 -0.0740 -0.1452
79496W        W80360   5.866  10.712   7.644  0.1675 -0.0991  0.0090
79497W        W80361  24.200  26.069   1.096 -0.0703  0.0124 -0.0430
79498W        W80362   2.478  25.511  28.936  0.0195  0.0996  0.1199
79499W        W80363   1.518   6.463  11.569  0.0479 -0.2234 -0.2350
79500W        W80364  27.163   9.532  10.254 -0.0101  0.3008 -0.1574
79501W        W80365  28.867  21.449  13.612 -0.1013 -0.1815 -0.1177
79502W        W80366   8.479   1.373  10.021 -0.2783 -0.1569 -0.1043
79503W        W80367  24.619   3.569  26.158 -0.1243  0.1506 -0.0873
79504W        W80368  23.337   9.409  21.281  0.0320  0.0658  0.0687
79505W        W80369   6.805  15.588  22.296 -0.0614  0.2323  0.1996
79506W        W80370   9.669  27.647   0.932  0.0008  0.0871  0.3149
79507W        W80371  26.415  27.618   6.618 -0.1660  0.1490  0.1837
79508W        W80372   2.980   4.006  24.934  0.1447 -0.0135  0.0870
79509W        W80373   1.175  14.989   5.283  0.0750  0.2633  0.1948
79510W        W80374  13.656  23.143   0.756  0.0120 -0.2781  0.0605
79511W        W80375  15.679   1.717  29.091  0.0224  0.1411 -0.1630
79512W        W80376  14.825  23.648   5.311 -0.1083 -0.3695 -0.1053
79513W        W80377   8.198  27.203  19.517 -0.1591 -0.0406 -0.0333
79514W        W80378  25.644  18.386  12.764  0.0649  0.1040  0.0722
79515W        W80379  23.867   8.452   2.412 -0.2585 -0.0164 -0.0269
79516W        W80380  21.869   6.986  20.700 -0.0667  0.0399 -0.2155
79517W        W80381  15.393  27.700  27.086 -0.1286 -0.1287  0.1086
79518W        W80382  25.300  20.277   3.004  0.0465  0.1169  0.0437
79519W        W80383   3.580   0.980   1.238  0.1541 -0.1687  0.0679
79520W        W80384   8.585   0.634  20.487 -0.0193  0.0314  0.1315
79521W        W80385  19.529   5.386  23.582  0.0645 -0.2311  0.3517
79522W        W80386  22.875  21.590  27.385  0.0611 -0.0039 -0.0842
79523W        W80387   2.371  28.112   0.606 -0.0555 -0.2623 -0.0314
79524W        W80388  25.070  12.249  28.821 -0.0843 -0.2839 -0.3133
79525W        W80389  19.689   6.899   3.612 -0.0580 -0.0567  0.0516
79526W        W80390   8.491  18.042   4.628  0.1390 -0.0294  0.0712
79527W        W80391   2.792   3.884  18.990  0.1954 -0.0406 -0.2521
79528W        W80392   0.859   5.658   4.330 -0.1276 -0.1975 -0.3157
79529W        W80393  21.036  27.367  26.621  0.0977  0.0255 -0.2402
79530W        W80394  17.669   6.751  27.444 -0.1132 -0.0271  0.2251
79531W        W80395  10.677  24.876  13.500  0.0177  0.0673 -0.0676
79532W        W80396  15.239   5.180   3.557  0.2798 -0.2014  0.1984
79533W        W80397   5.430   4.872   6.145 -0.1711  0.0858  0.0901
79534W        W80398  23.105  12.983   2.541  0.1982  0.1871  0.2511
79535W        W80399   1.506   4.308  15.789 -0.3581  0.0782  0.0325
79536W        W80400  11.365  11.481   5.525  0.0411 -0.0077 -0.0388
79537W        W80401  25.751  14.769  28.963  0.1409  0.3353 -0.1120
79538W        W80402  22.592   9.138  17.057  0.0107 -0.0912  0.0615
79539W        W80403   1.014   5.650  15.693 -0.2195  0.1235  0.0735
79540W        W80404   6.376  28.092  19.651  0.0040 -0.2134 -0.3840
79541W        W80405  26.861  22.569   2.160  0.0436 -0.1342 -0.0119
79542W        W80406  15.050   8.706  27.137 -0.2310  0.3880 -0.2341
79543W        W80407   4.805  19.616   9.553 -0.0672  0.3759  0.0119
79544W        W80408  10.098  22.917  22.861 -0.2292 -0.0018  0.3459
79545W        W80409   7.288  17.199   0.981 -0.0205  0.3769  0.0859
79546W        W80410  27.574  28.503  18.718 -0.0209 -0.0920  0.1788
79547W        W80411  21.595   2.139  26.786 -0.0014  0.2209  0.2039
79548W        W80412  24.634  20.623  26.757 -0.2597 -0.1599  0.2612
79549W        W80413  26.815  22.505   7.598 -0.3230 -0.0586  0.0569
79550W        W80414  15.154  14.625  15.432  0.0006 -0.0951 -0.1820
79551W        W80415  13.553  11.902   6.246 -0.4341 -0.1336 -0.0860
79552W        W80416  25.606  12.704  27.237 -0.0303  0.0343  0.0425
79553W        W80417  17.516  21.336  21.861 -0.1667  0.0071 -0.0732
79554W        W80418  11.287  22.307   4.734  0.2247  0.0411 -0.0309
79555W        W80419  21.091   0.199  28.753 -0.2248  0.0109  0.2420
79556W        W80420   6.397  22.414  23.799 -0.1329  0.0853 -0.3461
79557W        W80421   0.613   6.234   4.911 -0.2939 -0.0902 -0.2108
79558W        W80422  23.072  28.760   8.094  0.2057 -0.1400 -0.0554
79559W        W80423  22.596   1.652   7.797 -0.0977  0.0826  0.0753
79560W        W80424   9.519   0.285  28.096  0.1758 -0.0738  0.2532
79561W        W80425  23.294   4.499  20.110  0.1800  0.2519  0.1661
79562W        W80426  11.788   8.219   1.810 -0.2320  0.0964 -0.2738
79563W        W80427   9.140  27.109  21.597  0.1124  0.1304 -0.2514
79564W        W80428  17.085  27.911   1.806  0.2059 -0.2143 -0.0031
79565W        W80429   1.817   7.016  23.606  0.1028  0.1376  0.2452
79566W        W80430  17.535   6.888   4.156  0.5449 -0.0559 -0.6825
79567W        W80431   5.772  22.535  12.816 -0.1700 -0.0278  0.0667
79568W        W80432  13.601  12.833  28.390  0.0725 -0.0140 -0.1871
79569W        W80433  21.331  24.019  20.506 -0.1108  0.0170 -0.2067
79570W        W80434   5.523  24.675  16.976  0.2277 -0.3648 -0.0323
79571W        W80435   1.631   3.972  19.974  0.1530  0.1781  0.4573
79572W        W80436   5.509   0.568   4.800  0.2242 -0.2115  0.0452
79573W        W80437   5.240  26.206   6.522  0.1009 -0.3192 -0.0788
79574W        W80438   9.431   8.005   8.200  0.0236 -0.3086  0.0120
79575W        W80439   2.962  10.582  26.987 -0.3056 -0.1363  0.0507
79576W        W80440  24.189  22.720   3.125  0.1285 -0.1078  0.1353
79577W        W80441  24.889  26.867   4.295 -0.1445  0.1594 -0.2365
79578W        W80442  14.443  12.318   3.404  0.0831 -0.3283 -0.0978
79579W        W80443   2.105  17.703  23.368  0.0454 -0.3088  0.0178
79580W        W80444  19.223  26.981   1.929  0.0381  0.2567 -0.1717
79581W        W80445   9.468  18.534   5.021 -0.0060  0.0682  0.0467
79582W        W80446  14.299   2.575   7.183 -0.0198  0.0759 -0.1760
79583W        W80447   7.769   0.734   7.538 -0.0164  0.4001 -0.1438
79584W        W80448  24.819  19.335  23.158 -0.0743 -0.0905  0.1403
79585W        W80449  25.039  27.200  28.583 -0.1331 -0.0259 -0.1461
79586W        W80450   2.715   8.227   2.479 -0.0184  0.0057 -0.1555
79587W        W80451  17.997   5.791  28.199  0.1126  0.4388 -0.1972
79588W        W80452  28.804   0.688   4.783  0.0210 -0.0339 -0.0043
79589W        W80453  28.278  24.657  28.755 -0.0809  0.1078 -0.0128
79590W        W80454  19.575   6.056  12.544 -0.0952  0.2194 -0.0307
79591W        W80455  18.907  10.093   2.998 -0.0122 -0.0745 -0.2310
79592W        W80456  19.702  25.467  21.023  0.2177 -0.0170  0.0486
79593W        W80457  27.349   7.908  16.620 -0.0280  0.2623 -0.1103
79594W        W80458  27.812  17.750  10.544  0.2466  0.0681  0.1828
79595W        W80459  27.405  24.087   8.052 -0.2475  0.0085 -0.1880
79596W        W80460   1.265  22.910  25.581  0.0559  0.3101  0.1588
79597W        W80461  25.268  23.627  23.139  0.1821 -0.1666  0.3853
79598W        W80462  14.220  25.607  17.055 -0.0071  0.1064  0.4135
79599W        W80463   4.752   4.431   5.070  0.2801  0.0405  0.3735
79600W        W80464   3.751  26.042  18.586  0.0960  0.2153  0.1941
79601W        W80465  14.054   4.084  23.769 -0.1395 -0.1408  0.0110
79602W        W80466  11.244  18.867   8.292 -0.2606 -0.1220 -0.1960
79603W        W80467   4.694  12.447   7.832 -0.0457  0.2543 -0.0550
79604W        W80468  15.865  12.265  28.606  0.0346 -0.1276  0.0239
79605W        W80469   2.202  23.226  19.963  0.3578 -0.1331  0.0793
79606W        W80470  14.695  14.524  23.152  0.1327  0.1574  0.1003
79607W        W80471   2.626  25.183   6.563  0.0403  0.0896  0.0126
79608W        W80472  28.106  28.718  28.330  0.2798  0.1331  0.3316
79609W        W80473  16.380  18.630   0.495 -0.1111 -0.0592 -0.0591
79610W        W80474  22.564  11.080   9.324 -0.3876  0.1362 -0.1683
79611W        W80475  25.583   2.838  13.526 -0.0181 -0.0576 -0.0521
79612W        W80476  24.584   5.517   8.738 -0.0207 -0.4709 -0.1404
79613W        W80477  23.586   4.183   7.345  0.2063 -0.0917 -0.3020
79614W        W80478  18.266  21.685   1.940 -0.1312 -0.0694 -0.0778
79615W        W80479  17.869   7.690   9.809  0.1776  0.1622  0.3303
79616W        W80480  15.581  29.082   1.229 -0.0030  0.0141  0.0790
79617W        W80481   0.425  18.375   4.860 -0.4116  0.2537  0.0057
79618W        W80482  26.940   3.570  21.065 -0.0208 -0.2878 -0.2251
79619W        W80483   5.151  25.069  27.040 -0.3029 -0.2618 -0.2377
79620W        W80484  23.659   9.774   0.865  0.0415 -0.0961 -0.0743
79621W        W80485   0.428   1.009  10.846  0.0208 -0.2270 -0.2864
79622W        W80486  16.346  28.689  27.237 -0.1570 -0.0615 -0.1501
79623W        W80487  21.668  19.472   1.247 -0.2019  0.0802 -0.1275
79624W        W80488  19.675  17.302  12.896 -0.0501 -0.1164  0.0608
79625W        W80489  12.939  20.470  13.934 -0.1083  0.0365 -0.3489
79626W        W80490  20.290  28.059  26.395  0.0471  0.1211 -0.0767
79627W        W80491  20.322  14.487  16.193  0.1449 -0.1006 -0.2860
79628W        W80492   6.916   1.376  24.293  0.3267  0.0346  0.2515
79629W        W80493  11.655   2.243  15.602  0.2388  0.2376  0.1345
79630W        W80494  25.249  14.719  11.468  0.2277  0.0337  0.0581
79631W        W80495  24.170  10.417  21.300  0.2452 -0.1749 -0.3087
79632W        W80496   0.349  19.742   4.596 -0.1946  0.1489  0.3132
79633W        W80497  16.144   7.819  26.888  0.0659  0.1085 -0.0606
79634W        W80498   8.780  26.318   8.885 -0.0263  0.0147 -0.1806
79635W        W80499  24.378  23.407  16.953  0.0907 -0.0255  0.1425
79636W        W80500  27.545  12.871   6.617  0.3151 -0.0519  0.2803
79637W        W80501  11.109   4.699   9.943 -0.0234  0.1843 -0.1466
79638W        W80502   6.290   8.672  11.296 -0.2107 -0.2564 -0.5043
79639W        W80503  26.494   0.380  21.270 -0.2527  0.2098 -0.1445
79640W        W80504  11.693   3.745  14.197  0.1218 -0.1124  0.0304
79641W        W80505  21.538  28.224  11.724  0.1605  0.3308 -0.2979
79642W        W80506  25.884  27.199  13.262 -0.3485  0.2425 -0.1264
79643W        W80507   3.781  17.241  13.857  0.0046  0.1192  0.1423
79644W        W80508   3.414  16.852  10.408  0.1416  0.1891  0.0912
79645W        W80509  26.490  26.592   7.227 -0.0120  0.0326 -0.1464
79646W        W80510  15.635  15.574  16.918 -0.2481 -0.1642 -0.0314
79647W        W80511   1.719   3.819  10.701 -0.0855  0.1789 -0.0466
79648W        W80512  14.879   5.395  20.551  0.1363  0.2457  0.0331
79649W        W80513   9.536  22.728  19.072 -0.0270 -0.0038 -0.2244
79650W        W80514  24.973  20.945   4.784 -0.0638  0.1130 -0.0474
79651W        W80515  12.076   2.221   2.700 -0.1318  0.1931  0.1669
79652W        W80516  14.770   3.038  18.232  0.2099 -0.3124 -0.0886
79653W        W80517  14.390   6.049  15.976 -0.1715  0.0504  0.0597
79654W        W80518   9.099  18.769  11.788  0.0732  0.1706  0.0017
79655W        W80519  13.006  11.799   6.004  0.0110 -0.2640 -0.0368
79656W        W80520  28.529  20.644   5.444  0.6382 -0.0273  0.1501
79657W        W80521  16.650  10.675   3.362  0.0191 -0.0444  0.4220
79658W        W80522   5.389  16.177   0.270  0.1965  0.2970  0.2389
79659W        W80523  22.951   7.459   7.171 -0.1336 -0.2441 -0.0535
79660W        W80524   2.318  25.351   2.493  0.0603  0.1604  0.0010
79661W        W80525  22.507  22.162  25.090  0.3520  0.1120  0.4023
79662W        W80526  17.806   4.384   6.550 -0.0891 -0.0464  0.2418
79663W        W80527  14.806  11.520  27.785  0.0623  0.1939 -0.3840
79664W        W80528   8.744   0.438  15.937  0.0364  0.0492 -0.0438
79665W        W80529  18.660  26.150   5.429  0.0761  0.0709 -0.1967
79666W        W80530  17.683   6.923  16.508 -0.1067 -0.2205 -0.2423
79667W        W80531  21.639  26.097   1.145 -0.3535 -0.4871  0.1458
79668W        W80532  18.015   5.984   2.303 -0.2534  0.0222  0.2199
79669W        W80533   8.578  13.404  26.665  0.0685 -0.0360  0.2186
79670W        W80534   0.934  23.992  10.411  0.1643  0.0332 -0.1305
79671W        W80535   3.104  26.725  20.266  0.0946 -0.1711  0.0501
79672W        W80536  21.816  18.631  28.544  0.0417  0.0880 -0.3109
79673W        W80537  27.947   2.269  28.168 -0.0928 -0.0990 -0.1335
79674W        W80538   2.484  14.686  23.172  0.1293  0.1222 -0.0504
79675W        W80539  24.626   6.758  24.490  0.3328  0.1201  0.0296
79676W        W80540  29.019  15.450   5.058  0.1060 -0.1054 -0.2855
79677W        W80541  11.808  26.203   1.138  0.0090  0.1039 -0.1532
79678W        W80542  27.934   6.471  16.020  0.1281 -0.1467  0.3964
79679W        W80543   5.504  25.839   0.621  0.0975  0.1077 -0.0694
79680W        W80544   4.178  23.050  11.699 -0.2352  0.1290 -0.1147
79681W        W80545  25.887  10.357  15.537  0.0125 -0.2523 -0.0526
79682W        W80546   0.907   2.935   9.274 -0.1156 -0.3009  0.1556
79683W        W80547   2.355   3.364   2.112 -0.1251 -0.2592  0.0654
79684W        W80548  24.779  27.501  16.164  0.3152  0.2105 -0.1385
79685W        W80549  23.812  21.437   4.988 -0.3468 -0.0119  0.0200
79686W        W80550   2.799  24.254   7.412  0.1081 -0.0517  0.0635
79687W        W80551  19.271   8.047  28.844  0.2846  0.0156 -0.0942
79688W        W80552   8.931  18.452  13.185  0.0398  0.1686 -0.4797
79689W        W80553  14.598   0.148   1.463  0.1898 -0.0568  0.1504
79690W        W80554   7.929  15.697  13.214  0.0831 -0.4026  0.0174
79691W        W80555  25.610   5.927  10.674 -0.1259 -0.1837 -0.3299
79692W        W80556  20.464   5.655   6.873  0.0945  0.5327 -0.3260
79693W        W80557  26.616   9.977   2.640  0.2145  0.0589  0.1569
79694W        W80558  24.876   1.974   2.231  0.0063  0.2775 -0.1857
79695W        W80559   0.275   0.698  27.599  0.1238  0.3294  0.0449
79696W        W80560   9.412  15.965  11.407  0.2799  0.1240 -0.0129
79697W        W80561   0.063   4.171  17.760 -0.0008 -0.0424  0.3708
79698W        W80562  24.394   0.135  21.257  0.0506  0.0890 -0.0831
79699W        W80563  13.774  17.032  18.098  0.0389 -0.3494  0.0563
79700W        W80564  28.612   4.962   5.567 -0.1712 -0.1534  0.0180
79701W        W80565  20.447  14.994  18.916 -0.2226 -0.1004  0.0454
79702W        W80566  25.296  23.979   7.057  0.1908 -0.4210  0.1245
79703W        W80567   6.573  26.574  28.589  0.1500  0.0425  0.1412
79704W        W80568  21.346   0.798  16.592  0.0625 -0.1212  0.1917
79705W        W80569   2.543   1.906   4.939  0.1235  0.2013  0.0523
79706W        W80570   8.318   3.657  13.342 -0.0861  0.1208  0.0914
79707W        W80571   3.482  17.950  18.798 -0.1994  0.0706  0.2150
79708W        W80572  18.870  13.045   2.074 -0.1289  0.1405  0.0687
79709W        W80573   9.959   0.803  21.064 -0.2536 -0.2380 -0.0718
79710W        W80574  11.084  12.111  15.829 -0.1783  0.1996  0.2990
79711W        W80575   6.251   5.727  15.714 -0.0954 -0.0394 -0.0146
79712W        W80576   9.283   4.303  21.366 -0.0261  0.3203  0.0548
79713W        W80577  21.406   5.230  27.241  0.0510 -0.1689  0.0769
79714W        W80578  26.539  19.149   5.556  0.2357 -0.0842 -0.3802
79715W        W80579   0.670  14.076   9.225  0.0031 -0.0184 -0.1468
79716W        W80580   2.939  15.320   4.890  0.6028 -0.2729 -0.1578
79717W        W80581  26.603  27.136  24.694 -0.1226 -0.0173 -0.4062
79718W        W80582   7.074  21.253  17.973 -0.0675 -0.1088  0.2524
79719W        W80583   2.409  18.712   4.719  0.2663  0.1697  0.1443
79720W        W80584  27.049  10.468  24.455 -0.0503  0.0151 -0.1104
79721W        W80585  11.566  14.764   2.214  0.0081 -0.1355  0.1191
79722W        W80586  10.048   4.871  17.977  0.1979 -0.1682 -0.2117
79723W        W80587   6.462  11.749   1.750 -0.0230 -0.2684  0.2300
79724W        W80588   3.530   2.619  20.243 -0.1426  0.0995 -0.0255
79725W        W80589  11.046  28.186  25.306 -0.1935  0.1475  0.0592
79726W        W80590  21.479  22.382  21.305 -0.1337  0.0647 -0.0079
79727W        W80591   4.515   8.638   0.372  0.3732  0.2076 -0.1120
79728W        W80592   1.028  13.396  16.221 -0.1125  0.1150  0.1086
79729W        W80593   6.196  23.958  28.820  0.3702  0.1886  0.0189
79730W        W80594   2.811  25.130   0.578 -0.2772 -0.0727 -0.2057
79731W        W80595  27.807  22.699  12.782 -0.1648 -0.1372 -0.0509
79732W        W80596   0.860   7.304  27.183 -0.0922  0.0418 -0.2355
79733W        W80597  19.201   3.629   1.857 -0.1293 -0.1289  0.2978
79734W        W80598  11.684  24.631   4.203 -0.1658 -0.0296 -0.0732
79735W        W80599  25.556  13.210  24.801 -0.2548  0.1594  0.1466
79736W        W80600  11.108   3.168  17.250  0.1712  0.1247  0.1227
79737W        W80601  13.969  28.825  11.886  0.2713  0.1577  0.0650
79738W        W80602   8.773  10.498   0.587  0.2654 -0.1015  0.1411
79739W        W80603  20.329  13.540   3.687  0.0266 -0.1816 -0.3829
79740W        W80604   6.677  21.155  26.197  0.1177  0.0188  0.3544
79741W        W80605  17.423  24.286  17.164  0.2628 -0.0972 -0.0808
79742W        W80606  26.304  21.146  13.602 -0.0680 -0.2942  0.0437
79743W        W80607  13.091  23.752  18.886 -0.4687 -0.1600 -0.0175
79744W        W80608  23.873   3.790  15.799 -0.1654  0.3162  0.2490
79745W        W80609  21.815  19.203   5.544  0.2500 -0.1335  0.0284
79746W        W80610  28.390   3.677  14.014 -0.1942 -0.1198  0.0537
79747W        W80611   3.133  27.103   5.613  0.0880 -0.0503 -0.0598
79748W        W80612   7.765   5.258  22.020  0.1791  0.0716  0.2095
79749W        W80613   2.021  12.729   6.992  0.0368  0.0789  0.2151
79750W        W80614  28.735  28.454   4.012  0.1958  0.0434 -0.3394
79751W        W80615   0.345   9.671   6.139 -0.1950 -0.1026 -0.0068
79752W        W80616   1.132  13.792   0.946 -0.0108  0.1429 -0.0930
79753W        W80617   6.298  18.496   2.782 -0.1859 -0.1513  0.1322
79754W        W80618  18.107  24.873  24.679  0.0825 -0.1685 -0.2394
79755W        W80619  23.351  24.207   5.256  0.0955 -0.1971  0.2309
79756W        W80620  12.309  15.909  20.067  0.0990  0.0525 -0.2339
79757W        W80621  28.173  14.270  12.579  0.0019 -0.2095  0.3060
79758W        W80622   3.045  25.111   4.329  0.3961  0.0677  0.0426
79759W        W80623  27.221  25.638  25.221 -0.2151 -0.1551 -0.0468
79760W        W80624   9.832  25.202   2.228 -0.1910 -0.2874  0.2350
79761W        W80625  20.943   0.930   7.837 -0.0984 -0.2122  0.0663
79762W        W80626  13.068   2.850  19.120  0.1554  0.0655  0.2135
79763W        W80627  12.942  26.398   5.331  0.0099  0.1102 -0.0393
79764W        W80628  21.483   5.039   6.532  0.1373 -0.0215  0.1437
79765W        W80629  13.244  14.597  10.296  0.0097 -0.0311 -0.4197
79766W        W80630  10.969   9.610   9.062 -0.2023 -0.1843  0.0578
79767W        W80631   0.048   1.695  16.075 -0.0323 -0.0827 -0.0851
79768W        W80632  17.239   3.926   3.519 -0.2299  0.2663 -0.0357
79769W        W80633   9.340   2.840  11.970 -0.3464 -0.4048  0.0902
79770W        W80634  19.629  26.125   3.618  0.2660  0.5447 -0.4780
79771W        W80635  17.761  11.476   7.573 -0.2490 -0.1395 -0.0830
79772W        W80636   3.819  25.601  13.436  0.1031  0.0859 -0.0752
79773W        W80637  28.937  18.323  27.301  0.1969 -0.2159  0.0069
79774W        W80638   6.678   2.175   8.295  0.1595 -0.2451 -0.3419
79775W        W80639  26.177  11.384  14.938  0.0552 -0.0340 -0.1154
79776W        W80640   5.999  14.506  23.374  0.2155 -0.0296 -0.5377
79777W        W80641  14.233  22.948   4.118 -0.1390  0.1601 -0.0859
79778W        W80642  24.442  25.131  12.104 -0.1154 -0.3153  0.3968
79779W        W80643  21.068  18.021  15.015 -0.0354 -0.0460  0.1621
79780W        W80644  19.610   7.562   8.585  0.2258 -0.0585 -0.0182
79781W        W80645  27.266  26.250  15.266 -0.1208  0.0754  0.1460
79782W        W80646  18.920   0.374   3.354  0.0664  0.2103 -0.0120
79783W        W80647   0.518  27.859  26.605 -0.0868 -0.2264 -0.0904
79784W        W80648   3.093  23.476  28.134  0.0397  0.0132  0.3306
79785W        W80649  25.408   4.420  16.626 -0.1291  0.0135 -0.0816
79786W        W80650   3.684  14.709   4.659 -0.4201 -0.0974 -0.1092
79787W        W80651  10.711  28.862   3.891  0.1512 -0.0767 -0.0829
79788W        W80652  16.162  15.891   7.515 -0.1379  0.0030 -0.3175
79789W        W80653  21.889   5.933   3.992  0.2373  0.0633 -0.0030
79790W        W80654  23.447  16.767   0.714 -0.0587  0.1307  0.0818
79791W        W80655  25.887  10.500   0.495 -0.1164 -0.0708 -0.1539
79792W        W80656   0.741   3.993   5.723 -0.0788  0.0539  0.1488
79793W        W80657  20.771  15.089  27.686  0.0265 -0.1764 -0.0358
79794W        W80658   9.011  19.562   2.052 -0.1928  0.0351  0.2289
79795W        W80659   0.064  18.902  16.600 -0.0720 -0.1420 -0.2515
79796W        W80660  25.070  13.066   6.315 -0.0855 -0.0917 -0.1129
79797W        W80661   4.639  10.748  13.947 -0.0079 -0.1281  0.0952
79798W        W80662  23.495  22.126  27.591 -0.1757  0.0219  0.0775
79799W        W80663  22.304  24.070   5.901 -0.0638  0.0609 -0.1730
79800W        W80664  11.831   8.994  14.567 -0.3015 -0.1023 -0.2277
79801W        W80665   4.381  18.460   6.291 -0.3307  0.0697 -0.0052
79802W        W80666   3.047  27.868   4.998 -0.1137  0.1058  0.1116
79803W        W80667   1.435   4.873   0.816 -0.1449 -0.0478  0.2988
79804W        W80668   4.921   0.750  15.067 -0.0585 -0.1952 -0.2042
79805W        W80669  27.187   6.780  22.260 -0.0997 -0.0029  0.0127
79806W        W80670  21.222  25.489  28.954  0.0253  0.1029 -0.0706
79807W        W80671  23.210  25.424   5.500 -0.3683 -0.1077  0.2530
79808W        W80672  25.885  22.140  26.476 -0.1287 -0.0877 -0.0778
79809W        W80673  15.918  21.880  25.278  0.0586 -0.1761  0.1282
79810W        W80674  27.604  27.728  24.688 -0.0044  0.1086  0.0433
79811W        W80675   0.778  22.061  20.335 -0.1631  0.1705  0.0122
79812W        W80676  24.861  27.413  20.320  0.0377  0.0444 -0.1143
79813W        W80677  27.930  24.531   3.265  0.0602 -0.3087  0.0486
79814W        W80678  21.240  20.954   8.751 -0.1017  0.0924  0.1203
79815W        W80679  22.212   2.282  25.673 -0.2873  0.2690 -0.2543
79816W        W80680  19.869  22.529   4.033  0.1108 -0.0268  0.2159
79817W        W80681   4.973  28.800   8.987 -0.3663 -0.0165  0.0234
79818W        W80682  21.797  26.440   8.365  0.1832 -0.0541  0.0118
79819W        W80683   9.846  11.059  17.139  0.2740  0.2806  0.2623
79820W        W80684  10.021  27.479   9.969 -0.0130  0.3514  0.0957
79821W        W80685  24.677  19.813   9.388 -0.0394 -0.0214  0.0145
79822W        W80686  16.018   1.298  16.757 -0.0295  0.0232  0.2954
79823W        W80687   7.548  11.287   2.962  0.0180 -0.5121  0.1975
79824W        W80688  20.468  23.862  10.631  0.0523  0.1405  0.0479
79825W        W80689  13.316  17.851   4.741 -0.1130  0.4407  0.2064
79826W        W80690  27.674  11.244   7.526 -0.0617 -0.3176 -0.1242
79827W        W80691  20.036   1.825  16.612 -0.1847  0.0276  0.1712
79828W        W80692  12.203  24.489  11.048  0.2391  0.3011  0.0351
79829W        W80693   5.601   8.648  11.670 -0.5217  0.3037  0.0384
79830W        W80694  21.184  13.498   3.424  0.1200 -0.2357 -0.0156
79831W        W80695   9.177  26.385  28.832 -0.1356  0.3380 -0.0415
79832W        W80696   4.422  26.681   7.593 -0.3975 -0.0592  0.0897
79833W        W80697  21.730   7.749  27.213 -0.2760  0.1355 -0.2219
79834W        W80698  16.371  18.973  17.956  0.0981 -0.0951 -0.0005
79835W        W80699  18.648  21.633  10.437  0.3207  0.2879 -0.2456
79836W        W80700   2.341   0.904   6.394 -0.1246  0.1646 -0.0394
79837W        W80701  26.422  25.721  27.567 -0.2302 -0.2765  0.0818
79838W        W80702  18.433  21.142   0.432 -0.0002 -0.0446  0.5535
79839W        W80703   9.483   7.564   8.514 -0.1290  0.0945 -0.1657
79840W        W80704  27.583  28.740  28.266  0.0181 -0.2032 -0.0306
79841W        W80705   6.516  28.702  22.838 -0.0095  0.0446  0.3478
79842W        W80706  20.466  12.241  24.446  0.1708  0.4048  0.0167
79843W        W80707   8.228   1.416  23.956 -0.1048  0.0762 -0.0649
79844W        W80708  26.226  28.556   6.061 -0.1809 -0.1504  0.3590
79845W        W80709  11.042  22.134   9.698 -0.2050 -0.0833 -0.0081
79846W        W80710  15.850  12.592  21.448 -0.0258  0.1372  0.1067
79847W        W80711   3.625  24.660  13.626 -0.0496 -0.0538 -0.2570
79848W        W80712  14.155   3.010  19.487 -0.1456  0.3404 -0.0111
79849W        W80713  24.703   9.014  14.237  0.0370  0.1774  0.0302
79850W        W80714  28.857   7.062  10.619  0.1300  0.0848 -0.1507
79851W        W80715   7.401  28.780   5.967 -0.3637 -0.1141  0.0669
79852W        W80716  15.053  23.511  27.983  0.0624 -0.2457  0.0940
79853W        W80717  23.307  22.202  12.582  0.0333 -0.2098  0.0616
79854W        W80718  18.787  25.809  12.207 -0.0807  0.0496  0.0619
79855W        W80719  21.896   5.598  20.862 -0.1157  0.2481  0.0346
79856W        W80720  27.290  19.833   2.200  0.0663  0.1012  0.2623
79857W        W80721   8.908  22.603   6.786 -0.3590  0.0601 -0.2802
79858W        W80722  11.194  26.357   5.783 -0.0017 -0.0571  0.1692
79859W        W80723  19.326  26.490   1.980  0.0923  0.1249  0.1681
79860W        W80724  21.628  16.769   9.703 -0.2281 -0.3406  0.0586
79861W        W80725  21.015   2.482   7.067 -0.0735 -0.0426  0.5315
79862W        W80726   3.585   5.608   5.756 -0.3009 -0.0794  0.0651
79863W        W80727  28.432   5.918   4.549  0.1175  0.3456  0.1146
79864W        W80728  27.293  20.559   6.501  0.0312 -0.3234 -0.0528
79865W        W80729   0.049  18.308  23.608 -0.3789 -0.1055  0.0571
79866W        W80730  18.239  21.834  28.407 -0.1357 -0.1462 -0.1400
79867W        W80731  24.574   7.582   2.131  0.1918 -0.1483 -0.1606
79868W        W80732  18.923  27.065   5.764 -0.1631  0.0583  0.1777
79869W        W80733   5.907   6.065   9.968 -0.0983 -0.1070 -0.1032
79870W        W80734   0.939  16.309   7.961 -0.2971 -0.0553  0.0754
79871W        W80735   4.354  26.898   0.513  0.0617 -0.3492 -0.2255
79872W        W80736  17.576  20.335   0.989 -0.0043 -0.2836 -0.1073
79873W        W80737   7.382   5.316   9.148 -0.1772  0.0090  0.0300
79874W        W80738  21.115   4.099   8.201 -0.0131  0.1711  0.1189
79875W        W80739  24.026  26.934   4.065 -0.0759 -0.0292 -0.1979
79876W        W80740   2.927   3.984  11.336  0.0247 -0.1417 -0.3388
79877W        W80741  18.407  28.464  21.616 -0.0544 -0.0786  0.0621
79878W        W80742   3.640  24.081   9.420 -0.3223  0.0335  0.1972
79879W        W80743  24.531  18.504  23.212  0.0357  0.3573 -0.0148
79880W        W80744  16.573  28.929  16.337  0.0978  0.2466 -0.2242
79881W        W80745  27.860  23.959  26.601  0.0090 -0.1731 -0.1531
79882W        W80746  28.175  20.725  21.215 -0.1277  0.0541 -0.1521
79883W        W80747  11.391   9.784  10.510 -0.1203  0.0726  0.2598
79884W        W80748  25.531  21.549  18.453  0.0788  0.1760  0.0190
79885W        W80749   0.795  23.494   5.485 -0.0904  0.2007  0.2600
79886W        W80750  14.728  12.271   6.173 -0.2006  0.0013 -0.1288
79887W        W80751  24.007  25.178   1.150 -0.0711  0.3629 -0.0568
79888W        W80752  24.354  18.182  13.996  0.1370 -0.1524  0.1562
79889W        W80753   4.265   4.138   7.731 -0.1385  0.3215  0.0056
79890W        W80754  23.230   5.008  15.186 -0.2918  0.1566  0.2826
79891W        W80755   3.206  21.505   7.011  0.0854 -0.2316 -0.0236
79892W        W80756  26.784  15.711  26.852 -0.3138  0.0168 -0.2565
79893W        W80757   7.596   8.920   1.767 -0.2634 -0.2338 -0.2789
79894W        W80758   6.347  22.754  11.710  0.0427  0.0159 -0.1114
79895W        W80759   1.120  16.789   8.877  0.4060  0.1274 -0.0198
79896W        W80760   1.270   0.927   0.423  0.0792 -0.2642  0.2089
79897W        W80761  15.291  18.615  19.900 -0.0500 -0.3034  0.1809
79898W        W80762  23.087  25.016   4.672  0.0344 -0.0550 -0.3436
79899W        W80763  19.654   9.659   7.395 -0.1447  0.0085 -0.3316
79900W        W80764   3.886   3.808  24.773 -0.2887  0.2432  0.2861
79901W        W80765   8.201   3.263  10.131 -0.0496 -0.1512  0.0963
79902W        W80766  18.920   3.398  12.534 -0.0832  0.0602 -0.3929
79903W        W80767  19.236  23.908  12.206  0.0784  0.2292 -0.1059
79904W        W80768  12.898   2.188   6.134 -0.1402  0.2433  0.1956
79905W        W80769  21.553  10.525  23.754  0.1438  0.1424  0.1151
79906W        W80770   3.572  10.620  11.186  0.0138  0.0953 -0.0986
79907W        W80771   7.392  17.760  25.670  0.1052  0.0622 -0.2983
79908W        W80772  10.982   0.334  20.171  0.3625  0.0426 -0.0726
79909W        W80773  18.312   6.583  14.189 -0.1444 -0.0676  0.0182
79910W        W80774  16.874  14.892  13.509 -0.0425 -0.3789  0.0269
79911W        W80775  12.952  23.231  21.321  0.1234  0.2892  0.0058
79912W        W80776  24.099  20.770  27.533 -0.0993  0.3871  0.4922
79913W        W80777   7.466  24.392  13.440  0.1296  0.1032  0.0155
79914W        W80778  12.509  14.075   3.984  0.0410  0.0312 -0.0900
79915W        W80779  18.657  17.258   9.652  0.0354 -0.1561  0.1374
79916W        W80780  21.299   8.033   0.252  0.1118 -0.0148  0.1623
79917W        W80781  25.512   7.586  11.164  0.2096  0.0085  0.1559
79918W        W80782   7.686  23.091   1.445  0.1587  0.0478  0.1912
79919W        W80783   1.062  18.796  13.330 -0.0562  0.3059  0.1093
79920W        W80784  25.723  20.529   4.962 -0.1879  0.1417 -0.3452
79921W        W80785  27.533   1.014  10.452  0.0151 -0.2246  0.3229
79922W        W80786  13.695  15.163   6.848  0.0391 -0.0555  0.1825
79923W        W80787   5.457  19.157   4.995  0.1144  0.1592 -0.0742
79924W        W80788  19.461  28.814   3.752 -0.2036  0.1158 -0.2293
79925W        W80789  24.691  24.399   6.169  0.2669  0.0448 -0.2086
79926W        W80790   4.216   1.839   0.374  0.1393 -0.3057  0.0480
79927W        W80791   2.123   1.753  14.419 -0.3961  0.1540  0.0530
79928W        W80792  12.374  22.735   0.385 -0.2048 -0.1126 -0.0765
79929W        W80793  25.766  21.764   1.076 -0.1576  0.0309  0.3775
79930W        W80794  13.979   7.875  26.987 -0.0603  0.2046  0.3331
79931W        W80795  22.182  19.807   6.279  0.1426  0.0895  0.1460
79932W        W80796  13.057  23.514   6.871 -0.1360 -0.1434 -0.0551
79933W        W80797  22.663  10.429  22.465 -0.0104 -0.1102 -0.2323
79934W        W80798   1.587  26.734  10.566  0.0189 -0.1688 -0.1077
79935W        W80799  18.459   9.991  27.821 -0.0636 -0.3367 -0.1403
79936W        W80800   7.084  15.942   4.870 -0.1730 -0.0899 -0.1840
79937W        W80801  28.982  25.683  16.629  0.0422  0.1469 -0.1321
79938W        W80802   9.703  20.036   5.837  0.3035  0.0467  0.2111
79939W        W80803   4.219   5.832   1.440 -0.1061  0.1239 -0.2205
79940W        W80804  24.367  26.661   0.587  0.0098  0.0121  0.0124
79941W        W80805  23.046  13.070   8.598 -0.0318  0.1584 -0.1204
79942W        W80806  13.311  23.192   6.307  0.1799  0.0387  0.2208
79943W        W80807  16.601   3.225   6.730 -0.1979 -0.2397 -0.0717
79944W        W80808  21.746  22.473   2.080  0.0556 -0.2614 -0.0788
79945W        W80809  23.526  20.729  18.229 -0.1035 -0.2494 -0.0880
79946W        W80810  20.450   9.543   3.818  0.1076  0.1208 -0.1078
79947W        W80811  21.869  15.862  19.766 -0.1296  0.2180 -0.0441
79948W        W80812  15.306  25.352  16.037 -0.1608  0.2190 -0.4101
79949W        W80813  16.386  11.194  24.838 -0.1535  0.3116  0.0786
79950W        W80814   2.285   0.050  25.689  0.1076 -0.0284 -0.0124
79951W        W80815   2.667  15.498  23.735  0.2117 -0.1691  0.2023
79952W        W80816   5.320  25.599   4.199  0.1027  0.1990  0.2079
79953W        W80817   2.951   4.486   0.568  0.1343 -0.2751 -0.1012
79954W        W80818  17.563   8.891  11.277  0.2305 -0.2634 -0.1187
79955W        W80819  26.681  19.064  25.147 -0.0638  0.0881  0.2331
79956W        W80820  19.971   8.193  17.424  0.2027  0.2522  0.0427
79957W        W80821   0.817  25.540  28.038  0.1858  0.0282  0.3030
79958W        W80822   4.325   3.228  16.755  0.0988  0.0213  0.0614
79959W        W80823  16.051  19.099  24.229 -0.0633  0.0107 -0.1933
79960W        W80824   3.706   2.598   8.859  0.4074 -0.1696  0.1184
79961W        W80825  16.349  15.401  24.134  0.1394  0.2914 -0.0493
79962W        W80826  26.917   6.081  11.915 -0.4933 -0.0743 -0.0443
79963W        W80827  25.517  19.164  16.872  0.0773 -0.3032 -0.0174
79964W        W80828   0.320   4.070  26.820  0.1639  0.0637 -0.2381
79965W        W80829  14.457   9.991   1.684 -0.3366 -0.2477 -0.0654
79966W        W80830  14.863  14.730   1.214 -0.1408 -0.2930  0.1097
79967W        W80831   4.961  14.638   6.946  0.1533  0.1754  0.1653
79968W        W80832   9.738  24.513  23.557 -0.2722  0.1789  0.2019
79969W        W80833   3.459  25.102   7.421  0.0631 -0.2265 -0.2289
79970W        W80834   5.046  13.006  11.012 -0.2102  0.3662 -0.2916
79971W        W80835  19.540   3.335   7.795 -0.1868 -0.2164 -0.1731
79972W        W80836  26.323  11.747  29.106  0.3656 -0.4941  0.1584
79973W        W80837  19.166  18.061  14.918 -0.1522 -0.0729 -0.1422
79974W        W80838   0.521   9.444  21.518 -0.2310 -0.2204 -0.0367
79975W        W80839  14.802  21.370  13.379 -0.0500 -0.1105 -0.2488
79976W        W80840   3.355   6.361   7.561 -0.1950  0.1118  0.2228
79977W        W80841  12.473   5.116  13.589 -0.0559  0.1878  0.2091
79978W        W80842  18.759   2.376  18.736 -0.0765 -0.0458  0.1713
79979W        W80843   5.720   9.129  26.265 -0.0208 -0.1127 -0.1065
79980W        W80844   7.675  18.024   2.951 -0.3583 -0.0766  0.1283
79981W        W80845  20.292  23.751   4.540  0.3846  0.2042  0.1956
79982W        W80846  21.238  13.255   9.812 -0.0242 -0.0554  0.2450
79983W        W80847  19.445  14.680  29.038  0.1129  0.0758  0.0614
79984W        W80848   2.824  18.805  13.652  0.1272  0.0802  0.1055
79985W        W80849  16.692  25.160  23.498 -0.1603  0.1842  0.2418
79986W        W80850  17.223  15.954  27.960 -0.2419  0.3383  0.1229
79987W        W80851   6.542  14.034   5.251 -0.1449  0.0590 -0.2227
79988W        W80852  18.607  16.842   3.734  0.0456 -0.0102 -0.0458
79989W        W80853  28.464  21.377   2.995  0.0951 -0.2254  0.1231
79990W        W80854   8.872   8.950   2.990 -0.0703 -0.1512 -0.0139
79991W        W80855  24.941  15.467   7.869  0.0277  0.2048  0.2298
79992W        W80856  19.866   1.630  13.540 -0.0695  0.0446  0.0410
79993W        W80857   6.081   3.553  12.270 -0.4796 -0.2494  0.2565
79994W        W80858  17.964  19.601  22.291  0.3515  0.2310  0.0839
79995W        W80859  20.691   0.255  15.490  0.1371  0.0673  0.0467
79996W        W80860   4.140   1.468  27.163  0.2250 -0.0901 -0.1689
79997W        W80861  15.122   9.279  18.075 -0.0202 -0.0977 -0.1358
79998W        W80862  21.856  22.886   7.586 -0.0646  0.0948 -0.0145
79999W        W80863  25.574  10.192   7.044  0.0699 -0.2857 -0.1802
80000W        W80864   5.636   4.751   1.635  0.1251  0.0512  0.1720
80001W        W80865  26.480  28.758  22.550 -0.3728  0.0576 -0.0035
80002W        W80866  14.646  15.681   3.657 -0.0062  0.1351  0.2302
80003W        W80867   4.706   2.638   5.261 -0.0470  0.1754 -0.1235
80004W        W80868  14.913  26.202  15.991 -0.0174 -0.1539 -0.0182
80005W        W80869   1.822   1.019   7.358  0.0465 -0.2236 -0.2163
80006W        W80870   0.745  20.735   9.394 -0.1984  0.1176 -0.0483
80007W        W80871  15.850  26.367   2.143  0.0696 -0.2382  0.0299
80008W        W80872   8.259  11.510  25.002  0.0656  0.2152 -0.0517
80009W        W80873  24.292   3.933  26.024  0.0937 -0.1196  0.1122
80010W        W80874  24.799   4.633  13.379 -0.2322 -0.3695 -0.3845
80011W        W80875  17.150   2.560  13.119 -0.1112 -0.0463 -0.3528
80012W        W80876   0.914   9.908   6.681 -0.1178  0.0933  0.2047
80013W        W80877  13.219   8.304  18.237 -0.0160 -0.1256  0.0240
80014W        W80878  25.077  21.290   0.357  0.1299  0.0940  0.0413
80015W        W80879  21.416   7.235   7.408  0.0764  0.0219  0.3431
80016W        W80880  25.143  12.909   1.653  0.3303 -0.2053  0.0250
80017W        W80881  24.740   6.958  11.613 -0.1044  0.1814  0.2870
80018W        W80882   4.936   2.546  16.502  0.1431  0.0522  0.1886
80019W        W80883  15.410   9.097   1.732 -0.2959  0.1714  0.1128
80020W        W80884  10.021  18.997  15.902 -0.4142  0.1668 -0.1700
80021W        W80885  28.108   8.170   6.709  0.0377 -0.0793  0.1209
80022W        W80886  28.649   6.925  27.007  0.2624 -0.3359  0.4160
80023W        W80887  25.337   0.741   0.813  0.1181  0.1875  0.2980
80024W        W80888  20.683  28.336   5.348 -0.1076 -0.1306  0.0324
80025W        W80889   4.566  24.924   3.990 -0.2553  0.2037  0.0681
80026W        W80890  24.668   1.802  21.939  0.0282 -0.2490 -0.1580
80027W        W80891   1.742  11.196   2.433  0.0286  0.0009 -0.0086
80028W        W80892   9.845   4.426   1.276  0.0709  0.1777 -0.3330
80029W        W80893  18.268  14.728   2.560 -0.1770 -0.2309 -0.1221
80030W        W80894   5.175  28.240  11.139 -0.0298 -0.0553  0.0391
80031W        W80895   2.683   3.878  20.473  0.1203 -0.0252  0.0008
80032W        W80896  20.328  14.342  20.365 -0.0579  0.3272 -0.1911
80033W        W80897  14.723  19.669  27.499 -0.1350 -0.0335  0.1468
80034W        W80898   2.018   9.035   8.369  0.1004  0.0212 -0.3339
80035W        W80899   4.915  29.005  25.642 -0.2798 -0.1746  0.2544
80036W        W80900  28.406   4.600  24.837 -0.1187  0.0194 -0.2442
80037W        W80901  26.216  19.981  12.981  0.2473 -0.2418 -0.0654
80038W        W80902  26.401  10.422  14.569 -0.2110  0.0502 -0.1806
80039W        W80903  19.595   1.540  10.810 -0.0696 -0.1792 -0.5219
80040W        W80904   1.221   2.941  28.758  0.1709 -0.4496  0.0616
80041W        W80905  19.693   8.100  19.809 -0.0406  0.2169  0.0518
80042W        W80906  27.419  24.063   2.120 -0.1363 -0.1532  0.0771
80043W        W80907   7.200   7.693   5.205  0.1997 -0.0028 -0.0200
80044W        W80908  26.709  22.224   3.709 -0.0444  0.2096  0.2231
80045W        W80909  28.788   2.621  11.310  0.2184 -0.1048  0.0092
80046W        W80910   2.087  16.706   5.865  0.2845  0.0253 -0.0690
80047W        W80911   4.835  26.315  21.032 -0.1651  0.3343 -0.1670
80048W        W80912  14.172  15.316  23.848 -0.2915 -0.2666  0.1882
80049W        W80913   7.295  20.665   3.333  0.1376 -0.2104  0.0366
80050W        W80914  24.950  26.662  16.371  0.0098 -0.0625 -0.1641
80051W        W80915  17.060  15.773   7.221  0.2916 -0.1177  0.1111
80052W        W80916   0.675   5.317   3.991 -0.3654 -0.0905 -0.0145
80053W        W80917  27.515  25.156  25.157  0.1096 -0.0148 -0.0210
80054W        W80918   4.157  28.330   9.424 -0.2010 -0.0755 -0.2333
80055W        W80919  19.267   9.841  14.460  0.1257  0.0783  0.0304
80056W        W80920   4.514   6.512   4.784  0.2425  0.4920 -0.0641
80057W        W80921  20.298  28.235  15.324 -0.1896 -0.0892  0.1288
80058W        W80922   2.011   5.219   8.093  0.0291  0.0132 -0.2470
80059W        W80923  19.934  15.921  18.348  0.2063  0.1861  0.1964
80060W        W80924  26.321  23.843  15.087 -0.0390  0.4503 -0.0308
80061W        W80925   9.264  28.814   5.551  0.1765 -0.1351 -0.0237
80062W        W80926  22.997  11.664  27.978 -0.0653  0.0546  0.1336
80063W        W80927  20.975  24.927  24.548 -0.1316  0.0208  0.3644
80064W        W80928   3.339   3.101  27.270 -0.1603 -0.0798  0.3833
80065W        W80929  27.948   8.370  19.199  0.0477 -0.3057  0.0879
80066W        W80930  15.579   7.885  24.541  0.0834  0.1976  0.0053
80067W        W80931  19.499   0.234   2.265 -0.1224  0.0301  0.0510
80068W        W80932  15.925  13.759  24.176 -0.0704 -0.0069  0.0729
80069W        W80933  24.136  13.270   6.392 -0.1216  0.1660  0.1145
80070W        W80934   6.458   4.727   6.920 -0.1757  0.0317 -0.0587
80071W        W80935   8.899   1.291  11.307  0.2439  0.0413 -0.1028
80072W        W80936  26.355  23.056  18.072  0.0169 -0.0278  0.2140
80073W        W80937   2.929  22.462  27.097  0.1999 -0.0943  0.0816
80074W        W80938   0.829   2.475  24.127  0.0724  0.1687  0.0743
80075W        W80939  21.661  13.990  12.110 -0.2445 -0.0071 -0.0559
80076W        W80940  24.666  19.376  15.601 -0.2110 -0.1362 -0.2269
80077W        W80941   9.978  26.295   2.128 -0.3333  0.2039 -0.3175
80078W        W80942  29.122  15.146   9.980  0.2594 -0.0307  0.1247
80079W        W80943   4.944   4.055  27.394  0.2368  0.2551  0.0431
80080W        W80944   9.483  22.841  21.043 -0.0541  0.0850  0.1587
80081W        W80945  16.872   2.800  11.760 -0.2745  0.2171  0.0283
80082W        W80946  27.209  28.061   2.913 -0.1455 -0.1342  0.2325
80083W        W80947  15.814   3.146   8.968 -0.4208 -0.0709 -0.2388
80084W        W80948  12.323   4.547  11.298  0.3913 -0.0120  0.1663
80085W        W80949  19.695  25.633  27.376  0.1912  0.2833 -0.2076
80086W        W80950  16.053  26.605  16.748 -0.1321 -0.1599 -0.1060
80087W        W80951  18.158  14.150  15.477 -0.2165  0.1051  0.0928
80088W        W80952  21.033   1.024   2.658  0.0729  0.2672  0.0135
80089W        W80953   5.957  27.170  17.770 -0.1088 -0.4011 -0.0526
80090W        W80954   5.533  17.306   3.226  0.2087  0.1697 -0.0346
80091W        W80955  15.323   6.814  16.619 -0.0726 -0.1421 -0.0140
80092W        W80956  24.386  22.006   0.452  0.2645  0.0570 -0.2656
80093W        W80957  19.673   7.065  28.025 -0.3333  0.0838 -0.0291
80094W        W80958   2.026   4.901  18.642  0.3848  0.2582 -0.4589
80095W        W80959  28.787  28.153   4.375 -0.0757  0.4233  0.0421
80096W        W80960  12.066   1.000  11.069 -0.0178 -0.1141  0.1129
80097W        W80961   2.280  24.912   8.985  0.2373 -0.5559  0.2368
80098W        W80962  22.461   7.211  12.110 -0.3835 -0.2513 -0.2256
80099W        W80963  28.681   5.151  25.954  0.1090  0.0371 -0.0103
80100W        W80964  23.122  13.127  11.996 -0.2083  0.1887 -0.0803
80101W        W80965  22.284  27.264   3.755  0.4261 -0.0512  0.0179
80102W        W80966  16.298   4.947  17.354 -0.0779 -0.1871 -0.0077
80103W        W80967   0.359  28.520   0.606 -0.1918 -0.0732 -0.1202
80104W        W80968  12.254  17.689   1.874 -0.0849 -0.0681  0.2368
80105W        W80969   3.740  23.381  23.388 -0.0146  0.0519 -0.0721
80106W        W80970   2.195  28.412   7.212 -0.1454 -0.0801 -0.0603
80107W        W80971  20.832  26.882  11.313 -0.1961 -0.0865  0.2469
80108W        W80972  29.050   2.179  11.568  0.0829 -0.0042  0.1834
80109W        W80973   1.571   8.866  14.558  0.0822  0.3069  0.0171
80110W        W80974  27.242  10.508   7.736 -0.0595 -0.2218 -0.0113
80111W        W80975  27.310  22.577   3.157  0.2071  0.2080  0.2347
80112W        W80976   9.516   6.118  10.848  0.2851  0.2659 -0.1834
80113W        W80977   1.248  27.384  19.276 -0.2114 -0.0142  0.1767
80114W        W80978  24.015  29.087  19.620 -0.1694 -0.2047 -0.0338
80115W        W80979  15.722   0.677  12.097  0.1449  0.3013  0.0628
80116W        W80980  17.978  25.666   1.027 -0.0404 -0.1177 -0.1831
80117W        W80981  15.529  24.223  19.270  0.1719 -0.0730  0.1925
80118W        W80982  15.459  20.714   8.779 -0.0603 -0.0231  0.1554
80119W        W80983  26.540  18.106   3.126 -0.1922  0.0250 -0.0570
80120W        W80984   2.650   2.775  12.444 -0.2793  0.0589 -0.0173
80121W        W80985  12.636   8.363   8.226  0.0581  0.1123  0.3965
80122W        W80986  21.848  11.479  25.459  0.1472  0.0003  0.2994
80123W        W80987  12.016  16.138   2.830  0.1048  0.0002  0.2064
80124W        W80988  16.769  28.522   9.494 -0.3836  0.0208 -0.1144
80125W        W80989  18.769  10.699  14.555  0.0132  0.3311  0.2090
80126W        W80990   6.415   2.142   5.566  0.3226 -0.4090 -0.1485
80127W        W80991  16.715  23.543  28.788  0.1433 -0.1415  0.2076
80128W        W80992  27.606  24.177  25.853 -0.0528  0.0007 -0.0760
80129W        W80993  28.468   9.434   6.763  0.3015 -0.2499 -0.1662
80130W        W80994  11.031   9.641  21.846 -0.4295  0.0138  0.3215
80131W        W80995  20.671   1.522  19.153 -0.1561 -0.0880 -0.0458
80132W        W80996  26.942  23.291  24.429 -0.1104  0.0563  0.3004
80133W        W80997  15.823  25.596  20.500  0.0221 -0.1291  0.2776
80134W        W80998   2.638  17.589  19.287 -0.4434  0.1496  0.0744
80135W        W80999  27.589  18.256  15.795 -0.1504  0.0915  0.0152
80136W        W81000  23.073  20.933   0.581 -0.1929  0.3740  0.0697
80137W        W81001  14.521   5.401   8.764  0.0604 -0.0709 -0.2480
80138W        W81002  28.440  20.350   9.928 -0.0382 -0.0291  0.2681
80139W        W81003  26.091  13.217   8.710  0.1178 -0.2073 -0.2286
80140W        W81004  22.409   3.916   6.130  0.2242 -0.0792  0.2623
80141W        W81005  21.245  11.148   8.497 -0.0698  0.2051  0.0200
80142W        W81006  21.219  19.898  12.376  0.1747  0.1762  0.1430
80143W        W81007   1.805   3.765  12.075  0.1071  0.0183  0.1300
80144W        W81008   5.609   4.154   0.979  0.3134  0.0268 -0.0731
80145W        W81009  14.472   3.265  17.153 -0.0334  0.2301  0.3025
80146W        W81010   3.883  27.118  15.679  0.3502  0.0503 -0.1526
80147W        W81011  26.648   8.139   1.592  0.1717  0.0715  0.4222
80148W        W81012   9.653   9.795   5.511  0.0234  0.2779  0.1926
80149W        W81013  22.998  13.845  19.090 -0.3442  0.1722 -0.1071
80150W        W81014  23.790  27.792  28.361  0.2647  0.1010 -0.2090
80151W        W81015  25.922   1.412   3.211  0.2021  0.4750  0.1340
80152W        W81016  23.846   1.255  22.281  0.0472 -0.0561  0.1868
80153W        W81017  27.615  15.034  16.770 -0.0407  0.2475  0.0153
80154W        W81018  24.935  18.796  15.003 -0.0638 -0.0417  0.0363
80155W        W81019  16.008  14.420  22.452  0.0779 -0.2031  0.1784
80156W        W81020   5.380  21.100  22.156 -0.2569 -0.0901 -0.1037
80157W        W81021   7.489   0.234  12.096 -0.1190 -0.3238 -0.0918
80158W        W81022  26.899   6.892   8.942 -0.0514 -0.1976  0.3903
80159W        W81023  24.045  18.321   2.679  0.1104 -0.3241  0.2504
80160W        W81024  17.084  24.966  14.463 -0.0689  0.0149  0.1995
80161W        W81025  19.483  23.249  15.158 -0.2096  0.0260 -0.2840
80162W        W81026  17.798   0.004  25.782  0.1808  0.4326  0.0647
80163W        W81027  11.822  28.325   3.012 -0.0144  0.2196 -0.1544
80164W        W81028   1.910   7.075  24.106 -0.2910 -0.0081 -0.0883
80165W        W81029   3.038  25.470  28.817  0.0764  0.2489 -0.1083
80166W        W81030   9.111  12.447  28.229 -0.2571  0.1402  0.1317
80167W        W81031   2.063   4.756   5.424 -0.1635 -0.2844 -0.1048
80168W        W81032   6.092  14.393  15.175  0.1953 -0.0088  0.0265
80169W        W81033  12.545  22.125   4.273 -0.3472 -0.0474 -0.2096
80170W        W81034  12.315   5.935  28.030 -0.0594  0.0847  0.1899
80171W        W81035   1.787  22.915   8.071  0.3357  0.2733 -0.3563
80172W        W81036  28.447   0.834  27.844 -0.0554 -0.1952  0.1498
80173W        W81037  12.254  23.940   0.467  0.1928  0.0511 -0.2214
80174W        W81038  17.827  28.544   8.577 -0.0526  0.0836 -0.3707
80175W        W81039  10.072   8.933   7.505 -0.1850  0.0641 -0.1253
80176W        W81040  25.919  18.490  26.804 -0.3795  0.0683  0.0041
80177W        W81041  27.987   8.609   1.835  0.0073  0.0542  0.0599
80178W        W81042  14.162  24.646   9.577 -0.0934 -0.1679 -0.1841
80179W        W81043  19.178  27.618  13.227  0.1788 -0.0609 -0.0774
80180W        W81044  12.999   4.271  10.601  0.0176  0.1681 -0.0193
80181W        W81045  28.876   6.340   4.128  0.0302  0.0035 -0.1682
80182W        W81046   8.118  10.105  19.055 -0.0514 -0.0977  0.1113
80183W        W81047   3.176   0.815  18.226 -0.1702 -0.0334 -0.0713
80184W        W81048  25.100   5.583  24.979 -0.1294  0.0014 -0.2656
80185W        W81049  22.079   8.415   0.129 -0.0216  0.1278  0.3041
80186W        W81050  26.683  21.577   5.031  0.1771  0.1486  0.0624
80187W        W81051  23.648  25.620   7.823  0.1866  0.2102  0.2089
80188W        W81052  29.129   3.130  13.023 -0.1986  0.2889  0.1065
80189W        W81053   7.271  24.559  11.026  0.0481  0.1797  0.3490
80190W        W81054  12.582  17.467  26.599 -0.2009  0.0842 -0.3057
80191W        W81055  27.133  15.533  20.790 -0.1407  0.2825 -0.3100
80192W        W81056   0.563  21.940   3.484 -0.2073 -0.0736  0.0636
80193W        W81057   2.669  18.172  14.207 -0.0913  0.0374  0.1731
80194W        W81058  11.027  10.411   9.993  0.0711  0.1472  0.0653
80195W        W81059   1.381  17.392   7.588 -0.0981 -0.0061  0.2367
80196W        W81060   5.288   0.854   5.342 -0.1407  0.2438  0.4006
80197W        W81061   5.413  22.241   7.704 -0.0761 -0.0327  0.0067
80198W        W81062  27.504   4.298   1.885  0.0320 -0.1725 -0.1966
80199W        W81063   6.411   7.138   7.830  0.2975 -0.0182  0.0123
80200W        W81064  27.000   5.596  21.720  0.0473 -0.0364 -0.0592
80201W        W81065  27.585   8.243   8.219 -0.0110 -0.2514 -0.4124
80202W        W81066   6.796  27.026  15.616  0.1845 -0.0883  0.0720
80203W        W81067  12.761  18.147  23.746  0.2138 -0.2353 -0.0105
80204W        W81068  21.065  21.559  22.053  0.0352  0.1009 -0.0112
80205W        W81069   1.256   2.267  27.005  0.3858 -0.1857 -0.0898
80206W        W81070   1.095   3.975   4.859 -0.0965 -0.3761  0.1766
80207W        W81071  16.129   7.650   4.621 -0.0487  0.0058  0.1235
80208W        W81072  11.732   1.693   8.235 -0.1463 -0.2450  0.1060
80209W        W81073  18.324  27.753   8.404 -0.4508 -0.4526  0.2227
80210W        W81074   4.798   8.069  27.971  0.1358 -0.2526 -0.2402
80211W        W81075   1.025  28.083   6.139  0.1766  0.3481  0.0111
80212W        W81076  16.435   8.367   2.914  0.0575 -0.3866 -0.0366
80213W        W81077  24.695  23.845  20.779 -0.0384 -0.2677  0.1072
80214W        W81078   6.891  20.734   6.275  0.1423  0.0902 -0.1205
80215W        W81079   2.529  20.823   9.747 -0.0096  0.0481 -0.1302
80216W        W81080  25.679   7.797  20.017 -0.2527  0.2203 -0.1896
80217W        W81081  18.580  29.138  26.453  0.3121  0.0293 -0.1407
80218W        W81082  19.489  24.262   9.996 -0.1168 -0.2844 -0.1135
80219W        W81083  12.578   6.769  16.301 -0.0351 -0.0276  0.0369
80220W        W81084   1.939  26.015  16.262 -0.1372  0.0281 -0.1184
80221W        W81085  26.230  27.355  11.613  0.0468  0.2616 -0.0594
80222W        W81086  18.431  28.436  10.420  0.2945 -0.2030  0.0396
80223W        W81087  13.848  12.680  18.844 -0.0626 -0.2159 -0.0461
80224W        W81088  10.895   2.739   9.636  0.1159 -0.0350 -0.1172
80225W        W81089   9.378  24.782  11.540  0.1094  0.0028  0.0462
80226W        W81090  28.372  13.228  15.914 -0.3134  0.1660 -0.3856
80227W        W81091  24.345   3.525  15.743  0.0330 -0.1026  0.0764
80228W        W81092   9.822   2.418  28.609  0.1880  0.0403  0.2220
80229W        W81093  23.385  22.714   9.414 -0.2030  0.3427  0.2474
80230W        W81094  12.007  13.460   3.865  0.0494 -0.3757  0.3153
80231W        W81095  21.132  13.621   3.926  0.1517  0.0516 -0.4409
80232W        W81096   1.993  13.191  17.769  0.0919 -0.2095 -0.0079
80233W        W81097  13.889  11.570  22.408 -0.1544 -0.0192 -0.0613
80234W        W81098  21.883   2.054   2.886  0.0672 -0.1026  0.0902
80235W        W81099  29.043  24.416  25.404  0.0527 -0.0689 -0.0651
80236W        W81100  18.235  10.511   2.497 -0.2096 -0.1649 -0.1034
80237W        W81101  13.739   8.039   5.654 -0.1761 -0.0812  0.1718
80238W        W81102  19.970  23.444   1.026  0.1414 -0.0179  0.0644
80239W        W81103  27.245  22.802  18.498  0.1661  0.1547 -0.0724
80240W        W81104  24.974  16.787  20.186 -0.0970  0.1472  0.0345
80241W        W81105   8.980  25.413   1.731  0.4392  0.1377 -0.1447
80242W        W81106  17.197  11.739  19.211 -0.0528 -0.1465 -0.1251
80243W        W81107   4.898  28.861  11.286 -0.1155  0.2604  0.0696
80244W        W81108  27.432  26.040   5.662 -0.0837  0.0638  0.3183
80245W        W81109  15.156  16.281  12.770 -0.1763 -0.1622 -0.1296
80246W        W81110   0.268  24.692  16.279 -0.3894 -0.1537 -0.0258
80247W        W81111  17.532  22.048   5.840 -0.2879 -0.0013  0.0049
80248W        W81112   1.179   9.569   7.983  0.2557 -0.0129 -0.3585
80249W        W81113  27.900   2.896  19.527 -0.0909 -0.0672 -0.1223
80250W        W81114  11.340   9.804  12.962  0.0705  0.2462 -0.2783
80251W        W81115  11.216  18.619  19.735 -0.4573  0.2555 -0.1020
80252W        W81116  12.357   5.457  10.021 -0.0786 -0.1088 -0.0021
80253W        W81117   6.692  11.632  12.351  0.2081 -0.2579  0.0869
80254W        W81118  25.377   6.338  17.215 -0.2157 -0.0485 -0.0386
80255W        W81119  10.926   4.774  14.301  0.0083 -0.3979 -0.3661
80256W        W81120   4.744   0.394  16.007 -0.1326 -0.2275 -0.0417
80257W        W81121  10.457   7.951   3.106 -0.2733 -0.1455  0.4050
80258W        W81122  20.748  23.599  12.784  0.0258  0.0373 -0.1191
80259W        W81123   1.964   8.232  14.865 -0.0837 -0.0865 -0.2818
80260W        W81124  15.830  10.913  11.915  0.1244 -0.0379  0.2083
80261W        W81125   7.901  11.955  28.663 -0.2087 -0.1318 -0.0179
80262W        W81126   9.605  23.591  20.223 -0.2209 -0.4792 -0.0849
80263W        W81127   3.654  21.653  20.093  0.0142 -0.0524 -0.4337
80264W        W81128   2.853  25.879  10.927  0.0430  0.1323  0.3627
80265W        W81129   6.105   8.257  15.552  0.1263 -0.2020  0.1359
80266W        W81130   8.205  15.234   9.325 -0.0403 -0.0773 -0.1829
80267W        W81131  20.554   2.977   8.499 -0.1058 -0.1500  0.0001
80268W        W81132  19.290   1.965   1.290  0.3493 -0.2477 -0.1666
80269W        W81133  25.911   1.210  12.581 -0.0726 -0.0223 -0.0131
80270W        W81134  26.313  21.699  13.650 -0.0769 -0.0439 -0.2648
80271W        W81135  25.460  16.706  21.231  0.0947 -0.0409 -0.1484
80272W        W81136  14.046  14.107   8.501 -0.0822  0.2850 -0.0876
80273W        W81137   2.682  10.706   2.764  0.3512  0.0040 -0.3610
80274W        W81138  25.911  14.583   3.613 -0.1073 -0.2553  0.0677
80275W        W81139  16.843   2.770  22.116  0.0615  0.1842 -0.0424
80276W        W81140  28.543   6.933   6.158 -0.0793 -0.4075 -0.1052
80277W        W81141   3.907  23.341  18.387  0.0745  0.0577 -0.0189
80278W        W81142   1.637  28.180   1.535 -0.2605  0.1916 -0.2263
80279W        W81143  11.101  19.198   7.328  0.2584 -0.0562  0.3732
80280W        W81144  19.486   6.090   8.833  0.1609 -0.1201 -0.2258
80281W        W81145  11.224  15.783   1.599  0.1888 -0.0172  0.2174
80282W        W81146  23.069  18.091  22.965 -0.1976 -0.0941 -0.0559
80283W        W81147  21.214  19.416  23.921  0.1109  0.2570 -0.1277
80284W        W81148  20.359  11.986  20.164 -0.0352 -0.0036  0.0663
80285W        W81149  24.599  20.976  17.529  0.0568  0.2527 -0.3162
80286W        W81150  25.531  23.871  11.231  0.0953 -0.2109  0.1256
80287W        W81151  23.711  13.184   7.407 -0.2095 -0.4249  0.0744
80288W        W81152  11.551  20.675  26.883 -0.0366  0.0548 -0.0752
80289W        W81153  11.809  12.598  21.596  0.0058 -0.0531  0.0363
80290W        W81154   9.314   1.165  22.263  0.1811 -0.2921  0.0555
80291W        W81155  15.312  15.212   4.300  0.0357  0.0878 -0.0415
80292W        W81156  17.491  24.049  11.328 -0.0690  0.0956  0.1135
80293W        W81157   6.324  24.944   4.501 -0.1325 -0.1481  0.2514
80294W        W81158   0.190  14.360  17.459  0.2061  0.2836 -0.0284
80295W        W81159  20.717   1.001  21.273  0.1357 -0.0907 -0.0886
80296W        W81160   5.576   3.817  26.770  0.2766  0.2494  0.1108
80297W        W81161  19.950  10.896  13.897 -0.0507  0.1799  0.0776
80298W        W81162  28.932  18.257   2.774  0.0548  0.0886 -0.2451
80299W        W81163   1.401  27.180  11.350  0.1179 -0.2160 -0.0294
80300W        W81164  24.225  20.997  21.386 -0.2315  0.0261  0.2735
80301W        W81165   8.898  20.037  12.997 -0.3280 -0.0537  0.0811
80302W        W81166  11.510   2.898  11.069 -0.1209  0.1422  0.2735
80303W        W81167  19.636   1.355  15.131  0.0078 -0.1078  0.0650
80304W        W81168   8.686   6.610  15.771 -0.0199  0.0224 -0.2395
80305W        W81169   5.237   5.313  13.007 -0.0621  0.0628  0.2441
80306W        W81170  19.449  27.524  21.655 -0.2399  0.1823  0.0448
80307W        W81171  26.646  14.472  23.593 -0.1304 -0.0532 -0.0321
80308W        W81172   7.287  28.086  26.014  0.0192 -0.0545 -0.0297
80309W        W81173   1.187  16.608  27.290 -0.1147 -0.2237 -0.1537
80310W        W81174  16.736  24.503  21.210  0.3250 -0.0609 -0.1364
80311W        W81175  19.930   9.910   3.741 -0.1412 -0.2724 -0.1236
80312W        W81176   5.467  26.928  15.015  0.0309 -0.1796  0.1292
80313W        W81177  11.237  11.436   1.339 -0.3010  0.3878 -0.1589
80314W        W81178  11.278   6.861   5.024 -0.2160  0.1181 -0.0875
80315W        W81179  22.560  20.657   9.935 -0.1443 -0.4654  0.2878
80316W        W81180   4.657  21.486   2.923  0.0677  0.3409 -0.0333
80317W        W81181  22.057   5.086   4.743  0.1290 -0.0204  0.2424
80318W        W81182  15.958   5.868  20.522  0.3114 -0.0079  0.1607
80319W        W81183  24.619  21.621  15.922  0.0469 -0.1178 -0.1537
80320W        W81184   6.796  18.003   5.793  0.1352 -0.1772 -0.2545
80321W        W81185   7.556  24.355   0.426  0.0146  0.1322 -0.0440
80322W        W81186   8.880  23.095  11.425 -0.0957  0.0559 -0.0665
80323W        W81187   7.415  26.035  28.770  0.2790 -0.2342  0.0101
80324W        W81188   0.399  28.948  16.476  0.0504 -0.1200 -0.1022
80325W        W81189  23.484  12.714  12.073  0.0131 -0.0827 -0.2206
80326W        W81190  28.611   6.520   5.911  0.2224 -0.0570  0.1569
80327W        W81191   5.581  11.939  15.884  0.1504  0.0254 -0.3437
80328W        W81192  21.394  21.395  10.922 -0.0368  0.1506  0.0265
80329W        W81193  24.049   9.736  24.158 -0.0242  0.0184 -0.1486
80330W        W81194  22.085  25.750  11.485 -0.3540 -0.0844 -0.0040
80331W        W81195   3.846   4.037  17.807  0.0381 -0.1447  0.1683
80332W        W81196  24.821   3.812  21.289 -0.0325 -0.1723 -0.0079
80333W        W81197  25.107   1.427   8.175  0.2177  0.0912 -0.3270
80334W        W81198  24.949  18.461   3.267  0.1901  0.0545 -0.1310
80335W        W81199  16.400   7.183  12.128  0.0148  0.0612  0.1142
80336W        W81200  18.354   8.307   0.839  0.0953 -0.1537 -0.1614
80337W        W81201  17.770   3.752  20.058  0.0499  0.0982  0.2699
80338W        W81202  13.802  17.982   2.654 -0.0177 -0.0151  0.0624
80339W        W81203  16.839  26.327  24.993  0.2410 -0.0310 -0.0598
80340W        W81204  26.791  28.409  12.763  0.1421 -0.2526  0.1641
80341W        W81205  25.748  21.920   6.013  0.2057  0.0756 -0.1306
80342W        W81206   6.693  24.046  14.465  0.2532 -0.3744  0.0149
80343W        W81207  25.137  28.842   2.720  0.1528 -0.0094 -0.0768
80344W        W81208   7.147   0.068   6.705 -0.0426  0.0554 -0.0009
80345W        W81209  28.010  21.601  20.895 -0.0066 -0.0811 -0.0034
80346W        W81210   0.734  12.935   6.417 -0.2654  0.0608  0.0131
80347W        W81211   0.705   5.988  26.773 -0.0790 -0.2855  0.1087
80348W        W81212   4.476  12.179  27.175 -0.0573 -0.0147 -0.3828
80349W        W81213  13.659  14.122   5.356 -0.0504 -0.4404 -0.0983
80350W        W81214   0.997   5.254  11.013 -0.0286 -0.1123 -0.1101
80351W        W81215   2.431  23.938  25.026  0.0439  0.0137 -0.0403
80352W        W81216  12.075  21.722  25.900 -0.2131  0.0718  0.3870
80353W        W81217   5.572   6.320  25.777  0.1213  0.1147  0.0420
80354W        W81218   0.410  19.153   9.922  0.1295 -0.1354 -0.0002
80355W        W81219  26.623  26.971  11.411  0.0647 -0.1060  0.0028
80356W        W81220  28.118  15.940   3.847 -0.0984 -0.2372 -0.0220
80357W        W81221   8.663  21.826   2.951  0.3935  0.0106  0.1909
80358W        W81222  14.581   5.176  16.652  0.0834  0.0845  0.1820
80359W        W81223  14.147  25.244   8.838 -0.3448  0.0666 -0.2007
80360W        W81224   7.495  12.460   7.133  0.0177 -0.0667  0.2069
80361W        W81225  10.858   8.247  14.152  0.0968  0.0746  0.3612
80362W        W81226   6.871  25.384   3.249  0.2184 -0.3471 -0.1503
80363W        W81227  28.225  12.400  13.125  0.2046 -0.0954  0.2283
80364W        W81228  10.905   8.993  19.839  0.0486  0.1340 -0.1956
80365W        W81229   4.564   9.951  27.293 -0.1035 -0.0021 -0.0119
80366W        W81230  21.055  16.524  13.693  0.2158  0.0820  0.1078
80367W        W81231  10.551   5.499  12.355 -0.0656  0.0969 -0.1046
80368W        W81232  15.351  10.971  11.799  0.2795  0.0167  0.0245
80369W        W81233   4.085  27.090   7.473  0.1106  0.2181  0.0551
80370W        W81234  17.373  16.415   9.244  0.2507 -0.1503 -0.0184
80371W        W81235  12.106  22.321   9.341 -0.3730 -0.0081  0.0306
80372W        W81236   0.322   8.943  15.476 -0.3779 -0.2289 -0.0528
80373W        W81237   8.078  21.402  11.579 -0.0171 -0.3804 -0.0471
80374W        W81238  18.178  26.621  26.586  0.0810  0.1428 -0.1854
80375W        W81239   3.719  19.840  16.387  0.1831  0.1241 -0.1344
80376W        W81240  18.688  11.664   8.610 -0.1144 -0.3178 -0.0590
80377W        W81241   5.968  17.774  17.075  0.0687  0.1169 -0.2144
80378W        W81242  10.672  25.977   7.181 -0.1388  0.0585 -0.0276
80379W        W81243  22.525   1.329  15.956  0.3325  0.0774  0.0642
80380W        W81244   3.694  11.308   8.098 -0.0497  0.0124 -0.0075
80381W        W81245  27.365  16.974  14.944  0.1267 -0.0169  0.0175
80382W        W81246  16.897  16.088   9.895  0.1145 -0.2049  0.0055
80383W        W81247   6.860   7.513  14.574  0.0080  0.3798  0.0186
80384W        W81248  14.074  19.683   1.107  0.0735 -0.0183 -0.0263
80385W        W81249  18.235  26.101  13.764  0.1863 -0.0244 -0.0469
80386W        W81250  26.100   5.639  12.918  0.1714 -0.1558  0.0619
80387W        W81251  17.420  13.242   6.265  0.0901  0.0711  0.0905
80388W        W81252  28.173   6.696  13.133  0.0617  0.3019  0.0875
80389W        W81253  18.454  22.971  19.282 -0.0965  0.2063 -0.1886
80390W        W81254   0.531   4.500  24.617 -0.2067  0.3562 -0.1104
80391W        W81255  23.556  25.776   0.434 -0.2182 -0.2298 -0.0591
80392W        W81256   5.273  28.569   0.641 -0.0351 -0.2159 -0.1322
80393W        W81257  27.367  27.305   0.771 -0.2049 -0.1100  0.0067
80394W        W81258   1.385  21.096  10.292 -0.2458  0.1452 -0.1032
80395W        W81259  26.269  17.553  20.065 -0.1212  0.2790 -0.1283
80396W        W81260   3.135   0.104   0.256  0.0892  0.1047 -0.1652
80397W        W81261   3.260  18.486   3.171 -0.0326 -0.0156 -0.0005
80398W        W81262  27.293   3.447   8.649 -0.0287 -0.0207 -0.0782
80399W        W81263   9.186  28.781   7.479 -0.3506 -0.0745 -0.2012
80400W        W81264  20.793   3.130   4.908  0.3519  0.1758 -0.3614
80401W        W81265   3.125   6.562  13.509 -0.1401  0.0205 -0.0594
80402W        W81266  27.553  10.767  27.141  0.0026  0.1710 -0.1237
80403W        W81267  19.494   7.108  10.437  0.2446  0.1075 -0.1649
80404W        W81268  22.263   7.906   4.566  0.1438  0.1795 -0.0748
80405W        W81269   0.014   5.355   2.199 -0.0525  0.0342 -0.1636
80406W        W81270  15.831  22.175  12.658  0.2061 -0.1821  0.1767
80407W        W81271   0.596   7.474  15.842 -0.2361  0.1774  0.0328
80408W        W81272  21.153  16.722  10.520 -0.2761  0.0047 -0.0473
80409W        W81273  27.466  13.356  15.492  0.1593 -0.2768 -0.1264
80410W        W81274  12.238  26.081   0.578  0.1248  0.2502  0.1695
80411W        W81275   2.666   3.562  11.250 -0.4881  0.3846 -0.1175
80412W        W81276   8.146   6.730  17.456 -0.2107  0.2532  0.2949
80413W        W81277  17.487  17.255  18.552 -0.2729 -0.0235  0.3445
80414W        W81278  25.460   2.509   3.231  0.0050  0.0927 -0.0390
80415W        W81279   4.295  25.026  19.582 -0.3282  0.0898 -0.0721
80416W        W81280  23.637  23.295  16.594 -0.2130 -0.0295  0.3662
80417W        W81281  15.269   4.308  24.241 -0.3064  0.1078 -0.1154
80418W        W81282  13.313  15.748   8.615  0.1217 -0.1530  0.2289
80419W        W81283  22.063  28.881  12.053  0.3831  0.2652  0.4005
80420W        W81284  28.370   6.994   4.579  0.1350  0.0541  0.3582
80421W        W81285   4.407   7.625  15.669  0.0150 -0.0374 -0.1335
80422W        W81286  22.806  11.293  17.087  0.1844  0.1379 -0.1042
80423W        W81287  24.664  12.276   6.177 -0.0970  0.3949  0.0530
80424W        W81288  13.919   4.307   4.348  0.2380 -0.2108 -0.0432
80425W        W81289   4.499   8.582  25.572  0.2637 -0.0661 -0.0324
80426W        W81290  27.430   0.627  21.352  0.1645  0.1722  0.2907
80427W        W81291  13.132  15.270  28.351  0.1579 -0.0835 -0.0531
80428W        W81292   1.378  19.664   1.574  0.0089  0.1304  0.0309
80429W        W81293   1.159  27.796   9.711 -0.0422  0.0447  0.1402
80430W        W81294   5.336  21.454  28.742  0.0980 -0.0273  0.4593
80431W        W81295  10.080   7.565  24.316  0.0873 -0.1487  0.0618
80432W        W81296   9.401   2.115  25.413 -0.1011 -0.0140  0.0660
80433W        W81297  20.112  12.624   3.523  0.4381  0.0895  0.0379
80434W        W81298   3.893   9.917  24.564 -0.1546  0.1943 -0.1531
80435W        W81299  12.671  17.698  12.655 -0.1140 -0.3171 -0.2589
80436W        W81300  10.672   2.727  11.122 -0.0777 -0.1582 -0.2081
80437W        W81301   8.058  16.007   7.020 -0.1931 -0.0219 -0.0617
80438W        W81302   8.495   4.815  15.774 -0.0617  0.1807  0.2088
80439W        W81303  13.472  20.546  27.753  0.2284 -0.2935 -0.1007
80440W        W81304  20.657  15.612   6.599 -0.0905  0.0572 -0.0078
80441W        W81305   6.282  17.144   4.573 -0.1183 -0.0063 -0.1474
80442W        W81306   7.832   6.647  10.157 -0.0580  0.1029 -0.0236
80443W        W81307  17.460  20.001  14.216 -0.3747  0.0885 -0.1005
80444W        W81308  28.352  26.489  15.363 -0.2522 -0.2371  0.3285
80445W        W81309   4.382  23.142   7.145 -0.0003 -0.0660 -0.0313
80446W        W81310  12.890  15.343  17.400 -0.1829 -0.1116  0.2687
80447W        W81311   7.945   0.113  16.132  0.0098 -0.0246 -0.0990
80448W        W81312   1.737   3.535  15.485  0.2778  0.0072  0.2743
80449W        W81313  26.796  18.984   8.796  0.1464  0.1013 -0.1608
80450W        W81314  16.938   0.169   5.433  0.0937  0.0741 -0.3049
80451W        W81315  16.908  27.796   5.266  0.0412  0.0542 -0.2647
80452W        W81316  23.696   9.345  16.215 -0.0697  0.0341  0.0810
80453W        W81317   4.609   6.293   3.831  0.2060  0.0423 -0.0459
80454W        W81318   9.491  25.136   1.612 -0.2420 -0.1088  0.2069
80455W        W81319  28.629  11.420  12.190  0.1578 -0.0664  0.0386
80456W        W81320  26.182  14.115   1.428  0.1130 -0.2711  0.3400
80457W        W81321   4.942  21.643   4.424  0.0179  0.1478  0.3152
80458W        W81322  17.192  17.838  13.272 -0.0153 -0.0594 -0.2333
80459W        W81323   0.669  12.221  10.488  0.2511  0.2621  0.0212
80460W        W81324  24.245  28.939  18.875 -0.2463  0.1112 -0.1374
80461W        W81325   5.269  24.875  20.387 -0.2445 -0.3382  0.1066
80462W        W81326  16.963  28.791   5.372 -0.0981 -0.2286 -0.1446
80463W        W81327  13.948   5.329  17.493  0.2575  0.0099 -0.0280
80464W        W81328  26.898  17.288  17.360  0.2082  0.3451 -0.4512
80465W        W81329   8.322   7.887   2.880  0.1726 -0.2115  0.3225
80466W        W81330  18.810  20.550  22.076  0.0718 -0.1165 -0.0349
80467W        W81331  26.524   0.400  11.029 -0.0759 -0.0991  0.2495
80468W        W81332   6.176  16.275   1.939 -0.0522 -0.2100 -0.1287
80469W        W81333  11.882  23.583  12.243  0.1572 -0.0731  0.1091
80470W        W81334  20.888  15.930  13.954 -0.2729  0.0387 -0.0013
80471W        W81335  13.055   0.102   9.844 -0.0011  0.2402 -0.1669
80472W        W81336  17.284  11.851   0.563 -0.0833 -0.2133  0.1091
80473W        W81337  26.924  10.544  22.729  0.1798 -0.0336 -0.2290
80474W        W81338  19.838   0.718  13.613 -0.0332 -0.0014 -0.4739
80475W        W81339  13.723  22.960  23.645  0.0712 -0.2317 -0.2217
80476W        W81340   6.964   1.400  20.310 -0.0156  0.1681 -0.0055
80477W        W81341  23.727  23.269  21.284  0.1561 -0.1939  0.1761
80478W        W81342  26.163  20.743   4.215 -0.2077 -0.0700  0.2401
80479W        W81343  10.148  24.670  15.937  0.1397  0.1898  0.1065
80480W        W81344   9.941  23.921   7.919 -0.0228  0.2965 -0.0905
80481W        W81345   6.582   9.906  25.578  0.0706  0.1999 -0.2957
80482W        W81346  28.754  26.277   6.609 -0.1075 -0.0324  0.0743
80483W        W81347  10.270  18.501  11.296 -0.0113 -0.2554 -0.1475
80484W        W81348  11.257  23.166   6.523 -0.0200 -0.1527 -0.0349
80485W        W81349  14.852  19.559  20.134  0.2846 -0.1227 -0.0504
80486W        W81350  28.687  24.341  19.072 -0.2999 -0.1730 -0.0307
80487W        W81351   2.387   7.357  21.241 -0.1724  0.0132  0.4460
80488W        W81352  17.225   1.104   6.560 -0.2473  0.0222 -0.1319
80489W        W81353  21.987  15.482   2.033  0.3749  0.1434 -0.1879
80490W        W81354  24.595   2.445  16.596  0.1913  0.3758 -0.1067
80491W        W81355   2.676  26.895  26.219  0.0651 -0.2474 -0.1608
80492W        W81356   6.620   2.735  12.359 -0.1839 -0.0517  0.3328
80493W        W81357  23.008  27.615  15.947 -0.2231  0.3448 -0.0070
80494W        W81358  24.691   4.671   4.444  0.0257 -0.0961  0.0879
80495W        W81359   9.429  11.577  28.494 -0.0583 -0.1430 -0.0804
80496W        W81360   3.261  27.021   7.382  0.2873  0.3984 -0.0612
80497W        W81361  19.119  18.211  27.253 -0.1894  0.1999  0.0327
80498W        W81362  25.752   8.694  15.020  0.3931 -0.1346 -0.0625
80499W        W81363   8.761  17.563  25.635  0.1483 -0.0388 -0.1486
80500W        W81364  22.931   3.650  15.419  0.0169 -0.1321 -0.2451
80501W        W81365   2.260   7.676  11.515 -0.0601  0.0275  0.0520
80502W        W81366   0.466  27.953   8.501  0.2238  0.2555 -0.0420
80503W        W81367   8.102  23.499   4.403 -0.1358 -0.0116 -0.1900
80504W        W81368  28.366  26.040  23.201  0.0421  0.3391  0.1570
80505W        W81369  13.437  16.485  14.522  0.0003  0.0327 -0.0289
80506W        W81370  19.815   0.212  15.826 -0.2553  0.0976  0.0026
80507W        W81371  25.291  21.109  18.437  0.1981  0.0602  0.1830
80508W        W81372   4.715  16.164  21.517  0.0202  0.1843 -0.2772
80509W        W81373  16.667   7.465   9.358 -0.1077 -0.1980 -0.0298
80510W        W81374   4.551   5.204  27.187 -0.0112 -0.1003  0.0026
80511W        W81375   8.233  15.982  25.875 -0.0112  0.3620  0.0885
80512W        W81376   8.598   5.143  10.497 -0.2631 -0.2059 -0.0934
80513W        W81377   1.354   0.636   0.827 -0.1367  0.0071  0.0320
80514W        W81378  10.385   5.271  26.256 -0.3219 -0.2239  0.4221
80515W        W81379  10.968  12.469  18.966  0.1488 -0.0834  0.1131
80516W        W81380   1.107  12.766  23.768  0.2257 -0.1499  0.1101
80517W        W81381   4.961  25.739  28.052 -0.1438 -0.2195  0.1999
80518W        W81382   5.663  16.709   0.035 -0.4252  0.2687 -0.1636
80519W        W81383   6.128   6.234   4.888  0.0261  0.0788 -0.1465
80520W        W81384  12.779  11.373  13.448  0.2790 -0.0053 -0.1060
80521W        W81385   3.276  14.067  12.128  0.0379  0.0045  0.0028
80522W        W81386  23.853  13.902  11.673 -0.0204  0.2322  0.0399
80523W        W81387  28.421   3.133   4.085 -0.1029  0.1180  0.1340
80524W        W81388   3.404  11.034   9.148  0.0894 -0.0833 -0.0285
80525W        W81389   1.597   9.038   4.853  0.0405  0.1993 -0.1091
80526W        W81390   1.926   5.214  25.223  0.1462  0.0194  0.0920
80527W        W81391  25.049   0.656  23.733  0.2734 -0.3665 -0.3867
80528W        W81392  23.298   9.979  28.539 -0.0808 -0.3152 -0.1191
80529W        W81393  17.055   7.686   5.482 -0.2398 -0.1036 -0.3920
80530W        W81394  18.818   1.909   4.163 -0.1172  0.0592  0.1257
80531W        W81395   7.353  15.378  16.580 -0.0478 -0.0929  0.1220
80532W        W81396   1.724   6.908  12.871  0.1603 -0.0588  0.2101
80533W        W81397  27.710   6.491  28.424  0.3633  0.2348  0.0789
80534W        W81398   0.302   3.393  12.274  0.0456 -0.3828  0.3826
80535W        W81399  15.496  10.712  21.556 -0.0471 -0.0310  0.1983
80536W        W81400  12.619   2.335   8.488 -0.1757 -0.0497 -0.2658
80537W        W81401  22.404   9.810   1.690  0.1262 -0.1108 -0.0490
80538W        W81402  28.723   6.566   9.945  0.0802 -0.1224  0.0854
80539W        W81403   1.720  22.259  10.801 -0.2038 -0.2444 -0.0875
80540W        W81404  21.023  11.399  21.771  0.0775  0.1197 -0.1670
80541W        W81405  16.484   9.624   6.457  0.2197 -0.1966 -0.1077
80542W        W81406  29.086  28.156   3.732 -0.0108  0.0358  0.0105
80543W        W81407   2.291  18.909  15.359  0.1617 -0.1375 -0.0996
80544W        W81408  26.724  27.141   7.818 -0.2732 -0.3147 -0.2266
80545W        W81409  11.033  21.836   4.065 -0.0434  0.2488 -0.4584
80546W        W81410  26.166  12.639   5.395 -0.1942 -0.1514 -0.0787
80547W        W81411  27.350  24.912  23.261  0.0677  0.1581  0.0940
80548W        W81412  23.375  11.644  29.094 -0.1745 -0.1166  0.0161
80549W        W81413   5.018   5.082  24.848  0.1769 -0.1709  0.0919
80550W        W81414   7.568  24.940  17.693  0.1586  0.1327 -0.1906
80551W        W81415  19.557   6.224  22.303 -0.1586  0.0374  0.0304
80552W        W81416   8.247  25.782  18.508  0.1066 -0.1632 -0.0216
80553W        W81417  12.804   1.666  15.722  0.2680 -0.1656  0.0124
80554W        W81418   1.093  18.525  13.822 -0.0118  0.1018  0.0476
80555W        W81419  27.971  19.797  24.785  0.2947  0.2227 -0.2683
80556W        W81420   8.695  12.311  20.005 -0.0836  0.2077 -0.2715
80557W        W81421   6.026  13.506   8.796 -0.5197 -0.1549  0.1740
80558W        W81422  24.343  27.804   8.556  0.0013  0.0960  0.1349
80559W        W81423   8.757   0.993  23.539  0.0053 -0.0025  0.0133
80560W        W81424  15.875  28.145  20.824  0.0602 -0.0938 -0.0360
80561W        W81425  14.402  14.337   3.433 -0.0353 -0.1650  0.1331
80562W        W81426  12.407   1.095  24.232 -0.0507 -0.2530 -0.1017
80563W        W81427  28.574   0.001   9.894 -0.3495 -0.0002  0.1011
80564W        W81428   5.113   5.229  28.030 -0.0415 -0.0641  0.1167
80565W        W81429  20.569  22.851  26.522 -0.1982 -0.1601  0.1232
80566W        W81430  15.535  28.447  25.063  0.0717 -0.2512 -0.1228
80567W        W81431  15.663  11.410  11.781 -0.1686 -0.3335  0.0750
80568W        W81432  22.341   5.720   1.617 -0.1635  0.2410 -0.2356
80569W        W81433   3.264  25.981  14.041  0.0648  0.1262 -0.0728
80570W        W81434   8.408  21.104  28.117 -0.1583  0.2136 -0.5048
80571W        W81435  22.250  11.887  12.516 -0.1726 -0.0883 -0.1689
80572W        W81436   9.454  16.391   3.397 -0.1601  0.0120 -0.0720
80573W        W81437   3.371   0.353  28.031 -0.1995 -0.1324  0.0669
80574W        W81438  26.691  23.143  10.575  0.0377  0.0162  0.0540
80575W        W81439   1.934   7.301  11.352 -0.1934  0.2451  0.1978
80576W        W81440  26.229  16.751  18.805  0.0312  0.0547 -0.1589
80577W        W81441  14.292   2.490   5.602 -0.1763  0.1248  0.0788
80578W        W81442  24.164  18.441   0.613  0.0717  0.0949 -0.2884
80579W        W81443  21.692   5.236  26.635  0.0052  0.2934 -0.0873
80580W        W81444  21.889  10.509  28.710  0.0718  0.2037  0.1787
80581W        W81445  18.525  17.778  11.323 -0.0744  0.0206  0.2828
80582W        W81446   3.780  18.078  14.479 -0.2208 -0.2802 -0.0497
80583W        W81447   2.436   7.016   3.626 -0.0410  0.2046 -0.0497
80584W        W81448  18.293  15.304  14.848 -0.4028  0.2183 -0.1687
80585W        W81449   0.662  24.578   9.730  0.0035  0.0201  0.1297
80586W        W81450  10.078   1.131  14.499  0.1005 -0.2437 -0.0036
80587W        W81451   4.689   1.097  15.311  0.0316 -0.0726  0.3725
80588W        W81452   0.424   4.989  11.357  0.1162  0.4411  0.2570
80589W        W81453  10.655   2.411  16.621  0.1517 -0.1877  0.0806
80590W        W81454  16.240  13.342  23.317  0.1543  0.0017  0.1338
80591W        W81455  18.129  13.161   2.872  0.1863 -0.0026  0.0072
80592W        W81456  20.814  25.043   3.102 -0.0328  0.0592 -0.2540
80593W        W81457   1.241  27.195  13.019 -0.3469  0.1052 -0.5372
80594W        W81458  21.011  28.157  23.108 -0.1162 -0.0811  0.0937
80595W        W81459  24.181  12.610  22.693  0.0955 -0.0976 -0.0544
80596W        W81460   8.255  12.471  18.800 -0.0862  0.0275  0.1348
80597W        W81461  19.395  17.677  28.454 -0.1281 -0.1351 -0.1999
80598W        W81462  17.518  20.521  27.722 -0.0029 -0.3862 -0.0013
80599W        W81463  22.866   6.631   1.830  0.0506  0.0560 -0.0132
80600W        W81464   1.380  13.031  13.361  0.0619 -0.1093  0.5731
80601W        W81465  28.259  19.630  11.001  0.1769 -0.0181  0.0748
80602W        W81466  11.399  28.723  27.952  0.0607  0.0346  0.1038
80603W        W81467   2.888  24.079   8.229  0.2899 -0.0558  0.0435
80604W        W81468  15.414   4.260  19.660 -0.1238  0.1255 -0.2464
80605W        W81469  14.371   2.243   7.544 -0.0267  0.0323 -0.2657
80606W        W81470  16.061   5.672   1.208 -0.0047  0.0547  0.0567
80607W        W81471  24.817  26.373  11.404 -0.4695  0.0310  0.0795
80608W        W81472  19.065  28.712  23.528 -0.1862  0.1438  0.2421
80609W        W81473   2.261   8.721  16.013  0.3549 -0.1022  0.1590
80610W        W81474   3.620  21.840  10.149 -0.2148 -0.0137  0.0962
80611W        W81475  21.208  26.074  28.865 -0.0520  0.4416  0.0373
80612W        W81476  13.147   5.179  22.396 -0.0102  0.0951 -0.0382
80613W        W81477   4.418   8.448  10.463  0.0371  0.0906 -0.1491
80614W        W81478  22.309   7.060  21.271 -0.1808  0.0713 -0.2847
80615W        W81479   0.479   0.625  11.717  0.0081 -0.2010  0.0371
80616W        W81480  26.724  24.088  14.883  0.2028  0.4587 -0.1290
80617W        W81481  27.901  27.660   3.583  0.0570 -0.4140 -0.0795
80618W        W81482   0.332   5.427  17.058  0.2132 -0.1050  0.0889
80619W        W81483  23.304   2.003  19.891  0.0680 -0.3827 -0.2100
80620W        W81484   3.562  12.735  10.663  0.1335  0.0651 -0.1002
80621W        W81485  11.730   5.193   6.960  0.1741  0.0112 -0.0810
80622W        W81486  21.949  13.165  11.216 -0.2239 -0.1638  0.4201
80623W        W81487  27.128   5.191   4.080 -0.0724 -0.2251  0.1155
80624W        W81488   2.130   8.123   0.005 -0.0189 -0.2830  0.3088
80625W        W81489  28.531  21.801  28.064 -0.1275 -0.1659 -0.1495
80626W        W81490  22.653   5.807  26.606 -0.1041  0.0616  0.0142
80627W        W81491  28.625  12.903   6.891 -0.1733 -0.0934  0.0497
80628W        W81492  26.802   2.661   6.744 -0.2907  0.1663 -0.2189
80629W        W81493   7.887   6.137  15.733  0.1018 -0.0722  0.1061
80630W        W81494  20.221  17.499  20.769  0.0984 -0.0773  0.1756
80631W        W81495   2.442   4.344  13.418 -0.0313  0.0332  0.2068
80632W        W81496   1.164  10.318  11.474  0.0730  0.0423 -0.0642
80633W        W81497   7.059  10.333  16.270  0.0320  0.1890  0.1075
80634W        W81498  25.328  16.752   3.469 -0.1083 -0.1677  0.3224
80635W        W81499  10.365   5.493  16.426 -0.1229  0.0435  0.1825
80636W        W81500  11.567  12.026   7.144  0.2037  0.0576 -0.0038
80637W        W81501   1.649  28.096  23.344  0.0950  0.4083 -0.1313
80638W        W81502   0.701  22.958  10.049 -0.1643 -0.3377 -0.1961
80639W        W81503   1.022   8.133  27.024  0.0870 -0.0522 -0.0428
80640W        W81504  28.785  26.142  11.802  0.0344  0.2464  0.1947
80641W        W81505   7.748  26.923   4.746 -0.1585 -0.3949 -0.0991
80642W        W81506  28.321  19.911   9.363  0.0976 -0.0987  0.1077
80643W        W81507  22.358   3.094  19.784 -0.2779 -0.1629  0.1470
80644W        W81508  26.578  28.399  17.153 -0.0760 -0.2465 -0.1217
80645W        W81509  20.385  18.796   1.475 -0.2463 -0.2307 -0.2554
80646W        W81510   3.603  28.752   8.627  0.0532 -0.0895  0.0950
80647W        W81511  10.828  27.487  11.213 -0.4066  0.0386 -0.0573
80648W        W81512  20.910  24.621   5.206  0.3831  0.0359  0.1487
80649W        W81513  24.160   4.905  14.489  0.0387  0.1708  0.1146
80650W        W81514   6.219   1.439  10.530  0.1740  0.1106 -0.1336
80651W        W81515  26.203   7.494  22.971 -0.0298 -0.2280  0.0068
80652W        W81516  19.974  26.499  17.012 -0.2516 -0.0027  0.1024
80653W        W81517  12.292  14.796  10.794 -0.0322  0.4699  0.3097
80654W        W81518  25.559   8.631  24.829  0.0338 -0.2765 -0.0926
80655W        W81519  25.138   1.237   0.798  0.0079 -0.3182  0.2770
80656W        W81520   2.656   2.597   0.929  0.0324 -0.4859 -0.0496
80657W        W81521  10.831  15.280  26.221 -0.1273  0.3949  0.2610
80658W        W81522   9.535   3.704   0.164 -0.2365  0.1863  0.3099
80659W        W81523   2.156  14.776   5.334  0.1499 -0.1527 -0.1090
80660W        W81524   9.133  22.037  12.820  0.4506 -0.0247  0.1085
80661W        W81525  28.196  27.617  10.081  0.1088  0.1412 -0.2690
80662W        W81526   8.339   8.173   4.606  0.0297  0.1596  0.2345
80663W        W81527  26.843  20.566   6.757  0.1345  0.0617 -0.0084
80664W        W81528  11.367  26.145   0.195  0.0973 -0.1494 -0.0644
80665W        W81529  13.063   7.211  18.786  0.0189 -0.0330 -0.1696
80666W        W81530   5.475   0.954  25.499  0.2727 -0.1614  0.3155
80667W        W81531  26.929  25.864  24.786  0.2563 -0.3162  0.1398
80668W        W81532  18.294  23.481   0.572 -0.2164  0.0928  0.0530
80669W        W81533  29.111  21.978  15.166  0.0360 -0.0817 -0.0919
80670W        W81534  27.061  27.946  25.158  0.1174  0.2436  0.1218
80671W        W81535   5.170  19.453   1.604 -0.0350 -0.0621 -0.0325
80672W        W81536   4.824  28.337  26.386  0.1066 -0.0369 -0.1914
80673W        W81537   4.039  16.589   5.426 -0.1503  0.1571  0.0413
80674W        W81538  20.253  24.465  28.450 -0.1873  0.1740  0.2165
80675W        W81539  10.855  11.796   5.619  0.2144 -0.1015  0.0971
80676W        W81540   1.476   5.439  23.283 -0.1388  0.0779 -0.1136
80677W        W81541  24.116  23.371   4.487  0.1647  0.0740 -0.1442
80678W        W81542   9.737  13.489   4.390 -0.2586 -0.2467  0.0650
80679W        W81543  24.503   4.489  24.191  0.1042  0.0077 -0.0865
80680W        W81544  10.732  23.681   7.299  0.1842 -0.0620 -0.2576
80681W        W81545  17.459  27.832  11.998  0.1858 -0.0924 -0.3014
80682W        W81546   0.608   1.690   7.318 -0.0353  0.0161  0.0281
80683W        W81547  12.523  28.759  13.728 -0.2538 -0.2386 -0.0547
80684W        W81548   8.204   6.111  20.682 -0.1019  0.2786  0.2251
80685W        W81549   6.614  12.148  17.772  0.0852 -0.2429  0.1210
80686W        W81550  20.962   2.275  18.621  0.1316  0.0260 -0.0517
80687W        W81551  10.246   1.345  26.676  0.0932 -0.0987 -0.1818
80688W        W81552  25.707  22.736   6.288 -0.2172 -0.0461 -0.0742
80689W        W81553  25.773   9.466  18.790 -0.2886  0.0269 -0.1066
80690W        W81554  22.214   3.233  22.365 -0.0931 -0.0798 -0.1953
80691W        W81555  24.017  11.224  14.127  0.1857  0.1784  0.0215
80692W        W81556  20.120   4.834   2.559  0.0068 -0.0190 -0.1163
80693W        W81557  20.483  16.937  11.580 -0.1138  0.0871 -0.2262
80694W        W81558  17.350  22.703   1.082 -0.0508  0.3627  0.1677
80695W        W81559  13.068  15.517  11.493 -0.0496  0.1422 -0.1330
80696W        W81560   6.137  19.615  12.032 -0.2295  0.1634 -0.1360
80697W        W81561   9.750   3.990  25.277 -0.0487 -0.0024 -0.1592
80698W        W81562  21.744  16.624  24.763 -0.0881  0.1936 -0.0345
80699W        W81563   0.731  16.423  28.113  0.1273  0.0831 -0.0101
80700W        W81564   5.835   8.282   9.730 -0.4162 -0.0265  0.1033
80701W        W81565   7.725  20.116   5.348  0.2376  0.0638  0.3932
80702W        W81566   4.285   0.797  21.151  0.5296 -0.2200 -0.2186
80703W        W81567  23.904  22.710  23.966  0.0375 -0.0881  0.0986
80704W        W81568  19.014  24.760  14.026  0.0666  0.0857 -0.3285
80705W        W81569  25.246  22.701   4.511  0.1152 -0.0264  0.0940
80706W        W81570  15.393  23.120   7.194  0.0081 -0.0758 -0.0418
80707W        W81571  20.196   5.038  17.075  0.0743 -0.4008  0.1934
80708W        W81572  27.685   9.568  26.601  0.3225  0.4336 -0.0408
80709W        W81573  19.047   5.046  27.220  0.1731 -0.0811  0.0436
80710W        W81574  27.903  14.324   1.053  0.0923  0.2332 -0.0717
80711W        W81575   0.727   0.150  11.762 -0.0535 -0.3214 -0.0602
80712W        W81576   1.543  25.799  15.295  0.0339 -0.0374  0.1387
80713W        W81577  19.902  15.253  28.233 -0.1141  0.1022  0.7653
80714W        W81578  20.075  25.012  21.582  0.2303 -0.0979 -0.1728
80715W        W81579   1.319   3.126  26.837 -0.0547  0.1830 -0.2230
80716W        W81580   9.343  13.496   1.248 -0.3285 -0.0719 -0.3181
80717W        W81581   6.750   6.773   4.938  0.1962 -0.0411 -0.0097
80718W        W81582  24.874  10.260   1.637 -0.0768 -0.3827  0.6039
80719W        W81583  20.599  15.785   4.529  0.0379  0.0680 -0.0381
80720W        W81584   9.129  28.255  28.934 -0.3649 -0.0761 -0.0428
80721W        W81585  12.168  21.256  14.732 -0.0252 -0.3415 -0.2186
80722W        W81586  18.414   5.956   9.022  0.1054  0.0294  0.2793
80723W        W81587  27.065   7.583  12.462 -0.1817 -0.1587  0.2525
80724W        W81588  21.828   2.439  12.774  0.0686  0.0444 -0.2857
80725W        W81589  24.503   7.671  10.957  0.1200 -0.1119  0.1559
80726W        W81590  20.743  19.005  19.091  0.0036  0.3028  0.0502
80727W        W81591   9.917  24.456  14.049 -0.0698 -0.1598 -0.2937
80728W        W81592  23.226   4.608  10.632  0.0857  0.4337 -0.0246
80729W        W81593  24.640  25.309  23.716 -0.1123 -0.3055  0.2509
80730W        W81594  22.727  10.797  17.294  0.2733  0.0548 -0.0014
80731W        W81595  25.506   4.534  22.278  0.1306  0.0487 -0.0066
80732W        W81596  21.127  21.212   9.735 -0.0523  0.0377 -0.1166
80733W        W81597  12.934  15.754  12.305  0.0747  0.2301 -0.0700
80734W        W81598  27.239   5.651  17.950 -0.0189  0.3498 -0.0626
80735W        W81599  20.708   5.742   4.302 -0.0381 -0.2021 -0.1953
80736W        W81600  26.418   0.768   7.925 -0.0045 -0.1465  0.1194
80737W        W81601  10.236  10.274   3.913  0.0742  0.2457  0.0134
80738W        W81602   4.640  27.048  15.539  0.1086 -0.1445 -0.0995
80739W        W81603   7.467   0.285  14.942  0.3787  0.0651  0.1131
80740W        W81604   3.950  19.504  24.774  0.4170 -0.1037 -0.5276
80741W        W81605  20.206  21.218   2.661 -0.0652  0.1736 -0.1180
80742W        W81606   1.685   6.056  21.412 -0.2119 -0.0709  0.0821
80743W        W81607  19.036  26.824  14.234 -0.0618  0.0957  0.0493
80744W        W81608  22.416  20.172   1.113 -0.0319 -0.0284 -0.1111
80745W        W81609  28.498  27.202  18.289 -0.1177  0.2146 -0.1447
80746W        W81610  19.137  27.919  20.467  0.0197  0.2724 -0.1768
80747W        W81611  17.389   6.371  20.979 -0.0043  0.3318  0.1260
80748W        W81612   6.890  10.543  23.344  0.1741  0.0482  0.1994
80749W        W81613  13.226  28.629   7.881  0.1288 -0.1623 -0.1245
80750W        W81614  26.443   2.505   8.545 -0.1944  0.0165 -0.0417
80751W        W81615  27.583  17.127   0.295  0.1463 -0.3453  0.1081
80752W        W81616   6.728   4.485  18.017 -0.2088 -0.1702 -0.0948
80753W        W81617  14.075   6.548   6.079 -0.3443  0.2390 -0.1418
80754W        W81618   7.577  26.783   3.275  0.0444  0.0681 -0.1288
80755W        W81619  25.127   7.636   2.383  0.0197 -0.0982 -0.1468
80756W        W81620  28.493  23.528  24.466  0.1971  0.2671 -0.0085
80757W        W81621  14.146  20.165  29.057 -0.3179  0.1782  0.1990
80758W        W81622  16.584   1.793  13.905 -0.0246 -0.0305  0.0489
80759W        W81623   7.436   2.046  12.064  0.0100  0.0282  0.0400
80760W        W81624  21.232   5.389   2.683 -0.2149  0.0551 -0.0195
80761W        W81625   6.069  13.349  16.997  0.1671 -0.0738 -0.0646
80762W        W81626   5.113  25.895  13.106 -0.0835 -0.3014 -0.0918
80763W        W81627  24.406  21.395  13.956  0.0864  0.2341 -0.0871
80764W        W81628   5.819  28.260  16.112 -0.4572  0.2644 -0.2985
80765W        W81629  24.661   7.005  15.438 -0.1226  0.0047 -0.0763
80766W        W81630   9.699   2.445  22.685  0.0678 -0.1195  0.0566
80767W        W81631   5.632   1.199   9.106  0.0115 -0.1169  0.2906
80768W        W81632   3.097  24.324  14.872 -0.3587  0.0373  0.0976
80769W        W81633  26.921  11.669  14.455 -0.0784  0.3226  0.4448
80770W        W81634   9.054   9.605   1.843  0.0952 -0.3282  0.1771
80771W        W81635  21.565  20.535  15.818 -0.0339  0.1510 -0.1704
80772W        W81636  20.403  26.662  19.705 -0.2690  0.2395  0.1837
80773W        W81637  11.668  13.652   6.635  0.2909  0.0127 -0.1730
80774W        W81638  16.478  23.916   5.123 -0.3896  0.1555  0.1420
80775W        W81639  25.430  16.247   3.595 -0.0483 -0.0687  0.1207
80776W        W81640  26.640   1.218  22.112  0.1816 -0.3491  0.0659
80777W        W81641  26.099  26.674  22.599  0.0470 -0.1667  0.0928
80778W        W81642  27.582  19.378   2.131  0.1195 -0.1133  0.3512
80779W        W81643  10.210   0.537  11.321  0.0761 -0.1294 -0.1305
80780W        W81644  24.329   7.056  10.404  0.0376 -0.0873 -0.0318
80781W        W81645  27.612  25.533   1.788 -0.1272  0.0817  0.0474
80782W        W81646  20.954  17.606   0.154 -0.2381  0.1789 -0.0993
80783W        W81647   8.538   9.856  27.272 -0.0330 -0.0004 -0.1267
80784W        W81648   2.663  26.247  27.797  0.0053  0.1961 -0.2030
80785W        W81649  16.775  27.614   9.500  0.0468 -0.2255 -0.1891
80786W        W81650  25.578   3.032   5.890 -0.1364 -0.0114 -0.0518
80787W        W81651   7.762  23.244   5.184 -0.0227  0.0293 -0.3814
80788W        W81652   1.708   2.856  28.179 -0.0619 -0.1274 -0.2301
80789W        W81653  20.104   1.599  22.659 -0.0260 -0.2973 -0.0421
80790W        W81654  26.189  24.622   2.658  0.1954  0.0355  0.0618
80791W        W81655  17.343  14.310  17.501  0.3496 -0.4501  0.2578
80792W        W81656  19.307   2.277  13.506 -0.2100 -0.0895 -0.1466
80793W        W81657  11.120  21.895  14.740 -0.3886 -0.1797 -0.0182
80794W        W81658  21.022  19.837  27.500  0.0030 -0.2750  0.4054
80795W        W81659   5.322   0.461  24.812 -0.0039  0.1118  0.2485
80796W        W81660   2.013  21.289  11.007  0.2247  0.1026  0.1007
80797W        W81661  22.970  19.830  18.342 -0.3085  0.2674  0.4746
80798W        W81662  23.155  21.226   6.348 -0.1913  0.5207  0.2658
80799W        W81663   5.623   1.027  21.848 -0.1487 -0.0923  0.0156
80800W        W81664  23.941  21.027   4.649 -0.1054  0.1078 -0.1396
80801W        W81665  21.141   8.551  18.718  0.0761  0.0925  0.1630
80802W        W81666  26.225  26.086   1.750  0.1383  0.0209  0.1281
80803W        W81667  25.623  11.274   7.276  0.0442 -0.2576  0.0296
80804W        W81668  24.849  27.675   0.826  0.4317  0.0102 -0.0797
80805W        W81669  15.176   0.016  18.154 -0.1206 -0.2907  0.0794
80806W        W81670   4.682  22.444  27.293  0.0574  0.1350  0.4716
80807W        W81671  25.284  12.534  16.936 -0.2024 -0.2053 -0.1115
80808W        W81672  16.879   0.260  29.095 -0.2639 -0.0498 -0.2187
80809W        W81673  22.451  26.336   2.047 -0.1268  0.0896  0.1281
80810W        W81674  10.556  24.812   1.122 -0.1745  0.1199  0.1227
80811W        W81675   7.009  17.350  19.696 -0.0098 -0.1882 -0.2020
80812W        W81676  18.619  21.018  24.018 -0.0087 -0.2230  0.1217
80813W        W81677   9.619  24.285   4.467 -0.2806  0.2903  0.2952
80814W        W81678  18.347  17.052  18.860 -0.0405 -0.0026  0.0867
80815W        W81679   9.601   9.246  25.978 -0.2535 -0.0090  0.0971
80816W        W81680  19.791   0.437  12.582  0.0097 -0.0175  0.0681
80817W        W81681  12.447  22.236  13.323  0.0381  0.3992  0.1065
80818W        W81682   4.207   7.785  26.595 -0.1061 -0.0323 -0.0728
80819W        W81683   3.105  14.604  25.204  0.0816 -0.0478  0.1000
80820W        W81684   6.082  10.237   3.810  0.2951  0.0615 -0.2802
80821W        W81685  21.219  16.667  10.000 -0.0751  0.3234 -0.1955
80822W        W81686  12.146  22.558   7.868  0.2171  0.1811 -0.0075
80823W        W81687  26.899  13.718   8.259 -0.2235 -0.2898 -0.1268
80824W        W81688   2.935  23.914  27.353 -0.2290  0.0545 -0.0225
80825W        W81689   2.721   0.125   8.594 -0.1656 -0.1680  0.1397
80826W        W81690  26.118  22.729  21.582 -0.1973 -0.0005 -0.0692
80827W        W81691  23.863  11.967  26.780 -0.0383 -0.0282  0.1112
80828W        W81692  28.179  21.402  23.305 -0.0666 -0.0157  0.2432
80829W        W81693  28.255  27.595  12.915  0.1221  0.1963  0.0046
80830W        W81694   6.164   0.816  16.554 -0.1469  0.2220 -0.0043
80831W        W81695  17.049  11.997  25.738 -0.1822 -0.3264 -0.1914
80832W        W81696  16.762  22.223  22.665 -0.0136  0.1334  0.0419
80833W        W81697  22.678  27.593  19.451  0.2364 -0.0096  0.1603
80834W        W81698   2.123   8.951  14.188  0.6256  0.5062  0.1425
80835W        W81699  22.795  23.059  20.492  0.1234 -0.4640  0.0140
80836W        W81700   6.469   2.038   7.408  0.0634  0.1151 -0.0219
80837W        W81701  15.113  25.701  10.505  0.1264  0.2152  0.1622
80838W        W81702  15.309  25.148  14.727  0.0530  0.0543 -0.1105
80839W        W81703   0.020  24.295  24.187 -0.2069  0.3220  0.1506
80840W        W81704   9.653   6.642   2.849 -0.3136 -0.0886  0.3212
80841W        W81705   2.259   0.764  19.349  0.0748  0.0746 -0.3014
80842W        W81706   8.362   6.291  19.066 -0.1272  0.1303 -0.0158
80843W        W81707  27.397  28.216  11.009 -0.0681 -0.0700  0.0866
80844W        W81708  11.549   1.120  12.734 -0.2197  0.0872 -0.3383
80845W        W81709  20.688  21.040  27.697  0.0881 -0.0419 -0.0026
80846W        W81710  25.734   1.713  28.900  0.1152 -0.3565 -0.3133
80847W        W81711  23.095   1.435   5.207 -0.2067  0.0760  0.2864
80848W        W81712  26.624   6.432  25.529 -0.0628 -0.1359 -0.1261
80849W        W81713   1.841  29.081  19.079  0.0008  0.1298 -0.1606
80850W        W81714   4.455   7.735   4.047 -0.3173 -0.1222  0.1528
80851W        W81715   6.437  25.425  14.759  0.0358  0.3570  0.2931
80852W        W81716  21.236   9.676  15.883  0.2138  0.1396 -0.0285
80853W        W81717  22.967   5.465  12.284 -0.0041  0.0812 -0.0948
80854W        W81718  28.203  27.895   7.772 -0.2463 -0.0119 -0.1055
80855W        W81719  19.762  17.510   0.436  0.0432 -0.0623 -0.1189
80856W        W81720   3.345  20.686  18.748  0.0930  0.1021  0.1416
80857W        W81721  23.190   7.928  19.477  0.0772 -0.0050 -0.1363
80858W        W81722   6.442   3.722   6.601 -0.2093  0.0691 -0.0159
80859W        W81723  19.476   1.194   1.802 -0.1464 -0.1825 -0.1654
80860W        W81724  25.600   5.634  15.093 -0.0698 -0.0399 -0.4167
80861W        W81725   3.079  17.705  29.025 -0.1243  0.1023  0.0328
80862W        W81726  26.227   0.070  13.140  0.1145  0.1535  0.1205
80863W        W81727  15.669  11.115   2.814  0.0210  0.2039  0.2347
80864W        W81728  25.445   8.422   1.216 -0.1455  0.0465  0.0215
80865W        W81729  15.798  22.775  20.438 -0.0286 -0.0197 -0.1822
80866W        W81730   2.205  23.227  18.653 -0.0561 -0.0016  0.0592
80867W        W81731  19.739  22.099  19.021  0.0619 -0.0872  0.0029
80868W        W81732  11.237  25.989  13.967 -0.0705  0.1358  0.1657
80869W        W81733  27.896   3.321  12.785  0.1524 -0.4267  0.2194
80870W        W81734   4.556  23.480  14.171 -0.0374 -0.0192 -0.2050
80871W        W81735  28.713  10.845  23.033  0.0930 -0.1292 -0.1892
80872W        W81736  16.341  27.399  14.676  0.0971 -0.1785  0.1498
80873W        W81737  12.175   4.683  24.244 -0.2029  0.2095 -0.1236
80874W        W81738   2.116   5.677  28.347 -0.0920  0.0203 -0.0625
80875W        W81739  25.755  24.500   7.194 -0.0590 -0.1217  0.0870
80876W        W81740  21.789   0.004  18.332 -0.3278 -0.0533  0.2393
80877W        W81741  22.062  27.221  13.847  0.0439 -0.0433  0.0549
80878W        W81742   7.175   7.802  22.175  0.2104  0.0653  0.1273
80879W        W81743  17.443   5.353  20.141  0.1985 -0.1859 -0.0657
80880W        W81744   2.703  16.015   8.354  0.1947 -0.3269  0.1949
80881W        W81745  22.668  18.914  23.016  0.2286 -0.0284  0.1543
80882W        W81746  20.694  16.377  17.251  0.1637 -0.0194  0.0099
80883W        W81747   5.933  23.387  18.205  0.3680  0.1862  0.0881
80884W        W81748   1.218   0.775  13.760  0.2179 -0.1924  0.2221
80885W        W81749   3.283  15.857   2.482  0.0920  0.0607 -0.2742
80886W        W81750  28.650  17.987  14.409  0.3044  0.1086 -0.0225
80887W        W81751   5.536  23.398  23.625 -0.4427  0.2561  0.0237
80888W        W81752   7.992  10.020  21.049 -0.2307  0.1726 -0.0332
80889W        W81753  21.599  20.846  18.284  0.1826 -0.1606  0.1650
80890W        W81754  20.598  28.485  17.032  0.1268 -0.0720  0.1529
80891W        W81755   6.379  26.022  16.765  0.0409 -0.0642 -0.0920
80892W        W81756  19.596  18.553  14.614  0.1627 -0.0437  0.0272
80893W        W81757  28.671  28.821  24.843 -0.3361 -0.1980 -0.1618
80894W        W81758   6.845  24.491  26.621 -0.1869  0.0412  0.0345
80895W        W81759  24.428  28.148  25.885 -0.0366  0.2255 -0.0357
80896W        W81760  15.266   3.520  15.222  0.0995  0.0968 -0.1885
80897W        W81761  13.073  22.310  21.722 -0.0500 -0.1365  0.0922
80898W        W81762  21.340  23.816  24.525  0.0774 -0.0167  0.3184
80899W        W81763  28.498  25.135  27.278 -0.4425 -0.3918 -0.1260
80900W        W81764  28.114   4.649   4.906  0.0541 -0.1490 -0.1563
80901W        W81765  22.789   1.174  16.362 -0.0678  0.1221 -0.2244
80902W        W81766   1.139  27.485  22.586 -0.1286  0.2937  0.2282
80903W        W81767  26.267   2.400  18.589  0.1461 -0.2189 -0.0841
80904W        W81768   0.726  25.511  19.677  0.0564 -0.1636  0.1310
80905W        W81769  23.104  28.684  13.041 -0.2255  0.2318  0.4044
80906W        W81770   8.670   1.297  18.616  0.0949 -0.2537  0.0799
80907W        W81771  19.835  28.578  18.698 -0.3164  0.1266 -0.1753
80908W        W81772  20.064   6.022   6.088  0.1472  0.1182  0.4277
80909W        W81773   0.054  11.143  16.906  0.0150 -0.1028 -0.1552
80910W        W81774  21.412   9.120  13.391  0.1777  0.2547 -0.0360
80911W        W81775  17.284   3.595   8.633  0.1890  0.2889 -0.0501
80912W        W81776   2.639  17.535   4.439  0.1551  0.0459  0.0524
80913W        W81777   1.435  21.177  10.828  0.2428  0.0128 -0.3986
80914W        W81778  20.801  25.624  17.420  0.0167 -0.2076 -0.2146
80915W        W81779  24.494   6.492  21.884  0.0393  0.4189  0.2202
80916W        W81780   6.105   5.497  10.682 -0.1752 -0.1687 -0.3336
80917W        W81781  10.541   7.560   1.371  0.1555 -0.3054  0.0299
80918W        W81782  20.437   7.603   5.697 -0.0733 -0.3114 -0.2658
80919W        W81783  18.317   5.838  10.756  0.1751 -0.0940 -0.0179
80920W        W81784  24.646  27.560  13.728 -0.0342 -0.0376 -0.0161
80921W        W81785  26.937  15.537  21.289  0.0969  0.1033 -0.1389
80922W        W81786   2.566  18.571   7.184  0.0276 -0.2562  0.0680
80923W        W81787  16.074  13.756   4.626  0.2291 -0.0198 -0.3292
80924W        W81788   2.588   7.559  23.510 -0.3356 -0.1967  0.1571
80925W        W81789   5.919  21.048  27.253  0.1321  0.2408 -0.1027
80926W        W81790   6.249  28.111  26.615  0.2035  0.2934 -0.1684
80927W        W81791  19.023  10.493  18.326  0.1830  0.3686  0.2202
80928W        W81792  20.246  29.113  28.885  0.3874  0.2609  0.1857
80929W        W81793   3.023  16.164  13.512  0.1150  0.0881  0.1749
80930W        W81794   1.972  11.605  19.281  0.0716 -0.0855  0.1378
80931W        W81795  28.687  27.973  10.762 -0.0414 -0.2559 -0.0786
80932W        W81796  12.467   1.790   6.374  0.0390  0.0786  0.0252
80933W        W81797   9.039   4.272  21.925 -0.3625  0.2262  0.3089
80934W        W81798   9.212   1.337  23.283  0.0702  0.3115 -0.3898
80935W        W81799  12.459   7.598   1.935 -0.1050 -0.0151  0.2243
80936W        W81800  23.608   9.175  25.657 -0.2954 -0.3276  0.2627
80937W        W81801   0.789  22.121  24.516  0.0463  0.1739  0.2117
80938W        W81802  14.282   0.960  24.092 -0.0385  0.0445 -0.2052
80939W        W81803   2.568  18.009   8.649  0.0440 -0.0725  0.0046
80940W        W81804  16.299  26.864  26.235 -0.1582  0.1135  0.3725
80941W        W81805  12.060  24.299  21.636 -0.0095 -0.1996 -0.1436
80942W        W81806  25.621  24.697  11.955  0.1209 -0.3317  0.1781
80943W        W81807   3.570   9.007  19.284 -0.2134 -0.2176  0.1144
80944W        W81808  18.318   5.223  19.524 -0.1260  0.1591 -0.0839
80945W        W81809  11.908   5.409  22.948 -0.0308 -0.3373 -0.1431
80946W        W81810   0.238  28.792  13.546  0.2797 -0.1599 -0.0191
80947W        W81811   3.364   1.082  17.728 -0.0703 -0.0779 -0.0834
80948W        W81812   5.137  12.029  22.518  0.0236 -0.0824 -0.0841
80949W        W81813  24.514  22.385  20.879  0.1717  0.1545  0.2681
80950W        W81814   5.480  24.575  20.865 -0.1130  0.1111 -0.0894
80951W        W81815  18.733  27.974   7.723  0.1450 -0.0498  0.2300
80952W        W81816   3.480  25.003   9.792  0.0499  0.1080  0.1311
80953W        W81817   2.793  20.118   2.400  0.1499 -0.2398  0.0568
80954W        W81818  12.985  18.957  13.263 -0.0638 -0.2433 -0.1793
80955W        W81819  15.266   3.164  12.385 -0.0842 -0.1771 -0.0648
80956W        W81820   8.568  11.319  11.850 -0.0759  0.2650 -0.1557
80957W        W81821  12.094  24.930  18.077  0.0531 -0.3689  0.1490
80958W        W81822  13.277  28.637   3.190 -0.1864 -0.0156  0.1972
80959W        W81823   6.682  19.949   7.807 -0.0964  0.0054 -0.1138
80960W        W81824   5.548  12.422  12.877  0.1081 -0.0786 -0.0908
80961W        W81825   7.124  11.712  14.286  0.0212  0.0624  0.0596
80962W        W81826  24.915   6.254  13.725  0.1146  0.1229  0.4806
80963W        W81827   1.070  10.440   0.532 -0.0889 -0.2703  0.1246
80964W        W81828   9.616   9.140  18.628 -0.1540  0.3826 -0.0255
80965W        W81829  26.352   5.445  27.576  0.1603  0.0206  0.0754
80966W        W81830  17.060  14.414  16.971  0.1450 -0.1647  0.0859
80967W        W81831  11.160  12.277   6.251  0.1478 -0.0855 -0.0196
80968W        W81832   5.082  13.208  15.081  0.1299  0.2200 -0.4747
80969W        W81833  12.842   4.367  14.094  0.1861 -0.1259 -0.0025
80970W        W81834  15.888  18.615   7.885 -0.3792 -0.3169 -0.2001
80971W        W81835  22.564   5.018  24.467  0.2048 -0.0640 -0.0957
80972W        W81836  12.143   0.030   6.482  0.1222 -0.1437 -0.2513
80973W        W81837  18.822  16.121  28.216 -0.3003 -0.0707 -0.1804
80974W        W81838   7.061  26.523  26.194 -0.0024  0.0570  0.0540
80975W        W81839  28.222   8.913  14.300 -0.1795  0.0062 -0.1681
80976W        W81840   1.597  21.479   5.098  0.0688  0.3506 -0.0001
80977W        W81841  26.106  26.019  25.784 -0.1013 -0.3109  0.2737
80978W        W81842  11.068   7.290  19.415  0.2733 -0.1440 -0.1003
80979W        W81843   0.853  25.827  14.813  0.0289  0.0487  0.0010
80980W        W81844  17.928  22.067  18.430 -0.0916 -0.0685 -0.1152
80981W        W81845   7.529   3.737  13.585  0.0633  0.1131  0.0114
80982W        W81846   2.298   4.185  15.126 -0.0363 -0.2341 -0.2243
80983W        W81847   9.779  13.410  10.244  0.3149  0.1013  0.0724
80984W        W81848  20.867  25.046  12.766  0.0390 -0.2059 -0.0824
80985W        W81849  20.709  26.242  28.108 -0.0009 -0.0779 -0.0385
80986W        W81850   0.962  23.961  11.482 -0.2581  0.1812 -0.2085
80987W        W81851  12.606  27.486   3.121  0.2257 -0.0434 -0.0766
80988W        W81852   0.641  26.507   2.919 -0.2187 -0.1724 -0.0692
80989W        W81853  27.210   3.140   0.965  0.3977 -0.1468  0.1223
80990W        W81854   5.293  27.779  14.910 -0.4036 -0.1133 -0.0389
80991W        W81855   7.079  22.384  17.405  0.2817  0.0062 -0.2299
80992W        W81856  28.350  11.991  11.087  0.1316 -0.0946 -0.1199
80993W        W81857   9.208  20.435  20.607  0.0294  0.0366 -0.2038
80994W        W81858  28.188  26.186  10.455 -0.3191  0.2402  0.0921
80995W        W81859  23.193  25.674  13.905  0.1545 -0.1483 -0.0494
80996W        W81860  11.729   5.996  11.094  0.0213  0.0030 -0.0522
80997W        W81861   3.490  26.319  14.358  0.2170 -0.0129 -0.1244
80998W        W81862   0.841  28.673  10.652  0.2327  0.2165 -0.2501
80999W        W81863   8.454  24.854  15.088 -0.2521  0.0517 -0.2926
81000W        W81864  26.260   8.303  28.109 -0.0973  0.0823 -0.1042
81001W        W81865   5.197  23.998  13.752 -0.0095 -0.1245  0.0590
81002W        W81866  10.191   1.230  18.196  0.1478  0.0772 -0.0799
81003W        W81867  10.111   0.917  12.336 -0.2872  0.3243  0.1354
81004W        W81868  22.451  25.706  19.845  0.1472 -0.3971 -0.1303
81005W        W81869  22.036  26.042  17.022  0.4576  0.1462 -0.2046
81006W        W81870  17.120   7.211  13.711 -0.0442 -0.2014  0.1206
81007W        W81871  16.317  14.231  28.875 -0.0605 -0.2251  0.0467
81008W        W81872  26.689  14.914   9.945 -0.0341 -0.0629  0.1652
81009W        W81873  11.207   1.421  20.955 -0.1805  0.1185 -0.0298
81010W        W81874   0.098  27.805   5.347 -0.2208  0.2373 -0.0230
81011W        W81875  23.581  28.576   8.825  0.1600 -0.0384  0.1872
81012W        W81876  13.738  10.392  27.606 -0.2622 -0.4277 -0.3472
81013W        W81877   9.104   3.634  17.560 -0.1614 -0.4311  0.1824
81014W        W81878  14.493  22.347  12.641  0.0287 -0.1270 -0.0165
81015W        W81879   9.503   0.255   3.843 -0.0511 -0.0708  0.0229
81016W        W81880  11.659   2.864   7.839 -0.0072  0.0672  0.2962
81017W        W81881  21.215   0.962  28.671  0.2249 -0.0915 -0.0695
81018W        W81882  16.652   7.085  25.307 -0.1491 -0.2667  0.0125
81019W        W81883  26.702  24.527   2.850  0.1762  0.2687  0.0063
81020W        W81884  28.571  26.183   8.957 -0.1365 -0.2329 -0.3274
81021W        W81885  28.541   2.110  10.478 -0.1259 -0.0271  0.3600
81022W        W81886  12.919   6.239   8.029 -0.2974 -0.1880 -0.0214
81023W        W81887   5.486  22.837  18.343 -0.0828 -0.1819  0.1715
81024W        W81888  20.140  17.434   8.694 -0.1185 -0.0260  0.2100
81025W        W81889   9.656   8.392  17.184 -0.3821 -0.1949 -0.0339
81026W        W81890   7.058   2.537   8.114 -0.0427  0.0489  0.2404
81027W        W81891   7.301  21.119  15.528  0.1785  0.0896 -0.1389
81028W        W81892   3.163   0.696   5.476 -0.1219  0.0957  0.1892
81029W        W81893  22.342   2.392  26.244 -0.0702 -0.0280 -0.0545
81030W        W81894  22.015  23.438  14.795  0.2366  0.1436 -0.0220
81031W        W81895  21.362  22.606  11.608 -0.0167 -0.2210 -0.0270
81032W        W81896   7.760   5.702   7.760 -0.0015 -0.3333 -0.0441
81033W        W81897   8.040  22.399   1.574 -0.1426  0.0903  0.2062
81034W        W81898  13.040  18.167  24.439  0.0232  0.1852 -0.0598
81035W        W81899  29.047   6.294  23.990 -0.0725 -0.2252  0.0121
81036W        W81900  27.230   6.499  14.910  0.0683  0.0366  0.0342
81037W        W81901  14.706   8.697  25.027  0.0164  0.0385  0.0128
81038W        W81902  21.912  17.923  21.481  0.0184 -0.4215 -0.1888
81039W        W81903  11.894   2.243  28.123  0.0176 -0.0367 -0.1466
81040W        W81904  29.021  15.943  21.632  0.1739 -0.0360 -0.2493
81041W        W81905  19.614  14.978   2.640 -0.0754 -0.1748  0.1862
81042W        W81906  16.197  16.290  11.079  0.2615  0.0929 -0.1518
81043W        W81907   6.066  24.009  20.387 -0.0584 -0.0145 -0.0277
81044W        W81908   1.809  23.873  14.923 -0.2005 -0.1308  0.0582
81045W        W81909  10.206  26.298  12.338 -0.1081 -0.3117  0.0406
81046W        W81910  14.974   8.801  17.667  0.1371  0.0333 -0.0666
81047W        W81911  27.431  10.734  12.066  0.0581  0.3100 -0.1573
81048W        W81912  23.855  23.012   1.820  0.0976  0.0864 -0.4530
81049W        W81913  17.592   0.552  17.132  0.1391 -0.4099 -0.0376
81050W        W81914  28.807  16.823  17.039 -0.0090  0.0144  0.1219
81051W        W81915   0.357  12.766   9.135 -0.0483  0.0022  0.4274
81052W        W81916  13.994   1.915  15.881 -0.0820 -0.2376 -0.0117
81053W        W81917  17.045  20.981   0.298  0.2558  0.3867 -0.2580
81054W        W81918   4.807  26.039  20.613 -0.1406 -0.2083 -0.2202
81055W        W81919  25.659  21.322  21.587  0.3643 -0.2813 -0.3704
81056W        W81920  20.969   0.460  19.522 -0.0804 -0.0924  0.3079
81057W        W81921   2.210  27.234   9.393  0.3681 -0.1755 -0.0683
81058W        W81922   4.737  23.892   8.968  0.2682  0.2817 -0.2142
81059W        W81923  23.535  21.281  10.342 -0.1088  0.2132  0.0159
81060W        W81924  17.930  20.027  12.946  0.0933 -0.0688  0.0391
81061W        W81925  23.249   0.603  12.057  0.0237 -0.1923 -0.1197
81062W        W81926  19.714  26.653  13.688  0.0727 -0.0692 -0.5456
81063W        W81927   5.519   5.075  16.598 -0.2428 -0.3464  0.0307
81064W        W81928   1.829  24.463  23.564  0.1399  0.1343 -0.1506
81065W        W81929  13.521  14.968  24.855 -0.1337  0.0962 -0.1324
81066W        W81930  26.092   3.703  18.794 -0.1084 -0.0024 -0.2338
81067W        W81931   4.281  22.900  15.544 -0.1046  0.0163 -0.0404
81068W        W81932  18.664  21.565   3.087 -0.0487  0.1874  0.1496
81069W        W81933  16.484  15.785  28.364 -0.1754  0.3246  0.0070
81070W        W81934  15.304  10.729  28.449 -0.0379 -0.1861  0.4118
81071W        W81935  28.554  25.500  26.905  0.0247  0.0228 -0.1032
81072W        W81936   0.801  14.776  12.019  0.0554 -0.3083  0.2663
81073W        W81937   0.526  29.041   1.685 -0.0731  0.0611  0.2495
81074W        W81938   0.949  25.691   6.158 -0.0473  0.1012  0.1575
81075W        W81939  27.511  27.002  11.026 -0.3447 -0.0404 -0.1993
81076W        W81940  26.021   2.834   3.321 -0.0017  0.1142 -0.3241
81077W        W81941  28.911   1.095   5.232 -0.2555 -0.0079 -0.2264
81078W        W81942   1.029  21.776  26.263 -0.1010  0.0758  0.3849
81079W        W81943  17.533  27.932  22.744 -0.5173  0.0147 -0.1252
81080W        W81944  27.791  24.455  12.800 -0.1648  0.0711  0.0926
81081W        W81945   0.036   7.307   7.658 -0.0986  0.0187 -0.1070
81082W        W81946  11.197  15.119  25.485  0.0003  0.1632  0.3040
81083W        W81947  17.512  22.992   4.207  0.0583  0.3114 -0.0462
81084W        W81948  14.752  28.162  14.099 -0.1450  0.0825  0.2427
81085W        W81949  19.731   4.570  19.039  0.0807 -0.1123 -0.3547
81086W        W81950   2.389   9.206   4.381  0.1447 -0.0585 -0.1240
81087W        W81951   5.439  26.754   8.977 -0.0340  0.2627 -0.0184
81088W        W81952   3.504  19.087  28.612 -0.2959 -0.0585 -0.1978
81089W        W81953  18.715  15.308  17.895 -0.0773 -0.0821 -0.0630
81090W        W81954  28.870   6.176  16.984 -0.1164  0.2630  0.2029
81091W        W81955   1.325   3.486   2.949  0.0420 -0.0275 -0.1708
81092W        W81956  17.597  17.063   8.566 -0.0550  0.1679  0.3199
81093W        W81957  20.156   3.969  10.771 -0.0094 -0.0009  0.1183
81094W        W81958  26.517  16.998  14.396 -0.1014  0.0874  0.1168
81095W        W81959  24.769  22.950   2.297 -0.0578  0.2171 -0.1982
81096W        W81960  18.014   1.279   6.629  0.1617  0.0792  0.3029
81097W        W81961  10.533  25.572  13.865  0.0546  0.1326 -0.0065
81098W        W81962   4.644  14.825  11.740 -0.0271 -0.1266  0.0046
81099W        W81963   2.999   2.005  14.225 -0.0088  0.1406 -0.0570
81100W        W81964  21.884  17.309  19.158 -0.0227  0.0177  0.3591
81101W        W81965   3.746  24.913  27.172 -0.3309  0.4022  0.1020
81102W        W81966  24.799  16.014   6.158  0.0548  0.1007  0.1599
81103W        W81967  25.451   5.080   7.882  0.0282  0.0441 -0.5945
81104W        W81968  28.528  28.884  21.509  0.1234 -0.0524 -0.0783
81105W        W81969  12.750   8.438  23.438  0.0745 -0.1415  0.1732
81106W        W81970  18.757  22.505   1.553  0.1063 -0.1394  0.0157
81107W        W81971  23.954  15.070  25.572  0.0525 -0.2163  0.0657
81108W        W81972  20.980  28.191  21.221 -0.0015  0.1799  0.1617
81109W        W81973  21.292   7.381  28.482 -0.0911 -0.4562 -0.1181
81110W        W81974  25.314   2.838   0.490  0.2128  0.2580  0.2862
81111W        W81975  21.620   7.939  25.636  0.0964 -0.0439  0.1194
81112W        W81976  10.361  26.411  20.642  0.0334 -0.2828 -0.1930
81113W        W81977  25.034   8.059  22.497 -0.0053 -0.0273 -0.2057
81114W        W81978  23.086  11.426  22.339 -0.0035 -0.0508  0.1318
81115W        W81979   2.949   3.233   3.175 -0.1556 -0.0391  0.0651
81116W        W81980  29.110   6.950  26.175 -0.0927  0.4008 -0.1091
81117W        W81981  25.128   2.081  11.259 -0.1190  0.0783  0.4146
81118W        W81982   0.882  29.084  24.816  0.0467 -0.1770  0.2775
81119W        W81983  17.326   5.149   3.835 -0.0913  0.2233 -0.0921
81120W        W81984  11.626   7.034  19.379 -0.2884  0.2205  0.2205
81121W        W81985   0.716   1.685  14.630 -0.0003 -0.0462  0.1501
81122W        W81986  23.943  17.565  17.725  0.2126 -0.1524  0.3427
81123W        W81987  10.555   8.271  18.145 -0.1900  0.1776 -0.2205
81124W        W81988  24.068  25.515  12.176  0.0864  0.2128  0.0511
81125W        W81989  23.964  14.627  28.354  0.1125  0.0992 -0.0894
81126W        W81990   3.698  26.776   5.934 -0.0542  0.0664  0.0538
81127W        W81991   6.914  12.684  12.183  0.0446 -0.0710  0.0457
81128W        W81992   1.342  28.493  19.150  0.0040 -0.2244 -0.1102
81129W        W81993   4.364  16.619  10.418 -0.0855 -0.0832 -0.1025
81130W        W81994   6.111   5.333  27.258  0.1265  0.2168 -0.0813
81131W        W81995  10.618   3.177  25.074 -0.1866  0.0858 -0.0831
81132W        W81996  18.799   1.052  17.925  0.0784  0.1013 -0.0595
81133W        W81997  23.895   6.457  22.374  0.0755  0.0323 -0.0937
81134W        W81998  23.936   6.600   0.301 -0.0381  0.2711  0.0515
81135W        W81999  23.050  22.925   7.959 -0.2881 -0.2689  0.1067
81136W        W82000   5.239   3.433   6.628 -0.0322  0.1077  0.0450
81137W        W82001   0.509   7.163  15.461 -0.1119  0.0291 -0.2394
81138W        W82002   7.184  12.174  13.104 -0.0355  0.3599 -0.0078
81139W        W82003  10.187  15.516  20.012 -0.0302 -0.0500  0.3085
81140W        W82004   6.574  17.576  21.895  0.1275  0.1643 -0.1222
81141W        W82005  20.162   1.142  24.879 -0.3998 -0.4001 -0.1814
81142W        W82006  15.137  11.464  25.550 -0.4180  0.0143 -0.5911
81143W        W82007  27.926  11.944  27.765  0.1830  0.1082 -0.0706
81144W        W82008   2.379  13.551  16.946  0.1595 -0.3449 -0.1600
81145W        W82009  25.116  19.547  12.457 -0.0873 -0.3262 -0.0406
81146W        W82010  10.246  24.620  22.685 -0.1887  0.0856  0.3298
81147W        W82011  27.761  27.155  28.839  0.3088 -0.2393  0.0523
81148W        W82012   1.458  26.413   0.967 -0.0409  0.0029  0.2506
81149W        W82013  12.114   7.269  19.144  0.0119  0.2542 -0.1119
81150W        W82014  23.507  19.680  23.556 -0.0609 -0.4518 -0.0747
81151W        W82015   0.907  10.104   0.168 -0.0721  0.1179  0.0795
81152W        W82016  18.639  17.145  11.812  0.0501 -0.1472 -0.3426
81153W        W82017  15.880  10.071  14.663  0.0411 -0.0266 -0.1180
81154W        W82018  21.134  28.015   7.523 -0.0345 -0.0076 -0.0934
81155W        W82019   8.117  11.131  21.926  0.3318 -0.0661  0.2677
81156W        W82020  15.188  14.551   9.217  0.2743 -0.3669 -0.4092
81157W        W82021   0.667  22.559   1.859 -0.0409 -0.0027  0.0648
81158W        W82022  20.159   5.501  12.254 -0.1579  0.1709 -0.0774
81159W        W82023  18.784  22.122   7.160 -0.0115 -0.1616  0.1005
81160W        W82024   8.956  26.795  20.737  0.1828  0.0278  0.2389
81161W        W82025   2.549   5.699  23.879 -0.0977 -0.3073 -0.2412
81162W        W82026  24.702  26.388  26.180  0.0197 -0.1265  0.0496
81163W        W82027  24.878   0.426   5.739 -0.1648 -0.3364  0.2471
81164W        W82028   1.653  21.257  27.255 -0.0155  0.1857 -0.2557
81165W        W82029  19.572  26.948  16.188 -0.2082 -0.1034  0.3146
81166W        W82030  28.856  28.221   0.187  0.2327  0.1340  0.0608
81167W        W82031   1.782  25.405  13.650 -0.0957  0.3116  0.1085
81168W        W82032   9.881  27.524  20.975  0.0161 -0.0957  0.3148
81169W        W82033   1.254   8.813  19.861  0.1286 -0.0606 -0.2677
81170W        W82034  23.824   8.992   2.433 -0.3706  0.1329  0.1122
81171W        W82035   1.056  25.366  27.571 -0.2829 -0.0879  0.4194
81172W        W82036  15.555  10.738  27.801  0.1334 -0.0203  0.0174
81173W        W82037  10.940  10.115  13.219  0.1013 -0.0420  0.2034
81174W        W82038  20.022  18.602   3.706  0.1052  0.1119 -0.0090
81175W        W82039  22.194  26.305  18.272 -0.1141  0.1832 -0.1758
81176W        W82040  10.874  21.060   5.545 -0.0250  0.0663 -0.1280
81177W        W82041  20.622  18.245   9.615 -0.0384 -0.1203 -0.1292
81178W        W82042  18.717   4.127  10.322  0.0306  0.4279  0.1277
81179W        W82043  18.608   1.105   1.236 -0.2275 -0.1641  0.2417
81180W        W82044  11.728  23.719  29.034  0.1541  0.1369 -0.5424
81181W        W82045   6.728  21.869   5.626  0.4424  0.1249  0.2210
81182W        W82046  17.564   5.498   4.120  0.1278  0.2957 -0.0378
81183W        W82047  27.365  24.609   5.630  0.3370  0.3521  0.1579
81184W        W82048  27.363   7.749  21.912  0.3162 -0.1759 -0.1658
81185W        W82049   7.255  22.891  16.363  0.0523 -0.0773  0.1707
81186W        W82050   9.624   1.251   4.288  0.0726  0.1189 -0.1776
81187W        W82051  13.496   7.148  17.467 -0.1622 -0.2561  0.0454
81188W        W82052   4.775  10.668   3.559  0.0254 -0.0301  0.0636
81189W        W82053  20.178  20.425  11.780 -0.0135 -0.1492  0.1376
81190W        W82054   1.582  12.512  17.248  0.2251  0.0688 -0.0630
81191W        W82055   1.335  12.994  13.859  0.2892  0.3156  0.2106
81192W        W82056   1.933  17.446   6.565  0.2335 -0.0535 -0.2852
81193W        W82057   5.439  26.043  10.636  0.0649  0.0278  0.3600
81194W        W82058   1.796   6.468   5.152  0.1760 -0.0310 -0.1086
81195W        W82059  18.423  20.352  17.256  0.0285  0.2759 -0.2099
81196W        W82060  20.316   4.288   7.213  0.4035  0.2652 -0.1972
81197W        W82061  23.811   6.522   6.487  0.0561  0.1622  0.0460
81198W        W82062  28.584   2.874   8.310  0.0063  0.0572  0.0314
81199W        W82063   6.229   2.153  16.152 -0.2924  0.1785 -0.2938
81200W        W82064  18.553  11.148  22.254 -0.1699 -0.3218  0.1609
81201W        W82065  17.490  10.078  14.329  0.1502  0.1126  0.0198
81202W        W82066  20.358  12.142  14.142 -0.1717 -0.1865  0.2253
81203W        W82067  27.535  22.765  27.374 -0.3005 -0.0024  0.2701
81204W        W82068  17.665   1.974  25.570  0.1815  0.3518 -0.1761
81205W        W82069  12.441   9.207  15.972 -0.1059 -0.0262  0.4524
81206W        W82070   1.693  24.545  27.254  0.0030 -0.0102 -0.0983
81207W        W82071  21.561  19.222  12.009  0.3223 -0.0311 -0.0165
81208W        W82072  25.132   8.491  10.000 -0.1561 -0.2622 -0.4035
81209W        W82073   5.334   1.627  24.796 -0.1409 -0.1164 -0.2306
81210W        W82074  17.176   8.822  18.505  0.0092 -0.2276  0.1331
81211W        W82075   4.713   1.910  15.744  0.0375 -0.2318 -0.0635
81212W        W82076  13.500   8.088  21.999 -0.1886  0.2673 -0.4116
81213W        W82077  24.822   5.585  24.114 -0.2341 -0.0149 -0.0313
81214W        W82078  25.083  24.328  23.386 -0.0981  0.1257 -0.0733
81215W        W82079  23.970  25.869   5.449 -0.0558 -0.3464 -0.0201
81216W        W82080  19.418  25.490  20.376 -0.0939 -0.2140 -0.0336
81217W        W82081   5.348  22.460  17.817  0.0415 -0.1840 -0.3242
81218W        W82082  20.478   2.149   4.734  0.0377  0.0200  0.0127
81219W        W82083   0.536  26.851   9.417 -0.4176 -0.2243  0.0718
81220W        W82084  12.184   1.181  25.269 -0.2002 -0.2091  0.0671
81221W        W82085  26.720   4.887  15.123  0.3742 -0.0342 -0.1218
81222W        W82086   2.372  22.564  22.109  0.0104  0.2095 -0.1578
81223W        W82087   0.242  16.663  10.969 -0.4165  0.3072 -0.0512
81224W        W82088  28.683  19.411  23.137  0.0608 -0.0765 -0.1549
81225W        W82089  22.414   5.712   7.311 -0.0674  0.2636  0.0116
81226W        W82090   2.753  27.708   2.816  0.0570 -0.0642 -0.3551
81227W        W82091   4.640   4.836   3.239  0.1747  0.1500  0.0399
81228W        W82092  21.230   3.158  26.819 -0.0205 -0.1194 -0.4508
81229W        W82093  10.716  10.321  21.100 -0.0752 -0.1327 -0.3551
81230W        W82094   8.132  13.249  25.982  0.1669 -0.0818 -0.1421
81231W        W82095  29.072  10.190   3.112 -0.1112 -0.2502 -0.1411
81232W        W82096  25.678   3.831  15.881 -0.1256 -0.1133  0.2028
81233W        W82097  21.146  28.052  22.630  0.2019 -0.1571 -0.2863
81234W        W82098  15.500  24.578   0.309  0.0088 -0.2338 -0.2186
81235W        W82099  24.240   9.632  26.167  0.0449  0.0411 -0.2624
81236W        W82100   2.557  11.913   4.323  0.4312  0.2563  0.2007
81237W        W82101  11.644   4.403   4.664 -0.0485  0.2472 -0.0701
81238W        W82102   0.882   1.066   7.272  0.0268  0.1224 -0.3407
81239W        W82103   5.155  20.811  21.128  0.2181  0.1164 -0.1357
81240W        W82104  12.438  12.085   8.785  0.0071  0.0440  0.0129
81241W        W82105  23.756  16.115  21.700  0.1448 -0.2258  0.3309
81242W        W82106   6.920  27.754  10.014 -0.0552 -0.1666 -0.0784
81243W        W82107  10.295  20.296  15.023 -0.2140 -0.2603  0.1648
81244W        W82108  26.762  25.982  14.460  0.2018 -0.0132  0.0392
81245W        W82109   3.271   6.565  24.588 -0.0362 -0.0070  0.2772
81246W        W82110  10.302   4.762  10.216 -0.0212  0.0134 -0.2629
81247W        W82111  26.734  18.603  20.270  0.0339  0.0231  0.3696
81248W        W82112  12.236   9.815  10.207 -0.2256 -0.0072  0.0034
81249W        W82113  19.759  18.557  11.470 -0.3814 -0.1507 -0.2037
81250W        W82114  19.053   8.477  24.778  0.1705  0.2702 -0.2113
81251W        W82115  18.541  22.272  20.853  0.0271  0.1031  0.1483
81252W        W82116  27.184  20.756   9.512  0.1148  0.0098 -0.2883
81253W        W82117   3.854   9.574  15.992  0.0795 -0.1092  0.0846
81254W        W82118  21.755  21.795  10.568  0.1042 -0.1190 -0.2860
81255W        W82119  21.255  23.088  18.863 -0.1636  0.0208 -0.2008
81256W        W82120   0.291  26.880  15.995  0.1172 -0.0242 -0.1360
81257W        W82121  28.791  27.570  23.363  0.3218  0.1701  0.0805
81258W        W82122   3.652  15.090  10.067  0.1742  0.0382 -0.2562
81259W        W82123   7.966   2.202  11.835  0.2505 -0.0504 -0.0288
81260W        W82124   7.722  15.622   1.429  0.2105 -0.1340  0.1709
81261W        W82125  26.357   0.677   2.544  0.1757 -0.1900 -0.1774
81262W        W82126  17.861  25.953  15.511 -0.0571 -0.1350 -0.0794
81263W        W82127  21.855  27.908  16.906  0.2948 -0.2193 -0.2130
81264W        W82128   1.403  22.430   6.990  0.4003  0.4836  0.1960
81265W        W82129  20.820   8.525  12.723  0.2628 -0.0247  0.1160
81266W        W82130   3.219   7.068  28.444  0.0815  0.0412  0.1202
81267W        W82131  28.453   8.991  25.859 -0.2074  0.1155  0.3312
81268W        W82132  17.181  14.317  18.166  0.0139  0.1440  0.1622
81269W        W82133  26.465  13.892  27.539 -0.0557 -0.0768 -0.1219
81270W        W82134  26.972   2.536  11.292 -0.3341 -0.1144 -0.2319
81271W        W82135   3.369  27.233  21.631  0.2463 -0.0501  0.1399
81272W        W82136   1.336   4.226  24.006 -0.1865  0.0251 -0.0380
81273W        W82137  10.363   4.168  18.701  0.1270  0.0459 -0.1701
81274W        W82138  17.160  24.962  17.787  0.1240 -0.0905 -0.1297
81275W        W82139  25.331  11.518   4.602  0.0364 -0.0198  0.0504
81276W        W82140  12.296  19.629   3.302  0.1778  0.1714 -0.1287
81277W        W82141  14.160  11.630  10.086 -0.0307 -0.1538  0.1529
81278W        W82142   0.848  10.370  28.358 -0.0258 -0.0958 -0.2044
81279W        W82143  15.713   2.103   6.344  0.1214  0.2255  0.0704
81280W        W82144  28.260  11.817  13.390 -0.2833  0.1123  0.0745
81281W        W82145  27.890  26.583   1.709  0.2241 -0.0346 -0.2069
81282W        W82146  12.889   3.683   3.497 -0.1795  0.0056  0.0490
81283W        W82147   0.867  15.367  21.802 -0.5116 -0.1728 -0.0623
81284W        W82148   0.807   4.507   5.129  0.0751 -0.2602  0.0746
81285W        W82149  23.755  23.409  19.157 -0.0209  0.1123  0.2634
81286W        W82150   0.435  11.503   1.233  0.1867 -0.3597  0.2192
81287W        W82151   0.928   4.337  11.188  0.0678  0.0242  0.4504
81288W        W82152   9.834  23.590   9.507  0.1313 -0.0104 -0.0460
81289W        W82153  24.857  18.541   2.418  0.0003 -0.0356 -0.0654
81290W        W82154  25.954  13.715   8.703  0.2857  0.3142 -0.1047
81291W        W82155   4.068   2.776  12.970 -0.2595 -0.1183 -0.0269
81292W        W82156   5.216  19.937   9.627 -0.1698 -0.0948 -0.0201
81293W        W82157  18.916   1.962  27.003 -0.1054  0.0161 -0.3428
81294W        W82158   7.192   1.532  12.792  0.1636 -0.0298 -0.3274
81295W        W82159  12.269   5.934  17.300 -0.2865 -0.1552 -0.0526
81296W        W82160  24.063  12.760  25.665 -0.0089 -0.0112  0.0484
81297W        W82161   0.307  25.414   5.504 -0.2990  0.0315  0.2719
81298W        W82162   2.676  16.669  19.734 -0.2173 -0.4149  0.2862
81299W        W82163  15.235   2.140  16.841 -0.0674 -0.2320  0.0875
81300W        W82164  17.005  10.458   6.009 -0.3125 -0.0474 -0.1504
81301W        W82165  29.017  26.801  24.275 -0.0522 -0.0155 -0.0025
81302W        W82166  16.779  16.784   8.593  0.0145 -0.0812 -0.3929
81303W        W82167  16.490   7.095  13.440  0.1002 -0.0128 -0.1806
81304W        W82168  17.892  25.146  21.659  0.0055 -0.0100  0.1821
81305W        W82169   3.383   1.222   4.217 -0.0160 -0.1432 -0.1187
81306W        W82170  20.990   0.562   3.965 -0.0537 -0.0481 -0.1593
81307W        W82171  25.890  14.356  22.396 -0.0244  0.0288  0.1067
81308W        W82172  29.060  14.578  14.897  0.1558 -0.1665 -0.0872
81309W        W82173  19.596  12.979  23.877 -0.1754 -0.1287  0.2048
81310W        W82174   1.961  29.116  26.325 -0.1524  0.2562  0.0772
81311W        W82175   1.063  28.502  29.017 -0.0881  0.0291  0.1485
81312W        W82176  24.789  21.825  23.125 -0.3805  0.1174  0.0047
81313W        W82177  22.093   5.216  20.555  0.0638  0.1361 -0.1497
81314W        W82178   3.588   9.190  22.985  0.1711 -0.2194 -0.3766
81315W        W82179   1.429  12.094  11.589  0.1001  0.0788  0.0963
81316W        W82180  21.483  17.270   8.597 -0.1245  0.1304  0.2420
81317W        W82181  28.503  20.984  12.214  0.2649  0.2385  0.2207
81318W        W82182   3.856  24.998   7.180  0.0770  0.0635 -0.1381
81319W        W82183  13.570  27.590   6.724  0.1286 -0.0556 -0.1610
81320W        W82184   4.294   3.833   6.598 -0.0002 -0.0205  0.0365
81321W        W82185  17.541  24.637   2.611 -0.0503 -0.0122  0.0552
81322W        W82186   6.961   1.898  24.079  0.2526 -0.0037  0.4601
81323W        W82187   8.040  24.980   1.401  0.4433 -0.3410 -0.1060
81324W        W82188   3.049  24.511   3.313 -0.0309 -0.0271  0.2500
81325W        W82189   3.677  20.407  12.647  0.2741 -0.2399 -0.1669
81326W        W82190  23.028   9.878  14.164 -0.0050  0.2169  0.3480
81327W        W82191   5.703  23.973  15.033 -0.2668  0.1660  0.0844
81328W        W82192   6.343  13.037   7.906 -0.0973 -0.0623 -0.0222
81329W        W82193  13.772   9.898  15.542 -0.3683 -0.1889 -0.0024
81330W        W82194   8.016   6.911  23.919 -0.2484  0.2483  0.0100
81331W        W82195  12.920   8.428  11.562  0.0794 -0.1522  0.0102
81332W        W82196  17.716   1.137  26.677 -0.3244 -0.2137 -0.1956
81333W        W82197   2.654  18.124  16.893  0.1864 -0.0406 -0.1528
81334W        W82198  23.705  14.648  14.938  0.1337 -0.1440 -0.1947
81335W        W82199  26.731   5.441   9.283 -0.1032 -0.2008 -0.3493
81336W        W82200  25.137  10.940  25.119  0.2850 -0.0809 -0.1029
81337W        W82201   4.087  24.999  15.121  0.0953 -0.0403  0.0524
81338W        W82202   2.447   0.103  20.742 -0.2078 -0.2383 -0.0478
81339W        W82203  19.987   7.626  18.984 -0.0631  0.0868  0.1156
81340W        W82204  18.387  20.951  11.047  0.0136  0.0181  0.1312
81341W        W82205   9.499  10.711  14.156 -0.1742  0.0858 -0.0854
81342W        W82206   1.747  23.848  22.548 -0.1158  0.2751  0.0382
81343W        W82207  23.290   1.860  22.308  0.2636  0.2463 -0.6046
81344W        W82208   7.545  12.022  19.896  0.1616 -0.2873  0.0788
81345W        W82209  13.566  26.073   7.758 -0.1722 -0.1178 -0.1191
81346W        W82210  28.575  18.828  22.297 -0.2052 -0.2076  0.1812
81347W        W82211   6.475  12.577  15.712 -0.5592  0.1217  0.0687
81348W        W82212   1.415  15.493  11.121  0.0342  0.2562  0.1933
81349W        W82213  17.151  20.274  14.521 -0.0557 -0.0859  0.2747
81350W        W82214  24.662  21.347  25.262 -0.0891 -0.1375 -0.2324
81351W        W82215   4.291  15.017  12.121 -0.0293 -0.1193 -0.1129
81352W        W82216  26.041   7.282  15.154 -0.2072 -0.0161 -0.0588
81353W        W82217   8.166  28.616  19.948  0.0391  0.2285 -0.2069
81354W        W82218   2.103  23.598   2.035  0.0068  0.1572  0.2139
81355W        W82219  15.061  21.624  13.009  0.1449  0.1361  0.0869
81356W        W82220  22.158  16.186  24.125  0.2115 -0.0355  0.2082
81357W        W82221  17.053  20.436   1.276  0.2473 -0.1646 -0.0240
81358W        W82222  20.763  15.050   8.624  0.3873  0.0675 -0.0841
81359W        W82223   1.982   1.951  17.900 -0.2025  0.0392  0.1722
81360W        W82224  27.072  19.640   9.413  0.0914 -0.2626 -0.3469
81361W        W82225  13.245   8.575  22.100 -0.4617 -0.0229 -0.1485
81362W        W82226  22.118  16.226   3.386  0.2031 -0.2907 -0.1002
81363W        W82227  18.463  12.863  21.915 -0.2125  0.2298  0.1620
81364W        W82228   1.679  23.365   0.611  0.0586  0.0734 -0.0628
81365W        W82229  18.508   6.348  27.421  0.2623  0.4461 -0.0805
81366W        W82230  24.742   1.567  20.924 -0.0129  0.0983 -0.1323
81367W        W82231  16.757  19.825   8.176  0.4351 -0.0408 -0.3430
81368W        W82232   2.657  19.215   4.636  0.0396  0.0926 -0.2315
81369W        W82233  14.098  11.208  28.665  0.1600 -0.0415 -0.0703
81370W        W82234   1.597   4.426  22.070  0.3578  0.0181 -0.0674
81371W        W82235  16.766  22.795  23.824 -0.0737 -0.0161  0.0006
81372W        W82236  17.234  22.751   8.398 -0.0046  0.0517  0.1141
81373W        W82237  21.070  15.797  19.431  0.3183 -0.0533 -0.1780
81374W        W82238  28.816   5.252  10.721 -0.1638  0.0737 -0.0957
81375W        W82239  16.832  10.680   9.111 -0.1340 -0.0979 -0.0846
81376W        W82240   5.652  12.167  21.174  0.0017  0.2138 -0.1404
81377W        W82241  28.299   8.936  14.786 -0.5124  0.1004  0.0801
81378W        W82242  21.870  27.642  28.256 -0.2240 -0.0596  0.1242
81379W        W82243   1.027   3.222  19.137  0.0189  0.1693  0.1963
81380W        W82244  23.506   5.866  24.615 -0.2390  0.1916  0.0429
81381W        W82245  24.599  16.039  19.166 -0.0247  0.0154  0.0448
81382W        W82246  21.738  12.337  23.374  0.0959  0.1182  0.1033
81383W        W82247   7.729  21.843   7.680  0.1177 -0.2873 -0.2449
81384W        W82248  26.653   6.158  24.998 -0.2306 -0.1603 -0.1620
81385W        W82249  22.785  25.580  25.642  0.3376  0.0073 -0.0914
81386W        W82250  15.948  24.995  21.240  0.0314 -0.3513 -0.0377
81387W        W82251  18.863  24.458  15.197 -0.0887 -0.1466  0.2230
81388W        W82252   4.892  15.446  19.248 -0.1527  0.1056  0.1041
81389W        W82253  28.911   8.767  10.506  0.0117 -0.0306 -0.1690
81390W        W82254   3.902   7.504  26.053 -0.0257 -0.0758 -0.1059
81391W        W82255  22.763   6.031   5.674  0.1520 -0.1111 -0.1924
81392W        W82256   6.003  24.377   9.531 -0.2432 -0.1760 -0.0086
81393W        W82257  22.669  18.897  15.327 -0.0587 -0.0021  0.2528
81394W        W82258  27.920  21.183  21.232  0.0948  0.1423  0.3137
81395W        W82259  23.655   5.342  25.705  0.3687 -0.0561 -0.1651
81396W        W82260   5.363  21.935  19.685 -0.3403  0.1973 -0.1051
81397W        W82261   0.425  24.435  16.693 -0.0183 -0.1411  0.0976
81398W        W82262   1.401   8.230   0.713  0.1703  0.0485  0.0237
81399W        W82263   8.557  16.684  27.443 -0.0935 -0.0152  0.0392
81400W        W82264   7.830  24.538  26.084 -0.2765 -0.0921 -0.3421
81401W        W82265   7.023  24.245  26.197  0.1326 -0.0535  0.1675
81402W        W82266  16.764   3.271  22.240 -0.0782 -0.3002  0.3284
81403W        W82267   6.754  21.023  19.441 -0.0632 -0.1905  0.1830
81404W        W82268  18.517  18.172  21.751  0.3873 -0.1752 -0.0537
81405W        W82269  19.624  21.101  12.341 -0.0931 -0.0939 -0.2063
81406W        W82270  11.036  14.750  18.807  0.2189  0.0333  0.0768
81407W        W82271   4.888   3.416   1.405  0.0343 -0.2181  0.1081
81408W        W82272   7.523  19.904  25.017 -0.3318 -0.1982  0.2346
81409W        W82273   2.942  27.930  16.553  0.1235  0.0425 -0.2442
81410W        W82274   7.568   5.394   2.066  0.2088  0.2456 -0.1261
81411W        W82275  15.005  14.193  11.385  0.0938 -0.0581  0.0455
81412W        W82276  17.005  19.629  13.249  0.1759 -0.0998  0.1547
81413W        W82277   1.487   9.359  27.132  0.2333  0.8384 -0.3531
81414W        W82278  23.636  16.733  20.006  0.1499 -0.1490  0.2630
81415W        W82279  28.799  20.314   3.999 -0.1573 -0.0697 -0.0691
81416W        W82280   6.579  24.244  24.822 -0.0191 -0.2696 -0.0172
81417W        W82281  14.642  26.073  16.372 -0.1437 -0.0876 -0.1279
81418W        W82282  22.994   0.311  20.683 -0.0963  0.1304  0.3027
81419W        W82283  15.198  13.822  10.556 -0.3782  0.2172 -0.0097
81420W        W82284  21.873  22.679  20.974  0.1952  0.1809  0.0059
81421W        W82285   3.344  26.398  14.842  0.0653  0.2234 -0.1368
81422W        W82286   0.788  16.612  25.857 -0.0077 -0.1946  0.0947
81423W        W82287  21.799   0.791  23.877  0.1066 -0.2437  0.0261
81424W        W82288  24.181  23.511  19.487  0.0060 -0.0559 -0.0753
81425W        W82289   4.689  27.202  25.371  0.1769 -0.0854 -0.0036
81426W        W82290  27.870  14.709  21.123  0.4232 -0.2249 -0.1646
81427W        W82291  10.723   0.864  18.878  0.1150 -0.3131  0.0049
81428W        W82292  14.987  19.918  12.282 -0.0094 -0.0863 -0.1259
81429W        W82293  22.704  12.039   9.053  0.0957  0.1260 -0.2517
81430W        W82294   3.447   2.634  23.472  0.0315 -0.2473 -0.1303
81431W        W82295  22.190  17.269  15.977  0.1199  0.0133  0.2965
81432W        W82296  11.956  27.020   2.624  0.2190 -0.4272 -0.0442
81433W        W82297   8.376  18.675   7.867 -0.1882 -0.1073  0.5597
81434W        W82298  26.305  14.863  21.315  0.1876  0.1116  0.2723
81435W        W82299  11.451  27.918  28.415  0.0270  0.0456  0.0759
81436W        W82300  14.769   4.703  13.043  0.0758  0.0208  0.1062
81437W        W82301  12.101  17.778  20.560  0.0022  0.0677  0.0801
81438W        W82302  23.706   9.310  20.982 -0.2694  0.0604 -0.0647
81439W        W82303   7.991  23.932   5.876 -0.0729 -0.1636 -0.1045
81440W        W82304  23.304   2.336  22.691  0.3824  0.0411 -0.2955
81441W        W82305   4.367  17.626  25.202 -0.0606 -0.2938 -0.1803
81442W        W82306   1.538  28.426  27.074  0.0488  0.1011 -0.0215
81443W        W82307  25.606  23.143   7.120 -0.2763  0.1858 -0.0791
81444W        W82308  28.662  24.505  15.956 -0.0857  0.1763 -0.1045
81445W        W82309  23.742  22.624   6.625  0.2291  0.0934  0.0049
81446W        W82310  12.331  18.944  16.662  0.3765  0.0368 -0.0532
81447W        W82311  19.023   8.358  28.286 -0.2456  0.2792  0.1393
81448W        W82312  25.032   8.638  14.245  0.0453  0.0533  0.0097
81449W        W82313  18.918  28.300  23.817 -0.1946  0.1413  0.2036
81450W        W82314  27.515   0.645  11.322 -0.1820  0.2885 -0.0662
81451W        W82315   0.610  14.640  17.521  0.1248 -0.2186  0.1825
81452W        W82316   2.856   7.265  19.112  0.1047  0.0360  0.0224
81453W        W82317  12.618  17.760  17.319 -0.0129  0.1463 -0.0050
81454W        W82318   0.965  20.970  14.536  0.0395  0.1414  0.1359
81455W        W82319   2.433  24.642  24.220 -0.2604 -0.0080  0.0254
81456W        W82320  21.497  20.616  20.369 -0.2734 -0.2655 -0.2134
81457W        W82321  16.401   8.179  18.692  0.2129  0.0329 -0.1161
81458W        W82322   7.133   0.088  11.690  0.1542  0.2940  0.1914
81459W        W82323  16.582  13.389  15.430  0.0994 -0.2384 -0.3676
81460W        W82324  23.722  21.909   5.450  0.0935 -0.2512 -0.2819
81461W        W82325  25.704  29.084  23.527 -0.3517 -0.3030  0.2266
81462W        W82326   5.631  16.657  28.622  0.1144 -0.0630 -0.0896
81463W        W82327   0.394   7.655   0.530 -0.2085  0.0453  0.0141
81464W        W82328  18.340  16.414   7.559  0.0633  0.1864 -0.1635
81465W        W82329  17.476   2.237   8.593  0.1967 -0.0914  0.2081
81466W        W82330   3.372  18.000  15.425 -0.1821  0.0096 -0.2723
81467W        W82331   6.735  21.263  28.752  0.2409  0.2042 -0.2628
81468W        W82332  10.510  25.832  15.410 -0.2382 -0.0424 -0.2106
81469W        W82333   2.324   0.327  17.922  0.0672  0.1627 -0.0920
81470W        W82334   4.208   3.031   2.641 -0.0030 -0.1267 -0.0804
81471W        W82335  22.814  18.608  17.591 -0.0923  0.1288 -0.0981
81472W        W82336  25.876   7.153  26.501 -0.3163  0.0424  0.1755
81473W        W82337   9.642  10.392  26.915 -0.1557  0.0400  0.0025
81474W        W82338  21.833  12.781  14.564 -0.1945  0.1167  0.1011
81475W        W82339  10.711   1.451   8.458 -0.1754  0.1427  0.3787
81476W        W82340  21.843  15.147  12.997  0.2334 -0.1798  0.3064
81477W        W82341  10.861   2.950  26.978  0.0997 -0.0578 -0.3042
81478W        W82342  27.533  28.787  26.870  0.1493  0.1103  0.0714
81479W        W82343   4.407  26.688  18.821  0.1717 -0.2126 -0.2672
81480W        W82344   7.569  14.471  18.840 -0.1246 -0.3334  0.0265
81481W        W82345   5.009  14.924  26.329  0.1033  0.0939 -0.0038
81482W        W82346   4.518  20.012  23.401 -0.0664 -0.2024  0.1723
81483W        W82347  14.125  14.091  26.390 -0.1839  0.3635 -0.2166
81484W        W82348  25.731   7.220   6.317 -0.1500  0.2440  0.3887
81485W        W82349  28.077  19.537   0.678 -0.1029 -0.0894 -0.1903
81486W        W82350  21.697  26.031  17.388  0.0546 -0.1164  0.1884
81487W        W82351  16.993  16.166  17.328  0.1964 -0.0000  0.2637
81488W        W82352   1.236  19.744  18.550  0.3056  0.1673  0.0359
81489W        W82353  25.465   7.702  21.843 -0.2700 -0.2839  0.0533
81490W        W82354   1.303  21.585  27.492  0.0502 -0.3176 -0.1089
81491W        W82355  11.059  12.248  20.346  0.1089  0.1402  0.0628
81492W        W82356   6.812   8.220  22.943  0.2982  0.1565 -0.0392
81493W        W82357  24.504   1.357  24.187  0.2429 -0.1719 -0.1437
81494W        W82358  24.443   1.672  15.372 -0.0124  0.0917  0.0815
81495W        W82359  28.118  23.014  26.017 -0.0139  0.0482 -0.0014
81496W        W82360  18.675   2.682   7.691 -0.2542 -0.1469  0.2755
81497W        W82361   1.528   9.575   0.642  0.0430 -0.0405 -0.0234
81498W        W82362   3.397   8.133  11.756  0.1930 -0.1793 -0.0536
81499W        W82363  28.546  24.969  12.745  0.3257 -0.3072  0.0312
81500W        W82364   8.295   4.179   9.867  0.1570 -0.0078  0.1380
81501W        W82365  22.682  12.897  14.481  0.1893 -0.2543  0.0124
81502W        W82366  26.052   9.645  28.494  0.1038 -0.1496 -0.0154
81503W        W82367  14.347  13.668  15.772 -0.1885 -0.1816 -0.1462
81504W        W82368  25.487   1.305  19.357 -0.4109 -0.1160 -0.0422
81505W        W82369  16.587  18.118  12.080 -0.1736 -0.0759 -0.0883
81506W        W82370   1.773  26.021   0.976  0.0843  0.0121 -0.1865
81507W        W82371  12.046  19.623  21.148 -0.3986 -0.3407  0.0882
81508W        W82372   8.985  26.475   3.784  0.3402 -0.0402 -0.4943
81509W        W82373   9.273  13.067  12.034 -0.1516 -0.0922  0.2194
81510W        W82374   3.635   7.786   6.762 -0.2933 -0.0626  0.2124
81511W        W82375   3.864  25.712   0.992  0.2006 -0.1020 -0.1209
81512W        W82376  12.967   4.769  11.969 -0.2764 -0.3129 -0.3127
81513W        W82377   4.988   4.316   5.531 -0.1510 -0.0692 -0.0280
81514W        W82378  21.041   4.635  27.201 -0.1096 -0.3609 -0.1377
81515W        W82379  28.037  20.971  19.383 -0.0047  0.0671  0.1328
81516W        W82380  23.689  16.425  26.478  0.1397  0.3248 -0.0060
81517W        W82381  12.537  10.129   4.260  0.2550  0.2698  0.2739
81518W        W82382  25.590   7.726   0.075 -0.1176  0.3070  0.1101
81519W        W82383   2.266   5.427  21.477 -0.3352 -0.1650  0.1286
81520W        W82384   3.712  16.763  12.560  0.1294 -0.1494  0.1382
81521W        W82385  21.787   0.886  19.229 -0.2044  0.1997  0.0693
81522W        W82386   3.242   0.419  10.030 -0.0843 -0.3611  0.2991
81523W        W82387  15.211   6.286  27.277 -0.0430 -0.3859 -0.3148
81524W        W82388   1.749  25.821  25.658 -0.0308 -0.2301 -0.1394
81525W        W82389  19.783  27.929  26.081 -0.2632 -0.0138  0.2523
81526W        W82390  26.367  19.398  22.753 -0.2772  0.1185 -0.2951
81527W        W82391  10.428  14.159   5.096 -0.1848  0.0625 -0.0976
81528W        W82392   1.632  19.659  28.473 -0.0747 -0.3040 -0.0731
81529W        W82393   3.480  24.314  10.685 -0.0155  0.1738 -0.0050
81530W        W82394  17.284  16.474  28.177  0.3132 -0.0063  0.0936
81531W        W82395   8.903  26.170   2.092 -0.0930  0.0624  0.2085
81532W        W82396  23.355  22.735  18.805  0.0677  0.1294  0.0594
81533W        W82397  24.266  10.226  11.733  0.1132 -0.3118 -0.1438
81534W        W82398  11.585  21.791  13.308 -0.1272 -0.0035 -0.1967
81535W        W82399   2.485  28.845  25.371 -0.0758  0.3759 -0.1261
81536W        W82400   5.113   6.694   8.994  0.2730 -0.0598  0.3045
81537W        W82401  14.681  19.932  17.744 -0.0297  0.1984  0.1546
81538W        W82402  28.845  11.804   1.682 -0.0805 -0.2063  0.0713
81539W        W82403   9.226  22.963  16.562  0.1867  0.0432  0.1367
81540W        W82404   1.324  16.441  17.672  0.1743  0.1241 -0.0713
81541W        W82405   2.070   4.462  12.617 -0.1308  0.0435  0.0620
81542W        W82406  16.360  20.760  18.686  0.2124 -0.0653 -0.3561
81543W        W82407  27.871  15.166  12.786 -0.0527 -0.0282 -0.2152
81544W        W82408  18.732  16.904  13.514  0.1582 -0.2276  0.2999
81545W        W82409  14.962  23.799  20.383  0.2520 -0.2097  0.0608
81546W        W82410   3.674   5.740   9.179  0.2260  0.2337 -0.2510
81547W        W82411  24.269  10.484   1.291  0.3096  0.0038  0.0538
81548W        W82412  17.960   9.669  20.139 -0.0093 -0.2598 -0.1715
81549W        W82413  27.015   7.842  24.618 -0.2575  0.0348  0.2629
81550W        W82414  23.762   3.761  19.761 -0.1958 -0.2375 -0.2482
81551W        W82415  22.315  22.697  14.057  0.4365 -0.2256  0.1411
81552W        W82416  28.734   4.749   5.126  0.1382 -0.1590 -0.1150
81553W        W82417  11.884   5.656   7.218  0.0145 -0.0876 -0.0389
81554W        W82418  21.214  11.223  26.277 -0.1246  0.3439 -0.0428
81555W        W82419  27.688  19.784  12.965 -0.0535  0.1177 -0.1351
81556W        W82420  16.861  18.689  18.752 -0.0029 -0.0896 -0.1648
81557W        W82421  25.486  23.265  19.879 -0.1685 -0.2147 -0.1409
81558W        W82422  15.519  10.530  18.750 -0.0161 -0.1450 -0.0996
81559W        W82423   2.264  20.856   8.053  0.0351  0.0529 -0.2149
81560W        W82424  24.975  11.934  14.612 -0.1571  0.1380  0.2388
81561W        W82425   2.765  11.213  24.880  0.0959 -0.2188  0.2755
81562W        W82426  26.798  16.247  10.994  0.0149 -0.0933 -0.0437
81563W        W82427   4.413  28.722  17.545  0.2101 -0.1913 -0.2095
81564W        W82428  16.880  18.192   7.676  0.3143 -0.3445 -0.1301
81565W        W82429   2.252   1.862  15.254 -0.2343 -0.0651  0.3353
81566W        W82430  28.328   3.789  23.170  0.0393 -0.2509 -0.0493
81567W        W82431   2.846  25.796  18.820  0.3645 -0.0092  0.1996
81568W        W82432  25.548   3.145  28.988 -0.1636 -0.0598  0.0285
81569W        W82433  13.844   7.897  15.240  0.0844  0.1461  0.0349
81570W        W82434   2.909  11.209   5.879 -0.2221  0.2596  0.0834
81571W        W82435  23.597  12.063  27.172  0.2582 -0.4724  0.0438
81572W        W82436   2.230  25.075  15.391  0.1527 -0.2668  0.1684
81573W        W82437  26.625   2.270  14.453 -0.3130  0.0453 -0.1078
81574W        W82438  10.966   5.022  13.154  0.0895 -0.1225 -0.0303
81575W        W82439   0.780   3.268  25.859  0.1559  0.1370  0.1508
81576W        W82440   7.937  15.276  23.004 -0.0731  0.1315  0.3357
81577W        W82441   7.989   8.116  14.909 -0.0159 -0.0958  0.1412
81578W        W82442  10.674   4.848  24.366  0.0512  0.3245  0.3727
81579W        W82443   7.207   0.539   9.978  0.2781 -0.1718  0.2688
81580W        W82444   7.752  16.304  28.933 -0.2388 -0.0339  0.0093
81581W        W82445  28.839   9.897   6.585  0.0213  0.1645 -0.2464
81582W        W82446  11.025  24.782  26.528 -0.1666  0.4886  0.1911
81583W        W82447   0.502   3.826   7.631 -0.3731  0.0559 -0.1040
81584W        W82448  19.261   6.867  17.431 -0.0928  0.0456  0.1856
81585W        W82449  24.966  25.188  15.898 -0.0559  0.2466  0.2069
81586W        W82450   6.088  17.034  23.396  0.2243 -0.0647  0.0926
81587W        W82451  12.956  14.448   2.160  0.1025  0.1208  0.3257
81588W        W82452  24.577  21.859  11.032 -0.0608  0.0717 -0.0172
81589W        W82453   2.284   5.754  13.466 -0.0608  0.0619 -0.3185
81590W        W82454  22.479  28.072  28.714 -0.0542 -0.0218 -0.0800
81591W        W82455   3.880  27.589  21.790  0.0780 -0.0408  0.3498
81592W        W82456   5.933   9.788  15.323 -0.1751 -0.1070 -0.2219
81593W        W82457  22.015  23.556   9.615  0.0946 -0.1760 -0.2580
81594W        W82458   3.913   5.301  13.553  0.2292 -0.1625 -0.3522
81595W        W82459   0.385  26.763  26.656  0.4706 -0.2493 -0.0103
81596W        W82460   7.842  15.876   0.378  0.1878  0.0294  0.0295
81597W        W82461  21.483  17.229   9.457 -0.5193 -0.4014  0.2660
81598W        W82462  19.943  13.793  21.632  0.0372 -0.0578 -0.1343
81599W        W82463  24.417   6.063  21.681  0.0825  0.1044  0.1550
81600W        W82464  24.256  21.764  24.128 -0.0109  0.1748 -0.0297
81601W        W82465  14.108   0.538  17.018  0.0213  0.2001  0.0610
81602W        W82466   1.883   6.718  28.474 -0.0853 -0.3182  0.0526
81603W        W82467   6.183  18.612  27.443 -0.0770  0.1266  0.1422
81604W        W82468  10.123  27.291  28.623  0.2029 -0.1468  0.1848
81605W        W82469  25.969   4.055  22.528 -0.1818 -0.2877  0.1948
81606W        W82470  23.955  29.110  24.395  0.0774 -0.4002 -0.0473
81607W        W82471  22.094  10.910  20.949 -0.0339  0.0268 -0.0120
81608W        W82472   5.708  28.508   1.131  0.2245 -0.1841  0.2322
81609W        W82473   4.607  19.992   9.269 -0.1324 -0.0825  0.0145
81610W        W82474  11.828  18.616  24.860  0.0643 -0.0075 -0.0515
81611W        W82475  21.495  16.916  14.944 -0.0364 -0.0260 -0.0270
81612W        W82476  19.192   2.479   7.703 -0.0412  0.0716  0.1932
81613W        W82477   0.433  11.508   5.317 -0.1996  0.2946 -0.1494
81614W        W82478  18.764   2.156  16.538 -0.0529  0.0795  0.0778
81615W        W82479  25.674  10.257   1.527  0.0561 -0.2757  0.2108
81616W        W82480  21.541  18.567   5.518  0.0918  0.0384  0.0485
81617W        W82481  20.504  25.373  14.492  0.0429  0.2294  0.0533
81618W        W82482   3.075  18.293  11.206  0.0265 -0.2649 -0.0122
81619W        W82483  17.713   5.369  12.714  0.3897  0.1325 -0.2077
81620W        W82484  24.822  27.163   8.029 -0.0868  0.0618  0.0019
81621W        W82485   2.500   1.008   7.296 -0.0475 -0.2705  0.1956
81622W        W82486  11.706  18.417  21.390 -0.0877 -0.1094 -0.1317
81623W        W82487  16.181  11.004  14.309 -0.2081 -0.0304 -0.2407
81624W        W82488  17.526  16.523  20.657 -0.1919 -0.0900 -0.0119
81625W        W82489   1.946  18.141  22.040  0.1693 -0.0895 -0.2422
81626W        W82490  17.983  13.185  18.506 -0.0393 -0.1530  0.0400
81627W        W82491   7.431   5.599  22.742  0.3802 -0.1433  0.0670
81628W        W82492  23.147  16.470  22.774 -0.0970  0.2080  0.2516
81629W        W82493  21.821   0.179  14.517  0.0089  0.1202 -0.0579
81630W        W82494  20.180   4.822  10.153 -0.0635  0.1346  0.0635
81631W        W82495  17.759  16.068  14.216  0.0497 -0.1907 -0.0549
81632W        W82496  27.720   2.379  29.141 -0.3634  0.2077  0.3780
81633W        W82497  24.516   1.805  25.148  0.0124 -0.0765  0.1518
81634W        W82498   7.599  24.997   3.924 -0.0375 -0.0333  0.1409
81635W        W82499  27.837  11.187  27.201  0.1728  0.1080 -0.0285
81636W        W82500   4.705  19.214  18.085  0.1665 -0.0690  0.1302
81637W        W82501  27.079  15.220  12.366  0.1533  0.1200 -0.0599
81638W        W82502  18.546   5.076  24.616  0.1820  0.1805 -0.0786
81639W        W82503  12.684  15.926   3.465 -0.0794 -0.1016 -0.0847
81640W        W82504   3.833   9.760   1.340 -0.1161 -0.0745 -0.3477
81641W        W82505  19.791  13.818  16.880  0.3923 -0.1115  0.0049
81642W        W82506  17.119   2.212  21.887 -0.0485  0.0452  0.2707
81643W        W82507   9.243   2.677  21.977 -0.0549  0.0469 -0.0319
81644W        W82508   4.353  22.157  13.439 -0.1263 -0.3722 -0.1471
81645W        W82509   0.481  27.467  24.582  0.0830  0.1246 -0.1645
81646W        W82510  19.037  12.155  11.632  0.0874 -0.1969 -0.2003
81647W        W82511  24.825  13.945  23.880 -0.3043 -0.2305 -0.0638
81648W        W82512   3.448  19.361  27.150  0.0295  0.0425  0.1506
81649W        W82513  17.936  14.779  23.371 -0.2034 -0.1047  0.0933
81650W        W82514  17.818   1.671  19.496 -0.2391  0.1271 -0.4161
81651W        W82515   4.840  23.250  29.144 -0.0008  0.1975 -0.4228
81652W        W82516   2.392  15.810  13.241  0.1900  0.0750 -0.0549
81653W        W82517   9.115   1.227  24.277  0.3718  0.0565 -0.1991
81654W        W82518   7.688  23.134  13.003  0.0822  0.1997 -0.0250
81655W        W82519  24.098   6.101   4.206 -0.3036  0.1670 -0.1116
81656W        W82520   3.616   7.991  28.187  0.2106 -0.0827  0.0442
81657W        W82521   2.519   6.210  11.741 -0.0887  0.1871  0.0790
81658W        W82522   5.472  27.855  28.068  0.0853  0.1265  0.0343
81659W        W82523  17.798  16.484  18.055 -0.0020  0.1241 -0.0504
81660W        W82524  26.486  11.764   3.328  0.0052 -0.1201 -0.0948
81661W        W82525   0.073  26.422   1.935 -0.1451  0.1626 -0.1554
81662W        W82526  23.325  18.040   5.516  0.0393 -0.0458  0.1933
81663W        W82527   2.454   3.480  22.281  0.2380  0.1669 -0.2731
81664W        W82528   7.390   8.640  10.730  0.0378 -0.0421 -0.1739
81665W        W82529  16.728   6.253   7.902 -0.1227 -0.1863  0.3431
81666W        W82530  24.340   7.515  12.356  0.2188  0.1670 -0.1931
81667W        W82531   2.246   7.341  23.032  0.0071  0.0837  0.3559
81668W        W82532  23.696   9.412  17.237 -0.1275  0.0006  0.3926
81669W        W82533   3.067   9.537   2.818  0.1237 -0.0324  0.1181
81670W        W82534   1.384  21.407  13.338 -0.1800 -0.1097  0.3631
81671W        W82535   1.886  16.222  12.343 -0.0724  0.0733 -0.1281
81672W        W82536  12.088   6.105  17.837 -0.2117 -0.0502  0.1467
81673W        W82537  11.520  10.423  21.018 -0.1593 -0.4205  0.2853
81674W        W82538  27.228  19.821  21.480 -0.0505  0.1159 -0.0621
81675W        W82539  16.705   3.198  11.352 -0.1261 -0.4314  0.1069
81676W        W82540  19.081   6.275  26.899  0.0792  0.0040 -0.1198
81677W        W82541  26.787  28.187   2.288  0.1208 -0.0571  0.0907
81678W        W82542   5.754  21.162  21.081  0.1731  0.1507  0.1508
81679W        W82543  28.777  21.286  21.496 -0.0077  0.0608 -0.2736
81680W        W82544  16.583   9.844  22.073  0.3530 -0.0355  0.1997
81681W        W82545   6.716  23.457  14.391  0.0765  0.1670  0.0764
81682W        W82546  25.881  25.409   4.447 -0.0783 -0.1390 -0.1608
81683W        W82547  18.448  25.153   5.890 -0.2262 -0.0820 -0.1404
81684W        W82548  13.534  18.681  27.530  0.1479  0.0000 -0.0605
81685W        W82549  25.602   2.650  14.609 -0.0658  0.2593  0.0547
81686W        W82550  17.264  12.841  20.645 -0.0954  0.0266 -0.0210
81687W        W82551  25.925   0.444   6.486  0.0194  0.0083  0.0591
81688W        W82552  17.991  10.227  12.511 -0.2760  0.3043 -0.2990
81689W        W82553   1.335  19.817  24.755  0.1263 -0.3457 -0.0882
81690W        W82554  20.228  19.254   1.777  0.0795 -0.1319  0.0318
81691W        W82555  17.563   5.672   7.853  0.0150 -0.1832 -0.0799
81692W        W82556  13.488   8.781  21.082 -0.2707 -0.0688 -0.1862
81693W        W82557  19.512  28.466  25.304 -0.2857 -0.1738  0.2131
81694W        W82558   2.768   3.248  12.145 -0.2875  0.0853 -0.0732
81695W        W82559  23.134  24.377  13.714 -0.4247 -0.3742  0.0668
81696W        W82560  17.707   1.696  24.618  0.2246 -0.0085  0.2759
81697W        W82561  27.788  27.574   0.814  0.1748 -0.2948 -0.0052
81698W        W82562   1.536  22.317   5.951 -0.1373  0.2751 -0.1754
81699W        W82563   0.617   0.395  22.039 -0.2324 -0.0258 -0.0779
81700W        W82564  24.885  25.918  10.590 -0.1088  0.2395 -0.2184
81701W        W82565   5.085  19.524  28.797  0.0361 -0.3053  0.0432
81702W        W82566   7.871  17.053  17.575  0.1474  0.0887 -0.3773
81703W        W82567  22.939  18.449  15.277  0.1394 -0.0035  0.1008
81704W        W82568  25.100  17.218  17.180 -0.0282 -0.2130 -0.1210
81705W        W82569  10.105  20.264  20.198 -0.2870  0.2001  0.2523
81706W        W82570   6.063   2.369   8.522 -0.0560 -0.0925  0.1825
81707W        W82571   2.485   9.607  11.269  0.1146 -0.0596  0.1574
81708W        W82572  19.266  17.378  10.936 -0.0354 -0.0656 -0.0756
81709W        W82573   5.231  24.117  21.595  0.2801 -0.0797  0.0495
81710W        W82574  27.274  20.730  20.878 -0.2720  0.0513  0.1185
81711W        W82575  23.445  12.980  16.567  0.0103 -0.1548  0.0577
81712W        W82576   9.414   1.458   0.953 -0.3209 -0.1537  0.1038
81713W        W82577  18.456  17.717  21.453  0.0750  0.2640  0.1911
81714W        W82578  22.511  24.143  14.931 -0.1018 -0.2163 -0.4290
81715W        W82579   4.234  20.489  25.044  0.0958  0.3059 -0.0710
81716W        W82580   6.556  28.041   8.038 -0.0551  0.0833 -0.2395
81717W        W82581  24.854   4.711  21.020  0.1051 -0.1402 -0.0558
81718W        W82582  20.083  10.576  27.273 -0.0285 -0.0472  0.1214
81719W        W82583  25.271  25.780  24.611 -0.3480  0.1782 -0.0641
81720W        W82584   9.089   6.578  22.725  0.0132  0.2014 -0.1191
81721W        W82585  17.719  18.669  13.917 -0.2010  0.2150  0.0370
81722W        W82586   8.962  17.633  15.747  0.2819  0.1247 -0.1028
81723W        W82587  19.181  18.952  12.901 -0.0807 -0.1846 -0.2004
81724W        W82588   7.940  18.901   8.834  0.2951  0.3099 -0.1063
81725W        W82589  18.223   2.426  27.962  0.0036  0.3812  0.0728
81726W        W82590  20.012  11.178   3.650  0.0949  0.2130 -0.0480
81727W        W82591  27.466  13.067  18.299 -0.3001 -0.1275  0.0697
81728W        W82592  27.785   2.432   9.302  0.0996 -0.3830  0.1794
81729W        W82593   2.360  15.620  22.429  0.3342 -0.1940  0.2203
81730W        W82594  13.182   9.788  22.303 -0.1544 -0.1977 -0.0462
81731W        W82595  29.035   7.998  26.490  0.0900  0.0402 -0.0374
81732W        W82596  24.515  16.412  19.492 -0.0333 -0.0441  0.0163
81733W        W82597  14.609   8.440  17.849 -0.1468 -0.0226 -0.1171
81734W        W82598  26.864  17.637  10.757  0.0470  0.3312  0.1485
81735W        W82599   1.138  18.473  14.364 -0.3232  0.2283  0.0130
81736W        W82600   3.045  11.781  19.153 -0.0070 -0.1185 -0.0442
81737W        W82601  22.341   3.821  28.108  0.2048  0.1780  0.0159
81738W        W82602  23.767  14.866  13.007  0.1061 -0.0080  0.1008
81739W        W82603  17.117   4.947  27.721 -0.1991 -0.2274  0.1586
81740W        W82604  26.501  18.389   5.360  0.1125  0.1237  0.0359
81741W        W82605  28.935  28.425  14.535  0.0552 -0.2205 -0.2184
81742W        W82606   7.953  15.747  24.667 -0.0489  0.0600 -0.1809
81743W        W82607  18.857  15.051  19.557  0.3187 -0.0625  0.1353
81744W        W82608   2.768   4.205  15.475  0.1705  0.1043  0.0362
81745W        W82609  11.629  12.317   6.010  0.0147  0.1719 -0.1401
81746W        W82610  25.253  27.605   4.761 -0.1471 -0.1064 -0.2035
81747W        W82611   9.537  25.735   7.658  0.0639  0.1778 -0.0196
81748W        W82612   4.643   2.246   8.839  0.0300  0.0920  0.0725
81749W        W82613  25.398  22.361  18.188 -0.2333 -0.2480 -0.0252
81750W        W82614  15.478   5.597  23.312  0.2713 -0.0897  0.1037
81751W        W82615  12.392   5.750  16.703  0.1680 -0.2532  0.0842
81752W        W82616  10.921  26.611  10.100 -0.2425 -0.0278  0.0540
81753W        W82617  13.316  24.750  14.697 -0.2756 -0.0401  0.1586
81754W        W82618  16.598  11.612  27.076 -0.0419  0.0341 -0.1271
81755W        W82619  23.295  24.284  24.780  0.2138  0.3330 -0.0859
81756W        W82620  17.750  17.314   6.606  0.2056  0.0069 -0.2484
81757W        W82621  26.115  19.288  14.382 -0.0769 -0.1599 -0.0893
81758W        W82622   7.628   3.786   6.506 -0.1315  0.0222  0.0091
81759W        W82623  25.911  24.568  23.200  0.0419  0.0676  0.1201
81760W        W82624   6.537  25.663  21.158 -0.1783  0.2118 -0.0370
81761W        W82625   6.845  16.342  21.522  0.1876 -0.0786 -0.0035
81762W        W82626   5.661  28.271  20.769  0.0804  0.0446 -0.2571
81763W        W82627  23.930  11.163  25.835  0.0250 -0.1959 -0.0379
81764W        W82628  28.705   5.970  23.190  0.0531 -0.2739  0.3161
81765W        W82629  20.029   4.045  15.585 -0.0390 -0.1796  0.1819
81766W        W82630   4.355  22.235  22.248  0.0373  0.2959 -0.1473
81767W        W82631  11.693  23.220  29.068 -0.1509 -0.0275  0.1232
81768W        W82632  21.639  23.936  21.408 -0.4472 -0.1301 -0.0571
81769W        W82633   5.392   0.520  21.871  0.1600  0.0944  0.1210
81770W        W82634  25.795  27.937  10.188 -0.0621 -0.2053  0.2599
81771W        W82635   2.552  10.903  10.439  0.0790 -0.0485 -0.0338
81772W        W82636   4.058  21.585  19.706 -0.0473  0.0292  0.3406
81773W        W82637  22.029  12.700   5.570 -0.1544 -0.1966 -0.0352
81774W        W82638  24.653   0.422   0.411 -0.0519 -0.0412  0.1022
81775W        W82639   6.994  19.828  25.042 -0.1773 -0.0473 -0.1409
81776W        W82640  22.402  19.219  14.720  0.1604  0.1301 -0.0355
81777W        W82641  22.729   6.027  20.132  0.0695  0.0166  0.2277
81778W        W82642  11.968  12.053   2.547 -0.0179  0.0095  0.0333
81779W        W82643   7.064   8.666  24.563 -0.2839  0.0236  0.1538
81780W        W82644   3.298  22.497  20.445  0.1447  0.0673  0.3892
81781W        W82645   0.868  19.813  15.226  0.2714 -0.3143 -0.0242
81782W        W82646   0.586   2.158  16.554  0.1859 -0.3246  0.3071
81783W        W82647  21.147  13.309   4.319 -0.1607 -0.1016 -0.0849
81784W        W82648  15.940  25.441   0.003 -0.0174  0.1540  0.2272
81785W        W82649  12.438  25.686  17.260 -0.0691  0.3721  0.1023
81786W        W82650  15.498  14.439   4.908 -0.2314  0.0918  0.0475
81787W        W82651  11.264  27.206  26.004 -0.2472 -0.0657  0.0789
81788W        W82652   6.916  23.296  27.493 -0.1007  0.0102 -0.0900
81789W        W82653  16.903  24.482  12.034  0.0593 -0.2605  0.2677
81790W        W82654  22.926   8.544  19.395  0.0038  0.1108 -0.1819
81791W        W82655   8.611  18.854  16.973  0.0863  0.1784 -0.1502
81792W        W82656   4.848   0.472  15.509 -0.0842  0.0673  0.3629
81793W        W82657  22.612  28.993  10.621  0.3134 -0.1189  0.2781
81794W        W82658   1.234   2.872  19.426  0.0230 -0.0109 -0.0068
81795W        W82659  23.243   8.676  14.558  0.1214  0.0938  0.2624
81796W        W82660   7.759  22.878  16.643 -0.1168 -0.1955 -0.0849
81797W        W82661  23.808   6.627  24.576  0.0333 -0.0375 -0.0006
81798W        W82662   3.685  25.475  14.385  0.3344 -0.0832 -0.0315
81799W        W82663   3.786   8.094  20.845  0.0247 -0.2714 -0.1789
81800W        W82664   3.768  27.721  24.515 -0.0091 -0.0054  0.2011
81801W        W82665   0.603  16.895  20.563 -0.1471 -0.2587  0.0239
81802W        W82666  16.681  21.254  20.077 -0.0104 -0.3749 -0.2169
81803W        W82667   9.838  16.705  23.451 -0.0838 -0.1373  0.2881
81804W        W82668  27.382  23.170  22.575 -0.1084 -0.1231  0.2907
81805W        W82669   2.999  21.994  27.266  0.0057 -0.3589  0.0605
81806W        W82670  15.682   5.165  20.991  0.0959 -0.0046 -0.1167
81807W        W82671  23.046   0.741  23.433 -0.0850  0.3723  0.1624
81808W        W82672  16.876  28.813   4.234 -0.1984  0.0791 -0.2457
81809W        W82673  16.981  26.602  15.544 -0.2441  0.4251 -0.1978
81810W        W82674  15.148   5.299   4.055  0.0102  0.0410 -0.2498
81811W        W82675   5.715  13.977   3.257  0.0274 -0.1544  0.1751
81812W        W82676  22.548   6.670   6.331 -0.1287 -0.0885 -0.1026
81813W        W82677  21.878   7.844  26.591 -0.1277 -0.0401  0.2567
81814W        W82678   6.432  12.523   8.433  0.3933  0.0135  0.0617
81815W        W82679   6.016   2.771  17.653 -0.5481 -0.0795  0.1162
81816W        W82680   2.456   8.401  10.633  0.0207  0.0223 -0.1391
81817W        W82681   7.695  28.657  17.759  0.0727  0.2037  0.0760
81818W        W82682  21.197  12.716   7.137 -0.1248 -0.0682  0.1568
81819W        W82683  18.705   8.481  16.663  0.1470  0.0110  0.1392
81820W        W82684   7.425   3.420  17.397  0.1937  0.1108  0.0661
81821W        W82685   5.484   4.446  26.235 -0.0288 -0.0273 -0.4279
81822W        W82686  22.326  10.661   3.604  0.0797 -0.0239 -0.0544
81823W        W82687  23.323  25.996   9.308  0.1757 -0.0625  0.0042
81824W        W82688  23.652   8.221  20.723  0.0198 -0.0560  0.1934
81825W        W82689  24.469   3.635   5.096 -0.0360 -0.1330 -0.0094
81826W        W82690   9.899  16.475  14.956  0.1137  0.1786  0.0272
81827W        W82691  26.361  18.412  26.574  0.3458  0.0845 -0.0902
81828W        W82692   7.968  29.139  15.582  0.1975 -0.1723 -0.0063
81829W        W82693  25.346   1.277  25.758  0.2090 -0.5410  0.2069
81830W        W82694  27.848  13.598   5.251 -0.0611  0.0080  0.1699
81831W        W82695   4.894   3.644  28.345 -0.1654 -0.0368 -0.1997
81832W        W82696  22.813  12.159  26.895  0.0397  0.5091 -0.1460
81833W        W82697  25.233  10.169  23.721  0.2153 -0.2382  0.0885
81834W        W82698   4.252  12.331  27.749 -0.1427  0.1207 -0.3958
81835W        W82699  17.703  24.553  28.313  0.0308 -0.2574  0.2006
81836W        W82700   4.684  24.348  23.957 -0.2247  0.1978  0.1965
81837W        W82701  17.089   2.942  12.364  0.2132  0.3065 -0.1463
81838W        W82702   4.694  10.305  13.045 -0.0114 -0.1732 -0.2788
81839W        W82703   5.082  17.092  12.562  0.1893  0.0172 -0.2623
81840W        W82704  25.936  20.215  19.762  0.2352  0.0245 -0.0906
81841W        W82705   1.915  21.570  16.877  0.1226 -0.0613  0.0595
81842W        W82706   3.553  27.906  21.555  0.1149 -0.0531 -0.3238
81843W        W82707  26.294  23.678   0.283  0.0253  0.2401  0.2874
81844W        W82708  15.134   6.754  21.339  0.1987 -0.2080 -0.0594
81845W        W82709  22.041  18.056  28.747  0.0789 -0.0256  0.1456
81846W        W82710  28.545  12.355  13.812  0.0516  0.2189  0.0913
81847W        W82711   2.216   7.517  17.275  0.4056  0.1914 -0.0656
81848W        W82712  27.729   5.689  24.885  0.0829 -0.1892 -0.0209
81849W        W82713   9.239  28.032   8.387  0.0571  0.3112 -0.0592
81850W        W82714  21.917  13.684   4.923 -0.0147  0.1016  0.0038
81851W        W82715   9.203  26.642  15.653 -0.2541  0.0122  0.2031
81852W        W82716  27.105   0.416  17.921  0.0885 -0.0072 -0.2874
81853W        W82717  18.760   6.025  23.842  0.2827  0.0125  0.3551
81854W        W82718  12.175  15.693   4.867 -0.0360  0.0532 -0.1959
81855W        W82719  23.135  19.977   8.389 -0.2431 -0.2413 -0.1962
81856W        W82720  25.945  27.037   2.278 -0.1180 -0.3367 -0.0836
81857W        W82721  21.539  16.015   7.163  0.2249  0.0536 -0.2596
81858W        W82722   9.339   5.060   0.453 -0.0615 -0.0957 -0.0568
81859W        W82723   6.370   8.280  24.335  0.0156 -0.0915  0.0446
81860W        W82724  18.688  23.254  21.669  0.0393 -0.0989 -0.1455
81861W        W82725  19.197  10.221   4.177 -0.0627 -0.1534 -0.3555
81862W        W82726   8.023  22.898  28.757 -0.0123  0.0179 -0.2012
81863W        W82727  26.951   3.836  11.610  0.1937 -0.1537 -0.1040
81864W        W82728   9.233  17.974   7.986  0.1390 -0.4076 -0.0472
81865W        W82729  21.601   3.960  19.814  0.3064 -0.2756  0.1530
81866W        W82730   4.584   2.447  10.128  0.0088  0.3332 -0.1984
81867W        W82731   0.681  13.605  15.946 -0.0189 -0.0688  0.0881
81868W        W82732  26.205   7.541  18.951 -0.1532  0.0811  0.0448
81869W        W82733  14.150  26.884   0.382  0.0912 -0.0748 -0.0899
81870W        W82734  22.728   5.352  16.832 -0.1208 -0.2884  0.0774
81871W        W82735  27.177   2.494   5.435 -0.1337  0.1079  0.0016
81872W        W82736   7.211  21.414  15.164  0.3338  0.0252  0.3003
81873W        W82737   9.217   3.178   4.547  0.1545 -0.2164 -0.1979
81874W        W82738   0.570   0.122  15.962  0.2451  0.0303 -0.0095
81875W        W82739  13.022  23.009  18.994 -0.1034  0.1673  0.2399
81876W        W82740  10.672   7.482  12.780 -0.3697  0.2287 -0.2197
81877W        W82741   4.932  16.170  25.349 -0.1235 -0.4191 -0.1874
81878W        W82742   6.339  10.275  27.233  0.0404  0.1002  0.1143
81879W        W82743  19.242   2.330  16.460 -0.0306 -0.0680  0.0849
81880W        W82744   6.817   5.262  17.028  0.0169  0.1175 -0.0183
81881W        W82745  27.458  20.075   6.068 -0.1150  0.3238  0.1417
81882W        W82746  20.612  18.331  24.707 -0.2149 -0.0399 -0.1034
81883W        W82747   3.487   9.350  25.112  0.3257  0.0770  0.3695
81884W        W82748   0.894   7.153   7.031 -0.2005  0.0873  0.0423
81885W        W82749  23.846  18.169  25.839 -0.2224 -0.1940  0.1651
81886W        W82750  28.150   6.941  17.884 -0.0634 -0.0951  0.1509
81887W        W82751  28.464  25.304  14.611  0.1222 -0.0898 -0.1435
81888W        W82752  19.552   2.446   6.715 -0.1249 -0.0425  0.0293
81889W        W82753  12.553  26.916   6.394  0.1251 -0.0676 -0.1761
81890W        W82754   6.230  17.885  21.942 -0.0426  0.0734 -0.3744
81891W        W82755  23.794  25.707  26.667  0.1504  0.1568  0.1026
81892W        W82756  14.922  18.894  28.673 -0.3354  0.0447  0.0211
81893W        W82757  22.813  26.417   9.854  0.3526 -0.0658  0.1944
81894W        W82758  22.831  15.155   7.170  0.0937  0.0800 -0.2262
81895W        W82759   7.872  28.952  25.858 -0.2566  0.1483  0.2729
81896W        W82760   2.925  26.443   6.543 -0.0645 -0.0924 -0.0627
81897W        W82761  12.968  23.729  14.358  0.1169  0.1475  0.2442
81898W        W82762   0.068   3.945   3.406  0.1086 -0.0082  0.2743
81899W        W82763  23.770  17.479  19.217 -0.4817  0.1556 -0.0080
81900W        W82764  25.240  12.269  13.794 -0.2136  0.0997 -0.0209
81901W        W82765  23.293  14.869  13.076  0.0084  0.1259 -0.1430
81902W        W82766  22.568  13.866   9.768  0.0900 -0.0127  0.1131
81903W        W82767  25.657   0.462   1.495  0.0729  0.1902  0.0172
81904W        W82768   8.560  15.633  25.822  0.1039 -0.0664  0.2034
81905W        W82769   5.334  17.579  25.265 -0.0466  0.3164 -0.0157
81906W        W82770  16.434  26.988   9.719 -0.1345 -0.1209 -0.3254
81907W        W82771  17.350  15.536   8.759  0.0028  0.1109 -0.1604
81908W        W82772  17.469   0.089  28.974  0.1144  0.3847  0.1876
81909W        W82773   2.444  10.238  17.598  0.1684  0.0600 -0.0377
81910W        W82774  27.347  11.684  24.055  0.1517 -0.2553  0.1303
81911W        W82775  17.986   4.627  25.266 -0.0081 -0.0818  0.1304
81912W        W82776  21.798  10.883  28.313 -0.0755 -0.2327 -0.2707
81913W        W82777   0.827  13.573   9.241 -0.0295  0.0340  0.0072
81914W        W82778  21.555  14.966   0.122  0.1273  0.0845 -0.5170
81915W        W82779  14.146  15.425  16.790 -0.1969  0.0402  0.0880
81916W        W82780  24.076  27.470  23.372 -0.3697  0.2326 -0.2193
81917W        W82781  19.137  21.002  10.481  0.0291  0.0768 -0.1480
81918W        W82782  18.542  17.070  10.818  0.1133 -0.0935  0.1123
81919W        W82783  15.843   9.983  28.766 -0.2167  0.2539 -0.0094
81920W        W82784   4.495  24.977  18.823 -0.3868 -0.1893 -0.0620
81921W        W82785  23.443   5.866  18.407  0.0898 -0.0981  0.1068
81922W        W82786   5.037   8.905  13.489 -0.2939 -0.0408 -0.0732
81923W        W82787   6.659   6.079  11.950  0.1561  0.1976 -0.2905
81924W        W82788  25.506   5.846   4.857  0.0753 -0.1324  0.1891
81925W        W82789  22.262  16.087   0.326  0.4199  0.3204  0.4006
81926W        W82790  27.268  16.817   3.897 -0.0230  0.0212  0.0803
81927W        W82791   0.902  16.576  24.865 -0.1042  0.1454  0.1144
81928W        W82792  16.124  25.039  25.120 -0.1796 -0.2339  0.1418
81929W        W82793  14.302  27.408  24.348 -0.3862  0.2124  0.0134
81930W        W82794  22.347  22.299  13.713 -0.3045 -0.0398  0.1323
81931W        W82795  26.840   1.568   4.192 -0.0649  0.1446  0.3383
81932W        W82796  12.893  12.898  21.184  0.1809  0.0766  0.1764
81933W        W82797   9.451  21.749  17.072 -0.0623 -0.4688 -0.0098
81934W        W82798  23.317  28.697   0.558 -0.1267  0.0924  0.0623
81935W        W82799   0.999  19.654  13.294 -0.1221 -0.0187  0.0803
81936W        W82800  23.433  11.232  17.854 -0.1605  0.1414 -0.0086
81937W        W82801   7.855  27.543   0.273  0.0833 -0.0740  0.0061
81938W        W82802  21.222   3.149  10.989 -0.2175 -0.2624 -0.1050
81939W        W82803   5.785  17.217  23.934 -0.0942 -0.1509  0.0596
81940W        W82804   2.206  19.741  26.901 -0.0253  0.0261  0.1012
81941W        W82805  28.272  10.147  10.350 -0.2545  0.1978 -0.1377
81942W        W82806   8.862  23.656  23.280 -0.2376 -0.1362  0.0999
81943W        W82807   4.644   9.332  17.296 -0.2910  0.3589 -0.0396
81944W        W82808  24.254   6.138  12.775 -0.2615  0.1570  0.3647
81945W        W82809  27.974  10.708  10.364 -0.0938  0.0619  0.0568
81946W        W82810  27.967  17.035   9.839  0.1078  0.1643  0.1361
81947W        W82811  26.323  29.019   7.046 -0.0076  0.2115  0.1056
81948W        W82812  25.478   3.262   1.871 -0.1406 -0.1371  0.0631
81949W        W82813   2.820  11.977  27.802  0.0028 -0.1191  0.0679
81950W        W82814  19.003  17.193  15.120  0.0176  0.1434  0.1111
81951W        W82815   9.581  25.863  21.774  0.0051  0.4364 -0.0732
81952W        W82816  26.385  19.772  25.520 -0.0124  0.0373  0.1988
81953W        W82817  27.673   5.540  28.511 -0.0066 -0.1406 -0.1287
81954W        W82818  21.147   5.471  10.959 -0.3233  0.1290 -0.1069
81955W        W82819   4.790  27.965  25.612 -0.1026  0.2136 -0.0252
81956W        W82820   6.311  21.463  25.889  0.1321  0.2658 -0.1109
81957W        W82821  22.909   8.762  24.149  0.0728 -0.0844  0.0068
81958W        W82822   1.915   5.093  19.100  0.0890 -0.2083  0.1224
81959W        W82823   0.539   3.126  17.911 -0.1199  0.0265  0.0149
81960W        W82824  12.910  13.311  17.430 -0.1728 -0.3196  0.1878
81961W        W82825  26.385   0.355  15.361 -0.0033  0.0677 -0.1687
81962W        W82826  25.913   7.928   3.724  0.0411  0.0333  0.1547
81963W        W82827   5.985   8.009  23.050  0.1776 -0.0876  0.2592
81964W        W82828  17.902  11.163  26.176 -0.0190  0.0318 -0.0864
81965W        W82829  10.733  28.144  21.219 -0.1733  0.1401 -0.0561
81966W        W82830   3.169  19.187   2.477 -0.0256  0.2552 -0.2085
81967W        W82831  26.615  26.921  26.434 -0.2807 -0.1589  0.0160
81968W        W82832  24.318  27.833  24.246 -0.0914  0.0656 -0.1258
81969W        W82833  11.710  16.293   0.258 -0.2619  0.0003 -0.2451
81970W        W82834   3.218  25.988   1.636  0.0993  0.0998 -0.0829
81971W        W82835   3.471  16.114   7.903 -0.0311  0.0480 -0.0490
81972W        W82836  23.680  15.378  21.158 -0.0830  0.1995 -0.1427
81973W        W82837  20.628   4.036  17.915  0.0827  0.0457  0.1072
81974W        W82838  16.436   4.823   6.074 -0.2709 -0.0173  0.0822
81975W        W82839   8.031  20.986  25.943 -0.0906 -0.3555  0.3420
81976W        W82840   5.236   5.886  12.219  0.1723  0.0116  0.1452
81977W        W82841   0.821  22.382  18.733 -0.1830  0.0762  0.2268
81978W        W82842  16.406  28.953  21.533 -0.1752  0.0298  0.0239
81979W        W82843  28.026  15.877  21.457  0.0345 -0.1509 -0.0127
81980W        W82844  18.172  27.691  10.921 -0.0050  0.1446 -0.0946
81981W        W82845  15.436  13.014  16.018 -0.2103 -0.0460 -0.0479
81982W        W82846  23.917  19.037  10.782 -0.1504  0.2068  0.3064
81983W        W82847   2.539   1.943  15.704  0.1765  0.3648  0.1301
81984W        W82848  16.601   7.424  22.626  0.0245  0.1837  0.2268
81985W        W82849  26.267  12.190  25.703 -0.2482 -0.0348 -0.2083
81986W        W82850  19.009   3.869   7.821 -0.1090 -0.3945 -0.3155
81987W        W82851  25.057  20.137   9.135  0.0000 -0.1003  0.1383
81988W        W82852  27.298   6.512  16.740  0.1157  0.1220  0.0721
81989W        W82853  26.118  22.800   1.794  0.1822 -0.1308  0.2706
81990W        W82854  26.649   9.438  10.036  0.0450  0.1694  0.0139
81991W        W82855   3.845  13.478   0.414 -0.1259 -0.2884 -0.2726
81992W        W82856   7.382   3.062  20.000  0.1492  0.0303 -0.1604
81993W        W82857  24.260   0.154  13.701  0.4571  0.3850  0.4150
81994W        W82858   7.994  19.433   1.451 -0.2177 -0.1890 -0.1467
81995W        W82859   7.296  27.682  20.629  0.1531 -0.0049 -0.0645
81996W        W82860   7.530   9.011   9.623  0.0278  0.1623  0.2019
81997W        W82861   6.676  17.757  16.615 -0.0427  0.1735  0.1499
81998W        W82862   1.422  10.298  21.919  0.3099  0.0050  0.0395
81999W        W82863  14.520   1.758  15.835 -0.0803 -0.2295  0.2730
82000W        W82864  27.676  15.122  22.486  0.4144 -0.0060  0.1050
82001W        W82865  14.169   0.061  16.961  0.3551  0.0464  0.2104
82002W        W82866  11.141   1.274  13.020 -0.0126  0.1973 -0.1553
82003W        W82867   9.810   4.410   3.652 -0.0256  0.0253  0.0127
82004W        W82868  12.761  11.706  16.295  0.2167 -0.0043 -0.0220
82005W        W82869   2.625  22.845  24.639 -0.3740  0.1573  0.1543
82006W        W82870  17.279   0.716  19.413 -0.4108 -0.1830  0.0387
82007W        W82871  20.045   9.480  14.885  0.1171 -0.0069  0.0855
82008W        W82872  22.913  22.777  25.676  0.1510 -0.1085  0.1544
82009W        W82873   5.714   3.379  18.078 -0.0339  0.2243  0.3001
82010W        W82874   7.218  18.272   4.160 -0.1755  0.1111  0.1790
82011W        W82875  13.495  18.693  22.615 -0.1678  0.0851 -0.2228
82012W        W82876   0.616  13.201  17.510  0.3206  0.2068 -0.1542
82013W        W82877  15.158  28.079  15.372  0.1822  0.0405  0.0718
82014W        W82878  16.123   3.510  17.801  0.1185 -0.1278  0.0652
82015W        W82879  18.922  27.999  25.115 -0.0270 -0.2954 -0.1090
82016W        W82880   1.837   6.806  17.747  0.0107  0.1421  0.0292
82017W        W82881   3.441  13.920  24.042 -0.0226 -0.0258 -0.0679
82018W        W82882  15.125  13.056   9.924  0.0618  0.0640  0.2720
82019W        W82883  28.352   4.186  28.179 -0.0430 -0.0651  0.1348
82020W        W82884   5.456  10.080  28.293  0.1326 -0.1273 -0.4182
82021W        W82885   7.942  24.111   0.589  0.4235 -0.1028 -0.0450
82022W        W82886  25.593  15.878   4.025 -0.1854  0.0438 -0.1548
82023W        W82887  27.682  11.400   0.020 -0.3057  0.2416 -0.1432
82024W        W82888   5.049   4.893   7.242  0.0387 -0.2567  0.2174
82025W        W82889  23.284  16.716  26.790 -0.0914  0.1453  0.6140
82026W        W82890  15.968  26.424   0.068  0.1638 -0.0033 -0.0328
82027W        W82891   4.329  16.223   1.569 -0.1402  0.1530 -0.1936
82028W        W82892  22.954   0.506   2.568  0.1136  0.1857 -0.0644
82029W        W82893   4.630  11.374  21.007 -0.0536 -0.0133 -0.0881
82030W        W82894   1.765   9.305  14.421  0.0881 -0.2584  0.2534
82031W        W82895  12.699  19.597  23.525 -0.2838  0.0897  0.2959
82032W        W82896  12.293   7.891  16.075 -0.4169 -0.1282  0.1833
82033W        W82897   8.838  12.482   0.949  0.4054  0.1940 -0.2152
82034W        W82898  18.428   1.721  14.485  0.0677  0.2022  0.0690
82035W        W82899  25.081   2.168   3.350  0.0664  0.0835  0.1737
82036W        W82900  14.783  23.615  13.880 -0.0108 -0.1943  0.0872
82037W        W82901  15.378   7.276  19.268  0.4257  0.3069  0.1376
82038W        W82902   9.818   4.517  13.536 -0.1795 -0.0515  0.0156
82039W        W82903   9.608  20.376   2.043  0.1258 -0.3347  0.0906
82040W        W82904  25.254   6.087  27.569 -0.2619  0.0886  0.1942
82041W        W82905  28.063  22.938  13.596  0.0274  0.0497  0.1298
82042W        W82906   7.897   4.916  25.988 -0.1769 -0.0941 -0.1559
82043W        W82907   3.035  17.899  19.855  0.4582 -0.1546  0.0766
82044W        W82908   8.426  15.528   4.480  0.3020  0.1037  0.1630
82045W        W82909   2.768   5.495   9.295 -0.0232  0.1378  0.0046
82046W        W82910  10.993  10.260   2.425 -0.1037 -0.0290  0.4918
82047W        W82911  19.191   4.736   5.071  0.0437 -0.3440 -0.1074
82048W        W82912  21.255   5.613   3.165  0.0782 -0.3826  0.2169
82049W        W82913  27.362  17.209   6.866 -0.0423  0.4229  0.1431
82050W        W82914  23.956  11.712  18.889  0.4283  0.2139  0.1073
82051W        W82915  17.593  23.701  22.278  0.1253 -0.3159  0.0317
82052W        W82916  15.207   1.545  17.796  0.0312  0.0159 -0.0868
82053W        W82917  14.281   1.233   3.436 -0.0439  0.1414  0.2629
82054W        W82918  23.860   7.402   1.700 -0.3121 -0.1777  0.1982
82055W        W82919  21.938  14.646  21.950  0.1237 -0.0699 -0.1718
82056W        W82920  21.291  14.008  11.796 -0.3559 -0.1646  0.0398
82057W        W82921  25.816  18.219  27.375 -0.0772  0.1181  0.1237
82058W        W82922  13.127  22.365   3.308  0.2196 -0.3184  0.2490
82059W        W82923  25.099  25.126  20.010 -0.1038 -0.2026 -0.1424
82060W        W82924  26.572  25.562  11.644 -0.0224  0.2700 -0.0896
82061W        W82925  11.935  20.909  15.926  0.0290 -0.0899 -0.0133
82062W        W82926  28.990   7.421  13.964 -0.0092 -0.3544  0.0088
82063W        W82927  23.955  18.248  17.549 -0.1545  0.3971 -0.0023
82064W        W82928   9.945   5.729  19.721 -0.0991  0.2262  0.1497
82065W        W82929  20.497  23.914  28.380  0.0847 -0.1452 -0.0130
82066W        W82930   2.958   8.472  26.758 -0.0935  0.1946  0.0705
82067W        W82931  26.731  16.026  18.751 -0.1936 -0.0135  0.0615
82068W        W82932  20.491   2.301  15.826  0.1134  0.0172  0.3819
82069W        W82933   9.923   2.194  24.715 -0.1141 -0.1221  0.4306
82070W        W82934   1.128  20.091  27.512 -0.0620  0.0816  0.0152
82071W        W82935  19.218  28.728  14.404 -0.1646 -0.1126  0.3117
82072W        W82936  21.563   3.366   0.102 -0.2156 -0.0422 -0.0179
82073W        W82937  26.881  20.718  28.172 -0.1169 -0.3485  0.0404
82074W        W82938  25.078  24.466  10.123  0.3073 -0.0162  0.1341
82075W        W82939  23.176  23.457   2.477  0.0459 -0.1723  0.1420
82076W        W82940  18.418  27.548  25.446 -0.1734  0.1832  0.0174
82077W        W82941   4.411   1.524   4.605 -0.0224  0.2159  0.1528
82078W        W82942  27.653  18.047  24.324  0.2677  0.1774 -0.0030
82079W        W82943  24.838   8.010  11.140  0.1361 -0.3145 -0.1461
82080W        W82944  11.785   8.225  23.410  0.3510 -0.0854  0.0125
82081W        W82945  25.067  27.683   2.297  0.2375  0.1538  0.1527
82082W        W82946   8.434   6.064   6.217  0.1617 -0.2042 -0.2522
82083W        W82947  26.158   0.375  19.991 -0.0062 -0.0689 -0.2125
82084W        W82948  18.514   5.170   1.711  0.0245 -0.0378  0.2234
82085W        W82949  18.036  18.471   8.999 -0.1989 -0.1110  0.2659
82086W        W82950  23.096   7.702   5.518 -0.0353  0.1655  0.1700
82087W        W82951  15.186  28.842  25.272 -0.0546 -0.0523  0.0378
82088W        W82952  25.547  24.340  15.516 -0.2014  0.0593  0.0745
82089W        W82953   9.661  25.335   9.797  0.0156 -0.0596 -0.0357
82090W        W82954  15.762  14.815  22.591  0.2002  0.0390 -0.0621
82091W        W82955   1.444  22.312  22.694 -0.2901 -0.0679 -0.0072
82092W        W82956  18.944  21.025  22.118  0.0263  0.0787  0.1013
82093W        W82957   0.692   9.431  20.158  0.1529 -0.0158 -0.1080
82094W        W82958   8.416  12.782  21.133  0.0685  0.0607 -0.1243
82095W        W82959  15.634  20.647  11.964 -0.1320  0.2407  0.0351
82096W        W82960  11.228   6.793  25.699 -0.4189  0.1834  0.1499
82097W        W82961   3.419  14.772   8.268 -0.0793 -0.0666  0.0375
82098W        W82962   9.323  17.946  10.582 -0.1560 -0.0920 -0.4284
82099W        W82963   2.601  24.631   0.729 -0.1017 -0.2329  0.4016
82100W        W82964  19.276   8.798  19.477 -0.0736 -0.1155 -0.1112
82101W        W82965   7.945   3.466  23.610  0.0599  0.1489  0.1462
82102W        W82966   7.186   4.454   7.604  0.2037 -0.0515  0.2130
82103W        W82967  18.460   2.756   3.008 -0.1883 -0.2081  0.2709
82104W        W82968   3.290   8.919  23.377  0.0973  0.0073 -0.0275
82105W        W82969   0.099   6.838  27.651 -0.1460 -0.0703  0.2750
82106W        W82970  23.390   3.690  29.089  0.4591  0.2649 -0.1951
82107W        W82971   8.057  21.619  21.479 -0.0710 -0.1324  0.0563
82108W        W82972   1.329  10.535  13.840  0.0381 -0.2542  0.3472
82109W        W82973   1.166  20.013  10.867 -0.2467 -0.0454  0.2268
82110W        W82974   2.873   2.815   5.827 -0.1046  0.1467  0.0506
82111W        W82975  28.553  28.713  28.581  0.0798  0.3120  0.2361
82112W        W82976   4.166  27.701  24.111 -0.1339 -0.1361 -0.0106
82113W        W82977  13.988   1.874   4.092  0.1143  0.1806 -0.1370
82114W        W82978   3.449   3.088   3.364  0.0437 -0.2909  0.0284
82115W        W82979   4.170   3.471   5.666 -0.0675 -0.1090 -0.2114
82116W        W82980   4.627   0.445  18.687  0.1046 -0.1792 -0.1436
82117W        W82981   8.753  27.963   4.740  0.2439  0.1353 -0.0272
82118W        W82982  25.644   0.620   3.804  0.3784  0.0326  0.1164
82119W        W82983   6.364  16.118  19.604  0.0185 -0.1430  0.2929
82120W        W82984  27.704   1.813   8.300 -0.1834  0.2662 -0.2602
82121W        W82985  11.155  15.363  14.511  0.3453 -0.0751 -0.1212
82122W        W82986  20.409  26.298  24.645  0.1298 -0.2140 -0.1982
82123W        W82987   4.269  19.937  26.192 -0.2229  0.3403  0.1135
82124W        W82988  10.648   5.819  22.437  0.0041  0.1342 -0.1649
82125W        W82989  25.398  11.007  22.288 -0.1890  0.1232 -0.0724
82126W        W82990  29.133   8.499  27.475 -0.1040  0.2390  0.2205
82127W        W82991  13.386   6.715  21.841 -0.3812  0.2587 -0.1004
82128W        W82992   9.327  26.493  22.626  0.2594  0.3050  0.1124
82129W        W82993  19.586   4.694  12.764 -0.0473  0.3505  0.1892
82130W        W82994  14.851  24.702   4.225 -0.0115  0.0721 -0.1344
82131W        W82995  26.273   3.298   1.717  0.2894  0.1876  0.3493
82132W        W82996   4.971  28.135  25.168 -0.0928  0.0452  0.0469
82133W        W82997  23.609  25.547   6.844  0.1017 -0.2452  0.0306
82134W        W82998  25.957   0.054   4.319 -0.0712  0.2415  0.0570
82135W        W82999  18.767  17.348   5.871  0.0316  0.0303  0.0857
82136W        W83000  24.655  28.855  18.565  0.0177  0.1896 -0.0798
82137W        W83001  17.557  10.438   3.305 -0.2691 -0.3709 -0.2947
82138W        W83002  26.890   9.748   6.608 -0.0244  0.1297 -0.0397
82139W        W83003   9.139  13.328  25.018  0.0772 -0.1861  0.1545
82140W        W83004  26.075  26.592  14.989  0.1729  0.0642  0.3679
82141W        W83005   3.044   4.101  15.007  0.4997  0.1417 -0.0314
82142W        W83006  27.099  28.237  27.373  0.0468  0.1121 -0.1650
82143W        W83007  17.627  25.928  10.008  0.1313  0.0342 -0.3262
82144W        W83008  19.975  17.207  26.792 -0.0352  0.2152  0.0391
82145W        W83009   6.799  16.148  19.354 -0.2325  0.1382  0.3147
82146W        W83010  24.437  22.267   3.277 -0.0526  0.1398 -0.2104
82147W        W83011  14.812  13.265   7.664 -0.2086  0.1570 -0.4766
82148W        W83012  17.222   8.453   7.892  0.3520  0.3632 -0.0811
82149W        W83013   3.229   8.745  20.476 -0.3271  0.3915  0.0177
82150W        W83014  22.026  25.490   3.372 -0.2011 -0.0453 -0.2709
82151W        W83015   7.045   6.992  24.812 -0.1743 -0.3277 -0.1499
82152W        W83016  20.147  15.104  28.646  0.1634  0.1132 -0.0926
82153W        W83017   9.877  25.731  24.169  0.0490 -0.2283 -0.0100
82154W        W83018   6.751   5.002  27.588  0.0990  0.0585 -0.1099
82155W        W83019  10.944  18.945  14.460 -0.1364 -0.0401 -0.2747
82156W        W83020  22.520  11.027   0.006  0.2351 -0.0443  0.0405
82157W        W83021  27.017  24.153  17.824 -0.2157  0.0062 -0.2203
82158W        W83022   8.792  19.343  28.461  0.0828  0.2822 -0.2471
82159W        W83023   6.247  15.054  27.183  0.1649  0.2164  0.0492
82160W        W83024  19.960   7.806   8.004 -0.1221  0.3498  0.0520
82161W        W83025   2.756  22.083   0.843  0.0383 -0.4857  0.0530
82162W        W83026  19.718  10.342  22.785 -0.1955  0.0478 -0.2902
82163W        W83027  24.531  12.808   5.102  0.0664 -0.4714 -0.3387
82164W        W83028   8.240   2.114  27.599  0.1258  0.0364 -0.3004
82165W        W83029  10.156  15.854  22.246 -0.0944 -0.3744  0.0558
82166W        W83030  11.740   1.704  24.001 -0.2890  0.3057  0.1331
82167W        W83031  24.530   5.723   9.625 -0.1885 -0.0642 -0.0348
82168W        W83032   8.508  10.844  13.255  0.2794 -0.0289 -0.0187
82169W        W83033   2.336   2.468  15.532  0.0140  0.1089  0.0712
82170W        W83034  16.987  14.946  22.520  0.2844  0.1753  0.2183
82171W        W83035  24.775  19.897  27.646  0.1548  0.3609  0.1450
82172W        W83036   0.301   5.056  26.273  0.1675  0.1277 -0.2107
82173W        W83037   3.152   6.747   3.621 -0.3720  0.1271 -0.1478
82174W        W83038   6.141  24.645   1.217 -0.0427 -0.0645 -0.1887
82175W        W83039   6.958  28.101   7.038 -0.3111 -0.0519  0.1862
82176W        W83040   0.510  10.502  27.620  0.0754  0.4486  0.1911
82177W        W83041   5.120  18.273   1.975  0.0284 -0.2724 -0.1994
82178W        W83042  12.006  17.272  14.102 -0.1724 -0.1939 -0.2281
82179W        W83043   9.466   5.845  15.748 -0.0883  0.0032  0.0238
82180W        W83044   5.572  27.713   0.698  0.1227 -0.0090  0.2975
82181W        W83045  22.743   7.316  25.380 -0.3235 -0.2213  0.2395
82182W        W83046  22.439  15.660   1.790 -0.0633 -0.0871  0.2869
82183W        W83047  26.733   0.567   0.796 -0.0038  0.0714 -0.2085
82184W        W83048  10.549  18.781  12.346  0.2740 -0.0831  0.2602
82185W        W83049   9.644  20.873  21.990  0.2632  0.2595 -0.0308
82186W        W83050   1.219  20.501  10.944  0.0573 -0.0310 -0.1014
82187W        W83051  28.479   7.935   2.263  0.0418  0.0499  0.0650
82188W        W83052   9.366  10.132  10.740  0.1378 -0.0337 -0.1878
82189W        W83053  27.311  23.943   3.467 -0.1362  0.0186  0.0160
82190W        W83054   3.432   8.243  22.879  0.0099 -0.1427 -0.1285
82191W        W83055   7.797   1.667   2.182 -0.0625  0.1476 -0.0601
82192W        W83056   8.824   3.633  28.360 -0.2601  0.0557 -0.4042
82193W        W83057   6.521   0.764  14.155  0.0099  0.1393 -0.1501
82194W        W83058  23.508  21.756   3.424 -0.1654 -0.1580 -0.2896
82195W        W83059  20.830   6.405   7.074 -0.1704  0.2005  0.1871
82196W        W83060  26.969   6.483   0.547  0.1538  0.3440  0.0070
82197W        W83061   9.427  21.598  10.389  0.3198 -0.1756 -0.0572
82198W        W83062  20.655  19.956  28.446  0.0166 -0.2074  0.1444
82199W        W83063   5.257  16.013   5.190 -0.0146 -0.3281  0.0160
82200W        W83064  28.866   8.573  27.897  0.0741  0.1111  0.1000
82201W        W83065  17.201   3.321  11.099 -0.3699 -0.1393  0.3196
82202W        W83066  25.593   6.399  13.183 -0.2516  0.1073 -0.0683
82203W        W83067  11.257  22.581  11.459 -0.0985  0.1199  0.3322
82204W        W83068  17.371  23.688  28.756  0.1601  0.0814 -0.1638
82205W        W83069  23.679  12.280  12.825  0.2476  0.0394 -0.1112
82206W        W83070  13.054   1.771   8.752  0.3362  0.1029  0.1817
82207W        W83071  22.842  14.071  16.525  0.0717  0.1047  0.0043
82208W        W83072  22.555  10.412   0.518 -0.0477 -0.0592 -0.0201
82209W        W83073   2.596  12.017  27.372  0.0640  0.0395  0.1181
82210W        W83074  19.198   8.096   1.243  0.2799  0.1800  0.0920
82211W        W83075   2.431  20.026  20.104 -0.0278 -0.0375  0.4511
82212W        W83076  11.029  17.337   5.860 -0.1824 -0.1055 -0.0313
82213W        W83077   8.555  27.842  23.230  0.3237  0.0273 -0.0094
82214W        W83078  13.294   2.377   3.877 -0.2893  0.2407  0.3283
82215W        W83079  22.057  23.401  20.609  0.1712  0.0825  0.4256
82216W        W83080  17.988  24.750  16.754 -0.3465  0.1282  0.0049
82217W        W83081  24.774   9.441   0.009 -0.0016 -0.1019  0.2948
82218W        W83082  28.666  22.952  20.719 -0.2904 -0.0447  0.0346
82219W        W83083  11.966   3.090  21.401 -0.1039  0.4701 -0.1264
82220W        W83084  12.896   4.397  15.020 -0.2048  0.0916 -0.0791
82221W        W83085  13.583   7.653  16.576 -0.2858  0.1678 -0.0500
82222W        W83086  27.266   4.178   7.710 -0.0077  0.0178  0.0288
82223W        W83087  25.569  28.525   3.436 -0.0592  0.0310 -0.0936
82224W        W83088  17.728  16.089  16.262  0.1155  0.0272 -0.3228
82225W        W83089   4.417   2.025   3.233 -0.1191 -0.3513 -0.0720
82226W        W83090  25.404  10.855   6.220  0.0281  0.3071 -0.1630
82227W        W83091  21.387  24.802   4.341  0.0988  0.4006  0.0094
82228W        W83092  22.965  28.044  28.999 -0.3778 -0.0604 -0.0394
82229W        W83093   5.952  23.222   5.114 -0.1593 -0.1077  0.0210
82230W        W83094  17.558   7.332  18.276 -0.0430  0.2551 -0.1326
82231W        W83095  25.220  27.695   3.834 -0.1607  0.3481 -0.2156
82232W        W83096   3.816   8.534   4.052 -0.1487  0.0365  0.0004
82233W        W83097  25.043  18.374  20.765 -0.0536 -0.0342 -0.0665
82234W        W83098   3.896  11.520  27.686  0.0796  0.0992  0.2266
82235W        W83099  20.769  21.054   8.985  0.1004  0.1641 -0.1894
82236W        W83100   2.442   8.989   2.899 -0.0546  0.0109 -0.0356
82237W        W83101   0.013  15.150  24.353 -0.0183  0.3945 -0.0470
82238W        W83102  20.548   4.494  24.203 -0.1560 -0.1030  0.0648
82239W        W83103  15.361  13.520  15.902  0.3099  0.0877 -0.2114
82240W        W83104  29.042   3.058  19.167 -0.0753  0.2034  0.0170
82241W        W83105  10.650  10.451   3.066  0.3090 -0.1125 -0.0573
82242W        W83106  11.543   7.979  17.425  0.0342 -0.0615  0.1922
82243W        W83107   9.394   0.951  17.616 -0.0819 -0.2573 -0.1243
82244W        W83108   0.209   1.274   2.769 -0.0049  0.1452 -0.1940
82245W        W83109  26.328  23.138  20.196  0.3773  0.0198  0.0029
82246W        W83110  12.276   8.547   8.787 -0.0569 -0.1024  0.0931
82247W        W83111  23.928  26.986  22.411  0.2447 -0.0366  0.1750
82248W        W83112  18.477  25.383  16.850 -0.0710 -0.0695  0.1608
82249W        W83113   6.063   3.045  19.914 -0.0806 -0.1660  0.1431
82250W        W83114  27.326  28.172  14.998 -0.2581  0.0908  0.2714
82251W        W83115  19.988  14.803  21.323  0.2928 -0.1511 -0.1731
82252W        W83116  27.723  20.971   2.817  0.3407 -0.0040 -0.0442
82253W        W83117   9.519   5.937  14.344  0.0780  0.1991 -0.2345
82254W        W83118   7.422  24.639   0.838 -0.0417 -0.0025  0.2767
82255W        W83119   2.449   1.504  27.902  0.1267 -0.1672 -0.2962
82256W        W83120  27.165  21.844  22.205  0.2727  0.0811 -0.0684
82257W        W83121   9.728  26.966  27.462 -0.1316  0.2393 -0.1926
82258W        W83122  25.734  23.600  25.495 -0.0254 -0.0965  0.1775
82259W        W83123  23.703  24.919  10.849  0.3419  0.2064  0.0483
82260W        W83124  11.408  11.237   9.311  0.1387 -0.0358 -0.4233
82261W        W83125  26.485  26.341   2.193  0.1593 -0.1348  0.3468
82262W        W83126   2.053  24.223  12.846  0.2052  0.1559  0.0448
82263W        W83127   4.044  11.447   5.428 -0.0349  0.1242 -0.1481
82264W        W83128  15.495  12.567  19.509  0.0394 -0.0651 -0.2409
82265W        W83129   6.808  28.841  22.404  0.1119 -0.3218 -0.1906
82266W        W83130  28.444  28.375  18.427  0.1193 -0.3447 -0.0869
82267W        W83131   3.161   0.553  17.494  0.1448 -0.0949  0.1539
82268W        W83132  25.357  10.170   1.863  0.0488  0.0412 -0.1809
82269W        W83133  10.821   0.109   0.994 -0.1461 -0.0329 -0.1411
82270W        W83134  17.005  26.315  18.771 -0.1018 -0.1539 -0.0980
82271W        W83135   6.771   9.618  28.775  0.0764 -0.1565  0.2348
82272W        W83136  12.100  28.744   3.036 -0.2101 -0.1274 -0.2762
82273W        W83137   9.734   0.123   0.828  0.2354  0.2522 -0.0940
82274W        W83138   1.706   6.042  22.398  0.1778  0.2644  0.1442
82275W        W83139   1.957  24.018  21.426 -0.0497 -0.0231  0.0843
82276W        W83140   5.423   1.481   5.294 -0.2397  0.0619  0.0500
82277W        W83141  24.169   1.961   2.477 -0.0987 -0.3380  0.0092
82278W        W83142  24.178  22.334  19.898  0.1068  0.0460  0.2409
82279W        W83143  24.754  12.209   0.835  0.0922 -0.1230 -0.0463
82280W        W83144  23.280   8.891  24.840 -0.2439  0.0245  0.2834
82281W        W83145  15.738  13.125   1.656 -0.1271  0.2046 -0.0227
82282W        W83146   1.361  24.298   0.625  0.1615  0.2050 -0.1194
82283W        W83147  26.066  17.627   9.117  0.1518 -0.0037  0.0956
82284W        W83148  17.880  26.638  10.590 -0.2332 -0.0888 -0.4271
82285W        W83149  29.006  10.338  28.914  0.0876  0.2404 -0.1600
82286W        W83150  22.993  27.838  23.761 -0.3068 -0.0140 -0.1762
82287W        W83151   8.529  17.392  16.826 -0.1190 -0.1216  0.2448
82288W        W83152  25.311   1.668   5.397 -0.0780 -0.0554 -0.0066
82289W        W83153  15.795   3.650  25.711  0.0452 -0.2728  0.0297
82290W        W83154  26.119   4.197  18.340 -0.4401  0.0147 -0.2346
82291W        W83155   1.611  16.877  20.371  0.0035  0.1881  0.2603
82292W        W83156  22.350  14.792   6.367 -0.0640  0.0645  0.2000
82293W        W83157  23.896   3.675  25.751 -0.0196  0.1863 -0.1500
82294W        W83158  22.949   0.164  17.656  0.0003  0.0141  0.0398
82295W        W83159  14.802   5.599  10.440  0.1281  0.4212  0.1695
82296W        W83160  26.966   5.855   6.059  0.1293  0.1805 -0.2054
82297W        W83161   8.384  24.265  15.829  0.1919  0.1264  0.1941
82298W        W83162  19.207  23.404  23.349  0.0423  0.0226 -0.0492
82299W        W83163  19.975  12.951   2.393  0.2085 -0.1544  0.1728
82300W        W83164  27.836   8.371  11.042 -0.0540  0.0525  0.0697
82301W        W83165   1.588  19.197   4.784 -0.0740  0.1455  0.0075
82302W        W83166  15.962  17.036  25.826  0.2466 -0.0371 -0.1659
82303W        W83167   3.092  29.122  28.310  0.0528  0.1882 -0.1632
82304W        W83168  21.722  19.868  24.482  0.0703 -0.0612  0.0289
82305W        W83169  23.990   8.092  17.079 -0.0297 -0.2354 -0.2619
82306W        W83170   1.514  19.481  17.803 -0.2289 -0.1634 -0.1418
82307W        W83171  23.498   9.955  27.120 -0.3431  0.2025  0.3483
82308W        W83172  23.942   5.501  27.533  0.1485  0.0354 -0.4251
82309W        W83173  27.285  13.804  24.303 -0.1550  0.2273  0.0002
82310W        W83174  24.447  15.391   7.669 -0.1323  0.1759 -0.0215
82311W        W83175  23.579  25.365  19.214  0.0994 -0.2070 -0.0069
82312W        W83176  17.666  14.313   3.812 -0.1464  0.1834 -0.1447
82313W        W83177  28.057  14.644  17.346  0.0024  0.2929  0.0005
82314W        W83178   9.779   4.984  20.882 -0.0142 -0.0555 -0.1608
82315W        W83179  21.155  27.243  22.766 -0.1731  0.1330  0.2016
82316W        W83180  23.701   6.033   6.435 -0.1514 -0.1016  0.2155
82317W        W83181   4.413  27.649  25.517  0.1605  0.0037 -0.3182
82318W        W83182   6.100  14.892  11.975  0.2364 -0.3085  0.1656
82319W        W83183   2.070  27.914  13.666 -0.0162  0.1555 -0.1211
82320W        W83184   0.914   5.891  21.239 -0.1153 -0.0067  0.3294
82321W        W83185   6.168  23.294  26.133  0.0953  0.0395  0.0259
82322W        W83186   9.408   4.741  23.890  0.0549  0.2498 -0.1105
82323W        W83187  14.730  24.414  23.238  0.0131 -0.1846  0.0271
82324W        W83188  18.942  19.276   1.513 -0.2595 -0.1810  0.2469
82325W        W83189  16.255   4.953  16.720 -0.0519  0.1342  0.0109
82326W        W83190  21.433  27.357  25.023  0.0865  0.2837 -0.3432
82327W        W83191   3.678  11.886   4.148 -0.3040  0.0505 -0.0987
82328W        W83192   2.745  12.071   7.564  0.1916 -0.1468 -0.2660
82329W        W83193  26.775   0.032   1.034 -0.1344 -0.0846 -0.4737
82330W        W83194   0.045   5.577  20.396  0.2310 -0.0849  0.2563
82331W        W83195   8.311   7.922  17.521 -0.2133 -0.0586 -0.1593
82332W        W83196  11.471   4.061  17.367  0.2626 -0.0530  0.0585
82333W        W83197  24.591  14.851  18.967 -0.2492  0.0510  0.0047
82334W        W83198  17.614  26.345  20.267 -0.0807 -0.0680  0.1231
82335W        W83199   3.296  13.107  23.300 -0.3122  0.1547 -0.0783
82336W        W83200  28.822  23.413   6.641  0.2838 -0.0226 -0.0527
82337W        W83201  12.211  10.024   0.969 -0.2171 -0.3131 -0.0905
82338W        W83202  22.247  18.041  26.759  0.0162  0.1879  0.1952
82339W        W83203  27.344   6.500  28.755  0.1174  0.0302 -0.1995
82340W        W83204   2.877  13.418   0.193 -0.0399  0.1197 -0.1451
82341W        W83205  18.789  15.849  19.845 -0.1138 -0.2479 -0.1115
82342W        W83206   7.707  23.467  26.635  0.0074 -0.3245 -0.1266
82343W        W83207  28.857  14.492   7.426 -0.2300  0.2569  0.1523
82344W        W83208  14.063  26.427  20.220  0.2514 -0.1275  0.1922
82345W        W83209  26.135  26.028  13.817  0.0830  0.2888 -0.2370
82346W        W83210   3.037  26.333  21.665  0.1294 -0.0940 -0.1366
82347W        W83211   2.872  17.996  26.922 -0.0613  0.0990 -0.0501
82348W        W83212  10.301  26.917   5.274  0.0649 -0.1234  0.1988
82349W        W83213   2.638   3.716  26.150 -0.2142  0.2284 -0.3521
82350W        W83214   0.503  12.453  27.122  0.1469  0.1425 -0.1732
82351W        W83215   1.704  10.578  22.793 -0.1000  0.3567  0.0808
82352W        W83216  17.024   7.226  11.215  0.2609  0.3095  0.0603
82353W        W83217   4.318  21.011   1.759 -0.1993 -0.1336  0.0454
82354W        W83218   5.566  22.716  24.961  0.0248  0.0756 -0.1555
82355W        W83219   4.997   0.892  10.944  0.0062  0.0063  0.0578
82356W        W83220  26.406   0.707   1.269  0.2225  0.1198  0.2061
82357W        W83221  16.521   1.391  11.403  0.2843 -0.1135 -0.0799
82358W        W83222   0.045   8.809  21.225 -0.0528  0.1033 -0.0290
82359W        W83223   4.047   8.515  15.448  0.1690  0.3579 -0.1004
82360W        W83224   4.730   3.086  22.987 -0.0654 -0.0142 -0.0085
82361W        W83225   4.010   2.145   1.206  0.3100 -0.1801 -0.1763
82362W        W83226   5.176   0.616  28.529 -0.3101  0.0237  0.0038
82363W        W83227  26.068  11.304  25.745 -0.1710 -0.0640  0.0803
82364W        W83228  10.768   2.522  18.597  0.1598 -0.1565  0.2466
82365W        W83229  25.215  25.402  23.432 -0.1980  0.3200 -0.0743
82366W        W83230   0.130  14.644   7.864  0.2005 -0.0987  0.0725
82367W        W83231  20.339  24.315   8.520  0.2475 -0.4364 -0.2413
82368W        W83232  21.616   5.587  17.662  0.1182 -0.0021 -0.1312
82369W        W83233  17.760   3.576  10.008  0.0782  0.3846 -0.4436
82370W        W83234  21.417  26.545  28.802 -0.0429  0.3182  0.1509
82371W        W83235  22.730   1.355  14.611  0.5339 -0.0486 -0.2448
82372W        W83236  19.756   0.400  26.339 -0.1821  0.0810  0.0596
82373W        W83237   7.155  28.563  13.235  0.2401  0.1137 -0.1368
82374W        W83238   4.456   0.053  23.582 -0.0993 -0.0599  0.3357
82375W        W83239   4.979   7.590   9.428  0.1482 -0.0905 -0.0220
82376W        W83240   2.961  21.347  26.875  0.2168 -0.0626 -0.3667
82377W        W83241  11.328  14.404   3.480 -0.1937 -0.0021  0.2390
82378W        W83242  12.200   9.053  27.559 -0.1888  0.0607  0.0936
82379W        W83243  28.486   7.014  10.890  0.2401  0.0880  0.1747
82380W        W83244   3.572  23.459   5.104  0.0946  0.1998 -0.1933
82381W        W83245   8.786   6.864   3.856 -0.1890  0.0061  0.0386
82382W        W83246  16.596  19.838  25.072  0.1077 -0.1817 -0.0400
82383W        W83247   9.967  22.106   4.329 -0.1101  0.0171 -0.1659
82384W        W83248   3.162  25.077   6.650  0.0012 -0.0010 -0.1787
82385W        W83249  25.145  16.922  17.937  0.1900  0.0532 -0.2734
82386W        W83250   3.566   7.623   5.190 -0.1247 -0.0434 -0.1795
82387W        W83251  19.545  16.316  10.229 -0.0182  0.3274 -0.2903
82388W        W83252  18.101   2.713  28.792  0.0359 -0.1539 -0.0639
82389W        W83253  10.449  29.087  21.531  0.5663 -0.2143 -0.2984
82390W        W83254  24.375  14.588   3.001  0.0413 -0.0522 -0.0335
82391W        W83255  17.262   0.416   8.531 -0.0434  0.1513 -0.2032
82392W        W83256  28.986   2.646  17.194 -0.2809 -0.3757 -0.2141
82393W        W83257  10.060  20.346  12.492  0.1809  0.0041  0.4032
82394W        W83258   8.291   7.481   2.538  0.2424  0.2170 -0.0967
82395W        W83259  26.637  22.597   6.954 -0.0232  0.3807 -0.1012
82396W        W83260  12.034   9.677  17.150 -0.0911 -0.1713 -0.0655
82397W        W83261  17.486  21.895   1.212 -0.7097  0.1961  0.0474
82398W        W83262  26.989  20.257  26.079 -0.0119  0.2613  0.0400
82399W        W83263   6.191   6.905  11.960 -0.1521  0.0591  0.0756
82400W        W83264   1.833  24.989  13.473  0.1755  0.1034  0.0273
82401W        W83265  15.149  25.848   2.925 -0.0632 -0.1472  0.0561
82402W        W83266   6.523  27.005  10.139 -0.1010  0.0401  0.0707
82403W        W83267  20.824  26.262  23.490 -0.1907  0.0714  0.0495
82404W        W83268  19.903   7.218   4.530 -0.1451 -0.0457  0.0136
82405W        W83269   9.272   0.778   7.106  0.2279  0.0794  0.0038
82406W        W83270  10.410  21.180   4.236  0.4194  0.0173  0.3865
82407W        W83271  27.070  27.841  21.780 -0.1473 -0.4795  0.0738
82408W        W83272  21.583   0.440  26.436  0.0056  0.1441 -0.2037
82409W        W83273  13.921   5.852   0.309 -0.0438  0.1433  0.1512
82410W        W83274  19.692  24.368   1.489 -0.2809 -0.1503 -0.0696
82411W        W83275  22.634   5.111   5.365  0.3403 -0.1652 -0.0536
82412W        W83276  28.860  13.839   0.504  0.1760 -0.0073 -0.3307
82413W        W83277   8.191  19.103  28.937 -0.0922  0.1459  0.0047
82414W        W83278  28.740  27.471  11.494  0.1194  0.0527 -0.1662
82415W        W83279  24.420  27.307  18.727  0.0569  0.2435 -0.0900
82416W        W83280   2.814  28.680  28.661 -0.1071  0.0719 -0.2880
82417W        W83281  26.955   1.340  21.764 -0.0667 -0.2967  0.1206
82418W        W83282  28.856   3.504   1.219 -0.1458 -0.2100  0.0889
82419W        W83283  24.428   5.956   5.923  0.2131  0.1929 -0.1820
82420W        W83284  19.144  11.118  23.564  0.1344  0.2979 -0.0549
82421W        W83285  23.388   7.007   8.961 -0.0240 -0.1239 -0.2327
82422W        W83286  25.029   7.315  15.361  0.1278  0.1067 -0.2227
82423W        W83287   9.498   9.676  25.597 -0.1050 -0.1322  0.0800
82424W        W83288  22.740  13.269  19.261  0.2652  0.0286  0.2783
82425W        W83289   0.378  19.625   2.888  0.0489 -0.2130  0.0784
82426W        W83290  10.690  22.175   7.602  0.1166 -0.0981 -0.0550
82427W        W83291   3.848   0.081   7.880  0.0918 -0.0889  0.2242
82428W        W83292  24.496  14.142  28.616 -0.3078  0.1463  0.0835
82429W        W83293  15.470  16.425  21.880 -0.0717 -0.2012  0.2098
82430W        W83294  22.317   1.549  12.672  0.4416  0.0145 -0.2856
82431W        W83295   3.937  10.784  26.901  0.0974  0.0660  0.0370
82432W        W83296   0.848   6.952   8.149 -0.2385  0.0403  0.0696
82433W        W83297  19.801   4.246   2.386 -0.0123  0.1767  0.3996
82434W        W83298   4.077  25.259   8.802  0.1337  0.1679  0.0903
82435W        W83299  20.785  14.743   5.952 -0.1302  0.3781 -0.2724
82436W        W83300  16.124   4.046   7.255 -0.0412  0.1044 -0.1655
82437W        W83301   5.233  23.408   3.560  0.2769 -0.1147  0.0363
82438W        W83302   4.727  12.753  20.805 -0.0040 -0.0983  0.1417
82439W        W83303  22.995  17.115  29.116  0.0071 -0.1622  0.0516
82440W        W83304   0.771  27.111  21.235 -0.0604  0.3341 -0.3797
82441W        W83305  23.905   7.429  19.751 -0.0352 -0.2927 -0.1567
82442W        W83306   0.151   5.931   6.874  0.0003  0.1255 -0.0357
82443W        W83307   1.484  17.206  17.525  0.0249  0.1524  0.2423
82444W        W83308  26.173  20.972   9.383 -0.0751  0.1095  0.3477
82445W        W83309  17.266  10.667   8.077 -0.1368  0.0242  0.1206
82446W        W83310   8.985   5.005  20.272 -0.2367 -0.2554 -0.2590
82447W        W83311  19.099   9.702  16.450  0.1776 -0.3513 -0.0797
82448W        W83312   7.508  21.409   0.140  0.4163  0.0895  0.0755
82449W        W83313   4.906  26.290   0.080  0.2915 -0.0033  0.0372
82450W        W83314  23.257  15.091  25.817  0.1093  0.0735 -0.0228
82451W        W83315   6.233  10.334   8.521  0.0710  0.0383 -0.1057
82452W        W83316  27.954   5.757  25.382 -0.1807 -0.3290  0.0872
82453W        W83317  21.605  19.549  10.511 -0.3005  0.2254 -0.0987
82454W        W83318  11.139  21.046   2.828 -0.0025  0.2117  0.1437
82455W        W83319  25.184   8.715  20.349  0.3139  0.2700  0.1041
82456W        W83320   7.586  26.427   5.899  0.1973 -0.2631  0.0211
82457W        W83321  24.100  12.948  26.630  0.2117  0.0964 -0.0154
82458W        W83322   2.425  16.481  22.870  0.1010  0.2036  0.0576
82459W        W83323   6.461   4.529  13.932  0.2356  0.0197  0.2954
82460W        W83324   0.194  21.108  26.720  0.1553  0.0493  0.0455
82461W        W83325   0.711   7.090   4.068 -0.0932  0.2480 -0.1156
82462W        W83326  14.202   8.221  26.050 -0.2171  0.0101 -0.0425
82463W        W83327  28.536  18.742   5.725  0.3648 -0.0222 -0.0214
82464W        W83328   0.576  12.564   6.738 -0.1821 -0.0747  0.2179
82465W        W83329  29.136   9.147  15.066  0.1248  0.0968  0.1090
82466W        W83330   3.503  18.967   0.988 -0.0395 -0.0569  0.1784
82467W        W83331  11.442  28.495  25.013 -0.2131 -0.0261  0.1792
82468W        W83332  11.697  12.085  11.051  0.0777  0.0862  0.1488
82469W        W83333  28.692  10.655   3.168  0.0111  0.0513  0.1794
82470W        W83334   3.747  25.956  14.133  0.0563 -0.0532  0.4351
82471W        W83335   6.535  18.120  23.992 -0.0810 -0.0512 -0.1578
82472W        W83336  18.139   0.465  25.593 -0.1807  0.0896 -0.0184
82473W        W83337   5.997  24.875  18.186 -0.1758 -0.1942  0.3039
82474W        W83338  24.992   4.562  15.313 -0.0013  0.2698 -0.0814
82475W        W83339  18.378   7.458  19.892  0.1784 -0.1147 -0.0069
82476W        W83340  24.945  18.123  29.022 -0.3189  0.2005  0.0395
82477W        W83341   6.688   8.550   9.875 -0.1967  0.0843  0.2940
82478W        W83342  25.302  18.511  14.909 -0.2662 -0.0516  0.3481
82479W        W83343   3.414  12.014  18.740 -0.0140  0.1563 -0.0098
82480W        W83344   2.297   6.228   1.412 -0.1731  0.0445 -0.1516
82481W        W83345  20.361  10.246   8.315  0.0804 -0.4664  0.0795
82482W        W83346   6.637   1.760  22.563 -0.2402  0.0563 -0.1164
82483W        W83347   9.703   5.503  22.872 -0.0641  0.0122 -0.0942
82484W        W83348   4.046  11.699   8.368 -0.1139 -0.0048  0.1907
82485W        W83349  27.407  10.713  28.519 -0.1409 -0.1615 -0.0757
82486W        W83350   8.542  26.618   1.264  0.1131  0.1438 -0.0520
82487W        W83351  17.756  12.761  10.241  0.1912  0.2395 -0.1895
82488W        W83352   8.924  22.509  18.523  0.2899 -0.2434 -0.0865
82489W        W83353  17.363  16.055   3.345 -0.1742  0.0333  0.0501
82490W        W83354  19.850  12.508  23.936  0.1433  0.0141  0.0776
82491W        W83355   2.135  11.675   1.287 -0.2297  0.0170  0.0980
82492W        W83356   7.548   3.223   9.004 -0.0810  0.1102  0.3370
82493W        W83357  26.507  13.816  10.432 -0.1564  0.1107 -0.4094
82494W        W83358  13.587   7.788   7.576 -0.0494  0.1854 -0.0213
82495W        W83359  11.389  22.159  18.721 -0.1524  0.0837 -0.3565
82496W        W83360   5.672   2.674  28.241 -0.0477 -0.1506  0.0604
82497W        W83361  24.555  22.063  28.736  0.5398  0.0991 -0.0975
82498W        W83362  28.747  13.913   4.058  0.1347 -0.0701  0.2402
82499W        W83363  14.574  11.888   4.334 -0.0446  0.0041 -0.1336
82500W        W83364  22.488  11.569   9.068 -0.2517 -0.0547  0.1454
82501W        W83365   3.089  20.803  21.130  0.2097  0.1549 -0.0256
82502W        W83366  28.211  10.383  20.426 -0.1359 -0.2491  0.1290
82503W        W83367   2.019  16.405   3.687 -0.2291  0.0716 -0.1861
82504W        W83368   4.591  28.289  13.558 -0.2116  0.1037  0.1919
82505W        W83369  24.446  28.614   9.809 -0.0236  0.4607 -0.0343
82506W        W83370  14.583   1.947   9.824  0.2108  0.3418  0.1632
82507W        W83371  26.155  27.830   3.302 -0.0162 -0.1962 -0.0817
82508W        W83372  16.272   7.185  15.356  0.3459  0.0240 -0.2271
82509W        W83373  26.667  20.657   9.237 -0.1557 -0.1076 -0.0440
82510W        W83374  28.798   5.931   6.456  0.3758  0.1025  0.1136
82511W        W83375  15.662   2.146  23.219 -0.1701 -0.0574 -0.2861
82512W        W83376   7.302   4.440  28.184 -0.0151 -0.1607  0.1302
82513W        W83377  17.940  25.710   5.131 -0.0314  0.1118 -0.1308
82514W        W83378  21.438  26.107  11.072  0.1443  0.2568 -0.2035
82515W        W83379   7.168  11.712   9.090 -0.1713 -0.0157 -0.1215
82516W        W83380   3.218  22.774  21.864  0.1006 -0.4189 -0.2306
82517W        W83381  19.069  21.490  25.398  0.0170  0.1986 -0.0506
82518W        W83382   0.208   1.442   3.704 -0.0729  0.0126  0.1573
82519W        W83383  27.064  11.128   6.986  0.1581  0.2372 -0.3454
82520W        W83384   0.861   1.090   3.158  0.0573  0.0677 -0.0415
82521W        W83385  16.041  10.859  21.518 -0.2702 -0.0548 -0.1034
82522W        W83386  13.975  10.500  11.767  0.2005 -0.0083 -0.2340
82523W        W83387  17.205  24.693   5.880  0.1629 -0.3228 -0.2968
82524W        W83388  20.951  28.270  23.675 -0.0388  0.1203 -0.0318
82525W        W83389  14.698  16.986  28.492 -0.0520 -0.0979 -0.1796
82526W        W83390   2.960  10.689  18.745  0.3305  0.4438  0.0746
82527W        W83391  15.247  17.028  11.057  0.2079  0.2184  0.0221
82528W        W83392   8.396  15.119  24.854  0.1093 -0.1281 -0.0408
82529W        W83393  28.351   4.750  21.655 -0.1453 -0.2963  0.0161
82530W        W83394  21.548  12.764  13.516 -0.0933  0.0700  0.1309
82531W        W83395  13.591  14.152  27.614 -0.0610  0.2241 -0.1659
82532W        W83396   5.688   2.351   5.904 -0.2173  0.3010  0.3174
82533W        W83397   4.988   9.854   7.434 -0.2178  0.0139 -0.0245
82534W        W83398  10.915  14.089   7.104 -0.0255  0.0942 -0.3048
82535W        W83399  21.132  26.490   2.038 -0.0484  0.1626  0.1204
82536W        W83400   8.747  12.384   0.459 -0.0314  0.0263 -0.1822
82537W        W83401  27.227   9.882   5.577  0.1327 -0.1739 -0.0086
82538W        W83402  13.815   3.414   3.130 -0.0588  0.0307 -0.2468
82539W        W83403  19.826  28.346   9.651  0.2758 -0.0284  0.0818
82540W        W83404  12.774  24.617  10.705 -0.2798  0.0717 -0.0569
82541W        W83405   0.765  19.058  21.224 -0.1200  0.2751 -0.0260
82542W        W83406  21.700  10.351   7.955 -0.0475  0.2176 -0.0214
82543W        W83407  23.755  27.846   7.637  0.3048 -0.2297 -0.1280
82544W        W83408   1.979  15.090   4.996 -0.1109 -0.0231 -0.1586
82545W        W83409  26.835   3.158   6.516 -0.2591  0.0725  0.0934
82546W        W83410   8.823   4.569  21.543  0.2588  0.1321 -0.4384
82547W        W83411  24.667   8.937   1.984 -0.3079 -0.2022  0.1737
82548W        W83412  24.401  17.114  24.318  0.2142  0.0944 -0.0608
82549W        W83413   3.412  13.371  16.924  0.2316  0.1310 -0.1493
82550W        W83414   2.800   1.366  12.477 -0.1693  0.1653 -0.0637
82551W        W83415  26.920  12.348   0.191 -0.0580 -0.2657 -0.1405
82552W        W83416   9.651  18.796  27.414 -0.0224  0.0430  0.0978
82553W        W83417  21.726  11.570  27.670 -0.0435 -0.0284  0.2100
82554W        W83418  28.788   8.259   9.266  0.0096 -0.0406 -0.2670
82555W        W83419   5.770  14.046  19.905 -0.0504  0.1993  0.0461
82556W        W83420  22.442  24.403  23.614 -0.0484  0.2144  0.0137
82557W        W83421  18.962   0.919  11.638  0.1456 -0.2882  0.1022
82558W        W83422  18.038  26.741   4.475 -0.1825 -0.3797  0.1579
82559W        W83423   2.584  10.374  28.562 -0.5047 -0.2023  0.2863
82560W        W83424  11.329  23.960  27.112  0.0177 -0.0525 -0.0491
82561W        W83425   7.089  20.131   0.388 -0.3604 -0.2050 -0.1451
82562W        W83426  11.738  27.451   1.302  0.0224 -0.2541 -0.4196
82563W        W83427   0.946   9.186  27.845 -0.1123  0.0244  0.2072
82564W        W83428  23.201   1.465  13.195  0.0978  0.0535  0.0334
82565W        W83429  28.954   3.122  13.707  0.2261 -0.2179 -0.1609
82566W        W83430   3.193  23.357  23.526 -0.2048 -0.0232 -0.2019
82567W        W83431   6.717  28.347  18.261 -0.0733 -0.2590  0.2451
82568W        W83432   8.808  19.198  11.949 -0.3933  0.0737 -0.0320
82569W        W83433  11.060  19.363  24.485 -0.1683  0.0832  0.0998
82570W        W83434   2.510  28.837   2.891  0.4849 -0.1117  0.0725
82571W        W83435   2.478  12.594  19.291 -0.1133  0.0134  0.1671
82572W        W83436  23.771  16.521   8.155 -0.2243 -0.2657  0.1127
82573W        W83437  10.494  26.296  21.737  0.4468 -0.0497 -0.1105
82574W        W83438  12.834  21.666   3.881  0.0955 -0.1922  0.0944
82575W        W83439  20.294   8.330   1.182  0.0382 -0.3617  0.3647
82576W        W83440   2.399  15.321   3.548 -0.1714  0.2157  0.3226
82577W        W83441  21.028   8.132   2.299 -0.2419 -0.3215  0.1342
82578W        W83442   8.115   3.139   6.927 -0.1459 -0.0604 -0.2437
82579W        W83443  28.025   4.613  13.913  0.0500 -0.0628  0.0602
82580W        W83444   8.585  13.028   1.874 -0.1093  0.2712  0.2550
82581W        W83445  28.848  14.095  28.936  0.0648  0.0335  0.0506
82582W        W83446  22.317   2.546  10.480  0.1551 -0.0511  0.1681
82583W        W83447  18.163   9.412  12.188 -0.2186  0.3802  0.2458
82584W        W83448   1.424   8.900   9.404  0.1720 -0.1310 -0.2202
82585W        W83449  17.325   7.871  10.560 -0.0163 -0.0271  0.1351
82586W        W83450  16.254  17.449  25.311 -0.3963  0.2651  0.0080
82587W        W83451  28.145  22.503  17.814  0.2749  0.2347 -0.1557
82588W        W83452   6.183  15.608   3.932 -0.0417 -0.0735 -0.1337
82589W        W83453  18.575  25.087   7.208  0.3913  0.0457 -0.2381
82590W        W83454  14.868   9.033   6.126 -0.1265  0.0169  0.1362
82591W        W83455  16.601  27.527   0.576  0.0475  0.2142 -0.0789
82592W        W83456   5.313  12.264   0.549  0.2246  0.3773  0.0711
82593W        W83457  28.249   0.959   8.437 -0.2322 -0.3261 -0.1431
82594W        W83458   1.237  22.090   5.537  0.0080 -0.0108  0.1049
82595W        W83459   1.837   6.157   0.295 -0.1265 -0.4277 -0.1726
82596W        W83460  10.191  11.129  27.442 -0.0243 -0.0336 -0.2414
82597W        W83461   0.957  10.354  26.522  0.1921  0.1100  0.1397
82598W        W83462  26.572   7.668   0.116 -0.1430 -0.1000  0.0122
82599W        W83463  10.932  29.035   5.620  0.0455 -0.1761  0.3387
82600W        W83464  20.559  13.823  26.468 -0.1467 -0.3095  0.0312
82601W        W83465   2.225  28.197  17.241 -0.0776  0.0663 -0.1172
82602W        W83466  26.205  26.804  22.079  0.1417 -0.0080 -0.0296
82603W        W83467   2.791  20.851  26.735  0.0669  0.2244  0.2744
82604W        W83468  14.894  24.372   8.208 -0.0998 -0.3859  0.1146
82605W        W83469  26.728  11.082   1.456  0.0853  0.0290  0.0197
82606W        W83470   1.312   2.905  21.321 -0.1209  0.2334 -0.0786
82607W        W83471  25.321   8.766   0.470  0.0446 -0.3083 -0.1014
82608W        W83472  21.777   6.548  28.119  0.2323  0.1352 -0.0901
82609W        W83473  13.803  16.184   4.403  0.1308  0.1727  0.1451
82610W        W83474  22.807  26.235   5.437 -0.0097 -0.0556  0.1447
82611W        W83475   7.814  17.101   3.080  0.2838  0.0256 -0.2191
82612W        W83476   1.553   2.489  19.498  0.1897  0.0413 -0.1173
82613W        W83477  25.187  12.953   5.735  0.2304  0.0846  0.0859
82614W        W83478   1.700  25.625   6.522  0.3421  0.1362 -0.0181
82615W        W83479  26.868  13.741   8.936  0.1653 -0.0695 -0.0355
82616W        W83480  27.163  17.511  28.815 -0.2133  0.1940 -0.1676
82617W        W83481  16.955  22.308  21.810  0.0037 -0.0725  0.0151
82618W        W83482   2.471  11.753   2.984  0.0435 -0.1443  0.0607
82619W        W83483  26.302  23.725   3.475 -0.1924 -0.1286  0.1274
82620W        W83484  17.679   2.396   7.589  0.0702  0.2021  0.2517
82621W        W83485  23.750  17.523   4.740 -0.0898 -0.0361 -0.2752
82622W        W83486  23.449  11.207  26.036  0.1019 -0.1750 -0.1144
82623W        W83487   8.890   6.584  27.191 -0.1555 -0.2032  0.1209
82624W        W83488  20.900   1.685  28.208  0.1584  0.1411 -0.0979
82625W        W83489   1.098   4.289  16.715  0.3864  0.4446  0.0570
82626W        W83490  21.172   0.923   0.399 -0.0861  0.0162 -0.2364
82627W        W83491  19.240  18.873  27.055 -0.0396  0.3062 -0.0155
82628W        W83492   2.910  11.427   0.593 -0.1001 -0.0886  0.0698
82629W        W83493  26.867  16.695  14.758  0.3119 -0.1561 -0.0699
82630W        W83494   3.389  20.906  10.036  0.0970  0.2188 -0.1984
82631W        W83495  27.293  27.044  24.879  0.0536  0.0368  0.0131
82632W        W83496   2.864  22.112  12.463  0.4715  0.3113  0.1147
82633W        W83497   7.255  17.602  16.564  0.1287 -0.1524 -0.2247
82634W        W83498  21.510  27.346   0.301 -0.1123  0.0905 -0.0090
82635W        W83499   2.842   3.713  12.284  0.0879  0.1825 -0.0257
82636W        W83500  26.864  25.093  26.981  0.1850  0.3015  0.2131
82637W        W83501   1.579  22.276   8.093  0.0991 -0.2226  0.3852
82638W        W83502   0.428   6.326  19.649 -0.1605 -0.1784  0.0818
82639W        W83503  15.766  10.965  26.289 -0.0217 -0.0889 -0.0405
82640W        W83504   2.474   8.755   4.758 -0.2018 -0.0682  0.2521
82641W        W83505  18.794   9.726  23.687 -0.0499  0.3394 -0.1510
82642W        W83506   5.152   9.267  28.580 -0.0429 -0.6861  0.0419
82643W        W83507  18.871   3.163  25.201  0.3125  0.4514 -0.1196
82644W        W83508  12.494  18.716  22.460  0.0976  0.3681  0.0041
82645W        W83509  25.191  12.738  28.136  0.2212 -0.0900  0.1052
82646W        W83510  14.359  10.759  20.634 -0.3016 -0.0983 -0.2046
82647W        W83511  15.856   1.070   5.342  0.2436  0.1104  0.0192
82648W        W83512   0.023   5.646  15.701  0.0917 -0.0044  0.1719
82649W        W83513   2.641  14.344   6.064  0.0133  0.0620 -0.0232
82650W        W83514  26.487  27.491   7.061 -0.0191  0.1658  0.0087
82651W        W83515   5.627  10.437  26.721 -0.0538 -0.1875 -0.0852
82652W        W83516  13.484  28.129   2.527  0.1364 -0.1007  0.3006
82653W        W83517  21.890   3.257  12.810  0.0503  0.0610  0.0493
82654W        W83518  24.253  22.110  13.218  0.2270 -0.0255  0.0877
82655W        W83519   9.100  20.701   4.666 -0.0601  0.0463 -0.2808
82656W        W83520  23.026   7.639  20.327  0.1009 -0.2149 -0.0373
82657W        W83521  25.287   7.371   6.883  0.1307 -0.0250 -0.2525
82658W        W83522  29.002   3.277  23.764 -0.1527 -0.1127 -0.2286
82659W        W83523  22.910  21.323  28.454 -0.0773  0.0913  0.0730
82660W        W83524  11.830   8.800   5.055  0.0045  0.1068  0.0215
82661W        W83525  13.479   5.845   4.070  0.1832 -0.1407  0.0097
82662W        W83526   5.380  19.459  12.007 -0.0538  0.0245  0.0229
82663W        W83527  24.908  10.274   5.540  0.1743 -0.0966 -0.0149
82664W        W83528  12.809   2.987   9.852  0.5280 -0.0845  0.1796
82665W        W83529   6.526  27.058   5.670  0.1219  0.0642  0.4923
82666W        W83530   8.306   5.528   8.504  0.0494  0.0782 -0.2246
82667W        W83531  14.074  10.792   9.127 -0.2385 -0.0507 -0.1413
82668W        W83532  25.886  21.379  22.397 -0.2664 -0.0417 -0.1058
82669W        W83533   0.155  14.147  27.419  0.1066  0.1114  0.2091
82670W        W83534   4.396  14.407  21.593  0.1989 -0.2032  0.2586
82671W        W83535   2.461  12.056  11.003  0.0973 -0.2261  0.1265
82672W        W83536   3.606   6.074   6.499 -0.1043  0.0064 -0.1170
82673W        W83537   1.437   6.678   7.409  0.1691  0.1266 -0.1810
82674W        W83538   5.138  25.551  13.679  0.0631 -0.0322 -0.2958
82675W        W83539  18.429   9.644  22.451 -0.0000 -0.0741 -0.2467
82676W        W83540  24.490   1.806   6.592 -0.2494 -0.2084  0.1702
82677W        W83541   8.796   7.707  26.715 -0.1684 -0.3411  0.1217
82678W        W83542  28.243  19.406  25.696 -0.0420  0.0720  0.1290
82679W        W83543  24.237   4.335  20.718 -0.1554  0.1184 -0.1508
82680W        W83544  23.739  15.221   0.609 -0.0891 -0.1511  0.0278
82681W        W83545   3.118   0.613  27.156  0.0585 -0.2980 -0.1187
82682W        W83546   3.999  24.622  17.457 -0.1228 -0.0768 -0.1906
82683W        W83547  27.394   6.935   3.111 -0.0882 -0.1818  0.0218
82684W        W83548   3.005   4.748  21.979  0.1381 -0.0837 -0.0805
82685W        W83549  27.415  13.681  14.491  0.3111 -0.2084 -0.2596
82686W        W83550  26.903   0.305   4.073  0.0626  0.1435  0.0607
82687W        W83551   9.539   3.510   6.464  0.2711 -0.1445  0.3741
82688W        W83552   3.879  25.059   6.339  0.2637 -0.0834  0.0512
82689W        W83553  11.995   2.529   6.190 -0.3086 -0.0189 -0.2681
82690W        W83554   3.220   9.367   3.990 -0.0976 -0.2537  0.2938
82691W        W83555  11.798  25.596  17.436  0.1699  0.0342  0.0812
82692W        W83556  24.081   7.351   5.278  0.0248  0.1989  0.3505
82693W        W83557  16.720   1.345  18.826 -0.0408 -0.2752  0.1646
82694W        W83558   4.101  18.031   5.205 -0.2420  0.0554 -0.0765
82695W        W83559   6.651  24.411   1.416 -0.3926 -0.0492 -0.0581
82696W        W83560  22.786  10.412  12.785 -0.1395  0.0109  0.1196
82697W        W83561  23.989   9.333   5.302 -0.4122 -0.1534  0.1676
82698W        W83562  18.447   8.255  18.434 -0.1931  0.0020  0.0470
82699W        W83563   5.445  27.853  17.595  0.2177 -0.1220  0.1148
82700W        W83564  26.132   5.240   3.656  0.2579 -0.0501  0.0048
82701W        W83565   8.470   5.961  10.435  0.3975 -0.0029 -0.2822
82702W        W83566  22.061  27.583  27.451  0.1602  0.1039  0.0692
82703W        W83567   3.394  28.480   5.672 -0.2111  0.0747 -0.3121
82704W        W83568  17.660   4.349   6.044  0.2174  0.2954  0.1888
82705W        W83569  11.270   1.947   9.070 -0.1220  0.1540  0.2436
82706W        W83570  12.560  22.081  12.406  0.1853  0.0664  0.0508
82707W        W83571  18.227   2.783  10.884  0.0987 -0.0224  0.2332
82708W        W83572   9.309  17.350  13.747 -0.1114 -0.0030  0.0002
82709W        W83573  25.028   5.918   8.825 -0.2045 -0.2749  0.0936
82710W        W83574  15.757   5.518   4.286  0.0730 -0.0558 -0.1076
82711W        W83575  27.641   1.174  15.021  0.0362 -0.1016  0.0918
82712W        W83576   0.356   0.714   2.585 -0.1281 -0.3223 -0.2183
82713W        W83577  20.705  15.725  19.753 -0.1546  0.2487 -0.1042
82714W        W83578   3.975  28.749  16.695 -0.4567 -0.0222  0.2463
82715W        W83579  20.185  15.654  10.612 -0.0071  0.2042 -0.1337
82716W        W83580  23.629   1.189   4.066 -0.0761 -0.3818  0.0303
82717W        W83581  16.377  28.616  24.957  0.0023  0.0790 -0.0010
82718W        W83582  23.529   6.084  15.631  0.2175 -0.3197  0.1823
82719W        W83583   0.141  15.854  25.799  0.6743  0.2315 -0.1294
82720W        W83584   8.362  12.239  19.644  0.0706 -0.1830  0.0178
82721W        W83585   1.769   9.447  23.886  0.0460 -0.1222  0.1812
82722W        W83586  27.165  23.721  27.412  0.1090 -0.2024 -0.1966
82723W        W83587  28.304   8.557   4.572 -0.0205 -0.2791 -0.1200
82724W        W83588  19.067   3.762   6.839 -0.0207 -0.0110 -0.3859
82725W        W83589  19.099   3.086  21.788  0.0261 -0.1066 -0.0790
82726W        W83590  24.066   0.553   8.927 -0.0125 -0.0604 -0.1518
82727W        W83591  28.716  26.573   1.127 -0.1571 -0.0480 -0.0901
82728W        W83592   8.727   1.950   2.934 -0.1089  0.0270  0.1905
82729W        W83593   3.279   7.040   6.338 -0.2126  0.1634  0.1179
82730W        W83594  28.094   2.909  12.372 -0.2996 -0.1301 -0.1243
82731W        W83595  27.328   2.154  27.315 -0.2046  0.2165 -0.0062
82732W        W83596   8.632  25.415  26.097 -0.3738 -0.0808  0.0175
82733W        W83597   7.602  27.681   9.823 -0.3000 -0.0288 -0.0318
82734W        W83598  23.897   8.673   4.443 -0.1196 -0.0273  0.1889
82735W        W83599   5.189  28.406   6.373 -0.3332 -0.0327 -0.0667
82736W        W83600  20.413  23.367  24.917 -0.0229  0.1129 -0.1441
82737W        W83601  15.578   2.781   2.853  0.4557  0.1152 -0.2413
82738W        W83602  28.522  12.331  12.553 -0.0644  0.4162 -0.0179
82739W        W83603  27.762   4.163   7.795  0.4022  0.1397  0.0348
82740W        W83604   9.578   0.426   5.395 -0.2564 -0.1092  0.2964
82741W        W83605  28.770  22.176   5.915 -0.0955 -0.1767  0.4690
82742W        W83606   9.943  28.725  11.740 -0.2518  0.2452  0.2588
82743W        W83607  10.162  27.916   9.777 -0.1644  0.1174 -0.1318
82744W        W83608  24.506  23.182   3.047  0.2151  0.3309  0.3228
82745W        W83609   7.794  18.479  26.257 -0.3772 -0.0726  0.1305
82746W        W83610  26.457  11.192   2.350 -0.0820  0.0105  0.1036
82747W        W83611  23.181  11.834   9.478 -0.1660  0.0429 -0.2136
82748W        W83612  27.333  10.535   5.432  0.2582  0.2547  0.1804
82749W        W83613  11.202  16.631  25.802 -0.0332 -0.1469  0.0136
82750W        W83614  26.577  28.888  18.045  0.2586 -0.1429 -0.0956
82751W        W83615  14.364   8.898   7.921  0.1362  0.0540  0.0834
82752W        W83616   8.151   9.903  14.177 -0.0416  0.3018 -0.1247
82753W        W83617  20.773  11.946  21.010  0.1991  0.0006 -0.3547
82754W        W83618  23.719   4.361  16.064  0.2840  0.1985  0.1619
82755W        W83619   5.439  19.727   0.626  0.1646 -0.3682 -0.2717
82756W        W83620   4.861   0.278  28.787 -0.1798 -0.0675  0.0332
82757W        W83621  22.024  10.398   0.477  0.0547  0.0972  0.1270
82758W        W83622  18.634  18.555  17.839 -0.0244 -0.3963  0.2436
82759W        W83623  18.374  25.840   1.545 -0.3010  0.0117 -0.0319
82760W        W83624   3.166   9.706  14.637 -0.2666 -0.0639 -0.1428
82761W        W83625   3.021   4.307  17.470  0.2885 -0.0161 -0.0596
82762W        W83626   1.957  29.105  26.812 -0.2580  0.0167  0.0761
82763W        W83627  19.551   2.361   2.844  0.1015 -0.0901 -0.3239
82764W        W83628  14.634  24.282  21.702  0.0135  0.0634 -0.4778
82765W        W83629  16.441   3.583  26.351 -0.0295 -0.0518 -0.3165
82766W        W83630  25.384  20.422   0.755 -0.0169  0.2200  0.1542
82767W        W83631   6.630   7.734  25.730  0.1629 -0.1480 -0.2464
82768W        W83632   0.704  29.040   4.745  0.4025 -0.3917 -0.2243
82769W        W83633   8.589   3.924  11.245  0.4301 -0.1649  0.2267
82770W        W83634  24.855  13.394   2.366  0.0395  0.1484  0.1867
82771W        W83635   4.938  12.142  21.694  0.1291 -0.1854  0.2726
82772W        W83636  12.445  13.723  14.924  0.2226  0.0352  0.2615
82773W        W83637   3.698  26.472  12.999  0.0908 -0.1110 -0.2054
82774W        W83638   2.176   4.336   0.859 -0.0862 -0.2800 -0.1540
82775W        W83639  12.990   3.722  26.382  0.1705  0.4261 -0.0868
82776W        W83640   0.414  26.927   2.782 -0.1447 -0.0064  0.2414
82777W        W83641   8.904   5.683  23.943  0.1564 -0.1095 -0.2401
82778W        W83642  12.006   7.126   4.472  0.1673  0.4473  0.0325
82779W        W83643   0.681  27.660  17.975 -0.1754 -0.0563 -0.3518
82780W        W83644  25.513   6.127  24.881 -0.0685  0.1825  0.0493
82781W        W83645   3.075  22.745   7.948 -0.0803 -0.0726 -0.0957
82782W        W83646  15.416  26.890  23.534  0.0885 -0.0392 -0.1001
82783W        W83647   0.468   9.151  28.088  0.1850  0.1813  0.0455
82784W        W83648   3.342   6.663   2.675  0.2645 -0.0350 -0.2084
82785W        W83649  18.263   8.273   0.273 -0.3775  0.0459  0.0139
82786W        W83650  13.429   8.925  12.302 -0.0928  0.0222  0.1931
82787W        W83651  12.765  12.277  14.933 -0.1698 -0.2068 -0.0944
82788W        W83652   5.698   3.990  25.987  0.1917 -0.1395  0.1796
82789W        W83653   6.117   3.615  28.662  0.0253 -0.1299 -0.2924
82790W        W83654   1.319   9.796   3.734 -0.0732  0.0466  0.1430
82791W        W83655  16.854  10.874  24.132 -0.0176 -0.3389  0.2753
82792W        W83656   7.683   3.217   1.243  0.1921 -0.0898 -0.0854
82793W        W83657  29.010  18.135  14.047 -0.0191  0.3575  0.0219
82794W        W83658   7.382  14.988   0.795  0.2399  0.1266  0.1931
82795W        W83659  13.517  20.117  20.744 -0.1622 -0.1056  0.0371
82796W        W83660  24.074  11.043   4.954  0.2781 -0.2543  0.3967
82797W        W83661  11.325   3.661   4.915  0.0159 -0.1526  0.0804
82798W        W83662  17.213   9.356   7.522 -0.1092  0.0418 -0.0438
82799W        W83663  20.449  23.903  12.413 -0.0463 -0.1726 -0.2188
82800W        W83664   1.715  26.304  11.873 -0.1118 -0.1477 -0.2622
82801W        W83665  18.295  23.773  25.854 -0.3605  0.4405  0.2735
82802W        W83666  24.649  23.750  15.401  0.1062 -0.3168 -0.0177
82803W        W83667   4.085  22.522  28.113 -0.2894 -0.4287 -0.2576
82804W        W83668  21.404   8.865  26.428 -0.0249  0.2939 -0.0325
82805W        W83669  22.158  19.402  23.865 -0.0243  0.1732  0.1069
82806W        W83670  17.364  27.873   7.462  0.2624 -0.0246  0.1047
82807W        W83671   7.967  27.739  27.484 -0.2562 -0.2086  0.1036
82808W        W83672   6.589  10.205  23.519 -0.2846 -0.1509  0.2195
82809W        W83673   2.395   7.323  27.549  0.3037  0.1047 -0.0613
82810W        W83674  24.513  11.991  13.709 -0.1294 -0.1282 -0.1308
82811W        W83675   8.918   6.506  12.643 -0.0909  0.0478  0.0161
82812W        W83676   6.869  27.505   2.271  0.1817  0.0277 -0.1515
82813W        W83677  29.130   7.217  26.955  0.0688  0.2551  0.2523
82814W        W83678   6.598  20.111   3.530 -0.0159 -0.1254 -0.1336
82815W        W83679  16.575  23.137   4.303 -0.1580  0.1923 -0.0512
82816W        W83680  15.274   8.781   8.261 -0.0127  0.2324 -0.0482
82817W        W83681  20.152  26.023   1.165 -0.0704 -0.0423 -0.1409
82818W        W83682  23.643  12.512   1.427  0.1204  0.0517  0.1011
82819W        W83683   7.198   1.771  25.458  0.1627 -0.1510 -0.4378
82820W        W83684   3.770   2.199  11.636 -0.3821  0.0949  0.1546
82821W        W83685  21.142  15.463  28.481  0.2448 -0.1020 -0.0493
82822W        W83686  28.035  28.426  26.940  0.1554 -0.2088 -0.0059
82823W        W83687  23.630  12.559  16.943 -0.0252  0.2220  0.1080
82824W        W83688   5.278  10.531  10.288  0.0998 -0.1926  0.0456
82825W        W83689   4.904  27.333   4.766 -0.0945  0.2539  0.0665
82826W        W83690  10.151  27.438  12.599 -0.0492 -0.3037 -0.1488
82827W        W83691   2.808  28.970   9.021  0.1666  0.1385  0.2947
82828W        W83692   6.218  15.473  23.031  0.0476  0.0693 -0.0675
82829W        W83693   3.772  17.754   4.210 -0.3207 -0.2004  0.0276
82830W        W83694  11.894   6.411  17.417  0.0204  0.0629  0.4305
82831W        W83695  26.013  11.000   5.855 -0.2303  0.0668 -0.0674
82832W        W83696   1.045   9.597  26.812 -0.1744 -0.1985 -0.2232
82833W        W83697  23.875  21.449   8.204 -0.1341  0.0189 -0.1091
82834W        W83698  17.235   6.397  23.375  0.0323  0.3135  0.3088
82835W        W83699  24.305   9.345  14.095 -0.0259  0.0835  0.1606
82836W        W83700   0.157   6.818   4.199  0.0695  0.0548 -0.0242
82837W        W83701  23.464  21.751   9.134 -0.3154  0.0104  0.0022
82838W        W83702  23.097   6.901   6.632  0.0279  0.0780 -0.0371
82839W        W83703  17.550   4.364  13.197  0.0532 -0.0102  0.1154
82840W        W83704  26.650  10.247   4.094  0.0005 -0.0101 -0.1219
82841W        W83705   0.284  25.894   1.728  0.0329  0.2421 -0.0696
82842W        W83706  18.795   2.408   7.261 -0.0124  0.0926 -0.0322
82843W        W83707   3.917  13.467  15.200  0.0637 -0.2925  0.0094
82844W        W83708  26.366   1.000  24.125  0.0767  0.3277  0.0689
82845W        W83709   0.174   3.879   8.493  0.1696 -0.0216  0.1238
82846W        W83710  14.723   9.925   8.521 -0.1774 -0.1041  0.3398
82847W        W83711   4.843   4.683  21.799 -0.0481  0.0053  0.1251
82848W        W83712  28.140   5.182   7.823  0.0722 -0.3801 -0.0375
82849W        W83713  23.455  28.103  23.590 -0.2270  0.0947 -0.1846
82850W        W83714  16.942  27.185   0.821 -0.0193  0.1830 -0.1138
82851W        W83715   6.798  13.443  11.487  0.2020  0.3484 -0.1989
82852W        W83716  13.366  16.467   1.132  0.2198  0.1514  0.4336
82853W        W83717   2.218   2.186  28.249  0.1241 -0.1030 -0.0537
82854W        W83718  27.333   3.345   4.561  0.4353 -0.0243  0.1549
82855W        W83719  28.532  24.281   8.775  0.1615 -0.2235 -0.1746
82856W        W83720   1.826  21.779  29.026 -0.1082 -0.2278  0.0466
82857W        W83721  14.626   9.986   6.752  0.1221  0.0877 -0.0532
82858W        W83722  20.295   6.252   8.623 -0.2481  0.1538  0.2521
82859W        W83723   7.532  27.585  26.913  0.0501 -0.1424 -0.0729
82860W        W83724  16.557   4.830  24.725 -0.0492 -0.0560  0.0857
82861W        W83725  21.402  11.135   3.617  0.3754 -0.1109  0.2146
82862W        W83726  14.516   8.623  15.749  0.1504  0.1201 -0.4964
82863W        W83727  15.593   4.705  21.655 -0.0726  0.1715  0.1488
82864W        W83728  24.339   2.338  27.628 -0.3372  0.0965 -0.2851
82865W        W83729   0.971   9.969  26.121 -0.0847 -0.0628  0.2797
82866W        W83730   2.798   6.429  28.594 -0.1611  0.1517 -0.1149
82867W        W83731   3.432  14.988  13.053  0.1565  0.1979 -0.2069
82868W        W83732   8.110  17.493   5.336  0.2261  0.1995 -0.0799
82869W        W83733   2.204   1.062  11.707  0.0163 -0.0548 -0.5218
82870W        W83734  28.194   5.046  25.667  0.2864 -0.0739 -0.2727
82871W        W83735   2.442  15.546  15.343  0.1195  0.2695  0.0414
82872W        W83736   2.491  28.914  17.249 -0.1717 -0.0230 -0.2132
82873W        W83737  24.591  23.278  15.124  0.0436 -0.2056  0.0582
82874W        W83738   6.349   9.460   9.091 -0.0929  0.2368 -0.0263
82875W        W83739  20.582  11.964   9.761  0.1358 -0.1805  0.3410
82876W        W83740  27.950   0.622  12.817  0.0734  0.2071  0.0870
82877W        W83741  14.430  11.370   0.483 -0.0925 -0.2172  0.1373
82878W        W83742  23.312   6.907   3.618 -0.2644 -0.1227 -0.3349
82879W        W83743  25.366  10.567  28.540  0.1348  0.0602  0.2707
82880W        W83744   4.947  11.760  27.211  0.3323  0.0360  0.0254
82881W        W83745   4.044  18.696   4.337  0.0759  0.4888 -0.2667
82882W        W83746  26.209   6.764  11.898  0.1640 -0.0336  0.2777
82883W        W83747  21.960   8.091  13.752 -0.1089 -0.0762  0.2010
82884W        W83748  23.886   5.721   6.832  0.3262 -0.1570  0.1734
82885W        W83749  29.090   4.279  28.693 -0.3139 -0.0806  0.3547
82886W        W83750  22.775  14.660   7.398  0.1658  0.3083  0.2706
82887W        W83751  10.101   2.310   0.692  0.1230 -0.0094 -0.1126
82888W        W83752  24.241  19.035  11.146 -0.1246  0.0555 -0.1940
82889W        W83753  22.893   7.752   0.048 -0.0990  0.0970 -0.4648
82890W        W83754  13.904   8.487   3.985  0.2210  0.0003  0.2764
82891W        W83755  25.745  24.332   8.102  0.3785 -0.0444  0.3203
82892W        W83756   7.721   9.588  13.313  0.1203 -0.3000  0.0578
82893W        W83757  17.393  15.890  25.818  0.1471  0.0851  0.1219
82894W        W83758   6.402  14.746  25.709 -0.0396  0.1468  0.0947
82895W        W83759  14.896  24.620  14.727  0.4402 -0.0477  0.2633
82896W        W83760  16.767   8.688  20.559  0.0156 -0.1012 -0.3919
82897W        W83761  22.563  14.790   8.644 -0.0227 -0.1856  0.0057
82898W        W83762  27.497   1.048  23.150 -0.1060  0.3040 -0.1260
82899W        W83763   0.169  20.620  20.720 -0.2173  0.0362  0.1291
82900W        W83764  12.009   7.344  19.635 -0.2839 -0.2860 -0.0653
82901W        W83765   9.788  16.372   1.424  0.3972 -0.2782  0.0536
82902W        W83766  20.361   4.737   6.325  0.0091  0.0260 -0.0820
82903W        W83767  16.798   1.501  12.283  0.0143 -0.2067  0.0510
82904W        W83768  12.137  15.620   2.125  0.2051 -0.1024  0.1096
82905W        W83769  23.021   9.348   1.039 -0.1093  0.1141  0.2622
82906W        W83770  11.352   1.499   9.307 -0.0433 -0.1334 -0.0526
82907W        W83771  17.008   4.028  28.361 -0.2139 -0.0240 -0.3807
82908W        W83772  23.866   1.617  15.340 -0.0811 -0.1457 -0.2327
82909W        W83773  20.008  15.109   7.839  0.0213  0.1560 -0.0168
82910W        W83774  15.536   5.401  26.185  0.0438 -0.3599 -0.0109
82911W        W83775   2.769   7.680  26.127 -0.0364 -0.0359 -0.1806
82912W        W83776  22.670  28.287  13.720  0.2671  0.2873 -0.0795
82913W        W83777  18.666  16.883  15.726  0.0234 -0.1941 -0.0181
82914W        W83778   0.338  26.689   3.859  0.0781 -0.0989 -0.1288
82915W        W83779  18.778  17.757   5.527 -0.0816  0.1661 -0.2924
82916W        W83780  15.747  17.277  25.333 -0.0142 -0.0895  0.0559
82917W        W83781   7.109   2.030  28.566  0.3328 -0.1140  0.0363
82918W        W83782   4.450   7.335  12.659  0.0152  0.4457  0.0681
82919W        W83783  14.324   7.215   2.823 -0.1611 -0.2239 -0.0640
82920W        W83784  20.878   4.867  12.590  0.2792  0.2686  0.1740
82921W        W83785  24.629   0.312   1.098 -0.1680 -0.0042  0.0677
82922W        W83786  16.441  25.204  26.687  0.0756  0.2600 -0.3343
82923W        W83787   9.289   0.822   8.710  0.4535  0.2409  0.3011
82924W        W83788   6.014  28.840  17.288 -0.0411  0.0317  0.3367
82925W        W83789  13.235  16.579   3.301  0.1233  0.1017 -0.0931
82926W        W83790  25.413  18.796   7.548  0.0920 -0.0653 -0.0665
82927W        W83791  16.912  22.089   0.639 -0.0335  0.0510  0.2665
82928W        W83792  18.208  28.464  13.794  0.0470 -0.3108 -0.1180
82929W        W83793   0.226  26.371  14.261  0.3315  0.3006  0.1419
82930W        W83794  15.648   1.143  15.020  0.3170 -0.1212 -0.1190
82931W        W83795   0.696   9.600  26.128 -0.2215 -0.4682 -0.0133
82932W        W83796  16.836   1.572   4.507 -0.0080  0.2036 -0.0476
82933W        W83797   6.311  12.890  20.096  0.0659  0.2351 -0.0226
82934W        W83798  17.515  16.040   8.908 -0.0459 -0.2102 -0.1340
82935W        W83799   4.661   0.826  28.507  0.0405  0.1201  0.2346
82936W        W83800   0.499  15.877   0.279  0.2107  0.1764  0.0477
82937W        W83801  19.485   6.079  16.597  0.4112  0.2349  0.0272
82938W        W83802  17.379  13.828  13.926  0.1358  0.1202 -0.1832
82939W        W83803  20.181  12.458   5.877  0.0968  0.0364 -0.0692
82940W        W83804   2.439  18.175   4.235  0.2521 -0.1475  0.2413
82941W        W83805   1.081  14.322   9.053  0.2658  0.1315  0.1504
82942W        W83806  15.986  28.960  18.607 -0.0112 -0.0265  0.2338
82943W        W83807   2.731   4.248  26.235 -0.1351 -0.1253  0.0784
82944W        W83808  26.440   3.090   6.916  0.0922 -0.1056 -0.4111
82945W        W83809  25.110  13.450   2.949  0.0276 -0.2705 -0.0556
82946W        W83810  22.851   3.775  23.751  0.0539  0.1954  0.1439
82947W        W83811   7.396  28.798  28.356 -0.0354 -0.1555  0.0281
82948W        W83812  19.907  24.522  21.647 -0.1687  0.1319 -0.1687
82949W        W83813   1.754  13.651   0.182 -0.3241 -0.1429 -0.0920
82950W        W83814  28.897   8.444  15.822 -0.0233 -0.0212 -0.2226
82951W        W83815  17.337  25.962  14.020 -0.3750 -0.0053  0.1548
82952W        W83816  13.057   2.660   6.187  0.0689 -0.1868 -0.0312
82953W        W83817  21.330  25.196  12.671 -0.0624 -0.3344  0.0394
82954W        W83818  22.179  20.373   4.819 -0.0834 -0.0828  0.2935
82955W        W83819  19.162   4.654   8.357 -0.1079 -0.2408 -0.0689
82956W        W83820  22.942  22.943   6.386  0.2350 -0.0214  0.0698
82957W        W83821  16.529   1.910   6.835 -0.2102 -0.1891 -0.2184
82958W        W83822   2.896   9.360  26.045 -0.1577  0.3414 -0.1175
82959W        W83823  13.765   2.236  17.084  0.2851  0.1493  0.1296
82960W        W83824   7.736   1.337  10.550  0.4220  0.0329  0.0898
82961W        W83825  10.944  13.937  19.434 -0.1568 -0.2139 -0.0943
82962W        W83826  18.077   2.955   8.835  0.1705 -0.1941  0.1801
82963W        W83827  20.880   0.244   7.381 -0.1904 -0.0154  0.0278
82964W        W83828   8.694   6.280  23.024  0.0729 -0.1934  0.0915
82965W        W83829  26.189   1.154   9.117  0.1536 -0.2480 -0.0925
82966W        W83830  21.293  18.497  13.338 -0.0245  0.1491 -0.0183
82967W        W83831   1.583  11.203   8.991  0.1623 -0.2613  0.1469
82968W        W83832  27.948  12.788   8.379  0.0882 -0.3155  0.0884
82969W        W83833   6.558  15.562  26.194  0.1791 -0.1480  0.0807
82970W        W83834  11.088   3.943  25.488 -0.0193 -0.3246  0.1723
82971W        W83835  26.062   5.726   3.835 -0.0747  0.2615 -0.4811
82972W        W83836  25.619  28.034  19.360 -0.1611  0.3267  0.2015
82973W        W83837  24.121   9.488   7.863  0.1782  0.0589 -0.3713
82974W        W83838  22.706   4.249   7.486 -0.0021 -0.2338  0.0452
82975W        W83839  19.834  10.249  20.154  0.3145  0.1796  0.2565
82976W        W83840  27.706   1.262   5.756  0.2528  0.0319 -0.3204
82977W        W83841  12.293   6.817   5.831 -0.1606  0.1215  0.0655
82978W        W83842  27.561  16.021   6.640  0.1882  0.2095  0.1806
82979W        W83843  26.530   4.684  16.138 -0.0442 -0.1402 -0.0374
82980W        W83844  19.173  17.652  12.227 -0.1621  0.0700 -0.1560
82981W        W83845  18.765   7.939  18.056 -0.0596  0.0079  0.2367
82982W        W83846   4.542  28.436   2.853  0.0556 -0.2353  0.1057
82983W        W83847  12.989  13.629   9.089 -0.2335  0.0950  0.1742
82984W        W83848   0.125  24.800   8.449  0.0385 -0.0722 -0.4398
82985W        W83849  20.546   3.670   5.759  0.0533 -0.0390 -0.0588
82986W        W83850  15.845  11.033  19.957 -0.1142  0.3954  0.1790
82987W        W83851  19.292  19.290   9.348 -0.2832  0.1913  0.1525
82988W        W83852  22.035  14.550   2.309 -0.1836 -0.1604 -0.1236
82989W        W83853  21.455   9.006  27.788 -0.5224 -0.0340  0.0704
82990W        W83854   7.268   9.114   5.069 -0.1015  0.2012  0.0683
82991W        W83855   0.921   9.007  13.218  0.2588 -0.0014  0.2711
82992W        W83856   9.703  10.529  21.681  0.3389 -0.0460 -0.3115
82993W        W83857  28.324  11.312  15.551  0.0399  0.2344  0.0725
82994W        W83858  16.900   9.648  25.968  0.1221  0.2358  0.0391
82995W        W83859  15.970  11.904   1.006 -0.4120  0.3257  0.1917
82996W        W83860   2.110  15.789  20.792 -0.0676 -0.2452  0.0179
82997W        W83861  23.473  14.097  12.526 -0.2089 -0.2134 -0.0841
82998W        W83862  21.190  13.134   0.818 -0.1490  0.0813  0.1786
82999W        W83863  23.057   9.390  17.171  0.1553 -0.2285 -0.1006
83000W        W83864   0.721  23.721  16.186  0.0943  0.2976  0.1089
83001W        W83865  24.039  15.312  15.724 -0.0224 -0.2958 -0.1628
83002W        W83866   2.484  28.866   1.751  0.3909  0.2341 -0.0297
83003W        W83867  26.538   5.850  12.127 -0.0131 -0.0371  0.2158
83004W        W83868  24.160  21.914   7.023  0.2811  0.0568 -0.1999
83005W        W83869   0.361  25.313   3.641 -0.1183 -0.1354  0.1192
83006W        W83870  14.735   9.757  25.885  0.0945 -0.0751  0.2330
83007W        W83871  16.738  14.213   7.913  0.1688  0.1328 -0.1493
83008W        W83872  17.039  11.717  12.703 -0.0313  0.1881 -0.0957
83009W        W83873  27.812   1.752   8.848  0.1180 -0.0324 -0.1783
83010W        W83874  24.617   1.145  18.025 -0.2870 -0.1282  0.2308
83011W        W83875  21.269  15.428  21.896  0.1398 -0.1831 -0.1015
83012W        W83876  28.292  22.939  12.126  0.2328  0.0982 -0.1419
83013W        W83877  13.058  20.799  27.601 -0.1634 -0.2825 -0.0280
83014W        W83878   6.271   6.279  16.299 -0.0636  0.0396 -0.0941
83015W        W83879  25.744  20.169  23.574 -0.1938  0.0267  0.2522
83016W        W83880   0.882   4.608   3.549  0.0573  0.0757  0.0599
83017W        W83881   1.848   5.434   9.033 -0.0816 -0.1867  0.2842
83018W        W83882  22.265  27.672   5.323  0.0054  0.1259 -0.2515
83019W        W83883   2.955  25.266   4.800  0.3158 -0.3283 -0.2484
83020W        W83884   5.972   5.052  23.275 -0.1211 -0.3688  0.0056
83021W        W83885   1.820  10.117   8.852 -0.1823  0.0107  0.0327
83022W        W83886  20.344  28.794  12.805 -0.0416 -0.2315 -0.1615
83023W        W83887  22.767  23.534  10.332  0.2352 -0.1529  0.0417
83024W        W83888  27.908   6.236  14.192  0.0057 -0.3519  0.0902
83025W        W83889  16.456   4.026  21.684  0.0631 -0.1739 -0.3056
83026W        W83890  23.897  19.088   9.732 -0.1933 -0.0908 -0.0386
83027W        W83891   7.812   7.359  26.378 -0.0270 -0.1485 -0.1551
83028W        W83892  22.325   2.882  28.411  0.2031 -0.5094 -0.2285
83029W        W83893  25.636   5.876  18.482 -0.1868  0.0357  0.1379
83030W        W83894  21.722  11.858   7.332  0.0514 -0.2053  0.1311
83031W        W83895  12.297   4.760  12.636 -0.0869  0.0139 -0.0299
83032W        W83896  27.603   2.904   5.788 -0.0966 -0.0656  0.0018
83033W        W83897  27.948  13.041   6.385  0.0099 -0.0473 -0.0073
83034W        W83898  23.651   5.095   3.597  0.0779 -0.1210  0.0552
83035W        W83899  23.016   1.379  12.435 -0.1629 -0.3181  0.0526
83036W        W83900  13.046  20.069   6.592 -0.1139  0.0621  0.0233
83037W        W83901   4.186   0.399  24.414 -0.0820 -0.3293  0.1610
83038W        W83902   8.885   4.101   2.300  0.0764 -0.2602 -0.2978
83039W        W83903  13.990  25.605  13.615  0.2320  0.4578 -0.2117
83040W        W83904  12.298  21.792   3.796  0.2185 -0.0375 -0.0424
83041W        W83905  27.364  12.351   4.797 -0.1774 -0.0611  0.0675
83042W        W83906   5.177  28.654   9.417  0.0592  0.2631 -0.3951
83043W        W83907  13.008   4.337   6.806 -0.0351  0.0947 -0.2788
83044W        W83908  22.221  12.527  23.070  0.3560  0.3006  0.1670
83045W        W83909  13.679   9.831  23.878  0.0212  0.1125  0.0820
83046W        W83910  19.265   8.327  12.729  0.0521  0.3160 -0.2735
83047W        W83911  28.522  25.426  24.027  0.0008  0.0013 -0.2873
83048W        W83912   5.003   9.449   8.413 -0.3531  0.0663 -0.1967
83049W        W83913  28.720  22.263   4.144  0.2523  0.0946 -0.1191
83050W        W83914   5.255  19.995   2.899 -0.0704 -0.0235 -0.2884
83051W        W83915   1.955   3.294  10.775 -0.0415 -0.1299 -0.0184
83052W        W83916  20.751   9.570   6.470  0.0731 -0.0779  0.1844
83053W        W83917  20.738  22.171   3.590  0.2463  0.0676  0.3473
83054W        W83918  16.414  11.580  13.789  0.0670  0.0585 -0.1153
83055W        W83919  21.037  16.977  15.769 -0.0133 -0.1363  0.1796
83056W        W83920  18.783   6.030  28.124  0.5280 -0.0136  0.3672
83057W        W83921  17.493  20.406  28.532 -0.2883  0.0569 -0.0299
83058W        W83922   0.456  10.135  20.756  0.1642 -0.1189  0.1186
83059W        W83923   9.083   4.546   4.474 -0.3487 -0.0257 -0.3510
83060W        W83924   6.991  28.864   3.496 -0.2377 -0.1616 -0.0250
83061W        W83925   4.834  25.636   8.456  0.4223  0.1361  0.0588
83062W        W83926  15.869   8.411   3.691  0.0058  0.0247  0.1448
83063W        W83927   7.070   0.012  20.482  0.0101 -0.0026 -0.1773
83064W        W83928  27.107  22.270  10.301  0.2147 -0.0280  0.3153
83065W        W83929  19.874   6.606   6.682 -0.2903 -0.4128 -0.0914
83066W        W83930   1.158  28.178   4.241  0.1473 -0.0966  0.5151
83067W        W83931  11.550  19.882   2.037 -0.1673 -0.1301 -0.0059
83068W        W83932  14.704  26.040  12.547  0.0359  0.0188 -0.2389
83069W        W83933  11.898  13.171   8.565 -0.2189  0.0715  0.0018
83070W        W83934   2.057  21.483   1.770 -0.3121  0.0394  0.1592
83071W        W83935  28.380  10.009  26.157 -0.1828 -0.1123  0.1108
83072W        W83936  28.431  17.720  13.043  0.1721 -0.1643  0.1772
83073W        W83937  22.022  10.702  27.275 -0.3589 -0.1939  0.0731
83074W        W83938   0.208  26.057   2.345 -0.0455 -0.2752 -0.2652
83075W        W83939  28.412  12.722   9.847 -0.0703 -0.1413 -0.0488
83076W        W83940  15.003   7.818  18.637  0.0829  0.0103  0.1122
83077W        W83941  13.508  18.939   8.066  0.1250  0.1460  0.2146
83078W        W83942   5.216   4.898   9.220  0.2254  0.2661 -0.1944
83079W        W83943  10.634  27.059  14.018 -0.0170  0.3238  0.1656
83080W        W83944  26.719   2.705  12.786 -0.0688  0.0671 -0.0347
83081W        W83945  22.253  23.846   6.528 -0.0142  0.0184 -0.0085
83082W        W83946   0.445   7.073   4.559 -0.0488 -0.0032  0.3012
83083W        W83947   1.862  13.811  27.699 -0.0216  0.2204 -0.1603
83084W        W83948  21.224  20.493   2.001  0.0652 -0.0344 -0.0138
83085W        W83949  21.109  26.437  28.429 -0.0848 -0.0545 -0.0420
83086W        W83950  11.982   6.916  12.587  0.2710 -0.2576  0.1031
83087W        W83951  25.401  19.971  17.584  0.2281  0.2711 -0.2607
83088W        W83952   2.077  27.160   0.625 -0.0773  0.0378  0.3202
83089W        W83953  21.845  10.222  24.480  0.2005  0.0684  0.1252
83090W        W83954  22.509  27.135  22.418 -0.0214  0.1702  0.0922
83091W        W83955  20.244  11.791  21.545 -0.1232 -0.0017  0.1587
83092W        W83956  28.339  18.354   9.162  0.3440  0.0202  0.3255
83093W        W83957   1.042  25.037   9.105 -0.3321  0.2470  0.3632
83094W        W83958   1.873   0.129  11.263 -0.0542 -0.1378  0.2123
83095W        W83959   9.158  11.051  13.228 -0.0097  0.0112  0.2152
83096W        W83960   6.090  11.996   5.184 -0.2232  0.0319 -0.2130
83097W        W83961  28.112  12.084   3.089  0.1170 -0.1609 -0.1521
83098W        W83962   5.551   6.153  10.380 -0.1057  0.1678  0.1559
83099W        W83963  17.217  14.015  28.747  0.2764 -0.1461 -0.2957
83100W        W83964  20.813  17.209  27.354 -0.0263 -0.2584 -0.0047
83101W        W83965  23.352  17.190   7.565 -0.0031 -0.1750 -0.2452
83102W        W83966   1.283  10.115   2.032 -0.0769  0.1225 -0.2421
83103W        W83967  22.933   7.990  10.172  0.0247 -0.1934  0.1232
83104W        W83968   8.173   6.803  26.681 -0.1737 -0.3835 -0.0628
83105W        W83969  19.470  13.265  10.012  0.2101  0.4043 -0.3475
83106W        W83970  23.379  20.332  13.300 -0.0431 -0.0923 -0.1681
83107W        W83971  23.538   5.188  20.526 -0.1906  0.2677  0.2096
83108W        W83972   1.142   6.838  25.605  0.0352 -0.0408 -0.4344
83109W        W83973   1.038   9.108   6.542  0.2532  0.2817  0.0451
83110W        W83974   0.814  23.531   7.399 -0.1612  0.1236 -0.0998
83111W        W83975   1.359  17.316   2.619 -0.0526 -0.0469 -0.1559
83112W        W83976  14.274   9.650  25.958  0.0462  0.1110 -0.1974
83113W        W83977   1.595  20.407  12.926  0.0418 -0.0742 -0.1622
83114W        W83978  21.133   9.209   4.710 -0.0623 -0.0617  0.1681
83115W        W83979  17.339   3.332   1.289  0.0720 -0.1734 -0.0653
83116W        W83980   1.456  19.885   7.910  0.2060 -0.4427  0.1389
83117W        W83981  16.039   3.045   0.210 -0.4152  0.0159  0.0454
83118W        W83982  23.802  17.711  18.218  0.1322 -0.1390 -0.1043
83119W        W83983  24.213  20.407  11.400  0.1554 -0.2035 -0.0986
83120W        W83984  23.381  25.448   2.395  0.0819 -0.1763 -0.0072
83121W        W83985   5.207  22.359   2.406 -0.0950 -0.1315  0.0443
83122W        W83986  23.994   3.603  10.824  0.0073  0.0073  0.0446
83123W        W83987  17.152  12.751   3.065  0.0562  0.3451  0.0617
83124W        W83988   3.115  17.368   4.410 -0.2284  0.3097  0.0898
83125W        W83989  19.605  25.607   7.707  0.0894  0.1331  0.1798
83126W        W83990  22.609  23.502   6.613 -0.3037  0.2488 -0.1179
83127W        W83991  11.359   8.777  10.615  0.2266 -0.0224 -0.1873
83128W        W83992  13.220  27.815  16.944  0.1775  0.3862 -0.0245
83129W        W83993  21.544  23.852  13.511 -0.2091  0.1571  0.2165
83130W        W83994   9.880  18.828  28.290 -0.0516 -0.0413 -0.0892
83131W        W83995  28.574  11.143   5.234  0.1962  0.2550 -0.2273
83132W        W83996   1.372  15.070   7.033  0.4292  0.0794 -0.2216
83133W        W83997  13.433  19.970  15.088 -0.4096 -0.2535  0.1224
83134W        W83998  22.741   9.654   5.909  0.0301  0.1099  0.0554
83135W        W83999  26.291  12.832  22.904 -0.1596  0.2713  0.3847
83136W        W84000  27.793  20.249  17.359  0.1604  0.0253 -0.0867
83137W        W84001   8.839   5.483   3.568  0.3228 -0.1028  0.1210
83138W        W84002   8.939   7.260  18.363  0.2058 -0.0759 -0.0264
83139W        W84003   2.876  16.671  12.934 -0.0073  0.0859 -0.4312
83140W        W84004  15.115  16.336  25.214  0.0499  0.1250 -0.2399
83141W        W84005  26.475  26.300  19.254 -0.1206  0.1086 -0.1614
83142W        W84006   5.576   1.105   5.670  0.1871 -0.0525  0.2450
83143W        W84007  13.232  10.424   8.031 -0.0440  0.2123 -0.1314
83144W        W84008   4.096  14.059   3.726 -0.1409 -0.0240  0.0412
83145W        W84009   9.520  14.363   1.513  0.2837 -0.2631 -0.2122
83146W        W84010  25.351  27.608  25.149 -0.1048 -0.0692  0.1027
83147W        W84011  27.349  28.742   7.362 -0.3444 -0.0556  0.1172
83148W        W84012  15.155  15.388  23.545 -0.1714 -0.1681  0.2279
83149W        W84013  24.771   5.072   3.996  0.3325  0.2341  0.0567
83150W        W84014   9.906  12.132  10.245 -0.1085 -0.0677 -0.0093
83151W        W84015  28.035  16.525   4.599  0.1035  0.4757 -0.0015
83152W        W84016  24.341  15.656  27.811 -0.1371 -0.0952  0.2752
83153W        W84017  17.101  28.861   1.632 -0.1337  0.1479  0.1045
83154W        W84018  19.399  13.012  24.829 -0.3037  0.0939 -0.3597
83155W        W84019   8.627   3.079  28.746  0.0160 -0.3690  0.0758
83156W        W84020   3.850   7.192  28.305  0.0770 -0.3255  0.3024
83157W        W84021  25.921   1.095  24.546 -0.1292  0.0339  0.0634
83158W        W84022   0.066  25.871   4.069 -0.2090 -0.2365 -0.0503
83159W        W84023  10.571  25.517  16.168 -0.2512  0.2319  0.0220
83160W        W84024  22.982  11.080   8.639 -0.1274 -0.2227  0.0206
83161W        W84025  29.064   8.451  14.102  0.1629 -0.0488 -0.0236
83162W        W84026  23.827   9.603   7.260  0.0053  0.1056 -0.0347
83163W        W84027   2.920   0.295  14.352  0.0779  0.0652 -0.1359
83164W        W84028   3.820   4.052  22.438 -0.0301  0.3596 -0.3121
83165W        W84029  21.702  27.917   1.579  0.3262 -0.1443  0.0223
83166W        W84030  16.973  14.541  12.136 -0.1454  0.0683  0.1882
83167W        W84031  10.618  16.085   3.582  0.1663  0.3277  0.1405
83168W        W84032  21.424  13.803  25.052  0.0520  0.2339  0.4507
83169W        W84033  19.387   7.314  26.027  0.0931  0.1157  0.0872
83170W        W84034  24.327  15.920   5.391 -0.3264  0.0203 -0.0479
83171W        W84035   2.897   9.993  10.713  0.3618 -0.0027  0.0398
83172W        W84036   1.217  22.093   7.303 -0.3299 -0.0180 -0.1945
83173W        W84037  24.139   7.060  23.462  0.1735  0.2284  0.1760
83174W        W84038   0.708  24.428  10.635  0.1900  0.5386  0.1376
83175W        W84039   4.015  25.349   5.174  0.0889 -0.0848 -0.2049
83176W        W84040  23.307  22.825  13.479 -0.0125  0.1595 -0.0156
83177W        W84041   4.866  27.819  20.263  0.0039 -0.2072  0.0559
83178W        W84042  27.021  10.370  19.825  0.1596 -0.0279 -0.1360
83179W        W84043  14.543  14.524  13.680  0.0722 -0.0599  0.2197
83180W        W84044  26.755  18.072  22.004  0.2476  0.0159  0.0116
83181W        W84045  18.043   3.978   1.892 -0.0459 -0.1529  0.2842
83182W        W84046  25.291  25.076  13.735 -0.1165  0.1616 -0.0572
83183W        W84047  26.016   3.557   4.002  0.0485  0.0441 -0.0979
83184W        W84048  21.154  29.088   0.655 -0.2515  0.1590 -0.0432
83185W        W84049  21.408  24.284   1.328 -0.0188  0.0851  0.0048
83186W        W84050   1.047  18.316   2.351 -0.0047  0.0053 -0.4026
83187W        W84051  14.176  24.814   1.841  0.2100  0.0910 -0.1684
83188W        W84052  23.989  15.957   9.517 -0.1793  0.0306  0.1279
83189W        W84053  14.433   1.991  17.557  0.1123  0.0042  0.1441
83190W        W84054  27.295   0.333   8.920 -0.0159 -0.3973 -0.0311
83191W        W84055  24.878  27.565  20.798 -0.3196  0.0663 -0.0535
83192W        W84056  22.387  27.928   2.136 -0.2365 -0.1912 -0.1615
83193W        W84057   4.690  20.700   5.553 -0.2420 -0.1371 -0.0077
83194W        W84058  26.431  21.085  28.042 -0.0431  0.0709  0.0863
83195W        W84059  17.808  19.322   3.672 -0.0782  0.1099  0.1959
83196W        W84060   4.079  12.056  21.410  0.1967 -0.2157  0.0631
83197W        W84061  11.758  25.251   1.621 -0.0941 -0.2439  0.0819
83198W        W84062  13.397  16.599   0.621  0.4062 -0.0165 -0.1825
83199W        W84063   7.735   3.398  12.336 -0.1809 -0.0486  0.1566
83200W        W84064  20.469   7.749  15.403  0.0778 -0.0257 -0.2549
83201W        W84065  26.900  23.045  13.435 -0.1150  0.0018  0.1358
83202W        W84066  11.167  23.078   8.006  0.0531  0.2212 -0.1412
83203W        W84067  28.767   8.526  11.412 -0.1216 -0.1035  0.1894
83204W        W84068   0.253  15.193   2.349  0.1667  0.2265  0.0103
83205W        W84069   5.315  20.670  11.205  0.0328  0.2563 -0.0487
83206W        W84070  19.527   3.765   8.040 -0.0140  0.0431 -0.2007
83207W        W84071  19.206   7.516   4.670 -0.1308  0.1919  0.0097
83208W        W84072   7.598  20.041   6.289  0.1592  0.1611 -0.1758
83209W        W84073  24.437  18.801   8.523 -0.0244 -0.0277 -0.1735
83210W        W84074  28.636  18.813  16.660  0.0746  0.5157 -0.0945
83211W        W84075  18.651  10.026  22.179  0.1309 -0.0012  0.0559
83212W        W84076   0.875  24.262  28.385  0.4193 -0.0097  0.1490
83213W        W84077  20.348   3.407  14.972 -0.2315 -0.1542  0.3178
83214W        W84078   1.412  16.392  18.243  0.4030 -0.0003  0.0052
83215W        W84079   9.678  18.359   1.816 -0.0304 -0.1001  0.0371
83216W        W84080   5.185   7.063   1.654  0.1971  0.1351 -0.1754
83217W        W84081  20.693  15.983  11.396  0.3305  0.4520 -0.1707
83218W        W84082  16.324   3.420   4.765 -0.0533  0.1638 -0.0786
83219W        W84083   3.828  14.081   7.470 -0.0992  0.0884  0.3547
83220W        W84084  10.203   4.923   4.199 -0.0072  0.0614  0.0213
83221W        W84085   1.321  12.272   5.334 -0.1079  0.1833  0.2304
83222W        W84086   4.703   5.489  16.419 -0.2253  0.1685 -0.0105
83223W        W84087  22.875  23.203  12.917 -0.1526 -0.2802  0.1108
83224W        W84088  13.341  14.144   5.748  0.0125  0.0273 -0.0080
83225W        W84089   9.035  23.499   1.020  0.1634 -0.0073  0.0279
83226W        W84090  16.287   7.398   5.663  0.1494 -0.2065  0.2251
83227W        W84091  28.123   8.939   1.337  0.0133  0.0089 -0.1887
83228W        W84092   2.597  17.352  12.136  0.0740 -0.0076 -0.4035
83229W        W84093  26.439  23.539  18.781 -0.1657 -0.0837 -0.1051
83230W        W84094  26.045   9.981   4.829  0.0689 -0.0044 -0.3159
83231W        W84095  26.999   0.525  10.685  0.3023 -0.1174  0.4717
83232W        W84096   2.907   6.471  19.398  0.0689 -0.3236 -0.1406
83233W        W84097  16.804   3.189  13.671 -0.1078 -0.1066  0.2162
83234W        W84098  18.372   1.155   6.940 -0.0806  0.2279 -0.4719
83235W        W84099   3.430  24.852   1.896 -0.0623 -0.4775 -0.0775
83236W        W84100   5.524  10.839  21.128  0.1024 -0.1318 -0.2006
83237W        W84101   0.456   0.455   5.553 -0.0253  0.0333  0.1568
83238W        W84102   8.318  16.445   6.191 -0.2871  0.0604 -0.0456
83239W        W84103  26.930  25.830  14.902  0.1007 -0.1051 -0.1381
83240W        W84104   6.040  24.971   0.804  0.2149 -0.1991 -0.0735
83241W        W84105  22.945   6.444  12.818  0.1213 -0.2760  0.3411
83242W        W84106  15.854   6.753  26.792  0.2315  0.0984 -0.2412
83243W        W84107  29.079   2.606   4.238 -0.3324 -0.0135  0.0477
83244W        W84108  21.862  11.605  20.649  0.2022  0.1276  0.2511
83245W        W84109   2.945  11.964   4.770  0.4157  0.0713  0.1279
83246W        W84110   7.119  25.543   6.489 -0.0665  0.0949 -0.1699
83247W        W84111  22.937   5.851   1.734  0.0392 -0.1753  0.4293
83248W        W84112  17.230   5.606  26.894 -0.0015 -0.2161 -0.0341
83249W        W84113  12.437  20.626  11.837  0.1486  0.1622 -0.0367
83250W        W84114   9.411  17.989   5.151  0.3677 -0.0190  0.0256
83251W        W84115   2.579  16.488   7.587 -0.0031  0.0758 -0.1693
83252W        W84116  23.055   2.259  28.986  0.0175  0.1862  0.2895
83253W        W84117  27.972  15.917   5.734 -0.0084 -0.1982 -0.1506
83254W        W84118  27.627   2.412  17.731 -0.0759  0.2380 -0.1138
83255W        W84119   0.841  11.314   1.476 -0.4372  0.2028  0.1525
83256W        W84120  27.640  23.994  22.018 -0.1724 -0.0628  0.0333
83257W        W84121   6.393  26.685  16.154 -0.2756  0.2037 -0.0408
83258W        W84122  22.103  12.685  25.922  0.0410  0.1677  0.0189
83259W        W84123   8.032   3.791  12.078 -0.0250 -0.0200 -0.0088
83260W        W84124  22.452  28.607  20.054 -0.0663 -0.0123 -0.0067
83261W        W84125  16.592   9.542  10.815  0.1067  0.2223 -0.2347
83262W        W84126  21.836   8.597  22.225 -0.0036 -0.1639 -0.1624
83263W        W84127  16.734  23.376  23.224 -0.0985 -0.1106 -0.1346
83264W        W84128   9.633  23.405  14.299  0.0491 -0.0393  0.2895
83265W        W84129  12.712   9.580   4.524  0.3004  0.0572 -0.4016
83266W        W84130  27.095   6.099  11.449  0.0410  0.2280  0.0089
83267W        W84131  21.287   3.644  17.013 -0.0141 -0.3358  0.1928
83268W        W84132   6.955   7.792   4.750 -0.0512  0.1750 -0.1590
83269W        W84133  27.759   6.141   0.099 -0.0244  0.0428  0.5499
83270W        W84134   0.303  12.571   0.498 -0.0604  0.0334  0.1864
83271W        W84135   2.717   1.938  10.534  0.0701  0.1657 -0.1283
83272W        W84136   7.845  18.119  20.724 -0.3788  0.1604  0.2993
83273W        W84137  24.446   7.063  11.245  0.1270  0.0768  0.1211
83274W        W84138   0.356  10.719  22.541 -0.2728  0.1380 -0.1460
83275W        W84139  22.911   8.663  20.532 -0.0916 -0.0370 -0.2150
83276W        W84140  10.974  12.869  16.250 -0.0883 -0.0505 -0.2143
83277W        W84141   9.559   4.747  27.512  0.1976  0.0069 -0.0275
83278W        W84142  18.435  10.416  22.506  0.1564 -0.0589  0.1568
83279W        W84143  10.479  10.109  28.592  0.1748 -0.2771 -0.1099
83280W        W84144  25.113   4.575   8.128 -0.1088  0.0756  0.0805
83281W        W84145  11.140  15.098  17.693  0.0079 -0.2072  0.1971
83282W        W84146  17.938  15.372  13.392 -0.0307  0.4827 -0.1946
83283W        W84147  21.231   8.611  18.195  0.1605  0.2780  0.1868
83284W        W84148  16.526  22.060  27.124  0.0452  0.0010 -0.1574
83285W        W84149   0.905   0.532   5.796 -0.1915 -0.1904  0.1639
83286W        W84150   2.854  14.301   4.652 -0.2339 -0.0739 -0.3356
83287W        W84151  26.947  28.442   1.503 -0.0107  0.2321 -0.0302
83288W        W84152  13.390  26.237  10.355  0.1031 -0.3422  0.0334
83289W        W84153  19.884  26.588  16.109  0.0949  0.0076 -0.0040
83290W        W84154  22.298   2.358  14.513  0.1010 -0.1421 -0.1631
83291W        W84155   6.038  23.341   3.523  0.2997  0.0917 -0.0238
83292W        W84156  10.953  22.874   4.265 -0.0276  0.0863  0.1498
83293W        W84157  27.962   2.544   1.862 -0.1470 -0.1990 -0.0099
83294W        W84158   3.728  12.285  14.723 -0.0174  0.1626  0.2890
83295W        W84159  23.713   5.823   4.942  0.1822  0.1458 -0.2080
83296W        W84160   7.911  28.362  18.263  0.2121  0.1405 -0.1193
83297W        W84161  25.874  15.898  23.445 -0.0826  0.2750 -0.0372
83298W        W84162  27.727   3.609  13.209 -0.0012 -0.1390  0.0678
83299W        W84163  20.165  11.195  16.471 -0.1405  0.1625 -0.0905
83300W        W84164   4.571   9.119  19.551  0.4452  0.2533  0.1281
83301W        W84165  26.357  23.760  12.476  0.0767  0.1597 -0.1886
83302W        W84166  21.207   9.157   5.202 -0.0035 -0.0307  0.1380
83303W        W84167   4.316  18.880  18.312 -0.0470 -0.0232 -0.1011
83304W        W84168  20.427  16.868   8.884  0.0456  0.0894  0.0142
83305W        W84169   7.085   0.030   3.142 -0.0043  0.2133 -0.0055
83306W        W84170  27.780  13.973  28.436  0.0548 -0.0849  0.1739
83307W        W84171   8.464  27.569   4.529 -0.0901 -0.1672  0.2742
83308W        W84172  21.038   6.214  11.789  0.0174 -0.2929  0.0426
83309W        W84173   0.864  12.132  12.501  0.1601  0.3870 -0.0023
83310W        W84174   3.390  11.526  16.364  0.1037  0.0732 -0.0088
83311W        W84175   3.712   1.793   7.163  0.2594  0.0328  0.1369
83312W        W84176   6.912  20.170   4.074  0.5822  0.0793 -0.1455
83313W        W84177   5.055  27.788   3.828 -0.1528  0.1095 -0.1760
83314W        W84178   8.753   2.003   7.476  0.1509 -0.0770  0.2387
83315W        W84179   4.674  27.097  14.456 -0.1937 -0.2471 -0.0698
83316W        W84180  25.758   0.713  29.093  0.2304 -0.3205 -0.1644
83317W        W84181   6.985  17.499  28.402 -0.0392  0.1847 -0.2336
83318W        W84182   0.427   6.782  12.660  0.0049 -0.2288 -0.0362
83319W        W84183  18.032  20.497   2.151 -0.3328 -0.1954 -0.0547
83320W        W84184   1.149   2.754  20.739 -0.1811  0.0498 -0.0326
83321W        W84185  21.133   0.020   0.097 -0.2688 -0.1340  0.0393
83322W        W84186   4.411   4.746  25.848  0.0645  0.1876  0.2242
83323W        W84187  11.936   2.409  17.966 -0.0785 -0.0822  0.2495
83324W        W84188   7.102  28.571  11.006  0.0740 -0.0961 -0.1423
83325W        W84189  19.693  12.936  28.877 -0.2390  0.2421 -0.0038
83326W        W84190  20.539   1.195   2.962  0.0620  0.0250 -0.1050
83327W        W84191   7.180  16.912   4.261  0.1564  0.2145  0.0649
83328W        W84192   8.126   0.210  13.253 -0.2203  0.2188 -0.0181
83329W        W84193   8.768   0.109  23.727  0.1007 -0.3911  0.1684
83330W        W84194   1.829  13.077   9.075  0.1852 -0.0290 -0.1656
83331W        W84195   9.181  20.713  14.114  0.1108  0.1936 -0.1963
83332W        W84196   3.602  12.760  17.109 -0.1954  0.1433 -0.0934
83333W        W84197   8.146  25.536   7.493 -0.0243 -0.0384  0.4963
83334W        W84198  17.247   7.580   8.103 -0.0396 -0.2583  0.1487
83335W        W84199   6.063  14.503  22.900 -0.0253  0.1419  0.1424
83336W        W84200  19.183  13.271  10.411  0.1914  0.1319  0.3794
83337W        W84201  16.185   7.224   2.640  0.2386  0.1773  0.0061
83338W        W84202  24.438   9.231  28.204  0.0425 -0.1757  0.0277
83339W        W84203  11.666  17.914  21.551 -0.2056 -0.1856 -0.0525
83340W        W84204   2.777   0.737  22.811 -0.1614 -0.0428 -0.3856
83341W        W84205  17.389  16.118  25.329 -0.1284  0.0113 -0.1410
83342W        W84206  10.644  21.778   3.656 -0.1187 -0.3278 -0.1690
83343W        W84207  27.025   6.260  24.658 -0.2782  0.2479 -0.1412
83344W        W84208   6.984  18.289   5.378 -0.0359  0.1212 -0.2308
83345W        W84209   5.876   9.910  18.093 -0.2635  0.0689  0.1111
83346W        W84210  28.615  18.408  26.402  0.2161 -0.0283 -0.1117
83347W        W84211  18.578   1.793   2.637  0.0560 -0.0388  0.2949
83348W        W84212  25.627  22.742   9.490  0.5344 -0.1637 -0.1285
83349W        W84213  25.732  18.122   8.917  0.2149 -0.1885  0.0549
83350W        W84214  15.768   3.996   1.476 -0.2155  0.1288 -0.2702
83351W        W84215   6.095   8.594  16.891 -0.3827  0.0556  0.0129
83352W        W84216   5.274  22.073  20.187  0.0604 -0.0005 -0.0125
83353W        W84217   1.151   0.474  10.920 -0.0104  0.1514 -0.3446
83354W        W84218  22.191  12.036   4.208  0.0259  0.0340 -0.0855
83355W        W84219   5.054  17.787   7.023  0.2061  0.1701 -0.2882
83356W        W84220   4.148  24.753   8.770  0.0153  0.0404 -0.0601
83357W        W84221  18.674   7.580  11.256  0.0358  0.0945 -0.0268
83358W        W84222   6.408  26.816   5.189  0.1070 -0.1623  0.1122
83359W        W84223  17.595   0.228  13.022  0.1229  0.0271 -0.0921
83360W        W84224   8.289   8.748   0.505  0.4281  0.2151 -0.0229
83361W        W84225  14.103   7.524  14.250  0.0141  0.0393 -0.1030
83362W        W84226  20.061  18.764  26.703 -0.2364  0.0098 -0.1839
83363W        W84227  15.566  20.874   6.833  0.3469  0.0006 -0.1177
83364W        W84228   0.053   6.891   7.313 -0.1046  0.1219  0.0935
83365W        W84229   1.995  18.650  17.569 -0.0015 -0.0326 -0.1153
83366W        W84230   6.490  14.645  16.825  0.1528 -0.2171  0.0446
83367W        W84231  24.452  13.935  27.109 -0.3156  0.0779 -0.2277
83368W        W84232  18.817   3.209  20.504 -0.1058 -0.0138  0.0229
83369W        W84233   2.104  15.759  28.980  0.1086 -0.2465  0.0280
83370W        W84234  16.749   3.899  10.678 -0.0286 -0.0437 -0.0570
83371W        W84235  20.806  11.974  25.382  0.3273  0.1171 -0.0250
83372W        W84236  16.962   2.569   3.250 -0.1569  0.0466  0.3741
83373W        W84237   0.583   2.671  16.318  0.0208 -0.0914 -0.3014
83374W        W84238  10.949   9.419   4.158  0.0674 -0.2569  0.0765
83375W        W84239  28.232  20.512  26.568  0.0291  0.0336  0.2045
83376W        W84240   1.404  24.600   9.297 -0.0389 -0.0300 -0.3875
83377W        W84241  17.644   3.941  10.354 -0.2842 -0.0291 -0.0463
83378W        W84242  14.765  10.761  26.042  0.0231 -0.0913  0.1708
83379W        W84243  23.286  27.875  11.775  0.0763 -0.2219 -0.0175
83380W        W84244   5.692  25.630  21.110 -0.0635 -0.1680  0.0114
83381W        W84245  17.252   7.965  18.808 -0.1037 -0.0160  0.3464
83382W        W84246  20.108  26.748   4.223  0.2744  0.2343 -0.0161
83383W        W84247  17.226   8.354  28.370 -0.0459 -0.1058 -0.0371
83384W        W84248   7.250  27.527  12.434  0.0263 -0.0118 -0.0426
83385W        W84249  23.357  17.519  21.465  0.0773  0.0593 -0.1934
83386W        W84250  21.371  14.967  15.783 -0.3720  0.4059  0.0733
83387W        W84251  14.735   4.457   6.034  0.0791  0.0511 -0.0750
83388W        W84252  13.849  16.022  25.016 -0.3784  0.0744 -0.0375
83389W        W84253  17.396  23.356  19.139 -0.1429  0.3186  0.1498
83390W        W84254   6.433  21.651   5.235  0.1804  0.0990  0.1139
83391W        W84255  12.789   0.854  22.112 -0.1185 -0.2842 -0.1686
83392W        W84256  13.843   9.691   2.834  0.1043 -0.0474  0.1923
83393W        W84257  23.189   5.402   6.842 -0.1052  0.0101  0.1489
83394W        W84258  22.659   3.785  17.145  0.0054 -0.3546 -0.3174
83395W        W84259  25.224  10.409  11.553 -0.0771  0.1502  0.0154
83396W        W84260  28.081   9.522   4.518 -0.1353  0.0473  0.2510
83397W        W84261  26.244   6.657  25.840 -0.1523 -0.4809 -0.2571
83398W        W84262   7.040  27.089   5.455 -0.1698  0.1993  0.1920
83399W        W84263   1.731  25.883  13.728 -0.0288  0.0074  0.0240
83400W        W84264  25.196  26.290  12.840  0.1788 -0.1773 -0.1494
83401W        W84265  12.816  14.275  18.635 -0.0467  0.2062 -0.4062
83402W        W84266   0.712  12.552   1.329  0.1801 -0.0286 -0.1511
83403W        W84267  29.021  15.047   5.459  0.0610 -0.1034  0.0589
83404W        W84268   8.967  22.322  15.967  0.3146  0.1225 -0.2051
83405W        W84269  12.926   6.302  24.920  0.0655  0.2502  0.1221
83406W        W84270  11.059  14.922   7.495 -0.2285  0.3181 -0.0222
83407W        W84271  25.265   3.768   9.101 -0.1241 -0.1363  0.3305
83408W        W84272  18.346  11.809  27.853 -0.1578 -0.0914  0.1706
83409W        W84273   5.989   1.058  10.211 -0.0358  0.3377 -0.0834
83410W        W84274  28.791  14.890  11.223 -0.1387  0.0540 -0.4181
83411W        W84275   4.625   3.671   7.301  0.1258 -0.2796 -0.0052
83412W        W84276  23.860  16.597  23.218  0.0075 -0.1523  0.2154
83413W        W84277  20.172   0.688  19.343  0.0138  0.2788 -0.2111
83414W        W84278  13.719   5.904  10.744  0.1419 -0.2992 -0.1100
83415W        W84279  15.750  17.403  20.836  0.0575  0.1712  0.3058
83416W        W84280  19.402   4.898  17.036 -0.0031  0.1315 -0.2168
83417W        W84281  26.815   3.494  17.156  0.0141  0.2498  0.1222
83418W        W84282  10.019   6.176   8.112  0.2525 -0.2151  0.3071
83419W        W84283  14.258   4.383  19.848  0.0055  0.1372 -0.3867
83420W        W84284   5.330   4.761   2.085  0.0616 -0.0238  0.0439
83421W        W84285  20.122  16.943  11.948  0.1763 -0.0076 -0.1193
83422W        W84286  19.149   5.934  19.777 -0.1114  0.1308 -0.0560
83423W        W84287  12.498  24.158  17.153  0.0848 -0.1282  0.0286
83424W        W84288   1.245  27.321   9.788  0.0249  0.1323 -0.1590
83425W        W84289  15.443  11.009  15.689 -0.1018  0.0002  0.0290
83426W        W84290  12.046   3.110   4.791  0.1510  0.0746 -0.0355
83427W        W84291   2.753   9.301   2.476  0.3839  0.0614  0.1695
83428W        W84292   8.364   3.089  24.609  0.2539  0.0990  0.0542
83429W        W84293  17.225  19.379   4.202  0.1595  0.0088  0.4416
83430W        W84294   6.671  14.708   0.324  0.1743 -0.0632  0.0477
83431W        W84295  15.712  19.489  13.678 -0.2552 -0.1259  0.0391
83432W        W84296   3.072  23.769  20.009  0.1634 -0.0308 -0.4329
83433W        W84297  11.215  20.721   9.268 -0.0726  0.0994  0.0901
83434W        W84298  15.875   0.913  18.434 -0.0414 -0.0755 -0.0842
83435W        W84299   9.638  23.057   3.532 -0.0716  0.0631 -0.2480
83436W        W84300  25.609   4.308  25.275 -0.0235 -0.1113 -0.1099
83437W        W84301   8.510  10.760  20.402  0.0075  0.5129  0.0978
83438W        W84302  25.271  25.862  12.230 -0.0770  0.1002  0.0831
83439W        W84303   6.823  21.067   1.684 -0.0593  0.2212  0.0566
83440W        W84304   5.787  13.092  11.776  0.3927 -0.0346 -0.0894
83441W        W84305   0.175   2.107   5.024 -0.1436 -0.0601 -0.2658
83442W        W84306   0.534  19.392  12.044  0.1815 -0.1262 -0.0300
83443W        W84307  18.683  25.891  21.801 -0.0878 -0.2457  0.0231
83444W        W84308  15.954  14.332  14.744  0.4849 -0.0929 -0.0434
83445W        W84309   8.479   6.622   3.518 -0.3606  0.1665 -0.0793
83446W        W84310  15.379  16.791   4.971 -0.0423 -0.0204  0.0862
83447W        W84311   4.402  11.939  17.338  0.2474 -0.1674 -0.3280
83448W        W84312   5.673   1.460  15.981 -0.2873 -0.0832  0.1814
83449W        W84313   0.518  15.055   4.716 -0.0139  0.1912 -0.2955
83450W        W84314   0.865  29.110   5.633 -0.0740  0.1987 -0.1303
83451W        W84315   2.028  28.820   7.458 -0.3118  0.0048 -0.3959
83452W        W84316  13.176  10.913  23.328 -0.2391  0.1894  0.0314
83453W        W84317  10.668  13.655   6.785 -0.0154 -0.0381 -0.0765
83454W        W84318  15.254   5.384  13.671 -0.4065 -0.2863 -0.2907
83455W        W84319   8.564   6.321  24.454 -0.2813  0.0531  0.2208
83456W        W84320  23.478  11.915  10.873  0.4813  0.2491  0.2446
83457W        W84321  27.810  16.273  15.825 -0.1106 -0.2278 -0.1400
83458W        W84322   6.501   7.704   7.147 -0.3280  0.0462 -0.3348
83459W        W84323  10.671   4.732  12.772 -0.0742 -0.0499  0.3046
83460W        W84324   7.172  28.745  15.980  0.0088 -0.3931 -0.0735
83461W        W84325  19.940   4.341   5.472  0.1640 -0.0554 -0.2117
83462W        W84326  24.574   8.664   9.884  0.4154  0.1518 -0.0021
83463W        W84327   3.369   5.704  22.990  0.1621 -0.1361  0.1607
83464W        W84328  16.934   4.914  24.389  0.0149  0.1764 -0.1925
83465W        W84329  14.414   9.139  15.762  0.0355 -0.1441 -0.0226
83466W        W84330  21.541   8.474   6.160  0.0765 -0.2603 -0.1988
83467W        W84331  18.864  12.139   4.532  0.1167  0.2062 -0.2005
83468W        W84332  27.787  24.402  17.386  0.1201  0.1584 -0.0333
83469W        W84333   5.676   2.081   3.242  0.3600  0.0793 -0.2556
83470W        W84334  10.647   2.103   9.669  0.0269 -0.1673 -0.1854
83471W        W84335   2.989  11.417   1.105 -0.1172 -0.0809 -0.0914
83472W        W84336  18.333  13.505  17.290 -0.0325  0.0097 -0.0765
83473W        W84337  21.781  28.421   7.684  0.0879  0.2381 -0.2313
83474W        W84338  22.788   9.832  28.556  0.2416  0.1888  0.0277
83475W        W84339  10.060   1.026  24.690 -0.1302 -0.0762 -0.0982
83476W        W84340  27.459   5.077  28.400 -0.1288 -0.0791 -0.0719
83477W        W84341   7.995  12.009   6.097  0.1181  0.0793 -0.1590
83478W        W84342  26.527   1.924  18.500 -0.1590 -0.2792 -0.0751
83479W        W84343   1.117  12.830   8.003 -0.0375 -0.1002 -0.0649
83480W        W84344  12.997   6.061   4.170 -0.0232 -0.0209 -0.0312
83481W        W84345  27.083  21.555  18.275  0.1468 -0.1630  0.0402
83482W        W84346  10.463  25.602  17.972 -0.0913 -0.1981 -0.1681
83483W        W84347  21.573  26.586   2.362 -0.0588 -0.0982 -0.0275
83484W        W84348  14.062  18.087  17.960 -0.1289  0.1857 -0.0888
83485W        W84349  25.048  16.486  21.044  0.0570  0.1923  0.0565
83486W        W84350  17.003  13.604  12.351  0.2320  0.0146 -0.2149
83487W        W84351  15.315  23.533  19.403  0.0952  0.2576 -0.1822
83488W        W84352   0.150   6.626  16.027  0.0857  0.1111 -0.1437
83489W        W84353   5.529   2.685  15.604 -0.3210 -0.0609 -0.1126
83490W        W84354   6.611   2.433   7.820 -0.1328  0.2548 -0.1886
83491W        W84355  26.533  17.092  11.518  0.1602  0.1472  0.0581
83492W        W84356  14.323  26.984  12.426 -0.2530 -0.1108 -0.0495
83493W        W84357  16.900  19.565  17.251  0.1043 -0.0769  0.1401
83494W        W84358   9.147  22.088  15.169 -0.1466  0.1435  0.1539
83495W        W84359   0.003  12.046   5.622 -0.1071  0.1919  0.0099
83496W        W84360  19.250  14.368   0.935 -0.1400 -0.0337 -0.3807
83497W        W84361   6.685  19.124  18.766  0.2905  0.3076 -0.1370
83498W        W84362   5.990   8.957  10.917  0.1175  0.0477  0.0833
83499W        W84363  21.900  25.557  24.520  0.2144 -0.1446  0.2035
83500W        W84364  25.067   4.481  15.824  0.4048  0.0010  0.0144
83501W        W84365   4.770   8.052  15.980 -0.1512 -0.0474 -0.3184
83502W        W84366  25.535   7.131   8.346  0.0352  0.0814 -0.0196
83503W        W84367  11.953  13.659  10.523  0.1683  0.0639 -0.2601
83504W        W84368   0.844   7.328  16.790 -0.2816 -0.1892 -0.0751
83505W        W84369  24.499  28.717  10.851 -0.2183 -0.2346 -0.1118
83506W        W84370  26.618  24.255  26.249 -0.1148  0.1969 -0.0792
83507W        W84371   4.825  13.415   5.402  0.2196 -0.0882  0.0412
83508W        W84372  17.420   5.351  25.135 -0.1692  0.1989 -0.2173
83509W        W84373  27.206   3.312   9.775 -0.1560 -0.1026 -0.1176
83510W        W84374   2.508  28.161  24.694 -0.0918 -0.1095 -0.1686
83511W        W84375  16.484   6.489  13.324  0.1163 -0.1274  0.0090
83512W        W84376  15.951  23.837   1.406 -0.1396 -0.1195 -0.2597
83513W        W84377  17.769  20.435  19.168 -0.0994  0.0501  0.0057
83514W        W84378   0.175   6.185   1.593 -0.0162 -0.2138 -0.1640
83515W        W84379  22.411  22.762   4.992  0.2397 -0.0105  0.1584
83516W        W84380  17.171  28.058  28.526  0.1677 -0.0792 -0.0330
83517W        W84381   1.360   7.042  13.804  0.1031  0.1711 -0.0490
83518W        W84382   4.251  20.100  11.100 -0.0898 -0.1977 -0.0851
83519W        W84383  23.668  28.673  10.166 -0.4622 -0.1547  0.2324
83520W        W84384  23.030  24.627  28.780  0.0917 -0.0096  0.1302
83521W        W84385  15.162  19.117  26.785  0.1761  0.1011 -0.0703
83522W        W84386   8.920  13.657  28.983 -0.2586  0.0291  0.3334
83523W        W84387  28.573   6.762   8.497 -0.2577  0.0872 -0.3257
83524W        W84388   7.503  12.166  11.556 -0.1823 -0.0128 -0.0097
83525W        W84389  14.172  28.880   4.303 -0.0679 -0.1146  0.2112
83526W        W84390   3.896  26.004  17.142  0.0969  0.2173  0.0960
83527W        W84391   5.333  18.163   6.152 -0.1373  0.4140 -0.0403
83528W        W84392  24.996   1.787  14.635  0.1944 -0.0674  0.2043
83529W        W84393  16.851  17.320   8.664  0.0321  0.1548 -0.0359
83530W        W84394   4.489   8.318   9.801  0.2831  0.0580  0.1074
83531W        W84395   7.811   0.889  24.100  0.0269 -0.1569 -0.3507
83532W        W84396  20.127  12.688   9.051 -0.1395 -0.0025 -0.1427
83533W        W84397  21.048  12.948   5.424 -0.0262 -0.0223 -0.0194
83534W        W84398   0.197  23.967  21.845  0.2240 -0.2186  0.2851
83535W        W84399  10.448  23.037  18.724 -0.1722  0.0591 -0.1076
83536W        W84400  11.749  11.791   0.226 -0.1761 -0.0290 -0.2269
83537W        W84401  18.583   7.679   9.617 -0.1215  0.1382 -0.0150
83538W        W84402  20.338  14.672  22.998  0.3075  0.2536  0.1076
83539W        W84403  24.175  11.405   6.509 -0.0917 -0.0386 -0.1332
83540W        W84404  28.454  26.205  24.782 -0.1827 -0.0906 -0.2849
83541W        W84405   1.739  14.689  26.869 -0.0519  0.2023  0.2892
83542W        W84406   1.250   9.161  22.915 -0.0877 -0.1444  0.1011
83543W        W84407  15.847  28.910  12.324  0.1073 -0.0674 -0.1611
83544W        W84408  21.485  27.939   9.996  0.0766 -0.4192  0.0852
83545W        W84409  23.683   0.763  24.085  0.1467  0.3114 -0.1289
83546W        W84410  17.164  21.473  18.637  0.0734 -0.2339  0.3388
83547W        W84411  20.186  16.022   5.834  0.4107  0.0972  0.1451
83548W        W84412  14.392  28.441   6.477  0.3160  0.0145 -0.1364
83549W        W84413  20.415   4.592  11.660  0.3085  0.0330  0.3717
83550W        W84414  28.925   5.024   3.800  0.2325 -0.1516  0.0690
83551W        W84415   7.003   9.936  24.281  0.2566 -0.0973  0.1345
83552W        W84416  22.175   7.442  27.217 -0.2065 -0.2856  0.0889
83553W        W84417  10.132  20.448  20.785  0.3138 -0.2323  0.0308
83554W        W84418   0.186  22.245  27.834  0.2187  0.2689 -0.2154
83555W        W84419  24.367   1.162  12.657  0.2046 -0.0798 -0.2617
83556W        W84420  24.686   3.599   5.586  0.2117 -0.2039  0.1415
83557W        W84421   5.496   1.341  18.476  0.1205 -0.0731 -0.3048
83558W        W84422  17.149  28.084  17.299 -0.0975  0.3132  0.3157
83559W        W84423  21.358   8.666  15.848  0.1776 -0.0796  0.2673
83560W        W84424  22.213  23.278  22.877 -0.1760  0.4330 -0.0418
83561W        W84425  16.334   8.072   8.555 -0.0487  0.3499 -0.0191
83562W        W84426   1.210  23.703   4.700 -0.2220 -0.1144  0.3422
83563W        W84427   2.887  25.583   6.489 -0.0185 -0.3044 -0.0277
83564W        W84428  22.260   9.296  11.665 -0.1198 -0.0515 -0.2363
83565W        W84429  26.752  15.876  28.194  0.3274  0.3415 -0.0442
83566W        W84430   9.727   9.583  29.123  0.0523 -0.2479  0.4891
83567W        W84431  19.901  14.256  17.282  0.3788 -0.1794  0.0814
83568W        W84432  28.808   0.201   2.102 -0.2325 -0.4520  0.1615
83569W        W84433  23.816   9.450   2.804  0.0302  0.1948  0.1918
83570W        W84434  28.321  10.359  11.269 -0.2143  0.1668 -0.2753
83571W        W84435   6.940   1.700  27.765 -0.0570  0.1513  0.1677
83572W        W84436   3.475   2.214  20.658 -0.0283 -0.2704  0.1697
83573W        W84437   0.076   6.234   2.561 -0.1555  0.2104 -0.2492
83574W        W84438  23.604  13.447  15.881  0.3020 -0.3183 -0.0019
83575W        W84439  25.368   0.813   7.111  0.3490  0.1832 -0.2920
83576W        W84440   1.588   7.449   2.735  0.0966  0.1540 -0.2639
83577W        W84441   1.644   3.853  11.596  0.0816  0.0866  0.0831
83578W        W84442  27.166  22.427  27.053 -0.1066 -0.1778  0.0813
83579W        W84443   7.092  27.232  16.015 -0.1294 -0.1858  0.1198
83580W        W84444  25.512  23.596  14.862  0.0159  0.0648 -0.0229
83581W        W84445  24.854   6.600  28.331  0.1077 -0.1957 -0.0171
83582W        W84446   4.532   8.325  27.633 -0.0182 -0.1833 -0.3706
83583W        W84447   7.564  26.024  14.814  0.1951 -0.2124  0.3568
83584W        W84448  24.419   4.141   5.986  0.1167 -0.1073 -0.0970
83585W        W84449  28.594   0.975  20.416 -0.0890 -0.0997  0.0684
83586W        W84450  26.434  15.474  12.707  0.3580 -0.1776 -0.1504
83587W        W84451  15.332   8.224  11.792  0.0338 -0.0730 -0.4039
83588W        W84452  22.384  24.331   0.953 -0.0947 -0.1342  0.3361
83589W        W84453   3.313  18.551  18.063  0.1092  0.2076 -0.4027
83590W        W84454   0.014   0.917  12.441  0.0954 -0.1356 -0.1483
83591W        W84455  16.214  12.488   7.423 -0.1651 -0.3859 -0.1755
83592W        W84456   3.070   4.917   5.525  0.1805  0.2416 -0.2378
83593W        W84457  18.202  28.059   9.202 -0.0677 -0.0736 -0.2750
83594W        W84458  10.187  13.909  13.428  0.1509 -0.0621 -0.3180
83595W        W84459   3.420  12.897  19.552 -0.0851  0.1224  0.4594
83596W        W84460  20.212   3.996  16.093 -0.2293 -0.2317 -0.3601
83597W        W84461   6.333  25.067  24.560  0.1676  0.0705  0.0771
83598W        W84462   5.430   7.445   8.829  0.5157  0.1150  0.0432
83599W        W84463  14.059  27.741   1.039 -0.0395  0.0361 -0.1593
83600W        W84464  12.409   8.194  27.412 -0.0561 -0.1748 -0.1118
83601W        W84465   1.504   9.238  16.106  0.0878 -0.2642 -0.0725
83602W        W84466   6.137   7.226   9.093 -0.3328 -0.1124  0.5283
83603W        W84467   5.262   2.341   4.086 -0.1191 -0.0589 -0.0398
83604W        W84468  26.636  16.578   2.923 -0.0241 -0.3262 -0.0768
83605W        W84469  27.720  24.348  15.600 -0.1637 -0.1390 -0.1212
83606W        W84470  28.583   4.158  21.050 -0.0188  0.2568  0.3012
83607W        W84471   4.771  24.103   6.900  0.1545  0.2212 -0.0511
83608W        W84472   7.532  11.107  24.539 -0.1291 -0.1218  0.1311
83609W        W84473   5.840   6.895   9.742 -0.2705 -0.2387 -0.0046
83610W        W84474  28.842  17.112   5.832 -0.1028 -0.0476 -0.1362
83611W        W84475   6.993   7.593  11.597  0.0125  0.0623  0.1161
83612W        W84476  28.229   8.527   8.428 -0.0297  0.1848  0.1548
83613W        W84477  16.780   3.666  11.717 -0.2581 -0.1432 -0.2066
83614W        W84478  19.161   6.651  16.541  0.1779 -0.1535 -0.1897
83615W        W84479  24.094   8.617   7.215 -0.1260  0.0892  0.1752
83616W        W84480   7.128  21.174   4.855  0.1950 -0.2892 -0.1489
83617W        W84481  24.819   9.419  19.931 -0.2247  0.1152 -0.0951
83618W        W84482  23.047   2.623   0.634  0.0489 -0.2539  0.0526
83619W        W84483  13.261  12.108  20.461  0.2008  0.0458  0.0009
83620W        W84484  26.379  24.672  15.634  0.1296 -0.1680 -0.0457
83621W        W84485  22.049   3.279  15.288  0.2560  0.0565 -0.0706
83622W        W84486  21.772   5.886   5.653 -0.1988 -0.2899 -0.0835
83623W        W84487  15.114   4.483  13.310 -0.0034 -0.0726 -0.1043
83624W        W84488  22.719  14.773   4.271  0.2448  0.0031  0.0050
83625W        W84489   4.628   9.098  11.837 -0.1759  0.1009 -0.3060
83626W        W84490  26.446  26.662  28.878  0.0886 -0.0179  0.0100
83627W        W84491  16.650  28.177   1.256 -0.0669 -0.1038 -0.1661
83628W        W84492   0.095   5.273   0.326  0.1183 -0.0053  0.1985
83629W        W84493  24.616   7.292  14.997  0.1272 -0.0012  0.2457
83630W        W84494  28.671  25.810  12.571  0.0291 -0.1628  0.1022
83631W        W84495  18.586  14.421  23.036 -0.1314 -0.1208 -0.1377
83632W        W84496  11.157   6.831   6.941 -0.0680 -0.1339 -0.1665
83633W        W84497  16.281  24.234   0.283 -0.1656 -0.0729 -0.1401
83634W        W84498   2.170   8.755  11.822  0.2040 -0.0552 -0.0847
83635W        W84499   3.892   5.348   1.838  0.1866 -0.0023  0.0491
83636W        W84500   4.123   2.311   2.870  0.0784 -0.1054 -0.0466
83637W        W84501  20.941   1.992  20.892 -0.0325 -0.0481 -0.2782
83638W        W84502  15.055   8.819  15.974  0.0708  0.0414  0.1510
83639W        W84503  10.210  26.760   7.777 -0.1638 -0.2025  0.1682
83640W        W84504  16.626   0.846  14.050  0.0657  0.0449 -0.0009
83641W        W84505  28.981  17.974  15.030 -0.0794  0.0066  0.2644
83642W        W84506  14.237  19.762   0.535 -0.2689  0.4829 -0.4071
83643W        W84507  13.192   3.812  23.847 -0.0382  0.1476  0.1386
83644W        W84508  17.234   0.866  20.804  0.2375 -0.0032 -0.3174
83645W        W84509   9.333   1.304   9.720  0.0999  0.2022 -0.1826
83646W        W84510  26.064   3.023  28.113 -0.3020 -0.0517 -0.1573
83647W        W84511   7.704   4.270   9.287  0.0691  0.0472  0.0755
83648W        W84512  20.037   3.479  28.110 -0.3665  0.2964  0.3542
83649W        W84513   3.172  11.653  19.597 -0.0289 -0.0439  0.0973
83650W        W84514  23.216   4.425   9.983 -0.1078  0.1983  0.1121
83651W        W84515  24.385  22.154   2.817 -0.1080  0.4264  0.0857
83652W        W84516   7.546  26.844  17.581  0.2691  0.1550 -0.2074
83653W        W84517  18.427   9.768   3.890 -0.1407  0.4418 -0.0282
83654W        W84518  26.063  26.371   5.894 -0.2071  0.2289 -0.4527
83655W        W84519  26.871  14.591  14.251  0.0364  0.0304 -0.4847
83656W        W84520  28.747   7.727  12.533 -0.0076  0.1585  0.5379
83657W        W84521  11.953   4.953  13.318 -0.0380 -0.0479  0.2721
83658W        W84522   2.872  12.724  24.561  0.2672 -0.1912  0.0476
83659W        W84523  11.178   7.088  23.832  0.0597 -0.2409  0.0561
83660W        W84524  20.591  20.207  11.962 -0.3845  0.0828  0.2250
83661W        W84525   3.575   8.499   3.463  0.3667 -0.2667 -0.0976
83662W        W84526  17.812  18.153   7.355  0.0036  0.0596 -0.1031
83663W        W84527  19.857  14.171  22.873 -0.1301 -0.0560  0.0304
83664W        W84528   2.875  27.897  24.217  0.1937 -0.1017 -0.2550
83665W        W84529   9.291   8.507   4.335 -0.3351  0.1689 -0.1567
83666W        W84530  19.952  12.761  16.649 -0.0846 -0.0648  0.0711
83667W        W84531   1.434   6.529  16.470 -0.2314  0.0909 -0.0948
83668W        W84532  25.989  18.646   1.196  0.0546  0.1934 -0.2538
83669W        W84533  10.356  16.605  23.388 -0.0182  0.2397 -0.1336
83670W        W84534   3.160  22.108  21.108  0.0135 -0.0209 -0.0416
83671W        W84535  26.844  15.449  13.775 -0.1263 -0.0531  0.1706
83672W        W84536  13.266  20.914   4.918 -0.1418  0.0924  0.1538
83673W        W84537  14.223   2.637  20.329  0.1557  0.1613  0.0922
83674W        W84538  21.253  19.048  11.318  0.0029  0.1316 -0.0469
83675W        W84539  12.232   3.185  19.370 -0.4857  0.0535 -0.3643
83676W        W84540   0.624  23.448   8.656 -0.0154 -0.3475  0.2819
83677W        W84541  22.673  26.628  15.915  0.0100 -0.1826  0.2598
83678W        W84542  16.499  27.675   5.845  0.1233 -0.0850  0.0654
83679W        W84543  18.015   9.384  17.615  0.2110  0.1797  0.2259
83680W        W84544   3.512  21.065  11.701 -0.1100 -0.0569  0.0531
83681W        W84545  18.159  12.590  12.416  0.0760  0.0651 -0.0144
83682W        W84546  13.217  14.509  11.347 -0.1244  0.7414 -0.0859
83683W        W84547   1.205  26.025  16.814 -0.0455 -0.1167 -0.4631
83684W        W84548  28.080  26.575  24.727  0.0608  0.2852 -0.0592
83685W        W84549  18.324   6.079  15.417 -0.0375 -0.1134  0.0052
83686W        W84550  15.471   8.438  14.768  0.0552 -0.0472  0.1299
83687W        W84551   1.658  10.007   7.450 -0.0775 -0.1520  0.1600
83688W        W84552  23.899   1.602   7.283  0.1782  0.0015 -0.0075
83689W        W84553  16.302  19.555  16.110 -0.0676  0.1685 -0.2018
83690W        W84554  27.521  17.477   9.433 -0.4581 -0.3465  0.2030
83691W        W84555  21.654   6.780  20.210  0.0664 -0.2488  0.1122
83692W        W84556  17.178   5.218  21.624  0.0300  0.0192 -0.0833
83693W        W84557  25.386  27.193  26.340 -0.0110  0.0879  0.2622
83694W        W84558   3.881  13.023  19.803  0.1451  0.0414  0.1335
83695W        W84559  21.137  23.369  16.257  0.1829  0.2498 -0.0477
83696W        W84560  21.512   5.019  19.453 -0.3225  0.0818 -0.0437
83697W        W84561   6.167  12.829  15.342  0.2758  0.1269  0.0113
83698W        W84562  23.639   3.336  10.526 -0.0257  0.0160  0.1914
83699W        W84563  16.184   6.830  27.944 -0.0918  0.0078  0.0325
83700W        W84564  21.059   4.110  15.402  0.4251 -0.2866  0.0278
83701W        W84565   2.141   8.317  16.362 -0.0687 -0.1378  0.2253
83702W        W84566  26.266   1.904   5.347  0.0785 -0.1233 -0.3220
83703W        W84567  13.474  23.900   3.523  0.1510 -0.3144 -0.2080
83704W        W84568  25.356   9.659  25.920 -0.2770 -0.2098 -0.1482
83705W        W84569  26.388  14.507  22.280 -0.0855  0.0465  0.2298
83706W        W84570  17.105  21.963  12.337  0.3046  0.3895  0.4015
83707W        W84571   3.456  10.975  12.762  0.2422 -0.0144 -0.3728
83708W        W84572   7.055  15.358  14.741  0.2457 -0.1266  0.4257
83709W        W84573   1.431   0.625  15.631  0.0582  0.2280 -0.1124
83710W        W84574  23.900  13.575   8.069 -0.1025  0.2246 -0.1180
83711W        W84575  19.016  18.845   4.410 -0.0289 -0.0633 -0.0249
83712W        W84576  14.496  26.056  14.952  0.0917 -0.6681 -0.0891
83713W        W84577   9.507  24.491  19.438  0.1516  0.1052  0.3172
83714W        W84578  26.180  24.741   5.154  0.0976  0.2120  0.0246
83715W        W84579  15.045  19.638   3.641 -0.0849  0.1637  0.1432
83716W        W84580  16.360  27.354   8.904 -0.4226  0.0597  0.3270
83717W        W84581   0.161  14.004  23.427 -0.1195 -0.1184  0.0181
83718W        W84582  24.217  27.922   7.061  0.1320 -0.1972  0.2070
83719W        W84583  20.802  12.056  23.650  0.2548  0.1179  0.4713
83720W        W84584  12.331  13.007  13.864 -0.2233 -0.0602 -0.0438
83721W        W84585  25.637   3.495   9.336 -0.3133  0.0602  0.1744
83722W        W84586  28.288  12.408   8.598 -0.0458 -0.0980  0.1070
83723W        W84587   0.440   0.551  15.440  0.0756  0.1472 -0.0566
83724W        W84588  23.791  12.056  20.793 -0.1252 -0.0747 -0.0050
83725W        W84589   2.312   3.253   2.947 -0.2429  0.1838 -0.0512
83726W        W84590  19.631  10.274  19.689  0.0999  0.0654 -0.1604
83727W        W84591  20.264   5.266  23.056 -0.1075 -0.1835 -0.2226
83728W        W84592  18.184  11.960  26.734  0.0555  0.2813 -0.1139
83729W        W84593  16.648   5.922  20.033 -0.0192  0.0513 -0.0300
83730W        W84594  15.508  25.031  25.005  0.5193 -0.1429 -0.1068
83731W        W84595  28.219   5.380   8.760  0.1712  0.4047 -0.0503
83732W        W84596  16.142  26.713  24.634  0.0622 -0.0488  0.2899
83733W        W84597  21.524   1.997  10.405  0.0690  0.1338  0.0879
83734W        W84598  17.439  18.870   9.550 -0.2271 -0.0952  0.0067
83735W        W84599  13.997   5.518   9.964 -0.4503 -0.2373  0.2337
83736W        W84600   6.564  26.395  18.973 -0.2918  0.0277 -0.1509
83737W        W84601  22.360   8.832  20.044 -0.2055  0.2182  0.2089
83738W        W84602  13.513  18.890   4.877 -0.0638  0.0701  0.2361
83739W        W84603  19.980  25.168  14.679  0.0518 -0.1106 -0.0780
83740W        W84604   8.764  17.480  19.306  0.1673 -0.3206 -0.0352
83741W        W84605  24.330  18.120   3.185  0.1717 -0.1143 -0.1920
83742W        W84606   3.261   1.475  23.010 -0.0890 -0.1854  0.1845
83743W        W84607  24.735  10.984  19.330  0.0107 -0.2269  0.3763
83744W        W84608   8.243  19.128  21.074 -0.4833  0.2805 -0.2719
83745W        W84609  27.944  21.489  14.093 -0.1761  0.0488 -0.2132
83746W        W84610  27.433  15.042   8.678  0.1429 -0.2105  0.0399
83747W        W84611  11.432   9.708  10.037  0.1154 -0.0554  0.0468
83748W        W84612   0.227   1.249  13.464  0.2117 -0.0183  0.2286
83749W        W84613   5.619  20.067  28.975  0.1132 -0.1809 -0.1358
83750W        W84614  18.746   4.261  27.354 -0.2174  0.2160  0.2082
83751W        W84615  27.189   8.226  19.571 -0.1201  0.0284 -0.3943
83752W        W84616  27.153  25.086   4.883 -0.0479 -0.1705  0.1030
83753W        W84617  11.211  14.706  28.904  0.0187 -0.1277  0.1447
83754W        W84618  28.253  17.387  14.570 -0.0459  0.1104 -0.1687
83755W        W84619  18.832   6.235  19.447  0.0598  0.1272  0.1341
83756W        W84620  29.092  21.358  18.713  0.0519  0.0619 -0.0298
83757W        W84621  25.396  14.312   2.930  0.1223 -0.0728  0.1529
83758W        W84622   8.357  15.418  10.945  0.1467 -0.0056 -0.1096
83759W        W84623  16.796   1.202  11.058  0.3310  0.0709 -0.1146
83760W        W84624   9.826   1.576   6.417  0.1020 -0.2462  0.0953
83761W        W84625  23.584  29.065  26.169  0.3126  0.2533 -0.0875
83762W        W84626   2.877   4.414  24.749 -0.2832  0.2067  0.0265
83763W        W84627  10.862  10.256  15.487 -0.0334 -0.0539 -0.0337
83764W        W84628  22.617  28.663  10.166  0.0199  0.0525 -0.0083
83765W        W84629  20.217  15.118  17.671  0.2106 -0.0741 -0.0617
83766W        W84630  28.038   3.625  10.532  0.1137 -0.0470 -0.1889
83767W        W84631  15.178   6.305   7.668 -0.0378  0.1102 -0.1645
83768W        W84632  25.736  23.169   6.590  0.0512  0.0768  0.1182
83769W        W84633   0.573  13.242  10.967  0.1040  0.0736 -0.1324
83770W        W84634  21.568  17.519  17.569  0.0498 -0.0219 -0.2529
83771W        W84635  21.324  18.805  15.096  0.1214 -0.0125  0.0958
83772W        W84636  27.129  18.821  25.701 -0.2113 -0.1202 -0.4044
83773W        W84637   3.758   6.275  20.544 -0.1586 -0.4273  0.0989
83774W        W84638   4.669  25.423   1.775 -0.0840  0.1985  0.1532
83775W        W84639   0.629  10.283  19.423  0.2116 -0.3066  0.3362
83776W        W84640  20.980  15.357  10.917 -0.1986 -0.4387  0.1827
83777W        W84641   3.284  10.163  28.697  0.3978  0.0731 -0.0503
83778W        W84642   7.812  18.874  22.171 -0.0475  0.1686  0.1374
83779W        W84643  25.138   7.566   4.900 -0.0230  0.0995  0.1993
83780W        W84644  24.776  10.587   9.699 -0.0789 -0.1162  0.1742
83781W        W84645  22.534  12.423   8.553 -0.0872  0.2672 -0.2622
83782W        W84646  26.864  28.873  12.675 -0.3791  0.3649 -0.0098
83783W        W84647   2.165  22.997  13.064  0.0736 -0.1230 -0.1202
83784W        W84648  13.847   0.785  15.277 -0.1899 -0.2445  0.4416
83785W        W84649  16.583   0.447   9.799  0.3750 -0.0938  0.1357
83786W        W84650   6.810  18.600  11.367 -0.0644  0.0532  0.0287
83787W        W84651  22.781  12.845   7.598  0.0599  0.1816 -0.0644
83788W        W84652  13.702  11.219  27.892  0.0954 -0.1102  0.0512
83789W        W84653  12.170   7.185   0.306 -0.0630  0.0101 -0.1830
83790W        W84654  11.356  18.709  12.823 -0.0128 -0.1810 -0.1372
83791W        W84655   5.769   5.556  24.037 -0.1524 -0.1050 -0.0462
83792W        W84656  21.723   8.374   8.077 -0.1553  0.0896  0.2295
83793W        W84657  24.690  18.940   9.406 -0.1157 -0.3210  0.0319
83794W        W84658   7.807   4.534  26.980 -0.0621  0.2313  0.0165
83795W        W84659  10.730   9.100   6.339  0.1248 -0.0776 -0.1431
83796W        W84660   6.750  21.537  14.004  0.2015  0.0536  0.0590
83797W        W84661  16.011  10.845   8.036 -0.1910 -0.0021  0.0661
83798W        W84662  26.219  28.174  11.124  0.3480  0.1314  0.0962
83799W        W84663  18.191  28.985   1.111 -0.0441 -0.0168 -0.2312
83800W        W84664  28.944  15.091  22.904 -0.0226  0.0196  0.1757
83801W        W84665  10.951  20.652   8.855  0.0631 -0.0790  0.0671
83802W        W84666  25.196  17.626  12.208 -0.0321 -0.2080 -0.2631
83803W        W84667  27.057  15.476  24.454  0.0970  0.0025  0.2418
83804W        W84668  21.543   9.254  24.402  0.1414  0.1763  0.0036
83805W        W84669  27.783  24.729   1.508 -0.1454 -0.0560  0.1095
83806W        W84670  22.318   9.769  27.217 -0.2361  0.2045  0.1164
83807W        W84671   8.135   6.167  12.251 -0.0378  0.0547  0.0027
83808W        W84672  11.834  23.115  12.584  0.0736 -0.2265 -0.1012
83809W        W84673  16.675   9.113   9.730 -0.0628  0.0012 -0.2041
83810W        W84674  13.647  15.128  17.917 -0.1052 -0.2564 -0.0480
83811W        W84675  21.885  15.041   6.520 -0.0499  0.0185 -0.0018
83812W        W84676  21.421  12.462  21.555 -0.0914 -0.0057 -0.1449
83813W        W84677  18.059  10.192   3.425  0.0749 -0.0381  0.1140
83814W        W84678  25.164   6.686   5.973 -0.1842 -0.3033  0.0676
83815W        W84679  28.279  10.853   4.434  0.1026 -0.0593 -0.1289
83816W        W84680  16.925   2.953  23.664  0.1315 -0.0544  0.1804
83817W        W84681  24.005  20.488  19.187 -0.2503 -0.1333  0.1504
83818W        W84682   8.591  10.295  14.796  0.2590  0.0384  0.0975
83819W        W84683   0.215  25.674  10.684 -0.1571 -0.3058  0.0940
83820W        W84684   2.106  21.033   3.371 -0.1004 -0.1010  0.3016
83821W        W84685   4.120  18.716  11.114 -0.1201 -0.2683  0.0580
83822W        W84686   2.638  29.030  12.226 -0.0657  0.1352  0.0595
83823W        W84687   1.645   9.935  28.352  0.0593  0.2715  0.2055
83824W        W84688  26.734  20.094  20.419  0.1218  0.2032 -0.2713
83825W        W84689   9.358  23.436  12.338  0.3764  0.0421 -0.3171
83826W        W84690   7.912  19.621  24.840 -0.1925 -0.2039  0.1218
83827W        W84691  26.140   2.167  22.253  0.2058 -0.1158  0.2563
83828W        W84692  17.288  13.800  17.264 -0.0663  0.1398  0.0956
83829W        W84693  23.592  13.485   3.569  0.1216 -0.0494 -0.1393
83830W        W84694  11.667   6.065  17.115  0.0616  0.0579 -0.1098
83831W        W84695  10.267   6.921  26.595 -0.2873 -0.2335 -0.0004
83832W        W84696  27.813  11.813  16.806  0.1921 -0.1346  0.0375
83833W        W84697  11.830  26.642  24.588  0.2201 -0.1300 -0.2686
83834W        W84698  24.778  12.209  14.102  0.0592  0.0436  0.0167
83835W        W84699   4.918  15.622  17.697  0.1259 -0.0572  0.0552
83836W        W84700  13.669  19.868  21.181 -0.2958  0.1610  0.0349
83837W        W84701   2.236  26.259   4.592  0.2339 -0.0074  0.2184
83838W        W84702   8.763  16.220  10.215 -0.0226 -0.4483 -0.0305
83839W        W84703   0.587  23.021  21.728  0.1918  0.2101 -0.1566
83840W        W84704  21.455   2.344  15.519  0.1052  0.0305 -0.1799
83841W        W84705  12.917  28.379   3.005 -0.1141  0.2994 -0.3714
83842W        W84706  19.488  12.134  26.409 -0.2140 -0.0055  0.0628
83843W        W84707  20.801   8.456   8.427 -0.2366  0.1029 -0.0780
83844W        W84708   1.928   6.986   0.328  0.3400  0.0048  0.2172
83845W        W84709  19.258  26.786  16.852 -0.3146  0.3497  0.0342
83846W        W84710  22.993   2.185   3.424  0.0682  0.1678  0.2790
83847W        W84711  21.992  28.282   8.464 -0.2158  0.1510 -0.1907
83848W        W84712   1.480  11.738  27.354 -0.1592 -0.3421 -0.0004
83849W        W84713  13.108  15.419  11.957  0.0346 -0.3184  0.1143
83850W        W84714  24.807  24.725   9.810 -0.0292  0.3270 -0.0061
83851W        W84715  20.170  21.398  11.593 -0.0235 -0.3769 -0.4336
83852W        W84716   1.908   0.853  28.554 -0.1375 -0.2440  0.4826
83853W        W84717   4.984  20.984  20.658  0.3139 -0.0714 -0.3068
83854W        W84718   3.326  26.508  15.391  0.1223 -0.1336  0.2039
83855W        W84719   2.225   7.854   2.237 -0.0273  0.1581  0.1925
83856W        W84720  23.537  20.133   0.366 -0.1614  0.1034  0.1165
83857W        W84721  14.462  25.552   8.545  0.2381 -0.2005  0.2762
83858W        W84722   8.792  18.578  18.309 -0.2817 -0.1114 -0.1794
83859W        W84723   0.568  23.978  17.086  0.0850 -0.4055 -0.1374
83860W        W84724   9.403  13.573  12.346 -0.0838  0.0983 -0.0274
83861W        W84725   8.247  27.379  10.669 -0.0694  0.0069 -0.0624
83862W        W84726  28.881  11.286  14.075 -0.0848  0.0771  0.1745
83863W        W84727   5.184  21.884  16.852 -0.2862  0.1187 -0.0147
83864W        W84728  28.478  28.986  28.138  0.1659 -0.0272  0.0500
83865W        W84729   0.559  13.895  16.898  0.2761 -0.3033  0.0631
83866W        W84730  13.950  20.986  28.159 -0.1282  0.4802  0.1260
83867W        W84731  21.409   7.665  18.725  0.0969  0.1850  0.1114
83868W        W84732  22.736   2.024  28.549  0.2928  0.0183 -0.1154
83869W        W84733  25.894  16.461  27.395  0.0536  0.1766  0.0128
83870W        W84734   2.294  12.308  16.715 -0.1552 -0.1387  0.1541
83871W        W84735  25.971   9.108  17.979  0.1698 -0.0881 -0.0695
83872W        W84736  23.892  17.991  12.619  0.0713 -0.1132  0.2443
83873W        W84737   8.164   4.123  19.193 -0.2529  0.2488  0.0932
83874W        W84738  10.777  23.029  17.017  0.0660  0.1571 -0.0646
83875W        W84739  16.653   3.948  25.586  0.2887 -0.0859 -0.1841
83876W        W84740  11.519   4.969  24.714 -0.0901  0.2134  0.2272
83877W        W84741  12.835  13.476  26.611 -0.0445 -0.0407  0.0867
83878W        W84742   7.051  17.385  21.617  0.1744 -0.0238 -0.0249
83879W        W84743  24.247  15.296  10.075 -0.6814 -0.0029  0.0236
83880W        W84744  23.830   3.793   8.549  0.2739  0.2380  0.0380
83881W        W84745   1.769  25.055  26.224  0.0292  0.2919 -0.1914
83882W        W84746  18.348   3.467  16.549 -0.1024 -0.1582 -0.0838
83883W        W84747   0.647  28.018  24.545  0.2550 -0.0599  0.1395
83884W        W84748   1.814  18.355   0.621 -0.0961 -0.2248 -0.0461
83885W        W84749   4.614   2.854   1.415 -0.2417  0.1983 -0.1603
83886W        W84750   8.432   2.845  15.009  0.3213 -0.2188  0.0582
83887W        W84751  18.468   5.011  23.734 -0.0110 -0.1385 -0.2979
83888W        W84752  22.908   7.871  21.596  0.2509 -0.0489 -0.4234
83889W        W84753  27.126  14.168  15.666  0.0063 -0.1508  0.1342
83890W        W84754  28.534  21.851  28.617 -0.1337  0.1074 -0.0262
83891W        W84755   7.382   5.164  16.356 -0.1288 -0.2452 -0.0885
83892W        W84756  28.997   9.340  26.449 -0.0176  0.1655  0.2079
83893W        W84757  24.144  25.113  24.910 -0.2778  0.3786  0.0789
83894W        W84758  23.027   5.122  24.684 -0.1423 -0.2731 -0.1445
83895W        W84759   3.630  12.253  21.200  0.1351  0.1533  0.1199
83896W        W84760  25.917   4.033   0.825 -0.0820  0.0527  0.0463
83897W        W84761   3.692  27.135  10.851  0.2398  0.3196 -0.0386
83898W        W84762  28.444  10.933  27.975  0.3014  0.2325 -0.1166
83899W        W84763  24.223   1.628  22.172 -0.0169 -0.0788 -0.0337
83900W        W84764  29.143   6.039  25.931  0.0277 -0.0791 -0.0646
83901W        W84765  19.280   0.858  12.872 -0.0888 -0.4997 -0.1623
83902W        W84766  21.498  11.399  25.895  0.0959 -0.0731  0.0732
83903W        W84767   7.577  26.347  12.972 -0.0729 -0.1855  0.3165
83904W        W84768  18.949  18.210  18.644  0.2274 -0.1301 -0.0362
83905W        W84769  25.075   3.398   4.639 -0.0950  0.0970 -0.0585
83906W        W84770   1.555  18.232  19.182 -0.0800 -0.2563 -0.0422
83907W        W84771  28.294   0.369  23.392 -0.2093  0.0493 -0.1453
83908W        W84772   3.371   8.566  15.978 -0.0790 -0.0809 -0.0073
83909W        W84773  23.405   6.381  24.573 -0.1461  0.2558  0.0943
83910W        W84774  21.214  12.480  11.272 -0.1377 -0.2088  0.0101
83911W        W84775   9.813  27.266  28.236 -0.2108 -0.1907 -0.7102
83912W        W84776   3.752  27.321  20.292  0.1091  0.1274 -0.1992
83913W        W84777  25.653  17.067   6.057 -0.1927  0.3498 -0.1692
83914W        W84778  22.595  10.522  16.823  0.1509  0.1437  0.4217
83915W        W84779   0.025  27.824  28.942 -0.0755 -0.1180  0.2849
83916W        W84780  27.733   1.126  27.469  0.0155  0.0078 -0.2508
83917W        W84781  17.583  26.804   2.306 -0.2271 -0.3401 -0.1958
83918W        W84782   3.161  16.155  15.882 -0.0562  0.3110  0.1693
83919W        W84783  11.054  23.491  14.129  0.1473  0.1574  0.0244
83920W        W84784  23.607   7.066  11.001  0.2559  0.0589  0.1386
83921W        W84785  18.637   6.838   0.652  0.1641  0.0116 -0.4770
83922W        W84786   4.116   6.641  19.135  0.1012 -0.2226 -0.0236
83923W        W84787  11.104   1.547  12.025 -0.1198  0.1095 -0.2533
83924W        W84788   0.318  25.857  14.820  0.0003 -0.0202  0.2495
83925W        W84789  23.208  17.620   7.159  0.1535  0.2451  0.2247
83926W        W84790  17.701  12.404   5.272 -0.0642  0.5193  0.2509
83927W        W84791  26.385  20.256   1.150 -0.0197  0.0326 -0.0157
83928W        W84792  16.789  18.953   4.842 -0.3203  0.1445  0.2709
83929W        W84793  28.799  23.126  11.148  0.2420 -0.0751  0.0152
83930W        W84794  12.580  16.551  10.838 -0.0619  0.2302 -0.2553
83931W        W84795   0.280  28.871  16.003  0.1082  0.1121 -0.0368
83932W        W84796   6.008  22.581  12.241 -0.2447  0.1248  0.1800
83933W        W84797   3.508  18.979   3.409 -0.1159 -0.1676  0.0340
83934W        W84798  11.552  22.716  26.569  0.2019 -0.1918  0.0092
83935W        W84799   9.746  12.420  12.629 -0.0322  0.0721 -0.1621
83936W        W84800  26.806  23.873  14.360 -0.3005  0.3923 -0.2057
83937W        W84801  19.177  11.540   8.902 -0.3374 -0.2557 -0.2555
83938W        W84802   3.838  12.414  22.299 -0.0591 -0.1178  0.1585
83939W        W84803  17.886   6.805   9.296  0.1127 -0.2824  0.2365
83940W        W84804  16.255   0.938  11.416  0.0763  0.0106 -0.1588
83941W        W84805  15.827  10.586  16.209 -0.0512  0.0431 -0.0933
83942W        W84806  25.008   6.263   4.215 -0.2040 -0.2395 -0.0132
83943W        W84807  22.395  14.584  15.097 -0.2267  0.2400  0.0830
83944W        W84808   8.504  12.851   0.829  0.2593 -0.1562  0.0513
83945W        W84809  23.550   7.748  23.500 -0.2366  0.1568  0.1574
83946W        W84810  26.670  15.565  16.411 -0.0713 -0.0963  0.0811
83947W        W84811  23.699  28.943   9.767 -0.1154 -0.0186  0.0451
83948W        W84812  23.718  17.455   8.975 -0.2779 -0.3293 -0.0856
83949W        W84813   0.991  17.628   5.303  0.1644 -0.0264  0.0667
83950W        W84814  26.395   5.101   4.638 -0.0291  0.0363 -0.2014
83951W        W84815   1.352   6.147   7.127  0.2867 -0.0376 -0.2696
83952W        W84816  27.059  13.769  19.505  0.1465  0.0205 -0.2255
83953W        W84817  26.472   0.003  12.701 -0.2926  0.1385  0.0315
83954W        W84818  22.537  17.438   7.962  0.1079 -0.0107  0.1840
83955W        W84819   2.807   7.785  10.052 -0.0265  0.1971  0.1650
83956W        W84820  27.203  26.166  15.775 -0.1035  0.1947  0.0951
83957W        W84821  29.039  23.829  12.310  0.0573  0.0525 -0.1395
83958W        W84822  12.049   5.639  20.833  0.2129  0.0844 -0.2513
83959W        W84823  17.047   3.366  12.608  0.1019  0.1082  0.1608
83960W        W84824  28.824  14.120  20.714 -0.2259 -0.0045 -0.0789
83961W        W84825   3.069  20.299  21.499 -0.0103  0.1867 -0.0143
83962W        W84826  24.851   9.625  25.894  0.2581  0.0935  0.1273
83963W        W84827  22.632  20.841   4.844  0.1475 -0.3508  0.3382
83964W        W84828   3.835  13.118  23.740 -0.2165 -0.0765  0.0146
83965W        W84829   8.813  27.248  11.666  0.3993 -0.3423 -0.0088
83966W        W84830  24.713  20.348  24.837 -0.0581  0.0564 -0.1609
83967W        W84831  10.294   9.372  23.591 -0.2783 -0.0805 -0.3143
83968W        W84832  23.250   3.657   9.175  0.0301 -0.0179  0.3037
83969W        W84833  23.847  11.854  12.930 -0.2746 -0.0641 -0.0645
83970W        W84834   6.279   0.174  14.930 -0.0687  0.1810  0.0239
83971W        W84835  10.571  16.893   9.515 -0.3231 -0.1140  0.0526
83972W        W84836  26.729  23.568  12.150  0.0928 -0.0261  0.1849
83973W        W84837   4.939  22.238  12.422 -0.1015  0.1324  0.1274
83974W        W84838  18.542  24.339  18.213 -0.1439  0.0087  0.2158
83975W        W84839  11.343  23.874   9.153 -0.0300 -0.1207  0.0534
83976W        W84840  23.397  12.180  11.832  0.0099 -0.2517  0.0826
83977W        W84841   9.963   1.581  21.844  0.0176 -0.1559  0.2274
83978W        W84842  22.797  16.121   9.052 -0.2759 -0.0202 -0.1487
83979W        W84843  22.082   6.924   2.321 -0.2293 -0.0532 -0.1005
83980W        W84844   1.836  17.768  10.629  0.0513 -0.0385 -0.0985
83981W        W84845   0.823  27.555  26.855  0.2131  0.2890 -0.0971
83982W        W84846   9.556  20.646   4.776  0.1940 -0.2129 -0.1033
83983W        W84847   3.429  14.583  26.513  0.0121  0.0217 -0.2102
83984W        W84848  10.217  22.024   1.126  0.0997  0.0608 -0.2328
83985W        W84849  15.195   1.053   8.735  0.0879 -0.2505 -0.2701
83986W        W84850  26.941  12.559   5.737 -0.0179 -0.0580 -0.0022
83987W        W84851   7.619  28.396  19.765 -0.3808  0.0479  0.3064
83988W        W84852   0.554   1.827  11.788  0.2525  0.0995  0.0965
83989W        W84853  20.340  27.089   1.710  0.0511 -0.0044 -0.0478
83990W        W84854  18.705  14.972   2.834  0.1204  0.2302 -0.1392
83991W        W84855   2.923   7.667   4.520  0.0781  0.4044 -0.1702
83992W        W84856  25.227   8.240  11.436 -0.2595  0.0094 -0.0792
83993W        W84857  19.391  28.864  15.964  0.2853 -0.1568  0.0200
83994W        W84858  20.203  13.935   6.169  0.0181 -0.1809 -0.0648
83995W        W84859   4.356  15.871  11.009  0.2208 -0.0564 -0.1220
83996W        W84860  21.486   1.890  22.254 -0.0041 -0.3557  0.1749
83997W        W84861   6.450  21.209  23.900 -0.0088  0.1239  0.1469
83998W        W84862   3.378   0.459   6.750 -0.0970 -0.1857 -0.2787
83999W        W84863  20.483   1.870   9.931 -0.1859 -0.1333 -0.0515
84000W        W84864   3.197  13.511   4.545 -0.1261  0.0599  0.0589
84001W        W84865  23.662  22.890  25.352 -0.2842 -0.0750 -0.0886
84002W        W84866   3.679   9.719  16.944 -0.0760  0.0461 -0.0454
84003W        W84867  10.548   2.374  22.961  0.0885  0.2331 -0.1312
84004W        W84868  18.319   4.847   8.126  0.1276  0.0956  0.1091
84005W        W84869   9.591  27.398  15.203 -0.3490  0.0476  0.0465
84006W        W84870  14.068  16.897  16.158  0.2064  0.0137  0.0393
84007W        W84871   4.252   1.393  13.618 -0.0559  0.0967 -0.1196
84008W        W84872   6.856   0.949  20.541 -0.1410  0.0588  0.2199
84009W        W84873  16.045   7.608  24.399 -0.1760 -0.0295  0.0112
84010W        W84874   4.630  11.611  23.273  0.3955  0.0105 -0.0466
84011W        W84875  23.168   9.233  15.729  0.0257 -0.2044 -0.0131
84012W        W84876   8.154   7.608  11.067  0.1042 -0.0633 -0.1305
84013W        W84877  26.565  10.817  18.619  0.0086  0.0930  0.1318
84014W        W84878  26.612   9.684  19.732 -0.1943 -0.3635 -0.1696
84015W        W84879  19.894  28.158  22.673  0.2650 -0.2697  0.1496
84016W        W84880  18.601  12.995   4.675  0.2772 -0.1277 -0.1614
84017W        W84881   4.033  16.188   8.980  0.0366  0.1657 -0.1932
84018W        W84882  27.103   7.342  10.214 -0.2577  0.4605  0.0913
84019W        W84883   3.457   5.044  19.850  0.0573  0.1114 -0.0510
84020W        W84884  27.670  16.383  26.537 -0.0309 -0.0790 -0.4959
84021W        W84885  29.142   0.127  26.967 -0.0571 -0.2075  0.2346
84022W        W84886  28.241  21.259  17.758 -0.0989 -0.0366 -0.2013
84023W        W84887  27.892   0.114   5.179 -0.3199  0.3313 -0.0546
84024W        W84888   6.524   3.775  12.098 -0.0118  0.0864 -0.1811
84025W        W84889  23.164  20.190  11.475  0.4735  0.4941 -0.3087
84026W        W84890  24.845  12.295  17.167 -0.0697  0.2021  0.0761
84027W        W84891  20.291  13.898  22.035  0.0197 -0.0077 -0.2598
84028W        W84892  25.138  28.535  12.283 -0.0355 -0.1842  0.0888
84029W        W84893  21.921  25.024   9.206 -0.1133  0.1206 -0.2167
84030W        W84894   9.521   7.089  15.681 -0.1502 -0.1170 -0.1250
84031W        W84895  25.333  22.151  27.223  0.0028  0.2036  0.0729
84032W        W84896  28.721   7.601  17.968 -0.0404 -0.4186  0.1702
84033W        W84897   5.438  27.277   4.064 -0.2171  0.1802 -0.2091
84034W        W84898  12.762   5.603  15.574 -0.1272 -0.1348 -0.0613
84035W        W84899   1.745   4.845  21.757 -0.0904 -0.0100  0.1497
84036W        W84900  19.183  10.645   7.051  0.1092  0.2463 -0.1173
84037W        W84901   0.340   2.860  12.111  0.3192 -0.0408 -0.0908
84038W        W84902  26.176  20.171  17.006  0.0531  0.0388 -0.0309
84039W        W84903  21.193  25.203  20.008 -0.1639  0.1200 -0.0030
84040W        W84904   1.660  13.070  11.872  0.0580  0.0636  0.0353
84041W        W84905  24.660  29.096   0.725 -0.0086 -0.2947  0.1634
84042W        W84906  22.196  27.772  27.942  0.5705 -0.1393 -0.1013
84043W        W84907   1.720  12.890  14.792  0.0244 -0.0440 -0.4355
84044W        W84908  26.586  18.708  17.473 -0.0221 -0.1434  0.2653
84045W        W84909   3.821  14.621  22.451 -0.1134 -0.2265  0.2650
84046W        W84910   7.212   2.336  21.301 -0.4417  0.3026 -0.0773
84047W        W84911   7.783  11.223   8.984  0.1129 -0.1296  0.3343
84048W        W84912  19.892   3.526  14.728 -0.2197 -0.1361  0.1177
84049W        W84913  26.884   5.974  20.685 -0.2235  0.1143  0.0595
84050W        W84914  13.748   3.804  26.497  0.2493 -0.0704 -0.1026
84051W        W84915  25.336  27.551  16.017  0.0156 -0.1743 -0.0644
84052W        W84916  26.413  19.387  20.206 -0.2414 -0.1007 -0.0808
84053W        W84917   7.195   7.222   7.197  0.0613 -0.0457  0.2260
84054W        W84918   6.169  11.769   9.368 -0.1960  0.0695  0.3216
84055W        W84919  15.950  25.865  10.796  0.0929 -0.0717 -0.2089
84056W        W84920  22.769  18.736  25.237 -0.0439 -0.0275 -0.1300
84057W        W84921  24.777  23.697   1.514 -0.1091  0.1821 -0.3758
84058W        W84922   6.172   5.467  23.577  0.0634  0.1836 -0.1325
84059W        W84923  27.779   7.265   9.216 -0.0798  0.0749  0.1460
84060W        W84924   4.144   6.967  11.872  0.4870 -0.0185  0.1376
84061W        W84925  25.653   3.929   8.801  0.0766 -0.0288  0.0434
84062W        W84926  29.002  13.973  13.934 -0.1918  0.3184 -0.1849
84063W        W84927  13.529  13.770   3.125 -0.3420 -0.1602  0.0490
84064W        W84928  28.409  14.722  18.580 -0.1903 -0.1431 -0.0091
84065W        W84929  19.712  12.963  24.336  0.1098 -0.1325  0.2046
84066W        W84930   4.252  18.216  19.223 -0.3072 -0.3419 -0.0312
84067W        W84931   1.688   0.437  14.033 -0.0451 -0.0049  0.0338
84068W        W84932  26.938  24.649   3.737  0.0638  0.0497  0.2265
84069W        W84933  24.141   1.053  18.735 -0.0437 -0.0065  0.1711
84070W        W84934   7.321  24.858  22.570 -0.0933 -0.2619 -0.3214
84071W        W84935  24.028   9.734   5.737  0.1998 -0.1488  0.1075
84072W        W84936  23.700   4.761  17.955 -0.0641  0.1033  0.1651
84073W        W84937  28.194  15.109  23.867  0.0228 -0.2372  0.0811
84074W        W84938   1.693   3.576  27.794 -0.2530 -0.1114  0.0203
84075W        W84939   1.122   5.147  17.288 -0.3942 -0.0497  0.1040
84076W        W84940  17.476   2.537  10.850  0.2877 -0.2004  0.0433
84077W        W84941  25.101  12.294  20.200 -0.0686  0.2658  0.1999
84078W        W84942  26.530  23.255  26.204  0.2499 -0.0284 -0.0348
84079W        W84943  24.660   9.784  23.047  0.0355  0.0114  0.0389
84080W        W84944  13.808   8.517   8.760 -0.1574 -0.3890  0.3237
84081W        W84945  23.062  23.353   6.829  0.2528  0.1310 -0.1757
84082W        W84946  15.774   5.525   8.784  0.1743 -0.1997  0.2126
84083W        W84947  28.861   4.429   7.875 -0.0011 -0.0213 -0.0159
84084W        W84948   6.857   1.604  13.687 -0.0504  0.6297  0.0958
84085W        W84949   0.398  12.406  23.582  0.0380  0.2125  0.2227
84086W        W84950  25.365  20.400   4.130 -0.1449  0.1734 -0.1059
84087W        W84951  14.201  10.518  21.744 -0.1290 -0.0430  0.1402
84088W        W84952   9.297   0.031  10.259  0.0738 -0.0935 -0.0599
84089W        W84953  27.487  26.756   7.279 -0.1005  0.0882  0.2542
84090W        W84954  19.098  26.707  11.239  0.0614 -0.1228  0.1526
84091W        W84955   3.139   7.142  26.697 -0.2226 -0.1908 -0.1379
84092W        W84956  13.786   7.482  25.568  0.2105  0.0736 -0.1155
84093W        W84957   7.891  17.378  13.474  0.2126  0.1282  0.0281
84094W        W84958  19.327  23.922  27.346  0.0182 -0.3664  0.1034
84095W        W84959  10.665  19.523   2.370  0.0469  0.1040  0.0112
84096W        W84960   1.957  25.201  24.425 -0.0081 -0.2463 -0.0826
84097W        W84961  24.610  18.886  23.985  0.2270 -0.2656 -0.1311
84098W        W84962  25.222  20.718  21.349  0.0310  0.2406 -0.1335
84099W        W84963   5.381  20.473   8.550 -0.1113 -0.1322 -0.2138
84100W        W84964  21.966  15.923  20.703  0.3630  0.1563 -0.0729
84101W        W84965  19.784  27.621  22.904  0.0232  0.0003  0.0965
84102W        W84966   7.839   6.354  23.178  0.0036 -0.1109 -0.0132
84103W        W84967   7.393  18.858  20.465 -0.0545 -0.1578 -0.3411
84104W        W84968  24.530  21.292   6.800  0.2719 -0.0096  0.2301
84105W        W84969  28.541   7.231  14.270 -0.4144 -0.0650  0.0686
84106W        W84970  25.618   2.547   5.985 -0.0447 -0.2325 -0.3112
84107W        W84971   6.095  12.070   5.955  0.0385  0.1957  0.0677
84108W        W84972  11.120  12.410  10.193 -0.1572 -0.0425  0.0897
84109W        W84973   7.357   1.820   8.655  0.1879 -0.1837 -0.0328
84110W        W84974   0.854   6.835  14.031 -0.1977 -0.2805 -0.0397
84111W        W84975  18.760  17.142  28.011  0.0053  0.0143 -0.0037
84112W        W84976  19.907  15.040  18.202 -0.0793 -0.0071 -0.1422
84113W        W84977  24.801  25.280   7.608 -0.1953  0.0687 -0.1837
84114W        W84978  14.231  11.607  27.827 -0.1525 -0.0581 -0.0361
84115W        W84979  27.937  12.964  17.782  0.1097 -0.0066  0.0757
84116W        W84980  28.894   5.086  23.621 -0.1898 -0.2147 -0.1618
84117W        W84981  26.198   3.752   6.178  0.1816  0.1845 -0.1145
84118W        W84982   4.522   8.892   9.595 -0.1035 -0.1135 -0.1611
84119W        W84983   1.910   0.943  19.010 -0.1993  0.3820 -0.1057
84120W        W84984  24.259  10.810  21.626  0.1152  0.0337  0.1266
84121W        W84985   5.354   5.529  21.958  0.0738  0.2514 -0.1652
84122W        W84986   2.991   4.466  11.586 -0.1335  0.1816 -0.0294
84123W        W84987  28.247  26.795  11.690 -0.0805 -0.2435  0.2474
84124W        W84988  21.710  27.949  19.835 -0.1319  0.2964  0.0484
84125W        W84989   5.636   4.232  21.770 -0.2042  0.1103 -0.1646
84126W        W84990   6.499   2.894  15.554  0.0527  0.0736  0.3790
84127W        W84991   3.837   3.287   3.062 -0.1506  0.0660  0.1667
84128W        W84992  24.378   8.498  25.673 -0.1925 -0.0997 -0.2705
84129W        W84993  15.710  11.896  11.644  0.0362  0.1994 -0.0917
84130W        W84994  20.016  21.666  15.302 -0.1185  0.2547 -0.2542
84131W        W84995  25.937  16.245  11.523  0.0158 -0.1965 -0.1737
84132W        W84996  17.962   5.647   3.182 -0.1279 -0.0040 -0.2972
84133W        W84997  24.481  17.127  23.330  0.0331  0.0147  0.2878
84134W        W84998  26.367  22.344  10.682  0.0347  0.1050  0.2079
84135W        W84999  14.032   3.097  26.151 -0.0060  0.2298 -0.0512
84136W        W85000  25.249  26.769   2.048 -0.1388  0.0874 -0.0615
84137W        W85001  22.992  26.414  17.134  0.1185 -0.1780  0.3113
84138W        W85002  12.840   4.233  18.352 -0.0756 -0.1338 -0.1826
84139W        W85003   4.207   1.003   5.396  0.0119  0.1595  0.5496
84140W        W85004  24.566  22.007   1.561 -0.2744 -0.1364  0.0948
84141W        W85005   6.043   4.741  25.659 -0.1909  0.1474  0.3030
84142W        W85006  16.163  11.938  19.465  0.0992  0.0769  0.2687
84143W        W85007  14.237   9.171  12.572  0.1073 -0.0489 -0.1671
84144W        W85008   7.792   1.786   8.253 -0.2126 -0.1323 -0.1049
84145W        W85009  22.353   2.209   3.005  0.3350  0.2096  0.0661
84146W        W85010   4.427  10.591   5.532  0.2015 -0.0136 -0.1181
84147W        W85011   1.232  24.734   0.869  0.1271 -0.0398 -0.1427
84148W        W85012  20.675  13.644  22.724 -0.2642 -0.0982  0.0269
84149W        W85013  19.103   6.210  18.770 -0.0661 -0.3240 -0.3129
84150W        W85014  26.201   2.086  20.779 -0.0902  0.2649  0.1151
84151W        W85015  23.931  12.449  18.088  0.0748 -0.2278  0.4044
84152W        W85016   1.384   6.443  24.406 -0.3585  0.0278  0.1718
84153W        W85017  25.478   3.577   8.268 -0.0728  0.1007  0.0803
84154W        W85018   9.383  19.390  24.117 -0.2437 -0.0975 -0.1142
84155W        W85019   4.427  22.343  21.710 -0.2064  0.0987 -0.2030
84156W        W85020   4.955   0.161   8.969  0.0373 -0.0422 -0.2000
84157W        W85021   1.200  17.194  15.705 -0.1913 -0.2625 -0.0189
84158W        W85022  25.656   7.207  21.047 -0.2717 -0.0796  0.0986
84159W        W85023   9.376   9.365  11.361 -0.0011 -0.2680 -0.2317
84160W        W85024  21.061  24.589   0.977  0.1414 -0.1880 -0.0493
84161W        W85025  23.563   1.601  24.990 -0.2445  0.1978 -0.1058
84162W        W85026  23.018  11.780  11.978  0.1831  0.1923 -0.0452
84163W        W85027  26.025   0.393  16.145  0.0319  0.3039 -0.1029
84164W        W85028  18.353  12.961  14.238 -0.0779  0.0539 -0.1007
84165W        W85029  15.771  13.677  14.503 -0.0864 -0.0291  0.1208
84166W        W85030  15.097  16.282  11.300 -0.1951  0.1996 -0.1405
84167W        W85031  25.586   1.425  16.459  0.1087 -0.0574  0.2989
84168W        W85032  13.267  11.856  24.364  0.2297 -0.5995 -0.1395
84169W        W85033  16.861  12.727  19.367  0.2358  0.3009  0.2493
84170W        W85034   4.340  25.076  17.533 -0.1140  0.1171  0.0836
84171W        W85035   4.268   4.360   6.786 -0.0944  0.0650 -0.0477
84172W        W85036  27.970   0.837   0.111  0.1185  0.2217  0.1312
84173W        W85037   5.581   1.641  13.175 -0.0627  0.0979 -0.4271
84174W        W85038   5.858  14.344  19.460 -0.0920  0.0073  0.0108
84175W        W85039  16.867   4.626  20.374  0.0698 -0.2354  0.1863
84176W        W85040  27.536  13.914  17.952 -0.1733  0.3018  0.0629
84177W        W85041   1.328   0.774  17.621  0.1401 -0.1464  0.0175
84178W        W85042  11.114  24.779  11.596 -0.0773  0.0405  0.0707
84179W        W85043   2.945   9.027  20.863 -0.0284 -0.0132  0.0745
84180W        W85044  24.331   3.966  23.488  0.3701  0.1179  0.1282
84181W        W85045  17.990   5.747   9.275  0.1773 -0.0975 -0.0442
84182W        W85046  13.530  16.109   0.735 -0.3594  0.4327 -0.1447
84183W        W85047   2.213  27.034  19.510  0.0905 -0.1863  0.2744
84184W        W85048   7.597   6.559  15.030  0.1169  0.2145  0.0373
84185W        W85049   6.304  20.719  19.907  0.2252 -0.1440 -0.0885
84186W        W85050  25.881  10.755  25.423  0.1910 -0.1602  0.0271
84187W        W85051   2.735  18.730   0.491  0.0057  0.4285 -0.1010
84188W        W85052   4.218  12.091   6.793 -0.2349 -0.0658 -0.0361
84189W        W85053  24.781  27.477   8.612  0.2953  0.1986  0.0803
84190W        W85054  27.851   5.191  12.630  0.2143 -0.1202  0.2290
84191W        W85055   3.094   4.721   0.028  0.1426 -0.0333 -0.2044
84192W        W85056   1.001   5.122  23.987  0.0402 -0.1964 -0.0877
84193W        W85057   6.121  28.111  20.635 -0.0467 -0.1444  0.1156
84194W        W85058  27.666  12.254  19.461 -0.1877  0.1558 -0.1108
84195W        W85059  27.712   0.768   5.845 -0.0632  0.0997  0.0882
84196W        W85060  18.504  13.322   1.800  0.0906  0.1948 -0.1395
84197W        W85061   5.926  19.601  19.245  0.2231  0.0736 -0.0875
84198W        W85062  17.374   2.643  11.970  0.0155  0.1094 -0.2037
84199W        W85063  20.578  22.038  25.648 -0.0246  0.1100 -0.2871
84200W        W85064   1.475  21.551  20.971 -0.0570  0.0388 -0.2503
84201W        W85065  24.433   4.388  27.323 -0.1009  0.0886  0.0033
84202W        W85066  28.439  12.798  21.747 -0.0289  0.0945 -0.1311
84203W        W85067  24.658   5.190  13.760 -0.0099 -0.1783  0.0039
84204W        W85068   8.959  27.569  13.053 -0.0556  0.0864 -0.2014
84205W        W85069  10.066  20.589  10.865 -0.3184  0.3643  0.2366
84206W        W85070  20.677  11.575  26.614 -0.1171 -0.1045  0.5402
84207W        W85071  23.552  18.463  12.695 -0.1378 -0.3043 -0.0597
84208W        W85072  25.605  14.940  28.383  0.1124 -0.0663  0.2219
84209W        W85073  28.731  22.885   3.662  0.1760  0.0529 -0.2200
84210W        W85074  24.841  13.673  28.215 -0.0175  0.0223  0.4040
84211W        W85075  27.100  23.053  11.568  0.0110 -0.2415 -0.0360
84212W        W85076   0.393   4.845  10.805  0.0820  0.0123  0.0768
84213W        W85077  18.390  16.315   6.635 -0.0154 -0.1174  0.1397
84214W        W85078  10.904  18.265   7.535  0.0974 -0.2388  0.0739
84215W        W85079  13.269   7.148   2.844 -0.2445  0.0526  0.0349
84216W        W85080  25.534  23.039  15.630  0.2609  0.0660 -0.0146
84217W        W85081  26.823  18.773  19.519  0.0593 -0.1399  0.1958
84218W        W85082  24.649   3.498  18.091  0.0143 -0.2679  0.2512
84219W        W85083   2.115  18.355  10.189 -0.1316  0.1268  0.0511
84220W        W85084  25.007   6.774  17.936 -0.0396  0.0295 -0.1220
84221W        W85085   8.847  10.208  15.260  0.0995 -0.0713  0.1141
84222W        W85086  10.805  12.924  18.818  0.0570  0.0143  0.1921
84223W        W85087  26.637  11.637  22.972 -0.0347  0.0465  0.1208
84224W        W85088  20.298  21.006  14.186  0.1302 -0.0813  0.0213
84225W        W85089  18.315  10.416  17.714  0.1046  0.1059 -0.0084
84226W        W85090  16.146   3.029  13.083 -0.1942  0.5326  0.0598
84227W        W85091   1.616  13.413   9.818 -0.0348 -0.0606  0.1368
84228W        W85092  16.850   3.687  23.634  0.0961 -0.1386  0.1535
84229W        W85093  26.289   5.144  14.935  0.2338 -0.0461  0.0536
84230W        W85094  10.766  23.607  10.683  0.2582 -0.1620 -0.3895
84231W        W85095  15.929  10.253  10.323 -0.2088  0.0132  0.0580
84232W        W85096  27.384   5.783  20.582 -0.1030  0.0652  0.0077
84233W        W85097   6.488   5.961  17.086 -0.1551  0.1253 -0.0278
84234W        W85098   4.807  28.764  21.669 -0.1255 -0.1136 -0.1913
84235W        W85099  21.791  11.199   8.580 -0.2820 -0.1108  0.1156
84236W        W85100  28.817   9.411  16.505  0.1338 -0.0630 -0.3397
84237W        W85101   2.364  28.837  14.290 -0.0583 -0.0708 -0.2179
84238W        W85102  21.614   5.885   0.415 -0.1902 -0.0931  0.5501
84239W        W85103  13.441  25.569  21.449  0.3777 -0.2416  0.0335
84240W        W85104  27.144  25.261  28.587 -0.3250 -0.1915 -0.0963
84241W        W85105   3.643  29.053  23.175  0.1310 -0.2195 -0.4227
84242W        W85106  22.013  10.331  17.790  0.1745 -0.1813 -0.0247
84243W        W85107  21.202  12.890   4.912 -0.0792 -0.1379  0.0870
84244W        W85108   5.146  19.576  19.381  0.0242  0.0842 -0.1173
84245W        W85109  25.354  15.122  16.603 -0.0979 -0.0140 -0.1778
84246W        W85110   3.201   3.508  15.008 -0.1402  0.3343 -0.0721
84247W        W85111  14.357  23.643  22.841  0.4198  0.0639 -0.4028
84248W        W85112  15.930  26.563  16.257 -0.1098  0.3449  0.1953
84249W        W85113   3.635   4.800   0.869 -0.1125  0.1801 -0.1774
84250W        W85114   2.204   3.245  10.314 -0.3475  0.2172  0.1049
84251W        W85115   9.013  28.588  11.397  0.0320  0.2343 -0.0024
84252W        W85116  28.080  26.806   9.829  0.0109 -0.0337 -0.0184
84253W        W85117   1.687   9.191  22.145  0.1007 -0.0378  0.0421
84254W        W85118  17.684   7.007  28.141 -0.1532  0.1541 -0.0788
84255W        W85119  29.088   9.738   5.702 -0.0855 -0.0159 -0.1994
84256W        W85120   0.531   3.194   6.733 -0.2269 -0.2855 -0.0382
84257W        W85121  11.005   5.701  12.492 -0.0072  0.1424 -0.0196
84258W        W85122  18.872  27.757  18.466 -0.1925 -0.2838  0.3028
84259W        W85123   0.404  25.806  18.463  0.0202  0.0697  0.4031
84260W        W85124   3.708  21.755  11.070 -0.5402  0.2901  0.1062
84261W        W85125  24.158   0.063   8.793  0.6065  0.3188  0.0690
84262W        W85126  18.943  14.654  18.303  0.2407 -0.1092 -0.1272
84263W        W85127  22.402   0.746   0.371  0.2071  0.1389  0.0469
84264W        W85128  25.785  14.986   7.154 -0.1766  0.2463  0.1523
84265W        W85129  22.217  12.832  26.494 -0.0136  0.1092 -0.1845
84266W        W85130  21.389  12.929   1.452 -0.0169 -0.0155 -0.0115
84267W        W85131  27.354  24.610  13.458  0.1288  0.2481 -0.2489
84268W        W85132  22.232   9.199   4.212  0.0359  0.2675 -0.0218
84269W        W85133  26.084  17.889  12.054  0.2281  0.1573  0.1350
84270W        W85134  10.004  18.058   8.354 -0.1170  0.2356 -0.0024
84271W        W85135  20.421   6.304  10.550 -0.1303  0.0058 -0.0397
84272W        W85136   4.278   2.210  27.715  0.0803 -0.3924  0.2393
84273W        W85137  22.161   9.032  19.444 -0.1645  0.0505  0.0532
84274W        W85138  28.231  11.926  13.973  0.1020  0.1590  0.0659
84275W        W85139  29.132  14.600  24.569  0.0782 -0.2630  0.1799
84276W        W85140   2.209  16.505  12.828 -0.1741 -0.0616  0.3123
84277W        W85141  26.598   3.567  28.330  0.1311 -0.0629 -0.1696
84278W        W85142  12.265  20.389  23.360 -0.2530  0.3433 -0.4339
84279W        W85143  24.233   7.172  15.722  0.1559 -0.3131  0.1855
84280W        W85144   8.922  20.558   9.931 -0.0662  0.0528 -0.0140
84281W        W85145  27.549   7.187  21.600 -0.1644 -0.1817 -0.1823
84282W        W85146   7.797   8.013  12.305 -0.0871 -0.0656  0.0087
84283W        W85147   6.515   6.211  12.560  0.1714  0.2318  0.2492
84284W        W85148  28.109   1.437  12.500  0.1752  0.1721 -0.0979
84285W        W85149  10.253   8.588   0.722 -0.1316  0.1626  0.1233
84286W        W85150   7.642   1.496  19.166 -0.1184 -0.0167 -0.2115
84287W        W85151  18.391  20.098  21.758  0.0958  0.0938 -0.0784
84288W        W85152   6.672  24.867  15.885  0.0321 -0.0898  0.1185
84289W        W85153   3.757   6.780  14.446 -0.0152 -0.2569 -0.1254
84290W        W85154   0.383   0.278  18.939  0.0350 -0.1222  0.1434
84291W        W85155   5.736   0.231  20.072  0.0691 -0.3617  0.0982
84292W        W85156  22.764  23.632  15.138 -0.0495 -0.0998  0.1083
84293W        W85157  21.022   0.498  11.228 -0.0264 -0.1198 -0.0526
84294W        W85158   1.269  17.313  16.432  0.0134  0.1121  0.1813
84295W        W85159  24.548   1.024  27.375 -0.0328  0.0849  0.1611
84296W        W85160  12.529  16.590   9.934 -0.2198  0.0595 -0.1866
84297W        W85161  19.471  11.335  24.822  0.1668 -0.1515 -0.2087
84298W        W85162   8.459   6.470  26.884  0.1006 -0.1084 -0.0295
84299W        W85163  23.176  24.485  19.402 -0.5149  0.0388  0.1559
84300W        W85164  18.807  16.700  19.399 -0.2020  0.2000  0.1880
84301W        W85165   7.403  25.042   6.616  0.1017  0.1842  0.1307
84302W        W85166  14.175  23.421   3.192  0.0780 -0.0728 -0.1736
84303W        W85167   4.714  12.378  23.792 -0.0286 -0.0485 -0.3777
84304W        W85168   2.774   1.238   1.218 -0.0963 -0.1600 -0.2491
84305W        W85169   3.781  26.697  14.826 -0.1367  0.1900  0.3763
84306W        W85170  10.789  21.211  17.431 -0.0895  0.0378 -0.1243
84307W        W85171   0.693  17.244  17.846  0.0533  0.0306  0.1001
84308W        W85172  10.702  23.294   9.721 -0.1332  0.2692 -0.0515
84309W        W85173   3.309   6.863   4.066 -0.2878 -0.0289 -0.1465
84310W        W85174  27.140  19.397  17.153 -0.0843  0.2445  0.0969
84311W        W85175  28.448   3.106  12.108  0.2348  0.2604  0.0196
84312W        W85176  13.929   6.815  26.491 -0.0613 -0.0389  0.2435
84313W        W85177   6.750   5.661  14.809 -0.1086  0.2812  0.1765
84314W        W85178  22.634  21.536   2.734  0.1530 -0.2404 -0.2053
84315W        W85179  14.311  18.500   0.107  0.0354 -0.0228  0.0919
84316W        W85180   2.439   3.988  22.064  0.2802 -0.2923 -0.3986
84317W        W85181  14.335   4.244   7.009 -0.2991 -0.0941 -0.1470
84318W        W85182  23.322  14.801  27.709  0.2469  0.1869 -0.2358
84319W        W85183  12.356  24.449   3.679 -0.0031 -0.2603 -0.2296
84320W        W85184  17.114   4.508  11.885  0.2546 -0.2874  0.3322
84321W        W85185  15.481   2.361  10.846  0.1154 -0.0302  0.1326
84322W        W85186  25.640   9.385  10.530 -0.1576 -0.3888  0.1800
84323W        W85187  24.451  24.143  25.768  0.0862 -0.0921  0.1902
84324W        W85188   9.305   3.643  14.361 -0.2108  0.2526  0.0239
84325W        W85189  22.161   4.358  28.370 -0.0074 -0.0108 -0.2124
84326W        W85190  16.623  10.076  23.941  0.2391 -0.1440 -0.3333
84327W        W85191   8.830  12.439  23.338  0.0452  0.0469  0.0733
84328W        W85192  12.492   4.541  19.438  0.2735  0.0526 -0.0928
84329W        W85193  11.014   9.095  17.500 -0.0129 -0.1162  0.1287
84330W        W85194  25.743  18.273  28.531  0.1076  0.1028  0.4789
84331W        W85195  28.423  17.301   4.628  0.0246  0.0337  0.0993
84332W        W85196  21.688   8.429  14.025  0.0626  0.0542  0.3080
84333W        W85197  11.067   9.293  10.986  0.1999 -0.0229  0.1060
84334W        W85198  25.845  10.890  22.127  0.2165  0.0400  0.1217
84335W        W85199  25.607  19.766   2.190  0.0873 -0.2337 -0.0979
84336W        W85200  28.257  26.415   6.714  0.0984 -0.0147  0.0382
84337W        W85201  24.239  13.563  19.150  0.0955 -0.2380  0.3149
84338W        W85202   5.646   1.030  18.034  0.2996 -0.1361  0.1388
84339W        W85203   0.956   3.960  17.200  0.1586 -0.0395 -0.0202
84340W        W85204  14.128   3.017  26.767 -0.0352 -0.2216  0.0007
84341W        W85205  21.404  28.975  27.529  0.0255  0.2673 -0.2652
84342W        W85206  13.348   4.696  10.595 -0.2419 -0.2135 -0.0954
84343W        W85207   9.182  12.989  17.042 -0.1659  0.0627 -0.1074
84344W        W85208  18.178  20.360  16.266 -0.0432  0.1790 -0.1908
84345W        W85209   1.930  25.875  10.997  0.1760  0.3192  0.1079
84346W        W85210   1.263  28.920  16.837 -0.0716  0.1532 -0.0437
84347W        W85211  27.047  28.450  24.517  0.2772  0.0616 -0.2375
84348W        W85212   4.630  27.172  18.704 -0.0546  0.2157  0.1034
84349W        W85213  20.683  27.730   7.735  0.3159 -0.0134  0.0183
84350W        W85214   7.370   0.712   9.375 -0.0012  0.0183  0.0699
84351W        W85215  25.904  28.473  13.911  0.0882 -0.1572 -0.0995
84352W        W85216   9.783  15.210   9.135 -0.1300 -0.1974  0.0019
84353W        W85217  27.368   2.109  15.173  0.0106 -0.0046  0.3211
84354W        W85218  18.917   5.834  24.734 -0.1942  0.0050 -0.1480
84355W        W85219  25.961   3.695   8.441  0.1401 -0.0859  0.2235
84356W        W85220   9.159  25.684  12.287 -0.1671  0.0298 -0.1604
84357W        W85221  17.051  23.911  10.667 -0.0459  0.0760  0.0517
84358W        W85222  11.905  25.639   3.407  0.2010 -0.0803  0.1328
84359W        W85223   6.032  12.937   8.545 -0.0923 -0.0660 -0.1148
84360W        W85224  28.203   8.168   0.104  0.3785  0.1574 -0.3863
84361W        W85225  16.790  19.189  20.526 -0.0240  0.0724  0.3151
84362W        W85226   7.369   3.413  22.811  0.3729  0.1945  0.2730
84363W        W85227  28.137  12.927  13.368  0.1174 -0.0922  0.0356
84364W        W85228   9.166   0.014  19.764 -0.0107 -0.0660  0.1564
84365W        W85229   7.924  25.690  17.453  0.1530 -0.2703 -0.0007
84366W        W85230  13.000  12.842  20.263 -0.1141 -0.2747  0.0720
84367W        W85231  16.347  23.488   1.260 -0.2332 -0.0720 -0.0001
84368W        W85232  10.116  26.319   9.892  0.0200 -0.1590 -0.0105
84369W        W85233  26.621   4.318   8.349 -0.0053 -0.0478  0.0207
84370W        W85234  27.278  11.026  21.969 -0.1230 -0.1076 -0.1720
84371W        W85235  26.407  16.840  11.068  0.0279  0.4195 -0.3656
84372W        W85236  20.381   0.880  15.497 -0.0119  0.0190 -0.1708
84373W        W85237   1.884  10.536  22.248  0.1429  0.0327 -0.0707
84374W        W85238  14.354  18.761  12.116 -0.4091  0.3471  0.0069
84375W        W85239  28.083  19.430  13.132  0.4056  0.0862  0.1035
84376W        W85240   0.306   9.167   9.424 -0.3314  0.0096 -0.1350
84377W        W85241   8.886  26.374  24.609 -0.0362 -0.1534 -0.0916
84378W        W85242  20.825  27.288  21.456 -0.0454  0.0622  0.1665
84379W        W85243  26.354  10.588  20.507 -0.2281  0.0138  0.1056
84380W        W85244   7.177   2.853   1.158  0.1784 -0.1016 -0.3989
84381W        W85245  23.158  21.278  17.549 -0.3594  0.4007 -0.0273
84382W        W85246  21.134  18.797  15.731 -0.1890 -0.4147  0.0170
84383W        W85247   4.310  10.558   1.709 -0.0754  0.0026 -0.0466
84384W        W85248   6.403   5.063   2.008 -0.1259  0.1524 -0.0050
84385W        W85249  14.694  21.803   7.165  0.2287 -0.0380 -0.0432
84386W        W85250  16.956   5.399  18.987  0.0567  0.1314 -0.0218
84387W        W85251  16.353  15.951  12.652  0.0206 -0.1464 -0.2454
84388W        W85252  12.688  22.900   8.230 -0.1590 -0.3118  0.1229
84389W        W85253  26.814   7.651   6.358  0.1573  0.1637  0.1069
84390W        W85254  23.435  20.820  29.042  0.0163  0.3617  0.1106
84391W        W85255   4.407  24.762   0.509 -0.0970 -0.2210  0.0284
84392W        W85256  10.115   3.565  13.902  0.2916  0.0479  0.2970
84393W        W85257  20.322  11.446  14.562 -0.0643  0.0216 -0.1261
84394W        W85258   6.401   9.229  12.198  0.1772 -0.1977 -0.0082
84395W        W85259  12.864  26.873  19.694  0.0070  0.2471  0.1279
84396W        W85260   0.248   3.424  17.597 -0.2002  0.5477 -0.0154
84397W        W85261   4.987  17.042   8.104 -0.0710  0.0610  0.1506
84398W        W85262   3.010  24.537  28.052  0.0588 -0.1191 -0.3292
84399W        W85263  11.504  17.697   8.037  0.2335 -0.1870  0.1214
84400W        W85264  20.547  22.829   9.832  0.2428 -0.1815  0.0254
84401W        W85265  14.278  27.297  16.323  0.1018  0.1151  0.0578
84402W        W85266  28.835  10.708   6.187 -0.1499 -0.1355  0.2633
84403W        W85267   5.257  18.691   5.307  0.4113 -0.1175  0.0597
84404W        W85268   2.980  27.354  13.580 -0.1303  0.0746  0.3728
84405W        W85269  18.955   7.864  10.945 -0.0858  0.2006  0.1983
84406W        W85270  18.565  27.725   9.314 -0.2412  0.1843 -0.2171
84407W        W85271  10.348  19.229  20.912 -0.2464 -0.1029  0.0414
84408W        W85272  16.218   3.676  11.860  0.4371 -0.1722  0.0676
84409W        W85273   9.638  26.925  23.282 -0.1244  0.2175  0.0038
84410W        W85274  13.799   0.274  17.527  0.1564 -0.2624 -0.0064
84411W        W85275   1.659  11.138  22.441 -0.1012  0.0533 -0.3089
84412W        W85276   7.828  15.302  10.308  0.0145 -0.1775 -0.0729
84413W        W85277   7.120   0.005  16.266  0.0747  0.1502  0.2381
84414W        W85278  27.671  22.895   0.736 -0.1322 -0.0879  0.0890
84415W        W85279  11.766  27.310  10.542 -0.2544  0.4359  0.1004
84416W        W85280  24.165  11.347   4.077 -0.3161  0.2239 -0.0165
84417W        W85281   9.174  28.658  26.363 -0.1100  0.1800 -0.3062
84418W        W85282  26.856   7.720   5.447 -0.0886 -0.1321  0.1488
84419W        W85283   4.356  13.223   8.368  0.0700 -0.0846  0.1929
84420W        W85284   4.845  10.638  27.064 -0.0970  0.0305 -0.0652
84421W        W85285   6.899  28.400  24.741  0.0706 -0.1582  0.1429
84422W        W85286  22.665  27.426  17.510 -0.2053  0.1884  0.0606
84423W        W85287  23.743  17.161  17.929  0.1120  0.0841 -0.2021
84424W        W85288   2.166   3.470   8.924 -0.2557 -0.2983  0.0844
84425W        W85289   0.723   9.656   4.594  0.0413 -0.2331 -0.1852
84426W        W85290  25.489   4.301  15.601  0.1772  0.3065  0.0154
84427W        W85291  20.565   7.563   0.747  0.0383  0.0017  0.1176
84428W        W85292  19.710  17.352  28.199  0.2060  0.0322 -0.1387
84429W        W85293  21.189   8.125  22.602  0.1541 -0.4412 -0.1908
84430W        W85294   5.055  13.598  16.036 -0.0866 -0.0845 -0.1900
84431W        W85295  27.133   4.116  28.838  0.0694  0.1690  0.0421
84432W        W85296  12.998  18.748  25.595 -0.0718 -0.1756 -0.3480
84433W        W85297   2.081   5.944   1.750  0.2379  0.2907 -0.5775
84434W        W85298   0.324   1.214   0.396 -0.1560  0.1704  0.0342
84435W        W85299  18.770  12.890   1.631  0.1445  0.0514  0.3097
84436W        W85300  19.471   7.200  12.302  0.0099  0.1448  0.1541
84437W        W85301   2.646  19.944  14.413 -0.1244  0.4729 -0.2419
84438W        W85302  22.790   9.711  23.977 -0.0412 -0.1663 -0.0715
84439W        W85303   9.261  10.339  14.347  0.2409  0.1565 -0.0959
84440W        W85304  22.678  27.042  12.485  0.0503  0.0659 -0.0528
84441W        W85305  19.367  15.199  20.606  0.2183  0.2932  0.1783
84442W        W85306   2.161  21.188   1.355 -0.0276 -0.1615  0.0189
84443W        W85307   0.981   4.505  19.972  0.0518 -0.0498  0.0574
84444W        W85308  26.850  13.624  26.601  0.1087 -0.0536  0.1807
84445W        W85309  24.822  10.265  11.135  0.0579 -0.0518 -0.3160
84446W        W85310  19.635  26.268   4.627  0.0797  0.1427  0.4782
84447W        W85311  20.357  23.268  21.921  0.0631 -0.1347 -0.1130
84448W        W85312   1.182  28.150   3.303  0.0742  0.0248 -0.1341
84449W        W85313  17.939   5.880  26.217  0.4564  0.3075  0.1308
84450W        W85314  14.294   0.535   1.765 -0.2349 -0.1334 -0.2159
84451W        W85315   3.360   9.236  22.517  0.1646 -0.1031 -0.0285
84452W        W85316   0.662   2.362  17.106  0.0951 -0.0513 -0.1417
84453W        W85317   4.911   9.124   4.124  0.1077 -0.1206 -0.0175
84454W        W85318  25.117   2.895  13.991  0.0651  0.1561 -0.5414
84455W        W85319   0.615  13.225  18.734  0.0013 -0.2451 -0.3181
84456W        W85320  28.023  28.492  25.819  0.0203  0.0005  0.0975
84457W        W85321  27.177  16.675  26.659  0.1201 -0.2014 -0.0185
84458W        W85322  24.647   1.084  13.148  0.4018  0.1639 -0.1393
84459W        W85323   7.220  27.187  14.743  0.0441  0.2933 -0.0961
84460W        W85324   3.370  27.080  24.588  0.1827  0.0561  0.1995
84461W        W85325  27.723  16.400  13.762  0.0703 -0.0396  0.0755
84462W        W85326  16.121  15.909   8.548  0.0181 -0.1711 -0.2343
84463W        W85327   8.401  28.271  17.332  0.2144 -0.0435 -0.1280
84464W        W85328  28.157  19.413   3.407 -0.0819  0.0719  0.0056
84465W        W85329   8.299  18.684  20.320  0.1865 -0.0804 -0.0758
84466W        W85330   7.544  13.806  17.942  0.0215 -0.0479  0.3110
84467W        W85331  22.171   1.573  25.218 -0.1615  0.2218  0.0585
84468W        W85332  27.433  25.912  27.981 -0.3386  0.0085 -0.1390
84469W        W85333  21.859  13.546  21.870 -0.0759  0.3094 -0.2158
84470W        W85334   2.582   1.193  23.772 -0.3201 -0.0294 -0.0575
84471W        W85335   0.591  16.625  23.209  0.1454 -0.0533  0.0258
84472W        W85336  20.168  17.944  10.452 -0.0916  0.3491  0.0301
84473W        W85337   5.832  22.312  21.775  0.0720 -0.0865 -0.2024
84474W        W85338  28.670  27.494   5.887  0.1928  0.1489  0.2504
84475W        W85339  27.594  15.952  17.578  0.1437 -0.3346  0.1294
84476W        W85340  16.485  26.512  10.333 -0.1004 -0.3660 -0.2271
84477W        W85341  27.903   7.183   4.417 -0.0304 -0.2237 -0.3358
84478W        W85342  26.945  28.812  23.757 -0.2013 -0.3089  0.0503
84479W        W85343   9.601  18.846   3.134 -0.0755  0.4107 -0.2214
84480W        W85344  24.366   9.838  13.935 -0.1555  0.2989 -0.1410
84481W        W85345  23.348   3.591   8.551  0.1189  0.0078 -0.1604
84482W        W85346   3.617  14.353  19.850  0.3144  0.0492  0.3332
84483W        W85347   2.195  27.524  23.721 -0.0620 -0.0222 -0.2923
84484W        W85348  24.894  24.929  21.140  0.1354  0.4015  0.2328
84485W        W85349  22.448   1.585  17.006  0.2079  0.1715  0.1189
84486W        W85350  15.784   2.063  15.052  0.1494  0.1145  0.1001
84487W        W85351   4.438   9.620  19.418  0.2139 -0.1905 -0.2347
84488W        W85352   1.162  10.286  10.412  0.2840  0.2910  0.0126
84489W        W85353  21.545  16.882  10.787  0.1864 -0.0563  0.0996
84490W        W85354  28.181  17.185  26.230  0.1741  0.0299 -0.2619
84491W        W85355   0.464  24.865   1.021  0.4489  0.1620 -0.0028
84492W        W85356   6.390   8.595  25.466 -0.1156 -0.0169 -0.0297
84493W        W85357  24.331  10.300  21.846  0.0107  0.0600  0.0056
84494W        W85358   7.108  20.679   6.720  0.0800  0.2274 -0.1470
84495W        W85359   0.844  20.770  16.348  0.0600  0.0864  0.0154
84496W        W85360  11.317  18.819   9.264  0.0449 -0.0677 -0.2982
84497W        W85361  26.942   4.656  12.470  0.1749  0.1577  0.0867
84498W        W85362  18.102  19.973  15.540  0.0897  0.2160  0.1482
84499W        W85363  16.134   0.428   2.548 -0.1262  0.2285 -0.0057
84500W        W85364  21.531   5.132   9.046 -0.3205  0.0630  0.4314
84501W        W85365  26.679   2.006  12.396 -0.0744  0.0347  0.0224
84502W        W85366   7.807  26.520  16.360 -0.1537 -0.0062  0.0743
84503W        W85367  19.386  28.197  19.545 -0.0192 -0.4083 -0.0398
84504W        W85368  26.190  28.071  14.535 -0.1860  0.1694 -0.0639
84505W        W85369  27.819  16.990  17.954  0.3295 -0.0363 -0.0866
84506W        W85370   0.826  11.129  18.240 -0.1780 -0.3019  0.1419
84507W        W85371  24.520  12.396   5.534 -0.0265  0.0847  0.0682
84508W        W85372  23.287  13.513   2.545 -0.3439 -0.1029  0.0328
84509W        W85373  17.980   0.765   4.708 -0.1629  0.0637  0.1028
84510W        W85374   8.287  21.376  20.423  0.2415 -0.1509  0.1416
84511W        W85375   1.707  27.251  20.686 -0.2608  0.1969 -0.0175
84512W        W85376  21.548   9.417  20.815  0.2691 -0.1886  0.3141
84513W        W85377  24.791  14.024  19.324  0.0055  0.1505 -0.2146
84514W        W85378   6.902   8.934  10.395 -0.0375 -0.0025 -0.0815
84515W        W85379  28.469   2.173  28.535 -0.3536  0.2164 -0.0720
84516W        W85380  23.613  17.757  11.981  0.0386  0.1009  0.0385
84517W        W85381  17.587  16.335  28.780 -0.1329  0.3435 -0.0565
84518W        W85382  22.980  22.350  21.321  0.1356 -0.0499 -0.0895
84519W        W85383   0.041  11.231   3.145  0.2402  0.0827 -0.0351
84520W        W85384  25.555  12.436  19.360 -0.2805  0.0328  0.0805
84521W        W85385   1.084  16.452  23.432 -0.0296 -0.1389 -0.1152
84522W        W85386   7.814   4.485  24.597 -0.1217  0.0741 -0.3165
84523W        W85387   2.836   0.769  26.743  0.1497 -0.1627  0.0280
84524W        W85388  14.873   2.955  16.374  0.0360  0.3185  0.2831
84525W        W85389   4.698   0.397  10.850 -0.0743  0.1028 -0.0921
84526W        W85390  19.847   8.932   4.111  0.0924  0.0342  0.0711
84527W        W85391  22.165   4.459  25.272  0.0902 -0.2826  0.2756
84528W        W85392   1.086   4.756   5.467  0.1494  0.0210  0.3831
84529W        W85393   0.951   6.726   1.657  0.1018  0.1111 -0.2092
84530W        W85394   4.063  21.208  11.804  0.0878 -0.0418 -0.2848
84531W        W85395  18.814  11.503  26.792  0.4254 -0.2799  0.1999
84532W        W85396   1.301  25.733  16.436 -0.1431 -0.0567 -0.0679
84533W        W85397  28.611   6.836   3.352  0.1649  0.1539  0.0459
84534W        W85398  17.963   3.383  17.808 -0.0000  0.3588 -0.0839
84535W        W85399   5.202  28.243  19.374  0.1335  0.1883 -0.2020
84536W        W85400  10.756   2.447  15.529  0.1978 -0.0814  0.2855
84537W        W85401  17.017  11.020  16.525  0.0614 -0.3662 -0.2344
84538W        W85402   0.326  21.615   8.942 -0.1243  0.0720  0.0310
84539W        W85403  29.125  26.089  21.640 -0.1443  0.1131  0.1077
84540W        W85404  28.435  14.585  16.488  0.0744  0.1900  0.4750
84541W        W85405   5.245   3.211  28.279 -0.0804  0.0397 -0.2557
84542W        W85406  18.032  11.783  12.782 -0.1256  0.0231  0.0613
84543W        W85407  26.888   6.480  20.589  0.0857 -0.0078  0.0044
84544W        W85408  21.488  18.145  24.031  0.1083  0.0200 -0.3075
84545W        W85409  24.505   6.391  29.044 -0.2038  0.0218 -0.0554
84546W        W85410   6.271   5.046  27.751  0.1194 -0.0509 -0.2374
84547W        W85411  27.053   9.286  23.898 -0.4703  0.2649  0.1979
84548W        W85412  26.317  17.982  23.808  0.2312  0.2217 -0.1402
84549W        W85413  21.859  10.022  19.497 -0.1610 -0.3603 -0.2398
84550W        W85414  19.474   5.695   2.990  0.0385  0.0845  0.1047
84551W        W85415  11.684   7.909   9.704  0.0952 -0.3377  0.0278
84552W        W85416   9.062  27.150  26.061 -0.0845  0.1403  0.0925
84553W        W85417   5.744   8.969   3.877 -0.0411 -0.0021  0.2144
84554W        W85418   5.870   3.228   6.050 -0.2398 -0.1051  0.0656
84555W        W85419   9.060  11.209  21.167 -0.0303  0.0113 -0.0121
84556W        W85420  10.029   1.026  23.559  0.2105 -0.0463 -0.2030
84557W        W85421   2.879  12.030  25.882 -0.2511  0.1979  0.1731
84558W        W85422  16.733   8.035  17.489 -0.1705 -0.2476  0.0528
84559W        W85423  28.349  22.146  24.378  0.0183  0.0924  0.0092
84560W        W85424  21.612  17.154  23.305 -0.1249  0.0785 -0.1182
84561W        W85425   0.934  20.635   6.010 -0.0788  0.1965 -0.0445
84562W        W85426   0.097  11.720   6.714 -0.0975  0.2128 -0.0852
84563W        W85427   0.905  27.807  29.009 -0.2415  0.2035  0.0978
84564W        W85428  28.136  26.843  16.562 -0.0287 -0.2252  0.1900
84565W        W85429  22.152   3.349  17.435 -0.2110 -0.1046 -0.1925
84566W        W85430   3.384  19.520  11.899 -0.2270 -0.1823  0.1843
84567W        W85431   0.694  25.968  26.690  0.1301 -0.2671  0.1707
84568W        W85432  22.975  27.736  17.944  0.1411 -0.2187 -0.0465
84569W        W85433  11.766  12.604  18.257  0.1453 -0.0986  0.0667
84570W        W85434  23.721   9.804  22.046  0.2730 -0.2516  0.3372
84571W        W85435  12.811   9.417  22.116 -0.1352  0.0724 -0.0162
84572W        W85436  20.351  10.611   8.776  0.2048  0.0775  0.3361
84573W        W85437  15.933  12.781  27.707 -0.2157  0.1050 -0.2880
84574W        W85438  20.597   0.956  25.861 -0.0771 -0.0676  0.1140
84575W        W85439   5.788  10.214  22.574 -0.1593 -0.1923 -0.2263
84576W        W85440  23.822   5.348   8.376  0.0504  0.1498 -0.0534
84577W        W85441  13.317   2.761  19.651  0.1118 -0.1721 -0.1257
84578W        W85442  12.773   7.742  14.591 -0.1093 -0.1240  0.2331
84579W        W85443   6.212  12.506   4.811 -0.1073 -0.1394 -0.1135
84580W        W85444   4.897  14.480  24.713  0.1270 -0.3316  0.0838
84581W        W85445  22.488  22.066  15.751  0.1085  0.1691  0.2857
84582W        W85446  14.176  16.839  28.375 -0.1130 -0.0575  0.1826
84583W        W85447  21.721  18.671   4.467 -0.1205 -0.0892 -0.1691
84584W        W85448   6.533   3.052  21.103  0.1493 -0.0097  0.0593
84585W        W85449  15.315  17.012  14.087 -0.1185  0.0551  0.2212
84586W        W85450  28.883   4.699  25.670 -0.0695 -0.0941 -0.2074
84587W        W85451   3.369  22.798  26.421  0.2939 -0.2951 -0.4646
84588W        W85452  20.193  19.511  21.364 -0.4781 -0.1373  0.1421
84589W        W85453  26.095   5.881  21.091 -0.1323  0.2193 -0.1282
84590W        W85454   8.307  25.774  27.924  0.0358 -0.2176  0.0447
84591W        W85455  17.743  25.119  24.975 -0.0035 -0.0661 -0.1338
84592W        W85456   8.291  20.476   4.030  0.3143 -0.1613 -0.1535
84593W        W85457  27.773   8.907   9.703  0.3739  0.1198 -0.1385
84594W        W85458   8.487   6.469  23.537 -0.0113  0.0040 -0.0744
84595W        W85459  18.200  26.789  27.460 -0.0493  0.2196 -0.0759
84596W        W85460  21.648   5.964  13.989 -0.1810  0.1008 -0.2810
84597W        W85461  18.586  27.671  22.629 -0.0072  0.2535 -0.1071
84598W        W85462   1.962   2.245  20.586 -0.0056 -0.0854 -0.0377
84599W        W85463  22.061  25.578   1.521 -0.0097  0.2902 -0.0534
84600W        W85464  16.984   5.578  25.815 -0.1280  0.5556  0.0162
84601W        W85465  26.568  28.171  19.529  0.0987 -0.0258  0.0482
84602W        W85466  27.712   5.737  14.636 -0.0876 -0.1132  0.2634
84603W        W85467  18.285   8.008   6.764  0.1450  0.1055  0.1122
84604W        W85468   0.978   7.069  25.125 -0.2455  0.1499 -0.0879
84605W        W85469  11.211  14.424  20.608 -0.2490  0.1068  0.1329
84606W        W85470  18.395   3.970   0.065 -0.0478 -0.2845 -0.1506
84607W        W85471  15.046  10.349  21.549  0.2513 -0.0505  0.0526
84608W        W85472   7.904  18.886  14.771  0.0554 -0.0042 -0.1849
84609W        W85473  20.627  17.198  12.058  0.1036  0.1007 -0.0655
84610W        W85474  16.450  14.510  22.214  0.0884 -0.2467 -0.1016
84611W        W85475  14.405  28.580  18.755 -0.0274  0.1957 -0.1005
84612W        W85476  15.861  11.163   1.283  0.1699 -0.0247 -0.2531
84613W        W85477   1.430  17.355  29.013  0.1087 -0.1765 -0.0274
84614W        W85478   4.162   9.221  13.348 -0.1041 -0.0905 -0.1784
84615W        W85479  24.498  21.091  26.632  0.2819  0.0768 -0.0938
84616W        W85480   3.850   4.107   0.345 -0.1387 -0.4660  0.2509
84617W        W85481  21.777  23.723  19.378 -0.0078  0.2697  0.0426
84618W        W85482  17.590  12.949  24.636  0.4497  0.2147 -0.0078
84619W        W85483   3.144  26.118  22.420 -0.3024 -0.2593 -0.1309
84620W        W85484   5.665   0.687  16.749 -0.2748  0.0088 -0.0308
84621W        W85485   1.366  22.960  23.990  0.2001  0.0748 -0.0931
84622W        W85486  12.751  19.612   3.580  0.3061  0.0606  0.1000
84623W        W85487  25.262  28.444  20.593 -0.1136  0.1090  0.0498
84624W        W85488  22.680  11.292  12.369 -0.4068  0.0391 -0.0558
84625W        W85489   6.625   7.296  17.219  0.1037  0.0597 -0.0340
84626W        W85490  27.070  22.867  19.907  0.2174  0.1489  0.2151
84627W        W85491  15.217  26.768   4.410 -0.0901 -0.0224 -0.2332
84628W        W85492   9.157   9.799   3.075  0.0623  0.0612 -0.0936
84629W        W85493  15.732   7.989  19.738  0.2052  0.1706 -0.0500
84630W        W85494  27.214  21.490  20.117 -0.0711  0.1615  0.0878
84631W        W85495   3.445   3.899  10.225 -0.2167 -0.1109  0.0590
84632W        W85496  27.133  20.766  25.708 -0.1618  0.0113 -0.1501
84633W        W85497  18.827  14.628  20.477  0.1297  0.0594 -0.2629
84634W        W85498  17.358   1.363   1.512 -0.2074 -0.1034 -0.0904
84635W        W85499  28.796  21.855  17.451 -0.1177 -0.1108 -0.1612
84636W        W85500  28.974  13.218   2.110  0.3144  0.0719 -0.0364
84637W        W85501  26.833  11.866  20.266  0.0362  0.0790 -0.2272
84638W        W85502   8.598  27.747   9.736  0.0099  0.0040 -0.1647
84639W        W85503   0.792   8.756  12.782 -0.0316  0.3853  0.0541
84640W        W85504  16.678   9.975  15.190  0.3317  0.2121 -0.1485
84641W        W85505  27.938  22.660   5.068  0.1097 -0.0331 -0.3800
84642W        W85506  15.433  15.230  10.743 -0.0547 -0.2968  0.2670
84643W        W85507  27.778   0.260  14.450  0.0934  0.1046 -0.1559
84644W        W85508  22.627  14.611  27.940  0.1332  0.2447  0.1947
84645W        W85509   8.215  24.304  13.909  0.0782 -0.2386  0.2491
84646W        W85510   4.911  18.808   0.942 -0.2145 -0.3089  0.0541
84647W        W85511   6.444  23.037  21.240  0.0099 -0.1788  0.0656
84648W        W85512  16.374  24.385  28.764 -0.1954 -0.1574  0.1442
84649W        W85513  23.255   8.952  19.657 -0.0182 -0.2204  0.2637
84650W        W85514  13.276  28.664  24.598 -0.0600 -0.2152 -0.3620
84651W        W85515  13.116  22.461  23.115 -0.0821  0.2158  0.0591
84652W        W85516  17.914   4.479  17.599 -0.1435 -0.1362  0.0433
84653W        W85517  23.284   9.039   8.791 -0.1490  0.2562 -0.0911
84654W        W85518  15.447   7.672  20.205 -0.2430  0.2642  0.0777
84655W        W85519  16.417  21.091  19.629 -0.1830  0.2986  0.0057
84656W        W85520  25.181  22.487  18.758 -0.0386  0.1973 -0.1563
84657W        W85521  13.728  19.654   7.888  0.1118 -0.0695 -0.0089
84658W        W85522  11.109  20.120  22.526 -0.0348 -0.1777  0.2655
84659W        W85523  15.202  16.956  28.417 -0.1153  0.0762 -0.0934
84660W        W85524  15.785  21.585   9.924  0.0325  0.2297  0.3478
84661W        W85525   7.319  11.784  10.870  0.1528 -0.1849  0.0282
84662W        W85526  16.389  19.595  22.224  0.4566  0.1119 -0.1286
84663W        W85527  18.947   7.149  16.492  0.0530  0.0564 -0.1634
84664W        W85528  26.338   3.393  20.686  0.0068  0.2286  0.1744
84665W        W85529  13.507  25.669  20.216 -0.2011  0.0181  0.1529
84666W        W85530   0.546  23.760  10.095  0.0669 -0.0527  0.2387
84667W        W85531   3.979  22.564  14.842 -0.2849 -0.1025  0.0401
84668W        W85532  15.464   8.802  17.403  0.0729  0.1002 -0.3292
84669W        W85533  28.895   7.033   1.967 -0.1579 -0.0870 -0.0108
84670W        W85534  13.887  26.244  25.309 -0.2303 -0.1616 -0.2355
84671W        W85535   1.066   4.973  16.241 -0.0886 -0.0758  0.1163
84672W        W85536   4.870   9.780   5.953  0.1008  0.1193  0.3087
84673W        W85537   6.668   3.628  24.055  0.1725 -0.1457  0.0549
84674W        W85538   5.100   7.358  24.679 -0.3992 -0.1806  0.2903
84675W        W85539  17.590   4.647  15.450  0.0522 -0.1511 -0.1796
84676W        W85540  25.854  19.214  23.376 -0.1426 -0.2616 -0.0966
84677W        W85541   4.946   9.988   6.488  0.2700 -0.2320 -0.0302
84678W        W85542  22.825   7.022  13.576 -0.1096 -0.0410  0.2879
84679W        W85543  28.614  12.274  13.303 -0.2775 -0.0289  0.2100
84680W        W85544   8.371  25.865  22.200 -0.1382  0.0001  0.2653
84681W        W85545   9.748  21.852  29.005  0.0896 -0.2238 -0.2515
84682W        W85546  28.494   6.254   7.348  0.0766 -0.0540  0.2038
84683W        W85547  20.372   5.753   0.447 -0.1598 -0.1083 -0.2028
84684W        W85548   8.756   9.499   0.940  0.1504  0.2676  0.0289
84685W        W85549  15.032   9.686  20.696 -0.1130 -0.1735 -0.2466
84686W        W85550  27.693   7.651  24.523 -0.1402 -0.0706 -0.0520
84687W        W85551  20.610   8.557  26.466  0.3141  0.1919  0.0950
84688W        W85552   3.142  22.048  17.038  0.2871 -0.1358 -0.1934
84689W        W85553  11.066  19.426  17.294 -0.0673 -0.0444  0.2303
84690W        W85554   5.890   4.551  13.218  0.0652  0.2267  0.1351
84691W        W85555  11.903  25.183  28.894 -0.0504 -0.0565 -0.0220
84692W        W85556  28.537   5.026  28.018  0.1771 -0.0773  0.2035
84693W        W85557  18.923  26.231  20.865 -0.1644 -0.2185  0.2837
84694W        W85558  22.134  13.086  14.201  0.4121 -0.2238 -0.0414
84695W        W85559  21.728  11.999  16.133  0.1789  0.0498 -0.2670
84696W        W85560  25.860  19.081   1.504 -0.0386 -0.1212  0.1554
84697W        W85561   7.962   6.900  16.375  0.0896 -0.1470 -0.2803
84698W        W85562  21.101   2.922  21.501  0.0714 -0.3027 -0.0935
84699W        W85563  15.404   5.290  14.809  0.0580 -0.3178  0.1484
84700W        W85564  21.641   1.958   8.402  0.0924  0.0450  0.0061
84701W        W85565  17.954  16.576   4.644 -0.1566  0.0449  0.1611
84702W        W85566  27.812  28.821   9.320 -0.2134  0.3025 -0.1124
84703W        W85567   2.098  12.037   9.268 -0.0728 -0.0241  0.1447
84704W        W85568  28.572  13.753   2.387 -0.1938 -0.1433 -0.1197
84705W        W85569  23.018   2.934   9.184  0.0143 -0.1030  0.1423
84706W        W85570  17.022   2.353   1.318  0.1145  0.1084 -0.2608
84707W        W85571   2.752  19.796   6.230 -0.3178  0.2328 -0.0489
84708W        W85572   4.733  11.878  13.830 -0.1504  0.0912 -0.2152
84709W        W85573   8.997   5.249  21.367  0.0754 -0.2625 -0.0585
84710W        W85574  13.311  28.639  15.883  0.1230  0.0155  0.0554
84711W        W85575  11.558  25.113  24.448 -0.0108 -0.2688  0.2316
84712W        W85576  15.167  28.770  21.814 -0.0296 -0.0854  0.1467
84713W        W85577   4.872  16.360  17.026 -0.4188  0.2416  0.1317
84714W        W85578  19.563  13.672  27.024  0.0728  0.0207 -0.1119
84715W        W85579   8.555  12.913   4.227  0.2093  0.0883 -0.2036
84716W        W85580  15.433  15.390   9.726 -0.0152 -0.2923 -0.2425
84717W        W85581   5.680   6.574   0.586 -0.1265  0.0294  0.3381
84718W        W85582  28.657  20.461  18.800  0.4872  0.0852  0.0592
84719W        W85583  26.829  18.124   2.390  0.3307  0.0960  0.2415
84720W        W85584   1.888   7.681  10.458  0.0947  0.1207 -0.0237
84721W        W85585  14.017   5.939  23.427  0.0705  0.0298 -0.4474
84722W        W85586  20.849   8.793  21.924  0.3980  0.1238 -0.1568
84723W        W85587  20.930   2.394  15.590  0.2680 -0.1347  0.0167
84724W        W85588  11.949   0.958  21.733 -0.2576  0.2758  0.1121
84725W        W85589   6.356   7.121  14.893 -0.2749  0.0464 -0.0406
84726W        W85590  15.195  28.474  10.989  0.0359 -0.2851 -0.2611
84727W        W85591  28.638  11.728  20.071 -0.0520 -0.0349  0.1376
84728W        W85592   4.621  20.016   7.210 -0.2475 -0.2332 -0.0448
84729W        W85593  15.750   8.573  26.632 -0.1574 -0.0894 -0.0881
84730W        W85594  16.515  14.433  10.846  0.0808  0.1690 -0.1526
84731W        W85595  16.181   6.705  14.566 -0.0574 -0.0303 -0.4689
84732W        W85596  15.571   5.907   2.547  0.2009  0.1949  0.0939
84733W        W85597  23.299  11.542  16.689 -0.0795  0.1688  0.1636
84734W        W85598  28.842   0.943  22.927  0.0042  0.0195 -0.2090
84735W        W85599  21.715  28.166  21.139 -0.4571 -0.4245  0.2679
84736W        W85600  19.776   5.101  23.200  0.2325  0.2648 -0.1169
84737W        W85601  24.618   7.314  25.223  0.0467 -0.0126 -0.0277
84738W        W85602  27.767  25.396  15.987 -0.0524  0.2210 -0.2024
84739W        W85603  20.670   7.701  21.876 -0.1877 -0.3555 -0.3004
84740W        W85604   8.966  23.770  12.449  0.1086  0.1132  0.1322
84741W        W85605   1.730   2.869  13.315 -0.0800 -0.0468 -0.0510
84742W        W85606  28.229  20.539  25.038  0.0947 -0.1139 -0.0006
84743W        W85607  15.184   0.541  21.324  0.0882 -0.0985 -0.0510
84744W        W85608  19.905   2.713   4.931 -0.1638 -0.0622  0.0147
84745W        W85609  15.915  23.596  24.854  0.0845  0.1268 -0.2228
84746W        W85610   1.236   4.467  18.221  0.2439  0.2055 -0.0904
84747W        W85611  19.020   8.792  11.598  0.0913 -0.0199  0.0524
84748W        W85612  15.144  20.338   5.655  0.0307 -0.0903  0.2452
84749W        W85613  26.560  25.692   5.284 -0.1905  0.1007 -0.1323
84750W        W85614   6.181  14.205  27.420  0.0464 -0.0168  0.2869
84751W        W85615  17.005   0.348  11.405  0.2595  0.0445  0.1430
84752W        W85616  15.464  11.568  22.028 -0.0981 -0.1351 -0.2210
84753W        W85617  27.613  11.638   2.584 -0.3066 -0.0118  0.2180
84754W        W85618  12.375  25.071  27.044 -0.1576  0.0605 -0.1611
84755W        W85619  16.707  14.104   8.817  0.0857  0.1461 -0.2344
84756W        W85620   3.305   7.317  16.577 -0.1233 -0.0466 -0.0435
84757W        W85621  24.697  21.904  28.305  0.0297 -0.1966  0.3592
84758W        W85622  17.649   9.797   1.425 -0.0750 -0.0460  0.0751
84759W        W85623  20.092   5.811  21.821 -0.1737 -0.0474  0.2032
84760W        W85624  23.354  26.900  25.363 -0.0116  0.0712 -0.0596
84761W        W85625  18.685  10.077  22.775  0.3248  0.3152  0.2788
84762W        W85626  27.785  18.353   5.668 -0.1381  0.1099  0.2358
84763W        W85627  28.008   7.451   7.182  0.1143 -0.2825 -0.0478
84764W        W85628   3.985  11.419  15.628 -0.0254  0.1849  0.0463
84765W        W85629  28.926  26.516  14.716 -0.1294 -0.0033 -0.0638
84766W        W85630  23.125  21.825  10.815  0.4809 -0.2072 -0.0994
84767W        W85631  26.879  28.448  22.612 -0.3372 -0.1678 -0.1776
84768W        W85632   4.161  24.694  13.482  0.0520 -0.1604  0.0116
84769W        W85633  21.579   7.855  16.180 -0.1939  0.2687 -0.2468
84770W        W85634  22.027   6.849  27.777 -0.2646  0.0372  0.1077
84771W        W85635  28.876  18.319  24.509  0.0546  0.0659 -0.1583
84772W        W85636  16.693  17.054  15.710 -0.1819  0.0080  0.0264
84773W        W85637  26.284  21.597  17.137 -0.1231  0.2598  0.0418
84774W        W85638   4.402  15.031   8.904  0.2046  0.0753  0.0751
84775W        W85639   8.009   7.090  10.409  0.3008  0.1945  0.0306
84776W        W85640   8.267   7.128  14.970  0.0850 -0.1628 -0.4455
84777W        W85641  13.559  26.491  14.996  0.4209  0.2357  0.0119
84778W        W85642   5.835   5.408  13.921  0.1033  0.1722  0.0080
84779W        W85643  24.403  25.179  25.349 -0.0754 -0.0223  0.0184
84780W        W85644  15.520   4.064  10.574  0.0788 -0.1101  0.0349
84781W        W85645   9.402  26.203   4.047 -0.2252  0.0591 -0.1068
84782W        W85646   5.076   9.676  20.569  0.1750 -0.1385  0.2306
84783W        W85647   0.396   5.024   9.943  0.0403 -0.3831 -0.1659
84784W        W85648  13.727   1.132  12.697  0.2390 -0.1997 -0.0393
84785W        W85649   7.803  26.016  10.985 -0.2264  0.0952  0.0664
84786W        W85650  17.869   2.088   5.814  0.0236  0.2295  0.3536
84787W        W85651  27.414  27.211  19.713  0.1512 -0.2206 -0.0874
84788W        W85652  20.638   5.344  17.796 -0.1032 -0.0167 -0.0393
84789W        W85653  10.135  22.189  15.731  0.0005 -0.0532 -0.2951
84790W        W85654  27.058  17.398  12.267  0.2404 -0.3590  0.0519
84791W        W85655   3.287   2.677   4.254 -0.1250 -0.1911 -0.1607
84792W        W85656  22.095  18.960  18.526 -0.0830 -0.1063  0.1879
84793W        W85657  10.250  21.501  18.501  0.0595  0.2082 -0.3932
84794W        W85658   8.143  20.054   5.726  0.1242 -0.0303 -0.1143
84795W        W85659  24.295   2.199  13.430 -0.0108  0.0162 -0.2150
84796W        W85660  11.029  18.203   2.945 -0.0523  0.0843 -0.1373
84797W        W85661  16.671  18.857  20.181 -0.0507  0.0621 -0.1554
84798W        W85662   5.227   8.443  13.510 -0.2005  0.0541 -0.1872
84799W        W85663   8.319  10.781  13.757  0.1139 -0.1017 -0.1831
84800W        W85664  24.918   9.912  23.997  0.0374  0.1067 -0.0779
84801W        W85665  25.849  17.801  18.496 -0.0559 -0.0691  0.0350
84802W        W85666  14.463  13.415   3.131 -0.3482 -0.1925  0.0523
84803W        W85667   2.558  15.465  28.250 -0.3578 -0.0582  0.3029
84804W        W85668   5.999  25.127   1.365 -0.1318 -0.2280  0.3974
84805W        W85669  21.746  13.794  10.250  0.0215 -0.2248  0.2376
84806W        W85670   2.009   7.128   2.865 -0.1000 -0.2025  0.1887
84807W        W85671   1.668  15.876  23.110 -0.2002  0.2274  0.1086
84808W        W85672   6.659   2.666  21.961  0.1194  0.0795 -0.2681
84809W        W85673   3.789  24.898  18.159 -0.3041 -0.2214 -0.0427
84810W        W85674  15.185   5.349  11.656  0.3568  0.1668  0.2932
84811W        W85675  19.731  13.113   0.250  0.1866  0.1246  0.1635
84812W        W85676   1.688  15.853   4.910  0.0138  0.2632  0.0614
84813W        W85677   7.806  11.872  25.909  0.0080  0.2814  0.2264
84814W        W85678  23.019  23.898  17.160 -0.0125 -0.0991 -0.0146
84815W        W85679  21.385  13.054   3.308  0.1173 -0.2919 -0.1926
84816W        W85680  25.599  23.481   5.335  0.1186 -0.0259 -0.1263
84817W        W85681  24.672  16.526  22.748  0.0874 -0.0766 -0.0526
84818W        W85682   0.840   6.486  25.553 -0.1291 -0.0797  0.0657
84819W        W85683   3.176  21.985  19.497 -0.1442  0.0745 -0.2207
84820W        W85684   5.792   9.089  28.904 -0.1904 -0.1082 -0.1473
84821W        W85685  14.391  28.101  22.326 -0.0585 -0.4453  0.1239
84822W        W85686   8.784  17.711   7.968  0.1908  0.0393  0.2619
84823W        W85687  26.849   4.806  21.298  0.4141  0.0198 -0.0423
84824W        W85688  23.311   7.797  18.987  0.0525  0.0544 -0.0149
84825W        W85689  15.519   6.087  23.506  0.1671 -0.1961 -0.0565
84826W        W85690   2.457  10.240   2.408 -0.1514 -0.3397 -0.0446
84827W        W85691   8.484   7.678  25.843 -0.1618  0.0534  0.0211
84828W        W85692   9.354   3.607  21.535 -0.0020 -0.0573 -0.0040
84829W        W85693  24.514   6.608  20.718 -0.2827 -0.2206  0.0835
84830W        W85694   3.879   5.687  17.894 -0.0973  0.1894 -0.1301
84831W        W85695  16.539   5.810  13.397  0.1992  0.2415 -0.0089
84832W        W85696   0.227   1.362  19.154  0.1375  0.0097  0.0425
84833W        W85697   1.585  16.607   0.202  0.2036  0.0817  0.1428
84834W        W85698  16.707   7.027   4.328  0.3046 -0.2673  0.0138
84835W        W85699   1.127  17.549  17.671 -0.1671  0.1266 -0.1382
84836W        W85700  23.660  26.996   2.390  0.0945  0.0984  0.3042
84837W        W85701   7.926  27.631   3.200 -0.1196 -0.0011 -0.0855
84838W        W85702  27.806  21.458  21.635 -0.0632  0.1021  0.0888
84839W        W85703  12.325  12.103  15.634  0.1591 -0.2735  0.2400
84840W        W85704   2.703   3.182  26.026  0.1366 -0.0382 -0.2755
84841W        W85705   3.440  16.541   4.262 -0.1748 -0.0994 -0.0328
84842W        W85706  10.193   0.893   2.104 -0.1023  0.1014  0.0151
84843W        W85707   0.274  19.998  12.931  0.1896 -0.1900 -0.0085
84844W        W85708  23.863  23.163   5.888  0.3079 -0.0230  0.1083
84845W        W85709  18.603   9.531  27.893 -0.0034  0.2014 -0.0389
84846W        W85710  19.975   6.400  19.867  0.1579  0.0901 -0.1117
84847W        W85711  21.541   4.866  24.453 -0.0631 -0.0844 -0.0710
84848W        W85712   9.071  11.302  24.029  0.2237 -0.0349 -0.0302
84849W        W85713   2.989   7.144  10.925  0.1366 -0.0494 -0.1131
84850W        W85714  13.987  13.191  22.968  0.4598 -0.1264 -0.1941
84851W        W85715  28.471  13.588  25.972 -0.1577  0.3831 -0.1120
84852W        W85716  21.051  10.085  28.257  0.1209 -0.0300 -0.3865
84853W        W85717   2.760  23.771   0.801  0.1678  0.0099  0.0297
84854W        W85718   8.448   8.543  25.984 -0.0055 -0.0022  0.1283
84855W        W85719   0.490  21.409   3.329  0.2980 -0.2601  0.1935
84856W        W85720  23.932  25.364  26.087 -0.1439 -0.1938  0.0184
84857W        W85721   7.914  12.254  23.146 -0.0818 -0.2407  0.1465
84858W        W85722  28.179  16.961   4.895  0.0273 -0.0033 -0.0625
84859W        W85723  15.118  12.139  22.960 -0.1399  0.0092 -0.1572
84860W        W85724  22.954   2.156  28.111  0.1660  0.0740 -0.2200
84861W        W85725  22.806   4.647   9.379 -0.2981  0.0063  0.1820
84862W        W85726  26.221   4.932  13.565 -0.1331  0.1811 -0.0792
84863W        W85727   0.229   4.488  16.795  0.5105  0.1485  0.1431
84864W        W85728   7.563  10.520   7.493 -0.0545  0.4533  0.0168
84865W        W85729   8.425  16.187  15.485  0.2463  0.2533  0.2062
84866W        W85730   8.850   8.783   4.228  0.0051 -0.1594 -0.1615
84867W        W85731  13.635  13.089  23.809  0.0014  0.2155  0.0092
84868W        W85732  17.956  13.067   4.093  0.2024  0.1000 -0.1199
84869W        W85733  16.018   8.087   2.417  0.2799  0.0243 -0.2768
84870W        W85734   2.407  27.810  18.762 -0.0533 -0.1708 -0.2912
84871W        W85735   4.060   2.353  26.947  0.1879  0.1162  0.0990
84872W        W85736  11.830   3.355   7.846 -0.3211 -0.1159  0.1943
84873W        W85737  16.894  13.955  19.354  0.1027  0.2613  0.0217
84874W        W85738  23.920  21.276  28.981 -0.1900 -0.3115 -0.1580
84875W        W85739  23.362   6.979  14.441  0.0350 -0.1194  0.2675
84876W        W85740  15.686  26.446   5.199 -0.1327 -0.2000  0.1972
84877W        W85741   8.387  17.406   4.459  0.1991 -0.1456 -0.0090
84878W        W85742  29.010  14.526   0.820  0.2076 -0.2954  0.2353
84879W        W85743  26.906  25.325   5.492 -0.1720  0.0993  0.0787
84880W        W85744  16.766  17.852  22.487  0.1715 -0.1770  0.0102
84881W        W85745  25.360  13.541   0.994 -0.0963  0.1010  0.1313
84882W        W85746   0.876   1.116  14.040 -0.5910 -0.1901 -0.0523
84883W        W85747  14.947  27.990   0.143  0.2853 -0.1439  0.2171
84884W        W85748  18.263  10.749  21.898  0.0756 -0.0686 -0.0846
84885W        W85749  17.378  13.067  11.794 -0.3200 -0.2841  0.1409
84886W        W85750   5.955  24.983  15.902  0.0684 -0.3142  0.2120
84887W        W85751  27.260  21.212  26.359 -0.2392 -0.1687  0.2348
84888W        W85752   5.335   0.174  27.321 -0.1165  0.3095  0.1501
84889W        W85753  10.172   7.062   3.537 -0.0913  0.1025 -0.1546
84890W        W85754   5.688  16.712  23.417 -0.0207  0.0472  0.0785
84891W        W85755  24.091  14.342  24.365  0.0526  0.1048 -0.0743
84892W        W85756  19.414  22.630  23.451  0.2628 -0.2139  0.3044
84893W        W85757  24.294   5.517  17.947  0.1510 -0.3258 -0.0102
84894W        W85758  17.257  12.194   0.025  0.0086 -0.1517 -0.0320
84895W        W85759  22.374  24.144  19.546 -0.0488  0.1586  0.0166
84896W        W85760  23.278   1.522  13.676  0.3478  0.3321 -0.0065
84897W        W85761  21.938   0.458  28.317 -0.0313 -0.0057 -0.2061
84898W        W85762   1.575  21.625  19.057  0.2234 -0.1216 -0.0574
84899W        W85763  25.351  27.997  25.737  0.1944  0.2068  0.0154
84900W        W85764  20.237  14.869  27.366  0.1799  0.0131  0.0294
84901W        W85765  13.137   0.315  15.877  0.0888 -0.0305 -0.1111
84902W        W85766   5.231  17.530  11.028  0.1358 -0.2627 -0.0993
84903W        W85767  22.437  14.912  24.645  0.2114  0.0412 -0.0334
84904W        W85768   1.906  13.777   2.067 -0.2172  0.0133  0.3097
84905W        W85769  18.574   2.227  13.128 -0.1880 -0.0291 -0.0047
84906W        W85770  11.238   1.975  20.828  0.0389  0.1217 -0.0023
84907W        W85771  18.894  17.004   5.473  0.0070 -0.0428 -0.0395
84908W        W85772  29.122   6.138  22.954  0.1502  0.0817  0.0673
84909W        W85773   2.757  16.839  28.810  0.1391  0.1981  0.0648
84910W        W85774  11.212   6.387  24.583  0.0710  0.2254 -0.2173
84911W        W85775   4.387  28.765  24.100  0.1944  0.2660  0.2237
84912W        W85776  28.310  24.188  26.451  0.1221 -0.1423  0.1366
84913W        W85777  25.099  18.224  24.402  0.1617 -0.0009 -0.2355
84914W        W85778  16.503  13.828   7.511  0.3070  0.0004 -0.0367
84915W        W85779  11.138  28.578  14.714 -0.0681 -0.0066 -0.0057
84916W        W85780   9.534   4.980  18.664  0.2529 -0.1010 -0.0322
84917W        W85781  17.050  17.430   4.334 -0.0045  0.3529  0.2534
84918W        W85782  15.438  11.616   6.609 -0.0294 -0.0369 -0.3120
84919W        W85783  21.959   2.323   6.801 -0.1328 -0.0974  0.2004
84920W        W85784  24.879   2.748  18.039  0.1171 -0.5275 -0.1094
84921W        W85785  26.992   5.262  17.098 -0.1858 -0.2835  0.2787
84922W        W85786   8.836   7.178  11.650  0.0378  0.0076  0.2368
84923W        W85787  28.744   5.675  23.835 -0.1874  0.2402  0.1289
84924W        W85788  12.168  27.327  23.338  0.1945  0.3582 -0.0628
84925W        W85789   4.242   3.840  19.155  0.0456 -0.0464 -0.0319
84926W        W85790   2.348  12.444  20.296  0.2183 -0.2796  0.0042
84927W        W85791  12.220  20.046  17.367  0.0608  0.2020  0.0229
84928W        W85792  12.470   3.478  15.675  0.4067  0.0267  0.0879
84929W        W85793   4.614  16.910  11.277 -0.3157  0.1499 -0.0388
84930W        W85794  25.366  17.620  18.460  0.1234 -0.1402  0.0393
84931W        W85795  21.713  10.637  25.288 -0.1096 -0.0761  0.2793
84932W        W85796  25.768  27.494   1.566 -0.2201 -0.1629  0.0242
84933W        W85797  15.533   9.679  24.715 -0.2212  0.0688 -0.2350
84934W        W85798  13.153  10.451   1.653  0.1804  0.0676 -0.0512
84935W        W85799  20.831   1.056   8.943 -0.0914 -0.1517  0.0383
84936W        W85800  17.891   7.022  21.640 -0.0599 -0.1065  0.0052
84937W        W85801  19.424  14.601   5.498 -0.1332  0.1693 -0.3704
84938W        W85802  25.833   9.805   8.117 -0.1705  0.3221  0.1658
84939W        W85803  23.251  19.575   9.105  0.1644  0.1022 -0.0974
84940W        W85804  26.361  19.199  23.653  0.0520  0.2889  0.5609
84941W        W85805   2.107  22.872  25.489 -0.0199  0.0871  0.1531
84942W        W85806   0.669   0.808  15.032  0.2136  0.0990 -0.0239
84943W        W85807  17.956   3.910   4.684  0.1323 -0.1420 -0.1186
84944W        W85808   5.761  12.985  18.478 -0.5024 -0.0427 -0.1354
84945W        W85809  23.324   4.373   3.497  0.0641 -0.0740 -0.1421
84946W        W85810   1.830   2.060   1.667 -0.1065  0.0160  0.0280
84947W        W85811   7.445   8.058   2.123  0.0138 -0.0841  0.0225
84948W        W85812   0.187   3.621  16.454 -0.0942 -0.3193 -0.1105
84949W        W85813   9.689  26.070   2.642  0.0117 -0.0805 -0.0327
84950W        W85814  20.215  28.077  10.049 -0.2465  0.2266  0.1833
84951W        W85815   1.500   4.860  20.688  0.2085  0.0250  0.1977
84952W        W85816  12.117  24.533  27.173  0.0392  0.0697  0.0565
84953W        W85817  17.816  25.970  25.655  0.2025 -0.1659 -0.1209
84954W        W85818  24.835  11.229  25.368 -0.0548 -0.0025  0.2013
84955W        W85819  10.133   6.275  14.127 -0.1466 -0.2518  0.3011
84956W        W85820  23.599  19.238   6.653 -0.1820 -0.0733 -0.1812
84957W        W85821   7.302  14.717  16.101  0.1004 -0.0506  0.1353
84958W        W85822  16.384  25.433  23.753 -0.1917  0.2989  0.1470
84959W        W85823  24.828   0.826  24.183 -0.0800  0.0559  0.0543
84960W        W85824   6.045   7.688  21.414  0.1039 -0.0481  0.3060
84961W        W85825  22.957   8.938  11.375 -0.1627  0.1225 -0.1598
84962W        W85826  18.389  18.377  16.878  0.1682  0.3373 -0.1632
84963W        W85827  14.747  20.194  14.687  0.1460  0.0880 -0.0175
84964W        W85828  16.993  10.417  24.941  0.1219 -0.1448  0.1060
84965W        W85829   2.352  20.026   4.099 -0.0006  0.0494 -0.1512
84966W        W85830   5.104  20.024  25.301  0.1336  0.1614 -0.1392
84967W        W85831   3.353   6.104  12.330 -0.4141  0.0738  0.0446
84968W        W85832   5.700   2.688  14.565 -0.0140 -0.1880  0.0574
84969W        W85833  19.339  15.038  12.531  0.2825  0.4867  0.2628
84970W        W85834   9.826   0.257  16.849  0.2890 -0.0754  0.1537
84971W        W85835   6.703  17.456  20.561 -0.1309  0.1668  0.0120
84972W        W85836   4.757  20.804  28.575 -0.0762  0.1150  0.0557
84973W        W85837  29.057   2.990  17.595 -0.0414  0.0448  0.1318
84974W        W85838  24.429   7.520  17.455  0.1096 -0.0016 -0.0106
84975W        W85839   4.908  16.797  24.189 -0.3439 -0.1151 -0.0783
84976W        W85840  24.375  25.603   7.737 -0.0163  0.2173 -0.0182
84977W        W85841  23.463  15.017  18.361 -0.3074 -0.3518  0.3973
84978W        W85842  22.728   5.902  11.456 -0.0751 -0.0424 -0.3443
84979W        W85843   1.659   8.758  22.877  0.3221  0.0137 -0.1454
84980W        W85844  13.602  15.799  18.717 -0.2748  0.1661 -0.0140
84981W        W85845  16.660  15.219  25.022  0.2145  0.4731  0.1756
84982W        W85846  12.811   8.989  20.082  0.0466 -0.2238  0.2390
84983W        W85847  14.551  17.897  14.156  0.0004  0.1209  0.4964
84984W        W85848  25.883  23.634   3.166  0.0871  0.2238 -0.0286
84985W        W85849  11.498   4.083  28.038 -0.0712 -0.0803  0.0145
84986W        W85850  11.927  21.007  25.157  0.2103  0.0703  0.2664
84987W        W85851   2.480   4.078  14.218 -0.1458 -0.1375  0.1719
84988W        W85852  10.502  22.046  10.196  0.1997 -0.1085 -0.0488
84989W        W85853  28.021  15.092  17.068  0.1537  0.0775 -0.2142
84990W        W85854  19.099  25.934   0.805 -0.1097  0.0433  0.0531
84991W        W85855  25.287  20.409   0.233  0.0503  0.0014  0.0056
84992W        W85856   1.006  14.399  14.329  0.4006  0.3012  0.1664
84993W        W85857  21.128  14.706  14.464  0.3888 -0.1735 -0.0150
84994W        W85858  11.508  21.536  26.551  0.0622  0.2657 -0.2291
84995W        W85859  14.910   6.577   2.447  0.0078 -0.0087 -0.1155
84996W        W85860  23.664   5.737  16.505 -0.1163  0.0321 -0.1791
84997W        W85861   0.794   9.702  17.809  0.2754 -0.2096 -0.0071
84998W        W85862  14.268   6.063  24.271 -0.0431  0.2598 -0.0374
84999W        W85863  17.087  12.914   4.722 -0.0204 -0.0700  0.2653
85000W        W85864  27.099  18.014  12.949  0.2917 -0.1055 -0.1514
85001W        W85865   0.957  20.388  25.805 -0.2286 -0.1772 -0.1433
85002W        W85866   0.074   8.766  24.588 -0.2869 -0.1706 -0.1639
85003W        W85867   1.323   5.146  17.894  0.1373 -0.0261  0.1100
85004W        W85868  23.291   9.137  25.277 -0.0356 -0.0499  0.1005
85005W        W85869  22.659  15.231  19.578 -0.4526  0.1489  0.1466
85006W        W85870  14.345  13.295   5.042  0.2296  0.0203  0.1454
85007W        W85871  19.604  24.960  21.064 -0.1808  0.0302 -0.0136
85008W        W85872  19.879  12.593   9.455 -0.0966  0.2416  0.0855
85009W        W85873   1.122  24.042  11.967 -0.0517 -0.1794  0.0068
85010W        W85874  17.952   0.333  27.623 -0.0990 -0.1721 -0.0546
85011W        W85875  22.424   4.395   1.843  0.2800  0.0884 -0.2443
85012W        W85876  13.416  24.918  23.642 -0.1767  0.1646  0.1760
85013W        W85877  23.705   7.119  14.798 -0.5209  0.1490 -0.0903
85014W        W85878  23.919  10.718  18.552  0.0067 -0.1484 -0.3152
85015W        W85879  22.401   3.409  13.544  0.2075  0.0749  0.0829
85016W        W85880  21.441  16.069  22.338 -0.0407  0.2489 -0.2014
85017W        W85881  11.009   5.488  27.662  0.2347 -0.1049  0.2614
85018W        W85882  26.050  28.919  10.075 -0.1151  0.2159 -0.0160
85019W        W85883  25.956  17.184   0.516 -0.0872  0.0074 -0.1744
85020W        W85884  21.516   4.824  22.386  0.1204  0.2014  0.2304
85021W        W85885  19.275  28.259  17.133  0.2013  0.1771 -0.1138
85022W        W85886   2.931   0.128  24.440  0.3236  0.0402 -0.2338
85023W        W85887   6.966   9.713  27.314  0.0433 -0.0048 -0.2126
85024W        W85888   6.213   4.191  12.337  0.2159 -0.0329  0.0663
85025W        W85889   0.447  23.693  19.157 -0.1585  0.0319  0.1586
85026W        W85890  18.939   4.791  16.798  0.4309 -0.0613  0.1159
85027W        W85891   0.707   9.152  14.598  0.2916  0.0333  0.3183
85028W        W85892  20.857  10.581  21.605 -0.2280 -0.0064  0.4039
85029W        W85893   9.251  25.398   4.546  0.1665  0.2125 -0.2912
85030W        W85894  28.862   3.501  27.948  0.2823 -0.1877 -0.1672
85031W        W85895  28.859  23.002  28.550  0.0371  0.1290  0.0160
85032W        W85896  24.534  17.967   9.101  0.0857 -0.0143 -0.3084
85033W        W85897   4.579  16.505  28.498 -0.2947  0.1024 -0.0157
85034W        W85898  23.060  25.367   3.924  0.2392  0.0189  0.1072
85035W        W85899  14.963  15.034  20.321  0.3819  0.0615  0.0613
85036W        W85900  21.097  17.314  19.569 -0.2369 -0.1746  0.0037
85037W        W85901  18.399   9.313  15.657  0.1262  0.1275  0.5467
85038W        W85902  10.587  22.205  24.067  0.0322 -0.1671 -0.1922
85039W        W85903  12.055  10.346  18.980  0.0483  0.2171 -0.2288
85040W        W85904   4.659  23.023  13.928 -0.1832 -0.1404 -0.0114
85041W        W85905  19.054  13.685  27.841 -0.2987 -0.1390 -0.1017
85042W        W85906   1.022   6.466  16.813 -0.0122  0.1533  0.2176
85043W        W85907  28.442  11.746  18.559 -0.2083  0.1947  0.0448
85044W        W85908  11.604   8.809  15.130 -0.0208 -0.0158 -0.1337
85045W        W85909  28.009  12.459  19.127 -0.0670 -0.1482 -0.1385
85046W        W85910  18.885   7.675   1.265 -0.0905  0.2457  0.3055
85047W        W85911   3.288   4.834  27.710 -0.0721 -0.1452 -0.1780
85048W        W85912  22.066  18.322   1.943 -0.0210  0.2167 -0.1863
85049W        W85913   0.135  28.771  28.575  0.1119 -0.0536 -0.2681
85050W        W85914  17.489  26.225  14.542  0.0696 -0.3125 -0.1125
85051W        W85915   4.233  23.913  26.048  0.0417 -0.2048  0.1504
85052W        W85916  26.175  27.422  27.624  0.1365  0.2623  0.1744
85053W        W85917   8.422  28.087  13.652  0.2022 -0.3651 -0.0399
85054W        W85918  27.396   6.733   0.720 -0.2725  0.1084 -0.1402
85055W        W85919   3.816  14.248  23.200 -0.0419 -0.0595  0.1772
85056W        W85920  16.734  20.492  19.001  0.0920  0.0846  0.0842
85057W        W85921  16.826  20.025  21.023  0.2448 -0.1775 -0.1897
85058W        W85922  27.984  21.707  28.564  0.0570 -0.0546 -0.2171
85059W        W85923   4.832  13.128  14.207 -0.2029  0.1455  0.2840
85060W        W85924  21.533  22.036  10.187  0.3845  0.0263  0.0439
85061W        W85925  21.613   2.537  20.622  0.2745  0.3709 -0.1613
85062W        W85926  17.138  14.962  23.838  0.3008  0.3746 -0.2699
85063W        W85927   3.646  10.866  15.069 -0.0736 -0.1425 -0.0831
85064W        W85928   8.233   2.911  20.444  0.1354 -0.1554  0.2129
85065W        W85929  14.612  24.332  19.508  0.0202  0.2738 -0.1358
85066W        W85930  17.388  26.342   3.947  0.0328  0.0319  0.2063
85067W        W85931  11.017  22.324   2.287  0.2143 -0.0189 -0.2476
85068W        W85932  21.346  17.660   1.511 -0.1409 -0.0314 -0.2648
85069W        W85933   2.216   0.656  20.885 -0.2134  0.1002 -0.0331
85070W        W85934  23.679   7.732   7.346 -0.4578 -0.1205 -0.1251
85071W        W85935  14.347  13.041  26.123 -0.2279 -0.0650  0.0686
85072W        W85936   5.972  28.491   5.740  0.0237  0.0774 -0.0442
85073W        W85937   3.036   5.689  15.728 -0.0160 -0.1147  0.0083
85074W        W85938   6.141  16.443  15.161 -0.2407  0.0138 -0.0764
85075W        W85939  15.431   3.374  25.878  0.4061  0.2117 -0.0800
85076W        W85940  19.488   1.953  13.101 -0.1006  0.1088  0.0218
85077W        W85941   1.154  18.253   0.256 -0.5783 -0.1116 -0.2537
85078W        W85942   4.323  16.537  22.785  0.1110 -0.1304 -0.0849
85079W        W85943   8.435  19.554  26.302  0.2718  0.1384  0.1415
85080W        W85944  25.805   2.335  24.019  0.2073  0.3458 -0.1127
85081W        W85945  21.600   8.288  27.786 -0.0620 -0.0224  0.0545
85082W        W85946  14.025   9.179  28.166 -0.2466  0.1512  0.1068
85083W        W85947  24.851  15.178  17.706 -0.1331 -0.1377  0.3208
85084W        W85948  27.235   2.015  24.499 -0.1173  0.0225 -0.0524
85085W        W85949  14.346   7.167  20.953  0.0628 -0.2059 -0.2489
85086W        W85950  17.889  29.029   6.346 -0.1127 -0.1808  0.1025
85087W        W85951  26.804   5.183  14.201  0.1899  0.1366  0.1209
85088W        W85952   2.089  23.702  18.637 -0.1652 -0.0005 -0.0713
85089W        W85953   0.213  20.554  23.929 -0.5518  0.0622  0.1846
85090W        W85954   7.372   9.838  22.338  0.2062 -0.2193 -0.1416
85091W        W85955  23.020  13.674  27.728  0.2478 -0.0529 -0.4009
85092W        W85956   1.022  22.074  15.961 -0.0002 -0.2345  0.1111
85093W        W85957  21.965  27.282  24.540 -0.2563  0.2397  0.3194
85094W        W85958  24.718   1.050  12.284 -0.1569 -0.2598  0.0475
85095W        W85959  14.840   3.011   8.887  0.2084  0.1995  0.0988
85096W        W85960  28.199  15.595  18.770 -0.3048 -0.0876  0.2091
85097W        W85961  28.294  24.517  19.323  0.0433 -0.1906 -0.0664
85098W        W85962  22.735  20.519   1.361 -0.3700  0.1886  0.0724
85099W        W85963  25.327  27.978  23.074  0.0134  0.0742  0.3619
85100W        W85964  18.364   0.106  10.828  0.1773 -0.2367  0.0157
85101W        W85965  21.436   6.194  22.149  0.2646 -0.1221 -0.1770
85102W        W85966   3.381  16.967  12.112  0.2169 -0.1367  0.2038
85103W        W85967  26.292   1.445  11.301 -0.0512  0.0812  0.1195
85104W        W85968  29.070  25.207  28.247  0.1456  0.3674 -0.3318
85105W        W85969  10.395   6.520  25.094 -0.0462  0.0114  0.1628
85106W        W85970  10.385   3.869   6.292  0.0611  0.0875  0.0739
85107W        W85971   0.858   2.265   4.188 -0.0584  0.0127 -0.1193
85108W        W85972  12.862   2.114  23.415  0.1165 -0.1444 -0.1655
85109W        W85973   0.381  20.582   5.869 -0.1862 -0.1812  0.0923
85110W        W85974   2.613  29.137  22.150  0.0029  0.2003 -0.1154
85111W        W85975   8.628  18.914  14.180 -0.2078  0.1468  0.1260
85112W        W85976   2.933  19.506  27.231 -0.0086  0.0406 -0.1664
85113W        W85977   1.131  15.856  28.735  0.1423  0.0830  0.2659
85114W        W85978  28.678   0.201  21.258 -0.2587 -0.0491 -0.0665
85115W        W85979  21.955  11.876  22.599 -0.1136 -0.1196 -0.1403
85116W        W85980   0.868   4.730  11.471  0.0193 -0.2234  0.0460
85117W        W85981  25.342   7.113  19.442  0.1720 -0.0781 -0.3289
85118W        W85982   3.041  15.224  13.330 -0.0805  0.1877 -0.0571
85119W        W85983   0.377  17.622   0.373 -0.1544 -0.1932 -0.1160
85120W        W85984  25.861  11.953  25.071 -0.2480 -0.1346 -0.0868
85121W        W85985  17.730  25.599   8.482  0.0121 -0.2639  0.0269
85122W        W85986  26.333  24.053  20.456  0.1741 -0.2477 -0.3019
85123W        W85987   7.313   3.957  19.459 -0.1593 -0.0544  0.1288
85124W        W85988  28.514   2.653  15.274 -0.1042 -0.0359 -0.1776
85125W        W85989  26.800  17.563  25.354  0.1563 -0.1554 -0.1113
85126W        W85990  21.967   5.085  25.769  0.3639  0.2722 -0.3952
85127W        W85991   4.772  26.231   7.974 -0.0594 -0.2706 -0.1118
85128W        W85992   2.271   2.825   1.179  0.0448  0.0819  0.1491
85129W        W85993   4.258  20.234  10.629  0.3746 -0.2199 -0.3374
85130W        W85994   6.854  26.199   6.223  0.1075 -0.1693  0.0250
85131W        W85995  18.159  28.901   5.070  0.4420  0.3690  0.1685
85132W        W85996  28.151   3.360   6.165  0.0082  0.3129  0.0278
85133W        W85997   8.168   0.879  20.875 -0.0530  0.0694  0.2074
85134W        W85998   4.301  11.671   0.099 -0.0171 -0.0662  0.1512
85135W        W85999  14.914   5.076  27.328 -0.2244 -0.1823  0.0997
85136W        W86000  14.204  11.576  22.880  0.2002  0.1332  0.0904
85137W        W86001   4.202   5.173   9.010  0.1698 -0.2237  0.0013
85138W        W86002  19.959  20.708  22.335 -0.0531 -0.0189 -0.0490
85139W        W86003  28.438   5.224  23.460  0.0632  0.0151 -0.0994
85140W        W86004   7.407   1.588  25.947  0.0520 -0.2963 -0.1375
85141W        W86005   4.193  26.189  29.052  0.2285 -0.0213 -0.1118
85142W        W86006  15.681  27.049  24.230  0.1222 -0.1088 -0.1274
85143W        W86007  20.659   5.508  27.857 -0.0993  0.2542 -0.2545
85144W        W86008  17.152  24.700  26.445  0.2072 -0.1149  0.1668
85145W        W86009  17.190   7.587  21.726 -0.3746  0.2127  0.1385
85146W        W86010  27.616  25.870   9.531 -0.3359 -0.2102 -0.0470
85147W        W86011   0.802  21.550   5.878 -0.1132 -0.0130  0.1100
85148W        W86012  23.200   5.317  11.903 -0.1486  0.2558  0.0339
85149W        W86013  10.470   0.415   0.734 -0.1522  0.2493 -0.3570
85150W        W86014   7.151  20.545   1.575 -0.0684  0.2635  0.0226
85151W        W86015  16.479  22.436   5.651 -0.2695 -0.0784 -0.1324
85152W        W86016   0.136  21.793  18.917  0.0772 -0.1192 -0.0156
85153W        W86017   2.332   5.100  27.673 -0.1053  0.1926  0.0265
85154W        W86018  10.204  16.219  21.948 -0.0914  0.0069 -0.0798
85155W        W86019   2.199  19.698   5.952  0.1552  0.1669  0.2872
85156W        W86020  15.071   3.391  27.680 -0.2081 -0.0389  0.0036
85157W        W86021  26.312   0.905   4.436 -0.0704  0.0237  0.1398
85158W        W86022   1.422  21.876  16.577 -0.1833  0.2402 -0.3117
85159W        W86023   1.097  12.139  11.141  0.1030  0.0425  0.3743
85160W        W86024  13.568   0.048  23.604 -0.0913 -0.1775 -0.0448
85161W        W86025  28.274  21.176  21.612  0.1967 -0.0406 -0.1327
85162W        W86026  11.650   2.790  13.189 -0.0246 -0.1116 -0.0136
85163W        W86027  21.167  26.597  16.858 -0.0003  0.0154  0.1919
85164W        W86028  14.167  27.273  10.311 -0.0940 -0.0838 -0.1017
85165W        W86029   2.980   5.645  16.967  0.1207 -0.0193  0.0417
85166W        W86030  25.054  23.989  23.963 -0.1532 -0.2021 -0.1586
85167W        W86031   8.894  18.961  13.278 -0.4635 -0.2029  0.0331
85168W        W86032  19.000  22.731  16.675 -0.0421 -0.0443  0.1262
85169W        W86033   5.702   0.164  20.601 -0.1341  0.0453  0.1811
85170W        W86034  15.734  19.640  18.662 -0.1238 -0.0888 -0.0799
85171W        W86035  16.900  25.971  11.311 -0.1158 -0.1789  0.0033
85172W        W86036  26.464  24.363  21.388 -0.2644  0.1671 -0.0664
85173W        W86037  25.225  14.725  17.853  0.0116  0.2034  0.3987
85174W        W86038   6.053  18.259  26.708  0.2323 -0.0803 -0.2318
85175W        W86039  24.641   0.934  25.098 -0.3704 -0.0510 -0.0972
85176W        W86040  14.596  15.525  10.651  0.0818 -0.1066 -0.0350
85177W        W86041   0.748   7.613  13.488 -0.0993 -0.1111  0.1854
85178W        W86042   5.324  14.306   8.976 -0.1249 -0.1445 -0.0609
85179W        W86043   3.491  13.313  13.832 -0.0128  0.4463 -0.0338
85180W        W86044  24.855   5.172   4.493  0.2773 -0.2000 -0.0655
85181W        W86045   4.323  22.309   9.539  0.0218  0.1882 -0.0567
85182W        W86046  28.838  13.138  20.505  0.1652 -0.1402 -0.6011
85183W        W86047   4.522  19.977  17.052 -0.3332 -0.4282 -0.3680
85184W        W86048  27.240   3.030  15.913 -0.3300 -0.0613 -0.0091
85185W        W86049  16.356   6.818  22.129  0.0332  0.2713  0.0225
85186W        W86050   1.374  21.257  28.815 -0.0732 -0.0182  0.1952
85187W        W86051  14.724  10.937  10.526 -0.1556 -0.2615 -0.1440
85188W        W86052  17.440  25.086   8.642  0.3222 -0.0803  0.0578
85189W        W86053   9.566  24.711  18.587  0.3211  0.1711 -0.2706
85190W        W86054  20.671   4.093  14.562  0.1770 -0.3025 -0.1883
85191W        W86055  18.966   7.979   6.217  0.4022 -0.1294  0.0865
85192W        W86056  16.285   5.416  27.206 -0.0907 -0.1385 -0.1183
85193W        W86057   8.988  24.335  18.889 -0.0939 -0.0338 -0.2925
85194W        W86058  23.883  25.252   1.723  0.0186 -0.0002  0.1817
85195W        W86059  25.422  25.686   4.592 -0.0854 -0.0396 -0.1733
85196W        W86060   9.517  12.184   8.467  0.2324  0.1205  0.0165
85197W        W86061  15.774  17.965   4.963 -0.2204  0.0705 -0.1693
85198W        W86062  23.837   1.982  27.509  0.1576  0.2526  0.2001
85199W        W86063  21.510  14.603  21.686  0.1331 -0.1204  0.0859
85200W        W86064   0.813   4.306  17.616  0.0821  0.0740  0.0977
85201W        W86065  11.914  21.264  26.241  0.3948 -0.2433  0.0373
85202W        W86066   5.998   7.554  22.713  0.0612 -0.0910  0.0439
85203W        W86067  21.680  23.658   0.190  0.0626 -0.0247  0.1379
85204W        W86068  18.507   7.991  12.149 -0.0844  0.0349 -0.1121
85205W        W86069  25.812  23.141  15.242 -0.0253  0.0673 -0.0322
85206W        W86070   1.965  14.484  23.034 -0.2364  0.1097  0.0375
85207W        W86071  23.367   0.469  23.179 -0.0956  0.2057 -0.3153
85208W        W86072   3.968   5.364   9.411  0.3700 -0.0745 -0.0998
85209W        W86073  28.633  25.353  21.416  0.0125  0.0439  0.0830
85210W        W86074  16.990  16.817  24.291  0.1794 -0.3275 -0.1666
85211W        W86075   3.864   0.451   4.987  0.1528 -0.3852  0.0035
85212W        W86076   4.870   9.187  23.821  0.1266 -0.3198  0.0727
85213W        W86077  24.239  27.261  22.755 -0.0697 -0.0552  0.1056
85214W        W86078  22.543  14.535  25.635 -0.3191 -0.3664  0.0094
85215W        W86079   5.464  20.533   3.368 -0.3137 -0.1545  0.0496
85216W        W86080  24.423  16.019  17.845  0.0432  0.0215 -0.3412
85217W        W86081  27.890  22.579  28.531 -0.3850 -0.0038  0.0945
85218W        W86082   7.422  27.970  19.491 -0.1290 -0.0023  0.2495
85219W        W86083  23.046  19.767  11.252 -0.3470 -0.1118 -0.1512
85220W        W86084   2.973   3.943  20.044 -0.2125 -0.0748  0.0158
85221W        W86085   6.007   0.497  18.596 -0.2563  0.0384  0.1195
85222W        W86086  23.803  26.711   8.237 -0.3439 -0.0309 -0.1280
85223W        W86087  21.669  15.555   0.104  0.1434 -0.2072 -0.0346
85224W        W86088  13.434   8.589  26.282 -0.2468  0.3839 -0.1248
85225W        W86089  15.541  10.025  12.112  0.0753 -0.2370 -0.1022
85226W        W86090  12.211  26.776  22.884  0.1763 -0.1150  0.1197
85227W        W86091   5.622   5.683  22.856  0.1993  0.2011 -0.0089
85228W        W86092  17.019   0.255  27.382  0.1276 -0.2873  0.2168
85229W        W86093  13.127  20.253   2.240 -0.0960  0.0951  0.2540
85230W        W86094  14.291   9.276  16.211  0.1366 -0.1804 -0.2646
85231W        W86095  27.685   3.472  26.851 -0.0480 -0.3022 -0.4805
85232W        W86096  12.169  11.897   5.501 -0.0724 -0.0014  0.2704
85233W        W86097   2.029  20.471  14.878 -0.0951  0.0162  0.0752
85234W        W86098  23.641   1.828   2.602  0.1635  0.1324 -0.0766
85235W        W86099   7.000  15.008  10.200  0.1386  0.5934  0.1240
85236W        W86100  26.083  19.082   3.827  0.3843  0.0395  0.0602
85237W        W86101  19.729   0.803   3.865  0.0887  0.0618 -0.1350
85238W        W86102   8.018   1.458   7.844  0.1006  0.3088  0.1461
85239W        W86103   7.943   0.176  27.653  0.1983  0.1961  0.1828
85240W        W86104  13.584  25.224   7.518 -0.1386 -0.1128 -0.2937
85241W        W86105  18.503   4.055  27.910  0.3344  0.2978 -0.3081
85242W        W86106   4.873  22.624   2.120 -0.1131  0.1085  0.1877
85243W        W86107   7.423  21.529  20.359 -0.0087 -0.1113  0.1527
85244W        W86108  15.063  14.738  13.580  0.1576  0.0496 -0.2363
85245W        W86109   1.049   0.366  29.086 -0.1594  0.0738 -0.2646
85246W        W86110  20.419  16.785  10.117  0.1351  0.0222 -0.2128
85247W        W86111  11.215   9.439   2.270 -0.0203 -0.0356 -0.0695
85248W        W86112  21.903  11.912   3.171  0.1474  0.2212 -0.1862
85249W        W86113  10.060   5.608   5.776  0.1841 -0.2168 -0.2090
85250W        W86114  11.302  19.181   0.644  0.2091 -0.0659  0.2062
85251W        W86115   0.652  17.151  25.711 -0.0792 -0.1361  0.1784
85252W        W86116  19.724   3.981   3.640 -0.1320  0.1006 -0.2537
85253W        W86117  16.776   7.892  22.597 -0.0524  0.0185  0.1697
85254W        W86118  25.723  11.584  25.481  0.1845  0.4184  0.1092
85255W        W86119  13.948  21.491   9.869  0.1453 -0.2153 -0.1108
85256W        W86120  27.252  27.440  27.744  0.0233  0.0985  0.0325
85257W        W86121  17.586  17.566  18.966 -0.2555  0.0598 -0.1079
85258W        W86122  28.442   8.124   9.771 -0.2624  0.2247  0.2731
85259W        W86123   4.335  12.696   9.281 -0.1330 -0.2584  0.1797
85260W        W86124  25.690  21.857   9.481  0.2173 -0.1004 -0.1239
85261W        W86125  21.186  15.755   1.374 -0.0458 -0.0650  0.0708
85262W        W86126  29.084  15.301   8.124 -0.1369  0.0178  0.1549
85263W        W86127  23.911   8.206   7.504  0.0497  0.2560 -0.1722
85264W        W86128  26.199  12.831  21.891 -0.1775  0.1379  0.4637
85265W        W86129  25.437   1.990  27.132 -0.2860  0.6162  0.3818
85266W        W86130   6.541  15.748  23.346  0.1041  0.1199  0.1704
85267W        W86131  12.824  17.565   6.972  0.1490  0.0123 -0.1601
85268W        W86132  24.472  20.866   6.474  0.1447  0.1038 -0.2534
85269W        W86133  21.034  15.903  23.295  0.2078  0.0860  0.2505
85270W        W86134  21.783  27.737  24.335 -0.1011  0.0466  0.2786
85271W        W86135  28.147  19.374   6.003 -0.3713 -0.1028 -0.1377
85272W        W86136  24.128   7.680   0.241  0.4018 -0.2332 -0.0492
85273W        W86137   2.219  19.728   9.159  0.1890  0.0363  0.3373
85274W        W86138   1.768  15.340  11.502 -0.1104 -0.0580  0.1237
85275W        W86139   2.868  18.424  18.950 -0.0601 -0.0492 -0.0236
85276W        W86140  19.047  27.922   3.585  0.2551 -0.2822 -0.1349
85277W        W86141  23.420  13.115  29.023 -0.1601 -0.0884  0.3170
85278W        W86142  18.882  25.981  28.706  0.0811 -0.1743 -0.0152
85279W        W86143  18.425  26.451  28.406 -0.0137 -0.0596  0.2499
85280W        W86144  26.045   4.114   1.650  0.1207  0.0077  0.1391
85281W        W86145   5.575  12.313   1.524 -0.3094  0.0328  0.1097
85282W        W86146  20.644   6.833  12.424  0.3856 -0.0604 -0.3270
85283W        W86147   2.960  12.714  19.674 -0.2917  0.1073 -0.0318
85284W        W86148  16.453   8.072  12.421  0.0690  0.1571  0.2324
85285W        W86149  24.897   3.172   0.532  0.1434  0.1049 -0.1211
85286W        W86150   5.638   6.295   2.362 -0.1323 -0.0470 -0.0570
85287W        W86151   1.274  28.783  20.313 -0.0410 -0.0747  0.2298
85288W        W86152  12.668   7.035  20.446  0.2925  0.2973  0.1899
85289W        W86153  27.455   1.545   7.015 -0.1198 -0.0182 -0.3141
85290W        W86154  25.697  24.318  11.315 -0.0191  0.0457 -0.1772
85291W        W86155  27.863  16.295   4.013  0.0657  0.0559  0.1812
85292W        W86156  27.877  20.278   4.891  0.0327  0.0255 -0.6460
85293W        W86157  10.757   5.036  26.029 -0.0022  0.3301  0.0929
85294W        W86158  12.043  10.917  16.055  0.2874  0.2370 -0.2757
85295W        W86159  29.052  26.021  10.898  0.0079 -0.1685 -0.1996
85296W        W86160  24.892   4.116   9.783  0.2856 -0.0275  0.0097
85297W        W86161  28.963   1.038  21.766 -0.0453  0.2845  0.1069
85298W        W86162  13.851   5.820  14.114 -0.2734  0.2544  0.0022
85299W        W86163   5.765   4.505   2.317  0.1385 -0.0412 -0.2469
85300W        W86164  23.315  25.791  27.155 -0.1381  0.3001  0.3625
85301W        W86165   0.712  27.045  13.675  0.1699  0.1257  0.0863
85302W        W86166   8.699   2.093  22.264  0.0133 -0.1927  0.2315
85303W        W86167  16.685  13.617  15.875  0.0336 -0.1036 -0.2195
85304W        W86168  13.064  15.239  29.049 -0.2198  0.2409 -0.3094
85305W        W86169   3.119  28.068  18.286 -0.0339 -0.0097  0.0349
85306W        W86170   2.411  20.365  21.635  0.0128 -0.0535 -0.1256
85307W        W86171   8.080  21.773  25.036  0.1757  0.0034  0.1770
85308W        W86172  19.448  12.732  20.299 -0.0980  0.0134 -0.3552
85309W        W86173   4.712  25.913   3.712 -0.1703  0.2065 -0.1436
85310W        W86174   1.949   7.018  27.584 -0.0600  0.1649 -0.0097
85311W        W86175  19.897   2.694  17.776  0.0858  0.2472  0.1047
85312W        W86176  28.102  21.677  26.447  0.1820  0.1776 -0.3445
85313W        W86177  15.015   8.020  11.371  0.2004 -0.0674 -0.2868
85314W        W86178  14.000  20.446  15.613  0.0202 -0.0361  0.1315
85315W        W86179   7.983   2.665  12.774  0.0797  0.0796  0.5594
85316W        W86180  26.807  28.073  12.178  0.0711 -0.1274 -0.2186
85317W        W86181   8.137  27.674  22.237 -0.0120  0.1277  0.0194
85318W        W86182   0.545  28.715   9.843  0.2706 -0.2672 -0.1846
85319W        W86183  29.009  16.666  22.002  0.1720 -0.0270  0.0038
85320W        W86184  21.690  28.247   2.027  0.0892 -0.0671 -0.2694
85321W        W86185  21.859   7.241   5.108 -0.1241 -0.1936  0.2134
85322W        W86186  10.914   1.068   0.255 -0.1548 -0.1089 -0.0929
85323W        W86187   5.488   8.646  27.586  0.1572 -0.1465  0.1453
85324W        W86188   6.428   1.597   0.852  0.1949 -0.1888  0.0130
85325W        W86189   2.692   5.439   4.361  0.0222  0.3091  0.2075
85326W        W86190   5.958  24.693  20.560 -0.0933 -0.1170 -0.0136
85327W        W86191   8.121   3.910  23.595 -0.2786  0.1065 -0.0479
85328W        W86192   9.682   4.012   6.842 -0.0264  0.0803 -0.1925
85329W        W86193  24.923   7.604  17.306 -0.2925  0.0181 -0.0227
85330W        W86194  12.381  23.293   5.148  0.1712  0.0027  0.1465
85331W        W86195  22.792   5.140   7.394  0.0704 -0.0702 -0.3678
85332W        W86196  10.458   7.899  21.799 -0.1915  0.3077  0.0546
85333W        W86197  25.276  19.027  18.559 -0.2241  0.0622  0.2924
85334W        W86198   5.917  18.716  27.878  0.1057  0.0764  0.1933
85335W        W86199  17.003   2.958  17.593 -0.2574  0.0041 -0.1213
85336W        W86200  13.176  14.822  14.774 -0.0682 -0.1276  0.0763
85337W        W86201  19.898   3.263  20.525 -0.0010 -0.2434  0.0070
85338W        W86202  28.814  20.430   2.542  0.0170 -0.1636 -0.0903
85339W        W86203   2.760   9.902   6.920  0.0258  0.2107  0.0625
85340W        W86204  10.270  14.885  12.726 -0.1674  0.1011  0.2320
85341W        W86205  25.423  13.256   3.353  0.0902 -0.0725  0.0146
85342W        W86206  23.828  21.955   8.324 -0.1751  0.2390  0.1199
85343W        W86207  19.624   1.435  23.031 -0.1140  0.2767 -0.0916
85344W        W86208  27.796  19.305   5.648  0.0187 -0.3531 -0.0941
85345W        W86209   7.502   8.814  22.773  0.2272  0.0266 -0.0554
85346W        W86210  25.263  18.433  28.578 -0.1255  0.2522 -0.0738
85347W        W86211   2.939  28.384  20.529 -0.1026 -0.1766  0.4164
85348W        W86212  26.967   2.586   2.350 -0.1376 -0.3717 -0.0711
85349W        W86213  24.711  13.285   7.730 -0.0922  0.0261  0.2053
85350W        W86214  29.138  19.593  25.610 -0.4594 -0.0671  0.0706
85351W        W86215  26.337  13.937  11.579  0.0700 -0.4733  0.2211
85352W        W86216  28.374   5.587   0.728  0.0021  0.2020 -0.2200
85353W        W86217  26.395  18.026   5.755  0.0871 -0.2530  0.1906
85354W        W86218  25.584  17.052  19.318 -0.1952 -0.1047 -0.0545
85355W        W86219   7.837   1.661  15.308  0.2587 -0.0030 -0.1318
85356W        W86220  11.884   0.954  10.582  0.0927 -0.0392  0.0060
85357W        W86221  16.712  19.403   2.291 -0.0993 -0.1394  0.0261
85358W        W86222  22.697   0.783  23.815 -0.0398 -0.0213 -0.2924
85359W        W86223  28.152  26.170   1.575  0.6422  0.0073 -0.2115
85360W        W86224  27.905   5.966  22.151 -0.0791 -0.0909 -0.3070
85361W        W86225  10.415  12.859   4.675  0.0587 -0.1494 -0.2550
85362W        W86226   1.125  26.050  24.889 -0.1631  0.3076 -0.3865
85363W        W86227  24.648  13.183  18.144 -0.0112 -0.0666  0.1494
85364W        W86228  11.450  22.604  29.020  0.0378 -0.2884 -0.1725
85365W        W86229  27.024  11.197   3.861  0.0757  0.0065 -0.1650
85366W        W86230  17.084  21.079  18.986 -0.1370  0.0624 -0.2325
85367W        W86231   1.439   0.233   4.482  0.0087  0.1139  0.1095
85368W        W86232   1.704  28.211  29.044 -0.1838 -0.0122 -0.2589
85369W        W86233   8.816  11.805  18.986 -0.1927  0.2310  0.0246
85370W        W86234   7.757   5.461   6.120 -0.1574 -0.2479  0.0070
85371W        W86235   3.051  11.434  22.623  0.0101  0.3391 -0.1532
85372W        W86236   0.299  21.108  10.612  0.1581  0.1632 -0.0664
85373W        W86237  23.675  26.777  18.369  0.2346 -0.0878 -0.0925
85374W        W86238   1.948   8.756   9.288  0.3668 -0.0155  0.0081
85375W        W86239  12.387  11.551  24.913 -0.0518  0.1807  0.1544
85376W        W86240  23.540  26.898   9.463 -0.0294  0.0113 -0.0775
85377W        W86241   9.247   0.723   3.115  0.3637 -0.0310  0.1055
85378W        W86242   3.920   9.466  11.156 -0.1996  0.0358 -0.1650
85379W        W86243  23.936  23.842  29.083  0.2038  0.1864  0.0159
85380W        W86244  21.280   6.781  12.810  0.1229  0.3472  0.2752
85381W        W86245   8.933   8.683  26.691  0.3852  0.3375 -0.0519
85382W        W86246  21.507   4.890   1.031  0.0622 -0.1510 -0.0895
85383W        W86247  28.055   0.481   8.123  0.1189  0.0297  0.0320
85384W        W86248   4.124   9.726  29.094  0.1580 -0.0329  0.2260
85385W        W86249  27.524  23.554  22.202  0.1554  0.2268 -0.1590
85386W        W86250  25.067  12.998   5.217 -0.0623 -0.0146 -0.0666
85387W        W86251   1.652  16.372  27.311  0.2929  0.0281  0.0907
85388W        W86252  10.306  10.605  28.675 -0.1602  0.0636  0.2343
85389W        W86253   3.737   5.248  14.096  0.2000  0.2932  0.2337
85390W        W86254  25.842   1.912   3.073 -0.0535  0.0284  0.2230
85391W        W86255  14.220  11.678  12.808 -0.0515 -0.3414 -0.1995
85392W        W86256  26.607  26.107  24.406 -0.0971  0.0789  0.1863
85393W        W86257  12.194  16.026   9.276  0.0945  0.2315 -0.2394
85394W        W86258  15.649  22.249  15.904  0.1087 -0.0458 -0.0132
85395W        W86259   8.771  25.375  11.513  0.1290 -0.0506 -0.0065
85396W        W86260  19.972   6.035  23.161  0.1763 -0.2954  0.1898
85397W        W86261  20.947   9.715   9.456 -0.1241  0.0509  0.0342
85398W        W86262  25.534   8.091  26.840 -0.4044  0.2976 -0.0020
85399W        W86263  23.599  28.934  27.908  0.0516 -0.0987 -0.0705
85400W        W86264   3.304   3.860  10.777  0.0871  0.1049  0.4034
85401W        W86265  25.654  15.910  13.611  0.0809  0.2097  0.1517
85402W        W86266   2.581  19.364  15.145 -0.0908 -0.0369 -0.0806
85403W        W86267  25.444   0.928  21.375  0.2504  0.0849  0.0863
85404W        W86268   3.889   9.692  23.189  0.1188 -0.1120  0.1606
85405W        W86269  11.734   9.653   7.971 -0.0825  0.1535  0.0891
85406W        W86270  20.629  22.021  15.314 -0.2582  0.1811  0.0687
85407W        W86271  26.699  15.556  18.575 -0.0174 -0.1678  0.1900
85408W        W86272  23.419   3.030   8.469  0.1025 -0.1701  0.0103
85409W        W86273   9.717  28.638  21.462  0.1719 -0.0929  0.0060
85410W        W86274  22.931  12.137  22.144  0.3926  0.0032  0.1977
85411W        W86275  24.580  14.313  20.993 -0.1473  0.3482  0.0373
85412W        W86276  22.259  17.489  21.717 -0.1525 -0.3950  0.3420
85413W        W86277  10.460  18.604   6.656  0.1551  0.1062  0.1721
85414W        W86278   8.975  20.143   3.458 -0.0274  0.1992  0.1379
85415W        W86279  22.734  11.554  25.242 -0.0322 -0.0835 -0.0565
85416W        W86280   1.439   4.381  24.431 -0.1800  0.1497 -0.0168
85417W        W86281  17.731   5.105  22.445 -0.1692 -0.1015  0.0422
85418W        W86282  13.811   7.740  28.603  0.1929 -0.4561  0.0572
85419W        W86283  20.064   3.333  16.241  0.2472  0.1107  0.1167
85420W        W86284   6.566  24.921  12.220 -0.1565 -0.2964  0.3630
85421W        W86285  21.642  15.391  16.575  0.0268  0.1021 -0.1386
85422W        W86286   8.798  14.290  14.055  0.1594  0.1257 -0.4469
85423W        W86287  14.573  11.779  13.649  0.1437 -0.0257  0.2631
85424W        W86288   2.518   5.360   0.559 -0.0694 -0.2489 -0.0504
85425W        W86289   7.291   3.543  21.069 -0.1590  0.1013  0.0399
85426W        W86290   3.762  23.634  15.234  0.0491  0.3871  0.1065
85427W        W86291  26.939  14.622  27.598 -0.2032 -0.2768  0.2706
85428W        W86292   3.644   4.969   4.691  0.0701  0.1827  0.2222
85429W        W86293   4.336  15.869   4.229 -0.1033 -0.3753 -0.0582
85430W        W86294  16.221   8.228   4.534 -0.0058  0.0756 -0.1125
85431W        W86295  11.074  16.231  19.177 -0.0412 -0.1948 -0.1128
85432W        W86296  19.674   1.708  14.728 -0.0582  0.1759  0.2830
85433W        W86297  17.818  24.768   4.773 -0.0911 -0.0364 -0.1907
85434W        W86298  14.598   4.996   5.853  0.0348  0.0101 -0.0140
85435W        W86299   4.080  10.970  15.941 -0.1114  0.1519  0.1219
85436W        W86300   3.370  10.333  20.023  0.1634  0.0475 -0.0286
85437W        W86301  22.583  22.261   2.135 -0.1628 -0.0111  0.2748
85438W        W86302  25.730   4.293  19.824  0.2571  0.1443  0.0615
85439W        W86303  15.861   5.840  19.358 -0.1919 -0.2968 -0.1393
85440W        W86304   1.563  20.484  22.838  0.0359 -0.0136 -0.0202
85441W        W86305  28.481   1.967   6.963 -0.0938  0.1535 -0.3609
85442W        W86306  26.368  18.959  11.482  0.0460  0.1385  0.0136
85443W        W86307  25.888   6.969  22.105 -0.0549  0.1338  0.4665
85444W        W86308  13.934  25.619   2.886 -0.0848 -0.1151  0.0012
85445W        W86309   8.913   1.169   1.711  0.1182 -0.2665 -0.1802
85446W        W86310   4.604  15.134  21.007  0.2156  0.1026  0.1558
85447W        W86311  12.239   5.936  13.544  0.0604 -0.4940 -0.1113
85448W        W86312  23.126  20.603  17.952 -0.0514 -0.0166  0.1431
85449W        W86313  25.419   3.543  24.336  0.0599  0.1192  0.0398
85450W        W86314  24.996   4.734   2.627  0.1282 -0.4423 -0.0041
85451W        W86315  16.181  11.766   3.584  0.0084 -0.0819 -0.0150
85452W        W86316  19.456  23.728  22.049 -0.5655  0.1312  0.0804
85453W        W86317   9.313  20.423   5.925 -0.0472 -0.4145 -0.1846
85454W        W86318  11.943   5.540  28.516  0.1281  0.0311  0.1489
85455W        W86319   8.848   7.637  22.071 -0.0079  0.0687 -0.0398
85456W        W86320   2.515  21.012  24.288 -0.4167  0.0100  0.1103
85457W        W86321  16.991   4.492  21.617  0.0940  0.1287  0.2267
85458W        W86322  18.704   2.427  24.311  0.0227 -0.1467  0.0657
85459W        W86323  24.656  28.482  13.882  0.2073  0.0433  0.0572
85460W        W86324  24.803   0.764  13.781  0.2078 -0.0272  0.4381
85461W        W86325   5.943   2.218  12.488 -0.0639  0.1313 -0.0823
85462W        W86326  24.062  28.861   4.278  0.0246  0.1170  0.0206
85463W        W86327  19.382  12.409  27.265 -0.0340 -0.1348  0.1322
85464W        W86328  27.238  10.272  28.547  0.0781 -0.2921  0.1823
85465W        W86329   7.721  13.400  12.510  0.1306  0.2977  0.0120
85466W        W86330  16.674  11.967  20.905 -0.0400 -0.0588 -0.2725
85467W        W86331  15.958  22.135  23.336 -0.0757  0.1033 -0.0515
85468W        W86332   2.081   6.300   6.807 -0.1756 -0.0404  0.0742
85469W        W86333  28.306  13.309   0.129 -0.1101 -0.0105 -0.1212
85470W        W86334  27.519  24.595   6.751  0.0461  0.1493  0.0798
85471W        W86335  16.286  19.195  12.908 -0.2017 -0.0204 -0.0341
85472W        W86336  16.176  19.743   4.840  0.0815 -0.1992 -0.0369
85473W        W86337  19.666  19.269   5.936 -0.0818 -0.0440  0.0185
85474W        W86338   0.062  25.093  21.683  0.1789 -0.0096  0.1090
85475W        W86339   4.893  23.057  10.647  0.3234 -0.2257 -0.0993
85476W        W86340   8.205   3.604  11.574  0.0118  0.0952 -0.4577
85477W        W86341   1.294   1.137  17.281  0.3279  0.2118  0.2500
85478W        W86342  28.090   6.590  25.111 -0.5248  0.3904  0.0698
85479W        W86343   5.880   0.145  18.116  0.0863 -0.2826 -0.2457
85480W        W86344   3.802   6.368   1.223 -0.2641  0.1111 -0.2055
85481W        W86345  19.667   9.822   9.476 -0.1220  0.2513  0.3397
85482W        W86346   1.156   8.544  21.952 -0.1239 -0.1501 -0.5345
85483W        W86347  23.581   6.657  20.773 -0.1379 -0.0137  0.0689
85484W        W86348   6.159   9.329   7.209 -0.1683  0.2145 -0.0937
85485W        W86349  22.433   5.836   0.533 -0.0003  0.1212 -0.0822
85486W        W86350  13.451   5.752   4.619 -0.2279  0.0083 -0.1224
85487W        W86351   0.933  17.497   0.936 -0.1573 -0.2413 -0.0128
85488W        W86352   0.724  24.223  18.050 -0.0243  0.0222 -0.6934
85489W        W86353  22.848  19.789  15.846 -0.3079  0.2651  0.2343
85490W        W86354   0.799  21.611  27.240 -0.4134  0.1159 -0.0362
85491W        W86355  27.447   2.969  21.706  0.2655 -0.1698 -0.3772
85492W        W86356   0.475   2.860   8.569  0.0092  0.2414 -0.0140
85493W        W86357   2.162  17.306   3.210 -0.2376 -0.0980  0.0434
85494W        W86358  14.753   8.395   9.836 -0.0954  0.0275  0.2556
85495W        W86359  12.694  10.007  26.504  0.0209  0.2739  0.3169
85496W        W86360  27.890   6.275  18.166 -0.2892 -0.0543 -0.0756
85497W        W86361  27.897  11.130  16.026 -0.1078  0.0287  0.1573
85498W        W86362  26.285  26.269  22.452 -0.3109 -0.1977  0.2098
85499W        W86363  14.363  11.359  26.424 -0.1959  0.4239  0.0612
85500W        W86364  12.181  27.813  14.288 -0.2630  0.0589  0.1740
85501W        W86365  15.961  13.048  17.394  0.0443 -0.0621 -0.0904
85502W        W86366  22.281  13.365   1.927  0.3550 -0.1748 -0.0337
85503W        W86367  19.216  17.376  27.422 -0.0475  0.0725  0.0204
85504W        W86368  28.018  21.555  18.147  0.0105 -0.2965 -0.0546
85505W        W86369   5.757   9.906  28.720 -0.0968 -0.2039  0.2484
85506W        W86370  15.412  24.265  25.002 -0.0419 -0.2493 -0.1255
85507W        W86371  16.711  11.313  22.373 -0.0043 -0.2582  0.0714
85508W        W86372  18.446  26.012   0.138 -0.0037  0.1936 -0.0051
85509W        W86373  23.650  18.768  27.847 -0.0122  0.2408  0.1192
85510W        W86374   9.709  18.442  24.428 -0.3398  0.1649  0.0186
85511W        W86375   3.943  19.520  11.086  0.0508 -0.0029 -0.2134
85512W        W86376   5.276   6.475   7.557 -0.4124 -0.1824  0.0211
85513W        W86377  24.119   2.530   0.507 -0.0285  0.5066 -0.0774
85514W        W86378  20.244   4.728  23.287 -0.4713 -0.2533  0.2025
85515W        W86379  18.666   5.763   4.028  0.0113  0.0651  0.1230
85516W        W86380   3.358  19.239   3.836 -0.2511 -0.0342  0.0492
85517W        W86381  26.774  27.432  11.635  0.1651  0.1544  0.3114
85518W        W86382   9.272   7.475  26.058 -0.1277 -0.1226 -0.3549
85519W        W86383   2.148  16.197  28.775 -0.0983  0.1697 -0.0163
85520W        W86384  28.859  11.922  27.060  0.2238  0.2379  0.0097
85521W        W86385  20.385   7.356  23.218 -0.0730 -0.0342 -0.1993
85522W        W86386   2.358  16.163   1.728  0.0753 -0.0348 -0.2306
85523W        W86387   4.834  28.091   2.127 -0.3383 -0.1455  0.1963
85524W        W86388  20.360   9.379   6.198  0.0944  0.0611  0.2577
85525W        W86389   0.467  23.793   7.621  0.2053 -0.0104 -0.1053
85526W        W86390   5.988   2.330   2.291 -0.3310  0.3102  0.0396
85527W        W86391  26.463  28.611  21.336 -0.0836  0.2025 -0.2934
85528W        W86392   7.363   4.627  16.354 -0.0995  0.0395 -0.1480
85529W        W86393   7.528   5.338  25.129  0.0079 -0.2464  0.0860
85530W        W86394   4.284  28.059   2.224  0.1957 -0.0758 -0.2399
85531W        W86395  19.337  12.573   8.445  0.0637  0.0998 -0.0206
85532W        W86396  21.439  27.660   8.118  0.0200  0.0238 -0.1563
85533W        W86397  15.141  12.817  15.114 -0.1020 -0.1653 -0.2456
85534W        W86398   4.108   2.605   7.435 -0.2643 -0.1566  0.1413
85535W        W86399  27.171  19.292   7.098  0.1428  0.1494  0.0495
85536W        W86400  21.058  26.395  15.113 -0.0696  0.3568 -0.0538
85537W        W86401  25.694  15.690  18.194 -0.0034 -0.3089 -0.3209
85538W        W86402   0.921  13.799  26.304  0.2804  0.1263  0.0909
85539W        W86403  26.158   2.669   4.289 -0.1897  0.0820  0.0743
85540W        W86404  24.223  22.204  21.206  0.1300 -0.0581  0.1044
85541W        W86405   6.279  12.354   5.532  0.2971  0.0462 -0.0245
85542W        W86406  12.671   8.478  28.204 -0.1164 -0.0765 -0.0856
85543W        W86407   9.862   3.051  20.897 -0.2523 -0.1207  0.3090
85544W        W86408  19.229   9.267  28.785  0.0721  0.0454 -0.3747
85545W        W86409  24.001   3.612   2.411  0.0638  0.2201  0.0485
85546W        W86410  22.073  28.017  23.968  0.0834 -0.2221  0.0211
85547W        W86411  23.404   8.655  24.001 -0.1257 -0.0598 -0.5597
85548W        W86412  14.803   7.035   9.021  0.2690  0.1391  0.3915
85549W        W86413  15.749  12.955   4.812  0.0056 -0.1927  0.0835
85550W        W86414  18.226   2.812  26.223  0.0223 -0.3196 -0.0211
85551W        W86415  22.722   3.785  10.798 -0.0971 -0.1305  0.2296
85552W        W86416  15.687  17.659  23.652 -0.1345 -0.2212  0.0855
85553W        W86417  11.010   3.068  19.234  0.2352 -0.2781  0.1168
85554W        W86418   4.438  26.465  28.304 -0.0254 -0.0890 -0.2396
85555W        W86419  25.751  28.895   2.597  0.1784  0.0332  0.0379
85556W        W86420  17.104  13.709  21.012 -0.3332  0.1152  0.0334
85557W        W86421  26.874  18.192  24.565  0.0971  0.1061 -0.0852
85558W        W86422   7.153   2.940   7.327  0.3048  0.2250  0.1942
85559W        W86423   5.593  21.502   4.954  0.0067  0.0932 -0.0713
85560W        W86424  26.497   0.439   8.409 -0.0846 -0.0186  0.0591
85561W        W86425   1.451  15.724   6.090 -0.0252 -0.1926  0.0233
85562W        W86426   0.337   4.622  26.393 -0.1360 -0.1145 -0.0952
85563W        W86427  21.913   0.759   3.768  0.1293 -0.2331 -0.0737
85564W        W86428  22.747  11.001   2.767  0.2394 -0.1496 -0.1157
85565W        W86429  29.059  24.668  10.912 -0.0057 -0.1706  0.2305
85566W        W86430   2.083   5.541  23.978 -0.0557  0.0363  0.1193
85567W        W86431  20.286  12.819  20.136 -0.1886 -0.1362 -0.5129
85568W        W86432  18.271  22.148  16.775 -0.4861 -0.0311 -0.0831
85569W        W86433  24.694  18.106   7.456  0.3616  0.0210 -0.2296
85570W        W86434  15.425  18.315   7.005 -0.2980 -0.0911  0.0366
85571W        W86435   7.121  16.201   1.040  0.0255 -0.2602  0.0211
85572W        W86436   4.745   1.160   8.533  0.2164 -0.1741 -0.2884
85573W        W86437   7.054  15.858  23.137  0.3057 -0.1681 -0.1160
85574W        W86438   8.551  12.456  23.886 -0.0543 -0.1707 -0.0077
85575W        W86439  15.630  22.349   1.584  0.3005 -0.3335 -0.1580
85576W        W86440  28.819  16.394  28.034 -0.0457  0.1694  0.0271
85577W        W86441  25.876  23.480  13.173  0.0942  0.0730  0.0645
85578W        W86442  26.741   5.003   1.371 -0.0047  0.1703 -0.1710
85579W        W86443  23.100  13.017  18.593  0.3011  0.3191  0.0377
85580W        W86444   2.896  20.366  21.004 -0.2192 -0.0642 -0.2453
85581W        W86445  23.605  13.622   5.829 -0.1029  0.5515 -0.2919
85582W        W86446  24.097  19.127  17.247 -0.0214  0.2305  0.0347
85583W        W86447   1.693  26.592   3.258  0.2291  0.1284  0.0425
85584W        W86448   4.652   0.074  26.292 -0.2923  0.0726  0.0605
85585W        W86449  23.763   8.455   3.964 -0.0523  0.0755 -0.3670
85586W        W86450  17.554  25.075   5.625 -0.1262 -0.2996  0.0255
85587W        W86451   8.371   1.185  22.401 -0.0481 -0.1851  0.0545
85588W        W86452  27.238  13.468  21.252 -0.1069  0.0601 -0.2434
85589W        W86453   6.394  12.175  15.298  0.1022  0.0965 -0.1420
85590W        W86454  15.039  16.449  12.100 -0.2519 -0.0889 -0.1635
85591W        W86455  24.261  17.018  27.250  0.0525 -0.0374  0.0778
85592W        W86456  23.188  11.459  18.447 -0.1151 -0.0213  0.0966
85593W        W86457  14.852   7.324  13.710 -0.1437  0.3618  0.0205
85594W        W86458  11.321  26.369  14.400 -0.0019  0.3181  0.0610
85595W        W86459  29.051   6.837  10.183 -0.2213  0.2023 -0.1729
85596W        W86460  27.088   5.443   8.182  0.2145  0.2112 -0.1317
85597W        W86461  15.217  17.239  17.491  0.0399  0.1662  0.0587
85598W        W86462   8.931  18.196   4.926  0.0537 -0.2154  0.1546
85599W        W86463  11.193   3.410  28.783  0.0560 -0.1802  0.1534
85600W        W86464  26.186  13.021  25.294 -0.2566 -0.0085  0.1019
85601W        W86465  26.214  17.306  27.549 -0.0022 -0.1233 -0.1488
85602W        W86466  24.000   5.967   9.096  0.2250 -0.0347  0.2175
85603W        W86467   5.822  10.330   5.115  0.1528 -0.0088 -0.0751
85604W        W86468  11.799   5.053  10.853  0.3571 -0.0149  0.2332
85605W        W86469   3.982  25.772  29.133 -0.0125 -0.0257 -0.1015
85606W        W86470  18.521   9.584   1.513  0.3965  0.0645  0.0345
85607W        W86471  19.551   7.973  21.729 -0.0321 -0.1247  0.0506
85608W        W86472  11.511   2.706  25.149  0.1513  0.2432 -0.1355
85609W        W86473  27.373   9.189   9.450  0.1096  0.1077  0.2250
85610W        W86474  24.472  27.379   5.407  0.1191 -0.2561 -0.2067
85611W        W86475  25.578  17.615   4.227  0.0838 -0.0020  0.2344
85612W        W86476   2.913   2.533  27.571  0.0072  0.1523 -0.2696
85613W        W86477  25.368  23.090   6.236  0.0173  0.1467 -0.0223
85614W        W86478   8.778  15.745  21.051 -0.2487  0.1606  0.1045
85615W        W86479  27.297   8.303   6.519 -0.0048 -0.1356 -0.2932
85616W        W86480   3.878  16.368   7.754  0.2645 -0.0504 -0.0187
85617W        W86481  23.337  27.819   0.134 -0.0979  0.0798  0.1134
85618W        W86482  16.864  25.890   3.682 -0.0267  0.0637 -0.1743
85619W        W86483  20.297  18.749  24.135  0.1818  0.1132 -0.2248
85620W        W86484  26.236  23.129  13.985  0.0657  0.1002 -0.1839
85621W        W86485  21.806   5.659  23.871 -0.0105  0.1820  0.3466
85622W        W86486   5.025  19.429   3.322  0.2189  0.1404  0.0399
85623W        W86487   0.478   2.226   7.240 -0.0822  0.0952  0.1857
85624W        W86488  10.347  25.740  11.109  0.2000  0.0549  0.0395
85625W        W86489  20.917   6.066  12.562 -0.2714 -0.0809  0.0937
85626W        W86490  16.946  11.801   4.733  0.1512  0.2024  0.2830
85627W        W86491  18.301  12.306   6.480 -0.3136 -0.2427  0.1645
85628W        W86492  10.778   5.682  16.214  0.0670  0.1045 -0.1238
85629W        W86493  14.554   6.620  12.963 -0.3621  0.0702  0.2282
85630W        W86494   3.792  17.898  13.936 -0.0186 -0.1033  0.0597
85631W        W86495   1.966  17.574   6.080 -0.4301  0.2496  0.0471
85632W        W86496  11.086  13.173  25.096 -0.0039 -0.0964 -0.0164
85633W        W86497  18.631   3.878   3.306  0.1715  0.0144 -0.1286
85634W        W86498  12.781  13.842  26.284 -0.0469 -0.0006  0.3073
85635W        W86499   3.432  11.771   4.669 -0.1974  0.2496 -0.0595
85636W        W86500  26.932  19.745  17.806  0.2081 -0.2021 -0.3635
85637W        W86501  28.819   0.201   4.965 -0.0104 -0.1031  0.1623
85638W        W86502  12.723  18.262  11.828 -0.0125 -0.2910 -0.0837
85639W        W86503  24.498  25.992  16.100 -0.0057  0.1963 -0.0515
85640W        W86504  24.983   6.353  22.426 -0.1617 -0.2641 -0.2347
85641W        W86505  20.602   3.738  23.848 -0.1795 -0.2733 -0.1550
85642W        W86506  10.062   8.208  16.470  0.0461 -0.1036 -0.1699
85643W        W86507  20.081   6.807   2.879  0.0466 -0.1600  0.1474
85644W        W86508   2.558  28.619   7.639  0.1516 -0.2695  0.1406
85645W        W86509  29.042  12.472  27.024  0.3384 -0.2499  0.1572
85646W        W86510   8.947  10.321  21.118  0.4284 -0.0806 -0.3068
85647W        W86511  27.041  10.794   4.179 -0.0536 -0.0516 -0.0347
85648W        W86512  28.314  20.499  27.692  0.2540  0.1181  0.0503
85649W        W86513  18.383   4.440   7.450  0.4105 -0.1703  0.0916
85650W        W86514  27.066   4.250   4.258 -0.1571 -0.0397 -0.3481
85651W        W86515  22.900   8.824   2.362  0.1658  0.0273 -0.0847
85652W        W86516  14.927   6.013   0.584  0.0399  0.0796 -0.0150
85653W        W86517  15.317  13.307  23.593 -0.2721  0.0027 -0.0446
85654W        W86518   8.322  26.461   0.625  0.1451  0.4215 -0.1598
85655W        W86519  25.837  12.496  12.835  0.0242  0.2936 -0.0165
85656W        W86520  14.547   6.131   8.268 -0.1777 -0.1240 -0.3498
85657W        W86521   3.259  19.371   6.810 -0.1157  0.0661 -0.1782
85658W        W86522  17.247   2.735   9.857 -0.0782 -0.3004 -0.2720
85659W        W86523  23.703  29.101  13.961  0.1290 -0.1532 -0.4388
85660W        W86524  26.536   2.298   3.341  0.2987  0.2522  0.0032
85661W        W86525   4.584   8.376  28.989 -0.1013 -0.1143 -0.2966
85662W        W86526   6.157   1.590  22.681  0.0186 -0.0094 -0.0997
85663W        W86527   5.869  28.177   8.599  0.0602 -0.0441  0.0531
85664W        W86528   2.330   8.563  21.540 -0.2423 -0.2221 -0.2846
85665W        W86529  10.693  23.015   0.718 -0.0605 -0.0733  0.0167
85666W        W86530  20.173   4.660  27.536 -0.1658 -0.1861 -0.1289
85667W        W86531   0.351  19.790   8.559  0.1600  0.2286  0.3886
85668W        W86532   1.067  13.426  12.349 -0.2090 -0.0122 -0.1034
85669W        W86533  17.135   7.397  12.066  0.2161 -0.4057 -0.2459
85670W        W86534  15.936   3.965  20.620 -0.3365  0.0389 -0.2517
85671W        W86535   5.888   6.259  15.585  0.1249  0.1752  0.2747
85672W        W86536  28.493  10.028  24.253 -0.0444  0.1183 -0.1965
85673W        W86537  27.708  27.328   1.252  0.0335  0.0876  0.3197
85674W        W86538  26.707   6.555   0.967  0.1322  0.0731 -0.0242
85675W        W86539   7.619   1.319   6.975 -0.1262 -0.1000  0.0615
85676W        W86540   9.113   3.180   9.993 -0.2619  0.1032 -0.1057
85677W        W86541  27.976   6.933  11.081  0.2147  0.1379  0.0817
85678W        W86542  16.550  13.264  20.329  0.1105 -0.0920 -0.0954
85679W        W86543  16.909  21.285   4.670  0.1759  0.0221 -0.0197
85680W        W86544  23.088  19.946   6.438 -0.0997 -0.0309  0.0053
85681W        W86545  21.040   4.192  26.740 -0.1147 -0.1185  0.0409
85682W        W86546   5.747  21.081  22.742  0.1822 -0.1148 -0.1000
85683W        W86547  20.952  28.099   3.048 -0.2612  0.2604 -0.2052
85684W        W86548   2.816   5.289  24.652 -0.1076 -0.2624  0.1425
85685W        W86549  12.883  10.487  11.372  0.0823 -0.1492 -0.1655
85686W        W86550  25.389  16.309  24.236  0.2750  0.1161 -0.0466
85687W        W86551  17.252   2.096  16.455  0.1657 -0.0289 -0.2085
85688W        W86552   6.966  25.477  21.043 -0.3364 -0.0413 -0.0902
85689W        W86553  24.564  15.169  18.437  0.0400 -0.1401 -0.4444
85690W        W86554   8.810  12.863  27.952 -0.1823 -0.1159 -0.0062
85691W        W86555  20.284  29.032   5.475 -0.1751  0.0339 -0.0492
85692W        W86556  20.427  12.503  21.474  0.4491  0.2541 -0.5187
85693W        W86557   2.425   2.133  17.278 -0.1451 -0.1067 -0.0883
85694W        W86558  24.267  19.316  23.402  0.1090 -0.1924  0.2188
85695W        W86559   6.834  21.493  11.809 -0.1478 -0.0400  0.0785
85696W        W86560   4.262  23.428  26.317  0.1548 -0.0779 -0.1263
85697W        W86561  15.092  29.116  26.919 -0.1725  0.0072  0.0185
85698W        W86562  14.235   1.753   5.035  0.0149 -0.1974 -0.0821
85699W        W86563  25.341  19.483  15.890 -0.1444 -0.0670  0.1492
85700W        W86564  21.051  10.987   0.759 -0.0612 -0.0266 -0.2169
85701W        W86565  28.874   9.890   7.765  0.2259 -0.1407 -0.1675
85702W        W86566  23.977  12.140   1.227  0.1631 -0.0579 -0.0533
85703W        W86567   2.822  21.362  13.518  0.3625 -0.2833  0.3543
85704W        W86568  26.375   8.173   1.116  0.1321  0.3510  0.2470
85705W        W86569   3.881  29.135   0.852 -0.0603  0.2629  0.0691
85706W        W86570  17.745  25.454  11.254  0.1560  0.0592 -0.0310
85707W        W86571  26.474   3.802   8.698  0.1205 -0.0089  0.3735
85708W        W86572   6.084  18.238   7.726  0.1403 -0.0050  0.1404
85709W        W86573  19.874   7.625  25.568  0.0878  0.1722 -0.2376
85710W        W86574  13.761  26.887  28.801  0.0261  0.0711 -0.1616
85711W        W86575   9.153   9.596   5.406 -0.0218 -0.5486 -0.0467
85712W        W86576   6.663  16.577  24.427  0.2644 -0.1338 -0.1562
85713W        W86577   1.518  12.236  13.890 -0.1125 -0.2593 -0.2826
85714W        W86578   3.696   2.472   2.538  0.2452 -0.0580 -0.0935
85715W        W86579  28.178   4.624   9.755 -0.2275  0.2676 -0.1087
85716W        W86580  15.966   3.629   1.132  0.1136 -0.1906 -0.0467
85717W        W86581  21.521  13.279  19.759  0.1642 -0.0769  0.0417
85718W        W86582  14.969  20.379  17.686  0.0860 -0.0577 -0.0707
85719W        W86583  16.905   4.077   8.379 -0.0861 -0.2285 -0.1722
85720W        W86584  11.611   6.619  28.899 -0.1623  0.1958 -0.4902
85721W        W86585  14.496   1.400  26.595  0.0316  0.0773  0.2236
85722W        W86586   9.724  14.490  26.245  0.2166  0.0304  0.2239
85723W        W86587  13.324   3.929  27.566 -0.3927 -0.1144 -0.0383
85724W        W86588  13.430  29.001  24.932 -0.1056 -0.1124  0.2204
85725W        W86589   2.430  18.519  16.755 -0.0073 -0.2336 -0.0529
85726W        W86590  26.252  15.859  18.773 -0.3478  0.3194  0.0699
85727W        W86591  28.061  20.928  28.929 -0.2041 -0.0613 -0.2233
85728W        W86592  22.584   9.926  13.856  0.1493  0.2465  0.0005
85729W        W86593   8.084  11.082   8.154 -0.1701 -0.0143 -0.1135
85730W        W86594  19.598  23.570   4.413 -0.0366 -0.2207 -0.1058
85731W        W86595   4.062  13.772  11.779 -0.3202  0.0912 -0.2842
85732W        W86596  25.499   0.266   2.269 -0.1625  0.1048  0.2130
85733W        W86597  25.471   0.058  27.113 -0.0989  0.1789  0.1454
85734W        W86598  28.230  18.991  13.373  0.2582 -0.0470 -0.0638
85735W        W86599  21.728   9.817  27.131 -0.0433 -0.0628 -0.0713
85736W        W86600  16.359  16.174  25.370  0.1269  0.2507 -0.1201
85737W        W86601  25.098  20.417   2.471 -0.1886 -0.0214 -0.0930
85738W        W86602  24.214  17.759   5.003 -0.0148 -0.2737  0.1853
85739W        W86603  21.422   0.380   9.969  0.1612  0.2344 -0.1820
85740W        W86604  25.287  23.531  23.646 -0.2075  0.0450  0.1621
85741W        W86605  21.907  10.261   4.357 -0.0279  0.1975 -0.0137
85742W        W86606  27.258  28.079  22.696 -0.1621 -0.0298 -0.1444
85743W        W86607   4.544  19.279  11.760  0.4275  0.1133 -0.3143
85744W        W86608   1.650  13.740  25.165  0.0329 -0.2068  0.0786
85745W        W86609   3.729  10.334  20.444  0.1502 -0.2838  0.2336
85746W        W86610   5.971   3.437   1.207 -0.0816  0.1615 -0.3232
85747W        W86611  27.048  14.018   5.379  0.3178 -0.0550 -0.0757
85748W        W86612   1.821   6.615  27.066 -0.1376 -0.2387  0.0169
85749W        W86613   2.119  13.406   3.672 -0.2121 -0.1321 -0.2926
85750W        W86614   7.765   6.203  20.497 -0.3040  0.2068 -0.5564
85751W        W86615  22.160  14.010  10.575  0.0317 -0.2209 -0.1444
85752W        W86616  10.373  24.103  18.768 -0.1471 -0.4425  0.0358
85753W        W86617  27.322   6.150   1.423 -0.1910 -0.0555  0.3024
85754W        W86618  23.623  15.390  16.907  0.0768  0.3112  0.3329
85755W        W86619  16.520   2.157  28.268  0.1220 -0.1821 -0.0808
85756W        W86620   7.091   8.364   1.449  0.1400 -0.2670 -0.2873
85757W        W86621  22.570  11.185  27.295  0.0073  0.2706 -0.1013
85758W        W86622   2.223   3.143  17.443  0.2235  0.1212 -0.0233
85759W        W86623   3.932  25.390   3.590  0.1466 -0.1581 -0.1047
85760W        W86624   3.829   1.684  11.785  0.2690 -0.1945  0.0131
85761W        W86625   1.442  21.968  23.822  0.0584 -0.0490 -0.0505
85762W        W86626  11.855  20.382  28.210  0.1096  0.2152  0.0071
85763W        W86627  26.621   7.708   9.550  0.1570 -0.0618  0.2843
85764W        W86628  10.075  21.767  24.787  0.1722 -0.1668  0.1028
85765W        W86629  25.269  21.082  22.487  0.0374  0.1202  0.1173
85766W        W86630  11.986  11.069   6.177  0.0088  0.0991  0.1223
85767W        W86631  22.408  27.734   9.279  0.4806  0.3675 -0.0970
85768W        W86632  14.357   7.313   9.672 -0.3349  0.1007 -0.0762
85769W        W86633   2.445  23.167  12.678  0.1126  0.1980  0.0478
85770W        W86634  25.351  25.094  29.077 -0.2272 -0.1349 -0.0745
85771W        W86635   5.482  10.878  27.346  0.0958 -0.4434  0.0078
85772W        W86636  23.591   0.099  11.428  0.3302 -0.0520 -0.0966
85773W        W86637  15.496  18.524   8.597  0.3735  0.0957  0.4332
85774W        W86638   4.775   1.357  27.874  0.3846  0.1685 -0.3581
85775W        W86639  22.929  15.846  26.329  0.2805 -0.0990 -0.1536
85776W        W86640  25.141  19.782  10.940  0.0796  0.1957  0.1711
85777W        W86641  22.162   9.431   5.259  0.0351 -0.2569 -0.1636
85778W        W86642   0.440  27.646  11.190 -0.0857 -0.1561  0.1214
85779W        W86643   9.185  15.186  27.432 -0.0305  0.5534  0.0011
85780W        W86644  10.754  17.918   5.427 -0.2297 -0.0700  0.0822
85781W        W86645  20.182  26.796  12.296 -0.0343  0.1446  0.1587
85782W        W86646  22.689   6.020   3.822  0.1351  0.0878 -0.3128
85783W        W86647  12.196   9.825   5.311 -0.0575  0.0599 -0.2764
85784W        W86648   1.477   4.356  18.635  0.1354  0.0147 -0.2001
85785W        W86649  28.163   4.074  14.923 -0.0045  0.0573  0.1555
85786W        W86650  27.132  18.680   5.011 -0.0230  0.3136 -0.2345
85787W        W86651   6.923   3.985   4.747  0.0641  0.4395  0.0810
85788W        W86652  25.455  20.104  24.656 -0.2190  0.1494 -0.4093
85789W        W86653  28.507   5.427  11.969 -0.0965  0.1745  0.1901
85790W        W86654   0.303   6.317   3.999 -0.1441 -0.0690 -0.0339
85791W        W86655  13.125  21.727  11.221 -0.1266  0.0789 -0.1706
85792W        W86656  27.407   7.332   9.674  0.0430  0.1819  0.3161
85793W        W86657  15.073  24.187  13.097  0.1211  0.1886 -0.1617
85794W        W86658   4.715   0.446   0.736 -0.0069  0.1684  0.0603
85795W        W86659  27.728  25.639  11.314 -0.0691 -0.1516  0.2128
85796W        W86660   2.983   4.173  20.895  0.0759 -0.2228 -0.2206
85797W        W86661  21.095  13.601   8.709 -0.1257  0.3198  0.3135
85798W        W86662   2.660   1.600   6.440 -0.2191  0.1297 -0.1838
85799W        W86663  13.448  10.240  15.271 -0.0639 -0.0007  0.0152
85800W        W86664   9.342   6.026   2.764  0.2007 -0.2018 -0.1148
85801W        W86665   3.639  16.075  16.854  0.0486 -0.0219 -0.0559
85802W        W86666   2.981   3.852  26.509 -0.0321  0.0191  0.1597
85803W        W86667  13.401   8.435  12.265  0.4151  0.2343  0.0706
85804W        W86668   0.324  11.795  27.770 -0.1515  0.2199  0.1158
85805W        W86669  16.077   1.770  23.175 -0.1406 -0.0531 -0.3340
85806W        W86670   8.577  18.214  22.702 -0.0225  0.0576  0.0896
85807W        W86671  24.085  16.340  17.979 -0.2041 -0.5946  0.0324
85808W        W86672  28.414  19.918  23.114 -0.0307 -0.1204 -0.0648
85809W        W86673  20.731   8.768   8.882  0.0165  0.0013 -0.2683
85810W        W86674  13.632  12.132   3.195  0.0485  0.0396 -0.1271
85811W        W86675   6.710  21.082   3.470 -0.1960  0.2731  0.0796
85812W        W86676   6.334  14.453  17.335  0.2913  0.1519  0.1736
85813W        W86677  25.625  23.976  25.086 -0.2223 -0.0270  0.0296
85814W        W86678  22.319  21.414  22.440 -0.2422 -0.2132  0.0555
85815W        W86679  22.642  14.892  12.409  0.0419 -0.1237  0.1263
85816W        W86680  28.225  14.567  15.433  0.3061  0.3041  0.1751
85817W        W86681  26.384   5.706  10.484  0.0144  0.1058 -0.0856
85818W        W86682  20.785  22.333  13.013  0.0046 -0.0162  0.1975
85819W        W86683  14.448   3.441  19.357 -0.1585 -0.2207  0.1811
85820W        W86684   5.442  13.236  17.669 -0.1737 -0.0732 -0.0076
85821W        W86685   9.044   6.476   1.099 -0.3349 -0.2028 -0.0511
85822W        W86686  25.748  24.764   4.929  0.1032  0.2666 -0.2243
85823W        W86687   1.145   1.122  23.948 -0.2537 -0.4591  0.0968
85824W        W86688  19.391   1.644   9.601 -0.1544  0.0546 -0.0106
85825W        W86689  24.564  15.114  27.425  0.2682  0.1410 -0.1481
85826W        W86690  23.836  19.401  11.135 -0.0581 -0.0953 -0.2300
85827W        W86691  23.288  21.369   2.234 -0.1347  0.1406 -0.0333
85828W        W86692   5.998   6.023  25.007  0.0984 -0.0912  0.0932
85829W        W86693  27.449  20.267  26.161 -0.1228  0.0535 -0.2683
85830W        W86694   2.525  16.696   4.992 -0.1051 -0.0457 -0.2178
85831W        W86695  18.479   3.333  20.855 -0.2241 -0.0958  0.3611
85832W        W86696  19.402   7.408  29.109  0.0050  0.2164 -0.1999
85833W        W86697   0.372   8.273   3.041 -0.5026 -0.0434 -0.1367
85834W        W86698   7.882  17.693   3.904 -0.0593  0.2378  0.3159
85835W        W86699  23.784   9.051  26.775  0.2298 -0.1287 -0.1307
85836W        W86700  24.057  28.232   0.513 -0.2489  0.0064 -0.1591
85837W        W86701   7.532   0.676  21.791 -0.0145 -0.2818  0.0415
85838W        W86702  16.307  21.312   9.910 -0.0729  0.0502 -0.0323
85839W        W86703   0.263  20.375  28.683 -0.0540  0.0905 -0.4371
85840W        W86704  18.479  11.206   1.753  0.1587  0.0862  0.0363
85841W        W86705   0.335  23.344  23.060  0.1282  0.4210  0.1386
85842W        W86706  14.177  25.098  22.704 -0.0258 -0.0530 -0.1250
85843W        W86707  22.905   4.531   6.850 -0.0969  0.1136  0.1988
85844W        W86708   4.765  20.567   7.256 -0.2236 -0.2998  0.0943
85845W        W86709   3.025   2.987   7.927 -0.1224 -0.0654  0.0251
85846W        W86710  25.530  15.111  20.163  0.0215 -0.1070  0.0053
85847W        W86711   5.783  23.769  10.324  0.2814  0.1097 -0.0336
85848W        W86712  26.401  28.109   4.861 -0.1143  0.0515 -0.0681
85849W        W86713  26.657   4.127  26.039  0.0724 -0.0327  0.2465
85850W        W86714   8.907   9.429   5.908  0.0626 -0.3185 -0.2503
85851W        W86715  24.109  26.947  27.573  0.1027 -0.1171  0.0630
85852W        W86716   1.334  19.023  11.267  0.0428 -0.0070 -0.3961
85853W        W86717   0.144  16.775  18.165 -0.1039 -0.5713 -0.2512
85854W        W86718  18.631  11.859   6.586  0.3338 -0.2061  0.4317
85855W        W86719   7.591  27.275  16.032 -0.3604  0.2872  0.3500
85856W        W86720   9.282   1.536  20.195  0.0691 -0.3301  0.1423
85857W        W86721  13.375  11.851  19.323 -0.0479 -0.3584 -0.0665
85858W        W86722  23.564  13.953  24.236  0.0026 -0.2551 -0.1843
85859W        W86723  26.492   7.344   3.713 -0.1076 -0.2753 -0.0288
85860W        W86724  22.259   9.878  25.753  0.2127 -0.0608 -0.0974
85861W        W86725  14.004  18.315  22.823  0.1165 -0.1196  0.2266
85862W        W86726   5.103  27.374   5.230  0.0123 -0.2865  0.1479
85863W        W86727   6.543  24.851  20.461 -0.0379 -0.0328  0.2325
85864W        W86728   6.552  21.842  10.240 -0.0369 -0.4245  0.0065
85865W        W86729  25.580   3.986   3.417  0.3286 -0.0342 -0.3042
85866W        W86730  21.590  20.841   7.109  0.0527 -0.2375  0.0352
85867W        W86731   7.993  27.364  22.867  0.1213 -0.0573 -0.0792
85868W        W86732  28.623  20.612   0.178 -0.0595  0.0736 -0.1574
85869W        W86733  12.669  26.449   6.731 -0.1854  0.1170  0.3250
85870W        W86734  27.341   6.526  28.048 -0.2586  0.2290  0.3549
85871W        W86735   8.204  15.635   1.213  0.2506 -0.0907  0.0479
85872W        W86736   5.855   8.657  28.606 -0.0603 -0.2426 -0.0020
85873W        W86737  15.732  22.551  10.210  0.0478 -0.0052 -0.0056
85874W        W86738  11.489   7.012  14.127 -0.0998  0.0451 -0.0540
85875W        W86739  14.970  11.178   2.407  0.1591  0.2826  0.1421
85876W        W86740  19.146   7.023   9.203 -0.1055  0.2770  0.2546
85877W        W86741  28.592   5.033  16.297 -0.2276  0.0766 -0.0334
85878W        W86742  22.171  12.394   2.191  0.1965 -0.0177 -0.0304
85879W        W86743  27.531   3.787   8.199  0.0215  0.1297  0.3703
85880W        W86744  26.007  17.213  16.755  0.1032  0.0753  0.2997
85881W        W86745   1.358  16.455   8.195 -0.1172 -0.0897  0.0545
85882W        W86746  21.859   3.913  27.209  0.1406  0.0508 -0.0356
85883W        W86747   4.418  26.656   8.184 -0.1373 -0.0940 -0.1127
85884W        W86748   5.430  15.790  25.170  0.0213  0.1082  0.1730
85885W        W86749   6.460  14.207  23.002  0.1781 -0.2178 -0.0901
85886W        W86750   2.544   9.747  18.337 -0.0834 -0.0544  0.0028
85887W        W86751   0.286  11.067  19.680 -0.0798 -0.1683 -0.0016
85888W        W86752  12.541  11.533  19.834 -0.1731  0.1749  0.0874
85889W        W86753  17.159   7.424  24.382  0.2617 -0.1521  0.1896
85890W        W86754   9.514   6.179   5.413 -0.0234 -0.2122 -0.1846
85891W        W86755   1.238  21.526  19.774 -0.1451  0.0331 -0.1386
85892W        W86756   3.917   8.841   7.057 -0.0148  0.3344  0.2400
85893W        W86757  19.973  16.622  19.157 -0.1023 -0.2901  0.0337
85894W        W86758   5.036   0.195   3.301 -0.4264 -0.0888  0.1615
85895W        W86759  11.796  18.633  14.093 -0.1572  0.2311  0.0782
85896W        W86760  20.598   4.265  24.802  0.1048 -0.1232 -0.2061
85897W        W86761   4.718  12.549  16.717 -0.1089  0.0959  0.4119
85898W        W86762   3.853  13.969   1.105 -0.0985  0.1042  0.2135
85899W        W86763   3.661   1.978  17.199 -0.2332  0.1469 -0.1152
85900W        W86764  21.963  21.769  19.616  0.4127 -0.3061  0.4001
85901W        W86765  21.604  22.514  22.990 -0.1128  0.1876  0.0348
85902W        W86766  21.316   4.617  13.363  0.1314  0.1954 -0.5722
85903W        W86767  19.253   5.303   6.500 -0.0486 -0.2261  0.0556
85904W        W86768   4.831  22.090  25.142 -0.1545 -0.0868  0.0354
85905W        W86769  16.672   4.133   7.138 -0.1473  0.1228 -0.1333
85906W        W86770  12.288  26.789   8.977 -0.0790 -0.1357 -0.1695
85907W        W86771   1.072  13.160  23.356 -0.0568 -0.1819 -0.1749
85908W        W86772   0.415  13.169   7.292 -0.4562 -0.1472  0.3029
85909W        W86773  26.231  28.699   7.543  0.3422 -0.0896 -0.2286
85910W        W86774  19.531   8.470   4.620  0.0503  0.1381 -0.1089
85911W        W86775   7.563  26.615   0.779 -0.1378  0.0039 -0.0459
85912W        W86776  15.103   0.115  25.076 -0.0587  0.1228 -0.3886
85913W        W86777  11.679  21.234   0.294 -0.2979  0.1012 -0.2047
85914W        W86778  28.691   1.809   8.257 -0.3313 -0.0734  0.1012
85915W        W86779  27.778  11.036   4.420  0.2061 -0.0676  0.0841
85916W        W86780   1.778  14.397   2.584  0.0592  0.0442  0.0611
85917W        W86781   0.754   5.599   5.540  0.1392 -0.0368  0.0222
85918W        W86782  13.180  18.955  20.337  0.1126  0.2596  0.1318
85919W        W86783   4.182  10.897  23.184  0.0484 -0.2169  0.1159
85920W        W86784   5.462  20.861  27.533 -0.0738 -0.2479  0.0841
85921W        W86785   0.163   9.373   2.910 -0.2054  0.0654 -0.0508
85922W        W86786  28.292  26.641  19.125  0.1512  0.0922 -0.0972
85923W        W86787  27.464   2.494   2.073  0.0880  0.0163 -0.1773
85924W        W86788  26.596  13.098  26.004  0.0124  0.1472  0.1428
85925W        W86789  25.589   8.275   9.114  0.1097  0.0507  0.0255
85926W        W86790  28.032  19.635  20.845  0.2810  0.2426 -0.0391
85927W        W86791  10.598  10.792  21.320  0.1220  0.2985  0.5033
85928W        W86792   8.809  14.347   9.017  0.0738 -0.2110 -0.1762
85929W        W86793  25.131   3.866  15.836 -0.1942  0.0707  0.2227
85930W        W86794  16.059   7.979   6.998 -0.1950  0.0973 -0.1988
85931W        W86795  26.068  21.587  18.594 -0.1437 -0.4459  0.3656
85932W        W86796   7.307  11.372  28.838 -0.0960 -0.0318  0.0248
85933W        W86797  18.306   6.499  13.709  0.1773  0.1784  0.0618
85934W        W86798  26.393  22.393  16.957  0.2385  0.1484 -0.2289
85935W        W86799   3.629  12.965  11.305  0.0256  0.0945 -0.2634
85936W        W86800  14.957   0.521  17.471  0.3128  0.2647 -0.0134
85937W        W86801  27.178   2.271  19.205  0.2601  0.1215 -0.1496
85938W        W86802   6.376   3.828  11.559  0.4284  0.6068 -0.2595
85939W        W86803   3.896  22.206  13.172  0.3961 -0.1994 -0.0023
85940W        W86804   5.956  14.970  28.238  0.1487  0.0795 -0.3117
85941W        W86805   7.217  10.088  27.067 -0.1785 -0.3601  0.1989
85942W        W86806  11.158  16.204  23.900 -0.1699  0.1698 -0.2091
85943W        W86807   5.011  29.115   6.429  0.0424  0.3425 -0.1322
85944W        W86808  26.198  27.057  18.347 -0.2166 -0.5584 -0.1865
85945W        W86809  14.480  20.666  12.356  0.4438 -0.0551 -0.1834
85946W        W86810  28.014  21.052  20.708 -0.2686 -0.1704  0.4341
85947W        W86811   3.366  11.189   2.109  0.0828  0.0801  0.2382
85948W        W86812  14.301  27.214   6.873 -0.0042 -0.1893  0.1369
85949W        W86813  19.704  17.383   4.581 -0.1448  0.2801 -0.0587
85950W        W86814  19.875  23.483   1.906 -0.2364  0.0136  0.2167
85951W        W86815   7.158  21.568  17.562  0.2517  0.0909  0.1553
85952W        W86816  14.356   1.333  25.370 -0.1532 -0.0132  0.1603
85953W        W86817   2.396  26.697  13.315 -0.1490 -0.2805  0.1619
85954W        W86818  20.159   6.996   3.449  0.1548 -0.0635  0.2618
85955W        W86819  12.333   4.111  11.668 -0.1818  0.0484  0.0093
85956W        W86820   2.819   3.883  24.441 -0.1950  0.1088 -0.2832
85957W        W86821   7.544   0.450   6.962  0.3657  0.1049  0.1455
85958W        W86822  11.166   8.370   0.922 -0.0818  0.1831 -0.0967
85959W        W86823   0.844  13.377   4.032 -0.1078 -0.1165  0.5031
85960W        W86824  26.056   9.502   0.829 -0.0006  0.2492 -0.0878
85961W        W86825  18.679  16.790   2.573  0.0595  0.1444 -0.2187
85962W        W86826  14.396  22.834   3.608 -0.2178 -0.0805 -0.1352
85963W        W86827  20.595  11.567  20.357 -0.3300 -0.3041  0.2093
85964W        W86828   7.726   1.650  20.720 -0.0632 -0.2355 -0.0491
85965W        W86829  17.712   7.647   0.980 -0.1507 -0.0913 -0.0682
85966W        W86830  17.939  27.247  27.693 -0.1208  0.1051  0.0636
85967W        W86831   2.102  16.553  23.742  0.0414 -0.0659  0.1542
85968W        W86832  19.185  14.603  28.649 -0.1819  0.1688 -0.3063
85969W        W86833  12.963   5.817  23.968 -0.0702  0.1221  0.0963
85970W        W86834  12.269  25.259   5.041 -0.0457  0.1174 -0.0717
85971W        W86835  16.962  16.964  21.474  0.2826 -0.1245 -0.1987
85972W        W86836  26.532  20.047  27.328  0.0848  0.1694  0.1282
85973W        W86837  20.455  24.727  16.124 -0.0135 -0.1614  0.0251
85974W        W86838  23.584  16.566  15.416 -0.1422  0.1317 -0.2958
85975W        W86839   6.109  21.711  28.729  0.2372  0.0672  0.4445
85976W        W86840   5.998  12.500  21.931  0.2960 -0.2527  0.0118
85977W        W86841  15.901  25.786   3.817  0.0220  0.0339 -0.1697
85978W        W86842   9.199  25.762   8.103  0.1198  0.0978 -0.1789
85979W        W86843   6.548   2.700  29.129  0.1927 -0.2400 -0.0530
85980W        W86844   6.020   6.619  16.036 -0.2251 -0.2283 -0.1273
85981W        W86845  17.166  11.079   2.786 -0.1600 -0.1471 -0.1446
85982W        W86846  25.731   5.915  24.508 -0.0599  0.0423  0.1581
85983W        W86847   1.531  10.124  25.734  0.0814 -0.0546 -0.1509
85984W        W86848  22.513   5.253   8.689 -0.0195 -0.0150  0.1168
85985W        W86849   1.501   9.711  23.566 -0.0459 -0.0136 -0.0823
85986W        W86850  13.935  14.562   1.041  0.2142 -0.1445  0.0426
85987W        W86851  19.382  20.217   3.929 -0.0599  0.1394 -0.1945
85988W        W86852  11.942   0.439  28.555 -0.2001 -0.1803 -0.1388
85989W        W86853  16.600   5.198   4.121  0.0991  0.0388 -0.0756
85990W        W86854  24.504   7.283  25.839 -0.0624  0.0859  0.0806
85991W        W86855  19.775   5.643   9.062 -0.2431 -0.1828  0.1384
85992W        W86856  17.256  16.821  23.555 -0.3257 -0.2550 -0.0373
85993W        W86857   6.763  17.799   2.865 -0.0160 -0.0354 -0.0376
85994W        W86858  27.403   8.870   3.889  0.0635 -0.0304 -0.1791
85995W        W86859   9.356   7.355   1.358 -0.0599 -0.0042 -0.0200
85996W        W86860  28.367  17.707  27.896 -0.0905  0.2310 -0.0678
85997W        W86861  16.129   8.880   5.207  0.3940 -0.1893 -0.0723
85998W        W86862   9.208   2.522  27.148  0.0408 -0.1352 -0.0328
85999W        W86863   1.188   9.684   6.238  0.0747 -0.1442  0.0779
86000W        W86864   3.464  14.685   2.238  0.2242 -0.1682 -0.0254
86001W        W86865  18.908  21.645  24.932 -0.0537  0.2432 -0.0464
86002W        W86866  16.602  27.065   2.443  0.1699 -0.3862 -0.2069
86003W        W86867  23.092  25.629  19.184 -0.0919  0.2124 -0.1640
86004W        W86868  20.807  27.619  21.880 -0.2181  0.1082  0.0984
86005W        W86869   7.923   4.685  18.118 -0.2505  0.3040 -0.0767
86006W        W86870  22.423  10.640   2.695 -0.0345 -0.3591 -0.2123
86007W        W86871  12.359  10.408  27.212 -0.1949 -0.2987 -0.1898
86008W        W86872  10.315   6.855  25.403 -0.0251  0.0585  0.1524
86009W        W86873   5.817   8.511  25.638  0.1310 -0.0151 -0.0412
86010W        W86874  22.330   9.386  10.782  0.0802  0.0666  0.0434
86011W        W86875   8.732  14.977  11.426 -0.3469 -0.1933  0.0834
86012W        W86876   7.633   9.073   5.436  0.1477  0.3400 -0.1589
86013W        W86877  17.748  11.026   4.031 -0.2154 -0.0287 -0.2127
86014W        W86878  22.961  17.764   9.136  0.0717 -0.0664  0.1702
86015W        W86879  20.200  15.200  13.886  0.0073  0.1721  0.0008
86016W        W86880  10.064   8.164  12.299  0.0250 -0.0850  0.0405
86017W        W86881  18.561  18.669   5.145 -0.0064  0.2047 -0.1700
86018W        W86882   1.428  14.099   5.014 -0.1343 -0.0666 -0.0235
86019W        W86883   7.247  23.198   1.687 -0.2270  0.2736  0.2484
86020W        W86884  26.480   5.426  18.841 -0.1122  0.0830  0.0429
86021W        W86885   2.349   5.023  24.563  0.1337  0.2209  0.1517
86022W        W86886   5.210   2.774  16.155  0.1685  0.0424  0.0823
86023W        W86887   9.589   3.226  21.923 -0.1063  0.3010 -0.0850
86024W        W86888  10.691  13.248  11.272  0.1390 -0.0459 -0.1954
86025W        W86889   5.231  23.275  15.508  0.1327  0.0438  0.1273
86026W        W86890  14.638  27.227   5.424  0.3376  0.1803  0.0570
86027W        W86891  16.309  23.440  10.201 -0.0576 -0.0691 -0.2216
86028W        W86892  21.453  10.182  21.295  0.0259 -0.0395  0.0867
86029W        W86893  12.982   7.072  17.145  0.1055 -0.0503 -0.0101
86030W        W86894  15.246  18.006  21.089  0.1830  0.0339  0.0254
86031W        W86895   8.599   1.156   3.475 -0.0180 -0.0940 -0.1861
86032W        W86896  19.764   4.067  12.631  0.1844  0.1652 -0.2205
86033W        W86897  18.577   9.332   2.445 -0.1281 -0.1379  0.1773
86034W        W86898  26.103  15.220  12.953 -0.2885 -0.0606  0.1216
86035W        W86899  13.270   3.361  28.896  0.1314 -0.0315 -0.2253
86036W        W86900   2.805   8.510   5.500  0.0177 -0.1012  0.0769
86037W        W86901   6.052  27.051  22.708 -0.1006  0.1098 -0.1357
86038W        W86902  14.119   5.438  14.531  0.1065  0.0397 -0.2660
86039W        W86903  26.049  25.717  16.908 -0.0839 -0.1496  0.0580
86040W        W86904  24.095   2.657  13.145 -0.1711 -0.2069 -0.1071
86041W        W86905  24.983  10.551   2.114 -0.2897  0.0265 -0.1219
86042W        W86906  21.893  26.405  12.092 -0.1680 -0.1204 -0.1662
86043W        W86907   0.561  15.311  10.550  0.2026 -0.0140 -0.2101
86044W        W86908  11.063  20.421   0.055  0.2547  0.1909 -0.1164
86045W        W86909  18.257   6.334  11.263  0.0174  0.2055 -0.1210
86046W        W86910  27.999  16.885  27.598  0.0617  0.3382  0.0178
86047W        W86911  25.813  14.517  16.071  0.1949 -0.2438  0.3055
86048W        W86912  22.861  14.708   9.668  0.1748  0.1026  0.4027
86049W        W86913   9.985  10.206  10.411 -0.1567  0.0248 -0.3186
86050W        W86914   9.251  22.681  12.044 -0.1436 -0.0498  0.2004
86051W        W86915   4.656  24.404   1.670  0.3469 -0.0220  0.2452
86052W        W86916  23.119  18.474  17.936  0.0264 -0.0746 -0.0323
86053W        W86917   4.849   0.302   0.231 -0.2066 -0.0283 -0.3234
86054W        W86918   5.862  17.052   6.559 -0.4459  0.1065  0.0172
86055W        W86919  28.607  25.179  20.913  0.1227  0.1483 -0.1160
86056W        W86920  23.911   2.049   3.433 -0.3517  0.2531 -0.4898
86057W        W86921  25.053   6.628  12.591 -0.1375  0.0530 -0.1793
86058W        W86922   4.855   2.986  23.898  0.1906 -0.0789  0.0034
86059W        W86923   0.025   3.482  24.701 -0.0146  0.1213 -0.0861
86060W        W86924   6.170   9.059  10.374 -0.0600  0.0953 -0.1898
86061W        W86925  14.555   6.897   9.478 -0.0523  0.0839 -0.1200
86062W        W86926  10.170   7.427   3.889 -0.2954  0.0340 -0.0497
86063W        W86927  15.012  13.553  23.948  0.3357  0.1344  0.1007
86064W        W86928  25.429   0.941   5.145 -0.1501 -0.1457 -0.1885
86065W        W86929  22.638   3.494   1.585 -0.0232  0.2479 -0.2862
86066W        W86930  12.977  25.470  26.474  0.0576 -0.3400  0.1740
86067W        W86931   3.643  26.669   0.403 -0.0821 -0.0800 -0.0263
86068W        W86932  20.618  10.883   2.363 -0.1440  0.0980  0.1684
86069W        W86933  10.396   4.678  14.257  0.2447 -0.1461 -0.0391
86070W        W86934   6.167  23.699  17.798  0.1350 -0.1801  0.1388
86071W        W86935  25.035   3.218  16.530  0.0737  0.0592  0.3367
86072W        W86936   2.327  11.448  10.448  0.0415 -0.1306  0.0308
86073W        W86937   2.767   0.147  25.354 -0.1051 -0.1087  0.1398
86074W        W86938  23.369   8.535  26.399  0.2145  0.1933 -0.0182
86075W        W86939  28.125  28.658   9.672  0.1105 -0.0383 -0.2086
86076W        W86940   6.334  27.384   7.101  0.0722  0.1516  0.0251
86077W        W86941   7.221  23.084   1.187 -0.3085  0.1831  0.0335
86078W        W86942   6.776   1.879  16.995  0.1255  0.0007  0.0757
86079W        W86943  18.052  20.242   9.365 -0.4113 -0.1885 -0.1954
86080W        W86944  24.018   4.311  18.138  0.1098  0.1324 -0.3783
86081W        W86945  25.975  28.359   1.639  0.1731  0.1175  0.1626
86082W        W86946  22.197  18.646  12.264  0.2598 -0.1348 -0.0594
86083W        W86947  21.994  18.379  20.533  0.4805 -0.1731 -0.0932
86084W        W86948  28.730  12.917   4.095  0.0210  0.0728  0.0863
86085W        W86949   2.047  20.148  12.212 -0.1623 -0.3146  0.0998
86086W        W86950  20.382  14.138   4.389  0.0722 -0.2726 -0.1590
86087W        W86951   5.083  12.737  25.031 -0.0067  0.0334  0.0819
86088W        W86952   5.947  26.791  20.998  0.0103 -0.0499 -0.0224
86089W        W86953  19.455   3.402  25.572 -0.3223 -0.1777  0.0698
86090W        W86954  23.136  12.143   6.888 -0.1878  0.0021  0.1114
86091W        W86955  15.531  22.119   6.384 -0.0346 -0.0575 -0.2051
86092W        W86956  24.849  14.404  20.169 -0.2144 -0.1165 -0.0267
86093W        W86957  26.821   0.454  18.411  0.1629  0.0379 -0.0461
86094W        W86958   0.838  18.600   5.202  0.0030  0.0827 -0.0445
86095W        W86959  18.117  22.674  24.917 -0.1421 -0.3346 -0.0704
86096W        W86960  14.881  21.757   5.737 -0.1511  0.2865  0.2663
86097W        W86961   3.415  12.209   9.732 -0.0581 -0.1457  0.0380
86098W        W86962  26.235  24.032  13.376 -0.3081  0.1346  0.0561
86099W        W86963  23.679  22.961  26.675  0.0959 -0.2031 -0.2093
86100W        W86964  21.137  17.516  12.273 -0.0586  0.4901  0.1580
86101W        W86965  28.465   7.428  14.746 -0.1698 -0.1260  0.0689
86102W        W86966   5.639  20.753   0.477  0.3752 -0.1197  0.1742
86103W        W86967   6.797   4.245   2.189  0.1116 -0.3044 -0.0895
86104W        W86968  22.825  15.629   8.742 -0.0516  0.3099  0.2883
86105W        W86969   7.424  10.167  27.503  0.1208 -0.0398 -0.0730
86106W        W86970  27.129   2.730  19.023 -0.0098 -0.1887 -0.1203
86107W        W86971  11.569  18.760  25.630  0.0976  0.0125 -0.0360
86108W        W86972   0.333   7.634  18.563 -0.3785  0.0887 -0.0876
86109W        W86973  11.955  28.182  21.856 -0.1950 -0.2551 -0.1894
86110W        W86974  28.688  13.636  20.524 -0.0150 -0.0823 -0.1377
86111W        W86975  19.757  22.642   1.166  0.0206 -0.3274 -0.1356
86112W        W86976  17.641  26.261  28.147 -0.0327  0.0125  0.1792
86113W        W86977  26.637  18.652  25.409 -0.1385 -0.0902 -0.1014
86114W        W86978  24.647  23.667  14.748 -0.0922 -0.2639  0.2334
86115W        W86979  28.326  12.990   1.286 -0.0281  0.1930  0.1801
86116W        W86980  20.530  14.811  26.670 -0.1670 -0.1999  0.2098
86117W        W86981  10.295   7.694   5.738 -0.0185  0.2663  0.1935
86118W        W86982   3.857  10.193   1.854  0.0194 -0.0032 -0.1052
86119W        W86983  12.963   3.623  23.324 -0.0705  0.0723 -0.0683
86120W        W86984   8.952  11.444  23.549  0.0413 -0.0364 -0.2812
86121W        W86985  23.722  26.089  17.719 -0.0325  0.1040  0.1538
86122W        W86986  25.509  26.125  17.865  0.1654 -0.0357 -0.1171
86123W        W86987   6.045  16.943   2.945  0.2281 -0.0666  0.0552
86124W        W86988  17.045  17.968  21.821  0.0173 -0.2191  0.2757
86125W        W86989  16.321  17.498  16.888  0.2307 -0.1887 -0.1998
86126W        W86990  20.652  15.018  25.021 -0.0333 -0.4016  0.0680
86127W        W86991  28.521  25.521  15.628 -0.0558  0.0295  0.0545
86128W        W86992   6.361  24.958  21.960  0.2077 -0.0896  0.0554
86129W        W86993  17.002  16.064   4.237  0.1575  0.1295  0.0618
86130W        W86994  27.617   6.785  26.510 -0.0525  0.1097  0.1234
86131W        W86995  20.768  21.602   9.075 -0.2204 -0.0239 -0.0357
86132W        W86996   6.793  11.734   3.542 -0.2026 -0.0746 -0.0645
86133W        W86997  27.421  11.959   9.642 -0.3140 -0.1071  0.1084
86134W        W86998  25.728  22.226   0.800 -0.2816  0.3870 -0.3176
86135W        W86999  16.322  22.634  11.690  0.0577  0.2347 -0.1080
86136W        W87000  25.225  21.331  12.170 -0.0755 -0.1124 -0.0083
86137W        W87001   0.064  28.827  14.321  0.0174 -0.2968  0.1276
86138W        W87002  28.150  10.367   1.307 -0.3438 -0.0463 -0.1972
86139W        W87003  10.251   5.442   1.296  0.2139  0.2418  0.3338
86140W        W87004  12.346  10.777  13.739  0.3356 -0.1040 -0.0331
86141W        W87005  24.979  10.971  25.743 -0.0795  0.3913  0.3054
86142W        W87006  19.383   8.429  22.883 -0.1948 -0.0065 -0.4066
86143W        W87007  21.277   7.144   2.875 -0.1843 -0.0180 -0.1808
86144W        W87008   4.992  12.605  24.206  0.2099  0.0490 -0.2601
86145W        W87009  21.221   2.307   5.615  0.1782 -0.2535  0.0744
86146W        W87010  20.016   5.219   9.178  0.0045  0.0890 -0.0848
86147W        W87011  13.964  23.894  27.885 -0.1008  0.0505  0.1477
86148W        W87012  27.791  19.106   6.252 -0.0605  0.0123 -0.4571
86149W        W87013  27.197   1.424  22.767 -0.0045  0.2165  0.2267
86150W        W87014  20.055  21.833  14.117 -0.3696  0.1375  0.2896
86151W        W87015   0.811  18.582  20.302  0.0319  0.3904  0.0653
86152W        W87016  19.974  18.862  14.987 -0.0687  0.0632 -0.1646
86153W        W87017   1.830   3.401  23.842 -0.1475  0.0115 -0.0224
86154W        W87018  28.396  18.638  23.297 -0.1375 -0.2003 -0.4546
86155W        W87019  22.433   6.744   3.315 -0.2616  0.1748 -0.2614
86156W        W87020  18.179  10.399  17.237  0.2836  0.0258 -0.2605
86157W        W87021   2.295  11.763   6.951  0.3008  0.1570  0.3134
86158W        W87022   8.467  11.132  19.214  0.0550 -0.1773 -0.2403
86159W        W87023   5.797  11.457   2.095 -0.3094 -0.2441  0.0868
86160W        W87024   9.538  15.391  26.456  0.1386 -0.0624  0.0216
86161W        W87025  21.638  20.358   2.340 -0.1482  0.4160 -0.1439
86162W        W87026  22.534  15.652   6.169  0.3080 -0.1123  0.1585
86163W        W87027   9.213  14.166   6.566 -0.1751 -0.0316 -0.2586
86164W        W87028  26.860   9.651  15.730 -0.4611  0.1017 -0.1267
86165W        W87029  24.571   5.560   3.797  0.0814  0.1556 -0.1664
86166W        W87030  26.953   8.978   4.580 -0.2239  0.3664 -0.1083
86167W        W87031   1.723   0.605   7.757  0.2894  0.1120 -0.0548
86168W        W87032  25.096  22.194  24.930 -0.1913  0.0735  0.2904
86169W        W87033  19.271  23.903  17.003  0.1419 -0.2663  0.1020
86170W        W87034   4.870  12.767   8.634 -0.4086  0.1544  0.0420
86171W        W87035  20.249  15.559  14.223  0.2692 -0.1911 -0.1114
86172W        W87036  25.339  11.829  16.308  0.0741 -0.1685  0.0331
86173W        W87037   0.522  14.723  11.487  0.0803  0.0728  0.0431
86174W        W87038   5.677  10.659   4.055 -0.3094  0.2037  0.1556
86175W        W87039  12.243  15.795   3.285  0.0520 -0.2198 -0.2075
86176W        W87040  28.436  16.119  13.934  0.3367 -0.0106  0.0385
86177W        W87041  14.137   4.819  21.187 -0.2395  0.1813 -0.0270
86178W        W87042  28.819   0.714   0.900  0.0329  0.0991 -0.1996
86179W        W87043   6.154   8.830  20.480 -0.0165 -0.1950 -0.3579
86180W        W87044  19.593   7.638  18.660  0.1633  0.1029  0.0472
86181W        W87045   4.121  24.863  21.547  0.0936 -0.1968  0.1448
86182W        W87046   8.630  27.780  28.140  0.3747 -0.1216 -0.0310
86183W        W87047   6.074  18.131  20.896  0.5336 -0.1458  0.2365
86184W        W87048  27.323  19.195   2.821 -0.1332  0.3043 -0.1677
86185W        W87049  24.575   6.617  22.347  0.0447  0.1881  0.0847
86186W        W87050   1.033  20.854  12.544 -0.3630  0.1381  0.0459
86187W        W87051  15.283  23.596  14.063  0.0322  0.0399 -0.2211
86188W        W87052  23.475  11.132   3.423 -0.0909  0.2569 -0.1350
86189W        W87053  24.224  17.800   9.930 -0.1387  0.1003 -0.0194
86190W        W87054  24.536  19.125  18.737  0.0436 -0.0275  0.4588
86191W        W87055  20.642  15.798  16.351  0.0451 -0.0584 -0.3088
86192W        W87056   7.535   0.390   3.188 -0.2006 -0.0010  0.3358
86193W        W87057   1.024  15.035   4.773  0.0406 -0.1014 -0.2787
86194W        W87058   5.803   1.972  27.284  0.0232  0.0642 -0.0964
86195W        W87059   1.235   0.792  13.284 -0.1915 -0.0589  0.3042
86196W        W87060   8.607   9.870   3.899  0.3448  0.1790 -0.0318
86197W        W87061   1.613   5.380   0.934  0.1538 -0.4271 -0.1149
86198W        W87062   0.854   4.913  12.113 -0.1354 -0.0192 -0.0509
86199W        W87063  28.003  10.600  25.650  0.0948  0.0387  0.2263
86200W        W87064  20.683  24.197   8.217 -0.1915  0.0781 -0.1526
86201W        W87065  11.901  19.650   1.262  0.1138 -0.1463  0.1513
86202W        W87066  16.216   4.552  28.314 -0.1344 -0.2596 -0.1055
86203W        W87067  14.961  11.062  12.235  0.0465 -0.0468  0.1028
86204W        W87068  23.084   8.136   2.099  0.0757  0.0369 -0.1739
86205W        W87069   0.898  15.508   4.997  0.0511 -0.0485 -0.0334
86206W        W87070  15.533   1.105  14.153 -0.2912  0.0421 -0.3725
86207W        W87071   1.929  12.744   9.972 -0.0289 -0.2142  0.1046
86208W        W87072  15.545  17.432   1.926 -0.1772  0.3293 -0.0818
86209W        W87073  27.298   0.897   5.547  0.1211 -0.0802 -0.2553
86210W        W87074  26.538   5.907  27.680  0.1940 -0.1228 -0.1725
86211W        W87075  19.452  10.843   8.910  0.1162 -0.1007 -0.0444
86212W        W87076  15.939  11.341   3.693  0.1029  0.0094  0.3512
86213W        W87077  20.994  10.658   6.599  0.2344  0.1005  0.0624
86214W        W87078  23.218   6.497   5.058 -0.3151 -0.0678  0.0861
86215W        W87079   5.766   1.805  20.032  0.1974 -0.1910 -0.1457
86216W        W87080  25.304   7.504  17.588 -0.1180 -0.3882 -0.0300
86217W        W87081   8.566   6.761  21.088 -0.2585  0.0328  0.1515
86218W        W87082   3.258   2.184   9.716  0.1317  0.0653 -0.1888
86219W        W87083   6.334   3.239  26.124  0.3137  0.0004 -0.0092
86220W        W87084  26.409   7.728   1.385  0.0674 -0.0647 -0.1711
86221W        W87085  24.179   1.672  13.632  0.2351 -0.0198  0.2397
86222W        W87086   4.866  12.533   4.789  0.1132  0.1973 -0.0220
86223W        W87087   0.311   0.454  22.871  0.0139  0.0185  0.1363
86224W        W87088  26.256  18.069  21.975 -0.0652  0.0052 -0.0183
86225W        W87089   2.788  10.713  26.506 -0.0179 -0.2488 -0.1121
86226W        W87090   0.408   8.306  12.967 -0.0035 -0.0176  0.1218
86227W        W87091   4.744   7.668   0.586  0.2030  0.2938  0.1072
86228W        W87092   2.767   4.972  25.857 -0.3020  0.0744 -0.0247
86229W        W87093  24.435  19.124  25.018 -0.0956 -0.1655 -0.2159
86230W        W87094  13.850   6.730  10.265 -0.1494  0.0217 -0.1674
86231W        W87095  23.998  14.276   3.009 -0.3426  0.0092 -0.1388
86232W        W87096  22.837   9.258  24.343  0.0652  0.2651  0.0125
86233W        W87097  13.285   3.924  17.541 -0.0474  0.1133  0.0301
86234W        W87098  10.490  17.946   7.473  0.2423 -0.5110  0.1925
86235W        W87099   3.429  14.141  17.538 -0.0644 -0.0475 -0.1639
86236W        W87100  10.083  23.122   9.117  0.0631  0.2457  0.3042
86237W        W87101   3.576   3.978  11.166  0.1297 -0.0134  0.3402
86238W        W87102  22.183  12.459   4.970 -0.0744  0.0521  0.1803
86239W        W87103   6.773  22.644  22.766 -0.0728  0.0866  0.1539
86240W        W87104  27.096  21.333   6.990  0.0676 -0.1440 -0.0278
86241W        W87105   7.339   9.710   4.300  0.0290 -0.2036  0.3651
86242W        W87106   1.675  10.735   1.589  0.0754 -0.2094 -0.2301
86243W        W87107  28.260  14.149   1.450  0.2184 -0.0227 -0.1859
86244W        W87108   3.270   6.924   2.211  0.4276 -0.2101 -0.0744
86245W        W87109   0.136  14.262  19.863  0.0316 -0.0017  0.0047
86246W        W87110  18.941  17.239  23.818 -0.0219  0.4834 -0.5387
86247W        W87111  28.880   5.085  20.517  0.0809  0.2350 -0.2600
86248W        W87112  19.189   5.270  26.809 -0.2718 -0.0531  0.0520
86249W        W87113  19.741  12.785  12.030  0.1780 -0.0181 -0.0660
86250W        W87114  19.762   1.891  15.787 -0.0567 -0.2972 -0.0094
86251W        W87115  20.158  11.607  18.800 -0.0555 -0.0733 -0.1603
86252W        W87116  10.145   3.966   2.444  0.3389  0.0587  0.1154
86253W        W87117  10.223   0.075   0.984  0.3666 -0.3212 -0.0651
86254W        W87118  12.666   3.922  28.379 -0.2503 -0.1653 -0.0714
86255W        W87119  14.852   7.628  18.164 -0.1560  0.0518  0.1719
86256W        W87120   6.572  19.020   8.688 -0.1296 -0.2016 -0.1265
86257W        W87121  25.193  24.795   5.051  0.1255  0.0368 -0.1622
86258W        W87122   4.690  26.694   2.350  0.2595  0.3556  0.1741
86259W        W87123  13.987  11.994  17.005  0.1129 -0.0606 -0.1903
86260W        W87124  15.293  23.965   6.605 -0.1688  0.2254  0.0864
86261W        W87125  17.064  14.936   1.419 -0.2323 -0.1353 -0.2024
86262W        W87126   5.564   3.150  25.247 -0.2805  0.0744  0.4661
86263W        W87127  24.816  23.974   8.904 -0.0515 -0.0548 -0.0325
86264W        W87128   5.416   6.844  27.758  0.0417  0.2266 -0.1235
86265W        W87129  19.903  15.843   0.895 -0.1130 -0.1132  0.1178
86266W        W87130  13.477  20.360  21.859 -0.3597  0.0661  0.2452
86267W        W87131   3.892   4.855  25.846  0.0223  0.0907  0.1683
86268W        W87132  24.172  14.225  10.844  0.0368 -0.0806 -0.0123
86269W        W87133   5.775  12.552  16.791  0.0010 -0.1148 -0.0852
86270W        W87134  28.417   8.361  21.862 -0.3086  0.1582 -0.2027
86271W        W87135  28.337  17.359   3.530  0.1944 -0.0117  0.0143
86272W        W87136  20.607   0.097  10.990  0.0750 -0.1207 -0.3464
86273W        W87137  12.903  13.243  13.932 -0.4939 -0.1473  0.0298
86274W        W87138   0.036  17.162   5.128 -0.0197 -0.0003  0.0047
86275W        W87139  15.304  18.698   9.111 -0.0335  0.1809 -0.2395
86276W        W87140   8.067   1.811  13.146  0.1425  0.0228  0.2664
86277W        W87141  10.039   6.521  26.992 -0.1166  0.0478  0.0448
86278W        W87142  20.931  23.657  10.876  0.1435 -0.1507 -0.0569
86279W        W87143  13.800   2.594   3.691  0.3043 -0.1046 -0.1516
86280W        W87144  11.932  26.498   7.582 -0.0303  0.0195  0.0209
86281W        W87145   0.124  22.622  28.770 -0.0469 -0.0282 -0.0352
86282W        W87146  12.129  11.480  22.012  0.0256  0.1484 -0.1039
86283W        W87147   7.759  13.889  15.687 -0.0104 -0.1626  0.3581
86284W        W87148  27.142   6.149   0.927  0.3717  0.2319  0.1659
86285W        W87149   1.399  13.348   3.266  0.0276 -0.0204 -0.0416
86286W        W87150  18.981  16.893  11.437 -0.0668 -0.1282 -0.0674
86287W        W87151   5.197   0.127   1.319  0.1289 -0.0384 -0.1163
86288W        W87152  27.900  15.323  10.143 -0.1844  0.0196 -0.1827
86289W        W87153  25.424  18.093  12.318  0.3863  0.0265 -0.0563
86290W        W87154  17.049  14.357   5.740 -0.0408 -0.0392  0.0417
86291W        W87155  20.544  22.736  19.328  0.1180  0.2607 -0.2032
86292W        W87156  18.751   4.338  16.903  0.1434 -0.2800 -0.0522
86293W        W87157   3.551   7.049  10.044  0.1300  0.1111 -0.1631
86294W        W87158  28.696  21.962  11.994 -0.3397  0.2698 -0.0630
86295W        W87159   3.109  28.840  12.575  0.0255  0.2728 -0.1990
86296W        W87160  12.217  21.355  24.258 -0.0697  0.2682 -0.1665
86297W        W87161  26.294  17.811   7.405  0.0648  0.0094  0.0970
86298W        W87162  26.463  21.470  21.728  0.3226 -0.0544  0.0097
86299W        W87163  23.815  16.927  15.120  0.1555 -0.2437 -0.0278
86300W        W87164  20.863   6.205   8.178 -0.0118 -0.2608 -0.2079
86301W        W87165  10.542  12.526  10.934  0.2097  0.2178 -0.3524
86302W        W87166  22.894   6.751  10.735  0.2545  0.3264  0.0871
86303W        W87167   6.304   4.318   3.224  0.0718  0.1310  0.1489
86304W        W87168  14.579  17.053   1.160  0.1479 -0.0223  0.2030
86305W        W87169   1.997   7.685  17.990  0.0823 -0.1221  0.0025
86306W        W87170   2.967   6.198   1.565 -0.2538  0.0363  0.1171
86307W        W87171   8.261  28.095   4.718  0.2305  0.0647 -0.0266
86308W        W87172  15.699  22.326   5.229 -0.1081  0.1227  0.0656
86309W        W87173   4.383   6.603  27.706  0.1088 -0.0338  0.1661
86310W        W87174   7.246   4.924   5.248  0.1467  0.0908 -0.2534
86311W        W87175  11.795  14.271  15.531 -0.2200  0.2995  0.2706
86312W        W87176  24.857   5.271  12.278  0.1080 -0.2780  0.2175
86313W        W87177  23.535  24.204  17.659 -0.0136 -0.0006 -0.2225
86314W        W87178  10.303  24.307  20.596 -0.0347 -0.0196 -0.0383
86315W        W87179  11.657   6.261   6.320 -0.1969 -0.1839 -0.1112
86316W        W87180  20.067   1.563  13.041  0.0455 -0.1502  0.1975
86317W        W87181  28.536   6.038   6.006  0.0339 -0.3498 -0.0872
86318W        W87182   3.248   4.030   0.234  0.1851  0.0323  0.3725
86319W        W87183  17.036  26.802   1.162  0.0936 -0.0560  0.2309
86320W        W87184   2.717   3.875  22.517  0.0651  0.0339  0.1146
86321W        W87185  24.318  19.451  17.524 -0.1592  0.0105 -0.2263
86322W        W87186  23.398  16.749   4.123 -0.4433 -0.0149 -0.0680
86323W        W87187   5.509  18.830  28.946  0.1065 -0.1318 -0.0433
86324W        W87188  28.645  11.130   4.649  0.2577 -0.0228 -0.0836
86325W        W87189  27.405  16.175   8.955  0.1452 -0.0582  0.0584
86326W        W87190   1.374   6.912   3.351  0.3181  0.0727 -0.1190
86327W        W87191  28.261  22.907   5.423 -0.2182  0.0163  0.1424
86328W        W87192  21.548  17.703  24.265 -0.0878 -0.1399  0.1275
86329W        W87193  22.859  11.039  16.616 -0.0955  0.0562  0.0148
86330W        W87194  11.746   9.088  24.026  0.3793 -0.1350 -0.0938
86331W        W87195  15.056  18.070   1.412 -0.0518 -0.0306  0.1920
86332W        W87196   5.735  29.104  21.020 -0.0129 -0.0637  0.1466
86333W        W87197   2.595  15.251  18.668 -0.3190  0.0036  0.1300
86334W        W87198   1.253  28.372  27.475  0.3722  0.2422 -0.0659
86335W        W87199  26.234  25.020   9.781 -0.2073 -0.2418 -0.2451
86336W        W87200  20.982   7.518  18.872 -0.1404  0.3014  0.0322
86337W        W87201  17.998   0.040  15.235  0.0682 -0.0009  0.0439
86338W        W87202   0.322   1.183  22.029  0.1953 -0.0932 -0.1887
86339W        W87203  10.773   1.778   4.611  0.0695 -0.2010 -0.2600
86340W        W87204   1.342   6.048   3.109  0.0026  0.2367 -0.1238
86341W        W87205  28.078   1.833  11.125 -0.0226  0.0042 -0.0619
86342W        W87206  25.627   6.707  27.792 -0.0166 -0.0605 -0.3094
86343W        W87207  14.259  14.130  20.982  0.0198  0.1121  0.0933
86344W        W87208  20.263  17.514  21.291  0.0648 -0.2709  0.1960
86345W        W87209  23.125  19.568   8.086  0.1954  0.1156  0.0409
86346W        W87210   1.981  24.301  24.090  0.2181 -0.1261  0.0696
86347W        W87211   1.069  24.695  21.750  0.0423  0.0836 -0.0009
86348W        W87212  13.839  16.195  19.884  0.2055 -0.1369 -0.4342
86349W        W87213  11.900  13.340  13.194 -0.0369 -0.1762  0.0286
86350W        W87214  12.708  10.280  27.685 -0.1924 -0.0831 -0.0001
86351W        W87215   2.858  25.223  19.402  0.1326  0.2716 -0.1284
86352W        W87216  17.863  18.096  16.762  0.2912 -0.1677 -0.1141
86353W        W87217  14.074  14.977  14.755  0.0477  0.0547  0.0399
86354W        W87218  12.447  15.521  25.204  0.1298  0.0626  0.2343
86355W        W87219  20.864   4.537   4.587  0.1205 -0.1972 -0.1249
86356W        W87220   1.715  16.622   1.707 -0.0082  0.1285 -0.4002
86357W        W87221  23.579  22.346  14.763 -0.1491  0.0329  0.4797
86358W        W87222  22.873  12.531  14.156 -0.0003 -0.1638  0.1938
86359W        W87223  25.729  10.691   5.265 -0.0571  0.3837 -0.1720
86360W        W87224  17.561   9.792  17.557 -0.1412  0.0047  0.2335
86361W        W87225  17.863  20.844  22.463  0.0139  0.1369  0.1945
86362W        W87226  14.437  20.502  15.384  0.0917  0.2080  0.0553
86363W        W87227  22.081   7.891  14.738  0.0518 -0.0965  0.1184
86364W        W87228   1.244   1.621  19.084  0.0616  0.1203 -0.3250
86365W        W87229  24.603   8.867  12.896 -0.2302  0.0304  0.2511
86366W        W87230  22.552  15.256  14.396  0.1762  0.0126 -0.2554
86367W        W87231   2.347  25.784  24.951  0.0264  0.2924 -0.2201
86368W        W87232  26.628   0.997   3.516 -0.1698 -0.1301 -0.2235
86369W        W87233  26.801  15.037   3.634  0.0743 -0.0197 -0.1373
86370W        W87234   9.861   8.031   2.621 -0.3900 -0.0430 -0.2254
86371W        W87235  28.050  22.532  16.676  0.1296  0.0771 -0.0863
86372W        W87236  16.989   0.007  25.588 -0.0146 -0.2533  0.1809
86373W        W87237   3.609  28.029   4.168 -0.1387  0.3137 -0.1375
86374W        W87238   0.078   5.841  23.846  0.1186 -0.1466 -0.2300
86375W        W87239  12.420   1.380   4.411 -0.2017  0.2048  0.1049
86376W        W87240  19.033  24.451  19.283 -0.0760 -0.1552 -0.0239
86377W        W87241   4.306  12.988  23.780 -0.1409 -0.1072  0.0083
86378W        W87242  20.425  22.485   2.330 -0.4779 -0.0507 -0.0706
86379W        W87243  22.062  23.960  16.780  0.0544  0.0939 -0.1107
86380W        W87244   3.136  24.642   8.095 -0.0242 -0.1336 -0.1039
86381W        W87245   0.574   9.378   0.187 -0.1506 -0.0455  0.0172
86382W        W87246   2.272   5.748   1.330 -0.1569  0.0044 -0.1304
86383W        W87247   5.528  12.780  16.412 -0.1539  0.2037 -0.2440
86384W        W87248  24.415  11.881   0.419 -0.0721 -0.3363 -0.3991
86385W        W87249   0.742  16.537  22.393 -0.2560  0.1543  0.0143
86386W        W87250  25.198  11.843   2.900 -0.2798 -0.2337 -0.2768
86387W        W87251  21.582  21.639   3.564  0.1567 -0.2239  0.0739
86388W        W87252   2.999  15.596  18.618  0.2601  0.1542 -0.2933
86389W        W87253   7.668  28.294   7.269  0.0505  0.0146 -0.1550
86390W        W87254  26.602  27.653  19.652 -0.1357 -0.2291  0.1060
86391W        W87255  25.291  11.572  10.241  0.0954  0.1768 -0.1038
86392W        W87256  22.801   4.627  24.737  0.1404  0.0038  0.0974
86393W        W87257   0.924   3.672   5.322  0.1751  0.0015  0.2925
86394W        W87258   4.307   3.354  18.995 -0.1292  0.0320 -0.0473
86395W        W87259   7.297   1.789  20.324  0.1460  0.1686 -0.4424
86396W        W87260  21.980  27.347  14.390 -0.1911  0.0291 -0.0470
86397W        W87261  27.031   9.674  20.596 -0.0578  0.0016 -0.0179
86398W        W87262   5.810  10.333  13.742 -0.0515  0.3308 -0.0154
86399W        W87263   3.467  21.405   0.867  0.0889  0.1314 -0.0609
86400W        W87264  24.374   4.190  12.027  0.1089  0.1955 -0.2503
86401W        W87265  28.794  21.631  11.598 -0.0823 -0.3393  0.0910
86402W        W87266  22.674  20.919  19.837  0.0706 -0.1898 -0.5361
86403W        W87267  26.731   9.464   7.109  0.1910  0.2959  0.1653
86404W        W87268  17.375  25.337   6.878  0.1254  0.4499  0.0996
86405W        W87269  25.786   0.085   9.832  0.0089  0.1889  0.1202
86406W        W87270  19.194   7.338  11.814  0.0384  0.0956  0.2941
86407W        W87271  21.001   5.535   5.087 -0.2069  0.0423 -0.2176
86408W        W87272   2.784   0.984  13.806 -0.2283  0.0424 -0.2690
86409W        W87273  21.548  16.595  11.338  0.2185 -0.0812  0.0400
86410W        W87274  18.712   5.220  21.479 -0.3523 -0.3052  0.2171
86411W        W87275  19.630   2.584  26.353  0.1424  0.0487  0.1924
86412W        W87276  11.274  22.074   2.620 -0.4145  0.2198 -0.3448
86413W        W87277  23.868   3.675   5.724  0.2042  0.1538  0.0511
86414W        W87278   5.242  19.449   2.897  0.0649 -0.1684  0.2255
86415W        W87279   3.234   7.988  15.212 -0.1458  0.1431  0.0729
86416W        W87280  15.204   2.970   7.452 -0.0440  0.1405 -0.0085
86417W        W87281   7.225  19.053   5.035 -0.3560  0.0548 -0.0107
86418W        W87282  12.119   2.134  18.746 -0.1970  0.2056  0.0173
86419W        W87283   4.710   3.704  13.632 -0.0732 -0.1051  0.1620
86420W        W87284   9.969  14.457   5.258 -0.0678 -0.0615  0.2575
86421W        W87285  24.882   7.157  22.787  0.1264  0.0049 -0.2183
86422W        W87286   8.121   6.223  21.968 -0.0466  0.1214  0.0109
86423W        W87287  20.577   4.451  17.211  0.1328  0.0726 -0.0606
86424W        W87288   1.701  15.525  18.263  0.0925  0.0375 -0.3167
86425W        W87289  22.042   6.125  18.482 -0.2497 -0.0438  0.2530
86426W        W87290   5.469   9.174   3.499 -0.1367  0.5027 -0.3925
86427W        W87291  13.330  10.825   5.194 -0.0572 -0.0035 -0.0751
86428W        W87292  24.554  14.601   1.341  0.1477  0.2612 -0.2012
86429W        W87293  19.144   9.177   5.016  0.0921 -0.0312 -0.1073
86430W        W87294  26.828  26.256   8.521 -0.1116  0.0390  0.1533
86431W        W87295   7.400  11.536  12.662 -0.1858  0.2016 -0.0135
86432W        W87296  26.145  25.795   8.419  0.0948  0.0222 -0.1784
86433W        W87297  28.833   0.505  18.305 -0.1018 -0.1782 -0.0201
86434W        W87298  21.364  19.544  15.833 -0.1600  0.1179 -0.2653
86435W        W87299  23.395   7.492   8.718 -0.0693 -0.4172 -0.1182
86436W        W87300  17.032   8.977   7.872 -0.2139 -0.0413 -0.2730
86437W        W87301   4.751  26.879   7.896 -0.0686 -0.2113  0.0980
86438W        W87302  13.086   6.518  28.603 -0.1393 -0.0193  0.1285
86439W        W87303  23.838  19.729  18.635  0.0721 -0.0451 -0.0574
86440W        W87304  13.876   2.856   8.190 -0.1792 -0.0500 -0.0632
86441W        W87305  11.726   6.943  11.366 -0.0041  0.3324 -0.1943
86442W        W87306   1.013   9.142  10.207 -0.0990  0.1499  0.0909
86443W        W87307   9.111  26.154   3.027 -0.0188 -0.1338 -0.1483
86444W        W87308   2.055   6.877  24.579  0.2582 -0.1590  0.2186
86445W        W87309  10.893   0.884  10.740  0.0544 -0.0702 -0.2109
86446W        W87310  20.285   5.213  13.409 -0.1050  0.0163  0.1137
86447W        W87311  13.779  24.247   7.501  0.0401 -0.1601  0.0262
86448W        W87312  20.490  13.688  13.737  0.1515 -0.1241 -0.1224
86449W        W87313  19.022  20.173  22.754 -0.1591 -0.0685 -0.2189
86450W        W87314  15.116   8.615  25.275  0.1455 -0.3838  0.2527
86451W        W87315   2.352  18.392   1.336 -0.1592 -0.4576 -0.2224
86452W        W87316   6.358   7.280  10.994 -0.0292  0.2927 -0.1025
86453W        W87317  20.499   0.797  17.318 -0.2213 -0.2833  0.0131
86454W        W87318  20.791  19.021   3.166  0.1490 -0.3688 -0.1139
86455W        W87319   0.957  10.932  13.994  0.0608 -0.1632  0.1598
86456W        W87320  17.386  15.035   7.438  0.0397 -0.1384 -0.0712
86457W        W87321  21.523  17.603  21.317 -0.1762  0.1977  0.0803
86458W        W87322   1.058   2.342   5.472  0.0975  0.1040 -0.0080
86459W        W87323   2.002   0.407  16.057  0.2502 -0.2158 -0.1458
86460W        W87324  25.345   3.300   6.833  0.1187 -0.0875  0.1702
86461W        W87325  10.575  15.798   4.921 -0.1553 -0.1117 -0.1258
86462W        W87326   3.457  26.489  10.672  0.3917  0.1763 -0.0560
86463W        W87327   7.230   5.115   2.329 -0.1393  0.0528  0.0185
86464W        W87328   1.585   9.881  15.945  0.0710  0.0475 -0.0387
86465W        W87329  19.535  25.029  10.355 -0.0998 -0.1855 -0.0610
86466W        W87330  19.649   0.483  15.410  0.1337  0.0657  0.1631
86467W        W87331  24.627  20.074  19.841 -0.0236 -0.0582  0.0396
86468W        W87332  12.749  20.553  17.024 -0.0170  0.0047 -0.0137
86469W        W87333  17.196   7.101  19.109  0.1918 -0.0492 -0.1919
86470W        W87334   0.895   8.818  16.384 -0.0562  0.1573  0.2325
86471W        W87335   3.139   1.432   2.834 -0.0286  0.0593  0.0338
86472W        W87336   1.314  26.629   5.061 -0.0251 -0.2325  0.2034
86473W        W87337   3.542  28.747  16.939 -0.2870  0.0294 -0.0925
86474W        W87338   1.918   2.840  12.193  0.0468  0.1758 -0.1511
86475W        W87339  19.035  13.433  16.864 -0.0130  0.2130  0.3352
86476W        W87340  27.770  15.031  24.144 -0.1347  0.1197  0.1577
86477W        W87341   0.712   7.906  19.871  0.0865  0.0127  0.2974
86478W        W87342   6.493  18.139   4.786 -0.2235  0.2173  0.2085
86479W        W87343  15.748  26.225  20.542 -0.0749 -0.0970 -0.2931
86480W        W87344   1.863  16.039   6.097 -0.2088 -0.3352  0.3625
86481W        W87345  26.327  28.887  15.387  0.3229  0.1862  0.1298
86482W        W87346   1.732  12.232   3.991 -0.0432 -0.0410 -0.1121
86483W        W87347  18.753  15.171   3.672 -0.0031  0.1993  0.2865
86484W        W87348   8.594   6.800  28.102 -0.1917  0.2868  0.0722
86485W        W87349  17.436   8.273  18.455 -0.2148 -0.4023  0.1252
86486W        W87350  28.160  15.582   4.597 -0.0347  0.1582  0.1471
86487W        W87351  12.228  20.462  20.970  0.1482  0.1126 -0.2306
86488W        W87352  11.124  22.896  15.546  0.2128  0.0825 -0.2983
86489W        W87353  11.782  15.237   2.099 -0.0113 -0.0656 -0.0071
86490W        W87354   9.847  11.232   0.993 -0.0794 -0.2567  0.0481
86491W        W87355  24.750   1.364   3.576 -0.3639  0.0702 -0.1640
86492W        W87356  19.628  14.959  15.038 -0.1872  0.2423 -0.2427
86493W        W87357   5.451   5.001  23.176  0.0918  0.0721  0.2234
86494W        W87358   1.408   6.352  10.522  0.2966  0.0074  0.0702
86495W        W87359  15.258   7.140   6.516  0.0813 -0.0744 -0.0147
86496W        W87360  24.746  20.438  15.264  0.3770 -0.0558  0.0806
86497W        W87361   2.469  22.139  12.005 -0.2177 -0.2947 -0.3823
86498W        W87362  16.707  24.346  27.810 -0.0490  0.3130  0.0933
86499W        W87363   7.239   6.051   9.451 -0.1865 -0.1651 -0.0837
86500W        W87364   1.819   2.906  19.398 -0.2254  0.5486 -0.2406
86501W        W87365  22.855   3.289   5.175 -0.0411 -0.1121  0.0600
86502W        W87366  12.691   2.716  22.416  0.0434  0.0865 -0.1092
86503W        W87367  12.378  29.109  17.144 -0.1077  0.0976 -0.1974
86504W        W87368  27.867  22.116  13.070  0.0624 -0.0789 -0.0899
86505W        W87369   5.334   5.818   2.328  0.1997 -0.0346 -0.1307
86506W        W87370   6.828  10.104  28.548  0.0492 -0.4639 -0.1865
86507W        W87371  20.542  25.431  19.099  0.5875 -0.0848 -0.0616
86508W        W87372  27.216  12.797  25.569 -0.3081  0.2383 -0.1074
86509W        W87373  15.992  13.688  12.518 -0.3423  0.0024  0.0166
86510W        W87374   7.750   3.088  20.461  0.0717 -0.1087 -0.3764
86511W        W87375  25.853   8.287  25.762 -0.2064 -0.1983 -0.1327
86512W        W87376  25.718  27.053   4.304 -0.5536  0.0350  0.0718
86513W        W87377  23.750   7.754  12.836  0.0194  0.1174 -0.2096
86514W        W87378  22.642  18.994  17.836 -0.1714 -0.0794 -0.1918
86515W        W87379  19.572   5.817  19.456  0.0969 -0.1696 -0.0293
86516W        W87380  25.349  17.617  23.919  0.0198 -0.3704  0.0568
86517W        W87381   3.207   8.528   5.256  0.2514  0.0537 -0.0851
86518W        W87382  23.587  27.938  12.131  0.0796  0.1182  0.1789
86519W        W87383  23.776  26.790  20.420 -0.1124  0.1477 -0.1076
86520W        W87384  25.355  21.528   3.533 -0.3875  0.0017  0.0835
86521W        W87385  26.372  10.096   1.810  0.0560  0.1336  0.2038
86522W        W87386  14.046  15.453   6.626 -0.0499  0.1812  0.0911
86523W        W87387   9.360  18.983  28.405 -0.4551 -0.0170  0.0584
86524W        W87388  14.275   5.960   2.920 -0.1937 -0.0056  0.0418
86525W        W87389  24.038   4.048   1.517  0.1813 -0.0842  0.0069
86526W        W87390  17.629  27.595  11.529  0.0325 -0.1988  0.2242
86527W        W87391  10.193   8.537   2.552 -0.1112 -0.0200 -0.0014
86528W        W87392  14.953  17.104  13.307  0.2412  0.0984 -0.1429
86529W        W87393  12.908  20.179   1.634  0.2749 -0.0448 -0.6331
86530W        W87394   4.924   9.194  16.894 -0.1512  0.0648 -0.4224
86531W        W87395  25.846   6.761  17.347  0.1739 -0.2493 -0.2399
86532W        W87396  26.217   6.355  27.736  0.0576 -0.1142  0.0343
86533W        W87397  23.740  22.611   7.697 -0.1472  0.0898  0.1170
86534W        W87398   0.530  27.778  13.363 -0.2558 -0.0573  0.2188
86535W        W87399  26.431  13.724  13.932 -0.0687  0.0820  0.0809
86536W        W87400  22.036   5.514  15.164  0.1289 -0.0886 -0.2174
86537W        W87401  10.620  12.458   4.868  0.3312 -0.0431  0.0290
86538W        W87402  21.760   9.606   9.628  0.0005  0.3278  0.1277
86539W        W87403  11.125  14.125   1.388 -0.0449  0.2474  0.0891
86540W        W87404  11.725  10.838   8.957 -0.2629 -0.2496  0.3299
86541W        W87405  21.902   5.540   8.849 -0.1242 -0.2693  0.2499
86542W        W87406  13.626   5.549  12.780  0.0118 -0.0197 -0.1685
86543W        W87407  11.530  14.880   2.719  0.0696 -0.2013 -0.0910
86544W        W87408  25.490   1.553  24.328 -0.1634  0.0737  0.0353
86545W        W87409  21.983  26.949   7.639  0.0162 -0.4818 -0.0716
86546W        W87410  25.396   5.835   4.074  0.1408 -0.0088  0.1622
86547W        W87411   4.299  13.725  12.609  0.0349 -0.0220  0.2858
86548W        W87412   9.889  15.707  11.851 -0.0035  0.0609  0.3193
86549W        W87413  19.317   6.142   2.817 -0.3387  0.0295  0.2813
86550W        W87414  26.120   1.212   4.791  0.1101 -0.0156 -0.2362
86551W        W87415  14.180   3.487  24.037  0.1159  0.0068 -0.0552
86552W        W87416   0.128   7.194  18.657  0.1536 -0.0931  0.0622
86553W        W87417  22.545   4.591   5.944 -0.1960 -0.1620  0.0052
86554W        W87418  21.293   4.740   4.729  0.0166  0.1784  0.0114
86555W        W87419  21.494  14.860   8.873  0.0425  0.0673 -0.2989
86556W        W87420  20.828  10.182  26.887  0.1906 -0.0023 -0.0835
86557W        W87421  21.808   2.783  21.447 -0.0096  0.1543  0.0147
86558W        W87422  27.652  11.565   1.300 -0.0493  0.2890  0.3122
86559W        W87423   3.286  23.292  11.242  0.2339 -0.0398  0.2622
86560W        W87424   0.699  12.317   2.202  0.3580  0.0161 -0.0267
86561W        W87425   1.635  13.462   7.992 -0.1747  0.3703 -0.1136
86562W        W87426  25.732   2.279  16.654 -0.0300  0.1215 -0.2531
86563W        W87427  23.800  26.065   1.345  0.0020 -0.5206 -0.0797
86564W        W87428   1.677   6.648   6.077 -0.3194  0.3304 -0.0246
86565W        W87429   2.971   6.367  13.933  0.0692 -0.2965 -0.0144
86566W        W87430   8.522  20.865  13.321 -0.0962 -0.0212  0.1663
86567W        W87431  22.400  19.629   2.488 -0.1649  0.0818  0.2708
86568W        W87432  24.939   3.923  12.128 -0.2709  0.1676 -0.1263
86569W        W87433  26.483   6.415  22.275  0.1107 -0.0883 -0.1071
86570W        W87434  21.969   7.154   5.927  0.1090 -0.2824  0.1170
86571W        W87435   5.617  22.058   8.892 -0.3876 -0.0450 -0.0660
86572W        W87436  15.909  23.213  12.458  0.0975  0.1428  0.3349
86573W        W87437   9.458   7.955  14.812 -0.0255  0.0921  0.2146
86574W        W87438  18.469   7.087   3.900  0.0686 -0.3177  0.0667
86575W        W87439  24.057  17.580  16.446  0.2123 -0.0193 -0.1283
86576W        W87440  28.933   3.312  16.328 -0.0512  0.2475  0.2411
86577W        W87441  20.776  22.246   7.569  0.0938  0.3617  0.0794
86578W        W87442  11.955   7.972   6.927  0.2448 -0.2313 -0.2949
86579W        W87443  27.592  20.814  10.392  0.1412  0.0429  0.1197
86580W        W87444  19.744   9.593   0.264 -0.1375  0.2117  0.2019
86581W        W87445  28.326   6.824  10.067 -0.0074 -0.2143 -0.1050
86582W        W87446  27.252  28.955   8.358 -0.0886  0.1034 -0.0704
86583W        W87447   7.456   8.903  12.816  0.1304 -0.0163  0.2007
86584W        W87448  14.004  10.987  23.666 -0.4287 -0.1788  0.2647
86585W        W87449  25.668   8.604  26.636 -0.0284  0.2331 -0.2072
86586W        W87450   7.084   6.751  13.249  0.1199  0.0107  0.1078
86587W        W87451   6.969   8.197   1.915 -0.1131 -0.1772  0.0645
86588W        W87452  17.931  12.277   4.738 -0.0720  0.0230  0.4528
86589W        W87453  15.639   3.553   7.885 -0.2087 -0.0278 -0.0800
86590W        W87454  18.570   5.194   9.478 -0.0497  0.2610 -0.0346
86591W        W87455  26.751  18.821  15.076  0.1425 -0.3600 -0.0077
86592W        W87456  20.173   6.992   9.919 -0.1945 -0.0493  0.5355
86593W        W87457  27.193  12.186  20.069 -0.0457  0.0642  0.0031
86594W        W87458   1.184   3.839  12.806 -0.3103 -0.0623  0.0683
86595W        W87459  26.125   3.456  12.058  0.0167  0.2645  0.0252
86596W        W87460   0.969  25.845   3.666 -0.1884 -0.1060  0.0164
86597W        W87461  20.570  26.573  12.658  0.3794 -0.1506 -0.2549
86598W        W87462  19.939  14.252  18.892 -0.0414  0.0041  0.0685
86599W        W87463  25.379   0.377  11.625  0.1835 -0.0694  0.0143
86600W        W87464  24.690   4.843   5.694 -0.6402  0.0999 -0.1667
86601W        W87465   6.180  16.975  17.329 -0.2759  0.1860  0.1508
86602W        W87466   3.015  22.230   8.167 -0.0520 -0.0439  0.2742
86603W        W87467   7.671   9.957   8.697 -0.0741  0.1132  0.0717
86604W        W87468   4.816  12.525  22.956  0.1212  0.1234 -0.0665
86605W        W87469  12.776   5.215   5.711 -0.0999 -0.1241  0.3352
86606W        W87470  26.799   7.869  14.596  0.0376  0.0861 -0.2717
86607W        W87471  22.495   2.443   8.070 -0.2633 -0.0471  0.2206
86608W        W87472  17.681  21.882  24.857  0.0972 -0.0436  0.0891
86609W        W87473  16.169  15.618  14.165 -0.2499 -0.1110  0.0293
86610W        W87474   6.987  28.457   5.943  0.1163  0.1554  0.1281
86611W        W87475   3.247  22.824  16.052  0.0429  0.2106  0.0734
86612W        W87476  14.427   4.975  13.520 -0.0875  0.1085 -0.1156
86613W        W87477   1.195  23.772  15.886  0.3264 -0.1938 -0.0535
86614W        W87478   6.572  17.748  11.714 -0.1002  0.5116 -0.0361
86615W        W87479  27.431   8.128   7.350 -0.0346  0.1935 -0.0046
86616W        W87480  27.291  21.626   6.449  0.0961 -0.0906  0.0104
86617W        W87481  23.379   7.960  15.025  0.1843  0.0214  0.1397
86618W        W87482  28.539   0.087   6.151  0.1240 -0.0190 -0.2863
86619W        W87483  23.252   1.999   6.626 -0.3931  0.0176  0.1611
86620W        W87484  20.365  28.079  21.473 -0.0445 -0.0651 -0.0109
86621W        W87485  13.452   5.867   2.389 -0.0509  0.0805 -0.0547
86622W        W87486  25.825  27.661  20.470 -0.1795  0.2032 -0.0739
86623W        W87487  19.884  10.568  27.772 -0.0398 -0.0611 -0.1520
86624W        W87488   0.392  23.863  13.328 -0.1997 -0.0035 -0.2369
86625W        W87489   2.087  11.407  13.494  0.1060  0.2861 -0.0171
86626W        W87490  19.389  13.884  20.264 -0.3211 -0.1344  0.0914
86627W        W87491   4.236  28.368   4.044  0.0230  0.0242  0.2835
86628W        W87492  11.585   8.894  21.888  0.3706  0.1203  0.0169
86629W        W87493   3.744  20.516  28.503  0.2344 -0.3035 -0.0273
86630W        W87494  28.060  23.322  24.421  0.2353 -0.0141 -0.0373
86631W        W87495   4.667   9.606   8.107 -0.0059 -0.2399  0.1232
86632W        W87496   9.688   8.841  28.591 -0.0690  0.2239 -0.2600
86633W        W87497  16.249   4.146  15.305  0.1816 -0.0122  0.1199
86634W        W87498   7.544   3.215   9.974  0.4461  0.0068  0.0935
86635W        W87499   1.576   8.782  25.451  0.0783 -0.2216  0.0253
86636W        W87500  14.983  14.026  23.204  0.1717  0.2836 -0.1635
86637W        W87501   0.490   0.453   8.378  0.0379  0.4762 -0.4016
86638W        W87502  17.325  28.342  22.867  0.0695  0.0707  0.1588
86639W        W87503  21.521  15.432   6.733 -0.0219 -0.2912 -0.3706
86640W        W87504  22.549   7.059   8.378 -0.1085  0.4189 -0.1087
86641W        W87505   4.373  24.899  18.327  0.0788  0.2055 -0.0614
86642W        W87506  20.747   3.587   9.186 -0.0270  0.1853 -0.1998
86643W        W87507  21.046  25.350   0.321 -0.0290 -0.1570 -0.0486
86644W        W87508  22.862   3.228  10.836 -0.4228 -0.2669 -0.0144
86645W        W87509  25.167  26.196  11.753  0.0476  0.0378  0.0424
86646W        W87510  27.624   4.945  18.500  0.0922  0.0922  0.3136
86647W        W87511  13.679  29.128  25.395 -0.1437  0.0048 -0.0179
86648W        W87512   0.820  12.037   4.478 -0.0828  0.1367 -0.0275
86649W        W87513  18.233   3.288  17.348  0.2260 -0.0446  0.0438
86650W        W87514  17.898  14.022   8.254 -0.0170 -0.2956 -0.0962
86651W        W87515  25.408   0.666  12.976 -0.1908 -0.1723 -0.2484
86652W        W87516  17.506  10.121  28.666  0.1062  0.0221  0.0586
86653W        W87517  12.867   1.162  28.405 -0.2208 -0.1676 -0.1352
86654W        W87518  28.871   2.767  24.521 -0.1954  0.4152 -0.1063
86655W        W87519  14.127   2.400   8.965 -0.1351 -0.2705  0.0548
86656W        W87520  26.599  13.839   7.380 -0.0942  0.3126 -0.0495
86657W        W87521  19.093   2.475   5.436  0.1826 -0.1816 -0.3371
86658W        W87522  25.984  14.488  13.513  0.0099  0.3404  0.0108
86659W        W87523  24.717   7.945  13.034 -0.0593  0.1435 -0.1828
86660W        W87524  13.777  12.142   4.771 -0.0598 -0.1965  0.0298
86661W        W87525  29.142  16.232  13.207  0.1213 -0.1589  0.0023
86662W        W87526   1.753   0.969   3.031 -0.3391 -0.0508  0.3162
86663W        W87527  22.237   0.325  18.445 -0.0606 -0.3931  0.1264
86664W        W87528  15.195   5.766  13.357  0.4377 -0.0162 -0.0371
86665W        W87529  20.481  12.342  13.085 -0.0583 -0.0841 -0.1332
86666W        W87530  22.955  21.189  21.917  0.1371 -0.2012  0.0406
86667W        W87531  25.335  11.784   9.717 -0.0391  0.2410  0.1521
86668W        W87532  27.647  13.930  24.750  0.1187  0.0023 -0.1354
86669W        W87533  24.199   1.191   0.073 -0.1440  0.0417  0.1604
86670W        W87534  21.794   8.315  19.254 -0.2844 -0.2500 -0.0028
86671W        W87535  22.293  16.079  17.318 -0.3686  0.2741 -0.0923
86672W        W87536   2.707   6.863  12.275  0.2340 -0.0006  0.3049
86673W        W87537  28.210  18.304  19.884 -0.0661 -0.2932  0.1023
86674W        W87538  15.996   4.865  22.600  0.1975  0.0750 -0.0357
86675W        W87539   3.153   6.018  15.251 -0.0865  0.1422 -0.0134
86676W        W87540  27.637  22.235  27.401 -0.0515 -0.2881 -0.0999
86677W        W87541  16.515  18.710  26.685 -0.2856  0.1201 -0.0168
86678W        W87542   0.998   6.011   7.479 -0.0063 -0.3523  0.0826
86679W        W87543   5.340   8.557  20.305 -0.2924 -0.1400 -0.1430
86680W        W87544  14.621  16.768  13.912 -0.0196  0.1355  0.0217
86681W        W87545  13.434   0.379  15.078 -0.0315 -0.1774 -0.0100
86682W        W87546   8.415   2.472   4.796  0.2013 -0.0629  0.0564
86683W        W87547  25.009  15.826   0.643 -0.1701 -0.1028  0.4110
86684W        W87548  14.898   7.550  25.814 -0.3719  0.0651 -0.0369
86685W        W87549  26.530  10.997  28.395 -0.1940  0.0394  0.2313
86686W        W87550   7.034  22.572   5.547 -0.2892  0.0064  0.1061
86687W        W87551   4.371   1.406   8.839 -0.0523 -0.0395  0.1151
86688W        W87552  15.467  22.019   0.423  0.1578  0.0733 -0.1185
86689W        W87553  12.620  23.435   4.158 -0.0749  0.2766  0.1132
86690W        W87554   1.159  11.532  26.231 -0.1062  0.0437 -0.1239
86691W        W87555  14.413  25.908  18.354  0.2840 -0.2546 -0.1018
86692W        W87556   7.525  26.907  11.203 -0.0710 -0.0009  0.1198
86693W        W87557  10.059  22.298   3.846  0.0761 -0.0228 -0.0831
86694W        W87558  18.607  19.996  15.462  0.1863 -0.0643  0.1393
86695W        W87559   6.163   6.606  19.476 -0.2615  0.2847  0.1161
86696W        W87560  24.064  23.516  13.053  0.1124  0.0627  0.1640
86697W        W87561  22.872  10.835  13.021 -0.0273  0.0789  0.0174
86698W        W87562  24.730   3.755  17.212 -0.2346  0.1601  0.0891
86699W        W87563  19.356   9.004   2.893 -0.0289  0.1020 -0.3622
86700W        W87564  14.496   1.184   2.801 -0.0545  0.1152  0.0215
86701W        W87565  27.241  23.129  14.821 -0.0639 -0.3793  0.1259
86702W        W87566  11.401  17.287  13.726 -0.0001 -0.2231 -0.0854
86703W        W87567  11.441   0.728  14.140 -0.3200 -0.1527 -0.4849
86704W        W87568   2.711  14.893   4.827 -0.1214  0.1857 -0.0014
86705W        W87569  23.562   4.579   6.024 -0.1229  0.1129 -0.2619
86706W        W87570   5.780   5.578  16.632 -0.1760  0.0113  0.1759
86707W        W87571   7.689  23.680  24.006 -0.0145 -0.0056 -0.0483
86708W        W87572  19.833  10.338   3.852  0.4292  0.1915 -0.1337
86709W        W87573   7.546   6.597  17.215  0.1485 -0.0723 -0.1242
86710W        W87574  23.784  12.493  20.148 -0.1900  0.2634  0.1801
86711W        W87575   4.312  21.903   1.487  0.1106 -0.0171 -0.1034
86712W        W87576  28.094  12.334  10.042  0.1520 -0.0490 -0.0120
86713W        W87577  10.994   5.980  13.714 -0.2150  0.1811  0.0740
86714W        W87578  28.149   4.567  14.436  0.0323 -0.1140  0.0427
86715W        W87579  17.266  21.349  13.669 -0.3404 -0.1564 -0.0383
86716W        W87580  26.747   3.658  28.997  0.1133  0.1050  0.1139
86717W        W87581   2.987  28.837  11.416  0.1874  0.1730  0.0551
86718W        W87582  23.045  18.716  13.985 -0.2279 -0.1770  0.0473
86719W        W87583   9.652   5.514   4.088 -0.0304 -0.1947 -0.0108
86720W        W87584   9.463   6.708  10.532 -0.2477  0.0238 -0.0371
86721W        W87585   2.763   5.123  12.743 -0.0723 -0.2326  0.3379
86722W        W87586   7.977   4.103   8.543  0.1092  0.0614  0.2134
86723W        W87587   4.504  17.429   2.933  0.3359 -0.0717 -0.4984
86724W        W87588  17.849  18.877  13.083 -0.1620 -0.2571  0.1735
86725W        W87589  25.496  10.115   4.029  0.0989 -0.0493  0.3960
86726W        W87590  15.295  10.389  11.302  0.0020 -0.1562  0.0194
86727W        W87591  17.170  17.510   9.583 -0.0579 -0.2654 -0.1757
86728W        W87592   4.312  12.054  24.974  0.0992  0.0404  0.2764
86729W        W87593  22.667   5.079   9.152 -0.3308  0.3276  0.1996
86730W        W87594  27.531   9.907  25.536  0.0416  0.1626 -0.2644
86731W        W87595   4.061  15.786  18.095  0.0556 -0.0332 -0.2080
86732W        W87596   9.868  11.170  12.556  0.0402 -0.0265 -0.3899
86733W        W87597  22.011   8.689   1.365  0.0874 -0.1174  0.0466
86734W        W87598  24.264  18.835  17.669  0.4538  0.5103 -0.2769
86735W        W87599  12.766  12.754  23.244  0.0297 -0.1000 -0.0657
86736W        W87600   3.303  11.859   1.888 -0.2935  0.0534 -0.0617
86737W        W87601  10.725  14.601   9.961  0.2815 -0.2566 -0.1841
86738W        W87602   2.591  21.570  11.597 -0.0537  0.1745  0.0641
86739W        W87603  28.689  24.399   5.187  0.1611  0.3544 -0.1358
86740W        W87604   8.739   5.615  17.522  0.1377 -0.2205 -0.1572
86741W        W87605  27.826   0.180   1.939 -0.2756  0.0843 -0.1312
86742W        W87606  27.973  26.320  12.821 -0.0619  0.0536  0.0273
86743W        W87607   1.474  23.931  24.681  0.0840 -0.0202  0.1202
86744W        W87608   4.204   7.194  29.132 -0.2533 -0.0876  0.0635
86745W        W87609  18.655  14.322  19.562  0.0208 -0.1287 -0.0867
86746W        W87610   3.151   9.895  26.107  0.0615  0.2476  0.2342
86747W        W87611  18.093   6.455   7.104 -0.0063 -0.1452 -0.0641
86748W        W87612  13.656  13.707  23.772 -0.0307 -0.1099  0.1711
86749W        W87613  24.868  12.988   2.011 -0.1466  0.1430  0.3641
86750W        W87614   5.218   2.702   4.403  0.0461 -0.3742 -0.1083
86751W        W87615   3.971  27.474   5.768  0.0941  0.0226 -0.2267
86752W        W87616  20.225  13.217  27.194  0.4147  0.2108  0.0651
86753W        W87617  19.908   7.682   4.427 -0.1451  0.1053  0.2056
86754W        W87618  16.121   5.643  27.640 -0.1449 -0.0268  0.0501
86755W        W87619   0.430  25.111   2.903  0.0303  0.1991  0.1845
86756W        W87620  22.473  24.877  28.032  0.1191 -0.0307  0.1998
86757W        W87621  15.786   9.573   8.184 -0.1755 -0.0037 -0.0971
86758W        W87622  26.898   4.923  21.819 -0.0886 -0.1635 -0.2871
86759W        W87623  23.092  21.874  10.053 -0.0162  0.0018  0.2568
86760W        W87624   0.586  15.450  11.695 -0.0919 -0.1530 -0.1429
86761W        W87625   2.733  28.255  18.483  0.1902 -0.2002 -0.4061
86762W        W87626  16.704  26.635  20.303 -0.0109 -0.2578 -0.0572
86763W        W87627  19.768  19.781  16.487  0.2763 -0.1506  0.0596
86764W        W87628   1.631  18.853   0.640  0.0082 -0.2517  0.3799
86765W        W87629  25.205   7.497   8.507 -0.1028 -0.2382 -0.1405
86766W        W87630  15.890  13.449  25.145  0.2272  0.0277 -0.2489
86767W        W87631   3.809   5.013   9.864 -0.1245  0.0851 -0.0330
86768W        W87632  23.360  17.219  10.698 -0.3357  0.2008  0.0555
86769W        W87633  20.121   2.455  20.908 -0.1060  0.0478  0.2289
86770W        W87634  18.178  24.600  21.819  0.0248  0.4176  0.3003
86771W        W87635   7.802   4.958   0.660  0.0515  0.0066  0.3968
86772W        W87636   1.071   4.346   4.465 -0.0751  0.2076 -0.3118
86773W        W87637  27.375   6.725  23.104 -0.0440  0.2384 -0.3782
86774W        W87638   5.812  21.336  24.681  0.1343  0.0668 -0.0369
86775W        W87639   6.513   2.156  25.195  0.2507  0.1656  0.0812
86776W        W87640  26.523  12.074  15.468 -0.0436 -0.4104  0.3384
86777W        W87641   0.300  15.011  14.946 -0.0245  0.0995 -0.0457
86778W        W87642  28.318   6.311   4.872  0.0520 -0.1367 -0.0882
86779W        W87643   5.332  10.283   2.781  0.3761 -0.1358 -0.3048
86780W        W87644  25.407  28.981  24.015  0.0247 -0.4141  0.0766
86781W        W87645  20.206  16.335  10.096 -0.1470 -0.4914 -0.1961
86782W        W87646   0.274  27.034  27.873 -0.3172  0.0776  0.3189
86783W        W87647  16.898  14.736   6.630  0.1741 -0.1538 -0.1566
86784W        W87648  17.547   5.926  13.734 -0.1231 -0.0267  0.0434
86785W        W87649   9.970   2.912  11.512 -0.1601  0.0263 -0.0582
86786W        W87650  16.620  27.667  23.830  0.1514 -0.0302 -0.1276
86787W        W87651   5.278  19.661   6.412  0.0070 -0.2411  0.1858
86788W        W87652   5.999  24.829  24.901 -0.0629 -0.1141 -0.1534
86789W        W87653   6.753   4.533  12.646 -0.2120 -0.1313  0.1819
86790W        W87654  19.704  25.921  24.178 -0.2124 -0.3660 -0.3128
86791W        W87655  19.317  28.741   1.473  0.1329 -0.0987  0.0883
86792W        W87656   9.608   1.746  11.285 -0.1039 -0.0620  0.4442
86793W        W87657  16.861  13.687   5.688 -0.1801 -0.2812  0.0320
86794W        W87658   4.765  18.670  16.363 -0.2833  0.2169 -0.1759
86795W        W87659  28.558  13.896  14.765 -0.1436  0.0600  0.0440
86796W        W87660  17.563  14.629   3.414 -0.0494 -0.4014 -0.0304
86797W        W87661   0.647  16.468  27.602 -0.1717 -0.4806  0.2299
86798W        W87662   5.371  12.013   0.105 -0.2571  0.1564  0.1483
86799W        W87663  22.061  17.258  18.614 -0.2871 -0.3393 -0.0019
86800W        W87664  16.693  15.948  17.740 -0.0373  0.2530  0.2078
86801W        W87665  15.736  13.452   7.938 -0.0456 -0.0350  0.0429
86802W        W87666  26.999  15.865  25.485 -0.0796  0.0879 -0.1713
86803W        W87667   1.260   6.678  19.284 -0.0227  0.2527  0.0819
86804W        W87668  15.142  22.633  19.438  0.0032 -0.1778  0.2892
86805W        W87669   2.649   3.824  25.213 -0.2664 -0.1397  0.4140
86806W        W87670  12.270   2.797  16.129  0.3799  0.3228 -0.0193
86807W        W87671   0.946   0.289   0.940 -0.0005  0.1136  0.0996
86808W        W87672  14.424  27.798  16.310  0.0078  0.0191 -0.1160
86809W        W87673   9.457  10.354   9.406  0.1605 -0.1435  0.0791
86810W        W87674   1.289  17.837   9.903 -0.1692 -0.1447 -0.0045
86811W        W87675  22.678  12.818  16.956 -0.0474 -0.0151 -0.1616
86812W        W87676  10.296  11.589   1.358 -0.0397 -0.1327 -0.1035
86813W        W87677  13.150  27.771   9.952  0.1787 -0.0778  0.1947
86814W        W87678  20.112  10.105   3.339  0.2596 -0.1032  0.0021
86815W        W87679   9.290  13.366  21.333 -0.2025  0.0816 -0.0593
86816W        W87680  23.950  11.333  15.015 -0.2132  0.0258 -0.0043
86817W        W87681  20.788  25.519  28.196  0.0230 -0.2336  0.2675
86818W        W87682  16.541  15.014   3.891  0.3326 -0.1444  0.0315
86819W        W87683   5.682  10.010   8.918 -0.0910  0.0147  0.0361
86820W        W87684  20.867  26.581   6.995  0.0819  0.0300 -0.0537
86821W        W87685   9.071  11.360  18.293  0.4149 -0.0798  0.3628
86822W        W87686  10.945   9.771   3.328  0.1168  0.0972  0.4380
86823W        W87687  19.646   6.946  22.332 -0.0485  0.0169 -0.0135
86824W        W87688  23.522  19.245   7.951  0.0292  0.0340  0.1929
86825W        W87689   5.782  14.007   2.147  0.0954 -0.2878 -0.0380
86826W        W87690  26.316  25.136  22.354 -0.1853 -0.0501 -0.1449
86827W        W87691   1.367   6.408  11.041 -0.0858 -0.2350  0.1173
86828W        W87692  19.212  11.451  18.500  0.0408 -0.1201 -0.2572
86829W        W87693  27.807   7.451  22.125  0.0401 -0.0638 -0.1947
86830W        W87694   1.049  17.163  25.025  0.2496 -0.1323 -0.0704
86831W        W87695  10.337  13.508   4.435  0.2307  0.0047 -0.0102
86832W        W87696  23.085   2.339  20.709 -0.2566  0.3683  0.0131
86833W        W87697  25.878   5.748  19.663 -0.1105  0.0271 -0.0561
86834W        W87698  10.391  11.966  28.039 -0.0711  0.3526 -0.1488
86835W        W87699   3.974  22.640  28.627 -0.2007  0.1624 -0.0058
86836W        W87700  14.021  12.283   5.921 -0.1042  0.0940 -0.0227
86837W        W87701  16.099  22.267  11.473 -0.3041 -0.0597  0.2515
86838W        W87702   3.370  27.126  21.028 -0.0769 -0.1161  0.0561
86839W        W87703   6.112   5.890  11.208 -0.2398 -0.2148 -0.2906
86840W        W87704   4.921   9.852  11.165  0.2003  0.1863 -0.1125
86841W        W87705  26.870  18.328   0.243  0.0907 -0.3516  0.0209
86842W        W87706  15.765  23.676  12.730  0.1615  0.1540 -0.1250
86843W        W87707   3.053  11.473   1.679 -0.0484 -0.0229  0.2091
86844W        W87708   7.809   4.461  15.354 -0.1440  0.1540  0.1912
86845W        W87709  27.609  18.811  25.832 -0.0313 -0.0808  0.1635
86846W        W87710  17.628  22.413   3.030 -0.3110 -0.0911 -0.3617
86847W        W87711  10.028   5.683  18.522  0.2216 -0.3766  0.4073
86848W        W87712   6.998  22.784  20.544  0.4364  0.1864 -0.2746
86849W        W87713  28.549  14.051  25.211  0.2027 -0.3133 -0.0470
86850W        W87714  22.301  19.602   7.874  0.0026  0.0475 -0.0577
86851W        W87715   9.068  17.137  15.247  0.0667 -0.0050  0.0623
86852W        W87716  19.564   7.682  17.012  0.0687 -0.1410  0.0651
86853W        W87717   5.291   6.122  12.619 -0.1936 -0.0801  0.0862
86854W        W87718   1.567  16.464   1.214 -0.3383  0.3516  0.0410
86855W        W87719  18.867   3.913  12.558 -0.2577 -0.1948  0.0852
86856W        W87720  20.366  28.572  15.697  0.0599  0.1313 -0.1932
86857W        W87721  21.636  13.839  16.539  0.1563 -0.1481 -0.0730
86858W        W87722  25.663   4.201  27.553 -0.0138  0.0107 -0.2134
86859W        W87723  16.955  21.736   4.406 -0.0931  0.0368  0.0160
86860W        W87724  26.326   6.512  17.539 -0.2579 -0.2029 -0.1688
86861W        W87725   5.701   1.125   1.026 -0.1989 -0.2962 -0.0261
86862W        W87726  26.612  20.468  15.187  0.1791 -0.0676 -0.3584
86863W        W87727  12.057   1.100  15.590  0.0309  0.2137  0.0130
86864W        W87728   9.380   4.864   4.243 -0.0951  0.0198  0.0563
86865W        W87729  14.270  12.613   8.222  0.0378 -0.1020  0.2055
86866W        W87730   6.445   3.903   3.536  0.1108 -0.3851 -0.0222
86867W        W87731   4.716  13.016  28.600 -0.0778  0.1562 -0.3103
86868W        W87732  12.819  25.131   2.199  0.0850  0.0099 -0.0716
86869W        W87733  15.664   7.353  12.273  0.0829  0.2604 -0.2457
86870W        W87734  28.985   5.516  21.936  0.0469  0.0476 -0.0147
86871W        W87735  19.917   1.657   2.394  0.1020 -0.2098 -0.1857
86872W        W87736  14.784  23.524  23.126  0.2254  0.0968  0.0552
86873W        W87737  11.802   7.905   7.967  0.1561  0.1777  0.0784
86874W        W87738  15.129  18.866   0.129  0.0555 -0.1049 -0.2991
86875W        W87739   8.623  13.566  27.192 -0.1773 -0.0836  0.3490
86876W        W87740   4.594   9.599  18.686  0.0695  0.1328 -0.0454
86877W        W87741   8.622  18.454  26.758  0.3719 -0.0652  0.0136
86878W        W87742   7.088  22.886  24.426  0.0173 -0.1079  0.2486
86879W        W87743  14.585  15.908  17.076 -0.1388  0.3292  0.0726
86880W        W87744  24.362  27.938  10.475  0.4353  0.1666  0.3163
86881W        W87745  19.541  20.417  20.601  0.1158 -0.2674 -0.0025
86882W        W87746  15.924  17.796   6.756 -0.3316  0.0373  0.4776
86883W        W87747  26.892  11.372  23.964  0.0810  0.0379  0.2097
86884W        W87748   9.530  12.316   3.548 -0.1857  0.2103 -0.0294
86885W        W87749   5.496  20.472   3.869  0.2044  0.2757  0.1926
86886W        W87750   3.837  23.739  15.773  0.0682 -0.0772 -0.0361
86887W        W87751  27.857  22.462   9.923 -0.0046  0.0121  0.1234
86888W        W87752  13.755  28.416   8.026 -0.0498  0.0879  0.0999
86889W        W87753   0.189   0.573  27.093 -0.0438 -0.2560  0.0624
86890W        W87754  19.976  11.622   4.686  0.4076  0.0406 -0.0871
86891W        W87755  23.886  15.899  29.132 -0.0095  0.1261  0.2184
86892W        W87756  16.114   3.284  20.486 -0.0154  0.0590  0.2282
86893W        W87757  18.960  18.185  23.189  0.1581 -0.1613 -0.2356
86894W        W87758  23.026  22.508  28.993  0.0581  0.1541  0.1338
86895W        W87759  19.902   1.640  21.966  0.2714  0.0365 -0.2242
86896W        W87760  16.016   2.318  10.805  0.0047 -0.1070  0.2791
86897W        W87761   3.181  14.291  27.766 -0.1606 -0.0016 -0.0527
86898W        W87762   1.350  10.484  28.221 -0.4311 -0.3394 -0.2619
86899W        W87763   9.238  19.143  13.600  0.0291  0.1233  0.0995
86900W        W87764  25.384   2.781  13.023 -0.0308 -0.0579 -0.1779
86901W        W87765   1.477  13.194   4.748 -0.0594  0.0288 -0.1780
86902W        W87766  10.600  10.684  27.590  0.1989 -0.0263  0.0033
86903W        W87767   2.036  14.576  26.155 -0.0630  0.4814 -0.2267
86904W        W87768  13.976  12.820   9.302 -0.0534 -0.0325  0.1484
86905W        W87769   5.256  25.024  14.695 -0.2165 -0.0137  0.2359
86906W        W87770  22.562   4.741  14.749 -0.0099 -0.2192  0.0070
86907W        W87771   0.296   1.727   7.849 -0.0485 -0.1979 -0.1264
86908W        W87772   5.304  25.363  19.584  0.2010 -0.0390 -0.2554
86909W        W87773  10.220  23.572  17.647  0.0594 -0.0932  0.1296
86910W        W87774   5.532   2.990  22.612  0.0980  0.2646  0.1880
86911W        W87775   6.846   3.826   6.861  0.0880  0.2391 -0.1149
86912W        W87776  12.930  10.510   3.436 -0.1101  0.0664 -0.0142
86913W        W87777  27.476   3.062  15.381  0.1614 -0.0746 -0.0879
86914W        W87778   0.157  14.835  17.439  0.1149 -0.1650 -0.0333
86915W        W87779   0.290   8.983  29.133  0.0614 -0.2879 -0.1356
86916W        W87780  17.437  18.448  14.831  0.0031  0.0588 -0.1627
86917W        W87781  10.137   3.205   1.462 -0.0822  0.2530  0.0146
86918W        W87782   4.337  18.410  11.460  0.3165 -0.0723  0.0668
86919W        W87783  12.999   1.483  20.205  0.0020  0.0564 -0.2457
86920W        W87784  23.308   3.465  19.378  0.1668 -0.1688 -0.1510
86921W        W87785  27.769  14.146  22.498  0.2863 -0.1148  0.0133
86922W        W87786  21.912  11.662   9.944 -0.0260  0.1372  0.1286
86923W        W87787  11.191   8.886   4.729  0.1150  0.1147  0.1959
86924W        W87788  12.867  20.991   0.935  0.0899  0.2046  0.1409
86925W        W87789  17.434   3.568  14.741 -0.0608 -0.2640  0.0270
86926W        W87790  18.020   1.642   1.987  0.1343  0.0542 -0.2850
86927W        W87791   3.444  14.949  21.181  0.1842 -0.1699  0.2142
86928W        W87792   2.899  16.825  27.028  0.1423  0.0552  0.0934
86929W        W87793  10.664  24.367  22.026 -0.1066  0.0345  0.2119
86930W        W87794   7.896   4.440  28.410  0.1119 -0.1125 -0.3860
86931W        W87795  20.807  27.574  14.233  0.1814 -0.0903 -0.0257
86932W        W87796  15.531   4.899  13.522  0.1071 -0.0359 -0.0218
86933W        W87797  16.293  12.802   9.942  0.0108  0.0607  0.0872
86934W        W87798   8.427  13.758   2.964  0.0717  0.0024 -0.1040
86935W        W87799  28.858  17.490   4.851 -0.0944 -0.2033  0.0821
86936W        W87800  22.652  14.134  13.047  0.1683  0.1107  0.0071
86937W        W87801  12.741   9.024  18.772 -0.1587 -0.0854  0.0674
86938W        W87802  10.992  10.846  10.281  0.0543 -0.0750 -0.0402
86939W        W87803  18.269  10.485  25.526  0.0557  0.2667  0.2790
86940W        W87804  16.884  28.628   2.494 -0.3041  0.1266 -0.0652
86941W        W87805  19.613  14.140  12.938  0.2026 -0.1751  0.0774
86942W        W87806  16.852  15.370   4.023 -0.0677 -0.1267 -0.0860
86943W        W87807  22.759   4.176   2.246  0.0892 -0.1827 -0.1046
86944W        W87808  19.133  15.397  26.182 -0.2228 -0.0634  0.0154
86945W        W87809  27.134  15.425  11.138 -0.0444  0.3142  0.0917
86946W        W87810  18.965  12.555   2.609  0.1022  0.0445 -0.0037
86947W        W87811  20.294  10.036   8.774 -0.2065  0.3165  0.0150
86948W        W87812  11.553  21.095  23.465  0.0442 -0.1982 -0.0212
86949W        W87813   1.549  27.525  23.355  0.0295  0.0932  0.0945
86950W        W87814  22.508  12.942  17.835  0.0419 -0.0509 -0.0218
86951W        W87815  16.834  16.834   4.906  0.0196  0.3487  0.0254
86952W        W87816  17.109  13.866  18.494  0.0922 -0.0094  0.0823
86953W        W87817  24.951  28.085  15.159  0.0138 -0.2171  0.1477
86954W        W87818   1.805  13.654  22.503  0.0176  0.3112  0.3324
86955W        W87819  21.244   2.968   0.404 -0.3078 -0.0316  0.1464
86956W        W87820  27.043  28.072  21.119  0.1060 -0.0879  0.1205
86957W        W87821  18.747   1.685  19.312 -0.1201  0.1964  0.5057
86958W        W87822  13.644  27.331  24.970 -0.0414 -0.0933 -0.1363
86959W        W87823   0.983  16.792  27.728  0.2253  0.0106  0.1332
86960W        W87824  21.587   2.547  14.978 -0.2370  0.1160  0.1747
86961W        W87825   2.087  27.513  10.696 -0.1927  0.2003  0.1169
86962W        W87826  18.059  21.515  27.745 -0.3057 -0.3027 -0.1354
86963W        W87827  16.517  20.599  19.508 -0.2063  0.0070  0.2265
86964W        W87828  14.967   9.929  11.973 -0.0083  0.1167 -0.0058
86965W        W87829  27.434   2.789   6.235 -0.1208 -0.1960  0.0778
86966W        W87830  19.405  16.141  17.286  0.0587  0.2060  0.0618
86967W        W87831  18.897   7.554  22.551  0.0024 -0.1531 -0.1705
86968W        W87832   2.252  21.603  21.517  0.0232 -0.1911  0.0347
86969W        W87833  12.930  27.095  13.585  0.3400 -0.1017  0.0188
86970W        W87834   0.667  15.625  10.135 -0.4811  0.1031 -0.1161
86971W        W87835  20.111  16.929   6.029 -0.0076  0.1623 -0.4535
86972W        W87836  25.411   0.278  10.676 -0.0404  0.0246 -0.0786
86973W        W87837  11.569  14.482  11.925 -0.3511  0.0882  0.4544
86974W        W87838   3.162  15.543  11.280  0.0074 -0.0882  0.3720
86975W        W87839  12.934  13.054   1.929 -0.1633  0.1846 -0.0975
86976W        W87840  16.677  24.800  12.923 -0.2121 -0.0931  0.0823
86977W        W87841   6.682   8.306  19.738 -0.3760 -0.0890  0.0198
86978W        W87842  24.231  15.048  12.111  0.1759 -0.1781 -0.0725
86979W        W87843  21.887  12.112  27.399  0.1821 -0.1864  0.0269
86980W        W87844   4.704  16.169  26.986  0.3188  0.1846 -0.3015
86981W        W87845  26.213  27.461  20.688 -0.0440 -0.3048  0.0292
86982W        W87846  25.451  17.172  12.010 -0.0573 -0.1535  0.0275
86983W        W87847  21.821  10.669  27.815  0.2539  0.0496  0.0570
86984W        W87848  22.017  22.001  19.205  0.0551 -0.1235 -0.1348
86985W        W87849   1.173   3.722   9.422 -0.3508 -0.0464 -0.1920
86986W        W87850  28.001   8.538  14.628 -0.1295 -0.0374 -0.0527
86987W        W87851  26.509   2.695   7.162  0.1550  0.0946  0.1193
86988W        W87852   8.114  14.632  18.057 -0.0018  0.0168 -0.1551
86989W        W87853  13.873  26.689  16.046 -0.0604  0.0795  0.0780
86990W        W87854   3.915  18.615   1.108 -0.1250  0.2663  0.3312
86991W        W87855  26.160   0.376   6.011 -0.0052 -0.0708  0.2161
86992W        W87856  18.359  25.993   4.077  0.1499 -0.0997 -0.2562
86993W        W87857   3.820  13.740  22.918  0.0116 -0.0589 -0.2956
86994W        W87858   0.294  27.444  22.012  0.1628  0.1746 -0.2579
86995W        W87859  28.293  12.527  15.866 -0.2508  0.0863 -0.1229
86996W        W87860   9.084   5.698  19.239 -0.1256  0.0369  0.1925
86997W        W87861   5.960   6.833  10.695 -0.0656  0.1041  0.2390
86998W        W87862   7.663  21.249   3.899  0.1522 -0.1238  0.1067
86999W        W87863  14.765  17.881  19.592 -0.0253  0.0446  0.0982
87000W        W87864  24.845  11.096  12.169 -0.3361  0.1570  0.1928
87001W        W87865  23.223  11.508  14.782  0.0403 -0.1150 -0.3178
87002W        W87866  14.710  27.796   4.562  0.1247 -0.0799 -0.0849
87003W        W87867  23.427  16.130  18.713 -0.1234  0.0220 -0.0988
87004W        W87868  22.667   5.875  13.151 -0.1529  0.1382 -0.3355
87005W        W87869  28.525  20.792   3.177  0.0643  0.1770  0.1357
87006W        W87870  25.974   9.891  27.908 -0.0014  0.3412 -0.0128
87007W        W87871  10.549  10.798  10.906 -0.1727 -0.0804  0.0863
87008W        W87872  13.728  22.313  12.257 -0.2271 -0.2321  0.2367
87009W        W87873  20.642   1.421   5.950  0.0881  0.1659 -0.1593
87010W        W87874   2.531  26.400  15.504  0.0231  0.4108 -0.1433
87011W        W87875  26.135  15.230   2.048 -0.3863 -0.0870 -0.1995
87012W        W87876  26.150  10.718  18.286 -0.0103 -0.1719 -0.0235
87013W        W87877  19.803   5.905   2.053 -0.1152 -0.0486  0.2563
87014W        W87878   6.913   7.290  18.958  0.1742 -0.1166 -0.0751
87015W        W87879  11.644  12.388  13.908 -0.4448  0.0583  0.3310
87016W        W87880  17.107   0.705  19.975  0.4644 -0.0942  0.0860
87017W        W87881   1.380  25.603   2.743  0.2143 -0.2375 -0.0857
87018W        W87882  21.166  13.874  22.762  0.2982  0.1869  0.0550
87019W        W87883  22.952  20.083   5.012  0.1935 -0.2062 -0.2204
87020W        W87884   9.839   8.392   4.837 -0.1351 -0.0055  0.0328
87021W        W87885   2.404   3.919  27.059  0.0715 -0.0065 -0.1303
87022W        W87886   8.768  28.213   6.735 -0.0542 -0.0013  0.0809
87023W        W87887  24.709   4.991  23.314 -0.0924 -0.0629  0.0345
87024W        W87888   5.641  11.580   7.246  0.1944 -0.2741  0.0538
87025W        W87889   3.844  17.469  23.908 -0.0877  0.0482 -0.0721
87026W        W87890  14.848  16.998   5.724  0.1856 -0.1496  0.1397
87027W        W87891  17.528  13.419   2.242  0.3916  0.1059  0.0255
87028W        W87892   1.614  20.405   9.867  0.1173  0.0447 -0.1261
87029W        W87893  15.007  20.360  16.659  0.0170 -0.1189  0.0319
87030W        W87894   2.648  23.818  10.622  0.0282  0.2277  0.2118
87031W        W87895  25.960  11.486  26.480  0.0728 -0.0897  0.0901
87032W        W87896  10.088  16.718  17.180  0.2608 -0.1603 -0.1043
87033W        W87897  17.014  14.346  20.878  0.1007  0.0504 -0.0778
87034W        W87898  12.085   0.439  14.769  0.3313 -0.2275 -0.2731
87035W        W87899  27.888  10.644  11.721 -0.0442 -0.2266  0.1244
87036W        W87900  27.247  10.533  11.017  0.1651  0.0668 -0.2503
87037W        W87901  23.541   3.831   6.460  0.0655 -0.2081 -0.1970
87038W        W87902   8.135  10.374   1.256 -0.0515 -0.0617 -0.0020
87039W        W87903   4.272   5.291  28.431  0.0729 -0.2564 -0.0467
87040W        W87904   8.888  23.767   6.849 -0.3190 -0.1467 -0.1373
87041W        W87905   8.913   2.096   5.996  0.0918  0.0266  0.1044
87042W        W87906  17.760  27.708  19.741 -0.3245 -0.3317  0.0228
87043W        W87907  24.764   8.612  18.732 -0.2318 -0.0851 -0.1130
87044W        W87908   0.010  10.974  20.121 -0.0379  0.0916 -0.3759
87045W        W87909  19.658  18.561   7.881  0.1243  0.3766  0.0580
87046W        W87910  23.655  13.872   5.384 -0.0019  0.2612 -0.2119
87047W        W87911  10.135  23.087  10.767 -0.1626 -0.2335 -0.2297
87048W        W87912   0.026   9.859  25.653  0.0226  0.2425  0.2040
87049W        W87913   1.670  24.561   8.795  0.3806 -0.0273 -0.1942
87050W        W87914  18.276  13.446  13.850 -0.2034 -0.0349 -0.1463
87051W        W87915  13.755  15.665  10.739  0.1295 -0.0474 -0.1396
87052W        W87916  21.712  27.485  15.875 -0.0299 -0.0071 -0.0162
87053W        W87917  24.057   6.012  11.928 -0.0447  0.2016  0.1466
87054W        W87918   8.113   6.879   8.719 -0.0980  0.0571 -0.0248
87055W        W87919  14.962   7.095   6.998 -0.1633 -0.1293  0.2213
87056W        W87920   1.850   4.829  16.634  0.0869  0.4696 -0.1365
87057W        W87921  25.999   1.204   1.334 -0.0038 -0.0566 -0.0501
87058W        W87922  23.247  14.516  14.376  0.1954  0.0384 -0.3171
87059W        W87923   9.315   8.064   2.597 -0.0280 -0.2445 -0.4654
87060W        W87924   7.679  20.035   0.511  0.1531  0.2000 -0.1525
87061W        W87925  21.546  10.026  14.369 -0.0176  0.2774 -0.0430
87062W        W87926   8.944  21.916  19.643  0.0327  0.1237 -0.1431
87063W        W87927  14.717  21.915   4.526  0.2150  0.1508  0.2177
87064W        W87928  19.392  14.892   9.076 -0.0122 -0.0427 -0.1844
87065W        W87929  27.728  19.912   0.884 -0.1419  0.0572 -0.4612
87066W        W87930   5.645   3.950  13.823 -0.1113 -0.1121  0.0493
87067W        W87931  23.501  18.700   5.852  0.1063  0.2202  0.3028
87068W        W87932  28.684   3.940  13.664  0.1796  0.1652  0.1949
87069W        W87933   9.219  10.608   7.575  0.1340 -0.1623  0.0290
87070W        W87934   0.329   7.480   1.560  0.0462 -0.1354  0.0020
87071W        W87935  24.026   9.882   2.868  0.1541  0.2508  0.3296
87072W        W87936   5.247  28.120  14.135  0.0548 -0.0450 -0.1285
87073W        W87937  13.615  16.510  17.263  0.1531 -0.1140 -0.1865
87074W        W87938  28.475  14.202  12.022  0.0407 -0.0901 -0.1880
87075W        W87939   8.699   7.725  16.801 -0.1269  0.1876  0.3203
87076W        W87940  21.087   8.648   1.161  0.0784  0.0467 -0.0957
87077W        W87941  17.889  16.154  25.042  0.0145  0.1946 -0.0595
87078W        W87942  22.128  18.653  11.171 -0.1123 -0.1059 -0.0218
87079W        W87943  26.229  11.058  16.607 -0.2987  0.2231 -0.2212
87080W        W87944   0.342  13.701  14.885  0.2899  0.1444 -0.0859
87081W        W87945  12.400   2.678   4.134  0.1795 -0.1059  0.3153
87082W        W87946   8.462   8.946  29.120  0.1327  0.0274 -0.2092
87083W        W87947   8.724  26.521   5.182  0.0881 -0.0193 -0.0408
87084W        W87948   0.407  16.638  20.985 -0.3361 -0.3749 -0.0908
87085W        W87949  10.792   3.974   5.862 -0.0376  0.0529  0.0588
87086W        W87950  21.167  22.733  17.154  0.0044  0.1493 -0.0225
87087W        W87951   1.268   2.087  19.537 -0.4669  0.0348  0.1154
87088W        W87952  16.988  28.293  10.610  0.0003  0.0749 -0.1289
87089W        W87953  27.539  13.244   7.509  0.1719 -0.0046  0.1583
87090W        W87954  22.237   6.872  18.061  0.1075 -0.7771  0.1418
87091W        W87955  22.534   3.609  25.780  0.0881 -0.1500  0.1347
87092W        W87956  26.830  20.191   8.266  0.0267 -0.0051 -0.1034
87093W        W87957   0.248  16.640  28.597 -0.1617 -0.2465 -0.0268
87094W        W87958  12.572  24.737  20.010  0.4335  0.0834 -0.2763
87095W        W87959  18.748  25.295  12.999  0.1057 -0.1626 -0.2142
87096W        W87960  14.104  15.857   1.697 -0.0983  0.2914 -0.0170
87097W        W87961   9.413  15.814   6.505 -0.0184  0.0818 -0.0636
87098W        W87962  26.554  28.286  26.000 -0.1094 -0.2720  0.0811
87099W        W87963   2.758  11.382  23.017  0.2939 -0.0414  0.3726
87100W        W87964  13.395  22.910  24.952 -0.0793 -0.1855 -0.1645
87101W        W87965  20.823   1.932  11.161  0.0197 -0.0600  0.0219
87102W        W87966  23.074  16.103   7.748  0.0759  0.0515  0.1376
87103W        W87967   2.715  10.983  25.480 -0.1688 -0.1832  0.1697
87104W        W87968   6.562  27.912  15.003 -0.2503 -0.1708 -0.1340
87105W        W87969  23.445   0.961  14.549 -0.1962 -0.0504  0.0607
87106W        W87970  15.079  20.854  21.574 -0.1912  0.0958  0.3112
87107W        W87971   6.203  19.104  27.075  0.0445 -0.2202  0.1022
87108W        W87972  25.897  29.055   6.789  0.1430  0.1000  0.0824
87109W        W87973  23.899  15.335  10.516 -0.3056 -0.0291 -0.2386
87110W        W87974  12.898   0.452  14.327  0.0803  0.0149  0.0549
87111W        W87975  21.698   2.289  10.923 -0.1366  0.3270  0.0438
87112W        W87976  27.200   1.740  18.586  0.0695  0.0121  0.2076
87113W        W87977  10.435  16.442  13.442 -0.0394  0.0273 -0.1389
87114W        W87978  10.508   8.597   1.203 -0.0191 -0.3016  0.0599
87115W        W87979   2.092  26.151   7.926  0.0072  0.1069  0.0173
87116W        W87980  27.392   9.739  28.044 -0.1347 -0.0690  0.1784
87117W        W87981  27.354  23.975  28.001  0.2092 -0.1850  0.0537
87118W        W87982   5.429  20.277  18.322  0.3922  0.2409  0.0248
87119W        W87983  12.936  11.819  19.603  0.3373  0.0640 -0.5765
87120W        W87984   0.341  12.194  18.740  0.1361 -0.2907  0.1931
87121W        W87985   7.913  28.561  11.264 -0.0659 -0.1036  0.0413
87122W        W87986  25.841  25.555   8.778  0.1324  0.0183 -0.0254
87123W        W87987  10.048   7.125   5.549  0.0841  0.1487 -0.5357
87124W        W87988  23.107   7.089  20.248  0.0455  0.1592  0.1071
87125W        W87989   4.306  20.888   5.178 -0.1795 -0.4478 -0.2410
87126W        W87990  28.646  13.958   6.873  0.0621  0.1295 -0.1102
87127W        W87991   2.822  23.110   4.393  0.1578  0.0578 -0.0861
87128W        W87992  21.169  28.752  13.277  0.0653  0.0094  0.0559
87129W        W87993  17.798  16.706   1.164  0.2619 -0.1660 -0.1855
87130W        W87994  20.939   0.789   4.879 -0.2138 -0.6369 -0.2589
87131W        W87995  14.004  14.940  24.558 -0.2857  0.3768  0.1519
87132W        W87996   2.751  24.553   8.432 -0.1657  0.0905  0.2014
87133W        W87997  26.177   7.267   2.846  0.0224  0.1020 -0.1095
87134W        W87998  13.761  19.376  11.060  0.1689 -0.0227  0.3148
87135W        W87999  21.989   9.754   1.359 -0.0748  0.0019 -0.0918
87136W        W88000  21.458  17.684  23.781  0.0698  0.0436 -0.2849
87137W        W88001  13.181  17.155  11.937  0.1066 -0.1397  0.1883
87138W        W88002   9.888   7.045   7.449 -0.0386  0.0601 -0.1988
87139W        W88003  19.724   0.909  25.376  0.0026  0.0983 -0.0894
87140W        W88004  27.413   6.096  18.130 -0.2164  0.2024 -0.1419
87141W        W88005   9.205   4.197  15.723  0.0617  0.0476  0.1462
87142W        W88006  21.645  17.250   0.610 -0.2808 -0.0944  0.2153
87143W        W88007  15.019  21.741   2.099 -0.2140 -0.0491  0.3770
87144W        W88008   7.842  21.082   8.516  0.0121 -0.1487  0.2090
87145W        W88009  24.413  14.058   8.984 -0.1070 -0.0796  0.1711
87146W        W88010  17.612  17.767  18.488  0.0090  0.2282 -0.2516
87147W        W88011   3.683   7.386  17.381  0.0175 -0.0535 -0.2011
87148W        W88012  24.260   8.163  12.392 -0.1950 -0.1509  0.1288
87149W        W88013  18.168   7.286  16.195  0.2137  0.2538 -0.1081
87150W        W88014  17.830   1.505   5.629 -0.2131 -0.1344  0.2119
87151W        W88015   6.360  13.280   6.034  0.0695 -0.0535  0.1149
87152W        W88016  26.883  19.874   4.037  0.0853  0.1489 -0.2905
87153W        W88017   9.326  23.530   5.157  0.0866 -0.3794 -0.1935
87154W        W88018  18.907   5.344  12.751  0.0253 -0.0400 -0.0916
87155W        W88019   2.289  19.425   5.480 -0.0560 -0.1670 -0.1528
87156W        W88020  26.718  16.593   9.552  0.3354  0.0799 -0.3105
87157W        W88021   4.633  16.135  24.777  0.1755 -0.0697 -0.0919
87158W        W88022   6.977  16.099  25.730 -0.0458 -0.0591  0.0114
87159W        W88023  21.485  20.421  11.584  0.1235 -0.0822 -0.0520
87160W        W88024  24.556  13.154  15.978 -0.3229  0.1333  0.0910
87161W        W88025   6.552   1.578  12.074  0.1426  0.0068 -0.4273
87162W        W88026   6.317   8.519   8.182  0.1828 -0.0799  0.2533
87163W        W88027  21.813  23.762   6.809 -0.2539  0.0295 -0.3662
87164W        W88028  18.353   5.516  25.518 -0.0211  0.1120  0.1145
87165W        W88029  24.465   9.983  14.864 -0.0463  0.3661 -0.0615
87166W        W88030  19.532   4.402  14.950  0.2062 -0.0034  0.0437
87167W        W88031  21.434  20.580  21.229 -0.5382 -0.1028 -0.0735
87168W        W88032   5.527   3.116   7.389  0.0330  0.0422  0.2564
87169W        W88033  29.119   2.341   9.150  0.0724  0.0511  0.0028
87170W        W88034   0.916  26.086  16.189  0.0958  0.2702  0.0151
87171W        W88035  22.244  14.301   1.346  0.1662  0.1729  0.0166
87172W        W88036  22.371  28.433  18.545 -0.0446 -0.3492  0.4425
87173W        W88037  25.932  13.502  16.595 -0.1796  0.0242  0.3541
87174W        W88038  22.224   0.941  24.106  0.0751 -0.2462 -0.1824
87175W        W88039  21.124  23.450  23.892 -0.0996 -0.0301 -0.0205
87176W        W88040  10.707  18.279   2.087 -0.0016  0.0569  0.0352
87177W        W88041  19.223   2.784  20.442  0.1772 -0.0723 -0.0102
87178W        W88042   7.914  12.894   0.217 -0.5072 -0.3101  0.0595
87179W        W88043  20.703  12.142   2.976 -0.2823  0.1653 -0.1618
87180W        W88044   3.795   2.677  24.375 -0.1022 -0.2030  0.1149
87181W        W88045  22.401   8.244  14.009  0.5785 -0.0256 -0.2078
87182W        W88046   1.530  28.002  17.108 -0.2052 -0.0236  0.1588
87183W        W88047   5.416   4.160   7.364  0.1779 -0.2606  0.1261
87184W        W88048  12.222  25.942   8.857  0.0290 -0.0493 -0.2061
87185W        W88049  16.292  12.355  20.316 -0.1893 -0.1656 -0.2849
87186W        W88050  22.291  18.417   4.389 -0.0111  0.1916  0.3245
87187W        W88051  28.666   3.214   8.003 -0.0726  0.0100  0.1487
87188W        W88052  12.104  24.898  15.010  0.1467 -0.1004  0.0022
87189W        W88053  18.510  10.836  17.156 -0.2449  0.0549 -0.1078
87190W        W88054   6.623  21.226  18.238  0.0344 -0.0393  0.2399
87191W        W88055  28.764   4.686  14.437 -0.0354  0.0748  0.1640
87192W        W88056  27.861   8.929   3.676 -0.1452  0.1746  0.0208
87193W        W88057  26.390  23.012   8.368  0.2763  0.0066  0.0773
87194W        W88058  25.914  22.568   2.378 -0.3907 -0.4231 -0.1238
87195W        W88059   7.564   6.621  23.699  0.0691  0.3055 -0.1522
87196W        W88060  22.478  16.457   3.585 -0.0585 -0.1718  0.2521
87197W        W88061   8.900   6.279   8.373  0.0511 -0.0615 -0.1158
87198W        W88062  22.190   2.704  25.280 -0.1941  0.2535  0.0053
87199W        W88063   6.264  14.180  20.335 -0.4702  0.0759 -0.1505
87200W        W88064   9.428  12.127  15.649  0.0844 -0.3140 -0.0494
87201W        W88065  22.912  18.098   2.720  0.0856 -0.4481  0.2689
87202W        W88066  20.741  27.600  17.466  0.3494 -0.2517 -0.0180
87203W        W88067   9.974   4.747  21.636  0.0899  0.3523 -0.2481
87204W        W88068   9.818   8.194  10.164 -0.1320  0.1613  0.1834
87205W        W88069  14.645  23.121  12.957 -0.3340 -0.0224  0.1413
87206W        W88070  27.496   1.549  27.106  0.2270 -0.1729  0.1649
87207W        W88071  15.182   8.713  28.370  0.1363  0.1014 -0.3351
87208W        W88072   2.582   8.474  11.239 -0.2835  0.1048  0.0036
87209W        W88073   8.416   4.526   7.626 -0.0710  0.1961  0.0324
87210W        W88074  11.125  20.638  22.283  0.1846 -0.1509 -0.4995
87211W        W88075  17.735  16.564   2.995 -0.2753 -0.1064 -0.0545
87212W        W88076  26.860  15.033   5.834 -0.0241 -0.2809  0.0883
87213W        W88077   2.828  27.034  26.989  0.1094  0.1633 -0.1320
87214W        W88078   0.382  23.056   8.378  0.0472  0.0847  0.0105
87215W        W88079  28.889  24.574  22.843  0.1568 -0.0215 -0.0784
87216W        W88080  24.101  25.856   2.664 -0.1347 -0.1359 -0.0163
87217W        W88081  20.272   8.965  21.113 -0.1232  0.2417 -0.2804
87218W        W88082  16.332   9.513  17.198 -0.0321 -0.3139 -0.1274
87219W        W88083  25.175  14.369   5.399  0.1036  0.1266 -0.1589
87220W        W88084   0.121   7.783   6.348 -0.0862  0.2163 -0.0401
87221W        W88085   6.849   6.590   5.404  0.0928  0.3978  0.0357
87222W        W88086  12.811  10.125   1.051 -0.0217 -0.3342  0.1959
87223W        W88087  17.762  14.139   5.237 -0.2889 -0.0676  0.2746
87224W        W88088   7.606  13.620   5.876 -0.3570  0.0122 -0.1548
87225W        W88089   3.839   5.844  17.420 -0.1979  0.2503  0.1461
87226W        W88090   4.604  11.703  20.176 -0.2898  0.2018 -0.0585
87227W        W88091  27.590   9.220  16.108  0.1740  0.1177 -0.0101
87228W        W88092  13.969  12.456  24.378 -0.2419 -0.0172  0.2153
87229W        W88093   0.521  19.664   4.123  0.1375 -0.3122  0.3663
87230W        W88094   6.587  19.081  16.586 -0.2676  0.0652 -0.3878
87231W        W88095  26.979  15.628  13.275 -0.0676 -0.4094  0.1861
87232W        W88096   1.116  11.290  27.277  0.3205  0.0669 -0.0701
87233W        W88097  20.737  28.807  26.363  0.1680 -0.0968 -0.1191
87234W        W88098  14.041  17.934  15.951 -0.2010  0.1372 -0.3611
87235W        W88099   9.067   9.828  11.077 -0.2313 -0.2441 -0.1181
87236W        W88100   4.074   9.899   0.411  0.0374  0.0253  0.3083
87237W        W88101   6.612   4.658  23.947  0.0932 -0.0167 -0.1494
87238W        W88102  18.819  19.618  15.187 -0.1377 -0.0799 -0.3126
87239W        W88103   4.375  11.819  20.797  0.1051 -0.1015 -0.0197
87240W        W88104  13.900  18.850  24.684  0.0915  0.0520 -0.1420
87241W        W88105   6.813  21.799  15.071  0.0478  0.0634  0.0778
87242W        W88106  26.251   0.874  12.713  0.0158  0.1688  0.0538
87243W        W88107  18.151   1.469   0.241  0.1888 -0.2393  0.0808
87244W        W88108  11.889  12.028  20.569  0.2239  0.2711 -0.0515
87245W        W88109  10.719   5.892  26.944 -0.0124 -0.0613 -0.0394
87246W        W88110   8.464   1.304   1.671  0.1806  0.1301 -0.1139
87247W        W88111  21.659   7.140  10.021 -0.0917  0.1213  0.3093
87248W        W88112  20.150   5.545  14.609  0.4010 -0.2573  0.2872
87249W        W88113   7.358   8.548   1.981  0.3306 -0.1312  0.1054
87250W        W88114  21.447  14.793   4.217  0.1511  0.0398 -0.1970
87251W        W88115   2.406  13.186  11.431 -0.0991  0.0788 -0.1580
87252W        W88116  26.996   1.822  21.916 -0.0669 -0.2527 -0.1572
87253W        W88117   4.826   2.950  11.899 -0.4190 -0.1652  0.0361
87254W        W88118  18.368  28.883  18.940  0.0082 -0.0866 -0.1405
87255W        W88119   7.508   8.658   4.999  0.1411 -0.0544  0.0516
87256W        W88120   8.947  23.015  21.973 -0.1831  0.0324  0.1617
87257W        W88121   4.078  12.848  26.965  0.1655  0.0702  0.0409
87258W        W88122  28.235  23.173  15.260  0.2688 -0.0491 -0.1402
87259W        W88123   7.034  10.345   2.798  0.0898  0.0893  0.0201
87260W        W88124  24.316  14.014   5.365 -0.1043  0.0943 -0.0653
87261W        W88125  22.475  14.962  26.548  0.1195  0.0538  0.2229
87262W        W88126  27.921  16.790   6.820 -0.0632  0.0452 -0.0988
87263W        W88127  19.689  25.720   3.030 -0.1927  0.1007  0.1433
87264W        W88128  22.775   7.391  12.407  0.1059  0.1749  0.0334
87265W        W88129  21.623  22.546   3.130  0.0854  0.0887  0.2197
87266W        W88130   2.145   1.765  11.012 -0.3015  0.0138  0.1591
87267W        W88131  23.873  13.713   9.930  0.0717  0.0009 -0.2130
87268W        W88132  27.371  18.976  19.091  0.3085  0.2542  0.2236
87269W        W88133   9.650   9.973   4.606  0.2519 -0.0309 -0.0446
87270W        W88134  20.571   2.779  24.665  0.4904 -0.0483  0.1086
87271W        W88135  12.385   2.444  18.137  0.0875  0.1002 -0.1702
87272W        W88136  18.232   8.641  18.180 -0.2658 -0.1918 -0.0080
87273W        W88137   0.459  27.897  22.344 -0.0999  0.1405 -0.1660
87274W        W88138   8.326  15.360  13.162 -0.0327  0.1033 -0.2411
87275W        W88139   4.420   5.844  24.756  0.1896  0.3505 -0.0451
87276W        W88140  28.375   9.503  18.173 -0.0175  0.2604 -0.1239
87277W        W88141  21.367   3.645  25.642  0.2251  0.2147 -0.0657
87278W        W88142  12.218  26.401  15.483 -0.1894 -0.0663 -0.1820
87279W        W88143  11.380  14.259   9.259  0.0635 -0.1952  0.1841
87280W        W88144   4.042  14.782   2.056  0.0988  0.0508  0.0922
87281W        W88145   3.139  28.292  12.264 -0.0408  0.1052  0.0720
87282W        W88146   6.332  20.772   1.693 -0.2903 -0.0361  0.0002
87283W        W88147  25.056  14.661  14.100  0.1940 -0.0147 -0.2277
87284W        W88148   5.863   1.762  28.534 -0.0092 -0.1457  0.3034
87285W        W88149   8.669  19.293  16.082 -0.3185 -0.0048  0.1881
87286W        W88150  12.852   4.562  22.478 -0.1300 -0.0842 -0.0777
87287W        W88151  22.812  19.646   4.595 -0.0752  0.1199 -0.1718
87288W        W88152   6.148  25.498  16.898 -0.0821  0.2185 -0.1398
87289W        W88153  26.557   5.898  18.576  0.1302 -0.0044  0.0935
87290W        W88154   2.093   7.101   8.269 -0.3465 -0.1892 -0.1968
87291W        W88155   1.072  18.851   0.316 -0.1233 -0.0075 -0.0043
87292W        W88156   9.568  28.223  10.577  0.1463  0.1833  0.2948
87293W        W88157  27.138  13.108  23.736  0.0823  0.2163  0.4033
87294W        W88158   6.686  13.373  12.530 -0.0144 -0.0498  0.0560
87295W        W88159  28.482  20.403  12.254 -0.2642 -0.0629 -0.0302
87296W        W88160  18.967  13.779   7.598 -0.0016 -0.1123 -0.1444
87297W        W88161  10.172  19.974  10.824 -0.0301  0.2122  0.2233
87298W        W88162   1.933  15.781  25.906 -0.1026  0.3478  0.0390
87299W        W88163  14.491  18.786  23.166  0.0963 -0.0905 -0.0710
87300W        W88164  21.588  22.983  24.879 -0.0687 -0.1089  0.0858
87301W        W88165   5.422  10.779  12.394 -0.1240 -0.1006  0.2462
87302W        W88166  26.191  13.249  25.738  0.1934 -0.0075  0.0883
87303W        W88167   4.059   4.120  21.491 -0.0940  0.0584 -0.1742
87304W        W88168   2.765   6.727   2.486  0.2565 -0.0587 -0.0632
87305W        W88169   5.598   5.932  22.209  0.1878 -0.2349  0.2308
87306W        W88170  13.630  16.502  11.096  0.2127  0.2681  0.3244
87307W        W88171  25.128  13.835   7.097  0.1864 -0.0639  0.0531
87308W        W88172   7.648   7.359  16.413  0.2036 -0.1638  0.0286
87309W        W88173   5.092   0.860  22.214 -0.1632  0.4239  0.0083
87310W        W88174  27.705  29.137  12.053 -0.2340 -0.1340 -0.0868
87311W        W88175  25.829   2.764   5.551 -0.1571  0.0184 -0.1090
87312W        W88176   5.602  19.526  19.673 -0.0934 -0.1156  0.0590
87313W        W88177  24.170  21.910   1.967 -0.4214  0.0599 -0.2773
87314W        W88178  21.505  18.274  14.833 -0.3833 -0.2025  0.2200
87315W        W88179  24.237  21.092   5.938 -0.1622 -0.0668 -0.0672
87316W        W88180  16.396  23.476   7.365  0.1092 -0.1795  0.1651
87317W        W88181   9.554   2.009  22.216  0.0732  0.1675  0.1472
87318W        W88182  22.513  28.359   4.610  0.2364  0.0482 -0.0297
87319W        W88183  14.324  16.123   4.470 -0.0105 -0.3112 -0.1116
87320W        W88184  26.977  13.617  24.999 -0.0623 -0.0083  0.0771
87321W        W88185   8.741  28.300  28.311 -0.0965 -0.0315 -0.0274
87322W        W88186   7.465   0.768  20.507 -0.1110  0.0347  0.1955
87323W        W88187  28.918  18.731  17.200  0.2532 -0.3565 -0.2165
87324W        W88188  22.629   4.458  13.528  0.0927 -0.1501  0.1974
87325W        W88189  24.983  12.513   6.432 -0.0683  0.1796 -0.1240
87326W        W88190  20.894  17.969  27.232 -0.0390  0.2400 -0.0008
87327W        W88191  28.834   4.380  24.763  0.0102  0.1295 -0.0367
87328W        W88192  26.607   8.680  22.450  0.1647  0.1182  0.0307
87329W        W88193  22.404  23.408  11.767 -0.2985 -0.0024  0.0026
87330W        W88194  21.848   9.712  23.286  0.2718 -0.1406 -0.0038
87331W        W88195   0.802   6.917  10.555  0.0015 -0.1782 -0.2098
87332W        W88196  19.726  24.039  25.386 -0.5250  0.2084 -0.1446
87333W        W88197  28.030  18.086  20.382 -0.1058 -0.1507 -0.0000
87334W        W88198  22.001  16.786   4.496  0.1185  0.1036  0.1472
87335W        W88199   2.016  26.592  16.370  0.0232  0.0976 -0.0349
87336W        W88200   0.586  10.475  18.918  0.1751 -0.0165 -0.1910
87337W        W88201   7.340   3.360   1.528 -0.1388 -0.3204  0.2837
87338W        W88202  17.337  26.461  19.255 -0.1969 -0.1021  0.3279
87339W        W88203  26.064  16.556   7.078 -0.2184 -0.0873  0.3352
87340W        W88204   3.246   8.460   0.866  0.2315 -0.0624 -0.3437
87341W        W88205   1.829  25.354   6.108  0.3208 -0.1728  0.0675
87342W        W88206   0.657   0.062  13.625 -0.0354 -0.0723 -0.0219
87343W        W88207  24.628  28.631   6.665  0.1410  0.2208  0.0648
87344W        W88208  19.072   6.016  17.168 -0.1830 -0.1153  0.3478
87345W        W88209  21.144   4.436  18.212  0.0451 -0.3119 -0.0091
87346W        W88210  13.666   1.509   7.087  0.4155  0.0805  0.2573
87347W        W88211  28.482   4.548  17.599 -0.0718 -0.2238 -0.2100
87348W        W88212   4.829  29.068  17.262  0.1704 -0.1603 -0.3608
87349W        W88213   3.982  22.060   8.046 -0.0018 -0.3163 -0.1506
87350W        W88214  21.794  12.059  28.443 -0.1433 -0.1397 -0.0125
87351W        W88215  21.578  12.825  11.296 -0.0616  0.0452 -0.0029
87352W        W88216   3.306  10.501  14.978 -0.2863 -0.1058 -0.0834
87353W        W88217   3.704   8.146  19.899 -0.2513 -0.2837  0.0875
87354W        W88218   1.815  18.951   6.388 -0.1550  0.2154  0.1056
87355W        W88219  11.939  15.324   9.958  0.0354 -0.1504  0.2182
87356W        W88220   4.822  15.818  26.575  0.0836  0.2300  0.2024
87357W        W88221  20.690  23.488  17.732 -0.0982  0.2957  0.1204
87358W        W88222  19.224   1.666   4.024  0.2490 -0.0105 -0.1466
87359W        W88223  26.150  17.772  12.563  0.0590 -0.2634  0.1670
87360W        W88224   1.386   4.923  14.550 -0.2934 -0.1325  0.1451
87361W        W88225   9.495   5.624   3.083  0.0317 -0.0107  0.2015
87362W        W88226  26.130  22.937   3.752 -0.2650 -0.2297  0.1060
87363W        W88227   1.567  16.357  10.469  0.3893  0.1790 -0.0983
87364W        W88228  11.438   0.431  15.857  0.1893 -0.1453 -0.1881
87365W        W88229   8.536   3.536  13.792 -0.0361 -0.1772 -0.2622
87366W        W88230  28.313   4.303  21.944 -0.1756  0.4290  0.1950
87367W        W88231   0.002   2.046  17.431  0.1201  0.0689 -0.1628
87368W        W88232  20.298  10.869  12.011  0.0260  0.4483  0.0565
87369W        W88233  16.282  18.764   8.688 -0.2034 -0.1476  0.0067
87370W        W88234  23.360   7.387  27.279  0.0556  0.1341 -0.3484
87371W        W88235  11.525  23.232  16.265  0.0229 -0.0371 -0.1762
87372W        W88236   0.694  20.223   9.432  0.2136  0.1123 -0.0472
87373W        W88237   9.654  17.339  15.265  0.1956  0.2527  0.2598
87374W        W88238  26.194  13.660   4.999  0.0320  0.0447  0.4065
87375W        W88239   2.650  20.950  15.193 -0.0468 -0.3105 -0.2656
87376W        W88240  15.105  22.312  13.544 -0.2629  0.2749 -0.0772
87377W        W88241  18.716  20.135  16.026  0.0042 -0.1342  0.0915
87378W        W88242   1.120   2.924  24.053  0.0472  0.1723 -0.1715
87379W        W88243  11.617  20.898  12.276  0.3045  0.1282  0.0715
87380W        W88244   5.753   3.345   4.930  0.1664  0.2147  0.0093
87381W        W88245   7.298   7.901  16.398 -0.1119 -0.1283 -0.0337
87382W        W88246  13.017   9.746  12.481 -0.2229 -0.2044 -0.2792
87383W        W88247  26.370  17.900  14.388 -0.2327 -0.0477 -0.6004
87384W        W88248   3.133  22.160  21.701 -0.2046  0.3143  0.0138
87385W        W88249  22.000   6.251  13.032  0.0774  0.0347 -0.2230
87386W        W88250  23.319   1.241  20.825  0.1292 -0.0840 -0.0118
87387W        W88251  25.698  25.789  18.968 -0.0722  0.3363  0.0806
87388W        W88252  15.010   5.678  13.996 -0.0812 -0.1351 -0.2871
87389W        W88253   0.443  18.740  19.376  0.1098 -0.1986  0.1079
87390W        W88254  20.180  17.879   6.371  0.0150 -0.1687  0.1199
87391W        W88255  26.227  18.075   8.846  0.1353 -0.1136  0.2102
87392W        W88256  23.467  12.139  18.242  0.0332  0.1961  0.0900
87393W        W88257  21.222  17.585   7.282  0.0369 -0.1047 -0.0250
87394W        W88258  22.868   4.703  25.719  0.2861 -0.1250  0.1821
87395W        W88259   3.602  23.416  10.687  0.0942 -0.1231  0.0445
87396W        W88260  22.415  15.683  18.868 -0.0965 -0.1275  0.0901
87397W        W88261  13.079  27.136  22.768  0.0452  0.0581 -0.1259
87398W        W88262   4.026  20.957  18.145 -0.0606 -0.1994 -0.2552
87399W        W88263  16.979  17.920  11.387  0.0220  0.0932  0.2702
87400W        W88264  12.467  28.670   8.060  0.0448  0.1052  0.5201
87401W        W88265  19.136  18.652   7.520  0.1656  0.1278 -0.0730
87402W        W88266   2.848   7.686  27.595 -0.2285  0.3559  0.0332
87403W        W88267  19.515  22.938  13.206 -0.4256  0.2760  0.0815
87404W        W88268   7.910   6.197  17.212 -0.2871 -0.1925  0.1821
87405W        W88269  10.175  22.315  22.186  0.3339 -0.1930  0.0683
87406W        W88270  28.364  22.104  20.151  0.0551  0.1516  0.0424
87407W        W88271  24.083   8.005  18.994 -0.3550 -0.4021 -0.1985
87408W        W88272  18.268  18.943  20.732 -0.3646  0.2412  0.0091
87409W        W88273  11.911   4.864  21.524 -0.2087  0.1403 -0.0354
87410W        W88274   7.526  16.727  26.663 -0.0717 -0.0233 -0.2347
87411W        W88275   3.563  11.273  13.598  0.3014 -0.0249 -0.0036
87412W        W88276  17.978  16.079  15.510  0.0979 -0.1990 -0.3706
87413W        W88277  27.938  11.142  11.432  0.1848 -0.0074  0.2486
87414W        W88278  24.019  19.526   6.701  0.0518 -0.3321  0.0866
87415W        W88279  25.084   8.602  14.756  0.1002  0.1731  0.1922
87416W        W88280  17.452   3.288  25.252 -0.0135 -0.0499 -0.1525
87417W        W88281  16.809  25.476   2.332 -0.1279  0.0953  0.2495
87418W        W88282  27.409  11.077   6.171 -0.1556 -0.0931 -0.2711
87419W        W88283  12.128  20.929  12.094  0.4538  0.4458 -0.0222
87420W        W88284  22.740  10.677   6.754  0.1401  0.1923 -0.1213
87421W        W88285   7.291   1.524  11.640  0.1172  0.1114 -0.5135
87422W        W88286  10.197  12.070  23.593  0.1449 -0.4894  0.0739
87423W        W88287  20.462  11.205  13.270 -0.0665  0.0365 -0.2358
87424W        W88288  13.427   0.852   7.196  0.0487 -0.1584  0.3732
87425W        W88289   5.918  23.953   9.806 -0.1142  0.0979 -0.4059
87426W        W88290  28.779  25.717  14.791 -0.0222 -0.1897 -0.1306
87427W        W88291   4.232   2.480  11.616  0.2631  0.2331 -0.3672
87428W        W88292   9.366  15.924  29.023 -0.1505  0.1129 -0.0532
87429W        W88293  12.331  22.044  19.665  0.0567  0.2707  0.1699
87430W        W88294  13.497  23.027  16.814  0.0637  0.0869 -0.0668
87431W        W88295   3.898   8.183  16.801 -0.0130  0.3160  0.0429
87432W        W88296  27.465  14.977  11.907  0.0691  0.1609 -0.0321
87433W        W88297  12.228  21.874  22.654  0.1267 -0.1946  0.2392
87434W        W88298  28.479  16.744   4.533  0.1103 -0.0248 -0.1210
87435W        W88299  10.357  21.798  14.680  0.2269 -0.1728  0.0906
87436W        W88300  27.662   5.381  26.406 -0.2285  0.0805 -0.0181
87437W        W88301   2.629  15.499  21.745 -0.1696 -0.0079 -0.1340
87438W        W88302  12.740  22.672   8.665 -0.0917  0.1910  0.0037
87439W        W88303  24.771  29.077   4.297 -0.2530  0.1470 -0.0566
87440W        W88304  19.758   8.414  11.340  0.0524 -0.0258 -0.2894
87441W        W88305  22.317   4.860  21.847 -0.1760 -0.1456  0.1562
87442W        W88306  12.341   6.999  11.829 -0.2571 -0.1610  0.0400
87443W        W88307  28.389  18.447   8.609 -0.2807  0.0270 -0.5546
87444W        W88308   3.337  26.162   4.654 -0.1520 -0.2516  0.1131
87445W        W88309  11.472  22.836  19.850 -0.0272 -0.1102 -0.0540
87446W        W88310  11.727   8.648  14.219 -0.1883  0.0091 -0.0109
87447W        W88311   4.297  27.942  28.961  0.0349  0.1454  0.0059
87448W        W88312  10.080  16.367  21.446  0.0561 -0.1486  0.3444
87449W        W88313   4.341  16.994  21.968 -0.2888 -0.1248  0.1980
87450W        W88314  20.351  25.696   6.213  0.3289  0.0142  0.2366
87451W        W88315   4.481  25.736   7.963 -0.0399 -0.0858  0.2290
87452W        W88316   4.104   4.682  11.768  0.0492 -0.0966 -0.3560
87453W        W88317  21.765  17.732  26.412 -0.1798  0.4156 -0.2437
87454W        W88318  26.661   2.214  11.851 -0.0042 -0.1806  0.0660
87455W        W88319  17.877   5.037  23.979 -0.0541  0.1300  0.1461
87456W        W88320  13.363  19.291   2.315 -0.0767 -0.0431 -0.2865
87457W        W88321  22.754   1.201   8.833  0.2049  0.1937  0.2235
87458W        W88322   7.824  23.495  13.907 -0.1744 -0.0811 -0.1268
87459W        W88323  20.570   7.534  15.850 -0.0772 -0.3824 -0.1573
87460W        W88324  23.912  13.576  23.502  0.0769 -0.1304 -0.2315
87461W        W88325  20.125  16.487  15.542  0.2106  0.0560 -0.0016
87462W        W88326  10.934   1.299  18.771 -0.1105  0.1669 -0.4460
87463W        W88327  12.597   9.762  12.192  0.1987  0.1784 -0.4849
87464W        W88328   9.238   9.045  28.431  0.1417  0.0887 -0.1267
87465W        W88329   2.983   3.594   7.304  0.3816 -0.0992 -0.3364
87466W        W88330  20.529   7.668  12.050  0.0999  0.0075 -0.1031
87467W        W88331   3.727   4.603  25.357  0.0077  0.0387 -0.0830
87468W        W88332   6.323  23.727  14.296  0.0573 -0.3920  0.0838
87469W        W88333  23.767  13.373  22.681  0.2955 -0.0902  0.0944
87470W        W88334  26.245  20.957  26.070 -0.4226  0.0484 -0.1480
87471W        W88335   4.849  13.028  14.735 -0.1495  0.0943  0.0053
87472W        W88336  12.399   8.072   1.778 -0.1238 -0.0988 -0.0291
87473W        W88337   8.069  21.306  15.404 -0.4465 -0.4775  0.2207
87474W        W88338  22.610  16.472  11.648  0.0103 -0.0001  0.1061
87475W        W88339   5.913   3.611  21.486  0.3041 -0.1176 -0.0084
87476W        W88340  25.912  21.424  23.319  0.0623  0.0322 -0.0831
87477W        W88341  20.213  10.421  15.951 -0.1500 -0.0007  0.0454
87478W        W88342  18.401  23.792  16.059  0.0928 -0.1063  0.0401
87479W        W88343  27.329   9.191  17.301 -0.0675  0.1260 -0.0448
87480W        W88344  20.089  21.401   4.272 -0.1030  0.0831  0.1169
87481W        W88345  18.677   1.235  23.050  0.2591  0.1971  0.0859
87482W        W88346  18.397   6.893  26.728 -0.1181  0.0447 -0.0949
87483W        W88347  23.914  19.814  26.636  0.3573 -0.1345 -0.2077
87484W        W88348  28.978   0.988  28.061 -0.5380 -0.0257  0.1764
87485W        W88349  20.936   6.411  22.155 -0.0017 -0.0079  0.1334
87486W        W88350  26.654  12.353  20.796 -0.2201 -0.0284  0.0722
87487W        W88351  27.323  12.016  18.456  0.2849 -0.0633 -0.0229
87488W        W88352   2.887  19.501  12.133 -0.0547 -0.0758  0.2020
87489W        W88353  11.745  19.548  18.050  0.2482 -0.0433 -0.1064
87490W        W88354  23.015  18.786  13.430 -0.2206 -0.3198 -0.0782
87491W        W88355  25.570  18.451  19.469  0.0572  0.2429  0.0732
87492W        W88356   5.608  17.694  16.020  0.3516 -0.0780 -0.2890
87493W        W88357  28.708  13.730  12.032 -0.2018  0.4425 -0.0708
87494W        W88358  19.676   7.569  21.070  0.1776  0.0623  0.2424
87495W        W88359  14.015   7.079  14.593 -0.0455  0.0905  0.1641
87496W        W88360  16.789  21.840  22.194  0.1660  0.2062 -0.1505
87497W        W88361  18.804   6.614  20.499  0.0032 -0.0900  0.2410
87498W        W88362   9.625  12.143  18.633  0.2118 -0.1918 -0.4629
87499W        W88363  25.725   8.604   6.599 -0.4081 -0.0805 -0.0512
87500W        W88364   4.538  14.828   9.774  0.2797 -0.0720  0.0001
87501W        W88365   7.697  17.945  16.592  0.1194  0.0422  0.3255
87502W        W88366  10.060   4.925  27.470 -0.0472 -0.1609 -0.0626
87503W        W88367  27.255  10.779  13.354  0.1919 -0.4509 -0.4738
87504W        W88368  21.933  10.966  22.750 -0.1149  0.0896 -0.2533
87505W        W88369   2.409  12.944   6.092  0.1965  0.0725 -0.0557
87506W        W88370  19.814   8.464  22.614  0.2519 -0.0907 -0.4086
87507W        W88371  18.749  26.987  14.617 -0.0111  0.1184  0.0363
87508W        W88372  23.118   6.771  20.767  0.0821 -0.1861 -0.1496
87509W        W88373   2.633  24.989  22.306 -0.1497  0.1009  0.0900
87510W        W88374  15.046   9.043  24.279 -0.0192 -0.1039  0.0605
87511W        W88375  27.349   8.926  16.876  0.0753 -0.1545 -0.0397
87512W        W88376  27.316  16.209  14.297 -0.0025  0.4443  0.1253
87513W        W88377  26.187   4.766  17.251  0.2637  0.1457  0.3088
87514W        W88378  15.128  27.234  24.854 -0.1019  0.0250  0.3810
87515W        W88379  25.212   8.686   4.931 -0.1492 -0.1219  0.0366
87516W        W88380   7.114  24.463  15.860  0.1449  0.2645  0.0285
87517W        W88381  21.435  24.792   9.039 -0.0188  0.1549  0.0125
87518W        W88382  19.167  20.703  25.852  0.0310 -0.2161 -0.0912
87519W        W88383  14.677  13.494   6.962  0.0007 -0.2064 -0.1444
87520W        W88384  17.022  28.485  22.053  0.1345 -0.0480  0.0716
87521W        W88385  25.980  21.644  10.479  0.0082  0.0108 -0.0119
87522W        W88386  26.236  23.067  14.524 -0.0816  0.1205  0.0694
87523W        W88387  19.327  21.388  18.133  0.3535  0.0685 -0.1825
87524W        W88388  17.807   7.302   4.384 -0.0220 -0.1381  0.0721
87525W        W88389   0.685   1.946  22.181 -0.1357 -0.0400 -0.3722
87526W        W88390  15.036  25.021  12.399  0.1423  0.0444 -0.2414
87527W        W88391  25.859  10.397  11.875 -0.0459 -0.2383  0.2700
87528W        W88392  24.157  19.974  20.056 -0.1610  0.0725  0.2882
87529W        W88393   0.838  27.895   8.182  0.0174  0.1371  0.0261
87530W        W88394  26.807  12.375   6.993  0.0585  0.0603 -0.2638
87531W        W88395  28.826  16.284   7.650 -0.0061  0.1438 -0.2733
87532W        W88396  23.143   7.923   4.878  0.0516  0.0765  0.1040
87533W        W88397   0.038   8.695   1.315  0.0611  0.4488 -0.1126
87534W        W88398  22.732  22.227  12.452 -0.2795  0.1675  0.3675
87535W        W88399  10.086  26.821  19.002  0.1025 -0.2231  0.3882
87536W        W88400   7.283  26.119   5.011  0.3063  0.0027 -0.4709
87537W        W88401  12.079  26.195  21.524  0.1677 -0.0402  0.0934
87538W        W88402  23.568   3.941  18.562 -0.0449 -0.1267 -0.1455
87539W        W88403  10.748  23.997  19.985  0.2477 -0.0338 -0.0967
87540W        W88404  24.544  25.665  27.949  0.0295 -0.2453  0.0032
87541W        W88405  19.178  26.843   3.155 -0.1039 -0.0169 -0.0797
87542W        W88406  17.531  23.377  10.695 -0.0516 -0.1241 -0.0616
87543W        W88407  15.949  26.673  15.759  0.2298 -0.1815 -0.1632
87544W        W88408  28.535  22.449   2.604  0.1242 -0.0586  0.2039
87545W        W88409  17.827   9.142  12.637 -0.1618  0.1649  0.0254
87546W        W88410  23.549  15.202  24.717 -0.3803 -0.1962  0.0622
87547W        W88411  11.488  12.985  17.211  0.0565 -0.1867 -0.0023
87548W        W88412   7.181  20.839  19.673 -0.1015 -0.2030 -0.0283
87549W        W88413   1.796  23.910  19.679  0.0590  0.0582 -0.0090
87550W        W88414  27.196   3.552  24.512 -0.2817  0.0964 -0.0365
87551W        W88415   3.212  10.939   2.736 -0.2368 -0.0670  0.2537
87552W        W88416  15.295   8.351  20.720  0.1651  0.1366 -0.0391
87553W        W88417  28.583  10.659  22.597 -0.0663 -0.1287 -0.1368
87554W        W88418   2.548  24.845  10.330 -0.0256 -0.1270  0.0211
87555W        W88419  24.108   7.303  18.711  0.2415  0.2518 -0.0235
87556W        W88420   6.972  25.883  16.409  0.0393  0.0738  0.1041
87557W        W88421   0.354  26.863   0.752  0.0556  0.2964 -0.0616
87558W        W88422   7.546  21.570  15.563 -0.0166 -0.0227  0.3578
87559W        W88423   1.934  11.867  17.661 -0.1099 -0.2162 -0.0358
87560W        W88424   1.998  18.124  18.987 -0.0598  0.2250 -0.0553
87561W        W88425  11.562   0.641  16.883  0.1853  0.0892 -0.0930
87562W        W88426   0.187   8.613  15.127  0.2897 -0.3667  0.1311
87563W        W88427  17.483  18.239  16.239 -0.1515 -0.1058 -0.2885
87564W        W88428  20.372  28.737   2.478  0.1092 -0.2825 -0.0284
87565W        W88429   2.137  14.151  25.786 -0.1288  0.0684  0.0723
87566W        W88430  23.848  12.570   8.450  0.2324  0.1971 -0.1410
87567W        W88431   9.633   8.917   6.709 -0.3795 -0.0691 -0.1537
87568W        W88432  21.636  13.167  24.543  0.0134 -0.1806  0.0481
87569W        W88433  18.596   4.294   8.954  0.2187  0.0592  0.1760
87570W        W88434  27.986  12.555  20.134  0.1200  0.0111 -0.0739
87571W        W88435  13.967   3.245  17.298  0.0864  0.1815 -0.0843
87572W        W88436  24.452   8.190  27.308 -0.0701 -0.2018 -0.2814
87573W        W88437  18.501  13.906  24.268 -0.0013  0.1321 -0.1479
87574W        W88438   4.416   6.447  26.599  0.0369 -0.0827  0.2471
87575W        W88439  13.687  14.357   6.093  0.3701  0.2375 -0.1013
87576W        W88440   0.215  10.132  10.639  0.0278 -0.2046  0.1891
87577W        W88441  27.675   9.654  27.162  0.1681  0.2914 -0.0094
87578W        W88442   4.767  25.617  20.334  0.0667 -0.1080  0.0129
87579W        W88443   4.638   3.351  19.843 -0.3384  0.0150  0.1483
87580W        W88444  28.253  23.639  20.566 -0.0902  0.0469  0.2057
87581W        W88445  13.657   3.306   2.331 -0.1611  0.1128 -0.2834
87582W        W88446   6.605   9.352  10.358  0.0366 -0.3230  0.2868
87583W        W88447   0.097  13.916   9.776 -0.0149 -0.0735 -0.2298
87584W        W88448  25.992  20.667  10.606 -0.1102  0.2327 -0.1486
87585W        W88449   1.459  14.119  27.628 -0.0435 -0.0955  0.0238
87586W        W88450  25.343  12.953   7.496 -0.1226 -0.2311  0.2432
87587W        W88451  25.630   7.858   7.812 -0.0149 -0.0009 -0.1420
87588W        W88452  22.531  28.129  28.160 -0.0039  0.0859  0.1181
87589W        W88453  12.548   4.699  26.400 -0.1228 -0.2431 -0.3252
87590W        W88454  23.182   1.981   8.626  0.0871 -0.0234  0.3453
87591W        W88455  24.089   5.435   7.827  0.2260  0.0858 -0.0070
87592W        W88456  15.433   0.619  18.450 -0.0381 -0.1648  0.0745
87593W        W88457  10.262   3.990  21.007  0.0975 -0.3898  0.3228
87594W        W88458  27.989  28.058  26.513 -0.1310 -0.0403  0.0910
87595W        W88459   5.902   3.686  17.396  0.0447 -0.2790  0.0804
87596W        W88460  20.077  15.018  15.577  0.0599  0.1583 -0.1339
87597W        W88461  13.454  16.316  27.580 -0.0134  0.1195 -0.3046
87598W        W88462  20.041   3.052   0.926 -0.1130 -0.4943 -0.2840
87599W        W88463  21.924   8.852  24.629 -0.1129 -0.0600 -0.0234
87600W        W88464  22.394  23.716   8.814 -0.0540  0.2528  0.3041
87601W        W88465   3.974   6.394  10.428 -0.2822 -0.0333 -0.3301
87602W        W88466   0.824   2.337   0.173 -0.0485  0.0226  0.0356
87603W        W88467   0.885  22.217  12.514 -0.1103  0.1334 -0.0270
87604W        W88468  19.106  15.329   7.893 -0.2935 -0.0555  0.1762
87605W        W88469  22.753  12.003   4.747 -0.0030  0.1997  0.2810
87606W        W88470   7.980  17.819  23.800  0.3259 -0.0976  0.4745
87607W        W88471  12.320   7.360  12.559 -0.1189  0.2111  0.2243
87608W        W88472  14.345  19.199   5.286  0.0564  0.5133 -0.1682
87609W        W88473   6.456   5.893   6.305  0.0838 -0.0436  0.0956
87610W        W88474   4.997  12.976  17.737 -0.0827  0.0736  0.4171
87611W        W88475  12.467  27.326  22.108 -0.2042 -0.5149  0.0639
87612W        W88476   4.305  12.749  28.601  0.1210  0.1178 -0.0891
87613W        W88477  23.977  10.350  28.977 -0.0926 -0.1483 -0.0546
87614W        W88478  19.276   0.365  21.928  0.0648 -0.0425 -0.0977
87615W        W88479   1.297  10.910  15.140 -0.3103 -0.2352 -0.1497
87616W        W88480  24.586   4.811  14.671 -0.1277 -0.0264 -0.1393
87617W        W88481  21.142   6.262  13.191 -0.1467 -0.1429 -0.2759
87618W        W88482  12.175  28.273  21.331 -0.1120  0.0386 -0.1957
87619W        W88483   7.142  17.019  18.425 -0.0474 -0.1052  0.0005
87620W        W88484   8.537   9.854   1.908 -0.1510 -0.2137  0.0167
87621W        W88485   4.331  17.446  28.789 -0.4279  0.2119 -0.0726
87622W        W88486  22.551   3.694   9.700  0.0921 -0.1791  0.2435
87623W        W88487  25.643  13.033   2.689  0.0305  0.1586  0.1998
87624W        W88488  26.824  21.158  24.334  0.4163  0.2193 -0.1204
87625W        W88489  13.942  20.994  18.812  0.2511  0.0160  0.1550
87626W        W88490   4.550  10.046  10.781  0.1045  0.3430 -0.0278
87627W        W88491   2.723  27.509   9.416  0.2190  0.2388 -0.2049
87628W        W88492  26.946  28.629  25.917 -0.2842  0.3232 -0.0200
87629W        W88493  14.489  28.680  16.917 -0.2860 -0.0697  0.1722
87630W        W88494   1.785  21.590  22.893 -0.1787  0.0038  0.5463
87631W        W88495  26.783  26.129  15.328  0.0625 -0.0903  0.1569
87632W        W88496   1.505   7.564  18.057  0.0542 -0.4853  0.0321
87633W        W88497  17.020   9.990  13.493  0.1902 -0.3253 -0.1046
87634W        W88498   8.932  27.746  16.221 -0.1468  0.0188  0.3285
87635W        W88499  27.189   4.053  23.772  0.2683  0.2315 -0.1856
87636W        W88500  18.579  27.922  11.248  0.0450  0.0023  0.4223
87637W        W88501  25.331  13.390   0.478  0.0437 -0.1173 -0.4738
87638W        W88502  14.685   1.081  12.258  0.0749  0.2171 -0.3434
87639W        W88503  24.772  14.072   3.696 -0.1196  0.0381  0.0384
87640W        W88504  11.090  24.485  28.757 -0.1065 -0.0209  0.2077
87641W        W88505  25.484  21.549  25.448 -0.0606 -0.3692 -0.0973
87642W        W88506  27.146   0.626  16.717 -0.1249 -0.0505 -0.1704
87643W        W88507  22.573  12.989   4.744  0.5665  0.3158  0.0927
87644W        W88508   5.234   9.485  14.578 -0.3562 -0.0847 -0.1741
87645W        W88509  28.653  23.981  13.837  0.2017 -0.4191 -0.3252
87646W        W88510  20.656   5.630  28.821 -0.1181 -0.0348 -0.1021
87647W        W88511   7.730   9.993  14.603  0.0367  0.2938 -0.3054
87648W        W88512  16.928  14.000  12.039 -0.0813  0.1029  0.0583
87649W        W88513  24.553   4.841  10.074  0.2456 -0.1914 -0.1905
87650W        W88514   1.166  12.619  11.036 -0.3461  0.0952 -0.0552
87651W        W88515   6.572  26.527  25.790 -0.0353  0.0845 -0.0082
87652W        W88516   2.893  17.829  13.899  0.0859  0.0284  0.3494
87653W        W88517  17.259  15.469  10.986 -0.0886  0.0137  0.0372
87654W        W88518   5.276   1.654  20.065  0.0741 -0.0472  0.1148
87655W        W88519   3.003   8.119  17.370 -0.0232 -0.2580  0.0126
87656W        W88520  22.883  21.480   7.962 -0.0316  0.1025  0.1844
87657W        W88521  14.273  10.547  16.416 -0.2365  0.2660 -0.0876
87658W        W88522   7.999  18.409  14.971  0.1076 -0.2728 -0.2370
87659W        W88523  19.113  13.443  24.778  0.3381 -0.0567 -0.2169
87660W        W88524   2.763  19.871   0.927 -0.1461 -0.0819 -0.0438
87661W        W88525  20.534   6.263  17.648  0.1609 -0.1905  0.1881
87662W        W88526  22.110  12.161  16.924 -0.3957  0.0664 -0.1052
87663W        W88527  27.058   0.022  20.015 -0.0622  0.0932 -0.2503
87664W        W88528   0.934   9.424  13.772 -0.0066 -0.0420  0.3148
87665W        W88529   2.015  23.620   4.561 -0.2065  0.0569 -0.2477
87666W        W88530  26.850  16.371  20.290  0.0329 -0.3115 -0.0332
87667W        W88531  18.654  11.323  27.258 -0.0950  0.2049 -0.1943
87668W        W88532  18.168  13.847   7.408  0.1469  0.0123 -0.0879
87669W        W88533   4.242  10.297  20.455  0.2574 -0.3113  0.1180
87670W        W88534  22.844   7.218  15.563 -0.0590  0.0433 -0.3182
87671W        W88535  19.889  10.394  11.478  0.1444 -0.3508  0.0785
87672W        W88536  26.977   8.723  25.294  0.4496  0.2857 -0.2365
87673W        W88537  23.417  15.144  28.925  0.4409 -0.0887 -0.0884
87674W        W88538  28.573  27.253  25.799  0.1763 -0.0634 -0.0705
87675W        W88539   8.690  18.283  23.307  0.3563  0.2208 -0.0033
87676W        W88540   5.051   0.408  18.452 -0.0540 -0.0952 -0.0428
87677W        W88541  24.339   6.631  18.228  0.1467  0.2980 -0.1400
87678W        W88542  21.004  18.460  25.223 -0.0043 -0.1264 -0.0079
87679W        W88543  23.767  15.022  13.483 -0.1380 -0.0130  0.2391
87680W        W88544  13.127   7.459   2.406  0.0200 -0.3823  0.0344
87681W        W88545  15.263  22.001  17.290 -0.1977 -0.3053 -0.1182
87682W        W88546  12.356  27.779  25.638 -0.4202  0.0302 -0.0228
87683W        W88547   4.295  17.423   0.634  0.1123  0.0991  0.2039
87684W        W88548  19.066  24.703  22.927  0.3323 -0.2097 -0.3760
87685W        W88549  16.276  25.250  27.198 -0.1290  0.0935 -0.0612
87686W        W88550   8.457  14.545  15.883  0.1002 -0.1448 -0.1002
87687W        W88551  22.343   8.087  27.862  0.3513  0.1452 -0.0651
87688W        W88552  26.022  10.961  23.101  0.4644 -0.0767 -0.1839
87689W        W88553   2.483  11.640   1.975  0.1487 -0.2569 -0.1416
87690W        W88554  10.736  15.005  23.707 -0.1206 -0.1249  0.0861
87691W        W88555   4.168   8.122  23.906  0.0955  0.0731  0.3498
87692W        W88556   4.701  14.417  26.525  0.0958 -0.1526 -0.1711
87693W        W88557   0.370   8.760  10.398  0.0786  0.1578  0.3955
87694W        W88558  20.479  27.623   5.847 -0.2448  0.1622 -0.2180
87695W        W88559   9.095  15.264   8.730  0.4700  0.2845  0.1532
87696W        W88560   0.191  14.186  20.714 -0.2641 -0.1877 -0.1539
87697W        W88561  13.481   4.500   6.027 -0.0358 -0.2740  0.1260
87698W        W88562   4.905  27.782  23.328 -0.0440  0.1073 -0.0425
87699W        W88563  20.301  20.621  26.539 -0.0717 -0.1616  0.1308
87700W        W88564  27.882  27.375  22.120  0.0483  0.0217  0.1778
87701W        W88565  25.085  21.159  21.211  0.2505 -0.1002  0.4246
87702W        W88566  28.372  15.495  12.645 -0.3862  0.2611 -0.0407
87703W        W88567  27.003  17.441  22.695 -0.1222  0.2111 -0.0775
87704W        W88568   7.143  27.596  25.089  0.0992 -0.1738 -0.0414
87705W        W88569  25.757  19.003  24.528  0.0456 -0.0140 -0.0296
87706W        W88570  19.202  24.411  15.599  0.1013  0.1833 -0.0930
87707W        W88571   8.652  19.447  16.637  0.1140 -0.1615  0.1137
87708W        W88572  12.066  14.581  17.202 -0.0416  0.1109 -0.1747
87709W        W88573  21.961  22.903   8.385 -0.1858 -0.2269  0.1866
87710W        W88574  26.628  14.590  21.602 -0.1544 -0.2866 -0.3001
87711W        W88575   2.874  19.972   7.865  0.0800 -0.1368  0.1229
87712W        W88576   9.176  11.219  26.534  0.0188 -0.3273  0.0688
87713W        W88577  13.362   7.067   7.757 -0.0693 -0.0297  0.2293
87714W        W88578   2.507  17.549  21.566 -0.1050 -0.0372  0.3145
87715W        W88579   0.931  12.894   4.102  0.1682  0.0223 -0.1283
87716W        W88580  24.459   0.355   7.332  0.1578 -0.2882  0.1405
87717W        W88581  20.760  22.249  28.918 -0.3395 -0.0502  0.0509
87718W        W88582   4.916   6.742   5.887 -0.0234 -0.1088 -0.0878
87719W        W88583  16.187   5.444  28.650 -0.0812 -0.2730 -0.0616
87720W        W88584  19.406  12.453  12.414  0.1670 -0.1031 -0.0120
87721W        W88585   6.365   8.514  18.279 -0.0730 -0.0012  0.1150
87722W        W88586  20.503  23.507   7.300 -0.0303  0.1408  0.1123
87723W        W88587  12.812  14.539  14.761  0.1276 -0.1612 -0.0790
87724W        W88588   6.855  17.292  25.023  0.2789  0.0903 -0.2428
87725W        W88589   8.592   9.955  19.877  0.0848 -0.0844 -0.0951
87726W        W88590  26.518   0.735  22.176  0.0463  0.1218  0.0817
87727W        W88591   2.268   3.264  11.209  0.0541 -0.2652  0.3801
87728W        W88592   7.265  12.357   5.823 -0.0076 -0.2641  0.1700
87729W        W88593   9.118   2.083   3.592  0.0564 -0.2345  0.1817
87730W        W88594  17.539  24.220  18.998  0.2259 -0.1694 -0.2568
87731W        W88595  26.915   1.780   1.487 -0.1121 -0.1863  0.2526
87732W        W88596   0.407  25.022  15.824 -0.0056  0.0596 -0.3269
87733W        W88597  19.797  14.304  20.348  0.1066 -0.0198  0.2307
87734W        W88598  24.009  26.991  18.044 -0.1138 -0.0876  0.1677
87735W        W88599   5.728  14.251  21.526 -0.2866  0.1578 -0.0865
87736W        W88600  14.755   2.384  23.458 -0.1051  0.2810 -0.2825
87737W        W88601   8.417  18.793   0.834 -0.0791  0.0732  0.1436
87738W        W88602  18.836  15.133  14.140 -0.1521 -0.2418 -0.1425
87739W        W88603  26.166  13.811  18.141  0.0650  0.2304 -0.0538
87740W        W88604  19.584  27.548  24.584  0.0784 -0.5490  0.0058
87741W        W88605  28.690  27.022  26.317  0.0491 -0.0389 -0.0683
87742W        W88606  17.863   7.056   3.166  0.1524  0.3576  0.2645
87743W        W88607  27.344  16.867   6.065  0.0624 -0.3927 -0.2078
87744W        W88608  25.516  24.094   8.534 -0.0011  0.1353 -0.1569
87745W        W88609   0.173  16.710  22.814 -0.2789 -0.1178  0.2648
87746W        W88610   2.980  12.366  15.466 -0.2217  0.1581  0.0020
87747W        W88611  20.372  11.395   4.053  0.1345 -0.1241  0.0988
87748W        W88612   1.426  27.777  22.364  0.3194  0.0429  0.0217
87749W        W88613  23.358  20.394  16.454  0.1386 -0.3071  0.3098
87750W        W88614  22.860   8.512   1.285 -0.0781  0.0814  0.1980
87751W        W88615  18.402   7.305   7.396  0.4111 -0.0879 -0.2322
87752W        W88616  14.268  19.532  13.544  0.1696  0.3454 -0.0041
87753W        W88617   3.484   4.702  18.527  0.0069 -0.0334  0.0358
87754W        W88618  25.333   2.327  19.773  0.0308 -0.1444 -0.1145
87755W        W88619  25.155  14.347  15.612  0.0624  0.0591 -0.0631
87756W        W88620  26.166  11.396  10.350  0.2307  0.0608  0.1290
87757W        W88621  17.422   9.745  12.100  0.0174  0.1800 -0.1747
87758W        W88622   0.256  25.820   9.282  0.1630  0.0342 -0.2890
87759W        W88623  19.614  12.507  25.711  0.1219  0.0259  0.0449
87760W        W88624   9.218   5.603  26.230  0.1297 -0.2712 -0.3648
87761W        W88625   3.681  19.216  16.913 -0.0266  0.2033  0.2217
87762W        W88626  18.816  10.281  19.775  0.1888 -0.0886  0.0203
87763W        W88627   2.477   5.037   2.512  0.2138  0.1032 -0.0578
87764W        W88628  21.286  10.161  29.096 -0.0291  0.0918  0.0996
87765W        W88629  12.685   4.562   8.446  0.1410 -0.0870 -0.0628
87766W        W88630  25.152  18.718  17.049 -0.1792 -0.0531 -0.2710
87767W        W88631  21.790   4.005  10.905 -0.2573 -0.0643 -0.1218
87768W        W88632  21.987  16.302  11.223  0.0264 -0.0617 -0.2119
87769W        W88633  24.687  15.834  11.872 -0.0707 -0.0839 -0.3151
87770W        W88634   9.133   6.306  10.184 -0.1766  0.2134 -0.1722
87771W        W88635  17.727  24.627  17.743 -0.0961 -0.1405  0.0134
87772W        W88636   4.162  18.514   8.293  0.0151  0.2383 -0.1441
87773W        W88637  15.683  23.995   3.232  0.0167 -0.1357  0.4628
87774W        W88638   3.777  29.137  20.156  0.2094 -0.0676  0.0716
87775W        W88639   3.137   6.032   2.015 -0.2462  0.0102 -0.1815
87776W        W88640  28.608  12.311  21.712 -0.0104 -0.0671  0.3332
87777W        W88641   3.155  18.740  11.493  0.2172 -0.1296 -0.4000
87778W        W88642  25.910   8.885  25.440  0.0087  0.0541  0.1532
87779W        W88643  21.390   7.798   9.511 -0.0656  0.3934  0.0642
87780W        W88644   0.810   4.323  12.234  0.1742  0.1225  0.2070
87781W        W88645   1.887   0.706  21.827  0.0650  0.1901  0.0164
87782W        W88646  26.998  28.799   9.635  0.0289 -0.1076  0.0525
87783W        W88647  10.910   6.379  20.293 -0.1749  0.2451 -0.0462
87784W        W88648   0.345   4.904   8.652  0.0180  0.3057  0.1486
87785W        W88649  12.012   8.542  14.981 -0.0238 -0.3466  0.1161
87786W        W88650  18.482   8.428   1.968  0.1075  0.0948  0.1997
87787W        W88651  15.949  24.974  27.898 -0.1947  0.0075 -0.1107
87788W        W88652   1.018  10.404  14.262 -0.0747 -0.3122  0.0283
87789W        W88653   0.961  17.144  28.553  0.2258 -0.0128  0.0871
87790W        W88654  13.979   0.493   8.731 -0.1592 -0.2184 -0.1375
87791W        W88655  27.996   1.506  23.788  0.2100  0.0045  0.1636
87792W        W88656  26.058   0.408  12.042  0.1694 -0.2089 -0.0616
87793W        W88657  23.455  12.245  27.972  0.3432 -0.0886  0.2818
87794W        W88658  10.118  21.335  24.065  0.0086 -0.3340 -0.0733
87795W        W88659   7.053  16.583  17.640  0.0280 -0.2227  0.1850
87796W        W88660   5.006  12.048  10.515  0.3388 -0.0099 -0.0048
87797W        W88661  17.659   5.054  20.760 -0.0774 -0.0293 -0.1404
87798W        W88662  13.673  18.148  23.578  0.2240 -0.0825  0.0297
87799W        W88663   0.024   6.521  14.692 -0.0345  0.0505 -0.2277
87800W        W88664  21.309   4.957   9.609  0.1250 -0.0295  0.5705
87801W        W88665  25.270  16.800  17.467  0.4202 -0.2212  0.1193
87802W        W88666  26.070   9.450  25.465 -0.1655  0.5244 -0.0721
87803W        W88667  26.006   6.774  16.847  0.1794 -0.0431 -0.0285
87804W        W88668  20.058  15.102  23.867 -0.0808  0.2958  0.2122
87805W        W88669  20.239  19.402  11.345  0.1285 -0.0356 -0.0878
87806W        W88670  16.837  10.626  16.756  0.0433 -0.1213  0.0291
87807W        W88671   2.879   9.902  24.735  0.3116  0.3639 -0.0303
87808W        W88672   8.720  27.730   3.835 -0.0858 -0.0999  0.1364
87809W        W88673   7.409   0.687  21.262 -0.1139 -0.1320  0.0271
87810W        W88674  17.000  18.599  26.433 -0.0845 -0.2255  0.1015
87811W        W88675  22.673   5.552  14.919 -0.0714 -0.1037 -0.0337
87812W        W88676   7.904  18.213  18.481  0.1848  0.1406 -0.0464
87813W        W88677  27.484   3.279  22.719 -0.1785 -0.0520 -0.2338
87814W        W88678  13.414  12.289   0.064  0.1703 -0.0166  0.1201
87815W        W88679   8.796  24.863  19.972  0.1536 -0.1800 -0.0597
87816W        W88680  23.279  12.200  23.328 -0.3275 -0.0150 -0.0598
87817W        W88681   7.194  13.944  23.750  0.0410  0.0933 -0.1368
87818W        W88682  24.857   3.070  22.434 -0.0395 -0.2591 -0.0968
87819W        W88683  29.053   4.288  10.225 -0.0517 -0.2905 -0.1317
87820W        W88684  27.145  11.245  20.091 -0.1102 -0.3374 -0.1647
87821W        W88685  21.460  20.422  19.403  0.0398 -0.2529 -0.1261
87822W        W88686  24.040  14.539   1.304 -0.0124  0.1509  0.2672
87823W        W88687  15.006  12.027  13.435  0.1196  0.1990 -0.0057
87824W        W88688   3.189  21.596  28.810  0.1214 -0.3543 -0.1732
87825W        W88689  25.069  23.059  22.452 -0.0098 -0.0065 -0.0150
87826W        W88690  15.514  19.730  27.917  0.0031  0.1303 -0.1308
87827W        W88691  28.335   9.555  24.019 -0.0965 -0.3817 -0.0150
87828W        W88692  11.811   9.313  28.914 -0.2422 -0.0494  0.1658
87829W        W88693  13.974   4.934  10.101  0.2213  0.1944  0.0291
87830W        W88694   9.328   2.090  19.896 -0.0532 -0.2279  0.1368
87831W        W88695   6.839   3.853   1.633  0.1919 -0.2682  0.0540
87832W        W88696   9.007  12.557  17.482  0.1701  0.2169 -0.3358
87833W        W88697   0.962  18.623   4.288  0.0558 -0.0875 -0.0516
87834W        W88698   7.119   3.345   5.180  0.0283  0.1079 -0.1199
87835W        W88699   1.037   1.732   7.685 -0.3573  0.2381  0.3777
87836W        W88700  28.225  12.171   5.437 -0.0050 -0.0498 -0.0853
87837W        W88701   1.393   6.605  14.208 -0.0915  0.2458  0.0004
87838W        W88702  16.749   6.524   0.604 -0.0329  0.2471 -0.0306
87839W        W88703  18.147   5.270  17.799 -0.2396  0.1663  0.2379
87840W        W88704  19.970  16.794  23.804 -0.3186  0.0801  0.2936
87841W        W88705  25.440  16.484  27.915  0.1448 -0.2349 -0.1751
87842W        W88706  12.153   1.454  27.883  0.3605  0.0132 -0.1923
87843W        W88707   6.797  21.548   7.712 -0.0322 -0.2820  0.2320
87844W        W88708  24.697  15.149   5.670  0.3089  0.2550 -0.2884
87845W        W88709  26.488   3.063  23.287 -0.1134 -0.2320  0.3331
87846W        W88710  24.778  26.806   6.664 -0.1807 -0.0470 -0.0437
87847W        W88711   5.934  25.481  15.874  0.0304  0.3526  0.2640
87848W        W88712   8.852  27.361  27.934 -0.0907 -0.2041 -0.3656
87849W        W88713  21.392   7.367  15.080 -0.1338  0.1565 -0.3900
87850W        W88714  14.744   5.761  14.804  0.0181  0.0894 -0.0128
87851W        W88715   9.313  21.678  14.064  0.0804 -0.1511 -0.4051
87852W        W88716  28.898  10.897  19.577  0.0134  0.1113 -0.3710
87853W        W88717  11.528   6.322   8.279 -0.0988 -0.0942  0.0319
87854W        W88718  13.992   1.463  24.010 -0.1606 -0.1236 -0.0573
87855W        W88719  14.163  14.633  21.162 -0.3263  0.2219 -0.0427
87856W        W88720   4.519  19.260  22.863  0.0614  0.3406 -0.0534
87857W        W88721  25.184  28.677   5.193 -0.0343 -0.0107 -0.2989
87858W        W88722   8.788  21.011  21.354  0.1413 -0.0438  0.1028
87859W        W88723   5.543  16.430  24.694 -0.1580 -0.1166 -0.1298
87860W        W88724   2.981   9.719  23.664 -0.0819 -0.0567  0.2330
87861W        W88725   7.670  17.879   9.668 -0.0550  0.0626 -0.1506
87862W        W88726   1.590   6.296  23.582 -0.3763 -0.0857  0.3287
87863W        W88727   5.586   6.635   8.708  0.2187 -0.2319 -0.1491
87864W        W88728  12.459   8.460   5.277 -0.3763 -0.1553 -0.1811
87865W        W88729  19.756  14.693  12.666  0.0858 -0.0986  0.4590
87866W        W88730   9.401   1.588  24.091  0.2017 -0.1214 -0.0966
87867W        W88731  17.876  16.847  19.925  0.4072 -0.2153  0.1631
87868W        W88732   1.263   4.289  25.285  0.1830 -0.3960 -0.2276
87869W        W88733   5.768  10.795   5.912  0.0492 -0.0271 -0.0824
87870W        W88734   3.436  18.904  18.351 -0.0360  0.1214  0.1938
87871W        W88735  19.477   3.844   1.113 -0.1526 -0.0252  0.0939
87872W        W88736  27.624  22.442   2.457 -0.0209  0.3290  0.1658
87873W        W88737   3.543   6.777  16.613 -0.0594 -0.1089  0.0884
87874W        W88738  17.091   9.597  26.968  0.0020 -0.4427  0.0604
87875W        W88739  16.681  28.749  10.992  0.1998 -0.0961  0.1593
87876W        W88740  14.707  17.613   8.627  0.0260  0.1349 -0.0762
87877W        W88741  17.363   3.865  15.193 -0.4205 -0.0401 -0.0443
87878W        W88742   0.951  26.654  17.422 -0.4323 -0.0188  0.1222
87879W        W88743  24.534   3.576  10.693 -0.1037 -0.0764  0.0144
87880W        W88744  16.445  13.842  16.853  0.0474  0.2307  0.0386
87881W        W88745  19.995  27.509  12.593  0.3854  0.0751 -0.3507
87882W        W88746   5.606  13.122  23.525  0.1214 -0.0202 -0.0292
87883W        W88747   6.281  28.715  23.925 -0.0929  0.1333  0.0020
87884W        W88748   4.549   2.522  16.861  0.0675  0.1346 -0.0017
87885W        W88749   7.405   7.948  22.616  0.1438 -0.3324 -0.1253
87886W        W88750   9.822  12.194  23.173 -0.0961 -0.0571  0.2027
87887W        W88751  27.703   9.158  23.036 -0.0032 -0.1280 -0.2345
87888W        W88752   0.746  26.377   6.919  0.1240  0.1090  0.1242
87889W        W88753  19.557   6.292  14.730  0.0739 -0.0084  0.1282
87890W        W88754  28.857  20.531   9.690 -0.1078  0.0377  0.2756
87891W        W88755  17.897   5.475  12.223  0.0063 -0.2707 -0.0248
87892W        W88756   8.956  10.311  12.174  0.1882 -0.2138 -0.1183
87893W        W88757   9.243   0.968  18.346  0.0226  0.4476  0.0401
87894W        W88758   1.339  19.565   4.518 -0.1841 -0.0950 -0.0118
87895W        W88759  27.303  23.209  27.476  0.1714 -0.0432  0.0788
87896W        W88760  28.308   6.438  21.532 -0.1120  0.0055  0.1982
87897W        W88761   4.768  22.462   6.532 -0.1796 -0.0569 -0.1335
87898W        W88762  20.622   0.394   5.008 -0.0622 -0.2460  0.1558
87899W        W88763  27.618  22.818  17.729  0.0513 -0.0765  0.2643
87900W        W88764  19.393  18.231   0.049  0.5120 -0.0951 -0.1211
87901W        W88765  21.791  13.425   7.972 -0.0436  0.2009 -0.0522
87902W        W88766   1.525   1.438   6.650 -0.0032  0.0936  0.1091
87903W        W88767  28.953   4.252  25.476  0.1130  0.0975  0.1759
87904W        W88768  13.971  21.765   6.847 -0.1336 -0.1459  0.3663
87905W        W88769   4.956  17.869  16.842  0.0014 -0.2831  0.0300
87906W        W88770  24.940  22.924  26.911  0.0507  0.0971  0.0706
87907W        W88771  16.344  22.334  26.347 -0.2296  0.1437 -0.3190
87908W        W88772  25.645  20.240  18.284  0.1664 -0.0381 -0.1252
87909W        W88773  10.531  25.384   0.732 -0.2948 -0.0861 -0.1990
87910W        W88774  27.927  13.637  26.990 -0.0271 -0.2082  0.2556
87911W        W88775  13.791   9.039  26.551 -0.2752 -0.0684  0.0129
87912W        W88776   4.177  11.120  19.461 -0.1389 -0.0332 -0.0918
87913W        W88777   1.369   7.524   2.267 -0.1256 -0.1381  0.2391
87914W        W88778  23.020  20.368   7.013  0.2847  0.1314  0.2622
87915W        W88779  12.412   3.079   5.402 -0.3656 -0.1840 -0.0812
87916W        W88780   2.784  11.778  10.662  0.1713 -0.0469 -0.3442
87917W        W88781   2.706  20.026   1.505  0.1179  0.0367  0.3094
87918W        W88782  18.255   8.439   4.155  0.0980  0.0964  0.0215
87919W        W88783  16.519  10.941   5.138  0.0533 -0.1253  0.0646
87920W        W88784  25.424  15.819  18.612 -0.4596  0.0995 -0.0661
87921W        W88785   5.037   7.013  13.827  0.1539  0.0094  0.2034
87922W        W88786  23.756  19.678  14.001  0.0051 -0.1815 -0.0074
87923W        W88787  20.948  28.132  27.473 -0.1169 -0.1316 -0.0516
87924W        W88788  22.718  11.371  11.841 -0.0466 -0.1517 -0.0872
87925W        W88789  24.696   3.317  19.241  0.2231 -0.1898 -0.3467
87926W        W88790  28.568   2.590  28.975  0.0746 -0.1088 -0.0107
87927W        W88791  13.457   1.412  23.788 -0.0359 -0.1137 -0.2902
87928W        W88792  25.281   7.594  28.817  0.0063  0.0649 -0.0658
87929W        W88793  18.330  20.141  15.066  0.0518 -0.2071  0.2344
87930W        W88794   6.293   4.767   4.509 -0.1326  0.1283  0.2306
87931W        W88795  25.633   3.294  18.869 -0.0151  0.1066 -0.1711
87932W        W88796   0.212   5.731  10.570 -0.4449  0.3128  0.0240
87933W        W88797  29.097   2.172  25.365  0.0225 -0.0364  0.1251
87934W        W88798   9.834   8.330   8.089 -0.1553 -0.3800 -0.0289
87935W        W88799   2.026  10.346  29.116  0.2173  0.3114 -0.0772
87936W        W88800   6.921  26.579  21.420  0.0757  0.0400 -0.0513
87937W        W88801  28.227  10.859   2.814 -0.0872 -0.2752  0.3044
87938W        W88802   6.688   4.483  23.500 -0.0589  0.2766 -0.1040
87939W        W88803   8.697   5.283  11.714  0.3976  0.2385  0.1957
87940W        W88804  12.825  17.334  16.672 -0.3118 -0.0941  0.0208
87941W        W88805  15.483  24.844   2.109 -0.0959 -0.1554 -0.2064
87942W        W88806  17.015  13.622  15.488 -0.0057 -0.2871  0.0050
87943W        W88807  25.937  20.204  16.551  0.1105  0.0338  0.4450
87944W        W88808  20.750   8.177  15.291 -0.0958  0.0639 -0.0433
87945W        W88809  23.080   5.047  20.789 -0.1455 -0.1851  0.0896
87946W        W88810   5.894  13.271  20.770  0.0573 -0.0279 -0.1162
87947W        W88811   0.397  28.867  27.022 -0.0185 -0.2036  0.1571
87948W        W88812  26.499   4.503  13.370 -0.1526 -0.0665 -0.3546
87949W        W88813  15.378  28.310   2.235  0.3065  0.0812 -0.2354
87950W        W88814  20.542   0.348   0.011  0.1336  0.1486  0.1742
87951W        W88815  24.958  24.073  15.106  0.1293 -0.1984  0.2549
87952W        W88816   2.901   6.720  15.919 -0.1928 -0.0222  0.0686
87953W        W88817   0.584  25.775  10.338 -0.2097  0.0254 -0.1540
87954W        W88818  24.768  20.986  22.172  0.0728  0.1579  0.1219
87955W        W88819   1.704  10.704   2.532  0.3888 -0.3090 -0.0326
87956W        W88820  23.804   5.825   1.941 -0.0313 -0.1447 -0.3786
87957W        W88821   7.092   1.259  27.365  0.2714  0.3755 -0.0730
87958W        W88822  16.670  14.283   6.536  0.1992 -0.0978 -0.0398
87959W        W88823  24.242  27.647   1.621  0.1012 -0.0431 -0.0212
87960W        W88824  18.073   2.804   9.306 -0.0259  0.0899  0.0470
87961W        W88825   8.971  16.267  15.843  0.1688 -0.1337  0.1124
87962W        W88826   0.903   7.815  27.397  0.0959  0.2148  0.2226
87963W        W88827  12.698   6.032   5.322  0.0662 -0.3338 -0.0358
87964W        W88828  18.193  25.611  10.037 -0.0918 -0.0069  0.2018
87965W        W88829  22.996  16.635  24.934  0.1873 -0.1110 -0.3104
87966W        W88830  26.467  25.171  23.686 -0.0158 -0.2097  0.2715
87967W        W88831   0.104   1.469  21.465  0.0731  0.3737 -0.0833
87968W        W88832  28.728  13.324  18.850 -0.0212 -0.2208 -0.0030
87969W        W88833  19.068  13.823  10.384 -0.0039  0.5785  0.1695
87970W        W88834  18.846   5.071   6.292  0.0030  0.0267  0.0397
87971W        W88835  26.314  16.408  20.485  0.1169 -0.0249 -0.3186
87972W        W88836  19.594  14.447   1.327  0.0499  0.1752 -0.1264
87973W        W88837  21.089  15.021  18.144 -0.2572  0.0330 -0.0351
87974W        W88838   6.083  14.148  16.851  0.0079 -0.0443  0.0685
87975W        W88839  16.756  14.356  16.583  0.0159 -0.2809  0.1049
87976W        W88840  21.852   0.985  12.075 -0.1903 -0.0067  0.1492
87977W        W88841  27.253  14.246  20.485 -0.0672  0.2706  0.3566
87978W        W88842   6.718  10.011  29.062  0.3844  0.1418  0.2631
87979W        W88843   3.453  21.178   9.556 -0.0760 -0.2928 -0.1544
87980W        W88844   9.706   5.596  20.676  0.1934  0.1544  0.0180
87981W        W88845   4.215  28.916   9.433  0.0664  0.0829 -0.2630
87982W        W88846   3.246   4.157  19.209  0.2173  0.1506  0.1726
87983W        W88847   1.946   0.502  16.753  0.0859  0.2104  0.2333
87984W        W88848  22.644  20.595  23.336  0.2565  0.2006  0.1191
87985W        W88849  14.991   0.018  20.002 -0.2031 -0.2685  0.0433
87986W        W88850  23.000   4.912  20.307 -0.1049 -0.0269  0.1793
87987W        W88851  21.222  27.981   8.515 -0.1855 -0.3552 -0.0888
87988W        W88852   8.087  13.709  19.226  0.2609 -0.4736  0.0567
87989W        W88853   4.679  12.744  25.317  0.1989  0.2026 -0.1643
87990W        W88854  23.079  17.199  23.298 -0.3078 -0.1154  0.1316
87991W        W88855   0.565   8.294  15.985 -0.1626  0.0212  0.3004
87992W        W88856   3.867   9.959  20.743 -0.1215  0.0546  0.0760
87993W        W88857  26.219  12.649   9.932  0.0290  0.0222 -0.0885
87994W        W88858  25.719  15.110   3.598  0.2180 -0.1378 -0.1182
87995W        W88859  22.171  21.098  25.203 -0.2809  0.0596 -0.0005
87996W        W88860   0.436   2.295  14.474 -0.0175  0.1507 -0.4445
87997W        W88861  24.256   3.975  22.242  0.1307 -0.0868  0.2156
87998W        W88862   2.459  25.719  23.293  0.0190  0.2657  0.2519
87999W        W88863  29.109  14.183   0.274 -0.0881 -0.1473  0.0378
88000W        W88864   0.923   3.339  18.267 -0.0979 -0.1804 -0.0491
88001W        W88865  28.288   8.682   2.780  0.0958  0.3225 -0.0395
88002W        W88866  24.345  14.656  18.555 -0.0395 -0.0751  0.0069
88003W        W88867  27.855   5.776  10.442  0.1145  0.0889 -0.2590
88004W        W88868  19.740   9.290   9.004 -0.1550  0.1415  0.3662
88005W        W88869  25.572   6.854  28.806 -0.1638  0.0978  0.0394
88006W        W88870  14.090   7.248  28.850 -0.1519  0.1134  0.1727
88007W        W88871   8.125  26.195  16.766  0.3850 -0.1454 -0.0287
88008W        W88872  22.583  20.265  18.985 -0.0805  0.2374 -0.1543
88009W        W88873   4.560   8.384   4.662  0.0578  0.4181  0.1477
88010W        W88874  16.847  14.522   2.839 -0.1334  0.0053  0.0710
88011W        W88875  25.233  11.006   9.259 -0.1032  0.1116 -0.1411
88012W        W88876  17.296  13.669  26.458 -0.1828 -0.0317 -0.0589
88013W        W88877  23.544  17.098  26.625  0.1723  0.1085  0.0054
88014W        W88878  24.178   3.250  27.259 -0.1707 -0.0030 -0.1552
88015W        W88879  27.853   9.211   4.821 -0.0543 -0.0513  0.0686
88016W        W88880   5.533   5.135  28.451 -0.0749 -0.1161 -0.0806
88017W        W88881  18.508  13.529   0.128  0.2147  0.1017  0.2643
88018W        W88882  15.100  11.033  19.730  0.0296  0.4010 -0.1122
88019W        W88883   0.348   2.540  23.400  0.0574  0.1828 -0.0801
88020W        W88884  27.895  21.807  27.797 -0.3174 -0.0324  0.0159
88021W        W88885  25.085  14.236  10.486  0.2357  0.0897 -0.0957
88022W        W88886  17.084   5.738  28.281  0.1921  0.0087 -0.0084
88023W        W88887   0.565   8.224   0.626 -0.0788 -0.3289  0.2029
88024W        W88888  22.547   3.718  18.430 -0.1518  0.1906  0.1128
88025W        W88889   9.141  12.791  21.578 -0.1750  0.3135 -0.0901
88026W        W88890  20.410  10.409  14.770  0.1011 -0.3167  0.1111
88027W        W88891  28.348  17.817   7.062  0.0838  0.0947  0.0723
88028W        W88892   6.441  20.605  23.101 -0.0778 -0.1149 -0.2198
88029W        W88893   4.562  27.679  27.092 -0.2368  0.0018 -0.0140
88030W        W88894  28.417  26.197  19.013  0.1996 -0.0454  0.1458
88031W        W88895   0.966  27.350   3.904  0.1676 -0.0205 -0.0392
88032W        W88896   2.256   0.342   9.619 -0.1195  0.0404 -0.0994
88033W        W88897  26.037  12.563   9.047 -0.1570  0.2472  0.2659
88034W        W88898  29.130  27.400   2.808 -0.1491 -0.0436 -0.2323
88035W        W88899  20.631  12.940  19.410  0.1828  0.0052  0.0829
88036W        W88900   2.455   9.448  26.287 -0.0613 -0.2107 -0.2409
88037W        W88901  18.269   4.533  17.218  0.1535 -0.0996 -0.2050
88038W        W88902  13.233  24.055   3.056 -0.1728 -0.0174 -0.4040
88039W        W88903  22.237  12.855   2.116 -0.0610  0.1077  0.2377
88040W        W88904  20.342  13.084  25.857 -0.0450  0.2165 -0.1971
88041W        W88905  28.706  13.089  11.312  0.1017 -0.0521  0.1870
88042W        W88906   6.219   5.267  18.147  0.2653 -0.0402  0.0036
88043W        W88907   2.619  22.813  17.555 -0.1777  0.4857 -0.0441
88044W        W88908  25.918  23.688  10.300  0.0535  0.0283 -0.0745
88045W        W88909   9.578  13.224  14.041  0.2020  0.1428 -0.2650
88046W        W88910  15.678   6.103  15.789  0.0029  0.0793  0.1175
88047W        W88911  18.054   9.552   1.685  0.0419 -0.1026 -0.1087
88048W        W88912  17.455  18.374  25.018 -0.0322 -0.1081 -0.0667
88049W        W88913  28.289  22.384  23.025  0.1097 -0.1594  0.0741
88050W        W88914   5.333   4.743  18.358 -0.1065  0.0292  0.0987
88051W        W88915   1.143  14.101  23.618  0.1822 -0.0474 -0.1662
88052W        W88916   8.606  28.231  12.121  0.0090 -0.0365 -0.0846
88053W        W88917  20.423  27.317   2.648  0.3400 -0.1084 -0.1969
88054W        W88918   6.561  26.218   9.938 -0.1265 -0.1247  0.2683
88055W        W88919  24.234  23.021   0.028 -0.2832  0.2704 -0.0926
88056W        W88920   1.749   0.242   9.774  0.1456 -0.1003  0.0704
88057W        W88921  17.481  10.313  15.487  0.0447  0.2614 -0.2698
88058W        W88922  25.318   8.915   1.468  0.0989 -0.0191  0.1025
88059W        W88923  26.522  11.549   0.358 -0.0129 -0.1512  0.2826
88060W        W88924  25.807  19.712  26.864 -0.0742  0.2091 -0.1257
88061W        W88925  17.424  29.084  27.438  0.0805 -0.1583  0.2941
88062W        W88926   6.146   4.908  12.957  0.0746  0.1621 -0.0159
88063W        W88927  10.707  16.916  20.944 -0.1828 -0.1003 -0.3270
88064W        W88928  25.114  24.346  18.965  0.3425 -0.0707  0.1296
88065W        W88929   0.530  26.956  19.231 -0.0973 -0.0232  0.3831
88066W        W88930   3.323   0.668  10.895  0.2059 -0.4322  0.3399
88067W        W88931   0.285  13.193   2.321 -0.1396 -0.2467  0.2229
88068W        W88932  23.253  20.080  12.678 -0.1379 -0.0177 -0.1681
88069W        W88933  23.998  19.804  17.726 -0.0789 -0.0430  0.2339
88070W        W88934  22.801  14.903  22.680 -0.2885  0.1884 -0.1970
88071W        W88935  23.878  11.781   7.284  0.2963 -0.2347  0.3291
88072W        W88936  23.030   0.863   0.475 -0.0626 -0.1497  0.1645
88073W        W88937   8.972   3.915  17.981  0.1583  0.3303  0.3228
88074W        W88938  18.916  16.315  21.770  0.1221  0.2696  0.0962
88075W        W88939  19.397  12.120  25.934  0.3276  0.1303 -0.2958
88076W        W88940  25.601   9.152  11.843  0.0033 -0.2561  0.0857
88077W        W88941   1.677   1.825   2.164  0.3460  0.4920  0.2294
88078W        W88942   9.203  15.296   5.584 -0.0064  0.1131  0.0676
88079W        W88943   4.999   2.693  15.138 -0.1291  0.0739 -0.1988
88080W        W88944  26.210  14.099  17.705  0.3074  0.0489  0.1203
88081W        W88945  21.694  18.242  26.631  0.2053 -0.2437 -0.1285
88082W        W88946  19.541  11.849   0.831  0.1543  0.0898 -0.0068
88083W        W88947   7.116  19.304   9.311  0.0856  0.0114  0.0900
88084W        W88948  20.315   0.468   6.210  0.0971 -0.1649 -0.1099
88085W        W88949  27.954  27.811   2.195  0.1794  0.1244  0.5324
88086W        W88950  28.314   1.599  27.628 -0.1181  0.1142  0.1276
88087W        W88951  20.315  17.587  15.452  0.0008  0.0871  0.4130
88088W        W88952   9.607  13.329  25.142  0.0000 -0.1008 -0.2858
88089W        W88953   3.013   1.660  27.895  0.0391  0.1214 -0.2534
88090W        W88954  22.509   5.517  11.097 -0.0591 -0.3066 -0.1517
88091W        W88955  22.182  17.132   3.308  0.0529 -0.0351 -0.0513
88092W        W88956   3.406  27.851  28.710  0.0849  0.1727 -0.2307
88093W        W88957   9.129   9.320   2.265 -0.0303 -0.2055  0.2364
88094W        W88958   8.771   5.957  27.069 -0.1034  0.0620  0.0294
88095W        W88959  18.801   8.919  19.380 -0.0914 -0.3194  0.1010
88096W        W88960  28.263  18.756  26.301 -0.1064 -0.0559 -0.2223
88097W        W88961   5.594  16.458   8.848 -0.1740 -0.2328 -0.0727
88098W        W88962   4.011  18.591  20.155  0.0354  0.3540 -0.0492
88099W        W88963   3.094   5.432  28.738 -0.0618  0.2332  0.0225
88100W        W88964  19.529  23.799   8.790  0.1090 -0.0730  0.0431
88101W        W88965  17.499  12.777   6.078 -0.3903 -0.0035 -0.2574
88102W        W88966  28.182  15.952  22.653 -0.4820 -0.0156  0.0912
88103W        W88967   1.067   4.181  25.875 -0.1639 -0.1547  0.1096
88104W        W88968  12.482  15.072   2.736 -0.0901  0.1244 -0.0876
88105W        W88969   6.231  27.135   2.922 -0.1754 -0.1131  0.2161
88106W        W88970  12.854  14.524  27.742  0.0632 -0.1773  0.1047
88107W        W88971  21.403   7.000  20.990  0.1064 -0.2375  0.2429
88108W        W88972   5.864  20.564  25.510 -0.0037 -0.1947 -0.1926
88109W        W88973  11.349   5.610  22.891  0.2739  0.0028 -0.0270
88110W        W88974  28.079   4.021  27.750  0.3124 -0.0223 -0.0671
88111W        W88975   1.762  19.813  27.813  0.1665 -0.0272  0.1472
88112W        W88976   4.146  20.142  14.573  0.3832 -0.2870 -0.2833
88113W        W88977  24.811   2.308  21.931 -0.0214  0.1605 -0.0248
88114W        W88978  21.583  21.885  18.391  0.0472 -0.2659  0.2933
88115W        W88979  21.362   0.236  22.075  0.2093  0.1068 -0.1249
88116W        W88980  27.573  18.633  12.199 -0.1151 -0.0528 -0.0569
88117W        W88981  27.102   7.075  17.828 -0.2817 -0.0483 -0.0395
88118W        W88982   9.441   8.397   1.270  0.1916  0.5611  0.0812
88119W        W88983  20.950   5.914  17.847  0.2359 -0.1395  0.0729
88120W        W88984  25.301  15.014  26.929  0.2800  0.1834 -0.0267
88121W        W88985  16.779  18.530  23.325 -0.2056 -0.1879 -0.0459
88122W        W88986  16.345  22.148   3.459 -0.2917 -0.0339  0.1323
88123W        W88987   8.770  26.875   2.423 -0.3211 -0.0428  0.1149
88124W        W88988   3.134  25.620  26.923 -0.2141  0.0873 -0.1197
88125W        W88989  16.288  18.592  22.147 -0.1321 -0.0047  0.2128
88126W        W88990   3.305  25.849  26.182  0.0112 -0.0877 -0.1886
88127W        W88991  27.711  28.649  17.372 -0.1277  0.0136  0.0462
88128W        W88992  28.803  28.683  18.299 -0.1268  0.1871  0.2234
88129W        W88993   5.136  17.354   8.508  0.1868  0.4233  0.1283
88130W        W88994  23.105  11.621  28.486 -0.0003 -0.2136  0.2862
88131W        W88995  19.950  21.500   8.767 -0.3305  0.3870 -0.1161
88132W        W88996   4.421  10.476  26.373 -0.1581 -0.2853  0.0896
88133W        W88997   6.341  21.179   6.110  0.0170  0.2321 -0.0229
88134W        W88998   5.588   8.289   5.986  0.2374  0.0138  0.1030
88135W        W88999  19.090  27.805   4.657  0.2211 -0.0652 -0.1416
88136W        W89000   0.832   0.842  28.142 -0.1151 -0.3122  0.2884
88137W        W89001  17.183  22.435  25.021 -0.0138  0.0124 -0.0877
88138W        W89002   7.335   8.726  25.042 -0.1371 -0.1089  0.1550
88139W        W89003  16.671   8.954  24.514 -0.3515 -0.0724 -0.0324
88140W        W89004   0.045  27.313  19.475 -0.2449  0.0416 -0.0498
88141W        W89005  17.490  21.177  28.244 -0.0592  0.1242  0.1682
88142W        W89006   6.982   1.871  21.190  0.1000  0.2437 -0.2896
88143W        W89007  20.417  24.590  22.722 -0.0492  0.1362 -0.0206
88144W        W89008  26.148   4.933  27.616 -0.1569  0.0740 -0.1931
88145W        W89009  22.165   6.992  23.789  0.1095 -0.1500 -0.1288
88146W        W89010  20.749  11.626   7.978 -0.3437 -0.0362 -0.1193
88147W        W89011  24.711  29.025   1.975 -0.1960 -0.0190  0.0665
88148W        W89012  25.665   7.924  13.684 -0.2495 -0.0609  0.1988
88149W        W89013  27.537  17.824  13.797 -0.0567  0.0141 -0.0759
88150W        W89014   4.974  19.022   5.012 -0.1751  0.2545 -0.2386
88151W        W89015   4.891   5.983  18.839 -0.2214 -0.0369  0.1356
88152W        W89016   6.452  25.639  15.196  0.1331 -0.4682  0.1943
88153W        W89017   6.034  19.775  24.183 -0.0982 -0.1272  0.1554
88154W        W89018  20.706  21.505   4.128  0.0420 -0.0827  0.0911
88155W        W89019  24.002   4.940  14.060  0.0606  0.0094  0.0941
88156W        W89020  24.905  13.104  19.580  0.1164  0.1176 -0.0189
88157W        W89021  26.348  14.996  20.326  0.1953  0.1970 -0.1589
88158W        W89022   1.216  28.612  24.722  0.1954 -0.2892  0.1221
88159W        W89023  18.139   7.245  26.351 -0.1250  0.0310 -0.1443
88160W        W89024  21.494  11.489  18.742  0.0386  0.1231 -0.0017
88161W        W89025  14.247   6.554  27.989 -0.1151 -0.1464  0.0393
88162W        W89026  14.291  11.686   8.756  0.1576 -0.0450  0.1544
88163W        W89027  28.553   7.119  18.137 -0.3486  0.0497  0.3026
88164W        W89028   6.511   7.808  16.926 -0.0317 -0.2872  0.1367
88165W        W89029   5.594  18.417  19.161  0.3227  0.1099  0.1959
88166W        W89030  11.495   2.653   5.450  0.0844 -0.0449  0.2889
88167W        W89031   2.854   7.867  26.913 -0.2171  0.1347 -0.1472
88168W        W89032   0.408  25.999  19.727  0.1958  0.0424  0.0062
88169W        W89033  22.758  14.176  20.786  0.1607  0.0539  0.1374
88170W        W89034  22.845   3.111   4.276 -0.0121 -0.1712  0.3685
88171W        W89035  10.373  29.072  13.528  0.1202 -0.0661 -0.0408
88172W        W89036  14.148   8.883  24.436 -0.1779 -0.1213 -0.0042
88173W        W89037  17.473   7.165  11.490  0.2185  0.0059  0.1478
88174W        W89038  28.301  23.468  16.644 -0.1656 -0.0801 -0.0211
88175W        W89039  27.936   1.293  26.454 -0.0547  0.5863 -0.0431
88176W        W89040  21.971  25.939  10.039  0.1058  0.3473  0.0560
88177W        W89041   0.681   3.420  23.793 -0.3775  0.2794 -0.0346
88178W        W89042  28.597   7.496  24.376 -0.4071  0.0199 -0.1074
88179W        W89043   8.167  17.948   6.054 -0.1841  0.0612  0.0629
88180W        W89044   3.825   5.135  11.015  0.0054 -0.0343 -0.0393
88181W        W89045   9.375  25.626   5.430  0.0756 -0.1214  0.1462
88182W        W89046   9.786  11.695   4.184  0.1184  0.3785 -0.0385
88183W        W89047  26.187   8.910  27.440  0.3414 -0.0668 -0.1460
88184W        W89048   1.042  24.617   6.986 -0.0653  0.0323 -0.0042
88185W        W89049  23.702  23.068  17.995  0.0915  0.3332  0.0926
88186W        W89050  16.920  14.185  28.265 -0.3111  0.3457  0.2291
88187W        W89051  12.101   9.870  13.628  0.0141 -0.0648  0.1747
88188W        W89052  14.396  21.614  16.220 -0.1407 -0.3211  0.0135
88189W        W89053  28.940  10.687   7.159 -0.0652 -0.1494 -0.3258
88190W        W89054   7.545  18.533  14.522 -0.2267 -0.1674 -0.2518
88191W        W89055  28.999   5.485  14.105  0.1735  0.1306 -0.0874
88192W        W89056   8.559   2.990  10.527  0.2446  0.2464 -0.2366
88193W        W89057  20.957  18.457  17.972  0.1113 -0.0867  0.0873
88194W        W89058   8.338  19.709  13.131 -0.2217  0.0927 -0.3300
88195W        W89059   5.084  12.311  25.314  0.1338 -0.1178 -0.0035
88196W        W89060  25.748   4.722  20.526 -0.2433 -0.3587 -0.0957
88197W        W89061  27.867   9.407   2.354  0.0090 -0.0808 -0.0930
88198W        W89062   0.152  12.625   4.369 -0.2996  0.2041 -0.0951
88199W        W89063  20.488   3.636  10.793  0.0823  0.1371  0.1100
88200W        W89064  14.952   5.202   8.828 -0.0167 -0.1292  0.2504
88201W        W89065  10.046   6.672  22.414 -0.5899 -0.1875 -0.1061
88202W        W89066  16.796  17.785   8.675  0.1541  0.1669  0.0472
88203W        W89067  28.221  10.598  12.146 -0.2194  0.0217 -0.3382
88204W        W89068   7.364  13.532  18.903 -0.1658 -0.0583 -0.0745
88205W        W89069  16.191  11.903  20.069 -0.0325  0.0099  0.0299
88206W        W89070  11.424  10.077   1.364  0.0767 -0.0344  0.0018
88207W        W89071  25.822   8.709   2.482  0.1819  0.2859  0.0854
88208W        W89072   0.144   8.608  10.828 -0.0999  0.4774  0.0687
88209W        W89073  21.487   3.236  27.289 -0.1952  0.0793 -0.1951
88210W        W89074  16.682   5.926  25.683 -0.0579 -0.1913  0.1630
88211W        W89075  22.193  17.983  13.292 -0.0757  0.0766  0.4681
88212W        W89076  26.819  17.785  19.302  0.0901  0.0668  0.0177
88213W        W89077  22.428  14.865  28.335 -0.1151 -0.1010  0.3042
88214W        W89078  17.474  15.424  14.825  0.1780 -0.0781 -0.3099
88215W        W89079   2.374  14.155   0.549  0.1307 -0.2430 -0.0827
88216W        W89080   7.803  20.663  11.738  0.1180  0.1063  0.2130
88217W        W89081  11.127  28.918  15.733 -0.2150  0.0179  0.1552
88218W        W89082  19.640  11.477  13.191 -0.3775 -0.1146 -0.1521
88219W        W89083  10.611  11.948   5.043  0.1098  0.3648 -0.1332
88220W        W89084   6.346   4.334  14.390  0.4289  0.1689 -0.2239
88221W        W89085  25.719   8.819  14.014  0.1227  0.1305 -0.1753
88222W        W89086  20.027  16.510  25.205 -0.5019  0.2306  0.0181
88223W        W89087  25.759  10.602   6.815  0.0921 -0.1004 -0.1620
88224W        W89088  12.742  12.789   5.541  0.1822 -0.0979  0.0012
88225W        W89089  21.072   0.970   1.707 -0.5126 -0.0498  0.0338
88226W        W89090  22.096  27.559   3.223  0.0781  0.2346  0.1913
88227W        W89091  26.557  15.369  27.192 -0.0900 -0.0364 -0.0442
88228W        W89092  17.720  28.056  28.535  0.1005  0.1634 -0.0227
88229W        W89093   9.761  25.621  22.208 -0.0597 -0.0389 -0.0465
88230W        W89094   5.124  15.212  18.054  0.1663  0.3386 -0.1485
88231W        W89095  22.980  13.379  23.749  0.3870  0.1427  0.1010
88232W        W89096   3.564  21.833  28.975 -0.2144 -0.3588 -0.0923
88233W        W89097  18.923  24.088   3.648 -0.1773  0.0317  0.2183
88234W        W89098   7.589   6.498  14.389  0.1324 -0.0242 -0.1811
88235W        W89099  28.767  10.947  15.812  0.0767  0.0476  0.3142
88236W        W89100  25.814  16.430  21.482  0.1118  0.0579 -0.4215
88237W        W89101  24.962  11.329  11.497 -0.0483  0.0414 -0.1336
88238W        W89102  23.611  16.252  10.490 -0.0739 -0.1294 -0.2093
88239W        W89103  22.494  20.876   2.232 -0.0245 -0.2742  0.0826
88240W        W89104  10.663  24.242  22.910 -0.1962  0.1114  0.1700
88241W        W89105  11.780  19.386  18.529 -0.1065 -0.0086 -0.1884
88242W        W89106  27.759  24.955   5.914 -0.3082 -0.2387  0.0148
88243W        W89107  24.479  17.174  18.501  0.1846  0.0423 -0.1069
88244W        W89108  18.186   7.605   8.007  0.2207  0.2853  0.0411
88245W        W89109  19.921  25.825  26.569  0.1572 -0.0871 -0.1183
88246W        W89110  17.828  10.213  18.090 -0.2397 -0.1071  0.0222
88247W        W89111   9.233  22.693  14.658  0.1070  0.0350 -0.0743
88248W        W89112  13.248   5.336  15.619 -0.0689  0.1597  0.1758
88249W        W89113  14.547  28.561  22.667 -0.1099  0.0343  0.1615
88250W        W89114   7.452  19.996   2.988  0.1099 -0.0655  0.0447
88251W        W89115  22.642   1.176  24.133 -0.0910 -0.0868 -0.2202
88252W        W89116  28.005   4.338  18.406 -0.0900  0.0264  0.0364
88253W        W89117  22.122  20.521   0.755 -0.0423  0.4332  0.0925
88254W        W89118   5.250   9.553   9.876  0.0127 -0.0933  0.1795
88255W        W89119  14.217  15.632  25.040 -0.3043  0.2083 -0.3582
88256W        W89120   1.667   3.378  19.791 -0.1237 -0.0648  0.1141
88257W        W89121  24.229   6.873  11.783  0.1236 -0.1847 -0.1229
88258W        W89122   6.870   0.380   3.998 -0.0404 -0.0716 -0.2816
88259W        W89123   3.244  11.722   6.481  0.3433  0.3787 -0.0747
88260W        W89124  20.292  27.028  22.488 -0.0463 -0.2656  0.0560
88261W        W89125  28.012   7.709  12.692  0.2111  0.2169 -0.1896
88262W        W89126   0.019  14.469  13.818 -0.0396  0.1421 -0.0549
88263W        W89127  11.657   0.104  22.466 -0.0393  0.1582  0.1915
88264W        W89128  15.843   2.426  26.757 -0.1214  0.0073 -0.0700
88265W        W89129  24.997  13.816  25.285  0.0645  0.1075  0.1124
88266W        W89130  15.532   8.300  22.625  0.1832 -0.0798  0.4653
88267W        W89131  10.407  14.398  23.004  0.2211  0.0662  0.0896
88268W        W89132  28.658  13.783  24.222  0.2753  0.0880 -0.1722
88269W        W89133   5.812  27.472   4.587 -0.1068 -0.0374 -0.2071
88270W        W89134  23.295  20.749  11.303 -0.1626  0.1746 -0.2638
88271W        W89135  21.872  20.420  18.474  0.0187 -0.2688  0.0767
88272W        W89136  27.358  15.310  18.038  0.2768 -0.2096  0.0535
88273W        W89137  20.252  12.454   4.954  0.2385  0.4138  0.3119
88274W        W89138   7.941   0.356   2.813  0.1209 -0.1015  0.2527
88275W        W89139   0.579   0.216   7.761 -0.1522 -0.0377  0.1030
88276W        W89140  17.045   5.387   6.098 -0.0942 -0.2918  0.0357
88277W        W89141  25.264   6.735  22.680 -0.0960  0.0000  0.0060
88278W        W89142   9.888  11.528  27.544  0.3047 -0.1768  0.2585
88279W        W89143  13.936  10.954  21.749 -0.1830 -0.1330  0.2048
88280W        W89144  26.726   6.827   5.913 -0.0746 -0.0539  0.0927
88281W        W89145  17.513   8.394  22.561 -0.0375  0.3275  0.0989
88282W        W89146   3.595  11.805   5.199 -0.1994  0.0045 -0.1488
88283W        W89147  21.795  13.363   9.057 -0.2320  0.2902  0.3670
88284W        W89148   0.626   0.980  24.269  0.1300 -0.2380  0.0022
88285W        W89149  22.525  15.324   1.286 -0.0156  0.0305 -0.0161
88286W        W89150   1.360  14.113  19.306 -0.1166 -0.0016  0.2316
88287W        W89151  22.789  18.775   0.074 -0.0157  0.1196  0.2836
88288W        W89152  22.289  14.892   2.500 -0.0094 -0.2300  0.3419
88289W        W89153   1.782  12.997   5.118  0.0325 -0.1581 -0.1115
88290W        W89154  20.223   0.881   2.413  0.2043  0.0119 -0.0005
88291W        W89155   8.933  14.553  16.186  0.0510  0.1027 -0.3610
88292W        W89156  26.633  12.651   4.085 -0.0185  0.0656  0.0016
88293W        W89157  23.862  17.976  19.454  0.2404  0.1292  0.1405
88294W        W89158   1.149   6.856   4.204  0.2858  0.2245 -0.0426
88295W        W89159   4.250  10.520   7.227  0.3249 -0.2156  0.2905
88296W        W89160  14.319  14.159   1.024 -0.2355  0.1352  0.0223
88297W        W89161   2.551  23.138  25.437 -0.0552  0.1814  0.0793
88298W        W89162   0.908  18.132  10.356  0.3023  0.1683 -0.1221
88299W        W89163  14.510  12.818   0.937  0.0114  0.0991  0.2135
88300W        W89164   4.782   3.101  10.141 -0.6142  0.3830  0.3266
88301W        W89165   3.412  20.626   4.027  0.0789  0.0108 -0.1050
88302W        W89166   6.206   2.515  13.717  0.1264 -0.2146 -0.2533
88303W        W89167   3.141  22.785  17.384 -0.0357 -0.0686  0.0224
88304W        W89168  23.063   5.684  24.461 -0.1681  0.0133 -0.2715
88305W        W89169  13.237   6.579  11.992  0.0660  0.1847 -0.0390
88306W        W89170  17.594  17.761   7.596 -0.2589  0.5096  0.0080
88307W        W89171   2.829  21.494  24.552  0.0168 -0.1938 -0.0393
88308W        W89172   0.794  19.015  24.965 -0.0912  0.0648 -0.0531
88309W        W89173   8.602  22.953  24.830  0.0233 -0.0372 -0.1651
88310W        W89174  10.751  17.610  26.207  0.0854 -0.2204 -0.1469
88311W        W89175   2.054  10.575   6.861  0.1858  0.3475 -0.0031
88312W        W89176   2.260   9.848  20.945 -0.2484 -0.2547  0.3056
88313W        W89177  23.797   6.269   1.655 -0.0807 -0.0326 -0.1740
88314W        W89178   1.579  14.837  28.784  0.1417  0.0248  0.0106
88315W        W89179   8.756  12.686   8.619 -0.2142 -0.1753 -0.3080
88316W        W89180  14.984  26.406  28.165  0.2206 -0.1147  0.0804
88317W        W89181  19.025   5.307   5.076 -0.3377  0.1006 -0.1957
88318W        W89182   8.805  19.156  12.457 -0.0675 -0.1465 -0.1810
88319W        W89183  25.940  12.519  12.264 -0.2038 -0.1953  0.2237
88320W        W89184  16.718  16.180  23.522  0.1533  0.0324 -0.1334
88321W        W89185  14.381  13.919  28.663 -0.0902  0.0592 -0.0053
88322W        W89186   6.339   0.653  21.251 -0.0976 -0.1460  0.2396
88323W        W89187   9.904   4.430  25.613 -0.1537 -0.1380  0.0760
88324W        W89188   5.535  16.494  28.145  0.0410  0.0156  0.2095
88325W        W89189  11.991  10.483  12.000  0.2267 -0.2346 -0.0787
88326W        W89190   3.298  11.197  11.543 -0.0579  0.3463 -0.6399
88327W        W89191  11.561   4.282  12.863  0.0773  0.2274 -0.0445
88328W        W89192   9.640   6.511  15.852  0.1475  0.2264  0.2817
88329W        W89193  11.307  20.751  20.543  0.1252 -0.3470  0.0294
88330W        W89194  28.208   8.532   8.913 -0.0720 -0.0720  0.0744
88331W        W89195   3.188   9.706  11.136  0.2050  0.0161 -0.1334
88332W        W89196   3.226  16.342  12.592 -0.1431  0.3008  0.1823
88333W        W89197  22.147  14.066   8.879  0.1650  0.0772 -0.0023
88334W        W89198  11.460  16.506  15.417  0.0445 -0.3617 -0.2091
88335W        W89199   2.229   3.393   7.138 -0.2399  0.2410 -0.0748
88336W        W89200  20.457   9.192   1.882 -0.3386  0.0251  0.1754
88337W        W89201   2.077   3.566   9.862  0.0661 -0.0025  0.0084
88338W        W89202   0.984  23.795  17.665  0.0020  0.0210  0.2093
88339W        W89203  17.971   0.595  24.168 -0.1280  0.1704 -0.4158
88340W        W89204   3.209  27.911   7.763  0.0097  0.2411  0.2772
88341W        W89205   8.085  15.989  27.165  0.3143 -0.0067  0.1169
88342W        W89206  23.436  14.655  25.731 -0.0523 -0.1514  0.1787
88343W        W89207  21.276  14.792  22.602 -0.2698  0.0179  0.0340
88344W        W89208  12.084  20.342  21.434 -0.1806 -0.1724 -0.0000
88345W        W89209  25.951  20.135  21.555  0.0440 -0.1001  0.1320
88346W        W89210  17.894  17.063   8.903 -0.1527  0.0869  0.1076
88347W        W89211  23.914   9.306  18.741  0.0703  0.0868 -0.1681
88348W        W89212  25.930  26.073   8.889  0.2376  0.0398  0.0345
88349W        W89213   6.957  12.343  16.515  0.1150 -0.0751 -0.1076
88350W        W89214   5.823  11.133  25.578 -0.2848 -0.3136 -0.2212
88351W        W89215   4.431  21.699  19.174  0.0551 -0.3345 -0.2977
88352W        W89216  26.148  26.453  16.584 -0.0333 -0.1036 -0.1173
88353W        W89217   6.402   6.810   9.084  0.1533 -0.0492  0.1979
88354W        W89218  22.358  26.308  28.380 -0.0738  0.0755  0.0437
88355W        W89219   8.435   6.857  16.163  0.1065 -0.4100  0.2066
88356W        W89220  28.299  10.916  19.360  0.1177 -0.1025 -0.1408
88357W        W89221  27.505  10.126  19.836 -0.0909 -0.2664  0.1954
88358W        W89222  24.724   6.216   0.645  0.0918 -0.1182 -0.1456
88359W        W89223  18.726  15.795  18.740 -0.2250  0.0865  0.1765
88360W        W89224  23.954  12.377   4.847  0.1939  0.1480 -0.0046
88361W        W89225   7.924   1.845  18.875  0.1597 -0.1161 -0.3350
88362W        W89226  21.608   0.041  16.528  0.2811 -0.1132 -0.1146
88363W        W89227  20.165   7.845  24.822  0.3875  0.0681 -0.0880
88364W        W89228  20.698   0.552  10.194 -0.1392  0.2679  0.5383
88365W        W89229  26.635   9.922  24.416 -0.0371 -0.2558 -0.2846
88366W        W89230  23.325  16.261   0.705  0.4902 -0.1526  0.2174
88367W        W89231   4.809  19.472  10.471 -0.1171  0.2500 -0.2337
88368W        W89232   3.059  21.754  11.451  0.4638  0.0017  0.5363
88369W        W89233   3.089  27.691   5.519  0.1223  0.0882  0.4754
88370W        W89234   9.272   7.947   9.212  0.1248  0.0627 -0.2065
88371W        W89235   2.128  26.001  11.763 -0.2310  0.0130 -0.3479
88372W        W89236  11.992  28.389   1.176 -0.2191 -0.1286 -0.0670
88373W        W89237  12.630  25.493  25.050  0.0890  0.1319 -0.0278
88374W        W89238  27.342   1.583  23.933 -0.1881 -0.3771 -0.0408
88375W        W89239  10.497   8.277  28.353  0.0078  0.3359  0.0882
88376W        W89240  21.767  27.356  26.934 -0.0388  0.2580 -0.0165
88377W        W89241  23.401  15.874  10.167  0.1469  0.1288 -0.0175
88378W        W89242  17.226   7.930  20.043 -0.1402 -0.1119  0.1217
88379W        W89243   2.456  14.648  26.958 -0.0050  0.5130  0.1251
88380W        W89244  28.687  26.577   9.729  0.0204  0.0252 -0.1368
88381W        W89245  29.052   7.198  23.537 -0.2260  0.1641  0.0435
88382W        W89246  16.854  14.619   9.839  0.1463  0.1685 -0.1286
88383W        W89247   0.819  24.784  20.106 -0.4127  0.2924  0.2800
88384W        W89248   3.409  11.421  21.389  0.2905  0.1331  0.1732
88385W        W89249  27.380  14.416   3.960  0.1830  0.2286  0.1360
88386W        W89250  14.063  18.814  22.794  0.1784 -0.1118 -0.1580
88387W        W89251   3.608  14.462  26.006  0.1276  0.1063 -0.0420
88388W        W89252   1.751   8.318  25.366  0.1199  0.0276 -0.2018
88389W        W89253  25.416   3.427  28.569  0.1819  0.0201 -0.1539
88390W        W89254  14.106  21.424  19.138 -0.0385  0.0711 -0.1938
88391W        W89255   3.226  18.139  17.267  0.1825  0.1176  0.1952
88392W        W89256   2.779  15.208   4.422 -0.3181  0.2900  0.0873
88393W        W89257  23.956   2.519   6.893  0.1804 -0.2023  0.4764
88394W        W89258  24.391  25.924  12.014 -0.1246  0.0051  0.1043
88395W        W89259   2.350  12.037  28.276 -0.0375 -0.0471  0.0415
88396W        W89260  24.661   1.267   7.936 -0.1144 -0.1350  0.3069
88397W        W89261  20.261   5.364  17.447 -0.0822  0.2861 -0.1031
88398W        W89262   4.555  25.200   5.487  0.2351 -0.1685  0.0857
88399W        W89263   5.908   2.027  24.337 -0.2838  0.0984  0.1452
88400W        W89264  17.066   3.468  26.958  0.1351 -0.0432  0.1121
88401W        W89265   1.588  27.967  14.671  0.2542  0.0668  0.0167
88402W        W89266   1.775  25.078  20.704  0.2730 -0.4238 -0.0205
88403W        W89267   5.114  28.526   0.166 -0.0314  0.0218 -0.2413
88404W        W89268  28.626  22.822   9.384 -0.1471 -0.0527 -0.0728
88405W        W89269  25.185  28.211  19.386 -0.0866  0.2349  0.1858
88406W        W89270   0.232  11.510  25.235 -0.2087 -0.0744  0.1862
88407W        W89271  25.193   2.154  10.004  0.0695 -0.0749 -0.0825
88408W        W89272  25.238  24.908  14.248  0.1655  0.4124  0.0076
88409W        W89273   4.443  13.491   9.632 -0.0894  0.0259 -0.0008
88410W        W89274  28.444  22.798  18.775 -0.0545 -0.0019 -0.0102
88411W        W89275  24.091  14.234  24.825  0.0755  0.3550  0.1001
88412W        W89276  23.230  12.836   1.224  0.3706 -0.3967  0.1459
88413W        W89277  18.223  29.084   1.664  0.1573  0.2558  0.2814
88414W        W89278  25.078  11.847   3.394 -0.3877  0.0152 -0.3462
88415W        W89279  14.399  27.711   0.172 -0.0904 -0.1684 -0.0225
88416W        W89280  18.379  19.000  28.679 -0.3359  0.3005  0.2586
88417W        W89281   3.669  28.469  13.319 -0.1380 -0.0974  0.2213
88418W        W89282  22.447   2.193  22.302 -0.4173 -0.2214  0.2353
88419W        W89283   1.208  10.799  27.265  0.0665 -0.0264  0.1693
88420W        W89284  15.858  22.483  26.370  0.2313  0.2426  0.0313
88421W        W89285   1.026   5.980  25.822 -0.1645  0.0134 -0.0796
88422W        W89286  10.103  16.635   5.456  0.1133  0.1021  0.1906
88423W        W89287   7.589  13.751  19.341  0.1386  0.2029  0.2986
88424W        W89288  14.702   3.078  27.933 -0.0149  0.1345 -0.0037
88425W        W89289  18.958  12.445  21.307 -0.2291 -0.1266 -0.3076
88426W        W89290   0.362  13.392  22.739 -0.1576 -0.1981  0.0048
88427W        W89291  18.773   8.177  10.616  0.1855 -0.0275 -0.0824
88428W        W89292  22.263  16.546   7.782  0.1547 -0.1576  0.0953
88429W        W89293  24.450  25.592  28.628 -0.1601 -0.0741  0.2365
88430W        W89294  25.303  19.104  24.921 -0.0974  0.2476 -0.1261
88431W        W89295  23.833  15.934   5.676 -0.0217  0.0916  0.0129
88432W        W89296  16.963  14.995  28.045  0.1436  0.2787 -0.0625
88433W        W89297  26.099   7.041   9.560  0.1121 -0.1082  0.2527
88434W        W89298  20.608   2.239  11.575  0.1421  0.2689  0.0222
88435W        W89299   2.032  25.794  26.635  0.0656  0.0185 -0.5904
88436W        W89300  26.680   3.491   6.172 -0.0017 -0.1938 -0.2898
88437W        W89301   1.989   4.343   1.685  0.2834  0.1480 -0.2366
88438W        W89302   0.876   7.103  21.736 -0.1690  0.2175  0.2329
88439W        W89303  20.968   7.312  26.681  0.4471  0.0475  0.0523
88440W        W89304   2.877  25.588  21.203  0.0999 -0.2544  0.0022
88441W        W89305  17.554   1.863   9.645  0.3321 -0.1134 -0.1514
88442W        W89306   1.846   4.657  20.397  0.0416 -0.0496  0.0370
88443W        W89307   2.294   3.660  20.755 -0.2076  0.2375  0.2175
88444W        W89308  15.577  19.544   4.869 -0.1220  0.0377  0.2503
88445W        W89309  28.494   4.750   6.440  0.1229  0.0935 -0.0097
88446W        W89310   6.573   3.332   9.731  0.0929  0.4095 -0.0350
88447W        W89311  10.308  23.503  18.826 -0.1615 -0.4076  0.1530
88448W        W89312  15.185  15.456   7.356 -0.0000  0.1197 -0.1470
88449W        W89313  28.091   7.657  21.083 -0.2320 -0.2453  0.0069
88450W        W89314  11.049  27.979  26.448 -0.1318 -0.2038 -0.1132
88451W        W89315  13.153  12.974  10.247  0.1214  0.2374  0.1771
88452W        W89316  19.870  11.085   4.525 -0.1105  0.2967 -0.1931
88453W        W89317  11.430   1.474  17.562  0.3012 -0.0749 -0.1019
88454W        W89318   4.687  17.760   0.789 -0.2986 -0.1163  0.0116
88455W        W89319  21.839   6.901  11.419 -0.0263 -0.1985 -0.0365
88456W        W89320   5.988  25.445  28.872  0.0367 -0.1302  0.0191
88457W        W89321   0.888   4.835   1.691  0.2686  0.1073 -0.0043
88458W        W89322   2.784   5.457  18.679  0.0979  0.2265 -0.1208
88459W        W89323   3.032   8.901   1.086  0.1755  0.4475  0.2372
88460W        W89324   0.522  25.385   9.277  0.2434 -0.0473 -0.1632
88461W        W89325  18.635  13.668  17.707 -0.3510 -0.0292 -0.2511
88462W        W89326  19.225   3.411   1.401  0.0133 -0.1164 -0.1904
88463W        W89327  15.663  19.353  27.600 -0.4807  0.1164  0.0362
88464W        W89328  11.136  26.775   6.254  0.5901  0.1036 -0.0442
88465W        W89329   2.198   2.359  13.176  0.0463 -0.3282 -0.1153
88466W        W89330  21.262  22.181   6.451  0.0572  0.3618 -0.1428
88467W        W89331  25.398  26.650  11.847  0.1400  0.2842  0.0646
88468W        W89332   4.592  15.287  26.241  0.2678 -0.0999  0.0073
88469W        W89333  12.019  20.909   6.247  0.0172  0.1607 -0.1870
88470W        W89334   5.685   2.641   7.072 -0.1523 -0.3227  0.1914
88471W        W89335  24.473  20.860  27.202 -0.0215 -0.1792 -0.3572
88472W        W89336   0.644  19.462   0.942 -0.1568 -0.0817 -0.2124
88473W        W89337  28.448  16.700  27.844  0.2439  0.2098 -0.0989
88474W        W89338   9.167  14.889  17.472  0.2324 -0.1739 -0.2215
88475W        W89339  24.623  10.169  18.135  0.1175 -0.0687  0.2416
88476W        W89340  21.091  21.029  24.445 -0.3346 -0.0160 -0.0643
88477W        W89341  11.632   5.513   8.870  0.4771  0.0201  0.0371
88478W        W89342  27.445   7.885   2.923  0.0918  0.1177 -0.1360
88479W        W89343   9.082   3.205   2.429  0.3003 -0.0038 -0.1842
88480W        W89344  21.257  22.124  16.515 -0.1499  0.2579  0.0896
88481W        W89345  14.995  27.982   3.725 -0.1406  0.0309 -0.2565
88482W        W89346  19.952  18.857   4.664  0.0922  0.0609 -0.1142
88483W        W89347  22.455   1.067  17.140  0.1493 -0.0435  0.0063
88484W        W89348  25.499   9.082   7.473 -0.2567  0.1539  0.2074
88485W        W89349  21.641  10.646   0.013  0.1550 -0.1795  0.2087
88486W        W89350  18.786   7.201  26.701  0.1955 -0.1168  0.2890
88487W        W89351  21.280   8.640  13.698 -0.1502 -0.0640 -0.2762
88488W        W89352  19.646  25.932  12.250 -0.4211  0.1065  0.0113
88489W        W89353  11.147   7.133  21.732 -0.0891 -0.1292 -0.2451
88490W        W89354   9.097   7.732  18.255  0.4537  0.0952 -0.0072
88491W        W89355  10.242   2.433  12.155  0.2009  0.2278 -0.3674
88492W        W89356   8.930  22.145   5.823  0.1484 -0.2613 -0.2477
88493W        W89357   3.123   5.736   0.028 -0.1715 -0.1318  0.3311
88494W        W89358   0.653   2.436  24.663  0.0122  0.0329  0.3097
88495W        W89359   1.783   3.608  20.430  0.1451  0.0456 -0.2945
88496W        W89360  11.037  14.850   2.394  0.2146  0.0869  0.0799
88497W        W89361  19.988  16.734   3.776  0.0988 -0.0922 -0.0884
88498W        W89362  22.937   4.781  27.134 -0.0225  0.2727 -0.2358
88499W        W89363  20.820   6.811   6.803  0.0785 -0.2006 -0.1300
88500W        W89364  18.543  22.543  16.629  0.0714 -0.0084  0.0750
88501W        W89365   4.944   7.577  20.599 -0.1075  0.0804  0.0913
88502W        W89366  17.559   2.590  14.449  0.1047 -0.1981 -0.0667
88503W        W89367  25.226   4.651  18.683  0.1833  0.4841 -0.1156
88504W        W89368  26.518   3.712  18.543 -0.1748 -0.1430  0.2424
88505W        W89369  18.604  21.317  26.569  0.0803  0.0654  0.1229
88506W        W89370  28.921  11.011  10.328  0.2102  0.1063  0.0169
88507W        W89371  26.612  18.086  16.082 -0.1117 -0.0700 -0.0703
88508W        W89372   6.570  27.042   2.229  0.2941 -0.0300 -0.0119
88509W        W89373  27.633  12.003  25.977  0.3972 -0.1711 -0.0022
88510W        W89374   2.708  23.480  23.579 -0.1072  0.0942 -0.0819
88511W        W89375   2.170  18.341  27.523 -0.1870 -0.1192 -0.1174
88512W        W89376  10.501   8.738   7.425 -0.1119  0.1993 -0.2155
88513W        W89377   1.737   5.807   9.799  0.3306  0.0611  0.1182
88514W        W89378   9.336  21.451   8.629  0.0966 -0.3844 -0.0474
88515W        W89379  27.427   5.940  26.987 -0.0927  0.0009 -0.0678
88516W        W89380  22.636  16.128  19.118 -0.1451  0.1485 -0.1910
88517W        W89381   8.283   0.549   1.851  0.0379  0.3518  0.3390
88518W        W89382   8.059  28.814  28.431 -0.3048  0.0216  0.0186
88519W        W89383  15.034  13.632   9.026  0.0457  0.0120  0.1739
88520W        W89384  17.377  18.420  22.726 -0.0569 -0.2858  0.1565
88521W        W89385   7.766   7.853   6.079 -0.1158  0.0655  0.0182
88522W        W89386   7.478  16.083  11.012 -0.1013 -0.2517 -0.5288
88523W        W89387   7.075   6.995  27.741 -0.1465  0.0306  0.1096
88524W        W89388  10.300  17.799  14.047 -0.1060  0.1553 -0.0563
88525W        W89389  28.479  15.386   4.120 -0.0123 -0.0517 -0.1199
88526W        W89390   0.875   7.510   0.120  0.1441 -0.2947 -0.0516
88527W        W89391   7.259  10.755  28.220 -0.0536 -0.0436 -0.2781
88528W        W89392  18.268   4.294  22.384 -0.1207 -0.0912  0.1907
88529W        W89393   7.390  20.500  11.164  0.0429  0.1608 -0.1903
88530W        W89394  15.568  21.371   7.118 -0.1869  0.1558  0.0325
88531W        W89395  15.795   8.038  11.636 -0.1177  0.1236  0.0528
88532W        W89396   0.148   8.366  11.477  0.3606 -0.4061  0.0345
88533W        W89397  17.709  11.474  19.633 -0.0756 -0.2034 -0.0114
88534W        W89398  27.358   0.921  14.218  0.0962 -0.2145  0.2965
88535W        W89399  27.670   3.580  23.937 -0.2119 -0.1300  0.1714
88536W        W89400  28.107   7.620  26.896  0.1875  0.3242 -0.1535
88537W        W89401   8.534  21.718  13.561  0.0201  0.0467  0.2217
88538W        W89402  24.953  27.331  14.389  0.0152  0.0766 -0.3351
88539W        W89403   4.400   2.562   3.406  0.1138  0.0822 -0.2508
88540W        W89404   1.032  16.669   6.557 -0.0664  0.0137 -0.3490
88541W        W89405   6.665  10.920   3.908 -0.0143 -0.0897 -0.0218
88542W        W89406  26.281  24.239  21.926 -0.0409 -0.2326 -0.2086
88543W        W89407   3.620  10.446  24.500 -0.0434 -0.2626  0.1240
88544W        W89408   2.734   7.787  15.152  0.0100  0.1294 -0.0126
88545W        W89409  19.917  20.674  28.327  0.0272 -0.0586  0.2194
88546W        W89410   8.901   8.142  25.372 -0.0989  0.1009  0.2391
88547W        W89411   4.661  10.453  16.800  0.2023  0.1076 -0.3381
88548W        W89412  18.628   8.796  21.683 -0.0338 -0.0793 -0.4541
88549W        W89413  19.697  22.992   4.298 -0.2845 -0.2143  0.0521
88550W        W89414   3.947  14.024  16.540 -0.1917  0.1800 -0.1364
88551W        W89415  23.965  13.975  14.915  0.1082  0.2278 -0.1400
88552W        W89416   7.738  25.623  20.777  0.0095 -0.2891  0.1961
88553W        W89417  10.966   5.991  15.833 -0.0147  0.2073 -0.1196
88554W        W89418   3.696  14.615   7.308  0.1339 -0.1276 -0.0155
88555W        W89419  28.933  18.828  14.005  0.1395 -0.2029  0.1946
88556W        W89420   4.752  12.413  27.649 -0.0884  0.1726  0.1807
88557W        W89421  22.271  10.839  24.865 -0.0387  0.0297  0.1781
88558W        W89422   8.933  14.368  27.530 -0.4767 -0.2104 -0.0109
88559W        W89423   5.261  22.362  21.726 -0.0362 -0.2109 -0.1622
88560W        W89424  19.216  11.677   8.410 -0.0727 -0.1035  0.1071
88561W        W89425  19.234  22.993   4.091 -0.0472  0.2837 -0.1131
88562W        W89426  26.541   7.038   8.650  0.1191  0.0709  0.2330
88563W        W89427   5.712   9.533  24.964  0.1473  0.2128 -0.0185
88564W        W89428   3.592  10.161  27.524  0.0124 -0.1734  0.1631
88565W        W89429  18.806   9.415  24.859 -0.1085 -0.0876  0.1416
88566W        W89430  17.159  19.539  18.840  0.2154 -0.0665  0.0179
88567W        W89431  15.212   0.879   0.520  0.0058 -0.3701 -0.1214
88568W        W89432   6.014  17.418  13.445  0.1306 -0.3356  0.0353
88569W        W89433   6.243  27.960  24.099  0.1049  0.3917 -0.2614
88570W        W89434  24.571   6.556  21.297  0.2097  0.1016  0.0882
88571W        W89435  25.609  12.317   8.839  0.0114  0.3920 -0.1287
88572W        W89436   0.031  16.653   1.738  0.0892 -0.1295  0.0920
88573W        W89437  22.285  19.455  26.460 -0.0514  0.1968  0.1609
88574W        W89438  23.534   6.820  28.049 -0.0482 -0.2257  0.0017
88575W        W89439   6.203  26.506   4.252 -0.1620  0.0034  0.3012
88576W        W89440   9.505  10.553   7.148  0.1217 -0.4060  0.1309
88577W        W89441  17.575  16.441  23.277  0.2163  0.2269  0.0099
88578W        W89442   3.278  12.567   8.094  0.1340 -0.2982 -0.0296
88579W        W89443  21.014   9.761   2.460 -0.0568 -0.1890  0.0998
88580W        W89444  16.510  17.056  22.960  0.2074 -0.1694 -0.1164
88581W        W89445  20.286   1.807   9.387 -0.0564  0.0231 -0.0905
88582W        W89446  22.539   5.861   6.761 -0.2138 -0.2282  0.2447
88583W        W89447  27.654   2.191   9.736 -0.2370  0.0723  0.1722
88584W        W89448  28.011   6.535   1.951 -0.2408 -0.1419 -0.1196
88585W        W89449  22.729   3.031   6.469 -0.0259 -0.1110  0.0024
88586W        W89450   2.949   4.336   8.199  0.2381 -0.0905  0.1197
88587W        W89451  27.880   0.128  17.249 -0.0690  0.0812  0.1204
88588W        W89452   3.408  17.762  22.630 -0.0582  0.1951  0.2566
88589W        W89453   1.793   2.475  19.072  0.0341  0.2953 -0.1187
88590W        W89454  18.521  18.049  12.821 -0.1080  0.0251  0.0239
88591W        W89455  21.356  28.519  11.254  0.1078 -0.2924  0.0283
88592W        W89456  12.666  10.808  17.543 -0.0444  0.1217 -0.0496
88593W        W89457  25.579  11.553  22.781  0.1925 -0.1778  0.3943
88594W        W89458  20.987  20.438  23.501 -0.0903  0.3940 -0.0503
88595W        W89459  19.743  22.384  21.229 -0.0514  0.2510 -0.0172
88596W        W89460  14.016   4.298  19.436  0.1212  0.2100  0.3953
88597W        W89461  24.832  26.850  11.194  0.0121  0.0796 -0.0223
88598W        W89462  11.350  15.274  27.421  0.2420  0.0566  0.2095
88599W        W89463  16.786  22.404  23.537  0.0214 -0.1588 -0.3215
88600W        W89464  28.937  15.355  25.186 -0.0493  0.2754  0.0938
88601W        W89465  25.398  28.976   4.397 -0.0380 -0.0540  0.0941
88602W        W89466   7.033  23.823  22.711  0.2816 -0.0300 -0.1362
88603W        W89467   7.160  25.895  13.632  0.2264  0.3102 -0.1023
88604W        W89468  17.049  18.998  20.983 -0.4928 -0.0561  0.0140
88605W        W89469   1.454  13.865   3.450  0.0580  0.0017 -0.2702
88606W        W89470  26.678   3.238  10.814  0.0816  0.0812 -0.2493
88607W        W89471   6.265  11.785  24.925 -0.2889 -0.0763  0.1071
88608W        W89472  20.832  21.417  13.017 -0.0287 -0.1308 -0.0312
88609W        W89473  14.560  21.552   2.143  0.0002 -0.1770 -0.2315
88610W        W89474   0.317   9.452   7.903  0.2444  0.2457  0.0260
88611W        W89475   4.183  14.945  22.499  0.0954  0.2534 -0.2397
88612W        W89476  22.498  23.090  24.965 -0.0153 -0.0899  0.2476
88613W        W89477  21.958  21.974   2.784  0.0175 -0.1642  0.3985
88614W        W89478  18.522   4.257   2.194 -0.1254  0.0929 -0.3064
88615W        W89479   2.649  26.243   4.022 -0.0148  0.3517  0.1914
88616W        W89480   1.527  21.143   8.295 -0.1578 -0.1107  0.2855
88617W        W89481  19.249  27.890   6.954  0.1957 -0.0985  0.1999
88618W        W89482   6.129  28.843  26.193  0.1486  0.2140 -0.3149
88619W        W89483  23.751   5.699   0.371  0.1463  0.1019  0.2231
88620W        W89484  16.519  21.274   6.331  0.1313 -0.0889 -0.1577
88621W        W89485  11.274  18.867  26.067  0.2634 -0.1144 -0.0655
88622W        W89486   7.881   4.183   5.964  0.0424  0.1059  0.0818
88623W        W89487  21.902   1.103  11.460 -0.0014  0.3376  0.1280
88624W        W89488  17.076   7.381   6.971 -0.2133 -0.1566 -0.0926
88625W        W89489   4.173   7.852  21.775  0.0305  0.1585  0.0929
88626W        W89490  23.207  25.206  19.477 -0.2014 -0.1534  0.0069
88627W        W89491  26.064  15.325  20.058 -0.0437 -0.1212  0.3455
88628W        W89492  25.653   6.269   3.187  0.1630 -0.5409 -0.0136
88629W        W89493   4.717  22.238   3.661  0.1937  0.1933  0.0056
88630W        W89494  25.004   5.621  23.622 -0.1293 -0.3323 -0.0041
88631W        W89495  28.263   7.500  28.675  0.2890  0.0442 -0.1896
88632W        W89496   3.868   7.321  22.546 -0.1002 -0.0980 -0.0358
88633W        W89497  28.981   8.856   3.420  0.0549 -0.0713  0.0063
88634W        W89498  24.002  26.932  28.606 -0.0849 -0.1914  0.0337
88635W        W89499  11.477   5.056  18.026  0.2021  0.0596 -0.1101
88636W        W89500   8.827   7.059   7.159  0.1656  0.0074 -0.2066
88637W        W89501  24.701   2.760   2.549  0.0987  0.1282 -0.1174
88638W        W89502   0.960  11.901  26.565 -0.1520  0.1012 -0.2579
88639W        W89503   0.250   9.941   7.626 -0.1688  0.0733 -0.2529
88640W        W89504  11.369  18.396   4.605  0.0790  0.2705  0.0406
88641W        W89505  22.614  29.031  27.797  0.1001 -0.1210  0.0302
88642W        W89506   1.492   2.458   1.524 -0.0525  0.1185  0.1418
88643W        W89507  23.325  27.846  22.722  0.0661  0.2693 -0.0537
88644W        W89508   5.435  13.649  24.323 -0.1516 -0.2792 -0.2248
88645W        W89509  26.444  10.080   3.678  0.0228  0.2309  0.0977
88646W        W89510   5.803  10.534   3.402 -0.0443 -0.0209 -0.0771
88647W        W89511  12.498   3.728  26.269 -0.1900  0.1164 -0.0453
88648W        W89512  22.003   4.514   8.181 -0.5102  0.0719 -0.0164
88649W        W89513   8.384  27.256  10.201  0.0687  0.0643 -0.1955
88650W        W89514  26.775  13.390  24.390  0.0444  0.1724 -0.0111
88651W        W89515  28.717   1.095  26.935  0.0244 -0.0315 -0.3657
88652W        W89516   1.138  14.433  12.625  0.1032  0.0478 -0.1375
88653W        W89517   1.615   1.857  20.803  0.2332 -0.2678  0.0067
88654W        W89518  20.947   0.862  25.472  0.2438 -0.1381 -0.0949
88655W        W89519  19.903   1.124   0.971  0.0706  0.0121  0.0992
88656W        W89520   4.698  10.367   7.355 -0.1304 -0.1900  0.1702
88657W        W89521   1.014   9.556   0.431 -0.3784 -0.1600 -0.2660
88658W        W89522   5.384  24.389   7.952 -0.0916  0.4151  0.3113
88659W        W89523  23.242  26.544  29.021  0.0288  0.2099 -0.0895
88660W        W89524  24.219  25.558  21.067 -0.0518 -0.0340 -0.3615
88661W        W89525   1.967   8.316   7.848 -0.1640 -0.0614 -0.1128
88662W        W89526  25.156  24.398   5.512  0.0511  0.0241  0.0600
88663W        W89527  17.193   3.367   4.989 -0.1720  0.1820  0.1577
88664W        W89528   6.755  13.183  20.930 -0.1463  0.0129 -0.1512
88665W        W89529  11.190  28.815  17.560  0.2338  0.2780  0.0679
88666W        W89530   3.010   5.320   1.386 -0.0584  0.0055  0.1964
88667W        W89531  21.883   8.114   3.300  0.6118 -0.2031 -0.0119
88668W        W89532   2.741   2.635  19.156  0.1187  0.1893  0.2456
88669W        W89533  17.879  11.556   0.507  0.0197 -0.2093  0.0946
88670W        W89534  23.719   5.941  27.669 -0.2099  0.2374  0.0323
88671W        W89535  14.990   2.798  13.929 -0.2176  0.1185  0.0277
88672W        W89536   9.149  20.861  25.693  0.2164 -0.0050 -0.1407
88673W        W89537  28.733  18.205   5.658  0.1800 -0.1585  0.0772
88674W        W89538  26.539  26.965   0.305 -0.1536 -0.0506 -0.1195
88675W        W89539  22.874  19.824  19.151 -0.2931  0.0498 -0.2457
88676W        W89540  25.480   3.707   3.820 -0.0687 -0.5081 -0.1831
88677W        W89541  27.580  13.030  14.734 -0.1407  0.1762  0.2832
88678W        W89542   4.923   5.687   7.828  0.0845  0.0696  0.1477
88679W        W89543  12.823  22.584  15.589  0.0903  0.4258 -0.0525
88680W        W89544   0.223  20.483  13.415 -0.1075 -0.2143  0.1975
88681W        W89545  15.860   8.107  15.621 -0.2056  0.0007  0.0066
88682W        W89546  14.954  14.190   7.971  0.0647 -0.1454  0.0728
88683W        W89547  27.547   7.265  10.571  0.1843 -0.0217 -0.1282
88684W        W89548  10.507   9.400  24.939  0.0545 -0.2286  0.0598
88685W        W89549  26.991  14.060  24.667  0.0268  0.0926 -0.3844
88686W        W89550  18.075   3.255  28.677 -0.0013  0.2197 -0.0361
88687W        W89551  27.440   9.297   2.613  0.0566 -0.2088  0.3456
88688W        W89552  20.553   7.080   2.796  0.1709  0.2148 -0.3000
88689W        W89553  13.174  18.212   8.226  0.0171  0.2142 -0.0138
88690W        W89554  11.962  16.269  24.858  0.2299 -0.1422  0.1143
88691W        W89555   3.991  27.032   9.896  0.0627  0.2593 -0.2486
88692W        W89556  12.975   2.094   2.626 -0.3437  0.1621  0.0939
88693W        W89557  27.243  24.481  19.201  0.2871  0.5444 -0.0586
88694W        W89558   7.646  18.911  16.968 -0.0144 -0.4996  0.1586
88695W        W89559  25.885   5.363  25.255 -0.1724 -0.0984 -0.5596
88696W        W89560  25.211   6.331  15.535  0.3698 -0.1070 -0.1238
88697W        W89561  24.776  17.902   3.827 -0.1789  0.1615 -0.0018
88698W        W89562  24.417  24.201  10.860  0.4920  0.1454 -0.1203
88699W        W89563  25.484  25.678   7.734  0.0946  0.1794 -0.0012
88700W        W89564  19.428   4.174   2.725  0.1101  0.1368 -0.0513
88701W        W89565   5.776  10.131  27.066  0.2585 -0.1246 -0.1047
88702W        W89566  25.638  10.314  10.099  0.0368 -0.0791  0.0745
88703W        W89567   1.324   5.694   1.303 -0.1029 -0.0556 -0.0974
88704W        W89568  26.895   3.733  12.520  0.0447  0.3502 -0.0231
88705W        W89569   5.514  11.371  27.403 -0.0390  0.0754  0.2236
88706W        W89570  21.335   1.261   9.871  0.3450  0.1015 -0.1125
88707W        W89571   3.961   0.316   4.058  0.0539 -0.2606 -0.1316
88708W        W89572  18.942  13.255  25.797 -0.0849  0.1915  0.0057
88709W        W89573  22.400  10.211   1.084 -0.1339  0.0435  0.2569
88710W        W89574   0.926  16.578  20.910 -0.1244  0.0924 -0.0650
88711W        W89575  26.843  19.462   2.123  0.2284  0.3463  0.0059
88712W        W89576  10.915  22.494  17.095  0.1757  0.0524  0.0534
88713W        W89577  25.725   4.627   7.866  0.0163 -0.3450 -0.0592
88714W        W89578   6.224   6.626   9.561 -0.1567  0.0782 -0.0804
88715W        W89579   8.880  21.529  10.435 -0.2944 -0.1687  0.3142
88716W        W89580  23.086  17.802  25.100  0.1406 -0.1043 -0.2609
88717W        W89581   5.615  13.904  21.893  0.0459  0.1205 -0.2231
88718W        W89582  26.920  15.192  18.893  0.1173 -0.0100 -0.0018
88719W        W89583  12.662   1.407  27.591  0.0311  0.0426 -0.3117
88720W        W89584   3.335  24.631  14.161  0.2099 -0.1004 -0.1451
88721W        W89585   2.621  14.234  12.461  0.0001  0.0589 -0.2470
88722W        W89586  24.086  23.787  19.071  0.0703 -0.3061  0.3717
88723W        W89587  11.367  20.716   7.481  0.0076  0.2545 -0.2137
88724W        W89588   6.333   2.286  18.529 -0.0330  0.0631  0.3215
88725W        W89589  24.180  15.381   3.437  0.2504  0.1679  0.1669
88726W        W89590  17.066   9.499   2.029  0.0795 -0.0213 -0.1705
88727W        W89591   2.953  27.006   0.007 -0.1465  0.0427  0.0445
88728W        W89592  19.007   6.724  23.788 -0.0305 -0.0937 -0.3332
88729W        W89593  22.053   4.637  20.476  0.2273 -0.1542  0.0464
88730W        W89594  29.035  10.622   4.694 -0.3353  0.3668  0.0421
88731W        W89595  22.453  19.787   2.002  0.1073  0.1707  0.0199
88732W        W89596  25.785   4.217   6.931  0.0804 -0.0109  0.0816
88733W        W89597   4.892  15.855   7.118  0.0684  0.0742 -0.1357
88734W        W89598  17.083   3.329   9.230  0.2268 -0.1052  0.0182
88735W        W89599   4.370  14.848  26.192  0.3461  0.2955  0.1690
88736W        W89600  24.147  28.950  12.227 -0.2431  0.0285  0.3874
88737W        W89601  27.458   9.783  18.330 -0.1473  0.1569  0.1975
88738W        W89602  28.188  19.422   6.570  0.0588  0.1378  0.0016
88739W        W89603   1.553  11.734  13.847 -0.0092  0.2827  0.1535
88740W        W89604  23.134   9.772   5.222  0.0891 -0.1083 -0.0963
88741W        W89605   0.027  15.957   8.431 -0.2013  0.1454 -0.1090
88742W        W89606  14.203  28.057   1.628 -0.3602 -0.2659 -0.3581
88743W        W89607   8.612  19.335  18.040 -0.2083  0.0338  0.1222
88744W        W89608  14.078  22.629   7.852 -0.0768 -0.0422 -0.0739
88745W        W89609  27.826   4.789  28.641  0.1971 -0.1051  0.3411
88746W        W89610  16.551   1.008  19.196 -0.0900  0.0576 -0.2181
88747W        W89611   6.694  24.872  27.157  0.2938  0.1085  0.2933
88748W        W89612  18.644  10.496  21.911  0.2102  0.1873 -0.0684
88749W        W89613  16.236  20.204  25.957 -0.0290 -0.2840  0.2201
88750W        W89614   0.231   5.481   2.999 -0.0501  0.3094  0.1384
88751W        W89615  23.167  12.810  10.675  0.2646  0.2637  0.0628
88752W        W89616  27.404   7.173  26.198  0.1113  0.2435  0.0223
88753W        W89617  20.025   9.228   8.623 -0.0859 -0.0403 -0.2596
88754W        W89618  11.561   1.675  10.530 -0.0055  0.0027  0.1309
88755W        W89619  11.711   6.704  13.724  0.0453 -0.1323  0.0358
88756W        W89620  10.123  27.829  23.343 -0.1987  0.1448 -0.1055
88757W        W89621  22.033  16.448  27.877  0.0706  0.1060  0.3345
88758W        W89622   2.648   8.257  12.854  0.1080  0.1830  0.2350
88759W        W89623  24.359  11.017  26.453 -0.3025 -0.4576 -0.3496
88760W        W89624   4.532   9.834  17.014  0.0619 -0.0868  0.1840
88761W        W89625   1.035   9.981   8.401 -0.0584  0.0030  0.0187
88762W        W89626   3.678   7.105   2.909  0.0125 -0.3437 -0.0025
88763W        W89627  12.511  18.201  24.525 -0.0303  0.2642 -0.1418
88764W        W89628   3.538   0.351   9.200 -0.4183 -0.0077  0.2969
88765W        W89629  19.221   8.966   9.261 -0.2306 -0.2493  0.0699
88766W        W89630  18.134  27.057  12.976  0.1064  0.2129 -0.0788
88767W        W89631  22.919  23.940   1.647  0.1344 -0.1597  0.3350
88768W        W89632   9.986  13.797  15.483 -0.0070  0.0292 -0.1348
88769W        W89633  28.669   0.393  23.021 -0.0458  0.1898 -0.3590
88770W        W89634  24.698  14.982  15.427 -0.1459 -0.0028  0.2266
88771W        W89635   5.025  13.828  27.798 -0.1676  0.0194  0.0604
88772W        W89636   5.023  10.168  18.035 -0.1086  0.2110 -0.2459
88773W        W89637  16.586  15.045  17.979 -0.0176 -0.0404 -0.3259
88774W        W89638   6.763   7.071   3.043  0.3707  0.2477  0.2924
88775W        W89639  20.713  13.582  20.330 -0.0843 -0.0292 -0.0839
88776W        W89640   1.778  27.195  15.014 -0.0531 -0.0473 -0.0880
88777W        W89641  28.060  26.064  21.235  0.0865  0.0168  0.1274
88778W        W89642   4.029   8.652  26.334 -0.0570 -0.2221  0.0770
88779W        W89643   3.324   8.015   6.345 -0.1610 -0.0375  0.0674
88780W        W89644  22.986  15.925  28.700  0.0753  0.1679  0.1344
88781W        W89645  23.399  10.253  21.898 -0.0277  0.0880  0.0106
88782W        W89646  26.000  11.323   2.586 -0.2371 -0.3696 -0.0002
88783W        W89647  26.914  12.083  25.107  0.2078 -0.3512 -0.0852
88784W        W89648   6.072  22.851   6.982  0.0214 -0.1327 -0.2187
88785W        W89649   0.855  22.861  11.044  0.3843 -0.1757 -0.3716
88786W        W89650  17.257  11.072   6.640  0.0800  0.1946  0.0768
88787W        W89651  16.747   9.869  22.540 -0.2005  0.1844  0.2438
88788W        W89652   6.966  22.789  19.772  0.2424  0.1548 -0.0818
88789W        W89653  21.490  20.611  17.092 -0.1359 -0.3139  0.2548
88790W        W89654   4.845  20.982   1.788  0.0854  0.1262  0.0374
88791W        W89655  18.482  21.610  24.649 -0.0571  0.0325  0.0950
88792W        W89656   6.870  11.649  18.803 -0.2028 -0.0459  0.0238
88793W        W89657  19.391  10.300  26.907 -0.0605 -0.5701  0.1488
88794W        W89658  19.157  12.569  17.774 -0.1542  0.1473 -0.0706
88795W        W89659   0.626   4.810   8.244 -0.0231  0.2212 -0.1459
88796W        W89660   1.371  13.748  26.061  0.1300  0.0797 -0.0056
88797W        W89661  22.116  11.666   6.005  0.2953  0.1987 -0.1105
88798W        W89662  17.748  10.577   4.330 -0.1180  0.0970 -0.1026
88799W        W89663   1.683   7.044   7.944  0.3477  0.1747 -0.1180
88800W        W89664   0.068  28.229   8.688 -0.0680 -0.1217  0.3416
88801W        W89665  20.658  28.253   0.779 -0.2447  0.1592 -0.2978
88802W        W89666  17.858  24.948  11.702  0.2765  0.0498 -0.0240
88803W        W89667  13.934  18.131   0.054  0.1416 -0.0790  0.0587
88804W        W89668  15.697  15.475   4.759 -0.1229  0.0461 -0.0549
88805W        W89669   6.733  15.637  27.772 -0.3358 -0.3153  0.0412
88806W        W89670   2.252  12.147  23.020 -0.1497 -0.0517  0.1080
88807W        W89671  26.274  17.387  24.051 -0.0716  0.0205  0.1193
88808W        W89672  28.382  22.899  16.783  0.3688  0.1869 -0.1547
88809W        W89673   5.511  17.345   6.353 -0.2782  0.0064 -0.1206
88810W        W89674  22.413  14.075   5.514  0.0283  0.3642  0.0265
88811W        W89675  28.616  12.728  24.862  0.1425  0.3408  0.1167
88812W        W89676  25.778  26.286  24.023 -0.0457  0.1752 -0.1466
88813W        W89677  10.644  12.324  14.640  0.1008 -0.0965  0.2207
88814W        W89678  20.842  15.632   6.063 -0.0279  0.0692  0.1601
88815W        W89679  25.117  10.732  15.783  0.0183  0.0949  0.2877
88816W        W89680   1.256  13.809  22.740  0.0025 -0.1338 -0.2935
88817W        W89681   5.052  10.747   2.715  0.0005  0.0257 -0.1410
88818W        W89682   2.314  16.024   0.233  0.0891  0.1953  0.1582
88819W        W89683   7.709   9.324  29.128 -0.2029  0.1209 -0.0022
88820W        W89684   8.019  28.382   0.410 -0.0157  0.4163 -0.0073
88821W        W89685   8.784  18.793  27.167 -0.1186 -0.1393  0.2824
88822W        W89686  11.955   1.247  14.146  0.1927  0.0573  0.1710
88823W        W89687  10.745   5.704   0.435  0.0758 -0.0123  0.1709
88824W        W89688   3.330  12.176  27.648 -0.2452  0.1061 -0.2605
88825W        W89689  25.826  27.922  23.165 -0.0129 -0.0322  0.2718
88826W        W89690  26.860  10.465  17.221  0.0733  0.0540 -0.1122
88827W        W89691  23.335   9.854  12.119 -0.1285  0.0745 -0.1870
88828W        W89692   9.752  20.280  25.283 -0.1127  0.1165  0.1486
88829W        W89693   0.996   8.818   9.792  0.0046  0.1421 -0.3268
88830W        W89694   4.530  11.788  28.535 -0.1912  0.1505 -0.2954
88831W        W89695   9.748  13.876  24.570 -0.0152  0.2752  0.2025
88832W        W89696  15.181   9.968  23.896  0.0771  0.0926  0.0879
88833W        W89697   3.761  10.971  20.745 -0.1179 -0.1595  0.0703
88834W        W89698   3.738  25.670  17.478  0.3425  0.0122  0.1691
88835W        W89699   0.992  11.744  27.378  0.5143 -0.0538  0.1233
88836W        W89700   0.055   7.407   2.945 -0.3171 -0.2209  0.1280
88837W        W89701  17.303  19.448  12.409 -0.0309  0.2288 -0.1463
88838W        W89702  12.654  20.998  28.688  0.1570  0.0932  0.1626
88839W        W89703  25.907  26.223   2.143  0.0188  0.2863  0.1118
88840W        W89704  26.607  12.908   7.155  0.2074 -0.1982 -0.0694
88841W        W89705  13.385  15.207  26.310 -0.4519  0.3904  0.2907
88842W        W89706  24.722  19.649   0.225  0.5060 -0.0842 -0.0725
88843W        W89707   3.787   3.691  26.793  0.3727  0.1072 -0.2320
88844W        W89708  19.760   5.901  13.929  0.0604 -0.2450  0.2902
88845W        W89709   3.570  10.572   3.009  0.2651 -0.2606  0.1212
88846W        W89710  25.769   4.436  11.881 -0.0884  0.1219 -0.3283
88847W        W89711   6.861  26.326  16.631 -0.4501  0.1209 -0.2019
88848W        W89712  17.743  17.098  12.300  0.1172 -0.0025  0.0338
88849W        W89713  27.982   8.725   0.930  0.1907 -0.3917 -0.2160
88850W        W89714   1.233   9.377  22.426  0.2308  0.2048  0.1665
88851W        W89715  23.268   8.105  13.984 -0.1661 -0.1000  0.2001
88852W        W89716  22.481   2.771   7.654 -0.0113 -0.3887 -0.1912
88853W        W89717   1.998   4.213   7.492  0.2712  0.1988  0.1136
88854W        W89718   3.495  24.734  10.266 -0.1028  0.1128  0.1588
88855W        W89719   2.844  10.318  22.093  0.3563  0.3283 -0.3530
88856W        W89720  17.938   4.624  18.740 -0.3613  0.0404  0.1111
88857W        W89721  11.902   7.926  26.140  0.0070 -0.0334 -0.3370
88858W        W89722   4.694  20.494   5.092  0.0591  0.1550 -0.1608
88859W        W89723  20.597  10.649  28.496  0.2926  0.0268 -0.0782
88860W        W89724   5.693   8.129   0.862  0.0828  0.0732 -0.1148
88861W        W89725   8.975  21.780  18.680  0.1691 -0.0628 -0.1820
88862W        W89726   2.254  21.900   7.111 -0.5115  0.1849 -0.1841
88863W        W89727  19.957   3.871   1.381  0.2997 -0.1891  0.1148
88864W        W89728   3.181  24.324   8.605  0.0526  0.3166 -0.0383
88865W        W89729   6.700   3.330  28.237  0.0301  0.2064  0.2685
88866W        W89730  20.599  18.010  25.894  0.0622  0.3608 -0.1672
88867W        W89731   4.520   4.233   7.199 -0.1554  0.1735 -0.1421
88868W        W89732  10.189  28.870  18.382 -0.0736  0.3960  0.3007
88869W        W89733   2.126  13.360  10.961 -0.2647 -0.1366  0.4333
88870W        W89734  11.183   6.321   4.966 -0.1380 -0.2821 -0.3451
88871W        W89735  23.749  18.431   4.836 -0.2556 -0.1053  0.1384
88872W        W89736   5.520  16.513   1.148  0.2975  0.0647 -0.0806
88873W        W89737  16.834   7.618  10.955 -0.1087  0.1335  0.0459
88874W        W89738  27.825  13.315   8.225 -0.0743  0.0988 -0.1919
88875W        W89739   3.430  14.903  22.109  0.2760  0.0256 -0.1412
88876W        W89740   6.905  13.761  14.351 -0.0761 -0.1004  0.3272
88877W        W89741  27.841  18.952  27.720  0.1210 -0.2271 -0.1872
88878W        W89742  26.778  25.375   9.020 -0.0919 -0.0600  0.0977
88879W        W89743   2.207  21.398  28.489  0.1590  0.1677  0.0664
88880W        W89744  21.330   9.363  21.873 -0.2347  0.1186  0.0324
88881W        W89745  15.184  25.932  28.902  0.1637 -0.0980 -0.3747
88882W        W89746   2.122  12.630   1.527 -0.2768  0.2955  0.0205
88883W        W89747   2.703   6.634   3.381 -0.1213  0.0295  0.0696
88884W        W89748  15.721  12.486  11.392 -0.0556 -0.2129 -0.3839
88885W        W89749  21.721  18.298   6.919  0.0248 -0.1317 -0.1472
88886W        W89750  28.319  27.651  26.633 -0.2190  0.1642 -0.3968
88887W        W89751  27.965   3.955   2.648 -0.0735 -0.0132  0.3668
88888W        W89752  23.814  16.602   6.872  0.0126  0.1373 -0.0297
88889W        W89753   7.041  14.921   6.082  0.0669 -0.0134  0.1264
88890W        W89754   4.739  18.575   8.072  0.1777 -0.1350  0.2410
88891W        W89755   5.581   4.929  13.021 -0.0277 -0.4920 -0.0088
88892W        W89756  11.818  19.386   5.386  0.1738 -0.1383 -0.2934
88893W        W89757   1.552  23.183  23.263  0.1626 -0.1546  0.0625
88894W        W89758  20.505   3.565   0.968  0.1093  0.0074 -0.1172
88895W        W89759  21.002   5.561  26.225 -0.0486 -0.0788 -0.0034
88896W        W89760   2.938  11.494  24.289  0.4881 -0.1335  0.1162
88897W        W89761  25.860   3.031   5.097  0.0179 -0.2265  0.4781
88898W        W89762  27.266  13.536   3.838 -0.0308  0.1467 -0.2335
88899W        W89763  21.249  23.972   3.957  0.2621 -0.1655  0.2758
88900W        W89764   8.043  17.701  13.940  0.3729  0.1286 -0.1838
88901W        W89765  13.731  13.983  22.425  0.0787 -0.1552 -0.0121
88902W        W89766  28.635   0.795  19.021  0.0529  0.0568  0.0618
88903W        W89767  15.252  13.983  21.786  0.1076 -0.1290 -0.1435
88904W        W89768  29.130  11.556  15.617 -0.3833 -0.1057 -0.1105
88905W        W89769  23.872  15.541  23.570  0.1773 -0.1910  0.0203
88906W        W89770  15.841   0.825  25.640 -0.0285  0.2148 -0.2866
88907W        W89771   4.567  26.316   7.081  0.3878  0.1459  0.1724
88908W        W89772  27.273   3.363  23.653  0.1709 -0.0014 -0.1396
88909W        W89773   1.872   5.334  15.936  0.1896 -0.4150  0.1081
88910W        W89774   8.616  17.519   7.523 -0.2183  0.1005 -0.2455
88911W        W89775   0.760   1.032  13.566  0.3227 -0.0370  0.1260
88912W        W89776   1.429  20.621   1.229 -0.0770  0.2366 -0.0668
88913W        W89777  28.002   4.584   7.048 -0.0997  0.1311 -0.1443
88914W        W89778   0.474   8.499  28.357  0.3255 -0.2335 -0.0660
88915W        W89779  18.137  15.478  27.027 -0.1225 -0.0951 -0.1714
88916W        W89780  24.844  22.731  13.434 -0.0396  0.2941 -0.2612
88917W        W89781  14.975  18.097   6.923 -0.2514 -0.0144 -0.1547
88918W        W89782  10.969  27.182  14.434 -0.1237 -0.0563  0.2415
88919W        W89783  26.746  20.073  14.912  0.0769  0.2396  0.0987
88920W        W89784  22.311   4.523  27.634 -0.1588 -0.0066 -0.0455
88921W        W89785   8.550  15.894  14.564  0.1155  0.1840 -0.6229
88922W        W89786   8.858  27.678   8.433 -0.1344 -0.0875  0.1972
88923W        W89787  10.818  29.084  13.214 -0.3475 -0.2346  0.1512
88924W        W89788  28.131  13.941  27.815 -0.1565 -0.1534 -0.0067
88925W        W89789  24.479  19.976   1.694 -0.0979  0.2564  0.2572
88926W        W89790  20.995  23.032   3.604 -0.0228 -0.2154  0.0515
88927W        W89791  24.210  21.593  13.270  0.4287  0.1341  0.1208
88928W        W89792  15.062  25.368   2.038 -0.3215 -0.0259 -0.2446
88929W        W89793  15.486   6.071   6.675  0.1485 -0.1795  0.0775
88930W        W89794  26.061  15.949  25.526 -0.0390  0.4292 -0.0167
88931W        W89795  28.883  28.229  26.075 -0.2536 -0.0951 -0.0739
88932W        W89796  23.414  24.083  14.563 -0.1218  0.0138 -0.1491
88933W        W89797  12.415  21.651   5.748 -0.0942 -0.1340  0.0846
88934W        W89798  19.468  20.771  14.560  0.2151  0.1748  0.0178
88935W        W89799   4.471  11.167  14.716 -0.0586  0.1890  0.0055
88936W        W89800  17.504  22.982   5.539 -0.0314  0.2947 -0.0872
88937W        W89801  27.811  16.149  14.554  0.3544  0.2982 -0.2178
88938W        W89802   6.427  22.683   4.175 -0.0920  0.0236 -0.1280
88939W        W89803  11.084   8.016   9.806 -0.0680 -0.1559  0.2384
88940W        W89804   0.440  21.661  20.369 -0.3499  0.2726  0.0581
88941W        W89805   7.739   9.231  16.363  0.0299  0.2093 -0.0439
88942W        W89806   6.350  26.193  15.760  0.2027  0.1342  0.0969
88943W        W89807   2.569  12.175   3.888 -0.0842 -0.0789 -0.0412
88944W        W89808  17.210  24.540   2.199  0.2108  0.0678  0.1406
88945W        W89809   6.462   5.283  13.780 -0.2402  0.4859  0.2520
88946W        W89810  21.623   8.215  20.133  0.2263 -0.0816  0.3310
88947W        W89811  22.340  25.290  14.524 -0.1061  0.0957  0.0262
88948W        W89812   7.136  28.634  16.497 -0.2525 -0.0311 -0.1417
88949W        W89813  21.852  17.981   2.212  0.1039  0.1837  0.2659
88950W        W89814  18.126  18.765  16.625 -0.1561 -0.1908  0.0192
88951W        W89815  18.453  12.919   5.951 -0.1351 -0.2202 -0.1626
88952W        W89816  24.460   7.450   3.563  0.1784 -0.0930  0.0384
88953W        W89817  26.736  16.420   7.704  0.1342 -0.0878 -0.0465
88954W        W89818  28.526   0.975  20.946  0.0546  0.0470 -0.2241
88955W        W89819  11.615  15.222  16.762 -0.0812  0.4678 -0.2784
88956W        W89820   5.109  24.297   3.718  0.1665  0.4593 -0.0194
88957W        W89821  11.930  22.464  22.775 -0.0634  0.0792 -0.2893
88958W        W89822  26.155   9.002   9.818  0.1590 -0.1229  0.1136
88959W        W89823   5.726  17.249   2.536 -0.1282  0.0834  0.1530
88960W        W89824   6.513  28.709  28.414  0.0574 -0.0574 -0.0106
88961W        W89825  18.273  21.440   3.384 -0.4148 -0.0124  0.0871
88962W        W89826   8.147   5.956   3.597 -0.0047 -0.0804  0.0862
88963W        W89827  15.943   4.579  16.536  0.0646  0.0447  0.2905
88964W        W89828  10.223   6.741   0.711  0.2096 -0.1086  0.2038
88965W        W89829   9.829  13.715  28.116 -0.1494  0.1045 -0.0238
88966W        W89830  27.358  25.850  17.664  0.3978 -0.1200  0.3562
88967W        W89831  25.178  18.515  29.142  0.0534  0.2765  0.1286
88968W        W89832   2.463  27.429  14.393  0.2712  0.1500  0.0404
88969W        W89833   4.882   2.259  16.060  0.1706  0.2379 -0.2451
88970W        W89834  26.385   3.608   4.809  0.2061 -0.0027 -0.2204
88971W        W89835   2.380   9.143  19.226  0.2599 -0.0060  0.0495
88972W        W89836  28.719  25.515   5.963 -0.3226 -0.0382  0.2997
88973W        W89837  16.804  26.470  26.861  0.2701  0.3791 -0.0729
88974W        W89838  25.996   0.637  25.434  0.0134  0.0189  0.2521
88975W        W89839   7.440  20.065  18.510 -0.0057  0.2052  0.1715
88976W        W89840   0.189  20.492  22.995 -0.1623  0.2417 -0.0535
88977W        W89841  26.835  11.263  12.683  0.2374  0.1668 -0.0169
88978W        W89842   0.375  14.062   3.585  0.3228 -0.1038 -0.2344
88979W        W89843  22.253  28.677  15.657  0.4067  0.3864 -0.0624
88980W        W89844   7.861  14.229  18.001 -0.0618  0.0621 -0.0746
88981W        W89845   1.387   3.842  15.535 -0.1706  0.0572 -0.0015
88982W        W89846   8.066  18.560  28.881  0.3364  0.0480 -0.3378
88983W        W89847   2.285  10.262  23.895  0.0933 -0.2128 -0.2391
88984W        W89848  18.898  16.235   6.678 -0.0585 -0.0294  0.3408
88985W        W89849   4.160   6.268  23.754  0.4316  0.2929 -0.0164
88986W        W89850  26.955  22.753  15.118 -0.0217 -0.3384 -0.0906
88987W        W89851  21.915  14.691  18.635  0.0351 -0.2297  0.3013
88988W        W89852  14.447  28.453  26.312 -0.0276 -0.0739  0.0157
88989W        W89853   8.203   0.167  20.343 -0.1789 -0.2940 -0.1419
88990W        W89854  29.034  23.806   8.131 -0.1648 -0.1826  0.0326
88991W        W89855  28.065  18.750  12.215 -0.1182  0.0888  0.0678
88992W        W89856  11.346  18.675  11.096 -0.1896  0.1930 -0.0162
88993W        W89857   2.136  19.944  28.172 -0.3664  0.5292 -0.2207
88994W        W89858   6.355  28.381   7.706 -0.0413 -0.1342 -0.5012
88995W        W89859  15.841  11.170  24.659 -0.2616  0.1629 -0.0327
88996W        W89860  21.592  26.598   2.944 -0.0953 -0.2927 -0.0198
88997W        W89861   0.796  12.988   1.122  0.0354  0.0875 -0.2192
88998W        W89862   2.341  20.722   6.826  0.1485 -0.1713  0.1944
88999W        W89863  12.051  16.205  21.025 -0.4080  0.0494 -0.0351
89000W        W89864  22.981   3.425   9.857 -0.2322  0.1560 -0.0224
89001W        W89865   2.355   5.937   6.567  0.0445 -0.1000 -0.0018
89002W        W89866  23.631  14.190  25.094  0.1425  0.0579 -0.2849
89003W        W89867  26.532  24.224  15.364  0.0454  0.2479  0.3254
89004W        W89868  16.424  11.267   7.374  0.0447 -0.2014  0.1832
89005W        W89869   1.389   2.592  26.702 -0.1148  0.0923  0.1452
89006W        W89870  20.490  14.127   0.043  0.0459 -0.1206 -0.1354
89007W        W89871  25.728   0.992   3.502 -0.0851 -0.3046 -0.1607
89008W        W89872   9.095   5.123  11.957  0.0359 -0.0540 -0.0495
89009W        W89873  24.458  21.931   2.343  0.1809 -0.0526  0.1240
89010W        W89874  21.373  11.313   7.094  0.0763 -0.1009 -0.1000
89011W        W89875  23.070  13.698   0.994 -0.0675 -0.1135  0.0994
89012W        W89876  11.856  26.098   2.740  0.1447 -0.1658  0.1737
89013W        W89877  20.308   8.265  18.444  0.0904  0.0374 -0.1541
89014W        W89878   3.838  21.166   6.988 -0.2844  0.2613 -0.1161
89015W        W89879  23.519  14.172  25.944 -0.0719 -0.0036  0.1866
89016W        W89880   6.800  20.351  23.589 -0.0045 -0.0400 -0.3593
89017W        W89881  11.376  25.725   3.600 -0.2396 -0.0677 -0.1110
89018W        W89882  24.712  24.752   5.471  0.0089 -0.3042  0.0872
89019W        W89883  17.228   4.470  28.584  0.2616 -0.1832 -0.1196
89020W        W89884  28.631  28.605  20.122  0.3784  0.0083 -0.2388
89021W        W89885   1.447  19.914  19.638  0.3516 -0.0886  0.1338
89022W        W89886  27.710  12.572  23.604 -0.0221  0.1671  0.0993
89023W        W89887  19.899   6.850   6.065  0.2308 -0.0997  0.3371
89024W        W89888   5.502  15.485  12.627 -0.1031  0.3041  0.0736
89025W        W89889  21.916  11.223   6.594 -0.2817  0.2570 -0.1453
89026W        W89890  22.369  17.298  16.479 -0.0808  0.2358 -0.2178
89027W        W89891  23.685  20.018   4.632  0.1164  0.2598 -0.1450
89028W        W89892   5.622  15.185  28.617  0.2985 -0.0619 -0.2765
89029W        W89893   5.208   3.236  24.282  0.0639  0.2882 -0.0306
89030W        W89894  24.826  18.875  12.497 -0.0142 -0.0524  0.1281
89031W        W89895  14.224  12.133  11.974  0.1671  0.0635 -0.0984
89032W        W89896   4.566  20.340  19.989 -0.0116 -0.0682 -0.1941
89033W        W89897  10.775  22.111   4.648  0.2553 -0.2625 -0.1605
89034W        W89898   9.155  25.377  27.369 -0.1168  0.1918 -0.2485
89035W        W89899  16.315  14.110  19.194 -0.1636  0.0160 -0.0909
89036W        W89900   3.957   3.442   2.487 -0.0083  0.2086 -0.0359
89037W        W89901   6.251  20.721  25.826  0.1952  0.1498 -0.0403
89038W        W89902   3.940  21.383   9.572 -0.2030 -0.0298  0.2490
89039W        W89903  16.434  20.136  20.703 -0.1229  0.0217 -0.1641
89040W        W89904  28.634   4.192  14.615 -0.2678 -0.0340 -0.3350
89041W        W89905  23.965   8.957  21.705  0.1966 -0.1053 -0.1556
89042W        W89906   6.373  23.675   4.959 -0.0012  0.4232  0.1161
89043W        W89907  10.748  21.192  16.785 -0.0461 -0.2241 -0.0778
89044W        W89908   9.619   0.286   0.311  0.1473  0.0797 -0.0063
89045W        W89909   3.508   5.562   4.538  0.0158  0.2285  0.0747
89046W        W89910  23.977   1.879  12.695 -0.2459  0.0345  0.2054
89047W        W89911  27.096  27.481  24.571  0.0620 -0.2303  0.0132
89048W        W89912   5.578  28.446  28.170 -0.1037  0.1247  0.0824
89049W        W89913  16.408  10.628   2.484 -0.2363 -0.0838  0.1096
89050W        W89914  23.078   0.467  27.641  0.0806  0.0641 -0.0598
89051W        W89915  23.587  22.195  20.000 -0.3222  0.0980  0.0406
89052W        W89916  17.000  18.793  27.890 -0.1168  0.0957  0.1082
89053W        W89917  10.976  11.981   8.482 -0.0239 -0.1037 -0.1314
89054W        W89918  22.401  25.006   5.629  0.1635 -0.0731 -0.2515
89055W        W89919   8.233  14.721   2.180  0.0703 -0.1944  0.2582
89056W        W89920  15.085   7.032   2.537  0.3008 -0.1147 -0.0515
89057W        W89921   2.624   1.528  26.505  0.1238 -0.0210 -0.3713
89058W        W89922   4.616   9.721   5.149 -0.1510  0.1813 -0.0755
89059W        W89923  10.453  13.111   0.418  0.2080 -0.3056 -0.0890
89060W        W89924  12.876  24.523   3.910 -0.1047  0.2968  0.2427
89061W        W89925  26.777   4.570  14.283  0.0164 -0.1101  0.0408
89062W        W89926   0.077  17.215   9.522  0.1914  0.1656 -0.0002
89063W        W89927  15.686   0.978   9.821  0.0349 -0.1645  0.1682
89064W        W89928   7.648  10.670  28.546 -0.1684 -0.1320  0.0736
89065W        W89929   1.145  12.728  26.396 -0.0312  0.3115  0.2176
89066W        W89930   3.001  19.096   6.004 -0.0691 -0.1515 -0.0242
89067W        W89931  28.703  21.075   5.686  0.0599 -0.0038  0.0191
89068W        W89932  18.487   8.449  22.476 -0.1579  0.0603  0.0216
89069W        W89933   4.183   6.445   6.560  0.2841 -0.2121 -0.1265
89070W        W89934  20.204  23.294  20.020  0.1352 -0.0360  0.3316
89071W        W89935   0.128   4.717  24.848  0.1901  0.0747  0.1981
89072W        W89936  27.049  14.581   5.988 -0.2525 -0.1310  0.0660
89073W        W89937  27.837  14.373  28.793 -0.1307 -0.0627  0.2591
89074W        W89938  23.513   6.295  27.316 -0.3874  0.1716 -0.2857
89075W        W89939  23.201  25.923   2.187 -0.0508  0.1682 -0.1975
89076W        W89940  25.478   0.772   6.511 -0.0098 -0.0756 -0.0172
89077W        W89941   8.503   8.512   8.115  0.2156  0.0927  0.1630
89078W        W89942   6.686   1.750  27.340  0.0089  0.1092  0.0278
89079W        W89943   6.242   1.194  23.910  0.0222  0.2097 -0.0017
89080W        W89944  15.773  26.374   4.669 -0.0916  0.0705  0.0380
89081W        W89945  13.009  12.406  14.067  0.0600 -0.1806 -0.2260
89082W        W89946  20.765   8.699  15.676 -0.1335  0.3278 -0.1266
89083W        W89947  21.208  18.050   9.097  0.3648  0.0670  0.0312
89084W        W89948  17.473   6.040   4.207  0.2441 -0.1543  0.0206
89085W        W89949   6.524  17.679  27.299  0.1064  0.3921 -0.0678
89086W        W89950  25.361  26.256   1.512 -0.0578  0.0641  0.1889
89087W        W89951  10.422  14.027   8.590 -0.2223  0.1498  0.0391
89088W        W89952   3.273   8.523   6.275 -0.0118 -0.1699 -0.0003
89089W        W89953  10.117  20.865  22.116 -0.1385 -0.0767  0.1342
89090W        W89954  23.229   7.311  14.793 -0.1917  0.2438  0.1066
89091W        W89955  20.750  11.649   5.312  0.0922  0.3624 -0.1810
89092W        W89956   7.271   1.598   3.051  0.1870  0.0434 -0.0260
89093W        W89957  10.337   7.615  15.992 -0.0104  0.0041  0.1061
89094W        W89958  23.041   3.588  17.552 -0.0348 -0.1699  0.1301
89095W        W89959  17.409  26.360  27.689 -0.2985  0.2170 -0.0535
89096W        W89960  18.150  14.438  12.646 -0.0113  0.3912  0.1580
89097W        W89961   3.685  24.250  12.713 -0.0878 -0.1444  0.2129
89098W        W89962  16.995  26.231   0.385 -0.0440 -0.0285 -0.0750
89099W        W89963  18.412  15.257   1.402  0.3245 -0.2505 -0.2745
89100W        W89964  23.101  16.018  10.546 -0.0168 -0.1265  0.1605
89101W        W89965  25.917  10.338   2.432 -0.0371  0.0039 -0.1432
89102W        W89966  22.706  19.898  21.979 -0.1557 -0.2238  0.0502
89103W        W89967   6.084   1.472  26.578 -0.5575 -0.0876 -0.1078
89104W        W89968  16.751  25.224   0.189  0.1163  0.0950 -0.3327
89105W        W89969   2.282  25.418  28.174 -0.2964  0.0543 -0.1722
89106W        W89970   6.475  24.426  25.261  0.2472  0.0406 -0.3822
89107W        W89971   7.820  17.465   1.727 -0.0879  0.0859  0.0573
89108W        W89972   8.277  10.900  29.032 -0.2142 -0.0260  0.0153
89109W        W89973   4.962   8.905   2.225  0.0199 -0.0945 -0.0205
89110W        W89974   5.902  27.305  12.043 -0.2206 -0.5512  0.1578
89111W        W89975   0.982   6.165  28.927  0.2691 -0.2351 -0.2055
89112W        W89976  26.116  16.162  26.092 -0.1793 -0.0223 -0.0107
89113W        W89977  15.633   3.103  12.056 -0.0266  0.0434 -0.1343
89114W        W89978  26.753   5.660  14.305  0.2459  0.0220 -0.0765
89115W        W89979  22.087  22.883  12.140 -0.2437  0.1225  0.1239
89116W        W89980  16.111   3.483  12.809  0.1182 -0.0149 -0.0821
89117W        W89981  11.658  19.356   7.497  0.1090 -0.0998  0.1357
89118W        W89982  21.334  12.271  28.220 -0.2230  0.1481  0.1152
89119W        W89983  25.817  23.145  19.086 -0.1641 -0.0114 -0.1510
89120W        W89984   0.281  20.037   6.868  0.0533  0.0756  0.0586
89121W        W89985  19.388   9.184  22.146 -0.0655  0.2241  0.1597
89122W        W89986  26.092   7.286  16.852 -0.0210  0.0755 -0.3959
89123W        W89987   0.095   8.841  15.910  0.0279  0.2007 -0.0163
89124W        W89988   7.312  14.061   2.810  0.0667  0.1644  0.2794
89125W        W89989  20.391  10.639  20.684  0.0318 -0.3296  0.1097
89126W        W89990   3.036   9.986  17.527  0.0110 -0.0822  0.1537
89127W        W89991   2.953  15.894   1.174 -0.2376 -0.0502  0.3182
89128W        W89992   6.686   2.941  13.734 -0.1552 -0.0300 -0.0600
89129W        W89993  14.596   8.831   2.231 -0.1093 -0.0664  0.0671
89130W        W89994  20.537  26.568   5.086 -0.1004 -0.0946 -0.0750
89131W        W89995  10.608  11.507   5.280  0.0084  0.0001  0.0511
89132W        W89996  13.468  14.468   0.870 -0.1931  0.1397 -0.0115
89133W        W89997   7.722   8.297   6.486 -0.3244 -0.1258 -0.2503
89134W        W89998  26.864   7.726  28.426 -0.1030  0.0952 -0.2230
89135W        W89999  24.280  17.412  25.522  0.0109 -0.3743  0.3215
89136W        W90000  10.845  17.317   5.354 -0.2600 -0.2115  0.0421
89137W        W90001  24.146  12.529  14.693  0.3030  0.0592 -0.0574
89138W        W90002  27.846  17.265   6.781 -0.0315 -0.1472 -0.2785
89139W        W90003  21.685  21.866   0.574  0.1128 -0.1217 -0.2833
89140W        W90004   3.338  20.897   0.749  0.0580  0.0275  0.0604
89141W        W90005   2.362  23.506  19.111 -0.1755  0.0755  0.2680
89142W        W90006  21.013  11.079   5.296 -0.2135 -0.2436 -0.0499
89143W        W90007  16.884   2.074  16.901 -0.1926 -0.0165  0.4810
89144W        W90008  26.656   0.322  26.663 -0.0518 -0.0460 -0.0827
89145W        W90009   4.048   5.531   2.925  0.0834  0.1254 -0.0682
89146W        W90010   6.789  21.125   2.530  0.1157 -0.0028 -0.3401
89147W        W90011  22.935  22.451  14.549  0.0252  0.0142  0.2721
89148W        W90012  26.702  19.150  23.113 -0.2945  0.0913 -0.4585
89149W        W90013  26.526  27.202   3.876 -0.2413  0.1427 -0.0318
89150W        W90014  15.784  17.869   0.264 -0.2172 -0.1056  0.0541
89151W        W90015   5.465  17.498  27.756 -0.2527 -0.0476 -0.2713
89152W        W90016   8.637  18.541  26.133  0.0301 -0.0359 -0.0476
89153W        W90017  25.638  17.403   0.230 -0.0845 -0.1007 -0.2111
89154W        W90018   4.994  16.188  15.899 -0.1399  0.0267 -0.1281
89155W        W90019   1.531  15.322  15.113  0.0800  0.2845 -0.0686
89156W        W90020  26.527   5.641   3.899 -0.0158  0.1884 -0.0516
89157W        W90021  18.945  16.803  23.017  0.1603  0.1473  0.1934
89158W        W90022   6.373   8.636   0.350 -0.0600 -0.2325  0.5085
89159W        W90023  21.961  25.698   4.781  0.1887  0.2523  0.0609
89160W        W90024  24.556  16.965  13.331  0.1383  0.3100  0.1824
89161W        W90025  15.614  14.581  14.406 -0.3754 -0.1094 -0.0890
89162W        W90026  13.211  14.530   6.002  0.1185  0.0883  0.0467
89163W        W90027  14.574  12.660  26.391 -0.0818 -0.0622 -0.0598
89164W        W90028  10.144  10.115  12.816  0.1000 -0.3114  0.0671
89165W        W90029  28.696  10.022   2.830  0.0379  0.1996  0.0475
89166W        W90030  19.687  28.226  12.042  0.2649  0.2378 -0.1373
89167W        W90031  15.095   6.215   8.491 -0.2483  0.1066  0.0883
89168W        W90032  27.782  12.083   2.685  0.3234  0.0240 -0.1080
89169W        W90033   0.591  25.838  16.990 -0.1022 -0.0310  0.4092
89170W        W90034  27.918   0.923   7.664  0.0817  0.0149  0.1212
89171W        W90035  28.689  23.542  22.561 -0.4059  0.0198 -0.1089
89172W        W90036  12.539  24.164  21.583 -0.1609  0.3146  0.0554
89173W        W90037   4.930  15.323   3.354 -0.0596 -0.1109 -0.1236
89174W        W90038  25.118  22.116  28.009 -0.4824  0.3128  0.0636
89175W        W90039  22.277   4.914   5.614 -0.0999  0.0610 -0.1294
89176W        W90040  14.763   6.539   1.500 -0.1729 -0.3974 -0.1791
89177W        W90041   8.638   1.027  11.938  0.0163  0.3702 -0.0334
89178W        W90042   8.083  28.162  22.993  0.1336 -0.1958  0.0599
89179W        W90043   2.794  18.527   1.816 -0.0307  0.0674 -0.0891
89180W        W90044  17.651   8.737  13.060  0.1356 -0.0135  0.2071
89181W        W90045  21.900  23.175  21.003  0.0793 -0.0052 -0.1063
89182W        W90046  27.127   7.195  10.885 -0.1281  0.0586  0.0770
89183W        W90047   1.834  14.378  14.936 -0.0072  0.0984  0.0792
89184W        W90048  17.195   7.836  26.788 -0.1648  0.0721 -0.1693
89185W        W90049   1.887  14.808  15.390  0.1122  0.0800 -0.3236
89186W        W90050  14.030  22.392  21.118  0.0489  0.1397 -0.2783
89187W        W90051   5.077  13.607  27.314 -0.2226 -0.1331  0.1946
89188W        W90052   6.971  26.081   0.860 -0.1324 -0.3499 -0.0969
89189W        W90053  22.706  13.772   7.500 -0.2275 -0.3867 -0.1199
89190W        W90054   2.535  11.671  24.972 -0.0757 -0.0839  0.2004
89191W        W90055  28.708   4.476  20.525 -0.0184  0.1688  0.1745
89192W        W90056   8.287   3.399  10.630 -0.0874  0.0229 -0.1055
89193W        W90057   9.471   4.284   2.957  0.0260 -0.1573 -0.2767
89194W        W90058  16.562   6.379  20.284 -0.0235 -0.2407  0.0632
89195W        W90059  19.768  12.190   1.333  0.0171 -0.0463 -0.0985
89196W        W90060   4.928  11.123  29.076  0.0159  0.1400 -0.0910
89197W        W90061   3.203  20.219  24.623 -0.1852  0.1552  0.1151
89198W        W90062  15.157  20.607   6.985  0.0620 -0.1314 -0.4799
89199W        W90063  19.946  12.251  22.695  0.0133 -0.2573  0.0147
89200W        W90064   1.365  11.600  24.325 -0.3460  0.0148  0.4896
89201W        W90065   6.068  23.071  22.974  0.2239 -0.1597 -0.2894
89202W        W90066   1.256  19.879   7.038  0.3963 -0.1652  0.0937
89203W        W90067   3.080  13.994   2.658 -0.2344 -0.1210  0.2946
89204W        W90068  17.971  13.267  12.495 -0.0064 -0.2837 -0.3325
89205W        W90069  28.931  16.710  10.749 -0.1864 -0.2566  0.0572
89206W        W90070  16.647  21.758   9.571 -0.1122 -0.2143  0.3466
89207W        W90071   6.101  14.929  16.089  0.2002  0.1265  0.1277
89208W        W90072  10.792  13.007   9.442 -0.2842 -0.0801  0.1600
89209W        W90073  16.001  21.439  27.397 -0.0542  0.5278 -0.0747
89210W        W90074   3.887  25.921  20.493  0.2776 -0.0924 -0.3896
89211W        W90075   8.644   1.836   0.091 -0.1391  0.1336 -0.3100
89212W        W90076  10.014  15.440   1.245  0.0439 -0.0719 -0.0900
89213W        W90077  17.157   9.720   7.889  0.0943  0.0008  0.0307
89214W        W90078  25.441  27.249   5.071 -0.1237 -0.0672  0.0005
89215W        W90079   2.395  17.382   6.320 -0.1712  0.4570  0.0519
89216W        W90080  12.645   9.831  28.996  0.0351 -0.2626  0.3254
89217W        W90081  21.521  20.422   6.351  0.0096 -0.0743  0.0700
89218W        W90082   4.445   9.415   0.865  0.2685 -0.3253  0.0588
89219W        W90083  17.402   9.783  10.490 -0.1052  0.3597 -0.0761
89220W        W90084   2.238  28.408  25.076  0.0203  0.2757  0.0609
89221W        W90085  26.626   7.440   6.742 -0.0946 -0.3779 -0.2136
89222W        W90086  11.268  13.005  11.060  0.0354 -0.0921 -0.0680
89223W        W90087   6.700   0.845   2.099 -0.0632  0.3042  0.3814
89224W        W90088   2.648   6.872   2.944 -0.1218  0.2023 -0.0340
89225W        W90089  27.846   2.649  10.498 -0.1382  0.0856 -0.0510
89226W        W90090  10.163   0.501  16.010 -0.1649  0.4892 -0.0224
89227W        W90091   7.708  20.032  28.179  0.1148 -0.0144 -0.0043
89228W        W90092  17.070   9.173   4.533 -0.1061 -0.0561 -0.1336
89229W        W90093  15.248  10.327   5.960 -0.0509  0.0157  0.0061
89230W        W90094   1.128  12.815   4.707 -0.2976 -0.2223  0.1036
89231W        W90095  15.329  16.947   7.346  0.2134  0.0286 -0.2529
89232W        W90096   5.157  20.232  22.365 -0.2412 -0.2090 -0.0728
89233W        W90097   4.269  25.612   1.271 -0.0716 -0.0085  0.1276
89234W        W90098  25.213  25.597  10.312  0.2636  0.1546  0.2227
89235W        W90099  20.065  23.630  19.018  0.1254 -0.0798  0.1479
89236W        W90100  26.964   5.538  21.194 -0.3294 -0.0471 -0.2141
89237W        W90101  23.989  26.244  14.086 -0.1798 -0.1536  0.1371
89238W        W90102  26.566   0.680   4.037  0.1669  0.0079 -0.1405
89239W        W90103  17.163  23.803  25.649 -0.3357 -0.2051  0.0931
89240W        W90104   3.633  16.213  21.032  0.0876 -0.0357 -0.1088
89241W        W90105   5.677  19.582   5.248 -0.0151  0.3012  0.1287
89242W        W90106  23.880  10.274  18.055 -0.1231 -0.2270  0.0677
89243W        W90107   4.236  15.626  23.856  0.0607  0.0906  0.1713
89244W        W90108  16.642  22.511   9.890  0.0824  0.0037 -0.1843
89245W        W90109  24.936  22.631  20.125 -0.2697 -0.0301  0.0809
89246W        W90110   7.673  14.594   0.560  0.3193 -0.3479 -0.3052
89247W        W90111  24.678  15.111  22.233 -0.1624 -0.3400 -0.3051
89248W        W90112  15.512  12.736  12.257  0.0556 -0.1616  0.0146
89249W        W90113  24.201  23.939  14.569 -0.1052  0.2031  0.0529
89250W        W90114  12.694  20.283  25.210  0.0467 -0.0806 -0.1271
89251W        W90115  13.099  13.009  24.126  0.0035 -0.1530 -0.1544
89252W        W90116   6.429  17.238   7.890 -0.2285  0.0407 -0.0030
89253W        W90117   8.470  25.632  25.160  0.0923 -0.2212  0.1403
89254W        W90118   6.502   0.363   5.003 -0.3374  0.0287 -0.0167
89255W        W90119  13.955   9.240  17.099  0.0895  0.0397  0.0034
89256W        W90120  14.371  28.269  27.935 -0.2785 -0.1102  0.0405
89257W        W90121  28.064  19.149  14.207  0.0000  0.2116 -0.3188
89258W        W90122  28.395  28.149   9.559  0.3300  0.1824 -0.1765
89259W        W90123  27.489  20.557   1.941  0.2113  0.2153  0.0475
89260W        W90124   6.640  12.810   3.270 -0.1499 -0.2534  0.0704
89261W        W90125  12.092  12.080  25.937  0.0344  0.0249 -0.3145
89262W        W90126  25.301   1.844   4.881 -0.0955 -0.0193 -0.1237
89263W        W90127  22.387  20.614   6.775  0.1353 -0.1555  0.0816
89264W        W90128  22.057   9.997   0.787 -0.4396  0.0404  0.0746
89265W        W90129   8.887  14.770   8.734  0.1050 -0.1773  0.0545
89266W        W90130  18.833  28.428   3.437 -0.0557  0.1891  0.1643
89267W        W90131  27.587  24.183   3.135 -0.1696  0.2553 -0.0891
89268W        W90132  10.155  13.374  26.266  0.1660 -0.1769 -0.1052
89269W        W90133  22.076  19.686  12.642 -0.1060 -0.5162 -0.2250
89270W        W90134  17.311  16.761   4.938 -0.2919 -0.2774 -0.3174
89271W        W90135  28.475  19.727  27.129 -0.1097 -0.0245  0.0506
89272W        W90136  11.698  17.111   4.948  0.0843 -0.1005 -0.0432
89273W        W90137  25.871  25.209  18.149  0.0565 -0.2269  0.0662
89274W        W90138   5.478  19.596  28.507 -0.0349  0.0056 -0.1485
89275W        W90139  20.631  12.739  28.194  0.2302  0.1006 -0.0810
89276W        W90140   6.651  26.023  22.986 -0.2901 -0.0408 -0.0495
89277W        W90141  27.501  12.986   5.179  0.0905  0.0161  0.1357
89278W        W90142  15.115   8.255   3.449 -0.1051 -0.1518 -0.0984
89279W        W90143   2.021  17.871  26.561  0.0027 -0.1528  0.0083
89280W        W90144  27.031  12.429  23.030  0.0338  0.2380 -0.1003
89281W        W90145  16.008  10.281   2.788  0.0232 -0.2656  0.1473
89282W        W90146  15.316   8.906   6.338 -0.0764  0.0390  0.3954
89283W        W90147  16.321   3.912  13.002  0.0849 -0.1361 -0.1218
89284W        W90148   7.009   7.889   2.368 -0.0186  0.0177 -0.0361
89285W        W90149   3.501  11.799  12.730 -0.1352 -0.0602 -0.2977
89286W        W90150  25.876  12.766  29.063  0.0972  0.3371 -0.0101
89287W        W90151  27.251  11.291   4.846  0.0072  0.3281 -0.0669
89288W        W90152  14.985   3.882  16.786  0.1057  0.2002 -0.3614
89289W        W90153  26.542  16.852  13.888 -0.0233 -0.1925  0.0630
89290W        W90154  14.109  26.987  23.555 -0.2223 -0.1450  0.0052
89291W        W90155  14.593  25.810   9.527  0.0948 -0.1844 -0.0879
89292W        W90156  16.961   8.365   8.324  0.2400  0.1545 -0.1936
89293W        W90157  22.296  16.359  13.735 -0.0031 -0.0886  0.2374
89294W        W90158  27.827  13.266  29.095 -0.2473  0.0403  0.2489
89295W        W90159  14.980  14.112   9.955 -0.1835  0.0190 -0.0227
89296W        W90160  11.896   7.960  14.879 -0.0877  0.3329 -0.1200
89297W        W90161   2.578  10.569   1.118  0.1358 -0.4695 -0.1711
89298W        W90162  25.339  15.202   6.898 -0.0572  0.2300  0.0473
89299W        W90163  24.937  15.887  17.212 -0.1744 -0.1488 -0.1643
89300W        W90164   8.071  11.470  11.833  0.1426 -0.0233  0.1006
89301W        W90165  15.784   9.124  13.006 -0.0395  0.0224  0.3137
89302W        W90166  10.893  19.571  27.293 -0.0945 -0.0046  0.0198
89303W        W90167  27.540   3.911  18.703 -0.0698  0.2739  0.0501
89304W        W90168  26.300   6.339   4.361 -0.1512  0.2083  0.4286
89305W        W90169  10.050   2.995   3.260  0.1347 -0.1319 -0.0102
89306W        W90170  17.436   4.914   4.382 -0.1202  0.1696  0.0844
89307W        W90171  23.384  12.529   2.424  0.1752 -0.3109 -0.5356
89308W        W90172  10.842  22.331  13.546 -0.1295 -0.2341  0.2355
89309W        W90173  21.540  25.624  20.276 -0.0562 -0.4298  0.4951
89310W        W90174  28.718  10.630  11.838  0.0247 -0.1108  0.1898
89311W        W90175  29.005  13.962  25.958  0.0637  0.0761  0.1719
89312W        W90176  20.343  19.620   8.596  0.2057 -0.1368 -0.1891
89313W        W90177  18.690  12.884   3.554 -0.0530 -0.0255  0.2069
89314W        W90178  13.143  21.385   9.456 -0.0086 -0.1521 -0.0478
89315W        W90179  25.322  27.771  10.030 -0.1191  0.2398  0.0370
89316W        W90180  15.639  19.325  19.647  0.0277 -0.1695 -0.1570
89317W        W90181  13.536   0.003   9.720 -0.1398 -0.2330 -0.0452
89318W        W90182  13.264   7.931  11.193  0.2507 -0.0020 -0.0746
89319W        W90183   3.491  13.397  19.693  0.0139  0.0662 -0.0317
89320W        W90184  24.603  28.324  24.395 -0.1012 -0.2946  0.2717
89321W        W90185  20.635  22.892  20.376 -0.0352  0.0130  0.1355
89322W        W90186  11.033   0.236  17.582  0.0581 -0.1864  0.1652
89323W        W90187  17.665   5.515  11.770  0.0125 -0.0369  0.3396
89324W        W90188  12.320   9.629  23.564 -0.1148 -0.1093  0.1805
89325W        W90189   4.402   4.218   9.617  0.0102  0.2476 -0.1390
89326W        W90190   8.839   5.671   2.212 -0.1176  0.1539 -0.2168
89327W        W90191  24.586   4.712  21.924  0.2299 -0.2170  0.0570
89328W        W90192  12.422  20.518   3.452  0.1578  0.0948  0.1814
89329W        W90193  22.016   8.333  18.673  0.0073  0.1629 -0.2063
89330W        W90194   6.931  28.285   9.209  0.2433  0.6237 -0.1502
89331W        W90195   2.377   9.559  19.589  0.3736  0.3355 -0.2329
89332W        W90196  14.754   9.539  12.276 -0.0540 -0.3032 -0.1676
89333W        W90197   6.983  15.142   6.573 -0.2455 -0.2217 -0.0130
89334W        W90198  26.248  14.875  13.616  0.1215  0.0129  0.1317
89335W        W90199  17.745  27.956  22.253  0.3562 -0.3438  0.2156
89336W        W90200  15.604  15.209   6.395  0.0088  0.0274 -0.2726
89337W        W90201   1.463   9.819  27.902  0.1241 -0.1449 -0.0194
89338W        W90202   2.759  24.105   2.902  0.1847 -0.2474 -0.0291
89339W        W90203   4.178  14.142   7.941 -0.2927  0.1149 -0.3715
89340W        W90204  24.240   3.444  13.294 -0.1539 -0.1873  0.0265
89341W        W90205   3.390  12.716   7.103  0.1716 -0.1599  0.1916
89342W        W90206   8.968  29.132   2.736  0.1693  0.4353 -0.1329
89343W        W90207   7.906  23.315  27.502 -0.2021 -0.0251 -0.0563
89344W        W90208   8.273  15.427  28.588  0.3315  0.2106  0.0958
89345W        W90209  19.239  15.873  13.436  0.1008 -0.2498 -0.0546
89346W        W90210  12.392  10.669   4.164  0.0510  0.0278 -0.4579
89347W        W90211  26.491  28.735  19.373 -0.0595 -0.0116 -0.2479
89348W        W90212  19.479   4.211  19.339  0.2554  0.1057  0.4067
89349W        W90213  26.069  16.184  26.606  0.2720 -0.1634  0.1011
89350W        W90214  22.809  20.763  10.339 -0.0247 -0.2543  0.0205
89351W        W90215  16.128  10.767   7.490  0.0340 -0.2143 -0.0012
89352W        W90216   5.985  23.563   9.466 -0.0914 -0.2825 -0.2901
89353W        W90217   8.350   5.146  22.478 -0.3936  0.1129  0.0199
89354W        W90218  21.296  19.835  22.839  0.0106  0.1723  0.1507
89355W        W90219   9.925  22.337  13.835 -0.2000  0.1929 -0.4716
89356W        W90220   3.455  20.235  25.059  0.0145  0.1119  0.1212
89357W        W90221  28.316  27.675  21.581  0.1095  0.0892 -0.2145
89358W        W90222  21.795   9.154  26.381  0.1303 -0.1710 -0.2884
89359W        W90223  26.543  16.833  24.573 -0.1310 -0.1039 -0.0504
89360W        W90224  23.651  11.632   8.169  0.1473  0.2793  0.1169
89361W        W90225   7.425  19.420  12.903 -0.0117 -0.1965 -0.1190
89362W        W90226  20.753  15.837  28.486  0.0663 -0.2413  0.1297
89363W        W90227  12.906  22.632   5.787  0.2415 -0.1015  0.0566
89364W        W90228  11.441  26.579  16.197 -0.2776  0.0467  0.1802
89365W        W90229  26.377   9.654  28.031 -0.2723 -0.1299 -0.1807
89366W        W90230  16.407   5.571  20.809  0.2766 -0.1142 -0.2242
89367W        W90231   1.668  21.556  23.746 -0.1447  0.2837 -0.0263
89368W        W90232  20.176   6.704  15.365  0.1311 -0.1764  0.2257
89369W        W90233   3.966  18.776   7.267  0.0972  0.0693 -0.1636
89370W        W90234  26.603  27.660   3.598  0.1758 -0.1503 -0.1297
89371W        W90235  16.510  19.792  26.972  0.3944  0.0138  0.1579
89372W        W90236  15.221  16.366  23.873  0.1504  0.0319 -0.1346
89373W        W90237  27.130  22.057  27.498  0.0926 -0.0376  0.0823
89374W        W90238  20.921   5.669  20.602 -0.0813 -0.0553 -0.1782
89375W        W90239  12.814  20.775  20.834  0.1398 -0.4064  0.1780
89376W        W90240   7.718  15.500  12.358  0.1715 -0.2909 -0.2131
89377W        W90241  15.521  20.252  14.439  0.0879  0.2429 -0.0607
89378W        W90242  21.498  15.290   4.267  0.0440  0.0293  0.0188
89379W        W90243  23.083  15.349  20.825 -0.0419 -0.0995 -0.0167
89380W        W90244  19.968  13.382  28.902 -0.0961  0.1320 -0.1295
89381W        W90245  11.027  14.066  14.849 -0.2571 -0.0461  0.3011
89382W        W90246  23.311   6.018  23.425 -0.1540  0.2194  0.2736
89383W        W90247  27.941  16.339  24.620 -0.2035 -0.0777 -0.1450
89384W        W90248   6.379   6.505   4.036  0.0754  0.2547 -0.0427
89385W        W90249   5.564   1.168   4.931  0.0976 -0.1835 -0.2287
89386W        W90250  23.912   6.045  17.154 -0.2464  0.1254 -0.1335
89387W        W90251  18.489  20.739  28.658 -0.0278  0.2449  0.0965
89388W        W90252  23.252   2.499  24.334 -0.2808  0.3378  0.1910
89389W        W90253  23.268   4.381  24.887 -0.2610 -0.0411 -0.2808
89390W        W90254  20.356   2.610  10.548  0.1018 -0.0713 -0.1333
89391W        W90255   8.302  13.473   2.065 -0.0231 -0.2889  0.2176
89392W        W90256  17.629  11.883  28.671 -0.1091 -0.2015 -0.3095
89393W        W90257  18.664   1.826  27.506  0.0383 -0.1154 -0.1557
89394W        W90258   0.875   5.676  19.760 -0.1987  0.0424 -0.1166
89395W        W90259   6.464  16.432  19.106  0.2403 -0.2142 -0.1133
89396W        W90260  13.248  13.273   2.388  0.1223  0.0420 -0.0015
89397W        W90261  12.634   3.568  16.180 -0.2187 -0.1404  0.4611
89398W        W90262  13.800   9.358  21.054 -0.1325 -0.2552 -0.1589
89399W        W90263  25.920   6.910   7.386  0.0128 -0.2745 -0.0477
89400W        W90264  19.563   0.974   6.539  0.1454  0.0209  0.2247
89401W        W90265  12.394  12.294   8.303 -0.1124  0.0780 -0.0506
89402W        W90266  23.355  25.758   3.161  0.2377  0.1183  0.4089
89403W        W90267  23.550  12.140  22.102 -0.0855  0.2465  0.0253
89404W        W90268  18.548  20.874   1.738 -0.0996  0.0847  0.0024
89405W        W90269   1.114  28.103  21.534 -0.1453  0.1582 -0.0517
89406W        W90270  16.453   6.268   8.277 -0.0235 -0.2013 -0.1863
89407W        W90271   1.225  21.728  28.849  0.1220 -0.0544  0.1152
89408W        W90272  19.572   8.394   9.899  0.0551  0.1239  0.2016
89409W        W90273  10.884   4.868  15.819  0.2133  0.2121  0.2752
89410W        W90274  17.245  19.785   8.206 -0.1267  0.2367  0.1282
89411W        W90275  14.794  11.996  10.795 -0.1845  0.0455 -0.0575
89412W        W90276  12.721  10.024  20.491 -0.1381  0.0062 -0.3004
89413W        W90277  19.447  12.039  22.021  0.0091  0.1054 -0.0717
89414W        W90278  22.855  12.097  23.698  0.1185 -0.0412  0.3441
89415W        W90279  22.904  17.386   6.723 -0.2091 -0.2611  0.0275
89416W        W90280  13.614  11.009   3.929 -0.0903 -0.0556  0.0599
89417W        W90281  16.727  19.327  18.727 -0.0440  0.2072 -0.0283
89418W        W90282  19.871  12.889   7.995 -0.3902  0.0785  0.2143
89419W        W90283   1.539   9.683  16.379 -0.0491  0.0139  0.0895
89420W        W90284  24.937  13.943   8.938 -0.0131 -0.1945  0.0440
89421W        W90285  16.246  16.213  20.060  0.2661 -0.1030 -0.0826
89422W        W90286   1.443  10.911   9.964  0.0638  0.2340 -0.0937
89423W        W90287  10.804   6.762  24.498  0.1288 -0.2364 -0.0566
89424W        W90288   7.721  12.510  28.636 -0.0175 -0.0060 -0.1631
89425W        W90289  11.394   7.229  10.275  0.0689 -0.2036 -0.1344
89426W        W90290  13.788  28.862   7.102  0.0659 -0.3232 -0.0643
89427W        W90291   4.120  27.436   3.796 -0.2643  0.2704 -0.0678
89428W        W90292  12.289   3.486  21.573 -0.2842  0.3540  0.1039
89429W        W90293  23.130  13.378  15.201 -0.0644 -0.0535 -0.0490
89430W        W90294   5.490   9.315   4.701 -0.0261 -0.0519  0.3758
89431W        W90295  22.785   4.374  13.056  0.0252 -0.2709  0.2558
89432W        W90296   8.000   4.980  16.414  0.1857  0.0710 -0.0472
89433W        W90297  17.889  20.495   4.824  0.1024  0.2739  0.1866
89434W        W90298   1.565  12.570   6.961  0.3749 -0.1553  0.2936
89435W        W90299  28.418  15.896   9.602  0.0167  0.0064 -0.0889
89436W        W90300   6.421  18.503  27.831 -0.1637  0.5842  0.1912
89437W        W90301  27.191   2.000   5.481  0.0259 -0.0292 -0.1365
89438W        W90302  10.930  24.568   9.023 -0.1058 -0.2874  0.1047
89439W        W90303  22.426   8.760  22.812  0.1543  0.0895  0.2106
89440W        W90304   5.269  21.199  12.455 -0.2178 -0.0606 -0.1812
89441W        W90305   6.612  14.104   3.392 -0.0728  0.1305  0.3187
89442W        W90306  20.611   6.307   7.725 -0.0972  0.1897  0.1870
89443W        W90307  24.782   0.829  17.524  0.1864 -0.0488 -0.0245
89444W        W90308  29.109   1.973   2.016  0.1716 -0.0978  0.0393
89445W        W90309  22.358  18.469  23.045 -0.0779  0.3088  0.4001
89446W        W90310   4.272   4.965  13.866 -0.3346 -0.0286 -0.2995
89447W        W90311   4.393  24.567   9.455 -0.0064  0.2582 -0.2283
89448W        W90312  14.889  18.541  24.523  0.2134 -0.2273  0.0916
89449W        W90313   1.165   9.965  11.842  0.2481 -0.1671  0.0889
89450W        W90314  26.089   7.571   3.449  0.3300 -0.2765 -0.2582
89451W        W90315   5.012  11.263  12.527 -0.0936 -0.0581  0.3099
89452W        W90316  17.592  23.939  26.784 -0.0550 -0.0435 -0.0137
89453W        W90317   7.448  26.771  12.816  0.0380  0.2485 -0.2238
89454W        W90318   3.551  19.373   0.676  0.2753  0.0580  0.5387
89455W        W90319  28.359  14.114  10.166  0.0161  0.0357 -0.2262
89456W        W90320  13.676  16.538   5.083  0.1740 -0.0978  0.1158
89457W        W90321  12.773  28.380   1.540 -0.2190 -0.0313 -0.0149
89458W        W90322  16.953   3.927   5.211 -0.1422 -0.1106  0.0224
89459W        W90323  19.277  18.342   7.037 -0.1965 -0.0918 -0.2621
89460W        W90324  24.129   1.218   1.450  0.0521 -0.1445 -0.1009
89461W        W90325  12.928   9.751   3.092 -0.1608  0.0454 -0.0912
89462W        W90326  10.800   8.456  17.708 -0.0512 -0.0590  0.2357
89463W        W90327  14.714   1.488   7.184  0.1432  0.0132  0.0221
89464W        W90328  23.129   2.697   7.102 -0.1663  0.0440 -0.2233
89465W        W90329  25.650  21.542  16.471  0.2095 -0.0633 -0.4242
89466W        W90330  16.808  18.442   6.292  0.2524 -0.0524 -0.1088
89467W        W90331   5.388   4.881  10.289 -0.2167  0.0977 -0.2390
89468W        W90332  11.618   3.518   6.032  0.2285 -0.0760  0.0972
89469W        W90333  23.407  23.262  14.603  0.1518  0.3146  0.2690
89470W        W90334  26.763   9.186  23.262 -0.1186 -0.0516 -0.2504
89471W        W90335   1.507   1.973   8.060 -0.2290 -0.1922 -0.0433
89472W        W90336  11.051  16.395  14.044  0.0196 -0.1422 -0.1213
89473W        W90337  26.615   6.263   2.762 -0.0065 -0.0844  0.1841
89474W        W90338   8.283  25.250  13.279 -0.0194  0.0820 -0.0999
89475W        W90339  15.454  11.486  18.449  0.0965 -0.2107 -0.0614
89476W        W90340  13.045  27.427   7.646  0.2239 -0.2030  0.1005
89477W        W90341  15.102  16.875  22.649  0.1376  0.0631 -0.0042
89478W        W90342   5.511  15.145   3.584  0.0463 -0.0421 -0.4304
89479W        W90343   3.690  12.080   2.752 -0.1629  0.2183  0.3871
89480W        W90344  24.958   3.531   5.162 -0.2340  0.2453  0.4595
89481W        W90345  14.600  28.433  24.155 -0.0722  0.2084 -0.0047
89482W        W90346  16.206   8.871   2.014 -0.3620  0.0030 -0.2187
89483W        W90347  24.152   3.787   4.669 -0.1397  0.2381  0.2924
89484W        W90348  18.297  21.477   2.431  0.3492  0.0739 -0.3979
89485W        W90349   9.178   6.097   7.775 -0.1199 -0.1940 -0.0321
89486W        W90350   8.668   8.690   4.718 -0.0186 -0.0385 -0.0482
89487W        W90351  25.721   5.760   3.081  0.4130  0.0847 -0.2117
89488W        W90352  18.911  24.357   5.588 -0.0152 -0.0254  0.0045
89489W        W90353  17.983  17.417   0.218 -0.1451  0.1759  0.1478
89490W        W90354   4.292   7.492  24.641 -0.0972  0.0039  0.2946
89491W        W90355   7.655   8.427  13.176 -0.0190  0.2546  0.2589
89492W        W90356  23.246  16.423  10.797  0.0392 -0.0544  0.3316
89493W        W90357   0.045  14.005   1.531 -0.0959  0.2247 -0.0044
89494W        W90358   1.820  14.949  15.939 -0.3007 -0.0819 -0.0586
89495W        W90359   5.717   0.916  23.072  0.1223 -0.2785  0.2036
89496W        W90360  20.712  26.837   0.486 -0.4314 -0.0488  0.0157
89497W        W90361  13.942  17.143   5.751  0.1842  0.0667  0.0472
89498W        W90362   4.106  14.385  26.128 -0.3516 -0.0196 -0.1814
89499W        W90363  29.000  11.192   6.929  0.0806 -0.2853 -0.1359
89500W        W90364  12.237   1.475   3.222  0.2503 -0.0230 -0.1500
89501W        W90365  26.995  17.283   0.316 -0.1459 -0.1872 -0.1051
89502W        W90366  12.977  12.289   0.345 -0.0152 -0.1343  0.3532
89503W        W90367  19.371  13.859  13.433 -0.0258 -0.0166 -0.1056
89504W        W90368  15.629  25.101  20.315 -0.1816 -0.0138  0.4361
89505W        W90369  21.387   8.355   3.481 -0.2273  0.0508 -0.0809
89506W        W90370  21.100   8.421  13.154  0.2126  0.1405  0.0963
89507W        W90371  18.476  28.101   3.323 -0.0566  0.0572  0.1724
89508W        W90372  15.510  20.918   4.063  0.0121  0.0575  0.0088
89509W        W90373  15.940  10.786  15.730 -0.1711  0.0856  0.1039
89510W        W90374   1.439  11.216   1.074  0.0726 -0.1583  0.0857
89511W        W90375  28.373  13.295  20.365  0.1402 -0.0957 -0.1403
89512W        W90376  15.065   1.001   9.643  0.1444 -0.2031 -0.3246
89513W        W90377  22.946  19.374   0.678 -0.1906 -0.0691 -0.0802
89514W        W90378   8.439  23.898   3.825  0.0373  0.0183  0.3333
89515W        W90379  15.711  12.218  14.695 -0.1608 -0.2326  0.2906
89516W        W90380  13.309  28.956   7.143  0.0278 -0.0869 -0.1188
89517W        W90381  29.054   2.507  25.762  0.0031  0.1339  0.1637
89518W        W90382  27.427   9.046   8.612 -0.0038  0.1359 -0.1877
89519W        W90383  28.630  25.880   0.156 -0.0028  0.2704  0.2764
89520W        W90384  11.839   2.296  15.156 -0.0537  0.2442 -0.0046
89521W        W90385  23.303  20.884  15.676 -0.3769 -0.1952  0.2151
89522W        W90386  10.935  10.207   1.615 -0.0799 -0.3575 -0.2448
89523W        W90387  21.113   9.402  17.464  0.0783 -0.2670  0.1059
89524W        W90388  18.618   0.968   1.831  0.2734  0.0579  0.0376
89525W        W90389   4.937  12.987  10.236  0.2022 -0.0972 -0.0397
89526W        W90390  19.110  28.928   2.841  0.0319  0.0339  0.0447
89527W        W90391  20.005  28.687  12.121 -0.3056  0.1822  0.2700
89528W        W90392  15.707  25.684  15.673  0.1410  0.2715 -0.0426
89529W        W90393  10.982  14.026   9.504 -0.0547  0.0499  0.2429
89530W        W90394  21.976   9.547   7.531 -0.0273 -0.0801  0.0993
89531W        W90395   0.547  19.282   3.825 -0.1116 -0.1488  0.1348
89532W        W90396  18.041  19.194   4.201  0.2549  0.1864  0.0546
89533W        W90397  26.781  16.445   3.363 -0.1239 -0.1586  0.3029
89534W        W90398   3.566  15.725  25.007 -0.1895  0.0190 -0.3955
89535W        W90399  16.996  20.390  12.751 -0.1960 -0.0066 -0.0408
89536W        W90400   5.462   6.465  26.719 -0.1391  0.0645 -0.1101
89537W        W90401  13.969  23.287  26.563 -0.0221 -0.0754 -0.0256
89538W        W90402   4.981   2.842   4.910 -0.1886  0.0815 -0.2487
89539W        W90403  23.608  22.693  15.968  0.0587 -0.1678 -0.0081
89540W        W90404  18.745  17.641   3.593  0.0816  0.0286  0.1791
89541W        W90405  27.595  16.803  19.727 -0.1490 -0.2708 -0.0684
89542W        W90406  20.295  15.675   2.945 -0.0010 -0.4157  0.1590
89543W        W90407  22.208   4.362   7.712  0.2151  0.2120 -0.1424
89544W        W90408  12.937  15.113  15.158  0.0032  0.0143  0.1087
89545W        W90409   8.974  14.716  25.311  0.0640 -0.1005  0.0874
89546W        W90410   7.995   7.950  27.309  0.3459  0.2125  0.1527
89547W        W90411   1.973   9.642  26.840 -0.0261 -0.0522 -0.2091
89548W        W90412  23.132  18.314   1.210  0.1779 -0.0746 -0.0504
89549W        W90413   2.188  14.260  10.930 -0.0820 -0.1330  0.4941
89550W        W90414  24.347   2.255  17.278  0.0073  0.0663 -0.2501
89551W        W90415  23.613  10.160   1.185 -0.0263  0.0812  0.1842
89552W        W90416   1.575   9.730   1.535  0.1458  0.0624  0.0088
89553W        W90417  19.067  26.112   1.722  0.4096  0.2558 -0.3349
89554W        W90418   1.458  26.838   4.601 -0.0496  0.0414  0.1341
89555W        W90419   3.843   1.570   9.070  0.0020  0.0086  0.2804
89556W        W90420   2.494  13.818   7.850 -0.1661  0.3500 -0.3595
89557W        W90421   2.848  11.748   3.824 -0.1882  0.0431 -0.0082
89558W        W90422  23.024  16.640   2.462 -0.2283 -0.1720 -0.2206
89559W        W90423  26.819  25.944   0.479 -0.0293 -0.0932  0.1113
89560W        W90424  10.217   4.357   5.689  0.1920 -0.1170 -0.0740
89561W        W90425   3.759   4.127  27.163 -0.0191  0.0769  0.0401
89562W        W90426  25.976   7.477  16.343  0.0976 -0.0351 -0.1052
89563W        W90427   3.339   7.516  18.837 -0.0273  0.0470 -0.2762
89564W        W90428   4.532  21.737  14.900  0.1097  0.0168  0.0256
89565W        W90429  15.321  14.018  15.764 -0.0900  0.3437 -0.1673
89566W        W90430   4.576  22.418  24.827 -0.4028 -0.2413  0.1873
89567W        W90431   0.045   1.404   6.442 -0.0810  0.0911 -0.0310
89568W        W90432   7.994   8.604   9.042  0.0512 -0.2023  0.0669
89569W        W90433   4.131  13.966   6.673  0.2184 -0.0206 -0.2867
89570W        W90434  24.474   6.462  14.661 -0.0659 -0.0614 -0.2129
89571W        W90435   0.213  15.668  15.637 -0.0388 -0.3141  0.0454
89572W        W90436  21.001   8.675   5.014  0.0428 -0.0868  0.2180
89573W        W90437   4.713   8.025  26.491  0.0390 -0.0132  0.0911
89574W        W90438  26.883  21.324   0.170  0.2626  0.1784  0.1215
89575W        W90439   8.161   6.035   7.856  0.2028 -0.0798  0.0452
89576W        W90440   0.978  15.969  11.711 -0.0362  0.2141 -0.0818
89577W        W90441  10.087   5.207  28.065  0.0327  0.1998  0.1806
89578W        W90442  13.527  16.312  22.433 -0.0470  0.1251 -0.1835
89579W        W90443  14.205  19.659  12.643  0.1468 -0.0819 -0.1175
89580W        W90444  20.433  17.374   9.129 -0.0811 -0.1645 -0.0180
89581W        W90445  27.263  20.518  27.465  0.2029 -0.0254  0.0030
89582W        W90446  15.794  24.248   0.521 -0.2382  0.0939  0.0143
89583W        W90447   8.403  18.943   6.647  0.0127 -0.0496 -0.0851
89584W        W90448   6.009  17.972  28.985 -0.0270 -0.1761 -0.1580
89585W        W90449  21.181   8.730  11.798 -0.0236 -0.0118 -0.0983
89586W        W90450   6.777  15.036  21.024  0.1944  0.1309  0.1235
89587W        W90451   1.352  13.562  27.628  0.1794 -0.0520  0.0552
89588W        W90452   3.090  13.775  27.156  0.1069  0.0392 -0.3335
89589W        W90453  24.901   4.491  26.444  0.1836 -0.4004 -0.0283
89590W        W90454  25.536  25.101   8.171 -0.2069  0.2859 -0.1476
89591W        W90455  24.325  12.043  12.840  0.3533  0.0106  0.1058
89592W        W90456  14.076  16.724  13.427  0.1451  0.4153 -0.0613
89593W        W90457   7.244  15.465   7.468 -0.0155 -0.1130  0.0706
89594W        W90458  16.435  26.381   9.535 -0.2268  0.0104 -0.0002
89595W        W90459  16.979   6.188   7.416 -0.4314  0.0163  0.0128
89596W        W90460  10.627  10.814  28.999 -0.2568  0.0725 -0.0039
89597W        W90461   2.953  15.099   7.227 -0.0096 -0.2098  0.2231
89598W        W90462   5.536  10.262  13.016  0.1233  0.2790  0.1016
89599W        W90463  21.433   7.254   6.806 -0.2892 -0.1513  0.1711
89600W        W90464  28.289   9.151   7.638  0.0914  0.0870 -0.1196
89601W        W90465   8.991  21.230   5.396  0.3317 -0.2851 -0.1032
89602W        W90466  18.864  13.793   4.135 -0.1667 -0.4050  0.1946
89603W        W90467  12.058  22.855  28.242  0.2248 -0.0023  0.0323
89604W        W90468  18.143   1.808   1.153 -0.0438 -0.0327 -0.3047
89605W        W90469  28.235   9.551  17.669 -0.1549 -0.1196  0.0458
89606W        W90470   8.021   8.692  17.711 -0.2559  0.2320 -0.1040
89607W        W90471  24.223  14.589  23.418  0.0270 -0.1785 -0.2191
89608W        W90472   8.825   2.517   3.514 -0.0063 -0.1507 -0.3427
89609W        W90473   3.143   8.553  10.000 -0.1863  0.1235 -0.1672
89610W        W90474  10.995   9.354  24.029  0.1302 -0.2009  0.0577
89611W        W90475   6.347  25.258  16.012 -0.2105 -0.1031  0.1927
89612W        W90476   7.833  16.000  13.572 -0.4705 -0.1616 -0.0081
89613W        W90477   4.109  17.174  18.825 -0.0093 -0.3707  0.2472
89614W        W90478  15.586  26.815  26.973 -0.1596 -0.3387  0.1287
89615W        W90479  27.282  10.452   0.289 -0.0989 -0.2499  0.0421
89616W        W90480  23.461  13.541   4.445 -0.0458  0.2495  0.0512
89617W        W90481   6.258  16.797   9.166 -0.1213  0.0190 -0.0093
89618W        W90482  25.755   0.881  15.848 -0.1237 -0.1060  0.1262
89619W        W90483  10.065  18.459  26.460 -0.0858 -0.2598  0.0122
89620W        W90484  15.048   3.520  10.443 -0.1978  0.4461 -0.0377
89621W        W90485  23.499   4.622  12.783 -0.0050  0.4034 -0.2496
89622W        W90486  14.936  10.936   8.983  0.3601  0.1764  0.0760
89623W        W90487   4.105  19.381  14.174 -0.1808  0.0121 -0.3947
89624W        W90488   7.899  15.273  11.868 -0.0711 -0.3742  0.0026
89625W        W90489  24.708   7.571   4.585 -0.3336  0.1860 -0.0543
89626W        W90490  15.090  21.883  28.206 -0.1955  0.3878 -0.1474
89627W        W90491   8.854   8.187  26.621  0.2569  0.1196 -0.3695
89628W        W90492  29.096  26.477  21.333 -0.1235  0.2789 -0.0417
89629W        W90493   4.003   4.633  16.191 -0.4342  0.0704  0.0399
89630W        W90494  13.357  11.894  24.842  0.1168 -0.2137 -0.2687
89631W        W90495  22.753   7.055   9.879 -0.0692  0.2516  0.0123
89632W        W90496   4.782  20.029  25.771  0.0622  0.0767 -0.2414
89633W        W90497  27.229  14.121  27.765  0.1353  0.0463 -0.2011
89634W        W90498   8.385   5.594   9.514  0.2662  0.0398  0.0024
89635W        W90499   0.917  15.980  23.627  0.6329  0.0011 -0.0572
89636W        W90500   9.817  25.312   4.588 -0.1523 -0.3306 -0.0235
89637W        W90501  13.732  13.913  21.005 -0.0075  0.1048 -0.2635
89638W        W90502  16.645  18.178  24.822 -0.1602 -0.3272 -0.2289
89639W        W90503   3.677   4.860  13.451 -0.3407 -0.1284 -0.0050
89640W        W90504  12.179  14.104  15.842  0.3833 -0.0930 -0.0288
89641W        W90505  25.128   0.515  14.100  0.0398  0.1772 -0.2583
89642W        W90506  28.935  19.821   3.540 -0.1449 -0.1706 -0.0059
89643W        W90507   7.919  24.113  25.743 -0.0060 -0.1109 -0.0253
89644W        W90508  28.935  25.663  18.153  0.2785  0.1884 -0.1314
89645W        W90509   6.936  25.093  25.113 -0.1138 -0.0400  0.0450
89646W        W90510  27.781  27.089  10.182  0.1091  0.0308  0.0437
89647W        W90511  12.235  15.854   3.780 -0.0447 -0.0620 -0.0849
89648W        W90512  16.406   3.811   9.914 -0.1423  0.2293  0.1782
89649W        W90513  23.229  15.534  14.937 -0.1527  0.0781 -0.0467
89650W        W90514  22.549  11.965  13.719 -0.0288 -0.0351  0.0320
89651W        W90515  25.614   3.160  22.686  0.0400  0.2569 -0.0987
89652W        W90516  21.854   6.221   9.110 -0.0688 -0.0667  0.1040
89653W        W90517  23.564  16.469   2.134 -0.1435 -0.1124  0.0087
89654W        W90518  22.622  19.510   9.694 -0.1090 -0.1485  0.1489
89655W        W90519  27.078  11.311  25.409 -0.1085  0.1572  0.1713
89656W        W90520  12.154   2.413  14.815  0.0968 -0.0064 -0.1219
89657W        W90521  14.001  10.637  13.980  0.2066 -0.2253  0.0997
89658W        W90522  19.158  18.912  28.479 -0.1478 -0.0637 -0.2675
89659W        W90523  16.420   8.941  22.353 -0.1172 -0.1038 -0.0384
89660W        W90524  24.634   5.139   1.134 -0.1474  0.0720 -0.1717
89661W        W90525   7.448  26.841  27.078 -0.0543 -0.1021  0.0606
89662W        W90526  24.487   4.785  12.125  0.0905 -0.4214  0.0728
89663W        W90527   1.245  18.652   5.775  0.0666 -0.1150 -0.1578
89664W        W90528  24.001   3.880   0.038 -0.3522  0.1407 -0.0275
89665W        W90529  11.268   4.456  17.200 -0.0333 -0.0881 -0.0937
89666W        W90530   0.307  14.552  16.135 -0.0331 -0.3328 -0.0320
89667W        W90531   8.659  20.307  10.363 -0.0380 -0.0866  0.0674
89668W        W90532   7.655  20.288   9.243  0.2341 -0.0606 -0.2909
89669W        W90533  23.326   2.505  10.626  0.0074  0.1889 -0.1321
89670W        W90534  20.554  15.440  21.373 -0.1337 -0.2178 -0.1523
89671W        W90535  16.075  13.033   6.792  0.0480 -0.0620 -0.0849
89672W        W90536  13.057  14.258  24.751 -0.1120  0.4041  0.1751
89673W        W90537  14.854  24.022  27.989 -0.0366 -0.1183  0.0634
89674W        W90538  21.064  15.288   6.765  0.0958 -0.0517 -0.1417
89675W        W90539  23.354  16.727   5.020  0.1584  0.1833 -0.0966
89676W        W90540  19.644  13.427  13.649 -0.1687  0.0950  0.0215
89677W        W90541   0.021  10.128   1.306 -0.1875  0.0536  0.0939
89678W        W90542  22.138  13.970  15.746 -0.1791  0.0150  0.0510
89679W        W90543  27.493  26.914  18.257 -0.1355  0.0692  0.2789
89680W        W90544  13.600  10.043  28.024 -0.2199  0.3030  0.0496
89681W        W90545   1.266  27.022  15.094  0.3711  0.0097  0.0270
89682W        W90546  28.383  17.048  17.210  0.1088 -0.0493  0.1592
89683W        W90547  26.239  26.621  20.239  0.1226 -0.1340  0.1187
89684W        W90548   1.772  13.368  28.719  0.0520 -0.2324  0.0617
89685W        W90549  25.379   9.713   8.837 -0.0140 -0.2301  0.1049
89686W        W90550  20.111   2.920  21.561 -0.0753 -0.1218 -0.1016
89687W        W90551   8.870  18.672   2.385 -0.1184 -0.0424  0.0495
89688W        W90552  24.253   6.838  18.665 -0.2683 -0.2111 -0.0228
89689W        W90553  24.256  24.541  10.051 -0.2703  0.2279 -0.0785
89690W        W90554  21.102  21.812   7.552  0.0785 -0.0267 -0.2573
89691W        W90555  19.224   4.318   6.150  0.0345  0.0112 -0.1049
89692W        W90556   6.217  26.827  24.122  0.2252 -0.1708 -0.0232
89693W        W90557  27.546   5.236   6.084  0.1065  0.2753 -0.0757
89694W        W90558  27.144  18.055  26.711  0.3522  0.2754 -0.2570
89695W        W90559  19.228   1.906  21.047 -0.1799 -0.2613  0.0348
89696W        W90560   6.685  24.216  16.098 -0.0149  0.0379  0.0016
89697W        W90561  18.555  27.967  21.732 -0.1171  0.0422 -0.0920
89698W        W90562  10.683  24.618   4.463 -0.0206 -0.0675  0.1166
89699W        W90563  18.863  13.309   8.776  0.0195 -0.2447 -0.1496
89700W        W90564  22.331   8.861  16.707 -0.3730 -0.0537  0.0655
89701W        W90565  18.883  10.620  20.898  0.0988  0.1114  0.1029
89702W        W90566  29.100  14.368  13.327  0.2666  0.0310  0.0076
89703W        W90567   1.990   6.257  12.958 -0.2439  0.0639  0.0654
89704W        W90568  18.543   9.987   7.559  0.3709  0.0118  0.0017
89705W        W90569   0.574   2.528  18.906 -0.3221  0.4336  0.0447
89706W        W90570  23.578  17.043  19.622  0.1848  0.1572  0.0901
89707W        W90571   2.944  13.121  20.534  0.1250  0.1399  0.3538
89708W        W90572   0.974  21.658   2.698  0.3380  0.1850  0.0194
89709W        W90573   7.386  18.876   7.637 -0.3516  0.1654 -0.0407
89710W        W90574  20.503   7.211  11.599 -0.3863 -0.0990 -0.0189
89711W        W90575   2.757   0.472   4.412  0.0351 -0.0489 -0.4156
89712W        W90576  11.022  15.674   5.023 -0.0837  0.1581 -0.1496
89713W        W90577   2.127   6.154   4.678  0.0696 -0.2249 -0.3404
89714W        W90578  21.671   8.264   3.884  0.1917  0.1138  0.2409
89715W        W90579  26.204  22.509   6.470  0.1536  0.1705 -0.0432
89716W        W90580  19.220   9.244   6.081 -0.2072  0.2653  0.5139
89717W        W90581  17.123  26.347   4.651  0.0752  0.0155  0.0492
89718W        W90582  28.766  19.680  26.121  0.0214 -0.1932  0.1122
89719W        W90583   2.951   8.997   6.472 -0.1102 -0.2485  0.3413
89720W        W90584  26.195  14.955  26.601  0.2244  0.2029 -0.1289
89721W        W90585  25.151   5.489   8.546 -0.0723 -0.1678  0.0869
89722W        W90586  23.224  14.961   7.396  0.2982 -0.0696  0.3308
89723W        W90587   5.628  15.083  11.243  0.3185 -0.2437 -0.0172
89724W        W90588   0.438  18.970  25.362 -0.1460 -0.2185  0.4614
89725W        W90589  26.956   3.653  14.080  0.0112  0.0685  0.1028
89726W        W90590   1.791   9.527  11.826 -0.0611 -0.0645 -0.1582
89727W        W90591   9.667  28.767  22.849  0.0714  0.0993  0.1176
89728W        W90592   2.907  28.582   3.310 -0.0186 -0.0410 -0.0343
89729W        W90593  19.038  14.132  28.671 -0.2602 -0.0263  0.1282
89730W        W90594  19.661   6.749  10.764 -0.1021  0.0747 -0.2108
89731W        W90595  26.557  28.146  27.174 -0.0301 -0.0297  0.0712
89732W        W90596   1.799  13.929  11.805 -0.2108 -0.4112  0.1901
89733W        W90597  26.170  15.278  24.175 -0.0041  0.0540  0.3210
89734W        W90598   0.696  16.895  10.229  0.0985 -0.0684 -0.0617
89735W        W90599   3.085  19.868  21.056 -0.0250  0.2533 -0.5322
89736W        W90600  19.140   0.419  14.933 -0.3183  0.0668  0.0878
89737W        W90601   6.377  27.228  21.298 -0.0932 -0.0201 -0.0723
89738W        W90602   5.646   8.166   6.458  0.1035 -0.1066 -0.1792
89739W        W90603  18.574  16.750  12.243 -0.1238  0.0029 -0.2523
89740W        W90604  10.314  15.350   6.446 -0.1174  0.1536  0.0584
89741W        W90605   0.986  19.031   7.574 -0.2761 -0.0543  0.0127
89742W        W90606  23.589   6.398   3.522 -0.2064 -0.0644  0.2096
89743W        W90607  25.259  22.432  27.651 -0.0525 -0.2656  0.1728
89744W        W90608  25.847   4.021   3.981  0.1541 -0.1866  0.1216
89745W        W90609  22.583   9.539  12.639  0.4224  0.1099 -0.0822
89746W        W90610   3.785  14.016  14.514 -0.0681  0.1096 -0.2654
89747W        W90611  27.869   2.611  22.526 -0.1399  0.3019 -0.3540
89748W        W90612  15.953   4.174  19.542  0.1524 -0.2406 -0.1254
89749W        W90613  26.127   5.856  17.471  0.0463 -0.0166  0.1823
89750W        W90614  11.696  10.260  10.685 -0.1044 -0.1290  0.2829
89751W        W90615  15.635   5.869  13.144 -0.2328 -0.0891  0.1066
89752W        W90616  18.025  24.499   9.948  0.2372  0.2752 -0.1958
89753W        W90617  22.341  13.764   1.630  0.1439 -0.2175  0.1358
89754W        W90618   3.048  17.374   7.943  0.0835  0.0669 -0.3445
89755W        W90619  21.580  14.304  14.296 -0.3743  0.2217  0.1469
89756W        W90620   3.916   6.390  15.615 -0.1581  0.0050 -0.1394
89757W        W90621   7.401  26.871   5.730 -0.1313  0.1380  0.0973
89758W        W90622  28.342  10.062  10.896 -0.4881  0.0471  0.0483
89759W        W90623  23.117  17.938  27.025 -0.0925  0.0670 -0.0508
89760W        W90624  19.488  14.306  24.121 -0.1728  0.0356  0.2836
89761W        W90625  17.999  12.036  23.662  0.0032  0.2298  0.1435
89762W        W90626  26.463  18.199   6.198  0.4621  0.2911  0.2143
89763W        W90627   0.101  22.216  26.762 -0.1581 -0.0746  0.0726
89764W        W90628  28.004  23.854   4.081 -0.1274 -0.0291  0.1540
89765W        W90629  26.571  18.646  24.603 -0.1579  0.0364 -0.1490
89766W        W90630   2.919  11.411  13.454  0.3361 -0.0189 -0.1598
89767W        W90631   6.363   7.629  18.292 -0.1494 -0.1414  0.3623
89768W        W90632   8.964  13.481  12.178 -0.3429  0.0184  0.4827
89769W        W90633  23.129  27.846   2.694 -0.0977 -0.1812 -0.0092
89770W        W90634  20.887  24.080   6.576  0.0213 -0.3260 -0.0259
89771W        W90635  22.848   7.654  18.764 -0.0187 -0.0954 -0.4130
89772W        W90636   9.654   4.435  16.463  0.0802  0.0154 -0.1357
89773W        W90637  16.041  29.031  27.616 -0.2273 -0.0136  0.2863
89774W        W90638  22.351  21.359  27.211 -0.2783  0.1234 -0.2003
89775W        W90639  27.385   7.687   2.363  0.1651 -0.0520  0.0576
89776W        W90640  10.968  16.378   0.332 -0.0184  0.1645 -0.0125
89777W        W90641  16.456   2.882   8.655  0.0979  0.1007 -0.0266
89778W        W90642  25.673   9.097  27.536 -0.3408 -0.0455  0.1378
89779W        W90643  19.213   7.561  13.099 -0.0673 -0.3041  0.0502
89780W        W90644   7.908  27.624  14.729  0.2917 -0.0020 -0.0911
89781W        W90645  19.864  20.312   0.890  0.1480  0.6791 -0.1226
89782W        W90646  17.742  20.503  23.165 -0.0586  0.0342  0.1937
89783W        W90647  20.678   3.474  14.653  0.2050 -0.3372 -0.3277
89784W        W90648   6.835  26.448  11.571  0.0353 -0.2173  0.0262
89785W        W90649  22.083  10.022  27.661  0.0424 -0.2019 -0.2861
89786W        W90650   0.748  26.626  11.756 -0.0111  0.0186  0.2280
89787W        W90651   2.202  10.118  19.360  0.0487  0.4543 -0.1841
89788W        W90652   0.814  20.233  25.324  0.1127  0.1422 -0.2073
89789W        W90653  15.967  11.887  25.356 -0.0648  0.0380  0.1207
89790W        W90654  24.228   0.580   4.369 -0.1603 -0.2717 -0.1554
89791W        W90655  21.506  26.162   2.038  0.3316  0.2717  0.1596
89792W        W90656  18.167  10.688   4.091  0.1352  0.0216  0.1402
89793W        W90657  26.501  24.951  24.935  0.2754  0.1518  0.0518
89794W        W90658  20.032  28.645  14.600 -0.4467 -0.3329 -0.2226
89795W        W90659  10.304   6.774  10.799  0.0687 -0.0173 -0.0027
89796W        W90660  23.873  17.868   3.915 -0.0459  0.1659  0.0602
89797W        W90661  26.916  20.307   9.512  0.0253  0.1575 -0.0592
89798W        W90662   2.620  28.772  14.881  0.0458  0.2241  0.3004
89799W        W90663  27.275  12.980  13.666 -0.2394 -0.3061  0.0766
89800W        W90664  19.225   5.134   3.652 -0.1173 -0.0331  0.3314
89801W        W90665   9.466   5.918  20.354  0.0012  0.2595  0.1577
89802W        W90666  21.740  17.467  12.046 -0.3858  0.0367  0.0382
89803W        W90667  25.261  13.794  22.674 -0.1351  0.0885  0.2960
89804W        W90668   3.019   4.838   7.751  0.0272  0.3052 -0.1738
89805W        W90669   4.735  15.936  11.655  0.0529  0.1218  0.2514
89806W        W90670   4.253  18.667  17.210  0.3249 -0.0505  0.0215
89807W        W90671  18.352   3.347  10.026  0.0466 -0.0846  0.0004
89808W        W90672  11.110   7.328  14.120  0.0471  0.1998 -0.0145
89809W        W90673   2.263  11.131  21.601 -0.0693  0.3824 -0.1645
89810W        W90674  22.487  13.109   3.786 -0.1809 -0.0866 -0.0081
89811W        W90675  25.728  13.021  21.997 -0.0418  0.0138 -0.1104
89812W        W90676   1.769  21.383   3.276 -0.0889 -0.1703  0.3082
89813W        W90677  16.713   2.693  10.161 -0.2400  0.1479 -0.0260
89814W        W90678  21.522   9.790  22.066 -0.0017  0.0625 -0.0530
89815W        W90679  13.963   9.913  22.847  0.2445  0.0454 -0.1876
89816W        W90680   2.842  28.400  12.755  0.1570 -0.4709 -0.0750
89817W        W90681   3.950  10.753   6.452 -0.3236 -0.0157 -0.2538
89818W        W90682  14.205   9.638   5.162  0.3420 -0.1386  0.0588
89819W        W90683   3.356   6.000  25.169  0.4649  0.2925  0.1049
89820W        W90684  21.978   7.259   3.593 -0.3492  0.3648  0.0394
89821W        W90685  26.027  17.492   3.620  0.2133 -0.0852 -0.0518
89822W        W90686   8.913   5.639  27.397  0.0646  0.1144 -0.0668
89823W        W90687   5.518  13.345  15.402  0.1194  0.0892  0.1461
89824W        W90688  23.367   5.971  26.879 -0.0205  0.0074 -0.1621
89825W        W90689   3.357  10.846  14.145 -0.2303  0.1176  0.1675
89826W        W90690  24.013  10.428   4.569  0.2495 -0.0559 -0.0332
89827W        W90691   3.722  13.394  23.308 -0.0000 -0.0188 -0.1997
89828W        W90692   4.312  18.401  24.092 -0.2309  0.4710  0.4905
89829W        W90693   0.437   1.053  28.896  0.1120 -0.2788 -0.1936
89830W        W90694  23.130   4.586  11.210  0.0665 -0.3113  0.1079
89831W        W90695  12.755   8.385  20.814 -0.3248 -0.1920 -0.1008
89832W        W90696  22.002  28.093  20.742  0.1367 -0.1826 -0.1495
89833W        W90697  22.628  16.759  11.095  0.1068  0.0519  0.0601
89834W        W90698  13.723  27.699  12.492  0.0510  0.1271  0.3828
89835W        W90699  21.384  12.999  18.421  0.1813 -0.3135  0.2744
89836W        W90700  21.942   5.252  19.394  0.0909 -0.1028 -0.1675
89837W        W90701  24.807  20.858  24.682  0.2849  0.2031  0.1233
89838W        W90702  28.098  14.794  11.770 -0.0937 -0.0118 -0.0895
89839W        W90703  28.399  25.073   8.144 -0.2383 -0.1365 -0.1032
89840W        W90704  21.098  28.204  18.628 -0.0583  0.2011  0.1102
89841W        W90705  21.059   8.443  26.244 -0.2641 -0.0547 -0.2890
89842W        W90706  15.800  15.425  21.665  0.0099  0.0241 -0.1468
89843W        W90707   7.165  16.435  19.638 -0.1121  0.0868 -0.0683
89844W        W90708  21.163  12.954  19.638 -0.2998  0.0219  0.1210
89845W        W90709  20.262  25.132   9.080  0.0985 -0.0678 -0.0264
89846W        W90710  22.538   7.566  10.027  0.1254 -0.1854  0.1055
89847W        W90711  16.379  19.322  24.885 -0.0838 -0.1523 -0.0765
89848W        W90712  20.293  20.792  28.059 -0.1342 -0.0623  0.4100
89849W        W90713  24.579   6.170   4.483 -0.1941 -0.1633 -0.2007
89850W        W90714  14.313  17.310   6.000 -0.0910  0.1999  0.1353
89851W        W90715   2.792   4.953  11.309 -0.3924 -0.1251 -0.1459
89852W        W90716  12.689  20.113  17.808  0.2053 -0.2375 -0.1259
89853W        W90717   3.076  11.129   3.678 -0.0397 -0.0390 -0.0267
89854W        W90718  25.296   0.572  12.520  0.0827  0.2687  0.2074
89855W        W90719  18.324   3.050  12.570 -0.0547  0.2578  0.0592
89856W        W90720  14.607  16.158   3.527  0.2712  0.1061 -0.4176
89857W        W90721  26.246  10.071  11.740  0.2999  0.0490  0.0258
89858W        W90722   9.423  14.667   3.438  0.0852 -0.0104 -0.1969
89859W        W90723  15.553  20.275  17.571  0.3079  0.1333  0.0709
89860W        W90724  26.892  27.707  16.687 -0.0111  0.2367  0.0119
89861W        W90725  16.531   8.610  24.202 -0.1893 -0.2952  0.1647
89862W        W90726   8.040   0.711  14.879 -0.2359 -0.0204 -0.0181
89863W        W90727  27.941  11.050  14.231 -0.0593 -0.0068  0.2125
89864W        W90728  21.066  24.254  25.307  0.1013  0.2869 -0.2596
89865W        W90729  12.899  15.713   0.917  0.2222 -0.0015 -0.2399
89866W        W90730   3.558  24.751   7.856 -0.1285  0.1073 -0.1530
89867W        W90731  19.915   4.209  28.740 -0.3214  0.2078  0.0539
89868W        W90732   7.455  22.820  15.360 -0.1910 -0.4662 -0.0525
89869W        W90733  18.695   4.113  25.789 -0.1594  0.2154  0.1350
89870W        W90734   3.411   2.602   6.611 -0.1730 -0.1851  0.1514
89871W        W90735   8.224  16.081   2.308  0.0855 -0.2319  0.0261
89872W        W90736  12.254  18.969  14.706 -0.0050 -0.1892 -0.0452
89873W        W90737   1.133   6.626  26.629 -0.4241 -0.1433  0.3810
89874W        W90738  24.473  26.988  28.454 -0.1595 -0.0186 -0.1329
89875W        W90739  19.574  28.429   8.582  0.1081 -0.1613 -0.1816
89876W        W90740  27.108  21.251   7.938  0.3535  0.1649 -0.0406
89877W        W90741  23.804  16.323  20.512 -0.0654 -0.0139 -0.0033
89878W        W90742  11.284  12.745  16.728 -0.1454  0.2897 -0.0955
89879W        W90743  19.390  15.955   2.767  0.3204 -0.4460 -0.0293
89880W        W90744  26.308  11.782  11.999  0.1520  0.1018 -0.2227
89881W        W90745   6.103  26.818  16.874  0.1035 -0.0879  0.0415
89882W        W90746  26.836  18.659   0.658 -0.0670  0.0829  0.1647
89883W        W90747  29.129   7.977   1.480 -0.0589  0.0125 -0.1822
89884W        W90748  16.810   6.437  11.126  0.1307  0.2163  0.3816
89885W        W90749   2.906   0.337  28.013  0.3101 -0.0925 -0.2256
89886W        W90750   0.637  21.889  10.144  0.3501 -0.0031  0.0566
89887W        W90751  14.293   8.742  12.297 -0.3080  0.2518  0.2747
89888W        W90752  27.717   8.147   0.108  0.1883 -0.2453 -0.0169
89889W        W90753  26.726   7.052   6.440 -0.1723 -0.4919  0.2214
89890W        W90754  24.863  14.267  27.199 -0.2338  0.2557 -0.0127
89891W        W90755  12.914   9.983   1.610  0.0537 -0.1984 -0.2403
89892W        W90756  21.108  11.828   9.180 -0.0530 -0.0998  0.1695
89893W        W90757  13.117   6.268  12.425 -0.3365 -0.1781  0.0781
89894W        W90758  28.974   2.430   2.152 -0.0622  0.1773  0.2493
89895W        W90759  29.078   4.466   9.226  0.2614 -0.0200 -0.0809
89896W        W90760  22.796   0.962   9.777 -0.3540  0.2147  0.0855
89897W        W90761  28.441   0.689  16.115 -0.1945  0.1549 -0.2370
89898W        W90762  25.347   4.257  15.102 -0.0711  0.1715  0.3826
89899W        W90763   4.297   3.997   5.018 -0.2745 -0.2009  0.0243
89900W        W90764  26.622   8.698   5.341 -0.3774  0.1199 -0.1385
89901W        W90765  26.956  13.060  12.978  0.1920  0.2869 -0.3294
89902W        W90766  12.003   4.762  16.705  0.2032  0.2338 -0.0676
89903W        W90767   9.507  14.481   2.925  0.1289 -0.0619  0.3802
89904W        W90768  19.114   8.994   6.943  0.0817 -0.0584  0.1595
89905W        W90769   6.570   4.641   4.895  0.0186  0.1781  0.0956
89906W        W90770  25.105  18.664   6.759 -0.1565  0.3971 -0.2117
89907W        W90771  16.173  18.292  26.770  0.0424 -0.0016 -0.1053
89908W        W90772   9.312   6.372   9.141  0.0076  0.1116 -0.0710
89909W        W90773  14.011  14.827  19.304 -0.1211  0.1341  0.3266
89910W        W90774   0.125  16.952   9.023  0.4024 -0.0798 -0.1065
89911W        W90775   3.890  25.387  26.407 -0.0946 -0.2074 -0.0465
89912W        W90776  20.907   8.012   8.187 -0.0435  0.0614  0.1424
89913W        W90777   4.196   9.933   2.140  0.2694  0.2302 -0.0885
89914W        W90778  11.296   3.719  28.277  0.1989  0.0889 -0.1099
89915W        W90779  26.187   1.341   7.825  0.2433 -0.0029  0.1533
89916W        W90780  11.555  16.276  20.296 -0.0352  0.0891 -0.0765
89917W        W90781   4.211  10.908   6.847  0.0007 -0.0364  0.0932
89918W        W90782  18.221  28.743   5.955  0.0603  0.2742  0.1816
89919W        W90783  11.660  23.653  17.783 -0.2634  0.1362 -0.0441
89920W        W90784   5.215   0.954   4.641 -0.0435  0.2808  0.2209
89921W        W90785  18.171  11.607   5.836 -0.0462  0.2105 -0.1449
89922W        W90786   4.200   5.609  11.645 -0.2510  0.1996 -0.0931
89923W        W90787  18.512   6.723   4.237  0.1265 -0.2352 -0.2609
89924W        W90788   3.369  26.219   5.281 -0.0864  0.0086  0.0884
89925W        W90789  14.923  18.073  12.863 -0.0041  0.5187 -0.0577
89926W        W90790   5.293  16.660  10.786  0.0454  0.1154  0.1210
89927W        W90791  11.511  28.152  25.346  0.1436  0.1077 -0.0470
89928W        W90792  15.643   8.026   2.951  0.1679 -0.1605 -0.0213
89929W        W90793  15.740  17.560  11.698  0.2301  0.2915 -0.1900
89930W        W90794  11.766  28.105  10.147  0.3579 -0.3246 -0.1587
89931W        W90795   5.430  28.881   7.590 -0.1688 -0.0749  0.1617
89932W        W90796  28.977   9.417  22.618 -0.0786 -0.1216 -0.0796
89933W        W90797  28.194  24.866  10.849  0.0376  0.1389  0.1785
89934W        W90798   0.511   7.880  10.668  0.2152 -0.0723  0.0600
89935W        W90799  13.821  25.661  25.981  0.1819  0.1053 -0.2786
89936W        W90800  23.000  13.764  10.691  0.1478  0.2265  0.0989
89937W        W90801  21.561  15.177   8.299  0.2391  0.0576  0.3040
89938W        W90802  15.188  11.741  21.581 -0.0126 -0.2482 -0.0386
89939W        W90803  28.008  11.956  22.301  0.1432 -0.3337  0.4023
89940W        W90804   5.544  13.627   6.124 -0.0303 -0.2989 -0.1724
89941W        W90805  13.019  20.469   4.664 -0.2056  0.1881 -0.1085
89942W        W90806  19.398   5.114   6.013  0.0448  0.0681  0.0263
89943W        W90807   3.133   3.465   1.963  0.4237 -0.1608  0.0506
89944W        W90808  25.782   4.744   9.368  0.1164  0.4501  0.1485
89945W        W90809  15.828   1.594  20.870  0.0706 -0.1419  0.0383
89946W        W90810   2.702  10.535   3.408 -0.1987  0.0797  0.0583
89947W        W90811  16.547   4.092  14.223  0.1264  0.1899 -0.1548
89948W        W90812  15.731  14.991  13.105 -0.0641  0.0221  0.1192
89949W        W90813  19.802  15.545  11.910 -0.1169  0.1003 -0.0717
89950W        W90814   3.139  23.107  15.636 -0.2254  0.1979 -0.0007
89951W        W90815  11.599  23.810  10.866  0.2695  0.4628 -0.2397
89952W        W90816  21.100   9.104  14.837 -0.1739 -0.3559 -0.1208
89953W        W90817  24.043  18.380  11.343  0.2552 -0.0228  0.0327
89954W        W90818  20.609  27.693  23.149  0.1162  0.1323  0.0281
89955W        W90819  25.354  16.640  10.954  0.2123 -0.2487  0.2018
89956W        W90820   2.807   0.075   9.474 -0.0587  0.0721  0.1995
89957W        W90821   6.873  16.916   6.508  0.1837  0.0485 -0.0829
89958W        W90822  19.054   4.187  23.870  0.0703  0.0251 -0.2228
89959W        W90823  24.905  17.343   6.478  0.1526 -0.0475  0.0070
89960W        W90824   6.949   2.788   6.142 -0.0446 -0.2105 -0.1920
89961W        W90825  19.627  13.682   8.460  0.2859 -0.2173 -0.2077
89962W        W90826  10.225  11.233   5.422  0.2960 -0.1076  0.0069
89963W        W90827  10.663   9.839   5.150 -0.2062 -0.2191  0.2092
89964W        W90828  27.999  24.112  12.078  0.2947 -0.2259  0.2085
89965W        W90829   7.748   7.507   2.871 -0.0191  0.0552  0.0915
89966W        W90830  20.313  21.961   2.304 -0.2714  0.0878  0.1704
89967W        W90831   1.308  11.133  16.480  0.1562 -0.1950 -0.1872
89968W        W90832  20.571   8.216  11.411  0.1448 -0.2765  0.0133
89969W        W90833   0.440   0.539  28.473  0.1623 -0.1043 -0.0840
89970W        W90834  10.480  13.743   9.035  0.1143  0.0533  0.0545
89971W        W90835  14.962  17.635  19.099  0.0265  0.0749 -0.2523
89972W        W90836  26.176  17.994  16.319 -0.1035  0.0881 -0.1493
89973W        W90837  15.020  11.400  15.621 -0.1987 -0.1882 -0.0293
89974W        W90838   0.247   4.713  16.321 -0.1620  0.4242 -0.0367
89975W        W90839  23.809  14.087  22.755  0.0789  0.0902 -0.2306
89976W        W90840   9.225  23.390   4.326 -0.1344 -0.1018  0.1640
89977W        W90841  25.887   3.179  28.660 -0.1644  0.0256  0.2755
89978W        W90842  28.107  26.127   4.804 -0.2947  0.1444 -0.1824
89979W        W90843   0.169  12.989   9.542 -0.1098  0.0261 -0.0136
89980W        W90844  11.662   7.295  17.317 -0.2095 -0.0792 -0.2057
89981W        W90845  23.229  20.979  21.519  0.1258 -0.1201  0.0053
89982W        W90846  10.203  12.823   2.877 -0.1646 -0.1712  0.0039
89983W        W90847   0.683  25.734   1.424  0.0655  0.0832  0.0101
89984W        W90848  25.977   5.464  16.438  0.2171  0.1493 -0.0407
89985W        W90849  28.685  12.223   8.810 -0.0048  0.0107  0.0643
89986W        W90850  27.917   0.986   3.504  0.3487  0.0390  0.3313
89987W        W90851  20.782   9.314  21.887 -0.1662  0.2509 -0.1416
89988W        W90852  17.864  16.113  12.606  0.0110  0.2995 -0.2439
89989W        W90853   5.970   2.483   5.512 -0.3638 -0.0454 -0.0432
89990W        W90854  18.008  12.060  25.507  0.0393  0.2234  0.0325
89991W        W90855  11.204  20.669  17.555 -0.3824 -0.0814 -0.4148
89992W        W90856   2.175  18.607  19.918 -0.1524  0.3867 -0.1114
89993W        W90857   4.301  20.275  22.659 -0.0131 -0.0554  0.1061
89994W        W90858  20.430  14.923  22.252  0.1594 -0.0677  0.0191
89995W        W90859  24.316  18.647  18.840  0.1338  0.0637  0.2340
89996W        W90860  26.684  21.646  23.186 -0.0428  0.0678 -0.0250
89997W        W90861  17.395  14.042   5.622 -0.2668  0.1017  0.0196
89998W        W90862  28.997  13.170  27.471  0.0701  0.0328 -0.0003
89999W        W90863  16.474   9.259   4.081  0.0328 -0.0419  0.1121
90000W        W90864   7.829  15.423   8.065  0.0685 -0.1080  0.0292
90001W        W90865   0.334  14.783   9.861 -0.1583 -0.1525 -0.0060
90002W        W90866   6.346  21.598   7.272  0.0921 -0.0903 -0.1511
90003W        W90867  28.087   6.293  23.263 -0.1265  0.1496 -0.0745
90004W        W90868  17.532  13.152   3.003 -0.1963 -0.2105  0.0741
90005W        W90869  26.737  24.557  16.604  0.1286 -0.2592 -0.0411
90006W        W90870  23.184   2.105   1.851  0.1759  0.1922  0.1450
90007W        W90871  23.817   4.121  25.599  0.2226 -0.0258  0.1848
90008W        W90872  21.949  22.207  12.343  0.0367  0.0449  0.0234
90009W        W90873  16.788  15.590  17.288  0.1251 -0.3478  0.2509
90010W        W90874  12.594  15.757  21.758  0.2284 -0.3166 -0.0545
90011W        W90875  12.577  24.184  24.174  0.1160 -0.1963  0.1611
90012W        W90876  19.784  21.437  23.392 -0.1293  0.0255  0.0469
90013W        W90877   6.336   3.412  11.835  0.0076  0.2836 -0.1613
90014W        W90878  27.918   1.526   3.539  0.3736  0.0170 -0.2130
90015W        W90879  27.779   7.303   1.172 -0.0313  0.2992  0.1882
90016W        W90880   9.529  12.622  11.283 -0.0873  0.0365  0.1681
90017W        W90881  20.943   3.284   8.755 -0.0415 -0.3734  0.0259
90018W        W90882   7.937   3.958  28.620  0.0297 -0.1676  0.4736
90019W        W90883  20.223   2.604   7.926 -0.1062 -0.1054 -0.0956
90020W        W90884  26.121  28.446   0.195 -0.1318 -0.0159 -0.2231
90021W        W90885   4.017  22.514  21.076 -0.0430 -0.1604 -0.0626
90022W        W90886  18.923   9.214  16.063  0.2291  0.1631  0.0663
90023W        W90887  28.365  13.998  10.702  0.0168  0.1934 -0.1680
90024W        W90888  15.013  25.329   4.054  0.2005 -0.2435  0.0938
90025W        W90889  18.943  12.955  24.563  0.0587 -0.2357 -0.0757
90026W        W90890  22.541  10.603  10.685 -0.1590  0.0078  0.0079
90027W        W90891   7.417  16.006  13.290  0.1335 -0.3176 -0.0073
90028W        W90892   7.959   9.822  22.487  0.1178 -0.0370 -0.2633
90029W        W90893  26.524  15.486  20.302  0.1360  0.1080  0.0891
90030W        W90894  23.329   6.256   2.413  0.2053  0.1366 -0.3601
90031W        W90895  10.486  18.666  20.895 -0.4237  0.2092  0.0212
90032W        W90896   3.443   3.089  22.162 -0.1033 -0.1136 -0.0905
90033W        W90897  15.331  20.071   1.246 -0.0715 -0.0625  0.1575
90034W        W90898   2.450  22.116   0.031 -0.3109  0.0593  0.0076
90035W        W90899   1.586   7.164  27.892 -0.3129 -0.1886 -0.1777
90036W        W90900  17.521  10.649  13.223  0.2248  0.0058  0.0612
90037W        W90901  20.902   3.781   6.135  0.1729  0.0173 -0.6148
90038W        W90902  23.972   7.013   2.300  0.0051 -0.0323 -0.0240
90039W        W90903  18.609  14.536   3.579  0.3794 -0.1182 -0.2539
90040W        W90904  17.879  17.441  11.205  0.3264  0.0049  0.1599
90041W        W90905  17.768  17.127  13.474 -0.0588  0.1618  0.1820
90042W        W90906  20.167  14.881  10.455  0.1000 -0.0047 -0.0197
90043W        W90907  26.277  25.129   4.206  0.3520 -0.0215 -0.1579
90044W        W90908  23.182   1.846   0.127  0.2997 -0.0299  0.1672
90045W        W90909  21.793  10.825  23.384  0.0983 -0.0483 -0.0675
90046W        W90910  10.892  28.317  12.724  0.1351 -0.1699  0.3122
90047W        W90911   5.507  23.896  22.641  0.0860  0.1317  0.2031
90048W        W90912  24.645  20.409  18.717 -0.0301  0.3619  0.0541
90049W        W90913  22.421  15.813   2.728  0.1448 -0.1148 -0.0030
90050W        W90914   6.703   5.839  11.336  0.1719 -0.1316  0.0192
90051W        W90915  25.768  27.145   5.943  0.0776 -0.0660 -0.4344
90052W        W90916  23.284   6.682  11.939  0.3363 -0.1311  0.1143
90053W        W90917  27.591  10.206   6.339  0.0492 -0.0153  0.0040
90054W        W90918   4.945   1.729   7.858 -0.0576  0.3296  0.1501
90055W        W90919  15.636  28.706  23.691 -0.0673 -0.2590 -0.0486
90056W        W90920  18.287  25.974  17.565  0.2412  0.1701 -0.1335
90057W        W90921   3.320  24.541  16.022 -0.0533 -0.2277 -0.2457
90058W        W90922   8.246  15.254   3.235  0.4694 -0.3607  0.0851
90059W        W90923  26.659  20.065  17.219 -0.0633 -0.1490  0.1678
90060W        W90924  14.948   7.641   0.903 -0.0289  0.0857  0.0186
90061W        W90925  16.533   9.248  12.285  0.0469 -0.1814 -0.0317
90062W        W90926  28.305   3.583   5.634 -0.1566  0.1265  0.0717
90063W        W90927   8.947  12.930   6.135 -0.0135  0.0466 -0.0387
90064W        W90928   2.345  16.377   9.907 -0.0586 -0.0352 -0.1168
90065W        W90929  12.216  27.450   1.171 -0.0306 -0.1448 -0.1897
90066W        W90930   4.100  25.560  10.128 -0.2889  0.0736 -0.1405
90067W        W90931  25.154  20.492  24.595 -0.0491 -0.1175  0.1114
90068W        W90932   3.216   7.326  22.273 -0.1038 -0.0778 -0.2463
90069W        W90933  24.112  16.684   2.854 -0.1933  0.0260 -0.2337
90070W        W90934  26.217   6.740  22.559 -0.1391 -0.0871  0.0174
90071W        W90935   8.786  10.182  26.101 -0.0162  0.0702  0.1899
90072W        W90936  13.387  17.940  15.161  0.1237  0.1764 -0.1101
90073W        W90937  23.290   5.620  21.525  0.0296 -0.1285 -0.0766
90074W        W90938   6.952  16.398   5.530 -0.2516  0.0205 -0.1274
90075W        W90939  23.978   6.703   8.617 -0.1223  0.0495 -0.0592
90076W        W90940   8.635  22.193  15.130 -0.1964 -0.3393  0.1088
90077W        W90941  20.881   7.887  24.279 -0.0240  0.4731 -0.0594
90078W        W90942  11.525  15.828  26.714  0.0896  0.0069 -0.2555
90079W        W90943   1.992  19.475  14.750  0.1104 -0.1845 -0.2112
90080W        W90944   3.043  26.719  16.168 -0.0937 -0.0107 -0.1281
90081W        W90945  21.485  24.379  28.386 -0.1646  0.0512  0.2636
90082W        W90946   9.399  13.949   4.384 -0.0165 -0.1710 -0.0013
90083W        W90947   7.594  14.418   6.870  0.0610 -0.0833  0.4136
90084W        W90948  20.960  15.875  15.991  0.5414 -0.2467  0.2237
90085W        W90949  27.689   0.236  24.103  0.1086 -0.0284  0.3616
90086W        W90950  15.756  14.168  12.390  0.2293 -0.0786 -0.2849
90087W        W90951   2.444   4.927  13.971 -0.1526 -0.2595  0.2130
90088W        W90952  28.863  25.055  11.592  0.0436  0.2393 -0.3080
90089W        W90953  20.622  20.565   4.085 -0.0920 -0.0250  0.2498
90090W        W90954   0.674  10.197  16.641 -0.2088 -0.0758  0.0987
90091W        W90955  24.882  17.987  23.926 -0.0425 -0.1242 -0.1378
90092W        W90956  15.009  18.767  11.043 -0.3171 -0.1974 -0.2736
90093W        W90957  21.149  10.120   8.808  0.0678 -0.2468  0.0545
90094W        W90958  23.005   3.062  13.374 -0.1448 -0.1198 -0.0757
90095W        W90959  18.663  12.719   0.325 -0.0276  0.1975 -0.0162
90096W        W90960  18.348  18.932  15.004 -0.0379  0.1094 -0.0396
90097W        W90961  16.557   5.227  26.105  0.2859 -0.0419 -0.4154
90098W        W90962  19.446  19.060   9.782 -0.0154  0.0555 -0.1546
90099W        W90963  24.286  18.712   9.605 -0.3280  0.0759 -0.0245
90100W        W90964  28.574  25.375   1.391  0.1765 -0.2561 -0.1243
90101W        W90965  22.587   7.912  21.169  0.1056  0.0227 -0.2054
90102W        W90966   7.288  23.053  19.407 -0.3301  0.2364 -0.0738
90103W        W90967  24.084  16.016  19.418  0.0337 -0.3006 -0.0182
90104W        W90968   4.296  18.311  14.287  0.0383 -0.0591 -0.0099
90105W        W90969   3.942  20.069  21.035  0.0553 -0.0774  0.4181
90106W        W90970  12.688   9.040  22.400 -0.2324 -0.1239  0.2930
90107W        W90971   4.649  16.190   9.736 -0.1563  0.1646  0.1032
90108W        W90972   0.748  14.176  12.823 -0.1146 -0.0301  0.1361
90109W        W90973  23.359  28.106   5.775 -0.0002 -0.5704  0.3267
90110W        W90974  24.974  15.561  24.798 -0.1760 -0.3092  0.1543
90111W        W90975  28.160  24.919  14.727 -0.0834 -0.2434 -0.0565
90112W        W90976   9.667  10.177   8.559  0.0982 -0.0853 -0.0379
90113W        W90977   9.878  10.481  16.486  0.1183 -0.0258 -0.1919
90114W        W90978   7.564   5.917   1.854  0.4150 -0.0235 -0.1667
90115W        W90979  25.776   6.532  12.081 -0.2451  0.0533  0.0207
90116W        W90980   4.163   0.544  27.210  0.1026  0.2877 -0.0690
90117W        W90981  17.217  25.541  24.392  0.0431  0.2073  0.0722
90118W        W90982  15.877  17.319  23.335  0.2367  0.2119 -0.0462
90119W        W90983   7.811  18.633  18.206  0.3389  0.1595 -0.2815
90120W        W90984   2.882  11.142  20.343  0.0934 -0.1285  0.0632
90121W        W90985  22.435  28.645   7.720  0.0310  0.0984 -0.1080
90122W        W90986   5.734  23.932  22.191  0.0601 -0.0123 -0.2109
90123W        W90987  14.398  18.366  19.289 -0.1159 -0.1486 -0.0529
90124W        W90988  23.112  18.511  12.367 -0.2695  0.0162  0.2457
90125W        W90989   7.890  11.873   0.340 -0.1629  0.1232 -0.1174
90126W        W90990  20.184  13.020  10.679 -0.3586 -0.0913 -0.0137
90127W        W90991  12.238  18.012  18.254 -0.1643 -0.4832  0.0277
90128W        W90992   9.992   0.619  14.570 -0.1536 -0.0309  0.1165
90129W        W90993  28.426   3.246  13.653  0.0649  0.1142  0.0416
90130W        W90994   1.914  11.360  15.145  0.1567  0.0938 -0.1335
90131W        W90995  23.692  18.004   5.178 -0.2387 -0.1794  0.0927
90132W        W90996  27.976  16.439  18.291  0.0910  0.5384  0.1661
90133W        W90997  16.282  12.528  15.294 -0.0029  0.2212  0.1709
90134W        W90998  14.741   3.769   8.529 -0.2119 -0.1717 -0.3943
90135W        W90999  13.803  18.365  15.188 -0.0546  0.1448 -0.0381
90136W        W91000   0.246   4.900  15.179 -0.1325  0.4353 -0.2830
90137W        W91001  11.512   0.119  28.718  0.1918  0.2700 -0.3854
90138W        W91002   8.882  11.890  20.407 -0.1133 -0.1497  0.2326
90139W        W91003  27.194   6.332  10.212  0.0601 -0.1140  0.0171
90140W        W91004   8.012  11.523  19.321  0.1151 -0.0616  0.0606
90141W        W91005   8.643  19.433  14.134  0.0851  0.1185 -0.0579
90142W        W91006  22.483  18.731  23.448 -0.2192 -0.0949  0.0826
90143W        W91007  22.981  10.891   7.520  0.1915 -0.0212 -0.3237
90144W        W91008   3.142  28.321  16.894 -0.1263 -0.1859 -0.0683
90145W        W91009  26.279  10.095  10.775  0.2854  0.0265 -0.1123
90146W        W91010  12.592  12.352  25.944  0.1863  0.1309 -0.1167
90147W        W91011  27.621  20.097  18.803  0.1300 -0.0891 -0.0202
90148W        W91012  20.644  13.089  14.683  0.0550  0.1333 -0.0306
90149W        W91013  14.199   3.954  26.311 -0.2469  0.1508  0.0860
90150W        W91014  17.929  17.549  16.871 -0.1638 -0.2167  0.3507
90151W        W91015  24.302  22.340  13.634 -0.0205  0.1302  0.0635
90152W        W91016  26.151   8.911  10.402  0.0157  0.0829  0.1095
90153W        W91017   7.987  13.369   6.249  0.2241 -0.0827  0.0195
90154W        W91018   3.501  15.576  10.780 -0.0267  0.0498  0.0745
90155W        W91019  26.279  10.964  10.101  0.2640 -0.0650 -0.0512
90156W        W91020  10.935  16.381  15.055 -0.0502  0.0140 -0.2600
90157W        W91021  22.624  26.103   8.785  0.1929  0.0622  0.2070
90158W        W91022  19.679   9.566   8.482  0.0604 -0.0786  0.0073
90159W        W91023  11.941  11.161   9.284  0.3494 -0.0439  0.3307
90160W        W91024  10.111   2.952  12.775  0.0715  0.0137  0.0083
90161W        W91025  20.806  10.205   6.306 -0.2546 -0.0073  0.2743
90162W        W91026  15.933  19.092   7.811  0.1112 -0.1693  0.0796
90163W        W91027   8.799  13.195  23.470 -0.0377 -0.1367 -0.0235
90164W        W91028  22.181   3.261  14.807 -0.1485 -0.1259  0.1622
90165W        W91029  20.331  21.301   6.403 -0.1859  0.1506 -0.1125
90166W        W91030  26.644  16.423   4.260 -0.1710 -0.2351  0.0620
90167W        W91031  20.684  12.203  19.795 -0.0422  0.0652  0.0212
90168W        W91032   1.896   9.523  27.935 -0.2193 -0.4486  0.0550
90169W        W91033   8.932   9.228   9.948 -0.4854 -0.1666 -0.0596
90170W        W91034  14.575  17.002  11.790  0.0898 -0.1026 -0.0346
90171W        W91035   6.868  12.899  12.879 -0.0583  0.2879 -0.3803
90172W        W91036  16.448  15.768  23.735 -0.1919 -0.1590  0.3780
90173W        W91037  10.021   0.195  21.526 -0.3505  0.2225  0.0349
90174W        W91038  21.587  16.866  14.418 -0.1375 -0.1894 -0.4997
90175W        W91039  23.539  10.462  27.277 -0.0899 -0.0752 -0.0948
90176W        W91040  28.873   9.221  12.836 -0.1751 -0.0051 -0.0980
90177W        W91041  13.201   8.282  10.797 -0.0427  0.0470 -0.1342
90178W        W91042   1.691   0.550  23.395  0.1632  0.1746  0.2660
90179W        W91043   4.427   6.779  12.768  0.1435 -0.0249  0.1325
90180W        W91044   1.063  16.319  14.150 -0.0374  0.1810 -0.1749
90181W        W91045  28.250   7.624   5.536 -0.0584  0.0423  0.0289
90182W        W91046   3.276   8.583  24.172  0.0210  0.0577 -0.0609
90183W        W91047   8.366  14.391   7.737  0.0234  0.0146 -0.2046
90184W        W91048   0.320   7.725   8.873  0.0209 -0.1557  0.0124
90185W        W91049   1.841  10.313  26.385  0.0173 -0.0414  0.1644
90186W        W91050  23.589   7.664  14.669 -0.0082 -0.1795 -0.0007
90187W        W91051  18.844   3.337   8.435 -0.0819  0.0980  0.0746
90188W        W91052  17.880  19.991  13.419 -0.0977 -0.0236 -0.2693
90189W        W91053   1.010  23.316  25.764  0.3943  0.0645 -0.0934
90190W        W91054  25.912   2.401   6.484  0.3589 -0.0726 -0.1756
90191W        W91055  13.510  10.655  10.648 -0.3233 -0.0920 -0.1857
90192W        W91056   8.455  19.752  19.749  0.1259  0.3031 -0.1296
90193W        W91057  22.096   1.612  18.059  0.1205 -0.0728 -0.0850
90194W        W91058   2.652   8.934  14.255 -0.1108  0.4459  0.1617
90195W        W91059  25.097   1.576  16.213 -0.0531  0.0833 -0.0564
90196W        W91060  26.197   1.909  11.589  0.0062  0.2933  0.2251
90197W        W91061  17.430  20.919  27.411  0.3906 -0.1501 -0.0542
90198W        W91062  23.694   2.838   9.356 -0.1449 -0.1748  0.1494
90199W        W91063  13.024  26.251   0.183 -0.0143  0.1130  0.2164
90200W        W91064   5.327  15.427   8.129  0.3250 -0.2451 -0.1053
90201W        W91065  13.181  13.089  13.501  0.2013 -0.3765  0.2219
90202W        W91066  22.831   7.291  14.443  0.1549  0.0713 -0.0808
90203W        W91067   1.867  26.616   9.778  0.0323 -0.1942 -0.0328
90204W        W91068  10.564  24.116   4.169  0.1276  0.2767  0.1349
90205W        W91069  28.098   8.840  13.839 -0.1767  0.0211 -0.1221
90206W        W91070  19.666  15.993   0.167  0.2120  0.1923 -0.0914
90207W        W91071  20.762   8.343   7.366  0.1324  0.1651  0.0171
90208W        W91072   5.804   1.598   8.149 -0.0993 -0.2251 -0.0587
90209W        W91073  10.523  15.452   5.614  0.5677  0.1680 -0.0414
90210W        W91074  17.907   2.930  22.852 -0.0683 -0.2307 -0.2659
90211W        W91075  23.462   7.302  24.128 -0.0063 -0.1288 -0.1359
90212W        W91076  28.180  14.661   8.685  0.0735  0.0645  0.1402
90213W        W91077  16.677  19.288  16.294 -0.0250 -0.0955 -0.0917
90214W        W91078   7.751  14.187  28.010 -0.3162 -0.0576  0.3347
90215W        W91079   0.926  22.953  26.106 -0.1322  0.0799 -0.2228
90216W        W91080  22.471  10.328   8.726  0.2881  0.1205  0.2220
90217W        W91081  19.389   5.779  17.410  0.0989 -0.1702  0.0380
90218W        W91082   2.670  10.690   1.583 -0.1726  0.0784  0.1306
90219W        W91083  16.365   7.565   8.361 -0.1656 -0.2599 -0.3420
90220W        W91084  11.830   8.645  11.343 -0.1152 -0.2649 -0.0475
90221W        W91085   5.577  15.326   5.598 -0.1191 -0.1096 -0.1706
90222W        W91086   4.918  15.460   1.545  0.1841  0.0164 -0.1254
90223W        W91087  18.995  18.707   6.756 -0.0008  0.0092  0.0700
90224W        W91088   7.065  19.147  27.398 -0.0692 -0.1675 -0.2839
90225W        W91089   6.696   2.999  10.945  0.0790 -0.1114 -0.3087
90226W        W91090  10.648  20.507  11.650  0.1165  0.1318  0.0724
90227W        W91091  13.429   9.319   8.834 -0.1573 -0.1042  0.0254
90228W        W91092  18.101  18.613  19.728  0.0913  0.1908  0.1955
90229W        W91093  22.497  23.586  18.627  0.0010 -0.0546 -0.0060
90230W        W91094  12.099  14.893  21.935  0.0598 -0.1735 -0.0250
90231W        W91095  24.725   6.935  29.076  0.3692  0.0370 -0.0501
90232W        W91096  16.362   5.149   4.853 -0.0674 -0.1811  0.2114
90233W        W91097  17.243   9.059   8.943  0.2932  0.2446 -0.0052
90234W        W91098  13.132  12.039   6.516  0.0618 -0.0936 -0.1644
90235W        W91099  14.319   7.227   7.426 -0.0241 -0.0918  0.1937
90236W        W91100   4.650  15.785  26.081  0.3112  0.0660 -0.1896
90237W        W91101   2.780   7.785   8.386 -0.0287  0.1261  0.1838
90238W        W91102  13.184   8.273   9.391 -0.0768 -0.1885 -0.1194
90239W        W91103  21.326   7.941  12.487  0.1043  0.1519  0.0727
90240W        W91104  26.089  11.120  17.968 -0.1214  0.2077 -0.0758
90241W        W91105  20.117  11.536  13.367  0.2277 -0.3007 -0.0741
90242W        W91106  23.300  19.386  14.158  0.1903  0.0121  0.4433
90243W        W91107   2.346   8.525  14.097  0.3875 -0.0293  0.3236
90244W        W91108  19.564   2.055  19.422  0.1929 -0.3082 -0.1079
90245W        W91109  13.892   9.716  24.595 -0.0209  0.1078 -0.0795
90246W        W91110  18.506  22.437  14.768 -0.2429 -0.0172 -0.1767
90247W        W91111   1.885  12.237   7.102 -0.3830 -0.0060 -0.0042
90248W        W91112   7.365  21.011  13.293 -0.1111  0.0231 -0.1500
90249W        W91113   6.725   8.961  26.681 -0.1181  0.0920  0.1369
90250W        W91114   3.936  18.974  22.403 -0.1109  0.1516 -0.4104
90251W        W91115   2.246  14.836  14.759  0.2076  0.1332  0.0822
90252W        W91116  26.668  25.893   1.902 -0.1196  0.1960 -0.1288
90253W        W91117  23.151   9.747   9.895  0.0021 -0.1629 -0.2331
90254W        W91118  11.439   5.494  15.064  0.4339 -0.1224 -0.0104
90255W        W91119  15.267  23.053  19.104  0.1581  0.0610  0.2311
90256W        W91120   1.223   2.648  11.723  0.0757  0.1482 -0.0026
90257W        W91121  27.094   8.817  21.396 -0.3829  0.1748  0.1735
90258W        W91122  14.979  16.518  14.154 -0.0290 -0.1081  0.0607
90259W        W91123   8.516  21.437  23.267 -0.0063  0.2763 -0.0658
90260W        W91124  19.318  10.701  14.449 -0.0154  0.1168 -0.2998
90261W        W91125   2.377   5.053   7.016  0.0627 -0.0482  0.2113
90262W        W91126  24.082  12.422   7.961  0.1895  0.0032 -0.1913
90263W        W91127  24.671   2.926   7.353  0.1460  0.1235  0.0445
90264W        W91128  25.803  13.024  19.274  0.1251  0.1241 -0.1742
90265W        W91129  19.252  17.943  26.639  0.0204 -0.3756 -0.0110
90266W        W91130   4.844  11.804  22.061 -0.0113 -0.0463 -0.0294
90267W        W91131   5.099  17.922   3.215  0.3810 -0.2995 -0.1618
90268W        W91132  26.847  12.706  14.280 -0.0267 -0.0201 -0.1338
90269W        W91133   1.215  23.663  18.387 -0.0899  0.1731  0.0022
90270W        W91134  28.102   5.907   7.170 -0.0311 -0.2757  0.1537
90271W        W91135  20.921   7.621  23.761 -0.0960  0.1785 -0.0918
90272W        W91136  19.988  12.409  19.217 -0.1930 -0.1531 -0.2328
90273W        W91137   0.022  15.150  21.393  0.1226  0.0544 -0.0060
90274W        W91138  14.513  10.034  13.639  0.1584  0.3193 -0.2628
90275W        W91139  20.278  27.222  17.411  0.0648  0.0727 -0.1975
90276W        W91140  11.949  23.187  14.553 -0.1538  0.2126 -0.1974
90277W        W91141  27.169  16.727  22.169  0.3348  0.5106 -0.0478
90278W        W91142   7.590  10.549  16.328 -0.0132 -0.1489 -0.2245
90279W        W91143  17.642   8.611  18.820  0.2331  0.0410 -0.0090
90280W        W91144   5.247  20.996   1.372 -0.0821 -0.1380 -0.0791
90281W        W91145   2.439  12.545   3.422 -0.1168 -0.0679 -0.5687
90282W        W91146   0.446  13.022   8.690  0.3017  0.1265 -0.0154
90283W        W91147  23.827  22.862  22.382 -0.4328  0.1536  0.1242
90284W        W91148  24.481   9.519  16.770  0.2710  0.3144 -0.0298
90285W        W91149  13.442  23.077  14.895 -0.0663 -0.3303 -0.1861
90286W        W91150  15.123  25.151  10.433  0.1534  0.1243 -0.2012
90287W        W91151  17.144   7.811  16.442 -0.3295  0.0595  0.1795
90288W        W91152  27.809   0.210  10.814  0.0685  0.3314  0.1255
90289W        W91153  18.286  13.359   7.396  0.2617 -0.2548 -0.0478
90290W        W91154  15.691  17.523  12.740  0.0326 -0.0229  0.0791
90291W        W91155   4.730   2.790  16.132 -0.2975 -0.1329 -0.2836
90292W        W91156  13.714   0.592  27.346  0.1608 -0.1114  0.1715
90293W        W91157  11.890   9.493  26.589 -0.0572 -0.0128  0.1272
90294W        W91158  24.227  15.179  19.437 -0.1459 -0.0241  0.1197
90295W        W91159  22.496  11.218  23.460  0.3103 -0.2083 -0.1447
90296W        W91160   9.743   3.237  21.384 -0.0554 -0.1835  0.0684
90297W        W91161  15.806   5.322   5.658 -0.2208  0.0913  0.0909
90298W        W91162  27.059  26.048   0.043 -0.0328 -0.2137  0.1266
90299W        W91163  28.787   3.875   3.679  0.1013  0.0181  0.1035
90300W        W91164  22.492  18.349  19.519 -0.0163  0.1944 -0.0746
90301W        W91165   9.193  20.262  23.663 -0.3590 -0.0430  0.1430
90302W        W91166   1.328  27.176  14.633  0.1117 -0.0876  0.1123
90303W        W91167  27.283   7.131  12.569 -0.1310 -0.1328 -0.1363
90304W        W91168   8.174  28.393   8.488  0.2806  0.2520  0.1264
90305W        W91169  20.449   3.018  27.304  0.1524 -0.3429 -0.0828
90306W        W91170  21.711   8.908  17.234 -0.0330  0.0785 -0.1048
90307W        W91171   7.812   3.232  11.018  0.1064  0.2929  0.0452
90308W        W91172  25.698  26.448  22.670  0.2461 -0.0806  0.0559
90309W        W91173  14.679  23.931   9.819  0.1372 -0.2280  0.1732
90310W        W91174  19.402  20.780  21.612 -0.1557  0.2777  0.1758
90311W        W91175   1.799  24.278  25.498 -0.3561 -0.2775  0.3095
90312W        W91176   9.352  16.611   1.665 -0.1419 -0.4263  0.1718
90313W        W91177   1.445  11.842  22.967  0.1171 -0.2488  0.2721
90314W        W91178   4.703  15.634  21.204 -0.1630  0.2421  0.0890
90315W        W91179  21.064   3.137  13.030 -0.3614 -0.0925  0.0221
90316W        W91180  24.588   3.044  25.847  0.0127 -0.0862 -0.3074
90317W        W91181   2.550   0.632  10.758 -0.0736 -0.0055 -0.0118
90318W        W91182   8.114  12.347  18.299 -0.2017  0.0174  0.1363
90319W        W91183   7.463  12.314   2.398 -0.1144 -0.1431 -0.1271
90320W        W91184  23.337  24.708   0.075  0.0891  0.0704  0.0348
90321W        W91185  21.847  14.413  18.224 -0.0258  0.3035  0.0750
90322W        W91186  10.129  19.487  23.722 -0.2963 -0.0383  0.0445
90323W        W91187  27.495   1.742  18.023 -0.0554 -0.0609  0.1547
90324W        W91188  27.666  18.436  28.798  0.0051 -0.1635  0.1662
90325W        W91189   4.329  24.642   1.399  0.0381  0.0661  0.1124
90326W        W91190   8.590  12.035   6.158 -0.0793 -0.1152  0.2595
90327W        W91191   6.650  19.672   0.961 -0.1239  0.1385  0.0113
90328W        W91192   6.302   5.762  24.717  0.1029 -0.0418  0.2228
90329W        W91193  26.212   0.339  16.622 -0.2693  0.0174  0.0390
90330W        W91194  18.548  10.950  12.517 -0.0746  0.0523  0.3171
90331W        W91195  28.030   6.255  13.030  0.0349 -0.1599 -0.1562
90332W        W91196  16.548  19.584   1.697 -0.3932 -0.1372 -0.3136
90333W        W91197  25.324   5.054  12.228  0.1517  0.1555  0.0124
90334W        W91198   6.328   1.650   6.870  0.0221 -0.0966  0.1583
90335W        W91199   8.430  27.043  13.454  0.1431  0.1304  0.0395
90336W        W91200  12.062  18.602   8.713 -0.2945 -0.0151 -0.0195
90337W        W91201   3.321   1.572   5.305  0.0911 -0.3277  0.2466
90338W        W91202  11.269  24.822   9.254  0.1363  0.0302  0.1591
90339W        W91203  21.952  16.106   7.861 -0.0571 -0.0683 -0.1613
90340W        W91204   5.180  22.380  18.731 -0.3212 -0.2426 -0.3439
90341W        W91205  25.848   8.873   8.482  0.3016 -0.0093  0.1180
90342W        W91206  21.155  21.903   9.187  0.0656 -0.0918 -0.1849
90343W        W91207  11.180  25.518  22.515  0.0692 -0.0128 -0.2206
90344W        W91208   5.201  25.941   5.216  0.0078 -0.1497  0.1062
90345W        W91209  15.764   5.630   9.912  0.0503  0.2657  0.1315
90346W        W91210   5.213  18.298  21.104 -0.0673 -0.1189 -0.0231
90347W        W91211  25.737  19.423  17.751 -0.0275  0.2997  0.0546
90348W        W91212  13.695  22.282  20.591  0.0469  0.0798 -0.2810
90349W        W91213   6.580   5.594  22.798 -0.5240 -0.2050  0.1937
90350W        W91214  10.892  11.221  12.907  0.0891 -0.3539  0.1249
90351W        W91215  21.795  19.250  20.953 -0.0038 -0.0593  0.0250
90352W        W91216   7.084  23.917  28.327  0.2001 -0.0666 -0.0993
90353W        W91217   3.575   0.220  18.195 -0.1025 -0.1025 -0.1745
90354W        W91218  19.443  11.332  19.354  0.3313  0.3340  0.0370
90355W        W91219   8.886   8.108   7.981 -0.2918  0.0345 -0.0486
90356W        W91220   0.697   2.511   0.944  0.2265  0.1913 -0.2022
90357W        W91221  28.101   4.886  29.088  0.5208  0.0665 -0.1513
90358W        W91222  16.411   4.592  16.297  0.1015  0.1038 -0.2301
90359W        W91223  17.589   1.030  14.151 -0.0466  0.1771 -0.3024
90360W        W91224   2.775  21.328  13.025  0.0344  0.0323 -0.1947
90361W        W91225  21.093   8.009  10.265  0.0986 -0.1559 -0.0408
90362W        W91226   0.894  10.924   4.037 -0.1715 -0.0993 -0.0751
90363W        W91227  14.143  21.938  16.685 -0.3205 -0.1159 -0.2551
90364W        W91228  22.700  17.852   3.066 -0.0688  0.2468  0.1084
90365W        W91229   1.663  12.591   1.262  0.0920  0.1233  0.1229
90366W        W91230  27.288   5.592  11.341  0.0673  0.1602 -0.0571
90367W        W91231  23.477   3.104  17.123 -0.0234  0.0220  0.0960
90368W        W91232   0.501   5.746  20.334 -0.1494 -0.1083  0.1968
90369W        W91233  19.561  15.182  23.902 -0.2556 -0.0513 -0.2409
90370W        W91234  27.985   8.061  15.896 -0.0629 -0.3329  0.0524
90371W        W91235   1.898   0.652   6.447 -0.2108  0.1415 -0.2347
90372W        W91236  23.724   7.576  10.853 -0.0031 -0.1450  0.3486
90373W        W91237  17.288  10.508   5.270  0.0572  0.3740 -0.2035
90374W        W91238  27.731  18.654  21.140 -0.1790 -0.1198  0.2879
90375W        W91239  26.059  19.147   4.676  0.0041  0.2277 -0.0284
90376W        W91240  23.874  26.522  24.467  0.2191 -0.1072  0.1113
90377W        W91241  10.297  28.899  28.413 -0.1314  0.1004 -0.2220
90378W        W91242  26.385   3.423   2.274  0.1931 -0.1254  0.2340
90379W        W91243  25.292  22.101   1.749  0.1304  0.0321  0.0346
90380W        W91244  17.215  13.494  10.896  0.0850  0.0204 -0.0581
90381W        W91245  14.378   9.768  14.568 -0.4940 -0.1249  0.0761
90382W        W91246   5.002  10.457  19.938  0.1530 -0.0510  0.1545
90383W        W91247  27.390   9.774   6.471  0.2032  0.1424 -0.0221
90384W        W91248   4.160  19.824   9.415 -0.0377 -0.1251  0.0058
90385W        W91249  20.110  20.051  28.519 -0.1776 -0.0227  0.1507
90386W        W91250   4.441  27.713   1.909 -0.1606  0.0358  0.0389
90387W        W91251  22.086  17.129   9.597 -0.1528 -0.0430 -0.4042
90388W        W91252  23.245  16.562  13.020 -0.3791  0.0521 -0.1154
90389W        W91253  27.267   5.485  22.693  0.2170  0.2375 -0.1656
90390W        W91254  21.566  24.837  13.706 -0.2006 -0.0322  0.1132
90391W        W91255   1.359   0.650  20.485 -0.1032 -0.0160  0.2669
90392W        W91256  26.370  18.567   8.756  0.0861  0.0960  0.0413
90393W        W91257  17.511  13.672   5.262 -0.1224 -0.0408  0.0910
90394W        W91258  16.190  14.093  24.387  0.1186 -0.2618 -0.3317
90395W        W91259   7.667  10.391  23.266  0.1644  0.1680  0.0316
90396W        W91260  22.409  11.683  17.019  0.0485  0.0229 -0.0665
90397W        W91261  23.485   4.490  26.181  0.0481 -0.0318 -0.1147
90398W        W91262  10.353  21.434  16.353 -0.0779 -0.0776  0.1721
90399W        W91263  26.514   7.397   5.723  0.1006  0.3282 -0.0021
90400W        W91264   8.984  15.097  13.278  0.2337  0.1268  0.1712
90401W        W91265   5.140  21.212  19.048  0.1754 -0.0628 -0.1919
90402W        W91266  26.249   2.071  27.635 -0.0290 -0.2192 -0.0388
90403W        W91267  19.552   5.006  19.832  0.1031 -0.1623  0.0537
90404W        W91268   0.107  26.120  10.404 -0.3105 -0.0845  0.0943
90405W        W91269  23.870  20.672  22.282 -0.2965  0.0658 -0.1627
90406W        W91270  26.633   8.805   7.031 -0.1919 -0.0532 -0.0583
90407W        W91271  18.476  28.914   2.970 -0.1023  0.0742  0.1554
90408W        W91272  13.572   5.527  13.267 -0.1261 -0.1381  0.3264
90409W        W91273  13.118   4.596   1.742  0.2183  0.3570 -0.0934
90410W        W91274  17.323  23.611   1.483 -0.1095 -0.3552 -0.1273
90411W        W91275   7.463  10.392  10.090 -0.1645 -0.0572  0.0673
90412W        W91276   9.496   9.836  14.465 -0.4714 -0.0784 -0.2486
90413W        W91277  26.004   6.521  20.267 -0.1380 -0.0850 -0.1201
90414W        W91278  18.108  10.789  25.910  0.1519 -0.1759 -0.0273
90415W        W91279  28.322  26.389  16.788  0.3604  0.1079 -0.0674
90416W        W91280  18.007  24.728  22.282 -0.2060 -0.0367  0.2717
90417W        W91281  20.227  28.203  14.356  0.2787  0.1966 -0.1643
90418W        W91282   9.520   2.514  19.114  0.6529 -0.0210 -0.1169
90419W        W91283  23.380  29.139  23.346  0.2609 -0.0236  0.3089
90420W        W91284  23.029  25.041  21.155  0.1196  0.2289  0.2309
90421W        W91285  24.172  14.125   9.433 -0.1561 -0.0203  0.1737
90422W        W91286  15.081  11.485  18.758  0.1731  0.0452 -0.0324
90423W        W91287  18.529  25.874  12.667 -0.2966  0.1668 -0.1326
90424W        W91288  23.546   2.900  11.320 -0.0043 -0.1892  0.1201
90425W        W91289  21.012   4.646  24.138 -0.0237 -0.1916 -0.1361
90426W        W91290   9.522   7.694  20.511 -0.1825 -0.0071  0.2575
90427W        W91291  20.838  11.171  25.181 -0.0503 -0.1704 -0.2836
90428W        W91292  12.282   5.658  21.695 -0.0185  0.0239  0.1868
90429W        W91293   8.240  16.533  15.144  0.2095 -0.1070 -0.0933
90430W        W91294  27.738  15.445  19.516  0.0421  0.0489 -0.2565
90431W        W91295   6.412   7.090   9.493 -0.2762 -0.0329  0.1393
90432W        W91296  26.531  26.603   6.769  0.0237  0.2163 -0.1020
90433W        W91297  14.902   2.096  14.272  0.1546  0.2876 -0.0017
90434W        W91298  11.780  21.833  13.800 -0.0380  0.1252 -0.1584
90435W        W91299  28.863  17.187  17.591 -0.2777  0.1364  0.0549
90436W        W91300  19.585  16.186  13.819 -0.0686 -0.0170  0.0370
90437W        W91301  25.557  24.952  28.027 -0.1754  0.1361 -0.0498
90438W        W91302  22.085   8.235  15.757 -0.2956 -0.1137  0.0000
90439W        W91303   5.641  19.403   1.505  0.2442 -0.1545  0.0482
90440W        W91304   6.130  21.201   3.940  0.0355  0.0085 -0.1802
90441W        W91305  28.798  26.674  20.855  0.0219 -0.2517  0.2376
90442W        W91306   8.362  13.553  25.064 -0.0232 -0.1064 -0.2032
90443W        W91307   8.026   7.354  25.447  0.4889 -0.3520  0.1081
90444W        W91308  22.758   6.730   2.436  0.1517 -0.1806 -0.3377
90445W        W91309   3.606  19.072  21.505  0.0384  0.3480  0.1810
90446W        W91310  23.978   7.537   6.603  0.1023  0.1360 -0.0382
90447W        W91311   5.086   6.313  20.173  0.0095  0.1194  0.1434
90448W        W91312  12.701  17.088  13.459 -0.1898  0.1533  0.1696
90449W        W91313   0.471  18.174  21.519 -0.1223 -0.1519 -0.3659
90450W        W91314  15.600  13.544  19.165 -0.4349 -0.0356  0.0945
90451W        W91315  23.162  20.984  19.430  0.0527  0.0606  0.0604
90452W        W91316  11.515  25.192   4.958 -0.3410  0.1770 -0.0639
90453W        W91317  16.736  28.283  12.947  0.1388 -0.1287  0.1890
90454W        W91318   1.100  11.234  21.722 -0.0794  0.0711  0.0704
90455W        W91319  19.248  19.180  23.575 -0.1466  0.1342  0.0641
90456W        W91320  16.407  18.277  13.141 -0.2986  0.0512 -0.1693
90457W        W91321  23.792   8.846  18.845  0.0365 -0.0514  0.1288
90458W        W91322  16.186  24.554   8.541  0.1848  0.1472 -0.1804
90459W        W91323   1.208   5.721  28.771 -0.0288 -0.0924 -0.2175
90460W        W91324  17.122  15.217  19.558 -0.1466  0.2118 -0.2395
90461W        W91325  19.434  15.841  23.727 -0.2649 -0.2579 -0.2134
90462W        W91326   4.056   4.106  17.333 -0.0545  0.1534 -0.1414
90463W        W91327   0.914  13.580  11.389 -0.1114 -0.0898  0.1648
90464W        W91328   2.892   1.123  17.972  0.1047 -0.1308  0.0845
90465W        W91329   6.989  21.504  16.931 -0.0827 -0.0424 -0.1104
90466W        W91330   4.931  11.431  27.607  0.0201 -0.2326 -0.0706
90467W        W91331   1.927  21.959  10.043  0.0815  0.1332 -0.1836
90468W        W91332   2.066  19.336  18.443  0.1210 -0.0363 -0.3511
90469W        W91333   4.231   8.409  22.169 -0.0662  0.0888  0.1167
90470W        W91334  11.137   8.705  14.932  0.1150  0.3089  0.0335
90471W        W91335  26.227  18.663  21.679 -0.0786 -0.0043 -0.2041
90472W        W91336  21.454   0.240  18.011  0.0900  0.1451 -0.0042
90473W        W91337  28.818  22.808  16.297 -0.1204 -0.2683  0.0541
90474W        W91338  26.850  21.979  24.833  0.1286  0.3087  0.0711
90475W        W91339   3.340  14.432  21.308 -0.4578 -0.2355 -0.0713
90476W        W91340  28.908  12.951  24.007 -0.1145  0.0778 -0.1256
90477W        W91341  21.074  14.766  11.455 -0.1883  0.1504 -0.0238
90478W        W91342  10.584  14.701  13.621  0.2461  0.0391 -0.1132
90479W        W91343  28.609  19.729  14.535 -0.3829  0.1408 -0.0662
90480W        W91344  25.420   3.463  15.693 -0.1472  0.1103 -0.0533
90481W        W91345  10.152   9.711   5.378 -0.0433 -0.0043 -0.0201
90482W        W91346   8.365  10.082  25.062 -0.0235  0.2119 -0.0323
90483W        W91347  25.182   1.746   0.730 -0.0157 -0.0226  0.1518
90484W        W91348  14.618  26.776  13.700  0.0057 -0.0551 -0.1391
90485W        W91349  29.085   9.158  17.922  0.0284  0.1581 -0.2807
90486W        W91350  18.238  16.575  10.875  0.0889  0.2487  0.3834
90487W        W91351   8.864  24.685  17.977 -0.2116  0.0263 -0.0803
90488W        W91352   8.796  24.025  12.041 -0.0179 -0.1808  0.2700
90489W        W91353   0.808  13.947  24.457  0.0261  0.1793 -0.1303
90490W        W91354   5.811   8.976   4.425 -0.2509  0.0919  0.0443
90491W        W91355   0.118  14.950   0.720 -0.2367  0.1781 -0.0371
90492W        W91356   8.768   3.313  12.526 -0.0008 -0.0208 -0.0276
90493W        W91357   9.288  13.002  26.900 -0.1187 -0.3684 -0.3071
90494W        W91358   5.935  18.372  13.167  0.0149 -0.0470 -0.5170
90495W        W91359   3.863  29.107  17.183 -0.1700  0.1612  0.0041
90496W        W91360  10.957  20.425  15.511  0.0776  0.0611 -0.1797
90497W        W91361   4.850  14.569  12.611  0.1509  0.2121 -0.0345
90498W        W91362  15.182  19.040  17.401  0.2049 -0.1411 -0.0395
90499W        W91363  19.311  11.870  19.361  0.0675  0.1462  0.1822
90500W        W91364   7.486   6.853  20.581 -0.1770  0.0514  0.3780
90501W        W91365  25.901  17.062  23.780 -0.2919 -0.0103 -0.1709
90502W        W91366  27.658   6.240  23.987  0.0219 -0.1814  0.1889
90503W        W91367  18.164  24.448   1.771 -0.0622  0.0732  0.1161
90504W        W91368  19.322  27.583  18.098  0.0842 -0.0658 -0.0513
90505W        W91369  27.970   0.592  13.720 -0.0078  0.4127 -0.0492
90506W        W91370  11.775  18.625  10.807  0.0458 -0.2296  0.0034
90507W        W91371   6.099   0.519  24.353 -0.0944 -0.2684  0.2542
90508W        W91372   7.418  10.246  13.160  0.1384 -0.2423  0.0632
90509W        W91373   2.480   2.772  15.942  0.0123 -0.0472  0.0255
90510W        W91374   9.744   5.651  13.494 -0.1314  0.0603  0.1590
90511W        W91375   5.894  24.912  23.510  0.1890 -0.1430  0.0146
90512W        W91376   1.384  11.995   2.188  0.0886 -0.0593  0.3194
90513W        W91377   1.210  15.345   5.794 -0.1946 -0.3248  0.0349
90514W        W91378  24.170  10.462  19.775 -0.0467 -0.3276 -0.1731
90515W        W91379  27.644   0.165  17.755 -0.0850 -0.0313  0.0061
90516W        W91380  25.154  12.066  25.632  0.3084  0.1825 -0.0952
90517W        W91381  12.538  22.623  20.971 -0.0616 -0.0226  0.2179
90518W        W91382  21.329  14.742   7.994  0.3474  0.0511 -0.4872
90519W        W91383  28.681  18.330   7.259 -0.1095  0.1549  0.0952
90520W        W91384  11.212   3.721  23.157  0.2035 -0.1399 -0.1457
90521W        W91385  15.790  12.989  16.528  0.1241  0.1045 -0.2671
90522W        W91386   8.064  11.328  15.359 -0.2247  0.0117 -0.1812
90523W        W91387  25.467  15.813  24.170 -0.1757 -0.0306  0.2087
90524W        W91388   9.251   0.616  27.811 -0.0525 -0.2569  0.1380
90525W        W91389  15.716  12.849  10.923  0.2550 -0.1642 -0.2193
90526W        W91390  17.844  25.858  26.769  0.0718 -0.1543 -0.0687
90527W        W91391  14.712  20.715   3.310  0.0334  0.0313 -0.3077
90528W        W91392  21.315  18.248   4.238  0.1692  0.3212 -0.2925
90529W        W91393   7.192  18.177  12.554  0.0214  0.2335 -0.0761
90530W        W91394   4.987   9.164  20.906 -0.1257  0.1534 -0.0544
90531W        W91395  17.000  18.568  13.194 -0.1366 -0.5194  0.3125
90532W        W91396  18.952  22.176   8.136 -0.2045  0.1683  0.0344
90533W        W91397  12.949  24.126  19.244 -0.1001 -0.0750 -0.0337
90534W        W91398   8.656  17.653  18.045  0.2887  0.1433  0.1220
90535W        W91399  25.685  11.382  26.024 -0.1233 -0.0604  0.1743
90536W        W91400  15.499   8.051   0.631 -0.0052  0.0913 -0.2427
90537W        W91401  19.614   0.543  24.911 -0.3525 -0.1091 -0.2071
90538W        W91402   0.789  18.135   8.660 -0.3329  0.0067 -0.1485
90539W        W91403   0.290   1.527  22.404 -0.0100  0.0345 -0.1382
90540W        W91404   5.468  23.822   1.562  0.0696  0.1122  0.0425
90541W        W91405  26.480  21.208  23.162 -0.1122  0.0358 -0.3219
90542W        W91406  13.605   8.912  22.492 -0.2208  0.0599 -0.0846
90543W        W91407  14.084   8.364   3.301 -0.3535  0.2327 -0.2088
90544W        W91408  21.552  18.039  18.123 -0.0313  0.0113  0.2107
90545W        W91409  21.764   0.637  16.229 -0.0834 -0.1794 -0.0771
90546W        W91410  12.267  21.120   5.134 -0.0514  0.4790  0.1593
90547W        W91411  25.592  23.377  11.099 -0.1393  0.1567 -0.0512
90548W        W91412  24.214  10.751  12.899 -0.4210  0.1048  0.2975
90549W        W91413  26.659  11.435  28.936  0.1429 -0.1002 -0.0591
90550W        W91414  10.794  18.427  14.491  0.1298  0.1105 -0.2645
90551W        W91415  19.641  18.679  25.903 -0.1166  0.4907  0.1339
90552W        W91416   2.937   8.291  28.821 -0.0860  0.0528 -0.0857
90553W        W91417  27.108  26.768  17.477 -0.3585 -0.0922  0.2072
90554W        W91418  17.831   3.568  19.578  0.2758  0.0396  0.2620
90555W        W91419  23.308  14.259   9.241  0.2370 -0.3385  0.1825
90556W        W91420  22.164   8.386  24.380  0.2691  0.2330  0.0645
90557W        W91421  13.913  28.219  17.393  0.0708 -0.0417  0.2588
90558W        W91422  23.304   6.571   9.131  0.0082  0.0564  0.3375
90559W        W91423  11.811  28.777  13.031 -0.1455 -0.1634  0.0556
90560W        W91424  28.044   7.970   1.537  0.0968 -0.0053  0.1481
90561W        W91425  16.647  16.415  11.233 -0.1463  0.0049  0.2660
90562W        W91426   6.145   2.483  14.470  0.2516 -0.0054  0.1840
90563W        W91427   4.783  16.010  23.129 -0.1770 -0.0565 -0.2268
90564W        W91428  26.696  13.264  28.057 -0.0473  0.1982  0.3716
90565W        W91429  24.672   8.025   6.189 -0.0296 -0.2641 -0.5660
90566W        W91430  10.250   1.465  14.935  0.2491  0.0371 -0.0227
90567W        W91431  13.887  12.513  28.154  0.2208  0.1786 -0.0490
90568W        W91432   2.648  28.902  12.798 -0.2143  0.3729  0.2203
90569W        W91433  16.492  22.061  16.483 -0.0273 -0.0087  0.1323
90570W        W91434  15.524  15.271  10.144  0.0400  0.3647 -0.1996
90571W        W91435  11.159  13.271  26.346 -0.1028  0.1038 -0.2522
90572W        W91436   9.983  28.453  12.842 -0.0325  0.0180 -0.1618
90573W        W91437  16.386  20.543  12.586 -0.1597 -0.0176 -0.2170
90574W        W91438  14.937   0.031   1.814 -0.2505  0.0006  0.1138
90575W        W91439  27.824  17.054  11.594 -0.0323  0.0733  0.0273
90576W        W91440  15.699   0.311   8.605 -0.2558 -0.2457 -0.2067
90577W        W91441  26.659   0.471  16.814 -0.0192 -0.0714  0.1507
90578W        W91442  22.601  12.650  24.911 -0.0001 -0.0478  0.2504
90579W        W91443  28.915  17.983  26.402  0.1027 -0.1533 -0.0681
90580W        W91444  19.488  13.867   5.727  0.0835 -0.2732  0.0783
90581W        W91445  26.504   3.859   5.797 -0.0938  0.1242 -0.1618
90582W        W91446  24.955   0.162   1.491  0.1276 -0.4117 -0.0364
90583W        W91447   2.554  16.951  28.354  0.2172 -0.0224 -0.0944
90584W        W91448  27.088  16.234  22.061  0.1457 -0.1578  0.5037
90585W        W91449  22.576  11.629  10.063  0.0298 -0.0414  0.1630
90586W        W91450  17.746   0.974  17.502 -0.0125 -0.0522  0.1290
90587W        W91451  23.115   6.163  22.927 -0.0836 -0.0731  0.0334
90588W        W91452  17.332  19.396   7.372 -0.1696 -0.2167 -0.3800
90589W        W91453  18.675  22.678  17.146 -0.0858 -0.1060 -0.1396
90590W        W91454  15.811  16.688  18.107  0.3931  0.0086 -0.1104
90591W        W91455  17.710  21.057   1.674 -0.0922 -0.0618 -0.2443
90592W        W91456  14.248  14.834  12.247 -0.1233  0.2814 -0.0316
90593W        W91457  10.306   4.804  24.861 -0.1437 -0.2604 -0.0136
90594W        W91458   0.009  21.122  21.777 -0.1105 -0.2278  0.2082
90595W        W91459  23.904  16.266   7.702  0.2064  0.0261  0.3820
90596W        W91460   9.837   4.429  13.001  0.1890  0.0964 -0.3258
90597W        W91461  16.739   6.090  15.689  0.2624 -0.0628  0.0995
90598W        W91462   3.181   9.625  10.580 -0.3270 -0.1601  0.0247
90599W        W91463  12.194  13.220  10.638 -0.1743 -0.1697  0.0733
90600W        W91464  24.358  15.880  13.739 -0.1227 -0.0541 -0.1104
90601W        W91465  18.776   8.048  28.938 -0.0192  0.0899  0.2857
90602W        W91466   0.008  20.890  21.288 -0.0228 -0.0018 -0.0285
90603W        W91467  27.294  12.562   6.998  0.1174 -0.2863  0.3002
90604W        W91468  28.847  19.163   4.851 -0.0366 -0.1318 -0.1079
90605W        W91469  22.748  15.976  11.515 -0.1237 -0.4147 -0.1539
90606W        W91470  21.887  12.706  20.753  0.0740 -0.2515 -0.1165
90607W        W91471   1.537  12.727   6.344  0.3971  0.4317  0.1470
90608W        W91472   5.571  12.389  24.880 -0.0950 -0.0483  0.2799
90609W        W91473   2.373   9.146  14.649  0.0275  0.1658  0.2445
90610W        W91474  23.693  17.739  14.553 -0.0950 -0.1207  0.4639
90611W        W91475   6.490  16.753  12.736 -0.2982  0.2630  0.0153
90612W        W91476  20.383  24.427  23.504  0.1163 -0.1695  0.1931
90613W        W91477   5.260  22.248   4.401  0.2643 -0.0521 -0.1142
90614W        W91478   3.949  15.036  11.292 -0.0761 -0.1315 -0.3290
90615W        W91479  23.511  17.140  16.595 -0.0502  0.0970 -0.1553
90616W        W91480  17.936  22.193   3.398 -0.0583  0.1990 -0.0066
90617W        W91481  21.968   5.454   1.651 -0.1153  0.1250 -0.3188
90618W        W91482  28.147  28.264  11.410 -0.0474  0.2548 -0.0995
90619W        W91483  19.125  14.481  16.821  0.0256 -0.3037  0.1702
90620W        W91484  26.465  25.537   1.531 -0.0165 -0.0956  0.1702
90621W        W91485   1.620   0.261   6.246 -0.1282  0.0182  0.0830
90622W        W91486  26.999   1.833  14.625 -0.1011  0.1375  0.3294
90623W        W91487   0.098  27.061  26.256 -0.1744 -0.2368 -0.0987
90624W        W91488  19.496   8.872   5.855  0.2445  0.2912  0.2617
90625W        W91489  19.762   2.795  28.683 -0.5250  0.2841 -0.4277
90626W        W91490   1.231  15.983   7.344  0.0263  0.2173  0.1871
90627W        W91491  28.963   7.871   9.593  0.1346 -0.2443 -0.1873
90628W        W91492  16.131   9.242   7.302  0.1060 -0.0674 -0.4892
90629W        W91493  23.458   7.878  15.595  0.2872 -0.0895  0.2876
90630W        W91494  11.064  20.342   9.662  0.1017 -0.2154 -0.0595
90631W        W91495  29.053  27.406  28.718 -0.0286 -0.0297 -0.1532
90632W        W91496  10.844  24.969  20.349  0.0632 -0.3300 -0.1574
90633W        W91497  25.712   8.245   6.177 -0.0271  0.1678  0.2142
90634W        W91498  26.472   7.209   9.235 -0.0642 -0.1171  0.0502
90635W        W91499  20.574  24.388  14.558  0.0399 -0.3287  0.1017
90636W        W91500   5.139  26.294  19.314  0.0413 -0.0202 -0.3098
90637W        W91501   6.652   8.758  16.560  0.2064 -0.1104 -0.1512
90638W        W91502  23.411   8.770   6.533  0.0770 -0.0175  0.1728
90639W        W91503   9.147  12.920  13.796  0.2227  0.1330  0.2956
90640W        W91504  29.029  21.310  10.352  0.0131 -0.0655  0.2145
90641W        W91505  20.459  19.549  23.385  0.0351 -0.0442 -0.1850
90642W        W91506   4.841  11.933   3.703  0.0938  0.1227 -0.0574
90643W        W91507  15.901  26.004  26.704  0.0573 -0.1436 -0.1055
90644W        W91508   8.982  20.509  29.071  0.2053 -0.0994 -0.1003
90645W        W91509   3.768  25.920  19.618  0.1571 -0.1446  0.1100
90646W        W91510   9.534  16.410  28.977  0.0449 -0.0714 -0.3623
90647W        W91511   7.121  14.836  26.365  0.0872  0.0932  0.2120
90648W        W91512  22.684  14.348  12.580  0.1370 -0.2350  0.1452
90649W        W91513   0.595   6.111   3.537 -0.1450 -0.0464  0.1712
90650W        W91514   7.298  19.481  19.895 -0.3478  0.1040  0.2148
90651W        W91515  16.222   7.134   8.189 -0.0331 -0.2855 -0.0425
90652W        W91516  13.725   1.231  18.435  0.3054 -0.2378 -0.2083
90653W        W91517  20.684  11.199  23.262 -0.2488 -0.0438  0.2317
90654W        W91518  10.364  18.707  14.440 -0.0335  0.0222  0.4333
90655W        W91519  26.520   6.499  13.287  0.2442  0.1127 -0.4340
90656W        W91520  10.418  22.863  21.475 -0.0962 -0.3882  0.2237
90657W        W91521  11.751   7.121  25.781  0.0855  0.0830  0.4768
90658W        W91522  24.209   8.820  14.906  0.2170  0.4140  0.1314
90659W        W91523  22.645  12.577   2.266  0.3059  0.1109 -0.2777
90660W        W91524   0.491  21.409  13.738 -0.0139 -0.0580  0.1074
90661W        W91525  26.904  10.508   8.114 -0.1934 -0.1062 -0.0484
90662W        W91526  25.278   7.385   0.939 -0.0389 -0.0850 -0.0718
90663W        W91527  28.613  18.637  26.960 -0.1515  0.2465  0.1039
90664W        W91528  11.711  22.350  22.165 -0.0898 -0.2027 -0.1000
90665W        W91529   0.493  10.536  19.924  0.0716 -0.0607  0.3217
90666W        W91530   8.677  15.623  23.110  0.1710  0.3991  0.0613
90667W        W91531   1.274   6.815  20.985  0.1371  0.2281  0.1383
90668W        W91532  24.617  12.369  28.561 -0.0979  0.1757  0.3500
90669W        W91533   1.403  24.646  19.902  0.0479  0.3113  0.1365
90670W        W91534  15.221   9.460   7.721  0.0765  0.1085  0.0068
90671W        W91535   5.729   3.071  21.319 -0.0118 -0.1860  0.2559
90672W        W91536   1.945  18.131   5.981  0.0932  0.3063 -0.1061
90673W        W91537  15.081  14.435  23.457 -0.2212 -0.0647 -0.0261
90674W        W91538  25.855  12.940  27.808  0.0924 -0.0680 -0.2377
90675W        W91539  23.606  27.707   4.558 -0.1138 -0.1958  0.0392
90676W        W91540  28.890  19.687  13.658 -0.1630 -0.2014 -0.1209
90677W        W91541  13.759  15.194  13.105  0.1757 -0.0396  0.1553
90678W        W91542  13.789  26.677  23.392  0.3032  0.0525 -0.0285
90679W        W91543  16.665  18.250   0.248 -0.0698  0.2440 -0.0866
90680W        W91544  19.164  13.914  15.025 -0.4189 -0.0535 -0.1730
90681W        W91545  24.954  18.787  24.967  0.0400 -0.1309 -0.0841
90682W        W91546  27.355  22.096  18.125 -0.0808 -0.0891 -0.2476
90683W        W91547   2.710  11.036  29.076  0.1421 -0.1851 -0.1034
90684W        W91548  14.694  17.661  10.498  0.1526  0.1635  0.1191
90685W        W91549  19.242  10.810  10.746  0.0855 -0.0440  0.0259
90686W        W91550  27.488   8.456  25.034  0.1035 -0.2629  0.4889
90687W        W91551  28.075  14.081   9.378 -0.0337  0.0521  0.3631
90688W        W91552  24.279  26.689  11.801  0.0185 -0.1928  0.0134
90689W        W91553   8.438   8.061  15.142  0.2257  0.0170 -0.2787
90690W        W91554  22.905  17.005   0.681 -0.0052  0.1427  0.2026
90691W        W91555  13.412  11.263   3.550  0.2881 -0.2182 -0.1533
90692W        W91556  18.318  22.483   6.803  0.0162 -0.2794  0.1112
90693W        W91557   3.558   7.835  21.742 -0.3045  0.3630 -0.1149
90694W        W91558  25.987   3.516  22.595 -0.0483  0.1557  0.1995
90695W        W91559  11.321  17.560  19.793  0.0309  0.0495  0.1675
90696W        W91560  26.045  16.851  25.341 -0.0168 -0.0114  0.1885
90697W        W91561  24.240  15.087   5.407  0.0255 -0.2054 -0.1795
90698W        W91562   7.141   2.854  14.849 -0.3482  0.3468 -0.0795
90699W        W91563  20.166  22.003  22.596  0.0809  0.1333 -0.0520
90700W        W91564  28.594  11.978   7.784 -0.0914  0.2986 -0.1199
90701W        W91565  28.393  11.000  13.931 -0.0195  0.2611  0.3966
90702W        W91566  17.262  23.562  17.566 -0.2330  0.1743 -0.1827
90703W        W91567  12.324  24.274   3.052  0.1629  0.0277 -0.1464
90704W        W91568   4.029   9.455  10.446 -0.1360  0.2874 -0.0837
90705W        W91569   2.170  23.596   3.156 -0.1416  0.5860 -0.1963
90706W        W91570  19.306  13.081   5.728 -0.2739  0.0918  0.0051
90707W        W91571  22.479   3.603   4.090 -0.0743  0.2507  0.0127
90708W        W91572  24.524  16.854  11.705 -0.0873  0.0304  0.1410
90709W        W91573  27.669   6.865  15.736 -0.1698 -0.0751  0.1408
90710W        W91574  21.508  15.363   9.777  0.2109 -0.0212 -0.1372
90711W        W91575  28.584  18.774   1.220 -0.0159  0.0760  0.1905
90712W        W91576   0.382  28.320  19.455  0.3269 -0.0897  0.0943
90713W        W91577  16.180  26.022   7.473 -0.2505  0.0991 -0.2749
90714W        W91578   2.531  27.840  26.467  0.0293 -0.1062  0.0653
90715W        W91579  25.627  12.574   2.994  0.3291 -0.1864  0.0821
90716W        W91580  24.470   5.585  20.503  0.2373  0.0785  0.0116
90717W        W91581  15.399   3.629   0.384  0.1423  0.0369 -0.1205
90718W        W91582  13.833  13.929  19.060  0.1128  0.1880  0.2443
90719W        W91583   9.536   8.944  15.536  0.0625 -0.0675  0.0444
90720W        W91584   2.285  13.840  12.603  0.0485 -0.0107 -0.0559
90721W        W91585  28.566  12.166  21.227  0.0654 -0.2017 -0.1614
90722W        W91586  28.308   6.667  14.180  0.0096 -0.1106 -0.2176
90723W        W91587  13.439  12.536  20.148 -0.0148 -0.1700  0.2280
90724W        W91588  26.228  22.560  13.806 -0.0540  0.0735  0.0546
90725W        W91589  27.330  28.506  15.433 -0.0924  0.0742 -0.2089
90726W        W91590  28.833  21.451  25.673 -0.0051  0.4632 -0.0738
90727W        W91591  23.852  22.591  23.036  0.1030  0.0142 -0.0150
90728W        W91592  23.183  22.008   6.411 -0.1072  0.1263 -0.1411
90729W        W91593   4.620   9.835   2.417  0.3250 -0.0833  0.0103
90730W        W91594  16.611  14.838  13.029  0.2530  0.1316  0.0906
90731W        W91595  26.227   7.683  20.226  0.0010  0.1740 -0.0733
90732W        W91596  28.531   5.728  25.208 -0.1205 -0.3269  0.2707
90733W        W91597  20.919  14.074   8.727  0.2463 -0.2665  0.0061
90734W        W91598  11.695  18.366  25.947 -0.0569 -0.2581  0.3684
90735W        W91599   1.404  17.374   6.383  0.0355 -0.1581  0.1430
90736W        W91600  18.148  16.764   8.583  0.0844  0.0241  0.1661
90737W        W91601  27.885   4.671  27.628 -0.2595  0.1646 -0.1368
90738W        W91602   0.366  17.683  17.726  0.0729  0.2732  0.0663
90739W        W91603  28.606  14.301  21.170  0.3191 -0.2476 -0.0959
90740W        W91604  19.805  14.439  16.316 -0.1353 -0.0214  0.2010
90741W        W91605   7.695  15.168   9.335 -0.3506 -0.0350  0.1520
90742W        W91606  24.578  28.467   1.648  0.0040 -0.3714  0.0170
90743W        W91607  21.535  24.486  19.599  0.2511 -0.4736  0.0955
90744W        W91608  26.143   8.136  25.377 -0.0351 -0.0467  0.1088
90745W        W91609   9.851   7.826  13.447 -0.3476 -0.5263  0.1498
90746W        W91610  28.132  11.830  25.998 -0.1422 -0.1912  0.2752
90747W        W91611   3.344   1.113  23.900  0.1872 -0.2660  0.3933
90748W        W91612   9.902  25.390  10.225 -0.2929 -0.2034 -0.1400
90749W        W91613   9.879   3.419   5.526  0.1785  0.1955 -0.1136
90750W        W91614  19.915   6.760  12.899 -0.1547  0.4663  0.2279
90751W        W91615   1.448  19.544  12.540  0.0882  0.2532 -0.2372
90752W        W91616   1.118  21.009   1.100  0.3197  0.1978 -0.2628
90753W        W91617  28.573  17.076  10.322 -0.1162 -0.1657  0.1112
90754W        W91618  14.504  15.203  19.683 -0.0154  0.1815 -0.2035
90755W        W91619   1.463  26.885  19.641 -0.3526  0.1717  0.0396
90756W        W91620  27.420   3.084   1.383 -0.1368  0.0512  0.1161
90757W        W91621   8.632  26.150  21.341 -0.1128 -0.0763  0.2838
90758W        W91622  19.608   3.000  21.393  0.0234 -0.1724 -0.3021
90759W        W91623  20.518   4.007  10.437 -0.1878 -0.0560  0.1669
90760W        W91624  23.279  10.912   1.472  0.2417  0.1921  0.2989
90761W        W91625  22.582  15.547  13.990 -0.2292 -0.1232  0.0879
90762W        W91626  10.613  25.631   1.458 -0.1227  0.1705  0.1766
90763W        W91627  25.306  11.349  21.471  0.2774  0.0394 -0.3151
90764W        W91628   4.384  14.506  25.684  0.0251 -0.0915  0.0352
90765W        W91629   7.732   6.513   5.829  0.2718  0.2237  0.2308
90766W        W91630   8.513  28.694  14.223  0.0746 -0.1565  0.1019
90767W        W91631  22.050  28.646  25.151 -0.0097  0.1177  0.2700
90768W        W91632  23.566  25.858  25.270  0.3275  0.0147  0.1572
90769W        W91633  27.753   8.383   3.161  0.0090 -0.0313 -0.1902
90770W        W91634  17.383  28.617   1.188 -0.1549  0.1361 -0.0299
90771W        W91635  16.930  15.620  26.281  0.2342 -0.1991 -0.0165
90772W        W91636   1.869   8.236  15.954 -0.1552  0.1916 -0.0134
90773W        W91637  10.224   4.005  26.404 -0.1651  0.2129  0.3298
90774W        W91638  19.368  27.577  20.788 -0.0301  0.3909 -0.0069
90775W        W91639  19.004   5.625  18.805  0.0123  0.0337  0.1115
90776W        W91640   4.157  12.994  15.266 -0.2650 -0.0957  0.1617
90777W        W91641  21.277  21.088  17.215 -0.0020 -0.1262  0.1599
90778W        W91642  29.041  12.770  24.444  0.1321 -0.0142 -0.3219
90779W        W91643  10.365  11.370  19.846 -0.1543  0.2311  0.1906
90780W        W91644   3.827  20.573   8.214 -0.2522 -0.0263  0.0653
90781W        W91645   0.571  21.627  21.494  0.0334 -0.2316  0.1349
90782W        W91646  17.178  12.223  10.725 -0.2264 -0.1918 -0.0336
90783W        W91647  14.626  25.088  20.886 -0.1361  0.0506  0.0622
90784W        W91648  19.955   7.951   7.339  0.1716 -0.0875  0.1196
90785W        W91649  17.795  18.235  25.872 -0.0853  0.0820 -0.0319
90786W        W91650   6.458  17.667   6.072  0.0212 -0.2906 -0.4130
90787W        W91651  19.729   4.856  22.287 -0.0138  0.2633 -0.2558
90788W        W91652   8.045  19.733  22.211 -0.0952 -0.0476 -0.1121
90789W        W91653  20.566  13.359  23.892 -0.0889  0.2300 -0.1503
90790W        W91654  26.714  12.263   9.539 -0.0385  0.1404 -0.0252
90791W        W91655   7.336  12.916  18.792  0.3312 -0.3480  0.0903
90792W        W91656  25.936   0.526  26.341 -0.0519  0.0684  0.2299
90793W        W91657  22.002   7.289   8.618  0.2168  0.1981 -0.1252
90794W        W91658  18.443  17.570  12.680  0.0109  0.0787 -0.0307
90795W        W91659  13.030   1.690   2.998  0.0869 -0.1544 -0.0841
90796W        W91660  22.190   8.671  15.491  0.0211  0.0624  0.0117
90797W        W91661  20.339  24.764  17.108 -0.1227 -0.1362  0.1333
90798W        W91662  10.317  11.308  13.325 -0.3111  0.0438  0.0633
90799W        W91663   3.633  14.990   5.252  0.0744  0.1934 -0.2824
90800W        W91664   2.419   4.552  11.496 -0.1518  0.0006 -0.1530
90801W        W91665  25.571  28.897  27.526  0.1544  0.2403 -0.1530
90802W        W91666   6.254   2.305   1.757  0.0070  0.1722  0.1892
90803W        W91667  18.910   3.383  25.723  0.0177  0.0608 -0.0640
90804W        W91668   3.825  27.054  12.907  0.0645 -0.0236 -0.3372
90805W        W91669  19.852  16.199  24.027 -0.1821 -0.0608  0.2918
90806W        W91670  12.220  14.054  12.088 -0.2911 -0.1710 -0.2316
90807W        W91671   2.131  15.189   8.734 -0.1031  0.0056 -0.0156
90808W        W91672   7.880  13.134  18.259  0.0217  0.1140  0.2039
90809W        W91673  25.489  20.609  10.815 -0.0676 -0.0412  0.1886
90810W        W91674  17.615   0.447  22.817  0.0568  0.2107 -0.0956
90811W        W91675  20.962  16.618  14.953 -0.0390 -0.0465  0.3156
90812W        W91676  22.175   0.843  21.198 -0.1636  0.0154 -0.0379
90813W        W91677  17.163  21.161  11.220 -0.1664  0.0525  0.0699
90814W        W91678  16.574  19.746  23.478 -0.2474 -0.1777  0.1577
90815W        W91679   3.091  15.930   7.650 -0.1875  0.0629  0.0973
90816W        W91680  25.932  12.849  21.419  0.1375  0.1659 -0.0825
90817W        W91681  21.193   6.665  27.864 -0.0308  0.1091 -0.1557
90818W        W91682   1.305  16.439  25.779 -0.0392 -0.1742 -0.0794
90819W        W91683  26.496  13.617  19.642 -0.2198 -0.1245 -0.0126
90820W        W91684   4.765  21.477   5.249  0.0541  0.0909 -0.0743
90821W        W91685   3.281   9.103  18.186  0.1363  0.1786  0.1273
90822W        W91686  16.764  14.183  29.140  0.0437 -0.2081 -0.1265
90823W        W91687   7.700   5.146  18.075  0.0853 -0.1472  0.0621
90824W        W91688   8.814  26.712  28.815 -0.2052 -0.4468 -0.0885
90825W        W91689  26.056   1.715  15.560  0.0849 -0.0260 -0.2439
90826W        W91690  22.294  21.858  21.647  0.0494  0.1740  0.1272
90827W        W91691  27.751  12.052   7.050  0.2497  0.2633 -0.0095
90828W        W91692  22.709  19.257   4.299  0.0687  0.0324 -0.2579
90829W        W91693   3.239   5.012  22.953  0.0382 -0.0665 -0.2680
90830W        W91694  11.061  21.475  24.410  0.0015  0.0608 -0.4046
90831W        W91695  27.438  17.508  17.474  0.0626  0.2334 -0.1676
90832W        W91696   4.019  14.056  17.077 -0.1088 -0.2152 -0.1815
90833W        W91697  19.295  14.739  24.049 -0.1215 -0.2299 -0.0259
90834W        W91698   4.370  14.363  23.838 -0.1762 -0.1535 -0.1962
90835W        W91699  15.925   9.078  17.846  0.0061 -0.0181 -0.1303
90836W        W91700  23.009  17.890  18.753  0.0165 -0.0583  0.1276
90837W        W91701  18.002   1.448  22.015  0.1486  0.1072  0.4342
90838W        W91702   7.338  10.586  24.500  0.2273  0.1196 -0.0897
90839W        W91703   9.412  23.321  16.281 -0.2112  0.0809  0.1818
90840W        W91704  25.527  18.568   6.266  0.2170  0.0407  0.0762
90841W        W91705   2.034   9.645  21.328  0.2053 -0.1322 -0.1305
90842W        W91706   7.290   8.946  21.209  0.4143 -0.1352 -0.3692
90843W        W91707  18.768  13.782   2.568 -0.1232 -0.0347 -0.2379
90844W        W91708   3.645  28.249  19.737  0.0526 -0.2508  0.0772
90845W        W91709  11.907  18.128  14.408  0.0379  0.0081 -0.3689
90846W        W91710   8.087  22.106  24.389 -0.0291 -0.0750  0.0958
90847W        W91711  28.246  27.529   8.216 -0.0992  0.1414 -0.0746
90848W        W91712  13.900   3.900  23.243 -0.1127 -0.3943 -0.0821
90849W        W91713  27.650  10.646  17.129  0.0961  0.1871  0.0501
90850W        W91714  24.620  19.139  25.784  0.2888 -0.1290 -0.1783
90851W        W91715  25.371  21.697   1.380 -0.2434 -0.0113  0.1998
90852W        W91716  12.621  17.392  19.374 -0.2344  0.0130  0.1653
90853W        W91717  11.175  25.708  14.800 -0.0211  0.4403 -0.0992
90854W        W91718  18.522  23.199   0.891  0.1261  0.0470  0.2413
90855W        W91719   7.389  23.358   9.116 -0.3389  0.1966  0.0150
90856W        W91720   2.567  15.572  10.000  0.0901  0.1741  0.1652
90857W        W91721   2.951   4.020   8.620  0.2575  0.2329 -0.0980
90858W        W91722  10.553   5.212  27.365 -0.0533 -0.0496 -0.1482
90859W        W91723   6.353  15.635  20.347 -0.0031  0.0971 -0.2787
90860W        W91724  10.890  25.976  27.047  0.1321  0.1528 -0.2075
90861W        W91725   8.139  12.660  15.097 -0.0819 -0.1047  0.3860
90862W        W91726   7.673  22.034  27.325  0.1058  0.0704 -0.1815
90863W        W91727   0.705  22.731  14.676 -0.1489 -0.1644  0.2385
90864W        W91728  14.457  15.026  20.354  0.0596  0.0692 -0.1197
90865W        W91729  18.047   2.635  18.457 -0.1384 -0.1103 -0.2917
90866W        W91730  17.244  17.592   8.456  0.2013 -0.0502 -0.1087
90867W        W91731  25.327  15.231  17.204  0.0436  0.1909  0.0102
90868W        W91732  17.766  20.744  19.544 -0.0459 -0.0306  0.0803
90869W        W91733   0.341  22.875  13.097  0.0933 -0.1974 -0.2020
90870W        W91734   6.409   1.589  13.444  0.0841 -0.1424 -0.1220
90871W        W91735  15.020   8.111  22.619 -0.2616 -0.2774 -0.2601
90872W        W91736  26.390   4.621  24.215 -0.1464 -0.2554 -0.3013
90873W        W91737   6.073   3.608  25.856 -0.0671 -0.2665  0.2239
90874W        W91738  27.461  20.701   6.037  0.0023  0.2718  0.1685
90875W        W91739  13.065  15.037  25.919  0.4035 -0.2760  0.1081
90876W        W91740   8.057  19.555  19.086 -0.1271 -0.0331 -0.1138
90877W        W91741   1.386   7.666  22.292  0.1516 -0.6346 -0.3244
90878W        W91742  16.041   4.913   1.870 -0.0075  0.1306 -0.1563
90879W        W91743  23.182  26.694  11.300 -0.1563  0.1468  0.1680
90880W        W91744  26.031   2.868  25.395  0.3463 -0.0028 -0.3162
90881W        W91745  27.919   9.043  12.488 -0.3156  0.0552  0.0697
90882W        W91746  15.192   6.091  12.457 -0.1066 -0.2434  0.0421
90883W        W91747  17.048  19.627  26.692  0.0666 -0.1324  0.2664
90884W        W91748   2.866  14.028  22.026  0.0504  0.1224  0.3233
90885W        W91749   4.580   0.068  21.873 -0.0081  0.2512  0.0287
90886W        W91750   6.724  11.363  13.922  0.0948 -0.1342  0.0999
90887W        W91751   2.585  13.974  17.270  0.2479 -0.0244 -0.0782
90888W        W91752  20.293  16.069   4.156  0.0838 -0.0512  0.1200
90889W        W91753  26.611  17.225  20.515 -0.0520  0.0248 -0.0187
90890W        W91754  20.942  13.541  23.559 -0.1321 -0.0897 -0.1158
90891W        W91755   4.123  24.143  15.841 -0.2566  0.0992  0.0684
90892W        W91756  13.806  13.621   0.952  0.1790 -0.1095  0.0869
90893W        W91757   4.222  15.725   6.694 -0.0056 -0.1401  0.0612
90894W        W91758  26.974   1.298  23.163  0.4275 -0.0637 -0.0088
90895W        W91759   0.879  12.308  26.246  0.0738 -0.0835 -0.0270
90896W        W91760  26.847   2.968  16.314 -0.0784 -0.0812  0.3279
90897W        W91761  26.974   1.560   1.046 -0.0439  0.0430  0.1429
90898W        W91762   3.398   4.215   9.578  0.0214  0.0075  0.2482
90899W        W91763  24.777  25.250  16.343 -0.0657  0.1002 -0.1150
90900W        W91764   2.338  26.174  26.907  0.2191 -0.0560 -0.0677
90901W        W91765  27.252  23.582  15.148  0.2636 -0.0025 -0.0389
90902W        W91766  25.981   3.076  10.307  0.1354 -0.0454  0.0679
90903W        W91767  14.010  23.195  19.062 -0.3336  0.0238 -0.0586
90904W        W91768   6.275  12.412   9.374  0.0882  0.2711  0.1105
90905W        W91769  28.213  22.644   2.203 -0.2056  0.0014  0.3419
90906W        W91770  21.570  26.929  28.473  0.1373  0.0628  0.1800
90907W        W91771  28.623  18.747  28.799 -0.1965  0.0800 -0.1105
90908W        W91772   0.213   8.058  18.905 -0.1277 -0.0358  0.0303
90909W        W91773   7.229   2.860  25.090  0.0855 -0.2583 -0.1960
90910W        W91774  10.290  15.317  21.957  0.2377 -0.2299 -0.2231
90911W        W91775  25.612   0.338  26.694  0.1441  0.1593 -0.0555
90912W        W91776   9.488  24.339  15.583  0.0767 -0.0447  0.0458
90913W        W91777  28.449  18.183  16.616 -0.1940  0.2889  0.1854
90914W        W91778   6.519  13.064   9.900 -0.0550  0.1944 -0.0694
90915W        W91779   5.489  26.371   1.866  0.1445  0.0598  0.0905
90916W        W91780   1.862   7.663   7.292  0.0456 -0.3529 -0.0763
90917W        W91781   5.444   6.040  23.147  0.1836 -0.3449  0.0814
90918W        W91782  21.867   7.472  20.797 -0.0092  0.1633 -0.1080
90919W        W91783   7.384  10.984  26.713 -0.3933  0.0442  0.1861
90920W        W91784   2.621  24.971  18.644 -0.0545  0.1878  0.0883
90921W        W91785   8.324   5.558  19.834  0.2112 -0.1527 -0.0215
90922W        W91786  18.313  19.709  21.443  0.1521 -0.0468 -0.0405
90923W        W91787  28.561  12.043  28.815  0.0183  0.4287  0.1007
90924W        W91788  10.127  20.537   8.569  0.1335  0.4838  0.0468
90925W        W91789  18.942  11.142  14.287  0.3076  0.1446  0.3812
90926W        W91790  10.692  15.296   8.905 -0.0005  0.0114  0.1155
90927W        W91791   3.330   3.838  24.067 -0.0020  0.0765 -0.1245
90928W        W91792   0.220  10.563  23.624 -0.0766  0.2672 -0.1432
90929W        W91793   1.428  28.297   0.803  0.0475 -0.0070  0.2796
90930W        W91794  27.964   9.629   0.792 -0.1495  0.0388 -0.2773
90931W        W91795  17.749   9.450  13.043 -0.1083 -0.0758 -0.0737
90932W        W91796  23.022   4.228   9.528 -0.0207  0.2934 -0.0733
90933W        W91797  25.893   1.007   7.642 -0.0276  0.0738 -0.2258
90934W        W91798  27.569  19.405  15.787 -0.0843  0.1529 -0.0651
90935W        W91799  18.131  25.139  18.630  0.0938  0.3510 -0.0930
90936W        W91800  25.449  14.389   0.316  0.4580 -0.3401 -0.1112
90937W        W91801   2.523   0.081  26.299 -0.1905  0.0114 -0.1089
90938W        W91802  13.875  14.497  26.742 -0.2748  0.2776  0.1162
90939W        W91803  18.223   8.926  20.311 -0.0951 -0.1388 -0.1462
90940W        W91804  16.043   8.327  14.672  0.1167 -0.1055 -0.1507
90941W        W91805   6.007  10.471  21.115  0.0888 -0.1334 -0.0268
90942W        W91806  22.438   5.345   0.787 -0.0627  0.0614 -0.0899
90943W        W91807  10.203  24.640  12.728 -0.0337 -0.3664 -0.1315
90944W        W91808  28.117  12.363  12.247  0.1263 -0.1013 -0.1931
90945W        W91809  25.976   8.106  20.337  0.0907  0.0878  0.1941
90946W        W91810  18.451  24.471  16.823 -0.0495  0.4430 -0.0087
90947W        W91811  12.793   9.742  28.471 -0.4641 -0.0896  0.0659
90948W        W91812  16.870   1.464  17.551  0.3474  0.0084 -0.1246
90949W        W91813  22.232  28.383  25.573  0.1604 -0.1897  0.1498
90950W        W91814   1.533  21.100  25.846 -0.0486 -0.0054 -0.2984
90951W        W91815   2.273   5.932  23.074 -0.3284  0.1953 -0.2467
90952W        W91816   6.646  18.297  23.110 -0.0546 -0.0361  0.2393
90953W        W91817  21.713  16.352  15.555  0.1590 -0.0543 -0.0420
90954W        W91818  19.881  23.526  16.422 -0.1009 -0.1693  0.2158
90955W        W91819   1.419  27.242   3.697  0.0357  0.1911 -0.0197
90956W        W91820  23.373  22.527  27.877 -0.1652  0.0899  0.0085
90957W        W91821  24.842  12.712   5.934  0.1293  0.0482  0.0258
90958W        W91822   1.841   7.949  13.899 -0.1924 -0.1464  0.0133
90959W        W91823  15.879  20.594  23.555 -0.2721  0.0498 -0.0847
90960W        W91824  27.367  23.578  22.872  0.0867 -0.1767 -0.1361
90961W        W91825  23.672  18.057  22.440  0.0401 -0.3361  0.0069
90962W        W91826   0.458   9.059   2.646  0.3012  0.2493  0.0810
90963W        W91827  19.046  16.290  23.942 -0.3434  0.2154 -0.0138
90964W        W91828  27.187  13.651   9.306  0.0089  0.4333  0.3752
90965W        W91829  28.553   7.522  20.086 -0.0247 -0.1257  0.1568
90966W        W91830  21.679   4.671  13.689 -0.0508  0.0208  0.2345
90967W        W91831   5.511   8.769  15.234 -0.1203  0.0494 -0.1077
90968W        W91832  13.390   9.450  15.920 -0.0512 -0.1762 -0.0756
90969W        W91833  21.252  28.023  25.391 -0.0638  0.0045  0.0727
90970W        W91834  18.020  19.522  25.613 -0.2332 -0.1047  0.1247
90971W        W91835  17.680   8.729   5.186 -0.1217 -0.0366 -0.0417
90972W        W91836  16.656  25.150  25.489  0.1020 -0.0295 -0.0748
90973W        W91837  11.632   2.655   2.373 -0.0019 -0.0394 -0.2884
90974W        W91838   3.024  13.676  25.467 -0.1301 -0.1054 -0.2392
90975W        W91839  11.464  10.752   8.196 -0.0591  0.5276  0.0837
90976W        W91840  25.603   7.780  27.684 -0.1082  0.3024  0.2242
90977W        W91841  17.149   6.861   8.775  0.0984 -0.0165  0.2079
90978W        W91842  16.961  15.415  13.502 -0.2207  0.4620 -0.0851
90979W        W91843   0.784  28.626   1.537 -0.3924  0.4178  0.1177
90980W        W91844  22.914  23.149   8.810 -0.2713  0.0606  0.2304
90981W        W91845  23.234  19.304  25.979  0.0456 -0.1518  0.2704
90982W        W91846   5.053  11.044   9.315 -0.1141  0.0933 -0.0810
90983W        W91847  16.584  12.892  15.178 -0.0223  0.0311 -0.1170
90984W        W91848   7.116  12.364  22.726 -0.2527  0.1623 -0.2122
90985W        W91849  27.230  11.743  13.852 -0.1200  0.3026 -0.1208
90986W        W91850   3.400  23.371  13.518 -0.4527 -0.3264  0.1589
90987W        W91851   4.641  19.683   3.235  0.2302 -0.2786 -0.0983
90988W        W91852  13.995  22.529  17.106 -0.0188  0.0836 -0.0845
90989W        W91853   2.881   5.466  20.685  0.1024 -0.0646 -0.0844
90990W        W91854  14.466  29.117  26.180 -0.0408  0.2142 -0.1557
90991W        W91855  27.314  11.974   2.805  0.1989  0.0686  0.0394
90992W        W91856   7.744  12.513  19.892 -0.0386 -0.4392  0.1142
90993W        W91857  27.810  20.597  19.151  0.1602  0.0118 -0.0805
90994W        W91858  20.076  19.879  23.428 -0.0222  0.1786  0.0136
90995W        W91859  24.900   2.469  21.418  0.1964  0.0500  0.1642
90996W        W91860   1.180   8.070  10.094  0.0281  0.0496 -0.0496
90997W        W91861  18.920  18.586  12.354 -0.0179 -0.1303  0.3993
90998W        W91862  21.282  20.422  20.767  0.0238  0.3319 -0.2888
90999W        W91863   2.899   7.656  23.077 -0.3129  0.0866 -0.1259
91000W        W91864   7.753   2.129  26.698  0.2049  0.0974 -0.1366
91001W        W91865   5.626  13.223  27.418  0.2218 -0.2212 -0.0442
91002W        W91866  27.604   0.611  25.922  0.0976 -0.0490 -0.2246
91003W        W91867  19.576  25.868  10.775  0.1861  0.0124  0.4025
91004W        W91868   1.661  13.952   2.984  0.1669  0.0317 -0.0341
91005W        W91869  13.074   4.508  22.940 -0.0934 -0.1869 -0.0430
91006W        W91870   1.726  24.417   4.890  0.0556 -0.0715 -0.4838
91007W        W91871  26.751  18.999  15.778  0.0329 -0.1441 -0.0826
91008W        W91872   1.707   5.692   0.568 -0.3035 -0.0060 -0.0266
91009W        W91873  20.730  15.878  21.100 -0.3378 -0.1227 -0.2306
91010W        W91874  26.994   7.553  14.259  0.1548  0.2089 -0.0245
91011W        W91875  16.821  22.872  23.212 -0.3770  0.0909 -0.0893
91012W        W91876  28.273  13.569   1.965 -0.1638  0.2432 -0.0088
91013W        W91877  25.901  19.536   8.676 -0.2614  0.1138  0.0182
91014W        W91878  17.243  25.143   1.102 -0.2566 -0.2055  0.0368
91015W        W91879   7.913  11.949  19.523 -0.1700 -0.2518  0.0585
91016W        W91880   4.264   7.612  25.599  0.0673  0.3375 -0.0720
91017W        W91881  27.333  17.759  12.550 -0.1081  0.0962  0.5258
91018W        W91882  21.241  10.718  18.009 -0.0541 -0.2476  0.0339
91019W        W91883  21.358  26.562  24.861  0.2565  0.0359  0.0702
91020W        W91884  17.506   4.640   2.171 -0.3996  0.0040  0.1380
91021W        W91885  16.209  13.397  11.398  0.1573  0.1424  0.2552
91022W        W91886  28.913   9.738  27.600 -0.3631 -0.1302 -0.0201
91023W        W91887   6.915  12.595  18.369 -0.2517 -0.1323  0.0014
91024W        W91888  23.009  18.833  12.749  0.3851 -0.1781  0.2949
91025W        W91889   1.277   2.311   9.593 -0.2716 -0.1645  0.1590
91026W        W91890  22.062  24.965  29.081 -0.0759  0.1080 -0.1743
91027W        W91891  27.796  16.056   1.924 -0.2337  0.2751  0.2017
91028W        W91892   3.987  12.657   1.620  0.0864 -0.1080  0.0560
91029W        W91893   2.861  24.035   2.005  0.0940 -0.1308 -0.0394
91030W        W91894  26.362  29.037  19.773  0.4846  0.4550  0.0545
91031W        W91895   1.977  18.653  23.562 -0.1809  0.1744  0.1660
91032W        W91896   8.692  28.946  22.484 -0.5169  0.3452  0.0031
91033W        W91897  19.250  23.942   5.655 -0.0428 -0.2215  0.0714
91034W        W91898   3.322  14.635  12.704 -0.1571  0.1109  0.1570
91035W        W91899  22.212   4.291  11.205 -0.3162  0.0131  0.3214
91036W        W91900  10.615  27.781  12.649  0.1015  0.0370  0.1526
91037W        W91901   3.302  12.575  11.183 -0.0641  0.0702  0.0515
91038W        W91902  25.098  19.575   4.375 -0.1086  0.0728 -0.1689
91039W        W91903   8.517  10.765   2.506 -0.0399 -0.1743  0.2023
91040W        W91904  26.733  28.925   6.720  0.0775  0.1647  0.0949
91041W        W91905  17.129  11.620  17.867 -0.3102 -0.2968 -0.0809
91042W        W91906   7.708   8.535   9.656  0.0101  0.1935 -0.2246
91043W        W91907  26.929   9.741  23.632 -0.0920  0.2037  0.0283
91044W        W91908  25.183   2.038  26.596  0.0030 -0.1185 -0.1030
91045W        W91909   2.073  20.086  15.692  0.0577 -0.5118 -0.3338
91046W        W91910   6.111  18.362  25.897 -0.2101  0.1069  0.0539
91047W        W91911  17.451  10.924   4.503 -0.2606  0.0285  0.2825
91048W        W91912   6.780  16.306   5.040  0.0590 -0.0169 -0.0193
91049W        W91913   3.400  22.201   4.494  0.1027  0.0076  0.0611
91050W        W91914  12.972   5.633  14.019 -0.0771  0.1118 -0.0145
91051W        W91915  26.564  15.746  28.748  0.1238 -0.0436  0.0046
91052W        W91916  28.119  15.838  14.292 -0.0337  0.1235  0.0878
91053W        W91917  20.673  27.256   8.547  0.1725  0.0871  0.2839
91054W        W91918   0.905   0.532  12.972 -0.0445  0.0349 -0.2163
91055W        W91919   8.814  22.280  23.494 -0.0223 -0.0267 -0.0672
91056W        W91920  16.549  10.316  25.227 -0.0777  0.2887 -0.0690
91057W        W91921  29.105  19.903  28.350  0.2937  0.0379  0.0380
91058W        W91922   1.925  23.016  15.159  0.2997  0.2300  0.1092
91059W        W91923  10.019  18.457   6.353 -0.3490 -0.1603  0.1448
91060W        W91924  16.070  19.000  13.409 -0.3815  0.0626 -0.2125
91061W        W91925  10.943   5.899   7.804 -0.1134  0.0423  0.4301
91062W        W91926   4.213  21.914  17.576  0.0705  0.3105 -0.2028
91063W        W91927  12.965   8.803  16.473 -0.1005 -0.1801 -0.3293
91064W        W91928  22.318  26.128   4.629 -0.0391  0.4186  0.0458
91065W        W91929   6.440   2.195   2.933 -0.0340 -0.3354  0.3826
91066W        W91930   5.087  14.554  24.221 -0.0829  0.0654 -0.2264
91067W        W91931  19.175   7.147   1.881 -0.3066  0.3244  0.1464
91068W        W91932  11.173  27.703  24.485  0.0202 -0.0067 -0.3458
91069W        W91933   0.341  27.068  25.074 -0.0015  0.2855 -0.1081
91070W        W91934  10.148  27.213   2.263 -0.0133 -0.1116  0.0882
91071W        W91935   0.804  21.097  18.973  0.4046 -0.5645 -0.1478
91072W        W91936  20.045  21.937  21.049  0.1370  0.0848 -0.0083
91073W        W91937   0.213  20.887  24.406 -0.0893 -0.1415  0.3221
91074W        W91938  15.091  12.951  27.885  0.0062  0.0946  0.2262
91075W        W91939  16.374   3.834  23.618 -0.3689  0.0656 -0.2491
91076W        W91940  21.460   7.505  25.834  0.0619 -0.0760  0.0134
91077W        W91941   8.808  18.158   0.850  0.1583  0.0363 -0.1476
91078W        W91942   7.078   6.530  25.879 -0.1707 -0.1840 -0.2663
91079W        W91943  12.590  13.405  12.500  0.1553  0.0998  0.0252
91080W        W91944  20.758  16.583  11.737 -0.0958 -0.2788  0.0619
91081W        W91945  17.968  21.915   9.688 -0.1587  0.2825  0.0652
91082W        W91946  25.213   0.555   6.141  0.3782  0.3101 -0.2512
91083W        W91947  13.193  18.433   5.746  0.1224  0.2005  0.0168
91084W        W91948   9.913  12.777  18.687  0.1667 -0.3545  0.0484
91085W        W91949  15.952  12.649   3.502  0.0179  0.0214  0.1932
91086W        W91950  21.172  19.399   3.869  0.2167 -0.3573  0.1946
91087W        W91951   3.539   7.818  25.471 -0.1513  0.2675 -0.2314
91088W        W91952   6.316  18.996  21.528 -0.0593  0.1953 -0.0881
91089W        W91953  26.595   5.620  17.254  0.1950  0.0838  0.0678
91090W        W91954  26.678  21.399  16.883 -0.2703 -0.2061 -0.0386
91091W        W91955   8.564   6.322   0.932  0.0389  0.1375  0.0538
91092W        W91956  26.498  22.524  12.467 -0.1053  0.0240 -0.2672
91093W        W91957  25.164  13.968  13.865  0.1327 -0.2156 -0.0867
91094W        W91958  11.247  22.474   5.771 -0.3095  0.1288 -0.2193
91095W        W91959  28.337   6.714  23.202 -0.3250 -0.0181  0.2248
91096W        W91960  11.697  24.935  11.688 -0.2754  0.0083 -0.0760
91097W        W91961  22.055  15.577   1.479  0.4969 -0.0640 -0.0192
91098W        W91962   3.848  27.141   0.666 -0.0968 -0.1830  0.2321
91099W        W91963   4.635  27.835  17.089 -0.2062 -0.0445  0.0828
91100W        W91964  13.664  10.381   0.738  0.0368 -0.0292 -0.2127
91101W        W91965   4.559  16.457   6.549 -0.1589 -0.0386  0.1521
91102W        W91966   1.121  18.021  16.143 -0.2170 -0.1348  0.1456
91103W        W91967   3.831  27.503  17.377 -0.3560 -0.1531 -0.0811
91104W        W91968   4.963  25.057  24.856 -0.1773  0.2537 -0.0736
91105W        W91969   4.235  14.600  18.304  0.0555  0.0826 -0.3809
91106W        W91970   3.079  28.308  17.431 -0.1017  0.1892  0.1832
91107W        W91971   5.900  18.804   0.371  0.2740 -0.0367 -0.0336
91108W        W91972  23.149  11.887  10.518  0.2022 -0.0737  0.2330
91109W        W91973   4.655  16.550  27.292  0.0977 -0.0341 -0.3843
91110W        W91974  18.618   6.940   9.973  0.1982 -0.1386 -0.0854
91111W        W91975  12.059  15.988  12.087 -0.0348  0.5309 -0.0700
91112W        W91976   6.821  29.050   9.956  0.1623  0.0776  0.0921
91113W        W91977  16.348   5.304  23.131  0.1630  0.0745 -0.1427
91114W        W91978   0.834   4.234  23.312 -0.3087 -0.2041 -0.3146
91115W        W91979   5.636  12.081  22.404  0.0456  0.1877  0.1483
91116W        W91980  17.941  12.063  20.278 -0.1978  0.0412  0.1625
91117W        W91981   0.368  27.584   0.998 -0.2833 -0.1352  0.3840
91118W        W91982  13.551  18.803   8.936  0.1465  0.1621 -0.2419
91119W        W91983  15.781  13.521  18.583 -0.2121  0.0576 -0.0428
91120W        W91984   0.296  26.529   3.429 -0.1394 -0.0557 -0.0570
91121W        W91985  13.061   5.740   1.076  0.3042  0.0357 -0.0278
91122W        W91986  11.842   0.510  25.574  0.1705  0.1505 -0.0611
91123W        W91987  16.819  27.194  17.381  0.2252 -0.3036  0.0252
91124W        W91988   2.511  11.698  19.104  0.0447  0.0920  0.1176
91125W        W91989  26.614  10.368  15.422  0.0745 -0.0451  0.0158
91126W        W91990  21.557  20.799  25.727 -0.0574 -0.1683  0.0563
91127W        W91991  23.563  17.119  23.314 -0.0240  0.0672  0.1069
91128W        W91992  23.186   7.534  15.236 -0.0688 -0.0582 -0.0971
91129W        W91993  28.462  22.892  20.210 -0.0185 -0.1276 -0.0792
91130W        W91994   1.052  21.378  14.848 -0.4723 -0.1439 -0.1225
91131W        W91995   8.594  17.098   3.374  0.2166  0.0261  0.0635
91132W        W91996  12.630  23.358  28.803  0.0372 -0.3051  0.0018
91133W        W91997   1.396  23.307   1.479  0.1481 -0.1131 -0.0498
91134W        W91998   7.076   7.286  23.021 -0.1437  0.0649  0.2029
91135W        W91999  28.267  26.716   2.080 -0.1481  0.0924  0.0608
91136W        W92000   0.269  24.829  24.061 -0.1643  0.0947 -0.1790
91137W        W92001   9.328   4.803   4.909 -0.0110 -0.0892  0.0509
91138W        W92002  10.959  13.015  20.748  0.4113  0.0528 -0.1215
91139W        W92003  27.769  21.670  22.953  0.0037 -0.0852  0.2303
91140W        W92004  28.204   8.969  21.716 -0.1274 -0.0654  0.2774
91141W        W92005  13.958  16.392  18.613 -0.3831 -0.0500  0.1393
91142W        W92006  17.671  11.133  20.006  0.0887  0.1291  0.3307
91143W        W92007  17.156   2.545  19.662 -0.2666  0.0137  0.1696
91144W        W92008  22.123  14.882   8.324 -0.0894 -0.0355  0.1199
91145W        W92009  26.754  27.647  25.514 -0.0415  0.2037  0.4103
91146W        W92010   0.795   4.633  18.073 -0.0180  0.1436 -0.3161
91147W        W92011  20.330  10.214  25.836 -0.0087  0.1503 -0.0705
91148W        W92012   2.436  17.769  23.015  0.2423 -0.0940  0.5767
91149W        W92013  20.206  23.842  25.505  0.0719 -0.2584  0.0579
91150W        W92014  13.888   5.930   7.114 -0.1534 -0.2338  0.3164
91151W        W92015   8.070   1.545  22.657  0.3365 -0.2973  0.1332
91152W        W92016  17.678  22.597   9.044 -0.0441 -0.0365  0.0046
91153W        W92017  14.890  26.532  26.031 -0.0860  0.2310  0.1912
91154W        W92018   5.438  20.130  12.542  0.1159 -0.0265 -0.1048
91155W        W92019  27.970  16.757  26.435  0.2120 -0.0402 -0.0612
91156W        W92020  13.638  15.734   6.624 -0.0400  0.2281  0.1133
91157W        W92021   5.526  20.644   6.468 -0.2569 -0.1439 -0.0731
91158W        W92022  12.456  20.739  13.393  0.0053 -0.1781 -0.0900
91159W        W92023   3.185  17.646  24.542 -0.2180 -0.1863 -0.1457
91160W        W92024  11.370  24.873  15.668  0.0331  0.1832 -0.0677
91161W        W92025   3.420   3.979  11.727 -0.0968 -0.0591 -0.1121
91162W        W92026  17.412  17.129  27.092 -0.1862 -0.1013 -0.0492
91163W        W92027  15.808  10.229  19.723  0.1720  0.2260  0.0447
91164W        W92028  13.753   2.164  27.506 -0.2959 -0.0221  0.0072
91165W        W92029  15.612  11.587  15.787 -0.2018 -0.3561 -0.3108
91166W        W92030   0.283   8.652  26.096 -0.1196 -0.1644  0.1757
91167W        W92031  15.296  28.561  19.307 -0.1276  0.0597  0.0856
91168W        W92032   4.765  14.535  25.300  0.1750  0.0720  0.0297
91169W        W92033  21.535   9.881  12.429  0.1527 -0.0047 -0.2736
91170W        W92034   9.893  22.955  17.953  0.3993 -0.3456  0.1050
91171W        W92035  17.710  10.376   1.675 -0.1396 -0.1323  0.0899
91172W        W92036   6.814   0.590  21.520  0.3484  0.1775 -0.0013
91173W        W92037  29.023  18.073   2.287 -0.0042  0.1256  0.3747
91174W        W92038  10.861   3.741  22.717  0.1410  0.1623 -0.1081
91175W        W92039  24.250   4.966   5.339  0.0360 -0.0955 -0.1540
91176W        W92040  22.381   8.291  22.990 -0.0589 -0.0906 -0.0620
91177W        W92041  24.771  14.207   1.715  0.0292 -0.1767  0.0328
91178W        W92042  20.109  28.445   2.170  0.0398  0.2201  0.2859
91179W        W92043  27.189  14.482   3.447  0.1612  0.2258 -0.0230
91180W        W92044  19.033  19.876   5.205  0.1961 -0.0522 -0.1102
91181W        W92045  26.501  13.547  16.390 -0.1362  0.0186 -0.3624
91182W        W92046   1.994  11.373  26.546  0.0226  0.1924 -0.0211
91183W        W92047   4.878   8.608  17.563 -0.0202  0.2797 -0.0516
91184W        W92048  25.027   8.533   9.504  0.2440 -0.3313 -0.0948
91185W        W92049  24.774   9.968  21.651  0.3104 -0.0175 -0.4018
91186W        W92050   5.451   2.603  18.383 -0.1533  0.1782 -0.0340
91187W        W92051  26.255  16.419   0.142  0.2836  0.1651 -0.0622
91188W        W92052  11.487  12.565  19.123  0.0343 -0.1722 -0.2006
91189W        W92053  16.587  17.035  24.593  0.1801 -0.1232  0.0942
91190W        W92054   9.865  14.354  20.469 -0.0635 -0.1725  0.1810
91191W        W92055  24.329  23.716  19.973 -0.0376  0.1550  0.1131
91192W        W92056   2.454   7.852  22.755  0.0771  0.1900 -0.2610
91193W        W92057  26.447  15.987  16.315  0.0587 -0.2367  0.3150
91194W        W92058  16.375  10.776  28.868  0.2219 -0.1164  0.2758
91195W        W92059  21.733   7.779  23.893 -0.2858 -0.0611 -0.3657
91196W        W92060  24.310  25.140  18.444 -0.1338  0.0148  0.2823
91197W        W92061  21.642  16.222  19.173  0.2150 -0.1441 -0.1044
91198W        W92062   4.647  20.432  12.394  0.1553  0.2207 -0.0688
91199W        W92063  27.553  14.524   9.210  0.3608  0.1921 -0.0230
91200W        W92064   7.737   1.438  13.462  0.1037 -0.1315 -0.0675
91201W        W92065   8.865  17.062  26.514  0.0794  0.0562  0.1983
91202W        W92066   1.835  18.985  26.639  0.1900 -0.1372  0.0179
91203W        W92067  15.574  26.476  20.128 -0.1653  0.1376 -0.2773
91204W        W92068  24.569   8.983   3.142 -0.0817  0.1410  0.1970
91205W        W92069  27.735  14.123  18.315  0.2296  0.0138 -0.1245
91206W        W92070   7.116   1.252  28.971 -0.1681  0.0457 -0.3005
91207W        W92071  26.737  12.683   9.200  0.3507 -0.0252 -0.3802
91208W        W92072  28.076  18.184  14.928 -0.2879 -0.2449  0.0646
91209W        W92073  18.140  22.547  21.063  0.1114  0.2082  0.2639
91210W        W92074   4.388  17.335   1.793  0.0130  0.2484 -0.0396
91211W        W92075   7.668   7.863  14.331  0.0430 -0.1563 -0.2407
91212W        W92076  12.320  14.380  26.553  0.0176 -0.1249  0.2015
91213W        W92077  27.254  18.315   5.404 -0.2960 -0.0657 -0.1115
91214W        W92078  28.072   7.538  15.070 -0.3650  0.0586 -0.1700
91215W        W92079  27.843  12.422   7.897 -0.1049 -0.2908  0.1734
91216W        W92080  27.139  11.003  20.846  0.2181  0.3173 -0.2168
91217W        W92081  25.706   2.024  14.647  0.0408  0.1287 -0.0365
91218W        W92082  26.294  21.709  28.144 -0.1704 -0.1983  0.0580
91219W        W92083   9.520  17.716  19.550  0.0181 -0.1976  0.0054
91220W        W92084   0.746  12.510   7.990  0.0155  0.3198  0.2108
91221W        W92085  12.150   0.843   1.131 -0.2529  0.0024 -0.0388
91222W        W92086   3.364   0.513  18.554  0.3060  0.2768  0.3042
91223W        W92087   3.176   7.249   4.328  0.2528  0.0198 -0.1000
91224W        W92088   3.263   0.940  14.608  0.1226 -0.1122 -0.1609
91225W        W92089   4.836  21.867   4.877  0.0030 -0.1672 -0.0151
91226W        W92090  10.300   4.810  18.629  0.1271 -0.3184  0.1604
91227W        W92091  16.216  10.641   2.041  0.0970 -0.0534 -0.3823
91228W        W92092  20.811   9.989  27.521 -0.0442  0.2509  0.0335
91229W        W92093  26.112  21.090  21.654 -0.1358  0.1567 -0.0752
91230W        W92094  21.878  24.452  22.808 -0.1538 -0.2012 -0.0944
91231W        W92095  10.546   1.421  27.133 -0.0485  0.1855 -0.1024
91232W        W92096  27.682  25.889  18.718 -0.0477  0.1068  0.0678
91233W        W92097  18.558   7.465  18.011 -0.1326 -0.2456  0.1829
91234W        W92098  28.559   7.948  18.510 -0.1036  0.1747  0.0213
91235W        W92099  12.547  11.007   2.389  0.0232  0.1743 -0.0254
91236W        W92100   4.841  10.699   9.750 -0.1531 -0.4455  0.1436
91237W        W92101  11.347  21.321  12.126  0.1571 -0.2437 -0.1284
91238W        W92102  26.887  12.180  23.798  0.1986 -0.2719 -0.2505
91239W        W92103  11.998  24.141  19.336 -0.1020  0.0602 -0.2375
91240W        W92104  22.961  16.826  18.854 -0.1870  0.0602  0.0512
91241W        W92105  24.484  25.637   4.039 -0.1847  0.0169  0.0554
91242W        W92106  26.137  26.323   7.705 -0.1091 -0.1298 -0.0249
91243W        W92107  11.365  14.444  19.869 -0.1173 -0.0412  0.1887
91244W        W92108   3.049   2.185   3.254  0.0003 -0.1045 -0.1637
91245W        W92109  15.682  12.118   0.714 -0.3354 -0.0543 -0.1759
91246W        W92110  22.308  20.036  21.404 -0.0479 -0.1073  0.3031
91247W        W92111   6.784   4.180   7.349 -0.0199 -0.1708 -0.1570
91248W        W92112  19.826  11.482   5.388 -0.0134 -0.1437 -0.1020
91249W        W92113  17.513  15.121  19.301 -0.3758 -0.0374  0.1698
91250W        W92114  14.207  25.376   2.120  0.2857  0.0576 -0.0846
91251W        W92115   7.971   4.029  15.070  0.4096  0.0060  0.2409
91252W        W92116   9.979  28.826  24.919 -0.1309  0.0838 -0.1040
91253W        W92117  24.143  12.083  13.376 -0.0076  0.0245  0.2580
91254W        W92118   0.381  10.096   4.017  0.2321  0.0171 -0.0977
91255W        W92119  25.582  13.352   8.761 -0.0455 -0.0890  0.1724
91256W        W92120  19.016  19.604   8.625 -0.0034  0.0125  0.0293
91257W        W92121  18.708  13.565   6.107  0.1586 -0.1381  0.3080
91258W        W92122  15.879  14.479  28.447 -0.2070 -0.2093 -0.2107
91259W        W92123  11.660  16.603  26.117  0.0399 -0.1173 -0.0808
91260W        W92124   5.869  20.255   4.139  0.1467  0.1124 -0.1713
91261W        W92125   8.626  22.708  28.770 -0.1768 -0.0035  0.1072
91262W        W92126   9.203  24.505  14.578  0.2452  0.0872  0.0319
91263W        W92127  26.517   3.803  13.326  0.1932 -0.3844 -0.0531
91264W        W92128  13.861  23.642   2.587 -0.0852  0.3047 -0.3117
91265W        W92129  20.718  16.585  28.851 -0.2439  0.1042 -0.1538
91266W        W92130  24.819  15.213  12.254  0.1047  0.0259 -0.1888
91267W        W92131  23.777   9.370  24.297  0.1585 -0.1729 -0.0336
91268W        W92132   3.855  18.734  18.003  0.0211  0.3281 -0.2164
91269W        W92133  13.903  24.432  17.826  0.0882 -0.0141  0.1835
91270W        W92134   4.180  27.017   5.890  0.1997 -0.2552 -0.2497
91271W        W92135  12.650   7.448  26.579  0.0668 -0.1819 -0.3084
91272W        W92136  18.324   1.193   7.996  0.0546  0.0124  0.1995
91273W        W92137   3.319   4.784   9.681 -0.3975 -0.1901 -0.1025
91274W        W92138  24.178  12.082   5.272 -0.0074  0.0128  0.1495
91275W        W92139   9.360  20.250   1.580  0.2401  0.0501  0.0672
91276W        W92140   2.573  17.303  10.455 -0.1345  0.1883 -0.0875
91277W        W92141  11.122  24.598  14.032  0.1750 -0.0864 -0.0054
91278W        W92142  22.787  17.676   8.329  0.0260 -0.1073 -0.0288
91279W        W92143  20.599   0.880   0.171  0.3665 -0.2714 -0.0551
91280W        W92144   0.279  13.174   6.268 -0.1332  0.1403  0.1163
91281W        W92145  28.501  12.368   3.326 -0.0119  0.2893 -0.0717
91282W        W92146   8.255   7.095   2.155 -0.2033  0.0607  0.2566
91283W        W92147  16.294  14.586  14.438 -0.1319 -0.2516  0.2361
91284W        W92148  19.956   1.097  16.239 -0.1970 -0.0758  0.0081
91285W        W92149  28.115  23.899  15.559 -0.2652 -0.0105  0.2227
91286W        W92150  17.598  18.163  11.237  0.0505 -0.0465  0.0108
91287W        W92151  24.294  21.321   0.692  0.0093  0.1822 -0.1739
91288W        W92152   4.587   3.929   9.119 -0.2084 -0.1927 -0.3214
91289W        W92153  11.015  12.855  27.119 -0.1622  0.1663 -0.1091
91290W        W92154  20.405  24.036  19.027  0.0709  0.1087 -0.2168
91291W        W92155   6.188  19.043  26.101 -0.0972  0.1668  0.3423
91292W        W92156   1.955   5.552  23.254  0.4247  0.0031 -0.0706
91293W        W92157  21.692   4.446  11.194  0.0698 -0.1275 -0.2122
91294W        W92158   0.175  19.267  14.761 -0.2221 -0.2830  0.2527
91295W        W92159  13.677  23.040   8.105  0.1351 -0.2469 -0.1009
91296W        W92160  23.135  10.357   6.905 -0.0168  0.0468 -0.1770
91297W        W92161   5.743  27.194  26.689  0.1799  0.1031  0.2560
91298W        W92162  18.621  25.766  26.282 -0.1264  0.2342 -0.1570
91299W        W92163  25.616   1.090   3.005  0.0806  0.1737 -0.2579
91300W        W92164   4.026  12.650   3.578 -0.2446  0.0844 -0.1593
91301W        W92165   3.640  24.386  20.505 -0.0831  0.1531  0.1667
91302W        W92166  24.539  17.740  26.809  0.0406 -0.1229 -0.2041
91303W        W92167  16.677  26.717  23.275  0.2938  0.1549 -0.0764
91304W        W92168  25.240   4.761   4.374 -0.0366  0.1102  0.0239
91305W        W92169  20.962  12.660  14.771  0.4375  0.0685  0.2758
91306W        W92170  21.019   7.761  18.422  0.0769 -0.1003  0.1576
91307W        W92171   1.411  18.585  12.582 -0.0359 -0.0985 -0.0828
91308W        W92172  18.338   0.865  27.421  0.0540  0.0970 -0.0016
91309W        W92173  12.592  26.157  27.753 -0.1574 -0.0847 -0.0106
91310W        W92174  10.198  29.039  20.582 -0.1439  0.0735  0.0214
91311W        W92175  25.408  12.392  26.296  0.0854  0.0904 -0.1228
91312W        W92176   8.004   6.086  25.549  0.0132 -0.0795  0.1426
91313W        W92177  13.832  19.951   9.962  0.2864 -0.0021 -0.2453
91314W        W92178  11.483  14.926  28.163  0.1977  0.0615 -0.1924
91315W        W92179   3.710  25.238  23.005  0.2406  0.0130 -0.0401
91316W        W92180   4.211  10.536  17.746  0.0874  0.0371 -0.0901
91317W        W92181   2.099  16.728   0.418 -0.2212  0.1419 -0.2339
91318W        W92182  25.981   8.756  13.228 -0.0107 -0.0410 -0.2466
91319W        W92183  20.299   0.725   7.070 -0.3560  0.2078  0.1385
91320W        W92184  22.734  19.589  11.996  0.1985  0.1198 -0.0945
91321W        W92185   8.040  10.997   0.681 -0.0127 -0.1020 -0.0438
91322W        W92186  10.098  22.766  22.361  0.0983 -0.1821 -0.1526
91323W        W92187  20.981  15.644  18.089  0.0244 -0.0651 -0.2548
91324W        W92188  17.501  19.160  20.595  0.4070 -0.0483 -0.1998
91325W        W92189  27.196   7.480  21.412 -0.2146 -0.4398 -0.1845
91326W        W92190  25.461  22.612  15.948 -0.4312  0.1820 -0.3897
91327W        W92191   3.664   1.091  26.486  0.0798 -0.1453  0.0248
91328W        W92192   3.785  23.779  24.826  0.0789 -0.3108 -0.0843
91329W        W92193  10.530  14.376   0.458  0.0089  0.0013 -0.0356
91330W        W92194  20.224  27.032   3.410 -0.0770 -0.2123  0.1154
91331W        W92195  24.831   9.742   1.632 -0.0319 -0.0957 -0.0847
91332W        W92196  11.487  11.869  13.399 -0.0827  0.0102 -0.4361
91333W        W92197  22.275   5.264  28.236 -0.2419 -0.0720 -0.2102
91334W        W92198  24.458  26.106  26.530  0.2111 -0.1818  0.0859
91335W        W92199   7.785   6.312  18.924 -0.2105 -0.0307  0.0887
91336W        W92200  23.953   7.439  22.580  0.0534  0.3329  0.2119
91337W        W92201   3.560  11.995  27.254  0.2546 -0.1140  0.0137
91338W        W92202   9.950  22.646   1.668  0.0703 -0.1162 -0.0940
91339W        W92203  11.996   1.436  18.990 -0.0624 -0.1431  0.0864
91340W        W92204  12.308  28.519  16.276 -0.2625 -0.0629 -0.3617
91341W        W92205   1.735  17.214  18.653  0.0369  0.1065  0.2953
91342W        W92206   4.903  11.462  26.783 -0.2489 -0.1948 -0.1567
91343W        W92207  26.615   4.458   2.538 -0.0581 -0.0241 -0.0823
91344W        W92208   3.855  14.344   3.003  0.3622  0.0987  0.2368
91345W        W92209  19.698  22.140  14.897 -0.0750  0.1639 -0.1823
91346W        W92210  28.050   0.141   6.201 -0.1143  0.1809  0.4096
91347W        W92211   0.605   4.170  15.626 -0.2667 -0.2348 -0.4504
91348W        W92212  24.063   4.326  10.229 -0.2393 -0.2836  0.0619
91349W        W92213  25.787  11.247   9.141  0.0580 -0.0626 -0.2892
91350W        W92214  28.927  19.146   3.907 -0.2858  0.2802 -0.1483
91351W        W92215  23.513  11.602   0.463 -0.2382 -0.2117  0.3292
91352W        W92216   6.298  16.134  24.089 -0.0098 -0.0530  0.3613
91353W        W92217   2.472  11.470  21.897 -0.2466  0.0218  0.1046
91354W        W92218  18.246   6.097   9.495 -0.0713  0.1260 -0.0795
91355W        W92219  12.285  27.298  10.364 -0.1051  0.0411 -0.0505
91356W        W92220  25.081   2.624  13.432  0.0915 -0.0274  0.0019
91357W        W92221  28.322  19.732  21.255 -0.2669 -0.2571  0.0732
91358W        W92222  28.289  14.010   6.045  0.1048  0.2013 -0.1189
91359W        W92223  28.923  21.742  22.739 -0.2186 -0.0920 -0.1153
91360W        W92224  20.644   8.413  18.896 -0.0065  0.1781 -0.0387
91361W        W92225  21.765  18.528  16.578  0.2270  0.1897 -0.0168
91362W        W92226  13.636  21.757   3.536  0.0917 -0.0907  0.2729
91363W        W92227  11.028   6.039  19.177  0.4064  0.0319 -0.0114
91364W        W92228  11.536  14.070  13.862 -0.2107  0.0611  0.1042
91365W        W92229   5.129  12.975  28.875 -0.0363  0.0055 -0.2236
91366W        W92230  25.767   4.360   4.441 -0.0558  0.0558 -0.1289
91367W        W92231  21.133  27.370   3.386  0.1306  0.0848 -0.1630
91368W        W92232  18.158  20.716  24.749 -0.0701  0.2617 -0.2137
91369W        W92233   1.242  24.149   2.595  0.1143  0.3293  0.1390
91370W        W92234  24.050  11.564  12.561 -0.2433 -0.2831 -0.0363
91371W        W92235   7.993  13.815  17.730  0.1393  0.0306 -0.1526
91372W        W92236   7.850   4.245  25.984  0.0336  0.0089  0.0897
91373W        W92237  15.601   1.495   6.841  0.1555 -0.0546 -0.2975
91374W        W92238   8.244   9.914  23.929 -0.0678  0.0249 -0.1730
91375W        W92239  10.472  25.697  27.245 -0.1877 -0.0361  0.0963
91376W        W92240  26.977  16.842  26.089 -0.2041  0.1779 -0.1108
91377W        W92241  23.873  26.003  18.650 -0.0546 -0.3394  0.2342
91378W        W92242  12.311  20.101   1.220  0.3960 -0.2421 -0.4256
91379W        W92243  16.055  21.006  16.058  0.2606 -0.0989  0.1112
91380W        W92244  18.468  29.008  11.321 -0.3025  0.1713  0.0438
91381W        W92245  14.204  19.151  26.278 -0.1420  0.1876 -0.0543
91382W        W92246  26.613  15.956  10.043 -0.3638 -0.0447 -0.4896
91383W        W92247   3.656  27.153  26.533 -0.0023  0.1677 -0.1063
91384W        W92248  24.837  11.926  21.404 -0.0854  0.1181 -0.3777
91385W        W92249  24.025   7.312   4.499  0.0478 -0.1517  0.0273
91386W        W92250  21.653  14.763  24.877 -0.0512 -0.0859  0.1074
91387W        W92251  14.101  25.196  14.069 -0.0724 -0.0031  0.0260
91388W        W92252  16.139   0.949   3.505  0.0789  0.0327 -0.2269
91389W        W92253   8.207   5.674   5.996 -0.1591  0.3015 -0.1028
91390W        W92254  28.847  27.527  14.558 -0.0376  0.3576  0.3380
91391W        W92255   1.403  21.710  14.709  0.2175 -0.1824  0.1887
91392W        W92256   3.393   8.580  26.459 -0.0715 -0.1577  0.1260
91393W        W92257  21.449  10.885   6.838  0.1449  0.0699 -0.1329
91394W        W92258  14.089   4.796  15.535  0.0595  0.0650 -0.2821
91395W        W92259   9.846  25.806  11.177  0.0396  0.1385  0.0230
91396W        W92260  22.271   3.253  23.227  0.0609 -0.1020  0.0468
91397W        W92261   2.945  24.734  15.691  0.0310  0.1673 -0.0117
91398W        W92262  24.375  25.911   8.941 -0.0627 -0.1962  0.2625
91399W        W92263  14.113  12.414   2.546 -0.0955 -0.1670  0.0992
91400W        W92264  24.029  11.681  20.958 -0.0581 -0.3491  0.0489
91401W        W92265  21.945   9.187  20.186 -0.2203 -0.1586 -0.2994
91402W        W92266   5.321   8.504   2.947 -0.0912  0.1092 -0.0256
91403W        W92267   1.800  18.178   2.782  0.1291 -0.2417 -0.0443
91404W        W92268  17.501   0.772   9.069  0.0899  0.0494 -0.2562
91405W        W92269   9.400  14.150   6.083 -0.1089  0.0542 -0.0832
91406W        W92270   1.982  22.864  22.116 -0.1429 -0.1067  0.3505
91407W        W92271  26.791  12.764   3.599  0.2618 -0.1422 -0.0410
91408W        W92272   5.756   8.178   4.243  0.2107  0.3302  0.1479
91409W        W92273  16.906  27.151   8.276 -0.0822 -0.0315  0.2749
91410W        W92274  12.860  27.900  26.546 -0.0455  0.0060 -0.1819
91411W        W92275   3.583   4.859   1.715 -0.0121  0.3928 -0.4187
91412W        W92276  22.830  15.060  22.185  0.1192  0.2125  0.1004
91413W        W92277  10.333   8.641  26.111  0.0592  0.2952 -0.2205
91414W        W92278   6.957  26.941   1.278 -0.1063  0.1937 -0.0161
91415W        W92279  12.693  12.477  24.047 -0.1456 -0.1077 -0.2562
91416W        W92280  10.364  11.955   9.367 -0.4171 -0.0891  0.3309
91417W        W92281  28.429  14.227  24.361 -0.0325  0.0049 -0.0136
91418W        W92282  14.209  24.736  24.971  0.1359  0.0681 -0.3150
91419W        W92283  15.265   7.215  21.550  0.1411 -0.0541 -0.0934
91420W        W92284  26.472  21.154   0.790 -0.1311  0.1592  0.1543
91421W        W92285  16.468  10.370   2.963  0.2056 -0.1897  0.1318
91422W        W92286  18.629   4.512   3.151  0.2168 -0.0818 -0.0310
91423W        W92287   3.580  20.702   5.091  0.0783 -0.0109  0.1587
91424W        W92288  22.084   5.550   4.694 -0.0872  0.2268  0.0591
91425W        W92289  19.280  12.849  14.733  0.0428  0.3866 -0.4066
91426W        W92290   9.051  12.003  23.429 -0.0346  0.0104 -0.0266
91427W        W92291  21.538  19.076  22.131 -0.0391  0.3382  0.2921
91428W        W92292  23.646  27.160  23.369 -0.1464 -0.1641  0.0545
91429W        W92293  20.115   8.701  25.925 -0.2256 -0.0773  0.2817
91430W        W92294   6.615  28.510  15.827  0.2260  0.0629 -0.0959
91431W        W92295   3.343   0.622  25.140  0.0154  0.0606  0.1570
91432W        W92296   1.725  17.643  20.599  0.3023 -0.3704  0.1616
91433W        W92297  23.942  26.380  15.819  0.1717  0.1481  0.0479
91434W        W92298  21.573   9.104  14.727  0.2724 -0.1387  0.1448
91435W        W92299  17.173  28.279   7.644 -0.0643  0.1170 -0.0903
91436W        W92300   7.554  20.568   1.243  0.0851 -0.2387  0.0225
91437W        W92301  25.134  22.044  24.356 -0.1340 -0.1991 -0.2010
91438W        W92302  16.690   2.039   4.026  0.0184  0.0096 -0.2467
91439W        W92303  19.769  24.345   4.026  0.0830 -0.3024  0.0782
91440W        W92304  28.342  22.940   1.325  0.0194 -0.0295 -0.0365
91441W        W92305   0.366  15.952  19.387 -0.1033 -0.2412 -0.2612
91442W        W92306  10.344   9.589  27.684 -0.3158  0.3516  0.0100
91443W        W92307   9.201  20.667  11.661  0.0026 -0.0149  0.1785
91444W        W92308  27.902  14.016  10.350 -0.1565  0.1804 -0.2318
91445W        W92309  22.237  18.741   8.607  0.0381 -0.0951 -0.2723
91446W        W92310   6.808   5.063  15.712 -0.1019  0.0670  0.0953
91447W        W92311  12.407   7.140  17.653 -0.0444  0.0512 -0.1191
91448W        W92312  25.448  17.909  27.193  0.0222  0.1275  0.0936
91449W        W92313   1.448   1.514  12.212  0.1076  0.2992  0.1242
91450W        W92314   3.271   7.551  26.339  0.0043  0.1760 -0.0622
91451W        W92315   8.213   7.515   6.545  0.0695  0.2369 -0.2793
91452W        W92316   1.534   1.189   4.631 -0.1570 -0.0335  0.2260
91453W        W92317  15.275  14.099   9.044 -0.0966 -0.3178  0.0465
91454W        W92318   7.147  11.630  13.172  0.0174 -0.1977  0.0664
91455W        W92319  26.465  14.652   2.926  0.0297 -0.1149  0.0715
91456W        W92320  18.122  15.641   6.507 -0.2629 -0.0460  0.1916
91457W        W92321   6.454   1.056   2.552 -0.0214 -0.1886 -0.2360
91458W        W92322  27.271  11.891  25.494 -0.0044  0.1162 -0.1693
91459W        W92323  17.035   2.963  27.732  0.2117  0.0815 -0.1342
91460W        W92324  24.002  21.722   8.732  0.2235  0.0378 -0.2187
91461W        W92325   9.740  19.168  19.637  0.2790  0.1524  0.0499
91462W        W92326  25.944  25.656  13.186 -0.0161  0.0318 -0.0610
91463W        W92327   4.763  23.525  16.124  0.0033  0.0630 -0.4044
91464W        W92328  18.958   2.664  21.972 -0.0356 -0.0275 -0.1891
91465W        W92329  28.589  21.977   1.092 -0.0387 -0.0420 -0.0822
91466W        W92330   3.318  18.828  17.154 -0.1025 -0.1333  0.3184
91467W        W92331  25.574   7.020  12.595 -0.4356  0.1324 -0.2517
91468W        W92332  17.937  11.160   9.643 -0.1289 -0.2212  0.1437
91469W        W92333  19.763  20.473   3.530  0.1911  0.0904 -0.1591
91470W        W92334   1.090  11.311   9.842  0.3478  0.2567 -0.0843
91471W        W92335   1.501  23.625  12.724  0.2630  0.1763  0.1601
91472W        W92336  14.096  12.327   0.750  0.0110  0.2152  0.1383
91473W        W92337  10.988   1.369   4.726 -0.0226  0.1268 -0.0707
91474W        W92338   5.120   2.648  24.213  0.1556 -0.0678 -0.0887
91475W        W92339  21.015   9.954  17.398 -0.3112 -0.0215  0.1771
91476W        W92340   1.721  20.613  14.492  0.2065 -0.1739 -0.0813
91477W        W92341   2.468  14.982  16.751  0.1938 -0.1556 -0.0935
91478W        W92342   6.352  18.641  14.072 -0.1946 -0.2126 -0.1001
91479W        W92343   9.486  15.095  22.923  0.1198  0.0898 -0.1281
91480W        W92344  14.752  11.189  25.435 -0.2693 -0.0148  0.1414
91481W        W92345  28.668  27.791  12.815 -0.0538  0.3926  0.3188
91482W        W92346   5.147  21.501  26.849 -0.0352  0.1526  0.0523
91483W        W92347   6.454  17.592  17.069 -0.0452 -0.0789 -0.0789
91484W        W92348  24.406  26.077  14.816 -0.0981  0.1845  0.2245
91485W        W92349  12.698  21.599  17.395  0.3292  0.1223 -0.2257
91486W        W92350  13.418  25.205  14.948 -0.2370  0.4781  0.1640
91487W        W92351  25.937   4.162   6.078 -0.1277  0.2777 -0.1957
91488W        W92352   1.103   9.432  20.460  0.5046 -0.3861  0.0981
91489W        W92353   6.604  15.139   7.389 -0.2217  0.2870  0.1512
91490W        W92354   5.181  24.483  10.463  0.0193  0.0045  0.0812
91491W        W92355  15.479  17.281  20.284 -0.4994 -0.3218  0.0744
91492W        W92356   6.418  12.901   9.348 -0.3129 -0.0225  0.0629
91493W        W92357   5.657   2.698  20.961 -0.0719 -0.0665  0.3620
91494W        W92358  12.727   2.086   9.045  0.2674 -0.0340 -0.2322
91495W        W92359  25.164  10.074   8.607  0.0926  0.1364 -0.1873
91496W        W92360  28.212   0.336   9.106 -0.0697  0.1926 -0.1078
91497W        W92361  25.760  20.363  17.276  0.1208  0.1795  0.1829
91498W        W92362   0.571  21.498  18.518  0.0868  0.0420 -0.2449
91499W        W92363   3.461   1.379  14.508  0.1385  0.0935  0.2848
91500W        W92364  14.093   7.762   5.504  0.3085  0.0054  0.1397
91501W        W92365   2.701  16.639  27.964 -0.2864 -0.3000  0.0946
91502W        W92366  15.288   9.444  22.558  0.2034  0.1925  0.2325
91503W        W92367  24.589   6.665  27.258 -0.1218  0.1471 -0.1798
91504W        W92368  29.096   6.321  24.469 -0.1931  0.0672 -0.1605
91505W        W92369  24.706   2.607   1.283  0.3007  0.0198 -0.1501
91506W        W92370   0.297  18.744  23.339  0.0050 -0.0189 -0.2659
91507W        W92371  22.337  27.641  14.554 -0.5088  0.3569  0.1569
91508W        W92372   4.945  19.594   8.029  0.0194  0.0942 -0.0235
91509W        W92373  11.869   5.161   3.380  0.3173  0.1584 -0.2287
91510W        W92374   1.394  19.377  21.779 -0.2485 -0.1404 -0.2257
91511W        W92375  26.120  14.766  25.962 -0.0761  0.3968 -0.0314
91512W        W92376   7.552  12.132  24.053 -0.1195 -0.1625 -0.0538
91513W        W92377  21.224   1.178   5.273 -0.0035 -0.0175 -0.1021
91514W        W92378   9.118   1.882  27.801  0.0702  0.0717 -0.2841
91515W        W92379  17.218  13.367  22.971 -0.3139  0.1298 -0.0006
91516W        W92380  23.894  24.678  22.082 -0.2135 -0.2298  0.1554
91517W        W92381   9.358   1.166   2.774 -0.2696  0.4119 -0.0280
91518W        W92382  25.301   2.216  23.822  0.0540  0.1189 -0.1165
91519W        W92383  28.877   7.194  25.273 -0.3662  0.0108  0.0167
91520W        W92384  20.831   1.544  20.009  0.0612 -0.2990  0.0345
91521W        W92385  17.919   7.380  10.949  0.2169 -0.1611 -0.1638
91522W        W92386  27.998   2.874  13.275  0.1651  0.2185  0.0803
91523W        W92387  28.767  28.417  23.110 -0.0115  0.1209 -0.2422
91524W        W92388  10.295  26.821   5.820 -0.0807 -0.1988  0.2085
91525W        W92389  19.258  17.986  11.745  0.0856 -0.1754 -0.0393
91526W        W92390   0.383   7.891  24.482  0.1130  0.2122 -0.1413
91527W        W92391  28.428  11.309  18.147  0.0538 -0.0531 -0.2654
91528W        W92392  29.041  13.937  27.064 -0.2744  0.0331  0.0860
91529W        W92393   5.857  28.131  28.397 -0.0943 -0.1909  0.1491
91530W        W92394   4.929  22.126  19.730  0.2381  0.0397  0.1862
91531W        W92395  18.684  13.120  28.062  0.0408  0.1109  0.2337
91532W        W92396   7.034  14.568  12.405 -0.1023 -0.0797 -0.1472
91533W        W92397  21.850  25.567   4.060 -0.1326  0.2112  0.2065
91534W        W92398   7.034  25.818   8.418 -0.1496 -0.0357 -0.1402
91535W        W92399   0.460  19.387  15.398  0.1960 -0.0960 -0.2616
91536W        W92400  27.976   6.618  22.348 -0.0376  0.2045  0.2267
91537W        W92401   0.818  20.030  18.517  0.2299  0.4204  0.0640
91538W        W92402  27.091   6.182  18.522 -0.1730 -0.2561  0.0005
91539W        W92403  20.900  24.200  22.442 -0.2493  0.3364 -0.0932
91540W        W92404   9.642   1.802  18.739 -0.2739 -0.0090  0.0870
91541W        W92405  16.385  21.756   2.346 -0.0794  0.3887  0.0340
91542W        W92406  19.132  28.818  25.153 -0.0266 -0.0617 -0.0295
91543W        W92407   4.614  12.610  28.085 -0.1274 -0.3659  0.0194
91544W        W92408  24.871   2.098  19.591 -0.1733 -0.3197 -0.0077
91545W        W92409  18.575  13.630  27.669 -0.1365  0.1977  0.2373
91546W        W92410  17.880   3.774   2.861  0.0868 -0.2561 -0.0958
91547W        W92411  13.036  12.762  12.145  0.2575  0.2074  0.2146
91548W        W92412   2.006  18.403  19.396  0.1966  0.3008  0.2526
91549W        W92413  14.915  25.119  26.344  0.0816  0.0376 -0.1655
91550W        W92414  15.604  17.393  25.835 -0.0272  0.0957 -0.0329
91551W        W92415  24.508   6.301  16.121  0.0075  0.1180  0.0535
91552W        W92416  21.416  20.664  24.958  0.3809  0.2892  0.0342
91553W        W92417  12.289  28.756  18.062 -0.0941 -0.0233 -0.0034
91554W        W92418   9.972   1.606  12.220 -0.1203 -0.0772 -0.0047
91555W        W92419   4.057  12.798   7.848 -0.2788 -0.0733 -0.2181
91556W        W92420  17.143  26.040  24.283 -0.3322  0.1022  0.0475
91557W        W92421  27.401  16.650  13.411  0.1297  0.1683  0.3367
91558W        W92422  27.859  19.909   5.693 -0.0321  0.5145 -0.2237
91559W        W92423   0.460   9.711  17.399 -0.3207 -0.2616  0.2089
91560W        W92424  13.517   1.681   1.219 -0.0979  0.0889 -0.1225
91561W        W92425  24.358  13.839  11.616  0.0403  0.1458 -0.0396
91562W        W92426  18.427  16.264  25.198  0.1610 -0.3286 -0.0378
91563W        W92427   3.114  26.551  28.270 -0.0847 -0.0140  0.0143
91564W        W92428   1.549  15.674  10.048  0.2803  0.0071  0.0024
91565W        W92429   9.400  18.094  10.042  0.2286 -0.0113  0.0767
91566W        W92430   2.901  22.003   3.484  0.3226 -0.0991  0.2225
91567W        W92431   3.974   3.607  29.143 -0.1168  0.1212  0.1153
91568W        W92432  19.223  15.570  17.279 -0.0088 -0.3344 -0.4416
91569W        W92433  16.461   9.499   2.689  0.0615  0.1555 -0.1547
91570W        W92434   8.077   3.863  25.709  0.2051 -0.0615 -0.1458
91571W        W92435  16.795   3.087  10.783  0.1041 -0.4203 -0.1424
91572W        W92436   7.486   7.485  23.284 -0.2068 -0.0893 -0.1323
91573W        W92437  16.192  14.281  25.561 -0.0733  0.1229 -0.2211
91574W        W92438   5.931  22.475  15.843 -0.0793 -0.2261  0.1417
91575W        W92439  26.165  16.967  17.889 -0.1472 -0.2589  0.0664
91576W        W92440   7.650   7.492   4.464 -0.2239 -0.0436 -0.2661
91577W        W92441  12.637  22.020   0.051  0.1817 -0.2480  0.2081
91578W        W92442  24.460  17.276   3.485  0.0737  0.2018 -0.2980
91579W        W92443  13.621  15.548  11.202 -0.2468 -0.3325 -0.0178
91580W        W92444   4.453  22.897   0.832  0.0127 -0.1953  0.0089
91581W        W92445   8.358  19.625  20.305  0.0455  0.1528 -0.1208
91582W        W92446  11.650   1.269  21.338 -0.1240 -0.2665 -0.1834
91583W        W92447   3.296  12.050   3.884 -0.4635  0.0451  0.1891
91584W        W92448   0.351  12.233  17.930 -0.1350 -0.0149 -0.0853
91585W        W92449  24.710  14.711   6.542  0.2663  0.0895  0.2393
91586W        W92450   4.083   3.553  23.420  0.2037 -0.1510  0.0544
91587W        W92451  18.336  15.520  26.555  0.1532  0.1052  0.0450
91588W        W92452   2.627   0.957  12.667  0.1847  0.3342 -0.0763
91589W        W92453  28.788  23.183  29.111  0.1567  0.4067  0.2067
91590W        W92454  18.733  11.778  27.538 -0.0445 -0.3276  0.1001
91591W        W92455  16.739  12.427  16.023 -0.1478 -0.0383 -0.0416
91592W        W92456  29.052  20.977  26.300 -0.0663 -0.3803 -0.2412
91593W        W92457  24.890   4.287  21.532  0.0338 -0.1707 -0.0219
91594W        W92458   7.806  15.122   1.488 -0.1010 -0.2454 -0.0512
91595W        W92459  11.034  15.463   6.343  0.0937 -0.1392  0.0009
91596W        W92460  15.704   9.505  26.592  0.0019  0.3186  0.1229
91597W        W92461  20.410  15.996  20.581  0.2202  0.0130 -0.0849
91598W        W92462   6.087  10.964  11.124 -0.0385 -0.0102  0.3023
91599W        W92463  13.888   2.944  25.306 -0.1326  0.0323  0.1537
91600W        W92464   4.990  13.439  17.905 -0.1196 -0.1317  0.0776
91601W        W92465   3.154  21.269  20.981 -0.0061 -0.2311  0.3398
91602W        W92466   9.799  12.459  23.640  0.0868 -0.0093 -0.1113
91603W        W92467   9.183   4.512  16.118 -0.0765 -0.1895 -0.2276
91604W        W92468  20.391   3.547  26.519  0.2129  0.0589  0.0035
91605W        W92469  11.249  14.854  16.666  0.2995 -0.0193 -0.0049
91606W        W92470  23.418   3.523  26.585  0.0475  0.0844 -0.0880
91607W        W92471   5.131  22.516  24.092  0.0125 -0.0937 -0.0408
91608W        W92472  28.607  15.319   5.423 -0.0764  0.0533 -0.0957
91609W        W92473   0.606   2.625  19.381 -0.0944  0.3249  0.3627
91610W        W92474  28.360  21.086   3.557 -0.0673 -0.1259  0.4054
91611W        W92475   0.670  17.366  17.292  0.1271  0.1111 -0.2000
91612W        W92476  18.292  23.936  22.694  0.0366  0.0788 -0.1802
91613W        W92477   0.874  23.979   7.850  0.2292 -0.0293  0.0068
91614W        W92478  22.175  12.119  23.392 -0.1217  0.1006  0.0956
91615W        W92479  24.541   1.114   0.633  0.0296  0.2592 -0.0704
91616W        W92480  27.636  11.980   3.157  0.2208 -0.1072 -0.1099
91617W        W92481   2.740  14.719   1.418  0.2017  0.0517 -0.1654
91618W        W92482  24.975   9.075  23.623  0.1792 -0.0982 -0.1801
91619W        W92483  18.039  11.423  10.337 -0.0372 -0.2132 -0.0899
91620W        W92484  20.228  29.035   9.537 -0.2457 -0.1255 -0.1593
91621W        W92485  16.914   8.172   0.151 -0.0720  0.2673 -0.0683
91622W        W92486  21.437  15.397   7.233 -0.2401 -0.1320 -0.2237
91623W        W92487  24.233  19.516  26.104 -0.3654  0.2026  0.1781
91624W        W92488   5.569   8.772  25.195 -0.0869 -0.0018  0.2703
91625W        W92489  28.248  26.860  25.984  0.1593  0.2625  0.0027
91626W        W92490   5.821   9.468  12.068  0.1645  0.0642 -0.1466
91627W        W92491  22.396  28.682  20.615  0.1261  0.0961  0.2850
91628W        W92492   3.832  20.570   0.243  0.2241 -0.1537 -0.2099
91629W        W92493  22.721   9.471  26.872  0.0311  0.1855 -0.2418
91630W        W92494  10.727   2.323   3.816 -0.0018 -0.0617  0.1043
91631W        W92495   9.555  10.043  11.268  0.1829  0.5039 -0.2260
91632W        W92496  27.673  28.315   2.157  0.1759 -0.3866 -0.0069
91633W        W92497  24.271  17.833   8.611 -0.0633 -0.0569  0.0820
91634W        W92498   4.358   3.494   4.256  0.2211  0.1163 -0.2122
91635W        W92499   9.845  14.780  25.348  0.0717 -0.2368 -0.2886
91636W        W92500   0.506  18.885   7.956  0.0002 -0.0874 -0.1805
91637W        W92501  10.961   6.502   0.383  0.0160  0.0536  0.0135
91638W        W92502   2.079   5.839  24.376  0.0832 -0.2405  0.1339
91639W        W92503   5.081  23.836  17.025  0.1348  0.0937  0.1185
91640W        W92504  27.319  10.902  14.464 -0.1368  0.1469  0.2043
91641W        W92505  10.542  22.064   9.654  0.1033  0.2611  0.1114
91642W        W92506   4.280  22.835  26.614  0.3258  0.0240 -0.0493
91643W        W92507   5.326   9.926  16.318 -0.1897  0.0975 -0.1517
91644W        W92508  26.520  20.951   5.942 -0.1056  0.1237 -0.2782
91645W        W92509   6.416  26.154   7.378 -0.1498 -0.0426 -0.1349
91646W        W92510   2.435   7.115  16.955  0.2679 -0.0790 -0.0144
91647W        W92511  25.814  11.368  23.852 -0.1439  0.3453 -0.2073
91648W        W92512  13.743  21.338  22.034  0.0948  0.0008  0.0909
91649W        W92513  23.285  15.768  18.017  0.3141 -0.0328 -0.3478
91650W        W92514  15.763  13.742   1.020  0.1816  0.2203  0.1066
91651W        W92515  28.908   3.751  24.027  0.0728  0.1638 -0.3559
91652W        W92516   3.148  26.776  24.860 -0.3540  0.2635 -0.1704
91653W        W92517   8.742  17.390  20.104 -0.1469 -0.0479 -0.0848
91654W        W92518  15.879  17.034  22.087  0.0776  0.1118 -0.0421
91655W        W92519  21.319  13.841  23.854  0.0477 -0.3831 -0.3371
91656W        W92520  27.683  12.696  27.248  0.2761  0.0829 -0.1139
91657W        W92521  22.175  13.079  20.973  0.0603 -0.2347 -0.0275
91658W        W92522  23.130   2.214  27.234 -0.2670  0.1961  0.1115
91659W        W92523  15.623  28.504  21.847 -0.4156  0.1256  0.0953
91660W        W92524  12.835  11.502  24.048 -0.3564  0.1435  0.0408
91661W        W92525  14.809   4.071   7.118  0.3753  0.2576 -0.1654
91662W        W92526  28.407   7.944  13.509  0.0612  0.2092 -0.0511
91663W        W92527  10.377  18.627  22.650 -0.2099  0.2811  0.3889
91664W        W92528  22.181  25.868  14.537 -0.0354 -0.0791  0.0650
91665W        W92529  22.319  29.117  20.152 -0.1152 -0.1267  0.2897
91666W        W92530   0.844   7.013   6.542 -0.0598 -0.1761 -0.0386
91667W        W92531  12.461  26.059   9.356 -0.1345 -0.0776 -0.0527
91668W        W92532  17.458  17.667  11.144 -0.3093 -0.0273  0.1376
91669W        W92533  13.136   0.333   4.358  0.0060  0.1425  0.2857
91670W        W92534   1.308  15.746  22.759  0.0401 -0.0588 -0.0518
91671W        W92535  15.793  20.179  18.146  0.1433 -0.4279 -0.0144
91672W        W92536  27.729  19.979  21.666  0.1073 -0.1706 -0.1267
91673W        W92537   8.272  26.890   2.569  0.0150 -0.2755  0.2027
91674W        W92538   7.907  22.450  19.442 -0.1569  0.0092 -0.0844
91675W        W92539  28.384  10.576  22.180  0.0432 -0.0028 -0.0877
91676W        W92540  27.221  18.045  21.459  0.1714  0.0288 -0.0599
91677W        W92541  24.761   2.083  13.332  0.2148 -0.3959 -0.2589
91678W        W92542  20.588  12.859  15.146 -0.0977 -0.0768  0.2096
91679W        W92543   3.229  19.440  18.214  0.1099 -0.1074 -0.0883
91680W        W92544  12.264  27.912  22.266 -0.0967 -0.0725 -0.2090
91681W        W92545  10.451   9.745   1.137 -0.1331  0.2491 -0.1384
91682W        W92546  24.866   3.321   6.608 -0.0202 -0.1084  0.1756
91683W        W92547  17.035  23.130   9.892 -0.1547  0.1944  0.0249
91684W        W92548  11.425  17.990   9.503  0.2996 -0.1142 -0.3818
91685W        W92549  19.275  22.590  25.924  0.5238  0.1934  0.0623
91686W        W92550   3.589   4.238  12.751 -0.1837  0.1824 -0.2355
91687W        W92551   5.673  20.619  24.671  0.0991 -0.2124 -0.0426
91688W        W92552   5.240  19.877  26.606 -0.1985 -0.1563 -0.0339
91689W        W92553   9.959  15.309  13.003  0.2951 -0.2541  0.4597
91690W        W92554   2.125   9.339   3.107 -0.1419  0.1735  0.0485
91691W        W92555   2.576   6.133   5.031  0.0531 -0.0906  0.1126
91692W        W92556  26.490   9.102  20.663  0.0658 -0.0188 -0.0362
91693W        W92557  17.831   8.187  19.586 -0.1422 -0.1922  0.0913
91694W        W92558   2.163  22.809  10.042 -0.1209  0.2155 -0.0707
91695W        W92559  19.790  14.062  18.266 -0.0044 -0.1389  0.0227
91696W        W92560  18.001  24.862   0.748  0.0887 -0.0230  0.0344
91697W        W92561  21.464  16.471  23.259  0.0579 -0.0228 -0.0235
91698W        W92562  10.425  12.970  26.375 -0.1381 -0.3291  0.3165
91699W        W92563  23.269  25.538   4.847 -0.1351  0.2430  0.2863
91700W        W92564   5.379   1.642  27.235 -0.1623 -0.1587 -0.1057
91701W        W92565   4.843   5.775   0.907  0.1317 -0.0382  0.0501
91702W        W92566  26.584   7.956  23.075  0.0619  0.0806 -0.0919
91703W        W92567   8.682  12.434   9.066 -0.0985  0.3276  0.0736
91704W        W92568   5.157   7.723  16.936  0.0833 -0.1104  0.1334
91705W        W92569  25.420   7.668  23.772 -0.1104 -0.3230  0.0074
91706W        W92570  25.286   6.727   2.562  0.0450 -0.1354 -0.3092
91707W        W92571  13.187   5.248  21.143  0.0411  0.2077  0.1707
91708W        W92572   0.367  14.668   2.337 -0.3012 -0.0830  0.1802
91709W        W92573  25.356  12.886  19.263 -0.3242  0.2401 -0.4351
91710W        W92574   1.965   9.969   3.130  0.1033  0.0811  0.2120
91711W        W92575   5.706   8.637  11.186  0.0017  0.3051  0.0341
91712W        W92576  16.299  10.781  14.756 -0.1026 -0.0240  0.1178
91713W        W92577  23.038   4.447  26.521  0.1721 -0.1927  0.3538
91714W        W92578   2.070   9.246  17.461  0.0357 -0.1050  0.1994
91715W        W92579  11.347  10.600  24.603 -0.2112  0.1047 -0.1242
91716W        W92580  26.596   9.421   7.998  0.0054 -0.0695  0.1925
91717W        W92581   8.921   2.459  23.221 -0.0919  0.0577  0.3290
91718W        W92582  27.331  14.309  15.152 -0.0333 -0.1528 -0.0169
91719W        W92583   1.310   0.198  10.016 -0.1278  0.0514  0.2085
91720W        W92584  21.416  28.392   0.056  0.0373  0.1492  0.0145
91721W        W92585  10.409   7.694   3.564 -0.0525  0.0935  0.3029
91722W        W92586  20.823  26.263  10.551  0.0035  0.0889 -0.1735
91723W        W92587   0.160  26.392  28.438  0.1022  0.3675  0.0344
91724W        W92588   2.999  26.260  23.485  0.0000 -0.1202  0.2430
91725W        W92589  22.476   2.718   4.343 -0.1956  0.1487  0.1376
91726W        W92590  17.992   0.788   8.788  0.1764  0.1849 -0.1160
91727W        W92591  17.923  29.094   0.029  0.2063  0.0419 -0.2245
91728W        W92592   1.815  14.416  24.327  0.4293 -0.0430 -0.0849
91729W        W92593  18.783  10.548  16.479  0.0276 -0.0294  0.3166
91730W        W92594  11.928  28.676  18.444 -0.1397 -0.2641  0.0236
91731W        W92595  11.293  26.695   4.505  0.1835 -0.0364 -0.5734
91732W        W92596  23.434  14.118   0.094 -0.0097 -0.1361 -0.1174
91733W        W92597  19.829  20.597  23.164 -0.1346 -0.0103 -0.1289
91734W        W92598  25.445   8.901  14.448 -0.0040  0.0599  0.1296
91735W        W92599  20.772  20.168  17.054 -0.2996  0.1526 -0.0624
91736W        W92600  26.719  25.692  10.071 -0.2244 -0.2407  0.4063
91737W        W92601  16.197   7.281  19.349  0.0213 -0.0249  0.0888
91738W        W92602  22.662  23.684  12.683 -0.0298  0.0577 -0.2205
91739W        W92603   8.433  29.047  26.962  0.1139  0.0574  0.4551
91740W        W92604  21.791  13.904   7.939  0.2585 -0.0628  0.0883
91741W        W92605  26.812   9.111  21.076 -0.2135  0.0186 -0.1165
91742W        W92606  21.431  27.977  27.572 -0.0226 -0.0557  0.0535
91743W        W92607  29.085  19.678  26.595 -0.1444  0.2840  0.0513
91744W        W92608  23.829  28.753  17.428  0.2025  0.1584 -0.0483
91745W        W92609  26.915   4.687   8.752  0.0901  0.1437 -0.0252
91746W        W92610   1.554  18.903  17.106  0.0773 -0.0559 -0.3789
91747W        W92611  11.829  17.360  23.757 -0.1517 -0.0010 -0.2713
91748W        W92612  15.349  13.939  25.888  0.0285  0.2422 -0.2009
91749W        W92613   5.942  15.400  19.717 -0.0717  0.2257  0.2677
91750W        W92614  28.768   1.640  23.100  0.1031 -0.1771 -0.0579
91751W        W92615  24.732  20.549   5.693  0.2005  0.2618 -0.2379
91752W        W92616  23.888  17.310  12.078  0.1262  0.0718 -0.1359
91753W        W92617  19.177  27.103  21.871  0.0921 -0.1017 -0.0470
91754W        W92618   2.530   8.917  23.787  0.0207 -0.1260 -0.1191
91755W        W92619  21.649   1.519   0.352 -0.1133 -0.2874  0.2020
91756W        W92620  24.664   6.461  10.236  0.2259 -0.2500 -0.0646
91757W        W92621   6.556  23.163  10.717  0.0414  0.3960 -0.0118
91758W        W92622  21.954  17.891  11.228  0.0503 -0.5928  0.0036
91759W        W92623   4.242   8.281  14.421  0.4329 -0.0705  0.4002
91760W        W92624   4.305   9.450  22.482  0.0397 -0.3759  0.1650
91761W        W92625  20.497  25.290  23.333 -0.0002  0.2158  0.0649
91762W        W92626   2.470  11.295  24.408  0.0689 -0.0398  0.1196
91763W        W92627   3.774  15.807   8.723  0.1210  0.0097  0.1982
91764W        W92628   9.471  20.349  12.668  0.0713 -0.0578 -0.1468
91765W        W92629  19.689   6.139  25.561 -0.2408 -0.0558  0.2006
91766W        W92630  10.284  23.696   0.292 -0.3866  0.0922 -0.3631
91767W        W92631  20.585   5.779   3.190  0.4113 -0.1642  0.0253
91768W        W92632  10.208  12.106  29.063  0.1485 -0.3263  0.2567
91769W        W92633  18.679   2.885   3.987 -0.1552  0.1848 -0.0657
91770W        W92634   0.140   3.813   0.017  0.0937  0.2233  0.3649
91771W        W92635  12.776   6.297   7.510  0.1201 -0.1503 -0.2297
91772W        W92636  27.734  13.218  18.755 -0.2008  0.0877  0.0111
91773W        W92637   8.161   6.625  17.942  0.1172  0.1845 -0.3427
91774W        W92638   2.705  25.829  14.708 -0.0999  0.0471  0.0430
91775W        W92639   9.644   2.743  13.629  0.1288 -0.4713 -0.2016
91776W        W92640   5.073  16.745  23.651 -0.0301  0.2654 -0.0144
91777W        W92641  18.141  12.855   4.495  0.1526 -0.0359  0.4069
91778W        W92642  24.932  10.036  25.659 -0.0404  0.0456  0.0707
91779W        W92643  18.801   9.130  26.221  0.0176  0.0080  0.1023
91780W        W92644  19.374   1.940  15.395 -0.0593 -0.0144  0.2006
91781W        W92645  17.076  19.960   4.889  0.0337  0.2850 -0.0983
91782W        W92646   3.306  20.962   5.628 -0.0499  0.0827 -0.0726
91783W        W92647  11.940   5.394  13.525 -0.1686  0.2443 -0.0782
91784W        W92648  13.027   7.770  17.753  0.0216 -0.2359 -0.1843
91785W        W92649  28.760  12.431  17.270 -0.2351 -0.1033  0.0586
91786W        W92650  21.327   6.783  11.383 -0.0236 -0.0231 -0.0527
91787W        W92651   5.026  19.678  26.129 -0.2764  0.0093 -0.0225
91788W        W92652   8.553  14.169  16.248  0.0085  0.2998 -0.1113
91789W        W92653  23.035  15.948   6.098  0.1627 -0.0513 -0.1571
91790W        W92654   0.858   5.682  11.944  0.2942  0.1068  0.3178
91791W        W92655  25.398  25.140  10.538 -0.0719  0.1209 -0.1773
91792W        W92656  24.727  23.582   9.199  0.0079 -0.2381 -0.1064
91793W        W92657   0.736  18.439   0.358  0.0059 -0.2935 -0.2939
91794W        W92658  14.010  11.280  17.861  0.1664  0.4369 -0.1317
91795W        W92659   1.473  17.604   5.925  0.0738  0.2600  0.0625
91796W        W92660  19.472  29.040  26.543 -0.0069 -0.0031 -0.3189
91797W        W92661  13.248  27.523  12.442  0.1202  0.0673 -0.0622
91798W        W92662  21.310  11.762  14.862  0.0628 -0.1652 -0.1273
91799W        W92663  24.783  10.559  18.450 -0.2935 -0.0791  0.0153
91800W        W92664   3.366   5.701   2.315 -0.1492 -0.1375 -0.0797
91801W        W92665   3.289   4.674   3.910  0.0439 -0.1362  0.1135
91802W        W92666  15.765  13.426  27.183  0.2826  0.4561  0.1695
91803W        W92667  28.776   1.685  10.374  0.3472 -0.1144  0.2401
91804W        W92668   9.592   8.006   9.708  0.0527 -0.1605  0.0736
91805W        W92669  20.356  14.216  24.519 -0.0162 -0.1657  0.1294
91806W        W92670  12.951  22.724   7.106  0.1430 -0.0611 -0.1405
91807W        W92671  22.880  17.479   7.465 -0.0533 -0.0582 -0.3172
91808W        W92672  19.517  26.027  13.004  0.0059  0.0753  0.1810
91809W        W92673   6.859  23.692   0.084  0.0735 -0.0256 -0.2019
91810W        W92674   8.336  10.139   5.192  0.0293  0.3044 -0.0368
91811W        W92675  15.697  21.006  20.829 -0.4239  0.2838  0.1278
91812W        W92676   6.270  13.383  16.497  0.0610  0.1480  0.0458
91813W        W92677  16.681  27.054  19.232  0.1588  0.1318 -0.0307
91814W        W92678  19.599  21.288  22.165 -0.2105 -0.0611 -0.0968
91815W        W92679   1.187  13.160  26.180 -0.2205 -0.0954 -0.2130
91816W        W92680  26.356  10.209   0.537 -0.1888 -0.0735 -0.4673
91817W        W92681  27.477  15.202  25.835 -0.1436  0.1005 -0.3352
91818W        W92682  26.852  14.441  22.028 -0.3714 -0.0616  0.2773
91819W        W92683  16.539  24.713  19.835  0.0867 -0.2882 -0.3288
91820W        W92684   0.924  10.622  20.240  0.0496 -0.2935 -0.1047
91821W        W92685  15.457  25.529  11.326  0.1267  0.2458  0.2048
91822W        W92686  22.705   9.034   9.288  0.1980  0.1772 -0.2692
91823W        W92687   1.352  14.673   2.758  0.0409  0.0675 -0.0844
91824W        W92688   4.703  14.789  13.210  0.0437  0.0417 -0.3453
91825W        W92689  23.992  11.584   9.206  0.3006  0.1891 -0.0324
91826W        W92690   4.349  17.808   4.325 -0.0694  0.0521  0.0108
91827W        W92691   3.503  19.952  20.775 -0.1411  0.0821 -0.0226
91828W        W92692  26.301  20.243  10.563 -0.0642 -0.0434  0.3643
91829W        W92693   1.903   1.882   3.114 -0.1015 -0.3642  0.0636
91830W        W92694   3.447  20.238  26.131 -0.1437  0.1717 -0.4278
91831W        W92695  10.336  28.471  11.539  0.3374  0.1536 -0.0626
91832W        W92696   9.355  24.083  26.243  0.0193 -0.0142  0.3085
91833W        W92697   3.071  15.743   0.607  0.3677  0.1275 -0.2676
91834W        W92698  17.458  26.060  20.637  0.1370 -0.1637  0.0835
91835W        W92699  10.107  19.429  25.573  0.2767 -0.2194  0.3507
91836W        W92700  29.032  15.201  20.867 -0.1062  0.0600 -0.1554
91837W        W92701   2.397  19.262  24.134 -0.1887 -0.0705  0.3058
91838W        W92702  16.880   2.020  16.046 -0.1810 -0.1791  0.2470
91839W        W92703   3.479  21.881   4.098  0.0633  0.2572  0.0973
91840W        W92704  25.109   4.404   5.342 -0.0088  0.2067  0.0358
91841W        W92705  12.704   5.348   7.870  0.1242 -0.2407  0.1455
91842W        W92706   7.896   7.659   0.428  0.2302 -0.3067 -0.0185
91843W        W92707   0.281   6.245  14.374  0.2382  0.1784 -0.3208
91844W        W92708  24.509  12.866  13.343 -0.1005  0.1554  0.0043
91845W        W92709   5.646  14.501  25.188  0.2109 -0.2003 -0.1067
91846W        W92710   1.040   9.988  23.705 -0.1392 -0.0093 -0.0328
91847W        W92711  20.903  23.799  20.756  0.2569 -0.4640 -0.0474
91848W        W92712  16.416  13.887  23.213 -0.0315  0.0267 -0.0914
91849W        W92713  26.762   2.809   9.063  0.1277  0.4605 -0.1210
91850W        W92714   1.891  23.608   0.100 -0.1148 -0.1080  0.2342
91851W        W92715  17.445  22.334  18.522  0.1869  0.0367 -0.2968
91852W        W92716   0.678  28.296  22.610  0.0193 -0.1245 -0.1483
91853W        W92717   3.465  15.337   1.313  0.0531 -0.3180 -0.1644
91854W        W92718  22.200  22.380  18.123 -0.1546 -0.2572  0.1948
91855W        W92719  23.667  24.908  21.673  0.0021  0.2016  0.1738
91856W        W92720  20.653  28.336  26.626  0.0380 -0.0402 -0.3105
91857W        W92721   1.449   1.448  10.480 -0.2547  0.0067  0.0936
91858W        W92722  23.653  10.729   0.593  0.1108  0.1064 -0.0101
91859W        W92723  23.691  19.334  23.155 -0.0801 -0.1143  0.1726
91860W        W92724  26.940   4.922   8.342 -0.1904 -0.0039  0.1732
91861W        W92725  25.435  16.253  23.682 -0.0653 -0.1541  0.3194
91862W        W92726   1.287  28.305  20.445 -0.1602 -0.3201  0.1681
91863W        W92727   2.195   0.795  15.327 -0.0175 -0.2236  0.0956
91864W        W92728   6.902   9.070  11.784  0.0754  0.2786  0.2176
91865W        W92729   6.429  20.503  12.551  0.0895 -0.1466 -0.0957
91866W        W92730  22.983  15.428  23.480 -0.2544 -0.2677  0.3720
91867W        W92731   3.127  17.432  12.349  0.1748 -0.1958  0.0007
91868W        W92732   4.277  10.726   4.552 -0.0601  0.0018 -0.4779
91869W        W92733  17.960   6.632  17.844 -0.0891  0.1350  0.0532
91870W        W92734   2.158   0.766  18.262  0.5048 -0.1724  0.1392
91871W        W92735   8.609  25.679  21.634 -0.1612  0.2018 -0.0227
91872W        W92736  17.503  28.375   7.241 -0.1716  0.1863  0.0622
91873W        W92737  19.010   9.990   2.529  0.2335  0.1872 -0.1830
91874W        W92738   3.739  16.754   5.790  0.1758  0.1955  0.1475
91875W        W92739   1.648  23.500  28.663 -0.2564 -0.1195  0.2557
91876W        W92740  17.270   9.187  11.737 -0.1138  0.2482 -0.1871
91877W        W92741  19.887  10.616  25.379  0.2690 -0.0889  0.1945
91878W        W92742   5.854  14.168  12.522  0.1344  0.0709 -0.0661
91879W        W92743   8.155  27.297   1.795 -0.1394  0.0720 -0.0595
91880W        W92744  17.859  25.491  22.477  0.0466 -0.1633 -0.1055
91881W        W92745   3.310   7.886   9.121  0.0427  0.0540  0.1490
91882W        W92746   5.923   1.408  24.296  0.0661 -0.0764 -0.1180
91883W        W92747  28.898  15.393   1.402 -0.1403  0.1667 -0.0619
91884W        W92748  11.144  12.763  28.603  0.1306 -0.1433  0.3206
91885W        W92749  16.471   8.525  21.419  0.4490  0.0453  0.2411
91886W        W92750   3.318  25.262   0.660  0.1167 -0.0164  0.3510
91887W        W92751  16.082  24.108   8.350 -0.0922  0.2091 -0.2256
91888W        W92752  18.048   5.609  14.237  0.1571 -0.2627  0.2306
91889W        W92753  26.358  20.505   7.001 -0.0539  0.0106 -0.1843
91890W        W92754  10.611  21.838  17.620  0.0442 -0.3323 -0.2036
91891W        W92755  27.233  22.824   3.698 -0.0361  0.1326  0.0902
91892W        W92756  19.255  16.063   9.864 -0.0257 -0.1945  0.1879
91893W        W92757  26.226  15.909   2.568  0.0249 -0.0338 -0.1178
91894W        W92758  21.426  23.498  27.962 -0.1082  0.1869  0.0896
91895W        W92759  27.760  22.937  22.283 -0.0514  0.3782  0.2075
91896W        W92760  24.398  19.052  10.552  0.2958 -0.1825  0.0111
91897W        W92761   2.072  14.130   4.351 -0.0756  0.2410 -0.0837
91898W        W92762   7.899   5.414  22.631 -0.0161  0.0700  0.1421
91899W        W92763  14.580   4.425  18.554  0.2616  0.0667 -0.1079
91900W        W92764  26.818   6.206  18.074  0.3235  0.1158 -0.1258
91901W        W92765  23.391  16.110   8.137  0.3788 -0.1459  0.0570
91902W        W92766  22.879  26.627  23.042  0.1333  0.1485 -0.2682
91903W        W92767  22.392  26.257  13.066 -0.2166 -0.0085 -0.0203
91904W        W92768  22.375   5.395  16.320  0.1808 -0.1186  0.2124
91905W        W92769  23.386   7.773   2.305 -0.0144  0.1978  0.0898
91906W        W92770   0.835  25.003   4.754  0.1358 -0.0624  0.1876
91907W        W92771  22.758   2.337   7.230 -0.0971 -0.2309  0.1793
91908W        W92772   8.829  16.312  25.689 -0.1631  0.3254 -0.2564
91909W        W92773   3.780  15.219  16.751  0.1071 -0.0796  0.2438
91910W        W92774   4.910   4.269   4.192  0.1376  0.2063 -0.0794
91911W        W92775   3.646  17.808  24.395 -0.0242  0.0426 -0.2392
91912W        W92776   2.615  13.133   2.534 -0.0973  0.1041 -0.3449
91913W        W92777  13.021  19.774  22.319  0.0723  0.0820  0.2493
91914W        W92778  29.133  15.290   1.914  0.2341 -0.3012 -0.1845
91915W        W92779   3.731  11.526  19.375 -0.0088 -0.1211 -0.2241
91916W        W92780  13.408   2.636  16.145 -0.1944  0.1525  0.3739
91917W        W92781  19.702  11.718  18.158  0.2026  0.2445  0.0288
91918W        W92782  19.631  14.702  13.914 -0.1857 -0.1910  0.3517
91919W        W92783  26.427  21.622  17.864  0.0896  0.0706 -0.0096
91920W        W92784  23.662  14.373   4.887  0.0303 -0.1830 -0.1202
91921W        W92785  22.548   0.549   1.197  0.0506 -0.2411 -0.1025
91922W        W92786   4.962   8.195  20.620 -0.0857  0.1049 -0.1236
91923W        W92787  16.043   8.323   1.960  0.1478  0.4425 -0.1149
91924W        W92788   0.142  12.599  24.006  0.0721  0.0857  0.2837
91925W        W92789  10.268  13.216  12.371 -0.1916  0.1579  0.0715
91926W        W92790  27.835  10.900  27.628  0.1326  0.0686  0.0513
91927W        W92791  26.100   0.287   7.158 -0.2994 -0.3619 -0.3430
91928W        W92792  26.715  15.385  10.062 -0.1403  0.1807  0.3816
91929W        W92793   7.639  24.604  23.531  0.2275 -0.4276  0.0203
91930W        W92794  26.514  24.045  17.993  0.4902  0.2120 -0.2393
91931W        W92795  27.939  21.107  18.877 -0.0349 -0.3204  0.2011
91932W        W92796  17.547  20.021  16.890 -0.1582  0.0833  0.1811
91933W        W92797  22.924  27.783  16.807  0.0067 -0.2274 -0.2443
91934W        W92798   2.745  16.259  16.170  0.2314 -0.2448 -0.1092
91935W        W92799   5.949   8.401  15.042 -0.3124 -0.0854  0.1940
91936W        W92800  14.370  23.776  25.652  0.3931  0.1090  0.1283
91937W        W92801  26.294   5.637  25.135 -0.2460 -0.1222 -0.2710
91938W        W92802  19.462  16.155   0.628 -0.2888  0.2976 -0.0045
91939W        W92803  26.825  18.264   4.058  0.1453  0.2420  0.0567
91940W        W92804  20.260  28.578   7.524 -0.1285  0.0771 -0.1658
91941W        W92805   1.800   3.952   9.980  0.1480  0.0781 -0.0828
91942W        W92806   4.390  19.706  22.544  0.3641 -0.0716  0.1147
91943W        W92807  20.385   7.412   2.483  0.1406  0.0057  0.0245
91944W        W92808  17.394  14.382   6.803  0.2065 -0.2257  0.0025
91945W        W92809  21.467  20.933  19.684  0.2619  0.2575  0.0347
91946W        W92810  26.078  26.748   4.088  0.1106 -0.2568  0.0271
91947W        W92811   6.527   9.529  23.463  0.0820  0.1558 -0.2628
91948W        W92812  26.983  16.991  11.985 -0.2884 -0.0584  0.2341
91949W        W92813  19.509   5.615   5.322 -0.0266 -0.2129  0.0707
91950W        W92814   7.332   1.009  22.131 -0.0385 -0.1410  0.1200
91951W        W92815  27.459   8.281  26.902  0.1072 -0.2790  0.1809
91952W        W92816  16.747   2.590  22.633 -0.0728 -0.1217  0.2351
91953W        W92817  22.965  11.308  13.204 -0.1024 -0.0246 -0.1824
91954W        W92818   9.039  10.018  27.327  0.2719 -0.1548 -0.0207
91955W        W92819  24.523   3.479   0.805 -0.0234  0.0585  0.2888
91956W        W92820   5.410  15.909   7.117 -0.1167  0.4428 -0.0464
91957W        W92821  23.551  26.971  19.925  0.1457 -0.2553  0.1574
91958W        W92822  25.153   8.974   7.791 -0.0267 -0.1366 -0.1836
91959W        W92823   7.574   1.928  23.548  0.2869  0.0423 -0.0196
91960W        W92824   3.448  16.003   9.978 -0.1693 -0.0297 -0.0617
91961W        W92825   2.478  14.919   3.169  0.0717 -0.2667  0.0269
91962W        W92826  21.242  28.129  25.948 -0.1233 -0.2206  0.1561
91963W        W92827   2.595  22.790  10.769 -0.0382 -0.0236  0.0233
91964W        W92828  21.004  28.637  14.798  0.1379  0.1409 -0.3169
91965W        W92829  15.830   7.710  16.461  0.1325 -0.2036 -0.2333
91966W        W92830  23.863  20.408   6.343  0.3265  0.1876  0.0641
91967W        W92831  21.783   2.994  20.278 -0.3521 -0.1133  0.0870
91968W        W92832   5.997  13.977  22.992  0.0089  0.0420  0.1536
91969W        W92833  27.744  11.710   9.357 -0.3918  0.1330  0.0425
91970W        W92834   7.581  26.253  26.801 -0.1598 -0.0575 -0.1421
91971W        W92835  27.004   5.725   1.406 -0.0824 -0.0177 -0.1120
91972W        W92836  28.862   8.784   0.619 -0.0732 -0.0154  0.0144
91973W        W92837  22.069  23.561   0.460 -0.0036  0.2222  0.3330
91974W        W92838  15.864   5.466  24.709 -0.1578  0.2057 -0.1696
91975W        W92839  12.996   9.390   9.744  0.1786 -0.2936  0.1619
91976W        W92840   5.604   7.817   6.857 -0.2950  0.0425  0.1289
91977W        W92841   4.300  19.918   2.941  0.0428  0.0152  0.0696
91978W        W92842  22.280  24.756   1.938  0.2580 -0.0136 -0.2573
91979W        W92843   3.923  24.306  22.643 -0.1989  0.1468  0.0640
91980W        W92844   3.575  12.715   2.768 -0.0360 -0.2265 -0.1376
91981W        W92845  21.776  20.928  27.753  0.2834  0.4384  0.2001
91982W        W92846  24.462   0.645   2.792 -0.1239 -0.2428 -0.0958
91983W        W92847  24.225  26.288  22.380 -0.2585 -0.1368  0.0117
91984W        W92848  28.884   3.275  14.329  0.1020 -0.2498 -0.0304
91985W        W92849  10.590  23.821   8.039  0.2061  0.1471 -0.1722
91986W        W92850  29.140   4.108   2.366  0.1980 -0.0048 -0.0397
91987W        W92851  23.759   9.877  23.355 -0.0328  0.3286  0.3370
91988W        W92852  15.224  12.201   1.473 -0.0464  0.1308 -0.3766
91989W        W92853   3.480  17.160  26.380 -0.3315  0.1000 -0.1732
91990W        W92854  25.673   0.314  13.426 -0.0749 -0.1634  0.0737
91991W        W92855   7.793  23.789  11.774  0.1173 -0.1935 -0.3395
91992W        W92856  14.078  18.993  20.251 -0.0992 -0.4125  0.1143
91993W        W92857  24.125   6.695   9.415  0.2794 -0.0109  0.0654
91994W        W92858  28.573  18.173  10.216  0.1704 -0.2973 -0.1073
91995W        W92859  10.865   4.349   9.423 -0.1690 -0.0403  0.3340
91996W        W92860   2.219  14.026   1.718 -0.1378  0.1343 -0.1841
91997W        W92861  22.259   0.358  21.257  0.1394  0.0243  0.1786
91998W        W92862  14.223  20.828  25.675  0.0113  0.0017  0.0036
91999W        W92863  18.309  12.383  21.760  0.2685  0.1216  0.1613
92000W        W92864  22.862  19.507  21.751 -0.1248  0.0938 -0.2157
92001W        W92865  26.386   5.098  19.921  0.1422 -0.1874  0.1262
92002W        W92866  28.052   4.258  21.509  0.3897  0.2006  0.1869
92003W        W92867  17.872  16.594  12.462  0.0367  0.1324 -0.0246
92004W        W92868  20.682  13.309   4.510  0.1002 -0.0095  0.2119
92005W        W92869   7.624  28.655  23.574  0.3046  0.2413  0.0320
92006W        W92870  26.045  10.006   7.182 -0.0822 -0.1974 -0.0591
92007W        W92871  28.945   4.034  20.065  0.1948 -0.0471 -0.1685
92008W        W92872   4.126   3.026  11.212  0.2091 -0.2018  0.0466
92009W        W92873  22.307  21.216   7.493 -0.0229  0.0925  0.1275
92010W        W92874   5.668  24.493  20.226 -0.1704 -0.1929  0.1419
92011W        W92875  25.437  17.512   8.259  0.2420 -0.2918  0.1042
92012W        W92876  23.381  13.432  14.065 -0.0756  0.1281  0.2173
92013W        W92877  22.598  18.448  12.585  0.1712  0.0002  0.1057
92014W        W92878  27.081  15.586  15.523  0.1929 -0.2596  0.1781
92015W        W92879  24.282   6.620  23.029 -0.2604  0.2201  0.0200
92016W        W92880   8.978  17.689   0.921  0.0662 -0.2296  0.1594
92017W        W92881  16.712  18.631   8.426  0.1818 -0.0339  0.0208
92018W        W92882  23.720  19.218  28.149  0.0206 -0.0354 -0.1078
92019W        W92883  12.742   5.001  27.232 -0.1512 -0.2232  0.3229
92020W        W92884   2.896  28.294   0.647  0.1360  0.1390 -0.3783
92021W        W92885  15.634  13.721  23.765  0.1278  0.2516 -0.0752
92022W        W92886  25.195   3.474  21.398 -0.1785  0.0408 -0.0798
92023W        W92887  18.607   0.489   5.814  0.2948 -0.2171  0.2919
92024W        W92888   5.601   0.060   2.867  0.1383  0.0620  0.3345
92025W        W92889  26.003   5.509  22.197  0.0855  0.0418  0.0657
92026W        W92890   7.731   3.148   6.030 -0.1377  0.1725  0.1058
92027W        W92891   5.134  16.542  28.576  0.0251 -0.0390 -0.0603
92028W        W92892   7.141  13.746  11.711 -0.0238 -0.1795  0.2430
92029W        W92893  26.121  16.350   2.235  0.1914  0.0515 -0.2682
92030W        W92894  28.711  25.944  26.068 -0.0521  0.1383  0.0548
92031W        W92895   3.447  26.040   8.127  0.0605 -0.4076  0.0469
92032W        W92896  27.304  25.390  24.801  0.0740  0.0329 -0.2920
92033W        W92897   0.537   6.233  13.973 -0.0647 -0.0984 -0.0498
92034W        W92898   8.584  28.165   7.299  0.1998  0.2775  0.1515
92035W        W92899  19.654  15.935  15.062 -0.2493  0.2261 -0.1152
92036W        W92900   2.591  11.597   7.450 -0.2777 -0.1414  0.1611
92037W        W92901   6.196  25.775   2.457  0.1259  0.3384 -0.1278
92038W        W92902  26.726  11.828   9.131  0.2479  0.1539 -0.0876
92039W        W92903  24.231  28.315  10.971  0.2462 -0.0788  0.0001
92040W        W92904  16.966   0.225   2.001 -0.0524 -0.0527 -0.2761
92041W        W92905   5.998  27.717   2.247  0.1349  0.0610 -0.3493
92042W        W92906   9.487   5.633  26.622  0.2302  0.1289 -0.0991
92043W        W92907   0.246  13.921  24.287  0.0068 -0.1765  0.1267
92044W        W92908  19.485  12.992  11.343  0.2801 -0.1960  0.0172
92045W        W92909  19.799   6.065  26.286  0.1776  0.4253 -0.1661
92046W        W92910  18.864  15.407   5.757 -0.0948  0.0607  0.1348
92047W        W92911  12.224  16.892   3.740 -0.2585  0.0404 -0.0472
92048W        W92912  27.421  28.323  28.390  0.1095 -0.0784 -0.1163
92049W        W92913   8.590  16.688  10.340  0.2014  0.0454 -0.0209
92050W        W92914  21.882  17.698  17.967  0.0444 -0.1082  0.1220
92051W        W92915  11.940   8.738   3.176 -0.4455 -0.0220  0.2551
92052W        W92916  13.046   9.680   3.591 -0.1293  0.1496 -0.1606
92053W        W92917  26.963  23.724  20.241  0.0649 -0.4132 -0.1823
92054W        W92918  15.932   0.031   6.570  0.1688  0.0262 -0.0486
92055W        W92919   9.789  26.068   1.652 -0.4456  0.4256 -0.2387
92056W        W92920  12.575  14.503   1.451 -0.0116 -0.0619  0.0900
92057W        W92921  14.021  13.963  10.001 -0.1387  0.0556  0.1829
92058W        W92922  23.989   7.439  28.706 -0.1369 -0.0099  0.0940
92059W        W92923   9.391  11.380   9.147  0.0053  0.0674 -0.1028
92060W        W92924   6.496   5.808   0.712  0.0203  0.1381 -0.1112
92061W        W92925  27.704   7.353  27.867  0.0424  0.0366 -0.1256
92062W        W92926  14.705  29.122  25.379 -0.0847  0.0017 -0.0959
92063W        W92927  21.012  25.763  13.343 -0.3594  0.1459  0.1415
92064W        W92928   1.278  15.019  23.516 -0.0829 -0.1114 -0.1496
92065W        W92929   3.373  27.926   8.717  0.1199 -0.1124 -0.1276
92066W        W92930   9.795   7.898   5.003 -0.2161 -0.1053 -0.2897
92067W        W92931  14.956  12.546  13.504  0.1230  0.2406 -0.3198
92068W        W92932  20.458  14.591   2.045 -0.2385 -0.1583  0.1420
92069W        W92933   3.739  12.276  28.748  0.0836 -0.0024 -0.0433
92070W        W92934  27.075  25.897  26.969  0.2024  0.2899 -0.3179
92071W        W92935   2.212  11.912  15.865 -0.1361 -0.0700 -0.0586
92072W        W92936  23.839  26.435  11.847  0.2791  0.2430  0.2047
92073W        W92937   3.884  22.959  23.583 -0.1680 -0.3677  0.1451
92074W        W92938  18.099  28.408   6.360 -0.0276 -0.0543 -0.0673
92075W        W92939  21.980  18.603  24.312 -0.0491  0.0808 -0.0510
92076W        W92940  15.602   8.897   3.392  0.3308 -0.0328 -0.0308
92077W        W92941  21.027   2.391   3.367  0.1630  0.1044 -0.1135
92078W        W92942  28.094  28.197   2.529 -0.3726 -0.0830  0.2199
92079W        W92943  26.421   8.694  23.226  0.1152 -0.2752 -0.1344
92080W        W92944  19.795  14.206   5.961  0.2429 -0.1942 -0.0318
92081W        W92945   3.838  14.713  13.814 -0.0240 -0.1477  0.2998
92082W        W92946  19.087  25.745  26.483 -0.1773 -0.1556  0.0686
92083W        W92947   9.540   3.002  25.123  0.2893 -0.1867 -0.0645
92084W        W92948  16.254   2.308  14.199 -0.2128 -0.1428 -0.3440
92085W        W92949   2.084  18.841  18.456  0.0671 -0.0883  0.1125
92086W        W92950  23.170   6.854  15.733 -0.1053  0.1820  0.0830
92087W        W92951  22.558   2.093  11.430  0.1486  0.0219  0.1056
92088W        W92952  12.559  19.005  17.955  0.0349 -0.0598 -0.0138
92089W        W92953  16.634  10.970  15.148 -0.3602  0.3354  0.2141
92090W        W92954  25.200  18.359   8.057  0.2993  0.1299 -0.1070
92091W        W92955  21.732  13.319   2.563  0.0591  0.1120 -0.1940
92092W        W92956  26.246  11.112   7.885  0.0457  0.1238  0.1459
92093W        W92957  17.160  18.781  23.258 -0.2332 -0.1470  0.1619
92094W        W92958   4.465   8.636   1.457  0.0368  0.0618 -0.1625
92095W        W92959  28.929  18.800   8.649 -0.0388  0.1355 -0.1709
92096W        W92960  14.310   0.835  25.446  0.1007 -0.0901  0.0902
92097W        W92961  20.366  20.517   1.580  0.0488 -0.2082  0.0501
92098W        W92962  21.710  10.397  18.292 -0.1093  0.0072  0.0348
92099W        W92963  19.824  12.732  13.583 -0.0055 -0.0222  0.0295
92100W        W92964  21.104  20.453  13.757  0.1126  0.2575  0.3181
92101W        W92965  12.820   6.382   2.386 -0.1021 -0.0198 -0.0168
92102W        W92966  28.440  26.219  22.188  0.1352 -0.0912  0.2746
92103W        W92967  15.955  10.178  18.874  0.0648 -0.3572 -0.0598
92104W        W92968  21.564  11.063  11.606 -0.2433 -0.0211  0.2201
92105W        W92969  21.545  10.293   8.470  0.3370 -0.3737  0.3100
92106W        W92970  25.698   4.313  13.685  0.1513 -0.1693  0.1301
92107W        W92971  12.869   7.725  24.697 -0.1100 -0.2946 -0.3109
92108W        W92972   1.326  17.987  14.371 -0.1773  0.2486 -0.0257
92109W        W92973   1.508  28.718   8.335 -0.2036  0.0584 -0.0530
92110W        W92974   0.454   9.039   3.533 -0.1174  0.0253  0.3167
92111W        W92975  16.792  21.921   0.146  0.1304  0.2890  0.1884
92112W        W92976  16.888  13.744   7.844 -0.2652 -0.3273 -0.5686
92113W        W92977  19.682   7.547   9.781  0.0572 -0.0689 -0.0658
92114W        W92978  17.965  19.699   4.449  0.2381  0.1207  0.0705
92115W        W92979  22.051   7.869   7.226  0.0313  0.2454 -0.3685
92116W        W92980  24.402  21.461  11.303  0.3898  0.0937 -0.0803
92117W        W92981  20.510   4.704   5.809  0.1446  0.2434 -0.1607
92118W        W92982  27.077  25.702  28.348 -0.2024  0.1685 -0.2540
92119W        W92983   0.799  10.480  22.314 -0.1247  0.2045 -0.0373
92120W        W92984  14.529  21.886  10.889  0.0042 -0.2949 -0.1196
92121W        W92985  15.148   2.624  13.239  0.0571 -0.2344  0.0504
92122W        W92986   0.083   4.657  28.353 -0.1383  0.0711 -0.5131
92123W        W92987   5.682  14.512   2.528  0.0742  0.1621 -0.0505
92124W        W92988   2.209  11.892  25.329  0.1947  0.1189  0.3331
92125W        W92989  19.179  15.077   1.092  0.0443  0.0375 -0.2626
92126W        W92990  15.361  19.569  22.658 -0.0207 -0.2245 -0.1157
92127W        W92991  25.752  17.030   3.474 -0.1500  0.1365 -0.3055
92128W        W92992  12.431  12.349   1.251  0.2667  0.0715 -0.0993
92129W        W92993  12.295  21.186   1.041 -0.2006 -0.2109 -0.0425
92130W        W92994  25.805  22.546  27.722  0.1317 -0.0246  0.0401
92131W        W92995  23.422  20.698  23.649  0.0398 -0.1729  0.0786
92132W        W92996  26.633  14.720   0.281  0.0968 -0.1091  0.3226
92133W        W92997  18.535  10.211  12.321  0.2648  0.1463 -0.1935
92134W        W92998   1.414  16.214  18.724  0.0254 -0.0914 -0.0981
92135W        W92999  27.267  27.544   4.756 -0.1236  0.1197  0.0302
92136W        W93000  26.887  26.277   2.619 -0.2325  0.0071 -0.1228
92137W        W93001  19.184  27.230  26.369  0.2929 -0.2064  0.1705
92138W        W93002  23.733  19.771   3.435  0.2137  0.2425  0.0201
92139W        W93003  21.195   8.184   7.181 -0.1605 -0.0594 -0.0090
92140W        W93004   9.483  14.893  17.054 -0.0389 -0.2143  0.1160
92141W        W93005   4.451  23.372  28.381  0.1170  0.1115 -0.0753
92142W        W93006   0.504  18.442  17.830 -0.1751  0.0154 -0.1527
92143W        W93007   4.526  28.888  15.818 -0.1342  0.3547  0.1238
92144W        W93008  11.632   0.353  10.214 -0.1562 -0.3620 -0.1788
92145W        W93009  26.971  27.509  18.875  0.0926  0.2051  0.1105
92146W        W93010   4.910   8.654   1.229 -0.0469 -0.0966  0.2342
92147W        W93011  28.990  19.360  22.043  0.2177  0.1247 -0.2372
92148W        W93012  27.580  18.483   3.605 -0.1953  0.1893  0.4054
92149W        W93013  24.996  20.945  19.924  0.1830  0.0489  0.3795
92150W        W93014   1.272  16.945  24.350 -0.1326  0.0108  0.0508
92151W        W93015  25.761   8.194   4.531  0.1376  0.0263  0.2869
92152W        W93016  16.688  27.143  27.155  0.0224 -0.0994 -0.0554
92153W        W93017   1.898  10.023   0.375  0.1277 -0.0948  0.4220
92154W        W93018  23.622  25.269   3.317 -0.2650 -0.3495 -0.0982
92155W        W93019  10.566  28.493  10.495 -0.2017 -0.2716  0.2507
92156W        W93020   9.723  17.863  10.891  0.0790 -0.0932 -0.0529
92157W        W93021  12.256   7.533   4.379 -0.3126 -0.1742  0.1457
92158W        W93022  23.256   5.175   6.252  0.1604  0.0562 -0.1425
92159W        W93023  27.585  11.023   8.630 -0.3059 -0.0489 -0.0319
92160W        W93024  13.393  23.233   4.492 -0.2138  0.1483  0.0065
92161W        W93025  26.077  14.441   6.385  0.2483 -0.0924 -0.0197
92162W        W93026  28.242  10.026  18.933 -0.2135  0.1766  0.2477
92163W        W93027  19.863  15.127  25.809  0.0108  0.1682  0.1911
92164W        W93028  27.912  24.081  11.153  0.1756 -0.1009 -0.0362
92165W        W93029  18.367  19.414   7.611  0.0403 -0.1883 -0.0244
92166W        W93030   1.314  21.530  28.354 -0.1552 -0.0942  0.0092
92167W        W93031   0.324  19.916  15.336  0.2686 -0.1278 -0.0079
92168W        W93032  26.590  20.375  22.548  0.0904 -0.0993  0.0210
92169W        W93033  27.773  21.099  28.104  0.0981 -0.1875 -0.1816
92170W        W93034   9.997   0.462   2.360 -0.1460  0.0074  0.2391
92171W        W93035  20.026  21.113   7.854  0.0049 -0.0474 -0.2988
92172W        W93036  28.171   1.382  28.509 -0.1806 -0.0364 -0.0741
92173W        W93037  14.689   9.517   2.748 -0.0821  0.0314 -0.0230
92174W        W93038  13.826  14.553   9.994 -0.0761 -0.1060 -0.0233
92175W        W93039   2.148  16.250  27.992 -0.0180  0.2464 -0.0281
92176W        W93040  26.661  24.397  10.546 -0.2136 -0.0683  0.0292
92177W        W93041  24.924  23.743   6.697 -0.0327 -0.0342  0.2421
92178W        W93042   8.149  11.792   2.660 -0.2372  0.0354  0.0499
92179W        W93043  14.980   7.312   6.112  0.2007 -0.0845 -0.0638
92180W        W93044  15.649  17.934  25.785 -0.0115  0.0169 -0.1107
92181W        W93045   3.422  12.207  29.129  0.0096 -0.0215 -0.0288
92182W        W93046  28.532  11.688  25.710 -0.0037 -0.1933  0.1672
92183W        W93047  13.321  20.951   3.417  0.4029  0.1085 -0.0179
92184W        W93048  25.508  24.014   5.353  0.1127  0.1474  0.0894
92185W        W93049  11.882  28.425   2.142 -0.2292  0.2377  0.0296
92186W        W93050  28.915  25.911  26.667 -0.2121  0.1091 -0.0743
92187W        W93051  13.367  26.459  10.898 -0.1353  0.2184  0.2928
92188W        W93052  18.992  15.510  22.459 -0.1925  0.0837  0.1421
92189W        W93053  26.649  22.039   1.744  0.2540  0.0909 -0.1128
92190W        W93054  28.284  14.485  24.832 -0.2257 -0.0950  0.3674
92191W        W93055   9.731  14.165  27.971 -0.0717  0.2818  0.0124
92192W        W93056  10.884  13.317  15.366 -0.2334 -0.1860 -0.1103
92193W        W93057   2.119  14.676   8.554  0.2511 -0.2536  0.0071
92194W        W93058  24.637  16.485   4.018 -0.1906  0.2816 -0.0828
92195W        W93059  16.632  23.579   5.531  0.0179  0.1357 -0.1766
92196W        W93060   0.940   6.507   7.529  0.0738 -0.0635  0.1739
92197W        W93061  22.952  27.110   1.734 -0.0482 -0.2881 -0.4637
92198W        W93062   0.570   8.410   6.574  0.2566  0.0116  0.1489
92199W        W93063  22.179   5.314  24.176  0.2870 -0.1492  0.0643
92200W        W93064  28.585  17.021   6.638  0.0220 -0.0909  0.1939
92201W        W93065  18.220  28.488  12.144  0.1968 -0.0903 -0.1715
92202W        W93066  15.503  16.832  28.007 -0.1389  0.0808  0.1026
92203W        W93067   1.512   9.234  19.780  0.0683  0.1364 -0.1474
92204W        W93068  17.621   8.364  27.662 -0.4112 -0.2940  0.2436
92205W        W93069  26.646   5.719  26.644 -0.2387  0.0767  0.2266
92206W        W93070  27.540  28.236  26.691 -0.0525  0.2935  0.0058
92207W        W93071  21.552   8.731   3.758  0.1118  0.1412  0.2033
92208W        W93072  25.069   4.605  23.545 -0.1058  0.0743  0.0380
92209W        W93073  12.680  16.354  19.860 -0.0773  0.1692 -0.0171
92210W        W93074  17.326  15.719   2.319  0.0454 -0.1797 -0.0063
92211W        W93075   1.972   7.650   0.120  0.0002 -0.1517  0.0677
92212W        W93076   1.200   7.106   9.859  0.0292 -0.2877 -0.2594
92213W        W93077  16.598  17.711  10.743 -0.1383  0.2064  0.2560
92214W        W93078   5.404   6.683   6.138  0.2844 -0.1274 -0.3197
92215W        W93079   3.858   9.588  18.403  0.1443 -0.1749 -0.1241
92216W        W93080   3.430  28.531  10.444 -0.0065 -0.1658  0.1194
92217W        W93081  18.109   6.732  12.581  0.0173  0.0488 -0.0152
92218W        W93082  27.121  17.747  16.736 -0.0469 -0.1807  0.0070
92219W        W93083  18.727   3.294   2.628  0.1698 -0.0569  0.1364
92220W        W93084  14.970   9.040  22.729  0.3238 -0.0357 -0.1738
92221W        W93085  10.439  14.926   6.952 -0.0431 -0.0526  0.1286
92222W        W93086  18.463  10.317  28.475 -0.1548 -0.0718  0.1673
92223W        W93087   1.198  10.658  22.877 -0.0695  0.2650 -0.0668
92224W        W93088  19.644  22.486  18.102 -0.0645  0.1529 -0.0083
92225W        W93089   9.390   8.887  17.508 -0.0111  0.0472 -0.0652
92226W        W93090  17.472   5.793  26.039 -0.0521  0.0585 -0.0476
92227W        W93091   6.543  12.416  25.217 -0.1138 -0.0491 -0.4655
92228W        W93092  26.994  10.325   9.018  0.1489  0.4226  0.0580
92229W        W93093   5.819  17.089   4.796  0.1224  0.0479  0.1953
92230W        W93094  12.187  16.667   2.827 -0.2030  0.1615 -0.3747
92231W        W93095  27.218   8.856   2.450  0.1378  0.1634 -0.2627
92232W        W93096   0.307  23.492  14.214 -0.1690 -0.0741  0.0627
92233W        W93097   6.135  12.111  22.472 -0.3999  0.0480 -0.0901
92234W        W93098  22.851  23.782  25.547  0.0958 -0.4454  0.0964
92235W        W93099  15.863  19.410  26.313 -0.1744  0.1129  0.4282
92236W        W93100   2.580  21.087  13.905 -0.1478  0.0738 -0.2552
92237W        W93101  14.871  22.091  28.669 -0.2714  0.0761  0.0101
92238W        W93102  26.547  17.364  26.823  0.0944  0.0444 -0.2635
92239W        W93103   8.846  10.653  19.939 -0.1538  0.1532  0.1626
92240W        W93104  19.391  15.528   5.451  0.3641 -0.1763 -0.1165
92241W        W93105  22.731   6.035   8.083 -0.0766  0.2336 -0.1394
92242W        W93106  11.943  16.555  17.402 -0.0221  0.3870  0.0590
92243W        W93107  17.685  21.291  26.510 -0.0230 -0.0995  0.0500
92244W        W93108  27.224  23.892   1.686  0.2721  0.0553  0.0994
92245W        W93109   2.581   3.060  16.955 -0.2321 -0.0079 -0.2488
92246W        W93110  11.096  18.374  20.211  0.2225  0.0034  0.0833
92247W        W93111   8.909  12.024  11.237  0.1376  0.1415 -0.1584
92248W        W93112  10.694  13.276   4.729  0.2101  0.1602  0.0939
92249W        W93113  27.148   0.528  28.570  0.2334 -0.0578 -0.1621
92250W        W93114   1.526  15.507  26.137  0.0163  0.3083  0.1910
92251W        W93115  25.163  15.659  18.041 -0.0131  0.2196  0.0079
92252W        W93116  29.001  24.950   9.442  0.3175 -0.1945 -0.0864
92253W        W93117   8.824   4.524  29.118 -0.1776 -0.3812 -0.4975
92254W        W93118   1.845  12.335  29.112 -0.1817 -0.1611  0.1131
92255W        W93119   1.775  16.892  28.539 -0.0582 -0.1694  0.3750
92256W        W93120   2.807  26.400   1.227  0.0736 -0.1212  0.1198
92257W        W93121  27.663  21.328  20.378  0.0773  0.0576  0.0935
92258W        W93122   0.124   1.569  24.417  0.0031  0.1157  0.2549
92259W        W93123  29.112  24.531   8.060 -0.1425  0.0338  0.0670
92260W        W93124  14.095  28.467  21.283  0.2292  0.1079  0.1381
92261W        W93125   0.764   9.267   8.834 -0.0372 -0.0118 -0.1388
92262W        W93126  25.671  14.717  25.782  0.2408  0.0403 -0.0193
92263W        W93127   0.791  12.957  26.716 -0.1294 -0.0200  0.3772
92264W        W93128   2.518  21.349  11.109  0.2354  0.5313  0.2002
92265W        W93129  19.042  14.607  23.210  0.0222 -0.1593 -0.0668
92266W        W93130  27.731  27.395   1.857  0.0943  0.2211 -0.1639
92267W        W93131  12.670   9.217   0.942  0.1877  0.1029 -0.1277
92268W        W93132   0.622  10.769   6.899  0.1463 -0.1313  0.1781
92269W        W93133  11.881  23.221   5.893 -0.1661 -0.4634  0.2965
92270W        W93134  25.958  16.955   7.332 -0.2231 -0.0832 -0.2624
92271W        W93135   0.898  16.575  12.729 -0.1913  0.2014 -0.0971
92272W        W93136  12.716  11.048  19.564 -0.2396  0.0584  0.0290
92273W        W93137  22.066   0.515  12.161  0.1256 -0.0757 -0.1166
92274W        W93138  17.335  16.865  12.454 -0.0962 -0.2763 -0.2009
92275W        W93139   6.319   3.789  24.808 -0.1157  0.0931 -0.0750
92276W        W93140  15.024  18.019  15.042 -0.1188  0.1296 -0.0461
92277W        W93141  26.071   7.852   2.331 -0.1836  0.2758 -0.1691
92278W        W93142   1.576  14.054   0.876 -0.0318  0.0409  0.0306
92279W        W93143   9.787  19.002   5.146 -0.3397 -0.0592 -0.1504
92280W        W93144  29.006  27.522  27.337  0.0687  0.1185 -0.1121
92281W        W93145   5.885  22.837  28.777 -0.0362 -0.1191  0.3000
92282W        W93146   0.981  22.015  25.329  0.1047  0.2068  0.0243
92283W        W93147  19.018  16.410  26.408  0.1259 -0.1197  0.0209
92284W        W93148  28.204   8.729  27.221 -0.0490 -0.2330 -0.0465
92285W        W93149  15.794   0.056  17.639  0.1077 -0.1843 -0.0217
92286W        W93150  16.079  13.041   4.015  0.0298  0.1704  0.1787
92287W        W93151  21.549   7.352  15.979  0.1407  0.1875 -0.1202
92288W        W93152  25.280  11.807  26.899 -0.1293 -0.0592  0.0489
92289W        W93153  18.853  24.280   9.225  0.3016  0.0101 -0.2306
92290W        W93154  23.405  19.659  17.719 -0.4421 -0.1367 -0.0555
92291W        W93155  21.580  22.039   8.034  0.0038  0.0784 -0.3775
92292W        W93156   3.881   5.762  21.811  0.1210 -0.0915  0.0599
92293W        W93157  20.538   3.903   8.266  0.3442 -0.0066  0.0508
92294W        W93158  10.906  28.446   4.620  0.0225 -0.0912 -0.2113
92295W        W93159   5.984  21.669   0.114  0.1588 -0.1398 -0.1268
92296W        W93160  14.761  16.687  24.943 -0.1612 -0.0587  0.1907
92297W        W93161  19.855  11.823   2.886  0.2735 -0.1714  0.1813
92298W        W93162   2.719  12.003   7.052  0.0086 -0.0816 -0.2158
92299W        W93163   7.210   9.718   7.675  0.1589  0.1288  0.1377
92300W        W93164   4.128  10.412  16.726 -0.0919 -0.2527  0.0150
92301W        W93165  25.680   5.441  18.765 -0.2342 -0.3536 -0.0069
92302W        W93166  21.681  15.598   7.992 -0.0987 -0.0115  0.0537
92303W        W93167   9.085   4.885  15.299  0.0313 -0.0237 -0.2072
92304W        W93168  11.937   6.102   7.664 -0.3558  0.1369 -0.0572
92305W        W93169  28.858  16.586  13.323  0.3911  0.1342  0.1483
92306W        W93170  24.621   3.559  23.165  0.0076 -0.0769 -0.4147
92307W        W93171  26.523  13.416  13.091  0.2270  0.2184  0.0448
92308W        W93172   4.201  18.836   6.048  0.1355 -0.2920 -0.0082
92309W        W93173  27.979  25.318  22.301  0.1958  0.1874 -0.2072
92310W        W93174   7.125  10.402  24.929  0.3388  0.2319  0.0232
92311W        W93175   7.684  27.648  28.565  0.0853 -0.1516  0.1074
92312W        W93176  23.999  21.978   7.523  0.0027  0.2697 -0.1276
92313W        W93177   5.225   1.940  28.540  0.2138 -0.0063 -0.3070
92314W        W93178  11.812   2.221  21.503  0.0320  0.1603 -0.0665
92315W        W93179   6.294  17.339  26.494 -0.2008  0.2115 -0.2276
92316W        W93180   4.796  23.537  23.054  0.0307 -0.1088 -0.1598
92317W        W93181   1.694   7.925  28.939 -0.2163 -0.0912  0.2117
92318W        W93182  23.212  28.148   9.088  0.2225 -0.2999 -0.1348
92319W        W93183   3.007   6.121  21.315  0.1533 -0.1020 -0.1755
92320W        W93184   0.559  17.427   5.130  0.1956 -0.0881 -0.1305
92321W        W93185  28.655  13.749  24.725 -0.2339 -0.1285  0.0526
92322W        W93186  17.743  15.203   4.878 -0.0519  0.2267 -0.0483
92323W        W93187   2.754  19.245  20.669  0.2706 -0.2007 -0.0276
92324W        W93188   1.638  10.535   7.109  0.1322 -0.0516 -0.2581
92325W        W93189  23.209  23.474   4.373  0.1203 -0.2222  0.0673
92326W        W93190  27.900  20.741   3.816 -0.0805 -0.1075  0.0636
92327W        W93191  13.871   2.141  22.161  0.0568  0.2854  0.1541
92328W        W93192  17.904  12.724   8.067  0.1949 -0.2693 -0.1041
92329W        W93193   2.862   0.506  18.600  0.1245 -0.2002 -0.4231
92330W        W93194  22.064  24.392  25.461  0.3311  0.1475 -0.2103
92331W        W93195  13.984   3.111  22.376 -0.3148  0.1711 -0.3890
92332W        W93196  16.801   1.318  23.506  0.2462 -0.3536 -0.0458
92333W        W93197   6.493  17.270   8.473 -0.0051 -0.0421 -0.2136
92334W        W93198   3.025  18.733  18.525  0.1677 -0.1599  0.0524
92335W        W93199   8.624   8.133  27.062 -0.0421  0.1397  0.1327
92336W        W93200  13.483  21.318  29.024 -0.1030 -0.0099 -0.1766
92337W        W93201  22.601   6.948   4.276  0.1840 -0.0241  0.2362
92338W        W93202   0.374  23.902  15.521 -0.1909  0.0543  0.1170
92339W        W93203  28.112  10.215   7.244 -0.1362 -0.0454  0.2555
92340W        W93204   0.849  22.428   3.401 -0.0630 -0.0292 -0.1918
92341W        W93205  13.070   3.898  14.059  0.0021  0.3272 -0.2367
92342W        W93206   4.950   0.320  20.143  0.0134  0.4588 -0.0808
92343W        W93207   2.486  26.781  13.825 -0.0035  0.0927 -0.3045
92344W        W93208  14.585  20.773  18.910 -0.0362 -0.2016 -0.0172
92345W        W93209  27.673  17.377   4.286 -0.5798 -0.1679  0.0817
92346W        W93210  16.198  19.639   8.233  0.5342  0.2609 -0.0726
92347W        W93211  28.460  23.932  24.682 -0.4934 -0.1977  0.1581
92348W        W93212  22.081  19.941  23.933 -0.1285  0.2190 -0.3264
92349W        W93213  17.964   9.741   3.096  0.1022  0.0877 -0.1941
92350W        W93214  21.917  12.239   4.554 -0.1218  0.1497  0.0302
92351W        W93215   6.382  15.091   1.591  0.3299 -0.1809  0.0466
92352W        W93216  15.348   7.339  22.063  0.0346 -0.0456  0.2596
92353W        W93217  22.834   0.789  24.368 -0.1142 -0.1086  0.1448
92354W        W93218  13.586  17.651   3.321  0.1880  0.1510 -0.0736
92355W        W93219   2.178  22.707  24.512  0.1748  0.2084 -0.2978
92356W        W93220  28.556  20.160   8.965 -0.1166  0.4436 -0.0848
92357W        W93221  17.459  23.527   7.776  0.3861 -0.0077 -0.1893
92358W        W93222  26.979  14.974  11.925  0.1532  0.4168 -0.0569
92359W        W93223  28.205  20.029  28.722 -0.0745  0.2780  0.1207
92360W        W93224   0.045   9.498   0.184 -0.1841  0.1659 -0.3064
92361W        W93225   1.394  20.681  21.188 -0.1455  0.0643  0.0873
92362W        W93226   9.358   4.123  14.499  0.0093 -0.1598 -0.4016
92363W        W93227  19.534  17.953  21.016 -0.0815  0.3334  0.2368
92364W        W93228  22.203  14.827   4.102  0.2266 -0.2267 -0.2834
92365W        W93229   6.113  19.884  24.738  0.3317  0.1069 -0.2035
92366W        W93230  15.194  22.703   9.457 -0.0388 -0.0907  0.0234
92367W        W93231   8.292  24.623  16.227  0.0924 -0.1005  0.1058
92368W        W93232  13.302   3.475   0.445  0.3168 -0.0089  0.0301
92369W        W93233  10.964   9.919   1.161  0.0527 -0.0908 -0.0033
92370W        W93234  24.827   2.011  17.505  0.1303  0.1008  0.3156
92371W        W93235   0.508  11.359   4.848  0.0125 -0.2193  0.0451
92372W        W93236   8.051  18.590  13.357 -0.1629 -0.1374 -0.3603
92373W        W93237  23.083  23.021  22.600 -0.3093 -0.0849  0.2150
92374W        W93238   2.723   1.389   3.154  0.0587  0.4094  0.3353
92375W        W93239  25.401  12.178  22.527 -0.3250  0.2572 -0.0060
92376W        W93240   3.853  26.105   7.453  0.0135  0.1189 -0.1048
92377W        W93241  14.449   6.998  16.696  0.1803  0.0763  0.0321
92378W        W93242  21.675  17.324  18.254  0.0619  0.1153 -0.0841
92379W        W93243   7.344  11.486  27.585  0.0184 -0.1703 -0.1330
92380W        W93244   2.145  10.772   1.282 -0.4204 -0.0248  0.2284
92381W        W93245   8.950  18.211   6.331 -0.1414  0.1404  0.2595
92382W        W93246   1.487  21.992   0.340  0.3110 -0.0371  0.0026
92383W        W93247  26.869  20.158  22.952 -0.0900  0.1838 -0.0713
92384W        W93248   8.116  13.528  11.508  0.2092  0.1431 -0.0741
92385W        W93249  27.668  19.390   3.628  0.0908 -0.1479 -0.1370
92386W        W93250   7.403   8.337  21.980  0.1593  0.1117  0.0701
92387W        W93251  16.577   0.948  28.388  0.0755  0.0576  0.0791
92388W        W93252   6.615  22.456  17.764  0.2660 -0.1331 -0.4173
92389W        W93253  12.112   3.513   1.643  0.2657  0.0502  0.0350
92390W        W93254  23.109  10.755  18.456 -0.2366  0.2032 -0.1176
92391W        W93255   0.467  10.783  19.306  0.0456 -0.3071 -0.4453
92392W        W93256  28.679  13.235   0.570  0.0707 -0.0080 -0.0211
92393W        W93257   3.797   7.364   7.083  0.0161  0.0173  0.3616
92394W        W93258  20.483  24.941   3.770  0.1099  0.1035  0.5320
92395W        W93259  19.961  16.381   1.413  0.2390 -0.1390  0.1305
92396W        W93260  15.547  19.044  23.135  0.1259  0.2820 -0.0427
92397W        W93261  20.861  11.527  23.691 -0.0275  0.0552  0.0304
92398W        W93262   9.469  23.503   1.331 -0.1619 -0.1193  0.1198
92399W        W93263  25.974   9.478   2.727 -0.1165 -0.3611  0.2218
92400W        W93264   9.137  23.425  16.723 -0.2196 -0.0475  0.1011
92401W        W93265   0.023   8.012   2.863 -0.1925  0.0509  0.2045
92402W        W93266  14.194  26.791  18.042 -0.1246 -0.3835  0.0240
92403W        W93267  28.216   7.197  15.591 -0.2054  0.2234  0.2589
92404W        W93268  23.677   0.718   6.887 -0.0449  0.0202  0.0801
92405W        W93269  13.161  16.189   3.704 -0.0049 -0.0208 -0.0767
92406W        W93270  22.435  17.794   6.124 -0.2400 -0.1748 -0.1135
92407W        W93271   5.698  22.217  23.628  0.0265  0.1059  0.1626
92408W        W93272   6.335  10.887  19.626 -0.0295  0.3234 -0.1574
92409W        W93273   9.924  14.298  17.575  0.0015 -0.1366 -0.0825
92410W        W93274  24.951  21.537   2.977  0.1315 -0.0699  0.1769
92411W        W93275  24.254  26.389   7.605  0.0703 -0.2551 -0.0959
92412W        W93276  28.594  21.225  23.097  0.1521 -0.1365  0.1564
92413W        W93277   6.412  14.583  26.957  0.0819  0.0902  0.0670
92414W        W93278  26.433  28.631  20.165  0.0879  0.1521 -0.0054
92415W        W93279  10.231  10.571   6.652 -0.2639 -0.1389  0.3095
92416W        W93280  27.022  15.360  22.107 -0.2302  0.1084 -0.2336
92417W        W93281  25.613   2.606  28.143  0.0240 -0.0397 -0.0001
92418W        W93282  17.924  13.461   9.635  0.1842  0.1162 -0.2792
92419W        W93283  22.493  20.955  25.596  0.0441 -0.1827  0.0826
92420W        W93284  23.792   9.917  19.945  0.0291  0.2651  0.2592
92421W        W93285   5.596  15.049   4.164 -0.1488  0.1553  0.1124
92422W        W93286   5.111   3.827  10.805  0.2963  0.2867 -0.0340
92423W        W93287   6.444   6.731  28.612 -0.0863 -0.1000 -0.0430
92424W        W93288  22.819  26.505  27.275 -0.2601  0.0078  0.0821
92425W        W93289  19.283   9.220  13.095 -0.3573  0.1555 -0.0820
92426W        W93290   9.980   1.749   1.686  0.1407 -0.0353 -0.1576
92427W        W93291  21.513   2.658  26.371 -0.3660 -0.0246 -0.2331
92428W        W93292  20.512  24.067   4.957  0.0380  0.1632  0.0492
92429W        W93293   6.166   4.037  26.072 -0.0820  0.0430  0.0379
92430W        W93294  21.995  11.161  13.530 -0.2534  0.0240  0.0217
92431W        W93295   6.970  11.803   7.057  0.0442  0.0390 -0.2089
92432W        W93296  22.448  18.614  24.595  0.0981  0.1909  0.0895
92433W        W93297  22.182  11.524   1.401  0.0771  0.0744 -0.0276
92434W        W93298  22.859  15.386  28.823  0.1752  0.2916  0.0431
92435W        W93299  24.164  26.425   8.622  0.0089  0.3305 -0.2579
92436W        W93300   3.781  16.867  26.055 -0.2708  0.0352  0.3828
92437W        W93301  22.206  18.368   8.927  0.1172 -0.1486  0.2094
92438W        W93302  19.956  18.882  19.666  0.1091 -0.1256 -0.2041
92439W        W93303  22.834  11.649   3.302  0.1900 -0.0266  0.1441
92440W        W93304  26.436   0.580  26.242 -0.0094  0.0587 -0.1029
92441W        W93305  10.037  11.812   0.390 -0.0455 -0.1176 -0.1167
92442W        W93306  26.844  27.724  23.220  0.0556  0.0619  0.2784
92443W        W93307  27.791  26.755   3.009 -0.1493  0.3264  0.1142
92444W        W93308   1.944  17.063   1.978 -0.3325 -0.2681  0.0642
92445W        W93309   9.070  16.618  15.142  0.3566  0.0869 -0.2113
92446W        W93310  23.513  10.501  28.758 -0.1730  0.2924 -0.0095
92447W        W93311   9.094  18.920  26.151 -0.0990  0.0981 -0.0679
92448W        W93312   3.230  23.882   6.756  0.0587  0.2996  0.0510
92449W        W93313   3.215  12.211  12.280 -0.0595  0.1825 -0.3800
92450W        W93314  28.154   7.056  18.470  0.1441  0.0733 -0.0761
92451W        W93315   8.395  19.725  16.289  0.2206 -0.2509 -0.0465
92452W        W93316  28.577   9.534   7.552 -0.0719 -0.1454  0.3822
92453W        W93317   6.913  27.556  14.751  0.0406  0.0602  0.1478
92454W        W93318   6.133  21.714   1.876  0.1177  0.1451  0.0728
92455W        W93319  18.440  27.203   3.497  0.2086 -0.0535  0.0170
92456W        W93320   5.010   6.650  26.895 -0.1582  0.1982  0.2024
92457W        W93321   7.878  15.690  14.346 -0.1419  0.1896  0.1729
92458W        W93322  12.806  19.016  16.552  0.0196  0.1572  0.1720
92459W        W93323  15.058  19.578  14.989 -0.0155 -0.1004 -0.1403
92460W        W93324   5.300  19.830  22.775  0.0624 -0.2913 -0.0062
92461W        W93325  22.091  13.365  19.967  0.2253  0.3933  0.0476
92462W        W93326  25.477   7.763  17.161 -0.2524  0.1480 -0.1465
92463W        W93327  22.014   8.133   7.705 -0.0122  0.4072  0.0110
92464W        W93328  20.343  22.321  22.067  0.1118 -0.1735 -0.1471
92465W        W93329  19.993  14.301   4.710  0.1003  0.1048 -0.0568
92466W        W93330  12.684  14.755   8.860  0.2856  0.2113  0.1721
92467W        W93331   7.883  14.788   1.016  0.0474  0.3139  0.1540
92468W        W93332  18.512   3.467  11.438 -0.1361 -0.1129  0.0615
92469W        W93333  15.329  26.021   7.501  0.1857 -0.2485  0.1040
92470W        W93334  17.850  19.246   9.375 -0.2674  0.1067  0.1223
92471W        W93335   3.142  24.985  16.058 -0.1447  0.1235  0.1227
92472W        W93336   6.921  15.675  29.025 -0.0466 -0.2059 -0.2760
92473W        W93337  12.000   3.837   8.102  0.2350 -0.0587 -0.1871
92474W        W93338   9.622  16.352   2.943  0.0102  0.1182  0.1839
92475W        W93339  10.121  25.810  28.010 -0.0171  0.1173  0.0788
92476W        W93340  16.138  18.723   2.421 -0.2897  0.4828 -0.2365
92477W        W93341   8.312   8.255  20.042  0.1131 -0.1047  0.1065
92478W        W93342  10.534  25.328   5.474 -0.1329  0.0121 -0.0595
92479W        W93343   8.828  16.401  22.159  0.1324  0.0784  0.0908
92480W        W93344   4.231   7.286  26.395  0.2808 -0.1133 -0.1566
92481W        W93345  28.990  27.688  19.006 -0.2263  0.0465  0.0501
92482W        W93346   6.598   5.971   2.773 -0.1381  0.3201  0.1290
92483W        W93347   9.017  16.667  27.629 -0.4716 -0.1246 -0.0181
92484W        W93348   1.305  22.322   3.190  0.1325  0.3015 -0.0410
92485W        W93349  21.606  15.554   0.613  0.0826 -0.0350 -0.0116
92486W        W93350   3.352   9.666  27.401  0.3126 -0.4067 -0.2096
92487W        W93351   5.888  18.173  15.478  0.2592 -0.1295 -0.0404
92488W        W93352  18.685   2.499   9.739 -0.0448  0.0733 -0.0935
92489W        W93353  14.852   8.348   1.336  0.3706  0.0236 -0.0804
92490W        W93354  24.063  16.092  28.410  0.0951 -0.3968  0.1099
92491W        W93355   9.857  20.665  16.661 -0.1698 -0.0600 -0.0363
92492W        W93356  17.101  15.971  24.962 -0.0052 -0.0304  0.2275
92493W        W93357   0.460  10.581  21.728  0.2770  0.1191  0.0547
92494W        W93358  12.886   4.055  25.088  0.0336  0.4789  0.2105
92495W        W93359  19.118   5.201  14.801  0.2566  0.0007  0.0192
92496W        W93360   9.235  18.981   9.537 -0.0750  0.0323  0.0418
92497W        W93361  27.593   8.405   6.978  0.1482  0.3561 -0.1227
92498W        W93362  13.357   8.404  11.285  0.2331  0.1610  0.0232
92499W        W93363  18.160   7.682  27.347 -0.1035  0.0620 -0.0466
92500W        W93364  27.837  10.702   7.326 -0.3608 -0.0280  0.2488
92501W        W93365  17.198   6.306   8.239  0.2154  0.2621 -0.1298
92502W        W93366   4.397  17.011  18.016 -0.1337  0.0406 -0.1960
92503W        W93367  27.765  13.235  22.259 -0.1600  0.1281  0.3360
92504W        W93368  13.665  18.972  28.051  0.2986 -0.4274  0.2043
92505W        W93369   8.298   7.906   5.646  0.0245  0.1654  0.3464
92506W        W93370  22.720   8.144  27.384  0.3135  0.0958 -0.1398
92507W        W93371  25.744   2.053  18.753 -0.1390 -0.1108 -0.0361
92508W        W93372   9.166   6.310  13.463 -0.0184  0.4132 -0.0374
92509W        W93373   5.286  14.859  10.889 -0.2294 -0.1251 -0.0409
92510W        W93374  24.067   5.635   4.145 -0.3114  0.3307 -0.1570
92511W        W93375   4.492  16.494  22.314 -0.1229 -0.0640  0.0129
92512W        W93376   2.337  24.201   1.967 -0.2048  0.1396 -0.0159
92513W        W93377  25.767  25.113  23.061  0.1646 -0.0854 -0.1913
92514W        W93378   8.848   1.387  14.843  0.1825  0.0103  0.0350
92515W        W93379  23.493  13.118   3.860  0.1283  0.1377 -0.0366
92516W        W93380  21.634   7.395   0.876  0.1045 -0.0185 -0.0212
92517W        W93381   3.084  26.168   9.330  0.0713 -0.0728 -0.2490
92518W        W93382  24.441  14.541  20.520  0.1072 -0.0122  0.3263
92519W        W93383  16.030   0.293  21.647  0.0152 -0.2338  0.1156
92520W        W93384  25.757  12.102  23.510  0.2799  0.1085  0.1835
92521W        W93385   7.751  28.658  10.313  0.0898 -0.1431  0.2437
92522W        W93386  10.388  12.976  25.850 -0.0084 -0.0454 -0.0585
92523W        W93387  20.932  17.535  15.350  0.2528  0.1042  0.0085
92524W        W93388  20.601   4.031   1.223 -0.2783 -0.1411 -0.1048
92525W        W93389   9.122   9.742  12.643  0.2045  0.0518 -0.1956
92526W        W93390  12.349  15.370  12.861  0.2340 -0.1375 -0.0930
92527W        W93391  24.684   1.589  13.610  0.1441 -0.3862 -0.0291
92528W        W93392  24.958  22.328   3.378 -0.1658  0.0608  0.1775
92529W        W93393   6.328  23.668   6.422  0.2884 -0.3095  0.0141
92530W        W93394  29.025   7.852   8.050  0.1733 -0.0393  0.0986
92531W        W93395  26.959   4.634  26.106  0.1972 -0.0472  0.1600
92532W        W93396  23.742  19.059   2.684 -0.3539 -0.0040  0.0767
92533W        W93397  16.901  16.020  12.513 -0.0591  0.1217  0.1132
92534W        W93398   1.163   3.810   6.347 -0.1496  0.3103 -0.5915
92535W        W93399  19.718  26.823  15.453  0.0660  0.2765  0.0211
92536W        W93400  24.055   7.992  27.651 -0.1935  0.3648  0.2609
92537W        W93401   2.791  12.026  25.231 -0.2264 -0.2885 -0.1381
92538W        W93402   7.787  14.267  21.409 -0.0316  0.1654  0.0786
92539W        W93403  17.216  22.136  20.113 -0.0602  0.1295  0.3049
92540W        W93404  22.456  27.779   9.960  0.1125 -0.2525 -0.3747
92541W        W93405  22.505  16.786   4.692  0.1448  0.2224  0.2083
92542W        W93406  26.553   9.431   6.385 -0.0237 -0.0295 -0.0033
92543W        W93407  25.525   7.068  24.758  0.5823 -0.3353  0.1107
92544W        W93408   8.083   5.187  27.680  0.1346 -0.0466 -0.1492
92545W        W93409  24.374  21.577   5.914  0.3862 -0.0631  0.0883
92546W        W93410  13.607  20.057   1.013  0.0856  0.0434 -0.4796
92547W        W93411  15.507  23.700  27.250  0.1819 -0.0476  0.1673
92548W        W93412   6.115  10.269   7.450  0.2901  0.2374 -0.1434
92549W        W93413   7.643   8.209  20.091 -0.1671 -0.0390 -0.2456
92550W        W93414  21.771  24.566  13.365  0.1507 -0.1278 -0.2974
92551W        W93415   4.329  27.131  26.993 -0.0503 -0.3010 -0.0536
92552W        W93416   5.688  17.787  11.603  0.0840  0.1177 -0.0555
92553W        W93417  26.990  19.365  18.959 -0.1543  0.1321  0.0471
92554W        W93418  23.382   6.196  16.273  0.1530 -0.0385 -0.1202
92555W        W93419  19.511  18.938  27.987  0.0542  0.0653 -0.3187
92556W        W93420  22.152  13.029   8.121 -0.0878  0.1531  0.0977
92557W        W93421  20.632  17.617  12.279  0.1153  0.0248 -0.0541
92558W        W93422   4.751   8.280  28.497  0.1936  0.0841 -0.2449
92559W        W93423  27.793  17.879   8.669  0.1492 -0.1508 -0.0206
92560W        W93424   0.289  13.592  13.983  0.0894 -0.0210 -0.1054
92561W        W93425  26.415   3.180   0.794 -0.3356  0.2900  0.0317
92562W        W93426  18.632   8.614   8.698  0.2526 -0.0572 -0.0449
92563W        W93427   6.354   3.808   9.527 -0.0819  0.0674  0.0006
92564W        W93428  19.478  10.027   7.722  0.0356 -0.0408 -0.0612
92565W        W93429   6.072   0.962  25.671 -0.0932 -0.1368 -0.1271
92566W        W93430   1.080  23.209  22.422  0.0435 -0.1697  0.2727
92567W        W93431  17.503   6.041  27.713  0.0197 -0.1024  0.1162
92568W        W93432  25.752   1.548   7.667  0.0035 -0.0411 -0.0621
92569W        W93433  26.291  10.991  20.821 -0.4995  0.0228 -0.2105
92570W        W93434   2.882  15.834  14.062 -0.1031  0.2005 -0.0467
92571W        W93435   2.935  20.746  15.602  0.3174  0.1876  0.0074
92572W        W93436  12.696  24.829   6.765  0.1806 -0.2550 -0.0735
92573W        W93437  14.365  24.242  10.060 -0.1875  0.3720 -0.0017
92574W        W93438   4.033  10.025  12.594 -0.3703  0.2531 -0.2202
92575W        W93439   7.345   2.299  10.574  0.0199 -0.0455 -0.3740
92576W        W93440  26.951   9.352  18.967 -0.1117  0.0798  0.1753
92577W        W93441  23.086  22.645   0.316  0.0223 -0.0358 -0.1725
92578W        W93442   5.169  12.409   8.010 -0.1304 -0.0345  0.1605
92579W        W93443  21.649  23.646  12.991 -0.1875  0.1712  0.0208
92580W        W93444   8.492  15.974   6.384 -0.1847  0.1982 -0.0984
92581W        W93445  21.959  17.095   4.120 -0.2447 -0.2941 -0.0696
92582W        W93446   2.656  11.343  28.248 -0.4293 -0.2045  0.0101
92583W        W93447  19.571   9.127  17.575  0.1701 -0.0372  0.1152
92584W        W93448  28.237   6.242   0.025  0.2852  0.0611  0.0883
92585W        W93449  23.011  17.964   0.054 -0.1303  0.0440  0.0564
92586W        W93450  22.296   2.084  12.866  0.0719  0.0100 -0.2285
92587W        W93451  15.587  25.919   5.630  0.1765 -0.2525  0.0048
92588W        W93452   1.233  17.855  20.508 -0.2761 -0.1321  0.1288
92589W        W93453   8.469  17.473   2.625 -0.1270  0.1256 -0.0554
92590W        W93454  25.401   1.142   2.329 -0.0573  0.2333 -0.0018
92591W        W93455   7.967  19.888  19.468 -0.0318 -0.0819 -0.0022
92592W        W93456  21.707  26.314  26.622  0.2145  0.3045  0.1048
92593W        W93457  20.111   1.784   5.372  0.1061  0.2912  0.4629
92594W        W93458  21.832  16.573  24.011  0.0982 -0.2201  0.0352
92595W        W93459  23.584  11.159   5.044  0.0078  0.0723 -0.1616
92596W        W93460  16.224  16.340   4.479 -0.0994  0.0300  0.0421
92597W        W93461   0.814  28.940   4.170 -0.0461  0.1442 -0.2379
92598W        W93462   8.241   3.347  28.484 -0.2838 -0.0767 -0.1521
92599W        W93463  21.573  17.760  14.424  0.1456  0.1266 -0.0100
92600W        W93464  26.765   6.351  11.078  0.3372 -0.1222 -0.2348
92601W        W93465   5.758  23.077  23.322  0.3408  0.2760 -0.0145
92602W        W93466  28.459  12.805   8.327  0.0421 -0.0250  0.0508
92603W        W93467  24.866   0.891   8.140 -0.1166  0.0072  0.4131
92604W        W93468  19.395  17.928  27.987  0.0546  0.1027 -0.0380
92605W        W93469   0.175  16.295  23.323 -0.0513  0.0968  0.1978
92606W        W93470   6.999  15.324   7.020  0.2471 -0.2283  0.2302
92607W        W93471   1.446  22.064  21.145  0.0412 -0.0852 -0.0161
92608W        W93472  22.362   0.753   8.569  0.1459 -0.0788  0.1170
92609W        W93473   4.384   2.617   7.909  0.2173 -0.0505  0.0710
92610W        W93474   6.692  23.557  10.943  0.2385  0.2541  0.1457
92611W        W93475  25.403   5.548  22.191  0.1258 -0.1466 -0.1323
92612W        W93476   8.393  14.854  26.830 -0.0659  0.0192 -0.0943
92613W        W93477  11.663  11.251   1.479 -0.0306  0.1043 -0.0846
92614W        W93478  22.482  21.683   7.075  0.0530  0.1749 -0.0633
92615W        W93479  15.526   1.602   3.724 -0.1353 -0.2138 -0.0128
92616W        W93480  18.432  14.859  16.386  0.0436  0.2759  0.1574
92617W        W93481  16.679  21.184  15.546 -0.1343 -0.2762  0.1049
92618W        W93482   0.377   8.180  26.164 -0.1204  0.0618  0.2730
92619W        W93483   8.589  14.856   8.269 -0.1170 -0.1274 -0.3295
92620W        W93484   1.574   5.507   5.076 -0.2573  0.0622  0.0719
92621W        W93485  20.264   4.662  21.409 -0.1734 -0.1797 -0.0672
92622W        W93486  13.657  16.545   2.326  0.1377 -0.0360  0.0094
92623W        W93487  18.257   1.766  10.817  0.0493 -0.2614 -0.1336
92624W        W93488  26.548   9.248  26.224 -0.1802  0.1846 -0.1844
92625W        W93489   2.644  13.564  28.867 -0.4533 -0.0149 -0.0915
92626W        W93490   1.926  20.573  22.155 -0.2213  0.0905 -0.0059
92627W        W93491  20.418  23.673   5.191  0.3404 -0.3510 -0.1595
92628W        W93492   4.085  17.599   0.078  0.0194  0.1633 -0.3369
92629W        W93493  17.114  23.414   6.797  0.0065 -0.1061 -0.1346
92630W        W93494   5.496   9.271  19.439 -0.2710 -0.0174  0.0520
92631W        W93495  28.376  24.452   0.701  0.0042  0.1785 -0.0348
92632W        W93496  27.422  28.307  10.137  0.1620 -0.0243 -0.0297
92633W        W93497  27.794  11.543  11.755 -0.0498  0.1596  0.2530
92634W        W93498  27.104   1.562  28.654  0.0151  0.0617 -0.1375
92635W        W93499  25.151  14.630  12.800 -0.1501  0.0721 -0.1927
92636W        W93500  21.930  24.038  24.553 -0.1326  0.0198 -0.0936
92637W        W93501   9.445  11.677   4.547  0.0488 -0.0804  0.0755
92638W        W93502  13.399  23.578   7.313  0.4595  0.1316 -0.1993
92639W        W93503  11.726   4.442   0.234 -0.4663  0.4630  0.1960
92640W        W93504   8.839  16.892   2.063  0.2588 -0.0077 -0.1887
92641W        W93505  12.523   6.892   8.851  0.0189  0.1158 -0.0762
92642W        W93506   1.109   9.202  20.946 -0.2293  0.1648  0.1389
92643W        W93507  11.195  11.972  12.522  0.0781  0.1497  0.2533
92644W        W93508   2.972  22.314   7.655 -0.0209  0.1092 -0.0922
92645W        W93509  17.117   0.519   4.755  0.0625  0.1055  0.0932
92646W        W93510  22.122  12.802  11.505 -0.0404 -0.2093  0.0551
92647W        W93511   2.393  12.270   6.369 -0.0450 -0.0677  0.1855
92648W        W93512  18.571   9.147   8.563  0.0470  0.1318 -0.0267
92649W        W93513  22.451  13.454  20.367 -0.0775  0.1313 -0.2141
92650W        W93514  23.453  10.238   5.002 -0.0273  0.1487 -0.1114
92651W        W93515   2.995   3.015  12.956 -0.0321 -0.2110  0.0833
92652W        W93516  24.172  15.221   8.553  0.0273 -0.0705  0.2649
92653W        W93517  26.549  21.641   2.558  0.2059  0.0365  0.2783
92654W        W93518  23.568  15.657  11.823 -0.2545 -0.0366 -0.0180
92655W        W93519  13.634  18.830  24.166  0.5039  0.2622 -0.0983
92656W        W93520  25.449  22.358   3.560 -0.0534  0.0913  0.1209
92657W        W93521   7.262  28.663   9.979  0.0316  0.0058  0.0156
92658W        W93522   8.997  21.737   3.904  0.0229  0.1477  0.0221
92659W        W93523  27.499  13.820   5.476 -0.0411  0.1261  0.0170
92660W        W93524  27.932  19.754  28.296  0.0165  0.0159 -0.2233
92661W        W93525   4.306   8.896  12.463  0.4809 -0.1876  0.3297
92662W        W93526   1.770  11.701  23.347 -0.0507 -0.0067 -0.3584
92663W        W93527  28.690  20.005  10.274 -0.1269  0.0573 -0.0298
92664W        W93528  27.695   4.908  14.309 -0.0648 -0.0666  0.0461
92665W        W93529  23.265  10.795  21.068  0.2071 -0.2042  0.3005
92666W        W93530  10.293   8.108   8.189  0.1041 -0.0236 -0.1515
92667W        W93531  29.080  19.325   1.510 -0.0078  0.0761 -0.3391
92668W        W93532  22.286  23.748  11.330  0.0204 -0.2349  0.3367
92669W        W93533  15.837   5.618  15.925 -0.1355  0.0922 -0.0875
92670W        W93534  26.447  15.774   3.009  0.0660 -0.0192 -0.0168
92671W        W93535   5.406  13.386  11.399 -0.0135 -0.1883 -0.0798
92672W        W93536  21.016  16.798  28.401  0.1938 -0.1539  0.0267
92673W        W93537   6.190  16.105  27.346  0.1463  0.2090 -0.1202
92674W        W93538  14.362  14.072  28.184  0.2033  0.2842 -0.0103
92675W        W93539  19.877  18.195  15.582  0.4315 -0.2365 -0.2296
92676W        W93540  17.269  23.624  27.855  0.1423 -0.0237  0.2386
92677W        W93541  26.588   0.241  14.011  0.0367 -0.0425  0.2528
92678W        W93542  22.870   8.429  14.288  0.3003 -0.1555 -0.2310
92679W        W93543  23.476  19.675   2.555  0.1370  0.0502  0.0615
92680W        W93544  25.035   0.002  24.853  0.1580 -0.0232  0.0759
92681W        W93545  27.164   3.283   1.736  0.0055  0.0564 -0.3496
92682W        W93546  23.361   5.379  20.079  0.0185 -0.0525 -0.0356
92683W        W93547  25.804  20.942   2.889 -0.0725 -0.1405  0.0012
92684W        W93548  24.099  16.205  26.180 -0.3457 -0.0118 -0.1626
92685W        W93549  23.500  11.787   3.723 -0.0828  0.1231 -0.0526
92686W        W93550   4.635  18.770   8.967 -0.0647  0.0503  0.0360
92687W        W93551   8.518  26.811   8.331 -0.0920  0.0965 -0.3802
92688W        W93552  17.882  18.504   5.134 -0.2006  0.0849  0.1424
92689W        W93553  27.694   5.390  22.341 -0.0290 -0.1331 -0.0306
92690W        W93554   0.554   3.005  21.927 -0.0431 -0.0520 -0.0611
92691W        W93555  25.517  13.010  11.578  0.0569 -0.1347  0.0244
92692W        W93556   7.760  14.381   3.681  0.0282 -0.1109 -0.0807
92693W        W93557   4.167  26.761   9.416 -0.0256 -0.1123 -0.2205
92694W        W93558   6.098  27.917  16.954 -0.3682  0.5500 -0.0543
92695W        W93559   1.970   4.266  14.178 -0.0399  0.0394  0.1802
92696W        W93560  22.879  18.270  26.191 -0.0547 -0.2762  0.1269
92697W        W93561   5.440  12.428  14.059  0.1688  0.1892  0.1705
92698W        W93562  11.730  22.552   4.840 -0.3408  0.2189  0.1592
92699W        W93563  21.677  28.591  27.281  0.2444  0.1562 -0.1217
92700W        W93564   0.043  15.486   2.742 -0.2885  0.3717 -0.0739
92701W        W93565  26.894  29.113   4.588 -0.0849  0.0990  0.1043
92702W        W93566   7.178   5.687   5.820  0.1723 -0.1035  0.1419
92703W        W93567  13.044  11.847  22.982 -0.0995 -0.3122 -0.0114
92704W        W93568  24.261   6.786  29.082 -0.3386 -0.1350  0.0565
92705W        W93569  24.879  18.138   1.732  0.2744  0.2333 -0.0913
92706W        W93570   5.785  16.877   9.185  0.0639 -0.1688 -0.1409
92707W        W93571  12.502   1.773   4.821 -0.1111 -0.1172  0.1646
92708W        W93572  10.299  11.727  12.889 -0.1926  0.1871 -0.1747
92709W        W93573  28.526   8.064   7.311 -0.1509  0.0060 -0.3459
92710W        W93574  19.961  24.820  26.356  0.1955  0.2050 -0.1442
92711W        W93575  14.413  13.273   1.530  0.1882 -0.0508 -0.0817
92712W        W93576  28.787   2.797   3.815  0.1116  0.1822 -0.1553
92713W        W93577   1.162   8.801  15.882  0.1988  0.1016 -0.0636
92714W        W93578  25.099  16.276  20.611 -0.0979  0.1829  0.3228
92715W        W93579  16.254  13.387  27.070  0.1470 -0.0967  0.0592
92716W        W93580  24.063  21.150  15.758  0.0268 -0.1234 -0.2279
92717W        W93581  28.916   5.641  14.565 -0.3055  0.2414  0.2802
92718W        W93582  18.056   4.470   7.015  0.0150 -0.0083  0.1337
92719W        W93583  25.419  11.402  25.081  0.1465  0.1860 -0.0737
92720W        W93584  27.377   1.599   1.431  0.1331 -0.0596  0.1939
92721W        W93585   1.982   7.822   7.722  0.0811  0.2990 -0.0528
92722W        W93586  13.966  25.961   9.538  0.0065 -0.0466  0.2693
92723W        W93587  21.213  10.620   8.703 -0.1637  0.0008  0.1563
92724W        W93588   8.155   9.505   4.472 -0.0249 -0.0928  0.1145
92725W        W93589  20.879  23.037   2.563 -0.2627 -0.0647 -0.2779
92726W        W93590  13.499  21.579  11.670 -0.2462  0.0376 -0.0877
92727W        W93591  16.894   9.340   8.248  0.1998 -0.1216 -0.0771
92728W        W93592   5.154  20.943   3.610 -0.3700  0.1272 -0.3467
92729W        W93593   4.105   3.257  28.722 -0.1383 -0.1105  0.1138
92730W        W93594  14.795  19.003   2.412 -0.1043 -0.2605  0.1385
92731W        W93595  10.504   9.414   2.522  0.1363  0.0214 -0.1636
92732W        W93596   7.350  12.620  11.815  0.0467  0.3386 -0.1562
92733W        W93597  27.421  12.562   1.094 -0.2010  0.0895  0.1460
92734W        W93598   2.316  17.665  21.082  0.0462  0.0915  0.3172
92735W        W93599   7.388  28.330  14.450 -0.0857  0.1018  0.0884
92736W        W93600  26.763  15.988   3.458 -0.2176 -0.1161 -0.2954
92737W        W93601   8.329   9.767  17.514  0.0934 -0.1732  0.1695
92738W        W93602   8.749  11.626   1.235 -0.1142  0.1259  0.4225
92739W        W93603  29.107  19.754  23.805  0.2554 -0.1322  0.1629
92740W        W93604  17.518   3.345   9.602 -0.0373  0.0248  0.0185
92741W        W93605   9.328   1.009   5.701  0.2732  0.1576 -0.1228
92742W        W93606  24.711  22.247  20.443  0.2629  0.1697 -0.2891
92743W        W93607   4.010  28.864  20.914  0.1821 -0.1969 -0.2228
92744W        W93608   7.104  13.776   8.016  0.1293  0.2653 -0.1301
92745W        W93609  15.386  12.122  11.328 -0.0694 -0.1516  0.3552
92746W        W93610  22.448  23.057  12.587 -0.0556  0.2755  0.1261
92747W        W93611  25.691  18.034   5.661  0.0484 -0.0686  0.0184
92748W        W93612  23.842  11.614   8.664 -0.1043 -0.0914 -0.1706
92749W        W93613  21.397  14.008   1.766 -0.1327 -0.0113 -0.1831
92750W        W93614  27.981  13.452   7.208  0.0982  0.3470 -0.2616
92751W        W93615   3.382  18.024   8.710  0.2889 -0.1211 -0.2537
92752W        W93616   2.834   0.725   6.376 -0.1604  0.1593  0.2437
92753W        W93617  12.838  20.112   9.938 -0.1786  0.1166 -0.0440
92754W        W93618  25.019  11.406  15.082 -0.0869 -0.1475  0.1733
92755W        W93619  14.974   9.761  27.700  0.1413  0.1062 -0.2813
92756W        W93620  20.678  14.040  18.169 -0.1358 -0.0800 -0.2624
92757W        W93621  21.992  18.244   1.375  0.3048 -0.1287  0.1580
92758W        W93622  24.561   0.493  11.283 -0.1984  0.0239 -0.2429
92759W        W93623  23.440   9.799  21.620  0.1998  0.3349 -0.1782
92760W        W93624  18.365  16.743  20.175  0.0946 -0.1092 -0.2210
92761W        W93625  18.822  15.102   7.500  0.0102 -0.1777 -0.0665
92762W        W93626  29.134  17.474  21.029 -0.0198  0.1333 -0.0744
92763W        W93627  20.043  19.307   8.333  0.1707  0.0419  0.1140
92764W        W93628   2.447   9.819  11.834  0.0809 -0.0337 -0.0853
92765W        W93629  25.941   0.761  13.591  0.0303 -0.3103 -0.0269
92766W        W93630  10.048  17.329  16.243  0.1616 -0.2089  0.1773
92767W        W93631  26.340  19.625  26.148 -0.0827  0.0604 -0.0582
92768W        W93632   8.635  28.023   9.222  0.2157 -0.0053  0.1558
92769W        W93633   1.198  17.504  19.967 -0.0943  0.1146 -0.0023
92770W        W93634  21.264   6.230   8.497  0.2394 -0.0060 -0.2877
92771W        W93635  23.849   6.115  16.173 -0.0532  0.0810 -0.0263
92772W        W93636  26.003   7.129   3.769  0.1400  0.2880 -0.0633
92773W        W93637  28.542  17.196  21.495 -0.0200  0.1206  0.0425
92774W        W93638  23.320   6.580  16.854  0.2610 -0.0761  0.2393
92775W        W93639  23.018  10.885  10.839 -0.1663  0.1147 -0.1308
92776W        W93640  13.656  24.111  22.972  0.1427  0.0905  0.2774
92777W        W93641  27.867  18.439  19.450 -0.1036 -0.1962  0.1226
92778W        W93642   0.686  16.642  24.442  0.3425 -0.3667 -0.2810
92779W        W93643   0.478   9.577   3.640 -0.0608  0.0058 -0.2753
92780W        W93644  26.139   7.976   8.661  0.1090  0.1226  0.0904
92781W        W93645  23.968  15.530  19.187  0.1223  0.1913 -0.1236
92782W        W93646  28.282   9.872   2.529 -0.1349 -0.3733  0.0779
92783W        W93647  15.213  20.193  10.329  0.2699 -0.2035 -0.0543
92784W        W93648  21.798  16.717   7.856  0.2109  0.0820 -0.0699
92785W        W93649  25.459  26.592   7.274 -0.2259 -0.1028  0.0465
92786W        W93650  13.147  25.080  28.002  0.0732  0.2539 -0.0090
92787W        W93651  25.227  21.464   6.346  0.0785  0.1518 -0.0765
92788W        W93652  22.602  17.892   9.619 -0.2935 -0.0633 -0.0466
92789W        W93653  19.878  27.761   3.388 -0.1974  0.1374  0.0517
92790W        W93654   8.688  25.499   3.513 -0.1316 -0.2347  0.0371
92791W        W93655   0.134   8.912  14.659 -0.1359 -0.1533 -0.1134
92792W        W93656  13.767  26.988  24.058 -0.0137  0.2466  0.0378
92793W        W93657  16.764   8.159  28.275  0.0089 -0.1040 -0.0515
92794W        W93658  17.093  15.342   5.000  0.0132  0.2985 -0.3389
92795W        W93659  20.175  26.178  27.791  0.1316 -0.0966 -0.1081
92796W        W93660  23.613   2.881   6.013  0.3271  0.0358  0.0307
92797W        W93661  26.752   1.144  11.964 -0.1546 -0.1312 -0.0465
92798W        W93662  10.327   3.905  10.712  0.0352 -0.0731  0.1492
92799W        W93663  17.841   0.419  26.716  0.0779 -0.1974  0.0093
92800W        W93664  13.391   1.420   5.778  0.1038  0.0747  0.1397
92801W        W93665   6.458   5.520   7.666 -0.1529 -0.1571 -0.0532
92802W        W93666  23.118  27.163   6.783 -0.3563  0.0497 -0.3276
92803W        W93667   2.109  17.679  22.083  0.4677 -0.0796  0.0478
92804W        W93668   6.782  11.887   2.541  0.0498 -0.1501  0.2940
92805W        W93669  20.677  16.669  19.953 -0.0652 -0.2883 -0.1114
92806W        W93670   8.068  21.569  26.540  0.1792  0.1333  0.2014
92807W        W93671  25.473  10.731   7.946 -0.1953  0.1185  0.1491
92808W        W93672  27.526   2.100  21.779 -0.0185 -0.0115  0.2652
92809W        W93673  21.148  24.695  26.276 -0.1580  0.0493 -0.0041
92810W        W93674  25.539  25.708   5.225 -0.0672 -0.1004  0.0365
92811W        W93675  23.424  16.615   1.680 -0.1024 -0.0961 -0.2087
92812W        W93676  20.498  24.226  27.957  0.0501  0.0347 -0.1092
92813W        W93677   6.698   7.847   6.186  0.1061 -0.1617 -0.0020
92814W        W93678   4.518  22.960  18.255  0.1883 -0.0591 -0.2366
92815W        W93679  23.971  13.720  15.553 -0.2871  0.0678 -0.1448
92816W        W93680   4.880   1.600   8.816  0.0860  0.3221 -0.0801
92817W        W93681  17.264  25.868  25.662  0.1664  0.0408  0.3389
92818W        W93682  21.339  23.797  10.700  0.1524 -0.2475 -0.1931
92819W        W93683  22.646   9.099   5.992  0.1510 -0.7778 -0.1525
92820W        W93684   5.037  18.168  26.573  0.1620  0.2526 -0.1731
92821W        W93685  21.523  26.519  27.106 -0.0400  0.0737  0.0452
92822W        W93686  19.377   0.990  10.960  0.2605 -0.3096 -0.0029
92823W        W93687  23.559  16.927  21.453  0.1412 -0.2062 -0.1484
92824W        W93688   6.222  14.614  25.170  0.3069  0.0685  0.0290
92825W        W93689  23.094   9.186  12.280 -0.1456  0.2039 -0.0248
92826W        W93690  13.786  15.478   1.959 -0.3644  0.0714  0.1727
92827W        W93691  13.126  21.935  15.742 -0.0063  0.1713 -0.0449
92828W        W93692  10.894  25.173   0.992  0.0638 -0.0224  0.1738
92829W        W93693   4.737  22.625  25.254 -0.2841 -0.1347 -0.1829
92830W        W93694  10.164  27.900  17.893 -0.1233 -0.0556 -0.0778
92831W        W93695   5.269   3.063  14.716 -0.2139  0.1846 -0.1513
92832W        W93696  24.073  16.911  21.184  0.1308 -0.4475  0.1335
92833W        W93697  25.408  19.145  11.607  0.0553 -0.0325 -0.1347
92834W        W93698  18.694   0.254   8.247  0.0498  0.1608 -0.0207
92835W        W93699  25.538  13.926   8.067  0.1053  0.3548  0.0891
92836W        W93700  28.427  23.680  26.307  0.2087 -0.1971  0.2860
92837W        W93701  24.953  26.558   5.193  0.0608  0.1804  0.0980
92838W        W93702   0.619   8.694   6.127  0.2577 -0.5162  0.1663
92839W        W93703  18.740  18.988  25.786 -0.0515  0.1059  0.1264
92840W        W93704  10.907   9.109  21.568  0.2270 -0.2385  0.0618
92841W        W93705  18.054  18.432   0.630 -0.0448  0.1519 -0.0003
92842W        W93706  27.620  21.714  18.470  0.0591  0.3898  0.0143
92843W        W93707  22.985  12.203  20.017 -0.0214  0.2186  0.0434
92844W        W93708  27.256   7.450  11.583  0.2294  0.0294  0.1723
92845W        W93709   5.673  26.167  12.290  0.1032  0.0003 -0.0658
92846W        W93710  14.687   8.954  10.535  0.0281  0.1899  0.0231
92847W        W93711   0.733   4.421  17.007 -0.2098  0.1062  0.0330
92848W        W93712  24.782  12.299   8.810  0.2357 -0.0272 -0.1106
92849W        W93713  18.591  20.791  10.082 -0.1719  0.1344  0.1951
92850W        W93714   4.260   6.665  28.255 -0.1489 -0.3661 -0.1863
92851W        W93715  24.714   8.999   8.973  0.3217 -0.0518 -0.1028
92852W        W93716  17.129  15.034   8.811  0.0192 -0.1358 -0.0017
92853W        W93717  20.816  11.718  10.681 -0.1256  0.1148  0.1062
92854W        W93718  21.333   4.140  10.050 -0.0518  0.1362 -0.2304
92855W        W93719  12.197  20.563  22.855  0.0529  0.1454 -0.1857
92856W        W93720  26.638  26.141  10.270 -0.2458  0.1038 -0.0090
92857W        W93721  22.597  17.081   0.263  0.0809 -0.1436  0.0948
92858W        W93722   3.768  18.944   9.573  0.2458 -0.1340  0.2040
92859W        W93723   6.694  17.164   1.786 -0.3848 -0.0410 -0.2735
92860W        W93724  27.496  19.517  19.482  0.0335 -0.1933  0.1025
92861W        W93725  22.051  22.120  27.958  0.0083 -0.0710  0.3920
92862W        W93726  22.869   1.889   9.820  0.2615  0.2289  0.1386
92863W        W93727  17.808   8.847  16.666 -0.2763 -0.0277 -0.0447
92864W        W93728   6.993  21.994   3.113 -0.0761  0.1158 -0.1120
92865W        W93729  16.155   0.720  24.445  0.0495  0.1436 -0.0766
92866W        W93730  22.791   4.092   1.708  0.1306  0.1532  0.4354
92867W        W93731  21.675  15.777  13.490 -0.2966 -0.0718 -0.3533
92868W        W93732   9.517  14.146   5.231 -0.1771 -0.3149 -0.4980
92869W        W93733  28.151  12.112   1.999  0.3351 -0.1318  0.2282
92870W        W93734   0.538  25.710  25.096  0.0019  0.0801 -0.1637
92871W        W93735  14.365  17.493   2.945 -0.0872 -0.1570 -0.0134
92872W        W93736  26.511  24.631   4.047  0.0354 -0.0724  0.0885
92873W        W93737  28.446  21.806   6.809 -0.1350  0.2609  0.2997
92874W        W93738   9.009  15.581   6.631  0.0524  0.0552  0.2282
92875W        W93739   2.598   6.864  10.160 -0.1523 -0.0695 -0.1482
92876W        W93740  22.211  23.421  24.785  0.0377 -0.0408  0.4327
92877W        W93741  14.016  21.249  16.339  0.4727 -0.4527 -0.1955
92878W        W93742  23.724  14.428  10.830 -0.2345 -0.3235 -0.2868
92879W        W93743   7.256   2.075  15.148  0.0813 -0.3448  0.4154
92880W        W93744  20.895  11.008   6.204 -0.1118  0.2623  0.0236
92881W        W93745  27.861  21.149   5.327  0.2310 -0.1484  0.3576
92882W        W93746  14.992  14.595  17.280  0.0434  0.1592  0.0057
92883W        W93747  25.853   9.802  10.871 -0.0910 -0.0649 -0.1097
92884W        W93748   7.237  15.862  24.075  0.1359 -0.0198 -0.0455
92885W        W93749   3.497  16.766  12.995 -0.2322  0.3542  0.0178
92886W        W93750   6.946  26.117  28.205  0.2329 -0.0126  0.0639
92887W        W93751  19.284  17.803  14.424  0.0160  0.0592 -0.0908
92888W        W93752  27.880  17.590   5.947 -0.2050  0.0834 -0.3268
92889W        W93753  22.921  11.947  14.075  0.1573  0.1187 -0.0516
92890W        W93754  28.333  21.494  15.650 -0.0071  0.2123 -0.0267
92891W        W93755  24.869  25.235   4.078  0.4033 -0.2173 -0.0237
92892W        W93756  23.222   3.717   1.928  0.0331 -0.1636  0.1230
92893W        W93757   9.841   3.165   7.213 -0.2865  0.1737 -0.0081
92894W        W93758   8.630   4.732  24.860 -0.0176 -0.2316 -0.3192
92895W        W93759  23.612  17.462  20.609 -0.2423  0.2130 -0.2658
92896W        W93760   6.899  12.516  20.459 -0.1121  0.0634  0.0469
92897W        W93761  14.200   8.236  16.004  0.1642  0.1336  0.1111
92898W        W93762  15.269   2.798  11.831 -0.1036 -0.3453 -0.2180
92899W        W93763  24.910  26.021  15.008  0.0774 -0.0108 -0.1879
92900W        W93764  27.827  22.018  16.519  0.1002  0.0060  0.1487
92901W        W93765  26.460   8.335  10.885 -0.1858  0.1135  0.0379
92902W        W93766  23.374  10.492   9.808  0.0428 -0.2491  0.2106
92903W        W93767  13.546   1.052  11.118 -0.3748  0.3891 -0.0100
92904W        W93768   0.974   3.276  26.326  0.1791  0.1451 -0.1724
92905W        W93769   4.198   1.725  18.022 -0.0110 -0.1144  0.2653
92906W        W93770  26.400   6.133   3.904 -0.0998  0.2069  0.1350
92907W        W93771  10.807  26.456   3.951  0.1762 -0.0790 -0.0005
92908W        W93772  27.739  27.886  10.078 -0.3541  0.0716  0.0353
92909W        W93773   7.193  14.865  17.510 -0.3237 -0.1254  0.0419
92910W        W93774   7.233   4.342  14.648  0.0403  0.1446  0.2355
92911W        W93775   1.358  13.806   5.487 -0.2323 -0.0339  0.2594
92912W        W93776   9.980   0.053  13.769  0.0809  0.1512  0.0647
92913W        W93777  22.041  20.659  25.422  0.1340 -0.0577  0.0612
92914W        W93778  12.050   7.799  14.039  0.0087 -0.1898  0.0852
92915W        W93779  24.893  29.022  15.926  0.1519 -0.2878 -0.3599
92916W        W93780  14.814  10.443   6.335  0.1643  0.0175  0.1455
92917W        W93781  17.329  17.730   4.707 -0.0968 -0.3342 -0.3315
92918W        W93782   5.471   5.348  13.461  0.0155  0.4111 -0.3287
92919W        W93783  18.915   4.989  12.205  0.2868  0.2658 -0.0188
92920W        W93784   7.377  13.433  20.367 -0.1753 -0.3014 -0.2564
92921W        W93785  11.834  15.413  12.682  0.2222 -0.2065  0.1478
92922W        W93786  24.267   0.344  10.250 -0.0782 -0.2305 -0.1935
92923W        W93787  23.260   1.487  11.080  0.1078  0.0006 -0.2779
92924W        W93788   9.700   9.915   1.292 -0.0029  0.1230  0.0710
92925W        W93789  28.484  17.982  24.227  0.0716  0.0417 -0.2274
92926W        W93790   6.269   3.319  10.731  0.4660 -0.1730 -0.5022
92927W        W93791   7.238  21.652  24.556  0.0101  0.0895  0.2559
92928W        W93792  16.208  16.378   6.321  0.1288 -0.1318 -0.1926
92929W        W93793  11.558  13.182   6.741 -0.1723 -0.0796  0.2105
92930W        W93794   8.899  14.263  16.629  0.0741  0.2191  0.2137
92931W        W93795  10.152  17.123   5.074  0.0970 -0.0395 -0.0274
92932W        W93796   0.313  17.218  21.457  0.1335  0.0479  0.5724
92933W        W93797   1.795  11.684  12.184  0.0825 -0.0574 -0.4289
92934W        W93798  17.568  15.224  15.982 -0.0730  0.1501  0.1079
92935W        W93799   6.835   8.405  24.171 -0.4072 -0.0910  0.4771
92936W        W93800   2.379  15.836   3.808 -0.0249 -0.2519  0.1020
92937W        W93801  26.144   7.913  15.159  0.0832 -0.0157  0.3341
92938W        W93802   4.664   0.752  12.891  0.0695 -0.1196  0.1756
92939W        W93803   3.978  24.417  27.206 -0.3650 -0.0338  0.2716
92940W        W93804  17.847  26.335  17.518  0.0870  0.0123  0.1662
92941W        W93805   3.287   7.607  10.179 -0.0512  0.0075  0.1782
92942W        W93806   0.555  12.589  21.119 -0.0402  0.0428 -0.2391
92943W        W93807  16.300  13.444   7.204  0.1105  0.2686  0.0393
92944W        W93808  16.377  10.109  15.598  0.0293  0.2097 -0.1875
92945W        W93809  24.206   0.242  13.187  0.1654  0.2503  0.1319
92946W        W93810   1.650  16.975   8.842  0.2152  0.0902 -0.0602
92947W        W93811  24.672  12.680   3.727  0.2652 -0.4947  0.1185
92948W        W93812  13.552  15.836  22.267  0.0007 -0.1171 -0.3446
92949W        W93813  13.311  15.386   8.960  0.2437  0.1233 -0.0257
92950W        W93814  21.473  25.630  13.186  0.0745  0.0220 -0.0985
92951W        W93815   9.845  13.606  17.313  0.1699  0.2717  0.1666
92952W        W93816  21.415  14.239  20.458 -0.0269 -0.1919 -0.1768
92953W        W93817  21.687  15.922   5.482  0.1421  0.0318  0.2772
92954W        W93818  24.248   0.326  10.827  0.1229 -0.1399  0.0874
92955W        W93819  15.502   9.968   1.561 -0.0206 -0.2155  0.0014
92956W        W93820  19.620  22.662  13.610 -0.1819  0.0616 -0.2125
92957W        W93821  26.516  20.815   2.114 -0.1430 -0.2778 -0.0787
92958W        W93822  11.447   2.393  19.987 -0.0051 -0.1163  0.1359
92959W        W93823  27.514  26.286   7.031  0.3973  0.3207 -0.0239
92960W        W93824  26.725  17.384   0.705 -0.0985  0.0755  0.3390
92961W        W93825   7.720   9.060   2.770  0.1674 -0.1292 -0.1495
92962W        W93826   9.678  23.235  10.845 -0.1629 -0.0097 -0.1548
92963W        W93827   7.597  25.028  15.791 -0.2024  0.0665 -0.0975
92964W        W93828  17.721  15.686   1.688  0.0718  0.1635  0.0888
92965W        W93829  26.586  14.792  28.791  0.0790 -0.0929  0.1256
92966W        W93830  16.137  20.982  16.864  0.0669  0.0952 -0.1439
92967W        W93831   9.879  17.377  11.060  0.0889 -0.0607 -0.1331
92968W        W93832  18.858  24.738  18.875  0.0550  0.0194 -0.5328
92969W        W93833  13.832   7.709  18.707  0.0391  0.1068 -0.2029
92970W        W93834   4.604   4.302  19.259  0.0284  0.1635  0.2414
92971W        W93835  10.712  16.373  17.892  0.1055 -0.1289  0.1873
92972W        W93836  21.799  19.664   7.816 -0.1177  0.1473  0.0105
92973W        W93837   8.127  14.275   7.120 -0.2075 -0.5365 -0.1428
92974W        W93838   9.089   3.040  18.981  0.0731  0.2480 -0.2613
92975W        W93839  12.901  18.038  13.418  0.1231  0.1706  0.0729
92976W        W93840  18.094  15.788  20.297  0.2154 -0.2018  0.0418
92977W        W93841  20.452  14.721  19.936  0.2377 -0.1148  0.0578
92978W        W93842  21.003  15.317  14.579 -0.1781  0.1912  0.1422
92979W        W93843  21.306  10.185  15.721  0.1233  0.0940 -0.1016
92980W        W93844  26.803   0.814  27.546  0.2180  0.1152  0.1223
92981W        W93845  18.747   1.129  21.793  0.4654  0.2685  0.1083
92982W        W93846   4.820  13.264  13.665 -0.0894 -0.2419  0.0535
92983W        W93847  20.952  26.895  26.489 -0.1225  0.1907 -0.0089
92984W        W93848   1.478  11.771  21.124 -0.4378  0.0423  0.2082
92985W        W93849   3.167  14.558  19.617 -0.1813 -0.1680  0.0542
92986W        W93850  21.413  18.018  27.505 -0.0460  0.0738 -0.0970
92987W        W93851  22.882   1.572   2.010  0.3087  0.0663  0.0245
92988W        W93852  21.777  21.686  11.602 -0.2548 -0.0719 -0.1109
92989W        W93853  11.110   6.060  22.577 -0.0523  0.2050 -0.0536
92990W        W93854  14.077  19.079   1.160  0.0028  0.1422  0.0563
92991W        W93855  10.678  21.044   6.952  0.3428  0.0362  0.0332
92992W        W93856  10.646  23.146   2.544  0.2700 -0.0476 -0.0730
92993W        W93857  19.657  17.972   9.653  0.1024 -0.0771  0.0567
92994W        W93858  26.578  22.168   2.771 -0.1762  0.2133 -0.0335
92995W        W93859   4.944  18.353  25.470  0.0466  0.0993  0.2044
92996W        W93860  27.720  19.578   8.636 -0.0580  0.0514 -0.2166
92997W        W93861   6.121   5.852  18.038 -0.0712 -0.4279  0.1718
92998W        W93862  16.270   6.434  22.617  0.0168  0.0443  0.0870
92999W        W93863   1.184  11.867  16.568  0.0732 -0.2761  0.2031
93000W        W93864   8.812  17.650  26.535  0.0057  0.0960  0.0974
93001W        W93865  28.376   4.942  28.444 -0.0559 -0.1106  0.2363
93002W        W93866   7.697   4.740  16.807  0.2619  0.2182  0.0623
93003W        W93867   5.759   8.200   1.352 -0.1229  0.1437 -0.0850
93004W        W93868  18.862  10.331  26.949  0.3672  0.0675  0.1586
93005W        W93869  22.493  25.576  27.662 -0.1845  0.0387 -0.2781
93006W        W93870  27.884  20.844  15.025 -0.7086  0.1560 -0.0662
93007W        W93871   3.604  16.691  14.625  0.0302  0.2203 -0.0770
93008W        W93872   6.923  13.540  24.525  0.1029 -0.1163 -0.1160
93009W        W93873  19.744  17.549  21.272  0.0613  0.1258  0.3374
93010W        W93874   8.115  15.279  20.075  0.0874  0.0395  0.2402
93011W        W93875  25.869   9.319  26.252 -0.0074 -0.2056  0.0598
93012W        W93876   8.106  14.275   4.766  0.1993  0.2270  0.2072
93013W        W93877  24.094  13.167  28.871  0.0196  0.1714 -0.0924
93014W        W93878  25.162  18.480  16.320 -0.1593 -0.1226 -0.1075
93015W        W93879  19.410  14.497   8.774  0.0736  0.2835 -0.1540
93016W        W93880   0.634   4.648  13.735  0.3200 -0.2747 -0.1025
93017W        W93881  23.775  14.631  25.402  0.1084 -0.1508 -0.2213
93018W        W93882  24.473  18.938  22.319  0.1029  0.0040 -0.1600
93019W        W93883  26.359  14.257  18.291 -0.0246  0.0985  0.0071
93020W        W93884  21.648  11.036   4.782  0.0179  0.0729  0.0057
93021W        W93885  11.015  12.590   4.236  0.0102  0.0011  0.2560
93022W        W93886   1.515  21.045  14.065 -0.2583  0.1951  0.0385
93023W        W93887   7.255  26.255   1.749 -0.2007 -0.1957 -0.0955
93024W        W93888  19.207  21.016   7.174  0.1052 -0.3107  0.0492
93025W        W93889   3.363  13.611  10.814  0.1653 -0.1662 -0.1636
93026W        W93890   1.601  17.912  21.150  0.2299 -0.2457  0.0483
93027W        W93891  20.727   0.036  12.047 -0.1865 -0.0867  0.0140
93028W        W93892  13.406   6.374   0.286 -0.1563 -0.2721 -0.3365
93029W        W93893  24.658  17.169  16.920 -0.0228  0.2276 -0.0072
93030W        W93894  19.752  20.589  16.733 -0.1226 -0.1775 -0.0692
93031W        W93895  27.372   6.427   3.759  0.1343  0.0133  0.0423
93032W        W93896  15.942  14.078  20.023  0.0706 -0.1965 -0.0333
93033W        W93897  22.501  22.467  25.520 -0.3046  0.0431  0.1564
93034W        W93898  20.114  18.349  25.120  0.4434 -0.0490 -0.0299
93035W        W93899  22.762  28.015  15.160 -0.0521  0.0275  0.0474
93036W        W93900  11.856  18.097   6.232  0.0228  0.0742  0.0731
93037W        W93901  25.806   6.561  11.089  0.2590  0.4665 -0.0032
93038W        W93902  19.916  21.070   4.989 -0.3150 -0.1838  0.1815
93039W        W93903  18.736   4.599  13.113 -0.0354 -0.0372  0.1280
93040W        W93904   9.891  10.519   6.101  0.0278 -0.0607 -0.2796
93041W        W93905  23.005   0.159  12.301  0.1315  0.3148 -0.0241
93042W        W93906  23.813  17.456   1.276  0.2787 -0.0796  0.0854
93043W        W93907  16.287   6.353   8.751  0.3007 -0.2551  0.0816
93044W        W93908  19.463  12.849  27.424  0.0742  0.1298 -0.0575
93045W        W93909   5.232  21.914  10.110  0.2277  0.0867  0.0578
93046W        W93910  19.141  22.368  27.689  0.4894  0.2241  0.1998
93047W        W93911   2.370  17.805  18.828  0.2442  0.2259 -0.0106
93048W        W93912   6.463  10.981  10.336  0.0058  0.1129 -0.1264
93049W        W93913  23.906   5.330  20.182 -0.4266  0.0940 -0.0918
93050W        W93914   9.395  11.455  12.904  0.1438  0.2370 -0.1417
93051W        W93915  28.782   7.090   1.427 -0.0258  0.1504  0.3537
93052W        W93916  13.446  23.331   9.051 -0.1094  0.0694 -0.4555
93053W        W93917  12.536  22.576  29.102  0.0348 -0.2130  0.2565
93054W        W93918  19.918  26.454  18.657 -0.0564  0.3731 -0.1880
93055W        W93919  28.310  14.810  10.157 -0.2160 -0.2331 -0.2025
93056W        W93920  15.114   5.256   2.043  0.0715  0.0482  0.3364
93057W        W93921  18.537  15.614  22.729 -0.0285 -0.2269 -0.0478
93058W        W93922  11.114  23.622  20.189  0.2457 -0.4594 -0.2570
93059W        W93923  19.293  12.340   4.342 -0.1099 -0.2201 -0.3702
93060W        W93924  11.072  23.230   3.872  0.2815 -0.1094  0.1663
93061W        W93925  12.150   5.471   8.737 -0.0031 -0.0756  0.0133
93062W        W93926   1.906   1.069   6.737 -0.0435 -0.1396  0.1108
93063W        W93927   5.540  27.788   3.952 -0.1384 -0.0310  0.0976
93064W        W93928   7.913   0.541  16.556 -0.1842  0.1478  0.2099
93065W        W93929   1.528  16.555   3.606  0.0422  0.0909 -0.1068
93066W        W93930   8.571   0.293  13.459  0.1063  0.0146  0.0210
93067W        W93931  26.113  26.982  28.773  0.2103 -0.0839 -0.0917
93068W        W93932  28.055  10.003  12.760  0.2183 -0.2423  0.3749
93069W        W93933  22.324  26.036  21.681 -0.0088  0.2364  0.1624
93070W        W93934  26.358   3.185  11.298  0.1763  0.1182 -0.1391
93071W        W93935  11.517   8.852  28.158 -0.1005  0.1242 -0.1752
93072W        W93936   5.458  14.756  27.163 -0.0129  0.0276  0.1583
93073W        W93937  18.468  12.920   2.591  0.4891  0.1438  0.0248
93074W        W93938   1.564  17.105  12.996  0.1025  0.0993  0.0552
93075W        W93939  13.845  26.474   9.616 -0.2024  0.0488 -0.0166
93076W        W93940   2.390  24.813  20.600 -0.1910 -0.1283 -0.0957
93077W        W93941   2.297   9.589   3.917 -0.0774 -0.3735  0.0752
93078W        W93942  10.679  14.389   4.654  0.1109  0.0461  0.0041
93079W        W93943  18.343   0.420   7.458  0.2854  0.0866  0.1366
93080W        W93944  13.102  14.578   0.532 -0.2173 -0.1579 -0.1206
93081W        W93945   3.324  16.581   7.774  0.0107  0.1455  0.0542
93082W        W93946  22.004  24.186   2.771  0.3614  0.0706 -0.0837
93083W        W93947  20.549   8.779   9.351 -0.2564 -0.0130  0.4105
93084W        W93948  13.334  27.099  19.753 -0.2899  0.2431  0.1086
93085W        W93949   8.075  24.275   5.455 -0.0648  0.0767 -0.2990
93086W        W93950   0.160  12.013  23.935  0.2878 -0.0960  0.0391
93087W        W93951   6.707   7.296   9.094 -0.0306 -0.3012  0.0128
93088W        W93952  25.346  17.793  17.727  0.2481  0.1111 -0.1453
93089W        W93953  15.755  23.124   8.459 -0.0056  0.1682 -0.2317
93090W        W93954  11.065  28.652  24.775 -0.1542 -0.0171  0.0555
93091W        W93955  24.323  18.840  19.671 -0.2003 -0.0007  0.0600
93092W        W93956  21.342  13.662  10.697  0.5942 -0.1720  0.1372
93093W        W93957  28.969  13.123   1.654  0.0324  0.1198 -0.1543
93094W        W93958  29.144  11.355  19.262  0.4272 -0.1836  0.1202
93095W        W93959  26.051   5.747   2.272  0.2071 -0.0990 -0.2154
93096W        W93960  21.375  28.784   8.893  0.1121 -0.2409  0.0626
93097W        W93961  11.454  18.672  11.878 -0.2469 -0.0960 -0.2503
93098W        W93962  17.445  10.562  28.070 -0.0655 -0.1082  0.2958
93099W        W93963  20.917  14.967   1.199 -0.0459  0.0150 -0.2995
93100W        W93964  15.843  18.429  13.834 -0.4730  0.1942 -0.1308
93101W        W93965  23.420  25.335  27.776 -0.1240  0.1028 -0.1323
93102W        W93966   5.912  27.356  22.335 -0.2710  0.2182  0.2217
93103W        W93967   7.793   9.174  21.422  0.0930  0.0487  0.1477
93104W        W93968   5.111  11.590  20.081  0.0139  0.4478  0.1312
93105W        W93969  26.318  12.239  12.282  0.1269  0.2548  0.0367
93106W        W93970   0.781  11.745  17.411  0.3237 -0.0165 -0.2705
93107W        W93971   8.278  19.456   3.217 -0.0598  0.4688  0.0757
93108W        W93972   2.911  23.586  13.278  0.1238  0.1395  0.0881
93109W        W93973   8.431  15.975  27.595 -0.2302 -0.1305 -0.2120
93110W        W93974  18.263  24.321  22.346  0.2109  0.1044 -0.3263
93111W        W93975   3.515  26.051   3.744  0.2255  0.0825  0.0283
93112W        W93976   3.685  13.215  17.520 -0.4877  0.1552 -0.2026
93113W        W93977   8.667  10.346  28.096 -0.4465 -0.1464 -0.2732
93114W        W93978   7.508  20.869  14.070  0.1042 -0.0367 -0.0118
93115W        W93979   9.957  14.634  14.558  0.1461  0.2002  0.0497
93116W        W93980   9.795   2.218  12.956 -0.1947  0.2807 -0.0594
93117W        W93981   6.654   2.254   6.225  0.0097 -0.2104 -0.1233
93118W        W93982   2.369  23.233  24.468  0.3647 -0.3640  0.0894
93119W        W93983   1.633  10.497  25.086 -0.1564 -0.0255  0.3925
93120W        W93984  11.171   1.849  12.894  0.1867  0.1811 -0.0826
93121W        W93985  26.318  27.862   2.539 -0.1844 -0.0722  0.0251
93122W        W93986  27.602   6.808   6.560  0.0635  0.0003 -0.2709
93123W        W93987  18.097  15.203  23.599  0.1071  0.2565 -0.0567
93124W        W93988  13.556  10.637  28.735  0.2377  0.0205 -0.2876
93125W        W93989   1.704  25.025  19.114 -0.0028 -0.0786 -0.0274
93126W        W93990  19.678  14.190   6.479  0.2494  0.0642  0.2065
93127W        W93991  12.881   3.168   4.367 -0.3181  0.1354 -0.1918
93128W        W93992  12.353   0.707   0.684 -0.0302 -0.1589  0.1065
93129W        W93993  27.882  20.278   9.721 -0.1040 -0.2108  0.1397
93130W        W93994  24.188  10.667   2.799 -0.0975 -0.2128 -0.0764
93131W        W93995  27.889  14.090  17.051 -0.5426  0.5517  0.1976
93132W        W93996   9.183  28.295  11.767 -0.1367 -0.1759  0.0843
93133W        W93997  26.308  28.718   6.519 -0.0081 -0.0209  0.2064
93134W        W93998   3.033   1.469  10.920 -0.2724  0.0095  0.0541
93135W        W93999  23.149  16.806   5.499  0.1092  0.0234 -0.1587
93136W        W94000  28.934  10.496   1.032 -0.1404 -0.0102 -0.1590
93137W        W94001   0.246  23.647   5.528  0.1825  0.0588 -0.2832
93138W        W94002  25.851   0.866  16.370 -0.3349  0.1998 -0.2332
93139W        W94003  17.350  25.647  12.547  0.1419  0.0145 -0.0759
93140W        W94004   3.741  17.686  15.985  0.1285  0.1369 -0.0217
93141W        W94005  15.208  17.768  26.029  0.2927 -0.0825 -0.2193
93142W        W94006  21.471  10.170  28.554  0.4032 -0.0080 -0.0062
93143W        W94007  18.905  11.454  10.064  0.3081 -0.0298  0.3733
93144W        W94008  20.579  16.715  22.872  0.2527 -0.0374  0.2379
93145W        W94009  21.492  18.878  14.090  0.0212 -0.1817 -0.1658
93146W        W94010  23.442  18.069  21.270  0.2801  0.0798 -0.1738
93147W        W94011  19.714  22.187  28.560 -0.2063  0.0141  0.0550
93148W        W94012  14.965   0.257  20.542  0.3751  0.0647 -0.1349
93149W        W94013  17.400  23.388  20.709  0.0879 -0.3356 -0.0914
93150W        W94014  22.503  14.223  12.101 -0.0316 -0.0740  0.1709
93151W        W94015  19.522  23.274  10.779 -0.1067  0.0655  0.1352
93152W        W94016  18.334  16.635   4.036 -0.0279  0.1677  0.0986
93153W        W94017  23.028  12.663  24.644 -0.0467 -0.3214  0.1519
93154W        W94018  12.858  21.407   9.872  0.1540  0.1178  0.0345
93155W        W94019  25.023  13.042   0.323  0.0266  0.0305 -0.1806
93156W        W94020  20.504  19.629  18.085  0.3566  0.0927 -0.0017
93157W        W94021   2.213   0.245   0.895  0.0685  0.0108 -0.1036
93158W        W94022   3.656  19.378  26.633 -0.1359  0.2856 -0.0811
93159W        W94023  21.848  27.319   0.693 -0.0198 -0.2654 -0.0489
93160W        W94024   5.541   9.423  22.202 -0.0355 -0.1321  0.1224
93161W        W94025   3.001   0.296   3.960 -0.2575  0.1962 -0.3334
93162W        W94026  25.752  13.000  11.148  0.1399 -0.1294  0.1292
93163W        W94027  16.564  20.440   9.934 -0.1014  0.0753 -0.1686
93164W        W94028  19.320  28.613   9.858  0.0673  0.3105 -0.1023
93165W        W94029   9.792  26.737  22.616 -0.1292  0.0224 -0.2736
93166W        W94030   5.800  10.326   7.003 -0.5297  0.0513  0.0798
93167W        W94031  14.516   8.401  16.534 -0.1629  0.3714 -0.0685
93168W        W94032  10.897  20.381   7.495  0.0795 -0.3996  0.5081
93169W        W94033  24.726  28.905   4.982 -0.0498 -0.1131  0.3852
93170W        W94034  24.932  12.110   9.860 -0.0236  0.1144  0.2667
93171W        W94035  10.464  13.483  20.597  0.0315 -0.1455 -0.1385
93172W        W94036  26.260  12.793  11.273 -0.5538 -0.2109  0.0836
93173W        W94037   5.482  21.198  13.515  0.0379 -0.2763 -0.0290
93174W        W94038  17.628  16.318  27.788 -0.1487 -0.3189  0.2257
93175W        W94039   1.747   6.261   2.908 -0.2710 -0.0595  0.4286
93176W        W94040   3.630  19.804   5.803  0.0458 -0.1793 -0.1510
93177W        W94041  27.034  26.701  15.440 -0.0358  0.2673 -0.0403
93178W        W94042  28.674  12.668  14.170 -0.1312  0.0603 -0.2575
93179W        W94043  17.319  13.100   3.977  0.2115  0.2063 -0.2049
93180W        W94044   3.779   8.983  21.429  0.1702  0.1341 -0.0966
93181W        W94045   0.288  16.830  26.573 -0.2587 -0.0697 -0.0272
93182W        W94046   6.802  15.691   7.648 -0.2194  0.3481 -0.0758
93183W        W94047   1.866   8.866  24.692 -0.0284  0.1299 -0.1733
93184W        W94048  25.383  16.894  28.741  0.0749  0.2003 -0.2151
93185W        W94049  26.545  20.117  19.572  0.4374  0.3269  0.0412
93186W        W94050   5.852   2.316  15.614 -0.2646 -0.3398 -0.1020
93187W        W94051   0.336  10.576   2.437 -0.0427 -0.0505 -0.1205
93188W        W94052  20.074   1.214  21.292  0.4495 -0.0767 -0.1938
93189W        W94053   8.999  18.081  22.449 -0.0366 -0.0609  0.0676
93190W        W94054   8.851  13.475  21.591 -0.0849  0.0989  0.0528
93191W        W94055   6.613   1.848  25.592  0.0350  0.1048  0.0610
93192W        W94056  13.491  24.564   3.748  0.0624  0.1122  0.1467
93193W        W94057   7.770  18.939   3.941  0.1627  0.0485 -0.3494
93194W        W94058  25.250  26.996   9.985 -0.1174 -0.0770 -0.1130
93195W        W94059  20.352   4.453  16.303 -0.0961 -0.2363 -0.0184
93196W        W94060  12.254  13.070  16.157 -0.1753 -0.0351 -0.0897
93197W        W94061   7.241   3.330  18.593 -0.2253 -0.1147 -0.1735
93198W        W94062  28.406  24.047  25.776 -0.1134  0.2026  0.3305
93199W        W94063  28.464  17.402  24.462 -0.1697  0.1996 -0.1744
93200W        W94064  28.694  26.989   8.985 -0.1500  0.1750 -0.1296
93201W        W94065  16.510  23.185   8.559 -0.2028 -0.0243 -0.1241
93202W        W94066   5.728   2.695   7.603  0.0069  0.0054  0.4262
93203W        W94067   5.233  25.455  18.100  0.1331  0.0663 -0.0888
93204W        W94068  17.559   0.813   0.337 -0.3258 -0.0268  0.0963
93205W        W94069  22.974  18.613  22.785 -0.1723  0.0837 -0.2626
93206W        W94070  18.738   5.200   6.814 -0.2438 -0.0191  0.1995
93207W        W94071  12.754  11.582  14.299 -0.2509  0.2323  0.1304
93208W        W94072   0.906   2.760   4.307  0.0340 -0.1370  0.0568
93209W        W94073   4.279  17.025  23.973  0.1600  0.0854 -0.1722
93210W        W94074   9.533  11.838   3.736  0.0813  0.0613 -0.2435
93211W        W94075  14.065  20.169  20.972  0.2357  0.1926 -0.0019
93212W        W94076   9.062  16.141  15.339  0.0542  0.2249 -0.2497
93213W        W94077   6.584  25.512  16.561  0.0985 -0.1805  0.2850
93214W        W94078  27.249  17.303  22.242 -0.1915  0.1758 -0.0403
93215W        W94079  28.512  10.674   7.455  0.3460 -0.0342  0.1275
93216W        W94080  10.448  17.043  12.748 -0.0780  0.4410 -0.0758
93217W        W94081   1.541  22.223  10.300 -0.2146  0.0462 -0.0941
93218W        W94082   0.393  19.106  13.324 -0.0031 -0.3629 -0.0404
93219W        W94083  19.241  23.891  17.861 -0.1321  0.0828 -0.2840
93220W        W94084  28.058  18.390  20.784  0.0863 -0.2413  0.1446
93221W        W94085  13.942   6.713  12.679  0.3273  0.2554 -0.1099
93222W        W94086  19.468  14.827  18.531  0.0072  0.0344  0.0576
93223W        W94087  27.631   5.302  25.189 -0.2428  0.0839 -0.1524
93224W        W94088  12.241   2.426  16.749 -0.0375  0.0819 -0.0309
93225W        W94089  27.595  28.340  21.886 -0.2388 -0.2244 -0.1264
93226W        W94090  23.091  23.933  11.620  0.1195  0.0372  0.1009
93227W        W94091  16.717   5.928   9.773  0.1838  0.0255 -0.0859
93228W        W94092  10.992  15.898  14.634 -0.1043  0.0981  0.0306
93229W        W94093   4.853  18.096  22.357 -0.0855 -0.1591 -0.0287
93230W        W94094  11.899  13.104  28.089  0.0845 -0.3825 -0.3360
93231W        W94095   0.778  11.620  20.286  0.1036  0.1347 -0.1192
93232W        W94096  22.411  24.596   6.006  0.1519  0.2441 -0.1296
93233W        W94097  24.784  24.378  17.956  0.0793  0.3280  0.0661
93234W        W94098   5.729  17.393  24.900  0.2048 -0.0191  0.0376
93235W        W94099   8.158  22.579   7.147 -0.2045  0.1037 -0.0129
93236W        W94100  16.953   6.221  12.184  0.0908  0.0029 -0.0866
93237W        W94101   8.257  21.526  13.961 -0.2973  0.4870  0.2124
93238W        W94102   3.459   6.307  20.102 -0.4317 -0.1804  0.3040
93239W        W94103   4.065  22.364  24.361 -0.0026 -0.0638  0.3322
93240W        W94104  28.685  19.641  20.810  0.1373  0.0286 -0.3245
93241W        W94105  12.752  19.982  17.256  0.0699  0.1920  0.3356
93242W        W94106  28.056  21.704  20.423 -0.1035  0.2388  0.0163
93243W        W94107   8.806  28.635  17.631 -0.0770  0.0162  0.2535
93244W        W94108  10.228  12.407   5.737 -0.2679  0.1029  0.3427
93245W        W94109  17.537  24.443  12.815  0.1369 -0.0702 -0.0008
93246W        W94110   1.493  24.134  21.150 -0.1210  0.1675 -0.1098
93247W        W94111  21.771  19.011   7.353  0.1858 -0.0135 -0.2312
93248W        W94112  28.774  14.977  21.746  0.2931  0.0866  0.0218
93249W        W94113  10.964   4.160  24.640  0.1053 -0.0050  0.0603
93250W        W94114   8.016  24.603   0.615  0.0739  0.0838  0.1842
93251W        W94115  22.204  13.750  27.127  0.2663 -0.2390  0.0269
93252W        W94116  24.085  14.918   3.212  0.3203 -0.1526  0.1785
93253W        W94117  22.081  27.568  18.818 -0.1365 -0.0558 -0.2280
93254W        W94118  11.291  23.805   5.321  0.0214  0.1794  0.0990
93255W        W94119  19.677   3.048  14.536  0.1236  0.2695 -0.0442
93256W        W94120  26.975   6.146   6.714 -0.4169 -0.1321  0.0898
93257W        W94121  22.325  12.161   6.111  0.2180 -0.1071 -0.2048
93258W        W94122  25.458   6.708  22.169 -0.0911 -0.0511 -0.0491
93259W        W94123   3.972  12.692   2.115 -0.4002 -0.2066 -0.2596
93260W        W94124  11.163  11.461   8.332  0.1930  0.0268  0.2075
93261W        W94125  12.016  27.094  13.022  0.0868  0.0959 -0.1059
93262W        W94126  14.773  16.198  13.173 -0.0439 -0.1185 -0.0890
93263W        W94127   1.980   7.196  11.861  0.0651  0.1449 -0.0754
93264W        W94128   1.290  17.042   3.591 -0.1428 -0.4254  0.1861
93265W        W94129  14.686  24.402  22.719 -0.0626  0.3426 -0.1042
93266W        W94130  19.342  25.612  19.834 -0.2141 -0.0174  0.0568
93267W        W94131  26.693  16.878  12.392  0.1740 -0.2283  0.0449
93268W        W94132   5.203  19.379  23.551  0.1529  0.1664 -0.2509
93269W        W94133  14.455  26.153   0.215 -0.1320  0.2726  0.0424
93270W        W94134  21.025  21.035  11.333 -0.0882  0.1528 -0.2212
93271W        W94135  13.613  26.090  20.707 -0.3093 -0.4012  0.1556
93272W        W94136  27.063  13.305   4.821 -0.1504  0.1633  0.1663
93273W        W94137  23.966  10.991  23.489 -0.0004 -0.0282  0.2018
93274W        W94138  20.328  28.085  17.373  0.1505 -0.2633 -0.4123
93275W        W94139   5.285   5.930   4.512 -0.0523 -0.1235 -0.0318
93276W        W94140   7.390  15.933   2.250 -0.2638  0.3215 -0.1555
93277W        W94141  10.717  27.365  16.542  0.0488 -0.1855 -0.2653
93278W        W94142   2.851   9.172   8.288 -0.0430  0.0841 -0.2361
93279W        W94143   5.915  17.280  13.986 -0.0558  0.2521 -0.0225
93280W        W94144  18.669  22.277   8.988  0.2179 -0.2390  0.0237
93281W        W94145  10.043   0.600  26.234  0.1401 -0.0182  0.2480
93282W        W94146   0.445  21.975   8.167 -0.2124  0.1997 -0.0496
93283W        W94147  18.785  25.769  21.048 -0.0632 -0.1417  0.1896
93284W        W94148  28.398  10.114  13.610 -0.3373  0.0866  0.1152
93285W        W94149  12.618  20.616   9.437  0.0059  0.1350 -0.1631
93286W        W94150  16.430  19.386   6.632 -0.0148  0.1378  0.0221
93287W        W94151  24.127   2.067  23.028  0.3187  0.2487  0.2945
93288W        W94152  28.785   8.476   7.378 -0.0455  0.4251  0.0541
93289W        W94153   8.881  15.908   3.499  0.0531 -0.0328 -0.2461
93290W        W94154  23.431  19.988  26.517  0.1788  0.0430 -0.1432
93291W        W94155   2.325  21.847  19.068 -0.0467 -0.3090 -0.1472
93292W        W94156  23.678  19.321  14.606 -0.0560 -0.2753  0.2859
93293W        W94157   9.876  10.060   1.731  0.2511  0.3689 -0.1444
93294W        W94158  18.335  11.397   9.907  0.0018  0.0610  0.1028
93295W        W94159  15.714   8.225  28.568 -0.1432  0.2737  0.0507
93296W        W94160   9.285   7.446  11.511 -0.1929 -0.0617  0.2502
93297W        W94161  13.229   5.546  22.867  0.1590  0.1586  0.0695
93298W        W94162  25.008   3.789   3.690  0.1973  0.2596  0.0893
93299W        W94163  21.121   5.525  17.638 -0.0378  0.2855 -0.0686
93300W        W94164  20.992  24.136   4.827 -0.1713 -0.2077  0.1172
93301W        W94165   0.619  20.146  14.547 -0.1691  0.2038 -0.0599
93302W        W94166  15.538   9.597  23.759 -0.1990  0.0498 -0.0747
93303W        W94167   0.241  22.955  22.797  0.4686 -0.0015 -0.0050
93304W        W94168  10.424  23.898  19.651 -0.1288 -0.3394  0.0759
93305W        W94169  20.482  10.546  21.961  0.0684  0.1396  0.1852
93306W        W94170  22.539   4.612  12.659  0.2927 -0.3023 -0.3756
93307W        W94171  19.879  11.553   0.036  0.3165 -0.0764  0.0007
93308W        W94172  16.671  22.677  17.338 -0.0247  0.0496  0.0653
93309W        W94173  18.388  15.645   9.993 -0.2734 -0.0415  0.0378
93310W        W94174   3.916  21.885  23.643 -0.0481 -0.0925 -0.0842
93311W        W94175  10.402  18.435  25.582  0.1320  0.0200 -0.0451
93312W        W94176   4.421  18.591   7.170 -0.0971 -0.3147  0.0001
93313W        W94177  20.419  18.898  20.086 -0.1295  0.2929 -0.1082
93314W        W94178   8.895  21.037  23.933 -0.3359  0.0022 -0.1968
93315W        W94179   4.553   5.812   8.115 -0.1523  0.3720 -0.2995
93316W        W94180  28.637   9.931  19.317 -0.0227 -0.0739  0.3186
93317W        W94181   4.829  18.886  18.699  0.0406  0.0186  0.2421
93318W        W94182   8.396  20.489  13.724  0.0687 -0.2004 -0.0173
93319W        W94183   3.173  28.031  26.447  0.0448 -0.4045  0.0408
93320W        W94184  23.900  11.179   9.590  0.4343  0.0223 -0.1938
93321W        W94185  23.921  24.951  10.315  0.1013 -0.0450 -0.0288
93322W        W94186  17.209   7.541  15.440  0.3795 -0.1375  0.0218
93323W        W94187   1.696   3.245  11.990  0.0971 -0.0186  0.1911
93324W        W94188  14.172  13.629  18.360 -0.2220  0.0677  0.2495
93325W        W94189   2.056  11.406  25.619  0.1986 -0.2471 -0.2452
93326W        W94190  29.070  15.812  13.632 -0.3120 -0.1829  0.2377
93327W        W94191  18.232   9.178   1.403 -0.2117 -0.3640  0.0143
93328W        W94192   7.122  18.018   9.698 -0.3877 -0.0164  0.2236
93329W        W94193   8.799  14.715  11.843  0.0212 -0.0428 -0.1893
93330W        W94194  13.800  21.926  11.976  0.0126 -0.0080  0.1536
93331W        W94195   7.849  13.463  12.995  0.2396  0.2247  0.2334
93332W        W94196  11.721   5.959   3.700  0.2846 -0.0292  0.1184
93333W        W94197  23.016  13.609  19.515  0.0296  0.0245  0.0815
93334W        W94198  28.119   1.180  27.915 -0.0065 -0.0346  0.0433
93335W        W94199  22.389   2.318  11.961  0.2548  0.5935 -0.0084
93336W        W94200  11.833  10.575  13.112  0.0715 -0.1660  0.2885
93337W        W94201  25.439  18.552   5.133  0.1064  0.0208  0.0205
93338W        W94202   3.330  28.917   3.377  0.0812  0.1465 -0.0167
93339W        W94203  10.518   2.676   6.762 -0.1351  0.2054  0.1647
93340W        W94204   1.151   4.093   5.382 -0.3572 -0.0132 -0.0591
93341W        W94205   7.902  23.609  27.111 -0.0193 -0.0042 -0.1051
93342W        W94206  21.472  18.582  24.440 -0.1286  0.2874  0.1573
93343W        W94207  19.550  20.347   7.580  0.0889  0.0555  0.0378
93344W        W94208  14.485  26.568  23.707 -0.3908  0.1345  0.0205
93345W        W94209   6.401  10.386  18.721 -0.1565  0.1422 -0.0173
93346W        W94210   8.973   9.426  28.234  0.1300  0.2387 -0.1351
93347W        W94211   1.300  12.457  26.889  0.0322 -0.0573 -0.1623
93348W        W94212   3.361  20.711  15.256  0.3401 -0.2529  0.3243
93349W        W94213  27.255  18.996  21.454 -0.1281 -0.1118 -0.1897
93350W        W94214  23.167   6.315   3.752 -0.1686  0.2388  0.1279
93351W        W94215  22.611  17.516  18.507 -0.1164  0.2539  0.2230
93352W        W94216   5.342  13.490  28.253  0.1420  0.2294  0.2748
93353W        W94217   9.123   0.020   4.252  0.1945 -0.0975 -0.0455
93354W        W94218   6.231  13.531  14.300 -0.3017  0.2421 -0.2463
93355W        W94219  26.020  24.799  22.027  0.1251 -0.1513 -0.2916
93356W        W94220  22.022   7.463   4.596 -0.0355  0.1734  0.0342
93357W        W94221  15.793  22.735  15.810  0.1235  0.0610  0.1050
93358W        W94222  22.419  14.964  28.811  0.1844 -0.0321 -0.1370
93359W        W94223  28.649   3.260   7.440 -0.1281 -0.0316  0.1373
93360W        W94224  11.680  13.764  20.609 -0.0984  0.0207  0.1232
93361W        W94225  26.567  13.049   0.357  0.0959  0.1586 -0.1037
93362W        W94226   3.936   5.979  18.356  0.0075 -0.1249 -0.0841
93363W        W94227  20.009  22.346  14.214 -0.1881  0.0049 -0.1201
93364W        W94228  20.636   2.556  20.801 -0.0875 -0.2553  0.0951
93365W        W94229  22.041  28.968   6.822 -0.0805 -0.0041 -0.0024
93366W        W94230   1.413   6.039   8.331  0.0960  0.2020  0.0852
93367W        W94231   7.029  15.232   3.382  0.1506 -0.1166 -0.0356
93368W        W94232  22.648   4.911   1.594 -0.1512  0.0230 -0.0103
93369W        W94233  17.921  18.540  17.090  0.2312  0.1206 -0.2129
93370W        W94234   3.759  16.735   6.270 -0.1701  0.1159  0.0195
93371W        W94235  23.405  21.181  21.033 -0.0256 -0.0689  0.1099
93372W        W94236  22.809  17.270  17.241 -0.0115 -0.2076 -0.3116
93373W        W94237  12.299  21.808  15.707 -0.0288  0.1602 -0.0954
93374W        W94238  22.436   7.067  17.113 -0.0350  0.0456  0.1674
93375W        W94239   1.937   8.708  26.286  0.0173 -0.1355  0.1828
93376W        W94240   2.480  24.843   1.775 -0.2279 -0.1710  0.0751
93377W        W94241  14.869   4.018  17.547  0.1876  0.0530 -0.2172
93378W        W94242  25.737  22.667   5.634  0.1881  0.0484 -0.3467
93379W        W94243  16.768  22.185  17.164  0.1164 -0.0542 -0.0779
93380W        W94244  12.875  15.955  22.856 -0.2248 -0.3332  0.5965
93381W        W94245   6.257  13.652  22.755 -0.1085  0.0913  0.1999
93382W        W94246  28.719  28.213   6.615  0.1139 -0.0373 -0.0457
93383W        W94247   3.705   6.322  26.762  0.3359  0.0522 -0.2403
93384W        W94248  17.533  16.645  12.023 -0.0412 -0.1259 -0.0530
93385W        W94249  26.026   0.087  23.181  0.0941 -0.0235 -0.0223
93386W        W94250  10.304  13.422   6.513  0.0879  0.0932 -0.1373
93387W        W94251   6.414   5.563  27.837  0.0637  0.1070  0.1913
93388W        W94252  15.489  15.337  24.545 -0.1752  0.2524 -0.0088
93389W        W94253   2.976   7.848  25.668 -0.1150  0.1978 -0.1462
93390W        W94254   2.849  25.773  17.040  0.0054 -0.1036  0.0208
93391W        W94255  21.197   9.822  14.078  0.0106 -0.3416  0.0513
93392W        W94256   4.721   6.798  22.633 -0.1728  0.1024 -0.1593
93393W        W94257   5.843   6.327  22.310  0.2485  0.1922 -0.1617
93394W        W94258  27.775  14.420  24.975 -0.0708  0.0942 -0.0018
93395W        W94259  15.825  20.209  12.805  0.2063 -0.0974 -0.0956
93396W        W94260  27.328  13.364  26.894 -0.1407 -0.0358  0.1400
93397W        W94261  28.082  12.356  13.645 -0.1834  0.1603  0.0895
93398W        W94262   5.500   0.319   7.526  0.1231  0.0818  0.0619
93399W        W94263   2.421  13.046   9.253 -0.1430 -0.1355  0.0245
93400W        W94264  25.366   0.613   3.372  0.2183 -0.0030 -0.1934
93401W        W94265  11.005  14.575   0.629 -0.2047 -0.0097 -0.3980
93402W        W94266  13.699  28.890  21.421  0.1055 -0.2784 -0.3283
93403W        W94267  14.630  15.470   1.725  0.0776 -0.3377 -0.3118
93404W        W94268  26.963   3.090   7.769 -0.2776 -0.0221 -0.0639
93405W        W94269  27.858  10.178  11.597  0.0740 -0.0526  0.0073
93406W        W94270  16.914   9.375   8.767 -0.0930  0.2002  0.2467
93407W        W94271  21.157   9.610  17.026 -0.2720 -0.2660  0.0687
93408W        W94272  14.772   0.916  26.757  0.4220 -0.0434  0.1064
93409W        W94273  19.491   1.252  14.675 -0.1107  0.1166  0.0438
93410W        W94274   7.364  22.675  14.809 -0.0099 -0.0833  0.0391
93411W        W94275  27.828   8.400  27.595  0.0474  0.0988 -0.1090
93412W        W94276  13.174   5.444  27.904 -0.0935 -0.0028 -0.0869
93413W        W94277  24.261  22.097  23.731  0.4105  0.0780 -0.0449
93414W        W94278  25.577  19.622  12.959 -0.0329  0.3075 -0.1006
93415W        W94279  21.366  22.299  10.675  0.3893  0.1813  0.2442
93416W        W94280   2.386   7.961  10.966 -0.0777  0.0472  0.1668
93417W        W94281  22.447  12.590   7.150 -0.0869 -0.0465  0.0360
93418W        W94282  10.509  17.884   8.093  0.0886 -0.0740  0.1205
93419W        W94283   2.896  16.824  13.781  0.2383  0.2416 -0.2864
93420W        W94284   5.290  12.457  11.791  0.2093  0.1743 -0.1395
93421W        W94285  20.548   1.563  21.228 -0.0110 -0.1939 -0.0359
93422W        W94286  21.592  18.525  12.523  0.2150  0.1549  0.0374
93423W        W94287  21.224  10.583  10.118 -0.1474  0.1085 -0.1707
93424W        W94288  16.631  25.091  11.994 -0.1292 -0.1419  0.1611
93425W        W94289  27.752   7.124  24.360  0.1193 -0.1637 -0.0383
93426W        W94290  25.007  20.693   8.971 -0.0442 -0.2192  0.0341
93427W        W94291   6.815  11.365  13.441  0.1399 -0.0601 -0.2948
93428W        W94292  24.859  17.292   8.342 -0.4101  0.3619 -0.0164
93429W        W94293  11.301  25.213  16.568  0.1476  0.0141  0.1151
93430W        W94294  17.312   5.092  24.139 -0.0365 -0.0385 -0.4040
93431W        W94295   2.045   0.709  13.823 -0.3510  0.4807 -0.1457
93432W        W94296   4.708   9.776  26.848  0.4606  0.2295 -0.1871
93433W        W94297  12.234  28.801  27.468  0.4191  0.1965 -0.4400
93434W        W94298  25.959  10.650  20.970 -0.0628 -0.0090 -0.2836
93435W        W94299  26.334  24.086  14.506 -0.3424  0.3104  0.4515
93436W        W94300   1.459  19.989   2.006  0.0296  0.0400 -0.1015
93437W        W94301   2.981  21.385  14.026 -0.0773  0.0364 -0.0034
93438W        W94302  23.806  10.655   1.390 -0.0539 -0.0219  0.0785
93439W        W94303  20.537  25.984  14.900 -0.2131  0.2568  0.2522
93440W        W94304   5.520   7.950  13.690  0.2324  0.0405 -0.0192
93441W        W94305  10.105   7.180  18.881 -0.0159  0.0489  0.2341
93442W        W94306   7.353  24.679  19.405 -0.0340 -0.1632 -0.1166
93443W        W94307  15.295  19.578   6.628 -0.2230 -0.1024  0.2307
93444W        W94308  27.832  16.723  17.461 -0.2280  0.3093 -0.1229
93445W        W94309  10.437  19.130  13.712  0.1595 -0.0228  0.1868
93446W        W94310  27.571   2.669  18.179 -0.0196  0.0285 -0.1422
93447W        W94311  12.608  25.706  10.681  0.0080 -0.3581 -0.3681
93448W        W94312   0.497  28.657   6.524 -0.0074  0.2338 -0.2646
93449W        W94313  24.730  12.030   8.364 -0.2329  0.0177  0.0576
93450W        W94314   9.800  14.735   4.363  0.0825 -0.1839  0.2320
93451W        W94315  14.778  10.259   7.273 -0.1995 -0.1151  0.3763
93452W        W94316  17.586   1.352   0.262  0.0350 -0.0900  0.0686
93453W        W94317  23.727   4.807  17.465 -0.1128 -0.3653  0.0359
93454W        W94318  26.549  20.800  26.873  0.2995  0.2786  0.0818
93455W        W94319   6.296  26.949  25.868  0.0682 -0.4166 -0.0669
93456W        W94320  10.427  23.330  22.927 -0.0303 -0.1567  0.3220
93457W        W94321  23.982  10.226   5.019  0.0713  0.1204 -0.1097
93458W        W94322   2.914  25.884   8.883 -0.0965  0.1898  0.0058
93459W        W94323  28.951  23.278   0.414  0.1793 -0.3925 -0.1858
93460W        W94324  26.539  22.558  23.260 -0.3012  0.0555  0.0676
93461W        W94325  12.968  26.749   4.041  0.0819  0.1869 -0.2701
93462W        W94326   0.663  11.507  10.832  0.0105 -0.1861 -0.1219
93463W        W94327   4.361  16.347   7.547  0.2094  0.2287  0.1391
93464W        W94328  28.961   6.375   0.579  0.0446 -0.1769 -0.1047
93465W        W94329   0.876  13.517   5.652  0.3778  0.2247  0.4563
93466W        W94330  13.851   6.761  16.759 -0.1532 -0.1605 -0.2559
93467W        W94331  23.949  22.125  28.684  0.0303 -0.1819  0.1418
93468W        W94332   9.647   6.465   4.815 -0.1885  0.2172 -0.1669
93469W        W94333   1.911  11.375  14.616  0.0467 -0.2838  0.0414
93470W        W94334   1.792  14.333  28.049  0.2866  0.3235 -0.0489
93471W        W94335  22.843  15.492  27.861 -0.0143 -0.1767  0.4307
93472W        W94336  12.827  22.173  19.597  0.0735 -0.1901  0.0254
93473W        W94337  21.408  20.312  17.543  0.0342 -0.0626 -0.0236
93474W        W94338  27.972   7.841   1.055 -0.0523  0.0639 -0.0556
93475W        W94339  25.094  15.159  15.087  0.1558  0.0395  0.0949
93476W        W94340  16.929  18.960   6.185  0.0911 -0.3428 -0.0403
93477W        W94341  28.448  12.373   7.544  0.2002  0.2057  0.0137
93478W        W94342  28.240  13.327  16.762  0.0071  0.1197 -0.1726
93479W        W94343   5.742   6.792  17.357  0.0596 -0.1164 -0.0706
93480W        W94344  25.717  13.356  20.319  0.4164 -0.1503  0.2138
93481W        W94345  18.798  23.477  23.055  0.0105 -0.0125  0.1187
93482W        W94346  19.496  18.068  16.639 -0.2472 -0.3027 -0.3435
93483W        W94347  13.099  20.446   9.614  0.2293 -0.1953  0.2036
93484W        W94348  15.399  16.446  11.726  0.1581  0.0991  0.1000
93485W        W94349  25.123  11.124  20.278 -0.2119  0.1108 -0.1430
93486W        W94350   8.894  11.475   9.059  0.3976  0.0422  0.1923
93487W        W94351   2.618  25.927  11.764 -0.1927  0.0456  0.2181
93488W        W94352  23.084   1.012   2.913  0.0785  0.3554 -0.2215
93489W        W94353  24.696   2.238  25.302  0.3163  0.0303  0.0147
93490W        W94354  11.436  19.337   2.210  0.1552  0.1791  0.1564
93491W        W94355   4.907  17.545  12.333 -0.1900  0.1422  0.0350
93492W        W94356   1.761  22.696  29.098 -0.2213  0.0340  0.0082
93493W        W94357   1.135  23.671   3.730 -0.0495  0.1774 -0.3589
93494W        W94358  10.595  12.162   7.169  0.0979 -0.2097 -0.0827
93495W        W94359  20.521   0.317  23.083  0.0275 -0.1301  0.0188
93496W        W94360   6.778  22.007  14.649 -0.2489  0.0923  0.2406
93497W        W94361  21.133  26.912   7.720 -0.3461  0.1029  0.1694
93498W        W94362  21.276  12.003  15.845 -0.1965 -0.0027  0.0702
93499W        W94363  26.379  19.605   1.777 -0.1750  0.0187 -0.2372
93500W        W94364  28.102  13.006   9.449  0.3001 -0.3736  0.3073
93501W        W94365  22.974  15.945   5.099 -0.1936 -0.2192  0.0169
93502W        W94366  15.240  12.434  17.203  0.0328  0.2230  0.0913
93503W        W94367   1.859  20.665  26.780 -0.0862 -0.0390  0.0118
93504W        W94368  21.174  27.407  21.066  0.1619  0.0224  0.0163
93505W        W94369  19.495  26.806  20.960 -0.2320  0.2491 -0.0114
93506W        W94370   8.234  13.892  11.905 -0.1905 -0.1671 -0.3447
93507W        W94371  22.205  16.633   3.196  0.2889 -0.2905 -0.0585
93508W        W94372  13.092   3.475   5.658 -0.0110  0.1150  0.0345
93509W        W94373  27.229   4.331  14.401 -0.0324 -0.0619 -0.0414
93510W        W94374  28.063  21.252  12.131 -0.1196 -0.0707  0.0115
93511W        W94375  16.579   0.794   5.447 -0.1805  0.0781 -0.1442
93512W        W94376   2.312  24.096  26.083 -0.0373 -0.1769 -0.0504
93513W        W94377  19.156   9.869   6.047 -0.0353 -0.0388 -0.2048
93514W        W94378  15.800  28.132   9.008  0.2770 -0.0142  0.1560
93515W        W94379  14.404   0.509  21.934 -0.0469 -0.0205 -0.2967
93516W        W94380  15.909  15.320  22.602 -0.1590 -0.1197  0.4308
93517W        W94381  18.376  29.031   4.618  0.0723  0.1196  0.2883
93518W        W94382   5.096  23.998   0.385 -0.1340 -0.1147  0.2121
93519W        W94383  25.482  27.894  26.870 -0.2933  0.0926  0.0436
93520W        W94384  22.839  25.512   8.473 -0.0285 -0.1487  0.2519
93521W        W94385  21.328  14.476  28.553 -0.1030 -0.2185 -0.0736
93522W        W94386  16.531  16.249  22.683  0.1672 -0.2233 -0.0750
93523W        W94387  11.234  25.104  27.592 -0.0339 -0.2332 -0.1416
93524W        W94388  28.833  21.393  18.226 -0.3429 -0.1176  0.1971
93525W        W94389  21.478   7.015  28.110 -0.0052  0.1234  0.0156
93526W        W94390  24.492  18.191  11.075 -0.2353 -0.2726 -0.0603
93527W        W94391  14.988  26.043  26.258  0.1179 -0.1863 -0.0845
93528W        W94392  10.328   1.399  22.691 -0.0095 -0.0934 -0.1562
93529W        W94393  15.586   9.928   4.901 -0.1989 -0.3167  0.1228
93530W        W94394   0.591  13.775  11.108 -0.1083  0.0382  0.0291
93531W        W94395   2.463  16.931  22.216  0.1466 -0.1362 -0.5172
93532W        W94396   4.758  16.516   4.766  0.0553 -0.1518  0.0071
93533W        W94397  20.843   6.592   0.013 -0.1797 -0.0559 -0.1716
93534W        W94398  11.300  13.907  25.143  0.0202  0.1571 -0.0855
93535W        W94399  25.024   1.753  11.751  0.2249 -0.0233  0.0345
93536W        W94400  22.890  24.414  10.891 -0.1372  0.3135 -0.2319
93537W        W94401   4.352  26.782  15.898 -0.2986  0.0570 -0.0502
93538W        W94402  20.397  23.241  12.549  0.2791  0.1395  0.1457
93539W        W94403  13.067   2.790  15.856 -0.1036 -0.0482  0.1292
93540W        W94404  12.697  24.628  23.001  0.0525  0.0752 -0.2390
93541W        W94405  16.738  25.647  17.937  0.2502 -0.2598 -0.0660
93542W        W94406   5.266  27.145  19.954 -0.1744 -0.1988  0.0989
93543W        W94407   2.023  17.820  12.967 -0.2827 -0.0362  0.1001
93544W        W94408  12.968  25.368  14.694 -0.1688  0.1005 -0.0469
93545W        W94409  27.328  27.253   9.791  0.1610 -0.0744 -0.4968
93546W        W94410   4.223   8.067  16.378 -0.2068  0.2938 -0.0474
93547W        W94411  13.437  25.158  12.451  0.0243 -0.3400  0.0552
93548W        W94412  10.767  22.560   9.759 -0.0885 -0.1176 -0.0134
93549W        W94413  16.652  19.551  11.473  0.3178  0.1722  0.0206
93550W        W94414  23.117  14.449  27.147 -0.2375 -0.1835 -0.1993
93551W        W94415  20.917  11.739  10.173 -0.1216  0.0638  0.2424
93552W        W94416  13.622  14.932  22.751  0.0662  0.3403 -0.1016
93553W        W94417  18.870   4.380  27.906 -0.3406  0.1434  0.3962
93554W        W94418  10.125  16.348  14.491 -0.1248  0.0341 -0.0473
93555W        W94419  10.648   4.330  10.662  0.1247  0.0623  0.3714
93556W        W94420  26.655   5.294  23.805 -0.1028  0.0169  0.1286
93557W        W94421   2.336  20.095  16.159  0.1663  0.1761 -0.4970
93558W        W94422   1.559   5.089  16.284 -0.4340 -0.2685  0.0313
93559W        W94423  18.900  12.920  20.168  0.2147 -0.0612 -0.0214
93560W        W94424  25.424  13.851   6.183  0.2481 -0.0029 -0.1224
93561W        W94425   1.311  10.447   5.713  0.0578  0.0925  0.0709
93562W        W94426  24.568  17.122   0.134 -0.1189 -0.3685  0.2821
93563W        W94427  19.499  14.170  18.657  0.1286  0.1144 -0.0575
93564W        W94428   3.738  26.701  12.554  0.0578 -0.0912 -0.0587
93565W        W94429   1.291  28.077  28.786 -0.0291  0.2137 -0.3342
93566W        W94430   9.058  24.568  19.651  0.4660 -0.2800 -0.0366
93567W        W94431  12.888  24.029   8.933  0.0923  0.2547 -0.1206
93568W        W94432  21.295  24.048  17.030 -0.0540 -0.1762  0.0572
93569W        W94433   1.283  10.699  24.796  0.0690 -0.0009  0.0654
93570W        W94434  17.531   1.559  15.744 -0.2154  0.0196  0.2723
93571W        W94435  19.074  19.895  16.321 -0.2800 -0.1163  0.1791
93572W        W94436  27.130  22.280  23.441 -0.0105 -0.1987 -0.2018
93573W        W94437  24.218  18.909  28.990 -0.1888  0.1176 -0.2916
93574W        W94438  23.043  15.099  14.851 -0.0041  0.2937 -0.2107
93575W        W94439   3.042  14.319  27.269  0.1780 -0.3263 -0.1030
93576W        W94440  19.414  22.963  14.556 -0.0562 -0.0104  0.3410
93577W        W94441  17.657   7.782  20.198 -0.0122  0.0167  0.0973
93578W        W94442  22.202  28.869  18.213  0.1147  0.1202  0.0553
93579W        W94443  13.711   9.149  22.919  0.0025 -0.2843  0.1405
93580W        W94444  15.300  18.224  10.717 -0.1722  0.1036  0.0436
93581W        W94445   1.395   9.420  14.025  0.3358 -0.0215 -0.1433
93582W        W94446   9.849   6.382  12.194  0.0357  0.1302 -0.1065
93583W        W94447  27.569  18.436   6.276  0.1050  0.0735  0.1431
93584W        W94448   2.530   4.192  10.610  0.0428  0.0021 -0.1194
93585W        W94449  28.619   2.921   2.590 -0.3816 -0.0576 -0.0177
93586W        W94450  23.398  13.105  11.008  0.3023  0.0899 -0.1302
93587W        W94451  18.701  27.147  20.566 -0.1868  0.2277  0.0915
93588W        W94452  18.093  28.020   0.364  0.2389 -0.0423 -0.1412
93589W        W94453  19.299   1.431  15.529 -0.0419  0.1130  0.2015
93590W        W94454  25.762  29.010  13.156  0.1549 -0.1211  0.1210
93591W        W94455  12.051  24.827  25.177  0.0438 -0.0602 -0.1977
93592W        W94456  14.610   8.172   5.814  0.0333  0.1453  0.1001
93593W        W94457  11.322  14.347  11.249 -0.3199  0.1051  0.4312
93594W        W94458  15.227   5.875  18.638 -0.2124 -0.1902 -0.0730
93595W        W94459   1.933  21.081  25.571  0.3359  0.0166 -0.0037
93596W        W94460  17.689  28.594   4.668  0.0465 -0.3215 -0.0557
93597W        W94461  19.226  22.923   1.878 -0.1843 -0.1603 -0.2020
93598W        W94462   0.574  10.372  12.877 -0.3292 -0.1223  0.1027
93599W        W94463  26.785   5.642   7.644 -0.3342 -0.2606 -0.1616
93600W        W94464   6.056  11.992   8.240 -0.3524 -0.2508 -0.3567
93601W        W94465  11.164  13.560   6.643  0.3396 -0.0121  0.0057
93602W        W94466  11.379   0.681  22.586 -0.1081 -0.0178  0.1961
93603W        W94467  25.779  22.207  25.974 -0.1135  0.0661 -0.2984
93604W        W94468   4.196  11.394  17.546  0.0010 -0.3154  0.1196
93605W        W94469  15.058   0.002   9.088  0.2706 -0.2667 -0.0008
93606W        W94470   2.918   5.377   6.235 -0.1961  0.1367  0.2498
93607W        W94471  24.294   2.220   5.736  0.1881 -0.0122  0.0173
93608W        W94472  28.967   8.306  15.294  0.2540 -0.3769  0.1191
93609W        W94473   6.709   4.879  12.164  0.2660 -0.0016 -0.3790
93610W        W94474  13.342  11.300   7.937 -0.1562  0.0850 -0.0574
93611W        W94475  28.484  17.216  20.108 -0.0161  0.2749  0.1553
93612W        W94476  28.613   3.348   6.423  0.0015 -0.0281 -0.0184
93613W        W94477   8.686  14.536  18.565  0.2663  0.3131 -0.0149
93614W        W94478   6.553  11.873  18.443  0.1301 -0.2320 -0.0125
93615W        W94479  26.908   9.133   7.758  0.1647 -0.2151 -0.1148
93616W        W94480  11.334   1.828  26.904  0.1490  0.1934 -0.1886
93617W        W94481   5.196   6.416   5.540 -0.1841  0.2133 -0.2053
93618W        W94482  28.596  27.409  17.406  0.0392  0.1206  0.4195
93619W        W94483   2.485   4.338  20.887  0.0803 -0.1707  0.4357
93620W        W94484  20.008   8.999  25.546  0.1218  0.0866 -0.0248
93621W        W94485   3.500   5.121  26.118 -0.0558 -0.1395 -0.0616
93622W        W94486  25.508  23.437  17.358 -0.2917 -0.0593  0.0140
93623W        W94487  24.308  13.080  15.567 -0.1670 -0.0942 -0.1193
93624W        W94488  25.701  22.380  13.193 -0.1760  0.2596  0.3700
93625W        W94489  15.198   1.147  18.104  0.0745 -0.1384 -0.0671
93626W        W94490   0.197  26.004  16.531 -0.4059 -0.0739 -0.0777
93627W        W94491  24.846  14.672  25.186 -0.0181 -0.0812  0.1863
93628W        W94492  26.114  24.137  19.268 -0.0647  0.0685  0.1162
93629W        W94493   9.042   9.052  18.740  0.0818 -0.0941  0.0955
93630W        W94494  18.470  20.464  18.124 -0.1043 -0.0674  0.3649
93631W        W94495   5.771  18.383  27.243  0.1399  0.2334  0.3243
93632W        W94496  25.765  24.339  28.814  0.0884 -0.2313  0.1616
93633W        W94497   0.541   9.965   5.177  0.0112 -0.1810 -0.0803
93634W        W94498   2.651  10.814  12.660  0.0881 -0.0605  0.1049
93635W        W94499   9.587  12.997  24.399  0.0044 -0.0705 -0.0386
93636W        W94500  13.014  17.901  17.977  0.1184 -0.1090  0.0622
93637W        W94501  11.486  23.398  12.017  0.0961  0.3145 -0.2089
93638W        W94502   5.112  18.907   0.408  0.0485 -0.0691  0.0447
93639W        W94503  12.765  11.889  21.208 -0.0698  0.1065 -0.1641
93640W        W94504  23.413  13.494  24.008 -0.0536  0.1866 -0.0908
93641W        W94505  25.475  15.630  15.408  0.0302 -0.5537 -0.0212
93642W        W94506  26.187   3.364  16.582 -0.4541  0.2312  0.2145
93643W        W94507  27.943  25.264   1.304  0.0829 -0.1978  0.0937
93644W        W94508  12.029  26.010   5.422  0.2548  0.1142  0.2146
93645W        W94509  17.051   5.196  11.071 -0.3062 -0.0387  0.2586
93646W        W94510   4.493  11.694   3.323 -0.2932  0.1304  0.2519
93647W        W94511  28.858  28.883  11.005 -0.1083  0.3240  0.2937
93648W        W94512   1.531  12.153  18.696  0.0716 -0.0274  0.3556
93649W        W94513  15.448   2.110  14.558  0.0877  0.0525  0.0829
93650W        W94514  24.065  26.630  17.162  0.2098  0.0239 -0.1150
93651W        W94515  21.433  19.677   4.202  0.0244 -0.0973  0.1288
93652W        W94516  10.006   8.393  10.893  0.1907 -0.2068 -0.2622
93653W        W94517   7.778  10.665  14.448 -0.0667 -0.0544  0.1624
93654W        W94518  28.436  20.446   4.932  0.1437  0.2458 -0.2244
93655W        W94519   9.060  20.420  26.648  0.0258  0.2082  0.1487
93656W        W94520  27.624   5.383   6.786  0.1477  0.1075  0.0135
93657W        W94521  19.990  11.981  14.941 -0.0541  0.0680 -0.1468
93658W        W94522  21.541   4.053  18.269 -0.3089 -0.0623 -0.1397
93659W        W94523  25.142  10.154  25.238 -0.1338  0.2885 -0.1279
93660W        W94524  12.883  16.389  28.365 -0.0893 -0.0683 -0.1625
93661W        W94525  17.573   5.080   5.145 -0.2100  0.1128 -0.0509
93662W        W94526   0.997  12.222   9.273 -0.0044  0.1377 -0.1939
93663W        W94527   4.265  17.940   0.524 -0.1096  0.0225  0.1242
93664W        W94528  24.868  15.054  21.395 -0.0903  0.0510  0.1015
93665W        W94529  19.243  22.050  11.395 -0.0943  0.1099  0.0482
93666W        W94530  25.082  27.542   3.253 -0.1421 -0.0058  0.1625
93667W        W94531  25.740  10.699  23.721  0.1611 -0.2493 -0.1356
93668W        W94532  14.406  19.821  20.052  0.3447 -0.0161  0.2494
93669W        W94533  14.260   1.196  23.606  0.0996  0.0367 -0.1542
93670W        W94534  16.399  12.574  10.382 -0.1569 -0.2594  0.2072
93671W        W94535  18.222  27.907  12.942 -0.2435  0.1369  0.0065
93672W        W94536  13.381  24.210  18.992 -0.3111 -0.2695 -0.1194
93673W        W94537   1.974  24.652  15.572  0.3101 -0.1395 -0.1194
93674W        W94538  20.068  16.429  28.452 -0.1719  0.0311 -0.0447
93675W        W94539  28.720  17.076  12.589 -0.2134 -0.1642  0.0231
93676W        W94540  24.865  22.815  23.964  0.0753 -0.1909 -0.0625
93677W        W94541  16.411   1.684   7.575 -0.0610  0.1410 -0.3494
93678W        W94542  26.740  23.640   5.749 -0.0600 -0.2482  0.2687
93679W        W94543   8.826  26.429   7.349 -0.0441 -0.1378  0.2441
93680W        W94544  25.301  15.338  11.455  0.0216 -0.3447  0.0067
93681W        W94545  24.485  17.573   5.597  0.0678  0.0395 -0.1683
93682W        W94546  21.493   3.807  20.759  0.1288 -0.2838 -0.2297
93683W        W94547  24.678   5.148  13.271  0.3288 -0.0694 -0.1057
93684W        W94548   8.089  14.316  13.448  0.0236  0.3212 -0.1772
93685W        W94549  23.917   5.396  16.237  0.0134  0.1459  0.0335
93686W        W94550  16.466  20.642  25.286  0.0372 -0.1676  0.2199
93687W        W94551  11.804   8.412   7.822  0.0515  0.2935 -0.4535
93688W        W94552  17.895  22.585  18.647  0.0553 -0.2804 -0.0312
93689W        W94553   1.891  27.638  18.631  0.0797 -0.2313 -0.1682
93690W        W94554   4.871  14.223   3.496  0.0103  0.0460 -0.2959
93691W        W94555   0.473  19.727  17.727  0.1678  0.0696 -0.0277
93692W        W94556  26.485  28.290  12.418  0.1103  0.0353 -0.0160
93693W        W94557   4.855   7.923   1.092  0.3232  0.1640  0.2738
93694W        W94558   7.301  20.776  20.461 -0.0499 -0.0282  0.2395
93695W        W94559  19.865  11.537  10.320  0.0074 -0.3362  0.0002
93696W        W94560   3.693  12.010  17.856 -0.1552  0.0118  0.1395
93697W        W94561  20.588   0.747  24.915  0.2871  0.1618  0.0192
93698W        W94562  25.185  14.898   9.897 -0.0297 -0.2031 -0.1668
93699W        W94563  20.853  20.324  14.764  0.0485  0.2950  0.1574
93700W        W94564   9.398   6.586  25.656 -0.1244  0.1772 -0.0928
93701W        W94565   6.096  24.184   3.448 -0.0072 -0.0080 -0.3448
93702W        W94566   8.881   6.281   1.957 -0.0667 -0.0827 -0.0274
93703W        W94567  27.286  16.590  21.667  0.3582  0.1635 -0.1153
93704W        W94568  15.639  15.334  17.454 -0.1146  0.3751 -0.1244
93705W        W94569   2.802   5.586  14.282 -0.0146 -0.0509 -0.0233
93706W        W94570   2.949  27.016  13.128 -0.2866 -0.0642 -0.3528
93707W        W94571  27.212  13.517  18.160  0.0869 -0.1377  0.0689
93708W        W94572  26.733  14.138  18.678  0.1163  0.1526  0.0624
93709W        W94573   2.792  10.644  20.491 -0.0425  0.1975 -0.0536
93710W        W94574  19.551  21.183  10.810  0.1356  0.2176 -0.0268
93711W        W94575  27.695  19.195  14.689 -0.4627 -0.0276  0.4074
93712W        W94576   8.183   7.145  10.894  0.1268 -0.2011 -0.0660
93713W        W94577   0.483   2.899  13.823  0.0167  0.2077  0.0433
93714W        W94578   5.082   9.322   5.837 -0.3366  0.2765  0.1827
93715W        W94579  25.187   9.213  13.469  0.1285  0.2148  0.1229
93716W        W94580   5.340  26.164   9.045  0.1396  0.3174  0.0496
93717W        W94581  28.164   6.520   0.941 -0.1950  0.0230  0.2180
93718W        W94582  16.641  10.936  17.750  0.0026 -0.1779 -0.0527
93719W        W94583  16.560  14.223  27.815  0.3297 -0.0874 -0.0302
93720W        W94584  17.426   7.592   7.603 -0.0548 -0.0054  0.1779
93721W        W94585   9.033  17.709   6.381 -0.3946  0.1656  0.0767
93722W        W94586  23.456   3.159  28.880 -0.0285 -0.2828  0.1447
93723W        W94587  11.743  27.595  23.159 -0.2471 -0.0168  0.0473
93724W        W94588  12.042  23.683   7.075  0.2742 -0.1651 -0.2385
93725W        W94589   6.868  23.207  28.265 -0.1217 -0.0730 -0.2881
93726W        W94590  22.953  27.769  22.004 -0.2375 -0.0544  0.1006
93727W        W94591  23.839  10.463  13.280 -0.0821  0.0433 -0.0454
93728W        W94592  14.325  21.375  28.454  0.1578  0.1144 -0.3811
93729W        W94593  29.008   1.485  24.866 -0.1337  0.2773 -0.1707
93730W        W94594   2.027  19.881  17.396  0.1348 -0.4351  0.0726
93731W        W94595   7.561  23.430  20.721  0.0331  0.0189 -0.0865
93732W        W94596   4.544  25.042  16.439  0.0466 -0.1848 -0.0661
93733W        W94597  26.483  25.486   1.048 -0.1157 -0.0727  0.1711
93734W        W94598  29.012  24.102   2.232 -0.0186 -0.1698 -0.1928
93735W        W94599  17.093  11.153   1.638  0.0415  0.0380  0.0027
93736W        W94600  19.571  14.887  28.510 -0.3360  0.1029 -0.1954
93737W        W94601  16.814  16.978  25.894 -0.1069 -0.0330 -0.0887
93738W        W94602   2.972  17.714  15.148 -0.3363 -0.0105  0.1706
93739W        W94603  15.034   7.135  12.200 -0.0809 -0.0765  0.0673
93740W        W94604   7.808  17.639  17.539  0.1521 -0.0727 -0.0720
93741W        W94605  16.702   1.196  20.849 -0.1683  0.0560 -0.2508
93742W        W94606  16.926  19.380   3.718 -0.0968 -0.0782 -0.0840
93743W        W94607  21.032  24.208   9.927 -0.1857 -0.0354 -0.0684
93744W        W94608  28.111   4.495  12.931 -0.0527  0.1042  0.0066
93745W        W94609   2.913  17.817   9.213 -0.0123  0.1514 -0.0695
93746W        W94610  28.061   8.053  22.063  0.1574 -0.2155 -0.0946
93747W        W94611   1.099  14.615  20.236 -0.0159  0.0294 -0.3678
93748W        W94612   7.149  25.001  16.073 -0.2437  0.1474 -0.2039
93749W        W94613  10.996   7.788  16.615  0.1283  0.2772  0.0945
93750W        W94614  19.915  18.718  12.640 -0.0412 -0.0044  0.2724
93751W        W94615  19.427   2.823  19.880 -0.1285 -0.1137 -0.2758
93752W        W94616   3.262  22.283   9.190  0.0392  0.0897  0.0489
93753W        W94617  28.240  28.605   3.933  0.3004 -0.0662 -0.1730
93754W        W94618  22.933   5.120  14.785  0.2284  0.0559  0.1395
93755W        W94619   7.280  24.605  13.844  0.1155  0.1226 -0.0091
93756W        W94620  24.465   5.538  11.431  0.1896 -0.1788  0.0011
93757W        W94621  17.336  12.177   9.229  0.0972 -0.1310 -0.3348
93758W        W94622  21.588  14.007  15.977  0.0449  0.3166  0.2579
93759W        W94623  23.168   2.000  18.982  0.2374  0.0923 -0.1443
93760W        W94624   7.377   4.138   4.623  0.0208  0.1547  0.0816
93761W        W94625  11.147  11.461  16.948 -0.0069  0.1034  0.2414
93762W        W94626   1.281  20.297  19.413 -0.2442 -0.0996  0.3687
93763W        W94627  20.262  17.958  12.999  0.0853  0.0501 -0.2200
93764W        W94628  28.831  27.583  22.792  0.0158 -0.1323 -0.0009
93765W        W94629  12.445  23.544   2.694  0.1845 -0.1847  0.1929
93766W        W94630   1.307  12.637  14.454  0.1306  0.2648  0.2347
93767W        W94631   7.336   5.218  18.398 -0.2826 -0.2162  0.1240
93768W        W94632   3.006  15.462   9.232 -0.1186 -0.1133  0.2456
93769W        W94633  23.184   7.986  21.076 -0.0322 -0.2431 -0.0291
93770W        W94634  21.251  22.945  28.807  0.3258  0.1683  0.1372
93771W        W94635  20.613  23.129  18.090 -0.0391  0.2006 -0.2351
93772W        W94636   3.124   5.941  19.950  0.1457  0.1470 -0.1262
93773W        W94637  19.479   3.047  23.260  0.3087 -0.0538  0.1695
93774W        W94638  22.742  18.180  24.915  0.1711 -0.0148  0.0249
93775W        W94639  10.340  19.784  19.388  0.0525  0.1692 -0.0196
93776W        W94640  18.057  23.847  20.020 -0.0692  0.1886 -0.6690
93777W        W94641  21.597  28.855   6.062  0.1239  0.0931 -0.0834
93778W        W94642  26.223  16.138  19.701  0.0332  0.1909  0.2393
93779W        W94643  28.498   0.292   7.559  0.2716 -0.0391 -0.1132
93780W        W94644  23.581  22.301   9.558  0.1807  0.0211 -0.1050
93781W        W94645  20.662   5.698   5.414  0.0630 -0.2044  0.0998
93782W        W94646  12.600  19.707   8.550  0.2790  0.1322 -0.0977
93783W        W94647  19.474  19.958   7.957  0.1655  0.0482 -0.2330
93784W        W94648   7.671   7.316  15.187 -0.2917  0.0433  0.2565
93785W        W94649   8.867  11.480  24.920 -0.1859 -0.0775 -0.1856
93786W        W94650  20.651  18.810  18.110  0.1367 -0.1261  0.4318
93787W        W94651  25.506  28.545   1.448 -0.3460  0.1689 -0.1340
93788W        W94652  28.568  13.324   8.226  0.0754  0.2067 -0.0890
93789W        W94653  28.672  17.511  26.482  0.1921 -0.1749  0.1986
93790W        W94654   3.617   2.897  13.151 -0.1855 -0.0811 -0.0197
93791W        W94655   9.003  18.845  22.824  0.0717  0.0664  0.1311
93792W        W94656  22.161  15.468  14.267  0.0485  0.0872 -0.0944
93793W        W94657  18.646  15.379  21.716  0.0723 -0.0029  0.2767
93794W        W94658  25.893  19.618   1.832 -0.0916 -0.0183 -0.2414
93795W        W94659   2.257  13.569  14.789  0.0038 -0.4378  0.2453
93796W        W94660  10.536  12.001  17.686 -0.0796 -0.1937  0.1699
93797W        W94661   6.121  25.217   9.639 -0.3649 -0.0653  0.1702
93798W        W94662  15.123  17.861   1.900  0.1999  0.0307  0.1730
93799W        W94663   0.939   8.982  28.299  0.0193  0.1211  0.2223
93800W        W94664  24.839  18.780  16.479  0.1468  0.0611 -0.2410
93801W        W94665  28.245  24.794  25.092 -0.0808 -0.2178  0.4117
93802W        W94666  11.857  23.389   9.923  0.1656  0.1097 -0.0592
93803W        W94667  13.858  17.929  13.493  0.1996  0.0875  0.0197
93804W        W94668  22.809  15.314  19.116 -0.1895  0.2010 -0.0415
93805W        W94669   1.667   9.267  16.634  0.2880  0.0130  0.0483
93806W        W94670  13.467  12.508  11.817  0.0460  0.0907 -0.3455
93807W        W94671  10.915  10.576  16.431 -0.3832  0.0516  0.0589
93808W        W94672  24.779  27.181  26.975 -0.4178 -0.0053  0.0246
93809W        W94673  28.391  17.184  13.154  0.1881 -0.1656  0.0227
93810W        W94674  24.948   8.443  21.184 -0.2019 -0.3671  0.2108
93811W        W94675  12.864  22.999   9.897  0.4135  0.2978  0.0183
93812W        W94676   7.224  12.984   8.416 -0.1737  0.1872 -0.2020
93813W        W94677  22.180   3.599  13.099 -0.2861 -0.3079 -0.2269
93814W        W94678   7.409   2.781   5.989  0.1609 -0.1348 -0.0835
93815W        W94679  25.416   8.576  16.749 -0.0804 -0.0459 -0.0483
93816W        W94680   2.893  21.544  14.652 -0.0012  0.2023 -0.0060
93817W        W94681  20.656  22.236  16.399  0.0572  0.2561  0.2883
93818W        W94682  16.594  14.151  14.193 -0.4286  0.1770  0.0476
93819W        W94683  20.222  25.804  14.584  0.0037 -0.3612 -0.0229
93820W        W94684   1.178  23.312   6.971 -0.1372  0.2613  0.1304
93821W        W94685  17.483  21.137  19.339  0.1185  0.2222 -0.1669
93822W        W94686  14.249  14.536   7.169  0.1957 -0.1093 -0.2799
93823W        W94687  13.147  17.064  16.162 -0.1795  0.0481 -0.1800
93824W        W94688  22.031  27.015   3.177  0.1802  0.1048  0.1176
93825W        W94689  22.701  14.821  12.968  0.1409  0.0912 -0.0367
93826W        W94690   3.725   9.318  28.157 -0.1936 -0.0948 -0.1295
93827W        W94691  18.309  25.411  15.098  0.0729 -0.2837 -0.3096
93828W        W94692  27.405  14.260   7.602 -0.0508 -0.2422 -0.0635
93829W        W94693   0.631   2.983  10.579 -0.3095  0.0414 -0.1665
93830W        W94694  21.750   9.363  22.091  0.1908  0.1229 -0.2659
93831W        W94695  28.793   1.627  19.941 -0.2678 -0.1589  0.1865
93832W        W94696  26.508  22.417  11.567 -0.0865  0.0874  0.1684
93833W        W94697  21.896  23.086  10.002  0.0080  0.3289 -0.0638
93834W        W94698  13.187  25.824  17.816  0.0633 -0.2866  0.0632
93835W        W94699   3.286  14.304  15.359  0.1581 -0.0262  0.2334
93836W        W94700  25.188  26.795  15.141  0.1222 -0.2266 -0.2936
93837W        W94701  18.989  25.755  10.455  0.0858  0.2018  0.1728
93838W        W94702   9.061  22.011  10.580  0.1407  0.1432  0.0301
93839W        W94703   8.935  18.534  20.431  0.1476  0.0417 -0.0471
93840W        W94704  17.433  21.733   4.173 -0.1229  0.0037 -0.1937
93841W        W94705   8.351   1.580   6.506 -0.0930  0.1841 -0.0218
93842W        W94706  20.209   9.295  24.430 -0.0329  0.1494 -0.1637
93843W        W94707   9.794  24.462  24.806  0.4023  0.2091 -0.0366
93844W        W94708  19.721  15.010  19.234 -0.0675  0.1782 -0.1697
93845W        W94709  11.085   2.488   6.320 -0.0541 -0.1643 -0.2212
93846W        W94710  14.044  13.181  18.961  0.0509 -0.0106  0.3820
93847W        W94711  20.643  17.971   2.341  0.2921  0.3885  0.3850
93848W        W94712  24.621  23.117  22.828 -0.0315 -0.1195 -0.2330
93849W        W94713  17.155  24.710   1.197 -0.0460  0.1616  0.0375
93850W        W94714  18.603  19.815   3.212 -0.1785  0.1730 -0.0324
93851W        W94715  11.471  16.699  14.946  0.1363  0.0544 -0.2447
93852W        W94716  24.012  10.305  27.021  0.4765 -0.1468  0.0176
93853W        W94717  21.257  23.141   5.624 -0.0803 -0.3196 -0.0376
93854W        W94718  19.211   0.944  21.861  0.0974 -0.1923 -0.0128
93855W        W94719  23.732  18.259  20.913 -0.0362 -0.2450 -0.3100
93856W        W94720  15.992  19.462   0.265  0.0172 -0.0215 -0.1989
93857W        W94721   9.276  15.575  20.509 -0.2936  0.1070 -0.1174
93858W        W94722  20.786  13.062  27.063  0.1102  0.1786 -0.0316
93859W        W94723   9.061  10.151   1.792  0.0285  0.2933 -0.2303
93860W        W94724  17.246  21.079   7.063  0.1214  0.0482 -0.1859
93861W        W94725   4.587  17.502  20.501 -0.4116 -0.2271 -0.3714
93862W        W94726  11.958  15.360   5.864 -0.1542 -0.3906 -0.0603
93863W        W94727  28.300  14.662  12.197 -0.1694  0.1700 -0.2033
93864W        W94728  25.479  17.323  22.544 -0.2051 -0.1524 -0.0491
93865W        W94729  13.881  13.144  25.296 -0.1035  0.0759  0.1419
93866W        W94730  13.241  15.745  23.214  0.1755 -0.1209 -0.0348
93867W        W94731   6.968  26.972   9.829  0.0563  0.0554  0.1306
93868W        W94732  24.722  14.011  11.327  0.1249  0.1376 -0.0457
93869W        W94733  16.527  13.047  26.149  0.0828  0.0399  0.1985
93870W        W94734   3.103  23.372  18.543  0.1506 -0.0320  0.3867
93871W        W94735  17.700   8.045  25.359 -0.2449  0.0308 -0.2949
93872W        W94736  22.949   5.539  23.808 -0.1277  0.0429 -0.0194
93873W        W94737  27.877  12.357  16.734 -0.0553 -0.0027  0.2435
93874W        W94738   1.744   7.879  16.686  0.0536  0.1398 -0.0637
93875W        W94739  21.793  18.073   0.961 -0.1258 -0.1127  0.0084
93876W        W94740  18.622  17.703  28.793 -0.1933 -0.2222 -0.3006
93877W        W94741   4.020   3.989  20.295 -0.0262 -0.0502 -0.2140
93878W        W94742   6.325   3.201   2.252  0.1309 -0.3573 -0.0857
93879W        W94743   3.426  22.971  23.770  0.0690 -0.3104  0.0062
93880W        W94744  18.039  11.923  19.101  0.1005 -0.2029 -0.1498
93881W        W94745  10.408  11.345  19.342  0.0306  0.3509  0.1868
93882W        W94746  16.521  19.165  11.096  0.0888  0.2103 -0.2425
93883W        W94747  16.705  14.767   8.007 -0.3293 -0.0261  0.2329
93884W        W94748  14.683  13.094  22.336 -0.2078 -0.5314  0.1159
93885W        W94749  22.700  20.295  10.711  0.0199  0.1340 -0.0210
93886W        W94750  20.228  28.519   5.404 -0.0594  0.1797  0.1650
93887W        W94751  18.096   7.546  20.370  0.0850 -0.3428  0.2951
93888W        W94752  17.769   1.623  28.517 -0.0267  0.0691 -0.0390
93889W        W94753  27.657  13.113   4.746 -0.1427 -0.2315  0.0646
93890W        W94754   2.921  26.331  20.643  0.2200  0.1801  0.2411
93891W        W94755   3.438   2.260   5.982  0.4299 -0.1500  0.0973
93892W        W94756  12.848  17.376  14.013  0.1549 -0.1023  0.0013
93893W        W94757  22.893   5.194  16.360  0.0257  0.2071  0.2945
93894W        W94758   7.400   8.687   3.747 -0.0881  0.4113  0.1166
93895W        W94759  15.418  18.787  14.325  0.2443 -0.4974  0.0937
93896W        W94760  15.041  25.845  15.296 -0.0283 -0.3984  0.0771
93897W        W94761   7.871  28.745  15.924  0.1643  0.2385  0.0435
93898W        W94762   5.839  24.949   5.986 -0.0814 -0.1564  0.2923
93899W        W94763  18.522  27.658  24.992  0.0845  0.1401 -0.1437
93900W        W94764  25.101  21.945  17.978 -0.0632 -0.2075 -0.1560
93901W        W94765   1.491   7.511  13.079 -0.1759 -0.0157 -0.3479
93902W        W94766  27.696  16.783  22.447 -0.1348 -0.1229 -0.1830
93903W        W94767  17.346   8.737   6.420 -0.1287 -0.2921  0.0307
93904W        W94768  15.485   3.069  20.187  0.0914 -0.4254 -0.1629
93905W        W94769  21.239  16.399   5.702 -0.1798  0.0194 -0.2355
93906W        W94770  15.929  25.135  11.456 -0.0015  0.0897 -0.3643
93907W        W94771  11.382   9.440   8.783  0.2611  0.0153 -0.2443
93908W        W94772   9.346   9.317   6.679 -0.0694 -0.0596 -0.1190
93909W        W94773  17.592   2.727   4.438 -0.1331 -0.2680 -0.2243
93910W        W94774  22.637  10.076  18.832  0.5227 -0.0783  0.4751
93911W        W94775  12.089  18.756  17.696  0.1202 -0.1598  0.1173
93912W        W94776  26.400  10.039   9.601 -0.2450 -0.0292 -0.0862
93913W        W94777  25.310   6.952   9.798  0.0968 -0.1777  0.2638
93914W        W94778  28.352  12.755  20.483  0.1718  0.2418  0.2072
93915W        W94779  28.404   6.123  18.171  0.2243  0.2211  0.1878
93916W        W94780  14.862  23.842   4.734  0.0446  0.0095  0.0103
93917W        W94781   9.441  24.875   3.162 -0.0587  0.2371  0.0783
93918W        W94782   3.812  10.438   5.200  0.2280  0.0302 -0.2589
93919W        W94783  14.176   0.307   6.588  0.1408 -0.2185  0.0806
93920W        W94784   7.926   5.138   4.660  0.3291  0.0482  0.1495
93921W        W94785  13.341   7.589   8.781  0.0964  0.2655 -0.0332
93922W        W94786  23.048   4.246   5.418  0.2795  0.1698  0.0000
93923W        W94787  21.586   9.976  28.095 -0.0006 -0.1152  0.0386
93924W        W94788  20.511  13.282  18.145 -0.0909 -0.2266 -0.0390
93925W        W94789  21.269   6.581   8.927 -0.1588 -0.1116  0.1314
93926W        W94790  14.848   1.422   9.103 -0.1006 -0.0919  0.1151
93927W        W94791  21.058  14.121   4.983  0.0173  0.3203 -0.1927
93928W        W94792  16.237  21.115  20.647  0.2609  0.2013 -0.1657
93929W        W94793  22.108   2.431  13.745  0.1611  0.0533  0.2371
93930W        W94794  22.211   3.432   5.996  0.3475 -0.3024 -0.2706
93931W        W94795  12.339   5.606   5.526 -0.0958  0.1756 -0.1857
93932W        W94796  14.894  14.791  25.261  0.2237 -0.0644  0.0982
93933W        W94797  28.539  20.778  23.445  0.0824  0.2040  0.3860
93934W        W94798   8.284  27.008  26.858  0.0400  0.2686 -0.3195
93935W        W94799   5.329  11.233  14.757 -0.0208  0.2078 -0.3305
93936W        W94800  27.227  21.347  18.766  0.0933  0.0912 -0.1946
93937W        W94801  19.316  17.005  24.138 -0.0811  0.0304 -0.2403
93938W        W94802  15.589  19.255   0.131  0.0335  0.0998 -0.0241
93939W        W94803  27.038   5.413   8.757 -0.0824  0.0305 -0.2067
93940W        W94804  28.087   8.231  15.372 -0.0736 -0.0865 -0.0926
93941W        W94805   5.336  23.428  19.374  0.2126  0.1525 -0.2502
93942W        W94806   1.709  20.166  14.239 -0.1305 -0.1508 -0.3610
93943W        W94807  27.337  19.277  25.859  0.1765 -0.2015 -0.1056
93944W        W94808  18.757  19.858  12.313 -0.0220 -0.2270  0.2711
93945W        W94809  12.624  22.911   4.760 -0.1390  0.2248 -0.2256
93946W        W94810   5.905  22.573  16.595  0.0097 -0.0631  0.1941
93947W        W94811  14.631  21.019  14.328  0.0247 -0.2165  0.2800
93948W        W94812   0.656  12.638  10.102 -0.1018 -0.1422  0.3455
93949W        W94813   0.661   9.451   5.117  0.4103  0.1162  0.1197
93950W        W94814   6.043  12.885  14.718 -0.0346  0.0934 -0.0607
93951W        W94815   9.146  14.455  15.709 -0.0069 -0.0435 -0.2768
93952W        W94816  16.295   2.933   4.616  0.0103 -0.2430 -0.0116
93953W        W94817  12.755   9.871   5.642  0.5468  0.3538 -0.0594
93954W        W94818   9.528   7.951  23.686  0.3630  0.1150 -0.0548
93955W        W94819  26.056  19.190  12.265  0.0778  0.2677  0.0635
93956W        W94820  15.236  24.477   7.294  0.2305 -0.0415 -0.0470
93957W        W94821   3.087  16.156  25.301  0.3346  0.3705 -0.1794
93958W        W94822   3.040  25.059  28.084 -0.1967  0.0505 -0.0469
93959W        W94823  27.707  27.110  19.249 -0.3049 -0.2876 -0.1020
93960W        W94824  27.811  19.392  11.095 -0.2948  0.1759  0.1634
93961W        W94825  29.143   8.654  18.264 -0.0689  0.1586 -0.0319
93962W        W94826   2.812  14.117   0.829 -0.3613 -0.4543 -0.1839
93963W        W94827  26.325  10.577  15.731  0.4314  0.0183 -0.1975
93964W        W94828  20.446   5.992  23.397  0.1998 -0.2968 -0.0395
93965W        W94829   6.002  19.947  18.347  0.0191  0.1378  0.0961
93966W        W94830  15.766  21.262  23.494  0.1220 -0.1267 -0.0290
93967W        W94831  10.403   2.384  17.097 -0.0996  0.2053 -0.2120
93968W        W94832  15.127   9.101   6.798 -0.3446  0.0550  0.0934
93969W        W94833  19.752  20.245  21.017 -0.0060  0.1433  0.0204
93970W        W94834  25.569  24.522  26.875  0.1398 -0.1519 -0.3177
93971W        W94835   0.843  14.749  21.826 -0.0847  0.1394  0.2071
93972W        W94836   5.665   5.103  25.511  0.1049 -0.0526  0.0033
93973W        W94837   0.602   1.385   6.963  0.1938 -0.0469 -0.2262
93974W        W94838   5.936   7.305   7.813  0.1005  0.2362  0.0095
93975W        W94839  22.917  12.308  13.230 -0.0175  0.3100 -0.0773
93976W        W94840  14.363  15.338  14.548 -0.3197 -0.0677  0.2594
93977W        W94841   5.122  11.852  15.969  0.0836  0.0242 -0.2940
93978W        W94842   0.868   2.505  28.003 -0.0886 -0.0327 -0.2759
93979W        W94843  15.371  16.611   6.448  0.1500 -0.1609 -0.4935
93980W        W94844  19.971  13.394  17.141 -0.1045  0.1509 -0.3738
93981W        W94845  16.827  18.132  13.683  0.0943 -0.0362 -0.1552
93982W        W94846   0.821   9.093  29.018  0.0778  0.2910  0.1626
93983W        W94847   1.414  24.854   7.929 -0.0944 -0.0978 -0.0521
93984W        W94848   0.493   3.169  12.958  0.1988  0.1140 -0.0159
93985W        W94849  17.402   4.170   9.924 -0.1413  0.2486  0.1228
93986W        W94850  21.731  25.927   7.167  0.3947  0.0566 -0.2534
93987W        W94851  16.920   9.634   4.833 -0.1080  0.0024 -0.4290
93988W        W94852   9.681  14.085   1.897  0.2439  0.0306  0.2665
93989W        W94853  24.948   2.721  25.236  0.0792  0.1963 -0.3437
93990W        W94854   7.617  20.819  24.903 -0.0535  0.0978 -0.3107
93991W        W94855  20.459  16.897  17.409  0.1095  0.0707  0.1615
93992W        W94856  18.356  28.586  19.846  0.2394 -0.1728  0.1904
93993W        W94857   5.999  23.870  22.641  0.4993  0.0954 -0.1810
93994W        W94858  14.512  27.001  19.683 -0.2104  0.1806  0.0946
93995W        W94859  22.419  18.427  13.465  0.2757 -0.2986  0.2863
93996W        W94860  21.421   1.261  11.661  0.0720  0.0149  0.1203
93997W        W94861  29.074   5.709   2.606 -0.0622  0.2623  0.0998
93998W        W94862  12.716  11.098  18.101  0.0461  0.0096  0.0251
93999W        W94863   3.433  18.129  19.643 -0.2497 -0.0207 -0.1361
94000W        W94864  12.751  24.249   7.506  0.1714 -0.1481  0.3562
94001W        W94865   7.699   5.153  15.666 -0.3134 -0.0705  0.3781
94002W        W94866   0.687   0.103  10.606 -0.2707  0.0732 -0.0195
94003W        W94867   1.356  24.578  20.877  0.2010  0.0489 -0.2680
94004W        W94868  27.986   9.586  20.903 -0.0772 -0.1597 -0.0824
94005W        W94869  19.435   7.411  14.300 -0.0495  0.2589 -0.3309
94006W        W94870   0.504  25.036  23.000  0.2363 -0.0668 -0.1334
94007W        W94871   0.079  13.274   8.802  0.1639  0.1122 -0.2299
94008W        W94872  11.220  16.706  24.024 -0.1632  0.1164 -0.0328
94009W        W94873   1.973  25.565  15.351  0.0775 -0.2320 -0.0448
94010W        W94874   5.370   3.625  14.688  0.1899 -0.1862 -0.3265
94011W        W94875   0.353  27.081   7.456  0.0414  0.1589 -0.2157
94012W        W94876  29.031  16.590  17.793 -0.3530  0.0900  0.2990
94013W        W94877   8.129  19.983  22.663 -0.1341 -0.0589  0.0190
94014W        W94878  22.645   1.906   2.264 -0.2577 -0.2404 -0.2215
94015W        W94879  10.204  15.396  12.406  0.4439 -0.0601 -0.1138
94016W        W94880  27.471  17.721  14.942  0.1413 -0.0522  0.0610
94017W        W94881  16.881  26.149  17.177 -0.6771  0.1115 -0.1053
94018W        W94882  28.831   6.955   7.596 -0.0931  0.1812 -0.1532
94019W        W94883  29.015  23.698  20.859 -0.1398 -0.0945  0.0000
94020W        W94884   8.815   6.397  20.339 -0.0665 -0.0991 -0.0568
94021W        W94885  21.305  13.484  23.069 -0.1309 -0.1115  0.0216
94022W        W94886  25.681   5.609   4.410  0.0941 -0.1724 -0.0242
94023W        W94887  13.854   3.130  23.785  0.1344  0.1343 -0.3310
94024W        W94888  24.658  26.133  12.421 -0.1092 -0.3181  0.0314
94025W        W94889  17.052  24.669   3.735 -0.0595 -0.0267 -0.1797
94026W        W94890   7.975  26.029  14.603  0.1164  0.0510 -0.1793
94027W        W94891  10.916  10.541  24.026 -0.1698 -0.3328 -0.0328
94028W        W94892  20.811   6.033  15.080 -0.0163  0.0188 -0.1017
94029W        W94893   2.744  11.052  19.841 -0.0653  0.0848 -0.0537
94030W        W94894   7.266  20.630  12.103  0.0327 -0.3026 -0.1321
94031W        W94895  28.363  19.733  19.064  0.1777  0.0380  0.2869
94032W        W94896   3.957  26.462  17.604 -0.0788 -0.0294  0.1462
94033W        W94897   7.021  14.084  22.170 -0.3025 -0.0273 -0.0303
94034W        W94898  10.816  16.280  10.104 -0.1916 -0.1952  0.0190
94035W        W94899  23.147  17.292   6.039 -0.0958  0.3254  0.1567
94036W        W94900   2.174  20.838  20.682  0.0920 -0.1005 -0.0084
94037W        W94901   8.139   3.719   4.437 -0.1774 -0.0583 -0.0881
94038W        W94902  26.424   0.571  23.902 -0.1390  0.0186  0.0062
94039W        W94903  27.498   4.346   3.170 -0.1294  0.0435  0.1328
94040W        W94904  27.916   4.722  25.298  0.0728  0.0455  0.1086
94041W        W94905  24.832  19.346  26.453  0.2484 -0.2040  0.0525
94042W        W94906  20.503   9.864   1.883  0.3888 -0.3001 -0.2472
94043W        W94907  26.742  25.733  20.159 -0.1700  0.3194  0.0450
94044W        W94908  16.633   9.646  14.703  0.1533  0.2791  0.0615
94045W        W94909   7.017  19.327   1.972 -0.0393  0.1944 -0.0960
94046W        W94910   3.449   7.591  17.957 -0.1077 -0.3431  0.2093
94047W        W94911  28.272  19.126   3.937 -0.3936 -0.1696  0.2104
94048W        W94912  24.595   4.619   3.396  0.1711  0.0474 -0.0637
94049W        W94913   7.916   7.837   3.767 -0.0430 -0.0459  0.3060
94050W        W94914   2.179   1.105  23.541  0.0924  0.1393 -0.0671
94051W        W94915   4.498  22.627  13.617  0.1298 -0.0364 -0.2629
94052W        W94916  25.937   0.415   5.081  0.3034 -0.1109  0.1554
94053W        W94917  23.650  27.287  10.631 -0.1191  0.1048 -0.1033
94054W        W94918  11.483  10.683  10.960 -0.2173  0.1325  0.0760
94055W        W94919  27.050  27.931  28.482 -0.2416 -0.3154 -0.1996
94056W        W94920  28.041   7.976   7.137 -0.0639 -0.1865  0.0510
94057W        W94921  11.866  23.349  25.975 -0.2243  0.1385 -0.0958
94058W        W94922  27.698  12.590  12.206 -0.0286  0.0506 -0.0952
94059W        W94923   9.968  21.517   1.957  0.0301  0.0202  0.0350
94060W        W94924   2.200   6.771   7.082  0.1926  0.2038 -0.1744
94061W        W94925   1.040  23.945  21.370 -0.3964  0.0201 -0.0634
94062W        W94926  18.618   8.771  11.894  0.1206 -0.2093 -0.0309
94063W        W94927  17.535  24.044  17.629  0.1219 -0.0523  0.1738
94064W        W94928   5.465  11.843  19.743  0.0989  0.3765 -0.1613
94065W        W94929  12.938  13.149   4.153 -0.0252  0.3367 -0.0602
94066W        W94930   7.074   3.129  12.674  0.3173 -0.2764 -0.0064
94067W        W94931  14.131  13.704  21.272  0.0799  0.0789  0.2355
94068W        W94932   7.142  18.932  12.269  0.1429 -0.1797  0.0556
94069W        W94933  14.536  25.572   7.472 -0.0516 -0.0813 -0.0790
94070W        W94934  25.882  15.712   0.898  0.0682  0.0673 -0.0886
94071W        W94935  25.111  17.339  18.859  0.0323  0.2694 -0.1315
94072W        W94936  27.278   2.068   0.760 -0.2478 -0.1321  0.0666
94073W        W94937   8.831  26.012  13.446  0.0984 -0.2207  0.0403
94074W        W94938  28.077  18.193   4.586  0.0947  0.0362 -0.0658
94075W        W94939  18.847  15.873  17.070 -0.1980  0.0852  0.0440
94076W        W94940  10.413   6.412  19.478  0.1325  0.0748 -0.0382
94077W        W94941  11.574  14.811   7.421 -0.1391  0.2079 -0.0377
94078W        W94942  25.253   3.294  12.970 -0.2689 -0.1576 -0.0434
94079W        W94943  28.057  11.535  21.905  0.2631 -0.3069  0.2209
94080W        W94944   0.169   5.892  13.250  0.3461 -0.3081 -0.0929
94081W        W94945  22.091  22.261  16.082 -0.0012 -0.2620 -0.2251
94082W        W94946  27.020  23.300   3.716  0.2882 -0.0297 -0.1343
94083W        W94947  26.724  24.392  22.111 -0.0910  0.2386 -0.2396
94084W        W94948  28.279  12.539  15.303 -0.0009  0.3930 -0.1584
94085W        W94949  26.728  15.828  21.718  0.2328 -0.0670  0.0048
94086W        W94950   9.183  10.550  24.444 -0.1927 -0.1904 -0.0804
94087W        W94951  20.139  12.802  22.879 -0.1331  0.0543 -0.0471
94088W        W94952   1.799  21.901  26.757 -0.0169  0.0579 -0.0059
94089W        W94953   1.683  12.283  27.718  0.0897 -0.0087  0.1226
94090W        W94954  20.926  21.980  24.203  0.2821 -0.1121 -0.1684
94091W        W94955  23.911   2.624  16.152 -0.2283 -0.1517 -0.2315
94092W        W94956  17.271   8.607   5.892  0.1061  0.1295  0.0408
94093W        W94957  23.338  15.731   5.396  0.0270  0.1811  0.1233
94094W        W94958   4.627   1.189  24.241  0.2203  0.2342 -0.1299
94095W        W94959  20.349  14.265   1.720 -0.0400 -0.0980  0.0763
94096W        W94960  27.265  10.900  22.617 -0.2104 -0.0112 -0.0028
94097W        W94961   0.996  20.486  11.390 -0.2270  0.0801  0.5519
94098W        W94962  18.204   4.560  12.968  0.0134  0.2334  0.0472
94099W        W94963   0.940  22.567  17.331 -0.1022  0.1723  0.0825
94100W        W94964  13.675  18.447  20.979 -0.3966  0.2278 -0.0457
94101W        W94965  22.558  23.523  28.047 -0.0098 -0.3045 -0.3615
94102W        W94966   0.025  26.874  16.947 -0.0399  0.3635  0.0035
94103W        W94967  24.306  12.336  26.175  0.2267  0.4126  0.0234
94104W        W94968  11.965  28.456  24.047 -0.5486 -0.0131 -0.2457
94105W        W94969  18.878  19.283  26.173  0.2839 -0.0412  0.1073
94106W        W94970   5.200  27.453  16.160 -0.1455  0.2282  0.0020
94107W        W94971  19.589  14.705  26.009  0.0150  0.0755  0.0034
94108W        W94972   3.551   5.539   2.855 -0.2639 -0.0016  0.1634
94109W        W94973   1.255   7.457  16.246  0.1289  0.0323 -0.1135
94110W        W94974  18.567   8.823   4.557 -0.0653 -0.1333  0.0923
94111W        W94975   1.413  22.466  17.087  0.0405 -0.1654  0.0699
94112W        W94976   7.137  11.097  22.683 -0.0345 -0.1177  0.2641
94113W        W94977   7.560   9.614   5.331 -0.1756  0.0367  0.2034
94114W        W94978  12.638   5.713  26.270  0.1683  0.0383  0.0664
94115W        W94979  25.336   7.292  20.574  0.1413 -0.2431  0.0697
94116W        W94980  23.106  18.672  16.190  0.1761  0.0974  0.0805
94117W        W94981  25.865  16.534  13.774  0.3243  0.1306 -0.1726
94118W        W94982   9.277  12.270  18.254 -0.2631 -0.0670 -0.1440
94119W        W94983  25.637  10.311  15.006 -0.2464  0.2456 -0.0708
94120W        W94984  27.571   7.771  18.356  0.0662 -0.1941  0.0740
94121W        W94985  27.588   3.417  20.142 -0.1539  0.0274 -0.1135
94122W        W94986  20.916  24.430  23.518 -0.2233 -0.1100  0.0970
94123W        W94987  21.055  19.490  21.961  0.1081 -0.1442 -0.1126
94124W        W94988  25.454  28.344   7.927 -0.0862  0.0068  0.0193
94125W        W94989   1.813  20.349   9.305 -0.1492  0.0260 -0.1512
94126W        W94990  28.574  16.267   3.879 -0.1501  0.2082  0.1925
94127W        W94991  22.549  22.188   1.661  0.1264 -0.0103  0.0091
94128W        W94992   8.080  26.244  14.074  0.2930  0.1021 -0.3028
94129W        W94993  14.812   5.282   8.362  0.0510  0.0488 -0.1687
94130W        W94994  11.943   5.242  18.545  0.0244 -0.2225 -0.3994
94131W        W94995   2.354  28.731  22.320  0.1803 -0.0283  0.0756
94132W        W94996  28.103   3.745  12.686 -0.2297 -0.0966  0.1713
94133W        W94997   1.871  23.077  14.516  0.0575 -0.1696 -0.1438
94134W        W94998  23.958  11.459   5.236 -0.1088  0.0477 -0.2071
94135W        W94999   6.040  18.588  15.146 -0.0632 -0.2206 -0.1412
94136W        W95000  22.092   0.819   7.618 -0.0557 -0.2536  0.3866
94137W        W95001  16.163  26.321  14.485  0.2264 -0.1104  0.2028
94138W        W95002  22.449  25.954   5.759 -0.2030  0.0750 -0.2206
94139W        W95003  26.512  19.817   2.406  0.0500 -0.2692 -0.1812
94140W        W95004   4.079  15.037  17.977  0.1391 -0.0825 -0.0323
94141W        W95005   0.549  22.434   0.625 -0.2818 -0.0961 -0.3209
94142W        W95006  24.311   8.163  23.874  0.2422 -0.0148  0.0517
94143W        W95007  23.679  18.623  10.976  0.3006  0.0400 -0.3238
94144W        W95008  11.225   6.295  19.898  0.1208 -0.0363 -0.2027
94145W        W95009   9.038  20.732   0.412 -0.1933 -0.2598 -0.2355
94146W        W95010  12.798  20.390  28.635  0.0275  0.0657 -0.2433
94147W        W95011  15.673  12.143  27.725  0.0893  0.4174  0.0847
94148W        W95012  25.588  19.354   2.458  0.1435 -0.0851 -0.2224
94149W        W95013  17.155  16.463  12.615  0.0947  0.0652  0.1373
94150W        W95014  25.455   6.276  20.888 -0.1238 -0.1469  0.0569
94151W        W95015  26.769  12.111  22.725 -0.2169 -0.5296  0.0215
94152W        W95016  19.349   3.678  26.039 -0.2400 -0.0180  0.1013
94153W        W95017  26.918  22.610  12.738  0.0964  0.1159  0.0832
94154W        W95018  24.807  21.122  19.500 -0.2343 -0.2238  0.2406
94155W        W95019   2.183   9.582  19.120 -0.1636  0.1594 -0.2510
94156W        W95020   5.462  21.421  16.986 -0.3595  0.4310 -0.2548
94157W        W95021  13.418  11.870   2.422 -0.0028  0.1431  0.1871
94158W        W95022  22.899   7.374  24.288 -0.1900  0.3098  0.2426
94159W        W95023  15.005  25.790   9.782  0.0023 -0.0753  0.1955
94160W        W95024  17.325  10.466  21.637  0.0627  0.0659 -0.2830
94161W        W95025   6.154  12.126  14.131  0.2108  0.1082 -0.0604
94162W        W95026  25.401  10.987  19.336 -0.4335  0.1428  0.0461
94163W        W95027   3.650  20.947  12.702  0.0059 -0.1451  0.2441
94164W        W95028   3.823  26.458   9.142 -0.5265 -0.1134 -0.0972
94165W        W95029  13.217   4.017   3.875 -0.3780  0.1895  0.0412
94166W        W95030  23.683  11.429  18.630  0.2379 -0.2562  0.2792
94167W        W95031  18.098   2.745  20.727  0.2563 -0.1069 -0.0161
94168W        W95032  24.278   9.259  14.628  0.1697  0.0962 -0.1506
94169W        W95033  27.038  21.578   3.296  0.0088 -0.1243  0.1313
94170W        W95034  27.690  10.909  22.199  0.3160 -0.0726 -0.0760
94171W        W95035  11.213  14.380  16.573  0.1584  0.1467  0.1051
94172W        W95036  26.679  27.052   7.276 -0.2756  0.0367 -0.0660
94173W        W95037   1.686  15.628  17.036  0.0141 -0.0686  0.0319
94174W        W95038   2.354  28.986  27.140 -0.0731  0.2785 -0.1664
94175W        W95039   3.360  23.552  23.017  0.0939  0.0473  0.1201
94176W        W95040  20.915  13.548  28.715 -0.5276  0.4905  0.0337
94177W        W95041   1.882  22.600  17.281 -0.0772 -0.0737 -0.4813
94178W        W95042  22.417  20.000  17.688  0.0012  0.0832 -0.2424
94179W        W95043  26.956  16.784  11.306 -0.2007  0.1699  0.3929
94180W        W95044  25.006  14.005  17.896  0.1547 -0.0147 -0.0156
94181W        W95045  18.365  11.441  12.557 -0.0501 -0.0070 -0.0262
94182W        W95046   4.072  13.054   0.180  0.0599  0.0872 -0.1814
94183W        W95047  17.338  16.088  24.255 -0.0285  0.0429  0.1526
94184W        W95048   5.052  10.652  25.763  0.0613  0.0419  0.2980
94185W        W95049   2.003  18.552  26.357  0.2065  0.0560 -0.1509
94186W        W95050  24.150   2.044  18.883 -0.1889  0.0403 -0.2069
94187W        W95051  14.259  18.659  10.120  0.1076 -0.2054 -0.1211
94188W        W95052  25.981  28.224  12.671  0.1128  0.3180 -0.4163
94189W        W95053   0.488   7.687  24.028 -0.2567 -0.1560  0.0483
94190W        W95054  25.825  21.380   3.852  0.1306  0.3427  0.0751
94191W        W95055  24.069   5.511  28.048  0.1113 -0.0421 -0.1984
94192W        W95056  14.454  27.348  17.269  0.0830  0.0451  0.1498
94193W        W95057  16.439  15.648  15.024 -0.1894  0.0630 -0.0652
94194W        W95058   3.121  16.103  18.125  0.0930 -0.2042 -0.1043
94195W        W95059  21.113  18.205  18.931  0.0481 -0.1006 -0.1732
94196W        W95060   0.480  21.725  14.253 -0.4163  0.1829 -0.0074
94197W        W95061  23.847  24.210  14.352  0.1721 -0.0389 -0.1569
94198W        W95062  21.601  28.716  17.363 -0.3251  0.0673 -0.1471
94199W        W95063  16.980  20.274  12.272  0.0461 -0.0439  0.3081
94200W        W95064   5.324  16.653   8.419 -0.2500  0.0156 -0.1270
94201W        W95065  10.243  11.516  25.520  0.0164  0.1951 -0.1939
94202W        W95066  20.335   4.335  14.838  0.0912 -0.0586 -0.3669
94203W        W95067   3.974  14.867   9.103 -0.0260  0.2395 -0.0762
94204W        W95068   6.817  27.924  12.397  0.0417 -0.1213  0.0118
94205W        W95069  18.764  15.850   3.073 -0.0328  0.0272  0.1315
94206W        W95070   7.595  19.266  16.501  0.3449 -0.1159 -0.1970
94207W        W95071   2.259  22.187   4.740 -0.1028  0.0767 -0.0119
94208W        W95072   6.848  27.352   8.842  0.0990 -0.3366 -0.0348
94209W        W95073   7.404  25.246  26.524 -0.2555 -0.2498 -0.2637
94210W        W95074  21.734   5.436  21.315  0.0207 -0.2087  0.1161
94211W        W95075   6.601  23.419  23.827  0.3306 -0.0098 -0.0377
94212W        W95076  20.821   7.291  27.181 -0.0930 -0.1290  0.1376
94213W        W95077  28.190  25.464  16.931 -0.0714 -0.1829  0.1218
94214W        W95078  23.515  22.126  27.061  0.1635  0.0190 -0.0239
94215W        W95079  12.912  20.941   9.675 -0.0329  0.0911  0.0639
94216W        W95080  26.046  18.717  23.618 -0.1762 -0.1852  0.0559
94217W        W95081   7.685  28.134   2.979  0.0297  0.0539  0.1530
94218W        W95082   4.805  16.893   3.999 -0.3425 -0.3355 -0.0401
94219W        W95083  27.946  19.882   5.139 -0.0023 -0.1360 -0.2096
94220W        W95084  26.461  10.213  17.537 -0.1257  0.0311 -0.0257
94221W        W95085  13.286   1.062   0.200  0.1558  0.3771  0.0982
94222W        W95086  22.210  13.640  10.953 -0.0011  0.2465  0.0607
94223W        W95087  23.080  21.445  14.824 -0.0729  0.1393 -0.2130
94224W        W95088  26.779  21.287  11.503  0.0755 -0.3817  0.3344
94225W        W95089   0.145  10.525  12.758 -0.2185 -0.3236 -0.2844
94226W        W95090  22.623  29.052  17.030 -0.0476 -0.4808  0.0839
94227W        W95091  22.050  13.030  12.360  0.0859  0.0695 -0.0889
94228W        W95092  20.562  20.389  23.150  0.0450  0.1130  0.1589
94229W        W95093   2.157   8.746  29.109 -0.1112 -0.0766  0.0580
94230W        W95094  14.201  18.928  19.803 -0.0384  0.0702  0.2372
94231W        W95095   8.072  16.114  14.490 -0.1918  0.0970 -0.1455
94232W        W95096  27.872  28.038   6.478 -0.3399  0.2801  0.0866
94233W        W95097   5.654  13.877  22.592 -0.2110  0.0519 -0.1667
94234W        W95098  21.227  14.015  13.374  0.0446  0.2863 -0.0069
94235W        W95099  15.025  15.871  13.369  0.0655 -0.0030  0.2746
94236W        W95100  25.234   5.943  20.579  0.1449  0.1213  0.2372
94237W        W95101  13.070  19.743   4.877  0.2858  0.0531 -0.3259
94238W        W95102   7.618  22.314  19.992  0.1749 -0.0075  0.1296
94239W        W95103  13.881  22.821  20.857  0.1649  0.1729  0.0863
94240W        W95104  22.331  19.235  11.872 -0.1659 -0.3043 -0.1928
94241W        W95105   0.978  15.197   3.814 -0.2831 -0.0691  0.4533
94242W        W95106   4.936  12.581  17.308 -0.0365  0.1645  0.1406
94243W        W95107  20.708  20.141  24.073  0.1791  0.1353 -0.2932
94244W        W95108  22.828   5.501   7.898 -0.0860 -0.2641  0.0876
94245W        W95109  24.983  10.798  24.620  0.2109 -0.3630  0.2502
94246W        W95110  28.381  15.313  17.438  0.0256  0.3836 -0.2831
94247W        W95111   2.053   4.996   2.748 -0.2483  0.3650 -0.0258
94248W        W95112  18.806   8.417  20.695 -0.2379  0.0066  0.2178
94249W        W95113  15.316  20.969   1.633  0.0401  0.1777  0.0268
94250W        W95114  16.388  14.901   5.405 -0.0838  0.0212  0.2860
94251W        W95115   2.907  26.852   3.097  0.0508  0.1027 -0.2066
94252W        W95116   5.612  14.123  20.389 -0.2084 -0.0640  0.2223
94253W        W95117  11.431  18.121  10.929 -0.0186 -0.3825  0.0886
94254W        W95118  16.626  10.443  17.667 -0.0880 -0.1483 -0.1247
94255W        W95119  25.955  17.975   4.475 -0.4306  0.3116 -0.0377
94256W        W95120  14.529  17.516  13.137 -0.0121  0.1326 -0.0481
94257W        W95121  16.909  16.082  24.456 -0.0623 -0.2312  0.2934
94258W        W95122  12.650  14.472  21.447  0.0912 -0.2459 -0.0915
94259W        W95123  25.425  19.500   7.276 -0.1517  0.1683  0.0049
94260W        W95124  15.340  20.372  12.295  0.1051  0.3191 -0.0622
94261W        W95125  26.877   0.994  21.381  0.0379  0.4282  0.2149
94262W        W95126  22.600   3.955   0.335  0.1538  0.0129 -0.1359
94263W        W95127  19.841   3.431  21.455 -0.1141 -0.0758  0.0400
94264W        W95128   8.568   7.387   6.136  0.0574 -0.0767 -0.2747
94265W        W95129  29.048   6.431  17.871  0.0414  0.0863 -0.0999
94266W        W95130  17.407  19.333  22.639  0.0776  0.0968  0.1523
94267W        W95131   9.862  23.119  24.316 -0.3297  0.0913 -0.0571
94268W        W95132  18.981  25.948  18.544 -0.0577 -0.1898  0.0990
94269W        W95133   0.526  13.115   3.373 -0.1234  0.2139  0.2744
94270W        W95134  17.759  15.471  10.013 -0.1446 -0.0336 -0.2169
94271W        W95135   6.124  15.325  28.612 -0.0121 -0.1772  0.0564
94272W        W95136  24.649  16.441   6.572  0.2118 -0.1695 -0.1581
94273W        W95137  24.320  28.995   9.434 -0.1101  0.1667  0.1207
94274W        W95138  18.706  16.599  24.462 -0.2685 -0.1458 -0.0559
94275W        W95139  19.126   9.747  28.916  0.1596 -0.1103 -0.0094
94276W        W95140  11.517  10.507  21.608 -0.1248  0.2705  0.0691
94277W        W95141  14.164   9.339  14.789 -0.1514 -0.1848  0.0494
94278W        W95142  24.433  25.098   5.235  0.1444 -0.0876  0.3218
94279W        W95143   3.867  10.224   1.226  0.1284 -0.2100  0.0738
94280W        W95144  26.609  28.764  12.210  0.4672 -0.0319 -0.2278
94281W        W95145  25.521  24.399  16.022  0.1764  0.0647 -0.1780
94282W        W95146   4.085  16.909  27.907  0.0896 -0.3978 -0.0888
94283W        W95147  16.217  19.168  14.435  0.3595 -0.1261 -0.4470
94284W        W95148  23.311  20.346   1.476  0.3436  0.0497  0.0725
94285W        W95149  16.537  17.068   3.601  0.0619 -0.0169  0.0343
94286W        W95150  14.842  12.478  24.675 -0.1932 -0.2019  0.1577
94287W        W95151  18.143   2.067  16.354  0.0386 -0.0433 -0.2174
94288W        W95152  18.405  10.167  19.491  0.1374 -0.0965  0.1845
94289W        W95153   6.412   5.151  23.018  0.0953 -0.0341  0.2971
94290W        W95154  28.813   3.838   4.743  0.0518  0.4208  0.2051
94291W        W95155   9.749  19.229  26.991  0.1940 -0.1409 -0.1970
94292W        W95156  21.935   6.033  21.059 -0.2506 -0.0644  0.1276
94293W        W95157  23.710  23.498   9.281  0.1102  0.0489 -0.2716
94294W        W95158   3.135  14.792   0.352 -0.2423 -0.1302  0.0841
94295W        W95159  16.167   9.453   1.359 -0.2184 -0.0471 -0.1407
94296W        W95160  15.996  11.832  13.541  0.1194 -0.0285  0.1829
94297W        W95161  20.882  27.734  23.956  0.2270 -0.0445  0.0027
94298W        W95162  28.704   4.201  22.321 -0.1474  0.0743  0.2949
94299W        W95163  21.522  27.111   8.380  0.0692 -0.0367 -0.1824
94300W        W95164  20.580  11.600  21.872  0.0922  0.2551 -0.1299
94301W        W95165   0.348  22.090   6.681 -0.0385 -0.1976 -0.0960
94302W        W95166  24.007  25.855  13.813  0.1723 -0.3257 -0.3011
94303W        W95167   8.220  18.341   8.194  0.2339  0.0058 -0.0086
94304W        W95168  12.424  21.102  18.998 -0.1904  0.1610 -0.1820
94305W        W95169  21.602  25.710  28.690  0.5212  0.2764  0.3392
94306W        W95170   3.818   4.496  23.411  0.1307  0.0972 -0.0404
94307W        W95171  20.342  10.416  14.127 -0.4759  0.2227 -0.1971
94308W        W95172  23.789  16.121   3.572 -0.4353 -0.2977  0.0921
94309W        W95173  20.316  17.777   0.260  0.1253 -0.0424 -0.0404
94310W        W95174  17.540  13.324  21.983  0.2363  0.3116 -0.1603
94311W        W95175   1.736  15.554  22.370 -0.1144 -0.0461  0.0315
94312W        W95176   3.337  12.006   6.083 -0.1557 -0.0361 -0.1440
94313W        W95177  19.483  28.099  14.172  0.4840  0.0900 -0.3261
94314W        W95178  28.093   2.268   7.779  0.3697  0.0668 -0.0615
94315W        W95179   8.941  16.109   6.717 -0.1593  0.0702 -0.0482
94316W        W95180   1.559   5.041   0.017  0.2072  0.0173 -0.1059
94317W        W95181   1.339   9.292  11.524  0.1773  0.1791 -0.0493
94318W        W95182  11.623  16.273  26.559 -0.1823 -0.1192 -0.1364
94319W        W95183  25.550  19.654  23.383 -0.1155  0.3735 -0.2839
94320W        W95184   9.179  19.879  21.577  0.1606  0.1085 -0.0426
94321W        W95185  12.645  24.170  23.279 -0.3059 -0.0929  0.0020
94322W        W95186   3.157   1.865  16.491 -0.1050 -0.4718 -0.0785
94323W        W95187   1.278  10.876   7.114 -0.1076  0.1457 -0.2237
94324W        W95188   8.316  22.459  17.831  0.1055  0.1631 -0.0928
94325W        W95189  12.096  15.494   8.566 -0.0000 -0.2989 -0.0773
94326W        W95190  28.412  17.688   4.253 -0.2903 -0.0321 -0.0088
94327W        W95191   9.145  17.553  16.281 -0.1350 -0.1738 -0.0029
94328W        W95192  27.828  25.511  13.580  0.1640  0.3073  0.2719
94329W        W95193   1.324   3.885   6.915 -0.1735  0.0073  0.0826
94330W        W95194  22.928   5.298  25.284  0.0185 -0.0804 -0.2953
94331W        W95195  23.367  25.713  22.751  0.0659 -0.1144  0.0930
94332W        W95196   1.643  17.911   4.683 -0.0968 -0.0502 -0.1036
94333W        W95197  27.880  14.935  10.408 -0.4086 -0.2439 -0.0442
94334W        W95198   7.067  18.941  11.688  0.1660  0.2401  0.2115
94335W        W95199   3.730  11.214  19.824  0.0615 -0.2490 -0.1087
94336W        W95200   4.024  24.435  13.924 -0.2399  0.0024  0.0562
94337W        W95201   9.359  17.546  14.198 -0.0452 -0.0854 -0.2304
94338W        W95202   0.897  20.440  10.477  0.0599  0.3233 -0.2912
94339W        W95203  26.072   7.048  18.953 -0.2286 -0.0912 -0.2102
94340W        W95204   4.142  15.046  24.512  0.0561  0.4508  0.3539
94341W        W95205   0.908  17.115  24.080  0.1031 -0.0996  0.1298
94342W        W95206  14.835  15.091  27.846 -0.3140 -0.1443 -0.0125
94343W        W95207   6.212   5.224   6.760  0.0742 -0.5455 -0.2916
94344W        W95208  28.053  22.207   2.482  0.2576 -0.2876 -0.1346
94345W        W95209  27.657  28.576  14.183  0.2241 -0.2114  0.4481
94346W        W95210  26.557  18.371  24.968 -0.0139 -0.0315  0.0003
94347W        W95211  19.578  14.571  28.005  0.0886  0.0266  0.1640
94348W        W95212  28.989   6.674  18.871 -0.0270  0.2675 -0.5336
94349W        W95213   4.917  25.082  22.639  0.1029  0.3587  0.0064
94350W        W95214   7.919  27.060  19.960  0.0379  0.3315 -0.0346
94351W        W95215  26.897   6.575   5.443 -0.3202  0.0439  0.0108
94352W        W95216  14.807   7.443  16.008  0.0427  0.0301 -0.0367
94353W        W95217   4.020  19.662  16.851 -0.3411 -0.0807  0.1019
94354W        W95218  18.875   6.700   9.611 -0.2650 -0.2305  0.0300
94355W        W95219  22.395  24.547  21.709  0.1757 -0.3039 -0.2609
94356W        W95220  27.110  18.007   6.430 -0.0897 -0.0251 -0.0518
94357W        W95221   9.662  23.348  17.651 -0.0837  0.0163  0.0184
94358W        W95222  24.547  27.477  10.511 -0.2344  0.0644 -0.0696
94359W        W95223  21.219   8.598   1.711 -0.0772 -0.1785  0.3468
94360W        W95224  15.274  18.563   0.562 -0.0961 -0.0561  0.0380
94361W        W95225  28.919  27.130  24.902  0.1668 -0.0190 -0.0356
94362W        W95226  22.586  24.420  27.946 -0.2045 -0.1679  0.0671
94363W        W95227  26.721  17.216  15.556  0.1029 -0.0814  0.1178
94364W        W95228  10.360   1.439  24.366  0.0726 -0.0228 -0.0364
94365W        W95229   8.088  18.831  16.576 -0.1747 -0.0489 -0.0869
94366W        W95230   6.329  18.461   1.103 -0.1169  0.2621  0.1248
94367W        W95231  26.623  23.228   9.860 -0.1555 -0.1175 -0.0244
94368W        W95232  26.759   4.992  25.051 -0.0780  0.0632 -0.2091
94369W        W95233  17.600   7.154   8.649  0.0226 -0.0799 -0.3943
94370W        W95234  21.507   2.327  17.728  0.2740  0.1517 -0.0183
94371W        W95235  20.110   2.288   9.203  0.0327  0.0720  0.0125
94372W        W95236  12.634  28.753  10.390 -0.1718  0.2622 -0.0984
94373W        W95237  18.005  19.707  28.792  0.1040  0.1202  0.0006
94374W        W95238  19.361   1.347   3.008 -0.0286 -0.0182  0.3402
94375W        W95239  25.265   3.453   2.244  0.0410 -0.0722 -0.3336
94376W        W95240  25.321  20.409  15.727 -0.2344  0.0252 -0.3261
94377W        W95241   2.166  13.206  25.949 -0.2814 -0.2126 -0.1641
94378W        W95242   0.805  24.753  21.072 -0.1375 -0.1183 -0.3563
94379W        W95243   8.688   8.193   5.683  0.0964 -0.2152 -0.1308
94380W        W95244   7.736  10.954  10.826  0.1031 -0.3111 -0.0360
94381W        W95245  26.091   5.968  13.725 -0.2334 -0.0479  0.2758
94382W        W95246   3.611  22.290   6.009  0.2035  0.0076 -0.1983
94383W        W95247  19.543  22.450  12.350  0.1277 -0.0280  0.0652
94384W        W95248  26.305   6.205  28.718  0.1833 -0.1698  0.1363
94385W        W95249   2.313  14.848   0.484 -0.1845 -0.2392  0.1852
94386W        W95250   5.939  27.595   5.062 -0.0186 -0.0903  0.1765
94387W        W95251  26.360  22.755  24.190  0.2218  0.4357  0.4674
94388W        W95252  15.842   4.353  18.649 -0.2630 -0.0486  0.0105
94389W        W95253   4.411  19.518  11.154  0.1104 -0.1064 -0.0750
94390W        W95254   8.730  22.102  11.739  0.1297  0.1046 -0.0554
94391W        W95255  27.941  20.463  24.077  0.2700 -0.0297  0.0298
94392W        W95256  19.978  19.319  16.719  0.2372 -0.0446  0.4918
94393W        W95257  27.944  15.060  15.043  0.1280  0.0387 -0.0130
94394W        W95258  10.777  24.092  20.621 -0.2015  0.1398 -0.1411
94395W        W95259   2.710  27.820  15.225 -0.0356  0.1900  0.0810
94396W        W95260   3.478  13.647  14.216 -0.2795 -0.4640 -0.2698
94397W        W95261   3.229  10.586  12.461 -0.0133  0.0201 -0.2545
94398W        W95262   5.306  11.907  25.532  0.1445  0.1273  0.2234
94399W        W95263  16.946  28.748  10.325 -0.0501  0.2199  0.1198
94400W        W95264  14.966  21.159   3.946  0.0865  0.0148  0.1648
94401W        W95265   5.216  16.704  19.622 -0.0713 -0.2842 -0.1918
94402W        W95266  28.438  17.307  15.318  0.1576  0.0114 -0.0226
94403W        W95267  21.779   6.327   3.721 -0.0961  0.0182 -0.1374
94404W        W95268  10.521  19.146   0.674 -0.0457  0.0613 -0.0606
94405W        W95269   8.321   9.410  14.892  0.3152  0.0083  0.2464
94406W        W95270  15.625   2.143  15.520  0.3529 -0.1411 -0.0473
94407W        W95271  27.895  14.784  23.695 -0.0186  0.0611 -0.0143
94408W        W95272   1.154  12.628  28.040 -0.0134 -0.1396 -0.1109
94409W        W95273  19.272   3.575   3.985  0.2592 -0.2823 -0.1814
94410W        W95274   0.141  20.495   4.050  0.0107  0.1257 -0.1640
94411W        W95275  20.610  19.069  14.275  0.2816  0.0837  0.2034
94412W        W95276   0.302  28.256  25.878  0.1895 -0.0295  0.1203
94413W        W95277  25.487  11.896  19.421 -0.0145 -0.1667  0.2512
94414W        W95278   2.627  26.461  25.014  0.0392 -0.2577  0.1125
94415W        W95279  15.510  29.083  27.350 -0.0917 -0.2375 -0.4570
94416W        W95280  28.328  24.991  22.211 -0.1269  0.1692 -0.0063
94417W        W95281  28.314   7.949  17.800  0.1511 -0.1543 -0.1048
94418W        W95282  12.476   5.202   8.996  0.0487  0.1100  0.0226
94419W        W95283  26.658  12.700   0.694 -0.0595  0.0640  0.0227
94420W        W95284  22.711   1.042  10.539 -0.1269 -0.2968 -0.1940
94421W        W95285  14.714   9.096   4.268 -0.0227  0.3138 -0.0673
94422W        W95286  12.702   5.644  23.502  0.3659 -0.0747 -0.0865
94423W        W95287   6.167   0.937  28.406  0.0839 -0.1150 -0.1481
94424W        W95288  14.296  20.566  23.843 -0.2296  0.4506  0.3310
94425W        W95289  20.388  27.734  19.033 -0.0144 -0.0662  0.1968
94426W        W95290   7.082  18.605  16.133  0.0543  0.1547 -0.1430
94427W        W95291   3.742  23.600  17.335 -0.1251  0.3194  0.0031
94428W        W95292   2.066  20.916  19.379  0.2902  0.0958  0.4550
94429W        W95293  28.455  15.694   5.812 -0.3041 -0.3264 -0.1381
94430W        W95294  13.792  18.329  20.131  0.1202  0.3489  0.0924
94431W        W95295   7.209  23.506   8.557  0.0600 -0.1285  0.1855
94432W        W95296  13.282   7.707  15.455  0.1938 -0.0302 -0.0595
94433W        W95297  19.553   0.267  19.887  0.2858  0.0450 -0.3517
94434W        W95298  15.705  16.716  21.076  0.3068  0.0471 -0.1841
94435W        W95299   8.171  23.864  17.365  0.3272 -0.1692 -0.1622
94436W        W95300   4.633   6.879  23.389  0.1066 -0.0408  0.2251
94437W        W95301  10.527  14.071  21.773 -0.2565  0.0104  0.2967
94438W        W95302  24.261  15.241   4.625  0.1215  0.0199 -0.3507
94439W        W95303   7.154  18.325  10.145 -0.3103  0.1428  0.1002
94440W        W95304  10.618   5.670  15.586  0.1238 -0.2043 -0.1205
94441W        W95305   4.545  11.804   9.180 -0.0699  0.0401 -0.1193
94442W        W95306  19.865   8.684   7.849 -0.0671  0.0429  0.0140
94443W        W95307  13.899  28.057   4.904 -0.3986  0.1706  0.1409
94444W        W95308  23.955  10.705  26.608 -0.3262 -0.1053  0.3502
94445W        W95309   8.287  19.518   3.787  0.0558  0.1552 -0.0290
94446W        W95310   9.406  12.716  27.856 -0.1671  0.1051 -0.1228
94447W        W95311   2.437  13.616   2.052  0.0872  0.1446  0.1932
94448W        W95312  27.040  22.967   8.423 -0.1353 -0.0155 -0.1849
94449W        W95313   5.870  16.265  28.513 -0.1469  0.4120 -0.3167
94450W        W95314  22.305  20.225   9.808 -0.1529  0.2575 -0.1226
94451W        W95315  24.768  20.081   3.157  0.2584 -0.2027 -0.0236
94452W        W95316  19.477  18.358  26.899  0.0168  0.0142  0.1795
94453W        W95317   2.053   0.024  14.656 -0.1416  0.0711 -0.0364
94454W        W95318   8.860  18.172  14.480  0.3729 -0.4033 -0.1843
94455W        W95319   5.002   7.589  26.667  0.1637 -0.0145  0.0783
94456W        W95320  27.280   5.611   0.696  0.1371  0.0662 -0.0847
94457W        W95321  24.810  28.320  21.990 -0.1763 -0.2087  0.0339
94458W        W95322  26.473  13.677   6.901  0.2968  0.0452  0.1491
94459W        W95323   3.952  28.650   9.740 -0.0223 -0.0634  0.0369
94460W        W95324  10.961  25.254   5.018  0.1565 -0.2099 -0.0156
94461W        W95325   1.029  14.550  25.153  0.0583 -0.1249  0.1547
94462W        W95326   7.859   4.057  11.725  0.2211  0.3463 -0.1083
94463W        W95327   7.258  28.602  29.031 -0.0466 -0.2157 -0.0032
94464W        W95328  22.179   3.219  11.270 -0.1086 -0.1906  0.1294
94465W        W95329  21.313   9.866  26.834 -0.0907 -0.1446 -0.4765
94466W        W95330   8.723  13.119  18.203  0.2188  0.2622  0.0959
94467W        W95331  28.841  22.385  25.783 -0.0166 -0.2794  0.0118
94468W        W95332  24.765  15.184  23.426 -0.1727 -0.0703  0.2771
94469W        W95333  18.786  14.032  22.078 -0.0959 -0.2690  0.0956
94470W        W95334  22.044  10.599  23.763  0.2056 -0.0778 -0.0565
94471W        W95335  26.729   9.466  26.634 -0.1527 -0.2687  0.2811
94472W        W95336  22.611  28.413   0.736 -0.1769  0.2886  0.0044
94473W        W95337   2.844  14.873  17.719  0.1150 -0.2347  0.1447
94474W        W95338   3.005  23.722  22.433 -0.1768 -0.1445 -0.1949
94475W        W95339  21.446  15.996  27.374  0.0870  0.1988  0.1678
94476W        W95340   0.542  23.807  21.358 -0.2506  0.2346 -0.2264
94477W        W95341  27.433   0.337   3.301 -0.0556  0.0171  0.1582
94478W        W95342  18.141  10.085  22.892 -0.3680 -0.2224 -0.0585
94479W        W95343   6.509  18.237  11.615 -0.3207  0.2960 -0.1745
94480W        W95344   6.511   6.813  11.580 -0.0657 -0.0535 -0.0367
94481W        W95345  28.803  18.166  25.933 -0.0663 -0.0517 -0.2449
94482W        W95346  19.772   3.871  24.409 -0.0315  0.1083 -0.5417
94483W        W95347  14.141  15.872  23.977  0.0810  0.0672  0.0834
94484W        W95348  11.274   5.934   5.362 -0.1774 -0.1832  0.1508
94485W        W95349  26.581  11.951  16.358  0.1279  0.1003 -0.3282
94486W        W95350   3.290  14.083  28.315 -0.1055 -0.3132 -0.2027
94487W        W95351  24.703   1.375  20.415  0.2442  0.1206  0.0044
94488W        W95352  28.234  18.909  28.093 -0.1590  0.2772  0.2605
94489W        W95353  19.160  25.334  26.725 -0.0211 -0.1635 -0.0570
94490W        W95354  27.864  14.175  13.052  0.0969 -0.0026  0.0972
94491W        W95355   6.969   4.498   0.306 -0.4854  0.3350  0.1352
94492W        W95356  25.820  20.594  26.839 -0.0778  0.0539  0.0121
94493W        W95357   2.849  22.313  22.158  0.2047  0.0206  0.1006
94494W        W95358   3.687  25.257   7.841 -0.2802  0.0365  0.0664
94495W        W95359   0.468  13.918  25.323 -0.0343 -0.0552 -0.1851
94496W        W95360   6.167  26.168  24.961 -0.2349  0.0258  0.2163
94497W        W95361  25.417  15.086  20.634  0.1578 -0.0052  0.0283
94498W        W95362  22.993  24.985  11.697 -0.1236 -0.0642  0.0171
94499W        W95363  27.590   5.667  23.001  0.1358 -0.3112 -0.0768
94500W        W95364  22.579  13.521   0.886 -0.0340 -0.3176  0.0543
94501W        W95365  23.350  21.279  27.559 -0.0336 -0.3106  0.0702
94502W        W95366  15.488  16.138  10.646 -0.3869  0.0957 -0.0163
94503W        W95367  20.291  11.380  23.016  0.1847  0.1409  0.0839
94504W        W95368  28.577   9.928   5.773  0.0903  0.0745 -0.0035
94505W        W95369  23.752  10.329  13.746 -0.1026  0.1300 -0.2353
94506W        W95370  20.652  10.547  24.248 -0.2039 -0.1458 -0.1520
94507W        W95371  24.244  17.253   7.317  0.0046  0.2242 -0.0864
94508W        W95372  19.873   9.911  26.008 -0.0460 -0.0023  0.1792
94509W        W95373   7.587  13.825  18.446  0.1054 -0.2197  0.1177
94510W        W95374  25.146  21.606  10.122 -0.0583 -0.1816 -0.2389
94511W        W95375  27.167  19.147  15.050  0.1422  0.0424 -0.0792
94512W        W95376  25.481  26.507   2.509  0.0334 -0.3000 -0.1139
94513W        W95377  28.413   2.309   2.138 -0.0196  0.2771 -0.0117
94514W        W95378  23.987   0.007  21.026  0.1017  0.1986  0.2402
94515W        W95379   6.167  24.987  20.145  0.0337 -0.0216 -0.0007
94516W        W95380   7.362  29.066  22.315  0.2192  0.1720 -0.0516
94517W        W95381  22.523  17.245  10.609  0.0031  0.1626  0.3176
94518W        W95382  27.596  28.063  20.460 -0.0784  0.4475 -0.0176
94519W        W95383  16.974  27.455  16.323 -0.1457 -0.1148 -0.2751
94520W        W95384  17.565  20.839  26.214 -0.0125 -0.0668  0.1083
94521W        W95385  22.627   9.746   1.195 -0.0458  0.1375  0.1902
94522W        W95386  26.329  26.651  17.951 -0.0287  0.0847 -0.1320
94523W        W95387   0.716  25.999  22.049  0.1324 -0.0807  0.0596
94524W        W95388   6.390  28.293  13.500  0.0877  0.1190  0.1754
94525W        W95389  15.759  26.029  21.494  0.1472 -0.0622 -0.3301
94526W        W95390  10.378  19.204  23.422 -0.2142 -0.0367  0.2720
94527W        W95391  28.028  28.439  13.334  0.0474 -0.1472 -0.0878
94528W        W95392   1.370  16.319   8.923  0.0032 -0.0553 -0.0952
94529W        W95393   9.313  17.946   4.672  0.3376  0.3867 -0.0841
94530W        W95394  17.862  23.483  24.894 -0.1891 -0.0102  0.2945
94531W        W95395   8.171   5.699  18.886 -0.0864  0.0415 -0.0888
94532W        W95396  27.374  21.891  10.343  0.4584 -0.1702  0.0466
94533W        W95397   8.707  21.805   2.441 -0.2111  0.0593  0.1972
94534W        W95398  16.591  20.195  19.798 -0.0177  0.1753 -0.0490
94535W        W95399  19.666   3.613  13.800 -0.1973 -0.0486 -0.4395
94536W        W95400  15.491  10.081  21.521  0.0153  0.1287  0.2334
94537W        W95401   2.400  13.122   7.940 -0.1372 -0.0042  0.0408
94538W        W95402  27.677  15.527   0.106  0.1142  0.0621 -0.1826
94539W        W95403   0.898   3.454  20.040  0.0593 -0.0046  0.1073
94540W        W95404  26.450  23.089  21.283  0.0039 -0.3547  0.1801
94541W        W95405  28.397   2.241  14.989 -0.0243 -0.2651 -0.1545
94542W        W95406  23.413  15.444  28.069 -0.1233  0.2155  0.5256
94543W        W95407   2.029   4.669   2.336 -0.0099 -0.0582 -0.1950
94544W        W95408  27.040  14.934   0.085 -0.1730  0.0903  0.0007
94545W        W95409  25.134  18.981   8.620 -0.0246  0.0486  0.2110
94546W        W95410   8.453  19.533   7.543  0.0953 -0.3990 -0.2139
94547W        W95411  25.221  20.695  23.679  0.3014  0.0750  0.2140
94548W        W95412   2.601  14.621  24.452  0.1491 -0.1281  0.2668
94549W        W95413  21.749  19.500  28.970 -0.2054 -0.2705 -0.1986
94550W        W95414   2.235  19.601   6.438  0.1149 -0.0878 -0.0267
94551W        W95415   2.123  25.259  18.634 -0.0918 -0.1178  0.2072
94552W        W95416  15.423   5.254   3.102 -0.0490 -0.0530  0.2743
94553W        W95417  26.688   5.351  17.665 -0.0219  0.1336 -0.1565
94554W        W95418   8.690   9.100  27.245  0.0845 -0.1891  0.2293
94555W        W95419   3.034  12.518   5.140 -0.0019 -0.0524 -0.0786
94556W        W95420  15.772  11.014  10.560 -0.1490  0.0564  0.0159
94557W        W95421   6.248  16.841  22.344  0.4727 -0.0420 -0.2579
94558W        W95422   5.351  17.103  25.477  0.3060  0.0280  0.0079
94559W        W95423   2.389  16.810   0.877 -0.0634 -0.1030  0.1022
94560W        W95424  28.279  12.408  26.690 -0.0221  0.1213  0.0282
94561W        W95425  23.538  25.768  28.626 -0.0762 -0.1577  0.0594
94562W        W95426   6.569   6.059  19.307  0.2785 -0.1820 -0.2296
94563W        W95427  22.841  16.334  12.100  0.2689  0.1321 -0.3260
94564W        W95428  12.895  17.746  25.765 -0.1027  0.2964 -0.2267
94565W        W95429   9.967  27.591   4.605 -0.1373 -0.0937 -0.5725
94566W        W95430   5.142  16.286   7.481  0.1645  0.0136  0.1892
94567W        W95431  28.425   4.115  24.609  0.1880 -0.1558  0.0874
94568W        W95432   3.610  14.375   1.873  0.1504  0.0986  0.0840
94569W        W95433   9.916  20.960   2.651  0.0164  0.1396  0.0415
94570W        W95434  18.888  18.687   5.801 -0.1347  0.1618  0.2058
94571W        W95435  24.261  19.741   3.849  0.1426  0.2743  0.2114
94572W        W95436  24.100  28.149  29.105 -0.0306 -0.1128 -0.3422
94573W        W95437   1.615  20.937  15.149 -0.0375 -0.0461 -0.0889
94574W        W95438   0.394  22.682  25.181  0.2330 -0.0783 -0.0219
94575W        W95439  22.600  14.728  20.832 -0.2311  0.1850 -0.0649
94576W        W95440  16.940   8.831  22.224 -0.3288  0.1109 -0.0360
94577W        W95441  23.167  16.957  19.910  0.0514  0.1698 -0.0428
94578W        W95442  18.824  15.860  18.260 -0.1565 -0.3339  0.0220
94579W        W95443  19.966  12.917  23.528  0.1739  0.0675 -0.2569
94580W        W95444  19.848  20.973  28.750  0.0395 -0.0448  0.2034
94581W        W95445   0.698  21.705  15.913 -0.0696  0.2093 -0.0143
94582W        W95446   1.288  10.424  26.069  0.2107 -0.0765  0.1500
94583W        W95447   0.977   5.562  20.242  0.2607  0.0693 -0.0027
94584W        W95448  21.340  20.553  28.221 -0.1619 -0.2816  0.0942
94585W        W95449  28.271  13.688   3.872  0.1113  0.0616 -0.0291
94586W        W95450  11.568   9.708   1.933  0.0465 -0.0150 -0.0229
94587W        W95451  28.187  14.502  23.007 -0.2351 -0.0053  0.2759
94588W        W95452  12.284  27.441  13.293 -0.3384 -0.0905  0.0360
94589W        W95453   4.391   3.648   2.004 -0.1626  0.0908  0.0037
94590W        W95454  21.618   1.036   0.623  0.1822  0.0674 -0.2431
94591W        W95455  19.908  22.070  26.459 -0.0363 -0.3270 -0.2543
94592W        W95456  17.549   1.630   7.148  0.1997  0.4346  0.1020
94593W        W95457   6.144  10.934  23.034  0.4071 -0.0695 -0.1929
94594W        W95458  21.972  23.885   8.385 -0.1124 -0.1410 -0.1851
94595W        W95459  12.645  11.439   7.867  0.0685 -0.1196 -0.1570
94596W        W95460  14.530   8.613   3.296  0.3354  0.0087  0.2371
94597W        W95461   2.697  15.971   9.591 -0.4598 -0.0031  0.0258
94598W        W95462  25.698  14.768  26.906 -0.2469  0.1910 -0.4249
94599W        W95463   4.036  15.648  23.373  0.0261 -0.0178 -0.0225
94600W        W95464  14.064  10.295  22.465 -0.1760 -0.0659 -0.1777
94601W        W95465  24.893   7.115  20.570  0.2134  0.0469 -0.1189
94602W        W95466  15.766   7.770  27.752 -0.1758  0.0777  0.2944
94603W        W95467  11.837  28.309  18.123  0.0424 -0.1338  0.2587
94604W        W95468  27.277   7.544  27.558 -0.4243  0.2070 -0.5072
94605W        W95469  26.820  24.283   8.846  0.3217 -0.0434  0.1560
94606W        W95470  25.095  17.911   2.106  0.0503  0.1490 -0.0994
94607W        W95471  28.406  11.832   3.437 -0.1685 -0.1819 -0.2354
94608W        W95472  19.219  26.071   6.687 -0.0860 -0.0735  0.3648
94609W        W95473  27.130  18.952   1.941 -0.0948 -0.0181 -0.1737
94610W        W95474   1.144  14.459   6.032 -0.0007  0.3134 -0.2026
94611W        W95475   2.856  10.711   6.484  0.0617  0.1468 -0.0876
94612W        W95476  24.554  16.765   1.146  0.0905  0.0682  0.0184
94613W        W95477   4.387  20.286   0.228  0.1063 -0.1702 -0.1841
94614W        W95478  18.921  24.745   6.012  0.1012 -0.2983  0.0362
94615W        W95479  18.685   9.188  27.053 -0.1268  0.4197  0.0707
94616W        W95480  20.420  13.103   6.694  0.0707  0.0359  0.0587
94617W        W95481  11.185  20.620   0.582 -0.0201  0.2671  0.2887
94618W        W95482  27.574  12.808  24.089 -0.0326  0.1812  0.0070
94619W        W95483  18.379  26.861   0.470  0.1179  0.0985 -0.0646
94620W        W95484   9.113   6.008  18.164 -0.1589  0.1974  0.2179
94621W        W95485  21.319  12.921  28.101  0.0960 -0.4456  0.1524
94622W        W95486  28.216  11.028   7.416 -0.1385  0.0949  0.1945
94623W        W95487   2.634   9.343   9.753 -0.0184  0.2778 -0.3376
94624W        W95488  16.453  25.332  21.348  0.0127 -0.2672  0.0832
94625W        W95489  10.768  12.117  21.373 -0.0556  0.0380 -0.0409
94626W        W95490  26.819  23.084   6.603  0.3478  0.1046  0.1383
94627W        W95491  18.919   1.983   0.988 -0.1912  0.0620  0.0523
94628W        W95492   5.442  29.005  26.433  0.0266  0.1734 -0.2015
94629W        W95493  25.482   8.869   0.989 -0.0011 -0.0386  0.2262
94630W        W95494  26.248  21.261  12.254  0.2696  0.2305  0.1106
94631W        W95495  26.643  15.410  29.065 -0.0096 -0.4253  0.2984
94632W        W95496  24.674  28.101  26.399 -0.0012  0.1056  0.1322
94633W        W95497  25.093  13.352  24.918 -0.0343  0.1010 -0.0847
94634W        W95498   3.606  23.540  27.183  0.1125 -0.0761  0.0964
94635W        W95499  14.090  25.322   4.963 -0.1404 -0.0069  0.4174
94636W        W95500  20.437  25.839  28.344 -0.1273  0.0713  0.1169
94637W        W95501  19.442  16.488  20.880  0.1629 -0.2096 -0.0525
94638W        W95502  23.082  16.513  24.434  0.3456  0.1393  0.1025
94639W        W95503  14.019  18.006   8.640  0.0309  0.0093 -0.0106
94640W        W95504   8.226  17.144   7.651  0.3113  0.1005  0.0001
94641W        W95505  18.642  24.503   1.911  0.2267 -0.0629 -0.3880
94642W        W95506  21.823   1.560   9.116 -0.2124 -0.0649  0.1299
94643W        W95507   6.797  20.789  20.280  0.1284 -0.0035 -0.2426
94644W        W95508  22.043  26.648  12.540 -0.1242 -0.1809 -0.1072
94645W        W95509  15.013   8.134  14.876 -0.3458  0.0211  0.1255
94646W        W95510  23.848   3.531  21.577  0.1756  0.3871 -0.2180
94647W        W95511   3.079  10.445   1.384 -0.0562 -0.1080  0.1385
94648W        W95512  26.208  20.921  24.130 -0.0779 -0.2049 -0.2484
94649W        W95513  17.784  20.050   8.795  0.1319  0.0399 -0.0777
94650W        W95514   4.948  12.428   0.230 -0.2175  0.1334 -0.1021
94651W        W95515  11.659  26.924  25.671  0.1123 -0.2123  0.0282
94652W        W95516  23.269  25.076   7.941  0.0776  0.1047  0.0457
94653W        W95517   9.439  21.682  17.579 -0.2153  0.1695  0.0545
94654W        W95518  24.801  10.372  26.601  0.1169 -0.0701  0.0665
94655W        W95519   9.944   5.511  10.551  0.3137 -0.1083 -0.3202
94656W        W95520  25.066  21.463  18.734 -0.1367 -0.1025  0.0451
94657W        W95521  27.736   6.507  17.059 -0.0968 -0.0673 -0.1197
94658W        W95522   0.186  14.699  23.036  0.2838 -0.1001 -0.2572
94659W        W95523   1.346  22.469  15.681 -0.0006  0.3034 -0.2695
94660W        W95524  17.247  26.295  25.281  0.3293  0.2428  0.0091
94661W        W95525  11.302  10.974   5.489  0.3497 -0.2124  0.0651
94662W        W95526  27.918  16.913  25.906  0.0232  0.2410 -0.0277
94663W        W95527  24.962   0.604   7.340  0.1976  0.0646  0.1058
94664W        W95528  27.503  10.604  23.596  0.1906 -0.2188 -0.2714
94665W        W95529  17.336  18.391   9.714  0.1549 -0.1175 -0.1457
94666W        W95530  25.994  19.285  20.476  0.1852  0.0238  0.3479
94667W        W95531  12.666  23.398   1.449 -0.0383 -0.1313  0.0910
94668W        W95532   4.867   8.639   4.162  0.2112  0.1331 -0.3018
94669W        W95533  28.486  19.844  27.707  0.2995 -0.0704  0.1800
94670W        W95534  28.373  20.739  21.861  0.2391  0.0565  0.1947
94671W        W95535  10.736   9.395  12.434 -0.0581 -0.0848 -0.0042
94672W        W95536  25.922  23.836  17.984  0.2705 -0.1182  0.1963
94673W        W95537   1.514  12.644  16.449  0.0739 -0.0142 -0.0740
94674W        W95538  26.035  19.842  18.015  0.1643 -0.2426  0.0686
94675W        W95539  28.609  17.957  26.941 -0.3964 -0.1113 -0.2483
94676W        W95540  28.785  28.050  16.659  0.2135 -0.1122  0.2624
94677W        W95541  15.879  12.254  22.405 -0.1057  0.2442  0.2169
94678W        W95542   6.293  23.942  10.268  0.0962 -0.0407  0.0879
94679W        W95543   1.034   8.077  22.382 -0.1243 -0.1684 -0.1223
94680W        W95544   0.726  14.884  21.159  0.1170 -0.0769 -0.0240
94681W        W95545  22.289   3.942  24.325  0.3166 -0.3846 -0.2393
94682W        W95546   9.520  25.844  19.243  0.1469 -0.1442  0.2292
94683W        W95547   3.206  11.769  22.331  0.2167 -0.0151  0.0730
94684W        W95548   2.822  11.291  10.783 -0.0586  0.1671  0.0794
94685W        W95549  24.635  26.817  25.201 -0.0209  0.0253 -0.1807
94686W        W95550  17.227  19.694  15.264  0.1163  0.1758 -0.0259
94687W        W95551   7.032   4.696   3.756 -0.3669 -0.2993  0.0347
94688W        W95552  26.718  11.694  12.966 -0.3516  0.0160 -0.0811
94689W        W95553  25.665  11.506   3.803  0.1538 -0.0355  0.1241
94690W        W95554  15.326   2.455  29.006 -0.0110 -0.2407  0.2006
94691W        W95555  25.245  15.014  25.995 -0.2670  0.0945  0.1366
94692W        W95556   8.966  24.779   9.093 -0.0241  0.0179 -0.1414
94693W        W95557  23.264  18.607  28.165 -0.2881  0.1328  0.1893
94694W        W95558  18.619   4.595   1.025 -0.1005 -0.3220 -0.1814
94695W        W95559  21.027  16.198   0.233 -0.1073  0.0111  0.3012
94696W        W95560   9.332   1.553  10.756 -0.1281  0.2492  0.1860
94697W        W95561  17.824  27.629  12.272  0.1411 -0.1054  0.1288
94698W        W95562  15.797  22.985  26.285 -0.0297  0.0493 -0.1204
94699W        W95563   7.459  17.488  21.857 -0.3008 -0.1340  0.1030
94700W        W95564  24.836  28.104  19.824  0.1212  0.0331  0.2988
94701W        W95565  23.869   7.751   1.025 -0.1587 -0.2010  0.3278
94702W        W95566  25.222  23.076   3.981  0.2179 -0.1531  0.1871
94703W        W95567   0.359  10.370  21.265  0.3407  0.0937  0.4653
94704W        W95568  11.097   8.303  18.086 -0.0844  0.1584 -0.0006
94705W        W95569   9.908  28.476  13.325  0.3680 -0.0060  0.0256
94706W        W95570  23.291  13.649  16.647 -0.1800  0.0132  0.4195
94707W        W95571  21.420   4.382  24.592  0.0320  0.0505  0.2584
94708W        W95572  28.573   6.332  11.883 -0.3340 -0.0241 -0.0960
94709W        W95573  25.290   5.429   9.675 -0.1270  0.0416 -0.3286
94710W        W95574  16.382   9.408   8.845 -0.2570  0.0523 -0.1216
94711W        W95575  25.285  12.133  27.313  0.1285  0.1464 -0.0691
94712W        W95576   0.820   7.110  19.932 -0.0878  0.4222 -0.0940
94713W        W95577  21.422  27.303   4.296 -0.0712  0.0473  0.0745
94714W        W95578  21.501  14.726  26.223 -0.0216  0.0143  0.0052
94715W        W95579  25.281  23.070  21.192  0.0503  0.0545  0.1419
94716W        W95580   0.708  19.956   3.154 -0.1992  0.0960 -0.0921
94717W        W95581  10.748  19.414  21.375 -0.0960 -0.0019  0.3325
94718W        W95582   0.490  11.474   6.221  0.0027 -0.0763  0.1094
94719W        W95583  25.703  25.471   9.270  0.3587 -0.0661  0.1634
94720W        W95584  28.808  28.315  17.387 -0.0224 -0.2619  0.2003
94721W        W95585   6.916   8.033  16.824  0.0836  0.1450  0.1893
94722W        W95586  16.281  22.650  22.628 -0.4092  0.1343  0.0694
94723W        W95587   1.923   2.501  20.175  0.1976  0.0055 -0.0682
94724W        W95588   9.013   1.624   0.673 -0.3543 -0.1094 -0.1880
94725W        W95589  11.635  20.567   3.908  0.1156 -0.1292 -0.3075
94726W        W95590  28.286  15.850   2.911  0.1136  0.1039  0.0751
94727W        W95591  24.079  19.836  11.289  0.1636 -0.2459  0.0790
94728W        W95592  28.353  21.364   5.461  0.0427  0.0202 -0.0063
94729W        W95593  26.912  26.871  12.817  0.0371  0.1066  0.0420
94730W        W95594  25.785  15.402   1.305 -0.1012  0.2935 -0.1705
94731W        W95595  17.138  29.089  21.775 -0.0354  0.0985 -0.3576
94732W        W95596  12.977  11.067  12.626  0.4892  0.0715 -0.0715
94733W        W95597   8.812   6.752   6.669  0.3014 -0.0434  0.0689
94734W        W95598   0.464   5.954  20.983 -0.0646 -0.0200 -0.0696
94735W        W95599  24.172  22.639  22.041 -0.2350 -0.1935  0.0022
94736W        W95600   8.925  12.086  20.865 -0.1030 -0.2552 -0.2929
94737W        W95601   9.073   6.181  24.711 -0.4183  0.1172 -0.2433
94738W        W95602  25.468  15.437   7.783  0.3707  0.1550 -0.0012
94739W        W95603   2.096  28.489  25.592  0.0970  0.0626  0.2688
94740W        W95604  20.034   6.690  19.139 -0.1568  0.1313 -0.1433
94741W        W95605   5.059   1.725  18.303  0.3900  0.1359 -0.1984
94742W        W95606   6.938  11.884  16.292  0.0197 -0.1239 -0.0446
94743W        W95607   6.842  10.022  20.235 -0.0998  0.3520 -0.0359
94744W        W95608  13.295  29.127  18.895 -0.0141  0.4203 -0.0363
94745W        W95609  16.096  12.693   5.987  0.5004  0.1722 -0.0279
94746W        W95610  24.703   3.357  21.395  0.2093 -0.2523  0.4807
94747W        W95611   0.133  20.391   9.490 -0.0051  0.2928  0.0290
94748W        W95612   4.547  12.747  17.593  0.1916 -0.0491 -0.0194
94749W        W95613  22.366   4.276   2.604  0.0365 -0.3563 -0.3712
94750W        W95614   1.705  26.534  22.121  0.2235  0.1119 -0.0775
94751W        W95615  24.207   8.657  25.205  0.0163 -0.2202  0.6006
94752W        W95616  29.089  24.672   0.866 -0.0689 -0.1087 -0.0981
94753W        W95617  23.445  24.357   2.788  0.1662  0.1314 -0.0285
94754W        W95618   3.456   5.543  17.204 -0.0054  0.3575 -0.0499
94755W        W95619  17.346  11.439  18.707 -0.0129 -0.0460 -0.0013
94756W        W95620  15.125   3.906  14.077  0.1184 -0.3001 -0.0551
94757W        W95621   6.010  10.794  23.595  0.0201  0.5396  0.0273
94758W        W95622  11.992  22.431  27.903  0.0616 -0.1664 -0.1894
94759W        W95623  15.027  11.936  14.798 -0.1801  0.1330 -0.2009
94760W        W95624   5.639  14.681  21.941 -0.1266 -0.0031  0.0580
94761W        W95625  28.039   1.258  18.291  0.1640  0.2310 -0.0205
94762W        W95626  24.787   7.456  19.727 -0.1211 -0.0999  0.1425
94763W        W95627  26.517  27.451  22.861 -0.3475  0.1245  0.0265
94764W        W95628   5.715  16.620  16.869  0.1213 -0.1882  0.0133
94765W        W95629   2.408   1.181  18.044  0.0589  0.2218 -0.0807
94766W        W95630  21.473  19.683  13.329  0.0437 -0.0977 -0.2317
94767W        W95631  16.460  10.045   4.224  0.0413  0.2097  0.0051
94768W        W95632  19.515   5.548  13.041 -0.2996  0.1028  0.2273
94769W        W95633  26.702   2.670  14.105  0.3450  0.0582 -0.0339
94770W        W95634   5.028  24.379  26.609  0.0140  0.2428  0.1476
94771W        W95635  20.947   5.006  16.746  0.1366  0.0266 -0.0576
94772W        W95636  24.177   1.264  20.325 -0.2291 -0.2597  0.0752
94773W        W95637  22.375  18.321   6.208  0.4666  0.2076 -0.0925
94774W        W95638   9.197   7.461  15.733  0.0379 -0.0951  0.0033
94775W        W95639   6.896  24.597  16.330  0.0268  0.3977 -0.2015
94776W        W95640  22.411  22.538  12.322 -0.6106  0.3044 -0.1537
94777W        W95641   1.353  16.768  18.738 -0.1107 -0.1751 -0.1929
94778W        W95642   3.077  16.410   7.397 -0.3613  0.0444  0.1027
94779W        W95643  25.961   2.367   3.260  0.1009  0.4696  0.0973
94780W        W95644  28.388  15.222  18.447  0.4301  0.1310  0.2269
94781W        W95645  17.167  13.836  22.611 -0.2532  0.0836 -0.1466
94782W        W95646  28.795  19.166   2.261 -0.2668  0.0514 -0.0356
94783W        W95647   4.548  23.275  24.464 -0.2196 -0.2170 -0.0289
94784W        W95648  26.347  23.314  19.715  0.1130 -0.1604 -0.1391
94785W        W95649   3.436   7.036  24.571  0.0725  0.1865  0.0387
94786W        W95650   6.318  15.301  28.140 -0.0525  0.0012  0.2500
94787W        W95651  22.749  12.056   4.141 -0.0990  0.1545 -0.2913
94788W        W95652  16.797  25.351  28.645  0.0254 -0.2379  0.2069
94789W        W95653  28.494   8.930  26.377  0.3308 -0.2147 -0.0465
94790W        W95654   8.325  26.495  21.566  0.0442  0.2444 -0.2804
94791W        W95655   9.303   4.225   7.918  0.3157  0.1110 -0.1501
94792W        W95656   3.403  17.404  26.816 -0.1706  0.0777  0.0820
94793W        W95657   3.504  18.807  22.177 -0.2554  0.0667  0.2651
94794W        W95658  21.515  17.778  16.624  0.0327  0.0617  0.0170
94795W        W95659  27.203  10.840  19.752 -0.1283 -0.0823  0.2320
94796W        W95660  16.461  19.423  19.423 -0.0264 -0.1947 -0.1614
94797W        W95661   2.955   4.835  24.445 -0.0182 -0.0139 -0.0070
94798W        W95662   1.457  17.982  21.881  0.0190  0.0762 -0.2575
94799W        W95663  14.056  15.150   2.342 -0.1235  0.1295 -0.2130
94800W        W95664  10.431  18.393   5.245 -0.0831 -0.1356 -0.2043
94801W        W95665  27.170  23.793   2.498  0.0580 -0.1371  0.0165
94802W        W95666  11.452  17.643   2.186 -0.1977  0.0671 -0.2661
94803W        W95667  12.153  10.624   5.779  0.2150  0.0440  0.1429
94804W        W95668  22.070  28.612  17.119 -0.0874  0.1387  0.1533
94805W        W95669   3.296  15.203  25.096  0.0162 -0.1235  0.1947
94806W        W95670  22.563   0.635   7.505  0.2202  0.1815  0.1305
94807W        W95671   6.399  18.642   1.611  0.0088  0.0704  0.0666
94808W        W95672   7.124  22.985   8.839 -0.1029 -0.0995 -0.0481
94809W        W95673   0.123  18.297   8.514 -0.4047 -0.0286 -0.0234
94810W        W95674  15.180  18.153   5.488 -0.0241 -0.2356 -0.3892
94811W        W95675   8.138  13.370  23.389 -0.0782  0.2322 -0.0309
94812W        W95676  24.797  18.079  23.423  0.2501 -0.0035 -0.0630
94813W        W95677  24.029  12.213   4.370  0.0515 -0.0191  0.2856
94814W        W95678  20.192  12.310   0.053  0.1275 -0.1263  0.0219
94815W        W95679   0.023  20.142  15.888 -0.0718 -0.1816 -0.2680
94816W        W95680   0.389   1.465   8.664  0.3822 -0.0861  0.0181
94817W        W95681  16.554   5.350  16.292 -0.1400 -0.1619  0.2611
94818W        W95682  22.313   8.951  26.197  0.1630  0.0226 -0.1876
94819W        W95683   1.112  16.079  25.027  0.0395 -0.2272 -0.0936
94820W        W95684   1.848   8.296  20.858  0.1732 -0.0592  0.1973
94821W        W95685  20.387  19.798  18.971 -0.1049 -0.1455  0.0254
94822W        W95686  12.257  17.065   7.255 -0.2085 -0.1788 -0.1247
94823W        W95687   1.879  26.385  24.224 -0.3893 -0.2350 -0.3170
94824W        W95688  20.272  27.863  28.149 -0.0562 -0.1114  0.2198
94825W        W95689  21.660   4.162   4.081  0.1770  0.0194 -0.1343
94826W        W95690  26.919  11.197  26.618  0.1067 -0.0633 -0.0160
94827W        W95691  11.511  11.409  19.981  0.0916  0.0725  0.2234
94828W        W95692  20.337  18.214   3.350  0.0166  0.3052  0.1243
94829W        W95693  18.880  21.420   8.895  0.2111 -0.3545 -0.4888
94830W        W95694   2.219  23.422  11.830 -0.2405 -0.0823 -0.1870
94831W        W95695  28.678   2.826  10.815 -0.3014 -0.1457 -0.3163
94832W        W95696   2.911  14.176  25.296  0.0699 -0.0399 -0.4527
94833W        W95697   0.859  22.001  19.518 -0.3414  0.0314  0.0095
94834W        W95698  26.690  13.939  18.221  0.1693 -0.1137 -0.1903
94835W        W95699  28.543  18.577  20.968  0.3324 -0.1727 -0.1092
94836W        W95700  15.583  10.790  22.336  0.0598 -0.1264  0.3426
94837W        W95701   6.450  24.381   7.764 -0.0421  0.1546 -0.3140
94838W        W95702  23.428   7.588   4.589 -0.1112  0.0676  0.0597
94839W        W95703  10.106  26.882  26.662  0.0248  0.1210  0.0432
94840W        W95704  12.780  13.541   9.745  0.1022 -0.0538 -0.0529
94841W        W95705  20.840   2.849  24.244  0.1886  0.2445  0.0414
94842W        W95706   2.023  17.110   7.748 -0.1277  0.1731 -0.0779
94843W        W95707  12.099   2.876  23.718 -0.0009 -0.5934 -0.0722
94844W        W95708   1.765  21.280  11.826  0.2273 -0.5497 -0.0524
94845W        W95709   8.209  26.968  12.406  0.0036  0.1449  0.1999
94846W        W95710   6.420  25.174   6.872  0.0795  0.2734 -0.0342
94847W        W95711   5.539  17.954  18.245  0.2276 -0.1448  0.0985
94848W        W95712   9.458   4.692   7.626 -0.0062 -0.1355 -0.1356
94849W        W95713  25.112  18.149   1.256  0.3152  0.1100 -0.0374
94850W        W95714  18.612   8.926  20.647  0.2281  0.1126  0.0165
94851W        W95715   5.535  23.920   7.230 -0.2699 -0.1124  0.1234
94852W        W95716  14.382  14.227  14.058 -0.0852  0.0584  0.3157
94853W        W95717   6.398  23.912  18.255  0.0491  0.0485 -0.0515
94854W        W95718  22.728   8.512   2.011 -0.0330 -0.2167  0.3144
94855W        W95719   4.213  17.990   6.095  0.2527  0.1606  0.2315
94856W        W95720  28.712   2.300  12.475  0.0429  0.0069  0.0663
94857W        W95721  21.626  23.094   4.334  0.2052 -0.1001 -0.0513
94858W        W95722   3.156   7.755   1.577  0.1746  0.0766  0.2764
94859W        W95723   9.590  27.928   1.320 -0.0404 -0.2820 -0.2472
94860W        W95724  15.122   9.384   0.299 -0.1547 -0.2546 -0.1592
94861W        W95725   5.224   7.639  23.159  0.2102 -0.0109 -0.0180
94862W        W95726   0.975  18.918  14.690  0.1461  0.0045 -0.1673
94863W        W95727  28.866   6.692   0.064 -0.0677 -0.0303 -0.0902
94864W        W95728   1.488   2.551   0.975  0.0965  0.0558  0.0254
94865W        W95729  21.808  17.273  24.996  0.1879  0.1832  0.0871
94866W        W95730  18.730  12.183   5.052  0.0933  0.1526  0.1680
94867W        W95731   2.580  14.957   8.571 -0.2699 -0.0933 -0.1358
94868W        W95732   3.430  18.060   3.366 -0.0862 -0.1330  0.1969
94869W        W95733  19.264   3.224  15.547 -0.0047  0.2950 -0.4270
94870W        W95734  11.446  22.390  21.663 -0.1342  0.0934  0.1055
94871W        W95735   6.188  18.039  26.253  0.0373  0.5130  0.0421
94872W        W95736   4.729  12.561   1.078 -0.1169 -0.0075  0.0937
94873W        W95737  20.370  24.254   0.309 -0.0573  0.0004  0.1836
94874W        W95738   9.383  10.239  16.465  0.0352 -0.1115  0.0481
94875W        W95739  26.865  13.144   3.969 -0.0003 -0.0362  0.0522
94876W        W95740  21.475   7.887  11.436  0.0100  0.1456 -0.3967
94877W        W95741   4.717   5.672   0.430  0.2243  0.0481 -0.0289
94878W        W95742  17.397  20.543  15.976  0.0150 -0.0478  0.1280
94879W        W95743  24.399  14.326  23.870 -0.1629 -0.1538  0.0468
94880W        W95744   5.420  23.676  12.066 -0.0412 -0.0125 -0.2282
94881W        W95745   3.012  26.844  21.743  0.1984 -0.2803  0.0339
94882W        W95746  22.282   3.246   0.466  0.4641  0.2354 -0.0464
94883W        W95747  20.304  20.039   7.144  0.2374  0.0143 -0.0213
94884W        W95748  25.610   6.365   6.118 -0.1615 -0.0452  0.1416
94885W        W95749   0.913  17.941   7.229  0.1112  0.2666  0.0177
94886W        W95750  16.221  22.442  17.478  0.1028 -0.1225  0.0460
94887W        W95751  14.226  12.827   6.485  0.1261  0.0182  0.0571
94888W        W95752   0.079   2.739   0.929 -0.1084 -0.1149 -0.0031
94889W        W95753  10.458  26.290  11.864  0.0819 -0.4300  0.2015
94890W        W95754  27.666  18.468   2.433 -0.3654  0.1381 -0.1228
94891W        W95755   7.264   7.247   3.148  0.1862  0.0668  0.2361
94892W        W95756   9.872  23.197   6.251 -0.0826 -0.0797  0.1854
94893W        W95757   9.574  11.349   8.626  0.2219 -0.0052 -0.0445
94894W        W95758  14.004  24.674   3.253 -0.0294 -0.2166  0.2025
94895W        W95759   4.852  21.281  21.224 -0.1298  0.1715 -0.1087
94896W        W95760  19.016  18.397  20.624  0.2770 -0.0892  0.2094
94897W        W95761  12.998  15.492  19.261  0.0344  0.1603  0.3125
94898W        W95762   5.850  17.909  27.093  0.0198 -0.1401  0.2344
94899W        W95763   7.273  13.289  22.736 -0.2036 -0.3326 -0.1340
94900W        W95764   9.112   1.799  15.152 -0.1209  0.3222 -0.0262
94901W        W95765  17.137   8.635  14.521 -0.2657 -0.0580  0.0157
94902W        W95766  12.890  23.031  10.660  0.0759 -0.0380  0.3244
94903W        W95767  10.642  27.874  26.736 -0.2261  0.1024  0.0913
94904W        W95768  15.399  21.523   1.735  0.1746  0.0631 -0.1459
94905W        W95769  26.086   8.346  21.689  0.1954 -0.0056 -0.0609
94906W        W95770  23.776  17.986   9.504 -0.1750  0.0200 -0.2950
94907W        W95771  24.106  24.291   1.614  0.0194  0.2393  0.2268
94908W        W95772  23.786  23.141  23.223  0.0858 -0.1405 -0.2129
94909W        W95773  25.932  15.200   4.671 -0.0409 -0.1005  0.0330
94910W        W95774  28.537   5.480  15.728  0.1997  0.0080  0.3060
94911W        W95775  21.096  14.654   5.041  0.0619 -0.1451  0.1341
94912W        W95776  21.551   3.619  13.701 -0.2002  0.1189 -0.1832
94913W        W95777  25.664  19.880   3.333  0.2343 -0.0220 -0.0734
94914W        W95778  19.962  22.393  19.845 -0.1661  0.1478  0.1911
94915W        W95779   8.996  10.481   5.673 -0.0414 -0.0443 -0.0224
94916W        W95780  28.185  11.764  23.254  0.2121  0.0699  0.1850
94917W        W95781   2.995   7.549   2.784  0.3093 -0.1121 -0.1941
94918W        W95782   1.998  18.481  18.040  0.1134 -0.0567 -0.4331
94919W        W95783  10.771   7.657  27.709 -0.0254  0.0390 -0.3531
94920W        W95784   5.992  24.768   2.588 -0.0182 -0.0350  0.1067
94921W        W95785  19.704   7.489  11.412  0.1052  0.0366  0.0961
94922W        W95786  17.416  16.862  24.014  0.3308  0.1261  0.0251
94923W        W95787  22.431   5.678  27.045 -0.0924 -0.2000 -0.1427
94924W        W95788   7.973  17.568  19.763  0.0465  0.1655 -0.1624
94925W        W95789  21.749  16.263  11.684  0.0683 -0.1786  0.0168
94926W        W95790  13.921   8.078  13.042 -0.1464 -0.1769  0.1591
94927W        W95791   3.844   7.326  24.524  0.0166 -0.4122 -0.1505
94928W        W95792   0.463  14.264  23.080 -0.1543  0.0622  0.0641
94929W        W95793  15.846   8.709   0.001  0.0140  0.0593  0.1471
94930W        W95794   6.676  14.624   3.375  0.1365  0.1843 -0.0520
94931W        W95795  22.930  17.227  19.529  0.0821 -0.1101 -0.0793
94932W        W95796  22.851  20.997   5.287 -0.2343 -0.0913  0.2829
94933W        W95797   0.830  26.667   5.987  0.3917  0.0092 -0.2640
94934W        W95798  28.344  13.672  10.154 -0.1199 -0.2499 -0.1036
94935W        W95799   5.582   7.792  11.921  0.3014 -0.2483 -0.1477
94936W        W95800  10.033  20.339  21.277  0.0859 -0.1918 -0.0123
94937W        W95801   7.336   1.097  12.530 -0.3002  0.1018 -0.1116
94938W        W95802  25.547   6.861  23.275  0.1693 -0.2063  0.0033
94939W        W95803  28.738  12.595  28.822 -0.1897 -0.0899  0.0216
94940W        W95804   0.881   2.564  13.741 -0.2310  0.0662  0.1125
94941W        W95805  14.965  12.664   6.912  0.4332  0.3069 -0.0928
94942W        W95806  11.679  24.961  13.525  0.2510  0.1703  0.0147
94943W        W95807  20.250  23.689   3.651 -0.0308  0.2541 -0.0352
94944W        W95808  11.146  12.117   3.496  0.1426 -0.2212  0.1581
94945W        W95809  13.163   2.584  16.603  0.2102  0.0975  0.2680
94946W        W95810  28.958   8.633  23.061  0.1303 -0.4563  0.0825
94947W        W95811  21.513  24.354   1.836 -0.0756  0.1161 -0.1147
94948W        W95812   3.533   7.179  14.271 -0.0373 -0.2892 -0.2011
94949W        W95813   0.641  14.277  27.927  0.0348 -0.1944  0.3748
94950W        W95814   1.290  20.936  25.004 -0.0038 -0.0889 -0.0371
94951W        W95815  13.031  29.041  12.863 -0.4261  0.0551  0.1328
94952W        W95816   1.531   6.730  26.189  0.2673  0.2898  0.1734
94953W        W95817  12.528  16.319  27.600 -0.0029  0.0722 -0.3445
94954W        W95818  12.002  13.855   0.278 -0.0182  0.0603  0.0545
94955W        W95819   4.232  26.768  13.570 -0.1722  0.2954 -0.2057
94956W        W95820  23.111  23.934  10.223  0.2906  0.0891 -0.1230
94957W        W95821  28.417   1.211  13.235  0.1610 -0.2662 -0.2158
94958W        W95822  11.186  15.958  21.066  0.1169 -0.1777  0.1906
94959W        W95823  15.950   1.876  23.655  0.2787  0.1775 -0.1054
94960W        W95824   6.488  13.086   2.348 -0.2324 -0.1401 -0.5265
94961W        W95825  16.345  21.137   0.002 -0.2457 -0.0723 -0.1412
94962W        W95826   4.606   5.992  23.473 -0.1557  0.2148  0.0384
94963W        W95827   8.024  13.132   3.591 -0.1125  0.1662 -0.1357
94964W        W95828  13.554  20.094   4.634 -0.0654 -0.0071  0.0455
94965W        W95829  16.829   1.965   4.895 -0.0012  0.0197  0.0565
94966W        W95830  16.587  11.883   5.654  0.0434 -0.0703  0.0288
94967W        W95831   0.243  28.459  11.809  0.2138  0.2468  0.2308
94968W        W95832   1.841  12.839  25.628 -0.0566 -0.1118 -0.0083
94969W        W95833  13.221   9.121   8.423 -0.0059  0.2331 -0.0387
94970W        W95834  27.019  14.126  23.835 -0.3327 -0.0747  0.1409
94971W        W95835  26.321  21.488  11.250  0.0359  0.1888 -0.0553
94972W        W95836  20.324  25.009  25.007  0.0542  0.1861 -0.0811
94973W        W95837   8.620   3.404  26.895  0.0407  0.1467 -0.0263
94974W        W95838  19.777  19.035   1.812 -0.1863  0.2601  0.3327
94975W        W95839  27.563  14.674   1.224 -0.4406  0.0415 -0.0191
94976W        W95840  23.822  16.153  23.569 -0.0485 -0.2654 -0.1831
94977W        W95841  26.723  13.541   9.461 -0.2669 -0.2072  0.1842
94978W        W95842  26.738   4.723  24.578 -0.1998 -0.0790  0.0986
94979W        W95843   2.789   9.871  20.931 -0.2187 -0.1482  0.4588
94980W        W95844  22.314   6.343   3.548  0.3127  0.0600 -0.1437
94981W        W95845   4.833  13.444  21.821  0.0481  0.1838  0.1229
94982W        W95846  19.142  14.633  25.901 -0.4005 -0.0092  0.0097
94983W        W95847   9.208  21.294  22.052 -0.1013 -0.1375 -0.1443
94984W        W95848   5.364   7.521   3.184 -0.1544 -0.0530  0.0947
94985W        W95849  27.489  16.866   5.067  0.1623 -0.0556 -0.0214
94986W        W95850   0.200  15.105   9.011  0.0700 -0.2248 -0.2282
94987W        W95851  18.295  14.070   3.339  0.1111 -0.0132  0.0557
94988W        W95852  16.236  27.705   8.544  0.0234  0.2169 -0.1858
94989W        W95853  28.654  25.083  19.823  0.1427  0.2594  0.1295
94990W        W95854  18.285  19.896   5.827  0.1959 -0.0888 -0.2207
94991W        W95855  12.266  18.749   3.585 -0.0454  0.0175 -0.0592
94992W        W95856  14.154  13.059  17.012  0.0252  0.1297  0.2765
94993W        W95857   6.518  17.330  28.230 -0.0519 -0.3522  0.0884
94994W        W95858  15.378  13.117  24.516 -0.0126 -0.1973  0.2686
94995W        W95859  16.923  11.299  24.897 -0.0663  0.0531 -0.1920
94996W        W95860  18.085   0.707  28.686 -0.3419  0.4790  0.0757
94997W        W95861  25.930  22.102  28.089  0.0114  0.3462  0.1254
94998W        W95862  25.027  21.611  28.075  0.1656  0.3279 -0.3608
94999W        W95863  20.916  14.524  13.662  0.1843 -0.0315 -0.2020
95000W        W95864  25.255   6.837   1.538  0.1273  0.0001 -0.0372
95001W        W95865  28.541   6.308  23.466  0.0609 -0.2028  0.1977
95002W        W95866   6.845   9.578   6.816  0.0232 -0.1308 -0.1017
95003W        W95867  25.686  16.848  17.731 -0.0758 -0.1663 -0.0367
95004W        W95868  21.271   5.338  14.731  0.0235 -0.1071 -0.4026
95005W        W95869  22.193  12.724  11.996  0.0845 -0.0445  0.2310
95006W        W95870  20.768   3.948  20.585 -0.1374  0.2978  0.1989
95007W        W95871   1.234  16.311  28.474  0.0198 -0.3349 -0.0723
95008W        W95872  26.337  18.281  24.301  0.1126  0.0166 -0.2919
95009W        W95873  28.708  23.912  26.760  0.0510  0.0214 -0.0708
95010W        W95874   5.405  24.399  11.322  0.1177  0.2522 -0.1128
95011W        W95875  11.093  28.321  19.435  0.2122  0.0638  0.1963
95012W        W95876   7.223   5.352  17.923 -0.3199 -0.2841  0.2862
95013W        W95877  14.381   1.308   1.443 -0.3006  0.4754 -0.2426
95014W        W95878  15.364  21.444  26.747  0.1354  0.1662 -0.0906
95015W        W95879   1.177  13.018  25.685 -0.1326  0.2941  0.2745
95016W        W95880  12.861  24.261  22.688  0.3098 -0.0520  0.1229
95017W        W95881  27.932   4.100  11.432  0.0794  0.2210 -0.0827
95018W        W95882  21.718  10.050  26.546 -0.1242  0.0328  0.0735
95019W        W95883   6.541  28.975  17.297 -0.2539  0.0808  0.0336
95020W        W95884  13.750  22.832  22.678 -0.2204 -0.1307 -0.3418
95021W        W95885  28.721  19.169  19.777  0.0853  0.0485 -0.1622
95022W        W95886  27.995  21.383   2.742 -0.1018  0.1340 -0.0398
95023W        W95887  25.057  17.389  21.611  0.2364 -0.0331 -0.2000
95024W        W95888  22.156   5.667  21.367  0.0596  0.3856  0.0381
95025W        W95889  28.376   2.436   5.270  0.1175 -0.1824 -0.0381
95026W        W95890  11.513  28.251   5.359 -0.1359  0.2490 -0.1441
95027W        W95891  20.039  15.300  21.102  0.1358 -0.2296  0.3235
95028W        W95892  26.086  20.705   9.767  0.1676  0.1557 -0.0128
95029W        W95893   2.439  28.671  24.746  0.1547 -0.0926  0.2171
95030W        W95894  24.888   0.178  20.963  0.0440 -0.0430  0.1620
95031W        W95895  11.211  13.543  28.136 -0.0109  0.0666 -0.1964
95032W        W95896  17.836   0.089  27.176  0.1613  0.2989  0.1016
95033W        W95897  23.505  10.906  28.342 -0.2297 -0.0356 -0.0586
95034W        W95898  16.320  10.276   8.290 -0.0359  0.1728 -0.1466
95035W        W95899  26.463   5.133   7.541  0.3201  0.0956 -0.2030
95036W        W95900  19.912  22.097  12.671 -0.1864  0.1799  0.4281
95037W        W95901  23.889  22.041  15.575 -0.1322 -0.3492 -0.0663
95038W        W95902  28.877   7.263  20.456  0.0512  0.0687  0.1288
95039W        W95903  28.580  27.245   6.276  0.1533 -0.1387 -0.1731
95040W        W95904  24.104  23.328  16.485  0.0571  0.2228 -0.1628
95041W        W95905  24.592  26.802   9.787  0.0869 -0.0345  0.2115
95042W        W95906   5.825  25.404   2.665 -0.3356 -0.2153  0.1296
95043W        W95907   2.854  26.217  28.546 -0.0687  0.0271  0.0315
95044W        W95908  15.627  14.731  16.093 -0.1424 -0.3654  0.1709
95045W        W95909   2.956  13.939   8.875  0.0218 -0.0409  0.1046
95046W        W95910   1.489  19.236  26.239 -0.2969 -0.2217  0.2322
95047W        W95911   2.288   7.082   6.610 -0.1133  0.0111 -0.1139
95048W        W95912  13.061   8.826   6.580 -0.0409  0.0512 -0.2916
95049W        W95913   5.807  22.484  18.504 -0.0368  0.0266 -0.0472
95050W        W95914   4.596  22.666   7.856  0.3549  0.1729 -0.3738
95051W        W95915  22.687   9.010  25.172 -0.0199 -0.0391 -0.0619
95052W        W95916  20.437  22.671   1.133  0.1179  0.0105  0.0209
95053W        W95917   3.509  14.906  23.270  0.1631  0.1391 -0.1299
95054W        W95918  25.567  16.961  25.234 -0.0609 -0.1230 -0.1747
95055W        W95919   9.757  12.876   5.145 -0.0604 -0.2093 -0.0855
95056W        W95920   0.283  21.296  19.062  0.0211  0.0330 -0.0978
95057W        W95921  28.956  29.141  25.944  0.2592  0.1417 -0.0309
95058W        W95922   2.373  17.179   6.921 -0.1472  0.2443 -0.0035
95059W        W95923  16.830  12.423   3.173  0.0069  0.2058  0.1749
95060W        W95924   6.283  15.990  17.279 -0.2359 -0.1371  0.1821
95061W        W95925  17.579  19.605   1.730  0.0974  0.0509 -0.3542
95062W        W95926   9.986  16.707  13.443  0.0857 -0.0068 -0.0882
95063W        W95927  12.787  28.888  20.875  0.0785 -0.1307  0.3606
95064W        W95928  14.866  17.971  21.865  0.0828 -0.0886  0.3510
95065W        W95929   7.599   4.664  20.459  0.0754  0.1054 -0.2396
95066W        W95930  19.844   4.943  17.376 -0.1897  0.1337 -0.2256
95067W        W95931  24.940  18.803   2.918  0.0672 -0.0925  0.0474
95068W        W95932   1.576  12.260   0.879  0.0009 -0.0715 -0.0881
95069W        W95933  25.261   9.670  12.467  0.2329  0.0431  0.2466
95070W        W95934  29.036  13.762  25.092  0.0520  0.3081  0.1682
95071W        W95935  27.918  16.895  19.363 -0.1718 -0.5335  0.3260
95072W        W95936  17.310  20.736  17.527  0.1311  0.0719  0.1143
95073W        W95937   0.263   8.422  22.859 -0.3836 -0.1458 -0.0427
95074W        W95938  10.468  18.793   4.101 -0.0883 -0.1652  0.1471
95075W        W95939  10.318   8.064  24.421 -0.0267 -0.5481 -0.0245
95076W        W95940  28.211   6.904  24.235  0.0600 -0.0763 -0.1582
95077W        W95941   3.852   9.023  10.183 -0.2176  0.4812  0.0282
95078W        W95942  19.041  29.134  28.632  0.0061  0.0229  0.1642
95079W        W95943   6.774  20.403  28.928  0.0902  0.1299 -0.0303
95080W        W95944   7.654   4.489  22.816  0.1097  0.0883  0.2094
95081W        W95945   0.910  18.527  24.677  0.0884  0.3088  0.2057
95082W        W95946  27.730  19.625   6.202  0.1353  0.1982  0.1658
95083W        W95947  15.224  25.385   7.054  0.0611 -0.0583 -0.1401
95084W        W95948  10.184  21.535   5.991  0.1744 -0.0952  0.3403
95085W        W95949  16.971  24.694  20.219  0.0409  0.1595  0.0585
95086W        W95950  27.775  17.270   4.836 -0.0869 -0.2790 -0.2289
95087W        W95951  10.323  10.222  23.043  0.2587  0.1225 -0.0606
95088W        W95952  29.070  12.484  22.637  0.1113  0.0943 -0.0570
95089W        W95953   5.080  20.433  25.954 -0.1155  0.0679 -0.1294
95090W        W95954  11.168  23.559  25.360  0.0485  0.1409 -0.1509
95091W        W95955  25.620  25.162   7.658 -0.1721  0.1283  0.2103
95092W        W95956   6.582  17.408  19.469  0.1428  0.0529  0.1936
95093W        W95957  27.085  18.550   3.546  0.0881  0.2594 -0.0632
95094W        W95958  19.493  26.544   9.976 -0.1397  0.0287  0.0135
95095W        W95959   3.899  22.124   1.377 -0.0015 -0.0835 -0.1210
95096W        W95960  24.087  20.580   9.118 -0.0581  0.0656 -0.0309
95097W        W95961   5.934  11.133  14.022  0.2025  0.2227 -0.1597
95098W        W95962   6.686  20.200  21.965  0.1639 -0.2200 -0.1271
95099W        W95963   1.070  20.672  19.124  0.0735  0.0469  0.3982
95100W        W95964   9.462  15.394   0.612  0.1020 -0.2949  0.1211
95101W        W95965   7.354  20.956   6.113 -0.4537  0.0105  0.0186
95102W        W95966  27.820  17.798  17.235  0.1192  0.2447 -0.0021
95103W        W95967  14.624  16.599  28.996 -0.0476 -0.0234 -0.0607
95104W        W95968  17.945  26.627  18.213  0.1302 -0.2518 -0.0325
95105W        W95969   0.387  10.389   6.150 -0.1986  0.3056 -0.3371
95106W        W95970   0.800  28.089   2.905  0.0910 -0.2302 -0.0574
95107W        W95971   7.636   6.511  15.525 -0.0854  0.2691 -0.5216
95108W        W95972  22.699  27.481   3.558 -0.5295  0.1526  0.0512
95109W        W95973  26.133   3.717   0.140  0.1692  0.1036 -0.1774
95110W        W95974  25.577  22.063  20.951  0.1684 -0.0287  0.0415
95111W        W95975  11.657  16.738   7.757  0.0090  0.1400  0.4607
95112W        W95976   7.749  28.547  20.263  0.0728 -0.1071  0.0347
95113W        W95977  13.754   9.235  16.244  0.0215 -0.2049  0.3508
95114W        W95978   3.844   6.125   8.842  0.0803 -0.0433  0.2935
95115W        W95979  15.282  16.471   7.594  0.0439  0.2977  0.1189
95116W        W95980  17.490  14.612  25.001 -0.1962 -0.0712 -0.0476
95117W        W95981  16.451   9.468   0.902 -0.0241 -0.0588 -0.1060
95118W        W95982  13.567   1.988  13.140 -0.1056  0.1049 -0.2776
95119W        W95983  11.891  21.318  10.597  0.2756 -0.0305  0.0135
95120W        W95984  26.810   3.540  10.152 -0.4882 -0.1993  0.3521
95121W        W95985   5.068   4.333  18.351 -0.0062  0.1419 -0.0070
95122W        W95986  10.756   8.957   1.557  0.1079 -0.0086 -0.3505
95123W        W95987   6.574  16.768   8.732 -0.2653  0.0324 -0.0518
95124W        W95988  11.741  24.407   7.855 -0.0666  0.0067  0.2962
95125W        W95989  15.947  14.297   1.819 -0.0761 -0.0099  0.1719
95126W        W95990  20.746  24.876   8.932  0.2572  0.1084  0.0693
95127W        W95991   3.205  19.747   1.929 -0.0989 -0.1364  0.1030
95128W        W95992  22.565  18.631   9.930 -0.0430  0.2261  0.2230
95129W        W95993   5.830  11.887  22.813 -0.3092 -0.3870  0.0514
95130W        W95994  23.903  20.315  27.686  0.1462  0.2894  0.1297
95131W        W95995  11.376  18.781  24.684 -0.0672  0.0844 -0.1472
95132W        W95996  15.056  19.190  21.773 -0.0261 -0.0096 -0.0697
95133W        W95997  20.404  24.378  12.423  0.0651 -0.0813 -0.0839
95134W        W95998   3.477  26.763  19.222  0.1660 -0.0796  0.1722
95135W        W95999  24.880   6.665  25.914  0.2321  0.2061 -0.1433
95136W        W96000  22.496  13.746   2.193  0.2907 -0.0276 -0.0972
95137W        W96001   2.754  27.861  25.076 -0.1781 -0.0084 -0.2386
95138W        W96002  17.304  13.512   3.715 -0.0070  0.1889 -0.0437
95139W        W96003   3.293   1.957  25.815 -0.3129  0.0805  0.1899
95140W        W96004  28.095  26.687   2.582  0.0718  0.0474 -0.1140
95141W        W96005  16.130  22.313   2.858 -0.2577 -0.0610 -0.1232
95142W        W96006   9.941  19.152  22.146 -0.0075 -0.1726 -0.2187
95143W        W96007  22.804  11.207  22.776  0.1846 -0.0256 -0.0860
95144W        W96008   5.424  17.859  15.536 -0.0439  0.1943  0.1432
95145W        W96009  18.667  26.526   4.514 -0.0237 -0.0230  0.3073
95146W        W96010  24.800   1.498   8.879  0.1396 -0.3977 -0.1909
95147W        W96011  17.691  10.979   0.701 -0.1486 -0.0267  0.1006
95148W        W96012   0.790  20.636  22.341 -0.2052  0.0299 -0.1351
95149W        W96013   1.527  23.543  28.142  0.0372  0.0749 -0.1176
95150W        W96014  13.146   9.428   7.558  0.0158 -0.1131  0.1903
95151W        W96015  19.261  19.984   4.426  0.0803 -0.0939  0.1939
95152W        W96016  28.810  25.976  23.443 -0.0756 -0.4053  0.1129
95153W        W96017  17.695  26.155   5.333 -0.0401 -0.0297  0.1128
95154W        W96018  15.395  14.823  25.285  0.0267 -0.0401 -0.1566
95155W        W96019   5.380   2.893  23.908 -0.2740  0.1657  0.2460
95156W        W96020   0.767   3.522   4.796 -0.0941  0.2737 -0.2076
95157W        W96021   8.557  19.714  22.697  0.0177 -0.1295  0.0795
95158W        W96022  18.406  14.951  18.682  0.3745 -0.0509 -0.0151
95159W        W96023   2.394  26.361  11.045  0.0272 -0.1750  0.0799
95160W        W96024  16.820  15.704  12.856 -0.2463 -0.0398 -0.0616
95161W        W96025   7.105  26.037  12.079 -0.0341 -0.2308 -0.1335
95162W        W96026  26.505  16.578   0.986  0.0813  0.0348 -0.0115
95163W        W96027   8.802  21.690  14.088  0.0956 -0.1942  0.2800
95164W        W96028   1.802  11.602  28.330 -0.0776 -0.0580 -0.0887
95165W        W96029  11.749  19.440  27.150  0.1807  0.1340  0.4007
95166W        W96030  17.758  17.209   1.229 -0.1748  0.1605  0.0304
95167W        W96031   3.393   3.319  19.571 -0.3749  0.1539  0.2552
95168W        W96032   6.159   8.241  26.428 -0.0615  0.0411 -0.1226
95169W        W96033   4.239   2.526   1.486  0.0118  0.1203  0.0180
95170W        W96034  13.431  17.704  22.466 -0.1677  0.2379 -0.2165
95171W        W96035  12.415  12.240  22.239  0.3779 -0.0032  0.3118
95172W        W96036  18.724  18.711  13.495 -0.0670 -0.0053 -0.0577
95173W        W96037  27.172  26.454  28.939 -0.0492  0.0935 -0.2530
95174W        W96038  19.964  17.635   7.315  0.0774  0.0182  0.1290
95175W        W96039  11.878  24.764  13.038 -0.2413  0.0472 -0.0341
95176W        W96040   4.026  15.523  24.539 -0.0229  0.0839  0.1239
95177W        W96041   7.656   0.454  17.710  0.1265 -0.2430  0.0062
95178W        W96042   7.966  11.112  21.022 -0.1534  0.2043  0.1153
95179W        W96043  15.392  21.371  18.413 -0.1698  0.1579 -0.0700
95180W        W96044  14.953   8.837   0.858  0.1013  0.0993  0.2931
95181W        W96045   5.034  19.348  17.001 -0.2915  0.1092  0.1475
95182W        W96046  23.862   1.820  17.974 -0.2118  0.3709 -0.3325
95183W        W96047  20.804   9.704  27.102 -0.2490 -0.0799  0.3800
95184W        W96048  18.024   4.151  18.310 -0.0440  0.0211 -0.1382
95185W        W96049  20.195  27.031   7.315 -0.3288 -0.2654  0.0326
95186W        W96050   4.820  20.023  22.782 -0.1943 -0.0381  0.4251
95187W        W96051  22.348   4.235  20.358 -0.0441 -0.2539 -0.1711
95188W        W96052   0.313  14.202  14.778  0.1426  0.3768 -0.3765
95189W        W96053   2.911  18.620   5.825  0.1084 -0.0193  0.2389
95190W        W96054  23.140  19.948  27.817  0.0393  0.4979  0.2090
95191W        W96055  16.377  28.044   9.738 -0.2369  0.0832 -0.2669
95192W        W96056  19.697  18.476  25.432  0.0441  0.1936  0.1487
95193W        W96057  28.466  10.871   6.953 -0.0911  0.0347  0.0702
95194W        W96058  19.923  23.670  24.739 -0.0344  0.2666 -0.0385
95195W        W96059   5.651   0.723  10.458  0.2503 -0.1029 -0.1845
95196W        W96060  27.568  19.961  23.332  0.1585 -0.1487 -0.1029
95197W        W96061   2.214   0.296   2.157  0.3878 -0.2210 -0.0136
95198W        W96062  16.135  14.611  29.141 -0.0297 -0.3840 -0.2961
95199W        W96063   8.123  27.261  14.423  0.0573 -0.2510  0.2542
95200W        W96064  19.461  13.423  28.590 -0.0169  0.3077  0.0024
95201W        W96065  15.745   0.049  15.792  0.0186  0.0743 -0.0539
95202W        W96066  23.707   9.096  23.838 -0.0151  0.1123  0.0080
95203W        W96067   1.513  22.269  29.046 -0.0382  0.0005  0.1394
95204W        W96068  14.794  19.704   8.288  0.0906  0.1004 -0.0753
95205W        W96069  26.905   1.679  24.807  0.0553  0.0956 -0.2197
95206W        W96070   0.754  20.707  26.165  0.2063  0.3033 -0.0734
95207W        W96071  13.921   4.358  24.576 -0.0291 -0.0355  0.1130
95208W        W96072  10.716   8.296  20.541  0.1327  0.0346 -0.1717
95209W        W96073   2.910   2.002   6.126  0.2835  0.0172 -0.0812
95210W        W96074   8.066  10.040   2.115  0.2837  0.1385 -0.0943
95211W        W96075  13.643  24.022  26.996  0.3191  0.3304  0.1940
95212W        W96076  26.309  25.876  26.760 -0.2872  0.0922  0.0246
95213W        W96077  16.279   2.468  17.850  0.3806 -0.0020 -0.1324
95214W        W96078   9.055  16.460  28.900  0.5860 -0.0164 -0.1108
95215W        W96079   9.666   0.500  17.248  0.0269 -0.0626  0.1007
95216W        W96080  16.879   2.475   8.982 -0.0914  0.0400 -0.3295
95217W        W96081  23.989   9.392   8.334  0.0500  0.2436 -0.0280
95218W        W96082  21.447  12.455  27.348 -0.0331  0.0136 -0.0114
95219W        W96083   4.439  25.226  24.101  0.0543  0.0783  0.3315
95220W        W96084  10.402  26.571   4.827  0.2295  0.2310 -0.0793
95221W        W96085  28.041  11.291  23.437 -0.0473 -0.0951 -0.0193
95222W        W96086   0.158  24.518  10.448  0.0926  0.0406  0.0804
95223W        W96087  14.274  24.385  14.216 -0.1036 -0.0113 -0.2936
95224W        W96088  17.971  13.681  26.747  0.1964 -0.0664 -0.1600
95225W        W96089   5.500  21.878  12.647 -0.1807  0.0055  0.1552
95226W        W96090  16.831   6.593   1.758 -0.1364 -0.1357  0.0156
95227W        W96091  19.702   3.011   0.566 -0.1678 -0.1937 -0.4926
95228W        W96092   3.844  19.936   6.241 -0.2565 -0.0016  0.1638
95229W        W96093   0.827  11.646   9.378  0.1810 -0.0695  0.1962
95230W        W96094  12.055  12.571   3.169  0.3137  0.1619  0.1131
95231W        W96095   3.458   6.902  11.029 -0.0423  0.1470  0.1946
95232W        W96096  14.723  18.860   9.554  0.3586 -0.0060  0.0311
95233W        W96097  27.963  10.628  13.822 -0.1087 -0.3002  0.0386
95234W        W96098   3.048  11.888  11.891 -0.0839  0.3225  0.2013
95235W        W96099  20.050  18.275  16.640  0.0986 -0.0958  0.1186
95236W        W96100  19.429  20.954   8.157  0.0806 -0.0113  0.0714
95237W        W96101  22.217  22.275  29.087  0.0432 -0.1009  0.0804
95238W        W96102   3.080  23.908   8.906  0.0068 -0.0924  0.3142
95239W        W96103  22.213   0.166   1.101 -0.0527  0.0340 -0.0307
95240W        W96104  25.919  21.638  11.557 -0.0019  0.0944  0.1570
95241W        W96105  26.193  19.190  13.795 -0.1729 -0.0522  0.1296
95242W        W96106   7.888  13.879   1.199 -0.0737  0.0084  0.0160
95243W        W96107  14.060   1.642  20.315 -0.0694  0.1900  0.5117
95244W        W96108  28.829   9.843  26.388 -0.1385 -0.0430 -0.0988
95245W        W96109   9.647  23.821  26.661 -0.1770 -0.0094 -0.0914
95246W        W96110   4.515  22.224  11.984 -0.0073  0.0458  0.0457
95247W        W96111  24.700  10.673  17.640  0.0975 -0.2056  0.2716
95248W        W96112  12.852  19.857   1.188 -0.0369  0.2960 -0.0459
95249W        W96113   7.891  24.378  21.415 -0.2751 -0.1892 -0.0347
95250W        W96114   2.320  25.008  27.015  0.0335 -0.0937 -0.0732
95251W        W96115  19.093   2.443  12.243 -0.0797 -0.1775 -0.0058
95252W        W96116  26.822   1.794  19.104  0.1822 -0.1616 -0.2594
95253W        W96117  23.254  26.838  23.521 -0.0297 -0.0402 -0.1196
95254W        W96118  11.521  26.329   9.151 -0.0727  0.0909 -0.1465
95255W        W96119  23.113  24.405  21.589  0.3414 -0.2582  0.1249
95256W        W96120   7.272   0.093   4.918 -0.3366 -0.1014  0.2811
95257W        W96121   5.636   7.116  28.105 -0.2221 -0.2588  0.0506
95258W        W96122   7.991  20.971   5.355  0.5654 -0.0278 -0.1073
95259W        W96123  16.264  12.649   8.936  0.3148  0.0113 -0.1060
95260W        W96124  10.458  17.356  21.342 -0.0856  0.0935 -0.0459
95261W        W96125  14.847   6.214  11.978  0.1037 -0.0508 -0.0311
95262W        W96126  24.923  16.243  23.505 -0.2435  0.0022 -0.3039
95263W        W96127  20.593  22.589  28.518 -0.0078 -0.0397 -0.1702
95264W        W96128  22.801   8.366   3.991 -0.0199 -0.1207 -0.2770
95265W        W96129  25.819  11.591   9.531  0.0375  0.0518  0.0192
95266W        W96130   7.069  16.060  28.324 -0.0284 -0.0454 -0.3025
95267W        W96131  13.511  17.721  25.061 -0.1480  0.0081  0.0609
95268W        W96132   5.296  11.007  24.632  0.0722  0.0430 -0.2418
95269W        W96133  16.669   8.020  19.868  0.0521 -0.0225  0.3518
95270W        W96134   0.131  23.615   9.804  0.3262  0.1230 -0.0140
95271W        W96135   3.855  12.098   4.751  0.0386 -0.0858  0.1494
95272W        W96136  17.600  12.941  28.016  0.0016  0.1810  0.1094
95273W        W96137  21.709  24.808  20.568 -0.0505 -0.1850  0.0992
95274W        W96138  24.560  23.819  22.520 -0.2251  0.0642  0.0321
95275W        W96139   4.880  22.750  15.009  0.0609  0.2095  0.1695
95276W        W96140  17.881  22.638   5.590  0.0351  0.0960 -0.0457
95277W        W96141   0.095  14.430   1.855 -0.2206  0.0034  0.1792
95278W        W96142  27.001  16.983  15.893  0.2124  0.1058  0.1757
95279W        W96143  26.372  20.283   8.405  0.1816  0.2895  0.2110
95280W        W96144  17.414  26.699   9.741 -0.1817  0.3023  0.1397
95281W        W96145   7.281  26.422   9.314  0.0251  0.0114 -0.2098
95282W        W96146   2.035  22.079   3.056  0.1618 -0.0131  0.1082
95283W        W96147  23.549  12.630  10.896  0.0663  0.0370 -0.1714
95284W        W96148   1.406   7.738   0.597  0.2006 -0.1817 -0.0435
95285W        W96149   6.145  20.800   0.370 -0.0221 -0.0895 -0.1459
95286W        W96150  27.983  11.882  28.920  0.4022  0.0069 -0.1480
95287W        W96151  29.101  23.029  20.208 -0.3209 -0.0038  0.0662
95288W        W96152  25.876   9.126  24.392 -0.2603  0.1334 -0.3605
95289W        W96153  25.025   0.809   4.347  0.0067  0.0985  0.2447
95290W        W96154   8.030  14.838  16.718  0.1042 -0.1245 -0.1513
95291W        W96155   2.836  26.430  19.191 -0.2069 -0.1811 -0.5665
95292W        W96156  21.704  21.628  20.125  0.1488  0.1623 -0.0364
95293W        W96157  23.412  13.667  22.586  0.3394 -0.0969 -0.1383
95294W        W96158   3.744  20.501   2.858  0.0027  0.0904 -0.1356
95295W        W96159   1.047  26.366  23.785  0.1686 -0.2445 -0.1596
95296W        W96160  26.696  10.783   2.964  0.1625 -0.0582 -0.4007
95297W        W96161   3.784  16.610   1.067  0.2798 -0.1441 -0.0783
95298W        W96162  28.229  19.213   7.502  0.3489 -0.3286  0.0324
95299W        W96163   0.254  24.364  28.297 -0.0185 -0.0165 -0.0738
95300W        W96164  26.372  16.532  19.994 -0.2433 -0.1674 -0.0041
95301W        W96165   0.860  14.975  27.493 -0.1234  0.1159  0.0108
95302W        W96166   6.656  23.920  25.553 -0.0496  0.0725  0.0594
95303W        W96167  26.337  27.747  12.461 -0.0858 -0.0592 -0.0776
95304W        W96168   6.394   3.405  14.154 -0.3555  0.1514 -0.0263
95305W        W96169  26.942  16.433   3.824  0.0278  0.2294 -0.0892
95306W        W96170  14.159  12.313  18.789 -0.1627 -0.2077  0.1169
95307W        W96171  20.338  14.128   5.522 -0.2186 -0.0104 -0.1366
95308W        W96172   3.542  22.491  23.580 -0.0944 -0.2790 -0.1739
95309W        W96173   3.920   7.555  14.583 -0.2663  0.2737 -0.4564
95310W        W96174  19.414  11.520   5.630 -0.1275  0.2456  0.2892
95311W        W96175  29.106   4.581  24.411  0.2835 -0.1313 -0.2509
95312W        W96176   0.243  19.778  12.089  0.0891  0.0183  0.1540
95313W        W96177  16.608  21.759   3.629  0.2858 -0.1040  0.0787
95314W        W96178  24.065   0.509  23.872  0.1903 -0.1312 -0.0339
95315W        W96179   3.786  25.305   6.799 -0.1665 -0.4566 -0.1363
95316W        W96180  20.274  16.741   0.705 -0.0980  0.1756  0.3078
95317W        W96181  28.129   4.274   9.269 -0.2600  0.1055 -0.2314
95318W        W96182   6.120  28.879  14.922 -0.1717 -0.1249  0.1976
95319W        W96183  27.786  17.522  26.739 -0.2339  0.5010 -0.1836
95320W        W96184  12.997  14.172  22.749  0.0509  0.1838 -0.0619
95321W        W96185  22.916  22.317  10.766  0.1192 -0.2708 -0.1395
95322W        W96186  22.198  27.734  16.525 -0.2313 -0.2980 -0.0274
95323W        W96187  21.393  23.051  25.931  0.0707 -0.2415  0.0663
95324W        W96188   3.641  10.050   0.237 -0.1104 -0.1289 -0.2769
95325W        W96189  13.461  18.186   0.233 -0.1124 -0.0175 -0.1757
95326W        W96190  21.377  28.929  26.233  0.0614 -0.0446 -0.1547
95327W        W96191   2.366  21.572  28.994  0.3896  0.3462 -0.2598
95328W        W96192  26.788   4.853  24.037 -0.1796  0.2878  0.0573
95329W        W96193  26.106  16.048  27.230 -0.2839  0.0409  0.0225
95330W        W96194  13.500  23.147  26.884  0.1981 -0.1480 -0.1473
95331W        W96195   3.796  17.038  21.850 -0.0581 -0.0860  0.0899
95332W        W96196  21.899  27.079   4.273  0.0541 -0.3006  0.0764
95333W        W96197  26.348  29.034  25.493 -0.0137 -0.0728  0.0499
95334W        W96198  16.614  16.003   6.210  0.1880  0.0078 -0.0053
95335W        W96199   7.319  17.596   8.349  0.0785 -0.2128 -0.0597
95336W        W96200   7.624  11.445   0.373  0.0048 -0.1986 -0.4414
95337W        W96201  11.035  12.453  19.886 -0.2856  0.1131  0.0614
95338W        W96202  27.538   7.958  25.550  0.1897 -0.1223 -0.0945
95339W        W96203   0.408  15.399   6.979  0.0268  0.2532 -0.1616
95340W        W96204   2.319  17.718  26.966 -0.1887  0.1499  0.0081
95341W        W96205   1.302  19.075  24.062  0.1025 -0.2051 -0.1981
95342W        W96206   0.138  15.787  23.297  0.0643 -0.0675  0.0883
95343W        W96207  17.127  16.317  27.648 -0.0603  0.1367 -0.0550
95344W        W96208   3.029  27.519  29.118 -0.1606  0.2401  0.3002
95345W        W96209  18.447  11.901   0.958  0.1278 -0.0732 -0.1824
95346W        W96210  24.874   1.631  26.713 -0.1470 -0.0962 -0.0002
95347W        W96211  14.510  10.249  20.029 -0.1263  0.2799 -0.3306
95348W        W96212  19.967  26.848   5.557 -0.1493  0.0534 -0.3218
95349W        W96213   1.936   6.160  20.465 -0.2036  0.0034  0.4448
95350W        W96214   8.454  23.356   7.648  0.2875 -0.1824 -0.0911
95351W        W96215   3.722   4.667  12.421 -0.1534  0.0439 -0.0615
95352W        W96216   2.995  24.600   2.797  0.0292 -0.2628 -0.1389
95353W        W96217  26.958  15.280  22.969  0.2901 -0.2641 -0.2120
95354W        W96218  15.684   7.132  13.193  0.0759  0.0513  0.0367
95355W        W96219  27.071  23.400   7.655 -0.1325 -0.0455 -0.0183
95356W        W96220  15.852   3.683  28.652 -0.2242 -0.1848 -0.0430
95357W        W96221  18.637   7.293   7.887 -0.1010  0.1989 -0.2837
95358W        W96222   6.075   8.083  10.272  0.0786 -0.0194 -0.2248
95359W        W96223  11.638   3.253  28.513  0.3457  0.0708  0.1488
95360W        W96224  21.017  23.146  16.870  0.1674 -0.0377 -0.2035
95361W        W96225  20.361   4.071  22.589  0.1095  0.0184 -0.1463
95362W        W96226  23.647  27.719   5.549  0.2321 -0.1139 -0.0500
95363W        W96227   8.648  22.808  22.835  0.2564 -0.1087 -0.1487
95364W        W96228   0.431  17.407   1.147  0.0886  0.0729  0.0169
95365W        W96229   8.269  24.707  15.609 -0.0022 -0.1017  0.0915
95366W        W96230  27.218   8.120  20.816 -0.0936  0.3684  0.1827
95367W        W96231  25.641  24.817  26.218  0.0349  0.0554  0.3563
95368W        W96232  16.376  21.376  24.430 -0.2083 -0.0024 -0.1242
95369W        W96233  19.101  10.668   3.054  0.1886  0.2309  0.3746
95370W        W96234   8.036  13.095  24.348  0.3553  0.2930  0.1390
95371W        W96235  23.180  20.792  26.938 -0.3435  0.3448 -0.4095
95372W        W96236   0.264  24.907  16.757 -0.0379 -0.0774 -0.0613
95373W        W96237  23.992   5.152  22.935 -0.0701  0.2510 -0.2306
95374W        W96238  13.845  16.128   1.312  0.1632 -0.0367  0.0457
95375W        W96239  19.673  19.531  23.839  0.1268  0.1894  0.2925
95376W        W96240  26.793  17.017  23.644  0.4652  0.2444 -0.0247
95377W        W96241  22.524  15.809  16.340 -0.1444  0.1790 -0.0740
95378W        W96242  14.981  10.011   4.810  0.0407  0.2057 -0.1724
95379W        W96243   5.063  16.438  24.562 -0.1628  0.0906  0.2868
95380W        W96244   7.381   1.659   0.782  0.0138 -0.1223  0.0349
95381W        W96245  25.230  24.746   2.223  0.2453 -0.1132  0.1129
95382W        W96246   9.198  15.257   6.916 -0.0447  0.0432 -0.2822
95383W        W96247   4.760   4.709  17.310  0.1419 -0.0554  0.0358
95384W        W96248  26.293   4.981  17.754 -0.1754 -0.1419 -0.2143
95385W        W96249  14.493  16.705   9.610 -0.0026 -0.1731  0.1623
95386W        W96250  25.253  25.041   6.709  0.0338 -0.2537  0.1885
95387W        W96251  24.409   1.838   5.410 -0.1437  0.1435 -0.0771
95388W        W96252   2.128  19.682  21.070  0.1490 -0.0655  0.1058
95389W        W96253  14.347  11.185  21.565 -0.1184  0.1464 -0.3438
95390W        W96254   5.703   8.273  12.102 -0.0037 -0.3619 -0.3504
95391W        W96255  12.311  21.940  21.952  0.0005  0.5839  0.2300
95392W        W96256  20.584  12.013  28.090  0.3394 -0.1384 -0.4147
95393W        W96257  27.171   8.868  28.185 -0.1382 -0.2188 -0.0093
95394W        W96258  27.756   9.675  23.156 -0.1452 -0.1828 -0.3732
95395W        W96259   6.064  24.077   2.017 -0.1122  0.3055  0.1119
95396W        W96260  18.297  18.298  17.558 -0.0184  0.1046  0.0205
95397W        W96261  17.623  25.290   3.436  0.0195  0.2073  0.4622
95398W        W96262  14.383   9.687   0.374 -0.0472  0.0004  0.1086
95399W        W96263  24.972  17.217  28.744 -0.3389 -0.1055  0.1365
95400W        W96264  17.929  28.450  24.136 -0.1374  0.2645 -0.0214
95401W        W96265   8.393  23.630  24.552  0.3014 -0.1458  0.2680
95402W        W96266  13.220  19.065   0.137 -0.0185  0.0229 -0.0418
95403W        W96267   1.593  11.150  18.749  0.3347  0.1710  0.4350
95404W        W96268  22.778   5.417   1.750  0.1277  0.1915 -0.3526
95405W        W96269   5.379  22.915  27.161 -0.3881 -0.1262 -0.0811
95406W        W96270   6.383  17.842  20.339  0.4260  0.2492 -0.0721
95407W        W96271  20.285  22.826  10.742  0.0913 -0.2410  0.0384
95408W        W96272  26.238  24.132   6.469 -0.1356  0.2747  0.2297
95409W        W96273  25.500  19.000  15.000 -0.3796 -0.2006  0.0862
95410W        W96274  28.399  10.377  21.666  0.0585 -0.3908 -0.2047
95411W        W96275   5.292  21.345  14.989  0.1332  0.0298  0.1088
95412W        W96276  24.160  27.837   3.794  0.1703 -0.0394  0.1440
95413W        W96277   5.526  25.680  18.691 -0.3360 -0.0572  0.0134
95414W        W96278  27.674  14.856  11.453  0.1233 -0.0740 -0.2242
95415W        W96279   3.728   8.069  11.386 -0.0798 -0.1410 -0.2165
95416W        W96280  21.082   0.569  15.541  0.0537 -0.2548 -0.3119
95417W        W96281  25.089  15.320  19.755  0.0655  0.3399 -0.0406
95418W        W96282  22.427   3.202  24.492 -0.3033 -0.1314 -0.0054
95419W        W96283   6.314  18.809  16.272 -0.1412 -0.0084 -0.0660
95420W        W96284   0.262   3.836  21.662 -0.2116 -0.1636 -0.0425
95421W        W96285  26.687   3.147  17.483  0.0054 -0.0543 -0.3877
95422W        W96286   5.959  20.422   9.874 -0.0226 -0.1817  0.1078
95423W        W96287  12.490  13.386   6.252  0.0145 -0.0688  0.2708
95424W        W96288  14.135  21.599  10.940  0.0099  0.0230 -0.0910
95425W        W96289  21.637  20.013  18.873  0.3227 -0.1053 -0.2599
95426W        W96290   8.393   9.181  27.642  0.1030  0.0339  0.1734
95427W        W96291  11.339  10.816   2.163  0.4284  0.0686 -0.1322
95428W        W96292   8.683  28.246   8.239  0.1462  0.2284 -0.1267
95429W        W96293  25.346   8.653   3.256  0.0574 -0.1914  0.0158
95430W        W96294   1.699  19.621   6.044 -0.2004 -0.0779 -0.1569
95431W        W96295  27.979   8.794  22.551 -0.0722 -0.1759 -0.1454
95432W        W96296   5.072  25.037   1.909  0.0827 -0.0026 -0.0849
95433W        W96297  19.467  21.427   4.348  0.0506  0.3153  0.0685
95434W        W96298  26.490   1.127   7.545 -0.0460  0.0481 -0.2407
95435W        W96299  24.167  21.763  25.878  0.1037 -0.3229 -0.0293
95436W        W96300   4.034   0.476   1.601 -0.2770  0.0082  0.2437
95437W        W96301  13.760  26.394  28.639 -0.0759 -0.2069  0.1441
95438W        W96302  25.797  10.958  21.665  0.3947 -0.2341  0.0980
95439W        W96303  19.277  14.599   7.393 -0.0043 -0.2582 -0.2413
95440W        W96304   6.149  16.501   2.507  0.2443  0.0154 -0.4666
95441W        W96305   7.510  13.277   3.191  0.1155  0.0544 -0.1656
95442W        W96306  28.005   3.894  27.122 -0.1169 -0.1465  0.0607
95443W        W96307   7.778   3.445  10.518  0.0496 -0.0344 -0.1099
95444W        W96308  25.360   0.739  10.501 -0.1788 -0.0495 -0.0914
95445W        W96309   7.799  22.230  13.236  0.0165  0.0697 -0.0292
95446W        W96310   3.684   9.841  22.256  0.2375  0.1454 -0.2155
95447W        W96311  15.660  27.763   6.530 -0.0148 -0.2325 -0.0483
95448W        W96312  17.601  16.227   4.467  0.2423 -0.2250 -0.1817
95449W        W96313  18.386  11.943  14.181 -0.0659  0.0516 -0.1754
95450W        W96314   4.264   8.007  20.974 -0.0963  0.0344 -0.2225
95451W        W96315   6.174  14.142  11.071  0.0800 -0.1519  0.0426
95452W        W96316  22.860   0.929  29.129  0.0351 -0.3102  0.2251
95453W        W96317  11.499  16.523  20.760  0.0978 -0.3010 -0.0376
95454W        W96318  24.757  12.131  12.326 -0.1641 -0.0543  0.3576
95455W        W96319   0.103   7.451  14.868 -0.0345 -0.0466 -0.1218
95456W        W96320   7.361   5.021  21.838 -0.4360 -0.2568 -0.1828
95457W        W96321  28.722  23.173   5.253  0.0981 -0.2443 -0.3787
95458W        W96322  27.021  27.514   6.656 -0.1216 -0.1126  0.1762
95459W        W96323  20.643  19.656   6.118  0.0078 -0.1333  0.2871
95460W        W96324   9.160  20.487   2.234 -0.0718  0.3069  0.0524
95461W        W96325   8.488  21.101  25.820  0.4747 -0.2467  0.1382
95462W        W96326  11.548   8.639  23.702  0.0960  0.3142  0.3923
95463W        W96327  11.747  17.080   5.872  0.0254 -0.1732 -0.0279
95464W        W96328   4.311   7.574   6.244 -0.2787  0.3678 -0.1596
95465W        W96329   9.620  13.770   6.894  0.0313  0.1896 -0.0393
95466W        W96330  20.688  26.046  25.393  0.4448 -0.2849 -0.1567
95467W        W96331   1.604  17.697  13.600  0.3981  0.2034  0.0768
95468W        W96332  11.847  24.334  29.026 -0.0204  0.0661 -0.2505
95469W        W96333  10.946  21.934  22.468  0.0386 -0.2220  0.2157
95470W        W96334   1.619  12.755   4.724  0.3130  0.0109  0.1274
95471W        W96335  10.034  19.036   4.598  0.2530 -0.1011  0.1018
95472W        W96336   0.496   3.933   0.902 -0.2081  0.2350 -0.1031
95473W        W96337  28.265  12.372  24.747 -0.0644 -0.0937 -0.1798
95474W        W96338  27.803  27.259   3.889  0.2234 -0.2271  0.2059
95475W        W96339  27.044  26.535  19.158  0.0031  0.1660 -0.2972
95476W        W96340  25.715   7.603   1.255  0.0032 -0.3330 -0.0150
95477W        W96341   5.434   5.131   7.523 -0.4064 -0.0687  0.0954
95478W        W96342  19.897  14.661  25.142  0.1551  0.2416 -0.0402
95479W        W96343  17.891   1.787  23.309  0.0171  0.1292 -0.1869
95480W        W96344  27.758  18.187  22.849  0.1101  0.3393 -0.0820
95481W        W96345  12.071  10.964  24.092  0.3133  0.0709  0.1145
95482W        W96346  15.726  21.515   0.470  0.2459 -0.1324  0.1248
95483W        W96347   5.097   7.084   8.692  0.1364 -0.1599 -0.0420
95484W        W96348  24.627   8.797   2.651  0.5105 -0.1553  0.3191
95485W        W96349   0.315   6.966   5.477  0.0918  0.0241 -0.0594
95486W        W96350   0.271   4.500  13.215 -0.0339 -0.4595 -0.0186
95487W        W96351  21.034  16.108   9.846 -0.1917 -0.3485  0.1720
95488W        W96352   0.402  19.070   6.529  0.4283  0.1356  0.1320
95489W        W96353  15.157  25.933  25.523  0.0811 -0.0720  0.1142
95490W        W96354  14.928   9.434   4.722  0.1185 -0.1872  0.0155
95491W        W96355  23.669  27.362   7.672  0.0396  0.1247 -0.0340
95492W        W96356  21.165  27.061   1.938 -0.1584  0.1432  0.0968
95493W        W96357  23.184   0.998  16.724 -0.0699 -0.1257  0.2000
95494W        W96358  25.495  28.479  26.431  0.0955  0.1037 -0.0247
95495W        W96359  21.596  12.799  19.380 -0.2942 -0.2698 -0.3511
95496W        W96360  18.794  19.343  22.067  0.0022  0.1209 -0.0558
95497W        W96361   1.925  15.738  24.413  0.0433 -0.0140  0.3734
95498W        W96362   3.497  22.642   9.443 -0.0501  0.0198 -0.0714
95499W        W96363  17.046  19.097   5.664 -0.1011 -0.0834 -0.1802
95500W        W96364  24.759  24.328  25.209  0.0882  0.3046  0.0905
95501W        W96365  17.254   0.676  23.056 -0.3600 -0.3103 -0.0395
95502W        W96366   4.086   6.203   3.989 -0.0634  0.0217  0.2565
95503W        W96367   4.277  23.754  25.028 -0.0592 -0.1725 -0.1591
95504W        W96368   8.706  22.196  17.579  0.2306 -0.0533  0.0553
95505W        W96369   1.835  24.745  25.703  0.1155  0.0331 -0.1664
95506W        W96370  17.767   6.158   6.527 -0.0605  0.0434 -0.0130
95507W        W96371  15.693  23.642   4.920 -0.2002  0.2206  0.1218
95508W        W96372   1.347  19.792   6.548  0.1369  0.2769 -0.1498
95509W        W96373   9.217  16.896  26.791  0.0155  0.0227 -0.0662
95510W        W96374  21.836  17.589   3.945 -0.4782  0.0624 -0.1924
95511W        W96375  19.760  21.334  29.066  0.0238 -0.2592  0.1358
95512W        W96376  16.410  27.894   4.373 -0.0283 -0.1000 -0.3063
95513W        W96377   1.319  23.706   5.334  0.0647 -0.3505 -0.3928
95514W        W96378   8.228  27.697   3.684  0.2192  0.1858 -0.1235
95515W        W96379   6.677  14.314  25.738 -0.0751  0.0094  0.1656
95516W        W96380   6.368  27.971  25.313  0.0464 -0.0018  0.2745
95517W        W96381  21.580  28.950  25.145 -0.0634  0.1454 -0.0846
95518W        W96382   1.870   5.584   2.052  0.1145 -0.1400  0.1592
95519W        W96383   4.386  25.850  25.521 -0.2253 -0.1131 -0.1372
95520W        W96384   2.544   2.123  21.595  0.0225  0.0180  0.2619
95521W        W96385  21.152   0.743  21.399  0.2410 -0.0053 -0.0113
95522W        W96386  24.327  20.319  28.861 -0.5296 -0.0072 -0.0100
95523W        W96387  27.186   4.706   3.202  0.1318  0.1157 -0.0411
95524W        W96388  26.591  22.970  16.421  0.0989 -0.0885 -0.0967
95525W        W96389   8.901   8.802   0.259 -0.3254 -0.1638  0.1542
95526W        W96390  25.566   1.801  27.560  0.1294  0.1354 -0.0443
95527W        W96391  24.836  25.010   1.236 -0.0034 -0.3880 -0.0677
95528W        W96392  17.727  27.201   4.470 -0.2544 -0.3024 -0.3943
95529W        W96393  12.677  10.575   7.646 -0.0973  0.1870  0.1333
95530W        W96394  15.214  28.334   5.843  0.1828 -0.1387  0.1340
95531W        W96395  20.104  19.048  17.528 -0.0984  0.0599 -0.2256
95532W        W96396   1.735  26.041   5.542  0.0775  0.0083  0.1856
95533W        W96397  28.643  23.460  16.016 -0.0633  0.2009  0.2483
95534W        W96398  17.730  18.774  12.577 -0.0018  0.3408  0.2885
95535W        W96399  14.240  16.038  15.599  0.2227  0.0916 -0.0163
95536W        W96400   8.973  22.193   3.398 -0.0932  0.0198 -0.1456
95537W        W96401  21.422  23.881   4.982  0.0340 -0.0264 -0.1980
95538W        W96402  17.324  25.209  18.325  0.3893  0.1595 -0.2012
95539W        W96403  28.434  25.248   3.772  0.0513 -0.0346  0.0571
95540W        W96404   0.731   7.242  16.309  0.1296  0.0460 -0.0121
95541W        W96405  15.469  25.552   3.801  0.0019 -0.0697 -0.1727
95542W        W96406   9.802  22.577   5.605 -0.0312 -0.1091 -0.0745
95543W        W96407  22.850   9.190   4.030 -0.1355 -0.4591  0.0448
95544W        W96408   2.177  11.130  27.819 -0.1141  0.0419  0.1108
95545W        W96409   7.325  26.185   0.479  0.2156  0.0012  0.1592
95546W        W96410  16.593  10.217   5.946  0.0003  0.1310  0.1089
95547W        W96411   0.308  16.033  16.891  0.1500 -0.1023 -0.0923
95548W        W96412  27.103   0.584   6.992  0.1903 -0.2683  0.0341
95549W        W96413   2.277  24.758   8.490  0.1823  0.2500 -0.1117
95550W        W96414   2.749   6.669   5.757 -0.1129  0.1997 -0.0110
95551W        W96415  25.089  14.326  23.454  0.1675  0.0432  0.1644
95552W        W96416   2.094   1.708  28.204  0.0100 -0.0075  0.2259
95553W        W96417   7.954  18.513  27.614  0.2443 -0.0430  0.1161
95554W        W96418  22.355  16.860   1.299 -0.4162 -0.0732 -0.1330
95555W        W96419  21.991   7.838  25.248  0.1138  0.3298 -0.2520
95556W        W96420   2.229  12.869   4.278  0.1733 -0.0793  0.2874
95557W        W96421   9.413  13.739  27.066 -0.0408  0.0067  0.1014
95558W        W96422  25.385  18.945   1.651 -0.4237 -0.0652 -0.1933
95559W        W96423  28.103  18.864   3.076  0.0472  0.3185 -0.0007
95560W        W96424  20.561  14.893  28.904 -0.1606  0.0520  0.1273
95561W        W96425   5.833  15.909  19.560 -0.0137 -0.0208  0.0477
95562W        W96426   2.470  18.298  28.483  0.2661  0.1003 -0.0740
95563W        W96427  26.338  18.653   4.238 -0.2100 -0.0230  0.1387
95564W        W96428  26.633  17.989  11.816  0.0978 -0.2166  0.1054
95565W        W96429  21.051  18.124  10.429  0.0536 -0.1444 -0.2733
95566W        W96430  15.158  26.564   6.087  0.1365  0.1861  0.3951
95567W        W96431  16.109  28.546  19.728 -0.1391  0.0425 -0.1178
95568W        W96432  28.170   5.438   5.382  0.0083  0.0648  0.1742
95569W        W96433   6.395   0.625   9.498 -0.0002  0.1224 -0.3262
95570W        W96434  11.257   7.340  27.502  0.2308  0.3495  0.1361
95571W        W96435  23.341   7.033  28.511  0.2067 -0.3513  0.2750
95572W        W96436   0.222  15.508   8.686  0.1876 -0.1060 -0.2795
95573W        W96437  20.580  18.614  14.552 -0.1319  0.1264 -0.5930
95574W        W96438  21.278  20.856   8.009  0.3159  0.1233  0.0024
95575W        W96439   2.876   2.268  11.139 -0.3132 -0.0328  0.1247
95576W        W96440  24.085   2.998   6.872  0.3595  0.0080  0.2561
95577W        W96441   4.281  21.238   6.157  0.0695  0.2358 -0.0548
95578W        W96442  16.252  14.214   7.828  0.2166 -0.0640  0.1699
95579W        W96443  26.341   3.497  19.217  0.0667  0.0395  0.1895
95580W        W96444  28.834  14.048  19.640  0.3031  0.2274 -0.1083
95581W        W96445  10.800  15.360   7.185  0.0972  0.6331 -0.0899
95582W        W96446   4.512  21.170  23.511 -0.1898 -0.3651  0.4392
95583W        W96447  17.251  10.971  12.088  0.1552  0.1686 -0.0413
95584W        W96448   5.054   4.360  23.449 -0.1371  0.1890  0.0340
95585W        W96449  21.551  17.058   4.747  0.0531 -0.1048 -0.2079
95586W        W96450  26.464  15.122   2.515 -0.1628 -0.0085  0.4518
95587W        W96451   6.859  23.428   6.015  0.2318  0.1492 -0.0729
95588W        W96452  10.281   2.963   9.608 -0.3756 -0.2419 -0.0154
95589W        W96453   1.979  13.792  10.750 -0.1222  0.0637  0.2516
95590W        W96454   0.801  12.728  18.199 -0.1063 -0.4102  0.0093
95591W        W96455  23.580  18.452  26.246  0.3905  0.2527 -0.0466
95592W        W96456   7.862  23.002  15.637  0.3582 -0.0907 -0.4426
95593W        W96457  19.716  11.027   3.264 -0.0539  0.0673  0.0362
95594W        W96458  16.117  17.270  17.772  0.1989  0.1526  0.1768
95595W        W96459  14.428   4.792  11.601  0.1666  0.1454  0.0601
95596W        W96460   5.578  12.500  25.389  0.1433  0.0335 -0.2705
95597W        W96461  19.233   7.385  22.241 -0.0667 -0.2808  0.0935
95598W        W96462  26.494   3.709  12.803  0.0227 -0.0985 -0.2015
95599W        W96463   5.855  10.482   0.705 -0.2025  0.1172  0.3512
95600W        W96464   0.859  26.246  17.166 -0.1380  0.2547 -0.0763
95601W        W96465  10.584  21.553  28.594  0.2624  0.3058 -0.2404
95602W        W96466  24.012   3.178   1.687  0.1384  0.1101 -0.1965
95603W        W96467   0.655   9.512  10.132  0.3719 -0.0492 -0.0360
95604W        W96468   5.781  25.324   3.326  0.1986  0.1716  0.1714
95605W        W96469  14.263  23.686  24.633  0.0065  0.0529  0.1888
95606W        W96470   3.325  20.678  23.859 -0.0243 -0.2106 -0.1167
95607W        W96471  16.296  17.306  19.032  0.0752 -0.1518 -0.0632
95608W        W96472   7.316  23.898  11.553  0.1237  0.0236  0.3192
95609W        W96473   1.333  23.524  17.285  0.0240  0.1412 -0.2639
95610W        W96474  24.916  17.720   9.223  0.4549  0.0815 -0.1665
95611W        W96475   4.379  22.831  23.266 -0.1194  0.0036 -0.1379
95612W        W96476  13.971   8.606   7.762  0.0309 -0.0087 -0.0835
95613W        W96477   5.544  19.909  14.225 -0.0348  0.3147  0.1039
95614W        W96478   4.826  11.022   4.215  0.1468 -0.0103 -0.2105
95615W        W96479   0.482  11.088   5.947 -0.2376 -0.0913 -0.1492
95616W        W96480  20.285  20.139  10.762 -0.1487  0.1210 -0.0096
95617W        W96481  22.565  18.754   1.165  0.0136  0.2320  0.0980
95618W        W96482   3.526  12.735  21.958  0.0656  0.0254  0.1719
95619W        W96483  15.477  24.577   2.973 -0.0295 -0.0898 -0.1191
95620W        W96484   4.388  15.920  15.558 -0.1624 -0.3236  0.1115
95621W        W96485  19.112  16.738  20.446  0.0536  0.0208 -0.2828
95622W        W96486  17.819  16.579  10.099  0.2671  0.1062  0.0664
95623W        W96487   2.049   2.662  10.079  0.0955  0.1321  0.2241
95624W        W96488  25.815  17.250   6.441 -0.1827 -0.0894  0.0776
95625W        W96489   3.602  22.108  25.460  0.1638  0.4821 -0.2929
95626W        W96490  12.376   1.115   2.843  0.1486 -0.2394 -0.3375
95627W        W96491  20.514  21.869   4.955  0.1034 -0.0630 -0.1570
95628W        W96492   6.565   1.798   2.713  0.0963 -0.1300  0.0472
95629W        W96493  24.931  18.039  17.539  0.0778 -0.0404  0.0511
95630W        W96494  23.506  24.910  18.080  0.1061 -0.1492 -0.3139
95631W        W96495  16.567  14.488   5.671  0.0027  0.0972  0.2661
95632W        W96496  27.691  26.239  10.549 -0.0784 -0.0543  0.2329
95633W        W96497  10.473  19.808  23.222 -0.0106  0.2553 -0.0199
95634W        W96498  23.908  12.552  20.709 -0.0789  0.1866 -0.0022
95635W        W96499  28.969  14.667  27.295 -0.2299 -0.2575 -0.1142
95636W        W96500  27.841   3.268  13.576  0.0681 -0.0803  0.2056
95637W        W96501  10.491  17.127  28.378  0.0270 -0.0924 -0.1042
95638W        W96502  21.489   1.939  21.312 -0.1374 -0.2417  0.1924
95639W        W96503  28.535  13.211  24.077  0.1582 -0.3007  0.0273
95640W        W96504  19.569   0.290  27.706  0.0560 -0.2940 -0.1017
95641W        W96505  19.200  16.948  14.079  0.1229  0.2326  0.1261
95642W        W96506  26.831  22.256  15.092  0.1859 -0.0365 -0.0947
95643W        W96507   0.650  26.562  27.054  0.0322  0.4313 -0.2309
95644W        W96508   5.266   1.163   4.134  0.1263  0.0602 -0.1136
95645W        W96509   7.123  24.793  10.246  0.1106 -0.0456 -0.2739
95646W        W96510  23.075  13.275   2.903  0.0631 -0.4097 -0.2169
95647W        W96511   6.355  28.338  28.036  0.2583 -0.2260 -0.2112
95648W        W96512  23.651  22.129   6.532 -0.1202 -0.0992  0.0949
95649W        W96513  28.466  23.324  22.951 -0.0874  0.0650 -0.1123
95650W        W96514  27.567   2.315  26.426 -0.1043  0.1404 -0.0056
95651W        W96515  14.878   6.416  21.919  0.0582 -0.2850  0.0084
95652W        W96516  25.360  12.802   4.822  0.1202  0.2876 -0.0388
95653W        W96517   1.650  18.368  14.348  0.0286  0.0709 -0.0227
95654W        W96518  21.049   6.992  22.954 -0.0248 -0.0282 -0.0338
95655W        W96519  27.295   1.238  14.662 -0.0585  0.0475 -0.0112
95656W        W96520  10.186   7.204  28.088  0.2726  0.1125 -0.2311
95657W        W96521   5.137  24.928   7.754  0.3396 -0.4781  0.0839
95658W        W96522  17.536  17.798  11.689 -0.3188  0.0289 -0.4527
95659W        W96523   7.192  14.535   0.504  0.2764  0.0143 -0.0676
95660W        W96524   6.588   7.853   4.063 -0.2690  0.1603  0.1033
95661W        W96525   6.434  14.091   9.530  0.1227  0.0080  0.1734
95662W        W96526  20.391   7.779  22.869  0.1915 -0.0491 -0.0814
95663W        W96527  12.281   4.910   4.297  0.3811  0.0609  0.1615
95664W        W96528   5.175  12.300   5.185 -0.2396  0.1591  0.1694
95665W        W96529  24.862  11.003   2.061 -0.1982 -0.1983 -0.0133
95666W        W96530  24.769  20.509  25.599  0.1993 -0.0223  0.2071
95667W        W96531  15.331  17.560  24.420 -0.0144  0.1069 -0.0308
95668W        W96532  20.852  17.489   4.228  0.5682  0.2920  0.1158
95669W        W96533  14.624   1.698   3.988  0.0389  0.1292  0.0965
95670W        W96534  27.863  14.800  24.604 -0.0869 -0.0880  0.1656
95671W        W96535  25.869  11.332  16.861  0.1097  0.0572  0.2637
95672W        W96536   6.426   3.508  22.586  0.0087  0.1320  0.3281
95673W        W96537   1.891   6.257   5.735  0.4192  0.2133  0.3185
95674W        W96538  10.154  27.349   3.194 -0.0967  0.0025 -0.2376
95675W        W96539  10.571  22.415  22.721 -0.0262 -0.0217  0.1867
95676W        W96540  27.773  23.446   2.813  0.2404 -0.2445 -0.0973
95677W        W96541  17.842  21.093   7.298  0.1744 -0.2376 -0.0445
95678W        W96542   6.479  23.093  28.736 -0.0625 -0.1126 -0.1711
95679W        W96543  21.019  11.411   4.913 -0.0219 -0.2697 -0.4311
95680W        W96544  20.838  20.754   5.226 -0.1609  0.2203  0.1420
95681W        W96545   5.176   6.161  18.421 -0.0388  0.0186 -0.1974
95682W        W96546  11.913   0.157   1.874  0.0499  0.1639  0.3071
95683W        W96547  28.024  16.099  25.663  0.1965  0.1744  0.3216
95684W        W96548  16.303  16.855  28.199  0.2531 -0.0793 -0.0232
95685W        W96549   0.735  10.095  12.208  0.1240 -0.2120  0.1911
95686W        W96550  24.628  23.877  27.623  0.1763 -0.0823  0.1010
95687W        W96551  27.531  25.732  16.343  0.0568 -0.5778  0.0941
95688W        W96552   2.623  10.155   5.058 -0.1881 -0.1059 -0.1423
95689W        W96553  27.661  14.347  20.710 -0.0937  0.3215  0.0099
95690W        W96554  16.739  14.989  19.814  0.2915 -0.1338  0.2465
95691W        W96555  17.205  28.616   8.583 -0.2010  0.1204 -0.2921
95692W        W96556  26.954  27.565  14.066 -0.1345 -0.2351  0.1664
95693W        W96557   2.057  13.073  23.084 -0.1920 -0.0105 -0.1227
95694W        W96558  14.954   1.218   8.333  0.0474 -0.0517 -0.0441
95695W        W96559  24.645   9.821  11.323 -0.1347 -0.1304 -0.2188
95696W        W96560  17.308  27.549  23.509  0.0250 -0.2745  0.1646
95697W        W96561  16.404  27.377  17.621  0.0688  0.0460 -0.0626
95698W        W96562  12.794  14.107  15.089  0.1342 -0.0104  0.0509
95699W        W96563  17.401  23.508   7.241  0.1141 -0.2495 -0.1616
95700W        W96564  12.532  10.192  16.413 -0.2201 -0.0348 -0.3619
95701W        W96565   7.735  15.112   2.664 -0.0351  0.1336  0.1717
95702W        W96566  22.083   4.495  10.766 -0.3130  0.1690 -0.0847
95703W        W96567  22.813  28.737   0.304  0.0534 -0.2291 -0.2142
95704W        W96568  23.561  22.440   4.856 -0.0505  0.3143 -0.0699
95705W        W96569   8.022   1.476  14.903  0.0232 -0.1752  0.1650
95706W        W96570  25.182   7.382   5.392  0.2119  0.2367  0.2901
95707W        W96571  19.893  17.910   1.953 -0.1278 -0.0719 -0.3359
95708W        W96572   4.836   0.531  28.105  0.2076  0.2326  0.1213
95709W        W96573  21.902  23.978  12.721  0.0947  0.0038 -0.2081
95710W        W96574  18.651  21.615   5.431  0.0657 -0.0041  0.0740
95711W        W96575  26.798  12.399   2.049  0.0979  0.1233  0.1868
95712W        W96576   8.771  16.789  16.389  0.0932  0.0279  0.1894
95713W        W96577   8.897   0.827  18.666 -0.1895  0.0308 -0.1438
95714W        W96578  20.086  28.732  15.110 -0.0615  0.1542 -0.2394
95715W        W96579   0.787  12.716   5.871 -0.1933 -0.0640 -0.0744
95716W        W96580  28.264  15.940  14.803 -0.2385 -0.0742  0.0844
95717W        W96581  17.773  13.946  28.325  0.3095  0.0862 -0.0153
95718W        W96582  19.335  24.622   8.901 -0.2702 -0.0737 -0.0978
95719W        W96583  18.986  26.419   2.787 -0.2301  0.0734  0.0423
95720W        W96584   8.024   6.301   0.383  0.2023 -0.0117  0.0137
95721W        W96585  22.057  26.296  25.617  0.2579 -0.0235  0.0921
95722W        W96586  21.645  24.230   2.305 -0.2779 -0.2145 -0.0519
95723W        W96587   3.123  28.807  18.944 -0.1446  0.4517 -0.0525
95724W        W96588  24.776  19.953   4.995  0.0513 -0.1888 -0.0818
95725W        W96589  21.722  25.359   6.244 -0.3352 -0.0934  0.1967
95726W        W96590  18.973  12.976  12.896  0.0569  0.0615 -0.1049
95727W        W96591  26.523  15.899   6.696  0.0164  0.3167  0.0007
95728W        W96592  29.061  12.692  13.800  0.3222  0.1267  0.0492
95729W        W96593  15.713  18.084   5.444 -0.0420 -0.2326 -0.2502
95730W        W96594  13.672  24.593  14.370 -0.0110  0.3016 -0.2535
95731W        W96595   5.742  13.310   1.071 -0.0403 -0.0298  0.1353
95732W        W96596   3.782  17.852   0.451 -0.1054 -0.2782 -0.0030
95733W        W96597   7.307  17.897  22.672 -0.2871 -0.2584 -0.0694
95734W        W96598  13.404   1.732   3.998  0.0493 -0.1636  0.0941
95735W        W96599  23.591   1.356   5.855 -0.1501 -0.1772 -0.1172
95736W        W96600   2.654  15.597   0.190  0.1536  0.1083 -0.0360
95737W        W96601   9.281   7.961  14.247  0.3607 -0.1631  0.0443
95738W        W96602  19.959  12.924  21.691 -0.1794 -0.2583 -0.2173
95739W        W96603  23.503  21.659   8.556  0.0481 -0.1130 -0.2060
95740W        W96604   2.481  11.607  21.423 -0.1190 -0.2750  0.3229
95741W        W96605  14.776  20.158   9.934 -0.2540 -0.3432 -0.0998
95742W        W96606  13.407  20.712  21.551 -0.1831 -0.2669 -0.2910
95743W        W96607  12.021  19.358  19.425  0.3669  0.1833 -0.1184
95744W        W96608  22.968  22.251  25.557  0.2665  0.0558 -0.2050
95745W        W96609   3.733  18.792   5.723  0.0110  0.1828 -0.1444
95746W        W96610  28.891  23.087  22.777  0.0996 -0.0083 -0.2585
95747W        W96611  11.926  11.623  17.160 -0.0312 -0.2686 -0.2878
95748W        W96612  26.023   0.516  11.146 -0.0361 -0.3037  0.0609
95749W        W96613  28.185  17.041  13.801  0.3225 -0.0743 -0.1485
95750W        W96614  26.564   6.262  26.700  0.0411 -0.0207 -0.0589
95751W        W96615  20.656   5.641  19.678  0.0658 -0.1141  0.0567
95752W        W96616   3.483  13.102   0.456 -0.1072  0.1547 -0.0366
95753W        W96617   2.498  15.636  22.963 -0.1669  0.2304  0.0671
95754W        W96618  10.099  18.200  26.941 -0.2243 -0.4074 -0.1347
95755W        W96619   8.614   3.456  25.013 -0.0287  0.1484 -0.0026
95756W        W96620  19.101  27.668  26.653  0.4239 -0.0192  0.0823
95757W        W96621  24.922  16.610   0.765 -0.1774  0.2912  0.1057
95758W        W96622   4.565  14.336   5.978  0.2219 -0.0572 -0.0861
95759W        W96623  17.696  24.468  11.424 -0.0770 -0.3066 -0.1552
95760W        W96624  13.131  20.790  17.777  0.1510 -0.2616  0.1665
95761W        W96625  12.788  13.601   8.316  0.2754 -0.1134 -0.0582
95762W        W96626  10.811   3.067  25.567  0.3522  0.0638  0.1623
95763W        W96627  26.031   8.190   7.773  0.0553  0.0585 -0.2635
95764W        W96628   7.263  16.863  21.106 -0.3186  0.0155  0.0724
95765W        W96629   7.887  23.543   5.564  0.1583  0.2235 -0.3911
95766W        W96630   1.017   9.706  27.775 -0.2242 -0.2270  0.1842
95767W        W96631   5.059  21.392  13.343 -0.0671  0.1053  0.1646
95768W        W96632  16.408  27.625  16.470 -0.0078 -0.0654  0.3734
95769W        W96633  20.726  29.049  16.004 -0.0054  0.0930 -0.1482
95770W        W96634   4.149  25.092  16.773  0.0189  0.0298  0.5374
95771W        W96635   2.061  17.872   8.788  0.2544  0.1027  0.1999
95772W        W96636   7.799   3.860  27.579 -0.0427 -0.0627  0.1547
95773W        W96637  28.060  12.568   3.022  0.2488 -0.2365 -0.0322
95774W        W96638  16.174  10.751  13.401 -0.2769 -0.3113 -0.0108
95775W        W96639  25.465  11.151   3.520  0.0309 -0.4279 -0.1236
95776W        W96640  17.461  12.925  16.267  0.0863  0.0222  0.2312
95777W        W96641   7.748  21.272   8.967 -0.3569  0.0141 -0.0208
95778W        W96642  27.305   0.731  18.400 -0.0142 -0.1060  0.1158
95779W        W96643  23.436  18.922  28.471 -0.1045 -0.1833  0.1370
95780W        W96644   9.897   4.657  18.981  0.0088  0.1103 -0.1282
95781W        W96645  20.883  23.934  10.372  0.0847  0.1169 -0.1386
95782W        W96646  27.684  18.109  27.431  0.2892  0.0466  0.1856
95783W        W96647  25.298  22.733  14.744 -0.0990  0.0602  0.3822
95784W        W96648   2.902   8.056  23.386  0.0019  0.0556  0.1554
95785W        W96649  10.838  12.502   3.734 -0.0512  0.0036 -0.0665
95786W        W96650   2.942  25.793  23.301  0.2716  0.3015  0.0454
95787W        W96651   2.803  15.420   6.296  0.1579 -0.1031  0.0002
95788W        W96652  13.570  11.913  28.871  0.1228 -0.1395  0.1240
95789W        W96653  19.941  28.816  27.926  0.1287 -0.1509 -0.2381
95790W        W96654   7.491  25.912   6.790 -0.1551  0.1041  0.0433
95791W        W96655  16.804  26.035  23.825 -0.4322  0.0169 -0.4122
95792W        W96656   0.519   6.366  16.519 -0.0111 -0.1559 -0.1352
95793W        W96657  21.074   7.064  19.154 -0.1659 -0.0133  0.0862
95794W        W96658  28.480  26.789  24.882  0.3630 -0.2958 -0.2230
95795W        W96659  14.155  17.419  14.801  0.2535  0.1254 -0.1260
95796W        W96660  24.971  15.099  18.839  0.0768 -0.2539 -0.1124
95797W        W96661  12.392  11.088  26.255 -0.0485  0.3220 -0.2959
95798W        W96662  13.909  16.164   6.006 -0.0815  0.1034  0.2622
95799W        W96663   4.640  21.411   7.464  0.3036  0.1073 -0.1525
95800W        W96664  26.904  22.390  28.920  0.0263  0.0604 -0.2789
95801W        W96665  18.208  10.349  18.986  0.1200 -0.0792 -0.1984
95802W        W96666   9.239  24.270  16.100  0.0107 -0.0299 -0.1724
95803W        W96667  19.907   0.535   0.155  0.0264  0.2797 -0.1686
95804W        W96668  14.651  10.698  22.556  0.0666  0.3181  0.0227
95805W        W96669  18.621  15.186  10.144  0.2864 -0.2018 -0.0170
95806W        W96670  28.364  15.006   5.793 -0.0318  0.1746  0.0685
95807W        W96671   7.941  15.242  13.490 -0.0385 -0.1348  0.2739
95808W        W96672   3.855  18.136  12.929 -0.2243 -0.0713  0.0118
95809W        W96673   7.657  11.828   2.809  0.2226  0.1334  0.0392
95810W        W96674  20.972  20.264   5.097 -0.1771 -0.4693 -0.1876
95811W        W96675  12.487  24.010   7.129  0.0218  0.2688 -0.1635
95812W        W96676  27.004   1.991  22.603 -0.0133  0.2346 -0.0748
95813W        W96677   0.724  16.466  14.583 -0.0399 -0.1421 -0.1532
95814W        W96678  27.101   9.175   1.167  0.0831 -0.1084  0.0104
95815W        W96679  25.885   8.981   4.169 -0.2906 -0.1500  0.3119
95816W        W96680  15.702  25.960   0.994  0.2043 -0.1364 -0.1197
95817W        W96681  11.772  26.923   5.368 -0.0951 -0.0129  0.0822
95818W        W96682  20.279  21.090  21.599  0.1240 -0.1693  0.0105
95819W        W96683   5.238  15.141   6.738 -0.2217  0.0268  0.2430
95820W        W96684   0.440   5.909  15.744  0.1741 -0.0371  0.4147
95821W        W96685  12.331   5.010  14.849 -0.0585  0.1991  0.1026
95822W        W96686  22.460   1.444   4.010 -0.3192  0.2348  0.3326
95823W        W96687  19.835  18.935  20.846 -0.1106 -0.1899 -0.1412
95824W        W96688  16.542   3.563  20.417  0.0800 -0.0496  0.1351
95825W        W96689   9.171  17.128  20.163  0.0541 -0.0209 -0.0445
95826W        W96690   6.757  22.464  27.320  0.1576 -0.1656  0.0971
95827W        W96691   0.007  21.571  23.212  0.0594 -0.0874 -0.0850
95828W        W96692   1.327   2.916  24.577  0.0254  0.0893 -0.1470
95829W        W96693  27.732  28.526   7.637 -0.0121  0.0979 -0.2636
95830W        W96694  25.234  15.911   2.054  0.0076 -0.0794 -0.0455
95831W        W96695  10.369  28.325  22.184 -0.0635  0.0670 -0.0387
95832W        W96696  11.831  19.676   3.487  0.1685  0.2064  0.2046
95833W        W96697   4.437  13.924   6.138 -0.1282 -0.1408  0.3986
95834W        W96698   5.658  12.683  11.975 -0.1463  0.1037 -0.0759
95835W        W96699   6.470  18.485   6.172 -0.0316  0.1737 -0.1995
95836W        W96700  19.742   1.997  10.557 -0.0350  0.0616  0.0533
95837W        W96701   9.686   3.028   4.647 -0.5248  0.1538  0.2089
95838W        W96702   2.791   4.679   7.169  0.1839  0.1124  0.0876
95839W        W96703   3.134   8.050   1.931  0.2128  0.1107 -0.3165
95840W        W96704  20.668  26.787  28.258 -0.0129 -0.2802 -0.1414
95841W        W96705   7.921  12.308   9.281  0.3053  0.1930  0.1968
95842W        W96706  11.238  14.530  12.670 -0.1404  0.1472  0.3034
95843W        W96707  24.882   1.003   6.980  0.1315  0.0318  0.1472
95844W        W96708  25.743   8.324   2.100 -0.1277 -0.1248 -0.1168
95845W        W96709   2.456  28.298  13.535 -0.0795 -0.0592 -0.0356
95846W        W96710   4.042   1.697   4.202  0.1679 -0.1840  0.3338
95847W        W96711  27.455  20.767  11.476  0.2298 -0.1545  0.2049
95848W        W96712  18.991   1.075  20.113 -0.0565 -0.1086 -0.1957
95849W        W96713   2.541  19.051   7.446  0.1979  0.1353 -0.1274
95850W        W96714   1.487  16.162   5.332 -0.2316 -0.1622  0.1621
95851W        W96715  25.013  22.262  28.605 -0.0442  0.0724 -0.0239
95852W        W96716   3.003  26.544  16.632  0.0547 -0.1305  0.2009
95853W        W96717  12.988  18.154   2.613 -0.1911  0.0891  0.0104
95854W        W96718  23.433  10.194   8.450  0.0713  0.0571 -0.0527
95855W        W96719  21.472  18.265  28.031  0.0059 -0.3261 -0.1182
95856W        W96720   6.136  27.378  10.186  0.1422 -0.2639 -0.1120
95857W        W96721  23.818   8.376  25.434  0.3031 -0.2038 -0.0779
95858W        W96722   4.826  11.472  14.718 -0.0564 -0.1711  0.3352
95859W        W96723  19.997  15.239  10.752 -0.0873 -0.2250 -0.3280
95860W        W96724  23.711  12.418  14.438 -0.1055  0.0521 -0.0543
95861W        W96725  18.302  23.582  26.324  0.2550 -0.1535 -0.1626
95862W        W96726  16.787  11.161  19.897  0.2469 -0.4618 -0.1432
95863W        W96727  22.533  14.354  19.367 -0.0075  0.2122 -0.0224
95864W        W96728  28.577   2.736  13.792  0.1511 -0.0901 -0.1238
95865W        W96729   8.586   4.338  12.175 -0.0255  0.0278  0.0632
95866W        W96730  14.258  20.088  11.571  0.1950 -0.1369  0.1342
95867W        W96731  23.319  28.939  28.481  0.1754 -0.0999  0.1428
95868W        W96732  24.095   7.901   9.506 -0.1521  0.4899 -0.3238
95869W        W96733  21.599  11.193  23.121  0.0639  0.0934 -0.1882
95870W        W96734  22.040  21.897  18.114  0.1578 -0.1829 -0.3228
95871W        W96735  12.212  14.916  26.969 -0.1918 -0.2905 -0.2111
95872W        W96736  27.485  27.168   5.794  0.0340 -0.1690  0.0211
95873W        W96737  27.843  15.220   3.412  0.0400 -0.1049  0.0650
95874W        W96738  19.522   3.952   1.633 -0.0573  0.0839 -0.0853
95875W        W96739   8.352  23.373  27.196 -0.0662  0.0656  0.1146
95876W        W96740   5.105  15.549  26.192 -0.1597 -0.1983  0.0107
95877W        W96741  23.462  16.302  23.270  0.0573  0.2236 -0.1367
95878W        W96742  23.869   1.564   1.246  0.1171  0.1266 -0.1122
95879W        W96743   1.024   6.316   4.392 -0.0933 -0.3457 -0.3212
95880W        W96744  19.948   3.817  22.585  0.2341  0.3134  0.0960
95881W        W96745  25.986   9.310   5.471  0.0303  0.3894  0.1270
95882W        W96746   0.418  23.069  28.573  0.0479 -0.1607  0.2811
95883W        W96747   8.551   0.392   3.646  0.1307  0.4380  0.1945
95884W        W96748  18.991  14.562   9.504 -0.0068 -0.1392 -0.2740
95885W        W96749  27.766   5.161  19.193 -0.1239  0.2930 -0.1275
95886W        W96750  11.447   4.977  20.342 -0.2149 -0.3638 -0.1677
95887W        W96751  12.163  24.239   6.272  0.0375 -0.0728  0.0989
95888W        W96752  23.403  18.782  13.107 -0.1457 -0.1959  0.0739
95889W        W96753  24.947   9.325   5.737 -0.1277 -0.1504  0.1735
95890W        W96754  16.739  24.414  23.518 -0.0328  0.2750  0.1148
95891W        W96755  26.186  22.858   4.258  0.1087 -0.1029  0.1501
95892W        W96756  10.899  17.904  10.506 -0.1212 -0.1213  0.0714
95893W        W96757  27.675  25.064  27.731  0.1201 -0.2226 -0.1902
95894W        W96758   7.314  10.264  21.967 -0.1739  0.0102  0.0983
95895W        W96759  21.838  13.117  11.806 -0.1306 -0.3892  0.3219
95896W        W96760   1.454  12.820  24.842 -0.3728 -0.2021 -0.0063
95897W        W96761  19.220  19.142  20.296  0.1088 -0.0475 -0.2376
95898W        W96762   4.192   7.366  17.175  0.3660 -0.0585 -0.0477
95899W        W96763   9.671  12.504   1.075 -0.0192 -0.1229 -0.2466
95900W        W96764  21.569  25.391   7.190 -0.0218 -0.0488  0.2649
95901W        W96765   1.223   6.619  29.007  0.1701  0.0363 -0.1619
95902W        W96766   7.158  13.200   0.394 -0.2791 -0.4213 -0.0261
95903W        W96767  26.503  24.855  28.296 -0.0294  0.1462 -0.0926
95904W        W96768  15.349  13.101   4.537  0.3106  0.1262 -0.0225
95905W        W96769  16.253  14.900   8.584 -0.1553 -0.2967 -0.1583
95906W        W96770   1.710  17.187   2.907 -0.0706 -0.1074 -0.2526
95907W        W96771  22.270   6.207   6.430 -0.0292  0.1295 -0.2392
95908W        W96772  23.159  22.214   1.130  0.0488  0.1392  0.1363
95909W        W96773  16.410  16.890  13.253 -0.1594 -0.0043  0.0134
95910W        W96774  23.506  13.931   2.746 -0.1074 -0.2206 -0.0004
95911W        W96775   8.079  19.360   4.789 -0.2508 -0.1167 -0.2511
95912W        W96776  19.957  14.284  14.675  0.0526  0.0083 -0.0588
95913W        W96777   3.449  17.101   5.441  0.0314  0.0925 -0.0499
95914W        W96778  20.930  21.117  21.677 -0.3251  0.0666 -0.1418
95915W        W96779   3.528  18.589   7.064 -0.0067  0.0342  0.1314
95916W        W96780  12.167  28.926  10.321  0.0354  0.2247 -0.1666
95917W        W96781  22.135  24.507   5.616  0.3196 -0.0374 -0.0516
95918W        W96782  12.949   6.722   4.653  0.0469 -0.2321  0.0224
95919W        W96783  28.857  17.371  28.043 -0.1368 -0.1457  0.2513
95920W        W96784   5.097   7.711   6.375  0.0943 -0.1198 -0.1095
95921W        W96785  17.086   0.732  14.440 -0.0192 -0.0358  0.0905
95922W        W96786   9.814   0.234  14.180 -0.0661 -0.2240 -0.0662
95923W        W96787   0.709   8.068  18.949  0.0132  0.1137  0.0472
95924W        W96788   6.789  19.907   2.293  0.0372 -0.0744 -0.0627
95925W        W96789   0.953  28.547  26.888  0.1919  0.0073 -0.2346
95926W        W96790   3.982   2.288   5.372 -0.2447  0.1386  0.2455
95927W        W96791   9.359  23.053  22.303  0.3455 -0.0653 -0.0584
95928W        W96792   7.129  14.455   1.447 -0.1919 -0.1518 -0.1166
95929W        W96793  27.697  25.263  27.252 -0.1289  0.1201 -0.2597
95930W        W96794  18.399  11.453   0.358  0.0205  0.2005 -0.1221
95931W        W96795   1.386  24.770  26.755  0.2352  0.1960  0.0834
95932W        W96796  10.880  25.853   9.673 -0.3197 -0.2618  0.1527
95933W        W96797  28.971  18.396   1.045  0.1655  0.1659  0.1311
95934W        W96798  28.931  28.825  28.206  0.0926  0.2359 -0.1741
95935W        W96799   4.715  12.623   7.330  0.0335 -0.5391 -0.0799
95936W        W96800  23.223  29.102   7.266 -0.3345 -0.0653  0.0069
95937W        W96801  26.367   0.417  11.527 -0.1911 -0.3712  0.1117
95938W        W96802   4.805  16.969  24.718 -0.0704 -0.2158 -0.1468
95939W        W96803   3.951  21.293  26.471  0.3330  0.0052 -0.0193
95940W        W96804   7.554   1.382  11.215  0.2091  0.1786  0.0370
95941W        W96805  22.331   3.831  23.787  0.2874 -0.0931 -0.0944
95942W        W96806  29.002   6.836   6.605 -0.0897 -0.1954  0.1062
95943W        W96807  28.164  25.400   7.865 -0.0488 -0.1269 -0.0623
95944W        W96808   3.220  18.843   5.484  0.0014 -0.0752 -0.2582
95945W        W96809   7.831   9.518   6.607  0.0077 -0.1308 -0.0750
95946W        W96810  15.322  14.290  12.640 -0.3438  0.0212 -0.2916
95947W        W96811   9.372  23.930   0.918 -0.0258  0.1729 -0.1830
95948W        W96812  17.521  21.315   1.260 -0.1942  0.1669 -0.1825
95949W        W96813   9.575  13.815  10.514 -0.2477 -0.0585  0.1273
95950W        W96814  29.100  18.853   6.760  0.4053 -0.0397 -0.1138
95951W        W96815  23.340   1.602  26.724 -0.1681 -0.1253 -0.0582
95952W        W96816  20.289   0.389   1.103 -0.0643  0.1066  0.1037
95953W        W96817   7.017  24.417   1.035 -0.0012  0.0684 -0.0561
95954W        W96818  25.488  27.870  10.661  0.2634  0.1174  0.2475
95955W        W96819  26.418   8.224  12.492  0.1990  0.0082  0.0098
95956W        W96820   3.114   2.362  23.196 -0.1831 -0.2208  0.0653
95957W        W96821   2.611   2.937  11.379 -0.1912 -0.0686  0.0593
95958W        W96822  27.849  25.031   7.991 -0.1606 -0.2693 -0.1735
95959W        W96823  18.304  14.611  11.484  0.1723 -0.1151 -0.3009
95960W        W96824  21.680   5.456   2.996  0.3214 -0.0393 -0.2232
95961W        W96825   0.240   5.447   7.752  0.0126  0.1536 -0.1444
95962W        W96826   8.156  24.370  27.550 -0.0771  0.4522  0.0043
95963W        W96827   4.871  19.878  13.366  0.1627 -0.1913 -0.2977
95964W        W96828   4.524  15.054  18.588  0.0187 -0.2366  0.1485
95965W        W96829  21.643   0.983  24.877  0.1289  0.1284  0.2079
95966W        W96830   2.813   1.518   0.832  0.1128 -0.0771 -0.1349
95967W        W96831  19.751  23.386  11.835 -0.0337 -0.1106 -0.0332
95968W        W96832   7.957  13.731   2.732 -0.0055 -0.3431 -0.1168
95969W        W96833  14.694  15.905  25.305  0.0132 -0.0055 -0.1377
95970W        W96834   1.922   9.216  27.536 -0.0111  0.1123  0.1953
95971W        W96835   0.729   1.057  23.091  0.1214  0.1222  0.1600
95972W        W96836   2.807   9.368   1.252 -0.2230  0.2120  0.1491
95973W        W96837  23.609  20.980  26.237  0.0839 -0.4241 -0.1140
95974W        W96838   3.553   6.043   4.229 -0.3594 -0.0224 -0.0744
95975W        W96839   5.907   1.888   6.200 -0.0441 -0.1939  0.2045
95976W        W96840  12.420   6.136   1.217  0.3342  0.2089 -0.0652
95977W        W96841   9.130  24.048  23.111  0.0583  0.0690  0.0221
95978W        W96842  15.579  21.644  22.114  0.0866  0.2135 -0.2693
95979W        W96843  18.251   5.190  22.476  0.1535  0.3155 -0.2678
95980W        W96844   9.540  23.014   5.164 -0.0398 -0.0280 -0.1114
95981W        W96845   9.138  13.675   8.224  0.2174 -0.0533 -0.2480
95982W        W96846   3.696  14.610  24.561 -0.3506  0.2036  0.3084
95983W        W96847  14.656  11.776  23.781 -0.2614  0.2858 -0.2782
95984W        W96848  22.496  23.517   0.841  0.1041 -0.3140  0.2658
95985W        W96849  22.192  23.505  24.274  0.1705 -0.2458  0.0261
95986W        W96850  18.050  23.805  10.758  0.4658  0.0109  0.0548
95987W        W96851  17.833  14.419   6.555 -0.1591  0.1305 -0.6375
95988W        W96852   6.111  14.828  16.561 -0.0454 -0.2136  0.0178
95989W        W96853  28.975   0.394  27.397  0.1507 -0.1566 -0.2962
95990W        W96854  21.612   0.997  12.561  0.2370 -0.0865  0.2090
95991W        W96855   9.512  27.458  14.187 -0.2673  0.0830  0.2950
95992W        W96856   8.020   7.257   4.965  0.0900  0.0098 -0.1851
95993W        W96857  17.929   5.092  25.911  0.2290 -0.0082  0.1591
95994W        W96858  22.066  10.419  19.725  0.2156 -0.0067  0.2009
95995W        W96859  23.218  29.065   9.566 -0.0688  0.0219 -0.2075
95996W        W96860  24.656  11.218   2.743 -0.2822 -0.1954 -0.0873
95997W        W96861   4.747   2.151  26.727 -0.0211 -0.0496  0.1857
95998W        W96862  16.568  18.694  13.457 -0.1023 -0.0957 -0.0603
95999W        W96863  22.788  14.893  23.390 -0.2999  0.1521  0.0550
96000W        W96864  18.467  15.478   3.207  0.0567 -0.1764 -0.0132
96001W        W96865  22.677  24.464   5.391  0.0294 -0.1075  0.0813
96002W        W96866  18.562  18.798  21.299 -0.2889 -0.1315 -0.0062
96003W        W96867  21.541  25.945  16.277  0.0255  0.0654 -0.2293
96004W        W96868   8.200  22.689  27.142  0.1583  0.1740 -0.0833
96005W        W96869   6.982   8.538   3.425  0.0384 -0.1223  0.1569
96006W        W96870  23.166   2.893   6.642  0.1549  0.0711 -0.0679
96007W        W96871   0.249   3.369  27.789 -0.2955  0.1164 -0.1861
96008W        W96872   3.430   6.340  14.242  0.0225 -0.0551 -0.0915
96009W        W96873   9.373   1.176  15.069  0.4652  0.0930 -0.0781
96010W        W96874  25.149  14.197  11.496 -0.0927  0.1173  0.2035
96011W        W96875   3.587  27.723   3.695  0.1159 -0.2262 -0.1719
96012W        W96876   1.798  20.957   2.031  0.0450  0.0651 -0.1578
96013W        W96877  22.690  21.370   3.930 -0.0852 -0.0041 -0.0202
96014W        W96878  28.575  10.092  26.720 -0.1093 -0.2662  0.1700
96015W        W96879  13.274   6.570  16.957 -0.2794 -0.0289 -0.2055
96016W        W96880  19.182  10.684  15.641 -0.1092  0.1188  0.0132
96017W        W96881  14.402   0.944  11.748 -0.0895  0.3122  0.2006
96018W        W96882   2.759   8.761   7.888  0.0586 -0.1368 -0.0529
96019W        W96883  28.215  17.988   6.582 -0.4650  0.1521 -0.1055
96020W        W96884  20.954  23.973  11.379 -0.0328 -0.0029 -0.1231
96021W        W96885   6.818  19.620  15.288 -0.0630 -0.0380 -0.1188
96022W        W96886  27.276  16.032   2.531  0.0938  0.1346  0.2443
96023W        W96887  22.578  25.258  16.442  0.0919  0.0587  0.0438
96024W        W96888  20.345   8.105  16.566  0.0641  0.0473  0.2267
96025W        W96889   2.037  19.964  14.553 -0.0081 -0.1101 -0.3267
96026W        W96890   1.082  12.388   0.609  0.0087  0.1137  0.0873
96027W        W96891  22.833   6.279   6.565  0.0240 -0.1718 -0.2222
96028W        W96892  21.400  23.882  12.188  0.0680 -0.1610  0.1280
96029W        W96893   7.828  18.989   6.266 -0.0887 -0.1239 -0.1202
96030W        W96894  12.807  18.796   3.495 -0.0815  0.1506  0.1963
96031W        W96895  12.066  23.797   4.535  0.1487  0.3687 -0.1690
96032W        W96896  28.043  23.589  23.742 -0.0131  0.1281 -0.0336
96033W        W96897   5.181  15.775  18.139  0.0419 -0.0215 -0.0955
96034W        W96898  28.006   0.623   3.811  0.0802  0.0405  0.0109
96035W        W96899   9.718   0.694  15.794 -0.1399 -0.0357  0.0281
96036W        W96900   8.121   7.048  13.878 -0.2588 -0.1387  0.0108
96037W        W96901   9.747  16.211  13.516 -0.2912 -0.0880 -0.3417
96038W        W96902   1.574   2.009  11.102 -0.2725 -0.0967 -0.1840
96039W        W96903  18.426  25.000   9.335  0.1691 -0.2580  0.0239
96040W        W96904   9.319  14.124  28.905  0.0904  0.0825  0.4544
96041W        W96905  12.538   0.136  12.931 -0.2756 -0.1229 -0.0668
96042W        W96906  23.090  14.156  15.945 -0.0138  0.0807 -0.1096
96043W        W96907   5.448  20.904  20.728  0.3266  0.2186 -0.0844
96044W        W96908  24.119  22.203  29.128  0.1419 -0.1048 -0.0773
96045W        W96909  26.908  15.341   4.872 -0.0065  0.2058 -0.2234
96046W        W96910   4.408   2.714  15.270  0.1553  0.1753 -0.2356
96047W        W96911   5.146  13.808   2.682  0.3732  0.1488  0.2064
96048W        W96912   0.074   3.249  15.703 -0.1162 -0.0004 -0.1865
96049W        W96913  26.851  16.589   6.074  0.1111  0.2596  0.0951
96050W        W96914  20.564   2.247   3.265 -0.2209  0.0744 -0.1760
96051W        W96915  28.359  12.324   8.054  0.1704  0.0481  0.1828
96052W        W96916  17.470   3.210  26.458 -0.0449 -0.1041  0.0353
96053W        W96917   0.048  12.772  23.468  0.2231  0.2863  0.3035
96054W        W96918   1.191   6.277  12.399 -0.0897 -0.1591 -0.2915
96055W        W96919   9.569  26.376  16.621  0.2578  0.2508 -0.3357
96056W        W96920  23.612  27.015  24.541 -0.1436 -0.2013  0.2066
96057W        W96921  26.748  23.254  17.870 -0.0903  0.0366  0.1446
96058W        W96922   8.439  16.559  23.542 -0.3590 -0.0139  0.2694
96059W        W96923  26.008  19.860  13.999 -0.0548 -0.1893 -0.0509
96060W        W96924   7.098  24.069   3.032  0.1863  0.0635  0.0901
96061W        W96925  17.392  18.273  17.951 -0.3125 -0.1120 -0.0867
96062W        W96926  17.762  14.953  20.910  0.1418  0.1061 -0.2208
96063W        W96927   8.804   2.775   2.432 -0.2015 -0.1289  0.1332
96064W        W96928  22.824  11.905  27.467  0.0956  0.1173  0.1492
96065W        W96929  10.425  10.119  24.652  0.0492  0.1419  0.1512
96066W        W96930   0.634  14.645  12.865 -0.0495 -0.0527 -0.3572
96067W        W96931  24.780  14.726  12.456  0.1532 -0.1110 -0.2354
96068W        W96932  12.947  24.839  11.138  0.1526  0.1811  0.0874
96069W        W96933  27.423   8.813   6.587  0.3289  0.0991 -0.0558
96070W        W96934   4.449  20.650  18.032 -0.3992  0.0457  0.0167
96071W        W96935  23.557  21.016  25.736 -0.3110  0.0779 -0.3062
96072W        W96936  27.475  11.618   6.200 -0.1067 -0.3131  0.0995
96073W        W96937  17.499   4.658   1.580  0.1122  0.1099  0.0257
96074W        W96938  24.688  14.415  11.654  0.2225  0.0921  0.1054
96075W        W96939  28.348  27.893   5.647 -0.0941  0.1945  0.1875
96076W        W96940  12.815   7.997  10.912 -0.0377 -0.1099 -0.2632
96077W        W96941   0.965  17.036   3.151 -0.1639 -0.1058  0.3169
96078W        W96942   2.565  23.304   0.941 -0.1429 -0.0926 -0.1297
96079W        W96943  11.058  24.267  16.783 -0.1616  0.0556 -0.3685
96080W        W96944   5.182  17.735  24.014  0.1129 -0.0646 -0.1696
96081W        W96945   1.719  21.022  24.047 -0.0198  0.0552 -0.3970
96082W        W96946   8.479   6.917  27.203 -0.2619 -0.1650 -0.0526
96083W        W96947   5.597  14.776  15.383 -0.1161 -0.3051  0.0460
96084W        W96948   7.893  26.672   0.390  0.0897 -0.1328 -0.0470
96085W        W96949  13.737  21.836  12.579  0.0077  0.0802  0.0525
96086W        W96950   7.119  11.135  18.426  0.2129  0.1073 -0.0448
96087W        W96951   7.674   2.956   1.681 -0.0322  0.0216  0.1895
96088W        W96952  21.428  28.079  23.913 -0.1856 -0.2632  0.0276
96089W        W96953   8.170  22.745   6.009 -0.1121  0.4170  0.0297
96090W        W96954  24.018  12.347  16.717 -0.0616  0.1113 -0.0525
96091W        W96955   5.065  27.166  28.208  0.0393  0.1474 -0.2349
96092W        W96956  14.934  12.803   4.361  0.2107  0.0634 -0.0203
96093W        W96957   5.640  15.426  23.846  0.1463  0.0487 -0.2676
96094W        W96958  14.236  13.280  21.650  0.2028  0.2523 -0.0036
96095W        W96959  27.316   4.673   4.924  0.0176 -0.4837 -0.2807
96096W        W96960  20.850  19.726  24.426 -0.1557  0.1399  0.0156
96097W        W96961   0.887  14.086  18.537 -0.2747 -0.0670  0.0604
96098W        W96962  21.896   1.833   4.509  0.0374 -0.1781 -0.1557
96099W        W96963  26.644  28.313  13.299 -0.0112 -0.1142  0.2729
96100W        W96964  18.995  10.840   6.599 -0.3889  0.2135 -0.3041
96101W        W96965  17.282   0.249  22.185 -0.1265  0.0328 -0.1927
96102W        W96966  10.626  23.255   4.091  0.2872 -0.0086  0.0172
96103W        W96967  13.012   1.561   5.484  0.0833 -0.2421 -0.3341
96104W        W96968  29.121  14.127   2.339  0.2614 -0.0429  0.0738
96105W        W96969  25.501  20.164   2.501 -0.1545  0.1724 -0.5317
96106W        W96970   4.517  22.966  21.744 -0.0451 -0.1123  0.0457
96107W        W96971  18.315  23.030  16.956  0.0369  0.0773  0.0730
96108W        W96972  13.393   0.011  26.348 -0.1593  0.1266  0.0740
96109W        W96973   2.659  12.490  11.163 -0.2511  0.0106 -0.0666
96110W        W96974   3.885  27.014  24.708 -0.1135  0.0668 -0.2769
96111W        W96975   0.337  20.972  16.597  0.2875 -0.2232 -0.0162
96112W        W96976  23.834  25.666   2.254  0.0304 -0.1423 -0.0891
96113W        W96977   8.746  10.589  25.716  0.4293 -0.2829 -0.1528
96114W        W96978  26.558  20.121   6.681  0.2900 -0.2706  0.1725
96115W        W96979  24.812  23.701   7.228 -0.0347 -0.0703  0.2009
96116W        W96980  27.626  28.303  11.431  0.2475  0.0805 -0.0684
96117W        W96981   0.236  24.541  21.781  0.1792  0.2560 -0.1097
96118W        W96982  19.399  17.611  15.598 -0.0077  0.0804  0.1357
96119W        W96983  22.335  20.710   7.349  0.1133 -0.0835  0.0652
96120W        W96984  20.193  28.622   8.700  0.0412 -0.0048  0.1008
96121W        W96985   2.858  10.930  14.130 -0.2426 -0.4411  0.0243
96122W        W96986  26.332  19.619  20.919  0.0502 -0.2408 -0.0334
96123W        W96987  19.050  26.740  20.723 -0.0390 -0.0586  0.0755
96124W        W96988   3.817  20.334   9.250  0.0701 -0.2254  0.0797
96125W        W96989  14.751   1.009  25.589  0.1436  0.3214  0.0967
96126W        W96990  28.329  11.431  11.403 -0.1866  0.0660 -0.0396
96127W        W96991   6.505  21.797   3.072 -0.0149  0.0162 -0.0976
96128W        W96992  27.044   9.301  12.884  0.3678 -0.1021  0.1486
96129W        W96993  23.399  19.683  28.155  0.1023  0.0583  0.1208
96130W        W96994  27.523  14.465  13.273 -0.2229  0.0906  0.2228
96131W        W96995   2.632  17.999  19.601  0.0964  0.0003 -0.0085
96132W        W96996  28.327  25.769  19.351 -0.0395 -0.1208  0.2854
96133W        W96997   8.703  18.060  19.127 -0.3615  0.0830 -0.0389
96134W        W96998  25.261  10.872  27.011 -0.3304  0.2616  0.0941
96135W        W96999  22.176  18.729  11.767  0.0393 -0.0121  0.0345
96136W        W97000   4.009  16.184   3.945  0.0317 -0.5097  0.0491
96137W        W97001  20.431   7.019  12.904  0.0784  0.0923  0.0009
96138W        W97002   7.767  12.527  24.214  0.0925 -0.0055  0.1805
96139W        W97003  25.008  26.692   8.982 -0.0841 -0.0013 -0.0798
96140W        W97004  17.014   6.920   6.638  0.1454 -0.3716 -0.0112
96141W        W97005  21.078   5.759   7.353  0.1178 -0.0402 -0.1490
96142W        W97006   9.399  12.737   2.408  0.2195  0.3049 -0.1527
96143W        W97007  20.893  20.486  24.837  0.2803  0.0873  0.1322
96144W        W97008   6.588  14.361  12.469  0.1129  0.0435  0.0537
96145W        W97009  15.574   5.110   6.970 -0.0617 -0.0047  0.2584
96146W        W97010  27.002  28.149  16.971 -0.0929 -0.2140  0.0529
96147W        W97011  21.709  25.651   6.694  0.2469 -0.0280  0.2279
96148W        W97012   9.431  25.239  11.860 -0.2812 -0.1123  0.0635
96149W        W97013  18.346  27.782   5.396 -0.0196  0.2173  0.2093
96150W        W97014   8.626   4.916  12.124  0.1974  0.4200 -0.1727
96151W        W97015   0.004  11.975  25.249 -0.0629  0.0590  0.2046
96152W        W97016  15.792  11.590  21.593 -0.1168 -0.2095  0.0086
96153W        W97017  17.356  15.266   0.872 -0.1762  0.1831  0.2105
96154W        W97018  19.576   6.907  16.804 -0.0880 -0.0314 -0.0366
96155W        W97019  25.321  15.544  25.191 -0.0807 -0.1387 -0.0505
96156W        W97020  20.125  18.113   7.253  0.1375 -0.0347 -0.0133
96157W        W97021  16.951  26.703  10.109  0.2706 -0.1752 -0.1184
96158W        W97022  26.519   3.379  12.370  0.0909 -0.0657  0.4411
96159W        W97023   9.827  25.841   6.710 -0.2262  0.1339 -0.0636
96160W        W97024   6.368  14.639  21.919 -0.1664  0.0479 -0.2499
96161W        W97025   0.539  21.317  23.101 -0.1427 -0.1342 -0.3205
96162W        W97026  14.778  12.873   7.341 -0.0472  0.1385  0.4140
96163W        W97027  15.767   4.459   9.743 -0.2574 -0.1097 -0.0163
96164W        W97028  13.649  10.084   3.012 -0.0625  0.2104  0.0677
96165W        W97029  20.672  20.125  22.278  0.1089  0.2041 -0.2998
96166W        W97030  21.110   4.564  26.302  0.0433 -0.0913  0.2914
96167W        W97031  19.907  15.343  11.332  0.0589 -0.3170  0.0167
96168W        W97032   7.714   7.926   8.865 -0.0889  0.1268 -0.3235
96169W        W97033  27.415   8.235  28.874 -0.0721 -0.2108 -0.1980
96170W        W97034  23.806  26.772  10.470  0.2379 -0.3458  0.0425
96171W        W97035   4.494  28.782  19.007  0.3663  0.0199  0.0983
96172W        W97036  12.633  19.459  16.904  0.2879 -0.2267  0.0842
96173W        W97037  16.850   5.302   1.508  0.1269 -0.0971 -0.0200
96174W        W97038  27.029  20.705  18.345  0.2225  0.4150  0.3492
96175W        W97039  21.605  22.820   5.791 -0.1315  0.1961 -0.1100
96176W        W97040   8.515  23.561  16.589  0.1351 -0.1086 -0.0387
96177W        W97041   3.430  15.769   1.011 -0.0747 -0.0198  0.0669
96178W        W97042   5.644  18.435  25.695 -0.3437 -0.1061  0.0376
96179W        W97043   3.025  21.667   1.637 -0.0051 -0.0586  0.1419
96180W        W97044  14.962  12.097  25.790  0.1958 -0.4240  0.0029
96181W        W97045  26.903   5.161   3.243 -0.0743 -0.1038 -0.1955
96182W        W97046   8.163  13.488  13.412 -0.1935 -0.0055 -0.3938
96183W        W97047  15.152  12.760  23.622  0.0695  0.0861 -0.0589
96184W        W97048  16.697  26.756   6.212 -0.1221  0.0979  0.3192
96185W        W97049  20.769  20.841  12.234  0.0493 -0.0502  0.0416
96186W        W97050   1.136  26.841   7.579 -0.1431  0.0109 -0.0035
96187W        W97051  19.453   3.455  21.867  0.0397  0.1592  0.2370
96188W        W97052  25.887   9.646   5.932  0.1884  0.0629  0.0915
96189W        W97053   9.982  19.048  20.630 -0.1959  0.0318 -0.0941
96190W        W97054  23.047   0.473  14.284 -0.0358  0.2369  0.1440
96191W        W97055  12.280   2.300   6.564  0.1529 -0.0307 -0.0427
96192W        W97056  10.498  28.469   7.270  0.0171 -0.2591  0.2200
96193W        W97057  19.490  20.138   9.321  0.1369 -0.4924 -0.2110
96194W        W97058   1.095   5.410  12.483 -0.3400  0.0101  0.1669
96195W        W97059   2.468   2.312   1.366  0.0293 -0.2862  0.0554
96196W        W97060  12.932  18.660  27.446 -0.1494  0.0747 -0.1470
96197W        W97061   4.818  21.815  21.041  0.0765 -0.1118  0.0911
96198W        W97062  12.754  12.853   1.094  0.0062 -0.1781 -0.0895
96199W        W97063   3.776   0.927  10.777 -0.0385 -0.3106 -0.1833
96200W        W97064  15.900   0.391   4.204 -0.0004 -0.0208 -0.2770
96201W        W97065  19.309  15.136   3.739  0.2148 -0.1671  0.0726
96202W        W97066  27.667  19.826   0.340  0.0816  0.2872  0.0894
96203W        W97067  16.410   8.159   0.351  0.0382 -0.2127  0.2719
96204W        W97068  24.958  28.913  13.231  0.1901  0.0659 -0.0102
96205W        W97069  28.338  26.565  28.121  0.2102  0.0164  0.0902
96206W        W97070  25.104   0.391  22.498  0.2173  0.1736  0.0705
96207W        W97071   3.730   5.330  26.700  0.1711 -0.1373 -0.0882
96208W        W97072   1.111  15.228  20.836 -0.0593  0.2078 -0.0502
96209W        W97073  28.206  10.763  29.086 -0.0499 -0.1289  0.1160
96210W        W97074  22.262  13.980  11.348  0.0097 -0.3265 -0.0243
96211W        W97075  18.776  26.896   2.726  0.0700  0.0241  0.0292
96212W        W97076   3.301  21.726  14.402  0.1161  0.0501 -0.1095
96213W        W97077  18.885  16.194  21.155  0.1082 -0.1617  0.1630
96214W        W97078   9.578   9.661  12.041 -0.1280  0.2154  0.1186
96215W        W97079   1.555  19.201   7.905  0.0508 -0.4452  0.1262
96216W        W97080  27.297  24.844   1.411  0.2167 -0.0506  0.4034
96217W        W97081  22.394   8.167  19.220  0.1162  0.2315  0.0717
96218W        W97082  12.726  17.990   9.388  0.2033  0.1390  0.1686
96219W        W97083  20.889  21.439  11.022  0.0151  0.2301 -0.0740
96220W        W97084  19.334   6.553   7.797 -0.1558 -0.0392  0.2586
96221W        W97085   3.227  27.816  13.494  0.0594  0.2816  0.1436
96222W        W97086  19.271  13.955   6.358 -0.1073  0.3114  0.0784
96223W        W97087   8.181  17.281  12.253 -0.0590  0.0196 -0.3143
96224W        W97088  13.942  21.487   5.877 -0.0561 -0.3128 -0.1056
96225W        W97089  25.393  12.210  10.162 -0.0067  0.1642  0.0437
96226W        W97090  25.559   9.866  22.074  0.3076 -0.3419 -0.0682
96227W        W97091  11.089  19.563  11.265 -0.0163  0.4354  0.1467
96228W        W97092  14.304   4.137  13.855  0.1026  0.0556 -0.1021
96229W        W97093   9.990  14.063  20.028 -0.2067  0.2056  0.0045
96230W        W97094   2.352   1.279  19.555  0.1661 -0.0118  0.2192
96231W        W97095   1.580  15.355  10.642  0.4185  0.0631  0.4545
96232W        W97096  18.909  20.904  14.639 -0.1055 -0.0846 -0.1456
96233W        W97097   8.992   3.550   8.916 -0.2884 -0.1296  0.0082
96234W        W97098  14.094  16.270   3.229 -0.0121  0.0837  0.1201
96235W        W97099  16.396  12.527  22.915  0.3836 -0.1041  0.2099
96236W        W97100   3.582  20.072   4.725 -0.2876  0.0079  0.0021
96237W        W97101  17.885  26.187   3.070 -0.0533 -0.0253  0.1041
96238W        W97102  23.149  16.796   4.560 -0.1766  0.0480 -0.0141
96239W        W97103   8.375  19.488   0.271  0.1509  0.3424  0.1133
96240W        W97104  19.753  28.669   7.443 -0.0658 -0.1385  0.1497
96241W        W97105  15.246   1.490  24.754  0.0116  0.0294  0.1407
96242W        W97106  17.838  21.706   2.477  0.0412  0.0007  0.1898
96243W        W97107  15.034  16.811  17.310 -0.0209  0.0891 -0.1071
96244W        W97108  15.390  10.004  19.490  0.1070  0.3095  0.0660
96245W        W97109   6.664  15.330   8.036 -0.5158 -0.0428 -0.0594
96246W        W97110  23.948  19.610  13.028  0.1286 -0.0998 -0.1139
96247W        W97111   7.013  11.417   5.640  0.2271  0.0315  0.3723
96248W        W97112  23.102  27.686   5.446  0.0083  0.1792  0.0707
96249W        W97113  27.923   6.704   4.609 -0.0991  0.1061 -0.3285
96250W        W97114   2.845  18.506  28.839  0.3128 -0.3624 -0.0022
96251W        W97115  25.245   5.870  16.949 -0.1806  0.2513 -0.2368
96252W        W97116   8.051  27.309   5.022 -0.1267 -0.1464 -0.1097
96253W        W97117   0.973   1.604  14.108  0.0671  0.0805 -0.0076
96254W        W97118  26.214  20.796  13.984  0.1995  0.0693  0.2515
96255W        W97119  21.601  26.966  13.107  0.0780  0.1407  0.1873
96256W        W97120  21.144   1.517  11.309  0.1461  0.3677 -0.1590
96257W        W97121  22.287   7.623   3.795 -0.0916 -0.0141  0.2348
96258W        W97122   6.678  28.381  22.222 -0.1925 -0.0217 -0.1115
96259W        W97123  24.460  13.494   4.125 -0.0259 -0.2100 -0.2075
96260W        W97124  23.834  18.969  15.986  0.0735 -0.1564  0.1358
96261W        W97125  19.165  19.170   3.001 -0.0258 -0.2939  0.0195
96262W        W97126  24.077   2.295  11.499 -0.1576 -0.1554 -0.1617
96263W        W97127  26.591  11.030   5.673 -0.1790 -0.1737  0.1657
96264W        W97128  28.561  18.761  12.107  0.3555  0.0121 -0.5122
96265W        W97129  26.656  13.937   2.779  0.1107 -0.1496 -0.2006
96266W        W97130   1.051  20.240   6.303  0.1097 -0.0395  0.0410
96267W        W97131  16.474  28.357  25.466  0.2346  0.2910 -0.1496
96268W        W97132  27.741  20.205   7.742  0.2535 -0.0115 -0.0257
96269W        W97133   7.517   2.697  23.809  0.0528  0.0061 -0.0219
96270W        W97134  22.518  23.893   0.476 -0.1572  0.1431  0.1336
96271W        W97135   7.572   6.012  16.118  0.0470  0.0881 -0.1282
96272W        W97136   6.257   8.113  25.452  0.2921  0.1347 -0.2122
96273W        W97137   1.823  15.586   5.329 -0.2275 -0.1971 -0.3173
96274W        W97138  24.807  17.878   9.925  0.2578 -0.0927 -0.0790
96275W        W97139   2.273  24.778   7.958  0.0728  0.4368 -0.1549
96276W        W97140   0.618  28.603  24.733 -0.3658 -0.4799  0.0717
96277W        W97141  18.236  28.044  18.159  0.4315 -0.0248  0.1358
96278W        W97142  13.284   2.478  26.703 -0.0297  0.1232 -0.0615
96279W        W97143  25.208   2.733   6.143  0.0598 -0.0486 -0.1563
96280W        W97144  17.684  11.037  18.076  0.0154  0.0058 -0.0592
96281W        W97145  28.123  19.468  21.910  0.3322  0.0113  0.2216
96282W        W97146  18.977  28.984   9.199  0.3544  0.1744 -0.0965
96283W        W97147  26.185  25.139  10.757  0.1928  0.1466 -0.0647
96284W        W97148  21.155  21.932  24.692  0.0555 -0.0143  0.1129
96285W        W97149  26.716  12.038   8.640  0.2689  0.3318 -0.0533
96286W        W97150   2.558  18.043  11.412 -0.2822 -0.4450 -0.0365
96287W        W97151  21.926  28.561  11.459 -0.1232  0.0165  0.0138
96288W        W97152  17.282  23.287  11.386  0.2332  0.0446 -0.1087
96289W        W97153   0.910   6.683  19.681  0.4160  0.3824  0.1743
96290W        W97154   1.921   8.358  20.126 -0.1052 -0.0088 -0.0500
96291W        W97155  27.129  16.250  13.038  0.0387  0.2529 -0.0411
96292W        W97156  26.305  28.839  25.916 -0.1559 -0.0811 -0.0104
96293W        W97157   9.716  22.774   4.654 -0.2190 -0.0061 -0.3971
96294W        W97158  18.685  11.723  25.297 -0.1184 -0.0989 -0.0861
96295W        W97159   8.913  25.902   7.485 -0.0100 -0.0521 -0.2949
96296W        W97160  11.075   0.592   0.113 -0.1941  0.2995 -0.3606
96297W        W97161  12.637  19.104  27.685  0.1204 -0.0149  0.0688
96298W        W97162  25.177   9.162  19.567 -0.2699 -0.4352  0.0216
96299W        W97163   6.677  19.638   4.310  0.1633 -0.0213  0.0532
96300W        W97164  22.052  13.400  25.030 -0.0267  0.0327  0.0111
96301W        W97165  16.441  27.876  20.127 -0.0171  0.5429 -0.4646
96302W        W97166  14.485  15.377   7.845  0.2573  0.1864 -0.2753
96303W        W97167  18.808  17.475  17.049 -0.1909  0.1177 -0.0191
96304W        W97168  26.875   4.145  13.205  0.1137  0.0770 -0.0300
96305W        W97169  13.758  17.580  16.640 -0.1764  0.0438  0.0316
96306W        W97170   0.512   1.043   3.533  0.2541  0.2757 -0.4109
96307W        W97171  16.745  23.227  24.145 -0.0833  0.0401 -0.1529
96308W        W97172  26.801   3.263   1.302 -0.2036 -0.4237  0.4097
96309W        W97173   5.407  27.894  22.532  0.0779  0.0619  0.1222
96310W        W97174  25.778  21.459   6.939  0.1808  0.5548 -0.3507
96311W        W97175  18.038  10.162   5.582 -0.2713  0.1365  0.0351
96312W        W97176  13.997  13.504  11.235  0.1080  0.3495 -0.3782
96313W        W97177   1.757  17.757  19.232 -0.2141  0.0644 -0.1130
96314W        W97178   0.836  10.643   6.019  0.0030 -0.0719  0.1027
96315W        W97179   2.709  14.801  18.190  0.0710 -0.0872  0.0435
96316W        W97180  26.529  16.341   6.939  0.0264 -0.0717  0.0147
96317W        W97181  26.204   3.109  27.622 -0.3122  0.0878  0.0598
96318W        W97182   3.387  27.207   4.559  0.0531  0.0083 -0.1432
96319W        W97183   0.674  26.518  28.080  0.2099  0.2462 -0.2429
96320W        W97184  13.277   2.148   5.173  0.0597 -0.2505  0.0030
96321W        W97185  20.887  24.035  18.756  0.0246  0.2126 -0.1118
96322W        W97186  24.180  23.369  21.403 -0.1257 -0.0456 -0.2234
96323W        W97187   9.790  17.700   4.446 -0.1082  0.0011 -0.2533
96324W        W97188   5.292  27.030  25.370 -0.0804  0.1338  0.3577
96325W        W97189   6.139  18.126  24.992 -0.0541  0.1792  0.2074
96326W        W97190   2.117  26.994  13.059  0.3268  0.2437  0.0111
96327W        W97191   2.827   5.286  13.223 -0.0067  0.0103  0.1952
96328W        W97192  20.423   5.099  26.930 -0.0716  0.1168 -0.0379
96329W        W97193  27.718  15.715   1.018 -0.0837 -0.0634 -0.0021
96330W        W97194  16.686  19.707  10.551  0.1899 -0.0985 -0.0895
96331W        W97195  26.793   4.082  18.168  0.1734  0.0788  0.2250
96332W        W97196  27.071  14.669   4.276  0.2252  0.0886 -0.1707
96333W        W97197  14.712   5.635  29.016  0.0997  0.1817  0.0200
96334W        W97198   5.198   1.960  10.017  0.0754 -0.0246 -0.1248
96335W        W97199   4.693   3.749   0.137  0.1235  0.4099  0.0894
96336W        W97200  24.110  23.928  15.347 -0.1692 -0.3338 -0.3314
96337W        W97201  25.993  17.305  12.483  0.0406  0.2465  0.2306
96338W        W97202   9.168  23.791   0.507 -0.4282  0.1119  0.1084
96339W        W97203  20.094   6.095  22.657 -0.2810 -0.1299  0.0654
96340W        W97204  28.354   2.461  13.445 -0.0011 -0.1486 -0.1218
96341W        W97205   7.001  12.134  18.245  0.0176 -0.1589 -0.0361
96342W        W97206  26.623  28.271  11.339  0.1568  0.0263  0.1536
96343W        W97207  14.478  14.658  10.694 -0.0164 -0.1711  0.0934
96344W        W97208   0.080  14.593  29.047 -0.1248  0.0271  0.3052
96345W        W97209   1.452  24.386  23.877 -0.3872 -0.1021  0.2264
96346W        W97210  27.696   5.569   2.186  0.0405 -0.4186 -0.2627
96347W        W97211   2.056   9.090   7.685  0.1730  0.1149 -0.0596
96348W        W97212  17.852   4.854  14.530 -0.0376  0.0851  0.1527
96349W        W97213  15.264  13.099  28.438 -0.0142  0.3540  0.2350
96350W        W97214   5.036  24.459  15.895 -0.1742  0.0323 -0.0908
96351W        W97215   2.598  19.596  11.185 -0.1116 -0.0876 -0.2101
96352W        W97216   1.203  23.805  14.126 -0.0439  0.0034 -0.1806
96353W        W97217  24.916  20.401  12.654 -0.1063  0.0291  0.0744
96354W        W97218  21.487  16.123  17.740 -0.3439  0.0294  0.0249
96355W        W97219  23.853  24.235   7.348 -0.0028 -0.1620 -0.0616
96356W        W97220   4.116   9.743  13.459 -0.2116 -0.1505 -0.1731
96357W        W97221  16.738  21.630   0.591  0.2510  0.0352 -0.0951
96358W        W97222  18.193   9.093  23.635 -0.4221 -0.1866  0.0286
96359W        W97223  15.737   3.902   5.952 -0.0596  0.0016 -0.1901
96360W        W97224  17.621  25.648  18.236  0.2649 -0.4907  0.2794
96361W        W97225   4.793  17.911  10.883 -0.2824 -0.4544 -0.0302
96362W        W97226  21.887  24.539  14.520 -0.0554  0.1532  0.1524
96363W        W97227  21.642   6.763  13.715  0.3172  0.0578  0.3991
96364W        W97228  20.405  12.903  10.193 -0.0287  0.0262 -0.0312
96365W        W97229  22.630  17.245   3.045 -0.3277 -0.1324  0.0605
96366W        W97230  26.965  25.098  10.907  0.1315  0.1087  0.0442
96367W        W97231   9.157  22.077  12.157  0.0032 -0.2820  0.2347
96368W        W97232   3.424  15.032   6.623 -0.0489 -0.1867 -0.3022
96369W        W97233  23.254  13.538  25.629 -0.3041 -0.1169  0.1184
96370W        W97234  12.959  19.024   9.626  0.2916  0.0263 -0.2348
96371W        W97235  28.666  15.562   2.869  0.2767 -0.0826  0.2149
96372W        W97236  10.928  22.911   5.895  0.0731 -0.2993  0.0287
96373W        W97237  10.426  25.068  14.523  0.0263  0.1577  0.5285
96374W        W97238  25.677  13.254  25.327  0.1387 -0.0769 -0.1709
96375W        W97239   3.261   4.340  10.969  0.2494 -0.1410 -0.1925
96376W        W97240  19.535  20.017  19.569 -0.2916  0.4426 -0.0498
96377W        W97241  27.619  27.896  12.712 -0.1734 -0.0081 -0.4402
96378W        W97242  18.978   2.855   7.152 -0.0629  0.3216 -0.1866
96379W        W97243  19.043   3.878  16.564 -0.0359  0.1719  0.3482
96380W        W97244  17.316  17.219   2.548 -0.2538 -0.2044  0.3829
96381W        W97245  23.297  27.156  27.347 -0.1746  0.1798  0.0244
96382W        W97246  22.229  21.075   3.999 -0.1942 -0.2461 -0.1363
96383W        W97247  17.050  20.228   8.763  0.2203  0.2924 -0.0556
96384W        W97248  28.084  21.141  10.047 -0.1101 -0.0219  0.0777
96385W        W97249   0.096  24.359   6.729  0.3424 -0.0118 -0.1050
96386W        W97250   1.540  23.821  27.556  0.0195  0.0972  0.2374
96387W        W97251  13.909  16.295  19.404 -0.2741 -0.0696  0.0874
96388W        W97252  22.060  15.973   2.284  0.0014  0.1773  0.0889
96389W        W97253  13.223  27.036  18.074  0.0722  0.1525 -0.0679
96390W        W97254  21.710   6.805  21.623  0.1858  0.2332 -0.0836
96391W        W97255  20.905  18.400   0.499  0.0879 -0.1871 -0.0283
96392W        W97256  22.362   7.432  28.470 -0.0763 -0.1688 -0.0124
96393W        W97257  25.841  26.970   4.965  0.0319  0.1862  0.0535
96394W        W97258   6.841  17.798  25.609  0.0100  0.2697  0.1078
96395W        W97259  22.501  14.054  22.358  0.0980  0.2465 -0.1255
96396W        W97260   0.638  22.319  24.955 -0.1053 -0.0774  0.0033
96397W        W97261  18.090  15.123   6.927  0.0939  0.2409 -0.0910
96398W        W97262  20.573  11.453  12.886 -0.0970  0.1152  0.1608
96399W        W97263  16.789  17.601  19.104  0.3365 -0.4681  0.0393
96400W        W97264  16.575  27.116  10.699 -0.2820 -0.0514  0.1731
96401W        W97265   1.025  18.621   3.157  0.0034  0.0358  0.0745
96402W        W97266   8.014  24.126  20.960  0.1487 -0.0504 -0.2476
96403W        W97267   3.605  13.909  12.510  0.1537 -0.0825  0.2463
96404W        W97268  20.615  15.597  13.345 -0.0955  0.1308  0.1425
96405W        W97269  19.564  25.502  12.866 -0.0823  0.0659  0.5433
96406W        W97270   1.403   1.358  13.159  0.0209  0.3744 -0.0546
96407W        W97271   8.466  12.264   8.431 -0.2120 -0.4444 -0.2004
96408W        W97272  27.478   5.294  20.636  0.2353  0.1767  0.0466
96409W        W97273  11.081   8.784   6.174 -0.1526  0.1115 -0.1069
96410W        W97274  10.633  12.067  27.382 -0.1454 -0.5529 -0.0760
96411W        W97275  11.642  16.771  11.106 -0.2798 -0.3302 -0.0635
96412W        W97276   7.131  27.389  28.741 -0.1739  0.2151 -0.2402
96413W        W97277   3.510   5.794  15.013 -0.0653  0.0863  0.0161
96414W        W97278  25.033   5.509   4.180 -0.1926 -0.1508  0.0211
96415W        W97279   6.456  26.504   8.153 -0.0260 -0.3080  0.0209
96416W        W97280  28.649  17.258  23.876  0.0913 -0.4307 -0.1659
96417W        W97281   2.824  16.701  21.968 -0.0901  0.2206 -0.0193
96418W        W97282  26.339  17.938  18.375 -0.0575  0.1113  0.2164
96419W        W97283  26.281  17.321  13.888  0.1633  0.0241 -0.2023
96420W        W97284  26.162  16.681   0.633 -0.1263 -0.1594  0.1346
96421W        W97285   0.917  10.704  11.176  0.1763  0.0724  0.4478
96422W        W97286  27.003  16.811  19.820 -0.0155 -0.0407  0.0425
96423W        W97287  26.473  14.446  28.358  0.0016 -0.0742 -0.0166
96424W        W97288  17.718  15.723  17.131  0.1578 -0.0985 -0.0337
96425W        W97289   4.460   9.705  14.794  0.1795  0.0851  0.0121
96426W        W97290   9.199  28.226   2.899 -0.1588  0.0690 -0.1486
96427W        W97291   2.555   1.012   4.717 -0.2206  0.1252  0.1192
96428W        W97292   1.364  22.790  13.906 -0.2386  0.2819 -0.0242
96429W        W97293   4.784  22.003  21.518  0.1185 -0.1607  0.3243
96430W        W97294  21.663   2.117   9.071 -0.3207 -0.0012 -0.0141
96431W        W97295   5.020   8.514  15.241  0.1132 -0.1779  0.2067
96432W        W97296   0.295  24.934   9.142  0.1781 -0.2228  0.0779
96433W        W97297  11.139  10.916  19.363  0.0673 -0.1731  0.4682
96434W        W97298  16.407   8.426   9.113 -0.1186 -0.0628  0.4933
96435W        W97299   3.428  16.917  19.992  0.1180  0.0082  0.1565
96436W        W97300   3.493  19.233  24.523 -0.0224 -0.0818  0.0519
96437W        W97301   0.979  27.276  18.136  0.3687  0.1173 -0.0240
96438W        W97302  13.294   1.860   3.359  0.2757 -0.3158 -0.1890
96439W        W97303  24.262  18.676   8.020 -0.3792  0.2245 -0.0197
96440W        W97304   6.934   0.285   8.607 -0.2441 -0.1755  0.2779
96441W        W97305  19.646   0.986   2.171 -0.2234  0.0982  0.1592
96442W        W97306  23.427  24.009  26.690  0.0608  0.0220 -0.1766
96443W        W97307  10.135  17.169  19.782 -0.1928 -0.1202 -0.0070
96444W        W97308  24.249  22.398  18.484 -0.3174 -0.0275  0.1516
96445W        W97309  10.655  21.401  14.232  0.0624  0.0524  0.3194
96446W        W97310  21.832  15.242  28.056 -0.0273  0.3938 -0.0063
96447W        W97311   1.756  11.055  19.268  0.0655  0.3389 -0.2848
96448W        W97312  22.073  19.161  12.311 -0.0850 -0.0364 -0.0546
96449W        W97313  25.185  23.692  21.061  0.0560 -0.2247 -0.0328
96450W        W97314  17.634   0.930  22.840 -0.1350  0.1901 -0.0619
96451W        W97315  23.143  22.045   0.627 -0.1543  0.0153 -0.0434
96452W        W97316   2.193  15.750   5.021  0.0388  0.1757 -0.3416
96453W        W97317  12.575  19.813  18.618 -0.0112 -0.0805 -0.0211
96454W        W97318  22.759  27.074   2.216  0.4076 -0.1192  0.0822
96455W        W97319  18.473  10.735   7.566 -0.2753 -0.0882 -0.2563
96456W        W97320   0.543  26.037  12.362  0.0088  0.2805 -0.2257
96457W        W97321  26.438  12.955   3.218  0.1515  0.0666 -0.3538
96458W        W97322  23.993   4.707  27.349  0.0429 -0.3054  0.1212
96459W        W97323  26.853   6.285  28.718 -0.1666  0.0440 -0.4546
96460W        W97324  23.591  23.243  12.864  0.0796  0.0603  0.1652
96461W        W97325  12.908   4.034   4.786 -0.0702 -0.2118  0.1660
96462W        W97326   2.273  20.695   2.074 -0.0585 -0.0349  0.0321
96463W        W97327  28.380  17.465  13.564 -0.1476 -0.1159  0.0121
96464W        W97328  15.104   5.063  22.820 -0.0222 -0.0081 -0.1165
96465W        W97329  24.540   7.036  17.934 -0.0372 -0.1045  0.4545
96466W        W97330  23.012  24.330  26.902 -0.0163  0.0709 -0.0336
96467W        W97331  11.354   7.747   8.172  0.1876 -0.0042 -0.0525
96468W        W97332  26.721  14.800   9.271  0.0132  0.1715  0.1824
96469W        W97333  25.743  19.152  18.689  0.0492  0.0633 -0.3324
96470W        W97334   5.065  25.267   6.381  0.4779  0.3622 -0.1109
96471W        W97335  15.430  10.245  13.904  0.4619 -0.1546  0.1398
96472W        W97336  20.933  13.940  17.399 -0.0649  0.0065  0.2041
96473W        W97337  13.603  12.087  20.056  0.1732  0.0339  0.0886
96474W        W97338  16.621  19.551   4.076  0.1932 -0.1813  0.0870
96475W        W97339   7.669  19.564   5.240  0.0942 -0.2838 -0.1774
96476W        W97340  27.942   8.843  24.327  0.0748 -0.2673 -0.2163
96477W        W97341  18.147  15.340  10.337 -0.3435 -0.1038  0.3063
96478W        W97342  14.724  25.146   0.542 -0.1810 -0.0720 -0.2726
96479W        W97343  14.869   9.645   4.264  0.1800 -0.1282 -0.0587
96480W        W97344  20.525   9.493  25.793  0.2965  0.1065 -0.0859
96481W        W97345  27.826  25.479  14.647 -0.1613  0.5150  0.1190
96482W        W97346  14.613  25.050  18.896  0.1317  0.3879 -0.0251
96483W        W97347  23.510  13.746  20.300 -0.1653  0.4658  0.2047
96484W        W97348   4.911   1.961  13.935  0.1863 -0.2033 -0.0163
96485W        W97349   3.775   8.029   0.126 -0.2198 -0.0112  0.2558
96486W        W97350   3.950  19.305   5.836  0.0503  0.2720 -0.0973
96487W        W97351  17.039  27.444   5.653 -0.2259  0.2785 -0.0021
96488W        W97352  13.661  10.365   7.463 -0.1809  0.0984  0.0066
96489W        W97353  13.123  15.065   8.077  0.2865  0.0075  0.0255
96490W        W97354   1.888   1.192  20.188  0.0448 -0.2323 -0.0946
96491W        W97355  25.827  19.080  10.868 -0.1111  0.0164  0.2625
96492W        W97356  18.586  26.811  16.086  0.2032 -0.2285  0.2066
96493W        W97357  23.393  18.289   7.775 -0.1402 -0.0719  0.0656
96494W        W97358  20.910  10.949   8.971  0.0157 -0.2020  0.2906
96495W        W97359   9.042   3.627   8.140 -0.0824  0.1141 -0.1885
96496W        W97360   6.820  16.173   4.163 -0.1607 -0.0610  0.0687
96497W        W97361  24.036  22.485  15.772 -0.0186 -0.0278  0.0363
96498W        W97362   2.938   9.401  21.717 -0.0282 -0.0962 -0.3776
96499W        W97363   3.969  26.082  22.145  0.1022 -0.0774 -0.0364
96500W        W97364  17.797   4.731   7.357 -0.0573 -0.3385  0.1405
96501W        W97365  16.882  14.136  10.678 -0.0136  0.2081  0.0866
96502W        W97366  23.943  22.069  13.798 -0.0601  0.2053  0.0606
96503W        W97367  10.494  18.389   3.059  0.0848 -0.0438 -0.1970
96504W        W97368   8.027  24.606  10.086  0.0465  0.0674  0.0248
96505W        W97369   3.256  14.943  20.262  0.0086  0.0163  0.0847
96506W        W97370  25.797  26.006  28.654 -0.0471  0.0840  0.2993
96507W        W97371  11.211  13.574   0.836 -0.1672 -0.1866 -0.0161
96508W        W97372  12.412   1.213  15.169  0.1287  0.1226 -0.0899
96509W        W97373   0.605  18.258  15.357 -0.0595  0.1374  0.1572
96510W        W97374  24.768   2.796  22.914  0.0795 -0.1609 -0.0672
96511W        W97375  21.197  15.171   0.462  0.0817  0.1834 -0.3186
96512W        W97376  28.097  21.971  17.740 -0.2854  0.1466 -0.1292
96513W        W97377  10.769  21.724  10.524 -0.0198  0.0122  0.2352
96514W        W97378   6.267   9.010   8.497  0.3167 -0.0831 -0.1368
96515W        W97379   4.530  18.080  21.605 -0.0090 -0.0353  0.3702
96516W        W97380  21.162  18.983  23.565 -0.1030 -0.0975 -0.0201
96517W        W97381  20.182  23.271  20.517  0.0133 -0.0319  0.1589
96518W        W97382  29.120  26.284   1.443  0.1256 -0.0368  0.2236
96519W        W97383  16.081  11.430   6.391  0.0151  0.1807  0.2686
96520W        W97384  16.495  24.473   7.107 -0.2156 -0.3142  0.0396
96521W        W97385   0.667  22.313   4.896 -0.3982  0.0290 -0.1928
96522W        W97386  21.005  11.337  18.043 -0.0924  0.1781  0.1719
96523W        W97387  22.297  23.211   1.845  0.1081 -0.0830  0.1718
96524W        W97388  29.010  16.095  14.138 -0.3975 -0.0025  0.0363
96525W        W97389  23.023  24.769   9.843 -0.1132  0.0380  0.0194
96526W        W97390   9.231  10.452   0.780 -0.0067  0.1077 -0.0726
96527W        W97391  13.784  15.665  19.874  0.3807  0.2357 -0.2034
96528W        W97392  20.832  10.738  10.477  0.0984 -0.1844  0.2666
96529W        W97393  26.272  17.796  19.277 -0.0453  0.1683  0.1816
96530W        W97394  17.961   3.084   7.452  0.3930 -0.0778 -0.0814
96531W        W97395  22.566  26.907   8.500  0.0520  0.0853 -0.0703
96532W        W97396  24.248  18.308  13.516 -0.1817 -0.2064  0.2264
96533W        W97397   2.022  22.946  11.858  0.0062  0.3884 -0.1518
96534W        W97398  25.107   7.693   1.879 -0.1601  0.1609  0.0170
96535W        W97399  28.976  14.645   5.742 -0.1338 -0.1298  0.1813
96536W        W97400  22.128  26.959  17.573 -0.0076 -0.0118  0.1521
96537W        W97401  14.764  17.005   2.026 -0.0197 -0.4462 -0.2105
96538W        W97402   3.039   9.951  17.025  0.1396 -0.1378 -0.1228
96539W        W97403   5.090   4.251  12.557  0.2100 -0.2950 -0.0386
96540W        W97404  11.125   1.085  24.977 -0.2927 -0.1103 -0.1886
96541W        W97405  27.382  20.983  20.018  0.1471 -0.0532 -0.0376
96542W        W97406   9.707  20.175  15.444  0.0603 -0.3934 -0.1817
96543W        W97407  19.879  17.705  16.527 -0.1491 -0.1047 -0.0982
96544W        W97408  26.286  28.813   1.809  0.5006 -0.2245 -0.0035
96545W        W97409   4.254  17.648  27.169  0.1489  0.3002 -0.1823
96546W        W97410   8.728  10.272   4.274 -0.3154 -0.0405  0.2365
96547W        W97411  13.730   4.159   3.027  0.0071  0.1063  0.0214
96548W        W97412  27.378  17.143  25.910 -0.0370 -0.0011  0.0629
96549W        W97413  27.872  14.644  16.271  0.1665  0.0039 -0.1195
96550W        W97414  23.878  25.283  21.957 -0.1821 -0.1111 -0.0008
96551W        W97415  28.238   5.880  11.312 -0.2933  0.1101  0.0717
96552W        W97416  23.166   5.212  28.861 -0.1729 -0.1228  0.2930
96553W        W97417  29.051   8.562  17.606  0.1886  0.2529  0.0202
96554W        W97418   0.021  21.179  19.568 -0.1029  0.1543 -0.0138
96555W        W97419  10.510  16.201   0.347 -0.3415 -0.2690  0.1142
96556W        W97420  15.025  23.824   9.069 -0.0900 -0.1526 -0.4651
96557W        W97421  27.566  19.798   3.357  0.1441  0.2636  0.0117
96558W        W97422  25.517  24.933  24.746 -0.3662  0.2755 -0.2396
96559W        W97423  18.140  16.166   3.829  0.0525  0.3521  0.0125
96560W        W97424  28.789   0.271  10.482 -0.1308 -0.2330 -0.1182
96561W        W97425   8.879   1.712  16.854  0.0309  0.1198  0.0352
96562W        W97426  25.661  11.272  11.535 -0.0032 -0.2277 -0.0292
96563W        W97427  20.650  26.640  28.860 -0.2203 -0.1238 -0.0002
96564W        W97428  26.702   0.589  28.308 -0.1839  0.3673 -0.0048
96565W        W97429  23.604  15.439  25.720  0.0488 -0.2416 -0.0728
96566W        W97430  27.124  25.759   7.599 -0.0141 -0.0415 -0.2524
96567W        W97431  20.855  27.025   6.088 -0.0502 -0.0042 -0.2077
96568W        W97432  27.172  19.698  11.678 -0.0784 -0.0316  0.2181
96569W        W97433  14.379   1.171  20.648 -0.1299 -0.2606 -0.0818
96570W        W97434  14.012  27.452   6.594 -0.1332  0.2655 -0.0894
96571W        W97435   1.862  23.250  12.811  0.0677  0.3843  0.3306
96572W        W97436  26.783  21.444   9.906  0.0432  0.0895  0.0904
96573W        W97437  28.338  28.823  27.093 -0.0385  0.0065 -0.3860
96574W        W97438   3.274  19.963  15.172 -0.1174  0.1136  0.2098
96575W        W97439  25.700   3.497  25.250 -0.2092 -0.1985  0.1331
96576W        W97440  16.345  12.416  20.802  0.0875 -0.1114  0.0553
96577W        W97441  28.112  23.393  15.769 -0.0564  0.2633  0.0507
96578W        W97442  20.532  14.123  17.739  0.2120 -0.2295 -0.0822
96579W        W97443  11.425  24.991  16.148 -0.0758 -0.0931  0.0286
96580W        W97444  26.248   4.872   2.702 -0.0692  0.0333  0.4052
96581W        W97445  10.505  15.451   1.580 -0.0688 -0.0203  0.0463
96582W        W97446  25.550   5.001  28.381  0.0700 -0.0951  0.0130
96583W        W97447  25.915   6.453   1.215  0.0352 -0.2329  0.1732
96584W        W97448  20.574  28.421   4.334 -0.0121  0.1195  0.0042
96585W        W97449  20.679  15.353  20.349 -0.0740 -0.1680 -0.4349
96586W        W97450   0.055  18.063  12.013 -0.2584 -0.1925  0.0686
96587W        W97451  11.075   9.520  14.021  0.5335 -0.1918  0.0645
96588W        W97452  27.236  25.497   5.844 -0.1116  0.0956 -0.0527
96589W        W97453  21.632  18.467   1.663  0.1177 -0.1292  0.0128
96590W        W97454  17.855  23.608  12.201 -0.1772  0.1710  0.3493
96591W        W97455  12.602  21.109  10.476  0.0063  0.3700 -0.3020
96592W        W97456  23.429  11.535   7.207 -0.0019  0.4146  0.1059
96593W        W97457  16.263  28.158  12.934  0.1060 -0.0251 -0.1294
96594W        W97458  10.970   3.774   5.379  0.0994 -0.4147  0.1147
96595W        W97459  21.766  20.861   6.544 -0.2055 -0.1110  0.0628
96596W        W97460  23.287  23.370  19.330  0.0592 -0.0770 -0.0758
96597W        W97461  24.620   2.906  14.114 -0.0892 -0.0453 -0.0844
96598W        W97462   9.307  16.981   7.656 -0.0084 -0.1450 -0.0671
96599W        W97463  18.369  19.480  20.884 -0.6432  0.1255  0.1249
96600W        W97464   1.664  28.189  28.455 -0.2127 -0.0202 -0.0816
96601W        W97465  24.508  12.790  28.702 -0.0235  0.0719  0.1560
96602W        W97466   6.423  27.656   4.765 -0.1610 -0.2646  0.0688
96603W        W97467  19.379  14.350  23.544 -0.1495 -0.1010  0.1698
96604W        W97468  26.059  11.962  11.364 -0.1497 -0.3354  0.0017
96605W        W97469  24.637  11.898   5.326 -0.0945 -0.0898 -0.4153
96606W        W97470  27.648  13.438   4.106 -0.1297 -0.1007  0.0416
96607W        W97471  16.244  28.327   7.789  0.0247  0.1837 -0.0820
96608W        W97472   3.040  11.995  24.004 -0.0122 -0.1646  0.3894
96609W        W97473   1.875  18.224  13.638 -0.0653  0.0597 -0.1296
96610W        W97474   1.080  25.741  17.346 -0.0306  0.1721  0.3395
96611W        W97475   5.714  14.279   9.843 -0.3255  0.1108  0.0409
96612W        W97476  10.779   1.515  20.188  0.2504  0.0238  0.1791
96613W        W97477  10.681  25.892   7.673  0.0124 -0.5802 -0.0765
96614W        W97478   1.113  28.579  17.828  0.0897  0.4184  0.0783
96615W        W97479   3.435  25.420  19.735  0.2143 -0.1111 -0.0942
96616W        W97480  15.355  25.453  15.405  0.1773 -0.5129  0.0727
96617W        W97481  14.066  22.448  22.898  0.1268  0.3126  0.3083
96618W        W97482   8.098  24.575  23.661  0.0659  0.1845  0.2666
96619W        W97483   6.814  20.036   6.799  0.1211  0.0810  0.1634
96620W        W97484  27.454  11.388  11.443 -0.0370  0.1715 -0.0552
96621W        W97485   6.140  16.492   4.093  0.0137 -0.0361 -0.0014
96622W        W97486   0.356   2.750   7.580 -0.0238  0.1638  0.0095
96623W        W97487  17.357  19.125   8.770 -0.0790  0.1932 -0.0165
96624W        W97488  26.862   0.494  15.325 -0.2573 -0.0718  0.3257
96625W        W97489  21.490   0.564  17.637 -0.1251  0.0957  0.1951
96626W        W97490  25.829  17.372  13.484  0.0967 -0.0093 -0.2810
96627W        W97491  18.919  14.948  10.471 -0.2736  0.0174 -0.0442
96628W        W97492  18.328  25.443  17.496 -0.0987  0.2359  0.1531
96629W        W97493  21.982   4.532   7.274  0.1556  0.0533  0.2558
96630W        W97494   0.911  19.899  13.728 -0.2382  0.1821 -0.2317
96631W        W97495   5.115   1.015   0.959 -0.3031  0.1162 -0.1246
96632W        W97496  25.391   7.311   3.303  0.1642 -0.0010  0.3738
96633W        W97497   5.173  20.152  24.226 -0.2739  0.0912 -0.0952
96634W        W97498  25.039  22.689   3.674 -0.2276  0.0294  0.0077
96635W        W97499  23.194  20.124  10.966 -0.0400 -0.2006 -0.1001
96636W        W97500   3.555  11.017   9.701 -0.0936 -0.2465  0.0263
96637W        W97501  22.134  24.043  23.517  0.0479 -0.1973 -0.0289
96638W        W97502  17.103  25.757   3.296  0.0673 -0.0512  0.0057
96639W        W97503  22.878   8.677  26.658  0.0428  0.3004 -0.2314
96640W        W97504  16.031   3.752  15.285 -0.6699 -0.1465  0.3239
96641W        W97505   6.038  18.994  11.941 -0.2885 -0.0619 -0.0842
96642W        W97506  15.548  16.099  13.729  0.0649 -0.0793  0.0808
96643W        W97507  23.642   1.215   2.295  0.0488 -0.0352  0.2076
96644W        W97508  12.024  20.798  17.590 -0.2545 -0.2186  0.1501
96645W        W97509  23.212  28.336  13.693  0.1445  0.1992  0.1615
96646W        W97510  22.578  21.641  12.874  0.0354  0.1065 -0.0669
96647W        W97511   8.522  26.809  10.069 -0.0377  0.2625 -0.0487
96648W        W97512  19.552  21.551  19.275 -0.4213  0.0393 -0.1781
96649W        W97513  28.435   4.725  25.392  0.0515  0.2796  0.4137
96650W        W97514  16.725  15.277  23.853 -0.3915 -0.1993 -0.0109
96651W        W97515  22.540  27.547   7.421 -0.3326 -0.1822  0.0650
96652W        W97516  12.247  27.195   9.874  0.0922  0.0412 -0.1715
96653W        W97517   2.224  22.935   5.724 -0.0556  0.1676  0.1254
96654W        W97518  16.067  13.819  18.849  0.0894 -0.1500  0.1465
96655W        W97519  20.562  20.883  19.287 -0.0651  0.2767  0.1006
96656W        W97520   0.913  17.307  11.008 -0.1875  0.0068 -0.1357
96657W        W97521   6.280  20.683  10.929  0.1465 -0.0073  0.1124
96658W        W97522  22.173  27.746   2.728 -0.0066  0.0532 -0.3132
96659W        W97523  18.212  13.749  10.917 -0.0359 -0.0629 -0.1033
96660W        W97524  27.832  20.877  21.712  0.0371  0.2594 -0.1431
96661W        W97525  25.485  14.209   4.517  0.0998 -0.0348  0.3054
96662W        W97526  22.136  15.044  15.142  0.2946 -0.3981  0.2367
96663W        W97527   3.596   4.827   7.194  0.2142  0.0680  0.2795
96664W        W97528   4.016  24.477  15.501  0.0966  0.1105  0.1230
96665W        W97529   3.660  12.024   7.499 -0.2690  0.1225  0.2811
96666W        W97530  24.997   0.806  17.973  0.1122 -0.1684 -0.1421
96667W        W97531  14.952  14.935  22.844  0.0819  0.1121  0.1414
96668W        W97532  28.235  21.614  10.505 -0.0502 -0.4389 -0.2134
96669W        W97533  12.767  28.359  19.973  0.0286  0.3325 -0.4063
96670W        W97534  25.669  25.802  24.267  0.0431  0.2919 -0.1741
96671W        W97535  20.811   6.196   8.726 -0.0223 -0.0152 -0.3691
96672W        W97536  12.790   5.193  10.104  0.1644  0.0858 -0.0863
96673W        W97537  10.205  12.708   0.754  0.1257  0.2132  0.2144
96674W        W97538  17.323   4.750  10.975  0.0319 -0.1907  0.0666
96675W        W97539  23.639  17.357   8.054 -0.2229  0.0297 -0.1608
96676W        W97540  19.925  14.572  18.454  0.4145 -0.1373 -0.3709
96677W        W97541  11.286  10.519   5.786  0.1110  0.0435 -0.4922
96678W        W97542   0.176  12.427  20.164  0.2647 -0.5290  0.0124
96679W        W97543  18.363  19.541  20.163  0.0216 -0.0244 -0.0250
96680W        W97544   3.117   5.097  25.278 -0.1680 -0.0246  0.0456
96681W        W97545  28.718  20.787   7.018  0.0136 -0.1920 -0.2129
96682W        W97546  27.303  17.966  20.200 -0.2227  0.3095  0.2121
96683W        W97547  15.923  11.120  17.258 -0.0024  0.1855  0.0606
96684W        W97548  19.830  19.539   6.349  0.1022  0.1237  0.1608
96685W        W97549   6.205   2.184  24.730 -0.1169 -0.1463  0.0307
96686W        W97550  27.464  15.848   6.156 -0.0365  0.0070  0.0388
96687W        W97551  24.226   6.624  16.520  0.1395  0.0283 -0.2856
96688W        W97552  24.203  26.424  27.852  0.0978  0.1312 -0.0469
96689W        W97553  20.876  21.061   6.735 -0.0568 -0.0819 -0.0007
96690W        W97554  24.410   8.256  21.829 -0.1982  0.0293 -0.0439
96691W        W97555   7.044  24.777   9.398  0.0208 -0.0357  0.1052
96692W        W97556   4.993  17.136   3.637 -0.1066 -0.0993  0.1794
96693W        W97557   0.823   0.630   2.925  0.2049  0.0977 -0.1219
96694W        W97558   1.929   9.224   7.137  0.3726 -0.5291  0.0940
96695W        W97559  28.392  20.474  16.139  0.1239 -0.0663  0.1702
96696W        W97560  28.941  27.106  22.676  0.0997 -0.1596  0.0180
96697W        W97561   0.943  21.688  13.529  0.0451 -0.2301 -0.0982
96698W        W97562  20.942   8.618   6.626  0.0132 -0.1425 -0.0204
96699W        W97563   6.705  13.833   2.920  0.0366 -0.0115 -0.0782
96700W        W97564  21.878  28.424  11.985 -0.0499  0.2562 -0.0444
96701W        W97565  22.405  12.920  22.469 -0.2767  0.1636 -0.1223
96702W        W97566  11.834   3.528   4.996 -0.1485 -0.1602  0.3243
96703W        W97567   2.383   6.549  16.170  0.3810  0.0344  0.0631
96704W        W97568  23.194   1.207   1.938 -0.0430  0.0461  0.0227
96705W        W97569  23.351   4.311  24.256  0.0707  0.1829 -0.0281
96706W        W97570  22.583  13.332   8.388  0.0363  0.0330  0.0317
96707W        W97571  28.520  11.467  13.789  0.2563 -0.0542  0.2542
96708W        W97572  22.092  18.321  24.765 -0.0211 -0.1896 -0.1859
96709W        W97573  27.570  13.801   1.876  0.0830  0.0132 -0.1316
96710W        W97574  23.592   4.442  17.138  0.1828  0.2452 -0.2350
96711W        W97575  25.189  27.694  11.993 -0.1135 -0.1307  0.0092
96712W        W97576   0.778  15.988  15.277  0.1621  0.0722 -0.0731
96713W        W97577   8.883  16.465   1.794  0.3340  0.1051  0.3244
96714W        W97578  25.957  21.433  19.802 -0.1028 -0.0304  0.2492
96715W        W97579   7.263  25.953   9.548 -0.0570 -0.1536 -0.1528
96716W        W97580   4.371  15.411  10.616 -0.1136  0.1103 -0.1022
96717W        W97581   1.675  18.435   6.389 -0.1247  0.0965 -0.1627
96718W        W97582  19.177   1.225  22.328  0.2737  0.1054 -0.3116
96719W        W97583   7.201  20.273   5.397 -0.2179 -0.0201  0.1880
96720W        W97584  18.130  21.280  13.077  0.1672 -0.2643  0.1048
96721W        W97585  24.267  21.432   9.624 -0.5004  0.0349 -0.0233
96722W        W97586   6.154  22.969  10.374  0.1923  0.0996  0.0198
96723W        W97587   7.027  24.185  11.968 -0.0847  0.0599 -0.1641
96724W        W97588  21.895  25.569   2.794  0.1050 -0.2514  0.2140
96725W        W97589  28.711  15.480  20.397  0.1140 -0.1855 -0.1547
96726W        W97590   8.272  11.554  13.890 -0.1016 -0.2271  0.1042
96727W        W97591  14.592  15.971  19.225  0.0790  0.2179  0.0124
96728W        W97592  22.299  20.691   1.189  0.0505  0.0970 -0.3002
96729W        W97593   4.499  28.942   7.279  0.1452 -0.0324  0.1923
96730W        W97594   0.465  19.656  14.906  0.0009  0.0537 -0.0824
96731W        W97595   8.829   0.944   7.291  0.2652  0.0237  0.0024
96732W        W97596   5.581  18.158   0.706 -0.2597  0.0245  0.0668
96733W        W97597  15.622  13.038  15.154 -0.2292 -0.2341  0.0900
96734W        W97598   5.888  21.077   0.763  0.2056 -0.0926  0.0010
96735W        W97599  18.157  26.561  13.163 -0.1852  0.0747  0.1832
96736W        W97600   6.249  14.009   4.367 -0.0833 -0.1905  0.1129
96737W        W97601  27.604  12.449  21.868 -0.3117 -0.0052 -0.3230
96738W        W97602  10.507   5.610  18.343 -0.2385 -0.0460  0.2748
96739W        W97603  19.102  28.108   3.167 -0.0926  0.2156  0.1043
96740W        W97604  26.369   5.747  26.181  0.3220  0.0075  0.0526
96741W        W97605   3.566  16.886  11.299 -0.2223 -0.0293  0.2548
96742W        W97606  21.538  23.439  10.271 -0.0344  0.4673 -0.3688
96743W        W97607  11.226   4.762  28.836  0.3038 -0.1673  0.3384
96744W        W97608  17.205   2.011   7.301  0.0836 -0.1427  0.2781
96745W        W97609  24.235  16.659  20.711 -0.1845 -0.2888  0.0393
96746W        W97610  10.497  20.693  12.540 -0.3754  0.0606 -0.1159
96747W        W97611   6.918  17.470   5.913 -0.1857 -0.0704 -0.3568
96748W        W97612  14.584  26.889  17.036  0.2400  0.0176 -0.1486
96749W        W97613  10.989  16.256  27.285 -0.0273 -0.1782 -0.1418
96750W        W97614  16.009   8.624   9.968  0.3150  0.1736 -0.0144
96751W        W97615  17.165  16.365  13.221 -0.3131  0.0941 -0.2728
96752W        W97616  21.228  20.146  20.310 -0.4896  0.1267 -0.1726
96753W        W97617  23.065  11.457  10.249  0.3438  0.1190  0.2804
96754W        W97618  26.354  17.826   5.287 -0.2584  0.2259 -0.3295
96755W        W97619  28.445  23.644   4.039  0.1560  0.0747  0.3057
96756W        W97620   7.338  26.575   6.332 -0.0261 -0.2415 -0.1550
96757W        W97621   5.378   0.165   4.276  0.1009 -0.2117  0.0440
96758W        W97622   6.614  10.722  19.035 -0.0292 -0.1398  0.1624
96759W        W97623   3.698  27.187  16.592  0.0473 -0.0771  0.2466
96760W        W97624  25.135  16.746  12.075  0.1752 -0.4824  0.0995
96761W        W97625  19.221   3.916  24.500 -0.3272  0.2301  0.0021
96762W        W97626   9.168  10.167  17.804  0.1842 -0.1351 -0.2338
96763W        W97627  28.158  25.552  27.286  0.0911  0.0740 -0.0263
96764W        W97628   6.784  14.060   5.702 -0.0042 -0.0654  0.0967
96765W        W97629   2.128   5.091  18.128  0.1485 -0.0333 -0.1026
96766W        W97630  15.178  15.464   9.002  0.0255  0.4436  0.3265
96767W        W97631  27.746  20.279  12.797 -0.3122 -0.0667  0.2922
96768W        W97632  20.175  24.544  27.439 -0.0541 -0.1158 -0.0007
96769W        W97633  28.392   1.921  12.494  0.0159  0.2009 -0.3216
96770W        W97634   5.399  20.664  12.599 -0.0213 -0.1571 -0.0616
96771W        W97635  28.868  24.428  14.019 -0.0969 -0.0676 -0.1816
96772W        W97636  19.692  15.981  13.268  0.1906 -0.0229 -0.0267
96773W        W97637  22.211  25.624  18.842  0.5165  0.2855 -0.1552
96774W        W97638   8.047  26.601  18.092  0.2764 -0.1035  0.2282
96775W        W97639  27.891  24.057   4.604  0.0793 -0.0441  0.0033
96776W        W97640  23.766  28.387   6.724  0.0847  0.1407  0.0560
96777W        W97641  20.597  15.162  10.652 -0.1578 -0.1452 -0.1825
96778W        W97642  20.446  25.780   8.939 -0.0424 -0.1091 -0.1114
96779W        W97643  19.370  20.692  20.191 -0.2159 -0.2680 -0.1976
96780W        W97644   7.476  10.549  18.527 -0.0034 -0.1071  0.2158
96781W        W97645   5.524   2.798  26.549 -0.1699  0.0843  0.1464
96782W        W97646  22.882  19.595   8.696 -0.3547  0.2678 -0.0372
96783W        W97647  22.185  24.140  22.478  0.1140 -0.1367 -0.1296
96784W        W97648  24.288   4.751   3.025 -0.3422  0.0919  0.1707
96785W        W97649  14.674  16.420  11.041 -0.4462 -0.0657 -0.3971
96786W        W97650  23.293  26.877  21.716 -0.0365 -0.1652  0.0564
96787W        W97651   2.662  18.710  20.890  0.2789  0.0483 -0.1527
96788W        W97652  20.845   5.194  20.886 -0.0945 -0.1222 -0.1815
96789W        W97653  20.302   7.826   2.815  0.0534  0.0196 -0.1935
96790W        W97654   4.694   7.495  22.865  0.2108  0.0545  0.0230
96791W        W97655  21.317  18.422   4.691 -0.1736  0.0746 -0.1295
96792W        W97656  14.186  19.452  11.565  0.1018  0.1004  0.1821
96793W        W97657  10.694  26.765  20.042 -0.2956 -0.2857  0.0470
96794W        W97658  24.727   8.994  26.377 -0.1231 -0.0874 -0.1534
96795W        W97659   5.196  13.145   8.819 -0.0595  0.2794  0.1637
96796W        W97660  28.029  20.785   4.917 -0.2203  0.0107 -0.0493
96797W        W97661  23.771  13.687  28.232 -0.1467 -0.0321 -0.0549
96798W        W97662  20.177  28.875   2.986  0.0398  0.1529  0.1155
96799W        W97663   0.583  27.119   8.423 -0.2766 -0.2011  0.0970
96800W        W97664  12.952  16.140  10.758  0.1432  0.0832  0.0050
96801W        W97665  10.548  15.491  23.607  0.3337 -0.0437 -0.1046
96802W        W97666  20.673  21.634  10.500  0.4760  0.2489 -0.1577
96803W        W97667  19.661  27.966  19.914 -0.2878 -0.0458 -0.2298
96804W        W97668  27.600   6.586  14.370  0.0815  0.1570 -0.1825
96805W        W97669  28.097   5.069  26.761 -0.1400 -0.1266  0.1963
96806W        W97670  27.698  23.180  12.199 -0.2881 -0.3554 -0.2453
96807W        W97671  15.247  11.015  18.726  0.0642 -0.0707  0.1372
96808W        W97672  12.424  15.135  24.748 -0.0556 -0.2276  0.2470
96809W        W97673   0.663  21.567  26.017  0.0197  0.2623  0.2315
96810W        W97674  13.125  25.283  19.615  0.2933  0.0687 -0.2704
96811W        W97675  26.027   5.054   0.877 -0.1373 -0.2317  0.1490
96812W        W97676  23.235  20.578  11.808  0.1227  0.1373  0.2261
96813W        W97677  28.361  28.315  14.583  0.1874 -0.0096 -0.0265
96814W        W97678   9.400  10.733  26.616 -0.1794 -0.3531  0.1546
96815W        W97679   7.651  16.921  18.394  0.1919  0.2670 -0.0615
96816W        W97680   1.191  10.807   9.072  0.1136 -0.0464 -0.0270
96817W        W97681  28.628  27.936  22.482 -0.1517  0.2399  0.2135
96818W        W97682  20.688  21.212  17.350 -0.1608  0.2102  0.1758
96819W        W97683   4.107   2.219   6.664  0.2025  0.1535  0.5135
96820W        W97684   4.241  14.985   3.726 -0.0169  0.1586  0.0390
96821W        W97685  11.183   6.725   9.087 -0.1873  0.2360  0.1124
96822W        W97686   0.492  20.280  16.056 -0.2055  0.0190 -0.2110
96823W        W97687  20.164   9.091  19.624 -0.1667  0.0675  0.1766
96824W        W97688  27.750  22.247  15.132 -0.0445 -0.0229  0.0109
96825W        W97689  11.185  12.763   6.612 -0.2615 -0.0330 -0.0691
96826W        W97690  13.082  24.570   2.992  0.1439 -0.1473  0.1161
96827W        W97691  24.252  19.751  25.692  0.0960  0.1390  0.1648
96828W        W97692  10.637  10.766  20.250  0.2371  0.1945  0.1335
96829W        W97693  15.202  15.980  22.703  0.3477 -0.0361 -0.1244
96830W        W97694   3.217   8.628   4.703 -0.1050 -0.1906 -0.1745
96831W        W97695  22.708  21.595  22.042 -0.1768 -0.2263 -0.0991
96832W        W97696  20.544  18.437  11.671 -0.1747 -0.3906  0.2371
96833W        W97697   3.949  24.685  21.124  0.0133 -0.0116 -0.1841
96834W        W97698  15.845  23.570  14.024 -0.0581  0.0592 -0.2433
96835W        W97699   0.867  28.496  18.778 -0.0156 -0.3341 -0.2385
96836W        W97700   5.909  21.340  16.779 -0.0729  0.0019 -0.0612
96837W        W97701   6.471   9.919  10.278  0.1180  0.1430 -0.1320
96838W        W97702  13.655  26.707  27.552  0.0255  0.2104 -0.2873
96839W        W97703   2.168   3.257  13.438  0.1260 -0.0549 -0.1452
96840W        W97704   7.464  17.827   7.914 -0.2452  0.0154  0.0153
96841W        W97705  22.055  14.607   2.802 -0.1694 -0.1668 -0.1433
96842W        W97706  24.636  24.125  24.204  0.1160 -0.0618  0.2150
96843W        W97707   4.271   1.833   8.992 -0.1828 -0.2463 -0.0726
96844W        W97708  27.666  11.294  20.401  0.1814  0.1233  0.1965
96845W        W97709  14.352  25.443   6.136  0.0523 -0.1256  0.1200
96846W        W97710  29.083   6.522  25.820 -0.0143  0.1109  0.3254
96847W        W97711  23.516  19.045  11.803 -0.1136 -0.0067 -0.0805
96848W        W97712   1.528  20.652  10.472  0.3861 -0.2995  0.1834
96849W        W97713   9.247   8.842   8.420 -0.0396  0.1540 -0.2077
96850W        W97714   9.439   8.397  19.960 -0.1310  0.0794 -0.0132
96851W        W97715  25.907  16.893  22.331 -0.1536  0.1874  0.1870
96852W        W97716  10.359  10.417  12.437 -0.1277 -0.1908  0.0347
96853W        W97717   6.500  24.140   5.219  0.0833 -0.1533 -0.0026
96854W        W97718  23.903   3.157  13.080 -0.4093  0.1276 -0.1806
96855W        W97719  14.654   3.837  28.934  0.1825 -0.3269  0.2500
96856W        W97720  15.317   7.589   9.329  0.0610 -0.0598 -0.1510
96857W        W97721  20.370  25.539   1.225  0.1376 -0.0431  0.1624
96858W        W97722   4.422  21.213  22.481  0.1343 -0.0570  0.0929
96859W        W97723  10.285  20.920  21.543 -0.0392  0.0577  0.0180
96860W        W97724  12.009  13.311  19.271 -0.1376 -0.3451 -0.0002
96861W        W97725   6.052  26.900  21.486  0.0344 -0.3687  0.1080
96862W        W97726  20.770  27.133  18.543  0.2128  0.2453 -0.3858
96863W        W97727  17.508  19.304   8.342 -0.1251  0.0459 -0.0304
96864W        W97728  27.876  14.179   5.215 -0.0935  0.5312 -0.1317
96865W        W97729  21.422  10.916   2.041 -0.0145  0.0088 -0.0091
96866W        W97730  14.929  23.236   8.119 -0.3804  0.2580 -0.2550
96867W        W97731   2.866  17.454   1.224  0.2917  0.3238  0.2473
96868W        W97732  26.058  10.717  12.773  0.1995 -0.1953  0.1973
96869W        W97733  19.902  25.857  11.224 -0.3954  0.0730  0.0301
96870W        W97734  20.065  15.818  28.964 -0.1205 -0.0124 -0.0412
96871W        W97735  11.348   3.889  25.062  0.0425 -0.1321 -0.0217
96872W        W97736   4.319  23.797  25.560  0.4152 -0.0023  0.1479
96873W        W97737  15.498  18.655  21.642 -0.2966  0.1285 -0.1977
96874W        W97738  16.352   5.362  12.627 -0.0923 -0.0455 -0.0209
96875W        W97739  20.560   6.062   9.471  0.0848 -0.1757 -0.3000
96876W        W97740   5.458  29.045   9.725  0.0339  0.0509 -0.1003
96877W        W97741  22.427   9.246   7.725  0.0665  0.3216 -0.0667
96878W        W97742  16.927   5.459  20.856 -0.0196 -0.0843  0.0418
96879W        W97743   1.974   8.912  14.872  0.0632 -0.0765 -0.0054
96880W        W97744   4.342  10.412  17.221  0.0733  0.5116  0.6324
96881W        W97745  18.086  29.037  11.579  0.0122 -0.1622  0.1887
96882W        W97746  14.348   0.962   5.633  0.1429  0.2208  0.0322
96883W        W97747  12.341   8.914   1.169 -0.2190 -0.0368 -0.0875
96884W        W97748  18.694   2.398  22.351 -0.0960  0.2098 -0.2910
96885W        W97749  14.248   9.224   7.093 -0.0974  0.2955  0.0980
96886W        W97750  22.057  11.794  23.996  0.0810  0.2257  0.2235
96887W        W97751   0.684  18.219   7.799 -0.0021  0.0932  0.0774
96888W        W97752  15.219  25.136  12.864 -0.0871  0.1379 -0.0913
96889W        W97753   2.392   3.964   9.929  0.1258 -0.0808 -0.1762
96890W        W97754  28.415   5.470  21.639  0.2408 -0.1843 -0.0465
96891W        W97755  12.930  21.640  11.649  0.2460  0.1531 -0.3238
96892W        W97756  26.917   0.829  12.739 -0.0652  0.2994  0.1764
96893W        W97757  29.036  16.051  19.184 -0.3520  0.0230  0.2786
96894W        W97758   9.405   9.046   9.978  0.0681  0.0198  0.1808
96895W        W97759  24.581  13.192  16.873 -0.2082  0.0496 -0.0935
96896W        W97760   8.500  14.879   7.712  0.0206 -0.1449  0.0661
96897W        W97761  14.278   6.188  12.871 -0.0754  0.0983  0.0994
96898W        W97762  16.119  15.211  23.070  0.1230 -0.1664  0.0145
96899W        W97763  28.997  13.536  21.456 -0.0738 -0.1087  0.1961
96900W        W97764   1.600  14.779  22.152 -0.0304 -0.1052  0.0614
96901W        W97765   4.482   3.283   9.016 -0.1896  0.0224  0.0079
96902W        W97766  24.523   5.543   4.868  0.0283 -0.0248  0.0771
96903W        W97767   1.543   6.991  11.590 -0.2574  0.0645 -0.2073
96904W        W97768  23.229  10.689   6.501 -0.1047  0.2671  0.0876
96905W        W97769  19.265   6.051   5.036  0.0612 -0.2548 -0.1215
96906W        W97770   8.065  27.470   8.776  0.0435 -0.3444 -0.2033
96907W        W97771  17.281  22.413   8.800  0.1262 -0.4159 -0.4285
96908W        W97772  27.720  19.365   9.966 -0.0071 -0.0074  0.1744
96909W        W97773   1.551  26.743  25.196  0.0253 -0.1703  0.1958
96910W        W97774  22.124  26.846   4.746  0.2206 -0.0943 -0.1061
96911W        W97775  26.513  23.516  21.578  0.1221 -0.0746 -0.4289
96912W        W97776  19.529  19.856  12.000  0.3701  0.3452 -0.1742
96913W        W97777   9.229  15.103  23.671 -0.1965 -0.0814 -0.0580
96914W        W97778   8.090  13.597  22.909 -0.0541  0.5016  0.1421
96915W        W97779  16.889  18.662  22.846  0.4414 -0.0909 -0.0889
96916W        W97780  10.673   2.408  24.492  0.0743 -0.1219  0.0775
96917W        W97781  17.820  28.099  13.587  0.0882 -0.0226  0.1706
96918W        W97782   8.896  18.404   3.321 -0.2662  0.2806  0.0067
96919W        W97783  27.560   2.631  15.060 -0.0476  0.2354 -0.2461
96920W        W97784  25.264  17.623  20.031 -0.0564 -0.0754 -0.0838
96921W        W97785  15.569   7.498  27.343  0.1425  0.0232  0.0369
96922W        W97786  28.327  13.137  24.864 -0.0763 -0.0863 -0.0079
96923W        W97787   7.104  15.682  11.572 -0.3413  0.3344 -0.1751
96924W        W97788   0.021  19.225  17.097  0.1556  0.0295  0.0431
96925W        W97789  13.609  22.179   7.016 -0.0060  0.2099  0.1775
96926W        W97790  25.705   9.216  15.141 -0.0698 -0.0553  0.1075
96927W        W97791  13.745   7.598  10.945 -0.1946  0.1592  0.2924
96928W        W97792  14.259   4.170   2.875  0.2211  0.3724 -0.1396
96929W        W97793  14.629   4.662   1.984  0.2009 -0.0591  0.2475
96930W        W97794   6.423  26.264  23.355  0.1497  0.2411 -0.0613
96931W        W97795  24.008  22.646  11.434  0.0033 -0.0702  0.2084
96932W        W97796   3.414   2.933  14.124 -0.2805  0.2343  0.0886
96933W        W97797   7.351   1.972  19.124 -0.0394  0.3017 -0.1138
96934W        W97798  24.646  21.588  20.405  0.0504 -0.1502  0.1516
96935W        W97799   7.667  26.951   8.591 -0.3139 -0.1393 -0.0696
96936W        W97800  28.649  21.668  23.348 -0.2616  0.1367  0.2764
96937W        W97801   5.535  22.985   7.844 -0.0888 -0.5175  0.0681
96938W        W97802  11.402   8.578  27.722  0.1939 -0.2747 -0.1762
96939W        W97803   6.900  10.599  21.889 -0.1812 -0.0923 -0.2760
96940W        W97804  19.516  26.217  18.884  0.0092  0.1129 -0.0274
96941W        W97805   1.699  11.754  15.443 -0.0254  0.1445  0.0098
96942W        W97806  26.008   9.495  23.848  0.1649 -0.1388  0.0790
96943W        W97807  11.606  21.470   9.119  0.1694 -0.0951 -0.2905
96944W        W97808  14.519   5.629  15.772 -0.0111 -0.1902  0.4637
96945W        W97809   2.846   5.109   3.444  0.5656  0.0053  0.0801
96946W        W97810  21.090  19.063  19.464  0.3506  0.1343 -0.1524
96947W        W97811  24.076  24.445   9.430 -0.1428  0.1478 -0.1690
96948W        W97812  22.367  18.659  22.550  0.0358 -0.1289 -0.1304
96949W        W97813  20.546  19.326  24.656  0.0534  0.2402  0.1097
96950W        W97814  28.448  14.231   8.442  0.0925  0.0633  0.0431
96951W        W97815   1.431  21.567  23.263  0.4480  0.0844 -0.3065
96952W        W97816  10.722  15.120   3.329 -0.0381 -0.2013 -0.1416
96953W        W97817  12.535  20.149  21.654  0.2215 -0.1973  0.0908
96954W        W97818   3.277   9.797   3.144 -0.3655  0.2152 -0.1609
96955W        W97819   7.900  16.233  11.243  0.0374 -0.1336  0.0947
96956W        W97820  11.158  22.190   6.964  0.4268  0.3508 -0.3719
96957W        W97821  15.687   0.094   9.986  0.1171 -0.0691  0.0306
96958W        W97822  28.295   2.029  16.131 -0.2102  0.0185 -0.1721
96959W        W97823   1.785  10.468  11.569 -0.0820 -0.0366  0.1919
96960W        W97824  24.031  25.700  16.171  0.0590 -0.0018 -0.2313
96961W        W97825  23.724  20.085  17.123  0.1919  0.0176 -0.0184
96962W        W97826   6.313  19.462  24.505  0.0573 -0.0254 -0.2625
96963W        W97827  16.423  14.674  25.912 -0.0144 -0.0219 -0.4113
96964W        W97828  26.057  15.669  26.382  0.5468  0.2479  0.1851
96965W        W97829  22.049   2.081   0.992 -0.0572  0.0343 -0.1409
96966W        W97830  18.657   7.991  20.566  0.0394  0.1308  0.0188
96967W        W97831   5.220   2.313   1.652 -0.2031  0.1766  0.1498
96968W        W97832  24.046  15.003   2.113  0.0246  0.1731  0.4475
96969W        W97833   3.765  22.731  26.806  0.2931 -0.2248  0.0647
96970W        W97834  13.900  16.292   0.448 -0.0871  0.4751 -0.0412
96971W        W97835  26.669  19.153  13.457 -0.4307  0.3631 -0.2430
96972W        W97836   8.366  18.451   6.469  0.1182 -0.0751 -0.0727
96973W        W97837  19.619  26.869  14.973 -0.1702 -0.0346 -0.3841
96974W        W97838  11.577  15.739  18.539 -0.0459  0.0056 -0.0851
96975W        W97839  20.892  23.041  28.501 -0.0356 -0.1216  0.2306
96976W        W97840  26.358  28.780  13.942 -0.2222  0.2215 -0.0521
96977W        W97841  22.756   9.951  12.912  0.1444  0.2978 -0.0794
96978W        W97842  19.107  18.185  14.123  0.0439  0.0221 -0.0842
96979W        W97843   5.582  29.008  28.100  0.0197 -0.4018 -0.4723
96980W        W97844  20.826  27.314  27.153 -0.0875 -0.1698  0.0110
96981W        W97845  18.943   9.389  28.369  0.0951  0.1422 -0.0683
96982W        W97846  17.269  24.484  25.529 -0.0354 -0.2558 -0.0935
96983W        W97847  27.122   0.432  17.421  0.1196 -0.1947  0.1318
96984W        W97848   4.493  18.147   8.125  0.0167  0.0296  0.1532
96985W        W97849   4.613  21.964   5.795  0.2016 -0.1583  0.0799
96986W        W97850   1.271  15.890   6.609  0.1197  0.2268 -0.6607
96987W        W97851  15.937  23.263   2.604 -0.1572 -0.0332  0.1929
96988W        W97852  16.256  16.641  22.803 -0.1492  0.0947 -0.2617
96989W        W97853  26.877  22.072   3.264 -0.0553 -0.0249 -0.2413
96990W        W97854  13.631   3.844  18.320 -0.0543 -0.3674  0.2784
96991W        W97855   3.738   7.576  16.913  0.1068 -0.0841 -0.1894
96992W        W97856   4.079   2.942   8.923 -0.0092  0.2136 -0.0048
96993W        W97857  25.746   4.402  25.731 -0.0417 -0.1498 -0.5415
96994W        W97858   9.884   6.124  26.367  0.4510  0.3450 -0.1598
96995W        W97859  19.207  22.658  18.356  0.2822 -0.0878  0.2304
96996W        W97860  23.035   7.263   4.392  0.2631 -0.0405  0.0807
96997W        W97861  26.585   6.763  27.373 -0.0927  0.2255  0.0045
96998W        W97862   5.484  15.738   9.265 -0.0629  0.0229 -0.1141
96999W        W97863   2.544  21.477  14.236  0.1726  0.0188 -0.0260
97000W        W97864  21.204  28.669   9.378  0.0956  0.2721 -0.1423
97001W        W97865  16.134  24.575   0.760 -0.3757  0.2391  0.0098
97002W        W97866  20.483   7.900   4.543  0.0546 -0.1878  0.0387
97003W        W97867   5.101  19.553   5.066 -0.0057  0.2448  0.2100
97004W        W97868  26.179  23.008  27.006 -0.1195 -0.1230  0.1016
97005W        W97869   5.760   9.891  12.289 -0.1297  0.1046 -0.0283
97006W        W97870  26.243  21.920   0.740  0.0918  0.1191  0.1117
97007W        W97871  20.455   7.496  28.956  0.1004  0.3840  0.0880
97008W        W97872  12.463  17.510   0.172 -0.3700  0.1313  0.3373
97009W        W97873  21.115  18.624   8.000  0.1094 -0.1790 -0.0112
97010W        W97874  28.099  15.019  20.213  0.2781  0.2963 -0.2484
97011W        W97875   5.048  26.199   7.170  0.0063 -0.2789 -0.0582
97012W        W97876  25.934  23.724  16.103  0.3223  0.2725  0.0670
97013W        W97877  21.935   1.917  18.669 -0.2871 -0.2229 -0.1780
97014W        W97878  20.347  21.433  19.050  0.1181  0.0873  0.0300
97015W        W97879  24.946   4.152  13.408  0.3491  0.1532  0.0514
97016W        W97880  18.658  21.428   6.716  0.0245 -0.1476  0.1626
97017W        W97881  29.118  17.658  20.583  0.1638  0.0285  0.0534
97018W        W97882   9.643   8.281  11.483  0.0787 -0.1366 -0.2343
97019W        W97883   8.275  24.641  14.708  0.2245 -0.2032  0.0493
97020W        W97884  10.624  10.162  14.242 -0.4413  0.1047  0.1413
97021W        W97885  10.132  14.559  19.365 -0.1151 -0.2910  0.3728
97022W        W97886   5.632  23.156  13.899  0.0410 -0.0451 -0.4160
97023W        W97887  22.909   7.594   8.664  0.2423 -0.2542 -0.0913
97024W        W97888  20.244  12.680  20.666 -0.1164 -0.0983  0.1203
97025W        W97889  26.128   9.252   7.685 -0.0565 -0.1932 -0.0251
97026W        W97890  20.244   2.262  20.195 -0.2423  0.3154 -0.2778
97027W        W97891   1.189   9.501  23.878  0.0448  0.3377  0.1403
97028W        W97892  27.907  15.348  15.516 -0.0223  0.0961 -0.2953
97029W        W97893  24.696  27.842   2.880  0.1050 -0.0123  0.0914
97030W        W97894   1.783  16.486   9.546 -0.0550  0.1136  0.2319
97031W        W97895   7.387  12.286  10.667  0.1935 -0.2303 -0.0839
97032W        W97896  20.672  15.534   8.808 -0.1523 -0.0363  0.2365
97033W        W97897  21.594  14.692  13.667 -0.0097  0.4203  0.1388
97034W        W97898   7.789   2.013  27.682  0.3044 -0.0353  0.0508
97035W        W97899  27.011   0.166  17.016  0.2314  0.3435  0.0426
97036W        W97900  23.461   1.735  14.730 -0.2782 -0.1006  0.0759
97037W        W97901  13.228   5.877  14.600 -0.2008  0.2006 -0.4947
97038W        W97902   8.276   1.314  16.121  0.3335  0.2244  0.1928
97039W        W97903  25.830  20.257   1.090 -0.0162 -0.1434  0.1819
97040W        W97904   1.249  15.469  23.757 -0.0853 -0.0154  0.3620
97041W        W97905   4.451  21.667  23.018 -0.0237 -0.0406 -0.0670
97042W        W97906  17.028  24.093   3.654  0.0893 -0.1280  0.2760
97043W        W97907   2.691  21.926  12.907 -0.1912 -0.2258 -0.0557
97044W        W97908   7.473   7.226  24.685 -0.1944 -0.0886 -0.0485
97045W        W97909  12.728  29.028  12.454 -0.1450 -0.1276  0.1983
97046W        W97910  13.074  22.336  22.646  0.1307  0.0271  0.1105
97047W        W97911  23.153  16.137  19.150 -0.4949  0.1302 -0.0552
97048W        W97912  27.639  21.993  13.703 -0.1102  0.0410  0.1292
97049W        W97913   8.457  22.263  20.383  0.0588  0.0249 -0.0654
97050W        W97914  17.076  18.546   4.666 -0.0911  0.1976 -0.3307
97051W        W97915  17.667  22.821  24.122 -0.0993  0.0410  0.0166
97052W        W97916  18.940  27.266  22.296  0.3165 -0.0881 -0.1352
97053W        W97917  14.027  23.152  18.014  0.3918  0.1485 -0.0520
97054W        W97918   0.223  27.969  13.922 -0.0506 -0.0686 -0.2659
97055W        W97919   5.866  15.666   3.509 -0.2722 -0.3653  0.4639
97056W        W97920  14.897  18.686  22.924  0.1968 -0.1025  0.0634
97057W        W97921  16.810  23.816  26.055  0.0583  0.0827 -0.2095
97058W        W97922  28.457  21.729   5.088 -0.0904  0.0497 -0.0947
97059W        W97923   7.633  27.736  17.368  0.2718  0.0331 -0.0304
97060W        W97924  17.645  26.835  14.748 -0.2843 -0.1537 -0.2968
97061W        W97925   6.651   0.457  25.070 -0.2592 -0.1744  0.0735
97062W        W97926  26.201  19.687   1.265  0.1438  0.2018 -0.2215
97063W        W97927   4.010   5.552  19.378  0.0409  0.1053 -0.1561
97064W        W97928  13.481  29.114  10.257 -0.0544  0.0082 -0.3154
97065W        W97929  18.993  11.589  23.516 -0.0229 -0.2272 -0.0644
97066W        W97930  19.138  23.701  14.188  0.0617  0.2967  0.1046
97067W        W97931   6.244  23.271  14.531  0.5250 -0.3374  0.1976
97068W        W97932  27.037   6.664  18.226 -0.0167  0.2265  0.0614
97069W        W97933  21.160   4.879  18.460 -0.1120  0.0174  0.2454
97070W        W97934  20.143  20.628  12.938  0.0888  0.1523 -0.0009
97071W        W97935  11.095  25.884  20.389  0.3303  0.0815 -0.1047
97072W        W97936   4.810  23.291  20.913 -0.2242  0.0950  0.1158
97073W        W97937  23.401   8.542   0.487 -0.2452  0.2313  0.1252
97074W        W97938   6.081  23.351  15.020 -0.1843  0.0614 -0.0470
97075W        W97939   1.896  23.722   6.298 -0.1730 -0.0630 -0.2579
97076W        W97940   0.609  16.631  15.424 -0.0067  0.0454 -0.1845
97077W        W97941  28.526   4.747   4.191 -0.1786  0.3118  0.1823
97078W        W97942   2.518   1.716  22.845  0.1133 -0.1791  0.0887
97079W        W97943   9.500   7.191  17.141  0.2348 -0.1059 -0.3423
97080W        W97944  13.616   2.396   8.861 -0.0266  0.1529  0.1391
97081W        W97945  24.522   3.310  13.790 -0.1721  0.1066 -0.0043
97082W        W97946   6.071  25.646   9.407 -0.1800 -0.1398 -0.0501
97083W        W97947   6.466  25.622  22.677 -0.0311  0.3915  0.0548
97084W        W97948   4.387  14.435  24.979 -0.0867 -0.1542  0.4756
97085W        W97949  25.074  12.397  19.248 -0.0179 -0.2095  0.0450
97086W        W97950  24.810  14.699  18.524 -0.1150 -0.0824 -0.0060
97087W        W97951   6.295  20.083  12.181  0.0974 -0.0145  0.2153
97088W        W97952   5.193  23.722   5.664 -0.3340  0.0669  0.3372
97089W        W97953  23.769   9.822   3.819  0.3699  0.1263  0.2621
97090W        W97954  26.463  18.941   5.047 -0.1905 -0.0705  0.2646
97091W        W97955  20.322   9.969  15.679  0.0200  0.0773 -0.1913
97092W        W97956   7.460   6.946  16.306  0.2230  0.2329 -0.4209
97093W        W97957   5.228   1.699   0.223  0.0539  0.1308  0.0915
97094W        W97958  24.832   6.658   6.424 -0.0959 -0.0035  0.2538
97095W        W97959  10.275  12.379   9.099  0.0612 -0.2352  0.0070
97096W        W97960  12.649  16.546  22.964 -0.2642 -0.2127  0.0883
97097W        W97961  12.176  20.177  25.685  0.0585  0.0777  0.1469
97098W        W97962   1.423  27.081   8.476  0.2997  0.2180  0.1760
97099W        W97963   0.828  23.357  11.520  0.3753  0.1240  0.2087
97100W        W97964  21.379  27.941  17.459 -0.0202 -0.2692  0.2033
97101W        W97965  25.803  23.098  14.251  0.0100 -0.1439  0.2071
97102W        W97966   2.049   1.526  14.922  0.4613  0.0573  0.3820
97103W        W97967  16.498   9.465  24.529  0.1019 -0.1735 -0.5609
97104W        W97968  10.427  28.746   5.581  0.1478  0.2751 -0.3848
97105W        W97969   0.465   0.767  21.689 -0.5434 -0.3029  0.1834
97106W        W97970  28.911  24.860  12.089  0.1898  0.1969 -0.0122
97107W        W97971  28.974   3.265   1.689 -0.1709  0.2401 -0.0064
97108W        W97972   5.635  18.111   3.308  0.0836 -0.0177 -0.5225
97109W        W97973   0.442   4.181  13.634 -0.2018  0.2399 -0.2415
97110W        W97974  18.558   0.743  11.948 -0.0393 -0.0827 -0.1452
97111W        W97975  27.944  24.327  10.160 -0.0418  0.0117 -0.0861
97112W        W97976   6.019   1.369  15.587  0.3398 -0.3182 -0.1405
97113W        W97977  21.109  13.960  15.994 -0.1399 -0.1130  0.0249
97114W        W97978   2.931   0.753   1.904 -0.2720  0.1949  0.0484
97115W        W97979   9.072  19.520  18.255  0.0170  0.1077 -0.3604
97116W        W97980  21.826  24.820   1.672  0.1603 -0.1345  0.3311
97117W        W97981  28.046  17.458   8.602 -0.2632  0.1475 -0.0479
97118W        W97982  15.402  10.611  24.637  0.3032  0.1263  0.0727
97119W        W97983  16.242   8.635   0.293 -0.1079  0.0147 -0.2161
97120W        W97984  10.463  20.537  28.468  0.2464 -0.2986  0.3676
97121W        W97985  23.544   1.835   6.045  0.2591  0.3220 -0.1280
97122W        W97986  20.621  14.292  26.236  0.1037 -0.1138 -0.1226
97123W        W97987  14.229  13.752  10.413 -0.5925 -0.3024  0.0958
97124W        W97988   6.830  12.829   8.080 -0.0971 -0.0971  0.2141
97125W        W97989   4.747  10.064  27.752  0.0309  0.1941  0.1841
97126W        W97990   1.430  12.876  12.401 -0.1568  0.0915 -0.2195
97127W        W97991   2.832  24.474  20.442  0.1656  0.0111  0.2533
97128W        W97992   5.007  27.266  20.897 -0.0333  0.1604 -0.2738
97129W        W97993   0.752  18.247  13.606 -0.1165 -0.0448  0.0733
97130W        W97994   3.357  15.663   4.252 -0.0691  0.0609  0.2423
97131W        W97995   6.341   5.171  19.268  0.0972 -0.1957 -0.0666
97132W        W97996  26.708   9.313  15.275  0.1608 -0.3591  0.3220
97133W        W97997  14.785   4.665   8.236  0.2146 -0.2744 -0.0913
97134W        W97998  19.076  26.836  16.074 -0.1235 -0.0344  0.1533
97135W        W97999  28.561  15.413  21.059 -0.0231 -0.1907 -0.0411
97136W        W98000   6.278   6.775   1.220  0.0158  0.1244 -0.1352
97137W        W98001   1.994  18.908  21.712 -0.1138  0.0527  0.0103
97138W        W98002  25.678  21.649  20.661  0.1284  0.1843  0.0347
97139W        W98003   1.257  26.489   7.085  0.2274 -0.0668  0.1355
97140W        W98004  15.245  25.986  24.986  0.0715  0.0100  0.0629
97141W        W98005  22.343  10.711  26.856 -0.1190  0.1715 -0.2026
97142W        W98006  28.641  14.736  24.568 -0.3249  0.2437  0.0020
97143W        W98007  25.086  16.026  27.580  0.0288  0.3774 -0.3642
97144W        W98008  26.003  17.682  10.103 -0.1934  0.0500  0.1244
97145W        W98009   7.823  18.424   8.882 -0.1204  0.2276 -0.0009
97146W        W98010  26.184  18.328  13.429  0.1796  0.1073 -0.0726
97147W        W98011   6.793  20.775  16.676  0.4621  0.2709  0.1724
97148W        W98012   8.712  23.378  17.585  0.2215 -0.3413 -0.1592
97149W        W98013  20.024  20.882  23.561 -0.1256 -0.0303  0.1386
97150W        W98014   7.568  14.874  22.199  0.2334 -0.2281 -0.0670
97151W        W98015   9.765  13.276   2.588 -0.5325  0.1776 -0.1577
97152W        W98016  23.157  24.391  26.383  0.0267  0.1678 -0.1058
97153W        W98017   6.432   8.723   3.722  0.0783  0.0788  0.0853
97154W        W98018  22.698  24.491  15.329 -0.0575 -0.1016  0.2044
97155W        W98019   2.103  21.832  11.693 -0.2215 -0.0637 -0.1410
97156W        W98020   5.016  20.477  20.282  0.0520  0.1808 -0.1428
97157W        W98021  10.840  12.897   7.461  0.0121 -0.1556 -0.0090
97158W        W98022   3.264  26.216  19.875 -0.1227  0.2225  0.2541
97159W        W98023  27.568   9.307  25.553 -0.2411  0.0939  0.7037
97160W        W98024  23.317  19.689  18.882  0.0930  0.1269 -0.0729
97161W        W98025  21.203  15.144  25.001  0.0570  0.2952  0.2107
97162W        W98026   4.826  26.433  18.587 -0.0708 -0.0085 -0.0885
97163W        W98027   5.642  16.530  18.311 -0.2769  0.1222 -0.1726
97164W        W98028  18.477  28.182   0.017  0.1180 -0.1507  0.1081
97165W        W98029   5.843  11.399   9.269 -0.1313 -0.1115 -0.2728
97166W        W98030  17.306   4.794   7.216 -0.0155 -0.0409  0.3038
97167W        W98031  21.585  19.670  15.197 -0.2325 -0.0124  0.0339
97168W        W98032  29.085   6.338   7.354  0.1351  0.0836 -0.0941
97169W        W98033   8.373  28.230   5.255 -0.3892  0.0005 -0.2899
97170W        W98034  25.077  25.974  13.229  0.1445  0.2351 -0.2594
97171W        W98035  11.189  22.912  14.233 -0.2407  0.1618  0.1715
97172W        W98036   1.921  23.319   4.075  0.2378 -0.3328 -0.0425
97173W        W98037  23.883   9.115   7.418  0.2754 -0.0216 -0.1145
97174W        W98038  25.043   3.656   7.829  0.0321  0.3873 -0.0257
97175W        W98039  26.032  14.240   3.987 -0.0682 -0.2043 -0.3237
97176W        W98040   0.546  10.915  29.004  0.0889  0.2093  0.3490
97177W        W98041  15.067  18.196  25.709  0.0047  0.0383 -0.2159
97178W        W98042  19.705  17.208   0.854  0.1149  0.1711  0.0906
97179W        W98043   8.308  13.392  18.022 -0.0653  0.0879  0.2765
97180W        W98044   5.238  11.463   5.372  0.0491  0.0901 -0.0019
97181W        W98045   6.387  20.553  24.611 -0.1310  0.4984  0.0735
97182W        W98046  20.753   7.453   9.459  0.1367 -0.1304 -0.2404
97183W        W98047   1.644  27.245  13.904 -0.2115 -0.1228  0.2131
97184W        W98048  21.799   2.260  17.227 -0.0219 -0.1962 -0.0076
97185W        W98049  13.182  16.334   2.233  0.1965  0.0694  0.0004
97186W        W98050  18.756  27.951  13.019 -0.2545 -0.0985  0.0900
97187W        W98051  12.586  25.469   3.922  0.0164  0.2680  0.2809
97188W        W98052  18.189  20.133  18.350 -0.1822 -0.1420 -0.0011
97189W        W98053  23.594  11.442  12.602  0.2075 -0.3663 -0.2309
97190W        W98054  26.632   0.930   6.634 -0.1829  0.1721 -0.1988
97191W        W98055   5.723  17.835  13.116 -0.0890 -0.3826  0.0629
97192W        W98056  12.542  22.732  11.852  0.1123  0.0721  0.2133
97193W        W98057   7.296  25.123  27.213 -0.0498 -0.0425 -0.2345
97194W        W98058  16.604  15.612   0.612  0.2284 -0.1751  0.1701
97195W        W98059   9.170  15.560  10.492  0.1711  0.2985  0.1235
97196W        W98060   8.786  28.936   2.035 -0.4424  0.2514  0.2906
97197W        W98061  24.893  24.372  25.857  0.3876 -0.2177 -0.0480
97198W        W98062  27.397  17.032   4.541  0.4143  0.2423  0.1597
97199W        W98063  24.021  20.507  12.396 -0.1604 -0.0318  0.2875
97200W        W98064  15.384   6.553   5.164 -0.0626 -0.1031  0.0862
97201W        W98065  12.194  22.293   4.563  0.1652  0.1579  0.0344
97202W        W98066  10.891  18.888  24.667  0.2606  0.0028 -0.0533
97203W        W98067   8.776  26.905  25.684  0.1580  0.1160 -0.1223
97204W        W98068  24.025  12.370   2.061 -0.0964  0.1349 -0.1084
97205W        W98069  26.594  28.156  16.683 -0.1485  0.1185 -0.2642
97206W        W98070   6.013  24.231   5.398 -0.1145 -0.0882  0.2631
97207W        W98071   1.639  15.989  20.006 -0.0243 -0.2234  0.0367
97208W        W98072  26.052  29.126  22.184 -0.2193  0.0677 -0.0288
97209W        W98073  19.744   2.808  20.694 -0.0446 -0.1132 -0.0390
97210W        W98074  25.547   1.631  14.406 -0.0053 -0.1148 -0.2071
97211W        W98075   6.879   3.416   1.345  0.4606 -0.4839 -0.0495
97212W        W98076  12.135   3.549  25.461  0.0123  0.2397 -0.1325
97213W        W98077   6.260   5.326  22.545 -0.1155 -0.0663 -0.2281
97214W        W98078  22.644  22.377   4.726 -0.1873  0.0986  0.1731
97215W        W98079  27.610   7.529   5.714  0.0809 -0.0647 -0.1973
97216W        W98080  27.676   7.913  20.614  0.3028 -0.3066  0.2551
97217W        W98081  27.500  15.598  14.627 -0.0440 -0.3274  0.0410
97218W        W98082   2.131   0.408  14.281 -0.0247 -0.2306  0.3365
97219W        W98083  16.670   9.247  22.037 -0.2310 -0.4671 -0.1303
97220W        W98084   1.057  17.295  19.493  0.0327 -0.0298 -0.5688
97221W        W98085  21.877  25.969  13.101  0.0790 -0.3856 -0.2821
97222W        W98086  21.046  10.841   3.786  0.2989 -0.0003  0.0747
97223W        W98087  25.377  27.568  28.612 -0.0739 -0.1636  0.4203
97224W        W98088   7.873  24.713  20.437  0.3764 -0.3416 -0.3770
97225W        W98089  10.534  15.108  28.291 -0.1739  0.1520 -0.0422
97226W        W98090   7.552   7.957   4.677 -0.1408 -0.0914  0.0436
97227W        W98091   9.131  21.209  24.336 -0.0864 -0.2243 -0.3121
97228W        W98092  21.707   2.582  19.444 -0.4283  0.1362 -0.0534
97229W        W98093  10.280   0.459  21.181  0.4788  0.2151 -0.0205
97230W        W98094  18.512  12.092   1.544 -0.0431  0.0926 -0.1620
97231W        W98095   5.273  11.978  17.740 -0.5450  0.0433 -0.0987
97232W        W98096   5.762  14.965   6.802 -0.1870 -0.3225 -0.0261
97233W        W98097  24.694  23.389  16.460  0.1096  0.0786 -0.0843
97234W        W98098  20.275   5.961  20.035 -0.2881  0.2666 -0.0560
97235W        W98099   3.784  28.899  14.134 -0.0009  0.1307  0.3554
97236W        W98100  25.843  24.920   3.038 -0.0442 -0.2435  0.1675
97237W        W98101  25.582   4.840  14.494 -0.0029  0.1148 -0.2398
97238W        W98102  23.935  24.017  22.648  0.0407 -0.0117  0.0253
97239W        W98103  21.868  25.858  19.120 -0.1207  0.0993  0.3637
97240W        W98104  21.986  17.740  11.684  0.0326 -0.2352 -0.0381
97241W        W98105  17.728  26.101  23.909  0.0035  0.0933 -0.2436
97242W        W98106   5.835  17.837   7.972  0.1972 -0.2178 -0.0679
97243W        W98107   0.918  11.617   0.440  0.4393  0.0599  0.1286
97244W        W98108  26.120  21.699  14.727 -0.2321 -0.1134  0.2852
97245W        W98109  25.484  20.489  16.603  0.0475 -0.0114 -0.0757
97246W        W98110   7.840  13.525   2.282  0.0158  0.0493 -0.0811
97247W        W98111   3.269  20.632  12.411 -0.4136 -0.3581 -0.5990
97248W        W98112  28.332  19.238  11.380  0.1845  0.0397 -0.1884
97249W        W98113   9.033  23.932  11.547 -0.0011  0.0908  0.1100
97250W        W98114  28.568  19.312  18.385 -0.1227 -0.3454  0.0591
97251W        W98115  17.532  10.835  23.373 -0.2047  0.2597  0.0626
97252W        W98116  17.261  18.251  21.428  0.1175  0.0755 -0.0610
97253W        W98117  20.457  16.587  15.091 -0.0670  0.1404  0.1513
97254W        W98118  25.146  25.449  21.527  0.1025  0.1989 -0.2148
97255W        W98119  21.557  21.013  26.160 -0.1296 -0.3273  0.0656
97256W        W98120  27.927  10.648   0.923  0.0960 -0.0525  0.3543
97257W        W98121  16.993  23.561  24.406 -0.0494 -0.0006 -0.0434
97258W        W98122  16.044  12.154   9.143 -0.1247 -0.0770 -0.0111
97259W        W98123  26.977  25.852   5.690 -0.2668  0.2799 -0.0318
97260W        W98124  28.436  25.735   7.559  0.0210  0.2609 -0.2126
97261W        W98125   8.565  18.449  10.089  0.2505 -0.1183 -0.2707
97262W        W98126  12.931  27.585  22.858  0.1483 -0.1060  0.0190
97263W        W98127   1.707  21.141  21.121  0.0448 -0.2774 -0.0022
97264W        W98128   1.988  24.294  18.508  0.1048 -0.0474  0.0526
97265W        W98129   6.748  19.835   7.243 -0.0564 -0.1076  0.2215
97266W        W98130   4.947  11.849  23.775  0.0843  0.0135  0.1434
97267W        W98131   2.109  16.827  16.700  0.0031  0.0481  0.0695
97268W        W98132  26.337  27.804   0.851 -0.0036 -0.1833  0.0312
97269W        W98133  14.898   5.457  16.204  0.1034 -0.0157 -0.1718
97270W        W98134   1.395  21.843  18.394  0.0725 -0.1797  0.2688
97271W        W98135  27.596  14.549   0.143  0.1023  0.1111  0.0573
97272W        W98136   8.084   0.778   5.575  0.5529  0.2540 -0.3669
97273W        W98137  20.397  14.437  21.105 -0.0453 -0.0846  0.3898
97274W        W98138   9.430  24.944  21.011 -0.0907 -0.2058  0.1247
97275W        W98139   0.721  11.894  17.910 -0.2107 -0.1976 -0.0829
97276W        W98140  20.320   9.092   6.614  0.1786  0.2059 -0.1249
97277W        W98141  19.290  22.936  28.983 -0.2427  0.1042 -0.3530
97278W        W98142  18.667  28.444   7.850  0.0102  0.0830 -0.3237
97279W        W98143   2.851  11.547  19.979  0.0635  0.0474 -0.0529
97280W        W98144   2.245  15.514  21.353  0.1621  0.2639 -0.0077
97281W        W98145  19.998   1.519  19.461  0.1311 -0.0331  0.1555
97282W        W98146  26.677  24.188   1.024 -0.0900 -0.3679 -0.0571
97283W        W98147  26.926  11.578   3.557 -0.1419  0.1110  0.1670
97284W        W98148  14.392   3.353  13.356 -0.0267  0.0483 -0.0044
97285W        W98149  16.865  11.988  17.154 -0.0210  0.2366 -0.0850
97286W        W98150  26.347  11.964  20.450 -0.0742  0.1317  0.0380
97287W        W98151  22.587   2.091   8.937 -0.1183 -0.2515 -0.2226
97288W        W98152  14.135  17.519  27.781 -0.0028 -0.0352  0.0283
97289W        W98153  12.566  28.876  28.489  0.0153  0.2025  0.1051
97290W        W98154   2.702  17.331  24.708  0.1481 -0.1581 -0.0599
97291W        W98155  26.211  18.829  14.249 -0.1761 -0.0715 -0.1095
97292W        W98156  18.636   1.206  21.257  0.1005 -0.1242  0.1665
97293W        W98157   9.409  13.996  28.336 -0.2387  0.0110  0.0633
97294W        W98158  23.219  19.593  25.120  0.0608 -0.1103 -0.0407
97295W        W98159  26.723   0.092  19.447  0.1578 -0.2682 -0.0953
97296W        W98160  22.386   5.615  23.775  0.1219 -0.1741 -0.0254
97297W        W98161  24.258   4.566   2.243 -0.1475  0.3157  0.0366
97298W        W98162   1.474  16.039  26.028  0.1947 -0.1561  0.0132
97299W        W98163   2.275  21.946  26.638  0.0315  0.0917  0.0825
97300W        W98164  17.164  22.915  14.461 -0.1335  0.1759  0.0254
97301W        W98165  10.192  10.821  22.349 -0.0850 -0.1065 -0.4568
97302W        W98166   0.796   6.806  26.909  0.2512  0.0707 -0.2545
97303W        W98167  20.800  25.590  25.544 -0.0841  0.0934  0.0136
97304W        W98168   3.833  21.159   1.566 -0.0613 -0.2224 -0.1372
97305W        W98169  24.060  13.276   2.363 -0.1480  0.2763 -0.1316
97306W        W98170   0.471  15.875   8.320  0.0425 -0.0440  0.2956
97307W        W98171  22.887  25.110  22.134 -0.0364 -0.2634  0.0912
97308W        W98172  23.196  22.565   3.990 -0.3086  0.1004  0.0205
97309W        W98173  22.011   3.762   7.922 -0.0308 -0.0735 -0.0803
97310W        W98174   2.789  23.470  26.287  0.2321 -0.3568  0.0495
97311W        W98175   5.225  19.875  16.136 -0.1417  0.1563 -0.1140
97312W        W98176  10.697  16.256   7.224  0.0461 -0.2310 -0.0342
97313W        W98177  29.126  20.754  18.566 -0.1883  0.0289 -0.2959
97314W        W98178  14.901  18.434  26.755  0.1097  0.3478  0.1051
97315W        W98179  26.496   2.679   2.554  0.0313  0.2820  0.0212
97316W        W98180  27.554   8.382  12.941 -0.1220  0.4318 -0.1083
97317W        W98181   2.440  22.631  12.680  0.1727  0.3267  0.0166
97318W        W98182   2.516  16.203   5.240 -0.0674  0.0375  0.3916
97319W        W98183  25.340  11.109  14.317 -0.1667  0.0985 -0.1271
97320W        W98184  26.755  13.940  24.249 -0.1875  0.1023  0.1531
97321W        W98185  22.592  19.400  18.329  0.1697 -0.0099 -0.0644
97322W        W98186   4.312  23.330  19.534 -0.0049 -0.0296 -0.2329
97323W        W98187  28.008  19.932  27.294 -0.1190  0.0008 -0.0386
97324W        W98188  21.423  26.645  12.252  0.0907 -0.2707 -0.0919
97325W        W98189  19.954   1.136  13.344  0.0016 -0.1453  0.1016
97326W        W98190  27.327   6.943  14.683  0.0976  0.0791 -0.1279
97327W        W98191   7.058  17.841  21.816  0.1693 -0.1390  0.0141
97328W        W98192   5.384  11.239   8.987  0.0072  0.1323 -0.1679
97329W        W98193   3.524  22.457  20.967 -0.1988  0.3104 -0.0796
97330W        W98194   0.388  17.748  17.194 -0.0261 -0.2990 -0.2262
97331W        W98195  20.517   8.311   4.184 -0.0485  0.4082  0.3612
97332W        W98196  10.352   8.070   4.948  0.2557  0.1449 -0.2740
97333W        W98197   1.875   4.974  24.695  0.1128  0.0438  0.0968
97334W        W98198   7.694   0.751  26.654  0.0752  0.1829  0.2332
97335W        W98199  13.236  14.677  10.864 -0.0674 -0.0584 -0.0395
97336W        W98200   2.935  12.490   3.658  0.0355 -0.1544  0.1352
97337W        W98201  14.339   3.776   3.254 -0.1433 -0.2707  0.1476
97338W        W98202   8.457  14.366   9.761 -0.0632 -0.0387  0.2452
97339W        W98203   4.538   8.127   2.461 -0.2117 -0.1346  0.0656
97340W        W98204   8.189  26.919  25.340 -0.1211 -0.0860  0.0572
97341W        W98205   3.361   6.009   5.983  0.0889 -0.1030 -0.4440
97342W        W98206   1.427  10.928  29.038  0.2347  0.0706  0.0879
97343W        W98207  28.080   1.236  21.031 -0.0803 -0.0683  0.0792
97344W        W98208   9.913  20.363   2.518  0.0713  0.4133 -0.0616
97345W        W98209   1.442  13.208  29.054 -0.0831  0.1352  0.1527
97346W        W98210  15.543  20.505   5.916  0.0666 -0.0985 -0.0607
97347W        W98211  25.607   9.945  25.329 -0.3339 -0.4308 -0.1130
97348W        W98212   2.317  14.438   3.937 -0.1526 -0.2802  0.0413
97349W        W98213  21.881  14.097  21.010  0.3527  0.0874  0.2506
97350W        W98214  15.855  16.812  15.256  0.0882  0.1323  0.0552
97351W        W98215  15.267  15.109   9.406 -0.0135  0.1729 -0.0040
97352W        W98216   1.314  26.780   2.351  0.1282  0.1743  0.0839
97353W        W98217  26.973   0.215  10.169  0.2291  0.2785  0.1248
97354W        W98218   1.954   3.461  25.478 -0.0342 -0.1164 -0.1590
97355W        W98219  27.565  17.762  15.871  0.0237 -0.0744 -0.1759
97356W        W98220  14.363  18.620  10.624 -0.1880 -0.1219  0.1482
97357W        W98221  27.944  19.738   7.452 -0.1546  0.3298  0.0855
97358W        W98222  16.798   9.791   9.300  0.0238 -0.1282 -0.2376
97359W        W98223  28.523   0.068   3.244 -0.0860  0.1227 -0.1357
97360W        W98224  11.165  21.329   3.280  0.4295  0.1043  0.0637
97361W        W98225  25.946  25.194  16.773  0.0064  0.3780  0.1045
97362W        W98226   2.094   1.915  22.550  0.1538  0.0005  0.2558
97363W        W98227   3.069  13.688   7.426  0.1471 -0.3093  0.1064
97364W        W98228  24.307   6.949  28.563  0.2027 -0.0076  0.0030
97365W        W98229  21.086  11.683  24.478 -0.1712  0.2085  0.3286
97366W        W98230  24.333  23.940   9.684 -0.0905 -0.0014  0.0925
97367W        W98231  27.411  20.095  19.568 -0.1342 -0.4135 -0.1363
97368W        W98232   5.024  21.577   6.493  0.0415 -0.1854 -0.3397
97369W        W98233  22.999  20.062   1.213  0.0708  0.0587  0.0109
97370W        W98234   4.731   9.449  21.237  0.2086 -0.0437 -0.0556
97371W        W98235  19.661  26.039  15.860 -0.1459 -0.0064  0.0090
97372W        W98236  23.299  11.693  23.366 -0.0411 -0.2106  0.3547
97373W        W98237  10.196  11.842  19.720 -0.1336  0.1264  0.0909
97374W        W98238  19.026  28.478  22.987  0.3005 -0.0032 -0.0585
97375W        W98239  12.054  15.106   6.316  0.0262  0.0921  0.0243
97376W        W98240   1.141   3.111   7.357  0.1046  0.2371  0.0455
97377W        W98241  22.639  14.589  16.489 -0.2151  0.0293 -0.2856
97378W        W98242  20.715  17.299  20.686 -0.1268  0.0114  0.0639
97379W        W98243  22.526  25.879  21.093  0.1333  0.2059  0.2346
97380W        W98244   4.750  16.627  26.111 -0.0251 -0.0006  0.1592
97381W        W98245  24.580  17.909  13.351  0.0571 -0.0548 -0.0837
97382W        W98246  23.076  11.768  20.998 -0.0051  0.1257  0.2823
97383W        W98247  15.254   7.594  15.696  0.3639 -0.0378  0.3351
97384W        W98248   9.724  13.627   0.907 -0.3212 -0.4496  0.0703
97385W        W98249  24.764  12.285  20.731 -0.0532  0.1487  0.0355
97386W        W98250  14.465  21.026  23.895 -0.0501  0.1152  0.0587
97387W        W98251  25.083  11.831  17.271  0.1044 -0.0720  0.1586
97388W        W98252  20.126  14.684  20.709  0.0524 -0.1111 -0.0371
97389W        W98253  15.583  10.552   8.357  0.2913 -0.1866 -0.1839
97390W        W98254   3.327  15.247  12.027  0.1325  0.0190  0.2797
97391W        W98255   1.155  21.422  19.308  0.3176 -0.4231 -0.1853
97392W        W98256  22.477  21.923   9.283  0.4113  0.1657 -0.0140
97393W        W98257  28.204   9.083  23.024 -0.0421 -0.0712 -0.3247
97394W        W98258  19.263  22.241  26.756  0.1131  0.0406  0.0997
97395W        W98259  15.661   5.786  20.056 -0.2468  0.3596  0.3765
97396W        W98260  26.091  16.342   8.557  0.4081  0.2722  0.0530
97397W        W98261  25.474  22.704  14.241 -0.1000 -0.1562  0.2070
97398W        W98262   3.021  21.066  15.949  0.0882  0.0468 -0.1943
97399W        W98263  16.773  23.651  17.439  0.1789 -0.0596  0.0335
97400W        W98264  28.230  18.260  21.268 -0.0986  0.0888 -0.0254
97401W        W98265  27.319  18.657  19.440  0.0047  0.0645  0.0993
97402W        W98266   8.581   3.820  12.411 -0.2719 -0.1117 -0.0704
97403W        W98267   5.948  23.554  13.572  0.0012 -0.1204  0.1223
97404W        W98268  21.864  19.821  19.631  0.2236 -0.1856  0.1207
97405W        W98269  10.722  10.894  22.370 -0.2248  0.0957  0.1117
97406W        W98270  28.648   5.649  18.448  0.0530  0.0282  0.1558
97407W        W98271  27.920  13.022  28.615 -0.2424 -0.2244 -0.1247
97408W        W98272   8.568  25.344  11.108  0.0849  0.0810  0.1095
97409W        W98273  23.977   0.423  20.755 -0.1328 -0.2014  0.0194
97410W        W98274  17.265  26.975  21.634  0.2381 -0.3027 -0.0962
97411W        W98275  12.133  16.955  10.816  0.2327  0.0805  0.0705
97412W        W98276   8.088   1.907  23.545 -0.2021 -0.0578 -0.1857
97413W        W98277  28.290  13.826  27.318  0.2114 -0.4764 -0.0265
97414W        W98278  27.349   2.046  12.917 -0.2122 -0.1411  0.2251
97415W        W98279   7.824   4.577  21.340  0.0486 -0.1546  0.0213
97416W        W98280   3.305  15.969  20.183 -0.0324  0.3464  0.1312
97417W        W98281  27.491   9.782  16.777 -0.1379  0.1523 -0.1802
97418W        W98282  22.287   1.446  10.020  0.0761 -0.3585 -0.1515
97419W        W98283  29.093   3.920   9.170 -0.1243 -0.1151  0.0549
97420W        W98284  13.398   7.937  18.572 -0.1722 -0.1277  0.1336
97421W        W98285  20.000  14.245  28.242  0.0516  0.2981 -0.4670
97422W        W98286  26.160   2.274  10.219  0.3765  0.0074 -0.2718
97423W        W98287  13.098  25.827  10.574  0.2555 -0.1128  0.1244
97424W        W98288  25.540  19.708  27.323 -0.1505 -0.2294  0.1049
97425W        W98289  24.243  20.612  15.800  0.1841  0.2600 -0.0789
97426W        W98290  26.706  17.742  20.232  0.0150  0.1001  0.0699
97427W        W98291  16.685  23.131  25.313  0.0908  0.2017 -0.0324
97428W        W98292   8.210   6.304  28.263 -0.1141 -0.1054  0.0600
97429W        W98293  23.909  21.612  21.572 -0.2424 -0.0403  0.1953
97430W        W98294   4.792  10.199  25.632 -0.2577 -0.0506 -0.1842
97431W        W98295  24.722  26.625  27.016  0.3383 -0.0202 -0.1452
97432W        W98296  21.707  24.456   4.688 -0.3231 -0.1182  0.0350
97433W        W98297   6.942  25.156   6.752  0.2816 -0.1721 -0.1345
97434W        W98298  20.865   8.247  22.147 -0.0503  0.1612 -0.2518
97435W        W98299  13.794   7.492   1.883 -0.2879  0.2390 -0.0237
97436W        W98300   0.075  15.911   3.844 -0.1096  0.1514 -0.0183
97437W        W98301   9.304  29.127   4.698 -0.2606 -0.1020 -0.1194
97438W        W98302   4.396   0.577   6.830  0.1193 -0.3979 -0.0168
97439W        W98303  20.786  27.711  25.374 -0.0643 -0.0086  0.2748
97440W        W98304  14.167  20.261   6.763 -0.0029  0.1112  0.0873
97441W        W98305  22.413  18.357  24.177 -0.1317 -0.1285  0.1974
97442W        W98306   7.838  14.411   6.394 -0.0500  0.0099 -0.3296
97443W        W98307  15.441  12.755  24.810  0.0133 -0.0867 -0.1431
97444W        W98308  25.659  21.469  24.170 -0.0122 -0.1711  0.1821
97445W        W98309  27.276  24.157  23.655  0.1303 -0.1693  0.4329
97446W        W98310  20.450  23.855   9.602  0.0155 -0.0336 -0.4164
97447W        W98311   2.349  14.985   8.132  0.1755  0.2917 -0.2945
97448W        W98312  26.462   6.706  27.912 -0.0046  0.1360  0.1114
97449W        W98313  25.982  19.239   6.843 -0.1001  0.1921  0.1016
97450W        W98314  16.182   0.409   8.515 -0.2876  0.0040 -0.0980
97451W        W98315   7.113  15.224  17.083  0.1260 -0.1335  0.1142
97452W        W98316  24.753  19.664   3.472 -0.1651  0.2267  0.0943
97453W        W98317  27.435  24.331  24.102  0.1376 -0.4623 -0.0187
97454W        W98318  22.064  25.302  16.767  0.0325 -0.0725 -0.0384
97455W        W98319  18.224  21.353  15.927  0.1848  0.0180  0.1336
97456W        W98320  24.438  20.091  14.778 -0.0033 -0.1202  0.1928
97457W        W98321  17.699   8.394  10.944 -0.2240 -0.1161 -0.1531
97458W        W98322  16.126   0.485  24.004  0.1703 -0.1472 -0.0637
97459W        W98323  23.647  15.232  15.091 -0.0750  0.0110  0.1460
97460W        W98324   1.265  14.465   1.711 -0.3980 -0.2682  0.2986
97461W        W98325   8.642  16.559  15.971  0.2763 -0.0609  0.0269
97462W        W98326  17.452  19.939  15.998 -0.0510 -0.0128  0.0110
97463W        W98327  17.369  20.029   1.957  0.0838 -0.1356  0.2144
97464W        W98328   5.229  24.056   0.924  0.2669 -0.3247  0.0935
97465W        W98329  10.070  17.173  22.191  0.0177  0.1162  0.3598
97466W        W98330  17.359  21.533  11.043  0.1581  0.1174  0.3654
97467W        W98331  11.332  18.617  25.202  0.0913 -0.0459  0.1757
97468W        W98332  10.103  19.473  12.533 -0.0416  0.0911 -0.3086
97469W        W98333  25.605  24.556   8.775 -0.0750 -0.3228 -0.1084
97470W        W98334   7.913  18.312   9.487 -0.2095 -0.0483 -0.1155
97471W        W98335   3.561  28.853  18.784 -0.2658 -0.1655  0.3072
97472W        W98336  26.117  10.835   2.782  0.0315 -0.0187 -0.0215
97473W        W98337  23.013  16.640  16.309 -0.2274  0.0747  0.0530
97474W        W98338   1.444  21.984   2.715 -0.1576 -0.0316  0.1195
97475W        W98339  21.341   7.620  14.228 -0.2717  0.1455  0.1587
97476W        W98340   1.888  27.426   9.759 -0.0172 -0.3974 -0.0977
97477W        W98341  22.651  13.716  11.195  0.0390  0.1494 -0.1491
97478W        W98342   0.029  23.747  22.870  0.0215 -0.0348  0.0939
97479W        W98343   6.387  16.445  13.988  0.1849  0.0440  0.1568
97480W        W98344  13.173  23.229  19.451 -0.1004  0.0937  0.1075
97481W        W98345  17.043  10.805   8.560 -0.1462 -0.1653 -0.0089
97482W        W98346  25.880  12.294  26.009 -0.1969  0.0295  0.1958
97483W        W98347  17.937  25.484   7.523  0.0696 -0.1154 -0.1022
97484W        W98348   0.864  21.749  12.237  0.2748 -0.2268  0.1660
97485W        W98349  25.316  24.689  24.268 -0.1327  0.0769  0.0592
97486W        W98350  18.565  14.243  14.471  0.0516  0.2523  0.0599
97487W        W98351   3.387  10.989   7.412  0.1177 -0.4313 -0.0609
97488W        W98352  14.098  17.274  15.799  0.1079  0.1295 -0.3380
97489W        W98353   4.991  10.408   4.819  0.1650 -0.2146 -0.1139
97490W        W98354  21.635  20.391  16.693 -0.2065 -0.0518  0.0704
97491W        W98355   2.132   8.827  10.555  0.1214 -0.3246  0.0097
97492W        W98356   2.928  10.675  23.751 -0.1787 -0.2483  0.3360
97493W        W98357   8.854   3.502  27.345  0.0968  0.0534 -0.1619
97494W        W98358  22.383  18.304  23.628  0.0704 -0.1477  0.2893
97495W        W98359   0.414  16.284   7.181  0.0697 -0.1302 -0.0173
97496W        W98360  15.212  24.799  26.693 -0.4546  0.1746 -0.3439
97497W        W98361   1.992  16.777  26.599 -0.2378 -0.0518 -0.2069
97498W        W98362  11.635   5.536  25.171 -0.0374  0.2120 -0.0491
97499W        W98363   4.417  29.046  22.358  0.0183  0.0916 -0.1006
97500W        W98364   8.619  24.807  22.689 -0.0633 -0.2601 -0.1343
97501W        W98365  20.219  10.181  20.469 -0.2045 -0.1179 -0.0686
97502W        W98366  10.347  29.032   0.089  0.3791 -0.0960  0.2346
97503W        W98367  21.504   5.567  23.456 -0.0628  0.0656  0.1231
97504W        W98368  13.556  11.042   1.220  0.0399  0.0054  0.6899
97505W        W98369   3.799  11.670  12.238  0.5467  0.1656 -0.0697
97506W        W98370  24.255  24.476  23.381 -0.0511  0.1218 -0.2237
97507W        W98371  21.305  27.690  15.489  0.2235  0.1408  0.1195
97508W        W98372  23.603  26.651  23.188 -0.0731 -0.2666 -0.2384
97509W        W98373  24.946   4.104  17.472 -0.1350  0.3063  0.0194
97510W        W98374  22.482  14.997  16.667 -0.0199 -0.0556  0.1621
97511W        W98375  19.586   9.978  26.451 -0.1562 -0.0724  0.0720
97512W        W98376  25.994  20.667  18.499 -0.1290  0.0164  0.0196
97513W        W98377  10.322  13.949  20.530  0.1076  0.3610  0.3636
97514W        W98378   5.315  24.097   3.215  0.4678  0.1564  0.1514
97515W        W98379  25.000   3.990  14.220  0.1626 -0.2326  0.0906
97516W        W98380  28.710  28.282   1.083  0.1263  0.0483  0.1099
97517W        W98381   7.679  10.941   1.109 -0.3084  0.2439  0.0407
97518W        W98382   6.703  12.755  24.646 -0.3102  0.0321 -0.0840
97519W        W98383  27.596   5.637  25.690  0.2586 -0.1866  0.0810
97520W        W98384  22.409  22.694   2.837 -0.1422  0.0123 -0.0191
97521W        W98385  24.083  24.742   6.747 -0.2050  0.1024  0.0249
97522W        W98386  27.631  14.275   0.519 -0.2433 -0.1635 -0.0926
97523W        W98387  21.202   5.604   9.113 -0.0485 -0.2166  0.0666
97524W        W98388   8.963  21.071  11.457  0.0761  0.2685  0.0787
97525W        W98389  21.315  24.322  27.709 -0.1199 -0.1853 -0.3768
97526W        W98390   8.236  12.685   9.314  0.0579 -0.1599  0.1323
97527W        W98391  17.983  19.973  19.992  0.1766 -0.0109 -0.0915
97528W        W98392   4.599  27.792   0.818 -0.1541 -0.0598 -0.0733
97529W        W98393   0.083   7.809  26.029  0.0048  0.0256  0.1438
97530W        W98394   0.811   1.464  27.105  0.1109 -0.0545  0.0604
97531W        W98395   6.840  15.010   5.182  0.0068  0.1442  0.1928
97532W        W98396   2.935   3.911   0.994 -0.1222  0.1608 -0.3607
97533W        W98397  22.359  22.931   1.220 -0.0453  0.0560 -0.2772
97534W        W98398  26.114  11.580  14.181  0.0531 -0.0912  0.2117
97535W        W98399  21.515  29.029  28.506 -0.1206  0.1299 -0.2239
97536W        W98400  13.017  28.399   2.450 -0.0233 -0.2943  0.0575
97537W        W98401  10.553  20.762   8.201  0.0824  0.2444  0.0333
97538W        W98402   8.797  14.036  10.947  0.3974  0.2881  0.0113
97539W        W98403  26.169  14.736  28.046  0.2474 -0.0540 -0.3539
97540W        W98404  10.849  21.088   2.042  0.2485 -0.0772  0.3240
97541W        W98405   5.462  28.711  20.051 -0.0308  0.2195  0.0401
97542W        W98406   0.239   9.376  18.926 -0.3621 -0.0876  0.0692
97543W        W98407  13.448  27.248  10.606 -0.3477  0.1580 -0.0447
97544W        W98408   7.756  27.292   4.004 -0.0269  0.0090 -0.2185
97545W        W98409  26.163   9.227  22.689 -0.2639  0.1258 -0.0777
97546W        W98410  26.555   8.984   4.231  0.0475  0.1497 -0.0852
97547W        W98411  21.052   9.364  26.894 -0.0068  0.3587  0.2123
97548W        W98412  23.728  24.189  22.146  0.3101 -0.1094  0.3545
97549W        W98413   2.635   7.721  16.676  0.1705  0.0259 -0.3455
97550W        W98414  23.757  21.301  23.532  0.0816 -0.1306 -0.3649
97551W        W98415   0.165   9.511  28.432 -0.0559 -0.1657 -0.2493
97552W        W98416  24.688  21.507  16.457 -0.1100 -0.0020  0.0144
97553W        W98417  21.697  16.933  18.812 -0.0722 -0.0540 -0.0637
97554W        W98418  21.800  24.387  11.225 -0.0413  0.0954 -0.0991
97555W        W98419   7.177  22.258  13.859  0.0195  0.3488  0.0118
97556W        W98420  19.717  17.235   7.215 -0.2978 -0.1384 -0.0093
97557W        W98421  17.541  19.562  14.915 -0.0636 -0.0859  0.2050
97558W        W98422   6.764   0.886  23.917  0.3672  0.0799  0.0658
97559W        W98423   4.918   3.484   3.386 -0.1577  0.3115  0.1707
97560W        W98424  18.036  16.317  22.270  0.1108 -0.0392  0.5474
97561W        W98425  18.941  14.160  18.438 -0.1827 -0.0557 -0.2162
97562W        W98426   1.268   9.898  17.748 -0.1543 -0.0361 -0.2025
97563W        W98427   1.161  26.208   0.087 -0.0912  0.0596 -0.2866
97564W        W98428   7.867  21.640  10.215 -0.0917 -0.3264  0.1093
97565W        W98429  27.494  17.440  10.266 -0.0515 -0.1566  0.1310
97566W        W98430  27.153  12.800   6.124 -0.2635 -0.1263 -0.0539
97567W        W98431  26.573  23.779  17.539 -0.0105  0.4370 -0.0011
97568W        W98432  26.091   4.070  24.142 -0.0448  0.0818 -0.3887
97569W        W98433  12.414  23.197  10.856 -0.1984  0.2586 -0.0373
97570W        W98434   2.596  20.005  16.744 -0.1655 -0.0421 -0.0020
97571W        W98435  14.951  25.114  24.922 -0.0847  0.0316  0.2068
97572W        W98436  15.881  22.016  22.212  0.0677 -0.1300 -0.0405
97573W        W98437   2.693  12.724  22.413  0.2832 -0.0525  0.1427
97574W        W98438  26.151   9.311  10.748 -0.0760  0.2281 -0.1362
97575W        W98439   2.995  18.961  18.049  0.4840 -0.1464 -0.1975
97576W        W98440   6.627   6.619   4.463 -0.0122  0.2276  0.0638
97577W        W98441  24.534  25.572   6.665 -0.1051  0.1497 -0.1343
97578W        W98442   6.018   9.306   7.703  0.0439  0.1800  0.1274
97579W        W98443  23.066   6.870  13.095  0.1341 -0.0168 -0.0715
97580W        W98444  27.917  12.211  25.153 -0.1520  0.3166 -0.1661
97581W        W98445  18.275  13.953  14.151  0.3875 -0.1026 -0.1126
97582W        W98446  19.113  23.146  21.249 -0.2033 -0.1761  0.0530
97583W        W98447   3.472  20.117   2.084  0.1496  0.3602  0.0283
97584W        W98448   9.167  22.315  19.366 -0.0690 -0.0877 -0.0123
97585W        W98449  17.563  15.557  20.840 -0.0325 -0.0604 -0.0752
97586W        W98450  11.550   2.616  12.648  0.0446 -0.0679 -0.2111
97587W        W98451   7.019  16.063  23.686  0.1238  0.0475  0.2557
97588W        W98452  18.200  21.256  19.773  0.1536  0.1653  0.0697
97589W        W98453  26.156  12.754   8.625  0.1815 -0.1781  0.1104
97590W        W98454  24.902   7.155  17.557 -0.1175  0.1470 -0.1553
97591W        W98455   6.209   9.187   4.057 -0.0187 -0.0097 -0.1151
97592W        W98456  22.608   5.344   4.835  0.0024  0.0444 -0.0582
97593W        W98457   7.504  16.048  18.319 -0.1824 -0.0777 -0.0931
97594W        W98458  26.875  12.144  10.405  0.1819 -0.1178 -0.0274
97595W        W98459   3.838  15.347  22.365  0.0903  0.1400  0.1716
97596W        W98460   3.446  19.596  17.773  0.1305 -0.2030 -0.0101
97597W        W98461  28.772  11.315   9.971  0.0135  0.1258  0.2175
97598W        W98462  23.973  22.767   0.888 -0.0399 -0.1650 -0.0504
97599W        W98463  13.269   0.190   8.861  0.2414 -0.0355  0.0995
97600W        W98464   1.435  13.665  26.623  0.0098  0.2161  0.3798
97601W        W98465   6.884  27.892  22.808  0.0309 -0.0360 -0.0482
97602W        W98466  16.588  17.404  21.151  0.1293 -0.0829  0.2998
97603W        W98467   4.947  26.424  22.123  0.1329  0.2751  0.2989
97604W        W98468  25.440   6.999   7.194  0.1678 -0.0117  0.1353
97605W        W98469  10.632  26.916   3.778  0.2725  0.0466  0.1121
97606W        W98470   5.707   0.660  12.043  0.0050  0.0505 -0.1820
97607W        W98471  15.399  25.328  18.643  0.2136  0.4466 -0.1123
97608W        W98472  10.374  24.901  13.130  0.0797  0.1746  0.1767
97609W        W98473   0.753  27.329  21.733 -0.0197 -0.0883 -0.1555
97610W        W98474  24.536   7.709  27.830 -0.0359 -0.1503 -0.0632
97611W        W98475   3.445  28.452  21.795  0.1028 -0.0794 -0.0956
97612W        W98476  22.106   5.694   8.417 -0.0000  0.2154  0.2276
97613W        W98477  22.956  14.108   7.239  0.2108  0.0818  0.0862
97614W        W98478   2.692  10.609   4.343 -0.1030 -0.2757  0.2200
97615W        W98479  12.782   4.917  22.136 -0.1815  0.1476  0.3657
97616W        W98480  14.354  20.869   4.648 -0.0419  0.1289 -0.1878
97617W        W98481  19.482  11.308   1.965 -0.4057  0.1082 -0.0110
97618W        W98482   6.787  17.274  25.536  0.1410  0.1114  0.2304
97619W        W98483  10.894   1.995  25.368  0.1640  0.0483 -0.1737
97620W        W98484   1.063  10.784   9.580 -0.0652 -0.0624  0.1374
97621W        W98485  26.225  22.329   1.695  0.0426  0.2444  0.0475
97622W        W98486   7.827   9.962  29.007 -0.1284 -0.0297 -0.1001
97623W        W98487   7.716  18.032   2.449 -0.0235 -0.0961  0.0380
97624W        W98488  18.389  23.992   5.437  0.2486 -0.1834 -0.0173
97625W        W98489   2.446  19.978  23.874  0.1269 -0.0994 -0.1060
97626W        W98490  14.765  20.190  17.101 -0.1705 -0.2467 -0.1546
97627W        W98491   1.668  23.338  13.716  0.0806 -0.1177 -0.0718
97628W        W98492  21.990  17.446  21.306  0.0974 -0.0091 -0.1382
97629W        W98493  23.506  20.362   7.131  0.3115 -0.1768 -0.1559
97630W        W98494   9.951  18.196  23.709  0.3113  0.1610  0.0472
97631W        W98495  12.561  14.765  11.639 -0.1918  0.1129 -0.0552
97632W        W98496  25.710  21.564  15.987 -0.0727  0.2077  0.1605
97633W        W98497   6.889  28.436  15.000 -0.1245  0.0101 -0.2284
97634W        W98498  22.039   8.061  16.281 -0.2903 -0.0333 -0.1583
97635W        W98499   2.882  17.524  25.123  0.1385 -0.2010 -0.2612
97636W        W98500   6.525   9.447  19.541  0.1852 -0.0698 -0.0943
97637W        W98501  14.147   1.093   8.544 -0.0947  0.0348 -0.2235
97638W        W98502  18.566  22.920  27.052 -0.0986 -0.1777 -0.3723
97639W        W98503  24.038  16.588  24.429  0.1302 -0.0894 -0.1240
97640W        W98504   8.976  26.012  24.293  0.0701 -0.0194 -0.1785
97641W        W98505  14.118  15.980  28.596  0.0460 -0.3161 -0.0528
97642W        W98506   2.446  10.674  23.559 -0.4372  0.1778 -0.2177
97643W        W98507  11.300  21.375  19.757 -0.3154 -0.1615 -0.3136
97644W        W98508   9.911   7.891  10.879 -0.1508  0.1692 -0.0714
97645W        W98509   1.200  23.144  26.493 -0.1353  0.0467 -0.1528
97646W        W98510  17.559  11.437  10.525 -0.1777  0.0443  0.3532
97647W        W98511   2.418   0.218  15.106  0.2119  0.0053  0.4375
97648W        W98512   4.896  17.858  25.236  0.1426  0.4220  0.2513
97649W        W98513   1.148  17.750  26.891 -0.1247  0.3045  0.0058
97650W        W98514  22.551  11.981  11.963  0.3226  0.1912 -0.1188
97651W        W98515  21.109  12.245   4.243  0.1867 -0.1529  0.0474
97652W        W98516  19.066   8.779  23.278  0.1143 -0.2492  0.1398
97653W        W98517   0.498   1.793  18.008 -0.1588 -0.2613 -0.2318
97654W        W98518  24.734   7.466  26.699 -0.0000 -0.0909 -0.0527
97655W        W98519  21.449  14.198   8.602  0.0233 -0.0054 -0.0831
97656W        W98520  25.157  14.019  24.852  0.4359  0.1830 -0.1093
97657W        W98521  26.466   4.866   8.466  0.0542  0.0571 -0.0585
97658W        W98522   1.329  18.438  23.139  0.0163 -0.2375 -0.1148
97659W        W98523   5.569   2.542   2.479 -0.0178 -0.2300 -0.0725
97660W        W98524  25.685  11.953  21.739 -0.1636 -0.2260  0.2476
97661W        W98525  21.615  25.588   8.045 -0.2054 -0.0290  0.0124
97662W        W98526  23.083   7.010  23.290 -0.4541 -0.0201 -0.0104
97663W        W98527  26.411   3.074  28.499  0.0259 -0.0159  0.0745
97664W        W98528  24.277  19.759  15.698 -0.0587 -0.1256 -0.0365
97665W        W98529  14.534  14.329  10.239  0.1777  0.1517  0.2020
97666W        W98530   3.836  21.074   8.069  0.1117  0.1685 -0.0415
97667W        W98531   0.464  18.401   6.522  0.2537 -0.2849  0.1882
97668W        W98532  19.435  14.532  26.603  0.0431 -0.1993 -0.2310
97669W        W98533  11.382   1.287  22.379 -0.1302  0.0132  0.0169
97670W        W98534  26.813   3.616  15.369  0.2855  0.4019  0.0912
97671W        W98535   0.454  19.525  12.984  0.3190  0.3115 -0.0347
97672W        W98536  17.965   3.865  12.362 -0.3247  0.2077 -0.0100
97673W        W98537  17.432   6.042   6.062 -0.0581  0.0370 -0.1190
97674W        W98538  20.621  11.159  17.279  0.1235  0.0139  0.0085
97675W        W98539  28.532  21.799  10.131  0.0364 -0.0389  0.3583
97676W        W98540  21.474   1.329  12.144 -0.1189  0.0865  0.0655
97677W        W98541  24.579   9.070  11.442 -0.1189  0.0274 -0.2330
97678W        W98542  15.487  10.733   7.045 -0.1735 -0.5053  0.1231
97679W        W98543  26.898  14.277   3.090  0.4185  0.1230 -0.1370
97680W        W98544  13.380  26.155   3.002  0.1094 -0.1573 -0.0259
97681W        W98545  22.661   8.059   6.225 -0.0312 -0.3267 -0.2855
97682W        W98546   8.808  12.462   4.550 -0.1835  0.2476  0.1008
97683W        W98547  11.768  17.550  27.896  0.2252  0.0931  0.0127
97684W        W98548  13.359  17.657  27.133 -0.3143 -0.1177 -0.2192
97685W        W98549  25.955   4.676   8.774  0.2075 -0.0257 -0.3220
97686W        W98550  11.833  17.543  16.557  0.0266 -0.1777  0.1361
97687W        W98551   8.810  23.107  23.969  0.1182 -0.1086  0.1011
97688W        W98552   6.742   9.067  20.323 -0.1718 -0.3171 -0.0576
97689W        W98553  16.973  16.421  13.965  0.2814  0.1001 -0.0035
97690W        W98554  26.511  12.812  10.843  0.1132  0.1515 -0.0998
97691W        W98555  15.473  17.992   5.870 -0.0258 -0.1412  0.1282
97692W        W98556  20.219  28.916  23.829 -0.1918 -0.1135 -0.0396
97693W        W98557   4.934  23.958  12.304  0.0034 -0.1124 -0.1162
97694W        W98558  17.616  21.844  15.461 -0.2093  0.0582 -0.1335
97695W        W98559  22.094  25.434  17.785 -0.2169 -0.0222  0.0250
97696W        W98560  19.614  20.634  27.915  0.0455  0.2653  0.2480
97697W        W98561   8.828   1.628  10.830  0.0655 -0.1256 -0.2721
97698W        W98562  24.107  20.187  25.000  0.0059 -0.2897  0.1158
97699W        W98563  28.783   2.647  18.971 -0.0633 -0.0782  0.0414
97700W        W98564  28.668  17.682  27.381 -0.0678  0.1404 -0.3048
97701W        W98565  17.832  21.585   4.632 -0.2846 -0.1249 -0.2228
97702W        W98566   3.814   8.327  28.446  0.0169  0.0481  0.2254
97703W        W98567   3.976   2.465  20.635  0.1298  0.0448 -0.0578
97704W        W98568   5.304   9.246  25.147 -0.2216  0.0547  0.0904
97705W        W98569   4.020  11.970  21.947  0.1717  0.1782 -0.0500
97706W        W98570   6.126  22.534   1.750 -0.0414 -0.1312  0.0336
97707W        W98571  27.233   9.130  11.502  0.0645 -0.0736  0.2314
97708W        W98572  26.616  17.094  18.206  0.3414 -0.1321 -0.0036
97709W        W98573  10.550  23.321  11.742  0.0599  0.2601 -0.1250
97710W        W98574  17.281   9.464   9.257 -0.0447  0.1128 -0.1472
97711W        W98575   9.666  14.824   1.758  0.0329  0.2547 -0.0824
97712W        W98576  24.761  20.180  23.080  0.2232  0.0782  0.0486
97713W        W98577  22.586  27.396  16.526  0.0858 -0.1017 -0.3321
97714W        W98578   3.913   1.754  29.118 -0.0010  0.1653  0.2554
97715W        W98579  10.576   6.950   3.075 -0.2490 -0.1253 -0.2134
97716W        W98580  23.181  13.375  28.661 -0.0081 -0.2331 -0.0423
97717W        W98581   8.389  11.912  28.656  0.0725 -0.1497 -0.3888
97718W        W98582  13.821   2.578   9.997 -0.0842  0.2750 -0.1739
97719W        W98583  19.931   6.496  20.527 -0.3196 -0.0101  0.1419
97720W        W98584   4.978   2.165  28.143  0.3495  0.0277 -0.1879
97721W        W98585  24.083  23.279  27.390  0.1031  0.0478  0.0592
97722W        W98586   6.676   6.779  21.495 -0.0926 -0.0354 -0.2323
97723W        W98587  16.070  17.161  14.952  0.0400 -0.5477  0.0238
97724W        W98588  14.829   1.492  19.338  0.0372 -0.1943 -0.1527
97725W        W98589  10.021  27.916  12.834 -0.0291 -0.2719  0.0024
97726W        W98590  11.421  17.736  15.826 -0.1381  0.0919 -0.0826
97727W        W98591  22.542  27.434  26.206 -0.0132 -0.3554 -0.0313
97728W        W98592  20.346   8.627   2.417  0.0417 -0.1885 -0.2083
97729W        W98593  25.626  23.387  18.220  0.0163  0.0064  0.1118
97730W        W98594   7.930   4.795  17.289  0.5368  0.3406 -0.3612
97731W        W98595  24.493  23.384  20.772 -0.0899  0.1861 -0.0870
97732W        W98596  28.773  11.442  10.979  0.0623 -0.0581  0.1850
97733W        W98597  14.631  14.913  26.290 -0.0234  0.0778  0.3535
97734W        W98598  25.364  26.880  22.598 -0.1411  0.1475 -0.0194
97735W        W98599  12.001  21.822   0.910 -0.2647  0.3480  0.0565
97736W        W98600   3.631   4.771  24.933 -0.1309  0.0878  0.1561
97737W        W98601  27.764   0.585  17.544 -0.1496 -0.1361 -0.1121
97738W        W98602  10.380  14.228  16.066 -0.3129 -0.1208  0.2200
97739W        W98603   1.552   6.429  12.703 -0.1566  0.1689 -0.1310
97740W        W98604   3.726   3.052   8.577  0.0767 -0.0758 -0.1071
97741W        W98605  23.740  15.500   3.807 -0.0404  0.1476  0.1935
97742W        W98606  22.931  24.559  22.499 -0.1231  0.2923  0.1067
97743W        W98607   8.887  17.162  18.943 -0.2586 -0.2240 -0.2931
97744W        W98608  18.689   5.100  20.542  0.0362 -0.2402  0.1631
97745W        W98609  25.740   2.494  19.065  0.1614 -0.0934  0.2757
97746W        W98610   3.872  16.928  15.677 -0.1827 -0.0836 -0.0712
97747W        W98611  18.274  16.910  12.683 -0.0102 -0.0211  0.1203
97748W        W98612  11.833   3.827  24.311 -0.2381  0.1028 -0.1319
97749W        W98613   6.033  18.263  20.385 -0.1652  0.2095  0.2685
97750W        W98614  10.464  15.827  29.131  0.2832  0.2875 -0.1574
97751W        W98615  25.441   1.645  26.699 -0.2845  0.1799 -0.0134
97752W        W98616  11.743  18.753  23.076 -0.1715 -0.0131  0.1204
97753W        W98617  18.590  13.228  24.687 -0.2168  0.0088 -0.4690
97754W        W98618   2.268  26.694  17.828 -0.3550 -0.0732  0.0129
97755W        W98619  21.801  21.827  14.701 -0.0017  0.1003  0.0836
97756W        W98620  19.693  19.340  27.275  0.0317  0.2214  0.0249
97757W        W98621  12.135  10.371  20.798  0.1871  0.0211 -0.2312
97758W        W98622  23.780   6.079   5.419  0.2267  0.1251  0.0960
97759W        W98623   8.637  25.999   5.229 -0.3624  0.0085  0.0359
97760W        W98624  27.574   3.055  12.294 -0.1581 -0.0485  0.3184
97761W        W98625  24.743  15.248  19.257  0.1120 -0.0716 -0.2045
97762W        W98626   0.795  11.038  10.787  0.2613  0.0866 -0.0035
97763W        W98627  18.586  12.782  20.912 -0.0839  0.2879 -0.3409
97764W        W98628  23.952  18.384  22.633 -0.0836 -0.4642  0.3789
97765W        W98629  26.687  27.678  24.919 -0.0717  0.1841  0.0711
97766W        W98630  19.643  19.430  17.465  0.0720  0.2160 -0.2121
97767W        W98631   7.234   2.451  28.331  0.2875 -0.0609  0.0486
97768W        W98632  25.454   7.724  24.675  0.0711 -0.2174  0.0840
97769W        W98633  22.019  18.991   5.012 -0.2419  0.1680 -0.1366
97770W        W98634  24.778   7.949   3.452 -0.0531 -0.1267  0.1785
97771W        W98635  17.785  25.439  12.285 -0.1824 -0.3210  0.1447
97772W        W98636   0.280  13.953  20.243 -0.0290 -0.0020  0.2760
97773W        W98637  22.143   1.392  14.917 -0.0349  0.0975 -0.3151
97774W        W98638  21.773   0.159  28.856  0.2538 -0.2163  0.0298
97775W        W98639  26.745  18.325  18.652 -0.0715 -0.0292 -0.1152
97776W        W98640   7.105  23.278  17.155  0.2055  0.2106 -0.1108
97777W        W98641  25.068  19.540   1.269  0.1442 -0.0230 -0.1669
97778W        W98642  28.841  14.124  10.684 -0.0163 -0.0164  0.1033
97779W        W98643  24.159  27.795   9.488 -0.0619  0.1276 -0.0553
97780W        W98644  17.962  28.633  26.928 -0.3732 -0.0950 -0.3973
97781W        W98645  20.779  16.858  25.834  0.0843  0.0002  0.1945
97782W        W98646  24.038  13.224   5.850 -0.0472 -0.2214 -0.0793
97783W        W98647  25.419   7.277  14.109 -0.1194 -0.0833  0.1313
97784W        W98648   1.819  28.598  24.130 -0.1052  0.0780 -0.2019
97785W        W98649   2.926  10.143  25.225 -0.1612 -0.3538 -0.0128
97786W        W98650  26.913   1.643  27.998 -0.0020 -0.1339  0.2175
97787W        W98651   9.844   1.053  25.430  0.1601  0.2381  0.0269
97788W        W98652   2.520   7.943  10.436 -0.2457 -0.1017  0.1379
97789W        W98653   7.949  20.119   3.085 -0.1019  0.1294  0.1272
97790W        W98654  17.277  11.337   5.707 -0.0231  0.1013 -0.0415
97791W        W98655  17.619   9.711  16.192  0.3946 -0.0870  0.0706
97792W        W98656   5.590   5.624  10.849  0.0753 -0.2420 -0.1624
97793W        W98657  20.731  18.559  28.191  0.0221 -0.1863  0.2852
97794W        W98658   8.780  16.722  14.231  0.0823  0.1616 -0.0395
97795W        W98659  24.176   3.361   0.191 -0.3849 -0.0401 -0.4339
97796W        W98660   8.996  22.079   0.113  0.0688 -0.1410 -0.1258
97797W        W98661  23.276   6.398  28.406  0.1384  0.2378  0.0319
97798W        W98662  13.532  20.856   6.931 -0.0292  0.0444 -0.1328
97799W        W98663  28.171   6.625  15.519  0.1657  0.2898 -0.2583
97800W        W98664   1.905  11.402   3.861 -0.0589 -0.3474 -0.0277
97801W        W98665  17.197  20.307   0.604 -0.1972 -0.1259 -0.4114
97802W        W98666  20.855  26.507   7.884  0.1424 -0.2546  0.0934
97803W        W98667   8.343  17.372  14.259  0.1634  0.3251 -0.0604
97804W        W98668  24.014  18.059  14.795 -0.0962 -0.0386  0.5271
97805W        W98669   8.684  20.103  13.434  0.2695 -0.0761 -0.0227
97806W        W98670   9.304  20.635  17.927  0.5168  0.0115  0.0041
97807W        W98671  25.848  29.076  25.844 -0.0632 -0.1321 -0.0716
97808W        W98672  12.195  15.646  24.771 -0.1117 -0.0461  0.0666
97809W        W98673  24.810  11.009  27.791  0.1083  0.0472  0.1384
97810W        W98674   1.348  25.593  18.387 -0.0572  0.0062  0.1757
97811W        W98675  15.286   9.551  16.708  0.1735  0.1207  0.3162
97812W        W98676   5.649  14.272   6.631 -0.1723 -0.1233 -0.0005
97813W        W98677  24.907  18.109   6.912 -0.0231  0.0347  0.3673
97814W        W98678  23.754  24.181  24.066 -0.2604  0.4576 -0.0113
97815W        W98679   8.449  16.419   5.625 -0.0997 -0.1262  0.0447
97816W        W98680  21.441   0.575  24.586  0.0809  0.0820  0.0859
97817W        W98681   2.646  18.061  28.015  0.1771 -0.1133 -0.2796
97818W        W98682   4.620  20.943  22.061  0.0190 -0.1183  0.2444
97819W        W98683  14.788   9.132  28.318 -0.1855  0.1417 -0.1076
97820W        W98684   0.352  25.356  27.258  0.0662  0.0120  0.0384
97821W        W98685  22.131  22.245  25.904  0.0458  0.1139  0.1478
97822W        W98686  23.330  26.162   1.146 -0.4879 -0.0345 -0.2319
97823W        W98687  24.661  18.745   6.411  0.1631  0.0840  0.3281
97824W        W98688  16.023   0.358  14.413 -0.0786 -0.3028  0.1350
97825W        W98689  18.269   3.618  11.870 -0.0265  0.2955 -0.0815
97826W        W98690  25.549  25.108   2.022  0.0967  0.3097 -0.0287
97827W        W98691  10.577  24.025   2.081 -0.3244 -0.1915  0.1506
97828W        W98692   4.668  26.605   8.616  0.1900 -0.0204 -0.1865
97829W        W98693  19.653   0.685   2.917  0.1280 -0.2018  0.2515
97830W        W98694   2.952  17.131  23.064 -0.0932  0.2067 -0.2348
97831W        W98695   9.980  17.947  17.432 -0.1715 -0.0681 -0.0110
97832W        W98696  19.304  18.694  24.956  0.1877 -0.2896  0.0502
97833W        W98697  11.939  19.824  20.310 -0.0372  0.2107  0.1081
97834W        W98698   6.535  28.195  18.773 -0.1967 -0.1297  0.2551
97835W        W98699  28.556  19.999  12.546  0.0260 -0.3443 -0.4507
97836W        W98700   6.625  24.003   3.405  0.2479 -0.0184 -0.0354
97837W        W98701  19.371  12.345   0.380 -0.0196 -0.4009 -0.0597
97838W        W98702   8.572  15.699   2.116  0.1737 -0.1792 -0.0727
97839W        W98703   8.658   8.038   0.942 -0.1334 -0.0879 -0.1412
97840W        W98704  14.801  27.382  15.029 -0.0905 -0.1430  0.1535
97841W        W98705   6.833   9.306  15.437  0.1195  0.0883  0.0121
97842W        W98706  10.843  12.875  25.567  0.0146 -0.0329  0.3329
97843W        W98707   1.410   1.583   4.218  0.2486  0.1051  0.1594
97844W        W98708   1.709  19.570   0.620 -0.0492  0.0994  0.2540
97845W        W98709   0.135  19.678  27.111  0.0102  0.0184 -0.0386
97846W        W98710   5.039  12.643   0.714  0.0736  0.1764 -0.0780
97847W        W98711  16.564   2.266  10.364 -0.0389  0.2859 -0.2437
97848W        W98712   8.092   9.706   7.483  0.0635 -0.0442  0.0627
97849W        W98713  24.753  11.313   4.078 -0.1383 -0.0115  0.1201
97850W        W98714  28.302  27.391  13.715 -0.2055  0.1438 -0.2060
97851W        W98715   8.611  28.969   1.565 -0.0309 -0.3990 -0.1037
97852W        W98716  12.551  23.317  26.926  0.0502  0.0526 -0.0531
97853W        W98717  27.952   3.951   5.457  0.0990 -0.2174  0.2834
97854W        W98718   6.093  14.085  26.944  0.0845 -0.3446 -0.0349
97855W        W98719  11.685  20.025  21.785 -0.0440 -0.1077  0.0754
97856W        W98720  23.739   4.088   3.389  0.2351 -0.2031  0.1265
97857W        W98721  21.283  23.107  19.346 -0.1390  0.1716 -0.4391
97858W        W98722  16.509   9.571   1.800  0.1416  0.0436  0.1219
97859W        W98723  28.474  16.998   9.409 -0.1517 -0.3131 -0.0316
97860W        W98724   0.707   9.925   1.574  0.1045 -0.1279  0.0684
97861W        W98725  25.705  17.253  18.218  0.1769 -0.3258 -0.2095
97862W        W98726  27.922  24.805  24.128  0.3980  0.2849 -0.1561
97863W        W98727  16.590  23.163  21.632 -0.1820 -0.2689  0.1027
97864W        W98728   1.546  13.404  16.021  0.0660 -0.1327 -0.3719
97865W        W98729  10.349  15.424  24.675  0.1340  0.2455 -0.3755
97866W        W98730  17.361  15.367  26.686 -0.1534 -0.2361  0.1949
97867W        W98731  19.234  18.522  22.246 -0.0321  0.0598 -0.1421
97868W        W98732  18.326  18.862   7.236 -0.2604  0.1665  0.0660
97869W        W98733  21.078  18.275  22.293 -0.2713 -0.2060 -0.1324
97870W        W98734  19.302  20.590  10.793 -0.0565  0.3537  0.0360
97871W        W98735  27.578  18.099   8.087  0.4292 -0.1103  0.0495
97872W        W98736   4.972  26.020  26.510  0.4152 -0.0852 -0.1428
97873W        W98737   0.179  16.292   4.839 -0.1093  0.3146 -0.2815
97874W        W98738  21.408  11.854  17.216  0.0652  0.1448 -0.1474
97875W        W98739  18.067  21.726  13.371 -0.0129 -0.0366  0.0854
97876W        W98740  14.982  27.523  28.007  0.0852  0.1064 -0.1861
97877W        W98741   8.242  22.067   8.503 -0.0447  0.1533  0.0670
97878W        W98742   4.373   8.948   8.666 -0.1461  0.1796 -0.1374
97879W        W98743  24.102  22.876   7.311  0.3372 -0.1146 -0.1540
97880W        W98744   0.975   4.568  20.491 -0.0652  0.2080  0.0902
97881W        W98745  11.287   5.971  24.053 -0.1602 -0.0125  0.0847
97882W        W98746  16.355  26.760   9.183  0.1084 -0.0728 -0.2914
97883W        W98747  14.911  15.809  22.307  0.2177 -0.3729 -0.2252
97884W        W98748  24.940   1.941  21.506  0.0400 -0.1266  0.2304
97885W        W98749  19.840  19.035  26.304  0.1792 -0.2770  0.2561
97886W        W98750   1.828  17.415  21.134 -0.2579  0.2210 -0.0067
97887W        W98751  27.655   1.889   7.288  0.2948  0.1366 -0.1786
97888W        W98752  15.057   9.815  21.269  0.1591  0.1387  0.4311
97889W        W98753   8.203  22.580  25.182 -0.3038  0.1748  0.1112
97890W        W98754   3.325  24.774  18.106  0.0411 -0.2758  0.2208
97891W        W98755   4.531  16.112  16.095 -0.1084  0.0875  0.3196
97892W        W98756  19.222  15.124  25.776 -0.1651  0.2403  0.3778
97893W        W98757   5.781   6.532   6.846 -0.0623  0.0421  0.1583
97894W        W98758  24.599  22.088  12.063  0.0015 -0.0091 -0.1639
97895W        W98759  21.062  10.280   7.884 -0.3573 -0.1439 -0.1024
97896W        W98760  25.329  15.565   0.932  0.1155  0.2591  0.2706
97897W        W98761  27.987  10.055  27.816  0.0569  0.0982  0.1483
97898W        W98762  14.580  16.615   3.842  0.3941  0.0649  0.0696
97899W        W98763  17.936   0.728   5.231  0.3020  0.1956 -0.1301
97900W        W98764  15.335  25.305   5.422  0.1860  0.1483  0.0580
97901W        W98765  21.945  25.864  14.952 -0.0971  0.1167  0.0130
97902W        W98766  17.501  10.839  16.759  0.0410 -0.0651  0.0324
97903W        W98767  12.625   2.684   7.536  0.1706 -0.2346 -0.2212
97904W        W98768  25.076  19.685  10.450 -0.0330  0.1359  0.3774
97905W        W98769   5.215  24.388   6.775  0.0012  0.0682  0.0910
97906W        W98770   4.992  15.515  23.377  0.0153  0.0970  0.2399
97907W        W98771   3.335  23.997  28.255 -0.2012 -0.2577 -0.0594
97908W        W98772  14.007  14.536  24.881 -0.1027 -0.1402  0.0661
97909W        W98773  17.395   2.275  20.610  0.2810  0.0882 -0.0977
97910W        W98774  15.275   2.658  21.080 -0.1205 -0.2000 -0.2828
97911W        W98775   1.754   8.620  24.317 -0.2324  0.0758 -0.1045
97912W        W98776  15.077  20.030  19.412  0.4480 -0.3399 -0.0087
97913W        W98777  16.813  28.966   0.766 -0.2119  0.0090  0.1432
97914W        W98778   8.555  14.224  13.343  0.3105 -0.2455  0.0634
97915W        W98779   4.991  11.746  16.459  0.0294 -0.0556  0.0441
97916W        W98780  26.831  14.229   7.620 -0.1064  0.0136  0.0061
97917W        W98781  22.376  12.556  20.989 -0.0117 -0.2515  0.0103
97918W        W98782   1.074  15.518  14.939  0.3433 -0.0683 -0.2219
97919W        W98783  20.676   8.576   3.254 -0.1083  0.0504  0.1546
97920W        W98784  15.647  21.793  25.866  0.1764  0.2837  0.1636
97921W        W98785  17.860  19.614  15.306 -0.1019 -0.1047  0.1001
97922W        W98786  17.228   4.269  11.458  0.2199  0.0611 -0.0560
97923W        W98787  20.620  22.831  24.472  0.0159 -0.2600  0.0267
97924W        W98788  28.035   7.029  15.135  0.1525 -0.0261 -0.0805
97925W        W98789  22.745  16.721   3.057  0.0234 -0.1061 -0.0933
97926W        W98790  26.319   4.575   1.619  0.0040 -0.2578  0.3241
97927W        W98791  13.470   7.060  16.959  0.0501  0.3295 -0.2678
97928W        W98792   5.924  22.994   7.436  0.0107 -0.0673 -0.0392
97929W        W98793   5.381  18.023  25.627  0.1347  0.0305 -0.1214
97930W        W98794  26.971  17.910   2.831  0.2534  0.2241 -0.0959
97931W        W98795  10.975  19.853   9.921  0.2327 -0.0088 -0.0169
97932W        W98796  17.549  22.807  11.559  0.0160  0.0278  0.4075
97933W        W98797  16.911  11.357  23.989  0.2799 -0.0163 -0.2139
97934W        W98798  23.310   4.620  21.046  0.0198  0.0205  0.2254
97935W        W98799   3.153   0.973  25.939  0.1231  0.1194 -0.1637
97936W        W98800   7.203  13.593  26.524 -0.2683  0.3547 -0.2475
97937W        W98801  25.274  25.819  17.500 -0.2415  0.3471 -0.1029
97938W        W98802  24.296  18.747   4.175 -0.5093 -0.3325 -0.2343
97939W        W98803  25.797  15.265  10.803  0.3025  0.0685 -0.0925
97940W        W98804  14.404  20.661  11.772  0.1693  0.0149  0.1572
97941W        W98805  15.264  19.750  16.446  0.0550  0.2286  0.2079
97942W        W98806  20.215  21.320  23.179  0.0534  0.4116  0.0544
97943W        W98807  23.700  23.614  27.125 -0.1160 -0.0994  0.3097
97944W        W98808  18.700  14.040  27.084  0.0030  0.2233 -0.2116
97945W        W98809  27.459  10.084  14.385 -0.0373 -0.1525 -0.1261
97946W        W98810  21.318   4.146  10.769 -0.2524 -0.0670 -0.0631
97947W        W98811   4.636  10.167  15.558 -0.1228 -0.4821 -0.0639
97948W        W98812   0.023  20.396  15.293 -0.0133 -0.1198  0.0087
97949W        W98813   0.065   3.075  20.899  0.0156  0.0543 -0.0271
97950W        W98814   9.156  19.397  15.925 -0.1207 -0.1494 -0.1585
97951W        W98815  24.041  17.341  13.796 -0.2088 -0.1556  0.1559
97952W        W98816   0.744  15.430  14.318 -0.0276  0.1513  0.0778
97953W        W98817  10.599  17.544  28.090  0.0851 -0.1910  0.3482
97954W        W98818  23.121  23.425   3.314  0.0714 -0.1066 -0.0480
97955W        W98819  14.178  21.664   9.433  0.1118  0.2446  0.0198
97956W        W98820  24.426  23.236   2.524  0.0995 -0.0405  0.1808
97957W        W98821  27.481   4.415  24.289  0.1958 -0.3740  0.2815
97958W        W98822   5.160  16.444  25.781  0.0050  0.0304  0.2309
97959W        W98823  19.146   4.829   1.570  0.0250  0.3444  0.2014
97960W        W98824   4.099   3.458  22.759  0.2553  0.0881  0.1426
97961W        W98825  27.486   7.576   3.694  0.1462  0.0187  0.0793
97962W        W98826   2.853  21.165   6.189 -0.0407 -0.0421  0.2110
97963W        W98827  25.802  24.298  10.827 -0.4150  0.0565 -0.0494
97964W        W98828  27.723  25.329  23.281 -0.0030  0.0579  0.0575
97965W        W98829  11.251  12.803  22.125  0.2624 -0.1822  0.1425
97966W        W98830  26.206   7.808  13.478  0.0105  0.2678  0.0124
97967W        W98831  12.230  23.522  24.921 -0.0825 -0.0817 -0.0928
97968W        W98832  27.908  15.059   8.263  0.0612 -0.1181  0.0444
97969W        W98833  19.164  18.492   1.003  0.0623  0.0280  0.1243
97970W        W98834  21.524  11.781  11.235 -0.0053  0.1971 -0.1119
97971W        W98835  26.806  26.381   6.410 -0.1678 -0.1772  0.2825
97972W        W98836   5.518  18.023  28.597 -0.1739  0.2073 -0.1536
97973W        W98837   1.441  14.618  19.541 -0.0460  0.0481  0.3294
97974W        W98838   6.633  28.092  11.721  0.0612  0.0412  0.1611
97975W        W98839  28.335  23.640  18.103 -0.1584  0.2716 -0.0418
97976W        W98840  27.652  28.983   4.346 -0.1761  0.1742 -0.1860
97977W        W98841  20.803   6.676  27.362  0.1276  0.1604  0.0297
97978W        W98842  28.841   9.131   2.818  0.0378 -0.0157  0.1241
97979W        W98843  19.504  26.779  23.046  0.1998  0.0973 -0.1546
97980W        W98844  28.673  21.621  16.969  0.1209  0.0373 -0.0385
97981W        W98845   5.686   6.054  19.951  0.0178 -0.0540  0.1107
97982W        W98846  20.494  27.142   9.428  0.1043 -0.0077  0.2644
97983W        W98847   8.879  14.100  20.839  0.1076  0.0029  0.1762
97984W        W98848  27.448  21.970   1.480  0.1354 -0.1369 -0.1089
97985W        W98849   0.344  20.104   6.324 -0.1493  0.0653  0.1588
97986W        W98850  19.026  14.762  19.937  0.2988 -0.0261 -0.0665
97987W        W98851   1.286  26.723   0.481 -0.1727  0.2909  0.1169
97988W        W98852  25.856  22.163   4.751  0.1423  0.0527 -0.0402
97989W        W98853  23.426  17.939  20.712  0.1688 -0.0149 -0.0328
97990W        W98854   5.255  18.090  11.690  0.2224 -0.0274 -0.1616
97991W        W98855  26.239  27.698   9.953 -0.0120 -0.1305  0.0187
97992W        W98856  28.621  23.459   8.299 -0.1659  0.0881  0.2288
97993W        W98857   5.369  15.560   3.317  0.1051 -0.0633  0.1043
97994W        W98858   3.921  27.263  10.380  0.0833  0.0118  0.1788
97995W        W98859   5.996  17.380   0.429  0.1063 -0.0811 -0.1439
97996W        W98860  24.978  11.841  22.435  0.0255 -0.0159  0.1451
97997W        W98861   0.699  11.110   4.479 -0.2020 -0.0301 -0.0973
97998W        W98862   2.128   3.488  15.801  0.0291 -0.3155  0.0467
97999W        W98863   5.500  28.628  19.521 -0.3560 -0.0314  0.1280
98000W        W98864  23.323  18.237  15.716 -0.0579  0.1123  0.1216
98001W        W98865  13.804  17.774  27.439 -0.1561 -0.0649 -0.1320
98002W        W98866   2.228  15.459   6.748 -0.1664 -0.0315  0.0447
98003W        W98867  23.294   9.986  22.564 -0.0619  0.0668  0.0647
98004W        W98868   5.914   6.837   5.411 -0.0169  0.0638  0.1505
98005W        W98869  26.972  14.524   5.424 -0.0444  0.1608  0.2989
98006W        W98870  22.252  13.501  11.498  0.1759 -0.0591 -0.1967
98007W        W98871  12.308   9.381  22.159  0.1328  0.0376  0.0198
98008W        W98872   7.425  15.588  17.953 -0.1992 -0.0149 -0.1028
98009W        W98873  23.850  15.604  24.767 -0.0389  0.1001  0.1120
98010W        W98874  24.446  20.689  26.088  0.1090 -0.2545  0.0306
98011W        W98875  13.519  16.623  26.503 -0.3438 -0.2162 -0.0192
98012W        W98876  20.951  11.433   9.735  0.0394 -0.2574  0.1001
98013W        W98877  20.990  25.840  21.909 -0.1658 -0.0275  0.4602
98014W        W98878  23.452  23.729  22.306  0.1318 -0.0610  0.1170
98015W        W98879   0.849  21.742  16.541 -0.0910 -0.1825 -0.0284
98016W        W98880   4.573  14.865  21.641  0.0205 -0.1218  0.0109
98017W        W98881  10.724  14.165  25.166 -0.2831 -0.2066 -0.0880
98018W        W98882  12.135  21.499   9.760  0.2856  0.1032  0.0425
98019W        W98883   1.805  26.802  27.554 -0.3256 -0.2661 -0.1041
98020W        W98884  19.042  28.566  21.059  0.0239 -0.2180 -0.1221
98021W        W98885  17.942  16.944   3.266 -0.0089  0.0703  0.0602
98022W        W98886   1.645  27.768  24.206  0.0064  0.0214  0.0077
98023W        W98887   8.298  22.543  25.659 -0.5807 -0.0626 -0.1451
98024W        W98888  20.625  28.975  24.529 -0.1477 -0.5017 -0.1493
98025W        W98889   3.363  20.394  11.191 -0.0734  0.1871  0.0990
98026W        W98890  19.658  22.192  11.161 -0.3113 -0.2225  0.3059
98027W        W98891   2.617  19.585  28.298 -0.0215 -0.0986  0.1216
98028W        W98892   8.701  25.490   7.408  0.0790  0.0449  0.0439
98029W        W98893  11.094  16.112  20.603 -0.1410 -0.3255 -0.2592
98030W        W98894  25.874   0.663   5.609  0.1575  0.3936  0.2645
98031W        W98895  13.735  14.373  27.220  0.1855 -0.1132  0.0334
98032W        W98896   8.615  28.080   2.933  0.0744  0.1581 -0.1205
98033W        W98897  18.646   8.739   3.232  0.2736 -0.1860  0.3161
98034W        W98898  24.764   2.709   4.465  0.0461  0.3325 -0.0785
98035W        W98899  28.448  28.492   3.093 -0.1463  0.1594  0.1114
98036W        W98900  21.750   3.448  26.929 -0.3233  0.0932 -0.2091
98037W        W98901   0.929  18.394   6.176 -0.0222  0.0155  0.0895
98038W        W98902  22.817  26.596  25.999  0.0113  0.1311 -0.1245
98039W        W98903  25.837   4.724  24.905 -0.3474 -0.0858  0.0042
98040W        W98904  23.936  21.459  14.227 -0.2247  0.0354 -0.1206
98041W        W98905  11.234   2.046   6.185  0.0793  0.1713 -0.1435
98042W        W98906   5.791  11.865   3.559  0.1092 -0.0611  0.0299
98043W        W98907  28.190  16.794  19.795 -0.0252 -0.2832 -0.1649
98044W        W98908   5.867  26.454  21.428 -0.0790 -0.0189 -0.1120
98045W        W98909   1.073  24.579   0.296 -0.1836 -0.0500 -0.1818
98046W        W98910  19.814  17.817   5.925 -0.1586 -0.3232 -0.1187
98047W        W98911  15.168  19.320  24.886 -0.2960 -0.2021 -0.2579
98048W        W98912  19.166  17.060   4.977 -0.1656  0.0090  0.1194
98049W        W98913  20.650   0.638  22.037  0.0519  0.1935 -0.0535
98050W        W98914  21.177  23.454  28.572 -0.1800 -0.1316 -0.0649
98051W        W98915   9.454  18.100   0.192  0.1653 -0.0465  0.2177
98052W        W98916   5.159  21.261   6.942 -0.1130  0.0421  0.1070
98053W        W98917   4.409  17.611  10.769  0.1753  0.2458 -0.1310
98054W        W98918  24.929  20.226   1.622 -0.0437  0.0586  0.1399
98055W        W98919  12.209   3.643  20.464  0.0556  0.0276 -0.0402
98056W        W98920  24.433  19.952   9.952  0.1059 -0.1191 -0.1552
98057W        W98921  19.490   4.213  18.623  0.0479  0.0365  0.0539
98058W        W98922  15.615  26.706  21.198  0.0256 -0.2070 -0.0495
98059W        W98923   0.878   1.640  22.500  0.0143  0.2482  0.1495
98060W        W98924  18.608  16.281  18.522 -0.1420 -0.0915 -0.2201
98061W        W98925   3.028   5.512  15.199  0.0363 -0.4772 -0.1750
98062W        W98926  13.851   3.034  14.988  0.0156  0.0593 -0.0704
98063W        W98927  25.080  15.535   8.765  0.0482  0.0823  0.0622
98064W        W98928   2.145   5.842   5.760  0.1096 -0.0537  0.3899
98065W        W98929  23.934  24.719  28.518 -0.2429  0.2682  0.0003
98066W        W98930   9.106  13.668  26.406  0.0771 -0.1035 -0.0406
98067W        W98931   6.028  28.827  22.019 -0.1004 -0.1463 -0.1333
98068W        W98932   0.733  19.898  26.641  0.4905  0.0170  0.0202
98069W        W98933   7.344  10.304  17.355  0.2337 -0.1499  0.1519
98070W        W98934  10.087  17.348   0.578  0.1412  0.0565 -0.4231
98071W        W98935  12.475  14.685   0.574 -0.0705 -0.0736 -0.0416
98072W        W98936  14.917  20.010  22.909 -0.1386 -0.2152 -0.0358
98073W        W98937  27.498  10.032   0.624 -0.1755 -0.1136  0.1385
98074W        W98938  25.075  18.881  20.537 -0.0524  0.0451 -0.1369
98075W        W98939  21.668  17.548   6.358  0.3874 -0.1678  0.1723
98076W        W98940   0.467   9.710  26.589 -0.1468  0.1286 -0.0159
98077W        W98941  23.746  11.752   4.923 -0.1110 -0.1554 -0.0288
98078W        W98942  21.580   4.502  28.445 -0.1622  0.0598  0.0583
98079W        W98943   6.621  10.768  17.879 -0.3713  0.0717  0.2676
98080W        W98944  24.056  16.165  11.373 -0.0073 -0.1046 -0.3845
98081W        W98945  25.010  12.524  24.214  0.0909 -0.1357 -0.3006
98082W        W98946  22.714  20.076  25.776 -0.0299  0.2695  0.0888
98083W        W98947  20.970  20.313   8.380  0.2637 -0.0584  0.2775
98084W        W98948   7.649  23.061   6.463  0.2958 -0.0470  0.0538
98085W        W98949   8.248  18.552   4.411 -0.1930  0.2086  0.1491
98086W        W98950   1.142   1.963   5.112 -0.0838  0.0258  0.0049
98087W        W98951   2.354   9.965   0.605  0.0749 -0.0183  0.0651
98088W        W98952  24.186  12.473   1.536 -0.1199  0.0352  0.0465
98089W        W98953  25.341  16.641   3.988  0.1135 -0.0197 -0.0806
98090W        W98954  24.411   8.860   6.786 -0.1571  0.0689  0.0042
98091W        W98955   7.515  27.336   4.576  0.0743  0.1106  0.0914
98092W        W98956  21.560  12.502   5.616  0.0140  0.2676 -0.1500
98093W        W98957  17.792  27.832  24.562  0.0288 -0.5115  0.0579
98094W        W98958  21.053  21.041   0.118  0.0884  0.2719 -0.0401
98095W        W98959  20.328   6.578  27.416  0.0570 -0.0530 -0.1957
98096W        W98960  25.541  19.469  27.866  0.1101 -0.0958 -0.0386
98097W        W98961  28.877  28.445  24.597  0.2292 -0.2190 -0.0266
98098W        W98962  22.256  14.305  27.178  0.0934  0.0878  0.0947
98099W        W98963  28.817  26.496   4.232 -0.0951 -0.3141  0.2494
98100W        W98964   2.777  26.363  13.980 -0.0176 -0.2280  0.0471
98101W        W98965   6.710   4.899   1.494  0.1976  0.1005 -0.1708
98102W        W98966  11.103  25.495   6.915  0.0660  0.1545  0.0561
98103W        W98967  19.819   5.175  13.015 -0.0527  0.2180  0.0140
98104W        W98968  25.053  13.554   6.309 -0.1440 -0.1160 -0.0620
98105W        W98969   3.889  28.870  11.025  0.1927 -0.3758  0.0627
98106W        W98970  24.741  27.117  17.463 -0.1194 -0.2833  0.0058
98107W        W98971   2.636  24.381  25.122  0.1727  0.2644 -0.1547
98108W        W98972   4.438  13.764  15.119  0.0814  0.2503 -0.1668
98109W        W98973   7.195  21.139  13.785  0.1985 -0.2237 -0.1059
98110W        W98974  16.718  21.403   4.146  0.0874  0.0146 -0.2855
98111W        W98975  27.692   6.052  15.828 -0.0396  0.1870  0.0983
98112W        W98976   1.526  19.082   7.432  0.0187 -0.2693 -0.1182
98113W        W98977   8.814  27.002  20.272  0.0499 -0.0118 -0.0307
98114W        W98978  24.228   6.217  10.557 -0.0886 -0.0949 -0.1350
98115W        W98979  26.054  19.655  23.680 -0.3051 -0.2421  0.3197
98116W        W98980  23.180  22.471   4.602 -0.0423  0.0568  0.1039
98117W        W98981  16.836  25.914   5.049 -0.0952  0.1599  0.1400
98118W        W98982   0.862  21.498   3.643  0.0806  0.3747  0.2899
98119W        W98983  17.193  21.902  26.682 -0.1147 -0.1562  0.0297
98120W        W98984  20.362  17.612  22.445 -0.2423 -0.2868 -0.1124
98121W        W98985   8.809  15.525  16.058  0.3059  0.3115  0.0510
98122W        W98986   0.807  18.142  26.781 -0.2363 -0.1140 -0.0256
98123W        W98987   5.421  12.924  12.786 -0.1723  0.3109 -0.0283
98124W        W98988  19.144  25.572   0.411 -0.1796  0.0374  0.1095
98125W        W98989   1.521  13.557  23.547  0.2473  0.0694  0.0904
98126W        W98990  13.253  11.384   1.685  0.3075 -0.1946 -0.1239
98127W        W98991  19.789   0.888   7.259  0.1713  0.2120 -0.0119
98128W        W98992   0.945  14.312  12.031 -0.0952 -0.2849 -0.3626
98129W        W98993  10.120  16.234   0.707 -0.0424 -0.0889  0.0941
98130W        W98994  27.946  27.369  24.425  0.0836 -0.3416  0.1032
98131W        W98995  27.598  20.775  12.471  0.3715 -0.0477  0.2093
98132W        W98996  23.973  21.456  28.138  0.0210  0.0096 -0.0900
98133W        W98997  21.935   1.836  24.383 -0.2737 -0.0568 -0.1578
98134W        W98998  19.056  18.883  14.949  0.2603 -0.1706 -0.2796
98135W        W98999  23.279   0.715   3.885 -0.1475  0.0249 -0.4027
98136W        W99000   3.170  17.213  27.204 -0.1077  0.0588 -0.0991
98137W        W99001   0.343   3.627   0.523  0.0840  0.0588 -0.0761
98138W        W99002  11.699  16.762  10.572 -0.1502 -0.0141 -0.3172
98139W        W99003   3.500   5.600  16.028  0.0708 -0.0178  0.1423
98140W        W99004  16.327  22.355   0.936  0.1441  0.0946  0.0576
98141W        W99005   5.200   5.980  10.052 -0.0985 -0.2829 -0.3509
98142W        W99006  14.773  28.133  17.528 -0.0510  0.0934  0.1247
98143W        W99007  16.634  21.457  17.883 -0.1282 -0.0521  0.0452
98144W        W99008  15.605  21.794  19.627 -0.0612 -0.0161  0.0555
98145W        W99009  24.927  23.528  24.998  0.1677 -0.2126  0.1245
98146W        W99010   2.223  20.883  12.373  0.0920 -0.0342 -0.0449
98147W        W99011   1.489  21.744   6.348  0.3297  0.2390  0.2572
98148W        W99012  28.362  22.197  25.918 -0.4326 -0.3198  0.1303
98149W        W99013  16.546  25.888  19.263 -0.0284 -0.0601 -0.0969
98150W        W99014  26.466  19.059  16.628 -0.0464  0.2503 -0.1062
98151W        W99015   1.459  23.072  13.198  0.0013  0.1827  0.3174
98152W        W99016  15.933   2.605  12.853  0.0938  0.0950 -0.0064
98153W        W99017   1.634  27.712  19.082 -0.0677 -0.4398 -0.1957
98154W        W99018  25.554  19.253  26.324 -0.1917  0.1327  0.0125
98155W        W99019  10.120  24.319  23.016  0.2219 -0.2004 -0.0343
98156W        W99020  23.688  15.816  24.195 -0.0370  0.0740 -0.1443
98157W        W99021  18.988  15.036   4.751 -0.0507  0.0002 -0.0867
98158W        W99022  10.040   8.283  20.501 -0.1847 -0.5834 -0.0279
98159W        W99023   6.118  27.393  10.687 -0.0586 -0.2528 -0.0426
98160W        W99024  23.162   0.198   7.732 -0.0197 -0.0766 -0.0634
98161W        W99025   7.973  14.888  25.688  0.1344  0.0783  0.0253
98162W        W99026   5.525  18.827  27.470 -0.2126 -0.1109 -0.0479
98163W        W99027  23.060  12.511   3.245  0.0290  0.2217 -0.1814
98164W        W99028  13.283  11.975  18.808  0.3092 -0.1435  0.1859
98165W        W99029  12.987   0.478  16.396 -0.0080 -0.4623 -0.2627
98166W        W99030  15.912   8.748   5.615  0.0993 -0.1067 -0.1424
98167W        W99031  25.526  27.708   6.517  0.2309  0.3624 -0.1653
98168W        W99032  16.248  24.966   1.589 -0.0869 -0.1251 -0.2009
98169W        W99033  16.862  12.439  22.984 -0.2264  0.0749 -0.0651
98170W        W99034  24.395  25.382  12.715  0.0349 -0.0170  0.0843
98171W        W99035  10.057  27.049   6.205 -0.1700 -0.0008  0.2761
98172W        W99036  26.550   4.190  22.784 -0.0208  0.0263  0.0602
98173W        W99037  17.372  19.930   2.431  0.0366 -0.0597 -0.3993
98174W        W99038  23.484  23.441   2.052 -0.0332 -0.1055 -0.0576
98175W        W99039  28.490  16.614  25.172 -0.0600  0.0546  0.1948
98176W        W99040  24.881  19.660   9.936  0.1176 -0.0901  0.0546
98177W        W99041  20.493  16.462  25.837  0.1036 -0.3442 -0.2670
98178W        W99042  20.867  14.351   6.267 -0.0725  0.1008  0.0751
98179W        W99043  27.273   9.130   0.696 -0.2284 -0.1501  0.0622
98180W        W99044  28.212  12.262  17.937  0.1276 -0.3363  0.0819
98181W        W99045   1.235  17.617  22.674 -0.2387 -0.0033 -0.0247
98182W        W99046   6.093   0.715   4.802 -0.0116  0.1155  0.0506
98183W        W99047  19.095   1.964  12.235 -0.3937 -0.0086  0.0942
98184W        W99048  23.616  20.782  20.314 -0.0465 -0.1456 -0.0093
98185W        W99049   4.130  16.094  22.498 -0.2226 -0.2292 -0.0791
98186W        W99050   8.208   4.760   2.798  0.2458 -0.1530  0.1204
98187W        W99051  19.917  29.068   5.996  0.1625  0.0955  0.1180
98188W        W99052  10.249   3.017  23.979 -0.3043 -0.1093 -0.1870
98189W        W99053  22.434   5.559   9.669 -0.0154 -0.3591 -0.1799
98190W        W99054   4.202  13.177  20.156 -0.1958  0.0924 -0.1108
98191W        W99055   4.559  26.397  16.677  0.3121  0.2551  0.0069
98192W        W99056  24.566  10.540   8.065 -0.0273 -0.2020 -0.0262
98193W        W99057  28.765   5.404   1.480  0.1120 -0.0280  0.1209
98194W        W99058  18.365   9.008  17.816  0.0756  0.2691 -0.3775
98195W        W99059  23.083  22.337   5.119 -0.0783  0.1835  0.1723
98196W        W99060   2.665  19.295  23.177  0.0386  0.1305  0.0210
98197W        W99061   3.778   5.242  13.042  0.0613 -0.1968 -0.1379
98198W        W99062  21.727  26.080  27.314 -0.1698  0.2440  0.3604
98199W        W99063   2.595   7.307  14.111 -0.0303  0.0589 -0.0332
98200W        W99064  11.918  24.467  27.711  0.0566  0.1914 -0.0884
98201W        W99065   8.507   3.245  23.401 -0.2937 -0.0960 -0.1398
98202W        W99066   5.423  25.038   0.666 -0.1693  0.0136  0.1396
98203W        W99067   1.329   7.517  21.281 -0.2620  0.0419 -0.0937
98204W        W99068  13.413  25.758  18.769 -0.0470  0.2539 -0.0489
98205W        W99069  13.711  24.453  20.593  0.0343 -0.2551  0.1877
98206W        W99070   8.291  20.553  28.282 -0.0793 -0.0110 -0.0090
98207W        W99071  24.160   8.816  16.163 -0.1593  0.0215  0.1279
98208W        W99072   9.338  18.468   2.424 -0.1521 -0.1414  0.1437
98209W        W99073  20.195  13.396  17.589  0.4478 -0.0723  0.2476
98210W        W99074   6.890   6.768   7.095 -0.2088 -0.1435 -0.0805
98211W        W99075  13.388  23.678   6.407  0.1235  0.0715 -0.0860
98212W        W99076  20.372  14.460  28.621 -0.1646 -0.0507  0.0785
98213W        W99077  16.309  14.475  26.404  0.2155  0.1735  0.2865
98214W        W99078  26.343   8.349  20.523 -0.1231  0.0024  0.1754
98215W        W99079  13.364  21.304   6.194 -0.0703 -0.0211 -0.0042
98216W        W99080   5.921  17.315   7.991 -0.0355 -0.1112  0.0999
98217W        W99081   8.644   1.312   3.982 -0.2827  0.1703  0.2107
98218W        W99082   1.677   5.747   5.941  0.0236  0.2291 -0.1285
98219W        W99083  24.088   8.809   3.965  0.1792  0.0643 -0.1757
98220W        W99084   7.199  23.509   4.672 -0.0170  0.1644  0.1991
98221W        W99085   5.110  22.765   0.229  0.2024  0.1012 -0.0684
98222W        W99086  13.261  17.864  21.472  0.1503  0.1163 -0.2899
98223W        W99087   3.703  23.790  27.980 -0.0167  0.1403  0.2485
98224W        W99088   9.140  26.207  19.226 -0.0517 -0.2984  0.3617
98225W        W99089   1.809  14.907   9.589 -0.1021  0.1526  0.2097
98226W        W99090  21.589   5.134   9.951 -0.1875 -0.0491 -0.2707
98227W        W99091   1.248  11.958  26.945  0.0494  0.0391 -0.0019
98228W        W99092  17.615  10.705  28.797 -0.0023  0.1051  0.2212
98229W        W99093  13.323   3.671  25.112  0.0891 -0.0390  0.0409
98230W        W99094   2.266   9.010   6.767  0.4332 -0.3549  0.0160
98231W        W99095   7.409   5.652   0.989 -0.2361 -0.1014  0.1803
98232W        W99096  16.504   1.732   3.647 -0.1294  0.0231 -0.2472
98233W        W99097   8.311  13.019  23.915 -0.2712  0.0213  0.2273
98234W        W99098  14.472  11.457   4.105 -0.1043  0.0258 -0.1283
98235W        W99099  18.285  23.228  23.146  0.3006 -0.0035  0.1910
98236W        W99100   2.029  14.052   0.094 -0.1267 -0.0287  0.2121
98237W        W99101  26.576  16.047   2.217  0.3236  0.2846  0.2776
98238W        W99102   3.439  23.048  22.242  0.2135 -0.0182  0.0092
98239W        W99103   6.053  21.577   2.929 -0.0354  0.2128 -0.2084
98240W        W99104  27.198  27.743  10.839 -0.0063 -0.2414  0.1917
98241W        W99105   6.522  22.688  25.650  0.0707  0.0622 -0.2238
98242W        W99106   5.912  25.773  10.366  0.2340  0.0367  0.1180
98243W        W99107  27.514  22.455  17.362  0.1235 -0.0176  0.0115
98244W        W99108  17.607  13.893  22.258  0.3558 -0.0386  0.0843
98245W        W99109   9.817  16.560  12.957  0.1204 -0.0731  0.1390
98246W        W99110   3.962  25.892  15.518  0.1773 -0.0317 -0.0689
98247W        W99111   3.343  12.844   3.629 -0.0590 -0.1119 -0.0330
98248W        W99112  23.460   9.105  11.512 -0.2914 -0.1438 -0.0883
98249W        W99113  24.844   2.921  15.943 -0.3160  0.0751  0.1743
98250W        W99114  24.082   7.648   9.994 -0.1909  0.0886  0.0606
98251W        W99115  10.221   8.658  16.651 -0.1164  0.1987 -0.2090
98252W        W99116  24.647   7.493  15.598 -0.0435 -0.0680 -0.5255
98253W        W99117  16.071   4.093  19.075  0.3006  0.0226  0.0013
98254W        W99118  16.065  16.635  23.768 -0.0925  0.0469 -0.1048
98255W        W99119   7.867  26.031   5.360  0.0972  0.1970  0.0920
98256W        W99120  17.256  12.610  19.746  0.0719 -0.0644  0.1976
98257W        W99121  14.441   8.476  26.525 -0.2762 -0.0991  0.1827
98258W        W99122   2.589  16.931  18.441 -0.0179 -0.0027 -0.1523
98259W        W99123   3.961  13.967  27.621 -0.1751  0.0449  0.2633
98260W        W99124   2.588  18.511  26.150  0.0086 -0.1854 -0.1543
98261W        W99125  11.364  27.051  17.064 -0.1440 -0.1424  0.0694
98262W        W99126  13.991   2.487  24.876 -0.2160  0.0969 -0.1418
98263W        W99127   3.882  28.142  24.115 -0.0332  0.3436  0.2222
98264W        W99128   9.967   6.012  20.158 -0.0491 -0.0561  0.0886
98265W        W99129  11.794  16.094  23.080  0.2378  0.4018 -0.2028
98266W        W99130   0.640  22.366   8.348 -0.1735 -0.1369 -0.1720
98267W        W99131   5.732  16.404   3.729  0.1377 -0.2013  0.1587
98268W        W99132   2.891  13.097   3.802  0.1012 -0.1669  0.2367
98269W        W99133  26.578   9.037   2.869 -0.0038  0.1383  0.0330
98270W        W99134   4.405  15.361  27.885 -0.0255 -0.2318 -0.2119
98271W        W99135  15.818  24.583   7.655 -0.1195  0.0332 -0.1886
98272W        W99136   3.117   0.301  27.558 -0.1611 -0.1315  0.0410
98273W        W99137  17.921  15.931  22.041  0.0055 -0.1632 -0.0839
98274W        W99138   1.923  14.859   2.393 -0.0996  0.0738  0.0147
98275W        W99139  26.330  28.053  18.436  0.3582  0.1317 -0.1304
98276W        W99140  19.728   3.042  25.877  0.1713 -0.0216 -0.1767
98277W        W99141   6.829   1.572   1.726  0.3835  0.1020 -0.0443
98278W        W99142  24.703  23.604  21.220 -0.0881 -0.2253  0.0706
98279W        W99143   5.502   6.432  23.488  0.0515 -0.4236 -0.0531
98280W        W99144   6.059  20.530   1.310  0.2890  0.0364  0.1101
98281W        W99145   1.885  21.850  26.263  0.0743  0.0432  0.4137
98282W        W99146   0.110  13.479   2.644 -0.0208  0.0003 -0.2539
98283W        W99147  20.477   8.240   6.010 -0.3001 -0.1963  0.3340
98284W        W99148  20.442  15.719  26.525 -0.1515  0.0570  0.3721
98285W        W99149  25.191  17.728   7.452 -0.3997 -0.0204 -0.2850
98286W        W99150  10.840  21.344  26.679 -0.0889  0.1234  0.1097
98287W        W99151  29.045  22.133  15.663 -0.0951 -0.2039 -0.1143
98288W        W99152  20.484  26.606   1.651 -0.0558 -0.0351  0.1663
98289W        W99153  25.431  28.273  24.013 -0.2469  0.3170 -0.1563
98290W        W99154  21.646   2.279   0.119  0.0092  0.2606 -0.0778
98291W        W99155  28.784  29.014  16.773  0.3387 -0.0924  0.3742
98292W        W99156  10.037  11.950   9.823  0.1936  0.2586 -0.4224
98293W        W99157  16.201  25.780  14.257  0.2112 -0.1516 -0.0161
98294W        W99158  28.119  20.138  10.836  0.0194 -0.1818 -0.0481
98295W        W99159  24.065  23.406   7.447 -0.2004  0.1541 -0.0337
98296W        W99160  16.653  19.913   5.794 -0.0153  0.1955  0.1547
98297W        W99161  13.155   2.534  24.316 -0.0862 -0.0442 -0.4526
98298W        W99162   7.236  14.402   3.594  0.0019  0.0471  0.2254
98299W        W99163  16.284   9.868   9.221  0.1061 -0.0643  0.2919
98300W        W99164   2.855  15.905  15.483 -0.1723 -0.1239 -0.2991
98301W        W99165  17.496  15.237  14.306 -0.2005 -0.0953 -0.0106
98302W        W99166  22.130  19.553   5.860 -0.1301  0.0863  0.1333
98303W        W99167  23.932  18.928   7.564 -0.1058 -0.3705  0.2879
98304W        W99168  18.266   9.876   6.315  0.1563  0.2041  0.0011
98305W        W99169   0.261  23.152  18.573 -0.0234  0.0464  0.2412
98306W        W99170   7.122  10.339   1.478 -0.2867 -0.0528  0.1242
98307W        W99171   2.778  19.858   9.026 -0.2834  0.5458 -0.0302
98308W        W99172  24.819  17.029   7.851  0.0690 -0.0405 -0.1273
98309W        W99173  28.645  23.074  10.675  0.1683  0.2661  0.3760
98310W        W99174  19.400  19.982  17.271 -0.2088 -0.2141 -0.3837
98311W        W99175   0.667  28.464  27.342 -0.0927 -0.0390 -0.2978
98312W        W99176  28.176   3.117   1.934 -0.0835 -0.0315  0.0987
98313W        W99177  11.681  22.875  17.504  0.0044  0.1643 -0.1425
98314W        W99178   0.986  21.660  15.514  0.0465 -0.2160 -0.1012
98315W        W99179  23.575  27.190  19.334  0.0546  0.0195  0.1787
98316W        W99180   5.707   7.377  20.196 -0.0561 -0.3574 -0.1451
98317W        W99181  18.022  14.428  16.950  0.4009 -0.0950  0.0645
98318W        W99182   0.283   2.162   9.749  0.3500  0.0474 -0.0758
98319W        W99183   6.165  13.596  26.770 -0.0250  0.2592  0.0134
98320W        W99184  18.088  27.188  17.505 -0.1154 -0.0563  0.1857
98321W        W99185   1.549  20.630  23.816  0.4165  0.1218  0.0222
98322W        W99186  28.410  23.559   5.356  0.2412 -0.1607 -0.0543
98323W        W99187   0.218   3.484  21.269 -0.1995  0.0636  0.0846
98324W        W99188   4.028  21.985  25.604  0.2398  0.0347 -0.1592
98325W        W99189  24.770   6.106  12.752 -0.5019 -0.0795  0.0745
98326W        W99190   4.580  22.182  28.395  0.1446  0.1306 -0.0898
98327W        W99191   3.542  20.725  26.969  0.2942  0.2003 -0.1119
98328W        W99192  20.206  16.501  27.081 -0.0498  0.3250 -0.1564
98329W        W99193   4.654   6.871  24.070 -0.0782  0.1519  0.1020
98330W        W99194   5.912  22.443   9.658  0.2774 -0.1338  0.1890
98331W        W99195   9.178   7.050  23.598  0.0768  0.4671 -0.2026
98332W        W99196  28.723   7.842  10.728  0.0115 -0.2492 -0.0528
98333W        W99197  21.009   0.461  12.217  0.0623 -0.0626 -0.2270
98334W        W99198  28.869  11.518  18.278 -0.3640 -0.2749  0.1229
98335W        W99199   0.237  21.328  15.848  0.0448 -0.0229 -0.2469
98336W        W99200   4.982   3.157  12.824 -0.0592  0.0621  0.0276
98337W        W99201   2.238  23.578  19.645 -0.2952 -0.2426 -0.5110
98338W        W99202   1.394  25.381  18.844 -0.1270  0.0360 -0.0711
98339W        W99203  16.651  23.722   6.038 -0.3815 -0.0657  0.1083
98340W        W99204  21.281   5.012  11.052 -0.1416 -0.1454  0.0660
98341W        W99205  19.531   1.429   0.774 -0.2893 -0.0852  0.0883
98342W        W99206   2.834  17.753  21.041 -0.2861  0.0769  0.1213
98343W        W99207  16.380   7.486  20.711 -0.0969 -0.0794  0.2868
98344W        W99208   3.925  20.607  17.766  0.3803 -0.0262 -0.0278
98345W        W99209   0.237  18.109   1.092 -0.4714 -0.0263 -0.0530
98346W        W99210   5.522  27.166  23.079 -0.1217 -0.1111 -0.0478
98347W        W99211  25.566   0.463  25.222  0.0142 -0.1605 -0.3393
98348W        W99212   0.501  21.486  27.633 -0.2122  0.0610  0.2929
98349W        W99213   5.522  23.406   4.088 -0.3088 -0.1739 -0.1606
98350W        W99214  24.102  26.791   6.960  0.3239 -0.0962 -0.0452
98351W        W99215  27.837   1.119  12.756  0.1373  0.1137 -0.2438
98352W        W99216  24.537  24.506  28.079 -0.0997  0.0808 -0.0794
98353W        W99217   5.186  25.874   0.238 -0.2891 -0.0978  0.1349
98354W        W99218  14.317  14.906  16.533  0.1254  0.0884  0.0110
98355W        W99219   9.734  27.839  14.620 -0.3070  0.0529 -0.0114
98356W        W99220  18.443  26.803   0.965  0.4128 -0.0848 -0.1603
98357W        W99221  21.601  21.398   5.623 -0.0671  0.1748  0.2726
98358W        W99222  17.031  20.250   2.698  0.0197 -0.2859 -0.0511
98359W        W99223  21.096  20.061  19.762  0.1161 -0.2515  0.0011
98360W        W99224  21.678  19.105   2.977  0.0100  0.1733 -0.0155
98361W        W99225  17.997  13.051  22.050 -0.0320  0.0393  0.2041
98362W        W99226  22.908   9.482  20.468  0.1603 -0.0607 -0.1091
98363W        W99227  26.839  14.873  22.480 -0.0362  0.0356  0.2815
98364W        W99228  11.371   6.421  21.153 -0.0548  0.1761 -0.0526
98365W        W99229   4.809  15.034  25.300  0.0266  0.2551 -0.0436
98366W        W99230  28.434  12.127  22.895 -0.0110  0.0099  0.0809
98367W        W99231  27.454  28.936  23.949  0.0096 -0.0860 -0.0575
98368W        W99232  22.656  19.656  26.793  0.0847  0.1649 -0.1680
98369W        W99233  13.384   5.598  19.162 -0.0068  0.0097 -0.4636
98370W        W99234   3.940   0.521   6.472  0.1720  0.0168  0.0772
98371W        W99235   6.717   7.743  18.961  0.2706  0.2629 -0.3546
98372W        W99236  21.089  15.875  23.863 -0.2001 -0.2026 -0.2937
98373W        W99237   0.883   5.463  18.283 -0.3678  0.0754  0.1836
98374W        W99238  10.002  26.709  11.487  0.4530 -0.1245 -0.2182
98375W        W99239  14.078  15.170  25.516  0.1369  0.1268 -0.0851
98376W        W99240   5.422   7.751   5.906  0.1203 -0.2741  0.0150
98377W        W99241  19.409  19.679  23.368 -0.0271 -0.0533 -0.2081
98378W        W99242  13.624  27.214  23.586  0.3106 -0.1709  0.1054
98379W        W99243   2.482   9.370   7.272  0.0724 -0.0145 -0.0602
98380W        W99244  25.611  17.451  11.363  0.1929 -0.4873  0.1754
98381W        W99245   4.228   2.958  22.543 -0.1522 -0.0112  0.0594
98382W        W99246  24.908  26.102   3.056 -0.3461  0.0652  0.1849
98383W        W99247  11.577   1.397  28.073 -0.0150  0.2830  0.0513
98384W        W99248  21.479  27.871  24.850 -0.1325 -0.0505  0.0172
98385W        W99249  10.672  13.868   4.033 -0.3964  0.3378  0.0904
98386W        W99250  11.766  11.764   1.407  0.4128 -0.0904 -0.1230
98387W        W99251   3.469  14.682  23.747 -0.0764 -0.2388  0.2146
98388W        W99252   1.016  13.666  12.798 -0.1682  0.1153  0.1977
98389W        W99253  12.849  14.069   1.691 -0.1289 -0.3666 -0.1715
98390W        W99254  24.914   6.009   7.390 -0.0851 -0.0835 -0.0423
98391W        W99255  17.100  28.059  21.797 -0.1461 -0.3250 -0.0601
98392W        W99256   3.133  27.987  19.717  0.4562  0.3053 -0.0045
98393W        W99257  27.068  10.211   2.369 -0.0051  0.0766  0.0312
98394W        W99258   4.846  23.161  13.034  0.1380 -0.2606 -0.0561
98395W        W99259  25.737  11.833   0.039 -0.0750 -0.1590 -0.0422
98396W        W99260  19.059  22.506   5.833  0.2009 -0.0432 -0.2464
98397W        W99261  13.404   0.459   3.509  0.0114  0.3655  0.0441
98398W        W99262   7.867   3.831  24.689 -0.2458  0.1601 -0.0535
98399W        W99263  25.418  18.603   1.291  0.0358  0.0942 -0.0022
98400W        W99264  21.060  20.631   0.632  0.0979 -0.0170  0.2717
98401W        W99265  24.889   7.927  24.689 -0.1629 -0.0515  0.0281
98402W        W99266   2.177  10.421   3.471 -0.2089  0.0425 -0.0155
98403W        W99267  22.478   6.174   1.913  0.1284 -0.1272  0.0931
98404W        W99268  23.136  21.379  27.032 -0.3865  0.1076  0.1767
98405W        W99269   4.755  28.824  28.095 -0.1126  0.1325 -0.0581
98406W        W99270  27.901  20.036   1.381 -0.1733 -0.2034  0.1381
98407W        W99271  14.136  27.581  21.841  0.3444  0.1073  0.0249
98408W        W99272   3.176   6.830   7.635 -0.1147  0.0665  0.0700
98409W        W99273  25.704  15.170   0.117  0.0833  0.2477  0.0585
98410W        W99274   2.846  24.343  22.381  0.0703 -0.0552 -0.3830
98411W        W99275   8.884  18.049  17.413 -0.0915 -0.0160 -0.0116
98412W        W99276  21.371  23.092  28.320 -0.0138 -0.0343  0.1777
98413W        W99277  22.228  26.852  16.073  0.1578  0.4552 -0.1242
98414W        W99278  23.800  21.389   9.118  0.0001  0.1414  0.1507
98415W        W99279   7.821  25.268  12.134 -0.0037  0.0605 -0.2523
98416W        W99280   1.110  12.644  28.832  0.0921 -0.3659 -0.1005
98417W        W99281  26.083   3.649   9.041  0.0491  0.2075  0.5131
98418W        W99282  26.444  16.650   6.488 -0.3108 -0.1450 -0.0703
98419W        W99283   2.023  25.379  21.913  0.1080 -0.0521 -0.1692
98420W        W99284  10.723  27.257   7.435 -0.0190  0.2198  0.0385
98421W        W99285  18.337  18.110   0.833 -0.0584 -0.0444  0.0991
98422W        W99286   9.026  17.206   6.285  0.1064 -0.0941 -0.0214
98423W        W99287  25.215  20.407  20.278 -0.0012 -0.2583  0.0933
98424W        W99288  24.629   9.005   5.975  0.2071  0.0903  0.1935
98425W        W99289  26.400  25.428  19.992  0.3949 -0.2349 -0.0221
98426W        W99290  21.634   9.708  14.016 -0.1939 -0.0709 -0.2336
98427W        W99291  28.941  15.864   2.502  0.2715 -0.0657 -0.4237
98428W        W99292  18.576   7.821  13.136  0.1636 -0.0075 -0.0300
98429W        W99293  24.364  28.068  21.974 -0.0316 -0.0285  0.2631
98430W        W99294   6.483  15.653  21.916  0.0804 -0.1582  0.0427
98431W        W99295   3.446  21.056  26.648 -0.0487 -0.0814 -0.1476
98432W        W99296  11.630  22.418  23.247 -0.1329 -0.1814 -0.1406
98433W        W99297  14.504  15.836  16.050 -0.1395 -0.3614  0.0266
98434W        W99298  23.217  23.459  27.341 -0.0731 -0.0456  0.1567
98435W        W99299  21.514   5.718  28.004 -0.0106  0.0251  0.0445
98436W        W99300   6.110  13.871   5.421 -0.1566  0.3763 -0.0189
98437W        W99301  19.577  13.225   2.405  0.2618 -0.0444 -0.0836
98438W        W99302  28.866  26.103   5.343  0.1126  0.0911  0.1780
98439W        W99303  18.029  18.452   2.088 -0.0236  0.4974  0.1409
98440W        W99304   6.157  16.801  16.829 -0.2442  0.2811 -0.2832
98441W        W99305  10.118  22.945   4.875  0.1759  0.2710  0.0331
98442W        W99306   1.472  23.728  12.230  0.2986  0.2853  0.0665
98443W        W99307  26.219  27.973  24.855  0.2300  0.1568  0.0105
98444W        W99308  13.213  14.201  28.179  0.1061  0.1274 -0.2147
98445W        W99309  25.393  21.801  19.029 -0.0064 -0.0973 -0.1094
98446W        W99310  15.345   0.065   6.151  0.3228 -0.0067  0.2548
98447W        W99311   0.790  15.639  13.442  0.0025 -0.1745 -0.1319
98448W        W99312  14.261   1.311  13.304 -0.0863 -0.0935  0.2180
98449W        W99313  20.452  21.868  18.171  0.1016  0.3590  0.0382
98450W        W99314  28.302  25.697  12.239 -0.1633  0.1074  0.0022
98451W        W99315  23.574  12.135   1.818  0.3049 -0.0888  0.1178
98452W        W99316  25.447  23.299  13.023 -0.0276 -0.3270  0.1181
98453W        W99317  24.217   9.788  18.161 -0.0833  0.1393  0.0819
98454W        W99318  14.778   7.969  15.613 -0.1119  0.0670  0.0427
98455W        W99319   9.872  17.926   8.835  0.2233  0.2094 -0.0550
98456W        W99320   2.305  15.185  23.269 -0.1415  0.1427  0.1239
98457W        W99321   3.678  28.748   6.189 -0.1626 -0.0224  0.0606
98458W        W99322  20.521  15.360  27.369  0.0262  0.0565 -0.0055
98459W        W99323  26.147   1.425   0.532 -0.1023 -0.0372  0.0756
98460W        W99324   4.388  17.209  14.042 -0.1792  0.0077  0.0525
98461W        W99325  21.217   7.335   9.691  0.0352 -0.0369  0.2501
98462W        W99326  26.052  12.600  10.793  0.1664  0.0169  0.0508
98463W        W99327  24.518  15.882   0.711  0.0938  0.0010 -0.0154
98464W        W99328  23.559   0.601  13.171 -0.0303 -0.2931 -0.4907
98465W        W99329   2.614  15.925   7.795  0.2076 -0.0405 -0.1685
98466W        W99330   9.604   5.468  18.582  0.0281  0.0584 -0.1134
98467W        W99331   1.872   9.589  20.324 -0.3446 -0.1404 -0.2544
98468W        W99332  17.822  21.229  26.065 -0.3146  0.2525 -0.1403
98469W        W99333  13.980  26.986  21.013 -0.3826 -0.1737  0.0340
98470W        W99334  21.521  22.918  20.679 -0.2092 -0.1843 -0.0658
98471W        W99335  26.803  10.834  24.708  0.0881 -0.3385 -0.1673
98472W        W99336  14.988  23.962  21.495  0.2316  0.0639 -0.3868
98473W        W99337   2.408  15.443   3.072 -0.1155 -0.2546  0.3095
98474W        W99338  18.056  14.352  25.464  0.1552 -0.3290  0.0646
98475W        W99339   0.804  20.076   6.704 -0.0996 -0.0723 -0.2319
98476W        W99340  23.217  15.586   1.175  0.2073  0.1439  0.1002
98477W        W99341   9.755  26.502  16.218  0.0207 -0.2738  0.1455
98478W        W99342  27.978   9.575  14.832 -0.1947 -0.0108 -0.0945
98479W        W99343  23.998  15.228   4.220  0.3372 -0.1769  0.1615
98480W        W99344  11.069  25.724   8.054  0.3277 -0.2487  0.2170
98481W        W99345   0.814  22.839   8.558 -0.1480  0.4148 -0.0117
98482W        W99346  13.371   3.318   4.710  0.1425 -0.2729 -0.0432
98483W        W99347  27.344  20.148  26.985 -0.0491 -0.1769  0.0514
98484W        W99348  20.037   3.430  10.831 -0.0395 -0.0283  0.1007
98485W        W99349  19.822  23.601  20.157  0.0532  0.2209 -0.1599
98486W        W99350  12.287  19.829  10.151 -0.0471  0.2086 -0.4285
98487W        W99351  18.423  23.458  25.460 -0.4251  0.0024 -0.2201
98488W        W99352   1.255  26.922  27.350 -0.0856  0.0721 -0.1294
98489W        W99353  14.845  15.442   2.741 -0.3098  0.0628 -0.0377
98490W        W99354   9.816  17.457  17.473 -0.0262 -0.2076 -0.2442
98491W        W99355  20.244  21.072  27.552  0.0130 -0.2971  0.0222
98492W        W99356  22.438  20.700  15.492 -0.1521  0.3346 -0.0771
98493W        W99357  27.228  19.115  22.761 -0.0237 -0.1189  0.2464
98494W        W99358  24.379  20.905   3.071 -0.1759 -0.1634  0.0922
98495W        W99359  15.283   0.367  19.859  0.2860  0.2184  0.0187
98496W        W99360  21.204  11.246   1.266  0.0588 -0.0008  0.1894
98497W        W99361  15.674  18.003   6.331 -0.0548  0.1100 -0.0036
98498W        W99362   1.298  28.948  22.016  0.2497 -0.1713  0.2286
98499W        W99363  18.508  26.574  10.325  0.4795 -0.0248 -0.0904
98500W        W99364   4.038  14.787   4.389  0.0517  0.1929  0.1748
98501W        W99365  14.324  10.876  24.703  0.0642  0.2113 -0.4050
98502W        W99366  18.766  26.112  23.340 -0.2999 -0.2957  0.0150
98503W        W99367  21.537  11.093  27.676  0.1111  0.2436  0.4900
98504W        W99368  16.295  14.364   2.789 -0.0732  0.0665 -0.0979
98505W        W99369   4.511   1.402  19.489 -0.2358 -0.1140 -0.0302
98506W        W99370  24.830  27.361  11.754 -0.0821  0.1601 -0.0881
98507W        W99371  23.591   5.884  25.291 -0.1478  0.0171  0.1954
98508W        W99372  12.609  19.743  12.601 -0.1136  0.1091 -0.0903
98509W        W99373   2.296  10.829   3.230  0.0643 -0.1347  0.1070
98510W        W99374  23.363  11.441  15.783  0.1660 -0.2312 -0.0528
98511W        W99375  19.117   1.323   3.474  0.1265  0.1085  0.3525
98512W        W99376  14.365  24.835   4.426  0.2352 -0.0757 -0.0591
98513W        W99377   9.555  15.545   9.582 -0.0206  0.3133 -0.4087
98514W        W99378  13.781  13.160  27.487 -0.1637 -0.1537  0.1254
98515W        W99379   8.031  15.480   0.064 -0.3123  0.2241 -0.0459
98516W        W99380  12.189  21.198   8.172 -0.0540  0.1808 -0.0204
98517W        W99381  28.955   6.061   9.103  0.0241  0.1315  0.2485
98518W        W99382  24.611  23.152   4.542 -0.2128 -0.1986  0.3332
98519W        W99383   9.128  19.048  14.118 -0.1625 -0.3182 -0.2783
98520W        W99384  22.526  13.015   1.044  0.1995 -0.2084  0.0820
98521W        W99385   4.476  11.749  22.759 -0.1387 -0.3504 -0.0856
98522W        W99386   4.339  12.218  17.720 -0.2758  0.0807 -0.1200
98523W        W99387  16.344  16.518   9.889  0.0889  0.0244  0.0785
98524W        W99388   4.608  23.445   1.556 -0.1519 -0.3363 -0.0598
98525W        W99389   8.138  11.096  25.376 -0.0040 -0.0856  0.1080
98526W        W99390  13.408   7.439  18.511  0.2587 -0.1610  0.0235
98527W        W99391  24.884  15.183  22.904 -0.0098  0.3405  0.2857
98528W        W99392   8.310  21.830  15.356  0.1531 -0.0098 -0.0422
98529W        W99393  19.966  11.601   0.592 -0.0053 -0.1571 -0.1805
98530W        W99394  28.241   2.261  27.390 -0.0364 -0.0053  0.2948
98531W        W99395  23.031   4.822   4.175 -0.1221 -0.0905 -0.0973
98532W        W99396  23.020  22.927  10.880  0.1264 -0.0983 -0.1190
98533W        W99397   8.975  13.982   6.127  0.2729  0.0229  0.1568
98534W        W99398   2.716  22.045  13.646 -0.1296  0.5036  0.1218
98535W        W99399  10.855   7.450  17.790 -0.1059  0.1350  0.0757
98536W        W99400   1.703  26.822  22.520 -0.0126 -0.0662 -0.3879
98537W        W99401  25.135  21.057  10.950  0.0617  0.0554 -0.2687
98538W        W99402   4.276   1.919  26.908 -0.1850  0.2302 -0.2972
98539W        W99403   0.250   9.269   8.791  0.3570  0.2998  0.0440
98540W        W99404  27.938  20.179  27.742  0.1718 -0.3583  0.0806
98541W        W99405  19.615  20.367  26.194 -0.1232  0.0084 -0.0759
98542W        W99406   4.309   7.006   9.844 -0.0405 -0.1143 -0.0273
98543W        W99407  18.426  27.172  16.865  0.1192 -0.2173 -0.1411
98544W        W99408  23.615  16.817  17.549  0.0036 -0.2108  0.1034
98545W        W99409  28.966   0.829   4.324  0.1732  0.0526  0.0645
98546W        W99410   0.436  23.753   0.190 -0.0218 -0.1499 -0.0790
98547W        W99411  27.807   5.911  23.501 -0.2312 -0.1439 -0.1036
98548W        W99412  26.224   0.448  17.734  0.0180  0.0841 -0.0147
98549W        W99413   5.430  11.817   6.148 -0.1992 -0.2792  0.1248
98550W        W99414  18.910  26.607  16.536  0.1794  0.2629  0.2068
98551W        W99415   0.911  27.495   2.954 -0.1688 -0.0327 -0.2296
98552W        W99416  20.317  22.251   8.565  0.1895 -0.1379  0.0880
98553W        W99417   7.452   7.863  17.332 -0.2652  0.2801 -0.2146
98554W        W99418   4.207  23.699  16.180 -0.1243  0.1131  0.0650
98555W        W99419  25.112   3.271   8.152 -0.1492  0.0208  0.2203
98556W        W99420  27.944  16.263   2.774 -0.1562  0.1042  0.1184
98557W        W99421   5.062  19.911  28.371  0.2256  0.1612 -0.1597
98558W        W99422   8.516  12.634   2.341  0.3212 -0.1357  0.0037
98559W        W99423   4.865  25.336  17.752 -0.0875 -0.0222 -0.0556
98560W        W99424  22.333   7.216  20.814 -0.2195 -0.3546 -0.1337
98561W        W99425  28.833  17.746   5.847 -0.2343  0.3181 -0.1443
98562W        W99426   0.486   3.567   3.370  0.0355  0.0164 -0.1150
98563W        W99427  23.026   2.048   9.259  0.1437 -0.1636  0.0660
98564W        W99428  20.855   3.431   0.610 -0.2153 -0.0159  0.1746
98565W        W99429  26.467  19.677   4.302 -0.0426 -0.3070  0.0427
98566W        W99430   8.602   1.321  28.277 -0.1841 -0.2032  0.2938
98567W        W99431  13.537   2.114  18.771 -0.1040 -0.1232  0.3228
98568W        W99432  15.680  14.839  10.419  0.0363 -0.1166 -0.1277
98569W        W99433  16.471  13.795  27.436 -0.0957  0.1466  0.1826
98570W        W99434   5.407   9.438  13.740  0.4241 -0.1029  0.1592
98571W        W99435  26.101   0.440  20.984  0.0260 -0.3468  0.0212
98572W        W99436  15.246  17.257  14.459 -0.0567 -0.1496  0.1927
98573W        W99437  18.967   4.612  11.213  0.0909 -0.2638 -0.1554
98574W        W99438   7.552  12.518  11.171  0.2046 -0.3143  0.3917
98575W        W99439  27.800  16.290  28.947 -0.2021  0.0587 -0.1411
98576W        W99440  28.354  21.080  27.442  0.3098  0.0578  0.1919
98577W        W99441   1.224  10.833   1.377 -0.0196  0.1087  0.2314
98578W        W99442  17.204   5.754  19.232 -0.0493  0.2340  0.5568
98579W        W99443  23.140   0.121  28.019 -0.0015  0.2285 -0.1315
98580W        W99444  17.023  27.030  13.190 -0.1317  0.0107 -0.0648
98581W        W99445   9.223  22.204   8.229 -0.0911 -0.0939 -0.0097
98582W        W99446   8.569  13.441  13.096  0.0688 -0.2702  0.1880
98583W        W99447   8.182  24.443   2.312 -0.0587  0.1585 -0.1074
98584W        W99448  14.617   8.786  29.013 -0.1104  0.0390  0.4646
98585W        W99449  20.148  22.672   0.678 -0.0533 -0.2007  0.1725
98586W        W99450   4.638  28.363  16.164  0.1984  0.0139 -0.0958
98587W        W99451  26.040   1.002  11.164  0.1888  0.1861  0.1244
98588W        W99452  21.625   1.380  26.718  0.2242 -0.0204 -0.1853
98589W        W99453  19.360   4.566  26.910 -0.2847  0.0798  0.1269
98590W        W99454  14.126  15.578  12.945 -0.1421 -0.0780 -0.1172
98591W        W99455  27.831  19.303   2.523  0.0693 -0.0991  0.2060
98592W        W99456  23.681   2.990  16.435  0.4784 -0.0117  0.3330
98593W        W99457  14.272  15.678  23.479 -0.2759 -0.1331  0.2602
98594W        W99458   6.922  25.149   2.804 -0.0789  0.0508  0.3460
98595W        W99459  25.222   5.919  12.996 -0.2305 -0.4386 -0.1239
98596W        W99460   4.534  28.730   4.288 -0.1087 -0.1501 -0.2168
98597W        W99461  22.337  25.940  10.795 -0.0677 -0.0141 -0.1329
98598W        W99462  12.539  25.567  27.096  0.2474 -0.0171 -0.1689
98599W        W99463   2.734   4.931   9.309  0.2141 -0.0051 -0.0243
98600W        W99464   7.297  21.849   2.535 -0.0084  0.2235  0.1018
98601W        W99465  17.224  16.295   0.496 -0.0814 -0.2096  0.0374
98602W        W99466   0.578   7.934  12.149  0.2190 -0.1969 -0.0951
98603W        W99467  17.363  13.577   5.812  0.1398 -0.1799 -0.0698
98604W        W99468   8.519  25.716  28.871  0.1395 -0.4840 -0.2671
98605W        W99469  19.735   2.288  13.804 -0.0918 -0.1594  0.0879
98606W        W99470  13.446  12.710   1.651 -0.2482 -0.0453  0.0629
98607W        W99471   3.776   1.286   7.313  0.0679 -0.0182  0.3063
98608W        W99472  27.043  22.052   6.249  0.2062  0.1478  0.1216
98609W        W99473   9.224  25.267   2.561 -0.0798 -0.1223 -0.2921
98610W        W99474  23.601  23.659   5.183 -0.1376 -0.1539  0.0199
98611W        W99475  28.484   8.417  18.332 -0.0690  0.1100  0.1318
98612W        W99476  25.680  11.875  17.142  0.2289  0.3603 -0.0022
98613W        W99477  19.618  15.336  15.931 -0.1607  0.1814  0.1348
98614W        W99478   3.495  10.858  14.626 -0.1454  0.0525 -0.1875
98615W        W99479  24.576  21.419  12.207  0.0655 -0.1294 -0.2032
98616W        W99480   4.508  27.810  21.371  0.0032  0.0003  0.0417
98617W        W99481  28.990   8.189  12.508  0.1233  0.0290  0.1889
98618W        W99482   2.967   3.271  28.218  0.0911  0.4703  0.0437
98619W        W99483   0.515  19.175  16.969  0.0690 -0.1219  0.0866
98620W        W99484  27.301  24.083  27.037 -0.1836  0.0747 -0.0630
98621W        W99485  12.297  25.461  23.723  0.1357  0.1897 -0.1451
98622W        W99486  17.032   0.936   3.220  0.2122  0.0889 -0.2151
98623W        W99487   4.330   3.028  26.251 -0.0626 -0.0422 -0.0889
98624W        W99488  17.240   3.695  10.113 -0.2981 -0.1233 -0.1584
98625W        W99489  23.301  26.097   6.166 -0.1285 -0.1763  0.1762
98626W        W99490   6.681  22.974  23.592 -0.2529 -0.0500  0.0230
98627W        W99491  25.758  20.280   1.994  0.0608 -0.2059 -0.1657
98628W        W99492   1.663   6.683   5.594 -0.2633 -0.1732 -0.1875
98629W        W99493   9.060  24.870   0.014 -0.1180  0.1497  0.0482
98630W        W99494  11.684  29.126   4.513 -0.0665  0.5149 -0.0401
98631W        W99495  13.208  27.905  12.738  0.1465 -0.0582 -0.0050
98632W        W99496   4.710   9.958   8.773 -0.2547 -0.0026  0.0565
98633W        W99497  26.657  19.360  26.665 -0.0002  0.3133  0.0028
98634W        W99498   8.843  24.816  25.706  0.3898 -0.2007  0.1180
98635W        W99499  20.346  19.605  13.735 -0.2686  0.0687  0.0221
98636W        W99500  23.026   6.074  12.251  0.4721 -0.3677  0.0584
98637W        W99501  21.519   3.065   3.472  0.0540  0.1434 -0.1780
98638W        W99502  25.852  17.338   5.050  0.1787 -0.2761  0.1773
98639W        W99503   6.204   9.041  17.141  0.0296  0.0589  0.3465
98640W        W99504  13.821  25.607   6.111  0.3646  0.2631 -0.1467
98641W        W99505   8.903  19.009  28.177 -0.3466  0.0868  0.0656
98642W        W99506  12.068  19.262  11.471  0.1530  0.3334  0.3009
98643W        W99507  12.498  26.515  28.585  0.1522 -0.1591 -0.0556
98644W        W99508  25.370  22.155  14.045 -0.1935 -0.1380 -0.1321
98645W        W99509  14.503  20.438  16.512 -0.0868 -0.0276 -0.3022
98646W        W99510  11.069   0.617   8.399 -0.2387 -0.0379 -0.2564
98647W        W99511  16.872   7.276  16.276  0.1438 -0.1220 -0.1527
98648W        W99512   0.786   6.259  23.261  0.0573 -0.0159  0.0971
98649W        W99513  26.462   4.392  28.777  0.3689  0.2224  0.0881
98650W        W99514  19.424  21.083  26.083  0.2020 -0.0107  0.4091
98651W        W99515  26.599  18.715   3.271 -0.2313  0.2248 -0.2195
98652W        W99516   7.976   1.965  19.918 -0.0011  0.0700  0.0458
98653W        W99517  20.939  26.812   9.171 -0.1133  0.0490 -0.0881
98654W        W99518  28.147   8.045  25.669 -0.3254  0.0756  0.1593
98655W        W99519  24.697  28.788   7.497 -0.3003 -0.1049 -0.0176
98656W        W99520   9.554   3.060  12.675 -0.0648  0.0352 -0.1845
98657W        W99521  27.664  23.670   5.850 -0.0415 -0.0489  0.1582
98658W        W99522  26.871   6.915  26.010  0.1025  0.0332  0.0021
98659W        W99523   1.428   8.091  14.288 -0.1284 -0.2668 -0.0126
98660W        W99524  27.121  27.061  27.322  0.2387  0.0022  0.0722
98661W        W99525  24.295  16.094   4.741  0.0850 -0.0370 -0.1377
98662W        W99526  17.167  25.671   2.575 -0.2063  0.0421  0.0764
98663W        W99527  22.508  17.973  21.711 -0.0883  0.0135  0.1811
98664W        W99528  18.908  27.072  11.628  0.0462  0.1971  0.3788
98665W        W99529  27.508  20.566  17.091 -0.5794  0.2154 -0.2285
98666W        W99530  24.937  16.743   0.250  0.0620  0.0546 -0.2751
98667W        W99531   5.974   5.159  21.029  0.1854 -0.0820 -0.0819
98668W        W99532  19.148   6.491   6.039  0.2808  0.1092 -0.2810
98669W        W99533   8.357  22.900   5.409  0.2704 -0.1203  0.1161
98670W        W99534   8.364  23.736  15.049  0.3604 -0.0764  0.1374
98671W        W99535  27.033  27.738   5.285 -0.1159  0.0496  0.2352
98672W        W99536   2.211   8.073  16.756 -0.0194 -0.0580 -0.3060
98673W        W99537  11.449  28.721   5.640 -0.0102  0.3285  0.1617
98674W        W99538  22.423  26.016  26.782  0.1099 -0.4063 -0.0835
98675W        W99539   2.196  18.072   5.524 -0.2504 -0.1298  0.3132
98676W        W99540  20.089  22.674   1.908  0.2975 -0.2827  0.0976
98677W        W99541   3.885  27.536   4.597  0.1768 -0.1369  0.1014
98678W        W99542   9.392  12.896  22.421  0.0681  0.3056  0.1157
98679W        W99543  14.539  13.329   5.642  0.0576 -0.2185 -0.1519
98680W        W99544   7.068  23.879   1.053 -0.1087 -0.1721 -0.1853
98681W        W99545   9.921  17.229  17.986  0.0424 -0.1809 -0.0839
98682W        W99546   0.555  12.841  24.984 -0.1223 -0.1101 -0.1702
98683W        W99547   0.530  25.046   7.761 -0.0527 -0.0310  0.0851
98684W        W99548  22.028  12.839   0.156  0.3202  0.1731  0.0603
98685W        W99549  16.693  14.067   2.977  0.1057 -0.2747  0.1170
98686W        W99550   1.862  13.847  20.606  0.0969 -0.1783 -0.3056
98687W        W99551   1.289  24.914  21.341 -0.0058 -0.2498  0.2462
98688W        W99552  27.367  23.243  17.698 -0.0083  0.0869 -0.1063
98689W        W99553   1.805   2.345  16.939 -0.3162 -0.1740  0.0467
98690W        W99554   5.644  20.651  16.429 -0.1939  0.0184  0.1881
98691W        W99555  16.757  28.600  28.931 -0.0521 -0.0720 -0.1670
98692W        W99556  27.007  15.605  27.320  0.2662  0.0973 -0.3473
98693W        W99557  23.174  18.840   5.147  0.0483 -0.3402  0.1988
98694W        W99558   5.570  24.837  28.767 -0.3490 -0.0470  0.0207
98695W        W99559   2.015  28.863   6.326 -0.0416  0.2739 -0.1167
98696W        W99560   2.262   9.521   7.741 -0.1211  0.0663  0.3337
98697W        W99561  13.684   5.043  28.895  0.2999 -0.0716 -0.3848
98698W        W99562  25.209  25.810  12.710 -0.0311  0.0904 -0.0378
98699W        W99563  19.624   3.773  19.577  0.1864  0.1429 -0.3511
98700W        W99564  17.270  22.637  13.938 -0.0551 -0.1263  0.0381
98701W        W99565  11.788   0.375  21.628  0.1112 -0.1374 -0.1782
98702W        W99566  25.865  21.675  26.032 -0.0292 -0.4265 -0.4032
98703W        W99567  27.432  11.542  23.565  0.1757  0.2465  0.1530
98704W        W99568   2.900  24.750  21.396  0.0085  0.1097 -0.0159
98705W        W99569   9.170   7.744   3.467 -0.2521  0.0344 -0.0268
98706W        W99570  27.228  25.662  26.505  0.1323  0.2444  0.0076
98707W        W99571  26.382  20.460   3.852  0.1786  0.1372 -0.0783
98708W        W99572  22.109  13.157  18.125  0.2253  0.0390  0.0476
98709W        W99573  19.090  24.472  23.415  0.0238 -0.3252  0.1141
98710W        W99574  10.578  27.430  15.609  0.0119  0.0381  0.0359
98711W        W99575   9.645   8.579  27.999 -0.1060  0.2811  0.1519
98712W        W99576   0.965  27.605   5.421  0.0283  0.0335 -0.0053
98713W        W99577   9.841   9.401   1.335  0.2048  0.4287 -0.3501
98714W        W99578  23.197  26.900   0.759 -0.0257  0.0910  0.1301
98715W        W99579   0.584  25.234  23.802  0.3413 -0.2698 -0.0040
98716W        W99580  23.472  16.602  27.203  0.2300  0.0153 -0.0641
98717W        W99581   9.298  17.274   5.367  0.0137 -0.2028 -0.2371
98718W        W99582  28.238  10.898  28.484  0.1348  0.0857  0.3168
98719W        W99583   5.992  26.482  13.019  0.2038 -0.0380 -0.0923
98720W        W99584  14.041  19.062  23.283  0.1531  0.1207  0.2898
98721W        W99585  16.904  18.104   5.466 -0.2898  0.0622  0.0272
98722W        W99586   8.416  19.824   6.492  0.2318  0.1030  0.1003
98723W        W99587  22.282   9.379   9.928 -0.1372  0.2689 -0.1252
98724W        W99588  28.413  27.582  28.184 -0.1190 -0.0042  0.1074
98725W        W99589  13.676   0.812   9.424  0.0951 -0.1287  0.0299
98726W        W99590  23.802   4.054  18.977 -0.0870  0.0363  0.2510
98727W        W99591   7.487  29.116  19.201 -0.4719  0.0882 -0.1244
98728W        W99592  28.886  26.595  15.206  0.2138  0.2104  0.0495
98729W        W99593  15.299  22.534   6.478  0.1281 -0.0104 -0.0033
98730W        W99594  27.736  24.857   0.143 -0.4049 -0.0474  0.0103
98731W        W99595  15.425  18.576  27.080  0.1033 -0.0259  0.1355
98732W        W99596  28.383  13.749  20.071 -0.1493 -0.2484 -0.1473
98733W        W99597  22.771  12.225  24.624  0.3664  0.0247 -0.2135
98734W        W99598  13.666  20.519   2.714 -0.1595  0.2792  0.2121
98735W        W99599  29.095  15.772  12.619  0.2003 -0.4328  0.2568
98736W        W99600  21.943   4.316  17.268  0.3639  0.3418  0.3216
98737W        W99601   5.437   0.056  17.977 -0.2045  0.1731 -0.0797
98738W        W99602  26.278  18.925  23.254 -0.2273  0.0206 -0.0172
98739W        W99603   9.920  23.547  24.880 -0.0018 -0.2787  0.2884
98740W        W99604  24.083  13.701   8.848 -0.1153 -0.1166 -0.0415
98741W        W99605  23.618   2.813  10.308 -0.3592  0.1475 -0.2898
98742W        W99606   9.298  14.843  20.004 -0.0156 -0.2263  0.3000
98743W        W99607  27.548  12.945  11.855  0.0857 -0.0871 -0.0810
98744W        W99608  20.015  20.268   7.990 -0.1512 -0.1854  0.1071
98745W        W99609  20.547  21.527   7.246  0.0468 -0.1680  0.0495
98746W        W99610   8.037  12.076  24.406  0.0877 -0.1263 -0.2918
98747W        W99611  13.407  27.035  16.197 -0.0217  0.2146 -0.0454
98748W        W99612  27.376   1.016  29.130 -0.1369 -0.2232 -0.2503
98749W        W99613   6.269  19.206  24.082  0.0458  0.0347  0.3689
98750W        W99614  19.809   4.768   9.125  0.0785 -0.0077  0.1806
98751W        W99615  20.801  28.866   4.582  0.0033  0.0082  0.0397
98752W        W99616  13.406  27.500  24.154 -0.1630  0.0125  0.1568
98753W        W99617  20.868  25.082  25.005  0.2580  0.1680  0.1197
98754W        W99618  24.542   7.326   7.488 -0.1952 -0.1702 -0.0853
98755W        W99619  24.550  18.964  21.358 -0.2086  0.0168 -0.0718
98756W        W99620   7.350   9.745  13.722 -0.1647 -0.3541 -0.1747
98757W        W99621  14.824  13.824  19.577  0.4485 -0.1299 -0.4287
98758W        W99622   2.227  18.764  14.544 -0.0684 -0.0024 -0.2878
98759W        W99623   2.654  20.987   9.270  0.0086  0.4133 -0.2325
98760W        W99624  24.785   9.217  21.862 -0.0240 -0.2394 -0.1167
98761W        W99625  11.831   8.785  27.783  0.0421  0.0346 -0.1277
98762W        W99626   9.966  23.426  23.118 -0.0699 -0.1032 -0.3326
98763W        W99627   6.208  15.999  17.890 -0.1500 -0.4854  0.1873
98764W        W99628  12.699  14.979  23.303  0.0383 -0.1192  0.2544
98765W        W99629  20.164  11.566   7.276 -0.1351 -0.0949  0.1746
98766W        W99630   3.743  25.366   9.196 -0.0356 -0.0367  0.2451
98767W        W99631  18.665   6.962  21.860 -0.1733 -0.0702 -0.0975
98768W        W99632   5.660  10.318   8.492 -0.0579 -0.3600 -0.1238
98769W        W99633   3.109  21.095  29.089  0.1356 -0.1675 -0.1809
98770W        W99634   3.112   8.960  15.719  0.1743  0.0121  0.0320
98771W        W99635  27.508  19.608  16.893  0.0184  0.0869 -0.2310
98772W        W99636  20.956  17.125   3.747 -0.2732  0.1032  0.3502
98773W        W99637   5.264   4.590   8.208 -0.1230 -0.0480  0.1113
98774W        W99638   2.295  17.463  20.636 -0.1806  0.1950 -0.1135
98775W        W99639   1.743  24.238   9.222  0.0979 -0.1111 -0.0024
98776W        W99640   2.025  13.229   0.644  0.1982  0.1061  0.0752
98777W        W99641  26.175   1.859  28.475  0.3496  0.2004 -0.1575
98778W        W99642  22.404  22.629   6.547 -0.1935  0.0860 -0.1370
98779W        W99643  29.084   6.875   5.185  0.0212 -0.1638  0.0164
98780W        W99644  22.533  25.358   7.789 -0.0468  0.5189  0.0778
98781W        W99645   6.281   2.566   6.829 -0.0507 -0.0780 -0.1619
98782W        W99646  21.317  22.032  25.727 -0.1532  0.2598 -0.0199
98783W        W99647  20.182  26.248  19.633  0.3165 -0.2586 -0.1927
98784W        W99648   8.285  13.406  25.519  0.0331 -0.2042 -0.1941
98785W        W99649   8.767  13.077   2.350 -0.1389 -0.6377  0.0485
98786W        W99650   4.157  11.810  23.191 -0.0006  0.3906 -0.1308
98787W        W99651   1.035  16.368  11.126 -0.0510  0.0870 -0.1117
98788W        W99652  25.732  10.365  26.129 -0.3542 -0.0546  0.1256
98789W        W99653   9.625  10.007   9.047  0.2302 -0.2352 -0.0819
98790W        W99654   2.018   3.163   8.168 -0.1311 -0.0475 -0.0007
98791W        W99655  12.250  21.789   0.318 -0.1907 -0.0149  0.1118
98792W        W99656  21.392   5.543  20.710 -0.0341  0.2020  0.0039
98793W        W99657  22.601  15.352   9.181  0.0365  0.0516 -0.2775
98794W        W99658  13.389  26.217   5.528  0.1574 -0.0557  0.0245
98795W        W99659  28.437  19.560  16.851 -0.2766  0.3334 -0.2095
98796W        W99660   3.596   5.190   5.501  0.0653 -0.0137  0.1569
98797W        W99661  12.817   3.563   1.578 -0.3119 -0.3108  0.0821
98798W        W99662  27.390  12.882  26.550 -0.0730 -0.0525 -0.0682
98799W        W99663  16.555  20.653  24.145  0.3605 -0.1760  0.2046
98800W        W99664  26.852  18.213  19.988 -0.1403 -0.0210 -0.1963
98801W        W99665  17.499  23.883  23.167 -0.4442  0.0408 -0.1259
98802W        W99666  23.659  15.602   2.622  0.0330 -0.1828 -0.0938
98803W        W99667   4.890  11.133  18.744 -0.4124  0.0709 -0.1031
98804W        W99668  24.779  26.502  20.255 -0.0920 -0.0143  0.1972
98805W        W99669  11.331  22.910   2.007  0.2307  0.0723 -0.2201
98806W        W99670  20.213  18.607  15.308  0.0396  0.2495  0.2358
98807W        W99671  24.283   9.428  27.779  0.1548  0.0339 -0.3093
98808W        W99672   2.956  21.237  11.205 -0.0439 -0.1013  0.0959
98809W        W99673   5.235   1.821   6.797 -0.3179 -0.0904 -0.1631
98810W        W99674  24.182  17.260  20.754  0.0313  0.0027  0.0843
98811W        W99675  15.368   0.366  15.144 -0.0437 -0.3995  0.2598
98812W        W99676   1.764  15.172  25.367 -0.4269  0.0740  0.0069
98813W        W99677  13.035  28.854  10.173 -0.1220 -0.0207 -0.1876
98814W        W99678  24.191  22.466  25.263  0.1309 -0.2014  0.1023
98815W        W99679  13.096  17.107   4.149 -0.1443  0.5127 -0.0404
98816W        W99680  28.143  20.607   0.632  0.0533 -0.0987  0.2413
98817W        W99681   1.723   7.403  25.077  0.3187 -0.0774  0.1324
98818W        W99682  13.763  12.779   7.291  0.2561  0.0658  0.1833
98819W        W99683   5.742  11.361  21.053  0.0616 -0.0733 -0.2167
98820W        W99684   7.472  26.376  22.456 -0.3798 -0.2582  0.1837
98821W        W99685  20.820  25.675   3.685  0.4095  0.1183  0.3313
98822W        W99686   0.144   1.056   9.830  0.1066 -0.0953 -0.1343
98823W        W99687   9.734   0.057   7.622  0.1250  0.1026 -0.1448
98824W        W99688  22.325  10.928   6.395 -0.0239  0.0668  0.0473
98825W        W99689  26.729  10.298  26.084  0.2687  0.0709 -0.3101
98826W        W99690   2.746  11.041  21.699  0.0151  0.2824  0.3350
98827W        W99691   1.292  22.117   0.820 -0.2094 -0.0132  0.0409
98828W        W99692  29.002   1.974  24.774  0.2639  0.0857 -0.3367
98829W        W99693   1.160  15.264   8.882  0.1842 -0.1181 -0.0049
98830W        W99694   0.253   3.189   9.440  0.1311  0.0204  0.0359
98831W        W99695  16.922  13.853  26.004 -0.0593  0.2167  0.2461
98832W        W99696  14.927   3.291  19.139  0.0859 -0.2352 -0.0235
98833W        W99697  26.102  13.384  10.470  0.0501  0.0104  0.0870
98834W        W99698   7.599  20.281  27.698 -0.1125 -0.2267 -0.0917
98835W        W99699   3.230   5.983  10.966  0.1250 -0.2999  0.0202
98836W        W99700  15.602   0.449  23.659 -0.0924  0.2261 -0.1153
98837W        W99701  25.082  16.502  18.139 -0.0947 -0.0313  0.3115
98838W        W99702  22.582  18.020  13.035  0.1017 -0.1333 -0.1443
98839W        W99703  26.666   8.535  24.579 -0.1992 -0.0371  0.1473
98840W        W99704  27.599  27.148   6.528  0.0405 -0.3425  0.0380
98841W        W99705  25.334   8.212  10.451 -0.3854  0.0729  0.1504
98842W        W99706  29.083  24.631  25.841  0.0537 -0.2612  0.0262
98843W        W99707   7.431   3.848  28.764  0.0790  0.1619 -0.1416
98844W        W99708  23.568  17.780   6.859 -0.0827 -0.0600 -0.1394
98845W        W99709  25.699   6.214  27.772 -0.1202  0.1670 -0.0312
98846W        W99710   8.390   1.780  28.305  0.0917  0.3926 -0.0260
98847W        W99711  24.778  25.061  24.212 -0.0192  0.2139  0.0296
98848W        W99712  23.080  20.774  17.357 -0.0116  0.0190 -0.0792
98849W        W99713   2.956   4.931  16.496 -0.2150  0.3348 -0.2570
98850W        W99714  10.945  10.507  13.494  0.3140 -0.0578 -0.2218
98851W        W99715  22.165  20.006  25.926  0.0583  0.2254  0.3516
98852W        W99716  14.245   8.953  11.381 -0.0097 -0.1174  0.1114
98853W        W99717  23.947   3.550  22.106 -0.1308  0.1519  0.0495
98854W        W99718   4.857  12.030   8.018 -0.1558 -0.0329 -0.1321
98855W        W99719  28.816  25.560  10.501  0.2066 -0.2379  0.0492
98856W        W99720   1.684  17.992  27.897 -0.0831 -0.0538  0.0411
98857W        W99721  20.792   6.428  13.898 -0.0223  0.1539  0.1700
98858W        W99722   5.365   1.523  12.569 -0.0103 -0.2530 -0.0283
98859W        W99723  24.708  16.978  20.899 -0.2764 -0.0316 -0.0877
98860W        W99724  27.231  16.054  17.925  0.4543  0.2238  0.3797
98861W        W99725   0.087  20.651  25.509 -0.0620  0.0034 -0.0964
98862W        W99726   0.008   9.302   5.883 -0.0164  0.1407  0.1705
98863W        W99727  16.232   6.897   4.189  0.1434  0.0363  0.0593
98864W        W99728  26.418  23.554   3.015  0.2756 -0.0121  0.2044
98865W        W99729   9.740   7.409  13.168  0.2531  0.1749 -0.0669
98866W        W99730   4.257   2.995  21.265 -0.2310  0.0741  0.1470
98867W        W99731  16.106  18.574  24.136  0.0988 -0.2279  0.0834
98868W        W99732  27.698   1.308  10.795 -0.2526 -0.0451  0.2224
98869W        W99733  14.183   8.784   7.183 -0.0577  0.1619 -0.3265
98870W        W99734   1.145  14.633  28.931 -0.1786 -0.2057  0.3335
98871W        W99735   1.085  17.044   6.140 -0.1514  0.0014 -0.2479
98872W        W99736  24.649  16.679   9.364 -0.0598 -0.1821  0.0934
98873W        W99737   9.161  14.153  23.884 -0.1161 -0.0154 -0.0476
98874W        W99738  12.501   6.712   1.915  0.1873 -0.4410  0.1237
98875W        W99739  10.721   0.515  22.135 -0.0100  0.0415 -0.0628
98876W        W99740  25.888  24.345  22.175  0.4769  0.0652  0.2844
98877W        W99741  12.389   0.267  28.405  0.1505 -0.3439 -0.1243
98878W        W99742  26.644   0.877   2.133 -0.2350 -0.0679 -0.1268
98879W        W99743  20.820   8.757  15.086  0.2070 -0.2216  0.2601
98880W        W99744  24.631  24.129  12.235 -0.0329  0.0807 -0.0742
98881W        W99745  26.660  27.592   5.003  0.0764 -0.1888 -0.2602
98882W        W99746  20.396  23.166   8.869 -0.3070 -0.0304 -0.1068
98883W        W99747   3.579  24.482  15.092 -0.0158 -0.0489 -0.1467
98884W        W99748  22.205  12.931   6.854  0.1557 -0.1746 -0.0998
98885W        W99749  20.549  10.647   5.435  0.1592  0.1050 -0.0206
98886W        W99750  26.901   4.112   9.312  0.0398  0.0486 -0.2835
98887W        W99751  11.524  10.677  14.123  0.1387 -0.0292  0.0664
98888W        W99752   7.887  11.197  24.938  0.0811  0.2312 -0.2898
98889W        W99753   6.776  18.494  29.046 -0.0074  0.0987 -0.0422
98890W        W99754   3.976  21.684  26.045 -0.2581  0.1892 -0.0180
98891W        W99755   1.408  20.784   9.251 -0.2587 -0.1213 -0.0080
98892W        W99756  16.190  23.069   3.108 -0.0204 -0.3071 -0.1332
98893W        W99757  20.927   7.545   4.478  0.0748 -0.4277 -0.0764
98894W        W99758  12.921  26.080  17.115  0.1071  0.1558  0.0835
98895W        W99759  24.084  20.971  14.546 -0.0950  0.2669 -0.0992
98896W        W99760  15.173   3.683  18.971  0.1906  0.1417 -0.1484
98897W        W99761  16.694  19.370   9.892  0.1748 -0.1506 -0.1860
98898W        W99762  19.209   8.390  10.777 -0.2478  0.0494 -0.3936
98899W        W99763  25.559  27.581  13.159 -0.2794 -0.2211  0.0130
98900W        W99764   0.686  26.906   2.339 -0.3197  0.0460  0.0711
98901W        W99765  19.100  18.584  21.167 -0.1630 -0.1852 -0.2979
98902W        W99766  19.451  15.668   0.552 -0.0700 -0.2291  0.3753
98903W        W99767  27.301  17.384  13.718  0.4382  0.2473  0.2483
98904W        W99768   8.110   3.586  14.764 -0.1442  0.2985 -0.0482
98905W        W99769  10.904  19.053  26.587 -0.0226 -0.1308  0.1926
98906W        W99770   0.926  16.408  15.100 -0.2005 -0.1158  0.1600
98907W        W99771  12.244  17.579  24.433  0.3076 -0.2190  0.2876
98908W        W99772  19.836   6.715   2.446 -0.0941 -0.2227 -0.0767
98909W        W99773  15.809   2.691   8.030  0.3501 -0.0693  0.0927
98910W        W99774  13.088  25.815   6.709  0.1433 -0.0236  0.3033
98911W        W99775  15.797  16.313  26.662 -0.3247  0.3714  0.1407
98912W        W99776  21.421   8.078  21.474  0.0017  0.1001 -0.3294
98913W        W99777  14.854   7.957  12.612 -0.0275  0.2431  0.1079
98914W        W99778  11.207  22.561  10.045 -0.0681  0.2370  0.0088
98915W        W99779   8.463  17.681   5.634 -0.0931  0.0570 -0.0535
98916W        W99780  25.456  20.084   7.086 -0.0732 -0.1631  0.0912
98917W        W99781  29.036  22.577   3.190  0.0344 -0.0048  0.2719
98918W        W99782  26.757  19.274  17.586  0.0381  0.0158 -0.2745
98919W        W99783  21.842  20.962   2.923  0.0199 -0.1539 -0.0067
98920W        W99784   7.431  24.128   0.870  0.0466  0.0784 -0.2236
98921W        W99785  19.517  18.435  28.009  0.0861 -0.3680  0.2763
98922W        W99786  26.837  20.823  29.076 -0.1835  0.0385  0.0240
98923W        W99787   9.473  26.634  10.734 -0.0386  0.0568 -0.2345
98924W        W99788  10.771  20.325   2.592 -0.1125 -0.0067  0.3235
98925W        W99789  23.869  18.397   6.235  0.2550 -0.3116  0.0572
98926W        W99790   2.372   0.382  18.501 -0.1101 -0.1436  0.1261
98927W        W99791  24.483  13.684  10.662  0.1277  0.2416  0.0966
98928W        W99792  24.727  18.034  17.023 -0.1342 -0.0132 -0.3377
98929W        W99793  14.904  21.413   0.847  0.0495 -0.4236  0.1324
98930W        W99794  17.841  24.765   3.394  0.2001  0.3371  0.0412
98931W        W99795   5.433  18.935  21.732  0.2593 -0.1425 -0.2884
98932W        W99796  25.643   5.118   4.387  0.0606 -0.0700  0.1375
98933W        W99797  14.544   5.525  10.891 -0.0979  0.0642  0.1749
98934W        W99798  10.291  19.083   2.002  0.1930  0.1994  0.0619
98935W        W99799  19.322  13.437  29.127 -0.0534 -0.2002  0.0333
98936W        W99800   7.168  14.117  12.173  0.0283  0.0079  0.1581
98937W        W99801  17.279  14.813  10.252 -0.2190 -0.0968 -0.1175
98938W        W99802  11.994  10.900   1.172  0.0853 -0.2985 -0.1106
98939W        W99803  27.507  25.143   0.562  0.0353  0.2027 -0.2956
98940W        W99804   3.086  21.751   7.482  0.3866 -0.0546  0.0794
98941W        W99805  13.665  17.289  18.922 -0.0423 -0.0498  0.1833
98942W        W99806  28.489  23.586  19.633 -0.1445  0.0262  0.0477
98943W        W99807  28.228   3.257   7.731  0.0846  0.1507  0.0196
98944W        W99808  19.276  18.703   3.047 -0.0155 -0.0949  0.0399
98945W        W99809   5.095  19.563  21.872 -0.1510  0.2013 -0.1806
98946W        W99810  10.694  27.638  27.543  0.1109 -0.2755 -0.1938
98947W        W99811  11.652  26.679  18.980  0.2034  0.3364  0.1753
98948W        W99812   3.044   7.618  17.526  0.2077 -0.0831  0.0782
98949W        W99813  13.287   4.686  22.245  0.5176  0.2435 -0.2632
98950W        W99814  19.985  28.136  11.158  0.1229 -0.1333 -0.4155
98951W        W99815   3.125  24.791   2.350  0.1230 -0.1690 -0.0418
98952W        W99816   0.236  22.899  27.227 -0.2258 -0.4953 -0.2560
98953W        W99817   2.193  16.678  15.131  0.0874  0.1616  0.2425
98954W        W99818   3.075  14.936   2.346 -0.1992  0.0125 -0.0742
98955W        W99819  29.041  27.310  23.729 -0.1282 -0.2043 -0.2166
98956W        W99820   5.502   2.439   9.866  0.0935  0.1512  0.0698
98957W        W99821   7.803   3.360  19.968  0.1062  0.1380  0.1809
98958W        W99822   3.760  18.840  24.739  0.2454 -0.0787 -0.0761
98959W        W99823   4.903   4.825   6.055  0.0980 -0.1995 -0.2115
98960W        W99824  24.424  26.698  24.682 -0.0283 -0.2554  0.0177
98961W        W99825   2.514  17.572  19.804  0.2736  0.2469  0.0760
98962W        W99826   3.975  27.011  18.470 -0.1284  0.0529  0.1630
98963W        W99827  26.192  16.889   8.389  0.1777 -0.0996  0.1786
98964W        W99828  28.503  19.676  24.809 -0.0218 -0.0905  0.1846
98965W        W99829   7.773  26.953   6.525 -0.2074 -0.1460 -0.3649
98966W        W99830   6.194  25.898   8.387  0.0346 -0.0915 -0.2338
98967W        W99831  27.260   5.435  16.576 -0.0412  0.0348  0.1400
98968W        W99832   4.022  20.404   6.560 -0.1022  0.1084 -0.0356
98969W        W99833  17.297  15.495  12.955 -0.1859  0.1631 -0.2044
98970W        W99834  22.743  19.193  13.045 -0.0679 -0.1656  0.0295
98971W        W99835   3.756   4.485  21.773  0.1399 -0.1857 -0.1835
98972W        W99836  24.909   2.429   8.057  0.0983  0.0291  0.0848
98973W        W99837  24.395   8.289  13.678  0.0359  0.3008  0.0821
98974W        W99838  25.948  28.033  13.454 -0.0820  0.1875 -0.0150
98975W        W99839   7.546  17.528   1.235  0.1306  0.2245 -0.0663
98976W        W99840   8.406   8.412   9.159 -0.1028  0.0123 -0.5286
98977W        W99841   4.443  20.380   7.964  0.2693  0.2002  0.0294
98978W        W99842  17.555  17.824   5.181  0.0302  0.1288  0.0295
98979W        W99843  21.228   8.357  12.225  0.0035 -0.3288 -0.0323
98980W        W99844  25.992  20.138   3.542  0.1512  0.0693  0.3868
98981W        W99845   5.932  19.115  24.586 -0.1159  0.1934  0.0915
98982W        W99846   7.061  19.035  28.416  0.1128  0.0006 -0.0244
98983W        W99847   0.807   9.601  24.465  0.1627 -0.0455  0.1624
98984W        W99848  19.656  15.152  13.546  0.0450 -0.3365  0.2354
98985W        W99849  13.104   0.650   2.474 -0.1859  0.2600  0.1799
98986W        W99850  25.044   4.286  24.997  0.0212 -0.1287 -0.3445
98987W        W99851   5.307  19.625  27.238  0.1600 -0.3353  0.1315
98988W        W99852   3.455   8.709  22.706 -0.1279  0.1507  0.2096
98989W        W99853  20.899   8.357  25.267 -0.1287  0.4069 -0.2797
98990W        W99854  26.501  22.614  11.122 -0.1814  0.0625  0.0859
98991W        W99855  24.821  27.573  25.147 -0.4212  0.1331 -0.2511
98992W        W99856   9.299  19.526  26.160 -0.1384  0.0173  0.2112
98993W        W99857   3.152  19.486  15.243 -0.0671  0.4087 -0.0438
98994W        W99858  24.486  14.049   7.052  0.4804 -0.3131 -0.1438
98995W        W99859  13.287  23.352   0.518  0.1248  0.0193  0.3592
98996W        W99860  11.068  27.012   1.067  0.1277  0.0282 -0.1256
98997W        W99861   5.436  17.646  26.824  0.1460  0.2957 -0.2282
98998W        W99862   0.982  24.893  29.009  0.0716 -0.0873 -0.0074
98999W        W99863   6.158  18.037   6.379 -0.2297 -0.3476 -0.1973
99000W        W99864   0.281  27.029  22.919 -0.0111 -0.1802  0.1796
99001W        W99865  24.346   0.096   4.144  0.0835  0.0447 -0.1024
99002W        W99866   1.384   8.992  11.962 -0.0470  0.0609 -0.2074
99003W        W99867  22.350  16.569  21.921 -0.0970  0.0912 -0.0698
99004W        W99868  23.702   7.446  15.194  0.2218  0.1427  0.0298
99005W        W99869  21.050  24.343   7.653 -0.0487 -0.2503 -0.0845
99006W        W99870  28.336  22.235  13.934  0.0490  0.1832 -0.1130
99007W        W99871   7.377  23.404   9.594  0.0043 -0.0281 -0.5259
99008W        W99872  14.611  12.316   4.601 -0.0053 -0.0426  0.2227
99009W        W99873   9.103  10.474   2.367  0.1988  0.1563  0.0835
99010W        W99874  22.824   1.621  18.840 -0.0933  0.0951  0.0463
99011W        W99875  27.365   1.578   9.006 -0.0860  0.0806  0.3668
99012W        W99876   4.230  27.848   9.317 -0.2368  0.1563  0.0962
99013W        W99877  10.338  12.475   2.390  0.0065 -0.0880  0.0971
99014W        W99878  24.282  26.576  25.622 -0.1883 -0.0694 -0.0689
99015W        W99879   6.069  16.191   4.982 -0.0632  0.2196  0.1744
99016W        W99880  11.335  19.305  11.612  0.0946 -0.1359 -0.1769
99017W        W99881  28.922   2.547   8.020  0.2540 -0.0262 -0.0504
99018W        W99882  20.059  16.157   2.996  0.0907 -0.0448  0.0603
99019W        W99883  28.558   3.272  25.961  0.1536 -0.0003 -0.2341
99020W        W99884   8.269  25.164  26.906  0.0078 -0.3763  0.1415
99021W        W99885  15.727   8.487   1.559 -0.0100 -0.0277  0.0418
99022W        W99886  11.692  21.825  16.318  0.4558  0.0210  0.0581
99023W        W99887   8.428   2.219  11.539  0.0316 -0.3213 -0.0500
99024W        W99888  12.423   5.016   8.386  0.0411 -0.2787  0.1354
99025W        W99889  23.634  22.244  12.138  0.3755  0.2928  0.0221
99026W        W99890   8.533  20.296  22.653 -0.2954 -0.2390 -0.0426
99027W        W99891  27.358   1.239  12.622  0.2124  0.1486  0.0956
99028W        W99892  22.126  17.616  24.283 -0.0050 -0.0241  0.1222
99029W        W99893   0.139   2.392  12.565 -0.0389 -0.1092  0.1065
99030W        W99894  16.375   9.758  13.379 -0.3204 -0.2859  0.1352
99031W        W99895   9.488  19.177  18.113 -0.3959 -0.0216  0.0171
99032W        W99896  28.018  21.232   3.947  0.3229  0.2260 -0.0783
99033W        W99897  14.376  15.155   5.241 -0.0895  0.2715  0.2622
99034W        W99898  20.085   1.907  19.175  0.1548  0.1927 -0.0360
99035W        W99899  10.339   0.532   9.588  0.0311 -0.1143  0.1941
99036W        W99900   5.984   2.925   1.385  0.0325  0.0827 -0.0928
99037W        W99901  17.859  13.049  14.669 -0.1030  0.2994 -0.0671
99038W        W99902  28.718  14.865   6.140 -0.1555 -0.1157 -0.1669
99039W        W99903   2.280  24.424   7.494 -0.0109  0.0851 -0.1018
99040W        W99904  10.576  20.514   9.596 -0.2185 -0.2412 -0.0469
99041W        W99905  15.807   1.321  18.870 -0.0447  0.1411  0.2261
99042W        W99906   4.677   0.069   4.139  0.2017  0.1662 -0.0034
99043W        W99907  18.003  27.692  16.244  0.0727 -0.0123 -0.0410
99044W        W99908   2.874  17.718   3.988 -0.1707  0.3992  0.0621
99045W        W99909   6.275   0.616   2.819 -0.0482 -0.1798 -0.0974
99046W        W99910  28.560   5.260  15.294  0.0952 -0.1218  0.2006
99047W        W99911  24.047  10.702   8.884 -0.0396  0.0690 -0.2068
99048W        W99912  11.041   3.240  13.320  0.0812  0.1204 -0.2518
99049W        W99913  13.333  22.062  12.817 -0.1078 -0.1021  0.0215
99050W        W99914   2.527  22.434  10.403  0.1766  0.1943  0.3702
99051W        W99915   3.462  24.382   9.033 -0.2767  0.2980  0.0385
99052W        W99916   2.896  28.203   5.407 -0.1419  0.0644  0.0703
99053W        W99917  19.283   1.704  27.652 -0.2282 -0.2956  0.0424
99054W        W99918  24.527  25.089   8.735 -0.2055 -0.1132 -0.1011
99055W        W99919   5.297  17.421  16.349  0.1855 -0.0670  0.0200
99056W        W99920  27.708   8.700  11.393 -0.0511 -0.0276  0.2364
99057W        W99921  13.413   7.123  21.440 -0.2187  0.1013 -0.0295
99058W        W99922  19.916   0.404  10.736 -0.1607 -0.1831 -0.0761
99059W        W99923  24.005  24.290  12.993 -0.0273 -0.2461  0.1548
99060W        W99924  17.570   1.158  11.081  0.1031  0.0756  0.1472
99061W        W99925  15.060   8.941   9.272 -0.2394 -0.0148  0.1391
99062W        W99926  17.728  14.614  28.447  0.0027  0.3953 -0.2706
99063W        W99927  21.490   0.236   3.098  0.1003  0.1947  0.0961
99064W        W99928  10.318  16.399  11.303 -0.0557  0.1336 -0.0738
99065W        W99929  25.734  18.820   3.312 -0.1640  0.1773  0.2289
99066W        W99930  25.494   9.502   2.149 -0.0192 -0.0276 -0.2465
99067W        W99931   6.291   4.710  12.395  0.3188 -0.0131  0.1850
99068W        W99932   1.864   2.251  11.559  0.2657 -0.0425  0.0276
99069W        W99933   0.506  26.837   9.932  0.3154 -0.0027  0.1744
99070W        W99934   5.487   9.182   8.312  0.1362 -0.0705  0.2400
99071W        W99935  12.150  22.709   3.590 -0.1702  0.3690 -0.1746
99072W        W99936  12.351  17.006  13.837 -0.1085 -0.3138  0.1450
99073W        W99937   3.819  17.359   1.588 -0.0808 -0.1466  0.2241
99074W        W99938  22.047  25.578  11.933 -0.1227  0.0217  0.1454
99075W        W99939   9.805   6.411  18.478  0.0257  0.1911  0.2293
99076W        W99940   4.645   9.084  22.855 -0.1720  0.2067 -0.2173
99077W        W99941  28.470   4.663  10.614 -0.4184 -0.0983 -0.0281
99078W        W99942  12.972  10.019  22.836 -0.4197  0.0442  0.1400
99079W        W99943  20.201   9.373  17.201 -0.3564 -0.1458  0.0232
99080W        W99944  23.960  21.667  26.338  0.0457 -0.3751 -0.2659
99081W        W99945  13.859  26.769  26.078 -0.0905 -0.0815 -0.2235
99082W        W99946  21.851  18.206  11.913 -0.1442 -0.1487 -0.1710
99083W        W99947  13.747  12.340  13.354 -0.0493  0.1124 -0.2898
99084W        W99948  23.672  26.517   1.191  0.1526  0.0461 -0.1097
99085W        W99949  20.010  27.468  11.686  0.1131  0.1567 -0.0171
99086W        W99950  22.050  26.840  14.507 -0.1202  0.0623 -0.0141
99087W        W99951  18.599  13.725   7.137  0.2228 -0.3905 -0.0752
99088W        W99952   2.183  25.631   3.332  0.0352  0.0704  0.0717
99089W        W99953  25.877  27.060  22.402 -0.1018 -0.3498  0.3263
99090W        W99954  20.445  28.593   4.902  0.1021  0.0505 -0.0189
99091W        W99955   7.528  24.296  23.004 -0.0124 -0.2385 -0.1325
99092W        W99956  23.253  15.560  24.947  0.1782  0.0744 -0.2027
99093W        W99957  12.369  20.294  12.234  0.0231  0.0044  0.1080
99094W        W99958  11.197  11.446  19.130 -0.4055  0.2198 -0.0475
99095W        W99959   0.032  23.007   8.012 -0.0671 -0.0550 -0.5551
99096W        W99960   6.917  26.574  13.594  0.1424 -0.1382  0.0509
99097W        W99961  23.875   3.242  18.646 -0.0699  0.2242 -0.1802
99098W        W99962   2.115  25.892  20.602 -0.0700 -0.1938 -0.2489
99099W        W99963  28.166   7.440   0.817 -0.0669 -0.4268  0.2167
99100W        W99964  11.702   8.636  20.462  0.0848  0.0159  0.1496
99101W        W99965   0.887   0.628  14.146 -0.0014  0.0623  0.1792
99102W        W99966  19.788   2.194  17.700 -0.0023 -0.1726  0.6274
99103W        W99967   3.137   8.948   1.996  0.1517 -0.0080 -0.1397
99104W        W99968   6.286  28.223  17.937 -0.2266  0.0322 -0.0877
99105W        W99969  20.369  22.053  24.386  0.0145 -0.1057  0.1991
99106W        W99970  12.234  10.126  28.984  0.0342  0.0812 -0.0951
99107W        W99971   4.457  14.711   6.741  0.0116 -0.1537  0.1258
99108W        W99972   4.913  27.442  13.015  0.1139  0.4626 -0.0781
99109W        W99973   2.215  13.533   8.213 -0.0308 -0.0022 -0.0413
99110W        W99974  27.451  25.304  17.742  0.2210 -0.1584 -0.1023
99111W        W99975  14.751   3.946   6.200 -0.1223  0.0279  0.2143
99112W        W99976  20.465  18.286  23.509 -0.2866 -0.0302 -0.1784
99113W        W99977   0.963  23.273  26.942 -0.1156  0.0611 -0.2000
99114W        W99978  12.220  26.695  10.123  0.3117 -0.3486 -0.0340
99115W        W99979  26.508  11.031   8.803  0.1191  0.1685  0.0744
99116W        W99980   8.445   0.375  13.952 -0.0115  0.1383 -0.0466
99117W        W99981   0.943  28.319  19.477 -0.2899  0.1441  0.0502
99118W        W99982  13.987   8.557  22.520  0.0032 -0.0190 -0.2718
99119W        W99983  16.718  23.138   0.408  0.0021  0.1084  0.0776
99120W        W99984  18.230  17.600  22.115 -0.0573 -0.2815 -0.0826
99121W        W99985  10.120  19.175  26.136 -0.1407  0.0606 -0.3389
99122W        W99986   0.894  21.882  14.618  0.2693  0.2833 -0.0816
99123W        W99987   5.647   5.634  24.579 -0.2247 -0.1154  0.0353
99124W        W99988  16.593  10.687  18.586 -0.0089 -0.2622  0.1126
99125W        W99989  20.311  26.518  22.737  0.1418  0.1693  0.2217
99126W        W99990  20.052  28.207  20.164 -0.0857  0.0984  0.0843
99127W        W99991  17.666   2.842   7.883  0.1018  0.0753 -0.0855
99128W        W99992  13.872   0.139   4.776 -0.1701  0.2262 -0.0508
99129W        W99993  26.861  24.973  25.614 -0.0328  0.0675 -0.0017
99130W        W99994   9.109   1.946   1.993  0.0274 -0.2400 -0.1520
99131W        W99995  23.023  22.257   7.797 -0.0312 -0.0297  0.0942
99132W        W99996  14.764  28.389   0.399  0.0421 -0.1626 -0.2845
99133W        W99997  12.395  16.512  25.081 -0.3140  0.1285 -0.1018
99134W        W99998   8.011  15.226  12.788  0.0660 -0.1168 -0.0424
99135W        W99999   3.590  18.460   9.664 -0.1078  0.3562 -0.3325
99136W        W    0  17.522  18.891   3.267 -0.0074  0.2889 -0.0331
99137W        W    1  14.510   2.688  26.489 -0.1132  0.2796 -0.3974
99138W        W    2  22.587   3.345  25.346 -0.0458  0.1825 -0.1743
99139W        W    3   5.395  29.114  25.758  0.0368 -0.0728  0.2410
99140W        W    4   5.987   4.867   7.564 -0.3605 -0.3004 -0.2363
99141W        W    5   5.198  26.836  12.725  0.1523  0.0213  0.1574
99142W        W    6  14.659   4.192   3.158 -0.1114  0.0423  0.0461
99143W        W    7   5.027  17.865   2.179  0.2466 -0.0804 -0.1081
99144W        W    8  16.439  15.610   6.463 -0.1533 -0.0155 -0.0584
99145W        W    9   2.497  26.767  15.875  0.0151  0.1440 -0.0510
99146W        W   10   8.361  21.749   9.436 -0.4057 -0.0449  0.2405
99147W        W   11  18.450   2.526   8.211 -0.2091  0.0623  0.0260
99148W        W   12  25.815  26.690   6.154  0.0791  0.0026 -0.2452
99149W        W   13  20.216   8.302  15.406 -0.2673  0.1257  0.2320
99150W        W   14   1.006  13.461  14.150 -0.2221 -0.0627 -0.0804
99151W        W   15   8.118  21.865  20.695 -0.1075  0.1150  0.1434
99152W        W   16   1.294  27.034  17.299 -0.0522 -0.0953  0.1636
99153W        W   17   7.089   2.726  24.629  0.0387  0.1994  0.3609
99154W        W   18  18.576  18.549   9.363 -0.1152  0.3905 -0.3338
99155W        W   19   0.597   7.952   6.431  0.0315  0.1764  0.2441
99156W        W   20   5.482  23.452  20.414 -0.1557  0.1800 -0.0458
99157W        W   21  19.089   6.583  14.780  0.0514 -0.1123  0.2495
99158W        W   22  22.291  24.632  10.166  0.1479 -0.0057 -0.0117
99159W        W   23   2.163   3.423  12.037 -0.0020 -0.2212 -0.2680
99160W        W   24   3.005   8.600  13.943 -0.3498  0.4830  0.0457
99161W        W   25   0.051  22.483  13.132 -0.5033  0.0948  0.2503
99162W        W   26  10.331   2.994  18.705  0.2356 -0.0187  0.0262
99163W        W   27   2.269  25.982   1.457  0.0406 -0.2354 -0.4621
99164W        W   28  15.496  28.812   7.091 -0.0248  0.1157 -0.1438
99165W        W   29  27.646   1.837  19.485  0.0937  0.2198 -0.1149
99166W        W   30  10.749  24.777  22.660 -0.2257 -0.0320  0.1875
99167W        W   31   2.444  24.208   3.989 -0.0123  0.2073 -0.1752
99168W        W   32  26.958  26.530  21.035  0.0581  0.1901  0.0109
99169W        W   33  11.080  15.099  20.570  0.0254  0.1275 -0.1299
99170W        W   34  20.438  11.556   8.882  0.1885 -0.0164  0.2037
99171W        W   35  16.154  20.659  10.086  0.2473 -0.3008  0.2616
99172W        W   36  18.186   0.347  19.021  0.1142 -0.0683 -0.2065
99173W        W   37  23.465   3.241  15.255  0.1081  0.2308  0.0130
99174W        W   38  14.690   2.061   3.566 -0.2687  0.1392 -0.0752
99175W        W   39   6.295  23.318  14.023  0.0779  0.1167  0.0492
99176W        W   40  26.171  13.191  10.955  0.0317 -0.2296 -0.1564
99177W        W   41  21.910  12.552  16.093  0.0669 -0.0687  0.1078
99178W        W   42   1.366  12.790  19.778  0.2127 -0.0921 -0.1929
99179W        W   43  20.550  12.690   7.175  0.4748  0.1467  0.0886
99180W        W   44  23.229  12.741  16.157 -0.0227 -0.0750  0.1104
99181W        W   45  22.041   5.359  19.904 -0.0524 -0.0424 -0.2272
99182W        W   46  26.000   9.541   6.405 -0.2649 -0.2393 -0.0532
99183W        W   47  23.169   0.672  20.953 -0.0571  0.0288 -0.0359
99184W        W   48   3.164  15.038  17.305  0.0192 -0.0266 -0.2647
99185W        W   49   2.397  17.013  14.052 -0.2317  0.2158 -0.2497
99186W        W   50  11.652   2.301  24.836  0.0488 -0.0796  0.4471
99187W        W   51  17.915  11.071  26.665 -0.0444  0.2195  0.0701
99188W        W   52  26.434   1.735  26.679 -0.0336  0.2045 -0.0500
99189W        W   53  25.729   4.976  28.878 -0.2738 -0.1385  0.2306
99190W        W   54   8.910  23.465   1.482 -0.1331  0.2572  0.2548
99191W        W   55   1.441  20.166  15.779 -0.3941 -0.1458 -0.3144
99192W        W   56  23.865  28.114  14.471 -0.0145  0.0223 -0.0885
99193W        W   57  15.914  22.564  24.721  0.1029  0.1475  0.0201
99194W        W   58   4.966   6.521   4.145  0.0598 -0.0204 -0.1934
99195W        W   59   0.801  20.468  19.463  0.0572  0.1687  0.0613
99196W        W   60  11.484  22.885  15.009 -0.1531  0.1464  0.2067
99197W        W   61   9.633   1.221  18.827  0.2701 -0.0492  0.0778
99198W        W   62  24.190  22.994  17.327  0.0453  0.0844  0.0618
99199W        W   63   4.994  16.239   8.431 -0.0247  0.3068  0.1213
99200W        W   64  16.867   3.986  20.231 -0.3615 -0.3246  0.2473
99201W        W   65   5.095   8.350   4.695 -0.2600  0.0068  0.1379
99202W        W   66   4.784  10.897  26.109  0.0871  0.0109 -0.0907
99203W        W   67   0.246  25.277   8.519  0.4006  0.1453 -0.4779
99204W        W   68   7.642  12.957  11.584  0.0241  0.0004  0.0271
99205W        W   69   3.619  28.223  16.934  0.1346  0.0135 -0.3488
99206W        W   70  19.720  25.783  23.617 -0.0606 -0.3312 -0.0271
99207W        W   71   2.835  19.557  24.050 -0.1501  0.0893  0.1523
99208W        W   72  15.339  23.180  10.691 -0.1118 -0.1159  0.1997
99209W        W   73   0.281   7.130   9.092  0.2251 -0.0075 -0.1338
99210W        W   74   6.563  25.402   6.452 -0.3415  0.0815 -0.2030
99211W        W   75  16.351   9.421  23.272  0.3326 -0.0109  0.1736
99212W        W   76  20.754  17.594  25.603 -0.1342  0.6801 -0.0122
99213W        W   77  18.073  22.163   5.766 -0.1978  0.0366  0.0119
99214W        W   78   6.105  26.726   6.019 -0.1169 -0.2710 -0.5014
99215W        W   79  26.922   5.807  18.961  0.2081  0.0661  0.0495
99216W        W   80  24.618  25.293  16.847  0.0585  0.2558  0.1160
99217W        W   81   5.644  28.180  11.383  0.0519 -0.0032 -0.1293
99218W        W   82  20.308  23.511  15.413  0.2520 -0.0276 -0.1198
99219W        W   83  25.887  11.644   8.199  0.0255  0.1275 -0.3407
99220W        W   84  16.456  22.436   7.313  0.1322  0.1649 -0.0139
99221W        W   85   0.208   9.323  20.306 -0.2438 -0.0482  0.2444
99222W        W   86   7.511  15.060  15.006 -0.0528  0.0666 -0.0344
99223W        W   87   2.157   6.469   3.608 -0.0054  0.0813 -0.1641
99224W        W   88  24.653  13.528   7.092  0.3349  0.0097 -0.0351
99225W        W   89  11.885  26.545  25.117  0.1546  0.0555 -0.0552
99226W        W   90  17.016  27.486  28.956 -0.2802  0.2558 -0.2240
99227W        W   91  12.225  22.806  26.080 -0.0662 -0.1130  0.3196
99228W        W   92  17.325  14.031  15.324  0.5344  0.1863 -0.0733
99229W        W   93  17.799  17.275  28.877  0.0847  0.0965  0.1427
99230W        W   94  28.782   6.313   7.716 -0.1867 -0.2965  0.1401
99231W        W   95   0.352  20.066  25.428  0.0193 -0.2359 -0.0282
99232W        W   96   3.244   0.663  14.151  0.0198  0.2591 -0.1405
99233W        W   97  13.576  23.100  19.695  0.1018 -0.1475 -0.2311
99234W        W   98  16.789   0.114   9.164 -0.0413 -0.3764 -0.0972
99235W        W   99  27.546   1.975  19.011 -0.0949 -0.2918  0.1172
99236W        W  100  15.443  26.740   9.271 -0.0484  0.3040  0.2465
99237W        W  101  23.431  15.495  12.356  0.1428  0.4096  0.0132
99238W        W  102  26.033  13.637  14.241  0.0704 -0.1039 -0.2399
99239W        W  103  20.357  20.739  28.532  0.2054  0.0750 -0.3597
99240W        W  104  26.481  12.390  27.642  0.1647 -0.2574 -0.5264
99241W        W  105  21.570  16.067  11.095 -0.2855 -0.2754  0.0409
99242W        W  106  25.630   9.606  13.531  0.0603 -0.3409  0.2745
99243W        W  107   1.143  20.652   4.163 -0.2253  0.0619  0.0363
99244W        W  108   0.798  26.233  12.793  0.3500  0.0845  0.1779
99245W        W  109  14.336   1.266   4.978 -0.0055 -0.1413  0.3778
99246W        W  110  25.262  28.737   6.501 -0.1903  0.7959 -0.2224
99247W        W  111  24.378  15.194  24.079  0.2337  0.4375  0.3568
99248W        W  112  29.071  28.531   1.708  0.0493  0.1911 -0.1571
99249W        W  113   1.476  22.114  27.228 -0.0154 -0.1036  0.4221
99250W        W  114   2.936   1.437  12.985 -0.1261  0.1722 -0.1391
99251W        W  115   3.671  14.462  17.862 -0.1090 -0.0391  0.1439
99252W        W  116  16.979  15.238   7.190  0.2971 -0.1262 -0.0884
99253W        W  117  20.083  22.701   8.945  0.1776 -0.3932 -0.0730
99254W        W  118  27.606  16.655  25.115  0.1453  0.1154  0.3666
99255W        W  119  12.441   8.355  17.397  0.1064  0.1907 -0.0080
99256W        W  120   8.806  22.472   0.947  0.1304  0.3527  0.3485
99257W        W  121  22.513  19.491  17.732  0.0353 -0.0285  0.0606
99258W        W  122  18.111  13.245   3.327  0.2273  0.0793 -0.0598
99259W        W  123  11.802  18.272  11.849 -0.0349 -0.1354  0.1322
99260W        W  124  21.148  19.863   3.742 -0.0622 -0.1232  0.1899
99261W        W  125   8.115   1.228   3.454  0.1031  0.2855  0.1955
99262W        W  126  10.306   4.218  13.421  0.1412 -0.0424  0.1271
99263W        W  127  22.672  10.778   3.264  0.0120 -0.2219 -0.2579
99264W        W  128  17.726  27.047   6.525 -0.2117 -0.2521 -0.1200
99265W        W  129  10.793  22.378   9.296  0.1036 -0.1297 -0.1924
99266W        W  130   9.525  14.405   0.131  0.1980 -0.3021 -0.0183
99267W        W  131  27.936   1.008  14.139 -0.0263  0.0802 -0.0808
99268W        W  132  26.089  16.641  11.847 -0.2456  0.0967 -0.3256
99269W        W  133   4.290  18.119   9.489 -0.0494 -0.0938 -0.0371
99270W        W  134  11.390  15.632   9.994 -0.1206  0.1867 -0.1068
99271W        W  135  11.019   4.883  23.563  0.0717 -0.0209 -0.1324
99272W        W  136  17.239  25.389   1.997 -0.1868 -0.1899 -0.0591
99273W        W  137  26.070  19.789  16.288 -0.1057  0.1305  0.2393
99274W        W  138  13.385  20.673   7.859  0.1025  0.2334  0.0772
99275W        W  139  22.671   0.117  25.884 -0.0521 -0.1296 -0.4035
99276W        W  140  13.093  12.993  26.679 -0.2228  0.0618  0.0360
99277W        W  141  27.527   2.638   1.561  0.3697  0.0683  0.0585
99278W        W  142   5.986  24.895   6.873  0.1025  0.3673  0.3415
99279W        W  143   3.107  27.649   4.110 -0.2078  0.2500 -0.0899
99280W        W  144   6.577  24.498  18.098 -0.0734  0.0266 -0.0771
99281W        W  145   6.937   1.715   3.447 -0.0030 -0.2511  0.1747
99282W        W  146   7.005  26.886  22.613  0.0660 -0.4148 -0.0043
99283W        W  147  10.849   7.961   2.801  0.0953  0.5492  0.2123
99284W        W  148  23.610   0.308   2.222 -0.1050 -0.0946  0.0806
99285W        W  149  28.344   5.180   0.962  0.0697  0.1543  0.1562
99286W        W  150  25.003  13.457  12.003 -0.0732 -0.1614 -0.0680
99287W        W  151   6.597  12.424  22.996  0.1927  0.0475  0.1434
99288W        W  152  20.107   0.147  16.466 -0.1057 -0.1511 -0.2204
99289W        W  153  27.648   0.227  13.646  0.0201  0.1780  0.2635
99290W        W  154  10.382  26.171  26.256 -0.1444 -0.0761  0.1699
99291W        W  155  27.950  25.185  18.068  0.0567  0.0715  0.1385
99292W        W  156  24.924   9.110  12.505  0.1420  0.0272  0.1080
99293W        W  157   3.290  15.419  26.077  0.0170 -0.2389 -0.1325
99294W        W  158  21.753  18.825   6.911  0.2548  0.0867 -0.1375
99295W        W  159  16.285  18.615  17.345  0.1367 -0.3549 -0.3451
99296W        W  160  13.377   9.517  11.175  0.3113 -0.1033  0.0554
99297W        W  161  27.405  16.381  12.248 -0.1963 -0.3490 -0.2419
99298W        W  162   6.968   0.551  19.721  0.0536 -0.0380  0.1659
99299W        W  163  19.998   8.786  20.666  0.1078  0.1662  0.2346
99300W        W  164  13.687  11.080  13.897 -0.1457 -0.0220  0.2736
99301W        W  165  23.148  15.056  20.449 -0.2752 -0.1161  0.0455
99302W        W  166  15.990   2.645   5.564 -0.1064  0.1620 -0.0482
99303W        W  167  24.523   9.650   8.083  0.2589  0.0593 -0.1517
99304W        W  168   7.991  24.942   5.126  0.1067  0.1484 -0.1649
99305W        W  169  22.464  18.351   2.931  0.0924 -0.0141 -0.3681
99306W        W  170   7.172   1.559  10.032 -0.0336  0.1200  0.0792
99307W        W  171  22.268  20.714  11.188  0.3115  0.0330  0.0636
99308W        W  172  15.610  28.153  27.551 -0.3673 -0.0603  0.0444
99309W        W  173   9.227   1.488   1.909  0.1575  0.4594  0.0281
99310W        W  174  11.673  24.768  15.290  0.2499  0.2710  0.1220
99311W        W  175  12.229   6.478  21.085  0.2534  0.0834 -0.0403
99312W        W  176  15.381   5.608  24.589  0.1330  0.1462  0.0703
99313W        W  177  13.728   4.193  14.548  0.0845  0.1119 -0.0742
99314W        W  178   9.997  28.856   9.765 -0.0247  0.1974 -0.0752
99315W        W  179  14.890  18.632   6.385  0.0628 -0.0514  0.0179
99316W        W  180  12.706  17.637  15.427 -0.1634  0.2587 -0.1691
99317W        W  181  26.204   9.029   6.382 -0.0535 -0.0268  0.0261
99318W        W  182  15.018   2.852   8.352  0.0550  0.2678 -0.0673
99319W        W  183   1.326  25.946   1.299 -0.0759 -0.0298  0.1415
99320W        W  184  21.776   7.781   3.671  0.1122 -0.4231 -0.3140
99321W        W  185  26.872  14.821   2.688  0.1782 -0.2420 -0.0357
99322W        W  186  21.710  22.060  22.619  0.0327  0.1086  0.1673
99323W        W  187   8.451  24.107  22.051 -0.0759 -0.1163 -0.0350
99324W        W  188  12.177  19.005  10.178  0.3243 -0.1966  0.1032
99325W        W  189   4.527  15.598   5.927  0.1122 -0.0147 -0.1321
99326W        W  190   9.687   9.038   7.777  0.4652 -0.0217 -0.0218
99327W        W  191  20.922  15.069  18.996  0.2283  0.0919  0.0681
99328W        W  192   1.507  17.008  12.180 -0.2164 -0.3236 -0.1695
99329W        W  193  19.577  27.926   8.131  0.0740  0.0567 -0.0260
99330W        W  194   3.554   4.980   7.665  0.2182 -0.0597 -0.1944
99331W        W  195   9.295  15.862   5.617  0.0984  0.1240 -0.2140
99332W        W  196  22.918  22.800   4.975  0.1065  0.0753  0.2230
99333W        W  197  28.198   5.033  14.060 -0.1147 -0.0014  0.2008
99334W        W  198  22.744  17.657  24.809  0.1057  0.0626  0.1671
99335W        W  199  22.417  18.028   3.426  0.0026 -0.1388  0.2093
99336W        W  200   2.715   4.437   4.588  0.1286 -0.1951 -0.2369
99337W        W  201  26.713  10.945  20.490 -0.1428 -0.4027 -0.0651
99338W        W  202   7.427   1.323  20.496 -0.0798  0.3696  0.1672
99339W        W  203  20.463   0.307  12.858  0.1286 -0.1321  0.1911
99340W        W  204  26.865  27.287   5.296  0.0045 -0.0240  0.1128
99341W        W  205  27.748  15.956  14.977 -0.1619  0.1247 -0.0914
99342W        W  206  20.900   3.057  16.717 -0.0033 -0.1473 -0.0009
99343W        W  207   6.154   7.640  25.626 -0.2183  0.0369 -0.2388
99344W        W  208   0.815  20.814   1.490  0.2724 -0.0250  0.0268
99345W        W  209  25.024   2.564  28.694  0.1174  0.3160  0.3491
99346W        W  210  12.263  24.712   2.901  0.0913 -0.2167 -0.0425
99347W        W  211  17.720  28.145  11.527 -0.1354  0.0837 -0.1475
99348W        W  212  14.598  22.050   9.382  0.0396 -0.2027  0.3069
99349W        W  213  16.749  26.485   9.016  0.2188 -0.0142 -0.0636
99350W        W  214  20.488  26.768  20.439  0.2531 -0.2659 -0.2989
99351W        W  215  28.997  16.083  10.417  0.2812  0.0070 -0.0946
99352W        W  216  15.661  16.221   6.304  0.2021  0.0206  0.0833
99353W        W  217   2.086  28.009  11.429  0.0017  0.0260  0.0103
99354W        W  218   1.999  11.464   1.715 -0.0153  0.1851 -0.3226
99355W        W  219   3.079  26.800  15.032  0.2039  0.0348 -0.0227
99356W        W  220  13.556   4.094  28.909 -0.0710  0.2141 -0.0139
99357W        W  221  19.884  18.302  20.365  0.1860 -0.0618  0.2640
99358W        W  222  16.024  24.645   0.268 -0.2978 -0.2703  0.1219
99359W        W  223   2.377   3.175   0.318  0.3094  0.2326 -0.2595
99360W        W  224  13.576  19.861   3.761  0.4095 -0.1610 -0.0027
99361W        W  225  17.976  26.303  22.241  0.2575  0.0580 -0.3356
99362W        W  226   4.497  11.530   4.115 -0.3845  0.1850 -0.3450
99363W        W  227  27.894   6.413   7.988  0.2849  0.2853  0.2473
99364W        W  228  16.786  23.380  25.745 -0.1022 -0.1336 -0.2853
99365W        W  229   9.270  12.667  13.326  0.0656  0.1347 -0.0711
99366W        W  230  26.403   1.125  21.209 -0.3718 -0.2279 -0.2590
99367W        W  231   4.622  23.263   9.972 -0.2032  0.2996 -0.3106
99368W        W  232  27.430  19.696   7.083  0.1028  0.0017  0.1511
99369W        W  233  14.252   1.793  12.959 -0.1058 -0.2104  0.3631
99370W        W  234  13.735  20.338  26.008  0.0616 -0.2108  0.0542
99371W        W  235  14.251  25.832  11.846  0.0532 -0.1980 -0.0267
99372W        W  236  10.709   3.372  24.147  0.3043 -0.0597  0.3526
99373W        W  237  22.271  24.130  10.502  0.1154  0.4026 -0.2057
99374W        W  238  26.386  24.810   3.597  0.2012 -0.1118  0.1890
99375W        W  239   9.247  20.918  20.595 -0.0714  0.1617 -0.2622
99376W        W  240  28.712  22.686  14.391 -0.2486 -0.2285 -0.2364
99377W        W  241  10.431  16.978  13.439  0.0110  0.1397  0.1134
99378W        W  242  12.777  19.313   5.841 -0.0494  0.0443  0.1638
99379W        W  243  18.063  22.966   3.280  0.0219  0.0767 -0.1546
99380W        W  244  16.430   8.795  15.872 -0.1424  0.1398 -0.0977
99381W        W  245  25.641  24.159  12.764  0.1565 -0.0084  0.0511
99382W        W  246   5.272  23.743  27.148  0.2836 -0.1368 -0.3336
99383W        W  247   3.791  15.525   2.496 -0.0208 -0.0705 -0.2016
99384W        W  248  10.237   4.290  24.136 -0.1711  0.0545  0.0291
99385W        W  249   9.766  24.254   6.977 -0.0406  0.0961  0.1481
99386W        W  250  16.528  22.491  23.049 -0.1267 -0.1093  0.1046
99387W        W  251  24.824  23.375   2.023 -0.0262  0.0945  0.1529
99388W        W  252  10.833  20.340   3.414  0.0824 -0.2042  0.1211
99389W        W  253  15.514  26.642   6.990 -0.4475 -0.0139  0.1026
99390W        W  254  15.308   3.991   9.495  0.1742  0.1348 -0.1451
99391W        W  255  12.042  28.808   8.330 -0.2385 -0.1285 -0.1853
99392W        W  256   1.435   1.771   4.717  0.2215  0.0199  0.1868
99393W        W  257  21.046  12.338  20.108 -0.1836  0.1399  0.0573
99394W        W  258   0.136  16.876   7.292  0.1384 -0.1226  0.2311
99395W        W  259   7.479  21.399  14.090 -0.1092  0.0858  0.0149
99396W        W  260  18.779   2.769  20.776  0.1807 -0.0646 -0.1443
99397W        W  261  17.761   2.386  18.030 -0.1556  0.2235  0.0331
99398W        W  262   1.605  15.656  13.830 -0.5001  0.1229 -0.0482
99399W        W  263  13.498  14.100   8.540 -0.3455  0.1884 -0.0592
99400W        W  264  18.212  26.518  11.664  0.3202 -0.0369 -0.4708
99401W        W  265  27.669   9.373  16.956 -0.0691  0.0249  0.0076
99402W        W  266   2.942  22.137  27.739  0.0778  0.1026 -0.0598
99403W        W  267  26.832  14.360   2.544  0.0513 -0.2038  0.3345
99404W        W  268  14.398   7.110  26.584 -0.0099 -0.1451  0.2354
99405W        W  269  25.109  19.766  14.373 -0.1669 -0.0933 -0.0725
99406W        W  270   8.577  27.451   5.497  0.0057 -0.0329 -0.0544
99407W        W  271  19.462  18.862   9.146  0.0252  0.1134  0.0024
99408W        W  272  10.077   9.888  10.035 -0.0868 -0.0029 -0.0802
99409W        W  273  20.072   7.655   9.360  0.2667 -0.2201 -0.3024
99410W        W  274  23.868   6.388  24.115  0.1094  0.0088 -0.1640
99411W        W  275  28.426  16.300  23.091  0.1029  0.2332 -0.3131
99412W        W  276   0.529   1.767  24.181  0.0939  0.0849  0.2509
99413W        W  277  26.878  16.225  11.587  0.0791 -0.0548 -0.0024
99414W        W  278   4.978  15.270  22.461 -0.0460  0.0443 -0.1817
99415W        W  279  11.249  28.042  11.455  0.1972  0.1073  0.2169
99416W        W  280  15.865  18.453  12.197 -0.1216 -0.3715  0.0913
99417W        W  281   7.249  16.659  28.263 -0.0916 -0.2752 -0.2066
99418W        W  282   9.921   1.515   1.259 -0.0597 -0.1003  0.1877
99419W        W  283  23.257  26.191   9.784  0.0439  0.2965 -0.0196
99420W        W  284   6.165  10.090  25.852 -0.0564 -0.2919  0.0172
99421W        W  285  20.157  24.436  25.306 -0.0412 -0.1715  0.2185
99422W        W  286  28.992  15.879  27.863  0.0947  0.1392  0.1312
99423W        W  287  14.646  22.467  10.130 -0.1226 -0.5491 -0.0468
99424W        W  288  16.222  16.702  16.630  0.3127  0.2453  0.0591
99425W        W  289   3.144  21.649   0.170 -0.1529 -0.1397  0.1657
99426W        W  290   6.390  23.891   9.544  0.0201 -0.1568 -0.1315
99427W        W  291   0.958  11.527   4.599  0.0323  0.5336 -0.1679
99428W        W  292  16.015  22.390  19.101 -0.3370 -0.1359  0.1408
99429W        W  293  21.556   3.938  24.726  0.0650  0.0765  0.0993
99430W        W  294  10.140  18.480  10.257  0.1213 -0.2129  0.2354
99431W        W  295   4.607   6.379  26.117  0.0626  0.1566 -0.0439
99432W        W  296  11.040  25.606  13.033  0.0373 -0.0732  0.1936
99433W        W  297  11.744   8.002   4.867  0.3293  0.2545  0.2288
99434W        W  298   9.440  12.655  19.568 -0.1410 -0.0814  0.1196
99435W        W  299   6.990   7.375  20.270  0.1600  0.0474 -0.2558
99436W        W  300   3.563  20.924  14.856 -0.1570 -0.0449  0.0868
99437W        W  301  12.362  10.684   5.299  0.0281 -0.2094  0.1422
99438W        W  302  23.382  21.878   5.119  0.1545 -0.2340  0.2213
99439W        W  303   9.097  28.501   8.614 -0.0271  0.1617 -0.2070
99440W        W  304   0.324  13.308  18.277  0.5571  0.2226 -0.1757
99441W        W  305  21.959  15.284   1.036 -0.3551  0.1961  0.0609
99442W        W  306  22.519  16.738  17.308  0.1234 -0.0712 -0.0635
99443W        W  307  16.780  20.992  13.496 -0.3177  0.0456 -0.0864
99444W        W  308  27.749  21.845  29.123 -0.2473 -0.5346  0.3946
99445W        W  309   8.080  21.770  13.156 -0.1286 -0.3692 -0.3180
99446W        W  310  12.355   9.744  11.752 -0.1873 -0.2865  0.0785
99447W        W  311  18.440   0.025   7.847  0.2620  0.1876 -0.3781
99448W        W  312   5.372   8.478   0.569  0.0344 -0.2349  0.2122
99449W        W  313  23.204  18.375  20.883 -0.1846 -0.2233  0.3198
99450W        W  314  11.918   3.719  14.812  0.0104 -0.0338  0.3258
99451W        W  315  10.278  24.923   4.207 -0.0605  0.1895  0.0700
99452W        W  316  23.143   6.279  22.433 -0.2645 -0.3865  0.0447
99453W        W  317   7.213  27.642  17.951 -0.0921 -0.2103 -0.1175
99454W        W  318   2.428  11.710  13.411 -0.1768 -0.0312 -0.2394
99455W        W  319  21.765  24.051  21.941  0.1031  0.4624 -0.0746
99456W        W  320  23.599   9.011   4.208  0.0027 -0.1658  0.1880
99457W        W  321   5.343   0.473   0.356 -0.0181  0.0336  0.0878
99458W        W  322   1.958   4.029   4.824 -0.1474 -0.1169  0.0408
99459W        W  323   0.641  26.178   4.524 -0.0681  0.1431  0.0280
99460W        W  324  24.249  15.325  10.883 -0.1098  0.0620 -0.1343
99461W        W  325  16.730  19.915  14.616 -0.1822 -0.3460 -0.0946
99462W        W  326  16.374  26.132  24.575  0.2025 -0.0144 -0.1519
99463W        W  327  12.544  27.808   8.710  0.0505  0.0582  0.0301
99464W        W  328  13.654   4.532   4.724 -0.1008 -0.1627  0.1272
99465W        W  329  18.480  12.265  18.847  0.1564 -0.2284  0.1977
99466W        W  330   8.482  24.002  16.947 -0.2994 -0.2694  0.1030
99467W        W  331   1.803  24.489  14.763  0.0139 -0.1429 -0.1026
99468W        W  332  12.998  18.600   6.182  0.0206  0.1315 -0.1859
99469W        W  333  15.886   4.222   6.844  0.0976  0.2806  0.0646
99470W        W  334   0.960   0.425  12.446  0.0867 -0.2333 -0.0273
99471W        W  335  26.948  14.385  13.268 -0.0353 -0.2131 -0.2552
99472W        W  336  18.722   5.097  10.605  0.0852  0.1047  0.0925
99473W        W  337  12.650  22.881   1.666  0.0318  0.1410  0.1701
99474W        W  338  28.137   2.260  11.766 -0.2666 -0.0849  0.1185
99475W        W  339  22.316  22.017  12.657  0.0130  0.0180 -0.0226
99476W        W  340  26.502   8.955  15.561  0.1582  0.0838  0.1561
99477W        W  341   5.332  19.353  10.235  0.0307 -0.1762 -0.0472
99478W        W  342  17.934  25.830  10.956  0.5234  0.0995  0.0801
99479W        W  343   7.480  22.399  11.936 -0.1124  0.1235  0.0594
99480W        W  344  23.146  28.417  27.418  0.0332  0.1907  0.0880
99481W        W  345   6.011  12.185   7.695 -0.1098 -0.0288  0.2379
99482W        W  346   4.599   7.566   8.120  0.2459  0.0462  0.1523
99483W        W  347  22.896  19.070   6.284  0.0266  0.1113  0.2181
99484W        W  348   5.242  23.491  27.847 -0.1551 -0.0998  0.0700
99485W        W  349   7.616  20.902   2.207  0.1655 -0.1601 -0.3736
99486W        W  350  19.398  16.995  28.366 -0.3434  0.0851 -0.0768
99487W        W  351   5.296   5.224   4.100 -0.1031  0.2736  0.0225
99488W        W  352  29.065   5.195  16.246 -0.3741  0.1580 -0.2075
99489W        W  353  23.136   8.312  15.759  0.3015 -0.2415  0.0528
99490W        W  354  28.781  26.988  16.590 -0.1583 -0.1146  0.2282
99491W        W  355   8.680  23.668  22.305 -0.0423 -0.0056  0.1448
99492W        W  356  29.008  21.917   0.786 -0.1805 -0.1067  0.1226
99493W        W  357   9.247   0.223  15.263 -0.0050 -0.2554  0.2131
99494W        W  358   5.230  17.441  11.553  0.1425 -0.0744  0.0268
99495W        W  359   5.721  19.395  14.109 -0.0263 -0.2047  0.1960
99496W        W  360  23.545   5.139   5.322 -0.2637 -0.1100 -0.3191
99497W        W  361   7.919  17.547  24.573 -0.2200  0.1005 -0.2380
99498W        W  362  19.122   1.971  19.083  0.1136 -0.5147 -0.0739
99499W        W  363  14.644  12.754  25.193 -0.1346 -0.2980  0.0972
99500W        W  364   9.316  28.790  23.204 -0.1127  0.0594  0.1624
99501W        W  365  28.767   0.019  12.356 -0.2641 -0.0605 -0.0573
99502W        W  366  15.859  12.856   7.175  0.2285  0.1688 -0.0082
99503W        W  367   1.778  14.604  10.945 -0.2835  0.1636  0.0117
99504W        W  368  25.755  24.423  14.979  0.0410  0.1181 -0.2749
99505W        W  369   2.458  15.646  17.781 -0.1507  0.3209 -0.1365
99506W        W  370   9.081  28.133   3.512  0.2851 -0.4392 -0.1189
99507W        W  371   1.459  12.205   9.413 -0.1015  0.2294  0.1422
99508W        W  372  10.356  18.819   9.290  0.0190  0.0879  0.0800
99509W        W  373  20.283  10.752  15.102  0.3217  0.0825 -0.5046
99510W        W  374   8.743  15.640   8.826 -0.0003 -0.2638  0.1208
99511W        W  375  12.054   5.983  12.945 -0.0276  0.0086 -0.0982
99512W        W  376   5.282   7.552  10.580  0.0510  0.0444 -0.0672
99513W        W  377  10.947  13.190  18.382 -0.0366 -0.0549  0.1690
99514W        W  378  22.768  25.231  14.739  0.0431  0.2008  0.0955
99515W        W  379  26.014  10.064  17.256 -0.0359  0.2057 -0.0388
99516W        W  380  23.951  20.621   3.213 -0.2018  0.0056 -0.0413
99517W        W  381   0.213  22.473  21.554  0.3395 -0.0430  0.1605
99518W        W  382  21.531  25.665  11.919 -0.0904 -0.1409  0.2263
99519W        W  383  26.724  27.094   6.757  0.0495  0.1097  0.1515
99520W        W  384  17.313  24.358  10.451 -0.3675 -0.0298  0.1079
99521W        W  385   3.181  22.920  25.497  0.0386 -0.0580 -0.2181
99522W        W  386   9.891  27.260   5.481 -0.3332 -0.1591  0.0475
99523W        W  387   3.019  11.369  22.086 -0.3272  0.3356  0.2503
99524W        W  388  11.692   5.703   8.388 -0.2392 -0.2303 -0.3648
99525W        W  389  19.134   7.372  21.758 -0.1620 -0.0702  0.2292
99526W        W  390  18.674   1.121  13.903  0.0615 -0.1620 -0.0681
99527W        W  391  27.022  16.700  28.488  0.1394  0.0821 -0.2616
99528W        W  392  23.199   0.309   1.904  0.1596  0.0915  0.2362
99529W        W  393   1.190  17.419   8.176  0.0779  0.0996 -0.0061
99530W        W  394   7.375  27.647  10.400  0.0866 -0.1979 -0.2327
99531W        W  395  19.965  28.683   9.299 -0.1844 -0.3380  0.2392
99532W        W  396  17.841  22.331   7.452 -0.2441  0.1441  0.0077
99533W        W  397  17.549  24.040  13.652 -0.0177  0.1549  0.3436
99534W        W  398   0.739   1.832   9.583  0.0977  0.0452  0.0574
99535W        W  399   3.501   7.752  19.573 -0.1687 -0.1765  0.2587
99536W        W  400  26.595  15.015   4.601 -0.1341  0.1548 -0.0107
99537W        W  401  28.524  23.145  12.823 -0.1502  0.0732  0.1815
99538W        W  402  13.255  23.128   7.226 -0.1817  0.3679  0.0974
99539W        W  403  23.004  28.876  13.524 -0.2414  0.0008 -0.1935
99540W        W  404  14.339  28.942   3.432 -0.2179 -0.2900  0.0267
99541W        W  405  27.234  19.528   1.779 -0.1892 -0.1046  0.2751
99542W        W  406   4.940   7.527  16.025 -0.0431 -0.0140 -0.0329
99543W        W  407  15.479   2.610   8.904  0.1419 -0.1020  0.0183
99544W        W  408   0.644  24.260  11.983  0.0461  0.0056  0.2773
99545W        W  409  17.812  23.019   4.656 -0.1887  0.1710  0.0914
99546W        W  410   5.672  20.940  25.101 -0.4332  0.0286  0.0997
99547W        W  411   4.944  11.841  28.247 -0.1580  0.0295 -0.2041
99548W        W  412  13.826   3.507  21.632 -0.3175 -0.0780 -0.2636
99549W        W  413  18.869   2.739   0.370  0.1580  0.0284 -0.0974
99550W        W  414  19.923  22.580  15.353 -0.1511 -0.1586 -0.0359
99551W        W  415  21.640  28.500   3.517  0.2113 -0.0489  0.3144
99552W        W  416  16.175  23.671  13.627 -0.1429  0.2353  0.1689
99553W        W  417  24.179  21.257  17.581  0.2707 -0.0393 -0.0362
99554W        W  418  16.437  11.795   6.194  0.4464 -0.1856 -0.0413
99555W        W  419  26.572  13.288   5.031 -0.3474  0.0035  0.1073
99556W        W  420  15.034  13.176  17.357 -0.3098  0.0981 -0.1851
99557W        W  421   1.321  23.625  14.976 -0.1837 -0.3175  0.1814
99558W        W  422  16.953  11.138   7.452 -0.0875  0.1277 -0.0141
99559W        W  423   0.314  19.765   0.758 -0.0040 -0.0108 -0.1213
99560W        W  424  21.822  26.025   7.833  0.0514  0.1257  0.0725
99561W        W  425   0.199  15.102   1.414  0.2507 -0.0760 -0.0911
99562W        W  426   0.149  20.376  10.121 -0.1062  0.1456  0.1075
99563W        W  427  24.695  13.773  21.234 -0.1079  0.1172 -0.0785
99564W        W  428  14.715  23.163   8.650 -0.0271  0.3658 -0.1739
99565W        W  429  26.013   4.699   3.269 -0.2671 -0.1499 -0.0087
99566W        W  430   5.764  14.085   8.789 -0.0750  0.1542  0.1066
99567W        W  431   7.404   0.376  11.317 -0.0130 -0.1803  0.2611
99568W        W  432  15.545   0.526   6.180 -0.2904  0.3743  0.3320
99569W        W  433   7.262  26.815   2.869  0.1525  0.0710 -0.1311
99570W        W  434   1.115   3.923  19.702  0.1273 -0.1563 -0.1643
99571W        W  435  17.373  28.073  15.176 -0.0140  0.1758  0.0549
99572W        W  436  26.874  20.479  23.837  0.0099  0.1620  0.1057
99573W        W  437   4.132  27.343  28.752 -0.1276  0.0520  0.0606
99574W        W  438   2.143   5.131  13.135  0.1649  0.2510 -0.0643
99575W        W  439   4.841   9.109  18.881  0.0130  0.0636 -0.2282
99576W        W  440   0.269  20.432  27.544  0.1651  0.0107  0.2477
99577W        W  441   3.542   4.198  17.459 -0.2948  0.1490  0.0368
99578W        W  442  19.068  21.689   6.375  0.0939  0.1076 -0.0966
99579W        W  443  25.079   6.960  24.483 -0.0858 -0.1882  0.0593
99580W        W  444  16.112  16.080  24.967  0.1076 -0.3529  0.0017
99581W        W  445  12.474   3.077  21.907  0.1925  0.1887  0.0754
99582W        W  446  25.363  10.874  13.868 -0.0554  0.1694  0.0358
99583W        W  447  19.155  13.352  12.514 -0.1754  0.2518  0.1045
99584W        W  448  17.169  24.777   4.338 -0.1442 -0.0008  0.2832
99585W        W  449  28.405  17.100   7.603  0.0617  0.1626  0.1617
99586W        W  450  24.116  16.411  14.543 -0.2429  0.0073 -0.0542
99587W        W  451   8.343   1.691  12.208 -0.0796  0.2091 -0.1430
99588W        W  452   8.781  15.609  12.265  0.0976  0.0006 -0.0536
99589W        W  453   4.874  16.606  10.519  0.0446  0.0600 -0.0563
99590W        W  454  14.985   1.379  12.638 -0.1157 -0.3272  0.0195
99591W        W  455   2.876  24.668   5.746  0.3135 -0.0747 -0.0635
99592W        W  456   6.654  28.148  28.758  0.1959 -0.1581  0.3169
99593W        W  457   1.769  10.568  24.602  0.1008  0.2996  0.2253
99594W        W  458   7.009  11.860  12.726 -0.0676  0.2415  0.0874
99595W        W  459  23.377  16.415  10.021 -0.2035 -0.2205  0.0357
99596W        W  460  23.646   7.839  11.273 -0.0184 -0.1189 -0.2667
99597W        W  461  28.862   3.283  10.477  0.1531 -0.2223  0.1688
99598W        W  462  19.677  18.831  18.353 -0.2548 -0.1233 -0.3484
99599W        W  463  10.157  24.472  21.477  0.2805 -0.1290  0.4575
99600W        W  464  19.009  18.439  10.346  0.1295 -0.2089 -0.1436
99601W        W  465  10.229  21.331  20.700  0.1468 -0.1838  0.1122
99602W        W  466  15.075   4.781  28.970  0.1324  0.1877  0.0062
99603W        W  467   8.568  28.829  10.660 -0.0286  0.1285 -0.0735
99604W        W  468   0.373  27.849  12.480 -0.0361 -0.1511  0.0110
99605W        W  469  12.533   9.150  11.907  0.0623  0.1131  0.0083
99606W        W  470  17.785  21.979  25.614 -0.2505  0.0893 -0.1014
99607W        W  471   7.998  17.019   4.617  0.0472 -0.0095 -0.0869
99608W        W  472  22.401   3.126   8.534  0.3225  0.1432 -0.1921
99609W        W  473  16.636  10.549  10.137  0.0914 -0.0422  0.0624
99610W        W  474   9.420  28.999   3.565  0.1188 -0.6546 -0.1724
99611W        W  475  24.475   1.310  21.914  0.2038 -0.3570 -0.1355
99612W        W  476  11.434   4.924  23.266  0.0332 -0.0347 -0.0953
99613W        W  477   2.736  21.268  28.857 -0.1585  0.4472 -0.3139
99614W        W  478  11.899  22.431  19.603  0.0564 -0.0411  0.1036
99615W        W  479  18.810  17.484  25.757  0.0424  0.0333 -0.1272
99616W        W  480   8.367  18.936   6.109  0.0104  0.1135 -0.2656
99617W        W  481  20.372  23.894  25.003 -0.1460  0.3039  0.1782
99618W        W  482  12.170  27.561  27.970  0.0987  0.3178  0.2891
99619W        W  483   7.294   6.636   5.597  0.0879 -0.1968  0.1398
99620W        W  484  18.583  27.688   0.920  0.1429  0.0074  0.2469
99621W        W  485  18.362  22.173   1.518  0.0147 -0.1554  0.1473
99622W        W  486   6.778   2.056  13.935 -0.1957 -0.2169 -0.0494
99623W        W  487  14.188  16.175   5.407 -0.1799 -0.2087 -0.0541
99624W        W  488  23.063  27.294  17.748 -0.1633 -0.0349 -0.3933
99625W        W  489  18.067  28.953  13.926 -0.1657  0.0729 -0.1165
99626W        W  490  10.855  19.957  20.727 -0.0918 -0.0114 -0.1519
99627W        W  491  19.595  19.286  16.337  0.0752 -0.0122  0.1704
99628W        W  492  11.089  27.396  26.932  0.3093  0.2054  0.2154
99629W        W  493   0.288   6.178  10.331 -0.2395 -0.0110  0.1433
99630W        W  494  23.226   1.093  11.991  0.1876  0.0343  0.0819
99631W        W  495  26.014  17.123  11.151 -0.0577  0.1107 -0.4187
99632W        W  496  27.938   5.804  11.729 -0.2366  0.0201 -0.1104
99633W        W  497  25.614  19.343  11.994 -0.1936  0.1095 -0.2980
99634W        W  498   0.184   2.929   6.443 -0.2612 -0.2254  0.3453
99635W        W  499  20.614  17.934   8.080 -0.0139  0.1456 -0.1452
99636W        W  500  21.869  24.818  11.376  0.0999  0.0959 -0.1483
99637W        W  501  25.351  28.257  16.480 -0.2570 -0.0189  0.3211
99638W        W  502  27.534  16.162  18.890 -0.0852  0.1113  0.1124
99639W        W  503   4.994   0.837   8.263  0.2541 -0.2159  0.1966
99640W        W  504  18.348   3.885  25.077  0.1990 -0.0375  0.0437
99641W        W  505   3.318  22.765  13.639  0.0498 -0.1560  0.1567
99642W        W  506   4.706   2.768  21.510 -0.0563 -0.1174 -0.1166
99643W        W  507  27.403  27.061   4.079  0.1663 -0.1237  0.0439
99644W        W  508   6.040   4.593   4.900  0.3341  0.0527 -0.1031
99645W        W  509  25.506   4.531   8.428  0.1064 -0.1601  0.0903
99646W        W  510  14.472  23.136   1.267 -0.0634  0.0231 -0.0001
99647W        W  511   9.572  26.933   4.573 -0.1837 -0.2203 -0.2037
99648W        W  512  25.296  27.650  15.160  0.2686  0.0136  0.2436
99649W        W  513  25.142  15.039   4.414 -0.0525 -0.0538  0.2343
99650W        W  514   5.755  27.071  25.559 -0.0687 -0.1449  0.0257
99651W        W  515   3.355  17.983  20.200  0.0697 -0.0430  0.0197
99652W        W  516  18.057  10.284   6.193  0.2313 -0.0365  0.0978
99653W        W  517  28.591   0.557   5.769 -0.0240 -0.0194  0.0679
99654W        W  518  11.587   4.559  14.764  0.0002  0.2562  0.3057
99655W        W  519   5.907   7.834   2.723  0.1954 -0.0960 -0.1846
99656W        W  520   3.204  21.702  10.434 -0.0041 -0.2660  0.2127
99657W        W  521  27.177   7.026  16.544 -0.1152 -0.1885 -0.0824
99658W        W  522  19.450  12.383  22.687  0.1433 -0.2557  0.1141
99659W        W  523  20.368  10.094   5.509 -0.2379 -0.2608 -0.1542
99660W        W  524   6.181   3.450  28.145 -0.0723  0.0716  0.0146
99661W        W  525  25.278   2.120  14.381 -0.2923 -0.2309  0.1090
99662W        W  526  15.578  25.916  23.451 -0.1244 -0.2905  0.0078
99663W        W  527   3.928  10.445   2.652  0.0101  0.0963 -0.3272
99664W        W  528  28.090   5.128   6.374 -0.0022 -0.0177  0.3932
99665W        W  529  15.315  25.780  18.897  0.2676 -0.1589  0.1737
99666W        W  530   1.736  25.721  24.169  0.0150  0.2492  0.1690
99667W        W  531  23.045   0.294   8.832  0.0371 -0.0447  0.0180
99668W        W  532  16.846  10.084  20.475 -0.1780 -0.1002 -0.0035
99669W        W  533  23.398  20.402   8.153  0.2799  0.0880 -0.0299
99670W        W  534   2.114   6.441  18.231 -0.3633  0.2698 -0.3098
99671W        W  535  10.941   5.823  15.230 -0.3672  0.2820 -0.3873
99672W        W  536  11.271  27.439   1.529  0.2529 -0.0511  0.0266
99673W        W  537  23.838   4.413  20.366 -0.2098 -0.2020  0.1458
99674W        W  538  20.117  23.562  11.435  0.2434 -0.0061  0.2825
99675W        W  539  21.555  19.095  27.818  0.2678 -0.5601  0.0270
99676W        W  540  27.216   8.575  14.162  0.2591 -0.0648  0.2583
99677W        W  541   7.976  13.758  24.274 -0.2004  0.2883 -0.1210
99678W        W  542  28.790  22.656  28.931  0.0678 -0.0197 -0.0180
99679W        W  543  19.284   1.709   5.025  0.2831  0.0275 -0.1638
99680W        W  544  24.104  20.560  12.893  0.1421  0.3033  0.0916
99681W        W  545  26.447  14.446   9.440 -0.4882 -0.0063  0.0425
99682W        W  546  10.238  26.632  24.768  0.2478 -0.0534 -0.0896
99683W        W  547  22.839  20.373   9.025 -0.2522 -0.3305  0.1588
99684W        W  548   2.192  10.915  14.826 -0.1156  0.1418  0.1357
99685W        W  549   9.481  24.551  24.080  0.1622 -0.0358 -0.0404
99686W        W  550   0.856  18.609  18.625 -0.4845  0.2057 -0.0291
99687W        W  551  20.464   4.245  15.326  0.0208  0.0788  0.0528
99688W        W  552   3.118   2.760  14.576 -0.4434  0.1290 -0.1172
99689W        W  553   5.322  28.447   2.050  0.0655 -0.2616 -0.0148
99690W        W  554  27.622  21.211  11.290  0.2618 -0.1870 -0.2064
99691W        W  555   4.942  16.416  17.528 -0.1725 -0.2512  0.0109
99692W        W  556   1.958   9.928   7.833 -0.2959  0.2932  0.0727
99693W        W  557   6.714  20.419   9.063 -0.1312  0.4512 -0.2889
99694W        W  558   5.905   3.873  21.951  0.1340  0.0746 -0.2048
99695W        W  559  28.075  15.009   4.746  0.0864 -0.1431  0.0704
99696W        W  560  16.498  15.236  13.300  0.0067 -0.1818  0.0848
99697W        W  561   4.330  21.684  27.076 -0.3653  0.1397  0.0378
99698W        W  562  17.007   5.820  18.620  0.1881 -0.1488  0.1635
99699W        W  563  17.464  27.434  10.333 -0.0930  0.0053 -0.0287
99700W        W  564  27.247  14.555  10.792  0.0166  0.1121  0.1025
99701W        W  565  21.010  15.472   7.545 -0.0742  0.0722 -0.0063
99702W        W  566   4.497   0.563  21.638 -0.0618 -0.0736 -0.0318
99703W        W  567  16.399  25.160   4.217  0.1622  0.2560  0.2426
99704W        W  568   6.752  21.477  18.690 -0.0946  0.2754 -0.0743
99705W        W  569  13.145  17.953  19.734 -0.2790  0.1801 -0.0446
99706W        W  570   5.238   0.099  16.190 -0.0468 -0.3779  0.0151
99707W        W  571  27.156  26.179   6.712 -0.1904  0.0067  0.1051
99708W        W  572  24.681  22.221  24.108  0.0317 -0.1990  0.3117
99709W        W  573  22.213  19.762   9.466  0.0292  0.0783  0.0367
99710W        W  574   4.233   0.256   2.822 -0.1767  0.1292 -0.0862
99711W        W  575   2.609   9.745  17.596  0.0004  0.0876 -0.0865
99712W        W  576   6.666  27.758  13.504 -0.1153  0.2487  0.0233
99713W        W  577   3.125  25.097  14.038  0.0151  0.1345 -0.0330
99714W        W  578  16.980  23.374  26.521 -0.3770 -0.2305  0.0188
99715W        W  579   9.444   8.798  12.628 -0.0375  0.2287 -0.1948
99716W        W  580  26.983   9.894  18.996  0.2953  0.2917 -0.1371
99717W        W  581   2.498   6.399  12.278  0.0916 -0.0011  0.3929
99718W        W  582  19.059  16.286  20.651 -0.1030 -0.2514  0.0199
99719W        W  583  16.122   2.402   3.412 -0.2672  0.2851  0.0386
99720W        W  584  15.847  15.334  15.469 -0.1498 -0.5706  0.3013
99721W        W  585  24.064   8.422   3.590 -0.2493 -0.1420  0.0279
99722W        W  586  11.902  14.619  18.078  0.2010 -0.1493 -0.2332
99723W        W  587  20.989  12.933  20.885 -0.0020 -0.2011 -0.1498
99724W        W  588  25.920   8.315  12.337  0.0855 -0.1017  0.1468
99725W        W  589  28.549  14.539  11.549 -0.2807  0.1581 -0.2673
99726W        W  590  23.198   7.852   6.316 -0.0105 -0.4421 -0.0070
99727W        W  591  10.872  26.243  15.573  0.1884 -0.0622 -0.1538
99728W        W  592   4.771  25.809   2.301 -0.0100 -0.0203  0.1726
99729W        W  593  22.572  19.046  19.628 -0.1091  0.0607 -0.2062
99730W        W  594  11.002  19.622   9.100 -0.1539  0.2655  0.1926
99731W        W  595  27.123  16.600  21.073  0.1065 -0.0608  0.2265
99732W        W  596   3.111  18.778  28.547  0.1188  0.2862  0.2161
99733W        W  597   5.332  17.296  23.922  0.0168  0.4171  0.0390
99734W        W  598   7.529   5.106  17.133 -0.1018  0.0671 -0.0784
99735W        W  599  18.448   6.834   7.553 -0.0144  0.4244 -0.1609
99736W        W  600   7.318  21.776  17.993 -0.0201 -0.1215 -0.1800
99737W        W  601  18.400   1.085   8.517  0.1008  0.2400 -0.1476
99738W        W  602   0.192  26.526  15.417 -0.0527  0.2032 -0.3087
99739W        W  603   1.597  17.777   6.868  0.1365  0.0098 -0.2195
99740W        W  604  26.260  15.718  26.873 -0.0082 -0.0014 -0.1636
99741W        W  605  26.347  24.934   8.371  0.0972 -0.2721  0.3622
99742W        W  606  12.810  27.415  18.005  0.3073 -0.1525  0.0147
99743W        W  607  17.383  19.449  10.275 -0.0030  0.1181  0.2627
99744W        W  608   3.520   3.074   6.506 -0.0130  0.0649  0.1921
99745W        W  609  14.422  12.217   8.905  0.1564 -0.2535  0.0250
99746W        W  610   5.793  17.793  12.315  0.4117  0.3087 -0.2620
99747W        W  611  29.102  10.786   2.842 -0.0051 -0.0577  0.1626
99748W        W  612  24.235   7.620   1.296  0.0692 -0.0384  0.3171
99749W        W  613  16.073   5.822   2.629  0.2675 -0.1010  0.4190
99750W        W  614  18.919   7.261  27.163 -0.1183 -0.0161 -0.1933
99751W        W  615  17.622   7.353  24.013  0.2311 -0.2082 -0.1385
99752W        W  616   0.521   6.101  18.935  0.3786 -0.1828  0.0556
99753W        W  617  16.084   2.925  15.383 -0.2462 -0.1858  0.2622
99754W        W  618   3.549  19.594  21.663 -0.1838 -0.0950 -0.0061
99755W        W  619  17.531  11.807  20.569  0.0499 -0.3142 -0.0158
99756W        W  620  10.164  22.354   2.167 -0.2331  0.0533 -0.0800
99757W        W  621   3.572   7.281   4.066 -0.1948  0.0739  0.1772
99758W        W  622  26.452   9.516  11.617  0.2815  0.2702 -0.1194
99759W        W  623  22.282  16.883   9.141  0.0049 -0.1911 -0.1293
99760W        W  624  13.795  20.534   6.530  0.2549 -0.0618 -0.1122
99761W        W  625  24.851   9.064   5.045  0.1841 -0.1067 -0.2662
99762W        W  626  18.873  29.126  12.550 -0.1702  0.1732 -0.2069
99763W        W  627   5.025   2.947  24.742 -0.2548 -0.0468 -0.1169
99764W        W  628  23.157  13.005   6.681  0.0806 -0.2070 -0.2358
99765W        W  629  17.128  12.400   9.799  0.0025  0.0678  0.1350
99766W        W  630  15.879  21.336  11.092  0.1259 -0.2150 -0.1200
99767W        W  631   8.044   9.355   7.792 -0.0548  0.3018  0.1615
99768W        W  632   8.255  12.594  10.396  0.1152 -0.0366 -0.1861
99769W        W  633   3.191  13.786   5.389 -0.0471  0.2092  0.2349
99770W        W  634  27.979  18.849  13.840 -0.0095 -0.2403  0.0235
99771W        W  635   2.248  20.540  11.975  0.1286 -0.1739 -0.0575
99772W        W  636  18.629  26.309  20.485  0.0246 -0.3063 -0.1070
99773W        W  637  19.874  17.730  15.876 -0.1857  0.1462  0.1331
99774W        W  638  12.992   4.884   3.507  0.1202  0.2021  0.0238
99775W        W  639  28.941  21.841   6.609  0.0201  0.0641 -0.1166
99776W        W  640  19.734   4.754  11.791 -0.3290  0.3386 -0.0184
99777W        W  641   4.819  22.522  21.942 -0.0007 -0.0578 -0.0005
99778W        W  642  13.227   7.413  14.201 -0.0522  0.2296 -0.0623
99779W        W  643   8.331   1.445  18.170 -0.1440 -0.1559 -0.0821
99780W        W  644  21.245  11.467  11.551  0.0847 -0.4340 -0.2430
99781W        W  645  23.216   5.040  25.819  0.2311  0.2648  0.1489
99782W        W  646   0.776  11.974  16.904 -0.0104  0.1339 -0.0525
99783W        W  647  28.177  26.786   7.983  0.1669  0.3517 -0.0093
99784W        W  648   1.711  18.206   7.589  0.1465 -0.3369  0.0068
99785W        W  649   8.085  15.782  22.342 -0.0601  0.1891 -0.3288
99786W        W  650  12.998   3.270  24.975 -0.1387  0.0208 -0.1173
99787W        W  651  21.592  28.984   3.751  0.0279 -0.1621  0.1903
99788W        W  652  25.299  23.695  21.908  0.0660  0.1321 -0.0403
99789W        W  653   4.079   0.521   5.445 -0.1740  0.0897  0.0194
99790W        W  654  26.094  19.987   9.506 -0.1054  0.1226 -0.0559
99791W        W  655  10.428  20.146   7.764  0.4511  0.3334  0.0804
99792W        W  656   4.821  27.277  24.768  0.0386  0.1104  0.0058
99793W        W  657  27.914   8.467  25.338  0.0476  0.0726 -0.0126
99794W        W  658  22.951   6.427  11.289  0.0570  0.0030  0.2088
99795W        W  659   4.281  25.067   3.059 -0.0692  0.0295 -0.3615
99796W        W  660  16.608  20.479  21.065  0.0620  0.1254 -0.0047
99797W        W  661   7.478  22.989  25.944 -0.0421 -0.0885 -0.1836
99798W        W  662  24.108  17.389   2.928 -0.0492 -0.1366  0.1066
99799W        W  663  27.482   9.405   8.898 -0.0327  0.0413 -0.0956
99800W        W  664  20.309   8.650   8.055 -0.1097 -0.2129  0.1455
99801W        W  665  28.151  14.409  18.899 -0.1954  0.0420  0.0243
99802W        W  666  26.057  11.120   9.618 -0.0265  0.0889  0.0692
99803W        W  667  18.075  17.829  12.935 -0.2425 -0.2856 -0.1758
99804W        W  668   2.546   2.121  14.118 -0.3077 -0.1090  0.0659
99805W        W  669   3.733  17.651   9.937 -0.1847  0.0426  0.0050
99806W        W  670  16.383  19.615   2.681  0.0937  0.1351 -0.2150
99807W        W  671  16.467   7.623  21.224  0.0426  0.4227  0.0144
99808W        W  672  13.577  17.568   5.213 -0.1630 -0.2395 -0.1141
99809W        W  673  21.682  13.780  14.384 -0.1937 -0.2891 -0.0031
99810W        W  674  10.179   4.373  28.163  0.0526  0.1940 -0.0573
99811W        W  675  10.807  17.652  19.657  0.0089  0.1461  0.0082
99812W        W  676  23.586   9.056   2.936  0.2465  0.0063 -0.1597
99813W        W  677  27.580  23.505  23.907 -0.0696  0.0473 -0.2538
99814W        W  678   9.077  27.258   2.906 -0.0848 -0.0957  0.0636
99815W        W  679  19.447   4.744  16.462  0.0860  0.1155  0.0513
99816W        W  680   6.401   4.949  17.642  0.3245 -0.0012  0.1765
99817W        W  681  23.788  19.797   5.175  0.1587 -0.1153 -0.0971
99818W        W  682   3.557  18.651  12.470 -0.0993  0.2470  0.3258
99819W        W  683  23.918  18.878  27.144 -0.1322  0.0403 -0.2240
99820W        W  684   6.110  21.493  28.182  0.1101  0.3322 -0.2149
99821W        W  685  22.308   0.076  26.278  0.1500  0.0252  0.1313
99822W        W  686  21.433  17.707  27.915  0.0329 -0.1062  0.2186
99823W        W  687  28.289  26.981  14.405 -0.1473  0.3415  0.0493
99824W        W  688   9.552  23.529  10.121  0.0500 -0.0355  0.0298
99825W        W  689  26.186  10.536  16.626 -0.0665  0.0640  0.2220
99826W        W  690  23.792  16.144  10.957  0.0080 -0.0083 -0.3628
99827W        W  691   8.659  22.267   2.755 -0.0512  0.1649  0.0615
99828W        W  692  26.968  25.879  13.471 -0.0941 -0.2734 -0.0140
99829W        W  693  19.562  28.650  11.806  0.0264 -0.1799  0.2521
99830W        W  694  12.119  10.437  16.220  0.0164 -0.0492  0.0421
99831W        W  695  22.558  11.619  13.328 -0.0024  0.3047 -0.2293
99832W        W  696  26.473  26.380  12.520 -0.0759 -0.0159 -0.0993
99833W        W  697  10.480   5.837   7.068  0.2126 -0.0559  0.2887
99834W        W  698   1.724   0.911  10.713  0.0344 -0.0672 -0.1348
99835W        W  699   6.146  28.702   6.980 -0.3327 -0.1294  0.2599
99836W        W  700   5.978  10.900   1.768 -0.2636  0.3964  0.2489
99837W        W  701  10.867  20.215  12.039  0.1530  0.0474 -0.1895
99838W        W  702  17.520  16.132  15.750  0.0193 -0.2292 -0.0641
99839W        W  703  13.344  17.227  28.914 -0.0249 -0.2066  0.0754
99840W        W  704  17.413  17.139  25.235 -0.1378  0.0096  0.0484
99841W        W  705  24.429  19.769  13.036 -0.3274  0.0782 -0.3010
99842W        W  706   7.820  24.603   6.816 -0.3535 -0.0969 -0.0181
99843W        W  707  25.012  28.230   6.306 -0.1734  0.1807  0.2337
99844W        W  708   0.378  27.602  18.568  0.0695  0.0155 -0.3034
99845W        W  709  21.528   1.785  13.246 -0.3238 -0.0362 -0.0770
99846W        W  710  14.038  20.861   6.918  0.0744  0.1123 -0.5288
99847W        W  711   7.054  19.783  14.675 -0.0625 -0.1027  0.0111
99848W        W  712  23.170  20.466  23.248  0.1925  0.3399  0.0006
99849W        W  713  19.636   5.246  21.955 -0.0934 -0.0866 -0.3109
99850W        W  714  14.940  23.073  23.214  0.3363  0.1509 -0.0807
99851W        W  715  19.072  20.893  21.105  0.1788 -0.2181 -0.0987
99852W        W  716   8.366  14.320   2.898 -0.1831  0.3294  0.0798
99853W        W  717  25.405  27.069   3.484 -0.0210 -0.1693  0.1407
99854W        W  718   9.336  17.258  15.644  0.1375 -0.1662 -0.2422
99855W        W  719  20.169  24.835  16.613 -0.0043  0.0854 -0.1739
99856W        W  720   2.179  24.396  18.002 -0.1207 -0.0762 -0.0191
99857W        W  721  11.051   1.520   1.358  0.4471  0.1952  0.1220
99858W        W  722   1.911  25.138  17.306  0.0672  0.0679 -0.1254
99859W        W  723   7.936  15.758  28.035  0.1306 -0.0246  0.0182
99860W        W  724  28.057  12.459   0.323  0.1581 -0.5999 -0.0389
99861W        W  725  21.211   9.163  19.478  0.1349 -0.1995 -0.2672
99862W        W  726  15.996  21.471  17.101 -0.0400 -0.2131 -0.0439
99863W        W  727  14.980   6.785   6.067 -0.3643  0.2082  0.1813
99864W        W  728   7.198  26.959  10.458 -0.0147 -0.2081  0.2259
99865W        W  729  24.622  19.817  13.515  0.2459  0.0652 -0.0363
99866W        W  730   8.948  23.309  17.154  0.1664 -0.0555 -0.2264
99867W        W  731  21.927  26.217   2.292 -0.0989 -0.0283  0.1378
99868W        W  732   3.284  29.092   2.845 -0.0614 -0.0753  0.0003
99869W        W  733  19.937  16.150   8.552 -0.0125  0.1331 -0.0485
99870W        W  734   0.775  20.572  27.326 -0.3028  0.0336  0.2129
99871W        W  735  23.875   9.972   6.379 -0.0502  0.3094 -0.1967
99872W        W  736  15.171  18.854  10.070 -0.0859  0.0134  0.2900
99873W        W  737  21.468   7.121  16.766 -0.0491 -0.0063  0.1834
99874W        W  738   0.899  23.319  21.944  0.0857  0.0292  0.2248
99875W        W  739  25.282  17.659  15.813  0.1404 -0.0549 -0.4029
99876W        W  740   5.269   3.904   5.882  0.0096  0.0725  0.4257
99877W        W  741  10.939  13.510  23.797 -0.2028  0.1606  0.0666
99878W        W  742  11.572  26.603  17.101 -0.0731  0.2766 -0.1187
99879W        W  743  25.027  14.616   3.148  0.1282 -0.1271 -0.0240
99880W        W  744   3.128  26.021   0.755 -0.3051 -0.0561 -0.2384
99881W        W  745  21.720  27.421  15.411  0.0266  0.0952  0.1065
99882W        W  746  23.226  24.839   7.290 -0.0767  0.0928 -0.0390
99883W        W  747  11.452   6.223   5.776  0.1179  0.0766  0.2050
99884W        W  748  21.511   1.083  18.840 -0.2470 -0.0254 -0.2195
99885W        W  749  16.347   5.041  24.266  0.1636 -0.2063  0.1831
99886W        W  750   7.033   0.473  20.702  0.0848  0.1857  0.2024
99887W        W  751  17.313  18.354  15.767 -0.0610 -0.1468  0.1385
99888W        W  752   9.322  13.580   0.156  0.0858  0.0918 -0.2189
99889W        W  753  19.511  23.888  24.910  0.0914  0.1075  0.1778
99890W        W  754   5.919  24.542   2.148  0.2656 -0.0770  0.3090
99891W        W  755  13.553  23.851   5.430 -0.5152 -0.0080 -0.2298
99892W        W  756   7.653  25.014  19.635 -0.2788  0.3110  0.1220
99893W        W  757  28.318   7.691   7.566 -0.0990  0.0724  0.0884
99894W        W  758   2.305   5.368  18.997  0.0558  0.0582 -0.0739
99895W        W  759  26.299  11.371  23.826 -0.0296 -0.0031 -0.1066
99896W        W  760   5.659   2.435  11.198  0.2264 -0.0424 -0.0416
99897W        W  761  28.875   0.548  26.836 -0.0161 -0.0936 -0.0477
99898W        W  762   9.538   1.742   7.298  0.0187 -0.0275 -0.0736
99899W        W  763   1.706  23.138   7.127 -0.0596  0.0615  0.2081
99900W        W  764  12.677  18.506   9.498 -0.1176  0.1923  0.1216
99901W        W  765  22.696   2.323  12.823  0.1499 -0.0213  0.1101
99902W        W  766  27.923  20.615   2.456 -0.3063  0.1430  0.0956
99903W        W  767   2.136   1.448   6.556 -0.1247  0.0282  0.0612
99904W        W  768  21.052  20.544  11.301 -0.2419 -0.0807 -0.2079
99905W        W  769   4.585  13.266  20.959 -0.2016 -0.1469 -0.0167
99906W        W  770   7.075  22.644  22.407  0.0213 -0.0331  0.0560
99907W        W  771  27.791  21.350   9.666  0.0483 -0.2393 -0.1019
99908W        W  772  24.138   1.922  25.675 -0.2156 -0.1150 -0.1572
99909W        W  773  23.084  23.940   2.533  0.2508  0.0708 -0.0707
99910W        W  774   2.139  28.295  17.926 -0.1757  0.1235 -0.1771
99911W        W  775   3.326   8.630   5.731  0.1782  0.0735 -0.0942
99912W        W  776   8.653  20.553  11.411  0.0597 -0.0692  0.3127
99913W        W  777  24.297  13.697   1.001  0.0937  0.0214  0.0425
99914W        W  778  24.510  18.941  23.040  0.1317 -0.0128  0.1936
99915W        W  779   8.643   8.969  28.078  0.1329 -0.1597  0.4066
99916W        W  780   1.548  22.765  18.157  0.2239 -0.1709 -0.0963
99917W        W  781  28.481  13.203  25.611  0.3113  0.2020 -0.2696
99918W        W  782  18.569   4.605  22.029 -0.2742  0.1056 -0.1019
99919W        W  783  26.916   1.807   7.264 -0.1009 -0.1217  0.2003
99920W        W  784   2.448  12.342  17.664  0.2274  0.1886  0.1828
99921W        W  785   7.931  23.420  15.874 -0.1124 -0.1015 -0.0184
99922W        W  786   9.285  19.620  13.983  0.0063 -0.2975 -0.1154
99923W        W  787  11.385   7.787  11.508  0.1173  0.1860  0.0143
99924W        W  788  26.680  15.980  12.866  0.3686 -0.1667  0.2499
99925W        W  789   8.027   6.119  26.825 -0.0643  0.0648  0.0670
99926W        W  790  17.902  29.029  19.111 -0.1720  0.4117  0.4703
99927W        W  791  28.829   0.724  17.457  0.0475 -0.2340  0.0611
99928W        W  792   6.646  19.266   6.492  0.1315 -0.0325 -0.1025
99929W        W  793  20.621  20.368   2.733  0.1768  0.1303 -0.0937
99930W        W  794  21.942  22.263  15.655  0.0884 -0.2348  0.1161
99931W        W  795   5.635  18.664   2.097  0.1105  0.1878  0.2700
99932W        W  796  20.348   5.417   0.078  0.1087  0.1156  0.0186
99933W        W  797   5.472  28.521  23.416 -0.0680  0.3771 -0.1478
99934W        W  798   2.422  27.407  21.375 -0.1570  0.0723 -0.0819
99935W        W  799  12.229   2.504  15.379 -0.0688 -0.1865 -0.2197
99936W        W  800  27.634  26.389   4.728 -0.0620 -0.2040 -0.1433
99937W        W  801   5.950   2.298  20.868  0.2588  0.2045 -0.2127
99938W        W  802  20.076  25.133  21.094 -0.3312  0.2595  0.3537
99939W        W  803  23.981   3.762   3.974  0.0286 -0.0960 -0.3416
99940W        W  804  27.376  28.703  19.770  0.0203 -0.0960 -0.0031
99941W        W  805  29.049  19.703  23.327  0.0369 -0.1525  0.2285
99942W        W  806  20.857  24.465  17.779  0.0219 -0.0813 -0.0216
99943W        W  807  11.074  22.603  23.195  0.1362  0.0446  0.2504
99944W        W  808   4.661  17.519  15.925 -0.0287  0.1748  0.3324
99945W        W  809  19.110  17.272  21.821  0.2116 -0.2777  0.2547
99946W        W  810  14.836   0.268   9.511 -0.1673 -0.1047  0.0710
99947W        W  811   6.213  24.448  21.334  0.0453  0.0921  0.3444
99948W        W  812  10.509  23.970  26.485  0.1276 -0.2391  0.0009
99949W        W  813  22.559  21.407  13.321 -0.2164  0.1688 -0.2694
99950W        W  814   6.148  24.632  24.106  0.0236 -0.1383 -0.0857
99951W        W  815   9.105  18.526  10.246 -0.2821 -0.3661 -0.1271
99952W        W  816  22.730  22.879  17.370 -0.0150  0.1318  0.0219
99953W        W  817   9.350   3.773  25.473 -0.3149 -0.1881 -0.3935
99954W        W  818   7.052  23.407  13.493 -0.1819 -0.2007 -0.0912
99955W        W  819   8.322   8.296   1.140  0.0260 -0.2208 -0.0528
99956W        W  820   5.572   1.268   2.529 -0.0482  0.2992  0.1053
99957W        W  821  11.607   1.582  12.510  0.0799  0.1015  0.0522
99958W        W  822   2.881   7.401  13.353 -0.1410 -0.3444  0.1894
99959W        W  823  24.571  16.508  13.828 -0.2411 -0.0217  0.4372
99960W        W  824  14.872  13.225   4.718 -0.0629  0.0446  0.4269
99961W        W  825  12.901  24.393  17.785 -0.2424  0.1928  0.1722
99962W        W  826  15.957  24.008  21.763  0.1827  0.0906 -0.0113
99963W        W  827  21.448  21.144   8.371 -0.0872 -0.0105  0.2158
99964W        W  828  23.537   1.165   8.779  0.3284 -0.2147 -0.0632
99965W        W  829  23.054  24.821  13.946 -0.0158 -0.1022  0.1171
99966W        W  830   6.332  14.897   5.932 -0.3077 -0.2807 -0.2356
99967W        W  831   8.139   3.941  12.920 -0.2087 -0.1888 -0.1415
99968W        W  832  20.120  20.307  18.798 -0.3244 -0.1701  0.1365
99969W        W  833  17.806   4.409  27.374 -0.1029  0.3950  0.0836
99970W        W  834  25.356  20.885  12.349 -0.0316  0.3327  0.1067
99971W        W  835   7.741  24.372   5.037  0.1746  0.0539  0.4654
99972W        W  836  15.517  25.102  10.977  0.1849  0.0379  0.0185
99973W        W  837   1.122  23.970  26.886 -0.1512  0.2649  0.3133
99974W        W  838   2.422  24.834  20.064 -0.2532  0.2975  0.1401
99975W        W  839   0.857   0.352  19.923 -0.1845  0.2480  0.0909
99976W        W  840  14.248  17.556   9.881 -0.1307 -0.0837  0.1327
99977W        W  841   7.437  23.296   2.567  0.3698 -0.3348 -0.1162
99978W        W  842   1.614   7.392  12.621  0.0853  0.0079  0.0067
99979W        W  843  10.472  20.969  14.479 -0.0832 -0.2312  0.0429
99980W        W  844   8.981  26.630  28.375 -0.0527 -0.1180  0.1467
99981W        W  845  14.228  18.852  19.267 -0.1006 -0.2949 -0.2029
99982W        W  846   7.002   8.481  23.326 -0.2773  0.1126 -0.2906
99983W        W  847  26.322   9.315  16.476 -0.1416 -0.0345  0.0221
99984W        W  848  13.277   3.487  21.806  0.0375 -0.1728  0.2145
99985W        W  849   0.391  16.787  12.750 -0.1556  0.0791 -0.0587
99986W        W  850  23.735  24.710   8.578  0.0201 -0.0247 -0.1082
99987W        W  851  21.926  26.339  14.643 -0.0202  0.0348 -0.2501
99988W        W  852   4.272   0.437  10.576  0.2248  0.0406 -0.1809
99989W        W  853  25.222  24.547  21.215 -0.0786 -0.0942 -0.2580
99990W        W  854  16.613  27.379   5.294  0.1621  0.0440 -0.0013
99991W        W  855  26.729  12.752   1.589  0.0553 -0.2177  0.0497
99992W        W  856   7.464  18.461   9.672 -0.1396 -0.0069  0.0622
99993W        W  857   4.544   1.544  28.852 -0.0001  0.2475  0.2310
99994W        W  858  10.979  17.350  12.921 -0.3303 -0.0810 -0.1491
99995W        W  859  21.177  10.141  26.345 -0.0597  0.0201 -0.4732
99996W        W  860  26.766  27.773  20.838 -0.0534 -0.1034  0.1461
99997W        W  861   7.807   3.402   8.081 -0.3601 -0.2626 -0.0313
99998W        W  862  13.354  12.429  15.212 -0.0487  0.0442  0.2221
99999W        W  863   3.682   4.318   5.760 -0.1749  0.2159  0.0391
    0W        W  864  21.394   7.259  17.792  0.2734  0.3691 -0.1621
    1W        W  865  18.895   0.968  12.287 -0.2417 -0.1057  0.1779
    2W        W  866  21.876  21.653  23.993  0.0419  0.0046 -0.3212
    3W        W  867  20.623  23.490  25.725 -0.6536 -0.0800  0.0107
    4W        W  868  17.384  27.230  12.424 -0.3000  0.0388 -0.1749
    5W        W  869   3.766  24.415   8.626 -0.0181  0.1833 -0.0323
    6W        W  870   4.588   8.251   3.901 -0.0827  0.3595  0.3966
    7W        W  871   8.501  10.893  15.905 -0.1010  0.0914 -0.1617
    8W        W  872   3.428  10.846  12.061 -0.0419 -0.0823  0.1833
    9W        W  873  16.954  28.056  19.145 -0.1157  0.2123  0.1164
   10W        W  874  28.836  11.796  27.536 -0.0080 -0.2698  0.0925
   11W        W  875  27.389  29.084   5.372 -0.4509 -0.2631  0.1866
   12W        W  876  22.457  14.294  16.000  0.0382  0.2173 -0.2969
   13W        W  877  21.628  25.270  11.508 -0.0846 -0.0089  0.2172
   14W        W  878  22.590  17.451   2.620  0.0373  0.2507  0.1784
   15W        W  879  27.319  19.638  23.609  0.1577 -0.0079 -0.0168
   16W        W  880  25.320  19.245  24.387  0.5866  0.1300 -0.1746
   17W        W  881   2.148  18.504   6.264  0.0102  0.0153 -0.0361
   18W        W  882   7.310  23.871  12.655  0.2969  0.1447  0.1646
   19W        W  883   6.016   1.422  13.171 -0.1185 -0.2624  0.0997
   20W        W  884  15.478   2.839   1.468  0.0924  0.1910  0.5384
   21W        W  885  21.942  13.690   2.190  0.2403 -0.1822  0.1039
   22W        W  886  16.417  18.881  10.545 -0.0627 -0.0346  0.0887
   23W        W  887   3.492  26.837  14.405  0.0632 -0.2360  0.0440
   24W        W  888  19.599  14.577  19.939  0.0101 -0.2684 -0.0880
   25W        W  889  23.159  27.983  24.315 -0.0293 -0.1224  0.1220
   26W        W  890   0.392  20.038   9.748 -0.1905 -0.1369 -0.1364
   27W        W  891  25.688  11.811  19.991 -0.0013 -0.3498 -0.0628
   28W        W  892   8.583  12.828   7.978 -0.4351 -0.0103 -0.3220
   29W        W  893  21.709   1.864  12.193  0.1179 -0.1605  0.1002
   30W        W  894  23.266  11.486  10.753 -0.0902 -0.1481 -0.3212
   31W        W  895  23.172  14.773  15.682  0.0358  0.1267 -0.1514
   32W        W  896  27.300  27.086   8.749 -0.0319 -0.0704 -0.0691
   33W        W  897   5.696  18.956   1.258 -0.0929  0.0718  0.0747
   34W        W  898   0.878   3.199  24.896  0.1823 -0.0861 -0.0562
   35W        W  899  18.168   4.593  23.939 -0.1177 -0.0061  0.1496
   36W        W  900   5.525  28.750  10.286 -0.0032 -0.0833  0.1058
   37W        W  901  27.685  25.686  14.111  0.0949 -0.0011  0.2883
   38W        W  902   2.269  15.192   0.826 -0.3994  0.1501 -0.0232
   39W        W  903   8.352  19.260  14.534  0.4516  0.0074  0.1601
   40W        W  904  21.219   3.142   2.693 -0.0918 -0.2321 -0.1645
   41W        W  905  11.057  14.792   3.703  0.0344 -0.1789  0.1105
   42W        W  906   3.137  10.242  23.925 -0.0834 -0.1802 -0.3947
   43W        W  907  22.961   3.823  12.264  0.0961  0.1009  0.2516
   44W        W  908  27.181  14.461  12.781  0.2452 -0.3891  0.3005
   45W        W  909   4.017  23.609   5.373 -0.3836  0.3160 -0.0273
   46W        W  910   0.348  28.207  15.377  0.0234 -0.1036 -0.1920
   47W        W  911   8.188  25.381  21.536  0.0710 -0.2239 -0.0598
   48W        W  912  20.234  12.483  18.138  0.2450 -0.4679  0.1547
   49W        W  913  10.179  26.105   2.626 -0.3371 -0.2552 -0.1637
   50W        W  914  18.802  15.082  22.901 -0.0527  0.0494 -0.1256
   51W        W  915  10.607  10.958  19.769  0.0065  0.2179  0.1099
   52W        W  916  19.446  20.238   5.407  0.3737  0.3783  0.0640
   53W        W  917  29.001  17.981  22.789 -0.0261  0.1129 -0.1423
   54W        W  918  15.660  27.078   6.509  0.0200 -0.0779  0.0846
   55W        W  919  10.149  19.299  20.205  0.0495  0.1655  0.1123
   56W        W  920   1.412  16.906   7.301 -0.1352  0.1963  0.4274
   57W        W  921  11.460   1.332  20.528 -0.0211 -0.0958 -0.5449
   58W        W  922   1.723  19.051  18.704 -0.1442 -0.0244 -0.3301
   59W        W  923  27.763  13.018   7.132  0.0554 -0.1621  0.1201
   60W        W  924  12.900  16.379  11.564  0.0261 -0.1526 -0.2024
   61W        W  925   6.231  25.310  28.329 -0.0783  0.0253  0.0985
   62W        W  926  13.402  21.515  12.843  0.1407  0.0701  0.1490
   63W        W  927  16.042  22.864  13.969 -0.1559 -0.0732  0.1879
   64W        W  928  24.030  17.735  28.169 -0.0503  0.1874  0.1509
   65W        W  929   7.125   9.019  28.028  0.0361 -0.0649  0.0692
   66W        W  930   5.442  21.470   0.103  0.1659  0.2825  0.4093
   67W        W  931  27.966  11.905  12.072  0.0626 -0.0863  0.2303
   68W        W  932  22.086  19.110  22.385 -0.1130  0.1849  0.3291
   69W        W  933   7.395   3.436  14.017 -0.1193 -0.0689  0.2555
   70W        W  934   0.387  15.239  21.059 -0.1048  0.2690 -0.1442
   71W        W  935  12.119   5.412  10.687 -0.2416  0.0062 -0.1290
   72W        W  936  23.311  25.477  18.238 -0.0262  0.1526 -0.2517
   73W        W  937   4.986   0.222  23.457 -0.1152 -0.0334 -0.0875
   74W        W  938  12.175  24.921  25.660 -0.2358 -0.0608  0.0542
   75W        W  939  15.789   0.581  14.892  0.2609  0.2099 -0.2819
   76W        W  940   6.642  24.282   4.062 -0.0186 -0.1059 -0.0265
   77W        W  941  10.915  23.022   0.197  0.1499  0.1632  0.0054
   78W        W  942  27.235  19.431  23.187 -0.0135  0.1208  0.2211
   79W        W  943  24.288   2.165  12.892 -0.0486 -0.2659  0.0129
   80W        W  944   0.564   8.369  10.761  0.2712  0.4218  0.1204
   81W        W  945  24.352  16.252  10.909  0.1830 -0.1686  0.1515
   82W        W  946  12.068  20.088   8.011 -0.0417 -0.1732  0.0575
   83W        W  947  20.095  18.602   3.100 -0.0770 -0.1058 -0.0050
   84W        W  948   2.905  23.033  14.393 -0.1287  0.2934  0.0548
   85W        W  949   0.783   0.596  22.474  0.1604  0.0077 -0.3148
   86W        W  950  24.324  27.432  20.239 -0.2928 -0.0323  0.0680
   87W        W  951   2.404  24.904   5.472 -0.0495 -0.0585  0.0191
   88W        W  952  13.393  15.656  19.564  0.0834 -0.0154  0.1621
   89W        W  953  21.480  15.612  20.274 -0.3248  0.2980 -0.2409
   90W        W  954  28.347  16.402   8.696  0.2943 -0.1776  0.3392
   91W        W  955  28.235  26.740  23.928 -0.2071 -0.1609  0.4719
   92W        W  956  18.963  16.816   7.492  0.0796 -0.0586 -0.0055
   93W        W  957  23.292   5.853   2.102  0.2713 -0.1130 -0.0353
   94W        W  958  23.148  25.636  12.521 -0.1400 -0.1429 -0.3988
   95W        W  959  23.654  12.858   5.108  0.0435 -0.0112  0.2433
   96W        W  960  26.448   3.136  18.024  0.0158 -0.0551  0.0447
   97W        W  961   4.053  10.207   6.204 -0.2006  0.1905  0.1291
   98W        W  962  22.079  26.602   2.695 -0.0527  0.0680 -0.0127
   99W        W  963   0.867   9.788   8.898 -0.1885  0.1557  0.3777
  100W        W  964   6.427  21.395  10.721 -0.2160  0.0229 -0.2621
  101W        W  965  27.603  13.966   9.417  0.1140  0.3231  0.0535
  102W        W  966  29.088  14.940  25.431 -0.3992 -0.0753 -0.0331
  103W        W  967  14.378  28.031  13.769  0.0394  0.0453  0.2878
  104W        W  968  19.959  10.848   4.011  0.2766 -0.0110 -0.0996
  105W        W  969   7.682  19.727  23.415  0.2450 -0.0633 -0.2845
  106W        W  970  16.940   1.525   9.006  0.0958  0.4865  0.4514
  107W        W  971   0.475   6.972  15.938  0.1063 -0.1269  0.0861
  108W        W  972   3.227  27.429  24.257  0.0256 -0.1702 -0.0861
  109W        W  973   2.893  12.639  21.940 -0.2534  0.4134 -0.2334
  110W        W  974  19.771  15.045   2.094  0.2468 -0.1387  0.2618
  111W        W  975  10.373   7.411   4.792 -0.1618 -0.0923 -0.0303
  112W        W  976  19.143  25.509   6.582 -0.0671 -0.0153 -0.0114
  113W        W  977  25.065  18.674   4.609 -0.1424 -0.0470 -0.1017
  114W        W  978   0.814  15.446   5.544  0.1031  0.0759 -0.3675
  115W        W  979  20.542   8.071  15.766 -0.1770  0.0560  0.1325
  116W        W  980   9.395  21.237  17.382 -0.2463 -0.4815  0.0164
  117W        W  981  16.105  24.342  20.408  0.0480  0.1841  0.2313
  118W        W  982  28.537  23.932  10.672 -0.0383  0.1187  0.1690
  119W        W  983  11.647  17.863   1.247  0.2991  0.1144  0.3421
  120W        W  984  25.038   0.286   0.799  0.2816 -0.1869  0.2238
  121W        W  985  28.309  24.586  12.994 -0.0666  0.0193  0.2391
  122W        W  986  19.254  28.080   1.275  0.0644 -0.1184 -0.2213
  123W        W  987   2.517  15.551  19.661 -0.0816  0.1474 -0.2252
  124W        W  988  12.162  22.593  18.314 -0.3355 -0.1123  0.0025
  125W        W  989   6.716  16.256  11.407  0.0140 -0.2231  0.2225
  126W        W  990  21.050   1.339  22.578  0.5350 -0.0728 -0.0397
  127W        W  991  22.661   3.270  17.379 -0.1261 -0.0617 -0.2908
  128W        W  992  21.336  12.932  14.496  0.0502  0.1115 -0.3677
  129W        W  993   2.746   0.574  17.100  0.0977 -0.0370  0.2843
  130W        W  994  24.616   9.531   9.427 -0.1041 -0.3121  0.1935
  131W        W  995  28.733  27.632   2.639 -0.0192 -0.1606  0.0243
  132W        W  996   7.870  25.448  11.051 -0.1170  0.3392 -0.1046
  133W        W  997  23.233  18.342   8.687  0.0038 -0.1134 -0.2193
  134W        W  998  28.103  22.141   1.238 -0.0287  0.0699  0.3206
  135W        W  999  18.221  24.411  17.784  0.0887 -0.1692  0.0607
  136W        W 1000   4.749  12.289  14.928 -0.0667  0.2681  0.6609
  137W        W 1001   5.922   6.856  12.758 -0.1326  0.0302 -0.1447
  138W        W 1002  18.787   1.889  10.767 -0.3214 -0.1514  0.1753
  139W        W 1003   1.105  20.480  16.714 -0.1572 -0.2012 -0.3027
  140W        W 1004   2.384  12.264   6.852  0.0772  0.0401 -0.1163
  141W        W 1005  19.444   3.719   7.510 -0.0830  0.2341  0.0239
  142W        W 1006  13.582  18.946  23.508  0.0183 -0.2305  0.0558
  143W        W 1007  24.263  17.167   1.197 -0.1997 -0.3195 -0.0089
  144W        W 1008  25.456   7.087  25.291  0.0912  0.0881 -0.0471
  145W        W 1009   3.498  21.676   6.678  0.1495 -0.2862  0.2962
  146W        W 1010   0.981  20.299   5.548 -0.0915  0.3841 -0.2997
  147W        W 1011   5.424  14.443  19.163  0.2239  0.2095  0.0164
  148W        W 1012   0.763  28.917  22.103 -0.0351 -0.0697 -0.2246
  149W        W 1013  27.632  22.337  10.422  0.0476  0.0083  0.0139
  150W        W 1014  25.731   8.551  22.155 -0.1583 -0.1694  0.2061
  151W        W 1015  22.593   7.862  12.020 -0.0484  0.0692  0.2701
  152W        W 1016   1.940  21.242   3.786  0.0679 -0.1111  0.0891
  153W        W 1017  21.374  26.688   8.557  0.0908  0.3670 -0.0702
  154W        W 1018  26.954  26.636  13.230 -0.1657  0.1911 -0.5260
  155W        W 1019  26.228  18.681  15.090 -0.0044 -0.1355 -0.0929
  156W        W 1020  28.120  24.076   3.203 -0.0669 -0.0733  0.0608
  157W        W 1021  24.726  14.208  18.352 -0.0719  0.4038  0.1087
  158W        W 1022  22.515  22.705  19.754  0.2642 -0.1273  0.1473
  159W        W 1023  28.508  19.842  14.022  0.2768  0.3623 -0.0290
  160W        W 1024   1.561   2.168   2.552  0.0328  0.2648 -0.0396
  161W        W 1025  23.129   5.888  21.911 -0.0557 -0.2841 -0.1225
  162W        W 1026  23.668   9.090   7.919 -0.1906 -0.0169  0.0714
  163W        W 1027   8.630  14.528  12.838 -0.0988 -0.0463  0.5411
  164W        W 1028  12.533  23.127   5.875  0.0296 -0.1556 -0.0049
  165W        W 1029   2.408  25.905  11.315 -0.1589 -0.0345 -0.0897
  166W        W 1030  22.377  23.154  13.092  0.1707 -0.1721  0.1366
  167W        W 1031  21.688  19.776   5.989 -0.1358  0.0464  0.0230
  168W        W 1032  21.628  21.063  18.816 -0.2399 -0.2667 -0.0256
  169W        W 1033   3.355   7.833  20.681  0.2671 -0.0323 -0.2071
  170W        W 1034   8.953   9.649   4.702 -0.1395  0.0135 -0.0764
  171W        W 1035   3.894  13.513  10.512 -0.0092  0.2267  0.0128
  172W        W 1036  13.600   1.741  24.138 -0.0074 -0.1466  0.0519
  173W        W 1037  18.790  26.223  18.207 -0.0173  0.0517  0.0948
  174W        W 1038  21.159  22.180  27.708 -0.0850  0.1635 -0.1225
  175W        W 1039  22.452  15.813  21.243 -0.0584 -0.1169  0.0038
  176W        W 1040  24.265  17.498   6.150 -0.0234 -0.0305 -0.0591
  177W        W 1041   6.285  16.708  18.687 -0.3324  0.0137  0.0407
  178W        W 1042   1.247  25.773   8.402 -0.2889  0.0868  0.1058
  179W        W 1043  24.376  27.656  11.595 -0.0676  0.3150 -0.0362
  180W        W 1044  13.504  14.598  21.902  0.0215 -0.2359 -0.0004
  181W        W 1045  27.481   3.635  14.898 -0.2475  0.0161 -0.0108
  182W        W 1046  15.430   5.711  28.049  0.0090 -0.0675  0.3729
  183W        W 1047  21.731  14.584  25.706  0.2696  0.0734  0.0769
  184W        W 1048  21.626  26.476   0.865 -0.0194  0.2820  0.1171
  185W        W 1049  12.084   1.772   7.262 -0.4004 -0.2071  0.0366
  186W        W 1050   8.509  17.161   5.502  0.0714 -0.2875  0.2832
  187W        W 1051  23.180  22.446  26.881 -0.0502  0.0727 -0.0088
  188W        W 1052   4.901  21.295  24.855  0.2046  0.1818 -0.0958
  189W        W 1053  14.322   9.084  19.503 -0.0784 -0.0579 -0.0869
  190W        W 1054  21.866  21.104  28.766 -0.2372  0.0794 -0.0494
  191W        W 1055  11.226  24.530  18.060 -0.0786  0.0341  0.0593
  192W        W 1056  21.443  21.672   4.318  0.0811  0.1035  0.2264
  193W        W 1057   5.898  18.513  16.374  0.1285  0.3368  0.1053
  194W        W 1058  24.498  27.134  19.291  0.3192 -0.2049 -0.0379
  195W        W 1059   1.391  26.327  12.354 -0.1951 -0.1320  0.0840
  196W        W 1060   8.002  16.080  18.805 -0.2751 -0.1864 -0.3681
  197W        W 1061   9.489   3.393  13.981  0.1843  0.1007  0.1181
  198W        W 1062  28.799   8.526  20.311  0.3060 -0.1853  0.2691
  199W        W 1063   2.353  12.785   9.688  0.2482  0.3090 -0.3617
  200W        W 1064  16.528  13.250   3.998  0.0139 -0.2466 -0.0009
  201W        W 1065   7.868  20.794   2.696  0.0978 -0.1046 -0.0827
  202W        W 1066  22.466  27.336   5.673  0.0101  0.1102  0.0437
  203W        W 1067  27.023   0.708   4.871  0.2075  0.0162 -0.2312
  204W        W 1068  19.724  29.119  17.340  0.0440 -0.1017 -0.1975
  205W        W 1069  11.623  28.027  27.219  0.0836  0.1169  0.0484
  206W        W 1070  18.311  28.765  13.387  0.1811 -0.1594  0.2576
  207W        W 1071   9.483  29.026  18.782 -0.1509 -0.1065 -0.0010
  208W        W 1072  23.417   5.930   1.621 -0.0353  0.1044 -0.1036
  209W        W 1073  25.311  18.828  21.492  0.0818 -0.0507  0.1545
  210W        W 1074   4.820   0.532   1.193 -0.3379 -0.0544 -0.0900
  211W        W 1075  23.534  16.751  24.139  0.1881 -0.0002 -0.3885
  212W        W 1076  13.070  14.552   1.383 -0.1319  0.0297  0.0174
  213W        W 1077  20.583   9.248  26.701 -0.1062 -0.1211 -0.2464
  214W        W 1078  27.562   9.640  19.718 -0.3095 -0.0460 -0.2623
  215W        W 1079   5.332  16.378  15.283 -0.1397  0.2853  0.4099
  216W        W 1080  19.504   6.233   1.811  0.0041  0.0346  0.1406
  217W        W 1081  11.604  21.388   6.797  0.1873 -0.1060  0.3321
  218W        W 1082  14.636  15.070   6.554  0.2304 -0.0336  0.2004
  219W        W 1083   8.044  18.497  12.902 -0.3585  0.1817 -0.0380
  220W        W 1084   2.876   9.240  20.414 -0.2271  0.1323 -0.2657
  221W        W 1085  16.623  17.697  17.740  0.1698 -0.1661  0.1566
  222W        W 1086   3.146  18.718  27.991 -0.1696 -0.3132  0.0751
  223W        W 1087   1.572   4.551   4.132 -0.2519  0.2845 -0.2468
  224W        W 1088  14.185   6.792  19.660  0.1612  0.4581 -0.2118
  225W        W 1089  25.039  28.650   3.618 -0.2260 -0.2444  0.2296
  226W        W 1090  22.746   9.363  14.780 -0.2789 -0.4520  0.1936
  227W        W 1091  13.906  26.108  14.055  0.1845  0.2422 -0.2543
  228W        W 1092  19.096  21.769   2.683 -0.0743 -0.1687  0.0271
  229W        W 1093  12.881  18.133  12.339  0.0748  0.1648  0.0926
  230W        W 1094  23.920  17.090   3.337  0.1905  0.0022 -0.4592
  231W        W 1095  26.994   5.969   9.305 -0.1244 -0.1198  0.2107
  232W        W 1096  22.869   9.315  25.562  0.3208 -0.3598 -0.1680
  233W        W 1097  28.560  21.437  20.669  0.0097 -0.2339 -0.1172
  234W        W 1098  24.848  26.946  10.363 -0.0407  0.0377  0.1835
  235W        W 1099   1.976   1.355  12.012  0.3625 -0.2464  0.0385
  236W        W 1100   0.373  17.507  22.624  0.2371  0.0668  0.1237
  237W        W 1101  19.845  23.185  19.137 -0.0308 -0.0291 -0.1643
  238W        W 1102  11.084  24.026   8.303 -0.0730  0.0828 -0.2870
  239W        W 1103  20.679  20.293  20.293 -0.0188  0.0137  0.2194
  240W        W 1104  23.053   2.731  25.874  0.1230 -0.2769 -0.1247
  241W        W 1105  10.419  16.998   5.526 -0.2033 -0.0099  0.3704
  242W        W 1106  26.573  15.837  27.314  0.1475 -0.1858 -0.1044
  243W        W 1107  28.133  15.997   8.428  0.0184  0.0306 -0.0046
  244W        W 1108   0.055  23.535  17.269  0.1666 -0.0742  0.2287
  245W        W 1109   3.796  24.919  19.458 -0.1441  0.0824 -0.1870
  246W        W 1110  20.608   8.698   9.827  0.0428 -0.2389  0.0491
  247W        W 1111   0.074  13.024   3.162  0.0240  0.0048  0.1460
  248W        W 1112   6.276   7.549  23.141 -0.2112 -0.1005  0.0355
  249W        W 1113   0.283  24.789  20.231  0.0885 -0.1529 -0.2361
  250W        W 1114  17.006  22.170  28.470 -0.1868 -0.0852  0.1733
  251W        W 1115   0.562   7.518   3.732  0.0303  0.1274  0.3487
  252W        W 1116  26.705   9.985  12.427 -0.2848 -0.5048  0.3300
  253W        W 1117  13.707  18.180  25.282 -0.2015  0.0203  0.2501
  254W        W 1118  24.974  16.638  21.502 -0.0250  0.3896 -0.3773
  255W        W 1119   6.887  26.739   0.237 -0.0725  0.1440 -0.0057
  256W        W 1120  12.570  29.024  11.996  0.1865  0.1643 -0.3645
  257W        W 1121   6.423  12.954  12.689 -0.0517 -0.6019 -0.1295
  258W        W 1122  22.150  15.021  18.333  0.3178  0.2031  0.1123
  259W        W 1123  24.589  13.176  14.227  0.0015  0.2316  0.0099
  260W        W 1124  26.902   2.660   6.294 -0.0129  0.0651  0.3970
  261W        W 1125  24.934   1.385  24.932 -0.1585  0.2483  0.0634
  262W        W 1126  25.825  14.286  25.129  0.0364 -0.0205 -0.1585
  263W        W 1127   1.760  18.508  21.111  0.0595  0.1340  0.1705
  264W        W 1128  20.892   0.831  22.603 -0.0753  0.1583 -0.0062
  265W        W 1129  11.679  15.271  26.535 -0.0842 -0.2687  0.1208
  266W        W 1130  15.730  18.606   9.351 -0.0538  0.3019  0.2955
  267W        W 1131  24.448   2.463  21.104  0.2145  0.1687  0.0997
  268W        W 1132  27.811  27.950  18.615  0.5187  0.0677 -0.3305
  269W        W 1133  23.533  19.694   7.513  0.2164  0.2441 -0.2985
  270W        W 1134   8.472  19.593  12.392 -0.2525  0.3432  0.0887
  271W        W 1135  26.446  21.530   1.735 -0.0669  0.1656  0.3714
  272W        W 1136   6.951  10.476  17.654  0.1789 -0.1660  0.2179
  273W        W 1137  13.785   3.834  16.711  0.0895  0.0753  0.0755
  274W        W 1138   8.627   5.349  18.136  0.1780 -0.0328 -0.1113
  275W        W 1139  12.955  19.608   0.075 -0.0064  0.2473 -0.0537
  276W        W 1140  20.343  12.774  13.359 -0.0618  0.0982  0.0476
  277W        W 1141  28.358  23.741  21.259 -0.1517  0.2732 -0.2472
  278W        W 1142  14.500  12.244  13.497 -0.2552  0.2997  0.0190
  279W        W 1143  28.655  24.298  23.257  0.3279 -0.0162 -0.0884
  280W        W 1144   4.943   9.130   6.831  0.4099 -0.2398  0.2044
  281W        W 1145  28.345  21.853  23.689 -0.2087  0.0308 -0.1242
  282W        W 1146  24.072  23.442  12.404  0.1758 -0.1018  0.3073
  283W        W 1147  10.838   3.193  18.000  0.0970  0.3867 -0.1020
  284W        W 1148  21.770  13.143  14.938 -0.1040 -0.0304 -0.4667
  285W        W 1149  24.825  23.368  10.776  0.0601 -0.1792 -0.0242
  286W        W 1150  24.148   5.174   8.791 -0.0359 -0.4594  0.0695
  287W        W 1151  19.869   4.347  28.292  0.1554  0.0452  0.2069
  288W        W 1152   4.648  17.930   1.334 -0.1049 -0.1996 -0.0501
  289W        W 1153   7.441   4.125  16.233  0.0022 -0.1282 -0.0003
  290W        W 1154   4.289  24.347  10.570 -0.0489 -0.0176 -0.1152
  291W        W 1155  14.509   0.241  28.382 -0.3558  0.3789  0.1970
  292W        W 1156  27.263  12.865  23.238 -0.0953 -0.2102  0.4213
  293W        W 1157   6.089  17.964  11.328  0.1776  0.2935 -0.3642
  294W        W 1158   3.510   9.929   8.202  0.0603  0.1049  0.0497
  295W        W 1159   5.422  19.878   9.016 -0.0620 -0.2953 -0.1663
  296W        W 1160  28.420  21.809  24.916 -0.1660  0.1413 -0.1163
  297W        W 1161  28.425  24.613   0.254  0.1863 -0.1238  0.0140
  298W        W 1162   1.503  15.884  13.057  0.0044 -0.0383 -0.0076
  299W        W 1163  20.844  27.296  13.124  0.0036 -0.1728 -0.0233
  300W        W 1164  24.695  12.337  12.864 -0.0554 -0.4237  0.1671
  301W        W 1165   0.710  11.423   8.934  0.1419  0.1349 -0.1375
  302W        W 1166  19.933  26.830  13.280 -0.0662 -0.1168 -0.2368
  303W        W 1167  19.045   1.365  27.017  0.1119  0.0466  0.2609
  304W        W 1168  21.273  12.055  11.548 -0.2203  0.2383 -0.3406
  305W        W 1169  13.290  18.277  19.179 -0.0489  0.1024 -0.0376
  306W        W 1170  12.839  23.405  27.870 -0.1905 -0.2149 -0.0724
  307W        W 1171  18.700  23.314  17.321  0.0023 -0.1544  0.0054
  308W        W 1172   4.772  28.298  20.403  0.0087  0.1231  0.0543
  309W        W 1173  22.386  23.927  24.758 -0.1276 -0.0581 -0.0508
  310W        W 1174   3.713  17.236   6.555  0.2135 -0.0542 -0.1563
  311W        W 1175   8.901   0.140  28.896  0.0852  0.2397  0.0049
  312W        W 1176  17.431   1.582  23.362  0.1154 -0.2854  0.0971
  313W        W 1177   1.875  18.418   1.978 -0.2466 -0.0895  0.0073
  314W        W 1178   5.929   4.069  12.975  0.2172 -0.2686  0.1035
  315W        W 1179  23.191  13.412  22.985 -0.1201 -0.2094 -0.2996
  316W        W 1180  20.156  17.166  13.009 -0.0103  0.1073  0.0490
  317W        W 1181  25.120   6.537   4.678 -0.1865  0.2237  0.3397
  318W        W 1182   1.773  28.996   1.259 -0.1923  0.0261  0.1316
  319W        W 1183  26.270  18.185   4.903  0.1322 -0.0269  0.0154
  320W        W 1184  17.441  26.345  25.743 -0.3107  0.1101  0.0813
  321W        W 1185   3.421  14.146  13.845  0.3408  0.2195 -0.3261
  322W        W 1186  11.631  16.235  18.176  0.0238 -0.1335  0.0179
  323W        W 1187  10.768   1.176  16.885  0.0067  0.0827 -0.0586
  324W        W 1188  17.126   2.935  16.563 -0.1930 -0.0054 -0.2681
  325W        W 1189  19.389   9.120  18.508 -0.3470  0.2175 -0.0080
  326W        W 1190  26.825   3.292  18.332  0.2091  0.1221 -0.0248
  327W        W 1191  13.290   2.338  10.904 -0.2745 -0.0404  0.3305
  328W        W 1192   0.243  12.339  19.247 -0.3701  0.2291  0.1515
  329W        W 1193  26.156  12.108   3.369 -0.0450 -0.1270 -0.2616
  330W        W 1194  20.254  16.901  22.533 -0.1404 -0.1409 -0.2909
  331W        W 1195  10.862  11.709  12.786 -0.0170 -0.5420  0.1159
  332W        W 1196  14.642  23.108   5.321 -0.1280  0.2964 -0.1596
  333W        W 1197  23.094   9.568   2.502  0.0487  0.1204  0.0367
  334W        W 1198  13.135  17.356  11.291  0.3154 -0.0277  0.0145
  335W        W 1199  22.703  19.298  20.055 -0.0766  0.1654 -0.2346
  336W        W 1200  19.193  21.179   4.026  0.0498  0.1351  0.0574
  337W        W 1201  25.101  14.508  24.648 -0.1779 -0.0767  0.0197
  338W        W 1202  25.811  22.893  28.593  0.3215  0.3072  0.3995
  339W        W 1203  17.871  11.050  28.513 -0.0663 -0.0932 -0.2186
  340W        W 1204  22.552  21.029   3.506  0.0073 -0.0465 -0.0064
  341W        W 1205   1.342   0.746   9.827  0.2249  0.0521 -0.1038
  342W        W 1206  26.131  25.063  26.251  0.2838  0.0169  0.1462
  343W        W 1207   1.142  15.896  13.950  0.1927 -0.0991 -0.0320
  344W        W 1208   0.155  17.886   6.684 -0.1198 -0.2713 -0.1301
  345W        W 1209  14.263  13.421  10.803 -0.1420  0.3930  0.1298
  346W        W 1210   3.645  24.174   6.363  0.3322  0.0935  0.0577
  347W        W 1211  18.261   4.350  20.624 -0.0934  0.2033  0.1832
  348W        W 1212  13.109   2.929   4.817  0.1109  0.1080  0.4217
  349W        W 1213  12.830  18.719  18.839 -0.0910  0.1191 -0.0246
  350W        W 1214  17.870   8.866  17.852 -0.0952 -0.1772  0.4016
  351W        W 1215   7.477  16.642  14.352  0.1726  0.2252  0.1452
  352W        W 1216  22.333  27.706   7.855  0.2153  0.2104  0.0693
  353W        W 1217  16.443   1.769  23.534 -0.1142  0.2723 -0.0578
  354W        W 1218  25.640   1.816  16.851 -0.0006  0.1945  0.2037
  355W        W 1219   2.456  28.244  21.970 -0.0289  0.0912 -0.3320
  356W        W 1220  26.803  10.765  21.769 -0.0341  0.2684 -0.1964
  357W        W 1221  26.100  27.053  17.076 -0.0376 -0.0386 -0.3152
  358W        W 1222  22.694  12.265  10.315 -0.2659  0.0977  0.0909
  359W        W 1223  24.412  26.621  23.798 -0.1661  0.1979 -0.1937
  360W        W 1224   1.777   1.038   5.711  0.1612  0.1024 -0.0189
  361W        W 1225  15.947  10.508  28.903  0.2195  0.1173  0.0616
  362W        W 1226   0.158  14.255  16.871 -0.1200 -0.1474  0.0663
  363W        W 1227   2.770  14.789   9.851 -0.1221  0.2064  0.0381
  364W        W 1228  11.940  23.227   2.786  0.0924 -0.0960  0.0753
  365W        W 1229  26.820  28.091  24.204  0.1900  0.0896  0.1147
  366W        W 1230   5.649  10.828  17.973 -0.1243  0.2345  0.0046
  367W        W 1231  18.291  20.795  16.060 -0.2513  0.2151  0.0408
  368W        W 1232  21.025  22.746  26.332  0.0251  0.3199 -0.1367
  369W        W 1233  22.698  21.138  16.203  0.0690  0.0597  0.0778
  370W        W 1234   1.477  22.752  20.164 -0.2424 -0.1173  0.0026
  371W        W 1235   9.295  16.172   0.698  0.2132 -0.0757 -0.3751
  372W        W 1236  25.992  24.271  15.901  0.2696 -0.0379  0.1720
  373W        W 1237   0.258  27.022  27.220 -0.0919  0.1782  0.2856
  374W        W 1238   1.934  10.574  16.449  0.2857  0.0406  0.0070
  375W        W 1239  24.718   1.591  23.589  0.2027 -0.0192 -0.1754
  376W        W 1240  24.777  16.639   1.761 -0.3344  0.0851 -0.1815
  377W        W 1241   2.232  28.118  15.086  0.0916 -0.0482  0.2555
  378W        W 1242  19.728   8.741  12.903  0.3116  0.2112  0.2881
  379W        W 1243  11.694  14.451  25.662 -0.2793 -0.2036  0.0280
  380W        W 1244  17.722   4.965  16.539 -0.3263  0.1411  0.2317
  381W        W 1245  28.242   0.457   4.629 -0.1513 -0.2647  0.1588
  382W        W 1246   5.934  18.483   1.461 -0.0474  0.0483 -0.3003
  383W        W 1247   6.536  17.762  18.454 -0.1327 -0.0449  0.2385
  384W        W 1248  17.956  23.476  25.662  0.2277  0.1247 -0.0416
  385W        W 1249  13.567  15.245   8.326 -0.1642 -0.3066 -0.1326
  386W        W 1250   6.067  26.932   6.950  0.2283 -0.1291  0.3297
  387W        W 1251  24.780  10.225   0.554 -0.1419  0.0602 -0.2762
  388W        W 1252  24.541  23.690  12.352 -0.3560  0.0707 -0.0053
  389W        W 1253  28.109  28.758   5.328  0.1346  0.0033  0.2948
  390W        W 1254   2.316  25.791   9.353 -0.2602 -0.1581  0.0294
  391W        W 1255  10.319  15.954  10.780  0.1405  0.3736 -0.0176
  392W        W 1256  23.519  22.466  19.231  0.2943 -0.0810  0.1472
  393W        W 1257  27.983  21.303   6.390  0.2282 -0.3784 -0.1845
  394W        W 1258  19.882  11.179  11.976  0.0448 -0.0801  0.0612
  395W        W 1259  23.550  22.742  16.501 -0.1065 -0.1679  0.1321
  396W        W 1260   4.070  26.238   3.825  0.1028 -0.1652 -0.4609
  397W        W 1261  12.688   3.211   7.686  0.1555 -0.0359 -0.2024
  398W        W 1262  20.973  26.507   4.082  0.0018  0.0078 -0.3421
  399W        W 1263   9.624  11.723  14.545  0.5298 -0.3426  0.0405
  400W        W 1264  21.860  21.640  22.312  0.1869  0.1089 -0.1152
  401W        W 1265  15.543  25.452  27.826 -0.1071  0.0277  0.1315
  402W        W 1266  28.326   0.299  12.015  0.0727  0.4472  0.1427
  403W        W 1267  17.045  16.599   6.955  0.2829  0.0026  0.1470
  404W        W 1268  28.746  17.822  28.300 -0.1574  0.0089 -0.2618
  405W        W 1269  28.515  21.747  21.712  0.0521  0.3850 -0.1186
  406W        W 1270  26.678   7.235   4.778 -0.2808  0.0018  0.0911
  407W        W 1271  27.200   1.022   2.876  0.3833  0.2794  0.0180
  408W        W 1272   7.083  29.026  13.009  0.4558  0.0121 -0.1137
  409W        W 1273   0.261  18.707  22.331  0.2812 -0.2634  0.3560
  410W        W 1274  28.580  13.896  21.520 -0.0045 -0.2546 -0.1624
  411W        W 1275  25.451   6.118  11.149  0.2552 -0.2618  0.1436
  412W        W 1276   2.531  14.623   4.488 -0.1942  0.2191  0.3493
  413W        W 1277   4.910  26.998  11.722  0.0036  0.1865 -0.0266
  414W        W 1278  10.542  26.417  25.116  0.3657  0.0218 -0.1583
  415W        W 1279  19.224  14.365  20.352 -0.0869 -0.0328 -0.0607
  416W        W 1280  19.562  28.467  19.927 -0.0524  0.1484 -0.0058
  417W        W 1281  27.299  13.296  12.225  0.0927  0.1195 -0.0336
  418W        W 1282  16.381   8.705  14.668 -0.0601  0.2371  0.1731
  419W        W 1283  10.114  18.326   1.469 -0.0099  0.0579 -0.1522
  420W        W 1284   2.724  25.909   7.346 -0.0357 -0.0617  0.0229
  421W        W 1285  26.657  21.927   5.859 -0.0550 -0.0366 -0.0957
  422W        W 1286  25.272  21.792  21.757  0.2210 -0.0142 -0.2111
  423W        W 1287   9.845  25.939  10.310  0.1885  0.0159  0.0467
  424W        W 1288  16.125  28.558  19.239  0.1436  0.1521 -0.0631
  425W        W 1289  17.791  16.328   1.523 -0.1678 -0.0004 -0.3005
  426W        W 1290  28.946  21.415  28.591 -0.1334 -0.2607  0.0697
  427W        W 1291  20.284   0.251  22.255 -0.0513  0.1007  0.0142
  428W        W 1292  26.066  28.366  23.798 -0.0698  0.2469  0.2357
  429W        W 1293  20.429  23.936   5.726 -0.1486  0.1044 -0.2608
  430W        W 1294  18.228  17.965  15.975 -0.3395  0.1401 -0.1006
  431W        W 1295   5.820  14.452   8.480 -0.0538  0.0364 -0.2610
  432W        W 1296  18.118   9.954   4.777  0.0360  0.0188  0.0852
  433W        W 1297  10.443  19.193  14.218  0.0386  0.1410  0.1585
  434W        W 1298  21.389  20.511  26.296 -0.0379 -0.0977 -0.3755
  435W        W 1299  28.552  17.010   1.002 -0.4461 -0.0587  0.0475
  436W        W 1300  25.610  14.388  11.393  0.1513  0.0414 -0.0891
  437W        W 1301  26.050  26.117  27.415 -0.3139 -0.0474 -0.1694
  438W        W 1302  10.922  20.069  16.509 -0.0758  0.3060 -0.1148
  439W        W 1303  26.771   6.359  18.846  0.0761  0.0965 -0.0118
  440W        W 1304  27.706  22.395   1.544 -0.2556 -0.1718  0.1027
  441W        W 1305   8.159  28.961  10.382 -0.0297 -0.1752 -0.3361
  442W        W 1306  20.941  10.185   6.814 -0.1174 -0.3317 -0.1321
  443W        W 1307  18.847  21.214  21.416 -0.0699  0.1899  0.0404
  444W        W 1308  15.432   3.591  12.219 -0.0801 -0.0893 -0.1224
  445W        W 1309  25.175  20.593   7.190 -0.0566  0.0887 -0.1007
  446W        W 1310   5.567  25.208   1.740 -0.0495  0.3260 -0.0686
  447W        W 1311   1.600  10.188  16.375 -0.0847 -0.1177  0.0956
  448W        W 1312  24.857   1.492  17.718 -0.1766  0.4083  0.2226
  449W        W 1313  25.540  21.873  10.376  0.2715 -0.0978  0.3568
  450W        W 1314  27.127  23.549  12.493  0.3618  0.0718  0.1159
  451W        W 1315  11.519  26.074  20.283  0.0468  0.1408 -0.0178
  452W        W 1316  26.289  25.659  24.287  0.0370  0.2097  0.0834
  453W        W 1317  19.119  19.917   5.696 -0.3683  0.0927 -0.3606
  454W        W 1318   0.608  17.741  27.037  0.0624  0.1240 -0.1503
  455W        W 1319  25.840  25.168  14.535  0.1155  0.2046  0.0095
  456W        W 1320   9.331  26.901  28.689  0.1219  0.1702 -0.1264
  457W        W 1321  23.249  26.045  21.906 -0.2506 -0.1354 -0.0556
  458W        W 1322  26.551  20.822   2.595  0.0630  0.0326 -0.1061
  459W        W 1323  24.684  25.751  20.570 -0.0712 -0.0664 -0.1895
  460W        W 1324   5.106  29.112  13.936 -0.1815  0.0306  0.1347
  461W        W 1325   1.644   3.419  16.918 -0.0885  0.2582 -0.3800
  462W        W 1326   7.814   4.425  19.023 -0.0658  0.0998  0.0371
  463W        W 1327   8.942  11.562  22.350  0.1502  0.2104  0.0517
  464W        W 1328  11.104  20.466  14.695 -0.3718 -0.4843  0.2637
  465W        W 1329  16.473  26.677  12.003 -0.1510 -0.0650  0.1866
  466W        W 1330  27.293   6.163  12.186 -0.0894  0.0632 -0.0652
  467W        W 1331  19.057  24.529  24.365 -0.2961 -0.2142  0.0441
  468W        W 1332  19.225  22.112  14.824 -0.0518 -0.3585 -0.0326
  469W        W 1333  10.333  24.806  20.451 -0.4257 -0.0413 -0.0138
  470W        W 1334  13.993   4.170  22.164 -0.2033  0.0871  0.1857
  471W        W 1335   1.943   1.422   2.898 -0.0720 -0.1234  0.0870
  472W        W 1336   9.140  22.045  23.953  0.3414  0.0043  0.2028
  473W        W 1337   2.849  12.732  28.328 -0.2815 -0.4033 -0.3591
  474W        W 1338  17.151   9.296  17.034 -0.1080  0.1070 -0.2586
  475W        W 1339  26.668  27.171   1.194 -0.2817  0.0374  0.0450
  476W        W 1340  11.253   0.925  20.857  0.0048  0.2171 -0.1111
  477W        W 1341  12.464   3.043  28.492  0.2567  0.1313  0.1078
  478W        W 1342   9.230  18.939  12.410  0.0481  0.2909  0.0688
  479W        W 1343  19.448  28.002  10.546 -0.0455  0.2239 -0.0899
  480W        W 1344  27.820  14.264   8.856 -0.0126 -0.2554  0.0525
  481W        W 1345  28.078  16.347   1.365  0.0919 -0.0397 -0.2232
  482W        W 1346  17.837   5.026  25.017 -0.0298  0.1154  0.0887
  483W        W 1347   2.669   5.893  11.239  0.0484  0.0374 -0.0026
  484W        W 1348   7.951  19.574  20.775 -0.2107 -0.2146  0.1132
  485W        W 1349   8.312  11.516  25.580  0.2081 -0.0709  0.1222
  486W        W 1350  14.796  16.886  16.858  0.3784  0.1622  0.0149
  487W        W 1351  17.108  19.841  12.725 -0.1216  0.4240  0.1892
  488W        W 1352   5.944  26.872  15.908 -0.0295 -0.1091  0.2199
  489W        W 1353   9.349  11.072  24.381 -0.0727  0.3847 -0.0502
  490W        W 1354  15.542  18.446  17.647  0.0176 -0.0756 -0.3325
  491W        W 1355  16.052  25.859   5.439  0.0323 -0.0278  0.3439
  492W        W 1356  25.788  19.137  28.150 -0.0410 -0.0023 -0.0218
  493W        W 1357  26.427  18.285   0.028 -0.2502  0.1603 -0.0381
  494W        W 1358  20.799  16.324  28.407 -0.1424  0.0307 -0.1767
  495W        W 1359  13.615  26.033  14.416  0.1145 -0.0976 -0.3161
  496W        W 1360   4.076  13.968  21.714  0.2237  0.0624  0.1441
  497W        W 1361   0.709  28.433  23.511 -0.1837 -0.0189  0.0471
  498W        W 1362   1.953  10.607  20.155 -0.0359  0.2731 -0.1015
  499W        W 1363  11.207  24.861  13.592  0.2725 -0.0195  0.1744
  500W        W 1364   5.195  13.133  21.642 -0.3851 -0.0076  0.0393
  501W        W 1365  10.622   7.194   6.365 -0.0828 -0.3673 -0.5161
  502W        W 1366  28.381   5.880  16.111 -0.3402  0.0553 -0.1844
  503W        W 1367   2.824   8.096  11.803  0.2974 -0.2754 -0.0106
  504W        W 1368   0.175  11.659  10.988 -0.0434 -0.0274  0.1911
  505W        W 1369  27.498  26.691   5.635 -0.1123  0.1119 -0.0272
  506W        W 1370   8.598  13.370   8.996 -0.1580  0.0001  0.1033
  507W        W 1371  25.984  23.358   2.793 -0.1915  0.1901 -0.0892
  508W        W 1372  21.642  14.897   7.003 -0.1197 -0.0994  0.0069
  509W        W 1373  10.386   1.715  18.279  0.1054  0.1816  0.1113
  510W        W 1374  23.333  28.146  17.686  0.0195  0.1456 -0.1370
  511W        W 1375  23.600  27.203   3.791 -0.1465 -0.2191 -0.0284
  512W        W 1376   2.509  18.099  15.802  0.1297 -0.2964 -0.1817
  513W        W 1377  19.894  21.036  25.353 -0.1994 -0.0012 -0.0743
  514W        W 1378   9.743  28.874  15.778  0.1473  0.1473 -0.3354
  515W        W 1379   0.324   3.026  28.305 -0.2933 -0.2611 -0.3292
  516W        W 1380  11.694  19.867   7.664  0.2194  0.3808 -0.1638
  517W        W 1381  23.474   2.227  19.421  0.0328 -0.2234 -0.0387
  518W        W 1382  27.883  21.771   6.546 -0.4221  0.1144  0.0456
  519W        W 1383   7.566  25.118  22.949  0.3279 -0.1620  0.2179
  520W        W 1384   1.678  21.540   1.421 -0.0419 -0.0692  0.3936
  521W        W 1385  16.730  26.438  28.644  0.0404  0.0966  0.1158
  522W        W 1386   9.418  22.460   4.886  0.2377  0.2581  0.1081
  523W        W 1387   1.291  22.826   7.238 -0.2324 -0.2269 -0.2713
  524W        W 1388  11.340  21.217  21.397 -0.0520 -0.1001 -0.1799
  525W        W 1389   5.566  27.897   7.147  0.4546  0.0656  0.5090
  526W        W 1390  22.179  26.007  24.467  0.2758 -0.0854 -0.3586
  527W        W 1391   9.874   9.097  17.906  0.1712  0.1375  0.1159
  528W        W 1392   1.228   1.269  25.800 -0.2518 -0.0591 -0.1717
  529W        W 1393  10.384  13.713   3.582  0.3709 -0.0821 -0.0256
  530W        W 1394  20.324  16.814  25.557 -0.2988 -0.0833  0.1386
  531W        W 1395  12.205  15.193   1.357 -0.0867 -0.1147 -0.1816
  532W        W 1396  20.714  20.181  18.735  0.0811 -0.0616 -0.0171
  533W        W 1397  23.196  11.192  23.188 -0.0887 -0.0358  0.2093
  534W        W 1398   1.626  13.157  26.409  0.0151  0.3978 -0.3253
  535W        W 1399  14.726  14.529  16.796  0.0690  0.2118  0.1282
  536W        W 1400  18.868  27.913  17.972 -0.0479  0.2215 -0.2182
  537W        W 1401   2.217   9.263  16.650 -0.0790 -0.1426  0.2638
  538W        W 1402  14.148   9.899  17.584 -0.2718 -0.0051  0.0359
  539W        W 1403  25.316   7.745   7.423 -0.1519 -0.2001 -0.0569
  540W        W 1404  19.118  26.800   5.118  0.3459 -0.0173  0.1486
  541W        W 1405   5.848  14.591   1.078 -0.0594 -0.1110  0.0762
  542W        W 1406  18.901  14.135  23.365  0.0196 -0.1978  0.2695
  543W        W 1407  13.228  28.466  21.212  0.1293  0.0955  0.0350
  544W        W 1408  15.471  13.737   8.770 -0.0511 -0.1421 -0.2119
  545W        W 1409   4.026  21.946  15.470 -0.1911 -0.0689 -0.0398
  546W        W 1410  21.906  22.060  21.926 -0.0128 -0.1403 -0.1124
  547W        W 1411  24.697  24.897   0.020 -0.1704 -0.2827  0.3887
  548W        W 1412   1.804  27.836  12.477  0.1808  0.1019  0.1680
  549W        W 1413   1.777  21.313   2.346  0.0321  0.2677 -0.0215
  550W        W 1414  25.845  28.721   8.670  0.1166  0.1739 -0.2299
  551W        W 1415  21.261  26.586  24.257  0.2104  0.1090 -0.1442
  552W        W 1416  24.723  23.327   0.480  0.1461  0.0336 -0.2005
  553W        W 1417   0.438  17.374  18.710 -0.0682 -0.0362 -0.1099
  554W        W 1418  24.326   0.054  26.840 -0.0352 -0.2196  0.0169
  555W        W 1419  17.591  16.279   0.882  0.2101 -0.0266  0.1358
  556W        W 1420  23.324  12.736   3.594 -0.1043 -0.3698  0.1610
  557W        W 1421  17.714  10.974  28.010 -0.3032  0.0047 -0.1448
  558W        W 1422  14.755  24.221  18.980  0.2282 -0.2871  0.1129
  559W        W 1423  24.655  23.578  13.334 -0.1371  0.2462  0.0254
  560W        W 1424   7.777  15.962  20.337  0.0667 -0.0348  0.1460
  561W        W 1425  13.588  26.642  10.059 -0.1462 -0.0395 -0.0206
  562W        W 1426   0.592  26.162  23.387 -0.0903 -0.2235  0.1332
  563W        W 1427  10.337   2.486  19.719  0.1352  0.0901 -0.1899
  564W        W 1428  21.547  16.845  27.886  0.0583 -0.1931  0.2524
  565W        W 1429  17.073   5.192  25.499 -0.2521 -0.0310  0.0776
  566W        W 1430  27.805  24.746  10.560 -0.1028  0.1210 -0.0422
  567W        W 1431  14.600  10.715  20.202  0.1972 -0.1889 -0.0233
  568W        W 1432   9.212   1.292  16.159  0.2006  0.0541 -0.0385
  569W        W 1433  22.512  16.483  25.838 -0.0525  0.1856 -0.0093
  570W        W 1434   5.172  20.450  27.643 -0.1778 -0.1065  0.0593
  571W        W 1435  10.825  24.061  10.795  0.1799 -0.1090 -0.2461
  572W        W 1436  27.466  24.008   9.624  0.1562  0.2189  0.1224
  573W        W 1437   8.935  13.403   6.376 -0.2820  0.0981 -0.1191
  574W        W 1438  24.260  21.693  24.670 -0.2041  0.0140 -0.1173
  575W        W 1439  20.524  26.659   6.076 -0.0249 -0.1944  0.0910
  576W        W 1440   9.364   6.178  23.698  0.1908 -0.4680  0.3272
  577W        W 1441   7.689  25.609   7.810 -0.3406 -0.0166 -0.3400
  578W        W 1442  15.493  22.284   4.717  0.3714 -0.2134 -0.2150
  579W        W 1443   8.107  21.446  14.490 -0.2303 -0.1984 -0.0933
  580W        W 1444  17.060  22.995  18.991  0.2723  0.2605 -0.0968
  581W        W 1445  26.520  23.149  23.218  0.0881  0.1572  0.3493
  582W        W 1446   4.990  25.553  23.372  0.0305  0.0641 -0.1054
  583W        W 1447  10.208   2.766   8.609  0.0954 -0.0167 -0.0326
  584W        W 1448  16.482   1.056   9.824  0.2869  0.1156 -0.2190
  585W        W 1449   8.289   6.691   0.606 -0.3906  0.1675 -0.0272
  586W        W 1450  22.636   4.896  17.171  0.0586 -0.0229  0.0829
  587W        W 1451  17.558  11.079   9.283  0.0038 -0.3145  0.0559
  588W        W 1452   0.549  11.697  29.069 -0.3311 -0.2268  0.2381
  589W        W 1453  22.580   1.007  13.956  0.1467 -0.2075 -0.1423
  590W        W 1454   0.203  20.825  19.936 -0.0212  0.0604 -0.3370
  591W        W 1455   3.646   5.507  19.862 -0.0648  0.1663  0.2726
  592W        W 1456  15.775  15.959   3.842  0.1799  0.4234  0.0672
  593W        W 1457  17.938   1.618  15.438  0.2161  0.1220  0.2567
  594W        W 1458   7.518   3.197   2.088  0.1102  0.0977 -0.0571
  595W        W 1459  22.587  17.183  19.896  0.1397  0.1980 -0.1723
  596W        W 1460  20.592   1.594  20.661 -0.0786  0.1771  0.4535
  597W        W 1461  22.205  12.747  10.954  0.0250 -0.0567 -0.0192
  598W        W 1462   1.317   8.445  19.532  0.0644 -0.1291  0.3617
  599W        W 1463  14.297   3.394  14.006  0.0947  0.0448 -0.1489
  600W        W 1464  11.985   4.838   0.045 -0.1273 -0.0115 -0.0819
  601W        W 1465   3.125  13.645   3.410 -0.2233 -0.0195 -0.0184
  602W        W 1466  14.352  27.418   7.289 -0.4427 -0.2357 -0.0865
  603W        W 1467  10.113  11.768  13.310 -0.1384 -0.1685  0.0478
  604W        W 1468   6.262  10.394  20.677  0.4062  0.3518  0.0011
  605W        W 1469  19.149  13.765  28.397 -0.1068 -0.1577  0.3138
  606W        W 1470   8.186  12.112  16.110 -0.2749  0.3574 -0.0008
  607W        W 1471   1.715  14.171  25.515 -0.0391  0.1474 -0.3130
  608W        W 1472   9.555  22.237  20.874  0.1843 -0.3919 -0.2184
  609W        W 1473  26.694  21.421  22.252 -0.0586  0.2272  0.3098
  610W        W 1474   3.511   7.844  17.556 -0.1596 -0.0857 -0.2958
  611W        W 1475  22.625   2.279   4.127 -0.0775 -0.2100 -0.2033
  612W        W 1476  25.803  11.910  28.289  0.1480 -0.0137  0.0480
  613W        W 1477  26.537   8.483  25.229  0.2875  0.0102  0.0232
  614W        W 1478  21.210  20.123  15.089  0.1418  0.3578  0.1192
  615W        W 1479  28.239   6.793  13.669  0.2973  0.1213  0.3321
  616W        W 1480   2.563  28.799  10.277  0.1172  0.3868 -0.3270
  617W        W 1481   5.101   3.444  17.561 -0.0752  0.0491  0.0647
  618W        W 1482  22.835  18.442  25.632  0.3319  0.0407  0.2866
  619W        W 1483  25.090   3.391  22.734 -0.2175 -0.0990 -0.1057
  620W        W 1484  23.748   2.131   8.439  0.0857  0.1241 -0.0092
  621W        W 1485  19.586  23.415   2.775  0.1022  0.3498  0.2434
  622W        W 1486  27.466  20.642  23.763 -0.0630 -0.0879  0.3605
  623W        W 1487  27.405  22.369  12.897 -0.2967  0.1711  0.3906
  624W        W 1488   2.323   7.544  20.412 -0.2420  0.1376  0.2033
  625W        W 1489  20.734  11.045  26.609 -0.2366  0.0865  0.0204
  626W        W 1490   6.175  13.931   8.464  0.1417 -0.2912  0.4265
  627W        W 1491  28.726  18.117  20.804  0.0888 -0.0933  0.2664
  628W        W 1492  24.873  28.185  25.764  0.1196  0.3139 -0.1904
  629W        W 1493  26.042   6.566  13.384 -0.0455 -0.1202 -0.0165
  630W        W 1494  20.030  15.194   1.630 -0.3828 -0.1060  0.0548
  631W        W 1495   8.181  22.519  22.772  0.4147 -0.1164  0.0442
  632W        W 1496   8.460  26.931   0.343  0.1592 -0.2532  0.0446
  633W        W 1497  11.596   1.809  26.443  0.3301 -0.0223  0.0294
  634W        W 1498   2.314   1.034  10.434  0.1870  0.3135 -0.0208
  635W        W 1499   4.229  12.613   6.064  0.3860 -0.3195 -0.2198
  636W        W 1500  26.121  27.436   1.227 -0.0916  0.2144  0.2737
  637W        W 1501  21.907  21.718   5.339 -0.1720 -0.0659 -0.0430
  638W        W 1502   2.660  13.824  22.904  0.1663 -0.1318  0.2542
  639W        W 1503  18.527  19.933   6.615  0.1782 -0.0701  0.3820
  640W        W 1504  17.133  14.624  28.415  0.1230  0.1350 -0.2194
  641W        W 1505  26.461  26.184  24.910  0.1672 -0.3119 -0.1007
  642W        W 1506   3.962   2.890  22.159  0.2030 -0.0320  0.0802
  643W        W 1507  19.365  28.168   9.578 -0.1210 -0.0409 -0.1385
  644W        W 1508  17.788  12.873  16.653  0.0730  0.1985  0.1516
  645W        W 1509   4.051  28.362  11.308  0.1766  0.5101 -0.1521
  646W        W 1510  22.123  21.408  19.309 -0.0217 -0.1013  0.2658
  647W        W 1511   2.985  18.809  20.546 -0.0633 -0.2316 -0.0229
  648W        W 1512  28.341  12.059  27.142 -0.0162  0.1152  0.3171
  649W        W 1513   1.388  10.056  19.747 -0.1420 -0.0010 -0.0726
  650W        W 1514  15.809  23.298  27.038 -0.4360  0.1012 -0.4733
  651W        W 1515  24.973  10.106  22.147 -0.1033  0.0969  0.1519
  652W        W 1516  24.806   8.674  12.409  0.0726 -0.0890 -0.1594
  653W        W 1517  27.185   6.299   6.290  0.0299  0.1865 -0.3680
  654W        W 1518  28.522  24.936  15.749  0.3738  0.0150 -0.3407
  655W        W 1519  21.024  25.632  25.102  0.1524 -0.0105 -0.0058
  656W        W 1520   4.087   4.074  18.202  0.0603 -0.1271  0.1727
  657W        W 1521   0.312  19.050  17.468 -0.1134  0.0693  0.1899
  658W        W 1522  16.037  21.905  18.407 -0.2039 -0.0195 -0.0428
  659W        W 1523  22.377   1.513  28.783 -0.0078 -0.1535  0.2050
  660W        W 1524   6.466  24.027  11.713 -0.3282 -0.1180 -0.2001
  661W        W 1525  20.886  20.046  20.743  0.1195 -0.1483  0.1554
  662W        W 1526   9.833  17.831  10.230 -0.0262 -0.0447 -0.3564
  663W        W 1527  18.293   4.743   4.064  0.3864  0.2556  0.0148
  664W        W 1528  22.658  20.928  19.314  0.1315  0.1121  0.1210
  665W        W 1529   4.051  13.193  13.768 -0.0335 -0.0974  0.1547
  666W        W 1530  19.834  23.266  18.659  0.0314 -0.1667  0.0532
  667W        W 1531  26.150  22.124  15.642  0.1638  0.0306 -0.1524
  668W        W 1532  26.746   1.343  18.039  0.0083 -0.2126  0.1158
  669W        W 1533  25.746   7.528  25.562 -0.1551  0.2752  0.1661
  670W        W 1534  27.094  17.413  17.893 -0.1682 -0.0051  0.4372
  671W        W 1535   9.060  21.858  19.186  0.0466 -0.0669  0.2181
  672W        W 1536  22.058  24.936  25.594  0.2286 -0.0411  0.0023
  673W        W 1537  18.379  21.091  20.214  0.2068 -0.0695  0.0054
  674W        W 1538  28.604  24.114  15.741 -0.0389 -0.1448 -0.0963
  675W        W 1539   3.035  16.236  28.757 -0.0109 -0.1475 -0.1137
  676W        W 1540  18.587  21.329  19.516  0.0663 -0.1522  0.2307
  677W        W 1541  13.772   6.545  22.142  0.0963  0.3896 -0.0200
  678W        W 1542   6.407   0.530  28.113 -0.0815  0.1577 -0.2803
  679W        W 1543   3.072   6.456  25.050  0.1343  0.4320  0.3510
  680W        W 1544   9.906  12.744  19.309 -0.1091 -0.1830 -0.1217
  681W        W 1545   4.274  28.187  22.864  0.0389  0.0852 -0.0923
  682W        W 1546   5.501  21.794  17.998 -0.0336  0.1793  0.0417
  683W        W 1547   9.536  13.015   9.713 -0.2349  0.0359  0.1611
  684W        W 1548  28.262   3.539  18.785  0.2930  0.2680 -0.1962
  685W        W 1549   5.829  27.882  23.216 -0.1183  0.0469  0.1196
  686W        W 1550  17.916  25.277  18.120  0.0266 -0.1484 -0.3262
  687W        W 1551   5.868  24.771  18.650 -0.1061  0.0605 -0.1878
  688W        W 1552   0.014   7.382  18.150  0.2000  0.0390 -0.0266
  689W        W 1553  24.531  25.648  16.465  0.0519  0.1607  0.1503
  690W        W 1554   5.214  19.632  21.177 -0.2683 -0.0132 -0.0056
  691W        W 1555   4.165  27.330  22.254  0.0360 -0.2445  0.4615
  692W        W 1556   5.640  20.224   9.503  0.0291  0.1119  0.2902
  693W        W 1557  24.540  13.607  17.178 -0.0633  0.2865 -0.0147
  694W        W 1558  19.495  10.491   0.525 -0.0471  0.0440  0.0296
  695W        W 1559  20.372  11.821   0.850  0.3549  0.1619  0.1074
  696W        W 1560  16.428  18.722  12.881  0.0415  0.1237  0.0744
  697W        W 1561  22.381  25.950  12.206 -0.0630  0.2267 -0.1851
  698W        W 1562  25.095   4.870  16.882  0.0899  0.1904  0.2832
  699W        W 1563  27.552   2.454   0.552  0.0554  0.3608 -0.0532
  700W        W 1564   2.430  26.909   0.876 -0.0167  0.1022  0.0386
  701W        W 1565  28.866   8.049   3.721  0.1370 -0.0388  0.1543
  702W        W 1566  28.402  13.761  13.464 -0.0114  0.1875 -0.1469
  703W        W 1567  27.496   3.245  17.030 -0.1759  0.2568 -0.0183
  704W        W 1568  25.178   9.991  20.906 -0.2033  0.2534 -0.1788
  705W        W 1569   5.835   1.014  17.455  0.0410  0.2421  0.0956
  706W        W 1570  12.410   7.213   3.516  0.1121  0.2018  0.0432
  707W        W 1571  26.382  24.704  25.666  0.1458  0.0951  0.2107
  708W        W 1572  22.284  20.474  25.788 -0.2563 -0.4189  0.0425
  709W        W 1573  18.055  10.854  13.999 -0.2406  0.1432  0.1076
  710W        W 1574  23.378  21.716  17.474  0.1778  0.2338 -0.1917
  711W        W 1575  13.630  19.561  22.928 -0.0504  0.0567 -0.1945
  712W        W 1576   1.703  18.428  17.228 -0.1813  0.3943 -0.1477
  713W        W 1577   6.228  24.047  16.083 -0.2478  0.0656  0.0721
  714W        W 1578   9.029  13.872  13.689 -0.1039 -0.0285 -0.1137
  715W        W 1579   0.347  20.305   8.456  0.0743 -0.2779 -0.2819
  716W        W 1580  28.176  23.908  19.393 -0.0465  0.1876  0.2075
  717W        W 1581  23.187  20.721   1.143 -0.0122  0.1126  0.2180
  718W        W 1582  20.853  26.010   4.086  0.3175  0.3058 -0.3009
  719W        W 1583  20.367   0.600  23.556  0.0546  0.0890 -0.1285
  720W        W 1584  29.127  18.241  11.575  0.0587  0.0645  0.1326
  721W        W 1585   7.261   7.936  21.637  0.1996  0.0304 -0.2440
  722W        W 1586   5.491  22.935  15.240  0.0338 -0.3202  0.0711
  723W        W 1587   6.129  15.565  23.870 -0.2984  0.0262 -0.0430
  724W        W 1588   5.314  27.433  18.490  0.2428  0.1014  0.0337
  725W        W 1589  26.079  17.514  18.825 -0.0661 -0.4912  0.1805
  726W        W 1590  17.466  26.877  25.329  0.2426 -0.1516 -0.2164
  727W        W 1591  11.901  18.321  20.346  0.0157 -0.1843 -0.1899
  728W        W 1592   9.492  27.632  25.329 -0.2273 -0.0419 -0.0689
  729W        W 1593  17.296  16.228  22.898  0.0091  0.1564 -0.0379
  730W        W 1594   2.490  14.328  22.348  0.0159 -0.4412 -0.1522
  731W        W 1595   2.888  23.798  16.269 -0.0075  0.1187  0.0489
  732W        W 1596  24.180   0.432   0.821  0.1997  0.0479 -0.1343
  733W        W 1597  24.644   8.943  16.053  0.2128  0.1525  0.1060
  734W        W 1598  27.215   0.497  27.665  0.2636 -0.2471 -0.2085
  735W        W 1599  20.598  14.913  16.357  0.1363 -0.2268 -0.2846
  736W        W 1600  21.381  20.836  22.972  0.0565  0.0865 -0.1185
  737W        W 1601   1.314  19.599   7.490 -0.0529  0.0161  0.2429
  738W        W 1602  18.515  26.504  23.568 -0.0038  0.2525  0.3181
  739W        W 1603   2.525  22.243   3.091  0.0740 -0.1340  0.1872
  740W        W 1604  23.781   1.783  21.441 -0.1844 -0.0995 -0.0745
  741W        W 1605  27.326  18.392   6.696  0.1127  0.0171  0.0564
  742W        W 1606   7.302  20.159   6.704 -0.1222  0.3919 -0.3369
  743W        W 1607  22.806  25.710  23.911 -0.3074  0.0443  0.0938
  744W        W 1608  12.922   9.713  25.740  0.0912 -0.0426 -0.2324
  745W        W 1609  21.862  11.612  28.657 -0.0162 -0.1145 -0.0679
  746W        W 1610   0.994  23.364  20.603  0.2391 -0.0430 -0.2629
  747W        W 1611  22.678   0.822  18.216 -0.1801 -0.1432  0.1016
  748W        W 1612   1.089   8.311   7.856  0.1060  0.2035  0.0203
  749W        W 1613  21.114  24.993  21.372  0.0475 -0.1060  0.1806
  750W        W 1614   9.434   2.345  21.013  0.1055 -0.1631  0.1347
  751W        W 1615  24.436   2.969   3.432 -0.0884 -0.0169 -0.1761
  752W        W 1616   3.290  15.075  14.472 -0.0800  0.1793  0.0338
  753W        W 1617  23.992   3.316  12.399 -0.0911 -0.1663  0.0819
  754W        W 1618   2.144  24.030  22.895 -0.1228 -0.0452 -0.6548
  755W        W 1619  27.443  14.893  20.821 -0.0228 -0.1362  0.1234
  756W        W 1620  19.869  18.090  18.851 -0.1532  0.0340  0.1068
  757W        W 1621  16.212  21.842  24.300  0.2606  0.2578 -0.4282
  758W        W 1622   3.538   9.970  16.154  0.1324  0.2595  0.3041
  759W        W 1623  27.130   2.065  27.910  0.2197  0.1848  0.0583
  760W        W 1624   3.328  10.135  12.259 -0.2272 -0.0593  0.4219
  761W        W 1625   3.166  18.862  29.076 -0.0763 -0.1318 -0.1274
  762W        W 1626  24.616  22.156  24.578 -0.1014 -0.3909  0.1054
  763W        W 1627  10.098   3.736   9.061  0.1163  0.0564 -0.2573
  764W        W 1628  20.063  24.180  18.197 -0.1477 -0.0546  0.1485
  765W        W 1629  16.831  14.648   8.937 -0.2374 -0.0055  0.0806
  766W        W 1630  23.485  27.215   8.486  0.1283  0.0469  0.2553
  767W        W 1631   7.902   8.687  16.411 -0.0710  0.0303 -0.2762
  768W        W 1632   8.911  15.475  27.179 -0.1251 -0.2455 -0.0133
  769W        W 1633  10.153  18.572  21.584 -0.0673  0.0230  0.0641
  770W        W 1634   5.849   1.340   7.031 -0.0447 -0.0486  0.2718
  771W        W 1635  22.036  16.508  13.325  0.0220  0.0479 -0.0924
  772W        W 1636  26.643  12.564  18.657  0.2498  0.1209 -0.0756
  773W        W 1637   2.616   8.499  17.259  0.1524  0.2070 -0.1364
  774W        W 1638   9.659   1.516  22.309 -0.0416  0.2171  0.0088
  775W        W 1639   2.201  19.952  27.559  0.1459  0.1280  0.0492
  776W        W 1640   3.958  21.414  24.844  0.1244 -0.0801  0.1987
  777W        W 1641  27.687  24.157  16.828  0.2085  0.2893 -0.1407
  778W        W 1642   8.982   8.246  20.517 -0.4209 -0.2883  0.0241
  779W        W 1643  15.731  22.884   2.295 -0.1686 -0.2279  0.1797
  780W        W 1644   0.559  26.169  23.924 -0.3043 -0.1578  0.1661
  781W        W 1645  20.044  13.495   2.433  0.1680 -0.2997 -0.1839
  782W        W 1646  26.133  12.997  27.132  0.1508  0.3414 -0.0995
  783W        W 1647   0.188  25.220   6.584  0.2708  0.0837  0.1452
  784W        W 1648  13.071   5.074  18.021  0.0712  0.2566 -0.1333
  785W        W 1649   6.678  20.093  14.549  0.0685  0.2631  0.0276
  786W        W 1650  16.568  20.578   6.426 -0.0702 -0.2824 -0.0782
  787W        W 1651  16.992  13.032  15.504  0.1761  0.2137 -0.2328
  788W        W 1652  16.910  15.700  23.532  0.0397  0.0704 -0.1003
  789W        W 1653   3.879  27.753  14.525  0.2863  0.3312 -0.0360
  790W        W 1654  23.808  11.125   9.042  0.3961 -0.0022 -0.1948
  791W        W 1655  21.844  20.644  16.308  0.1297 -0.1268 -0.2021
  792W        W 1656  28.655   6.559  16.800  0.2049 -0.3026 -0.1309
  793W        W 1657   2.031  27.305  20.279 -0.2337  0.0495 -0.0788
  794W        W 1658  17.902   2.432  22.595  0.1785  0.0902  0.0415
  795W        W 1659  17.642  17.718  17.320  0.0103 -0.1401  0.1820
  796W        W 1660  16.422  26.411  19.226 -0.1057  0.0175 -0.0374
  797W        W 1661  27.349   6.916  29.020  0.2210 -0.0358 -0.2335
  798W        W 1662   6.919  20.603  19.227 -0.1052 -0.1527  0.2212
  799W        W 1663  26.005   7.892  28.471  0.4584 -0.0338 -0.3022
  800W        W 1664  24.485  22.662   9.395 -0.1455  0.1850 -0.1587
  801W        W 1665  13.180  14.512  11.911 -0.1061 -0.1399 -0.0355
  802W        W 1666  18.572  26.693  24.594  0.1411 -0.2153 -0.0349
  803W        W 1667  10.793  14.598   3.338 -0.2003  0.0479 -0.0510
  804W        W 1668   7.762   3.919  15.600  0.0889 -0.1181 -0.2947
  805W        W 1669  26.670  12.229  22.231  0.0668 -0.1487 -0.0202
  806W        W 1670  16.708  19.656  15.283  0.0918 -0.1127  0.0769
  807W        W 1671  27.274  20.655   0.072  0.1394  0.0262 -0.1195
  808W        W 1672  13.737   7.141  19.394  0.2865  0.2426  0.1402
  809W        W 1673  28.010  18.829  25.040 -0.3957  0.1411  0.2444
  810W        W 1674  27.485   8.930   7.092 -0.4214 -0.1053  0.0612
  811W        W 1675  17.740   6.009  22.640  0.1126 -0.0641  0.1385
  812W        W 1676  12.484  28.803   9.834 -0.1058  0.1065  0.3438
  813W        W 1677   7.193  18.017  16.911  0.1662 -0.0562 -0.1029
  814W        W 1678   2.201   8.151   7.341 -0.1027  0.0544  0.1101
  815W        W 1679   8.630  17.423   6.055  0.0152 -0.2802 -0.0221
  816W        W 1680  24.297  23.916   8.665  0.2284 -0.0721 -0.0324
  817W        W 1681  23.458  27.994  18.178 -0.4661  0.0229  0.3563
  818W        W 1682   7.011  24.944  15.580 -0.1150 -0.2479 -0.0642
  819W        W 1683  25.512   0.818  11.248  0.3565 -0.1281  0.1047
  820W        W 1684   2.683  21.790  18.581 -0.1012  0.1319  0.1506
  821W        W 1685   3.665   0.807  19.548  0.0083  0.0982  0.1371
  822W        W 1686   6.215  16.862   6.883  0.0249  0.1151 -0.2327
  823W        W 1687  21.532  20.260   9.757  0.1344 -0.1439  0.0083
  824W        W 1688   6.078   9.470  13.033  0.1163 -0.2774  0.0470
  825W        W 1689   2.025  16.215   5.023  0.0664 -0.1534 -0.2014
  826W        W 1690   0.420  23.521   6.459  0.0335 -0.1348 -0.0175
  827W        W 1691  14.662  18.696   7.295  0.1068 -0.1478  0.0868
  828W        W 1692  23.929  28.799   8.493 -0.0877 -0.0058 -0.0760
  829W        W 1693  23.672  11.053   7.012  0.0607  0.1454  0.2189
  830W        W 1694  11.790  27.400  11.606 -0.2579  0.1338  0.1907
  831W        W 1695  16.863  21.176  10.429  0.1557  0.2135  0.1888
  832W        W 1696  18.374  27.533  10.438  0.1338 -0.0853 -0.3791
  833W        W 1697   1.668  15.148  26.905  0.1406  0.0044 -0.0528
  834W        W 1698   5.894   8.981  11.926 -0.0175  0.0749 -0.1078
  835W        W 1699   2.628  10.938  15.669  0.1421  0.0382 -0.0467
  836W        W 1700  19.085  23.119  26.435  0.0485 -0.1822  0.0596
  837W        W 1701  21.392  10.406  14.096  0.0029  0.0315  0.3062
  838W        W 1702  25.790  21.203  19.365  0.0044  0.0020  0.0291
  839W        W 1703  15.652   5.749  16.850 -0.0133 -0.1589 -0.1251
  840W        W 1704   3.097  20.984  13.371 -0.1832  0.1163  0.2068
  841W        W 1705  28.417   5.963  27.892 -0.0918 -0.0870 -0.1380
  842W        W 1706  23.348  21.770  18.798  0.1267  0.1963  0.0695
  843W        W 1707  11.141  10.095   2.918 -0.1381  0.0076 -0.1434
  844W        W 1708  28.154   3.955  21.133 -0.2709  0.4167  0.0458
  845W        W 1709  16.236  24.599  12.643 -0.2866  0.1432 -0.1679
  846W        W 1710   8.734  14.127  15.776  0.0553 -0.1517 -0.2557
  847W        W 1711  25.931  25.772  17.902  0.0289  0.4969  0.0476
  848W        W 1712  25.705   3.067  25.015  0.0935 -0.0097  0.0762
  849W        W 1713   5.011  20.947   6.016  0.1288  0.0614  0.0927
  850W        W 1714  26.292   9.728  26.457 -0.1737  0.2935 -0.0508
  851W        W 1715   3.980  27.252  14.863 -0.1035 -0.1123 -0.0478
  852W        W 1716  28.494  15.450  23.603  0.1972 -0.0662  0.3916
  853W        W 1717   4.113  14.058   4.793  0.1351  0.0630 -0.1698
  854W        W 1718   0.188  12.667  18.921  0.2020  0.2529 -0.1788
  855W        W 1719   9.342  22.915  17.023  0.2321  0.0209 -0.4046
  856W        W 1720  19.853   3.352  25.112 -0.0745 -0.1617 -0.2008
  857W        W 1721  16.631  26.635   3.261 -0.0674  0.3308 -0.1355
  858W        W 1722   0.761  19.399   9.049 -0.0020  0.0193 -0.0437
  859W        W 1723  16.630  16.968   9.821 -0.0869  0.1357 -0.0699
  860W        W 1724  19.955   8.009  11.176  0.0938 -0.0491 -0.0832
  861W        W 1725  13.357  23.141  25.416  0.2367 -0.3309  0.0468
  862W        W 1726   4.210   7.997  22.493 -0.0495 -0.2025 -0.2450
  863W        W 1727   0.713  29.057   1.192 -0.3032 -0.0311 -0.1230
  864W        W 1728   2.527  12.381  16.181 -0.2425 -0.2544  0.1759
  865W        W 1729   1.782  14.894   2.874 -0.0780 -0.0195 -0.2474
  866W        W 1730   2.928  27.736  28.602 -0.1669  0.2487  0.1550
  867W        W 1731  28.966  14.811  26.450 -0.3755 -0.3792  0.0632
  868W        W 1732  28.164   9.267  10.804  0.1449  0.2592 -0.2188
  869W        W 1733   9.142   3.014   1.647  0.0131  0.0300 -0.0760
  870W        W 1734  12.913   7.227  21.162  0.1312 -0.1341  0.0125
  871W        W 1735  14.946   0.108  21.506 -0.4215 -0.0726  0.0284
  872W        W 1736  21.219  24.831  17.829  0.1448 -0.0948 -0.2711
  873W        W 1737  28.570  21.368  18.709 -0.0708  0.1621  0.2276
  874W        W 1738   8.592  20.277   9.342  0.1120  0.3206  0.0113
  875W        W 1739   9.637  27.248  21.310  0.1762 -0.1342  0.1451
  876W        W 1740  26.710  28.070  10.280 -0.1832 -0.0548  0.2649
  877W        W 1741  20.018  19.028   5.137 -0.1906  0.2293 -0.0214
  878W        W 1742  12.811   6.781  11.615 -0.3335  0.2245  0.1602
  879W        W 1743  22.401   3.691   0.753  0.0106 -0.1014  0.2556
  880W        W 1744  11.670  16.828  23.465 -0.3171  0.0806 -0.2815
  881W        W 1745  21.224  19.238   8.279 -0.1911  0.0983 -0.0132
  882W        W 1746  17.890  22.873  27.377  0.3316  0.1103 -0.3413
  883W        W 1747  11.364  24.978   1.272 -0.0987  0.0218 -0.1180
  884W        W 1748   8.495  20.769  22.291 -0.0065 -0.1498 -0.1107
  885W        W 1749  19.379  16.546   7.340  0.1710 -0.1077 -0.0076
  886W        W 1750  16.736   0.288  22.272  0.3425 -0.1472  0.1331
  887W        W 1751   9.226  27.023  23.571 -0.1864 -0.0269 -0.0233
  888W        W 1752  27.573  12.788  16.467 -0.0059 -0.2053  0.2731
  889W        W 1753  11.256   9.282   5.842  0.0529 -0.1120  0.3283
  890W        W 1754  28.632   4.638   0.355 -0.2565 -0.2002  0.1671
  891W        W 1755  10.598  13.628  22.573 -0.2654  0.0431  0.0372
  892W        W 1756   3.937  15.871   1.674  0.1381 -0.0505  0.0862
  893W        W 1757  22.360  20.836   5.345 -0.2503 -0.1612  0.0847
  894W        W 1758   7.960  15.110   5.776  0.1065  0.2361 -0.0455
  895W        W 1759  25.030  21.597  29.046 -0.1931 -0.0012  0.0154
  896W        W 1760  24.226   7.705  17.916 -0.0685  0.0725  0.0681
  897W        W 1761  25.713  25.039   3.594 -0.1786 -0.1534  0.0844
  898W        W 1762  20.724  15.558  26.917 -0.2357 -0.1693 -0.2004
  899W        W 1763  11.775   2.935   6.873  0.1283 -0.0777  0.1386
  900W        W 1764   6.301  20.847  18.073  0.2019 -0.2784 -0.2587
  901W        W 1765  18.529  27.996   2.808 -0.2107  0.0308  0.1098
  902W        W 1766   0.319  20.139  28.090  0.1277  0.0224  0.0850
  903W        W 1767   8.951  13.806  19.001 -0.2249 -0.0791  0.3438
  904W        W 1768  23.031  23.325  13.402 -0.0347 -0.0154  0.0604
  905W        W 1769   7.576  22.372  17.173 -0.1067 -0.0299 -0.2122
  906W        W 1770  26.198  24.562  25.193 -0.0327  0.4185  0.2335
  907W        W 1771  28.718  26.602   6.984  0.0384  0.0136 -0.0525
  908W        W 1772  14.085  11.109  26.780  0.0312 -0.2193  0.0098
  909W        W 1773  14.928   0.547   1.573  0.1381 -0.2735 -0.1954
  910W        W 1774  17.285  25.479   5.967  0.1705  0.3000  0.1539
  911W        W 1775  15.058  12.836   3.587 -0.1602  0.3552  0.1222
  912W        W 1776  18.697  28.088   8.279  0.0243  0.2304 -0.5000
  913W        W 1777  11.271  13.627  13.706 -0.1165 -0.0306  0.3412
  914W        W 1778   1.081  23.635  24.487  0.2344  0.1950  0.1046
  915W        W 1779  22.862   8.575  22.906  0.0304 -0.1262  0.3091
  916W        W 1780   1.294  16.028  26.959  0.2838 -0.1195  0.0837
  917W        W 1781   1.879  25.348  18.186 -0.0234  0.0830 -0.2468
  918W        W 1782  17.496   9.439   1.083  0.0802  0.2618 -0.2973
  919W        W 1783  20.709   7.655   1.658 -0.2420 -0.2854  0.2207
  920W        W 1784   4.789  13.658  15.517  0.0376 -0.0565 -0.0137
  921W        W 1785   9.413  26.050   2.187  0.0279  0.1204  0.1172
  922W        W 1786   1.963  23.317  28.037  0.0930 -0.2444  0.1836
  923W        W 1787   1.481   5.012  10.807 -0.1697  0.0713 -0.2560
  924W        W 1788  22.291  17.920  20.441 -0.1258 -0.1498 -0.1541
  925W        W 1789  17.472  22.173  13.986  0.0515  0.0991  0.1588
  926W        W 1790  23.709  19.430  13.581  0.3010  0.0092  0.2660
  927W        W 1791  21.393  24.823  28.640 -0.1049  0.0990 -0.0548
  928W        W 1792  25.741  16.829  14.993 -0.0717 -0.1585 -0.0013
  929W        W 1793  19.518  25.812  28.017 -0.1213  0.0517 -0.0237
  930W        W 1794   2.549  27.304   1.637 -0.0629  0.1335  0.1520
  931W        W 1795  11.995   3.195   3.292  0.0824  0.1500 -0.0148
  932W        W 1796   7.845  18.961   4.417 -0.1986  0.0132  0.0436
  933W        W 1797  26.419  21.732  15.313  0.1464  0.1963  0.2717
  934W        W 1798  22.155  28.144  10.116  0.1278 -0.1093  0.2142
  935W        W 1799   1.636  24.478  16.564 -0.0721  0.0188  0.0702
  936W        W 1800  28.023   6.114   0.699  0.1456  0.1018  0.0593
  937W        W 1801  23.322  14.890  27.219  0.1100  0.2141  0.0751
  938W        W 1802   0.860  20.538   3.179  0.0558  0.0672  0.2392
  939W        W 1803  16.279   5.648   0.758  0.0361  0.0404 -0.0332
  940W        W 1804  27.093  12.066   7.726 -0.2947 -0.0967  0.0513
  941W        W 1805  27.301   2.250  15.848 -0.1731 -0.2300  0.1596
  942W        W 1806   6.753  13.681   6.642  0.2133 -0.0004  0.0733
  943W        W 1807   3.463  11.393   0.496  0.1841 -0.0167  0.2795
  944W        W 1808  20.967  28.891  23.750  0.1904 -0.0569 -0.2034
  945W        W 1809   5.374  25.155  12.674  0.2877 -0.0780  0.2412
  946W        W 1810  23.573   6.764   6.805 -0.3086  0.0062  0.1638
  947W        W 1811  23.229   9.109  14.816 -0.2164 -0.2940  0.0586
  948W        W 1812  13.593  15.208  23.924 -0.1892  0.0112 -0.0125
  949W        W 1813  26.340  16.249  18.507  0.0037  0.1758 -0.0569
  950W        W 1814  18.412   8.306  17.233  0.2141 -0.1058  0.0788
  951W        W 1815   2.685  23.987  23.810  0.1322  0.1269 -0.0748
  952W        W 1816  12.247  29.110  18.749 -0.0308  0.0867 -0.2440
  953W        W 1817   1.503   8.456  15.642  0.2209  0.4213 -0.0555
  954W        W 1818   2.888  20.676  20.558 -0.1111  0.0866 -0.2196
  955W        W 1819  11.097  21.938  21.836  0.0301  0.3201  0.3486
  956W        W 1820  22.390   8.231   1.084  0.0239 -0.0739  0.2746
  957W        W 1821   9.889  15.250   0.380  0.1621  0.0623  0.0243
  958W        W 1822   0.786  10.207   2.050  0.2023 -0.3695 -0.2181
  959W        W 1823  13.915  20.759   4.398 -0.1649  0.1235  0.1318
  960W        W 1824   9.431   1.567  28.947 -0.2856  0.0263  0.2461
  961W        W 1825  27.453  20.274   1.261  0.3314  0.1788  0.2306
  962W        W 1826   1.702  24.591   9.756  0.0695 -0.1001 -0.1045
  963W        W 1827  19.397   8.706   0.352  0.1852  0.1071  0.0780
  964W        W 1828   9.946   3.543   9.913  0.0099  0.3855 -0.0497
  965W        W 1829   2.708  21.170   4.301 -0.3286  0.0905  0.1087
  966W        W 1830   7.716   1.340  23.875  0.2006  0.0004  0.0422
  967W        W 1831   4.353  18.525  19.646 -0.1016  0.2824 -0.1009
  968W        W 1832   2.982  24.875  26.423 -0.0403  0.2347 -0.1458
  969W        W 1833  13.947  25.779  18.483  0.0524  0.1178 -0.1325
  970W        W 1834  16.071  11.680  10.285  0.2857 -0.0047  0.0183
  971W        W 1835  17.641   7.322  15.683  0.0291  0.2382  0.3270
  972W        W 1836  16.949  25.899  16.025  0.0012 -0.0376  0.1595
  973W        W 1837  28.648  13.148  28.761 -0.5548  0.2509  0.0006
  974W        W 1838  27.986   1.992  13.398 -0.1759  0.0477 -0.0152
  975W        W 1839  25.427  16.423  17.728  0.1130 -0.0591 -0.0772
  976W        W 1840  16.075   0.959  17.696  0.0868  0.2536 -0.2931
  977W        W 1841   9.606  17.467  22.304  0.0368  0.3762  0.0179
  978W        W 1842  26.584  12.919  17.180 -0.1463  0.0356  0.0397
  979W        W 1843  20.705  11.811  14.082 -0.0002 -0.1147  0.3299
  980W        W 1844  21.673   8.700  28.101  0.2701 -0.4800  0.0026
  981W        W 1845  14.918  27.763  14.531 -0.0564 -0.0505  0.0236
  982W        W 1846  18.924  29.029  29.126  0.0423 -0.0158 -0.2095
  983W        W 1847   3.099   2.531   0.295 -0.2227  0.2484 -0.0360
  984W        W 1848  17.838  11.218  16.607  0.2432  0.0548 -0.1017
  985W        W 1849  19.955   7.432  15.877  0.3402 -0.0604  0.0607
  986W        W 1850   2.365  22.660  20.647 -0.0135  0.0434  0.1482
  987W        W 1851  16.456  14.647   9.333 -0.0889  0.0197 -0.3431
  988W        W 1852   5.601   2.169  26.452  0.0767 -0.1859  0.2771
  989W        W 1853   3.197  24.185  21.306 -0.0721  0.0023 -0.1542
  990W        W 1854   0.081  22.330  10.042  0.0703 -0.2885  0.2223
  991W        W 1855   8.059  22.248   7.564  0.2106 -0.0612 -0.2026
  992W        W 1856   0.842  24.338  17.510 -0.1185 -0.0755 -0.1783
  993W        W 1857   6.860   0.058  18.171 -0.0605 -0.1560  0.1618
  994W        W 1858  11.083   1.559  25.178 -0.3371  0.0608 -0.2954
  995W        W 1859  21.177  28.411  16.342 -0.1581  0.1136 -0.1009
  996W        W 1860  22.410  26.163  19.676 -0.4316  0.0191 -0.0337
  997W        W 1861   9.903  21.467   9.020  0.2366 -0.1562 -0.0352
  998W        W 1862  26.487  25.161  25.875 -0.1480 -0.1174 -0.0085
  999W        W 1863  16.727   0.174  14.829  0.1966 -0.1735  0.0341
 1000W        W 1864  15.378  11.824  12.157 -0.1317  0.0228  0.1628
 1001W        W 1865  27.586  12.705  27.729 -0.2472  0.0138 -0.0502
 1002W        W 1866  15.527   7.658   8.835  0.2079 -0.1154  0.3001
 1003W        W 1867  22.528  15.352  15.289  0.1270 -0.1405 -0.0301
 1004W        W 1868  25.941   0.552  21.499 -0.1843 -0.1207  0.0784
 1005W        W 1869  25.178  10.871  26.537  0.2551  0.0569  0.1918
 1006W        W 1870   6.306  12.886  28.113 -0.3467 -0.1134  0.1444
 1007W        W 1871  14.728  14.779  19.933 -0.2510 -0.0506 -0.0054
 1008W        W 1872  27.149  20.997  24.645  0.1175  0.0322  0.0635
 1009W        W 1873  21.197  24.726  25.345 -0.0487 -0.0215 -0.2424
 1010W        W 1874   1.090  17.851  22.207  0.2079  0.1638 -0.0366
 1011W        W 1875  13.693  28.568  20.974  0.1887  0.2686 -0.4732
 1012W        W 1876  16.416  20.158   6.168  0.2792  0.1800  0.0786
 1013W        W 1877  21.358  15.048  17.269 -0.2600 -0.0084  0.1443
 1014W        W 1878   8.126  12.267  20.757  0.2525 -0.1043 -0.1987
 1015W        W 1879  15.927  23.902  10.844  0.2222  0.2544  0.0430
 1016W        W 1880  23.245  16.986   1.458 -0.4286 -0.1242 -0.0769
 1017W        W 1881  20.397   8.487  20.948 -0.1407 -0.0333 -0.0581
 1018W        W 1882  24.771  12.131   9.396  0.1598  0.0962 -0.1682
 1019W        W 1883  15.171  21.425  17.913  0.2932 -0.1195  0.1419
 1020W        W 1884  24.011  18.861  15.134 -0.0652 -0.1325  0.2070
 1021W        W 1885   4.068  20.704  26.253 -0.1759  0.2465 -0.0071
 1022W        W 1886  19.493  18.193  13.589  0.0440  0.0623  0.0229
 1023W        W 1887   4.109  21.905   2.311  0.1419  0.2280  0.1419
 1024W        W 1888  10.788   5.282  14.370 -0.1657  0.0455 -0.5550
 1025W        W 1889   3.367  13.549   0.168  0.0136 -0.1426  0.2937
 1026W        W 1890  25.688  23.929  24.510 -0.0574 -0.0456 -0.2942
 1027W        W 1891  23.611  13.978   9.521 -0.2924  0.1265 -0.0894
 1028W        W 1892  25.773  24.708  18.663 -0.1869  0.0331 -0.1121
 1029W        W 1893   7.922   2.237  13.066  0.1818  0.1716 -0.0061
 1030W        W 1894   2.563  12.532  14.748 -0.2378  0.1600  0.1032
 1031W        W 1895   4.053  25.391  13.023  0.0516  0.0861  0.0234
 1032W        W 1896  21.394  27.403  14.314  0.0949  0.0426 -0.0307
 1033W        W 1897  15.452   2.904  27.427 -0.0967 -0.0394 -0.0111
 1034W        W 1898  20.514   5.620   9.769 -0.2646  0.0384  0.1821
 1035W        W 1899  18.138  21.916  15.506 -0.0104 -0.1600 -0.1208
 1036W        W 1900   3.309   3.998  13.196 -0.0741 -0.1212  0.0071
 1037W        W 1901   4.911  24.671  24.324  0.2119 -0.1762 -0.2088
 1038W        W 1902  27.976  28.451  24.291  0.2904 -0.3781 -0.0179
 1039W        W 1903  12.942  28.873  16.815 -0.0823 -0.0009 -0.3407
 1040W        W 1904  19.708  20.719  11.079  0.0140 -0.2095 -0.1205
 1041W        W 1905   7.340   0.018  24.128 -0.0565 -0.1562  0.3068
 1042W        W 1906  17.349   6.829  23.708 -0.1527  0.0947  0.3441
 1043W        W 1907  24.702   6.332  10.781  0.1878 -0.0421 -0.1673
 1044W        W 1908  19.340  16.339  21.403 -0.0472  0.1045  0.2174
 1045W        W 1909   5.610  23.604  18.957  0.2713 -0.1403  0.0460
 1046W        W 1910  19.003  27.823  21.659  0.0198  0.0314 -0.0813
 1047W        W 1911  26.468   1.875   1.172  0.0295  0.2442  0.2287
 1048W        W 1912  27.796  13.902   4.825  0.0728 -0.0126  0.0951
 1049W        W 1913  15.281   9.688  12.447 -0.3326 -0.1240 -0.4021
 1050W        W 1914  14.001  21.444  15.826  0.0601  0.0514  0.1716
 1051W        W 1915  20.443   5.491   4.673  0.0191  0.1297  0.1721
 1052W        W 1916  22.894  26.376  22.597 -0.0251  0.1568 -0.2357
 1053W        W 1917   5.473   3.081   2.385 -0.0549  0.0111  0.3424
 1054W        W 1918  20.457   6.212  23.848 -0.0257  0.0366 -0.2480
 1055W        W 1919  14.218   5.277   2.271 -0.2269  0.2436  0.2705
 1056W        W 1920  21.841  14.802  15.578  0.2378  0.4682  0.1223
 1057W        W 1921  28.259  11.858   3.925  0.1593 -0.2606  0.0586
 1058W        W 1922  23.800  28.923   2.411 -0.2593 -0.4316 -0.0008
 1059W        W 1923  24.963  11.251  12.679 -0.0299  0.1475  0.2582
 1060W        W 1924  18.232   3.033  14.420 -0.0663 -0.0483  0.1696
 1061W        W 1925   3.056  21.149  18.880  0.2754  0.2834 -0.0259
 1062W        W 1926   0.672   5.742  28.971  0.0167 -0.2055 -0.1585
 1063W        W 1927   0.244   5.700   3.461 -0.0952  0.0032 -0.1491
 1064W        W 1928  21.651  26.158  19.975  0.0441  0.1455 -0.0236
 1065W        W 1929  19.806  10.045   0.483 -0.1419  0.0088  0.0416
 1066W        W 1930   1.764   3.110  28.687  0.1884 -0.1624 -0.2062
 1067W        W 1931   4.070   1.143  15.577 -0.0274  0.3190  0.1758
 1068W        W 1932  13.847   3.981  15.069 -0.2238 -0.1497  0.0921
 1069W        W 1933   0.355   2.116   0.192 -0.0739 -0.0452 -0.0296
 1070W        W 1934  24.551  23.163  21.213  0.2202  0.0865 -0.6585
 1071W        W 1935  19.681   2.338  24.936 -0.0041 -0.2661  0.1057
 1072W        W 1936  22.969   8.629   9.566 -0.0755 -0.1277  0.0019
 1073W        W 1937   9.060  25.012  20.418  0.0980  0.2364 -0.1946
 1074W        W 1938  10.748  16.199  19.690  0.0586  0.4390 -0.2580
 1075W        W 1939  12.603  11.053  23.440  0.0988 -0.2988 -0.0899
 1076W        W 1940   8.654   0.192  26.496 -0.1571  0.0741 -0.1034
 1077W        W 1941   7.983  12.775   4.598  0.0364 -0.1013  0.1268
 1078W        W 1942  24.797   4.172   0.015  0.0506 -0.0707  0.1446
 1079W        W 1943  27.832   9.036  18.534  0.2953  0.3074 -0.2378
 1080W        W 1944  25.712  19.152  13.016  0.3672  0.1955  0.2346
 1081W        W 1945   3.057  21.309  22.613  0.0801  0.0848 -0.1373
 1082W        W 1946  15.658  12.198  25.553  0.1924 -0.1429  0.2666
 1083W        W 1947  24.023  17.918  24.620 -0.1866 -0.1813 -0.1177
 1084W        W 1948   5.490   3.946  24.937  0.0594 -0.0328 -0.1289
 1085W        W 1949  12.731   7.265   0.256  0.1397 -0.5004  0.1441
 1086W        W 1950  28.688  24.957  11.154 -0.1824  0.0629  0.2590
 1087W        W 1951  26.205  13.822  21.561  0.2798 -0.1021  0.1007
 1088W        W 1952  22.893   3.267   8.384 -0.0019  0.0065  0.1680
 1089W        W 1953   0.092  23.547  28.366 -0.3129  0.1566  0.3216
 1090W        W 1954   2.376  19.553   4.846 -0.1742  0.2101  0.0350
 1091W        W 1955  23.840   5.996   3.271  0.1611 -0.1309 -0.0697
 1092W        W 1956  19.124  12.137   8.662 -0.2770 -0.4421 -0.0831
 1093W        W 1957  23.725  24.159  25.163 -0.3101  0.1270  0.0447
 1094W        W 1958  26.426  27.608  16.714 -0.0987 -0.1407  0.0159
 1095W        W 1959   1.358  19.190  28.601 -0.0267 -0.0753 -0.0519
 1096W        W 1960  18.309  25.090  12.983  0.3014 -0.1269 -0.3432
 1097W        W 1961  27.951  26.518  27.704  0.3869  0.0897 -0.2442
 1098W        W 1962  28.546  18.515  13.277  0.4423 -0.2484 -0.1668
 1099W        W 1963   1.413   8.142  16.947  0.1202  0.0664  0.4291
 1100W        W 1964  22.300  18.075  12.057 -0.3244  0.0459  0.2383
 1101W        W 1965   4.128  20.846  23.384  0.2046 -0.0277 -0.1125
 1102W        W 1966  28.065  13.330  25.870  0.1497 -0.1355 -0.0744
 1103W        W 1967   1.992  25.660  17.411  0.1322 -0.0869 -0.3183
 1104W        W 1968  24.758  28.344   5.835 -0.0708 -0.0310  0.1539
 1105W        W 1969  25.716  20.952   5.959  0.2373  0.2313  0.0364
 1106W        W 1970   7.055  22.782  27.548 -0.0614 -0.1819 -0.2516
 1107W        W 1971   6.674   0.272   6.826  0.1520 -0.0901  0.1265
 1108W        W 1972  13.723  16.640   3.610  0.1271 -0.0604  0.1496
 1109W        W 1973   9.104  25.451  24.518 -0.2126  0.1178  0.2122
 1110W        W 1974  21.198   7.889  19.424 -0.1474 -0.0071  0.0363
 1111W        W 1975   2.297   6.817  25.431 -0.3224  0.2166  0.1199
 1112W        W 1976  26.746  12.916  24.616  0.1348  0.0973  0.1645
 1113W        W 1977  17.365   2.433   0.190 -0.0414 -0.2831  0.0341
 1114W        W 1978  19.981  17.784  10.868 -0.1828 -0.0110 -0.1066
 1115W        W 1979   8.313  17.040   8.965  0.1161  0.2184 -0.3941
 1116W        W 1980  27.215  26.170  26.592 -0.1924  0.0881  0.0290
 1117W        W 1981   1.592  25.310  14.397  0.0296 -0.1500 -0.0452
 1118W        W 1982  28.013  10.328  24.214 -0.1655 -0.1173  0.1615
 1119W        W 1983  20.401  27.321  12.343  0.0641 -0.0932  0.2976
 1120W        W 1984  21.879  21.522  28.367  0.0910  0.0883  0.4106
 1121W        W 1985   0.232   1.825  13.783  0.0384  0.0229 -0.1346
 1122W        W 1986  27.375  25.689  24.291  0.1334  0.1424 -0.0047
 1123W        W 1987  27.745   2.609  21.024 -0.2439 -0.3437 -0.0841
 1124W        W 1988  23.924  17.900  11.181  0.0249 -0.1066  0.5365
 1125W        W 1989  26.744  16.421  22.439 -0.1470 -0.0273  0.2121
 1126W        W 1990   2.158   7.512   3.742  0.3980 -0.0838  0.0163
 1127W        W 1991   7.228   3.330  28.072  0.2991 -0.1909  0.1564
 1128W        W 1992   5.699   0.756  20.727 -0.1876  0.2859 -0.1164
 1129W        W 1993   5.379   1.387  13.551  0.0041 -0.1437  0.2147
 1130W        W 1994  12.073  28.089  26.708 -0.4130  0.0904 -0.0862
 1131W        W 1995  19.705   9.442  23.061 -0.0667  0.3216 -0.0541
 1132W        W 1996  23.857   7.463  26.430 -0.0656 -0.0347 -0.0070
 1133W        W 1997  26.731  12.533  11.400 -0.0993  0.0730  0.2709
 1134W        W 1998   6.812  26.170  12.786  0.1622 -0.1728 -0.1234
 1135W        W 1999  20.679  18.908   9.054  0.2269  0.0921 -0.0960
 1136W        W 2000  13.057   5.459  18.832 -0.0921  0.2256  0.1866
 1137W        W 2001   4.827  24.951  27.450 -0.3068 -0.1177  0.1200
 1138W        W 2002   2.738  24.839   9.293 -0.0161 -0.1716  0.0974
 1139W        W 2003  28.105  17.879  21.652 -0.0798  0.2460  0.0011
 1140W        W 2004  10.157  23.726   7.220  0.0235  0.1821  0.0049
 1141W        W 2005   6.125   8.551   6.083 -0.1534 -0.2609 -0.1753
 1142W        W 2006  23.904  27.209  16.111  0.1308 -0.1645 -0.0085
 1143W        W 2007   8.338  16.382  26.720  0.1492 -0.2909  0.1846
 1144W        W 2008   8.688  17.616  20.593  0.1921 -0.0126 -0.1491
 1145W        W 2009  27.471  15.312  27.502 -0.0175  0.0772  0.0692
 1146W        W 2010  24.336   0.382  25.803 -0.0438 -0.0875  0.1163
 1147W        W 2011   0.671  13.867   4.034 -0.1242  0.2148  0.0195
 1148W        W 2012   3.513  10.845  22.027 -0.3164 -0.1669 -0.0644
 1149W        W 2013   5.891  13.466  28.238  0.2324 -0.1144 -0.1849
 1150W        W 2014  21.661  16.192   2.597  0.1140 -0.1298 -0.1413
 1151W        W 2015   5.577  15.989  14.282  0.3046 -0.3705 -0.0395
 1152W        W 2016  21.122   8.960   2.977 -0.1986  0.2123  0.1281
 1153W        W 2017  11.196  25.206  24.830  0.1580 -0.6319 -0.0961
 1154W        W 2018   4.589  16.579  24.438  0.0312 -0.0010 -0.0810
 1155W        W 2019  18.483  11.718  24.463  0.0730 -0.2929  0.3986
 1156W        W 2020  17.041  15.641  22.067  0.2250 -0.2218  0.1369
 1157W        W 2021  14.355  12.808  26.856 -0.0295  0.1005 -0.1155
 1158W        W 2022  14.515   0.104  10.690 -0.0089  0.0214 -0.3264
 1159W        W 2023  13.033  25.245  13.903 -0.0185  0.1875  0.4240
 1160W        W 2024  12.559  17.429   3.299  0.2875 -0.1701 -0.3760
 1161W        W 2025   8.260   9.825  28.741  0.1525 -0.1935 -0.0361
 1162W        W 2026   4.921  23.928   1.501 -0.1544  0.1353  0.1676
 1163W        W 2027   6.367   7.118   8.652  0.1366 -0.0386 -0.1932
 1164W        W 2028  27.788  25.578  24.627  0.1785 -0.1377 -0.0723
 1165W        W 2029  18.649  26.131   7.227  0.1141 -0.1123  0.0640
 1166W        W 2030   3.596   7.861  10.473  0.0065 -0.1394  0.1340
 1167W        W 2031  13.176   5.970  18.070  0.1149 -0.0602  0.1969
 1168W        W 2032  23.084  10.767  11.515 -0.2124  0.2135 -0.0200
 1169W        W 2033   3.741  24.048  26.055  0.3181  0.0636 -0.1653
 1170W        W 2034  28.881  19.229   7.061  0.3242  0.0069  0.2062
 1171W        W 2035  26.916  22.415  18.227 -0.0255 -0.0136 -0.2225
 1172W        W 2036  13.133   9.127  22.870  0.0124 -0.0636  0.1959
 1173W        W 2037   9.733   1.265   4.769  0.0715  0.2275 -0.4453
 1174W        W 2038   3.252  26.678  24.372  0.2324  0.0023 -0.0314
 1175W        W 2039  26.582  16.743   4.653 -0.2091 -0.2393 -0.0538
 1176W        W 2040   7.934  17.988  24.338  0.0747 -0.3573 -0.1496
 1177W        W 2041  22.797  27.048  23.313 -0.3553  0.1938 -0.0829
 1178W        W 2042  23.873  17.078   0.591  0.1306 -0.3313 -0.0074
 1179W        W 2043  12.359   3.249   4.172 -0.0419  0.2360 -0.2111
 1180W        W 2044  22.755  18.946   0.527  0.4033 -0.1498 -0.0523
 1181W        W 2045  25.540  20.778   9.806 -0.0456 -0.1756 -0.2036
 1182W        W 2046  15.806  26.731  20.733  0.1627 -0.0024 -0.2304
 1183W        W 2047  28.740  28.130  24.958 -0.1160 -0.1741 -0.1363
 1184W        W 2048   6.052  20.376  23.848 -0.0128 -0.3186  0.2199
 1185W        W 2049  11.323  22.271   0.675  0.1142 -0.3468 -0.1313
 1186W        W 2050  18.979   7.331  15.211 -0.4201  0.1165 -0.3988
 1187W        W 2051  18.347   1.866   4.360 -0.1667 -0.0705  0.0779
 1188W        W 2052  11.691  18.855  23.586  0.1639  0.0311 -0.0087
 1189W        W 2053  20.150  28.156   0.904 -0.2025  0.1503 -0.0908
 1190W        W 2054  24.085   1.830  24.824  0.1441  0.1964 -0.0289
 1191W        W 2055   3.977  25.358  18.338  0.0104 -0.1946  0.2803
 1192W        W 2056   3.977  19.105  21.131 -0.1702 -0.2235  0.0381
 1193W        W 2057  21.020  23.563   9.498 -0.2752 -0.2562  0.0833
 1194W        W 2058  28.594  18.643   0.271  0.1659 -0.1852  0.0947
 1195W        W 2059  20.832  24.131  18.187  0.0730  0.2858 -0.1357
 1196W        W 2060  26.578  10.971   4.002  0.0859 -0.0950  0.1733
 1197W        W 2061  19.137  22.071  25.357  0.2170 -0.2000  0.1453
 1198W        W 2062  12.103  16.719  16.907 -0.1765  0.1245 -0.0641
 1199W        W 2063  23.279  18.287   5.980  0.0380  0.2420  0.0088
 1200W        W 2064   1.064  28.809  27.645 -0.0264 -0.0427  0.1995
 1201W        W 2065  14.797  21.726  20.209 -0.1162 -0.0438 -0.0578
 1202W        W 2066   9.913  27.804   6.786 -0.0993  0.2123 -0.2233
 1203W        W 2067  17.310   8.001   9.616 -0.2324  0.1855 -0.1574
 1204W        W 2068   6.671  27.927  24.959 -0.1054  0.1572  0.3255
 1205W        W 2069  27.250  21.203  12.248 -0.1358  0.3146  0.0789
 1206W        W 2070  24.601  23.801  24.576  0.0163  0.1040  0.3215
 1207W        W 2071  13.363   0.833  27.537  0.1353 -0.1748  0.1522
 1208W        W 2072   5.909  24.601  27.671 -0.3867  0.2730 -0.1056
 1209W        W 2073  23.514   1.608  14.145 -0.1750  0.0210 -0.2174
 1210W        W 2074  22.534   4.153  21.201 -0.0092  0.0723 -0.3681
 1211W        W 2075   0.499  22.798  14.149 -0.2849  0.2726 -0.1121
 1212W        W 2076  22.959   9.389  19.922  0.1110 -0.1471  0.1009
 1213W        W 2077   7.724  21.703  18.339 -0.1203 -0.1189 -0.0835
 1214W        W 2078   1.157  20.712   6.460 -0.0116 -0.0778  0.0355
 1215W        W 2079  26.033  21.314  20.853 -0.0519  0.0844  0.0226
 1216W        W 2080  19.418   5.132   9.989  0.0928  0.0140  0.3784
 1217W        W 2081  16.711  18.899   0.027  0.0446  0.1664 -0.0114
 1218W        W 2082   3.254  29.074   9.250 -0.2760  0.0082 -0.0351
 1219W        W 2083  26.902  24.564   1.209 -0.1319  0.1189  0.2345
 1220W        W 2084  21.413  26.567  12.943 -0.1217  0.1060 -0.0965
 1221W        W 2085  12.102  21.688   1.746  0.0051 -0.0021 -0.4587
 1222W        W 2086  10.113  20.033   2.119 -0.0038  0.0411  0.1126
 1223W        W 2087   0.980   6.295  16.334  0.3616  0.3314 -0.0941
 1224W        W 2088  11.803  23.835   4.021 -0.3187  0.0931  0.1498
 1225W        W 2089  19.377  10.876   1.716 -0.0987  0.1707 -0.0021
 1226W        W 2090   0.531  24.174  11.433 -0.1365  0.1798  0.0089
 1227W        W 2091  12.370  18.658   0.198 -0.2227  0.0599  0.2667
 1228W        W 2092  23.609  15.746  13.541 -0.0248 -0.0381 -0.2838
 1229W        W 2093  22.782   2.237   2.733 -0.0439 -0.0535 -0.1940
 1230W        W 2094  19.936  19.062  13.030  0.1282  0.1423  0.0794
 1231W        W 2095   3.825   2.963  20.510 -0.3140 -0.1672  0.2663
 1232W        W 2096  12.903  28.347  14.998  0.0406  0.0504  0.0182
 1233W        W 2097   9.997  26.644  16.616 -0.1364  0.0182 -0.0450
 1234W        W 2098   6.450  20.665   9.768  0.2066  0.0481  0.2456
 1235W        W 2099  21.994  19.239  21.409  0.1314  0.0232  0.1882
 1236W        W 2100  27.062  19.145   9.145 -0.0247  0.3991 -0.1579
 1237W        W 2101  20.222  17.985   7.817  0.0580 -0.1465 -0.2923
 1238W        W 2102  12.562  23.615  17.298  0.1863  0.0349 -0.2228
 1239W        W 2103   1.004  16.194   9.739 -0.1218  0.0812  0.0674
 1240W        W 2104   8.082   9.949  17.940 -0.0605  0.3200 -0.5603
 1241W        W 2105  12.650  20.784  17.737 -0.0540  0.1028 -0.1228
 1242W        W 2106  24.887  28.905  21.285  0.0181 -0.0093 -0.1113
 1243W        W 2107  22.203   5.316   5.183  0.1378 -0.1907 -0.2128
 1244W        W 2108   3.412  26.434  22.693 -0.0703  0.1332 -0.0076
 1245W        W 2109  25.620  19.440   6.285 -0.0529 -0.0152 -0.1351
 1246W        W 2110   2.015  10.613   1.964  0.1905 -0.0226  0.1218
 1247W        W 2111  23.109   9.363   4.815  0.1356  0.0308 -0.0823
 1248W        W 2112   1.580  23.946   4.459  0.1635 -0.0283  0.1157
 1249W        W 2113  21.541   0.954   2.597 -0.1547 -0.0118 -0.2126
 1250W        W 2114  19.179  19.490   6.025  0.0174  0.0293  0.0374
 1251W        W 2115  22.592  28.413  19.558 -0.3219  0.0371  0.0194
 1252W        W 2116   6.681  14.550   5.462  0.1579 -0.1876 -0.1611
 1253W        W 2117   7.710  25.549  23.178  0.1930 -0.0208 -0.2129
 1254W        W 2118   7.778  12.865  16.777  0.0949  0.0260 -0.0915
 1255W        W 2119   6.913  21.572   1.778  0.0711  0.0736 -0.1152
 1256W        W 2120   1.059  29.098   9.066 -0.2386  0.1572  0.1460
 1257W        W 2121  25.278   0.719   8.910  0.0896  0.2324  0.2777
 1258W        W 2122  21.612  14.293  26.598 -0.0083  0.2630  0.0103
 1259W        W 2123  28.132   3.264  19.217 -0.0576  0.0686 -0.1428
 1260W        W 2124  14.862  23.411  21.393 -0.1580 -0.0997  0.0427
 1261W        W 2125   5.244  20.822  17.849  0.2614 -0.1273  0.2150
 1262W        W 2126   3.533  21.548   1.717  0.2587 -0.0874  0.1004
 1263W        W 2127  21.801  12.750  28.887 -0.1679 -0.1361  0.1779
 1264W        W 2128  23.300  17.268  11.551  0.0778  0.0252 -0.1380
 1265W        W 2129  25.430   4.926  15.249 -0.1106  0.2181 -0.3277
 1266W        W 2130   5.041   3.566   0.835  0.1705  0.0209 -0.2938
 1267W        W 2131   0.361  10.417  26.604  0.4257 -0.0359 -0.0239
 1268W        W 2132   2.959   5.936  11.712  0.3048  0.0339 -0.0502
 1269W        W 2133  26.265   0.576  17.152  0.2253  0.2041  0.0589
 1270W        W 2134  27.378   4.732  27.720  0.3733  0.1095  0.2151
 1271W        W 2135  18.849  13.154   5.030 -0.0268  0.0597 -0.3747
 1272W        W 2136  24.625   4.370  28.012 -0.1702  0.0608 -0.1439
 1273W        W 2137  28.700  29.038  15.872 -0.2993  0.1887  0.1485
 1274W        W 2138   0.317   4.403   6.066 -0.0089  0.1682  0.0980
 1275W        W 2139  22.844  20.607   2.442 -0.1419  0.0238 -0.0191
 1276W        W 2140  15.347  15.137  20.636  0.2635 -0.0559 -0.4590
 1277W        W 2141   0.157  22.080   4.742  0.2039 -0.2379 -0.1564
 1278W        W 2142  16.247  28.780  17.587 -0.1402 -0.2359  0.0389
 1279W        W 2143   2.601  14.637  28.056 -0.0349 -0.1014 -0.3676
 1280W        W 2144  20.808  15.454  24.581 -0.0807  0.1890 -0.0223
 1281W        W 2145   3.772   6.516   0.024  0.3023 -0.0130 -0.0133
 1282W        W 2146  12.126  13.556   7.549  0.0277 -0.0046  0.0756
 1283W        W 2147   0.750   5.726   5.018  0.1940  0.0481  0.0176
 1284W        W 2148   7.832  24.401  14.421 -0.1154 -0.3704 -0.0523
 1285W        W 2149  24.293   3.184   6.346  0.0207 -0.0451 -0.3909
 1286W        W 2150  28.151  12.885  29.027 -0.1051  0.2984  0.1707
 1287W        W 2151  23.096  13.354   9.068  0.2905 -0.1566 -0.1663
 1288W        W 2152   2.754   6.944  27.404 -0.0582  0.1019  0.2112
 1289W        W 2153  20.022   6.114   9.590  0.1592  0.3132 -0.0323
 1290W        W 2154   5.414  18.340  13.351  0.0302 -0.3437  0.3371
 1291W        W 2155   6.453  19.645   6.886  0.1106  0.1853 -0.1312
 1292W        W 2156  19.714   1.522  24.981  0.0859  0.2601 -0.1886
 1293W        W 2157   5.110  20.666   8.933  0.3706  0.2268 -0.6033
 1294W        W 2158  17.138  23.378   9.162  0.1953 -0.0263 -0.0521
 1295W        W 2159   0.936  26.283   5.015 -0.1473  0.1937  0.0128
 1296W        W 2160  25.738  18.623  15.290  0.1334 -0.3409 -0.0122
 1297W        W 2161   4.629  18.125   7.143 -0.4490  0.1149  0.1054
 1298W        W 2162  26.222  15.811  19.265  0.2221 -0.0241 -0.1260
 1299W        W 2163  14.918   3.554   7.242  0.1886 -0.1768  0.0607
 1300W        W 2164  25.778   8.378  15.473  0.0508 -0.0157 -0.0916
 1301W        W 2165  24.286   0.420  22.262 -0.1510  0.1638 -0.0852
 1302W        W 2166  15.231   3.153  14.867  0.2258 -0.0408  0.1022
 1303W        W 2167  23.842  29.056   3.502 -0.2761  0.0106  0.3528
 1304W        W 2168  25.079   2.706  21.953  0.1436 -0.0173  0.0700
 1305W        W 2169   4.083  27.992   0.971 -0.0865  0.1963  0.0729
 1306W        W 2170  23.832  27.178  26.739 -0.1367  0.0515 -0.1126
 1307W        W 2171  28.950   4.374   3.577  0.2590  0.4058  0.0763
 1308W        W 2172  24.491   7.676  19.200 -0.2591  0.2306 -0.1742
 1309W        W 2173   0.569   5.956  13.548  0.2173  0.1736 -0.0511
 1310W        W 2174  20.042   0.382  24.803  0.0356 -0.0437  0.1616
 1311W        W 2175   6.803   9.663  15.038 -0.1523  0.2806 -0.1263
 1312W        W 2176  17.386  22.504   4.378 -0.0996 -0.3140  0.2181
 1313W        W 2177   6.302   0.103   9.942  0.0212 -0.1100  0.0561
 1314W        W 2178  15.188   3.823   3.796  0.1926  0.0860  0.0579
 1315W        W 2179  12.073  25.854  24.548 -0.2860  0.0160 -0.0732
 1316W        W 2180   7.344  26.742  19.278  0.0358 -0.1571 -0.1997
 1317W        W 2181  16.385  23.505  25.171  0.0822 -0.0753 -0.2216
 1318W        W 2182  18.264  28.159   7.668  0.0953 -0.1023 -0.0850
 1319W        W 2183   7.500  22.733   5.481 -0.0274  0.0998  0.0853
 1320W        W 2184  21.836  13.579  15.709 -0.1152 -0.1670  0.2099
 1321W        W 2185   7.699  17.307  17.939 -0.0617  0.2870 -0.1575
 1322W        W 2186  28.539   8.393  28.850 -0.1792  0.2131  0.0006
 1323W        W 2187   4.029  24.974  24.351  0.0884 -0.4439  0.1308
 1324W        W 2188  15.336  22.662   4.397  0.1258 -0.2724 -0.3565
 1325W        W 2189  15.835   5.779   6.387  0.0491 -0.0643 -0.1493
 1326W        W 2190  12.125  17.727  13.612  0.1445  0.0761  0.0766
 1327W        W 2191  14.306  23.597  24.136 -0.0232 -0.1103 -0.0151
 1328W        W 2192  25.089  19.961   0.334  0.0997  0.2587  0.1507
 1329W        W 2193  24.375   0.861   6.410 -0.0127  0.2946  0.0913
 1330W        W 2194   1.694  12.526   5.216  0.0047 -0.0998 -0.4557
 1331W        W 2195   2.871  24.514  10.041  0.0739 -0.0409 -0.0554
 1332W        W 2196   2.345  14.946  28.423  0.1968 -0.0259 -0.3544
 1333W        W 2197  11.231  19.857   4.673 -0.1823  0.0913 -0.0616
 1334W        W 2198  25.374  19.213  22.961 -0.0950 -0.3378 -0.0428
 1335W        W 2199  17.983  26.611  24.477 -0.0229 -0.0646  0.4147
 1336W        W 2200   1.579  22.743  10.431  0.0702 -0.0176 -0.0236
 1337W        W 2201  23.047  21.904  26.923 -0.2138  0.2044 -0.2406
 1338W        W 2202   2.044  26.421   8.402 -0.2680 -0.3920 -0.5430
 1339W        W 2203  19.312  23.470   1.823 -0.0167  0.1000 -0.1024
 1340W        W 2204   0.003  19.632  12.733  0.0529  0.1640  0.3379
 1341W        W 2205  18.491  24.975  14.238 -0.0871  0.0227 -0.1666
 1342W        W 2206  21.184   7.013   0.102 -0.0897  0.1018 -0.0945
 1343W        W 2207  16.753   9.801  15.828 -0.0280  0.3365 -0.0318
 1344W        W 2208  29.144  10.152   0.193  0.1828  0.3560  0.2673
 1345W        W 2209  12.069  26.771  20.992  0.0550  0.2963 -0.2068
 1346W        W 2210  24.725   2.092   8.868  0.2515  0.0409 -0.1543
 1347W        W 2211  19.912  24.332   0.613  0.1923 -0.0193 -0.1359
 1348W        W 2212   3.446  21.682   4.654 -0.1150  0.0495 -0.0925
 1349W        W 2213  19.282   2.201   5.051 -0.1439 -0.0614 -0.0356
 1350W        W 2214  20.672   7.467  24.228 -0.1186  0.3213  0.1627
 1351W        W 2215  14.663  17.761  27.021 -0.0344  0.0936 -0.0038
 1352W        W 2216  14.436  28.569   5.435 -0.1396 -0.1273  0.1892
 1353W        W 2217  18.887   5.660  12.263 -0.0473 -0.0688 -0.0809
 1354W        W 2218   4.468  24.942  11.423  0.1632 -0.3464  0.0689
 1355W        W 2219  16.570  15.183  28.253  0.3087 -0.0108  0.1959
 1356W        W 2220  23.368  21.677   6.769 -0.0946  0.0543 -0.0126
 1357W        W 2221  13.614  21.760  28.844 -0.1811 -0.0677 -0.2417
 1358W        W 2222  11.768  20.463  23.131 -0.0294 -0.1299 -0.0368
 1359W        W 2223  27.477  18.621   9.097  0.0651  0.1279  0.0019
 1360W        W 2224   0.229  17.178   0.531 -0.2125 -0.2965 -0.1054
 1361W        W 2225  12.623  21.148   2.379 -0.0377  0.1985 -0.0571
 1362W        W 2226   8.641  24.823  15.942 -0.4012 -0.0158  0.0962
 1363W        W 2227  27.865   7.631  23.446  0.2243 -0.0344 -0.3853
 1364W        W 2228  22.913  14.740  14.021  0.2760  0.2884  0.0082
 1365W        W 2229  21.243  15.504   0.965 -0.0052  0.3313  0.2972
 1366W        W 2230  19.132   8.017   5.705 -0.0019  0.0540  0.0762
 1367W        W 2231   2.986  26.744  13.550 -0.0324  0.0760  0.0295
 1368W        W 2232  13.016  13.701  10.684 -0.0069 -0.0769 -0.1922
 1369W        W 2233  11.450  20.112  23.458 -0.2255 -0.1130  0.1663
 1370W        W 2234  26.464  28.596  27.954 -0.0490  0.1246  0.1126
 1371W        W 2235   0.776  14.706  13.505  0.2082  0.4497 -0.0461
 1372W        W 2236   2.554  10.762  18.430 -0.1159  0.0152  0.1145
 1373W        W 2237  22.909  23.601  25.065 -0.0618 -0.0424 -0.0115
 1374W        W 2238   8.355  22.063  25.320 -0.1498  0.0430  0.1561
 1375W        W 2239  19.151  12.090  15.677 -0.1731 -0.1165 -0.2077
 1376W        W 2240   1.057  19.543  10.715  0.0367  0.0865 -0.1540
 1377W        W 2241  12.928  26.250   5.773 -0.1093  0.0074  0.1049
 1378W        W 2242   9.299  22.424  16.424 -0.1526 -0.2711 -0.1528
 1379W        W 2243  24.767   4.880  25.685 -0.1220 -0.0067 -0.3635
 1380W        W 2244   6.869  22.891   4.105 -0.0922  0.0324  0.3000
 1381W        W 2245  18.495  16.457  27.302 -0.1907 -0.2405 -0.1800
 1382W        W 2246   4.849   7.417  27.368  0.1332 -0.1337 -0.1564
 1383W        W 2247   2.144  12.280  12.933  0.0679  0.0675  0.0377
 1384W        W 2248  25.876  10.873  27.851 -0.1641  0.0059 -0.1186
 1385W        W 2249  26.974  11.265   6.048 -0.0919 -0.1756  0.0016
 1386W        W 2250  27.559   3.002   1.916  0.1697  0.1387 -0.5688
 1387W        W 2251  22.854   7.986   8.269 -0.0622  0.0981  0.0276
 1388W        W 2252   9.069  14.171   1.974  0.2097 -0.2310 -0.1112
 1389W        W 2253  21.292  24.281  23.189 -0.2316  0.1240 -0.2630
 1390W        W 2254  19.186   1.766  12.715 -0.1349  0.0750  0.1428
 1391W        W 2255  16.049   3.188  19.699  0.0348  0.0362 -0.0811
 1392W        W 2256  27.460  14.397  27.218 -0.0056 -0.0676  0.0709
 1393W        W 2257   9.621   0.945   3.425 -0.0039  0.0590 -0.0292
 1394W        W 2258  23.303  17.822   7.863 -0.0680  0.2151 -0.3481
 1395W        W 2259   9.869   0.661  17.691  0.1493 -0.2743  0.1994
 1396W        W 2260   4.301   1.171   7.294 -0.1123  0.1571 -0.1995
 1397W        W 2261   5.731  16.585   6.744 -0.2088  0.1772  0.1342
 1398W        W 2262  28.635  15.893  28.337 -0.0496  0.0744  0.0765
 1399W        W 2263  17.411  22.130   6.389 -0.4864 -0.0652  0.0243
 1400W        W 2264  13.680  27.360   4.237  0.3334 -0.1648  0.0839
 1401W        W 2265   1.652  28.456   7.307  0.0704 -0.0319 -0.0783
 1402W        W 2266  21.217  14.795   3.394 -0.0510 -0.2334 -0.0700
 1403W        W 2267  18.446   4.886  16.795  0.1867  0.3625  0.1807
 1404W        W 2268  10.256  26.667  13.292  0.2633 -0.0142 -0.2883
 1405W        W 2269  25.838  28.039   2.233 -0.0874 -0.0831  0.2063
 1406W        W 2270   1.088  23.640  26.531 -0.0561  0.1917 -0.1553
 1407W        W 2271   6.083   0.511  11.072 -0.1258  0.0644  0.1296
 1408W        W 2272  25.567  14.411   6.195  0.2308  0.2625  0.0898
 1409W        W 2273  24.260   0.022   0.468  0.1903 -0.1570  0.2683
 1410W        W 2274  28.181   3.412   9.090  0.1259 -0.0783  0.0934
 1411W        W 2275  21.545  26.178  24.240  0.0458 -0.2226  0.3149
 1412W        W 2276   1.675  28.018  16.278  0.2066 -0.1203  0.1509
 1413W        W 2277  21.334  22.826  22.141 -0.2259  0.0228 -0.0827
 1414W        W 2278   1.929   4.772  27.481 -0.1235  0.1034  0.1656
 1415W        W 2279   8.389   3.251  17.215 -0.0483  0.2227  0.2685
 1416W        W 2280  11.972  15.154  21.440 -0.1341 -0.1932 -0.2679
 1417W        W 2281   5.886  21.849   5.181 -0.0329  0.0068  0.0191
 1418W        W 2282  13.212  14.680  15.308 -0.0554 -0.1996  0.2072
 1419W        W 2283  24.104  25.327   2.609  0.0851 -0.0690  0.0696
 1420W        W 2284  28.741  21.008   8.352  0.1382  0.0027  0.1311
 1421W        W 2285  24.677  22.995  17.197 -0.2141  0.0905  0.1548
 1422W        W 2286   2.391  25.084   6.104  0.0875  0.0218 -0.1016
 1423W        W 2287  27.971  18.176   4.053  0.1326  0.3249  0.0596
 1424W        W 2288  24.600  20.314   6.423  0.1256  0.0755 -0.1575
 1425W        W 2289  14.573  26.281   3.347 -0.0160 -0.1103  0.1468
 1426W        W 2290  26.677   7.088  13.875 -0.2768 -0.0902  0.2018
 1427W        W 2291  24.544  16.889  19.317  0.2022  0.0111  0.2159
 1428W        W 2292  19.259  17.960  23.931 -0.1039  0.1107  0.1499
 1429W        W 2293  15.932  19.188  11.099 -0.1833 -0.0180 -0.0530
 1430W        W 2294   7.580  13.151  22.328  0.1297  0.2308 -0.1919
 1431W        W 2295   5.780  13.529   1.935 -0.1631 -0.0880 -0.0400
 1432W        W 2296  23.959  19.952   5.975 -0.0285  0.1510  0.0103
 1433W        W 2297  22.887   1.618  19.842  0.0028  0.1148 -0.5242
 1434W        W 2298  22.110   6.596   0.066  0.1554 -0.1211 -0.2236
 1435W        W 2299  11.610  14.473  27.470  0.2082  0.1638 -0.0315
 1436W        W 2300  21.871  26.298   3.806 -0.1541 -0.1076  0.2991
 1437W        W 2301   3.448  19.578   9.680  0.0762 -0.1408 -0.1356
 1438W        W 2302  10.102  10.245  11.372 -0.0714  0.1351  0.3041
 1439W        W 2303  12.987  25.203  18.600  0.2389 -0.3541  0.0567
 1440W        W 2304   8.702  11.032   7.330 -0.1372 -0.1429  0.1069
 1441W        W 2305  25.789  19.808  24.837  0.2261 -0.1353  0.3612
 1442W        W 2306  19.017  17.669  25.320 -0.3694  0.1220  0.2000
 1443W        W 2307  12.174  27.112   2.044  0.1655  0.1478 -0.1184
 1444W        W 2308  23.125  24.977  19.026 -0.0251  0.0958 -0.1147
 1445W        W 2309  27.863  28.464   8.802 -0.2355  0.1843  0.0880
 1446W        W 2310  18.023  27.631  17.923 -0.3149 -0.1486  0.0854
 1447W        W 2311   9.785   2.504  15.677  0.1048 -0.1456  0.1360
 1448W        W 2312  12.256   6.514  12.451  0.3325  0.0319 -0.1933
 1449W        W 2313  19.340  11.863  15.262 -0.4348 -0.2459  0.4773
 1450W        W 2314   9.633  16.979  16.033 -0.0163  0.3692  0.0978
 1451W        W 2315  18.996  24.003  12.652 -0.0330 -0.2111  0.3222
 1452W        W 2316  17.021  27.199   2.114  0.0558  0.2004 -0.0497
 1453W        W 2317  21.342  15.986   0.744  0.1683  0.0033  0.1055
 1454W        W 2318   1.483  23.099  28.936  0.2041 -0.2705  0.1604
 1455W        W 2319   7.065  19.155  23.725  0.3467 -0.1570 -0.0174
 1456W        W 2320   5.762   4.341  20.515 -0.1752  0.0992 -0.2134
 1457W        W 2321   1.178   4.938  24.605 -0.1778 -0.0890  0.1119
 1458W        W 2322  24.349  23.156   5.572  0.1204  0.1359 -0.4201
 1459W        W 2323  26.084  10.894  28.686 -0.2262 -0.0224  0.1390
 1460W        W 2324  12.709  14.960   6.390 -0.0001  0.1412 -0.3279
 1461W        W 2325   9.120  20.781  17.494 -0.0051  0.1760  0.2260
 1462W        W 2326  28.189  27.223   2.804 -0.0328  0.1364  0.2205
 1463W        W 2327  21.912   8.227  28.208  0.2914  0.1630  0.0301
 1464W        W 2328  16.924  20.164  28.333  0.1322 -0.0745 -0.1172
 1465W        W 2329  27.650  15.779  14.127  0.0866  0.0224 -0.2548
 1466W        W 2330  24.602  27.329   6.284  0.2051  0.0467 -0.0109
 1467W        W 2331  23.329  11.475  24.002 -0.1854  0.0870 -0.1953
 1468W        W 2332  18.639  27.583  29.107  0.2419 -0.1966 -0.0418
 1469W        W 2333   2.213  10.954   0.758  0.3714  0.0824 -0.1712
 1470W        W 2334   4.121   6.438  24.910  0.0917  0.3230  0.3088
 1471W        W 2335   2.450  26.867   0.290  0.1492 -0.0602  0.3685
 1472W        W 2336  25.921   2.975   1.811  0.3937 -0.0514  0.1350
 1473W        W 2337  25.002  22.341  14.843 -0.0071  0.3877  0.0838
 1474W        W 2338  29.000  27.742  18.329  0.1009 -0.1413  0.0959
 1475W        W 2339   1.220   8.511  20.566  0.0924 -0.0866  0.0017
 1476W        W 2340  20.661  18.940  15.865 -0.1422  0.0088 -0.1401
 1477W        W 2341  16.200  22.967  25.331  0.1877  0.3587  0.0979
 1478W        W 2342  21.851  28.161   6.769 -0.1661 -0.1931 -0.1851
 1479W        W 2343   1.684  18.515  26.750  0.1378  0.1635  0.0327
 1480W        W 2344  26.897  19.938  24.668  0.2571  0.2329 -0.0937
 1481W        W 2345  23.511  26.699  17.242  0.0671 -0.1894 -0.1775
 1482W        W 2346   3.137  17.622   9.666 -0.2134 -0.3662  0.0391
 1483W        W 2347  13.049  14.516  25.912 -0.2193  0.0904  0.1508
 1484W        W 2348  23.608  27.033  20.829  0.0227  0.1469  0.2604
 1485W        W 2349  20.723   2.704   8.013  0.2026  0.0532 -0.0842
 1486W        W 2350   8.467   8.032   8.320  0.1537  0.0823  0.0306
 1487W        W 2351   3.376  20.256  13.073 -0.1197  0.4091  0.0181
 1488W        W 2352  22.020   0.707  21.718 -0.0232  0.2573  0.2640
 1489W        W 2353  28.783   1.646  14.874  0.0897 -0.1677 -0.0230
 1490W        W 2354   0.237  25.026  26.843 -0.1209 -0.1293 -0.1591
 1491W        W 2355   0.107  11.279   6.478  0.1068  0.1185  0.0333
 1492W        W 2356   2.528  12.069  13.786  0.1156 -0.0269 -0.2360
 1493W        W 2357  19.594  21.625  20.982 -0.0591 -0.1707 -0.1715
 1494W        W 2358   4.092   1.145   9.099 -0.0713  0.0624 -0.0591
 1495W        W 2359  19.059  23.082   8.899  0.1758  0.2370 -0.1397
 1496W        W 2360  22.581  19.787  18.737  0.0513 -0.0959 -0.2060
 1497W        W 2361  25.033  24.027   6.085  0.0444 -0.1477 -0.2318
 1498W        W 2362  27.746   2.804  12.699  0.1372 -0.0305 -0.1210
 1499W        W 2363  25.857  20.838   1.951 -0.1562 -0.4013 -0.0547
 1500W        W 2364  26.038  23.629   1.033 -0.0826 -0.2398  0.0025
 1501W        W 2365  23.922  27.352   1.323 -0.3481 -0.0318 -0.0474
 1502W        W 2366  28.647   5.191  25.419 -0.2046  0.2840  0.1647
 1503W        W 2367  21.024  14.777   6.453  0.1828  0.1417  0.0278
 1504W        W 2368   1.491  22.372  24.976  0.0078 -0.0637 -0.3124
 1505W        W 2369  13.188  16.704  20.540  0.2904  0.0031 -0.1892
 1506W        W 2370  26.274   0.574  22.573 -0.1502  0.3054 -0.0578
 1507W        W 2371   4.504  21.519   6.582 -0.3720  0.1072  0.0476
 1508W        W 2372   5.376  15.209  26.503 -0.2029  0.2108  0.2092
 1509W        W 2373  20.053  19.645  24.836  0.0214 -0.1583  0.0156
 1510W        W 2374   9.210  24.057  19.427 -0.1937  0.0928  0.0337
 1511W        W 2375  12.141   2.082   0.361  0.2363  0.3174  0.1102
 1512W        W 2376   3.265  27.547  25.291  0.3077  0.0500 -0.1050
 1513W        W 2377  25.356  25.839   7.227  0.1489  0.3481  0.1488
 1514W        W 2378  12.282  26.479  27.620  0.2410  0.1586 -0.1112
 1515W        W 2379   2.289  10.309   7.965  0.1622 -0.0295 -0.0759
 1516W        W 2380  26.484   8.144  28.988  0.0486  0.0968 -0.1700
 1517W        W 2381  17.163   0.985   8.699  0.0142 -0.0962 -0.1294
 1518W        W 2382  24.687   9.480  12.759 -0.1762  0.3177  0.1299
 1519W        W 2383  18.627  19.537  19.705 -0.2865 -0.3088 -0.2027
 1520W        W 2384   7.569  13.533   6.444  0.1768 -0.1423  0.1684
 1521W        W 2385  18.527  25.545   3.344  0.1061  0.3073 -0.1258
 1522W        W 2386  19.444   0.414  17.898  0.0595  0.1065 -0.5986
 1523W        W 2387   4.633  24.312  24.567  0.2717  0.4136  0.2248
 1524W        W 2388  20.312  23.108   0.841 -0.1352  0.0236 -0.0415
 1525W        W 2389   1.974  24.484  20.005  0.3277 -0.2881 -0.0755
 1526W        W 2390   6.618   0.683  24.605  0.1440 -0.2602 -0.3428
 1527W        W 2391  14.294  22.826  14.380  0.0127 -0.1714  0.2193
 1528W        W 2392  21.766  28.304  24.204  0.1448  0.2055 -0.0065
 1529W        W 2393  18.989  14.419  21.285 -0.1577  0.0066 -0.1038
 1530W        W 2394   0.622  23.019  23.333  0.0863 -0.2132  0.0061
 1531W        W 2395   0.178  16.283   0.407  0.4887  0.1335  0.1570
 1532W        W 2396  12.546   4.149  22.372  0.0628  0.0098 -0.1012
 1533W        W 2397  24.435   1.237  22.479 -0.2418 -0.0748 -0.1074
 1534W        W 2398  14.547  24.918   4.894 -0.0652 -0.0997 -0.0367
 1535W        W 2399  24.927  24.637   1.562 -0.1012  0.0407 -0.5900
 1536W        W 2400  23.817  28.046   5.916 -0.1636 -0.2676 -0.1313
 1537W        W 2401  15.495  27.373  26.057  0.0052 -0.0897 -0.3568
 1538W        W 2402   6.089  22.796   3.642 -0.2137 -0.0055  0.2562
 1539W        W 2403  15.332  13.026  26.455 -0.4501 -0.0562  0.3948
 1540W        W 2404   4.281   7.217   4.929  0.3580 -0.2620  0.1806
 1541W        W 2405  22.266  11.946   9.730 -0.0881 -0.0476  0.1181
 1542W        W 2406   0.393   6.631   5.835  0.0016  0.2843  0.0340
 1543W        W 2407   5.357  13.423   5.623  0.3418  0.0494  0.2787
 1544W        W 2408  21.361  22.523  25.351 -0.0630 -0.1344  0.0522
 1545W        W 2409  17.140  23.093   1.335 -0.3690  0.0785  0.3882
 1546W        W 2410  17.818  19.811   8.281  0.1511  0.0716  0.3282
 1547W        W 2411  22.304  15.367   2.483 -0.0226 -0.1336  0.2636
 1548W        W 2412  15.044   5.007  20.270  0.0879 -0.2502 -0.3036
 1549W        W 2413  21.269   4.710  15.884  0.0405  0.1050  0.0138
 1550W        W 2414  24.579  20.998  22.684  0.0054  0.3482  0.0783
 1551W        W 2415  21.406   7.336  24.838 -0.2851  0.0986  0.0864
 1552W        W 2416   6.429  10.364   0.739 -0.2426 -0.1861  0.0018
 1553W        W 2417  10.908   1.554  18.387  0.1186  0.1257 -0.0251
 1554W        W 2418  11.121  23.294   2.498 -0.2167 -0.3927 -0.0413
 1555W        W 2419  18.925   7.894   8.407  0.1658 -0.0373  0.2686
 1556W        W 2420   5.320  22.232  18.233 -0.0971  0.1142  0.0436
 1557W        W 2421   2.459   6.793  21.982 -0.2192 -0.3960 -0.4968
 1558W        W 2422  24.849  24.474   1.040 -0.0277 -0.0870 -0.1780
 1559W        W 2423   0.326  20.573  23.452  0.0811  0.1237  0.1437
 1560W        W 2424  28.501  17.165   2.683  0.3142 -0.0100  0.0514
 1561W        W 2425  23.364  24.417  23.752  0.1978 -0.3724 -0.0606
 1562W        W 2426  15.089  17.739  21.480 -0.1434 -0.1277  0.4392
 1563W        W 2427   3.204  13.809  16.633  0.2735 -0.1704  0.0492
 1564W        W 2428   5.447  28.239   9.295  0.4779 -0.0615 -0.1607
 1565W        W 2429  28.198  22.757   7.895 -0.1025 -0.0273 -0.2626
 1566W        W 2430   3.951   9.177  26.827  0.0697  0.0396 -0.0682
 1567W        W 2431  10.543  14.055  10.629 -0.0806  0.0238  0.0318
 1568W        W 2432   1.580  26.678  23.887 -0.2841  0.0630 -0.2025
 1569W        W 2433  19.370  23.892   4.112  0.0216  0.0545 -0.1970
 1570W        W 2434  26.097   3.813   9.545 -0.0177 -0.0705 -0.1006
 1571W        W 2435  10.434  16.342   1.207  0.1045  0.0985 -0.0372
 1572W        W 2436   5.583  16.182  25.900  0.0880  0.0029  0.1967
 1573W        W 2437   9.786  17.374  25.508 -0.1471  0.0711 -0.1165
 1574W        W 2438  12.249   7.185   2.680 -0.1751 -0.3253 -0.1588
 1575W        W 2439   3.153   4.458   2.594 -0.2630  0.0490 -0.0855
 1576W        W 2440  20.756  12.880  27.723  0.0408  0.4977 -0.0610
 1577W        W 2441  18.875   6.763  22.741 -0.0257  0.2226 -0.0357
 1578W        W 2442  26.280   8.576  25.629 -0.1330 -0.0138  0.1634
 1579W        W 2443  17.879  18.597  10.448  0.2528 -0.1304  0.2821
 1580W        W 2444  21.421  22.680   2.370 -0.0142  0.1229  0.1351
 1581W        W 2445  25.327  28.797  24.538 -0.2252 -0.1113  0.1843
 1582W        W 2446  18.189   6.510  24.960 -0.1424  0.0614 -0.1988
 1583W        W 2447   5.962  26.993  17.283 -0.0363 -0.1370 -0.1587
 1584W        W 2448  20.308   7.591   0.297 -0.0997 -0.4616 -0.1708
 1585W        W 2449   1.919  24.933   6.909  0.0655 -0.0950 -0.2130
 1586W        W 2450  24.573  18.095  24.918 -0.3536 -0.0980  0.2613
 1587W        W 2451   1.608  15.855   5.670  0.1530  0.0333 -0.2101
 1588W        W 2452   3.611   9.273  27.678 -0.3776  0.1863  0.2106
 1589W        W 2453  23.034   4.921  26.337 -0.2249 -0.1067 -0.2598
 1590W        W 2454  16.823   1.996  27.948 -0.0326 -0.3614  0.2088
 1591W        W 2455  28.449  17.354   0.310 -0.3276 -0.0150  0.2624
 1592W        W 2456   8.262  19.692   4.408 -0.1313 -0.0169 -0.2046
 1593W        W 2457   4.577   9.277   3.707 -0.1007 -0.0786  0.0153
 1594W        W 2458  22.898  23.097  25.320 -0.3608  0.0906 -0.0514
 1595W        W 2459  12.999  11.427  23.290  0.4332  0.0189 -0.0872
 1596W        W 2460   2.258  19.111   2.751 -0.0980 -0.0060 -0.2344
 1597W        W 2461  27.400   0.466  20.270 -0.0781  0.1188  0.0152
 1598W        W 2462  17.991   7.365  13.760  0.2934 -0.0115  0.4813
 1599W        W 2463  27.929  28.199  23.565  0.2861 -0.1763  0.0397
 1600W        W 2464  28.712   2.399  12.965  0.0897  0.0266  0.2114
 1601W        W 2465  24.325  20.471   2.741 -0.0476  0.0712  0.2604
 1602W        W 2466   2.369   4.278   4.145 -0.0354 -0.0848  0.0449
 1603W        W 2467  16.236  13.673  21.008  0.1717 -0.1015 -0.0565
 1604W        W 2468   8.441   4.683  14.529  0.1681 -0.0975  0.1854
 1605W        W 2469   3.104   1.546  17.141  0.1943 -0.0073  0.0038
 1606W        W 2470   4.348  22.731  20.809 -0.1506 -0.0342  0.0660
 1607W        W 2471  28.205  17.431  23.770  0.0424  0.1144 -0.0955
 1608W        W 2472  15.966  13.961   3.832 -0.0224 -0.0768 -0.0398
 1609W        W 2473  23.739   0.450   5.954  0.0333 -0.0416  0.1268
 1610W        W 2474  10.050  23.219   4.393  0.0844 -0.1188 -0.0850
 1611W        W 2475  13.333  18.649  27.062 -0.2201 -0.0693  0.0096
 1612W        W 2476  11.830  27.528   3.380  0.1081 -0.4059  0.1909
 1613W        W 2477  13.798   3.439  24.989 -0.2680 -0.1293 -0.2762
 1614W        W 2478  22.614  25.072   2.076  0.1142  0.0757  0.0705
 1615W        W 2479  21.101  16.254  27.133  0.0508  0.1038  0.0320
 1616W        W 2480   4.498  20.050  26.731  0.0840  0.3284 -0.0391
 1617W        W 2481  12.419  21.692  21.273  0.2009  0.2395  0.1980
 1618W        W 2482   1.691  10.057  10.181 -0.2624 -0.0964 -0.0960
 1619W        W 2483  21.411  22.464   5.525  0.0018 -0.0109 -0.0983
 1620W        W 2484   3.111   0.133   2.285 -0.1704 -0.1481  0.0157
 1621W        W 2485  28.781   5.952  15.638  0.5251 -0.2799  0.2308
 1622W        W 2486  20.125  14.141  16.608 -0.0962  0.1044  0.0165
 1623W        W 2487   0.056   5.754   1.268  0.1108  0.0978  0.3427
 1624W        W 2488  22.127   2.863  27.834  0.0331 -0.0593  0.0170
 1625W        W 2489  19.729  14.700  15.873 -0.6305 -0.2703 -0.1349
 1626W        W 2490  26.982  10.282   1.908  0.2001 -0.1665 -0.0251
 1627W        W 2491   0.474  23.776  25.816  0.0799 -0.2575  0.2055
 1628W        W 2492  20.935  11.352   4.404 -0.4043 -0.1210  0.2671
 1629W        W 2493   8.335  17.900  14.324 -0.0351  0.4411  0.2229
 1630W        W 2494   6.472  17.680   3.293  0.0856 -0.0995  0.2530
 1631W        W 2495  17.240  18.045  17.404 -0.0393  0.1126 -0.2015
 1632W        W 2496  25.084   9.989   0.944 -0.1983  0.0048 -0.2375
 1633W        W 2497  22.221  23.359  12.218 -0.1854 -0.1185 -0.2796
 1634W        W 2498  18.262   4.932  14.857 -0.3012 -0.0919  0.1523
 1635W        W 2499  24.761  22.633   4.728 -0.1230  0.2864  0.0303
 1636W        W 2500   1.732  17.085  16.476  0.1062 -0.2039 -0.2508
 1637W        W 2501  14.829  18.477   7.750 -0.1142 -0.2521 -0.0922
 1638W        W 2502   1.605  10.802  21.932  0.2245 -0.0123  0.1216
 1639W        W 2503  28.994  14.157   6.574 -0.0217 -0.1221  0.1016
 1640W        W 2504  12.840  13.410  19.888 -0.0071 -0.1387  0.1970
 1641W        W 2505  21.858  21.156   0.525 -0.4227  0.1575 -0.1109
 1642W        W 2506  23.415  25.464  21.545 -0.0824  0.0242 -0.2553
 1643W        W 2507  22.698  10.187   5.989  0.2566 -0.1841  0.1935
 1644W        W 2508   8.597   3.022   1.386 -0.2277  0.1108 -0.0528
 1645W        W 2509   3.002   0.978   7.635  0.1152 -0.0453  0.0354
 1646W        W 2510  20.535   9.851  18.810  0.2345  0.0893  0.3882
 1647W        W 2511  19.948  27.641   2.845  0.0812  0.2438 -0.1748
 1648W        W 2512  12.083   0.422   4.462 -0.1980  0.5707 -0.2902
 1649W        W 2513  26.324  25.347   7.385  0.1619 -0.0326  0.2194
 1650W        W 2514   2.263  20.036   4.743 -0.0061  0.1109 -0.1407
 1651W        W 2515  20.276  28.309  12.067 -0.0735  0.1981 -0.1462
 1652W        W 2516   2.478  14.831  13.103 -0.1612  0.0775 -0.0098
 1653W        W 2517  25.981  26.170  12.893  0.2114  0.0099 -0.0741
 1654W        W 2518  17.178  15.003  24.886 -0.0778 -0.0083 -0.0565
 1655W        W 2519   1.232  20.217  13.206  0.2491  0.0841  0.1004
 1656W        W 2520   7.838   6.023  14.809 -0.1265  0.0442 -0.2380
 1657W        W 2521  16.607  23.689  21.768 -0.3183  0.2480  0.2460
 1658W        W 2522  23.002  21.680   7.210 -0.2151 -0.2097  0.1289
 1659W        W 2523  26.324  24.512   8.019 -0.0106  0.0668  0.3417
 1660W        W 2524  21.654  15.126  18.545 -0.0790 -0.1338 -0.0162
 1661W        W 2525  22.211  14.166   9.467 -0.0125  0.0439 -0.2384
 1662W        W 2526  10.589  10.657  24.673 -0.1176  0.1182 -0.3569
 1663W        W 2527   3.674   3.144  28.924  0.0842 -0.1004  0.0006
 1664W        W 2528  28.420   1.404  24.846 -0.0229 -0.1949 -0.0961
 1665W        W 2529  20.835   1.964   5.702 -0.3808 -0.0157 -0.0182
 1666W        W 2530   2.618   7.151  20.676 -0.1769  0.0443 -0.3898
 1667W        W 2531   5.008   9.988  14.558 -0.0589 -0.1632 -0.3398
 1668W        W 2532  13.738  12.971   6.203  0.1669  0.0381  0.0420
 1669W        W 2533  26.638   7.087   2.350  0.0127 -0.4261 -0.4372
 1670W        W 2534   3.108   7.871   6.808 -0.0438  0.0233 -0.0083
 1671W        W 2535   3.286   8.077  26.558 -0.1788  0.0003 -0.0718
 1672W        W 2536  27.517  22.854   2.778 -0.0014  0.0144  0.1771
 1673W        W 2537   2.606  23.686  25.451  0.1827  0.1202  0.2683
 1674W        W 2538  10.675  13.619   1.437  0.0612  0.1011 -0.1843
 1675W        W 2539   4.473  18.737  10.727  0.0600  0.3548 -0.1939
 1676W        W 2540   5.060  18.924   4.175 -0.0447  0.1350 -0.0089
 1677W        W 2541  26.836   5.539  27.504  0.1527 -0.0611  0.1041
 1678W        W 2542  12.503  24.743  10.293  0.1802 -0.1118 -0.0340
 1679W        W 2543  28.429  19.950   7.283 -0.1742 -0.0782 -0.0009
 1680W        W 2544  26.350  24.110   2.885 -0.2976  0.2946  0.0608
 1681W        W 2545  10.773  22.967  11.451 -0.2816 -0.0214  0.0527
 1682W        W 2546   1.029   3.009  16.422  0.3009 -0.0247 -0.1605
 1683W        W 2547  23.995   2.484  13.651  0.1387  0.0190 -0.0025
 1684W        W 2548  18.471  23.828  27.133 -0.1023  0.2399  0.2280
 1685W        W 2549   8.549   8.328  21.049 -0.1132 -0.0578 -0.2129
 1686W        W 2550  21.462   0.855   9.103  0.0016 -0.2671  0.2230
 1687W        W 2551  15.863  23.293  19.556 -0.0653  0.1497  0.2314
 1688W        W 2552  27.027  27.026  20.980  0.4205 -0.2734 -0.0064
 1689W        W 2553  15.736  21.905  27.340 -0.1347 -0.1485  0.0514
 1690W        W 2554  16.014  12.803   2.072  0.0497  0.0801 -0.0649
 1691W        W 2555   4.793  21.973  28.789 -0.4264 -0.0932  0.0561
 1692W        W 2556  10.220  21.200  27.701 -0.1972  0.1485  0.1356
 1693W        W 2557  23.427  12.805  27.114 -0.0386 -0.1645 -0.0203
 1694W        W 2558  22.691  11.030   7.128  0.2151 -0.2037  0.0634
 1695W        W 2559   5.208  16.144  27.933 -0.0937 -0.0867  0.0013
 1696W        W 2560  19.115  11.020   4.933  0.0141 -0.0330 -0.0916
 1697W        W 2561  11.037  23.532  28.342 -0.0844 -0.0608 -0.0690
 1698W        W 2562  12.164  20.210  13.466 -0.3097  0.1501 -0.0511
 1699W        W 2563   2.711   2.398   8.799 -0.1562 -0.0945 -0.2647
 1700W        W 2564  15.033  28.394  10.346  0.2813  0.1327 -0.0244
 1701W        W 2565  21.510   4.098   6.439 -0.0129  0.3260  0.0480
 1702W        W 2566  22.694  13.380  17.570  0.1508 -0.0668  0.2901
 1703W        W 2567  11.539  23.949  15.729  0.1049  0.0703 -0.0314
 1704W        W 2568  17.272  24.237   2.802  0.0276 -0.1245 -0.1081
 1705W        W 2569   1.267  19.876  14.116  0.0902  0.0126 -0.0473
 1706W        W 2570   4.093  24.108   2.974  0.1256 -0.0713  0.0558
 1707W        W 2571   1.536   5.010  26.729  0.1822 -0.0772 -0.1589
 1708W        W 2572  15.028   5.937   1.079 -0.0854 -0.2095 -0.0900
 1709W        W 2573   0.059  28.318   1.183 -0.0469  0.1309 -0.0906
 1710W        W 2574  25.889  24.812  20.319 -0.0312  0.0226 -0.0509
 1711W        W 2575  14.023  14.787  20.491 -0.1929 -0.3785  0.0900
 1712W        W 2576   6.706  18.042  14.737 -0.1274 -0.3769 -0.0647
 1713W        W 2577  28.784   7.394   9.415 -0.2331 -0.1686 -0.1918
 1714W        W 2578  26.857   7.381  18.722 -0.0649  0.1334  0.0548
 1715W        W 2579  27.884  26.310   4.290  0.3217  0.1234 -0.2078
 1716W        W 2580  23.120   4.855  28.445  0.2536  0.1347 -0.2000
 1717W        W 2581  25.459  19.394   8.569  0.1432  0.1049 -0.0063
 1718W        W 2582   2.717   0.611   7.565  0.3056  0.2625 -0.2837
 1719W        W 2583   4.744  26.364   4.421  0.2180 -0.3350 -0.1610
 1720W        W 2584  14.185   0.234  23.025 -0.3513  0.1406  0.3135
 1721W        W 2585  16.688  22.037   6.032  0.2147 -0.0362  0.1610
 1722W        W 2586  27.853  27.340   0.368  0.2407 -0.1629  0.3029
 1723W        W 2587  22.459  24.589  28.911  0.3734 -0.2928 -0.0539
 1724W        W 2588   2.864   8.552  22.626 -0.2992 -0.1737  0.0753
 1725W        W 2589  22.195  21.300  17.149 -0.2331  0.3629 -0.2562
 1726W        W 2590  14.373   4.610   9.822  0.1521  0.1416  0.0089
 1727W        W 2591  15.476  16.035  22.268 -0.1964  0.0125  0.1649
 1728W        W 2592  20.355   4.114  17.536 -0.2954  0.1559 -0.1142
 1729W        W 2593  26.505  20.759  21.596  0.0135 -0.0399  0.1924
 1730W        W 2594   0.777   1.217   0.539 -0.0560  0.2133  0.2337
 1731W        W 2595  22.518   0.197   8.846  0.2727 -0.0150  0.0283
 1732W        W 2596   2.523  11.555  20.386  0.2984  0.0992  0.0342
 1733W        W 2597   3.677  12.383  18.905  0.2037  0.0464  0.0825
 1734W        W 2598  11.222  28.783  20.475 -0.2195 -0.0033 -0.0177
 1735W        W 2599  28.058  14.970  18.765  0.0033  0.0406  0.1193
 1736W        W 2600  27.475  16.489  12.774  0.1155  0.0747  0.1786
 1737W        W 2601  22.508   1.289  13.475 -0.0216 -0.1066 -0.1240
 1738W        W 2602   6.909  15.735  10.242  0.3491  0.1889 -0.0071
 1739W        W 2603   1.819  11.910   9.664 -0.2099 -0.0445  0.0796
 1740W        W 2604  11.226   2.224  25.036 -0.0523  0.2301 -0.0187
 1741W        W 2605  14.481   6.317  26.125 -0.0182 -0.1214 -0.0578
 1742W        W 2606  11.653  11.343   0.966  0.2486 -0.0746 -0.0732
 1743W        W 2607   0.704  10.564  20.752  0.2521 -0.2383  0.2387
 1744W        W 2608   7.153   9.804   3.245 -0.1159  0.2074  0.2411
 1745W        W 2609   7.345  26.956  24.757 -0.0533 -0.1006  0.0043
 1746W        W 2610  27.549  11.298  26.687 -0.2215  0.0599  0.3112
 1747W        W 2611  28.105   8.931  16.154  0.1246  0.1587  0.1188
 1748W        W 2612  24.920   5.523  27.779  0.1639  0.1164  0.2432
 1749W        W 2613  18.032  21.624  21.215 -0.0363 -0.3138 -0.1165
 1750W        W 2614  16.445  24.384  26.734 -0.0025  0.0520 -0.2920
 1751W        W 2615  23.569  25.559   1.443 -0.2231 -0.0357 -0.1192
 1752W        W 2616   3.909  28.816  11.552  0.1136  0.0519  0.0771
 1753W        W 2617   2.485   4.392  12.889 -0.0542 -0.2210  0.0952
 1754W        W 2618  27.127  17.486  20.444 -0.0619 -0.0358  0.0886
 1755W        W 2619  25.833  29.066  26.752 -0.2865  0.0411  0.1914
 1756W        W 2620   5.525  14.928   4.617 -0.0833 -0.0092 -0.0069
 1757W        W 2621  21.948   1.610   6.497 -0.0812  0.0985  0.3265
 1758W        W 2622   4.414   1.118   9.624  0.0724  0.1413  0.2313
 1759W        W 2623  23.345  19.655  21.895 -0.0622  0.0296  0.3723
 1760W        W 2624  11.258  11.039  21.585 -0.0266 -0.1666 -0.0465
 1761W        W 2625  15.379   9.398  25.602 -0.1147  0.3140 -0.1655
 1762W        W 2626  29.136  27.254   0.810 -0.0348  0.0224 -0.0375
 1763W        W 2627  17.572  27.941   2.043 -0.3924 -0.0808  0.2455
 1764W        W 2628  24.549   3.721   2.376  0.2504 -0.0985  0.3119
 1765W        W 2629  22.301  19.779  11.597 -0.1864  0.0091  0.3603
 1766W        W 2630  25.295   5.442  19.830 -0.2807 -0.0748  0.1625
 1767W        W 2631   5.285   0.301  26.752 -0.0182  0.0360 -0.2014
 1768W        W 2632  16.647  26.356  14.713  0.2108  0.3697 -0.0745
 1769W        W 2633  27.037  11.332  26.087  0.0732 -0.3123 -0.2494
 1770W        W 2634  17.066   4.974  28.675  0.1961  0.0021 -0.1398
 1771W        W 2635  20.481   4.871   0.735  0.1454  0.0952  0.0323
 1772W        W 2636  28.517  23.450  11.472  0.0690  0.1438 -0.0362
 1773W        W 2637   8.571  27.409   2.789  0.0103 -0.0556  0.0566
 1774W        W 2638  26.937  23.527   5.150  0.1376 -0.2166  0.1954
 1775W        W 2639  25.106  14.083  25.919 -0.1224 -0.1929 -0.3177
 1776W        W 2640   9.232  14.055   9.033 -0.1411 -0.1541  0.0618
 1777W        W 2641  28.878   2.727  25.134  0.1312  0.2109 -0.2868
 1778W        W 2642   3.792   7.262   4.857 -0.0083  0.0893 -0.2072
 1779W        W 2643   9.790   0.487  15.231  0.1030  0.0848 -0.0153
 1780W        W 2644   2.374  25.180  23.617 -0.0040  0.2553 -0.1955
 1781W        W 2645   9.324  18.191  20.427  0.0399  0.0957  0.2352
 1782W        W 2646   0.832  25.101   9.564 -0.0619 -0.0655  0.1869
 1783W        W 2647   1.231  24.176  13.280  0.0457 -0.2074 -0.1954
 1784W        W 2648   9.208  12.165   3.888 -0.3588  0.2558 -0.0913
 1785W        W 2649  28.214   8.590  20.906  0.0045 -0.1728 -0.0121
 1786W        W 2650  20.480  16.080  10.481 -0.2030 -0.1983 -0.0089
 1787W        W 2651   0.579   8.411  11.314  0.0568 -0.1007  0.0430
 1788W        W 2652   0.021  21.567   3.393 -0.1980  0.1134  0.1510
 1789W        W 2653  23.804  10.169  15.714  0.1720  0.1066 -0.1313
 1790W        W 2654   1.993   2.550  25.586 -0.0096  0.0151 -0.3142
 1791W        W 2655   1.924  19.838   5.547  0.1570  0.0502 -0.0388
 1792W        W 2656   5.156  21.530  16.540  0.2993  0.1042  0.0022
 1793W        W 2657  23.512   0.302  20.748 -0.2983 -0.0626  0.0499
 1794W        W 2658  13.105  28.970  28.607 -0.0029  0.3208 -0.1984
 1795W        W 2659  18.057   3.890  17.369 -0.2471 -0.2383 -0.1281
 1796W        W 2660  18.181   6.922   2.175 -0.1188 -0.0755 -0.4482
 1797W        W 2661   3.963  28.300  28.804  0.1726 -0.1442 -0.2564
 1798W        W 2662   0.218  18.995   9.013 -0.0822  0.2915 -0.0344
 1799W        W 2663   0.120  12.679   2.214  0.3499  0.1460 -0.4738
 1800W        W 2664  11.711  19.242  22.767 -0.1091  0.1227 -0.3148
 1801W        W 2665  13.088  24.666  22.138 -0.0017 -0.1022  0.3637
 1802W        W 2666  24.366  22.533   8.304  0.0108  0.1621  0.6842
 1803W        W 2667  25.709  22.612   0.441  0.0463  0.2494 -0.0063
 1804W        W 2668  17.887  28.708  19.930  0.1838 -0.1407  0.0179
 1805W        W 2669   4.504  23.411  20.558  0.1533 -0.0069  0.3148
 1806W        W 2670   9.216   3.144  12.329  0.0167  0.1463 -0.0818
 1807W        W 2671   0.513  26.082  13.737  0.2002  0.2482 -0.0477
 1808W        W 2672  20.073  28.372  25.875 -0.0639  0.1511 -0.1273
 1809W        W 2673  23.902  19.424   7.634  0.2251  0.1009  0.1868
 1810W        W 2674   0.547  21.659  20.993  0.0122 -0.0068  0.2530
 1811W        W 2675   1.206   7.306   4.019 -0.2999  0.0273  0.0288
 1812W        W 2676   1.829   7.537   8.167 -0.1201 -0.0326 -0.2978
 1813W        W 2677   6.684  15.419  13.234 -0.1907 -0.0040  0.4425
 1814W        W 2678  25.936  26.907   9.116 -0.0001 -0.0073 -0.0192
 1815W        W 2679  15.568  25.607   9.044 -0.0100  0.0964  0.0129
 1816W        W 2680  28.593  12.582  17.720 -0.1644 -0.1903 -0.0595
 1817W        W 2681  12.045  14.953  16.637 -0.1172  0.0216  0.5443
 1818W        W 2682   8.923   0.047   5.449 -0.1950 -0.2927  0.1041
 1819W        W 2683  16.672  13.566   6.866  0.3041  0.0774 -0.0299
 1820W        W 2684  17.522  20.369  10.823 -0.3332 -0.2218  0.2891
 1821W        W 2685  22.302  14.660   7.157 -0.0829  0.0164  0.2592
 1822W        W 2686  20.281  22.278   6.177 -0.1505 -0.5855  0.0552
 1823W        W 2687  22.123  23.166  29.009  0.0225 -0.2327 -0.2092
 1824W        W 2688  16.685   0.885  13.545 -0.3081 -0.1755  0.2099
 1825W        W 2689  26.019  28.733  19.517  0.1649  0.3332 -0.0250
 1826W        W 2690   5.665  13.996  24.716  0.1846 -0.1302 -0.0454
 1827W        W 2691   3.612  13.491  12.188 -0.3060  0.0032 -0.2741
 1828W        W 2692  27.287  24.018  14.809  0.4069 -0.0689  0.2462
 1829W        W 2693  22.629  13.395  20.859 -0.0943  0.0607  0.0691
 1830W        W 2694   4.652  26.481   1.547 -0.2470  0.1181  0.0356
 1831W        W 2695   1.127  22.460  17.898  0.0835 -0.0534 -0.0999
 1832W        W 2696  17.530   3.532   3.205  0.1186 -0.0743 -0.0374
 1833W        W 2697  22.099   3.592  14.141 -0.2646 -0.1439  0.2955
 1834W        W 2698  24.960   8.278  18.426 -0.3063  0.0283  0.2490
 1835W        W 2699  25.820  26.008  26.968 -0.0876 -0.2278 -0.0353
 1836W        W 2700  23.104  26.915   2.500 -0.2011 -0.0603 -0.1576
 1837W        W 2701  22.291   9.547  12.110  0.1201 -0.0663 -0.1055
 1838W        W 2702  28.763   6.502   8.916 -0.2381  0.1580  0.1616
 1839W        W 2703   6.447  15.835  16.834 -0.1739 -0.2040 -0.3210
 1840W        W 2704   7.759  17.032  17.102 -0.1124  0.0680  0.0623
 1841W        W 2705   4.076  20.673   1.502 -0.0599  0.1799  0.2657
 1842W        W 2706  20.497  19.359   6.601  0.1469  0.1620 -0.0186
 1843W        W 2707  28.551   3.095   9.110 -0.0594  0.3890 -0.4474
 1844W        W 2708  26.718  28.164   5.340  0.1767  0.3126  0.0324
 1845W        W 2709  15.293  22.207  15.487  0.2704 -0.1960 -0.0553
 1846W        W 2710  10.662  20.948  27.550  0.0275 -0.2301  0.1420
 1847W        W 2711  14.405  28.026  15.755  0.0446  0.0119  0.4251
 1848W        W 2712  20.876   8.064  12.900  0.0653  0.2687  0.1820
 1849W        W 2713   2.459  21.708  24.201 -0.0149 -0.1775 -0.1229
 1850W        W 2714   3.962  21.827   3.963 -0.2331 -0.2415 -0.0472
 1851W        W 2715  17.459  11.127  16.337 -0.0711  0.0329  0.4499
 1852W        W 2716   5.157  26.082   8.217  0.0319 -0.0590  0.0548
 1853W        W 2717   0.312  14.567  22.010 -0.0097  0.1712 -0.2410
 1854W        W 2718  17.972  24.883   1.694  0.0907 -0.3527  0.0745
 1855W        W 2719   4.539  22.202  14.400 -0.0691  0.2165  0.1579
 1856W        W 2720  12.462   9.311   2.070  0.0455  0.0372  0.0838
 1857W        W 2721   3.523  25.380   5.284  0.0792  0.1325  0.2413
 1858W        W 2722  18.660  16.602  12.788 -0.3405 -0.1160  0.0648
 1859W        W 2723  16.511   5.705   1.400  0.1032 -0.4786 -0.1049
 1860W        W 2724   8.180  14.489   5.276 -0.1573  0.0481  0.0327
 1861W        W 2725   6.653  26.893   4.422 -0.3072 -0.0582  0.0993
 1862W        W 2726  21.026  12.260   6.410  0.2512  0.0039 -0.0355
 1863W        W 2727  20.546   3.351   2.128  0.1072 -0.0323  0.1298
 1864W        W 2728  12.865  16.346   7.025 -0.3802 -0.2125  0.1448
 1865W        W 2729  22.114  10.198  23.406  0.1272  0.1256 -0.2614
 1866W        W 2730  25.490  25.031  26.876 -0.2706 -0.3198  0.2237
 1867W        W 2731  15.222  25.545  14.391  0.1255 -0.1012 -0.0246
 1868W        W 2732  21.670   6.273   7.071  0.0354  0.1048 -0.2281
 1869W        W 2733  25.692  24.847  13.596 -0.2421  0.2512  0.1691
 1870W        W 2734   6.672   8.383  11.167 -0.0112  0.1289 -0.0645
 1871W        W 2735   5.508   1.735  10.548  0.1724  0.3196  0.1023
 1872W        W 2736   0.225  12.049  14.577  0.1413  0.0371 -0.0058
 1873W        W 2737  20.727  23.610   1.572  0.1196 -0.1300  0.1989
 1874W        W 2738  28.702  11.492   7.633  0.0483  0.2198 -0.3073
 1875W        W 2739  14.286  18.152   9.823  0.1184  0.0617  0.0817
 1876W        W 2740   5.101   8.172   6.199  0.2423 -0.0829 -0.1201
 1877W        W 2741  15.868   5.895  27.245 -0.1824  0.1738  0.1491
 1878W        W 2742  24.108  24.034   5.617 -0.0339 -0.1014  0.3416
 1879W        W 2743  14.598  18.179  15.811  0.1728  0.0546 -0.0637
 1880W        W 2744  10.375   6.505   3.913 -0.0931 -0.5029 -0.5491
 1881W        W 2745   0.395  26.851  28.418  0.0467 -0.1969 -0.0895
 1882W        W 2746  24.419  21.660   1.275 -0.1521 -0.1232  0.1427
 1883W        W 2747  15.723   0.970  23.098  0.1430  0.0276  0.3150
 1884W        W 2748  13.035  20.761   8.142 -0.0133 -0.0949  0.4079
 1885W        W 2749   3.845   3.142   5.065 -0.3397 -0.0109 -0.2862
 1886W        W 2750  19.471  15.114  20.087 -0.0486 -0.4198 -0.0799
 1887W        W 2751  26.268   1.002  23.353 -0.0923 -0.0489 -0.0677
 1888W        W 2752   2.303   2.225  25.215  0.2380 -0.3836 -0.1406
 1889W        W 2753  20.745   1.530  23.394  0.2497  0.0343  0.2018
 1890W        W 2754   2.693  28.293  19.066 -0.1024 -0.2193 -0.0783
 1891W        W 2755   1.848   3.292   1.982 -0.0843  0.1263 -0.4127
 1892W        W 2756  26.638  25.397  19.222 -0.1046 -0.0251 -0.0945
 1893W        W 2757   2.527   3.758  18.057  0.1265  0.0069 -0.0908
 1894W        W 2758  15.722  14.495  24.361 -0.1587 -0.0750 -0.0980
 1895W        W 2759  27.091  27.251   2.347  0.1494 -0.3116 -0.2496
 1896W        W 2760  23.663  28.134  10.909 -0.0105  0.0894 -0.2837
 1897W        W 2761  18.974  26.405  22.381 -0.0808  0.0842  0.2929
 1898W        W 2762  13.506   5.658   1.861 -0.0355  0.0278 -0.0346
 1899W        W 2763   5.864  18.174   5.964  0.0156  0.1185  0.0687
 1900W        W 2764   7.544  11.139   3.977  0.0161  0.2417  0.2348
 1901W        W 2765   4.388  12.820  15.718 -0.1366 -0.0754  0.3121
 1902W        W 2766  25.086  28.824  11.851  0.1719  0.0465  0.0364
 1903W        W 2767   2.723   3.433   3.903  0.0189 -0.1472 -0.2895
 1904W        W 2768  22.025   6.611   1.152 -0.0715  0.0231  0.0023
 1905W        W 2769   9.415  11.412  17.908 -0.1034  0.0260 -0.0303
 1906W        W 2770   1.933  25.078   8.247 -0.1762  0.3096  0.3273
 1907W        W 2771  23.142  13.278  19.004 -0.0522 -0.1009  0.0586
 1908W        W 2772  24.690  20.794   2.575 -0.0007 -0.0486  0.0141
 1909W        W 2773  18.933  29.143   5.564  0.1794 -0.0904 -0.0601
 1910W        W 2774  21.505  21.699   1.570 -0.0344  0.0562  0.2037
 1911W        W 2775  11.880   8.452  11.899 -0.2453  0.2805  0.0254
 1912W        W 2776  23.488   5.429  26.283  0.1185 -0.2688 -0.0865
 1913W        W 2777  28.060   2.198   8.922 -0.1736 -0.4660  0.0327
 1914W        W 2778  22.002  12.923   1.160  0.2400 -0.0186  0.0801
 1915W        W 2779  16.669  21.581   7.676  0.3426  0.1947  0.1033
 1916W        W 2780   9.579  14.528   2.174  0.1386  0.1154  0.0997
 1917W        W 2781  27.156   9.785   2.639  0.4208  0.0512  0.0724
 1918W        W 2782  13.324   9.225  21.340  0.0292 -0.2016 -0.4850
 1919W        W 2783  11.575  26.260   7.333  0.1386  0.4144  0.2141
 1920W        W 2784   1.891  25.382  28.572 -0.1488 -0.0515 -0.0779
 1921W        W 2785  22.088  14.204  10.092  0.1055  0.1131  0.0372
 1922W        W 2786   3.057  22.104  28.993  0.0045  0.0453 -0.2074
 1923W        W 2787   0.757   7.031   5.787  0.2812 -0.1693  0.0606
 1924W        W 2788  16.825   9.965   2.712 -0.0612  0.2607 -0.1373
 1925W        W 2789  10.037   5.401   9.908  0.0287 -0.2581  0.0343
 1926W        W 2790  14.724  16.453  23.991 -0.0366  0.2262  0.1940
 1927W        W 2791   5.826  20.171  13.324  0.1679 -0.3351  0.2628
 1928W        W 2792   8.591   3.833   6.295  0.1385 -0.3684 -0.0443
 1929W        W 2793  18.510   2.681  18.330  0.0922  0.1745 -0.1666
 1930W        W 2794  22.526  28.855   8.992  0.2421 -0.0058  0.0220
 1931W        W 2795  26.395  27.753  16.233 -0.1333 -0.1940  0.0620
 1932W        W 2796   3.502  17.444  20.352 -0.1579  0.0388 -0.1329
 1933W        W 2797  17.763  10.187  24.126 -0.0548  0.2383 -0.0029
 1934W        W 2798   0.840   3.972  25.239  0.1669  0.0751  0.0459
 1935W        W 2799  16.143  24.384  27.855 -0.4323  0.1443 -0.0751
 1936W        W 2800   5.577  26.839  21.368 -0.1224 -0.1508 -0.0261
 1937W        W 2801  21.009  26.332   5.413 -0.1461  0.1207 -0.0434
 1938W        W 2802   0.926  15.192  27.985 -0.0230 -0.2921 -0.2526
 1939W        W 2803  19.038  26.172  26.204  0.0543 -0.1673 -0.0657
 1940W        W 2804  28.592  16.976   3.140 -0.0402  0.0724 -0.0576
 1941W        W 2805  19.618   8.869  24.830 -0.3309 -0.1768  0.0554
 1942W        W 2806  28.863   3.773  23.558  0.1696 -0.0634 -0.0426
 1943W        W 2807  20.926  16.163   6.006 -0.0932 -0.2254 -0.3553
 1944W        W 2808   0.989   2.742  10.321  0.3443  0.1912 -0.1558
 1945W        W 2809  21.260   2.183  18.148  0.0450 -0.1491  0.2594
 1946W        W 2810   5.478  18.999  14.357  0.0924 -0.3517  0.3210
 1947W        W 2811  16.713  27.043  27.607  0.0813 -0.0192 -0.0960
 1948W        W 2812   3.882   3.703  10.128  0.4465  0.1089 -0.0281
 1949W        W 2813  10.985   1.571  13.705  0.0904 -0.0637 -0.0897
 1950W        W 2814   1.201   0.129  11.899  0.0802 -0.2852  0.2035
 1951W        W 2815  16.141   9.749  26.518  0.3950  0.0584 -0.3731
 1952W        W 2816  10.920   0.419  10.438 -0.0705  0.1289  0.1593
 1953W        W 2817   9.216   6.509  23.282 -0.0964 -0.0635  0.0206
 1954W        W 2818  28.997   7.415  17.510  0.0075  0.1256 -0.0152
 1955W        W 2819  12.731  13.521   1.999  0.3869 -0.2114  0.1369
 1956W        W 2820   0.878   0.260   8.716  0.0625 -0.1270 -0.5212
 1957W        W 2821   7.093   2.178  15.970  0.1806 -0.1191 -0.4582
 1958W        W 2822  24.878  21.813  22.618 -0.1387 -0.3768  0.1770
 1959W        W 2823   0.796  18.653  29.058  0.0089 -0.2721  0.1131
 1960W        W 2824   4.147   0.028  10.362 -0.1757 -0.0198  0.0504
 1961W        W 2825  10.707  19.758  28.554 -0.0675 -0.0006 -0.1345
 1962W        W 2826   9.081   4.425   5.877 -0.1678  0.2887 -0.0036
 1963W        W 2827   8.754  12.358   3.068 -0.0197  0.1922 -0.1016
 1964W        W 2828  26.376   2.369   9.703  0.0898 -0.0932 -0.1665
 1965W        W 2829  28.949   1.891  28.375 -0.0083 -0.0425  0.1049
 1966W        W 2830   9.886   2.055  28.980  0.1874 -0.0472  0.4637
 1967W        W 2831  24.932  11.701   4.236 -0.0402 -0.2010  0.3070
 1968W        W 2832  26.523  15.529  16.911  0.1312 -0.1182 -0.1265
 1969W        W 2833  17.030  16.494  25.260 -0.0276 -0.0773 -0.2238
 1970W        W 2834  19.864  18.258  28.906  0.4049 -0.2632 -0.1085
 1971W        W 2835  15.152  12.104   9.062 -0.2189  0.0309  0.0354
 1972W        W 2836   5.875  10.774  28.170  0.1092 -0.0137 -0.3837
 1973W        W 2837   3.842  14.568   5.365  0.0261 -0.0612  0.4523
 1974W        W 2838  24.744  15.036   2.104  0.1949 -0.1145  0.2118
 1975W        W 2839   8.068   4.671   4.211 -0.0609  0.3194 -0.0743
 1976W        W 2840  14.050  18.991  11.833  0.2254  0.3775  0.0609
 1977W        W 2841  16.045   5.450   3.877 -0.1229  0.1480  0.1556
 1978W        W 2842   9.933  15.635  25.685  0.0982  0.2308 -0.0165
 1979W        W 2843  14.125   4.829   4.947 -0.0644 -0.0887 -0.0312
 1980W        W 2844  24.342   4.614  28.520 -0.1530 -0.1744 -0.2216
 1981W        W 2845  22.877   5.807  22.478  0.1381 -0.0954  0.0222
 1982W        W 2846  10.651  12.612  26.026 -0.0697  0.1551 -0.2942
 1983W        W 2847  26.791  27.741  27.453  0.2321 -0.1468  0.1500
 1984W        W 2848   4.215  22.386   4.572 -0.0681 -0.1029  0.1198
 1985W        W 2849  13.787  25.356  27.857 -0.3807  0.2546 -0.2897
 1986W        W 2850   5.860  19.645  28.912 -0.2387  0.2215  0.0219
 1987W        W 2851  25.722  19.023   2.819 -0.0569 -0.2429  0.1907
 1988W        W 2852  14.527  10.809  27.283  0.0358 -0.1398  0.2780
 1989W        W 2853  28.365   7.480  23.017  0.0559  0.0984  0.1819
 1990W        W 2854  28.139   9.383   9.125 -0.3732 -0.0583  0.1815
 1991W        W 2855  17.515   7.469  19.197 -0.0688 -0.2903  0.1910
 1992W        W 2856   8.678  27.605  18.265 -0.2007 -0.0901  0.0883
 1993W        W 2857  19.038  11.381  15.420 -0.3053 -0.1472 -0.1960
 1994W        W 2858   0.470   9.295  14.177  0.2354 -0.0672  0.0065
 1995W        W 2859  26.784   9.471  16.412  0.0717 -0.1194 -0.0468
 1996W        W 2860  23.907  27.045   7.336  0.1913 -0.0977 -0.0979
 1997W        W 2861  20.187   5.261  25.577  0.0014 -0.0989  0.1111
 1998W        W 2862  26.462  20.783  22.824  0.0693  0.0108  0.2414
 1999W        W 2863   0.189   1.166   2.206  0.1263  0.1182 -0.1014
 2000W        W 2864   5.551   9.799  20.430  0.0730  0.0987 -0.1573
 2001W        W 2865  20.133  25.846  13.147  0.6037  0.0557 -0.0584
 2002W        W 2866   0.984   0.341  26.849  0.0973 -0.2895 -0.0028
 2003W        W 2867  14.956  13.162  18.936 -0.1134 -0.1014 -0.3755
 2004W        W 2868   5.164   9.956  10.237 -0.0836 -0.0772 -0.2606
 2005W        W 2869  20.876  10.570  17.391 -0.2102  0.2776 -0.0074
 2006W        W 2870   0.537  20.533  24.674  0.1953  0.2851  0.1788
 2007W        W 2871   7.605  18.218  15.191  0.1765 -0.0936 -0.1007
 2008W        W 2872  29.050  14.248  23.037  0.1560  0.0481 -0.0380
 2009W        W 2873  28.873   8.063  17.328  0.2153  0.0227 -0.1685
 2010W        W 2874  23.260   9.607  25.736  0.1329  0.1820 -0.0230
 2011W        W 2875  13.424  21.402  28.510 -0.0240  0.2190 -0.1426
 2012W        W 2876   5.470   8.882  15.764 -0.1773  0.0129  0.2064
 2013W        W 2877  13.852  25.744   2.137 -0.0860  0.1790 -0.1617
 2014W        W 2878  14.252  28.650   3.827 -0.3554  0.1068 -0.1152
 2015W        W 2879   5.400  28.176   0.326 -0.0278 -0.1567 -0.2852
 2016W        W 2880  26.709  14.607   8.020  0.0258  0.1703 -0.0620
 2017W        W 2881   9.906   6.196   5.156 -0.1644 -0.0520  0.2963
 2018W        W 2882  22.562  28.115  10.370  0.1575 -0.0252  0.1515
 2019W        W 2883   2.614  23.995   4.917 -0.0864 -0.2268 -0.0265
 2020W        W 2884   7.466  24.132  10.764 -0.0675  0.1374 -0.0099
 2021W        W 2885  21.274  22.455   8.138  0.1366  0.1145 -0.0971
 2022W        W 2886  15.431   4.843  11.755  0.5385  0.3147  0.1956
 2023W        W 2887   5.929   4.971  19.932  0.3294  0.0819 -0.0094
 2024W        W 2888  16.632   5.997   5.407  0.1485 -0.0475  0.1827
 2025W        W 2889  28.411  26.877  12.582 -0.0403  0.1457  0.1062
 2026W        W 2890   0.904  19.857  22.439  0.1629 -0.2334 -0.1484
 2027W        W 2891  27.177  29.112  10.543 -0.0075  0.0465 -0.0865
 2028W        W 2892   1.931   0.134  23.570  0.3215  0.0943 -0.0034
 2029W        W 2893  15.426  19.863   3.847  0.0967 -0.0740  0.3265
 2030W        W 2894  14.169  19.465   4.728  0.0476  0.1173  0.1027
 2031W        W 2895   4.425  19.546   1.921  0.1531 -0.0747 -0.1416
 2032W        W 2896  17.107  22.678  13.491 -0.0794 -0.0474  0.0273
 2033W        W 2897   8.324  23.770   5.519 -0.0227  0.1432  0.3011
 2034W        W 2898   3.806  15.437   6.559 -0.2284 -0.2218  0.4174
 2035W        W 2899  10.921  24.916   8.036 -0.0013  0.2217  0.1133
 2036W        W 2900  26.937  16.104   5.955 -0.2212  0.1473 -0.1873
 2037W        W 2901   8.066   4.449  23.479  0.0893  0.0352 -0.0703
 2038W        W 2902  27.924  25.587  21.016  0.0902  0.3272 -0.0424
 2039W        W 2903   4.671   3.633  25.190  0.0031  0.0125  0.3446
 2040W        W 2904  18.153   3.887  15.076  0.1061 -0.1052 -0.0351
 2041W        W 2905  11.263   7.786  21.103 -0.1374 -0.1040  0.1166
 2042W        W 2906  26.862   9.428  17.466 -0.0011 -0.1480  0.0267
 2043W        W 2907   4.734   1.029   3.845  0.2189  0.0750 -0.0381
 2044W        W 2908   0.785   1.920  28.296  0.0721 -0.1256 -0.2570
 2045W        W 2909  20.866   0.450  18.512  0.1451  0.1228  0.1447
 2046W        W 2910  24.398  13.706  26.124  0.2148  0.1444 -0.1365
 2047W        W 2911  24.915  17.247  15.209  0.0347 -0.1035 -0.2278
 2048W        W 2912   0.087  29.048   4.849 -0.1168  0.0665  0.1129
 2049W        W 2913   3.207  15.765  19.174 -0.0322  0.0305  0.1534
 2050W        W 2914   0.471   3.584   5.729  0.0742 -0.0686 -0.0208
 2051W        W 2915   4.440   5.792  18.630  0.0668 -0.0361 -0.1785
 2052W        W 2916  27.509  21.787   7.753  0.2250  0.0903  0.0519
 2053W        W 2917  10.948  21.310   8.533 -0.2242  0.0295  0.0194
 2054W        W 2918  18.067  19.346   0.804 -0.2358 -0.1061  0.0150
 2055W        W 2919   4.720   8.622  26.634 -0.0914  0.3172 -0.1764
 2056W        W 2920   5.975  10.535  18.501 -0.2108 -0.1140  0.3811
 2057W        W 2921   9.312   7.121  13.341 -0.1588  0.1505  0.1258
 2058W        W 2922   5.100  18.909  23.549 -0.1912  0.0913 -0.1366
 2059W        W 2923  16.681  21.133  27.739  0.1458 -0.1454  0.1987
 2060W        W 2924  26.559  12.442  13.390  0.3749  0.1016  0.2502
 2061W        W 2925   6.074  16.711  10.630  0.0094 -0.2833 -0.1574
 2062W        W 2926  26.381   7.858   6.598 -0.2042  0.2460 -0.0085
 2063W        W 2927   8.705   7.900   1.975  0.6212 -0.1990 -0.1553
 2064W        W 2928  10.184   8.563   5.324  0.5080  0.4542 -0.1299
 2065W        W 2929  24.926  21.160   1.720  0.2943 -0.1850 -0.1084
 2066W        W 2930   5.321  18.612  12.867  0.2168  0.1923  0.2128
 2067W        W 2931  16.614   9.356  16.815 -0.3274  0.1660 -0.0671
 2068W        W 2932   0.775  27.301   1.035  0.1403 -0.3042 -0.3617
 2069W        W 2933  21.229  28.546   5.918  0.2599  0.0364  0.1424
 2070W        W 2934  28.705  15.888  11.042 -0.2410  0.0635 -0.1616
 2071W        W 2935  23.808   0.408  20.272 -0.0324  0.0598 -0.1533
 2072W        W 2936   5.299  12.997  14.096 -0.5105  0.0663 -0.1637
 2073W        W 2937  19.984  23.159  17.006  0.1636  0.0197  0.2695
 2074W        W 2938   1.397  20.951   3.751 -0.2311 -0.1669 -0.0601
 2075W        W 2939  24.881  20.509   2.945 -0.0433 -0.1388 -0.0674
 2076W        W 2940  22.931  22.197  17.113 -0.4052  0.0412 -0.0217
 2077W        W 2941  21.309   7.915   3.813  0.1134  0.0865 -0.1218
 2078W        W 2942  14.634  19.181  27.371 -0.1338 -0.1113 -0.0012
 2079W        W 2943  18.201  11.245  24.666 -0.2285  0.2920  0.1694
 2080W        W 2944  29.115   2.296   1.321 -0.4032  0.0531 -0.1554
 2081W        W 2945  13.342  27.784   9.513  0.1495  0.3424 -0.1392
 2082W        W 2946  25.092  21.309   2.544  0.2097 -0.0352 -0.0218
 2083W        W 2947  28.313   0.489   1.481  0.3475 -0.0485  0.3187
 2084W        W 2948   0.331  22.627  28.131  0.0075 -0.1430 -0.0328
 2085W        W 2949   7.602   0.579  10.317  0.2418 -0.0503  0.2709
 2086W        W 2950   5.422  25.996   3.925 -0.0304 -0.0016 -0.3560
 2087W        W 2951  14.659   1.315  21.513  0.3710 -0.1113 -0.1335
 2088W        W 2952  19.947  14.830  14.268 -0.2839 -0.0035  0.1454
 2089W        W 2953   8.071  21.010  24.759 -0.0593  0.1263  0.0535
 2090W        W 2954   0.672  18.984   3.460  0.1122  0.1087 -0.0247
 2091W        W 2955  12.242  19.269  18.658  0.0828  0.1145 -0.1521
 2092W        W 2956  13.748  22.984   7.242 -0.1239  0.0606  0.0256
 2093W        W 2957  14.218   0.884   4.161 -0.1062 -0.0290  0.1850
 2094W        W 2958   9.400  22.382  20.397  0.1082 -0.0435 -0.4249
 2095W        W 2959   5.688  25.629  25.524  0.2885 -0.0919 -0.0867
 2096W        W 2960  26.252   4.777  24.679 -0.0776 -0.0686  0.1812
 2097W        W 2961   9.160   5.894  14.729 -0.1123 -0.0293  0.0035
 2098W        W 2962  15.472  27.506  14.462 -0.1832  0.0690  0.1233
 2099W        W 2963  25.947   1.563  24.516  0.0809 -0.0870  0.0825
 2100W        W 2964   0.478   6.223  25.842 -0.0484  0.0123  0.0801
 2101W        W 2965  27.777  20.097   7.132  0.0612 -0.1199 -0.1062
 2102W        W 2966  13.691  13.802  20.076 -0.0578 -0.1337  0.0494
 2103W        W 2967   5.484  24.703   4.562 -0.1438  0.0371 -0.1770
 2104W        W 2968   8.500   8.081   1.530  0.0652 -0.1071  0.0647
 2105W        W 2969   8.639  26.429  16.946 -0.3746 -0.3165  0.0090
 2106W        W 2970   2.135   7.156   0.790  0.0036 -0.0383  0.1564
 2107W        W 2971   5.504   6.008  28.447 -0.1360  0.1467  0.0530
 2108W        W 2972   6.676   3.420   4.229 -0.0907 -0.0297  0.1361
 2109W        W 2973   4.809  24.986   9.431 -0.1122 -0.0319  0.1960
 2110W        W 2974   5.613  24.899  15.131 -0.1612  0.5205  0.4633
 2111W        W 2975  16.303  24.858  14.351  0.0824  0.0276 -0.4797
 2112W        W 2976   6.517  21.352   1.425  0.0835  0.1598  0.2045
 2113W        W 2977  27.464  19.555  10.373 -0.2337  0.0672  0.0767
 2114W        W 2978  26.356   2.900   0.189 -0.2014  0.0019 -0.1555
 2115W        W 2979  20.627   3.697   6.710  0.0969 -0.0574 -0.0262
 2116W        W 2980   4.126  23.368   0.782 -0.1194 -0.1589  0.2706
 2117W        W 2981  10.552  18.692  24.307 -0.0792 -0.0797 -0.0697
 2118W        W 2982  27.641  10.842  20.740  0.4667 -0.1190 -0.3509
 2119W        W 2983   3.836  11.490  20.947 -0.0901 -0.3292  0.0627
 2120W        W 2984   2.884  23.103  13.528  0.0653  0.0015 -0.0865
 2121W        W 2985  26.508  11.917  14.104  0.0336  0.1646  0.1114
 2122W        W 2986   2.494   4.556   3.729  0.2854 -0.0267  0.0960
 2123W        W 2987  18.770  28.899  15.256 -0.0485 -0.1849 -0.0043
 2124W        W 2988  18.330  23.568   1.146  0.0802  0.0326  0.0524
 2125W        W 2989   3.985  28.546  17.703 -0.0260 -0.1979 -0.0217
 2126W        W 2990  25.848  19.897  10.502 -0.3192  0.0777 -0.0436
 2127W        W 2991   1.399  24.587   7.440 -0.0835  0.2263 -0.0081
 2128W        W 2992  12.076   6.958  14.681  0.1790  0.0063  0.1953
 2129W        W 2993  17.940  23.181  26.504 -0.0454  0.2916  0.0745
 2130W        W 2994   2.453  28.365   5.281 -0.4057 -0.0746  0.0950
 2131W        W 2995  28.978  12.832  17.637 -0.1524  0.0687  0.2448
 2132W        W 2996   5.466   3.618  24.531  0.1307 -0.2202 -0.1904
 2133W        W 2997  17.107  20.530   7.302 -0.3655 -0.1207  0.5887
 2134W        W 2998  15.794  12.193  20.242 -0.3351 -0.1271  0.2166
 2135W        W 2999  28.396   2.129  29.069 -0.1878  0.2483  0.2769
 2136W        W 3000  14.263   7.733  28.793 -0.1194  0.0742 -0.0643
 2137W        W 3001  24.784   7.856   0.013 -0.0747 -0.0324 -0.2326
 2138W        W 3002   7.987  12.871  18.938  0.1413 -0.1640 -0.0237
 2139W        W 3003   8.803  12.860  24.962 -0.1435  0.0643 -0.1499
 2140W        W 3004   9.721  20.294  27.090  0.2488 -0.1858 -0.0936
 2141W        W 3005  19.830  19.594   1.615 -0.1013  0.1220  0.1717
 2142W        W 3006  11.579  20.254  15.653 -0.0339  0.0955  0.3191
 2143W        W 3007  26.590  23.859   2.516  0.3687 -0.0861  0.3066
 2144W        W 3008  26.774  12.828  21.018 -0.1614 -0.0400 -0.2679
 2145W        W 3009  25.747  15.017  10.412  0.0741 -0.1331 -0.1764
 2146W        W 3010  26.633   0.737   3.065  0.1790  0.2338  0.0909
 2147W        W 3011   6.927   3.927  22.151  0.0121 -0.2607 -0.0573
 2148W        W 3012  18.665   7.758   5.895 -0.0261 -0.1891  0.0666
 2149W        W 3013  17.527  25.484   7.910 -0.1164  0.1333 -0.0812
 2150W        W 3014  19.469  24.203  12.658 -0.2919 -0.0707  0.1326
 2151W        W 3015  24.738  27.602   6.870  0.1804 -0.2989 -0.2508
 2152W        W 3016  29.105  26.979  15.494  0.1383  0.1925 -0.1947
 2153W        W 3017  21.499  21.957  13.418  0.2816 -0.1708 -0.2314
 2154W        W 3018  28.294  28.452  10.513  0.1199 -0.1190  0.2531
 2155W        W 3019  18.010   5.435   6.860  0.3484  0.0259  0.1471
 2156W        W 3020  25.814   6.700  20.739  0.0319  0.3723  0.2919
 2157W        W 3021  24.979   9.932  12.877  0.0528  0.0521  0.0099
 2158W        W 3022   7.803   6.781  10.762 -0.0012 -0.0260  0.1403
 2159W        W 3023  25.750   9.856   3.660 -0.0886 -0.1290 -0.0779
 2160W        W 3024   9.305   3.442  27.099  0.2230 -0.0771 -0.2117
 2161W        W 3025   1.964  19.949   8.494 -0.0830 -0.1589  0.1141
 2162W        W 3026  27.384   3.022  25.181 -0.0702 -0.1954  0.0726
 2163W        W 3027  10.855  23.104  20.457 -0.0954  0.0079 -0.0213
 2164W        W 3028   8.921  11.323   1.572  0.1439  0.0876  0.3114
 2165W        W 3029  17.710   3.446  11.010  0.2713  0.0199 -0.0668
 2166W        W 3030  17.264  14.836   5.632 -0.1476 -0.2156 -0.1099
 2167W        W 3031   0.232  17.102   3.623 -0.1267  0.2385 -0.1176
 2168W        W 3032  12.972  12.723  23.708 -0.0229  0.1224  0.2908
 2169W        W 3033  17.917  23.797  17.394  0.2574  0.1683 -0.2739
 2170W        W 3034  24.405   2.973  12.947 -0.1046 -0.0576  0.1056
 2171W        W 3035   5.768  23.844  27.131  0.2760 -0.0627  0.2980
 2172W        W 3036   1.568  26.531  15.350 -0.1217  0.1253  0.0438
 2173W        W 3037   8.206  21.642  11.181 -0.0290 -0.1134 -0.4147
 2174W        W 3038  29.047   3.787  26.838  0.3257  0.1010  0.2156
 2175W        W 3039  14.133  24.914  19.757  0.1089  0.0766  0.0240
 2176W        W 3040   4.441  25.913  11.562 -0.3652 -0.2137  0.0253
 2177W        W 3041  27.406  14.250   8.503 -0.1933 -0.0116  0.1793
 2178W        W 3042  27.525  27.669   5.195 -0.0524  0.4979  0.1145
 2179W        W 3043  18.837  25.273  27.220 -0.0577 -0.1750 -0.0920
 2180W        W 3044  16.253  21.449  23.936 -0.1064  0.0427  0.0200
 2181W        W 3045   9.452  23.306   9.685 -0.1292  0.1867  0.3142
 2182W        W 3046   9.422   0.415   1.599  0.0010  0.0342  0.1081
 2183W        W 3047  22.908   6.728  28.507  0.1026 -0.0645  0.0120
 2184W        W 3048  15.292   3.488  23.659  0.0164  0.1205  0.0279
 2185W        W 3049  20.812   3.607  21.987 -0.0627 -0.1623 -0.0642
 2186W        W 3050  11.758  15.329   7.314 -0.0083  0.1040 -0.1204
 2187W        W 3051  20.562  11.098  20.474  0.1559  0.1807  0.0472
 2188W        W 3052  26.294  27.772  27.276  0.0894 -0.3927 -0.0892
 2189W        W 3053  18.577  26.734  12.930 -0.0323  0.2253  0.1873
 2190W        W 3054  10.053  25.482   1.654  0.0331  0.0823  0.3251
 2191W        W 3055   5.154  26.686  27.182  0.0385  0.0642 -0.0607
 2192W        W 3056   0.565  27.902  27.294 -0.1883 -0.0216  0.0173
 2193W        W 3057  21.386  24.386   3.178  0.3930 -0.1676 -0.0720
 2194W        W 3058   4.234  24.742  20.306 -0.0599  0.2847 -0.2091
 2195W        W 3059   8.395   8.144  16.968 -0.1516 -0.1629  0.4735
 2196W        W 3060   9.684  10.622  19.688  0.1808 -0.0307 -0.0727
 2197W        W 3061  17.244  15.973   9.419 -0.0397  0.0328 -0.1176
 2198W        W 3062   4.211  19.887  23.006  0.0635  0.2563 -0.2363
 2199W        W 3063  28.844   4.435   1.073 -0.0471 -0.0597  0.0726
 2200W        W 3064   1.382  16.140  21.156 -0.1811 -0.0489 -0.0123
 2201W        W 3065  21.371  25.740   4.409 -0.1116 -0.1010 -0.0416
 2202W        W 3066   1.678  17.916  16.333 -0.0249 -0.1733  0.0141
 2203W        W 3067  20.884  12.735  21.370  0.3096  0.1831  0.1819
 2204W        W 3068  12.618  27.497  10.017  0.1632  0.0643  0.0670
 2205W        W 3069  12.424  21.160  28.246 -0.0610 -0.4680 -0.0785
 2206W        W 3070   9.849   9.162   0.800 -0.0892 -0.0890  0.0949
 2207W        W 3071  23.147   2.020  17.166 -0.1442 -0.2011  0.0482
 2208W        W 3072  21.498  16.979   1.147  0.1822  0.2226  0.0822
 2209W        W 3073   5.198   1.454   9.225  0.2895  0.2470  0.0616
 2210W        W 3074  25.857   0.838  28.336  0.1765  0.2611 -0.0270
 2211W        W 3075   1.475  25.478   0.258  0.0907  0.0876 -0.2452
 2212W        W 3076   6.157   1.145  23.136 -0.2344  0.0485 -0.0258
 2213W        W 3077  26.055  14.154   4.517  0.4058 -0.1268  0.0930
 2214W        W 3078  20.808  26.264   3.655  0.0183  0.0579  0.0339
 2215W        W 3079   0.083  13.632   4.837 -0.1140 -0.2624  0.0725
 2216W        W 3080  17.506  17.383  10.666 -0.3299 -0.3064 -0.3133
 2217W        W 3081  14.604   4.666   1.479 -0.2317 -0.1989  0.2278
 2218W        W 3082  23.756  15.606  18.224 -0.0001 -0.0316  0.0862
 2219W        W 3083  12.574  21.844   5.238  0.0268  0.3344  0.3509
 2220W        W 3084  26.079  25.677  28.849 -0.2225 -0.4109  0.0089
 2221W        W 3085  10.467  26.396   7.541 -0.0465 -0.0889 -0.1850
 2222W        W 3086  25.325  20.325   9.492  0.0265  0.0862  0.2318
 2223W        W 3087  29.079  28.716   5.225 -0.0230 -0.2016 -0.1929
 2224W        W 3088   0.685   8.658   2.772 -0.0455 -0.0224 -0.1253
 2225W        W 3089  22.045  22.362  22.836 -0.1961 -0.0356 -0.1203
 2226W        W 3090  29.004   5.199   5.837 -0.2241  0.1765 -0.4266
 2227W        W 3091  20.989  18.866  12.851 -0.2317 -0.0006  0.0192
 2228W        W 3092   2.826  21.448   3.901 -0.2793  0.0454  0.0401
 2229W        W 3093  24.586  23.739   5.469  0.1917  0.5044 -0.2751
 2230W        W 3094  11.501   7.636   6.573  0.0715 -0.2480  0.0086
 2231W        W 3095  11.365  27.532  26.504  0.0175 -0.1150  0.2806
 2232W        W 3096  27.545  21.700   0.411 -0.0630 -0.0146  0.0362
 2233W        W 3097   8.607  27.601   8.968 -0.2373 -0.1982  0.0781
 2234W        W 3098  27.198   4.661   2.609 -0.0760 -0.1420 -0.0307
 2235W        W 3099  21.528  28.815  22.644  0.1126 -0.2707  0.1381
 2236W        W 3100  27.065  13.247  10.871  0.0382 -0.1916  0.1563
 2237W        W 3101   0.630  14.081   0.958  0.2224  0.1891 -0.1451
 2238W        W 3102   2.867  25.875   8.226 -0.3233  0.0048 -0.3250
 2239W        W 3103  28.446  24.691  24.269  0.0832 -0.0140 -0.2735
 2240W        W 3104  13.039  28.565   5.374  0.2646 -0.1050 -0.0110
 2241W        W 3105   0.853  12.054   8.737  0.1186 -0.1540 -0.3036
 2242W        W 3106  15.486  13.633  24.346 -0.0570 -0.1603  0.0968
 2243W        W 3107  25.967  12.874  17.008  0.2387 -0.0810 -0.1891
 2244W        W 3108   5.614  24.422   8.373  0.1807  0.1834 -0.1351
 2245W        W 3109  10.091  19.656   3.096  0.1218  0.4254 -0.0659
 2246W        W 3110  23.280  24.497  14.303  0.5983 -0.1385  0.0689
 2247W        W 3111  15.572  18.808   9.846 -0.0854 -0.3023 -0.0867
 2248W        W 3112   3.835  22.165  26.954 -0.2519 -0.0328  0.1006
 2249W        W 3113   6.278   5.959   4.435 -0.1789  0.2460  0.0318
 2250W        W 3114  26.702   0.261  25.424 -0.0233 -0.1125 -0.2117
 2251W        W 3115  20.556   0.261  19.249  0.0059  0.3330 -0.1761
 2252W        W 3116  22.331   7.513   5.874 -0.2042  0.1762  0.0934
 2253W        W 3117  25.847   1.755   6.675 -0.0495  0.2292  0.0109
 2254W        W 3118  15.409   8.119   1.386 -0.2419 -0.0062 -0.1214
 2255W        W 3119  27.653  15.487   7.063 -0.0112 -0.3122  0.0307
 2256W        W 3120  28.193  29.000   1.976  0.0652 -0.1676  0.2085
 2257W        W 3121  18.424   6.495  16.963 -0.1657 -0.2126  0.4453
 2258W        W 3122  14.618  29.034  13.734  0.0682 -0.2314 -0.1940
 2259W        W 3123  11.601  27.734   0.764  0.0540  0.0688  0.3980
 2260W        W 3124  21.037   8.426  17.778  0.1279  0.1749  0.0918
 2261W        W 3125  29.113  17.949  14.555 -0.1345  0.3844 -0.3402
 2262W        W 3126   2.457   3.362  25.114  0.2464  0.2722  0.0554
 2263W        W 3127   5.455   0.910   0.548  0.0811  0.2775  0.0437
 2264W        W 3128   2.875   7.493   1.233  0.0975  0.1020  0.1148
 2265W        W 3129   6.401  10.153  28.311  0.1221  0.1064 -0.0287
 2266W        W 3130   3.724  10.077   2.924  0.0176 -0.0079  0.0755
 2267W        W 3131  23.392  20.988  12.164 -0.1596 -0.2267  0.2135
 2268W        W 3132   6.088   7.763  10.712  0.0273 -0.2767  0.0548
 2269W        W 3133  27.842   2.869   8.363 -0.0262 -0.1791  0.0362
 2270W        W 3134   1.385  27.807   5.230  0.2754 -0.0795 -0.2367
 2271W        W 3135   2.335  26.452   1.228 -0.1658 -0.1270  0.2274
 2272W        W 3136  23.544  23.769  14.950 -0.0511  0.1477 -0.3110
 2273W        W 3137  20.075   0.240  19.595 -0.4179  0.4031 -0.2176
 2274W        W 3138  11.590  21.626   2.486  0.1160 -0.0394  0.2332
 2275W        W 3139   8.982  24.632  18.490 -0.0572  0.1388  0.0580
 2276W        W 3140  20.032  10.883  23.035  0.1619  0.1849 -0.0272
 2277W        W 3141  17.111  14.581  26.636 -0.1171 -0.1020 -0.0624
 2278W        W 3142   9.110  21.439  22.958  0.0532 -0.1474 -0.0558
 2279W        W 3143  20.483  24.365   5.324 -0.0993 -0.5178 -0.0882
 2280W        W 3144  20.216  16.876  23.186  0.1636 -0.2383  0.1091
 2281W        W 3145  14.298  10.673   0.055  0.2443 -0.1153 -0.3117
 2282W        W 3146  23.825  26.270  20.434  0.1730  0.0302  0.0579
 2283W        W 3147  26.362   6.448  21.511  0.1229 -0.3084 -0.1253
 2284W        W 3148  26.106  27.513   5.714 -0.1112 -0.1975 -0.0465
 2285W        W 3149   6.358  27.559  11.147 -0.1381  0.2705  0.2055
 2286W        W 3150   4.856  18.475  13.234  0.3971 -0.0017  0.2192
 2287W        W 3151   3.808   4.766  14.005 -0.3776  0.0241 -0.0803
 2288W        W 3152  23.407  25.261  13.805  0.1787  0.3041  0.0139
 2289W        W 3153  23.704   0.286  29.079 -0.1727 -0.3594 -0.2250
 2290W        W 3154  24.251  25.117  10.731  0.0621 -0.1273  0.2705
 2291W        W 3155   4.960  24.246  12.888 -0.1965  0.3311 -0.1382
 2292W        W 3156  22.523  20.281  25.353 -0.0475  0.2979 -0.2904
 2293W        W 3157  20.797   2.925  11.691  0.1405 -0.0216 -0.1333
 2294W        W 3158   3.124  25.225  12.849  0.0534 -0.1539  0.2732
 2295W        W 3159   7.752  15.000   5.336  0.0130 -0.1842  0.0995
 2296W        W 3160  11.388  14.287   2.017 -0.2889  0.3493  0.2371
 2297W        W 3161  24.144  21.824  17.728  0.4146 -0.1112 -0.0015
 2298W        W 3162  18.078  10.682   3.093 -0.0351  0.2712 -0.0713
 2299W        W 3163  13.946  22.757  19.786 -0.0177 -0.1417  0.3465
 2300W        W 3164  14.248  10.493   1.618  0.1763 -0.0398  0.0044
 2301W        W 3165  12.029  17.225   4.140  0.4135  0.0790  0.4336
 2302W        W 3166  19.991   1.700  25.796 -0.1156  0.2204 -0.1211
 2303W        W 3167   4.451  26.026  23.053  0.0535  0.0046  0.4238
 2304W        W 3168  13.781  20.114   7.440  0.3270 -0.1463 -0.2149
 2305W        W 3169  26.781  27.354  20.559 -0.0514 -0.2417 -0.0638
 2306W        W 3170   3.207   0.523   9.548 -0.0887 -0.3438  0.0049
 2307W        W 3171  22.726   5.233  27.009 -0.0986  0.1905  0.1979
 2308W        W 3172  24.038  24.094  17.654 -0.1027 -0.0353  0.1195
 2309W        W 3173   6.390   9.557   0.578  0.2537  0.1655 -0.2160
 2310W        W 3174   6.218   9.949   8.898  0.0148  0.1084  0.0250
 2311W        W 3175  22.091  21.742  16.136 -0.1826 -0.1519  0.2788
 2312W        W 3176   1.485   3.346  15.923 -0.0251  0.0918  0.2693
 2313W        W 3177  26.246  12.958  12.147  0.3306 -0.0601 -0.1324
 2314W        W 3178  20.894   1.442  24.210 -0.0788  0.0904 -0.0463
 2315W        W 3179  27.547  20.549   6.941 -0.0071  0.1845 -0.2858
 2316W        W 3180  21.481   0.742  11.933  0.3414  0.2385  0.2361
 2317W        W 3181   1.464  12.101   8.383  0.0957  0.0335  0.0311
 2318W        W 3182  20.157   7.275  17.355 -0.0505  0.0449  0.2304
 2319W        W 3183  18.547  20.280   6.076  0.2359  0.0366  0.0381
 2320W        W 3184   4.171  26.477  13.933 -0.0062 -0.0304  0.0513
 2321W        W 3185  27.025  24.586   4.799  0.2364 -0.0011 -0.1427
 2322W        W 3186   1.607  25.211   4.505  0.1615 -0.1366 -0.2697
 2323W        W 3187   6.874  23.388   9.871 -0.0924 -0.2158  0.1823
 2324W        W 3188  20.129  25.714   9.764 -0.3599  0.1109  0.1356
 2325W        W 3189  24.583   7.743  26.171 -0.2308 -0.2110 -0.0979
 2326W        W 3190  23.746  11.257  12.141  0.1166 -0.1554 -0.0648
 2327W        W 3191  19.059  22.112  18.530 -0.0932  0.1274 -0.0842
 2328W        W 3192  14.996  17.899  28.849  0.1911  0.2239 -0.1284
 2329W        W 3193  13.784   2.970  10.331  0.0949 -0.0797 -0.0312
 2330W        W 3194  26.756   1.242   3.109  0.0242 -0.0076 -0.1173
 2331W        W 3195  14.820   3.112   3.994 -0.2631  0.0446 -0.0570
 2332W        W 3196  20.880   6.939  21.185  0.1463 -0.3050 -0.0383
 2333W        W 3197   6.043   7.722  11.689  0.2400  0.0351  0.2248
 2334W        W 3198   1.338  14.850   9.752  0.0643 -0.1829 -0.3677
 2335W        W 3199  10.262  29.066  24.578 -0.3044  0.3137  0.1073
 2336W        W 3200  12.308  27.141  16.899  0.1525  0.2137  0.0597
 2337W        W 3201   8.400   8.642  12.011 -0.1263 -0.1830 -0.1524
 2338W        W 3202   6.258  21.516  14.178 -0.2169  0.0529  0.2974
 2339W        W 3203  11.734   6.596  14.854 -0.1527 -0.2842  0.0074
 2340W        W 3204   7.539   6.284   9.082 -0.0142 -0.1441 -0.1349
 2341W        W 3205   6.730   1.075  13.737 -0.2340 -0.1176  0.0326
 2342W        W 3206  15.332  21.398   9.016  0.1300 -0.2633 -0.0069
 2343W        W 3207  11.240  14.598  15.424  0.1880  0.1905  0.0248
 2344W        W 3208  14.069   1.522  27.892  0.1582  0.1643 -0.0010
 2345W        W 3209  17.885  23.494   3.414 -0.1547 -0.2219  0.1659
 2346W        W 3210  17.558   8.084  17.693 -0.0572  0.2034  0.3266
 2347W        W 3211  21.340  12.941   5.849 -0.1930 -0.1171 -0.1242
 2348W        W 3212  23.267   5.825   0.447 -0.0137  0.1832 -0.2297
 2349W        W 3213  23.133   0.579  15.747  0.1954  0.0559  0.2563
 2350W        W 3214  15.784  19.050   1.528 -0.0476  0.2700 -0.0596
 2351W        W 3215   7.123  27.993  16.576 -0.2513  0.0917  0.2420
 2352W        W 3216   1.797  24.823  10.893 -0.0247  0.0717  0.0579
 2353W        W 3217  26.348   8.407  26.508 -0.1145  0.2343  0.1475
 2354W        W 3218  25.563  26.448  28.602 -0.2326  0.3153 -0.2626
 2355W        W 3219  17.370  16.305  15.291 -0.1090 -0.1114 -0.0386
 2356W        W 3220  26.501  23.197   5.915 -0.0707  0.1713  0.0814
 2357W        W 3221   6.744   4.372  24.806  0.1977  0.1758 -0.3628
 2358W        W 3222   5.174   7.588  13.970  0.1951  0.0420  0.2417
 2359W        W 3223  16.228   5.782   4.460  0.1603  0.1642  0.2044
 2360W        W 3224  19.246   6.370  15.266 -0.1065 -0.0128  0.1865
 2361W        W 3225   4.566   4.039  28.751  0.1946 -0.2236 -0.0131
 2362W        W 3226   5.379   3.910   3.086 -0.0445  0.1888 -0.0572
 2363W        W 3227  25.246   8.246   4.613 -0.1850  0.1367 -0.2016
 2364W        W 3228  27.384   1.162   1.108 -0.3114  0.0719  0.1194
 2365W        W 3229  20.063  28.023  13.287  0.2104 -0.0989  0.1368
 2366W        W 3230  23.433   8.538  11.358  0.0283 -0.0827  0.0458
 2367W        W 3231  14.929   5.908   6.809  0.0734  0.1197 -0.2380
 2368W        W 3232   0.416  12.790  10.570  0.0166 -0.0922  0.0151
 2369W        W 3233   2.374  19.931   3.320  0.0989  0.0795  0.3124
 2370W        W 3234  28.757  14.495   7.947  0.1054 -0.1726 -0.1690
 2371W        W 3235   0.212   0.607   1.526  0.1905 -0.1826 -0.3158
 2372W        W 3236   5.476   9.450  26.521 -0.0407  0.0030 -0.1330
 2373W        W 3237  12.444   9.376   4.077  0.5001  0.1215  0.1877
 2374W        W 3238  11.937  22.314  21.739 -0.0738 -0.2498 -0.1115
 2375W        W 3239  12.685  20.088   4.646 -0.3594 -0.1763 -0.3333
 2376W        W 3240   1.705   6.036  25.024  0.0447  0.0528 -0.0127
 2377W        W 3241   5.231  16.397   7.959 -0.1888 -0.0011 -0.0255
 2378W        W 3242  24.216   1.975  15.688  0.2505  0.1711 -0.0891
 2379W        W 3243   3.845  19.053   6.477 -0.0095  0.0969 -0.0738
 2380W        W 3244  14.966  21.595  14.683 -0.2166 -0.0849 -0.0757
 2381W        W 3245  16.477  12.073   7.090  0.3176  0.0310  0.0085
 2382W        W 3246   8.172  16.879  18.540 -0.2692 -0.0475 -0.0562
 2383W        W 3247   7.981  12.228  14.125  0.0733 -0.1632 -0.1997
 2384W        W 3248   9.241  25.966   4.497 -0.1676 -0.1506  0.0772
 2385W        W 3249  12.104   6.359  25.259  0.0469 -0.2250 -0.1714
 2386W        W 3250   3.748   1.215  28.002 -0.1327  0.0715  0.1689
 2387W        W 3251  22.164  20.222  24.937  0.1491 -0.2371  0.0981
 2388W        W 3252   3.811  20.389   2.376 -0.0065 -0.2911 -0.5372
 2389W        W 3253  15.695  24.990   0.108  0.0498 -0.2273 -0.0294
 2390W        W 3254  16.818  18.597  13.869 -0.1650 -0.0284 -0.4122
 2391W        W 3255   9.690  15.565  11.340 -0.2176 -0.0876  0.0326
 2392W        W 3256  22.429  21.236  10.962  0.1317 -0.4398  0.3168
 2393W        W 3257  14.687  13.040  15.206  0.1518  0.0986  0.0517
 2394W        W 3258  26.884  27.914  12.690  0.2120  0.1099  0.0115
 2395W        W 3259   8.774   3.798  16.735 -0.3198 -0.4410  0.0217
 2396W        W 3260  12.446   4.460  28.946  0.2204 -0.0032 -0.0365
 2397W        W 3261   6.069  10.803  16.458 -0.0426  0.1617  0.2227
 2398W        W 3262   2.385   7.378  18.309  0.1452  0.0464  0.1690
 2399W        W 3263   1.079  10.100  16.409  0.0672  0.0632 -0.2137
 2400W        W 3264  22.539  22.730   6.008  0.1418 -0.3307  0.0326
 2401W        W 3265   5.334   0.690  28.065  0.1461  0.0044  0.0179
 2402W        W 3266  26.351   4.883  22.117 -0.2320 -0.0317 -0.0336
 2403W        W 3267   3.237  16.353  10.297 -0.2855 -0.0330  0.1462
 2404W        W 3268   2.944  12.553  13.197  0.3162 -0.1530  0.2452
 2405W        W 3269   1.339   0.728   5.487 -0.1421 -0.2364  0.3815
 2406W        W 3270   1.772  29.122  14.206  0.1578  0.0641  0.0231
 2407W        W 3271  21.113  21.389   3.361  0.0593 -0.1367 -0.2869
 2408W        W 3272  15.086  27.471   9.192  0.1485 -0.3367  0.2124
 2409W        W 3273   0.834  29.101  13.134 -0.1657 -0.1207 -0.0424
 2410W        W 3274  29.110  24.430  21.378 -0.0668 -0.0088  0.0230
 2411W        W 3275   0.692  16.711  11.876  0.0398  0.2827  0.2909
 2412W        W 3276   0.976  25.496  10.930  0.2379  0.4476 -0.1974
 2413W        W 3277   2.488  21.768  12.329 -0.0422  0.2861  0.1749
 2414W        W 3278  20.879  25.018  10.196  0.0923  0.0014  0.1335
 2415W        W 3279  12.506  19.754  23.070  0.1589  0.2915  0.0676
 2416W        W 3280   4.887  16.109  21.071  0.0125 -0.1849 -0.0889
 2417W        W 3281  16.066   4.227  21.042 -0.2193  0.1910 -0.3537
 2418W        W 3282  28.657   8.854   9.527  0.2165  0.0760 -0.0725
 2419W        W 3283   0.756  16.068   6.926 -0.1264 -0.1524 -0.1070
 2420W        W 3284  24.044  14.053  13.258 -0.0684  0.1459  0.0611
 2421W        W 3285  18.079   8.519  14.122 -0.1662 -0.0207  0.1061
 2422W        W 3286  24.944   8.804   4.021 -0.1648 -0.0157  0.2584
 2423W        W 3287  10.480  22.632   8.520 -0.2910  0.2113  0.0659
 2424W        W 3288  19.764   6.979  25.870 -0.0070  0.0012 -0.1598
 2425W        W 3289   2.427  24.459  19.554 -0.0398 -0.1778  0.2231
 2426W        W 3290  13.088  10.546   9.182  0.0394  0.3711 -0.1268
 2427W        W 3291  24.221  28.429  12.186 -0.4406  0.0780  0.2443
 2428W        W 3292  17.199  19.797  28.178  0.1626 -0.1610 -0.0837
 2429W        W 3293   9.218  21.500  11.403 -0.0674  0.0085  0.0476
 2430W        W 3294  13.891  24.042  28.377  0.2648  0.1832 -0.1453
 2431W        W 3295   3.259   2.085  10.289  0.1568  0.3092 -0.2287
 2432W        W 3296  16.191  13.077  15.527  0.1139  0.0930 -0.1339
 2433W        W 3297  11.623  18.434  15.075 -0.1225 -0.0567  0.1650
 2434W        W 3298  27.450  26.550   1.323 -0.1926 -0.2533 -0.0184
 2435W        W 3299  13.074  12.405   6.103 -0.0031 -0.3605 -0.1234
 2436W        W 3300  24.550  13.367  27.931 -0.1154 -0.0282  0.0862
 2437W        W 3301   9.732  23.981  10.438 -0.0333  0.0892  0.1956
 2438W        W 3302  17.499   1.637  27.320 -0.3205 -0.1277 -0.2519
 2439W        W 3303  19.304   1.239  12.004 -0.1082 -0.2208 -0.1375
 2440W        W 3304   1.797  28.518  20.431  0.4210  0.0480 -0.1417
 2441W        W 3305  16.870  29.017  21.308 -0.1997  0.0635 -0.2165
 2442W        W 3306  14.694  22.868   9.058  0.0263  0.4134 -0.1813
 2443W        W 3307  11.825   7.165  10.125 -0.1026  0.1484 -0.0170
 2444W        W 3308  14.041  23.774   9.190  0.0109  0.0167 -0.1079
 2445W        W 3309   6.170   9.653   5.733 -0.1702 -0.1374  0.3989
 2446W        W 3310  16.097  21.355   6.567  0.0333  0.3383 -0.0251
 2447W        W 3311  12.643  10.985  21.330 -0.1458  0.1872  0.2201
 2448W        W 3312   4.414  23.911  10.723  0.1594 -0.0664  0.1109
 2449W        W 3313  24.529   9.085   0.979 -0.1106  0.3520 -0.0645
 2450W        W 3314  11.422  27.324  18.945  0.1124  0.1161  0.1326
 2451W        W 3315  17.981   4.616   5.751  0.0189 -0.1682  0.0963
 2452W        W 3316  26.333  15.125  22.548  0.3383 -0.0021  0.2410
 2453W        W 3317  28.429  18.572  17.125  0.0971 -0.0089  0.1299
 2454W        W 3318  17.701   8.231   8.765  0.1519 -0.1102  0.0618
 2455W        W 3319   9.688  10.444  16.010 -0.0276  0.0392 -0.0232
 2456W        W 3320  23.794  21.834   9.569 -0.2558 -0.1910 -0.2417
 2457W        W 3321  17.972   2.567  11.696 -0.1118  0.1873  0.0539
 2458W        W 3322  20.892  17.176   8.213  0.0878  0.2752  0.2153
 2459W        W 3323  13.014   6.744  20.669 -0.1633 -0.2719 -0.1488
 2460W        W 3324  27.934  23.926  17.385 -0.0858 -0.1385 -0.1212
 2461W        W 3325   5.773  28.183  19.304  0.1478 -0.0295  0.1933
 2462W        W 3326   9.137  23.644  17.585  0.3473  0.0232 -0.0751
 2463W        W 3327   4.063  27.940  18.674  0.1521  0.0306 -0.1889
 2464W        W 3328  17.687   2.489  17.070 -0.2224 -0.2117  0.0423
 2465W        W 3329  18.348  14.971  11.847  0.0593 -0.2469 -0.1547
 2466W        W 3330  27.579  20.901   9.881 -0.2709 -0.0532  0.1247
 2467W        W 3331   9.079  12.354  29.138  0.1952 -0.1710  0.0591
 2468W        W 3332   4.868  23.643  11.908  0.3035  0.0420 -0.0104
 2469W        W 3333  11.209   0.077  24.819 -0.1073  0.1145 -0.1683
 2470W        W 3334   6.445  28.878  14.488  0.0051 -0.0027 -0.0047
 2471W        W 3335  19.996  10.362  22.192 -0.0680  0.1698  0.2476
 2472W        W 3336   8.157  20.678   8.330 -0.2578  0.0086  0.0308
 2473W        W 3337   2.178   0.169  16.443  0.1328  0.1216 -0.3036
 2474W        W 3338  14.260   2.828  22.744  0.0610 -0.1047  0.2126
 2475W        W 3339  14.122   0.509  13.148 -0.0964 -0.3885  0.0031
 2476W        W 3340  24.417  15.263   3.886 -0.1823  0.0947  0.2593
 2477W        W 3341  15.105  13.198   2.154 -0.2265  0.3224  0.0515
 2478W        W 3342  12.734   0.415  14.785  0.1368  0.1722 -0.2549
 2479W        W 3343  22.596  18.668  14.901  0.1001  0.3037  0.0885
 2480W        W 3344  23.970  25.064   3.033 -0.2634  0.0514  0.0663
 2481W        W 3345  14.009   5.527  24.709  0.3053  0.0270  0.1059
 2482W        W 3346  12.174   3.904   3.007 -0.1600  0.1708 -0.0738
 2483W        W 3347  13.641  11.595  27.455 -0.1221  0.0174 -0.0817
 2484W        W 3348   3.025  16.945   5.241 -0.1777 -0.2130 -0.0062
 2485W        W 3349  17.255  25.704  13.585  0.0355  0.0046 -0.0780
 2486W        W 3350  22.016  20.164   5.949  0.2253 -0.1182  0.2209
 2487W        W 3351  21.523  25.174   7.704  0.1741 -0.1579  0.2955
 2488W        W 3352   4.103  23.421  24.639 -0.4083 -0.2723  0.1638
 2489W        W 3353  28.753   9.237   3.883 -0.0024 -0.2823 -0.2046
 2490W        W 3354  27.296  22.358  18.577 -0.4817  0.1915 -0.2206
 2491W        W 3355  26.386  27.141  20.314  0.0420  0.2125  0.4063
 2492W        W 3356   9.379  25.959   6.306  0.0349  0.2400 -0.1754
 2493W        W 3357  20.741  10.492  16.892 -0.3364 -0.1598 -0.0113
 2494W        W 3358  21.816   6.136   9.668  0.2484 -0.0351 -0.0589
 2495W        W 3359   6.661  20.380  16.272 -0.1197  0.0044 -0.4339
 2496W        W 3360  21.135  17.741   6.237 -0.1034 -0.0261  0.1330
 2497W        W 3361  21.658  26.542  22.505  0.1087  0.1019 -0.0735
 2498W        W 3362  21.746   6.473  12.142 -0.0163  0.1591  0.1150
 2499W        W 3363  25.398  24.309  17.069  0.2574 -0.0493 -0.3291
 2500W        W 3364  24.289   3.287  10.014  0.1303  0.1958  0.2039
 2501W        W 3365   2.995   2.693  24.198  0.3523  0.2296 -0.0750
 2502W        W 3366   9.228  27.828   1.620  0.0563 -0.0661  0.2518
 2503W        W 3367  27.955  10.378  21.445  0.2529 -0.0693  0.2149
 2504W        W 3368   1.866  16.374   7.337  0.0868  0.0479 -0.1094
 2505W        W 3369   3.196   2.032  23.552  0.2358 -0.2120 -0.0724
 2506W        W 3370   0.519  27.586  19.897  0.1809 -0.0555 -0.1130
 2507W        W 3371  22.410   9.185   8.288 -0.4080 -0.0021 -0.1918
 2508W        W 3372  19.271  16.147   5.017 -0.3961  0.0382 -0.2457
 2509W        W 3373   9.238   6.970  11.862 -0.7200 -0.0043 -0.3899
 2510W        W 3374  23.476  25.517   1.921  0.0178  0.0835 -0.0580
 2511W        W 3375   0.031   1.846  16.587  0.1056  0.0005 -0.3209
 2512W        W 3376   8.449  27.683  26.653 -0.0473  0.3783 -0.0353
 2513W        W 3377  27.032  10.595  23.824  0.3534 -0.1566 -0.1960
 2514W        W 3378   7.962   3.326   2.293 -0.2703  0.1166  0.0685
 2515W        W 3379  23.660  12.127  13.793  0.0522  0.1614 -0.0574
 2516W        W 3380  22.228   0.345   9.282  0.2924  0.2073 -0.0493
 2517W        W 3381   9.815   4.908  15.805  0.1069  0.0679  0.2875
 2518W        W 3382  23.360  24.933   2.554 -0.0446  0.1747  0.3103
 2519W        W 3383  26.517  24.951   5.588 -0.1052 -0.2975 -0.1268
 2520W        W 3384  17.992   5.535  15.479 -0.0856 -0.0124 -0.2258
 2521W        W 3385  26.523   5.710  20.400  0.0762  0.0499 -0.1790
 2522W        W 3386  25.101  28.857   9.162 -0.0850  0.1455 -0.1646
 2523W        W 3387   7.118  27.556  23.348  0.2227 -0.0634 -0.1058
 2524W        W 3388   3.391  17.783   9.140  0.0276 -0.0610 -0.1171
 2525W        W 3389  20.567  20.356   3.214  0.0264 -0.4743 -0.0324
 2526W        W 3390   9.820  21.286  18.807 -0.1538 -0.0073  0.0586
 2527W        W 3391  28.726   7.071  25.846  0.0070  0.0429 -0.0424
 2528W        W 3392  13.858  11.464   8.902 -0.1616 -0.4612  0.2053
 2529W        W 3393  23.188   2.556  14.251  0.0567  0.2480 -0.1209
 2530W        W 3394  28.443   3.996  20.351  0.0717 -0.0103 -0.0846
 2531W        W 3395  28.163  21.735  13.704  0.2785 -0.0311  0.1377
 2532W        W 3396  12.556  21.000  10.969 -0.0395  0.1683 -0.0396
 2533W        W 3397  18.616  21.243   2.123 -0.2643  0.1279  0.6541
 2534W        W 3398   2.329  10.749  17.532 -0.0463  0.1450  0.2227
 2535W        W 3399   3.684  11.580  26.691  0.2083  0.2190 -0.0380
 2536W        W 3400   2.785  27.428   5.239 -0.1268  0.3703  0.1126
 2537W        W 3401  22.156  27.385  25.905  0.2581  0.0146 -0.0296
 2538W        W 3402   1.376   3.102   8.759 -0.1250 -0.0937  0.1279
 2539W        W 3403  26.474   2.922  13.748 -0.2759 -0.0504 -0.1126
 2540W        W 3404  20.137  28.229  18.995  0.0030 -0.2256 -0.2703
 2541W        W 3405  10.861  23.108  18.462  0.0573 -0.2458  0.1162
 2542W        W 3406  22.726  28.395   5.080  0.1527 -0.1230  0.1290
 2543W        W 3407   2.427   2.437  11.949  0.0589 -0.0017  0.2366
 2544W        W 3408  28.621  25.451   2.386  0.1044  0.0171  0.0620
 2545W        W 3409   4.161   8.408  21.275  0.0119  0.0215 -0.2872
 2546W        W 3410  14.715  26.832   4.214  0.4329  0.2403 -0.2353
 2547W        W 3411  12.377   2.706  10.572 -0.1587  0.3655 -0.0982
 2548W        W 3412   4.292  22.135  25.116 -0.0269 -0.1408 -0.0000
 2549W        W 3413   2.292  21.024  28.964 -0.2838  0.0705 -0.0255
 2550W        W 3414   1.414   0.445  25.427  0.0391  0.3499 -0.0738
 2551W        W 3415  23.604  28.551  28.257  0.0621  0.3572  0.0751
 2552W        W 3416   7.877   0.378  26.297 -0.3046  0.0215 -0.1110
 2553W        W 3417  17.850  20.374   5.341 -0.0666 -0.0401  0.0909
 2554W        W 3418  25.628   3.624   2.567  0.2580 -0.1845 -0.0762
 2555W        W 3419   9.646  10.399  16.879 -0.2617 -0.0904  0.0212
 2556W        W 3420  28.675   5.754   9.414 -0.3766  0.0231  0.0313
 2557W        W 3421  21.306   0.892   3.543 -0.0966  0.0724 -0.1147
 2558W        W 3422  19.229  20.307  27.194  0.0559  0.0128 -0.1756
 2559W        W 3423   4.116  16.904  24.449  0.0419  0.0433 -0.0287
 2560W        W 3424  24.459  16.697  14.221 -0.3420  0.0825 -0.0850
 2561W        W 3425   9.533  28.165  23.269  0.0917 -0.0481  0.0891
 2562W        W 3426  26.000   1.777  10.206 -0.1165  0.1654 -0.0934
 2563W        W 3427   3.777   0.042  21.326  0.1127  0.0572 -0.1060
 2564W        W 3428   6.359  22.814   1.461 -0.0670 -0.1143 -0.1112
 2565W        W 3429  10.363   3.530   9.615  0.0689  0.0847  0.0846
 2566W        W 3430  11.611   4.533  11.804 -0.1305 -0.2709 -0.1252
 2567W        W 3431  25.334  21.001  13.859  0.1377  0.0472  0.2894
 2568W        W 3432   0.527   3.584  28.776 -0.1032 -0.1424 -0.0764
 2569W        W 3433  20.356  27.858   2.817 -0.3190 -0.0089  0.0938
 2570W        W 3434  25.705   0.567   8.683  0.2848 -0.2145 -0.2393
 2571W        W 3435  12.408  25.818  23.394 -0.1638 -0.0625 -0.0300
 2572W        W 3436  22.577  23.329  23.395 -0.1155 -0.4553 -0.1015
 2573W        W 3437  22.419  25.575  28.848  0.1548 -0.2837  0.0137
 2574W        W 3438   7.463   8.635  28.066  0.2528 -0.3643 -0.1597
 2575W        W 3439  23.532  15.492   0.158  0.0336 -0.1180 -0.0426
 2576W        W 3440  25.966  23.117   9.362 -0.2102 -0.0357  0.0286
 2577W        W 3441  21.627  15.698  13.012  0.0907  0.3563  0.2441
 2578W        W 3442  20.045   1.666  12.166 -0.0508  0.0012 -0.0554
 2579W        W 3443  10.705   3.309  16.135  0.1682 -0.0309 -0.0592
 2580W        W 3444   7.690  22.206  10.032 -0.3891 -0.0690  0.0488
 2581W        W 3445  28.310   2.476   6.804  0.2232 -0.0827 -0.0004
 2582W        W 3446  18.157  16.182   8.652  0.0822 -0.1474  0.4072
 2583W        W 3447  28.850  26.368  26.923  0.3188  0.2263  0.0699
 2584W        W 3448  28.846   9.637  28.149 -0.2570  0.0725 -0.3624
 2585W        W 3449   4.898  25.094  11.639 -0.0711 -0.4282  0.1261
 2586W        W 3450   8.597   4.311  27.372  0.1370  0.3152  0.1393
 2587W        W 3451  28.770  20.390  11.429  0.2544 -0.1864  0.4336
 2588W        W 3452  21.097  22.754  10.780  0.0573  0.1435  0.0875
 2589W        W 3453  23.709  14.295   8.510 -0.0335  0.0648 -0.2529
 2590W        W 3454  19.616  20.061   3.207  0.2555  0.3125  0.1241
 2591W        W 3455  27.682  27.094  16.570  0.1304 -0.0531  0.0850
 2592W        W 3456  23.921   1.134  15.322 -0.1493  0.2528 -0.1573
 2593W        W 3457  11.558   6.404  16.184 -0.1457  0.2080 -0.0863
 2594W        W 3458  20.421   2.601   5.026 -0.0445  0.0441  0.0618
 2595W        W 3459  16.219  26.224   9.104 -0.0625  0.0785 -0.0538
 2596W        W 3460   2.590  18.974  11.800 -0.0695  0.1163 -0.0078
 2597W        W 3461  28.422  10.900   5.956  0.1049 -0.0143 -0.1305
 2598W        W 3462  27.927  16.030   3.280  0.4078  0.0036  0.1152
 2599W        W 3463  17.763  15.210  15.208 -0.3790 -0.5830  0.0075
 2600W        W 3464  16.149  16.461   7.587 -0.1594 -0.0736  0.1084
 2601W        W 3465   7.411   5.927  23.379 -0.2418  0.0642 -0.0990
 2602W        W 3466   0.555   1.513  10.098  0.0447  0.1351  0.1184
 2603W        W 3467   4.997   8.744  16.033 -0.2791 -0.0263  0.3044
 2604W        W 3468   0.322   9.557   0.714  0.2229 -0.1676 -0.0413
 2605W        W 3469  19.785  27.545  18.315  0.0228  0.1106 -0.2487
 2606W        W 3470  16.462  23.599   1.793 -0.1557  0.0695  0.0713
 2607W        W 3471  13.818   8.015  22.849 -0.1249  0.1733  0.0650
 2608W        W 3472  20.168  26.871  18.796  0.4440  0.0954  0.0290
 2609W        W 3473  26.868  13.481  22.358 -0.1087 -0.0701 -0.0902
 2610W        W 3474  22.812   7.484  11.881 -0.3827 -0.2882  0.2070
 2611W        W 3475  21.708  27.354  22.649  0.2026 -0.1781  0.0793
 2612W        W 3476  28.936  15.248  26.188 -0.3548  0.5672 -0.2699
 2613W        W 3477   7.263   0.232   9.551  0.0204  0.2350 -0.0416
 2614W        W 3478  28.183  28.877  13.595 -0.0608  0.1261  0.1563
 2615W        W 3479  26.579   6.572   8.781 -0.3931 -0.1248 -0.1869
 2616W        W 3480  20.737  21.079  20.797  0.1045  0.0259 -0.0111
 2617W        W 3481   6.375  26.431  25.308 -0.2175 -0.0000 -0.0147
 2618W        W 3482   1.458   8.373  27.347  0.2529  0.2327  0.4505
 2619W        W 3483  15.899   8.877  12.430  0.1694 -0.1252  0.0354
 2620W        W 3484  14.692   1.361  27.036 -0.1431  0.2570  0.1768
 2621W        W 3485   5.855  11.190   1.354 -0.0339  0.2249 -0.1808
 2622W        W 3486  22.117  20.025  18.794 -0.0988  0.1498 -0.1684
 2623W        W 3487  25.675  17.526   1.563  0.2099  0.0005 -0.0619
 2624W        W 3488  12.895   9.409  11.623 -0.3398  0.0150  0.1560
 2625W        W 3489  26.797   5.648   7.087  0.0193 -0.0084 -0.1528
 2626W        W 3490   2.545   2.934   3.266 -0.0345  0.1593 -0.1326
 2627W        W 3491  27.025   4.401  24.180  0.0053  0.0662  0.2117
 2628W        W 3492   0.635  24.929  17.365  0.2041  0.0862 -0.0079
 2629W        W 3493   0.105  17.139  24.911 -0.1390 -0.2461  0.0646
 2630W        W 3494  12.760  24.492  16.017  0.1053 -0.2070 -0.1120
 2631W        W 3495  18.691  20.650  24.519 -0.1903 -0.1356  0.0340
 2632W        W 3496   1.114   0.625  25.807  0.0701 -0.0474  0.1995
 2633W        W 3497  13.587   4.884  15.806  0.4021 -0.1591  0.1936
 2634W        W 3498  23.419  14.903   8.431  0.1054 -0.1840 -0.1530
 2635W        W 3499   0.855  19.911  18.028 -0.1106  0.0991  0.0061
 2636W        W 3500  19.306  26.892  22.448  0.1022 -0.1177  0.0120
 2637W        W 3501  14.172   5.223  12.576 -0.0547  0.0889 -0.1820
 2638W        W 3502   7.954   6.577  19.739 -0.3976  0.0424 -0.1832
 2639W        W 3503  19.856   3.497  15.245 -0.0434  0.1229 -0.1551
 2640W        W 3504  11.224  20.550   2.789  0.1630 -0.2434 -0.0850
 2641W        W 3505   2.617   0.739  27.310 -0.2570 -0.0272  0.1459
 2642W        W 3506  11.489  23.269  20.751  0.1258 -0.0629  0.1766
 2643W        W 3507  12.634  25.068   8.981  0.2206  0.3362 -0.0955
 2644W        W 3508   4.646  14.068  28.715 -0.0282  0.5173  0.3254
 2645W        W 3509  14.355   5.657   1.638 -0.2181 -0.1583  0.0693
 2646W        W 3510   6.402  28.001  13.064  0.0999  0.0930  0.1894
 2647W        W 3511  20.588   8.810   5.213 -0.3465  0.0419 -0.0621
 2648W        W 3512   2.872   3.093  27.011 -0.0920 -0.1962  0.2018
 2649W        W 3513   6.903  14.154  27.838  0.0559  0.1153  0.0972
 2650W        W 3514   7.302   3.782   0.491  0.2001 -0.2908  0.0212
 2651W        W 3515  16.904  24.768   9.468 -0.2609  0.1355 -0.2412
 2652W        W 3516  21.708   5.478  28.905 -0.1078 -0.0519  0.0054
 2653W        W 3517   1.710  15.337  15.589 -0.0553  0.0617  0.0626
 2654W        W 3518   2.792  17.603  23.369 -0.1695 -0.1993 -0.2281
 2655W        W 3519  26.622  18.398   6.658 -0.1575  0.4637 -0.0588
 2656W        W 3520  13.427  18.096  28.329 -0.2794 -0.2808  0.1187
 2657W        W 3521  19.893   2.359  15.854 -0.2231 -0.0697  0.0920
 2658W        W 3522   0.666  10.258   8.517  0.0163  0.2682  0.0571
 2659W        W 3523   4.764  24.726  25.712 -0.2362  0.0103 -0.1256
 2660W        W 3524  26.174   6.251   8.228  0.1051 -0.1487 -0.2274
 2661W        W 3525  15.772  13.918   6.581 -0.1754  0.2584  0.2103
 2662W        W 3526  22.171  10.074   2.628  0.1551 -0.0830  0.2690
 2663W        W 3527  26.166  27.061   4.563  0.1272  0.2537  0.2102
 2664W        W 3528  20.039  18.063   0.661  0.0157  0.0693 -0.0264
 2665W        W 3529  11.095  26.326  12.331 -0.1176 -0.0870  0.3375
 2666W        W 3530  18.728  17.339  12.281  0.0800  0.4548 -0.1946
 2667W        W 3531  28.644  19.405  27.522 -0.1748  0.0265 -0.0762
 2668W        W 3532  29.024  26.765  26.647 -0.2332 -0.0308  0.1122
 2669W        W 3533  22.822  16.983  27.016 -0.2570 -0.2306 -0.0509
 2670W        W 3534  28.358  20.673  26.112  0.3864 -0.0547 -0.1018
 2671W        W 3535  12.554   4.546   3.425 -0.1242  0.2944 -0.1081
 2672W        W 3536  26.878   2.152   6.667 -0.1416 -0.0977  0.1407
 2673W        W 3537  16.363  26.657  13.832 -0.1061 -0.0049 -0.0690
 2674W        W 3538  16.056  12.880  25.420  0.1089  0.1480 -0.1319
 2675W        W 3539   7.887  23.363  16.921  0.1024 -0.1029 -0.0672
 2676W        W 3540   7.776  27.053  12.623  0.0028 -0.2826 -0.2032
 2677W        W 3541   4.285  23.725  17.065 -0.0878  0.0069 -0.1134
 2678W        W 3542   3.947   3.108   6.158 -0.1355  0.3339  0.0799
 2679W        W 3543   0.184   6.231   4.589  0.2025  0.2598 -0.0511
 2680W        W 3544  18.529  25.773   8.043 -0.3061 -0.1258  0.2264
 2681W        W 3545  27.708  27.447  27.562  0.1489  0.1978  0.0544
 2682W        W 3546  11.924  24.144  12.936  0.2533 -0.1283  0.2384
 2683W        W 3547  14.157   4.641   7.251 -0.3771 -0.0352 -0.4318
 2684W        W 3548   1.210  10.068   1.505  0.0468 -0.3348 -0.1736
 2685W        W 3549   3.619   0.950  18.703  0.0465 -0.3912 -0.1286
 2686W        W 3550   4.327  25.051   3.560  0.0143  0.4020 -0.1934
 2687W        W 3551  27.968  24.646  22.640  0.2815  0.1984 -0.0227
 2688W        W 3552  28.578   8.759   5.282 -0.0892  0.0390  0.2888
 2689W        W 3553  18.319  26.110  14.322  0.1468 -0.0879 -0.0973
 2690W        W 3554  10.841  18.975  18.363  0.2977 -0.0600 -0.2040
 2691W        W 3555  11.284   3.579  17.029 -0.3108 -0.2326  0.0796
 2692W        W 3556  15.659  17.443  15.795 -0.1424 -0.0498  0.0800
 2693W        W 3557  27.697  23.073   9.095 -0.2117 -0.1523  0.1124
 2694W        W 3558   7.463  20.657  13.577  0.0387  0.2548 -0.0337
 2695W        W 3559   0.787   3.484  21.558 -0.5590  0.1867  0.0012
 2696W        W 3560  18.665   6.702   1.558 -0.0137  0.2150  0.1555
 2697W        W 3561  12.334   4.653  22.186  0.1035 -0.0011  0.0386
 2698W        W 3562  16.572   3.431   2.960  0.1362  0.0342  0.0922
 2699W        W 3563   0.795   7.256  13.156  0.1479  0.1457  0.0104
 2700W        W 3564  20.333  19.319   7.956 -0.1302 -0.0246  0.0282
 2701W        W 3565  24.727   0.561  10.766 -0.0367 -0.0443  0.1039
 2702W        W 3566   5.378  19.447   5.897 -0.1149 -0.1452 -0.2575
 2703W        W 3567   1.124  28.370  16.308 -0.1607 -0.1777 -0.1850
 2704W        W 3568  27.515  17.167  18.317 -0.2263  0.2040 -0.1529
 2705W        W 3569   2.445   7.166  11.539  0.3555  0.1909 -0.1448
 2706W        W 3570  28.847   1.783  13.793  0.3373  0.1036 -0.0691
 2707W        W 3571  23.256  16.290  16.536  0.3241  0.0806  0.1724
 2708W        W 3572  29.031  25.639   2.482 -0.1587 -0.0830  0.1594
 2709W        W 3573   5.617   3.648  24.024 -0.0350 -0.0840 -0.2469
 2710W        W 3574  24.066  13.566  12.565 -0.0185 -0.0003 -0.0527
 2711W        W 3575  27.411  19.347  12.532  0.1588 -0.1915 -0.0544
 2712W        W 3576  10.367  22.457   1.448  0.1959 -0.0280 -0.1971
 2713W        W 3577  10.041  20.375   5.726  0.2677 -0.0580 -0.0956
 2714W        W 3578  27.117  22.845   4.352 -0.1541 -0.2050  0.2076
 2715W        W 3579  14.466   5.729  24.956  0.0865 -0.1742  0.4234
 2716W        W 3580  19.892  26.210  23.806  0.1430 -0.2064  0.0018
 2717W        W 3581  28.336  23.473  14.683  0.1983 -0.1384 -0.0320
 2718W        W 3582   3.795  23.230  11.153  0.1635 -0.2248 -0.0709
 2719W        W 3583  10.511  27.278   1.912  0.2260  0.2316  0.1347
 2720W        W 3584  26.388  25.446   8.175 -0.2806  0.1058 -0.1629
 2721W        W 3585   9.727  12.199   4.607  0.0777  0.1215  0.0614
 2722W        W 3586  17.994   3.963   0.356  0.1392 -0.0617  0.3048
 2723W        W 3587  21.066  19.728  13.613 -0.0013 -0.1061 -0.0823
 2724W        W 3588   8.481  27.689   3.272  0.0014  0.0858  0.1493
 2725W        W 3589  26.772  25.484  12.334  0.0673  0.1323 -0.0343
 2726W        W 3590  10.546  22.540  14.340 -0.1052  0.0341  0.2571
 2727W        W 3591  21.683   1.625  14.809  0.4700  0.4010  0.1900
 2728W        W 3592  11.737  23.603  13.209  0.1217 -0.2907  0.0842
 2729W        W 3593  26.013  25.478   1.804 -0.3140 -0.0694 -0.0183
 2730W        W 3594  19.189  22.592  11.427  0.2032 -0.1708 -0.1914
 2731W        W 3595   3.203  20.063   5.446 -0.1377  0.4578  0.1096
 2732W        W 3596   0.636   5.028  17.039  0.1099  0.0306 -0.0451
 2733W        W 3597  22.993  18.907  10.725  0.1216  0.2378 -0.2961
 2734W        W 3598   5.191  16.445  20.506  0.0132 -0.1336  0.1451
 2735W        W 3599  16.646   9.046  10.746  0.0936 -0.0195  0.2487
 2736W        W 3600  22.070  27.741  21.088  0.2007 -0.0235  0.1661
 2737W        W 3601   9.641   6.101  13.203  0.4428  0.0209 -0.1340
 2738W        W 3602  13.655  11.520  21.987  0.1454  0.1874  0.0975
 2739W        W 3603  28.729  21.592  10.722 -0.2135 -0.1607  0.2377
 2740W        W 3604  27.060  21.989   2.759  0.1225 -0.1469 -0.0598
 2741W        W 3605   4.603  14.341   4.718  0.0502 -0.1854  0.1541
 2742W        W 3606   1.079   1.316  28.376 -0.0528  0.1468  0.2438
 2743W        W 3607   6.425   9.130  22.037  0.1918  0.2133 -0.1026
 2744W        W 3608  24.967  14.210  23.001  0.0826  0.3396  0.5237
 2745W        W 3609  11.734   4.404  16.975  0.1686 -0.1310  0.0464
 2746W        W 3610  25.134   7.504  22.508  0.0277 -0.3236  0.0988
 2747W        W 3611  23.584  17.636  10.400  0.1559  0.0823 -0.2563
 2748W        W 3612  20.728   7.780  20.947  0.0587  0.1531 -0.1534
 2749W        W 3613   6.400  24.467  10.705  0.2431 -0.1318  0.1647
 2750W        W 3614  16.916   3.373  15.724 -0.2595  0.0705 -0.1801
 2751W        W 3615  17.403  24.563   7.565  0.0389  0.0698  0.0133
 2752W        W 3616   2.434   6.214  18.592  0.1242  0.0240  0.0042
 2753W        W 3617  21.819  23.959   4.688 -0.0534  0.1125  0.0293
 2754W        W 3618   2.135  21.317  23.886  0.2002  0.1013  0.0180
 2755W        W 3619   1.614  12.607  21.768  0.4545 -0.3486 -0.0688
 2756W        W 3620   8.941  17.622   2.520  0.2485 -0.2021  0.2308
 2757W        W 3621  11.363  27.109   6.621  0.1836 -0.2634  0.0797
 2758W        W 3622  28.774   3.171   9.566 -0.0450 -0.1867 -0.0141
 2759W        W 3623  20.075   8.568   6.716  0.1374 -0.2021  0.1019
 2760W        W 3624  22.849   0.205  10.322 -0.5077  0.0634 -0.2856
 2761W        W 3625  21.060  23.574   7.615  0.1579  0.2501 -0.1446
 2762W        W 3626  20.649  19.418  10.265 -0.0924 -0.0209 -0.0873
 2763W        W 3627  26.428   1.306  15.799  0.0435  0.2637  0.0844
 2764W        W 3628  27.765  19.517  23.235 -0.2287  0.2695 -0.0825
 2765W        W 3629  27.625   0.317  28.005  0.1009  0.1922 -0.1651
 2766W        W 3630  27.364  20.875   7.701 -0.0378  0.2836 -0.1517
 2767W        W 3631  23.009   1.948  15.196 -0.0128 -0.2734 -0.2885
 2768W        W 3632  13.236  20.207   5.040 -0.0583 -0.2310  0.3689
 2769W        W 3633   8.858   8.652  25.634 -0.0266  0.1382  0.0009
 2770W        W 3634  13.344   1.107   2.524  0.1473  0.0301 -0.1223
 2771W        W 3635   3.210  20.103   3.976 -0.1147 -0.1757 -0.2824
 2772W        W 3636   0.725   5.090   9.548 -0.1297 -0.1067 -0.1686
 2773W        W 3637  17.992  25.292  13.303  0.1772 -0.1067 -0.1371
 2774W        W 3638  26.888  28.157  25.669  0.2022 -0.1005  0.1000
 2775W        W 3639  14.703  16.995  25.966 -0.0856 -0.1086  0.1517
 2776W        W 3640  17.819  21.446  24.128  0.0002  0.1637  0.0376
 2777W        W 3641   8.711  28.212   6.268 -0.0145  0.2162  0.5229
 2778W        W 3642   5.348  27.364  24.823 -0.0607 -0.2011  0.0281
 2779W        W 3643  27.227   9.602  19.307 -0.0922  0.2314  0.0285
 2780W        W 3644  12.502   8.868  16.345  0.1199 -0.2851 -0.2155
 2781W        W 3645   1.480  19.379   9.720 -0.1279 -0.1148 -0.0795
 2782W        W 3646  16.671  21.131  11.261 -0.0367 -0.2953  0.1180
 2783W        W 3647  24.927  29.013   3.306  0.2016  0.0214  0.2744
 2784W        W 3648  27.165  23.627   9.402  0.2781 -0.0182 -0.2325
 2785W        W 3649  23.916  28.808  11.083  0.5348 -0.1183  0.0417
 2786W        W 3650  21.574   4.935  14.639 -0.0063  0.0641 -0.0413
 2787W        W 3651  28.885   2.231  26.999  0.4569 -0.1653  0.2130
 2788W        W 3652  20.725   6.660  24.786  0.1530 -0.0234 -0.1765
 2789W        W 3653  27.368  24.940  27.000 -0.1806 -0.0023  0.1381
 2790W        W 3654   1.993  27.731   3.914  0.0280  0.3110 -0.4475
 2791W        W 3655   7.464  20.035  26.425  0.0889 -0.1340 -0.1520
 2792W        W 3656  27.259  25.590  12.389 -0.0454 -0.3185  0.0860
 2793W        W 3657  15.003  22.387   0.466 -0.0464 -0.0092  0.1477
 2794W        W 3658  23.128  27.999   1.510 -0.0494  0.0734  0.2121
 2795W        W 3659   3.459  24.402   1.075 -0.0319  0.0959 -0.3726
 2796W        W 3660  14.678  27.986   0.675 -0.1799 -0.0485 -0.3058
 2797W        W 3661   6.333   5.065   6.276 -0.2518  0.1157 -0.4981
 2798W        W 3662  14.585   8.041  15.112  0.1288  0.2343 -0.3024
 2799W        W 3663  26.910   4.311  16.061 -0.2606 -0.2494  0.1233
 2800W        W 3664  21.794  24.097  19.806 -0.3117  0.0061  0.0212
 2801W        W 3665  23.341   3.746  18.940 -0.0181  0.2666 -0.0173
 2802W        W 3666   2.955  20.817   8.675  0.1977 -0.3089 -0.0997
 2803W        W 3667   2.799  25.492   2.533  0.2319  0.0801  0.1836
 2804W        W 3668  20.129  13.834  12.611 -0.0570  0.0343 -0.3126
 2805W        W 3669  28.786   0.049  15.381 -0.2928  0.2053 -0.1581
 2806W        W 3670  22.199  21.887   8.514  0.2051 -0.1973  0.1602
 2807W        W 3671  20.760  26.228  11.825 -0.2266  0.2631  0.1756
 2808W        W 3672  12.887  26.554  10.923 -0.3084  0.1364 -0.0123
 2809W        W 3673  21.605   9.464   1.215  0.1823  0.1093  0.0145
 2810W        W 3674  20.537   5.339   9.329 -0.0311  0.2261  0.0509
 2811W        W 3675  24.300   8.591   8.906  0.1556 -0.3101 -0.1705
 2812W        W 3676  19.347   5.374  12.254  0.3344 -0.0122  0.0498
 2813W        W 3677  21.274   1.490   6.787  0.3321  0.1202 -0.2062
 2814W        W 3678  20.940  27.496  24.392 -0.1965  0.2274 -0.3654
 2815W        W 3679  12.356   4.855   0.738  0.2539 -0.2961 -0.2704
 2816W        W 3680   4.994   3.494  24.745  0.1102  0.2479 -0.2290
 2817W        W 3681  27.065   3.968  10.225  0.1426 -0.0811 -0.1804
 2818W        W 3682  10.654  27.346  26.601  0.0263  0.0951 -0.2714
 2819W        W 3683  28.395  21.098  11.710  0.3011  0.0470 -0.0214
 2820W        W 3684   1.090  24.125   1.896 -0.0546 -0.1149  0.0764
 2821W        W 3685   0.422  12.473  21.646 -0.0762 -0.1090 -0.1217
 2822W        W 3686  16.882   6.333   4.932  0.0645 -0.3888 -0.0044
 2823W        W 3687   8.141   5.626  26.084  0.0323  0.0683  0.0807
 2824W        W 3688   6.447   6.781  10.486 -0.1904 -0.3830 -0.2430
 2825W        W 3689   6.239  17.424   0.862 -0.0357  0.0664  0.1915
 2826W        W 3690  12.274  11.097   4.917 -0.0222  0.1628 -0.1376
 2827W        W 3691  19.008  28.909  20.638 -0.0374  0.1751 -0.1974
 2828W        W 3692  20.974  24.802  20.891 -0.0164 -0.1645  0.0251
 2829W        W 3693  23.641   7.599  13.333 -0.2964 -0.3784  0.2627
 2830W        W 3694  24.158   2.913  20.996  0.2248 -0.3666  0.2393
 2831W        W 3695   1.104   9.438   1.449  0.1394 -0.1743  0.5359
 2832W        W 3696   6.739  27.930  24.158 -0.1110 -0.0029 -0.3776
 2833W        W 3697  13.653  23.447  23.697  0.1690 -0.1477  0.1214
 2834W        W 3698  17.343   2.101   9.160 -0.2237  0.1723  0.0125
 2835W        W 3699  28.868  20.637   4.953 -0.0286 -0.1927  0.1336
 2836W        W 3700   8.321   8.265   0.574  0.2731 -0.2331  0.0036
 2837W        W 3701  27.707  16.082  12.654 -0.2568 -0.0894 -0.1506
 2838W        W 3702   9.353   4.045  13.389 -0.0206  0.0680  0.0967
 2839W        W 3703   7.429  24.193  27.484  0.1009 -0.1797  0.3596
 2840W        W 3704  13.055   6.551  25.327 -0.0542  0.0996 -0.0630
 2841W        W 3705  15.617   5.982  23.018  0.2247  0.3753  0.0787
 2842W        W 3706  20.353   0.268   7.411 -0.1731  0.2246 -0.1972
 2843W        W 3707  18.028  13.962  10.359 -0.0535  0.1604 -0.0362
 2844W        W 3708  22.386  19.707  13.818  0.2134 -0.2040 -0.0230
 2845W        W 3709  25.173   8.245  24.964 -0.3901 -0.2420 -0.0864
 2846W        W 3710   7.538   8.769  16.001 -0.0030  0.1720 -0.5127
 2847W        W 3711  22.427  23.528  25.237  0.0471 -0.0755  0.0270
 2848W        W 3712  22.164  21.382   8.480 -0.2680 -0.1872  0.2721
 2849W        W 3713  10.620  27.812  16.866  0.1852  0.1306 -0.0104
 2850W        W 3714  25.105   8.075  17.081 -0.1330 -0.1639  0.0436
 2851W        W 3715   7.909   3.725  23.134 -0.1726 -0.0310 -0.0883
 2852W        W 3716  26.832  24.902  10.069  0.2606  0.0719  0.1396
 2853W        W 3717   1.364   5.067  21.574 -0.2084 -0.0139  0.1371
 2854W        W 3718  14.146   0.434  15.662  0.3299  0.4310  0.0052
 2855W        W 3719   8.842   0.576   7.634  0.0846 -0.1618 -0.3652
 2856W        W 3720  23.572   2.631  14.533  0.1779 -0.2420  0.1481
 2857W        W 3721  12.912  14.861  26.459 -0.0212 -0.1681 -0.0934
 2858W        W 3722  14.645  28.902  15.461 -0.0226 -0.2035 -0.0666
 2859W        W 3723  21.072  21.910   1.801  0.0556 -0.1554 -0.0648
 2860W        W 3724   4.735   5.984  11.081 -0.1775 -0.0893  0.0005
 2861W        W 3725  22.144  25.260  11.549 -0.1110 -0.2658  0.1910
 2862W        W 3726  22.737  27.321  14.015 -0.0735 -0.0825  0.1096
 2863W        W 3727  14.102  16.923   1.147  0.0686  0.1811 -0.0171
 2864W        W 3728  19.770  27.886   4.608  0.0017  0.1368 -0.1289
 2865W        W 3729  23.157  20.900   2.161  0.0540 -0.0625 -0.0472
 2866W        W 3730  27.693  26.025  25.819 -0.2523 -0.2056 -0.1016
 2867W        W 3731  27.714   4.656   9.370 -0.1516 -0.0524  0.3264
 2868W        W 3732   0.471   2.354  11.392 -0.0520  0.2172  0.0331
 2869W        W 3733   3.447   5.309  22.299  0.2191 -0.0515 -0.1951
 2870W        W 3734  17.859  23.767   4.489  0.1078 -0.0013 -0.1937
 2871W        W 3735   1.565   9.253  17.253 -0.1878 -0.1120 -0.0284
 2872W        W 3736   6.621   0.481  14.536 -0.0586 -0.0949  0.1164
 2873W        W 3737  11.343  12.731   5.347 -0.3685 -0.0835 -0.0466
 2874W        W 3738   8.960   2.976  23.279  0.1177 -0.0068 -0.0207
 2875W        W 3739  16.652   3.849   5.590  0.3053  0.2555 -0.0253
 2876W        W 3740  10.706   2.457  13.848  0.2760  0.1066 -0.0574
 2877W        W 3741  17.468  23.076  13.331 -0.0974  0.0855 -0.0270
 2878W        W 3742   7.430   1.864  19.745  0.2796  0.0039 -0.1205
 2879W        W 3743  14.038   2.539  23.154 -0.0035 -0.0226 -0.3067
 2880W        W 3744  23.245   7.968  22.166  0.1045 -0.3095  0.0979
 2881W        W 3745  24.887  26.180  13.675  0.2788 -0.1078 -0.1874
 2882W        W 3746  15.987  19.765  23.599  0.0730 -0.1615 -0.1423
 2883W        W 3747  13.120  12.087  16.192  0.2287  0.3993 -0.2784
 2884W        W 3748  24.983  26.590  21.732 -0.0769 -0.1512  0.0295
 2885W        W 3749   5.196  28.925   3.464 -0.0829 -0.0652 -0.0164
 2886W        W 3750  21.598  24.272   3.639 -0.1253  0.1153 -0.2077
 2887W        W 3751   2.001   9.225   6.193  0.0316 -0.2003 -0.0993
 2888W        W 3752  18.056  23.148   2.777 -0.2262 -0.0589  0.0267
 2889W        W 3753  27.359  15.815   7.657  0.0428  0.1151  0.1409
 2890W        W 3754   8.878  17.083  21.614 -0.1647  0.1028  0.1892
 2891W        W 3755  22.926   9.612  18.920 -0.3724  0.0114  0.0814
 2892W        W 3756  20.693  17.609  18.439 -0.0154  0.1184 -0.0576
 2893W        W 3757  24.749  24.764  23.515  0.0637 -0.3916 -0.3602
 2894W        W 3758  13.618  10.025  13.487 -0.1138 -0.0216  0.2009
 2895W        W 3759   1.466   7.620  12.184  0.0383  0.0610 -0.1831
 2896W        W 3760   8.009  28.467   1.297 -0.2605  0.0505  0.2833
 2897W        W 3761  23.686  18.360  25.329 -0.2508 -0.0835 -0.1911
 2898W        W 3762  27.905  28.249  20.945 -0.0795 -0.0341 -0.3418
 2899W        W 3763   8.590  11.403  17.474 -0.0527  0.2118  0.0635
 2900W        W 3764  25.840  28.597  12.897 -0.1762 -0.3173 -0.3011
 2901W        W 3765  10.692  23.717   8.512 -0.2548 -0.1276  0.0861
 2902W        W 3766   4.477  27.377  26.002  0.1626  0.0638 -0.1866
 2903W        W 3767  19.716   0.555  10.233 -0.0703 -0.3536  0.0155
 2904W        W 3768   2.793  23.559  10.020 -0.1873  0.0879 -0.1006
 2905W        W 3769  12.254  26.574  11.533 -0.0966  0.1436 -0.0930
 2906W        W 3770  29.084  17.457   8.106 -0.1917 -0.0447  0.0380
 2907W        W 3771  19.304  20.944  14.066 -0.0132 -0.1899 -0.0366
 2908W        W 3772   6.887   9.427   1.767 -0.0337 -0.2189  0.1550
 2909W        W 3773  11.438   4.768  15.606  0.0819  0.0348 -0.0800
 2910W        W 3774  27.315  21.782  23.683 -0.1167  0.0310 -0.0989
 2911W        W 3775  11.492  19.862  12.952 -0.0274  0.0407 -0.0397
 2912W        W 3776  11.726  27.597  20.666 -0.0745  0.0479  0.0856
 2913W        W 3777  26.935  18.738  16.666  0.2739  0.3701  0.0584
 2914W        W 3778  14.989  21.219  10.368 -0.0053 -0.1852  0.5831
 2915W        W 3779  19.219  18.612  13.890  0.1089  0.1514 -0.1313
 2916W        W 3780   8.261  18.619  11.959 -0.1876 -0.0371 -0.0641
 2917W        W 3781   7.314  25.121  11.648 -0.1048  0.0289  0.1810
 2918W        W 3782  26.525  17.798  13.827  0.1594  0.0684  0.0709
 2919W        W 3783   6.378  16.482  14.613 -0.0545 -0.0149 -0.1271
 2920W        W 3784   1.725  24.142   6.294  0.2441 -0.2265 -0.0996
 2921W        W 3785  16.785  26.350   9.879 -0.0439  0.3198 -0.0726
 2922W        W 3786  12.660  14.510   7.884 -0.0624  0.0176  0.3772
 2923W        W 3787  13.767  20.033  22.082 -0.3348 -0.0155  0.4656
 2924W        W 3788  16.735   3.566  11.009 -0.0066  0.0020 -0.0171
 2925W        W 3789  16.522  15.420   7.302  0.1519  0.3820  0.0166
 2926W        W 3790  23.070  20.027   7.891 -0.1006  0.1383 -0.1341
 2927W        W 3791   9.136  12.634  11.714 -0.1697 -0.4413  0.0915
 2928W        W 3792   0.026  20.808  10.339  0.1910 -0.2468  0.0682
 2929W        W 3793  28.533  22.354   1.967 -0.1408 -0.1693  0.0633
 2930W        W 3794  23.461  11.763  17.697 -0.0258 -0.2254 -0.1844
 2931W        W 3795  25.806  12.395  15.981 -0.0364 -0.0108 -0.0667
 2932W        W 3796  16.029  14.999   1.562  0.0568  0.1734  0.1512
 2933W        W 3797   3.109   1.378  20.627 -0.0141  0.0272 -0.0617
 2934W        W 3798   3.554   3.199  12.747 -0.0905  0.1407 -0.3567
 2935W        W 3799  14.365   1.954  24.455  0.2117  0.1587  0.0926
 2936W        W 3800   5.620   0.717  22.250  0.1463  0.0556  0.3032
 2937W        W 3801  28.304  16.363   5.961  0.1890  0.1904 -0.1257
 2938W        W 3802  25.725  25.205   6.531 -0.3112  0.3064  0.1134
 2939W        W 3803  12.168  22.640  17.660 -0.0956  0.2614 -0.0140
 2940W        W 3804  20.991   0.998  11.366  0.0795 -0.0088  0.0394
 2941W        W 3805  19.771   3.501  22.892 -0.1111  0.0184  0.0843
 2942W        W 3806  21.821  28.459   5.548  0.0792  0.0144 -0.2306
 2943W        W 3807   2.600  11.054   4.576 -0.2307  0.0205 -0.1180
 2944W        W 3808  13.298  24.419  11.059 -0.0720 -0.0988  0.1480
 2945W        W 3809  29.041  17.857   3.088  0.0755  0.0648 -0.1310
 2946W        W 3810   9.675   3.509   3.302 -0.0953 -0.2810 -0.1371
 2947W        W 3811   9.817  15.441  21.861  0.1394  0.1561 -0.1413
 2948W        W 3812  26.513  27.611  28.249  0.2974  0.3687 -0.1678
 2949W        W 3813   3.129   8.616  22.210  0.2935 -0.2039  0.0223
 2950W        W 3814  18.787  23.819  17.373  0.0170  0.0069  0.1425
 2951W        W 3815   0.353  11.393   2.326  0.0571 -0.3581 -0.2287
 2952W        W 3816  17.604  28.703  11.448  0.1984 -0.0348 -0.1658
 2953W        W 3817  26.298  21.161  18.353 -0.1957  0.0292  0.2771
 2954W        W 3818  25.694   2.168   1.135  0.0607 -0.1618 -0.0893
 2955W        W 3819   0.689  11.338  17.754  0.0479 -0.1028 -0.0266
 2956W        W 3820  20.828  21.845  17.298 -0.1347 -0.2067 -0.2862
 2957W        W 3821  13.369   2.918  14.336  0.1602  0.0570  0.0783
 2958W        W 3822   2.938   0.362  10.801 -0.1830  0.2479 -0.1388
 2959W        W 3823  24.845  17.118  12.485 -0.0564 -0.0876  0.2129
 2960W        W 3824  21.484   4.807  26.500 -0.0460 -0.0338 -0.0503
 2961W        W 3825  15.099  17.338  23.961  0.1047 -0.1101  0.0222
 2962W        W 3826   6.449  19.440   8.436  0.1103  0.0220  0.1115
 2963W        W 3827  11.912  20.393  18.653 -0.0833  0.0842 -0.0141
 2964W        W 3828   6.313  10.172  10.664 -0.0026 -0.0048 -0.2927
 2965W        W 3829  13.456   9.228   6.114  0.1436 -0.2502 -0.3192
 2966W        W 3830   6.945  22.809  13.985 -0.0761 -0.1780 -0.3863
 2967W        W 3831  26.074  26.212  29.066  0.0620  0.1128  0.2268
 2968W        W 3832  24.710  26.690   7.785  0.1379  0.2411  0.2868
 2969W        W 3833   5.904   8.682  27.256  0.2052 -0.0806 -0.0144
 2970W        W 3834   2.235  24.183  14.741  0.0066  0.2486  0.2996
 2971W        W 3835  13.760  16.023   5.007 -0.0613 -0.0587 -0.2066
 2972W        W 3836  22.769  18.158   7.096 -0.2226  0.0383 -0.1180
 2973W        W 3837   6.428   8.052  23.286 -0.0737 -0.0569 -0.1370
 2974W        W 3838  15.362   3.893  11.844  0.1081 -0.2186 -0.0893
 2975W        W 3839   1.079   8.935   8.415 -0.0012 -0.3350 -0.1559
 2976W        W 3840  11.971  19.847   9.640  0.2474  0.1912  0.1940
 2977W        W 3841   2.007   4.269  10.435  0.0331 -0.1302  0.0436
 2978W        W 3842  17.796  22.905  12.035 -0.0116  0.0679  0.0776
 2979W        W 3843  13.799  13.457  26.984  0.0792 -0.0325  0.1521
 2980W        W 3844  27.018  25.197  26.043  0.0053 -0.0620  0.3871
 2981W        W 3845  24.975   4.422  18.319 -0.0991 -0.1857 -0.2283
 2982W        W 3846  17.307   1.609  17.283 -0.0807  0.1292  0.0988
 2983W        W 3847   1.367   2.705   9.204  0.2331  0.1847  0.0285
 2984W        W 3848   0.797   2.563   7.965 -0.1158  0.1369  0.0765
 2985W        W 3849  23.444   6.231  17.369  0.0818  0.1483  0.1057
 2986W        W 3850  19.657   8.056   2.520  0.0396  0.0877 -0.0195
 2987W        W 3851  17.209  19.762   0.538  0.0532 -0.1245 -0.0388
 2988W        W 3852  21.409  11.607   8.766  0.2345  0.1449 -0.1430
 2989W        W 3853  19.182   7.157  19.168  0.4001 -0.1712  0.1795
 2990W        W 3854  29.072  20.994   7.889 -0.1272 -0.1223  0.1302
 2991W        W 3855  14.326  10.848   3.229 -0.0720  0.0676 -0.1815
 2992W        W 3856  10.423  22.830  11.803 -0.1832 -0.3187 -0.0194
 2993W        W 3857   1.080  20.887  10.619 -0.1204 -0.2239  0.2282
 2994W        W 3858  25.362  24.275   2.037  0.3515 -0.0002  0.4690
 2995W        W 3859  22.522   7.282   8.801  0.2131 -0.0120 -0.0835
 2996W        W 3860   8.562  25.677  12.243 -0.1423 -0.2752  0.0260
 2997W        W 3861   5.601   5.982  18.317  0.4479  0.0179 -0.3917
 2998W        W 3862  25.631   1.930  13.514  0.0231  0.2749  0.1467
 2999W        W 3863  26.250  28.737   3.409  0.1834 -0.1314  0.3195
 3000W        W 3864   6.439  25.803  10.814  0.1757 -0.2089  0.1981
 3001W        W 3865  28.627  18.773   2.500  0.1651 -0.0312  0.0964
 3002W        W 3866  15.850  17.307  15.365 -0.0600  0.2719 -0.1061
 3003W        W 3867   6.199  18.851  28.691 -0.1944  0.3716  0.4980
 3004W        W 3868  22.364   3.442  10.489 -0.0192 -0.2132 -0.0107
 3005W        W 3869   3.100  16.987  14.573 -0.0227  0.1724 -0.1588
 3006W        W 3870  20.176   0.295  27.760 -0.0016  0.2392 -0.0578
 3007W        W 3871  27.341  18.868  10.457  0.0961 -0.0709 -0.0349
 3008W        W 3872   7.615  27.800  13.600  0.4904  0.1923  0.3552
 3009W        W 3873  10.437  23.737  14.778  0.0455 -0.2654 -0.0533
 3010W        W 3874  12.778  25.451   6.455 -0.0907 -0.3369  0.1472
 3011W        W 3875   2.840   0.998   0.460 -0.1382 -0.3650  0.0178
 3012W        W 3876  28.263   2.821   1.062 -0.0412  0.3890  0.0976
 3013W        W 3877   9.368   2.769   1.225  0.2837  0.0393 -0.3076
 3014W        W 3878   5.187  22.675   2.809 -0.1379  0.0287 -0.1694
 3015W        W 3879  29.049  24.262  11.967 -0.0498 -0.2654 -0.1158
 3016W        W 3880   8.426  19.866  15.155  0.0984  0.2084 -0.3510
 3017W        W 3881  28.245   9.641  23.525  0.1956  0.4218  0.0300
 3018W        W 3882   7.091  25.508  16.661  0.2622 -0.2721  0.1742
 3019W        W 3883  24.531  16.615  22.227 -0.0226  0.1056 -0.1872
 3020W        W 3884  21.846   8.413  17.567 -0.0372  0.2180  0.0649
 3021W        W 3885   3.552  15.726  19.612  0.0207 -0.2165 -0.1822
 3022W        W 3886  20.868  20.237   0.930 -0.0150 -0.1054  0.1707
 3023W        W 3887  17.415  26.953   8.323  0.0032 -0.1467  0.2423
 3024W        W 3888  26.839  27.799  13.160  0.2280 -0.1508 -0.0187
 3025W        W 3889   1.812  28.646   8.765 -0.2570 -0.2364 -0.0324
 3026W        W 3890   2.389  22.545   1.537  0.0648 -0.0283 -0.1493
 3027W        W 3891  27.376   2.436  20.637  0.0358 -0.0752  0.1647
 3028W        W 3892  24.784  24.475   7.995 -0.1495  0.0176  0.2169
 3029W        W 3893  23.543   9.882  15.171 -0.2467  0.0688  0.0151
 3030W        W 3894  24.225   1.038  26.794 -0.0995  0.1240 -0.2041
 3031W        W 3895  11.641  13.739   7.648 -0.1672  0.2707  0.1771
 3032W        W 3896  22.518  27.922  23.723  0.3082 -0.1345  0.1294
 3033W        W 3897  16.819  21.482  10.003  0.0532 -0.0278  0.1766
 3034W        W 3898   1.388   0.535  12.188  0.4126 -0.0150 -0.0014
 3035W        W 3899   6.064  26.443  18.455  0.0167  0.0019 -0.1419
 3036W        W 3900  24.542   8.989   0.156  0.0982  0.0743 -0.0182
 3037W        W 3901  15.823  18.365   2.028 -0.1665  0.0717  0.2387
 3038W        W 3902  24.873   0.512  14.685 -0.1336 -0.0766  0.0408
 3039W        W 3903  12.549   5.081  19.423 -0.0260 -0.0316 -0.2030
 3040W        W 3904  26.197  20.645  15.955 -0.0676  0.2514 -0.1821
 3041W        W 3905   2.251  15.447   4.201  0.4110 -0.1067  0.1920
 3042W        W 3906   5.847  15.795  20.411  0.0331  0.3055  0.0033
 3043W        W 3907  19.857  12.304  16.382 -0.1815 -0.1551 -0.1201
 3044W        W 3908  27.280  19.663  19.898  0.0592 -0.1472  0.0704
 3045W        W 3909  27.406   7.656  21.001  0.1661  0.0771 -0.1268
 3046W        W 3910  11.695  27.476   6.464  0.3146 -0.1482 -0.2220
 3047W        W 3911   6.405  23.141   7.253 -0.0693  0.0562  0.2703
 3048W        W 3912   6.273   0.930  13.633 -0.0181 -0.0210 -0.1967
 3049W        W 3913  23.823  23.628   3.109 -0.1024 -0.0386  0.3008
 3050W        W 3914  14.569   3.091  20.349  0.0222  0.2193  0.0650
 3051W        W 3915  28.353  26.778   6.223 -0.2567  0.0443  0.1232
 3052W        W 3916   6.967  18.469  20.563 -0.0602  0.2166  0.1930
 3053W        W 3917  28.838   3.744   5.724 -0.0314  0.2185  0.0698
 3054W        W 3918  26.073  16.331  25.137 -0.1195 -0.2150 -0.0344
 3055W        W 3919  26.124   7.224  24.841  0.1859  0.5078  0.1272
 3056W        W 3920  28.227   2.699  14.288  0.0170 -0.2433 -0.1796
 3057W        W 3921  27.409   2.772  16.988 -0.1327  0.2359  0.0740
 3058W        W 3922   9.415  21.677   7.002 -0.1385  0.2815 -0.0763
 3059W        W 3923  10.040   0.274  11.735 -0.0067  0.0323  0.0042
 3060W        W 3924   2.647   7.095  15.606  0.1872  0.1421  0.0330
 3061W        W 3925  23.351   4.352   2.396  0.0375  0.1962 -0.1421
 3062W        W 3926  16.665   0.914  26.588 -0.1821 -0.1389 -0.1723
 3063W        W 3927  22.005   8.649  28.427 -0.1685  0.0078  0.1836
 3064W        W 3928  15.823  27.719  23.543 -0.0578 -0.1535  0.1492
 3065W        W 3929   2.576  23.257  11.055  0.1683  0.2919 -0.0889
 3066W        W 3930   1.983   0.594  12.061 -0.2280 -0.2747  0.2282
 3067W        W 3931  23.278  12.859   9.954  0.0477  0.3009 -0.1905
 3068W        W 3932  20.325  11.339  11.596  0.0408  0.2349 -0.3857
 3069W        W 3933  13.259  14.015   2.244 -0.0304 -0.1169 -0.1718
 3070W        W 3934   2.178  18.296  17.139 -0.1498  0.0649  0.2166
 3071W        W 3935  24.191  28.311  17.838 -0.1335 -0.0581 -0.1764
 3072W        W 3936  27.502   7.886  27.889  0.1842  0.0419 -0.1301
 3073W        W 3937  20.506   2.065  21.131  0.2974 -0.2844 -0.3582
 3074W        W 3938  26.745  21.696  11.105 -0.0345  0.0288  0.1033
 3075W        W 3939   3.440  20.018  11.524 -0.1854  0.0661 -0.0661
 3076W        W 3940  22.814   9.434  10.183  0.1194  0.0045 -0.1365
 3077W        W 3941   3.974  27.429  22.750 -0.1458 -0.0682 -0.0193
 3078W        W 3942   2.382  15.545   2.589  0.2236 -0.3388 -0.2711
 3079W        W 3943  11.272  28.935  24.402 -0.1802 -0.2680  0.2576
 3080W        W 3944  19.611  21.202   3.316  0.4241  0.2648 -0.2150
 3081W        W 3945  20.937  14.859  10.779  0.0634  0.4005 -0.1403
 3082W        W 3946  14.930  26.423   8.325 -0.0518  0.1891 -0.4147
 3083W        W 3947  28.043   4.812  12.023 -0.1681  0.1274  0.0595
 3084W        W 3948  22.563  24.483  19.203  0.1656  0.0291 -0.0771
 3085W        W 3949   2.512  18.619   0.052 -0.1035  0.0557  0.2139
 3086W        W 3950  24.254  19.036   6.582  0.2635 -0.1248  0.1874
 3087W        W 3951   5.458   5.252  11.085 -0.0222  0.1871  0.1155
 3088W        W 3952   5.103   1.336  15.029 -0.1637  0.2956 -0.5781
 3089W        W 3953  28.090   0.758   9.654 -0.0522  0.0511 -0.4662
 3090W        W 3954  10.842  13.215  13.768  0.1273 -0.1520  0.2072
 3091W        W 3955   2.197   5.590  17.844 -0.3264 -0.1436  0.0545
 3092W        W 3956   7.113  16.909   9.816 -0.1085 -0.2098 -0.0705
 3093W        W 3957  22.239   2.747  25.850 -0.1258  0.0046  0.0744
 3094W        W 3958  23.164  22.652   8.919 -0.3274  0.5011 -0.0252
 3095W        W 3959   2.405  11.969  15.003  0.1758  0.3087 -0.1286
 3096W        W 3960  16.516  20.439  28.347  0.0978 -0.0715  0.1373
 3097W        W 3961  28.044   5.766  13.915  0.2511  0.0730 -0.1611
 3098W        W 3962   6.965  18.459   2.184 -0.1399  0.1812 -0.0901
 3099W        W 3963  17.668  17.732  15.450 -0.2061  0.0400  0.0436
 3100W        W 3964  13.688   6.366  19.696  0.0705 -0.3970 -0.1683
 3101W        W 3965  16.381   7.479  20.000  0.0607  0.1075 -0.1629
 3102W        W 3966  25.042  11.640  12.348 -0.2161  0.0105  0.1770
 3103W        W 3967   3.790   1.488  27.526 -0.0236 -0.2811 -0.3845
 3104W        W 3968  24.652  28.617  19.734  0.4494 -0.0182  0.2124
 3105W        W 3969   6.758  17.997  13.481 -0.1914 -0.3240  0.1931
 3106W        W 3970  28.708  24.438  12.316  0.0990  0.0113 -0.1902
 3107W        W 3971  14.842  11.336  22.719 -0.0851 -0.2676  0.3339
 3108W        W 3972  29.108  11.582   5.351 -0.0790 -0.3905  0.0849
 3109W        W 3973  15.104   3.278  23.293  0.5200 -0.1723  0.4671
 3110W        W 3974  17.623  14.117  17.017 -0.0900 -0.2433 -0.2466
 3111W        W 3975  25.995  22.621  15.072 -0.0123  0.0258 -0.3635
 3112W        W 3976   1.918  23.170  10.590  0.0131  0.1183  0.0040
 3113W        W 3977  25.505  26.575  16.592 -0.0638 -0.0720 -0.2708
 3114W        W 3978  23.413  25.965  15.514 -0.1179 -0.0648  0.0789
 3115W        W 3979  28.269  17.267  18.636 -0.0808 -0.0795 -0.1139
 3116W        W 3980  24.255   6.493  17.094 -0.0374  0.2159  0.0967
 3117W        W 3981  14.712   8.097   4.201 -0.1773 -0.2207  0.1018
 3118W        W 3982  24.694  26.275  25.690 -0.1082  0.0350 -0.0223
 3119W        W 3983   4.857  13.899   6.709 -0.1936  0.2196 -0.1324
 3120W        W 3984   0.674  23.709  18.016 -0.1104 -0.0356  0.0192
 3121W        W 3985   6.173   0.734  14.612 -0.0765 -0.2773 -0.1138
 3122W        W 3986  22.467  16.744  13.329  0.0621 -0.0133 -0.0625
 3123W        W 3987   6.681  17.408  16.170 -0.3086 -0.0491  0.0952
 3124W        W 3988  21.987  16.856  27.637  0.0991  0.1835  0.0485
 3125W        W 3989   7.891   7.896   7.434  0.1682  0.0818 -0.1438
 3126W        W 3990   4.622  27.747  18.011  0.2151 -0.0203  0.3416
 3127W        W 3991  23.265  23.593  12.953  0.1580  0.1249  0.2526
 3128W        W 3992  27.950   7.827  19.855 -0.1889  0.3707 -0.4422
 3129W        W 3993  14.220  22.762  14.904 -0.2156  0.2163 -0.3844
 3130W        W 3994  13.246   3.798  16.991 -0.0650 -0.2752 -0.0502
 3131W        W 3995   9.070  17.699   5.409  0.0473 -0.1468  0.0395
 3132W        W 3996  24.779   9.796  25.052 -0.2437 -0.2961 -0.3763
 3133W        W 3997   8.779  25.290   4.000 -0.0893  0.0235 -0.2255
 3134W        W 3998  24.550   2.403  17.719  0.2197 -0.3314 -0.1903
 3135W        W 3999  13.329  25.385  12.003 -0.0386 -0.1184  0.4071
 3136W        W 4000  15.590  22.596  19.172  0.0924 -0.1071 -0.2008
 3137W        W 4001   0.698  25.349  15.041 -0.0030 -0.2286 -0.2864
 3138W        W 4002  16.474  27.679   8.087 -0.0934 -0.0540  0.1644
 3139W        W 4003  28.341   4.265   2.220  0.3504 -0.3096  0.2332
 3140W        W 4004  28.342  23.252   2.216  0.3238  0.2804  0.1935
 3141W        W 4005  11.387  23.349  19.319 -0.2519 -0.2710 -0.0258
 3142W        W 4006  27.252  12.006   8.665 -0.0010  0.2607  0.1519
 3143W        W 4007  13.857   2.888  14.514  0.2325  0.1187  0.3078
 3144W        W 4008   5.619  28.863  13.944  0.5968  0.1188 -0.0938
 3145W        W 4009  14.911   7.279  19.545 -0.2550 -0.1997  0.1190
 3146W        W 4010  19.261  24.792   2.115 -0.2227  0.1661 -0.0408
 3147W        W 4011  17.276  22.232   8.288  0.0347 -0.0858  0.0187
 3148W        W 4012   4.892   6.032   4.259 -0.1936 -0.0295  0.2406
 3149W        W 4013   0.777   0.764   0.733  0.0319  0.2336 -0.0378
 3150W        W 4014  20.208   8.390  11.025  0.1782 -0.0859  0.0839
 3151W        W 4015  18.634   4.075   5.418  0.0315 -0.0061  0.0748
 3152W        W 4016  27.098  27.247  18.367 -0.1017 -0.1283 -0.2631
 3153W        W 4017   9.849   4.402  27.265  0.1486  0.0317 -0.3139
 3154W        W 4018  20.836  14.256  27.892  0.0777 -0.1777  0.0162
 3155W        W 4019  10.183  12.231  14.772 -0.3675  0.0541 -0.1394
 3156W        W 4020   8.601   8.341  13.439 -0.0357 -0.0460 -0.2036
 3157W        W 4021  14.265  24.502  23.066  0.0883 -0.0130 -0.2405
 3158W        W 4022  26.792   2.328  25.326  0.2684 -0.3211 -0.2280
 3159W        W 4023  16.528   2.824   0.829  0.2260  0.3723 -0.2297
 3160W        W 4024  23.839  22.468   1.673  0.1014  0.2405  0.1374
 3161W        W 4025  13.928   0.362   9.569  0.0422  0.5234  0.1001
 3162W        W 4026   2.622   9.355  28.581 -0.1628 -0.1117  0.1212
 3163W        W 4027  22.091  17.815  10.522 -0.1094  0.2056  0.2503
 3164W        W 4028  16.353  12.814  14.740 -0.0136 -0.0519 -0.3031
 3165W        W 4029   2.845   6.367  21.971  0.1130  0.0788 -0.1431
 3166W        W 4030   2.559  17.207  16.309 -0.1027 -0.1411 -0.2962
 3167W        W 4031  26.021   0.592  22.021 -0.2317 -0.1223  0.0073
 3168W        W 4032  13.653  16.210  16.854  0.0198 -0.3452 -0.0823
 3169W        W 4033  16.437  10.732  27.597 -0.4974  0.1323 -0.1254
 3170W        W 4034  17.744  22.620   1.409  0.3060 -0.1424 -0.0077
 3171W        W 4035  27.776  11.140  18.244  0.1484 -0.2554  0.2369
 3172W        W 4036  27.068  24.540  14.121  0.1388 -0.1176 -0.1298
 3173W        W 4037  13.264  13.437   8.554 -0.1315 -0.1560 -0.1479
 3174W        W 4038   4.599   6.821  29.087  0.0422  0.1954 -0.0831
 3175W        W 4039  15.108  20.924  28.498 -0.3184 -0.0550  0.2456
 3176W        W 4040  27.438  10.173  15.354 -0.1965 -0.1259  0.1502
 3177W        W 4041  24.650  23.042  19.312 -0.0270  0.0097 -0.1506
 3178W        W 4042   8.102   0.666   5.077  0.2056  0.0512  0.2260
 3179W        W 4043  12.877  16.287  13.772 -0.2204  0.1485 -0.0606
 3180W        W 4044  14.836   1.725  19.785 -0.0705  0.2820  0.1375
 3181W        W 4045   8.744  26.744   6.710 -0.0797  0.1371  0.3193
 3182W        W 4046  23.883  24.473   0.596  0.2047  0.1535  0.0984
 3183W        W 4047   2.290   1.098  14.897  0.2480 -0.0416  0.0012
 3184W        W 4048  28.805  24.535  15.459 -0.1902 -0.0237 -0.0685
 3185W        W 4049   6.670   6.519  13.054  0.0548 -0.1773 -0.1056
 3186W        W 4050  25.245   7.224  17.153 -0.1471  0.0159 -0.0216
 3187W        W 4051   1.748  11.883   1.830 -0.3368  0.0780  0.2027
 3188W        W 4052  17.431   1.732  17.812  0.0835  0.0061 -0.1295
 3189W        W 4053  19.998   5.748   0.055 -0.1423  0.1555  0.1252
 3190W        W 4054  20.400  27.722  14.507  0.1303 -0.1237 -0.1601
 3191W        W 4055   8.246  13.603  21.024 -0.0000  0.1857 -0.1114
 3192W        W 4056   2.019  14.033  20.161 -0.3009  0.2282 -0.2104
 3193W        W 4057  21.746  13.627  24.718  0.0141 -0.1242 -0.1564
 3194W        W 4058  18.829  11.121  21.043  0.1769  0.2094  0.1032
 3195W        W 4059  23.531  25.278  17.777  0.1410  0.2638 -0.1807
 3196W        W 4060   3.522  26.347  21.271 -0.1985  0.3283 -0.2216
 3197W        W 4061   9.562  23.862  17.431 -0.2536  0.2915  0.1486
 3198W        W 4062   8.260  16.678  17.747  0.0211  0.0343  0.1886
 3199W        W 4063   3.474   9.921  26.981  0.0568 -0.3451 -0.2480
 3200W        W 4064  23.904   8.871   4.913  0.0986  0.1256 -0.1192
 3201W        W 4065   6.404  11.238  28.545  0.3356  0.2382 -0.1007
 3202W        W 4066   1.622  12.876  20.885  0.1016 -0.2204  0.1464
 3203W        W 4067  28.254  21.790  11.820  0.0909  0.0069 -0.0399
 3204W        W 4068   4.691  27.102  21.699 -0.1265  0.0630 -0.1090
 3205W        W 4069   9.547  11.066  14.491  0.1923 -0.0405 -0.0346
 3206W        W 4070  17.966   2.514   8.360 -0.1137 -0.0422  0.1488
 3207W        W 4071  10.443  24.193  25.368 -0.0042  0.2468 -0.2039
 3208W        W 4072  13.259   0.494  23.400 -0.2168  0.1465  0.0140
 3209W        W 4073   5.969  12.625  14.164  0.0740  0.2455  0.1119
 3210W        W 4074  16.824  25.071   3.935  0.2495 -0.1369  0.1238
 3211W        W 4075   9.472  15.141  13.071 -0.2391  0.0983  0.1968
 3212W        W 4076   8.151  25.324  27.751 -0.0368  0.1041 -0.0032
 3213W        W 4077   2.821  28.263  19.994  0.0766 -0.0086 -0.0127
 3214W        W 4078  15.075  24.611  15.227  0.0090 -0.1909 -0.0931
 3215W        W 4079   9.114  21.978  15.669 -0.0199 -0.0369 -0.0787
 3216W        W 4080   1.919  10.580  14.568 -0.3319  0.0408  0.0048
 3217W        W 4081  10.729  19.847   4.775 -0.2317  0.1885  0.0223
 3218W        W 4082  25.039  23.868   5.602  0.0103  0.1877 -0.2370
 3219W        W 4083   1.630  27.301  18.793 -0.2068 -0.4524  0.1161
 3220W        W 4084  20.978  13.146   6.920  0.0203 -0.3055  0.0547
 3221W        W 4085   2.495   8.396  26.954  0.4576  0.0808 -0.2568
 3222W        W 4086  26.083   6.889  21.149  0.0640  0.1457 -0.1505
 3223W        W 4087  21.394  19.489   6.511 -0.1838  0.0467  0.2106
 3224W        W 4088  20.558   8.240   2.097  0.2278  0.0640 -0.0268
 3225W        W 4089  21.839  17.139  14.094 -0.0103 -0.0449 -0.2410
 3226W        W 4090   9.751  15.065   7.188 -0.0763  0.1798  0.1053
 3227W        W 4091  26.259  23.309   0.656 -0.0783  0.2356  0.1479
 3228W        W 4092  16.200   0.860   0.757  0.1978  0.0235 -0.0890
 3229W        W 4093  22.151  20.182   6.569  0.3008  0.0175  0.1802
 3230W        W 4094   9.180   1.254  12.332 -0.3907 -0.1161  0.1720
 3231W        W 4095   4.819  16.490  27.995 -0.0637 -0.0830  0.1043
 3232W        W 4096  20.151  14.570  27.823 -0.1270  0.1017  0.0242
 3233W        W 4097  23.770  11.943   3.159  0.1330  0.0615 -0.0709
 3234W        W 4098   0.893   6.734   5.292  0.2237 -0.0613  0.1137
 3235W        W 4099  21.277   7.007  21.492  0.0159 -0.0113  0.0367
 3236W        W 4100  27.636   7.164  23.038  0.3878 -0.0739  0.1424
 3237W        W 4101  20.834  24.567  24.102  0.0919  0.0539 -0.3361
 3238W        W 4102  11.642   1.671   7.484 -0.0956  0.3045 -0.4124
 3239W        W 4103  24.771   2.816  14.917  0.2147  0.1037 -0.1750
 3240W        W 4104   9.348  20.884   5.690  0.3259  0.0881  0.3523
 3241W        W 4105   3.052   6.600   9.993 -0.0421 -0.0195 -0.0348
 3242W        W 4106  14.497   9.829   4.768 -0.0079 -0.1611 -0.0033
 3243W        W 4107   0.828  23.039  23.825  0.1027 -0.3186 -0.4083
 3244W        W 4108   1.284   7.989  19.774  0.0414  0.1897 -0.1129
 3245W        W 4109   5.139  18.613  23.989  0.1094  0.0861  0.0761
 3246W        W 4110  28.115  18.768  19.136  0.0083  0.0499  0.0817
 3247W        W 4111  14.545   2.772  26.008  0.0055  0.0748 -0.0426
 3248W        W 4112   0.460  24.618  17.797  0.1866 -0.0925  0.0900
 3249W        W 4113  24.924  23.438  16.929 -0.1085 -0.0887  0.4077
 3250W        W 4114   1.536  23.141  14.870 -0.2273  0.0631  0.1693
 3251W        W 4115  23.464  24.865  26.078  0.0022  0.0220  0.2508
 3252W        W 4116   1.393  13.127   7.693 -0.2043 -0.0162 -0.0401
 3253W        W 4117  15.923  24.959   3.009  0.0791 -0.0527  0.0449
 3254W        W 4118   7.821  11.884  12.381 -0.0570 -0.0309  0.0563
 3255W        W 4119  23.732   0.855   5.593  0.3313 -0.2000 -0.0485
 3256W        W 4120  27.972   0.249  15.363  0.3543 -0.3032  0.1566
 3257W        W 4121  12.216   2.716  23.238 -0.2465  0.1493  0.2415
 3258W        W 4122  26.296  17.084  26.282  0.0858  0.4426 -0.0603
 3259W        W 4123  25.618  14.345  12.577  0.5127 -0.4160  0.0929
 3260W        W 4124  15.011  25.726  11.800 -0.0856 -0.0913  0.1070
 3261W        W 4125   4.866  13.714   8.745 -0.2753  0.0113 -0.0908
 3262W        W 4126  18.174  17.807   9.964  0.0762  0.0098 -0.2345
 3263W        W 4127   0.693  19.889  11.641 -0.0279 -0.1543  0.2392
 3264W        W 4128  10.430  14.977  13.176 -0.3988 -0.1288 -0.3394
 3265W        W 4129  27.003  22.432   8.226  0.0201  0.0390  0.3600
 3266W        W 4130  24.373  10.078   7.231  0.0345  0.2368 -0.2830
 3267W        W 4131  14.520   1.370  20.005  0.2840 -0.0243 -0.1280
 3268W        W 4132   5.821  28.285  17.861  0.0258  0.0606 -0.1840
 3269W        W 4133  26.954   3.590  10.625  0.1057 -0.0460  0.0419
 3270W        W 4134   7.122  28.967  22.813  0.1485  0.0071 -0.3791
 3271W        W 4135  20.727  16.505  14.093 -0.0486  0.1130 -0.1108
 3272W        W 4136   0.505   7.690   5.255  0.3071 -0.3104 -0.0701
 3273W        W 4137   9.317   5.413  22.075  0.2481  0.0126  0.0520
 3274W        W 4138  27.099  24.500   7.251  0.1592 -0.2494  0.3675
 3275W        W 4139  20.750  14.181   9.668 -0.1538 -0.0689 -0.1584
 3276W        W 4140  18.702   6.023  15.937  0.1705  0.1489 -0.1646
 3277W        W 4141  24.819  19.336  21.020  0.0283  0.1022  0.1318
 3278W        W 4142  22.775   6.224  22.097  0.0843 -0.2370 -0.0308
 3279W        W 4143  24.616  11.266   6.366  0.0079 -0.5675  0.1378
 3280W        W 4144  27.032   6.856   2.620  0.1162 -0.0223 -0.0118
 3281W        W 4145  23.902  19.200  14.022  0.0152 -0.1128 -0.1103
 3282W        W 4146  10.471   0.835  14.088 -0.2611 -0.0302  0.0661
 3283W        W 4147  24.614  10.448  20.425 -0.3509  0.2334 -0.2249
 3284W        W 4148   0.399   3.281  23.047 -0.0731 -0.1851 -0.5863
 3285W        W 4149   2.338   5.963  17.564 -0.0616 -0.1632  0.0358
 3286W        W 4150   2.229  17.555   5.352  0.1211  0.0072  0.1150
 3287W        W 4151  17.773  15.052  18.060  0.2719 -0.1144  0.0207
 3288W        W 4152   6.967  19.847  14.193  0.0256  0.0425 -0.0240
 3289W        W 4153  27.494   2.793  19.904 -0.2224  0.1506  0.1560
 3290W        W 4154  24.918  22.732  28.871  0.0714 -0.1147 -0.1976
 3291W        W 4155  22.292  20.476  26.838  0.1373 -0.0227 -0.0466
 3292W        W 4156   8.431  13.087  16.640  0.1510 -0.0269  0.1149
 3293W        W 4157  11.842   0.073  23.067 -0.0376 -0.4902 -0.6689
 3294W        W 4158  23.509  15.628  22.751  0.3812 -0.3309 -0.2676
 3295W        W 4159   1.599  16.005   9.596 -0.0247  0.1897 -0.1299
 3296W        W 4160  19.254  15.092   7.293  0.0854 -0.0242 -0.0940
 3297W        W 4161   0.620  24.100   2.992  0.0168  0.2662 -0.0406
 3298W        W 4162  13.612   3.277  22.127  0.0612  0.2784 -0.0492
 3299W        W 4163   9.072   6.067  20.636 -0.1214 -0.1155  0.0435
 3300W        W 4164  24.146  26.600  23.388  0.1950  0.3220 -0.1790
 3301W        W 4165   2.756  27.331   2.514  0.1643  0.0996  0.0644
 3302W        W 4166  27.997  12.163  15.091 -0.1217 -0.0207 -0.1397
 3303W        W 4167  15.912   1.993  17.277 -0.0918 -0.1082 -0.2497
 3304W        W 4168  14.091  17.193  24.190  0.1626 -0.0674 -0.0093
 3305W        W 4169  16.829  26.602   0.755 -0.4318  0.4427 -0.1356
 3306W        W 4170  15.749  18.423  18.159 -0.1992  0.0763 -0.1258
 3307W        W 4171  27.961  16.905   5.822 -0.0926 -0.1513  0.0444
 3308W        W 4172  26.835  19.766  10.159 -0.2445  0.0710  0.1240
 3309W        W 4173  29.011  12.489  12.407 -0.0385  0.0407 -0.0459
 3310W        W 4174  20.302   0.808  13.792 -0.2453  0.1698  0.1907
 3311W        W 4175   3.848  17.342   0.430  0.4851 -0.0822  0.1189
 3312W        W 4176  18.554  19.577  28.035 -0.1900  0.1486 -0.1306
 3313W        W 4177  22.245   4.762   5.111 -0.0780  0.0279 -0.3826
 3314W        W 4178  24.279  14.481  25.215 -0.2563 -0.3688 -0.1519
 3315W        W 4179  24.061  13.118  22.978  0.2516  0.1915  0.0704
 3316W        W 4180  23.826  26.069   3.055  0.0271 -0.1690 -0.2045
 3317W        W 4181  25.750   0.952  18.841 -0.0533 -0.0034 -0.0622
 3318W        W 4182  16.936   7.293  27.622 -0.1697 -0.0469  0.4325
 3319W        W 4183  26.083  12.541  23.391  0.1089 -0.1209  0.1371
 3320W        W 4184  17.003   8.871   8.492  0.3511  0.2628 -0.0873
 3321W        W 4185  28.066   3.558  15.931  0.0477 -0.4000 -0.2294
 3322W        W 4186  24.690  13.324  22.718  0.0310 -0.2046  0.2500
 3323W        W 4187   0.996  26.585   5.527  0.0506 -0.2804  0.4263
 3324W        W 4188   2.667   0.605  19.617 -0.2785  0.0238  0.0952
 3325W        W 4189   2.594   7.655  21.738 -0.1611 -0.0450 -0.0428
 3326W        W 4190  24.463  24.853  24.537 -0.1935  0.2190 -0.0579
 3327W        W 4191  28.401   4.514   5.523  0.2144 -0.1607 -0.2775
 3328W        W 4192  27.648   5.736  23.923  0.1503  0.4459  0.0036
 3329W        W 4193  27.095  20.402  22.532 -0.1335 -0.0647 -0.0144
 3330W        W 4194   3.544  14.482  19.299  0.0013 -0.2031 -0.0437
 3331W        W 4195  23.506   9.696  18.574  0.4134  0.2599 -0.4433
 3332W        W 4196  13.274   0.683  16.718 -0.3626 -0.0392  0.4937
 3333W        W 4197  13.295  20.496   3.159 -0.2368  0.0045 -0.0760
 3334W        W 4198  28.762  26.683   8.085 -0.0327  0.1919  0.0485
 3335W        W 4199  25.494   9.279  17.729 -0.2014 -0.0799 -0.0753
 3336W        W 4200  12.751   9.615  17.880 -0.0123  0.1156 -0.3884
 3337W        W 4201  17.928   5.583  22.385 -0.1009 -0.1153 -0.0431
 3338W        W 4202   1.741  28.405  12.599 -0.0995 -0.1777  0.2431
 3339W        W 4203  23.177  23.499  10.041  0.0052 -0.1679  0.0672
 3340W        W 4204  26.306  15.915   3.616 -0.1926 -0.2587  0.0997
 3341W        W 4205  24.602  25.586   5.060  0.0427 -0.2587 -0.1337
 3342W        W 4206   2.943  17.623  23.883  0.1631  0.3413 -0.1523
 3343W        W 4207  27.306   2.202   9.364  0.1362  0.0983  0.0453
 3344W        W 4208  20.557  19.744  24.880 -0.0839  0.1857  0.2020
 3345W        W 4209  23.431  13.528  11.862 -0.0756 -0.3018  0.1412
 3346W        W 4210   0.384  19.342  21.978  0.1467 -0.1337 -0.1562
 3347W        W 4211  26.829  19.029  14.401 -0.0467  0.1497 -0.0259
 3348W        W 4212   0.969   7.468   9.532  0.2626 -0.3306  0.1256
 3349W        W 4213  26.481  27.376  11.162 -0.0040  0.0132 -0.1632
 3350W        W 4214  22.536   8.778   4.036 -0.0747 -0.0526 -0.4460
 3351W        W 4215  24.814   8.651   7.679 -0.0766  0.0740  0.0973
 3352W        W 4216  20.583   6.077  21.838  0.3758  0.1059 -0.1430
 3353W        W 4217   7.170  24.487  12.907 -0.0892 -0.0212  0.2821
 3354W        W 4218  27.420  12.269  12.950 -0.0211  0.1827 -0.1194
 3355W        W 4219  26.293   6.395  11.057 -0.3235  0.1766  0.3550
 3356W        W 4220  11.755  25.689  26.715 -0.3836 -0.1255 -0.1948
 3357W        W 4221  27.098   2.664  18.417 -0.1704  0.2480 -0.2132
 3358W        W 4222   5.716   9.053  27.874 -0.0404  0.0370 -0.1140
 3359W        W 4223  28.171  16.066  16.678  0.2125 -0.0043  0.0552
 3360W        W 4224   2.742  25.463   8.031  0.0321 -0.0588  0.1233
 3361W        W 4225  22.600   7.783  23.482  0.1502 -0.1442 -0.0631
 3362W        W 4226  14.424  11.068   7.167 -0.0351  0.1768 -0.0385
 3363W        W 4227  23.884  17.561  10.777 -0.2546  0.0323  0.3642
 3364W        W 4228   6.170  17.058  18.079  0.0107  0.0607  0.1871
 3365W        W 4229   0.479   4.870   4.910  0.0265 -0.1896  0.1100
 3366W        W 4230  26.077  11.677   2.954 -0.1324 -0.1154  0.0101
 3367W        W 4231  18.983  27.151  17.131 -0.0503  0.1416  0.0534
 3368W        W 4232  21.812   1.508   0.833 -0.1559  0.0616 -0.3271
 3369W        W 4233   9.800  21.673   5.612  0.1033 -0.0870  0.0843
 3370W        W 4234  12.830  25.036   9.856 -0.1192  0.1414 -0.2420
 3371W        W 4235  20.300   3.268  23.541  0.2169 -0.1822  0.0715
 3372W        W 4236  20.633  21.283  21.251  0.0510  0.1280  0.0925
 3373W        W 4237  10.032  28.648  11.133  0.1947  0.1447  0.3947
 3374W        W 4238  18.742  14.613  22.217  0.2973 -0.0400 -0.0443
 3375W        W 4239   9.729  17.473  26.445 -0.2386  0.0853  0.1662
 3376W        W 4240   5.668  15.133  14.105  0.1193 -0.0828  0.1639
 3377W        W 4241   0.781  27.079  15.272  0.0681  0.1168  0.0860
 3378W        W 4242   0.613  14.365  11.099 -0.0409  0.0898 -0.1647
 3379W        W 4243  16.199  19.299  13.804 -0.0728  0.0689 -0.0307
 3380W        W 4244  21.735   6.624   9.888  0.0595  0.0622 -0.1507
 3381W        W 4245   2.156  21.583  18.593 -0.0577  0.0606  0.1414
 3382W        W 4246   1.180  26.398   2.016 -0.3535 -0.1318  0.2301
 3383W        W 4247  27.391  27.119  24.365  0.0594  0.2115 -0.1796
 3384W        W 4248  16.096  12.034  12.485  0.2759  0.0302  0.2762
 3385W        W 4249   5.823  10.216  15.666 -0.0760  0.1819 -0.0679
 3386W        W 4250  21.529  17.678   9.149  0.1881  0.1904 -0.0710
 3387W        W 4251   5.132  18.116  20.115 -0.1426  0.1494 -0.3368
 3388W        W 4252  28.780  24.085  11.066 -0.2078 -0.0765  0.0182
 3389W        W 4253   3.342   8.548   8.705  0.1300 -0.2041  0.3884
 3390W        W 4254  26.564  15.959  26.320 -0.1188  0.2274 -0.0279
 3391W        W 4255   8.266  25.335  15.228  0.1230  0.1584 -0.0693
 3392W        W 4256   9.327  15.414  14.726 -0.2522  0.1020  0.1966
 3393W        W 4257  13.417  20.625  14.397  0.1182 -0.0404  0.0077
 3394W        W 4258  21.089   6.289   4.902  0.0527  0.0679  0.0991
 3395W        W 4259  17.164   8.928  17.348 -0.0065  0.2526 -0.0503
 3396W        W 4260   0.092  14.872  28.639 -0.0105  0.1532  0.1065
 3397W        W 4261  21.437  13.481  21.067 -0.0940 -0.1541  0.1294
 3398W        W 4262  22.983   6.555  27.535  0.1361  0.3113  0.0847
 3399W        W 4263   2.127   3.421  13.969  0.0432 -0.0295  0.1134
 3400W        W 4264  17.777  11.197  24.310  0.0156 -0.2182  0.2852
 3401W        W 4265  14.791  17.141  23.314  0.0942 -0.3474 -0.0701
 3402W        W 4266   2.881  27.322  22.943 -0.1496  0.0307 -0.0019
 3403W        W 4267   3.447  19.641  16.968 -0.1705 -0.1801  0.1339
 3404W        W 4268   1.914  27.752  20.034  0.0592 -0.0448  0.2202
 3405W        W 4269  16.273   0.334   9.433 -0.0383  0.1681 -0.2765
 3406W        W 4270   5.018  17.058  18.636  0.2385  0.0172  0.0384
 3407W        W 4271  28.003   6.905   8.000 -0.1467 -0.0184 -0.0123
 3408W        W 4272  22.118  16.704  16.025  0.2175  0.2993 -0.2027
 3409W        W 4273  23.337  13.897   9.997  0.0742 -0.0266 -0.3335
 3410W        W 4274   6.742  20.522   1.881  0.0563 -0.1026  0.0906
 3411W        W 4275  25.933  25.340   3.283  0.2023 -0.1615  0.0045
 3412W        W 4276  28.618  21.192  22.045 -0.2182 -0.0350  0.1537
 3413W        W 4277  26.805  12.024   2.994  0.0243 -0.3045  0.1103
 3414W        W 4278  28.394  15.056   3.563 -0.0073  0.1506 -0.0456
 3415W        W 4279  27.253  27.625   0.476 -0.1429 -0.0027 -0.0177
 3416W        W 4280  10.888  23.544  16.322  0.1302  0.1815 -0.2888
 3417W        W 4281  25.832   5.439  13.765  0.4518  0.1295  0.2550
 3418W        W 4282  25.197   1.740  13.479  0.1756  0.0250 -0.0963
 3419W        W 4283  22.708   6.040  18.154  0.1102 -0.1758 -0.3444
 3420W        W 4284  16.376  15.209  23.552 -0.2900  0.0603 -0.0517
 3421W        W 4285  19.768  26.658  26.800  0.0158 -0.2250 -0.1569
 3422W        W 4286  20.577   7.971  18.073 -0.0999  0.0649 -0.0352
 3423W        W 4287  23.487   1.491  18.122 -0.0053 -0.1452  0.1321
 3424W        W 4288   1.911  16.612  10.007 -0.1471 -0.0549 -0.1738
 3425W        W 4289   6.711  17.979   7.155  0.3458  0.1916 -0.1570
 3426W        W 4290  24.413  24.870   6.345  0.0990 -0.2685 -0.4589
 3427W        W 4291   6.207   7.070  16.026  0.2679 -0.0233  0.4456
 3428W        W 4292   4.016  27.965  26.484 -0.1918 -0.1065  0.0681
 3429W        W 4293  27.670  28.996  25.053 -0.2001  0.0632 -0.1154
 3430W        W 4294   1.691   5.612   3.167 -0.3646 -0.1364 -0.2008
 3431W        W 4295   0.260   1.059  20.767 -0.0514 -0.0015 -0.0537
 3432W        W 4296  17.612  26.629  19.778 -0.0413  0.1180 -0.3379
 3433W        W 4297  24.542   8.275  24.720  0.2065  0.0806  0.1351
 3434W        W 4298  11.383   7.764  18.733 -0.2260  0.1594  0.2618
 3435W        W 4299  13.877  22.051   0.937 -0.0743  0.2014 -0.0656
 3436W        W 4300  27.497   6.026  24.506  0.0502  0.0095  0.2502
 3437W        W 4301  22.882   8.685   2.868 -0.1201  0.1139 -0.2468
 3438W        W 4302  21.716  14.795  24.316 -0.1351 -0.0489 -0.0222
 3439W        W 4303   5.078  20.463  26.832  0.0135 -0.0033 -0.1694
 3440W        W 4304   6.075  27.815  14.186 -0.0604  0.0736  0.0770
 3441W        W 4305  11.753   9.880  16.813  0.1553 -0.0827 -0.0756
 3442W        W 4306   3.224  13.166   2.665 -0.0387 -0.1211 -0.2729
 3443W        W 4307  22.525  16.433   9.929 -0.3346 -0.1294  0.0678
 3444W        W 4308  12.781  23.917   6.729  0.0574 -0.1957 -0.1296
 3445W        W 4309   5.236  18.527  18.076 -0.1652  0.3352  0.3602
 3446W        W 4310  26.734  23.412  15.690  0.1106 -0.1254 -0.3085
 3447W        W 4311  12.057   5.815   0.349  0.0443  0.2441 -0.1521
 3448W        W 4312  15.291  14.234  18.357 -0.0898 -0.0028 -0.1981
 3449W        W 4313   0.435  16.047  26.193  0.1064  0.2166  0.2107
 3450W        W 4314  10.744  24.070  12.172 -0.0302 -0.1206  0.0025
 3451W        W 4315  24.089  17.930  13.174 -0.1070 -0.1287  0.0447
 3452W        W 4316   4.155  10.696   9.118 -0.2199 -0.2576 -0.0926
 3453W        W 4317  16.586  10.017   7.920 -0.0776 -0.1317 -0.2731
 3454W        W 4318   0.967  28.605  12.830  0.0017 -0.5780  0.2015
 3455W        W 4319  18.988  22.912  28.533 -0.3089  0.0589 -0.0239
 3456W        W 4320  13.478  17.102   8.788  0.0438 -0.2713 -0.3569
 3457W        W 4321   3.550  28.750  21.037  0.0577  0.0316 -0.3364
 3458W        W 4322  21.072  22.478  16.127  0.0643 -0.0915 -0.0861
 3459W        W 4323   8.842   6.197  14.543 -0.1299  0.2118 -0.0898
 3460W        W 4324   8.028  13.789  25.351  0.3857  0.1235  0.1063
 3461W        W 4325   7.333  15.580  22.631  0.2543  0.4068 -0.4834
 3462W        W 4326   9.871  10.895  21.946 -0.0060  0.1577  0.0627
 3463W        W 4327  24.247   3.852  18.130  0.1010 -0.0479  0.0545
 3464W        W 4328   4.908  27.590   6.037 -0.1890  0.2209  0.3592
 3465W        W 4329   3.862  18.052   6.455 -0.1994  0.1817 -0.0131
 3466W        W 4330  11.448  17.927  24.201 -0.0446 -0.1430 -0.1206
 3467W        W 4331  21.202  20.927   1.903 -0.1030  0.0384  0.2524
 3468W        W 4332  16.559  24.784  20.470  0.0654  0.1614  0.0571
 3469W        W 4333  24.000  10.635  15.524  0.1067  0.1350 -0.4385
 3470W        W 4334  15.340   1.429  19.558 -0.0408  0.0106  0.0646
 3471W        W 4335  11.666  28.985   6.669  0.1928  0.2174  0.1218
 3472W        W 4336   6.734   2.081  21.574  0.0483 -0.1117 -0.0973
 3473W        W 4337  26.989   9.324  28.448 -0.0104  0.0998  0.4577
 3474W        W 4338  12.265  18.911  26.290 -0.2071 -0.0883 -0.0869
 3475W        W 4339  24.170  13.501  18.041 -0.0527 -0.0332  0.1339
 3476W        W 4340  21.099  10.578  15.555  0.1551  0.0578  0.1088
 3477W        W 4341  27.565  28.236  18.291 -0.1246  0.0961  0.2576
 3478W        W 4342  19.215  21.011  11.478 -0.4449 -0.0901  0.1768
 3479W        W 4343  25.942  13.858   5.788 -0.2828 -0.1291  0.1011
 3480W        W 4344  16.887   2.939  20.282  0.1633  0.0892 -0.1012
 3481W        W 4345  19.676  13.883   7.033 -0.0432  0.2985  0.0486
 3482W        W 4346   4.333  25.482  13.445  0.0372 -0.0960 -0.1976
 3483W        W 4347   1.352  11.759  25.165 -0.1655 -0.1152  0.2385
 3484W        W 4348  20.545   8.041  27.659  0.3166  0.1951 -0.0471
 3485W        W 4349  17.768  16.651   8.311 -0.0476 -0.1155  0.1681
 3486W        W 4350   5.301  17.703  11.994  0.1619  0.2129 -0.3093
 3487W        W 4351  18.893  12.992  12.234  0.1105 -0.0798  0.0278
 3488W        W 4352  28.467  20.485  20.697  0.3942 -0.0398  0.2102
 3489W        W 4353  22.184  27.287  10.438  0.0637 -0.1300 -0.0239
 3490W        W 4354  14.911  10.924   7.131  0.2402  0.0061  0.1199
 3491W        W 4355  20.045  27.832  12.163  0.3504  0.3487  0.1781
 3492W        W 4356   7.977  20.207  22.151 -0.0152  0.0069 -0.0862
 3493W        W 4357  28.081   0.225  18.480 -0.0173 -0.1478 -0.1242
 3494W        W 4358  25.846  23.766  22.743  0.0965  0.0633  0.2085
 3495W        W 4359  15.408   0.150  14.162 -0.0559 -0.2381  0.2127
 3496W        W 4360  22.530  27.466   0.978 -0.2580  0.1300  0.1876
 3497W        W 4361  12.037  17.515  11.393  0.0145 -0.1293 -0.0600
 3498W        W 4362  18.721   6.250   4.163  0.3366 -0.1559 -0.2942
 3499W        W 4363   4.437  17.126  13.376  0.0470 -0.0433 -0.0343
 3500W        W 4364  27.585  26.419  13.843  0.0705 -0.0316 -0.1641
 3501W        W 4365   1.537  22.807   3.134 -0.0111  0.1557 -0.0762
 3502W        W 4366   0.375   4.000  11.447 -0.0735  0.1964 -0.1130
 3503W        W 4367   6.264  24.235  16.689  0.1753  0.1800  0.3604
 3504W        W 4368  14.228  27.946  23.033 -0.1438  0.0111  0.1873
 3505W        W 4369  14.798   9.845  12.763  0.3708 -0.0140 -0.0994
 3506W        W 4370   7.631  25.362   5.240 -0.0536 -0.0206 -0.2537
 3507W        W 4371   2.211   8.213  19.268 -0.2780  0.0594 -0.0630
 3508W        W 4372  17.427  20.787  26.930  0.0034 -0.0036  0.0961
 3509W        W 4373   8.203   0.053   8.400  0.0326 -0.2496  0.1836
 3510W        W 4374  21.107  22.966   9.393 -0.3577  0.4731  0.3398
 3511W        W 4375  15.149  19.064   6.674 -0.0064 -0.0719 -0.1551
 3512W        W 4376   4.297   0.666  16.837  0.0872 -0.4055  0.0339
 3513W        W 4377   3.201  25.740  24.817  0.0134 -0.2996 -0.1741
 3514W        W 4378   8.436   3.657   9.741  0.0189 -0.1298  0.0940
 3515W        W 4379   5.069   1.796   4.265  0.0269  0.1776  0.0586
 3516W        W 4380  10.638  27.159  12.662  0.1914  0.0062  0.0144
 3517W        W 4381   7.004  25.675  17.739  0.1446 -0.0466 -0.4374
 3518W        W 4382   1.267  27.087   0.161  0.0177  0.2140 -0.1987
 3519W        W 4383   1.712  16.819  10.462 -0.2012  0.1411  0.0085
 3520W        W 4384  14.894  14.116  13.845  0.0667  0.3631 -0.4038
 3521W        W 4385   5.591  22.391  21.092  0.0051 -0.2535 -0.0132
 3522W        W 4386  14.940   9.429   8.509  0.0419 -0.2075  0.0868
 3523W        W 4387  22.642   2.322  13.778  0.2638 -0.0635 -0.1538
 3524W        W 4388  20.893  16.957   3.245  0.1559  0.2254 -0.0566
 3525W        W 4389   7.703  23.621  13.051  0.2011  0.0123  0.1222
 3526W        W 4390  28.098  24.154   7.617 -0.0766 -0.1867  0.0272
 3527W        W 4391  19.190  21.124  24.732  0.2569 -0.1130  0.0402
 3528W        W 4392  16.627   4.481  10.386 -0.0209 -0.2963 -0.2313
 3529W        W 4393   2.657   9.402  17.991 -0.0062 -0.3058 -0.1101
 3530W        W 4394  29.130  23.315  25.908 -0.0747  0.0587  0.0044
 3531W        W 4395  12.445  27.881  18.423  0.1418  0.0485 -0.0930
 3532W        W 4396   2.555  27.729  13.655 -0.1359  0.0072  0.2174
 3533W        W 4397  25.383  14.163  26.998  0.2510  0.0084  0.1843
 3534W        W 4398  29.011  23.757  24.473 -0.2438  0.1448 -0.1229
 3535W        W 4399  27.838  26.453  16.954  0.0440  0.2855 -0.1680
 3536W        W 4400  16.538   8.786  20.103  0.0430  0.2296  0.1690
 3537W        W 4401  25.384  19.732  13.928  0.0423  0.2456 -0.0437
 3538W        W 4402  23.732  11.457  16.393  0.2547  0.3648 -0.1184
 3539W        W 4403  22.959  16.882  10.656 -0.1008  0.0210  0.2943
 3540W        W 4404  10.135   9.949   5.922  0.1740  0.0429  0.0243
 3541W        W 4405  28.535  10.386   7.048 -0.1936  0.2245  0.3518
 3542W        W 4406   8.242  19.760  11.427 -0.0306 -0.0625  0.0548
 3543W        W 4407  19.802   8.307   3.694 -0.2856 -0.4495  0.2636
 3544W        W 4408  11.860  22.064  11.722  0.1557  0.1448 -0.2923
 3545W        W 4409   9.169  11.143  10.744  0.0861  0.1675 -0.3179
 3546W        W 4410   8.838  11.977  16.841 -0.0397 -0.0785 -0.0725
 3547W        W 4411  25.186   6.951  13.882  0.0499 -0.0344 -0.0101
 3548W        W 4412  15.260   3.750  21.408 -0.2357  0.0751 -0.2224
 3549W        W 4413  15.684   0.882  25.119  0.1106 -0.0334 -0.2149
 3550W        W 4414  24.754   6.945  26.704  0.1820  0.2195  0.2082
 3551W        W 4415  10.580  15.588  11.611 -0.0385  0.0339 -0.3016
 3552W        W 4416  13.609   3.523  16.278 -0.0990  0.1055  0.1610
 3553W        W 4417  20.328  10.256  10.022 -0.0277  0.0796 -0.3475
 3554W        W 4418   7.933  25.459   8.249 -0.6143  0.0922  0.0169
 3555W        W 4419  22.267  20.124  22.046  0.1090  0.0200 -0.2359
 3556W        W 4420  26.229  10.627  26.858  0.1821 -0.1644  0.1457
 3557W        W 4421  20.436   3.538   8.606  0.1850  0.0556  0.2168
 3558W        W 4422  24.309   2.334   3.613 -0.0533 -0.4232 -0.2746
 3559W        W 4423   1.989  26.823   1.206  0.2447 -0.1194  0.0140
 3560W        W 4424  23.020  27.655  27.552 -0.0913 -0.0195 -0.1228
 3561W        W 4425  20.375   7.294   5.319  0.0606 -0.1930 -0.0936
 3562W        W 4426   2.678  29.016   0.284  0.1805 -0.1039  0.1546
 3563W        W 4427   8.980  10.999   2.250 -0.2981  0.4026  0.0637
 3564W        W 4428  25.228  22.558   1.499  0.2366 -0.0812  0.2838
 3565W        W 4429  12.459   4.281  23.195 -0.1018  0.4664  0.1414
 3566W        W 4430   6.828   9.076  19.767  0.1926 -0.0825  0.0564
 3567W        W 4431   5.784   9.163  13.766  0.2355 -0.0814  0.1728
 3568W        W 4432   4.624  23.866  17.442 -0.1934  0.0164  0.3110
 3569W        W 4433   3.393   2.663  22.396 -0.0123 -0.0311  0.1502
 3570W        W 4434   1.751   2.033  13.666  0.1351 -0.3041 -0.1708
 3571W        W 4435  11.423  12.988   1.455 -0.2739  0.0446  0.0987
 3572W        W 4436  16.204  15.694  22.823  0.0427  0.1477 -0.1944
 3573W        W 4437   0.984   5.455   6.669 -0.0670 -0.1548  0.0841
 3574W        W 4438   7.207   2.987  18.219  0.0718  0.1015 -0.0820
 3575W        W 4439   2.639   8.484  13.578  0.2797  0.2323  0.0048
 3576W        W 4440   9.494  17.738  20.729  0.0325 -0.2640  0.2124
 3577W        W 4441   3.647  21.788   2.151  0.0993 -0.1544  0.2512
 3578W        W 4442  15.827   3.764   4.582  0.2285 -0.0815 -0.1775
 3579W        W 4443  23.409   4.855  23.370  0.0182 -0.2046 -0.3685
 3580W        W 4444  10.839   7.110   0.103  0.0291  0.1073  0.1360
 3581W        W 4445   1.558   7.486  11.715 -0.0261  0.0609 -0.1314
 3582W        W 4446   9.994   2.246  26.494 -0.0254  0.0996 -0.0830
 3583W        W 4447  16.176  22.772   4.612  0.1131 -0.0549  0.0212
 3584W        W 4448  24.297   7.972  11.426  0.0030  0.0830  0.2770
 3585W        W 4449  26.150  27.327  19.324  0.1948  0.0429 -0.1033
 3586W        W 4450   7.573   1.827  16.011  0.1084  0.2276  0.0602
 3587W        W 4451  15.253  26.591  13.147  0.1145  0.0531 -0.1853
 3588W        W 4452  27.490   8.497   1.758  0.0014  0.3436 -0.0506
 3589W        W 4453   6.879   5.644  19.623  0.3528  0.0382 -0.1308
 3590W        W 4454   0.820   6.349  27.077  0.3642 -0.0558  0.0487
 3591W        W 4455  21.455  26.931  14.517 -0.2716  0.1193  0.2599
 3592W        W 4456   5.857   1.295  21.350  0.0691  0.2379 -0.2231
 3593W        W 4457   1.167   5.785  22.106 -0.1882  0.1314 -0.2489
 3594W        W 4458  15.770  15.479   9.331  0.1284 -0.1327 -0.4381
 3595W        W 4459   6.682   3.049   7.454 -0.0170 -0.0174  0.0712
 3596W        W 4460  27.574   1.131  13.257  0.0355 -0.4131  0.2732
 3597W        W 4461   2.253   2.649   2.891  0.0421 -0.1246  0.0045
 3598W        W 4462  11.008   9.982  10.237  0.2557  0.0508 -0.0812
 3599W        W 4463   2.370  14.220  22.926 -0.1690 -0.0204 -0.0440
 3600W        W 4464  19.383  16.534   1.436 -0.2557 -0.1786 -0.0400
 3601W        W 4465   1.906  25.586  20.981  0.3949  0.3727 -0.0125
 3602W        W 4466  22.488   0.698  25.786  0.2091  0.1432 -0.1766
 3603W        W 4467  11.516  22.478  16.949  0.1465 -0.3253 -0.2573
 3604W        W 4468  28.281  27.007  16.088 -0.2548 -0.2089 -0.1880
 3605W        W 4469  26.616  24.299  20.776  0.0137 -0.0024  0.1031
 3606W        W 4470   5.187  25.849  24.903  0.0944 -0.0677 -0.0263
 3607W        W 4471  22.373  15.771   9.133  0.0525  0.1194  0.1378
 3608W        W 4472   4.241   6.593  20.335 -0.2140  0.0701 -0.3479
 3609W        W 4473  20.204  27.104  19.653 -0.0213 -0.3693 -0.1732
 3610W        W 4474   2.138   5.811  16.668 -0.0343  0.0357  0.0201
 3611W        W 4475   0.780  22.895  24.968 -0.0528 -0.3419  0.2319
 3612W        W 4476  25.981  24.706  15.330  0.0808  0.0371 -0.0601
 3613W        W 4477   3.957  18.107  16.172  0.0246 -0.2568 -0.3724
 3614W        W 4478   7.347   4.832  28.505 -0.1785 -0.1579  0.1912
 3615W        W 4479  24.458   5.092  19.744 -0.3499  0.2886 -0.2781
 3616W        W 4480  26.521  26.689   9.566  0.0680  0.4190  0.0705
 3617W        W 4481  20.406  24.131  12.866  0.0014 -0.0912 -0.0928
 3618W        W 4482  17.941   2.431   8.899  0.1657 -0.1632  0.1256
 3619W        W 4483  24.373  25.296  20.602  0.0073 -0.1655 -0.1395
 3620W        W 4484   7.610  10.257   0.184  0.1528 -0.0024  0.0304
 3621W        W 4485  27.151  23.204  12.100 -0.1325 -0.0883 -0.2230
 3622W        W 4486   2.601  27.722  23.091  0.1595  0.0421  0.0325
 3623W        W 4487  20.616  12.826   9.222  0.2846  0.1137 -0.0669
 3624W        W 4488  24.659  28.507  18.917 -0.2283  0.2909 -0.0017
 3625W        W 4489   9.600  22.354   8.567  0.0616 -0.1218  0.1574
 3626W        W 4490   5.487  17.854  10.200  0.0177  0.2984  0.0626
 3627W        W 4491  25.781  28.501  24.273  0.1062 -0.1402  0.2303
 3628W        W 4492  15.776  22.715   7.154 -0.1894  0.1581 -0.0694
 3629W        W 4493  11.842  13.753  25.177  0.0004 -0.0642 -0.0759
 3630W        W 4494   1.095   3.541  20.675 -0.0051 -0.1650  0.0274
 3631W        W 4495  27.875  21.330   8.588  0.3007  0.1090  0.0259
 3632W        W 4496  21.078   1.498  12.460 -0.0476 -0.0322  0.0830
 3633W        W 4497  20.754   8.378  27.968  0.0279  0.0814  0.2884
 3634W        W 4498  17.253   1.167  19.975  0.1671 -0.2072 -0.0851
 3635W        W 4499   6.212  11.565   0.460 -0.1479  0.1171  0.2557
 3636W        W 4500   5.860   0.418  23.885  0.0979 -0.2219 -0.1148
 3637W        W 4501  10.541  10.352   8.447  0.2006  0.2191  0.2750
 3638W        W 4502  28.703  24.284   8.145  0.1463  0.2091  0.0805
 3639W        W 4503   7.482  15.749  11.991 -0.0881 -0.0270 -0.3669
 3640W        W 4504  14.961  24.208  25.207  0.0308  0.0600  0.1673
 3641W        W 4505  25.987   5.918  17.973  0.2217 -0.0098  0.0593
 3642W        W 4506  28.633  25.414  13.467 -0.0074  0.0577  0.0514
 3643W        W 4507   2.591  14.488  19.051  0.1313 -0.0930 -0.0771
 3644W        W 4508   5.115  14.677  20.432  0.3456  0.2782 -0.0297
 3645W        W 4509  11.544  10.604  26.202 -0.1966 -0.1352  0.0397
 3646W        W 4510   1.187  22.197  23.188 -0.1312 -0.0837  0.0759
 3647W        W 4511  18.856  18.510   2.687 -0.1856  0.1313  0.1825
 3648W        W 4512  26.960  21.021   9.016  0.3696 -0.1786 -0.2646
 3649W        W 4513   9.123   3.637  24.054  0.0842  0.1030  0.0213
 3650W        W 4514  21.502  15.589   1.759 -0.1006  0.5430  0.1530
 3651W        W 4515   2.972  17.152  28.077  0.2821  0.0494  0.0959
 3652W        W 4516  14.116  19.633  16.933 -0.1164  0.1565  0.0649
 3653W        W 4517  23.748   5.736  19.149  0.0599 -0.1793 -0.2772
 3654W        W 4518   1.264  25.643  13.621 -0.1123 -0.1818  0.0968
 3655W        W 4519  27.557   5.404  26.876 -0.0760 -0.0901 -0.2818
 3656W        W 4520  18.080  11.368  28.057 -0.0707  0.2574  0.1434
 3657W        W 4521  24.119  12.227   7.511 -0.2236 -0.2798  0.1386
 3658W        W 4522  22.031  21.904   5.831  0.0622 -0.0404  0.0440
 3659W        W 4523   2.893   7.534  21.304  0.3138 -0.0186  0.2816
 3660W        W 4524  14.845   4.803  10.619  0.1147 -0.0243  0.0343
 3661W        W 4525  24.369  22.115  17.368 -0.3118 -0.2894  0.0099
 3662W        W 4526  13.165   6.919  13.556  0.0258  0.3945  0.3194
 3663W        W 4527  17.772  13.651  28.752  0.2578  0.1918  0.0074
 3664W        W 4528   6.109  19.839  21.038  0.3237 -0.1667  0.2099
 3665W        W 4529   4.343  19.952   3.611 -0.1385  0.3069 -0.0004
 3666W        W 4530  15.077  19.264   1.096 -0.0658 -0.2953 -0.2683
 3667W        W 4531  10.641  18.694  11.773  0.0751  0.0572  0.3634
 3668W        W 4532  14.817  22.896  14.258  0.1364 -0.1144 -0.1986
 3669W        W 4533   9.793  17.844   0.480  0.1845 -0.2465 -0.0633
 3670W        W 4534   8.931  29.104  23.242 -0.0699 -0.1873 -0.0705
 3671W        W 4535  21.146  25.745  14.263  0.2792 -0.1101  0.0322
 3672W        W 4536  19.091   8.409   0.098 -0.2277  0.1326 -0.2880
 3673W        W 4537  14.178   1.872  19.051  0.1142  0.1448  0.1970
 3674W        W 4538   4.888  14.190  20.584 -0.2777  0.0300  0.1071
 3675W        W 4539   0.660  16.975   9.046 -0.0899 -0.2074 -0.3950
 3676W        W 4540  25.056   9.083   2.859  0.3236  0.1235  0.2140
 3677W        W 4541  28.017  24.993  19.173  0.2230  0.2918  0.2190
 3678W        W 4542  15.541  21.215  14.778  0.1961  0.0962  0.0231
 3679W        W 4543  10.367  27.346  25.783  0.0776 -0.1168 -0.3015
 3680W        W 4544   0.296  25.876  12.769 -0.1795  0.0412 -0.0973
 3681W        W 4545   5.467  23.531   9.981 -0.0974 -0.0975 -0.0587
 3682W        W 4546  28.124   7.873  21.578  0.0140  0.1365  0.0745
 3683W        W 4547  18.874  14.412  11.343  0.2411 -0.1659  0.0496
 3684W        W 4548  26.290   8.057  10.233  0.0651 -0.4440  0.3236
 3685W        W 4549   0.045  26.590  16.458 -0.0329  0.0632  0.0809
 3686W        W 4550   5.766   1.397  20.297  0.0488 -0.1223 -0.1002
 3687W        W 4551   2.776  29.023  15.841  0.2924  0.0312 -0.1664
 3688W        W 4552  24.528  13.873   8.514  0.1742  0.1866 -0.1382
 3689W        W 4553  19.205   4.119  10.946  0.2682  0.1196 -0.3697
 3690W        W 4554   3.726  18.247  17.950  0.0031 -0.0947  0.2225
 3691W        W 4555  24.319   3.380   2.049 -0.2549 -0.1722  0.1158
 3692W        W 4556   5.666  23.467  17.834 -0.3128  0.0269  0.3118
 3693W        W 4557  26.588  22.809  19.198  0.3820 -0.0289 -0.2458
 3694W        W 4558   9.424  12.573   4.232 -0.1036 -0.1612  0.0252
 3695W        W 4559  13.992   9.682  23.524  0.1781  0.0820 -0.1984
 3696W        W 4560  17.660   6.929  11.000 -0.2572  0.0954  0.1380
 3697W        W 4561  19.580  25.655   2.430 -0.0412  0.2433  0.1163
 3698W        W 4562  28.671   2.919  28.052 -0.3219 -0.2115  0.0228
 3699W        W 4563  17.786  15.491  22.608 -0.0900 -0.0201  0.0263
 3700W        W 4564  26.653  26.584  18.867 -0.1342  0.2736  0.1555
 3701W        W 4565   2.448  20.333   7.408  0.1678 -0.0103 -0.2100
 3702W        W 4566  20.270   6.066  24.722 -0.0444 -0.1173  0.1721
 3703W        W 4567  28.900  28.743   9.120  0.0934 -0.0308  0.1496
 3704W        W 4568   3.848  14.603  25.346 -0.2997  0.1458  0.1228
 3705W        W 4569   7.477   7.663  12.300  0.2204  0.1223 -0.0277
 3706W        W 4570  16.102   6.485  16.978 -0.0441 -0.1143  0.2227
 3707W        W 4571  10.879  22.165  20.533  0.1282 -0.0473  0.1949
 3708W        W 4572  20.092   9.876   2.435 -0.0037 -0.3056 -0.1215
 3709W        W 4573  13.292  11.415  24.886  0.0721 -0.0492  0.1178
 3710W        W 4574   4.794   3.787  19.663  0.3753  0.1146 -0.2425
 3711W        W 4575  20.462  22.204   0.802 -0.0978  0.1613 -0.2666
 3712W        W 4576   1.126  21.234   0.602  0.1997 -0.4086  0.2019
 3713W        W 4577  18.339  20.775   8.502 -0.3634  0.3399 -0.1136
 3714W        W 4578  28.962  11.590   9.562 -0.0537  0.0282  0.0870
 3715W        W 4579   0.207  12.322   9.647  0.2415 -0.0560 -0.0010
 3716W        W 4580   0.806  18.128   4.511 -0.2743 -0.1801 -0.3257
 3717W        W 4581   1.983  25.857  22.330  0.0654 -0.0956 -0.1485
 3718W        W 4582   2.343   0.673   5.571  0.0382  0.4030  0.4084
 3719W        W 4583  28.202  21.241  20.249  0.1000 -0.1881  0.2571
 3720W        W 4584   0.353   0.830   1.072 -0.0970 -0.2663  0.2055
 3721W        W 4585  14.294  26.179   5.113 -0.0752 -0.1620  0.2932
 3722W        W 4586  21.979   2.525  10.140  0.0755 -0.0471 -0.3057
 3723W        W 4587   2.510   6.545  15.636  0.2290 -0.2406 -0.1696
 3724W        W 4588  19.589   3.123  16.934  0.3453  0.0771 -0.0841
 3725W        W 4589  18.520  13.346  21.138 -0.2767 -0.1092  0.3127
 3726W        W 4590   8.874  22.670  16.304  0.0396 -0.1187  0.2885
 3727W        W 4591   5.788  18.623  10.427 -0.0376 -0.0188 -0.0452
 3728W        W 4592  29.091   3.685   2.007 -0.1613 -0.0974 -0.0124
 3729W        W 4593  24.654   6.448  23.280  0.2119 -0.1725  0.0379
 3730W        W 4594  23.996   4.176   4.981  0.3953  0.2153 -0.2671
 3731W        W 4595  20.106  23.523  22.697  0.0470  0.2834 -0.1208
 3732W        W 4596  13.251  28.516  20.119  0.0998  0.1356 -0.0758
 3733W        W 4597   1.194  26.438  11.900 -0.5171  0.0039 -0.0938
 3734W        W 4598   0.341  21.998  15.445 -0.1092 -0.1161  0.2264
 3735W        W 4599  27.866  27.857  17.107 -0.2091 -0.3261  0.0327
 3736W        W 4600  13.130   3.693  16.285  0.0692  0.0356 -0.1899
 3737W        W 4601  27.084  21.925   7.486 -0.1546  0.2427 -0.0678
 3738W        W 4602   0.723  24.982  18.818  0.0918  0.0118 -0.1022
 3739W        W 4603  26.527  19.971   9.220 -0.0363  0.1829 -0.0481
 3740W        W 4604  18.918  16.670   4.049  0.0397  0.4357 -0.2019
 3741W        W 4605  27.901   9.261   7.950  0.2653 -0.0092  0.4661
 3742W        W 4606  25.376   8.165   5.712 -0.0437 -0.0572  0.1942
 3743W        W 4607   3.223  27.166  16.396  0.1591  0.1345  0.0010
 3744W        W 4608  27.610  28.935  10.901  0.0058 -0.2117 -0.0074
 3745W        W 4609  25.248  22.145  10.680 -0.3329 -0.1703 -0.2669
 3746W        W 4610   8.208  24.403  17.329  0.2147 -0.0559  0.1052
 3747W        W 4611   1.835  24.249   7.683 -0.0575 -0.0550 -0.2482
 3748W        W 4612  29.047   0.487  25.924 -0.4642 -0.1970 -0.1366
 3749W        W 4613   0.369   6.007  24.259  0.1093  0.0222 -0.2597
 3750W        W 4614  26.175  24.841  18.360  0.4050 -0.2648 -0.1018
 3751W        W 4615  23.708  20.583  17.182 -0.0126  0.1306 -0.3837
 3752W        W 4616  15.094   7.478  29.075  0.0188  0.2276  0.0478
 3753W        W 4617  20.393  13.435  15.663 -0.3340  0.1540  0.0310
 3754W        W 4618   4.393  22.887  28.485  0.1373  0.0662  0.0416
 3755W        W 4619   1.188  16.747  21.327  0.0135  0.1694 -0.0178
 3756W        W 4620   3.550  16.910   1.698  0.0303 -0.2949 -0.2521
 3757W        W 4621  28.118  23.600  12.874 -0.1977 -0.0523 -0.3622
 3758W        W 4622  19.760  29.004   5.526  0.0659 -0.1201 -0.1479
 3759W        W 4623   6.825  26.872  16.211 -0.1149 -0.0819  0.1489
 3760W        W 4624  26.414   9.430   2.479  0.0320 -0.1514  0.0299
 3761W        W 4625  11.331   9.704   7.263  0.1725  0.0687  0.0085
 3762W        W 4626  22.152   4.689  23.579 -0.1798 -0.2118 -0.1661
 3763W        W 4627  26.902   3.690   4.707 -0.1879 -0.2683 -0.1004
 3764W        W 4628   6.184   4.691  20.389 -0.3401 -0.0267  0.1408
 3765W        W 4629  25.897  20.301  27.496  0.1090 -0.2399  0.0709
 3766W        W 4630   1.411   2.583   8.689  0.0431  0.1590  0.2417
 3767W        W 4631   4.911  15.635  20.748 -0.1202 -0.2359 -0.0463
 3768W        W 4632   9.781  23.228  25.724  0.1988 -0.0492 -0.0714
 3769W        W 4633  15.430   6.204   6.163 -0.0952 -0.0906 -0.0796
 3770W        W 4634  28.200  28.629  16.627  0.1560  0.0694 -0.4145
 3771W        W 4635  19.085  22.634  23.106  0.3703 -0.2960  0.3977
 3772W        W 4636   9.563   1.583  16.645 -0.0170  0.1019 -0.0864
 3773W        W 4637   5.555  28.849  19.005 -0.0602 -0.1787  0.0686
 3774W        W 4638   5.765  27.038  25.028 -0.0878 -0.0005 -0.1589
 3775W        W 4639   2.460   0.656  16.693  0.1670  0.1230 -0.1905
 3776W        W 4640  20.443   9.680   2.814 -0.0786  0.1776 -0.1245
 3777W        W 4641  20.473  24.059  20.572  0.1999 -0.0208 -0.0440
 3778W        W 4642  24.775  20.985  21.549  0.0884  0.2558 -0.0622
 3779W        W 4643  21.102  19.292  16.605  0.0288 -0.2909  0.4540
 3780W        W 4644  23.203  19.428   7.081  0.0920 -0.0557 -0.0485
 3781W        W 4645   4.179  26.835  15.384  0.5264  0.1373  0.2916
 3782W        W 4646   0.992  22.923  27.678 -0.1372 -0.1560 -0.0562
 3783W        W 4647  21.011  25.467  19.071  0.2697  0.1571  0.1461
 3784W        W 4648  17.086  28.147   7.089 -0.0419  0.1250 -0.1906
 3785W        W 4649  16.871  21.045   9.358  0.1136  0.1410 -0.1884
 3786W        W 4650   6.853  24.178  18.834 -0.1029 -0.1838 -0.0942
 3787W        W 4651  24.890  27.148  29.100 -0.4696 -0.0184  0.1705
 3788W        W 4652  28.960  28.509  13.373  0.0129  0.3054  0.3163
 3789W        W 4653  14.993   3.594   6.561 -0.0606 -0.2911 -0.0222
 3790W        W 4654  10.423   3.848  20.089  0.1824 -0.0927  0.1488
 3791W        W 4655   2.111  25.787  19.334  0.1746 -0.0978 -0.0883
 3792W        W 4656  14.527  22.377  21.125  0.2016 -0.0338 -0.0193
 3793W        W 4657  19.552   7.156  21.350  0.0002 -0.4125 -0.0772
 3794W        W 4658  18.380   2.948  18.784  0.1016 -0.1048 -0.1521
 3795W        W 4659  25.189  19.971  25.073 -0.2056 -0.1960  0.3792
 3796W        W 4660   1.514  21.043  12.633 -0.2028 -0.3165  0.0434
 3797W        W 4661  23.432  21.403  19.610  0.2172  0.1868 -0.2707
 3798W        W 4662  15.746  24.027  18.343  0.0669  0.1847 -0.3396
 3799W        W 4663  24.852  22.379  17.217 -0.1582 -0.1043  0.0758
 3800W        W 4664  11.554   4.943   5.309  0.1689  0.2624  0.1216
 3801W        W 4665   0.924  12.354  19.002 -0.3212 -0.2405  0.1208
 3802W        W 4666  25.102  13.694   1.821  0.2090  0.2210 -0.1589
 3803W        W 4667  18.016  10.676  20.603  0.0815  0.1004  0.1050
 3804W        W 4668   1.900   2.779   8.595  0.1003 -0.3468 -0.1120
 3805W        W 4669   2.276  22.211   2.122 -0.3425  0.2410  0.0786
 3806W        W 4670  15.355  15.629   2.858 -0.2639 -0.0656 -0.1591
 3807W        W 4671  10.479  10.985   5.736  0.0122 -0.1893 -0.1369
 3808W        W 4672  26.118  22.812  18.525 -0.2363  0.0379 -0.2403
 3809W        W 4673  11.634   5.907   7.972  0.4094  0.2168  0.0103
 3810W        W 4674  23.260  25.901  21.384 -0.0846  0.2560  0.0400
 3811W        W 4675   5.965  25.701   8.019  0.2617 -0.2499 -0.2144
 3812W        W 4676  21.104   2.299   3.889 -0.4455  0.3315 -0.0218
 3813W        W 4677  24.553  16.144  23.204  0.2207  0.0317 -0.0580
 3814W        W 4678   8.039  25.521   2.196 -0.0764  0.2792 -0.2494
 3815W        W 4679  11.380   4.847  17.517  0.0830  0.1307  0.0651
 3816W        W 4680   3.197  21.910  16.533 -0.0293  0.0357  0.0364
 3817W        W 4681  15.088  28.807  28.235 -0.1499  0.4049  0.1805
 3818W        W 4682   5.497   7.025  24.497  0.0233 -0.1923 -0.0568
 3819W        W 4683   4.718  19.573   0.794  0.1665  0.0844  0.0137
 3820W        W 4684  28.836   1.079  19.971 -0.0011 -0.1632  0.2495
 3821W        W 4685   7.646   4.772  12.626  0.1719 -0.3489 -0.1490
 3822W        W 4686  18.815  27.817  22.208 -0.0962 -0.3328  0.0970
 3823W        W 4687  28.798   9.335  18.338  0.2426 -0.2895 -0.2803
 3824W        W 4688  21.077   0.043   9.518 -0.0607  0.0768 -0.0195
 3825W        W 4689   2.189  17.307   2.529  0.0350 -0.2391  0.0579
 3826W        W 4690  16.961  15.747  10.671  0.1115  0.2549 -0.1603
 3827W        W 4691   4.645   5.800   5.300  0.1954  0.2384 -0.1721
 3828W        W 4692   8.298   5.717   1.323  0.1372  0.2708  0.0103
 3829W        W 4693  26.461  28.228   3.456  0.0651  0.2931 -0.1557
 3830W        W 4694   3.471  19.446  25.625 -0.1972  0.1477 -0.2994
 3831W        W 4695  25.630  23.578   9.463 -0.2582 -0.0851 -0.1302
 3832W        W 4696   5.271   3.475  13.564 -0.1830 -0.1176 -0.0059
 3833W        W 4697  20.763  15.891   5.143 -0.2471 -0.1071 -0.0010
 3834W        W 4698  22.761   6.378  14.527  0.0921 -0.0165  0.2948
 3835W        W 4699  28.662  25.011   2.053  0.0020  0.0088 -0.0704
 3836W        W 4700  17.858  25.446   7.015  0.0704  0.6230  0.1485
 3837W        W 4701   1.134  26.248   4.450 -0.0033 -0.0129  0.1268
 3838W        W 4702  19.702   5.373   3.386  0.1080 -0.0942  0.0574
 3839W        W 4703  26.678  18.251  13.082 -0.2973  0.1656 -0.0701
 3840W        W 4704  24.715  14.918  20.253  0.1887 -0.0533 -0.1120
 3841W        W 4705   7.882  24.364  11.705  0.0129  0.2097  0.2935
 3842W        W 4706   8.316  27.275  17.182  0.1167 -0.2843 -0.0577
 3843W        W 4707   6.922  26.368  22.533 -0.1346  0.2141 -0.3153
 3844W        W 4708  22.925  15.194  23.032  0.1055  0.1902 -0.0026
 3845W        W 4709  29.093  18.517  22.683 -0.0441 -0.3018 -0.2210
 3846W        W 4710  21.234  26.152  22.294  0.1505  0.2168  0.5108
 3847W        W 4711  13.026  25.199   5.858 -0.2598  0.0238  0.2346
 3848W        W 4712   7.965   9.607   8.374 -0.2464 -0.0623 -0.0180
 3849W        W 4713  27.723  19.809  18.321  0.1477 -0.1179  0.2155
 3850W        W 4714  28.424  24.445  24.721 -0.1646  0.0765 -0.0483
 3851W        W 4715   7.388  21.542  26.065 -0.1908 -0.1226 -0.0302
 3852W        W 4716   5.583  27.040  27.837  0.0732  0.0982 -0.0304
 3853W        W 4717  28.877  14.891  12.863 -0.1170 -0.0537  0.1075
 3854W        W 4718  28.533  28.119  17.841  0.1891 -0.0299 -0.0512
 3855W        W 4719  24.131   3.752  28.680  0.0812  0.2372 -0.1193
 3856W        W 4720  27.845  11.448  26.001  0.0348  0.0760  0.2253
 3857W        W 4721   6.906  27.368  22.829  0.0016 -0.2919  0.2375
 3858W        W 4722   1.184  28.101   0.369 -0.0393  0.0217 -0.1789
 3859W        W 4723   3.268  26.468  17.801  0.0632  0.0687 -0.0294
 3860W        W 4724  15.593   2.260  24.511  0.0745  0.1465  0.1215
 3861W        W 4725  23.967  27.158  11.652  0.0090 -0.0066  0.0406
 3862W        W 4726  20.545  23.180  14.386  0.1607 -0.3125  0.0366
 3863W        W 4727   7.407  24.842  20.586 -0.0470  0.0337  0.2047
 3864W        W 4728  28.539   6.187   8.584  0.0009  0.0237  0.4394
 3865W        W 4729  26.217  28.370  19.829 -0.0508 -0.1033  0.2700
 3866W        W 4730   2.685   8.766  15.361  0.0825 -0.1085 -0.0233
 3867W        W 4731  23.752  22.921   0.400 -0.2250  0.2167 -0.0250
 3868W        W 4732  22.587  22.302  22.552 -0.1077 -0.0319  0.0277
 3869W        W 4733  15.226  18.306  22.020 -0.1518  0.1986 -0.1769
 3870W        W 4734   3.349   4.457  20.728 -0.0573  0.1300  0.1367
 3871W        W 4735  20.407  19.922  18.449  0.1336  0.3244  0.1527
 3872W        W 4736   1.824   5.381  11.514 -0.2943 -0.1376  0.1438
 3873W        W 4737  17.432  19.124  18.232 -0.0163 -0.1323 -0.0968
 3874W        W 4738   5.703  28.043  16.589  0.2112  0.0798 -0.0931
 3875W        W 4739   9.088   7.321  26.962  0.1139 -0.2263  0.0551
 3876W        W 4740  20.999  20.996  16.598 -0.1566 -0.0531  0.2789
 3877W        W 4741  28.966  17.531  20.120 -0.2586 -0.1933  0.3229
 3878W        W 4742  17.798  28.220  23.118  0.2840 -0.1080 -0.5577
 3879W        W 4743   3.127   9.296  19.231  0.0569 -0.0132 -0.0605
 3880W        W 4744   2.910  23.591   6.148  0.0452 -0.1432 -0.0681
 3881W        W 4745   5.350  28.226   5.170 -0.2006  0.0964  0.1225
 3882W        W 4746  14.743  22.086  17.537 -0.1661 -0.1149 -0.2323
 3883W        W 4747  17.624  21.216  11.286 -0.1097 -0.0058  0.3269
 3884W        W 4748  21.730  26.964  15.950  0.4249 -0.4406 -0.0429
 3885W        W 4749   2.106  25.454   1.336 -0.3539  0.1189 -0.2148
 3886W        W 4750  15.952  12.668  17.831  0.3688 -0.2086  0.0695
 3887W        W 4751   4.026  10.951  22.706 -0.0100  0.0589  0.1724
 3888W        W 4752   1.925   8.728  18.371 -0.1907  0.1223 -0.1235
 3889W        W 4753   7.581  18.536   6.217 -0.2002 -0.0727 -0.1150
 3890W        W 4754  28.882  22.435  13.561 -0.0253 -0.0859  0.0856
 3891W        W 4755   3.660   6.472  23.282  0.1187  0.1995 -0.0787
 3892W        W 4756   6.460  18.603  18.839 -0.3644  0.3301  0.0472
 3893W        W 4757  21.614  16.477   5.400  0.2224 -0.0332  0.0705
 3894W        W 4758  27.135  25.162   9.266 -0.1374  0.2528  0.1959
 3895W        W 4759  18.486  23.878   9.981  0.2241 -0.2511 -0.4236
 3896W        W 4760  13.869  27.846  24.173  0.2248 -0.2065 -0.1948
 3897W        W 4761   1.527  11.290   6.220 -0.2509  0.0133 -0.1388
 3898W        W 4762  20.374  25.784  25.674 -0.1506 -0.2129 -0.2113
 3899W        W 4763   8.655  23.846  17.458  0.1168 -0.1963 -0.1593
 3900W        W 4764  20.209  15.989   9.470  0.0640 -0.1962  0.3200
 3901W        W 4765  15.089  19.950  13.708  0.1857  0.1341 -0.1478
 3902W        W 4766   8.138  26.805  14.148 -0.1568 -0.1086  0.1137
 3903W        W 4767  14.296   6.059  26.795 -0.2001 -0.0773  0.0690
 3904W        W 4768  12.375  22.139   1.079  0.1850 -0.0534  0.3932
 3905W        W 4769  27.439  20.532  15.444 -0.2206 -0.3708 -0.2082
 3906W        W 4770   8.227   2.167  26.532 -0.0836 -0.1711 -0.4052
 3907W        W 4771   6.112  25.703  20.762  0.2550 -0.0473 -0.0290
 3908W        W 4772  17.730  25.667  17.515 -0.2764  0.0906 -0.0287
 3909W        W 4773  14.666  20.040  22.333  0.4261 -0.1096  0.2396
 3910W        W 4774   7.067  26.351   9.836  0.1068  0.1745 -0.0165
 3911W        W 4775   4.902  27.082   6.018 -0.1403  0.2078 -0.0528
 3912W        W 4776  23.404  23.346   0.374  0.2720  0.0658  0.1272
 3913W        W 4777  17.930   4.704  22.031 -0.0697  0.1926  0.2097
 3914W        W 4778   5.200  23.902   9.720 -0.3058  0.0765  0.3198
 3915W        W 4779   2.030  25.127  14.162 -0.0318  0.0773  0.0254
 3916W        W 4780  11.836  25.099  15.952  0.2757 -0.0625 -0.4127
 3917W        W 4781   3.682   6.428   3.434  0.0974 -0.1216  0.0004
 3918W        W 4782  23.658  10.257  27.724 -0.0444  0.0386 -0.0093
 3919W        W 4783  21.226  21.740  18.696  0.2432 -0.3376  0.0652
 3920W        W 4784  19.963  22.621   6.373 -0.0044 -0.0015  0.0012
 3921W        W 4785   0.657  23.190   4.175 -0.0704  0.2846 -0.2778
 3922W        W 4786   2.270  13.922  12.091  0.3046  0.0019 -0.0703
 3923W        W 4787   4.882  17.325  18.092  0.1587 -0.0903  0.0535
 3924W        W 4788  28.734  15.004   3.020 -0.1711  0.0290  0.1304
 3925W        W 4789   5.116  21.803   3.089  0.2179  0.0074  0.2871
 3926W        W 4790   8.369   3.766  10.246 -0.0910 -0.0321  0.2163
 3927W        W 4791   7.197  28.987  23.643 -0.0892  0.0611  0.1480
 3928W        W 4792  16.585   8.506   4.368 -0.1267  0.1054 -0.1603
 3929W        W 4793   0.529   9.867  15.083 -0.2024 -0.1346  0.0542
 3930W        W 4794  20.939  14.041  13.816  0.1517 -0.1623  0.1055
 3931W        W 4795  25.227  22.922  24.269 -0.1680 -0.1189 -0.4487
 3932W        W 4796  25.267  22.489   0.979 -0.0475  0.0026  0.0436
 3933W        W 4797  10.551   8.980  21.217  0.2118 -0.2101 -0.0136
 3934W        W 4798  19.042   5.141  17.518 -0.2554  0.4850 -0.1752
 3935W        W 4799  27.217   5.843  10.033 -0.2337 -0.1650  0.2400
 3936W        W 4800   6.790  27.330  16.940  0.1011 -0.0746  0.0160
 3937W        W 4801   5.148  12.618  21.843  0.0629  0.0384 -0.1842
 3938W        W 4802   2.589  25.614  26.645 -0.0311  0.2577 -0.0235
 3939W        W 4803  23.466  10.206  16.178 -0.0900  0.0327  0.2468
 3940W        W 4804   1.637   4.768  22.455 -0.2375  0.0569  0.2225
 3941W        W 4805  21.101  11.009  18.462  0.0719 -0.0792 -0.0393
 3942W        W 4806  25.169   7.930  27.222 -0.1829  0.2143  0.0643
 3943W        W 4807   6.920  28.503  26.102 -0.1005  0.0610  0.0455
 3944W        W 4808  29.053   3.152   4.080  0.0728 -0.3545  0.3221
 3945W        W 4809  19.350   0.622  13.634  0.2738  0.0261  0.1342
 3946W        W 4810  27.203  20.665  15.043 -0.0608  0.0451  0.1059
 3947W        W 4811  10.911   0.316  18.916 -0.1666  0.0609 -0.2228
 3948W        W 4812   8.134  28.266  21.066  0.2593 -0.0044 -0.1281
 3949W        W 4813   2.084  22.739  23.290 -0.0170  0.2008  0.0383
 3950W        W 4814  14.732  25.569  26.399  0.3278  0.2524 -0.2156
 3951W        W 4815  19.239  21.254   2.951  0.1227  0.1934  0.0549
 3952W        W 4816  17.054   8.555  18.127 -0.2164 -0.0801  0.0051
 3953W        W 4817   5.442  14.630  19.718 -0.1701  0.2870 -0.2800
 3954W        W 4818  22.833  14.919  26.957 -0.2345  0.1236  0.1493
 3955W        W 4819  19.223  12.735   6.172  0.2460 -0.0035  0.2560
 3956W        W 4820  13.447  22.587  17.721 -0.2588  0.1908 -0.1935
 3957W        W 4821  24.713   1.820  18.214 -0.0803 -0.0032 -0.2478
 3958W        W 4822   0.147  20.811  12.667  0.1846  0.3540 -0.0564
 3959W        W 4823  22.927  11.110   4.992  0.2052  0.2266 -0.3077
 3960W        W 4824  16.862  27.919  22.290  0.1001  0.3722 -0.1106
 3961W        W 4825  22.628  26.539  26.771 -0.0099  0.2770 -0.1735
 3962W        W 4826   8.525   0.210  25.530 -0.0693 -0.0648  0.0931
 3963W        W 4827   9.183   1.758  11.576  0.0131  0.0605  0.1519
 3964W        W 4828  27.349  11.103  17.880 -0.2375  0.0078 -0.3621
 3965W        W 4829  13.471  24.015  28.127 -0.2333  0.3982 -0.1302
 3966W        W 4830   4.877   0.404  13.137  0.2952  0.2347  0.2955
 3967W        W 4831   2.078   5.557  22.234 -0.1580 -0.0603 -0.0654
 3968W        W 4832  11.386  24.684  27.847 -0.0391 -0.2912 -0.0532
 3969W        W 4833   8.695   6.400  16.252  0.0582 -0.0891 -0.2739
 3970W        W 4834  25.239  24.771  26.549 -0.1756  0.0641 -0.0869
 3971W        W 4835   3.503   1.100  21.898 -0.1199  0.1910  0.0281
 3972W        W 4836  10.484   1.118  23.821  0.2372  0.0102  0.0263
 3973W        W 4837   2.156   5.006  11.556 -0.0925  0.0198 -0.1261
 3974W        W 4838  17.439  27.629  15.519 -0.2925 -0.0245 -0.1815
 3975W        W 4839  14.076  27.056  22.536  0.1421 -0.0691 -0.1026
 3976W        W 4840  18.476  15.336   6.627 -0.0622  0.0956  0.1504
 3977W        W 4841  19.443  19.780  10.249 -0.0077 -0.1833 -0.0261
 3978W        W 4842  28.320  17.252  25.315 -0.2148  0.1961 -0.3828
 3979W        W 4843   1.390  18.806  16.175 -0.2640  0.0774 -0.2408
 3980W        W 4844  28.771   6.608  10.955  0.1717 -0.1006 -0.0012
 3981W        W 4845   7.885   4.239  17.286 -0.3337 -0.0628 -0.2427
 3982W        W 4846  22.372  26.169   8.086  0.2483  0.1352 -0.1638
 3983W        W 4847   5.225   9.564   7.035  0.3340  0.4498 -0.0780
 3984W        W 4848  13.029   5.335   7.428 -0.0812 -0.0615  0.3263
 3985W        W 4849   1.981   8.700  15.544 -0.2748 -0.2648  0.0971
 3986W        W 4850   1.108  23.768  25.032  0.0618 -0.1410  0.0674
 3987W        W 4851   7.551  28.557   5.287 -0.0317  0.2205 -0.1047
 3988W        W 4852   8.139  18.243   0.192 -0.4172 -0.3427  0.0928
 3989W        W 4853  19.377  24.449  25.755 -0.0441 -0.0506  0.0281
 3990W        W 4854  13.053  24.742   1.026 -0.1672  0.0695  0.2599
 3991W        W 4855   5.107   0.045  21.971 -0.2604  0.0265  0.1083
 3992W        W 4856  26.778   2.113  16.800 -0.0211  0.1654  0.2457
 3993W        W 4857  19.803  23.312  19.639  0.1186 -0.4095 -0.4916
 3994W        W 4858   3.369  23.205  21.574  0.1022  0.0858 -0.2561
 3995W        W 4859   9.439   2.948  11.462 -0.3185 -0.0062 -0.0644
 3996W        W 4860  14.118  26.602  25.629  0.0363  0.1261  0.0324
 3997W        W 4861  19.996  24.147  14.116 -0.0668  0.4082 -0.3064
 3998W        W 4862   4.807  23.958  13.471  0.1989 -0.0203 -0.0808
 3999W        W 4863  28.526  21.167   4.032  0.1540 -0.0994  0.0874
 4000W        W 4864   5.496   1.171  24.430  0.2223 -0.2707  0.0723
 4001W        W 4865  28.595  23.039   2.590  0.1630  0.0628 -0.1861
 4002W        W 4866   4.665  26.617  14.606  0.1220  0.1647  0.4550
 4003W        W 4867  24.308  27.510  25.196  0.0450  0.1090  0.0933
 4004W        W 4868   2.631   6.978   8.447 -0.1002  0.2359 -0.0316
 4005W        W 4869  19.462   5.435  23.031  0.1711  0.1796 -0.2778
 4006W        W 4870   9.312  13.378  10.264  0.2692 -0.1920 -0.0245
 4007W        W 4871  27.188  28.260   9.608 -0.0588  0.1282  0.1958
 4008W        W 4872   6.065  17.955  18.566  0.1331  0.0029  0.0720
 4009W        W 4873   6.432   5.257  15.456  0.2482  0.0247  0.0160
 4010W        W 4874  23.750   7.714  23.050 -0.1380  0.1105 -0.0807
 4011W        W 4875   2.423   3.395  23.824 -0.0469 -0.0857  0.4942
 4012W        W 4876   6.401  24.254   9.860  0.0270 -0.0830 -0.1583
 4013W        W 4877   1.530  23.691  21.341 -0.2617 -0.2151  0.2053
 4014W        W 4878   4.723  14.192   2.465 -0.0144  0.1781  0.1496
 4015W        W 4879  16.877   2.125  28.759 -0.4144  0.0278 -0.1074
 4016W        W 4880  24.404  19.689  23.002  0.2888 -0.0783  0.1735
 4017W        W 4881   3.865  19.667   9.984  0.0674 -0.1452  0.1919
 4018W        W 4882  16.494  14.334  17.057 -0.0162 -0.2277 -0.1974
 4019W        W 4883  23.262   1.583  18.574 -0.1149 -0.5136  0.0895
 4020W        W 4884  18.042   1.367  13.096  0.2269 -0.3171 -0.2210
 4021W        W 4885   1.153   3.369   1.223  0.2848 -0.0380  0.2400
 4022W        W 4886  12.643  23.604  12.049 -0.2831 -0.0790 -0.2492
 4023W        W 4887   8.248  22.777  26.289 -0.1952 -0.2068  0.2094
 4024W        W 4888  26.877  19.328  23.516  0.0107  0.1989  0.1790
 4025W        W 4889   2.427   3.070  13.825 -0.0965  0.3473  0.0498
 4026W        W 4890  10.899  20.479   5.418 -0.3589 -0.3421 -0.3062
 4027W        W 4891  14.304   1.090   9.257  0.1331  0.3056  0.1110
 4028W        W 4892   9.865  22.354  18.715 -0.0673 -0.0401 -0.1505
 4029W        W 4893   2.183   3.296   7.698  0.0681  0.2933 -0.2200
 4030W        W 4894   2.085  10.973  29.000 -0.1871  0.0919 -0.1010
 4031W        W 4895  26.700   9.991  21.137 -0.0249  0.1018 -0.0727
 4032W        W 4896  22.201   4.070  13.960  0.1370 -0.0399 -0.0953
 4033W        W 4897   0.164   0.133  15.156 -0.2531 -0.2208 -0.2470
 4034W        W 4898  29.053   5.413  18.766 -0.1566 -0.0159 -0.0904
 4035W        W 4899  20.874  17.876  26.778 -0.2701  0.0889 -0.1771
 4036W        W 4900   6.103  25.965  29.072 -0.0345 -0.0500 -0.2732
 4037W        W 4901   9.720  18.036   1.350  0.2184 -0.3138  0.0149
 4038W        W 4902  22.760   1.001  25.327 -0.2619  0.5142  0.0664
 4039W        W 4903  14.506   3.950  22.091  0.1149  0.0682 -0.1093
 4040W        W 4904   9.319  19.772  12.805 -0.0139 -0.0240  0.1784
 4041W        W 4905  29.126  21.799   6.076 -0.1674 -0.2298 -0.1442
 4042W        W 4906   3.939  23.434  25.892  0.2615 -0.0487 -0.2465
 4043W        W 4907  13.166  24.420  23.597  0.1286 -0.0671  0.0027
 4044W        W 4908  17.291  25.937  15.571  0.2005 -0.3112 -0.1048
 4045W        W 4909  26.091   6.202  19.351  0.0108 -0.1882 -0.1754
 4046W        W 4910  17.755  12.770   6.704 -0.2965  0.1532 -0.1308
 4047W        W 4911  27.225  24.319  18.653  0.1218 -0.0610  0.2869
 4048W        W 4912   0.354   4.349  14.602  0.0403 -0.0959  0.0113
 4049W        W 4913  22.707  28.467  12.089 -0.2949 -0.0574  0.2151
 4050W        W 4914   5.030   6.141   6.729  0.1311 -0.2133  0.1357
 4051W        W 4915  19.015  27.427  17.597  0.0213 -0.1176  0.1872
 4052W        W 4916  27.736  16.576  25.586 -0.2087 -0.0350  0.0524
 4053W        W 4917  21.532  26.557  13.422  0.1973  0.0208  0.0243
 4054W        W 4918  27.209  29.084  21.074  0.1911  0.0765  0.1784
 4055W        W 4919  22.650  12.980   6.571  0.6517  0.0264 -0.2819
 4056W        W 4920  13.430  25.695  16.535 -0.0668  0.1367  0.1827
 4057W        W 4921   5.111  23.586   4.283 -0.0826 -0.0818 -0.0546
 4058W        W 4922   8.440  17.078  25.852  0.1600  0.1873  0.1462
 4059W        W 4923  10.399   3.305  16.575 -0.3525  0.0927 -0.2824
 4060W        W 4924   0.878  27.037  24.524 -0.1667 -0.0451 -0.0146
 4061W        W 4925   6.655  16.814   4.350 -0.0564  0.1443 -0.0455
 4062W        W 4926   1.191   6.308   1.233 -0.1498  0.0359  0.0681
 4063W        W 4927   4.077   4.669   1.063 -0.4128  0.0652  0.0170
 4064W        W 4928   6.571  27.848   8.954  0.0445 -0.2232  0.1072
 4065W        W 4929  18.218   8.073  19.209  0.2561 -0.0010  0.2366
 4066W        W 4930  25.600  21.379  10.248  0.2473 -0.0118 -0.2219
 4067W        W 4931  12.343  12.811  19.511  0.3101  0.2586 -0.2226
 4068W        W 4932  26.070  26.477  24.894  0.3277 -0.2129  0.0362
 4069W        W 4933   5.533  10.062   2.300  0.0172  0.0427  0.0332
 4070W        W 4934   7.018   2.001   1.701  0.1201  0.1966 -0.1352
 4071W        W 4935  23.308  14.186   3.477 -0.0962  0.0852  0.0884
 4072W        W 4936  13.272  28.487  12.544  0.0376  0.0023  0.3198
 4073W        W 4937   9.107   6.943  14.146 -0.0801  0.2673 -0.0468
 4074W        W 4938  26.626  25.659   7.724  0.2317 -0.1397  0.3592
 4075W        W 4939   9.340  21.229  16.262 -0.0209 -0.0870  0.2011
 4076W        W 4940  17.029  24.230   8.903  0.0643 -0.1190 -0.1502
 4077W        W 4941   6.923   2.487  22.946 -0.1141  0.0412  0.2587
 4078W        W 4942  20.696  26.957   4.278  0.0491 -0.0346 -0.1906
 4079W        W 4943  25.181  16.064  11.274 -0.3204  0.0671  0.1207
 4080W        W 4944  10.669   8.024   1.338  0.1280 -0.3065 -0.0572
 4081W        W 4945   0.726  28.035   1.209  0.0513  0.2478  0.2205
 4082W        W 4946  19.560  21.944  18.164  0.2252 -0.1979  0.0089
 4083W        W 4947  27.303   1.644  29.119 -0.0869  0.2355 -0.1968
 4084W        W 4948  29.050  16.821  13.769 -0.3028 -0.1454  0.0782
 4085W        W 4949  15.844   3.719   7.034  0.2701  0.1096 -0.1065
 4086W        W 4950  18.210  14.563  19.170 -0.1586 -0.0369  0.2345
 4087W        W 4951   0.248   2.993  22.302  0.2793  0.0671  0.3746
 4088W        W 4952  20.995  14.276  12.191 -0.1910  0.0630  0.1333
 4089W        W 4953  28.555  23.206   7.891 -0.1189  0.0033  0.0925
 4090W        W 4954  24.154  12.587  21.597  0.1396 -0.2931  0.4273
 4091W        W 4955   7.239  19.737   7.071 -0.0658 -0.0311  0.0969
 4092W        W 4956   8.454   3.688  28.820 -0.0322 -0.0951  0.0799
 4093W        W 4957   1.377   6.852  18.750 -0.0847 -0.0261 -0.0066
 4094W        W 4958  25.810  20.130  28.749  0.0491 -0.0176 -0.1394
 4095W        W 4959  24.172  24.917  14.155 -0.0139 -0.1759 -0.2231
 4096W        W 4960  27.972   1.765   2.187 -0.3558  0.1635 -0.2830
 4097W        W 4961   2.642   2.104  19.218 -0.1214 -0.1572 -0.2342
 4098W        W 4962   2.228  27.294  22.385  0.0581  0.1996 -0.2353
 4099W        W 4963  19.172   7.161   4.061 -0.2887  0.0308 -0.1011
 4100W        W 4964   0.565   9.549  27.035  0.0061 -0.1942 -0.0341
 4101W        W 4965  21.402  17.869  11.955  0.0677  0.1249  0.0139
 4102W        W 4966  25.235  28.989  20.620  0.3831  0.0284  0.1597
 4103W        W 4967   1.835   3.257  27.439  0.1150 -0.0088 -0.0025
 4104W        W 4968  17.349  15.127  24.281 -0.0670  0.1974  0.0328
 4105W        W 4969   9.792   6.574  21.979  0.1021  0.0096 -0.1521
 4106W        W 4970  18.620   0.063   1.251 -0.1419  0.2439  0.3813
 4107W        W 4971  15.247  10.371  18.217 -0.0684 -0.2853 -0.2015
 4108W        W 4972  21.205   7.948  17.913 -0.1292 -0.1626 -0.1784
 4109W        W 4973   4.357  21.519  11.447  0.3824 -0.0352  0.2937
 4110W        W 4974   6.927  23.752  17.042 -0.0048 -0.2746  0.0437
 4111W        W 4975  22.629  19.623   3.586  0.0330 -0.2083 -0.4480
 4112W        W 4976  16.186  27.706   6.207  0.0108  0.0476  0.1916
 4113W        W 4977  23.272  16.914  21.051 -0.0697  0.2179  0.1047
 4114W        W 4978  12.024  25.604  26.260 -0.0471  0.0869 -0.0750
 4115W        W 4979  20.378   6.151  16.748 -0.2331 -0.0413 -0.0558
 4116W        W 4980   0.151  28.330  17.392 -0.0407 -0.2639 -0.2696
 4117W        W 4981  20.915  21.735  22.993 -0.3991 -0.1035  0.0040
 4118W        W 4982   2.013  10.162   4.692 -0.0718  0.4467 -0.0378
 4119W        W 4983   4.779  22.120  12.853  0.0791  0.0943 -0.1968
 4120W        W 4984  26.497  26.749   4.299  0.1996 -0.0537  0.3289
 4121W        W 4985   6.060   3.929   1.128 -0.0849  0.0321  0.1975
 4122W        W 4986   5.279   7.199  22.103  0.0586  0.1783 -0.1722
 4123W        W 4987  26.579  27.422  24.208  0.0442  0.1722 -0.0759
 4124W        W 4988   6.683  26.690  20.347 -0.0633  0.0249 -0.0137
 4125W        W 4989  14.080  11.409   3.821  0.4786 -0.1251 -0.0381
 4126W        W 4990   4.090  26.347   1.631 -0.0309  0.1050  0.1453
 4127W        W 4991   5.478  25.756  16.836 -0.1511  0.0528 -0.3959
 4128W        W 4992  12.131  28.026  26.245 -0.1890  0.2309 -0.1257
 4129W        W 4993  12.225   5.241  17.495  0.0112  0.2113 -0.0646
 4130W        W 4994  13.849  27.454   8.150 -0.0893  0.4439 -0.1224
 4131W        W 4995   5.296   1.591  17.152 -0.0676  0.0083 -0.1418
 4132W        W 4996  12.763  17.980   1.729 -0.0116  0.0545  0.1226
 4133W        W 4997   9.792   2.509   9.960 -0.1200  0.1099  0.0745
 4134W        W 4998  17.077  26.472   1.553  0.1152  0.0865  0.1111
 4135W        W 4999   1.552  18.729  19.357  0.1815  0.1093  0.1990
 4136W        W 5000  22.529  17.091  28.933 -0.0953 -0.0190  0.0256
 4137W        W 5001   1.957  28.491   5.134  0.2049 -0.0122 -0.5297
 4138W        W 5002   3.740  17.128  21.270 -0.2512  0.1715 -0.1322
 4139W        W 5003  26.729  20.700   8.715  0.1717 -0.0321  0.0095
 4140W        W 5004   6.531   9.966  24.504 -0.1411  0.1372  0.0773
 4141W        W 5005   0.543  26.785  16.648 -0.2629  0.0733  0.1370
 4142W        W 5006  14.702  16.328  12.505  0.2240 -0.1015  0.0301
 4143W        W 5007   5.844  26.556  25.093 -0.3867 -0.2436 -0.2768
 4144W        W 5008  15.385   8.621  18.870  0.1547 -0.1347  0.1853
 4145W        W 5009   7.211  20.816  22.131  0.1578  0.2040  0.0233
 4146W        W 5010  26.963  25.314  19.793 -0.0603 -0.1535  0.0394
 4147W        W 5011   0.896   5.382   1.520 -0.1148 -0.0692  0.1195
 4148W        W 5012  15.058  10.123  12.460 -0.0909 -0.0194  0.1320
 4149W        W 5013  17.103   8.255  13.836  0.0727  0.2660  0.1023
 4150W        W 5014  20.015   0.768  21.483  0.0709 -0.1184  0.1274
 4151W        W 5015   0.579  16.683  16.578  0.2022  0.0080  0.3254
 4152W        W 5016  11.114  20.288   1.355 -0.0633  0.0326  0.0049
 4153W        W 5017   7.078  27.759  13.724 -0.0565 -0.2324 -0.2232
 4154W        W 5018  26.471  27.449  15.866  0.2442  0.1235 -0.1547
 4155W        W 5019  13.314  18.647  26.549  0.4069  0.1714  0.2522
 4156W        W 5020  15.701   0.658  17.604  0.0410 -0.0179 -0.0550
 4157W        W 5021   1.361  25.527   3.650 -0.0733 -0.1445 -0.0683
 4158W        W 5022  28.236  20.161  28.158  0.0475  0.4395 -0.0019
 4159W        W 5023  13.999  28.171  28.819 -0.2992 -0.0664  0.1594
 4160W        W 5024   9.358  15.329  13.557 -0.0418 -0.0561 -0.1346
 4161W        W 5025   4.565  20.823   0.944 -0.3262 -0.0924  0.0370
 4162W        W 5026   9.606  22.925   0.227 -0.3095 -0.2778  0.0042
 4163W        W 5027  11.977  11.339  19.783  0.1625 -0.0612  0.5204
 4164W        W 5028   1.176  12.103  23.380  0.0998 -0.1630  0.5312
 4165W        W 5029  14.576  21.486  20.980  0.0764 -0.1039 -0.0794
 4166W        W 5030  12.299  17.346  13.200 -0.0614 -0.0925 -0.2806
 4167W        W 5031   5.289   0.901  14.814 -0.0015  0.0890  0.4339
 4168W        W 5032  19.396   9.972   3.826 -0.1388 -0.1609  0.1136
 4169W        W 5033   5.772  24.350   4.292  0.0596  0.1495 -0.0352
 4170W        W 5034   8.943   6.323  26.749 -0.0734 -0.1435  0.1299
 4171W        W 5035  25.794  20.312  17.768 -0.2657 -0.0120  0.0019
 4172W        W 5036  10.001  16.856   0.518  0.2128  0.4950 -0.1937
 4173W        W 5037   3.223   1.079   5.107 -0.1179 -0.3107 -0.2327
 4174W        W 5038  21.256  20.019   5.476  0.0320 -0.0835  0.0371
 4175W        W 5039   1.851  21.012  13.215 -0.0563 -0.3329 -0.0987
 4176W        W 5040  16.710   3.150   7.311 -0.1680  0.0784 -0.1013
 4177W        W 5041  23.683   1.723  25.909  0.0513  0.1058 -0.0070
 4178W        W 5042  10.947   7.714  11.837 -0.2619  0.0761 -0.2436
 4179W        W 5043   6.209  12.722  17.039  0.0170  0.0466 -0.1512
 4180W        W 5044   2.483  11.760   9.578 -0.4289  0.1053  0.0127
 4181W        W 5045  10.617   8.420  25.313 -0.0292 -0.0526  0.0333
 4182W        W 5046  29.085   0.798  20.315 -0.1676  0.1012 -0.2302
 4183W        W 5047  26.285  15.928  20.656  0.0077  0.2868  0.0222
 4184W        W 5048  20.267  17.582  24.836  0.0331 -0.1025 -0.2896
 4185W        W 5049   7.716  28.868  26.511  0.3330 -0.0267 -0.3150
 4186W        W 5050   9.884  27.244   4.270 -0.0707 -0.0863  0.0369
 4187W        W 5051   6.241  19.171  12.427  0.0215 -0.3744  0.0761
 4188W        W 5052   5.970  21.311  21.620 -0.3169  0.2194  0.1791
 4189W        W 5053   8.497  27.115  27.734 -0.0747  0.2295 -0.1648
 4190W        W 5054  22.718  26.397  18.274 -0.1935 -0.1621  0.1624
 4191W        W 5055   5.183  10.372   3.428 -0.4338 -0.3230 -0.0115
 4192W        W 5056  13.844  17.510  20.538 -0.1989 -0.0094  0.1337
 4193W        W 5057  16.033   0.482   5.636  0.0593  0.0229  0.2461
 4194W        W 5058  14.590  25.325  15.781 -0.1339 -0.2400 -0.1250
 4195W        W 5059  10.949  21.344  20.101  0.3379 -0.0030 -0.1181
 4196W        W 5060   4.020   5.036  24.552  0.0886  0.1971  0.2438
 4197W        W 5061  23.703   4.439  16.646  0.0220  0.1758 -0.0343
 4198W        W 5062   1.285  28.694  23.508 -0.0420  0.2795 -0.0323
 4199W        W 5063  13.297  11.462  16.629  0.0263 -0.2080  0.1448
 4200W        W 5064   1.221  13.181  12.710 -0.0078  0.0073  0.2064
 4201W        W 5065  18.945  28.225  26.599 -0.0208 -0.3252 -0.3494
 4202W        W 5066  18.631   2.074   3.057 -0.1853  0.1872  0.5990
 4203W        W 5067  12.424   7.896  26.250  0.2359  0.0627 -0.3025
 4204W        W 5068  28.364   4.752  19.771 -0.1169 -0.0194 -0.3069
 4205W        W 5069   9.489  28.264  25.616  0.0447  0.2504  0.0797
 4206W        W 5070   6.669  16.445  20.327 -0.0389  0.2235 -0.0796
 4207W        W 5071   0.336  27.976  18.179 -0.0355 -0.0113  0.1953
 4208W        W 5072  26.274  15.424  14.597  0.1738  0.1577 -0.1259
 4209W        W 5073  21.480  27.303  19.656 -0.1845 -0.1263 -0.0534
 4210W        W 5074  24.860  11.616  28.303  0.0803 -0.1650  0.0599
 4211W        W 5075   1.463  22.402  16.258 -0.0829  0.0352  0.0692
 4212W        W 5076   9.762  26.339  24.870 -0.3686  0.1237  0.1697
 4213W        W 5077  16.338  19.052   1.486 -0.0468  0.0511 -0.1588
 4214W        W 5078   2.862   5.905  17.463 -0.0861  0.2006 -0.0412
 4215W        W 5079  18.317   7.624  15.041  0.1131  0.1195  0.3181
 4216W        W 5080  11.598  20.683   1.377 -0.1473 -0.0554  0.1207
 4217W        W 5081   6.124   6.457  28.942  0.3042 -0.0157 -0.0117
 4218W        W 5082   5.958   2.900   5.081  0.2629 -0.0360 -0.1296
 4219W        W 5083   9.820  14.197  19.543  0.2027  0.0633 -0.0110
 4220W        W 5084  26.363   7.829  24.302 -0.0956  0.0632  0.1374
 4221W        W 5085   4.636  19.992   1.125  0.0559  0.0324 -0.2350
 4222W        W 5086  19.838   0.991  19.230 -0.1104 -0.0345  0.0415
 4223W        W 5087   7.422   9.940   1.419  0.1021 -0.2342 -0.1433
 4224W        W 5088  28.850  16.160  18.640 -0.0501  0.0965  0.0392
 4225W        W 5089   7.673  25.721  24.545  0.0334 -0.2371  0.3286
 4226W        W 5090   5.172  10.873  17.732  0.2291  0.0980  0.3469
 4227W        W 5091  16.295  23.476  25.654 -0.0391 -0.0421 -0.1552
 4228W        W 5092  17.515   4.881   3.479  0.1280 -0.1702 -0.1047
 4229W        W 5093  23.219   3.432  28.477 -0.4014  0.0504 -0.2640
 4230W        W 5094   0.826   3.622  11.693 -0.0261 -0.1738  0.3210
 4231W        W 5095   1.814  10.201  24.282  0.2905  0.2199  0.1666
 4232W        W 5096  22.171  17.533  20.083 -0.3471  0.0660  0.1826
 4233W        W 5097   0.076  21.164  14.005 -0.2389  0.0707 -0.1256
 4234W        W 5098   8.582  14.989  24.379 -0.4917  0.2853 -0.0530
 4235W        W 5099   9.425  21.086   8.332 -0.1605 -0.1215  0.0287
 4236W        W 5100   0.316   2.565  17.414 -0.0197 -0.0518  0.0743
 4237W        W 5101  26.530   8.727   3.710  0.1370  0.2947  0.0054
 4238W        W 5102   3.566  28.718  19.978 -0.0486 -0.2950 -0.1356
 4239W        W 5103  10.262  22.508  23.282 -0.1035 -0.1319  0.0324
 4240W        W 5104   7.369  13.931   1.329 -0.3671  0.0636 -0.0667
 4241W        W 5105  21.208  18.614   3.614  0.0569  0.0023  0.4514
 4242W        W 5106  14.998   2.451  24.123  0.3554 -0.2253  0.0149
 4243W        W 5107  27.587   9.588  22.745  0.1006  0.3358  0.1294
 4244W        W 5108  28.615   4.992  29.094 -0.2672 -0.1229 -0.0239
 4245W        W 5109  28.982   9.643  12.042  0.2158  0.2967 -0.1203
 4246W        W 5110  17.264  10.648   2.496 -0.0684  0.0548 -0.1044
 4247W        W 5111  24.383  20.772   4.966  0.0504  0.1186  0.2216
 4248W        W 5112  18.866  28.249  22.470  0.0193 -0.0647  0.3657
 4249W        W 5113   5.234   3.412  19.808  0.0656  0.0259  0.1357
 4250W        W 5114   9.178   5.577   1.324  0.1739  0.0275  0.1216
 4251W        W 5115  27.201   3.545   3.147 -0.0627 -0.1462  0.1014
 4252W        W 5116  20.174  12.504  23.486  0.3859  0.1540 -0.0780
 4253W        W 5117   1.675  20.320  20.494  0.2532 -0.0244  0.0053
 4254W        W 5118  11.483  13.181  19.185 -0.1635  0.2407 -0.3877
 4255W        W 5119  28.703  12.958  23.421  0.1919 -0.0716  0.4227
 4256W        W 5120  19.901  26.351  12.325  0.0704 -0.1160 -0.0417
 4257W        W 5121  21.351  15.140   2.063  0.1358 -0.0002 -0.0950
 4258W        W 5122  23.021   5.929  25.885  0.0991  0.0510 -0.1705
 4259W        W 5123   5.338  18.334  16.886  0.0385  0.0078  0.2235
 4260W        W 5124  22.674  13.082   2.089 -0.0408  0.1236 -0.0250
 4261W        W 5125  26.810  14.601  25.986  0.1436 -0.1179 -0.3038
 4262W        W 5126  24.778   2.013  12.811  0.1747 -0.1102  0.1312
 4263W        W 5127  24.935   4.050  22.760 -0.2013  0.0878 -0.1691
 4264W        W 5128   7.602  21.660  19.426 -0.1618  0.1881 -0.0381
 4265W        W 5129   2.168   6.765   1.200  0.1049 -0.0225  0.0251
 4266W        W 5130  10.386  19.017  23.899  0.1118 -0.2616  0.0893
 4267W        W 5131  15.048   5.553   4.508 -0.1841  0.4562 -0.1421
 4268W        W 5132  18.765   2.808  17.718 -0.3151  0.0315  0.0808
 4269W        W 5133   4.219  19.971   1.518  0.1714 -0.3267 -0.4154
 4270W        W 5134  27.716  26.812   8.167 -0.3438  0.2281 -0.1375
 4271W        W 5135  18.586  26.698  25.855  0.0005 -0.2156 -0.2288
 4272W        W 5136   5.913  25.548  13.749  0.3905 -0.0888 -0.0366
 4273W        W 5137   8.024  23.433  22.763 -0.2770 -0.4076 -0.1270
 4274W        W 5138   9.693   0.735  27.592 -0.3692 -0.0593 -0.0164
 4275W        W 5139   7.227   0.222   1.920  0.1635  0.2728  0.0058
 4276W        W 5140   0.906  28.041  26.947  0.1732  0.0239  0.1333
 4277W        W 5141  16.822  12.872   3.867 -0.2704  0.1113 -0.0376
 4278W        W 5142   8.454  22.435  27.572 -0.2484 -0.1967 -0.2429
 4279W        W 5143  16.295   0.537  16.228  0.1138  0.1134  0.0426
 4280W        W 5144   6.626   1.008  15.311  0.1203 -0.1692 -0.2009
 4281W        W 5145   4.554  19.045  23.337  0.3595  0.2392  0.2531
 4282W        W 5146  16.212   2.417   0.838  0.0757  0.0419  0.0521
 4283W        W 5147  27.256  15.675  28.356  0.0228  0.1367 -0.0963
 4284W        W 5148  28.683  16.735  20.695  0.3210 -0.0992  0.2831
 4285W        W 5149   3.552  20.515   1.128 -0.0865 -0.0949 -0.0138
 4286W        W 5150  14.418   6.899  27.634 -0.0660 -0.0430 -0.1726
 4287W        W 5151  27.602  10.749   2.613  0.2500 -0.2198  0.1430
 4288W        W 5152  25.980  26.415  12.427 -0.4380 -0.0343  0.1676
 4289W        W 5153   1.003   6.509  22.804  0.1476  0.0299  0.0576
 4290W        W 5154  19.385   0.995  26.942 -0.1603  0.1627 -0.1904
 4291W        W 5155   8.526   2.401   6.217  0.3432  0.1775 -0.1522
 4292W        W 5156   5.736  21.371   3.696 -0.0335  0.0510 -0.2525
 4293W        W 5157  19.702  20.548  23.673 -0.3734  0.0002 -0.1996
 4294W        W 5158  19.741  19.423  24.397  0.3639  0.0802 -0.0854
 4295W        W 5159  15.135  28.211  14.910  0.1412  0.2103 -0.1324
 4296W        W 5160  21.123  21.644   2.940 -0.2103  0.0186  0.0630
 4297W        W 5161   0.177   9.048  17.489  0.0621 -0.0330  0.3924
 4298W        W 5162   1.123   1.476   7.054  0.1131  0.0254  0.2248
 4299W        W 5163  26.717  22.018  15.613  0.0593  0.2287 -0.0418
 4300W        W 5164   7.556   1.927   1.754 -0.1012 -0.0483  0.2315
 4301W        W 5165   6.139  22.975  26.857  0.3714  0.3938 -0.1031
 4302W        W 5166  19.881   1.878  25.289 -0.1267  0.0765 -0.0899
 4303W        W 5167   7.386  25.289  18.426  0.0675  0.4742  0.0349
 4304W        W 5168  14.372   8.695   1.320  0.1804 -0.1507 -0.0534
 4305W        W 5169  12.345  27.896  15.182  0.3020 -0.4730 -0.1213
 4306W        W 5170   3.868  26.527  18.614  0.0183 -0.1469  0.1899
 4307W        W 5171   2.926  19.184   0.246 -0.0066  0.2091  0.0755
 4308W        W 5172   3.070  27.351   7.762 -0.0641  0.2417  0.2196
 4309W        W 5173   6.606  15.098  20.555 -0.0063  0.2697 -0.3097
 4310W        W 5174  19.506  12.355  13.487 -0.1711  0.2332  0.0320
 4311W        W 5175  28.470  16.820   8.964 -0.1039  0.0380  0.0613
 4312W        W 5176  25.261  10.493  16.989  0.1592  0.0355  0.0030
 4313W        W 5177   0.047  18.353  23.139 -0.0557  0.2761 -0.0282
 4314W        W 5178  17.864  26.193   6.694  0.0172 -0.0641 -0.0225
 4315W        W 5179   5.120  16.914  20.825 -0.3596 -0.0385  0.0526
 4316W        W 5180  23.223   3.528  14.466  0.0594 -0.1361  0.0855
 4317W        W 5181  28.790  18.875  23.041 -0.2136 -0.3315  0.2724
 4318W        W 5182  24.820  17.584  21.240 -0.2251  0.1009 -0.2442
 4319W        W 5183  25.687  12.313  16.869  0.0612 -0.4023 -0.2293
 4320W        W 5184  25.796  10.916   7.564 -0.0113  0.1114 -0.1076
 4321W        W 5185  17.991  16.539   0.703  0.2433 -0.0680  0.0214
 4322W        W 5186   0.630  25.754  17.660  0.2887 -0.2996 -0.2244
 4323W        W 5187   3.742  12.332   5.787 -0.1721 -0.2718  0.2544
 4324W        W 5188  21.696   7.661   2.371 -0.1838  0.2460 -0.0563
 4325W        W 5189  16.979  10.798  27.869 -0.1312 -0.0498 -0.0747
 4326W        W 5190   2.519  18.020  21.364 -0.1398  0.5874  0.0334
 4327W        W 5191  16.706  24.689  11.634  0.0441 -0.2801  0.0308
 4328W        W 5192  14.333  26.343  10.478  0.0892  0.2686 -0.1385
 4329W        W 5193   6.969  19.425  11.919  0.4815  0.1189  0.0470
 4330W        W 5194  21.103  12.474  27.854 -0.1211  0.0535 -0.1541
 4331W        W 5195   1.389  24.371  17.043  0.1931 -0.1868 -0.0818
 4332W        W 5196  18.379  21.275  27.128 -0.3000 -0.1031  0.0889
 4333W        W 5197   8.673  22.593  21.188  0.0909 -0.0628  0.1791
 4334W        W 5198  26.237  19.264   7.302 -0.0270  0.3680  0.5714
 4335W        W 5199  13.667   1.230  17.622 -0.0160  0.2912 -0.0269
 4336W        W 5200   7.288   4.257  26.064  0.1489  0.0826 -0.1474
 4337W        W 5201  25.453  25.967   0.473  0.3990  0.2916  0.0317
 4338W        W 5202  24.374  12.290  15.086  0.2414 -0.0784 -0.1310
 4339W        W 5203  10.595  16.498  21.237  0.2539  0.0161  0.0721
 4340W        W 5204  19.224  15.188  26.948  0.2485  0.2589  0.1053
 4341W        W 5205  25.705  13.075   0.695 -0.1958 -0.2256  0.0782
 4342W        W 5206  22.365  15.657  17.593  0.1801  0.0301 -0.1602
 4343W        W 5207  24.801  15.322  27.949  0.2035 -0.2366  0.1993
 4344W        W 5208  16.438  21.981  23.709 -0.0485  0.1326 -0.2660
 4345W        W 5209   4.719  15.998  19.050 -0.2373  0.1957  0.1134
 4346W        W 5210   2.183  26.364  15.919  0.2056  0.1972 -0.1037
 4347W        W 5211   2.441   6.412   2.023  0.1011  0.0349  0.2192
 4348W        W 5212   3.977   1.214   3.953  0.0749 -0.1860 -0.0395
 4349W        W 5213   5.897  26.998  20.543  0.0675 -0.1571  0.1274
 4350W        W 5214   5.241  23.226  26.363  0.1997 -0.0896  0.1350
 4351W        W 5215  15.016  12.604  25.626 -0.2433  0.1239  0.4384
 4352W        W 5216  25.740  27.591  26.378  0.0668  0.1119  0.2119
 4353W        W 5217   4.598  24.159  27.812 -0.0541 -0.1003 -0.1107
 4354W        W 5218  26.933  29.090  17.585  0.1600 -0.1286 -0.0917
 4355W        W 5219   5.261  14.652  14.909 -0.0252  0.3080 -0.1683
 4356W        W 5220  24.443   9.166   4.060  0.1110 -0.0981 -0.0431
 4357W        W 5221  28.393  10.531  19.002  0.2238 -0.0298  0.0238
 4358W        W 5222   3.838   9.448  27.259 -0.1384 -0.0456  0.1503
 4359W        W 5223   9.910  23.991  26.267 -0.3554  0.0499  0.0301
 4360W        W 5224  10.302   3.158  25.563  0.1509 -0.1062  0.0995
 4361W        W 5225  21.105  18.310  28.880  0.1934  0.2720  0.1490
 4362W        W 5226   9.289  26.344   1.791 -0.1255  0.2634  0.0114
 4363W        W 5227  14.094   1.206  16.092 -0.2363 -0.0470  0.1825
 4364W        W 5228   4.255  13.490  23.703 -0.1347  0.0390 -0.0321
 4365W        W 5229  11.550  12.633   4.251  0.3860  0.1729 -0.2632
 4366W        W 5230   1.995  23.621  20.096 -0.0290 -0.1931 -0.0526
 4367W        W 5231  18.856  24.287  28.495 -0.0045  0.0744  0.0481
 4368W        W 5232  19.684  11.436  27.160 -0.0046  0.0633  0.1096
 4369W        W 5233  26.918   2.868  17.979  0.1067 -0.0033 -0.1036
 4370W        W 5234  20.113  29.078  18.575 -0.1588 -0.1397 -0.2390
 4371W        W 5235  22.347  10.585  17.486  0.0240  0.0176  0.4701
 4372W        W 5236   7.399  12.439   3.741 -0.1507  0.0183 -0.1309
 4373W        W 5237  10.930  12.745  26.430 -0.2294 -0.1044 -0.0428
 4374W        W 5238  21.091   9.889  28.758  0.1492 -0.0624  0.1256
 4375W        W 5239   1.570  25.080  19.858 -0.1862 -0.0340 -0.0221
 4376W        W 5240  12.276  26.282  15.977  0.1254 -0.0804  0.2190
 4377W        W 5241  12.730  25.964  19.254  0.0844 -0.1472 -0.1763
 4378W        W 5242   9.819  28.501  27.685 -0.2645 -0.1047 -0.2450
 4379W        W 5243   5.479  21.001  14.495 -0.1094 -0.1586  0.1378
 4380W        W 5244   0.325  19.233  22.444  0.0247 -0.0875  0.1925
 4381W        W 5245  22.753   0.222   1.597  0.1277 -0.0482 -0.0093
 4382W        W 5246  14.012   2.622  26.340 -0.1934 -0.0828  0.0603
 4383W        W 5247  28.077  21.492  16.199  0.0007 -0.3130 -0.2790
 4384W        W 5248  21.947   8.583   2.655 -0.0874 -0.3241 -0.1032
 4385W        W 5249   8.746  28.292  10.966 -0.0349  0.2581 -0.1991
 4386W        W 5250  14.244  21.366  27.828 -0.0449 -0.0408 -0.0679
 4387W        W 5251   1.481  10.316  13.358  0.0067  0.0491  0.1079
 4388W        W 5252  16.320   5.246  15.768  0.0034  0.1816  0.3056
 4389W        W 5253  18.938   6.276  20.151  0.1296  0.0807 -0.0169
 4390W        W 5254  25.838  21.541  22.829 -0.1644  0.1828  0.0947
 4391W        W 5255  25.809  25.163  13.244  0.1500 -0.0289  0.0315
 4392W        W 5256   8.103  16.614  24.948 -0.0313 -0.1989 -0.0859
 4393W        W 5257  21.733  23.028  12.439  0.1747 -0.0665 -0.1648
 4394W        W 5258  21.655  26.189   9.230  0.0081  0.1000 -0.0366
 4395W        W 5259   3.506  16.964  28.145  0.3349 -0.2327 -0.1117
 4396W        W 5260  25.859  28.960  24.494  0.0278  0.0297 -0.1725
 4397W        W 5261  23.788  20.204   1.531  0.1161 -0.0026  0.1814
 4398W        W 5262  16.516  15.651   9.036  0.3388 -0.1253  0.0225
 4399W        W 5263  14.039   3.996   6.615 -0.1943 -0.2404 -0.0835
 4400W        W 5264   2.703  20.120  28.937  0.1685 -0.1785  0.1372
 4401W        W 5265  19.576  27.135   1.564  0.1592  0.2658  0.1733
 4402W        W 5266   2.229   2.787   0.644 -0.1446 -0.0230 -0.4904
 4403W        W 5267  28.680  25.605  28.582  0.1214 -0.0664  0.0766
 4404W        W 5268  21.914   2.384   1.718  0.1123 -0.2884  0.0593
 4405W        W 5269   5.989  19.675  13.133 -0.1766  0.0268  0.1874
 4406W        W 5270   5.736   6.658   7.340  0.1950  0.3534 -0.0127
 4407W        W 5271  28.949  19.004  10.580  0.0800  0.1392  0.0214
 4408W        W 5272  19.978  27.427   5.761 -0.1034 -0.2397 -0.0195
 4409W        W 5273  20.101  27.754   8.622 -0.1988 -0.1752 -0.0322
 4410W        W 5274  26.173   6.474   7.447  0.2011  0.0864 -0.0433
 4411W        W 5275   1.718  24.928  11.906 -0.0680  0.1459  0.2724
 4412W        W 5276  15.016   5.447  23.332 -0.0535 -0.0748  0.2020
 4413W        W 5277  14.927  14.948  23.410  0.1867 -0.1470  0.3486
 4414W        W 5278  13.948   0.968  11.912 -0.0094 -0.0051  0.0764
 4415W        W 5279   2.752   9.281  27.200  0.0580  0.0584 -0.2071
 4416W        W 5280  26.754  27.731  26.966 -0.3894 -0.0301  0.0937
 4417W        W 5281  13.164  11.770  20.846 -0.3950  0.2568 -0.1157
 4418W        W 5282   1.393   9.848   8.763  0.1486  0.0675 -0.0584
 4419W        W 5283  23.941   0.011  21.529  0.3892  0.0397  0.2731
 4420W        W 5284   2.129   8.689  23.261 -0.1780 -0.2222  0.2062
 4421W        W 5285  23.011   6.962  26.764 -0.1453  0.0397  0.3070
 4422W        W 5286  27.798  10.806  24.202 -0.2064 -0.2397  0.0335
 4423W        W 5287  28.260  12.365   4.684 -0.0835 -0.4527 -0.0317
 4424W        W 5288  11.093  22.297  24.917  0.1573 -0.0445 -0.0985
 4425W        W 5289   9.705   0.337   4.932 -0.2583  0.1283 -0.1812
 4426W        W 5290   1.805  15.789  23.941 -0.0384  0.1085  0.2298
 4427W        W 5291  18.579  22.995  10.513  0.1364 -0.0192 -0.4291
 4428W        W 5292  14.665   5.057  22.568  0.0338  0.2136  0.3574
 4429W        W 5293   7.575   9.078  23.954 -0.1133  0.1728  0.4223
 4430W        W 5294   9.428  25.051   6.808  0.2170  0.0808  0.1313
 4431W        W 5295  16.755  16.816  27.907  0.0622 -0.1687 -0.0525
 4432W        W 5296  10.897  12.980  24.679 -0.2370  0.0955  0.2711
 4433W        W 5297  27.654  11.853  21.700  0.3031 -0.2205  0.0755
 4434W        W 5298  25.372   7.953   1.290 -0.0901 -0.3807 -0.0889
 4435W        W 5299  28.489   9.343   1.283  0.3600  0.1221 -0.0554
 4436W        W 5300   5.417   6.809  25.954  0.0587 -0.1209 -0.0489
 4437W        W 5301  18.292  14.463   4.952 -0.0992  0.3438  0.2282
 4438W        W 5302  26.933  14.021   0.991  0.1004 -0.0445 -0.0685
 4439W        W 5303  13.285  20.481  26.691 -0.2347 -0.1400 -0.1879
 4440W        W 5304   4.004   2.646  13.460 -0.2099  0.2649 -0.0882
 4441W        W 5305  24.106  13.006  14.362 -0.0926 -0.0623 -0.1574
 4442W        W 5306  23.966  21.211   2.945 -0.2155 -0.0969  0.1935
 4443W        W 5307  12.933  28.355  26.791  0.0795 -0.2788  0.1149
 4444W        W 5308   0.789   3.177   2.912 -0.0553  0.3001  0.0284
 4445W        W 5309   0.809  15.165  23.263  0.2048  0.2279 -0.0956
 4446W        W 5310   8.574  19.887   7.125 -0.4508  0.1605 -0.0794
 4447W        W 5311   8.219   9.219   2.558  0.2538 -0.3486  0.1135
 4448W        W 5312  18.540   0.569   4.790  0.0406  0.0463 -0.2907
 4449W        W 5313   4.308  26.325  26.118  0.2859  0.0109 -0.1661
 4450W        W 5314  25.282  28.101   2.152  0.0295  0.3087 -0.0542
 4451W        W 5315  23.807   2.690  11.697 -0.0751  0.3791 -0.2801
 4452W        W 5316  24.814   2.029  16.980 -0.0270 -0.1159 -0.4007
 4453W        W 5317   6.068   9.053   9.690 -0.1045  0.0381 -0.0069
 4454W        W 5318  23.592  23.693  27.642  0.0974  0.0048 -0.1604
 4455W        W 5319  27.109  21.176  13.225 -0.0435  0.1091 -0.2452
 4456W        W 5320  27.451   9.542  18.798 -0.2547 -0.3372  0.2392
 4457W        W 5321   8.880   4.826  13.773  0.0604 -0.0253 -0.0315
 4458W        W 5322   9.948   0.865  10.460 -0.1071 -0.1375  0.0352
 4459W        W 5323   3.819  16.569   0.010 -0.0165 -0.0797  0.0995
 4460W        W 5324   1.318  12.651   5.744  0.1339  0.0607  0.1668
 4461W        W 5325  18.924  19.869  27.232  0.1401  0.0559  0.0597
 4462W        W 5326  21.257  18.654  27.718  0.0538  0.1584  0.1000
 4463W        W 5327  16.702   0.485   4.996 -0.0540  0.0884  0.2445
 4464W        W 5328  19.944  25.718   3.441 -0.0317 -0.0558 -0.1564
 4465W        W 5329  17.611  22.592  13.088  0.0117 -0.2650  0.2658
 4466W        W 5330   5.780  25.262   5.147  0.1715  0.1793 -0.0871
 4467W        W 5331   2.720  23.112   2.701  0.2066  0.0123  0.2364
 4468W        W 5332   0.688  26.078   2.108  0.1037 -0.1063  0.0787
 4469W        W 5333   2.842  13.810  26.165 -0.1348  0.4370  0.2054
 4470W        W 5334   3.461  11.387  28.649  0.0120  0.1587  0.2083
 4471W        W 5335  28.592  22.556   5.668 -0.2369  0.1135  0.0799
 4472W        W 5336   3.908  15.304   8.583  0.0619 -0.5172 -0.1588
 4473W        W 5337  20.682   0.091  14.228  0.1104 -0.0745 -0.2692
 4474W        W 5338  25.107   7.278   7.571 -0.1098 -0.2030 -0.2283
 4475W        W 5339  24.293  11.155   0.237  0.1538  0.0568 -0.0718
 4476W        W 5340   3.288  13.965  25.808  0.1809  0.2265  0.2831
 4477W        W 5341  20.902  26.461  20.535 -0.1002 -0.1727 -0.0335
 4478W        W 5342  19.671  18.992  25.387  0.0518  0.0219  0.2031
 4479W        W 5343  19.153   2.261  24.867 -0.1607 -0.1445  0.1863
 4480W        W 5344   5.677  14.286  25.655 -0.0503 -0.2588  0.2285
 4481W        W 5345   6.262  24.756   9.876  0.0443  0.0304  0.2573
 4482W        W 5346  10.326  19.620   0.725  0.2513  0.1218 -0.0347
 4483W        W 5347  25.328   6.241  26.463 -0.1083  0.2617  0.2060
 4484W        W 5348   2.997  21.784   5.821  0.2650  0.1591  0.1204
 4485W        W 5349  12.293  20.393  26.448 -0.1707 -0.0953 -0.0853
 4486W        W 5350   3.988   2.205   3.364 -0.3501  0.1518 -0.1756
 4487W        W 5351   9.462  27.474   0.510 -0.1157  0.0990 -0.0928
 4488W        W 5352  26.433   4.880  10.282  0.3115 -0.1311 -0.3488
 4489W        W 5353  15.443  24.183  27.341 -0.1146 -0.0190 -0.1608
 4490W        W 5354   3.066  28.454  10.023  0.1543 -0.1691  0.0063
 4491W        W 5355  22.325  25.958   5.165 -0.1170 -0.1098 -0.2816
 4492W        W 5356  22.138  21.071  26.817  0.2534 -0.0608  0.0379
 4493W        W 5357   8.514  28.560   0.559  0.1344  0.1127 -0.3792
 4494W        W 5358  25.788  18.060  19.160 -0.0370  0.0031 -0.1979
 4495W        W 5359  26.833   1.652  17.619 -0.0736  0.0333 -0.0177
 4496W        W 5360  28.689  21.861  22.242 -0.1674  0.3894 -0.1485
 4497W        W 5361  18.565  25.311  28.480  0.3685  0.0703 -0.1690
 4498W        W 5362  13.395  18.513   3.769 -0.2804  0.0473  0.2206
 4499W        W 5363  16.901  25.736   1.893  0.5234 -0.0751 -0.2970
 4500W        W 5364   0.314  17.189  24.452  0.0498 -0.0059  0.2335
 4501W        W 5365   7.989  23.924  24.729  0.1358 -0.2025  0.0484
 4502W        W 5366   5.318  26.682   3.947 -0.1824 -0.1526  0.0125
 4503W        W 5367   1.273  25.946  11.716 -0.2068  0.2598 -0.0223
 4504W        W 5368   2.014  10.194  21.955 -0.2494  0.3414 -0.0334
 4505W        W 5369   5.685  25.608  20.442  0.0207  0.2648 -0.0462
 4506W        W 5370   0.361  22.661  23.659  0.0489 -0.1529 -0.1943
 4507W        W 5371  13.150   6.308  26.728 -0.0120  0.1508 -0.0146
 4508W        W 5372   2.808  21.691  21.854  0.0315  0.2282  0.1229
 4509W        W 5373   1.940  10.642  21.594 -0.0939  0.0297 -0.0949
 4510W        W 5374  12.915  28.023  27.631  0.1449  0.0829 -0.2197
 4511W        W 5375   1.690  28.722   6.705 -0.1748 -0.1341 -0.0667
 4512W        W 5376  10.362  16.306  29.008  0.2122 -0.1240 -0.0264
 4513W        W 5377  22.740  19.016  21.861 -0.1378  0.2272  0.1095
 4514W        W 5378   6.289  14.752  11.210 -0.0835  0.1163  0.0827
 4515W        W 5379  17.350   0.300   1.683  0.1726  0.2725  0.0705
 4516W        W 5380  27.874  22.472   6.270 -0.2277  0.3743  0.2639
 4517W        W 5381  27.566  13.242  26.079 -0.0716  0.0811 -0.1782
 4518W        W 5382   1.404  15.126   0.097 -0.0739  0.0728 -0.1488
 4519W        W 5383   6.882  15.292   2.428 -0.0276 -0.3185 -0.0252
 4520W        W 5384  20.371  20.749  27.228 -0.2085  0.1376 -0.0365
 4521W        W 5385  21.832  20.433  28.103 -0.1207 -0.2516 -0.0958
 4522W        W 5386   9.832  17.175   3.021  0.1020 -0.2711 -0.1867
 4523W        W 5387   6.024  26.724  27.896  0.2617 -0.3243 -0.0918
 4524W        W 5388  25.149   7.953  16.157  0.1432 -0.1492 -0.2091
 4525W        W 5389  10.312  22.206  24.553 -0.0702  0.0188  0.4205
 4526W        W 5390  16.846   2.805   2.824  0.0380 -0.0659 -0.1077
 4527W        W 5391  14.183   6.319  17.987  0.2478  0.1163  0.2722
 4528W        W 5392  22.095   5.235   4.260 -0.1227  0.2442 -0.3013
 4529W        W 5393  27.375  18.962  20.962  0.1785 -0.0143  0.0513
 4530W        W 5394  24.336  26.399   8.111  0.3465 -0.0026 -0.1976
 4531W        W 5395  21.192  16.718   8.497  0.0295  0.0544  0.0043
 4532W        W 5396   4.057  16.294   6.173 -0.3201  0.0411  0.2504
 4533W        W 5397  12.662  11.850  10.832 -0.0056 -0.0597 -0.2265
 4534W        W 5398  12.420  20.280   2.876  0.2282 -0.2805  0.1561
 4535W        W 5399  25.265  27.556   8.686  0.1240  0.2367  0.3008
 4536W        W 5400  28.238  25.863  28.697 -0.3753 -0.1160  0.0860
 4537W        W 5401   1.714  24.010   5.394  0.0278  0.1495 -0.0389
 4538W        W 5402  24.444  21.656  23.416  0.1205  0.2401  0.0470
 4539W        W 5403  19.860  24.586   5.453  0.1777 -0.1551  0.3352
 4540W        W 5404   3.387   2.694   8.121  0.0944 -0.0896  0.1345
 4541W        W 5405  19.337  28.431  24.775 -0.0510 -0.0737  0.2611
 4542W        W 5406   5.514  10.907   1.860 -0.3188  0.2596 -0.2764
 4543W        W 5407  11.023   4.365  23.397 -0.1119 -0.0387  0.1268
 4544W        W 5408  23.597  16.375  14.484  0.1516  0.2201 -0.0898
 4545W        W 5409  19.011  17.649  21.502  0.2701  0.0671  0.0749
 4546W        W 5410  20.736  24.992   2.633 -0.2132 -0.1695 -0.1950
 4547W        W 5411   0.031   0.941  11.721 -0.0844  0.0874  0.0997
 4548W        W 5412  19.491  22.634  19.841  0.0498  0.2940  0.2743
 4549W        W 5413  21.557  24.312   4.175  0.1866 -0.2617  0.3564
 4550W        W 5414  28.871  17.788   6.412  0.4552  0.0825  0.1698
 4551W        W 5415   5.145  14.892  23.264 -0.1302 -0.0175  0.0337
 4552W        W 5416  25.716  27.108  24.325 -0.1115  0.2213 -0.1258
 4553W        W 5417  17.711  23.990  18.422  0.2075  0.0992  0.0463
 4554W        W 5418  22.638  18.291  26.673 -0.0993 -0.0542 -0.2453
 4555W        W 5419   3.906  28.370  20.942 -0.0544 -0.2946 -0.0878
 4556W        W 5420  13.242  27.335  20.652  0.1956 -0.0436  0.2157
 4557W        W 5421  26.583  11.832  28.628  0.1097  0.1478  0.2418
 4558W        W 5422  24.445  25.801   1.715  0.1527 -0.0841  0.1308
 4559W        W 5423  24.709  10.165  10.703 -0.1918 -0.0474 -0.2553
 4560W        W 5424  22.609  19.206  27.147  0.0874 -0.0267 -0.2548
 4561W        W 5425  23.444   1.392  28.471 -0.0767 -0.2888  0.1817
 4562W        W 5426  17.824   4.130  25.742 -0.0228 -0.1844 -0.0844
 4563W        W 5427   5.518  11.764   9.142  0.1530  0.1422 -0.1818
 4564W        W 5428  11.692  14.226  22.414  0.0388  0.0344  0.0168
 4565W        W 5429  16.160  13.824   2.018 -0.1360  0.0499  0.1457
 4566W        W 5430  22.871  28.608   7.457 -0.2465 -0.1509 -0.2068
 4567W        W 5431  12.369  13.128   8.848 -0.1602 -0.0574 -0.0653
 4568W        W 5432   9.691  15.789   5.154  0.3932  0.0556  0.0235
 4569W        W 5433   7.872  28.745   9.187 -0.1132  0.3154 -0.2707
 4570W        W 5434   2.265  25.772  28.568  0.1719 -0.0409  0.0721
 4571W        W 5435  24.573  11.816  19.516 -0.1801  0.0732 -0.1115
 4572W        W 5436  19.132   6.356  22.612 -0.0756  0.1437 -0.0991
 4573W        W 5437  25.272  19.076   4.403 -0.1011 -0.0129 -0.1080
 4574W        W 5438  11.222  23.188  21.341  0.2152  0.1064  0.0066
 4575W        W 5439  25.095   0.396  25.854  0.1276 -0.2835 -0.2219
 4576W        W 5440  23.936   4.694   6.546  0.1262 -0.0845 -0.0414
 4577W        W 5441  19.868  20.421  17.958  0.1759 -0.0820 -0.0030
 4578W        W 5442  19.473  12.536  11.688 -0.1180 -0.1625 -0.3441
 4579W        W 5443   1.094   0.332  28.116 -0.1088 -0.5487  0.2628
 4580W        W 5444   6.824   0.252  29.103 -0.0842 -0.3583  0.1523
 4581W        W 5445  11.849   8.457   6.700 -0.0531  0.0860  0.0175
 4582W        W 5446  21.247  26.428  23.739 -0.0026 -0.1724  0.1405
 4583W        W 5447   2.939   1.704  15.527  0.1047  0.3946  0.2964
 4584W        W 5448   2.273  21.594   3.187  0.0259  0.0965 -0.1736
 4585W        W 5449   0.829  24.640  23.020  0.4070  0.1652 -0.2414
 4586W        W 5450   1.089  12.484  11.506  0.0068 -0.1427  0.0556
 4587W        W 5451  19.351   9.061  17.145  0.3068 -0.3028  0.4026
 4588W        W 5452   9.537  18.390  23.470  0.0721  0.0564  0.0425
 4589W        W 5453  13.403   2.299  27.169  0.1006  0.1836  0.2159
 4590W        W 5454  20.278  28.807  25.625 -0.5303 -0.1115  0.4340
 4591W        W 5455  24.334  17.188   7.873  0.1285 -0.0317 -0.1102
 4592W        W 5456   0.130  24.502   0.003  0.1312 -0.4141 -0.0173
 4593W        W 5457  26.640   2.201   6.178 -0.1395 -0.0611  0.1634
 4594W        W 5458   2.219   8.333   2.391  0.0148 -0.0868 -0.0099
 4595W        W 5459   1.595  10.522  18.604  0.0653 -0.2464  0.0934
 4596W        W 5460  29.103   1.088  25.818  0.0778  0.3178 -0.1941
 4597W        W 5461   9.896  22.613   7.003 -0.0019  0.1048 -0.1247
 4598W        W 5462  21.549   3.780  10.513  0.1709  0.1552 -0.2415
 4599W        W 5463  13.463   1.008   1.606 -0.1079  0.1069 -0.2162
 4600W        W 5464  26.623  25.032   9.371 -0.2868  0.2562  0.1634
 4601W        W 5465  25.563  26.740  24.935 -0.0081 -0.0484 -0.1584
 4602W        W 5466  23.043   4.349  25.342 -0.1969  0.3108 -0.0451
 4603W        W 5467   8.580  22.857  25.383 -0.1604 -0.1578  0.1153
 4604W        W 5468   8.727  25.707  15.772  0.0897 -0.0417 -0.2779
 4605W        W 5469  17.489   2.198   4.410  0.0331 -0.0387 -0.4371
 4606W        W 5470   2.056  27.684  15.928  0.0835  0.2064  0.2232
 4607W        W 5471   3.898  14.804  10.802 -0.1274 -0.3770  0.3074
 4608W        W 5472  22.231  10.331  29.012 -0.1643  0.2224  0.0549
 4609W        W 5473   3.065   9.226  28.341 -0.1137 -0.0180  0.2406
 4610W        W 5474  13.475  10.458  19.199  0.0069  0.3776 -0.4535
 4611W        W 5475  18.981  27.220   8.075  0.0435 -0.3425  0.1911
 4612W        W 5476  26.512  28.788  13.037 -0.1443 -0.0800 -0.0412
 4613W        W 5477  15.261   7.215   5.260 -0.0143  0.0302 -0.1554
 4614W        W 5478   8.793   8.119  19.375  0.1405  0.0249  0.1568
 4615W        W 5479  16.639  15.533  16.164  0.2806 -0.2432  0.0166
 4616W        W 5480  10.410  26.364  24.384 -0.0097  0.2050 -0.0373
 4617W        W 5481  26.943  24.786  13.034  0.0405 -0.0296  0.2376
 4618W        W 5482  24.266  12.518  13.662 -0.1277  0.1822 -0.0313
 4619W        W 5483   6.359   5.963  10.665 -0.1951 -0.0866  0.1510
 4620W        W 5484   1.405   9.450  10.281 -0.2080  0.0211  0.0840
 4621W        W 5485   8.800  23.302  18.845 -0.1566  0.2802 -0.0507
 4622W        W 5486   9.366   7.157  22.830  0.0998 -0.1237 -0.1046
 4623W        W 5487  15.730   9.601  22.349 -0.4130 -0.3061  0.3545
 4624W        W 5488  21.347  28.886  28.036 -0.0198 -0.0591  0.1037
 4625W        W 5489  18.788  23.232   3.828  0.0530 -0.1563 -0.4179
 4626W        W 5490  16.342   7.336  23.507 -0.3847 -0.0565  0.1559
 4627W        W 5491   9.010  21.723   0.529 -0.0819  0.0888  0.0052
 4628W        W 5492   1.445  23.377  25.532  0.3123  0.2498 -0.1670
 4629W        W 5493  22.388  24.489   7.689 -0.0730 -0.1051 -0.1308
 4630W        W 5494   4.321   0.036  18.759  0.0053  0.1979 -0.2319
 4631W        W 5495   5.499  25.318  29.007 -0.0412  0.2173  0.2388
 4632W        W 5496  22.629   8.141  25.829 -0.0257  0.0169  0.2732
 4633W        W 5497  21.160  20.212  14.290 -0.0945  0.2317 -0.3607
 4634W        W 5498  28.255   8.864  18.273  0.1746  0.1302  0.2790
 4635W        W 5499  25.948   8.004  24.486 -0.3499 -0.1727 -0.1240
 4636W        W 5500  12.009  17.834  18.910 -0.1114  0.1732 -0.2368
 4637W        W 5501  19.677  23.484  20.730 -0.2171 -0.0949  0.1547
 4638W        W 5502   9.873  13.165   0.765 -0.3141 -0.3341 -0.1717
 4639W        W 5503   3.241  13.264   7.703 -0.0488  0.2524 -0.2208
 4640W        W 5504  13.662  25.998   6.567 -0.0858 -0.1883 -0.0901
 4641W        W 5505  13.261   0.189   1.208  0.0042  0.0186 -0.1383
 4642W        W 5506  21.929   7.295  13.414  0.1002 -0.2896  0.0863
 4643W        W 5507  21.003   6.786  19.886  0.0113 -0.1714  0.5096
 4644W        W 5508   3.279   9.359  23.864 -0.3576 -0.2552 -0.3204
 4645W        W 5509  19.962  10.243  10.348 -0.2217 -0.4829 -0.1721
 4646W        W 5510  21.143  22.886  15.570  0.0575 -0.3321  0.0043
 4647W        W 5511  23.254  24.299  11.240 -0.0400  0.0501  0.0647
 4648W        W 5512  23.149  12.116   0.115  0.1605 -0.1443  0.1486
 4649W        W 5513  28.818  23.911  14.879  0.2571 -0.2832 -0.0086
 4650W        W 5514  19.203  18.934  20.735  0.1463 -0.1386  0.0133
 4651W        W 5515  16.830   3.336  27.461  0.0003  0.2344  0.0980
 4652W        W 5516  20.406  24.192   9.938 -0.0544 -0.3385 -0.0845
 4653W        W 5517  16.878  20.054   0.923 -0.3941 -0.3932 -0.1491
 4654W        W 5518  12.658  12.509   0.684  0.1265 -0.0398  0.1824
 4655W        W 5519  24.927   0.937   1.344 -0.0082  0.2707  0.0762
 4656W        W 5520  10.580   0.063  16.527  0.1087 -0.2547 -0.3063
 4657W        W 5521  24.599  27.020  27.369 -0.0910 -0.4073  0.0601
 4658W        W 5522  16.923  26.825   9.573  0.1811 -0.2283  0.0021
 4659W        W 5523  27.750   1.922  24.092  0.4218  0.0099  0.0316
 4660W        W 5524   8.567   6.768  14.839  0.1170  0.1579 -0.1198
 4661W        W 5525  25.057  16.792  27.865 -0.1277  0.1757 -0.1106
 4662W        W 5526  26.385  19.656   7.630  0.0581 -0.2246 -0.0729
 4663W        W 5527  11.354  22.243  20.269 -0.2239 -0.0358 -0.2264
 4664W        W 5528   0.967  18.046   5.096 -0.1466 -0.3037  0.2004
 4665W        W 5529  21.119   5.141  26.464  0.2579  0.1221 -0.1482
 4666W        W 5530   1.078  25.008  18.495 -0.0463  0.2995 -0.0779
 4667W        W 5531  22.229  18.509  27.802 -0.1846  0.0089 -0.0628
 4668W        W 5532  12.026   6.852  25.382 -0.0929 -0.0281 -0.3145
 4669W        W 5533   4.496   8.509   0.911  0.0003  0.0292  0.0504
 4670W        W 5534  28.227  19.550  13.710 -0.0360 -0.0244  0.3151
 4671W        W 5535  27.236  25.748  18.635  0.0107  0.0053 -0.0692
 4672W        W 5536   6.975   4.830  26.359 -0.0835  0.0296 -0.1811
 4673W        W 5537  22.877   0.560   5.412  0.0194 -0.0862 -0.1811
 4674W        W 5538   3.392  26.321  16.293  0.2507 -0.0953  0.3693
 4675W        W 5539   3.234  15.375   7.524  0.3253 -0.0923  0.1106
 4676W        W 5540  12.954  22.984  21.834 -0.0625  0.2439  0.2200
 4677W        W 5541   5.028  22.727  25.874 -0.0135 -0.0732 -0.2428
 4678W        W 5542   0.853  13.160   7.574 -0.1279 -0.2572 -0.0769
 4679W        W 5543  25.306   2.887  15.034 -0.2437 -0.4647  0.0675
 4680W        W 5544  18.812   0.974   2.867 -0.0466 -0.0405 -0.1977
 4681W        W 5545   7.327  22.629  20.162  0.0944 -0.0714 -0.3473
 4682W        W 5546   2.735  14.967  15.960 -0.4370  0.2319 -0.1081
 4683W        W 5547  26.377   1.456   4.451 -0.0782 -0.0999  0.1314
 4684W        W 5548  15.302  25.996  19.853  0.0294  0.0183 -0.0148
 4685W        W 5549  15.627   7.766  14.396  0.0138 -0.4124  0.0431
 4686W        W 5550   4.632   2.220   8.309  0.1449  0.0443 -0.0249
 4687W        W 5551  10.233   0.258  24.970  0.2533  0.2251  0.0714
 4688W        W 5552   6.039   7.731  23.589 -0.0790  0.0132 -0.1632
 4689W        W 5553  28.895  27.286   1.270 -0.1965  0.0645 -0.1004
 4690W        W 5554   3.588  28.137  12.388 -0.0799  0.0438  0.1536
 4691W        W 5555  21.952   2.593  22.616  0.1795  0.2375  0.3750
 4692W        W 5556  15.721  13.981  24.567  0.3269 -0.0736  0.0235
 4693W        W 5557   7.033   7.709   3.830 -0.0016  0.0813  0.0410
 4694W        W 5558   8.506   9.251  16.093  0.5862 -0.1605  0.7042
 4695W        W 5559   1.777   0.517   1.792 -0.0699 -0.0299 -0.0611
 4696W        W 5560  16.684  26.706   7.598  0.2633  0.0474  0.0970
 4697W        W 5561  18.832  22.751   0.125  0.3387  0.1558 -0.0419
 4698W        W 5562  19.792   5.885  28.351 -0.1381 -0.2354 -0.2307
 4699W        W 5563   6.614  20.371  22.622  0.0044 -0.0384 -0.0457
 4700W        W 5564  10.901   2.583  25.243  0.0313  0.2260  0.0829
 4701W        W 5565   7.030  27.829   2.758 -0.3886  0.1452 -0.0925
 4702W        W 5566   0.450  27.505  20.961 -0.0326 -0.0327 -0.0656
 4703W        W 5567   1.757  24.903   4.915  0.0093  0.0789  0.0685
 4704W        W 5568  19.260   2.342  14.596  0.0602 -0.0912 -0.2160
 4705W        W 5569   6.426  10.611   6.633 -0.0497  0.0277 -0.1078
 4706W        W 5570  23.067   5.253  27.639  0.3073 -0.0416 -0.0390
 4707W        W 5571  16.681  12.130  28.542  0.2590 -0.2328  0.2571
 4708W        W 5572   2.767   4.910  28.723  0.0899 -0.2162 -0.2359
 4709W        W 5573   9.245  19.721   7.086 -0.1732 -0.1462 -0.2754
 4710W        W 5574  17.188  26.023  22.960  0.0802  0.3630  0.1933
 4711W        W 5575  12.232   4.949  25.494 -0.0124  0.2881  0.2761
 4712W        W 5576  24.442   7.544   5.008 -0.2524  0.0436 -0.3251
 4713W        W 5577  11.780  24.277  26.182  0.0471  0.0291 -0.1706
 4714W        W 5578   8.669  24.731  27.421  0.1534 -0.0594 -0.3154
 4715W        W 5579  28.939  10.728  26.024  0.1036  0.0187 -0.5105
 4716W        W 5580  16.494  11.946  10.310 -0.0132 -0.1296 -0.0591
 4717W        W 5581   8.320  15.627   2.554  0.4769 -0.2504 -0.1958
 4718W        W 5582   6.264  27.404  24.214 -0.0109 -0.0988 -0.0745
 4719W        W 5583  26.574   7.475  21.414 -0.1523 -0.1808  0.1553
 4720W        W 5584   4.419  21.461  20.172  0.1692  0.1052 -0.4992
 4721W        W 5585   0.973  28.791  25.288 -0.2745  0.0711  0.1267
 4722W        W 5586   5.929   2.742  26.840  0.3194  0.1540  0.0789
 4723W        W 5587   4.738  12.096  26.735  0.0621  0.1110 -0.1305
 4724W        W 5588  23.529  16.028   1.159  0.0009  0.2189 -0.1836
 4725W        W 5589  22.440  10.166  20.277 -0.0745 -0.1203  0.0937
 4726W        W 5590  15.174  21.792  13.424  0.1541  0.1197 -0.3042
 4727W        W 5591  14.706  24.470  22.169  0.0187 -0.0864 -0.2674
 4728W        W 5592   9.328   0.060  20.625  0.0651 -0.0903 -0.4935
 4729W        W 5593   4.422   4.399  21.789  0.1970  0.0735  0.2286
 4730W        W 5594  23.120   1.687  28.818 -0.1653  0.0189 -0.1339
 4731W        W 5595   6.143  17.282   9.265 -0.3600  0.0845 -0.1114
 4732W        W 5596   0.520  19.520  21.526  0.4703  0.0999 -0.1794
 4733W        W 5597  22.456   5.459  18.093 -0.2471 -0.0436  0.1699
 4734W        W 5598  12.191  12.608  28.094  0.1356  0.0885  0.2761
 4735W        W 5599  19.860   2.981  16.569  0.1620  0.0696  0.3103
 4736W        W 5600  22.981  19.196   3.802 -0.0503  0.1935 -0.1628
 4737W        W 5601  10.830   5.427  10.663 -0.1785 -0.2340 -0.2101
 4738W        W 5602  10.025  22.877   5.932  0.3291  0.0183 -0.1494
 4739W        W 5603   9.252  26.673   4.155 -0.1134  0.1038 -0.1959
 4740W        W 5604   4.090   2.412  14.987 -0.0879 -0.1242  0.1202
 4741W        W 5605   6.361  14.907  24.643 -0.1351  0.0938  0.3358
 4742W        W 5606   3.125   5.521   1.874 -0.0474  0.1222  0.3222
 4743W        W 5607  20.432  24.485  11.005  0.0019 -0.3985 -0.1821
 4744W        W 5608   6.169   4.225  21.722 -0.1849 -0.0798  0.0529
 4745W        W 5609  22.638  28.997  16.518 -0.0680 -0.0291  0.2244
 4746W        W 5610  12.514  15.175   5.446 -0.1965  0.1208  0.1050
 4747W        W 5611   2.203  14.688  27.595  0.1451  0.0528 -0.1080
 4748W        W 5612   0.319  27.421   3.191 -0.1571  0.1310  0.0964
 4749W        W 5613  25.849   3.400   6.011  0.1342  0.0829  0.2152
 4750W        W 5614  14.609  15.914   0.849  0.2421 -0.0202 -0.2244
 4751W        W 5615   5.222  26.492  17.284  0.0241 -0.0855  0.0055
 4752W        W 5616   6.776  21.017  23.576  0.2528  0.1758 -0.2002
 4753W        W 5617   8.745   3.137  13.712 -0.2236  0.5438 -0.1125
 4754W        W 5618  21.772  17.201  17.073  0.1965  0.2222 -0.1174
 4755W        W 5619   4.276  26.362  25.191  0.0354  0.2059 -0.0991
 4756W        W 5620  26.744  20.974   6.988 -0.1552 -0.1112 -0.3321
 4757W        W 5621  25.551   1.058  27.988  0.1394 -0.1059  0.1306
 4758W        W 5622   7.626  21.837   1.113  0.0380 -0.4586 -0.2523
 4759W        W 5623   8.722  28.642  13.753  0.0832  0.0355 -0.0607
 4760W        W 5624  27.403  22.604  10.025 -0.0533 -0.0574 -0.1189
 4761W        W 5625   4.905  13.438   0.196  0.1564 -0.6354 -0.1891
 4762W        W 5626  23.854   1.659   2.150 -0.0071 -0.2124  0.1956
 4763W        W 5627  21.423   9.753   9.262  0.2865 -0.3266  0.0100
 4764W        W 5628   4.679   6.752  14.182 -0.1952  0.0549 -0.1126
 4765W        W 5629  12.017  18.039   2.699  0.2645  0.0545 -0.0215
 4766W        W 5630   9.491  27.295  24.907  0.0840  0.1261 -0.2466
 4767W        W 5631  18.176  26.161   3.474  0.0930 -0.1509  0.2547
 4768W        W 5632  13.736   4.458   2.116  0.1587 -0.0022 -0.1151
 4769W        W 5633  11.533   2.581   6.001 -0.0523 -0.2666  0.1561
 4770W        W 5634  22.768  19.163  13.783 -0.1480  0.0494  0.1476
 4771W        W 5635   8.272  10.548  27.808 -0.0531  0.0346  0.0773
 4772W        W 5636   9.713   1.206  23.192  0.1916  0.0629  0.0297
 4773W        W 5637  12.344  26.385  28.155 -0.0245 -0.2622  0.2075
 4774W        W 5638  16.411   6.755  19.414 -0.0581  0.1452  0.1338
 4775W        W 5639   8.561  21.431  21.611 -0.0568 -0.0052 -0.1407
 4776W        W 5640   3.481   1.689  16.880  0.0197 -0.0138 -0.0754
 4777W        W 5641  25.073   5.127   3.433  0.0622  0.0171 -0.1287
 4778W        W 5642  27.098   2.800   1.931  0.2081  0.4023  0.2343
 4779W        W 5643  19.409   1.217  27.398 -0.0852 -0.0232  0.0079
 4780W        W 5644  22.197  25.760   4.285 -0.0322  0.2064  0.1253
 4781W        W 5645  12.815  16.312  25.889 -0.3317 -0.0264 -0.1766
 4782W        W 5646   7.689  28.043  10.368  0.1485  0.0406 -0.2187
 4783W        W 5647  28.525  28.419  16.936  0.3548  0.2588  0.2966
 4784W        W 5648  22.943  16.352  27.969  0.0352  0.0058 -0.3169
 4785W        W 5649   2.987   3.452   6.498 -0.1788 -0.2301 -0.0288
 4786W        W 5650   1.728  19.828   9.952 -0.3052 -0.1377 -0.0058
 4787W        W 5651   2.632  13.952  19.067  0.0543  0.6373 -0.2710
 4788W        W 5652   2.761   0.270  12.642 -0.1724 -0.0719  0.1354
 4789W        W 5653   6.793   4.416  21.975  0.2313  0.1162  0.0851
 4790W        W 5654  12.162  11.657  15.339 -0.1629 -0.0749 -0.1790
 4791W        W 5655   4.206  16.108  20.270 -0.1700 -0.0099  0.2114
 4792W        W 5656  12.492  28.530  17.220  0.0209 -0.0267  0.1751
 4793W        W 5657  19.735  25.303  23.871  0.1156  0.2758 -0.3740
 4794W        W 5658   0.906  26.391   7.900 -0.0851 -0.0627 -0.0553
 4795W        W 5659   1.886  18.533  14.856 -0.0876 -0.2527  0.3863
 4796W        W 5660  14.366  27.534   1.449  0.0386 -0.0747 -0.2654
 4797W        W 5661  27.439  27.897   6.196  0.0379  0.1446  0.1576
  29.14405  29.14405  29.14405
